G2DPncore-PETIM in water
194454
    1aaa     O1    1   5.018   9.046   7.444 -0.0529  0.1416  0.3371
    1aaa     C1    2   5.150   9.101   7.433  0.4601 -0.3330  0.8830
    1aaa     H1    3   5.216   9.020   7.398  0.1900  0.3455 -1.3406
    1aaa     H2    4   5.189   9.135   7.530  0.2060 -0.9114  1.1946
    1aaa     C2    5   4.991   8.987   7.574  0.5604  0.1912 -0.3321
    1aaa     H3    6   4.884   8.997   7.595  0.4226  1.4330 -1.5000
    1aaa     H4    7   5.050   9.019   7.661 -2.2039  1.6509  1.1646
    1aaa     C3    8   5.165   9.228   7.338 -0.6824  0.5964  0.6886
    1aaa     H5    9   5.138   9.196   7.237  1.5681 -2.0774  0.8065
    1aaa     H6   10   5.271   9.258   7.338 -0.5808  0.4420 -2.0384
    1aaa     C4   11   5.010   8.836   7.554  0.3211  0.0833 -0.3938
    1aaa     H7   12   5.112   8.820   7.519  0.2905  0.1315 -0.5042
    1aaa     H8   13   4.933   8.804   7.482 -1.0018 -2.1818  1.8352
    1aaa     C5   14   5.075   9.348   7.367 -0.2434 -0.6473  0.2023
    1aaa     H9   15   4.973   9.319   7.392 -0.6524  0.8928  0.3831
    1aaa    H10   16   5.114   9.396   7.456  0.4633 -1.1088  0.1557
    1aaa     C6   17   4.984   8.748   7.686  0.0518  0.0660 -0.0670
    1aaa    H11   18   4.891   8.771   7.739 -1.0059 -0.4785 -1.6037
    1aaa    H12   19   5.065   8.773   7.754 -0.7301  2.1617  0.1825
    1aaa     N1   20   5.061   9.457   7.261 -0.0846  0.2247 -0.4869
    1aaa     N2   21   4.974   8.600   7.663 -0.2379  0.2909  0.3340
    1aaa     C7   22   4.942   8.535   7.795  1.1065  1.0323  0.5778
    1aaa    H13   23   4.955   8.429   7.773 -2.1796  0.5016  0.7357
    1aaa    H14   24   5.009   8.574   7.872  1.2119 -0.4526  1.2646
    1aaa     C8   25   5.104   8.551   7.602 -0.0524 -0.7172  0.5365
    1aaa    H15   26   5.132   8.612   7.516 -0.4051 -3.5444 -1.6918
    1aaa    H16   27   5.184   8.555   7.677  0.0245  3.1152  0.4731
    1aaa     C9   28   4.966   9.574   7.299  0.3177 -0.2453  0.5010
    1aaa    H17   29   4.877   9.516   7.324  1.1085 -1.6635  0.1921
    1aaa    H18   30   4.994   9.612   7.397 -1.4010  1.4420  0.3822
    1aaa    C10   31   5.203   9.525   7.229  0.1930  0.8883 -0.1332
    1aaa    H19   32   5.254   9.441   7.181  0.6077  1.4659 -0.7164
    1aaa    H20   33   5.185   9.607   7.160  1.4004  1.5543  0.3196
    1aaa    C11   34   4.789   8.546   7.823 -0.0694  0.1327  0.8530
    1aaa    H21   35   4.759   8.647   7.855 -0.2677  0.0714  0.8611
    1aaa    H22   36   4.737   8.526   7.729 -0.6575 -1.7974  1.5378
    1aaa    C12   37   5.078   8.415   7.538  0.1353  0.0559 -0.5627
    1aaa    H23   38   5.072   8.337   7.615 -0.3151 -1.4818 -2.1054
    1aaa    H24   39   4.979   8.415   7.491  0.6419 -1.0273 -1.6710
    1aaa    C13   40   4.924   9.678   7.188 -0.2420 -0.0438 -0.6823
    1aaa    H25   41   5.012   9.722   7.139 -0.8762  1.6369 -0.3876
    1aaa    H26   42   4.877   9.623   7.105  1.3174 -4.0698  0.8444
    1aaa    C14   43   5.288   9.585   7.341  0.1821  0.2887 -0.4565
    1aaa    H27   44   5.231   9.645   7.414  0.2696  0.9617 -0.9316
    1aaa    H28   45   5.321   9.496   7.395 -4.1280 -1.2104  0.0411
    1aaa    C15   46   5.404   9.680   7.302  0.4516  0.6577  0.1573
    1aaa    H29   47   5.379   9.759   7.231 -0.4779 -0.8435 -1.2720
    1aaa    H30   48   5.448   9.733   7.388  1.0405 -0.0757  0.3254
    1aaa    C16   49   4.823   9.785   7.235  0.0990 -0.2632 -0.8000
    1aaa    H31   50   4.787   9.838   7.145  2.9865 -0.2586 -2.0534
    1aaa    H32   51   4.728   9.749   7.276 -1.6272  2.0898 -2.4300
    1aaa    C17   52   5.188   8.374   7.438 -1.0660  0.9693 -0.2438
    1aaa    H33   53   5.287   8.375   7.486  0.0769 -0.9034 -2.3794
    1aaa    H34   54   5.171   8.268   7.412 -2.7279  0.8388  1.1921
    1aaa    C18   55   4.746   8.457   7.938  0.7239  0.4050  0.3017
    1aaa    H35   56   4.638   8.473   7.942  1.0953  3.8946 -0.1604
    1aaa    H36   57   4.781   8.355   7.919 -0.3488  0.0632  0.1400
    1aaa    H38   58   5.015   9.407   7.184 -1.1913 -2.6657  1.8383
    1aaa    H37   59   4.902   8.577   7.593  0.6341  0.5970 -0.7029
    2bbb     N1   60   5.763   9.649   7.088  0.2238 -0.0413  0.1355
    2bbb     C1   61   5.850   9.764   7.139 -0.5283  0.0741  0.3068
    2bbb     H1   62   5.840   9.850   7.072 -1.0542 -0.5864 -0.4826
    2bbb     H2   63   5.948   9.717   7.143  0.4577  1.9406 -0.4803
    2bbb     C2   64   5.782   9.632   6.941  0.4792 -0.6770 -0.5107
    2bbb     H3   65   5.750   9.728   6.901  0.0917 -1.1767 -1.4072
    2bbb     H4   66   5.705   9.563   6.904 -2.2574  2.0438 -0.3302
    2bbb     C3   67   5.807   9.521   7.170  0.3535  0.5825  0.5124
    2bbb     H5   68   5.862   9.551   7.259 -0.4248  0.9250  0.8926
    2bbb     H6   69   5.876   9.463   7.109  1.3438  2.3158 -0.0836
    2bbb     C4   70   5.689   9.433   7.213  0.4071  0.1521  0.2207
    2bbb     H7   71   5.728   9.345   7.267  0.9436  0.6727  0.6990
    2bbb     H8   72   5.627   9.396   7.131 -1.0175  1.2345  0.7672
    2bbb     C5   73   5.813   9.829   7.278 -0.5672 -0.3306 -0.2018
    2bbb     H9   74   5.859   9.772   7.360  0.0718  1.3106  0.6297
    2bbb    H10   75   5.708   9.821   7.308 -0.4794 -1.1881 -0.0740
    2bbb     C6   76   5.922   9.603   6.883  0.3368  0.2647  0.4203
    2bbb    H11   77   5.964   9.511   6.926  0.6546 -0.0178 -0.4602
    2bbb    H12   78   5.988   9.687   6.909  0.6385 -0.0779  0.7737
    2bbb     C7   79   5.588   9.505   7.311  0.3209  0.0364  0.0717
    2bbb    H13   80   5.645   9.553   7.391 -0.5840  1.0785  0.1202
    2bbb    H14   81   5.520   9.428   7.350 -0.6264  0.6322 -0.3473
    2bbb     C8   82   5.922   9.590   6.729 -0.4526 -0.5697  0.8686
    2bbb    H15   83   5.820   9.566   6.697  0.2830 -0.3452 -1.9091
    2bbb    H16   84   5.933   9.688   6.682 -1.3815 -0.2996  1.2011
    2bbb     C9   85   5.853   9.973   7.287  0.2817 -0.7114  0.4107
    2bbb    H17   86   5.961   9.988   7.278  0.2901 -0.4900  0.8496
    2bbb    H18   87   5.815  10.023   7.377  0.8543  1.7662 -0.6386
    2bbb     O1   88   5.509   9.603   7.237 -0.2170 -0.3249 -0.0175
    2bbb    H19   89   5.665   9.667   7.116 -0.3475 -0.3445 -1.5710
    3bbb     N1   90   4.954  10.346   7.509  0.6606 -0.1885 -0.2387
    3bbb     C1   91   4.882  10.474   7.548  0.0333  0.1961  0.0944
    3bbb     H1   92   4.967  10.534   7.581 -0.4606  0.6505  0.5309
    3bbb     H2   93   4.805  10.459   7.623  0.2506  0.8788  0.4642
    3bbb     C2   94   5.044  10.299   7.624  0.3119  0.1618  0.1985
    3bbb     H3   95   5.094  10.211   7.583 -0.5453 -0.7701  1.0903
    3bbb     H4   96   4.988  10.264   7.711  1.8324 -1.3010  0.6531
    3bbb     C3   97   4.857  10.228   7.476  0.3170 -0.9738  0.0528
    3bbb     H5   98   4.782  10.263   7.405 -0.6315 -0.9477  1.0525
    3bbb     H6   99   4.810  10.209   7.573  1.3678  1.9766  1.2567
    3bbb     C4  100   4.919  10.098   7.414  0.0907 -0.7260  0.1999
    3bbb     H7  101   4.976  10.042   7.489  0.3801 -1.7360 -0.7523
    3bbb     H8  102   4.989  10.124   7.333  1.7090  0.1880  1.7981
    3bbb     C5  103   4.805  10.555   7.440 -0.1525  0.5431 -0.0804
    3bbb     H9  104   4.724  10.492   7.401  0.0692 -0.6266  1.2699
    3bbb    H10  105   4.877  10.583   7.363  0.6752 -1.7776 -0.2205
    3bbb     C6  106   5.153  10.392   7.662 -0.2450  0.4668 -0.1664
    3bbb    H11  107   5.122  10.475   7.728  3.1586 -0.4242  2.9037
    3bbb    H12  108   5.214  10.436   7.582  1.5414  1.9343  1.8789
    3bbb     C7  109   4.816   9.999   7.367 -0.7917 -0.4213  0.4360
    3bbb    H13  110   4.768  10.026   7.273 -0.8773 -0.3026  0.5131
    3bbb    H14  111   4.747   9.970   7.447 -0.5732 -0.3430  0.6570
    3bbb     C8  112   5.251  10.319   7.763 -0.5790  0.3457 -0.6029
    3bbb    H15  113   5.200  10.310   7.860  1.0652 -0.9334  0.2035
    3bbb    H16  114   5.263  10.214   7.733 -1.1344  0.2585 -0.5187
    3bbb     C9  115   4.736  10.685   7.495 -0.3423  0.2883 -0.2331
    3bbb    H17  116   4.813  10.746   7.545  0.0137 -1.6346  1.7140
    3bbb    H18  117   4.652  10.658   7.560 -0.9131  3.8980  0.7610
    3bbb     O1  118   4.890   9.880   7.330  0.2677 -0.3532  0.1969
    3bbb    H19  119   5.008  10.370   7.424 -3.0312  0.6550 -2.5626
    4bbb     N1  120   4.986   8.280   6.909 -0.4520  0.9425 -0.1853
    4bbb     C1  121   4.969   8.333   6.767  0.3447 -0.8346 -0.1673
    4bbb     H1  122   4.956   8.242   6.707 -3.1226 -1.7896  1.7740
    4bbb     H2  123   5.068   8.376   6.745  0.4661 -0.9389  0.1793
    4bbb     C2  124   5.097   8.183   6.902 -0.0781 -0.2047  0.1160
    4bbb     H3  125   5.099   8.148   6.799  0.9644 -1.4554  0.5469
    4bbb     H4  126   5.075   8.108   6.978 -0.8792  2.9821  3.3087
    4bbb     C3  127   5.008   8.393   7.013  0.0889  0.6438  0.2699
    4bbb     H5  128   4.934   8.469   6.987  1.1155  1.2025 -1.0906
    4bbb     H6  129   5.099   8.444   6.982  1.0487 -1.7154 -1.0523
    4bbb     C4  130   5.025   8.358   7.163  0.1290  0.1251  0.0573
    4bbb     H7  131   5.088   8.269   7.174 -1.3975 -1.6310 -3.7463
    4bbb     H8  132   4.926   8.327   7.198  0.6909  0.2449  1.8997
    4bbb     C5  133   4.857   8.438   6.751  0.3135 -1.6708  0.0498
    4bbb     H9  134   4.884   8.528   6.807 -0.4583 -0.5607 -1.3113
    4bbb    H10  135   4.765   8.404   6.801 -0.3420 -0.3304 -0.2026
    4bbb     C6  136   5.244   8.229   6.928 -0.0378  0.6241 -0.2910
    4bbb    H11  137   5.245   8.255   7.034 -1.7500  1.2998 -0.4039
    4bbb    H12  138   5.266   8.318   6.867  0.4545  0.3690 -0.4885
    4bbb     C7  139   5.064   8.481   7.247 -0.0228 -0.6236 -0.3209
    4bbb    H13  140   4.983   8.516   7.313  0.2956  1.1799 -0.8185
    4bbb    H14  141   5.074   8.572   7.186  1.4453  0.6773  1.7345
    4bbb     C8  142   5.345   8.117   6.918 -0.1365 -1.1724  0.1358
    4bbb    H15  143   5.444   8.141   6.961 -0.8426 -1.3653  1.9510
    4bbb    H16  144   5.313   8.037   6.986 -2.5238 -0.1283  0.3299
    4bbb     C9  145   4.818   8.465   6.606 -0.5629 -0.2696  0.6323
    4bbb    H17  146   4.916   8.477   6.556  0.4674 -1.8619  2.1559
    4bbb    H18  147   4.746   8.547   6.596 -0.9728 -0.5221  1.4332
    4bbb     O1  148   5.192   8.454   7.315 -0.1680 -0.0281  0.0944
    4bbb    H19  149   4.903   8.223   6.930  1.0653 -0.5787  2.0125
    5bbb     N1  150   4.522   8.267   8.432 -0.1188  0.0321  0.3285
    5bbb     C1  151   4.427   8.182   8.350 -0.5539 -0.0471 -0.0560
    5bbb     H1  152   4.479   8.085   8.348  0.0240  0.2738 -1.0062
    5bbb     H2  153   4.431   8.224   8.250  1.0534  4.5835  1.6991
    5bbb     C2  154   4.561   8.201   8.565 -0.0020  0.1380 -0.4943
    5bbb     H3  155   4.610   8.107   8.538 -2.2009 -1.3386  0.3921
    5bbb     H4  156   4.466   8.182   8.616  1.0286  2.1086  2.3952
    5bbb     C3  157   4.651   8.300   8.349 -0.0337  0.5775  0.2267
    5bbb     H5  158   4.683   8.205   8.307  1.0343  1.2335 -0.4969
    5bbb     H6  159   4.729   8.326   8.421  0.1961 -0.1320  0.2411
    5bbb     C4  160   4.646   8.415   8.240  0.4463  0.9497 -0.0817
    5bbb     H7  161   4.615   8.514   8.277  2.9027  1.6601  0.2680
    5bbb     H8  162   4.582   8.374   8.161  1.0969  1.2560 -0.7828
    5bbb     C5  163   4.287   8.153   8.410 -0.0416 -0.0981 -0.7157
    5bbb     H9  164   4.239   8.251   8.391 -0.4311 -0.4023 -1.3523
    5bbb    H10  165   4.284   8.140   8.519  1.8636  0.3769 -0.5786
    5bbb     C6  166   4.659   8.279   8.661  0.1491 -0.4806  0.5735
    5bbb    H11  167   4.617   8.381   8.660 -2.5461 -1.5056  1.0423
    5bbb    H12  168   4.765   8.275   8.636 -0.2223 -4.1971 -1.0087
    5bbb     C7  169   4.789   8.436   8.181  0.2994 -0.1748  0.3801
    5bbb    H13  170   4.840   8.340   8.162  0.0276  0.1548 -2.5982
    5bbb    H14  171   4.853   8.490   8.252  2.9914 -2.6050  0.0164
    5bbb     C8  172   4.647   8.234   8.805 -0.2739  0.6143 -0.4797
    5bbb    H15  173   4.710   8.288   8.876 -0.0372  1.4777 -1.3258
    5bbb    H16  174   4.543   8.254   8.831 -1.1703 -2.8035 -0.9547
    5bbb     C9  175   4.221   8.041   8.335 -0.3119 -0.1197  0.3696
    5bbb    H17  176   4.272   7.944   8.350  0.0891 -0.0160 -0.2706
    5bbb    H18  177   4.225   8.055   8.227 -3.0012  0.3452  0.2829
    5bbb     O1  178   4.795   8.513   8.060  0.0473  0.6965  0.2101
    5bbb    H19  179   4.472   8.354   8.454  1.3568  1.4370 -1.5374
    6bbb     N1  180   6.395   9.323   6.518  0.0944  0.1898  0.0414
    6bbb     C1  181   6.400   9.262   6.387 -0.2976  0.4946 -0.8091
    6bbb     H1  182   6.437   9.325   6.307 -1.7787  0.2721 -1.7115
    6bbb     H2  183   6.296   9.249   6.354 -0.6662  1.1294  0.0419
    6bbb     C2  184   6.521   9.389   6.554  0.0161 -0.2631 -0.2604
    6bbb     H3  185   6.537   9.471   6.484  0.3064 -0.0136  0.0940
    6bbb     H4  186   6.600   9.315   6.540 -0.7769 -1.3604  0.8439
    6bbb     C3  187   6.279   9.427   6.530 -0.4954 -0.1372  0.0613
    6bbb     H5  188   6.291   9.502   6.451 -3.6840 -0.5985 -1.0191
    6bbb     H6  189   6.300   9.470   6.628  0.8185 -1.4919  0.4272
    6bbb     C4  190   6.134   9.371   6.510  0.5748 -0.6720 -0.1206
    6bbb     H7  191   6.112   9.278   6.563  0.5519 -1.2083 -1.0506
    6bbb     H8  192   6.129   9.354   6.402 -0.6852 -0.8274 -0.0481
    6bbb     C5  193   6.466   9.124   6.394 -0.7521 -0.8382  0.7719
    6bbb     H9  194   6.401   9.054   6.448 -0.3372 -0.8114  1.3176
    6bbb    H10  195   6.558   9.127   6.454 -1.7167 -0.1223  2.2995
    6bbb     C6  196   6.539   9.437   6.697  0.2780 -0.1320 -0.1463
    6bbb    H11  197   6.507   9.352   6.758  0.5103 -1.6593 -2.0620
    6bbb    H12  198   6.470   9.520   6.718 -0.8483 -1.4377  1.5520
    6bbb     C7  199   6.024   9.477   6.540 -0.2885 -0.0728  0.6798
    6bbb    H13  200   5.931   9.432   6.505  0.6312 -0.1681 -1.8476
    6bbb    H14  201   6.049   9.566   6.481 -0.9325 -1.0243 -1.1001
    6bbb     C8  202   6.675   9.490   6.733  0.0025  0.0042  0.8506
    6bbb    H15  203   6.763   9.426   6.717  0.1171  0.4792 -0.5203
    6bbb    H16  204   6.688   9.571   6.660 -3.4815  0.4721  0.5953
    6bbb     C9  205   6.496   9.070   6.252 -0.0389 -0.5831  0.2975
    6bbb    H17  206   6.407   9.081   6.189 -0.9363 -2.1770  1.2326
    6bbb    H18  207   6.515   8.964   6.269  0.7086 -0.4341  0.4198
    6bbb     O1  208   6.020   9.498   6.683  0.3372 -0.1274 -0.0042
    6bbb    H19  209   6.361   9.250   6.581 -1.7831  2.1392  1.4212
    7bbb     N1  210   5.747  10.249   6.783  0.6494 -0.4015 -0.3061
    7bbb     C1  211   5.765  10.402   6.784 -0.1391  0.2612  0.1111
    7bbb     H1  212   5.696  10.442   6.858 -0.6815 -3.6806  1.9868
    7bbb     H2  213   5.735  10.441   6.687 -2.6782  0.9899  1.0990
    7bbb     C2  214   5.801  10.189   6.649 -0.2233 -0.2133  0.6009
    7bbb     H3  215   5.909  10.200   6.655 -0.2248 -0.3130  0.8318
    7bbb     H4  216   5.759  10.233   6.558  1.7117 -3.5021 -2.1391
    7bbb     C3  217   5.801  10.180   6.909  0.6845 -0.7147 -0.8840
    7bbb     H5  218   5.909  10.175   6.893  0.7962  0.9971 -0.8676
    7bbb     H6  219   5.758  10.081   6.924  0.0041 -0.0775  2.0054
    7bbb     C4  220   5.768  10.245   7.048 -0.1878 -0.2894 -0.4477
    7bbb     H7  221   5.659  10.251   7.059  0.1320  1.6222  4.3670
    7bbb     H8  222   5.790  10.352   7.051 -0.4131 -0.2513  0.0996
    7bbb     C5  223   5.912  10.450   6.804  0.1341  0.5238 -0.0855
    7bbb     H9  224   5.972  10.391   6.733 -0.0960 -0.3353  0.4166
    7bbb    H10  225   5.943  10.425   6.907 -0.7323 -2.4300 -0.4520
    7bbb     C6  226   5.771  10.036   6.629  0.6140 -0.2479 -0.7212
    7bbb    H11  227   5.663  10.019   6.637  0.8275 -1.1149  0.5624
    7bbb    H12  228   5.819   9.984   6.712 -1.9613 -1.7893 -0.0832
    7bbb     C7  229   5.827  10.177   7.176  0.2794 -1.0722  0.3125
    7bbb    H13  230   5.802  10.241   7.261  3.1514  2.0654 -0.9784
    7bbb    H14  231   5.937  10.173   7.176  0.2875 -0.8669  0.1284
    7bbb     C8  232   5.819   9.971   6.500 -0.0756 -0.8309  0.1797
    7bbb    H15  233   5.928   9.985   6.501 -0.3442  2.0303 -0.0621
    7bbb    H16  234   5.792   9.865   6.501 -0.9969 -0.6012  0.5092
    7bbb     C9  235   5.930  10.597   6.767 -0.0453  0.1658 -0.0770
    7bbb    H17  236   5.877  10.663   6.837 -0.4014  1.0535 -1.1540
    7bbb    H18  237   5.883  10.623   6.672 -0.4277 -1.1997 -0.2757
    7bbb     O1  238   5.784  10.042   7.181 -0.0608 -0.4302 -0.1272
    7bbb    H19  239   5.645  10.236   6.778  0.4524  0.0593  1.7265
    8bbb     N1  240   5.494  10.504   8.176 -0.6748  0.0279  0.3802
    8bbb     C1  241   5.558  10.636   8.195 -0.2526  0.2027 -0.2800
    8bbb     H1  242   5.544  10.654   8.302 -0.9200  0.4899 -0.4105
    8bbb     H2  243   5.496  10.711   8.144 -1.2881  0.0864  0.7527
    8bbb     C2  244   5.351  10.498   8.237  0.2650  0.3389  0.0581
    8bbb     H3  245   5.317  10.397   8.215  1.5858 -0.4491  1.4748
    8bbb     H4  246   5.294  10.574   8.184  0.7277 -0.3410 -1.4618
    8bbb     C3  247   5.487  10.472   8.028  0.3867 -0.2382  0.1623
    8bbb     H5  248   5.585  10.486   7.982  0.9045 -5.0680 -0.7631
    8bbb     H6  249   5.415  10.541   7.984 -0.3788 -2.2061 -1.9121
    8bbb     C4  250   5.454  10.329   7.984 -0.2013 -0.1779  1.0386
    8bbb     H7  251   5.351  10.298   8.005 -0.6515 -0.6476 -1.5467
    8bbb     H8  252   5.523  10.257   8.030  1.9912  0.3184 -1.2352
    8bbb     C5  253   5.706  10.653   8.168 -0.0416 -0.1324 -0.1890
    8bbb     H9  254   5.726  10.760   8.153  0.8306 -0.4812 -1.8885
    8bbb    H10  255   5.750  10.602   8.081  1.6039  1.1957 -0.2032
    8bbb     C6  256   5.339  10.525   8.389  0.7471  0.3395  0.8190
    8bbb    H11  257   5.232  10.536   8.413  1.0012  0.1351  2.1697
    8bbb    H12  258   5.376  10.626   8.413 -0.9893  1.3097 -0.2960
    8bbb     C7  259   5.479  10.311   7.827  0.0444  0.8873  0.2747
    8bbb    H13  260   5.472  10.207   7.794  0.7398  0.5521  1.1392
    8bbb    H14  261   5.580  10.351   7.809 -0.2793  1.6881  0.2031
    8bbb     C8  262   5.387  10.418   8.486 -1.0632  0.2605 -0.4012
    8bbb    H15  263   5.332  10.324   8.472 -2.1372  1.2266 -3.8210
    8bbb    H16  264   5.492  10.403   8.456 -0.2228  1.4826  1.7585
    8bbb     C9  265   5.783  10.614   8.296  0.5388  0.8697  0.1181
    8bbb    H17  266   5.890  10.622   8.272  0.2574  0.1032 -1.5511
    8bbb    H18  267   5.757  10.511   8.325 -1.2981  0.5426 -2.4087
    8bbb     O1  268   5.383  10.386   7.755 -0.1204  0.5874  0.3315
    8bbb    H19  269   5.556  10.442   8.231  0.0203  0.0552 -0.3534
    9bbb     N1  270   4.297  10.890   7.173 -0.1407  0.5297  0.2741
    9bbb     C1  271   4.178  10.794   7.174  0.0099 -0.4984  0.0952
    9bbb     H1  272   4.121  10.803   7.267 -0.8164  0.6674 -0.5038
    9bbb     H2  273   4.203  10.688   7.169  2.3487 -0.0003  0.2069
    9bbb     C2  274   4.236  11.022   7.216 -1.5330  0.1123 -0.0263
    9bbb     H3  275   4.164  11.060   7.143 -0.1915  0.2792 -1.3188
    9bbb     H4  276   4.319  11.092   7.205  0.6201 -1.6873  3.1934
    9bbb     C3  277   4.404  10.844   7.273 -0.1812 -0.3996  0.0559
    9bbb     H5  278   4.437  10.742   7.255  0.9582 -0.2403  1.0705
    9bbb     H6  279   4.360  10.850   7.373 -1.0093  0.5626 -0.3500
    9bbb     C4  280   4.532  10.928   7.288  0.0606  0.1186  0.8574
    9bbb     H7  281   4.504  11.030   7.315  0.5801  0.1923  1.1371
    9bbb     H8  282   4.599  10.934   7.202 -0.7339  0.8912  0.2760
    9bbb     C5  283   4.068  10.817   7.067 -0.0449 -0.4402 -0.1755
    9bbb     H9  284   4.111  10.827   6.967  2.1404  0.3470  0.7828
    9bbb    H10  285   4.015  10.910   7.091  1.4031  0.5132 -0.5239
    9bbb     C6  286   4.180  11.042   7.353  0.0178  0.5325 -0.2067
    9bbb    H11  287   4.240  10.982   7.423 -1.9429 -2.2079 -0.6963
    9bbb    H12  288   4.087  10.983   7.357 -0.0366  0.6569  0.6484
    9bbb     C7  289   4.615  10.875   7.407 -0.1223 -0.4711  0.3746
    9bbb    H13  290   4.548  10.864   7.493 -0.7774 -0.6804 -0.1524
    9bbb    H14  291   4.692  10.948   7.433 -1.0388  1.2285 -1.4452
    9bbb     C8  292   4.170  11.192   7.384  0.3425  0.4599  0.0462
    9bbb    H15  293   4.270  11.231   7.406  0.4656  1.0405 -1.4146
    9bbb    H16  294   4.136  11.251   7.298  0.7637  1.4220  0.5286
    9bbb     C9  295   3.983  10.686   7.064  0.1758 -0.6766 -0.1435
    9bbb    H17  296   3.904  10.685   7.140 -0.1390 -1.9685 -0.4500
    9bbb    H18  297   4.062  10.612   7.076  5.0087  3.7817 -1.1008
    9bbb     O1  298   4.680  10.751   7.376  0.0348 -0.4646 -0.9856
    9bbb    H19  299   4.338  10.894   7.078  2.0455 -0.9103  1.0770
   10bbb     N1  300   5.539   7.780   6.418  0.2170 -0.0166 -0.1165
   10bbb     C1  301   5.592   7.649   6.402 -0.4889 -0.1926  0.5603
   10bbb     H1  302   5.599   7.621   6.297 -0.4927 -1.1623  0.8087
   10bbb     H2  303   5.513   7.591   6.451  0.4340  0.8359  3.4911
   10bbb     C2  304   5.415   7.798   6.340 -0.1791  0.0115  0.7214
   10bbb     H3  305   5.349   7.870   6.390  0.8602  0.8930  0.8722
   10bbb     H4  306   5.360   7.704   6.338  1.9489 -1.3164  1.4247
   10bbb     C3  307   5.506   7.805   6.572 -0.8474  0.5717 -0.0936
   10bbb     H5  308   5.604   7.795   6.619 -0.2472 -0.9934 -1.5510
   10bbb     H6  309   5.440   7.727   6.610 -0.1133  0.7352  1.6202
   10bbb     C4  310   5.441   7.941   6.607  0.3779 -0.1342 -0.3604
   10bbb     H7  311   5.337   7.948   6.573 -0.6910  0.7692  2.7035
   10bbb     H8  312   5.485   8.030   6.561 -1.3145  0.6141 -0.5869
   10bbb     C5  313   5.728   7.610   6.453 -0.0083 -0.0732  0.2694
   10bbb     H9  314   5.784   7.698   6.486  1.8813 -0.9614 -0.4169
   10bbb    H10  315   5.783   7.557   6.375 -1.7419  1.4500 -2.1047
   10bbb     C6  316   5.417   7.859   6.197  0.4779  0.0108  0.0139
   10bbb    H11  317   5.461   7.960   6.199 -0.7261  0.5821 -1.0036
   10bbb    H12  318   5.317   7.867   6.154 -0.1007 -0.0893  1.3133
   10bbb     C7  319   5.430   7.966   6.756 -0.2090  0.3355  0.1506
   10bbb    H13  320   5.532   7.971   6.798 -0.6023 -0.7612  1.3068
   10bbb    H14  321   5.375   7.878   6.791  1.1257 -0.2154  0.9509
   10bbb     C8  322   5.511   7.774   6.103 -0.1624 -0.3961 -0.1542
   10bbb    H15  323   5.513   7.834   6.011 -0.5566  0.3526  0.3108
   10bbb    H16  324   5.612   7.763   6.143 -0.5433 -0.7652  0.7351
   10bbb     C9  325   5.711   7.513   6.580  0.4374  0.5786 -0.3106
   10bbb    H17  326   5.654   7.422   6.557  3.0357 -0.9939 -0.9855
   10bbb    H18  327   5.642   7.563   6.649 -1.1478 -2.3468  0.3775
   10bbb     O1  328   5.356   8.088   6.776 -0.0732 -0.1261  0.0652
   10bbb    H19  329   5.611   7.845   6.383  1.4777 -0.8351  0.8583
   11bbb     N1  330   4.582   8.115   6.119  0.2770 -0.2763 -0.3029
   11bbb     C1  331   4.481   8.038   6.205 -0.5568  0.9473 -0.1361
   11bbb     H1  332   4.400   8.106   6.230 -1.1254  0.1138  0.3267
   11bbb     H2  333   4.533   8.009   6.296  0.4395 -1.3707 -1.3566
   11bbb     C2  334   4.501   8.156   5.994 -0.3945 -0.5716  0.6420
   11bbb     H3  335   4.427   8.230   6.026  1.5404  2.5436 -1.5324
   11bbb     H4  336   4.453   8.064   5.959 -0.8847 -0.3789  0.8022
   11bbb     C3  337   4.635   8.237   6.200  0.3853 -0.0115  0.4055
   11bbb     H5  338   4.561   8.317   6.204  0.1295 -0.3073  2.3352
   11bbb     H6  339   4.728   8.276   6.158 -0.2138 -0.2165 -1.1943
   11bbb     C4  340   4.661   8.228   6.347 -0.4366  0.3415 -0.2647
   11bbb     H7  341   4.734   8.146   6.350  0.0508  0.7651 -0.4168
   11bbb     H8  342   4.572   8.196   6.402  0.9328 -2.7890  0.3993
   11bbb     C5  343   4.423   7.908   6.148 -0.4141  0.5934 -0.3793
   11bbb     H9  344   4.344   7.924   6.073 -1.7756 -2.7018  0.1621
   11bbb    H10  345   4.375   7.852   6.229  0.9161 -1.6643 -1.0434
   11bbb     C6  346   4.576   8.233   5.885  0.3723  0.0105 -0.5149
   11bbb    H11  347   4.658   8.170   5.848 -0.5445 -1.8124  0.4383
   11bbb    H12  348   4.611   8.326   5.931  0.1102 -1.3648  2.6922
   11bbb     C7  349   4.727   8.359   6.408  0.6101 -0.6513 -0.0812
   11bbb    H13  350   4.659   8.442   6.391 -0.3893 -1.2109  0.9984
   11bbb    H14  351   4.817   8.390   6.354 -0.1374  0.1228 -0.8866
   11bbb     C8  352   4.478   8.246   5.769 -1.3511  0.3695  0.1841
   11bbb    H15  353   4.527   8.276   5.676  1.7392 -1.8041  0.9747
   11bbb    H16  354   4.435   8.147   5.750  3.2910 -1.7196 -0.8141
   11bbb     C9  355   4.540   7.816   6.094 -0.3555 -0.7839  0.0825
   11bbb    H17  356   4.512   7.710   6.082  0.6910 -0.7997 -3.1048
   11bbb    H18  357   4.623   7.808   6.165 -1.0543 -0.7065  0.9255
   11bbb     O1  358   4.766   8.348   6.545  0.0042  0.1284 -0.0075
   11bbb    H19  359   4.660   8.056   6.086 -0.5728 -1.1230 -0.8497
   12bbb     N1  360   4.582   7.925   9.044  0.2251  0.2234 -0.3213
   12bbb     C1  361   4.518   7.796   9.092  0.0111  0.1311  0.0841
   12bbb     H1  362   4.434   7.811   9.159  0.7290 -1.1457  1.3423
   12bbb     H2  363   4.590   7.743   9.155 -1.2270 -0.9422  0.6371
   12bbb     C2  364   4.529   8.042   9.128 -0.4739  0.4835  0.5142
   12bbb     H3  365   4.607   8.117   9.113 -0.8424  0.3944 -2.4086
   12bbb     H4  366   4.538   7.996   9.227  0.4824 -0.6234 -0.0651
   12bbb     C3  367   4.732   7.906   9.048 -0.7660 -0.7340  0.3541
   12bbb     H5  368   4.747   7.810   8.998  2.4764 -1.0367  1.6820
   12bbb     H6  369   4.774   7.900   9.148  0.6540 -0.5689 -0.2076
   12bbb     C4  370   4.815   8.023   8.982 -0.1484  0.1303  0.1422
   12bbb     H7  371   4.923   8.016   9.003  0.5239  1.3541 -2.4752
   12bbb     H8  372   4.788   8.119   9.027 -2.5219 -0.6678  0.5285
   12bbb     C5  373   4.475   7.697   8.986 -0.3026  0.0625  0.0105
   12bbb     H9  374   4.404   7.746   8.919 -0.7893 -1.1187 -0.3669
   12bbb    H10  375   4.417   7.615   9.031 -0.3234 -0.0339 -0.1896
   12bbb     C6  376   4.393   8.099   9.099  0.1573  0.2492 -0.3514
   12bbb    H11  377   4.374   8.113   8.992  3.4872  1.2137 -0.9241
   12bbb    H12  378   4.402   8.201   9.138  1.4759  1.2713 -3.1116
   12bbb     C7  379   4.799   8.043   8.828 -0.2931  0.6163  0.4424
   12bbb    H13  380   4.819   7.954   8.768  2.1975  2.0118 -0.9324
   12bbb    H14  381   4.878   8.109   8.790 -0.9134  2.2021  1.7528
   12bbb     C8  382   4.268   8.031   9.156  0.9035 -0.0664  0.2174
   12bbb    H15  383   4.187   8.102   9.139  1.0270 -0.0633 -0.3686
   12bbb    H16  384   4.242   7.941   9.098 -0.5352 -0.7780  1.8978
   12bbb     C9  385   4.600   7.645   8.909 -0.7263 -0.5898 -0.3814
   12bbb    H17  386   4.652   7.719   8.847 -1.6776  0.2198 -0.2212
   12bbb    H18  387   4.574   7.567   8.837  0.0189 -2.4371  1.2513
   12bbb     O1  388   4.668   8.091   8.802 -0.3911 -0.0763 -0.2524
   12bbb    H19  389   4.548   7.942   8.949  0.6012 -0.1654 -0.5285
   13bbb     N1  390   3.666   7.967   8.550 -0.4652  0.1638 -0.2329
   13bbb     C1  391   3.656   7.975   8.701  0.2754  0.0403 -0.0620
   13bbb     H1  392   3.679   8.076   8.733 -0.3161  0.1913 -0.0913
   13bbb     H2  393   3.725   7.905   8.749  0.5625  0.3697  0.0051
   13bbb     C2  394   3.587   8.083   8.484  0.2348  0.1069  0.7983
   13bbb     H3  395   3.494   8.088   8.541  0.2966 -0.3028  0.9378
   13bbb     H4  396   3.565   8.068   8.378  1.0224 -1.1354  0.7958
   13bbb     C3  397   3.817   7.967   8.514 -0.6919  0.7952  0.8729
   13bbb     H5  398   3.857   7.886   8.575 -1.6720  0.6566  1.3509
   13bbb     H6  399   3.879   8.049   8.549  2.4059 -1.6216  1.5174
   13bbb     C4  400   3.856   7.949   8.366  0.2988  0.7265  0.0589
   13bbb     H7  401   3.807   8.018   8.295  1.1255  0.2226 -1.0372
   13bbb     H8  402   3.802   7.855   8.352  0.0967  0.9208 -0.5206
   13bbb     C5  403   3.532   7.935   8.779  0.4454  0.8986 -0.2977
   13bbb     H9  404   3.447   8.003   8.766  0.8636  1.7652  1.2297
   13bbb    H10  405   3.558   7.933   8.886 -2.8142 -1.2899  0.5937
   13bbb     C6  406   3.637   8.225   8.488 -0.1804 -0.3027 -0.6355
   13bbb    H11  407   3.737   8.240   8.446  0.0680  2.9547  0.7958
   13bbb    H12  408   3.624   8.260   8.591  0.9314 -0.4241 -0.4362
   13bbb     C7  409   4.012   7.931   8.335 -0.4206 -0.1410 -0.2474
   13bbb    H13  410   4.028   7.926   8.226  1.1238  2.1148 -0.1831
   13bbb    H14  411   4.042   7.835   8.379  0.2651 -0.1615 -0.7322
   13bbb     C8  412   3.542   8.315   8.409 -0.1258  0.4749 -0.1688
   13bbb    H15  413   3.438   8.298   8.441  0.6073 -2.3574  1.0131
   13bbb    H16  414   3.572   8.420   8.416  2.7235 -0.2380 -0.5389
   13bbb     C9  415   3.498   7.789   8.744 -0.9651  0.8063 -0.6119
   13bbb    H17  416   3.425   7.741   8.810  0.8941 -0.1402  0.8950
   13bbb    H18  417   3.591   7.732   8.761 -1.0203  1.0444  0.5625
   13bbb     O1  418   4.084   8.042   8.383  0.2927  0.3010 -0.8502
   13bbb    H19  419   3.619   7.880   8.524  0.0308 -0.6804  1.5422
   14bbb     N1  420   7.045   9.731   7.080 -0.4821 -0.3960 -0.0705
   14bbb     C1  421   7.091   9.798   6.957 -0.4287 -0.4183  0.5273
   14bbb     H1  422   7.038   9.894   6.956  0.3927  0.0571  1.2757
   14bbb     H2  423   7.069   9.733   6.872 -1.2623  1.1371 -0.5087
   14bbb     C2  424   7.037   9.832   7.189  0.2548  0.3576  0.2747
   14bbb     H3  425   6.952   9.899   7.174  1.7151  1.8771 -1.8264
   14bbb     H4  426   7.124   9.895   7.171 -0.2804  0.1985 -3.8748
   14bbb     C3  427   6.908   9.670   7.061 -0.6507 -0.4175  0.4657
   14bbb     H5  428   6.843   9.754   7.035 -0.1366 -0.2272 -0.2500
   14bbb     H6  429   6.885   9.636   7.162 -0.7680 -0.5592  0.3921
   14bbb     C4  430   6.896   9.553   6.960  0.1702  0.4160 -0.8416
   14bbb     H7  431   6.969   9.476   6.989 -0.9717 -0.4819 -0.2730
   14bbb     H8  432   6.924   9.576   6.857  0.8246 -2.1700 -1.3072
   14bbb     C5  433   7.248   9.826   6.940 -0.3426 -0.0357 -0.9011
   14bbb     H9  434   7.281   9.908   7.005  0.3183 -0.8537 -0.1841
   14bbb    H10  435   7.261   9.858   6.836 -0.1360 -1.5544 -1.3709
   14bbb     C6  436   7.038   9.776   7.333  0.6354 -0.3705 -0.0489
   14bbb    H11  437   6.947   9.717   7.352  0.3708  0.2510  0.6645
   14bbb    H12  438   7.028   9.868   7.393  1.2280  0.1235 -0.6987
   14bbb     C7  439   6.756   9.496   6.969 -0.3767  0.4748 -0.2069
   14bbb    H13  440   6.713   9.518   7.068 -0.0481 -1.0758  0.3134
   14bbb    H14  441   6.776   9.389   6.959  3.4510  1.0840 -0.5965
   14bbb     C8  442   7.169   9.714   7.372 -0.1268  0.4356 -0.2547
   14bbb    H15  443   7.254   9.777   7.341  2.6494 -0.2132  4.9284
   14bbb    H16  444   7.176   9.707   7.481  1.5947 -1.1064 -0.4083
   14bbb     C9  445   7.335   9.703   6.964  0.3681 -0.5042  0.2563
   14bbb    H17  446   7.346   9.672   7.069 -2.1985  1.2023  1.1334
   14bbb    H18  447   7.436   9.736   6.935  0.5705  1.2198  2.6013
   14bbb     O1  448   6.663   9.547   6.866 -0.0073 -0.1776 -0.2551
   14bbb    H19  449   7.107   9.654   7.111  0.2786  0.8200  1.5959
   15bbb     N1  450   6.948   9.211   5.818 -0.2216 -0.1341 -0.3486
   15bbb     C1  451   6.994   9.129   5.702  0.4006  0.1655  0.3314
   15bbb     H1  452   7.076   9.180   5.651 -0.9891 -0.0583 -2.3475
   15bbb     H2  453   6.911   9.127   5.631 -0.5579 -2.9037  1.3646
   15bbb     C2  454   6.917   9.351   5.776  0.6117 -0.0253 -0.2489
   15bbb     H3  455   6.938   9.405   5.868  0.6270  0.8910 -0.7792
   15bbb     H4  456   6.810   9.363   5.757  0.1100  0.7040  2.6387
   15bbb     C3  457   6.824   9.142   5.878  0.5059 -0.4456 -0.2543
   15bbb     H5  458   6.849   9.040   5.905 -2.5897 -1.8236 -2.0978
   15bbb     H6  459   6.754   9.145   5.794  0.2944 -0.5328 -0.0824
   15bbb     C4  460   6.758   9.192   6.006  0.7265  0.1637  0.6839
   15bbb     H7  461   6.714   9.290   5.983 -3.4956 -1.0908  2.5294
   15bbb     H8  462   6.838   9.206   6.080 -0.2881 -0.4687  1.9117
   15bbb     C5  463   7.032   8.984   5.742  0.0599 -0.1844 -0.0839
   15bbb     H9  464   6.947   8.926   5.779 -0.1978 -0.6754 -1.4124
   15bbb    H10  465   7.098   8.982   5.830 -1.8390  0.9179  1.4352
   15bbb     C6  466   6.990   9.424   5.664 -0.2013  0.5870  0.2671
   15bbb    H11  467   6.956   9.377   5.571 -2.5013  2.2091  0.2233
   15bbb    H12  468   7.097   9.398   5.665 -0.2277  0.1394 -2.2570
   15bbb     C7  469   6.650   9.104   6.066 -0.0619  0.1469 -0.1243
   15bbb    H13  470   6.700   9.007   6.080  0.0413  0.1949 -0.1660
   15bbb    H14  471   6.569   9.090   5.993  0.0317 -0.2398 -0.1567
   15bbb     C8  472   6.970   9.577   5.669  0.2624  0.5998 -0.6969
   15bbb    H15  473   7.007   9.614   5.766 -0.7518 -1.5037  0.5561
   15bbb    H16  474   6.864   9.603   5.661 -0.2714 -1.4919 -0.7660
   15bbb     C9  475   7.074   8.897   5.616 -0.1599  0.1448  0.5452
   15bbb    H17  476   7.085   8.790   5.640 -1.1996 -0.0913  0.0273
   15bbb    H18  477   7.004   8.906   5.532 -0.3958 -1.1799  0.5786
   15bbb     O1  478   6.602   9.158   6.199  0.1676  0.1374  0.3360
   15bbb    H19  479   7.026   9.217   5.884 -0.1773 -0.7737 -0.3360
   16bbb     N1  480   5.524  10.097   6.274  0.0702 -0.4307  0.5594
   16bbb     C1  481   5.546  10.243   6.263 -0.1394 -0.1065 -0.2234
   16bbb     H1  482   5.654  10.257   6.260  0.0363 -1.1604  0.4972
   16bbb     H2  483   5.508  10.278   6.359 -0.2134 -0.9974  0.0792
   16bbb     C2  484   5.372  10.065   6.280 -0.3701 -0.1944  0.2844
   16bbb     H3  485   5.329  10.100   6.186 -0.9805 -1.5209  0.0466
   16bbb     H4  486   5.337  10.123   6.365 -1.6508  0.4594 -0.6598
   16bbb     C3  487   5.589  10.018   6.158 -0.0424  0.1864  0.2391
   16bbb     H5  488   5.531  10.049   6.071  2.8664  0.1229 -1.8506
   16bbb     H6  489   5.569   9.913   6.180 -1.2029  0.2263 -0.5601
   16bbb     C4  490   5.742  10.035   6.149 -0.1106  0.1339  0.6290
   16bbb     H7  491   5.758  10.141   6.127  1.0087 -0.5686 -2.4614
   16bbb     H8  492   5.773   9.986   6.056  0.2643  0.1547  0.7422
   16bbb     C5  493   5.473  10.315   6.151  0.3222 -0.0872  0.1436
   16bbb     H9  494   5.368  10.331   6.181 -0.8033  0.5545 -3.5626
   16bbb    H10  495   5.460  10.248   6.066  1.6754 -1.6081  1.0863
   16bbb     C6  496   5.329   9.916   6.273 -0.1232 -0.6183  0.3823
   16bbb    H11  497   5.385   9.856   6.346  0.8159  0.7820  0.8612
   16bbb    H12  498   5.358   9.881   6.174  0.1712 -1.3570  0.7198
   16bbb     C7  499   5.825   9.984   6.267  0.9018  0.5378  0.1811
   16bbb    H13  500   5.932  10.008   6.270  1.1311 -0.3581  3.0178
   16bbb    H14  501   5.817   9.875   6.264 -0.5049  0.6589 -1.3883
   16bbb     C8  502   5.172   9.904   6.298 -0.1229  0.1996  0.0209
   16bbb    H15  503   5.145   9.802   6.326 -2.8494  0.6522 -0.7478
   16bbb    H16  504   5.144   9.965   6.384 -2.3722 -0.6198 -0.0753
   16bbb     C9  505   5.537  10.447   6.108  0.9273 -1.2338 -0.6345
   16bbb    H17  506   5.547  10.510   6.198 -1.2161 -0.0672 -1.1486
   16bbb    H18  507   5.459  10.493   6.046  1.8417  0.9142 -0.3087
   16bbb     O1  508   5.768  10.040   6.386  0.1800  0.6877 -0.5415
   16bbb    H19  509   5.569  10.066   6.361 -0.0994 -0.1737  0.7410
   17bbb     N1  510   6.502  10.707   6.733 -0.0569  0.8118  0.0845
   17bbb     C1  511   6.569  10.578   6.755  0.5760  0.6742  0.8764
   17bbb     H1  512   6.590  10.527   6.661  2.2227 -1.8081  2.4669
   17bbb     H2  513   6.492  10.519   6.805  0.7680 -0.4215 -0.0764
   17bbb     C2  514   6.593  10.792   6.651 -0.2418 -0.5546 -0.6628
   17bbb     H3  515   6.613  10.745   6.555  1.7338 -1.1947  0.0054
   17bbb     H4  516   6.691  10.786   6.698  1.0964 -1.2455 -3.3593
   17bbb     C3  517   6.367  10.679   6.666 -0.1372 -0.2185 -0.3056
   17bbb     H5  518   6.333  10.590   6.719  1.9629 -0.6767  0.3545
   17bbb     H6  519   6.388  10.663   6.560  0.5379 -0.4524 -0.1445
   17bbb     C4  520   6.247  10.771   6.684 -0.1558  0.2306 -0.4339
   17bbb     H7  521   6.252  10.853   6.611  0.4142 -1.1736 -2.0342
   17bbb     H8  522   6.244  10.810   6.787 -2.4969  1.3069 -0.8250
   17bbb     C5  523   6.695  10.588   6.844  0.4940 -0.1673  0.0996
   17bbb     H9  524   6.780  10.646   6.807  0.9238  0.6384  2.1959
   17bbb    H10  525   6.731  10.487   6.869  1.4586  0.1905  0.1948
   17bbb     C6  526   6.556  10.940   6.634 -0.1605 -0.2423  1.3526
   17bbb    H11  527   6.462  10.957   6.580  0.6760 -1.5917 -0.6563
   17bbb    H12  528   6.624  10.975   6.555 -2.7588 -0.7837 -1.2943
   17bbb     C7  529   6.111  10.704   6.667 -0.2799  0.3637  0.8493
   17bbb    H13  530   6.110  10.646   6.574  0.7222 -0.6409  1.4416
   17bbb    H14  531   6.038  10.785   6.655 -1.7302 -0.9202  0.6916
   17bbb     C8  532   6.557  11.017   6.770  0.8714 -0.8759  0.2143
   17bbb    H15  533   6.495  10.967   6.845 -2.0435 -0.8710 -2.0024
   17bbb    H16  534   6.652  11.015   6.824  1.4019  0.1907 -0.6428
   17bbb     C9  535   6.648  10.639   6.982  0.1450  0.2646  0.3143
   17bbb    H17  536   6.727  10.619   7.055 -1.1281  1.3775  2.0828
   17bbb    H18  537   6.558  10.587   7.016 -1.0397  1.6913 -0.5103
   17bbb     O1  538   6.069  10.624   6.775 -0.8227  0.2382 -0.6772
   17bbb    H19  539   6.488  10.746   6.827  0.8136 -3.0799  2.0178
   18bbb     N1  540   5.132  10.434   8.801  0.5883 -0.4934 -0.0577
   18bbb     C1  541   5.027  10.327   8.807 -0.2444 -0.4163 -0.5300
   18bbb     H1  542   4.929  10.372   8.791  0.3240  0.9168 -0.3825
   18bbb     H2  543   5.032  10.285   8.907  0.1392  1.8097  0.4249
   18bbb     C2  544   5.086  10.578   8.834  0.0243  0.6699 -0.6817
   18bbb     H3  545   5.008  10.601   8.761  0.5324 -1.1600 -1.8949
   18bbb     H4  546   5.177  10.636   8.822  1.8605 -1.3124  2.4535
   18bbb     C3  547   5.244  10.380   8.882  0.0020 -0.3259 -0.2797
   18bbb     H5  548   5.243  10.271   8.876 -0.1587 -0.4588  1.6321
   18bbb     H6  549   5.235  10.403   8.988  2.3529 -0.8630  0.1043
   18bbb     C4  550   5.395  10.427   8.856  0.1716 -0.5343 -0.0843
   18bbb     H7  551   5.453  10.383   8.938  0.5425  1.0447  0.5340
   18bbb     H8  552   5.400  10.534   8.876 -0.2203 -0.2528 -1.3762
   18bbb     C5  553   5.057  10.218   8.696 -0.3561 -0.4532 -0.3661
   18bbb     H9  554   5.155  10.171   8.716  1.0564  2.7979  1.1095
   18bbb    H10  555   5.077  10.269   8.601  1.6478  0.9583  0.7287
   18bbb     C6  556   5.036  10.602   8.981 -0.0343  0.3399 -0.3738
   18bbb    H11  557   5.097  10.543   9.051 -2.5326 -1.5428  0.3231
   18bbb    H12  558   4.940  10.550   8.989  0.8745 -1.3593 -0.0897
   18bbb     C7  559   5.455  10.401   8.718  0.4479  0.5348  0.3671
   18bbb    H13  560   5.453  10.293   8.699  1.5236  0.4543  0.6535
   18bbb    H14  561   5.564  10.417   8.712  0.8190 -1.9521 -0.9954
   18bbb     C8  562   5.027  10.755   9.013 -0.1663 -0.4365 -0.1656
   18bbb    H15  563   4.983  10.822   8.938  0.8651  1.3083  0.7253
   18bbb    H16  564   4.972  10.757   9.108  0.5891  0.0183  0.2682
   18bbb     C9  565   4.945  10.117   8.682  0.6705 -0.4663  0.7268
   18bbb    H17  566   4.962  10.054   8.770  0.5374 -2.3084 -0.5127
   18bbb    H18  567   4.957  10.043   8.602 -1.0026  0.0112 -0.0112
   18bbb     O1  568   5.383  10.477   8.618 -0.0394  0.3497 -0.3511
   18bbb    H19  569   5.172  10.443   8.706  0.4940  1.9700  0.0721
   19bbb     N1  570   6.191  10.616   8.555  0.0381 -0.1628 -0.1477
   19bbb     C1  571   6.224  10.763   8.535 -0.1063  0.1969  0.1611
   19bbb     H1  572   6.314  10.789   8.593  0.6880 -0.6022 -0.6740
   19bbb     H2  573   6.143  10.818   8.582 -0.4924 -1.6640  1.8397
   19bbb     C2  574   6.190  10.588   8.703 -0.0965  0.4524 -0.4235
   19bbb     H3  575   6.108  10.518   8.720 -0.0979  0.7101  0.7393
   19bbb     H4  576   6.156  10.677   8.756  0.0012  0.6365 -0.6726
   19bbb     C3  577   6.047  10.589   8.507  0.2989  0.2398  0.0726
   19bbb     H5  578   6.020  10.486   8.533  0.7186 -0.0497 -0.6016
   19bbb     H6  579   6.037  10.603   8.400 -0.0518  0.0050  0.0724
   19bbb     C4  580   5.933  10.680   8.569  0.2560 -0.0632 -0.4604
   19bbb     H7  581   5.958  10.784   8.546  1.2727 -0.2636 -0.3134
   19bbb     H8  582   5.940  10.665   8.678 -1.7614  1.9902  0.0202
   19bbb     C5  583   6.238  10.799   8.390 -0.3525  0.2553  0.1375
   19bbb     H9  584   6.149  10.764   8.337  1.3261 -3.6852 -0.4247
   19bbb    H10  585   6.328  10.743   8.361  0.5988  2.0263 -0.5345
   19bbb     C6  586   6.306  10.515   8.769 -0.2259 -0.3164 -0.3635
   19bbb    H11  587   6.393  10.580   8.761 -0.2249 -0.2916 -0.1641
   19bbb    H12  588   6.332  10.423   8.715  1.3494 -0.6013  0.7968
   19bbb     C7  589   5.785  10.653   8.532  0.0783 -0.3711  0.4142
   19bbb    H13  590   5.723  10.698   8.611 -1.2490 -0.0248 -0.7896
   19bbb    H14  591   5.770  10.544   8.535 -0.4493 -0.6084 -4.2208
   19bbb     C8  592   6.293  10.489   8.920 -0.3558  0.2108 -0.5061
   19bbb    H15  593   6.303  10.582   8.978  0.7264 -0.0724 -0.2244
   19bbb    H16  594   6.189  10.466   8.949 -0.0757 -2.2842 -1.2931
   19bbb     C9  595   6.268  10.953   8.369  0.1155  0.6907 -0.6586
   19bbb    H17  596   6.185  11.018   8.400 -0.2982  0.0102 -0.3195
   19bbb    H18  597   6.286  10.973   8.262 -1.3717  1.3351 -0.8110
   19bbb     O1  598   5.747  10.702   8.402  0.4241 -0.2541 -0.2662
   19bbb    H19  599   6.258  10.556   8.504  0.5987  1.1095 -0.9701
   20bbb     N1  600   3.758  11.503   7.711 -0.1521  0.1984 -0.4533
   20bbb     C1  601   3.766  11.586   7.833 -0.3095 -0.5064 -0.5014
   20bbb     H1  602   3.674  11.645   7.839 -1.4766 -2.1639 -1.2636
   20bbb     H2  603   3.847  11.659   7.830  1.7083 -2.4382  2.2664
   20bbb     C2  604   3.687  11.583   7.597 -0.0994  0.0552 -0.0770
   20bbb     H3  605   3.685  11.527   7.504 -0.9265  2.1779 -1.4055
   20bbb     H4  606   3.752  11.665   7.566  1.2879 -1.0397 -0.1567
   20bbb     C3  607   3.899  11.477   7.672 -0.5279  0.2366 -0.2807
   20bbb     H5  608   3.969  11.469   7.755  1.7220  0.2591 -2.0423
   20bbb     H6  609   3.935  11.565   7.618 -0.9309  0.8238  0.3987
   20bbb     C4  610   3.917  11.360   7.571  0.3344 -0.5561  0.1290
   20bbb     H7  611   3.845  11.358   7.488  0.7896  0.5673 -0.3204
   20bbb     H8  612   3.898  11.268   7.627  0.6758 -0.1534  0.9195
   20bbb     C5  613   3.775  11.502   7.957 -0.3570  0.3365 -0.8007
   20bbb     H9  614   3.878  11.462   7.959  0.6783  2.7158 -2.1760
   20bbb    H10  615   3.712  11.414   7.941  0.6624 -0.2483 -1.7896
   20bbb     C6  616   3.544  11.622   7.638  0.4562 -0.0858  0.9534
   20bbb    H11  617   3.532  11.683   7.729  1.6607 -0.3346  1.2954
   20bbb    H12  618   3.484  11.532   7.656  1.2059 -0.2726  2.7451
   20bbb     C7  619   4.059  11.349   7.513  0.5516 -1.0538  0.3798
   20bbb    H13  620   4.133  11.365   7.593 -0.6196 -1.9278  1.6893
   20bbb    H14  621   4.066  11.415   7.426 -0.7043  0.5813  1.4612
   20bbb     C8  622   3.470  11.676   7.517  0.2571  0.6119  0.5185
   20bbb    H15  623   3.531  11.755   7.473 -0.6979  2.0599  1.6937
   20bbb    H16  624   3.455  11.590   7.451  1.3697 -0.1277  1.1880
   20bbb     C9  625   3.730  11.568   8.088  0.7371  0.4084  0.1668
   20bbb    H17  626   3.753  11.500   8.171  1.5957 -0.2407 -0.5683
   20bbb    H18  627   3.622  11.579   8.081  0.7614 -0.2403 -4.2768
   20bbb     O1  628   4.076  11.205   7.481 -0.5273 -0.7348 -0.1754
   20bbb    H19  629   3.708  11.419   7.743 -1.6135  0.8638 -0.9105
   21bbb     N1  630   3.498  10.738   7.017 -0.8983 -0.0859  1.3477
   21bbb     C1  631   3.463  10.883   7.041  0.5279 -0.2732  0.2356
   21bbb     H1  632   3.373  10.883   7.103  0.4388  2.2684  0.2142
   21bbb     H2  633   3.434  10.927   6.946 -4.8211 -0.1165  1.6370
   21bbb     C2  634   3.381  10.671   6.949 -0.3467  0.6986 -0.2934
   21bbb     H3  635   3.288  10.689   7.003  0.3595 -0.6406  1.4938
   21bbb     H4  636   3.400  10.564   6.959 -1.3816  0.6336  1.6265
   21bbb     C3  637   3.628  10.728   6.937  0.2918  0.5561  0.4603
   21bbb     H5  638   3.696  10.806   6.972 -1.5838  3.2875 -1.4985
   21bbb     H6  639   3.597  10.740   6.833 -1.1284  1.9288  1.0067
   21bbb     C4  640   3.695  10.586   6.957 -0.0767 -0.1445 -0.0152
   21bbb     H7  641   3.641  10.504   6.907  1.9465 -0.9183 -1.0639
   21bbb     H8  642   3.685  10.568   7.065  0.7057  1.0217  0.2554
   21bbb     C5  643   3.569  10.979   7.109  0.4061  0.1030  0.2072
   21bbb     H9  644   3.672  10.964   7.076  1.4490 -1.7507  3.7578
   21bbb    H10  645   3.570  10.952   7.215 -1.4646  1.0655  0.5105
   21bbb     C6  646   3.345  10.700   6.804 -0.9282 -0.0339 -1.3495
   21bbb    H11  647   3.405  10.629   6.746  1.9757 -0.3511  1.7059
   21bbb    H12  648   3.369  10.805   6.781  2.2866  0.3106  2.5860
   21bbb     C7  649   3.841  10.555   6.918 -0.2874  0.0187 -0.5369
   21bbb    H13  650   3.851  10.513   6.817 -0.3658 -1.0279 -0.1186
   21bbb    H14  651   3.871  10.471   6.982  0.9628  0.2804 -0.7461
   21bbb     C8  652   3.196  10.676   6.775 -0.1204  0.0726  0.2895
   21bbb    H15  653   3.180  10.676   6.666  1.3620 -2.7099 -0.0032
   21bbb    H16  654   3.166  10.577   6.810 -0.6723  0.4115  0.7895
   21bbb     C9  655   3.537  11.126   7.082  0.0085 -0.5357  0.1334
   21bbb    H17  656   3.621  11.190   7.111 -1.6026  1.1756  1.3386
   21bbb    H18  657   3.441  11.164   7.120  0.3996  1.1646 -0.4985
   21bbb     O1  658   3.933  10.666   6.930  0.6032 -0.5720 -0.2378
   21bbb    H19  659   3.512  10.701   7.112  0.3980 -0.4407  1.0395
   22bbb     N1  660   5.750   7.325   5.929  0.6820 -0.4766 -0.0972
   22bbb     C1  661   5.734   7.180   5.914 -0.2636 -0.3806 -0.1946
   22bbb     H1  662   5.812   7.151   5.843 -0.2631  0.5589 -0.5882
   22bbb     H2  663   5.641   7.147   5.867 -0.3640  0.2624 -0.4571
   22bbb     C2  664   5.817   7.392   5.806  0.4412  0.0065 -0.8198
   22bbb     H3  665   5.785   7.495   5.790  0.1386 -0.3658 -2.8230
   22bbb     H4  666   5.781   7.338   5.719 -0.2418 -1.0451  0.0992
   22bbb     C3  667   5.612   7.375   5.941  0.2601  0.8207  0.6960
   22bbb     H5  668   5.560   7.305   6.006  1.2394 -0.6888 -0.0737
   22bbb     H6  669   5.577   7.365   5.838  1.1223  0.9469  0.3765
   22bbb     C4  670   5.605   7.520   5.990  0.1329 -0.5912 -0.0530
   22bbb     H7  671   5.678   7.586   5.940  0.1043 -1.0483 -0.7167
   22bbb     H8  672   5.635   7.530   6.095  1.3505 -0.2837 -0.4089
   22bbb     C5  673   5.752   7.111   6.049  0.2033  0.0580  0.6705
   22bbb     H9  674   5.668   7.137   6.114  2.5134 -0.6634  4.2174
   22bbb    H10  675   5.842   7.152   6.095  0.4143 -0.6931  0.9475
   22bbb     C6  676   5.975   7.383   5.804  1.0185 -0.1060  0.0307
   22bbb    H11  677   5.995   7.276   5.817 -1.5047 -0.8257 -1.2597
   22bbb    H12  678   6.004   7.446   5.889 -3.4910 -1.2330  2.7738
   22bbb     C7  679   5.473   7.582   5.966  1.4517  0.4757  0.4939
   22bbb    H13  680   5.397   7.505   5.944  1.3707  0.5909  0.3686
   22bbb    H14  681   5.480   7.649   5.879  0.3211 -2.1930 -1.8399
   22bbb     C8  682   6.042   7.438   5.677 -0.3935  0.0036  0.2858
   22bbb    H15  683   6.008   7.538   5.646 -1.8981  0.1234  2.1425
   22bbb    H16  684   6.147   7.450   5.705 -0.1353 -0.9515 -0.2026
   22bbb     C9  685   5.759   6.962   6.020 -0.0160  0.0370 -0.3082
   22bbb    H17  686   5.680   6.929   5.952 -1.2403  0.2018  0.9940
   22bbb    H18  687   5.746   6.914   6.117 -0.3094  0.6311 -0.0443
   22bbb     O1  688   5.426   7.658   6.080 -0.7165  0.9430  0.2294
   22bbb    H19  689   5.802   7.343   6.017 -0.8209  0.3482  0.6590
   23bbb     N1  690   6.168   7.269   6.854 -0.5817 -0.0236  0.2707
   23bbb     C1  691   6.169   7.154   6.951  0.3385 -0.9910  0.2588
   23bbb     H1  692   6.145   7.067   6.890 -1.5468 -0.2605 -0.1312
   23bbb     H2  693   6.083   7.166   7.016  0.6167 -2.7066  0.9719
   23bbb     C2  694   6.282   7.244   6.749  0.6443 -0.4875 -0.4032
   23bbb     H3  695   6.229   7.186   6.673 -1.1047 -1.0954  1.2185
   23bbb     H4  696   6.367   7.195   6.797  0.3851 -0.3777  0.1805
   23bbb     C3  697   6.037   7.275   6.784  0.0723  0.2708 -0.8038
   23bbb     H5  698   5.982   7.181   6.789 -0.9422  0.9044  2.0501
   23bbb     H6  699   6.054   7.321   6.686  0.5405  1.1102 -0.3444
   23bbb     C4  700   5.935   7.382   6.847  0.1110 -0.5666 -0.2484
   23bbb     H7  701   5.995   7.474   6.854  2.4360 -2.0451  0.2380
   23bbb     H8  702   5.896   7.355   6.946 -2.1806  1.3156 -0.5530
   23bbb     C5  703   6.304   7.137   7.032  0.1424 -0.7422 -0.1004
   23bbb     H9  704   6.325   7.229   7.088  0.4785 -1.0237  0.2413
   23bbb    H10  705   6.384   7.122   6.959 -0.9994  0.0003 -1.5463
   23bbb     C6  706   6.351   7.369   6.703  0.0450  0.7504 -0.0003
   23bbb    H11  707   6.275   7.428   6.650 -1.7910 -0.6952  0.9036
   23bbb    H12  708   6.429   7.346   6.629  0.9132  0.9450  0.8433
   23bbb     C7  709   5.804   7.409   6.761  0.2466 -0.4913 -0.3332
   23bbb    H13  710   5.729   7.457   6.825  0.0134 -1.1633 -0.0972
   23bbb    H14  711   5.770   7.312   6.725 -1.7102 -0.5990  1.5818
   23bbb     C8  712   6.406   7.446   6.819  0.3700 -0.2984 -0.1866
   23bbb    H15  713   6.454   7.377   6.888 -0.1469 -2.9938 -2.3753
   23bbb    H16  714   6.474   7.523   6.780  0.1885 -1.1265 -2.2654
   23bbb     C9  715   6.299   7.017   7.133  0.8646 -0.1775  0.5922
   23bbb    H17  716   6.221   7.041   7.207  0.4400  3.6960 -0.8766
   23bbb    H18  717   6.388   7.005   7.196  0.3119 -0.8421  1.2639
   23bbb     O1  718   5.836   7.491   6.641  0.2096  0.0264 -0.3943
   23bbb    H19  719   6.195   7.361   6.893 -2.7229  1.1653 -0.8865
   24bbb     N1  720   3.966   8.441   5.904  0.1574 -0.5316  0.7852
   24bbb     C1  721   3.983   8.577   5.969 -0.3860 -0.4921 -0.0050
   24bbb     H1  722   3.883   8.619   5.968 -1.0811 -2.0536 -1.5269
   24bbb     H2  723   4.038   8.635   5.895  2.0393 -1.5626  0.8531
   24bbb     C2  724   3.862   8.456   5.796  0.2086 -0.2441  0.2183
   24bbb     H3  725   3.905   8.515   5.715 -0.6095 -1.2426 -0.9902
   24bbb     H4  726   3.776   8.508   5.840  0.7928  2.2766 -1.3989
   24bbb     C3  727   4.092   8.374   5.838 -0.2019  0.2499 -0.1217
   24bbb     H5  728   4.074   8.271   5.807  0.1156  0.5056 -1.2029
   24bbb     H6  729   4.167   8.366   5.917 -0.2521  2.6509  0.2413
   24bbb     C4  730   4.160   8.454   5.733 -0.1026  0.2620  0.1839
   24bbb     H7  731   4.181   8.559   5.757 -0.7551  0.2368  0.9292
   24bbb     H8  732   4.092   8.447   5.647 -0.5932  0.3697  0.5563
   24bbb     C5  733   4.078   8.583   6.101 -0.3549 -0.4784  0.2888
   24bbb     H9  734   4.086   8.691   6.118 -0.8343 -0.0392 -1.9408
   24bbb    H10  735   4.178   8.549   6.072  0.5896  3.9507 -2.5535
   24bbb     C6  736   3.809   8.321   5.745  0.0750  0.0243 -0.6682
   24bbb    H11  737   3.769   8.261   5.828  0.0888  0.4650 -0.3438
   24bbb    H12  738   3.893   8.261   5.708 -0.5110 -0.5126 -1.1561
   24bbb     C7  739   4.286   8.374   5.684  0.0001  0.0875 -0.3026
   24bbb    H13  740   4.344   8.435   5.614  2.0770 -1.4685 -0.0342
   24bbb    H14  741   4.247   8.284   5.634 -0.0187  0.0264 -0.1757
   24bbb     C8  742   3.708   8.331   5.627 -0.6129 -0.1420 -0.6312
   24bbb    H15  743   3.715   8.234   5.574  0.5044  0.0371 -0.8453
   24bbb    H16  744   3.608   8.350   5.668 -0.0468 -2.0578  1.9477
   24bbb     C9  745   4.023   8.508   6.223  0.1963  0.1301  0.2792
   24bbb    H17  746   4.085   8.507   6.315 -0.5551 -2.0485  0.8358
   24bbb    H18  747   4.024   8.401   6.198  1.1430  0.1669  0.1196
   24bbb     O1  748   4.372   8.340   5.799 -0.5261  0.5442 -0.0786
   24bbb    H19  749   3.928   8.376   5.974 -0.3762 -0.4772  0.5532
   25bbb     N1  750   4.431   7.614   5.665  0.0009 -0.1266  0.3716
   25bbb     C1  751   4.499   7.486   5.620 -0.3862 -0.3520 -0.2761
   25bbb     H1  752   4.421   7.423   5.576 -0.4442  0.2428 -1.0563
   25bbb     H2  753   4.531   7.429   5.707 -1.0738  1.8024  1.4912
   25bbb     C2  754   4.328   7.574   5.771  0.5766 -0.0182  0.1395
   25bbb     H3  755   4.380   7.527   5.854 -0.0133 -1.0427 -0.0541
   25bbb     H4  756   4.258   7.509   5.719  1.0372  0.4358 -1.0787
   25bbb     C3  757   4.531   7.717   5.719  0.2609 -0.4122 -0.5612
   25bbb     H5  758   4.474   7.801   5.756  0.8771 -0.3028  0.1683
   25bbb     H6  759   4.587   7.763   5.637  1.5608 -0.8547  0.0364
   25bbb     C4  760   4.632   7.666   5.821 -0.5991  0.0824 -0.7416
   25bbb     H7  761   4.708   7.600   5.778  1.7370  3.8266 -2.8844
   25bbb     H8  762   4.580   7.595   5.888 -0.7771 -1.9286 -2.8670
   25bbb     C5  763   4.615   7.506   5.515 -0.3111 -0.1597  0.1174
   25bbb     H9  764   4.661   7.412   5.482  0.8184 -0.1725  1.6100
   25bbb    H10  765   4.698   7.568   5.553 -2.8439  2.3972  1.9116
   25bbb     C6  766   4.250   7.705   5.820  0.0601  0.0484 -0.3798
   25bbb    H11  767   4.221   7.766   5.733 -0.3438 -0.3410 -0.5185
   25bbb    H12  768   4.320   7.765   5.881 -0.1077  0.7545 -0.8641
   25bbb     C7  769   4.692   7.786   5.898 -0.0412  0.2914  0.0750
   25bbb    H13  770   4.730   7.849   5.817 -2.5173  2.6577  0.6407
   25bbb    H14  771   4.765   7.755   5.974 -2.2211  1.8240  3.0237
   25bbb     C8  772   4.120   7.660   5.901  0.2655  0.1414  0.2073
   25bbb    H15  773   4.146   7.585   5.976  2.3642  0.7225  0.1113
   25bbb    H16  774   4.076   7.744   5.958  0.0400  0.1527  0.0182
   25bbb     C9  775   4.573   7.571   5.385  0.1786  0.3816  1.8614
   25bbb    H17  776   4.667   7.591   5.332  0.0649 -1.5539  0.8453
   25bbb    H18  777   4.526   7.669   5.401 -0.5236  0.1283  1.3928
   25bbb     O1  778   4.593   7.867   5.972  0.3533  0.5679 -0.3575
   25bbb    H19  779   4.389   7.648   5.577  0.0281 -1.4636 -0.1820
   26bbb     N1  780   3.982   8.240   9.509  0.4797 -0.0179 -0.3550
   26bbb     C1  781   4.082   8.276   9.614 -0.6385  0.5023 -0.6640
   26bbb     H1  782   4.151   8.342   9.562 -1.3097  1.8002  0.0332
   26bbb     H2  783   4.146   8.190   9.637 -0.0627  0.1658 -3.2955
   26bbb     C2  784   3.923   8.367   9.440 -0.1577  0.8070 -0.7661
   26bbb     H3  785   4.001   8.426   9.393  1.8539 -0.4181  0.7957
   26bbb     H4  786   3.893   8.422   9.529 -2.0474 -3.0004  1.2293
   26bbb     C3  787   4.042   8.141   9.408 -0.5735  0.2596 -0.8606
   26bbb     H5  788   4.130   8.188   9.364  0.2863 -0.8806 -0.4006
   26bbb     H6  789   3.979   8.128   9.319  0.8879 -0.3232 -1.8483
   26bbb     C4  790   4.108   8.009   9.458  0.3296 -1.2519  0.4834
   26bbb     H7  791   4.027   7.947   9.498 -2.4446  0.5705 -1.9734
   26bbb     H8  792   4.180   8.026   9.540  0.3216 -0.1729  0.2756
   26bbb     C5  793   4.038   8.344   9.743  0.4424  0.2677 -0.2745
   26bbb     H9  794   3.967   8.283   9.800 -2.4947  1.1777 -2.7085
   26bbb    H10  795   3.988   8.438   9.716  0.4533 -0.5385 -3.4034
   26bbb     C6  796   3.794   8.340   9.359 -0.8589 -0.2916  0.8153
   26bbb    H11  797   3.815   8.308   9.256 -1.8856 -2.4380  1.2315
   26bbb    H12  798   3.742   8.436   9.346 -1.7393 -0.9592 -0.9801
   26bbb     C7  799   4.179   7.926   9.355  0.0315  0.1212  0.4300
   26bbb    H13  800   4.105   7.886   9.285  0.4379 -0.2028  0.1791
   26bbb    H14  801   4.214   7.836   9.407  1.1812 -0.8773 -1.8941
   26bbb     C8  802   3.694   8.247   9.426 -0.0090 -0.6142  0.1174
   26bbb    H15  803   3.600   8.266   9.372  0.3512 -2.7945 -1.3754
   26bbb    H16  804   3.721   8.141   9.430 -1.0901 -0.8797  2.4179
   26bbb     C9  805   4.160   8.371   9.827 -0.1171 -0.5093 -0.2604
   26bbb    H17  806   4.237   8.411   9.759 -2.4887 -2.0211 -4.1787
   26bbb    H18  807   4.194   8.276   9.872  0.2238  0.3685  1.4236
   26bbb     O1  808   4.291   7.997   9.289 -0.2906  0.4342 -0.3788
   26bbb    H19  809   3.902   8.193   9.554  0.2804  0.1045 -0.5778
   27bbb     N1  810   5.160   7.387   9.075 -0.2328  0.2378 -0.8347
   27bbb     C1  811   5.277   7.322   9.007 -0.6076  0.8957  0.3809
   27bbb     H1  812   5.354   7.393   8.977 -1.2175  0.8489 -1.4695
   27bbb     H2  813   5.245   7.299   8.905  2.0551  2.7901 -1.0221
   27bbb     C2  814   5.212   7.481   9.185  0.0096  0.3173 -0.1410
   27bbb     H3  815   5.139   7.556   9.212 -1.1264 -1.5650  2.3419
   27bbb     H4  816   5.301   7.519   9.133  0.8124  1.0868  1.7159
   27bbb     C3  817   5.065   7.470   8.987  0.1458 -0.0057  0.1906
   27bbb     H5  818   5.071   7.438   8.883  1.7028  0.8240 -0.0021
   27bbb     H6  819   5.110   7.569   8.977 -0.5372  0.1947 -1.2195
   27bbb     C4  820   4.919   7.482   9.042  0.2826 -0.4256 -0.0389
   27bbb     H7  821   4.930   7.535   9.137  0.0783 -2.2377  1.0421
   27bbb     H8  822   4.872   7.384   9.059 -1.5428  0.7486  2.4696
   27bbb     C5  823   5.340   7.192   9.063  0.0659  0.2563  0.4882
   27bbb     H9  824   5.260   7.124   9.094 -1.1970  0.9834 -1.0397
   27bbb    H10  825   5.404   7.224   9.146  2.0686 -1.8245 -0.1668
   27bbb     C6  826   5.261   7.428   9.326 -0.2294  0.3986 -0.0646
   27bbb    H11  827   5.338   7.351   9.319  0.0931  0.5393  1.4243
   27bbb    H12  828   5.174   7.385   9.376  0.6609 -2.0626 -0.4975
   27bbb     C7  829   4.823   7.563   8.947 -0.0806 -0.1564 -0.4032
   27bbb    H13  830   4.830   7.520   8.846  0.6632 -0.7005 -0.1263
   27bbb    H14  831   4.870   7.662   8.936  1.8204 -1.0115 -0.2667
   27bbb     C8  832   5.317   7.547   9.408  0.3333 -0.2056 -0.0774
   27bbb    H15  833   5.380   7.507   9.488 -0.6136 -0.3160  0.6348
   27bbb    H16  834   5.234   7.598   9.458 -0.3296 -1.3272 -0.0178
   27bbb     C9  835   5.436   7.144   8.957  0.2204  0.4777  0.1081
   27bbb    H17  836   5.394   7.117   8.859  2.5302 -4.2505  0.1413
   27bbb    H18  837   5.514   7.219   8.941 -0.1605  0.9563  0.4568
   27bbb     O1  838   4.688   7.585   8.998 -0.2926  1.1210  0.0333
   27bbb    H19  839   5.109   7.310   9.120 -2.6528  0.6488 -2.6425
   28bbb     N1  840   3.208   8.489   8.019 -0.3236  0.2407  0.0660
   28bbb     C1  841   3.293   8.597   7.961 -0.2372 -0.0798  0.6041
   28bbb     H1  842   3.332   8.565   7.864  0.9052 -2.1355  1.6918
   28bbb     H2  843   3.384   8.600   8.022 -1.3898 -0.5855  2.4066
   28bbb     C2  844   3.076   8.481   7.952  0.6491  0.2122 -0.3452
   28bbb     H3  845   3.097   8.469   7.846 -0.6950 -0.4111 -0.5563
   28bbb     H4  846   3.023   8.576   7.966  0.1250 -0.1099 -0.1185
   28bbb     C3  847   3.277   8.355   7.993  0.0583  0.0627  0.2671
   28bbb     H5  848   3.284   8.336   7.886 -1.3615 -1.6119  0.4192
   28bbb     H6  849   3.214   8.274   8.031 -0.3023  1.3614  2.6387
   28bbb     C4  850   3.423   8.338   8.056 -0.5863 -0.3042  0.1192
   28bbb     H7  851   3.500   8.406   8.017 -0.6738 -0.3811 -0.1892
   28bbb     H8  852   3.464   8.240   8.026  1.3496  0.2430  0.8174
   28bbb     C5  853   3.234   8.738   7.958  0.5319 -0.2643 -1.1570
   28bbb     H9  854   3.226   8.780   8.059 -1.4133  0.1312 -1.4366
   28bbb    H10  855   3.136   8.731   7.910  0.2580 -2.8432 -0.3632
   28bbb     C6  856   2.977   8.377   7.998 -0.7351 -0.0360  0.2730
   28bbb    H11  857   2.957   8.398   8.103 -2.1767  3.0368 -0.5107
   28bbb    H12  858   3.017   8.275   7.986  0.4975  0.4858 -0.2662
   28bbb     C7  859   3.430   8.343   8.207  0.7030  0.3220  0.4359
   28bbb    H13  860   3.338   8.290   8.233 -1.0758  3.3534  0.7945
   28bbb    H14  861   3.416   8.445   8.246 -1.4204  0.3074 -0.2064
   28bbb     C8  862   2.851   8.390   7.908  0.6280  0.6414  0.7843
   28bbb    H15  863   2.776   8.314   7.933  1.2414  0.5614  2.5217
   28bbb    H16  864   2.821   8.494   7.925 -0.5134  0.3683  0.5383
   28bbb     C9  865   3.341   8.826   7.883  0.0387 -0.3484 -0.3363
   28bbb    H17  866   3.281   8.917   7.880 -0.1310 -0.1934  3.5545
   28bbb    H18  867   3.359   8.788   7.782 -0.7011 -1.8005  0.0427
   28bbb     O1  868   3.551   8.280   8.270 -0.1871 -0.6642 -0.1124
   28bbb    H19  869   3.185   8.504   8.118 -3.0407  1.6421 -0.6681
   29bbb     N1  870   3.481   7.534   8.174 -0.4336 -0.2609 -0.4137
   29bbb     C1  871   3.587   7.626   8.106 -0.1661  0.7827  0.1965
   29bbb     H1  872   3.680   7.570   8.112 -1.3090 -1.3421 -0.8747
   29bbb     H2  873   3.591   7.717   8.167  0.8294 -0.3571  1.9102
   29bbb     C2  874   3.500   7.396   8.123 -0.7823 -0.0944 -0.2145
   29bbb     H3  875   3.590   7.357   8.170 -1.5208 -0.2391  1.1434
   29bbb     H4  876   3.518   7.390   8.016 -1.0451 -3.4736 -0.1821
   29bbb     C3  877   3.487   7.534   8.327 -0.1233  0.1063 -0.2405
   29bbb     H5  878   3.593   7.519   8.351 -0.0984  0.4860 -0.1027
   29bbb     H6  879   3.446   7.443   8.371 -0.8407  0.3864 -0.3278
   29bbb     C4  880   3.435   7.654   8.406 -0.1269 -0.4695  0.0128
   29bbb     H7  881   3.326   7.663   8.394  0.1362  4.5338 -1.0938
   29bbb     H8  882   3.470   7.745   8.355 -1.5982 -0.0190 -0.2292
   29bbb     C5  883   3.554   7.659   7.956  0.2953 -0.4395 -1.1313
   29bbb     H9  884   3.459   7.713   7.958 -0.1756 -1.2414  1.0302
   29bbb    H10  885   3.530   7.567   7.901 -0.9002  0.1961 -1.7174
   29bbb     C6  886   3.375   7.301   8.152 -0.2231  0.1501  0.4633
   29bbb    H11  887   3.294   7.334   8.086 -1.0784  0.9948  1.8940
   29bbb    H12  888   3.336   7.307   8.254  2.9156  1.4006  1.7231
   29bbb     C7  889   3.469   7.657   8.560  0.0441  0.1668 -0.0197
   29bbb    H13  890   3.568   7.616   8.583 -0.5357  0.0512  2.5005
   29bbb    H14  891   3.406   7.589   8.618  2.4763 -3.4194 -1.2257
   29bbb     C8  892   3.419   7.161   8.114  0.4828 -0.0327  0.0976
   29bbb    H15  893   3.423   7.154   8.005  0.7699  0.9327  0.0348
   29bbb    H16  894   3.517   7.151   8.162 -0.2644 -0.4402  1.6221
   29bbb     C9  895   3.667   7.731   7.874  0.2271 -0.8255  0.1910
   29bbb    H17  896   3.710   7.816   7.930  2.8575 -0.9557 -1.4548
   29bbb    H18  897   3.625   7.773   7.782 -2.0495 -1.2632  0.9608
   29bbb     O1  898   3.471   7.788   8.602 -0.3242 -0.0011 -0.1335
   29bbb    H19  899   3.387   7.562   8.140 -0.1894 -1.2704 -2.0241
   30bbb     N1  900   7.134   9.344   7.672  0.8030 -0.0426 -0.8623
   30bbb     C1  901   7.013   9.247   7.673 -0.3644  0.0758  0.3994
   30bbb     H1  902   7.016   9.193   7.767 -3.3210 -0.0112  0.5498
   30bbb     H2  903   7.040   9.173   7.598  2.3357  1.3223  0.0302
   30bbb     C2  904   7.256   9.277   7.728 -0.2752  0.1948 -0.3775
   30bbb     H3  905   7.336   9.344   7.695  0.7544  0.3352  2.1455
   30bbb     H4  906   7.267   9.179   7.680  0.3003  0.2738 -0.4185
   30bbb     C3  907   7.160   9.392   7.525  0.4781 -0.3809  0.0137
   30bbb     H5  908   7.068   9.439   7.492  1.4360  2.5561  1.2425
   30bbb     H6  909   7.166   9.294   7.476  0.1173 -0.6470  0.4941
   30bbb     C4  910   7.285   9.474   7.496 -0.5196  0.4448 -0.0359
   30bbb     H7  911   7.373   9.411   7.513 -0.9757  0.2448  1.7894
   30bbb     H8  912   7.300   9.553   7.571  1.0312 -1.0634  1.3209
   30bbb     C5  913   6.870   9.314   7.654 -0.2556  0.1958  0.2537
   30bbb     H9  914   6.795   9.235   7.643 -0.4991  0.5753 -0.9310
   30bbb    H10  915   6.856   9.368   7.559 -0.9562  2.3028  1.4991
   30bbb     C6  916   7.260   9.262   7.884  0.1856  0.0324  0.6048
   30bbb    H11  917   7.157   9.229   7.907 -0.3998  0.0374 -1.7703
   30bbb    H12  918   7.270   9.357   7.938 -0.1746  0.7788 -0.6085
   30bbb     C7  919   7.289   9.511   7.351 -0.2274 -0.3264  0.5959
   30bbb    H13  920   7.286   9.418   7.291 -0.2590 -0.7481  1.2425
   30bbb    H14  921   7.384   9.563   7.331 -0.9412  0.9298  0.3879
   30bbb     C8  922   7.364   9.157   7.926  0.2634  0.6574  0.5373
   30bbb    H15  923   7.464   9.189   7.893  1.0846 -0.9112  1.3994
   30bbb    H16  924   7.371   9.155   8.035 -0.9347  2.0240  0.6813
   30bbb     C9  925   6.840   9.409   7.776 -0.4119 -0.4032 -0.3665
   30bbb    H17  926   6.845   9.349   7.868  2.0478 -0.4182 -0.4584
   30bbb    H18  927   6.739   9.451   7.764 -0.5394 -0.8019 -0.7320
   30bbb     O1  928   7.171   9.578   7.313 -0.0409 -0.2024 -0.2897
   30bbb    H19  929   7.104   9.432   7.716  0.2274  1.5245 -4.0729
   31bbb     N1  930   7.437   9.333   6.577  0.5951 -0.4297  0.0384
   31bbb     C1  931   7.402   9.184   6.587 -0.4398 -0.6797  0.4614
   31bbb     H1  932   7.382   9.143   6.487 -3.9867 -0.2848  0.8836
   31bbb     H2  933   7.305   9.189   6.636 -0.0813 -1.7154  1.2921
   31bbb     C2  934   7.339   9.400   6.477  0.2983  0.7187 -0.1249
   31bbb     H3  935   7.367   9.505   6.479  2.2319  0.2513 -1.0081
   31bbb     H4  936   7.243   9.368   6.518  1.2454 -0.3902  1.3423
   31bbb     C3  937   7.437   9.405   6.708  0.5609  0.0118  0.3842
   31bbb     H5  938   7.425   9.510   6.680  1.4298 -0.2566 -1.1111
   31bbb     H6  939   7.538   9.418   6.749  1.2900  0.1554 -1.3893
   31bbb     C4  940   7.322   9.375   6.810 -0.3466 -0.7315  0.5294
   31bbb     H7  941   7.334   9.269   6.836 -0.8625 -0.7950  0.5155
   31bbb     H8  942   7.223   9.381   6.762  0.2991 -0.6635 -0.8562
   31bbb     C5  943   7.491   9.101   6.677 -0.1152  0.1301 -0.0654
   31bbb     H9  944   7.423   9.023   6.713  0.5632 -0.4992 -0.1184
   31bbb    H10  945   7.534   9.155   6.762  0.4679 -1.3805  0.6299
   31bbb     C6  946   7.350   9.362   6.323 -0.0346 -0.2124  0.1998
   31bbb    H11  947   7.312   9.444   6.260  0.8884 -0.8247 -1.2091
   31bbb    H12  948   7.293   9.272   6.300 -0.7991  0.6376 -1.3648
   31bbb     C7  949   7.317   9.472   6.934  0.3502  0.2828 -0.2847
   31bbb    H13  950   7.419   9.491   6.968  0.1470  0.2905  0.3298
   31bbb    H14  951   7.256   9.435   7.018  0.9401  1.8189  0.8806
   31bbb     C8  952   7.488   9.337   6.265 -0.1045  0.4704 -0.2776
   31bbb    H15  953   7.528   9.235   6.262 -3.3586 -0.9139  0.1428
   31bbb    H16  954   7.489   9.367   6.159 -0.0082  0.3132 -0.3223
   31bbb     C9  955   7.597   9.019   6.598 -0.1962 -0.4966 -0.0718
   31bbb    H17  956   7.643   9.093   6.531 -1.3111  1.3619  1.1305
   31bbb    H18  957   7.545   8.936   6.547 -0.6587 -0.5461  0.4693
   31bbb     O1  958   7.269   9.600   6.887 -0.1680  0.1326 -0.4280
   31bbb    H19  959   7.530   9.339   6.533 -0.7439 -0.2873 -3.0385
   32bbb     N1  960   6.927   9.579   5.320  0.2803  0.2182  0.6708
   32bbb     C1  961   6.809   9.489   5.294 -0.5366  0.4406 -0.0098
   32bbb     H1  962   6.836   9.389   5.262 -0.4762  0.8122 -1.1528
   32bbb     H2  963   6.765   9.529   5.203  0.4089  2.8596  0.5162
   32bbb     C2  964   7.014   9.566   5.196  0.6034  0.1705 -1.1959
   32bbb     H3  965   6.966   9.611   5.109 -2.8023 -0.1080  0.3511
   32bbb     H4  966   7.021   9.459   5.175 -0.3711 -0.8029  2.6413
   32bbb     C3  967   6.883   9.727   5.314 -0.1131 -0.1391 -0.2202
   32bbb     H5  968   6.782   9.740   5.275 -0.6179  1.2809  1.4550
   32bbb     H6  969   6.947   9.791   5.253 -0.9275  1.9747  1.0444
   32bbb     C4  970   6.886   9.796   5.448 -0.1127  0.0008  0.2451
   32bbb     H7  971   6.798   9.775   5.510 -0.6348  0.7096 -0.2465
   32bbb     H8  972   6.881   9.904   5.430  1.3086  0.2276  1.0948
   32bbb     C5  973   6.697   9.491   5.404  0.1444  0.7422  1.1572
   32bbb     H9  974   6.670   9.594   5.428  0.6565  0.8561  1.2554
   32bbb    H10  975   6.741   9.435   5.487 -0.8951 -1.1278  0.5177
   32bbb     C6  976   7.157   9.635   5.217  0.9510 -0.1986  0.5082
   32bbb    H11  977   7.229   9.572   5.270 -0.6434 -1.2622  1.5080
   32bbb    H12  978   7.155   9.722   5.283 -0.7353 -0.9165  1.4699
   32bbb     C7  979   7.016   9.772   5.528 -0.3288  1.1364  0.1234
   32bbb    H13  980   7.016   9.827   5.622  0.8843  2.3372 -0.5520
   32bbb    H14  981   7.091   9.819   5.464 -0.6518  0.1325 -1.0406
   32bbb     C8  982   7.218   9.668   5.078 -0.6494 -0.3006  0.1142
   32bbb    H15  983   7.312   9.723   5.088 -0.9269  0.1901  0.0295
   32bbb    H16  984   7.244   9.572   5.031 -0.4517 -0.0139 -0.3666
   32bbb     C9  985   6.570   9.416   5.361  1.0055 -0.0087 -0.2013
   32bbb    H17  986   6.532   9.461   5.268  0.6495 -0.4331 -0.2670
   32bbb    H18  987   6.497   9.431   5.441 -0.1696  0.7148 -1.3721
   32bbb     O1  988   7.035   9.629   5.554  0.0969 -0.8679 -0.4859
   32bbb    H19  989   6.979   9.563   5.408  1.9724  5.0695  0.8723
   33bbb     N1  990   7.638   8.849   5.467 -0.2322 -0.0999 -0.1014
   33bbb     C1  991   7.679   8.992   5.462  0.0992 -0.2711 -0.0717
   33bbb     H1  992   7.599   9.038   5.405 -0.3224  1.5110  1.8320
   33bbb     H2  993   7.773   8.998   5.407  0.1605  1.9322  0.1915
   33bbb     C2  994   7.736   8.773   5.562 -0.0828  0.3709  0.1465
   33bbb     H3  995   7.716   8.810   5.662  2.5456  1.2688  0.4225
   33bbb     H4  996   7.839   8.798   5.536 -0.0260 -0.4084 -0.4158
   33bbb     C3  997   7.495   8.834   5.509 -0.3891 -0.2292 -0.4120
   33bbb     H5  998   7.495   8.853   5.616 -2.0205  0.2516 -0.4642
   33bbb     H6  999   7.458   8.733   5.495 -1.0865 -0.1830  0.9906
   33bbb     C4 1000   7.395   8.925   5.432 -0.1563  0.2662  0.1408
   33bbb     H7 1001   7.407   8.908   5.325 -1.9862  0.9885 -0.2206
   33bbb     H8 1002   7.397   9.033   5.455  1.1111  0.7979 -2.1686
   33bbb     C5 1003   7.690   9.068   5.594 -0.0181 -0.1511  0.2712
   33bbb     H9 1004   7.629   9.019   5.672  0.0877  2.6607  2.2777
   33bbb    H10 1005   7.646   9.168   5.588 -0.3865 -0.2362  1.3882
   33bbb     C6 1006   7.738   8.620   5.561 -0.7746 -0.4956 -0.0254
   33bbb    H11 1007   7.727   8.591   5.456  0.3238 -0.9155 -0.0372
   33bbb    H12 1008   7.642   8.585   5.603 -0.7525  0.8808  1.2752
   33bbb     C7 1009   7.244   8.892   5.453 -0.6038 -0.6255 -0.4071
   33bbb    H13 1010   7.240   8.783   5.444  0.3530 -0.8529  1.4128
   33bbb    H14 1011   7.183   8.940   5.375 -2.4093 -4.3956 -1.5453
   33bbb     C8 1012   7.855   8.543   5.629 -0.4673 -0.4081  0.6117
   33bbb    H15 1013   7.936   8.614   5.647 -0.6900  0.4033 -1.3167
   33bbb    H16 1014   7.829   8.511   5.731 -0.1323  0.0299  0.8373
   33bbb     C9 1015   7.833   9.062   5.649  0.6884 -1.0490 -0.4948
   33bbb    H17 1016   7.868   8.958   5.644  0.9984 -0.8941 -2.4629
   33bbb    H18 1017   7.845   9.099   5.751  1.2116  0.4202 -1.0602
   33bbb     O1 1018   7.204   8.944   5.580  0.4975  0.8743 -0.4592
   33bbb    H19 1019   7.650   8.816   5.370  0.9967  0.2138 -0.0812
   34bbb     N1 1020   4.818  10.116   5.878  0.5085  0.0287  0.3663
   34bbb     C1 1021   4.924  10.058   5.781  0.1453 -0.3392  0.4452
   34bbb     H1 1022   4.908   9.954   5.752  2.0476 -0.4290 -0.4127
   34bbb     H2 1023   5.022  10.073   5.825  0.6430  0.5193 -0.8837
   34bbb     C2 1024   4.677  10.055   5.856 -0.6535  0.0264 -0.2183
   34bbb     H3 1025   4.668   9.956   5.900 -0.0749  0.5597  1.1749
   34bbb     H4 1026   4.674  10.040   5.749  1.5158  0.0581 -0.3110
   34bbb     C3 1027   4.867  10.085   6.020 -0.4029  0.1448  0.4548
   34bbb     H5 1028   4.806  10.138   6.094 -0.1540 -0.0098  0.7708
   34bbb     H6 1029   4.970  10.120   6.021  1.1231 -3.7960 -0.3213
   34bbb     C4 1030   4.872   9.937   6.067 -0.3875 -0.5992 -0.7608
   34bbb     H7 1031   4.931   9.889   5.988 -0.2433 -0.4365 -0.7511
   34bbb     H8 1032   4.769   9.901   6.078 -0.2192 -0.6398  0.8822
   34bbb     C5 1033   4.920  10.136   5.653  0.3158 -0.4338 -0.0543
   34bbb     H9 1034   4.818  10.139   5.614 -0.3271  0.7467  1.5947
   34bbb    H10 1035   4.987  10.087   5.581  1.3371  0.2965  0.3657
   34bbb     C6 1036   4.557  10.139   5.906 -0.0648  0.2771 -0.2426
   34bbb    H11 1037   4.583  10.147   6.013 -0.9960 -1.8402  0.1853
   34bbb    H12 1038   4.467  10.078   5.911  0.6897 -0.9115 -0.7556
   34bbb     C7 1039   4.956   9.916   6.195  0.4386  0.0272  0.7595
   34bbb    H13 1040   4.937   9.812   6.225 -0.0499  0.3484  1.5840
   34bbb    H14 1041   4.911   9.974   6.276  0.6890 -0.5984  1.3492
   34bbb     C8 1042   4.544  10.274   5.828 -0.0257 -0.0689  0.0164
   34bbb    H15 1043   4.455  10.328   5.864  0.4870  0.8329 -0.0271
   34bbb    H16 1044   4.624  10.344   5.854 -0.1239  0.1878 -0.3731
   34bbb     C9 1045   4.987  10.272   5.682 -0.2867  0.0393 -0.0036
   34bbb    H17 1046   5.000  10.322   5.585  1.4043 -0.1919  0.0686
   34bbb    H18 1047   5.091  10.256   5.712 -0.3703 -1.0026 -0.2065
   34bbb     O1 1048   5.098   9.941   6.177  0.2002  0.2289 -0.1267
   34bbb    H19 1049   4.825  10.216   5.857  2.1310  0.0658  0.9188
   35bbb     N1 1050   5.727  10.390   5.688  0.1972 -0.0297  0.0578
   35bbb     C1 1051   5.779  10.343   5.554 -0.0830  0.0040 -0.1325
   35bbb     H1 1052   5.848  10.425   5.534  1.3854 -1.1865 -0.2050
   35bbb     H2 1053   5.703  10.349   5.476 -0.6298 -0.3762  0.3601
   35bbb     C2 1054   5.601  10.311   5.723 -0.7108 -1.0805 -0.1725
   35bbb     H3 1055   5.593  10.340   5.828  0.3572  0.7201 -0.5561
   35bbb     H4 1056   5.613  10.203   5.713  2.6034 -0.7586 -0.9499
   35bbb     C3 1057   5.830  10.387   5.800  0.3114  0.5812  0.6000
   35bbb     H5 1058   5.921  10.365   5.744 -1.2254 -0.6894 -1.5230
   35bbb     H6 1059   5.803  10.303   5.863  1.8624 -0.1745  0.3018
   35bbb     C4 1060   5.835  10.515   5.879 -0.5424 -0.0493  0.9998
   35bbb     H7 1061   5.850  10.592   5.803 -0.6409 -1.0264 -0.0377
   35bbb     H8 1062   5.926  10.508   5.939 -0.5002 -4.1088  0.7783
   35bbb     C5 1063   5.849  10.209   5.535  0.0277  0.5044 -0.5650
   35bbb     H9 1064   5.945  10.196   5.588 -0.8445 -0.4021  0.8505
   35bbb    H10 1065   5.894  10.213   5.435  1.9009  0.0209  0.2035
   35bbb     C6 1066   5.476  10.361   5.643 -0.2267 -0.5843 -0.1605
   35bbb    H11 1067   5.394  10.296   5.673 -0.1526 -0.5722  0.0706
   35bbb    H12 1068   5.501  10.349   5.537  0.4038  2.4941 -0.4625
   35bbb     C7 1069   5.711  10.546   5.975 -0.3732  0.3299  0.5756
   35bbb    H13 1070   5.629  10.581   5.912  0.7511 -1.6100 -2.1900
   35bbb    H14 1071   5.727  10.630   6.044 -0.5637  0.6033  0.2876
   35bbb     C8 1072   5.427  10.502   5.682 -0.4095 -0.1296 -0.4527
   35bbb    H15 1073   5.326  10.517   5.641 -1.0474  1.5031  1.5063
   35bbb    H16 1074   5.408  10.495   5.790 -2.9209  0.4443 -0.7810
   35bbb     C9 1075   5.761  10.080   5.554 -0.1098  0.4434  1.0565
   35bbb    H17 1076   5.751  10.056   5.660 -0.2100 -0.9156  0.7596
   35bbb    H18 1077   5.817   9.998   5.507 -1.1881  0.9226 -1.1879
   35bbb     O1 1078   5.658  10.426   6.040 -0.0932 -0.1686 -0.3382
   35bbb    H19 1079   5.706  10.490   5.672  0.3177 -0.1604 -0.9759
   36bbb     N1 1080   6.639  11.604   6.748  0.1787 -0.2774 -0.0097
   36bbb     C1 1081   6.736  11.643   6.637 -0.2690 -1.0248  0.1640
   36bbb     H1 1082   6.734  11.752   6.634  0.5566 -1.0006  0.1606
   36bbb     H2 1083   6.685  11.603   6.549 -1.2571  0.4410  0.0322
   36bbb     C2 1084   6.509  11.672   6.722  0.6220 -0.7245  0.2053
   36bbb     H3 1085   6.431  11.619   6.778 -0.6102  0.1031 -0.6626
   36bbb     H4 1086   6.488  11.665   6.615  0.2093 -0.0445  0.2403
   36bbb     C3 1087   6.616  11.453   6.730  0.0428  0.3035  0.2202
   36bbb     H5 1088   6.711  11.400   6.735  0.1468  0.5595  1.0017
   36bbb     H6 1089   6.566  11.431   6.635  0.2752  0.0998  0.1455
   36bbb     C4 1090   6.523  11.394   6.841 -0.2343  0.1262  0.3187
   36bbb     H7 1091   6.419  11.416   6.811  0.0636 -1.5279 -2.1824
   36bbb     H8 1092   6.562  11.442   6.931 -0.2359  0.2586  0.2496
   36bbb     C5 1093   6.886  11.595   6.647  0.3670  0.3712 -0.5570
   36bbb     H9 1094   6.899  11.490   6.676 -3.2570 -0.3468 -1.1320
   36bbb    H10 1095   6.945  11.653   6.719 -1.3478 -0.5925  1.6959
   36bbb     C6 1096   6.507  11.814   6.782  0.0951 -0.2549 -0.1622
   36bbb    H11 1097   6.417  11.867   6.749 -1.7883 -1.6474  2.3936
   36bbb    H12 1098   6.593  11.871   6.743  1.8170 -0.9881  2.2872
   36bbb     C7 1099   6.543  11.238   6.859 -0.3591 -0.1629 -0.5463
   36bbb    H13 1100   6.481  11.193   6.938 -0.5031 -1.7561 -1.5221
   36bbb    H14 1101   6.647  11.226   6.891 -0.2349  0.1325 -0.8302
   36bbb     C8 1102   6.498  11.815   6.932  0.2056 -0.3173 -0.2314
   36bbb    H15 1103   6.461  11.906   6.980 -1.3313 -0.7981 -0.4497
   36bbb    H16 1104   6.413  11.746   6.945  0.5780 -0.7716 -0.1591
   36bbb     C9 1105   6.947  11.599   6.501  0.3181  0.0172  0.8824
   36bbb    H17 1106   6.872  11.538   6.449 -1.9875  2.2737  1.3864
   36bbb    H18 1107   7.045  11.550   6.493 -0.7252 -1.9997 -0.5799
   36bbb     O1 1108   6.522  11.160   6.738 -0.1328 -0.0140 -0.1815
   36bbb    H19 1109   6.664  11.635   6.843  0.5130 -1.7315  0.4025
   37bbb     N1 1110   6.981  10.902   7.105 -0.2661  0.1015  0.0978
   37bbb     C1 1111   7.056  10.933   6.970 -0.3730 -0.3287  0.0749
   37bbb     H1 1112   7.162  10.951   6.987  0.3927 -4.5445  0.9490
   37bbb     H2 1113   7.001  11.024   6.945  1.4072  1.0001  0.7866
   37bbb     C2 1114   7.038  10.990   7.214  0.2038  0.0694  0.2255
   37bbb     H3 1115   6.963  11.002   7.292 -1.7658  0.8121 -1.6746
   37bbb     H4 1116   7.056  11.088   7.170  0.4734  0.0700  0.3356
   37bbb     C3 1117   6.835  10.931   7.077 -0.1236 -0.1292 -0.7727
   37bbb     H5 1118   6.808  10.896   6.977  2.0975 -0.9885 -1.1192
   37bbb     H6 1119   6.824  11.039   7.079  1.0307 -0.0123  0.6253
   37bbb     C4 1120   6.731  10.871   7.169  0.3937  0.0286 -0.2749
   37bbb     H7 1121   6.735  10.940   7.255  0.8607 -0.4916  0.1318
   37bbb     H8 1122   6.749  10.770   7.206 -0.3252 -0.0622 -0.1606
   37bbb     C5 1123   7.038  10.834   6.854 -0.3874  0.6119  0.2146
   37bbb     H9 1124   7.070  10.886   6.763 -1.7194  0.8479 -0.1430
   37bbb    H10 1125   6.930  10.819   6.840 -0.0955 -1.0859 -0.4371
   37bbb     C6 1126   7.180  10.952   7.259 -0.0045  0.1599  0.0152
   37bbb    H11 1127   7.237  11.044   7.276  1.5236 -0.2492 -2.4231
   37bbb    H12 1128   7.224  10.890   7.179 -1.2768  1.4204 -1.7349
   37bbb     C7 1129   6.596  10.854   7.095  0.2260  0.2997 -0.1908
   37bbb    H13 1130   6.541  10.948   7.079 -0.7225  0.1645  1.9304
   37bbb    H14 1131   6.529  10.785   7.148  0.0576 -0.4277 -1.3167
   37bbb     C8 1132   7.191  10.883   7.395  0.0300  0.1414 -0.3770
   37bbb    H15 1133   7.127  10.793   7.391 -2.2519  1.6021  1.1417
   37bbb    H16 1134   7.295  10.851   7.400  1.3149  3.6989 -1.2799
   37bbb     C9 1135   7.115  10.706   6.878 -0.1577  0.0140  0.2487
   37bbb    H17 1136   7.116  10.654   6.781 -1.8309 -1.3613  0.9073
   37bbb    H18 1137   7.061  10.639   6.946  1.3669 -0.1775  1.3312
   37bbb     O1 1138   6.615  10.777   6.970  0.2343 -0.5675  0.5831
   37bbb    H19 1139   6.995  10.801   7.118  0.0433  0.1056 -0.1918
   38bbb     N1 1140   5.567  10.974   9.089  0.8495 -0.1075  0.0829
   38bbb     C1 1141   5.565  11.119   9.133 -0.0604  0.3970 -0.2238
   38bbb     H1 1142   5.540  11.130   9.239  0.5723 -1.6361  0.1779
   38bbb     H2 1143   5.491  11.171   9.073  2.0852  3.0002 -0.8138
   38bbb     C2 1144   5.665  10.876   9.157 -0.1752  0.4616  0.0566
   38bbb     H3 1145   5.764  10.919   9.138  0.2796 -0.6887 -0.3096
   38bbb     H4 1146   5.652  10.777   9.111  0.6857 -0.0145  0.7927
   38bbb     C3 1147   5.427  10.911   9.093  0.6364 -0.4640  0.3977
   38bbb     H5 1148   5.400  10.911   9.198  0.3901 -2.8726  0.3911
   38bbb     H6 1149   5.430  10.806   9.061 -1.2460 -0.2895 -0.4906
   38bbb     C4 1150   5.319  10.995   9.025  0.8158  0.0649 -0.0598
   38bbb     H7 1151   5.329  10.984   8.916 -1.3442 -0.3828 -0.2541
   38bbb     H8 1152   5.322  11.103   9.043  1.2756  0.2384 -1.1142
   38bbb     C5 1153   5.696  11.185   9.106  0.1824 -0.1950 -0.0841
   38bbb     H9 1154   5.708  11.196   8.998 -2.4493 -0.0090 -0.4190
   38bbb    H10 1155   5.773  11.121   9.150  0.9817 -0.4889 -1.8551
   38bbb     C6 1156   5.646  10.855   9.313  0.1739  1.6172  0.4756
   38bbb    H11 1157   5.576  10.772   9.329  0.3928  1.3218 -0.1000
   38bbb    H12 1158   5.610  10.946   9.364 -2.4317  0.5852  0.6390
   38bbb     C7 1159   5.168  10.952   9.043 -0.0700 -0.0973 -0.2151
   38bbb    H13 1160   5.113  10.990   8.956  0.4956 -1.5723 -1.2537
   38bbb    H14 1161   5.135  10.984   9.142 -0.7407 -1.4720  0.0270
   38bbb     C8 1162   5.781  10.806   9.369 -0.4035  0.1902  0.1849
   38bbb    H15 1163   5.768  10.750   9.463  0.7250 -0.5478 -0.0748
   38bbb    H16 1164   5.820  10.739   9.292 -0.2011  1.0679 -0.4915
   38bbb     C9 1165   5.701  11.322   9.171 -0.6829 -0.1442  0.0410
   38bbb    H17 1166   5.613  11.379   9.137 -2.4183 -2.0880  1.0672
   38bbb    H18 1167   5.796  11.366   9.138  0.1022 -1.3299  0.6358
   38bbb     O1 1168   5.163  10.806   9.039  0.3905 -0.3801  0.0363
   38bbb    H19 1169   5.601  10.982   8.992  2.9328 -0.1584  0.7628
   39bbb     N1 1170   4.484  10.420   8.730 -0.1085 -0.3159  0.2894
   39bbb     C1 1171   4.341  10.396   8.698 -0.2827 -0.1546 -0.1699
   39bbb     H1 1172   4.297  10.479   8.754 -0.3958 -0.5193  0.2906
   39bbb     H2 1173   4.319  10.308   8.759  1.3642 -1.2009 -1.0346
   39bbb     C2 1174   4.510  10.457   8.872 -0.2965 -0.4205 -0.4349
   39bbb     H3 1175   4.490  10.368   8.932  1.1235 -0.8093 -0.4923
   39bbb     H4 1176   4.432  10.530   8.893  2.2695  2.4430 -0.1761
   39bbb     C3 1177   4.569  10.298   8.687 -0.1388  0.6467  0.6632
   39bbb     H5 1178   4.511  10.208   8.667 -0.1111  0.9439 -0.8966
   39bbb     H6 1179   4.641  10.279   8.768 -0.2951 -0.5554  0.5316
   39bbb     C4 1180   4.658  10.324   8.560 -0.6375  0.4149  0.4744
   39bbb     H7 1181   4.711  10.417   8.582  1.1763 -0.4126 -0.1505
   39bbb     H8 1182   4.601  10.338   8.468  0.9314  1.1460 -0.4357
   39bbb     C5 1183   4.292  10.386   8.557 -0.3391 -0.1381  0.8322
   39bbb     H9 1184   4.353  10.325   8.489 -0.3773  0.3355  0.3644
   39bbb    H10 1185   4.286  10.489   8.519  0.9287 -0.7598 -1.2566
   39bbb     C6 1186   4.648  10.510   8.915  0.4048 -0.8661 -0.1397
   39bbb    H11 1187   4.667  10.596   8.849 -0.2812  1.0621  2.0481
   39bbb    H12 1188   4.730  10.436   8.913  0.6235 -0.7235  1.8330
   39bbb     C7 1189   4.772  10.218   8.541 -0.1937 -0.2262 -0.8794
   39bbb    H13 1190   4.855  10.248   8.477  0.7452 -0.3223  0.2678
   39bbb    H14 1191   4.726  10.134   8.487 -3.0289  0.9689 -0.5282
   39bbb     C8 1192   4.641  10.554   9.065 -1.1851 -0.2522  0.0003
   39bbb    H15 1193   4.633  10.467   9.130  3.0593 -0.8606 -0.0418
   39bbb    H16 1194   4.735  10.602   9.093  0.4323 -3.1846 -0.0601
   39bbb     C9 1195   4.147  10.324   8.562 -0.2160  0.1346  0.0460
   39bbb    H17 1196   4.089  10.317   8.469 -0.6128  1.8165  0.1365
   39bbb    H18 1197   4.086  10.380   8.634  1.7651  1.5707  0.6953
   39bbb     O1 1198   4.819  10.178   8.671 -0.8837 -0.1118 -0.0213
   39bbb    H19 1199   4.515  10.500   8.672 -0.8981 -0.6938 -0.6856
   40bbb     N1 1200   6.655  10.091   9.071 -0.2625  0.0322  0.5045
   40bbb     C1 1201   6.648   9.954   9.006 -0.2661  0.1269 -0.3621
   40bbb     H1 1202   6.631   9.966   8.899  2.0713 -0.3982 -0.8389
   40bbb     H2 1203   6.565   9.903   9.055  0.5626  1.7277  2.9586
   40bbb     C2 1204   6.775  10.164   9.021  0.0696  0.4339  0.3511
   40bbb     H3 1205   6.754  10.226   8.933  1.5153  2.6577  1.4938
   40bbb     H4 1206   6.842  10.086   8.986 -0.0478 -0.1124  1.3025
   40bbb     C3 1207   6.523  10.157   9.050  0.2654  0.5348 -0.0687
   40bbb     H5 1208   6.447  10.086   9.084 -0.0850  0.2946 -1.3182
   40bbb     H6 1209   6.517  10.174   8.943 -1.2892 -0.1473 -0.1214
   40bbb     C4 1210   6.493  10.281   9.129  0.3293 -0.6990 -0.5480
   40bbb     H7 1211   6.566  10.363   9.128  0.0976 -0.4600  0.7466
   40bbb     H8 1212   6.499  10.250   9.235 -0.3851  1.4660  0.1724
   40bbb     C5 1213   6.761   9.862   9.038  0.0803 -0.3370  0.1724
   40bbb     H9 1214   6.800   9.884   9.138  1.1681  2.0100 -0.6959
   40bbb    H10 1215   6.842   9.888   8.969  0.1308 -0.5427  0.1539
   40bbb     C6 1216   6.840  10.253   9.121  0.3581  0.5549  0.2389
   40bbb    H11 1217   6.775  10.326   9.170  1.2022 -0.1569  2.6053
   40bbb    H12 1218   6.911  10.315   9.064  2.1830 -0.3229  1.4418
   40bbb     C7 1219   6.364  10.348   9.090  0.2040  0.5086 -0.1986
   40bbb    H13 1220   6.362  10.441   9.149 -2.0218  0.4988 -0.2096
   40bbb    H14 1221   6.282  10.279   9.110  0.0444  0.3285 -1.3589
   40bbb     C8 1222   6.912  10.179   9.233 -0.0053 -0.2892  0.2220
   40bbb    H15 1223   6.991  10.122   9.184  1.0632  1.6490 -0.3952
   40bbb    H16 1224   6.958  10.244   9.307  0.2949 -0.9473  0.6271
   40bbb     C9 1225   6.713   9.709   9.027 -0.1078 -0.4123  0.2306
   40bbb    H17 1226   6.661   9.701   8.931  2.5764 -0.8584 -1.3025
   40bbb    H18 1227   6.642   9.690   9.109  0.1138 -2.3795  0.0247
   40bbb     O1 1228   6.387  10.386   8.953  0.3480  0.1729 -0.0085
   40bbb    H19 1229   6.675  10.090   9.173  0.6169 -0.1906  0.3456
   41bbb     N1 1230   6.680  11.235   8.722 -0.0275  0.2368  0.4536
   41bbb     C1 1231   6.638  11.310   8.849 -0.0208 -0.0429  0.3541
   41bbb     H1 1232   6.726  11.307   8.914  0.4957 -2.9645 -0.3288
   41bbb     H2 1233   6.560  11.248   8.893  2.5088 -2.9525  1.1381
   41bbb     C2 1234   6.771  11.117   8.760  0.0096 -0.2533 -0.6352
   41bbb     H3 1235   6.776  11.044   8.679  0.5364  0.6816 -1.4647
   41bbb     H4 1236   6.737  11.068   8.851  0.6911  1.0655  0.3637
   41bbb     C3 1237   6.553  11.183   8.654 -0.1298 -0.0143 -1.3257
   41bbb     H5 1238   6.491  11.272   8.658 -0.9809 -0.6346  1.2187
   41bbb     H6 1239   6.511  11.101   8.712 -2.3232 -1.0504 -4.1469
   41bbb     C4 1240   6.574  11.143   8.506  0.1744  0.0441 -0.0642
   41bbb     H7 1241   6.634  11.052   8.499 -0.5671 -0.5585  1.0353
   41bbb     H8 1242   6.624  11.222   8.449 -2.9407  0.7586 -2.0983
   41bbb     C5 1243   6.597  11.452   8.829  0.5032  0.4281 -0.8454
   41bbb     H9 1244   6.550  11.495   8.918 -2.1350  0.1315 -1.9807
   41bbb    H10 1245   6.517  11.451   8.753 -0.6591  0.5324  0.3367
   41bbb     C6 1246   6.920  11.154   8.781  0.4795 -0.9036  0.3323
   41bbb    H11 1247   6.983  11.075   8.824  1.3070  0.1814  1.1733
   41bbb    H12 1248   6.920  11.233   8.858 -0.2158 -1.7654  1.2442
   41bbb     C7 1249   6.436  11.126   8.434  0.1599  0.8487  1.0985
   41bbb    H13 1250   6.463  11.141   8.329 -0.0424 -2.1526  0.5364
   41bbb    H14 1251   6.372  11.211   8.461  1.0049  1.9952 -0.3695
   41bbb     C8 1252   6.980  11.200   8.646 -0.2467 -0.0834  0.4010
   41bbb    H15 1253   7.081  11.238   8.665 -0.2138  1.8284 -2.7617
   41bbb    H16 1254   6.994  11.116   8.578 -1.5423 -0.2612  0.3419
   41bbb     C9 1255   6.712  11.544   8.781 -0.4547  0.0874  0.3096
   41bbb    H17 1256   6.672  11.641   8.750 -1.0474 -0.0170  0.7309
   41bbb    H18 1257   6.758  11.497   8.694 -0.8056  0.2753  0.0216
   41bbb     O1 1258   6.388  10.987   8.451  0.0933 -0.9959  0.0572
   41bbb    H19 1259   6.726  11.301   8.657 -0.8168 -0.0197 -0.3815
   42bbb     N1 1260   3.083  11.686   7.704 -0.4804 -0.5328  0.0663
   42bbb     C1 1261   3.057  11.797   7.804 -0.2175 -0.4285  0.1520
   42bbb     H1 1262   3.128  11.876   7.778  0.9883 -1.8568 -1.0834
   42bbb     H2 1263   3.089  11.754   7.899  3.1239  0.4609 -0.4289
   42bbb     C2 1264   3.019  11.556   7.744 -0.8797  0.5722 -0.5690
   42bbb     H3 1265   2.912  11.572   7.759 -0.8528  1.4764 -1.2731
   42bbb     H4 1266   3.062  11.541   7.843 -0.1112 -0.0954 -0.9950
   42bbb     C3 1267   3.034  11.728   7.560 -0.3444 -0.7946  0.2384
   42bbb     H5 1268   2.940  11.784   7.558 -0.8544 -1.6534 -1.6532
   42bbb     H6 1269   3.010  11.634   7.510 -0.4631 -0.6326 -0.0121
   42bbb     C4 1270   3.128  11.809   7.473 -0.0641 -0.5960  0.6677
   42bbb     H7 1271   3.149  11.908   7.515 -0.1965 -0.6526  0.8697
   42bbb     H8 1272   3.085  11.816   7.372  0.0838 -1.4278  0.5334
   42bbb     C5 1273   2.912  11.861   7.817  0.0396  0.5473 -0.4248
   42bbb     H9 1274   2.844  11.779   7.847  1.4883  0.3267  2.5775
   42bbb    H10 1275   2.877  11.896   7.720  2.1813 -0.5496 -1.6707
   42bbb     C6 1276   3.058  11.438   7.651  0.0409  0.2129 -0.0354
   42bbb    H11 1277   3.162  11.455   7.621 -0.0401  2.4852  0.7597
   42bbb    H12 1278   3.007  11.434   7.554  1.8562 -1.5437 -0.9801
   42bbb     C7 1279   3.263  11.738   7.451 -0.1638 -0.1253 -0.9208
   42bbb    H13 1280   3.316  11.785   7.368 -0.8532 -1.0029 -1.8778
   42bbb    H14 1281   3.233  11.636   7.422  0.0981 -0.9711  1.5496
   42bbb     C8 1282   3.031  11.303   7.707 -0.2861 -0.1374 -0.1697
   42bbb    H15 1283   3.071  11.234   7.632 -0.3281 -0.5851  0.2133
   42bbb    H16 1284   3.101  11.282   7.790  1.4365 -2.6556 -2.0876
   42bbb     C9 1285   2.912  11.966   7.926  0.9713  0.2947  0.2299
   42bbb    H17 1286   2.962  11.938   8.020 -1.0954 -0.0968  1.2675
   42bbb    H18 1287   2.805  11.979   7.945  0.4459 -3.7541  0.8870
   42bbb     O1 1288   3.341  11.725   7.567  0.3366  0.5866  0.4702
   42bbb    H19 1289   3.185  11.675   7.707 -0.3061  0.9890  1.0557
   43bbb     N1 1290   4.104  11.933   8.254 -0.4438 -0.4257  0.5503
   43bbb     C1 1291   4.118  11.981   8.391  0.0643 -0.4626  0.4765
   43bbb     H1 1292   4.226  11.998   8.392 -0.2844  2.5681 -1.2057
   43bbb     H2 1293   4.084  11.904   8.461 -1.9451  0.5628  0.6837
   43bbb     C2 1294   4.236  11.853   8.218  0.7834 -0.3329  0.0495
   43bbb     H3 1295   4.257  11.807   8.314 -2.6344  0.6672  1.4213
   43bbb     H4 1296   4.317  11.921   8.189  0.3335  0.9677  1.6750
   43bbb     C3 1297   3.978  11.835   8.252  0.0589  0.1731  0.4155
   43bbb     H5 1298   3.985  11.762   8.333  0.4112 -0.5053 -0.2132
   43bbb     H6 1299   3.987  11.767   8.167 -0.8407 -1.1960  1.3715
   43bbb     C4 1300   3.836  11.890   8.243 -0.2054  0.1702 -0.2396
   43bbb     H7 1301   3.833  11.958   8.158 -0.6886 -0.2076 -0.5343
   43bbb     H8 1302   3.804  11.944   8.333 -0.7495 -0.3634 -0.1061
   43bbb     C5 1303   4.052  12.119   8.435  0.3713 -0.1527  0.2725
   43bbb     H9 1304   4.087  12.129   8.539 -0.8165  0.6188  0.6139
   43bbb    H10 1305   3.943  12.105   8.429  0.5513 -1.1982 -3.8329
   43bbb     C6 1306   4.239  11.743   8.111 -0.2411  0.3842  0.3216
   43bbb    H11 1307   4.171  11.659   8.127  2.2465 -1.3714  2.5332
   43bbb    H12 1308   4.335  11.689   8.109 -0.3995  0.1012 -0.8663
   43bbb     C7 1309   3.743  11.767   8.214 -0.0669  0.0003  0.0355
   43bbb    H13 1310   3.643  11.810   8.199 -0.5147  0.4050  3.3518
   43bbb    H14 1311   3.735  11.709   8.307 -1.6288 -1.1482 -0.7602
   43bbb     C8 1312   4.209  11.799   7.974 -0.4075 -0.5677 -0.0310
   43bbb    H15 1313   4.246  11.729   7.898  0.9472  0.0913 -0.0205
   43bbb    H16 1314   4.102  11.813   7.956 -0.2845  0.3098 -0.1073
   43bbb     C9 1315   4.092  12.245   8.353  0.3393 -0.6207 -0.2309
   43bbb    H17 1316   4.196  12.277   8.365 -0.0494  0.0943  1.4692
   43bbb    H18 1317   4.038  12.325   8.405  1.9759 -1.7085  3.4896
   43bbb     O1 1318   3.789  11.694   8.098 -0.6194 -0.3028  0.2581
   43bbb    H19 1319   4.092  12.007   8.183 -2.1306  0.3583  1.5888
   44bbb     N1 1320   2.840  10.847   7.188 -0.3900  0.6288 -0.1763
   44bbb     C1 1321   2.914  10.975   7.222  0.4060  0.1085  0.2002
   44bbb     H1 1322   2.857  11.060   7.185 -0.0175 -0.2113  0.1157
   44bbb     H2 1323   3.004  10.967   7.161 -0.5495  0.2241 -1.2565
   44bbb     C2 1324   2.698  10.867   7.162 -0.0148 -0.1408 -0.2364
   44bbb     H3 1325   2.657  10.776   7.118  1.4511 -0.1800 -1.5917
   44bbb     H4 1326   2.698  10.949   7.091  1.0939  0.9556  0.9678
   44bbb     C3 1327   2.911  10.790   7.071 -0.9642 -0.0398  0.9620
   44bbb     H5 1328   2.878  10.687   7.059 -0.3616 -0.1501  0.1301
   44bbb     H6 1329   3.012  10.773   7.108 -0.6400  0.7714  0.4853
   44bbb     C4 1330   2.900  10.854   6.921 -0.6011  0.5061 -0.6512
   44bbb     H7 1331   2.926  10.960   6.928 -0.2013  0.3452  0.5095
   44bbb     H8 1332   2.793  10.852   6.895 -0.2530  1.8822 -2.2998
   44bbb     C5 1333   2.943  10.991   7.371  0.3267 -0.1954 -0.1985
   44bbb     H9 1334   2.847  11.004   7.423  0.1753 -1.2086 -0.2160
   44bbb    H10 1335   2.998  11.083   7.397 -2.9381  2.5199 -2.0627
   44bbb     C6 1336   2.610  10.904   7.280  0.1710 -0.6703 -0.1475
   44bbb    H11 1337   2.649  11.000   7.316 -0.5000 -0.2866 -0.4231
   44bbb    H12 1338   2.618  10.837   7.366  0.5161  1.5396  1.6529
   44bbb     C7 1339   2.978  10.780   6.808  0.7245  0.4195  0.2297
   44bbb    H13 1340   2.965  10.830   6.711 -0.5885 -0.9947 -0.3729
   44bbb    H14 1341   2.932  10.680   6.810 -1.7858  1.3835 -2.2967
   44bbb     C8 1342   2.468  10.922   7.235  0.2097  1.0496 -0.2595
   44bbb    H15 1343   2.408  10.962   7.318 -0.5538 -0.7888  0.1276
   44bbb    H16 1344   2.464  10.984   7.145 -1.0314 -0.6496 -1.4363
   44bbb     C9 1345   3.014  10.861   7.429 -0.1724 -0.5131 -0.0895
   44bbb    H17 1346   3.068  10.891   7.519  0.1951 -0.7949 -0.2123
   44bbb    H18 1347   3.088  10.819   7.360  1.5926 -0.5360  1.7385
   44bbb     O1 1348   3.118  10.778   6.836  0.2524  0.5679  0.5713
   44bbb    H19 1349   2.844  10.784   7.269 -1.4933  0.8085  0.0351
   45bbb     N1 1350   3.598  11.184   6.505  0.4460  0.4754  0.2743
   45bbb     C1 1351   3.448  11.125   6.495 -0.6860 -1.0057  0.2172
   45bbb     H1 1352   3.424  11.126   6.389  2.3026  0.4959 -0.5610
   45bbb     H2 1353   3.379  11.195   6.542  0.5197 -0.4551  1.2234
   45bbb     C2 1354   3.620  11.319   6.436  0.2505 -0.1470 -0.2187
   45bbb     H3 1355   3.728  11.322   6.422  0.5436 -1.6086  1.3524
   45bbb     H4 1356   3.572  11.397   6.494 -3.1359  0.3421 -3.2872
   45bbb     C3 1357   3.621  11.210   6.653  0.4276  0.6043 -0.0538
   45bbb     H5 1358   3.713  11.267   6.662  0.1752  1.1626 -0.9423
   45bbb     H6 1359   3.640  11.110   6.692  1.7852  0.1303 -1.7888
   45bbb     C4 1360   3.518  11.285   6.738 -0.4942  0.1746 -0.3692
   45bbb     H7 1361   3.421  11.237   6.724 -0.4525  0.4135 -1.4907
   45bbb     H8 1362   3.492  11.380   6.690  1.3207  0.7572 -0.2936
   45bbb     C5 1363   3.431  10.985   6.547 -0.8474 -0.2116  0.6928
   45bbb     H9 1364   3.337  10.944   6.509 -0.2675  0.8596 -2.1331
   45bbb    H10 1365   3.429  10.997   6.656 -2.3261  3.9898  0.3788
   45bbb     C6 1366   3.557  11.326   6.291 -0.1350 -0.0579  0.1043
   45bbb    H11 1367   3.447  11.319   6.299 -0.6376  0.4218 -4.1160
   45bbb    H12 1368   3.585  11.234   6.238  0.0635  0.4838 -0.7628
   45bbb     C7 1369   3.530  11.278   6.891  0.2543  0.0070 -0.1222
   45bbb    H13 1370   3.457  11.344   6.939 -0.5499 -1.0153  0.0837
   45bbb    H14 1371   3.634  11.314   6.902  0.3631  0.1192 -1.4000
   45bbb     C8 1372   3.620  11.448   6.213  0.2329 -0.3054 -0.2308
   45bbb    H15 1373   3.611  11.546   6.263  0.2731  1.8657 -4.0885
   45bbb    H16 1374   3.729  11.439   6.199  0.1933 -0.4487 -0.4454
   45bbb     C9 1375   3.545  10.891   6.501  0.0038 -0.4631  0.4813
   45bbb    H17 1376   3.537  10.790   6.543  1.0804  0.1850  2.3772
   45bbb    H18 1377   3.634  10.933   6.550  0.6785 -0.7482 -0.4628
   45bbb     O1 1378   3.533  11.143   6.938 -0.1424  0.6831  0.2582
   45bbb    H19 1379   3.668  11.112   6.480  1.7643  1.7517  0.1685
   46bbb     N1 1380   5.963   7.180   5.159 -0.1338 -0.0189 -0.1194
   46bbb     C1 1381   6.051   7.061   5.182 -0.4355 -0.4072 -0.0535
   46bbb     H1 1382   6.011   7.015   5.273 -1.2008  0.5709  0.1208
   46bbb     H2 1383   6.152   7.097   5.204 -1.3601  1.9770  0.5351
   46bbb     C2 1384   5.818   7.135   5.127  0.8948 -0.1964 -0.2516
   46bbb     H3 1385   5.763   7.103   5.215 -2.2553 -0.1336 -2.0570
   46bbb     H4 1386   5.829   7.046   5.066 -0.9604  0.0042 -0.9297
   46bbb     C3 1387   5.961   7.267   5.285 -0.1652  0.7353 -0.3363
   46bbb     H5 1388   5.911   7.212   5.365  0.6331 -0.0150 -0.3315
   46bbb     H6 1389   5.903   7.358   5.270 -0.0947  0.9120  0.4139
   46bbb     C4 1390   6.101   7.307   5.337 -0.0660  0.1340  0.6101
   46bbb     H7 1391   6.160   7.348   5.254 -0.3851 -1.3670 -0.4057
   46bbb     H8 1392   6.150   7.218   5.378  0.4553 -0.2566 -0.8104
   46bbb     C5 1393   6.060   6.962   5.066  0.0539  0.1601  0.0281
   46bbb     H9 1394   5.965   6.910   5.045  0.1145  0.3291 -0.6694
   46bbb    H10 1395   6.120   6.879   5.106 -1.6160 -1.3697 -0.5069
   46bbb     C6 1396   5.727   7.244   5.057 -0.3370  0.3175  0.0167
   46bbb    H11 1397   5.747   7.337   5.111  2.7882 -0.9793  1.3094
   46bbb    H12 1398   5.625   7.207   5.072 -0.5027  0.3557 -0.9491
   46bbb     C7 1399   6.093   7.407   5.451  0.6052  0.1602  0.0160
   46bbb    H13 1400   6.038   7.496   5.418  2.8100  0.9571 -1.8068
   46bbb    H14 1401   6.197   7.435   5.472  0.6105  1.1282 -1.1744
   46bbb     C8 1402   5.773   7.265   4.914  0.0121 -0.0863  0.0219
   46bbb    H15 1403   5.709   7.343   4.873 -0.3429 -0.1971  0.3578
   46bbb    H16 1404   5.875   7.307   4.919  0.3350 -0.8635  0.1533
   46bbb     C9 1405   6.120   7.023   4.930  0.9095  1.1270  0.2751
   46bbb    H17 1406   6.047   7.041   4.850  0.5555  0.3168  0.4083
   46bbb    H18 1407   6.180   6.943   4.885  0.1725 -0.4890  2.0335
   46bbb     O1 1408   6.019   7.355   5.556  0.4362  0.0947 -0.7398
   46bbb    H19 1409   6.003   7.243   5.088  0.4620  1.5198  1.4948
   47bbb     N1 1410   6.270   6.876   5.816 -0.1121  0.3150  0.8091
   47bbb     C1 1411   6.343   6.743   5.786 -0.2019 -0.5655  0.0003
   47bbb     H1 1412   6.345   6.681   5.876  2.4080 -1.5948 -0.6666
   47bbb     H2 1413   6.443   6.780   5.761  0.8016 -3.2413 -0.2837
   47bbb     C2 1414   6.310   6.974   5.715 -0.0470  0.3851  0.3799
   47bbb     H3 1415   6.268   6.938   5.621  0.7445 -0.9201  0.5035
   47bbb     H4 1416   6.419   6.961   5.711 -0.2313 -0.7928 -1.9977
   47bbb     C3 1417   6.119   6.867   5.812 -0.1834 -0.3502  0.0011
   47bbb     H5 1418   6.085   6.824   5.718 -1.2059 -1.2095  0.7471
   47bbb     H6 1419   6.090   6.972   5.824 -1.1425 -0.7649  1.6756
   47bbb     C4 1420   6.052   6.784   5.925 -0.0980  0.1437  0.3604
   47bbb     H7 1421   6.097   6.804   6.023 -1.4056  0.5071  0.9061
   47bbb     H8 1422   6.077   6.681   5.896  1.6633  0.6525 -0.0594
   47bbb     C5 1423   6.294   6.656   5.667  0.2344 -0.0616  0.0981
   47bbb     H9 1424   6.284   6.729   5.586  0.6965 -0.9096 -0.7418
   47bbb    H10 1425   6.191   6.627   5.693  0.2061 -0.1147 -0.0724
   47bbb     C6 1426   6.271   7.114   5.739  0.0146 -0.5903  0.2309
   47bbb    H11 1427   6.162   7.129   5.732 -0.0694 -0.8035  1.0088
   47bbb    H12 1428   6.312   7.166   5.652 -0.7241 -1.2231 -0.5145
   47bbb     C7 1429   5.904   6.802   5.947 -0.2366 -0.6032 -0.0830
   47bbb    H13 1430   5.861   6.743   6.029 -0.1571  1.4180  1.4896
   47bbb    H14 1431   5.853   6.775   5.853 -1.6939  2.4323 -0.2911
   47bbb     C8 1432   6.323   7.184   5.861  0.3720  0.2854  0.0440
   47bbb    H15 1433   6.257   7.270   5.873 -2.5399 -1.6980 -0.6517
   47bbb    H16 1434   6.300   7.122   5.949 -1.7986  0.4660 -0.3355
   47bbb     C9 1435   6.387   6.540   5.624  0.5222 -0.1587  0.1539
   47bbb    H17 1436   6.486   6.586   5.614 -0.2576  1.3795 -0.7519
   47bbb    H18 1437   6.355   6.492   5.531 -0.3315 -1.3859  1.0462
   47bbb     O1 1438   5.886   6.938   5.970 -0.3539  0.1932 -0.7753
   47bbb    H19 1439   6.311   6.914   5.902 -1.6910  1.0391  1.2900
   48bbb     N1 1440   6.299   7.854   6.931 -0.7943 -0.1964 -0.0598
   48bbb     C1 1441   6.255   7.980   6.863  0.5646 -0.2480  0.3638
   48bbb     H1 1442   6.337   8.052   6.868 -0.2783  0.7552  0.3432
   48bbb     H2 1443   6.163   8.020   6.907  0.0286 -0.9397 -0.1049
   48bbb     C2 1444   6.392   7.910   7.044  0.2107 -0.1534 -0.1506
   48bbb     H3 1445   6.396   7.848   7.133  0.4114  0.0740  0.0001
   48bbb     H4 1446   6.348   8.007   7.067  2.4677  1.2835 -1.4430
   48bbb     C3 1447   6.183   7.772   6.967  0.2370 -0.0006  0.1013
   48bbb     H5 1448   6.147   7.730   6.873 -0.6733 -0.4423  0.6276
   48bbb     H6 1449   6.097   7.829   7.005 -0.8686 -1.1794 -0.5622
   48bbb     C4 1450   6.211   7.652   7.057  0.1530 -0.7348 -0.5319
   48bbb     H7 1451   6.132   7.575   7.058  2.3417 -3.1444 -1.6455
   48bbb     H8 1452   6.220   7.684   7.161 -2.3230 -0.3315 -0.3687
   48bbb     C5 1453   6.219   7.960   6.722  0.5925 -0.4225 -0.1937
   48bbb     H9 1454   6.145   7.880   6.707  1.6829 -1.5738  0.3571
   48bbb    H10 1455   6.309   7.927   6.669 -0.0235 -2.9788  0.2138
   48bbb     C6 1456   6.540   7.934   7.001  0.1441  0.8150 -0.2849
   48bbb    H11 1457   6.593   7.995   7.075  1.2366 -0.7799  0.2874
   48bbb    H12 1458   6.552   7.984   6.904  2.3562 -1.1526 -1.1250
   48bbb     C7 1459   6.333   7.574   7.008  0.1616  0.5157  0.0093
   48bbb    H13 1460   6.361   7.506   7.089 -3.1257  1.8985  2.5509
   48bbb    H14 1461   6.421   7.637   6.991 -0.2457  0.6108 -1.9940
   48bbb     C8 1462   6.623   7.802   6.996 -0.2751 -0.0169 -0.4916
   48bbb    H15 1463   6.631   7.768   7.100  2.3457  2.6779  0.3372
   48bbb    H16 1464   6.580   7.736   6.920  1.9211 -0.7947 -1.1378
   48bbb     C9 1465   6.139   8.083   6.661 -0.4182  0.0810  0.5318
   48bbb    H17 1466   6.052   8.114   6.721 -0.4231  1.7020 -0.2897
   48bbb    H18 1467   6.094   8.070   6.562 -0.2443 -0.7954  0.5573
   48bbb     O1 1468   6.297   7.513   6.885 -0.3892 -0.4225 -0.2499
   48bbb    H19 1469   6.360   7.800   6.869  0.4775 -0.1406  1.0898
   49bbb     N1 1470   6.092   6.563   6.853 -0.0359 -0.9980  0.6247
   49bbb     C1 1471   6.190   6.592   6.749  0.0308 -0.0798  0.7241
   49bbb     H1 1472   6.178   6.507   6.680 -0.3839  0.5028  0.0627
   49bbb     H2 1473   6.291   6.591   6.788  1.0628  1.5510 -1.6800
   49bbb     C2 1474   6.085   6.421   6.903  0.3678  0.0936  0.1487
   49bbb     H3 1475   6.057   6.422   7.009 -0.9743 -0.0522 -0.1867
   49bbb     H4 1476   6.183   6.375   6.897  1.4180  1.8579  2.0665
   49bbb     C3 1477   6.110   6.668   6.965 -0.2035  0.6314  0.2675
   49bbb     H5 1478   6.021   6.659   7.027 -1.3163  0.5019 -1.2990
   49bbb     H6 1479   6.113   6.765   6.915 -1.1142 -0.3200 -1.7499
   49bbb     C4 1480   6.237   6.659   7.046  0.2076 -0.1982 -0.0450
   49bbb     H7 1481   6.320   6.664   6.975  0.3080  1.1388  0.1471
   49bbb     H8 1482   6.239   6.566   7.104 -0.4100 -0.4729 -0.4393
   49bbb     C5 1483   6.169   6.725   6.664  0.1395 -0.1578 -0.2800
   49bbb     H9 1484   6.257   6.749   6.602  1.7111 -0.1902  1.8239
   49bbb    H10 1485   6.140   6.811   6.724 -1.3549  0.8327 -2.3106
   49bbb     C6 1486   5.973   6.340   6.850 -0.4450  0.6728 -0.3707
   49bbb    H11 1487   5.981   6.337   6.740 -1.1922 -0.7293 -0.4097
   49bbb    H12 1488   5.878   6.388   6.878 -0.4224  1.6665 -1.9036
   49bbb     C7 1489   6.248   6.785   7.142 -0.5185  0.6510  0.4481
   49bbb    H13 1490   6.335   6.775   7.208 -0.6963  1.6416  0.8411
   49bbb    H14 1491   6.155   6.792   7.199 -2.4440 -1.2840 -2.1421
   49bbb     C8 1492   5.971   6.190   6.914  0.0758  0.0454  0.3504
   49bbb    H15 1493   5.872   6.151   6.885  0.0441 -0.5976  1.2973
   49bbb    H16 1494   6.049   6.128   6.869 -1.8192 -2.2707  0.0443
   49bbb     C9 1495   6.058   6.693   6.563  0.0916 -0.4981  0.9077
   49bbb    H17 1496   6.081   6.600   6.509 -0.2381 -0.7337  1.1662
   49bbb    H18 1497   6.049   6.773   6.489 -0.5083  0.1877  1.7123
   49bbb     O1 1498   6.267   6.901   7.055 -0.0604 -0.0244 -0.0633
   49bbb    H19 1499   6.003   6.586   6.806  1.3332  0.8819 -1.2617
   50bbb     N1 1500   3.874   8.761   5.306  0.2310  0.4595 -0.3128
   50bbb     C1 1501   3.892   8.770   5.151 -0.3162  0.7071  0.8128
   50bbb     H1 1502   3.924   8.672   5.115 -1.6224  0.1622  1.1038
   50bbb     H2 1503   3.968   8.844   5.128 -2.0016  2.2406 -0.1062
   50bbb     C2 1504   3.780   8.864   5.357 -0.5242  0.3285 -0.5526
   50bbb     H3 1505   3.681   8.827   5.331  0.7042 -2.9322 -1.1230
   50bbb     H4 1506   3.795   8.959   5.305  1.9628  0.1495 -0.3200
   50bbb     C3 1507   3.812   8.626   5.337 -0.8022 -0.1503 -0.0117
   50bbb     H5 1508   3.744   8.606   5.255  1.6012 -1.1760 -1.8868
   50bbb     H6 1509   3.760   8.647   5.430  1.5772  0.6359  1.2285
   50bbb     C4 1510   3.911   8.508   5.359  0.6335 -0.0265  0.2520
   50bbb     H7 1511   3.998   8.551   5.410  0.4754  1.3159 -0.5458
   50bbb     H8 1512   3.945   8.472   5.262  1.1151  1.0744 -0.0095
   50bbb     C5 1513   3.767   8.808   5.070  0.2030  0.3933  0.3184
   50bbb     H9 1514   3.742   8.912   5.096 -1.6141 -0.4075  2.0896
   50bbb    H10 1515   3.682   8.745   5.100  0.9430 -0.1479  1.3708
   50bbb     C6 1516   3.802   8.895   5.510 -0.8397 -0.1267  0.5865
   50bbb    H11 1517   3.897   8.949   5.523  0.7030 -1.9909 -1.9179
   50bbb    H12 1518   3.802   8.805   5.574  1.8666 -1.2270 -0.7967
   50bbb     C7 1519   3.843   8.394   5.440  0.7276  0.5783 -0.2488
   50bbb    H13 1520   3.915   8.327   5.490  0.9831  1.7501  1.0205
   50bbb    H14 1521   3.783   8.336   5.368 -0.9970  1.1143  0.7030
   50bbb     C8 1522   3.689   8.977   5.557  0.2076 -0.0181 -0.3981
   50bbb    H15 1523   3.595   8.941   5.512  0.2537 -1.4068  0.5615
   50bbb    H16 1524   3.684   8.966   5.666 -1.3302 -0.8193 -0.5320
   50bbb     C9 1525   3.793   8.787   4.921  0.3781 -0.3800  0.3933
   50bbb    H17 1526   3.887   8.837   4.892 -0.8425  1.7478 -0.0662
   50bbb    H18 1527   3.707   8.828   4.866  1.6704 -1.2504 -2.5172
   50bbb     O1 1528   3.747   8.445   5.541  0.0967  0.1188 -0.2401
   50bbb    H19 1529   3.967   8.779   5.347  0.6477  1.6790 -1.6977
   51bbb     N1 1530   3.524   8.716   6.437 -0.8150 -0.2273  0.8302
   51bbb     C1 1531   3.516   8.864   6.459  0.3689  0.0691 -0.3809
   51bbb     H1 1532   3.553   8.912   6.369  1.0048 -0.3648 -0.3528
   51bbb     H2 1533   3.583   8.891   6.541  0.6198  1.0461 -0.8990
   51bbb     C2 1534   3.420   8.676   6.330  0.3421  0.2396  0.1697
   51bbb     H3 1535   3.320   8.696   6.371 -0.3115 -0.1297 -1.2097
   51bbb     H4 1536   3.422   8.567   6.322  1.1476  0.2237  0.4916
   51bbb     C3 1537   3.653   8.674   6.389  0.2843  0.4943  0.5078
   51bbb     H5 1538   3.722   8.715   6.462  1.3603 -1.3569  0.5967
   51bbb     H6 1539   3.680   8.727   6.297  2.1245  0.1864  0.8365
   51bbb     C4 1540   3.680   8.520   6.379 -0.0236 -0.1229  0.4893
   51bbb     H7 1541   3.623   8.471   6.300  1.8194  1.1894 -1.7744
   51bbb     H8 1542   3.642   8.485   6.476  0.5718  1.3029  1.2695
   51bbb     C5 1543   3.375   8.917   6.499  0.0301  0.5743 -0.1439
   51bbb     H9 1544   3.347   8.882   6.600 -1.2839  1.1032 -0.2995
   51bbb    H10 1545   3.304   8.879   6.424 -0.8348 -0.8469  1.3308
   51bbb     C6 1546   3.420   8.734   6.188  0.2912  0.1876 -0.3906
   51bbb    H11 1547   3.520   8.711   6.150 -0.7221 -1.7303 -2.1538
   51bbb    H12 1548   3.411   8.843   6.190 -0.2335  0.1389  0.5120
   51bbb     C7 1549   3.825   8.484   6.358 -0.3393  0.4865 -0.5394
   51bbb    H13 1550   3.833   8.378   6.330  1.6692  0.5088 -0.1912
   51bbb    H14 1551   3.880   8.494   6.453 -0.9231 -0.8235 -0.0349
   51bbb     C8 1552   3.306   8.666   6.106  0.2647 -0.2963  0.3073
   51bbb    H15 1553   3.314   8.557   6.103 -1.0784 -0.4577  1.6250
   51bbb    H16 1554   3.211   8.672   6.159  0.9464 -2.0669  1.8483
   51bbb     C9 1555   3.384   9.066   6.494  0.0111 -0.5375 -0.4269
   51bbb    H17 1556   3.447   9.090   6.407 -1.1808  1.0205 -0.9056
   51bbb    H18 1557   3.439   9.102   6.582  0.2847 -0.8131 -0.4836
   51bbb     O1 1558   3.893   8.563   6.253  0.5102  0.5076 -0.7420
   51bbb    H19 1559   3.509   8.666   6.526  0.5825 -0.3250  1.0397
   52bbb     N1 1560   3.842   7.226   5.937 -0.1513  1.1224  0.1099
   52bbb     C1 1561   3.907   7.106   5.870 -0.4123 -0.0481 -0.7659
   52bbb     H1 1562   3.885   7.121   5.764  0.4824  2.8803 -0.6116
   52bbb     H2 1563   3.858   7.017   5.911 -0.5417  0.6484  0.6483
   52bbb     C2 1564   3.844   7.204   6.086  0.1452 -0.4530 -0.1507
   52bbb     H3 1565   3.775   7.278   6.126  1.0746 -0.3694  1.3518
   52bbb     H4 1566   3.945   7.216   6.126  0.8111 -1.6854 -1.3233
   52bbb     C3 1567   3.911   7.353   5.899  0.4478  0.2791 -0.4053
   52bbb     H5 1568   3.881   7.370   5.796 -2.7831  0.3445  0.4559
   52bbb     H6 1569   4.020   7.349   5.902  0.4199 -0.1711  0.6489
   52bbb     C4 1570   3.861   7.480   5.968  0.0344 -0.7447 -0.6754
   52bbb     H7 1571   3.920   7.488   6.060  0.5158 -0.4679 -1.0076
   52bbb     H8 1572   3.758   7.476   6.006  0.5736  2.2916  1.3955
   52bbb     C5 1573   4.060   7.079   5.884 -0.0954 -0.0566 -1.0763
   52bbb     H9 1574   4.080   7.066   5.991  1.3986 -4.0246 -1.6835
   52bbb    H10 1575   4.129   7.155   5.844  1.3661 -1.0178 -0.4818
   52bbb     C6 1576   3.789   7.066   6.153 -0.5098  0.2692 -0.0667
   52bbb    H11 1577   3.803   7.070   6.262  1.8082 -0.6244 -0.2804
   52bbb    H12 1578   3.852   6.981   6.125  0.0602  1.7454 -3.8054
   52bbb     C7 1579   3.880   7.609   5.894 -0.1681  0.0978  0.2606
   52bbb    H13 1580   3.866   7.694   5.962 -3.1528 -0.5598  0.6016
   52bbb    H14 1581   3.798   7.612   5.820 -0.2848 -1.6539  0.2766
   52bbb     C8 1582   3.645   7.042   6.120  0.2983  0.0224  0.1740
   52bbb    H15 1583   3.605   6.963   6.185 -2.4365 -1.0786 -2.6133
   52bbb    H16 1584   3.589   7.135   6.137  0.6643  0.0487  1.3490
   52bbb     C9 1585   4.112   6.958   5.810  0.9460 -0.1065  0.3897
   52bbb    H17 1586   4.221   6.954   5.813  0.9211 -1.4231  0.2863
   52bbb    H18 1587   4.087   6.964   5.704  0.7119 -0.2683  0.4341
   52bbb     O1 1588   4.009   7.619   5.820 -0.3762 -0.1454 -0.2201
   52bbb    H19 1589   3.746   7.234   5.900  0.4176  1.2322 -1.3962
   53bbb     N1 1590   4.379   7.308   4.907 -0.0991  0.1648  0.5350
   53bbb     C1 1591   4.343   7.387   4.786  0.0723 -0.3045 -0.8218
   53bbb     H1 1592   4.442   7.411   4.748  0.2698  1.4277  0.6544
   53bbb     H2 1593   4.296   7.479   4.822 -1.5394 -1.6694  0.7727
   53bbb     C2 1594   4.464   7.195   4.865  0.0073  0.6314 -0.1822
   53bbb     H3 1595   4.549   7.232   4.807  0.6924  2.5490  1.8982
   53bbb     H4 1596   4.405   7.137   4.795  0.4500  1.2959 -1.1279
   53bbb     C3 1597   4.449   7.390   5.019 -0.1861  0.4086  1.3803
   53bbb     H5 1598   4.524   7.448   4.964 -1.9311  2.4058  0.9443
   53bbb     H6 1599   4.503   7.317   5.078  2.1964 -0.6171 -1.7727
   53bbb     C4 1600   4.360   7.481   5.102  0.0022 -0.5304  0.4649
   53bbb     H7 1601   4.299   7.418   5.169  1.0386 -0.7085  1.2714
   53bbb     H8 1602   4.302   7.545   5.034 -0.2912 -1.8392 -0.5562
   53bbb     C5 1603   4.256   7.320   4.675  1.3582 -0.2172  0.0989
   53bbb     H9 1604   4.306   7.230   4.637  2.0030  0.2222 -0.1082
   53bbb    H10 1605   4.248   7.393   4.594 -0.4322 -0.4010  0.0844
   53bbb     C6 1606   4.516   7.106   4.980 -0.6402 -1.0747  0.3568
   53bbb    H11 1607   4.440   7.101   5.059 -0.6067  1.6536  0.6449
   53bbb    H12 1608   4.602   7.153   5.028  0.0708 -2.5822  0.6217
   53bbb     C7 1609   4.437   7.574   5.199 -0.2466  0.1798  0.3836
   53bbb    H13 1610   4.359   7.639   5.241 -0.8319 -1.4402  1.9695
   53bbb    H14 1611   4.512   7.627   5.140 -0.1717 -1.3551 -0.9555
   53bbb     C8 1612   4.577   6.975   4.930 -0.1381  0.1144  0.0538
   53bbb    H15 1613   4.654   6.997   4.854 -2.8314  1.5380 -2.4831
   53bbb    H16 1614   4.623   6.921   5.013  0.8637 -1.0602 -1.2304
   53bbb     C9 1615   4.116   7.274   4.728  0.0199 -0.5091 -0.3123
   53bbb    H17 1616   4.118   7.191   4.801 -2.3007  0.5219  1.0054
   53bbb    H18 1617   4.056   7.245   4.641  0.4147  2.6585 -1.7689
   53bbb     O1 1618   4.495   7.490   5.306 -0.0381  0.3221  0.0108
   53bbb    H19 1619   4.293   7.268   4.949 -0.1497  0.1160  0.3829
   54bbb     N1 1620   3.249   8.327   9.680  0.4131  0.3470 -0.0067
   54bbb     C1 1621   3.247   8.477   9.699 -0.0199  0.2047 -0.2530
   54bbb     H1 1622   3.141   8.501   9.697 -0.0034  0.5731  1.5008
   54bbb     H2 1623   3.304   8.509   9.612  0.7148 -0.0582  0.1252
   54bbb     C2 1624   3.134   8.289   9.594  0.1205  0.0169  0.0345
   54bbb     H3 1625   3.145   8.182   9.575 -0.7818 -0.3838  1.5486
   54bbb     H4 1626   3.151   8.345   9.502  0.3530 -0.1535 -0.0276
   54bbb     C3 1627   3.376   8.269   9.619  0.0012  0.2495 -0.8218
   54bbb     H5 1628   3.397   8.344   9.543  0.5182 -0.8511 -1.7957
   54bbb     H6 1629   3.344   8.174   9.578 -1.1699  0.7513 -1.1040
   54bbb     C4 1630   3.495   8.259   9.716 -0.1872 -0.2319 -0.5699
   54bbb     H7 1631   3.477   8.180   9.791  0.6507 -2.0752 -2.2400
   54bbb     H8 1632   3.524   8.357   9.756  0.9199 -0.7288 -0.1084
   54bbb     C5 1633   3.317   8.534   9.828  0.3034  0.2207 -0.7870
   54bbb     H9 1634   3.298   8.642   9.840  3.0348  0.7143 -0.0426
   54bbb    H10 1635   3.426   8.524   9.836  0.1962 -0.3051  0.2241
   54bbb     C6 1636   2.995   8.313   9.659 -0.2411 -0.5137  0.5454
   54bbb    H11 1637   2.923   8.280   9.583 -0.8734  1.8504  0.0423
   54bbb    H12 1638   2.975   8.420   9.675  2.6559  0.5751 -2.0752
   54bbb     C7 1639   3.617   8.204   9.640  0.1749 -0.0424  0.2515
   54bbb    H13 1640   3.587   8.112   9.590 -0.3667 -0.2349  0.9111
   54bbb    H14 1641   3.688   8.171   9.717 -0.6284 -1.4791  0.4097
   54bbb     C8 1642   2.970   8.249   9.795  0.0442  1.0266  0.4193
   54bbb    H15 1643   3.027   8.298   9.875  1.1684 -0.5032  0.5861
   54bbb    H16 1644   2.865   8.262   9.827 -0.9407 -1.6898 -1.3591
   54bbb     C9 1645   3.255   8.475   9.954  0.4175 -0.3938 -0.1749
   54bbb    H17 1646   3.146   8.479   9.942  0.5153 -0.7447 -1.3413
   54bbb    H18 1647   3.290   8.526  10.044  1.5588  0.7465 -1.2434
   54bbb     O1 1648   3.686   8.296   9.560  0.3967 -0.6042  0.5832
   54bbb    H19 1649   3.237   8.278   9.770  2.0638 -0.6407 -0.3023
   55bbb     N1 1650   4.071   8.837  10.149  0.5215  0.3492 -0.3010
   55bbb     C1 1651   4.195   8.913  10.177  0.4372  0.3865  0.7001
   55bbb     H1 1652   4.236   8.941  10.080 -0.7811 -1.6354 -0.4613
   55bbb     H2 1653   4.264   8.842  10.221 -1.5930 -1.3543  1.2419
   55bbb     C2 1654   3.965   8.919  10.086  0.0643 -1.0470  0.4033
   55bbb     H3 1655   3.935   8.994  10.160 -3.1702 -1.1306 -0.6826
   55bbb     H4 1656   3.868   8.868  10.077 -0.0066 -0.9299  0.4969
   55bbb     C3 1657   4.092   8.716  10.069  0.1108  0.0799  0.4387
   55bbb     H5 1658   4.141   8.743   9.975  0.6973  2.1579  1.2745
   55bbb     H6 1659   3.999   8.671  10.034  1.9225 -1.2686 -3.2480
   55bbb     C4 1660   4.183   8.602  10.126 -0.5826 -0.6478  0.1712
   55bbb     H7 1661   4.130   8.545  10.203  0.3022  0.7779  1.9089
   55bbb     H8 1662   4.271   8.644  10.176 -1.6070 -0.1896  1.6325
   55bbb     C5 1663   4.201   9.031  10.278  0.1197 -0.2583 -0.2611
   55bbb     H9 1664   4.148   9.002  10.369 -1.6255  1.4794 -0.6706
   55bbb    H10 1665   4.141   9.112  10.235 -1.2035 -0.3265  1.3671
   55bbb     C6 1666   4.008   8.988   9.953 -0.2337  0.5585 -0.4376
   55bbb    H11 1667   3.971   8.939   9.863 -0.9535  0.6849 -0.2166
   55bbb    H12 1668   4.118   8.990   9.951 -0.2131 -0.1176 -0.1789
   55bbb     C7 1669   4.234   8.500  10.018  0.4517 -0.4365 -0.6594
   55bbb    H13 1670   4.260   8.409  10.074 -0.8085  0.4608  1.5092
   55bbb    H14 1671   4.320   8.552   9.975 -0.0241  2.8091  1.9660
   55bbb     C8 1672   3.963   9.130   9.949  0.4285  0.1007  0.4114
   55bbb    H15 1673   3.999   9.180   9.858 -0.3431 -0.0839 -0.0057
   55bbb    H16 1674   3.854   9.133   9.933  0.6211 -0.0911 -1.0954
   55bbb     C9 1675   4.343   9.079  10.316 -0.0857  0.0316 -0.4787
   55bbb    H17 1676   4.335   9.168  10.380 -1.7678 -0.8885  0.6524
   55bbb    H18 1677   4.412   9.106  10.235  0.2018  0.9580  0.0539
   55bbb     O1 1678   4.126   8.468   9.928 -0.0261 -0.0409  0.2615
   55bbb    H19 1679   4.031   8.813  10.241  0.1131  1.0256 -0.2988
   56bbb     N1 1680   5.533   7.950   9.048  0.3352 -0.0503 -0.4783
   56bbb     C1 1681   5.518   7.880   8.914 -0.0333 -0.2933 -1.0963
   56bbb     H1 1682   5.432   7.916   8.858 -0.6674  1.9945  1.1219
   56bbb     H2 1683   5.488   7.777   8.932  0.3461 -0.0443  1.3401
   56bbb     C2 1684   5.474   8.086   9.042 -0.1061  0.1043  0.3205
   56bbb     H3 1685   5.366   8.072   9.055 -0.0178 -2.8230 -1.1963
   56bbb     H4 1686   5.488   8.124   8.941 -1.4493  0.5165  0.2744
   56bbb     C3 1687   5.464   7.864   9.151  0.5896  0.3716  0.0690
   56bbb     H5 1688   5.418   7.779   9.101 -1.4305  1.0911  0.6074
   56bbb     H6 1689   5.387   7.917   9.207 -0.4433 -1.2581  0.2469
   56bbb     C4 1690   5.564   7.800   9.257  0.0721 -0.3289 -0.8304
   56bbb     H7 1691   5.623   7.879   9.303 -2.8146  1.4583  0.0742
   56bbb     H8 1692   5.631   7.734   9.201  3.3534  2.9170 -1.0499
   56bbb     C5 1693   5.653   7.885   8.835 -0.0208  0.5781 -0.1619
   56bbb     H9 1694   5.677   7.990   8.816 -0.8938  0.9073  0.5141
   56bbb    H10 1695   5.635   7.845   8.734 -0.4722  0.1050  0.1028
   56bbb     C6 1696   5.525   8.172   9.155 -0.6177 -0.0908  0.6618
   56bbb    H11 1697   5.478   8.139   9.249 -1.8633  2.6132  1.0764
   56bbb    H12 1698   5.481   8.269   9.130 -1.0807 -0.8570 -1.6935
   56bbb     C7 1699   5.499   7.716   9.370 -0.5385 -0.0290  0.2704
   56bbb    H13 1700   5.435   7.794   9.414 -3.3645 -1.4861 -0.9568
   56bbb    H14 1701   5.570   7.681   9.446 -0.6282  0.4834  0.6002
   56bbb     C8 1702   5.680   8.168   9.181 -0.5840 -0.6213  0.6644
   56bbb    H15 1703   5.703   8.232   9.267  1.8495  0.1218 -0.4434
   56bbb    H16 1704   5.730   8.072   9.192 -0.8015 -0.4841  3.3844
   56bbb     C9 1705   5.767   7.813   8.912 -0.1014 -0.7858  0.0805
   56bbb    H17 1706   5.850   7.805   8.841  1.2215  0.1522  1.4477
   56bbb    H18 1707   5.720   7.719   8.943  1.9567 -1.9378 -0.1717
   56bbb     O1 1708   5.409   7.607   9.314  0.1482 -0.2057 -0.3865
   56bbb    H19 1709   5.635   7.961   9.061  0.2473  1.9269 -1.0538
   57bbb     N1 1710   5.568   6.862   9.222  0.0709  0.0609 -0.4695
   57bbb     C1 1711   5.515   6.756   9.306  0.8115  0.4561  0.0564
   57bbb     H1 1712   5.482   6.809   9.396 -2.1955  0.0585 -0.7056
   57bbb     H2 1713   5.589   6.681   9.332 -1.6635 -2.3948 -0.5883
   57bbb     C2 1714   5.649   6.965   9.299  0.3950 -0.1930 -0.1470
   57bbb     H3 1715   5.729   6.996   9.231  0.9546 -0.3232  0.4408
   57bbb     H4 1716   5.690   6.912   9.385  0.2521 -0.2530 -0.1164
   57bbb     C3 1717   5.655   6.796   9.114  0.1012 -0.3762 -0.1441
   57bbb     H5 1718   5.667   6.691   9.142 -1.4870 -0.0903  1.7590
   57bbb     H6 1719   5.750   6.849   9.125 -0.4664  0.5485  0.3914
   57bbb     C4 1720   5.607   6.809   8.965 -0.9490 -0.3760 -0.3400
   57bbb     H7 1721   5.513   6.754   8.953 -1.4433 -0.0293  1.5585
   57bbb     H8 1722   5.683   6.751   8.912  0.5316  0.9383  0.2678
   57bbb     C5 1723   5.391   6.688   9.236  0.6040  0.2213  0.4514
   57bbb     H9 1724   5.345   6.619   9.309  0.0492  1.1462  1.0005
   57bbb    H10 1725   5.432   6.624   9.158  0.6858  1.0826 -0.2247
   57bbb     C6 1726   5.584   7.089   9.354  0.0359 -0.1128  0.0608
   57bbb    H11 1727   5.560   7.148   9.265  1.2946 -0.7900 -0.7595
   57bbb    H12 1728   5.662   7.140   9.412 -0.3774 -0.1155  0.6341
   57bbb     C7 1729   5.584   6.946   8.913  0.0586 -0.4835  0.4635
   57bbb    H13 1730   5.545   6.934   8.811 -0.4896  2.0889  0.3175
   57bbb    H14 1731   5.683   6.992   8.914 -0.2996  0.2935  1.5712
   57bbb     C8 1732   5.458   7.064   9.438  0.1798 -0.8011 -0.0175
   57bbb    H15 1733   5.411   7.159   9.468  0.8486 -0.0442 -1.2775
   57bbb    H16 1734   5.371   7.022   9.386 -0.6718  0.1190  0.6074
   57bbb     C9 1735   5.285   6.790   9.178 -0.0122 -0.4590  0.4893
   57bbb    H17 1736   5.304   6.829   9.077 -0.4446  0.2882  0.6894
   57bbb    H18 1737   5.274   6.870   9.252  1.0042 -1.0143  1.2789
   57bbb     O1 1738   5.495   7.022   9.007  0.1368 -0.3603  0.2231
   57bbb    H19 1739   5.493   6.916   9.175  0.7381  2.2600  0.8205
   58bbb     N1 1740   2.692   8.293   7.473 -0.3002  0.0323  0.5815
   58bbb     C1 1741   2.583   8.384   7.414 -0.3513  0.4958 -0.6214
   58bbb     H1 1742   2.582   8.470   7.481 -1.0391  1.0500 -1.3139
   58bbb     H2 1743   2.487   8.335   7.429  1.0912 -1.6315  2.9979
   58bbb     C2 1744   2.700   8.154   7.412  0.3164 -0.2221 -0.7926
   58bbb     H3 1745   2.797   8.114   7.440  0.2923  1.9645  3.1782
   58bbb     H4 1746   2.691   8.174   7.305  3.4041  0.5486 -0.9873
   58bbb     C3 1747   2.828   8.359   7.472 -0.9983 -0.4681 -0.0795
   58bbb     H5 1748   2.811   8.457   7.517  0.8267 -0.5160  0.8010
   58bbb     H6 1749   2.854   8.385   7.369 -0.4018  0.0986  0.2109
   58bbb     C4 1750   2.943   8.288   7.550  0.3822 -0.9092 -0.8117
   58bbb     H7 1751   3.025   8.361   7.540  1.3161 -1.6791  0.8068
   58bbb     H8 1752   2.983   8.198   7.502  1.7893 -0.7547  0.0232
   58bbb     C5 1753   2.598   8.446   7.273 -0.2483  0.2262 -0.7733
   58bbb     H9 1754   2.621   8.360   7.209 -1.7392 -0.7431 -0.0707
   58bbb    H10 1755   2.681   8.518   7.268 -1.3115  1.9176  2.6771
   58bbb     C6 1756   2.590   8.057   7.467 -0.3018  0.1947  0.1944
   58bbb    H11 1757   2.606   7.962   7.414 -1.4223  0.4289 -0.6104
   58bbb    H12 1758   2.497   8.098   7.427 -0.1149 -0.4741 -0.9697
   58bbb     C7 1759   2.919   8.259   7.699  0.1689 -0.1814 -0.2722
   58bbb    H13 1760   3.009   8.219   7.747 -0.0967  1.9933  2.2837
   58bbb    H14 1761   2.846   8.178   7.709  0.2132 -0.0482  1.6028
   58bbb     C8 1762   2.578   8.043   7.619  0.1826  0.6733 -0.8725
   58bbb    H15 1763   2.483   8.000   7.651  1.9044 -0.7218  2.9235
   58bbb    H16 1764   2.663   7.983   7.653 -0.2166 -0.4357 -1.7366
   58bbb     C9 1765   2.470   8.512   7.211 -0.0577  0.6550  0.0854
   58bbb    H17 1766   2.401   8.434   7.175  0.3251 -0.3155  1.3818
   58bbb    H18 1767   2.498   8.566   7.120 -2.1838 -1.1192 -1.7632
   58bbb     O1 1768   2.887   8.383   7.771 -0.4022  0.7693  0.5635
   58bbb    H19 1769   2.657   8.284   7.569 -0.0454  1.9774  0.8999
   59bbb     N1 1770   3.877   8.782   8.083 -0.3062 -0.0197 -0.3013
   59bbb     C1 1771   3.869   8.642   8.137  0.2507  0.3680 -0.3195
   59bbb     H1 1772   3.967   8.626   8.182  0.7219  3.8130  0.1362
   59bbb     H2 1773   3.863   8.570   8.055 -2.6334 -0.1286  0.2187
   59bbb     C2 1774   3.995   8.808   7.992  0.4592  0.0446 -0.6064
   59bbb     H3 1775   3.973   8.905   7.946  0.0648  0.2175 -0.0615
   59bbb     H4 1776   3.985   8.729   7.917 -0.7948  1.3684 -1.8961
   59bbb     C3 1777   3.748   8.798   7.991  0.0388  0.4023  0.5124
   59bbb     H5 1778   3.662   8.754   8.042  0.8827 -0.4968  1.1940
   59bbb     H6 1779   3.771   8.745   7.898 -0.5371  1.4624 -0.2527
   59bbb     C4 1780   3.693   8.935   7.946 -1.0925  0.4471  0.3475
   59bbb     H7 1781   3.775   8.971   7.884 -1.5530 -0.9046 -1.1073
   59bbb     H8 1782   3.674   9.005   8.028 -1.2193  1.5175 -0.5704
   59bbb     C5 1783   3.764   8.615   8.239 -0.2772  0.5376  0.0414
   59bbb     H9 1784   3.782   8.513   8.278  0.8686  1.1782  1.2587
   59bbb    H10 1785   3.667   8.604   8.188  1.1917  1.1608 -3.1409
   59bbb     C6 1786   4.128   8.806   8.071  0.0436  1.2341 -0.2083
   59bbb    H11 1787   4.209   8.787   8.000  0.3558 -1.8759  0.8032
   59bbb    H12 1788   4.126   8.712   8.129 -1.2022  0.4475 -1.4512
   59bbb     C7 1789   3.561   8.908   7.869  0.6149  0.2361 -0.0062
   59bbb    H13 1790   3.585   8.850   7.779  1.1836  0.7720 -0.2072
   59bbb    H14 1791   3.522   9.002   7.828 -1.3346 -0.0810  1.0124
   59bbb     C8 1792   4.157   8.935   8.152 -0.4056  0.7738  0.2739
   59bbb    H15 1793   4.258   8.923   8.194  0.1025  0.8594 -0.8985
   59bbb    H16 1794   4.137   9.014   8.079  1.2319  0.1236 -0.9259
   59bbb     C9 1795   3.761   8.714   8.356 -0.0033 -0.0174  0.6346
   59bbb    H17 1796   3.856   8.726   8.410 -0.0013  0.6395  0.4962
   59bbb    H18 1797   3.695   8.682   8.438 -0.6215  0.0772  0.1840
   59bbb     O1 1798   3.464   8.844   7.956  0.1956 -0.3566 -0.2983
   59bbb    H19 1799   3.865   8.850   8.160  0.2658 -0.0033 -0.2258
   60bbb     N1 1800   3.012   6.765   8.227 -0.3315 -0.2611  0.1316
   60bbb     C1 1801   2.876   6.827   8.238  0.2351 -0.1407 -0.3150
   60bbb     H1 1802   2.806   6.749   8.267  0.9984 -1.2249 -1.2994
   60bbb     H2 1803   2.844   6.872   8.144 -0.9795  0.0237  0.1562
   60bbb     C2 1804   2.998   6.635   8.155  0.6651  0.9772  0.0202
   60bbb     H3 1805   3.097   6.590   8.144  0.3699  0.1803  0.5147
   60bbb     H4 1806   2.967   6.658   8.053 -0.4953 -3.2079 -0.7654
   60bbb     C3 1807   3.118   6.860   8.170  0.3266 -0.2761 -0.2556
   60bbb     H5 1808   3.089   6.964   8.185 -0.3529 -0.3570 -0.9459
   60bbb     H6 1809   3.118   6.851   8.061 -0.3501  2.7683 -0.6037
   60bbb     C4 1810   3.264   6.842   8.226 -0.9367  1.2883  0.6066
   60bbb     H7 1811   3.305   6.743   8.201  1.3518  2.4303 -0.4493
   60bbb     H8 1812   3.261   6.861   8.334 -0.3030  0.7115  0.7342
   60bbb     C5 1813   2.860   6.945   8.343  0.4927  0.1250  0.2152
   60bbb     H9 1814   2.753   6.968   8.348 -0.1387 -2.6874  1.4182
   60bbb    H10 1815   2.915   7.038   8.323 -0.7497  1.5381  2.8070
   60bbb     C6 1816   2.907   6.522   8.216 -0.1117  0.0227 -0.1817
   60bbb    H11 1817   2.806   6.549   8.182  0.2957  0.2073 -1.2879
   60bbb    H12 1818   2.905   6.535   8.325 -0.7051 -1.5710  0.0317
   60bbb     C7 1819   3.366   6.936   8.161 -0.1955  0.5372  0.1030
   60bbb    H13 1820   3.399   6.904   8.061  0.8930 -2.4300  1.3273
   60bbb    H14 1821   3.453   6.937   8.228  1.7329 -0.0497 -2.2238
   60bbb     C8 1822   2.952   6.375   8.191 -0.1774  0.0113  0.4402
   60bbb    H15 1823   3.050   6.369   8.240  0.5002  2.6944 -0.4647
   60bbb    H16 1824   2.888   6.298   8.236 -1.9977  0.2126 -1.6375
   60bbb     C9 1825   2.902   6.911   8.484  0.2804  0.3286  0.1586
   60bbb    H17 1826   2.870   6.991   8.553 -3.4398 -0.2000 -0.7895
   60bbb    H18 1827   3.012   6.905   8.477  0.3769  0.5614  1.2377
   60bbb     O1 1828   3.314   7.074   8.168 -0.2217 -0.1063  0.2541
   60bbb    H19 1829   3.058   6.739   8.316  0.9831 -0.6201 -0.6220
   61bbb     N1 1830   3.977   7.391   7.528 -0.2865 -0.2496  0.3267
   61bbb     C1 1831   4.049   7.472   7.411 -0.7164  0.1631 -0.7004
   61bbb     H1 1832   4.125   7.539   7.449  0.3782 -0.8966 -0.9577
   61bbb     H2 1833   3.976   7.535   7.361  0.1544  0.8548 -1.1285
   61bbb     C2 1834   4.077   7.314   7.613  0.2891  0.0959  0.7154
   61bbb     H3 1835   4.096   7.224   7.553 -0.1255  0.7170 -0.3698
   61bbb     H4 1836   4.024   7.294   7.707 -1.0881  1.6652  0.3154
   61bbb     C3 1837   3.902   7.497   7.611  0.6973  0.6873 -0.1387
   61bbb     H5 1838   3.839   7.434   7.675 -1.6206  0.1576 -2.7385
   61bbb     H6 1839   3.831   7.551   7.548  0.6772  0.4665 -0.3050
   61bbb     C4 1840   3.966   7.603   7.703 -0.4503  1.0514  0.0871
   61bbb     H7 1841   4.045   7.656   7.649 -0.8750  1.3653 -0.2271
   61bbb     H8 1842   4.008   7.562   7.795 -2.6304  1.0711  1.1402
   61bbb     C5 1843   4.103   7.372   7.304  0.1892  0.5056  0.5794
   61bbb     H9 1844   4.155   7.286   7.348 -0.8694 -0.8757 -0.7760
   61bbb    H10 1845   4.173   7.425   7.238 -0.4342 -0.2384 -0.7085
   61bbb     C6 1846   4.213   7.395   7.642  0.3595  0.1153 -0.2714
   61bbb    H11 1847   4.186   7.484   7.700 -0.9388  0.9944 -2.1537
   61bbb    H12 1848   4.265   7.415   7.548 -0.4906 -2.0289 -1.2607
   61bbb     C7 1849   3.872   7.708   7.757  0.0012 -0.1066 -0.7303
   61bbb    H13 1850   3.823   7.758   7.673 -0.0994  2.2417  0.6606
   61bbb    H14 1851   3.922   7.783   7.819 -1.6682  1.0000 -0.6562
   61bbb     C8 1852   4.311   7.308   7.724 -0.3254 -0.6908  0.3527
   61bbb    H15 1853   4.402   7.366   7.743 -1.9087  1.8559  0.7222
   61bbb    H16 1854   4.270   7.278   7.821 -1.9200 -5.0055 -1.4245
   61bbb     C9 1855   3.982   7.323   7.210  1.1019 -0.2695  0.6349
   61bbb    H17 1856   4.012   7.254   7.130  0.2849 -0.6013  0.6102
   61bbb    H18 1857   3.920   7.404   7.170  0.5597 -1.7342 -1.6669
   61bbb     O1 1858   3.776   7.646   7.846 -0.1421  0.3800  0.0727
   61bbb    H19 1859   3.915   7.319   7.489 -0.0304 -0.2624 -0.0772
   62bbb     N1 1860   7.609   8.975   7.522  0.1533  0.2457 -0.8091
   62bbb     C1 1861   7.542   8.950   7.390  0.1100  0.2481 -0.1175
   62bbb     H1 1862   7.475   9.035   7.375 -1.0386 -0.4187  1.0849
   62bbb     H2 1863   7.476   8.864   7.397 -1.0993  1.0312 -1.4116
   62bbb     C2 1864   7.675   9.110   7.533 -0.1011 -0.1263 -0.6559
   62bbb     H3 1865   7.749   9.118   7.453 -1.1601 -0.2044 -1.6727
   62bbb     H4 1866   7.732   9.115   7.625  2.0430 -0.0883 -1.9163
   62bbb     C3 1867   7.499   8.957   7.628  0.2607 -0.3543  0.1172
   62bbb     H5 1868   7.456   8.858   7.617  0.3374 -0.3257 -0.5080
   62bbb     H6 1869   7.422   9.034   7.618  0.0528 -0.4122  1.1938
   62bbb     C4 1870   7.540   8.969   7.774 -0.3030 -0.2690 -0.1133
   62bbb     H7 1871   7.576   9.072   7.786 -2.4543  0.4409  0.7142
   62bbb     H8 1872   7.633   8.912   7.787  0.5333  0.6768 -1.6362
   62bbb     C5 1873   7.638   8.948   7.268 -0.7453  0.4619 -0.1136
   62bbb     H9 1874   7.714   9.027   7.273  2.5192 -2.5438  2.3231
   62bbb    H10 1875   7.576   8.954   7.177 -0.6537 -2.1421 -0.4328
   62bbb     C6 1876   7.584   9.237   7.542  0.1327 -0.1315  0.1094
   62bbb    H11 1877   7.510   9.232   7.622  1.5555 -0.6487  1.4553
   62bbb    H12 1878   7.529   9.251   7.448 -1.2154 -1.8918  0.5635
   62bbb     C7 1879   7.430   8.928   7.878  0.5910 -0.5533  0.1058
   62bbb    H13 1880   7.484   8.939   7.973  1.4595  0.5658 -0.5016
   62bbb    H14 1881   7.393   8.826   7.859 -0.4492 -0.0683 -0.5516
   62bbb     C8 1882   7.667   9.364   7.571  0.1988 -0.4596  0.6237
   62bbb    H15 1883   7.755   9.366   7.506  1.2168  0.4764  1.9973
   62bbb    H16 1884   7.614   9.460   7.559  1.5981  0.3008  0.3133
   62bbb     C9 1885   7.733   8.834   7.262 -0.1527  0.3559  0.5913
   62bbb    H17 1886   7.832   8.860   7.302 -0.2389 -1.2230  1.9625
   62bbb    H18 1887   7.740   8.817   7.153 -3.9111 -0.4375  0.3473
   62bbb     O1 1888   7.326   9.022   7.878  0.1320 -0.3722  0.4351
   62bbb    H19 1889   7.684   8.908   7.546 -0.0368  0.5173  0.6588
   63bbb     N1 1890   7.277   9.711   8.058  0.2411  0.0309 -0.1223
   63bbb     C1 1891   7.389   9.623   8.112  0.8817 -0.2831 -0.1566
   63bbb     H1 1892   7.464   9.689   8.155  1.2818 -0.4916 -0.5342
   63bbb     H2 1893   7.442   9.555   8.045  2.0095 -1.4928  1.8736
   63bbb     C2 1894   7.338   9.814   7.958 -0.0678  0.7229 -0.3434
   63bbb     H3 1895   7.336   9.775   7.857 -1.6397 -2.6743  0.8457
   63bbb     H4 1896   7.443   9.808   7.987 -0.1915 -3.2253 -0.1284
   63bbb     C3 1897   7.173   9.626   7.983 -0.5197  0.3741 -0.3753
   63bbb     H5 1898   7.140   9.552   8.055 -1.5084  0.4396 -0.7493
   63bbb     H6 1899   7.228   9.578   7.902  0.2767  0.4278  0.1240
   63bbb     C4 1900   7.045   9.696   7.921  1.0868  0.2909 -0.0285
   63bbb     H7 1901   7.046   9.740   7.821 -0.9513  1.8134  0.5654
   63bbb     H8 1902   7.016   9.772   7.994  2.3097  1.8714 -1.1368
   63bbb     C5 1903   7.341   9.535   8.236 -0.2946 -0.5268 -0.0776
   63bbb     H9 1904   7.270   9.460   8.199 -1.3490 -0.0314  0.8653
   63bbb    H10 1905   7.287   9.612   8.293 -0.4478  1.3026 -2.5092
   63bbb     C6 1906   7.298   9.959   7.961  0.2269  0.1028  0.1100
   63bbb    H11 1907   7.391  10.017   7.959  0.8964 -0.9667 -1.2251
   63bbb    H12 1908   7.241   9.992   8.049 -1.9143 -0.3228 -1.0763
   63bbb     C7 1909   6.925   9.581   7.913 -0.8050 -0.2997 -1.0017
   63bbb    H13 1910   6.825   9.626   7.910 -0.9798 -0.6826 -0.9384
   63bbb    H14 1911   6.929   9.516   8.001  0.3124  0.6081 -0.3616
   63bbb     C8 1912   7.217   9.995   7.837  0.7394  0.4076 -0.3205
   63bbb    H15 1913   7.128   9.931   7.836  2.7518 -2.7720  2.6263
   63bbb    H16 1914   7.190  10.101   7.828  0.2474  0.2870 -0.3297
   63bbb     C9 1915   7.455   9.472   8.317 -0.4252 -0.3938 -0.0815
   63bbb    H17 1916   7.523   9.417   8.251 -1.5646  1.7482 -3.2560
   63bbb    H18 1917   7.421   9.400   8.393 -1.7386 -0.1310 -0.4030
   63bbb     O1 1918   6.943   9.510   7.789  0.3492  0.1467 -0.1192
   63bbb    H19 1919   7.242   9.763   8.140 -1.9531  0.8706 -1.5059
   64bbb     N1 1920   7.728   9.751   6.096 -0.2888  0.2096 -0.0728
   64bbb     C1 1921   7.868   9.791   6.126 -0.2944 -0.7313  0.4812
   64bbb     H1 1922   7.936   9.710   6.098  0.3748 -0.0670  0.1458
   64bbb     H2 1923   7.869   9.782   6.234  0.3975 -1.3639  0.4350
   64bbb     C2 1924   7.719   9.706   5.954  0.1371  0.0550  0.4430
   64bbb     H3 1925   7.774   9.614   5.935 -1.7458 -0.6017 -2.4112
   64bbb     H4 1926   7.758   9.780   5.883  0.2994 -1.0148 -0.6103
   64bbb     C3 1927   7.686   9.639   6.194 -0.3339 -0.1301 -0.5334
   64bbb     H5 1928   7.577   9.637   6.185 -0.5135 -1.7992  1.2453
   64bbb     H6 1929   7.720   9.659   6.296  2.7294 -0.7637 -1.3256
   64bbb     C4 1930   7.729   9.500   6.168 -0.1301  0.1031  0.3077
   64bbb     H7 1931   7.837   9.504   6.154  0.0519  4.2144  1.5211
   64bbb     H8 1932   7.666   9.470   6.082 -3.2117  0.7146  2.1824
   64bbb     C5 1933   7.938   9.915   6.064  0.6174 -0.0294 -0.4285
   64bbb     H9 1934   7.877  10.006   6.067  1.5699  0.7056 -2.1957
   64bbb    H10 1935   7.951   9.885   5.960 -1.9633  0.5418 -0.9817
   64bbb     C6 1936   7.581   9.678   5.890 -0.3398 -0.0515 -0.4617
   64bbb    H11 1937   7.500   9.741   5.929  1.2156  0.7659  1.6187
   64bbb    H12 1938   7.545   9.578   5.917 -0.0605  0.7886  3.7480
   64bbb     C7 1939   7.709   9.412   6.292 -0.2371  0.2824  0.1033
   64bbb    H13 1940   7.783   9.445   6.366  0.3626  0.0616 -0.3868
   64bbb    H14 1941   7.737   9.308   6.274  0.3204  0.1854  1.4266
   64bbb     C8 1942   7.598   9.683   5.740 -0.3374  0.3852  0.2698
   64bbb    H15 1943   7.508   9.639   5.694  0.3117 -0.6066 -0.0829
   64bbb    H16 1944   7.609   9.786   5.704  2.9939 -0.3173 -1.0282
   64bbb     C9 1945   8.073   9.945   6.134  0.2449 -0.1667  0.3305
   64bbb    H17 1946   8.125  10.021   6.074 -2.9012  0.2874 -2.1016
   64bbb    H18 1947   8.127   9.850   6.143  1.5792  0.4844 -0.4104
   64bbb     O1 1948   7.575   9.422   6.337  0.6283 -0.1610 -0.3946
   64bbb    H19 1949   7.659   9.826   6.114 -0.0519  0.2242  0.8319
   65bbb     N1 1950   7.751   8.647   6.735  0.3749  0.7066 -0.0562
   65bbb     C1 1951   7.843   8.525   6.722  0.0291 -0.2363  1.0114
   65bbb     H1 1952   7.779   8.436   6.724 -1.9468  0.9068 -2.6833
   65bbb     H2 1953   7.896   8.534   6.817 -0.5454  1.5037  1.2077
   65bbb     C2 1954   7.613   8.607   6.801 -0.0333 -0.1237 -0.4520
   65bbb     H3 1955   7.560   8.546   6.728 -1.9652  0.0184  0.7567
   65bbb     H4 1956   7.552   8.695   6.821  1.3132  1.2051 -1.9563
   65bbb     C3 1957   7.826   8.756   6.819  0.2446  1.2939 -0.3539
   65bbb     H5 1958   7.891   8.704   6.890  1.2760  0.2121 -1.9940
   65bbb     H6 1959   7.744   8.807   6.869 -0.9406 -1.0340  0.2237
   65bbb     C4 1960   7.911   8.854   6.733  0.0964 -0.1969 -0.2314
   65bbb     H7 1961   7.992   8.795   6.689 -0.1713 -0.8733  0.1758
   65bbb     H8 1962   7.964   8.915   6.808 -0.3887 -0.2602  0.1680
   65bbb     C5 1963   7.949   8.501   6.604 -0.2770  0.1321 -0.0057
   65bbb     H9 1964   8.025   8.580   6.603  0.7358 -0.8255  0.2777
   65bbb    H10 1965   7.899   8.503   6.506 -2.2959 -1.7473  0.8855
   65bbb     C6 1966   7.612   8.534   6.938 -0.2708 -0.7370  0.0054
   65bbb    H11 1967   7.690   8.578   7.002 -0.0120 -0.7485 -0.2992
   65bbb    H12 1968   7.646   8.431   6.918 -1.2298 -1.5887  2.4096
   65bbb     C7 1969   7.825   8.934   6.634 -0.1169  0.6480 -0.0093
   65bbb    H13 1970   7.818   8.875   6.542  0.8085 -2.5706  1.8437
   65bbb    H14 1971   7.885   9.023   6.610  0.2320  0.4656  0.1816
   65bbb     C8 1972   7.475   8.531   7.015 -0.0318  0.4359  0.3788
   65bbb    H15 1973   7.394   8.486   6.957  1.1229  0.7280 -1.5534
   65bbb    H16 1974   7.480   8.462   7.099 -2.2826 -1.0221 -0.5703
   65bbb     C9 1975   8.017   8.358   6.630 -0.1880  0.2053  0.2374
   65bbb    H17 1976   8.085   8.335   6.547 -0.8189  2.2390 -0.9195
   65bbb    H18 1977   7.936   8.284   6.631 -0.5008  0.5405  0.4255
   65bbb     O1 1978   7.692   8.969   6.694 -0.1809 -0.1254  0.0612
   65bbb    H19 1979   7.730   8.700   6.649 -3.5573  1.0833  0.9455
   66bbb     N1 1980   6.886   9.939   4.684 -0.4773  0.2914  0.0485
   66bbb     C1 1981   6.747   9.894   4.659  0.6560 -0.2777  0.6014
   66bbb     H1 1982   6.689   9.916   4.749 -0.0695 -1.0118  0.3226
   66bbb     H2 1983   6.741   9.786   4.645  1.7739 -0.5969  2.2764
   66bbb     C2 1984   6.881  10.073   4.760  0.1586 -0.9326  0.3328
   66bbb     H3 1985   6.811  10.138   4.707 -0.0672 -1.2560  0.2343
   66bbb     H4 1986   6.976  10.125   4.740 -0.6035 -0.2466 -1.8133
   66bbb     C3 1987   6.952   9.830   4.769  0.4080  0.0372 -0.0181
   66bbb     H5 1988   6.919   9.733   4.733  0.9552  0.2559 -1.1702
   66bbb     H6 1989   6.921   9.835   4.874  1.3193  0.0939  0.2554
   66bbb     C4 1990   7.103   9.831   4.767  0.4549  0.6500 -0.5474
   66bbb     H7 1991   7.146   9.926   4.799 -0.4352  0.8905 -0.0402
   66bbb     H8 1992   7.125   9.828   4.659 -0.5840  0.5411 -0.7775
   66bbb     C5 1993   6.688   9.969   4.537 -0.3809  0.1708  0.0499
   66bbb     H9 1994   6.729   9.935   4.441 -0.0703  0.6885 -0.0043
   66bbb    H10 1995   6.726  10.072   4.545  2.1067 -0.6207 -0.7890
   66bbb     C6 1996   6.846  10.084   4.914  0.4112 -0.2811  0.7847
   66bbb    H11 1997   6.938  10.066   4.972  2.1278  2.5976 -0.8019
   66bbb    H12 1998   6.768  10.012   4.940 -0.4581  0.1060 -0.6261
   66bbb     C7 1999   7.170   9.720   4.851 -0.4452 -0.7323  0.0138
   66bbb    H13 2000   7.279   9.732   4.838 -0.4988 -0.5917 -0.2975
   66bbb    H14 2001   7.148   9.618   4.815  2.3584 -1.3203 -0.3416
   66bbb     C8 2002   6.782  10.224   4.951 -0.0805  0.3863 -0.4878
   66bbb    H15 2003   6.683  10.227   4.904 -1.6056  0.1352  2.5066
   66bbb    H16 2004   6.759  10.234   5.058 -0.6737  0.3090 -0.6035
   66bbb     C9 2005   6.529   9.950   4.523  0.0792  0.4735 -0.0341
   66bbb    H17 2006   6.496  10.018   4.444  1.3141  0.6740 -0.3951
   66bbb    H18 2007   6.496   9.985   4.621  0.2202 -1.2732  0.6757
   66bbb     O1 2008   7.132   9.739   4.990  0.2925  0.5115  0.5646
   66bbb    H19 2009   6.927   9.952   4.590 -3.0126  0.3491 -1.1452
   67bbb     N1 2010   6.695   8.902   5.160 -0.8291  0.1319  0.5632
   67bbb     C1 2011   6.598   8.820   5.080  0.1306  0.3638 -0.2448
   67bbb     H1 2012   6.651   8.755   5.010 -1.5608 -0.2514 -1.0105
   67bbb     H2 2013   6.536   8.890   5.024  0.2690 -0.4496 -1.4573
   67bbb     C2 2014   6.824   8.914   5.079 -0.2885  0.3132  0.5972
   67bbb     H3 2015   6.868   9.010   5.107  0.9314 -0.3980  1.2112
   67bbb     H4 2016   6.793   8.928   4.975 -0.9145 -1.0772  0.5819
   67bbb     C3 2017   6.641   9.044   5.174 -0.2566 -0.3894  0.7389
   67bbb     H5 2018   6.630   9.093   5.077  1.3461 -3.5788 -1.2327
   67bbb     H6 2019   6.720   9.097   5.227  0.0627 -0.7398  0.6190
   67bbb     C4 2020   6.512   9.061   5.255  0.4661 -0.0634  0.7731
   67bbb     H7 2021   6.527   9.025   5.358  0.1859  0.5115  1.0199
   67bbb     H8 2022   6.431   9.005   5.206  0.4992 -1.5305  2.2944
   67bbb     C5 2023   6.509   8.729   5.173  0.4006  0.5362  0.2136
   67bbb     H9 2024   6.429   8.691   5.108  0.2408  0.1059  0.6625
   67bbb    H10 2025   6.464   8.782   5.258  1.6398  1.8730  0.0832
   67bbb     C6 2026   6.938   8.809   5.094 -0.5195 -0.2091 -0.1458
   67bbb    H11 2027   6.902   8.709   5.067 -0.9234 -0.1655  0.2281
   67bbb    H12 2028   6.968   8.798   5.199  1.8405 -1.9667 -0.9212
   67bbb     C7 2029   6.477   9.215   5.269  0.7223  0.3281 -0.0366
   67bbb    H13 2030   6.386   9.229   5.329  1.4861  1.0234  0.9947
   67bbb    H14 2031   6.457   9.261   5.172 -0.6838 -0.2124 -0.0267
   67bbb     C8 2032   7.064   8.841   5.005 -0.9827 -0.4184 -0.1983
   67bbb    H15 2033   7.131   8.755   5.014 -1.1641 -0.5167  0.2649
   67bbb    H16 2034   7.031   8.853   4.901 -3.2918  0.3047  0.5346
   67bbb     C9 2035   6.590   8.611   5.229  0.8270  0.1761  0.4235
   67bbb    H17 2036   6.524   8.532   5.268  0.2318  0.1945 -0.5354
   67bbb    H18 2037   6.649   8.646   5.315  1.6913  2.1815 -0.9251
   67bbb     O1 2038   6.594   9.275   5.333 -0.2321  0.3636  0.3030
   67bbb    H19 2039   6.706   8.864   5.255  2.6285  0.1061  0.2975
   68bbb     N1 2040   8.042   8.164   5.276 -0.5043  0.2226 -0.1799
   68bbb     C1 2041   8.095   8.222   5.144 -0.9311 -0.6140  0.0516
   68bbb     H1 2042   8.116   8.133   5.084 -2.0937 -0.8471 -0.0500
   68bbb     H2 2043   8.176   8.287   5.176 -2.5780  0.5164  2.2199
   68bbb     C2 2044   8.114   8.036   5.310  0.1431 -0.4140 -0.0136
   68bbb     H3 2045   8.115   8.038   5.419  2.5731  0.8979  0.0245
   68bbb     H4 2046   8.216   8.045   5.272  0.2724  0.6881  0.5573
   68bbb     C3 2047   8.070   8.260   5.388  0.2077 -0.4735 -0.4079
   68bbb     H5 2048   8.029   8.359   5.364  0.4105 -0.2526  0.1580
   68bbb     H6 2049   8.178   8.268   5.392  0.3021 -2.0541  0.9619
   68bbb     C4 2050   8.012   8.217   5.527 -0.1403 -0.6238  0.8725
   68bbb     H7 2051   8.084   8.156   5.582  1.0990  0.2463  0.2601
   68bbb     H8 2052   7.922   8.158   5.508 -1.5382  2.0557 -1.8484
   68bbb     C5 2053   7.991   8.312   5.070  0.1146 -0.1603 -0.0245
   68bbb     H9 2054   8.047   8.360   4.990 -1.1179  3.8926  1.3042
   68bbb    H10 2055   7.956   8.394   5.134  2.1737  0.1882  0.7121
   68bbb     C6 2056   8.049   7.909   5.252 -0.0082  0.5758  0.1192
   68bbb    H11 2057   8.113   7.824   5.278 -1.0963  0.1604  1.6304
   68bbb    H12 2058   8.038   7.909   5.143  1.6773 -2.5186 -0.1613
   68bbb     C7 2059   7.982   8.342   5.615 -0.8747 -1.2725  1.1383
   68bbb    H13 2060   8.076   8.392   5.641 -2.3266  0.7078  2.9406
   68bbb    H14 2061   7.943   8.324   5.716 -0.2528  1.6769  2.0039
   68bbb     C8 2062   7.918   7.884   5.328  0.0100  0.7119 -0.2694
   68bbb    H15 2063   7.860   7.977   5.333 -2.7001 -0.7869 -1.4306
   68bbb    H16 2064   7.865   7.802   5.279  2.8748 -1.2431 -0.3406
   68bbb     C9 2065   7.872   8.238   5.004 -0.2568  0.5533  0.0844
   68bbb    H17 2066   7.916   8.175   4.927 -1.5863 -1.0231  0.5536
   68bbb    H18 2067   7.806   8.311   4.954 -1.0657  0.5915  1.1591
   68bbb     O1 2068   7.893   8.435   5.546 -0.7505  0.3969  0.0038
   68bbb    H19 2069   7.941   8.146   5.263 -0.1229 -2.3396 -0.1055
   69bbb     N1 2070   8.317   9.393   5.518  0.1533  0.5727 -0.2084
   69bbb     C1 2071   8.296   9.451   5.381  0.3356 -0.1355  0.6397
   69bbb     H1 2072   8.199   9.500   5.385  0.5193  0.2346  0.6225
   69bbb     H2 2073   8.299   9.372   5.305  0.3107 -1.1463  1.6643
   69bbb     C2 2074   8.351   9.503   5.621 -0.1351  0.1582 -0.4638
   69bbb     H3 2075   8.266   9.569   5.599 -2.8828 -3.1948 -0.7188
   69bbb     H4 2076   8.444   9.546   5.585  0.7575 -0.9866  0.4222
   69bbb     C3 2077   8.185   9.332   5.554 -0.0666  0.3678  0.0482
   69bbb     H5 2078   8.108   9.408   5.548 -0.0893  0.4316  1.0256
   69bbb     H6 2079   8.199   9.301   5.657 -0.0606  2.0243  0.5725
   69bbb     C4 2080   8.136   9.204   5.473 -0.0955 -0.5199 -0.0663
   69bbb     H7 2081   8.233   9.159   5.446  0.2790  0.1238  0.1657
   69bbb     H8 2082   8.090   9.234   5.378 -0.4962 -0.4497  0.1480
   69bbb     C5 2083   8.396   9.557   5.336  0.3168 -0.3056 -0.8010
   69bbb     H9 2084   8.495   9.516   5.357  0.9798  1.3080 -0.6049
   69bbb    H10 2085   8.391   9.645   5.401  2.4656 -0.2353 -0.6872
   69bbb     C6 2086   8.369   9.468   5.772 -0.0713  0.3913  0.2559
   69bbb    H11 2087   8.441   9.387   5.786  1.5022  1.5392 -0.9099
   69bbb    H12 2088   8.272   9.446   5.818  0.4337  0.3456  1.3254
   69bbb     C7 2089   8.050   9.107   5.561 -0.4321 -0.0051 -0.2022
   69bbb    H13 2090   8.092   9.089   5.661  0.5764  2.0197 -0.2068
   69bbb    H14 2091   8.058   9.004   5.525  0.6129  0.1335 -0.3862
   69bbb     C8 2092   8.414   9.586   5.856  0.3016  0.6037  0.3654
   69bbb    H15 2093   8.335   9.662   5.862 -0.5125 -0.3036  1.6196
   69bbb    H16 2094   8.437   9.564   5.961  2.6035  0.6272 -0.0900
   69bbb     C9 2095   8.373   9.582   5.186  0.2137  0.5565  0.4749
   69bbb    H17 2096   8.439   9.652   5.133  0.0234 -0.1341 -0.7162
   69bbb    H18 2097   8.275   9.622   5.156  0.6137  0.3490 -1.2106
   69bbb     O1 2098   7.912   9.144   5.570 -0.4232  1.0004  0.0682
   69bbb    H19 2099   8.391   9.321   5.515  0.9154  1.2600  1.2040
   70bbb     N1 2100   4.437  10.287   5.251  0.8317 -0.6689  0.6721
   70bbb     C1 2101   4.286  10.234   5.224  0.2221 -0.4357 -0.7177
   70bbb     H1 2102   4.251  10.224   5.121 -0.2257 -1.4562 -0.4821
   70bbb     H2 2103   4.229  10.314   5.271  1.9871  1.3454 -1.4518
   70bbb     C2 2104   4.462  10.422   5.190 -0.2209  0.0142  0.3044
   70bbb     H3 2105   4.549  10.477   5.228 -0.4722  1.2604 -0.8469
   70bbb     H4 2106   4.379  10.488   5.215  2.5900  3.3015  1.7073
   70bbb     C3 2107   4.454  10.304   5.403 -0.3682  0.3558 -0.3454
   70bbb     H5 2108   4.432  10.205   5.445 -0.8848  0.8215  0.5145
   70bbb     H6 2109   4.369  10.361   5.441  0.6051  1.2027  0.6096
   70bbb     C4 2110   4.588  10.358   5.462 -0.6723  0.0342 -0.1098
   70bbb     H7 2111   4.617  10.455   5.420 -0.1919 -0.2705 -0.4917
   70bbb     H8 2112   4.663  10.284   5.432  0.6298  0.0312  2.8401
   70bbb     C5 2113   4.248  10.097   5.289  0.2150 -0.1130 -0.2385
   70bbb     H9 2114   4.278  10.091   5.394  0.1091 -1.5154 -0.2607
   70bbb    H10 2115   4.296  10.014   5.235  0.6871  0.6633 -1.0440
   70bbb     C6 2116   4.476  10.424   5.030 -0.2759  0.4266 -0.8463
   70bbb    H11 2117   4.467  10.528   4.997 -1.0159  1.2503  1.7297
   70bbb    H12 2118   4.397  10.362   4.986 -1.4478  1.3843 -0.1541
   70bbb     C7 2119   4.579  10.374   5.616 -0.2536 -0.6247  0.1910
   70bbb    H13 2120   4.518  10.460   5.647 -0.8009 -0.9252 -0.0507
   70bbb    H14 2121   4.678  10.406   5.652  0.0592 -3.7365  2.5307
   70bbb     C8 2122   4.611  10.379   4.978 -0.6577  0.3915 -0.4413
   70bbb    H15 2123   4.682  10.463   4.980  0.4322 -0.5221 -0.3858
   70bbb    H16 2124   4.652  10.293   5.032  1.8108 -0.1102 -2.9360
   70bbb     C9 2125   4.097  10.080   5.276  0.1268 -0.2335 -0.2248
   70bbb    H17 2126   4.049  10.170   5.316 -1.8313 -1.2858 -0.1071
   70bbb    H18 2127   4.067   9.995   5.338 -0.3830  0.2597  0.2170
   70bbb     O1 2128   4.542  10.252   5.685 -0.2062  0.0001 -0.9837
   70bbb    H19 2129   4.498  10.216   5.210 -0.5373 -2.0901  0.9956
   71bbb     N1 2130   4.905  10.780   6.039 -0.1975 -0.2646  0.3200
   71bbb     C1 2131   4.924  10.931   6.017 -0.4065 -0.4145 -0.8398
   71bbb     H1 2132   4.909  10.975   6.115  1.2848 -2.5254  0.4583
   71bbb     H2 2133   4.846  10.971   5.953  1.5596  1.5542 -2.1443
   71bbb     C2 2134   4.772  10.761   6.112 -0.7126 -0.1318 -0.1148
   71bbb     H3 2135   4.779  10.831   6.195 -1.3120  3.1577 -2.6502
   71bbb     H4 2136   4.776  10.658   6.148 -0.2699 -0.6940 -1.6694
   71bbb     C3 2137   4.919  10.706   5.907 -0.4659 -0.2914 -0.4428
   71bbb     H5 2138   5.019  10.725   5.867 -0.6325 -0.1051 -0.7735
   71bbb     H6 2139   4.846  10.753   5.840 -0.2801 -1.2969 -1.3812
   71bbb     C4 2140   4.896  10.551   5.902 -0.8636 -0.5719  0.4718
   71bbb     H7 2141   4.788  10.540   5.913 -0.8104 -0.9464  0.6781
   71bbb     H8 2142   4.940  10.492   5.984  0.0684 -0.4787  0.0528
   71bbb     C5 2143   5.065  10.963   5.971 -0.0286  1.2360  0.5484
   71bbb     H9 2144   5.085  10.903   5.882  0.8670  1.2364  0.7429
   71bbb    H10 2145   5.138  10.923   6.042  0.7885  2.2321  0.3021
   71bbb     C6 2146   4.645  10.786   6.025  0.3231 -0.5302  0.2888
   71bbb    H11 2147   4.613  10.692   5.978 -1.5251 -0.2955  1.0113
   71bbb    H12 2148   4.644  10.870   5.954 -1.2353  0.1301  1.0534
   71bbb     C7 2149   4.946  10.488   5.778 -0.4384  0.5400  0.0571
   71bbb    H13 2150   5.055  10.497   5.766 -0.3187 -2.0131 -1.3845
   71bbb    H14 2151   4.897  10.539   5.693  0.6153 -1.0473 -1.5807
   71bbb     C8 2152   4.519  10.817   6.116 -0.3357  0.0863  0.3824
   71bbb    H15 2153   4.446  10.868   6.052  1.7187  1.9424 -0.6410
   71bbb    H16 2154   4.472  10.725   6.152 -0.5840 -0.6327 -1.6484
   71bbb     C9 2155   5.090  11.111   5.947  0.7493  0.7440 -0.6727
   71bbb    H17 2156   4.997  11.147   5.902  0.3454  0.8777  0.2357
   71bbb    H18 2157   5.178  11.132   5.886  2.5665  0.9972  1.8873
   71bbb     O1 2158   4.903  10.350   5.769 -0.2063  0.3389  0.3124
   71bbb    H19 2159   4.979  10.751   6.105 -0.7408 -1.9486  0.2392
   72bbb     N1 2160   5.810  10.960   5.722 -0.0495  1.1363  0.4051
   72bbb     C1 2161   5.841  10.917   5.578 -0.2674 -0.1455  0.5706
   72bbb     H1 2162   5.923  10.975   5.535  0.8164  0.5832  3.3981
   72bbb     H2 2163   5.754  10.956   5.524  0.0114 -2.3120 -1.6059
   72bbb     C2 2164   5.774  11.104   5.725  0.1684  0.1433 -0.3155
   72bbb     H3 2165   5.768  11.147   5.825  2.9363  1.4082 -0.6256
   72bbb     H4 2166   5.678  11.117   5.674  0.5226  0.2003 -0.9866
   72bbb     C3 2167   5.681  10.876   5.776 -0.2049  0.0074 -0.6146
   72bbb     H5 2168   5.653  10.916   5.874 -0.2256  1.6959 -1.2776
   72bbb     H6 2169   5.715  10.774   5.792  1.3892  0.3802 -1.4779
   72bbb     C4 2170   5.557  10.858   5.681 -0.4323  0.0190  0.3108
   72bbb     H7 2171   5.593  10.838   5.579  0.0186 -0.4868  0.5652
   72bbb     H8 2172   5.503  10.954   5.676  0.0079  0.2536 -0.0134
   72bbb     C5 2173   5.880  10.764   5.543  0.7859 -0.5550 -0.1537
   72bbb     H9 2174   5.788  10.706   5.555 -0.7386  1.1359 -2.6326
   72bbb    H10 2175   5.959  10.735   5.612  2.8111  0.6407 -1.8521
   72bbb     C6 2176   5.855  11.201   5.642  0.4358  0.0823 -0.1496
   72bbb    H11 2177   5.861  11.164   5.539 -0.6725 -2.4629  0.6078
   72bbb    H12 2178   5.962  11.197   5.664  0.9288  0.7602 -2.1798
   72bbb     C7 2179   5.462  10.740   5.704 -0.4015 -0.2791  0.0317
   72bbb    H13 2180   5.370  10.760   5.647  0.7125  0.9569 -1.4440
   72bbb    H14 2181   5.447  10.738   5.813  1.0104 -0.9858  0.2397
   72bbb     C8 2182   5.815  11.350   5.649  0.9267 -0.6444 -0.8695
   72bbb    H15 2183   5.830  11.388   5.751 -0.3685 -0.2077 -0.8127
   72bbb    H16 2184   5.877  11.405   5.577 -0.3496 -0.3014 -1.7492
   72bbb     C9 2185   5.935  10.757   5.398  0.0454 -0.2151 -0.1056
   72bbb    H17 2186   5.940  10.649   5.376  1.6510 -0.0176 -0.8612
   72bbb    H18 2187   6.039  10.791   5.409  0.4610 -1.1382 -1.0208
   72bbb     O1 2188   5.524  10.619   5.659  0.0857  0.1532  0.7620
   72bbb    H19 2189   5.892  10.938   5.780  0.6397 -1.4319 -1.3603
   73bbb     N1 2190   5.543  10.183   5.260 -0.3137  0.1316  0.3720
   73bbb     C1 2191   5.613  10.188   5.131  0.3645 -0.0058 -0.2061
   73bbb     H1 2192   5.647  10.292   5.123 -2.8764  1.4292  2.2921
   73bbb     H2 2193   5.538  10.178   5.052 -1.1546 -0.3170  1.2141
   73bbb     C2 2194   5.443  10.292   5.267 -0.1775 -0.1157 -0.8482
   73bbb     H3 2195   5.496  10.387   5.262  0.2176 -0.3794 -2.4588
   73bbb     H4 2196   5.391  10.282   5.362 -1.8785 -0.7622 -1.8080
   73bbb     C3 2197   5.468  10.049   5.282 -0.2283  0.2245  0.0589
   73bbb     H5 2198   5.539   9.969   5.259 -0.7678 -0.3887  0.4866
   73bbb     H6 2199   5.389  10.052   5.208  0.0507  0.6064 -0.2244
   73bbb     C4 2200   5.417  10.011   5.421 -0.4242  0.0898 -0.3713
   73bbb     H7 2201   5.363   9.916   5.426  1.2146 -0.8629 -0.1592
   73bbb     H8 2202   5.346  10.090   5.447  0.6625  1.0992 -0.3565
   73bbb     C5 2203   5.729  10.093   5.126  0.4477  0.0753  0.7191
   73bbb     H9 2204   5.692   9.992   5.104 -0.2985  0.8279 -1.7716
   73bbb    H10 2205   5.786  10.096   5.220  0.6731  0.0148  0.5842
   73bbb     C6 2206   5.336  10.305   5.153  0.0249 -0.2301 -0.1674
   73bbb    H11 2207   5.268  10.218   5.155  0.7949 -0.8444  1.6997
   73bbb    H12 2208   5.373  10.315   5.050  0.5369  3.4498  0.2475
   73bbb     C7 2209   5.535   9.994   5.524  0.8769  0.4733  0.5868
   73bbb    H13 2210   5.580   9.895   5.510 -0.4621 -0.6342  3.3387
   73bbb    H14 2211   5.499   9.998   5.627  3.3490  1.2520  1.4836
   73bbb     C8 2212   5.253  10.426   5.182  0.0844  0.2310 -1.5502
   73bbb    H15 2213   5.174  10.445   5.107 -1.4725  1.6065  0.3316
   73bbb    H16 2214   5.196  10.423   5.276  1.1664 -0.1808 -0.9000
   73bbb     C9 2215   5.826  10.138   5.023  1.1623  0.4243 -0.4289
   73bbb    H17 2216   5.890  10.050   5.011  0.0737 -0.2032 -1.9474
   73bbb    H18 2217   5.873  10.230   5.059  0.7133  0.2590  0.6126
   73bbb     O1 2218   5.634  10.098   5.497  0.1059  0.5618 -0.2991
   73bbb    H19 2219   5.610  10.198   5.337  1.8630  1.2160 -1.5943
   74bbb     N1 2220   7.003  11.672   7.154  0.3260  0.6111 -0.1306
   74bbb     C1 2221   7.018  11.578   7.281 -0.6309  0.3289  0.2903
   74bbb     H1 2222   6.988  11.479   7.245 -0.6236  0.3794  0.1442
   74bbb     H2 2223   6.949  11.613   7.357  0.4471 -0.9449  1.9378
   74bbb     C2 2224   7.103  11.640   7.046 -0.3364  0.3731 -0.8083
   74bbb     H3 2225   7.064  11.559   6.985 -3.0849  0.3017  0.9108
   74bbb     H4 2226   7.191  11.595   7.093 -0.3285  0.5166 -0.6851
   74bbb     C3 2227   6.855  11.672   7.101  0.3104 -0.3590 -0.1702
   74bbb     H5 2228   6.825  11.567   7.106  1.4025 -0.6168  2.1231
   74bbb     H6 2229   6.855  11.697   6.994 -0.5913 -0.0637 -0.1099
   74bbb     C4 2230   6.761  11.763   7.172  0.0049 -0.1002  0.5579
   74bbb     H7 2231   6.800  11.865   7.161 -0.6423  0.3166  1.9452
   74bbb     H8 2232   6.757  11.722   7.274  1.5548 -4.4775 -0.9427
   74bbb     C5 2233   7.156  11.575   7.344  0.0279 -0.4091 -0.0192
   74bbb     H9 2234   7.234  11.542   7.274  1.4940 -0.0158  1.3633
   74bbb    H10 2235   7.161  11.492   7.415 -1.1549  0.8350  1.5801
   74bbb     C6 2236   7.148  11.753   6.952 -0.3350 -0.5839  0.5020
   74bbb    H11 2237   7.210  11.830   6.999 -1.0525  0.2261  0.1490
   74bbb    H12 2238   7.070  11.797   6.888  0.2661  1.3293  1.0213
   74bbb     C7 2239   6.617  11.757   7.118 -0.6850  0.0902 -0.0410
   74bbb    H13 2240   6.570  11.849   7.155  2.0700  1.0447  1.4289
   74bbb    H14 2241   6.571  11.661   7.145  0.0547 -0.2603  0.0287
   74bbb     C8 2242   7.241  11.686   6.847 -0.4603 -0.6498 -0.2426
   74bbb    H15 2243   7.267  11.756   6.767 -1.6698  1.5758  1.1977
   74bbb    H16 2244   7.339  11.669   6.891 -1.3627 -1.2945  1.6295
   74bbb     C9 2245   7.203  11.702   7.423 -0.5091  0.2246 -0.0422
   74bbb    H17 2246   7.220  11.794   7.366 -1.2897  0.9290  0.8339
   74bbb    H18 2247   7.302  11.683   7.466 -0.6050  1.5088  0.7821
   74bbb     O1 2248   6.624  11.771   6.985  0.0618  0.8997 -0.0530
   74bbb    H19 2249   7.026  11.769   7.182 -1.1546  1.0387 -0.2848
   75bbb     N1 2250   6.939  11.934   6.250  0.0805  0.2534 -0.0184
   75bbb     C1 2251   6.827  12.028   6.198  0.1092 -0.7954  0.6171
   75bbb     H1 2252   6.771  12.063   6.284  0.0289  2.3399 -0.5769
   75bbb     H2 2253   6.765  11.967   6.132 -0.0649 -1.0212  0.9933
   75bbb     C2 2254   7.011  11.844   6.147  0.6551  0.5178 -0.3527
   75bbb     H3 2255   7.077  11.776   6.201  0.0513  0.5821  0.4815
   75bbb     H4 2256   7.077  11.912   6.093  0.9328 -0.5637 -1.4284
   75bbb     C3 2257   7.036  12.006   6.339 -0.5272  0.1064 -0.3444
   75bbb     H5 2258   6.976  12.059   6.413 -1.3628 -0.7696 -0.3694
   75bbb     H6 2259   7.106  12.067   6.282  0.3957 -1.2023 -0.6736
   75bbb     C4 2260   7.128  11.906   6.415  0.5403  0.1908  0.6381
   75bbb     H7 2261   7.196  11.978   6.461  1.5197  0.4339 -1.0875
   75bbb     H8 2262   7.190  11.853   6.341 -3.6222 -3.3445 -0.7542
   75bbb     C5 2263   6.881  12.156   6.122 -0.1697 -0.0137  0.7469
   75bbb     H9 2264   6.959  12.131   6.049  0.8632  2.0197  1.0622
   75bbb    H10 2265   6.924  12.230   6.191  1.5160 -0.0103 -0.2330
   75bbb     C6 2266   6.923  11.763   6.046  0.3078  0.1786  0.5076
   75bbb    H11 2267   6.984  11.751   5.956  1.2482  3.2275  0.6370
   75bbb    H12 2268   6.848  11.832   6.006  2.0286  1.5783 -0.4618
   75bbb     C7 2269   7.059  11.816   6.516  0.1732 -0.0150 -0.0862
   75bbb    H13 2270   7.016  11.877   6.597  0.8170  0.4845 -0.1134
   75bbb    H14 2271   7.133  11.748   6.562 -1.0249 -1.8882 -0.8037
   75bbb     C8 2272   6.867  11.622   6.094  0.9064 -0.6807  0.7458
   75bbb    H15 2273   6.804  11.623   6.184 -1.7338  0.0859 -0.9659
   75bbb    H16 2274   6.800  11.585   6.015 -1.0326 -1.1733  2.5359
   75bbb     C9 2275   6.773  12.217   6.036 -0.5632  0.8857  0.6554
   75bbb    H17 2276   6.811  12.310   5.993 -1.0990  0.6007 -0.4517
   75bbb    H18 2277   6.683  12.235   6.096 -1.0714  1.7139 -0.3373
   75bbb     O1 2278   6.954  11.737   6.451  0.8350 -0.4380  0.0290
   75bbb    H19 2279   6.894  11.861   6.307 -1.0445 -1.3025 -2.6960
   76bbb     N1 2280   7.013  11.222   7.829  0.8013  0.3272  0.1647
   76bbb     C1 2281   7.099  11.326   7.759 -0.3881  0.8722  0.0290
   76bbb     H1 2282   7.043  11.363   7.673 -0.7510  1.2494  0.4258
   76bbb     H2 2283   7.185  11.277   7.712 -2.7416 -2.1436 -1.5216
   76bbb     C2 2284   6.869  11.282   7.851 -0.4876 -0.4703 -0.3529
   76bbb     H3 2285   6.884  11.383   7.888  2.6078 -0.2123 -1.9185
   76bbb     H4 2286   6.825  11.224   7.932 -0.3523  0.2716  0.2591
   76bbb     C3 2287   7.011  11.097   7.737 -0.9480 -0.5014  0.3436
   76bbb     H5 2288   7.003  11.145   7.639 -0.2604 -0.7212  0.1769
   76bbb     H6 2289   6.918  11.040   7.737 -0.9862 -0.4882 -1.2903
   76bbb     C4 2290   7.124  10.991   7.747 -0.1411  0.5517 -0.2208
   76bbb     H7 2291   7.107  10.933   7.839  0.1076 -0.0316 -0.5363
   76bbb     H8 2292   7.216  11.050   7.750 -1.0783  2.1171 -0.9488
   76bbb     C5 2293   7.148  11.434   7.851 -0.2627 -0.1987 -0.0332
   76bbb     H9 2294   7.189  11.392   7.944 -0.9817 -0.9770 -0.0493
   76bbb    H10 2295   7.065  11.500   7.879 -0.7771 -0.6221 -0.5250
   76bbb     C6 2296   6.787  11.289   7.723  0.2930  0.1072 -0.6867
   76bbb    H11 2297   6.749  11.190   7.696 -3.4060  0.5861  1.9992
   76bbb    H12 2298   6.840  11.332   7.637 -0.6368  0.2701 -1.1987
   76bbb     C7 2299   7.133  10.895   7.629 -0.0325 -0.9661  0.3614
   76bbb    H13 2300   7.049  10.824   7.625 -0.5594 -0.3419  0.1063
   76bbb    H14 2301   7.220  10.831   7.643  1.1845  0.9295  2.0922
   76bbb     C8 2302   6.660  11.366   7.744  0.3198 -0.6987 -0.2163
   76bbb    H15 2303   6.600  11.384   7.654 -0.3323 -1.0845  0.1417
   76bbb    H16 2304   6.600  11.317   7.821  1.0868  0.8757  1.4443
   76bbb     C9 2305   7.259  11.516   7.791  0.2310 -0.4269 -0.8766
   76bbb    H17 2306   7.257  11.612   7.844 -1.3403 -0.3569 -1.0177
   76bbb    H18 2307   7.237  11.555   7.691  1.3640  0.8302 -0.6566
   76bbb     O1 2308   7.151  10.972   7.506 -0.2260 -0.4337  0.3411
   76bbb    H19 2309   7.061  11.195   7.917  1.1381  1.4016  0.3165
   77bbb     N1 2310   7.694  10.710   6.994 -0.2645 -0.7218  0.6867
   77bbb     C1 2311   7.781  10.749   6.869 -0.1141 -0.4599 -0.2475
   77bbb     H1 2312   7.880  10.782   6.901  0.2012  2.3580 -3.5363
   77bbb     H2 2313   7.725  10.833   6.825  1.3463  0.5206 -0.3004
   77bbb     C2 2314   7.693  10.827   7.091  0.2142  0.2781 -0.0014
   77bbb     H3 2315   7.629  10.782   7.168 -0.1829 -0.7951 -0.9192
   77bbb     H4 2316   7.640  10.910   7.044  1.1119  0.5498 -0.5481
   77bbb     C3 2317   7.553  10.686   6.943 -0.2668 -0.0677 -0.0450
   77bbb     H5 2318   7.566  10.612   6.863 -0.9590 -1.4243  1.0563
   77bbb     H6 2319   7.515  10.781   6.902  0.1636  0.3581  0.5354
   77bbb     C4 2320   7.445  10.633   7.049 -0.0327 -0.1818  0.2687
   77bbb     H7 2321   7.423  10.704   7.129 -0.6146  0.2669 -0.2758
   77bbb     H8 2322   7.481  10.545   7.103 -0.3502 -1.1803 -1.0853
   77bbb     C5 2323   7.792  10.640   6.765 -0.3238 -0.2828  0.2300
   77bbb     H9 2324   7.720  10.559   6.751 -0.1779 -0.5043  0.7340
   77bbb    H10 2325   7.885  10.590   6.797  0.1106  1.5483  2.1046
   77bbb     C6 2326   7.827  10.865   7.147 -0.2189  0.6536  0.2223
   77bbb    H11 2327   7.911  10.885   7.080  0.4964  0.2737  0.9800
   77bbb    H12 2328   7.863  10.791   7.220 -2.7420  1.3268  2.3160
   77bbb     C7 2329   7.307  10.609   6.984  0.2240 -0.2091 -0.8079
   77bbb    H13 2330   7.241  10.558   7.055 -0.1122  3.0832  1.4965
   77bbb    H14 2331   7.317  10.544   6.896 -1.3099  0.1897 -1.2980
   77bbb     C8 2332   7.819  10.994   7.224  0.3765 -0.8808  0.4173
   77bbb    H15 2333   7.816  10.977   7.333  3.7517 -1.6199  0.4999
   77bbb    H16 2334   7.913  11.049   7.211 -0.0597 -0.6690 -2.4835
   77bbb     C9 2335   7.806  10.707   6.630 -0.0949  0.1901 -0.2914
   77bbb    H17 2336   7.832  10.631   6.555  0.2869 -1.2784  1.2570
   77bbb    H18 2337   7.897  10.768   6.628 -0.4083  0.6787 -2.9169
   77bbb     O1 2338   7.251  10.734   6.928 -0.0189 -0.4581  0.2884
   77bbb    H19 2339   7.725  10.624   7.042 -2.5471 -2.4722 -0.7736
   78bbb     N1 2340   6.164  10.793   9.686  0.0309  0.1894 -0.1719
   78bbb     C1 2341   6.209  10.901   9.782  0.2880  0.3751 -0.5818
   78bbb     H1 2342   6.263  10.970   9.718 -0.4062 -1.2662 -3.0621
   78bbb     H2 2343   6.276  10.863   9.859 -0.5333  1.0993  0.5223
   78bbb     C2 2344   6.091  10.682   9.762 -0.0672 -1.1200 -0.1811
   78bbb     H3 2345   6.031  10.641   9.681 -1.7237 -0.1056  0.4874
   78bbb     H4 2346   6.028  10.743   9.828  1.3438  1.5025 -1.1166
   78bbb     C3 2347   6.076  10.852   9.576 -0.3809  0.0951  0.6728
   78bbb     H5 2348   6.112  10.951   9.546 -2.2527  1.3921  2.4280
   78bbb     H6 2349   5.977  10.871   9.615 -0.6193  2.1621 -0.7771
   78bbb     C4 2350   6.072  10.776   9.448  0.3098 -0.4037 -0.1496
   78bbb     H7 2351   6.032  10.675   9.457 -0.2465 -0.2354 -0.6887
   78bbb     H8 2352   6.176  10.760   9.417  0.3610  2.0823 -1.5070
   78bbb     C5 2353   6.103  10.980   9.860  0.2777  1.0507  0.1316
   78bbb     H9 2354   6.025  10.989   9.783 -0.5179 -1.7181  0.4862
   78bbb    H10 2355   6.140  11.082   9.873  0.7244  0.7335  1.4467
   78bbb     C6 2356   6.170  10.581   9.848  0.4948  0.2828 -0.1317
   78bbb    H11 2357   6.221  10.642   9.923  1.5192  0.3621 -0.8751
   78bbb    H12 2358   6.251  10.535   9.791  0.0214  1.6760 -2.0375
   78bbb     C7 2359   6.007  10.863   9.337  0.1086 -0.3919  0.5852
   78bbb    H13 2360   6.004  10.832   9.232  0.8577  0.9642  0.1364
   78bbb    H14 2361   6.083  10.942   9.337  1.3534 -1.4773  2.5564
   78bbb     C8 2362   6.081  10.476   9.919  0.6151  0.4721 -0.4291
   78bbb    H15 2363   6.031  10.419   9.839  1.5899 -2.0502  0.6608
   78bbb    H16 2364   6.141  10.398   9.967  1.1767 -0.8221 -3.0788
   78bbb     C9 2365   6.032  10.933   9.986 -0.1687 -0.3206 -0.3718
   78bbb    H17 2366   5.957  10.854   9.968 -0.7818  0.0792  0.3447
   78bbb    H18 2367   5.986  11.020  10.034 -0.5227 -0.3041 -0.7325
   78bbb     O1 2368   5.878  10.915   9.378 -0.2714 -0.4879 -0.5305
   78bbb    H19 2369   6.252  10.754   9.650  0.0974  0.2112 -0.0319
   79bbb     N1 2370   5.649  11.200   9.717  0.7522 -0.1084  0.1015
   79bbb     C1 2371   5.660  11.052   9.725 -0.5088  0.4982 -0.5867
   79bbb     H1 2372   5.651  11.022   9.829  0.3631 -0.8992 -0.8930
   79bbb     H2 2373   5.754  11.024   9.677 -0.4420 -1.6725  0.7022
   79bbb     C2 2374   5.763  11.256   9.802  0.1535  0.1142  0.1015
   79bbb     H3 2375   5.760  11.362   9.777 -0.0707  0.3131  0.9482
   79bbb     H4 2376   5.857  11.216   9.763  0.1297  1.0221 -0.9334
   79bbb     C3 2377   5.677  11.234   9.572  0.4543  0.0087  0.2134
   79bbb     H5 2378   5.624  11.176   9.497 -1.6624  0.0109  1.6078
   79bbb     H6 2379   5.781  11.206   9.555  0.7678  2.3908 -2.7190
   79bbb     C4 2380   5.666  11.384   9.542 -0.1574 -0.6004 -0.6343
   79bbb     H7 2381   5.761  11.433   9.568 -0.7961  0.2535  0.1316
   79bbb     H8 2382   5.586  11.427   9.604  1.4906  1.7955 -0.0171
   79bbb     C5 2383   5.541  10.985   9.666 -0.0806  0.4610 -0.5936
   79bbb     H9 2384   5.559  10.876   9.668  1.1519  0.6655  0.6235
   79bbb    H10 2385   5.520  11.021   9.565  1.9667  0.6264 -1.0124
   79bbb     C6 2386   5.748  11.238   9.960  0.3464 -0.2146  0.5451
   79bbb    H11 2387   5.762  11.131   9.980 -0.4631 -0.3003  0.6685
   79bbb    H12 2388   5.645  11.249   9.994  0.2295 -0.4478  0.2701
   79bbb     C7 2389   5.646  11.412   9.388 -0.2209  0.4660 -0.2130
   79bbb    H13 2390   5.692  11.508   9.363  1.5120 -0.6051 -1.3382
   79bbb    H14 2391   5.538  11.424   9.375 -0.8299 -2.2827  1.5600
   79bbb     C8 2392   5.860  11.306  10.037 -0.1899 -0.1117  0.0912
   79bbb    H15 2393   5.845  11.415  10.042 -3.0344 -0.4636  3.8587
   79bbb    H16 2394   5.863  11.269  10.140  0.9587  0.8887  0.4396
   79bbb     C9 2395   5.418  11.002   9.749  0.1614 -0.8931 -0.2750
   79bbb    H17 2396   5.337  10.946   9.702 -0.4678 -0.7473  0.6086
   79bbb    H18 2397   5.405  11.108   9.773  4.6418 -0.1555 -0.2599
   79bbb     O1 2398   5.709  11.305   9.313 -0.0354 -0.2831  0.2374
   79bbb    H19 2399   5.558  11.236   9.750  0.6680 -1.3169  1.2346
   80bbb     N1 2400   4.559  10.989   9.446 -0.3865  0.5491  0.0935
   80bbb     C1 2401   4.707  11.012   9.485  0.2317 -0.3464 -0.0283
   80bbb     H1 2402   4.778  10.986   9.406  0.1319 -1.3692  0.2035
   80bbb     H2 2403   4.732  10.946   9.569  0.1430  0.7094  0.8580
   80bbb     C2 2404   4.515  11.091   9.350 -0.0122  0.2931  0.7087
   80bbb     H3 2405   4.574  11.078   9.259 -0.3558  0.0532  0.5195
   80bbb     H4 2406   4.556  11.181   9.397  0.4884 -0.8394  2.5467
   80bbb     C3 2407   4.534  10.843   9.406  0.6940  0.1570  0.1339
   80bbb     H5 2408   4.425  10.839   9.409  0.6868  0.2352 -0.0326
   80bbb     H6 2409   4.571  10.782   9.489  2.2546  0.7751 -0.0704
   80bbb     C4 2410   4.595  10.795   9.268 -0.2427 -0.1029 -0.0077
   80bbb     H7 2411   4.694  10.750   9.284 -0.1906  0.2585  0.7509
   80bbb     H8 2412   4.608  10.869   9.188 -1.2105  0.0968  0.0064
   80bbb     C5 2413   4.747  11.154   9.541  0.0471  0.6740 -0.3638
   80bbb     H9 2414   4.717  11.225   9.463  1.5752  0.3773 -1.2646
   80bbb    H10 2415   4.856  11.161   9.552  0.2882 -0.6972 -1.5736
   80bbb     C6 2416   4.360  11.099   9.323 -0.2688 -0.1877  0.0823
   80bbb    H11 2417   4.321  11.003   9.286 -0.4518 -0.4891  1.0441
   80bbb    H12 2418   4.339  11.179   9.250 -0.1127 -0.5476 -0.3647
   80bbb     C7 2419   4.500  10.680   9.211 -1.1331 -0.8424 -0.8033
   80bbb    H13 2420   4.393  10.705   9.216 -0.9557 -0.2912  1.1958
   80bbb    H14 2421   4.503  10.601   9.287  4.1115  0.1437  0.4002
   80bbb     C8 2422   4.279  11.117   9.449  0.2968  0.4226  0.0689
   80bbb    H15 2423   4.174  11.143   9.429 -0.2082 -1.4781  0.0223
   80bbb    H16 2424   4.276  11.018   9.497  2.4462 -0.3578 -1.2525
   80bbb     C9 2425   4.682  11.177   9.676  0.6217  0.6055 -0.2437
   80bbb    H17 2426   4.576  11.189   9.652  0.0210 -3.9009 -0.7293
   80bbb    H18 2427   4.720  11.269   9.722 -2.5073  1.1106  1.5961
   80bbb     O1 2428   4.534  10.648   9.076  0.2977 -0.0329  0.2226
   80bbb    H19 2429   4.509  11.001   9.536  1.0847 -4.8151  2.0157
   81bbb     N1 2430   3.952  10.226   9.001  0.1702  0.4221  0.0028
   81bbb     C1 2431   3.852  10.114   9.028  0.4440 -0.6149  0.1235
   81bbb     H1 2432   3.830  10.127   9.134 -3.0077 -2.2755 -0.2507
   81bbb     H2 2433   3.916  10.028   9.009  0.9603  0.2689 -2.5917
   81bbb     C2 2434   4.064  10.214   9.101  0.2224 -0.2889 -0.3339
   81bbb     H3 2435   4.118  10.122   9.080  1.2974  0.0131  0.9828
   81bbb     H4 2436   4.019  10.204   9.200 -2.1283  2.8056 -0.9198
   81bbb     C3 2437   4.010  10.229   8.860 -0.0543  0.5815 -0.3548
   81bbb     H5 2438   4.109  10.275   8.857  0.4479 -0.5192 -1.8648
   81bbb     H6 2439   3.935  10.281   8.801  1.6144  1.8675 -1.4567
   81bbb     C4 2440   4.031  10.094   8.787  0.3649 -0.3500  0.3005
   81bbb     H7 2441   3.941  10.032   8.789 -1.0079  1.5664  1.1133
   81bbb     H8 2442   4.116  10.040   8.830 -0.4201 -0.5463  1.6782
   81bbb     C5 2443   3.717  10.115   8.956 -0.1003 -0.1164 -0.4790
   81bbb     H9 2444   3.671  10.017   8.970  2.2008 -1.2863 -0.6397
   81bbb    H10 2445   3.737  10.121   8.848  1.0917  2.8518 -0.2033
   81bbb     C6 2446   4.151  10.340   9.111 -0.6151  0.5907 -0.5341
   81bbb    H11 2447   4.098  10.406   9.180 -2.3244 -1.1214 -0.1124
   81bbb    H12 2448   4.164  10.397   9.018  2.2614 -1.2662 -1.3889
   81bbb     C7 2449   4.065  10.102   8.629 -0.0407  0.1244  0.4023
   81bbb    H13 2450   3.974  10.135   8.577 -0.0138 -0.6517 -0.1547
   81bbb    H14 2451   4.078   9.997   8.597 -0.3165  0.3623 -0.5220
   81bbb     C8 2452   4.290  10.304   9.170  0.2644 -0.1351  0.1591
   81bbb    H15 2453   4.338  10.403   9.171  1.2544 -0.5657 -1.3757
   81bbb    H16 2454   4.285  10.248   9.265 -0.6140  0.9402  0.7690
   81bbb     C9 2455   3.620  10.236   8.994 -0.2230 -0.3295 -0.1261
   81bbb    H17 2456   3.593  10.214   9.098 -0.1894  0.6683  0.1010
   81bbb    H18 2457   3.535  10.232   8.924  1.2979 -0.7337 -2.0435
   81bbb     O1 2458   4.177  10.181   8.596 -0.2554  0.1501 -0.1896
   81bbb    H19 2459   3.903  10.313   9.027 -2.3187 -1.0158  0.4809
   82bbb     N1 2460   6.759   9.785   9.704 -0.2362 -0.1511  0.6211
   82bbb     C1 2461   6.657   9.699   9.640  0.5857  0.4499  0.1585
   82bbb     H1 2462   6.596   9.765   9.578 -0.4301  1.7706  2.4146
   82bbb     H2 2463   6.591   9.667   9.721  0.3209  0.3608 -0.0910
   82bbb     C2 2464   6.843   9.709   9.808  0.6403  0.1498  0.9314
   82bbb     H3 2465   6.902   9.783   9.861  0.9137  0.8073 -0.2568
   82bbb     H4 2466   6.924   9.663   9.750  0.9087 -0.4967  1.7963
   82bbb     C3 2467   6.852   9.846   9.599  0.0424  0.6351  0.6840
   82bbb     H5 2468   6.904   9.766   9.546 -0.1872  1.1099 -0.2906
   82bbb     H6 2469   6.917   9.913   9.655  0.9053  1.7281 -1.5054
   82bbb     C4 2470   6.782   9.935   9.489 -0.3215 -0.5483  0.5283
   82bbb     H7 2471   6.716  10.010   9.535  0.5426  1.2536 -1.0689
   82bbb     H8 2472   6.726   9.871   9.420  3.4525 -2.2445 -1.2582
   82bbb     C5 2473   6.703   9.582   9.553 -0.6293  0.1413  0.1144
   82bbb     H9 2474   6.780   9.515   9.594  1.7247  1.1664 -2.3770
   82bbb    H10 2475   6.734   9.618   9.455 -1.4102  0.4250 -0.0356
   82bbb     C6 2476   6.769   9.611   9.904  0.9371  0.3535  0.4612
   82bbb    H11 2477   6.710   9.535   9.852  1.5013 -0.3480  0.8202
   82bbb    H12 2478   6.699   9.657   9.975 -0.1548 -1.0124  0.3095
   82bbb     C7 2479   6.890  10.012   9.413  0.7411 -0.2695  0.7461
   82bbb    H13 2480   6.963   9.944   9.366  0.9284  0.1411  0.4433
   82bbb    H14 2481   6.949  10.077   9.479 -0.0832 -0.8277  2.0891
   82bbb     C8 2482   6.869   9.530   9.986 -0.1976 -0.8481 -0.6762
   82bbb    H15 2483   6.933   9.593  10.050  0.1644  0.1944 -2.0249
   82bbb    H16 2484   6.826   9.458  10.057  1.7210 -2.0802 -0.6842
   82bbb     C9 2485   6.577   9.498   9.519 -0.2434 -0.6545  0.1063
   82bbb    H17 2486   6.508   9.488   9.603 -2.3516 -0.5636 -1.5460
   82bbb    H18 2487   6.592   9.395   9.485 -0.1185 -0.9145  0.9386
   82bbb     O1 2488   6.823  10.094   9.308  0.3220 -0.1955  0.3521
   82bbb    H19 2489   6.695   9.849   9.754 -1.9496 -2.5683  1.7486
   83bbb     N1 2490   7.233   9.454   9.064  0.1484 -0.0159  1.1070
   83bbb     C1 2491   7.258   9.559   8.955 -0.2491  0.7828  0.2810
   83bbb     H1 2492   7.343   9.618   8.988 -0.2344  0.5179  0.7453
   83bbb     H2 2493   7.169   9.623   8.951 -0.1214  1.0795  1.6451
   83bbb     C2 2494   7.334   9.475   9.169  0.3432  0.2447  0.0421
   83bbb     H3 2495   7.299   9.416   9.254  0.0796  0.9105  0.4030
   83bbb     H4 2496   7.328   9.582   9.190 -1.6874  0.2312 -0.2874
   83bbb     C3 2497   7.094   9.466   9.122  0.0514 -0.3165  0.0465
   83bbb     H5 2498   7.085   9.571   9.149 -1.0425 -0.7908  1.6571
   83bbb     H6 2499   7.084   9.406   9.213  2.1083  0.5586  0.9150
   83bbb     C4 2500   6.966   9.437   9.030 -0.1846 -0.1044 -0.2224
   83bbb     H7 2501   6.952   9.329   9.021 -0.7582 -0.4147  3.0808
   83bbb     H8 2502   6.976   9.466   8.924  0.1986  1.2301  0.1605
   83bbb     C5 2503   7.294   9.498   8.820 -0.0714  0.2451  0.1671
   83bbb     H9 2504   7.225   9.421   8.784  0.8457  0.0487 -1.2594
   83bbb    H10 2505   7.386   9.442   8.842 -1.2526 -1.0406  2.1247
   83bbb     C6 2506   7.477   9.445   9.126 -0.6763 -0.0641  0.2274
   83bbb    H11 2507   7.524   9.534   9.083 -1.1578 -0.4295 -1.1256
   83bbb    H12 2508   7.483   9.374   9.042  1.2866  1.2963 -0.8532
   83bbb     C7 2509   6.838   9.504   9.074 -0.2669  0.2139  0.3928
   83bbb    H13 2510   6.834   9.494   9.183 -2.3544 -0.9347  0.2622
   83bbb    H14 2511   6.757   9.451   9.022  0.1072 -1.8754  1.8403
   83bbb     C8 2512   7.562   9.404   9.246  0.5579  0.2115  0.1816
   83bbb    H15 2513   7.669   9.397   9.221  0.2961  1.0977 -1.3045
   83bbb    H16 2514   7.561   9.485   9.320 -3.1701  2.0356 -1.6133
   83bbb     C9 2515   7.321   9.610   8.715  0.6864 -0.3419 -0.2064
   83bbb    H17 2516   7.220   9.634   8.679 -0.6316 -0.8649  2.8115
   83bbb    H18 2517   7.373   9.571   8.627 -1.6917 -0.4572 -1.6709
   83bbb     O1 2518   6.837   9.639   9.029 -0.2249 -0.2086  0.2297
   83bbb    H19 2519   7.253   9.362   9.023  4.2241  0.5149  1.5367
   84bbb     N1 2520   7.311  11.293   8.343  0.1611 -0.0460 -0.0342
   84bbb     C1 2521   7.383  11.163   8.337 -0.3569  0.4929 -0.8408
   84bbb     H1 2522   7.435  11.160   8.241  1.2003 -1.8539 -0.0297
   84bbb     H2 2523   7.309  11.084   8.321 -0.4277  0.8018 -2.1659
   84bbb     C2 2524   7.292  11.335   8.199 -0.1256  0.4208 -0.2625
   84bbb     H3 2525   7.195  11.378   8.177 -0.2749  0.4572  0.4516
   84bbb     H4 2526   7.299  11.253   8.128  0.8486  1.1757 -1.0707
   84bbb     C3 2527   7.177  11.269   8.410 -0.6681  0.3124 -0.3925
   84bbb     H5 2528   7.198  11.218   8.503 -0.7708  1.4968  0.2984
   84bbb     H6 2529   7.118  11.208   8.341 -1.9110 -0.0435  0.9509
   84bbb     C4 2530   7.089  11.396   8.442  0.2766 -0.7069 -0.2168
   84bbb     H7 2531   7.102  11.455   8.350  1.3383  1.0340  0.9803
   84bbb     H8 2532   7.123  11.459   8.525 -1.1479  0.5813 -0.5661
   84bbb     C5 2533   7.475  11.123   8.460  0.4456  0.3286  0.0657
   84bbb     H9 2534   7.518  11.026   8.432  2.7372  1.3176 -0.0638
   84bbb    H10 2535   7.415  11.097   8.548 -1.0126 -2.1703 -1.5302
   84bbb     C6 2536   7.393  11.442   8.148 -0.0598 -0.7959 -0.4800
   84bbb    H11 2537   7.396  11.444   8.039 -0.0534  0.8981 -0.4762
   84bbb    H12 2538   7.494  11.423   8.185 -0.1037 -1.5081 -0.7036
   84bbb     C7 2539   6.942  11.373   8.461  0.2655 -0.1021  0.7544
   84bbb    H13 2540   6.897  11.322   8.375  1.1223 -3.1895  1.9670
   84bbb    H14 2541   6.890  11.469   8.462 -0.0443 -0.2355 -0.6494
   84bbb     C8 2542   7.361  11.588   8.195 -0.0760 -0.0340  0.5657
   84bbb    H15 2543   7.386  11.589   8.302  1.9628 -1.5991  0.1788
   84bbb    H16 2544   7.419  11.669   8.150  0.8793 -0.7590  0.4553
   84bbb     C9 2545   7.584  11.226   8.480  0.6157  0.5611 -0.1251
   84bbb    H17 2546   7.650  11.177   8.553  0.4401 -2.3931 -1.7897
   84bbb    H18 2547   7.539  11.316   8.522 -0.4445 -0.3377  0.7233
   84bbb     O1 2548   6.907  11.315   8.591  0.2723  0.0829  0.4413
   84bbb    H19 2549   7.367  11.363   8.394  0.9878  0.1040 -1.1031
   85bbb     N1 2550   6.888  11.796   9.035 -0.3528 -0.4220  0.2407
   85bbb     C1 2551   6.897  11.806   9.182 -0.8119  0.5059 -0.5062
   85bbb     H1 2552   6.986  11.863   9.209 -0.2251 -0.6339  0.0381
   85bbb     H2 2553   6.937  11.711   9.216  0.1675  1.3424  0.7851
   85bbb     C2 2554   6.861  11.930   8.962  0.2185  0.0743 -0.1381
   85bbb     H3 2555   6.951  11.989   8.972 -0.2464  0.5487  1.7732
   85bbb     H4 2556   6.784  11.979   9.022  0.8478  1.0997 -0.1432
   85bbb     C3 2557   7.024  11.747   8.982  0.3267 -0.3977  0.0187
   85bbb     H5 2558   7.106  11.794   9.036  2.2075  1.4064 -3.9681
   85bbb     H6 2559   7.023  11.791   8.882 -0.6817 -0.2572  0.0782
   85bbb     C4 2560   7.035  11.594   8.955  0.2968 -0.5410  0.2176
   85bbb     H7 2561   7.016  11.534   9.045 -0.6378  1.1482  1.2156
   85bbb     H8 2562   7.136  11.569   8.921  0.8558  0.1097  1.3574
   85bbb     C5 2563   6.767  11.848   9.251  0.3156 -0.3239 -0.0755
   85bbb     H9 2564   6.748  11.953   9.227  0.6860  0.1738  1.7153
   85bbb    H10 2565   6.780  11.834   9.359  0.3995  2.1500  0.2834
   85bbb     C6 2566   6.822  11.928   8.812 -0.7033 -0.5486  0.1702
   85bbb    H11 2567   6.729  11.875   8.789 -0.4892 -0.7094 -0.3667
   85bbb    H12 2568   6.897  11.880   8.747 -0.5457  1.8452 -1.5437
   85bbb     C7 2569   6.937  11.553   8.846  0.0982 -0.6690 -0.0877
   85bbb    H13 2570   6.956  11.450   8.811 -1.0927 -0.7920 -0.4020
   85bbb    H14 2571   6.956  11.612   8.755 -1.5218  2.0356  1.2180
   85bbb     C8 2572   6.809  12.076   8.756 -0.3823 -0.1577 -0.0488
   85bbb    H15 2573   6.731  12.082   8.679  0.2588 -2.0045 -0.8936
   85bbb    H16 2574   6.783  12.134   8.846  1.9799  1.4289 -0.2783
   85bbb     C9 2575   6.655  11.759   9.208  0.4763 -0.1756 -0.6692
   85bbb    H17 2576   6.581  11.761   9.289  0.5301  0.6293 -0.6328
   85bbb    H18 2577   6.693  11.656   9.208  1.3959  0.1527 -0.4148
   85bbb     O1 2578   6.799  11.558   8.894 -0.6109 -0.5580  0.0063
   85bbb    H19 2579   6.815  11.726   9.014 -0.6119 -0.0743 -0.0303
   86bbb     N1 2580   2.473  11.125   7.707  0.6982 -0.5161 -0.9719
   86bbb     C1 2581   2.419  11.149   7.853  0.2229 -0.4475  0.3717
   86bbb     H1 2582   2.326  11.205   7.851  0.3267 -0.3118 -0.7712
   86bbb     H2 2583   2.484  11.218   7.907 -2.0307  0.9268  1.5043
   86bbb     C2 2584   2.391  11.207   7.604 -0.1853  0.4314  0.1431
   86bbb     H3 2585   2.446  11.201   7.510  1.6008 -2.4152  1.2467
   86bbb     H4 2586   2.402  11.311   7.635 -0.3633  0.7403 -0.8126
   86bbb     C3 2587   2.617  11.174   7.709 -0.1874  0.4081  0.5246
   86bbb     H5 2588   2.610  11.279   7.739  2.1801  0.7802 -0.0500
   86bbb     H6 2589   2.648  11.165   7.605 -1.0651  0.6215  0.2350
   86bbb     C4 2590   2.722  11.104   7.806 -0.2222 -0.3946  0.5640
   86bbb     H7 2591   2.695  10.998   7.799  0.3180 -0.4953 -0.1771
   86bbb     H8 2592   2.710  11.127   7.912 -1.3857 -2.2696  0.8899
   86bbb     C5 2593   2.389  11.019   7.937 -0.3552  0.3067  0.3492
   86bbb     H9 2594   2.390  11.045   8.044  1.8471  1.4595  0.0978
   86bbb    H10 2595   2.470  10.947   7.925 -1.3708 -0.4768 -2.4758
   86bbb     C6 2596   2.242  11.178   7.584 -0.7153 -0.1026  0.5928
   86bbb    H11 2597   2.181  11.175   7.676 -0.8068 -2.9731  0.5427
   86bbb    H12 2598   2.243  11.074   7.547  2.1984  0.2461 -0.5878
   86bbb     C7 2599   2.869  11.132   7.746 -0.7025  0.3387 -0.4385
   86bbb    H13 2600   2.868  11.097   7.642  0.9335  0.3491 -0.4871
   86bbb    H14 2601   2.944  11.068   7.795  0.7219 -0.4752 -3.4658
   86bbb     C8 2602   2.168  11.249   7.465 -0.8571  0.8471 -0.0145
   86bbb    H15 2603   2.059  11.239   7.462 -1.0214  1.5844  2.0170
   86bbb    H16 2604   2.175  11.357   7.480 -0.0969  0.6317  1.3292
   86bbb     C9 2605   2.247  10.961   7.891 -0.5213 -0.4547 -0.2533
   86bbb    H17 2606   2.247  10.911   7.793 -0.8292  2.1756 -1.7005
   86bbb    H18 2607   2.172  11.041   7.888 -0.1886  0.0216  2.1810
   86bbb     O1 2608   2.894  11.276   7.746 -0.5356 -0.1602 -0.1246
   86bbb    H19 2609   2.481  11.024   7.688 -1.4368 -1.2768  1.5367
   87bbb     N1 2610   2.847  12.490   7.903 -0.1035 -0.1431 -0.5908
   87bbb     C1 2611   2.707  12.523   7.923  0.0050  0.5616  0.0577
   87bbb     H1 2612   2.689  12.574   8.017 -2.2606  0.8666 -0.4751
   87bbb     H2 2613   2.639  12.438   7.930 -1.9515  2.1264  1.3353
   87bbb     C2 2614   2.935  12.616   7.945  0.9619  0.0401  0.2232
   87bbb     H3 2615   2.908  12.704   7.885 -1.3836 -0.3087  0.6933
   87bbb     H4 2616   3.035  12.597   7.906  1.3277  1.0241  0.6368
   87bbb     C3 2617   2.881  12.367   7.981 -0.8493  0.0873 -0.3696
   87bbb     H5 2618   2.809  12.293   7.944 -2.4373  1.4186 -0.0228
   87bbb     H6 2619   2.864  12.393   8.085  0.7866  3.2192 -0.7619
   87bbb     C4 2620   3.026  12.310   7.949 -0.2263  0.0369 -0.0601
   87bbb     H7 2621   3.096  12.363   8.015  1.1165 -0.1972 -1.2386
   87bbb     H8 2622   3.062  12.323   7.846 -0.4707  0.7045 -0.0648
   87bbb     C5 2623   2.658  12.617   7.813  0.1599  0.4316 -0.6259
   87bbb     H9 2624   2.632  12.569   7.718  1.6105 -0.2633 -0.7055
   87bbb    H10 2625   2.735  12.692   7.788  0.4066 -0.2823 -2.1116
   87bbb     C6 2626   2.950  12.650   8.092 -0.1523 -0.4260  0.5165
   87bbb    H11 2627   3.003  12.582   8.161 -0.4592 -1.3516 -0.1353
   87bbb    H12 2628   2.852  12.653   8.140 -0.1114 -2.2007  0.7846
   87bbb     C7 2629   3.033  12.161   7.980  0.8051 -0.0448  1.2665
   87bbb    H13 2630   2.974  12.141   8.070 -1.4483 -2.7891 -0.6450
   87bbb    H14 2631   3.137  12.127   7.981  0.6344 -0.6849 -0.0198
   87bbb     C8 2632   3.013  12.786   8.101 -0.5069  0.2872  0.0535
   87bbb    H15 2633   2.951  12.863   8.052  0.3659  1.9957  1.5122
   87bbb    H16 2634   3.020  12.816   8.206  0.2408  0.2813  0.0120
   87bbb     C9 2635   2.529  12.693   7.854  0.7293  0.1104 -0.1052
   87bbb    H17 2636   2.515  12.776   7.784  0.9316 -1.3103 -1.9029
   87bbb    H18 2637   2.539  12.729   7.957 -0.2336  1.0619 -0.3210
   87bbb     O1 2638   2.962  12.087   7.874 -0.2627 -0.1631  0.6469
   87bbb    H19 2639   2.868  12.468   7.805  2.1228 -1.7503  0.1544
   88bbb     N1 2640   4.645  12.253   7.877 -0.6005 -0.0284 -0.4291
   88bbb     C1 2641   4.555  12.370   7.907  0.0405 -0.7451 -0.3191
   88bbb     H1 2642   4.558  12.408   8.009 -1.6014  1.8409 -1.1270
   88bbb     H2 2643   4.453  12.341   7.880 -0.4983  0.4359  0.3683
   88bbb     C2 2644   4.778  12.279   7.945  0.2680  0.0363 -0.0210
   88bbb     H3 2645   4.764  12.263   8.052  0.3453  1.8504  0.2984
   88bbb     H4 2646   4.803  12.385   7.935  1.5460 -0.3719 -1.5189
   88bbb     C3 2647   4.595  12.121   7.927  0.5627  0.4330  0.3761
   88bbb     H5 2648   4.590  12.111   8.036 -2.5984 -0.4073  0.2679
   88bbb     H6 2649   4.662  12.045   7.888 -1.3714 -0.6209 -1.0149
   88bbb     C4 2650   4.451  12.075   7.886 -0.0701 -0.4656 -0.0643
   88bbb     H7 2651   4.444  12.090   7.778 -1.2827 -1.8012 -0.1958
   88bbb     H8 2652   4.385  12.145   7.938  0.3294 -0.5827  0.6131
   88bbb     C5 2653   4.581  12.490   7.816 -0.2252  0.5892 -0.3933
   88bbb     H9 2654   4.586  12.463   7.710 -0.6420 -2.4827  0.2790
   88bbb    H10 2655   4.683  12.521   7.844  1.5752 -3.8929 -1.1030
   88bbb     C6 2656   4.888  12.190   7.903 -0.0868 -0.0567 -0.3082
   88bbb    H11 2657   4.857  12.088   7.877 -1.1277  0.1081  0.2191
   88bbb    H12 2658   4.957  12.173   7.987 -0.3167 -0.6190 -0.2285
   88bbb     C7 2659   4.415  11.930   7.925  0.4396  0.4891 -0.0579
   88bbb    H13 2660   4.471  11.901   8.015  0.6155  0.8576 -0.0487
   88bbb    H14 2661   4.426  11.855   7.845 -0.5802  0.9758 -0.6790
   88bbb     C8 2662   4.969  12.259   7.789  0.0157 -0.2788 -0.2660
   88bbb    H15 2663   4.994  12.362   7.820 -0.7398 -0.1719  0.0155
   88bbb    H16 2664   5.059  12.201   7.767 -1.0358 -1.3001 -2.1889
   88bbb     C9 2665   4.495  12.610   7.851 -0.2083 -0.6041 -0.3259
   88bbb    H17 2666   4.526  12.643   7.951  1.2099 -0.2435 -0.8633
   88bbb    H18 2667   4.387  12.592   7.858 -0.6758  2.2298  3.7230
   88bbb     O1 2668   4.271  11.932   7.952 -0.2136  0.5179  0.3683
   88bbb    H19 2669   4.647  12.240   7.775 -2.8666  1.7296 -0.8094
   89bbb     N1 2670   3.977  12.318   7.733  0.0641 -0.2563 -0.8035
   89bbb     C1 2671   4.104  12.249   7.682 -0.2016 -0.3364 -0.0949
   89bbb     H1 2672   4.069  12.203   7.589  0.9019  1.7068 -1.5840
   89bbb     H2 2673   4.138  12.169   7.748  0.9051 -1.0915 -1.5124
   89bbb     C2 2674   3.860  12.218   7.709  0.1300 -0.0707 -0.3668
   89bbb     H3 2675   3.884  12.124   7.759  1.3066  0.5671  0.2931
   89bbb     H4 2676   3.841  12.200   7.603 -3.7939 -2.3230  0.5010
   89bbb     C3 2677   3.993  12.350   7.884 -0.1070 -0.9153 -0.0390
   89bbb     H5 2678   3.904  12.400   7.923  0.3397 -0.0768 -0.0899
   89bbb     H6 2679   4.078  12.416   7.901 -1.2545  0.1407  2.0539
   89bbb     C4 2680   4.030  12.241   7.987  0.6676 -0.8066  0.7031
   89bbb     H7 2681   4.097  12.162   7.951 -3.4636 -4.4374  0.0766
   89bbb     H8 2682   3.940  12.181   8.010  0.7011 -0.2912  2.3589
   89bbb     C5 2683   4.223  12.351   7.659  0.1876 -0.5050 -0.8677
   89bbb     H9 2684   4.314  12.294   7.640 -0.7664 -1.8710 -1.4821
   89bbb    H10 2685   4.238  12.409   7.751 -0.2558 -0.1010 -1.0443
   89bbb     C6 2686   3.728  12.262   7.771 -0.4725  0.6440 -0.1805
   89bbb    H11 2687   3.752  12.272   7.878  0.4967 -2.5769 -0.0046
   89bbb    H12 2688   3.655  12.180   7.771 -0.8495  0.9310  1.4877
   89bbb     C7 2689   4.078  12.306   8.122 -0.1397  0.2132  0.8488
   89bbb    H13 2690   4.021  12.397   8.142  0.6040  0.6942  0.8042
   89bbb    H14 2691   4.185  12.330   8.117  0.4210 -2.0158  0.9706
   89bbb     C8 2692   3.673  12.394   7.705  0.2375 -0.0352 -0.4125
   89bbb    H15 2693   3.679  12.388   7.595  2.2387  0.9937 -0.4096
   89bbb    H16 2694   3.570  12.423   7.730  0.6251  1.1130 -0.0737
   89bbb     C9 2695   4.199  12.444   7.535  0.0379 -0.2497  0.2860
   89bbb    H17 2696   4.116  12.510   7.562 -0.5585 -0.3557 -1.1965
   89bbb    H18 2697   4.172  12.388   7.445 -0.7755 -1.2550  1.1291
   89bbb     O1 2698   4.050  12.211   8.218 -0.1686 -0.0414 -0.6624
   89bbb    H19 2699   3.954  12.404   7.680 -1.8045 -0.1158  0.1358
   90bbb     N1 2700   2.318  10.399   6.997 -0.4225  0.0875  0.9027
   90bbb     C1 2701   2.420  10.368   6.886  0.2617  0.0765  0.3013
   90bbb     H1 2702   2.518  10.346   6.928 -0.7763 -1.5189  2.0257
   90bbb     H2 2703   2.426  10.445   6.809  0.3916 -0.2464 -0.0136
   90bbb     C2 2704   2.343  10.294   7.106 -0.5646 -0.0349  0.2002
   90bbb     H3 2705   2.428  10.333   7.162 -0.9539  2.0205 -0.5297
   90bbb     H4 2706   2.369  10.198   7.061  1.2049  0.3659  0.3243
   90bbb     C3 2707   2.356  10.543   7.040 -0.3153  0.2635 -0.0544
   90bbb     H5 2708   2.350  10.610   6.954 -1.3846 -1.7510 -1.6349
   90bbb     H6 2709   2.456  10.553   7.083 -0.9037  2.3573  0.9890
   90bbb     C4 2710   2.256  10.626   7.135 -0.1318 -0.1105  0.8743
   90bbb     H7 2711   2.247  10.589   7.238  1.5092 -3.1719  0.0349
   90bbb     H8 2712   2.159  10.610   7.088  1.3533 -1.4563 -2.0455
   90bbb     C5 2713   2.387  10.248   6.798 -0.2806 -0.0808  0.3218
   90bbb     H9 2714   2.389  10.158   6.861 -2.8115 -0.4032  0.0534
   90bbb    H10 2715   2.470  10.245   6.727 -0.6246  0.2036 -0.0998
   90bbb     C6 2716   2.225  10.267   7.207 -0.2798  0.1774 -0.1948
   90bbb    H11 2717   2.166  10.358   7.221 -1.1089 -0.4821  0.7090
   90bbb    H12 2718   2.267  10.230   7.301 -0.4918 -0.3269 -0.2966
   90bbb     C7 2719   2.293  10.774   7.133  0.2634 -0.7575  0.3448
   90bbb    H13 2720   2.211  10.834   7.173 -0.2222 -1.4160  0.3630
   90bbb    H14 2721   2.304  10.823   7.036  0.6782  0.3363  0.9224
   90bbb     C8 2722   2.128  10.162   7.154 -0.1273 -0.5452  0.3136
   90bbb    H15 2723   2.057  10.143   7.236  2.0435 -1.2360  2.1250
   90bbb    H16 2724   2.076  10.204   7.067  0.9035  2.5727  1.0716
   90bbb     C9 2725   2.248  10.253   6.728 -0.2882 -0.5934 -0.0189
   90bbb    H17 2726   2.242  10.172   6.655 -0.0403 -2.1129  1.5922
   90bbb    H18 2727   2.239  10.351   6.680 -1.8474 -0.4284  0.5388
   90bbb     O1 2728   2.419  10.786   7.211  0.2948 -0.2670 -0.1597
   90bbb    H19 2729   2.219  10.402   6.968  0.0200  2.0425 -0.6926
   91bbb     N1 2730   2.739  10.427   7.668 -0.1879 -1.0683 -0.2448
   91bbb     C1 2731   2.837  10.308   7.663  0.8124 -0.2395  0.0720
   91bbb     H1 2732   2.779  10.228   7.709  0.3592 -0.1293 -0.2900
   91bbb     H2 2733   2.932  10.335   7.708  0.3911  0.6491  0.4702
   91bbb     C2 2734   2.676  10.443   7.799 -0.3254 -0.4180 -0.8911
   91bbb     H3 2735   2.588  10.503   7.778 -1.2176 -1.3939 -0.0751
   91bbb     H4 2736   2.746  10.498   7.862 -0.1676 -0.9711 -0.5770
   91bbb     C3 2737   2.831  10.545   7.637  0.2341 -0.7188 -0.3329
   91bbb     H5 2738   2.891  10.524   7.549  0.3205 -0.2170 -0.3911
   91bbb     H6 2739   2.896  10.561   7.723 -0.9590  2.5453  0.0865
   91bbb     C4 2740   2.756  10.678   7.619 -0.2375 -0.2293  0.4440
   91bbb     H7 2741   2.702  10.695   7.713 -0.0255  1.4651  0.2931
   91bbb     H8 2742   2.683  10.667   7.538  0.2339 -0.3357  0.0323
   91bbb     C5 2743   2.862  10.267   7.516  0.1925  0.5641  0.8294
   91bbb     H9 2744   2.926  10.350   7.483  0.0930  1.2244  2.1908
   91bbb    H10 2745   2.776  10.265   7.449  0.3664  0.5582  0.6061
   91bbb     C6 2746   2.620  10.313   7.875  0.2167  0.5115  0.4748
   91bbb    H11 2747   2.587  10.341   7.976 -0.7332 -0.7481  0.5389
   91bbb    H12 2748   2.696  10.234   7.889  1.5433  1.4857 -0.8497
   91bbb     C7 2749   2.845  10.794   7.587 -0.8938 -0.7676 -0.6235
   91bbb    H13 2750   2.917  10.808   7.668 -1.7082 -0.8593  0.1281
   91bbb    H14 2751   2.782  10.883   7.580 -2.0527 -1.4168  0.9726
   91bbb     C8 2752   2.500  10.251   7.804  0.2877 -0.0232  0.3454
   91bbb    H15 2753   2.479  10.162   7.865  0.9711 -0.6773 -0.3396
   91bbb    H16 2754   2.422  10.327   7.807  0.2407  0.0500 -1.3288
   91bbb     C9 2755   2.944  10.134   7.509  0.6224  0.1310 -0.4817
   91bbb    H17 2756   3.015  10.122   7.591  0.5901 -1.7990 -0.6758
   91bbb    H18 2757   3.002  10.119   7.417  1.9397 -2.0539  0.5936
   91bbb     O1 2758   2.916  10.768   7.457  0.2783 -0.4770  0.2348
   91bbb    H19 2759   2.666  10.422   7.595  0.8161 -0.4684 -1.3149
   92bbb     N1 2760   3.479  11.445   5.651  0.4298 -0.7335 -0.1316
   92bbb     C1 2761   3.560  11.377   5.545  0.0261  0.7125  0.3748
   92bbb     H1 2762   3.647  11.440   5.523 -0.0741  0.1254 -2.0522
   92bbb     H2 2763   3.495  11.373   5.457 -2.5337 -1.9517  2.1940
   92bbb     C2 2764   3.348  11.368   5.680 -0.3889 -0.4594  0.1826
   92bbb     H3 2765   3.317  11.403   5.779  0.3977 -1.0758  0.6574
   92bbb     H4 2766   3.381  11.265   5.689  3.1473  0.2139 -2.8773
   92bbb     C3 2767   3.567  11.444   5.777  0.3377  0.4259 -0.0884
   92bbb     H5 2768   3.666  11.443   5.732 -0.4563 -2.3487 -2.0911
   92bbb     H6 2769   3.549  11.349   5.829  1.8367 -0.4544 -1.1148
   92bbb     C4 2770   3.536  11.568   5.865 -0.2705  0.0123  0.2709
   92bbb     H7 2771   3.429  11.583   5.884 -0.2622 -0.1096  0.4169
   92bbb     H8 2772   3.570  11.657   5.811 -0.3436  0.2922  0.6862
   92bbb     C5 2773   3.612  11.232   5.574 -0.4514  0.3805  0.0275
   92bbb     H9 2774   3.559  11.187   5.658 -0.1144 -0.9591 -0.4417
   92bbb    H10 2775   3.719  11.234   5.600  0.4870  3.4488 -3.1954
   92bbb     C6 2776   3.237  11.381   5.570  0.1714  0.6064  0.2170
   92bbb    H11 2777   3.252  11.314   5.484 -3.4513  0.0649 -0.1706
   92bbb    H12 2778   3.218  11.483   5.534 -2.2320  0.8670  2.0057
   92bbb     C7 2779   3.602  11.568   6.002  0.6497  0.1403 -0.8746
   92bbb    H13 2780   3.575  11.662   6.050 -0.7916 -0.6817  0.0079
   92bbb    H14 2781   3.710  11.557   5.983  0.7638 -2.8979  0.8350
   92bbb     C8 2782   3.105  11.343   5.635  1.0393 -0.1241  0.1950
   92bbb    H15 2783   3.028  11.321   5.560  1.4834  0.3407 -0.4036
   92bbb    H16 2784   3.108  11.253   5.697  0.5514  0.5457  1.2249
   92bbb     C9 2785   3.588  11.126   5.457  0.4320  0.3320  0.0361
   92bbb    H17 2786   3.610  11.022   5.485 -1.5352 -0.0095  0.3900
   92bbb    H18 2787   3.658  11.153   5.376 -0.4238 -1.4840 -1.3671
   92bbb     O1 2788   3.557  11.455   6.084  0.0784 -0.5161  0.7490
   92bbb    H19 2789   3.461  11.544   5.630 -2.1469 -0.6293  1.9939
   93bbb     N1 2790   3.387  10.701   6.157 -0.4439  0.5052  0.9599
   93bbb     C1 2791   3.332  10.844   6.142 -0.4739  0.0354 -0.2359
   93bbb     H1 2792   3.315  10.874   6.039  3.5805 -1.1725 -1.4537
   93bbb     H2 2793   3.404  10.912   6.187 -0.9299  0.7442 -0.5728
   93bbb     C2 2794   3.292  10.604   6.080  0.3464 -1.1185 -0.1314
   93bbb     H3 2795   3.294  10.625   5.973  0.4152  0.2329  0.1186
   93bbb     H4 2796   3.191  10.634   6.109  0.9531  0.8463  0.1117
   93bbb     C3 2797   3.534  10.693   6.099 -0.0019 -0.4603  0.1188
   93bbb     H5 2798   3.534  10.694   5.990 -0.0550 -1.5718  0.1034
   93bbb     H6 2799   3.566  10.593   6.130  1.0863 -0.5675 -1.2632
   93bbb     C4 2800   3.627  10.799   6.152 -0.0558  0.3317  0.6118
   93bbb     H7 2801   3.604  10.900   6.115 -1.9841  0.0644  0.9415
   93bbb     H8 2802   3.729  10.775   6.121  1.1627  0.2429  4.3399
   93bbb     C5 2803   3.214  10.871   6.226  0.2085 -0.1716  0.2724
   93bbb     H9 2804   3.235  10.832   6.327 -2.0489 -1.1888  0.4222
   93bbb    H10 2805   3.127  10.812   6.194 -0.9890  2.9976 -2.9935
   93bbb     C6 2806   3.306  10.455   6.105 -0.2549 -0.0028 -0.2921
   93bbb    H11 2807   3.292  10.416   6.207 -2.1922  0.2827 -0.4090
   93bbb    H12 2808   3.409  10.434   6.073 -0.1500 -0.9372  0.6003
   93bbb     C7 2809   3.646  10.802   6.307  0.3910  0.0178  0.1520
   93bbb    H13 2810   3.745  10.843   6.331  0.1485  1.7859 -1.6601
   93bbb    H14 2811   3.654  10.704   6.355  2.3306  0.9923  2.0016
   93bbb     C8 2812   3.204  10.382   6.018 -0.4957 -0.4578  0.9653
   93bbb    H15 2813   3.223  10.411   5.914 -0.5637 -2.3117  0.4064
   93bbb    H16 2814   3.223  10.274   6.028 -0.8579 -0.5363  0.8173
   93bbb     C9 2815   3.173  11.013   6.228  0.3437 -0.2762 -0.3140
   93bbb    H17 2816   3.135  11.062   6.137 -1.1959  1.6175  1.2499
   93bbb    H18 2817   3.263  11.065   6.261  1.0510 -2.0572  0.6867
   93bbb     O1 2818   3.548  10.898   6.354 -0.2747 -0.5951  0.0094
   93bbb    H19 2819   3.392  10.677   6.257  1.1402  1.2941  1.1134
   94bbb     N1 2820   5.691   6.790   4.590  0.2305  0.7178  0.0448
   94bbb     C1 2821   5.769   6.688   4.682 -0.0228  0.6063  0.4831
   94bbb     H1 2822   5.875   6.683   4.654  0.3537 -1.0313  2.0670
   94bbb     H2 2823   5.737   6.584   4.671  1.0583  0.3850 -0.8962
   94bbb     C2 2824   5.547   6.740   4.571  0.6073 -0.4486 -0.1758
   94bbb     H3 2825   5.482   6.750   4.658  2.8194 -1.0061  1.6312
   94bbb     H4 2826   5.557   6.633   4.554  1.0924 -0.6030  0.9850
   94bbb     C3 2827   5.695   6.932   4.651  0.2805  0.7119  0.5054
   94bbb     H5 2828   5.646   6.921   4.748 -0.0539  0.1127  0.2688
   94bbb     H6 2829   5.624   6.991   4.593 -0.9310 -1.8728 -0.7710
   94bbb     C4 2830   5.830   7.004   4.649 -0.4809  0.3262 -0.1122
   94bbb     H7 2831   5.850   7.007   4.541 -3.1132  0.6475 -0.6557
   94bbb     H8 2832   5.904   6.944   4.704  0.4844 -0.1904 -1.8653
   94bbb     C5 2833   5.778   6.712   4.834 -0.3371  0.2568  0.1646
   94bbb     H9 2834   5.677   6.697   4.875 -0.8317 -0.4733 -1.2654
   94bbb    H10 2835   5.802   6.817   4.857 -0.0629  0.3272 -0.4401
   94bbb     C6 2836   5.476   6.802   4.448 -0.6908 -0.9187  0.2509
   94bbb    H11 2837   5.526   6.773   4.355  0.8498  3.0730 -0.3317
   94bbb    H12 2838   5.492   6.910   4.456 -0.6416 -0.8710 -0.4447
   94bbb     C7 2839   5.816   7.148   4.704  0.0666  0.0937  0.2170
   94bbb    H13 2840   5.754   7.214   4.643  0.9845  1.6902  0.9667
   94bbb    H14 2841   5.914   7.197   4.701  1.6429 -2.8450 -0.4385
   94bbb     C8 2842   5.327   6.766   4.424 -0.0493  0.3999 -0.2306
   94bbb    H15 2843   5.261   6.828   4.485  0.9089  0.5936  0.6468
   94bbb    H16 2844   5.307   6.774   4.316 -2.7562  1.4100  0.2826
   94bbb     C9 2845   5.884   6.632   4.900  0.4037  0.4484 -0.1997
   94bbb    H17 2846   5.983   6.656   4.860  1.7985 -1.1947  2.0406
   94bbb    H18 2847   5.870   6.526   4.876  0.9398  0.4925 -0.7272
   94bbb     O1 2848   5.760   7.137   4.838  0.1011 -0.0235  0.4899
   94bbb    H19 2849   5.742   6.788   4.500  1.2822  0.2357  0.6267
   95bbb     N1 2850   6.559   7.420   4.967 -0.6627 -0.2152  0.5742
   95bbb     C1 2851   6.695   7.371   5.015  0.7881 -1.0152 -0.5862
   95bbb     H1 2852   6.757   7.460   5.012  0.5201 -0.7429  1.3002
   95bbb     H2 2853   6.727   7.296   4.942  2.7120 -1.6106  0.7820
   95bbb     C2 2854   6.592   7.513   4.849 -0.6657 -1.0459  0.2674
   95bbb     H3 2855   6.490   7.534   4.814  0.3171  2.5758 -0.8947
   95bbb     H4 2856   6.646   7.467   4.766  0.6598  1.9725 -0.6897
   95bbb     C3 2857   6.469   7.305   4.922 -0.5438  0.2796 -0.7570
   95bbb     H5 2858   6.473   7.240   5.010  1.5984  2.0537  0.5524
   95bbb     H6 2859   6.524   7.260   4.840 -0.3285  1.4416 -1.2678
   95bbb     C4 2860   6.324   7.339   4.888  0.0052 -0.1159  0.5572
   95bbb     H7 2861   6.328   7.409   4.804 -3.5821  0.4314  0.6980
   95bbb     H8 2862   6.286   7.385   4.980 -0.2912  1.1236 -0.1602
   95bbb     C5 2863   6.690   7.312   5.157 -0.7476 -0.0471  0.0284
   95bbb     H9 2864   6.636   7.217   5.149  0.3073 -0.7716  1.2056
   95bbb    H10 2865   6.628   7.376   5.219  1.0202  0.9027  0.9006
   95bbb     C6 2866   6.654   7.651   4.884 -0.3347  0.0884 -0.2137
   95bbb    H11 2867   6.707   7.641   4.979  1.1369 -2.4561 -1.2032
   95bbb    H12 2868   6.571   7.720   4.906  0.6516  1.1221  0.3805
   95bbb     C7 2869   6.228   7.221   4.851 -0.4531 -0.0335  0.2004
   95bbb    H13 2870   6.282   7.169   4.772  0.1452 -0.4191  0.8485
   95bbb    H14 2871   6.129   7.259   4.823  0.1475  0.3996 -1.4392
   95bbb     C8 2872   6.755   7.710   4.778  0.3700 -0.3895  0.2069
   95bbb    H15 2873   6.844   7.648   4.760  0.5810  0.3129 -1.2964
   95bbb    H16 2874   6.700   7.725   4.685 -1.1577  1.7516  1.3559
   95bbb     C9 2875   6.830   7.309   5.229  0.8827 -0.0183 -0.0002
   95bbb    H17 2876   6.910   7.264   5.168  0.5085 -1.1229  0.2985
   95bbb    H18 2877   6.823   7.257   5.325  1.3200  1.6092  0.9584
   95bbb     O1 2878   6.204   7.132   4.962  0.6555  0.1085 -0.3095
   95bbb    H19 2879   6.506   7.468   5.042 -3.0241 -0.1226 -1.0583
   96bbb     N1 2880   6.747   7.506   5.971 -0.9740  0.4858  0.1095
   96bbb     C1 2881   6.894   7.510   5.998  0.2521  0.4076 -0.2256
   96bbb     H1 2882   6.911   7.604   6.050 -0.6389 -0.2112  1.2602
   96bbb     H2 2883   6.956   7.509   5.909 -0.5882 -0.3144 -0.8163
   96bbb     C2 2884   6.691   7.622   5.887  0.4363 -0.2484  0.9363
   96bbb     H3 2885   6.597   7.597   5.838  2.0166 -0.9433 -1.9997
   96bbb     H4 2886   6.763   7.642   5.807 -0.9337 -2.5410 -1.0067
   96bbb     C3 2887   6.712   7.381   5.887  0.0392  0.1375 -0.3544
   96bbb     H5 2888   6.802   7.366   5.827 -0.0932  0.3294 -0.6055
   96bbb     H6 2889   6.626   7.406   5.824 -0.6986  0.0368  0.5895
   96bbb     C4 2890   6.674   7.251   5.956  0.2153  0.4729 -0.3969
   96bbb     H7 2891   6.705   7.235   6.060 -0.0620  0.0194 -0.3820
   96bbb     H8 2892   6.701   7.164   5.894 -0.9368 -0.6616  0.6467
   96bbb     C5 2893   6.951   7.393   6.086  0.6977 -0.1441  0.1034
   96bbb     H9 2894   6.930   7.295   6.043  0.1465 -0.2064  0.5094
   96bbb    H10 2895   6.895   7.393   6.180 -1.3789 -0.6429 -1.0851
   96bbb     C6 2896   6.660   7.744   5.982 -0.2568  0.9239  0.1030
   96bbb    H11 2897   6.661   7.715   6.088 -1.7007  2.6021  0.6250
   96bbb    H12 2898   6.559   7.781   5.961 -0.1987  0.6160 -0.7671
   96bbb     C7 2899   6.520   7.243   5.968 -0.3385 -0.5572 -0.6065
   96bbb    H13 2900   6.489   7.338   6.015 -0.4097 -0.2045 -1.3465
   96bbb    H14 2901   6.505   7.154   6.029 -3.4763 -0.7947 -1.5654
   96bbb     C8 2902   6.754   7.866   5.965 -1.0602 -0.2529  0.3326
   96bbb    H15 2903   6.723   7.949   5.899 -1.0940  0.0359  0.7088
   96bbb    H16 2904   6.769   7.918   6.061  0.9569  0.8176 -0.5009
   96bbb     C9 2905   7.096   7.411   6.129 -0.1033 -0.6476  0.3343
   96bbb    H17 2906   7.117   7.340   6.210  0.4633  0.0559  0.8097
   96bbb    H18 2907   7.108   7.516   6.157 -2.2036 -0.3073  0.1355
   96bbb     O1 2908   6.459   7.217   5.839 -0.0782  0.2008 -1.0153
   96bbb    H19 2909   6.684   7.503   6.052 -0.1216 -1.3375  0.7608
   97bbb     N1 2910   6.512   6.188   6.068 -0.3163 -0.3724  0.2523
   97bbb     C1 2911   6.663   6.187   6.100 -0.1761 -0.0789  0.2961
   97bbb     H1 2912   6.712   6.157   6.008 -0.8870 -1.2709  0.2869
   97bbb     H2 2913   6.673   6.097   6.161 -1.6405  0.5292  1.5050
   97bbb     C2 2914   6.423   6.246   6.189  0.0928  0.5724  0.2132
   97bbb     H3 2915   6.317   6.232   6.167  0.0163  0.4741  0.6347
   97bbb     H4 2916   6.438   6.351   6.214 -0.1686  0.1102  2.4483
   97bbb     C3 2917   6.488   6.284   5.950  0.4892  0.3605  0.4106
   97bbb     H5 2918   6.575   6.350   5.947  0.9099 -0.2095 -0.6904
   97bbb     H6 2919   6.393   6.336   5.960  1.1907  1.8289 -0.2022
   97bbb     C4 2920   6.474   6.225   5.810 -0.4145 -0.0098  0.0214
   97bbb     H7 2921   6.373   6.183   5.806  0.0817 -1.1398 -0.9423
   97bbb     H8 2922   6.545   6.143   5.794 -0.2250  0.6265 -2.8114
   97bbb     C5 2923   6.729   6.316   6.168  0.5841  1.1848  0.7337
   97bbb     H9 2924   6.674   6.356   6.254 -1.4393 -0.3706  0.2505
   97bbb    H10 2925   6.721   6.398   6.096 -1.2489  1.5844  1.3457
   97bbb     C6 2926   6.444   6.170   6.321  0.2507  0.4831 -0.3468
   97bbb    H11 2927   6.376   6.217   6.393  1.3645 -0.6164  1.4967
   97bbb    H12 2928   6.541   6.183   6.370 -1.0438  0.4567  2.4068
   97bbb     C7 2929   6.485   6.338   5.701  0.0323  0.3222  0.8820
   97bbb    H13 2930   6.466   6.295   5.602  0.3861  1.2911  0.3752
   97bbb    H14 2931   6.587   6.377   5.700  0.1658 -0.0235  0.9666
   97bbb     C8 2932   6.404   6.013   6.320  0.1602 -0.6920 -0.3160
   97bbb    H15 2933   6.469   5.959   6.251 -0.2609 -1.1332 -0.3648
   97bbb    H16 2934   6.432   5.976   6.420  2.6747 -0.8506 -1.0032
   97bbb     C9 2935   6.872   6.278   6.220 -0.3510 -0.5231 -0.3251
   97bbb    H17 2936   6.856   6.209   6.303 -2.1556 -0.0064 -0.2039
   97bbb    H18 2937   6.920   6.368   6.261  1.0684 -0.9938 -0.8676
   97bbb     O1 2938   6.392   6.444   5.727  0.4085 -0.1999  0.1434
   97bbb    H19 2939   6.489   6.093   6.035  0.6849 -0.7363  0.5614
   98bbb     N1 2940   6.990   7.916   7.096 -0.1623  0.0566  0.0397
   98bbb     C1 2941   7.068   7.946   7.221 -0.3194  0.9075  0.4748
   98bbb     H1 2942   7.039   8.039   7.269  0.4142  0.2293  2.3258
   98bbb     H2 2943   7.168   7.974   7.186 -0.3808 -0.9982 -1.4533
   98bbb     C2 2944   6.990   8.044   7.018  0.4792  0.2513  0.6124
   98bbb     H3 2945   6.932   8.031   6.926  2.7437 -3.0499 -0.5199
   98bbb     H4 2946   7.095   8.062   6.998 -0.2101  2.9533 -1.1383
   98bbb     C3 2947   7.055   7.806   7.014 -0.2395  0.0151  0.4803
   98bbb     H5 2948   7.058   7.718   7.078 -1.1089 -0.5076 -0.1747
   98bbb     H6 2949   7.154   7.839   6.981 -0.7147  1.4241  0.4140
   98bbb     C4 2950   6.984   7.775   6.884  0.4264 -0.0542 -0.9171
   98bbb     H7 2951   7.041   7.698   6.828 -0.0069  0.0247 -1.4773
   98bbb     H8 2952   6.977   7.864   6.821  0.1955  0.4022 -0.2534
   98bbb     C5 2953   7.071   7.820   7.318  0.3897 -0.0120 -0.3172
   98bbb     H9 2954   7.116   7.736   7.264  0.2989 -1.1237  1.2647
   98bbb    H10 2955   6.974   7.781   7.352  0.3379  0.0455 -0.3978
   98bbb     C6 2956   6.956   8.177   7.091  0.6584  0.6348 -0.8821
   98bbb    H11 2957   6.966   8.254   7.013 -1.7340 -0.3071 -2.2575
   98bbb    H12 2958   7.013   8.197   7.182 -1.2815  0.8527  0.3487
   98bbb     C7 2959   6.841   7.726   6.912  0.0518 -0.0610 -0.0099
   98bbb    H13 2960   6.859   7.651   6.990  1.0804  0.4974  0.3167
   98bbb    H14 2961   6.796   7.683   6.822  0.2176 -2.0203  0.7962
   98bbb     C8 2962   6.816   8.189   7.149 -0.1621 -0.4007 -0.6437
   98bbb    H15 2963   6.800   8.276   7.214 -1.6870 -1.0545 -0.0907
   98bbb    H16 2964   6.742   8.205   7.070 -0.8812  2.2548  0.4596
   98bbb     C9 2965   7.157   7.851   7.437 -0.2712  0.2231 -0.4022
   98bbb    H17 2966   7.169   7.762   7.499 -0.9967  0.2541 -0.2055
   98bbb    H18 2967   7.104   7.926   7.497 -0.1749  0.8253 -1.0505
   98bbb     O1 2968   6.750   7.833   6.959 -0.3622  0.7571  0.0117
   98bbb    H19 2969   6.895   7.885   7.119  0.2409 -1.5713 -0.3412
   99bbb     N1 2970   6.182   8.504   6.937 -0.0697 -0.3929 -0.6340
   99bbb     C1 2971   6.086   8.427   7.032  0.7239  0.5428  0.0829
   99bbb     H1 2972   6.091   8.452   7.138 -0.7906  0.6332  0.1455
   99bbb     H2 2973   6.116   8.322   7.035 -1.7925 -0.2593 -0.6092
   99bbb     C2 2974   6.304   8.541   7.017  0.9131  0.1097  0.1135
   99bbb     H3 2975   6.386   8.560   6.948  1.5348 -0.0395  0.7930
   99bbb     H4 2976   6.335   8.463   7.088  1.6818  1.3234  1.1555
   99bbb     C3 2977   6.223   8.420   6.818 -0.1368  0.0815 -0.0384
   99bbb     H5 2978   6.251   8.321   6.855  0.6805  0.3304  0.0486
   99bbb     H6 2979   6.318   8.453   6.775 -0.6616  0.3672 -0.9994
   99bbb     C4 2980   6.122   8.401   6.713 -0.0853 -0.2247  0.1890
   99bbb     H7 2981   6.076   8.493   6.676 -0.5354 -0.3528  0.4273
   99bbb     H8 2982   6.038   8.344   6.754 -0.5064  1.3030  1.5475
   99bbb     C5 2983   5.929   8.423   7.010  0.6936  0.7962  0.2849
   99bbb     H9 2984   5.891   8.353   6.934 -2.6782  2.2740  0.4283
   99bbb    H10 2985   5.893   8.517   6.966 -1.1369  0.1135  0.2496
   99bbb     C6 2986   6.266   8.667   7.091  0.0002 -0.5242 -0.8381
   99bbb    H11 2987   6.162   8.669   7.125  0.1619 -1.8463 -0.1865
   99bbb    H12 2988   6.266   8.744   7.013 -0.1954  1.8860  1.4018
   99bbb     C7 2989   6.176   8.312   6.597  0.1802  0.8916  0.3259
   99bbb    H13 2990   6.266   8.361   6.558  0.9590  0.6228  1.7143
   99bbb    H14 2991   6.107   8.276   6.519  0.6884 -0.7250  0.5717
   99bbb     C8 2992   6.376   8.708   7.197 -0.3203  0.7108  0.2441
   99bbb    H15 2993   6.475   8.680   7.160 -0.5843 -1.3801  1.0405
   99bbb    H16 2994   6.369   8.818   7.200 -0.3231  0.8594 -2.5041
   99bbb     C9 2995   5.855   8.430   7.151 -0.8139  0.4171 -0.3979
   99bbb    H17 2996   5.860   8.335   7.204 -1.9348  0.1118 -0.7972
   99bbb    H18 2997   5.748   8.448   7.129 -1.2856 -0.6341  0.9408
   99bbb     O1 2998   6.229   8.183   6.659 -0.2901  0.1509 -0.4185
   99bbb    H19 2999   6.143   8.594   6.905  0.0812 -0.0545  0.1295
  100bbb     N1 3000   5.931   6.245   7.493  0.1197  0.2607  0.3006
  100bbb     C1 3001   6.051   6.336   7.516 -0.6674  0.5893 -0.1767
  100bbb     H1 3002   6.019   6.436   7.545  0.5401  0.8982  0.1281
  100bbb     H2 3003   6.107   6.352   7.424 -0.6989 -0.2653 -0.3580
  100bbb     C2 3004   5.810   6.296   7.569 -0.8590 -0.1574  0.1704
  100bbb     H3 3005   5.728   6.228   7.545  0.3097 -1.3864 -0.5039
  100bbb     H4 3006   5.783   6.393   7.528 -2.2716 -0.2450  0.8559
  100bbb     C3 3007   5.902   6.241   7.342  0.2132  0.3615 -0.7567
  100bbb     H5 3008   5.966   6.321   7.306  0.5340 -0.5288 -2.2711
  100bbb     H6 3009   5.797   6.266   7.323 -0.0331  1.2365  1.3976
  100bbb     C4 3010   5.946   6.109   7.279  0.4911  0.1929  0.0635
  100bbb     H7 3011   5.888   6.032   7.332  1.1973 -0.9261 -0.7272
  100bbb     H8 3012   6.049   6.077   7.303 -0.2429 -1.6291  0.9998
  100bbb     C5 3013   6.160   6.287   7.622 -0.1588  0.1882  0.0480
  100bbb     H9 3014   6.215   6.197   7.594  0.9699  0.5400  1.0498
  100bbb    H10 3015   6.130   6.275   7.727  0.4479  0.0520  0.2102
  100bbb     C6 3016   5.831   6.304   7.717 -0.2307  0.4002 -0.3076
  100bbb    H11 3017   5.891   6.394   7.737  0.1914  0.1918 -0.6118
  100bbb    H12 3018   5.893   6.219   7.745 -0.5421  0.4090  0.4335
  100bbb     C7 3019   5.921   6.090   7.132 -0.2319  0.4927  0.2791
  100bbb    H13 3020   5.813   6.080   7.118 -0.0121 -0.5463 -0.8767
  100bbb    H14 3021   5.954   5.993   7.094 -0.9475  0.2514  0.2548
  100bbb     C8 3022   5.691   6.310   7.788 -0.5734 -0.1170  0.0410
  100bbb    H15 3023   5.624   6.227   7.763 -0.0138 -1.0024  1.3769
  100bbb    H16 3024   5.704   6.315   7.897 -3.2065  1.5470  0.3690
  100bbb     C9 3025   6.275   6.397   7.624 -0.0589 -0.4864 -0.5309
  100bbb    H17 3026   6.298   6.436   7.524  2.5574  2.6710  1.0863
  100bbb    H18 3027   6.364   6.355   7.673 -1.0252  0.4374  2.1861
  100bbb     O1 3028   5.971   6.205   7.057 -0.3868 -0.2064  0.1734
  100bbb    H19 3029   5.948   6.146   7.517 -0.5427  0.0715  0.0191
  101bbb     N1 3030   5.730   6.326   6.364  0.0425 -0.3515  0.0326
  101bbb     C1 3031   5.772   6.197   6.435 -0.4008 -0.2780  0.6691
  101bbb     H1 3032   5.872   6.209   6.478  0.7810 -0.8911 -1.7555
  101bbb     H2 3033   5.780   6.118   6.361  0.7819  1.3684 -1.0672
  101bbb     C2 3034   5.601   6.312   6.280  0.3454 -0.4392 -1.1111
  101bbb     H3 3035   5.579   6.410   6.239 -0.1167 -0.2136 -0.3534
  101bbb     H4 3036   5.523   6.277   6.348 -0.2330 -0.9503 -2.0121
  101bbb     C3 3037   5.707   6.446   6.455  0.6788  0.8269  0.3402
  101bbb     H5 3038   5.625   6.414   6.520 -0.7216 -2.0639 -2.5483
  101bbb     H6 3039   5.683   6.525   6.383  1.2224  0.2594 -0.4872
  101bbb     C4 3040   5.824   6.491   6.538  0.0770 -0.4782  0.3074
  101bbb     H7 3041   5.916   6.488   6.477 -0.4280  0.6099 -0.5355
  101bbb     H8 3042   5.839   6.421   6.621 -1.8563 -0.0359  1.0840
  101bbb     C5 3043   5.670   6.136   6.537  0.2488 -0.3357  0.4642
  101bbb     H9 3044   5.568   6.115   6.502  0.1301 -0.2357  0.7451
  101bbb    H10 3045   5.650   6.214   6.612  0.8202  0.0277  0.2477
  101bbb     C6 3046   5.611   6.217   6.159  0.0863  0.2854 -0.3156
  101bbb    H11 3047   5.710   6.173   6.172 -0.7032 -1.7919 -0.9065
  101bbb    H12 3048   5.610   6.264   6.059 -0.4143  2.4353  0.6371
  101bbb     C7 3049   5.808   6.633   6.595  0.0988 -0.0107  0.7379
  101bbb    H13 3050   5.735   6.627   6.677  0.9480  0.9637  1.5844
  101bbb    H14 3051   5.769   6.699   6.517  0.4874 -0.8755 -0.2103
  101bbb     C8 3052   5.502   6.108   6.169 -0.5372  0.4126 -0.0070
  101bbb    H15 3053   5.493   6.044   6.080  1.2731  1.3474 -0.9012
  101bbb    H16 3054   5.517   6.062   6.268 -0.5596  2.1271  0.8333
  101bbb     C9 3055   5.733   6.016   6.614  0.0307  0.2253  0.4856
  101bbb    H17 3056   5.652   5.980   6.679 -0.2900 -0.7628 -0.4446
  101bbb    H18 3057   5.811   6.048   6.685  2.2732 -2.7260 -0.4413
  101bbb     O1 3058   5.935   6.682   6.649 -0.5619 -0.1304 -0.3081
  101bbb    H19 3059   5.793   6.355   6.288 -2.0867  1.1614 -1.2740
  102bbb     N1 3060   3.669   9.538   5.450 -0.5613 -0.0732 -0.0769
  102bbb     C1 3061   3.729   9.560   5.307 -0.0076  0.0090  0.2260
  102bbb     H1 3062   3.678   9.639   5.252  0.1048  1.0071  1.5070
  102bbb     H2 3063   3.732   9.468   5.248 -0.7322  0.0365  0.1351
  102bbb     C2 3064   3.527   9.586   5.446  0.0958 -0.2198 -0.0085
  102bbb     H3 3065   3.533   9.694   5.440  0.4565  0.0127  3.0335
  102bbb     H4 3066   3.492   9.564   5.547  4.4044 -3.2116  1.1325
  102bbb     C3 3067   3.673   9.394   5.495 -0.0432 -0.6805 -0.4534
  102bbb     H5 3068   3.638   9.340   5.407 -0.7267  1.6670 -1.6853
  102bbb     H6 3069   3.602   9.387   5.578  0.1408 -0.8120 -0.3052
  102bbb     C4 3070   3.815   9.334   5.541  1.0203  0.7519 -0.0141
  102bbb     H7 3071   3.866   9.401   5.612  0.8475 -0.2763  1.1105
  102bbb     H8 3072   3.876   9.335   5.450  1.1615  0.5238  0.0767
  102bbb     C5 3073   3.870   9.610   5.316  0.0613  0.4391  0.7758
  102bbb     H9 3074   3.934   9.552   5.383  1.1847  1.7259  0.8693
  102bbb    H10 3075   3.866   9.708   5.365  1.3680  1.4181 -0.9394
  102bbb     C6 3076   3.432   9.520   5.336  0.0245 -0.6904  0.3259
  102bbb    H11 3077   3.431   9.411   5.349  2.1842 -0.7941 -0.0434
  102bbb    H12 3078   3.470   9.556   5.240  1.2420  1.4052  1.5182
  102bbb     C7 3079   3.802   9.187   5.608  0.0626 -0.2075 -0.2624
  102bbb    H13 3080   3.766   9.189   5.712 -1.3776  3.5075 -0.6699
  102bbb    H14 3081   3.900   9.137   5.612  0.5927 -0.0746 -5.2436
  102bbb     C8 3082   3.287   9.574   5.349  0.7046  0.0297 -0.2941
  102bbb    H15 3083   3.273   9.674   5.307  1.6090  0.3695  0.1798
  102bbb    H16 3084   3.236   9.505   5.280 -0.4289 -2.2650  2.6247
  102bbb     C9 3085   3.937   9.623   5.184 -0.5965  0.2616 -0.3258
  102bbb    H17 3086   3.865   9.672   5.116 -0.0527 -0.0859 -1.1726
  102bbb    H18 3087   3.951   9.522   5.143  1.4660 -0.6220  2.3245
  102bbb     O1 3088   3.722   9.113   5.522 -0.1279 -0.2091  0.1790
  102bbb    H19 3089   3.721   9.598   5.517  0.5822 -2.1854  1.0251
  103bbb     N1 3090   4.175   8.587   4.683  0.2116 -0.4665  0.4903
  103bbb     C1 3091   4.291   8.537   4.765  0.2090  0.3466 -0.4488
  103bbb     H1 3092   4.378   8.556   4.701  0.0004  0.0654 -0.8226
  103bbb     H2 3093   4.285   8.428   4.760 -0.9229  0.4383 -1.6010
  103bbb     C2 3094   4.181   8.518   4.545  0.1380 -0.0720 -0.2393
  103bbb     H3 3095   4.103   8.566   4.486  0.1496  0.6955  0.3475
  103bbb     H4 3096   4.148   8.416   4.565 -1.0227  0.9983  4.6776
  103bbb     C3 3097   4.041   8.577   4.762 -0.2966  0.6843  0.4111
  103bbb     H5 3098   4.041   8.632   4.856  0.2223  0.0136  0.8138
  103bbb     H6 3099   4.020   8.470   4.771  0.1133  0.6369  0.8730
  103bbb     C4 3100   3.918   8.638   4.687 -1.0670  0.2430  0.1133
  103bbb     H7 3101   3.919   8.590   4.588  0.4922 -0.0390  0.2497
  103bbb     H8 3102   3.919   8.744   4.658 -1.5398 -0.4283 -2.6783
  103bbb     C5 3103   4.313   8.580   4.914 -0.2011  0.3120  0.7647
  103bbb     H9 3104   4.220   8.621   4.954 -0.2112  0.1140  0.9462
  103bbb    H10 3105   4.373   8.672   4.906  1.2287 -0.7382 -2.0527
  103bbb     C6 3106   4.312   8.508   4.463 -0.3058  0.1731  0.6067
  103bbb    H11 3107   4.301   8.437   4.380  3.0838  0.6520 -0.4135
  103bbb    H12 3108   4.396   8.471   4.524  0.6975  1.4018  0.0228
  103bbb     C7 3109   3.786   8.604   4.753  0.3831  0.0295 -0.1889
  103bbb    H13 3110   3.767   8.497   4.744 -2.2926  0.5902 -2.8102
  103bbb    H14 3111   3.711   8.658   4.693 -2.0123 -0.5488  2.1132
  103bbb     C8 3112   4.359   8.644   4.402  0.4810  0.4668  0.5005
  103bbb    H15 3113   4.361   8.717   4.484 -0.8494  1.2607 -0.1456
  103bbb    H16 3114   4.452   8.624   4.347 -0.9406  0.2725 -1.9826
  103bbb     C9 3115   4.378   8.486   5.013 -0.2091 -0.2522 -0.6560
  103bbb    H17 3116   4.368   8.513   5.119 -0.9970 -1.1820 -0.4767
  103bbb    H18 3117   4.487   8.488   4.999  0.1149  1.3067  1.5686
  103bbb     O1 3118   3.783   8.644   4.892 -0.5141 -0.1707 -0.2678
  103bbb    H19 3119   4.183   8.690   4.678 -0.4831 -0.3909  0.7629
  104bbb     N1 3120   3.119   8.962   5.907  0.0272  0.2106  0.2958
  104bbb     C1 3121   3.132   9.092   5.819 -0.0410 -0.8657  0.1664
  104bbb     H1 3122   3.153   9.175   5.887 -3.0052 -0.0726  0.2482
  104bbb     H2 3123   3.033   9.115   5.778  0.4088 -0.2562 -0.6249
  104bbb     C2 3124   3.024   8.998   6.022 -0.3713  0.0177  0.9067
  104bbb     H3 3125   2.963   8.911   6.047  0.7708 -2.3781 -3.6526
  104bbb     H4 3126   2.948   9.068   5.988 -0.3195 -0.0781  0.5865
  104bbb     C3 3127   3.053   8.849   5.828 -0.0611  0.1509  0.6233
  104bbb     H5 3128   3.084   8.853   5.723  0.6508  0.4061  0.8392
  104bbb     H6 3129   2.946   8.868   5.821 -0.3855 -1.1914  1.5206
  104bbb     C4 3130   3.083   8.702   5.866  0.0937 -0.3251  0.6198
  104bbb     H7 3131   3.030   8.653   5.783 -0.5338  1.0655  0.1778
  104bbb     H8 3132   3.033   8.680   5.961 -2.2711 -1.1804 -0.7301
  104bbb     C5 3133   3.233   9.098   5.702  0.2579  0.3216  0.1418
  104bbb     H9 3134   3.221   9.191   5.646 -0.8576  1.8361  2.7241
  104bbb    H10 3135   3.204   9.021   5.630 -4.4610  0.9002  1.1290
  104bbb     C6 3136   3.094   9.041   6.145 -0.4293  0.0461  0.1280
  104bbb    H11 3137   3.155   8.952   6.165 -0.9615 -0.6788 -1.3137
  104bbb    H12 3138   3.018   9.041   6.224 -1.0842 -2.2137 -0.4219
  104bbb     C7 3139   3.233   8.664   5.871  0.2968 -0.3587 -0.3023
  104bbb    H13 3140   3.277   8.689   5.774 -1.9070  0.7442 -1.0877
  104bbb    H14 3141   3.234   8.554   5.874  2.8336 -0.3883 -0.2399
  104bbb     C8 3142   3.176   9.171   6.136 -0.3241 -0.0840  0.1945
  104bbb    H15 3143   3.209   9.192   6.239 -1.5545  0.0194  0.5838
  104bbb    H16 3144   3.259   9.165   6.065 -0.1478  0.4281  0.3489
  104bbb     C9 3145   3.378   9.087   5.738 -0.6333 -0.2433 -0.8377
  104bbb    H17 3146   3.438   9.132   5.659 -1.5144 -0.8816 -1.9058
  104bbb    H18 3147   3.405   8.981   5.750  0.6439  0.1916  0.4086
  104bbb     O1 3148   3.305   8.728   5.982 -0.2293 -0.6688 -0.1023
  104bbb    H19 3149   3.215   8.939   5.935 -0.0760  0.5605  0.9712
  105bbb     N1 3150   2.900   9.334   6.657  0.3602 -0.0722  0.1205
  105bbb     C1 3151   2.819   9.268   6.765  0.2038  0.0164 -0.1185
  105bbb     H1 3152   2.737   9.337   6.786  0.1334 -0.1975  0.3192
  105bbb     H2 3153   2.889   9.262   6.849  1.0651 -1.5245 -0.9120
  105bbb     C2 3154   2.904   9.487   6.679 -0.1400  0.5145 -0.4794
  105bbb     H3 3155   2.797   9.506   6.690 -0.5561 -1.4120 -0.7237
  105bbb     H4 3156   2.944   9.539   6.592 -0.0427 -0.4978 -1.0670
  105bbb     C3 3157   3.045   9.276   6.646  0.4773 -0.1217 -0.2812
  105bbb     H5 3158   3.038   9.168   6.644  0.2876 -0.1498  1.0766
  105bbb     H6 3159   3.098   9.297   6.740 -1.4577 -1.1562  1.1065
  105bbb     C4 3160   3.113   9.332   6.522 -0.1065  0.4052 -0.1516
  105bbb     H7 3161   3.122   9.440   6.535  2.0651  0.2823 -0.2608
  105bbb     H8 3162   3.047   9.319   6.435  0.1569 -0.3761 -0.2387
  105bbb     C5 3163   2.757   9.128   6.720  0.1017 -0.4304  0.5932
  105bbb     H9 3164   2.736   9.066   6.807 -0.2589 -1.5801 -0.3003
  105bbb    H10 3165   2.827   9.062   6.667 -0.7341 -1.4710  0.7684
  105bbb     C6 3166   2.976   9.538   6.809  0.3255 -0.0848  0.0948
  105bbb    H11 3167   3.082   9.512   6.816  0.1631 -0.3323  2.4319
  105bbb    H12 3168   2.934   9.482   6.894 -2.2578  0.4271 -0.7324
  105bbb     C7 3169   3.256   9.268   6.507  0.3232 -0.3803 -0.0704
  105bbb    H13 3170   3.315   9.292   6.597  1.0190 -0.8526 -0.3975
  105bbb    H14 3171   3.300   9.322   6.422 -0.5417  1.6335  0.6861
  105bbb     C8 3172   2.961   9.690   6.841 -0.2152 -0.0403  0.0877
  105bbb    H15 3173   3.032   9.728   6.915  0.1640 -1.3582  0.4190
  105bbb    H16 3174   2.990   9.751   6.754  0.4123 -1.1211 -0.4880
  105bbb     C9 3175   2.627   9.150   6.632  0.1972  0.0732 -0.1816
  105bbb    H17 3176   2.564   9.061   6.630  0.0613  0.1711 -0.3668
  105bbb    H18 3177   2.665   9.177   6.532 -0.1735  1.6445  0.0750
  105bbb     O1 3178   3.256   9.126   6.485 -0.4865 -0.4873 -0.4401
  105bbb    H19 3179   2.847   9.318   6.570 -1.8567  1.1180  1.1654
  106bbb     N1 3180   3.604   6.990   5.556  0.2764  0.1332 -0.0750
  106bbb     C1 3181   3.663   6.848   5.539  0.8986 -0.1600  0.8249
  106bbb     H1 3182   3.644   6.805   5.440 -1.1099  1.2818  0.4947
  106bbb     H2 3183   3.599   6.786   5.601  1.2085 -0.7461  0.5665
  106bbb     C2 3184   3.463   6.998   5.491 -0.6535  0.1663  0.7518
  106bbb     H3 3185   3.429   7.099   5.515  0.2803  0.7681 -0.3604
  106bbb     H4 3186   3.391   6.935   5.542 -2.2393  0.6667 -0.7867
  106bbb     C3 3187   3.579   7.019   5.711 -0.1875  0.5419  0.4540
  106bbb     H5 3188   3.529   7.115   5.718 -1.7728 -0.3158  1.1540
  106bbb     H6 3189   3.674   7.035   5.762  0.3176 -0.9078  0.0266
  106bbb     C4 3190   3.511   6.915   5.801 -0.3347  0.0137 -0.6644
  106bbb     H7 3191   3.567   6.821   5.800 -0.2089 -0.0181  1.6981
  106bbb     H8 3192   3.406   6.901   5.773 -0.3757  0.4006 -0.7103
  106bbb     C5 3193   3.805   6.820   5.600 -0.3274  0.0595  0.2215
  106bbb     H9 3194   3.810   6.717   5.635 -0.4231  0.1372  0.4684
  106bbb    H10 3195   3.814   6.893   5.682  1.2151  1.6441 -1.2592
  106bbb     C6 3196   3.445   6.987   5.336 -0.6592  0.5424  0.5516
  106bbb    H11 3197   3.492   6.897   5.295  0.6923  1.8036 -0.8134
  106bbb    H12 3198   3.495   7.066   5.278  0.2398 -0.6475 -0.3438
  106bbb     C7 3199   3.497   6.968   5.941 -0.0887  0.6202  0.4500
  106bbb    H13 3200   3.466   6.891   6.011 -1.7403 -0.4407 -1.3566
  106bbb    H14 3201   3.427   7.053   5.944  0.8065  1.3700  0.6682
  106bbb     C8 3202   3.295   6.995   5.296  0.4910  0.1569  0.4726
  106bbb    H15 3203   3.289   6.995   5.186 -1.5697  2.3479  0.4960
  106bbb    H16 3204   3.239   6.911   5.340  1.5946  0.1588  1.9489
  106bbb     C9 3205   3.913   6.859   5.501 -0.2119  1.0109  0.3022
  106bbb    H17 3206   3.886   6.828   5.399 -2.4480  0.3483  1.0254
  106bbb    H18 3207   4.006   6.806   5.526 -0.3148  0.5319 -0.3182
  106bbb     O1 3208   3.632   7.010   5.979 -0.0812  0.3721  0.3305
  106bbb    H19 3209   3.672   7.059   5.521  1.0307 -0.9905 -0.9145
  107bbb     N1 3210   4.152   6.559   6.097 -0.2220  0.4425 -0.0971
  107bbb     C1 3211   4.200   6.695   6.133 -0.9670  0.1112  0.7466
  107bbb     H1 3212   4.118   6.754   6.175 -0.2181  2.0968 -0.4239
  107bbb     H2 3213   4.218   6.750   6.040  0.9609  0.6934  1.4320
  107bbb     C2 3214   4.112   6.491   6.231  0.5648  0.0824  0.7316
  107bbb     H3 3215   4.027   6.549   6.266  0.8717  2.0210 -1.4772
  107bbb     H4 3216   4.187   6.511   6.307  0.1792  1.6562  0.7312
  107bbb     C3 3217   4.019   6.571   6.008 -0.2279 -1.1879 -0.0556
  107bbb     H5 3218   3.966   6.656   6.050 -0.4511 -1.0479 -0.6184
  107bbb     H6 3219   3.960   6.480   6.020 -0.9056 -1.2581 -3.1306
  107bbb     C4 3220   4.036   6.589   5.855  0.3106  0.5373 -0.5825
  107bbb     H7 3221   3.947   6.573   5.793 -1.8685 -1.5162  2.7408
  107bbb     H8 3222   4.102   6.506   5.826  0.7347  0.9506 -0.7957
  107bbb     C5 3223   4.336   6.695   6.212  0.0638  0.0347  0.1891
  107bbb     H9 3224   4.397   6.606   6.194  0.4093  0.6159 -1.6932
  107bbb    H10 3225   4.302   6.693   6.317  0.2776 -1.4617  0.2453
  107bbb     C6 3226   4.078   6.345   6.249  0.0962  0.7866  0.2708
  107bbb    H11 3227   3.982   6.332   6.196  1.6538 -1.5624 -2.2360
  107bbb    H12 3228   4.065   6.317   6.354 -1.4778 -0.9343 -0.3321
  107bbb     C7 3229   4.111   6.717   5.824  0.2306  0.3211 -0.0179
  107bbb    H13 3230   4.121   6.723   5.715 -0.2774  1.8199 -0.0027
  107bbb    H14 3231   4.210   6.701   5.868  0.2020 -0.5697 -0.2619
  107bbb     C8 3232   4.183   6.254   6.188  0.0351  0.5769 -0.3367
  107bbb    H15 3233   4.285   6.288   6.209 -0.0314 -0.6832  2.4543
  107bbb    H16 3234   4.167   6.164   6.248  0.7766  1.7831  1.7612
  107bbb     C9 3235   4.418   6.825   6.179  0.2571 -0.3714  0.2086
  107bbb    H17 3236   4.514   6.830   6.232 -0.0297 -0.2895  0.7246
  107bbb    H18 3237   4.367   6.919   6.203 -1.4431 -1.3963  0.7422
  107bbb     O1 3238   4.050   6.841   5.867  0.1455  0.0899  0.1667
  107bbb    H19 3239   4.227   6.504   6.051 -0.3126  0.6820 -0.5430
  108bbb     N1 3240   4.237   6.520   4.893 -0.0751 -0.1046 -0.2168
  108bbb     C1 3241   4.184   6.468   5.023 -0.1522  0.0344  0.5106
  108bbb     H1 3242   4.095   6.411   4.997 -0.2216  1.2534 -2.3153
  108bbb     H2 3243   4.140   6.553   5.075  0.7570  1.8279 -1.4618
  108bbb     C2 3244   4.133   6.592   4.810  0.1545  0.9020 -0.1309
  108bbb     H3 3245   4.175   6.660   4.736 -0.2274  1.9826  0.6159
  108bbb     H4 3246   4.074   6.643   4.887  0.7851 -0.0638  1.0320
  108bbb     C3 3247   4.343   6.625   4.920 -0.1202 -0.4182 -0.0768
  108bbb     H5 3248   4.420   6.581   4.984  0.6356 -0.2164 -0.8237
  108bbb     H6 3249   4.311   6.715   4.971 -0.4197 -2.2344  3.2409
  108bbb     C4 3250   4.428   6.655   4.797 -0.6814 -0.2308 -0.0275
  108bbb     H7 3251   4.366   6.688   4.713 -1.7699  1.5763  1.4060
  108bbb     H8 3252   4.478   6.565   4.759  0.0092 -0.0023  0.3067
  108bbb     C5 3253   4.276   6.376   5.111  0.0738 -0.3612 -0.3201
  108bbb     H9 3254   4.350   6.440   5.160  0.0568  0.4179 -1.2800
  108bbb    H10 3255   4.326   6.305   5.044 -0.3967  0.2130 -1.3229
  108bbb     C6 3256   4.039   6.486   4.739  0.6028 -0.9511 -0.2203
  108bbb    H11 3257   3.954   6.461   4.804 -1.6491  1.9710 -1.8178
  108bbb    H12 3258   4.093   6.396   4.709  0.4259 -1.0387 -0.2762
  108bbb     C7 3259   4.544   6.758   4.824  0.7716  0.7241 -0.2370
  108bbb    H13 3260   4.590   6.776   4.726 -1.2159  1.2635 -1.1273
  108bbb    H14 3261   4.634   6.726   4.877  0.4697 -1.3882 -0.8877
  108bbb     C8 3262   3.978   6.548   4.618 -0.0291  0.3179  1.0397
  108bbb    H15 3263   3.903   6.483   4.573 -0.3690  1.3362  0.0753
  108bbb    H16 3264   3.927   6.641   4.646 -0.5055  0.4029 -0.0397
  108bbb     C9 3265   4.193   6.297   5.219 -0.4896  0.6449 -0.5040
  108bbb    H17 3266   4.164   6.354   5.308  1.4834  2.1797 -0.7485
  108bbb    H18 3267   4.250   6.210   5.251 -1.9599 -0.1013  0.1534
  108bbb     O1 3268   4.485   6.887   4.872 -0.0002  0.2944 -0.1020
  108bbb    H19 3269   4.282   6.445   4.838 -0.2753 -1.4694  1.4043
  109bbb     N1 3270   3.607   7.477   4.994 -0.0253  0.5159 -0.1903
  109bbb     C1 3271   3.565   7.613   4.934 -0.6150  0.3759 -0.0506
  109bbb     H1 3272   3.497   7.586   4.854  0.6912 -0.3268 -0.9552
  109bbb     H2 3273   3.656   7.652   4.888  0.0872  1.8721  2.3761
  109bbb     C2 3274   3.476   7.403   5.008  0.1827  0.0429 -0.2326
  109bbb     H3 3275   3.457   7.372   4.905  3.8935 -1.2243 -0.6724
  109bbb     H4 3276   3.396   7.473   5.035 -1.0287 -1.8056  1.2659
  109bbb     C3 3277   3.689   7.402   4.894  0.0595 -0.1811 -0.3733
  109bbb     H5 3278   3.632   7.387   4.803 -1.6284 -1.5240  0.8444
  109bbb     H6 3279   3.703   7.302   4.934  0.4647 -1.0396 -2.5420
  109bbb     C4 3280   3.827   7.468   4.863 -0.0663  1.0180 -0.0512
  109bbb     H7 3281   3.883   7.479   4.957 -1.4713 -2.3644  1.3445
  109bbb     H8 3282   3.811   7.567   4.820 -3.6826  0.8823  0.6716
  109bbb     C5 3283   3.508   7.720   5.032  0.4222  0.4995  0.2034
  109bbb     H9 3284   3.437   7.675   5.102  0.8170 -0.5317 -0.0429
  109bbb    H10 3285   3.466   7.803   4.974 -1.5593 -0.2270  0.5021
  109bbb     C6 3286   3.467   7.310   5.126  0.6795  0.7248 -0.1387
  109bbb    H11 3287   3.546   7.234   5.129  1.1414  1.2174  2.4237
  109bbb    H12 3288   3.374   7.253   5.126 -0.0468  1.8774 -1.0166
  109bbb     C7 3289   3.909   7.370   4.775  0.1293 -0.3556 -0.0907
  109bbb    H13 3290   3.897   7.389   4.668  3.2716  0.9791 -0.3164
  109bbb    H14 3291   3.883   7.266   4.802 -1.7828  0.4504  1.4150
  109bbb     C8 3292   3.472   7.378   5.262 -0.4768 -0.0831  0.6420
  109bbb    H15 3293   3.458   7.298   5.336  0.6579 -0.4256  0.5022
  109bbb    H16 3294   3.568   7.426   5.282  0.7752 -2.2472  0.1464
  109bbb     C9 3295   3.615   7.769   5.134  0.7157  0.5969  0.0753
  109bbb    H17 3296   3.571   7.847   5.197  0.5504  1.6381 -1.2624
  109bbb    H18 3297   3.695   7.818   5.076 -0.0798  1.8619  0.0037
  109bbb     O1 3298   4.050   7.374   4.800 -0.2508  0.4173 -0.1493
  109bbb    H19 3299   3.666   7.477   5.079  1.1980 -0.0694 -1.0039
  110bbb     N1 3300   2.786   7.726   9.824  0.2989 -0.1099 -0.1221
  110bbb     C1 3301   2.646   7.725   9.769 -0.2092  0.2499  0.4820
  110bbb     H1 3302   2.582   7.762   9.849  1.3879 -1.2722  2.5812
  110bbb     H2 3303   2.606   7.625   9.750  0.6107  0.4763 -3.2550
  110bbb     C2 3304   2.875   7.630   9.744 -0.2422 -0.2911 -0.3624
  110bbb     H3 3305   2.977   7.644   9.779 -0.3748 -1.9862  0.8256
  110bbb     H4 3306   2.861   7.671   9.644 -1.3229 -2.6081 -1.2376
  110bbb     C3 3307   2.847   7.870   9.810  0.1641  0.1002  0.3585
  110bbb     H5 3308   2.768   7.941   9.835  2.5509  3.0526  0.1299
  110bbb     H6 3309   2.880   7.892   9.709 -0.1063 -1.8864 -0.1976
  110bbb     C4 3310   2.973   7.895   9.891 -0.5305 -0.1414 -0.4146
  110bbb     H7 3311   3.056   7.841   9.844 -0.7887  0.4355 -1.5778
  110bbb     H8 3312   2.966   7.855   9.993 -2.5868 -1.6220 -1.0792
  110bbb     C5 3313   2.605   7.792   9.637 -0.3451  0.3620 -0.0222
  110bbb     H9 3314   2.650   7.741   9.550  0.6237  0.4858  0.4011
  110bbb    H10 3315   2.624   7.900   9.640 -0.6179  0.3974  0.5292
  110bbb     C6 3316   2.827   7.483   9.740  0.1003  0.0208 -0.3029
  110bbb    H11 3317   2.724   7.469   9.704 -0.5557  1.4563  0.8842
  110bbb    H12 3318   2.817   7.446   9.843 -1.8459  1.0341 -0.0862
  110bbb     C7 3319   2.990   8.047   9.911 -0.1945  0.4573 -0.3576
  110bbb    H13 3320   3.079   8.067   9.972 -1.3274  1.4867  1.0379
  110bbb    H14 3321   2.904   8.079   9.971  0.5124 -1.1343  1.6320
  110bbb     C8 3322   2.936   7.405   9.660  0.0485 -0.7389 -0.8252
  110bbb    H15 3323   2.910   7.298   9.657  0.1723 -0.8176  0.4406
  110bbb    H16 3324   2.951   7.447   9.560 -0.5158 -0.0996 -0.6464
  110bbb     C9 3325   2.456   7.787   9.612  0.4640 -0.0751 -0.0974
  110bbb    H17 3326   2.422   7.821   9.514 -1.1482 -0.9766  0.1117
  110bbb    H18 3327   2.399   7.847   9.683  0.0325 -1.6648  0.9477
  110bbb     O1 3328   2.995   8.112   9.782 -0.1469  0.2093 -0.1122
  110bbb    H19 3329   2.787   7.688   9.920  1.5282  1.7596  0.6712
  111bbb     N1 3330   3.585   8.112  10.204  0.0063  0.0855  0.1802
  111bbb     C1 3331   3.734   8.104  10.176 -0.0820  0.0718 -0.1103
  111bbb     H1 3332   3.775   8.204  10.158 -2.5473  1.0391 -0.8281
  111bbb     H2 3333   3.750   8.055  10.080  1.2281 -2.3866  1.2837
  111bbb     C2 3334   3.556   8.220  10.311 -0.7478  0.0927  0.6775
  111bbb     H3 3335   3.610   8.194  10.402  0.8692  0.6648 -0.0705
  111bbb     H4 3336   3.449   8.213  10.332 -0.6832 -1.2376  0.6795
  111bbb     C3 3337   3.516   8.148  10.071 -0.1359 -0.1083 -0.4262
  111bbb     H5 3338   3.568   8.086   9.997 -2.0166  0.3150 -2.1862
  111bbb     H6 3339   3.533   8.254  10.052  0.3604 -0.4207 -1.8069
  111bbb     C4 3340   3.365   8.128  10.058 -0.3570 -0.2218  0.0355
  111bbb     H7 3341   3.325   8.053  10.127  0.7838  0.0765  1.0500
  111bbb     H8 3342   3.336   8.098   9.956  1.3784 -0.0541 -0.5425
  111bbb     C5 3343   3.825   8.032  10.279  0.2440  0.6261  0.2247
  111bbb     H9 3344   3.855   8.098  10.361 -0.4339 -2.5509  3.2821
  111bbb    H10 3345   3.914   7.997  10.226 -1.5674  0.9216 -3.2945
  111bbb     C6 3346   3.597   8.370  10.284 -0.2273  0.2695  0.4743
  111bbb    H11 3347   3.513   8.418  10.233  0.4237  0.3460 -0.5498
  111bbb    H12 3348   3.694   8.379  10.233  0.6830 -3.1959  1.3266
  111bbb     C7 3349   3.284   8.262  10.076  0.3675  0.2610  0.2413
  111bbb    H13 3350   3.332   8.318  10.157  1.8729  0.1763 -0.5503
  111bbb    H14 3351   3.181   8.248  10.112 -0.0107 -0.5926 -1.0879
  111bbb     C8 3352   3.603   8.440  10.421 -0.6026 -0.7929 -0.4765
  111bbb    H15 3353   3.614   8.548  10.401 -2.2966 -0.7033 -1.1424
  111bbb    H16 3354   3.511   8.429  10.480  0.7880 -1.4034  1.6815
  111bbb     C9 3355   3.779   7.908  10.350  0.7196  0.2226  0.3539
  111bbb    H17 3356   3.683   7.928  10.399 -1.2598 -2.2606 -2.1423
  111bbb    H18 3357   3.851   7.880  10.428  1.0378 -2.5812 -0.8494
  111bbb     O1 3358   3.290   8.337   9.949  0.3330  0.0898  0.4795
  111bbb    H19 3359   3.539   8.026  10.237  1.0166 -1.0744 -1.2889
  112bbb     N1 3360   3.828   9.268  10.468  0.1383  0.2943 -0.3355
  112bbb     C1 3361   3.688   9.234  10.513  0.1292 -0.2611 -0.0639
  112bbb     H1 3362   3.685   9.211  10.620 -0.5812  1.9266  0.4446
  112bbb     H2 3363   3.651   9.142  10.468 -0.2615 -0.4849  0.6979
  112bbb     C2 3364   3.926   9.159  10.508  0.3296  0.0276 -0.2995
  112bbb     H3 3365   4.020   9.184  10.458  0.4826  0.0070 -0.0236
  112bbb     H4 3366   3.891   9.064  10.466 -0.9165 -0.1679  1.0697
  112bbb     C3 3367   3.833   9.280  10.321  0.0491 -0.4135  0.6880
  112bbb     H5 3368   3.751   9.344  10.288  0.5655  0.1171  0.4164
  112bbb     H6 3369   3.822   9.182  10.273  2.0209  0.5692 -2.0309
  112bbb     C4 3370   3.945   9.348  10.248  0.1474  0.9662  0.1770
  112bbb     H7 3371   4.041   9.322  10.294 -1.0640 -1.4194  1.5566
  112bbb     H8 3372   3.935   9.456  10.267 -1.2998  0.4319  3.0933
  112bbb     C5 3373   3.581   9.340  10.494 -0.0261 -0.8207 -0.2040
  112bbb     H9 3374   3.484   9.303  10.529  1.0766 -1.2048  2.8309
  112bbb    H10 3375   3.570   9.371  10.390 -1.1350  0.4745  0.2686
  112bbb     C6 3376   3.970   9.144  10.656  0.5946  0.2446  0.0786
  112bbb    H11 3377   3.892   9.089  10.711  1.3218  0.8499  1.8063
  112bbb    H12 3378   3.981   9.245  10.698  0.3278  0.9473 -1.4622
  112bbb     C7 3379   3.940   9.311  10.098 -0.2031  0.2267 -0.2022
  112bbb    H13 3380   3.996   9.381  10.035  0.6274 -0.9566 -0.8176
  112bbb    H14 3381   3.835   9.316  10.064 -0.0185 -0.2696 -0.8783
  112bbb     C8 3382   4.106   9.075  10.678  0.1028  0.5684 -0.0313
  112bbb    H15 3383   4.098   8.970  10.649 -0.3918  0.9029 -1.1715
  112bbb    H16 3384   4.182   9.122  10.614  2.0649 -0.7570  1.2060
  112bbb     C9 3385   3.616   9.463  10.577 -0.2795  0.1345  1.0710
  112bbb    H17 3386   3.536   9.538  10.578  0.9913  1.5456  0.5938
  112bbb    H18 3387   3.704   9.497  10.522 -0.6954 -0.8525 -0.2807
  112bbb     O1 3388   4.002   9.193  10.075 -0.0672  0.2316 -0.4095
  112bbb    H19 3389   3.852   9.357  10.514 -1.6803 -0.6923  2.8906
  113bbb     N1 3390   4.554   8.879  10.803 -0.6826 -0.1765  1.4056
  113bbb     C1 3391   4.682   8.945  10.845  0.1801 -0.4943  0.2257
  113bbb     H1 3392   4.658   9.046  10.878  0.6709 -0.8551  1.7594
  113bbb     H2 3393   4.756   8.944  10.765  0.2967 -0.9774  0.3363
  113bbb     C2 3394   4.454   8.900  10.906  0.0262 -0.0633 -0.4533
  113bbb     H3 3395   4.422   9.004  10.911 -0.9479 -0.3846  0.5422
  113bbb     H4 3396   4.510   8.879  10.997  0.3322  0.2127 -0.5746
  113bbb     C3 3397   4.507   8.950  10.676 -0.4157 -0.0996  0.1356
  113bbb     H5 3398   4.511   9.058  10.690 -1.7786 -0.1510  1.1102
  113bbb     H6 3399   4.402   8.924  10.667 -0.1140 -1.3762  0.1212
  113bbb     C4 3400   4.578   8.905  10.543  0.9996  0.2856  0.0452
  113bbb     H7 3401   4.565   8.799  10.521  1.1151  0.5081 -1.1807
  113bbb     H8 3402   4.687   8.922  10.548  1.1339 -0.1141 -1.1685
  113bbb     C5 3403   4.751   8.880  10.968 -0.5345 -0.6216 -0.5639
  113bbb     H9 3404   4.856   8.869  10.937  0.2872 -2.4285  2.4540
  113bbb    H10 3405   4.718   8.777  10.981 -0.3356 -0.8339 -1.6158
  113bbb     C6 3406   4.318   8.822  10.891 -0.0961  0.1965 -0.0479
  113bbb    H11 3407   4.351   8.721  10.866  2.3781  0.3427  2.1689
  113bbb    H12 3408   4.256   8.857  10.808 -0.2174  0.1247  0.0123
  113bbb     C7 3409   4.538   8.998  10.433 -0.1486  0.4098 -0.1971
  113bbb    H13 3410   4.594   8.974  10.342 -0.3896 -1.1923  0.0530
  113bbb    H14 3411   4.544   9.100  10.474 -0.9697  0.1770  0.5219
  113bbb     C8 3412   4.241   8.819  11.025  0.3115 -0.4927 -0.1930
  113bbb    H15 3413   4.184   8.910  11.044  1.3171 -0.3291  2.4245
  113bbb    H16 3414   4.176   8.730  11.024  1.4278 -1.3344 -0.3722
  113bbb     C9 3415   4.744   8.955  11.100 -0.1862  0.3419 -0.3517
  113bbb    H17 3416   4.810   8.900  11.169  0.5384  0.5297 -0.8800
  113bbb    H18 3417   4.642   8.968  11.139  0.0549 -1.3558  0.9790
  113bbb     O1 3418   4.401   8.976  10.399  0.5130  0.6927  0.0243
  113bbb    H19 3419   4.563   8.778  10.782  1.1842  0.4872 -1.7824
  114bbb     N1 3420   5.774   8.535   9.060  0.1254  0.0523 -0.0572
  114bbb     C1 3421   5.673   8.633   9.119 -0.6496 -0.3182 -0.2199
  114bbb     H1 3422   5.643   8.676   9.023  1.5031 -0.0720 -0.8383
  114bbb     H2 3423   5.733   8.702   9.178 -0.1223 -2.0017  1.2921
  114bbb     C2 3424   5.872   8.598   8.965  0.4300  0.3073 -0.1537
  114bbb     H3 3425   5.946   8.519   8.952  0.0125 -0.1950  0.4750
  114bbb     H4 3426   5.913   8.679   9.026 -1.4019  2.1272 -1.2275
  114bbb     C3 3427   5.850   8.462   9.172 -0.2834  0.1197 -0.5682
  114bbb     H5 3428   5.776   8.432   9.246  1.4594  1.7152  2.0172
  114bbb     H6 3429   5.916   8.521   9.235 -1.4075  0.5031  0.2654
  114bbb     C4 3430   5.929   8.329   9.142  0.0443 -0.5263 -0.8176
  114bbb     H7 3431   5.939   8.278   9.239 -0.3457 -1.4450 -1.2421
  114bbb     H8 3432   6.030   8.367   9.127 -0.3409  1.7436  1.5777
  114bbb     C5 3433   5.562   8.579   9.204 -0.0237  0.0704  0.3099
  114bbb     H9 3434   5.604   8.554   9.302 -0.3678  0.0452  0.4499
  114bbb    H10 3435   5.518   8.496   9.146  1.4297 -1.2898  1.0580
  114bbb     C6 3436   5.817   8.644   8.832  0.1731  0.4203  0.0553
  114bbb    H11 3437   5.897   8.701   8.783 -0.0017  0.6991  0.0955
  114bbb    H12 3438   5.733   8.712   8.849  0.0595  0.4526 -0.6067
  114bbb     C7 3439   5.875   8.228   9.034 -0.5706  0.4384  0.0216
  114bbb    H13 3440   5.928   8.133   9.048 -0.7229  0.7160  3.4253
  114bbb    H14 3441   5.891   8.274   8.936 -0.2405 -2.5764 -1.4447
  114bbb     C8 3442   5.767   8.531   8.738  0.4108 -0.1503 -0.2508
  114bbb    H15 3443   5.660   8.517   8.757  0.7477 -1.0664  1.0776
  114bbb    H16 3444   5.778   8.580   8.640  0.9295  0.8909  0.3078
  114bbb     C9 3445   5.456   8.688   9.226 -0.5394 -0.2918 -0.6661
  114bbb    H17 3446   5.383   8.644   9.295 -1.2071  1.9111  0.1128
  114bbb    H18 3447   5.408   8.712   9.130  0.3154 -0.7050 -1.2157
  114bbb     O1 3448   5.730   8.216   9.051  0.2496 -0.0547 -0.0617
  114bbb    H19 3449   5.729   8.454   9.015 -0.7309  0.4193  0.1315
  115bbb     N1 3450   6.034   7.646   9.414  0.3713 -0.2608 -0.4579
  115bbb     C1 3451   6.167   7.582   9.446 -0.1239 -0.6798 -0.0431
  115bbb     H1 3452   6.168   7.576   9.555  0.0579  2.3659  0.2147
  115bbb     H2 3453   6.236   7.660   9.413 -0.3227 -0.8420 -0.8810
  115bbb     C2 3454   6.011   7.767   9.514  0.2183 -0.1866 -0.5703
  115bbb     H3 3455   5.936   7.835   9.474  0.2247  0.5856  0.6670
  115bbb     H4 3456   6.107   7.815   9.535  0.1841 -1.1718  2.3492
  115bbb     C3 3457   6.040   7.704   9.270  0.3309  0.1527  0.5822
  115bbb     H5 3458   6.076   7.622   9.208  3.6745  0.3396  2.0511
  115bbb     H6 3459   6.117   7.782   9.276  0.2191  0.1429  3.5452
  115bbb     C4 3460   5.910   7.755   9.204  0.6346 -0.1888 -0.2263
  115bbb     H7 3461   5.858   7.803   9.288  0.2103 -2.6062  0.9871
  115bbb     H8 3462   5.842   7.675   9.172  0.2754  0.0655 -0.1148
  115bbb     C5 3463   6.211   7.452   9.373  0.6167 -0.8142 -0.3411
  115bbb     H9 3464   6.224   7.468   9.265 -0.5868 -0.8112 -0.5021
  115bbb    H10 3465   6.122   7.389   9.386  0.5171 -0.4379  0.8811
  115bbb     C6 3466   5.966   7.734   9.658  0.2300  0.1536  0.1333
  115bbb    H11 3467   5.985   7.825   9.718 -0.0639 -0.6795  1.5473
  115bbb    H12 3468   6.025   7.650   9.696  0.5662  0.4479  0.2826
  115bbb     C7 3469   5.929   7.852   9.084  0.4052  0.3498  0.0298
  115bbb    H13 3470   5.984   7.809   9.000  1.2698  0.8660  0.3227
  115bbb    H14 3471   5.987   7.937   9.122 -0.1957 -0.1005  2.1206
  115bbb     C8 3472   5.813   7.698   9.666  0.0319  0.8649 -0.0426
  115bbb    H15 3473   5.792   7.614   9.599  0.8320  1.3327 -0.9012
  115bbb    H16 3474   5.775   7.674   9.766 -0.2427  1.3040 -0.0404
  115bbb     C9 3475   6.336   7.377   9.422  0.5146 -0.3539 -0.2348
  115bbb    H17 3476   6.432   7.411   9.382  1.6117 -1.0030  1.7058
  115bbb    H18 3477   6.330   7.277   9.378 -4.9308 -0.5210  0.1732
  115bbb     O1 3478   5.800   7.891   9.030  0.4510 -0.3847  0.5083
  115bbb    H19 3479   5.961   7.573   9.416  0.6673 -0.5522  0.4369
  116bbb     N1 3480   5.523   6.811   9.972 -0.1720  0.2171  0.2822
  116bbb     C1 3481   5.527   6.665   9.930  0.1577 -0.9790 -0.6539
  116bbb     H1 3482   5.611   6.656   9.860  0.6144 -0.4396 -0.1887
  116bbb     H2 3483   5.436   6.644   9.873 -1.4653  2.7831  0.2545
  116bbb     C2 3484   5.650   6.854  10.052 -0.0848  0.6970 -0.2500
  116bbb     H3 3485   5.743   6.848   9.994 -0.0453  3.8860 -0.7134
  116bbb     H4 3486   5.661   6.787  10.137  0.9820  1.2891  0.1069
  116bbb     C3 3487   5.514   6.894   9.847 -0.1019 -0.1590 -0.1005
  116bbb     H5 3488   5.614   6.899   9.805  1.0122  1.2176  2.4556
  116bbb     H6 3489   5.495   6.992   9.892  1.4577 -0.4784  1.3531
  116bbb     C4 3490   5.408   6.843   9.745  0.3382 -0.1951  0.5689
  116bbb     H7 3491   5.316   6.811   9.796  0.2763 -1.6668 -0.4237
  116bbb     H8 3492   5.450   6.753   9.699  1.2380 -0.1151  1.2210
  116bbb     C5 3493   5.545   6.565  10.041  0.7308 -0.3325  0.4590
  116bbb     H9 3494   5.469   6.576  10.119 -1.7417  3.6784 -2.1471
  116bbb    H10 3495   5.641   6.576  10.093  0.5968  0.6256  0.5174
  116bbb     C6 3496   5.636   6.999  10.108 -0.2234  0.2600  0.1638
  116bbb    H11 3497   5.548   6.998  10.173 -1.7347 -0.4507 -1.8054
  116bbb    H12 3498   5.619   7.069  10.025 -1.5774  0.7772  0.8447
  116bbb     C7 3499   5.376   6.944   9.631  0.4420 -0.0006 -0.2333
  116bbb    H13 3500   5.334   7.030   9.683  3.0288 -0.1233  2.3379
  116bbb    H14 3501   5.303   6.903   9.560 -1.3836  3.1938 -0.3775
  116bbb     C8 3502   5.757   7.050  10.187  0.0066  0.2623 -0.1293
  116bbb    H15 3503   5.738   7.142  10.244  2.4008 -0.4765  2.0821
  116bbb    H16 3504   5.764   6.979  10.270 -0.5758 -1.0372 -1.1595
  116bbb     C9 3505   5.535   6.421   9.996  0.5867 -0.3738  0.1637
  116bbb    H17 3506   5.531   6.351  10.080 -0.9862 -1.2430 -0.5899
  116bbb    H18 3507   5.624   6.400   9.935  0.5941  1.7258 -0.6079
  116bbb     O1 3508   5.491   6.983   9.554  0.3108  0.0408  0.1815
  116bbb    H19 3509   5.439   6.835  10.027 -0.8990 -0.6005 -0.4413
  117bbb     N1 3510   4.822   6.501   9.001 -0.0474 -0.2728  0.1456
  117bbb     C1 3511   4.859   6.458   8.863 -0.1114  0.6297  0.8348
  117bbb     H1 3512   4.939   6.385   8.873  0.6078  1.1665 -0.6829
  117bbb     H2 3513   4.905   6.540   8.806 -0.3563 -0.9322 -1.7694
  117bbb     C2 3514   4.794   6.382   9.089 -0.1474  0.0963 -0.1681
  117bbb     H3 3515   4.872   6.374   9.164 -0.5250 -1.4052  0.0948
  117bbb     H4 3516   4.797   6.298   9.019 -2.0350  0.0537 -0.2634
  117bbb     C3 3517   4.939   6.566   9.061 -0.1224 -0.4687  0.9921
  117bbb     H5 3518   5.030   6.509   9.041 -0.0125  0.3201 -0.9308
  117bbb     H6 3519   4.914   6.571   9.167 -0.4992  0.2968  0.8743
  117bbb     C4 3520   4.971   6.713   9.016 -0.0724  0.4566  0.7526
  117bbb     H7 3521   4.879   6.772   9.002  1.1458  2.4400  0.7483
  117bbb     H8 3522   5.018   6.716   8.917 -0.4790 -0.5838  0.5089
  117bbb     C5 3523   4.746   6.403   8.777  0.1318  0.2707  0.7562
  117bbb     H9 3524   4.681   6.485   8.742  2.0321  1.1287 -1.0382
  117bbb    H10 3525   4.683   6.332   8.830  1.8081 -1.3312  0.7037
  117bbb     C6 3526   4.658   6.390   9.162  0.3642 -0.3895 -0.1093
  117bbb    H11 3527   4.577   6.401   9.089 -1.6370 -0.7402  1.9601
  117bbb    H12 3528   4.656   6.475   9.232 -2.4788 -0.9164  0.5924
  117bbb     C7 3529   5.045   6.791   9.129  0.2446 -0.1268 -0.1061
  117bbb    H13 3530   4.973   6.794   9.211  1.3556 -1.8493  0.9950
  117bbb    H14 3531   5.074   6.895   9.107 -0.3054 -0.3787 -2.3112
  117bbb     C8 3532   4.627   6.265   9.240  0.0812  0.3620 -0.0563
  117bbb    H15 3533   4.536   6.277   9.300 -0.7853 -1.0284 -1.0377
  117bbb    H16 3534   4.610   6.177   9.177  2.3709  0.6210 -1.1349
  117bbb     C9 3535   4.815   6.344   8.652 -0.4772  0.6656  0.5128
  117bbb    H17 3536   4.912   6.300   8.676 -0.3813  0.6190  0.0493
  117bbb    H18 3537   4.820   6.425   8.578 -1.3835  2.5725  2.4325
  117bbb     O1 3538   5.166   6.716   9.168  0.1166 -0.4459 -0.9595
  117bbb    H19 3539   4.731   6.550   8.998  0.2099  0.6482  3.3845
  118bbb     N1 3540   2.251   8.280   7.732  0.2044  0.6327 -0.7698
  118bbb     C1 3541   2.123   8.328   7.784  1.3005  0.0693 -0.1770
  118bbb     H1 3542   2.096   8.414   7.722 -1.1629 -0.3761  0.1968
  118bbb     H2 3543   2.136   8.370   7.884  0.5019 -3.0091  1.3495
  118bbb     C2 3544   2.242   8.239   7.584  0.4359 -0.6560 -0.1357
  118bbb     H3 3545   2.178   8.151   7.573 -1.4883  0.9560 -2.9098
  118bbb     H4 3546   2.341   8.197   7.564  0.3192 -1.0258  0.0476
  118bbb     C3 3547   2.359   8.381   7.753 -0.2180  0.9458  0.3250
  118bbb     H5 3548   2.332   8.472   7.806  2.4902  1.6072  0.6910
  118bbb     H6 3549   2.402   8.394   7.654  1.0317 -3.5052  0.0465
  118bbb     C4 3550   2.480   8.334   7.831  0.2708 -0.0952  0.1957
  118bbb     H7 3551   2.462   8.346   7.939 -2.1485 -5.6945  0.7647
  118bbb     H8 3552   2.561   8.401   7.798 -0.3175  0.0632 -0.9335
  118bbb     C5 3553   2.003   8.229   7.781  0.0766  0.4281  0.2029
  118bbb     H9 3554   1.983   8.188   7.681 -0.6710  0.4572  0.3329
  118bbb    H10 3555   1.915   8.294   7.796  0.2735  0.5921  0.6637
  118bbb     C6 3556   2.210   8.354   7.488  0.2340 -0.8663  0.0089
  118bbb    H11 3557   2.282   8.436   7.497  0.2577 -1.0248  1.6734
  118bbb    H12 3558   2.123   8.410   7.524  0.2178 -0.4690 -0.6394
  118bbb     C7 3559   2.524   8.183   7.815 -0.1016 -0.7899 -0.5302
  118bbb    H13 3560   2.444   8.112   7.839 -0.2165  0.0160  1.6689
  118bbb    H14 3561   2.605   8.163   7.886  0.2941  0.5769 -0.5597
  118bbb     C8 3562   2.193   8.318   7.336  0.6065  0.1279 -0.2925
  118bbb    H15 3563   2.091   8.281   7.322 -0.4387  0.0923  5.3007
  118bbb    H16 3564   2.210   8.403   7.269 -3.5353 -0.8912 -3.0258
  118bbb     C9 3565   2.019   8.117   7.890 -0.3528 -0.0666  0.2944
  118bbb    H17 3566   2.113   8.071   7.859 -0.4126  0.4738 -0.7426
  118bbb    H18 3567   1.936   8.046   7.880 -1.2359  0.8744  0.6967
  118bbb     O1 3568   2.571   8.174   7.680 -0.1683 -0.6165  0.1663
  118bbb    H19 3569   2.264   8.193   7.786 -0.3222 -0.7802 -2.8031
  119bbb     N1 3570   2.348   8.878   7.455 -0.2455 -0.6277 -0.5991
  119bbb     C1 3571   2.317   9.000   7.374  0.0210 -0.5330  0.7334
  119bbb     H1 3572   2.328   8.957   7.275 -1.0941 -1.4300  0.9682
  119bbb     H2 3573   2.399   9.069   7.395 -1.0322  1.7778 -2.0486
  119bbb     C2 3574   2.380   8.932   7.594  0.0850 -0.3452 -0.0694
  119bbb     H3 3575   2.307   9.007   7.626 -0.1900 -1.1391  1.2076
  119bbb     H4 3576   2.472   8.990   7.582 -1.1474  1.2909 -2.7530
  119bbb     C3 3577   2.240   8.780   7.469 -0.2121 -0.1383 -0.0186
  119bbb     H5 3578   2.159   8.830   7.522  0.2389 -0.8583  1.4033
  119bbb     H6 3579   2.272   8.694   7.528  0.8091 -0.0717 -0.4515
  119bbb     C4 3580   2.194   8.724   7.338  0.4880 -0.1714 -0.4092
  119bbb     H7 3581   2.134   8.803   7.290 -0.9135  1.0684  3.0789
  119bbb     H8 3582   2.124   8.640   7.350  0.9338 -0.5014 -0.0931
  119bbb     C5 3583   2.177   9.066   7.390  0.7636 -0.7899  0.0760
  119bbb     H9 3584   2.164   9.098   7.494  1.7526  1.7931 -0.5158
  119bbb    H10 3585   2.099   8.995   7.360  0.8345 -1.0114  0.4098
  119bbb     C6 3586   2.417   8.827   7.707  0.8364  0.1435  1.0730
  119bbb    H11 3587   2.480   8.749   7.662 -2.8281 -1.3488 -2.1977
  119bbb    H12 3588   2.327   8.770   7.734  1.1947 -1.3304 -0.6180
  119bbb     C7 3589   2.301   8.680   7.233  0.3341 -1.0542  0.1352
  119bbb    H13 3590   2.341   8.773   7.190 -1.5383  0.3502  1.2287
  119bbb    H14 3591   2.255   8.621   7.153 -0.3659 -1.0890  0.5587
  119bbb     C8 3592   2.466   8.896   7.834 -0.1548 -0.5819  0.2793
  119bbb    H15 3593   2.386   8.966   7.860  0.6193 -0.1613  1.6332
  119bbb    H16 3594   2.481   8.820   7.912  1.3062 -0.6559 -0.0393
  119bbb     C9 3595   2.173   9.194   7.310  0.2440 -0.2960 -0.2793
  119bbb    H17 3596   2.071   9.234   7.311 -1.2202 -3.6253  1.3824
  119bbb    H18 3597   2.204   9.164   7.210 -3.0538 -0.2840 -1.4057
  119bbb     O1 3598   2.408   8.605   7.305 -0.3665  0.3253 -0.2162
  119bbb    H19 3599   2.428   8.835   7.407 -0.8061  1.2021 -3.4149
  120bbb     N1 3600   4.236   9.293   8.541 -0.3157  1.0624 -0.0878
  120bbb     C1 3601   4.266   9.412   8.454 -0.4832  0.0586 -0.1757
  120bbb     H1 3602   4.357   9.450   8.499  0.3282  0.3805 -1.9859
  120bbb     H2 3603   4.181   9.479   8.469 -0.4267  0.1479 -0.2495
  120bbb     C2 3604   4.219   9.318   8.690  1.1690 -0.0751 -0.1443
  120bbb     H3 3605   4.170   9.228   8.729  3.3763 -0.9768  0.7475
  120bbb     H4 3606   4.152   9.403   8.698 -0.0575 -1.1511  1.8078
  120bbb     C3 3607   4.104   9.238   8.490 -0.1812  0.4754 -0.2356
  120bbb     H5 3608   4.058   9.313   8.425 -0.1498 -0.9818 -2.0415
  120bbb     H6 3609   4.036   9.212   8.571 -0.0668  0.4597 -0.1452
  120bbb     C4 3610   4.126   9.099   8.414 -0.7097 -0.6355  0.4029
  120bbb     H7 3611   4.126   9.022   8.492  1.1443  1.2676  2.4418
  120bbb     H8 3612   4.224   9.105   8.364 -0.7592  0.2891  0.3943
  120bbb     C5 3613   4.300   9.382   8.304  0.1981 -0.1524  0.2531
  120bbb     H9 3614   4.224   9.324   8.250 -0.4251 -0.0897  1.0504
  120bbb    H10 3615   4.389   9.317   8.304 -1.4087 -2.6708  3.8089
  120bbb     C6 3616   4.348   9.333   8.776  0.2262 -1.0159  0.5222
  120bbb    H11 3617   4.421   9.406   8.738  1.4614 -1.2623  2.2788
  120bbb    H12 3618   4.402   9.238   8.784 -1.4187 -2.0973 -0.6880
  120bbb     C7 3619   4.024   9.061   8.311  0.5309 -0.2218 -0.2257
  120bbb    H13 3620   4.015   9.142   8.237  1.5150 -0.3167 -0.4593
  120bbb    H14 3621   3.926   9.057   8.361  0.6507  1.5101  0.2306
  120bbb     C8 3622   4.313   9.385   8.917  0.6075 -0.5881 -0.5216
  120bbb    H15 3623   4.252   9.305   8.961  2.7233 -1.4804  0.9414
  120bbb    H16 3624   4.406   9.398   8.973  1.0423 -2.2627 -0.8079
  120bbb     C9 3625   4.330   9.513   8.224 -0.9349  0.6471  0.0766
  120bbb    H17 3626   4.333   9.478   8.121  3.1605  0.0798  0.2152
  120bbb    H18 3627   4.429   9.558   8.243  0.3680 -2.1483  0.3681
  120bbb     O1 3628   4.058   8.932   8.257 -0.1206 -0.1747  0.2700
  120bbb    H19 3629   4.310   9.224   8.527 -1.0077  0.7978 -3.2176
  121bbb     N1 3630   3.393   9.146   8.214  0.3544  0.2431 -0.3270
  121bbb     C1 3631   3.260   9.087   8.149 -0.0733  0.4629 -0.3175
  121bbb     H1 3632   3.211   9.024   8.224  1.3134  0.2828  0.4780
  121bbb     H2 3633   3.294   9.009   8.081  0.5952  0.2212  0.2893
  121bbb     C2 3634   3.385   9.254   8.327 -0.0614 -0.4997  0.0426
  121bbb     H3 3635   3.328   9.338   8.289  0.1085  0.1626  1.2079
  121bbb     H4 3636   3.486   9.292   8.338  0.8877 -2.5738 -0.8661
  121bbb     C3 3637   3.468   9.027   8.280 -0.7760  0.0462 -0.4569
  121bbb     H5 3638   3.491   8.960   8.197  2.5250  3.0286 -2.2317
  121bbb     H6 3639   3.396   8.977   8.345  0.6493 -0.3630  0.8451
  121bbb     C4 3640   3.605   9.053   8.339  0.3993  0.3594 -0.8058
  121bbb     H7 3641   3.598   9.122   8.423  1.0994  1.5230 -1.6685
  121bbb     H8 3642   3.683   9.092   8.272  1.6050 -0.7412 -0.0929
  121bbb     C5 3643   3.160   9.192   8.095 -0.0956  0.1116 -0.4611
  121bbb     H9 3644   3.130   9.263   8.174 -0.9677  0.3486 -0.9870
  121bbb    H10 3645   3.071   9.141   8.056 -0.8204  1.4109 -0.5984
  121bbb     C6 3646   3.317   9.227   8.460 -0.3245  0.5046 -0.5492
  121bbb    H11 3647   3.375   9.153   8.517 -0.7860  0.3386 -0.2893
  121bbb    H12 3648   3.218   9.185   8.442 -0.7657  1.4306 -0.3934
  121bbb     C7 3649   3.675   8.932   8.402 -0.6627  1.5917 -0.0190
  121bbb    H13 3650   3.614   8.877   8.475  1.4966 -1.5104 -0.3848
  121bbb    H14 3651   3.759   8.968   8.463 -0.0381  1.0536 -0.5535
  121bbb     C8 3652   3.299   9.362   8.536  0.1855 -0.4106  0.6233
  121bbb    H15 3653   3.259   9.443   8.473  2.3684 -0.2688 -0.7158
  121bbb    H16 3654   3.241   9.351   8.628  0.2400 -0.2506  0.6771
  121bbb     C9 3655   3.215   9.272   7.979  0.0086 -0.4997 -0.1081
  121bbb    H17 3656   3.311   9.317   8.006 -0.6326  1.2654 -0.6627
  121bbb    H18 3657   3.142   9.343   7.939  0.2645 -0.0652  0.1893
  121bbb     O1 3658   3.716   8.839   8.302  0.2023  0.1467 -0.2198
  121bbb    H19 3659   3.457   9.183   8.142  1.1272 -1.1069 -0.3828
  122bbb     N1 3660   2.936   6.158   7.654 -0.0282  0.2633  0.8174
  122bbb     C1 3661   3.066   6.233   7.638  0.0589  0.1798 -0.7460
  122bbb     H1 3662   3.151   6.168   7.661  1.1571  1.4616 -1.0057
  122bbb     H2 3663   3.069   6.297   7.726  0.6309 -1.5543  0.5542
  122bbb     C2 3664   2.950   6.008   7.628  0.0476  0.5171  0.3286
  122bbb     H3 3665   2.863   5.961   7.673 -0.6631  1.7428  0.2794
  122bbb     H4 3666   3.037   5.976   7.685  0.5290  1.4654  0.1457
  122bbb     C3 3667   2.873   6.163   7.793 -0.4030 -0.2519  0.6988
  122bbb     H5 3668   2.933   6.119   7.873  1.8602 -1.7931 -1.6962
  122bbb     H6 3669   2.789   6.093   7.790  0.6997 -1.5804 -0.2719
  122bbb     C4 3670   2.817   6.300   7.834 -0.0358 -0.2982  0.3577
  122bbb     H7 3671   2.708   6.312   7.824 -0.0230 -0.0747  0.4763
  122bbb     H8 3672   2.859   6.390   7.788 -0.2111 -0.2756  0.2409
  122bbb     C5 3673   3.092   6.299   7.501 -0.6830  0.1448  0.0555
  122bbb     H9 3674   2.995   6.322   7.456 -0.5800  1.0212  0.2699
  122bbb    H10 3675   3.135   6.221   7.437 -1.2751 -0.8610  0.8593
  122bbb     C6 3676   2.945   5.969   7.479  0.6559 -0.1550  0.4236
  122bbb    H11 3677   3.041   5.986   7.429 -0.3590 -0.3417 -1.6920
  122bbb    H12 3678   2.876   6.033   7.424  2.0208  1.3801  0.4075
  122bbb     C7 3679   2.822   6.326   7.985 -0.4023  0.4818 -0.7470
  122bbb    H13 3680   2.772   6.246   8.041 -0.4856 -0.5985 -2.3118
  122bbb    H14 3681   2.768   6.421   7.987 -2.0970 -0.4493 -0.9757
  122bbb     C8 3682   2.909   5.822   7.469 -0.0111 -0.8591  1.1294
  122bbb    H15 3683   2.822   5.807   7.533 -0.8373  0.3152  0.3095
  122bbb    H16 3684   2.883   5.800   7.364 -0.4623  2.2949  0.4968
  122bbb     C9 3685   3.170   6.432   7.512 -0.2591  0.0935 -0.0289
  122bbb    H17 3686   3.133   6.489   7.598  2.6163  0.3923  1.1206
  122bbb    H18 3687   3.158   6.493   7.422  1.4189 -0.6685 -0.8055
  122bbb     O1 3688   2.959   6.354   8.045 -0.4119  0.6678  0.5554
  122bbb    H19 3689   2.870   6.193   7.583  0.0969  2.9595  1.9258
  123bbb     N1 3690   2.822   6.358   8.657 -0.0983 -0.0044  0.1412
  123bbb     C1 3691   2.666   6.352   8.681  0.2666 -0.1121 -0.1814
  123bbb     H1 3692   2.644   6.414   8.769  0.5885 -0.5568  0.2164
  123bbb     H2 3693   2.635   6.252   8.713 -0.1829  0.2122  0.4246
  123bbb     C2 3694   2.879   6.247   8.570  0.1868  0.6533 -0.5039
  123bbb     H3 3695   2.836   6.236   8.471  2.2013 -2.5729 -1.1904
  123bbb     H4 3696   2.846   6.154   8.617  0.8460  1.2122  1.1770
  123bbb     C3 3697   2.859   6.491   8.601 -0.5943  0.0326  0.6502
  123bbb     H5 3698   2.809   6.501   8.505  2.1786  2.4540 -0.7306
  123bbb     H6 3699   2.966   6.493   8.580 -1.0982  0.1597 -2.2548
  123bbb     C4 3700   2.816   6.609   8.687  0.0750 -0.5907 -0.0591
  123bbb     H7 3701   2.837   6.599   8.794 -1.1954 -2.0060  0.0956
  123bbb     H8 3702   2.708   6.625   8.695  0.0165 -1.1554  0.3076
  123bbb     C5 3703   2.581   6.398   8.558 -0.0937  0.1349 -0.3784
  123bbb     H9 3704   2.598   6.318   8.485  0.3519  0.8654 -1.0937
  123bbb    H10 3705   2.619   6.494   8.521  0.5069 -0.5343 -1.5527
  123bbb     C6 3706   3.037   6.242   8.556  0.3359 -0.7112  0.9656
  123bbb    H11 3707   3.085   6.242   8.655 -0.4051 -1.1291  1.3385
  123bbb    H12 3708   3.075   6.325   8.497 -0.2225 -0.2883  1.1923
  123bbb     C7 3709   2.878   6.746   8.653 -0.2313 -0.3978 -0.1208
  123bbb    H13 3710   2.988   6.751   8.654 -0.2719  2.6656  0.0086
  123bbb    H14 3711   2.831   6.823   8.715 -0.9245  0.1959 -1.3524
  123bbb     C8 3712   3.079   6.119   8.476 -0.7253  0.3269  0.4244
  123bbb    H15 3713   3.186   6.120   8.456 -0.7693 -0.4779  0.0616
  123bbb    H16 3714   3.063   6.025   8.530 -2.3197 -0.8151 -1.8181
  123bbb     C9 3715   2.433   6.400   8.602 -0.1185  0.3243  0.1202
  123bbb    H17 3716   2.378   6.440   8.516  0.9084  0.9393 -0.2615
  123bbb    H18 3717   2.409   6.463   8.689 -1.4779 -0.8976  0.6718
  123bbb     O1 3718   2.846   6.788   8.525 -0.0612  0.1313  0.2679
  123bbb    H19 3719   2.860   6.345   8.752 -1.6151 -0.2786  0.7356
  124bbb     N1 3720   4.224   6.754   7.677 -0.2969  0.0086  0.4324
  124bbb     C1 3721   4.083   6.741   7.725  0.2901 -0.1270  0.2076
  124bbb     H1 3722   4.038   6.646   7.694 -3.7060  1.6125  0.1804
  124bbb     H2 3723   4.017   6.811   7.673 -1.3949 -1.0926  0.9528
  124bbb     C2 3724   4.219   6.746   7.524  0.3422 -0.0007  0.4589
  124bbb     H3 3725   4.321   6.758   7.486  0.1705 -1.3220 -0.4860
  124bbb     H4 3726   4.161   6.829   7.484  0.7005 -0.2683 -0.6326
  124bbb     C3 3727   4.261   6.900   7.695 -0.3042 -0.0428 -0.0555
  124bbb     H5 3728   4.242   6.927   7.800 -0.3735 -1.4440  0.3083
  124bbb     H6 3729   4.190   6.973   7.656 -0.1892  0.4703  0.6751
  124bbb     C4 3730   4.405   6.948   7.674 -0.1701 -0.1431  0.1513
  124bbb     H7 3731   4.431   6.949   7.568 -1.0856 -0.3015 -0.0824
  124bbb     H8 3732   4.466   6.878   7.732 -1.3063 -1.3936 -0.1276
  124bbb     C5 3733   4.063   6.744   7.879  0.1983  0.2260 -0.4846
  124bbb     H9 3734   3.963   6.782   7.905  0.1333  1.2181 -2.0198
  124bbb    H10 3735   4.131   6.808   7.937 -1.9624  1.2667  1.0762
  124bbb     C6 3736   4.158   6.618   7.461 -0.0977 -0.5273  0.4010
  124bbb    H11 3737   4.170   6.615   7.352 -1.0204 -0.3004  0.2775
  124bbb    H12 3738   4.048   6.608   7.464 -0.3655  1.9787  0.9349
  124bbb     C7 3739   4.424   7.094   7.730  0.1275  0.7470 -0.0572
  124bbb    H13 3740   4.530   7.123   7.727  0.3503  0.5069  2.6072
  124bbb    H14 3741   4.399   7.087   7.837  1.5029 -2.4758  0.1772
  124bbb     C8 3742   4.222   6.480   7.500 -0.3335  0.1141 -0.2654
  124bbb    H15 3743   4.191   6.410   7.422  1.7211 -2.0474  0.7376
  124bbb    H16 3744   4.331   6.493   7.504 -0.3489 -0.0505  1.1677
  124bbb     C9 3745   4.079   6.600   7.947  0.1469 -0.0496 -0.4562
  124bbb    H17 3746   4.042   6.608   8.050 -0.5794  3.8110 -0.8694
  124bbb    H18 3747   4.181   6.561   7.950  1.3757  2.4487 -3.4254
  124bbb     O1 3748   4.337   7.182   7.657  0.2603 -0.4436 -0.3953
  124bbb    H19 3749   4.286   6.683   7.719 -1.4311 -2.1128 -1.2623
  125bbb     N1 3750   3.712   6.933   7.024 -0.9153  0.0570  0.0963
  125bbb     C1 3751   3.759   6.793   7.056  0.8848  0.4966  0.4416
  125bbb     H1 3752   3.727   6.740   6.967 -1.1925 -1.9200  2.4729
  125bbb     H2 3753   3.708   6.757   7.146 -0.5218 -0.2950 -0.6343
  125bbb     C2 3754   3.570   6.928   6.984  0.6719 -0.0278  0.2321
  125bbb     H3 3755   3.570   6.861   6.898  0.0679  0.8364 -0.4591
  125bbb     H4 3756   3.542   7.026   6.946  0.0081  0.1113  1.0433
  125bbb     C3 3757   3.737   7.016   7.154 -0.1125 -0.4482 -0.2383
  125bbb     H5 3758   3.842   7.007   7.180 -0.1386 -1.7375 -0.4918
  125bbb     H6 3759   3.666   6.980   7.229 -2.1172 -0.0488 -1.8366
  125bbb     C4 3760   3.725   7.164   7.123  0.1381 -0.4292  0.3660
  125bbb     H7 3761   3.624   7.189   7.089  0.5233 -0.1015 -0.5466
  125bbb     H8 3762   3.790   7.191   7.039  1.5835 -1.9943  0.9169
  125bbb     C5 3763   3.911   6.762   7.077  0.6419 -0.4949  0.5738
  125bbb     H9 3764   3.951   6.789   7.176  2.4773 -1.1085  0.0513
  125bbb    H10 3765   3.974   6.816   7.005  1.4322 -3.2735 -0.9833
  125bbb     C6 3766   3.466   6.870   7.083 -0.6217 -0.1887 -0.1633
  125bbb    H11 3767   3.502   6.805   7.163  2.4722  1.0682 -0.4068
  125bbb    H12 3768   3.411   6.798   7.021 -1.7533  0.9728 -0.5498
  125bbb     C7 3769   3.756   7.241   7.251 -0.6436  0.8505 -0.5111
  125bbb    H13 3770   3.695   7.195   7.330 -1.7489  0.2085 -1.7063
  125bbb    H14 3771   3.720   7.344   7.246 -0.9304  0.7930  0.2219
  125bbb     C8 3772   3.360   6.979   7.119 -0.0329 -0.0943  0.0260
  125bbb    H15 3773   3.323   7.034   7.032  1.3053  0.5959 -0.1351
  125bbb    H16 3774   3.274   6.923   7.158 -1.2807  0.6781 -1.4787
  125bbb     C9 3775   3.933   6.614   7.079  0.1958  0.3331  0.2500
  125bbb    H17 3776   4.037   6.601   7.114  0.0921 -3.3503 -0.4169
  125bbb    H18 3777   3.926   6.573   6.977  0.6402 -1.2260  0.8100
  125bbb     O1 3778   3.895   7.244   7.286 -0.0824  0.4440 -0.0709
  125bbb    H19 3779   3.768   6.976   6.949  0.7262 -1.0213  0.6541
  126ccc     C1 3780   7.998   9.566   7.767 -0.3404 -0.6706 -0.3511
  126ccc     C2 3781   7.993   9.574   7.929 -0.2582  0.2145  0.6263
  126ccc     H1 3782   7.960   9.663   7.734  1.3286  0.2906  0.3932
  126ccc     H2 3783   8.056   9.653   7.971  0.8208  0.2303 -0.9511
  126ccc     C3 3784   7.848   9.594   7.975 -0.0400  0.1612 -0.8973
  126ccc     C4 3785   7.765   9.479   7.915  0.0578 -0.4426  0.5229
  126ccc     C5 3786   7.772   9.475   7.761  0.3690  0.5919 -0.0116
  126ccc     H3 3787   7.812   9.383   7.941 -1.8448 -1.7190 -0.4757
  126ccc     H4 3788   7.807   9.687   7.934  0.1137 -0.0338 -1.4969
  126ccc     H5 3789   7.720   9.568   7.735  0.0941  1.0375  1.9602
  126ccc     O1 3790   7.706   9.355   7.703 -0.0885 -0.0251 -0.1886
  126ccc     O2 3791   7.637   9.485   7.974 -0.3182 -0.2768  0.1297
  126ccc     O3 3792   7.845   9.605   8.116 -0.0767 -0.0481  0.1323
  126ccc     O4 3793   8.039   9.441   7.965 -0.0408 -0.1961 -0.0257
  126ccc     C6 3794   8.136   9.562   7.718  0.1010 -0.3019  0.2617
  126ccc     H6 3795   7.882   9.521   8.150 -1.1841 -0.0401  1.4439
  126ccc     H7 3796   8.099   9.427   7.890 -0.6811  0.6059 -0.7172
  126ccc     H8 3797   7.636   9.398   8.018  0.8711 -1.1477 -1.4603
  126ccc     H9 3798   8.196   9.640   7.767  0.0574  0.5607 -1.0229
  126ccc    H10 3799   8.137   9.586   7.611 -0.3737  2.6249  0.8217
  126ccc     O5 3800   8.184   9.427   7.745 -0.0441  0.5266  0.9449
  126ccc    H11 3801   8.253   9.420   7.677 -1.1930  1.8010 -0.4066
  126ccc     O6 3802   7.909   9.467   7.720  0.1598  0.3433 -1.0527
  127ccc     C1 3803   7.984   8.520   7.255 -0.3239 -0.7449 -0.5429
  127ccc     C2 3804   7.924   8.376   7.246 -0.2956 -0.3671 -0.2295
  127ccc     H1 3805   8.036   8.534   7.351 -1.2332  1.3875 -0.3124
  127ccc     H2 3806   8.001   8.301   7.269 -0.1486 -0.2947 -0.4844
  127ccc     C3 3807   7.810   8.363   7.356 -0.0745  0.6613  0.1515
  127ccc     C4 3808   7.706   8.479   7.355 -0.9042  0.1345  0.5617
  127ccc     C5 3809   7.780   8.616   7.360  0.5243  0.0336 -0.1923
  127ccc     H3 3810   7.650   8.471   7.261  2.1833 -0.6299 -1.3733
  127ccc     H4 3811   7.857   8.369   7.455 -0.8203  0.9403  0.4854
  127ccc     H5 3812   7.839   8.633   7.451  0.4367  0.5107 -0.2222
  127ccc     O1 3813   7.677   8.720   7.331 -0.4676 -0.0013  0.1863
  127ccc     O2 3814   7.625   8.454   7.468  0.5498  0.0671 -0.4154
  127ccc     O3 3815   7.742   8.232   7.334 -0.4763 -0.4457 -0.0586
  127ccc     O4 3816   7.868   8.361   7.117 -0.0089 -0.1437 -0.5340
  127ccc     C6 3817   8.090   8.558   7.149  0.3563 -0.1129  0.0455
  127ccc     H6 3818   7.683   8.244   7.258 -1.5186  0.6534  0.8814
  127ccc     H7 3819   7.919   8.426   7.066 -1.4675  0.5609 -1.1715
  127ccc     H8 3820   7.591   8.362   7.462  0.5725 -0.1583  1.8570
  127ccc     H9 3821   8.171   8.486   7.164  2.0999  1.9785  1.2741
  127ccc    H10 3822   8.127   8.661   7.155  1.0555 -0.2817 -1.1142
  127ccc     O5 3823   8.029   8.534   7.014  0.2254 -0.7905 -0.0554
  127ccc    H11 3824   8.092   8.573   6.951  0.1731  0.7272  0.7682
  127ccc     O6 3825   7.882   8.623   7.254 -0.2369  0.2094  0.4173
  128ccc     C1 3826   7.521  10.254   7.693 -0.3942 -0.1145 -1.0624
  128ccc     C2 3827   7.560  10.252   7.546  0.0721 -0.5051  0.4048
  128ccc     H1 3828   7.600  10.202   7.749 -2.2066 -0.8988  0.9450
  128ccc     H2 3829   7.660  10.296   7.530 -0.5390  0.4327 -0.9799
  128ccc     C3 3830   7.567  10.105   7.494 -0.2055  0.2943  0.6480
  128ccc     C4 3831   7.442  10.021   7.526  0.7012 -0.8259 -0.1587
  128ccc     C5 3832   7.418  10.029   7.682  0.0569  0.6448  0.4410
  128ccc     H3 3833   7.355  10.062   7.472 -0.0904 -2.3798 -0.1304
  128ccc     H4 3834   7.664  10.065   7.527  1.9128  2.3857 -2.4111
  128ccc     H5 3835   7.507   9.995   7.736 -0.0253 -0.7159 -0.2442
  128ccc     O1 3836   7.299   9.952   7.720  0.0990 -0.0703 -0.2516
  128ccc     O2 3837   7.453   9.885   7.482  0.2000 -0.2569 -0.8657
  128ccc     O3 3838   7.593  10.110   7.355 -0.1271  0.6596 -0.3241
  128ccc     O4 3839   7.454  10.317   7.477  0.1450  0.0135  0.0476
  128ccc     C6 3840   7.518  10.398   7.755  0.2697 -1.1588 -0.6980
  128ccc     H6 3841   7.559  10.191   7.314  0.1332  1.3697  0.8379
  128ccc     H7 3842   7.436  10.379   7.551  0.7708 -0.2052  0.3932
  128ccc     H8 3843   7.472   9.885   7.387  0.4408 -1.4353 -0.8308
  128ccc     H9 3844   7.621  10.434   7.756 -0.0514 -0.1098  1.3310
  128ccc    H10 3845   7.492  10.396   7.862  1.5690 -2.7447 -0.3798
  128ccc     O5 3846   7.441  10.486   7.671 -0.5764  0.1179 -0.0711
  128ccc    H11 3847   7.477  10.573   7.697 -1.7717  0.6129  0.0376
  128ccc     O6 3848   7.398  10.171   7.712  0.2181 -0.3477 -0.4199
  129ccc     C1 3849   7.766   9.422   8.590 -0.1935  0.2591 -0.3038
  129ccc     C2 3850   7.792   9.533   8.696  0.0635 -0.0160  0.6717
  129ccc     H1 3851   7.849   9.399   8.521 -0.7254 -0.7303 -0.6375
  129ccc     H2 3852   7.879   9.505   8.757  0.3078 -1.4258 -0.2848
  129ccc     C3 3853   7.816   9.668   8.615  0.1079  0.2340 -0.0601
  129ccc     C4 3854   7.689   9.695   8.524 -1.3220  0.0749 -0.6386
  129ccc     C5 3855   7.651   9.572   8.429 -0.2051 -0.4713  0.0383
  129ccc     H3 3856   7.607   9.725   8.590  0.0655 -0.3066  1.3655
  129ccc     H4 3857   7.899   9.660   8.544 -1.4117  1.5410 -2.0857
  129ccc     H5 3858   7.717   9.574   8.342  1.0074  1.4801  0.9246
  129ccc     O1 3859   7.518   9.587   8.377 -0.1591  0.0381  0.3954
  129ccc     O2 3860   7.719   9.808   8.434 -0.4517  0.7709  0.3785
  129ccc     O3 3861   7.839   9.785   8.699 -0.4700  0.6367  0.1806
  129ccc     O4 3862   7.670   9.544   8.774  0.2008 -0.0977 -0.5840
  129ccc     C6 3863   7.740   9.290   8.652 -0.1514  0.2026 -0.4375
  129ccc     H6 3864   7.909   9.759   8.762 -0.4967  0.5826  0.1876
  129ccc     H7 3865   7.681   9.630   8.818  0.2851  0.0947 -0.9716
  129ccc     H8 3866   7.696   9.890   8.481 -0.5728 -0.1004  1.8864
  129ccc     H9 3867   7.818   9.281   8.729 -1.5667  0.4291  1.0833
  129ccc    H10 3868   7.751   9.209   8.578  1.4544 -0.3027  0.3118
  129ccc     O5 3869   7.610   9.296   8.719  0.4250  0.0192 -0.1528
  129ccc    H11 3870   7.594   9.391   8.728  1.3714  0.4146 -2.1205
  129ccc     O6 3871   7.649   9.455   8.512 -0.1262 -0.5908 -0.5570
  130ccc     C1 3872   7.652   9.610   5.332  0.0375 -0.7679  1.1352
  130ccc     C2 3873   7.677   9.466   5.307 -0.6806 -0.4880  0.1508
  130ccc     H1 3874   7.741   9.660   5.292  0.4707 -3.3924 -1.5350
  130ccc     H2 3875   7.696   9.469   5.199 -3.2376  0.3065 -0.3375
  130ccc     C3 3876   7.803   9.422   5.386 -0.5779  0.1365  0.3069
  130ccc     C4 3877   7.776   9.447   5.537  0.0402  0.0046  0.1009
  130ccc     C5 3878   7.748   9.600   5.560  0.5071  0.4224  0.1155
  130ccc     H3 3879   7.682   9.398   5.568 -0.2781  1.0832  0.8744
  130ccc     H4 3880   7.886   9.486   5.354 -2.1394  1.3899 -1.4152
  130ccc     H5 3881   7.835   9.662   5.536  0.7403 -0.0637 -0.3097
  130ccc     O1 3882   7.711   9.605   5.700 -0.1376  0.0963  0.4690
  130ccc     O2 3883   7.889   9.398   5.616  0.0000  0.6799 -0.0975
  130ccc     O3 3884   7.838   9.286   5.360  0.3665  0.6727 -0.1278
  130ccc     O4 3885   7.562   9.382   5.332  0.1790  0.0791 -0.4054
  130ccc     C6 3886   7.517   9.648   5.270 -0.3090  0.0270 -0.1844
  130ccc     H6 3887   7.843   9.232   5.441 -0.4455 -0.6473 -0.9272
  130ccc     H7 3888   7.556   9.323   5.255  1.0542  2.7808 -2.7016
  130ccc     H8 3889   7.893   9.301   5.608 -1.8644  0.5052  0.6076
  130ccc     H9 3890   7.436   9.606   5.331 -1.5914  0.6589 -1.4037
  130ccc    H10 3891   7.518   9.609   5.168  2.4406 -1.7131  0.3966
  130ccc     O5 3892   7.490   9.786   5.275  0.7099  0.3186  0.8648
  130ccc    H11 3893   7.450   9.800   5.363  0.3994 -0.1521  0.7994
  130ccc     O6 3894   7.633   9.635   5.474 -0.3973 -0.1361 -1.0038
  131ccc     C1 3895   8.371  10.165   6.356 -0.0794 -0.0129 -0.4935
  131ccc     C2 3896   8.406  10.079   6.487  0.1756  0.1079  0.0991
  131ccc     H1 3897   8.324  10.261   6.380  1.0317  0.0170  1.8594
  131ccc     H2 3898   8.477  10.138   6.547 -0.4593  0.2261  0.7564
  131ccc     C3 3899   8.281  10.054   6.577  0.6833  0.5578  0.3588
  131ccc     C4 3900   8.171   9.985   6.489  0.6083 -0.4045 -0.1701
  131ccc     C5 3901   8.146  10.057   6.350  0.3062 -0.8263 -0.0769
  131ccc     H3 3902   8.210   9.886   6.464 -0.6169 -0.6041 -1.3967
  131ccc     H4 3903   8.241  10.155   6.591 -0.8039 -0.0758  0.9555
  131ccc     H5 3904   8.096  10.150   6.378 -1.1970 -1.1709 -1.4980
  131ccc     O1 3905   8.047   9.985   6.265 -0.1726  0.4161 -0.1699
  131ccc     O2 3906   8.054   9.964   6.570  0.5155 -0.4199  0.4814
  131ccc     O3 3907   8.308   9.979   6.695  0.3737  0.3724  0.5398
  131ccc     O4 3908   8.480   9.959   6.436  0.2424 -0.6290 -0.4642
  131ccc     C6 3909   8.496  10.185   6.269 -0.0679  0.2168  0.2653
  131ccc     H6 3910   8.379  10.030   6.738  0.0008  0.5092  1.0034
  131ccc     H7 3911   8.516   9.916   6.515  1.4126  1.0617 -0.0127
  131ccc     H8 3912   8.053  10.039   6.632  0.4033  0.0475 -0.0786
  131ccc     H9 3913   8.536  10.096   6.218  2.1456  0.5842  1.2238
  131ccc    H10 3914   8.576  10.221   6.335 -0.1691 -2.0720  1.7861
  131ccc     O5 3915   8.480  10.286   6.170  0.0064 -0.4982  0.6459
  131ccc    H11 3916   8.567  10.300   6.130 -1.0074 -0.1207 -1.6195
  131ccc     O6 3917   8.278  10.086   6.281 -0.1264 -0.3203 -0.2467
  132ccc     C1 3918   7.274   8.622   7.390  0.3779  0.1200  0.1068
  132ccc     C2 3919   7.141   8.559   7.333 -0.6853  0.3926 -0.1333
  132ccc     H1 3920   7.253   8.727   7.413  0.6674  0.6465 -1.8358
  132ccc     H2 3921   7.071   8.559   7.417  0.7817 -3.2538  1.2771
  132ccc     C3 3922   7.094   8.632   7.205  0.2468 -0.2497  0.1734
  132ccc     C4 3923   7.204   8.627   7.101  0.2851  0.4311  0.6241
  132ccc     C5 3924   7.334   8.690   7.153  0.2208 -0.1005  0.2951
  132ccc     H3 3925   7.219   8.521   7.079 -1.5751 -0.1860  2.0755
  132ccc     H4 3926   7.075   8.736   7.234 -0.4211 -0.6215  1.1440
  132ccc     H5 3927   7.323   8.795   7.181  0.6262  0.0559 -0.1297
  132ccc     O1 3928   7.439   8.669   7.053  0.3438 -0.1972  0.2376
  132ccc     O2 3929   7.164   8.706   6.985  0.0747  0.3251  0.2530
  132ccc     O3 3930   6.964   8.586   7.161 -0.6357 -0.7567 -0.6868
  132ccc     O4 3931   7.172   8.428   7.295  0.0709 -0.2572  0.4524
  132ccc     C6 3932   7.335   8.558   7.519  0.2793  0.3670  0.0552
  132ccc     H6 3933   6.968   8.573   7.064 -0.2621 -1.2286 -0.6122
  132ccc     H7 3934   7.146   8.371   7.370  2.7250 -0.0837  1.6168
  132ccc     H8 3935   7.109   8.647   6.929  3.8128 -1.9372 -1.4593
  132ccc     H9 3936   7.343   8.449   7.518 -0.3606  0.3042  1.1068
  132ccc    H10 3937   7.262   8.578   7.598  0.3822  0.8669  0.0286
  132ccc     O5 3938   7.450   8.632   7.550  0.4159  0.1467  0.2290
  132ccc    H11 3939   7.522   8.576   7.518  0.2260 -0.8643  1.4947
  132ccc     O6 3940   7.369   8.624   7.277  0.0760  0.4620 -0.2064
  133ccc     C1 3941   8.182   7.988   6.800 -0.4924  0.0499  0.1369
  133ccc     C2 3942   8.241   8.006   6.942 -0.3196 -0.0626 -0.2145
  133ccc     H1 3943   8.263   7.989   6.727 -0.9412  1.2827 -0.3715
  133ccc     H2 3944   8.312   7.926   6.967 -0.1527  0.5269  1.2745
  133ccc     C3 3945   8.326   8.137   6.950 -1.0798 -0.0162  0.3230
  133ccc     C4 3946   8.240   8.266   6.912 -0.5931 -0.6299 -0.4108
  133ccc     C5 3947   8.177   8.242   6.780  0.4884  0.0382 -0.1548
  133ccc     H3 3948   8.155   8.264   6.981 -1.7500  0.4245 -1.7424
  133ccc     H4 3949   8.402   8.120   6.872  0.4036 -0.5326  1.8129
  133ccc     H5 3950   8.260   8.225   6.710 -0.1071  1.2556 -1.2040
  133ccc     O1 3951   8.090   8.361   6.753 -0.1756  0.2037  0.0251
  133ccc     O2 3952   8.325   8.384   6.914 -0.2976  0.5108  0.7835
  133ccc     O3 3953   8.406   8.152   7.067 -0.2175 -0.0749  0.1244
  133ccc     O4 3954   8.138   8.012   7.034  0.5121 -0.5116 -0.0678
  133ccc     C6 3955   8.102   7.864   6.783  0.0609 -0.1003  0.6784
  133ccc     H6 3956   8.485   8.198   7.034 -0.8363  0.2691 -0.9329
  133ccc     H7 3957   8.175   8.023   7.123  0.0683  1.5569 -0.0963
  133ccc     H8 3958   8.366   8.391   7.002  3.3180 -1.6393 -0.5410
  133ccc     H9 3959   8.011   7.869   6.844 -0.1167 -1.0903  0.5067
  133ccc    H10 3960   8.154   7.774   6.817 -0.6463 -0.4766  0.7725
  133ccc     O5 3961   8.057   7.849   6.642  0.2240  0.4383 -0.2143
  133ccc    H11 3962   8.047   7.753   6.632  1.0320  0.3659 -0.4036
  133ccc     O6 3963   8.106   8.111   6.785  0.2229 -0.0210  0.3350
  134ccc     C1 3964   6.629  10.604   4.879 -0.2880 -0.8078  0.3706
  134ccc     C2 3965   6.715  10.699   4.787  0.7424  0.2896  0.0209
  134ccc     H1 3966   6.628  10.651   4.978 -0.9910  0.8112 -0.3750
  134ccc     H2 3967   6.678  10.799   4.814  0.1242  0.2027 -0.4698
  134ccc     C3 3968   6.863  10.693   4.824 -0.5956 -0.5750  0.0690
  134ccc     C4 3969   6.914  10.548   4.826 -0.4361  0.4245  0.6820
  134ccc     C5 3970   6.821  10.461   4.916  0.0744 -0.0141  0.5829
  134ccc     H3 3971   6.896  10.514   4.723  2.1442  0.0128  0.3041
  134ccc     H4 3972   6.871  10.738   4.924 -0.0547 -1.8194  0.6136
  134ccc     H5 3973   6.836  10.491   5.021 -1.6693 -0.0513  0.8814
  134ccc     O1 3974   6.868  10.324   4.905  0.2457  0.0302 -0.1718
  134ccc     O2 3975   7.049  10.540   4.862 -0.1179  0.5105 -0.0974
  134ccc     O3 3976   6.935  10.774   4.724  0.2317  0.1178  0.0343
  134ccc     O4 3977   6.696  10.658   4.650  0.4248 -0.0668  0.3456
  134ccc     C6 3978   6.484  10.596   4.833  0.5902  0.7085  0.4566
  134ccc     H6 3979   6.924  10.870   4.732  1.7170  0.4950 -1.7679
  134ccc     H7 3980   6.730  10.734   4.599  2.0087 -0.6774  0.4468
  134ccc     H8 3981   7.086  10.609   4.804  0.3130  0.1788 -0.2190
  134ccc     H9 3982   6.464  10.527   4.750 -0.7516  1.1166  0.4263
  134ccc    H10 3983   6.438  10.692   4.806 -1.5184 -0.7233 -1.4135
  134ccc     O5 3984   6.408  10.553   4.946  0.3008  0.2428  0.6429
  134ccc    H11 3985   6.360  10.631   4.978 -0.6339 -0.0638  0.0374
  134ccc     O6 3986   6.684  10.479   4.876 -0.3206  0.1878  0.3102
  135ccc     C1 3987   6.152   9.785   4.628 -0.8814 -0.4147 -0.2985
  135ccc     C2 3988   6.137   9.634   4.624  0.4851 -0.3840  0.0965
  135ccc     H1 3989   6.101   9.829   4.542  0.2098 -0.5690 -1.0506
  135ccc     H2 3990   6.030   9.612   4.635  0.0442  1.7826  0.6638
  135ccc     C3 3991   6.196   9.577   4.491 -0.2684  0.5942 -0.0376
  135ccc     C4 3992   6.348   9.618   4.475  0.0052  0.5851 -0.3972
  135ccc     C5 3993   6.358   9.772   4.495  0.6150  0.3248  0.2384
  135ccc     H3 3994   6.403   9.567   4.555 -1.4479  0.0267  0.2824
  135ccc     H4 3995   6.140   9.623   4.409  0.4840  0.9185 -0.3743
  135ccc     H5 3996   6.318   9.830   4.412 -0.6618  0.4322  0.9045
  135ccc     O1 3997   6.497   9.808   4.497 -0.7322  0.1526  0.0748
  135ccc     O2 3998   6.398   9.594   4.341  0.3667 -0.0868  0.2281
  135ccc     O3 3999   6.173   9.436   4.479  0.1550 -0.1111 -0.0085
  135ccc     O4 4000   6.207   9.580   4.732 -0.5500  0.2734  0.0292
  135ccc     C6 4001   6.109   9.845   4.760  0.1314  0.1367 -0.2818
  135ccc     H6 4002   6.238   9.385   4.530 -0.9013 -1.7432 -0.1929
  135ccc     H7 4003   6.177   9.487   4.741 -1.4866  0.7228  2.1443
  135ccc     H8 4004   6.351   9.645   4.272  2.7294  0.2528 -1.2361
  135ccc     H9 4005   6.189   9.820   4.831  0.8135 -1.3329 -1.5385
  135ccc    H10 4006   6.010   9.823   4.803 -0.0695 -0.3819 -0.9917
  135ccc     O5 4007   6.106   9.991   4.737  0.3825 -0.0436  0.1380
  135ccc    H11 4008   6.128  10.024   4.826  1.0648 -2.3598  0.9079
  135ccc     O6 4009   6.297   9.809   4.620 -0.0384 -0.3453 -0.4225
  136ccc     C1 4010   7.468   8.894   4.937  0.4108 -0.5401  0.0878
  136ccc     C2 4011   7.537   9.006   5.007 -0.0437  0.0126 -0.0408
  136ccc     H1 4012   7.464   8.921   4.830 -0.7962  1.1573  0.5064
  136ccc     H2 4013   7.629   9.027   4.951 -0.6173  1.4253 -0.4981
  136ccc     C3 4014   7.463   9.142   5.008  0.0394  0.0148  0.2251
  136ccc     C4 4015   7.323   9.115   5.062 -0.2300  1.0339 -0.9634
  136ccc     C5 4016   7.249   8.999   4.980 -0.3963 -1.0755 -1.0524
  136ccc     H3 4017   7.341   9.075   5.162 -1.5860  0.4627 -0.9261
  136ccc     H4 4018   7.461   9.166   4.901  3.1008 -2.0340 -0.4379
  136ccc     H5 4019   7.240   9.028   4.874  3.0023  1.4102 -0.8248
  136ccc     O1 4020   7.126   8.961   5.046 -0.6334 -0.6370  0.0022
  136ccc     O2 4021   7.244   9.237   5.068 -0.0303  0.0036 -0.7510
  136ccc     O3 4022   7.535   9.240   5.082 -0.1380  0.3270 -0.6986
  136ccc     O4 4023   7.577   8.971   5.143 -0.0520 -0.2097 -0.0072
  136ccc     C6 4024   7.530   8.761   4.958  0.0375  0.4301 -0.9141
  136ccc     H6 4025   7.608   9.264   5.022  1.6209 -0.1081  1.1549
  136ccc     H7 4026   7.658   9.015   5.174  0.2522  0.0956 -1.2016
  136ccc     H8 4027   7.295   9.307   5.023  1.2414  0.1573  0.8637
  136ccc     H9 4028   7.533   8.732   5.064 -0.1364  1.3240 -0.6604
  136ccc    H10 4029   7.636   8.767   4.932  0.7207 -0.0723  1.4353
  136ccc     O5 4030   7.468   8.662   4.878 -0.2708  0.0617 -0.4744
  136ccc    H11 4031   7.474   8.704   4.791  2.2898  0.8807  0.0239
  136ccc     O6 4032   7.330   8.881   4.987  0.1228 -0.0839 -0.0604
  137ccc     C1 4033   6.956   8.420   5.309 -0.1210  0.4234  0.3083
  137ccc     C2 4034   7.046   8.361   5.200 -0.1380 -0.4165  0.6700
  137ccc     H1 4035   6.899   8.340   5.357  1.2798  0.1359  1.5496
  137ccc     H2 4036   7.095   8.271   5.239  0.9437  0.2044  0.7561
  137ccc     C3 4037   6.967   8.320   5.074  0.2257  0.7831  0.4466
  137ccc     C4 4038   6.852   8.418   5.034 -0.1040 -0.0883 -0.1591
  137ccc     C5 4039   6.764   8.442   5.155 -0.7134  0.6034  0.1738
  137ccc     H3 4040   6.907   8.513   5.031  2.7748 -1.5556  1.2800
  137ccc     H4 4041   6.916   8.226   5.097 -1.4039  0.9819 -2.0031
  137ccc     H5 4042   6.719   8.349   5.190  0.5193  0.0185  0.2735
  137ccc     O1 4043   6.664   8.547   5.122 -0.0585  0.3358 -0.2871
  137ccc     O2 4044   6.782   8.376   4.920 -0.2547  0.1598 -0.4008
  137ccc     O3 4045   7.065   8.296   4.970  0.2053 -0.4381  0.1555
  137ccc     O4 4046   7.127   8.466   5.145 -0.0554  0.1599  0.1891
  137ccc     C6 4047   7.039   8.483   5.418  0.5583  0.3117  0.2720
  137ccc     H6 4048   7.022   8.300   4.883 -0.5250 -0.6626  0.4959
  137ccc     H7 4049   7.146   8.428   5.058 -2.2603 -0.4190 -0.0907
  137ccc     H8 4050   6.756   8.461   4.881  1.8149  0.7059 -0.7322
  137ccc     H9 4051   7.060   8.590   5.402 -0.3658  0.8499  2.3626
  137ccc    H10 4052   7.134   8.428   5.427 -0.0407 -0.4629  2.5048
  137ccc     O5 4053   6.966   8.463   5.542  0.4796 -0.1049  0.0974
  137ccc    H11 4054   6.919   8.544   5.570 -1.2787 -1.5861  1.6883
  137ccc     O6 4055   6.854   8.504   5.251  0.2041  0.1445  0.0515
  138ccc     C1 4056   7.661   7.920   5.672 -0.7058 -0.2856 -0.3032
  138ccc     C2 4057   7.741   7.933   5.803  0.0847  0.2315  0.0880
  138ccc     H1 4058   7.609   7.823   5.671  1.1822 -1.3384 -1.4434
  138ccc     H2 4059   7.673   7.937   5.889  2.4494 -2.3291  2.3084
  138ccc     C3 4060   7.842   7.816   5.827  0.6517 -0.5301  0.2981
  138ccc     C4 4061   7.930   7.803   5.702 -0.7190  0.0345 -0.1533
  138ccc     C5 4062   7.853   7.816   5.563  0.2782 -0.0062  0.0647
  138ccc     H3 4063   7.997   7.890   5.703 -0.4874 -0.1216  1.8936
  138ccc     H4 4064   7.779   7.726   5.827 -3.6421  2.1211  1.9568
  138ccc     H5 4065   7.799   7.724   5.539 -0.9353  0.9218 -0.9684
  138ccc     O1 4066   7.953   7.849   5.459 -0.1872 -0.0107 -0.6103
  138ccc     O2 4067   8.006   7.673   5.705  0.6809  0.8271 -0.1348
  138ccc     O3 4068   7.916   7.829   5.949 -0.1938 -0.7296 -0.0291
  138ccc     O4 4069   7.810   8.060   5.795  0.0739  0.3533 -0.5712
  138ccc     C6 4070   7.557   8.041   5.668  0.2303  0.1082  0.2172
  138ccc     H6 4071   7.893   7.752   6.002 -1.2440 -1.5448 -1.5763
  138ccc     H7 4072   7.868   8.070   5.872  0.2195  2.5393 -0.8915
  138ccc     H8 4073   7.938   7.603   5.696  0.5066  1.0335 -0.4429
  138ccc     H9 4074   7.612   8.125   5.624  1.9607 -1.0842  0.0204
  138ccc    H10 4075   7.518   8.063   5.768  2.0812  0.6566  0.8595
  138ccc     O5 4076   7.441   7.998   5.587  0.1988 -0.0870  0.3522
  138ccc    H11 4077   7.406   8.077   5.543 -1.3387 -2.0928 -2.3574
  138ccc     O6 4078   7.751   7.920   5.564 -0.0292  0.2245  0.9399
  139ccc     C1 4079   7.468   8.221   4.970 -0.1114 -0.6144 -0.3107
  139ccc     C2 4080   7.380   8.146   5.068  0.1638  0.4544 -0.1770
  139ccc     H1 4081   7.469   8.162   4.877 -0.3558 -0.2887 -0.5208
  139ccc     H2 4082   7.281   8.124   5.026 -0.3493  1.2676  0.5558
  139ccc     C3 4083   7.444   8.013   5.103 -0.1289 -0.2072 -0.5494
  139ccc     C4 4084   7.592   8.024   5.147 -0.3492 -0.2685  0.8351
  139ccc     C5 4085   7.678   8.109   5.047  0.4827  0.3997 -0.2230
  139ccc     H3 4086   7.594   8.078   5.243 -2.2870  0.2003  0.6564
  139ccc     H4 4087   7.450   7.949   5.014  1.7366 -0.8038 -0.0361
  139ccc     H5 4088   7.682   8.054   4.952 -0.7307 -2.0343  1.0336
  139ccc     O1 4089   7.807   8.148   5.092  0.5665 -0.0716  0.1650
  139ccc     O2 4090   7.652   7.900   5.162  0.4465  0.1698 -0.5254
  139ccc     O3 4091   7.369   7.966   5.216 -0.3142 -0.0589 -0.1748
  139ccc     O4 4092   7.369   8.240   5.184 -0.3383 -0.2460 -0.4420
  139ccc     C6 4093   7.404   8.356   4.926  0.1436  0.4691 -0.3709
  139ccc     H6 4094   7.352   8.040   5.276 -2.8330 -0.7444  0.0718
  139ccc     H7 4095   7.367   8.322   5.132  0.5129 -0.0299 -0.1409
  139ccc     H8 4096   7.612   7.869   5.245 -0.2449  1.4771 -0.3535
  139ccc     H9 4097   7.298   8.350   4.901  0.2251  1.5571 -1.0910
  139ccc    H10 4098   7.458   8.387   4.835 -0.0282  1.8820 -0.0108
  139ccc     O5 4099   7.413   8.456   5.024  0.5671  0.4677  0.1238
  139ccc    H11 4100   7.418   8.535   4.967  1.0125  1.1418  1.0725
  139ccc     O6 4101   7.606   8.236   5.024 -0.3976  0.1481  0.0066
  140ccc     C1 4102   8.597   9.972   5.942 -0.3965  0.2803 -0.8771
  140ccc     C2 4103   8.735   9.984   5.871  0.3773  0.3217  0.6016
  140ccc     H1 4104   8.611   9.962   6.050 -0.8415 -3.3514 -1.0233
  140ccc     H2 4105   8.791  10.075   5.895 -0.0528  1.0836 -1.1089
  140ccc     C3 4106   8.824   9.866   5.909 -0.3326 -0.7146 -0.0048
  140ccc     C4 4107   8.759   9.738   5.852  0.4415 -0.2940  0.0315
  140ccc     C5 4108   8.604   9.730   5.896  0.8794  1.0397 -0.0390
  140ccc     H3 4109   8.764   9.749   5.743 -0.1028 -2.2049 -0.2198
  140ccc     H4 4110   8.818   9.854   6.018 -1.1887 -0.0613  0.0252
  140ccc     H5 4111   8.601   9.692   5.998 -0.3538  0.4366 -0.2873
  140ccc     O1 4112   8.536   9.638   5.805 -0.2021  0.3327 -0.1937
  140ccc     O2 4113   8.835   9.616   5.878 -0.2176  0.6080 -0.2742
  140ccc     O3 4114   8.951   9.887   5.850  0.4770 -0.3080 -0.4119
  140ccc     O4 4115   8.711   9.995   5.726 -0.1821  0.0910  0.4671
  140ccc     C6 4116   8.511  10.089   5.900  0.6610  0.2318 -0.5732
  140ccc     H6 4117   8.944   9.889   5.753 -1.0430  1.9889 -0.3400
  140ccc     H7 4118   8.788  10.044   5.693 -0.3147 -0.0364 -0.0449
  140ccc     H8 4119   8.917   9.633   5.927  0.4123 -2.6005  0.0221
  140ccc     H9 4120   8.476  10.085   5.796 -3.7653  0.3772  0.6986
  140ccc    H10 4121   8.559  10.187   5.908  1.7866 -0.4138  1.0070
  140ccc     O5 4122   8.395  10.090   5.989  0.0060  0.2132  0.9616
  140ccc    H11 4123   8.405  10.138   6.073 -3.8790  1.3094  1.0031
  140ccc     O6 4124   8.532   9.854   5.888 -0.3329 -0.1739  0.3235
  141ccc     C1 4125   8.252   9.508   4.785  0.2160  0.0017  0.3846
  141ccc     C2 4126   8.261   9.364   4.725  0.7365  0.5451 -0.5747
  141ccc     H1 4127   8.326   9.559   4.721  0.3078 -0.8245 -0.1900
  141ccc     H2 4128   8.268   9.376   4.616  1.3639  2.8075 -0.3397
  141ccc     C3 4129   8.373   9.272   4.778  0.2176 -1.0591 -0.1367
  141ccc     C4 4130   8.386   9.289   4.934  0.2771 -0.1207 -0.4224
  141ccc     C5 4131   8.394   9.437   4.980 -0.1275 -0.3748  0.5879
  141ccc     H3 4132   8.293   9.254   4.980  0.5586  0.9724  1.0580
  141ccc     H4 4133   8.463   9.318   4.737 -0.5895  2.2739  1.4923
  141ccc     H5 4134   8.485   9.485   4.941 -0.8437  0.6525  0.1684
  141ccc     O1 4135   8.386   9.448   5.126 -0.1475  0.4752  0.3894
  141ccc     O2 4136   8.494   9.200   4.974  0.0002  0.3239  0.2297
  141ccc     O3 4137   8.348   9.130   4.754 -0.2191  0.4325 -0.3178
  141ccc     O4 4138   8.135   9.299   4.747 -0.2472  0.3173  0.1204
  141ccc     C6 4139   8.133   9.591   4.745  0.1128  0.3682 -0.4211
  141ccc     H6 4140   8.411   9.070   4.797 -1.6161 -1.7578 -1.1256
  141ccc     H7 4141   8.149   9.203   4.742 -0.6023  0.1797  1.4056
  141ccc     H8 4142   8.495   9.202   5.072  2.1628  2.3486  0.2518
  141ccc     H9 4143   8.041   9.565   4.798  0.4000  0.8439  0.3270
  141ccc    H10 4144   8.103   9.557   4.645 -1.5454 -1.9458  0.7618
  141ccc     O5 4145   8.161   9.725   4.762 -0.2528  0.2920 -0.1451
  141ccc    H11 4146   8.178   9.725   4.858  0.8191 -0.4179 -0.3230
  141ccc     O6 4147   8.276   9.515   4.930  0.2468  0.1627  0.1202
  142ccc     C1 4148   4.853  10.453   4.611 -0.1066  0.0705 -0.4474
  142ccc     C2 4149   4.813  10.366   4.491  0.5932  0.3429  0.1179
  142ccc     H1 4150   4.943  10.421   4.665  0.5747  1.5491 -0.6559
  142ccc     H2 4151   4.893  10.359   4.417  2.0760 -0.1260  1.7106
  142ccc     C3 4152   4.770  10.222   4.534 -0.6646 -1.0176 -0.1147
  142ccc     C4 4153   4.663  10.231   4.641  0.0776 -0.0013 -0.5738
  142ccc     C5 4154   4.705  10.318   4.760 -0.0043  0.1329 -0.0247
  142ccc     H3 4155   4.573  10.283   4.606  0.3200  0.6835 -0.2156
  142ccc     H4 4156   4.856  10.168   4.575 -0.1694  1.0688  1.8269
  142ccc     H5 4157   4.788  10.266   4.811 -1.0551 -3.0242 -1.2911
  142ccc     O1 4158   4.590  10.346   4.847 -0.1409  0.4148  0.0795
  142ccc     O2 4159   4.650  10.093   4.680 -0.0481 -0.3625  0.0316
  142ccc     O3 4160   4.716  10.139   4.426 -0.2516 -0.1411  0.0399
  142ccc     O4 4161   4.694  10.436   4.435 -0.0787  0.4258  0.0154
  142ccc     C6 4162   4.877  10.592   4.562 -0.3364 -0.4670  0.2404
  142ccc     H6 4163   4.781  10.141   4.353  1.3091 -1.4743  1.3187
  142ccc     H7 4164   4.681  10.392   4.349 -2.8620  2.0697 -0.5189
  142ccc     H8 4165   4.656  10.035   4.602 -0.7623 -1.1550  0.5469
  142ccc     H9 4166   4.786  10.652   4.571 -0.3645 -0.4730 -0.0092
  142ccc    H10 4167   4.909  10.593   4.457  0.8835 -1.2206  0.5795
  142ccc     O5 4168   4.969  10.662   4.642  0.0532  0.1984  0.4672
  142ccc    H11 4169   5.006  10.742   4.600  0.1609 -0.3376 -0.4809
  142ccc     O6 4170   4.748  10.449   4.711  1.1888 -0.1856 -0.4544
  143ccc     C1 4171   3.697  10.067   5.171 -0.6785 -0.6285  0.3142
  143ccc     C2 4172   3.655   9.975   5.058  0.3143  0.0878 -0.5434
  143ccc     H1 4173   3.689  10.173   5.144 -0.7435 -0.4618  0.9739
  143ccc     H2 4174   3.553  10.005   5.029  0.1461  1.7092  1.5130
  143ccc     C3 4175   3.750   9.985   4.936  0.5469 -0.3966  0.4595
  143ccc     C4 4176   3.899   9.985   4.973 -0.0578 -0.2605 -0.7042
  143ccc     C5 4177   3.928  10.076   5.093  0.5621 -0.2905 -0.1280
  143ccc     H3 4178   3.920   9.884   5.010 -2.2814 -0.6411 -0.3665
  143ccc     H4 4179   3.723  10.084   4.898 -0.3099 -1.5583 -2.2846
  143ccc     H5 4180   3.914  10.182   5.065 -1.1865 -0.7112 -1.0152
  143ccc     O1 4181   4.062  10.045   5.138 -0.5412 -0.7065  0.1362
  143ccc     O2 4182   3.972  10.016   4.855  0.2975  0.0738 -0.4098
  143ccc     O3 4183   3.716   9.890   4.836  0.6415  0.1200  0.1448
  143ccc     O4 4184   3.650   9.840   5.092 -0.3490 -0.1024 -0.0897
  143ccc     C6 4185   3.614  10.059   5.295 -0.1148 -0.5060  0.6083
  143ccc     H6 4186   3.622   9.906   4.819  0.5057  0.5601  1.2392
  143ccc     H7 4187   3.659   9.791   5.009 -0.5615 -0.5107  0.1248
  143ccc     H8 4188   3.948   9.936   4.805  0.1781  0.7018 -1.3961
  143ccc     H9 4189   3.519  10.112   5.282  0.8132  0.6471 -2.5056
  143ccc    H10 4190   3.669  10.114   5.372  2.0132  2.5067 -2.7091
  143ccc     O5 4191   3.599   9.920   5.332 -0.8999  0.3251 -0.6062
  143ccc    H11 4192   3.623   9.872   5.250  0.0373 -1.1316  0.4744
  143ccc     O6 4193   3.839  10.040   5.197  0.2706 -0.5207 -0.2829
  144ccc     C1 4194   4.583  11.221   6.052  0.3358 -0.4577  0.1605
  144ccc     C2 4195   4.674  11.293   6.160 -0.9603  0.2852  0.5357
  144ccc     H1 4196   4.481  11.263   6.050  0.7270  0.4916 -0.3624
  144ccc     H2 4197   4.656  11.399   6.142 -1.2576 -0.4016 -5.4739
  144ccc     C3 4198   4.645  11.259   6.310 -0.0348 -0.2379  0.0103
  144ccc     C4 4199   4.610  11.108   6.334 -0.0653 -0.3315  0.4203
  144ccc     C5 4200   4.535  11.046   6.213 -0.3070 -0.0938 -0.2801
  144ccc     H3 4201   4.703  11.050   6.338  0.3796  0.3761  0.6884
  144ccc     H4 4202   4.553  11.311   6.339  0.1241 -0.4649  0.9688
  144ccc     H5 4203   4.428  11.069   6.220  0.0365  2.0750 -1.3301
  144ccc     O1 4204   4.549  10.907   6.227  0.4440  0.1824 -0.0478
  144ccc     O2 4205   4.544  11.086   6.461  0.2993  0.2168  0.1961
  144ccc     O3 4206   4.749  11.311   6.393  0.2044 -0.0750 -0.2875
  144ccc     O4 4207   4.816  11.258   6.135 -0.0318  1.0268  0.2902
  144ccc     C6 4208   4.621  11.230   5.898 -0.5997 -0.1015  0.4877
  144ccc     H6 4209   4.733  11.407   6.400 -0.8694 -0.3413  1.1585
  144ccc     H7 4210   4.865  11.316   6.195  1.3038  0.0776  0.1723
  144ccc     H8 4211   4.567  10.994   6.484  1.4678  0.3375 -0.4349
  144ccc     H9 4212   4.605  11.334   5.865 -0.5724  0.2854  1.6235
  144ccc    H10 4213   4.554  11.164   5.843  0.3568 -1.8524  1.3435
  144ccc     O5 4214   4.755  11.185   5.893 -0.3941  0.8733  0.7068
  144ccc    H11 4215   4.796  11.202   5.980  2.0629  2.0014 -0.5817
  144ccc     O6 4216   4.591  11.081   6.089  0.3844  0.1030  0.0343
  145ccc     C1 4217   5.373  11.417   6.047  0.1833 -0.4022 -0.2175
  145ccc     C2 4218   5.384  11.462   6.193  0.4831 -0.0627 -0.2563
  145ccc     H1 4219   5.325  11.498   5.991 -0.3384 -1.9241 -2.0439
  145ccc     H2 4220   5.443  11.554   6.194  0.5766 -0.1091 -0.9159
  145ccc     C3 4221   5.241  11.492   6.242 -0.2156  0.4616  0.2281
  145ccc     C4 4222   5.134  11.380   6.212 -0.4416 -0.5697  0.5988
  145ccc     C5 4223   5.148  11.311   6.071 -0.6345 -0.1990 -0.3539
  145ccc     H3 4224   5.156  11.306   6.290  0.7666 -0.2140  0.6144
  145ccc     H4 4225   5.212  11.586   6.194  0.4710  0.4981 -0.1340
  145ccc     H5 4226   5.093  11.366   5.995 -0.6550  0.1243 -0.1087
  145ccc     O1 4227   5.105  11.175   6.083 -0.7440 -0.9122  0.3130
  145ccc     O2 4228   5.001  11.444   6.223  0.3901 -0.0570 -0.0619
  145ccc     O3 4229   5.242  11.511   6.386 -0.1220 -0.8555  0.1130
  145ccc     O4 4230   5.433  11.350   6.273  0.0321 -0.0208  0.7698
  145ccc     C6 4231   5.507  11.385   5.987 -0.3348  0.7677  0.0712
  145ccc     H6 4232   5.323  11.471   6.421  0.8488  0.0508 -1.0258
  145ccc     H7 4233   5.484  11.298   6.209  0.1420  0.8769  0.1043
  145ccc     H8 4234   4.984  11.465   6.316 -0.6179  0.9655 -0.4594
  145ccc     H9 4235   5.575  11.471   5.982  0.7792 -0.0347  0.8847
  145ccc    H10 4236   5.485  11.350   5.885  0.8488 -0.1168  0.0967
  145ccc     O5 4237   5.572  11.280   6.066 -0.0410  0.2857 -0.4166
  145ccc    H11 4238   5.666  11.293   6.046  0.2030  2.2487  1.5810
  145ccc     O6 4239   5.295  11.300   6.037  0.1278 -0.1981 -0.0713
  146ccc     C1 4240   5.569  11.700   5.696  0.0605  0.2706 -0.3198
  146ccc     C2 4241   5.418  11.697   5.645 -0.0875  0.7729  0.1986
  146ccc     H1 4242   5.616  11.753   5.612 -1.0419 -0.5276 -1.4747
  146ccc     H2 4243   5.388  11.801   5.629  1.5729  1.2237 -0.2369
  146ccc     C3 4244   5.399  11.620   5.512 -0.7944  0.1163 -0.2288
  146ccc     C4 4245   5.475  11.490   5.526  0.4492  1.1377 -0.3316
  146ccc     C5 4246   5.622  11.494   5.577  0.3455  0.2587  0.6368
  146ccc     H3 4247   5.415  11.425   5.591 -0.5617  1.2154 -1.1473
  146ccc     H4 4248   5.452  11.688   5.443 -1.5329 -0.6493 -1.5765
  146ccc     H5 4249   5.681  11.535   5.495  0.6808  0.4223  0.9595
  146ccc     O1 4250   5.677  11.364   5.601  0.0604  0.6772 -0.6898
  146ccc     O2 4251   5.475  11.444   5.390  0.4435  0.3989  0.0421
  146ccc     O3 4252   5.268  11.605   5.455 -0.0452  0.2593  0.3033
  146ccc     O4 4253   5.349  11.629   5.752 -0.3843 -0.0681 -0.6744
  146ccc     C6 4254   5.578  11.779   5.832 -0.4931  0.1739  0.1041
  146ccc     H6 4255   5.267  11.605   5.358 -3.6125 -0.1172  0.1997
  146ccc     H7 4256   5.257  11.635   5.721 -0.0344  1.6772 -1.5346
  146ccc     H8 4257   5.389  11.405   5.366  0.0196 -0.8714  3.1704
  146ccc     H9 4258   5.532  11.721   5.913  0.1264  1.1257  1.1736
  146ccc    H10 4259   5.531  11.877   5.818  1.7240  1.3597  0.5223
  146ccc     O5 4260   5.716  11.798   5.848  0.5306  0.0679 -0.0392
  146ccc    H11 4261   5.727  11.829   5.939 -1.2456 -1.6618  0.8178
  146ccc     O6 4262   5.626  11.572   5.702  0.6145  0.6407 -0.0993
  147ccc     C1 4263   6.061  10.866   4.999 -0.5377 -0.8631  0.2081
  147ccc     C2 4264   5.990  10.987   4.943 -1.1589  0.2186  0.3813
  147ccc     H1 4265   6.022  10.778   4.946 -1.8499 -0.1218 -0.1136
  147ccc     H2 4266   6.013  10.986   4.836  0.5381 -0.5199  0.7198
  147ccc     C3 4267   5.839  10.973   4.954  0.0537  0.7498 -0.2154
  147ccc     C4 4268   5.805  10.950   5.107  0.9980 -0.1448 -0.1997
  147ccc     C5 4269   5.887  10.835   5.167  0.9428  0.2164  0.3215
  147ccc     H3 4270   5.825  11.043   5.161 -1.1934  0.4525 -0.3594
  147ccc     H4 4271   5.815  10.882   4.898  0.9892 -1.1699  2.3001
  147ccc     H5 4272   5.857  10.740   5.121  0.4463  1.6629 -2.5623
  147ccc     O1 4273   5.853  10.834   5.308  0.2644 -0.4283  0.2157
  147ccc     O2 4274   5.660  10.927   5.115 -0.2222  0.3693 -0.1586
  147ccc     O3 4275   5.771  11.084   4.895  0.2067 -0.0692  0.2404
  147ccc     O4 4276   6.043  11.111   5.004 -0.0155  0.2915 -0.5925
  147ccc     C6 4277   6.216  10.875   4.976  0.3515  0.2175 -0.3173
  147ccc     H6 4278   5.793  11.085   4.800  0.1274 -2.4369  0.1311
  147ccc     H7 4279   6.031  11.185   4.942 -2.4703 -1.0265 -1.8490
  147ccc     H8 4280   5.614  10.996   5.063 -1.8771  0.3109  1.1338
  147ccc     H9 4281   6.260  10.968   5.016  1.3719  0.2123 -1.3680
  147ccc    H10 4282   6.233  10.886   4.868 -0.0093  3.0342 -0.1617
  147ccc     O5 4283   6.277  10.758   5.025 -0.0259  0.0910 -0.4002
  147ccc    H11 4284   6.277  10.768   5.121  0.6765 -2.2529 -0.0807
  147ccc     O6 4285   6.028  10.857   5.146  0.3298 -0.3169 -0.3514
  148ccc     C1 4286   5.090  10.813   5.208 -0.1906 -0.2858  0.1282
  148ccc     C2 4287   5.178  10.942   5.187 -0.7427  0.0238 -0.6465
  148ccc     H1 4288   5.055  10.814   5.312 -1.0632  1.5226 -0.1403
  148ccc     H2 4289   5.131  11.034   5.224  0.0534 -0.0375  0.5765
  148ccc     C3 4290   5.311  10.927   5.263 -0.4688 -0.1788  0.1517
  148ccc     C4 4291   5.377  10.787   5.230  0.4313  0.0434  0.5445
  148ccc     C5 4292   5.285  10.661   5.247 -0.4334 -0.3366 -0.2947
  148ccc     H3 4293   5.409  10.785   5.125  0.5512  0.7931  0.5667
  148ccc     H4 4294   5.302  10.930   5.372  0.0800  2.6471  0.1964
  148ccc     H5 4295   5.261  10.646   5.353  0.8267  0.6887  0.1603
  148ccc     O1 4296   5.333  10.545   5.193 -0.5995  0.0848 -0.7576
  148ccc     O2 4297   5.494  10.766   5.309  0.5442 -0.1345  0.2435
  148ccc     O3 4298   5.402  11.035   5.214  0.4838 -0.3263 -0.0027
  148ccc     O4 4299   5.208  10.952   5.046 -0.1809  0.2067 -0.1116
  148ccc     C6 4300   4.959  10.820   5.123  0.5782 -0.8275 -0.0442
  148ccc     H6 4301   5.402  11.041   5.117 -1.8163  1.3958  0.0256
  148ccc     H7 4302   5.137  11.010   5.013 -1.0707  0.6471  2.3567
  148ccc     H8 4303   5.559  10.828   5.273  0.9384 -0.3594  0.5663
  148ccc     H9 4304   4.970  10.778   5.022 -2.8989  0.2906 -1.0050
  148ccc    H10 4305   4.938  10.926   5.105  0.1204 -0.8543  0.3248
  148ccc     O5 4306   4.851  10.750   5.189  0.1285  0.0182  0.2826
  148ccc    H11 4307   4.773  10.767   5.133  0.9049  1.9678 -0.3060
  148ccc     O6 4308   5.164  10.693   5.169 -0.2586 -0.4909  0.5766
  149ccc     C1 4309   6.025  10.328   4.720  0.1826  0.7674  0.0313
  149ccc     C2 4310   5.940  10.375   4.596  0.1526 -0.3232  0.2739
  149ccc     H1 4311   6.080  10.238   4.694 -0.7311  0.7844 -2.1421
  149ccc     H2 4312   6.011  10.382   4.513 -0.8804 -1.9405 -0.8132
  149ccc     C3 4313   5.822  10.274   4.557 -0.8883  0.5288  0.5547
  149ccc     C4 4314   5.737  10.232   4.676 -0.8819 -0.2198  0.2423
  149ccc     C5 4315   5.833  10.193   4.791 -0.2051 -0.0644  0.6596
  149ccc     H3 4316   5.667  10.312   4.701  0.0817  0.8651 -0.4407
  149ccc     H4 4317   5.869  10.182   4.521  0.3688  1.0881  0.7272
  149ccc     H5 4318   5.885  10.101   4.765  0.3694 -0.4170  2.8949
  149ccc     O1 4319   5.753  10.178   4.905  0.1245  0.4357 -0.1257
  149ccc     O2 4320   5.671  10.107   4.634 -0.1247  0.4875  0.3066
  149ccc     O3 4321   5.738  10.322   4.452  0.0821  0.1967  0.1476
  149ccc     O4 4322   5.892  10.506   4.631 -0.3652 -0.8122  0.3091
  149ccc     C6 4323   6.131  10.432   4.764 -0.5807 -0.6230 -0.1640
  149ccc     H6 4324   5.748  10.256   4.381  2.8403  1.3325 -0.6633
  149ccc     H7 4325   5.874  10.551   4.546  0.4356  0.1545  0.6376
  149ccc     H8 4326   5.606  10.126   4.564 -1.9734 -3.0748  0.8484
  149ccc     H9 4327   6.069  10.509   4.812  0.4378  0.4625 -0.5351
  149ccc    H10 4328   6.191  10.476   4.683  0.5822  1.3317  1.6334
  149ccc     O5 4329   6.225  10.372   4.859 -0.1960  0.1600  0.4927
  149ccc    H11 4330   6.275  10.450   4.889 -0.9551  0.0914  2.0129
  149ccc     O6 4331   5.932  10.299   4.827 -0.1445  0.4781 -0.0912
  150ccc     C1 4332   7.451  11.385   6.628 -0.0295 -0.8538  0.4763
  150ccc     C2 4333   7.363  11.276   6.567 -0.4752 -0.3170 -0.1588
  150ccc     H1 4334   7.504  11.347   6.716  2.2107  1.1391  0.0920
  150ccc     H2 4335   7.431  11.194   6.544  1.2846  1.6620 -2.6298
  150ccc     C3 4336   7.251  11.228   6.667  0.4789  0.3780 -0.0015
  150ccc     C4 4337   7.171  11.348   6.718  0.2282  0.2775 -0.2399
  150ccc     C5 4338   7.271  11.459   6.774  0.4691  0.6673  0.0959
  150ccc     H3 4339   7.115  11.395   6.636  2.4911  0.2118 -1.9102
  150ccc     H4 4340   7.303  11.184   6.754 -0.2342  0.4348  0.4584
  150ccc     H5 4341   7.324  11.440   6.868 -1.2305 -1.4979  0.6993
  150ccc     O1 4342   7.179  11.566   6.801  0.0729 -0.0618 -0.0091
  150ccc     O2 4343   7.075  11.294   6.815 -0.3884  0.1336  1.1034
  150ccc     O3 4344   7.168  11.124   6.616 -0.1422  0.2280 -0.1898
  150ccc     O4 4345   7.307  11.325   6.446 -0.0948 -0.1951  0.1163
  150ccc     C6 4346   7.562  11.433   6.535 -0.6471 -0.1818  0.1139
  150ccc     H6 4347   7.131  11.148   6.530  0.3076  0.7663 -0.2405
  150ccc     H7 4348   7.277  11.251   6.391 -0.6941  1.4627 -1.9545
  150ccc     H8 4349   7.029  11.222   6.768 -0.4812  1.2897 -0.6869
  150ccc     H9 4350   7.608  11.351   6.478 -2.4017 -2.2378  1.5104
  150ccc    H10 4351   7.641  11.478   6.598 -1.1661 -2.4325  2.5513
  150ccc     O5 4352   7.513  11.528   6.445  0.0003 -0.2400  0.0510
  150ccc    H11 4353   7.422  11.498   6.465  0.2663  0.4955  2.7865
  150ccc     O6 4354   7.368  11.497   6.673  0.4226 -0.0068 -0.1312
  151ccc     C1 4355   7.285  11.948   7.769  0.2256 -0.1460 -0.3958
  151ccc     C2 4356   7.172  11.967   7.871  0.6256  0.0312 -0.2387
  151ccc     H1 4357   7.288  12.027   7.692  0.1987  0.1978 -0.0456
  151ccc     H2 4358   7.197  12.054   7.934  2.2374 -1.4496  1.2631
  151ccc     C3 4359   7.027  11.979   7.804 -0.9111  0.0511 -0.2291
  151ccc     C4 4360   7.006  11.861   7.706  0.4452  0.4184  0.3867
  151ccc     C5 4361   7.132  11.846   7.610  0.3305 -0.1755  0.2232
  151ccc     H3 4362   7.004  11.773   7.771 -0.1594  0.5426  0.5402
  151ccc     H4 4363   7.027  12.076   7.753  1.4117  1.1950  1.7420
  151ccc     H5 4364   7.137  11.934   7.546 -3.8314  0.5145  0.5739
  151ccc     O1 4365   7.109  11.727   7.531 -0.6053  0.1749 -0.0942
  151ccc     O2 4366   6.882  11.885   7.636  0.0901 -0.1515  1.0371
  151ccc     O3 4367   6.917  11.986   7.904 -0.6086  0.2701 -0.3110
  151ccc     O4 4368   7.180  11.852   7.952  0.0055  0.1742  0.5770
  151ccc     C6 4369   7.430  11.954   7.833  0.0056  0.7611  0.3958
  151ccc     H6 4370   6.951  12.056   7.963  0.0761  0.4735 -0.9321
  151ccc     H7 4371   7.273  11.831   7.935  0.2843  1.5471  0.2188
  151ccc     H8 4372   6.814  11.914   7.698 -0.4839 -3.7530  2.3474
  151ccc     H9 4373   7.441  12.040   7.901  2.4194  1.0348 -0.2646
  151ccc    H10 4374   7.515  11.959   7.764 -0.9744 -0.4895 -0.9547
  151ccc     O5 4375   7.435  11.829   7.915  0.0465 -0.1943 -0.0389
  151ccc    H11 4376   7.529  11.826   7.938  0.2800  0.9824 -0.7596
  151ccc     O6 4377   7.255  11.831   7.691 -0.4243 -1.5697  0.3664
  152ccc     C1 4378   6.818  11.235   6.272  0.1628 -0.1621 -0.1732
  152ccc     C2 4379   6.954  11.182   6.337  0.2130 -0.0937 -0.0375
  152ccc     H1 4380   6.798  11.171   6.185  2.5799  0.6564 -1.4115
  152ccc     H2 4381   6.945  11.078   6.371 -1.2680  0.2198  0.6016
  152ccc     C3 4382   7.077  11.187   6.241 -0.0017  0.0573  0.2371
  152ccc     C4 4383   7.094  11.338   6.195  0.1025 -0.2845 -0.2735
  152ccc     C5 4384   6.958  11.392   6.138 -0.3294  0.1354 -0.0784
  152ccc     H3 4385   7.117  11.398   6.283 -2.2495  0.6624 -0.2269
  152ccc     H4 4386   7.048  11.126   6.154 -2.6617  0.9417  0.4235
  152ccc     H5 4387   6.939  11.338   6.045  3.0210  0.2623 -0.9757
  152ccc     O1 4388   6.980  11.538   6.113 -0.2679 -0.2446  0.2742
  152ccc     O2 4389   7.202  11.350   6.092 -0.5817  0.2746  0.4944
  152ccc     O3 4390   7.189  11.138   6.316  0.0371  0.0642 -0.1133
  152ccc     O4 4391   6.968  11.269   6.449 -0.0980 -0.0461  0.0026
  152ccc     C6 4392   6.692  11.216   6.355 -0.2295  0.5013 -0.2238
  152ccc     H6 4393   7.239  11.085   6.251 -0.0704  3.7749 -3.6344
  152ccc     H7 4394   6.875  11.294   6.465 -0.4404 -0.4173 -1.2870
  152ccc     H8 4395   7.287  11.310   6.119  0.3129  0.4862 -1.7659
  152ccc     H9 4396   6.680  11.110   6.379  1.1464  0.6476  1.3452
  152ccc    H10 4397   6.603  11.240   6.297  0.0916 -0.3545 -1.1044
  152ccc     O5 4398   6.712  11.292   6.477  0.2278 -0.2286  0.4031
  152ccc    H11 4399   6.674  11.378   6.450  1.9221  1.9700  4.1909
  152ccc     O6 4400   6.841  11.366   6.223  0.1814 -0.0311  0.1040
  153ccc     C1 4401   6.401  12.230   5.854 -0.2427 -0.1652 -0.0027
  153ccc     C2 4402   6.364  12.128   5.747 -1.0383  0.1903  0.0330
  153ccc     H1 4403   6.424  12.318   5.793 -0.7387  0.5766  0.8413
  153ccc     H2 4404   6.270  12.159   5.700 -1.2391 -1.6115 -0.8159
  153ccc     C3 4405   6.481  12.096   5.651 -0.1520 -0.0064 -0.3144
  153ccc     C4 4406   6.608  12.061   5.730 -0.1391  0.2697 -0.0158
  153ccc     C5 4407   6.638  12.171   5.834  0.1287 -0.2354 -0.8985
  153ccc     H3 4408   6.588  11.969   5.786 -2.7653  0.5200 -0.4182
  153ccc     H4 4409   6.500  12.187   5.592 -0.4241 -1.6716 -3.1708
  153ccc     H5 4410   6.674  12.267   5.796  0.1110  0.3494  0.5205
  153ccc     O1 4411   6.741  12.130   5.926 -0.1620  0.3884  0.4692
  153ccc     O2 4412   6.721  12.049   5.641 -0.3479 -0.0158 -0.1121
  153ccc     O3 4413   6.441  11.981   5.562  0.2756 -0.0144 -0.0305
  153ccc     O4 4414   6.338  12.006   5.808  0.6150  0.4254 -0.0748
  153ccc     C6 4415   6.292  12.263   5.959  0.2150 -0.6031 -0.2186
  153ccc     H6 4416   6.461  12.001   5.469 -5.4128 -2.5076 -2.2621
  153ccc     H7 4417   6.318  12.028   5.901  0.8371 -1.5373  0.4804
  153ccc     H8 4418   6.718  11.961   5.602  0.7658  0.6188 -1.7357
  153ccc     H9 4419   6.209  12.311   5.906 -1.9758 -4.8451 -1.0948
  153ccc    H10 4420   6.324  12.332   6.039 -1.6488 -0.6477  0.6145
  153ccc     O5 4421   6.238  12.140   6.016 -0.0772 -0.2283 -0.1528
  153ccc    H11 4422   6.200  12.163   6.102  1.6084 -3.6532  1.6819
  153ccc     O6 4423   6.517  12.193   5.923  0.2554 -0.2589 -0.1174
  154ccc     C1 4424   6.484  11.765   7.792 -0.0881 -0.0601  0.2452
  154ccc     C2 4425   6.572  11.867   7.875  0.4103 -0.7645  0.4138
  154ccc     H1 4426   6.414  11.712   7.857  1.6409 -0.7655  1.6107
  154ccc     H2 4427   6.504  11.942   7.916 -2.8767 -2.9571 -0.6555
  154ccc     C3 4428   6.640  11.796   7.989 -0.2544  1.1390 -0.2877
  154ccc     C4 4429   6.703  11.662   7.942 -0.4808 -0.4122 -0.1246
  154ccc     C5 4430   6.622  11.577   7.844 -0.2978  0.0548 -0.2273
  154ccc     H3 4431   6.794  11.686   7.884 -0.7369 -1.1287 -0.8475
  154ccc     H4 4432   6.561  11.759   8.056  0.7616 -0.1925  0.2281
  154ccc     H5 4433   6.543  11.523   7.898  0.8209  1.6619  3.3520
  154ccc     O1 4434   6.711  11.493   7.788  0.2054  0.3357 -0.1546
  154ccc     O2 4435   6.747  11.593   8.065  0.2154  0.4311 -0.5096
  154ccc     O3 4436   6.719  11.892   8.070 -0.4268 -0.0498 -0.1090
  154ccc     O4 4437   6.664  11.916   7.780  0.1599  0.3392  0.0852
  154ccc     C6 4438   6.410  11.826   7.670 -0.4242  0.3034 -0.6530
  154ccc     H6 4439   6.794  11.913   8.012 -0.6947  1.5291  0.0670
  154ccc     H7 4440   6.611  11.900   7.699  0.8365 -1.6490 -0.0233
  154ccc     H8 4441   6.830  11.639   8.087 -0.5190  0.8401  1.7170
  154ccc     H9 4442   6.347  11.907   7.707 -1.1731 -1.0361  1.1817
  154ccc    H10 4443   6.336  11.755   7.631 -2.0475  1.4401  0.2620
  154ccc     O5 4444   6.515  11.866   7.579 -0.0159 -0.1507 -0.2527
  154ccc    H11 4445   6.470  11.867   7.493  2.4380  0.8602 -1.6424
  154ccc     O6 4446   6.567  11.656   7.741  0.3343  0.0151 -0.1894
  155ccc     C1 4447   7.601  11.702   7.629  0.2707 -0.2388  0.2693
  155ccc     C2 4448   7.729  11.618   7.609  0.3606 -0.6243  0.1556
  155ccc     H1 4449   7.616  11.774   7.711 -2.9468  0.8036  0.0469
  155ccc     H2 4450   7.812  11.688   7.595  0.5612 -0.7426  0.7092
  155ccc     C3 4451   7.760  11.523   7.729 -0.0057  0.0330 -0.6979
  155ccc     C4 4452   7.631  11.446   7.765  0.1650  0.9436 -0.1114
  155ccc     C5 4453   7.508  11.532   7.777 -0.3693 -0.3475  0.1898
  155ccc     H3 4454   7.613  11.367   7.692  0.6056 -0.9927  1.7646
  155ccc     H4 4455   7.768  11.594   7.812  1.0117 -0.3278 -0.4681
  155ccc     H5 4456   7.517  11.604   7.859  2.4056  2.0584 -1.9763
  155ccc     O1 4457   7.390  11.454   7.800  0.0208 -0.2948  0.8985
  155ccc     O2 4458   7.651  11.377   7.890 -0.5760  0.3930 -0.1459
  155ccc     O3 4459   7.881  11.433   7.722  0.7395 -0.1706 -0.2154
  155ccc     O4 4460   7.705  11.544   7.492  0.1272  0.0127 -0.1953
  155ccc     C6 4461   7.577  11.787   7.498  0.0167 -0.3224 -0.2753
  155ccc     H6 4462   7.945  11.490   7.676  1.6033 -1.7161 -1.0409
  155ccc     H7 4463   7.638  11.601   7.449  0.8259  1.6200  0.7686
  155ccc     H8 4464   7.575  11.316   7.904  0.6507 -1.7730 -2.1308
  155ccc     H9 4465   7.674  11.831   7.472  0.3595 -1.4544 -0.9861
  155ccc    H10 4466   7.493  11.854   7.519  0.5291  0.3841 -0.4243
  155ccc     O5 4467   7.535  11.700   7.393  0.3216 -0.6389 -0.2600
  155ccc    H11 4468   7.505  11.766   7.328  3.0141 -0.2466 -1.2464
  155ccc     O6 4469   7.491  11.613   7.661 -0.1912 -0.6464  0.2320
  156ccc     C1 4470   7.521  11.245   7.438  1.2037 -0.1220 -0.1441
  156ccc     C2 4471   7.447  11.347   7.347 -0.3688  0.1306 -1.1188
  156ccc     H1 4472   7.591  11.309   7.493  0.5938  2.3621 -2.0397
  156ccc     H2 4473   7.433  11.434   7.413  2.0072 -1.0996  1.1988
  156ccc     C3 4474   7.535  11.403   7.234  0.0611  0.6109  0.3422
  156ccc     C4 4475   7.612  11.295   7.164 -0.1332 -0.3093  0.5508
  156ccc     C5 4476   7.681  11.195   7.257  0.1840  0.1241 -0.6457
  156ccc     H3 4477   7.540  11.235   7.107  1.1331 -0.3765 -1.0587
  156ccc     H4 4478   7.602  11.486   7.260 -1.0728  1.9099 -0.7129
  156ccc     H5 4479   7.771  11.246   7.293  0.9968 -0.6282 -1.5541
  156ccc     O1 4480   7.717  11.083   7.177 -0.0875  0.5095  0.1841
  156ccc     O2 4481   7.709  11.367   7.078  0.3680 -0.1191 -1.0553
  156ccc     O3 4482   7.439  11.469   7.147 -0.2693  0.3531  0.3885
  156ccc     O4 4483   7.334  11.297   7.291 -1.0506  0.4046 -0.3254
  156ccc     C6 4484   7.428  11.167   7.535  0.2195 -0.3718 -1.1985
  156ccc     H6 4485   7.485  11.546   7.110 -0.2308 -0.0178 -0.3535
  156ccc     H7 4486   7.343  11.338   7.204 -3.3063 -0.1725 -0.9010
  156ccc     H8 4487   7.733  11.300   7.011  0.1796  0.1478 -1.3906
  156ccc     H9 4488   7.409  11.068   7.491  1.2492 -1.1056 -0.0374
  156ccc    H10 4489   7.342  11.233   7.555  1.1041  0.5332 -0.2788
  156ccc     O5 4490   7.514  11.145   7.652 -0.2258 -0.0548 -0.2969
  156ccc    H11 4491   7.567  11.068   7.625 -1.3861 -1.1414  0.4355
  156ccc     O6 4492   7.586  11.146   7.360  0.7648 -0.5558 -0.1154
  157ccc     C1 4493   7.446  10.553   6.460  0.1847 -0.1753  0.2876
  157ccc     C2 4494   7.340  10.653   6.405  0.0821  0.0809  1.1887
  157ccc     H1 4495   7.396  10.510   6.548 -0.0771  1.4758  1.0005
  157ccc     H2 4496   7.238  10.612   6.400 -0.7062  2.1129 -0.9350
  157ccc     C3 4497   7.325  10.771   6.507  1.0085  0.7018  0.7003
  157ccc     C4 4498   7.464  10.833   6.531  0.1209  0.0663 -0.8499
  157ccc     C5 4499   7.562  10.723   6.581 -0.2545 -0.0299  0.4534
  157ccc     H3 4500   7.492  10.865   6.430 -1.4377  0.3461 -1.2224
  157ccc     H4 4501   7.299  10.730   6.605 -0.2004  0.7886  0.4270
  157ccc     H5 4502   7.523  10.681   6.675 -0.9147  0.3217  0.3435
  157ccc     O1 4503   7.687  10.789   6.591 -0.1294 -0.1555  0.0292
  157ccc     O2 4504   7.445  10.938   6.625 -0.1396  0.0569 -0.7482
  157ccc     O3 4505   7.226  10.880   6.479  0.3552  0.6854 -0.6587
  157ccc     O4 4506   7.381  10.700   6.276  0.2460  0.3988 -0.5195
  157ccc     C6 4507   7.476  10.432   6.374  0.4138  0.6293  0.0455
  157ccc     H6 4508   7.263  10.948   6.538 -0.6838  1.7060 -1.1343
  157ccc     H7 4509   7.415  10.615   6.243 -0.1165 -0.0107  0.1422
  157ccc     H8 4510   7.523  10.996   6.633  1.5151 -2.1625  0.3916
  157ccc     H9 4511   7.391  10.364   6.366  0.3916  0.6771 -0.1595
  157ccc    H10 4512   7.566  10.379   6.406  1.1978  0.6778 -1.9202
  157ccc     O5 4513   7.503  10.476   6.245  0.0289 -0.2761  0.2812
  157ccc    H11 4514   7.589  10.520   6.253 -0.7678  1.4792 -0.2541
  157ccc     O6 4515   7.573  10.615   6.493 -0.0024 -0.0488  0.3404
  158ccc     C1 4516   5.690  10.348   9.960  0.3134  0.2817 -0.1774
  158ccc     C2 4517   5.590  10.431  10.039 -0.2265 -0.5791  0.2410
  158ccc     H1 4518   5.701  10.256  10.019  0.6998  0.7680  0.5178
  158ccc     H2 4519   5.503  10.368  10.063 -0.0172 -0.4259  1.4602
  158ccc     C3 4520   5.652  10.487  10.173  0.1140  0.7005 -0.2961
  158ccc     C4 4521   5.792  10.560  10.142  0.5434 -0.2025  0.3420
  158ccc     C5 4522   5.885  10.476  10.057 -0.1877  0.3207 -0.0509
  158ccc     H3 4523   5.768  10.648  10.082  0.0359 -1.2909 -1.1125
  158ccc     H4 4524   5.666  10.401  10.240 -0.5033  0.0913 -0.9427
  158ccc     H5 4525   5.919  10.389  10.115  1.1666  0.1267 -1.1121
  158ccc     O1 4526   5.998  10.549  10.010  0.3754 -0.0393 -0.0151
  158ccc     O2 4527   5.848  10.591  10.274 -0.7097  0.2123 -0.1502
  158ccc     O3 4528   5.553  10.573  10.236 -0.0815  0.4035 -0.3006
  158ccc     O4 4529   5.538  10.540   9.960  0.7788  0.1290 -0.1659
  158ccc     C6 4530   5.635  10.300   9.821 -0.5122  0.3695 -0.4256
  158ccc     H6 4531   5.503  10.511  10.290  1.6958 -1.7195 -0.9646
  158ccc     H7 4532   5.494  10.604  10.020 -0.2086  0.0537 -0.7799
  158ccc     H8 4533   5.800  10.663  10.318  0.8470  1.0872  0.1870
  158ccc     H9 4534   5.554  10.229   9.843 -0.3046  0.3052  0.1705
  158ccc    H10 4535   5.714  10.246   9.767 -1.2171 -1.3356  0.1752
  158ccc     O5 4536   5.586  10.412   9.749  0.0299 -0.9852  0.1873
  158ccc    H11 4537   5.574  10.470   9.826 -2.0631 -0.0331 -0.7820
  158ccc     O6 4538   5.812  10.427   9.940  0.3673 -0.3435 -0.0546
  159ccc     C1 4539   5.903  10.904  10.375 -0.4884 -0.3138 -0.3400
  159ccc     C2 4540   5.974  11.030  10.443  1.1473  0.3876  0.1390
  159ccc     H1 4541   5.924  10.827  10.450  0.0141  0.3848  0.2479
  159ccc     H2 4542   5.941  11.045  10.547 -1.0146 -0.3044 -0.3859
  159ccc     C3 4543   6.120  10.989  10.437 -0.4656 -0.4791  0.3740
  159ccc     C4 4544   6.172  10.987  10.289 -0.3403  0.8400  0.2854
  159ccc     C5 4545   6.097  10.866  10.216 -0.0724 -0.0130  0.3514
  159ccc     H3 4546   6.131  11.074  10.235 -1.1942 -0.3800 -1.1053
  159ccc     H4 4547   6.131  10.894  10.490  1.6753 -0.0789  0.7550
  159ccc     H5 4548   6.140  10.775  10.258  1.2129  0.8048  0.8690
  159ccc     O1 4549   6.136  10.883  10.078  0.6343  0.1294  0.2697
  159ccc     O2 4550   6.322  10.970  10.275 -0.1638  0.1850 -0.1057
  159ccc     O3 4551   6.202  11.076  10.515 -0.1462  0.6148  0.3179
  159ccc     O4 4552   5.949  11.147  10.361 -0.0354  0.1882 -0.5504
  159ccc     C6 4553   5.752  10.926  10.359  0.2969 -0.3599 -0.5331
  159ccc     H6 4554   6.169  11.167  10.505  1.1319  1.0150 -0.5043
  159ccc     H7 4555   5.992  11.222  10.405 -0.3682  0.9472 -1.5088
  159ccc     H8 4556   6.341  10.992  10.182  0.1433 -1.5605 -0.5004
  159ccc     H9 4557   5.740  10.964  10.257 -1.1331  0.5939 -0.0345
  159ccc    H10 4558   5.701  10.995  10.427 -0.5695 -0.4386 -1.0923
  159ccc     O5 4559   5.708  10.793  10.371  0.1235 -0.1410  0.3560
  159ccc    H11 4560   5.613  10.802  10.355  0.4807  1.1523 -1.3095
  159ccc     O6 4561   5.958  10.872  10.243 -0.3977 -0.8393  0.9166
  160ccc     C1 4562   6.186  11.388  10.263 -0.4673 -0.1111 -0.4712
  160ccc     C2 4563   6.283  11.490  10.194  0.1878 -0.2704 -1.0683
  160ccc     H1 4564   6.238  11.293  10.279  0.6656  0.8558  2.1405
  160ccc     H2 4565   6.381  11.490  10.243  0.5177 -1.9934 -1.6730
  160ccc     C3 4566   6.306  11.475  10.040  0.3889  0.4639  0.2902
  160ccc     C4 4567   6.180  11.429   9.970  0.6961  0.1042  0.1512
  160ccc     C5 4568   6.108  11.319  10.046 -0.3163  0.9976  0.1522
  160ccc     H3 4569   6.106  11.510   9.966 -0.5201 -1.0247 -0.9390
  160ccc     H4 4570   6.378  11.395  10.019 -1.4808 -1.0504 -0.6135
  160ccc     H5 4571   6.181  11.238  10.053  2.9140  3.7948  3.0517
  160ccc     O1 4572   5.987  11.270   9.973 -0.0383 -0.2172 -0.2249
  160ccc     O2 4573   6.212  11.387   9.839 -0.1170  0.7070  0.8793
  160ccc     O3 4574   6.354  11.602   9.987  0.1338  0.0543  1.0260
  160ccc     O4 4575   6.225  11.618  10.205  0.8682 -0.0064  0.0469
  160ccc     C6 4576   6.151  11.433  10.400 -0.4338 -0.0563 -0.2799
  160ccc     H6 4577   6.388  11.576   9.900 -1.9638 -1.6681  0.6446
  160ccc     H7 4578   6.272  11.661  10.132  0.6954  1.7433  0.9140
  160ccc     H8 4579   6.138  11.414   9.783  0.0163  0.1218  0.4152
  160ccc     H9 4580   6.066  11.502  10.400 -0.8570 -0.4946  2.0451
  160ccc    H10 4581   6.239  11.478  10.446  0.6976 -2.2736 -0.1471
  160ccc     O5 4582   6.121  11.316  10.470  0.3730 -0.3683 -0.0740
  160ccc    H11 4583   6.108  11.340  10.563 -0.4082 -0.9072 -0.0404
  160ccc     O6 4584   6.074  11.370  10.178  0.2445  0.5818 -0.4893
  161ccc     C1 4585   5.314  11.143  10.156 -0.7823 -0.4178  0.2714
  161ccc     C2 4586   5.384  11.071  10.274  0.1921  0.3507 -0.7915
  161ccc     H1 4587   5.205  11.124  10.159 -0.9443  0.5232  1.6281
  161ccc     H2 4588   5.338  11.105  10.367  1.9512  2.3738 -0.5762
  161ccc     C3 4589   5.385  10.916  10.253  0.2353 -0.0751 -0.0036
  161ccc     C4 4590   5.440  10.872  10.112 -0.8499  0.1151  0.3127
  161ccc     C5 4591   5.372  10.957   9.995 -0.1123  0.2299  0.7468
  161ccc     H3 4592   5.544  10.906  10.109 -0.7746 -0.1111  0.3635
  161ccc     H4 4593   5.277  10.898  10.254 -0.1560  1.8315 -1.1030
  161ccc     H5 4594   5.272  10.918   9.972 -0.2791  1.4355 -0.7770
  161ccc     O1 4595   5.456  10.942   9.876 -0.6316 -0.6543 -0.0091
  161ccc     O2 4596   5.420  10.731  10.083 -0.6114 -0.0500 -0.1904
  161ccc     O3 4597   5.444  10.845  10.359  0.0729 -0.6335 -0.1255
  161ccc     O4 4598   5.525  11.111  10.278  0.6595  0.2635  0.2764
  161ccc     C6 4599   5.325  11.296  10.148 -1.1894  0.4415 -0.9404
  161ccc     H6 4600   5.381  10.850  10.433 -0.3077 -0.1527 -0.4805
  161ccc     H7 4601   5.532  11.184  10.342 -0.1386 -0.0001  0.6640
  161ccc     H8 4602   5.454  10.699  10.168 -0.7879  0.8969  0.2541
  161ccc     H9 4603   5.431  11.319  10.137 -0.8812 -0.7442 -0.5423
  161ccc    H10 4604   5.291  11.332  10.246  0.4049  0.6315 -0.4335
  161ccc     O5 4605   5.234  11.339  10.049 -0.0565  0.1041 -0.0773
  161ccc    H11 4606   5.148  11.305  10.077  0.2253 -0.0468  0.6307
  161ccc     O6 4607   5.365  11.097  10.032 -0.5439 -0.2657  0.7198
  162ccc     C1 4608   4.109  11.270   9.823 -0.2421  0.0832  0.0688
  162ccc     C2 4609   4.142  11.411   9.867  0.2223  0.0253 -0.1322
  162ccc     H1 4610   4.169  11.206   9.888 -0.5350 -1.6508 -1.2880
  162ccc     H2 4611   4.132  11.411   9.976  0.7232 -0.4600 -0.0833
  162ccc     C3 4612   4.291  11.435   9.831  0.6711 -0.7111  0.0116
  162ccc     C4 4613   4.334  11.397   9.690  0.4935  0.3047 -0.0216
  162ccc     C5 4614   4.297  11.251   9.663  0.7114 -0.2242 -0.2334
  162ccc     H3 4615   4.281  11.455   9.614  0.4093  1.4373  0.8702
  162ccc     H4 4616   4.343  11.361   9.893  0.5229 -1.2613 -0.5112
  162ccc     H5 4617   4.354  11.180   9.724 -0.5781 -2.2764 -1.3108
  162ccc     O1 4618   4.349  11.212   9.533  0.0090  0.1724 -0.5954
  162ccc     O2 4619   4.480  11.420   9.681 -0.3009 -0.1410 -0.0382
  162ccc     O3 4620   4.335  11.571   9.859 -0.4290 -0.6403 -0.2910
  162ccc     O4 4621   4.052  11.501   9.804 -0.0016 -0.1364  0.2303
  162ccc     C6 4622   3.969  11.225   9.843  0.6319 -0.1235  0.3803
  162ccc     H6 4623   4.276  11.627   9.806 -0.1682 -1.0882 -1.0653
  162ccc     H7 4624   3.971  11.448   9.803  1.3905 -2.4193  0.7308
  162ccc     H8 4625   4.489  11.496   9.741  0.3996 -0.9443  0.9278
  162ccc     H9 4626   3.947  11.237   9.950 -1.6759 -0.0870 -0.0330
  162ccc    H10 4627   3.953  11.119   9.823  1.2091 -0.2120  0.3695
  162ccc     O5 4628   3.874  11.311   9.768 -0.0874  0.5781 -0.6934
  162ccc    H11 4629   3.788  11.283   9.804  0.4417  1.5198  1.4413
  162ccc     O6 4630   4.155  11.246   9.680  0.5291 -0.0542 -0.5180
  163ccc     C1 4631   4.783  11.193  10.102 -0.1675  0.7945  0.6422
  163ccc     C2 4632   4.810  11.054  10.172  0.7641 -0.6911 -0.0588
  163ccc     H1 4633   4.682  11.218  10.138 -0.6819  0.0551 -0.2483
  163ccc     H2 4634   4.800  11.056  10.281 -0.2274 -4.1620  0.0125
  163ccc     C3 4635   4.699  10.954  10.116  0.0704 -0.7169  0.1906
  163ccc     C4 4636   4.703  10.948   9.968  0.1549  0.5369  0.2468
  163ccc     C5 4637   4.686  11.090   9.901 -0.0091  0.5291 -0.1022
  163ccc     H3 4638   4.799  10.905   9.938 -0.7633 -1.5071  0.0429
  163ccc     H4 4639   4.601  10.992  10.149 -0.1062 -0.6515 -0.3938
  163ccc     H5 4640   4.584  11.128   9.912  0.1764  0.5707  1.8129
  163ccc     O1 4641   4.711  11.069   9.767  0.0557  0.5967  0.1372
  163ccc     O2 4642   4.596  10.861   9.913 -0.2426 -0.2704  0.4233
  163ccc     O3 4643   4.710  10.830  10.180  0.3077  0.1202  0.0361
  163ccc     O4 4644   4.939  11.016  10.131 -0.5461 -0.6780 -0.0166
  163ccc     C6 4645   4.877  11.306  10.146  0.2565  0.2161 -0.1258
  163ccc     H6 4646   4.644  10.840  10.251  1.3216  3.5666  0.6552
  163ccc     H7 4647   4.969  11.103  10.099  1.1541 -1.5355 -0.9140
  163ccc     H8 4648   4.642  10.797   9.856 -2.2550 -1.9412  0.5690
  163ccc     H9 4649   4.851  11.346  10.244  0.0545 -0.2127 -0.0039
  163ccc    H10 4650   4.860  11.394  10.083 -1.1091  0.9791  1.2718
  163ccc     O5 4651   5.014  11.266  10.158  1.2693 -0.4763 -0.3639
  163ccc    H11 4652   5.029  11.260  10.254  0.3463 -0.6068 -0.2219
  163ccc     O6 4653   4.783  11.184   9.960  0.3410  0.1576  0.1370
  164ccc     C1 4654   4.712  10.154   9.189 -0.2029  0.6770 -0.0170
  164ccc     C2 4655   4.759  10.085   9.056 -0.2925 -0.0052 -0.4089
  164ccc     H1 4656   4.700  10.079   9.269  2.2195  0.4254  0.1643
  164ccc     H2 4657   4.857  10.044   9.083  0.9180  2.0887 -1.3788
  164ccc     C3 4658   4.651   9.988   9.011  0.0985  0.3339  0.1949
  164ccc     C4 4659   4.515  10.065   8.994 -0.3673  0.2707 -0.4953
  164ccc     C5 4660   4.473  10.137   9.123 -0.4529  0.8179 -0.2804
  164ccc     H3 4661   4.530  10.134   8.910  1.1033  2.4919  1.4415
  164ccc     H4 4662   4.637   9.906   9.082  1.1797 -0.1892 -0.1710
  164ccc     H5 4663   4.437  10.066   9.199 -2.3430  0.2292 -1.6507
  164ccc     O1 4664   4.353  10.215   9.078  0.5218  0.3635 -0.0450
  164ccc     O2 4665   4.411   9.971   8.961 -0.4555  0.0667 -0.0917
  164ccc     O3 4666   4.688   9.941   8.880 -0.2944 -0.1266 -0.1154
  164ccc     O4 4667   4.781  10.193   8.966  0.1386  0.6259  0.3418
  164ccc     C6 4668   4.804  10.257   9.252 -0.1278 -0.5088 -0.0340
  164ccc     H6 4669   4.609   9.889   8.859  1.3121 -3.7813  1.8697
  164ccc     H7 4670   4.791  10.149   8.879 -1.2858 -0.8866  0.8956
  164ccc     H8 4671   4.378   9.997   8.873 -2.4012  0.5502  0.7350
  164ccc     H9 4672   4.806  10.356   9.206  2.8616  0.2771  1.5017
  164ccc    H10 4673   4.906  10.217   9.262  0.3072  0.0374 -2.0034
  164ccc     O5 4674   4.758  10.264   9.384  0.1249 -0.7870  0.1387
  164ccc    H11 4675   4.766  10.359   9.401 -1.6878 -0.8299  1.5199
  164ccc     O6 4676   4.583  10.224   9.163  0.2600 -0.1969  0.3461
  165ccc     C1 4677   3.613  10.457   8.643  0.0870 -0.1663 -0.0332
  165ccc     C2 4678   3.695  10.585   8.623 -0.1310 -0.4835  0.0928
  165ccc     H1 4679   3.509  10.481   8.666  0.2883  0.1918  0.5162
  165ccc     H2 4680   3.653  10.645   8.541  0.4198  0.5040  0.5266
  165ccc     C3 4681   3.693  10.661   8.755 -0.1264 -0.2686 -0.4116
  165ccc     C4 4682   3.734  10.563   8.870  0.2284  0.1699  0.3566
  165ccc     C5 4683   3.645  10.447   8.879  0.8069  0.3917 -0.1639
  165ccc     H3 4684   3.835  10.529   8.844  0.2753 -0.8101  1.7056
  165ccc     H4 4685   3.589  10.681   8.784  0.0635 -0.3979  0.4094
  165ccc     H5 4686   3.537  10.469   8.884  0.3571 -0.7406 -2.8363
  165ccc     O1 4687   3.692  10.362   8.987 -0.9492  0.6713 -0.4019
  165ccc     O2 4688   3.736  10.636   8.990  0.0088 -0.3121  0.1362
  165ccc     O3 4689   3.773  10.783   8.755  0.4257  0.1862 -0.1936
  165ccc     O4 4690   3.831  10.551   8.594 -0.7504 -1.1257  0.5137
  165ccc     C6 4691   3.598  10.362   8.519  0.3275 -0.2156  0.2549
  165ccc     H6 4692   3.708  10.841   8.713  0.0058  0.4767  0.8128
  165ccc     H7 4693   3.886  10.623   8.630 -0.6708 -1.2821  0.7101
  165ccc     H8 4694   3.781  10.718   8.961 -1.7596  0.3487 -0.8602
  165ccc     H9 4695   3.549  10.417   8.438  1.4740  0.6288  0.1120
  165ccc    H10 4696   3.533  10.278   8.546  0.3166 -0.6538 -1.0810
  165ccc     O5 4697   3.727  10.318   8.484  0.1108  0.1860  0.3090
  165ccc    H11 4698   3.781  10.388   8.524 -1.9238  1.4925  0.9087
  165ccc     O6 4699   3.660  10.381   8.753 -1.0719  0.1376  0.1571
  166ccc     C1 4700   7.297   9.398   9.946  0.3781 -0.0998 -0.0977
  166ccc     C2 4701   7.318   9.279   9.853 -0.0895 -0.0461 -0.4654
  166ccc     H1 4702   7.305   9.358  10.048  3.9046  0.8661  0.1552
  166ccc     H2 4703   7.417   9.238   9.877 -0.9918 -1.4008  1.2272
  166ccc     C3 4704   7.210   9.172   9.879  0.2352 -0.4161 -0.2392
  166ccc     C4 4705   7.068   9.241   9.854  0.0546  0.8340  1.1599
  166ccc     C5 4706   7.058   9.375   9.932  0.4086 -0.2676 -0.3796
  166ccc     H3 4707   7.071   9.269   9.748  0.6051  0.6822  1.1313
  166ccc     H4 4708   7.220   9.146   9.985 -2.3864 -0.5441  0.0496
  166ccc     H5 4709   7.044   9.347  10.037 -1.0515  0.1602 -0.4391
  166ccc     O1 4710   6.941   9.448   9.886 -0.2367  0.0144  0.4825
  166ccc     O2 4711   6.956   9.149   9.869  0.4334  0.1164 -0.2914
  166ccc     O3 4712   7.244   9.057   9.799  0.2909  0.0300  0.1376
  166ccc     O4 4713   7.309   9.315   9.715 -0.6834  0.0418  0.2825
  166ccc     C6 4714   7.401   9.500   9.936  0.1625  0.2341  0.0249
  166ccc     H6 4715   7.211   8.985   9.856 -0.8933  1.1011  0.8607
  166ccc     H7 4716   7.311   9.230   9.668  2.4349  0.7717 -1.2126
  166ccc     H8 4717   6.963   9.072   9.810 -0.0603 -0.6735  0.6497
  166ccc     H9 4718   7.394   9.555   9.841  0.8399  1.5780  0.7200
  166ccc    H10 4719   7.494   9.442   9.940  0.8959  1.3110 -0.8081
  166ccc     O5 4720   7.380   9.594  10.044 -0.1721 -0.2173 -0.0649
  166ccc    H11 4721   7.429   9.671  10.012 -0.1248  0.9337  2.5109
  166ccc     O6 4722   7.167   9.467   9.916 -0.5531 -0.1363 -0.3334
  167ccc     C1 4723   6.298   9.335   9.232 -0.0037  0.1908  0.1517
  167ccc     C2 4724   6.247   9.428   9.115 -0.7513  0.2173  0.5086
  167ccc     H1 4725   6.212   9.315   9.297 -0.6009 -0.7351 -0.8875
  167ccc     H2 4726   6.155   9.388   9.071 -1.3826  0.4307  1.6063
  167ccc     C3 4727   6.222   9.568   9.167 -0.7250 -0.1672 -0.7886
  167ccc     C4 4728   6.349   9.624   9.240 -0.0680 -0.3691  0.2949
  167ccc     C5 4729   6.388   9.530   9.360  0.6441 -0.1022  0.4313
  167ccc     H3 4730   6.435   9.626   9.172  0.5373 -0.2890  1.0539
  167ccc     H4 4731   6.149   9.549   9.247 -0.2709  0.6112 -0.1768
  167ccc     H5 4732   6.310   9.530   9.437  0.0360 -1.6418 -0.1522
  167ccc     O1 4733   6.510   9.569   9.411 -0.2186 -0.1712 -0.4168
  167ccc     O2 4734   6.319   9.756   9.285 -0.1473 -0.4603  0.0100
  167ccc     O3 4735   6.163   9.652   9.071  0.1093 -0.4487 -0.1749
  167ccc     O4 4736   6.362   9.436   9.020  0.4760 -0.0012  0.3693
  167ccc     C6 4737   6.334   9.190   9.178 -0.2169  0.4466  0.4627
  167ccc     H6 4738   6.241   9.659   9.013  0.6485 -0.5599  0.5276
  167ccc     H7 4739   6.384   9.342   9.023 -1.8125 -0.5948  0.3963
  167ccc     H8 4740   6.270   9.793   9.209 -2.0174 -1.7055  0.5488
  167ccc     H9 4741   6.240   9.153   9.136 -0.6867  1.6526  0.3909
  167ccc    H10 4742   6.370   9.116   9.251 -0.7948  1.7813  2.1793
  167ccc     O5 4743   6.423   9.193   9.067 -0.1369 -0.4864  0.3226
  167ccc    H11 4744   6.454   9.101   9.067 -1.0201 -0.8038  1.0710
  167ccc     O6 4745   6.406   9.398   9.310  0.9025 -0.0181  0.1871
  168ccc     C1 4746   7.752   9.114   9.513  0.3181 -0.7468 -0.0737
  168ccc     C2 4747   7.660   9.004   9.576 -0.2091 -0.7388  0.6410
  168ccc     H1 4748   7.767   9.185   9.595 -2.9656 -1.6376  1.4812
  168ccc     H2 4749   7.697   8.972   9.674 -0.2335  1.8792  1.5949
  168ccc     C3 4750   7.512   9.048   9.598 -0.2449  0.9465  0.4476
  168ccc     C4 4751   7.456   9.112   9.468 -0.0178  0.2293 -0.0370
  168ccc     C5 4752   7.544   9.231   9.428 -0.7994 -0.0350 -0.1481
  168ccc     H3 4753   7.471   9.040   9.386 -0.4736 -0.3686  0.4031
  168ccc     H4 4754   7.510   9.135   9.665  0.8377  1.6165 -0.3613
  168ccc     H5 4755   7.532   9.299   9.513 -0.3927 -1.8290  1.4216
  168ccc     O1 4756   7.498   9.287   9.302 -0.5309 -0.1209 -0.6653
  168ccc     O2 4757   7.317   9.139   9.484  0.2131 -0.0301 -0.0630
  168ccc     O3 4758   7.442   8.934   9.649 -0.3904 -0.2812  0.0550
  168ccc     O4 4759   7.668   8.898   9.485 -0.1991  0.0284  0.4935
  168ccc     C6 4760   7.898   9.078   9.470  0.7022 -0.1190  0.4512
  168ccc     H6 4761   7.359   8.975   9.679 -1.6360 -1.9054 -1.0339
  168ccc     H7 4762   7.586   8.850   9.505  0.3826 -0.8606  0.8365
  168ccc     H8 4763   7.284   9.151   9.393 -2.2817 -0.7670  0.6694
  168ccc     H9 4764   7.890   8.997   9.397  1.3814  1.0218 -0.9319
  168ccc    H10 4765   7.951   9.045   9.560 -0.9975 -1.2806  1.0855
  168ccc     O5 4766   7.969   9.186   9.412  0.4261 -0.3612 -0.1828
  168ccc    H11 4767   8.053   9.143   9.387  0.2794 -0.5863 -0.2893
  168ccc     O6 4768   7.682   9.182   9.405  0.0492 -0.6385  0.7667
  169ccc     C1 4769   7.393   9.958   8.498 -0.6042 -0.1726 -0.1758
  169ccc     C2 4770   7.487  10.072   8.553  0.2875  0.2049 -0.4753
  169ccc     H1 4771   7.291   9.997   8.503 -0.5787  0.0049 -0.9092
  169ccc     H2 4772   7.446  10.166   8.514 -1.8288  0.7072  2.5840
  169ccc     C3 4773   7.450  10.088   8.702 -0.2922  0.2810  0.4975
  169ccc     C4 4774   7.460   9.953   8.776 -0.1564  0.5596 -0.6316
  169ccc     C5 4775   7.371   9.844   8.705  0.5643 -0.6067 -0.7069
  169ccc     H3 4776   7.566   9.926   8.764 -0.0174  0.1107  1.3172
  169ccc     H4 4777   7.347  10.125   8.713  0.2469  1.7992  0.6361
  169ccc     H5 4778   7.267   9.877   8.704  1.0916  1.6232 -4.6710
  169ccc     O1 4779   7.384   9.724   8.777 -0.3491  0.3214 -0.1738
  169ccc     O2 4780   7.431   9.970   8.919 -0.5794 -0.6857 -0.1198
  169ccc     O3 4781   7.534  10.179   8.769 -0.3534  0.1915  0.1144
  169ccc     O4 4782   7.621  10.036   8.529 -0.4094 -0.6853 -0.6363
  169ccc     C6 4783   7.415   9.936   8.345  0.4451 -0.2931  0.5259
  169ccc     H6 4784   7.505  10.265   8.733 -0.1193 -0.0961 -0.7567
  169ccc     H7 4785   7.675  10.113   8.552  0.7551 -1.3555 -1.0221
  169ccc     H8 4786   7.504  10.031   8.937 -0.5045 -0.2568 -1.7069
  169ccc     H9 4787   7.480   9.848   8.336  0.7882 -0.0641  0.7298
  169ccc    H10 4788   7.453  10.022   8.288 -3.3096  1.2303  0.0640
  169ccc     O5 4789   7.291   9.899   8.292 -0.0904 -0.5897 -0.3512
  169ccc    H11 4790   7.229   9.902   8.367  1.0621  0.4982  0.5968
  169ccc     O6 4791   7.415   9.834   8.571  0.1449  0.2909 -0.0945
  170ccc     C1 4792   7.172  11.861   8.472  0.2490 -0.2876 -0.0424
  170ccc     C2 4793   7.015  11.863   8.463 -0.2381 -0.1393  0.5729
  170ccc     H1 4794   7.215  11.952   8.428  0.7105 -1.0385 -1.1939
  170ccc     H2 4795   6.974  11.953   8.509 -1.4849  0.4277 -1.4863
  170ccc     C3 4796   6.961  11.869   8.313  0.4132 -0.0983  0.2617
  170ccc     C4 4797   7.024  11.744   8.237 -0.2721 -0.2584 -0.4164
  170ccc     C5 4798   7.180  11.744   8.252  0.0766  0.3910  0.3768
  170ccc     H3 4799   6.986  11.660   8.297 -0.1346  1.4270  2.2124
  170ccc     H4 4800   6.985  11.964   8.264  0.8698 -0.7759 -0.8798
  170ccc     H5 4801   7.220  11.830   8.197  0.8237 -0.5983 -0.6630
  170ccc     O1 4802   7.221  11.620   8.174 -0.0771 -0.4963 -0.7621
  170ccc     O2 4803   6.985  11.743   8.093  0.6879 -0.8041  0.1054
  170ccc     O3 4804   6.813  11.872   8.311 -0.4142 -0.0342 -0.1097
  170ccc     O4 4805   6.968  11.747   8.535  0.1847 -0.2688 -0.2732
  170ccc     C6 4806   7.231  11.845   8.611  0.1575 -0.9847 -0.5154
  170ccc     H6 4807   6.786  11.872   8.217 -2.4519  0.8731  0.4159
  170ccc     H7 4808   7.050  11.716   8.577  0.3088  0.3354 -0.0728
  170ccc     H8 4809   7.063  11.786   8.053 -0.9632  3.0888  0.6182
  170ccc     H9 4810   7.226  11.938   8.670 -1.2818 -0.5959 -1.2178
  170ccc    H10 4811   7.339  11.825   8.603  0.5798 -0.3084  2.3196
  170ccc     O5 4812   7.176  11.734   8.678 -0.4513  0.6383  0.3357
  170ccc    H11 4813   7.251  11.718   8.738 -0.4159 -0.8205 -0.0550
  170ccc     O6 4814   7.223  11.749   8.386  0.4784 -0.4284  0.3074
  171ccc     C1 4815   7.792  11.576   8.405 -0.4627  0.2329 -0.1802
  171ccc     C2 4816   7.827  11.611   8.261 -0.2794 -0.6102  0.3353
  171ccc     H1 4817   7.883  11.544   8.457 -0.3039  0.3546 -0.3811
  171ccc     H2 4818   7.902  11.691   8.262  0.5353 -1.3329 -0.7518
  171ccc     C3 4819   7.884  11.497   8.182  0.2058 -0.2289 -0.3090
  171ccc     C4 4820   7.797  11.372   8.201  0.1656  0.3983 -0.9411
  171ccc     C5 4821   7.757  11.344   8.355  0.2683 -0.0634 -0.1083
  171ccc     H3 4822   7.702  11.395   8.151 -0.4011  0.4300  0.1130
  171ccc     H4 4823   7.981  11.471   8.226 -0.9313 -1.6466  1.5103
  171ccc     H5 4824   7.842  11.305   8.412 -1.2867 -1.3212  1.4871
  171ccc     O1 4825   7.649  11.246   8.356 -0.7534 -0.1439  0.4514
  171ccc     O2 4826   7.853  11.251   8.142  0.1836 -0.4210 -0.0000
  171ccc     O3 4827   7.899  11.522   8.039  0.2390  0.1145  0.1219
  171ccc     O4 4828   7.707  11.660   8.202 -0.1277  0.3381  0.2575
  171ccc     C6 4829   7.732  11.688   8.491  0.4913 -0.1586 -0.0701
  171ccc     H6 4830   7.977  11.579   8.030  0.3414 -0.0572 -0.0704
  171ccc     H7 4831   7.652  11.672   8.282 -0.2380 -1.6023  0.5187
  171ccc     H8 4832   7.790  11.178   8.153 -1.5545  0.9097 -0.6176
  171ccc     H9 4833   7.812  11.759   8.516 -0.8171  1.4938 -0.3907
  171ccc    H10 4834   7.701  11.635   8.582 -1.2768  2.7546  1.1528
  171ccc     O5 4835   7.619  11.749   8.428  0.2903 -0.4896 -0.3462
  171ccc    H11 4836   7.604  11.833   8.474  0.7806 -1.1593  1.1193
  171ccc     O6 4837   7.702  11.463   8.417  0.2732  0.9031  0.5392
  172ccc     C1 4838   6.962  12.468   8.773  0.5417 -0.3387  0.3931
  172ccc     C2 4839   6.880  12.529   8.657  0.0625  0.0003 -0.1317
  172ccc     H1 4840   7.061  12.503   8.743 -0.5392  2.0993 -0.6012
  172ccc     H2 4841   6.916  12.633   8.652  2.9396 -0.7070  2.4675
  172ccc     C3 4842   6.913  12.455   8.525  0.9273  0.4550 -0.2696
  172ccc     C4 4843   6.884  12.301   8.551 -0.3216  0.8225 -0.7174
  172ccc     C5 4844   6.966  12.247   8.681  0.1351 -0.5031  0.4646
  172ccc     H3 4845   6.776  12.299   8.571  0.2290  1.1753  3.0482
  172ccc     H4 4846   7.020  12.467   8.507  1.2715  1.6358  2.2190
  172ccc     H5 4847   7.070  12.268   8.653  0.6807 -0.7631  2.2171
  172ccc     O1 4848   6.940  12.107   8.706 -0.1913  0.1004  0.4087
  172ccc     O2 4849   6.918  12.221   8.431 -0.1332  0.0195 -1.3919
  172ccc     O3 4850   6.846  12.501   8.404 -0.2037 -0.1912 -0.0503
  172ccc     O4 4851   6.745  12.522   8.687 -0.0991 -0.3500  0.4379
  172ccc     C6 4852   6.924  12.540   8.900  0.0651 -0.5348 -0.4223
  172ccc     H6 4853   6.879  12.593   8.396  0.1347 -0.2865  0.2179
  172ccc     H7 4854   6.692  12.569   8.620 -1.0742 -0.4873  1.1036
  172ccc     H8 4855   6.833  12.184   8.402 -0.6719 -1.0213  1.1960
  172ccc     H9 4856   6.832  12.500   8.945 -0.3848 -0.1588 -0.9874
  172ccc    H10 4857   6.907  12.646   8.877  0.6585 -0.3243  0.1024
  172ccc     O5 4858   7.039  12.513   8.985  0.0028 -0.1991  0.3912
  172ccc    H11 4859   7.034  12.420   9.012  0.4439 -0.3386 -0.0055
  172ccc     O6 4860   6.932  12.333   8.789  0.1247 -0.3094 -0.0185
  173ccc     C1 4861   6.234  11.845   9.123  0.2804 -0.4604 -0.3503
  173ccc     C2 4862   6.202  11.892   8.977 -0.4831  0.2092  0.4854
  173ccc     H1 4863   6.225  11.937   9.182 -0.2922 -1.7921  1.7222
  173ccc     H2 4864   6.096  11.919   8.971 -0.0372  1.8328 -4.4130
  173ccc     C3 4865   6.302  12.007   8.927 -0.4344  0.1698  0.6758
  173ccc     C4 4866   6.450  11.959   8.951  0.4106 -0.4867  0.4064
  173ccc     C5 4867   6.482  11.898   9.094 -0.1431  0.0236 -0.0375
  173ccc     H3 4868   6.479  11.875   8.886 -0.6272 -1.4386  1.1145
  173ccc     H4 4869   6.277  12.099   8.981 -1.7959  0.0403  0.3035
  173ccc     H5 4870   6.487  11.977   9.170 -0.1699 -0.1439  0.1418
  173ccc     O1 4871   6.597  11.812   9.085 -0.0965  0.3014  0.0067
  173ccc     O2 4872   6.536  12.080   8.934  0.4778 -0.0646 -0.4027
  173ccc     O3 4873   6.288  12.038   8.783 -0.0566 -0.2952  0.3649
  173ccc     O4 4874   6.225  11.772   8.904  0.3529  0.8223  0.8271
  173ccc     C6 4875   6.145  11.735   9.193  1.3405  0.2399 -0.2417
  173ccc     H6 4876   6.192  12.044   8.767 -0.1674 -0.3234  1.0263
  173ccc     H7 4877   6.195  11.716   8.978 -2.7256  0.3945 -0.5579
  173ccc     H8 4878   6.516  12.107   8.842  1.2539  0.7119 -0.3529
  173ccc     H9 4879   6.038  11.761   9.188  0.5080 -2.8019  0.1488
  173ccc    H10 4880   6.159  11.714   9.299 -4.1513 -1.1021  0.5416
  173ccc     O5 4881   6.167  11.621   9.110  0.4973 -0.1615 -0.1737
  173ccc    H11 4882   6.106  11.555   9.146 -0.0532  1.2922  1.7685
  173ccc     O6 4883   6.377  11.807   9.134  0.7493  0.4407 -0.0569
  174ccc     C1 4884   2.022  11.329   7.086 -0.5926  1.5636 -0.3730
  174ccc     C2 4885   2.109  11.295   6.964 -0.1691 -0.1704 -0.1711
  174ccc     H1 4886   2.039  11.436   7.100  2.8217  1.0467  0.1998
  174ccc     H2 4887   2.082  11.356   6.877  1.1417  0.2331 -0.3059
  174ccc     C3 4888   2.257  11.314   6.987  0.0690 -0.3107 -0.6055
  174ccc     C4 4889   2.294  11.245   7.116 -0.2885  0.0626  0.0057
  174ccc     C5 4890   2.203  11.276   7.232 -0.6503 -0.2886  0.3262
  174ccc     H3 4891   2.285  11.139   7.087 -1.4331  0.0981  0.1815
  174ccc     H4 4892   2.277  11.422   6.995 -0.9849 -0.1395 -0.2385
  174ccc     H5 4893   2.225  11.380   7.255 -0.0660 -0.7262  1.8846
  174ccc     O1 4894   2.236  11.202   7.345  0.3453  0.5167 -0.4221
  174ccc     O2 4895   2.435  11.271   7.152  0.2332 -0.0009 -0.7106
  174ccc     O3 4896   2.337  11.251   6.879  0.0578  0.3271 -0.0140
  174ccc     O4 4897   2.084  11.162   6.925  0.3876 -0.0344  0.7053
  174ccc     C6 4898   1.868  11.311   7.075 -0.2204 -0.1577 -0.1187
  174ccc     H6 4899   2.264  11.199   6.843 -1.7565  1.3947  1.8643
  174ccc     H7 4900   1.996  11.149   6.965  0.8070  0.7326  1.9479
  174ccc     H8 4901   2.437  11.368   7.159 -2.8673  0.1825 -0.9788
  174ccc     H9 4902   1.818  11.374   7.000 -0.4742  0.0748  0.2436
  174ccc    H10 4903   1.823  11.331   7.173  0.7394 -0.8381  0.4794
  174ccc     O5 4904   1.846  11.170   7.051 -0.3408 -0.1640  0.0414
  174ccc    H11 4905   1.856  11.126   7.137  0.7850  0.4629  0.2430
  174ccc     O6 4906   2.069  11.251   7.203  0.7526 -0.2714  0.0754
  175ccc     C1 4907   1.839  10.842   8.061 -0.1949  0.4047 -0.6480
  175ccc     C2 4908   1.842  10.702   8.123  0.3680 -0.3438 -0.4439
  175ccc     H1 4909   1.796  10.840   7.960  0.8958  0.7393 -1.1307
  175ccc     H2 4910   1.740  10.662   8.115  0.5131 -0.8965  0.3238
  175ccc     C3 4911   1.936  10.604   8.039 -0.2737 -0.2965  0.5470
  175ccc     C4 4912   2.073  10.666   8.027 -0.6451 -0.1123 -0.8016
  175ccc     C5 4913   2.066  10.807   7.976 -0.2005 -0.2951  0.2466
  175ccc     H3 4914   2.116  10.665   8.129  2.6496 -0.9881 -2.0583
  175ccc     H4 4915   1.887  10.601   7.942  1.4891  0.8936 -0.4476
  175ccc     H5 4916   2.033  10.809   7.872  0.7003  2.3221 -0.0749
  175ccc     O1 4917   2.202  10.863   7.988  0.2438  0.2742 -0.6227
  175ccc     O2 4918   2.155  10.587   7.948 -0.3370  0.3438  0.8132
  175ccc     O3 4919   1.943  10.473   8.094  0.0091 -0.0314  0.1799
  175ccc     O4 4920   1.889  10.701   8.262  0.1329 -0.0590 -0.3461
  175ccc     C6 4921   1.736  10.930   8.145 -0.3313  0.8266 -0.6221
  175ccc     H6 4922   1.900  10.477   8.182 -0.3652  0.3952 -0.0199
  175ccc     H7 4923   1.843  10.783   8.286  3.0004  1.4989  0.3466
  175ccc     H8 4924   2.146  10.504   7.997 -0.5258  0.4973  1.0366
  175ccc     H9 4925   1.646  10.868   8.134 -0.2961  0.3288  1.5918
  175ccc    H10 4926   1.713  11.024   8.093 -3.1238  0.3715 -0.3683
  175ccc     O5 4927   1.788  10.928   8.284  0.2730  0.0623  0.0031
  175ccc    H11 4928   1.716  10.957   8.343  0.5794 -1.1808  1.0429
  175ccc     O6 4929   1.979  10.889   8.056  0.2371  0.1506 -0.0644
  176ccc     C1 4930   3.222  13.147   8.107  0.2288  0.6400  0.2720
  176ccc     C2 4931   3.337  13.168   8.012  0.6679 -0.2142 -0.2528
  176ccc     H1 4932   3.258  13.128   8.208  0.9865 -1.3170 -0.3166
  176ccc     H2 4933   3.391  13.257   8.044 -0.9953  0.1706  1.7215
  176ccc     C3 4934   3.443  13.053   8.016  0.3276 -0.2322  0.0951
  176ccc     C4 4935   3.375  12.918   7.997  0.5907 -0.2383  0.4521
  176ccc     C5 4936   3.241  12.901   8.080 -0.0414 -0.2537  0.0540
  176ccc     H3 4937   3.347  12.928   7.891 -0.0680 -0.4262  0.6045
  176ccc     H4 4938   3.484  13.039   8.116 -0.6286 -0.3453  0.4800
  176ccc     H5 4939   3.266  12.884   8.185 -1.3821 -0.1388  0.4170
  176ccc     O1 4940   3.145  12.793   8.040 -0.2094  0.0349  0.1080
  176ccc     O2 4941   3.475  12.821   8.032  0.4938 -0.0041 -0.0251
  176ccc     O3 4942   3.543  13.070   7.918  0.3942 -0.1823  0.9692
  176ccc     O4 4943   3.294  13.182   7.876 -0.3593 -0.5553 -0.3189
  176ccc     C6 4944   3.129  13.267   8.084 -0.1480 -0.0741  0.1611
  176ccc     H6 4945   3.627  13.031   7.947  0.5190  0.1277  1.0235
  176ccc     H7 4946   3.214  13.128   7.864  0.1883 -1.9356  1.7314
  176ccc     H8 4947   3.560  12.835   7.986 -0.3471  1.5419 -1.1803
  176ccc     H9 4948   3.080  13.268   7.986  1.7064 -0.1705 -0.8100
  176ccc    H10 4949   3.174  13.367   8.084 -3.0660  1.3465 -1.2907
  176ccc     O5 4950   3.024  13.280   8.179 -0.1092 -0.2978 -0.1852
  176ccc    H11 4951   2.963  13.209   8.153 -0.2599 -0.0868 -0.4117
  176ccc     O6 4952   3.157  13.032   8.062 -0.0421 -0.4194  0.5112
  177ccc     C1 4953   2.194  12.820   8.063 -0.0897  0.7718  0.4995
  177ccc     C2 4954   2.078  12.733   8.113  0.4673  0.3505  1.2305
  177ccc     H1 4955   2.151  12.885   7.985  1.1021 -0.5382 -1.3056
  177ccc     H2 4956   1.990  12.795   8.135  0.9319  1.8103 -0.7646
  177ccc     C3 4957   2.052  12.627   7.997  0.1210 -0.2303 -0.2727
  177ccc     C4 4958   2.184  12.554   7.946  0.1730 -0.5221  0.1632
  177ccc     C5 4959   2.286  12.659   7.897  0.1089  0.5397  0.3593
  177ccc     H3 4960   2.241  12.508   8.028 -0.6269 -0.0863  0.9864
  177ccc     H4 4961   2.029  12.690   7.910 -0.9965  0.1374  0.2717
  177ccc     H5 4962   2.244  12.722   7.818  0.7215  0.4197 -0.0682
  177ccc     O1 4963   2.417  12.604   7.850  0.0915 -0.6324  0.3970
  177ccc     O2 4964   2.134  12.456   7.858  0.2658  0.4803 -0.3929
  177ccc     O3 4965   1.940  12.542   8.025  0.0487  0.2444  0.2012
  177ccc     O4 4966   2.122  12.660   8.228  0.4262 -0.1174 -0.0464
  177ccc     C6 4967   2.241  12.919   8.171  0.1466 -0.3173 -0.2120
  177ccc     H6 4968   1.875  12.595   8.073  1.2212 -0.0632  2.2747
  177ccc     H7 4969   2.042  12.640   8.280 -0.0678  1.8749  0.0773
  177ccc     H8 4970   2.048  12.432   7.897  0.4855  0.5342  0.1329
  177ccc     H9 4971   2.296  12.870   8.252 -0.5191 -0.4662  0.1631
  177ccc    H10 4972   2.155  12.975   8.209  1.0420  0.5617  0.5694
  177ccc     O5 4973   2.316  13.023   8.104 -0.3342 -0.4810 -0.5963
  177ccc    H11 4974   2.253  13.076   8.052  0.8285 -0.5519 -2.1896
  177ccc     O6 4975   2.311  12.747   8.008  0.2637  0.3092  0.2764
  178ccc     C1 4976   5.011  12.564   7.513 -0.5727 -0.2855 -0.7070
  178ccc     C2 4977   4.897  12.563   7.404  0.2841 -0.0300 -0.2035
  178ccc     H1 4978   5.110  12.542   7.473 -0.2554  1.3614 -0.9301
  178ccc     H2 4979   4.921  12.641   7.331 -1.8087  0.0145 -0.8852
  178ccc     C3 4980   4.896  12.426   7.329  1.1206  0.0556 -0.1773
  178ccc     C4 4981   4.874  12.314   7.430  0.5795 -0.0010 -0.1225
  178ccc     C5 4982   4.961  12.328   7.560  0.8096  0.2938 -0.1320
  178ccc     H3 4983   4.770  12.337   7.455  0.2908 -0.3975 -0.9239
  178ccc     H4 4984   4.991  12.399   7.281  0.5291  0.1909 -1.4424
  178ccc     H5 4985   5.059  12.282   7.544  0.2464 -0.6225 -1.1523
  178ccc     O1 4986   4.896  12.246   7.663 -0.1584 -0.1923  0.1839
  178ccc     O2 4987   4.884  12.190   7.360 -0.2011  0.3177 -0.1378
  178ccc     O3 4988   4.792  12.416   7.228 -0.2155 -0.3122 -0.3980
  178ccc     O4 4989   4.774  12.585   7.474  0.1015 -0.2280 -0.5661
  178ccc     C6 4990   5.014  12.702   7.585 -0.1845 -0.5562  0.6589
  178ccc     H6 4991   4.781  12.320   7.218 -1.5156 -0.2274 -0.0009
  178ccc     H7 4992   4.808  12.609   7.562 -1.5583 -2.6525  0.8851
  178ccc     H8 4993   4.876  12.117   7.425 -0.1331  0.0104 -0.4698
  178ccc     H9 4994   5.026  12.778   7.506 -0.9626  0.5873  1.5988
  178ccc    H10 4995   5.109  12.704   7.640  0.4210  1.3752 -0.3800
  178ccc     O5 4996   4.896  12.705   7.662  0.2635  0.2898  0.4244
  178ccc    H11 4997   4.925  12.659   7.743 -1.4163 -2.4024 -0.3444
  178ccc     O6 4998   4.976  12.460   7.606 -0.0210 -0.7663  0.5858
  179ccc     C1 4999   4.315  12.984   7.941  0.1313  0.0320  0.5454
  179ccc     C2 5000   4.202  13.014   7.842 -0.3263  0.0061  0.0376
  179ccc     H1 5001   4.383  13.068   7.926 -1.1396  0.9084 -0.5008
  179ccc     H2 5002   4.156  13.111   7.862 -1.2340 -0.3293 -0.3653
  179ccc     C3 5003   4.264  13.003   7.696 -0.4449 -0.3121 -0.1974
  179ccc     C4 5004   4.354  12.872   7.671 -0.2906 -0.3196  0.1079
  179ccc     C5 5005   4.453  12.850   7.790  0.3324  0.9920  0.2605
  179ccc     H3 5006   4.283  12.789   7.664 -0.2414 -0.2704 -1.1199
  179ccc     H4 5007   4.346  13.077   7.692 -1.4343  0.8122 -0.1257
  179ccc     H5 5008   4.534  12.924   7.789 -1.1283  2.6283 -0.4905
  179ccc     O1 5009   4.520  12.718   7.761 -0.6166  0.0868 -0.2795
  179ccc     O2 5010   4.418  12.900   7.547 -0.1547 -0.1971  0.5316
  179ccc     O3 5011   4.165  13.014   7.589 -0.1909  0.3949 -0.1751
  179ccc     O4 5012   4.101  12.909   7.851  0.4069  0.5034 -0.1716
  179ccc     C6 5013   4.281  12.980   8.091 -0.4319  0.0963 -0.3615
  179ccc     H6 5014   4.107  12.937   7.603 -1.0009  0.7872 -1.1828
  179ccc     H7 5015   4.028  12.934   7.791 -1.6893 -3.0293  0.6550
  179ccc     H8 5016   4.466  12.818   7.525  0.1922  0.1640 -0.0765
  179ccc     H9 5017   4.262  13.077   8.137 -2.2262 -0.5821  0.4103
  179ccc    H10 5018   4.371  12.930   8.128  1.3768  1.9430 -1.9724
  179ccc     O5 5019   4.169  12.898   8.103 -0.0720  0.2573  0.4406
  179ccc    H11 5020   4.145  12.887   8.009  1.1256 -0.8186  0.2390
  179ccc     O6 5021   4.386  12.853   7.917  0.0873 -0.2022  0.2761
  180ccc     C1 5022   3.813  12.734   7.488  0.3337  0.4502  0.7971
  180ccc     C2 5023   3.887  12.847   7.564 -0.0580 -0.0158 -0.5530
  180ccc     H1 5024   3.712  12.770   7.464  0.1311 -2.2536 -3.4151
  180ccc     H2 5025   3.885  12.942   7.509 -1.4055  0.6830  0.6412
  180ccc     C3 5026   3.808  12.883   7.693  0.0445  0.4604  0.5741
  180ccc     C4 5027   3.794  12.748   7.778 -0.3198 -0.1256  0.2297
  180ccc     C5 5028   3.731  12.632   7.698  0.5943  0.3977  0.4667
  180ccc     H3 5029   3.898  12.722   7.802 -0.9797 -2.0351  1.2471
  180ccc     H4 5030   3.705  12.911   7.668 -0.5639 -1.8702  0.2397
  180ccc     H5 5031   3.624  12.652   7.685  0.2554  1.6384  3.9486
  180ccc     O1 5032   3.752  12.505   7.761 -0.6654  0.2533 -0.1061
  180ccc     O2 5033   3.718  12.770   7.896  0.5214 -0.1672  0.2578
  180ccc     O3 5034   3.874  12.993   7.752 -0.6521 -0.1780 -0.2704
  180ccc     O4 5035   4.019  12.803   7.587 -0.8216 -0.2869 -0.5232
  180ccc     C6 5036   3.871  12.678   7.353  0.9274 -0.1466 -0.4952
  180ccc     H6 5037   3.834  13.005   7.840 -1.4657 -1.3782 -0.4429
  180ccc     H7 5038   4.016  12.738   7.515 -2.3830 -0.8136 -0.0395
  180ccc     H8 5039   3.722  12.692   7.954 -1.7029 -0.5657 -0.0184
  180ccc     H9 5040   3.849  12.755   7.277  2.5481  0.7366 -0.1130
  180ccc    H10 5041   3.831  12.582   7.319 -0.5498 -0.0840  0.9022
  180ccc     O5 5042   4.012  12.665   7.375 -0.3706  0.1554  0.0873
  180ccc    H11 5043   4.041  12.620   7.294 -1.7017  1.2898 -1.0495
  180ccc     O6 5044   3.796  12.612   7.570  0.2058  0.1627 -0.7691
  181ccc     C1 5045   4.277  12.614   7.163 -0.0148 -0.2757 -0.5047
  181ccc     C2 5046   4.418  12.598   7.116  0.0353  0.8666  0.9244
  181ccc     H1 5047   4.260  12.721   7.180  1.0678 -0.4566  2.3291
  181ccc     H2 5048   4.429  12.650   7.020 -2.2914 -1.5004 -0.7600
  181ccc     C3 5049   4.512  12.662   7.218 -0.3505  0.0803 -0.0033
  181ccc     C4 5050   4.484  12.614   7.367  0.0749  0.0481 -0.5171
  181ccc     C5 5051   4.336  12.600   7.401  0.3575  0.4059 -0.8654
  181ccc     H3 5052   4.533  12.516   7.373  0.1835  0.1839  1.3576
  181ccc     H4 5053   4.493  12.769   7.222  1.0161  0.4067 -1.2407
  181ccc     H5 5054   4.284  12.692   7.429  2.5032  0.7406  2.6572
  181ccc     O1 5055   4.324  12.511   7.517  0.8382  0.6287 -0.3539
  181ccc     O2 5056   4.549  12.698   7.467 -0.0387  0.2211 -0.3079
  181ccc     O3 5057   4.655  12.653   7.191  0.0830 -0.1564 -0.0971
  181ccc     O4 5058   4.450  12.456   7.096  0.5469 -0.2379  0.5252
  181ccc     C6 5059   4.180  12.568   7.056  0.3482  0.7813  0.5835
  181ccc     H6 5060   4.681  12.560   7.202  0.0706 -0.0432  1.0535
  181ccc     H7 5061   4.535  12.462   7.048  0.8199  1.4877  1.1333
  181ccc     H8 5062   4.639  12.662   7.469 -0.0768  0.1370 -0.0477
  181ccc     H9 5063   4.205  12.470   7.014 -0.8504  0.5589  0.3468
  181ccc    H10 5064   4.184  12.643   6.977 -0.4405  0.7359  0.4945
  181ccc     O5 5065   4.053  12.564   7.113 -0.5809  0.8561 -0.3787
  181ccc    H11 5066   4.033  12.469   7.126  1.7913  0.2715 -0.6331
  181ccc     O6 5067   4.268  12.545   7.289 -0.1884 -0.5053 -0.4223
  182ccc     C1 5068   1.956   9.759   7.143 -0.7986  0.1120  0.6233
  182ccc     C2 5069   2.063   9.643   7.111  0.3167  0.3850  0.1979
  182ccc     H1 5070   1.887   9.764   7.058 -1.3879 -0.1914  1.0759
  182ccc     H2 5071   2.017   9.551   7.073  0.7088 -0.9763  2.7769
  182ccc     C3 5072   2.167   9.685   6.999  0.7937 -0.0301  0.5663
  182ccc     C4 5073   2.231   9.819   7.042 -0.0321 -0.1467  0.0879
  182ccc     C5 5074   2.122   9.930   7.068 -0.3204  0.7566 -0.1571
  182ccc     H3 5075   2.287   9.801   7.134 -0.6598  1.9382  0.9478
  182ccc     H4 5076   2.113   9.718   6.909  1.0559  0.5308  0.6126
  182ccc     H5 5077   2.069   9.958   6.976 -1.2323  1.6259  0.6052
  182ccc     O1 5078   2.199  10.041   7.126  0.2952 -0.0070  0.0477
  182ccc     O2 5079   2.309   9.877   6.936 -0.9258  0.0156 -0.1432
  182ccc     O3 5080   2.258   9.584   6.957  0.2416  0.0381  0.2039
  182ccc     O4 5081   2.135   9.617   7.231  0.8216 -0.1076  0.1827
  182ccc     C6 5082   1.862   9.739   7.258 -0.3971  0.1567  0.4181
  182ccc     H6 5083   2.230   9.545   6.872  1.3021 -0.4757  0.0754
  182ccc     H7 5084   2.060   9.636   7.291  0.0009 -2.5360  0.0338
  182ccc     H8 5085   2.391   9.826   6.928 -0.3669  0.6353  1.4221
  182ccc     H9 5086   1.771   9.680   7.241 -0.1683 -0.6758  1.9673
  182ccc    H10 5087   1.816   9.837   7.274 -2.5602 -0.8498  0.8539
  182ccc     O5 5088   1.937   9.688   7.369 -0.1735  0.0360  0.3152
  182ccc    H11 5089   1.890   9.724   7.447  0.5506 -0.3813  0.9648
  182ccc     O6 5090   2.028   9.882   7.167  0.2556  0.6917 -0.2371
  183ccc     C1 5091   1.846  10.235   6.607  0.4654  0.1756  0.6294
  183ccc     C2 5092   1.786  10.370   6.641  0.1331 -0.3085 -0.0505
  183ccc     H1 5093   1.786  10.168   6.670 -0.2704  1.6254  1.5076
  183ccc     H2 5094   1.679  10.388   6.624 -0.2606  0.9524  3.0693
  183ccc     C3 5095   1.814  10.408   6.792 -0.2713  0.1338 -0.4965
  183ccc     C4 5096   1.968  10.402   6.822  0.5509  0.0263 -0.7661
  183ccc     C5 5097   2.004  10.254   6.793 -0.0280  0.0459 -0.2496
  183ccc     H3 5098   2.027  10.468   6.758  0.5124  1.1053  0.2698
  183ccc     H4 5099   1.755  10.337   6.851  0.5606 -1.9853 -2.0930
  183ccc     H5 5100   1.937  10.185   6.845  2.3139 -0.3830  2.3866
  183ccc     O1 5101   2.142  10.232   6.826 -0.0165 -0.0198 -0.0107
  183ccc     O2 5102   2.004  10.435   6.962  0.0612 -0.0051  0.5066
  183ccc     O3 5103   1.761  10.541   6.827 -0.4990  0.2062 -0.1160
  183ccc     O4 5104   1.863  10.460   6.560 -0.1391 -0.0579 -0.0885
  183ccc     C6 5105   1.835  10.182   6.461  0.3092  0.8745 -0.7436
  183ccc     H6 5106   1.824  10.600   6.782  1.5362 -1.1353  0.8286
  183ccc     H7 5107   1.802  10.535   6.560  1.4686  1.3180 -1.1137
  183ccc     H8 5108   1.933  10.392   7.014 -2.1754 -0.2405 -2.4679
  183ccc     H9 5109   1.730  10.199   6.436 -0.7228 -0.4647  2.2506
  183ccc    H10 5110   1.881  10.083   6.451  1.5549  1.2729  0.5847
  183ccc     O5 5111   1.915  10.265   6.385 -0.2372 -0.1438 -0.0974
  183ccc    H11 5112   1.914  10.346   6.439  0.6035  0.4811 -0.9956
  183ccc     O6 5113   1.986  10.232   6.654 -0.0130  0.4646 -0.0368
  184ccc     C1 5114   2.289   9.920   7.633  0.0837  0.3661 -0.1057
  184ccc     C2 5115   2.337   9.861   7.497  0.3079  0.2403 -0.4500
  184ccc     H1 5116   2.200   9.983   7.618  0.3664  0.8745  0.3232
  184ccc     H2 5117   2.255   9.807   7.448  0.0205 -1.0209  1.3042
  184ccc     C3 5118   2.389   9.968   7.403 -0.0360 -0.7552  0.3643
  184ccc     C4 5119   2.497  10.065   7.465  0.5646  0.4790 -0.4638
  184ccc     C5 5120   2.436  10.123   7.597  0.3706 -0.3846  1.0935
  184ccc     H3 5121   2.586  10.005   7.487  0.2722  0.7955  1.8368
  184ccc     H4 5122   2.304  10.033   7.380 -0.0049  0.2835  2.8587
  184ccc     H5 5123   2.351  10.186   7.571 -0.5946 -1.4054  1.6441
  184ccc     O1 5124   2.531  10.205   7.669 -0.5443 -0.1421  0.0175
  184ccc     O2 5125   2.534  10.162   7.367  0.3062 -0.3320  0.5467
  184ccc     O3 5126   2.436   9.904   7.285 -0.3376 -0.0236 -0.2729
  184ccc     O4 5127   2.446   9.774   7.524  0.4745 -0.1951 -0.3591
  184ccc     C6 5128   2.263   9.816   7.745  0.6787 -0.1204  1.1249
  184ccc     H6 5129   2.452   9.971   7.216 -0.3584  1.6821  1.2938
  184ccc     H7 5130   2.407   9.696   7.480 -3.1042  0.4600  1.2585
  184ccc     H8 5131   2.587  10.122   7.295 -0.7880  1.4262 -1.3643
  184ccc     H9 5132   2.354   9.790   7.801  0.7456 -0.8962  0.6788
  184ccc    H10 5133   2.227   9.723   7.698 -1.7866  0.4959  1.6742
  184ccc     O5 5134   2.161   9.880   7.817  0.4734  0.5088 -0.7335
  184ccc    H11 5135   2.201   9.959   7.857 -3.3993  2.0991  0.5010
  184ccc     O6 5136   2.390  10.015   7.678  0.2153  0.4429 -0.4845
  185ccc     C1 5137   3.020   9.753   7.381 -0.7230  0.5451  0.4164
  185ccc     C2 5138   2.925   9.635   7.384 -0.1255 -0.0814 -0.0475
  185ccc     H1 5139   3.078   9.740   7.473 -1.5997 -0.5963  0.8384
  185ccc     H2 5140   2.992   9.548   7.394 -1.6148 -1.5464 -2.0619
  185ccc     C3 5141   2.812   9.644   7.489 -0.2229 -0.3249 -0.2970
  185ccc     C4 5142   2.762   9.795   7.516 -0.3462 -0.3217  0.1532
  185ccc     C5 5143   2.886   9.894   7.520  0.8781  0.9714 -0.0181
  185ccc     H3 5144   2.700   9.824   7.430  2.0749 -0.5080 -1.7586
  185ccc     H4 5145   2.856   9.605   7.582 -0.3536 -1.0379 -0.5246
  185ccc     H5 5146   2.946   9.867   7.608 -0.6052 -1.4457  0.3303
  185ccc     O1 5147   2.843  10.030   7.524  0.3441  0.1462  0.4360
  185ccc     O2 5148   2.684   9.805   7.641  0.5611  0.1367  0.1655
  185ccc     O3 5149   2.691   9.565   7.466  0.1479 -0.2370 -1.2485
  185ccc     O4 5150   2.865   9.635   7.255  0.5782 -0.0754  0.2507
  185ccc     C6 5151   3.126   9.746   7.265  0.7746 -0.5925 -0.4225
  185ccc     H6 5152   2.646   9.614   7.395  1.0021  2.3941 -0.1143
  185ccc     H7 5153   2.923   9.689   7.199  0.8890 -0.6626 -0.0042
  185ccc     H8 5154   2.594   9.795   7.605  0.7725  1.8484 -0.9699
  185ccc     H9 5155   3.183   9.652   7.259  0.6517 -0.8577  1.7302
  185ccc    H10 5156   3.187   9.834   7.289 -0.0991  0.2371 -1.1649
  185ccc     O5 5157   3.063   9.769   7.138 -0.2564 -0.8722 -0.1086
  185ccc    H11 5158   3.030   9.860   7.145 -0.0016 -0.8502  1.0712
  185ccc     O6 5159   2.957   9.881   7.392  0.0479  0.5457 -0.4780
  186ccc     C1 5160   2.698  11.348   5.747 -0.3673  0.6132 -0.9985
  186ccc     C2 5161   2.627  11.469   5.806  0.5364 -0.8129 -0.0944
  186ccc     H1 5162   2.717  11.285   5.834 -1.2267  0.7045 -0.7442
  186ccc     H2 5163   2.538  11.443   5.863  0.3080  2.3188  1.1308
  186ccc     C3 5164   2.733  11.548   5.894 -0.1104  0.2469  0.0593
  186ccc     C4 5165   2.866  11.580   5.819 -0.3640 -0.0720  0.0423
  186ccc     C5 5166   2.924  11.445   5.769 -0.1591  0.1743  0.5222
  186ccc     H3 5167   2.840  11.643   5.733 -1.0656 -0.4908 -0.0603
  186ccc     H4 5168   2.754  11.478   5.975 -2.0872 -0.9524 -0.3879
  186ccc     H5 5169   2.942  11.376   5.851  1.4178 -0.3641 -0.2476
  186ccc     O1 5170   3.055  11.455   5.718  0.1471 -0.1328 -0.1183
  186ccc     O2 5171   2.947  11.655   5.907 -0.5591  0.1340 -0.3091
  186ccc     O3 5172   2.671  11.670   5.947  0.5867 -0.0176 -0.3328
  186ccc     O4 5173   2.584  11.549   5.689  0.2410 -0.8480 -0.1057
  186ccc     C6 5174   2.610  11.264   5.655 -0.7548 -0.0550  0.1141
  186ccc     H6 5175   2.580  11.643   5.969  0.7201  1.0475  1.8726
  186ccc     H7 5176   2.492  11.520   5.674 -0.3599 -0.1082  1.8885
  186ccc     H8 5177   3.028  11.678   5.859 -0.5031  0.8866  0.1359
  186ccc     H9 5178   2.610  11.307   5.554  1.3784 -0.1865  0.0046
  186ccc    H10 5179   2.512  11.268   5.703 -0.3975 -0.7375  0.9414
  186ccc     O5 5180   2.661  11.133   5.638 -0.3402 -0.2456 -0.2701
  186ccc    H11 5181   2.639  11.081   5.718 -0.3972 -0.2205 -0.2693
  186ccc     O6 5182   2.826  11.380   5.689 -0.0145 -0.5711  0.6771
  187ccc     C1 5183   3.440  11.047   5.064 -0.1685  0.0812 -0.2278
  187ccc     C2 5184   3.294  11.086   5.032  0.7356  0.1938  0.1219
  187ccc     H1 5185   3.442  10.937   5.067 -0.7720  0.0764  2.3246
  187ccc     H2 5186   3.253  11.037   4.942  0.7241  0.6863 -0.1416
  187ccc     C3 5187   3.197  11.048   5.147 -0.9019  0.3623 -0.1195
  187ccc     C4 5188   3.257  11.106   5.278  0.6119  0.4592  0.1068
  187ccc     C5 5189   3.400  11.062   5.306 -0.0120 -0.0896 -0.3687
  187ccc     H3 5190   3.275  11.211   5.253  0.7096  0.8472  1.6985
  187ccc     H4 5191   3.211  10.940   5.162 -3.3928  0.1491  1.2601
  187ccc     H5 5192   3.412  10.958   5.338 -0.5889 -0.0286  0.0531
  187ccc     O1 5193   3.449  11.139   5.419  0.5512 -0.2574  0.8328
  187ccc     O2 5194   3.167  11.080   5.393  0.2107 -0.1557  0.2415
  187ccc     O3 5195   3.061  11.082   5.121 -0.0314  0.2923  0.5796
  187ccc     O4 5196   3.302  11.229   5.004  0.4906  0.5883 -0.0280
  187ccc     C6 5197   3.543  11.088   4.957 -0.1078 -0.1359 -0.2988
  187ccc     H6 5198   3.036  11.036   5.039  0.4513  0.2547  0.4473
  187ccc     H7 5199   3.210  11.256   4.988 -0.1134 -2.0792 -1.8022
  187ccc     H8 5200   3.081  11.125   5.380 -0.2402 -0.7321  1.1045
  187ccc     H9 5201   3.527  11.193   4.932  1.5957  0.4000  0.6811
  187ccc    H10 5202   3.529  11.040   4.860  2.6996 -0.9329 -0.3964
  187ccc     O5 5203   3.675  11.059   5.012 -0.3396 -0.1553 -0.1463
  187ccc    H11 5204   3.676  11.111   5.095  2.1469  0.1798 -0.3089
  187ccc     O6 5205   3.488  11.086   5.193  0.6759  0.9060  0.5533
  188ccc     C1 5206   2.890  10.235   5.817 -0.1318  0.4778  0.3210
  188ccc     C2 5207   2.746  10.287   5.845  0.8634  0.0916 -0.1469
  188ccc     H1 5208   2.892  10.140   5.872  0.1051  0.8748  1.0061
  188ccc     H2 5209   2.673  10.216   5.804 -3.3906  3.3462  0.9875
  188ccc     C3 5210   2.716  10.296   5.999  0.9567  0.3119 -0.4728
  188ccc     C4 5211   2.836  10.382   6.062  0.3010  0.0704 -0.2672
  188ccc     C5 5212   2.969  10.329   6.019 -0.8231  0.3421 -0.0013
  188ccc     H3 5213   2.825  10.484   6.025 -1.4649 -0.8282 -2.5340
  188ccc     H4 5214   2.723  10.197   6.044 -2.7951  1.4535  3.2860
  188ccc     H5 5215   2.974  10.229   6.062 -2.8429 -0.9446 -2.4644
  188ccc     O1 5216   3.071  10.411   6.069  0.3459 -0.3070  0.3835
  188ccc     O2 5217   2.822  10.369   6.211 -0.3789 -0.3309  0.3731
  188ccc     O3 5218   2.593  10.356   6.030  0.3134  0.2017 -0.2327
  188ccc     O4 5219   2.733  10.413   5.781  0.5757 -0.2878  0.1367
  188ccc     C6 5220   2.912  10.207   5.674  0.2794 -0.4517  0.2558
  188ccc     H6 5221   2.526  10.316   5.971 -0.1148  1.1610 -0.4334
  188ccc     H7 5222   2.781  10.395   5.698 -0.1672  0.1466 -0.3986
  188ccc     H8 5223   2.735  10.400   6.239  0.0958 -0.0084  1.5628
  188ccc     H9 5224   2.845  10.127   5.642  0.5063 -0.3479 -0.4935
  188ccc    H10 5225   3.013  10.165   5.672  0.1140 -0.8170 -0.5358
  188ccc     O5 5226   2.902  10.325   5.593 -0.2808 -0.2868  0.0243
  188ccc    H11 5227   2.987  10.371   5.606 -0.1631 -0.7299  0.8831
  188ccc     O6 5228   2.989  10.310   5.877 -0.0053  0.3338 -0.1190
  189ccc     C1 5229   3.099  11.378   6.423 -0.7031  0.0366  0.3797
  189ccc     C2 5230   3.013  11.377   6.554 -0.0332  0.2323  0.1430
  189ccc     H1 5231   3.031  11.423   6.350  0.8960 -0.1450 -1.2876
  189ccc     H2 5232   2.982  11.480   6.578  1.3154  0.2929  1.8365
  189ccc     C3 5233   2.882  11.290   6.533 -0.4227 -0.2062  0.0205
  189ccc     C4 5234   2.923  11.146   6.490  1.1841 -0.5603  0.6609
  189ccc     C5 5235   3.017  11.156   6.367 -0.8397  0.1570  0.4867
  189ccc     H3 5236   2.979  11.098   6.571  0.0741 -1.3186  1.0120
  189ccc     H4 5237   2.829  11.335   6.448  0.3943 -1.9912 -1.5093
  189ccc     H5 5238   2.977  11.200   6.275 -1.0646 -2.0894 -0.5691
  189ccc     O1 5239   3.061  11.022   6.328  0.1228 -0.3850 -0.3294
  189ccc     O2 5240   2.799  11.074   6.451  0.1350 -0.4837  0.0002
  189ccc     O3 5241   2.798  11.283   6.649 -0.2894  0.1333  0.0911
  189ccc     O4 5242   3.097  11.329   6.653 -1.0143 -0.2296  0.3330
  189ccc     C6 5243   3.219  11.478   6.416  0.3375  0.5151 -0.3132
  189ccc     H6 5244   2.849  11.302   6.730 -2.4938 -0.0840  1.6067
  189ccc     H7 5245   3.177  11.368   6.614  0.0809 -0.7136  1.9967
  189ccc     H8 5246   2.747  11.076   6.533  0.8624 -1.3640  0.5121
  189ccc     H9 5247   3.172  11.576   6.400 -1.7355 -0.2964  0.4563
  189ccc    H10 5248   3.283  11.459   6.329  0.0649 -0.3323 -0.3367
  189ccc     O5 5249   3.293  11.461   6.539  0.4314 -0.6029  0.5287
  189ccc    H11 5250   3.363  11.528   6.542  1.5067 -1.6511 -0.0487
  189ccc     O6 5251   3.131  11.243   6.386  0.3544 -0.5075  0.4323
  190ccc     C1 5252   4.993   6.592   4.283 -0.5139 -0.0011 -0.2252
  190ccc     C2 5253   4.889   6.629   4.386 -0.3353  0.9501 -0.3029
  190ccc     H1 5254   4.990   6.483   4.274  0.7911 -0.1763  1.0124
  190ccc     H2 5255   4.800   6.572   4.355  0.9672 -1.3262 -0.0623
  190ccc     C3 5256   4.931   6.582   4.527 -0.1341 -0.2681 -0.6599
  190ccc     C4 5257   5.076   6.621   4.565  0.0986  0.1760  0.3679
  190ccc     C5 5258   5.171   6.573   4.453  0.0729  0.3387  0.1071
  190ccc     H3 5259   5.081   6.730   4.573  1.3269  0.1225  0.7081
  190ccc     H4 5260   4.929   6.473   4.539 -1.0433 -0.0773  1.2803
  190ccc     H5 5261   5.168   6.464   4.446 -1.0275  0.2944  0.9768
  190ccc     O1 5262   5.307   6.627   4.472  0.2380 -0.2203 -0.2242
  190ccc     O2 5263   5.118   6.563   4.686  0.6773  0.5172  0.0253
  190ccc     O3 5264   4.832   6.644   4.617 -0.3935 -0.2827  0.0255
  190ccc     O4 5265   4.875   6.769   4.389  0.4907 -0.0242 -0.1074
  190ccc     C6 5266   4.959   6.643   4.145  0.6135 -0.1356 -0.0198
  190ccc     H6 5267   4.824   6.586   4.695 -1.4008 -2.3972 -1.5340
  190ccc     H7 5268   4.857   6.788   4.483 -0.5178 -0.4926 -0.1899
  190ccc     H8 5269   5.117   6.636   4.750 -1.5924 -0.9553  1.8374
  190ccc     H9 5270   4.966   6.752   4.143  0.4902 -0.1141 -2.6279
  190ccc    H10 5271   4.852   6.620   4.136  1.1071 -2.6229 -0.5122
  190ccc     O5 5272   5.053   6.575   4.061 -0.3498 -0.1026 -0.6422
  190ccc    H11 5273   5.070   6.634   3.986 -0.1189 -1.2021 -1.4817
  190ccc     O6 5274   5.125   6.625   4.328  0.3451 -0.1151  0.4224
  191ccc     C1 5275   6.084   6.361   5.179  0.6403  0.1516 -0.5581
  191ccc     C2 5276   6.032   6.358   5.320  0.2412 -0.2540  0.0571
  191ccc     H1 5277   6.191   6.387   5.187  0.4960  0.9725 -1.1886
  191ccc     H2 5278   6.109   6.310   5.381  0.3351 -1.0114 -0.6411
  191ccc     C3 5279   6.026   6.512   5.371 -1.1289 -0.5654 -0.1358
  191ccc     C4 5280   5.939   6.603   5.275  0.2277  0.8737 -0.5733
  191ccc     C5 5281   5.980   6.585   5.129  0.0566  0.1601  0.0303
  191ccc     H3 5282   5.839   6.558   5.276  0.4864  0.2496 -1.2468
  191ccc     H4 5283   6.128   6.552   5.376 -0.5325 -2.1940  2.0559
  191ccc     H5 5284   6.075   6.640   5.121  0.3170 -0.2665  0.1732
  191ccc     O1 5285   5.881   6.657   5.046 -0.7719  0.4556 -0.7470
  191ccc     O2 5286   5.935   6.734   5.325 -0.5875 -0.4685  0.0429
  191ccc     O3 5287   5.984   6.512   5.505  0.0274 -0.0463 -0.6702
  191ccc     O4 5288   5.902   6.296   5.324 -0.3845  0.0468 -0.4346
  191ccc     C6 5289   6.074   6.220   5.119 -0.5931  0.4189 -0.3044
  191ccc     H6 5290   5.887   6.505   5.499  0.0781 -5.1605  0.2127
  191ccc     H7 5291   5.889   6.268   5.416 -0.8329  0.2993 -0.4180
  191ccc     H8 5292   5.846   6.767   5.303  0.0856 -0.4412 -3.0591
  191ccc     H9 5293   5.971   6.196   5.090 -0.8345  0.6301  0.3531
  191ccc    H10 5294   6.106   6.145   5.193  0.3357  1.1717  0.0885
  191ccc     O5 5295   6.165   6.226   5.011 -0.4994 -0.6030  0.3856
  191ccc    H11 5296   6.213   6.142   5.019 -0.1973 -0.3533  1.3359
  191ccc     O6 5297   5.994   6.450   5.100 -0.3674  0.2296  0.4895
  192ccc     C1 5298   7.016   7.951   4.567 -0.2587  0.2414  0.8895
  192ccc     C2 5299   7.035   8.098   4.600  0.6081  0.3601 -0.4695
  192ccc     H1 5300   6.930   7.955   4.498 -0.0121  0.1462  0.5764
  192ccc     H2 5301   7.044   8.156   4.507  0.3745  2.3304  0.6656
  192ccc     C3 5302   6.916   8.160   4.676 -0.3304 -0.2124 -0.0236
  192ccc     C4 5303   6.872   8.073   4.794 -0.0410 -0.2652  0.0239
  192ccc     C5 5304   6.843   7.932   4.737 -0.2655 -0.1233  0.3058
  192ccc     H3 5305   6.951   8.066   4.870  1.6721  0.3298 -1.6247
  192ccc     H4 5306   6.836   8.160   4.600  0.6282 -0.3034 -1.0659
  192ccc     H5 5307   6.770   7.943   4.656 -0.3511  1.3279  0.5488
  192ccc     O1 5308   6.791   7.840   4.832  0.1405  0.1900  0.0799
  192ccc     O2 5309   6.755   8.122   4.857  0.2379  0.0975  0.3947
  192ccc     O3 5310   6.947   8.288   4.720  0.5015 -0.2183 -0.8925
  192ccc     O4 5311   7.164   8.114   4.668 -0.3159  0.9888 -0.0621
  192ccc     C6 5312   7.139   7.892   4.498  0.2917  0.0039 -0.3514
  192ccc     H6 5313   6.913   8.345   4.649 -1.4629  0.0218  0.1798
  192ccc     H7 5314   7.184   8.209   4.672  1.3306  0.6773 -0.2014
  192ccc     H8 5315   6.776   8.215   4.875 -1.6258  0.4538  0.9621
  192ccc     H9 5316   7.205   7.866   4.582  0.7787 -2.3357 -1.3863
  192ccc    H10 5317   7.196   7.967   4.442 -0.2385 -0.4333 -1.4974
  192ccc     O5 5318   7.092   7.769   4.427 -0.6853  0.6153 -0.8327
  192ccc    H11 5319   7.123   7.778   4.335 -0.2713 -1.4589 -0.9403
  192ccc     O6 5320   6.964   7.877   4.680  0.1259  0.1468  0.4708
  193ccc     C1 5321   7.208   7.426   5.334  0.3706 -0.0584 -0.1911
  193ccc     C2 5322   7.232   7.575   5.386  0.7973 -0.5164 -0.0459
  193ccc     H1 5323   7.250   7.411   5.233  0.0739 -0.5111 -0.2541
  193ccc     H2 5324   7.339   7.596   5.378  0.8554 -0.9537 -0.4987
  193ccc     C3 5325   7.148   7.678   5.302 -0.9886  0.4507  0.6487
  193ccc     C4 5326   7.002   7.640   5.295  0.6060  0.3689 -0.1653
  193ccc     C5 5327   6.994   7.489   5.258  0.8980 -0.4173  0.1981
  193ccc     H3 5328   6.967   7.644   5.399 -0.9059 -1.5540 -0.5404
  193ccc     H4 5329   7.194   7.672   5.203  0.0725  0.5297  1.1231
  193ccc     H5 5330   7.039   7.466   5.161  1.5109 -0.7476  0.5489
  193ccc     O1 5331   6.858   7.449   5.257  0.0025 -0.5163  0.2088
  193ccc     O2 5332   6.944   7.733   5.198  0.0963  0.7185 -0.2292
  193ccc     O3 5333   7.185   7.811   5.338 -0.5032 -0.1899  0.0383
  193ccc     O4 5334   7.189   7.583   5.523 -0.1232  0.5909 -0.0050
  193ccc     C6 5335   7.284   7.329   5.429 -0.4508 -0.8152 -0.9873
  193ccc     H6 5336   7.257   7.840   5.280 -0.0216  0.5154  0.9632
  193ccc     H7 5337   7.215   7.666   5.566  0.6500  0.3784 -0.0422
  193ccc     H8 5338   6.856   7.693   5.191 -0.1987  1.5887 -2.4531
  193ccc     H9 5339   7.250   7.341   5.533  1.3392  0.1232 -0.4743
  193ccc    H10 5340   7.392   7.349   5.425 -0.6973  1.2042  0.8219
  193ccc     O5 5341   7.262   7.199   5.378  0.1400 -0.2906 -0.6816
  193ccc    H11 5342   7.310   7.136   5.435 -0.1169 -2.3512 -2.6159
  193ccc     O6 5343   7.067   7.396   5.338 -0.4853 -0.8938 -0.0004
  194ccc     C1 5344   7.005   8.065   5.694  0.7767 -0.0849  0.2812
  194ccc     C2 5345   7.109   7.968   5.625  1.0023  0.1571  0.2105
  194ccc     H1 5346   7.061   8.141   5.751 -0.5408  0.3721  1.0092
  194ccc     H2 5347   7.187   8.022   5.570  1.1252  0.2014  0.4255
  194ccc     C3 5348   7.192   7.887   5.727 -0.0959  0.4838 -0.1263
  194ccc     C4 5349   7.093   7.808   5.814  0.1282  0.0783  0.4722
  194ccc     C5 5350   6.981   7.899   5.873 -0.2654 -0.3807 -0.1944
  194ccc     H3 5351   7.030   7.742   5.753 -0.3567  1.3801 -0.4846
  194ccc     H4 5352   7.247   7.963   5.785  3.4799 -1.0175 -1.2410
  194ccc     H5 5353   7.010   7.963   5.957 -1.3933 -2.5923  2.0400
  194ccc     O1 5354   6.879   7.808   5.923  0.0816  0.1671 -0.1310
  194ccc     O2 5355   7.163   7.735   5.911 -0.4918  0.1577  0.2990
  194ccc     O3 5356   7.278   7.794   5.660 -0.1742 -0.1261  0.3997
  194ccc     O4 5357   7.040   7.881   5.535 -0.1657  0.4787  0.0230
  194ccc     C6 5358   6.922   8.136   5.581 -0.3616 -0.3197  0.1070
  194ccc     H6 5359   7.351   7.850   5.628  1.1095 -1.5602  0.6728
  194ccc     H7 5360   7.101   7.856   5.463  0.5440  0.0134  0.7761
  194ccc     H8 5361   7.246   7.710   5.866  0.4192 -1.1738  2.5435
  194ccc     H9 5362   6.844   8.068   5.543 -0.7670 -0.6572  1.4926
  194ccc    H10 5363   6.987   8.180   5.505 -0.7642  0.9479  0.4758
  194ccc     O5 5364   6.857   8.249   5.642 -0.2666 -0.6390 -0.0725
  194ccc    H11 5365   6.904   8.330   5.618 -1.7950  0.5556  0.7854
  194ccc     O6 5366   6.914   7.990   5.777  0.3368  0.2320  0.1653
  195ccc     C1 5367   7.496   7.557   6.066 -0.0358  0.3926  0.0211
  195ccc     C2 5368   7.566   7.509   5.936 -0.3945  0.3803  0.1140
  195ccc     H1 5369   7.542   7.509   6.153 -0.6517  0.4534  0.3799
  195ccc     H2 5370   7.673   7.530   5.952 -0.0978  0.2082 -1.4787
  195ccc     C3 5371   7.546   7.353   5.914  0.5726  0.4125  0.4633
  195ccc     C4 5372   7.385   7.332   5.893 -0.4962 -0.4982  0.3310
  195ccc     C5 5373   7.318   7.379   6.032  0.4476 -0.7198 -0.7068
  195ccc     H3 5374   7.352   7.404   5.818  3.6092  0.3122 -0.9621
  195ccc     H4 5375   7.581   7.307   6.007  1.2437  0.6680  0.3382
  195ccc     H5 5376   7.347   7.310   6.112  0.5427 -0.2783 -0.3561
  195ccc     O1 5377   7.173   7.385   6.015 -0.3322 -0.0661 -0.1369
  195ccc     O2 5378   7.353   7.197   5.855 -0.0127 -0.1471  0.0320
  195ccc     O3 5379   7.623   7.292   5.813 -0.4807 -0.2186  0.2430
  195ccc     O4 5380   7.503   7.581   5.835  0.1718  0.0593 -0.1827
  195ccc     C6 5381   7.512   7.712   6.097 -0.2052  0.1754 -0.5547
  195ccc     H6 5382   7.700   7.265   5.865 -0.8193 -2.5057 -0.3443
  195ccc     H7 5383   7.488   7.666   5.880 -2.4691 -0.3905 -0.0649
  195ccc     H8 5384   7.268   7.198   5.809  0.7093  1.1063 -1.3685
  195ccc     H9 5385   7.615   7.746   6.114 -0.4187  0.4697  0.1784
  195ccc    H10 5386   7.466   7.730   6.195  1.2197 -0.7441  0.3183
  195ccc     O5 5387   7.458   7.788   5.983  0.0729 -0.2356 -0.3980
  195ccc    H11 5388   7.417   7.865   6.026 -0.9639 -0.8459 -0.2574
  195ccc     O6 5389   7.357   7.514   6.066 -0.9037  0.4593  0.4239
  196ccc     C1 5390   6.290   5.641   6.192  0.0614 -0.5800 -0.4505
  196ccc     C2 5391   6.179   5.630   6.094  0.5243 -0.5336 -0.0988
  196ccc     H1 5392   6.247   5.602   6.285  0.5515  0.4153  0.2060
  196ccc     H2 5393   6.143   5.527   6.103 -0.0860 -0.3451 -0.3178
  196ccc     C3 5394   6.058   5.726   6.135  0.3738  0.7068  0.4804
  196ccc     C4 5395   6.105   5.872   6.163 -0.0781  0.2303  0.3552
  196ccc     C5 5396   6.218   5.864   6.263 -0.2601 -0.1169  0.1453
  196ccc     H3 5397   6.135   5.911   6.066 -0.4066  1.1878  0.6282
  196ccc     H4 5398   6.030   5.674   6.227  0.6922  0.4639  0.4420
  196ccc     H5 5399   6.171   5.833   6.357 -1.3669 -0.6584 -0.5692
  196ccc     O1 5400   6.264   6.000   6.290  0.7844 -0.2706  0.2114
  196ccc     O2 5401   5.984   5.935   6.212 -0.5973 -0.6275  0.3810
  196ccc     O3 5402   5.957   5.724   6.045 -0.0514  0.1051  0.7609
  196ccc     O4 5403   6.230   5.651   5.959 -0.1016 -0.3590 -0.0183
  196ccc     C6 5404   6.410   5.552   6.151 -0.6373 -0.3511 -0.3850
  196ccc     H6 5405   5.905   5.642   6.053  0.6225 -0.5917 -1.3690
  196ccc     H7 5406   6.164   5.628   5.892 -0.3757 -0.9065  0.4230
  196ccc     H8 5407   5.918   5.899   6.150 -1.7731  2.6140 -0.4350
  196ccc     H9 5408   6.487   5.614   6.106  1.4015 -1.2946  1.6049
  196ccc    H10 5409   6.380   5.482   6.072  0.8239  0.7133 -1.9336
  196ccc     O5 5410   6.461   5.487   6.270 -0.1175 -0.6507 -0.4298
  196ccc    H11 5411   6.480   5.399   6.233 -0.1179 -0.1527 -1.6674
  196ccc     O6 5412   6.325   5.780   6.216 -0.3492  0.2905  0.5109
  197ccc     C1 5413   7.289   6.264   6.260 -0.2079  0.0319  0.2817
  197ccc     C2 5414   7.362   6.314   6.139 -0.4343  0.1003  0.8483
  197ccc     H1 5415   7.326   6.161   6.269 -0.4903 -0.2308 -1.2420
  197ccc     H2 5416   7.471   6.315   6.150 -0.4584  1.6188  1.1370
  197ccc     C3 5417   7.322   6.228   6.022 -0.0394 -0.3791 -0.2043
  197ccc     C4 5418   7.168   6.232   6.004 -0.0988  0.2131  0.2660
  197ccc     C5 5419   7.090   6.195   6.130 -0.2297 -0.5198 -0.5014
  197ccc     H3 5420   7.143   6.336   5.979 -1.2462 -0.1579 -0.2197
  197ccc     H4 5421   7.356   6.127   6.050  1.7736  0.7045  1.8172
  197ccc     H5 5422   7.108   6.088   6.140  2.1344  0.0572  3.7329
  197ccc     O1 5423   6.954   6.227   6.108  0.3176 -0.3660 -0.0865
  197ccc     O2 5424   7.125   6.136   5.894 -0.6312 -0.0146 -0.0628
  197ccc     O3 5425   7.382   6.261   5.898 -0.2933  0.1774  0.4433
  197ccc     O4 5426   7.322   6.455   6.120 -0.2208  0.4249  0.2747
  197ccc     C6 5427   7.321   6.331   6.395  0.2747 -0.3698  0.1165
  197ccc     H6 5428   7.474   6.229   5.903 -0.3758 -0.3342 -0.8436
  197ccc     H7 5429   7.390   6.475   6.053  0.0763 -0.0596  0.4319
  197ccc     H8 5430   7.197   6.144   5.829 -0.3456  0.5985  0.3185
  197ccc     H9 5431   7.421   6.312   6.437  0.0369 -0.8539  0.4786
  197ccc    H10 5432   7.252   6.281   6.464 -0.0374 -0.1514 -0.0374
  197ccc     O5 5433   7.288   6.463   6.378 -0.7011  0.2840 -0.3027
  197ccc    H11 5434   7.306   6.471   6.282  3.0241 -0.0260  0.2482
  197ccc     O6 5435   7.145   6.263   6.243 -0.4498 -0.3850 -0.2640
  198ccc     C1 5436   6.494   8.230   7.388  0.5165 -0.0915  0.7336
  198ccc     C2 5437   6.555   8.296   7.508  0.2380  0.0472 -0.4007
  198ccc     H1 5438   6.444   8.136   7.416 -0.8826  0.6549  0.8325
  198ccc     H2 5439   6.478   8.324   7.582  0.0763  0.0514 -0.5697
  198ccc     C3 5440   6.665   8.203   7.568 -0.2636  0.4748  0.1447
  198ccc     C4 5441   6.767   8.172   7.453 -0.0412 -0.3982 -1.3078
  198ccc     C5 5442   6.689   8.103   7.335 -0.5829 -0.6396 -0.1318
  198ccc     H3 5443   6.822   8.262   7.424 -2.6667  2.3303  1.4868
  198ccc     H4 5444   6.623   8.106   7.598  0.3223 -0.7243 -2.6220
  198ccc     H5 5445   6.634   8.013   7.367 -1.7879  0.6519  1.5996
  198ccc     O1 5446   6.789   8.076   7.235  0.3244 -0.1606 -0.8073
  198ccc     O2 5447   6.866   8.081   7.510  0.3209  0.2592  0.1397
  198ccc     O3 5448   6.728   8.274   7.674  0.0960  0.1990 -0.2550
  198ccc     O4 5449   6.618   8.420   7.472  0.5127  0.2186 -0.0256
  198ccc     C6 5450   6.389   8.322   7.318 -0.6913 -0.5893  0.2930
  198ccc     H6 5451   6.784   8.205   7.713  0.4898 -1.3606 -3.2584
  198ccc     H7 5452   6.656   8.446   7.558 -1.6396 -0.4932  1.2099
  198ccc     H8 5453   6.812   8.002   7.493  1.3378 -0.1714 -1.3571
  198ccc     H9 5454   6.430   8.420   7.291 -1.3597 -0.3259  0.2178
  198ccc    H10 5455   6.303   8.337   7.385 -1.5289  0.3416 -0.9345
  198ccc     O5 5456   6.350   8.259   7.191  0.3710 -0.1514  0.2407
  198ccc    H11 5457   6.433   8.273   7.142  1.1134 -3.3839  0.3165
  198ccc     O6 5458   6.590   8.196   7.289  0.5300 -0.1082  0.3692
  199ccc     C1 5459   7.417   8.069   7.697 -0.7535 -0.0887 -0.0907
  199ccc     C2 5460   7.555   8.117   7.649  0.2018 -0.0938  0.3029
  199ccc     H1 5461   7.431   7.979   7.759 -0.9514  0.5370  0.8919
  199ccc     H2 5462   7.612   8.157   7.734 -0.0371 -1.3023  1.0683
  199ccc     C3 5463   7.628   7.996   7.576 -0.0015 -0.5100  0.3510
  199ccc     C4 5464   7.539   7.943   7.461 -0.2242 -0.2020  0.3180
  199ccc     C5 5465   7.393   7.910   7.505 -0.4481  0.5196 -0.0156
  199ccc     H3 5466   7.527   8.022   7.386  0.8327 -2.0687 -1.9352
  199ccc     H4 5467   7.647   7.917   7.650  0.4342  0.8553  1.7379
  199ccc     H5 5468   7.392   7.818   7.565  0.7120 -0.0167 -0.7882
  199ccc     O1 5469   7.293   7.899   7.397 -0.0895  0.2069 -0.2038
  199ccc     O2 5470   7.601   7.824   7.409  0.3989 -0.3209  0.5806
  199ccc     O3 5471   7.755   8.040   7.531 -0.3156 -0.3179 -0.4528
  199ccc     O4 5472   7.527   8.222   7.558 -0.1350  0.1358  0.0411
  199ccc     C6 5473   7.335   8.161   7.791  0.2056 -0.4995 -0.4051
  199ccc     H6 5474   7.736   8.114   7.470 -2.4892 -0.3686  0.0575
  199ccc     H7 5475   7.438   8.240   7.593 -0.7533 -2.6479  0.0989
  199ccc     H8 5476   7.672   7.854   7.349  1.2459 -0.3842  1.5143
  199ccc     H9 5477   7.375   8.162   7.894 -1.1353  1.2496  0.1442
  199ccc    H10 5478   7.237   8.113   7.788 -0.6174  0.8883  1.9479
  199ccc     O5 5479   7.326   8.293   7.727 -0.0004  0.1981  0.3634
  199ccc    H11 5480   7.309   8.352   7.803  0.0622  2.3473 -1.2012
  199ccc     O6 5481   7.337   8.023   7.583 -0.3600  0.5875  1.0026
  200ccc     C1 5482   6.538   8.807   7.574 -1.2368 -0.3862  0.3349
  200ccc     C2 5483   6.524   8.708   7.695 -0.7378 -0.1388 -0.2657
  200ccc     H1 5484   6.491   8.904   7.592 -0.6500 -0.0528  0.0895
  200ccc     H2 5485   6.548   8.762   7.787 -0.9128 -1.6194  0.6921
  200ccc     C3 5486   6.374   8.663   7.701  0.0923  0.0910 -0.6768
  200ccc     C4 5487   6.323   8.606   7.565  0.3168 -0.8751  0.3523
  200ccc     C5 5488   6.361   8.707   7.444  0.0306 -0.4878  0.2195
  200ccc     H3 5489   6.373   8.510   7.547 -0.2174 -1.3335  1.2449
  200ccc     H4 5490   6.320   8.757   7.715  0.0482  0.0618 -0.6534
  200ccc     H5 5491   6.297   8.796   7.449 -2.2370 -2.0856  1.5397
  200ccc     O1 5492   6.335   8.633   7.315  0.6642  0.7695  0.0072
  200ccc     O2 5493   6.172   8.577   7.574 -0.5552 -0.3004 -0.5792
  200ccc     O3 5494   6.351   8.576   7.813 -0.2110 -0.0778  0.3732
  200ccc     O4 5495   6.612   8.596   7.672 -0.0665  0.1733  0.0467
  200ccc     C6 5496   6.686   8.848   7.551 -0.4476 -0.0542  0.1300
  200ccc     H6 5497   6.425   8.514   7.825  0.7367  0.5444 -1.6752
  200ccc     H7 5498   6.682   8.595   7.739  0.1982 -3.0458 -0.1111
  200ccc     H8 5499   6.184   8.501   7.632  1.0505  0.7878  0.6188
  200ccc     H9 5500   6.750   8.763   7.526  1.2304  1.3612 -0.5538
  200ccc    H10 5501   6.727   8.887   7.645 -1.0859 -0.1392  0.4529
  200ccc     O5 5502   6.691   8.941   7.450  0.6024 -0.5266  0.0280
  200ccc    H11 5503   6.678   8.889   7.369 -0.3539  0.1184 -0.2396
  200ccc     O6 5504   6.495   8.745   7.450 -0.4358  0.2397  0.3191
  201ccc     C1 5505   5.746   8.490   7.548 -0.0020  0.3720 -0.2749
  201ccc     C2 5506   5.748   8.636   7.598 -0.1501 -0.0567 -0.1637
  201ccc     H1 5507   5.822   8.426   7.595 -0.5989 -2.8879 -3.2602
  201ccc     H2 5508   5.746   8.626   7.707  2.3758  1.2040  0.0564
  201ccc     C3 5509   5.877   8.709   7.559 -0.5465 -0.0090 -0.1761
  201ccc     C4 5510   5.920   8.678   7.410 -0.2040 -0.1530  0.3698
  201ccc     C5 5511   5.901   8.533   7.370 -0.1530  0.0356  0.5817
  201ccc     H3 5512   5.856   8.731   7.338 -0.3486 -2.8021 -1.6222
  201ccc     H4 5513   5.953   8.670   7.629 -0.6566  0.4966  0.2260
  201ccc     H5 5514   5.975   8.473   7.425  0.6983  0.6304  0.1193
  201ccc     O1 5515   5.926   8.531   7.232  0.0174  0.0329 -0.5403
  201ccc     O2 5516   6.060   8.722   7.397  0.4229 -0.8312 -0.7440
  201ccc     O3 5517   5.874   8.851   7.584 -0.0271  0.0796  0.0029
  201ccc     O4 5518   5.641   8.711   7.547 -0.3430 -0.4946  0.1634
  201ccc     C6 5519   5.610   8.428   7.576  0.0531  0.7250 -0.3686
  201ccc     H6 5520   5.970   8.868   7.575 -0.1919  0.6708 -0.7890
  201ccc     H7 5521   5.673   8.803   7.554  2.5298 -1.4358  0.3969
  201ccc     H8 5522   6.111   8.675   7.465  0.3794 -0.7982 -0.6879
  201ccc     H9 5523   5.527   8.459   7.511 -0.1395  0.2487 -0.3555
  201ccc    H10 5524   5.581   8.446   7.680 -1.0462 -1.5945 -0.2071
  201ccc     O5 5525   5.628   8.283   7.562  0.3725 -0.3585 -0.0788
  201ccc    H11 5526   5.538   8.248   7.571  0.8861 -1.3554  1.7378
  201ccc     O6 5527   5.771   8.484   7.406  0.4995  0.5935 -0.3859
  202ccc     C1 5528   5.279   6.359   7.730 -0.0228 -0.0581  0.2732
  202ccc     C2 5529   5.231   6.486   7.658  0.3024 -0.6450  0.3623
  202ccc     H1 5530   5.245   6.367   7.834  0.7997 -1.0117  0.6412
  202ccc     H2 5531   5.128   6.517   7.677  0.5224  1.8352 -1.8289
  202ccc     C3 5532   5.305   6.613   7.713 -0.3171  0.6664 -0.2893
  202ccc     C4 5533   5.458   6.596   7.727  0.0048  0.2803  0.5780
  202ccc     C5 5534   5.506   6.458   7.790  0.5994 -0.0899  0.0065
  202ccc     H3 5535   5.507   6.609   7.629  1.6795 -0.5211  1.2675
  202ccc     H4 5536   5.276   6.627   7.818  2.1475 -0.1844  0.5601
  202ccc     H5 5537   5.499   6.458   7.899  0.2385 -0.3143 -0.0111
  202ccc     O1 5538   5.636   6.439   7.745 -0.1809  0.2189 -0.0231
  202ccc     O2 5539   5.516   6.711   7.803  0.2857  0.0545  0.1529
  202ccc     O3 5540   5.272   6.732   7.643  0.0996 -1.1009  0.2692
  202ccc     O4 5541   5.268   6.471   7.518  0.4594 -0.3255 -0.1970
  202ccc     C6 5542   5.219   6.227   7.672  0.1122  0.9275 -0.0518
  202ccc     H6 5543   5.335   6.741   7.569  0.2773 -0.7444  0.4586
  202ccc     H7 5544   5.195   6.419   7.480  1.9934 -1.6582 -1.4866
  202ccc     H8 5545   5.500   6.694   7.897 -0.0861  0.7972  0.2299
  202ccc     H9 5546   5.272   6.196   7.581  0.3488 -0.0111  0.3857
  202ccc    H10 5547   5.112   6.236   7.651 -0.4783  0.3520  2.2964
  202ccc     O5 5548   5.237   6.132   7.769  0.1273  0.6001 -0.1790
  202ccc    H11 5549   5.329   6.128   7.800 -0.0232  0.4026  0.2611
  202ccc     O6 5550   5.426   6.349   7.733 -0.3803  0.1518  0.8159
  203ccc     C1 5551   6.513   6.682   7.812  0.1121  0.2522  0.0059
  203ccc     C2 5552   6.458   6.762   7.933  0.5192 -0.0784 -0.5441
  203ccc     H1 5553   6.523   6.753   7.729 -0.2207 -0.5913 -0.7579
  203ccc     H2 5554   6.531   6.842   7.950  0.7622 -0.1728 -1.1263
  203ccc     C3 5555   6.324   6.829   7.887  0.7392 -0.6347  0.3904
  203ccc     C4 5556   6.224   6.711   7.843 -0.3237  0.0375  0.3567
  203ccc     C5 5557   6.291   6.629   7.726 -0.7188  0.2500 -0.3007
  203ccc     H3 5558   6.203   6.654   7.934  1.2023 -0.8478  0.1852
  203ccc     H4 5559   6.350   6.885   7.796 -0.3308 -0.6694  0.0532
  203ccc     H5 5560   6.313   6.688   7.636 -1.5967 -1.0852 -1.4348
  203ccc     O1 5561   6.210   6.509   7.685  0.6641  0.2902 -0.3178
  203ccc     O2 5562   6.107   6.774   7.783 -0.7469  0.4110  0.1213
  203ccc     O3 5563   6.264   6.917   7.984 -0.2597 -0.3295  0.4417
  203ccc     O4 5564   6.441   6.670   8.043  0.6235  0.3271 -0.3184
  203ccc     C6 5565   6.653   6.611   7.838  0.2391 -0.1161  0.3120
  203ccc     H6 5566   6.183   6.961   7.951  0.3973  0.4829 -0.1463
  203ccc     H7 5567   6.425   6.715   8.128  0.7035 -0.6446  0.2212
  203ccc     H8 5568   6.044   6.718   7.832  2.7097 -2.7324  1.4196
  203ccc     H9 5569   6.658   6.557   7.933  0.0821 -0.1779  0.2857
  203ccc    H10 5570   6.725   6.694   7.835 -0.2063  0.2634 -1.6608
  203ccc     O5 5571   6.679   6.534   7.716  0.6880  0.1398  0.1567
  203ccc    H11 5572   6.653   6.445   7.747 -0.3799  0.9294  1.6867
  203ccc     O6 5573   6.416   6.576   7.775 -0.3249  0.3696  0.2851
  204ccc     C1 5574   5.091   5.963   6.182 -0.6690  0.2791 -0.8635
  204ccc     C2 5575   4.982   6.074   6.189 -0.0778 -0.5730  0.1741
  204ccc     H1 5576   5.104   5.917   6.281  0.5166  1.4957 -0.4218
  204ccc     H2 5577   4.889   6.028   6.224 -0.0936 -0.7421 -0.0936
  204ccc     C3 5578   5.024   6.181   6.289 -0.1706 -0.0806 -0.4522
  204ccc     C4 5579   5.159   6.236   6.255  0.7107 -0.5715  0.3018
  204ccc     C5 5580   5.260   6.122   6.235  0.2221 -0.5486  0.0209
  204ccc     H3 5581   5.147   6.292   6.161 -1.6769  0.0531  0.9055
  204ccc     H4 5582   5.042   6.132   6.385  0.3887  0.8338 -0.0810
  204ccc     H5 5583   5.272   6.076   6.334 -0.3531 -0.3675  0.1800
  204ccc     O1 5584   5.379   6.185   6.190 -0.2133 -0.0213 -0.7449
  204ccc     O2 5585   5.189   6.320   6.372 -0.2237 -0.6747 -0.4294
  204ccc     O3 5586   4.918   6.284   6.303  0.3457 -0.2023  0.2881
  204ccc     O4 5587   4.957   6.134   6.060 -0.2577 -0.2863 -0.0499
  204ccc     C6 5588   5.061   5.855   6.083 -0.0232  0.5144  0.5192
  204ccc     H6 5589   4.943   6.347   6.372  1.3427 -0.7164  0.4286
  204ccc     H7 5590   4.883   6.190   6.087 -0.6760 -0.4607 -0.8026
  204ccc     H8 5591   5.238   6.393   6.331  0.8089 -0.4409  1.1189
  204ccc     H9 5592   5.100   5.883   5.984 -1.5057 -0.3016 -0.3275
  204ccc    H10 5593   4.957   5.824   6.069  0.3875 -2.6830  3.1699
  204ccc     O5 5594   5.144   5.740   6.123  0.6935 -0.5783 -0.1783
  204ccc    H11 5595   5.105   5.663   6.078  1.2305 -0.1339 -1.4334
  204ccc     O6 5596   5.216   6.025   6.135 -0.0093 -0.5672 -0.4454
  205ccc     C1 5597   5.952   5.698   6.767  0.1014 -0.1163 -0.1311
  205ccc     C2 5598   6.054   5.634   6.672 -0.2306 -0.2566  0.1901
  205ccc     H1 5599   5.877   5.623   6.797  1.3978 -1.0204  1.0253
  205ccc     H2 5600   6.105   5.546   6.714  3.1597  0.8240 -1.3431
  205ccc     C3 5601   5.976   5.583   6.546 -0.4719 -0.1148 -0.2930
  205ccc     C4 5602   5.885   5.699   6.487  0.3349 -0.5244 -0.1734
  205ccc     C5 5603   5.806   5.789   6.589  0.3486  0.7178 -0.5797
  205ccc     H3 5604   5.956   5.766   6.437 -1.0441  0.0305 -1.4217
  205ccc     H4 5605   5.908   5.501   6.575  1.6989 -1.3258  1.6670
  205ccc     H5 5606   5.710   5.740   6.608 -0.6300  2.1222 -1.6355
  205ccc     O1 5607   5.786   5.913   6.527 -0.4516 -0.3230 -0.5586
  205ccc     O2 5608   5.790   5.636   6.394  0.4406  0.4498 -0.4351
  205ccc     O3 5609   6.070   5.532   6.447  0.3487  0.2018  0.2239
  205ccc     O4 5610   6.153   5.737   6.643 -0.4755  0.1571  0.0061
  205ccc     C6 5611   6.012   5.748   6.897 -0.7336  0.0676 -0.6654
  205ccc     H6 5612   6.024   5.463   6.396  1.8529 -0.5530 -0.1668
  205ccc     H7 5613   6.222   5.694   6.589 -1.5241 -1.4312 -0.1142
  205ccc     H8 5614   5.744   5.703   6.341 -0.2688 -0.8330 -1.5127
  205ccc     H9 5615   6.069   5.842   6.897 -2.7780  1.3901 -0.5372
  205ccc    H10 5616   6.088   5.675   6.926 -1.1036 -0.6732 -1.4976
  205ccc     O5 5617   5.906   5.763   6.989  0.7763 -0.2428  0.6561
  205ccc    H11 5618   5.955   5.772   7.073  0.2403 -0.0482  0.9579
  205ccc     O6 5619   5.880   5.812   6.710  0.0240 -0.2029 -0.3487
  206ccc     C1 5620   2.918   9.754   5.470 -0.5852  0.2269 -0.0330
  206ccc     C2 5621   2.926   9.788   5.619 -0.2043 -0.9486 -0.1592
  206ccc     H1 5622   2.847   9.672   5.456  1.1664 -2.1453  3.5121
  206ccc     H2 5623   2.826   9.825   5.644  0.2251 -0.3884  0.7671
  206ccc     C3 5624   2.961   9.673   5.711  1.2820  0.2105  0.7094
  206ccc     C4 5625   3.091   9.615   5.668  0.0946 -0.2043 -0.1476
  206ccc     C5 5626   3.102   9.592   5.520  0.3214  0.1199 -0.5328
  206ccc     H3 5627   3.173   9.678   5.704  1.3741 -2.7391  1.7232
  206ccc     H4 5628   2.889   9.593   5.689  0.8709 -0.1053  2.9178
  206ccc     H5 5629   3.037   9.510   5.488 -0.3789  1.2629 -2.1730
  206ccc     O1 5630   3.241   9.557   5.487  0.5803 -0.3496 -0.5576
  206ccc     O2 5631   3.093   9.485   5.736  0.4255  0.3752 -0.1340
  206ccc     O3 5632   2.947   9.713   5.843  0.0656 -0.3423 -0.4273
  206ccc     O4 5633   3.019   9.899   5.635  0.3619 -0.1084  0.4506
  206ccc     C6 5634   2.903   9.872   5.374  0.0429  0.6587  0.1482
  206ccc     H6 5635   2.925   9.636   5.898  1.0842 -0.2932  0.0610
  206ccc     H7 5636   3.046   9.891   5.728  0.5049 -1.4310  0.3226
  206ccc     H8 5637   3.183   9.458   5.759  0.9890  1.6860 -0.6950
  206ccc     H9 5638   2.987   9.937   5.399  1.1069 -0.3407 -0.7068
  206ccc    H10 5639   2.815   9.932   5.399  1.0372  1.8513  0.8510
  206ccc     O5 5640   2.900   9.838   5.234  0.0982 -0.2010  0.2232
  206ccc    H11 5641   2.812   9.797   5.233 -0.0474  0.1054 -0.8472
  206ccc     O6 5642   3.054   9.701   5.444  0.1201  0.6632 -0.1262
  207ccc     C1 5643   4.144   9.716   4.848  0.0307 -0.4885 -0.1471
  207ccc     C2 5644   4.270   9.631   4.844 -0.0356  0.0108  0.0917
  207ccc     H1 5645   4.168   9.823   4.837  0.8209 -0.3123  2.5751
  207ccc     H2 5646   4.330   9.654   4.755  0.1059  1.2431  0.4864
  207ccc     C3 5647   4.359   9.661   4.971  0.1380  0.1686  0.3377
  207ccc     C4 5648   4.282   9.644   5.100  0.5050  0.3726  0.1656
  207ccc     C5 5649   4.148   9.722   5.098  0.3450 -0.1323  0.6907
  207ccc     H3 5650   4.255   9.538   5.108 -0.4628  0.6165  0.3648
  207ccc     H4 5651   4.379   9.769   4.967 -1.3808  0.4396 -1.0148
  207ccc     H5 5652   4.161   9.830   5.097 -1.2063  0.0797 -0.8400
  207ccc     O1 5653   4.059   9.690   5.209 -0.4865 -0.8868 -0.2351
  207ccc     O2 5654   4.362   9.690   5.207  0.1032  0.0709 -0.2990
  207ccc     O3 5655   4.485   9.586   4.971  0.1105 -0.4466 -0.4562
  207ccc     O4 5656   4.237   9.490   4.845  0.4801  0.1322 -0.1067
  207ccc     C6 5657   4.048   9.673   4.738 -0.5456  0.1593  0.2597
  207ccc     H6 5658   4.553   9.655   4.968 -0.6755  0.3110 -2.4982
  207ccc     H7 5659   4.319   9.439   4.841  0.0105 -0.9079  1.9271
  207ccc     H8 5660   4.442   9.634   5.211  0.1006  0.1107  0.4565
  207ccc     H9 5661   3.987   9.589   4.774 -2.0397  1.2672  0.4426
  207ccc    H10 5662   4.100   9.659   4.643  0.5245  0.4311  0.7984
  207ccc     O5 5663   3.960   9.784   4.721 -0.3327  0.1974  0.1409
  207ccc    H11 5664   3.887   9.744   4.671  0.5530 -1.6087  0.2399
  207ccc     O6 5665   4.083   9.686   4.977  0.5946  0.3745 -0.1248
  208ccc     C1 5666   4.386   9.022   4.244  0.1271  0.4107 -0.6733
  208ccc     C2 5667   4.267   9.080   4.163 -0.1543 -0.0655  0.6422
  208ccc     H1 5668   4.463   8.985   4.175  1.2920  0.5772  0.5071
  208ccc     H2 5669   4.306   9.152   4.090  0.8898 -1.3066 -0.0630
  208ccc     C3 5670   4.198   8.978   4.067  0.0068  0.5091 -0.1092
  208ccc     C4 5671   4.174   8.846   4.147  0.1455  0.2770  0.1722
  208ccc     C5 5672   4.300   8.799   4.229 -0.0515 -0.2522  0.3658
  208ccc     H3 5673   4.090   8.860   4.217 -0.0339  1.7152 -0.2991
  208ccc     H4 5674   4.268   8.959   3.985  1.1071 -2.7722  1.4359
  208ccc     H5 5675   4.383   8.783   4.159 -1.1271 -1.8250 -0.6184
  208ccc     O1 5676   4.264   8.683   4.301 -0.4172  0.0837  0.5712
  208ccc     O2 5677   4.131   8.749   4.051  0.0154 -0.0539 -0.8595
  208ccc     O3 5678   4.074   9.029   4.003 -0.4153 -0.8029 -0.0808
  208ccc     O4 5679   4.169   9.146   4.251 -0.4058  0.3979  0.0672
  208ccc     C6 5680   4.454   9.123   4.332 -0.5405 -0.2972 -1.1072
  208ccc     H6 5681   4.063   8.966   3.929 -1.7264 -1.4395  0.6205
  208ccc     H7 5682   4.144   9.225   4.199  0.9797  1.2902  0.6871
  208ccc     H8 5683   4.154   8.667   4.098  0.5752  0.9411  0.6897
  208ccc     H9 5684   4.490   9.212   4.280  0.0216 -0.4769 -1.0313
  208ccc    H10 5685   4.540   9.081   4.384 -2.2322 -1.3493  1.0048
  208ccc     O5 5686   4.358   9.170   4.430 -0.7313  0.3400 -0.0745
  208ccc    H11 5687   4.278   9.144   4.381 -0.2832 -0.0061 -0.6372
  208ccc     O6 5688   4.338   8.911   4.323  0.2012  0.1849 -0.5142
  209ccc     C1 5689   4.587   8.140   5.147  0.9710  0.0523  0.0973
  209ccc     C2 5690   4.539   7.999   5.087  0.0164 -0.5369  0.7386
  209ccc     H1 5691   4.564   8.138   5.254 -0.0416  0.7610 -0.0926
  209ccc     H2 5692   4.576   7.916   5.149  1.8726 -0.5337 -0.2819
  209ccc     C3 5693   4.384   7.993   5.093  0.3914 -0.5296 -0.7932
  209ccc     C4 5694   4.316   8.110   5.017  0.0660 -0.0654 -0.2045
  209ccc     C5 5695   4.370   8.241   5.078  0.3854  0.3683  0.1693
  209ccc     H3 5696   4.349   8.112   4.912  0.1457  0.6477 -0.1662
  209ccc     H4 5697   4.358   7.994   5.199 -0.8945  1.3098 -1.0729
  209ccc     H5 5698   4.325   8.264   5.175  1.1332 -0.3241  0.6960
  209ccc     O1 5699   4.324   8.353   4.992  0.6853 -0.4456 -0.2731
  209ccc     O2 5700   4.172   8.104   5.015  0.0485 -0.7544 -0.1959
  209ccc     O3 5701   4.342   7.861   5.049  0.2000  0.5761 -0.4464
  209ccc     O4 5702   4.585   7.998   4.944  0.1574  0.1986 -0.1134
  209ccc     C6 5703   4.741   8.163   5.135  0.2418  0.2232  0.1593
  209ccc     H6 5704   4.369   7.859   4.955  1.8401  3.9097 -0.1830
  209ccc     H7 5705   4.640   7.918   4.946  1.9887  1.4143  0.5349
  209ccc     H8 5706   4.157   8.038   4.945 -2.2930 -0.0985 -0.3859
  209ccc     H9 5707   4.802   8.087   5.185  0.6972 -0.4909 -1.4123
  209ccc    H10 5708   4.760   8.264   5.173 -0.3222 -0.2360  1.7077
  209ccc     O5 5709   4.776   8.155   4.992 -0.0998  0.5545  0.6065
  209ccc    H11 5710   4.698   8.113   4.950 -0.3587 -0.2412  1.8179
  209ccc     O6 5711   4.516   8.247   5.082  0.6373  0.1282 -0.1579
  210ccc     C1 5712   3.277   9.571   6.202  0.3983  0.0255 -0.3927
  210ccc     C2 5713   3.160   9.664   6.237  0.0458 -0.0637 -0.5054
  210ccc     H1 5714   3.313   9.608   6.106  2.7503 -0.5799  0.2027
  210ccc     H2 5715   3.186   9.770   6.224 -1.5894  0.4843  0.3934
  210ccc     C3 5716   3.046   9.650   6.139 -0.0494 -0.1172 -0.2485
  210ccc     C4 5717   2.996   9.502   6.124  0.4861  0.0986 -0.5165
  210ccc     C5 5718   3.116   9.410   6.093  0.1826  0.4661 -0.6044
  210ccc     H3 5719   2.949   9.466   6.217  1.5358 -0.2937 -0.1194
  210ccc     H4 5720   3.083   9.688   6.043  3.0077 -0.2661  0.7672
  210ccc     H5 5721   3.154   9.433   5.993 -0.5758 -0.4148 -1.1119
  210ccc     O1 5722   3.079   9.270   6.101  0.4138 -0.4539  0.1993
  210ccc     O2 5723   2.909   9.503   6.012  0.0644 -0.0494 -0.0894
  210ccc     O3 5724   2.939   9.731   6.194  0.8217 -0.0267 -0.0422
  210ccc     O4 5725   3.114   9.633   6.366  0.1161 -1.0301  0.2599
  210ccc     C6 5726   3.394   9.582   6.303 -0.2039  0.0308 -0.5155
  210ccc     H6 5727   2.850   9.713   6.160 -0.4136  2.2673  1.7031
  210ccc     H7 5728   3.018   9.645   6.359 -0.0911 -2.0914  0.9803
  210ccc     H8 5729   2.865   9.416   6.010  1.1057 -0.6082  0.0475
  210ccc     H9 5730   3.367   9.555   6.406 -0.0886 -1.4979 -0.8518
  210ccc    H10 5731   3.433   9.684   6.308 -0.0230 -0.0905  3.3708
  210ccc     O5 5732   3.511   9.499   6.268  0.9572 -0.3947 -0.6523
  210ccc    H11 5733   3.584   9.507   6.332  0.5225  0.0198 -0.1974
  210ccc     O6 5734   3.223   9.431   6.194  0.0195  0.1265  0.2638
  211ccc     C1 5735   3.724   9.022   5.983 -0.7440 -0.0858  0.3470
  211ccc     C2 5736   3.740   9.087   6.121  0.1548  0.2446 -0.0494
  211ccc     H1 5737   3.791   9.073   5.912 -0.5869  0.0986  0.6290
  211ccc     H2 5738   3.846   9.108   6.141 -0.3899  3.2727  0.1168
  211ccc     C3 5739   3.676   9.227   6.118 -0.0395 -0.0045 -0.3257
  211ccc     C4 5740   3.530   9.222   6.060  0.1690 -0.2207  0.0426
  211ccc     C5 5741   3.536   9.153   5.919  0.2294  0.4891  0.2590
  211ccc     H3 5742   3.471   9.155   6.122  0.0867  0.0120  0.2161
  211ccc     H4 5743   3.732   9.288   6.046  0.7525  0.8263  0.9593
  211ccc     H5 5744   3.601   9.194   5.841 -1.1969  1.9893 -0.1796
  211ccc     O1 5745   3.398   9.143   5.872 -0.2613  0.2181  0.0820
  211ccc     O2 5746   3.469   9.352   6.054  0.6423 -0.1834  0.2123
  211ccc     O3 5747   3.693   9.284   6.248 -0.6725  0.2683  0.4797
  211ccc     O4 5748   3.684   8.999   6.218  0.1525  0.4065 -0.3529
  211ccc     C6 5749   3.766   8.877   5.993 -0.2367  0.3044  0.6599
  211ccc     H6 5750   3.769   9.344   6.238  0.3396 -1.1788 -1.1040
  211ccc     H7 5751   3.723   9.016   6.305 -0.4926 -1.2207  0.2996
  211ccc     H8 5752   3.503   9.396   6.133 -0.5255 -0.1416  0.7055
  211ccc     H9 5753   3.682   8.817   6.030 -0.3782  0.7494  1.0686
  211ccc    H10 5754   3.861   8.866   6.046  0.5074 -0.2979 -0.7498
  211ccc     O5 5755   3.799   8.846   5.858  0.1062  0.0539 -0.2582
  211ccc    H11 5756   3.717   8.813   5.817  1.0310 -0.8909 -1.4148
  211ccc     O6 5757   3.585   9.026   5.938 -0.0797 -0.0868  0.4291
  212ccc     C1 5758   2.872  10.072   6.995 -0.2905 -0.0588 -0.4541
  212ccc     C2 5759   2.735  10.098   7.075 -0.7389 -0.1285 -0.5904
  212ccc     H1 5760   2.860  10.104   6.891  0.9920 -3.5834 -1.8303
  212ccc     H2 5761   2.696  10.198   7.092 -2.5435 -0.5137 -2.1185
  212ccc     C3 5762   2.624  10.014   7.005 -0.0238  0.6629  0.2960
  212ccc     C4 5763   2.659   9.862   6.992 -0.0837 -0.4326  0.2497
  212ccc     C5 5764   2.785   9.857   6.907 -0.0891 -0.8040 -0.7204
  212ccc     H3 5765   2.678   9.821   7.092 -0.7835 -1.5576 -0.0572
  212ccc     H4 5766   2.623  10.046   6.900  0.0863  2.3283  0.7732
  212ccc     H5 5767   2.771   9.908   6.811  0.1946 -0.3175 -0.5099
  212ccc     O1 5768   2.826   9.718   6.878  0.5405 -0.4705  0.0478
  212ccc     O2 5769   2.558   9.784   6.922  0.6647 -0.3894 -0.0613
  212ccc     O3 5770   2.493  10.029   7.068  0.2357 -0.1710 -0.8106
  212ccc     O4 5771   2.751  10.054   7.214 -0.7694  0.7700  0.7646
  212ccc     C6 5772   3.002  10.140   7.052 -0.7324 -0.8264 -0.3079
  212ccc     H6 5773   2.426   9.982   7.015 -2.0082  1.3805  0.5109
  212ccc     H7 5774   2.847  10.056   7.233 -0.7821  1.5549  0.7719
  212ccc     H8 5775   2.589   9.742   6.840  1.7435 -1.0795  0.6769
  212ccc     H9 5776   2.992  10.248   7.063  0.8729 -0.8564  2.7961
  212ccc    H10 5777   3.079  10.121   6.976  0.6431  0.9880  0.5752
  212ccc     O5 5778   3.024  10.089   7.185 -0.6235  0.6604 -0.4619
  212ccc    H11 5779   3.110  10.128   7.207 -0.1953 -0.0955 -0.7618
  212ccc     O6 5780   2.887   9.928   6.980 -0.1129 -0.0156 -0.4666
  213ccc     C1 5781   2.413   9.459   6.420 -0.1313  0.2901 -0.1422
  213ccc     C2 5782   2.309   9.544   6.500 -0.0280 -0.0083 -0.3991
  213ccc     H1 5783   2.356   9.380   6.370 -1.6934  1.1434  0.2285
  213ccc     H2 5784   2.230   9.578   6.433  0.5473  0.6997 -0.7259
  213ccc     C3 5785   2.234   9.457   6.610 -0.3482 -0.1840  0.0686
  213ccc     C4 5786   2.344   9.377   6.692 -0.0432  0.7733  0.4406
  213ccc     C5 5787   2.447   9.301   6.601  0.3718 -0.4226  0.4443
  213ccc     H3 5788   2.414   9.447   6.738  1.9726 -1.1873  0.5140
  213ccc     H4 5789   2.170   9.390   6.551  1.4137 -2.8154  0.9643
  213ccc     H5 5790   2.407   9.219   6.541 -0.6145  0.6505 -0.4073
  213ccc     O1 5791   2.551   9.257   6.683  0.0236  0.5283 -0.1778
  213ccc     O2 5792   2.283   9.284   6.785 -0.1199  0.1331 -0.4075
  213ccc     O3 5793   2.159   9.541   6.700 -0.0181  0.2871  0.0818
  213ccc     O4 5794   2.381   9.652   6.569  0.4258 -0.4147  0.2170
  213ccc     C6 5795   2.482   9.548   6.312  0.5734 -0.3045 -0.5619
  213ccc     H6 5796   2.106   9.602   6.646 -0.1686  2.7292  2.7268
  213ccc     H7 5797   2.310   9.714   6.595 -0.5327 -1.8252  1.0952
  213ccc     H8 5798   2.360   9.258   6.838 -1.1305  1.3432  1.8188
  213ccc     H9 5799   2.558   9.616   6.353 -0.7504  1.3532 -0.7778
  213ccc    H10 5800   2.407   9.606   6.257  0.0670 -0.3033  0.1184
  213ccc     O5 5801   2.549   9.455   6.231  0.3186  0.2727  0.2750
  213ccc    H11 5802   2.595   9.504   6.161 -1.4322 -0.6584 -1.6302
  213ccc     O6 5803   2.513   9.399   6.512  0.3589 -0.2609  0.5978
  214ccc     C1 5804   2.974   7.183   5.097  0.0633  0.1791 -0.2765
  214ccc     C2 5805   2.922   7.316   5.155  0.7628  0.0754  0.2838
  214ccc     H1 5806   2.908   7.102   5.131 -0.7051 -0.0873 -2.2936
  214ccc     H2 5807   2.827   7.335   5.105  0.2395 -2.8328 -0.0188
  214ccc     C3 5808   2.900   7.289   5.310 -0.1925 -0.0269  0.2914
  214ccc     C4 5809   3.026   7.237   5.384 -0.6704  0.2721  0.7132
  214ccc     C5 5810   3.096   7.123   5.299 -0.0924 -0.0489  0.3497
  214ccc     H3 5811   3.102   7.316   5.386  0.0798 -0.4406  1.0413
  214ccc     H4 5812   2.826   7.208   5.313 -0.7474  0.4904  0.6900
  214ccc     H5 5813   3.037   7.032   5.317 -0.1500 -0.1636 -0.3989
  214ccc     O1 5814   3.233   7.108   5.347  0.1514  0.2755 -0.5146
  214ccc     O2 5815   2.995   7.192   5.514  0.1142  0.4326  0.6123
  214ccc     O3 5816   2.857   7.405   5.372  0.3604 -0.7556  0.1366
  214ccc     O4 5817   3.024   7.413   5.135  0.0529  0.0402 -0.2114
  214ccc     C6 5818   2.989   7.168   4.945  0.1470 -0.4911 -0.0875
  214ccc     H6 5819   2.818   7.380   5.458 -1.7884  5.1904  1.3110
  214ccc     H7 5820   2.977   7.488   5.176 -2.6644 -2.3359  1.3592
  214ccc     H8 5821   3.082   7.191   5.559  1.3411  1.8336 -1.5196
  214ccc     H9 5822   3.064   7.236   4.902  1.0603  0.6961  3.0749
  214ccc    H10 5823   2.889   7.185   4.905  0.2495  2.8090  0.8322
  214ccc     O5 5824   3.016   7.029   4.924 -0.3963 -0.4818 -0.2465
  214ccc    H11 5825   2.930   6.983   4.930  0.2130 -1.6165  0.2245
  214ccc     O6 5826   3.098   7.163   5.163  0.4541  0.3395 -0.1351
  215ccc     C1 5827   4.257   7.051   5.334  0.0555 -0.5307  0.5127
  215ccc     C2 5828   4.283   7.196   5.386  0.1080  0.1518 -0.6314
  215ccc     H1 5829   4.246   7.056   5.225  3.4282  1.5162  0.1112
  215ccc     H2 5830   4.359   7.247   5.325 -1.3519  0.2235 -2.4620
  215ccc     C3 5831   4.155   7.278   5.400  0.2389 -0.4761 -0.4010
  215ccc     C4 5832   4.039   7.207   5.476 -0.1651 -0.1092 -0.0454
  215ccc     C5 5833   4.019   7.065   5.420 -0.3419 -0.6288  0.0504
  215ccc     H3 5834   4.062   7.207   5.583  0.1467 -0.7992 -0.1048
  215ccc     H4 5835   4.120   7.315   5.303  1.0908  0.5894 -0.3320
  215ccc     H5 5836   3.971   7.063   5.321 -0.1407 -1.2834 -0.0410
  215ccc     O1 5837   3.930   7.002   5.506  0.3572  0.2057 -0.0458
  215ccc     O2 5838   3.915   7.295   5.466 -0.1343  0.0158 -0.4875
  215ccc     O3 5839   4.191   7.395   5.476  0.2381  0.5055 -0.6152
  215ccc     O4 5840   4.333   7.184   5.523  0.5494  0.3731 -0.2911
  215ccc     C6 5841   4.377   6.958   5.358 -0.6715  0.4672 -0.1303
  215ccc     H6 5842   4.162   7.470   5.422 -0.2482  0.0910 -0.9325
  215ccc     H7 5843   4.302   7.270   5.558 -0.8119 -0.3246  0.2655
  215ccc     H8 5844   3.929   7.382   5.509 -1.0263  0.5804 -1.3021
  215ccc     H9 5845   4.375   6.923   5.462 -0.1691  2.2943  0.5445
  215ccc    H10 5846   4.468   7.017   5.346  0.1912 -0.2223  2.4485
  215ccc     O5 5847   4.367   6.847   5.272  0.3800  0.6845  0.1302
  215ccc    H11 5848   4.459   6.819   5.260 -0.1719 -1.9541  1.3917
  215ccc     O6 5849   4.147   6.995   5.413  0.2971 -0.2955 -0.2930
  216ccc     C1 5850   4.437   6.363   5.852  0.1190 -1.2006  0.3814
  216ccc     C2 5851   4.391   6.328   5.711  0.1303  0.2648  0.2281
  216ccc     H1 5852   4.516   6.291   5.880  0.4678 -1.1555 -0.4615
  216ccc     H2 5853   4.479   6.322   5.646 -0.5176 -0.6968 -0.5821
  216ccc     C3 5854   4.322   6.190   5.703  0.7796 -0.1528 -1.0791
  216ccc     C4 5855   4.221   6.183   5.819 -0.3203  0.3551  0.5142
  216ccc     C5 5856   4.266   6.229   5.958 -0.6216 -0.3760  0.0089
  216ccc     H3 5857   4.135   6.245   5.791  1.2600  1.8142 -1.3371
  216ccc     H4 5858   4.396   6.114   5.730  1.4802  0.6446 -0.7041
  216ccc     H5 5859   4.338   6.163   6.008 -0.7429  1.0437  2.1909
  216ccc     O1 5860   4.153   6.239   6.046 -0.0477 -0.5243  0.1953
  216ccc     O2 5861   4.182   6.043   5.839  0.4591  0.1989  0.1122
  216ccc     O3 5862   4.256   6.167   5.576 -0.1453 -0.2531  0.2916
  216ccc     O4 5863   4.301   6.419   5.651  0.2446 -0.2002 -0.0354
  216ccc     C6 5864   4.517   6.492   5.848  0.8241 -0.7104 -0.3146
  216ccc     H6 5865   4.245   6.071   5.564 -0.3507 -0.1117 -0.7428
  216ccc     H7 5866   4.252   6.353   5.598 -0.1355  0.3646 -0.4055
  216ccc     H8 5867   4.097   6.052   5.886  0.7267  0.8362  0.4981
  216ccc     H9 5868   4.609   6.477   5.791 -0.6628  0.5856 -3.3052
  216ccc    H10 5869   4.533   6.515   5.954 -1.7242 -0.0057 -0.0077
  216ccc     O5 5870   4.436   6.589   5.792 -0.0296  0.1374  0.5756
  216ccc    H11 5871   4.382   6.528   5.738  0.3018 -0.8511  1.3175
  216ccc     O6 5872   4.326   6.360   5.950 -0.1230  0.0483  0.7267
  217ccc     C1 5873   4.550   7.173   5.993  0.2973  0.4254  0.0126
  217ccc     C2 5874   4.537   7.174   5.837 -0.5315 -0.0328 -0.2173
  217ccc     H1 5875   4.657   7.168   6.015  0.1575 -0.4933  0.5378
  217ccc     H2 5876   4.600   7.247   5.786 -0.1006 -0.0226  0.3270
  217ccc     C3 5877   4.587   7.049   5.764 -0.0153  0.5520 -0.2182
  217ccc     C4 5878   4.524   6.924   5.834 -0.7239 -0.1563  0.5579
  217ccc     C5 5879   4.538   6.924   5.988  0.4007  0.0578 -0.4443
  217ccc     H3 5880   4.418   6.912   5.812 -0.5099 -0.1674 -0.5363
  217ccc     H4 5881   4.694   7.040   5.785 -0.6083  0.2075  3.1904
  217ccc     H5 5882   4.643   6.916   6.015  0.5016  1.6232 -0.2582
  217ccc     O1 5883   4.452   6.820   6.041  0.5693  0.1035  0.1799
  217ccc     O2 5884   4.589   6.812   5.774 -0.3512  0.5939 -0.2067
  217ccc     O3 5885   4.565   7.065   5.623  0.4291  0.8367  0.2833
  217ccc     O4 5886   4.402   7.183   5.798 -0.4576  0.3639  0.0335
  217ccc     C6 5887   4.497   7.298   6.064 -0.2309 -0.7339 -0.6706
  217ccc     H6 5888   4.479   7.109   5.615  0.1108 -0.0454 -2.0725
  217ccc     H7 5889   4.374   7.237   5.874  1.7329 -1.2493  2.1241
  217ccc     H8 5890   4.535   6.736   5.803  1.1730 -0.2977  0.4164
  217ccc     H9 5891   4.576   7.370   6.039 -0.4340 -0.2352  0.0885
  217ccc    H10 5892   4.493   7.291   6.173 -1.6577  0.1660 -0.6333
  217ccc     O5 5893   4.380   7.338   6.007  0.0319 -0.6733 -0.1029
  217ccc    H11 5894   4.310   7.330   6.074 -0.3530 -0.4045 -0.4642
  217ccc     O6 5895   4.483   7.049   6.037  0.0312 -0.5398 -0.5293
  218ccc     C1 5896   3.990   6.581   4.184  0.3780  1.1325 -0.9589
  218ccc     C2 5897   4.111   6.656   4.120 -0.2061  0.0585 -0.0099
  218ccc     H1 5898   3.903   6.648   4.179  0.4465  1.1449 -2.9202
  218ccc     H2 5899   4.077   6.681   4.018 -1.3878 -0.7751  0.1548
  218ccc     C3 5900   4.143   6.781   4.209 -0.4698  0.5591 -0.2785
  218ccc     C4 5901   4.156   6.741   4.357  0.5801 -0.0197 -0.1930
  218ccc     C5 5902   4.036   6.651   4.413  0.1019 -0.3176 -0.0231
  218ccc     H3 5903   4.238   6.668   4.356 -0.3728 -1.1209 -0.5233
  218ccc     H4 5904   4.058   6.849   4.199 -1.4189 -0.1436  2.1262
  218ccc     H5 5905   3.944   6.702   4.442 -0.0921 -0.8467  0.3143
  218ccc     O1 5906   4.081   6.578   4.527  0.6856  0.6510 -0.0478
  218ccc     O2 5907   4.169   6.867   4.433 -0.3564 -0.3244 -0.1716
  218ccc     O3 5908   4.273   6.839   4.184 -0.0110 -0.4347 -0.1159
  218ccc     O4 5909   4.217   6.559   4.112 -0.4556 -0.3445  0.8194
  218ccc     C6 5910   3.954   6.456   4.103  0.1930  0.1481  0.0333
  218ccc     H6 5911   4.257   6.928   4.220 -0.9063 -1.0109  0.9386
  218ccc     H7 5912   4.176   6.472   4.126 -0.7116 -0.0747  1.8093
  218ccc     H8 5913   4.264   6.888   4.437 -0.7045  1.5477 -0.6906
  218ccc     H9 5914   3.936   6.484   3.998  1.4845 -3.3823 -1.2720
  218ccc    H10 5915   3.871   6.412   4.159 -0.3207  3.1740  1.8716
  218ccc     O5 5916   4.060   6.358   4.096 -0.2398  0.2258  0.6199
  218ccc    H11 5917   4.007   6.281   4.067  0.1675  0.4710 -0.8370
  218ccc     O6 5918   4.017   6.544   4.323  0.2247 -0.3082  0.1632
  219ccc     C1 5919   4.032   5.944   5.397 -0.2317  0.2860  0.7839
  219ccc     C2 5920   3.908   5.868   5.322  0.4932 -0.3658  0.0449
  219ccc     H1 5921   4.000   5.990   5.492  2.4960  0.8767  1.4890
  219ccc     H2 5922   3.849   5.810   5.395 -0.5380  1.0237  0.3807
  219ccc     C3 5923   3.811   5.979   5.272 -0.2998 -0.3989 -0.4761
  219ccc     C4 5924   3.886   6.076   5.173 -0.1898 -0.1178 -0.2332
  219ccc     C5 5925   4.005   6.146   5.249  0.3408 -0.3203 -0.2280
  219ccc     H3 5926   3.929   6.016   5.092  0.0265  0.5103 -0.5915
  219ccc     H4 5927   3.776   6.033   5.361 -0.7925  1.5882 -1.8092
  219ccc     H5 5928   3.958   6.215   5.321  0.3381 -0.9405  0.3825
  219ccc     O1 5929   4.088   6.225   5.158  0.3357 -0.0742 -0.3765
  219ccc     O2 5930   3.797   6.182   5.119 -0.3379 -0.0641  1.1674
  219ccc     O3 5931   3.697   5.920   5.209  0.4654  0.5217  0.2778
  219ccc     O4 5932   3.962   5.802   5.217 -0.3976  0.1229 -0.0293
  219ccc     C6 5933   4.143   5.839   5.442  0.3765 -1.1985  0.4829
  219ccc     H6 5934   3.640   5.901   5.286  0.4229 -0.9448 -0.0990
  219ccc     H7 5935   3.890   5.745   5.184 -0.3959 -0.1554  0.4453
  219ccc     H8 5936   3.704   6.155   5.118 -0.2606 -0.4127 -0.8793
  219ccc     H9 5937   4.194   5.795   5.356 -1.3115  0.6702 -1.5777
  219ccc    H10 5938   4.098   5.760   5.503  1.1597 -0.5504  1.9703
  219ccc     O5 5939   4.247   5.912   5.523 -0.2896  0.3891  0.5046
  219ccc    H11 5940   4.316   5.847   5.541 -1.5301 -1.0983  0.1409
  219ccc     O6 5941   4.085   6.046   5.312 -0.9708  0.3973  0.4159
  220ccc     C1 5942   3.309   7.468   5.629 -0.2584  0.4873 -0.1508
  220ccc     C2 5943   3.187   7.559   5.646 -0.1611  0.1115  0.1044
  220ccc     H1 5944   3.393   7.531   5.663 -0.4665  1.0102 -0.5975
  220ccc     H2 5945   3.177   7.601   5.747 -2.4035  1.8960 -0.8035
  220ccc     C3 5946   3.192   7.681   5.543 -0.4224 -1.1709 -0.2481
  220ccc     C4 5947   3.216   7.633   5.395 -0.0380  0.4707  0.9124
  220ccc     C5 5948   3.340   7.534   5.391 -0.1608 -0.5453  0.4745
  220ccc     H3 5949   3.127   7.583   5.353  0.5598  1.4588 -1.7256
  220ccc     H4 5950   3.276   7.744   5.576 -1.5435  1.4147 -2.0030
  220ccc     H5 5951   3.429   7.592   5.417  0.7089 -2.1097  1.0661
  220ccc     O1 5952   3.366   7.475   5.261 -0.1793  0.6996 -0.3152
  220ccc     O2 5953   3.252   7.748   5.325 -0.1650  0.0842 -0.1438
  220ccc     O3 5954   3.079   7.766   5.556  0.2908 -0.2755 -0.2044
  220ccc     O4 5955   3.082   7.471   5.607  0.3316  0.0221 -0.3023
  220ccc     C6 5956   3.316   7.330   5.706 -0.0842  0.0590 -0.2139
  220ccc     H6 5957   2.990   7.727   5.549 -0.1258  0.8318 -1.8033
  220ccc     H7 5958   3.129   7.386   5.618 -0.8227 -0.5629  0.2974
  220ccc     H8 5959   3.169   7.796   5.314 -0.3202  0.8150  3.2340
  220ccc     H9 5960   3.307   7.339   5.815  1.8964  1.2033 -0.0906
  220ccc    H10 5961   3.411   7.282   5.679  0.4341  1.2188 -0.5181
  220ccc     O5 5962   3.209   7.250   5.663 -0.2386  0.3407 -0.0273
  220ccc    H11 5963   3.210   7.171   5.719  0.5122 -0.0816 -0.6275
  220ccc     O6 5964   3.324   7.432   5.497 -0.1466 -0.2174  0.7043
  221ccc     C1 5965   3.964   7.806   5.345  0.5270 -0.1783  0.6520
  221ccc     C2 5966   4.006   7.687   5.437 -0.1310  0.2731  0.3129
  221ccc     H1 5967   3.947   7.895   5.406  0.5313 -0.6050  1.2866
  221ccc     H2 5968   4.092   7.717   5.498 -0.3395 -2.1920  1.9731
  221ccc     C3 5969   3.884   7.633   5.519 -0.5806 -0.4951 -0.1818
  221ccc     C4 5970   3.767   7.594   5.427  0.6033 -0.6981  0.1558
  221ccc     C5 5971   3.737   7.702   5.319 -0.2623 -0.3192 -0.5554
  221ccc     H3 5972   3.791   7.508   5.363  2.1114 -1.4252  1.6263
  221ccc     H4 5973   3.847   7.715   5.582  0.8134 -0.2035  0.2987
  221ccc     H5 5974   3.675   7.777   5.369 -1.4021 -1.4846 -0.1715
  221ccc     O1 5975   3.663   7.657   5.211 -0.3606  0.1471 -0.1055
  221ccc     O2 5976   3.647   7.574   5.497  0.7451 -0.1470  0.0079
  221ccc     O3 5977   3.927   7.519   5.601  0.4860  0.0078 -0.7822
  221ccc     O4 5978   4.052   7.583   5.353  0.1174 -0.3887  0.2690
  221ccc     C6 5979   4.076   7.857   5.254  0.8210  0.0618  0.1626
  221ccc     H6 5980   3.970   7.555   5.681 -0.3393 -2.6949  1.0318
  221ccc     H7 5981   4.079   7.636   5.276 -0.4397  1.9597  1.6187
  221ccc     H8 5982   3.637   7.643   5.565  1.6848 -0.4038  0.4237
  221ccc     H9 5983   4.156   7.891   5.320  1.3838 -1.2440  0.1694
  221ccc    H10 5984   4.049   7.945   5.194 -0.4970  0.7007  1.6088
  221ccc     O5 5985   4.127   7.747   5.183 -0.2801 -0.1550  0.0283
  221ccc    H11 5986   4.210   7.783   5.145  0.0432  0.1528  1.0061
  221ccc     O6 5987   3.857   7.765   5.263 -1.0492  0.1218  0.9551
  222ccc     C1 5988   3.256   7.152   9.594 -0.7277 -0.4838 -0.4784
  222ccc     C2 5989   3.359   7.124   9.708  0.2769 -0.3979 -0.1478
  222ccc     H1 5990   3.299   7.217   9.517 -1.8468  2.5917  1.3148
  222ccc     H2 5991   3.448   7.079   9.662  0.5324  1.3978 -1.5190
  222ccc     C3 5992   3.403   7.261   9.770  0.5811  0.2079  0.3375
  222ccc     C4 5993   3.285   7.346   9.803  0.5175  0.3185 -0.0730
  222ccc     C5 5994   3.187   7.356   9.687  0.4635  0.4089 -0.3253
  222ccc     H3 5995   3.219   7.305   9.880 -0.4604  1.4861 -0.2733
  222ccc     H4 5996   3.469   7.307   9.694  1.1230  1.0147  1.2735
  222ccc     H5 5997   3.228   7.413   9.602  1.0059 -0.0305 -0.3623
  222ccc     O1 5998   3.066   7.415   9.734  0.0402  0.3502  0.1624
  222ccc     O2 5999   3.332   7.476   9.844  0.4656  0.0429  1.2243
  222ccc     O3 6000   3.485   7.240   9.885  0.0781 -0.2299  0.7772
  222ccc     O4 6001   3.289   7.039   9.801 -0.0373  0.0219 -0.1358
  222ccc     C6 6002   3.220   7.024   9.526  0.1809  0.3471 -0.1565
  222ccc     H6 6003   3.550   7.177   9.850 -1.1816 -0.8067 -0.6488
  222ccc     H7 6004   3.322   7.052   9.892  0.4195  0.3491 -0.3509
  222ccc     H8 6005   3.255   7.522   9.881  0.4086  0.0464  1.1041
  222ccc     H9 6006   3.147   6.979   9.594  0.5213 -0.5670 -0.3905
  222ccc    H10 6007   3.308   6.961   9.511  2.3163  3.0281  0.3487
  222ccc     O5 6008   3.157   7.061   9.406  0.2271 -0.1608 -0.1971
  222ccc    H11 6009   3.135   6.979   9.358  2.8320 -1.4031  0.5478
  222ccc     O6 6010   3.151   7.226   9.648  0.0683 -0.3129  0.2103
  223ccc     C1 6011   2.040   7.712   9.585 -0.2322 -0.3393 -0.6406
  223ccc     C2 6012   1.993   7.605   9.689 -0.1450  0.4212  0.0995
  223ccc     H1 6013   2.017   7.688   9.481 -0.4871  2.5470 -1.3295
  223ccc     H2 6014   1.886   7.585   9.671  0.5872 -2.0374 -2.1062
  223ccc     C3 6015   2.072   7.473   9.663 -0.2557  0.0452 -0.5137
  223ccc     C4 6016   2.227   7.503   9.670 -0.3691  0.3003 -0.2618
  223ccc     C5 6017   2.275   7.620   9.581 -0.4849 -0.1568 -0.4534
  223ccc     H3 6018   2.239   7.539   9.773  0.3117 -0.5778 -0.0198
  223ccc     H4 6019   2.049   7.451   9.558 -2.3366  1.4544 -0.4000
  223ccc     H5 6020   2.264   7.578   9.480  0.1686 -0.1259 -0.5374
  223ccc     O1 6021   2.415   7.645   9.613  0.1412 -0.1329  0.0571
  223ccc     O2 6022   2.295   7.378   9.638  0.3168 -0.0955  0.6041
  223ccc     O3 6023   2.028   7.360   9.748 -0.3694  0.0068 -0.4520
  223ccc     O4 6024   2.026   7.664   9.814 -0.0304 -0.2500  0.3798
  223ccc     C6 6025   1.978   7.847   9.616  0.1599 -1.4869  0.4920
  223ccc     H6 6026   2.074   7.281   9.714 -0.5606 -0.6679  0.7927
  223ccc     H7 6027   1.947   7.641   9.867 -1.0099  0.1424 -0.8627
  223ccc     H8 6028   2.295   7.339   9.727 -1.8368  1.8326  1.5602
  223ccc     H9 6029   2.052   7.915   9.659 -0.8405 -0.9094  1.3634
  223ccc    H10 6030   1.884   7.848   9.674 -0.6977  1.1940 -0.7676
  223ccc     O5 6031   1.936   7.897   9.491  0.3325 -0.1576  0.1795
  223ccc    H11 6032   2.021   7.903   9.443 -0.0673 -0.2090 -0.5467
  223ccc     O6 6033   2.185   7.731   9.601 -0.6875  0.3721  0.2275
  224ccc     C1 6034   3.813   8.644  10.748  0.1104 -0.5767  0.6479
  224ccc     C2 6035   3.937   8.567  10.805  0.1651 -0.5097 -0.2835
  224ccc     H1 6036   3.734   8.635  10.823 -0.5284 -0.7645 -0.0376
  224ccc     H2 6037   3.962   8.611  10.902 -1.4416 -2.4091  1.0710
  224ccc     C3 6038   3.901   8.419  10.822  0.4852  0.1552  0.3025
  224ccc     C4 6039   3.844   8.347  10.691 -0.4215  0.2629 -0.6987
  224ccc     C5 6040   3.735   8.437  10.634  0.6758 -0.5974 -0.0880
  224ccc     H3 6041   3.927   8.337  10.621  0.3765  2.2876 -0.1101
  224ccc     H4 6042   3.815   8.410  10.891  0.4978 -1.4156  0.1549
  224ccc     H5 6043   3.639   8.428  10.686 -0.4670 -0.9067 -2.1157
  224ccc     O1 6044   3.715   8.392  10.503 -0.0691  0.8464 -0.3720
  224ccc     O2 6045   3.804   8.217  10.729  0.3816 -0.8211 -0.1064
  224ccc     O3 6046   4.016   8.350  10.873 -0.3807 -0.3934  0.2308
  224ccc     O4 6047   4.042   8.581  10.702  0.5448  0.5078  0.1607
  224ccc     C6 6048   3.840   8.793  10.717  0.0427 -0.2033  0.5334
  224ccc     H6 6049   3.977   8.265  10.900  0.1696 -0.1752  1.8404
  224ccc     H7 6050   4.104   8.509  10.723 -0.9163 -1.4394 -1.7756
  224ccc     H8 6051   3.871   8.160  10.688  0.7563 -1.2351  1.0253
  224ccc     H9 6052   3.941   8.807  10.679  0.5482 -1.2050  1.4346
  224ccc    H10 6053   3.836   8.852  10.809  0.1903  2.2543 -0.9557
  224ccc     O5 6054   3.736   8.837  10.633 -0.6283  0.1437 -0.0331
  224ccc    H11 6055   3.767   8.823  10.542 -0.6589  0.8392 -0.1590
  224ccc     O6 6056   3.776   8.577  10.623 -0.2066  0.2936 -0.0646
  225ccc     C1 6057   3.749   7.496  10.471 -0.1389 -0.3686 -0.0293
  225ccc     C2 6058   3.708   7.386  10.370  0.2644 -0.1384 -0.3410
  225ccc     H1 6059   3.660   7.519  10.530 -0.8176 -0.1657 -1.0999
  225ccc     H2 6060   3.649   7.318  10.432  1.6631 -0.0170  1.1986
  225ccc     C3 6061   3.620   7.434  10.258  0.3717 -0.2326  0.2719
  225ccc     C4 6062   3.655   7.580  10.205 -0.5054  0.0810 -0.5429
  225ccc     C5 6063   3.699   7.682  10.318 -0.4172  0.5677  0.7728
  225ccc     H3 6064   3.746   7.569  10.146  0.5279 -0.5192  1.0735
  225ccc     H4 6065   3.524   7.439  10.311 -0.4826  2.6518 -1.3376
  225ccc     H5 6066   3.606   7.704  10.372 -1.4134  0.6444 -0.9102
  225ccc     O1 6067   3.755   7.799  10.256 -0.2745  0.2850 -0.0366
  225ccc     O2 6068   3.539   7.632  10.133  0.0996 -0.1050 -0.3988
  225ccc     O3 6069   3.613   7.333  10.147 -0.3026  0.3079 -0.2068
  225ccc     O4 6070   3.821   7.319  10.327  0.6064  0.1460  0.6612
  225ccc     C6 6071   3.852   7.451  10.579  0.2526  0.2592  0.2260
  225ccc     H6 6072   3.590   7.253  10.198  0.1016 -0.0619 -0.5907
  225ccc     H7 6073   3.895   7.339  10.387  1.0022  3.8026 -0.7824
  225ccc     H8 6074   3.582   7.709  10.092 -1.0885  1.0923  0.5134
  225ccc     H9 6075   3.822   7.357  10.627 -0.0911  0.1314 -0.2307
  225ccc    H10 6076   3.866   7.530  10.654  1.2403 -0.2195  0.5647
  225ccc     O5 6077   3.979   7.433  10.513 -0.0243  0.6691  0.5373
  225ccc    H11 6078   4.026   7.411  10.596 -0.8460  0.8067  1.0560
  225ccc     O6 6079   3.802   7.614  10.399 -0.1087  0.3549  0.8785
  226ccc     C1 6080   4.416   9.352  10.838  0.1199  0.0688  0.2260
  226ccc     C2 6081   4.428   9.359  10.993 -0.1924  0.6212 -0.2907
  226ccc     H1 6082   4.361   9.441  10.802  3.6939  2.9128  1.1395
  226ccc     H2 6083   4.473   9.452  11.030 -1.0756  0.3552  1.6129
  226ccc     C3 6084   4.287   9.365  11.060  0.3152  0.6092 -0.0126
  226ccc     C4 6085   4.207   9.244  10.997 -0.6197 -0.5069  0.1044
  226ccc     C5 6086   4.217   9.223  10.843 -0.1492 -0.1048 -0.0452
  226ccc     H3 6087   4.255   9.163  11.053  0.5250 -0.7696 -1.2102
  226ccc     H4 6088   4.240   9.458  11.025  2.5382  1.6872 -0.3136
  226ccc     H5 6089   4.160   9.304  10.795  1.7374  1.0478 -0.4369
  226ccc     O1 6090   4.153   9.090  10.815  0.2865 -0.0811  0.0441
  226ccc     O2 6091   4.071   9.251  11.035  0.4114 -0.2524 -0.0445
  226ccc     O3 6092   4.285   9.360  11.203 -0.3201  0.2890 -0.0086
  226ccc     O4 6093   4.510   9.245  11.037  0.1710  0.0720 -0.0326
  226ccc     C6 6094   4.551   9.368  10.757  0.6892 -0.5644  0.5397
  226ccc     H6 6095   4.204   9.411  11.224 -0.3010  0.0278  0.7247
  226ccc     H7 6096   4.570   9.223  10.963 -0.9958  0.9610 -1.2918
  226ccc     H8 6097   4.030   9.165  11.016 -1.9472  1.0764 -1.6575
  226ccc     H9 6098   4.594   9.467  10.776 -1.5364  0.0499  2.9518
  226ccc    H10 6099   4.536   9.353  10.649  0.9214 -1.0150  0.5670
  226ccc     O5 6100   4.639   9.268  10.805  0.2694  0.8150  0.2714
  226ccc    H11 6101   4.703   9.269  10.732 -2.1874 -0.1054 -2.1041
  226ccc     O6 6102   4.349   9.229  10.807  0.9114  0.0998  0.9053
  227ccc     C1 6103   3.871   9.695  10.846 -0.8093 -0.4926  0.4649
  227ccc     C2 6104   3.885   9.650  10.994  0.0918  0.6835 -0.3711
  227ccc     H1 6105   3.798   9.777  10.841  1.8683  2.0529  0.3537
  227ccc     H2 6106   3.902   9.732  11.065 -0.2669  0.7933 -0.4119
  227ccc     C3 6107   3.756   9.583  11.045  0.8636  0.3223  0.4185
  227ccc     C4 6108   3.679   9.483  10.943  0.0371  0.1543 -0.2458
  227ccc     C5 6109   3.686   9.540  10.798 -0.4900 -0.2532 -0.1409
  227ccc     H3 6110   3.745   9.396  10.940  1.6342  1.2158  1.5044
  227ccc     H4 6111   3.691   9.667  11.071  0.6299 -0.1877  1.5865
  227ccc     H5 6112   3.623   9.630  10.789 -0.0604 -0.0540 -1.3651
  227ccc     O1 6113   3.647   9.431  10.711  0.0745  0.3580 -0.4355
  227ccc     O2 6114   3.544   9.451  10.988 -0.4784  0.1762  0.1317
  227ccc     O3 6115   3.776   9.509  11.165  0.3290  0.5614  0.0484
  227ccc     O4 6116   3.991   9.557  11.000 -0.2897 -0.6741  0.1673
  227ccc     C6 6117   4.002   9.743  10.779 -0.7128 -0.2289 -0.3541
  227ccc     H6 6118   3.785   9.569  11.242 -0.0905  0.9666 -0.2143
  227ccc     H7 6119   3.983   9.497  11.076  3.0949  0.1610  1.3412
  227ccc     H8 6120   3.507   9.402  10.912 -0.6530  0.3504  0.1009
  227ccc     H9 6121   4.041   9.825  10.840 -2.5283  0.0892  0.4443
  227ccc    H10 6122   3.979   9.776  10.677 -1.6218 -3.0929 -1.1858
  227ccc     O5 6123   4.092   9.629  10.780 -0.0438  0.1293  0.7974
  227ccc    H11 6124   4.058   9.576  10.853 -0.4443  0.6746  1.0068
  227ccc     O6 6125   3.816   9.582  10.764 -0.5311  0.7522  0.0967
  228ccc     C1 6126   4.129   8.769  11.452  0.4008 -0.5024  0.6794
  228ccc     C2 6127   4.110   8.920  11.480 -0.8298  0.6436 -0.1312
  228ccc     H1 6128   4.210   8.739  11.520  0.2474  1.1271  1.6464
  228ccc     H2 6129   4.095   8.939  11.587 -1.7458  0.9937 -0.3053
  228ccc     C3 6130   4.245   8.995  11.448  0.3610 -0.1945 -0.0549
  228ccc     C4 6131   4.281   8.963  11.297 -0.5676 -0.7159 -0.6543
  228ccc     C5 6132   4.297   8.810  11.274 -0.5037 -0.7189 -0.1573
  228ccc     H3 6133   4.200   9.003  11.234  0.0764 -0.5580 -1.3924
  228ccc     H4 6134   4.327   8.961  11.511 -1.1257  0.4527  2.3343
  228ccc     H5 6135   4.374   8.766  11.338  0.8126 -1.1698 -1.9847
  228ccc     O1 6136   4.334   8.795  11.130 -0.4146 -0.4088 -0.0868
  228ccc     O2 6137   4.405   9.039  11.272 -0.3358  0.1266 -0.0584
  228ccc     O3 6138   4.230   9.129  11.489 -0.2684 -0.2368 -0.2257
  228ccc     O4 6139   4.001   8.959  11.393  0.3838 -0.0259  0.6778
  228ccc     C6 6140   4.006   8.680  11.474 -0.0182  0.3160 -0.4524
  228ccc     H6 6141   4.316   9.168  11.466 -0.8001 -0.2205 -2.4317
  228ccc     H7 6142   4.005   9.056  11.391 -0.1187  0.0369  2.0815
  228ccc     H8 6143   4.479   8.998  11.321  2.1546  3.0330 -1.0585
  228ccc     H9 6144   3.944   8.688  11.384  1.6031 -1.6042 -1.8174
  228ccc    H10 6145   3.950   8.719  11.560 -1.0113  0.1036 -0.9835
  228ccc     O5 6146   4.054   8.541  11.476  0.2523 -0.9198 -0.7381
  228ccc    H11 6147   3.966   8.509  11.503  0.1497  0.1946  0.3338
  228ccc     O6 6148   4.172   8.753  11.308  0.8386 -0.2759  0.2032
  229ccc     C1 6149   4.719   9.250  11.400 -0.1057  0.1932  0.7003
  229ccc     C2 6150   4.732   9.393  11.350 -0.1883  0.4572  0.6813
  229ccc     H1 6151   4.811   9.225  11.454  0.8333  0.0256 -0.9335
  229ccc     H2 6152   4.715   9.464  11.432  0.4077  0.8813  0.4430
  229ccc     C3 6153   4.862   9.410  11.272  0.3840 -0.2623  0.3791
  229ccc     C4 6154   4.868   9.310  11.154  0.2834 -0.3209 -0.2814
  229ccc     C5 6155   4.824   9.167  11.194  0.6945 -0.6096  0.0435
  229ccc     H3 6156   4.798   9.337  11.074  1.3648  0.0592 -1.1280
  229ccc     H4 6157   4.947   9.385  11.337  1.3782 -2.2934 -1.5751
  229ccc     H5 6158   4.912   9.126  11.244  0.8199 -0.0175  0.3205
  229ccc     O1 6159   4.802   9.086  11.081  0.1493 -0.1373  0.0949
  229ccc     O2 6160   4.997   9.307  11.099  0.9000 -0.2672 -0.8429
  229ccc     O3 6161   4.874   9.549  11.221  0.0323  0.1381 -0.1921
  229ccc     O4 6162   4.617   9.412  11.264 -0.1810 -0.0026 -0.4470
  229ccc     C6 6163   4.616   9.224  11.513 -0.0303  0.0331 -0.1655
  229ccc     H6 6164   4.960   9.552  11.175 -0.3189 -0.4833 -0.9233
  229ccc     H7 6165   4.630   9.500  11.224 -0.0036 -0.3573 -1.1864
  229ccc     H8 6166   5.022   9.215  11.076  1.2341  0.0332 -1.7441
  229ccc     H9 6167   4.637   9.286  11.601 -0.5815 -0.7045  0.5017
  229ccc    H10 6168   4.633   9.118  11.535 -1.3303 -0.4904 -1.5010
  229ccc     O5 6169   4.482   9.244  11.464 -0.3459 -0.4387 -0.0932
  229ccc    H11 6170   4.462   9.336  11.488  0.5518 -0.4512  0.7501
  229ccc     O6 6171   4.709   9.160  11.285  0.4222 -0.1848  0.0824
  230ccc     C1 6172   6.032   8.368   8.433  0.3632  0.6628  0.1227
  230ccc     C2 6173   6.118   8.245   8.477  0.4034 -0.0471  0.5762
  230ccc     H1 6174   6.100   8.454   8.433  1.5132 -0.2002 -1.0736
  230ccc     H2 6175   6.194   8.222   8.401 -0.6873 -1.2664 -0.1886
  230ccc     C3 6176   6.175   8.270   8.613  0.2610 -0.1807 -0.3024
  230ccc     C4 6177   6.062   8.303   8.715 -0.1686 -0.1830  0.4084
  230ccc     C5 6178   5.965   8.414   8.661 -0.2565 -0.3070  0.7105
  230ccc     H3 6179   6.002   8.211   8.721 -1.2252  0.5092  0.7191
  230ccc     H4 6180   6.236   8.361   8.616  1.9081 -1.1961 -1.6161
  230ccc     H5 6181   6.014   8.511   8.670 -0.3403 -0.2442  0.5076
  230ccc     O1 6182   5.850   8.416   8.753  0.4295  0.1742 -0.0365
  230ccc     O2 6183   6.122   8.344   8.840 -0.1920  0.3791 -0.0110
  230ccc     O3 6184   6.262   8.158   8.656 -1.0316 -0.0991 -0.0051
  230ccc     O4 6185   6.027   8.140   8.483  0.0961 -0.0003 -0.2201
  230ccc     C6 6186   5.960   8.352   8.299 -0.0064  0.3673  0.5125
  230ccc     H6 6187   6.215   8.073   8.662 -0.6324 -0.5694 -2.6257
  230ccc     H7 6188   5.953   8.170   8.427 -1.7913 -0.2597  1.9705
  230ccc     H8 6189   6.177   8.264   8.856 -1.6121 -0.6362 -0.0329
  230ccc     H9 6190   6.033   8.331   8.220  0.1112  2.3059  0.0749
  230ccc    H10 6191   5.909   8.441   8.261  0.0946  0.0471 -0.3850
  230ccc     O5 6192   5.864   8.245   8.305  0.2672  0.5385 -0.1818
  230ccc    H11 6193   5.821   8.239   8.218  1.4306  2.8749 -1.0121
  230ccc     O6 6194   5.922   8.391   8.524  0.1413 -0.0480 -0.4349
  231ccc     C1 6195   5.314   8.971   9.533  0.2321  0.0889  0.6434
  231ccc     C2 6196   5.401   9.100   9.542 -0.7312  0.3177  0.0514
  231ccc     H1 6197   5.311   8.909   9.624 -2.8695 -1.2436 -0.2180
  231ccc     H2 6198   5.372   9.136   9.641 -0.3712  0.4611  0.1034
  231ccc     C3 6199   5.548   9.069   9.542 -0.7481  0.5246  0.4105
  231ccc     C4 6200   5.603   8.957   9.447  0.1831  0.1217 -0.1808
  231ccc     C5 6201   5.494   8.851   9.414  0.1733  0.0011 -0.9407
  231ccc     H3 6202   5.615   9.016   9.356 -1.1699 -0.5784 -0.8410
  231ccc     H4 6203   5.566   9.034   9.644  0.6013  2.7372  0.9772
  231ccc     H5 6204   5.507   8.769   9.485 -1.8992 -0.3633 -0.9358
  231ccc     O1 6205   5.528   8.800   9.291 -0.1612 -0.2468  0.0497
  231ccc     O2 6206   5.725   8.900   9.498 -0.3114 -0.1165  0.3520
  231ccc     O3 6207   5.625   9.188   9.516 -0.3262 -0.0501 -0.1486
  231ccc     O4 6208   5.378   9.209   9.446 -0.6312  0.4711  0.0587
  231ccc     C6 6209   5.162   9.012   9.515 -0.4366  0.4993  0.4765
  231ccc     H6 6210   5.681   9.198   9.595  1.4469 -0.6497 -1.2539
  231ccc     H7 6211   5.470   9.239   9.446 -0.4330 -0.1123 -0.1258
  231ccc     H8 6212   5.720   8.876   9.593 -1.9799 -0.6436  0.1617
  231ccc     H9 6213   5.147   9.060   9.418  1.3369  0.7316  0.2769
  231ccc    H10 6214   5.136   9.079   9.597  0.5629 -1.1492  2.2282
  231ccc     O5 6215   5.079   8.898   9.529 -0.3776  0.1702 -0.0982
  231ccc    H11 6216   4.996   8.933   9.492 -0.0209  0.6792 -0.4361
  231ccc     O6 6217   5.357   8.898   9.410  0.4272  0.3106  0.4201
  232ccc     C1 6218   5.631   7.977   9.922  0.0984 -0.7383  1.1324
  232ccc     C2 6219   5.511   8.062   9.878 -0.9699  0.4254  0.6834
  232ccc     H1 6220   5.720   8.040   9.924  0.3946 -1.1674  2.7450
  232ccc     H2 6221   5.492   8.137   9.956  1.5747 -0.1635  1.9776
  232ccc     C3 6222   5.557   8.126   9.740  0.2225  1.0682  0.1751
  232ccc     C4 6223   5.598   8.018   9.637  0.0728  0.0765 -0.6732
  232ccc     C5 6224   5.703   7.919   9.702 -0.2068  0.4076 -0.7919
  232ccc     H3 6225   5.506   7.959   9.635 -0.2650  0.3811  1.8261
  232ccc     H4 6226   5.643   8.192   9.750 -0.0650  1.5631 -0.5599
  232ccc     H5 6227   5.800   7.969   9.710  0.0469  0.2302 -2.4082
  232ccc     O1 6228   5.723   7.805   9.612 -0.2884  0.0129 -1.1893
  232ccc     O2 6229   5.631   8.079   9.506  0.0517  0.8791  0.4690
  232ccc     O3 6230   5.460   8.215   9.685 -0.2686 -0.4540  0.2168
  232ccc     O4 6231   5.402   7.977   9.855  0.1161  0.1732  0.1827
  232ccc     C6 6232   5.606   7.910  10.053 -0.3656  0.3121  0.1835
  232ccc     H6 6233   5.373   8.184   9.715 -1.0945  0.9355 -0.6443
  232ccc     H7 6234   5.422   7.916   9.928  0.2233  0.7228  0.6181
  232ccc     H8 6235   5.581   8.162   9.504  0.2772  1.0365  1.0643
  232ccc     H9 6236   5.593   7.981  10.136 -0.0902 -1.3530  1.7158
  232ccc    H10 6237   5.700   7.858  10.076 -0.5039  0.2450  0.6024
  232ccc     O5 6238   5.487   7.830  10.059 -0.1956  0.3349  1.0455
  232ccc    H11 6239   5.490   7.794  10.149  0.5502 -1.4096  0.3595
  232ccc     O6 6240   5.653   7.870   9.830  0.2173 -0.0142  0.1824
  233ccc     C1 6241   6.596   7.115   9.613 -0.2537 -0.0056 -0.2693
  233ccc     C2 6242   6.575   7.087   9.758 -0.4089 -0.0785 -0.1958
  233ccc     H1 6243   6.694   7.163   9.604 -0.2238 -0.0817 -0.3536
  233ccc     H2 6244   6.672   7.054   9.796 -0.3850  0.2777  0.0542
  233ccc     C3 6245   6.539   7.207   9.840  0.3364 -0.2830 -0.3894
  233ccc     C4 6246   6.432   7.299   9.772  0.2725 -0.2902 -0.1424
  233ccc     C5 6247   6.458   7.323   9.623 -0.0663  0.0251  0.2128
  233ccc     H3 6248   6.336   7.246   9.773  1.2279 -2.1078  1.0163
  233ccc     H4 6249   6.629   7.268   9.853  0.9610 -1.5010  1.4421
  233ccc     H5 6250   6.546   7.388   9.616  0.8994 -1.3010 -0.3339
  233ccc     O1 6251   6.339   7.383   9.563  0.1309 -0.6388 -0.0177
  233ccc     O2 6252   6.431   7.430   9.838 -0.3768 -0.0481  0.9522
  233ccc     O3 6253   6.504   7.166   9.972  0.6110 -0.6706  0.1620
  233ccc     O4 6254   6.479   6.988   9.775  0.1737  0.3010  0.7562
  233ccc     C6 6255   6.617   6.994   9.523 -0.5513 -0.3476 -0.0302
  233ccc     H6 6256   6.471   7.249  10.011 -0.3964  0.2926 -2.4960
  233ccc     H7 6257   6.438   7.003   9.862 -1.6999 -0.3322  0.0385
  233ccc     H8 6258   6.361   7.418   9.904 -0.8298 -1.6020  0.2180
  233ccc     H9 6259   6.525   6.936   9.511 -1.4204  0.8864  0.4242
  233ccc    H10 6260   6.681   6.918   9.569 -0.0900 -0.1057 -0.2662
  233ccc     O5 6261   6.671   7.028   9.394  0.3816 -0.0528 -0.2555
  233ccc    H11 6262   6.751   7.077   9.417  0.2279 -0.5812  1.5397
  233ccc     O6 6263   6.488   7.202   9.556  0.1903 -0.0860  0.3748
  234ccc     C1 6264   6.124   7.185  10.345  0.4648 -0.3363  0.2574
  234ccc     C2 6265   6.193   7.295  10.263 -1.0694  0.0085  0.0099
  234ccc     H1 6266   6.198   7.105  10.355  0.8626  0.2660  3.1531
  234ccc     H2 6267   6.293   7.306  10.306 -1.3053  0.2932  0.4944
  234ccc     C3 6268   6.204   7.254  10.116  0.3678 -0.3542  0.1931
  234ccc     C4 6269   6.068   7.205  10.054 -0.1054  0.3322 -0.0901
  234ccc     C5 6270   6.004   7.096  10.151  0.1664 -0.0791  0.6246
  234ccc     H3 6271   5.996   7.287  10.050  0.4375  0.9104  1.4405
  234ccc     H4 6272   6.269   7.165  10.118 -0.4021 -0.9348 -0.0498
  234ccc     H5 6273   6.072   7.011  10.139 -0.1447 -0.0173 -2.4708
  234ccc     O1 6274   5.876   7.051  10.105 -0.1541  0.2470 -0.0420
  234ccc     O2 6275   6.089   7.148   9.920  0.0804 -0.2005 -0.0204
  234ccc     O3 6276   6.260   7.364  10.034  0.1887 -0.0271  0.0165
  234ccc     O4 6277   6.117   7.416  10.281 -0.0607 -0.0660 -0.5391
  234ccc     C6 6278   6.091   7.229  10.491 -0.8451  0.8848 -0.4533
  234ccc     H6 6279   6.193   7.435  10.035  2.6712  2.4883  0.5057
  234ccc     H7 6280   6.185   7.485  10.289 -1.2171  1.3085 -2.0186
  234ccc     H8 6281   6.101   7.225   9.863 -1.1726  1.2238  1.5453
  234ccc     H9 6282   5.999   7.288  10.496 -1.2847  0.2153 -0.5666
  234ccc    H10 6283   6.171   7.283  10.544 -1.0746 -2.4118  3.8430
  234ccc     O5 6284   6.077   7.099  10.559  0.3195 -0.7714  0.1414
  234ccc    H11 6285   5.981   7.085  10.553 -0.0960  2.1944 -1.9429
  234ccc     O6 6286   5.996   7.146  10.286  0.2055  0.4999 -0.0350
  235ccc     C1 6287   5.533   6.199   9.624  0.1613 -0.7733 -1.1498
  235ccc     C2 6288   5.399   6.171   9.562 -0.5687  0.3057 -0.6905
  235ccc     H1 6289   5.573   6.104   9.661  1.6293 -0.2816 -1.4072
  235ccc     H2 6290   5.412   6.085   9.494 -1.1566 -0.4625  0.1507
  235ccc     C3 6291   5.286   6.155   9.670 -0.1873  0.5322 -0.2153
  235ccc     C4 6292   5.286   6.263   9.772  1.0610  0.1202  0.0961
  235ccc     C5 6293   5.423   6.289   9.828 -0.0455  0.0214 -0.7556
  235ccc     H3 6294   5.261   6.356   9.720  0.2015 -0.3133 -0.2962
  235ccc     H4 6295   5.308   6.065   9.730  1.1158  1.2233  0.4008
  235ccc     H5 6296   5.452   6.203   9.890 -2.3030 -1.2570 -1.3793
  235ccc     O1 6297   5.427   6.414   9.902 -0.4530  0.3297 -0.0056
  235ccc     O2 6298   5.185   6.233   9.871  0.0168  0.3866 -0.4264
  235ccc     O3 6299   5.152   6.155   9.608 -0.1242  0.3938  0.2061
  235ccc     O4 6300   5.367   6.284   9.493  0.3181 -0.3218 -0.2141
  235ccc     C6 6301   5.645   6.242   9.523 -0.0987  0.2791 -0.2661
  235ccc     H6 6302   5.092   6.144   9.683  0.2134  1.8485  0.7166
  235ccc     H7 6303   5.271   6.285   9.506  0.4795  0.2682  1.1257
  235ccc     H8 6304   5.104   6.278   9.841 -1.1256 -2.7863 -2.7312
  235ccc     H9 6305   5.651   6.175   9.435 -1.3139  1.5495 -1.3557
  235ccc    H10 6306   5.747   6.243   9.564  0.7596 -1.3871 -2.1447
  235ccc     O5 6307   5.616   6.376   9.471  0.2967 -0.2756 -0.1765
  235ccc    H11 6308   5.520   6.368   9.480  0.1296  0.0566 -1.4693
  235ccc     O6 6309   5.524   6.307   9.718  1.1143 -0.1315  0.4374
  236ccc     C1 6310   4.562   6.074   9.616  0.2049 -0.7321  0.7520
  236ccc     C2 6311   4.683   6.074   9.713  0.2967 -0.4130  0.5500
  236ccc     H1 6312   4.540   5.979   9.565  0.7223  0.0343 -0.9563
  236ccc     H2 6313   4.666   5.993   9.786 -0.2918 -0.5228  0.2898
  236ccc     C3 6314   4.819   6.044   9.637 -0.5205  0.0666  0.2280
  236ccc     C4 6315   4.846   6.126   9.510  0.0787  0.3069 -0.1049
  236ccc     C5 6316   4.720   6.138   9.423 -0.4134 -0.4195 -0.0535
  236ccc     H3 6317   4.861   6.232   9.533  0.0631  0.3953 -0.5080
  236ccc     H4 6318   4.817   5.939   9.607 -1.3602  0.3252 -0.7028
  236ccc     H5 6319   4.714   6.039   9.377  0.0050  0.1563 -1.4085
  236ccc     O1 6320   4.744   6.236   9.324 -0.4328  0.0162  0.2764
  236ccc     O2 6321   4.959   6.074   9.430 -0.4510  0.4490  0.4258
  236ccc     O3 6322   4.930   6.067   9.722  0.2065  0.2203  0.2691
  236ccc     O4 6323   4.693   6.205   9.780  0.2871  0.0603  0.5008
  236ccc     C6 6324   4.429   6.114   9.680 -0.4064 -0.0640  0.3062
  236ccc     H6 6325   4.938   5.991   9.782 -2.5213 -1.4348 -1.3091
  236ccc     H7 6326   4.745   6.187   9.861 -1.1700 -3.1593  0.8780
  236ccc     H8 6327   5.032   6.110   9.482 -1.6185  0.3237  2.2332
  236ccc     H9 6328   4.440   6.220   9.707  1.6812 -0.6377  1.9716
  236ccc    H10 6329   4.423   6.055   9.772  0.5379  1.4386  1.3803
  236ccc     O5 6330   4.325   6.091   9.588  0.0122 -0.2317 -0.1015
  236ccc    H11 6331   4.244   6.069   9.636  0.1349 -1.6022 -0.4783
  236ccc     O6 6332   4.597   6.161   9.507 -0.2615  0.0927  0.6529
  237ccc     C1 6333   4.813   6.211   8.252  0.5288 -0.1019 -0.4015
  237ccc     C2 6334   4.722   6.094   8.202 -0.4487  0.0679 -0.0925
  237ccc     H1 6335   4.913   6.168   8.267  0.4552 -0.8818 -1.9257
  237ccc     H2 6336   4.766   6.055   8.110  1.1987  1.5457  0.0152
  237ccc     C3 6337   4.712   5.981   8.314  0.0259 -0.4455  0.0396
  237ccc     C4 6338   4.689   6.040   8.454 -0.1279 -0.3356  0.3497
  237ccc     C5 6339   4.784   6.168   8.490 -0.1878 -0.0991 -0.3074
  237ccc     H3 6340   4.586   6.073   8.442 -0.8253 -2.3247  0.4103
  237ccc     H4 6341   4.819   5.954   8.319 -0.2896 -1.6987  0.2414
  237ccc     H5 6342   4.886   6.137   8.516  0.1461 -0.4040 -1.9077
  237ccc     O1 6343   4.722   6.242   8.597  0.7756 -0.2891 -0.4257
  237ccc     O2 6344   4.695   5.937   8.563 -0.2882 -0.3400 -0.4584
  237ccc     O3 6345   4.628   5.873   8.285  0.1355 -0.0575 -0.0490
  237ccc     O4 6346   4.594   6.152   8.194  0.0977  0.7673  0.0011
  237ccc     C6 6347   4.824   6.321   8.151 -0.8183 -0.6253  0.1945
  237ccc     H6 6348   4.619   5.837   8.375 -2.0455  2.0214  0.6884
  237ccc     H7 6349   4.624   6.244   8.184  0.5551  0.3612 -5.3337
  237ccc     H8 6350   4.659   5.985   8.639 -0.9034 -0.9865 -0.3308
  237ccc     H9 6351   4.820   6.290   8.046  1.0159  0.3953 -0.2219
  237ccc    H10 6352   4.916   6.381   8.153 -0.7636 -0.3553 -3.3792
  237ccc     O5 6353   4.714   6.407   8.156  0.1844  0.0699  0.9515
  237ccc    H11 6354   4.752   6.477   8.212  2.2486  0.1378 -0.4337
  237ccc     O6 6355   4.784   6.267   8.374 -0.6024  0.2594  0.1224
  238ccc     C1 6356   2.116   8.048   7.027 -1.1038  0.4747 -0.5648
  238ccc     C2 6357   2.217   7.931   7.008  0.7934  0.6725 -0.0123
  238ccc     H1 6358   2.144   8.123   6.951 -1.3835  1.6097  0.4187
  238ccc     H2 6359   2.199   7.880   6.913 -2.4322  0.3995  0.6332
  238ccc     C3 6360   2.364   7.972   7.025  0.2608  0.3253 -0.1035
  238ccc     C4 6361   2.384   8.051   7.158  0.0056  0.6506  0.3755
  238ccc     C5 6362   2.274   8.155   7.177 -0.4095  0.0556  0.1308
  238ccc     H3 6363   2.378   7.985   7.245 -1.9115 -1.4728 -1.2302
  238ccc     H4 6364   2.373   8.042   6.940 -1.6900 -0.2262 -0.8273
  238ccc     H5 6365   2.293   8.234   7.103 -0.7739  0.8017  0.8255
  238ccc     O1 6366   2.281   8.208   7.310  0.2373 -0.3881  0.3175
  238ccc     O2 6367   2.516   8.112   7.163  0.0934  0.2901 -0.1712
  238ccc     O3 6368   2.457   7.865   7.024  0.0025 -0.0007 -0.2504
  238ccc     O4 6369   2.188   7.837   7.115  0.1610 -0.0587 -0.3063
  238ccc     C6 6370   1.971   8.006   7.011 -0.4918 -0.3450  0.1853
  238ccc     H6 6371   2.436   7.808   6.948  1.9874 -1.2797  0.0893
  238ccc     H7 6372   2.138   7.758   7.088 -0.8810 -0.3917  2.3002
  238ccc     H8 6373   2.576   8.037   7.148  0.1677  0.3563 -0.2041
  238ccc     H9 6374   1.939   7.917   7.065 -4.8651  0.3170 -0.9154
  238ccc    H10 6375   1.949   7.984   6.906 -1.0726 -0.3993  0.3173
  238ccc     O5 6376   1.895   8.121   7.049  0.2147 -0.0339  0.0923
  238ccc    H11 6377   1.904   8.120   7.146 -1.0054  0.5994  0.2379
  238ccc     O6 6378   2.141   8.107   7.153  0.5670  0.3284  0.1933
  239ccc     C1 6379   1.883   7.912   8.207  0.2394  0.2377  0.2650
  239ccc     C2 6380   1.791   7.991   8.309 -0.6563 -0.1241  1.4574
  239ccc     H1 6381   1.968   7.867   8.261 -1.4976 -2.0579  1.2659
  239ccc     H2 6382   1.754   7.934   8.396 -0.7635 -1.6279  0.4596
  239ccc     C3 6383   1.864   8.119   8.351  0.0029 -0.8120 -0.4355
  239ccc     C4 6384   1.926   8.201   8.233 -0.3434  0.4997  0.2657
  239ccc     C5 6385   2.011   8.113   8.137 -0.1984  0.3692 -0.2010
  239ccc     H3 6386   1.843   8.245   8.177  2.4209  2.5758 -2.5601
  239ccc     H4 6387   1.940   8.077   8.418 -0.6523 -2.5693 -0.7453
  239ccc     H5 6388   2.108   8.076   8.172 -0.2136 -2.8133 -3.0612
  239ccc     O1 6389   2.030   8.183   8.014 -0.1948 -0.2526  0.2344
  239ccc     O2 6390   1.996   8.311   8.285 -0.1381 -0.3942  0.6181
  239ccc     O3 6391   1.774   8.204   8.428  0.2962  0.3719  0.2117
  239ccc     O4 6392   1.673   8.024   8.233 -0.0968 -0.2391 -0.0285
  239ccc     C6 6393   1.805   7.793   8.148  0.1821 -0.2491  0.2964
  239ccc     H6 6394   1.823   8.266   8.485 -1.9520  2.7019 -0.1923
  239ccc     H7 6395   1.610   8.071   8.291 -0.7247  0.1034 -0.9751
  239ccc     H8 6396   1.946   8.392   8.299 -1.6467 -0.7089 -2.2629
  239ccc     H9 6397   1.747   7.817   8.059 -0.5837 -0.8544  0.6216
  239ccc    H10 6398   1.728   7.770   8.223 -2.5110  2.0268 -1.5620
  239ccc     O5 6399   1.900   7.690   8.113 -0.3071 -0.5890 -0.7813
  239ccc    H11 6400   1.890   7.653   8.024  0.6463 -2.1253 -0.2886
  239ccc     O6 6401   1.922   8.001   8.104 -0.5658  0.6530  0.2831
  240ccc     C1 6402   2.573   9.325   7.785 -0.1408  0.5668 -0.2805
  240ccc     C2 6403   2.716   9.351   7.729  0.6468 -0.4641  0.2483
  240ccc     H1 6404   2.574   9.353   7.891  1.9659  0.4120 -0.2217
  240ccc     H2 6405   2.740   9.457   7.749 -1.5127  0.3956 -1.2988
  240ccc     C3 6406   2.822   9.266   7.794  0.9005 -0.0878  0.3580
  240ccc     C4 6407   2.772   9.124   7.788 -0.1769  0.3136 -0.4132
  240ccc     C5 6408   2.627   9.091   7.838 -0.3802 -0.9777 -0.0990
  240ccc     H3 6409   2.750   9.103   7.682 -0.9874  1.5336 -0.5063
  240ccc     H4 6410   2.822   9.307   7.896 -2.6955  0.8927  0.0773
  240ccc     H5 6411   2.626   9.091   7.947  0.9347 -0.4547 -0.0729
  240ccc     O1 6412   2.589   8.960   7.796 -0.1263  0.1933 -0.2622
  240ccc     O2 6413   2.873   9.047   7.850 -0.1398 -0.1696 -0.8388
  240ccc     O3 6414   2.955   9.277   7.739  0.5263 -0.1329 -0.4529
  240ccc     O4 6415   2.716   9.330   7.590 -0.4028  0.0076 -0.0401
  240ccc     C6 6416   2.458   9.397   7.706  0.6229 -0.0368  0.0549
  240ccc     H6 6417   2.977   9.372   7.746 -0.0715  0.1606 -2.0674
  240ccc     H7 6418   2.704   9.416   7.547 -0.0038 -0.0768 -0.3281
  240ccc     H8 6419   2.952   9.100   7.832 -2.0974  3.1559 -0.4600
  240ccc     H9 6420   2.454   9.345   7.610  0.8108 -0.7624  0.4313
  240ccc    H10 6421   2.481   9.504   7.708  0.5320  0.0054 -0.8449
  240ccc     O5 6422   2.333   9.371   7.790 -0.3610 -0.2778 -0.2524
  240ccc    H11 6423   2.268   9.408   7.729  0.5859  1.1740 -0.4273
  240ccc     O6 6424   2.539   9.183   7.779  0.6719 -0.2986 -0.1215
  241ccc     C1 6425   2.474   9.360   7.072  0.2645 -0.0288  0.1805
  241ccc     C2 6426   2.561   9.477   7.122  0.6389  0.9677  1.1939
  241ccc     H1 6427   2.415   9.396   6.987  2.5085  0.3954 -1.2942
  241ccc     H2 6428   2.594   9.539   7.038 -1.3677  0.2885 -0.1809
  241ccc     C3 6429   2.477   9.574   7.206  0.1470 -0.6421 -0.0766
  241ccc     C4 6430   2.400   9.491   7.312 -0.1016 -0.1873 -0.6885
  241ccc     C5 6431   2.312   9.376   7.246 -0.4867  0.8992 -0.2817
  241ccc     H3 6432   2.475   9.444   7.378 -0.7035  1.1132  1.0094
  241ccc     H4 6433   2.405   9.615   7.135 -0.8352  0.7923  1.6631
  241ccc     H5 6434   2.227   9.413   7.188  0.2729  1.3481 -1.1288
  241ccc     O1 6435   2.274   9.285   7.351 -0.1411 -0.5051  0.2706
  241ccc     O2 6436   2.322   9.572   7.402 -0.0924 -0.8944  0.4142
  241ccc     O3 6437   2.561   9.670   7.263 -0.2614 -0.0612 -0.0992
  241ccc     O4 6438   2.671   9.421   7.198 -0.3912  0.1742  0.2168
  241ccc     C6 6439   2.553   9.243   7.014  0.4315  0.0502  0.2435
  241ccc     H6 6440   2.520   9.759   7.267 -2.1027 -0.9112  1.1380
  241ccc     H7 6441   2.725   9.497   7.226  0.1724 -0.4138  0.7569
  241ccc     H8 6442   2.254   9.602   7.339 -1.4282  1.0049  2.5648
  241ccc     H9 6443   2.584   9.180   7.098  1.2450 -1.0464 -0.8481
  241ccc    H10 6444   2.641   9.268   6.954  0.7434 -2.7675 -0.6061
  241ccc     O5 6445   2.456   9.170   6.939  0.2477  0.2401  0.1542
  241ccc    H11 6446   2.485   9.078   6.953 -2.3389 -0.2969  3.1585
  241ccc     O6 6447   2.398   9.300   7.171 -0.0756 -0.5448 -0.0534
  242ccc     C1 6448   3.992   9.469   9.162  0.0894 -0.0262  0.2229
  242ccc     C2 6449   3.880   9.565   9.117 -0.8226 -0.3035 -0.7052
  242ccc     H1 6450   4.054   9.507   9.245 -0.1249 -1.2767  0.9687
  242ccc     H2 6451   3.806   9.585   9.195 -1.3961 -1.6602 -0.8627
  242ccc     C3 6452   3.942   9.696   9.061 -1.1806  0.7180  0.3613
  242ccc     C4 6453   4.046   9.650   8.946 -0.2065 -0.3854 -0.4960
  242ccc     C5 6454   4.150   9.551   9.004 -0.2673 -0.5178 -0.3189
  242ccc     H3 6455   3.987   9.600   8.868 -3.0785  0.9303  0.6845
  242ccc     H4 6456   3.997   9.744   9.143 -2.0187  3.3223 -0.5154
  242ccc     H5 6457   4.210   9.599   9.082 -0.5898  1.2873 -1.1328
  242ccc     O1 6458   4.236   9.506   8.902  0.5035 -0.2714  0.2553
  242ccc     O2 6459   4.112   9.762   8.887 -0.4358  0.0938  0.7311
  242ccc     O3 6460   3.848   9.792   9.019  0.4728 -0.1232  0.2899
  242ccc     O4 6461   3.803   9.495   9.019  0.2709  0.7302 -0.0416
  242ccc     C6 6462   3.930   9.342   9.233 -0.0913 -1.3277  0.3895
  242ccc     H6 6463   3.811   9.759   8.935  0.4921 -0.9124  0.5933
  242ccc     H7 6464   3.829   9.404   9.043  1.4251  1.0538 -0.0281
  242ccc     H8 6465   4.131   9.820   8.963 -1.0475  0.1029  0.8819
  242ccc     H9 6466   3.849   9.390   9.291 -0.4846 -0.0062 -1.1801
  242ccc    H10 6467   4.002   9.284   9.292  1.2074 -0.1224  0.0237
  242ccc     O5 6468   3.862   9.257   9.135  0.0656  0.2094  0.4761
  242ccc    H11 6469   3.812   9.180   9.166  1.7347 -0.7642  0.8874
  242ccc     O6 6470   4.072   9.440   9.043  0.3068  0.0208 -0.6045
  243ccc     C1 6471   4.384   9.926   8.196 -0.5883 -0.4477  0.3063
  243ccc     C2 6472   4.275  10.020   8.251  0.3910  0.3597  0.9297
  243ccc     H1 6473   4.379   9.921   8.087 -1.2342 -0.9097  0.3509
  243ccc     H2 6474   4.277  10.114   8.195  0.2136  0.7537  1.5802
  243ccc     C3 6475   4.131   9.964   8.240  0.0749 -0.7462  0.1228
  243ccc     C4 6476   4.126   9.821   8.299 -0.7367  0.2765 -0.0576
  243ccc     C5 6477   4.235   9.744   8.217 -0.3505 -0.2601 -0.5199
  243ccc     H3 6478   4.144   9.821   8.407 -1.2920 -1.0015  0.0605
  243ccc     H4 6479   4.099   9.957   8.135  0.4660  2.8385 -0.3711
  243ccc     H5 6480   4.229   9.750   8.108  1.5980 -0.2652 -0.6731
  243ccc     O1 6481   4.223   9.603   8.260  0.2391 -0.3715  0.4154
  243ccc     O2 6482   3.989   9.776   8.279  0.0356 -0.3943 -0.5456
  243ccc     O3 6483   4.044  10.049   8.310 -0.1061  0.3512  0.2962
  243ccc     O4 6484   4.305  10.045   8.386  0.1169  0.4369  0.3350
  243ccc     C6 6485   4.523   9.977   8.236  0.3671  0.3203 -0.2887
  243ccc     H6 6486   3.961  10.030   8.262 -0.1182  0.6921  0.1820
  243ccc     H7 6487   4.233  10.094   8.428 -0.6241 -0.7556  0.5073
  243ccc     H8 6488   3.968   9.719   8.355  0.4565 -1.2350 -1.0429
  243ccc     H9 6489   4.548   9.951   8.340 -1.9896  1.8221  0.7326
  243ccc    H10 6490   4.523  10.086   8.229 -0.4860  0.3026 -0.7814
  243ccc     O5 6491   4.619   9.926   8.150  0.1639 -0.1545  0.0531
  243ccc    H11 6492   4.566   9.930   8.069 -0.8731 -2.2128  0.5456
  243ccc     O6 6493   4.367   9.796   8.251  0.2533  0.0938 -0.5665
  244ccc     C1 6494   3.370   9.762   8.677  0.4178  0.1530 -0.8736
  244ccc     C2 6495   3.521   9.802   8.703 -0.1391  0.0043 -0.2485
  244ccc     H1 6496   3.319   9.743   8.773 -0.1337 -0.1244 -1.2141
  244ccc     H2 6497   3.525   9.891   8.767 -2.4806  1.1523 -1.5533
  244ccc     C3 6498   3.615   9.695   8.767  0.5947  0.7786  0.1110
  244ccc     C4 6499   3.597   9.559   8.677  0.7229 -0.1971 -0.0949
  244ccc     C5 6500   3.443   9.524   8.662 -0.1904  0.1606  0.1120
  244ccc     H3 6501   3.638   9.554   8.575 -1.3965 -1.4603 -0.9408
  244ccc     H4 6502   3.573   9.665   8.863 -0.1995 -1.2427 -0.8069
  244ccc     H5 6503   3.403   9.497   8.761 -1.9048  0.9529 -0.3353
  244ccc     O1 6504   3.433   9.408   8.569  0.6002  0.1816 -0.2219
  244ccc     O2 6505   3.657   9.460   8.766 -0.1753 -0.1935 -0.1013
  244ccc     O3 6506   3.752   9.737   8.779  0.6067 -0.4437  0.0689
  244ccc     O4 6507   3.574   9.838   8.574 -0.3473  0.8865 -0.1063
  244ccc     C6 6508   3.293   9.865   8.598  0.5266 -0.2657 -0.6593
  244ccc     H6 6509   3.776   9.785   8.698 -0.5164 -0.6118 -0.3871
  244ccc     H7 6510   3.544   9.768   8.514  2.1350  1.8622 -2.6667
  244ccc     H8 6511   3.701   9.511   8.836 -1.3238  0.2616  0.3218
  244ccc     H9 6512   3.342   9.879   8.501 -1.5322  1.0753 -1.5685
  244ccc    H10 6513   3.297   9.964   8.643  2.9423 -1.8819  3.1943
  244ccc     O5 6514   3.158   9.822   8.581  0.1145  0.0447 -0.2783
  244ccc    H11 6515   3.162   9.731   8.613  2.4570  0.4691  0.9294
  244ccc     O6 6516   3.369   9.640   8.606 -0.0073 -0.0355  0.1546
  245ccc     C1 6517   3.399   9.448   7.642  0.8021 -0.4329  0.6936
  245ccc     C2 6518   3.326   9.402   7.507  0.1387  1.3351  0.4740
  245ccc     H1 6519   3.506   9.426   7.651  1.2065  1.2810  0.4815
  245ccc     H2 6520   3.368   9.461   7.425 -1.5743  2.1954  0.1684
  245ccc     C3 6521   3.350   9.242   7.496 -0.0590  0.7692 -0.0049
  245ccc     C4 6522   3.301   9.165   7.625 -0.1275 -0.0943 -0.2046
  245ccc     C5 6523   3.333   9.233   7.760  0.1494  0.2616 -0.3805
  245ccc     H3 6524   3.193   9.151   7.621 -0.5668  2.2552  1.6879
  245ccc     H4 6525   3.459   9.228   7.494 -0.2958 -2.2019  1.9284
  245ccc     H5 6526   3.433   9.193   7.780 -0.6230 -1.7470 -0.3136
  245ccc     O1 6527   3.235   9.183   7.860  0.0465 -0.4712  0.5443
  245ccc     O2 6528   3.354   9.027   7.619  0.5228 -0.9229 -0.3727
  245ccc     O3 6529   3.293   9.179   7.381  0.5126  0.4664 -0.0590
  245ccc     O4 6530   3.190   9.434   7.524  0.4425 -0.5672 -0.0299
  245ccc     C6 6531   3.381   9.602   7.663  0.4965  0.1641 -0.6516
  245ccc     H6 6532   3.305   9.084   7.399 -1.4077  0.9183  5.8036
  245ccc     H7 6533   3.192   9.510   7.584 -2.4104 -1.0145  0.8096
  245ccc     H8 6534   3.276   8.970   7.621 -0.8841  0.8031 -2.1938
  245ccc     H9 6535   3.413   9.647   7.567  0.3500  2.5492  0.3428
  245ccc    H10 6536   3.443   9.636   7.746  0.2598  1.5259 -0.9901
  245ccc     O5 6537   3.243   9.641   7.678  0.9499  0.0092  0.1219
  245ccc    H11 6538   3.244   9.735   7.702 -1.7418 -0.3553  1.9920
  245ccc     O6 6539   3.330   9.376   7.755  0.4823 -0.2891  0.3509
  246ccc     C1 6540   2.872   5.416   7.505  0.5922  0.1276  0.5375
  246ccc     C2 6541   2.838   5.403   7.650  0.0275 -0.1971 -0.4614
  246ccc     H1 6542   2.972   5.371   7.493  0.6017  0.6856 -2.0600
  246ccc     H2 6543   2.837   5.299   7.685 -0.2545  0.4598  1.5954
  246ccc     C3 6544   2.941   5.471   7.743  0.1971  0.5449  0.0952
  246ccc     C4 6545   2.974   5.612   7.701 -0.2733 -0.2999  0.8872
  246ccc     C5 6546   3.015   5.613   7.547 -0.2614 -1.8798 -0.4592
  246ccc     H3 6547   2.878   5.664   7.712  1.0576  2.5458  0.0605
  246ccc     H4 6548   3.028   5.406   7.730 -2.2390 -2.7591 -0.9231
  246ccc     H5 6549   3.104   5.550   7.530 -0.4505 -2.2438 -0.1274
  246ccc     O1 6550   3.031   5.749   7.500 -0.2461 -0.5498  0.3585
  246ccc     O2 6551   3.066   5.679   7.789  0.2567 -0.0347  0.0409
  246ccc     O3 6552   2.893   5.468   7.884 -0.1705  0.2463  0.2873
  246ccc     O4 6553   2.715   5.482   7.665  0.3253  0.9215  0.0265
  246ccc     C6 6554   2.778   5.345   7.400 -0.4673 -0.4243  0.0147
  246ccc     H6 6555   2.968   5.489   7.942  0.0205 -1.3239  0.6581
  246ccc     H7 6556   2.684   5.469   7.574  2.5165 -2.6129 -0.4267
  246ccc     H8 6557   3.156   5.656   7.761 -0.1813  0.3813 -1.8426
  246ccc     H9 6558   2.775   5.237   7.418 -0.0734 -1.2604 -3.9931
  246ccc    H10 6559   2.806   5.361   7.295 -0.5187  3.0176  0.4098
  246ccc     O5 6560   2.656   5.404   7.414  0.2440  0.2532 -0.3108
  246ccc    H11 6561   2.661   5.489   7.367 -2.3173  0.3771 -0.5409
  246ccc     O6 6562   2.908   5.553   7.474  0.6507 -0.5188  0.0685
  247ccc     C1 6563   3.471   6.732   7.526 -0.5650 -0.1358  1.1767
  247ccc     C2 6564   3.612   6.682   7.484 -0.7026  0.7191 -0.7531
  247ccc     H1 6565   3.474   6.765   7.630  3.1169  2.7105  0.3769
  247ccc     H2 6566   3.679   6.760   7.523 -1.4173  0.5331  0.9722
  247ccc     C3 6567   3.649   6.550   7.557  0.6497  0.1201  0.0442
  247ccc     C4 6568   3.535   6.447   7.554 -0.2097  0.1486 -0.4700
  247ccc     C5 6569   3.394   6.507   7.586 -0.1401  0.9753  0.6918
  247ccc     H3 6570   3.543   6.425   7.447  0.5167  0.8294 -0.5664
  247ccc     H4 6571   3.672   6.578   7.660  0.0665  0.9240 -0.0302
  247ccc     H5 6572   3.376   6.525   7.692 -1.5116  0.8808  0.4932
  247ccc     O1 6573   3.308   6.402   7.547  0.0870 -0.0942  0.3351
  247ccc     O2 6574   3.566   6.332   7.642  0.4046  0.6398 -0.5908
  247ccc     O3 6575   3.770   6.501   7.490 -0.2502  0.2797 -0.2347
  247ccc     O4 6576   3.630   6.669   7.344  0.0990 -0.2845 -0.3266
  247ccc     C6 6577   3.430   6.854   7.437 -0.0430  0.8382 -0.1478
  247ccc     H6 6578   3.787   6.407   7.509  0.6423  0.3770 -0.5179
  247ccc     H7 6579   3.696   6.598   7.353 -0.2371 -0.3922  1.6821
  247ccc     H8 6580   3.533   6.257   7.590 -0.5666  1.4567 -1.2112
  247ccc     H9 6581   3.382   6.811   7.349  2.5186 -1.2959 -0.5969
  247ccc    H10 6582   3.511   6.923   7.410  2.0164 -0.7423  1.6391
  247ccc     O5 6583   3.329   6.921   7.513 -0.3241  0.0805 -0.0377
  247ccc    H11 6584   3.347   7.016   7.513 -2.1185  0.4599  0.5377
  247ccc     O6 6585   3.375   6.628   7.505  0.2439 -0.0074 -0.1611
  248ccc     C1 6586   3.253   5.909   8.151 -0.0302 -0.2124 -0.9619
  248ccc     C2 6587   3.171   5.891   8.029  0.6012  0.0095  0.2500
  248ccc     H1 6588   3.244   5.812   8.202 -1.4873  1.3392  1.9655
  248ccc     H2 6589   3.199   5.800   7.974 -0.2723  0.9441 -1.8633
  248ccc     C3 6590   3.022   5.870   8.067 -0.3511  0.7629 -0.4611
  248ccc     C4 6591   2.970   5.995   8.145 -0.0667  0.2547 -0.7734
  248ccc     C5 6592   3.050   5.995   8.275  0.0892  0.4631  0.3701
  248ccc     H3 6593   3.009   6.087   8.100 -1.0931  0.0747 -2.0989
  248ccc     H4 6594   3.013   5.782   8.132  0.9821  2.0937  1.6522
  248ccc     H5 6595   3.022   5.904   8.329  1.5084 -1.2181 -1.5629
  248ccc     O1 6596   3.007   6.109   8.352 -0.8427 -0.1575  0.3475
  248ccc     O2 6597   2.823   5.982   8.179  0.0928 -0.0638  0.1345
  248ccc     O3 6598   2.937   5.853   7.948 -0.5793 -0.0088  0.6640
  248ccc     O4 6599   3.188   5.998   7.938 -0.3898  0.0058  0.0286
  248ccc     C6 6600   3.400   5.934   8.135 -0.2483 -0.3578  0.5257
  248ccc     H6 6601   2.988   5.794   7.891  0.5849  2.1445 -0.6594
  248ccc     H7 6602   3.204   5.966   7.848  0.4520  3.9721 -1.4407
  248ccc     H8 6603   2.769   5.994   8.099 -0.2434 -1.2635  0.1546
  248ccc     H9 6604   3.419   6.021   8.069 -0.8269  0.2415  1.1317
  248ccc    H10 6605   3.432   5.848   8.076 -0.0795 -0.0786  0.2015
  248ccc     O5 6606   3.475   5.947   8.259  0.1300 -0.4247 -0.2057
  248ccc    H11 6607   3.484   5.861   8.303  0.4065 -0.3538 -0.1262
  248ccc     O6 6608   3.195   6.006   8.246  0.0666 -0.4434  0.2878
  249ccc     C1 6609   2.039   6.355   8.693  0.4384  0.2650  0.3710
  249ccc     C2 6610   2.018   6.266   8.818  0.1056  0.5867 -0.3324
  249ccc     H1 6611   1.981   6.305   8.614 -2.0840  0.6551  1.8927
  249ccc     H2 6612   1.911   6.242   8.820 -0.5813  3.1434 -2.0347
  249ccc     C3 6613   2.099   6.138   8.834  0.2903  0.5300  0.5208
  249ccc     C4 6614   2.245   6.186   8.803  0.2956 -0.2911  0.0923
  249ccc     C5 6615   2.256   6.248   8.658  0.2574  0.0585 -0.7800
  249ccc     H3 6616   2.268   6.251   8.888 -1.7148  0.7239 -0.0736
  249ccc     H4 6617   2.070   6.058   8.764 -0.4309  0.4939  0.8534
  249ccc     H5 6618   2.212   6.181   8.583 -0.7486  1.2362 -1.2849
  249ccc     O1 6619   2.395   6.270   8.639  0.3242  0.2369  0.0645
  249ccc     O2 6620   2.328   6.069   8.803  0.1666 -0.2987  0.6576
  249ccc     O3 6621   2.099   6.088   8.974 -0.1533 -0.1825 -0.3439
  249ccc     O4 6622   2.036   6.348   8.934  0.0991 -0.1118  0.0157
  249ccc     C6 6623   1.972   6.492   8.699  0.4256 -0.1051  0.1549
  249ccc     H6 6624   2.025   6.025   8.980 -0.8120  0.7286  2.1765
  249ccc     H7 6625   2.023   6.301   9.018  1.3040 -0.5375 -0.0101
  249ccc     H8 6626   2.304   6.020   8.883  0.1240 -2.6321 -0.6801
  249ccc     H9 6627   2.017   6.553   8.778  0.8995 -0.1545 -0.0770
  249ccc    H10 6628   1.870   6.470   8.733  0.2400 -0.4111 -0.5728
  249ccc     O5 6629   1.963   6.551   8.564  0.6120  0.1867 -0.3717
  249ccc    H11 6630   2.054   6.571   8.535  0.3457  2.3753  0.1249
  249ccc     O6 6631   2.186   6.370   8.660  0.0212 -0.1222  0.0313
  250ccc     C1 6632   4.456   6.251   7.765  0.3428 -0.0409 -0.5209
  250ccc     C2 6633   4.440   6.116   7.687 -0.3488 -0.3696  0.7876
  250ccc     H1 6634   4.425   6.238   7.869  2.6424  0.8107  0.3158
  250ccc     H2 6635   4.493   6.032   7.733  1.3925  0.0663 -0.3326
  250ccc     C3 6636   4.292   6.079   7.666 -0.5882  0.2614  0.1529
  250ccc     C4 6637   4.210   6.196   7.610 -0.0808 -0.7895  0.5382
  250ccc     C5 6638   4.235   6.333   7.689  0.0676  0.7095 -0.2320
  250ccc     H3 6639   4.229   6.204   7.502  0.4696 -1.7514  0.5579
  250ccc     H4 6640   4.248   6.058   7.764 -2.7617 -0.7095 -0.9756
  250ccc     H5 6641   4.185   6.326   7.786  0.7735  1.3217  0.1861
  250ccc     O1 6642   4.175   6.447   7.623  0.4840 -0.2543 -0.1871
  250ccc     O2 6643   4.067   6.171   7.618 -0.1548 -1.0342  0.3618
  250ccc     O3 6644   4.281   5.968   7.575 -0.1062 -0.1425 -0.1262
  250ccc     O4 6645   4.503   6.144   7.557  0.9056  0.6669 -0.3532
  250ccc     C6 6646   4.599   6.290   7.796  0.3906  0.1820 -0.3972
  250ccc     H6 6647   4.188   5.943   7.562  0.1065 -2.0900  1.5460
  250ccc     H7 6648   4.475   6.063   7.511 -1.0439  1.1120 -0.0344
  250ccc     H8 6649   4.046   6.133   7.706 -0.6186 -1.8974 -0.1045
  250ccc     H9 6650   4.655   6.212   7.850  1.2391  0.6782 -0.5335
  250ccc    H10 6651   4.605   6.375   7.864  0.1465  1.2528 -1.6842
  250ccc     O5 6652   4.641   6.332   7.668 -0.1730 -0.0422  0.3142
  250ccc    H11 6653   4.599   6.263   7.615 -0.3539 -1.6143  2.3720
  250ccc     O6 6654   4.374   6.357   7.704 -0.4572  0.8397 -0.1946
  251ccc     C1 6655   4.017   6.192   8.060  0.4988 -0.4201 -0.0033
  251ccc     C2 6656   3.924   6.103   7.969  0.0428 -0.0859 -0.3545
  251ccc     H1 6657   3.967   6.208   8.156 -2.2060 -1.6185 -1.1089
  251ccc     H2 6658   3.889   6.022   8.034 -0.2559  2.1913  2.5204
  251ccc     C3 6659   3.797   6.183   7.922 -0.4923 -0.1493  0.0449
  251ccc     C4 6660   3.830   6.322   7.855  0.2065 -0.3169  0.8440
  251ccc     C5 6661   3.928   6.398   7.953  0.2963 -0.3285 -0.0891
  251ccc     H3 6662   3.876   6.307   7.757 -1.3969 -1.0703  0.1889
  251ccc     H4 6663   3.741   6.211   8.013 -1.5551 -0.8334 -0.3778
  251ccc     H5 6664   3.878   6.444   8.039  3.1327  0.4140  1.2838
  251ccc     O1 6665   3.987   6.510   7.879  0.4327  0.0206 -0.2355
  251ccc     O2 6666   3.709   6.396   7.842  0.0335 -0.5445  0.4992
  251ccc     O3 6667   3.717   6.090   7.847 -0.4257 -0.1930  0.3538
  251ccc     O4 6668   3.998   6.062   7.862  0.1794 -0.0278 -0.2014
  251ccc     C6 6669   4.152   6.124   8.093  0.1963 -0.3453  0.4960
  251ccc     H6 6670   3.631   6.135   7.838  0.0467  0.2695 -4.9646
  251ccc     H7 6671   3.966   5.971   7.849 -0.4714  0.3847 -1.7457
  251ccc     H8 6672   3.657   6.360   7.768  0.3481  0.0796 -0.0308
  251ccc     H9 6673   4.219   6.121   8.006 -3.1105 -0.4897 -2.2211
  251ccc    H10 6674   4.138   6.023   8.133  0.7966 -0.5446  0.2127
  251ccc     O5 6675   4.224   6.184   8.197  0.4845 -0.1363 -0.4644
  251ccc    H11 6676   4.245   6.264   8.146 -1.7506 -0.3605 -1.8718
  251ccc     O6 6677   4.038   6.316   7.987  0.6247  0.2899  0.2601
  252ccc     C1 6678   3.222   7.389   7.149 -0.5703  0.7823 -0.6389
  252ccc     C2 6679   3.256   7.471   7.269 -0.8936 -0.1858 -0.0407
  252ccc     H1 6680   3.116   7.366   7.163 -0.8716  1.6470 -1.4434
  252ccc     H2 6681   3.181   7.545   7.298  2.8527  3.1787  1.9465
  252ccc     C3 6682   3.267   7.381   7.394 -0.9618 -0.3792  0.0345
  252ccc     C4 6683   3.355   7.258   7.377 -0.0538  0.3675  0.6724
  252ccc     C5 6684   3.307   7.174   7.254  0.1799 -0.3845  0.1185
  252ccc     H3 6685   3.455   7.296   7.351  0.5063 -0.2323  1.8762
  252ccc     H4 6686   3.168   7.351   7.432 -1.1906  3.2760  2.8558
  252ccc     H5 6687   3.211   7.122   7.263  0.7381 -1.1279  2.5787
  252ccc     O1 6688   3.412   7.074   7.214  0.4545  0.4699  0.3460
  252ccc     O2 6689   3.363   7.187   7.501  0.2025 -0.0293  0.2658
  252ccc     O3 6690   3.324   7.458   7.506 -0.0353  0.0154 -0.0408
  252ccc     O4 6691   3.381   7.542   7.234  0.2931 -0.2720  0.4125
  252ccc     C6 6692   3.239   7.456   7.014 -0.5504  0.0330 -0.1273
  252ccc     H6 6693   3.314   7.552   7.482 -2.4228 -0.0857  0.3629
  252ccc     H7 6694   3.395   7.518   7.141  3.0226 -1.5417  1.0463
  252ccc     H8 6695   3.372   7.261   7.564 -2.6885  1.4442 -0.8471
  252ccc     H9 6696   3.174   7.544   7.014 -0.4798  0.1015  1.3244
  252ccc    H10 6697   3.205   7.386   6.937 -2.9189  0.5651  0.3542
  252ccc     O5 6698   3.384   7.486   6.991  0.3450 -0.5060  0.3844
  252ccc    H11 6699   3.416   7.400   6.959  1.9234 -1.0394  3.0336
  252ccc     O6 6700   3.310   7.269   7.147  0.0403  0.3264  0.0394
  253ccc     C1 6701   3.681   6.222   7.232 -0.7991 -0.4871 -0.1901
  253ccc     C2 6702   3.786   6.149   7.318  0.7400 -0.6154  0.9325
  253ccc     H1 6703   3.683   6.181   7.131 -0.3611 -1.0992  0.0644
  253ccc     H2 6704   3.762   6.042   7.313  0.5433 -0.5329 -0.0383
  253ccc     C3 6705   3.933   6.175   7.261  0.0306  0.0993  0.1380
  253ccc     C4 6706   3.961   6.327   7.240  0.1899 -0.5847 -0.6148
  253ccc     C5 6707   3.839   6.399   7.169 -0.0242 -0.0371 -0.7314
  253ccc     H3 6708   3.977   6.363   7.343  0.0811 -0.4816 -0.6343
  253ccc     H4 6709   3.926   6.131   7.161  1.8458 -0.0977  0.0703
  253ccc     H5 6710   3.831   6.366   7.064 -0.1605 -0.0635 -0.7128
  253ccc     O1 6711   3.842   6.546   7.174  0.1999 -0.6262  0.1625
  253ccc     O2 6712   4.076   6.356   7.160 -0.5828 -0.3456  0.0804
  253ccc     O3 6713   4.036   6.117   7.342  0.4206  0.7011  0.3778
  253ccc     O4 6714   3.794   6.202   7.448 -0.6146  0.0218 -0.2155
  253ccc     C6 6715   3.537   6.200   7.285 -0.3221  0.5192  0.0776
  253ccc     H6 6716   4.009   6.159   7.426 -1.4585  1.0715 -0.3573
  253ccc     H7 6717   3.799   6.123   7.505 -0.3789 -0.1025 -0.4062
  253ccc     H8 6718   4.054   6.312   7.076 -1.9686  0.2738  0.0930
  253ccc     H9 6719   3.527   6.243   7.386 -0.1831  0.9227 -0.0820
  253ccc    H10 6720   3.530   6.092   7.303 -1.5203  0.5037 -0.3564
  253ccc     O5 6721   3.438   6.243   7.187  0.2182  0.0865 -0.3387
  253ccc    H11 6722   3.462   6.336   7.175  3.4609 -0.5074  0.6754
  253ccc     O6 6723   3.711   6.365   7.227  0.0991 -0.0113  0.3908
  254SOL     OW 6724   9.980   4.372   8.294  0.1425 -0.0779  0.0658
  254SOL    HW1 6725   9.900   4.419   8.272 -0.0519 -1.0466 -1.4641
  254SOL    HW2 6726  10.024   4.359   8.210  2.9071  2.0680  1.0275
  255SOL     OW 6727   1.187   9.003   9.941 -0.4700  0.2474  0.0808
  255SOL    HW1 6728   1.193   8.960   9.856  0.9603 -0.5833  0.5711
  255SOL    HW2 6729   1.277   9.003   9.974 -0.6726  2.2621  0.7767
  256SOL     OW 6730   0.947   9.453   7.066  0.9221 -0.0944  0.3953
  256SOL    HW1 6731   1.034   9.479   7.035  1.2518 -0.5419  0.9234
  256SOL    HW2 6732   0.921   9.523   7.126  1.2976 -0.3801  0.9029
  257SOL     OW 6733   8.230   9.044   4.061 -0.4443 -0.0379 -0.0491
  257SOL    HW1 6734   8.196   8.989   3.991  1.8626  0.8873 -2.0100
  257SOL    HW2 6735   8.293   8.988   4.107  2.8703  1.0771 -2.8332
  258SOL     OW 6736   5.025   1.775   7.799  0.1603 -0.8930  0.2857
  258SOL    HW1 6737   5.038   1.704   7.736  1.2905  1.1615 -1.9901
  258SOL    HW2 6738   5.109   1.820   7.803 -0.9372  1.3771  0.1731
  259SOL     OW 6739   0.941   0.043   0.419  0.7841 -0.4315  0.5809
  259SOL    HW1 6740   0.880  -0.020   0.459 -2.1673  2.0184  0.3568
  259SOL    HW2 6741   0.951   0.013   0.329 -1.1255 -0.3133  0.2843
  260SOL     OW 6742   1.164   9.142   6.762  0.2268 -0.7654 -0.6751
  260SOL    HW1 6743   1.091   9.168   6.706 -1.5201  1.0787  2.1991
  260SOL    HW2 6744   1.155   9.047   6.770 -1.1278 -0.7170 -1.3243
  261SOL     OW 6745  12.202   8.998   6.501  0.0199 -0.0038  0.2336
  261SOL    HW1 6746  12.216   8.915   6.455 -0.1105  1.4930 -2.7426
  261SOL    HW2 6747  12.129   9.039   6.455  0.1467  1.8191  1.5639
  262SOL     OW 6748   9.186  12.041  12.193 -0.1821 -0.5691 -0.1730
  262SOL    HW1 6749   9.145  12.115  12.149  0.9781  0.9853  1.2339
  262SOL    HW2 6750   9.143  12.038  12.279  1.0080 -0.3690  0.4507
  263SOL     OW 6751   8.992   1.853   1.661 -0.1398  0.4405 -0.0838
  263SOL    HW1 6752   8.940   1.851   1.580  1.4049 -0.0392 -1.1193
  263SOL    HW2 6753   9.067   1.909   1.640  0.2193  0.4142  1.0588
  264SOL     OW 6754  10.092   9.604   1.442 -0.0443 -0.3588 -0.3496
  264SOL    HW1 6755  10.074   9.643   1.527  2.5653 -0.6374  0.4134
  264SOL    HW2 6756  10.090   9.678   1.381  1.6715  0.5202  0.5731
  265SOL     OW 6757  11.328  10.987  10.976 -0.7518  0.0682 -0.1354
  265SOL    HW1 6758  11.396  10.982  11.043  0.1497 -0.8559 -1.0798
  265SOL    HW2 6759  11.257  10.932  11.010  0.4291 -1.8953 -0.7104
  266SOL     OW 6760   4.080   2.911   0.854 -0.1333 -0.2244  0.3860
  266SOL    HW1 6761   4.001   2.942   0.810  0.1196 -1.3953 -0.9743
  266SOL    HW2 6762   4.150   2.923   0.789  0.0441 -3.1683 -0.1269
  267SOL     OW 6763   5.344  10.959   7.269 -0.1564  0.0192  0.0047
  267SOL    HW1 6764   5.335  10.948   7.174  0.1847  1.1074 -0.1676
  267SOL    HW2 6765   5.420  11.017   7.279 -2.2862  2.9095  0.7359
  268SOL     OW 6766   9.070   2.959   6.528  0.1931  0.1353 -0.3413
  268SOL    HW1 6767   9.010   3.029   6.555  0.9912  0.0266  1.8356
  268SOL    HW2 6768   9.088   2.910   6.607  3.0807  0.0807 -0.9153
  269SOL     OW 6769   0.606   5.969   1.809  0.1923 -0.1018  0.2853
  269SOL    HW1 6770   0.642   6.005   1.728 -0.4340 -1.5866 -0.6853
  269SOL    HW2 6771   0.682   5.938   1.858  0.4152 -2.1926 -1.2441
  270SOL     OW 6772  11.388   9.093   1.114 -0.4662  0.1250 -0.2834
  270SOL    HW1 6773  11.295   9.093   1.134 -0.2162  0.5456  0.9227
  270SOL    HW2 6774  11.408   9.184   1.092 -0.4878 -0.1085 -1.3339
  271SOL     OW 6775   7.994   5.423   4.018  0.9435  0.2559 -0.5281
  271SOL    HW1 6776   8.012   5.424   4.112  0.4400  0.0521 -0.4244
  271SOL    HW2 6777   7.913   5.371   4.010  2.1408 -1.5901 -1.2715
  272SOL     OW 6778   7.750  12.068   9.726  0.7962  0.6324  0.0057
  272SOL    HW1 6779   7.700  12.150   9.731 -0.2972  0.0201 -0.4995
  272SOL    HW2 6780   7.790  12.070   9.639  0.7236  0.6063 -0.0286
  273SOL     OW 6781   1.253  11.941   8.493  0.1791  0.3600 -0.2604
  273SOL    HW1 6782   1.191  11.949   8.565  1.5557  0.4770  0.9571
  273SOL    HW2 6783   1.339  11.932   8.536  0.7814 -2.6446 -1.7618
  274SOL     OW 6784  11.132   3.319   8.778 -0.3155  0.4773  0.4931
  274SOL    HW1 6785  11.193   3.318   8.704 -1.4582  0.4820 -0.4755
  274SOL    HW2 6786  11.117   3.226   8.797  1.7691  0.4337  2.2871
  275SOL     OW 6787   3.682   3.347   9.385  0.0027 -0.8906 -0.0640
  275SOL    HW1 6788   3.710   3.438   9.392 -0.0555 -0.9722  1.6663
  275SOL    HW2 6789   3.591   3.348   9.415 -0.2536 -1.4098 -0.7995
  276SOL     OW 6790  10.937   6.139  12.487  0.3733  0.3953  0.1784
  276SOL    HW1 6791  10.936   6.103  12.399  1.4071 -0.0175  0.3220
  276SOL    HW2 6792  10.858   6.104  12.529  0.6499 -0.5979 -0.1173
  277SOL     OW 6793  10.349   3.057   0.248 -0.1345 -0.4422 -0.1612
  277SOL    HW1 6794  10.342   3.152   0.256  0.7655 -0.4085  0.4271
  277SOL    HW2 6795  10.444   3.040   0.248 -0.2284 -1.5203  2.4646
  278SOL     OW 6796  10.293   1.334   4.877  0.5103 -0.2275  0.6237
  278SOL    HW1 6797  10.221   1.311   4.818  0.9468 -0.3361  0.1231
  278SOL    HW2 6798  10.294   1.264   4.942 -0.1975  0.0744  0.9712
  279SOL     OW 6799  10.987   1.514  10.592 -0.5174 -0.3742  0.1154
  279SOL    HW1 6800  10.964   1.606  10.608  0.9900  0.1064 -0.2723
  279SOL    HW2 6801  10.910   1.465  10.619 -1.5546  1.0393 -0.1538
  280SOL     OW 6802   3.391   6.476   0.424 -0.0305  0.3514  0.4283
  280SOL    HW1 6803   3.422   6.555   0.468  1.3365  0.1172 -0.0610
  280SOL    HW2 6804   3.342   6.509   0.348  0.8182  0.7404  0.0384
  281SOL     OW 6805   4.063   3.187  10.376  0.5629 -0.4014 -0.2084
  281SOL    HW1 6806   4.041   3.226  10.461  1.1051 -0.6917  0.0712
  281SOL    HW2 6807   4.031   3.250  10.312  2.2774  0.9916  0.2279
  282SOL     OW 6808   9.109   2.443  11.654  0.1395 -0.2151  0.7658
  282SOL    HW1 6809   9.028   2.403  11.685 -0.7722  0.3679 -0.7395
  282SOL    HW2 6810   9.173   2.372  11.656 -0.4751 -0.7611  1.6937
  283SOL     OW 6811   2.621   1.611   3.590  0.2826  0.2574  0.4756
  283SOL    HW1 6812   2.706   1.599   3.548 -1.1549 -2.8858 -2.0355
  283SOL    HW2 6813   2.558   1.611   3.517 -2.1099 -1.5190  2.3427
  284SOL     OW 6814  11.038   4.246   8.980 -0.5769 -0.4595 -0.2775
  284SOL    HW1 6815  10.975   4.178   8.953 -2.2903 -0.3167  2.9068
  284SOL    HW2 6816  11.022   4.318   8.920 -3.4054 -0.5127  0.2720
  285SOL     OW 6817  12.158   5.165   2.854  0.2561  0.0094  0.0108
  285SOL    HW1 6818  12.222   5.192   2.788  0.9966  1.1306  1.1436
  285SOL    HW2 6819  12.085   5.227   2.844 -0.9789 -1.5932 -1.6408
  286SOL     OW 6820  11.343   6.566  11.447  0.5387 -0.3165  0.5164
  286SOL    HW1 6821  11.389   6.558  11.364 -0.6864 -0.0536 -0.2053
  286SOL    HW2 6822  11.413   6.578  11.512  1.4898 -0.1983 -0.5020
  287SOL     OW 6823   2.993   6.911  10.969 -0.1505  0.2742  0.1510
  287SOL    HW1 6824   2.941   6.975  10.920 -1.9638  0.1794  1.8270
  287SOL    HW2 6825   3.052   6.963  11.022 -2.2140  0.6946  2.1602
  288SOL     OW 6826   8.425   0.245   0.648 -0.0787  0.2191 -0.1333
  288SOL    HW1 6827   8.330   0.241   0.635  0.0503  0.0415 -1.0617
  288SOL    HW2 6828   8.449   0.335   0.624  0.0556  0.1060 -0.4341
  289SOL     OW 6829   1.293   7.012   2.881 -0.6623  0.5744 -0.1476
  289SOL    HW1 6830   1.317   6.946   2.816  1.4693  0.6999  0.4145
  289SOL    HW2 6831   1.235   6.966   2.942 -1.7396  0.1363 -1.4588
  290SOL     OW 6832  11.926   3.257   1.654 -0.2823 -0.0830 -0.5879
  290SOL    HW1 6833  12.008   3.303   1.635 -1.0335  2.3210  1.3485
  290SOL    HW2 6834  11.865   3.288   1.587 -0.1349 -0.2545 -0.8018
  291SOL     OW 6835   0.785   9.307   7.327 -0.0520 -0.3675  0.3379
  291SOL    HW1 6836   0.811   9.307   7.235  1.2717  0.4345  0.6852
  291SOL    HW2 6837   0.851   9.252   7.370  1.0751  1.5532  1.2150
  292SOL     OW 6838   5.361   2.230  11.158 -0.0724 -0.5839  0.0274
  292SOL    HW1 6839   5.359   2.142  11.122 -3.0689 -0.8715  0.6872
  292SOL    HW2 6840   5.305   2.226  11.236 -3.5459  2.6354 -1.9616
  293SOL     OW 6841   9.274   4.265   8.456 -0.3569  0.5009 -0.1829
  293SOL    HW1 6842   9.343   4.209   8.420 -0.1591  0.3041  0.4854
  293SOL    HW2 6843   9.288   4.261   8.551 -2.4594 -1.1091  0.1392
  294SOL     OW 6844   9.849  11.745  11.029  0.4295  0.5240 -0.5576
  294SOL    HW1 6845   9.934  11.750  11.073  0.0030  0.1226  0.3406
  294SOL    HW2 6846   9.795  11.691  11.087  0.4740 -1.9093 -2.5937
  295SOL     OW 6847   6.478   8.477   2.647  0.0343  0.0367  0.4913
  295SOL    HW1 6848   6.545   8.542   2.627 -0.5375 -0.0809 -2.0987
  295SOL    HW2 6849   6.469   8.425   2.567 -0.7439 -2.1595  1.9203
  296SOL     OW 6850  11.617   6.604   5.672  0.5744 -0.0848  0.4822
  296SOL    HW1 6851  11.589   6.613   5.763 -0.6515 -1.3365  0.2677
  296SOL    HW2 6852  11.683   6.535   5.675 -1.3774 -2.0899  0.1480
  297SOL     OW 6853  10.914   1.847   3.993 -0.4690 -0.1853  0.0628
  297SOL    HW1 6854  10.875   1.874   3.910  0.4245  0.9853 -0.0056
  297SOL    HW2 6855  10.969   1.772   3.970  1.1216  1.1813 -0.7598
  298SOL     OW 6856   6.334   9.512   1.130  0.2331 -0.3364  0.2982
  298SOL    HW1 6857   6.365   9.517   1.040  0.4981  0.9929  0.4392
  298SOL    HW2 6858   6.366   9.593   1.171 -1.0553 -0.2503  1.2023
  299SOL     OW 6859   1.320   9.968   0.045  0.3362 -0.3273  0.4052
  299SOL    HW1 6860   1.312   9.904  -0.025 -1.4368 -1.1685  1.3127
  299SOL    HW2 6861   1.393   9.937   0.099  0.5827 -0.6287 -0.1025
  300SOL     OW 6862   7.154   9.614  12.484  0.2766 -0.1907 -0.3009
  300SOL    HW1 6863   7.124   9.568  12.406 -0.9836 -2.8196  1.5652
  300SOL    HW2 6864   7.229   9.564  12.515 -0.0580 -0.0038  0.8820
  301SOL     OW 6865   7.875   7.266  11.936  0.0716 -0.3161  0.1804
  301SOL    HW1 6866   7.895   7.244  12.027  0.5524  0.3873  0.2548
  301SOL    HW2 6867   7.959   7.294  11.899 -0.2183 -0.1246 -0.3449
  302SOL     OW 6868   0.561   3.881   4.183  0.2399  0.9211 -0.0734
  302SOL    HW1 6869   0.560   3.916   4.272  0.9788 -1.2284  0.8591
  302SOL    HW2 6870   0.475   3.903   4.147 -0.6964  0.4780  1.7633
  303SOL     OW 6871  10.621   9.256   8.129  0.0811 -0.0254 -0.0815
  303SOL    HW1 6872  10.704   9.255   8.178 -0.0076 -0.4207  0.0640
  303SOL    HW2 6873  10.632   9.189   8.061 -0.5759 -0.9749  0.7196
  304SOL     OW 6874  12.371   4.872   1.830  0.2157 -0.1440 -0.2392
  304SOL    HW1 6875  12.449   4.908   1.787 -0.1424 -0.8217 -1.5020
  304SOL    HW2 6876  12.364   4.922   1.911  2.7700 -1.0212  0.6345
  305SOL     OW 6877   1.735   8.859   8.528  0.0536  0.1063  0.3590
  305SOL    HW1 6878   1.724   8.953   8.516  1.6327  0.2680  0.0595
  305SOL    HW2 6879   1.784   8.850   8.609  1.2581 -0.3723 -0.3984
  306SOL     OW 6880   7.598   0.154  11.014  0.8918 -0.1427  0.9128
  306SOL    HW1 6881   7.618   0.214  10.942 -1.6203  0.2850  0.4741
  306SOL    HW2 6882   7.669   0.168  11.077  2.1198  0.8871 -0.6139
  307SOL     OW 6883   8.265   4.260  10.926 -0.0957  0.1628  0.0082
  307SOL    HW1 6884   8.314   4.263  11.008  1.2846  0.9682 -0.7825
  307SOL    HW2 6885   8.320   4.207  10.868 -0.5484  0.4484 -0.6936
  308SOL     OW 6886   5.482   2.125  10.843  0.0744 -0.7467 -0.4785
  308SOL    HW1 6887   5.558   2.067  10.837  1.1429  0.4326  0.9091
  308SOL    HW2 6888   5.421   2.078  10.900  1.4702 -0.0340  1.7158
  309SOL     OW 6889   4.430   1.007  12.364  0.3903  0.0057 -0.1228
  309SOL    HW1 6890   4.394   0.933  12.413  0.2998 -0.2145 -0.5147
  309SOL    HW2 6891   4.520   1.015  12.395  0.2575  0.0327  0.2631
  310SOL     OW 6892   3.986   4.732   7.283  0.2658  0.2885  0.2345
  310SOL    HW1 6893   3.950   4.662   7.337 -0.7323  1.6948  1.4900
  310SOL    HW2 6894   3.993   4.694   7.195  1.8286 -2.0219  1.2897
  311SOL     OW 6895  10.194   5.831  12.102 -0.1071  0.0370  0.2689
  311SOL    HW1 6896  10.277   5.853  12.059 -0.3893  0.5948  0.0102
  311SOL    HW2 6897  10.219   5.772  12.173  0.3512 -1.1419 -0.8212
  312SOL     OW 6898   9.869   6.243   0.227  0.8249 -0.3789 -0.0768
  312SOL    HW1 6899   9.876   6.221   0.134  0.9729 -0.5599 -0.0227
  312SOL    HW2 6900   9.869   6.339   0.229 -0.2282 -0.3512 -0.3482
  313SOL     OW 6901  10.055  10.829  11.345  0.1403  0.4127  0.2701
  313SOL    HW1 6902  10.140  10.829  11.390 -0.5739 -0.4438  1.7088
  313SOL    HW2 6903   9.991  10.837  11.416 -1.0241 -0.0971 -0.6876
  314SOL     OW 6904   6.557  11.993  12.039 -0.3884  0.6452 -0.0440
  314SOL    HW1 6905   6.541  12.008  11.945 -0.9695  0.5879  0.0395
  314SOL    HW2 6906   6.645  12.028  12.054 -0.2161  0.4977 -0.6484
  315SOL     OW 6907   1.591   7.913   6.954 -0.0389 -0.8996  0.1947
  315SOL    HW1 6908   1.627   7.996   6.925  0.5059 -1.3630 -0.5014
  315SOL    HW2 6909   1.571   7.926   7.047 -1.5378  0.5186 -0.2982
  316SOL     OW 6910   4.424   2.601   1.452  0.0325 -0.0539  0.0940
  316SOL    HW1 6911   4.365   2.537   1.412 -0.5856 -0.3889  1.5029
  316SOL    HW2 6912   4.371   2.680   1.461 -0.6008 -0.6761  2.3644
  317SOL     OW 6913   8.895   4.748   6.022  0.0053  0.4958 -0.6121
  317SOL    HW1 6914   8.902   4.738   6.117 -0.4992 -0.0456 -0.6287
  317SOL    HW2 6915   8.908   4.842   6.007  0.4188  0.5391 -0.0439
  318SOL     OW 6916  11.873  11.613   0.476  0.7721  0.3055 -0.1378
  318SOL    HW1 6917  11.819  11.534   0.476 -2.1067  2.1100 -0.8947
  318SOL    HW2 6918  11.870  11.644   0.385  1.5723  1.4654  0.2140
  319SOL     OW 6919   6.162   0.301   1.450  0.0144  0.0969 -0.3430
  319SOL    HW1 6920   6.098   0.369   1.430 -0.1003  0.0272 -0.2217
  319SOL    HW2 6921   6.179   0.259   1.366 -4.2271 -3.5165  0.2092
  320SOL     OW 6922   1.454   8.110   4.684 -0.3449 -0.3774  0.3940
  320SOL    HW1 6923   1.426   8.105   4.775  0.3818 -0.6905  0.6083
  320SOL    HW2 6924   1.539   8.156   4.687 -1.4635  1.9082 -0.3834
  321SOL     OW 6925   8.691   4.105   4.850 -0.8217  1.0561  0.3522
  321SOL    HW1 6926   8.659   4.064   4.930  2.9308 -1.3833  0.8788
  321SOL    HW2 6927   8.676   4.040   4.782  0.6892  0.8417  0.1870
  322SOL     OW 6928   5.199  11.967   5.396 -0.5084  0.1367  0.0177
  322SOL    HW1 6929   5.289  11.985   5.425 -0.2575 -0.8239 -0.1294
  322SOL    HW2 6930   5.182  12.033   5.329  0.4616 -0.2851 -0.6633
  323SOL     OW 6931   0.909   2.770   3.474 -0.1432  0.4773 -0.5393
  323SOL    HW1 6932   0.997   2.808   3.471 -0.0101  0.1447 -2.4891
  323SOL    HW2 6933   0.917   2.696   3.534  0.8737  0.5378 -0.5773
  324SOL     OW 6934   4.534   4.826  10.030  0.4160  0.2044  0.2384
  324SOL    HW1 6935   4.561   4.743   9.991  1.3242  0.4306  0.3757
  324SOL    HW2 6936   4.615   4.865  10.063 -0.1148  0.7635  0.9162
  325SOL     OW 6937   1.856   8.148   7.334  0.0762  0.7840  0.5687
  325SOL    HW1 6938   1.865   8.240   7.356  0.1920  0.9465 -0.1385
  325SOL    HW2 6939   1.822   8.107   7.414  0.1629  1.4090  0.9284
  326SOL     OW 6940   3.594   6.538   0.053  0.0287  0.0237  0.5314
  326SOL    HW1 6941   3.539   6.610   0.021  0.4402 -0.6204 -1.8312
  326SOL    HW2 6942   3.677   6.580   0.075 -0.2747  0.5033  0.8003
  327SOL     OW 6943   8.452   7.670   1.899 -0.1894  0.0552 -0.5890
  327SOL    HW1 6944   8.402   7.650   1.821  0.5910  0.1599 -1.1319
  327SOL    HW2 6945   8.390   7.713   1.958 -1.5761 -2.6687  0.0987
  328SOL     OW 6946   5.509   5.421   8.400  0.1412  0.4410 -0.6234
  328SOL    HW1 6947   5.582   5.397   8.343  0.4582 -0.8164  0.2530
  328SOL    HW2 6948   5.451   5.345   8.396 -0.3028  0.7443 -0.0425
  329SOL     OW 6949   4.070   1.547   5.857 -0.2126 -0.0408  0.6081
  329SOL    HW1 6950   4.109   1.489   5.922 -0.5715 -2.0588 -0.9002
  329SOL    HW2 6951   4.132   1.548   5.785 -1.5250 -0.9157 -0.5811
  330SOL     OW 6952   9.083   1.352  10.741  0.3967  0.6409  0.4122
  330SOL    HW1 6953   9.070   1.260  10.715  0.5318  0.6936  0.1513
  330SOL    HW2 6954   8.995   1.387  10.750  0.3449  0.5212  0.3811
  331SOL     OW 6955  10.799   2.946   8.119 -0.1071 -0.3175  0.0970
  331SOL    HW1 6956  10.812   3.020   8.178 -1.3600 -0.2273  0.2973
  331SOL    HW2 6957  10.844   2.971   8.039  0.5470  0.1105  0.5877
  332SOL     OW 6958   2.187   7.352  10.841 -0.3868  0.6918  0.4097
  332SOL    HW1 6959   2.237   7.425  10.878 -0.2643 -0.0033  1.6431
  332SOL    HW2 6960   2.107   7.392  10.807  0.1838  1.5530  0.0376
  333SOL     OW 6961   7.259  10.743   3.973  0.5972  0.0611  0.9619
  333SOL    HW1 6962   7.319  10.708   4.039 -0.6742 -1.0436  1.5894
  333SOL    HW2 6963   7.196  10.795   4.024  0.0763 -0.1320  0.5178
  334SOL     OW 6964   9.798   5.326  11.770 -0.0282  0.1693  0.3245
  334SOL    HW1 6965   9.759   5.385  11.704  1.5870  0.5243 -0.3696
  334SOL    HW2 6966   9.815   5.245  11.722 -2.1895 -0.9284  1.2642
  335SOL     OW 6967   2.089   0.254   5.976 -0.0899  0.6417 -0.2497
  335SOL    HW1 6968   2.157   0.316   6.005  0.7917 -0.4095  0.0075
  335SOL    HW2 6969   2.039   0.302   5.911  1.1409  1.3371 -0.7200
  336SOL     OW 6970  11.930   4.740   3.804  0.0863  0.1630 -0.4473
  336SOL    HW1 6971  11.862   4.724   3.869 -1.2690 -0.2471 -1.8989
  336SOL    HW2 6972  11.899   4.816   3.754  1.2259  0.6435 -0.4711
  337SOL     OW 6973   5.105   0.199  11.456 -0.2031  0.2573  0.3642
  337SOL    HW1 6974   5.029   0.176  11.402 -1.2089 -0.2886  1.9502
  337SOL    HW2 6975   5.124   0.119  11.505 -1.4203  1.5776  3.2311
  338SOL     OW 6976   8.822   1.203   8.839 -0.0332  0.4608  0.0275
  338SOL    HW1 6977   8.908   1.239   8.817  1.2840 -2.0359  0.8042
  338SOL    HW2 6978   8.797   1.151   8.763  0.0848 -0.4407  0.5949
  339SOL     OW 6979   9.988   6.306  10.742  0.1867  0.0946 -0.3163
  339SOL    HW1 6980  10.003   6.386  10.691  1.2578 -0.0592 -0.2720
  339SOL    HW2 6981   9.913   6.264  10.700  0.2298  0.6313 -0.9473
  340SOL     OW 6982   6.080   7.300   7.267  0.3119  0.5019  0.1553
  340SOL    HW1 6983   6.022   7.237   7.224 -0.9387  1.8440 -0.1635
  340SOL    HW2 6984   6.116   7.251   7.341  0.5957 -1.0772 -0.9550
  341SOL     OW 6985   8.120   9.715  10.265 -0.0504  0.2861 -0.2537
  341SOL    HW1 6986   8.199   9.765  10.287  0.1126  0.4876 -1.2496
  341SOL    HW2 6987   8.079   9.696  10.350  1.2348 -0.1138  0.2990
  342SOL     OW 6988   8.610   6.087  11.001 -0.3686 -0.0848  0.3988
  342SOL    HW1 6989   8.609   5.991  10.995 -1.4495 -0.0864  0.4960
  342SOL    HW2 6990   8.661   6.105  11.080  0.5755 -0.5443 -0.0881
  343SOL     OW 6991   2.424   2.092  12.441  0.3375  0.1835  0.6405
  343SOL    HW1 6992   2.369   2.170  12.452  0.8390  0.7517 -0.6317
  343SOL    HW2 6993   2.405   2.061  12.352  0.2764 -1.0520  1.0643
  344SOL     OW 6994   7.081   9.722   2.983 -0.1046 -0.1603  0.0072
  344SOL    HW1 6995   7.144   9.662   3.024  1.3297  1.2177 -0.0976
  344SOL    HW2 6996   7.052   9.778   3.055  0.8603  0.9354 -0.4237
  345SOL     OW 6997   2.791   2.984   5.086 -0.2116 -0.0773 -0.0380
  345SOL    HW1 6998   2.805   3.076   5.061  0.4976  0.3210  1.6894
  345SOL    HW2 6999   2.740   2.989   5.166  0.0910 -1.1904  0.2310
  346SOL     OW 7000  12.196   9.871   4.994 -0.1297  0.0497 -0.1959
  346SOL    HW1 7001  12.194   9.920   4.912 -1.0569 -0.3862 -0.4497
  346SOL    HW2 7002  12.157   9.786   4.973  0.8594 -0.5738  0.3889
  347SOL     OW 7003   0.237   7.535   5.055 -0.7225 -0.6166  0.0381
  347SOL    HW1 7004   0.160   7.491   5.018 -1.3401  0.8855 -0.5724
  347SOL    HW2 7005   0.294   7.552   4.979 -1.7006  1.8969 -0.2517
  348SOL     OW 7006  12.003   3.774   6.121  0.3792 -0.7597  0.4026
  348SOL    HW1 7007  11.980   3.812   6.206 -2.8340 -0.9140 -0.2439
  348SOL    HW2 7008  11.921   3.736   6.090  1.3965 -0.5775 -2.8559
  349SOL     OW 7009   6.691  10.319   2.237  0.1522  0.5003  0.2705
  349SOL    HW1 7010   6.711  10.333   2.330 -0.7500  0.6009  0.4619
  349SOL    HW2 7011   6.659  10.404   2.207 -0.5874  0.1854  0.1497
  350SOL     OW 7012   2.650   1.144   9.925  0.1306  0.5683 -0.3429
  350SOL    HW1 7013   2.667   1.167   9.833  0.7819 -0.5287 -0.5220
  350SOL    HW2 7014   2.733   1.106   9.955  0.2391  1.7804  0.9980
  351SOL     OW 7015  11.348  11.339   1.827 -0.8147 -0.6862  0.2184
  351SOL    HW1 7016  11.429  11.317   1.783  0.0119 -1.2379  1.9076
  351SOL    HW2 7017  11.280  11.291   1.779 -0.7206  2.2705 -3.2125
  352SOL     OW 7018  11.984   5.218   8.402  0.0784  0.0406 -0.4234
  352SOL    HW1 7019  12.056   5.252   8.456 -0.3445 -2.3545  1.8677
  352SOL    HW2 7020  12.027   5.166   8.334  0.5563  0.2230 -0.2665
  353SOL     OW 7021   8.733   6.824   5.865  0.1916  0.0740 -0.0786
  353SOL    HW1 7022   8.752   6.730   5.868  0.3313  0.0004 -2.0109
  353SOL    HW2 7023   8.659   6.831   5.804  0.3778  1.2396 -0.1851
  354SOL     OW 7024   2.262   6.328   7.598 -0.4762 -1.0165 -0.0759
  354SOL    HW1 7025   2.203   6.262   7.560 -1.3464 -0.5268  0.3816
  354SOL    HW2 7026   2.207   6.375   7.661  0.8104 -1.5257  1.4850
  355SOL     OW 7027   8.875   7.786   8.381  0.4138  0.0091  0.3907
  355SOL    HW1 7028   8.941   7.734   8.426  0.6015  0.2441  0.3904
  355SOL    HW2 7029   8.895   7.774   8.288 -0.8019 -1.5796  0.2753
  356SOL     OW 7030   5.767   3.297   6.965 -0.2298  0.1139 -0.4160
  356SOL    HW1 7031   5.709   3.370   6.941  0.7255  1.2125  0.4974
  356SOL    HW2 7032   5.734   3.267   7.049 -0.9956 -0.9442 -1.0725
  357SOL     OW 7033  12.142   0.640   8.146  0.1226  0.1148  0.9360
  357SOL    HW1 7034  12.227   0.669   8.180  0.4609 -1.4240  1.4987
  357SOL    HW2 7035  12.121   0.563   8.199 -0.5573 -0.8494 -0.6903
  358SOL     OW 7036  12.210   8.174   0.265  0.2243 -0.0504  0.4736
  358SOL    HW1 7037  12.173   8.104   0.211 -0.7743  0.5409  0.3533
  358SOL    HW2 7038  12.305   8.164   0.257  0.0944 -1.2137  0.2389
  359SOL     OW 7039   1.447  11.230   2.781  0.1026 -0.3876 -0.6441
  359SOL    HW1 7040   1.451  11.134   2.782  0.8922 -0.3668  0.7854
  359SOL    HW2 7041   1.450  11.255   2.873  3.7984  1.1091 -0.9973
  360SOL     OW 7042   5.417   8.817  11.486  0.0178  0.1402 -0.1386
  360SOL    HW1 7043   5.411   8.722  11.472  0.4135  0.3204 -1.6936
  360SOL    HW2 7044   5.493   8.828  11.543 -0.2236 -0.4929  0.3233
  361SOL     OW 7045   9.514   5.002   2.752 -0.5781 -0.4784 -0.6855
  361SOL    HW1 7046   9.567   4.957   2.818 -1.4407 -0.6634 -0.0937
  361SOL    HW2 7047   9.524   5.095   2.772 -0.4646 -0.5134 -0.5825
  362SOL     OW 7048   2.523   6.690   2.689  0.0299  0.0017  0.9276
  362SOL    HW1 7049   2.528   6.611   2.636  1.7761  0.2857  0.6351
  362SOL    HW2 7050   2.579   6.754   2.644  0.8721  0.5181  2.6196
  363SOL     OW 7051   4.544  11.810   5.354 -0.0062 -0.4029 -0.0089
  363SOL    HW1 7052   4.468  11.774   5.399 -1.0219  2.1520  0.4623
  363SOL    HW2 7053   4.510  11.839   5.270 -0.0700  2.4646  0.9233
  364SOL     OW 7054   2.484   4.745  10.220  0.1191 -0.1715 -0.0545
  364SOL    HW1 7055   2.534   4.826  10.222 -1.3096  0.7169  0.5276
  364SOL    HW2 7056   2.444   4.738  10.307 -0.1923 -1.2391 -0.2600
  365SOL     OW 7057   2.673   2.038   7.752 -0.3791  0.5889 -0.4371
  365SOL    HW1 7058   2.751   2.001   7.710  0.0778 -0.5476  1.3239
  365SOL    HW2 7059   2.692   2.131   7.760  1.6531  0.0859  1.5614
  366SOL     OW 7060   2.682   5.194   3.517  0.0605  0.5528 -0.7102
  366SOL    HW1 7061   2.754   5.225   3.462  2.0544 -1.7441  0.4077
  366SOL    HW2 7062   2.646   5.120   3.469 -1.1718  1.2746 -0.9415
  367SOL     OW 7063   9.339   4.874   3.395 -0.1527 -0.2712 -0.2454
  367SOL    HW1 7064   9.366   4.853   3.484  0.6515 -0.6022 -0.5569
  367SOL    HW2 7065   9.392   4.817   3.340 -0.7222 -0.1490 -0.9323
  368SOL     OW 7066   2.715   5.717   7.905  0.7019  0.2465 -0.3406
  368SOL    HW1 7067   2.661   5.746   7.978  1.2404  0.5485 -0.0580
  368SOL    HW2 7068   2.796   5.767   7.913  0.9637 -0.0843 -0.8499
  369SOL     OW 7069   2.254  10.584   4.906  0.4939  0.3465 -0.0598
  369SOL    HW1 7070   2.196  10.561   4.979  1.6931  0.7089  1.0563
  369SOL    HW2 7071   2.262  10.679   4.911  2.3022  0.2005  0.7523
  370SOL     OW 7072   7.376   2.107   9.825 -0.5739 -0.7730 -0.4972
  370SOL    HW1 7073   7.344   2.151   9.746  1.3057  0.8818 -0.4065
  370SOL    HW2 7074   7.344   2.017   9.817 -1.4577 -0.3272 -2.5308
  371SOL     OW 7075   3.945  11.386  10.807  0.5882  0.0856  0.1431
  371SOL    HW1 7076   4.029  11.431  10.799  0.2871  0.5989 -0.1927
  371SOL    HW2 7077   3.934  11.372  10.901  1.1274 -0.1360  0.1730
  372SOL     OW 7078   9.871   0.405   8.605  0.0640  0.1073 -0.4204
  372SOL    HW1 7079   9.869   0.340   8.535  1.3180  1.6398 -1.9956
  372SOL    HW2 7080   9.909   0.483   8.564  0.0916  1.3466  1.7801
  373SOL     OW 7081   5.931   7.132   2.153  0.0103 -0.3125 -0.0719
  373SOL    HW1 7082   5.863   7.115   2.218  0.9261 -0.1629  0.9570
  373SOL    HW2 7083   6.013   7.113   2.198  0.7592  1.1677 -0.7346
  374SOL     OW 7084   9.500   4.755   0.380  0.0034 -0.5979  0.3273
  374SOL    HW1 7085   9.567   4.823   0.380 -0.2924 -0.2683  1.8002
  374SOL    HW2 7086   9.423   4.797   0.418 -0.6529 -1.3324 -0.1486
  375SOL     OW 7087   9.857   5.081   2.433  0.5482 -0.0653  0.5035
  375SOL    HW1 7088   9.761   5.077   2.431  0.3327  2.4637  1.8899
  375SOL    HW2 7089   9.878   5.108   2.523  2.6402 -1.4317  0.4852
  376SOL     OW 7090   2.372   3.848   0.558  0.5238 -0.0940  0.5986
  376SOL    HW1 7091   2.417   3.905   0.496  1.1695 -2.0145 -0.7730
  376SOL    HW2 7092   2.436   3.834   0.628  2.0542 -2.4645 -1.1321
  377SOL     OW 7093   7.891   5.971   7.026 -0.6866 -0.1299 -0.1791
  377SOL    HW1 7094   7.807   5.934   7.000 -0.7299  1.3119 -2.3046
  377SOL    HW2 7095   7.952   5.942   6.959 -0.3625  2.0114 -0.9131
  378SOL     OW 7096   5.438   5.486   2.768 -0.1282 -0.6528 -0.0473
  378SOL    HW1 7097   5.389   5.454   2.693  0.2169 -0.9144 -0.1612
  378SOL    HW2 7098   5.372   5.493   2.838 -0.1402 -2.0541  0.1224
  379SOL     OW 7099  10.183  10.405   5.738  0.0615  0.0048 -0.6312
  379SOL    HW1 7100  10.124  10.460   5.686 -0.9504 -0.2929  0.1555
  379SOL    HW2 7101  10.135  10.322   5.747  0.3216 -0.0290  0.5540
  380SOL     OW 7102  10.624  11.323   8.087  0.0082 -0.8444  0.4127
  380SOL    HW1 7103  10.644  11.263   8.159 -0.7948 -0.6623  0.7968
  380SOL    HW2 7104  10.559  11.277   8.034  0.9396 -1.1749 -0.4775
  381SOL     OW 7105   7.645   2.056   2.135 -0.1700  0.7681 -0.0481
  381SOL    HW1 7106   7.571   2.050   2.076 -1.5342  0.3982  1.6241
  381SOL    HW2 7107   7.607   2.058   2.223  1.8040 -0.1711  0.9186
  382SOL     OW 7108  12.049   3.369   9.396  0.1484 -0.1059  0.6797
  382SOL    HW1 7109  12.018   3.358   9.306  4.6234 -0.5023 -1.0728
  382SOL    HW2 7110  12.082   3.282   9.421 -0.0034  0.2683  2.3122
  383SOL     OW 7111   0.467   3.093   1.419 -0.1937 -0.0839  0.0448
  383SOL    HW1 7112   0.511   3.177   1.409 -1.2428  0.5422  0.4181
  383SOL    HW2 7113   0.488   3.066   1.509 -2.2914  1.3210  1.0615
  384SOL     OW 7114   7.552   3.451   0.951  0.6491 -0.0568  0.3623
  384SOL    HW1 7115   7.464   3.445   0.914 -1.1576 -0.2866  4.2051
  384SOL    HW2 7116   7.565   3.544   0.965  1.1686 -0.0065 -0.3651
  385SOL     OW 7117   2.109  10.126   4.120 -0.3799 -0.0125 -0.0927
  385SOL    HW1 7118   2.163  10.047   4.116  0.4798  0.5311  0.4328
  385SOL    HW2 7119   2.168  10.196   4.092 -0.9892  0.5137 -0.0755
  386SOL     OW 7120   7.175   5.108   7.835 -0.6424 -0.9739  0.3572
  386SOL    HW1 7121   7.230   5.030   7.828 -0.2201 -0.6114 -0.7839
  386SOL    HW2 7122   7.226   5.168   7.889 -0.7287 -1.2998  0.7994
  387SOL     OW 7123  11.619   9.236   6.676 -0.3473  0.2244  0.3006
  387SOL    HW1 7124  11.590   9.145   6.690  0.0596  0.0797  0.2317
  387SOL    HW2 7125  11.708   9.237   6.709 -0.2089  0.4954 -0.0802
  388SOL     OW 7126   3.658   4.712  10.632 -0.3685  0.3732  0.4410
  388SOL    HW1 7127   3.734   4.676  10.677 -0.5731  0.7817  1.1308
  388SOL    HW2 7128   3.679   4.705  10.539  1.1785  1.8967  0.6319
  389SOL     OW 7129  10.696   3.510   1.604  0.2212 -0.6918 -0.6950
  389SOL    HW1 7130  10.635   3.566   1.555 -1.0222 -0.8838  0.5470
  389SOL    HW2 7131  10.752   3.572   1.651 -0.7581 -0.4391  0.1998
  390SOL     OW 7132   5.031   4.996   2.032  0.0708  0.8005 -0.1219
  390SOL    HW1 7133   4.996   4.923   2.085 -1.8533  2.3353  0.8692
  390SOL    HW2 7134   4.957   5.023   1.978  1.1959  1.1104 -1.5490
  391SOL     OW 7135  10.415   4.305   2.163  0.0121 -0.1185  1.1637
  391SOL    HW1 7136  10.334   4.351   2.144  0.3174  0.7132  1.8195
  391SOL    HW2 7137  10.468   4.316   2.085 -0.1880  0.0406  1.0511
  392SOL     OW 7138  11.031   5.442   8.047 -0.3922  0.1677 -0.2993
  392SOL    HW1 7139  11.076   5.359   8.030  0.1871  0.6743 -1.3825
  392SOL    HW2 7140  10.938   5.419   8.050 -0.3537 -0.3544 -1.9372
  393SOL     OW 7141   5.222   0.702  11.560  0.1120  0.4444 -0.0155
  393SOL    HW1 7142   5.164   0.631  11.532  0.0183  0.2595  0.6425
  393SOL    HW2 7143   5.281   0.715  11.486 -0.0921 -0.0853 -0.2760
  394SOL     OW 7144   0.401  11.479   0.709 -0.2159 -0.1035 -0.2450
  394SOL    HW1 7145   0.311  11.471   0.677  0.4715 -1.6868 -1.9987
  394SOL    HW2 7146   0.428  11.388   0.727  1.4755  0.1766 -1.1521
  395SOL     OW 7147   5.749   3.643   0.837  0.2044  0.0643 -0.0738
  395SOL    HW1 7148   5.738   3.585   0.912  0.1673  0.8208  0.5209
  395SOL    HW2 7149   5.817   3.601   0.784  0.9175 -0.0153  0.8667
  396SOL     OW 7150  10.242  10.493   3.140  0.3649  0.6088 -0.7088
  396SOL    HW1 7151  10.309  10.507   3.207  0.9435  0.9083 -1.3458
  396SOL    HW2 7152  10.181  10.567   3.152  0.3792  0.5743 -0.4131
  397SOL     OW 7153  10.942   5.581  11.144  0.3368  0.6102  0.2384
  397SOL    HW1 7154  10.950   5.553  11.053 -0.5811 -2.3536  0.9584
  397SOL    HW2 7155  10.962   5.675  11.142  0.8959  0.5360 -2.8924
  398SOL     OW 7156   6.900  10.051  11.355 -0.3859  0.2925 -0.3490
  398SOL    HW1 7157   6.835   9.983  11.372  1.4468 -0.9753  2.2502
  398SOL    HW2 7158   6.857  10.132  11.380 -1.7781 -0.1781 -1.1019
  399SOL     OW 7159   0.344   7.543   1.083 -0.2253  0.1065 -0.7285
  399SOL    HW1 7160   0.390   7.525   1.165 -2.9953 -2.4987  0.4752
  399SOL    HW2 7161   0.286   7.617   1.103 -1.2792 -0.8543 -0.0622
  400SOL     OW 7162   1.734   1.504   3.933  0.6327  0.5175 -0.5760
  400SOL    HW1 7163   1.701   1.590   3.959 -0.2952 -0.1122  0.3933
  400SOL    HW2 7164   1.821   1.498   3.973  0.7178  1.0018 -0.6817
  401SOL     OW 7165   4.143   0.464   5.522 -0.4453  0.3038 -0.3045
  401SOL    HW1 7166   4.093   0.409   5.461  2.6062 -1.9536 -1.0192
  401SOL    HW2 7167   4.206   0.510   5.467  1.8342 -1.1616  0.9022
  402SOL     OW 7168   5.580   1.316   0.868 -0.6519 -0.3288 -0.3793
  402SOL    HW1 7169   5.635   1.251   0.825  0.0048 -1.5620  2.1591
  402SOL    HW2 7170   5.551   1.275   0.949 -2.8263  1.4272 -0.1606
  403SOL     OW 7171   9.618   2.046   3.497 -0.1185 -0.4231 -0.1567
  403SOL    HW1 7172   9.684   2.081   3.436  0.0136 -0.4734 -0.0417
  403SOL    HW2 7173   9.632   2.096   3.578  0.9701 -1.6732  0.4526
  404SOL     OW 7174   8.379   6.765   9.736  0.2047  0.0704 -0.0755
  404SOL    HW1 7175   8.422   6.685   9.707  1.0499  0.9884 -1.5099
  404SOL    HW2 7176   8.292   6.761   9.697 -0.0296 -0.4856  0.4901
  405SOL     OW 7177   6.674   1.522   5.731 -0.0764  0.2327  0.2361
  405SOL    HW1 7178   6.704   1.593   5.788  0.0873  0.2480  0.1314
  405SOL    HW2 7179   6.716   1.540   5.647  0.0113 -0.0204  0.2249
  406SOL     OW 7180   4.766   4.451  11.505 -0.2394 -0.3252 -0.5055
  406SOL    HW1 7181   4.857   4.450  11.533  0.6236 -2.4472 -2.9487
  406SOL    HW2 7182   4.724   4.383  11.558  0.7837 -2.5558 -2.3712
  407SOL     OW 7183   9.060  10.024   4.313 -0.4822 -0.0896  0.5541
  407SOL    HW1 7184   9.026   9.993   4.396 -2.1998  0.9083  0.2669
  407SOL    HW2 7185   9.152   9.997   4.313 -0.3858  0.0563  2.8352
  408SOL     OW 7186   6.581   1.720   7.358  0.1730 -0.2207  0.3716
  408SOL    HW1 7187   6.486   1.705   7.364  0.3224 -1.0370  0.7812
  408SOL    HW2 7188   6.606   1.749   7.445  0.5345 -1.4359  0.6855
  409SOL     OW 7189   7.555   2.759  10.593  0.5479 -0.0482  0.5385
  409SOL    HW1 7190   7.508   2.797  10.519  1.6954  1.4348  0.5106
  409SOL    HW2 7191   7.538   2.819  10.666  0.8752 -0.5154  1.0096
  410SOL     OW 7192  10.975   2.677   1.621  0.0979  0.1078 -0.4567
  410SOL    HW1 7193  10.982   2.635   1.707 -1.6786  1.8804  0.6228
  410SOL    HW2 7194  11.051   2.736   1.617 -0.8762  1.5287  0.8347
  411SOL     OW 7195   2.415   7.713   2.370  0.0282  0.1133 -0.3360
  411SOL    HW1 7196   2.479   7.667   2.424  1.3128 -0.8927 -2.5661
  411SOL    HW2 7197   2.353   7.645   2.343  0.6843  0.0887 -1.8784
  412SOL     OW 7198   7.662   7.246   4.877  0.0403 -0.2671 -0.0524
  412SOL    HW1 7199   7.752   7.229   4.849 -0.3838 -0.4786 -1.3498
  412SOL    HW2 7200   7.613   7.169   4.849 -0.7432  0.3244 -0.3459
  413SOL     OW 7201  10.663   1.319  11.046  0.1993 -0.2045  0.0889
  413SOL    HW1 7202  10.718   1.242  11.063 -0.4757 -0.3210  1.9991
  413SOL    HW2 7203  10.576   1.293  11.076 -0.4018  0.7824 -0.7439
  414SOL     OW 7204  10.726   3.379   3.746  0.1775 -0.5938 -0.0346
  414SOL    HW1 7205  10.784   3.412   3.677 -0.8472  0.7053 -0.3264
  414SOL    HW2 7206  10.784   3.333   3.806  1.9576  2.5228  0.8780
  415SOL     OW 7207   1.831   3.142  12.343 -0.1912 -0.2446 -0.2437
  415SOL    HW1 7208   1.921   3.175  12.333 -0.5333  0.8664  0.2393
  415SOL    HW2 7209   1.842   3.047  12.347  0.9007 -0.1696 -0.8530
  416SOL     OW 7210   0.804  11.423   4.512  0.3235 -0.1577 -0.1012
  416SOL    HW1 7211   0.805  11.489   4.443 -1.4258  0.9872  0.8864
  416SOL    HW2 7212   0.879  11.444   4.567 -0.5689  1.4863  0.5660
  417SOL     OW 7213   9.997  12.492   3.044 -0.2171  0.0843  0.1137
  417SOL    HW1 7214  10.042  12.576   3.051 -0.5600  0.1869  1.4246
  417SOL    HW2 7215  10.054  12.431   3.091  0.1733 -0.4958 -1.0766
  418SOL     OW 7216   1.049   4.606   9.383  0.0984 -0.2668  0.5376
  418SOL    HW1 7217   1.072   4.551   9.308 -1.1744  0.6795 -0.5741
  418SOL    HW2 7218   0.969   4.650   9.358 -0.5693 -0.1749  2.6110
  419SOL     OW 7219   1.805   2.970   7.869 -0.1225 -0.7417  0.1211
  419SOL    HW1 7220   1.752   2.892   7.852  0.0151 -0.6360 -0.8240
  419SOL    HW2 7221   1.741   3.037   7.895 -0.4642 -0.6224 -0.9828
  420SOL     OW 7222   5.924  12.077   0.005  0.0383  0.2629  0.4881
  420SOL    HW1 7223   5.895  12.066  -0.086  1.0571  0.6831  0.0860
  420SOL    HW2 7224   6.019  12.063   0.001 -0.0050 -0.5002  1.6344
  421SOL     OW 7225   9.934   0.577   6.022 -0.2653 -1.1250 -0.2798
  421SOL    HW1 7226   9.982   0.496   6.039 -0.9646 -1.8900 -1.6551
  421SOL    HW2 7227   9.858   0.572   6.081 -0.3831 -1.5732 -0.4559
  422SOL     OW 7228  10.417   2.269   6.004  0.3288  0.5254 -0.7292
  422SOL    HW1 7229  10.416   2.251   5.910  0.5407  0.7054 -0.7648
  422SOL    HW2 7230  10.439   2.361   6.011  0.7803  0.4002 -0.4883
  423SOL     OW 7231   9.491   3.462   9.614  0.3787 -0.3104 -0.2075
  423SOL    HW1 7232   9.429   3.389   9.611 -2.0148  1.5705 -0.3556
  423SOL    HW2 7233   9.531   3.456   9.700 -1.9111 -0.2234  0.9478
  424SOL     OW 7234   3.265   5.420   4.201  0.2685  0.5649 -0.5603
  424SOL    HW1 7235   3.358   5.404   4.219 -0.2392 -0.9151  1.0523
  424SOL    HW2 7236   3.245   5.503   4.245  0.2561 -0.4428  1.4318
  425SOL     OW 7237   0.208   4.557   9.820 -0.1705  0.6394  0.1019
  425SOL    HW1 7238   0.289   4.512   9.798  0.5860  2.0851 -0.2002
  425SOL    HW2 7239   0.171   4.507   9.893  2.0048  1.0418  1.5833
  426SOL     OW 7240   8.578   5.357   6.621  0.1639 -0.2985  0.3810
  426SOL    HW1 7241   8.525   5.360   6.701  1.3410  0.3287  1.1756
  426SOL    HW2 7242   8.562   5.441   6.578 -0.3847 -0.5922 -0.0092
  427SOL     OW 7243   6.604   1.332   0.700 -0.4245 -0.4156  0.0657
  427SOL    HW1 7244   6.566   1.250   0.670  2.9511 -1.3064 -2.3526
  427SOL    HW2 7245   6.579   1.396   0.633  1.4729 -0.8354 -1.1161
  428SOL     OW 7246   9.867   3.043   4.426 -0.2488  0.4755 -0.5050
  428SOL    HW1 7247   9.915   2.964   4.400 -0.1946  0.1626  0.5042
  428SOL    HW2 7248   9.778   3.012   4.445 -0.4728  0.8135 -0.9781
  429SOL     OW 7249   0.532   5.384   7.807 -0.2675  0.7337 -0.4508
  429SOL    HW1 7250   0.625   5.363   7.807 -0.4493 -0.0990 -0.4729
  429SOL    HW2 7251   0.520   5.440   7.883  0.5235  2.1416 -1.3051
  430SOL     OW 7252   0.239   7.344   1.499  0.0777 -0.3466  0.1324
  430SOL    HW1 7253   0.236   7.262   1.549  0.7794  0.0097  0.7832
  430SOL    HW2 7254   0.242   7.316   1.407  2.1852 -1.1404  0.3791
  431SOL     OW 7255   1.720   7.020   4.039 -0.3947 -0.3417 -0.1259
  431SOL    HW1 7256   1.788   7.040   4.104 -1.0900  1.7657  0.0198
  431SOL    HW2 7257   1.657   6.966   4.086  0.2754 -0.7954  0.2625
  432SOL     OW 7258   3.857  12.201  11.943  0.6876  0.2333 -0.0294
  432SOL    HW1 7259   3.921  12.271  11.958  0.1949  0.6397  0.2244
  432SOL    HW2 7260   3.778  12.246  11.913  0.4145 -0.2263 -0.0169
  433SOL     OW 7261   0.554   2.167   6.059  0.3007  0.0512 -0.2536
  433SOL    HW1 7262   0.625   2.156   5.995  0.5750 -0.5183  0.1353
  433SOL    HW2 7263   0.548   2.082   6.103 -0.5041  0.1478 -0.1531
  434SOL     OW 7264   7.747  11.632  11.333 -0.1879  0.4557  0.5208
  434SOL    HW1 7265   7.710  11.683  11.260 -0.7623  0.2909  0.6921
  434SOL    HW2 7266   7.741  11.691  11.408 -2.0175 -0.2646  1.0018
  435SOL     OW 7267  10.965   7.128   6.228  0.3969 -0.8105  0.1225
  435SOL    HW1 7268  11.051   7.128   6.269  0.1691  1.2471  0.7516
  435SOL    HW2 7269  10.942   7.221   6.221 -0.8568 -1.1991 -2.0124
  436SOL     OW 7270  10.536   0.834   2.949 -0.2250 -0.0443  0.3460
  436SOL    HW1 7271  10.623   0.865   2.923 -0.8899  0.7916 -0.9864
  436SOL    HW2 7272  10.538   0.740   2.932  0.1679  0.0995 -0.4495
  437SOL     OW 7273  11.370   4.119   9.775 -0.2115 -0.6121  0.3024
  437SOL    HW1 7274  11.373   4.200   9.826 -2.6976 -0.4015  0.2690
  437SOL    HW2 7275  11.342   4.146   9.687 -1.0316 -1.4646  0.2748
  438SOL     OW 7276   9.541   5.644   4.167 -0.3767 -0.6148 -0.0764
  438SOL    HW1 7277   9.562   5.577   4.102  1.9478 -3.3569  3.1268
  438SOL    HW2 7278   9.462   5.612   4.210  0.5122 -1.1909  1.1978
  439SOL     OW 7279   6.049   7.629   2.650  0.2418  0.6289 -0.3392
  439SOL    HW1 7280   6.020   7.686   2.579 -0.9407  1.3060  0.6594
  439SOL    HW2 7281   5.982   7.638   2.718  0.4789 -1.2727  0.2146
  440SOL     OW 7282  12.395   0.307   8.201  0.3240 -0.2467 -0.1009
  440SOL    HW1 7283  12.415   0.382   8.256  2.6367  0.4449 -1.7269
  440SOL    HW2 7284  12.417   0.231   8.255 -1.2764  0.2100  1.2709
  441SOL     OW 7285   3.019   5.294   1.124  0.2919 -0.3270  0.5496
  441SOL    HW1 7286   2.962   5.267   1.052  0.5325  0.8098 -0.0878
  441SOL    HW2 7287   3.021   5.218   1.182  1.2656 -1.8805 -1.3698
  442SOL     OW 7288  10.588  11.348  10.538 -0.4552 -0.0308 -0.0027
  442SOL    HW1 7289  10.520  11.302  10.489 -0.5003  0.7772 -0.7112
  442SOL    HW2 7290  10.638  11.278  10.580  0.8185 -0.9265 -2.7962
  443SOL     OW 7291   6.760   8.152   0.843 -0.8787 -0.0406  0.4624
  443SOL    HW1 7292   6.701   8.085   0.877 -2.3650 -0.3429 -2.3758
  443SOL    HW2 7293   6.798   8.193   0.921 -2.6992 -1.7184  2.3493
  444SOL     OW 7294   7.710   6.306   1.987 -0.5413 -0.4006  0.6936
  444SOL    HW1 7295   7.789   6.337   2.031 -0.9108  0.4430  0.7828
  444SOL    HW2 7296   7.659   6.264   2.056  1.0826 -3.6415  0.1345
  445SOL     OW 7297   3.369   5.675   9.360  0.1053  0.2114 -0.0050
  445SOL    HW1 7298   3.457   5.645   9.380  0.3956  0.3924 -0.9631
  445SOL    HW2 7299   3.377   5.770   9.351 -0.7285  0.5987  2.5982
  446SOL     OW 7300   3.194   6.640   7.147 -0.4710  0.2385  0.3471
  446SOL    HW1 7301   3.277   6.595   7.137  0.1289  1.5628 -0.9271
  446SOL    HW2 7302   3.128   6.570   7.146  0.5715 -0.7736  0.8653
  447SOL     OW 7303   9.887  12.044  10.914  0.1684 -0.0186 -0.5289
  447SOL    HW1 7304   9.873  12.001  10.830  0.2059 -2.0185  0.4070
  447SOL    HW2 7305   9.898  11.971  10.976  0.0589  1.3785  1.2164
  448SOL     OW 7306   6.341   5.160   6.862  0.8488  0.1618 -0.3399
  448SOL    HW1 7307   6.271   5.175   6.925  0.9839  0.2956 -0.2188
  448SOL    HW2 7308   6.354   5.065   6.862 -0.1438  0.0049 -1.2479
  449SOL     OW 7309  12.394   8.066   6.938 -0.1455  0.1189 -0.5551
  449SOL    HW1 7310  12.404   8.095   6.847 -0.8822 -0.3806 -0.8102
  449SOL    HW2 7311  12.301   8.044   6.945  0.1559 -1.0501 -0.0484
  450SOL     OW 7312   5.328   3.397   3.414  0.4980  0.3304  0.1897
  450SOL    HW1 7313   5.321   3.477   3.362 -0.4806 -0.2642 -0.6481
  450SOL    HW2 7314   5.320   3.427   3.504 -1.2054  1.0898 -0.1515
  451SOL     OW 7315  12.474   1.032   2.239 -0.2640  0.3492  0.5433
  451SOL    HW1 7316  12.499   0.941   2.256  2.2330  0.5842 -1.2330
  451SOL    HW2 7317  12.380   1.027   2.218 -0.1178 -1.8968  0.0947
  452SOL     OW 7318   1.967   7.622   0.750 -0.4557  0.4468 -0.2435
  452SOL    HW1 7319   1.936   7.704   0.711  1.0730 -0.0283 -2.6866
  452SOL    HW2 7320   1.887   7.569   0.759 -1.2503  1.6384 -0.0385
  453SOL     OW 7321   2.478   0.912   5.527  0.4392 -0.0008 -0.3944
  453SOL    HW1 7322   2.558   0.875   5.565 -0.1139 -0.6397  0.1740
  453SOL    HW2 7323   2.477   1.003   5.556 -1.0952 -0.9829  3.1120
  454SOL     OW 7324   5.569   0.310   3.596  0.3324  0.5386  0.5480
  454SOL    HW1 7325   5.594   0.399   3.569 -0.9770  0.6130 -0.5488
  454SOL    HW2 7326   5.481   0.320   3.631 -0.8483 -0.6259 -1.8445
  455SOL     OW 7327   5.930   5.872   5.437 -0.2842 -0.4478 -0.1261
  455SOL    HW1 7328   5.986   5.879   5.360 -0.4277 -0.0947 -0.1998
  455SOL    HW2 7329   5.895   5.783   5.434 -0.0611 -0.5289 -0.3095
  456SOL     OW 7330   2.333   7.598   8.567 -0.4365 -0.0072  0.1351
  456SOL    HW1 7331   2.285   7.526   8.525  0.0453 -2.1362  2.9404
  456SOL    HW2 7332   2.422   7.590   8.533  0.4017 -2.8436  2.5784
  457SOL     OW 7333   4.497   0.177  12.368  0.2767  0.2505 -0.1198
  457SOL    HW1 7334   4.421   0.154  12.314 -0.7229  2.0095  0.4441
  457SOL    HW2 7335   4.478   0.139  12.454  1.5583 -1.9870 -0.7724
  458SOL     OW 7336   5.399  10.085   5.866  0.5846 -0.0249  0.2430
  458SOL    HW1 7337   5.329  10.030   5.831 -0.0164 -0.3765  1.9342
  458SOL    HW2 7338   5.478  10.031   5.858  0.0642 -1.0175  1.5254
  459SOL     OW 7339   9.264   6.030   0.985  0.0355  0.2801  0.3610
  459SOL    HW1 7340   9.349   5.989   0.997  0.6417  0.5450 -2.3748
  459SOL    HW2 7341   9.276   6.121   1.011  1.2992  0.8817 -2.0553
  460SOL     OW 7342  12.408   4.846   8.154 -0.4098  0.3187 -0.2089
  460SOL    HW1 7343  12.416   4.807   8.067 -1.7778 -0.5791  0.0333
  460SOL    HW2 7344  12.342   4.914   8.144 -1.5632 -0.6770  0.3790
  461SOL     OW 7345   9.704   4.324   9.245  0.4626  0.1299 -0.3402
  461SOL    HW1 7346   9.658   4.316   9.328 -0.4985 -1.1303 -0.9583
  461SOL    HW2 7347   9.647   4.380   9.192  0.0949 -0.6262 -0.7698
  462SOL     OW 7348   5.241   0.498   1.962  0.7905 -0.0373  0.1436
  462SOL    HW1 7349   5.244   0.449   2.045  0.2547  0.7422  0.6396
  462SOL    HW2 7350   5.296   0.448   1.902  2.3423  0.1487  1.3721
  463SOL     OW 7351   0.192   2.145   1.249 -0.6221  0.2117 -0.3033
  463SOL    HW1 7352   0.206   2.216   1.187  1.0236  1.0722  0.9629
  463SOL    HW2 7353   0.271   2.145   1.303 -0.8608 -2.1901  0.1434
  464SOL     OW 7354   1.987   1.388  12.389 -0.1447 -0.2106 -0.0366
  464SOL    HW1 7355   1.941   1.305  12.391  0.8848 -0.7878  1.7268
  464SOL    HW2 7356   1.943   1.442  12.455 -0.8781  0.7198 -1.2387
  465SOL     OW 7357   2.554   2.926   2.484  0.1076  0.2422  0.0953
  465SOL    HW1 7358   2.597   3.002   2.522  1.4963 -0.8915  0.9286
  465SOL    HW2 7359   2.612   2.853   2.505 -1.5022 -1.1576 -0.0869
  466SOL     OW 7360   3.616   8.019   8.134  0.1085 -0.3469  0.6104
  466SOL    HW1 7361   3.700   8.026   8.089 -1.2853  1.6234 -1.9534
  466SOL    HW2 7362   3.609   8.100   8.184  0.1487 -0.9864  1.6858
  467SOL     OW 7363   6.766   3.400   2.655 -0.2930 -0.1276 -0.2097
  467SOL    HW1 7364   6.784   3.426   2.564  1.7266 -1.2727 -0.1890
  467SOL    HW2 7365   6.736   3.310   2.648  1.8697 -0.9406  0.3627
  468SOL     OW 7366   0.371   3.168   8.395  0.1801  0.1505  0.0126
  468SOL    HW1 7367   0.346   3.258   8.373  1.2742  0.0899 -1.6474
  468SOL    HW2 7368   0.368   3.165   8.491 -0.5540  1.7379  0.0711
  469SOL     OW 7369  12.439  10.183   1.428 -0.4360  0.2720 -0.2450
  469SOL    HW1 7370  12.350  10.218   1.440 -0.5261  0.1961 -0.6617
  469SOL    HW2 7371  12.445  10.111   1.490 -0.2244  1.0591  0.6779
  470SOL     OW 7372   1.416   1.602   2.457 -0.0835  0.0465  0.3758
  470SOL    HW1 7373   1.336   1.649   2.431 -0.5472  0.0746  1.7551
  470SOL    HW2 7374   1.389   1.510   2.461  0.7519 -0.3746 -2.0445
  471SOL     OW 7375   8.628   1.626   9.181  0.0493 -0.2546 -0.0223
  471SOL    HW1 7376   8.577   1.590   9.108 -1.8033 -0.2724  1.2143
  471SOL    HW2 7377   8.703   1.568   9.189 -1.1676 -1.9023 -0.1733
  472SOL     OW 7378  12.325   7.803  12.445 -0.5168  0.1761 -0.4147
  472SOL    HW1 7379  12.233   7.816  12.469 -0.9432 -2.1001 -0.6406
  472SOL    HW2 7380  12.352   7.887  12.407 -1.1377  2.4373  3.6118
  473SOL     OW 7381   5.004   8.192   0.961 -0.8605  0.6644 -0.7088
  473SOL    HW1 7382   5.001   8.130   1.033 -0.4797  1.1110 -0.3029
  473SOL    HW2 7383   4.957   8.148   0.889 -0.5123 -0.1280 -0.4624
  474SOL     OW 7384   5.630   0.947  12.234 -0.5840 -0.7813  0.3250
  474SOL    HW1 7385   5.715   0.944  12.277 -0.7312 -1.9624  0.5716
  474SOL    HW2 7386   5.638   1.018  12.170  0.0626  0.1289  1.3782
  475SOL     OW 7387   7.603  10.067   2.100 -0.7473  0.1651 -0.1820
  475SOL    HW1 7388   7.644  10.129   2.161 -0.9744 -1.1117  1.3284
  475SOL    HW2 7389   7.676  10.015   2.066 -0.8307 -0.5861  0.7417
  476SOL     OW 7390   4.340  10.413   0.401 -0.0780  0.3794 -0.2383
  476SOL    HW1 7391   4.284  10.361   0.459 -0.0309  0.5664 -0.0235
  476SOL    HW2 7392   4.390  10.469   0.461 -0.3445  0.8854 -0.4921
  477SOL     OW 7393  12.263   5.139   4.439 -0.2775 -0.3308 -0.2187
  477SOL    HW1 7394  12.280   5.062   4.493  0.3827 -0.2751 -0.3339
  477SOL    HW2 7395  12.301   5.211   4.489 -1.1083 -0.0372  0.0037
  478SOL     OW 7396   4.171   2.914   5.307 -0.3774  0.0363 -0.3072
  478SOL    HW1 7397   4.245   2.887   5.253  0.3725 -1.7337  1.4480
  478SOL    HW2 7398   4.119   2.970   5.251  2.6584  2.0241 -1.4134
  479SOL     OW 7399   5.158   5.044  10.614 -0.0896 -0.1947 -0.6476
  479SOL    HW1 7400   5.240   4.997  10.630 -0.1031 -0.7753 -2.0976
  479SOL    HW2 7401   5.184   5.135  10.599  0.0968 -0.0280  0.6182
  480SOL     OW 7402   2.267  11.938   4.797 -0.0449  0.8861  0.5265
  480SOL    HW1 7403   2.227  12.026   4.795 -0.1176  0.8538  0.5444
  480SOL    HW2 7404   2.340  11.947   4.858 -0.7955  0.6282  1.5077
  481SOL     OW 7405  12.223   3.681   2.395 -0.3290  0.4825  0.7283
  481SOL    HW1 7406  12.244   3.589   2.382 -1.6939  0.2235  0.2084
  481SOL    HW2 7407  12.196   3.686   2.487 -0.3405  0.3522  0.7320
  482SOL     OW 7408   8.274   2.520  11.003  0.7461  0.6293  0.5725
  482SOL    HW1 7409   8.328   2.504  10.926  1.4281 -0.8357  1.3079
  482SOL    HW2 7410   8.335   2.518  11.076 -0.3411 -2.1899  1.5470
  483SOL     OW 7411   9.330   5.143   2.446 -0.0109 -0.5218  0.0498
  483SOL    HW1 7412   9.390   5.217   2.436  1.2409 -1.4363  0.4722
  483SOL    HW2 7413   9.293   5.154   2.533 -1.2365  0.5592 -0.5608
  484SOL     OW 7414   5.157  11.366   2.377  0.0965  0.3572 -0.5919
  484SOL    HW1 7415   5.207  11.350   2.297  0.6063 -0.1702 -0.1794
  484SOL    HW2 7416   5.196  11.307   2.441 -0.0010  1.1035  0.1715
  485SOL     OW 7417  10.481   3.689   6.412  0.3646  0.3412 -0.1153
  485SOL    HW1 7418  10.428   3.686   6.491  1.5673 -1.6026  0.6823
  485SOL    HW2 7419  10.501   3.782   6.400 -0.3908  0.7433  1.4553
  486SOL     OW 7420   1.695  11.211  11.816 -0.3625  0.0636  0.0780
  486SOL    HW1 7421   1.722  11.301  11.833 -2.4128  0.6946  0.2463
  486SOL    HW2 7422   1.662  11.180  11.901 -1.1234 -0.2962 -0.3390
  487SOL     OW 7423   1.168   7.246   2.912 -0.5275 -0.1347  0.1418
  487SOL    HW1 7424   1.210   7.163   2.889  0.5138  0.2836  0.4834
  487SOL    HW2 7425   1.184   7.303   2.837  1.8905  0.8679  1.3017
  488SOL     OW 7426  10.448  10.979   7.369 -0.3186  0.3737  0.3734
  488SOL    HW1 7427  10.434  10.892   7.332  1.9820  1.0537 -2.4405
  488SOL    HW2 7428  10.404  10.977   7.454  0.8109 -3.9951  1.0712
  489SOL     OW 7429   2.130   6.681   6.308 -1.0635 -0.0415 -0.1069
  489SOL    HW1 7430   2.077   6.613   6.350 -3.6033  2.0269  0.2804
  489SOL    HW2 7431   2.118   6.664   6.214 -4.2487  1.4803 -0.1278
  490SOL     OW 7432   2.285   5.238  11.515 -0.0991  0.5323 -0.1755
  490SOL    HW1 7433   2.334   5.217  11.595  1.3266 -0.6568 -1.2940
  490SOL    HW2 7434   2.275   5.333  11.518 -0.4837  0.4752  1.6268
  491SOL     OW 7435   5.301  12.357   5.666  0.0698 -0.3939  0.8134
  491SOL    HW1 7436   5.333  12.318   5.584  1.5995  0.2513  1.0671
  491SOL    HW2 7437   5.260  12.284   5.712  0.3569 -1.0631  0.0485
  492SOL     OW 7438   5.005  12.119  10.742 -0.2405  0.5328 -0.0936
  492SOL    HW1 7439   4.940  12.182  10.711  0.3664  0.8164 -0.8107
  492SOL    HW2 7440   5.008  12.132  10.837 -2.4051 -0.6119  0.2045
  493SOL     OW 7441   8.448   5.392   2.197  0.4603  0.0200 -0.0532
  493SOL    HW1 7442   8.441   5.486   2.212  0.1460 -0.2922  2.0700
  493SOL    HW2 7443   8.542   5.376   2.186  0.7906  0.3071  2.0142
  494SOL     OW 7444   2.935   5.090  12.427  0.5539 -0.2336 -0.1221
  494SOL    HW1 7445   2.976   5.119  12.346 -1.5835  1.0538 -0.8203
  494SOL    HW2 7446   2.996   5.117  12.496  0.6859  2.0897 -1.0503
  495SOL     OW 7447   6.331   6.982  11.133 -0.0906 -0.0585  0.3873
  495SOL    HW1 7448   6.271   6.941  11.071 -0.0726  1.4327 -0.6822
  495SOL    HW2 7449   6.396   6.914  11.152 -0.9953 -1.0534  0.0187
  496SOL     OW 7450   9.822  12.388  11.897  0.3450  0.0714  0.4617
  496SOL    HW1 7451   9.812  12.326  11.825  0.2181  1.2588 -0.5892
  496SOL    HW2 7452   9.883  12.346  11.957  0.2529 -1.0604 -0.2063
  497SOL     OW 7453   7.296   4.291   3.271 -0.3841  0.2425  0.2706
  497SOL    HW1 7454   7.307   4.246   3.355  0.7835 -2.2205 -1.0797
  497SOL    HW2 7455   7.202   4.306   3.263 -0.5632  0.0874  1.7843
  498SOL     OW 7456   2.501   5.326   9.750  0.2137  0.3267 -0.2067
  498SOL    HW1 7457   2.416   5.289   9.774  1.4400 -0.1369  4.2230
  498SOL    HW2 7458   2.565   5.260   9.777  2.1697  0.4823 -3.7392
  499SOL     OW 7459   5.248   2.681   8.265 -0.1440 -0.0616  0.7191
  499SOL    HW1 7460   5.236   2.753   8.327 -1.4492 -0.1734  0.6206
  499SOL    HW2 7461   5.343   2.667   8.263  0.0350  0.8861  1.6044
  500SOL     OW 7462   6.019   3.291   6.554 -0.2437 -0.2447  0.0741
  500SOL    HW1 7463   5.963   3.366   6.534 -0.9892 -0.3812  1.5467
  500SOL    HW2 7464   6.031   3.247   6.470  1.1789  2.1232 -1.0921
  501SOL     OW 7465  10.749   4.641   0.877 -0.2097 -0.1765 -0.2443
  501SOL    HW1 7466  10.709   4.621   0.961  0.3335 -2.0935 -0.4093
  501SOL    HW2 7467  10.692   4.708   0.839 -0.8573  0.1967  1.3250
  502SOL     OW 7468   5.561   8.308   5.193 -0.0348  0.0163 -0.1084
  502SOL    HW1 7469   5.598   8.334   5.109  1.9817  0.9798  1.0049
  502SOL    HW2 7470   5.570   8.385   5.249  1.1795 -1.3975  1.7733
  503SOL     OW 7471   9.308   3.592   7.425  0.2908  0.0256  0.1583
  503SOL    HW1 7472   9.341   3.511   7.464  0.9315 -0.2860 -0.9996
  503SOL    HW2 7473   9.297   3.571   7.332 -2.3370  0.3867  0.3151
  504SOL     OW 7474   4.012   7.679  10.958 -0.7024 -0.2491  0.4321
  504SOL    HW1 7475   4.085   7.714  11.008 -0.7147  0.3003  0.0735
  504SOL    HW2 7476   3.990   7.749  10.896 -2.6733  0.3226  1.6950
  505SOL     OW 7477  10.791   0.912   2.912  0.9680  0.0170 -0.2660
  505SOL    HW1 7478  10.859   0.858   2.873  1.9336 -0.3074  1.7376
  505SOL    HW2 7479  10.832   0.952   2.988 -0.7047  0.9140  0.2307
  506SOL     OW 7480   3.086   3.680   2.330  0.0757  0.3221  0.0891
  506SOL    HW1 7481   3.064   3.589   2.347 -0.5632  0.2773 -0.8816
  506SOL    HW2 7482   3.020   3.709   2.267  1.4581  0.8508 -1.1770
  507SOL     OW 7483   3.426  10.245   2.897  0.3903 -0.4877 -0.7525
  507SOL    HW1 7484   3.402  10.240   2.989  1.9826  0.7498 -0.2005
  507SOL    HW2 7485   3.353  10.291   2.855 -0.2697 -0.9151 -0.0927
  508SOL     OW 7486  10.331  11.002   4.691  0.0701  0.0339 -0.0779
  508SOL    HW1 7487  10.289  11.086   4.706 -0.0915 -0.1381  0.4546
  508SOL    HW2 7488  10.352  11.002   4.597 -1.9454 -0.2323 -0.5822
  509SOL     OW 7489   1.676   1.804   2.755  0.0877  0.1042 -0.3746
  509SOL    HW1 7490   1.673   1.741   2.684  1.6159  0.0632 -0.4327
  509SOL    HW2 7491   1.620   1.876   2.726  0.5178 -0.0051 -1.5192
  510SOL     OW 7492   9.315   4.940   9.151 -0.3549 -0.8269 -0.3886
  510SOL    HW1 7493   9.395   4.991   9.163 -0.3644 -0.9174  0.0866
  510SOL    HW2 7494   9.260   4.964   9.225  0.3200 -2.7987  0.8081
  511SOL     OW 7495   8.893   3.208   6.862  0.1157 -1.3201  0.7519
  511SOL    HW1 7496   8.888   3.119   6.897 -0.1826 -1.3092  0.7387
  511SOL    HW2 7497   8.809   3.247   6.884  0.0660 -1.1951  0.3444
  512SOL     OW 7498   7.160   6.738   9.116 -0.4253 -0.5423  0.0433
  512SOL    HW1 7499   7.248   6.741   9.078 -0.2634  2.6286  0.3684
  512SOL    HW2 7500   7.168   6.679   9.191  1.8108  0.5869  0.8032
  513SOL     OW 7501   5.966   7.416   1.686  0.3062  0.2102 -0.0022
  513SOL    HW1 7502   5.947   7.346   1.748 -0.8818 -0.1810 -0.7668
  513SOL    HW2 7503   6.022   7.477   1.734  0.7270 -0.8770  0.9210
  514SOL     OW 7504  11.125   7.632   6.109  0.2853  0.1399  0.1914
  514SOL    HW1 7505  11.150   7.700   6.172 -0.0100  1.1561 -0.7590
  514SOL    HW2 7506  11.032   7.648   6.092  0.5436  0.4011 -1.0948
  515SOL     OW 7507   1.745   8.164   2.351 -0.6103  0.2803  0.2410
  515SOL    HW1 7508   1.712   8.230   2.291 -0.3973  2.3287  2.2481
  515SOL    HW2 7509   1.815   8.208   2.399 -2.4017 -0.3388  3.7270
  516SOL     OW 7510  12.410   7.279   4.698 -0.3714  0.4276 -0.2068
  516SOL    HW1 7511  12.476   7.241   4.640 -0.5392 -1.2916  0.6493
  516SOL    HW2 7512  12.359   7.337   4.642  1.1759  0.9623 -1.1302
  517SOL     OW 7513   1.290  11.357   9.725 -0.6577  0.2032  0.7220
  517SOL    HW1 7514   1.383  11.341   9.743 -0.7264 -2.6119 -0.7794
  517SOL    HW2 7515   1.244  11.310   9.795 -0.9728  1.3408  1.2918
  518SOL     OW 7516   0.757   1.583   6.306  0.0338  0.1238 -0.0448
  518SOL    HW1 7517   0.693   1.555   6.240 -0.7055 -0.1804  0.7779
  518SOL    HW2 7518   0.753   1.514   6.373  0.1033  0.8815  0.7544
  519SOL     OW 7519   8.617   3.815   8.470 -0.6571  0.1155 -0.6578
  519SOL    HW1 7520   8.593   3.903   8.442 -0.9456  0.1593 -0.2800
  519SOL    HW2 7521   8.684   3.787   8.407 -0.0074  0.8943 -0.3417
  520SOL     OW 7522   0.713   6.117   4.479  0.0183 -0.2039 -0.4533
  520SOL    HW1 7523   0.664   6.165   4.546 -0.6284 -1.6581  0.1709
  520SOL    HW2 7524   0.659   6.040   4.461  1.7316 -1.5175 -0.2652
  521SOL     OW 7525  12.057   3.153  11.677 -0.4514 -0.1375  0.0741
  521SOL    HW1 7526  12.060   3.170  11.582 -0.2191 -0.9731 -0.0810
  521SOL    HW2 7527  11.984   3.093  11.688  0.4087 -1.2034  0.2085
  522SOL     OW 7528  10.530   8.174   6.491  0.0268 -0.3773  0.3411
  522SOL    HW1 7529  10.597   8.183   6.559 -0.1656 -1.2582  0.6687
  522SOL    HW2 7530  10.473   8.249   6.504  1.9114  1.4101 -1.0930
  523SOL     OW 7531   7.901   3.401   4.732  0.2023 -0.6621 -0.2148
  523SOL    HW1 7532   7.897   3.340   4.805 -0.7336 -0.1425  0.1896
  523SOL    HW2 7533   7.820   3.384   4.683 -0.5367  0.8604  0.4224
  524SOL     OW 7534   7.966   4.384   7.259  0.0757 -0.1906 -0.1504
  524SOL    HW1 7535   7.877   4.419   7.266  0.1298 -0.3158  1.5432
  524SOL    HW2 7536   7.954   4.298   7.217 -0.7662 -0.7364  1.1592
  525SOL     OW 7537  11.062  11.017  12.261  0.5217 -0.0378 -0.2553
  525SOL    HW1 7538  10.985  10.964  12.239  0.4803 -0.0555 -0.0728
  525SOL    HW2 7539  11.118  11.011  12.184  1.0449 -1.3020  0.1973
  526SOL     OW 7540   3.560  10.383  10.559 -0.1675  0.2408 -0.1488
  526SOL    HW1 7541   3.538  10.473  10.584  1.5280 -0.1505  3.3629
  526SOL    HW2 7542   3.535  10.330  10.635 -0.5880 -2.2619 -1.8818
  527SOL     OW 7543   4.997   9.292   5.955  0.3881 -0.0395 -0.2895
  527SOL    HW1 7544   5.056   9.296   6.030  0.8964  0.0155 -0.6942
  527SOL    HW2 7545   4.981   9.383   5.932  1.1798 -0.0723 -0.9911
  528SOL     OW 7546   5.025   8.498  12.456  0.1284  0.7806 -0.2140
  528SOL    HW1 7547   5.120   8.496  12.462  0.1568  2.1990  0.1945
  528SOL    HW2 7548   5.004   8.589  12.432 -1.1237  0.5101 -0.2385
  529SOL     OW 7549  11.987   9.002  10.734 -0.6887  0.1419  0.2441
  529SOL    HW1 7550  12.021   9.022  10.647 -2.5766  1.9986 -0.1618
  529SOL    HW2 7551  12.064   8.994  10.790  0.6161 -2.0532 -1.7284
  530SOL     OW 7552   6.303   2.425   8.112 -0.0226  0.4881  0.2876
  530SOL    HW1 7553   6.277   2.517   8.119  0.2598  0.6879 -0.9943
  530SOL    HW2 7554   6.345   2.419   8.026  1.0821 -0.5726  0.8803
  531SOL     OW 7555   5.936   0.502   9.301 -0.1171 -0.1635  0.3748
  531SOL    HW1 7556   5.859   0.449   9.322 -0.0067  0.0030  1.2382
  531SOL    HW2 7557   5.969   0.531   9.386  2.5150 -2.4852  0.2721
  532SOL     OW 7558   8.025   9.222   7.377 -0.1526 -0.1267  0.3125
  532SOL    HW1 7559   8.007   9.219   7.471 -0.0708  2.0891  0.4496
  532SOL    HW2 7560   8.005   9.312   7.351 -0.4562 -0.7682 -1.8695
  533SOL     OW 7561   3.787   2.858  11.835 -0.3770  0.0564  0.0473
  533SOL    HW1 7562   3.881   2.862  11.855 -0.1828  1.8922 -0.9883
  533SOL    HW2 7563   3.783   2.835  11.743 -0.9354  0.2106  0.0299
  534SOL     OW 7564   4.696   7.441   3.246 -0.1949  0.4917  0.1964
  534SOL    HW1 7565   4.657   7.423   3.332 -0.5181 -1.4132 -0.3050
  534SOL    HW2 7566   4.789   7.419   3.257 -0.7820 -3.0988 -0.7244
  535SOL     OW 7567   3.731  10.724   7.875  0.3180  0.1489 -0.0704
  535SOL    HW1 7568   3.782  10.738   7.955 -1.2875 -1.9416  1.4430
  535SOL    HW2 7569   3.643  10.702   7.906 -0.9582  1.3843 -2.5098
  536SOL     OW 7570   7.123   0.293   4.206  0.0972 -0.6088  0.9001
  536SOL    HW1 7571   7.059   0.225   4.186 -1.0832  0.2229  1.7037
  536SOL    HW2 7572   7.086   0.341   4.280 -0.5327  2.6687 -1.2916
  537SOL     OW 7573   0.044   0.464  12.083  0.4691 -0.1919 -0.1970
  537SOL    HW1 7574   0.113   0.514  12.126  0.8361  0.1998 -1.2035
  537SOL    HW2 7575  -0.011   0.531  12.042  1.6149 -0.5977 -2.5470
  538SOL     OW 7576   0.497   9.461   0.400 -0.2932 -0.1162 -0.0043
  538SOL    HW1 7577   0.462   9.392   0.457  0.5800 -1.5176 -1.0920
  538SOL    HW2 7578   0.590   9.441   0.394 -0.4016 -0.1404 -2.0830
  539SOL     OW 7579   7.195   0.279   2.817 -0.6068 -0.0759  0.0785
  539SOL    HW1 7580   7.171   0.205   2.873 -0.9118 -0.1566 -0.1530
  539SOL    HW2 7581   7.257   0.243   2.754 -2.1642 -0.6280 -1.2407
  540SOL     OW 7582   9.085   7.361   4.508  0.5966 -0.6265 -0.1158
  540SOL    HW1 7583   9.154   7.322   4.561 -1.1121 -2.8094  0.6925
  540SOL    HW2 7584   9.007   7.356   4.563 -0.6749 -0.3254 -1.7985
  541SOL     OW 7585  12.058   7.927   2.398 -0.1307  0.3010 -0.0544
  541SOL    HW1 7586  11.975   7.885   2.374  0.9555 -0.8669 -1.9856
  541SOL    HW2 7587  12.124   7.861   2.380  1.2524  1.1097  1.7274
  542SOL     OW 7588   8.441   4.574   9.502  0.5117  0.2881 -0.2881
  542SOL    HW1 7589   8.414   4.650   9.450 -3.8433  0.0494  1.2528
  542SOL    HW2 7590   8.491   4.612   9.575 -0.3176  1.5289 -0.3328
  543SOL     OW 7591   9.612   8.536   2.663  0.0462 -0.2776 -0.2126
  543SOL    HW1 7592   9.695   8.524   2.709  0.8063  3.0010 -0.5204
  543SOL    HW2 7593   9.637   8.548   2.572 -0.8472  0.0538 -0.4230
  544SOL     OW 7594  10.728   1.479   0.815 -0.2963  0.3120  0.1474
  544SOL    HW1 7595  10.793   1.501   0.749 -0.8483 -0.8473 -0.8272
  544SOL    HW2 7596  10.652   1.533   0.794 -0.7719 -0.6522 -0.7270
  545SOL     OW 7597   5.122   5.666   3.430 -0.2230 -0.4981  0.1965
  545SOL    HW1 7598   5.050   5.716   3.392  0.0664  1.4939  2.1166
  545SOL    HW2 7599   5.101   5.659   3.523  1.5264 -0.8316  0.6102
  546SOL     OW 7600  10.473   3.853   8.594  0.5349 -0.3902  0.3254
  546SOL    HW1 7601  10.418   3.792   8.643 -0.3577 -0.1476 -0.3501
  546SOL    HW2 7602  10.450   3.939   8.629  0.3887 -0.2748 -0.0558
  547SOL     OW 7603   0.566  11.062   4.560  0.4256 -0.2179 -0.5521
  547SOL    HW1 7604   0.598  11.082   4.648 -0.4694  1.7911 -0.6144
  547SOL    HW2 7605   0.631  11.101   4.502  0.3779 -0.4589 -0.7682
  548SOL     OW 7606  10.399   4.255   7.501  0.0960 -0.4354 -0.6170
  548SOL    HW1 7607  10.493   4.274   7.495 -0.0256  0.1445 -0.7435
  548SOL    HW2 7608  10.393   4.183   7.563  0.7443 -1.4661 -1.7177
  549SOL     OW 7609   5.653   1.970   7.704  0.5338 -0.4102  0.6143
  549SOL    HW1 7610   5.697   1.888   7.727 -0.2186 -0.9035  0.3370
  549SOL    HW2 7611   5.616   2.001   7.786  0.6610 -0.4392  0.6845
  550SOL     OW 7612  10.573   5.739   5.400 -0.1842  0.1863 -0.4684
  550SOL    HW1 7613  10.501   5.687   5.434 -0.6938  1.1756 -0.0018
  550SOL    HW2 7614  10.646   5.720   5.459 -1.0772  1.9473  1.3223
  551SOL     OW 7615   6.342   6.231   3.083  0.6568 -0.0770  0.0577
  551SOL    HW1 7616   6.278   6.297   3.057  0.1955 -0.4567  0.2262
  551SOL    HW2 7617   6.422   6.282   3.103  1.3820  0.1702 -3.0528
  552SOL     OW 7618   4.028   5.401   5.307 -0.4980 -0.0388 -0.1836
  552SOL    HW1 7619   3.967   5.384   5.379 -0.7950  2.0403  0.1195
  552SOL    HW2 7620   3.989   5.475   5.259  0.7927  0.0356 -1.1775
  553SOL     OW 7621  11.355   9.338   6.785  0.1532 -0.4973 -0.5491
  553SOL    HW1 7622  11.423   9.292   6.736 -0.3899 -0.8463 -0.9905
  553SOL    HW2 7623  11.279   9.337   6.727 -0.3697 -0.5328  0.1264
  554SOL     OW 7624   5.790  10.325  11.568  0.2049  0.2715 -0.2101
  554SOL    HW1 7625   5.752  10.284  11.646 -0.0876 -0.8554 -0.9212
  554SOL    HW2 7626   5.841  10.255  11.527 -0.1412  0.6676 -1.3473
  555SOL     OW 7627   5.475   4.392  10.822  0.1876  0.3901 -0.1945
  555SOL    HW1 7628   5.381   4.376  10.831  0.3491 -1.3643 -1.2579
  555SOL    HW2 7629   5.510   4.373  10.909 -0.3106  0.0800 -0.0575
  556SOL     OW 7630   3.097   8.645   7.681 -0.1011 -0.0000  0.5241
  556SOL    HW1 7631   3.127   8.614   7.595  0.6265  0.5762  0.5633
  556SOL    HW2 7632   3.013   8.600   7.695  1.0314 -2.1629  0.6935
  557SOL     OW 7633   1.548   6.774   0.444 -0.1205  0.1017  0.4739
  557SOL    HW1 7634   1.546   6.830   0.367 -0.7680 -1.7471 -0.9378
  557SOL    HW2 7635   1.632   6.793   0.486  0.6558  0.5220 -1.2015
  558SOL     OW 7636   1.922   4.181   7.673 -0.3531  0.0069 -0.5421
  558SOL    HW1 7637   1.980   4.203   7.600 -0.4727  1.9844 -0.1046
  558SOL    HW2 7638   1.941   4.248   7.739 -0.9729 -1.1332  0.8310
  559SOL     OW 7639   2.068   0.716   9.129 -0.4276  0.1232 -0.0048
  559SOL    HW1 7640   1.978   0.740   9.107 -0.4601 -0.2716 -0.3118
  559SOL    HW2 7641   2.096   0.659   9.058  0.0616  0.2295  0.0980
  560SOL     OW 7642  11.448   8.288  10.570 -0.1991 -0.3023  0.2821
  560SOL    HW1 7643  11.498   8.317  10.494 -1.7187 -2.0064 -1.4731
  560SOL    HW2 7644  11.371   8.345  10.571 -0.2127 -0.3237  0.5099
  561SOL     OW 7645   6.200  10.286  12.469  0.1035  0.4058  0.1051
  561SOL    HW1 7646   6.208  10.209  12.413  0.6248  1.4581 -1.3375
  561SOL    HW2 7647   6.287  10.297  12.507  0.9927  1.9585 -2.0973
  562SOL     OW 7648  11.258   8.506   1.012  0.0719  0.3158  0.7026
  562SOL    HW1 7649  11.292   8.479   1.097  2.8524 -1.9104 -0.9236
  562SOL    HW2 7650  11.205   8.432   0.983 -0.2206  0.7292  0.1751
  563SOL     OW 7651  11.349   7.571   4.394  0.2844  0.2173 -0.5378
  563SOL    HW1 7652  11.300   7.565   4.476  0.4258 -1.7992 -0.5536
  563SOL    HW2 7653  11.440   7.585   4.421  0.0267  1.9077 -0.4523
  564SOL     OW 7654   6.728   6.888   2.834  0.3011  0.0131  0.2136
  564SOL    HW1 7655   6.674   6.963   2.861 -1.7642 -0.6666 -1.7088
  564SOL    HW2 7656   6.726   6.829   2.909 -0.1579  0.7905  0.8279
  565SOL     OW 7657  10.203   1.939  10.915  0.5505 -0.1488 -0.2724
  565SOL    HW1 7658  10.182   1.942  11.008 -0.0369  1.0994 -0.4204
  565SOL    HW2 7659  10.249   2.021  10.898 -2.6245  1.5283 -1.7658
  566SOL     OW 7660   9.168   4.684  11.508 -0.7594 -0.1621 -0.0459
  566SOL    HW1 7661   9.090   4.637  11.480 -0.8986  0.2692 -0.3997
  566SOL    HW2 7662   9.147   4.776  11.493 -1.8087  0.3645  3.7016
  567SOL     OW 7663  10.626   5.038   0.428 -0.1392 -0.4022 -0.0113
  567SOL    HW1 7664  10.592   5.128   0.430  1.2372  0.1453  1.7010
  567SOL    HW2 7665  10.570   4.989   0.487 -0.8541 -0.6813 -0.9002
  568SOL     OW 7666   6.656   8.890   2.302 -0.1052  0.7596 -0.3678
  568SOL    HW1 7667   6.622   8.807   2.334  0.6496  1.1930  1.7349
  568SOL    HW2 7668   6.588   8.924   2.243 -0.6881 -1.0185 -0.7603
  569SOL     OW 7669   2.261   7.979   2.336 -0.3235  0.2895  0.2707
  569SOL    HW1 7670   2.340   7.929   2.358  0.3893  1.5788  0.7180
  569SOL    HW2 7671   2.286   8.070   2.348 -1.1070  0.8829 -2.0502
  570SOL     OW 7672   7.534   1.738   3.130 -0.1312  0.0434 -1.0247
  570SOL    HW1 7673   7.604   1.762   3.191  0.3183 -2.1092 -0.6331
  570SOL    HW2 7674   7.580   1.706   3.052 -0.6271 -1.8713 -0.5736
  571SOL     OW 7675   8.445  10.937  11.603 -0.7253 -0.5431  0.6219
  571SOL    HW1 7676   8.476  11.027  11.612 -2.4317  0.1159  0.3022
  571SOL    HW2 7677   8.400  10.935  11.519 -1.5932 -1.4057  1.0826
  572SOL     OW 7678   9.336   1.208   7.852  0.0493  0.5774  0.4612
  572SOL    HW1 7679   9.311   1.242   7.766  0.3066 -0.1228  0.1012
  572SOL    HW2 7680   9.431   1.209   7.853  0.0952 -0.9078  0.1032
  573SOL     OW 7681   3.182  11.123  12.004 -0.5287  0.3173  0.4742
  573SOL    HW1 7682   3.205  11.182  11.932 -0.0365 -0.2057  0.1926
  573SOL    HW2 7683   3.089  11.138  12.018 -0.5156  0.8130  0.0856
  574SOL     OW 7684   9.268   8.320   5.130 -0.4757  0.3460 -0.0265
  574SOL    HW1 7685   9.242   8.229   5.115  0.5991 -0.0192  0.2219
  574SOL    HW2 7686   9.236   8.367   5.053 -3.4443  0.3113  1.0568
  575SOL     OW 7687   8.195   7.053   6.067  0.3916  0.2900 -0.4765
  575SOL    HW1 7688   8.209   7.073   6.159  0.5177 -0.4447 -0.3263
  575SOL    HW2 7689   8.103   7.028   6.061  0.4617  0.0291 -0.4880
  576SOL     OW 7690   8.986   8.514   8.462 -0.5783 -0.4688 -0.4083
  576SOL    HW1 7691   9.056   8.547   8.406 -0.2643 -0.8902 -0.2653
  576SOL    HW2 7692   9.004   8.421   8.471 -0.6239 -0.4079  0.3942
  577SOL     OW 7693   9.669   1.790   0.472 -0.2049 -0.2101  0.5437
  577SOL    HW1 7694   9.664   1.716   0.533  0.5743  0.4485  1.4581
  577SOL    HW2 7695   9.756   1.828   0.489 -0.3797  0.5869 -0.2907
  578SOL     OW 7696  10.210  11.763  11.202  0.0378 -0.0143 -0.1291
  578SOL    HW1 7697  10.298  11.765  11.240 -0.1914 -1.1796  0.5164
  578SOL    HW2 7698  10.224  11.778  11.109  0.9883 -0.7138 -0.1211
  579SOL     OW 7699  12.117   2.954   1.040  0.2315 -0.5545 -0.4671
  579SOL    HW1 7700  12.107   3.023   0.974 -0.7171 -0.7219 -0.5195
  579SOL    HW2 7701  12.027   2.926   1.058  0.1559  1.4435  3.0449
  580SOL     OW 7702   6.093   7.023  10.818  0.6457 -0.3163 -0.5823
  580SOL    HW1 7703   6.106   7.039  10.724 -0.2362 -0.2805 -0.7107
  580SOL    HW2 7704   6.165   6.965  10.843  1.7263  0.8210 -0.9532
  581SOL     OW 7705   5.382   9.971   3.688  0.2987  0.0359  0.0659
  581SOL    HW1 7706   5.362   9.878   3.697  1.3086 -0.2246 -0.2705
  581SOL    HW2 7707   5.396   9.984   3.595  0.4874  0.4557  0.1505
  582SOL     OW 7708   7.199  11.678  10.275  0.5293  0.8019  0.7061
  582SOL    HW1 7709   7.212  11.583  10.280  0.2208  0.6290 -1.0551
  582SOL    HW2 7710   7.284  11.714  10.300  0.8565  0.0311  0.7488
  583SOL     OW 7711   2.575   1.391   8.391 -0.5816  0.7830  0.2543
  583SOL    HW1 7712   2.558   1.334   8.316  2.5245 -0.0002  0.0030
  583SOL    HW2 7713   2.635   1.457   8.359 -0.1344  1.1654  1.7742
  584SOL     OW 7714   2.453   0.192  11.320 -0.3217  0.4275 -0.2057
  584SOL    HW1 7715   2.359   0.214  11.326 -0.7967 -1.2963 -0.8444
  584SOL    HW2 7716   2.465   0.160  11.231  0.9134  0.6901 -0.1490
  585SOL     OW 7717   1.054   8.338   5.631  0.3591 -0.5856 -0.0830
  585SOL    HW1 7718   1.109   8.409   5.664  0.0122 -0.2017 -0.3205
  585SOL    HW2 7719   1.095   8.258   5.665 -0.3049 -0.1885  1.7666
  586SOL     OW 7720   1.140   2.974   8.450 -0.3418  0.4490  0.5575
  586SOL    HW1 7721   1.197   3.023   8.391 -1.1217 -0.7263 -1.2658
  586SOL    HW2 7722   1.190   2.969   8.532  1.3679  1.0242 -0.3895
  587SOL     OW 7723   9.163   2.964   9.233  0.5582  0.2058 -0.5114
  587SOL    HW1 7724   9.101   2.924   9.173 -0.2300 -0.5532  0.7590
  587SOL    HW2 7725   9.168   3.056   9.205 -0.4782  0.0774 -1.1605
  588SOL     OW 7726   3.805   5.589   5.155 -0.1315  0.3100 -0.1572
  588SOL    HW1 7727   3.717   5.570   5.189  0.0587  1.1196  0.7982
  588SOL    HW2 7728   3.820   5.519   5.091 -1.3694  0.0118 -0.1607
  589SOL     OW 7729   8.157  12.455   7.427  0.4514  0.0604  0.2807
  589SOL    HW1 7730   8.176  12.499   7.344  0.8599 -1.2377 -0.3405
  589SOL    HW2 7731   8.124  12.369   7.402 -2.9475  0.8768  1.3965
  590SOL     OW 7732   5.490   7.085  11.354 -0.4107 -0.0746 -0.0812
  590SOL    HW1 7733   5.414   7.027  11.361  0.4420 -1.2492 -0.1746
  590SOL    HW2 7734   5.553   7.049  11.416  0.6783 -0.1405 -1.1848
  591SOL     OW 7735  10.795   7.818  11.524 -0.5358 -0.3630 -0.2779
  591SOL    HW1 7736  10.777   7.775  11.608  1.5882 -1.8437 -0.4806
  591SOL    HW2 7737  10.754   7.761  11.459 -0.5704 -0.2485 -0.3556
  592SOL     OW 7738   0.893   2.169   5.164  0.3487  0.5613 -0.0750
  592SOL    HW1 7739   0.917   2.252   5.122 -2.1023  0.4675 -1.8157
  592SOL    HW2 7740   0.797   2.170   5.167  0.1488 -2.7473 -1.3576
  593SOL     OW 7741   0.100   0.066   0.048 -0.2317  0.0971 -0.0581
  593SOL    HW1 7742   0.054  -0.017   0.035  0.9665 -0.8234  1.2831
  593SOL    HW2 7743   0.045   0.131   0.003 -1.5468 -1.3018 -0.5705
  594SOL     OW 7744   0.356   6.096   7.116  0.3053 -0.2426 -0.1652
  594SOL    HW1 7745   0.395   6.076   7.031 -1.1762 -2.7841 -0.3706
  594SOL    HW2 7746   0.373   6.017   7.168 -2.5811 -0.6084  0.3851
  595SOL     OW 7747   1.893   1.846   7.433  0.2354  0.2135  0.2069
  595SOL    HW1 7748   1.824   1.813   7.375  0.5378  1.5547 -0.9558
  595SOL    HW2 7749   1.859   1.928   7.467  1.8152  1.7124 -1.6120
  596SOL     OW 7750   9.176   6.926   1.388 -0.0164  0.6212  0.2013
  596SOL    HW1 7751   9.265   6.915   1.356 -0.3231 -2.2484  0.0578
  596SOL    HW2 7752   9.123   6.936   1.309 -0.0726 -0.2806  0.1089
  597SOL     OW 7753   8.052  11.109   6.921  0.0342 -0.0665 -0.3837
  597SOL    HW1 7754   8.071  11.036   6.861 -1.6972 -1.1108  0.2748
  597SOL    HW2 7755   8.095  11.084   7.003  0.8182  0.4614 -0.6247
  598SOL     OW 7756   6.005   8.577   2.290  0.7972  0.3450 -0.2824
  598SOL    HW1 7757   5.961   8.659   2.309  0.8537  0.9679 -2.5504
  598SOL    HW2 7758   6.080   8.602   2.235  1.8342 -1.0501  0.4363
  599SOL     OW 7759   8.601   7.875   2.169 -0.5219 -0.2670  0.1794
  599SOL    HW1 7760   8.540   7.892   2.241 -0.1187 -1.8701  0.9464
  599SOL    HW2 7761   8.687   7.895   2.206 -0.4360  0.4025 -0.3700
  600SOL     OW 7762   3.254   6.778   0.757 -0.1016  0.1138 -0.1137
  600SOL    HW1 7763   3.180   6.824   0.717 -0.3375 -1.2815 -1.3785
  600SOL    HW2 7764   3.218   6.694   0.784  1.1323 -0.8277 -1.2942
  601SOL     OW 7765   5.935   9.369   9.261 -0.8730  0.0621 -0.1010
  601SOL    HW1 7766   5.963   9.384   9.351  2.1704 -0.4920 -0.8485
  601SOL    HW2 7767   5.918   9.457   9.227 -1.5091  0.3109  0.8203
  602SOL     OW 7768   0.866  10.637  12.307  0.1922 -0.1479  0.0529
  602SOL    HW1 7769   0.777  10.629  12.340 -0.0760 -1.0065 -0.8528
  602SOL    HW2 7770   0.857  10.633  12.212  0.8606  2.9897 -0.2585
  603SOL     OW 7771   2.081   4.279   2.210 -0.3647  0.1586 -0.0261
  603SOL    HW1 7772   2.119   4.213   2.152 -0.9086  0.4625 -0.7482
  603SOL    HW2 7773   1.995   4.298   2.171 -0.3140  1.1121  0.3049
  604SOL     OW 7774   4.726  11.985   1.816 -0.2473  0.2030  0.2279
  604SOL    HW1 7775   4.738  12.036   1.736  1.3669  0.3495  0.5447
  604SOL    HW2 7776   4.638  11.947   1.806 -0.5724  1.1960 -1.0394
  605SOL     OW 7777   2.767   8.292   8.489 -0.2889 -0.4719 -0.0141
  605SOL    HW1 7778   2.791   8.250   8.572  0.6737 -0.4165 -0.2484
  605SOL    HW2 7779   2.778   8.223   8.424 -4.0644 -1.5079  0.1789
  606SOL     OW 7780   1.422   6.848   5.527  0.1440  0.0865 -0.6789
  606SOL    HW1 7781   1.342   6.887   5.492  1.4178  1.9847 -1.7111
  606SOL    HW2 7782   1.479   6.837   5.450  1.4067  0.1971  0.2056
  607SOL     OW 7783   2.622  10.658  10.700 -0.6176 -0.5769 -0.0434
  607SOL    HW1 7784   2.559  10.729  10.692  0.1827  0.3662  1.5298
  607SOL    HW2 7785   2.583  10.585  10.651 -1.6092  0.8151 -1.4020
  608SOL     OW 7786   0.551   1.925   6.189 -0.1745 -0.4094 -0.9621
  608SOL    HW1 7787   0.602   1.881   6.121  0.3537  0.3349 -1.0537
  608SOL    HW2 7788   0.590   1.895   6.271  0.3902  0.1154 -1.0310
  609SOL     OW 7789  10.304   1.993   4.491  0.0811  0.3457  0.4753
  609SOL    HW1 7790  10.391   2.004   4.528  0.8311 -0.4398 -0.9407
  609SOL    HW2 7791  10.317   1.930   4.419 -1.7536 -0.2269  0.6042
  610SOL     OW 7792   8.218   9.540  12.233  0.1232  0.0958 -0.1915
  610SOL    HW1 7793   8.276   9.544  12.158  1.7008  0.0449  0.9860
  610SOL    HW2 7794   8.256   9.473  12.290 -1.0546  0.1004  0.6448
  611SOL     OW 7795   2.512   5.049  10.425  0.3939 -0.1425  0.3938
  611SOL    HW1 7796   2.461   5.111  10.477 -1.8662 -2.0913  0.6649
  611SOL    HW2 7797   2.477   5.058  10.336  1.4382  0.3280  0.0165
  612SOL     OW 7798  12.212   7.602   1.096  0.5287  0.3121 -0.4943
  612SOL    HW1 7799  12.164   7.520   1.108  1.0014  0.0779 -0.2159
  612SOL    HW2 7800  12.302   7.576   1.079  0.6490  0.7681 -0.5905
  613SOL     OW 7801   3.583   5.274   3.476  0.8470  0.0875  0.3402
  613SOL    HW1 7802   3.638   5.204   3.439  3.9763  1.9049  1.1596
  613SOL    HW2 7803   3.496   5.259   3.438  1.7911 -3.1660 -0.8619
  614SOL     OW 7804   9.080   0.815   8.140  0.0781 -0.5945 -0.5171
  614SOL    HW1 7805   9.116   0.889   8.091  2.8071 -0.0315  2.0353
  614SOL    HW2 7806   8.993   0.844   8.167 -0.4420  0.0797 -2.7185
  615SOL     OW 7807   7.335   5.046   4.043 -0.3960  0.2531  0.1286
  615SOL    HW1 7808   7.424   5.016   4.061 -1.2476 -1.4695  1.7173
  615SOL    HW2 7809   7.294   5.054   4.129 -2.2871 -0.6305 -0.6426
  616SOL     OW 7810   3.108   8.049   0.093  0.0380  0.0897 -0.1109
  616SOL    HW1 7811   3.084   7.957   0.080  0.9470 -0.3696  1.3188
  616SOL    HW2 7812   3.044   8.097   0.040 -0.4388 -1.3464 -0.9116
  617SOL     OW 7813   5.784   5.910  11.767  0.6839 -0.1006 -0.6926
  617SOL    HW1 7814   5.839   5.891  11.691  0.1355 -0.0956 -1.1038
  617SOL    HW2 7815   5.839   5.892  11.843  1.3966  0.3632 -1.0949
  618SOL     OW 7816   0.778  10.336   6.660  0.4981 -0.2755  0.4863
  618SOL    HW1 7817   0.696  10.362   6.703 -0.2658 -0.1473 -0.9694
  618SOL    HW2 7818   0.814  10.418   6.627  1.0976 -0.3688  0.8949
  619SOL     OW 7819   1.402   1.920   4.396  0.0709  0.8497  0.6615
  619SOL    HW1 7820   1.432   1.860   4.465  1.3294 -0.6199 -1.0789
  619SOL    HW2 7821   1.480   1.972   4.374  0.1172  0.2436 -0.6799
  620SOL     OW 7822   1.954   9.308   7.552  0.2994 -0.4524 -0.1070
  620SOL    HW1 7823   1.966   9.254   7.630 -1.0528 -0.7571 -0.0830
  620SOL    HW2 7824   1.863   9.336   7.557  1.1351  2.5427  0.3199
  621SOL     OW 7825   7.178   3.878   7.234 -0.3887 -0.0975 -0.0413
  621SOL    HW1 7826   7.269   3.903   7.219 -0.5026  1.5777  1.7302
  621SOL    HW2 7827   7.128   3.930   7.171 -0.1965 -0.4568 -0.4995
  622SOL     OW 7828   6.091   2.781   6.540 -0.0504 -0.4983 -0.3756
  622SOL    HW1 7829   6.009   2.828   6.522 -0.3532 -0.8365  0.1030
  622SOL    HW2 7830   6.065   2.708   6.596  0.6098 -0.5175 -0.0863
  623SOL     OW 7831  12.390   4.271   9.542 -0.7714  0.3049  0.1374
  623SOL    HW1 7832  12.430   4.352   9.573 -0.8023  0.5112 -0.3515
  623SOL    HW2 7833  12.310   4.299   9.498 -1.1863 -0.0588  0.6500
  624SOL     OW 7834   8.247   3.951   1.845 -0.1418  0.2085 -0.3869
  624SOL    HW1 7835   8.176   3.916   1.790 -2.6702  0.6201  2.3921
  624SOL    HW2 7836   8.239   4.046   1.836 -0.1794  0.2612  0.1671
  625SOL     OW 7837  11.715   1.561   1.294  0.2072 -0.4693  0.1735
  625SOL    HW1 7838  11.725   1.487   1.234  0.3587 -0.1704 -0.1737
  625SOL    HW2 7839  11.627   1.550   1.331 -0.1103 -0.3456 -0.5263
  626SOL     OW 7840   2.335   6.480   3.663 -0.3478  0.1889 -0.2006
  626SOL    HW1 7841   2.313   6.537   3.737 -0.8263  0.6657 -0.7036
  626SOL    HW2 7842   2.431   6.476   3.664 -0.3457  0.2619  0.3905
  627SOL     OW 7843  11.154  12.070  10.760  0.0935 -0.5205  0.0171
  627SOL    HW1 7844  11.117  12.157  10.751  0.1106 -0.7497 -2.9496
  627SOL    HW2 7845  11.249  12.083  10.755  0.1512 -0.6175  0.7249
  628SOL     OW 7846  10.787   5.453   4.790 -0.0071  0.5613  0.5626
  628SOL    HW1 7847  10.847   5.504   4.844  1.8313 -1.3929  0.4773
  628SOL    HW2 7848  10.717   5.428   4.850  1.4002 -0.5834  1.7864
  629SOL     OW 7849   8.867   5.287   5.181  0.2335  0.0295 -0.5499
  629SOL    HW1 7850   8.954   5.258   5.157  0.8076  0.6157  0.7091
  629SOL    HW2 7851   8.867   5.382   5.164  0.2215  0.2229  0.4338
  630SOL     OW 7852   3.590   8.661   3.468  0.0545 -0.3621 -0.4447
  630SOL    HW1 7853   3.499   8.689   3.469 -0.0022 -0.0355 -3.5478
  630SOL    HW2 7854   3.586   8.566   3.479 -0.7367 -0.4092 -1.0209
  631SOL     OW 7855  11.752   4.840  11.043  0.6308 -0.2434  0.2535
  631SOL    HW1 7856  11.824   4.883  10.998  0.8566 -0.4483  0.4133
  631SOL    HW2 7857  11.703   4.912  11.084  0.0465  0.0029 -0.8457
  632SOL     OW 7858   4.757   5.210   6.316 -0.1652  0.2407 -0.4968
  632SOL    HW1 7859   4.812   5.133   6.304  1.1675  1.1384 -0.3544
  632SOL    HW2 7860   4.807   5.282   6.277 -1.5250  0.9883 -0.9400
  633SOL     OW 7861   8.395   8.742   0.439  0.1619 -0.2797 -0.3108
  633SOL    HW1 7862   8.336   8.813   0.464  2.1350  1.4728 -0.3055
  633SOL    HW2 7863   8.390   8.680   0.512  0.0560  0.9617  0.7784
  634SOL     OW 7864   9.428   6.224   2.842  0.2168 -0.5866 -0.4727
  634SOL    HW1 7865   9.391   6.269   2.919  0.6705 -2.0999  0.6816
  634SOL    HW2 7866   9.420   6.131   2.863 -0.6286 -1.0823 -2.7572
  635SOL     OW 7867  11.172   2.697  11.265  0.1955 -0.1445 -0.2992
  635SOL    HW1 7868  11.141   2.636  11.198 -2.6440  0.5224  0.2609
  635SOL    HW2 7869  11.112   2.684  11.339  0.2109  2.4687  0.2763
  636SOL     OW 7870   2.533   3.150   9.341 -0.0656 -0.0425  0.1843
  636SOL    HW1 7871   2.493   3.236   9.348  0.2716  0.0724  0.7403
  636SOL    HW2 7872   2.534   3.132   9.247 -0.0069  0.6254  0.0499
  637SOL     OW 7873   6.609   6.819   3.232  0.3062 -0.4328 -0.4960
  637SOL    HW1 7874   6.693   6.840   3.273  0.8112 -2.6908 -0.2541
  637SOL    HW2 7875   6.631   6.800   3.141 -0.1497  0.2314 -0.7510
  638SOL     OW 7876   4.654  12.194   8.778 -0.6257 -0.4241 -0.2291
  638SOL    HW1 7877   4.684  12.283   8.759 -1.9143 -0.0663 -0.7634
  638SOL    HW2 7878   4.648  12.190   8.873  0.2146 -0.2203 -0.1590
  639SOL     OW 7879   0.593   6.957   9.395 -0.0014 -0.3683 -0.0053
  639SOL    HW1 7880   0.645   6.923   9.468 -0.6052 -1.2665  0.0203
  639SOL    HW2 7881   0.655   6.969   9.324  0.0604 -2.7145 -0.4161
  640SOL     OW 7882   6.967  11.379   1.813 -0.3707  0.4693  0.1645
  640SOL    HW1 7883   6.948  11.424   1.731 -1.1722  0.2325  0.2042
  640SOL    HW2 7884   6.990  11.289   1.787  0.3413  0.6515  0.1430
  641SOL     OW 7885  10.505   7.922   9.967  0.0462  0.2087  0.8641
  641SOL    HW1 7886  10.576   7.857   9.971 -0.0775 -0.0206 -0.4177
  641SOL    HW2 7887  10.445   7.888   9.900  0.3596  2.0134 -0.3801
  642SOL     OW 7888   6.533   2.674  12.451  0.1421  0.1460 -0.4858
  642SOL    HW1 7889   6.483   2.662  12.532  1.0329 -0.2357  0.0213
  642SOL    HW2 7890   6.497   2.608  12.391  0.2447 -0.3417 -0.0226
  643SOL     OW 7891   3.447  11.125  11.556 -0.7141 -0.2928  0.1270
  643SOL    HW1 7892   3.427  11.218  11.556  1.3003  0.2172  1.8391
  643SOL    HW2 7893   3.451  11.101  11.649  0.3017 -1.7161 -0.2553
  644SOL     OW 7894   0.265   8.108   0.740 -0.1634 -0.1631 -0.5014
  644SOL    HW1 7895   0.279   8.015   0.756  0.1504 -0.1512 -0.6900
  644SOL    HW2 7896   0.280   8.118   0.646  2.3845  0.5241 -0.0812
  645SOL     OW 7897   8.141   9.588   1.561 -0.0081  0.0093 -0.4147
  645SOL    HW1 7898   8.060   9.588   1.612  0.3562  0.5764  0.1865
  645SOL    HW2 7899   8.210   9.586   1.627  0.4863 -1.9667 -0.9333
  646SOL     OW 7900   5.395   8.432   7.140  0.8829  0.4263 -0.7355
  646SOL    HW1 7901   5.431   8.345   7.156  0.4878  0.3529 -0.1915
  646SOL    HW2 7902   5.326   8.442   7.207  0.6468  0.9887 -1.0536
  647SOL     OW 7903   5.793   4.102   6.316  0.2228 -0.3774  0.4339
  647SOL    HW1 7904   5.855   4.029   6.315  0.4140 -0.2358  1.3201
  647SOL    HW2 7905   5.714   4.065   6.356  0.2809 -0.1325  0.7757
  648SOL     OW 7906   5.539   0.826  10.099  0.5129 -0.3672  0.4008
  648SOL    HW1 7907   5.507   0.817  10.010  0.2757 -0.0294  0.4495
  648SOL    HW2 7908   5.566   0.918  10.106  0.7271 -0.4447  0.6101
  649SOL     OW 7909   9.145  10.510  12.012  0.4919 -0.0033 -0.0764
  649SOL    HW1 7910   9.212  10.550  12.067  0.8710 -0.8651  0.1123
  649SOL    HW2 7911   9.137  10.421  12.046 -2.5241  0.7564  1.5513
  650SOL     OW 7912   6.862   2.896   0.012 -0.0531 -0.5015 -0.0722
  650SOL    HW1 7913   6.843   2.809   0.048  2.2322 -1.2875 -0.6061
  650SOL    HW2 7914   6.950   2.888  -0.025 -0.3924  1.6301 -1.5119
  651SOL     OW 7915   3.406   9.014   7.113  0.5417 -0.4223  0.0588
  651SOL    HW1 7916   3.360   9.036   7.194  2.9987  1.3843  1.0991
  651SOL    HW2 7917   3.416   8.919   7.116 -0.5438 -0.5259  1.2164
  652SOL     OW 7918   8.403   8.844  11.618  0.0440 -0.2885 -0.2974
  652SOL    HW1 7919   8.400   8.749  11.619  0.8349 -0.3679 -1.7385
  652SOL    HW2 7920   8.348   8.869  11.544 -1.9270  0.5247  1.3589
  653SOL     OW 7921   9.539   6.365   7.683 -0.1149  0.4870 -0.1680
  653SOL    HW1 7922   9.547   6.274   7.656 -0.0698  0.9353 -1.7730
  653SOL    HW2 7923   9.564   6.365   7.776  2.1395 -0.7752 -0.7042
  654SOL     OW 7924   0.624   7.806   4.638 -0.0746  0.4898  0.4605
  654SOL    HW1 7925   0.668   7.857   4.706  0.4424  0.2965  0.2733
  654SOL    HW2 7926   0.568   7.745   4.687  0.7413 -0.0517  0.7291
  655SOL     OW 7927   3.448   9.256  10.812  0.1029 -0.1030  0.1217
  655SOL    HW1 7928   3.507   9.202  10.761 -0.9834 -2.6580  1.4061
  655SOL    HW2 7929   3.371   9.267  10.757  1.5452  3.1859 -1.5311
  656SOL     OW 7930   2.325  10.774  11.854  0.5287 -0.4975 -0.0287
  656SOL    HW1 7931   2.350  10.856  11.895  0.0178  0.0465 -0.7852
  656SOL    HW2 7932   2.372  10.707  11.904  1.9164  0.3361 -0.1707
  657SOL     OW 7933   2.661   6.348   5.277  0.5110 -0.2652  0.1199
  657SOL    HW1 7934   2.616   6.399   5.209 -0.4462 -1.7121 -0.3889
  657SOL    HW2 7935   2.753   6.351   5.252  0.2247 -0.4278 -1.0235
  658SOL     OW 7936   7.104   3.895   1.313 -0.4586  0.8387  0.6512
  658SOL    HW1 7937   7.105   3.799   1.315  0.3183  0.8132 -0.3229
  658SOL    HW2 7938   7.028   3.917   1.259 -1.3146  0.8094  1.8163
  659SOL     OW 7939   3.188   4.448   3.784 -0.0246 -0.0949 -0.1515
  659SOL    HW1 7940   3.120   4.389   3.750  1.3441 -1.3074 -0.9125
  659SOL    HW2 7941   3.213   4.411   3.868  0.2189 -0.0919 -0.2213
  660SOL     OW 7942   2.666   5.561   1.732 -0.0995  0.2514 -0.1735
  660SOL    HW1 7943   2.582   5.545   1.776 -1.0644 -0.0053 -1.9967
  660SOL    HW2 7944   2.647   5.547   1.639  1.6512  1.4920 -0.7681
  661SOL     OW 7945   1.831   2.378  12.474  0.0504 -0.0595 -0.0191
  661SOL    HW1 7946   1.895   2.307  12.465 -1.7590 -1.8769  0.6529
  661SOL    HW2 7947   1.783   2.356  12.554 -1.8021  0.8897 -0.8221
  662SOL     OW 7948   9.460   6.768   4.040 -0.1262  0.1952 -0.2226
  662SOL    HW1 7949   9.473   6.819   3.960 -1.6984  0.4149 -0.3648
  662SOL    HW2 7950   9.409   6.692   4.012 -0.9755  0.4383  0.6219
  663SOL     OW 7951   2.144   3.142   2.267  0.2059 -0.5630  0.5341
  663SOL    HW1 7952   2.109   3.227   2.294  0.2402 -0.5351  0.4914
  663SOL    HW2 7953   2.239   3.156   2.260  0.0898 -0.2604 -0.7092
  664SOL     OW 7954   3.379   6.042   3.754 -0.3494  0.0243  0.1175
  664SOL    HW1 7955   3.340   6.076   3.674  0.9222  0.6445 -0.2694
  664SOL    HW2 7956   3.311   6.051   3.821 -1.7389 -1.3005 -1.0459
  665SOL     OW 7957   6.745   6.306   6.603  0.5939  0.2653 -0.9615
  665SOL    HW1 7958   6.718   6.263   6.684  1.1948  0.5187 -0.6256
  665SOL    HW2 7959   6.835   6.277   6.589  1.2229  1.8658 -0.4101
  666SOL     OW 7960  12.229   2.384   3.218 -0.3763  0.6073  0.3930
  666SOL    HW1 7961  12.166   2.312   3.219  0.0227  0.2597  0.4956
  666SOL    HW2 7962  12.183   2.456   3.261 -0.7102  0.3631  0.4538
  667SOL     OW 7963   9.485   1.156   6.384  0.1764 -0.3946 -0.2598
  667SOL    HW1 7964   9.425   1.229   6.372  1.2384  0.3947 -0.9184
  667SOL    HW2 7965   9.526   1.172   6.469 -0.3355 -0.8042  0.0770
  668SOL     OW 7966   0.178   4.650   3.153  0.2808 -0.4152  0.0702
  668SOL    HW1 7967   0.203   4.737   3.122 -0.8103 -1.2328 -3.5901
  668SOL    HW2 7968   0.093   4.663   3.194  0.4046  0.3304  0.1104
  669SOL     OW 7969   8.261   4.077  11.452 -0.6226 -0.2346  0.9189
  669SOL    HW1 7970   8.167   4.083  11.471 -0.2994 -1.9975  3.6755
  669SOL    HW2 7971   8.302   4.133  11.518  0.2816  0.9439 -0.6045
  670SOL     OW 7972   7.365   1.521   7.434  0.4966 -0.3352  0.2190
  670SOL    HW1 7973   7.287   1.549   7.386  0.8422 -1.8329 -1.3435
  670SOL    HW2 7974   7.423   1.596   7.431  0.4643 -0.3139 -1.7268
  671SOL     OW 7975   9.159   8.067   6.320 -0.2047  0.5441 -0.3291
  671SOL    HW1 7976   9.232   8.126   6.299  0.2282  0.6482  1.3499
  671SOL    HW2 7977   9.200   7.981   6.328 -0.6864  0.1534 -1.8123
  672SOL     OW 7978   1.375  12.474   7.847  0.6187  0.0715 -0.0980
  672SOL    HW1 7979   1.427  12.480   7.766 -1.0757 -0.7169 -1.3005
  672SOL    HW2 7980   1.285  12.491   7.819 -0.4133 -2.7981  1.0863
  673SOL     OW 7981   3.778  10.317   9.786  0.0144 -0.0135  0.1414
  673SOL    HW1 7982   3.762  10.269   9.867 -0.3395 -1.1739 -0.5807
  673SOL    HW2 7983   3.873  10.319   9.778  0.0343 -1.6968 -0.4091
  674SOL     OW 7984   2.034   8.440   0.243  0.0349 -0.2853 -0.3662
  674SOL    HW1 7985   2.085   8.445   0.324 -0.3167  1.5349 -0.2294
  674SOL    HW2 7986   2.093   8.396   0.181  0.4866 -1.2618  0.7010
  675SOL     OW 7987   4.570  11.869   4.524  0.2520 -0.3910  0.2458
  675SOL    HW1 7988   4.525  11.789   4.550  1.0601 -0.3806  1.7459
  675SOL    HW2 7989   4.631  11.888   4.595  1.6789  0.3425 -1.0947
  676SOL     OW 7990   7.059   5.008   9.261  0.3927  0.2732  0.3263
  676SOL    HW1 7991   7.131   5.000   9.199  0.0591  1.0937 -0.1879
  676SOL    HW2 7992   7.041   5.102   9.265 -0.1282  0.1521  1.0463
  677SOL     OW 7993   1.082   4.727   8.045 -0.0145  0.1121 -0.4005
  677SOL    HW1 7994   1.105   4.702   8.135 -1.8017  1.5903  0.5615
  677SOL    HW2 7995   1.021   4.800   8.057  0.2313  0.7817 -2.8622
  678SOL     OW 7996   6.878   5.498   5.286 -0.0972 -0.0111  0.2730
  678SOL    HW1 7997   6.859   5.569   5.347 -0.6688 -0.1887  0.3017
  678SOL    HW2 7998   6.923   5.541   5.213 -0.0004  0.3034  0.5158
  679SOL     OW 7999  12.318   6.244   5.638  0.6496  0.2682  0.4771
  679SOL    HW1 8000  12.393   6.190   5.611  1.1051  0.5761  1.1104
  679SOL    HW2 8001  12.244   6.209   5.588  1.0701 -0.5254  0.3934
  680SOL     OW 8002  10.418   7.535   8.664 -0.0619 -0.1759 -0.0206
  680SOL    HW1 8003  10.416   7.510   8.572 -0.3387 -0.1046 -0.0351
  680SOL    HW2 8004  10.511   7.549   8.683 -0.0796  0.6593 -0.5160
  681SOL     OW 8005   5.606   2.966  11.407  0.1682  0.1772 -0.4416
  681SOL    HW1 8006   5.561   2.902  11.353 -0.5683 -1.2881  1.7866
  681SOL    HW2 8007   5.679   2.918  11.448 -1.2801  0.2086  2.4409
  682SOL     OW 8008   1.994   1.294   1.320 -0.0650 -0.1546  0.2438
  682SOL    HW1 8009   2.002   1.236   1.397  0.7813  0.8954  0.9720
  682SOL    HW2 8010   1.923   1.255   1.269  0.8400 -2.1642  0.4125
  683SOL     OW 8011   8.324   8.999   6.675 -0.6726 -0.5818 -0.1843
  683SOL    HW1 8012   8.420   8.997   6.671 -0.5659 -0.2302  1.5304
  683SOL    HW2 8013   8.299   9.059   6.604  0.3312 -1.0429 -0.9529
  684SOL     OW 8014   6.188   2.998  12.411 -0.3445  0.4282 -0.7165
  684SOL    HW1 8015   6.270   3.031  12.448 -0.6416 -0.3923  0.7505
  684SOL    HW2 8016   6.130   2.989  12.487 -2.2165  2.1436 -1.8572
  685SOL     OW 8017   3.561   3.162   6.904 -0.0246  0.1000 -0.0114
  685SOL    HW1 8018   3.555   3.074   6.943  1.7250  0.4258  1.0935
  685SOL    HW2 8019   3.610   3.149   6.823  0.0058  0.0293  0.0182
  686SOL     OW 8020   0.801   6.974   4.919 -0.4070 -0.0122 -0.1078
  686SOL    HW1 8021   0.811   6.900   4.859 -1.8141  0.2459 -0.7038
  686SOL    HW2 8022   0.794   7.050   4.861  1.7712  0.7250  0.5128
  687SOL     OW 8023   7.537   1.450   8.547  0.1387  0.2752  0.7077
  687SOL    HW1 8024   7.528   1.543   8.563 -0.8925 -0.0650  2.2975
  687SOL    HW2 8025   7.469   1.429   8.483 -0.8096  0.3113  1.6902
  688SOL     OW 8026   4.956   7.890   5.686 -0.4151  0.0276  0.3290
  688SOL    HW1 8027   4.945   7.897   5.781  0.9654 -0.3047  0.5387
  688SOL    HW2 8028   5.025   7.825   5.675  0.2984  0.9535 -0.8565
  689SOL     OW 8029   5.174  11.636   8.043  0.4000 -0.1366  0.5714
  689SOL    HW1 8030   5.143  11.684   7.967  0.7133 -0.4454  0.2460
  689SOL    HW2 8031   5.200  11.551   8.009 -3.2108 -1.8421  1.5775
  690SOL     OW 8032   5.019   5.058   3.450 -0.4384  0.3109  0.6035
  690SOL    HW1 8033   5.096   5.076   3.503  0.4831 -2.2811  0.2919
  690SOL    HW2 8034   5.051   5.061   3.360 -1.5735  2.8089  0.2170
  691SOL     OW 8035   1.909   0.532   6.447 -0.0031  0.1355  0.0189
  691SOL    HW1 8036   1.969   0.459   6.463  2.0672  1.5516 -0.8877
  691SOL    HW2 8037   1.926   0.593   6.520  1.5246  1.6261 -1.4687
  692SOL     OW 8038   9.485   6.747   9.510  0.1422 -0.1056  0.1875
  692SOL    HW1 8039   9.526   6.669   9.546 -0.6827 -0.7245 -0.1990
  692SOL    HW2 8040   9.552   6.815   9.518  0.7873 -0.7953  0.7213
  693SOL     OW 8041  12.075   4.544   3.317  0.4222  0.0122  0.3515
  693SOL    HW1 8042  12.089   4.580   3.405  1.4036  0.7960 -0.1006
  693SOL    HW2 8043  12.048   4.453   3.332 -3.0396  1.0855  1.5786
  694SOL     OW 8044   8.961   0.658   5.802 -0.3074  0.1884 -0.8783
  694SOL    HW1 8045   8.964   0.569   5.766 -0.9799  0.3850 -1.4518
  694SOL    HW2 8046   8.875   0.664   5.842  1.0105 -0.5829  2.3222
  695SOL     OW 8047   6.680   9.198   1.900  0.4515 -0.4363  0.4083
  695SOL    HW1 8048   6.737   9.151   1.838  0.4272  0.4605 -0.3189
  695SOL    HW2 8049   6.738   9.263   1.941 -0.0015  0.3836 -0.2257
  696SOL     OW 8050   9.037  12.173  10.886 -0.0337 -0.5587 -0.7770
  696SOL    HW1 8051   9.086  12.101  10.846  0.0093 -0.3401 -1.1191
  696SOL    HW2 8052   9.104  12.239  10.906  0.2611 -1.4416  1.4637
  697SOL     OW 8053   3.355   4.412  12.073 -0.9336 -0.3579  0.4623
  697SOL    HW1 8054   3.383   4.457  12.152  1.5556 -1.3118  0.2177
  697SOL    HW2 8055   3.369   4.320  12.091 -1.4360 -0.6824 -0.7041
  698SOL     OW 8056   4.301   9.891   1.127 -0.6535  0.3234 -0.7693
  698SOL    HW1 8057   4.321   9.947   1.051  0.7513 -0.8342 -1.2943
  698SOL    HW2 8058   4.262   9.813   1.089  2.8414 -1.6362 -0.7329
  699SOL     OW 8059   7.261   2.098   7.868  0.1255 -0.3480  0.4859
  699SOL    HW1 8060   7.322   2.117   7.796  0.7021  2.4535  1.5628
  699SOL    HW2 8061   7.268   2.004   7.882  0.1761 -0.9731 -2.9124
  700SOL     OW 8062   3.255   0.550   0.316  0.5476  0.2744 -0.2686
  700SOL    HW1 8063   3.242   0.637   0.278 -0.3410 -0.5809 -2.0191
  700SOL    HW2 8064   3.349   0.545   0.333  0.7638  1.1975 -1.1103
  701SOL     OW 8065   7.903   9.570   3.748 -0.0740  0.4670  0.0767
  701SOL    HW1 8066   7.946   9.492   3.712 -1.1388 -0.8195  1.4263
  701SOL    HW2 8067   7.971   9.612   3.800  0.4555  0.3080 -0.4733
  702SOL     OW 8068  10.790   0.548   8.774 -0.1001  0.7027 -0.1761
  702SOL    HW1 8069  10.772   0.460   8.740  1.3472 -0.5763  2.0738
  702SOL    HW2 8070  10.836   0.532   8.857  0.2698  3.6076  0.2688
  703SOL     OW 8071   7.719   3.682  12.351  0.0138  0.6978 -0.6891
  703SOL    HW1 8072   7.728   3.587  12.361 -1.2140  0.6311 -0.1126
  703SOL    HW2 8073   7.668   3.693  12.271 -0.8888  0.8248 -0.1027
  704SOL     OW 8074  11.796   9.911  11.557  0.3785 -0.1419  0.0621
  704SOL    HW1 8075  11.810   9.819  11.579 -1.6236 -0.9214 -1.5507
  704SOL    HW2 8076  11.880   9.941  11.524  1.0621 -1.3929  0.5871
  705SOL     OW 8077   4.262   8.729   2.875 -0.3541 -0.0621  0.4443
  705SOL    HW1 8078   4.218   8.759   2.955  0.3469 -1.1283  1.2523
  705SOL    HW2 8079   4.193   8.682   2.827 -0.9458  1.1332  0.0971
  706SOL     OW 8080  11.907   3.354   4.383  0.2902  0.7092  0.1917
  706SOL    HW1 8081  11.929   3.439   4.420 -0.1194  0.4626  1.0069
  706SOL    HW2 8082  11.812   3.355   4.374  0.4678  1.4136 -2.4594
  707SOL     OW 8083   4.383   7.034   8.947 -0.1204 -0.0402 -0.0847
  707SOL    HW1 8084   4.387   6.987   8.864 -1.2258  0.8815 -0.6853
  707SOL    HW2 8085   4.429   7.116   8.930  0.5389 -0.2722  0.5281
  708SOL     OW 8086   3.142   0.090   8.478  0.1948  0.1762 -0.2330
  708SOL    HW1 8087   3.181   0.164   8.526 -0.6386 -0.3320  1.2993
  708SOL    HW2 8088   3.048   0.098   8.495  0.2417 -2.5768  2.0712
  709SOL     OW 8089   6.656   2.792   9.883 -0.3916  0.0272 -0.1475
  709SOL    HW1 8090   6.688   2.880   9.864  0.6520 -0.0438  1.0878
  709SOL    HW2 8091   6.671   2.781   9.977 -3.0987 -0.4596  0.2945
  710SOL     OW 8092   1.831   1.388   6.802  0.2614 -0.2305 -0.1112
  710SOL    HW1 8093   1.768   1.317   6.819 -1.0884  0.7862 -0.7187
  710SOL    HW2 8094   1.823   1.445   6.878  1.2197 -0.6114  0.2918
  711SOL     OW 8095   0.115   6.283   7.191 -0.6912  0.1257 -0.1633
  711SOL    HW1 8096   0.197   6.256   7.150  0.0894  0.3562  1.1811
  711SOL    HW2 8097   0.134   6.286   7.285 -2.8418 -1.9744  0.4427
  712SOL     OW 8098   3.762  10.597   0.016 -0.7763 -0.4134 -0.0040
  712SOL    HW1 8099   3.697  10.588  -0.054 -0.4614  1.8174 -0.6800
  712SOL    HW2 8100   3.735  10.676   0.064  2.7945  2.3058 -1.9872
  713SOL     OW 8101   8.793   5.125  10.945  0.3475 -0.4134  0.3940
  713SOL    HW1 8102   8.866   5.150  10.888 -1.1128  0.4065 -1.2225
  713SOL    HW2 8103   8.814   5.163  11.030  0.5097  2.2440 -0.7572
  714SOL     OW 8104   3.360   9.287  11.547 -0.5773 -0.0332  0.0795
  714SOL    HW1 8105   3.447   9.261  11.579  0.6239  1.9676 -1.3666
  714SOL    HW2 8106   3.299   9.236  11.600  1.4785 -3.4073 -0.5373
  715SOL     OW 8107  12.250   9.970  11.543  0.1332 -0.1902 -0.3048
  715SOL    HW1 8108  12.265   9.876  11.543 -1.1497 -0.4138 -0.8574
  715SOL    HW2 8109  12.274   9.998  11.632  1.2685 -0.8910 -0.3703
  716SOL     OW 8110   9.716  11.523   0.138  0.3520 -0.5401 -0.1915
  716SOL    HW1 8111   9.640  11.482   0.096 -0.2707 -0.1131  0.4972
  716SOL    HW2 8112   9.747  11.458   0.201 -0.4919 -0.0528  0.7350
  717SOL     OW 8113   3.984   1.902   5.627 -0.0300 -0.0640 -0.3353
  717SOL    HW1 8114   4.030   1.824   5.595  0.5173  0.3030 -0.4444
  717SOL    HW2 8115   4.006   1.971   5.565 -2.0519 -0.2496 -1.3626
  718SOL     OW 8116   5.005   6.275   5.036 -0.1743 -0.2018 -0.0203
  718SOL    HW1 8117   5.066   6.341   5.068  1.8206 -1.6520 -0.6191
  718SOL    HW2 8118   4.979   6.226   5.114 -0.0524  0.0026  0.1487
  719SOL     OW 8119   4.098   7.595   9.116 -0.7203  0.3127 -0.6650
  719SOL    HW1 8120   4.034   7.666   9.107 -0.2829  0.9937  1.0937
  719SOL    HW2 8121   4.161   7.629   9.180  1.8295 -0.0398 -2.8288
  720SOL     OW 8122   0.247   0.598   0.409 -0.5929  0.4368  0.1477
  720SOL    HW1 8123   0.279   0.680   0.371  0.3563  0.6766  1.3651
  720SOL    HW2 8124   0.222   0.622   0.499 -0.3120 -0.5941  0.5142
  721SOL     OW 8125   4.478   6.524  12.220 -0.2826  0.2158 -0.3280
  721SOL    HW1 8126   4.461   6.554  12.309 -0.6201 -1.2503  0.1410
  721SOL    HW2 8127   4.399   6.475  12.196  1.1736 -2.4751 -0.0222
  722SOL     OW 8128   7.807   7.104  10.420 -0.2586 -0.2455 -0.3025
  722SOL    HW1 8129   7.875   7.111  10.487 -0.5370  0.3103 -0.0722
  722SOL    HW2 8130   7.801   7.010  10.402  1.0866 -0.2470 -0.8654
  723SOL     OW 8131   7.403   4.972  10.713  0.1430 -0.0197  0.1362
  723SOL    HW1 8132   7.464   5.007  10.777  0.5548 -0.5024  0.0131
  723SOL    HW2 8133   7.405   5.035  10.640  0.0225  0.2848  0.3946
  724SOL     OW 8134   2.536  12.186   1.426 -0.2280 -0.4270  0.0057
  724SOL    HW1 8135   2.618  12.191   1.378  0.1231  1.4860  0.6982
  724SOL    HW2 8136   2.561  12.200   1.518 -0.9360 -3.4797  0.7662
  725SOL     OW 8137   2.980  11.564   3.327  0.3618 -0.2488 -0.1239
  725SOL    HW1 8138   2.931  11.523   3.398 -1.4311  1.9327  0.0141
  725SOL    HW2 8139   3.043  11.622   3.371 -0.5393  0.8710 -0.2742
  726SOL     OW 8140   2.241   9.520   4.120 -0.4674  0.0323 -0.3956
  726SOL    HW1 8141   2.308   9.549   4.058  0.7760 -1.3904  0.2254
  726SOL    HW2 8142   2.229   9.594   4.179 -0.4852  0.8153 -1.3660
  727SOL     OW 8143  11.578   6.271   5.408 -0.0924 -0.5425  0.3120
  727SOL    HW1 8144  11.643   6.338   5.428  0.5049 -1.1773  0.5462
  727SOL    HW2 8145  11.630   6.193   5.388 -0.7869 -1.0780  0.5646
  728SOL     OW 8146   7.734  12.430   9.566 -0.1732 -0.1181  0.1384
  728SOL    HW1 8147   7.816  12.388   9.591 -0.6087 -0.9740  0.1358
  728SOL    HW2 8148   7.665  12.375   9.603 -0.7732  0.0860 -0.6374
  729SOL     OW 8149   0.977   6.150   4.158 -0.4824 -0.0863 -0.5477
  729SOL    HW1 8150   0.922   6.082   4.198  1.8435 -0.2992  2.7360
  729SOL    HW2 8151   1.063   6.108   4.148  0.8560  2.0888  0.9923
  730SOL     OW 8152  12.138   6.038   6.460 -0.4077  0.4954  0.8351
  730SOL    HW1 8153  12.221   6.068   6.423 -2.0911  0.5049 -3.4309
  730SOL    HW2 8154  12.155   5.948   6.487  1.3171  0.9545  1.4098
  731SOL     OW 8155   0.879  10.264  10.112  0.3619 -0.0632  0.0382
  731SOL    HW1 8156   0.830  10.339  10.077  0.3821 -1.1171 -2.4381
  731SOL    HW2 8157   0.920  10.224  10.036  1.9291 -1.5121  1.5469
  732SOL     OW 8158  11.606  12.041   0.924  0.4894  0.3554 -0.8675
  732SOL    HW1 8159  11.683  12.074   0.879  0.2261  0.3642 -1.3210
  732SOL    HW2 8160  11.630  11.953   0.953  1.1200  0.8524  0.1677
  733SOL     OW 8161  10.223  11.359   3.442 -0.1776  0.6675  0.1881
  733SOL    HW1 8162  10.236  11.384   3.351 -1.1000  0.9500  0.1292
  733SOL    HW2 8163  10.305  11.316   3.467  0.0984  0.6328 -0.7542
  734SOL     OW 8164   6.678   2.073   5.529  0.4800 -0.0739  0.1489
  734SOL    HW1 8165   6.683   2.168   5.532  1.8127 -0.0461 -1.3869
  734SOL    HW2 8166   6.597   2.051   5.576 -0.5494  1.8837 -0.5949
  735SOL     OW 8167   5.299  11.742   8.315  0.0416 -0.1945 -0.6546
  735SOL    HW1 8168   5.248  11.711   8.240 -1.2882  0.2834  0.0257
  735SOL    HW2 8169   5.238  11.740   8.388  0.9710  0.5204  0.1679
  736SOL     OW 8170  11.231   6.694   5.493 -0.3268  0.2776  0.3517
  736SOL    HW1 8171  11.212   6.786   5.477  3.3531  1.0165 -0.7791
  736SOL    HW2 8172  11.206   6.650   5.411  1.2915  0.9602 -0.5558
  737SOL     OW 8173   5.049   7.246   0.849  0.2183  0.2876 -0.4308
  737SOL    HW1 8174   5.088   7.167   0.885 -0.8127 -0.9378 -1.8945
  737SOL    HW2 8175   5.108   7.272   0.778  0.2642  0.5248 -0.3090
  738SOL     OW 8176  10.025   7.070   7.051 -0.2464 -0.6080 -0.1453
  738SOL    HW1 8177  10.095   7.081   7.115 -0.1889 -2.6980  0.2101
  738SOL    HW2 8178   9.955   7.026   7.099 -0.6957 -1.0969 -1.2013
  739SOL     OW 8179   4.863   1.420   2.193  0.3593  0.7373 -0.0995
  739SOL    HW1 8180   4.889   1.336   2.231 -0.3911 -1.1456 -3.3581
  739SOL    HW2 8181   4.887   1.485   2.260  1.4516 -1.9625  2.3637
  740SOL     OW 8182   4.389   0.299   4.998  0.0838 -0.1465 -0.8758
  740SOL    HW1 8183   4.430   0.231   4.945  2.0384 -0.2346  0.5922
  740SOL    HW2 8184   4.455   0.369   5.001  0.1074 -0.1932  1.4474
  741SOL     OW 8185   4.332  10.174  10.226 -0.2728  0.3041 -0.3712
  741SOL    HW1 8186   4.376  10.091  10.208  0.4072  0.9897 -2.0921
  741SOL    HW2 8187   4.241  10.149  10.244 -0.0556 -0.8300 -0.7533
  742SOL     OW 8188   9.798  10.581   6.632 -0.0754  0.2113  0.1130
  742SOL    HW1 8189   9.769  10.572   6.723  0.2098 -0.8402  0.1152
  742SOL    HW2 8190   9.770  10.669   6.607  0.2464  0.6948  1.3553
  743SOL     OW 8191   9.690   6.800  12.053 -0.1453 -0.0921  0.3261
  743SOL    HW1 8192   9.759   6.864  12.037 -0.5798 -0.1665 -2.0881
  743SOL    HW2 8193   9.675   6.758  11.969 -0.8348 -2.4474  1.5157
  744SOL     OW 8194   0.170   4.724   1.103 -0.6828 -0.2275 -0.5586
  744SOL    HW1 8195   0.130   4.736   1.017  1.1897  3.1001 -1.1523
  744SOL    HW2 8196   0.264   4.737   1.088 -0.4246  1.8802  2.1076
  745SOL     OW 8197   3.113   5.311   6.175  0.4163  0.0889  1.2110
  745SOL    HW1 8198   3.024   5.282   6.193  1.2720 -3.7601  0.3074
  745SOL    HW2 8199   3.148   5.337   6.260 -1.6107  2.1978  1.4983
  746SOL     OW 8200   0.728   3.580   8.770  0.1500  0.0436 -0.2168
  746SOL    HW1 8201   0.781   3.634   8.712  0.3670  0.1151  0.0488
  746SOL    HW2 8202   0.742   3.490   8.738  1.8222 -0.1466  0.9287
  747SOL     OW 8203  11.983   3.492  11.035  0.2607 -0.8424 -0.7242
  747SOL    HW1 8204  11.968   3.409  10.990  1.2768  0.1048 -3.0058
  747SOL    HW2 8205  11.949   3.558  10.975 -1.0066  0.4245  1.2668
  748SOL     OW 8206   0.680  12.425   7.397 -0.7315 -0.6338  0.2070
  748SOL    HW1 8207   0.606  12.378   7.436 -0.6886 -0.4220  0.5425
  748SOL    HW2 8208   0.707  12.488   7.464 -1.8620  1.0776 -0.8675
  749SOL     OW 8209   4.689   8.507   5.326  0.3015 -0.0694  0.1968
  749SOL    HW1 8210   4.700   8.519   5.420  1.3227  1.8213 -0.1215
  749SOL    HW2 8211   4.777   8.484   5.295  0.6588  2.1752 -0.6366
  750SOL     OW 8212   0.884   5.891   7.210  0.9940  0.1394  0.3274
  750SOL    HW1 8213   0.854   5.808   7.248 -1.3971  0.7650 -0.0485
  750SOL    HW2 8214   0.951   5.865   7.147  1.1111 -1.3986  1.0320
  751SOL     OW 8215   9.594  10.274   6.167  0.1999  0.1418 -0.1270
  751SOL    HW1 8216   9.614  10.244   6.078  0.7056  1.4491 -0.4652
  751SOL    HW2 8217   9.677  10.268   6.214  0.3600  1.2216 -0.2636
  752SOL     OW 8218  11.153   2.212   2.921  0.6074  0.4404  0.3934
  752SOL    HW1 8219  11.147   2.123   2.956 -1.3568  0.9998  1.6448
  752SOL    HW2 8220  11.185   2.264   2.995 -2.1738  1.3938  1.0413
  753SOL     OW 8221   7.497   8.374  11.436 -0.2522 -0.1465 -0.2376
  753SOL    HW1 8222   7.559   8.383  11.363  1.6094 -0.4147  1.2225
  753SOL    HW2 8223   7.485   8.463  11.468  2.9054 -0.3718  2.1295
  754SOL     OW 8224   0.855   1.029   9.833  0.3161  0.1463 -0.1597
  754SOL    HW1 8225   0.850   1.120   9.862 -0.3764  0.6858 -1.8219
  754SOL    HW2 8226   0.910   0.986   9.897  0.4580  1.6893  0.7998
  755SOL     OW 8227   8.932   0.367  11.426 -0.0740  0.5214  0.8856
  755SOL    HW1 8228   8.839   0.378  11.405  0.2009 -0.9371 -1.4662
  755SOL    HW2 8229   8.975   0.440  11.383  0.0660 -0.0782 -0.0172
  756SOL     OW 8230   0.205   2.101   0.925 -0.2929 -0.0817  0.3084
  756SOL    HW1 8231   0.191   2.088   1.019  0.0719  0.0125  0.3795
  756SOL    HW2 8232   0.130   2.058   0.884 -1.5268  1.6044  0.7025
  757SOL     OW 8233   4.213   6.968   8.667 -0.5062 -0.0001 -0.1899
  757SOL    HW1 8234   4.301   6.936   8.686 -0.6965  0.9642  2.7787
  757SOL    HW2 8235   4.225   7.030   8.596  1.7027  2.0020  1.7415
  758SOL     OW 8236   4.057   7.156  11.308 -0.0000 -0.1375  0.4064
  758SOL    HW1 8237   4.017   7.181  11.224  2.4702  0.7355 -0.5953
  758SOL    HW2 8238   4.027   7.223  11.369 -0.5114  0.1799 -0.1728
  759SOL     OW 8239  10.139  10.638   9.093 -0.3155  0.8225  0.3045
  759SOL    HW1 8240  10.169  10.697   9.163  1.8524 -0.6276  0.6995
  759SOL    HW2 8241  10.111  10.559   9.139 -1.1977  0.7397 -0.3520
  760SOL     OW 8242  11.833   9.645  11.631 -0.1449  1.2341  0.4152
  760SOL    HW1 8243  11.900   9.584  11.662  0.1703  1.7431  0.7369
  760SOL    HW2 8244  11.786   9.671  11.710 -1.8001 -0.3565  0.0271
  761SOL     OW 8245   0.857   0.476   9.611 -0.1511  0.2221  0.4441
  761SOL    HW1 8246   0.938   0.436   9.580 -0.1426  1.3737 -1.1613
  761SOL    HW2 8247   0.885   0.530   9.685  0.8670  1.7513 -0.9744
  762SOL     OW 8248   4.031   5.507   7.753  0.1787  0.3612  0.3491
  762SOL    HW1 8249   4.015   5.442   7.685 -0.1190 -1.7192  2.2956
  762SOL    HW2 8250   3.944   5.526   7.789  0.5792 -1.0585  2.2499
  763SOL     OW 8251   2.848   3.591  10.442  0.4276 -0.3777  0.1915
  763SOL    HW1 8252   2.864   3.617  10.352  2.2035 -0.4170  0.4626
  763SOL    HW2 8253   2.895   3.656  10.495 -0.1468 -0.6485  1.0639
  764SOL     OW 8254   7.513   1.978  11.185  0.1230  1.1147  0.4383
  764SOL    HW1 8255   7.428   1.986  11.143 -0.0853 -0.5007  0.4778
  764SOL    HW2 8256   7.503   2.022  11.269 -0.4097  1.6476  0.1032
  765SOL     OW 8257   3.005   1.881   7.858  0.3933 -0.6181 -0.8329
  765SOL    HW1 8258   2.963   1.862   7.941  0.6373 -0.5693 -0.6972
  765SOL    HW2 8259   3.044   1.798   7.830  0.8174 -0.4974 -0.6072
  766SOL     OW 8260   9.989   9.320   2.452  0.0778 -0.7350 -0.0577
  766SOL    HW1 8261   9.990   9.358   2.540 -1.0809  0.3580 -0.4926
  766SOL    HW2 8262  10.067   9.356   2.410 -0.1955 -0.0266  0.0301
  767SOL     OW 8263   5.710   1.651   2.772 -0.2477 -0.8676 -1.1122
  767SOL    HW1 8264   5.660   1.670   2.851  1.2708 -1.9736  0.1718
  767SOL    HW2 8265   5.676   1.567   2.741  1.3577 -2.0932  0.2967
  768SOL     OW 8266   1.751   7.071   2.508 -0.4587  0.0734  0.2216
  768SOL    HW1 8267   1.706   7.025   2.579  0.1617  0.5304  0.9222
  768SOL    HW2 8268   1.697   7.148   2.491  0.4647  1.0963  1.6669
  769SOL     OW 8269   1.742   5.862   2.938 -0.1702 -0.1906  0.3023
  769SOL    HW1 8270   1.667   5.805   2.956 -0.0125 -0.5015 -0.0224
  769SOL    HW2 8271   1.719   5.945   2.980 -1.0204 -0.0479 -0.4156
  770SOL     OW 8272  12.062   5.886   0.002  0.5126 -0.2199  0.5545
  770SOL    HW1 8273  11.993   5.903   0.066  0.7485 -0.5943  0.9062
  770SOL    HW2 8274  12.116   5.818   0.041  0.9952 -0.0386  0.2126
  771SOL     OW 8275   5.155  12.181   3.580 -0.3258 -0.2576  0.9536
  771SOL    HW1 8276   5.226  12.241   3.558  0.5416 -1.4938  0.2981
  771SOL    HW2 8277   5.134  12.203   3.671  0.8964  0.1227  1.1691
  772SOL     OW 8278   8.425   3.295   2.994  0.0856  0.0207  0.1137
  772SOL    HW1 8279   8.450   3.244   2.917  0.0817 -1.2107  0.8954
  772SOL    HW2 8280   8.349   3.347   2.965  1.8064  1.7891 -1.5019
  773SOL     OW 8281   4.094   3.864   7.295  0.0622  0.2317 -0.1432
  773SOL    HW1 8282   4.005   3.837   7.272 -0.2537  0.8674  0.3185
  773SOL    HW2 8283   4.092   3.878   7.389  0.8445 -0.4413 -0.0112
  774SOL     OW 8284   0.953  12.246   2.979  0.0951 -0.4929  0.8875
  774SOL    HW1 8285   0.925  12.266   2.889  1.6414  1.0990  0.6901
  774SOL    HW2 8286   0.882  12.278   3.034  0.7368  2.1008  0.3444
  775SOL     OW 8287   6.171   3.477   8.179 -0.6267 -0.3290 -0.0743
  775SOL    HW1 8288   6.262   3.448   8.180  0.1479  1.8659 -0.4046
  775SOL    HW2 8289   6.141   3.464   8.269  0.1922 -0.5698  0.1749
  776SOL     OW 8290   9.244   3.787  11.792 -0.6592 -0.0379 -0.5633
  776SOL    HW1 8291   9.223   3.839  11.869 -1.2042 -0.9590 -0.0659
  776SOL    HW2 8292   9.246   3.697  11.824 -0.2345 -0.3738 -1.4960
  777SOL     OW 8293   5.034   3.252   0.106 -0.6626 -0.4905  0.4072
  777SOL    HW1 8294   5.069   3.204   0.031 -3.0085 -3.7141  1.1688
  777SOL    HW2 8295   4.975   3.317   0.068 -0.5903 -0.9826 -0.5677
  778SOL     OW 8296   2.504   3.376   5.970 -0.2126  0.3193  0.0878
  778SOL    HW1 8297   2.449   3.332   5.906 -0.8680  0.8217  0.2976
  778SOL    HW2 8298   2.443   3.424   6.027  0.3822  0.2633  0.8008
  779SOL     OW 8299   0.499  10.044   6.564  0.1420 -0.7410  0.1007
  779SOL    HW1 8300   0.409  10.013   6.557 -0.1641  0.1513 -0.0351
  779SOL    HW2 8301   0.523  10.027   6.655 -0.4692 -0.2097  0.3743
  780SOL     OW 8302  11.840  12.359   0.171  0.4303  0.4129 -0.6138
  780SOL    HW1 8303  11.903  12.341   0.242  2.7196  0.1409 -2.5923
  780SOL    HW2 8304  11.892  12.354   0.091 -2.0310  0.8508 -2.3491
  781SOL     OW 8305   6.217   4.135   4.553  0.1318  0.0088 -0.0826
  781SOL    HW1 8306   6.306   4.112   4.528 -0.0411 -0.8742  0.0584
  781SOL    HW2 8307   6.225   4.179   4.638  0.4212 -0.1771 -0.0145
  782SOL     OW 8308   5.664  10.717  10.623 -0.6281  0.6772 -0.0471
  782SOL    HW1 8309   5.676  10.796  10.676  1.2743  0.5764 -0.2531
  782SOL    HW2 8310   5.697  10.740  10.537 -0.2623 -0.2701 -0.1724
  783SOL     OW 8311   0.594   1.549  10.165  0.6220 -0.1466  0.1216
  783SOL    HW1 8312   0.644   1.514  10.091  1.2051 -0.3857  0.6236
  783SOL    HW2 8313   0.545   1.623  10.128  0.4377 -0.6358 -0.6347
  784SOL     OW 8314   6.427   0.658   4.917 -0.0412  0.0777  0.0955
  784SOL    HW1 8315   6.372   0.650   4.839 -1.0831  2.1219  0.5245
  784SOL    HW2 8316   6.404   0.744   4.952  1.8967  0.0589  1.5270
  785SOL     OW 8317   6.598   2.093  10.931  0.2027 -0.2830 -0.9277
  785SOL    HW1 8318   6.635   2.178  10.955 -1.9799  0.0202  1.9562
  785SOL    HW2 8319   6.586   2.098  10.836  0.7713  2.3612 -0.9305
  786SOL     OW 8320   8.310  12.293   5.968 -0.2309 -0.6102 -0.1180
  786SOL    HW1 8321   8.400  12.300   5.936  0.1562  0.1553  1.0808
  786SOL    HW2 8322   8.291  12.200   5.968  1.3852 -0.9888  1.7699
  787SOL     OW 8323   9.536   4.295  11.749 -0.0222 -0.1285 -0.2770
  787SOL    HW1 8324   9.577   4.370  11.792  0.8164 -0.3495 -0.6666
  787SOL    HW2 8325   9.504   4.329  11.666  0.3355 -0.1911 -0.4426
  788SOL     OW 8326   8.304  10.808   7.252 -0.7327 -0.0420  0.1058
  788SOL    HW1 8327   8.351  10.844   7.327 -1.2435  1.9403 -0.4662
  788SOL    HW2 8328   8.359  10.737   7.222  2.1219  2.2887 -0.6647
  789SOL     OW 8329  12.482   0.844   2.589 -0.9795  0.4978  0.1279
  789SOL    HW1 8330  12.438   0.759   2.582  1.3616 -0.7145 -1.1510
  789SOL    HW2 8331  12.504   0.851   2.681 -1.4933 -0.1188  0.3130
  790SOL     OW 8332   0.363  10.085   0.741  0.5794 -0.3448  0.0091
  790SOL    HW1 8333   0.300  10.015   0.756 -0.6471  0.5664 -0.7347
  790SOL    HW2 8334   0.399  10.103   0.828  0.2626 -1.2761  0.3503
  791SOL     OW 8335   6.553   1.281   2.098 -0.3158  0.5445 -0.0571
  791SOL    HW1 8336   6.477   1.266   2.042  0.3643  0.8667 -1.0958
  791SOL    HW2 8337   6.568   1.197   2.142 -1.6732  0.6649  0.7122
  792SOL     OW 8338   3.370  11.738   5.609 -0.5530 -0.2366 -0.5173
  792SOL    HW1 8339   3.311  11.765   5.539 -0.9830  1.7219  0.5494
  792SOL    HW2 8340   3.447  11.793   5.599 -0.3397 -0.4024  0.1383
  793SOL     OW 8341   6.665   7.561   9.863 -0.1839  0.6723 -0.5779
  793SOL    HW1 8342   6.583   7.513   9.852  0.0351  0.5402 -1.7852
  793SOL    HW2 8343   6.716   7.540   9.784  1.9567 -1.0557  1.1225
  794SOL     OW 8344  12.403   5.509  12.269  0.4099  0.2786  0.1039
  794SOL    HW1 8345  12.388   5.577  12.203 -0.3275  0.3599  0.3469
  794SOL    HW2 8346  12.486   5.533  12.310  1.0462  0.0529 -1.0056
  795SOL     OW 8347   7.614   7.789   2.236 -0.1289  0.4296  0.1369
  795SOL    HW1 8348   7.671   7.723   2.195  1.7401  1.2164  1.3539
  795SOL    HW2 8349   7.638   7.788   2.328  0.7804  3.5452  0.0462
  796SOL     OW 8350   2.695   8.217   2.761 -0.3494  0.0452  0.5038
  796SOL    HW1 8351   2.672   8.195   2.851  1.2871  1.2909  1.2669
  796SOL    HW2 8352   2.790   8.223   2.761 -0.3454  0.3964 -1.2469
  797SOL     OW 8353   1.388   5.743   5.774  0.3725  0.0753  0.5897
  797SOL    HW1 8354   1.443   5.683   5.825  0.3332 -0.4286  0.0524
  797SOL    HW2 8355   1.426   5.829   5.789  1.5224 -0.3012 -0.0438
  798SOL     OW 8356  11.319   1.810   4.069  0.2604  0.0365  0.1793
  798SOL    HW1 8357  11.269   1.812   4.151 -0.1607 -2.0641  0.0458
  798SOL    HW2 8358  11.253   1.816   4.000  0.5957  1.5878 -0.0275
  799SOL     OW 8359   1.393   4.832   9.658 -0.3492 -0.3115 -0.3466
  799SOL    HW1 8360   1.334   4.757   9.647 -0.7262 -0.1435  0.5036
  799SOL    HW2 8361   1.343   4.895   9.710  0.9257 -0.5762  1.2444
  800SOL     OW 8362   3.992   4.224  11.961  0.3742  0.4159  0.3319
  800SOL    HW1 8363   3.936   4.254  12.033  0.0556  2.3815 -0.6754
  800SOL    HW2 8364   4.077   4.262  11.980  0.0414  1.8293 -0.8041
  801SOL     OW 8365   2.296   2.122  10.708 -0.1279  0.4410 -0.3930
  801SOL    HW1 8366   2.381   2.080  10.696 -0.0761  0.4904 -0.2097
  801SOL    HW2 8367   2.265   2.090  10.793 -0.8142 -0.4798 -0.9718
  802SOL     OW 8368  11.411   9.606   1.874  0.5242 -0.5561  0.4066
  802SOL    HW1 8369  11.398   9.524   1.827  1.1109 -0.4575  0.0660
  802SOL    HW2 8370  11.502   9.629   1.859  0.4079  0.0816  0.6224
  803SOL     OW 8371   0.170   6.806   8.647  0.1380 -0.4015 -1.1185
  803SOL    HW1 8372   0.191   6.792   8.740  0.0181  0.2779 -0.9858
  803SOL    HW2 8373   0.218   6.737   8.601  1.9326  0.5348 -0.7493
  804SOL     OW 8374   9.592   7.352   8.031  0.1326 -0.2175  0.0197
  804SOL    HW1 8375   9.559   7.442   8.038 -0.0696 -0.1641 -1.3203
  804SOL    HW2 8376   9.575   7.313   8.116 -0.1506  0.8937  0.4892
  805SOL     OW 8377  12.125   0.052   4.281 -0.1405  0.2624 -0.2927
  805SOL    HW1 8378  12.058   0.078   4.218 -0.9069  0.2410  0.4926
  805SOL    HW2 8379  12.132  -0.043   4.270  0.4037  0.3787 -0.9880
  806SOL     OW 8380   6.176   0.187   7.004 -0.2079  0.2463 -0.3890
  806SOL    HW1 8381   6.088   0.170   6.972  0.1715  0.0646 -1.3695
  806SOL    HW2 8382   6.234   0.159   6.933  0.7496 -1.6348  1.0210
  807SOL     OW 8383  12.343  10.446   4.055  0.1144 -0.2013 -0.2771
  807SOL    HW1 8384  12.278  10.449   3.985  0.7213  1.0656 -0.8093
  807SOL    HW2 8385  12.406  10.380   4.027  0.1669  0.0529 -0.7580
  808SOL     OW 8386   3.388   9.789   4.370  0.4518  0.2018 -0.0108
  808SOL    HW1 8387   3.410   9.696   4.377  0.5466  0.2397  0.2135
  808SOL    HW2 8388   3.465   9.834   4.403  0.2812  0.3519  0.1901
  809SOL     OW 8389   8.310  11.746   7.193  0.0573 -0.0347 -0.0049
  809SOL    HW1 8390   8.216  11.729   7.189  0.0692 -0.1722  0.2512
  809SOL    HW2 8391   8.336  11.762   7.103 -0.0942 -0.6589 -0.1637
  810SOL     OW 8392   5.061   7.740   8.570 -0.4937  0.3757  0.2802
  810SOL    HW1 8393   5.071   7.728   8.475  0.5092 -0.7225  0.5040
  810SOL    HW2 8394   4.968   7.724   8.586 -0.3469 -1.2179 -0.2944
  811SOL     OW 8395   4.966  11.355   7.967 -0.1129  0.4775 -0.0217
  811SOL    HW1 8396   5.012  11.370   8.050 -0.0809  0.4158 -0.0287
  811SOL    HW2 8397   5.025  11.391   7.900 -0.3890  1.0268  0.0323
  812SOL     OW 8398   7.326  11.672   0.533 -0.1986  0.2219 -0.2601
  812SOL    HW1 8399   7.373  11.617   0.470  0.5729 -1.1811  1.4413
  812SOL    HW2 8400   7.236  11.638   0.531 -0.3429  0.6377 -1.0782
  813SOL     OW 8401   6.583  10.540   0.353 -0.1288 -0.8074  0.6807
  813SOL    HW1 8402   6.514  10.604   0.338  0.5984 -0.0580  0.4767
  813SOL    HW2 8403   6.565  10.470   0.290  0.6471  0.4904 -1.0332
  814SOL     OW 8404   3.044   8.933   6.469  0.4391 -0.1087  0.4983
  814SOL    HW1 8405   3.108   9.001   6.449 -0.8192  1.1975  0.7149
  814SOL    HW2 8406   3.036   8.935   6.564  1.8531 -2.0071  0.7211
  815SOL     OW 8407   1.772   0.825  12.389  0.0183  0.1967  0.2597
  815SOL    HW1 8408   1.723   0.777  12.456 -1.3359  1.6887  0.4016
  815SOL    HW2 8409   1.711   0.832  12.316  1.4002 -1.2119 -1.0920
  816SOL     OW 8410   2.632   2.033  11.896 -0.2344 -0.3901  0.2035
  816SOL    HW1 8411   2.702   2.080  11.851  0.2439 -0.5439  0.7604
  816SOL    HW2 8412   2.551   2.069  11.861  0.1169 -0.7935 -1.0642
  817SOL     OW 8413  11.356   9.902  10.348  0.0851  0.0834  0.0226
  817SOL    HW1 8414  11.375   9.992  10.376 -2.6026  1.2461 -1.5360
  817SOL    HW2 8415  11.412   9.888  10.271 -0.4332  0.9528 -0.5272
  818SOL     OW 8416   2.924   4.848   8.295 -0.0604  0.5552  0.4594
  818SOL    HW1 8417   2.998   4.904   8.274  0.9074 -0.2147  1.6686
  818SOL    HW2 8418   2.891   4.882   8.378 -1.6856  1.4723 -0.5096
  819SOL     OW 8419   4.745   3.793   9.377 -0.7871 -0.5517 -0.0470
  819SOL    HW1 8420   4.706   3.715   9.338 -1.8580 -0.2644  0.3956
  819SOL    HW2 8421   4.838   3.787   9.357 -1.2534 -0.4899 -2.5017
  820SOL     OW 8422  11.692  11.781   0.959 -0.0157  0.6638 -0.1547
  820SOL    HW1 8423  11.636  11.800   1.035  1.1175  2.3768  0.3170
  820SOL    HW2 8424  11.780  11.771   0.996  0.5383  1.4395 -1.2220
  821SOL     OW 8425   3.162   4.337   9.929  0.1202  0.2302 -0.0021
  821SOL    HW1 8426   3.120   4.287   9.999 -0.2116  0.9476  0.3184
  821SOL    HW2 8427   3.201   4.412   9.974  0.1719  0.5310 -0.5472
  822SOL     OW 8428  11.766   8.397   0.107  0.6181  0.2770  0.5617
  822SOL    HW1 8429  11.768   8.485   0.145 -0.2423 -0.0434  1.3973
  822SOL    HW2 8430  11.853   8.360   0.124  0.4032  0.3208  1.8104
  823SOL     OW 8431   3.874   1.106   2.639  0.5474 -0.4059  0.0911
  823SOL    HW1 8432   3.955   1.155   2.655 -0.2120  0.2822  2.1245
  823SOL    HW2 8433   3.806   1.173   2.634 -0.0104 -1.0258 -0.9816
  824SOL     OW 8434   9.101   1.339   0.175  0.0353 -0.3657 -0.2133
  824SOL    HW1 8435   9.145   1.258   0.151 -0.0540  0.0425 -1.9028
  824SOL    HW2 8436   9.106   1.394   0.096 -0.9120  0.8240  0.5025
  825SOL     OW 8437   0.153   5.818  12.244 -0.0204 -0.0937 -0.9925
  825SOL    HW1 8438   0.236   5.795  12.203  0.4717 -0.5155  0.2115
  825SOL    HW2 8439   0.169   5.809  12.338 -1.2224  0.5075 -0.7102
  826SOL     OW 8440   3.086   2.585   8.410 -0.3765  0.3185 -0.3126
  826SOL    HW1 8441   3.007   2.564   8.460  0.0991 -0.8553 -0.0394
  826SOL    HW2 8442   3.138   2.505   8.412  0.2060  0.6464 -1.6546
  827SOL     OW 8443  12.363   5.214   4.687  0.1631 -0.2046 -0.7747
  827SOL    HW1 8444  12.452   5.249   4.695  0.1285 -0.4196  0.8178
  827SOL    HW2 8445  12.372   5.121   4.710 -0.4152 -0.3039 -0.9304
  828SOL     OW 8446   1.346   4.247   0.119  0.1288  0.3128  0.8303
  828SOL    HW1 8447   1.357   4.188   0.045 -2.5147 -1.2004  1.5150
  828SOL    HW2 8448   1.395   4.205   0.190  0.6443  0.4873  0.5838
  829SOL     OW 8449   6.807   1.996   4.175 -0.0995  0.6811 -0.2835
  829SOL    HW1 8450   6.774   1.967   4.260  0.0448 -0.0813 -0.4808
  829SOL    HW2 8451   6.733   1.986   4.116 -0.0581  0.7449 -0.3457
  830SOL     OW 8452  11.343   4.167   4.629  0.3979  0.6059  0.0609
  830SOL    HW1 8453  11.333   4.237   4.695  0.3815 -0.3548  1.1051
  830SOL    HW2 8454  11.437   4.152   4.624  0.3693  0.3603  0.2221
  831SOL     OW 8455  10.500  10.409   1.859  0.0852 -0.5959  0.4681
  831SOL    HW1 8456  10.418  10.449   1.830  0.5897 -0.7142 -1.1985
  831SOL    HW2 8457  10.472  10.341   1.921 -0.9685  0.3238  1.0365
  832SOL     OW 8458   7.829   7.185   5.594  0.1441 -0.5023 -0.6697
  832SOL    HW1 8459   7.868   7.138   5.668 -2.2725 -0.4095  0.7729
  832SOL    HW2 8460   7.856   7.136   5.517  1.7715 -1.3090  0.3592
  833SOL     OW 8461   7.723   8.977  12.254  0.9806  0.5959 -0.0444
  833SOL    HW1 8462   7.674   8.896  12.263  1.7207  0.2105  0.5537
  833SOL    HW2 8463   7.811   8.950  12.229  1.3479  1.1890  0.5745
  834SOL     OW 8464   7.863   3.137   0.649  0.8246 -0.9042  0.1864
  834SOL    HW1 8465   7.793   3.198   0.674  1.5323 -0.3742  0.9167
  834SOL    HW2 8466   7.943   3.188   0.657  1.5574 -2.2450  1.9748
  835SOL     OW 8467   7.921  11.162  11.162 -0.1592 -0.1601  0.1290
  835SOL    HW1 8468   7.872  11.182  11.242 -0.0404 -0.1633  0.2021
  835SOL    HW2 8469   7.862  11.106  11.111  0.1697 -1.0080  0.6711
  836SOL     OW 8470   3.747   5.380   8.857  0.1711 -0.5220 -0.2542
  836SOL    HW1 8471   3.762   5.297   8.811  1.1881  0.1574 -1.1947
  836SOL    HW2 8472   3.730   5.354   8.947  0.9871 -1.7244 -0.4200
  837SOL     OW 8473   4.105   2.623   7.579 -0.9122  0.2306 -0.0795
  837SOL    HW1 8474   4.014   2.619   7.609 -0.7631  1.0246  0.5145
  837SOL    HW2 8475   4.116   2.712   7.546  0.3680  1.0776  2.3638
  838SOL     OW 8476   7.234  10.569   0.106 -0.0065  0.4118  0.0813
  838SOL    HW1 8477   7.213  10.521   0.027  0.6451 -1.1751  0.8342
  838SOL    HW2 8478   7.155  10.564   0.160  0.6518 -1.5307  0.9539
  839SOL     OW 8479   0.548   0.547   9.888 -0.0054 -0.3919 -0.5428
  839SOL    HW1 8480   0.493   0.574   9.961  1.5549  0.0585  0.5093
  839SOL    HW2 8481   0.487   0.534   9.816 -1.3463  1.2921  0.2203
  840SOL     OW 8482   8.153   0.139  11.897  0.7673 -0.2936 -0.3374
  840SOL    HW1 8483   8.169   0.076  11.827  2.6276 -1.5078  1.0620
  840SOL    HW2 8484   8.059   0.157  11.892  0.7880 -0.5258 -2.9108
  841SOL     OW 8485   5.958   8.181  12.040  0.1529 -0.2044 -0.0119
  841SOL    HW1 8486   5.941   8.193  11.946  0.9276 -0.7892 -0.2380
  841SOL    HW2 8487   5.963   8.269  12.076 -2.5043  0.0586 -0.0629
  842SOL     OW 8488   1.210  12.293   3.504 -0.5370 -0.3009  0.1550
  842SOL    HW1 8489   1.253  12.324   3.424 -1.4478 -0.1889 -0.3120
  842SOL    HW2 8490   1.180  12.205   3.482  2.5871 -1.8983  1.6795
  843SOL     OW 8491   3.675   5.363   5.478  0.6007 -0.3720  0.0613
  843SOL    HW1 8492   3.724   5.445   5.486  2.6763 -1.6441  1.4005
  843SOL    HW2 8493   3.587   5.385   5.509 -0.4141  2.4007 -3.9139
  844SOL     OW 8494   1.832   8.445   3.967  0.2864  0.0769  0.0078
  844SOL    HW1 8495   1.887   8.408   4.036 -1.9212 -0.6463  1.4817
  844SOL    HW2 8496   1.855   8.394   3.889 -0.5139 -2.4480  1.3140
  845SOL     OW 8497   2.645  10.123   6.417 -0.0266  0.4419  0.3502
  845SOL    HW1 8498   2.624  10.054   6.354 -1.0014  0.1553  0.9573
  845SOL    HW2 8499   2.740  10.122   6.423  0.1073  0.7038 -1.3501
  846SOL     OW 8500  11.307   3.666   0.640 -0.4160  0.7346 -0.5412
  846SOL    HW1 8501  11.231   3.650   0.584  0.0051 -0.2644 -0.8600
  846SOL    HW2 8502  11.357   3.733   0.594 -0.9186  1.1240 -0.5190
  847SOL     OW 8503   4.790   1.042   9.201 -0.4563 -0.1886  0.1300
  847SOL    HW1 8504   4.704   1.037   9.160 -0.1398 -0.5950 -0.4915
  847SOL    HW2 8505   4.774   1.025   9.294 -0.9593 -0.9216 -0.0843
  848SOL     OW 8506   0.089  11.701   9.144  0.3240  0.6954 -0.8190
  848SOL    HW1 8507   0.028  11.709   9.070 -0.0961  0.4249 -0.5094
  848SOL    HW2 8508   0.133  11.618   9.130 -2.2827 -1.1584  1.0507
  849SOL     OW 8509   5.703   2.859   5.758 -0.2984  0.0989 -0.5771
  849SOL    HW1 8510   5.745   2.935   5.799 -0.3134  0.9121 -1.9873
  849SOL    HW2 8511   5.677   2.803   5.831  0.1931  1.2024  0.4758
  850SOL     OW 8512   1.328  10.733   8.383  0.3935 -0.3220  0.3055
  850SOL    HW1 8513   1.308  10.827   8.375  1.6360 -0.1500 -1.3265
  850SOL    HW2 8514   1.256  10.689   8.339  0.8653  0.0131 -0.8458
  851SOL     OW 8515   0.978   3.723   3.414  0.4243  0.3373  0.2356
  851SOL    HW1 8516   0.963   3.736   3.507  1.7673 -0.6534  0.6252
  851SOL    HW2 8517   0.897   3.685   3.381  0.0628  0.3668  1.0700
  852SOL     OW 8518  10.325   0.139  10.729  0.1108  0.2332  0.2091
  852SOL    HW1 8519  10.409   0.093  10.720  0.1381  0.0435  1.3490
  852SOL    HW2 8520  10.307   0.171  10.641  1.5455  0.5657  0.0026
  853SOL     OW 8521  11.927  11.300   9.010 -0.1258 -0.1227  0.0019
  853SOL    HW1 8522  11.999  11.298   8.947 -0.4860 -0.6988 -0.4012
  853SOL    HW2 8523  11.849  11.311   8.956 -0.5749 -1.9377  0.2051
  854SOL     OW 8524   4.221  10.270  10.003  0.1680  0.3527 -0.8400
  854SOL    HW1 8525   4.300  10.275   9.948 -0.1601 -0.0185 -1.3539
  854SOL    HW2 8526   4.250  10.227  10.083  0.6207  0.7688 -0.7716
  855SOL     OW 8527  10.019   0.979   1.805 -0.9438  0.2773 -0.2671
  855SOL    HW1 8528  10.062   1.053   1.848 -1.4638  0.0582  0.6654
  855SOL    HW2 8529   9.927   0.989   1.827 -1.3556  0.5542 -1.9603
  856SOL     OW 8530  11.310   6.779  10.078 -0.0839  0.5820 -0.3825
  856SOL    HW1 8531  11.403   6.764  10.097 -0.5180 -0.6258  0.9779
  856SOL    HW2 8532  11.299   6.874  10.083  0.7824  0.6321  1.0120
  857SOL     OW 8533   1.328   3.007   8.051 -0.2136 -0.3007  0.1895
  857SOL    HW1 8534   1.375   3.081   8.012  2.9130 -1.8692  0.5891
  857SOL    HW2 8535   1.273   2.973   7.981  0.4158  0.7740 -0.8591
  858SOL     OW 8536   0.791   9.680   0.349 -0.0543 -0.0090  0.4511
  858SOL    HW1 8537   0.798   9.585   0.346 -1.7239 -0.1970  1.1279
  858SOL    HW2 8538   0.866   9.712   0.300  0.9531 -1.6566  0.8520
  859SOL     OW 8539  11.153  11.865   2.270  0.3379  0.1881  0.3531
  859SOL    HW1 8540  11.129  11.823   2.352  2.2601 -2.0456 -0.1450
  859SOL    HW2 8541  11.148  11.796   2.204  1.8162  1.1721 -0.8670
  860SOL     OW 8542   4.885   0.326   0.726  0.1893 -0.2754 -0.1008
  860SOL    HW1 8543   4.949   0.378   0.676  1.0002  1.2822  2.3704
  860SOL    HW2 8544   4.938   0.266   0.777 -0.3687  0.2830  1.1688
  861SOL     OW 8545   6.818   0.450   3.618  0.1425 -0.0727 -0.0219
  861SOL    HW1 8546   6.881   0.405   3.561 -0.6766 -1.0473 -0.2046
  861SOL    HW2 8547   6.858   0.449   3.705  0.3612 -0.7372 -0.1251
  862SOL     OW 8548  12.212  11.066   7.696  0.0492  0.0264 -0.1396
  862SOL    HW1 8549  12.234  11.154   7.729  0.3528 -0.1813  0.2152
  862SOL    HW2 8550  12.143  11.082   7.632 -2.9982  0.2219  2.8827
  863SOL     OW 8551   9.149   9.084   0.722  0.2408 -0.0736  0.2437
  863SOL    HW1 8552   9.071   9.111   0.770  1.1859  0.5339  1.5141
  863SOL    HW2 8553   9.127   8.999   0.685 -0.5343 -0.5774  1.8051
  864SOL     OW 8554   9.161   8.496   7.573  0.4459 -0.0279  0.1476
  864SOL    HW1 8555   9.189   8.525   7.659 -0.0168 -0.2138  0.3661
  864SOL    HW2 8556   9.189   8.565   7.513 -0.4069  0.7451  0.6206
  865SOL     OW 8557   5.436   3.749   7.611  0.2931 -0.0078 -0.5302
  865SOL    HW1 8558   5.361   3.781   7.562 -0.3431  0.4849  0.7341
  865SOL    HW2 8559   5.440   3.804   7.689  1.9338 -0.0636 -0.5383
  866SOL     OW 8560   9.997   6.390  12.465  0.2281  0.3931 -0.0296
  866SOL    HW1 8561   9.987   6.424  12.554  1.1760 -0.6228  0.4920
  866SOL    HW2 8562   9.909   6.363  12.440  0.1365 -0.4524  1.1007
  867SOL     OW 8563  12.119   7.106   1.751 -0.3626 -0.0097  0.0572
  867SOL    HW1 8564  12.044   7.108   1.812 -0.7068 -0.5275 -0.3416
  867SOL    HW2 8565  12.162   7.023   1.770 -0.2276  0.0206 -0.1193
  868SOL     OW 8566   4.153   5.997   9.975 -0.1959  0.1317  0.3145
  868SOL    HW1 8567   4.165   6.029  10.064  0.2617 -0.1705  0.3688
  868SOL    HW2 8568   4.162   5.902   9.982  0.7631  0.1707 -0.1862
  869SOL     OW 8569  10.055   8.944   6.031  0.2451 -0.5272 -0.2622
  869SOL    HW1 8570  10.137   8.993   6.042 -1.2098  2.0086  0.2028
  869SOL    HW2 8571  10.043   8.937   5.937  0.0556  0.8818 -0.3639
  870SOL     OW 8572   9.401  11.301  11.873  0.0519 -0.1146 -0.0090
  870SOL    HW1 8573   9.358  11.386  11.859 -0.9438 -0.7760 -1.1484
  870SOL    HW2 8574   9.387  11.282  11.966 -1.7611 -0.0949 -0.2515
  871SOL     OW 8575  10.043   9.588   8.991 -0.1404  0.1815 -0.4798
  871SOL    HW1 8576  10.049   9.683   8.978  0.5682  0.3171  0.7166
  871SOL    HW2 8577   9.977   9.578   9.059 -2.0683 -0.3726 -2.3180
  872SOL     OW 8578  10.239   4.130  12.231 -0.2893 -0.2339  0.1352
  872SOL    HW1 8579  10.197   4.045  12.216 -3.0086  0.7009  1.7696
  872SOL    HW2 8580  10.206   4.186  12.161  0.3517 -0.1277 -0.0895
  873SOL     OW 8581   1.510   4.305  10.837  0.1697 -0.3768 -0.3357
  873SOL    HW1 8582   1.585   4.246  10.848  0.0217 -0.6120 -0.5737
  873SOL    HW2 8583   1.543   4.376  10.784  0.4515 -0.0516  0.2633
  874SOL     OW 8584   2.159  11.644  12.120 -0.4730 -0.6927  0.0730
  874SOL    HW1 8585   2.101  11.674  12.049 -0.9764 -0.0996  0.7165
  874SOL    HW2 8586   2.114  11.672  12.200 -0.1580 -1.7869  0.6490
  875SOL     OW 8587  10.178   0.928   5.691  0.4772 -0.3672 -0.2774
  875SOL    HW1 8588  10.272   0.935   5.708  0.6038 -2.0925 -0.0381
  875SOL    HW2 8589  10.144   0.879   5.766 -0.4664 -0.5106 -0.7816
  876SOL     OW 8590   1.894  12.394   4.413  0.0848  0.0716 -0.2689
  876SOL    HW1 8591   1.853  12.396   4.500 -2.4525  2.0097 -1.3461
  876SOL    HW2 8592   1.876  12.307   4.380  0.4603 -0.4537  0.8549
  877SOL     OW 8593  11.135   0.182   3.630  0.5920 -0.2599  0.0731
  877SOL    HW1 8594  11.166   0.243   3.697 -0.0595  0.0902  0.0657
  877SOL    HW2 8595  11.104   0.106   3.679  2.2698 -1.0167  0.0394
  878SOL     OW 8596   5.971   4.110   0.743 -0.2181  0.2818  0.7693
  878SOL    HW1 8597   6.013   4.057   0.675 -1.9345 -0.0473 -0.0908
  878SOL    HW2 8598   5.945   4.048   0.811 -0.1554  0.3454  0.8515
  879SOL     OW 8599   6.999   4.657   3.953 -0.0303  0.0110  0.0340
  879SOL    HW1 8600   7.027   4.738   3.994  0.2006  0.6476 -1.3303
  879SOL    HW2 8601   7.049   4.653   3.871  0.1738 -1.6465  0.1987
  880SOL     OW 8602  12.097   0.434   9.886  0.6723  0.1774 -0.2650
  880SOL    HW1 8603  12.114   0.381   9.964 -0.6469 -1.4313 -1.0257
  880SOL    HW2 8604  12.020   0.486   9.909 -0.1113 -0.7658 -0.6715
  881SOL     OW 8605   5.365   8.100   7.391 -0.2423  0.0615  0.1502
  881SOL    HW1 8606   5.323   8.057   7.465  0.1556  1.0185  0.9666
  881SOL    HW2 8607   5.311   8.078   7.315 -0.7340 -0.8264  0.7474
  882SOL     OW 8608  10.688   2.556   9.104  0.4559  0.0549  0.5390
  882SOL    HW1 8609  10.593   2.560   9.092  0.4973  1.2443  0.5298
  882SOL    HW2 8610  10.724   2.606   9.031  1.1199 -0.6528  0.3622
  883SOL     OW 8611   9.840   5.331   3.628 -0.2892 -0.0361  0.3672
  883SOL    HW1 8612   9.933   5.350   3.619 -0.2722  0.9171  2.0608
  883SOL    HW2 8613   9.837   5.247   3.674 -0.2775 -0.3501 -0.2022
  884SOL     OW 8614   2.284   1.772   6.335  0.2067 -0.1420 -0.0614
  884SOL    HW1 8615   2.192   1.797   6.334  0.7750  2.1673  0.1371
  884SOL    HW2 8616   2.283   1.680   6.360 -2.0796 -0.4388 -0.9885
  885SOL     OW 8617   0.378   2.730   7.999 -0.6382 -0.5129 -0.2391
  885SOL    HW1 8618   0.378   2.773   7.914 -0.4177 -0.7216 -0.3471
  885SOL    HW2 8619   0.377   2.636   7.978 -0.1383 -0.5692 -0.0137
  886SOL     OW 8620  11.263   1.201   9.837 -0.2215 -0.1175  0.4521
  886SOL    HW1 8621  11.315   1.134   9.879  0.1025 -0.7360 -0.8702
  886SOL    HW2 8622  11.324   1.273   9.820  0.5041 -1.1695 -1.8523
  887SOL     OW 8623  11.673   7.955   2.540  0.2913 -0.0428  0.6362
  887SOL    HW1 8624  11.608   8.009   2.495  2.0963  4.2198  2.6157
  887SOL    HW2 8625  11.629   7.925   2.619 -0.1666  0.1710  0.4673
  888SOL     OW 8626   4.195  10.445   2.312  0.4497 -0.0665 -0.6783
  888SOL    HW1 8627   4.259  10.405   2.371  0.5577 -1.8911 -1.9563
  888SOL    HW2 8628   4.178  10.531   2.350  1.4313 -0.6962  1.3158
  889SOL     OW 8629   3.432   0.844  11.941 -0.4139  0.4569  0.6288
  889SOL    HW1 8630   3.514   0.829  11.895  0.2092 -1.4535  2.2058
  889SOL    HW2 8631   3.455   0.902  12.013 -0.0688 -1.2359  1.9356
  890SOL     OW 8632  12.386   1.842   8.965  0.4190  0.7597 -0.4744
  890SOL    HW1 8633  12.433   1.797   8.895  0.7495 -1.1514  0.9013
  890SOL    HW2 8634  12.454   1.865   9.028 -0.2384 -0.8920  0.9314
  891SOL     OW 8635   0.955   9.345   3.806  0.5870  0.8333 -0.1834
  891SOL    HW1 8636   1.042   9.377   3.783  1.0257 -0.7875 -0.9320
  891SOL    HW2 8637   0.928   9.293   3.731  0.0074 -0.6863  1.0330
  892SOL     OW 8638   2.173   9.759   2.965 -0.1959 -0.1382  0.0106
  892SOL    HW1 8639   2.244   9.704   3.000 -1.8314 -1.3663  1.5609
  892SOL    HW2 8640   2.151   9.818   3.037 -1.4255 -0.4749 -0.0773
  893SOL     OW 8641   6.805  10.917   2.581 -0.4845  0.0615  0.7066
  893SOL    HW1 8642   6.817  10.863   2.503 -3.2666  0.3924 -0.0547
  893SOL    HW2 8643   6.825  10.859   2.654  1.6433 -0.4077 -0.1839
  894SOL     OW 8644  11.942   7.046   8.146 -0.8964 -0.0284  0.0190
  894SOL    HW1 8645  12.009   7.065   8.080  1.9246  0.2889  2.7350
  894SOL    HW2 8646  11.934   6.951   8.144 -0.2244 -0.0886 -0.2076
  895SOL     OW 8647   8.489  11.030   4.901  0.2063  0.1711  0.0394
  895SOL    HW1 8648   8.520  10.941   4.881 -1.5338 -0.6199  0.5929
  895SOL    HW2 8649   8.410  11.040   4.848 -1.0402  0.3783  1.8156
  896SOL     OW 8650   5.435   2.105   9.964  0.1104 -0.4267  0.8216
  896SOL    HW1 8651   5.348   2.081   9.931 -0.1912  0.0091  1.2701
  896SOL    HW2 8652   5.491   2.106   9.887 -0.4708  0.1119  0.3938
  897SOL     OW 8653   9.360   0.042   4.634 -0.0375 -0.0345  0.1086
  897SOL    HW1 8654   9.390   0.110   4.575 -0.3337  0.5594  0.6304
  897SOL    HW2 8655   9.404   0.060   4.717  1.4335 -1.6442 -0.2429
  898SOL     OW 8656   6.730   8.033   5.152 -0.0363  0.7984  1.1610
  898SOL    HW1 8657   6.741   8.052   5.058  2.2473  0.5817  1.3473
  898SOL    HW2 8658   6.669   7.960   5.154  0.1916  0.5487 -0.1861
  899SOL     OW 8659   0.802   2.038   3.192  0.2734  0.2897 -0.4265
  899SOL    HW1 8660   0.735   2.049   3.125  0.3166  0.3157 -0.4650
  899SOL    HW2 8661   0.884   2.062   3.149  0.2251  0.8986 -0.1885
  900SOL     OW 8662   9.254   4.692  10.860 -0.4038 -0.6962 -0.4972
  900SOL    HW1 8663   9.318   4.700  10.790  1.9383 -0.9100  1.4826
  900SOL    HW2 8664   9.259   4.776  10.906 -3.0826  0.0683 -1.4260
  901SOL     OW 8665   3.490   1.073   5.313 -0.1814  0.3781 -0.2357
  901SOL    HW1 8666   3.476   1.167   5.312  1.5404  0.6793  0.4514
  901SOL    HW2 8667   3.540   1.054   5.234 -0.4613  0.0331 -0.3373
  902SOL     OW 8668   2.408   8.295   2.118 -0.5753 -0.2923  0.0665
  902SOL    HW1 8669   2.490   8.260   2.083 -0.2802  0.9306 -0.5334
  902SOL    HW2 8670   2.416   8.389   2.106 -0.0962  0.3760  4.2430
  903SOL     OW 8671   3.125   0.854   3.917  0.4875 -0.8219  0.4398
  903SOL    HW1 8672   3.187   0.845   3.844 -1.2146 -2.7003 -0.9011
  903SOL    HW2 8673   3.120   0.766   3.955  0.9677  0.0142  2.5959
  904SOL     OW 8674   1.446   5.581   5.485 -0.1505  0.0282 -0.1919
  904SOL    HW1 8675   1.420   5.552   5.573  0.2358 -2.3752 -0.7825
  904SOL    HW2 8676   1.398   5.523   5.426  2.8656 -1.4143 -1.4216
  905SOL     OW 8677   8.049   6.727   7.320  0.0860 -0.2217  0.6292
  905SOL    HW1 8678   8.043   6.637   7.287  0.0110 -0.1725  0.5092
  905SOL    HW2 8679   8.066   6.780   7.243 -2.2110  0.1625  0.3318
  906SOL     OW 8680   2.951   5.039   4.553 -0.6507  0.6600  0.6837
  906SOL    HW1 8681   3.008   5.063   4.481 -1.0366 -1.9874 -0.5888
  906SOL    HW2 8682   2.863   5.064   4.523 -0.5165  2.4574  1.6246
  907SOL     OW 8683   8.548  12.103   7.103 -0.0295 -0.0362 -0.0934
  907SOL    HW1 8684   8.548  12.199   7.105 -1.0135 -0.0234  2.4576
  907SOL    HW2 8685   8.641  12.080   7.092  0.0975  1.1279 -2.0881
  908SOL     OW 8686   6.391   4.507   0.671  0.0082  0.4297  0.2710
  908SOL    HW1 8687   6.428   4.558   0.743  0.5938 -0.0384  0.3071
  908SOL    HW2 8688   6.447   4.430   0.665 -1.0244 -0.3425  0.3886
  909SOL     OW 8689   0.464   8.050   0.107  0.0946  1.0369  0.6835
  909SOL    HW1 8690   0.402   8.010   0.045 -0.3943  0.8112  1.3098
  909SOL    HW2 8691   0.474   8.140   0.076 -2.2979  1.7919  1.8289
  910SOL     OW 8692   7.632   3.160   5.842  0.2799  0.3608 -0.5084
  910SOL    HW1 8693   7.620   3.183   5.750 -0.8046 -0.3870 -0.5669
  910SOL    HW2 8694   7.550   3.118   5.867  0.1371  1.5117  1.1063
  911SOL     OW 8695   3.083   6.298   2.011 -0.0049 -0.4191  0.1890
  911SOL    HW1 8696   3.044   6.273   2.094  0.9556 -1.9314  0.2191
  911SOL    HW2 8697   3.169   6.333   2.035  0.6286 -1.6482 -0.1874
  912SOL     OW 8698   4.374   4.378   5.672  0.6361  0.3936  0.4998
  912SOL    HW1 8699   4.437   4.408   5.606 -0.5432  0.8376 -0.4567
  912SOL    HW2 8700   4.389   4.283   5.678 -0.0709  0.1181 -1.3696
  913SOL     OW 8701   6.449  10.252  10.543 -0.2678 -0.0202  0.4475
  913SOL    HW1 8702   6.458  10.156  10.547  1.9025  0.1591  2.2570
  913SOL    HW2 8703   6.520  10.280  10.486 -0.4170  0.5457  0.5374
  914SOL     OW 8704   4.357   9.529   1.943  0.2562 -0.2614 -0.4412
  914SOL    HW1 8705   4.348   9.435   1.960 -1.0184  0.0125  0.6312
  914SOL    HW2 8706   4.451   9.544   1.938  0.4652 -1.8196 -2.1047
  915SOL     OW 8707  10.054   9.834   8.609 -0.5516 -0.0716 -0.0153
  915SOL    HW1 8708  10.108   9.900   8.564 -1.0601  0.7209  0.5248
  915SOL    HW2 8709  10.043   9.869   8.698  2.1913 -2.5596  1.4938
  916SOL     OW 8710  11.113   6.216   8.232 -0.5068 -0.0155  0.1493
  916SOL    HW1 8711  11.027   6.245   8.200 -0.3273  0.5256  0.1578
  916SOL    HW2 8712  11.094   6.176   8.317 -0.7163  0.3441  0.2739
  917SOL     OW 8713   7.186  10.320   5.253 -0.0717  0.5929 -0.1798
  917SOL    HW1 8714   7.256  10.286   5.197  1.2369  1.3681  0.9207
  917SOL    HW2 8715   7.154  10.398   5.207 -0.0467  0.3706 -0.5755
  918SOL     OW 8716  11.028   9.309   9.308 -0.0006 -0.0449 -0.1763
  918SOL    HW1 8717  10.972   9.293   9.383 -0.7865 -0.0485 -0.7470
  918SOL    HW2 8718  11.071   9.392   9.327 -0.7612  0.3272 -0.0497
  919SOL     OW 8719   3.784   4.061   0.842 -0.0981  0.0208  0.3231
  919SOL    HW1 8720   3.863   4.026   0.801  0.5013  0.9023  0.6822
  919SOL    HW2 8721   3.780   4.152   0.813 -0.4390  0.2614  1.0921
  920SOL     OW 8722   0.345  12.417   4.199 -0.1067  0.1069  0.1957
  920SOL    HW1 8723   0.395  12.371   4.132 -0.8353 -2.5380  1.3403
  920SOL    HW2 8724   0.298  12.485   4.151  1.4857  0.0970 -1.5016
  921SOL     OW 8725  10.763   0.303  11.645 -0.5889  0.0087 -0.2709
  921SOL    HW1 8726  10.715   0.255  11.577  1.0279 -1.3261 -0.5368
  921SOL    HW2 8727  10.841   0.250  11.661  1.1923  2.4255 -0.3787
  922SOL     OW 8728  10.340  10.135  11.083 -0.0686 -0.3742 -0.7533
  922SOL    HW1 8729  10.262  10.190  11.069 -0.8255 -0.9600  0.8920
  922SOL    HW2 8730  10.365  10.107  10.995 -1.9496 -0.4457 -1.3241
  923SOL     OW 8731   0.718  10.004   7.259 -0.6950 -0.6952 -0.0598
  923SOL    HW1 8732   0.763  10.075   7.214 -0.2310 -1.3740 -0.6920
  923SOL    HW2 8733   0.639   9.989   7.208 -1.4168  0.1673  0.7703
  924SOL     OW 8734   8.469  11.214   7.388 -1.0881  0.0207 -0.2879
  924SOL    HW1 8735   8.436  11.276   7.453  1.1446  0.1429  0.8005
  924SOL    HW2 8736   8.430  11.243   7.305 -0.6914  2.4421  0.3045
  925SOL     OW 8737   3.803   5.484   6.867 -0.2074 -0.4692 -0.2342
  925SOL    HW1 8738   3.834   5.460   6.780 -1.4455 -1.3728 -0.4450
  925SOL    HW2 8739   3.729   5.425   6.884 -1.2679  1.0383  0.5927
  926SOL     OW 8740   9.835   9.433   1.802 -0.4586 -0.1212 -0.5899
  926SOL    HW1 8741   9.847   9.361   1.863 -0.7171  1.2437  1.1516
  926SOL    HW2 8742   9.790   9.394   1.727  1.1214 -2.1417 -0.5668
  927SOL     OW 8743   3.899   0.318   2.716  0.2392 -0.0214 -0.1831
  927SOL    HW1 8744   3.877   0.272   2.797  0.7213  0.9882  0.5445
  927SOL    HW2 8745   3.909   0.249   2.651  1.1760 -0.9678  0.9200
  928SOL     OW 8746   5.441   6.648   2.462  0.1431 -0.0043  0.0950
  928SOL    HW1 8747   5.364   6.644   2.406  0.0891  0.1153  0.1606
  928SOL    HW2 8748   5.475   6.737   2.452  0.9251 -0.3826 -0.8013
  929SOL     OW 8749   5.969  10.427   2.049  0.1037 -0.3711 -0.4904
  929SOL    HW1 8750   6.055  10.389   2.028 -0.1399 -0.7674 -0.7839
  929SOL    HW2 8751   5.906  10.369   2.007 -0.3688 -0.7003  0.6341
  930SOL     OW 8752   4.705   5.620  11.070  0.3435 -0.9262 -0.0351
  930SOL    HW1 8753   4.753   5.639  10.990  1.0480 -0.4341  0.4828
  930SOL    HW2 8754   4.768   5.637  11.140 -1.3284  2.5600  0.8559
  931SOL     OW 8755   2.916   7.300   6.159 -0.0484 -0.0560  0.3747
  931SOL    HW1 8756   2.926   7.268   6.070 -0.8259  1.3145 -0.2460
  931SOL    HW2 8757   2.972   7.378   6.163  0.1280 -0.2161  1.1426
  932SOL     OW 8758  11.903  10.630   7.322  0.0844 -0.4070 -0.1588
  932SOL    HW1 8759  11.807  10.635   7.325  0.0255 -1.4681  0.0927
  932SOL    HW2 8760  11.932  10.721   7.326 -0.8751 -0.1316  1.2681
  933SOL     OW 8761  10.186  12.292   7.459 -0.1461 -0.5412 -0.0694
  933SOL    HW1 8762  10.219  12.223   7.402  1.4509 -1.4231  1.7868
  933SOL    HW2 8763  10.260  12.313   7.516 -1.3650  0.9660  1.0439
  934SOL     OW 8764  10.362   6.854   0.640  0.2213  0.2072 -0.0629
  934SOL    HW1 8765  10.269   6.831   0.639  0.6204 -1.5557  0.2735
  934SOL    HW2 8766  10.371   6.913   0.715 -0.7355  1.0285 -0.5631
  935SOL     OW 8767   7.035   7.846  10.984 -0.0527 -0.0446 -0.3007
  935SOL    HW1 8768   6.951   7.863  10.942  0.8616  2.4487 -1.3675
  935SOL    HW2 8769   7.027   7.887  11.070 -0.5302 -1.4854  0.3622
  936SOL     OW 8770  11.375   3.557  11.350  0.0399  0.3921 -0.1662
  936SOL    HW1 8771  11.294   3.507  11.350 -0.7337  1.5682  1.6441
  936SOL    HW2 8772  11.348   3.647  11.334  0.9830  0.7902  0.4094
  937SOL     OW 8773   5.525   8.662   2.488  0.3609  0.0490  0.3156
  937SOL    HW1 8774   5.452   8.683   2.546 -0.1320  2.4474 -1.0613
  937SOL    HW2 8775   5.600   8.707   2.526  0.3511  0.4304 -0.1091
  938SOL     OW 8776   5.182   7.767  11.758  0.3166  0.0988 -0.1738
  938SOL    HW1 8777   5.147   7.683  11.729 -1.2124  0.5880  0.1600
  938SOL    HW2 8778   5.247   7.744  11.824 -0.2808 -0.8267  0.1119
  939SOL     OW 8779   1.573   5.552  10.000  0.8575 -0.5008 -0.2975
  939SOL    HW1 8780   1.636   5.537   9.930  0.9437  2.2655 -0.9106
  939SOL    HW2 8781   1.491   5.572   9.955  0.5743  0.0014  0.4164
  940SOL     OW 8782   9.445  10.949   5.936  0.0009 -0.2588  0.1717
  940SOL    HW1 8783   9.462  11.042   5.952  0.1896 -0.3450  0.4898
  940SOL    HW2 8784   9.499  10.904   6.001  1.5207 -0.6515 -1.2994
  941SOL     OW 8785   5.326   0.297   3.204  0.5283 -0.5698  0.3812
  941SOL    HW1 8786   5.400   0.351   3.232 -0.0839  0.4716  0.0609
  941SOL    HW2 8787   5.249   0.348   3.230 -0.0635 -0.7697 -0.9247
  942SOL     OW 8788   5.259  11.377   0.536  0.4121  0.3106  0.2872
  942SOL    HW1 8789   5.213  11.315   0.593  0.9543  1.3550  1.9515
  942SOL    HW2 8790   5.198  11.395   0.465  0.0302 -1.6748  0.0547
  943SOL     OW 8791   1.029   6.496  11.559  0.1393  0.3787  0.3123
  943SOL    HW1 8792   1.058   6.549  11.485  1.1688  1.2292  1.2896
  943SOL    HW2 8793   0.955   6.445  11.525 -0.4522  1.9443 -0.8441
  944SOL     OW 8794  11.546  11.943  10.372  0.4030 -0.7166  0.5245
  944SOL    HW1 8795  11.521  11.974  10.459 -0.0125 -1.7178  0.7775
  944SOL    HW2 8796  11.584  11.856  10.387  1.6346 -0.3114 -0.1444
  945SOL     OW 8797   9.124   5.206   4.443  0.0222 -0.1773 -0.0933
  945SOL    HW1 8798   9.037   5.243   4.425 -0.7424 -1.3979  0.8853
  945SOL    HW2 8799   9.167   5.272   4.497 -0.7162 -0.0220  0.3259
  946SOL     OW 8800   8.826   0.948   5.963  0.0880 -0.3398 -0.5406
  946SOL    HW1 8801   8.799   0.916   6.049 -0.9704 -1.5924 -1.2948
  946SOL    HW2 8802   8.910   0.904   5.947  0.1515 -0.3215 -0.2571
  947SOL     OW 8803   7.796   5.107   8.865 -0.3420 -0.4704 -0.4507
  947SOL    HW1 8804   7.802   5.195   8.828 -0.2274 -0.2363  0.1176
  947SOL    HW2 8805   7.753   5.119   8.949  0.0002 -0.9154 -0.2058
  948SOL     OW 8806   2.200   0.707  10.579  0.6119 -0.0608  0.6610
  948SOL    HW1 8807   2.181   0.713  10.485  1.8384 -3.7418  0.0291
  948SOL    HW2 8808   2.285   0.749  10.589  0.2889  0.7272  0.2572
  949SOL     OW 8809   6.790   2.453   0.670  0.3231 -0.2971  0.1608
  949SOL    HW1 8810   6.755   2.434   0.582 -0.3194 -0.5582  0.4656
  949SOL    HW2 8811   6.813   2.367   0.705 -0.4091 -0.3016  0.6494
  950SOL     OW 8812  10.813   5.405   3.019  0.5186 -0.1662  0.5998
  950SOL    HW1 8813  10.809   5.436   2.929  1.8761  2.9655  1.4860
  950SOL    HW2 8814  10.724   5.374   3.038 -0.2217  0.6592 -1.3143
  951SOL     OW 8815   8.771  11.368   1.763 -0.0503 -0.1411  0.3415
  951SOL    HW1 8816   8.724  11.301   1.714  0.7885 -0.1811 -0.4359
  951SOL    HW2 8817   8.802  11.323   1.842 -1.2869 -0.1104  0.8691
  952SOL     OW 8818   6.844   6.877   1.347 -0.4262 -0.2144  0.1809
  952SOL    HW1 8819   6.870   6.850   1.435  2.4905  0.6464 -0.2856
  952SOL    HW2 8820   6.771   6.937   1.360  0.5116  0.5770  2.0959
  953SOL     OW 8821  10.571   5.659   0.175 -0.4588 -0.6419  0.1156
  953SOL    HW1 8822  10.594   5.657   0.082 -3.1409 -0.9528 -0.6226
  953SOL    HW2 8823  10.504   5.591   0.185 -0.7005 -0.1657  2.1262
  954SOL     OW 8824   3.964   0.465  10.079  0.0567 -0.3112 -0.9104
  954SOL    HW1 8825   3.940   0.534  10.017 -0.7890 -0.7303 -1.0690
  954SOL    HW2 8826   4.058   0.477  10.094 -0.3751  1.9572  0.4177
  955SOL     OW 8827  11.525   4.971   7.522  0.2786  0.1009  0.0480
  955SOL    HW1 8828  11.591   5.005   7.581  0.8647 -0.4957 -0.2540
  955SOL    HW2 8829  11.547   4.878   7.512  0.7020  0.3652 -1.7678
  956SOL     OW 8830   3.987   2.307   1.280  0.4526  0.1308  0.2537
  956SOL    HW1 8831   3.895   2.305   1.305  0.0970  0.6365 -0.9280
  956SOL    HW2 8832   4.000   2.227   1.230  0.2495  0.7643 -0.8460
  957SOL     OW 8833   0.145   9.947   6.920 -0.1746 -0.4205  0.0467
  957SOL    HW1 8834   0.187   9.935   6.835 -0.4529 -1.6972  0.0700
  957SOL    HW2 8835   0.065   9.996   6.901 -0.3668 -0.9306 -0.4716
  958SOL     OW 8836   1.217   5.465   1.691 -0.0149 -0.7421  0.0507
  958SOL    HW1 8837   1.251   5.527   1.627 -0.8573 -1.0786 -0.7621
  958SOL    HW2 8838   1.293   5.416   1.721  0.4512 -0.2995 -0.3961
  959SOL     OW 8839   2.276   8.327   8.879 -0.0188 -0.1349 -0.4018
  959SOL    HW1 8840   2.215   8.371   8.937  1.5028  0.2410  0.9916
  959SOL    HW2 8841   2.305   8.250   8.929  0.6917 -0.2653 -0.9949
  960SOL     OW 8842   3.904   7.518   0.298 -0.8922 -0.0102  0.3060
  960SOL    HW1 8843   3.822   7.470   0.285 -0.1157 -1.4156  0.3465
  960SOL    HW2 8844   3.888   7.605   0.261 -1.4386 -1.1935 -2.4561
  961SOL     OW 8845   0.165   9.561   4.537  0.0083  0.4004  0.5604
  961SOL    HW1 8846   0.151   9.617   4.613  0.2808  1.3416 -0.0734
  961SOL    HW2 8847   0.191   9.620   4.466  1.4464 -0.6192  0.1613
  962SOL     OW 8848   0.214   2.650  11.756  0.7627 -0.5427  0.0790
  962SOL    HW1 8849   0.306   2.634  11.777  0.6319 -0.6176  0.6101
  962SOL    HW2 8850   0.217   2.694  11.671  1.3726  0.7556  0.7445
  963SOL     OW 8851   7.304   1.464  10.869  0.2097  0.5037  0.5022
  963SOL    HW1 8852   7.223   1.420  10.893  0.6374 -0.1789  0.7302
  963SOL    HW2 8853   7.300   1.470  10.774 -1.0188  2.2928  0.6269
  964SOL     OW 8854   9.298   4.474   4.679 -0.1538 -0.0727 -0.8518
  964SOL    HW1 8855   9.290   4.565   4.650 -1.4235 -0.1451 -0.7585
  964SOL    HW2 8856   9.230   4.427   4.632 -0.7200 -0.6231  0.4516
  965SOL     OW 8857  12.181   5.404   4.797  0.2012  0.3344 -0.0901
  965SOL    HW1 8858  12.250   5.349   4.759  0.8170  0.1628  1.2207
  965SOL    HW2 8859  12.198   5.491   4.760 -0.6205 -0.2433 -1.9697
  966SOL     OW 8860   3.337   9.741  10.466  0.0629 -0.0220  0.2983
  966SOL    HW1 8861   3.300   9.653  10.470 -0.0828 -0.0276 -0.8772
  966SOL    HW2 8862   3.262   9.799  10.475 -0.3424 -0.0329 -2.2811
  967SOL     OW 8863   2.121   1.059   0.830 -0.3128  0.1298 -0.3057
  967SOL    HW1 8864   2.104   0.970   0.799  1.4309 -0.7080  1.0112
  967SOL    HW2 8865   2.216   1.069   0.824 -0.3753  1.5195  0.6057
  968SOL     OW 8866   1.010   7.346   4.392  0.2134  0.0027  0.2869
  968SOL    HW1 8867   1.098   7.375   4.418 -0.0555  0.1364  1.0652
  968SOL    HW2 8868   1.020   7.252   4.376  0.9203  0.3498 -1.5196
  969SOL     OW 8869   5.048  11.336  10.706 -0.2201 -0.8253 -0.8764
  969SOL    HW1 8870   4.965  11.367  10.744 -0.5012 -1.2038 -1.1701
  969SOL    HW2 8871   5.114  11.394  10.743 -0.3984 -1.5939  0.7399
  970SOL     OW 8872  10.365  11.939  10.279 -0.0043 -0.4071 -0.3677
  970SOL    HW1 8873  10.461  11.941  10.282 -0.0343  0.8354  0.0228
  970SOL    HW2 8874  10.343  11.984  10.198 -0.2392 -2.2959 -1.4200
  971SOL     OW 8875   6.754   2.052   7.787  0.2165  1.0684  0.3146
  971SOL    HW1 8876   6.797   2.119   7.733  1.3926  1.0665  1.1895
  971SOL    HW2 8877   6.815   2.038   7.860 -0.1289 -0.7743  0.2964
  972SOL     OW 8878  10.166   8.365   1.418  0.0842 -0.5974 -0.8130
  972SOL    HW1 8879  10.181   8.278   1.456 -0.8758 -0.3765  0.1336
  972SOL    HW2 8880  10.078   8.360   1.382 -0.9370  0.6245  1.2945
  973SOL     OW 8881   9.287   0.597  10.016 -0.0694 -0.0060 -0.6518
  973SOL    HW1 8882   9.264   0.676  10.065 -2.9662 -1.4334  0.5411
  973SOL    HW2 8883   9.237   0.604   9.935  0.3925 -0.1949 -0.9534
  974SOL     OW 8884   7.841  10.423   2.540 -0.0360  0.0948  0.4125
  974SOL    HW1 8885   7.833  10.379   2.625  0.2338  0.9522  0.8875
  974SOL    HW2 8886   7.790  10.503   2.549 -1.4751 -0.6195 -0.8317
  975SOL     OW 8887   7.239   8.241   4.327  0.2809  0.3099 -0.0595
  975SOL    HW1 8888   7.321   8.229   4.280  0.2036 -3.3401  0.4400
  975SOL    HW2 8889   7.265   8.273   4.413  1.0722  0.2289 -0.2600
  976SOL     OW 8890   9.843   1.757   7.921  0.2654  0.5706 -0.2373
  976SOL    HW1 8891   9.871   1.672   7.887 -0.7969  1.2944 -3.2129
  976SOL    HW2 8892   9.777   1.736   7.987  1.3528 -0.9103  0.4246
  977SOL     OW 8893   2.321  10.696  11.589  0.0910 -0.4711 -0.1763
  977SOL    HW1 8894   2.311  10.709  11.683 -0.0961 -1.3435 -0.0606
  977SOL    HW2 8895   2.369  10.773  11.558 -0.7108  0.2996  0.4652
  978SOL     OW 8896   4.714  10.895  11.806  0.2181 -0.1968 -0.2734
  978SOL    HW1 8897   4.706  10.826  11.872 -0.2400 -2.4371 -2.5435
  978SOL    HW2 8898   4.657  10.965  11.839  0.9263 -0.6962  2.2492
  979SOL     OW 8899  12.369   1.633  12.069  0.0241  0.0768  0.8997
  979SOL    HW1 8900  12.443   1.599  12.119  0.4116 -1.1289 -0.4104
  979SOL    HW2 8901  12.354   1.567  12.001 -1.7524  0.6869  0.6436
  980SOL     OW 8902   4.492   9.735   7.935  0.4250  0.2234  0.2619
  980SOL    HW1 8903   4.465   9.652   7.897  0.8769 -0.8943  2.2719
  980SOL    HW2 8904   4.423   9.796   7.910 -0.5667 -1.0468 -0.1848
  981SOL     OW 8905   7.207   6.599   8.379 -0.3055  0.0725  0.0656
  981SOL    HW1 8906   7.245   6.670   8.327 -0.3414 -0.1217 -0.2285
  981SOL    HW2 8907   7.145   6.642   8.437  0.8869  0.4901  1.0819
  982SOL     OW 8908   2.568   8.301   6.945 -0.5947 -0.2125 -0.2285
  982SOL    HW1 8909   2.495   8.361   6.927  0.7183  1.5372  0.0338
  982SOL    HW2 8910   2.543   8.257   7.026 -1.8601 -0.4929 -0.7384
  983SOL     OW 8911   2.447   4.052   7.190 -0.6981  0.3371 -0.0868
  983SOL    HW1 8912   2.431   4.136   7.231 -0.5378  0.8224 -0.9963
  983SOL    HW2 8913   2.378   4.044   7.125 -0.6988 -0.2284 -0.0234
  984SOL     OW 8914   2.195  11.703   0.492 -0.2500  0.4134  0.5992
  984SOL    HW1 8915   2.219  11.792   0.519  0.2977  0.4517  0.0383
  984SOL    HW2 8916   2.143  11.668   0.564 -0.9018  1.3702  0.6104
  985SOL     OW 8917   9.355   8.280   0.641 -0.2008 -0.1817  0.4874
  985SOL    HW1 8918   9.428   8.256   0.584 -0.0350 -0.3525  0.7720
  985SOL    HW2 8919   9.316   8.196   0.666 -2.3616 -0.0911 -2.0485
  986SOL     OW 8920   9.942  11.489  11.499 -0.5202  0.2646  0.6091
  986SOL    HW1 8921   9.922  11.443  11.417  1.3030  0.0500  0.2453
  986SOL    HW2 8922   9.993  11.565  11.472 -0.8119  0.7888  1.4829
  987SOL     OW 8923   6.962   2.118   4.412 -0.4619  0.3957  0.1258
  987SOL    HW1 8924   6.887   2.061   4.391 -0.0683  0.0741 -0.4613
  987SOL    HW2 8925   6.948   2.196   4.357 -0.1000  0.1073 -0.3878
  988SOL     OW 8926   6.666   1.729  11.351 -0.3398 -0.4580 -0.2782
  988SOL    HW1 8927   6.706   1.816  11.350  0.5371 -0.8468  0.2432
  988SOL    HW2 8928   6.733   1.672  11.389 -1.7023 -0.9642  1.4929
  989SOL     OW 8929   5.240   1.508   1.581  0.1222 -0.4752 -0.3343
  989SOL    HW1 8930   5.312   1.572   1.581  1.0312 -1.4639 -0.8952
  989SOL    HW2 8931   5.214   1.502   1.490  0.6594 -1.5610 -0.4263
  990SOL     OW 8932   1.129   7.710   9.649 -0.6000 -0.2048  0.1294
  990SOL    HW1 8933   1.214   7.755   9.646 -0.2360 -0.7732  1.3344
  990SOL    HW2 8934   1.086   7.743   9.727 -0.7255 -1.2332  0.5123
  991SOL     OW 8935   5.404   7.295   0.468 -0.2244 -0.1746  0.5951
  991SOL    HW1 8936   5.380   7.202   0.462  1.5846 -0.6243 -0.5190
  991SOL    HW2 8937   5.409   7.325   0.377 -0.8718  1.0701  0.9419
  992SOL     OW 8938   8.509  11.651   9.069  1.3178  0.0391  0.5518
  992SOL    HW1 8939   8.546  11.617   8.988 -0.8466  1.4750 -1.1593
  992SOL    HW2 8940   8.547  11.738   9.079  0.2200  0.6053  0.0207
  993SOL     OW 8941  11.002   3.502   6.965  1.3582  0.3533  0.0328
  993SOL    HW1 8942  10.979   3.453   6.886  1.0726 -2.1840  1.5775
  993SOL    HW2 8943  10.920   3.506   7.015  2.0161 -0.0123  1.1625
  994SOL     OW 8944   7.993   4.651   3.800  0.1935  0.3576 -0.0114
  994SOL    HW1 8945   7.945   4.722   3.756  0.0809 -1.5719 -3.3977
  994SOL    HW2 8946   7.937   4.574   3.789  1.2039 -0.6769  1.7336
  995SOL     OW 8947   4.102   7.902   3.693  0.2718 -0.3944  0.1600
  995SOL    HW1 8948   4.166   7.965   3.729 -1.2549  0.9892  0.5735
  995SOL    HW2 8949   4.038   7.957   3.648  1.0136 -1.9395 -3.0391
  996SOL     OW 8950   3.471   1.661   0.161 -0.0739 -0.4446 -0.5552
  996SOL    HW1 8951   3.405   1.673   0.092 -0.3089  0.7515 -0.1476
  996SOL    HW2 8952   3.449   1.577   0.201 -1.7434  0.1860 -0.0374
  997SOL     OW 8953   8.327  11.355   0.714 -0.1129 -0.3209  0.1282
  997SOL    HW1 8954   8.404  11.301   0.736 -1.0558 -2.0107 -0.5230
  997SOL    HW2 8955   8.296  11.320   0.631 -2.2274 -0.4526  0.9001
  998SOL     OW 8956   9.094   6.529   6.583 -0.4917 -0.0065 -0.1601
  998SOL    HW1 8957   9.055   6.534   6.670  0.1503 -0.4053  0.1606
  998SOL    HW2 8958   9.061   6.606   6.537 -0.9309  0.1427  0.3974
  999SOL     OW 8959   2.743  11.372   8.178 -0.2181 -0.6147 -0.1301
  999SOL    HW1 8960   2.706  11.406   8.096  1.2933  0.8120 -0.2780
  999SOL    HW2 8961   2.824  11.328   8.151  0.3500 -0.0391  0.5832
 1000SOL     OW 8962   3.578   3.903  12.425  0.0291  0.5095  0.7880
 1000SOL    HW1 8963   3.596   3.809  12.420  0.3560  0.5058  1.7366
 1000SOL    HW2 8964   3.579   3.933  12.335  0.7183 -0.2506  0.5318
 1001SOL     OW 8965   1.548   7.109   7.257  0.1001  0.0939 -0.0461
 1001SOL    HW1 8966   1.526   7.176   7.322  0.8970  0.1362  0.1897
 1001SOL    HW2 8967   1.476   7.046   7.261 -0.9174  1.1739 -0.6111
 1002SOL     OW 8968  11.297   9.150  11.127 -0.0487  0.5940  0.3472
 1002SOL    HW1 8969  11.248   9.099  11.192  0.9319 -2.0427 -0.8384
 1002SOL    HW2 8970  11.230   9.185  11.069 -0.8260  1.6805  1.8127
 1003SOL     OW 8971   4.636  11.529   0.824 -0.0084  0.0383  0.0154
 1003SOL    HW1 8972   4.707  11.479   0.784 -1.7159 -1.3747 -1.4253
 1003SOL    HW2 8973   4.568  11.464   0.841 -0.5599  1.1394  2.4622
 1004SOL     OW 8974   0.788   3.615   9.618 -0.2852  0.4586 -0.2508
 1004SOL    HW1 8975   0.864   3.600   9.563 -0.1925 -0.4856  0.1129
 1004SOL    HW2 8976   0.721   3.648   9.558 -0.8738 -2.5367 -1.4163
 1005SOL     OW 8977  11.903   7.868   6.874 -0.0731 -0.1532 -0.0367
 1005SOL    HW1 8978  11.957   7.854   6.951  0.0608 -3.0172 -0.5154
 1005SOL    HW2 8979  11.906   7.962   6.858  3.7994  0.0081  0.6666
 1006SOL     OW 8980   8.110   1.831  11.123  0.7634  0.4379 -0.0104
 1006SOL    HW1 8981   8.096   1.849  11.216  2.7105  2.0521  0.0336
 1006SOL    HW2 8982   8.136   1.739  11.120 -1.5867 -0.3258  0.7204
 1007SOL     OW 8983   1.029   6.133   1.969  0.3229  0.0782 -0.1849
 1007SOL    HW1 8984   1.099   6.087   2.014 -2.1048 -1.8492  1.9894
 1007SOL    HW2 8985   1.013   6.211   2.022 -0.6665 -0.7223  0.7425
 1008SOL     OW 8986  12.210   4.604   8.171  0.5848 -0.4114 -0.1896
 1008SOL    HW1 8987  12.224   4.694   8.201  1.8424 -0.2182 -1.2242
 1008SOL    HW2 8988  12.123   4.605   8.131 -0.3496 -0.2341  1.7218
 1009SOL     OW 8989   1.912   0.201   5.079  0.2750  0.2872 -0.2978
 1009SOL    HW1 8990   1.855   0.128   5.103  0.3764  0.4101  0.3477
 1009SOL    HW2 8991   1.853   0.272   5.058  0.1871  0.2946 -0.0233
 1010SOL     OW 8992   2.468   6.284  11.091  0.2793  0.4134  0.0386
 1010SOL    HW1 8993   2.431   6.325  11.013 -1.2793  0.6522  0.8716
 1010SOL    HW2 8994   2.459   6.349  11.160  2.1556  0.4206  0.3532
 1011SOL     OW 8995   6.318  11.091   9.538  0.1073 -0.9191  0.0233
 1011SOL    HW1 8996   6.394  11.133   9.578 -0.9744 -2.2601  3.9637
 1011SOL    HW2 8997   6.245  11.147   9.562 -0.5882 -1.6900 -0.2653
 1012SOL     OW 8998   8.864  10.133   2.113 -0.3790 -0.0695  0.2354
 1012SOL    HW1 8999   8.923  10.080   2.059  0.2743 -0.2178  1.0728
 1012SOL    HW2 9000   8.893  10.116   2.203 -2.1403 -0.6722  0.7133
 1013SOL     OW 9001   2.107  11.306   5.739  0.3561 -0.2858 -0.5101
 1013SOL    HW1 9002   2.094  11.283   5.647  0.8911  2.0167 -1.2447
 1013SOL    HW2 9003   2.018  11.313   5.775  0.1004 -0.2790 -1.1309
 1014SOL     OW 9004   1.931   1.776   3.878 -0.5314  0.3512  0.2839
 1014SOL    HW1 9005   1.868   1.791   3.948 -1.0775 -0.8876  0.0715
 1014SOL    HW2 9006   1.890   1.711   3.821  0.7783 -0.2103 -0.0653
 1015SOL     OW 9007   3.816   6.466   9.126 -0.4408  0.0877 -0.3271
 1015SOL    HW1 9008   3.879   6.519   9.077 -1.4057  1.2860 -0.3260
 1015SOL    HW2 9009   3.870   6.408   9.180  0.7094  2.1612  0.8637
 1016SOL     OW 9010  10.601  10.086   6.352 -0.2225 -0.0857  0.0581
 1016SOL    HW1 9011  10.559  10.153   6.297 -0.1036 -0.8108 -0.9493
 1016SOL    HW2 9012  10.689  10.077   6.314  0.6225  0.8829  1.6826
 1017SOL     OW 9013  11.471   3.341   5.483 -0.6113 -0.0326  0.3344
 1017SOL    HW1 9014  11.440   3.324   5.572  0.2459 -0.1318  0.6290
 1017SOL    HW2 9015  11.449   3.261   5.435 -2.2471  0.5204  0.1071
 1018SOL     OW 9016   7.783   3.599   9.384  0.2164  0.3021 -0.1630
 1018SOL    HW1 9017   7.831   3.578   9.464  1.6106 -2.2056 -1.5193
 1018SOL    HW2 9018   7.697   3.628   9.415  0.1585 -1.9962  2.2723
 1019SOL     OW 9019  12.029   4.346   3.702  0.2832 -0.5376  0.0768
 1019SOL    HW1 9020  11.942   4.307   3.691 -1.3732  2.2747  1.8932
 1019SOL    HW2 9021  12.032   4.370   3.795  1.8564  1.8783 -0.5159
 1020SOL     OW 9022  10.179  10.138  12.182  0.4505  0.1623 -0.1695
 1020SOL    HW1 9023  10.124  10.068  12.149  0.7890  0.3487 -1.1388
 1020SOL    HW2 9024  10.124  10.185  12.245  1.3087 -3.1723  3.4803
 1021SOL     OW 9025   8.524   1.492  10.463  0.7478  0.0744  0.2685
 1021SOL    HW1 9026   8.536   1.397  10.476  1.3267 -0.0718 -1.1708
 1021SOL    HW2 9027   8.610   1.524  10.437  0.2274  0.7371 -0.6852
 1022SOL     OW 9028  10.457   8.832   0.482  0.3873  0.7363 -0.0637
 1022SOL    HW1 9029  10.485   8.923   0.490  1.5409  0.5524 -1.4627
 1022SOL    HW2 9030  10.476   8.793   0.568  1.2626  1.4715  0.0905
 1023SOL     OW 9031   4.447   5.492   2.291  0.1322  0.3218  0.1806
 1023SOL    HW1 9032   4.516   5.438   2.252 -0.6550  0.9352 -2.2631
 1023SOL    HW2 9033   4.379   5.429   2.316  0.3380 -0.0435 -0.1681
 1024SOL     OW 9034   1.644   2.209   2.904  1.1209  0.2287 -0.0432
 1024SOL    HW1 9035   1.685   2.218   2.990 -0.6529  0.9705  0.7714
 1024SOL    HW2 9036   1.646   2.297   2.866  1.4517  0.0036 -0.5656
 1025SOL     OW 9037   4.375   5.747   3.800 -0.6108  0.5765 -0.1474
 1025SOL    HW1 9038   4.320   5.762   3.877  1.1567 -0.9915  1.5197
 1025SOL    HW2 9039   4.320   5.694   3.742 -1.6465  0.9776  0.4251
 1026SOL     OW 9040   9.606   4.972   2.474 -0.0109 -0.3206 -0.2775
 1026SOL    HW1 9041   9.538   5.039   2.486  0.2918  0.0358 -0.5226
 1026SOL    HW2 9042   9.608   4.925   2.558 -0.4019 -0.1860 -0.1914
 1027SOL     OW 9043  10.016   0.792   5.882 -0.7582  0.3159 -0.1111
 1027SOL    HW1 9044   9.957   0.867   5.881 -1.2164 -0.0340  0.2992
 1027SOL    HW2 9045   9.961   0.718   5.907  0.3594  0.4367  3.2928
 1028SOL     OW 9046   4.611  11.263   2.804 -0.2286  0.1009  0.4957
 1028SOL    HW1 9047   4.639  11.214   2.882  0.5043 -2.4492 -1.2328
 1028SOL    HW2 9048   4.687  11.316   2.781  0.5983 -1.2267  0.0217
 1029SOL     OW 9049  11.184   1.779   7.799  0.0947  0.2496  0.4274
 1029SOL    HW1 9050  11.151   1.696   7.834  0.9603  0.5675  2.1399
 1029SOL    HW2 9051  11.146   1.786   7.712  0.4375 -2.2106  0.0091
 1030SOL     OW 9052   6.066   3.859   7.101  0.4239 -0.0583 -0.3683
 1030SOL    HW1 9053   6.095   3.940   7.059  1.5863 -0.1229  0.2437
 1030SOL    HW2 9054   6.073   3.877   7.195 -2.5081  0.2316 -0.1057
 1031SOL     OW 9055   9.657  11.495   3.871  0.1101  0.3238  0.4264
 1031SOL    HW1 9056   9.745  11.462   3.891 -0.9794 -1.9714  1.7872
 1031SOL    HW2 9057   9.628  11.536   3.953 -0.7160 -0.4633  0.5386
 1032SOL     OW 9058   9.375  12.009   3.916  0.1879 -0.1843 -0.1510
 1032SOL    HW1 9059   9.389  12.053   4.000  1.1239  0.4337 -0.6155
 1032SOL    HW2 9060   9.420  12.063   3.852 -0.6553 -0.5592 -1.0956
 1033SOL     OW 9061   1.163   6.480   6.398 -0.4589  0.0144  0.4472
 1033SOL    HW1 9062   1.250   6.466   6.434 -0.5908  1.3892  1.3736
 1033SOL    HW2 9063   1.104   6.468   6.472 -0.8979  0.8800  0.2534
 1034SOL     OW 9064   2.985   6.849   4.674 -0.4675  0.0253  0.1628
 1034SOL    HW1 9065   2.897   6.819   4.693 -0.5159  1.0706  1.6914
 1034SOL    HW2 9066   2.974   6.938   4.639 -0.0837 -0.2908 -0.8116
 1035SOL     OW 9067   0.181  10.820   8.960  0.5868  0.0081  0.2455
 1035SOL    HW1 9068   0.133  10.738   8.945  0.4861  0.1411 -0.1520
 1035SOL    HW2 9069   0.116  10.888   8.949  0.2768  0.0837  2.1922
 1036SOL     OW 9070   8.046  12.163   7.411 -0.2444 -0.3375  0.0166
 1036SOL    HW1 9071   8.052  12.075   7.449  1.0198 -0.2119  0.1332
 1036SOL    HW2 9072   8.115  12.167   7.346 -0.6969  0.3692 -0.4395
 1037SOL     OW 9073   3.139   4.172   3.330 -0.1827  0.3317  0.0046
 1037SOL    HW1 9074   3.068   4.230   3.357 -0.7623  0.5913 -1.9264
 1037SOL    HW2 9075   3.142   4.105   3.397 -1.4415  1.0003  0.7644
 1038SOL     OW 9076   0.785   2.370   5.418 -0.3962  0.1068 -0.0884
 1038SOL    HW1 9077   0.695   2.387   5.445 -0.9770 -0.2263 -1.6771
 1038SOL    HW2 9078   0.794   2.419   5.335  0.3717 -1.0776 -0.7262
 1039SOL     OW 9079   0.734   7.446   3.660 -0.0720 -0.1634  0.0048
 1039SOL    HW1 9080   0.749   7.389   3.735 -2.0461 -2.2492 -1.0196
 1039SOL    HW2 9081   0.766   7.395   3.585 -0.8941  0.5284 -0.8481
 1040SOL     OW 9082  10.159   8.708   8.174  0.1200  0.4082  0.0569
 1040SOL    HW1 9083  10.130   8.694   8.265  0.6824  0.4213  0.2414
 1040SOL    HW2 9084  10.237   8.653   8.165  0.7231  1.2709 -0.0663
 1041SOL     OW 9085   2.509   1.227   8.195 -0.6059  0.1022  0.0573
 1041SOL    HW1 9086   2.506   1.270   8.110 -2.0166  2.6096  1.2678
 1041SOL    HW2 9087   2.420   1.198   8.211 -0.3730 -0.2557  0.7476
 1042SOL     OW 9088   3.103   7.153  10.110 -0.4542  0.1026  0.2136
 1042SOL    HW1 9089   3.049   7.128  10.036  0.5204  0.9165 -0.8143
 1042SOL    HW2 9090   3.106   7.249  10.106  2.0831  0.0638 -0.5799
 1043SOL     OW 9091   6.763   2.581   3.410  0.3643 -0.6035  0.3681
 1043SOL    HW1 9092   6.805   2.507   3.455  0.6232 -1.2696 -0.9255
 1043SOL    HW2 9093   6.675   2.585   3.449  1.1289 -0.0448  2.1505
 1044SOL     OW 9094   1.711   3.450   3.569  0.1532 -0.4392 -0.1265
 1044SOL    HW1 9095   1.673   3.535   3.546  2.4165  0.2577 -1.6740
 1044SOL    HW2 9096   1.728   3.409   3.484  1.9149 -1.0856  0.5084
 1045SOL     OW 9097   1.866   1.501  12.046 -0.0943 -0.5580 -0.1550
 1045SOL    HW1 9098   1.958   1.503  12.073 -0.1569  0.2874 -0.0049
 1045SOL    HW2 9099   1.819   1.471  12.123 -0.1954  1.2079  0.5126
 1046SOL     OW 9100   2.597   8.986   0.077  0.0404  0.4800 -0.2380
 1046SOL    HW1 9101   2.669   9.037   0.115 -0.7176  1.3256  0.1097
 1046SOL    HW2 9102   2.545   9.050   0.030 -1.0692  0.0819  0.4109
 1047SOL     OW 9103  11.620   3.376   5.760 -0.1356  0.4617 -0.2264
 1047SOL    HW1 9104  11.572   3.454   5.734 -0.2734  1.8032  3.4333
 1047SOL    HW2 9105  11.588   3.356   5.848  1.3396 -2.5678 -0.2422
 1048SOL     OW 9106   7.100  11.751   5.021 -0.1834  0.1404 -0.5019
 1048SOL    HW1 9107   7.132  11.723   4.936  1.0425 -0.4362  0.1211
 1048SOL    HW2 9108   7.165  11.718   5.083 -1.8341 -0.7711  0.8076
 1049SOL     OW 9109   3.113  10.882   9.922 -0.0244  0.0309  0.0396
 1049SOL    HW1 9110   3.200  10.921   9.920 -0.2627  0.5306 -0.4488
 1049SOL    HW2 9111   3.071  10.911   9.842 -0.6953 -0.0938  0.3387
 1050SOL     OW 9112  11.617   1.089  11.191  0.0394 -0.1092  0.1991
 1050SOL    HW1 9113  11.656   1.111  11.107  0.1135  0.1976  0.3107
 1050SOL    HW2 9114  11.614   1.173  11.238 -0.6433 -0.1477  0.2340
 1051SOL     OW 9115   1.090   7.741   3.137 -0.3706 -0.2552  0.4750
 1051SOL    HW1 9116   1.007   7.726   3.183 -0.6791  2.3004  0.9006
 1051SOL    HW2 9117   1.153   7.761   3.206 -0.7717  3.3360  0.0080
 1052SOL     OW 9118   0.045   3.292   8.316 -0.6821 -0.0588  0.1504
 1052SOL    HW1 9119   0.109   3.363   8.313 -2.5897  1.7521 -0.2599
 1052SOL    HW2 9120   0.049   3.260   8.406 -0.0549  0.8389  0.4563
 1053SOL     OW 9121   3.509  10.608   7.255  0.0493  0.5803 -0.5559
 1053SOL    HW1 9122   3.476  10.636   7.341  1.3319  2.9119 -0.7290
 1053SOL    HW2 9123   3.595  10.570   7.273  0.1911  0.7979 -0.7658
 1054SOL     OW 9124  10.318   2.031   2.277  0.1398  0.0614 -0.0089
 1054SOL    HW1 9125  10.228   2.003   2.266  0.5533 -1.0292 -0.8040
 1054SOL    HW2 9126  10.312   2.115   2.323 -1.1695 -0.9439  1.7366
 1055SOL     OW 9127   9.639  11.645   3.188  0.1444  0.3084 -0.1616
 1055SOL    HW1 9128   9.611  11.720   3.136 -2.2295 -1.6292 -1.8925
 1055SOL    HW2 9129   9.644  11.679   3.277  1.6572  3.0697 -1.1508
 1056SOL     OW 9130   6.274   3.565   4.260 -0.0339 -0.2469 -0.0375
 1056SOL    HW1 9131   6.210   3.635   4.270  0.9537  0.5559  0.8525
 1056SOL    HW2 9132   6.254   3.503   4.331  0.1989  0.0338  0.2767
 1057SOL     OW 9133   3.216   3.948  10.561  0.0073 -0.4462  0.1650
 1057SOL    HW1 9134   3.179   4.020  10.510  0.2946  0.2476  0.9236
 1057SOL    HW2 9135   3.307   3.941  10.531  0.6877  1.0896  1.7529
 1058SOL     OW 9136   4.892   0.631   2.054  0.5887 -0.3660 -0.1486
 1058SOL    HW1 9137   4.967   0.615   2.112 -0.4815  0.2513  1.4729
 1058SOL    HW2 9138   4.816   0.600   2.104 -0.2361 -1.2943 -1.8867
 1059SOL     OW 9139  11.802   8.823   4.336  0.9634  0.1298 -0.0204
 1059SOL    HW1 9140  11.841   8.793   4.418 -0.2994 -0.3060  0.4539
 1059SOL    HW2 9141  11.736   8.756   4.315  1.1955  0.2834 -1.3467
 1060SOL     OW 9142   9.168   4.599   6.630 -0.0656 -0.4892  0.3722
 1060SOL    HW1 9143   9.238   4.588   6.566 -0.7581  0.5757 -0.6329
 1060SOL    HW2 9144   9.113   4.668   6.592 -0.5972  0.0454  2.0575
 1061SOL     OW 9145   7.081   5.349  10.610  0.9320  0.1336 -0.3798
 1061SOL    HW1 9146   7.070   5.432  10.563  1.5013  0.4483  0.0173
 1061SOL    HW2 9147   7.042   5.366  10.696 -0.4897 -0.5738 -0.8520
 1062SOL     OW 9148   5.987   5.406  10.435 -0.0044  0.0162 -0.2360
 1062SOL    HW1 9149   6.062   5.436  10.384  0.1942  0.3643  0.2601
 1062SOL    HW2 9150   6.000   5.442  10.522 -0.0191 -1.0969  0.2507
 1063SOL     OW 9151   3.982   6.784   0.888  0.1816  0.0066 -0.1272
 1063SOL    HW1 9152   3.903   6.788   0.834  0.8265 -0.9338 -1.1697
 1063SOL    HW2 9153   3.994   6.874   0.919 -1.1319  0.2152 -0.1718
 1064SOL     OW 9154  12.312   3.317  10.304 -0.1677 -0.2811 -0.2643
 1064SOL    HW1 9155  12.272   3.252  10.361 -2.5244 -0.4393 -1.9524
 1064SOL    HW2 9156  12.245   3.336  10.238  1.9936  0.6641 -2.3551
 1065SOL     OW 9157  10.725   8.117   5.851 -0.1591  0.3612  0.1017
 1065SOL    HW1 9158  10.751   8.073   5.770  2.6194  1.4621  0.2700
 1065SOL    HW2 9159  10.641   8.078   5.874  0.9430 -3.0300 -1.0585
 1066SOL     OW 9160   2.634  12.355   6.345 -0.1551 -0.3209 -0.2370
 1066SOL    HW1 9161   2.577  12.334   6.419  0.6494  0.3792  0.6110
 1066SOL    HW2 9162   2.657  12.447   6.358  1.2767 -0.6212 -0.4780
 1067SOL     OW 9163  10.229   5.365   5.428 -0.2114  0.1436  0.7655
 1067SOL    HW1 9164  10.296   5.418   5.471  4.4812 -1.3776 -3.6565
 1067SOL    HW2 9165  10.166   5.428   5.394  1.4412  2.1863  1.3226
 1068SOL     OW 9166   6.106   3.407  10.318  0.1011  0.1429 -0.2602
 1068SOL    HW1 9167   6.027   3.364  10.288  1.2424 -0.0092 -3.4138
 1068SOL    HW2 9168   6.079   3.496  10.340 -1.3716 -0.6788  1.5065
 1069SOL     OW 9169  12.253   6.649   3.468 -0.0652 -0.2513  0.0704
 1069SOL    HW1 9170  12.307   6.676   3.393 -0.6661 -0.1162 -0.3196
 1069SOL    HW2 9171  12.170   6.695   3.455 -0.4278 -0.8053  0.4303
 1070SOL     OW 9172   0.751  11.987   2.899  0.2066 -0.5648 -0.0425
 1070SOL    HW1 9173   0.798  12.066   2.924  1.8503 -0.5492 -2.7885
 1070SOL    HW2 9174   0.811  11.916   2.918  0.0357 -0.8519 -0.5584
 1071SOL     OW 9175   5.691   2.116   1.768 -0.0082  0.1143  0.4537
 1071SOL    HW1 9176   5.635   2.160   1.704  0.6659 -0.9981 -0.9345
 1071SOL    HW2 9177   5.651   2.138   1.853 -0.9144  1.6216 -0.3136
 1072SOL     OW 9178   2.617   3.000   8.835 -0.4359 -0.0472 -0.4096
 1072SOL    HW1 9179   2.706   3.035   8.846 -1.1215  1.5133  0.5700
 1072SOL    HW2 9180   2.608   2.986   8.741  0.4923  0.8288 -0.6538
 1073SOL     OW 9181  10.415   2.834   7.295 -0.1293  0.7708  0.2589
 1073SOL    HW1 9182  10.459   2.800   7.216 -1.9087 -0.4552 -0.2620
 1073SOL    HW2 9183  10.455   2.786   7.367  0.3830  0.7191 -0.0527
 1074SOL     OW 9184   1.843   2.451  11.399 -0.1563  0.1279  0.4718
 1074SOL    HW1 9185   1.803   2.389  11.339 -1.1415 -0.8128  2.0437
 1074SOL    HW2 9186   1.789   2.529  11.393 -1.3822 -0.6127  1.4738
 1075SOL     OW 9187   6.313   4.125   3.936 -0.2774  0.2411  0.2539
 1075SOL    HW1 9188   6.282   4.039   3.907 -2.5849  0.0836  2.7869
 1075SOL    HW2 9189   6.259   4.187   3.887  0.4955  0.2516 -0.6189
 1076SOL     OW 9190  11.944  11.932   2.654  0.6005 -0.5196  0.5284
 1076SOL    HW1 9191  11.979  12.021   2.653 -0.5921  0.0483  2.5566
 1076SOL    HW2 9192  11.941  11.909   2.747 -0.5284 -2.0992  0.1374
 1077SOL     OW 9193  10.590  12.223   4.621 -0.1531 -0.3903  0.1020
 1077SOL    HW1 9194  10.662  12.233   4.559 -1.8518  0.4581 -1.9080
 1077SOL    HW2 9195  10.566  12.130   4.615 -1.9356  0.1093 -2.6836
 1078SOL     OW 9196   0.688   9.915   8.252 -0.5923  0.3018  0.2535
 1078SOL    HW1 9197   0.765   9.966   8.276  1.0942 -0.9713 -2.0259
 1078SOL    HW2 9198   0.712   9.825   8.272 -1.1633 -0.1957 -1.1325
 1079SOL     OW 9199   9.124   1.823   2.798  0.0530  0.1977  0.2059
 1079SOL    HW1 9200   9.160   1.740   2.768 -0.9193 -0.4347  0.7405
 1079SOL    HW2 9201   9.046   1.836   2.745  0.5572  1.1130 -0.3351
 1080SOL     OW 9202   7.459   2.346   2.053  0.0229  0.5552 -0.3820
 1080SOL    HW1 9203   7.491   2.375   1.967  0.8249  1.0233  0.0637
 1080SOL    HW2 9204   7.538   2.325   2.102 -0.3483  1.7116  0.7408
 1081SOL     OW 9205   4.745   4.151   1.685  0.2722 -0.5386  0.1989
 1081SOL    HW1 9206   4.763   4.058   1.698 -0.7549 -1.0606 -1.6837
 1081SOL    HW2 9207   4.674   4.153   1.621 -0.1619  1.5459  0.6499
 1082SOL     OW 9208   9.631   5.940   1.564 -0.0364 -0.0759  0.4946
 1082SOL    HW1 9209   9.593   5.860   1.600  1.7991 -1.3415 -0.2448
 1082SOL    HW2 9210   9.598   5.943   1.474  1.6995 -1.2928 -0.2172
 1083SOL     OW 9211   7.485   4.696  11.101  0.0073  0.0094  0.0382
 1083SOL    HW1 9212   7.481   4.605  11.072 -0.9225  0.2515 -0.6412
 1083SOL    HW2 9213   7.443   4.745  11.031  1.4330  1.1036 -0.0931
 1084SOL     OW 9214   1.768   2.842   0.275 -0.1684 -0.0955  0.2523
 1084SOL    HW1 9215   1.795   2.840   0.367 -0.5315 -0.1585  0.3568
 1084SOL    HW2 9216   1.677   2.813   0.276 -0.2052  0.0080 -0.1154
 1085SOL     OW 9217   8.603   7.624   6.193  0.7756 -0.3814  0.4268
 1085SOL    HW1 9218   8.532   7.601   6.253  0.2837  0.6812  0.2830
 1085SOL    HW2 9219   8.674   7.654   6.249  1.0949 -1.3574  0.5671
 1086SOL     OW 9220  11.363  11.500   3.219  0.9228  0.3835  0.1528
 1086SOL    HW1 9221  11.354  11.436   3.149  2.0395  0.1125  0.2387
 1086SOL    HW2 9222  11.321  11.579   3.185 -0.0069 -0.2247 -0.1578
 1087SOL     OW 9223   9.034   5.999   0.051  0.2068 -0.3645 -0.4860
 1087SOL    HW1 9224   8.991   6.062   0.109  0.8426 -1.4864  1.2923
 1087SOL    HW2 9225   9.117   5.979   0.095  1.9549  0.6091 -3.0558
 1088SOL     OW 9226   8.768   6.531   5.330 -0.4973 -0.2979 -0.1553
 1088SOL    HW1 9227   8.808   6.614   5.304  0.8140 -0.7208  0.4490
 1088SOL    HW2 9228   8.730   6.497   5.249 -2.2988  1.5235 -0.1519
 1089SOL     OW 9229   1.547  12.048   8.344 -0.6134  0.1596 -0.4159
 1089SOL    HW1 9230   1.621  12.108   8.340 -0.7162  0.3198  0.0811
 1089SOL    HW2 9231   1.493  12.071   8.268 -0.5809  0.5994 -0.3083
 1090SOL     OW 9232   2.479   5.812   1.366 -0.1757  0.2927  0.4153
 1090SOL    HW1 9233   2.540   5.740   1.376  1.2755  1.7100  2.5758
 1090SOL    HW2 9234   2.524   5.874   1.308 -1.1269 -0.1593 -0.8725
 1091SOL     OW 9235   3.798   9.544   9.964  0.2631  0.1556 -0.1663
 1091SOL    HW1 9236   3.747   9.618   9.931 -0.4604  0.1763  0.9596
 1091SOL    HW2 9237   3.884   9.581   9.985 -0.1054  0.6951  0.4248
 1092SOL     OW 9238   8.384   6.178   6.449  0.2594  0.3912  0.0873
 1092SOL    HW1 9239   8.346   6.204   6.533  0.4954  2.3905 -0.3743
 1092SOL    HW2 9240   8.356   6.245   6.388  1.5829 -0.0381 -1.0499
 1093SOL     OW 9241   6.967  10.160  11.117 -0.7929 -0.4968  0.4387
 1093SOL    HW1 9242   6.880  10.141  11.082 -0.4002 -2.5183  0.4463
 1093SOL    HW2 9243   6.971  10.114  11.200  0.3513 -0.6300  0.3319
 1094SOL     OW 9244  10.256   2.603   3.617 -0.1389 -0.1772 -0.2901
 1094SOL    HW1 9245  10.197   2.618   3.543  0.7021 -0.7283 -1.1015
 1094SOL    HW2 9246  10.287   2.513   3.605  1.5839  0.3941 -0.4569
 1095SOL     OW 9247   0.268  11.090  10.535  0.3200  0.0343  0.5513
 1095SOL    HW1 9248   0.210  11.109  10.608  2.7134  1.6137  2.1893
 1095SOL    HW2 9249   0.234  11.144  10.463 -2.1868 -1.7049  0.3169
 1096SOL     OW 9250   0.759   0.741   8.073  0.3162 -0.2202 -0.2107
 1096SOL    HW1 9251   0.757   0.686   7.995 -1.0373  0.0424 -0.3889
 1096SOL    HW2 9252   0.849   0.775   8.076  0.9131 -1.7048 -0.5896
 1097SOL     OW 9253   5.076   9.236   4.022  0.4849  0.0573 -0.1236
 1097SOL    HW1 9254   5.017   9.206   3.953 -1.6515  0.5544  1.3881
 1097SOL    HW2 9255   5.151   9.176   4.017  0.0052 -0.4473 -2.2816
 1098SOL     OW 9256   2.616   4.361  11.619  0.0439  0.2295 -0.4689
 1098SOL    HW1 9257   2.687   4.372  11.555 -0.4686 -0.0707 -1.0988
 1098SOL    HW2 9258   2.537   4.358  11.567 -0.5145  1.2696  0.2858
 1099SOL     OW 9259   1.294   2.323   1.043  0.2477 -0.6432  0.4300
 1099SOL    HW1 9260   1.217   2.292   0.996  0.7004 -0.8720 -0.1730
 1099SOL    HW2 9261   1.368   2.290   0.992  0.7448 -0.6237  1.1280
 1100SOL     OW 9262  12.493   3.205  11.486 -0.0732 -0.1789 -0.1529
 1100SOL    HW1 9263  12.436   3.249  11.423  0.2169 -0.1195 -0.3774
 1100SOL    HW2 9264  12.574   3.256  11.483 -0.5393  0.6949  1.3181
 1101SOL     OW 9265   0.875  11.100   2.114 -0.3657  0.4201 -0.3222
 1101SOL    HW1 9266   0.786  11.135   2.120 -0.5006  0.8778 -3.3840
 1101SOL    HW2 9267   0.862  11.005   2.102 -0.5080  0.5361 -1.1880
 1102SOL     OW 9268   8.242  11.036   3.937 -0.1094  0.0661  0.3173
 1102SOL    HW1 9269   8.266  11.127   3.921  0.6835 -0.1289  0.3164
 1102SOL    HW2 9270   8.291  10.987   3.871  1.6835 -0.5767  2.0094
 1103SOL     OW 9271  11.662   5.983   1.324  0.3755 -0.4538 -0.0440
 1103SOL    HW1 9272  11.692   5.892   1.321 -1.7571 -1.1990 -0.4270
 1103SOL    HW2 9273  11.683   6.019   1.238  1.2198 -0.5714  0.1077
 1104SOL     OW 9274   8.338   6.443   9.006 -0.0675  0.4204 -0.0448
 1104SOL    HW1 9275   8.259   6.435   8.953 -1.2988  2.2315  1.3948
 1104SOL    HW2 9276   8.339   6.363   9.059 -0.5481  0.0671 -0.5517
 1105SOL     OW 9277   1.138   0.425   4.944  0.1686  0.8314  0.0635
 1105SOL    HW1 9278   1.146   0.334   4.971  1.0229 -0.0069 -2.7250
 1105SOL    HW2 9279   1.157   0.475   5.024 -0.6973 -1.3825  1.7457
 1106SOL     OW 9280   7.262   7.070   4.781  0.6897  0.1359  0.2033
 1106SOL    HW1 9281   7.290   7.151   4.739  1.4873  0.2418  0.8840
 1106SOL    HW2 9282   7.339   7.043   4.833  0.4243 -1.0268  0.0233
 1107SOL     OW 9283   8.404   5.147   2.304  0.5997 -0.2745 -0.7375
 1107SOL    HW1 9284   8.466   5.101   2.247  0.1939  1.0015 -2.3029
 1107SOL    HW2 9285   8.414   5.239   2.279 -0.4853  0.1842  0.4298
 1108SOL     OW 9286  11.082   8.999   6.883  0.2091 -0.0483  0.5065
 1108SOL    HW1 9287  10.987   9.010   6.877  0.3082  0.6826  0.1370
 1108SOL    HW2 9288  11.096   8.904   6.881 -0.4842 -0.1475  0.1285
 1109SOL     OW 9289   8.541   2.431   9.964  0.6100  0.3834 -0.6773
 1109SOL    HW1 9290   8.530   2.526   9.951  2.0559  0.4868 -1.3157
 1109SOL    HW2 9291   8.577   2.423  10.052  0.6627  0.4298 -0.6948
 1110SOL     OW 9292   2.194   6.132   7.858  0.3864 -0.1890  0.7315
 1110SOL    HW1 9293   2.213   6.039   7.868  1.3964  0.0598  1.2471
 1110SOL    HW2 9294   2.113   6.145   7.908  0.3331 -0.7530  0.7969
 1111SOL     OW 9295   3.567  10.985   9.156 -0.0302  0.2666  0.3243
 1111SOL    HW1 9296   3.658  11.007   9.137 -0.5370  1.8036 -0.4545
 1111SOL    HW2 9297   3.529  11.065   9.192 -1.4508  0.1145 -0.7550
 1112SOL     OW 9298   5.667   0.520   9.949 -0.1864  0.1353  0.2965
 1112SOL    HW1 9299   5.677   0.434   9.907 -1.2334  0.4468 -0.6369
 1112SOL    HW2 9300   5.751   0.563   9.935 -0.5440  0.3014 -1.7322
 1113SOL     OW 9301   4.439   5.855   6.785  0.1695 -0.3179 -0.0595
 1113SOL    HW1 9302   4.430   5.799   6.862  0.4459  2.4614  2.1442
 1113SOL    HW2 9303   4.507   5.813   6.732  0.5878 -1.8627  1.6224
 1114SOL     OW 9304  10.171   9.841  12.095  0.3043 -0.1779  0.3156
 1114SOL    HW1 9305  10.135   9.892  12.022 -1.2941  0.0416  1.1979
 1114SOL    HW2 9306  10.153   9.750  12.071 -0.6422 -0.0849  0.6133
 1115SOL     OW 9307   8.885   7.877   6.481 -0.0039  0.3809 -0.2297
 1115SOL    HW1 9308   8.927   7.953   6.442  0.3268  0.1651 -0.3024
 1115SOL    HW2 9309   8.808   7.912   6.526  0.4556  0.8358  0.2166
 1116SOL     OW 9310   6.832   6.171   7.772 -0.1686  0.0186  0.0524
 1116SOL    HW1 9311   6.759   6.231   7.785  0.3219  0.7688 -0.5451
 1116SOL    HW2 9312   6.901   6.203   7.829 -0.6954 -1.4506  1.6083
 1117SOL     OW 9313   4.677   5.289   1.868 -0.6411 -0.2828  0.4526
 1117SOL    HW1 9314   4.628   5.370   1.878 -0.7207 -0.3382  0.5171
 1117SOL    HW2 9315   4.658   5.259   1.779  0.1833  0.2915  0.0759
 1118SOL     OW 9316   0.043   9.324   5.109  0.6264  0.1535  0.2980
 1118SOL    HW1 9317  -0.029   9.376   5.073  0.7936 -0.0782 -0.3732
 1118SOL    HW2 9318  -0.000   9.254   5.158  0.3838 -0.3852 -0.6733
 1119SOL     OW 9319   5.928   8.941  10.829 -0.1640  0.2585  0.6407
 1119SOL    HW1 9320   5.973   9.003  10.773  2.2466 -2.4806 -0.7383
 1119SOL    HW2 9321   5.995   8.911  10.891 -1.2035 -0.9940  1.2143
 1120SOL     OW 9322  10.335  10.559   2.203 -0.7586 -0.0155  0.6111
 1120SOL    HW1 9323  10.347  10.491   2.268  2.3760 -0.3991 -0.1989
 1120SOL    HW2 9324  10.253  10.537   2.159 -0.3868 -2.6503  1.0932
 1121SOL     OW 9325  11.242  10.735  12.128 -0.2371  0.0017  0.2085
 1121SOL    HW1 9326  11.229  10.829  12.139 -0.7179 -0.2682  2.2981
 1121SOL    HW2 9327  11.296  10.728  12.049 -0.1268  2.0267  0.0442
 1122SOL     OW 9328  11.804   1.804   9.815 -0.7575  0.0909  0.3462
 1122SOL    HW1 9329  11.800   1.778   9.723  1.3608 -0.9699  0.5004
 1122SOL    HW2 9330  11.748   1.741   9.860  0.3460 -1.1001  0.0878
 1123SOL     OW 9331   7.325   3.218   3.026  0.2664  0.7449 -0.5820
 1123SOL    HW1 9332   7.370   3.144   3.067  0.5973  1.1191 -0.2535
 1123SOL    HW2 9333   7.392   3.262   2.975 -0.2233  0.0805 -1.8538
 1124SOL     OW 9334   3.686   4.402   4.837  0.1811 -0.1258 -0.0394
 1124SOL    HW1 9335   3.592   4.418   4.844  0.5004  1.6851  0.4223
 1124SOL    HW2 9336   3.722   4.433   4.920  1.4839  1.6414 -1.2136
 1125SOL     OW 9337   3.988  11.896   5.401 -0.8592  0.1955 -0.4199
 1125SOL    HW1 9338   3.969  11.960   5.470 -0.3568  0.4975 -0.5569
 1125SOL    HW2 9339   3.943  11.930   5.324 -1.8480 -0.4078 -0.1279
 1126SOL     OW 9340   1.868   5.620   9.028  0.4533 -0.2310  0.7167
 1126SOL    HW1 9341   1.881   5.592   9.119  0.5155 -0.3961  0.6564
 1126SOL    HW2 9342   1.955   5.619   8.989  0.3762 -0.5193  0.5513
 1127SOL     OW 9343  12.299  11.030  10.037 -0.0976  0.7267  0.1907
 1127SOL    HW1 9344  12.371  10.968  10.024 -1.1724 -0.2851 -1.4502
 1127SOL    HW2 9345  12.244  10.988  10.103  0.4224  1.1177  0.8708
 1128SOL     OW 9346   6.659  11.644   0.419 -0.0447  0.1017  0.4012
 1128SOL    HW1 9347   6.681  11.726   0.462 -1.4699  0.0942  1.1969
 1128SOL    HW2 9348   6.564  11.636   0.428  0.0668 -1.6899  0.4888
 1129SOL     OW 9349   7.913   7.971  10.153  0.3698 -0.6291  0.3675
 1129SOL    HW1 9350   7.819   7.975  10.138  0.4397  0.6446  0.1223
 1129SOL    HW2 9351   7.935   7.878  10.152 -1.2995 -1.1455  2.9987
 1130SOL     OW 9352   8.974   5.244   1.982  0.0495 -0.3072 -0.0585
 1130SOL    HW1 9353   8.943   5.270   1.895  0.2894  1.6102  0.3809
 1130SOL    HW2 9354   9.064   5.215   1.969  0.0401 -0.1498 -0.4718
 1131SOL     OW 9355   9.488   0.749   8.909  0.0370 -0.1710  0.2048
 1131SOL    HW1 9356   9.543   0.760   8.832  1.0724  0.4230  0.9924
 1131SOL    HW2 9357   9.549   0.748   8.982 -0.8511 -1.5746  0.9719
 1132SOL     OW 9358   4.793   5.318   3.103 -0.5012 -0.0579 -0.0386
 1132SOL    HW1 9359   4.802   5.287   3.193  1.3575  1.0904  0.2389
 1132SOL    HW2 9360   4.767   5.409   3.111  2.5888  0.9903 -0.4633
 1133SOL     OW 9361  10.179   9.732   2.803  0.4348 -0.0876  0.5497
 1133SOL    HW1 9362  10.243   9.774   2.746  1.3872  1.4839  2.6120
 1133SOL    HW2 9363  10.107   9.707   2.745  1.7704  0.4648 -1.4543
 1134SOL     OW 9364   3.387   3.557   6.810  0.2105 -0.4405  0.4453
 1134SOL    HW1 9365   3.407   3.646   6.838  1.0971 -0.1974 -0.8901
 1134SOL    HW2 9366   3.297   3.562   6.778 -1.0702 -0.8552  3.6054
 1135SOL     OW 9367  10.342   4.345  11.952 -0.1559  0.6224 -0.1323
 1135SOL    HW1 9368  10.404   4.276  11.929 -0.1108  0.7181 -0.2960
 1135SOL    HW2 9369  10.387   4.427  11.930  0.7168  0.8396  2.1865
 1136SOL     OW 9370   9.491   8.276   0.876 -0.1745  0.9593 -0.4602
 1136SOL    HW1 9371   9.578   8.239   0.859  0.2933  1.6013  0.4426
 1136SOL    HW2 9372   9.448   8.277   0.791  0.3069 -0.3531 -0.7456
 1137SOL     OW 9373   4.361   4.275   6.042  0.1188  0.3217 -0.2076
 1137SOL    HW1 9374   4.324   4.351   6.087  0.6121  0.5158 -0.1207
 1137SOL    HW2 9375   4.285   4.226   6.010 -0.2144  0.5354  0.2549
 1138SOL     OW 9376   5.358  11.590   0.653 -0.3295 -0.0024 -0.2895
 1138SOL    HW1 9377   5.306  11.665   0.624 -0.5072 -0.1427 -0.3403
 1138SOL    HW2 9378   5.313  11.514   0.616  1.1253 -0.0114 -2.1890
 1139SOL     OW 9379  10.555   4.273   2.394 -0.1362 -0.2443 -0.0667
 1139SOL    HW1 9380  10.494   4.286   2.321  1.3744  2.2956 -0.9906
 1139SOL    HW2 9381  10.633   4.235   2.353  0.5280  0.7113  0.2745
 1140SOL     OW 9382   3.382   0.510   1.820  0.2528 -0.3726 -0.5419
 1140SOL    HW1 9383   3.344   0.466   1.897  0.0700 -1.6741 -1.3428
 1140SOL    HW2 9384   3.343   0.597   1.821  0.0407 -0.4555  0.6867
 1141SOL     OW 9385  12.367   9.803   9.158  0.1161 -0.8081  0.0162
 1141SOL    HW1 9386  12.330   9.862   9.092 -1.1498 -1.4090  0.1484
 1141SOL    HW2 9387  12.399   9.728   9.108 -0.4352 -1.0623  0.0381
 1142SOL     OW 9388   7.268   3.654   2.471 -0.0786 -0.2604  0.0012
 1142SOL    HW1 9389   7.205   3.727   2.471 -0.1234 -0.2847  1.2332
 1142SOL    HW2 9390   7.295   3.646   2.379  0.4932  1.7913 -0.0588
 1143SOL     OW 9391  11.048   2.175   9.945  0.0921  0.2159 -0.1788
 1143SOL    HW1 9392  11.125   2.120   9.934 -1.6582 -2.1314 -2.1439
 1143SOL    HW2 9393  11.080   2.265   9.940  2.6601 -0.6705 -0.7962
 1144SOL     OW 9394  10.604   6.452   6.717 -0.1150  0.2978  0.0593
 1144SOL    HW1 9395  10.565   6.497   6.791  0.6967  0.2421  0.5280
 1144SOL    HW2 9396  10.593   6.513   6.644 -1.8322 -0.0693 -0.0292
 1145SOL     OW 9397   7.300  11.767   5.223  0.1218  0.7440 -0.4471
 1145SOL    HW1 9398   7.300  11.764   5.319 -0.8666  1.9016 -0.3828
 1145SOL    HW2 9399   7.374  11.823   5.201  0.5102  0.2655 -0.3837
 1146SOL     OW 9400   9.784   4.698  11.566  0.0678 -0.4846 -0.4279
 1146SOL    HW1 9401   9.768   4.777  11.513 -2.8205  0.5079  1.6535
 1146SOL    HW2 9402   9.735   4.629  11.521 -1.0406 -0.0247  0.0423
 1147SOL     OW 9403   0.324   8.510   4.689 -0.0874 -0.1909 -0.1757
 1147SOL    HW1 9404   0.269   8.564   4.632 -0.4383  2.0018  2.0769
 1147SOL    HW2 9405   0.265   8.442   4.722 -0.4472 -0.1306 -0.6788
 1148SOL     OW 9406  10.764   3.338   6.128  0.3906  0.0377 -0.4587
 1148SOL    HW1 9407  10.675   3.344   6.165  0.6813 -1.4427  0.5751
 1148SOL    HW2 9408  10.767   3.408   6.062 -1.5537  0.1021 -0.5562
 1149SOL     OW 9409   0.727  10.817  11.726 -0.1580 -0.5177  0.0332
 1149SOL    HW1 9410   0.766  10.845  11.808  3.4114  0.3402 -1.7599
 1149SOL    HW2 9411   0.763  10.730  11.710  0.3280 -0.1076 -1.2460
 1150SOL     OW 9412   8.112  12.028  11.694  0.3492 -0.0817 -0.0796
 1150SOL    HW1 9413   8.140  11.952  11.745 -0.7863 -0.8615 -0.5745
 1150SOL    HW2 9414   8.081  12.091  11.759  0.7472 -0.2738  0.2989
 1151SOL     OW 9415  10.062   6.855   3.004  0.7440 -0.5346  0.1354
 1151SOL    HW1 9416  10.114   6.906   3.067  0.3584 -1.0820  0.9087
 1151SOL    HW2 9417   9.975   6.850   3.044  1.1828 -3.2427  0.9299
 1152SOL     OW 9418   0.877   0.737   9.384  0.0872 -0.1626  0.1176
 1152SOL    HW1 9419   0.793   0.741   9.340  0.1608 -0.2917 -0.0375
 1152SOL    HW2 9420   0.860   0.690   9.466  0.4718 -2.4866 -1.0418
 1153SOL     OW 9421  11.649   8.729   0.068  0.2596 -0.0094 -0.6178
 1153SOL    HW1 9422  11.711   8.790   0.028  0.3161  1.9788  2.1688
 1153SOL    HW2 9423  11.569   8.739   0.016  0.0761  3.0105  0.0388
 1154SOL     OW 9424   7.325  10.991   4.652  0.1382  0.1408  0.1059
 1154SOL    HW1 9425   7.351  11.081   4.630  0.9864 -0.0391  0.3578
 1154SOL    HW2 9426   7.388  10.936   4.606  1.4080 -0.2579  2.2178
 1155SOL     OW 9427  11.060   2.966   4.281 -0.1992 -0.0007  0.2665
 1155SOL    HW1 9428  11.120   2.907   4.235 -2.0937 -0.3753 -1.8998
 1155SOL    HW2 9429  11.014   2.909   4.344  0.5841 -0.0198  0.8388
 1156SOL     OW 9430  10.099   0.175   7.601 -0.1571  0.0791  0.6720
 1156SOL    HW1 9431  10.182   0.164   7.554  1.6927 -1.2775  3.8979
 1156SOL    HW2 9432  10.050   0.095   7.582  0.9670 -0.8816  1.6578
 1157SOL     OW 9433   2.795   5.705   5.509  0.6730 -0.7772  0.3211
 1157SOL    HW1 9434   2.786   5.730   5.417  0.0475  0.9388  0.7987
 1157SOL    HW2 9435   2.783   5.610   5.510 -2.2872 -0.5307 -1.0657
 1158SOL     OW 9436  10.036   6.343  11.676 -0.6515  0.2339 -0.0870
 1158SOL    HW1 9437   9.975   6.411  11.649  0.4260  1.4574  0.4375
 1158SOL    HW2 9438  10.107   6.390  11.719  0.7185 -1.1171 -0.7606
 1159SOL     OW 9439   7.181   9.300  12.403 -0.7577 -0.6852 -0.0661
 1159SOL    HW1 9440   7.249   9.362  12.431 -1.3191  0.4539 -1.1272
 1159SOL    HW2 9441   7.144   9.267  12.485 -0.6780  0.6447  0.5314
 1160SOL     OW 9442  10.796   6.984   8.537  0.6496  0.1068  0.4106
 1160SOL    HW1 9443  10.810   7.016   8.448  0.6552 -1.3609 -0.1349
 1160SOL    HW2 9444  10.702   6.996   8.552  0.6394  0.3174  0.1866
 1161SOL     OW 9445   0.019   6.233  11.137 -0.0921 -0.0233  0.3360
 1161SOL    HW1 9446   0.088   6.167  11.125 -0.7802 -0.3604 -2.7678
 1161SOL    HW2 9447   0.051   6.309  11.088 -0.9893  0.5656  0.6491
 1162SOL     OW 9448   4.665   6.086   2.552  0.4703 -0.7965 -0.1997
 1162SOL    HW1 9449   4.716   6.092   2.471  1.5069 -0.1803  0.4830
 1162SOL    HW2 9450   4.667   6.174   2.589  0.8357 -1.2776  0.9867
 1163SOL     OW 9451  11.228   6.813   3.728 -0.5435 -0.3003 -0.6289
 1163SOL    HW1 9452  11.192   6.734   3.769  0.7414 -0.3189  0.5156
 1163SOL    HW2 9453  11.281   6.780   3.655 -1.2718 -0.3868 -1.1284
 1164SOL     OW 9454   0.791   7.204   7.665  0.6438  0.1542  0.2850
 1164SOL    HW1 9455   0.736   7.216   7.742 -1.0953 -1.0847 -0.6914
 1164SOL    HW2 9456   0.831   7.290   7.650  0.8841  0.4720  2.4115
 1165SOL     OW 9457   4.497   0.561  11.779  0.4371 -0.0574 -0.1251
 1165SOL    HW1 9458   4.535   0.500  11.716  0.9726  1.1462 -1.0153
 1165SOL    HW2 9459   4.404   0.537  11.783  0.4680 -0.3658 -1.1256
 1166SOL     OW 9460  11.382  11.882   7.101  0.6567 -0.8131 -0.3345
 1166SOL    HW1 9461  11.431  11.853   7.024  2.7405 -1.4763  1.1654
 1166SOL    HW2 9462  11.292  11.890   7.070  1.2144 -2.2033 -2.5379
 1167SOL     OW 9463   2.997  10.540   1.338  0.2551  0.0103  0.5369
 1167SOL    HW1 9464   3.056  10.474   1.302  0.2915  0.2085  0.2254
 1167SOL    HW2 9465   3.033  10.623   1.307  0.3655  0.1947  1.1450
 1168SOL     OW 9466   4.977   6.511   6.488  0.0684 -0.2913  0.4379
 1168SOL    HW1 9467   4.953   6.503   6.580  0.4617 -0.7970  0.5028
 1168SOL    HW2 9468   5.072   6.502   6.487  0.3366  2.1124  0.2311
 1169SOL     OW 9469   3.816   1.791   6.905 -0.2374  0.8863  0.0298
 1169SOL    HW1 9470   3.839   1.753   6.820 -0.6000  0.5784  0.0660
 1169SOL    HW2 9471   3.876   1.750   6.967 -1.6789 -0.8825  0.3242
 1170SOL     OW 9472   6.909   7.536   2.943  0.5494 -0.0161 -0.0807
 1170SOL    HW1 9473   6.966   7.612   2.934  1.7067 -0.9659 -1.0418
 1170SOL    HW2 9474   6.901   7.523   3.037 -0.8260  2.1126  0.1676
 1171SOL     OW 9475   8.472   5.378  10.352 -0.1140  0.0380 -0.0172
 1171SOL    HW1 9476   8.475   5.285  10.375 -0.9521  0.0748  0.2766
 1171SOL    HW2 9477   8.439   5.421  10.431 -0.4556  0.4876 -0.3968
 1172SOL     OW 9478   8.119   1.308   2.626 -0.2959 -0.0498 -0.0944
 1172SOL    HW1 9479   8.095   1.241   2.690  1.4839  0.3856  1.1076
 1172SOL    HW2 9480   8.193   1.270   2.578  1.2650  1.2835  1.1488
 1173SOL     OW 9481  10.671   8.116  10.973  0.5191 -0.5399 -0.1687
 1173SOL    HW1 9482  10.752   8.108  11.023  0.8674 -0.1111 -0.6484
 1173SOL    HW2 9483  10.601   8.110  11.038  0.9617  0.1335  0.3771
 1174SOL     OW 9484   5.013  12.353  10.550  0.3888 -0.3514  0.2800
 1174SOL    HW1 9485   5.046  12.386  10.466  0.6718 -2.2325 -0.4041
 1174SOL    HW2 9486   4.918  12.354  10.539  0.4233 -0.6146 -0.1008
 1175SOL     OW 9487   7.455   1.387  11.225 -0.2099  0.7091 -0.2680
 1175SOL    HW1 9488   7.379   1.342  11.190 -0.5787  0.2049  1.1076
 1175SOL    HW2 9489   7.420   1.446  11.291  0.5398  0.8982 -0.0286
 1176SOL     OW 9490   2.280   0.585   6.531  0.1374  0.1719 -0.2679
 1176SOL    HW1 9491   2.321   0.578   6.445 -0.3780 -3.9176 -0.3770
 1176SOL    HW2 9492   2.216   0.513   6.533 -1.0502  1.1537  2.9323
 1177SOL     OW 9493   2.825  10.902   1.141 -0.0890  0.6978  0.8114
 1177SOL    HW1 9494   2.849  10.993   1.160 -0.9950  0.7104  1.9693
 1177SOL    HW2 9495   2.908  10.854   1.146  0.4940  1.5302 -0.3885
 1178SOL     OW 9496   8.516  12.097   3.906  0.3136  0.1783  0.1462
 1178SOL    HW1 9497   8.508  12.124   3.815  0.8388  1.5186  0.4759
 1178SOL    HW2 9498   8.606  12.066   3.914 -0.0815 -1.0675 -0.0599
 1179SOL     OW 9499   0.034   8.019   7.915  0.4569  0.6322 -0.3325
 1179SOL    HW1 9500   0.030   7.959   7.840  0.6822  0.5433 -0.2763
 1179SOL    HW2 9501   0.043   8.106   7.876 -1.4456  0.8076 -0.4522
 1180SOL     OW 9502   2.319   5.656   7.102 -0.0848 -1.2595 -0.6958
 1180SOL    HW1 9503   2.376   5.721   7.060  0.4934 -1.6168 -0.4876
 1180SOL    HW2 9504   2.260   5.627   7.032  1.0205 -2.0241 -1.3520
 1181SOL     OW 9505   4.117   3.163   2.374 -0.3245  0.2305  0.6441
 1181SOL    HW1 9506   4.028   3.131   2.390  0.1479 -1.0148  0.8239
 1181SOL    HW2 9507   4.121   3.176   2.279 -0.2506 -1.1035  0.4511
 1182SOL     OW 9508  12.490  10.428  11.658 -0.4614  0.1882  0.0889
 1182SOL    HW1 9509  12.418  10.371  11.631  0.2194 -0.9640  0.5703
 1182SOL    HW2 9510  12.454  10.481  11.729 -0.4575 -1.5434  1.4801
 1183SOL     OW 9511   0.470   4.403   6.539 -0.4409 -0.3926  0.0853
 1183SOL    HW1 9512   0.541   4.402   6.602 -0.2837 -0.7473 -0.0975
 1183SOL    HW2 9513   0.507   4.367   6.459  0.8135  4.3279 -1.8123
 1184SOL     OW 9514   1.203   9.551   3.289  0.6090 -0.1417  0.8885
 1184SOL    HW1 9515   1.260   9.621   3.323  0.7724  0.5490 -0.7468
 1184SOL    HW2 9516   1.148   9.594   3.224  1.9282 -1.8359 -1.4861
 1185SOL     OW 9517   6.245   3.090   0.680 -0.5349  0.3793  0.4841
 1185SOL    HW1 9518   6.312   3.027   0.706  1.6040  2.9666  1.8776
 1185SOL    HW2 9519   6.263   3.107   0.587 -0.1101  0.0440  0.5015
 1186SOL     OW 9520   1.949   3.595   2.309  0.2794  0.3945 -0.3096
 1186SOL    HW1 9521   1.871   3.599   2.364  1.2523 -0.6649  1.2266
 1186SOL    HW2 9522   1.987   3.682   2.315  0.1892  0.3879  0.4296
 1187SOL     OW 9523   5.118   3.831   7.921  0.0181 -0.2959 -0.0662
 1187SOL    HW1 9524   5.065   3.800   7.995  2.4481  1.2073  2.5325
 1187SOL    HW2 9525   5.144   3.752   7.874  0.8785 -1.7200  2.5851
 1188SOL     OW 9526  10.982   9.079   2.680  0.2579  0.1715  0.1609
 1188SOL    HW1 9527  10.955   9.164   2.714 -0.5734  0.1149 -0.3255
 1188SOL    HW2 9528  10.905   9.046   2.633  1.7489  0.9217 -3.1204
 1189SOL     OW 9529   0.744   9.835   4.871 -0.1234  0.3530  0.1048
 1189SOL    HW1 9530   0.822   9.779   4.877  0.2768  0.9975  1.3570
 1189SOL    HW2 9531   0.738   9.859   4.779  0.0446 -1.2604 -0.3573
 1190SOL     OW 9532   6.982   9.818   2.290 -0.3287  0.1025 -0.1127
 1190SOL    HW1 9533   6.996   9.738   2.340  0.0795 -0.0702 -0.4894
 1190SOL    HW2 9534   6.889   9.819   2.271 -0.0561 -1.2944 -1.7521
 1191SOL     OW 9535   6.600   2.470   9.206  0.3305 -0.1328  0.2106
 1191SOL    HW1 9536   6.676   2.423   9.171  1.4273  0.9662  1.0502
 1191SOL    HW2 9537   6.620   2.562   9.192 -0.7301  0.1915  0.7046
 1192SOL     OW 9538  10.088  11.726   9.154  0.4119 -0.8428 -0.0904
 1192SOL    HW1 9539  10.112  11.653   9.211 -0.0538 -1.2789 -0.4389
 1192SOL    HW2 9540  10.007  11.697   9.111 -0.7522  0.5666  1.0499
 1193SOL     OW 9541   4.250   1.158   4.769 -0.4621 -0.2725 -0.1758
 1193SOL    HW1 9542   4.234   1.161   4.674 -3.2467  0.9195  0.2412
 1193SOL    HW2 9543   4.218   1.072   4.796 -3.9258  0.9884  0.2058
 1194SOL     OW 9544   6.776   1.111   8.261  0.4268 -0.3969 -0.4987
 1194SOL    HW1 9545   6.822   1.184   8.303  2.7145 -0.6206 -2.3978
 1194SOL    HW2 9546   6.797   1.035   8.316  0.5943 -0.1339 -0.1991
 1195SOL     OW 9547   2.062   3.352   1.564 -0.0399 -0.3210 -0.5321
 1195SOL    HW1 9548   2.082   3.285   1.629 -0.0207  0.2308  0.0455
 1195SOL    HW2 9549   2.141   3.405   1.559 -0.1371 -0.2005 -0.7996
 1196SOL     OW 9550  11.267   4.061  11.805 -0.1476 -0.3116 -0.2539
 1196SOL    HW1 9551  11.338   4.095  11.859 -0.0981  0.8213 -0.9935
 1196SOL    HW2 9552  11.200   4.129  11.808  0.5772  0.6644 -3.0052
 1197SOL     OW 9553   8.218   1.502  10.448 -0.1442 -0.2348  0.4786
 1197SOL    HW1 9554   8.217   1.412  10.480 -0.2620 -0.4114 -0.0125
 1197SOL    HW2 9555   8.310   1.528  10.450 -0.2035 -0.0511  1.4713
 1198SOL     OW 9556   7.072   0.868   2.677  0.0228  0.3548 -0.2191
 1198SOL    HW1 9557   7.165   0.873   2.652  0.1583  2.2807  0.5717
 1198SOL    HW2 9558   7.025   0.898   2.600  0.1926  1.5555  0.1299
 1199SOL     OW 9559   0.825   6.119   2.689  0.2241  0.3956  0.0335
 1199SOL    HW1 9560   0.877   6.042   2.667  0.2210  0.8077 -1.4764
 1199SOL    HW2 9561   0.755   6.121   2.623  0.3034  1.7588 -0.0316
 1200SOL     OW 9562   1.819  11.358  11.487 -0.0688  0.4901  0.2607
 1200SOL    HW1 9563   1.740  11.410  11.501  0.4528  1.4553 -0.2534
 1200SOL    HW2 9564   1.837  11.366  11.393 -0.3337 -1.1796  0.0331
 1201SOL     OW 9565   0.880   6.125   3.258 -0.2423 -0.0695 -0.2402
 1201SOL    HW1 9566   0.896   6.219   3.248  1.1127 -0.0051  2.0149
 1201SOL    HW2 9567   0.958   6.084   3.223 -0.8274 -0.3898 -1.2076
 1202SOL     OW 9568   0.903   8.510  11.713  0.2090 -0.2662 -0.2686
 1202SOL    HW1 9569   0.909   8.584  11.654 -1.4727 -0.5954 -0.9204
 1202SOL    HW2 9570   0.881   8.548  11.798 -0.2643  0.0174 -0.5149
 1203SOL     OW 9571   3.091   1.780   1.123 -0.4428 -0.0997 -0.2809
 1203SOL    HW1 9572   3.090   1.850   1.057 -2.7094  0.3341  0.1440
 1203SOL    HW2 9573   3.107   1.701   1.072 -0.7789  0.3844 -1.1729
 1204SOL     OW 9574  11.026   0.441  10.573 -0.0700 -0.2640  0.0561
 1204SOL    HW1 9575  11.083   0.447  10.650 -0.6950 -2.1359  0.7220
 1204SOL    HW2 9576  10.974   0.522  10.576  0.7180  0.2307  0.9448
 1205SOL     OW 9577   3.910   2.482   3.836 -0.0104 -0.0085  0.3197
 1205SOL    HW1 9578   3.931   2.516   3.749  2.3566  2.4222  1.6706
 1205SOL    HW2 9579   3.816   2.496   3.845 -0.2135  0.1629 -1.6217
 1206SOL     OW 9580   0.864   1.661  11.798  0.2265 -0.2644 -0.3008
 1206SOL    HW1 9581   0.794   1.616  11.751 -0.2350 -0.3988  0.4945
 1206SOL    HW2 9582   0.935   1.596  11.804  0.4047 -0.1445 -1.0623
 1207SOL     OW 9583   9.871   9.860  10.994 -0.3950  0.0373  0.2457
 1207SOL    HW1 9584   9.870   9.764  11.000  1.7780 -0.1097 -0.8038
 1207SOL    HW2 9585   9.865   9.889  11.085  2.1265 -1.2308  0.9229
 1208SOL     OW 9586   2.322   0.505   7.222 -0.1069  0.2772  0.3372
 1208SOL    HW1 9587   2.374   0.427   7.202 -0.9466 -0.6882  1.7544
 1208SOL    HW2 9588   2.232   0.478   7.208 -0.4640  0.7339  1.6616
 1209SOL     OW 9589   8.703   3.179   7.704 -0.0171  0.2936  0.0843
 1209SOL    HW1 9590   8.665   3.215   7.785  2.4006  0.5052  1.2213
 1209SOL    HW2 9591   8.735   3.255   7.656  0.3962  0.0366 -0.0564
 1210SOL     OW 9592   9.015   1.050   6.380 -0.0357 -0.0619 -0.4446
 1210SOL    HW1 9593   8.920   1.044   6.368 -0.1573  0.8676 -0.0210
 1210SOL    HW2 9594   9.051   1.029   6.294 -0.5810 -1.2657 -0.3991
 1211SOL     OW 9595   9.692   6.341   2.110 -0.3045  0.0090  0.2401
 1211SOL    HW1 9596   9.638   6.263   2.126 -1.9720  1.1588  0.4097
 1211SOL    HW2 9597   9.678   6.362   2.018 -1.2531  1.1020  0.6155
 1212SOL     OW 9598   9.458   5.299   4.734 -0.3050 -0.1041 -0.1090
 1212SOL    HW1 9599   9.549   5.301   4.762 -1.2491  0.9755  3.4765
 1212SOL    HW2 9600   9.439   5.206   4.720  1.6666 -0.2340 -2.5933
 1213SOL     OW 9601   0.639   4.223   6.059 -0.3797 -0.1976  0.4473
 1213SOL    HW1 9602   0.584   4.275   6.117 -1.7511  0.4628 -1.3614
 1213SOL    HW2 9603   0.578   4.170   6.009  0.5335  0.7417 -1.7970
 1214SOL     OW 9604   4.230  11.974  12.024  0.2844 -0.1540  0.3132
 1214SOL    HW1 9605   4.306  12.025  11.994  0.3604  0.6046  1.7253
 1214SOL    HW2 9606   4.195  11.934  11.944  1.6685  0.1587 -0.4812
 1215SOL     OW 9607  10.175  10.518  10.816 -0.0038  0.2868 -0.5567
 1215SOL    HW1 9608  10.248  10.467  10.851  0.2735 -0.5848 -2.2891
 1215SOL    HW2 9609  10.209  10.606  10.806 -0.0374  0.5152  1.1226
 1216SOL     OW 9610   1.162   0.804   9.662 -0.3647 -0.1539  0.1880
 1216SOL    HW1 9611   1.116   0.868   9.608  1.1282  1.5034  0.7734
 1216SOL    HW2 9612   1.181   0.731   9.603 -0.3099  0.8389 -1.0635
 1217SOL     OW 9613   0.470   5.950  11.831  0.6864 -0.4811 -0.0264
 1217SOL    HW1 9614   0.488   6.038  11.865  0.1491 -0.3767 -0.0078
 1217SOL    HW2 9615   0.425   5.965  11.748 -2.0798 -0.6900  1.3227
 1218SOL     OW 9616   0.643   1.036   8.711  0.2591  0.3221  0.2105
 1218SOL    HW1 9617   0.562   1.045   8.761 -0.0175  0.9363 -0.3422
 1218SOL    HW2 9618   0.712   1.037   8.777 -0.0659  1.6800  0.5494
 1219SOL     OW 9619   4.587   6.131   2.255 -0.2014  0.0312  0.3908
 1219SOL    HW1 9620   4.622   6.045   2.230 -0.2621  0.0008  0.4091
 1219SOL    HW2 9621   4.511   6.110   2.309  0.7746  0.0754  1.8559
 1220SOL     OW 9622   7.702   2.241   0.236 -0.3873 -0.4020 -0.5667
 1220SOL    HW1 9623   7.683   2.253   0.143 -0.3683  2.2363 -0.2944
 1220SOL    HW2 9624   7.788   2.281   0.249 -1.4227  1.5068  0.9618
 1221SOL     OW 9625   3.701  12.191   5.024 -0.4995 -0.1864 -0.1726
 1221SOL    HW1 9626   3.752  12.268   5.001  0.5304 -1.4663 -2.4601
 1221SOL    HW2 9627   3.728  12.169   5.113  0.8804  0.7640 -0.3431
 1222SOL     OW 9628   8.435   1.574  12.078  0.0178 -0.1646  0.2075
 1222SOL    HW1 9629   8.381   1.617  12.012 -0.3089  0.3365  0.7886
 1222SOL    HW2 9630   8.372   1.536  12.140  0.3191 -0.2096  0.4922
 1223SOL     OW 9631  10.226   2.531   7.254 -0.3080 -0.0120  0.4754
 1223SOL    HW1 9632  10.174   2.605   7.287 -0.8534  0.3622 -1.1384
 1223SOL    HW2 9633  10.310   2.539   7.300  0.2587  2.5955 -0.8181
 1224SOL     OW 9634   2.378   3.128   4.483  0.2508  0.1427  0.0631
 1224SOL    HW1 9635   2.311   3.166   4.426  1.1486  0.9101 -0.5147
 1224SOL    HW2 9636   2.405   3.047   4.438 -0.8187 -0.5976  0.6975
 1225SOL     OW 9637   6.856   9.534  11.222  0.4157 -0.3298 -0.4840
 1225SOL    HW1 9638   6.817   9.463  11.273 -1.3215  0.2395 -0.9697
 1225SOL    HW2 9639   6.935   9.557  11.270 -0.0330 -1.2685  0.7522
 1226SOL     OW 9640  11.115   0.183   2.013  0.9099  0.0801 -0.2538
 1226SOL    HW1 9641  11.115   0.183   2.109 -0.7476 -4.1468 -0.0630
 1226SOL    HW2 9642  11.039   0.236   1.989  0.6169  0.1603  0.7948
 1227SOL     OW 9643   7.529   7.043   5.733 -0.4420 -0.5085 -0.4643
 1227SOL    HW1 9644   7.467   7.088   5.790  0.8481 -1.9446  2.2738
 1227SOL    HW2 9645   7.593   7.110   5.709 -0.6743 -0.0064  0.2872
 1228SOL     OW 9646   9.276   1.865   1.040  0.1777  0.1976 -0.1495
 1228SOL    HW1 9647   9.291   1.902   0.953 -0.8442 -0.3164 -0.5608
 1228SOL    HW2 9648   9.360   1.873   1.085  0.1042  2.7422 -0.3189
 1229SOL     OW 9649   4.100  11.869   4.268 -0.2259 -0.1902  0.0615
 1229SOL    HW1 9650   4.164  11.802   4.291 -0.2901 -0.0507  0.6538
 1229SOL    HW2 9651   4.150  11.951   4.266  0.0180 -0.3439 -1.4342
 1230SOL     OW 9652  12.251  11.113   4.324 -0.1675  0.3587 -0.0845
 1230SOL    HW1 9653  12.302  11.179   4.371 -1.5505  0.2521  1.7048
 1230SOL    HW2 9654  12.160  11.132   4.347 -0.8088 -0.5983 -1.6496
 1231SOL     OW 9655   7.494   8.893   1.011 -0.0491  0.6625  0.0360
 1231SOL    HW1 9656   7.477   8.842   1.091  1.5044  1.0504  0.6565
 1231SOL    HW2 9657   7.561   8.842   0.965 -1.0264  0.3781 -1.1201
 1232SOL     OW 9658   3.451   9.746   3.831 -0.1537 -0.0654  0.0414
 1232SOL    HW1 9659   3.479   9.798   3.756  0.9869  0.0169  0.5062
 1232SOL    HW2 9660   3.487   9.791   3.907 -1.0119 -0.3333  0.6265
 1233SOL     OW 9661   3.779   5.241   7.789  0.3942 -0.3478  0.4272
 1233SOL    HW1 9662   3.823   5.194   7.718  1.1599  0.3068  0.4498
 1233SOL    HW2 9663   3.721   5.176   7.828  0.7077 -1.0002 -0.1556
 1234SOL     OW 9664  10.591   0.661   5.027 -0.1074  0.0467  0.1886
 1234SOL    HW1 9665  10.519   0.723   5.025  0.3630  0.6600  1.1217
 1234SOL    HW2 9666  10.580   0.607   4.949  0.2451  2.1829 -1.4322
 1235SOL     OW 9667   6.549   2.056   0.080 -0.0631 -0.0392  0.0647
 1235SOL    HW1 9668   6.541   2.114   0.004 -0.7706 -0.7719 -0.4425
 1235SOL    HW2 9669   6.467   2.006   0.080  0.2973 -0.6455  0.8122
 1236SOL     OW 9670  10.749   9.288   9.445 -0.3377  0.0841  0.3043
 1236SOL    HW1 9671  10.768   9.381   9.432  1.3377 -0.3158 -0.3195
 1236SOL    HW2 9672  10.732   9.255   9.357 -1.0511 -0.2049  0.5380
 1237SOL     OW 9673  12.310   2.782  12.193  0.0967  0.0811 -0.5721
 1237SOL    HW1 9674  12.333   2.723  12.121  0.8256  1.4539 -1.5074
 1237SOL    HW2 9675  12.242   2.839  12.157  0.6616  0.9634 -0.2808
 1238SOL     OW 9676   5.901   7.741  12.240 -0.3707 -0.4509 -0.0990
 1238SOL    HW1 9677   5.869   7.831  12.231  0.0183 -0.4203 -1.3848
 1238SOL    HW2 9678   5.822   7.688  12.250 -0.5640  0.2438  3.6054
 1239SOL     OW 9679   8.257  10.425  11.702 -0.0394 -0.4432  0.2595
 1239SOL    HW1 9680   8.331  10.473  11.666 -0.0681  0.1395  0.9562
 1239SOL    HW2 9681   8.266  10.337  11.666  0.0616  0.0518 -0.9672
 1240SOL     OW 9682   3.171   6.763   1.545 -0.5260  0.3941 -0.4233
 1240SOL    HW1 9683   3.233   6.719   1.603 -2.5499 -2.2155 -0.0665
 1240SOL    HW2 9684   3.102   6.796   1.604 -0.7670  0.9686 -1.0192
 1241SOL     OW 9685   2.826   1.140  10.123  0.0612 -0.4991 -0.2294
 1241SOL    HW1 9686   2.745   1.127  10.171  0.4642 -0.2210  0.5372
 1241SOL    HW2 9687   2.885   1.071  10.155  0.4981 -0.0012  0.0566
 1242SOL     OW 9688   0.186   3.064   6.727 -0.2870  0.2745  0.3107
 1242SOL    HW1 9689   0.128   3.062   6.651 -2.2098  1.4596  1.6605
 1242SOL    HW2 9690   0.247   3.136   6.708  0.3730 -0.5607 -0.8389
 1243SOL     OW 9691   6.407   4.093  12.317  0.0522 -0.2093  0.1701
 1243SOL    HW1 9692   6.406   4.182  12.353 -1.0240 -0.2444  0.2747
 1243SOL    HW2 9693   6.443   4.039  12.387  1.6256  0.2576 -0.2346
 1244SOL     OW 9694   0.629   5.448   9.234  0.3594  0.0493 -0.1851
 1244SOL    HW1 9695   0.699   5.407   9.182 -1.4414 -0.9696 -1.9838
 1244SOL    HW2 9696   0.575   5.375   9.263 -0.3289  0.8536  0.6271
 1245SOL     OW 9697   4.201  11.625  12.123 -0.0034 -0.4126  0.0037
 1245SOL    HW1 9698   4.262  11.613  12.196 -0.1454  0.2344  0.2270
 1245SOL    HW2 9699   4.257  11.649  12.049  0.1237 -0.9162 -0.0702
 1246SOL     OW 9700   3.897   6.179   0.639  0.3978 -0.2498  0.4873
 1246SOL    HW1 9701   3.841   6.145   0.570  1.3792  1.0410 -1.0377
 1246SOL    HW2 9702   3.856   6.262   0.665  1.3627  0.5501 -0.4250
 1247SOL     OW 9703   1.595   1.120   6.494 -0.8810  0.3558  0.3541
 1247SOL    HW1 9704   1.597   1.215   6.505 -0.8554  0.4198 -0.1890
 1247SOL    HW2 9705   1.510   1.101   6.455 -0.6651  0.2125 -0.0493
 1248SOL     OW 9706  11.008  11.419  10.824  0.6212 -0.5298  0.7744
 1248SOL    HW1 9707  11.069  11.350  10.849 -0.0991 -1.3606  0.2934
 1248SOL    HW2 9708  10.971  11.390  10.741  0.1672  0.3487  0.6575
 1249SOL     OW 9709   4.857   0.447   2.601  0.4170  0.3580  0.2114
 1249SOL    HW1 9710   4.775   0.409   2.570  0.6135 -0.0530  0.1879
 1249SOL    HW2 9711   4.862   0.422   2.693  0.3009  0.7611  0.3286
 1250SOL     OW 9712   1.912  10.569  11.930  0.1353  0.1523  0.7285
 1250SOL    HW1 9713   1.927  10.535  12.018 -0.2919  1.9885  1.5474
 1250SOL    HW2 9714   1.948  10.658  11.932 -0.5133  0.4757 -0.7349
 1251SOL     OW 9715  11.396   0.429   1.089 -0.3437 -0.3032 -0.4217
 1251SOL    HW1 9716  11.430   0.438   1.178  0.0699  2.8232 -0.7869
 1251SOL    HW2 9717  11.307   0.397   1.100 -0.0799 -0.5849  1.0647
 1252SOL     OW 9718   0.722   7.020   2.260  0.1311 -0.2311  0.3974
 1252SOL    HW1 9719   0.785   7.076   2.305 -1.5043  2.4253 -0.3568
 1252SOL    HW2 9720   0.678   7.079   2.198 -2.7678 -1.9745  0.6001
 1253SOL     OW 9721   4.601   1.099   2.763  0.5717  0.5202 -0.6436
 1253SOL    HW1 9722   4.553   1.128   2.841 -0.7636 -1.8142 -0.4936
 1253SOL    HW2 9723   4.671   1.163   2.752 -0.6958  2.2918  1.0168
 1254SOL     OW 9724   2.204   5.645   2.935  0.3362  0.6480 -0.2388
 1254SOL    HW1 9725   2.244   5.687   3.011  0.0864 -1.8969  1.4151
 1254SOL    HW2 9726   2.246   5.559   2.930 -0.1937  0.4512 -2.5678
 1255SOL     OW 9727   4.876   1.733   0.057  0.3691 -0.1293 -0.6159
 1255SOL    HW1 9728   4.966   1.757   0.034  0.4955 -0.3261 -0.3296
 1255SOL    HW2 9729   4.831   1.726  -0.028  0.6755 -0.2304 -0.7709
 1256SOL     OW 9730   3.312   9.615   8.245  0.1684  0.4930 -0.0623
 1256SOL    HW1 9731   3.222   9.580   8.245  0.3201 -0.2104  3.2663
 1256SOL    HW2 9732   3.300   9.710   8.246 -0.4493  0.4537 -1.1947
 1257SOL     OW 9733   1.848  11.607   1.535  0.6557 -0.5784 -0.6668
 1257SOL    HW1 9734   1.840  11.519   1.498 -1.1968  0.1717 -2.2232
 1257SOL    HW2 9735   1.762  11.625   1.573  0.8522  0.7110 -0.7735
 1258SOL     OW 9736   1.347   5.584   9.842  0.4236  0.4926 -0.2412
 1258SOL    HW1 9737   1.388   5.626   9.766  2.8854 -1.5626 -0.2026
 1258SOL    HW2 9738   1.307   5.505   9.806  1.4477 -0.3996  0.5011
 1259SOL     OW 9739  11.309   1.199  12.200  0.0089  0.2159  0.0155
 1259SOL    HW1 9740  11.404   1.197  12.188  0.0598 -0.4492  0.4795
 1259SOL    HW2 9741  11.287   1.111  12.231 -0.5742  0.7784  1.2673
 1260SOL     OW 9742   1.047   1.531   6.645 -0.0964 -0.1347  0.5466
 1260SOL    HW1 9743   0.963   1.521   6.600  1.3618 -1.1310 -2.2284
 1260SOL    HW2 9744   1.089   1.445   6.636  1.4629  0.5131  1.3406
 1261SOL     OW 9745   0.779   9.215   3.221 -0.3391 -0.1757  0.0107
 1261SOL    HW1 9746   0.813   9.289   3.270  0.7935  0.4498 -1.6526
 1261SOL    HW2 9747   0.820   9.138   3.261 -0.5721  0.1684  0.9415
 1262SOL     OW 9748   9.014   2.478  11.127 -0.4826  0.2344  0.1238
 1262SOL    HW1 9749   9.034   2.385  11.114 -0.9200  0.3286 -1.4588
 1262SOL    HW2 9750   9.061   2.502  11.207 -1.2503 -1.5973  1.1910
 1263SOL     OW 9751   0.406   8.083   6.871  0.1723 -0.7221 -0.3527
 1263SOL    HW1 9752   0.420   8.108   6.780  0.3024 -0.0170 -0.1446
 1263SOL    HW2 9753   0.462   8.006   6.884 -1.5066 -2.2154 -1.4714
 1264SOL     OW 9754  12.116  10.278  10.695  0.1745 -0.2530 -0.7252
 1264SOL    HW1 9755  12.132  10.369  10.720 -0.3728 -0.1403 -0.7795
 1264SOL    HW2 9756  12.118  10.279  10.599  1.2584 -0.5027 -0.7211
 1265SOL     OW 9757  10.821   4.734   6.982  0.1584 -0.2375  0.1932
 1265SOL    HW1 9758  10.746   4.728   7.041  0.9498 -1.8057  1.1248
 1265SOL    HW2 9759  10.783   4.746   6.896 -1.1087  0.2676  0.7991
 1266SOL     OW 9760  11.351  10.538   5.216  0.6272  0.6501 -0.5293
 1266SOL    HW1 9761  11.303  10.595   5.275  0.7085 -1.0718  1.2927
 1266SOL    HW2 9762  11.329  10.570   5.128 -0.9343  2.1552  0.3559
 1267SOL     OW 9763   2.247   0.009   6.443 -0.8059 -0.2504  0.9751
 1267SOL    HW1 9764   2.294  -0.051   6.385 -0.7114  0.1899  0.5875
 1267SOL    HW2 9765   2.234   0.088   6.390 -2.6783 -0.6331  0.7981
 1268SOL     OW 9766   5.943  12.415  10.606 -0.0902 -0.1608  0.3755
 1268SOL    HW1 9767   5.897  12.408  10.690 -1.9966 -2.1004 -0.7330
 1268SOL    HW2 9768   5.945  12.325  10.572 -0.1078  0.6802 -2.0245
 1269SOL     OW 9769   6.095   0.012   8.538 -0.0815 -0.1428 -0.6916
 1269SOL    HW1 9770   6.110  -0.061   8.477 -0.8606 -0.9768  0.0951
 1269SOL    HW2 9771   6.097   0.090   8.482 -1.0831 -0.9035 -1.8418
 1270SOL     OW 9772   8.800  11.649   2.541  0.2021  0.5004  0.1302
 1270SOL    HW1 9773   8.802  11.744   2.547  0.2945  0.5564 -0.6368
 1270SOL    HW2 9774   8.745  11.621   2.614 -1.7099  1.2849 -0.9500
 1271SOL     OW 9775  10.658  10.801   5.289  0.2726  0.6866  0.6862
 1271SOL    HW1 9776  10.713  10.732   5.253 -0.9169  0.2809 -0.4311
 1271SOL    HW2 9777  10.664  10.790   5.384  0.7650 -0.4149  0.5415
 1272SOL     OW 9778   6.510   9.712   1.289  0.0144  0.2666  0.4811
 1272SOL    HW1 9779   6.511   9.780   1.357  0.2367 -2.0018  2.8934
 1272SOL    HW2 9780   6.563   9.749   1.218  1.1304  2.1528  2.1750
 1273SOL     OW 9781   1.347  11.347   1.099 -0.2011 -0.0207  0.1478
 1273SOL    HW1 9782   1.334  11.394   1.182  0.9885  1.7707 -0.6417
 1273SOL    HW2 9783   1.440  11.355   1.081 -0.3056 -1.0876 -0.9927
 1274SOL     OW 9784   8.128  11.045  10.803 -0.1418 -0.4334 -0.4593
 1274SOL    HW1 9785   8.089  11.131  10.787  0.6213  0.1654  0.7339
 1274SOL    HW2 9786   8.222  11.059  10.789  0.0545 -0.9248  0.3117
 1275SOL     OW 9787   3.126  11.818   4.666  0.4443 -0.1691 -0.0112
 1275SOL    HW1 9788   3.175  11.806   4.585 -1.6885  1.6159 -1.7018
 1275SOL    HW2 9789   3.131  11.912   4.683 -0.4396 -0.2978  1.0551
 1276SOL     OW 9790   6.758   0.145  10.225  0.3983  0.3464 -0.1869
 1276SOL    HW1 9791   6.851   0.170  10.224  0.2231  1.0022 -0.5663
 1276SOL    HW2 9792   6.734   0.137  10.133  0.1474 -0.0940 -0.0842
 1277SOL     OW 9793   1.250   2.960  12.286 -0.4447  0.3184  0.5001
 1277SOL    HW1 9794   1.288   3.019  12.351 -1.0324  0.5059  0.6800
 1277SOL    HW2 9795   1.314   2.889  12.279  0.2566  0.9456  0.3065
 1278SOL     OW 9796  10.559   8.740   7.975 -0.2936 -0.2044 -0.3056
 1278SOL    HW1 9797  10.582   8.786   7.894  0.8971  1.8819  1.1080
 1278SOL    HW2 9798  10.642   8.709   8.010 -0.4716  0.8499  1.1660
 1279SOL     OW 9799   6.208   8.070  12.348 -0.1886  0.4359 -0.6078
 1279SOL    HW1 9800   6.191   7.981  12.378 -0.5136  0.2332 -1.3877
 1279SOL    HW2 9801   6.298   8.069  12.318  0.5480  0.9320  1.3752
 1280SOL     OW 9802   8.189   1.976  11.731 -0.0094  0.5305 -0.3431
 1280SOL    HW1 9803   8.119   2.007  11.673 -0.4320 -0.5944 -0.4659
 1280SOL    HW2 9804   8.228   1.902  11.684  0.0928  0.0361  0.4960
 1281SOL     OW 9805   3.959   5.867  10.842  0.6711  0.8781  0.5635
 1281SOL    HW1 9806   4.039   5.852  10.894  0.5639  1.2169  0.8335
 1281SOL    HW2 9807   3.963   5.802  10.772  0.6594  0.1921  1.1826
 1282SOL     OW 9808   4.469   7.896   3.563  0.1082  0.5198 -0.9879
 1282SOL    HW1 9809   4.425   7.929   3.485  0.9706  0.7399 -1.3878
 1282SOL    HW2 9810   4.524   7.969   3.592  1.8545 -0.4675 -1.7399
 1283SOL     OW 9811  11.855   0.278   9.721 -0.2915 -0.0432  0.5674
 1283SOL    HW1 9812  11.942   0.290   9.684 -0.8539  0.7055 -0.5884
 1283SOL    HW2 9813  11.814   0.211   9.666 -1.1354  1.0688 -0.1997
 1284SOL     OW 9814   1.372   7.913  12.356  0.2785 -0.1469  0.2766
 1284SOL    HW1 9815   1.426   7.967  12.297 -1.6082  1.0887 -0.4429
 1284SOL    HW2 9816   1.296   7.889  12.303 -0.1865 -1.3106  1.4198
 1285SOL     OW 9817   9.245   5.965  11.583 -0.8299 -0.3119 -0.3685
 1285SOL    HW1 9818   9.231   6.049  11.626  0.4845  0.1805 -0.8652
 1285SOL    HW2 9819   9.171   5.957  11.522 -1.7302 -0.1971  0.6685
 1286SOL     OW 9820   4.711  11.566   8.096  0.7630  0.2741 -0.0782
 1286SOL    HW1 9821   4.684  11.555   8.187  1.1801  0.8525  0.1264
 1286SOL    HW2 9822   4.802  11.595   8.101  0.3189  1.8617 -0.6139
 1287SOL     OW 9823   2.528  11.660   5.051 -0.1669  0.2064 -0.2083
 1287SOL    HW1 9824   2.472  11.716   5.103  0.9498  0.1778  1.0734
 1287SOL    HW2 9825   2.530  11.577   5.098  2.2929  0.7352  0.7913
 1288SOL     OW 9826   7.641  10.152   5.257 -0.0074  0.0784 -0.1534
 1288SOL    HW1 9827   7.728  10.177   5.225 -1.1535  1.7376 -2.2383
 1288SOL    HW2 9828   7.619  10.072   5.209 -0.4719  0.8602 -1.2797
 1289SOL     OW 9829   5.781   0.515  10.246  0.0200  0.1406 -0.8693
 1289SOL    HW1 9830   5.817   0.574  10.180  1.7684  1.7318  1.3906
 1289SOL    HW2 9831   5.764   0.570  10.322 -3.8410 -1.2168 -0.4802
 1290SOL     OW 9832   3.364   0.051   2.933  0.7720  0.5245 -0.4653
 1290SOL    HW1 9833   3.320  -0.021   2.888  0.1198  0.4706  0.2423
 1290SOL    HW2 9834   3.451   0.018   2.951  0.3628 -0.2316  0.1851
 1291SOL     OW 9835   4.677   0.955  12.085  0.2440 -0.2889  0.5856
 1291SOL    HW1 9836   4.760   0.909  12.076  0.6869  0.2625  1.6810
 1291SOL    HW2 9837   4.699   1.048  12.073 -0.0972 -0.0822  1.5118
 1292SOL     OW 9838   6.624   7.547  11.329 -0.3144  0.0663 -0.2899
 1292SOL    HW1 9839   6.582   7.551  11.415  2.7343 -1.3646  1.4239
 1292SOL    HW2 9840   6.702   7.602  11.337  0.5569 -0.8769 -1.7948
 1293SOL     OW 9841   7.974  11.346   2.693 -0.6844  0.0896 -0.3891
 1293SOL    HW1 9842   7.958  11.267   2.642 -2.2730  0.5477 -0.6551
 1293SOL    HW2 9843   8.017  11.406   2.633 -2.1156  0.4548 -1.0838
 1294SOL     OW 9844   3.647   4.330  11.484  0.1118 -0.1010  0.1459
 1294SOL    HW1 9845   3.660   4.387  11.408 -0.3268  0.5820  0.5696
 1294SOL    HW2 9846   3.554   4.339  11.505  0.0577 -0.9057  0.2756
 1295SOL     OW 9847   0.889   5.695   1.719  0.3457 -0.0831 -0.3565
 1295SOL    HW1 9848   0.984   5.699   1.712  0.3887 -0.4442 -0.0315
 1295SOL    HW2 9849   0.867   5.756   1.789  0.3388 -0.0168 -0.4162
 1296SOL     OW 9850   3.720  11.303   5.179 -0.1718 -0.2210 -0.5554
 1296SOL    HW1 9851   3.706  11.335   5.090  2.1186  2.3663 -0.1357
 1296SOL    HW2 9852   3.702  11.378   5.235  1.5172 -0.8162  0.8872
 1297SOL     OW 9853  11.957   6.661   4.971 -0.4856 -0.1026 -0.0764
 1297SOL    HW1 9854  11.983   6.625   4.887  1.6174  0.8137  0.1251
 1297SOL    HW2 9855  11.877   6.710   4.952 -1.1721 -1.5662 -1.1117
 1298SOL     OW 9856   2.089   3.904   0.568 -0.6097  0.5936  0.0183
 1298SOL    HW1 9857   2.042   3.988   0.571 -0.4267  0.6838  0.6471
 1298SOL    HW2 9858   2.181   3.929   0.569 -0.5448  0.4021 -0.6955
 1299SOL     OW 9859  12.170  10.213   2.933  0.0698 -0.3996  0.3567
 1299SOL    HW1 9860  12.212  10.180   2.853 -0.9281 -0.2392 -0.2502
 1299SOL    HW2 9861  12.172  10.139   2.993  0.7514 -0.5520  0.1486
 1300SOL     OW 9862  11.646   2.636   9.356 -0.2223 -0.3039  0.2831
 1300SOL    HW1 9863  11.689   2.621   9.440  0.7369 -0.7945 -0.2725
 1300SOL    HW2 9864  11.718   2.653   9.295 -0.8246 -0.8747 -0.6197
 1301SOL     OW 9865   3.694  10.095   1.216 -0.2277  0.1184 -0.3477
 1301SOL    HW1 9866   3.690  10.062   1.306  0.3997  1.4882  0.2215
 1301SOL    HW2 9867   3.729  10.184   1.225 -0.0787  0.2551 -1.9594
 1302SOL     OW 9868   6.469   5.562   8.010 -0.3770  0.1923  0.0491
 1302SOL    HW1 9869   6.541   5.555   8.073  0.5801  0.5439 -0.9694
 1302SOL    HW2 9870   6.395   5.592   8.062 -0.4237 -2.2646  1.5783
 1303SOL     OW 9871   3.005   7.849   1.787 -0.1567  0.5522 -0.2285
 1303SOL    HW1 9872   2.939   7.914   1.763  0.1840  1.4960  1.2547
 1303SOL    HW2 9873   3.087   7.899   1.791  0.8285 -0.7046 -2.5981
 1304SOL     OW 9874   4.190   7.965   2.240 -0.1407  0.5561  0.5280
 1304SOL    HW1 9875   4.273   8.012   2.247 -1.2486  2.5263  1.5782
 1304SOL    HW2 9876   4.163   7.949   2.331 -1.0288  0.1843  0.2205
 1305SOL     OW 9877   2.954  10.019   1.641 -0.0988 -0.0331 -0.2087
 1305SOL    HW1 9878   2.950  10.107   1.603 -0.7376  0.1689  0.3231
 1305SOL    HW2 9879   3.033   9.981   1.603  1.1148  1.3519  0.8079
 1306SOL     OW 9880   4.602   1.793   2.944 -0.6588 -0.0807 -0.1061
 1306SOL    HW1 9881   4.564   1.865   2.992  0.2367  1.7606 -1.9901
 1306SOL    HW2 9882   4.653   1.744   3.009  2.4838  3.6322  0.5812
 1307SOL     OW 9883   1.904   9.234   2.710  0.0744  0.8354 -0.0725
 1307SOL    HW1 9884   1.987   9.280   2.695 -0.5183  1.2347 -2.6728
 1307SOL    HW2 9885   1.891   9.181   2.631 -0.9044 -1.2846  1.4198
 1308SOL     OW 9886   6.319   4.955  11.806  0.1517 -0.3786  0.1924
 1308SOL    HW1 9887   6.388   4.972  11.741 -0.7710  0.4386 -0.6016
 1308SOL    HW2 9888   6.305   4.861  11.803  1.1705 -0.5444  0.3051
 1309SOL     OW 9889  11.641   1.783  12.046 -0.0822  0.4862  0.0501
 1309SOL    HW1 9890  11.712   1.719  12.051  0.3911  0.9646 -0.4487
 1309SOL    HW2 9891  11.683   1.863  12.015 -1.0203  0.4887 -1.3017
 1310SOL     OW 9892   2.397   6.477  11.271 -0.1299 -0.1210 -0.3673
 1310SOL    HW1 9893   2.487   6.498  11.297 -0.6594  1.7724  0.0833
 1310SOL    HW2 9894   2.360   6.561  11.244 -1.5825 -0.9769 -1.1618
 1311SOL     OW 9895   7.192   1.119   3.506 -0.3595  0.1923 -0.3173
 1311SOL    HW1 9896   7.241   1.072   3.574  1.0948  0.3936 -1.1856
 1311SOL    HW2 9897   7.257   1.139   3.439 -1.3614  1.7222 -0.8831
 1312SOL     OW 9898  10.633   1.613   4.558 -0.1592 -0.3801 -0.4954
 1312SOL    HW1 9899  10.622   1.708   4.556  2.4140 -0.0225 -1.1418
 1312SOL    HW2 9900  10.563   1.582   4.616 -0.0906  2.0460  1.0127
 1313SOL     OW 9901   8.413   3.676   3.799  0.0309 -0.1099 -0.2250
 1313SOL    HW1 9902   8.479   3.740   3.823  0.3168  0.1080 -1.5022
 1313SOL    HW2 9903   8.357   3.721   3.735  0.1247 -1.0444 -1.0008
 1314SOL     OW 9904  10.017   6.114  11.483 -0.2024 -0.5697  0.0636
 1314SOL    HW1 9905  10.008   6.195  11.535 -2.2416  0.6668 -2.0073
 1314SOL    HW2 9906  10.086   6.134  11.420 -0.4950 -0.5507 -0.2505
 1315SOL     OW 9907   9.370   7.159   0.171 -0.0695  0.4003 -0.0395
 1315SOL    HW1 9908   9.357   7.239   0.223 -1.4018  0.4947 -0.4936
 1315SOL    HW2 9909   9.446   7.179   0.116 -1.5716  2.1837 -1.6084
 1316SOL     OW 9910   8.068   4.888   3.252 -0.2805 -0.0043  0.3114
 1316SOL    HW1 9911   8.072   4.827   3.326 -0.8199  0.4604  0.7230
 1316SOL    HW2 9912   7.983   4.931   3.260  0.7114  1.9712  0.9558
 1317SOL     OW 9913   1.225   2.270   6.445  0.4485  0.2713  0.3155
 1317SOL    HW1 9914   1.129   2.270   6.440  0.3170 -4.1950 -2.4206
 1317SOL    HW2 9915   1.254   2.303   6.360  1.2796  0.2285  0.5683
 1318SOL     OW 9916  12.232  10.155   6.152 -0.2352  0.2759  0.0494
 1318SOL    HW1 9917  12.142  10.187   6.159 -0.7539 -1.1366  0.0999
 1318SOL    HW2 9918  12.246  10.141   6.058 -0.3363 -0.2555  0.1143
 1319SOL     OW 9919   3.772   3.474   1.083 -0.4034  0.7957  0.1668
 1319SOL    HW1 9920   3.760   3.568   1.080 -0.1335  0.8095 -0.5021
 1319SOL    HW2 9921   3.752   3.450   1.174 -0.1361  1.5381  0.4231
 1320SOL     OW 9922  10.651   4.069   9.930  0.4847 -0.2000 -0.5252
 1320SOL    HW1 9923  10.601   4.006   9.982 -1.2705  0.5004 -1.3143
 1320SOL    HW2 9924  10.713   4.015   9.880  0.0070 -1.1544 -0.1076
 1321SOL     OW 9925   4.759   7.479   4.583  0.0479 -0.2778 -0.2314
 1321SOL    HW1 9926   4.664   7.493   4.574  0.3902  0.9862 -2.8133
 1321SOL    HW2 9927   4.793   7.561   4.618  0.4114  0.2118 -1.6425
 1322SOL     OW 9928  11.299   9.402   6.519 -0.1906  0.5864  0.4714
 1322SOL    HW1 9929  11.295   9.321   6.468 -2.7036  1.2073 -0.4255
 1322SOL    HW2 9930  11.392   9.426   6.518  0.5853 -2.0488  0.4747
 1323SOL     OW 9931  10.912  12.333   8.540  0.2770 -0.4891 -0.4503
 1323SOL    HW1 9932  10.962  12.392   8.596 -0.0332  1.7922 -2.4129
 1323SOL    HW2 9933  10.821  12.343   8.569  0.2050  0.1534 -0.8826
 1324SOL     OW 9934  11.189   9.387   6.989 -0.8910 -0.1702 -0.0260
 1324SOL    HW1 9935  11.229   9.393   6.902  0.3710  3.4559  0.6193
 1324SOL    HW2 9936  11.223   9.305   7.025  2.4643  0.4846 -1.2585
 1325SOL     OW 9937   6.853   2.816   4.604 -0.0223  0.3375 -0.1597
 1325SOL    HW1 9938   6.922   2.880   4.621  0.1680  0.5019 -1.4983
 1325SOL    HW2 9939   6.815   2.841   4.520 -1.0568 -0.3385  0.0805
 1326SOL     OW 9940  12.023   5.408   0.272  0.1284  0.2474  0.1063
 1326SOL    HW1 9941  11.940   5.393   0.318 -0.4212  0.5023 -0.7812
 1326SOL    HW2 9942  12.074   5.463   0.331 -0.0222 -0.5295  0.9933
 1327SOL     OW 9943   9.210   2.180   6.315 -0.2230  0.2284 -0.0465
 1327SOL    HW1 9944   9.169   2.266   6.321  2.2691  1.4637  0.0513
 1327SOL    HW2 9945   9.260   2.182   6.233 -0.0915 -1.1305 -0.0333
 1328SOL     OW 9946   2.723   9.007   4.124 -0.1141  0.2035 -0.4676
 1328SOL    HW1 9947   2.818   9.016   4.111 -0.1509  1.1109 -0.2072
 1328SOL    HW2 9948   2.685   9.061   4.055 -0.3984  1.1245  0.3799
 1329SOL     OW 9949   0.316   6.646   4.448 -0.2925  0.3376  0.1982
 1329SOL    HW1 9950   0.362   6.721   4.485 -1.4093  0.1641  2.0820
 1329SOL    HW2 9951   0.261   6.614   4.519 -3.4752  0.6310 -1.8996
 1330SOL     OW 9952   6.909   3.673   3.629  0.2406  0.2179  0.2074
 1330SOL    HW1 9953   7.003   3.682   3.640  0.1352  1.1808  0.4324
 1330SOL    HW2 9954   6.873   3.683   3.717 -0.1137  0.4247  0.0439
 1331SOL     OW 9955   2.363   7.241  10.631 -0.0913  0.1083  0.1646
 1331SOL    HW1 9956   2.358   7.221  10.725  0.9221 -1.4451 -0.0760
 1331SOL    HW2 9957   2.300   7.182  10.591  0.7391 -0.4936 -0.2817
 1332SOL     OW 9958   3.928   6.850   8.612  0.3158 -0.3961 -1.3386
 1332SOL    HW1 9959   3.914   6.827   8.520 -0.0549 -3.2092 -0.6566
 1332SOL    HW2 9960   4.019   6.879   8.616 -0.3798  2.3229 -2.9855
 1333SOL     OW 9961   8.978   6.166   9.633  0.9835  0.1543 -0.3295
 1333SOL    HW1 9962   9.040   6.135   9.566  1.8968  1.9733 -0.3811
 1333SOL    HW2 9963   8.926   6.233   9.589 -1.5834 -1.7912 -0.4831
 1334SOL     OW 9964   0.082   5.372   7.059 -0.0280 -0.1341  0.7328
 1334SOL    HW1 9965   0.130   5.289   7.051 -1.2900 -0.8929  0.7355
 1334SOL    HW2 9966   0.148   5.436   7.084  1.0596 -1.0474  0.2740
 1335SOL     OW 9967   1.688  11.445   3.064  0.1272 -0.0054  0.3597
 1335SOL    HW1 9968   1.594  11.459   3.055  0.3225  0.1356 -2.0665
 1335SOL    HW2 9969   1.715  11.503   3.135 -1.1688  2.1576 -0.8189
 1336SOL     OW 9970   5.363   3.649   9.363 -0.0378 -0.3930  0.2535
 1336SOL    HW1 9971   5.438   3.638   9.305 -1.3720 -1.7877 -1.2936
 1336SOL    HW2 9972   5.359   3.743   9.380  0.7339 -0.0255 -1.4559
 1337SOL     OW 9973   3.973   9.454   6.737  0.5589 -0.3275  0.1119
 1337SOL    HW1 9974   4.039   9.497   6.682  0.9194 -0.5843  0.3347
 1337SOL    HW2 9975   3.958   9.516   6.808 -1.8860  1.2366 -1.6073
 1338SOL     OW 9976   7.640   7.900  10.428  0.0920  0.0949  0.2538
 1338SOL    HW1 9977   7.667   7.842  10.500 -0.3544 -1.2940 -0.6541
 1338SOL    HW2 9978   7.669   7.854  10.349 -3.4910 -0.7896 -0.7145
 1339SOL     OW 9979   1.283   3.654   1.894 -0.2595 -0.0836 -0.0168
 1339SOL    HW1 9980   1.293   3.665   1.799  0.0942  0.6228  0.0930
 1339SOL    HW2 9981   1.231   3.729   1.921  2.9524  2.0434  0.8901
 1340SOL     OW 9982   9.773   6.050   6.595 -0.1983  0.3586  0.6572
 1340SOL    HW1 9983   9.680   6.062   6.579 -0.1860 -0.0992  0.2369
 1340SOL    HW2 9984   9.813   6.135   6.573 -0.4221  0.3274  0.1304
 1341SOL     OW 9985   2.696  11.450  11.611  0.2358 -0.0704 -0.6627
 1341SOL    HW1 9986   2.632  11.458  11.682  0.0677 -1.2217 -0.6644
 1341SOL    HW2 9987   2.662  11.504  11.541 -0.7339 -0.6453 -0.6499
 1342SOL     OW 9988   3.521   2.624   0.256 -0.2275  0.6008  0.0579
 1342SOL    HW1 9989   3.597   2.638   0.312 -1.8093  0.6956  2.2809
 1342SOL    HW2 9990   3.490   2.713   0.236 -1.0632  0.5585  1.0829
 1343SOL     OW 9991   7.036  11.326   0.907 -0.2192  0.0172  0.4253
 1343SOL    HW1 9992   7.041  11.351   0.999  0.3355 -0.1195  0.4346
 1343SOL    HW2 9993   7.019  11.408   0.861  0.4137  0.2399  0.5686
 1344SOL     OW 9994   9.633   5.373   9.460 -0.7331  0.0776  0.1091
 1344SOL    HW1 9995   9.568   5.432   9.498 -2.3075  0.1257 -2.4440
 1344SOL    HW2 9996   9.684   5.428   9.400 -0.0203 -0.5025  0.1626
 1345SOL     OW 9997   2.742   5.330   0.498  0.1258 -0.4490  0.0437
 1345SOL    HW1 9998   2.763   5.262   0.562 -1.3607 -1.6341 -0.6689
 1345SOL    HW2 9999   2.827   5.367   0.474  0.7641 -0.2054  2.3998
 1346SOL     OW10000  11.087   1.347   9.101 -0.2738  0.0398 -0.0922
 1346SOL    HW110001  11.096   1.436   9.133  0.7895 -0.5433  1.3253
 1346SOL    HW210002  11.118   1.350   9.011  1.5123  0.7685  0.5128
 1347SOL     OW10003   0.489  11.222  11.469  0.1504 -0.5104 -0.4332
 1347SOL    HW110004   0.447  11.308  11.465  0.0296 -0.3798  2.3543
 1347SOL    HW210005   0.527  11.211  11.381 -0.5024  2.0111 -1.1228
 1348SOL     OW10006   5.303   8.514   8.926 -0.0733 -0.2741  0.0513
 1348SOL    HW110007   5.338   8.576   8.860 -1.1587  0.2195 -0.0862
 1348SOL    HW210008   5.378   8.462   8.952  0.5882  0.1924 -0.8611
 1349SOL     OW10009  11.248   2.877   6.101  0.1380 -0.2557  0.0057
 1349SOL    HW110010  11.252   2.955   6.157  1.4900 -0.4012  0.1543
 1349SOL    HW210011  11.291   2.809   6.153  1.1199 -0.4775 -1.0577
 1350SOL     OW10012   7.110   2.438   1.080  0.0768  0.1243  0.1843
 1350SOL    HW110013   7.030   2.388   1.097  0.4295 -0.2034  0.9310
 1350SOL    HW210014   7.131   2.418   0.989 -0.6055  0.0943  0.0242
 1351SOL     OW10015   1.602   6.813  10.670  0.0855 -0.6850  0.0813
 1351SOL    HW110016   1.661   6.875  10.628  0.3956  0.3897  1.9785
 1351SOL    HW210017   1.645   6.729  10.663 -0.9928 -1.0726 -3.8159
 1352SOL     OW10018   6.889   3.541   9.925  0.1304 -0.0985  0.8127
 1352SOL    HW110019   6.798   3.544   9.895  0.2743 -1.1629  0.2333
 1352SOL    HW210020   6.885   3.573  10.016 -0.5964  1.2486  0.3390
 1353SOL     OW10021  12.131   0.368  10.149  0.3407 -0.2280 -0.2599
 1353SOL    HW110022  12.200   0.430  10.171  0.7082 -0.7359  0.0324
 1353SOL    HW210023  12.050   0.413  10.173  0.6361 -0.0890  0.5056
 1354SOL     OW10024   2.498   7.746   7.246 -0.1368 -0.8818  0.3624
 1354SOL    HW110025   2.564   7.812   7.265  1.6779 -2.4756 -0.0296
 1354SOL    HW210026   2.467   7.768   7.158 -0.3001 -0.0064  0.6287
 1355SOL     OW10027   6.558   3.570   5.259  0.4829 -0.1109 -0.3658
 1355SOL    HW110028   6.620   3.636   5.290  0.3331 -1.0293  2.0884
 1355SOL    HW210029   6.473   3.601   5.291  0.1929 -0.7001 -0.5634
 1356SOL     OW10030   6.289  11.526  11.732 -0.2333  0.6111 -0.0903
 1356SOL    HW110031   6.232  11.584  11.781  0.9014  0.8576  1.0028
 1356SOL    HW210032   6.362  11.508  11.791 -0.9252 -2.6640 -0.0068
 1357SOL     OW10033   7.816   2.829   4.510  0.8858 -0.1269  0.2505
 1357SOL    HW110034   7.835   2.820   4.603 -1.0378 -2.2035  0.5314
 1357SOL    HW210035   7.901   2.817   4.467  1.6143 -0.2956  1.6695
 1358SOL     OW10036   7.416   5.879   5.416  0.2534  0.7252  0.2109
 1358SOL    HW110037   7.344   5.871   5.353  0.3180 -1.0127  0.3114
 1358SOL    HW210038   7.374   5.870   5.501  0.4704  0.5328  0.2995
 1359SOL     OW10039   4.631   8.504   4.209 -0.2618 -0.1657 -0.0739
 1359SOL    HW110040   4.663   8.469   4.292 -1.3337  0.0702  0.4630
 1359SOL    HW210041   4.655   8.596   4.211 -2.6789  0.5301  1.2901
 1360SOL     OW10042  11.685   7.086   2.185  0.2404 -0.0417 -0.6065
 1360SOL    HW110043  11.639   7.150   2.240 -0.4807  0.0044 -1.2508
 1360SOL    HW210044  11.739   7.036   2.247  2.0861  2.1897 -0.2328
 1361SOL     OW10045   5.736   9.489   5.240  0.0620  0.5570  0.0548
 1361SOL    HW110046   5.730   9.434   5.162 -1.5127 -0.5187  0.8851
 1361SOL    HW210047   5.766   9.430   5.309 -0.4349  1.0210  0.6830
 1362SOL     OW10048   9.234   9.033   2.166  0.0629  0.1574  0.2089
 1362SOL    HW110049   9.236   9.097   2.238 -3.0136  0.8804 -0.2140
 1362SOL    HW210050   9.181   9.075   2.098  2.2890 -0.7863 -2.2981
 1363SOL     OW10051   8.392   5.622   4.577  0.4974  0.1506 -0.1499
 1363SOL    HW110052   8.379   5.541   4.528  0.6724 -0.8441  1.3570
 1363SOL    HW210053   8.305   5.646   4.607  0.4859  0.3649 -0.3530
 1364SOL     OW10054   1.445   8.853  10.835 -0.1254 -0.2499  0.2463
 1364SOL    HW110055   1.382   8.870  10.766 -0.2175  1.6134  0.7408
 1364SOL    HW210056   1.503   8.785  10.799 -0.5774  0.1885 -1.3771
 1365SOL     OW10057  10.353  11.448   8.175  0.5472  0.4982  0.0847
 1365SOL    HW110058  10.263  11.473   8.154 -0.0047 -0.6330  0.9519
 1365SOL    HW210059  10.371  11.374   8.118 -0.4235 -1.6154  2.3179
 1366SOL     OW10060   8.303   0.667   4.252 -0.1000 -0.3056 -0.0017
 1366SOL    HW110061   8.265   0.707   4.173  2.2962 -0.2895 -1.2432
 1366SOL    HW210062   8.368   0.605   4.219  0.1486 -1.1890  1.9810
 1367SOL     OW10063  10.063  10.009   0.241  0.0010 -0.4088 -0.1847
 1367SOL    HW110064   9.987  10.055   0.206  0.2743  0.4423  0.3031
 1367SOL    HW210065  10.137  10.065   0.218  0.4305 -1.0026 -0.2598
 1368SOL     OW10066   0.538  10.303  10.212  0.1437  0.2941 -0.7277
 1368SOL    HW110067   0.601  10.368  10.180  0.0115  0.8029  0.0165
 1368SOL    HW210068   0.476  10.354  10.265  0.0895 -0.4481 -0.0626
 1369SOL     OW10069   7.128   2.230   9.125 -0.0078  0.6881 -0.2647
 1369SOL    HW110070   7.143   2.196   9.214  2.0828  2.0439 -0.0400
 1369SOL    HW210071   7.082   2.312   9.138 -0.9870  0.2000 -0.5495
 1370SOL     OW10072   7.311   5.237   0.887  0.1569  0.2972 -0.2033
 1370SOL    HW110073   7.226   5.194   0.876 -0.7328  1.6920  0.8649
 1370SOL    HW210074   7.310   5.269   0.977  1.6714  0.6881 -0.3013
 1371SOL     OW10075   6.689   9.571   4.368  0.1932 -0.5122 -0.5753
 1371SOL    HW110076   6.597   9.577   4.345 -0.0585 -1.1507  0.2106
 1371SOL    HW210077   6.691   9.515   4.446  1.0960  0.6094  0.2484
 1372SOL     OW10078   0.289   0.294   2.442  0.0881  0.1523 -1.1134
 1372SOL    HW110079   0.217   0.355   2.434  0.2520  0.2510 -1.9085
 1372SOL    HW210080   0.349   0.335   2.504 -1.9248 -1.3291  2.0805
 1373SOL     OW10081   7.249   7.125  11.250 -1.0292 -0.2213  0.3422
 1373SOL    HW110082   7.234   7.217  11.273  1.3931  0.2415  0.2665
 1373SOL    HW210083   7.267   7.082  11.333 -1.3087 -0.4661  0.2781
 1374SOL     OW10084   4.276   6.352  11.882  0.0800 -0.7528  0.6376
 1374SOL    HW110085   4.199   6.379  11.830  0.9440 -1.0362 -0.8598
 1374SOL    HW210086   4.337   6.426  11.873  1.2749 -1.8598 -0.9967
 1375SOL     OW10087  10.035   6.445   9.115  0.1419 -0.4896 -0.2195
 1375SOL    HW110088   9.959   6.387   9.119 -0.4722  0.2420 -0.9417
 1375SOL    HW210089   9.999   6.532   9.129  0.6337  0.0152 -1.8868
 1376SOL     OW10090   7.931   0.820   9.985 -0.5282 -0.0426  0.3607
 1376SOL    HW110091   8.025   0.800   9.990 -0.7520 -1.8223 -1.3844
 1376SOL    HW210092   7.919   0.855   9.896 -1.8661 -2.2067 -0.3846
 1377SOL     OW10093   8.468  12.064  12.130 -0.2807  0.1182 -0.5925
 1377SOL    HW110094   8.539  12.046  12.191 -1.0003 -1.7415 -0.2167
 1377SOL    HW210095   8.511  12.079  12.046  0.5893 -0.2835 -0.2287
 1378SOL     OW10096   7.568   6.773   4.874  0.8603  0.2241 -0.0325
 1378SOL    HW110097   7.540   6.863   4.861  0.7958  0.3463  0.8974
 1378SOL    HW210098   7.532   6.749   4.959  1.4450 -0.4598  0.0289
 1379SOL     OW10099   5.617   4.401   7.034  0.4016  0.5953 -0.4272
 1379SOL    HW110100   5.632   4.490   7.064 -1.5037  0.8297 -0.0102
 1379SOL    HW210101   5.594   4.410   6.942  1.0184  0.4458 -0.5960
 1380SOL     OW10102   3.746   2.728   5.381  0.0066 -0.2764 -0.1252
 1380SOL    HW110103   3.812   2.664   5.353 -1.6986 -3.6487  2.8043
 1380SOL    HW210104   3.683   2.730   5.308 -0.4923 -3.0125  0.0953
 1381SOL     OW10105   4.116   0.594   7.053 -0.3659 -0.1975 -0.0741
 1381SOL    HW110106   4.205   0.560   7.041 -0.1324  0.9368 -1.8841
 1381SOL    HW210107   4.108   0.607   7.147  2.0529  1.3692 -0.0092
 1382SOL     OW10108   5.199   7.252   9.657  0.2661  0.5627  0.5123
 1382SOL    HW110109   5.196   7.340   9.694 -0.0688  1.2947 -1.1986
 1382SOL    HW210110   5.153   7.198   9.722 -0.7929  1.8907  0.9075
 1383SOL     OW10111   1.733   8.507   7.025  0.2826 -0.3665  0.5232
 1383SOL    HW110112   1.750   8.601   7.013  1.7470 -0.6946 -0.1248
 1383SOL    HW210113   1.661   8.504   7.087 -1.9942  1.2813 -1.7919
 1384SOL     OW10114   7.788   5.401  10.465  0.1668 -0.9962 -0.1753
 1384SOL    HW110115   7.718   5.374  10.524 -1.8112  2.9814 -0.3321
 1384SOL    HW210116   7.867   5.399  10.519 -1.2370  0.5357  2.0775
 1385SOL     OW10117  11.647   8.915  10.302  0.7383 -0.5190  0.0836
 1385SOL    HW110118  11.659   8.974  10.376 -1.2425  0.5166 -0.3541
 1385SOL    HW210119  11.713   8.942  10.239  0.8840  0.1789  0.5235
 1386SOL     OW10120   6.777  10.321   1.987  0.0856  0.5520  0.3217
 1386SOL    HW110121   6.753  10.301   2.078  0.3927  0.7645  0.4515
 1386SOL    HW210122   6.845  10.388   1.995  0.4269  0.2540 -0.0495
 1387SOL     OW10123   9.541  11.212   0.464 -0.4236  0.0687 -0.8684
 1387SOL    HW110124   9.456  11.197   0.505  1.0325  0.0601  2.3952
 1387SOL    HW210125   9.580  11.285   0.513  1.6085 -0.1416 -2.0347
 1388SOL     OW10126   1.754   7.871  11.896  0.7592  0.5761  0.7583
 1388SOL    HW110127   1.727   7.782  11.873  1.8170  0.1397  1.1229
 1388SOL    HW210128   1.736   7.923  11.817 -0.0440  0.0918  0.6060
 1389SOL     OW10129   3.802  11.329   4.893  0.3878  0.1237  0.2288
 1389SOL    HW110130   3.890  11.364   4.903  0.3824  0.1681  0.1310
 1389SOL    HW210131   3.773  11.362   4.807  0.1763  0.3291  0.3767
 1390SOL     OW10132  11.206   6.457   0.859  0.1354 -0.3041  0.7178
 1390SOL    HW110133  11.250   6.465   0.944  2.2378 -0.0274 -0.3198
 1390SOL    HW210134  11.194   6.547   0.829 -2.5824 -0.3000  1.6119
 1391SOL     OW10135   8.639   1.116   0.048  0.2606 -0.1670  0.5244
 1391SOL    HW110136   8.699   1.086   0.116 -1.3515 -2.4912  1.0346
 1391SOL    HW210137   8.568   1.159   0.095 -0.1788 -0.5517  0.2252
 1392SOL     OW10138   6.641   4.035  11.226  0.4694 -0.3263 -0.2702
 1392SOL    HW110139   6.683   3.960  11.184 -0.0360  0.1881 -1.7542
 1392SOL    HW210140   6.709   4.103  11.228 -0.1140  0.4035 -2.3960
 1393SOL     OW10141   6.117   8.986   7.352 -0.4577  0.1696 -0.1155
 1393SOL    HW110142   6.114   8.890   7.354  0.1461  0.1375 -0.4283
 1393SOL    HW210143   6.124   9.007   7.259 -0.5885  0.5178 -0.0470
 1394SOL     OW10144   2.594  12.197  11.464  0.0608 -0.4877 -0.4198
 1394SOL    HW110145   2.612  12.192  11.371 -1.3569 -0.7878 -0.7057
 1394SOL    HW210146   2.669  12.242  11.501  0.6580 -0.3994 -1.6984
 1395SOL     OW10147  12.267   5.348  10.452  0.2570  0.1959 -0.9424
 1395SOL    HW110148  12.221   5.285  10.508 -1.0051  1.1825 -0.8119
 1395SOL    HW210149  12.208   5.362  10.379  0.3431  1.4906 -0.7820
 1396SOL     OW10150  11.509   6.809   5.094  0.1407  0.0049 -0.4645
 1396SOL    HW110151  11.416   6.831   5.091  0.2798  0.5934 -0.7258
 1396SOL    HW210152  11.516   6.742   5.161 -0.2955  0.8994  0.5151
 1397SOL     OW10153  11.734   8.868   5.801 -0.3471  0.4376  0.2458
 1397SOL    HW110154  11.774   8.853   5.716 -0.5912  1.3643 -0.0420
 1397SOL    HW210155  11.749   8.787   5.850  0.8062  0.3268 -0.2750
 1398SOL     OW10156  11.404   3.346  10.246 -0.4157 -0.0602  0.1720
 1398SOL    HW110157  11.402   3.262  10.200  2.3280 -0.5420  0.7672
 1398SOL    HW210158  11.393   3.412  10.177 -2.2180 -0.8593 -0.3435
 1399SOL     OW10159   0.075   3.846   0.703  0.8578  0.3186 -0.0311
 1399SOL    HW110160   0.141   3.779   0.718  2.1772  1.7946  1.1221
 1399SOL    HW210161   0.019   3.843   0.780  0.6462  0.2598 -0.1845
 1400SOL     OW10162   3.706   7.075   4.239 -0.1086  0.0565 -0.0346
 1400SOL    HW110163   3.611   7.068   4.242 -0.0916  0.0027  0.6089
 1400SOL    HW210164   3.725   7.136   4.168 -0.6990  1.4939  1.0064
 1401SOL     OW10165  10.907   9.958   4.552 -0.4480  0.3973  0.0817
 1401SOL    HW110166  10.817   9.949   4.583 -1.0157  0.1750 -1.5435
 1401SOL    HW210167  10.934   9.868   4.531  0.1710  0.4605  0.5652
 1402SOL     OW10168  12.328   0.151   3.989  0.4585  0.3254 -0.0143
 1402SOL    HW110169  12.321   0.056   3.978 -0.8063  0.1571  1.7721
 1402SOL    HW210170  12.369   0.162   4.074  3.0385  1.4599 -1.2933
 1403SOL     OW10171   4.850   5.924  10.171  0.2221  0.6328 -0.2128
 1403SOL    HW110172   4.943   5.900  10.167  0.6569  2.2210 -0.4186
 1403SOL    HW210173   4.809   5.854  10.222  1.1433 -1.1901 -1.8327
 1404SOL     OW10174   5.411   8.333  10.138  0.1304 -0.4692 -0.1627
 1404SOL    HW110175   5.494   8.287  10.153  0.2741 -0.0358  0.4080
 1404SOL    HW210176   5.391   8.373  10.223 -1.7011 -2.2485  0.3369
 1405SOL     OW10177   6.670   1.649   9.834 -0.4929 -0.4494  0.1827
 1405SOL    HW110178   6.753   1.604   9.822  1.1188  2.1451  0.7028
 1405SOL    HW210179   6.638   1.618   9.919  0.2371 -1.0421  0.2490
 1406SOL     OW10180   4.888   9.072   3.682 -0.2107  0.7164 -0.3344
 1406SOL    HW110181   4.794   9.068   3.702 -0.1095 -2.0209 -0.0384
 1406SOL    HW210182   4.893   9.047   3.589  0.2589  0.2415 -0.1813
 1407SOL     OW10183   1.988   1.576   8.207 -0.0591 -0.2548  0.5882
 1407SOL    HW110184   1.893   1.580   8.197  0.0246  1.0025  0.1325
 1407SOL    HW210185   2.010   1.646   8.268  0.7251  0.6406 -0.6618
 1408SOL     OW10186   3.060   4.523  11.385 -0.3130  0.1620  0.4239
 1408SOL    HW110187   3.117   4.571  11.326 -0.5232 -0.8534 -0.6335
 1408SOL    HW210188   3.104   4.529  11.470  1.1210 -0.1670 -0.2670
 1409SOL     OW10189   8.994   4.084  10.764 -0.0917 -0.0820  0.0875
 1409SOL    HW110190   8.997   4.141  10.840 -0.9460  0.5541 -0.3311
 1409SOL    HW210191   9.008   3.996  10.798  1.4298  0.3713  0.7254
 1410SOL     OW10192   0.933   2.338   2.790  0.2476 -0.0826  0.4297
 1410SOL    HW110193   0.905   2.313   2.878 -0.6383 -2.4918 -0.4427
 1410SOL    HW210194   0.878   2.413   2.767 -1.8660 -1.4511  0.7507
 1411SOL     OW10195   5.739   6.553   7.019 -0.2819 -0.2738  0.4960
 1411SOL    HW110196   5.677   6.523   6.952 -0.1875  0.2710  0.1595
 1411SOL    HW210197   5.777   6.633   6.982  0.5046 -0.5130  0.7686
 1412SOL     OW10198   3.298   3.823   2.724  0.8015 -0.0513  0.1680
 1412SOL    HW110199   3.310   3.830   2.630  0.6222  0.2707  0.1664
 1412SOL    HW210200   3.278   3.731   2.739 -0.0050  0.0529 -0.2080
 1413SOL     OW10201   7.627   0.272  10.110  0.2072 -0.5037  0.6440
 1413SOL    HW110202   7.609   0.217  10.187  0.0854 -0.6228  0.5329
 1413SOL    HW210203   7.541   0.284  10.070  0.4176 -1.3635 -0.0867
 1414SOL     OW10204   5.575   8.872   1.552 -0.3978 -0.1116  0.5000
 1414SOL    HW110205   5.557   8.964   1.570 -0.0660 -0.0870  0.7048
 1414SOL    HW210206   5.670   8.867   1.542 -0.6212  0.2464 -3.2659
 1415SOL     OW10207   0.102   7.567   9.502 -0.1679 -0.3089  0.1713
 1415SOL    HW110208   0.186   7.540   9.464  0.4009  2.6246 -0.8480
 1415SOL    HW210209   0.125   7.606   9.586 -0.7907 -1.3744  0.8646
 1416SOL     OW10210  11.577   5.922   5.096 -0.0742 -0.0611 -0.8706
 1416SOL    HW110211  11.537   5.860   5.035 -0.7648  0.8719 -1.3975
 1416SOL    HW210212  11.593   6.000   5.043  0.2850  0.4015 -0.0971
 1417SOL     OW10213  11.426   9.160   8.323 -0.0192  0.2793  0.8823
 1417SOL    HW110214  11.499   9.134   8.378 -0.6838  0.3226  1.8109
 1417SOL    HW210215  11.453   9.136   8.234  0.8451 -0.2924  1.2855
 1418SOL     OW10216   0.054   4.230  11.831  0.2879  0.1713 -0.1007
 1418SOL    HW110217   0.123   4.227  11.765 -0.1771  0.1148 -0.5908
 1418SOL    HW210218   0.095   4.195  11.910  1.5801  2.4485  0.3260
 1419SOL     OW10219  11.878   7.696   1.924  0.4065 -0.2741  0.2901
 1419SOL    HW110220  11.930   7.686   2.003 -0.7338 -0.7961  1.0051
 1419SOL    HW210221  11.887   7.612   1.878  0.2328 -0.3553  0.4014
 1420SOL     OW10222   6.475   1.734   3.178  0.4379  0.3831 -0.2558
 1420SOL    HW110223   6.475   1.809   3.119 -0.4307  0.8078  0.2695
 1420SOL    HW210224   6.533   1.760   3.250  1.0189  0.0995 -0.6076
 1421SOL     OW10225   4.664   9.953   2.188 -0.2898  0.0438  0.2901
 1421SOL    HW110226   4.593   9.889   2.191 -0.5303  0.3103  0.3474
 1421SOL    HW210227   4.698   9.948   2.099 -1.2702  0.8687 -0.1540
 1422SOL     OW10228   7.870  11.166   7.571 -0.1247 -0.0620  0.1240
 1422SOL    HW110229   7.957  11.153   7.610 -0.7520  0.5847  1.8660
 1422SOL    HW210230   7.846  11.255   7.597 -0.9782  0.0560 -1.0321
 1423SOL     OW10231   2.709   6.722   6.885  0.5034  0.5722 -0.2364
 1423SOL    HW110232   2.645   6.745   6.818  1.8875 -0.4922 -2.0300
 1423SOL    HW210233   2.701   6.791   6.951 -1.6690  1.0558 -0.9382
 1424SOL     OW10234   9.637  11.441   4.542 -0.1030 -0.3493  0.3987
 1424SOL    HW110235   9.696  11.515   4.531 -0.9411  0.2010 -0.5037
 1424SOL    HW210236   9.688  11.377   4.591  0.3856  1.1103  1.8903
 1425SOL     OW10237   2.562   7.015   3.409  0.2210  0.2351  0.0893
 1425SOL    HW110238   2.628   6.976   3.467  0.6689 -1.5529 -1.5360
 1425SOL    HW210239   2.483   7.022   3.464  1.1953  0.6190  1.5020
 1426SOL     OW10240   3.363   4.867   8.154  0.2218 -0.6136  0.6678
 1426SOL    HW110241   3.309   4.931   8.200 -1.5388 -1.6329  0.1347
 1426SOL    HW210242   3.303   4.827   8.090  1.8283 -1.2661 -0.4971
 1427SOL     OW10243  10.672  11.013   3.120 -0.0070 -0.0719 -0.0971
 1427SOL    HW110244  10.730  11.076   3.164 -1.3032  0.9849  0.1518
 1427SOL    HW210245  10.662  10.942   3.183  1.4756 -0.5595 -0.3761
 1428SOL     OW10246   0.293   7.227   0.975 -0.1489  0.3314  0.2787
 1428SOL    HW110247   0.205   7.261   0.960 -0.5789 -0.7768  0.1330
 1428SOL    HW210248   0.343   7.254   0.898 -1.0402 -1.1326 -0.8721
 1429SOL     OW10249   9.764   7.262  10.445  0.0662 -0.1707 -0.2617
 1429SOL    HW110250   9.791   7.347  10.478 -1.2053  0.0796  0.2040
 1429SOL    HW210251   9.769   7.204  10.520  1.3509 -0.6385 -0.6782
 1430SOL     OW10252  12.101  11.714   5.748  0.3050 -0.5533 -0.0344
 1430SOL    HW110253  12.041  11.664   5.692  0.0256  0.0007 -0.2330
 1430SOL    HW210254  12.093  11.804   5.717 -0.3392 -0.1194  1.3307
 1431SOL     OW10255   6.742   8.656   8.250  0.3881  0.0528 -0.1522
 1431SOL    HW110256   6.754   8.681   8.342  1.0346 -1.1594  0.1087
 1431SOL    HW210257   6.761   8.562   8.247  1.6592  0.3091 -1.7538
 1432SOL     OW10258   7.084   5.635   0.361  0.3557 -0.1542  0.1017
 1432SOL    HW110259   7.156   5.632   0.424  1.3364  1.9532 -0.8286
 1432SOL    HW210260   7.019   5.693   0.399  0.9633  1.1497 -0.7637
 1433SOL     OW10261   3.177   8.562   1.268 -0.3779 -0.4044 -0.0292
 1433SOL    HW110262   3.240   8.627   1.240 -0.5276 -0.8091 -1.3961
 1433SOL    HW210263   3.145   8.593   1.353  1.5732 -0.1598  0.6516
 1434SOL     OW10264   2.805   3.852   8.393  0.8451 -0.0250 -0.1848
 1434SOL    HW110265   2.900   3.863   8.397  0.7502  0.4784  0.9318
 1434SOL    HW210266   2.770   3.940   8.408  0.1891 -0.4262  0.7581
 1435SOL     OW10267   7.729   5.584   4.387  0.3839  0.4212  0.1456
 1435SOL    HW110268   7.709   5.562   4.478 -1.3177  0.9352 -0.0628
 1435SOL    HW210269   7.814   5.543   4.370  0.3507 -0.3626  1.7166
 1436SOL     OW10270  12.398   9.321   8.726  0.4880 -0.0275  0.0436
 1436SOL    HW110271  12.419   9.414   8.715 -0.6895  0.3446  0.7833
 1436SOL    HW210272  12.463   9.288   8.788  0.1335  0.6239  0.7762
 1437SOL     OW10273   0.253   5.380   9.920 -0.2507  0.1453  0.1494
 1437SOL    HW110274   0.230   5.456   9.974 -0.6106  1.4835 -1.7509
 1437SOL    HW210275   0.203   5.308   9.956 -2.3505  1.5328  0.1703
 1438SOL     OW10276   5.117  10.755   3.044  0.9950 -0.4345  0.2326
 1438SOL    HW110277   5.174  10.813   3.094  1.5850  0.2206 -1.1561
 1438SOL    HW210278   5.029  10.786   3.063  1.1206 -0.9788  1.8079
 1439SOL     OW10279  11.715   0.797   7.595 -0.2714  0.1015 -0.0643
 1439SOL    HW110280  11.720   0.704   7.614  0.4252  0.1921  0.2333
 1439SOL    HW210281  11.624   0.820   7.610 -1.1343 -1.0820 -2.7650
 1440SOL     OW10282   0.993  10.994   3.335 -0.3634 -0.0048 -0.2566
 1440SOL    HW110283   1.054  10.996   3.409 -1.7178 -1.0427  0.9549
 1440SOL    HW210284   1.011  10.912   3.291 -0.9266 -0.3705  0.1739
 1441SOL     OW10285   2.403   7.703  11.608  0.0912 -0.6812  0.2280
 1441SOL    HW110286   2.460   7.707  11.531  0.0039 -0.3478  0.1818
 1441SOL    HW210287   2.325   7.657  11.578 -1.4783  2.4073 -0.8653
 1442SOL     OW10288   0.979   3.574   4.064 -0.0907 -0.4466 -0.0374
 1442SOL    HW110289   0.908   3.637   4.081 -0.4347 -0.9849  0.5932
 1442SOL    HW210290   1.048   3.598   4.126 -0.0312 -0.3885 -0.1273
 1443SOL     OW10291   8.968  10.013   7.070 -0.0023 -0.3590 -0.3210
 1443SOL    HW110292   8.974   9.944   7.136 -0.5142 -1.1361 -1.0574
 1443SOL    HW210293   8.897   9.985   7.012 -0.8713  1.2718 -0.1060
 1444SOL     OW10294   2.648   2.561   5.045 -0.4091  0.3661  0.2178
 1444SOL    HW110295   2.552   2.566   5.050 -0.4064  0.1524  0.5298
 1444SOL    HW210296   2.666   2.543   4.952 -0.7149 -0.3903  0.2939
 1445SOL     OW10297   4.371  10.572   8.067 -0.2922 -0.0608  0.0573
 1445SOL    HW110298   4.415  10.524   8.137  0.8902 -0.2813 -0.7843
 1445SOL    HW210299   4.367  10.509   7.995 -0.2953  0.5603 -0.4929
 1446SOL     OW10300   3.685   5.527   7.607 -0.3341 -0.4329  0.3155
 1446SOL    HW110301   3.750   5.460   7.586  0.1320 -0.0695  0.5836
 1446SOL    HW210302   3.693   5.540   7.701 -0.1401  0.2743  0.2116
 1447SOL     OW10303  12.422   9.631   7.316 -0.3818 -0.4625 -0.0392
 1447SOL    HW110304  12.411   9.679   7.398 -1.0025 -1.0372  0.2168
 1447SOL    HW210305  12.498   9.672   7.275 -0.1329 -0.0972  0.7674
 1448SOL     OW10306   0.707  11.873   4.242 -0.2801  0.3148 -0.2035
 1448SOL    HW110307   0.739  11.796   4.289 -1.9999  0.3599  1.1403
 1448SOL    HW210308   0.643  11.838   4.180 -0.5256  0.5892 -0.1046
 1449SOL     OW10309  10.230  10.671   0.955  0.0401 -0.5584 -0.4297
 1449SOL    HW110310  10.240  10.750   0.901  0.9420 -1.3675 -1.5007
 1449SOL    HW210311  10.140  10.674   0.986 -0.2518  0.3568 -1.3130
 1450SOL     OW10312  10.985   3.959   3.339 -0.2357 -0.0528 -0.2239
 1450SOL    HW110313  11.063   4.011   3.357 -0.3337  0.2466 -0.6440
 1450SOL    HW210314  10.985   3.891   3.406  0.1429  0.2151  0.0498
 1451SOL     OW10315   5.473   0.730   7.074  0.1413 -0.4835 -0.2718
 1451SOL    HW110316   5.418   0.711   7.150 -1.0607  2.2029 -0.3572
 1451SOL    HW210317   5.562   0.737   7.111 -0.5706  2.0060  1.2261
 1452SOL     OW10318   7.399   2.506   2.772  0.0748 -0.3024  0.2001
 1452SOL    HW110319   7.425   2.444   2.703  3.3908  0.6129  0.4450
 1452SOL    HW210320   7.411   2.457   2.853  1.3473  0.1693  0.3225
 1453SOL     OW10321  11.188   4.447   3.978 -0.4099  0.3104 -0.0973
 1453SOL    HW110322  11.212   4.421   4.067 -0.3429 -0.1220 -0.2385
 1453SOL    HW210323  11.109   4.499   3.988 -1.6829 -1.5304  0.0549
 1454SOL     OW10324   9.049   2.366   1.363  0.6843 -0.5586 -0.0432
 1454SOL    HW110325   8.985   2.294   1.359 -0.4854  0.5027 -1.7622
 1454SOL    HW210326   9.091   2.366   1.277  1.2449  0.3204  0.2152
 1455SOL     OW10327   0.944  12.142   7.983  0.2074 -0.3528 -0.3548
 1455SOL    HW110328   0.988  12.227   7.984 -0.1336 -0.1802  0.4022
 1455SOL    HW210329   0.856  12.161   8.016 -0.6335 -0.5924 -2.2844
 1456SOL     OW10330   3.320   5.052   1.616 -0.3144  0.5250  0.0898
 1456SOL    HW110331   3.292   5.142   1.600  1.4862  1.0656 -0.2090
 1456SOL    HW210332   3.276   5.001   1.548 -0.8755  1.2631 -0.1117
 1457SOL     OW10333  12.401   9.829  10.676  0.1380  0.2365 -0.3646
 1457SOL    HW110334  12.470   9.846  10.611  0.0581 -1.0482 -0.8177
 1457SOL    HW210335  12.320   9.852  10.631  0.2100  1.1680 -0.0407
 1458SOL     OW10336   0.330   6.814   7.644  0.0943 -0.2377  0.2336
 1458SOL    HW110337   0.382   6.893   7.659 -1.3566  0.6299  0.8861
 1458SOL    HW210338   0.304   6.819   7.552  0.5527 -0.3105  0.0970
 1459SOL     OW10339   5.851   2.607   2.623  0.2843 -0.1505  0.1256
 1459SOL    HW110340   5.848   2.691   2.577  2.9897 -0.4212 -0.7526
 1459SOL    HW210341   5.877   2.630   2.713 -0.5185  0.0367  0.3184
 1460SOL     OW10342   0.302   3.824  10.601 -0.5482 -0.2384 -0.0914
 1460SOL    HW110343   0.274   3.769  10.528 -0.4695 -2.1721  1.2619
 1460SOL    HW210344   0.395   3.840  10.584 -0.7773  0.2593 -0.9554
 1461SOL     OW10345   8.394  11.518  10.783  0.1362  0.2785 -0.2161
 1461SOL    HW110346   8.335  11.575  10.832  1.1674  0.0695  1.3495
 1461SOL    HW210347   8.336  11.465  10.728 -0.9495  1.6197 -0.3938
 1462SOL     OW10348  11.826   6.038  11.484  0.3673 -0.5784  0.0799
 1462SOL    HW110349  11.864   5.979  11.419  0.0939 -1.8289  1.0246
 1462SOL    HW210350  11.887   6.037  11.557  0.2927  0.2299  0.1659
 1463SOL     OW10351   9.125   2.795  10.330  0.0053  0.4238 -0.3224
 1463SOL    HW110352   9.101   2.858  10.262 -0.8615 -0.1880 -0.6132
 1463SOL    HW210353   9.127   2.845  10.411 -0.8123  0.8081 -0.5263
 1464SOL     OW10354  10.641   3.811   9.318 -0.5216 -0.0393  0.0404
 1464SOL    HW110355  10.713   3.839   9.260  0.4325  0.7991  1.5650
 1464SOL    HW210356  10.582   3.762   9.260  0.9641 -0.2419 -1.4021
 1465SOL     OW10357   0.731  11.699  10.289 -0.0860  0.1630  0.4974
 1465SOL    HW110358   0.759  11.611  10.312  0.4037  0.3538  0.6562
 1465SOL    HW210359   0.813  11.749  10.283 -0.3813  0.6823  0.7360
 1466SOL     OW10360   6.298  11.703   0.005  0.2009  0.2553  0.0392
 1466SOL    HW110361   6.213  11.663   0.020 -0.2369  0.0293 -2.4774
 1466SOL    HW210362   6.324  11.671  -0.082  1.9884  1.7566 -0.0514
 1467SOL     OW10363   9.330   1.630  12.087 -0.0997 -0.3887  0.0867
 1467SOL    HW110364   9.367   1.582  12.014 -0.6336  0.9872 -1.1349
 1467SOL    HW210365   9.406   1.660  12.137  0.4741  1.4522 -1.7611
 1468SOL     OW10366   0.846   9.447   0.683 -0.1402 -0.3196  0.3738
 1468SOL    HW110367   0.898   9.463   0.604  0.2790 -0.8018  0.5506
 1468SOL    HW210368   0.866   9.520   0.741  0.3325 -0.5046  0.4408
 1469SOL     OW10369   2.975   6.285   4.743  0.2219  0.3473 -0.2151
 1469SOL    HW110370   2.921   6.325   4.811 -0.5614  0.7072 -1.0265
 1469SOL    HW210371   2.933   6.312   4.661  1.3622  0.2338 -0.8487
 1470SOL     OW10372  11.736  10.476   1.514 -0.6033 -0.4620  0.2387
 1470SOL    HW110373  11.705  10.491   1.425 -0.0787 -0.9314 -0.0237
 1470SOL    HW210374  11.796  10.403   1.507  0.3811  0.2688  0.7849
 1471SOL     OW10375   6.335   2.721   5.747  0.0502 -0.3407 -0.7998
 1471SOL    HW110376   6.364   2.722   5.838  0.1552 -0.4300 -0.8322
 1471SOL    HW210377   6.285   2.803   5.737 -0.7648 -0.7773 -0.4048
 1472SOL     OW10378   7.845   3.966   0.287 -0.3475 -0.1653 -0.0927
 1472SOL    HW110379   7.765   4.010   0.256 -0.2385  0.2717  0.2382
 1472SOL    HW210380   7.854   3.891   0.229 -0.0518  0.7420 -1.2657
 1473SOL     OW10381   0.272   7.090  11.693 -0.2916 -0.0531 -0.1216
 1473SOL    HW110382   0.299   7.150  11.623 -1.7309  0.2270 -0.4625
 1473SOL    HW210383   0.312   7.007  11.669  0.8632  0.5016 -0.2032
 1474SOL     OW10384  10.568  11.764   6.309 -0.2322  0.2669  0.0246
 1474SOL    HW110385  10.518  11.704   6.364  0.8794 -0.8160 -0.1074
 1474SOL    HW210386  10.566  11.847   6.357  0.4443 -0.5578  1.5675
 1475SOL     OW10387   7.847  10.611  10.258 -0.5144  0.0585  0.0367
 1475SOL    HW110388   7.795  10.591  10.336 -0.9653  0.8790 -0.0430
 1475SOL    HW210389   7.933  10.575  10.277 -0.8777 -0.6009  0.5133
 1476SOL     OW10390  10.865   9.827  10.506  0.6264  0.5283 -0.4316
 1476SOL    HW110391  10.937   9.879  10.470 -0.2502  0.1107 -2.9928
 1476SOL    HW210392  10.806   9.813  10.432 -1.5369 -0.1226  1.3128
 1477SOL     OW10393   0.753   3.663   7.291  0.4559  0.2612 -0.3457
 1477SOL    HW110394   0.837   3.665   7.337  0.6300  0.9629 -0.6734
 1477SOL    HW210395   0.722   3.573   7.300  0.2341  0.4897  1.5945
 1478SOL     OW10396   8.727   6.156  11.225 -0.1235  0.4405  0.1057
 1478SOL    HW110397   8.662   6.217  11.260  0.7994  1.5238 -0.0156
 1478SOL    HW210398   8.785   6.138  11.300 -0.8912 -1.0126  0.3856
 1479SOL     OW10399   6.784   1.363   4.102  0.0422  0.0754  0.2691
 1479SOL    HW110400   6.690   1.375   4.115  0.1392  0.2604  0.8344
 1479SOL    HW210401   6.816   1.450   4.078 -0.1267 -0.2529 -1.2572
 1480SOL     OW10402   8.271   7.449   3.494  0.6556  0.3119  0.1222
 1480SOL    HW110403   8.191   7.408   3.527  1.2082 -0.5024  0.4627
 1480SOL    HW210404   8.239   7.516   3.433 -0.3062  0.4551  0.7528
 1481SOL     OW10405  11.610   6.623   5.294  0.3715  0.0647 -0.5464
 1481SOL    HW110406  11.688   6.674   5.318 -0.2028 -0.0203  1.7524
 1481SOL    HW210407  11.605   6.555   5.361 -1.5654 -0.0655 -0.7737
 1482SOL     OW10408   8.596   0.612   7.812  0.6266  0.1826 -0.0416
 1482SOL    HW110409   8.564   0.582   7.726 -0.3235  0.8577  0.0547
 1482SOL    HW210410   8.569   0.543   7.873 -1.4165  1.0692  0.1573
 1483SOL     OW10411   1.386   9.210   1.658 -0.0243 -0.2813  0.3708
 1483SOL    HW110412   1.482   9.215   1.660 -0.0801  1.4864  0.5341
 1483SOL    HW210413   1.358   9.301   1.648 -1.7180 -0.5314  2.2086
 1484SOL     OW10414  10.518   1.976   9.766  0.4361 -0.2856 -0.2145
 1484SOL    HW110415  10.602   1.936   9.741  0.4088 -0.8759  0.6085
 1484SOL    HW210416  10.523   2.065   9.731  1.6330 -0.1316  0.3065
 1485SOL     OW10417   1.728  11.582   6.334  0.3002  0.0794  0.2450
 1485SOL    HW110418   1.781  11.612   6.408 -0.1315 -0.3170  0.7275
 1485SOL    HW210419   1.720  11.487   6.348 -0.5511  0.1356  0.2018
 1486SOL     OW10420   9.550   2.865   0.236  0.2343  0.2061  0.3084
 1486SOL    HW110421   9.543   2.898   0.326  1.1582  1.6836 -0.1316
 1486SOL    HW210422   9.624   2.805   0.238  0.1867  0.1531  0.5458
 1487SOL     OW10423  12.236   6.488   5.669  0.7119 -0.2260 -0.0265
 1487SOL    HW110424  12.278   6.520   5.749 -0.3634  1.8545 -0.2246
 1487SOL    HW210425  12.273   6.401   5.655  3.1249  0.5357  1.1202
 1488SOL     OW10426   3.513   2.740   1.767  0.4007  0.1224 -0.3411
 1488SOL    HW110427   3.561   2.664   1.801  0.8235  0.4742 -0.1344
 1488SOL    HW210428   3.434   2.704   1.729  0.6218 -0.4298 -0.2826
 1489SOL     OW10429   0.290   8.255   5.098  0.2013  0.6746  0.5916
 1489SOL    HW110430   0.285   8.300   5.013  2.3344  1.6320  0.8976
 1489SOL    HW210431   0.359   8.189   5.085 -1.3555 -1.0950  0.8212
 1490SOL     OW10432   8.386   6.343   2.541  0.9549 -0.1126  0.3211
 1490SOL    HW110433   8.432   6.413   2.495  0.9639 -0.6248 -0.4879
 1490SOL    HW210434   8.325   6.388   2.599  0.8487  0.5736 -0.3045
 1491SOL     OW10435   7.092   2.398   2.246 -0.3195 -0.4715  0.1972
 1491SOL    HW110436   7.050   2.480   2.269  0.0746 -0.2614  0.1780
 1491SOL    HW210437   7.020   2.341   2.219 -0.3903  0.9014 -2.9798
 1492SOL     OW10438  11.370   6.501   3.183  0.2746 -0.0821  0.0762
 1492SOL    HW110439  11.370   6.409   3.155 -1.2809  0.0883 -0.6339
 1492SOL    HW210440  11.420   6.547   3.116  1.6781 -0.4880  0.8160
 1493SOL     OW10441   2.811   5.954   1.388 -0.3648 -0.5753 -0.4597
 1493SOL    HW110442   2.816   5.878   1.445 -0.5289 -0.2262  0.0236
 1493SOL    HW210443   2.867   6.020   1.429 -0.7362 -0.2108 -0.5263
 1494SOL     OW10444   1.229   5.094  10.504 -0.0903  0.0860 -0.2258
 1494SOL    HW110445   1.185   5.034  10.563 -0.2936  0.8724  0.4461
 1494SOL    HW210446   1.320   5.064  10.501 -0.5330 -1.2401 -1.2213
 1495SOL     OW10447   5.624   0.366  11.223  0.1859 -0.3121  0.1856
 1495SOL    HW110448   5.613   0.447  11.173  2.0768 -0.2791 -0.2492
 1495SOL    HW210449   5.656   0.395  11.308 -0.8405 -0.5059  0.6412
 1496SOL     OW10450   9.844  10.509   0.867 -0.0582  0.1567 -0.8371
 1496SOL    HW110451   9.847  10.435   0.928  1.1525  0.7530 -0.1256
 1496SOL    HW210452   9.806  10.580   0.919  0.0516  0.3928 -1.0802
 1497SOL     OW10453  10.688   8.796   5.114  0.0102 -0.3718  0.4583
 1497SOL    HW110454  10.739   8.800   5.033 -0.8013 -1.7409 -0.1491
 1497SOL    HW210455  10.743   8.841   5.179  1.2899 -0.4480 -0.5243
 1498SOL     OW10456   0.794   5.592   5.736  0.8178  0.1026 -0.1694
 1498SOL    HW110457   0.737   5.530   5.691  0.7203 -0.4408  0.6875
 1498SOL    HW210458   0.873   5.596   5.681 -0.0047  0.8452 -1.3532
 1499SOL     OW10459   3.383   7.312   2.617  0.0952  0.2327 -0.2424
 1499SOL    HW110460   3.326   7.367   2.670 -0.1696  2.5058 -2.6646
 1499SOL    HW210461   3.464   7.304   2.668 -0.6135  1.1364  1.0695
 1500SOL     OW10462   8.432   8.431   7.140  0.6324  0.0368 -0.0983
 1500SOL    HW110463   8.449   8.524   7.149 -3.4132  0.9094  0.2366
 1500SOL    HW210464   8.406   8.402   7.227 -2.8924 -0.1031 -1.0327
 1501SOL     OW10465   7.970   2.632   4.306 -0.4393 -0.1720  0.5603
 1501SOL    HW110466   7.928   2.581   4.376  0.2274 -0.2487  0.9089
 1501SOL    HW210467   8.063   2.627   4.325 -0.3296  0.8436  0.3825
 1502SOL     OW10468   6.675   5.149  11.851  0.1536 -1.1174 -0.2775
 1502SOL    HW110469   6.756   5.102  11.833  0.2420 -0.0672 -3.1431
 1502SOL    HW210470   6.607   5.096  11.809 -0.3193 -0.7551  0.0188
 1503SOL     OW10471  10.659   2.083   3.385  0.5393 -0.0701  0.8464
 1503SOL    HW110472  10.654   2.157   3.324 -0.2973 -1.1917 -0.4918
 1503SOL    HW210473  10.593   2.102   3.451 -0.3788 -0.0971 -0.0457
 1504SOL     OW10474   7.441   3.813   3.616 -0.1403  0.2982  0.1229
 1504SOL    HW110475   7.473   3.724   3.634 -0.4699  0.3529  1.0333
 1504SOL    HW210476   7.520   3.866   3.610  0.0243  0.1079  0.5471
 1505SOL     OW10477  10.638   2.021   3.821 -0.2965  0.2188 -0.0663
 1505SOL    HW110478  10.697   1.951   3.794 -1.5525 -0.5363 -0.9697
 1505SOL    HW210479  10.563   1.976   3.860 -0.4397  1.1346  0.7686
 1506SOL     OW10480   9.614   0.500  11.757  0.0763 -0.1991  0.2912
 1506SOL    HW110481   9.557   0.516  11.682 -0.0062 -2.4014 -0.1745
 1506SOL    HW210482   9.695   0.546  11.736 -0.8306  1.3890  0.0955
 1507SOL     OW10483   5.039   3.637   0.338 -0.0473 -0.9778 -0.3976
 1507SOL    HW110484   4.968   3.574   0.339 -1.9365  0.8832 -2.9487
 1507SOL    HW210485   5.111   3.592   0.293 -1.3356 -1.4118 -2.1445
 1508SOL     OW10486   5.611   9.225   1.847  0.2777  0.0953 -0.0132
 1508SOL    HW110487   5.665   9.232   1.768  1.1139  0.6454  0.5948
 1508SOL    HW210488   5.656   9.159   1.900  0.8222  1.1208  0.8384
 1509SOL     OW10489  11.787  11.805   1.873 -0.1651 -0.4368  0.2182
 1509SOL    HW110490  11.811  11.890   1.837  0.4147 -1.1327 -1.1294
 1509SOL    HW210491  11.736  11.825   1.952 -1.0820  1.1617 -0.7351
 1510SOL     OW10492   2.626   9.680  11.404 -0.4593 -0.4334 -0.4445
 1510SOL    HW110493   2.561   9.653  11.470 -1.6290 -0.8432 -1.7020
 1510SOL    HW210494   2.643   9.772  11.423 -1.6690 -0.2294 -0.2772
 1511SOL     OW10495   0.824  11.751  10.893 -0.2337  0.2141 -0.2482
 1511SOL    HW110496   0.770  11.818  10.936  0.4100  0.6004 -0.0253
 1511SOL    HW210497   0.811  11.767  10.799  0.3084  0.9797 -0.1979
 1512SOL     OW10498   6.252   6.399   1.450  0.1514 -0.1658  0.0166
 1512SOL    HW110499   6.194   6.474   1.461  0.1757 -0.0272 -0.7295
 1512SOL    HW210500   6.227   6.362   1.366 -0.4703 -1.5434  0.7756
 1513SOL     OW10501  10.939   5.159   2.107 -0.2075  0.1841  0.1709
 1513SOL    HW110502  10.967   5.243   2.069  1.2503 -0.1462  0.4340
 1513SOL    HW210503  10.914   5.106   2.032 -1.1793  0.8602  0.0023
 1514SOL     OW10504   4.511   0.931   9.450  0.4858 -0.4460 -0.3436
 1514SOL    HW110505   4.589   0.986   9.449 -0.8483  1.5907  0.9351
 1514SOL    HW210506   4.541   0.847   9.485  2.1609  0.1849 -0.1963
 1515SOL     OW10507   4.362   4.515   4.620  0.2904  0.4525 -0.4019
 1515SOL    HW110508   4.406   4.441   4.578  0.1139  0.1216 -0.0131
 1515SOL    HW210509   4.276   4.479   4.646  0.0753  0.8864 -0.5105
 1516SOL     OW10510   4.035   4.588  10.233 -0.3830  0.0750  0.3094
 1516SOL    HW110511   4.033   4.635  10.150 -1.9332 -0.3312  0.0900
 1516SOL    HW210512   4.128   4.577  10.252  0.0232 -0.8021 -1.9392
 1517SOL     OW10513   3.756   3.238   6.352 -0.2331  0.3992 -0.1613
 1517SOL    HW110514   3.782   3.315   6.403  0.1102  0.3303 -0.2324
 1517SOL    HW210515   3.828   3.225   6.290  0.1995 -0.6004  0.5341
 1518SOL     OW10516   3.547   6.670   8.353 -0.5445 -0.3542 -0.0955
 1518SOL    HW110517   3.483   6.613   8.396  0.4072 -0.2089  1.6085
 1518SOL    HW210518   3.584   6.616   8.283 -0.6800 -1.3573  0.5809
 1519SOL     OW10519  10.638   6.269   5.839 -0.2334 -0.2657  0.4136
 1519SOL    HW110520  10.607   6.256   5.929 -0.1674  0.0913  0.4897
 1519SOL    HW210521  10.699   6.342   5.845 -1.5704  0.9639 -0.1896
 1520SOL     OW10522   7.097   2.952   8.849  0.2974 -0.3997 -0.5814
 1520SOL    HW110523   7.093   2.859   8.828 -1.0225 -0.7744  1.1425
 1520SOL    HW210524   7.093   2.996   8.765  0.1484 -1.8834 -1.3754
 1521SOL     OW10525   0.634   5.450   2.685 -0.3198 -0.5943  0.3517
 1521SOL    HW110526   0.701   5.383   2.674 -0.3072 -0.3830 -1.0635
 1521SOL    HW210527   0.574   5.413   2.751  0.8239 -1.0453  1.1731
 1522SOL     OW10528   5.712   3.489  11.495  0.0918 -0.2189 -0.2406
 1522SOL    HW110529   5.704   3.393  11.495  2.7031 -0.5122 -0.5383
 1522SOL    HW210530   5.751   3.509  11.410  1.2379  0.9008  0.5226
 1523SOL     OW10531   4.963   8.941  11.925 -0.0584 -0.3552 -0.0411
 1523SOL    HW110532   4.963   8.961  12.019 -1.1315 -0.5011  0.0077
 1523SOL    HW210533   5.052   8.911  11.907  1.2074  2.7484  0.2486
 1524SOL     OW10534   1.876   8.307   3.720 -0.1354 -0.5912  0.3286
 1524SOL    HW110535   1.964   8.270   3.718 -0.4544 -1.4542  1.3495
 1524SOL    HW210536   1.828   8.258   3.653  0.0391 -0.4628  0.1113
 1525SOL     OW10537   3.167   8.601   7.114 -0.0182  0.1231 -0.6646
 1525SOL    HW110538   3.105   8.530   7.126  0.0972  0.1449  0.1728
 1525SOL    HW210539   3.183   8.604   7.020 -0.4721 -0.5713 -0.7729
 1526SOL     OW10540  10.104   9.747   0.959 -0.6435 -1.0415 -0.1855
 1526SOL    HW110541  10.119   9.824   0.904 -0.2286 -0.1610  1.0884
 1526SOL    HW210542  10.035   9.698   0.915 -0.7985 -0.0235 -1.1185
 1527SOL     OW10543   7.892   0.123  10.308 -0.6059 -0.2042 -0.3969
 1527SOL    HW110544   7.857   0.138  10.396 -0.8455  0.1967 -0.5565
 1527SOL    HW210545   7.836   0.054  10.271  0.4590 -1.5051  0.3161
 1528SOL     OW10546  10.276   1.846   3.139 -1.0336  0.2937  0.4130
 1528SOL    HW110547  10.294   1.790   3.214  2.1992  0.1289 -0.3113
 1528SOL    HW210548  10.279   1.786   3.064  0.9849  1.1055 -0.2312
 1529SOL     OW10549  10.797   2.779   9.598  0.2088 -0.2492  0.3178
 1529SOL    HW110550  10.886   2.771   9.564 -1.0151 -0.3823 -3.3009
 1529SOL    HW210551  10.758   2.851   9.547 -1.8041 -0.2582  1.7041
 1530SOL     OW10552  11.477   8.265   7.920 -0.5525  0.4590 -0.5322
 1530SOL    HW110553  11.390   8.240   7.952 -0.7361  0.2130 -1.2087
 1530SOL    HW210554  11.531   8.273   8.000 -0.8916 -0.5635 -0.1911
 1531SOL     OW10555   7.663   4.227   9.297 -0.7224  0.3626  0.2136
 1531SOL    HW110556   7.731   4.211   9.232  1.0090  1.8613  1.5697
 1531SOL    HW210557   7.635   4.140   9.324  0.3137 -0.2833 -0.6921
 1532SOL     OW10558   4.263   0.939   6.580  0.5397 -0.0773  0.1461
 1532SOL    HW110559   4.358   0.954   6.577  0.2438  2.1947  0.3619
 1532SOL    HW210560   4.234   0.985   6.658 -0.5486 -2.3756  1.1804
 1533SOL     OW10561   8.030   0.854   6.428 -0.4649 -0.0214  0.7671
 1533SOL    HW110562   8.059   0.898   6.348  0.6688 -1.4001  0.3793
 1533SOL    HW210563   7.950   0.809   6.403  0.3589 -1.1828  0.1171
 1534SOL     OW10564   7.123   8.204   8.667 -0.2054 -0.1876 -0.1948
 1534SOL    HW110565   7.047   8.217   8.609 -1.8584 -1.8790  1.4388
 1534SOL    HW210566   7.098   8.129   8.722  1.7496  0.5895  1.8986
 1535SOL     OW10567   9.865  10.623   5.756 -0.3277 -0.0753 -0.1091
 1535SOL    HW110568   9.807  10.602   5.683  0.6244 -0.2143 -0.8519
 1535SOL    HW210569   9.938  10.670   5.715  0.5452 -0.7416  0.6539
 1536SOL     OW10570   4.801   6.700   6.350 -0.2057  0.2787 -0.3183
 1536SOL    HW110571   4.871   6.761   6.327  2.2767 -1.7966  1.1092
 1536SOL    HW210572   4.847   6.620   6.377 -3.1799 -2.7981 -3.2862
 1537SOL     OW10573  12.419   2.869   0.971  0.5260  0.7215  0.2727
 1537SOL    HW110574  12.325   2.887   0.965  0.2813 -0.6271 -0.4083
 1537SOL    HW210575  12.440   2.823   0.889  1.6111  0.3276  0.7518
 1538SOL     OW10576   1.262   4.984   9.158 -0.1189  0.5635 -0.0848
 1538SOL    HW110577   1.346   5.027   9.173 -0.8495  1.7073  0.9233
 1538SOL    HW210578   1.253   4.923   9.232 -0.0753  0.2738 -0.3168
 1539SOL     OW10579   0.708   3.756   6.874  0.1426  0.0597 -0.0603
 1539SOL    HW110580   0.613   3.762   6.864  0.2354 -1.2873 -2.5871
 1539SOL    HW210581   0.743   3.783   6.789  1.8743 -1.9082 -0.0500
 1540SOL     OW10582   7.926  12.205   4.354  0.0647 -0.3811  0.0842
 1540SOL    HW110583   7.838  12.184   4.321 -0.5215 -0.9894  1.9092
 1540SOL    HW210584   7.963  12.121   4.379  0.4888  0.0507  0.9289
 1541SOL     OW10585   6.725  11.057  12.479  0.4008  0.1103 -0.5996
 1541SOL    HW110586   6.760  10.994  12.415  0.3844 -0.6198  0.0919
 1541SOL    HW210587   6.772  11.037  12.560 -0.4363  0.2061 -0.0763
 1542SOL     OW10588  12.303  11.427   1.125 -0.1728 -0.1841 -0.1030
 1542SOL    HW110589  12.302  11.335   1.152 -0.4163 -0.3533 -0.6861
 1542SOL    HW210590  12.392  11.457   1.146  0.2985 -0.8823 -1.0120
 1543SOL     OW10591   1.905  10.022   8.857 -0.4647 -0.5967 -0.0015
 1543SOL    HW110592   1.834   9.968   8.891 -0.0793 -2.8122 -2.3879
 1543SOL    HW210593   1.903  10.008   8.763  2.0985  0.5834 -0.3291
 1544SOL     OW10594   6.036   5.065   5.949 -1.1279  0.0053  0.0670
 1544SOL    HW110595   5.971   5.104   6.008 -2.3890 -0.8265 -0.7277
 1544SOL    HW210596   6.008   4.974   5.940 -0.4982 -0.0798 -1.1977
 1545SOL     OW10597   9.947   2.757   4.341  0.4538  0.0855 -0.0018
 1545SOL    HW110598   9.858   2.725   4.355  0.1114  1.3857  1.0169
 1545SOL    HW210599   9.970   2.727   4.253 -1.5747  0.9797 -0.9033
 1546SOL     OW10600  12.153   4.067   1.711 -0.1066 -0.1945  0.4684
 1546SOL    HW110601  12.081   4.014   1.745 -0.8499  0.6238  0.2168
 1546SOL    HW210602  12.137   4.154   1.747  0.2142  0.2165 -0.3682
 1547SOL     OW10603   5.942   0.539   2.831  0.4380  0.5190 -0.5330
 1547SOL    HW110604   5.980   0.452   2.819  1.0038  0.2157  2.5734
 1547SOL    HW210605   5.999   0.598   2.782  0.7315 -0.7025 -1.7111
 1548SOL     OW10606   6.866   0.690  11.606 -0.6232  0.0639 -0.4535
 1548SOL    HW110607   6.808   0.702  11.681 -1.0911 -0.8594 -0.6606
 1548SOL    HW210608   6.876   0.595  11.598  0.4323  0.1850 -0.7919
 1549SOL     OW10609   0.416   6.573   1.350 -0.1429 -0.0043 -0.9177
 1549SOL    HW110610   0.357   6.611   1.285  0.3424  0.4432 -1.1081
 1549SOL    HW210611   0.385   6.484   1.363 -0.9087  0.2516 -0.9538
 1550SOL     OW10612  11.694   9.859   7.921  0.2949 -0.1580  0.1466
 1550SOL    HW110613  11.719   9.857   8.013  1.2141  0.5499 -0.0757
 1550SOL    HW210614  11.745   9.790   7.880  0.6785  0.2132 -0.0118
 1551SOL     OW10615  11.149   6.474   2.490 -0.3212 -0.2960  0.0344
 1551SOL    HW110616  11.143   6.527   2.410 -0.3861 -0.0312  0.2116
 1551SOL    HW210617  11.181   6.389   2.461  1.1348  0.2568 -0.0795
 1552SOL     OW10618  10.971   8.250   4.408 -0.3799 -0.4688 -0.0316
 1552SOL    HW110619  10.936   8.334   4.437 -0.4972 -0.3442 -0.5211
 1552SOL    HW210620  11.059   8.248   4.445 -0.7182 -0.5694  0.7988
 1553SOL     OW10621   7.119   0.850  10.636  0.2860 -0.1494  0.1508
 1553SOL    HW110622   7.027   0.838  10.659  0.5220 -2.1762  0.2199
 1553SOL    HW210623   7.164   0.861  10.720  0.3281 -1.1035  0.2675
 1554SOL     OW10624   1.321   6.018   1.155 -0.1312  0.1791 -1.0071
 1554SOL    HW110625   1.251   5.952   1.152 -0.8491  0.8229  0.3259
 1554SOL    HW210626   1.374   5.993   1.230  1.4756 -0.6472 -2.3647
 1555SOL     OW10627   7.991   7.032   9.467 -0.7221 -0.6166  0.2837
 1555SOL    HW110628   7.982   7.106   9.407 -1.0977 -1.1728 -0.3615
 1555SOL    HW210629   7.966   7.067   9.552 -0.0327  0.2263  0.1546
 1556SOL     OW10630   2.013   6.254   5.663 -0.5243  0.3247  0.3381
 1556SOL    HW110631   1.931   6.300   5.682  0.0446  1.7260 -0.4167
 1556SOL    HW210632   2.079   6.323   5.662  0.4601 -0.5979 -0.3514
 1557SOL     OW10633   2.889  12.296   8.363  0.0566  0.5877 -0.0382
 1557SOL    HW110634   2.827  12.225   8.344  0.7272  0.3321 -1.4229
 1557SOL    HW210635   2.966  12.251   8.398 -0.3741  0.8697  1.3121
 1558SOL     OW10636   1.594  11.631   1.051  0.4274 -0.4402 -0.0419
 1558SOL    HW110637   1.664  11.687   1.085 -1.2375  1.4183  0.5096
 1558SOL    HW210638   1.536  11.617   1.125 -1.6657  1.1162 -1.2737
 1559SOL     OW10639   9.410  10.322   0.824 -0.1540 -1.0189  0.2631
 1559SOL    HW110640   9.481  10.371   0.784 -0.3477 -0.3195  0.7623
 1559SOL    HW210641   9.406  10.240   0.775 -0.1968 -0.3042 -0.9524
 1560SOL     OW10642   0.537  11.099  10.639 -0.0796  0.0467 -0.5651
 1560SOL    HW110643   0.548  11.004  10.629 -3.0869 -0.5508  0.4855
 1560SOL    HW210644   0.460  11.120  10.585  1.5508  2.2938 -2.1864
 1561SOL     OW10645   2.216   6.461   2.025  0.0268 -0.2857  0.2338
 1561SOL    HW110646   2.251   6.441   1.938 -1.2167  0.2008 -0.3918
 1561SOL    HW210647   2.293   6.491   2.075  1.0914 -2.2175 -0.1317
 1562SOL     OW10648   9.310   1.222   2.805 -0.4006  0.1246 -0.0201
 1562SOL    HW110649   9.272   1.288   2.864 -0.1375 -0.1162  0.4200
 1562SOL    HW210650   9.260   1.143   2.823  0.6284 -0.3353  0.9396
 1563SOL     OW10651   2.552   0.591   6.158  0.1726  0.1500  0.8000
 1563SOL    HW110652   2.618   0.524   6.140  0.8035  0.7008  1.0229
 1563SOL    HW210653   2.581   0.667   6.108 -0.7538  0.1418  0.2371
 1564SOL     OW10654   5.821   9.797   7.659 -0.2777  0.1214  0.0418
 1564SOL    HW110655   5.913   9.787   7.633 -0.3610 -0.2694 -0.1158
 1564SOL    HW210656   5.824   9.816   7.752 -0.0299  0.2662  0.0058
 1565SOL     OW10657  11.099  12.336  10.657  0.4718  0.2200 -0.2861
 1565SOL    HW110658  11.132  12.399  10.720  1.8089 -0.1292 -0.5947
 1565SOL    HW210659  11.004  12.336  10.669  0.5830  1.2327  0.6873
 1566SOL     OW10660   1.976   8.698   3.946 -0.4774 -0.1619 -0.2534
 1566SOL    HW110661   2.040   8.709   4.016 -1.9675  0.7496  1.0151
 1566SOL    HW210662   1.994   8.610   3.911  0.5719 -0.4668  0.9790
 1567SOL     OW10663   8.673   5.338  12.053  0.2146 -0.5799  0.7330
 1567SOL    HW110664   8.700   5.420  12.012  1.1356 -1.8608 -1.3541
 1567SOL    HW210665   8.707   5.344  12.143 -0.6071  1.7032  0.9453
 1568SOL     OW10666  10.082  12.097   7.932 -0.3066  0.1709  0.0119
 1568SOL    HW110667  10.154  12.035   7.921 -0.1089  0.5525 -0.9551
 1568SOL    HW210668  10.090  12.156   7.857 -1.7253  0.1148 -0.2121
 1569SOL     OW10669   5.733   9.833   0.850  0.6345 -0.7311 -0.0867
 1569SOL    HW110670   5.822   9.857   0.822  1.1108  0.0004  1.8852
 1569SOL    HW210671   5.709   9.761   0.791  2.2928 -0.5585 -1.0641
 1570SOL     OW10672   8.383   3.522   2.320 -0.5452 -0.1496 -0.3029
 1570SOL    HW110673   8.412   3.445   2.370 -0.3961 -0.7639 -1.3014
 1570SOL    HW210674   8.363   3.487   2.233  0.2972  1.0828 -1.0149
 1571SOL     OW10675   6.582   2.758   8.490 -0.0445 -0.2411 -0.4418
 1571SOL    HW110676   6.648   2.691   8.471 -0.8282 -1.4337  0.8173
 1571SOL    HW210677   6.548   2.783   8.405  1.1349 -0.5388 -1.0191
 1572SOL     OW10678   8.102  11.757   6.009  0.0372 -0.5640  0.6425
 1572SOL    HW110679   8.197  11.748   6.016  0.1518  0.2576  0.2314
 1572SOL    HW210680   8.071  11.749   6.099  0.4146 -1.6529  0.6917
 1573SOL     OW10681  11.470   9.585   4.211 -0.0360  0.0980 -0.5975
 1573SOL    HW110682  11.429   9.549   4.289  0.9195 -0.6927 -0.4374
 1573SOL    HW210683  11.410   9.564   4.140 -0.6628  0.3671 -0.1522
 1574SOL     OW10684   7.528   5.635   0.894  0.0561 -0.1050 -0.1797
 1574SOL    HW110685   7.593   5.670   0.956  1.7734 -2.4105 -0.5441
 1574SOL    HW210686   7.572   5.560   0.853 -2.0527 -0.3639 -2.1528
 1575SOL     OW10687  11.894   1.377   7.903 -0.1458 -0.0684 -0.3394
 1575SOL    HW110688  11.945   1.419   7.973 -1.1360  0.1626  0.2605
 1575SOL    HW210689  11.950   1.383   7.826  2.3316 -3.0447  1.0301
 1576SOL     OW10690   4.442   1.464   3.931 -0.4137 -0.0078  0.0453
 1576SOL    HW110691   4.360   1.491   3.972 -0.6260  0.3509 -0.5840
 1576SOL    HW210692   4.468   1.540   3.878 -0.5972 -0.7519 -1.1385
 1577SOL     OW10693   1.232   0.560   3.576 -0.1582  0.0088  0.6272
 1577SOL    HW110694   1.216   0.502   3.650  0.5672 -0.7218  0.2317
 1577SOL    HW210695   1.286   0.630   3.611  0.0359 -0.2401  0.8294
 1578SOL     OW10696  10.537   0.102   9.409 -0.0035 -0.1042  0.2922
 1578SOL    HW110697  10.535   0.013   9.443  0.7352  0.3527  1.5918
 1578SOL    HW210698  10.606   0.146   9.459 -0.4876  1.2611 -0.1863
 1579SOL     OW10699   3.518   9.824  10.927  0.1600 -0.4066 -0.0019
 1579SOL    HW110700   3.490   9.844  11.016  0.1290  0.6510 -0.2371
 1579SOL    HW210701   3.539   9.909  10.889  1.2309 -0.9418 -0.6535
 1580SOL     OW10702  10.994   2.100  10.968  0.1866  0.8113 -0.5323
 1580SOL    HW110703  10.975   2.013  11.003  1.6242 -0.3520 -2.4031
 1580SOL    HW210704  10.922   2.118  10.908 -0.6481  1.3997  0.6244
 1581SOL     OW10705   9.125   1.310   6.477 -0.0495  0.3181  0.0941
 1581SOL    HW110706   9.119   1.288   6.570 -0.2454 -0.1429 -0.0240
 1581SOL    HW210707   9.087   1.234   6.432  1.6490 -0.2679 -0.4491
 1582SOL     OW10708  10.103   1.636  11.558 -0.1364 -0.4478 -0.7119
 1582SOL    HW110709  10.147   1.681  11.486  0.1738  1.0223  0.3382
 1582SOL    HW210710  10.175   1.597  11.609  0.0643  1.7617  0.8775
 1583SOL     OW10711   0.583   4.191   4.117 -0.2547 -0.1825 -0.3256
 1583SOL    HW110712   0.589   4.140   4.036 -0.4118  2.3160 -2.0121
 1583SOL    HW210713   0.492   4.180   4.145 -0.5439 -0.1141 -1.1923
 1584SOL     OW10714   0.588   8.489   9.849 -0.2038 -0.0763  0.0331
 1584SOL    HW110715   0.573   8.552   9.919 -0.2683  1.4384 -1.2934
 1584SOL    HW210716   0.665   8.439   9.877 -1.0063 -0.4101  1.7684
 1585SOL     OW10717   6.613   9.767   8.409  0.3467  0.3273 -0.2513
 1585SOL    HW110718   6.665   9.766   8.329  0.4737 -2.5524 -0.2284
 1585SOL    HW210719   6.522   9.773   8.379  0.3618 -1.2314 -0.6936
 1586SOL     OW10720   1.672   0.907   2.630 -0.0085 -0.1611  0.1728
 1586SOL    HW110721   1.721   0.913   2.711  0.0024 -2.3896  0.3700
 1586SOL    HW210722   1.736   0.927   2.561  0.6601 -0.9598  0.5523
 1587SOL     OW10723   1.934   1.086   1.734 -0.1249 -0.1607 -0.4299
 1587SOL    HW110724   1.890   1.058   1.814 -2.0975 -1.4331 -1.8751
 1587SOL    HW210725   2.026   1.097   1.760 -0.7070 -0.3846  2.0024
 1588SOL     OW10726   7.976   2.099  11.108  0.1233 -0.7005  0.4501
 1588SOL    HW110727   8.042   2.032  11.091  0.1532 -0.7545  0.7755
 1588SOL    HW210728   8.026   2.178  11.126  0.0892  0.0166 -2.2276
 1589SOL     OW10729   0.423   2.634   8.387  0.2025  0.0572 -0.3751
 1589SOL    HW110730   0.359   2.568   8.414 -0.0889  1.0874  1.5951
 1589SOL    HW210731   0.371   2.708   8.356  0.3852  0.9116  1.2645
 1590SOL     OW10732  10.220  11.225  10.665  0.0141 -0.7613  0.2877
 1590SOL    HW110733  10.187  11.292  10.605 -0.0533 -2.7653 -2.0644
 1590SOL    HW210734  10.168  11.237  10.745 -1.7163  0.4063 -0.9330
 1591SOL     OW10735   5.567   2.802   9.982 -0.4278  0.2674  0.3208
 1591SOL    HW110736   5.629   2.794   9.910  0.4358  0.5098  1.0231
 1591SOL    HW210737   5.555   2.712  10.013 -0.0241  0.2739  0.5062
 1592SOL     OW10738   0.991   4.855   6.128  0.3387  0.0685  0.0392
 1592SOL    HW110739   1.031   4.800   6.060  0.5588  0.9343 -0.5509
 1592SOL    HW210740   0.899   4.862   6.103 -0.2259 -1.8256  1.3330
 1593SOL     OW10741   3.175   1.128   4.467 -0.3741  0.0728  0.2026
 1593SOL    HW110742   3.137   1.094   4.548  0.3402  2.3054  1.5575
 1593SOL    HW210743   3.248   1.069   4.448 -2.8144 -2.7674 -1.0443
 1594SOL     OW10744   3.167  11.446   8.895  0.1629 -0.1521 -0.2011
 1594SOL    HW110745   3.244  11.390   8.910 -0.9862 -0.7558  5.6070
 1594SOL    HW210746   3.094  11.386   8.889 -0.3710  0.5921 -2.0194
 1595SOL     OW10747   1.170   9.557   4.693 -0.6029  0.8275  0.4806
 1595SOL    HW110748   1.182   9.507   4.774 -1.7516  2.1654  1.5277
 1595SOL    HW210749   1.222   9.637   4.707  0.8136  0.2205 -0.9644
 1596SOL     OW10750   5.587   9.305  12.005  0.2873  0.1263 -0.6240
 1596SOL    HW110751   5.553   9.253  12.078  0.9417 -0.8819 -1.0162
 1596SOL    HW210752   5.530   9.382  12.001 -0.2239 -0.1823  0.4573
 1597SOL     OW10753   6.628  10.345   4.610  0.1223 -0.2431  0.1693
 1597SOL    HW110754   6.646  10.408   4.679 -1.3989 -0.9703  1.2968
 1597SOL    HW210755   6.547  10.301   4.638  0.9110 -2.4259 -0.7405
 1598SOL     OW10756  10.124   9.088   9.053 -0.0322 -0.1111 -0.0137
 1598SOL    HW110757  10.209   9.110   9.015  0.3397 -0.2753  0.6969
 1598SOL    HW210758  10.061   9.142   9.004  0.7914  2.3082  1.4024
 1599SOL     OW10759   3.172   8.837   4.471  0.4091 -0.2051  0.2377
 1599SOL    HW110760   3.097   8.856   4.414  0.0338 -0.2589  0.7096
 1599SOL    HW210761   3.150   8.880   4.554 -0.2442 -2.2598  1.1934
 1600SOL     OW10762   6.868   9.084  10.764 -0.9075 -0.0789  0.3573
 1600SOL    HW110763   6.938   9.047  10.817 -1.3886  0.1928  1.2074
 1600SOL    HW210764   6.876   9.179  10.776 -1.1683 -0.0279  0.1436
 1601SOL     OW10765   8.071   7.958   4.864  0.2933 -0.5950  0.0238
 1601SOL    HW110766   8.002   7.906   4.906  0.1462 -2.0544 -1.8727
 1601SOL    HW210767   8.046   7.961   4.771  1.1545  1.5618 -0.1977
 1602SOL     OW10768   7.724   8.383   7.720 -0.0014 -0.1817 -0.2517
 1602SOL    HW110769   7.819   8.393   7.713  0.1803 -1.4393  0.1238
 1602SOL    HW210770   7.693   8.390   7.630  0.3525  0.9376 -0.3056
 1603SOL     OW10771   4.172   5.536  11.747  0.2232 -0.0180 -0.3197
 1603SOL    HW110772   4.110   5.470  11.778  1.8452 -0.9909  0.9865
 1603SOL    HW210773   4.145   5.616  11.792 -1.0508 -0.0288 -1.0215
 1604SOL     OW10774   1.618   8.934   9.052 -0.5953 -0.0029 -0.1520
 1604SOL    HW110775   1.617   9.023   9.088 -2.6312  0.2749 -0.7801
 1604SOL    HW210776   1.527   8.916   9.031 -0.0042 -1.6518 -1.5017
 1605SOL     OW10777   6.199  10.041   3.299 -0.1811  0.5068  0.0079
 1605SOL    HW110778   6.182  10.076   3.211 -1.0086 -1.1096 -0.5390
 1605SOL    HW210779   6.162  10.105   3.359  2.5138  2.8825 -0.6143
 1606SOL     OW10780   1.692  10.594   3.145  0.2185 -0.2861 -0.1494
 1606SOL    HW110781   1.713  10.671   3.093  0.3275 -0.7803 -0.8531
 1606SOL    HW210782   1.688  10.626   3.235  0.5130  0.4869 -0.4042
 1607SOL     OW10783   5.491   2.675  11.857 -0.2516 -0.1069 -0.4937
 1607SOL    HW110784   5.451   2.717  11.933 -0.2294 -0.5318 -0.2442
 1607SOL    HW210785   5.572   2.724  11.842  0.0411 -0.3841  0.1218
 1608SOL     OW10786   0.049   1.872   1.633  0.5182 -0.7072  0.0406
 1608SOL    HW110787   0.090   1.946   1.678 -0.0899 -1.2148  1.4807
 1608SOL    HW210788  -0.042   1.899   1.621  0.3901 -1.0502  0.2140
 1609SOL     OW10789   3.303   0.371   3.772 -0.5833 -0.3742  0.3479
 1609SOL    HW110790   3.239   0.312   3.732 -0.0957 -0.6143 -0.0924
 1609SOL    HW210791   3.387   0.329   3.755 -0.4467 -1.6122  3.4672
 1610SOL     OW10792   9.210  11.372   6.765  0.0365  0.0962 -0.8581
 1610SOL    HW110793   9.268  11.296   6.755 -0.0992 -0.0038 -0.8913
 1610SOL    HW210794   9.259  11.445   6.727  0.2420  0.0615 -0.6627
 1611SOL     OW10795   8.806   8.747  11.701  0.1632 -0.1088 -0.3322
 1611SOL    HW110796   8.811   8.697  11.782  2.7089 -0.1672 -0.4593
 1611SOL    HW210797   8.890   8.793  11.695 -0.1767  0.3662 -2.6339
 1612SOL     OW10798   2.024   9.846   5.430 -0.1101 -0.2696 -0.0085
 1612SOL    HW110799   1.933   9.827   5.456 -0.4074  0.9237 -0.1417
 1612SOL    HW210800   2.070   9.860   5.513 -0.3487  0.4232  0.0100
 1613SOL     OW10801  10.716  10.948   3.693 -0.0046  0.4445  0.4407
 1613SOL    HW110802  10.752  10.938   3.781  0.1008 -1.8130  0.1990
 1613SOL    HW210803  10.792  10.966   3.637  0.0372  1.0268  0.6821
 1614SOL     OW10804   6.791   1.898   0.063  0.2827  0.4647  0.5069
 1614SOL    HW110805   6.706   1.937   0.082  0.5833  0.8852  1.0406
 1614SOL    HW210806   6.851   1.940   0.125  0.6171 -0.8644  1.1351
 1615SOL     OW10807  10.485   6.628   6.927  0.0129  0.6310 -0.0697
 1615SOL    HW110808  10.465   6.706   6.876  1.7949  2.0563  1.2604
 1615SOL    HW210809  10.434   6.639   7.008 -2.4465 -1.3849 -1.2020
 1616SOL     OW10810   9.964   6.457   2.145 -0.2962  0.3534 -0.1305
 1616SOL    HW110811   9.900   6.389   2.122  0.2290  0.6226 -2.8195
 1616SOL    HW210812  10.044   6.430   2.099  0.8796  1.1720  1.3588
 1617SOL     OW10813  10.488   2.379  10.787 -0.2149 -0.1126 -0.0983
 1617SOL    HW110814  10.580   2.372  10.759 -0.5318  1.0029 -1.5305
 1617SOL    HW210815  10.467   2.472  10.778 -1.3859 -0.2859  0.6044
 1618SOL     OW10816   9.902   6.650   5.288  0.0807 -0.1044 -0.4784
 1618SOL    HW110817   9.866   6.644   5.377  0.8751 -0.5355 -0.1747
 1618SOL    HW210818   9.829   6.625   5.231  0.5920 -3.9759  0.2559
 1619SOL     OW10819   3.880   3.637   9.647  0.0441 -0.1163  0.0798
 1619SOL    HW110820   3.845   3.725   9.655  0.1880  0.1268 -1.6136
 1619SOL    HW210821   3.920   3.619   9.732 -2.6355  0.2472  1.5164
 1620SOL     OW10822   0.393  10.366   3.204 -0.0638 -0.7960  0.0290
 1620SOL    HW110823   0.325  10.300   3.194 -1.2227  0.5751 -1.7236
 1620SOL    HW210824   0.347  10.450   3.199  1.3873  0.2102  1.9203
 1621SOL     OW10825   3.717  11.000   4.471 -0.5420 -0.2558  0.1582
 1621SOL    HW110826   3.757  11.065   4.414  0.1683  0.3793  1.3513
 1621SOL    HW210827   3.778  10.991   4.544 -2.2516  0.2783  1.7307
 1622SOL     OW10828   5.126   5.494   5.539 -0.2577  0.5194  0.7858
 1622SOL    HW110829   5.102   5.449   5.620  0.5610  0.4943  1.0157
 1622SOL    HW210830   5.208   5.539   5.560 -1.1283  2.2678  0.6161
 1623SOL     OW10831   9.450   2.829  11.138  0.1330 -0.3570  0.4635
 1623SOL    HW110832   9.526   2.869  11.180  0.0632  1.0724 -0.7144
 1623SOL    HW210833   9.468   2.834  11.044 -0.8053 -1.2651  0.2088
 1624SOL     OW10834   4.771   9.812   8.641 -0.1233 -0.6015 -0.5378
 1624SOL    HW110835   4.766   9.877   8.710 -1.4921 -1.3162  0.0740
 1624SOL    HW210836   4.708   9.745   8.667  1.0357 -2.0354 -1.2848
 1625SOL     OW10837   0.763   9.932   4.156 -0.8184  0.9481 -0.2047
 1625SOL    HW110838   0.773   9.846   4.198  0.9712  0.8556 -0.7445
 1625SOL    HW210839   0.702   9.979   4.213 -1.3565 -0.4613  0.4284
 1626SOL     OW10840   0.274  11.824   7.469 -0.1743  0.1101 -0.4082
 1626SOL    HW110841   0.221  11.758   7.513 -0.0845  0.1565 -0.2296
 1626SOL    HW210842   0.365  11.798   7.488 -0.1107  1.6608  1.7542
 1627SOL     OW10843   0.409   2.788   6.348  0.2455  0.0815  0.0863
 1627SOL    HW110844   0.361   2.783   6.431 -0.1257 -1.9342 -0.2137
 1627SOL    HW210845   0.348   2.755   6.282  0.4024  2.0112 -1.1020
 1628SOL     OW10846  11.348   3.260   8.009  0.0349 -0.2842  0.1038
 1628SOL    HW110847  11.350   3.205   8.087 -0.3087  0.1844  0.4434
 1628SOL    HW210848  11.414   3.222   7.951 -2.1415 -2.8641 -0.9008
 1629SOL     OW10849   8.630   4.477   6.647 -0.0325 -0.3572 -0.2298
 1629SOL    HW110850   8.540   4.478   6.614  0.3999  0.7510 -1.4892
 1629SOL    HW210851   8.631   4.408   6.713 -1.8903 -0.1666  0.0557
 1630SOL     OW10852   5.364   8.948   6.892  0.4877  0.1273 -0.1689
 1630SOL    HW110853   5.395   8.946   6.983 -0.0698 -1.7697  0.0313
 1630SOL    HW210854   5.282   8.995   6.896  0.3953 -0.0599  0.3552
 1631SOL     OW10855   4.085   9.603   9.841 -0.0348 -0.0542 -0.1592
 1631SOL    HW110856   4.064   9.517   9.804 -0.3869  0.7868 -1.9931
 1631SOL    HW210857   4.174   9.593   9.875 -0.5372 -1.4945  0.8715
 1632SOL     OW10858   8.975   0.489   1.452  0.0994 -0.1054 -0.2134
 1632SOL    HW110859   8.926   0.557   1.405  0.8063  0.6321  0.0888
 1632SOL    HW210860   9.055   0.533   1.481 -0.0923 -0.6761  1.2468
 1633SOL     OW10861  11.176   1.743  11.986  0.0558  0.3840 -0.3771
 1633SOL    HW110862  11.136   1.705  11.908 -1.3241 -0.2283  0.5727
 1633SOL    HW210863  11.186   1.836  11.964 -2.2706  0.6606 -0.5926
 1634SOL     OW10864  11.690   4.424   2.161 -0.5677  0.1010 -1.1693
 1634SOL    HW110865  11.598   4.448   2.153 -0.6536  0.5566  0.7734
 1634SOL    HW210866  11.737   4.500   2.129 -0.8849  1.7768  1.9500
 1635SOL     OW10867   1.596   8.733   6.467 -0.3604  0.1834  0.5652
 1635SOL    HW110868   1.537   8.738   6.542  0.6253 -0.3746  1.4028
 1635SOL    HW210869   1.658   8.804   6.480  0.3997 -0.5047  0.8174
 1636SOL     OW10870   5.418   7.514  11.121 -0.3327  0.1023  0.0828
 1636SOL    HW110871   5.402   7.463  11.041  2.1292  0.4312 -0.6958
 1636SOL    HW210872   5.480   7.461  11.171 -0.8555  0.5065  1.1963
 1637SOL     OW10873   8.247   7.515   5.291 -0.4732  0.0228 -0.0208
 1637SOL    HW110874   8.289   7.556   5.215 -0.6205 -0.0450 -0.1402
 1637SOL    HW210875   8.154   7.513   5.268 -0.5111 -0.0504  0.1387
 1638SOL     OW10876   5.795   2.933   8.179 -0.3334  0.0929 -0.1857
 1638SOL    HW110877   5.805   3.024   8.151 -0.4217 -0.3921 -1.9263
 1638SOL    HW210878   5.712   2.932   8.227 -0.6551  0.8300 -0.6979
 1639SOL     OW10879   2.317   8.187  11.037 -0.5636  0.6204  0.2892
 1639SOL    HW110880   2.226   8.166  11.058 -0.4636 -1.5687 -1.1699
 1639SOL    HW210881   2.367   8.161  11.115 -1.0409  0.5288  0.5650
 1640SOL     OW10882   9.517   4.992   1.451  0.2392 -0.8052 -0.1881
 1640SOL    HW110883   9.528   5.077   1.408 -1.4636 -1.3563 -1.8623
 1640SOL    HW210884   9.470   5.011   1.532 -1.7819 -0.2613 -1.4129
 1641SOL     OW10885   0.377   5.855   6.723 -0.6522  0.5325  0.1508
 1641SOL    HW110886   0.425   5.902   6.655 -0.3305  1.0845  0.7438
 1641SOL    HW210887   0.365   5.767   6.687  0.5861  0.4495 -0.1197
 1642SOL     OW10888   7.147   1.942   4.857 -0.9906  0.2843  0.3954
 1642SOL    HW110889   7.169   1.947   4.764 -2.2849 -2.8775 -0.2000
 1642SOL    HW210890   7.214   1.886   4.895 -1.4298  0.1681  1.0133
 1643SOL     OW10891  10.977   4.050   3.672  0.1061 -0.4229  0.1903
 1643SOL    HW110892  10.981   4.110   3.747 -0.2661  0.3520 -0.3924
 1643SOL    HW210893  11.067   4.050   3.638 -0.0352  0.3757 -0.2242
 1644SOL     OW10894   9.317   8.471   7.273 -0.5234  0.1243 -0.1241
 1644SOL    HW110895   9.329   8.506   7.184 -1.7139  0.5163 -0.1360
 1644SOL    HW210896   9.270   8.539   7.320  2.3567  1.0934  1.6308
 1645SOL     OW10897   6.612   4.767   5.346  0.4363  0.1114  0.5709
 1645SOL    HW110898   6.627   4.712   5.269 -0.8760 -1.2430  1.2432
 1645SOL    HW210899   6.634   4.855   5.316  1.5269 -0.5912 -0.8689
 1646SOL     OW10900  11.431   4.267   0.979 -0.1395  0.2030 -0.5934
 1646SOL    HW110901  11.494   4.272   0.908 -0.8620 -0.1571 -1.2749
 1646SOL    HW210902  11.352   4.309   0.944 -0.4301  0.2206  0.0729
 1647SOL     OW10903   2.388   7.222   6.996  0.4087 -0.6297 -0.5758
 1647SOL    HW110904   2.400   7.137   7.037  1.0177 -0.1517  0.2859
 1647SOL    HW210905   2.473   7.242   6.957  0.6661  0.1292  0.3348
 1648SOL     OW10906   8.700   8.855   1.474 -0.2597 -0.5449  0.0760
 1648SOL    HW110907   8.787   8.879   1.505  1.0011 -2.1985 -1.9242
 1648SOL    HW210908   8.703   8.759   1.465 -1.8352 -0.5119 -1.2519
 1649SOL     OW10909   4.394  11.770   8.836  0.3865 -0.0033  0.1177
 1649SOL    HW110910   4.304  11.754   8.809  0.4684 -1.4193  0.5878
 1649SOL    HW210911   4.434  11.683   8.839  1.8332  0.6091 -0.2771
 1650SOL     OW10912  11.783   8.883  11.250 -0.7295 -0.0063  0.5495
 1650SOL    HW110913  11.762   8.791  11.264  1.5740 -0.6484  0.1042
 1650SOL    HW210914  11.789   8.893  11.155 -0.6740  0.5425  0.6073
 1651SOL     OW10915   0.161   7.680   6.030  0.3026 -0.1693  0.1939
 1651SOL    HW110916   0.133   7.594   6.000  0.2944  0.3865 -1.5075
 1651SOL    HW210917   0.081   7.733   6.027 -0.1305 -0.4738  3.0074
 1652SOL     OW10918  11.813  10.650   0.642 -0.0180 -0.1562  0.8291
 1652SOL    HW110919  11.719  10.647   0.656 -0.1766  1.0066  0.2092
 1652SOL    HW210920  11.824  10.632   0.548  0.2762  0.6209  0.6982
 1653SOL     OW10921   6.841   1.784   3.030  0.3659 -0.1159 -0.5366
 1653SOL    HW110922   6.846   1.787   2.935  1.5051 -1.4217 -0.5576
 1653SOL    HW210923   6.918   1.733   3.057  1.1826  1.8701  1.2152
 1654SOL     OW10924   9.090   7.334   6.944 -0.1905 -0.2932 -0.0709
 1654SOL    HW110925   9.088   7.372   6.857 -1.5037  1.1277  0.5277
 1654SOL    HW210926   9.164   7.273   6.943  1.2498  1.3818 -1.4691
 1655SOL     OW10927   5.531  10.892   3.019  0.2272 -0.7134  0.0823
 1655SOL    HW110928   5.500  10.860   3.104  2.1374 -1.5739  0.5090
 1655SOL    HW210929   5.594  10.960   3.040  0.8372 -1.0390 -0.6194
 1656SOL     OW10930   1.122   8.894   0.157  0.4615 -0.1992 -0.0064
 1656SOL    HW110931   1.172   8.812   0.152  1.4705  0.4064 -0.0534
 1656SOL    HW210932   1.179   8.954   0.204  0.5876  1.0997 -1.7304
 1657SOL     OW10933   6.280   8.429   4.154  0.2529  0.6367  0.0773
 1657SOL    HW110934   6.243   8.422   4.066  0.1064 -0.0535  0.1899
 1657SOL    HW210935   6.246   8.353   4.200 -2.1132  2.5114  1.6421
 1658SOL     OW10936   7.475   2.577   1.461 -0.1541  0.4420  0.3934
 1658SOL    HW110937   7.550   2.632   1.482  0.6044 -0.9385  1.5245
 1658SOL    HW210938   7.425   2.572   1.542  0.3036 -1.2523  0.6101
 1659SOL     OW10939  11.654  11.459   0.187 -0.1135 -0.2384  0.7481
 1659SOL    HW110940  11.576  11.408   0.166 -0.0768 -0.8475  1.9554
 1659SOL    HW210941  11.652  11.533   0.127 -2.9268  1.0895  2.2802
 1660SOL     OW10942  11.572  10.798   8.646 -0.7479  0.5383  0.7075
 1660SOL    HW110943  11.626  10.719   8.654 -0.9938 -0.0338 -2.1630
 1660SOL    HW210944  11.496  10.781   8.701 -0.3659 -0.8491  0.8446
 1661SOL     OW10945   2.418   1.841   0.409 -0.2957 -0.1388  0.5337
 1661SOL    HW110946   2.393   1.751   0.425 -0.6451 -0.2923 -0.7218
 1661SOL    HW210947   2.502   1.852   0.453 -0.3996 -0.9822  0.9465
 1662SOL     OW10948   9.994   3.989   3.583  0.0256  0.2463  0.5283
 1662SOL    HW110949  10.083   4.012   3.556 -0.5921  0.9315 -1.0351
 1662SOL    HW210950   9.992   3.894   3.578 -0.0125  0.3036 -1.9293
 1663SOL     OW10951   7.028  10.113   5.624 -0.1363  0.2708  0.0450
 1663SOL    HW110952   7.006  10.061   5.701  2.3125 -0.7052  0.1784
 1663SOL    HW210953   7.092  10.177   5.656 -1.4624  1.9855 -0.5762
 1664SOL     OW10954  12.204   3.294   3.856 -0.0774 -0.2384 -0.0792
 1664SOL    HW110955  12.260   3.357   3.811 -0.2775 -1.4665 -2.1780
 1664SOL    HW210956  12.115   3.328   3.845 -0.2235 -1.0300 -1.5504
 1665SOL     OW10957  10.622   3.243   4.133 -0.4939  0.3600  0.4549
 1665SOL    HW110958  10.610   3.156   4.095 -1.3992  0.8036 -0.3194
 1665SOL    HW210959  10.702   3.236   4.185  0.0792 -0.6315 -0.5201
 1666SOL     OW10960  11.276   6.841   4.116  0.3597 -0.2920  0.4603
 1666SOL    HW110961  11.228   6.865   4.037 -0.2134  0.7633  1.1006
 1666SOL    HW210962  11.312   6.754   4.097 -1.2769 -0.8560 -0.2773
 1667SOL     OW10963   0.257   5.749  12.489  0.0300  0.5290 -0.0535
 1667SOL    HW110964   0.346   5.731  12.458  0.4921 -1.7554  2.2641
 1667SOL    HW210965   0.269   5.804  12.566 -0.6741  1.1373 -0.3646
 1668SOL     OW10966   0.535   2.044   0.671 -0.0563  0.0145  0.2742
 1668SOL    HW110967   0.469   2.111   0.686  0.7056  0.4515  1.9544
 1668SOL    HW210968   0.485   1.964   0.654 -0.9774  1.0509 -2.3573
 1669SOL     OW10969   9.716   3.519   4.650  0.0900 -0.0823 -0.0622
 1669SOL    HW110970   9.654   3.457   4.613 -0.2661  0.1061  0.2125
 1669SOL    HW210971   9.795   3.508   4.598 -0.1166 -0.4468 -0.3024
 1670SOL     OW10972   3.925  10.326   2.641  0.1460  0.4906  0.4708
 1670SOL    HW110973   3.910  10.407   2.690 -0.4952  0.4977  0.2633
 1670SOL    HW210974   4.019  10.328   2.622  0.0920  1.3158  0.2374
 1671SOL     OW10975   2.122   4.305   8.855 -0.2200 -0.4027 -0.2904
 1671SOL    HW110976   2.204   4.304   8.805  0.5150 -2.9846  0.8318
 1671SOL    HW210977   2.068   4.238   8.813 -0.4615 -1.0194  0.9791
 1672SOL     OW10978   1.890   9.649   3.483  0.3461  0.6444  0.1840
 1672SOL    HW110979   1.943   9.576   3.515  1.0554  1.4395  0.8894
 1672SOL    HW210980   1.889   9.711   3.556  1.2023  2.0889 -0.9825
 1673SOL     OW10981   8.600   1.205  10.407 -0.1312 -0.0112  0.0213
 1673SOL    HW110982   8.551   1.127  10.380  0.6453  0.2408 -2.3154
 1673SOL    HW210983   8.672   1.170  10.459 -0.0190 -0.8476 -0.6648
 1674SOL     OW10984  10.440  10.725   8.019 -0.4504 -0.0726  0.3135
 1674SOL    HW110985  10.375  10.660   8.046  1.0131 -2.0832 -0.7081
 1674SOL    HW210986  10.524  10.684   8.040  0.5648  0.7453 -1.8608
 1675SOL     OW10987   7.376   1.309   6.741 -0.0898  0.2859  0.0410
 1675SOL    HW110988   7.292   1.300   6.785 -0.1228 -0.8682 -0.2180
 1675SOL    HW210989   7.382   1.402   6.718 -2.0149  0.1210 -1.3610
 1676SOL     OW10990   1.875   5.225  12.444 -0.0997 -0.1141  0.2087
 1676SOL    HW110991   1.951   5.216  12.502  0.0187 -0.0534  0.0645
 1676SOL    HW210992   1.843   5.314  12.460 -0.9627 -0.5973  1.2629
 1677SOL     OW10993   6.193   4.071   7.002 -0.1999  0.3170  0.3486
 1677SOL    HW110994   6.146   4.145   6.963  0.0486 -0.4226 -1.4734
 1677SOL    HW210995   6.233   4.027   6.927  1.7634 -0.2137  1.6427
 1678SOL     OW10996   1.744   3.090   0.485 -0.2212 -0.2289  0.0992
 1678SOL    HW110997   1.706   3.094   0.573  0.8528  1.3033  0.5548
 1678SOL    HW210998   1.744   3.181   0.455  1.0038 -0.4894 -0.7707
 1679SOL     OW10999   0.970   5.482   6.819 -0.3894 -0.0581  0.7163
 1679SOL    HW111000   0.972   5.483   6.723 -1.2042  1.1073  0.6840
 1679SOL    HW211001   0.878   5.476   6.841 -0.8332  4.8088  1.3074
 1680SOL     OW11002   9.134   3.356   6.898  0.1183  0.1801  0.1260
 1680SOL    HW111003   9.073   3.288   6.869  0.2404  0.3949 -0.6325
 1680SOL    HW211004   9.213   3.307   6.924  0.4373  0.0754 -1.0151
 1681SOL     OW11005   7.873   9.030   8.455 -0.1511  0.1227  0.2974
 1681SOL    HW111006   7.784   8.995   8.461 -0.1182  0.0660  0.4388
 1681SOL    HW211007   7.917   8.999   8.533  0.1402 -0.2582 -0.0160
 1682SOL     OW11008   9.913   8.364   9.337  0.4529 -0.2158  0.0069
 1682SOL    HW111009   9.921   8.432   9.404  0.7423  1.1748 -1.3678
 1682SOL    HW211010   9.818   8.351   9.328  0.3769  0.2937  0.0191
 1683SOL     OW11011   4.178  10.054   0.780 -0.3543 -0.3075 -0.3408
 1683SOL    HW111012   4.146   9.969   0.750 -1.2591 -0.1400  0.1022
 1683SOL    HW211013   4.219  10.093   0.703  1.9423 -1.9738 -0.0776
 1684SOL     OW11014  11.125   2.554   8.478 -0.0130 -0.1606  0.1695
 1684SOL    HW111015  11.129   2.606   8.398 -1.0051 -1.2956 -0.6620
 1684SOL    HW211016  11.173   2.474   8.457 -1.1941 -0.9355  0.3060
 1685SOL     OW11017   8.939  10.999   3.407 -0.0924 -0.5316 -0.7055
 1685SOL    HW111018   8.997  10.933   3.445  0.9576  1.8904  2.3410
 1685SOL    HW211019   8.852  10.957   3.408  0.5136 -1.8972  1.1269
 1686SOL     OW11020   6.346   9.207   1.672  0.0511 -0.2104 -0.4380
 1686SOL    HW111021   6.442   9.214   1.668  0.0905 -0.9512 -1.1292
 1686SOL    HW211022   6.322   9.166   1.589 -0.6921 -1.6622  0.4557
 1687SOL     OW11023   3.873   9.660   0.804 -0.2955 -0.0170  0.0575
 1687SOL    HW111024   3.853   9.749   0.833 -1.6128 -0.1602 -0.3559
 1687SOL    HW211025   3.868   9.607   0.883 -0.7077  0.0946  0.1086
 1688SOL     OW11026   6.920   9.132   9.222  0.2453  0.8217  0.0722
 1688SOL    HW111027   6.877   9.046   9.217 -0.1667  1.0866 -1.2810
 1688SOL    HW211028   6.851   9.195   9.201  0.5214  1.5034  1.1547
 1689SOL     OW11029   2.108   3.082   6.310  0.1754 -0.2815 -0.7469
 1689SOL    HW111030   2.043   3.147   6.284 -0.5773  0.5306  2.7583
 1689SOL    HW211031   2.191   3.117   6.277 -0.6462  0.5961 -1.9876
 1690SOL     OW11032   0.749   7.420   8.836 -0.0024 -0.4129  0.3212
 1690SOL    HW111033   0.795   7.336   8.834 -1.2113 -1.0861 -0.1810
 1690SOL    HW211034   0.688   7.412   8.909 -0.2335 -0.0347  0.1723
 1691SOL     OW11035  11.117   5.717   9.447  0.5098 -0.4782 -0.3022
 1691SOL    HW111036  11.111   5.626   9.475  1.0034 -0.8246 -1.2872
 1691SOL    HW211037  11.098   5.714   9.353 -1.8810  0.7376  0.0689
 1692SOL     OW11038   2.615   8.065   3.613  0.1168 -0.5217 -0.9016
 1692SOL    HW111039   2.692   8.101   3.569  0.7928 -0.2214  0.4586
 1692SOL    HW211040   2.598   8.126   3.685 -0.6243 -1.2590 -0.4344
 1693SOL     OW11041   3.914   3.957   9.902  0.1355  0.3110  0.3809
 1693SOL    HW111042   3.835   3.907   9.884 -1.2320  1.0835  3.5431
 1693SOL    HW211043   3.966   3.900   9.960  1.0926  0.4956 -0.2690
 1694SOL     OW11044   4.336   1.354   3.285  0.0757 -0.6434 -0.6737
 1694SOL    HW111045   4.257   1.344   3.338 -0.9729  1.0498 -1.8312
 1694SOL    HW211046   4.353   1.266   3.251  0.0022 -1.4885  1.3111
 1695SOL     OW11047   8.826  10.769   7.087 -0.1174 -0.4044 -0.2832
 1695SOL    HW111048   8.893  10.824   7.048 -0.7727  1.7737  1.5036
 1695SOL    HW211049   8.749  10.825   7.094 -0.5797 -1.2521  2.3845
 1696SOL     OW11050  11.794  11.430   6.170  0.0906 -0.4503 -0.2067
 1696SOL    HW111051  11.889  11.426   6.175  0.1032  0.0470 -0.0474
 1696SOL    HW211052  11.775  11.426   6.076  0.4016  2.0927 -0.4298
 1697SOL     OW11053   5.748   4.128  10.172  0.1869 -0.1311 -0.0058
 1697SOL    HW111054   5.656   4.115  10.148 -0.5559  0.8615  2.0814
 1697SOL    HW211055   5.758   4.081  10.254  1.5230 -0.1205 -0.1514
 1698SOL     OW11056   4.231   1.794  11.410 -0.3089 -0.1174  0.6244
 1698SOL    HW111057   4.252   1.853  11.483  1.7875 -0.9631  0.7919
 1698SOL    HW211058   4.227   1.707  11.451 -0.4346 -0.4438 -0.0741
 1699SOL     OW11059   1.028   4.920  10.587 -0.3126  0.6637  0.1956
 1699SOL    HW111060   1.051   4.831  10.560 -0.1298  0.2570  1.6125
 1699SOL    HW211061   0.947   4.939  10.541 -0.9714 -0.6860  0.7375
 1700SOL     OW11062  11.089   3.918   0.627  0.0500 -0.1666 -0.4460
 1700SOL    HW111063  11.000   3.922   0.593  0.6303  0.0268 -2.0195
 1700SOL    HW211064  11.107   3.825   0.639 -0.6328 -0.1684  0.6827
 1701SOL     OW11065  10.911   7.228   9.633  0.5288 -0.4735 -0.0169
 1701SOL    HW111066  10.944   7.186   9.554  1.1906 -0.7990  0.4237
 1701SOL    HW211067  10.816   7.230   9.622  0.6054 -0.6635 -0.7414
 1702SOL     OW11068   7.580  12.217   6.186  0.3378  0.1503  0.2845
 1702SOL    HW111069   7.664  12.180   6.158 -1.1055 -1.5933 -2.1051
 1702SOL    HW211070   7.532  12.144   6.223 -0.9639  0.5815 -0.4857
 1703SOL     OW11071   4.750   0.047   8.154 -0.7787  0.1922 -0.0866
 1703SOL    HW111072   4.728   0.117   8.216 -0.2025  0.6283 -0.3621
 1703SOL    HW211073   4.762  -0.030   8.209 -3.2716 -0.1769  0.0586
 1704SOL     OW11074   0.026  10.940   8.290  0.0737  0.0175  0.0912
 1704SOL    HW111075  -0.068  10.935   8.273  0.0076  0.4271  0.3052
 1704SOL    HW211076   0.065  10.878   8.229 -0.1898  1.0800 -1.1857
 1705SOL     OW11077   7.659   6.198   8.034  0.0686 -0.2615 -0.3250
 1705SOL    HW111078   7.614   6.126   8.079  0.4692  0.0196  0.5603
 1705SOL    HW211079   7.752   6.177   8.043  0.3165  1.4104  1.8716
 1706SOL     OW11080   9.919   0.570   5.587 -0.3191  0.1005  0.2424
 1706SOL    HW111081   9.868   0.551   5.508 -0.5603 -2.8560  0.9872
 1706SOL    HW211082   9.857   0.616   5.645 -2.0336 -2.6385  0.7842
 1707SOL     OW11083   8.692   9.821  11.356 -0.6946  0.1571 -0.1683
 1707SOL    HW111084   8.771   9.781  11.392 -0.4431 -1.5819 -2.4383
 1707SOL    HW211085   8.621   9.788  11.411 -0.0252  0.5150  0.9474
 1708SOL     OW11086   2.008  10.725   6.228  0.5596 -0.0126 -0.0751
 1708SOL    HW111087   1.925  10.681   6.210  0.3028  0.3647  0.1790
 1708SOL    HW211088   2.019  10.786   6.155  0.3435  0.3247  0.1722
 1709SOL     OW11089  11.017   9.420   8.061  0.1304 -0.0571  0.0017
 1709SOL    HW111090  11.028   9.335   8.017 -0.3165  0.4373 -1.1053
 1709SOL    HW211091  10.988   9.479   7.991  0.0627  0.9205  0.8406
 1710SOL     OW11092   6.110   0.959   2.121  0.1096  0.0956 -0.3517
 1710SOL    HW111093   6.082   0.868   2.136  1.3898  0.0129  2.1088
 1710SOL    HW211094   6.204   0.953   2.107  0.3083  1.0918  0.4581
 1711SOL     OW11095   6.510   0.759   1.392  0.1961  0.4271  0.3884
 1711SOL    HW111096   6.486   0.676   1.352 -0.2404  0.4580  0.5897
 1711SOL    HW211097   6.546   0.735   1.477 -0.3154  0.4716  0.6197
 1712SOL     OW11098   3.702  10.394   1.824 -0.4718 -0.4518  0.6552
 1712SOL    HW111099   3.732  10.436   1.743 -2.6722 -2.2991 -1.2858
 1712SOL    HW211100   3.667  10.465   1.877  1.1559  0.8250  0.0981
 1713SOL     OW11101   3.478   5.571   1.028 -0.1547 -0.5188  0.0771
 1713SOL    HW111102   3.502   5.650   1.075  1.1745 -0.2913 -0.9304
 1713SOL    HW211103   3.491   5.593   0.936 -0.9142 -1.5350 -0.2895
 1714SOL     OW11104   2.014   5.618   7.991 -0.2820 -0.0534 -0.2073
 1714SOL    HW111105   1.927   5.590   8.022  0.6980 -1.5736  1.3119
 1714SOL    HW211106   2.016   5.589   7.900 -1.4337  0.2011 -0.3407
 1715SOL     OW11107   6.904   8.344  10.731  0.8971  0.3541 -0.1306
 1715SOL    HW111108   6.907   8.337  10.827  1.5189  2.1723  0.0194
 1715SOL    HW211109   6.934   8.259  10.700  0.3427 -0.3829  1.2820
 1716SOL     OW11110   4.250   7.480   0.189 -0.1234 -0.6545 -0.4846
 1716SOL    HW111111   4.213   7.399   0.223 -1.9735 -0.4019 -1.7663
 1716SOL    HW211112   4.334   7.454   0.151  1.4325 -1.1498  2.9676
 1717SOL     OW11113   9.478  11.725   9.742  0.2467  0.0096  0.0121
 1717SOL    HW111114   9.564  11.694   9.714  1.0652  2.6214 -0.6436
 1717SOL    HW211115   9.496  11.789   9.811 -0.9639  1.9730 -1.3841
 1718SOL     OW11116  11.515   1.128   9.088 -0.0165  0.4504 -0.4150
 1718SOL    HW111117  11.455   1.093   9.022  0.3174  0.1329 -0.5518
 1718SOL    HW211118  11.567   1.193   9.040  0.6837 -0.2639 -0.6262
 1719SOL     OW11119   5.050   4.044   6.727  0.3412  0.1343 -0.8966
 1719SOL    HW111120   5.109   4.117   6.743  0.5226  0.3978 -2.5998
 1719SOL    HW211121   4.986   4.048   6.799  1.0255  1.2423 -0.3296
 1720SOL     OW11122   5.218   2.921   3.014 -0.0084 -0.4126 -0.2681
 1720SOL    HW111123   5.276   2.945   3.087  1.0416 -1.9399 -0.5453
 1720SOL    HW211124   5.132   2.910   3.055 -0.0449  1.4319  0.2395
 1721SOL     OW11125   8.767   1.077   4.196  0.3077 -0.2315  0.7726
 1721SOL    HW111126   8.762   1.007   4.131 -1.5616  2.0427 -1.7622
 1721SOL    HW211127   8.682   1.075   4.240  0.2393  0.4058  0.6779
 1722SOL     OW11128   4.374   3.098   3.233 -0.7805  0.5331 -0.0085
 1722SOL    HW111129   4.422   3.085   3.314 -0.6354  0.9600 -0.0204
 1722SOL    HW211130   4.364   3.011   3.195  2.6836  0.6600 -1.5551
 1723SOL     OW11131   0.110   3.060   6.998 -0.2651 -0.1338 -0.5570
 1723SOL    HW111132   0.155   3.068   6.914  1.5248 -0.5416  0.3087
 1723SOL    HW211133   0.074   3.147   7.015  2.1262  0.8763 -0.3012
 1724SOL     OW11134   1.411  10.545   1.361 -0.6037  0.1117 -0.0996
 1724SOL    HW111135   1.414  10.498   1.278 -0.5735  0.3597 -0.2390
 1724SOL    HW211136   1.392  10.636   1.337 -0.8956  0.1273  0.1865
 1725SOL     OW11137  10.801  11.655   3.843  0.3312 -0.2653 -0.6884
 1725SOL    HW111138  10.711  11.625   3.853  0.0060  0.3156 -1.7410
 1725SOL    HW211139  10.841  11.640   3.928 -1.7449  2.7668  1.0265
 1726SOL     OW11140  11.304   1.312   3.825 -0.5655  0.3585  0.6764
 1726SOL    HW111141  11.353   1.289   3.747 -1.7498  0.9993 -0.2977
 1726SOL    HW211142  11.218   1.272   3.812 -0.9254  0.8634  1.4258
 1727SOL     OW11143   4.051   0.409  10.389 -0.4711  0.1304  0.4759
 1727SOL    HW111144   4.075   0.317  10.374  1.6604  0.7462 -0.2881
 1727SOL    HW211145   3.989   0.429  10.320 -0.1118 -0.4540 -0.0289
 1728SOL     OW11146   8.257  10.547   1.136  0.1165  0.0003 -0.3734
 1728SOL    HW111147   8.279  10.604   1.210 -0.7601  0.9026 -0.7727
 1728SOL    HW211148   8.326  10.482   1.134  1.6251  1.5266 -0.3665
 1729SOL     OW11149   0.033   1.853   7.932 -0.3929 -0.0997  0.1443
 1729SOL    HW111150  -0.051   1.809   7.942 -0.0593 -0.8922 -0.3957
 1729SOL    HW211151   0.097   1.789   7.963  0.0643  0.2400 -0.0902
 1730SOL     OW11152   6.977   9.231   1.529 -0.2559 -0.0978  0.3038
 1730SOL    HW111153   6.921   9.292   1.480 -0.2706 -0.1088  0.3072
 1730SOL    HW211154   6.998   9.162   1.466 -2.6308 -1.6512  1.0802
 1731SOL     OW11155   0.637   4.447   6.312 -0.0301  0.0370  0.0800
 1731SOL    HW111156   0.671   4.531   6.342  0.6959  0.5232 -1.9329
 1731SOL    HW211157   0.565   4.469   6.253  0.2760 -0.7281 -0.6011
 1732SOL     OW11158   3.571   8.098   0.158 -0.2125  0.0601  0.1711
 1732SOL    HW111159   3.540   8.038   0.226  1.7537 -0.7545  0.4132
 1732SOL    HW211160   3.615   8.042   0.094 -0.3392  1.0265 -0.7955
 1733SOL     OW11161   8.055   0.290   1.490 -0.2041  0.1106 -0.6103
 1733SOL    HW111162   8.024   0.252   1.572  0.0989 -0.3445 -0.7035
 1733SOL    HW211163   8.029   0.382   1.495  1.3294  0.5120  0.7720
 1734SOL     OW11164   5.964   6.243   3.958 -0.5552 -0.2896 -0.4592
 1734SOL    HW111165   5.883   6.270   4.002 -0.2535  0.4372 -0.3344
 1734SOL    HW211166   5.938   6.232   3.867 -1.0172 -1.0685 -0.2500
 1735SOL     OW11167   5.044   2.536   5.083  0.8945  0.1992 -0.0686
 1735SOL    HW111168   5.087   2.580   5.010 -0.7146 -0.2109 -1.3076
 1735SOL    HW211169   5.020   2.450   5.050 -1.2368  0.5529  0.3932
 1736SOL     OW11170   6.571   5.926   0.625 -0.0094 -0.0144  0.0260
 1736SOL    HW111171   6.607   6.007   0.660  2.4456 -1.2915  0.6782
 1736SOL    HW211172   6.497   5.954   0.571  0.4542  2.5866  0.6088
 1737SOL     OW11173   7.404  11.879   3.955 -0.1873 -0.2836 -0.4573
 1737SOL    HW111174   7.468  11.923   3.899  1.7355 -1.4969  0.6704
 1737SOL    HW211175   7.376  11.803   3.904  0.1309 -0.3618 -0.5165
 1738SOL     OW11176   5.214  10.731  12.487 -0.0472  0.5426  0.6844
 1738SOL    HW111177   5.272  10.660  12.458  1.8681  1.7352  1.4294
 1738SOL    HW211178   5.154  10.744  12.413 -2.2482 -3.5334  1.4642
 1739SOL     OW11179   8.201  11.171   2.369  0.1122 -0.1578 -0.4253
 1739SOL    HW111180   8.275  11.128   2.327  0.2457  0.1154 -0.4723
 1739SOL    HW211181   8.241  11.234   2.429 -0.0631 -0.9870  0.5890
 1740SOL     OW11182   1.446   3.516   8.927 -0.1868  0.4725  0.2618
 1740SOL    HW111183   1.353   3.497   8.916 -0.0514  0.0963 -0.2492
 1740SOL    HW211184   1.457   3.526   9.021 -0.7809  0.7159  0.3130
 1741SOL     OW11185  11.587   5.966  10.151 -0.6901 -0.4974 -0.1068
 1741SOL    HW111186  11.636   5.891  10.117 -2.3459 -0.2900 -3.2805
 1741SOL    HW211187  11.622   6.041  10.103 -1.6101  0.2112  0.3028
 1742SOL     OW11188   7.618   0.562  11.158 -0.0191 -0.4491 -0.3144
 1742SOL    HW111189   7.686   0.571  11.091  0.7140  1.9735  0.6326
 1742SOL    HW211190   7.665   0.574  11.241 -1.5001  0.7802  0.3880
 1743SOL     OW11191   2.556   5.459  11.806  0.1158  0.0763  0.1074
 1743SOL    HW111192   2.503   5.514  11.863 -1.8451 -0.9075 -0.6779
 1743SOL    HW211193   2.642   5.457  11.847 -0.0888  2.6563  0.8293
 1744SOL     OW11194   3.626   7.689   9.102  0.6907 -0.4442 -0.4521
 1744SOL    HW111195   3.648   7.631   9.175 -0.0066 -0.5155 -0.2959
 1744SOL    HW211196   3.616   7.630   9.027  1.1954 -0.3917 -0.5704
 1745SOL     OW11197  10.631   4.626   9.573 -0.2903  0.2979 -0.1772
 1745SOL    HW111198  10.562   4.603   9.635 -0.8042 -0.7359 -1.1014
 1745SOL    HW211199  10.712   4.615   9.623 -0.6744 -0.9864  0.1944
 1746SOL     OW11200  10.291   1.193   0.900 -0.4793 -0.1257 -0.4037
 1746SOL    HW111201  10.291   1.197   0.805 -1.3117 -1.5478 -0.4918
 1746SOL    HW211202  10.308   1.102   0.921  0.0765  0.2348  0.8300
 1747SOL     OW11203   5.577   3.798   0.958 -0.1361  0.0655  0.1029
 1747SOL    HW111204   5.638   3.746   0.907  0.6774 -0.4545  1.5530
 1747SOL    HW211205   5.548   3.867   0.897  0.5442 -0.6981 -1.1311
 1748SOL     OW11206   5.171   4.201  11.429 -0.1094 -0.3934 -0.4690
 1748SOL    HW111207   5.235   4.186  11.498 -1.2137 -0.7536  0.5284
 1748SOL    HW211208   5.146   4.114  11.400  0.2160 -0.2447 -1.2048
 1749SOL     OW11209   8.820   6.361   9.485  0.1997  0.6399 -0.2750
 1749SOL    HW111210   8.777   6.414   9.418 -0.6268  0.0485 -0.2293
 1749SOL    HW211211   8.786   6.395   9.568  0.2689  0.5501 -0.2097
 1750SOL     OW11212   8.914  12.037   6.306  0.1701  0.0832  0.3739
 1750SOL    HW111213   8.918  11.987   6.224  2.4714 -2.3605  1.8237
 1750SOL    HW211214   8.855  11.987   6.362  0.0723  0.6993  0.8299
 1751SOL     OW11215   8.798  12.343   1.854  0.6622 -0.2020  0.5282
 1751SOL    HW111216   8.796  12.253   1.887 -1.1536 -0.5350 -0.3709
 1751SOL    HW211217   8.719  12.383   1.890  0.2896  0.3616 -0.8524
 1752SOL     OW11218   6.292   7.524   8.937  0.8218  0.3014 -0.4464
 1752SOL    HW111219   6.268   7.438   8.971  0.0080  1.0462  0.9592
 1752SOL    HW211220   6.319   7.574   9.014  0.6811  1.4893 -1.1374
 1753SOL     OW11221   1.406   1.208   8.472 -0.4436  0.3769 -0.2905
 1753SOL    HW111222   1.497   1.223   8.449 -0.2041 -0.2445  0.2303
 1753SOL    HW211223   1.357   1.267   8.414  0.2175 -0.0444 -1.3131
 1754SOL     OW11224   4.470   7.826   8.199 -0.5498  0.0401 -0.2998
 1754SOL    HW111225   4.538   7.791   8.142 -0.3964 -1.3041  0.6725
 1754SOL    HW211226   4.436   7.902   8.151  0.7180 -0.0435 -1.3945
 1755SOL     OW11227   0.182  10.908   9.253  0.2566  0.8224  0.5757
 1755SOL    HW111228   0.235  10.986   9.269  0.1856  0.9325  0.2845
 1755SOL    HW211229   0.187  10.895   9.158 -0.1904  0.7928  0.5582
 1756SOL     OW11230   8.876   1.200  11.562  0.0855  0.3029  0.0806
 1756SOL    HW111231   8.791   1.158  11.572  0.0177  0.4647  0.1870
 1756SOL    HW211232   8.856   1.294  11.564  0.5234  0.4131  2.5023
 1757SOL     OW11233   5.092   1.669   5.604 -0.2782  0.1979  0.3507
 1757SOL    HW111234   5.104   1.753   5.560 -1.5635  0.8380  1.1756
 1757SOL    HW211235   5.006   1.639   5.574 -0.3338 -0.2707  0.9668
 1758SOL     OW11236   7.370  11.064   1.119  0.7561  0.1657 -0.1212
 1758SOL    HW111237   7.439  11.096   1.177  0.6420  0.5437 -0.1907
 1758SOL    HW211238   7.325  10.997   1.171  0.7237  0.4223  0.1876
 1759SOL     OW11239  12.354   8.366   9.315 -0.0315 -0.1368  0.7047
 1759SOL    HW111240  12.288   8.423   9.355  0.2977 -0.4152  1.6875
 1759SOL    HW211241  12.303   8.304   9.262 -0.3854  1.0881 -0.4322
 1760SOL     OW11242   8.980  10.658   4.115 -0.1003  0.3138  0.1139
 1760SOL    HW111243   9.001  10.732   4.058  0.2844  0.8092  0.8773
 1760SOL    HW211244   8.935  10.596   4.058  2.8313 -0.5319 -1.4912
 1761SOL     OW11245   6.998  10.883   3.105 -0.2642 -0.1134  0.0951
 1761SOL    HW111246   7.064  10.839   3.159  1.5009  1.7460 -0.3926
 1761SOL    HW211247   7.036  10.882   3.017 -0.2532  2.0610  0.0215
 1762SOL     OW11248   9.056   7.640   8.543  0.3191  0.0562  0.3435
 1762SOL    HW111249   9.126   7.587   8.581 -0.6577 -0.0515  2.1208
 1762SOL    HW211250   9.050   7.717   8.600 -0.9613  0.0834  0.2151
 1763SOL     OW11251   1.726   8.461   4.469  0.2442  0.0614 -0.6018
 1763SOL    HW111252   1.752   8.534   4.525  0.2612 -0.5574  0.2162
 1763SOL    HW211253   1.630   8.463   4.469  0.2443  0.0629 -0.5453
 1764SOL     OW11254  11.559   5.291   4.194 -0.5737  0.2373  0.2064
 1764SOL    HW111255  11.463   5.295   4.199 -0.6781  0.3871 -1.3319
 1764SOL    HW211256  11.578   5.199   4.175 -0.2724 -0.1497  2.1485
 1765SOL     OW11257   5.803   2.013  10.014 -0.0485  0.4841 -0.4308
 1765SOL    HW111258   5.766   2.099  10.037  0.1138  0.5316 -0.3406
 1765SOL    HW211259   5.813   1.969  10.098 -0.6413  0.1646 -0.5247
 1766SOL     OW11260   7.772   9.895   7.710  0.3355 -0.4641  0.4904
 1766SOL    HW111261   7.712   9.931   7.775 -0.6431 -0.4428 -0.3961
 1766SOL    HW211262   7.852   9.946   7.721 -0.9211  1.9518 -0.5730
 1767SOL     OW11263  11.021   0.730   9.482 -0.0156  0.2577 -0.1714
 1767SOL    HW111264  11.079   0.761   9.412  0.2113 -1.1975 -0.6657
 1767SOL    HW211265  10.936   0.768   9.462 -0.2277 -1.0433 -1.9133
 1768SOL     OW11266   2.064   0.111   7.610  0.2154 -0.1624 -0.1183
 1768SOL    HW111267   2.138   0.063   7.647  0.0137 -1.2244 -1.0387
 1768SOL    HW211268   2.083   0.203   7.628  0.3630 -0.5851  2.1635
 1769SOL     OW11269   6.872   6.103  10.063  0.3892  0.4131 -0.1153
 1769SOL    HW111270   6.935   6.127  10.131  0.7349 -0.1053 -0.2435
 1769SOL    HW211271   6.916   6.034  10.013  0.2908  1.0565 -1.1079
 1770SOL     OW11272   0.027  12.395   7.549 -0.8206 -0.3825 -0.9824
 1770SOL    HW111273  -0.010  12.343   7.620  1.1504 -0.0564  0.3782
 1770SOL    HW211274   0.095  12.447   7.591  1.6025 -1.3862 -3.3747
 1771SOL     OW11275   2.163   9.517  12.089 -0.1552  0.3357  0.1036
 1771SOL    HW111276   2.079   9.487  12.053  0.5585 -0.8081 -0.6840
 1771SOL    HW211277   2.212   9.436  12.106  1.3109  1.0051 -0.7712
 1772SOL     OW11278   5.538   9.449  10.195 -0.5348 -0.1110  0.3145
 1772SOL    HW111279   5.623   9.406  10.191 -1.0617 -1.1206 -2.4191
 1772SOL    HW211280   5.496   9.410  10.272  0.8389 -0.8587  0.7245
 1773SOL     OW11281   5.290   8.935   2.833  0.1002  0.3744 -0.4899
 1773SOL    HW111282   5.289   8.864   2.767 -0.4776 -1.1550  1.0772
 1773SOL    HW211283   5.375   8.977   2.821 -0.0630  0.2869 -2.3409
 1774SOL     OW11284   5.390   9.615  11.923 -0.0613  0.3778 -0.1939
 1774SOL    HW111285   5.341   9.687  11.883 -0.5853 -1.2205 -2.7315
 1774SOL    HW211286   5.402   9.552  11.851  1.5839 -1.4433  1.5409
 1775SOL     OW11287   5.251   0.566   3.481  0.2546 -0.2548 -0.3448
 1775SOL    HW111288   5.287   0.584   3.394  0.4203  1.2436  0.0055
 1775SOL    HW211289   5.242   0.652   3.521 -2.6337 -0.6477  0.0351
 1776SOL     OW11290   1.112   4.532   1.438  0.1121  0.2330 -0.2858
 1776SOL    HW111291   1.031   4.509   1.484 -1.5329  2.1179 -2.0169
 1776SOL    HW211292   1.130   4.622   1.466  1.6452 -0.1436  0.0377
 1777SOL     OW11293   8.091   7.679   4.096 -0.3367 -0.4882 -0.0064
 1777SOL    HW111294   8.109   7.606   4.155 -1.5174 -0.5929  0.2581
 1777SOL    HW211295   8.085   7.755   4.154  4.1552  0.5716 -0.5357
 1778SOL     OW11296   7.017   6.434   0.608  0.1602  0.4190 -0.2181
 1778SOL    HW111297   7.086   6.471   0.663 -1.5970 -0.2630  2.6721
 1778SOL    HW211298   6.945   6.497   0.615 -0.8311 -0.7149 -0.0275
 1779SOL     OW11299   5.872   0.929   3.724  0.2812 -0.3988  0.0360
 1779SOL    HW111300   5.890   0.925   3.630  0.1871  0.8975 -0.0538
 1779SOL    HW211301   5.777   0.938   3.729  0.2382 -0.9864  0.2765
 1780SOL     OW11302   3.313   5.930   0.683  0.0255  0.0142 -0.1877
 1780SOL    HW111303   3.396   5.976   0.695  0.8714 -1.3932 -0.4994
 1780SOL    HW211304   3.259   5.991   0.632  0.7167  1.0960  0.3413
 1781SOL     OW11305   3.171   0.493   6.937 -0.2211 -0.5843  0.0865
 1781SOL    HW111306   3.123   0.446   6.869 -0.1357 -0.2218 -0.2292
 1781SOL    HW211307   3.250   0.526   6.894 -0.2696 -0.1705  0.2999
 1782SOL     OW11308   5.304   6.304   3.581  0.0738 -0.7403 -1.0091
 1782SOL    HW111309   5.293   6.302   3.676 -0.5079 -0.1830 -1.0571
 1782SOL    HW211310   5.231   6.252   3.548  0.7388 -1.6115 -1.1238
 1783SOL     OW11311   0.403   7.410  11.578 -0.1349 -0.0324  0.3654
 1783SOL    HW111312   0.324   7.458  11.601  0.1689  0.2629  0.7990
 1783SOL    HW211313   0.372   7.334  11.529 -0.7258 -0.2376  1.0476
 1784SOL     OW11314   6.732   1.325   7.955 -0.3396 -0.0159 -0.0367
 1784SOL    HW111315   6.819   1.343   7.990 -0.7118  0.4425  0.6953
 1784SOL    HW211316   6.672   1.348   8.027 -1.0521 -0.5111 -0.4530
 1785SOL     OW11317   5.913   2.184   5.779  0.0173 -0.5151 -0.3860
 1785SOL    HW111318   5.819   2.167   5.790 -0.3727  1.2919 -0.5753
 1785SOL    HW211319   5.919   2.280   5.771  1.7698 -0.6669 -1.4133
 1786SOL     OW11320  10.567   9.554   2.348 -0.4352 -0.6279 -0.2302
 1786SOL    HW111321  10.474   9.568   2.369 -0.2053 -0.6724  0.9139
 1786SOL    HW211322  10.574   9.575   2.255 -1.3925  0.3975 -0.0970
 1787SOL     OW11323   1.215  11.513   6.232  0.1791 -0.3875 -0.0076
 1787SOL    HW111324   1.297  11.528   6.280  0.0900  0.7897 -0.1954
 1787SOL    HW211325   1.243  11.484   6.146  0.5832  2.8483 -1.1212
 1788SOL     OW11326   9.859  11.336   4.693 -0.5641  0.1786 -0.3590
 1788SOL    HW111327   9.840  11.331   4.786 -0.0077  0.9976 -0.1907
 1788SOL    HW211328   9.935  11.280   4.680 -2.1068 -1.9351 -0.7793
 1789SOL     OW11329   7.528  12.281   5.367 -0.4785 -0.1049 -0.1504
 1789SOL    HW111330   7.554  12.328   5.287 -1.3735  0.3232 -0.1955
 1789SOL    HW211331   7.459  12.221   5.338 -0.1562 -0.6243  0.1323
 1790SOL     OW11332   9.628   6.525   3.661 -0.1516  0.0510 -0.4607
 1790SOL    HW111333   9.715   6.534   3.700 -0.6831 -0.1775  0.8686
 1790SOL    HW211334   9.617   6.430   3.648 -0.0810  0.1056 -0.9021
 1791SOL     OW11335   6.224   7.481   4.143 -0.2055  0.1515 -1.0282
 1791SOL    HW111336   6.286   7.415   4.173 -0.5222  0.8915  1.4598
 1791SOL    HW211337   6.273   7.563   4.142 -0.6296  0.4134 -0.9499
 1792SOL     OW11338   5.530   8.100   4.130 -0.3757 -0.7481  0.9985
 1792SOL    HW111339   5.592   8.038   4.170 -2.0521 -2.7453  0.6896
 1792SOL    HW211340   5.565   8.116   4.043  0.7960 -0.1458  1.5526
 1793SOL     OW11341   8.561   6.571   9.062 -0.1285  0.7013  0.3953
 1793SOL    HW111342   8.482   6.518   9.054  0.8420 -1.0663  1.7520
 1793SOL    HW211343   8.578   6.603   8.974 -2.1813  0.9139  0.0353
 1794SOL     OW11344   7.580   2.595  11.814 -0.1385  0.6464 -0.3061
 1794SOL    HW111345   7.616   2.545  11.741  2.4366  0.8727  0.6915
 1794SOL    HW211346   7.510   2.540  11.849  0.4137 -0.7071 -1.2523
 1795SOL     OW11347  11.949   9.343   9.863 -0.1827 -0.2698  0.0330
 1795SOL    HW111348  11.939   9.387   9.779 -2.5445  1.2924  1.0502
 1795SOL    HW211349  11.862   9.309   9.884  0.2055 -0.1615  2.0689
 1796SOL     OW11350   5.167   1.021   4.818  0.6254 -0.8196 -0.0380
 1796SOL    HW111351   5.245   1.037   4.870  0.3799 -0.8247  0.3388
 1796SOL    HW211352   5.149   0.927   4.830  1.0532 -1.0117 -0.8199
 1797SOL     OW11353   8.901   3.347  11.696 -0.1510 -0.4334 -0.1775
 1797SOL    HW111354   8.991   3.375  11.684  0.1331 -1.7349 -1.2628
 1797SOL    HW211355   8.893   3.331  11.790  0.5835  0.1656 -0.0040
 1798SOL     OW11356   0.271   8.478   0.093  0.1605 -0.1811 -0.1035
 1798SOL    HW111357   0.339   8.414   0.072 -1.0026 -1.8965  1.0958
 1798SOL    HW211358   0.189   8.432   0.074 -0.7358  0.5220  1.8933
 1799SOL     OW11359   8.263   0.902   7.443 -0.2145  0.2700 -0.0570
 1799SOL    HW111360   8.174   0.892   7.410 -0.1265 -0.1227 -0.1736
 1799SOL    HW211361   8.319   0.869   7.373 -0.0692 -1.5240  0.8628
 1800SOL     OW11362   4.200  12.481  11.295  0.4162  0.2098 -0.2319
 1800SOL    HW111363   4.125  12.502  11.241 -0.8055  0.7818  1.5935
 1800SOL    HW211364   4.204  12.551  11.360  2.6623  0.3064 -0.3808
 1801SOL     OW11365   9.775   2.346   8.328 -0.0566  0.0207  0.0735
 1801SOL    HW111366   9.802   2.316   8.241 -1.4945  1.5998 -0.9742
 1801SOL    HW211367   9.682   2.321   8.334 -0.2447  0.8393  0.7326
 1802SOL     OW11368   5.980   5.388   9.580  0.0622  0.2095  0.2900
 1802SOL    HW111369   6.055   5.403   9.523 -0.2780  0.8862  0.0137
 1802SOL    HW211370   5.906   5.375   9.521 -0.4786  1.8791  0.5638
 1803SOL     OW11371   7.338   7.624   7.023  0.4152 -0.2227 -0.3259
 1803SOL    HW111372   7.432   7.607   7.023  0.5062  0.2071 -1.3581
 1803SOL    HW211373   7.313   7.617   6.931  0.1385  3.2263 -0.6374
 1804SOL     OW11374   8.777   5.268   6.455  0.3799  0.3442 -0.3213
 1804SOL    HW111375   8.690   5.278   6.494 -0.4388 -0.5075 -1.8120
 1804SOL    HW211376   8.760   5.248   6.363  2.1736  0.2659 -0.6832
 1805SOL     OW11377   6.495   4.040  10.679  0.1614 -0.3533 -0.2357
 1805SOL    HW111378   6.420   4.040  10.738 -0.0739 -0.4577 -0.5305
 1805SOL    HW211379   6.511   3.947  10.661  2.4897 -0.6116  2.4707
 1806SOL     OW11380   5.033   4.205   3.438 -0.1870 -0.2701 -0.5383
 1806SOL    HW111381   4.997   4.285   3.400  0.1730  0.2928  0.2683
 1806SOL    HW211382   5.111   4.234   3.486  0.2544 -1.1866 -0.6801
 1807SOL     OW11383   3.614   0.740  11.099  0.0014  0.0473 -0.4930
 1807SOL    HW111384   3.564   0.805  11.148  0.2588 -0.1260  0.0023
 1807SOL    HW211385   3.614   0.663  11.155 -0.0639 -0.2891 -0.9549
 1808SOL     OW11386   3.809   5.640  10.242  0.5475 -0.2180 -0.3409
 1808SOL    HW111387   3.836   5.560  10.198 -1.0156  0.2612 -2.2933
 1808SOL    HW211388   3.746   5.611  10.308  0.2319 -0.6162 -0.8154
 1809SOL     OW11389   4.886   8.266   1.270 -0.3123 -0.7003 -0.2426
 1809SOL    HW111390   4.889   8.335   1.204 -0.2747 -0.1979  0.2808
 1809SOL    HW211391   4.842   8.193   1.226  0.4747 -0.6779 -1.1027
 1810SOL     OW11392   0.837   2.386   0.015  0.0467  0.1439  0.3290
 1810SOL    HW111393   0.787   2.305   0.019 -0.2479  0.1601 -1.8732
 1810SOL    HW211394   0.780   2.447  -0.032  1.1073  0.9481  0.0452
 1811SOL     OW11395   3.598  12.155   1.960  0.2777 -0.0805 -0.0685
 1811SOL    HW111396   3.524  12.187   1.908  0.9475 -0.4428 -1.2923
 1811SOL    HW211397   3.569  12.071   1.994 -0.3009  0.3258  0.4616
 1812SOL     OW11398  12.134   7.862  12.212 -0.3098 -0.4402 -0.4096
 1812SOL    HW111399  12.227   7.886  12.208 -0.5803  0.7411  0.0540
 1812SOL    HW211400  12.088   7.945  12.213 -1.3189 -0.9796  1.0190
 1813SOL     OW11401   9.217  10.261  12.127 -0.0463  0.1230  0.1860
 1813SOL    HW111402   9.236  10.180  12.175 -1.0836  0.4955  1.2680
 1813SOL    HW211403   9.285  10.265  12.059  1.1995 -0.6665  1.3294
 1814SOL     OW11404   2.585   9.889   1.869 -0.0832  0.2147 -0.4742
 1814SOL    HW111405   2.621   9.801   1.877  1.0390  0.6101 -0.8260
 1814SOL    HW211406   2.523   9.884   1.797  0.6931 -0.0859 -1.1337
 1815SOL     OW11407   2.688   0.099   5.630 -0.6304 -0.0517 -0.5391
 1815SOL    HW111408   2.756   0.033   5.612  0.3999  0.7012  0.4642
 1815SOL    HW211409   2.632   0.058   5.696 -0.8851 -0.4988 -1.0281
 1816SOL     OW11410  10.569   5.036   1.979 -0.3185 -0.1098  0.3059
 1816SOL    HW111411  10.534   4.950   2.004  0.7551 -0.8550 -0.6239
 1816SOL    HW211412  10.507   5.069   1.914 -0.3444 -0.5191  0.1209
 1817SOL     OW11413  10.828   7.605   2.487  0.3786  0.1328 -0.1359
 1817SOL    HW111414  10.820   7.658   2.566  2.8383 -0.9032  0.9350
 1817SOL    HW211415  10.901   7.644   2.439 -0.2273 -0.0500 -1.2285
 1818SOL     OW11416   2.411   8.811   9.395  0.2962 -0.0146  0.3748
 1818SOL    HW111417   2.346   8.744   9.375 -0.1763  0.5654 -0.0585
 1818SOL    HW211418   2.416   8.811   9.491  0.3596 -0.7176  0.3779
 1819SOL     OW11419   8.474  11.452   6.681  0.3124  0.0616 -0.3034
 1819SOL    HW111420   8.515  11.370   6.708 -0.9947 -0.0863  1.4305
 1819SOL    HW211421   8.516  11.519   6.736 -0.1189  0.2362 -0.1800
 1820SOL     OW11422   1.508   3.196  11.954  0.2232  0.3599  0.3039
 1820SOL    HW111423   1.519   3.281  11.996  1.9296  0.7064 -0.7556
 1820SOL    HW211424   1.557   3.135  12.010  1.0412  0.5266 -0.2019
 1821SOL     OW11425   5.903   2.763  11.047 -0.1600 -0.3756 -0.2448
 1821SOL    HW111426   5.875   2.684  11.094 -1.1337 -1.4153 -2.4326
 1821SOL    HW211427   5.826   2.821  11.050  0.0361 -0.1225  0.0458
 1822SOL     OW11428   5.330   1.098  10.008  0.2262 -0.1270  0.2711
 1822SOL    HW111429   5.388   1.131  10.076 -0.0175  1.4431 -0.2469
 1822SOL    HW211430   5.246   1.139  10.025 -1.0542 -3.0018  1.4926
 1823SOL     OW11431   3.230   1.493   9.985  0.2219  0.6341  0.0949
 1823SOL    HW111432   3.140   1.491  10.018  0.0500  0.6605 -0.3603
 1823SOL    HW211433   3.223   1.457   9.897  0.4841  1.6335 -0.3428
 1824SOL     OW11434   1.163   0.234   5.932 -0.2371  0.2303 -0.9221
 1824SOL    HW111435   1.186   0.324   5.959  0.9388  0.2980 -2.0548
 1824SOL    HW211436   1.128   0.244   5.844  0.3844 -0.4685 -1.2552
 1825SOL     OW11437   2.378   5.247  10.529 -0.0241  0.1007  0.3892
 1825SOL    HW111438   2.406   5.230  10.619 -0.3986 -2.0955  0.1468
 1825SOL    HW211439   2.284   5.261  10.535 -0.0696 -0.1794  0.3201
 1826SOL     OW11440   2.288  11.764  11.368 -0.8043 -0.0559 -0.1274
 1826SOL    HW111441   2.257  11.854  11.380 -0.7331  0.0340 -0.6009
 1826SOL    HW211442   2.216  11.719  11.324 -0.1859  0.2234 -1.4736
 1827SOL     OW11443   4.033   2.810   3.884  0.8422  0.6390 -0.3262
 1827SOL    HW111444   4.040   2.844   3.794  0.9228  0.9696 -0.1962
 1827SOL    HW211445   3.964   2.864   3.924  0.5277  0.2272 -0.3090
 1828SOL     OW11446   3.051   5.848   9.332 -0.2529  0.5126 -0.0983
 1828SOL    HW111447   2.963   5.883   9.326  0.1410  1.7451  0.8687
 1828SOL    HW211448   3.048   5.786   9.405 -0.8031 -1.1120 -1.4310
 1829SOL     OW11449  11.634   1.059   8.770  1.0382  0.5421 -0.0480
 1829SOL    HW111450  11.655   1.146   8.805 -0.7177  0.9590  0.0395
 1829SOL    HW211451  11.624   1.073   8.676  0.1141  0.5889  0.0467
 1830SOL     OW11452   5.466  10.200   1.068  0.1024  0.1991 -0.2246
 1830SOL    HW111453   5.386  10.239   1.103 -0.8890 -2.0915  0.2645
 1830SOL    HW211454   5.535  10.265   1.087 -1.3054  1.3761  1.1047
 1831SOL     OW11455  10.711   5.460   5.203  0.2752 -0.2934  0.9356
 1831SOL    HW111456  10.756   5.424   5.279  0.1789  0.1449  1.2065
 1831SOL    HW211457  10.741   5.551   5.198  1.2639 -0.6642 -0.3195
 1832SOL     OW11458   5.775   5.871   9.607  0.5817 -0.1599 -0.2935
 1832SOL    HW111459   5.696   5.829   9.576  0.2303 -0.2746  0.7321
 1832SOL    HW211460   5.820   5.804   9.659  1.6094 -0.2579 -1.2598
 1833SOL     OW11461   9.460   3.415   8.832  0.2831  0.0288  0.2167
 1833SOL    HW111462   9.478   3.400   8.925  0.2601  4.0457  1.0601
 1833SOL    HW211463   9.366   3.398   8.822  0.0894  0.4948  1.1826
 1834SOL     OW11464   1.783  12.132   5.447  0.1908 -0.2523 -0.4986
 1834SOL    HW111465   1.710  12.092   5.494 -1.1348  1.7599 -0.7065
 1834SOL    HW211466   1.859  12.119   5.504 -0.2670 -2.4235 -0.2853
 1835SOL     OW11467  11.143   3.701   4.590  0.1779 -0.0043  0.1407
 1835SOL    HW111468  11.111   3.681   4.678 -0.1136 -1.0239 -0.1837
 1835SOL    HW211469  11.144   3.616   4.545  1.6305  0.2829 -0.4256
 1836SOL     OW11470   6.459  11.821   3.012 -0.5271  0.2598  0.5111
 1836SOL    HW111471   6.451  11.764   2.935 -1.3269  1.9098 -0.6775
 1836SOL    HW211472   6.386  11.882   3.005 -1.5530 -0.4900  3.4671
 1837SOL     OW11473  10.894   7.145   5.910 -0.1144  0.2698  0.2055
 1837SOL    HW111474  10.896   7.224   5.963  0.8997  0.4967 -0.1525
 1837SOL    HW211475  10.965   7.157   5.846 -1.4941  0.1661 -1.4232
 1838SOL     OW11476   2.253   8.171  10.738  0.1820 -0.0864 -0.0687
 1838SOL    HW111477   2.263   8.159  10.832 -0.4465  1.5358  0.2449
 1838SOL    HW211478   2.321   8.234  10.714 -2.1203  2.6944  0.1348
 1839SOL     OW11479   3.245   0.085  11.243  0.1483 -0.2498 -0.4479
 1839SOL    HW111480   3.257   0.039  11.326 -0.2425  0.0269 -0.2329
 1839SOL    HW211481   3.162   0.052  11.210 -0.5062  0.8226  0.0658
 1840SOL     OW11482  10.401   9.201   7.920  0.8767  0.3444 -0.1472
 1840SOL    HW111483  10.334   9.247   7.971  0.9522 -0.3905  0.6364
 1840SOL    HW211484  10.408   9.115   7.962  2.1836  0.3503 -0.3236
 1841SOL     OW11485   6.656   2.736   9.171 -0.4262 -0.6341  0.1492
 1841SOL    HW111486   6.634   2.789   9.248 -1.8344 -1.6450  0.5010
 1841SOL    HW211487   6.657   2.797   9.098 -0.6386  0.0954  0.7481
 1842SOL     OW11488   2.677   4.878   2.701 -0.0686  0.2214  0.0897
 1842SOL    HW111489   2.771   4.883   2.681 -0.2067 -1.0691 -1.0525
 1842SOL    HW211490   2.645   4.806   2.647 -1.9521  1.3645 -0.4417
 1843SOL     OW11491   0.427   8.971  10.986  0.6297  0.0957 -0.0269
 1843SOL    HW111492   0.480   8.934  10.916  1.0977 -1.2820  0.9995
 1843SOL    HW211493   0.337   8.951  10.962  0.7322  0.3747 -0.6427
 1844SOL     OW11494   6.487   4.614   9.582 -0.1702  0.5469 -0.2766
 1844SOL    HW111495   6.479   4.578   9.670  0.4618  0.5098 -0.2315
 1844SOL    HW211496   6.568   4.576   9.548 -1.6374 -1.4564 -1.8038
 1845SOL     OW11497   5.687   8.121  10.870  0.1139 -0.5407  0.4335
 1845SOL    HW111498   5.740   8.095  10.945  0.4228 -0.0594  0.3799
 1845SOL    HW211499   5.697   8.216  10.864 -2.3694 -0.1185  1.6594
 1846SOL     OW11500   4.801   2.551   5.814 -0.4819 -0.4986 -0.4895
 1846SOL    HW111501   4.886   2.582   5.784 -0.4664 -0.9158 -0.8786
 1846SOL    HW211502   4.748   2.543   5.735 -1.2009  0.6759 -0.1619
 1847SOL     OW11503   8.242   2.405   0.805 -0.1282 -0.3234  0.2192
 1847SOL    HW111504   8.290   2.381   0.884 -1.1260 -0.9596  0.6496
 1847SOL    HW211505   8.229   2.500   0.813  1.2896 -0.0844 -0.0588
 1848SOL     OW11506   3.835   9.124   1.369  0.3496  0.3182 -0.4919
 1848SOL    HW111507   3.920   9.117   1.412  0.0141 -1.3484 -0.0365
 1848SOL    HW211508   3.817   9.218   1.366  1.6446  0.6193  0.5142
 1849SOL     OW11509   6.909   2.474   9.449  0.2481 -0.3235  0.3394
 1849SOL    HW111510   6.836   2.498   9.505 -0.4289  1.0470 -1.0714
 1849SOL    HW211511   6.945   2.395   9.489 -0.7113  0.1417  2.2139
 1850SOL     OW11512   6.274   6.423   8.147  0.0861 -0.3184  0.2911
 1850SOL    HW111513   6.348   6.484   8.140 -0.5887  0.3501 -1.7593
 1850SOL    HW211514   6.311   6.346   8.191  1.7669  0.3576  0.1517
 1851SOL     OW11515   1.735   6.886   9.390 -0.1025 -0.5206  0.2064
 1851SOL    HW111516   1.683   6.808   9.412  0.3508 -0.1048  3.1001
 1851SOL    HW211517   1.817   6.874   9.436 -0.1853  1.8650  1.0980
 1852SOL     OW11518  12.388   8.257   2.076  0.3246  0.0319 -0.5426
 1852SOL    HW111519  12.363   8.274   2.167 -0.1703  2.6206 -1.0797
 1852SOL    HW211520  12.462   8.316   2.060 -0.7259  0.9404 -2.2936
 1853SOL     OW11521   5.157   8.984   1.522 -0.3432  0.0728 -0.0320
 1853SOL    HW111522   5.219   8.912   1.514  0.0305  0.3168  0.5788
 1853SOL    HW211523   5.169   9.034   1.441 -0.2350 -0.2605 -0.2243
 1854SOL     OW11524  10.176   2.781  10.352  0.1013  0.0599  0.0633
 1854SOL    HW111525  10.240   2.711  10.361 -2.2497 -2.2687 -0.2185
 1854SOL    HW211526  10.118   2.752  10.282 -2.2847  1.1723  1.4436
 1855SOL     OW11527   7.551  10.291   0.062 -0.1352 -1.0353  0.6136
 1855SOL    HW111528   7.645  10.305   0.057 -0.1022 -1.3561  0.3177
 1855SOL    HW211529   7.516  10.330  -0.018 -0.3477 -0.1694  1.1228
 1856SOL     OW11530   7.523   2.280   5.689 -0.1922  0.6491  0.6848
 1856SOL    HW111531   7.510   2.206   5.629  2.0829  0.8160 -0.1036
 1856SOL    HW211532   7.456   2.343   5.663  0.3977  0.5002 -1.3742
 1857SOL     OW11533  10.404   5.481   5.771  0.0496  0.7643  0.3964
 1857SOL    HW111534  10.342   5.483   5.844  1.2595  2.1076  1.4350
 1857SOL    HW211535  10.459   5.405   5.788  0.1816  0.9410  0.7502
 1858SOL     OW11536   0.278   1.728   8.318  0.1190  0.0287  1.0345
 1858SOL    HW111537   0.266   1.687   8.233  0.2125  0.9285  0.5797
 1858SOL    HW211538   0.228   1.673   8.379 -0.0887 -0.5172  0.3787
 1859SOL     OW11539   0.378  11.504   5.343  0.0490  0.2446 -0.5128
 1859SOL    HW111540   0.380  11.584   5.291  2.5798 -0.1948 -1.2453
 1859SOL    HW211541   0.470  11.489   5.367 -0.5513 -1.6593  0.8232
 1860SOL     OW11542   7.425   5.073  10.421  0.0919 -0.0229  0.4357
 1860SOL    HW111543   7.340   5.099  10.386  0.2590  0.0696  0.0945
 1860SOL    HW211544   7.485   5.078  10.346  1.2065  3.5071  1.3743
 1861SOL     OW11545   3.089   7.404   4.657 -0.4754  0.9895 -0.4635
 1861SOL    HW111546   3.062   7.407   4.565  0.7376 -1.4602 -0.9854
 1861SOL    HW211547   3.012   7.431   4.705 -1.8937  0.1691 -2.1356
 1862SOL     OW11548  10.060   7.219   9.603 -0.2253 -0.2761 -0.3301
 1862SOL    HW111549  10.062   7.169   9.685 -0.5143 -1.2981 -0.9369
 1862SOL    HW211550   9.968   7.242   9.591  0.1245  2.2396  0.9959
 1863SOL     OW11551   3.652   5.251   0.228  0.0015  0.5330  0.3724
 1863SOL    HW111552   3.624   5.306   0.302  1.3859 -1.1939  2.3083
 1863SOL    HW211553   3.714   5.189   0.267 -0.1869 -1.2954 -2.0328
 1864SOL     OW11554   3.589   2.783   2.473 -0.2812  0.3197 -0.2752
 1864SOL    HW111555   3.627   2.871   2.472  0.1745  0.1211 -1.0031
 1864SOL    HW211556   3.660   2.726   2.504 -0.0259 -0.0200 -1.4256
 1865SOL     OW11557   2.601   2.196   4.357 -0.0774  0.1806 -0.0693
 1865SOL    HW111558   2.613   2.221   4.265 -1.3697  0.7418 -0.1155
 1865SOL    HW211559   2.527   2.249   4.386  1.0224  0.8755  1.6455
 1866SOL     OW11560   7.869   8.331  10.780 -0.3177 -0.0703 -0.2324
 1866SOL    HW111561   7.896   8.403  10.723 -0.7254 -0.2831 -0.7079
 1866SOL    HW211562   7.950   8.299  10.819 -0.1263  0.6071 -0.0590
 1867SOL     OW11563   5.243  11.923   9.988  0.0662 -0.3449  0.1923
 1867SOL    HW111564   5.223  11.926   9.895 -0.8037  0.3303  0.3855
 1867SOL    HW211565   5.231  11.832  10.013  3.4242 -1.2504 -0.9748
 1868SOL     OW11566  11.289   6.573  11.798  0.1977 -0.3095 -0.0990
 1868SOL    HW111567  11.229   6.646  11.813 -4.4819 -3.1389 -2.6735
 1868SOL    HW211568  11.297   6.566  11.703  0.7861 -2.8495  0.0560
 1869SOL     OW11569  10.140   6.875   8.840 -0.0085 -0.5883 -0.0610
 1869SOL    HW111570  10.103   6.911   8.921 -1.2820 -1.3760 -0.2654
 1869SOL    HW211571  10.129   6.945   8.775 -2.9670 -1.4068 -0.5960
 1870SOL     OW11572   5.506  12.155   6.187  0.3677  0.6247  0.1826
 1870SOL    HW111573   5.474  12.234   6.144 -2.2996 -1.2078 -1.5541
 1870SOL    HW211574   5.583  12.129   6.137 -0.0591  0.9408 -0.6583
 1871SOL     OW11575  10.966   1.203  10.718 -0.2055 -0.1603 -0.1793
 1871SOL    HW111576  10.889   1.259  10.707 -0.2840 -0.0990  0.6234
 1871SOL    HW211577  10.933   1.114  10.703  0.1504  0.0616 -2.5738
 1872SOL     OW11578  10.672   9.660   6.116  0.6523  0.1667 -0.3684
 1872SOL    HW111579  10.598   9.642   6.174  0.4334  3.2101  0.4656
 1872SOL    HW211580  10.645   9.625   6.031 -1.4946  0.6666  0.0523
 1873SOL     OW11581   4.230   1.813   6.513 -0.2921 -0.3858 -0.2547
 1873SOL    HW111582   4.238   1.805   6.418  0.0611 -0.8472 -0.1947
 1873SOL    HW211583   4.243   1.724   6.546  1.2826  0.0208  0.3247
 1874SOL     OW11584   1.864  11.355   3.568  0.1960 -0.3766  0.7714
 1874SOL    HW111585   1.866  11.260   3.553  1.9492 -0.3009  0.2619
 1874SOL    HW211586   1.778  11.372   3.605  0.1203 -2.2737  1.5618
 1875SOL     OW11587   0.830   3.288  10.004  0.5930  0.1894 -0.0825
 1875SOL    HW111588   0.860   3.217  10.061 -0.2015 -0.3938 -0.3818
 1875SOL    HW211589   0.737   3.272   9.992  0.7198  0.3586 -1.4601
 1876SOL     OW11590   6.475   5.035   4.211 -0.1506  0.2287  0.4563
 1876SOL    HW111591   6.436   4.965   4.263 -2.7262  2.1833  1.4439
 1876SOL    HW211592   6.544   4.993   4.161 -1.1421 -2.8536  1.4309
 1877SOL     OW11593   2.566   1.518   2.838  0.4601  0.7371 -0.0273
 1877SOL    HW111594   2.507   1.543   2.768  0.2285  1.1210  0.2990
 1877SOL    HW211595   2.654   1.531   2.802  0.3799  2.9840  0.4120
 1878SOL     OW11596   1.003   0.150   1.544  0.1987 -0.2324 -0.1087
 1878SOL    HW111597   1.043   0.236   1.532 -1.6731  0.6785 -0.2252
 1878SOL    HW211598   0.977   0.149   1.636  0.8971 -1.0075  0.0902
 1879SOL     OW11599  10.226   2.136   1.622  0.0972 -0.0900 -0.2656
 1879SOL    HW111600  10.296   2.110   1.682  0.5499  0.5126 -0.5298
 1879SOL    HW211601  10.254   2.105   1.536 -0.1915 -0.2711 -0.2983
 1880SOL     OW11602  10.490   2.191   7.116 -0.1183  0.0343  0.2537
 1880SOL    HW111603  10.560   2.190   7.050 -0.7905 -0.2844 -0.4656
 1880SOL    HW211604  10.536   2.207   7.199  0.5817  1.9869 -0.4617
 1881SOL     OW11605   6.072   8.949   1.088 -0.6742  0.1746 -0.3971
 1881SOL    HW111606   6.052   8.928   0.997  2.6687 -0.8158 -1.0409
 1881SOL    HW211607   6.089   9.043   1.088  1.5833 -0.1739 -1.3923
 1882SOL     OW11608   1.650   7.117   0.526 -0.0988  0.2138  0.2741
 1882SOL    HW111609   1.744   7.108   0.543 -0.0183  1.5622  0.6854
 1882SOL    HW211610   1.639   7.087   0.436  0.4669 -1.3571  0.7045
 1883SOL     OW11611   2.730   1.752  11.445  0.1871 -0.2427  0.0710
 1883SOL    HW111612   2.654   1.710  11.485 -0.3498  0.5374 -0.1139
 1883SOL    HW211613   2.776   1.681  11.400 -0.1267 -0.8186  0.6457
 1884SOL     OW11614   0.813   4.517  11.996 -0.0322  0.4781  0.9311
 1884SOL    HW111615   0.897   4.509  12.040  0.6457 -0.6128 -0.4632
 1884SOL    HW211616   0.759   4.570  12.055  1.1439 -0.0411  2.5322
 1885SOL     OW11617   3.434   3.987   8.665 -0.1639  0.0871 -0.6801
 1885SOL    HW111618   3.458   4.045   8.737  0.1595 -0.8524 -0.0162
 1885SOL    HW211619   3.394   3.911   8.708  1.6508 -1.3108 -1.3415
 1886SOL     OW11620   0.439   3.435   1.531  0.2514  0.0183  0.0741
 1886SOL    HW111621   0.467   3.523   1.553 -1.2544  0.7414 -0.7019
 1886SOL    HW211622   0.439   3.388   1.614  0.6078  0.8953  0.5855
 1887SOL     OW11623   3.375   5.799   3.247  0.0984  0.0388 -0.4108
 1887SOL    HW111624   3.314   5.737   3.288 -0.9099  1.0680 -0.3070
 1887SOL    HW211625   3.332   5.884   3.254  1.5008  0.7900 -0.4617
 1888SOL     OW11626   1.551   0.717   7.926  0.4730 -0.1753 -0.3614
 1888SOL    HW111627   1.484   0.719   7.994 -1.0803 -1.6375 -1.7518
 1888SOL    HW211628   1.634   0.726   7.974 -0.6381  0.8432  1.4876
 1889SOL     OW11629  12.262  10.104   4.632  0.4896 -0.1974 -0.1230
 1889SOL    HW111630  12.299  10.092   4.545  1.1531  2.5836 -0.3292
 1889SOL    HW211631  12.323  10.164   4.676 -1.2007  0.5789  1.2986
 1890SOL     OW11632   5.936  10.892   7.916 -0.6614 -0.2774 -0.5605
 1890SOL    HW111633   5.966  10.933   7.997 -1.2032  0.1265 -0.5583
 1890SOL    HW211634   5.947  10.798   7.931 -0.6614 -0.1994 -0.0596
 1891SOL     OW11635   6.908   5.163   9.933 -0.3279 -0.1343  0.6199
 1891SOL    HW111636   6.966   5.159   9.856 -1.5534 -0.9809 -0.3068
 1891SOL    HW211637   6.904   5.255   9.956 -1.2313  0.3791 -1.3875
 1892SOL     OW11638   1.202  10.032   0.285  0.3025  0.0612  0.4789
 1892SOL    HW111639   1.221  10.009   0.194  0.1196  0.9957  0.1914
 1892SOL    HW211640   1.216   9.951   0.334  0.0176 -0.5559 -0.4336
 1893SOL     OW11641   2.526   7.250   0.779 -0.0418  0.3043  0.7245
 1893SOL    HW111642   2.597   7.191   0.806  1.3633  0.8235 -1.5160
 1893SOL    HW211643   2.473   7.197   0.720  1.1990  1.1401 -1.2596
 1894SOL     OW11644   9.386   9.761   7.157  0.1924  0.3429  0.2716
 1894SOL    HW111645   9.395   9.842   7.208  1.3635  0.7500 -0.5468
 1894SOL    HW211646   9.474   9.743   7.125 -0.4825  0.0091 -1.4815
 1895SOL     OW11647   2.188  11.035   0.490  1.0426 -0.1521 -0.2255
 1895SOL    HW111648   2.255  10.975   0.524  1.7102  0.6042 -0.1708
 1895SOL    HW211649   2.116  11.028   0.552  1.6135  0.0230  0.4651
 1896SOL     OW11650   6.634   9.318   3.090 -0.2768 -0.1466  0.7845
 1896SOL    HW111651   6.602   9.243   3.039  1.4175 -1.6363  1.7710
 1896SOL    HW211652   6.632   9.287   3.181  0.8606  0.8414  1.1683
 1897SOL     OW11653   2.628   6.122   5.137  0.0546  0.3916  0.2161
 1897SOL    HW111654   2.542   6.083   5.148  0.4714 -0.6593 -0.1287
 1897SOL    HW211655   2.629   6.197   5.197 -1.4428  1.0226 -0.5145
 1898SOL     OW11656   5.075   5.075   8.040 -0.1818 -0.1241 -0.0918
 1898SOL    HW111657   5.158   5.115   8.065 -0.0352  0.1035 -0.9230
 1898SOL    HW211658   5.009   5.121   8.092  0.2059 -0.3247  0.5913
 1899SOL     OW11659   3.638   8.180  10.978 -0.8225 -0.0681  0.2936
 1899SOL    HW111660   3.689   8.206  10.902 -0.6496 -1.7168 -0.2029
 1899SOL    HW211661   3.549   8.208  10.959 -1.1238 -1.9149 -1.3398
 1900SOL     OW11662   1.360   6.189   7.366  0.4473 -0.1428 -0.0436
 1900SOL    HW111663   1.287   6.232   7.321 -0.4501 -0.7185  0.8082
 1900SOL    HW211664   1.420   6.164   7.295  0.5901  1.6827 -0.6317
 1901SOL     OW11665   2.898  10.723   6.058 -0.1336  0.1558 -0.1748
 1901SOL    HW111666   2.975  10.707   6.003  1.9983  1.1176  2.2840
 1901SOL    HW211667   2.892  10.819   6.063 -1.3882  0.0891 -0.1486
 1902SOL     OW11668   7.166  11.367  12.491  0.1861  0.7731  0.6419
 1902SOL    HW111669   7.159  11.276  12.519  1.3607  0.5013  0.1239
 1902SOL    HW211670   7.124  11.370  12.405  1.9375  0.2365 -0.2737
 1903SOL     OW11671   0.166   0.055   4.028 -0.3685  0.2685 -0.5327
 1903SOL    HW111672   0.090  -0.003   4.030 -2.2772  2.6197 -0.7070
 1903SOL    HW211673   0.200   0.048   3.939 -0.4278 -0.7125 -0.4864
 1904SOL     OW11674   2.790   8.236   9.284  0.5201  0.1380  0.6307
 1904SOL    HW111675   2.768   8.281   9.366 -0.0456 -1.3728  1.3420
 1904SOL    HW211676   2.727   8.270   9.220 -0.2433 -0.0185  1.2822
 1905SOL     OW11677   7.078   7.849   3.569  0.2388 -0.0441  0.2093
 1905SOL    HW111678   7.165   7.848   3.608 -0.7225  2.6043  2.8484
 1905SOL    HW211679   7.055   7.757   3.559  2.7717 -0.8143  0.7954
 1906SOL     OW11680  10.731   7.799   4.282  0.3506 -0.4922 -0.5509
 1906SOL    HW111681  10.757   7.871   4.225  3.9320  0.6158  2.1055
 1906SOL    HW211682  10.751   7.720   4.231  1.1852  0.4258 -1.7036
 1907SOL     OW11683   5.493   0.140   6.745  0.1274  0.0192  0.1427
 1907SOL    HW111684   5.518   0.232   6.753  0.6499 -0.0807 -0.2532
 1907SOL    HW211685   5.426   0.127   6.812 -0.6972  0.9438 -0.4782
 1908SOL     OW11686  12.156  11.175   5.815  0.1670 -0.0018  0.5234
 1908SOL    HW111687  12.125  11.216   5.735  0.5932 -0.2397  0.2318
 1908SOL    HW211688  12.164  11.082   5.793  1.2350  0.0745  0.5378
 1909SOL     OW11689   9.245   3.791   9.335  0.5154  0.0145  0.0509
 1909SOL    HW111690   9.238   3.827   9.423  1.1066  0.1997  0.0276
 1909SOL    HW211691   9.323   3.736   9.338  0.8247  0.4174 -0.4896
 1910SOL     OW11692   6.122   8.686   0.308  0.0850  0.0006  0.4438
 1910SOL    HW111693   6.149   8.629   0.237  2.2575  2.2842 -0.7150
 1910SOL    HW211694   6.190   8.675   0.375 -0.1459  0.3191  0.7343
 1911SOL     OW11695   9.689   2.003   3.916 -0.0082 -0.3413 -0.2853
 1911SOL    HW111696   9.627   2.055   3.865 -0.3783  0.5674  1.0611
 1911SOL    HW211697   9.759   2.064   3.938 -1.3821  0.2460  2.9818
 1912SOL     OW11698   7.203   4.867   3.535  0.7102 -0.2774  0.4812
 1912SOL    HW111699   7.228   4.915   3.614 -0.4688  2.2175 -0.5586
 1912SOL    HW211700   7.259   4.904   3.466  0.3639 -1.0138 -0.2109
 1913SOL     OW11701   2.136   2.183   9.803  1.1517  0.0911  0.6605
 1913SOL    HW111702   2.062   2.139   9.845  1.3982 -0.8479  0.1416
 1913SOL    HW211703   2.133   2.272   9.837 -1.4004  0.6775 -0.7907
 1914SOL     OW11704  11.960   7.449   2.574 -0.2021 -0.4495  0.2616
 1914SOL    HW111705  11.898   7.518   2.599 -1.2166 -0.8984 -0.9394
 1914SOL    HW211706  12.026   7.494   2.522  0.2519 -0.0491  1.1632
 1915SOL     OW11707   7.236   0.515  11.755 -0.3955 -0.1677 -0.0433
 1915SOL    HW111708   7.244   0.561  11.672 -1.7535 -0.2243 -0.2363
 1915SOL    HW211709   7.186   0.436  11.734 -1.9642  0.4797  1.0203
 1916SOL     OW11710   2.579   1.846   0.071  0.3136 -0.3776 -0.0480
 1916SOL    HW111711   2.493   1.879   0.096  0.7452  1.2859 -0.6436
 1916SOL    HW211712   2.635   1.863   0.147  0.4218 -0.1907 -0.1679
 1917SOL     OW11713   2.887   2.763   6.753 -0.1647 -0.4407 -0.4771
 1917SOL    HW111714   2.960   2.774   6.813 -3.0174  0.1123  3.2844
 1917SOL    HW211715   2.835   2.842   6.764 -2.7098 -1.9509 -0.8129
 1918SOL     OW11716   9.156   6.485   1.090 -0.1085 -0.2786 -0.1342
 1918SOL    HW111717   9.106   6.493   1.008  0.5081  0.5541 -0.4435
 1918SOL    HW211718   9.091   6.457   1.154 -0.7198 -0.4048 -0.7885
 1919SOL     OW11719   9.339   9.779  11.259  0.4086  0.3987  0.3275
 1919SOL    HW111720   9.282   9.781  11.336 -2.8202  1.3347 -1.8855
 1919SOL    HW211721   9.294   9.722  11.197  1.6789  1.5052 -1.7388
 1920SOL     OW11722   4.244   6.974   0.230  0.0958  0.1329  0.9075
 1920SOL    HW111723   4.264   6.909   0.297 -0.5059  0.9596  1.9308
 1920SOL    HW211724   4.312   7.041   0.239  1.0322 -0.5914 -0.5067
 1921SOL     OW11725   4.217   5.725   3.120 -0.0202  0.4552  0.4645
 1921SOL    HW111726   4.215   5.818   3.099 -0.0790  0.5049  0.6928
 1921SOL    HW211727   4.144   5.712   3.180 -1.5531 -0.1922 -1.4252
 1922SOL     OW11728   6.063   8.075   2.034 -0.5220 -0.5655  0.2973
 1922SOL    HW111729   6.022   8.130   1.967  0.6595 -1.3672 -1.1641
 1922SOL    HW211730   6.085   8.135   2.105 -1.1002  0.4622 -0.3666
 1923SOL     OW11731   6.703   7.821   9.824 -0.3273  0.3221 -0.1877
 1923SOL    HW111732   6.797   7.836   9.825 -0.3564  0.6903 -1.1316
 1923SOL    HW211733   6.691   7.734   9.860  0.6453 -0.8831 -2.5502
 1924SOL     OW11734   5.366   9.593   2.820 -0.1072 -0.0419  0.3500
 1924SOL    HW111735   5.338   9.575   2.909 -0.5900  0.9355  0.4116
 1924SOL    HW211736   5.371   9.689   2.815  2.9407 -0.1076  0.2523
 1925SOL     OW11737   2.501   5.716   3.821 -0.1715 -0.4822 -0.5296
 1925SOL    HW111738   2.481   5.714   3.728 -0.4392 -0.8290 -0.4687
 1925SOL    HW211739   2.468   5.632   3.854  0.4728 -0.6320 -0.2393
 1926SOL     OW11740   3.563   1.445   5.919 -0.4474 -0.3217  0.3665
 1926SOL    HW111741   3.521   1.414   5.838 -0.4140  0.6986 -0.0568
 1926SOL    HW211742   3.546   1.376   5.983 -0.0430 -1.3882 -0.6438
 1927SOL     OW11743   0.332   1.149  11.040 -0.2843 -0.0100  0.1436
 1927SOL    HW111744   0.347   1.068  11.089 -2.6193 -0.4106  0.3193
 1927SOL    HW211745   0.346   1.125  10.949  2.5723  0.3602  0.3909
 1928SOL     OW11746   8.054   1.119   3.345 -0.5692  0.2465  0.0984
 1928SOL    HW111747   8.035   1.200   3.391 -0.4426  0.3235  0.0160
 1928SOL    HW211748   8.106   1.145   3.270  0.8846 -0.0681  0.9482
 1929SOL     OW11749   6.484  10.948   2.053 -0.5497  0.1432  0.3320
 1929SOL    HW111750   6.467  10.987   2.139 -0.5601  1.1243 -0.0957
 1929SOL    HW211751   6.485  11.023   1.993  0.7009 -0.3713 -0.3441
 1930SOL     OW11752   7.195   5.814   3.575  0.3038 -0.1851  0.6295
 1930SOL    HW111753   7.281   5.792   3.539  0.0268  0.1882 -0.2874
 1930SOL    HW211754   7.193   5.910   3.576  0.3608 -0.1744  1.8084
 1931SOL     OW11755   0.959   4.352   7.197 -0.1225 -0.5399  0.6294
 1931SOL    HW111756   0.897   4.346   7.270  0.9665 -0.8362  1.5744
 1931SOL    HW211757   1.008   4.432   7.214  0.6116 -0.9783  0.6288
 1932SOL     OW11758   3.895   3.536   8.374  0.1464  0.3078 -0.5701
 1932SOL    HW111759   3.983   3.501   8.363  0.1273  0.2498 -0.5450
 1932SOL    HW211760   3.859   3.484   8.447 -0.7909 -1.3981 -2.1661
 1933SOL     OW11761   8.405   8.171   4.797  0.6254  0.1772  0.4300
 1933SOL    HW111762   8.366   8.205   4.716 -1.5118 -1.0170  0.8593
 1933SOL    HW211763   8.440   8.085   4.773  1.0250  0.3115  0.5289
 1934SOL     OW11764   7.364   7.069   3.620  0.6017 -0.1902  0.8639
 1934SOL    HW111765   7.370   7.006   3.548  1.3494  0.1467  0.6218
 1934SOL    HW211766   7.410   7.146   3.588 -1.0743  0.8354  0.8007
 1935SOL     OW11767   9.484  11.647  11.570 -0.3329 -0.0564 -0.3227
 1935SOL    HW111768   9.578  11.648  11.554 -0.1649 -0.4813  0.5960
 1935SOL    HW211769   9.459  11.739  11.572 -0.5953  0.1202 -4.0747
 1936SOL     OW11770   0.490   0.935   0.469 -0.3324 -0.0616  0.4193
 1936SOL    HW111771   0.396   0.922   0.473 -0.3771  0.2851  0.4783
 1936SOL    HW211772   0.521   0.869   0.406 -0.4534 -1.0181  1.3340
 1937SOL     OW11773   9.818   1.827   3.243 -0.4274 -0.2849 -0.2675
 1937SOL    HW111774   9.863   1.785   3.316 -0.1516 -0.1504 -0.3600
 1937SOL    HW211775   9.869   1.803   3.166  0.2892  1.0120 -0.2109
 1938SOL     OW11776   5.109   8.100   3.542  0.7149  0.3298  0.2189
 1938SOL    HW111777   5.164   8.025   3.563  1.0689 -0.0401 -1.8439
 1938SOL    HW211778   5.149   8.173   3.589  2.8593  0.0292 -1.0087
 1939SOL     OW11779   1.552   8.640   5.943  0.1555  0.6151  0.2386
 1939SOL    HW111780   1.645   8.652   5.965 -0.0305  0.6030  1.0752
 1939SOL    HW211781   1.514   8.600   6.022 -0.0902 -1.6175 -0.9332
 1940SOL     OW11782   2.476   6.404   8.959 -0.0531  0.1414 -0.1427
 1940SOL    HW111783   2.544   6.449   9.009  0.4516  0.2232 -0.8926
 1940SOL    HW211784   2.435   6.473   8.906 -1.5931  0.3406  1.2244
 1941SOL     OW11785   3.494   9.102   1.048 -0.4204  0.2789  0.2924
 1941SOL    HW111786   3.409   9.106   1.092 -2.0947  2.2680 -2.7292
 1941SOL    HW211787   3.486   9.028   0.988  0.6902 -0.6065  1.2130
 1942SOL     OW11788   3.393   6.590  11.909  0.2104 -0.1528 -0.2603
 1942SOL    HW111789   3.431   6.525  11.968 -2.0059 -0.7931  0.5606
 1942SOL    HW211790   3.434   6.673  11.934  0.1899 -0.6183  1.3910
 1943SOL     OW11791   6.995   6.435   8.662  0.6512  0.0835 -0.3459
 1943SOL    HW111792   6.982   6.440   8.756  0.5742 -0.1763 -0.3435
 1943SOL    HW211793   7.081   6.397   8.651  0.6472  0.0850 -0.3812
 1944SOL     OW11794   3.516  11.844   9.115 -0.0033 -0.1735 -0.1863
 1944SOL    HW111795   3.521  11.935   9.086 -1.3705  0.1821  0.5936
 1944SOL    HW211796   3.499  11.795   9.035  1.9141  0.0774 -0.7964
 1945SOL     OW11797   5.278   1.313  12.337 -1.0758  0.5976  0.0850
 1945SOL    HW111798   5.220   1.246  12.301  0.5216 -1.1619  0.6443
 1945SOL    HW211799   5.283   1.293  12.431  0.9539  0.2626 -0.0580
 1946SOL     OW11800  11.106   1.412   6.252 -0.1504  0.2944  0.2247
 1946SOL    HW111801  11.160   1.490   6.235 -0.3263  0.6257  1.0977
 1946SOL    HW211802  11.116   1.397   6.346 -2.5998  1.1727  0.7131
 1947SOL     OW11803  12.318   0.780   5.361 -0.3869 -0.4437 -1.0398
 1947SOL    HW111804  12.250   0.762   5.425  0.5649  2.9125  1.1426
 1947SOL    HW211805  12.272   0.819   5.287 -1.0937 -0.4995 -0.6363
 1948SOL     OW11806   7.430   7.541   4.596 -0.0797  0.0965  0.5374
 1948SOL    HW111807   7.336   7.554   4.587 -0.0927 -0.7499 -0.8385
 1948SOL    HW211808   7.469   7.604   4.534  0.1347 -1.2026 -0.7013
 1949SOL     OW11809   5.748   3.228   1.701  0.7410  0.3827 -0.1614
 1949SOL    HW111810   5.822   3.271   1.744  1.7840 -1.4795  0.0248
 1949SOL    HW211811   5.715   3.166   1.766  0.0593  0.0502 -0.8033
 1950SOL     OW11812   6.703   6.437   2.853  0.4803 -0.2998  0.6679
 1950SOL    HW111813   6.794   6.415   2.833  0.3443 -0.0751 -0.2518
 1950SOL    HW211814   6.653   6.359   2.829 -0.1999  1.2110 -4.0875
 1951SOL     OW11815   6.836   8.198   2.300 -0.1370  0.7247  0.0067
 1951SOL    HW111816   6.898   8.163   2.236 -0.2876  1.6428 -0.6664
 1951SOL    HW211817   6.752   8.198   2.254 -0.1132  2.0979 -0.0936
 1952SOL     OW11818  10.346   7.323  11.293 -0.1309  0.0298 -0.2939
 1952SOL    HW111819  10.295   7.403  11.305  1.0699  0.7430  0.2974
 1952SOL    HW211820  10.429   7.342  11.336  0.8512 -0.8720 -1.7054
 1953SOL     OW11821   7.260   6.637   9.346  0.0692 -0.8447 -0.3387
 1953SOL    HW111822   7.189   6.612   9.404 -0.0191  1.2149  0.5509
 1953SOL    HW211823   7.316   6.694   9.400  0.8219 -0.1044 -1.8228
 1954SOL     OW11824  11.166   8.607   9.564 -0.1355  0.1050 -0.6489
 1954SOL    HW111825  11.126   8.577   9.482 -0.6037  0.6691 -0.6390
 1954SOL    HW211826  11.092   8.642   9.614  0.2152  0.1677 -0.1724
 1955SOL     OW11827  11.920   1.240   9.540 -0.0725  0.8917 -0.2167
 1955SOL    HW111828  11.987   1.199   9.596  0.8907  0.8328 -1.3657
 1955SOL    HW211829  11.840   1.236   9.592  0.8421  1.1003  1.2734
 1956SOL     OW11830   6.130   3.887   1.083  0.0867  0.1430  0.8194
 1956SOL    HW111831   6.185   3.925   1.151  2.2398  1.9571 -1.7147
 1956SOL    HW211832   6.170   3.802   1.064  1.5490  1.0406 -0.3416
 1957SOL     OW11833   1.199  11.081   1.317  0.2969  0.5188  0.4251
 1957SOL    HW111834   1.173  11.086   1.225 -0.3766 -0.1616  0.5734
 1957SOL    HW211835   1.244  11.164   1.333  2.7061 -0.3274 -1.2004
 1958SOL     OW11836  10.333   9.002   3.164  0.3158  0.5814  0.3537
 1958SOL    HW111837  10.252   8.979   3.209  0.1598  2.1622  0.9253
 1958SOL    HW211838  10.395   9.019   3.235  0.8887  0.3306 -0.0759
 1959SOL     OW11839  11.551   8.251  12.007  0.2468  0.3231  0.2481
 1959SOL    HW111840  11.468   8.211  11.980  0.6290  0.0806 -0.6271
 1959SOL    HW211841  11.538   8.345  11.995 -0.5807  0.4946  2.0939
 1960SOL     OW11842   5.557   5.455   0.054  0.0609 -1.2486 -0.2502
 1960SOL    HW111843   5.513   5.374   0.080 -2.6885  0.7092  1.6438
 1960SOL    HW211844   5.491   5.523   0.063  2.7136  1.5226 -0.0565
 1961SOL     OW11845   1.984   2.056   0.781  0.5384 -0.1329 -0.5907
 1961SOL    HW111846   2.003   2.148   0.803  0.9304 -0.7128  1.7938
 1961SOL    HW211847   1.889   2.052   0.778  0.5259  0.6378 -2.2534
 1962SOL     OW11848   5.997  12.069   9.947 -0.2850 -0.0699 -0.3902
 1962SOL    HW111849   6.071  12.025   9.989  0.1188  0.1662 -0.8510
 1962SOL    HW211850   5.956  12.120  10.017 -0.0786 -0.2808 -0.1141
 1963SOL     OW11851   3.174   5.039  12.008 -0.1258 -0.0875 -0.0866
 1963SOL    HW111852   3.134   4.956  11.983 -0.7502  0.2164 -0.1193
 1963SOL    HW211853   3.268   5.023  12.002 -0.0191 -1.9558  3.4566
 1964SOL     OW11854   2.410  11.661   5.982 -0.2998 -0.6593 -0.1890
 1964SOL    HW111855   2.345  11.660   6.052  1.0069  1.4403  1.1458
 1964SOL    HW211856   2.367  11.706   5.909 -0.5968  0.0366  0.4137
 1965SOL     OW11857   9.777   6.329   9.917 -0.9141  0.1749  0.9098
 1965SOL    HW111858   9.748   6.358  10.004  1.1957  1.3397  1.2857
 1965SOL    HW211859   9.855   6.276   9.935  0.2153  1.3656 -0.3084
 1966SOL     OW11860   1.170   0.839   0.320  0.0827 -0.4055 -0.4663
 1966SOL    HW111861   1.157   0.921   0.271  0.0031  0.1000  0.3719
 1966SOL    HW211862   1.099   0.782   0.290 -0.6276  0.2884 -0.1384
 1967SOL     OW11863   5.145  11.066   7.458  0.2180  0.0274 -0.4525
 1967SOL    HW111864   5.141  11.161   7.448 -1.7280  0.0101 -0.2648
 1967SOL    HW211865   5.190  11.035   7.379 -0.5022  1.0238 -1.2860
 1968SOL     OW11866   6.420   1.476   3.071 -0.1236  0.3625  0.0906
 1968SOL    HW111867   6.425   1.459   3.165  0.9554  0.9260  0.1515
 1968SOL    HW211868   6.411   1.570   3.064 -0.7924  0.2669 -0.3628
 1969SOL     OW11869   2.855   0.603   6.758  0.1015  0.2871  0.3323
 1969SOL    HW111870   2.862   0.541   6.685  0.2474 -0.0108  0.5981
 1969SOL    HW211871   2.872   0.550   6.836  1.3228  0.8792  0.4871
 1970SOL     OW11872   3.493   1.098  11.130  0.1532 -0.3935 -0.1891
 1970SOL    HW111873   3.488   1.045  11.210 -1.5649  1.1908  0.8470
 1970SOL    HW211874   3.437   1.174  11.148 -0.6944 -0.2000 -3.0714
 1971SOL     OW11875   4.124   3.278  11.436 -0.0978  0.1090 -0.3855
 1971SOL    HW111876   4.143   3.313  11.523  1.8497  0.3587 -0.8573
 1971SOL    HW211877   4.035   3.308  11.417 -1.3965 -1.6222  2.2875
 1972SOL     OW11878   1.988   1.248   9.625  0.3659  0.0295  0.3905
 1972SOL    HW111879   2.061   1.308   9.640  0.6810 -0.6891  1.9264
 1972SOL    HW211880   1.976   1.203   9.708 -0.9529 -0.8534 -0.2336
 1973SOL     OW11881   8.319   9.306  12.374  0.7645  0.0799 -0.5079
 1973SOL    HW111882   8.300   9.232  12.431  0.4523 -0.3304 -1.1246
 1973SOL    HW211883   8.364   9.266  12.298  0.5988  0.5223 -0.8436
 1974SOL     OW11884  12.029   9.804   5.616 -0.0213 -0.5997 -0.1281
 1974SOL    HW111885  11.978   9.807   5.535  1.5354 -0.2894 -1.1388
 1974SOL    HW211886  12.050   9.712   5.628 -0.3504 -0.6604 -0.0108
 1975SOL     OW11887   4.252   8.965  12.166 -0.3319  0.0617  0.2357
 1975SOL    HW111888   4.266   9.028  12.236  1.0827 -0.0623  0.0883
 1975SOL    HW211889   4.330   8.910  12.167  0.4053  0.9402 -2.3430
 1976SOL     OW11890  12.301   6.135   7.590  0.0636 -0.2242  0.3910
 1976SOL    HW111891  12.219   6.122   7.638 -0.8140  0.1829 -0.9190
 1976SOL    HW211892  12.369   6.138   7.657 -1.0189 -0.3963  1.5239
 1977SOL     OW11893   3.258  12.004   0.180 -0.1409 -0.2176 -0.2819
 1977SOL    HW111894   3.202  12.076   0.151  0.4562 -0.4691 -2.1791
 1977SOL    HW211895   3.222  11.979   0.266 -2.6333 -0.0495 -1.1864
 1978SOL     OW11896   5.491  11.008   4.707 -0.2081 -0.0573  0.1805
 1978SOL    HW111897   5.576  10.972   4.685 -0.1920 -0.2353  0.5325
 1978SOL    HW211898   5.431  10.967   4.645  0.1017  0.8105 -0.7138
 1979SOL     OW11899   8.153  10.188   0.318 -0.6289  0.3571 -0.0592
 1979SOL    HW111900   8.127  10.100   0.291 -0.0046 -0.4203  1.7360
 1979SOL    HW211901   8.079  10.219   0.370  0.1099 -0.0590  1.2690
 1980SOL     OW11902   9.726  10.432   0.423 -0.3591 -0.0474 -0.4583
 1980SOL    HW111903   9.800  10.464   0.474 -0.3940 -0.3082 -0.2448
 1980SOL    HW211904   9.687  10.511   0.386  1.4638 -0.0417 -2.5750
 1981SOL     OW11905   5.705   1.044  11.337 -0.2249 -0.1916  0.4277
 1981SOL    HW111906   5.744   1.079  11.256  0.3456 -0.1781  0.7074
 1981SOL    HW211907   5.621   1.091  11.344  0.3596  0.8581  0.5950
 1982SOL     OW11908   9.694   8.282  10.610  0.2009  0.1496  0.4638
 1982SOL    HW111909   9.703   8.222  10.684 -0.7302  0.5598  0.9270
 1982SOL    HW211910   9.777   8.329  10.607  0.0917  0.4453  1.5384
 1983SOL     OW11911   7.890   6.023   3.389  0.4757  0.7840  0.1051
 1983SOL    HW111912   7.909   5.943   3.437 -1.5481  0.6179  0.7471
 1983SOL    HW211913   7.881   6.090   3.457  3.1860  1.8682 -0.4815
 1984SOL     OW11914   8.416  10.547   7.545 -0.2734 -0.4058 -0.9773
 1984SOL    HW111915   8.435  10.455   7.566 -2.2715 -0.4645  0.8518
 1984SOL    HW211916   8.324  10.559   7.569  0.2522  2.3948  0.0223
 1985SOL     OW11917   2.399   2.011   8.434 -0.2223  0.3300  0.3046
 1985SOL    HW111918   2.395   2.089   8.378  1.6907 -0.0387 -0.4194
 1985SOL    HW211919   2.492   2.000   8.454 -0.5934 -1.0359  1.4625
 1986SOL     OW11920   7.425   8.783   9.142  0.3219  0.9136  0.1426
 1986SOL    HW111921   7.466   8.787   9.055  1.1242  2.5613  0.5549
 1986SOL    HW211922   7.484   8.727   9.193  0.0343  0.2247 -0.2663
 1987SOL     OW11923   1.171   2.551   4.122 -0.6793 -0.5241 -0.2045
 1987SOL    HW111924   1.251   2.597   4.095 -0.9653 -0.1069 -0.3545
 1987SOL    HW211925   1.148   2.497   4.047 -0.4571 -0.7637 -0.1046
 1988SOL     OW11926   8.740   0.575  11.318  0.1089 -0.3684  0.3356
 1988SOL    HW111927   8.645   0.582  11.332 -0.3955 -5.0804  0.8477
 1988SOL    HW211928   8.748   0.534  11.232  1.8192  1.1466 -0.2747
 1989SOL     OW11929   7.273  10.289   9.013 -0.4284 -0.1265  0.1054
 1989SOL    HW111930   7.311  10.206   9.039 -0.8684 -0.4606 -0.3096
 1989SOL    HW211931   7.348  10.342   8.985 -0.0205 -0.0049  1.3388
 1990SOL     OW11932   3.168   7.350   6.317 -0.0713 -0.0257 -0.8669
 1990SOL    HW111933   3.156   7.298   6.237  0.3034 -1.2876 -0.1352
 1990SOL    HW211934   3.247   7.313   6.357 -0.8819 -0.1866  0.6576
 1991SOL     OW11935   8.865   2.976   7.769 -0.2044 -0.0017 -0.4132
 1991SOL    HW111936   8.825   3.054   7.729 -1.1270  0.1505  0.7675
 1991SOL    HW211937   8.843   2.905   7.708 -0.9563  0.3527 -0.5769
 1992SOL     OW11938   3.019   9.627   1.507 -0.2942  0.1225  0.0504
 1992SOL    HW111939   3.082   9.687   1.470 -0.5904 -0.0388 -0.7262
 1992SOL    HW211940   2.933   9.664   1.486 -0.5025  0.9880  2.1303
 1993SOL     OW11941   7.144  12.315   0.519 -0.2962  0.1437  0.3617
 1993SOL    HW111942   7.196  12.251   0.567  1.1516  0.6710 -0.4378
 1993SOL    HW211943   7.194  12.330   0.439 -1.6511  0.7587 -0.3959
 1994SOL     OW11944   3.498  11.780   8.842  0.1195  0.0160 -0.3364
 1994SOL    HW111945   3.430  11.780   8.775 -0.5161  1.0087  0.2870
 1994SOL    HW211946   3.545  11.863   8.828 -0.0161  0.2306  0.4380
 1995SOL     OW11947  12.177   5.359  11.162 -0.0711  0.1521 -0.1033
 1995SOL    HW111948  12.214   5.406  11.237  1.3753 -0.0812 -0.6325
 1995SOL    HW211949  12.232   5.281  11.154 -0.1456  0.2242 -1.4554
 1996SOL     OW11950  10.021   3.850   3.965 -0.4548  0.4987  0.2411
 1996SOL    HW111951  10.021   3.761   3.931 -1.2586  1.2318 -1.8718
 1996SOL    HW211952  10.113   3.877   3.962 -0.2079 -0.2472  0.9029
 1997SOL     OW11953   0.860  10.612   8.333  0.1142 -0.0838 -0.1221
 1997SOL    HW111954   0.803  10.688   8.335  0.3813  0.1322 -0.5735
 1997SOL    HW211955   0.807  10.542   8.372 -0.6744 -0.0320 -1.0527
 1998SOL     OW11956   8.185  12.355   3.906 -0.1551 -0.0141 -0.4287
 1998SOL    HW111957   8.162  12.345   3.814  1.2942 -0.4238 -0.7711
 1998SOL    HW211958   8.113  12.313   3.954 -0.4216 -0.7054 -1.4081
 1999SOL     OW11959   8.500   1.203   1.057 -0.7144  0.1821 -0.3407
 1999SOL    HW111960   8.580   1.158   1.082 -1.1656  0.0615  0.9090
 1999SOL    HW211961   8.483   1.265   1.128 -1.5948  0.3939 -0.7174
 2000SOL     OW11962   9.840  11.374   7.949 -0.0618 -0.1103 -0.2303
 2000SOL    HW111963   9.761  11.340   7.992 -0.0592  0.9186  0.6442
 2000SOL    HW211964   9.911  11.320   7.984 -0.2737 -0.4817 -0.3649
 2001SOL     OW11965   8.120   8.119   4.488 -0.0127  0.2502  0.3477
 2001SOL    HW111966   8.210   8.090   4.472 -0.1537 -0.6183  1.0634
 2001SOL    HW211967   8.129   8.198   4.541  0.3068 -0.4575  1.3543
 2002SOL     OW11968   5.485   1.750   7.903  0.2158  0.0936  0.6650
 2002SOL    HW111969   5.415   1.714   7.848  0.7094 -1.0416  0.7637
 2002SOL    HW211970   5.564   1.741   7.849  0.3634  0.9769  0.7217
 2003SOL     OW11971   0.682   7.220   2.045  0.5972 -0.2781  0.1461
 2003SOL    HW111972   0.631   7.296   2.016 -0.1244 -0.2076  1.5635
 2003SOL    HW211973   0.681   7.160   1.970  1.2886  1.1330 -1.0555
 2004SOL     OW11974   5.582   3.292  12.191  0.5063  0.2928  0.0507
 2004SOL    HW111975   5.669   3.294  12.231 -0.2835  1.7448  1.8527
 2004SOL    HW211976   5.556   3.384  12.184 -1.1374 -0.1229  0.1411
 2005SOL     OW11977   1.201   0.902   7.870 -0.1776 -0.3991  0.1060
 2005SOL    HW111978   1.226   0.872   7.783 -0.2870 -2.0071  0.5909
 2005SOL    HW211979   1.283   0.910   7.918  0.0185  1.8429 -0.5003
 2006SOL     OW11980   8.531   0.167   8.063 -0.0438  0.2181  0.3927
 2006SOL    HW111981   8.604   0.111   8.037  1.0343  0.5039  2.6386
 2006SOL    HW211982   8.466   0.106   8.098  0.0065  0.1517  0.3704
 2007SOL     OW11983   6.357   9.021   3.863  0.4202 -0.2458 -0.4542
 2007SOL    HW111984   6.422   8.952   3.874  0.7066  0.1495  0.3988
 2007SOL    HW211985   6.405   9.102   3.878 -0.3578  0.0275  0.6856
 2008SOL     OW11986  11.549   6.379   4.864  0.6403  0.6437  0.7771
 2008SOL    HW111987  11.637   6.386   4.828 -0.2288  1.7315 -1.3198
 2008SOL    HW211988  11.523   6.469   4.882 -0.8099  0.5877 -0.7604
 2009SOL     OW11989   7.923   1.564  10.704  0.3389 -0.4090 -0.3185
 2009SOL    HW111990   7.843   1.570  10.755 -0.2734  1.6498 -1.4118
 2009SOL    HW211991   7.895   1.531  10.619  0.9774 -1.5394 -0.1062
 2010SOL     OW11992   2.511   5.572   9.930  0.6348  0.4424  0.4956
 2010SOL    HW111993   2.453   5.504   9.897  0.8422  0.3439  0.3279
 2010SOL    HW211994   2.594   5.527   9.946  0.2376  0.2456  2.1948
 2011SOL     OW11995   5.000  11.787   7.860  0.3830 -0.1872  0.3796
 2011SOL    HW111996   5.064  11.840   7.907  1.9331 -2.4117  0.9563
 2011SOL    HW211997   5.037  11.775   7.773  0.4727 -1.0022  0.5236
 2012SOL     OW11998  12.465  11.475  12.235  0.6508  0.5220 -0.4567
 2012SOL    HW111999  12.551  11.463  12.275  0.0102 -2.2505  0.3140
 2012SOL    HW212000  12.478  11.452  12.143  0.6390 -0.5298 -0.2067
 2013SOL     OW12001   1.996   5.892   0.200  0.3072  0.0167 -0.1777
 2013SOL    HW112002   2.048   5.893   0.280 -0.8859  1.2226  0.6238
 2013SOL    HW212003   1.906   5.879   0.230  0.0246 -1.2808 -1.4763
 2014SOL     OW12004   1.690   9.131   4.377  0.1834 -0.1654  0.6935
 2014SOL    HW112005   1.635   9.198   4.417 -0.9963 -0.3398 -0.5672
 2014SOL    HW212006   1.776   9.144   4.417 -0.4331  0.9919  1.7150
 2015SOL     OW12007   1.514   3.783   4.738 -0.0615  0.3646 -0.5997
 2015SOL    HW112008   1.520   3.742   4.825 -0.2983  1.6018  0.0313
 2015SOL    HW212009   1.519   3.877   4.756 -0.0717  0.6406 -1.9428
 2016SOL     OW12010   0.244   4.330   2.654 -0.1158  0.2297 -0.1271
 2016SOL    HW112011   0.259   4.307   2.746 -3.0553  1.7286  0.8661
 2016SOL    HW212012   0.219   4.247   2.613 -0.6692 -0.1429  0.9217
 2017SOL     OW12013  10.874   1.207   6.465 -0.4986  0.2500  0.2664
 2017SOL    HW112014  10.894   1.289   6.510  1.1344  0.7100 -1.1690
 2017SOL    HW212015  10.863   1.233   6.373  1.7697 -1.3061 -0.5287
 2018SOL     OW12016   8.712   8.322  10.352 -0.0546 -0.2199  0.2734
 2018SOL    HW112017   8.628   8.306  10.396  0.4771 -0.2165  1.3239
 2018SOL    HW212018   8.702   8.407  10.311 -0.2619  0.1957  1.1647
 2019SOL     OW12019   0.892   8.930   0.003 -0.7896 -0.3219 -0.1654
 2019SOL    HW112020   0.896   8.838  -0.020  1.7686  0.0092 -1.3271
 2019SOL    HW212021   0.949   8.939   0.079  1.5459  0.7083 -1.9126
 2020SOL     OW12022   0.513   6.873  11.514  0.0783 -0.5476 -0.2564
 2020SOL    HW112023   0.438   6.868  11.454 -2.5157 -0.2419  2.7053
 2020SOL    HW212024   0.529   6.782  11.539  0.6044 -0.5919 -0.7344
 2021SOL     OW12025   1.575   6.688   0.109 -0.0700 -0.0008  0.1837
 2021SOL    HW112026   1.495   6.733   0.083 -0.4201 -1.1276 -0.7957
 2021SOL    HW212027   1.582   6.615   0.048  0.9320 -0.7666  1.1727
 2022SOL     OW12028  10.225   8.393   5.567 -0.8293  0.3529  0.8004
 2022SOL    HW112029  10.160   8.347   5.620 -0.8645  0.4301  0.8229
 2022SOL    HW212030  10.189   8.481   5.555 -0.5747  0.4988  1.0913
 2023SOL     OW12031   5.701   7.084   0.869 -0.0134  0.2986  0.0559
 2023SOL    HW112032   5.695   7.023   0.795 -2.0835 -0.6079  0.8914
 2023SOL    HW212033   5.686   7.170   0.830 -1.7742 -0.2329 -0.5663
 2024SOL     OW12034  12.021  11.584   6.921 -0.3373 -0.1471  0.2981
 2024SOL    HW112035  12.082  11.522   6.880  0.2656 -0.0323  1.0061
 2024SOL    HW212036  11.962  11.529   6.972  1.5809 -0.0529  2.7642
 2025SOL     OW12037   9.195   0.604   1.576  0.2537 -0.5183 -0.6438
 2025SOL    HW112038   9.280   0.561   1.580  0.4630 -0.0211  0.7905
 2025SOL    HW212039   9.154   0.585   1.660  0.8441  3.0147  0.6181
 2026SOL     OW12040   2.201   8.680   5.998  0.2664 -0.4689  0.1499
 2026SOL    HW112041   2.149   8.604   6.025  0.1712 -0.7694 -0.8337
 2026SOL    HW212042   2.220   8.664   5.905 -3.2732  2.5856 -1.3882
 2027SOL     OW12043  12.246   2.139   9.144 -0.5491 -0.0110  1.1606
 2027SOL    HW112044  12.250   2.108   9.054  1.8713  0.3152  1.1052
 2027SOL    HW212045  12.267   2.232   9.138 -0.4060  0.0188  2.0451
 2028SOL     OW12046   7.545  11.309   4.368  0.1993 -0.6589  0.0390
 2028SOL    HW112047   7.473  11.269   4.417  0.4145 -0.9933  0.0801
 2028SOL    HW212048   7.563  11.249   4.296 -0.6231  0.1957 -0.9114
 2029SOL     OW12049   9.277   9.961   6.722 -0.4170 -0.3380  0.0348
 2029SOL    HW112050   9.311   9.993   6.638  0.3132 -0.0461  0.4252
 2029SOL    HW212051   9.301  10.029   6.785 -2.9661  0.5644  0.1425
 2030SOL     OW12052   5.258  11.906   6.064 -0.6440  0.2272  0.3744
 2030SOL    HW112053   5.172  11.869   6.044 -0.6278  0.3235  0.1219
 2030SOL    HW212054   5.297  11.923   5.979 -1.0783  1.8308  0.4621
 2031SOL     OW12055  12.355   9.901   6.232  0.0122 -0.4560  0.3451
 2031SOL    HW112056  12.271   9.855   6.242 -0.5713 -0.1672 -2.5104
 2031SOL    HW212057  12.334   9.979   6.180  1.8397  0.3530  0.7528
 2032SOL     OW12058   8.878  10.558  11.707  0.3911  0.1806 -0.0328
 2032SOL    HW112059   8.922  10.505  11.640  0.2358  1.5261 -1.2636
 2032SOL    HW212060   8.796  10.512  11.724  0.0814  0.1924 -1.3617
 2033SOL     OW12061   9.550  11.108   8.605 -0.1052 -0.3410 -0.4719
 2033SOL    HW112062   9.492  11.033   8.615 -2.1286  1.1478 -0.4069
 2033SOL    HW212063   9.575  11.132   8.694 -1.0285  0.2204 -0.3600
 2034SOL     OW12064   8.404   0.922   0.699 -0.4768  0.0029 -0.1229
 2034SOL    HW112065   8.387   0.997   0.757 -0.9332 -0.5919  0.5276
 2034SOL    HW212066   8.335   0.859   0.720 -0.6198 -0.2509 -1.2884
 2035SOL     OW12067   2.108   9.058   5.174  0.2674  0.1175  0.0229
 2035SOL    HW112068   2.044   9.055   5.103 -0.7473  1.7363  0.8156
 2035SOL    HW212069   2.090   9.140   5.220  1.8989 -0.1443  1.2341
 2036SOL     OW12070   7.645   1.609  10.701  0.1563  0.0833  0.0927
 2036SOL    HW112071   7.654   1.679  10.766 -1.0154 -1.0798  1.6046
 2036SOL    HW212072   7.572   1.636  10.646 -0.4828 -0.0574  0.8530
 2037SOL     OW12073   3.897   1.766   2.377  0.4334  0.2716  0.2617
 2037SOL    HW112074   3.919   1.694   2.436  0.5181  1.3986  1.6290
 2037SOL    HW212075   3.833   1.818   2.425  0.7700  1.4109 -0.4972
 2038SOL     OW12076   3.803   8.011   5.968 -0.0693 -0.9503 -0.0413
 2038SOL    HW112077   3.846   8.013   5.882  0.4954  0.1694  0.2455
 2038SOL    HW212078   3.713   7.983   5.949  0.3721 -1.9156 -0.8353
 2039SOL     OW12079   5.987   5.143   5.657 -0.7545 -0.1095 -0.1038
 2039SOL    HW112080   5.999   5.051   5.633  0.3175  0.5574 -2.4321
 2039SOL    HW212081   6.003   5.147   5.751  0.6636 -2.0746 -0.2176
 2040SOL     OW12082   9.658   0.729   0.343 -0.7646 -0.2437  0.2821
 2040SOL    HW112083   9.616   0.740   0.258 -1.0017  0.1300  0.4445
 2040SOL    HW212084   9.594   0.682   0.396 -0.4182 -0.9258  0.1055
 2041SOL     OW12085   3.704   5.664  11.905 -0.2279  0.3643 -0.2016
 2041SOL    HW112086   3.639   5.667  11.975  1.2161 -2.3462  1.4260
 2041SOL    HW212087   3.786   5.690  11.947  0.6142 -0.9659 -0.9414
 2042SOL     OW12088   5.949   5.390   5.555 -0.0933 -0.5789  0.1055
 2042SOL    HW112089   5.948   5.309   5.604 -0.0603 -0.0944  0.9228
 2042SOL    HW212090   6.030   5.387   5.504  1.4495  0.2160  2.3448
 2043SOL     OW12091   6.585   6.208   2.864  0.2740 -0.2512 -0.2998
 2043SOL    HW112092   6.641   6.147   2.817  0.4408 -1.8714  1.8319
 2043SOL    HW212093   6.515   6.154   2.901 -1.2675  1.3256 -0.7177
 2044SOL     OW12094   2.724   3.820   3.604  0.4007 -0.5253  0.1868
 2044SOL    HW112095   2.801   3.852   3.650  0.0917  0.6027 -0.0457
 2044SOL    HW212096   2.668   3.784   3.673  0.8771 -0.8138  0.4247
 2045SOL     OW12097   6.197   4.101   5.682  0.9441  0.2660  0.0495
 2045SOL    HW112098   6.219   4.008   5.675 -0.8123 -0.0705 -2.7779
 2045SOL    HW212099   6.272   4.147   5.645  0.7284 -0.2716 -1.1151
 2046SOL     OW12100   2.549  10.452   6.280  0.0232  0.0908  0.0878
 2046SOL    HW112101   2.542  10.416   6.191  0.5302 -0.6177  0.3195
 2046SOL    HW212102   2.462  10.441   6.317  0.4292 -2.0322  0.5469
 2047SOL     OW12103   3.743   4.503   3.792  0.3084  0.2067  0.1126
 2047SOL    HW112104   3.717   4.490   3.883  0.1591  0.5496  0.1202
 2047SOL    HW212105   3.661   4.495   3.743  0.3367  0.3391  0.0424
 2048SOL     OW12106   4.012   4.977   3.705 -0.1311  0.5375  0.1329
 2048SOL    HW112107   3.937   4.986   3.647  0.6249  2.4343 -0.6174
 2048SOL    HW212108   4.005   5.050   3.766  0.1819 -0.2742  1.1726
 2049SOL     OW12109  10.093   0.681   4.054  0.5264 -0.0012 -0.0438
 2049SOL    HW112110  10.143   0.761   4.069  1.0703  0.1214 -2.2549
 2049SOL    HW212111  10.155   0.621   4.012 -0.8014 -0.3203 -1.6422
 2050SOL     OW12112   2.872   4.623   7.571  0.1010  0.2675  0.4638
 2050SOL    HW112113   2.883   4.699   7.513 -3.3731 -1.5451 -3.0800
 2050SOL    HW212114   2.939   4.561   7.542  0.9886  0.8002  1.3010
 2051SOL     OW12115   2.861   9.252  10.141 -0.4189  0.1251  0.4925
 2051SOL    HW112116   2.836   9.341  10.117  0.5517  0.5372  0.9458
 2051SOL    HW212117   2.818   9.237  10.226  0.7472  0.8060  1.2389
 2052SOL     OW12118   2.906   7.817   5.781  0.0194  0.3192  0.6322
 2052SOL    HW112119   2.986   7.816   5.729  0.1182  2.2229  0.6989
 2052SOL    HW212120   2.924   7.757   5.854  1.0380  0.0286  0.1563
 2053SOL     OW12121   4.928  10.029   2.802  0.0671 -0.1414 -0.1742
 2053SOL    HW112122   4.944  10.030   2.707 -0.4247  0.0073 -0.2605
 2053SOL    HW212123   4.972  10.107   2.835  1.6654 -1.0632 -0.0280
 2054SOL     OW12124   7.097   6.170  10.194 -0.1811 -0.2719  0.0361
 2054SOL    HW112125   7.169   6.129  10.242  0.0852 -0.9384 -0.9063
 2054SOL    HW212126   7.140   6.229  10.132 -0.5516  1.2916  1.2066
 2055SOL     OW12127   1.779  11.037   8.712  0.1139  0.0861  0.0009
 2055SOL    HW112128   1.868  11.044   8.679 -0.0020  0.9420 -0.1578
 2055SOL    HW212129   1.749  10.951   8.682  1.1760 -0.5948  0.8231
 2056SOL     OW12130   5.253   0.906  11.204  0.0355  0.2513  0.0551
 2056SOL    HW112131   5.188   0.837  11.195 -0.8863  1.1575 -0.4176
 2056SOL    HW212132   5.294   0.912  11.118 -0.2565  0.6463 -0.0588
 2057SOL     OW12133   9.547   5.859  10.644 -0.7026  0.4383  0.3542
 2057SOL    HW112134   9.593   5.932  10.686 -1.5652  0.8140  0.6766
 2057SOL    HW212135   9.531   5.797  10.716  0.7601 -0.4767 -0.0711
 2058SOL     OW12136  12.142  11.062   8.051 -1.0447  0.0166 -0.0820
 2058SOL    HW112137  12.156  11.155   8.033 -1.7288  0.5694  2.0107
 2058SOL    HW212138  12.065  11.039   7.999 -1.8786  1.0676  0.6518
 2059SOL     OW12139   3.249   1.403   4.504  0.2568 -0.0824  0.2491
 2059SOL    HW112140   3.218   1.398   4.594  0.0235  0.3673  0.1958
 2059SOL    HW212141   3.231   1.317   4.467  1.6033 -0.7295  1.0223
 2060SOL     OW12142   6.287   5.285   2.634  0.1260 -0.2275  0.9216
 2060SOL    HW112143   6.200   5.253   2.613  0.2867 -0.3525  0.4505
 2060SOL    HW212144   6.327   5.214   2.684  0.7213 -1.0710 -0.6842
 2061SOL     OW12145   1.824   2.257   6.408  0.7593  0.4052  0.2392
 2061SOL    HW112146   1.756   2.317   6.438 -0.5008 -2.0756  2.8048
 2061SOL    HW212147   1.893   2.263   6.474  1.2052 -0.0477 -0.1670
 2062SOL     OW12148   5.229   2.530   6.913  0.0676 -0.1668  0.2415
 2062SOL    HW112149   5.237   2.549   6.819 -0.5936 -2.3203 -0.3275
 2062SOL    HW212150   5.134   2.531   6.929  0.0998 -1.1527  0.5457
 2063SOL     OW12151   7.159   4.003   7.841  0.4616  0.3949 -0.2518
 2063SOL    HW112152   7.204   3.990   7.925 -0.2245  0.5051  0.1433
 2063SOL    HW212153   7.144   4.097   7.836 -0.9202  0.2372  0.2811
 2064SOL     OW12154  10.775  10.081  11.489 -0.2507  0.7082 -0.2613
 2064SOL    HW112155  10.751  10.011  11.550  0.0945 -0.7546 -1.7371
 2064SOL    HW212156  10.855  10.049  11.447 -0.3806  1.7602 -1.3441
 2065SOL     OW12157   6.211  10.869   6.357 -0.0354 -0.6239  0.0803
 2065SOL    HW112158   6.236  10.776   6.357  0.9026 -0.3769  0.1812
 2065SOL    HW212159   6.294  10.916   6.349 -0.6371  0.1890 -1.9952
 2066SOL     OW12160   7.982   0.800  10.283  0.7517  0.1448 -0.1117
 2066SOL    HW112161   8.044   0.731  10.306 -0.9715 -2.0526 -1.6065
 2066SOL    HW212162   7.955   0.779  10.194 -0.5201  2.2704 -0.2887
 2067SOL     OW12163  11.589   4.621  10.770  0.1024  0.3858 -0.2387
 2067SOL    HW112164  11.659   4.566  10.806 -1.0062 -1.9931 -1.4955
 2067SOL    HW212165  11.582   4.594  10.678 -2.1976  0.7693 -0.2469
 2068SOL     OW12166   5.098   7.135   9.430 -0.1688  0.1744  0.0513
 2068SOL    HW112167   5.134   7.167   9.513 -2.8324  0.4775  1.1747
 2068SOL    HW212168   5.096   7.040   9.440  3.3607 -0.2084 -1.4287
 2069SOL     OW12169   3.659   8.019   3.125  0.4102  0.3859  0.1554
 2069SOL    HW112170   3.694   7.966   3.054  0.3448  0.9131 -0.2795
 2069SOL    HW212171   3.564   8.007   3.120  0.2294  2.0433 -1.1886
 2070SOL     OW12172  12.038  12.038   8.829 -0.4303 -0.0283 -0.0867
 2070SOL    HW112173  11.977  12.023   8.757 -3.0210 -0.5384  2.0536
 2070SOL    HW212174  12.063  11.950   8.858 -0.7195  0.1153  0.6313
 2071SOL     OW12175  11.679  11.868  11.114 -0.4122 -0.3044  0.2131
 2071SOL    HW112176  11.702  11.919  11.192  2.1084 -1.0221  0.0135
 2071SOL    HW212177  11.687  11.931  11.042 -1.1065 -0.0560  0.3444
 2072SOL     OW12178   0.152   6.218   3.567 -0.8410 -0.1957 -0.0320
 2072SOL    HW112179   0.123   6.147   3.510 -0.8545  0.1136 -0.4144
 2072SOL    HW212180   0.206   6.175   3.633 -1.9073 -0.7444  0.5114
 2073SOL     OW12181  10.569   6.516   6.183  0.2057 -0.0915  0.0714
 2073SOL    HW112182  10.557   6.449   6.115 -0.2387  0.2835 -0.2299
 2073SOL    HW212183  10.618   6.472   6.252 -0.9863 -1.0299  0.3435
 2074SOL     OW12184   9.451  10.363  10.074 -0.3795  0.7040  0.1189
 2074SOL    HW112185   9.544  10.342  10.080 -0.5219 -0.2997 -0.7441
 2074SOL    HW212186   9.437  10.432  10.139  0.9811  0.9483  0.1806
 2075SOL     OW12187  10.563   9.650   7.510 -0.4495  0.2827 -0.4807
 2075SOL    HW112188  10.582   9.579   7.449 -2.2344 -0.1011 -0.6675
 2075SOL    HW212189  10.559   9.607   7.596  3.0450  0.9800  0.1609
 2076SOL     OW12190  10.183   3.802  10.803  0.1287 -0.2435  0.6343
 2076SOL    HW112191  10.090   3.797  10.826 -0.4826 -1.1389 -1.7614
 2076SOL    HW212192  10.226   3.743  10.864 -0.6501  1.1130  2.5940
 2077SOL     OW12193   9.962   2.188  12.332 -0.1122 -0.2843 -0.7182
 2077SOL    HW112194   9.908   2.108  12.330  0.0709 -0.4020 -1.0224
 2077SOL    HW212195   9.942   2.232  12.250 -0.1002 -0.0919 -0.6157
 2078SOL     OW12196  12.438   0.411   5.833 -0.6828  0.0885 -1.4253
 2078SOL    HW112197  12.526   0.449   5.836 -0.2459 -0.8816 -1.6589
 2078SOL    HW212198  12.434   0.365   5.749 -1.0096 -0.8086 -0.9320
 2079SOL     OW12199   8.687   9.078   8.441 -0.1687 -0.0402  0.5214
 2079SOL    HW112200   8.640   9.090   8.524  0.7635  2.5081  0.7740
 2079SOL    HW212201   8.663   9.154   8.388  0.0377 -1.1048 -1.1822
 2080SOL     OW12202   4.706   7.262  12.441 -0.0586  0.3084  0.3058
 2080SOL    HW112203   4.702   7.177  12.483  2.1594  0.5048  1.0600
 2080SOL    HW212204   4.788   7.260  12.392 -1.1999  1.1168 -1.7658
 2081SOL     OW12205   8.505   7.962   4.670 -0.3090 -0.1371  0.0238
 2081SOL    HW112206   8.535   7.872   4.682  0.0230 -0.3581 -2.0164
 2081SOL    HW212207   8.586   8.014   4.667 -0.5101  0.2821  1.4172
 2082SOL     OW12208   2.910   8.858   4.300 -0.1043 -0.4728 -0.6992
 2082SOL    HW112209   2.822   8.834   4.329  0.0468  0.1697  0.3673
 2082SOL    HW212210   2.924   8.945   4.337  1.5626 -1.1946  0.4716
 2083SOL     OW12211   5.343   1.430   0.471 -0.4513  0.4346  0.5522
 2083SOL    HW112212   5.409   1.363   0.455  0.9487  2.0728 -0.8855
 2083SOL    HW212213   5.364   1.500   0.409 -0.7667  2.9683  3.1096
 2084SOL     OW12214   6.455   0.037   1.318 -0.2697 -0.2438  0.1809
 2084SOL    HW112215   6.405   0.034   1.400 -0.2076  1.4184  0.3099
 2084SOL    HW212216   6.393   0.071   1.253 -0.3952 -1.7957 -0.5508
 2085SOL     OW12217   1.004  11.969   9.081 -0.0264  0.1993  0.0210
 2085SOL    HW112218   1.024  11.876   9.094  0.9747  0.4844  0.5527
 2085SOL    HW212219   0.997  12.005   9.169  0.1097  0.7438 -0.1891
 2086SOL     OW12220   0.410  10.970  10.344 -0.3696  0.4242 -1.1579
 2086SOL    HW112221   0.374  10.994  10.429 -1.4887 -0.5160 -1.3396
 2086SOL    HW212222   0.341  10.919  10.302  0.4752  0.1727 -2.3022
 2087SOL     OW12223   0.043   2.375   4.227 -0.1091 -0.6745 -0.2013
 2087SOL    HW112224   0.007   2.463   4.233 -0.1633 -0.6943 -0.2375
 2087SOL    HW212225   0.033   2.351   4.135  1.3751 -0.0992 -0.5474
 2088SOL     OW12226   1.601   2.772   4.655  0.2121 -0.0245  0.2899
 2088SOL    HW112227   1.626   2.822   4.577 -2.0765  0.8415  0.0409
 2088SOL    HW212228   1.579   2.685   4.622 -0.1643  0.1564  0.0645
 2089SOL     OW12229   1.426   7.237   6.737 -0.0553 -0.2888  0.0014
 2089SOL    HW112230   1.511   7.200   6.713 -0.0607 -0.6386  0.5105
 2089SOL    HW212231   1.436   7.262   6.829 -0.3931 -0.0012 -0.0378
 2090SOL     OW12232   8.104   3.787   2.849 -0.0188  0.9327  0.2264
 2090SOL    HW112233   8.028   3.730   2.844  0.7560 -0.0919 -0.3174
 2090SOL    HW212234   8.068   3.875   2.844 -1.1982  0.4830  0.4312
 2091SOL     OW12235   5.477   8.029   0.952  0.3123 -0.0670 -0.8816
 2091SOL    HW112236   5.476   7.937   0.980 -2.5860 -0.3436 -1.5474
 2091SOL    HW212237   5.514   8.076   1.026  0.1607 -1.5861  0.2062
 2092SOL     OW12238   2.524   8.032   1.992 -0.0447  0.3354  0.5070
 2092SOL    HW112239   2.602   8.032   2.048 -0.4513 -0.9379  1.1003
 2092SOL    HW212240   2.477   7.952   2.016  0.0603 -0.5875 -2.0889
 2093SOL     OW12241   5.089   2.943   7.545 -0.1088  0.6169 -0.5377
 2093SOL    HW112242   5.067   2.850   7.550 -0.8166  0.8130  0.2306
 2093SOL    HW212243   5.181   2.947   7.573 -0.8577  0.4314  2.2199
 2094SOL     OW12244   8.098   2.647  12.431  0.2787 -0.0983 -0.2694
 2094SOL    HW112245   8.159   2.582  12.465  0.4055  0.2252  0.1377
 2094SOL    HW212246   8.056   2.683  12.510  0.5633  0.6564 -0.4596
 2095SOL     OW12247   4.355   0.111   0.407  0.1220  0.0049  0.0710
 2095SOL    HW112248   4.370   0.079   0.319  0.5047 -0.0799  0.1672
 2095SOL    HW212249   4.300   0.044   0.448  1.1009 -0.6479  0.3423
 2096SOL     OW12250   0.244   9.949   5.835  0.3869 -0.1140  0.0265
 2096SOL    HW112251   0.173   9.956   5.899  0.5537  0.8035  0.1125
 2096SOL    HW212252   0.200   9.923   5.754 -0.0554  0.4482  0.0790
 2097SOL     OW12253   5.946   0.675   3.443 -0.7842 -0.2486  0.2411
 2097SOL    HW112254   6.037   0.665   3.414 -1.1320  0.2504 -1.0791
 2097SOL    HW212255   5.915   0.753   3.398 -1.2757  0.7975  2.2699
 2098SOL     OW12256   8.164  11.647  10.873  0.9700  0.4208 -0.4099
 2098SOL    HW112257   8.139  11.681  10.958 -1.0443 -0.6894 -0.5033
 2098SOL    HW212258   8.082  11.620  10.832  2.1570 -2.1737 -1.3357
 2099SOL     OW12259   6.511   0.522   8.512 -0.0306 -0.3493  0.0018
 2099SOL    HW112260   6.536   0.468   8.587  0.2972 -2.8396 -1.7800
 2099SOL    HW212261   6.422   0.493   8.490 -1.3391  2.4791  1.1666
 2100SOL     OW12262   6.143   5.527   9.868 -0.3255 -0.2016  0.0331
 2100SOL    HW112263   6.220   5.567   9.827 -0.4116 -0.5237 -0.4581
 2100SOL    HW212264   6.141   5.439   9.831 -2.1346  0.4634 -1.6388
 2101SOL     OW12265  10.541   5.077  11.483 -0.2535  0.0665  0.8917
 2101SOL    HW112266  10.601   5.028  11.428  0.3446  1.7127  0.0075
 2101SOL    HW212267  10.596   5.114  11.552 -0.7755 -0.8310  1.8333
 2102SOL     OW12268   7.204   9.198   1.793  0.6271  0.2087  0.2344
 2102SOL    HW112269   7.150   9.122   1.816 -1.5725  1.3928 -0.8129
 2102SOL    HW212270   7.251   9.170   1.714  0.3756 -0.2815  0.2540
 2103SOL     OW12271   1.265  11.795  11.809 -0.0552  0.0805 -0.6437
 2103SOL    HW112272   1.354  11.778  11.778  0.1607 -1.9033  0.9453
 2103SOL    HW212273   1.268  11.885  11.843  1.3689 -0.0442 -0.4131
 2104SOL     OW12274   2.798   3.748  10.146  0.4064 -0.1488 -0.4339
 2104SOL    HW112275   2.801   3.668  10.094 -0.4703 -1.3366  1.2618
 2104SOL    HW212276   2.789   3.818  10.081  0.9099 -1.4264 -1.9383
 2105SOL     OW12277   2.006   0.323   7.021 -0.8223 -0.2896 -0.1371
 2105SOL    HW112278   2.088   0.353   6.981 -0.3665 -1.4545 -0.1073
 2105SOL    HW212279   2.023   0.232   7.045 -1.8119 -0.2504  0.7549
 2106SOL     OW12280   9.808  10.780   2.449  0.5948 -0.5065 -0.1188
 2106SOL    HW112281   9.771  10.766   2.536  2.2854  0.1019  0.7487
 2106SOL    HW212282   9.899  10.751   2.457  1.3427  1.3796 -1.1033
 2107SOL     OW12283  10.615   8.768   2.293 -0.3895  0.2035  0.2899
 2107SOL    HW112284  10.673   8.832   2.251  2.5168 -2.3652  0.0586
 2107SOL    HW212285  10.637   8.773   2.386 -0.6924  0.0374  0.3711
 2108SOL     OW12286  11.070   2.775   1.032 -0.2626 -0.5481  0.0553
 2108SOL    HW112287  11.141   2.731   1.079 -0.0331  1.3857  1.6348
 2108SOL    HW212288  11.020   2.820   1.100 -1.6270  0.0534 -1.2839
 2109SOL     OW12289   0.891   8.929   6.735 -0.1943  0.6525 -0.4260
 2109SOL    HW112290   0.963   8.894   6.787 -0.2493  1.1576 -0.0016
 2109SOL    HW212291   0.828   8.857   6.730  0.1692  0.3353 -0.4839
 2110SOL     OW12292   1.056  11.261   9.190  0.1057 -0.1074 -1.0021
 2110SOL    HW112293   1.025  11.170   9.199 -1.5241  0.3421 -1.6084
 2110SOL    HW212294   1.058  11.295   9.279  0.7646 -0.7427 -0.7659
 2111SOL     OW12295   9.114   4.555  12.464 -0.1676 -0.6300 -0.0238
 2111SOL    HW112296   9.072   4.635  12.433  1.3343  0.8335  1.4701
 2111SOL    HW212297   9.207   4.577  12.468 -0.0609 -0.7532  4.7262
 2112SOL     OW12298  10.979  11.212   7.014 -0.1563 -0.0406 -0.0214
 2112SOL    HW112299  10.947  11.124   7.034 -1.5676 -0.4094 -3.2994
 2112SOL    HW212300  11.014  11.205   6.925 -0.4591  2.7080 -0.4387
 2113SOL     OW12301   9.864   6.164   5.433 -0.0625  0.1401 -0.3892
 2113SOL    HW112302   9.864   6.101   5.506 -2.1327  0.7952  0.2356
 2113SOL    HW212303   9.934   6.226   5.455  2.4972 -2.1879 -1.3455
 2114SOL     OW12304   0.170  10.418   2.884 -0.0506 -0.7688  0.0152
 2114SOL    HW112305   0.241  10.481   2.871  0.0212 -0.9470 -0.4977
 2114SOL    HW212306   0.160  10.412   2.979 -0.1653  0.1251  0.0620
 2115SOL     OW12307  10.919   6.640   5.966 -0.1563 -0.0800 -0.4989
 2115SOL    HW112308  10.984   6.681   6.023 -1.2994  0.5309  0.4130
 2115SOL    HW212309  10.952   6.655   5.878  1.7260 -1.1626 -0.0321
 2116SOL     OW12310   5.830   8.469   9.756  0.4758  0.0683  0.5406
 2116SOL    HW112311   5.736   8.467   9.774  0.2831  1.4409 -0.1820
 2116SOL    HW212312   5.838   8.449   9.663  0.9596 -0.6087  0.7163
 2117SOL     OW12313   3.220  12.061   5.614 -0.8089 -0.1620  0.5654
 2117SOL    HW112314   3.136  12.068   5.569 -0.3344 -2.0905 -0.7656
 2117SOL    HW212315   3.282  12.105   5.556 -0.2282 -2.4760 -0.6586
 2118SOL     OW12316  12.457   9.297   2.396  0.2252  0.0654 -0.0470
 2118SOL    HW112317  12.367   9.265   2.394  0.0291  0.6257 -0.2640
 2118SOL    HW212318  12.511   9.218   2.388 -0.2224 -0.4152  1.4275
 2119SOL     OW12319   1.956  11.239   0.670 -0.1114  0.0577 -0.0994
 2119SOL    HW112320   2.046  11.265   0.690  0.4180 -0.0768 -2.0691
 2119SOL    HW212321   1.942  11.159   0.721  1.7469 -1.2403 -1.4943
 2120SOL     OW12322  10.122   9.062   6.797 -0.1069 -0.4613 -0.5153
 2120SOL    HW112323  10.137   9.019   6.882 -3.0472  1.9129  1.3991
 2120SOL    HW212324  10.038   9.028   6.768  0.1434 -0.0581 -1.7741
 2121SOL     OW12325   3.643   9.943   4.474  0.1701 -0.4929 -0.6010
 2121SOL    HW112326   3.734   9.922   4.495 -0.3063  0.2914  2.8493
 2121SOL    HW212327   3.633  10.035   4.499 -2.0184 -1.0804  1.0244
 2122SOL     OW12328   8.559   5.835   4.549 -0.3475 -0.0701 -0.1521
 2122SOL    HW112329   8.556   5.878   4.464 -2.0861  0.1730 -0.0068
 2122SOL    HW212330   8.493   5.766   4.543 -1.5264  0.8454  1.4332
 2123SOL     OW12331   0.441   3.756   6.903 -0.9848 -0.3929 -0.5801
 2123SOL    HW112332   0.361   3.807   6.892 -0.0142  1.3226 -0.1334
 2123SOL    HW212333   0.446   3.740   6.997 -1.2045 -1.2176 -0.7006
 2124SOL     OW12334   8.442  11.864   6.369  0.1311  0.2109  0.0544
 2124SOL    HW112335   8.415  11.774   6.351 -0.1672  0.0021  1.4351
 2124SOL    HW212336   8.364  11.905   6.405  0.3478  0.9619 -0.3062
 2125SOL     OW12337  10.659  10.434   6.508  0.1348 -0.1773  0.5497
 2125SOL    HW112338  10.631  10.525   6.521  0.3211 -0.3243  2.1761
 2125SOL    HW212339  10.710  10.437   6.426 -1.2920  0.8244 -0.3499
 2126SOL     OW12340   2.850   2.584   0.359  0.2598 -0.1585  0.0228
 2126SOL    HW112341   2.822   2.671   0.388  0.8457 -0.8457  2.9476
 2126SOL    HW212342   2.769   2.532   0.360  0.1829 -0.0429 -0.1217
 2127SOL     OW12343   3.016   1.307   6.992 -0.4239 -0.4550  0.2755
 2127SOL    HW112344   2.941   1.248   6.999 -0.7572 -0.0516  0.1330
 2127SOL    HW212345   3.045   1.297   6.901 -1.1058  0.3458 -0.0419
 2128SOL     OW12346  10.505   7.034   2.985 -0.2642 -0.3162  0.5441
 2128SOL    HW112347  10.526   7.109   2.930 -1.2581  0.8775  1.7225
 2128SOL    HW212348  10.589   6.991   3.001  0.2446  0.2361 -0.5837
 2129SOL     OW12349  11.932   9.578   3.345  0.0456  0.0178 -0.1030
 2129SOL    HW112350  12.011   9.548   3.390 -0.2796 -0.1338  0.3744
 2129SOL    HW212351  11.861   9.528   3.386 -0.0169 -2.0675 -2.5353
 2130SOL     OW12352   9.492   4.136   1.993 -0.3106  0.2695 -0.1429
 2130SOL    HW112353   9.465   4.061   2.046 -1.2827  1.3472  0.9406
 2130SOL    HW212354   9.581   4.154   2.021 -0.8899  0.9672  1.3453
 2131SOL     OW12355  10.534   6.183   9.761  0.0285 -0.1748  0.6005
 2131SOL    HW112356  10.601   6.213   9.821 -0.4415  2.8432 -0.2506
 2131SOL    HW212357  10.573   6.107   9.717  2.1855  0.4669  1.3148
 2132SOL     OW12358  12.190   8.954  10.921 -0.1981  0.3136 -0.2952
 2132SOL    HW112359  12.216   8.965  11.012  0.5034  1.0965 -0.5787
 2132SOL    HW212360  12.249   8.886  10.887  0.1032  0.6226 -0.3907
 2133SOL     OW12361   8.201  10.557   8.562  0.1148 -0.7497 -0.0997
 2133SOL    HW112362   8.129  10.610   8.597  0.0850  0.6110 -2.0385
 2133SOL    HW212363   8.249  10.526   8.639 -1.0604  0.4467  1.1543
 2134SOL     OW12364   1.993  11.434   4.959 -0.1244 -0.1553 -0.0447
 2134SOL    HW112365   1.913  11.486   4.968  1.0907  1.5782  1.4230
 2134SOL    HW212366   2.062  11.499   4.948  1.0981 -1.6282 -1.5452
 2135SOL     OW12367   8.930   6.247   5.343 -0.0476 -0.9117 -0.7131
 2135SOL    HW112368   8.840   6.223   5.367  0.1646 -0.8596  0.1897
 2135SOL    HW212369   8.948   6.199   5.263 -1.4142  0.2569 -1.7674
 2136SOL     OW12370   4.023   5.742   1.103 -0.2933 -0.4550 -0.3056
 2136SOL    HW112371   4.079   5.665   1.107 -1.1685 -1.0648  0.8050
 2136SOL    HW212372   4.069   5.802   1.044  0.4137 -1.8083 -1.1996
 2137SOL     OW12373   1.405  10.329  12.158 -0.5615  0.4295 -0.2552
 2137SOL    HW112374   1.365  10.326  12.246  2.4908  0.6613  1.2512
 2137SOL    HW212375   1.454  10.247  12.151 -0.5637  0.5281 -1.6786
 2138SOL     OW12376   7.613  11.360   0.480 -0.4616  0.7062 -0.3058
 2138SOL    HW112377   7.608  11.437   0.536 -0.7211  1.2303 -1.0400
 2138SOL    HW212378   7.667  11.386   0.406  0.8104 -0.3280  0.2170
 2139SOL     OW12379   6.612   1.968   8.717 -0.1580  0.3122  0.2433
 2139SOL    HW112380   6.596   1.985   8.810 -2.5146  0.0037 -0.0539
 2139SOL    HW212381   6.525   1.966   8.677  0.7803  0.2511 -1.9611
 2140SOL     OW12382   3.084   2.456   8.986 -0.1378 -0.0933  0.5189
 2140SOL    HW112383   3.062   2.463   9.080  0.9859  1.7047  0.6866
 2140SOL    HW212384   3.002   2.479   8.942  0.0003  1.6649  1.1047
 2141SOL     OW12385   2.721   8.073   5.064  0.2457 -0.3653 -0.0798
 2141SOL    HW112386   2.731   7.978   5.070 -2.4250 -0.7173  0.0584
 2141SOL    HW212387   2.761   8.107   5.144  0.5160 -1.4409  0.2561
 2142SOL     OW12388  11.966   3.039   7.769  1.0342  0.3280  0.2666
 2142SOL    HW112389  11.993   3.130   7.779 -1.0526  1.1693 -1.2646
 2142SOL    HW212390  11.918   3.019   7.849  0.0530  1.1308 -0.1129
 2143SOL     OW12391   5.022   5.254   9.757 -0.1953  0.5983  0.4793
 2143SOL    HW112392   5.007   5.205   9.676 -0.0022  0.7078  0.3748
 2143SOL    HW212393   4.935   5.269   9.793 -0.2537  0.1513  0.5291
 2144SOL     OW12394  11.901   6.091   4.674 -0.3094  0.2854  0.0848
 2144SOL    HW112395  11.837   6.026   4.645 -1.5886  0.7346  1.7656
 2144SOL    HW212396  11.972   6.039   4.712  0.3291 -0.2112 -1.6902
 2145SOL     OW12397   3.617  10.133   2.724 -0.1147 -0.2836 -0.1815
 2145SOL    HW112398   3.573  10.195   2.782 -0.3290 -0.2160 -0.4169
 2145SOL    HW212399   3.547  10.077   2.692  0.0108 -0.3465 -0.3464
 2146SOL     OW12400   0.514  12.285   8.597  0.0921  0.2502  0.1810
 2146SOL    HW112401   0.476  12.358   8.645 -3.2351 -0.4660 -1.0554
 2146SOL    HW212402   0.508  12.211   8.658  0.9044  0.4113  0.4721
 2147SOL     OW12403   3.753  10.243   9.521  0.2108 -0.0976  0.1438
 2147SOL    HW112404   3.686  10.174   9.524  0.3891 -0.2384  1.6665
 2147SOL    HW212405   3.752  10.281   9.609  2.0332 -0.0245  0.1621
 2148SOL     OW12406   0.029   3.609   3.360 -0.1557 -0.4731  0.5174
 2148SOL    HW112407   0.097   3.658   3.406  0.9816 -0.3029 -1.2147
 2148SOL    HW212408   0.037   3.519   3.391  2.0941 -0.8374 -0.8523
 2149SOL     OW12409   5.213   0.634   6.700  0.4797 -0.3160  0.3495
 2149SOL    HW112410   5.180   0.694   6.767 -1.0659 -0.6489 -0.0891
 2149SOL    HW212411   5.207   0.683   6.618 -1.1504 -1.1532 -0.0694
 2150SOL     OW12412   0.872  11.420   1.007  0.1270  0.3710 -0.4150
 2150SOL    HW112413   0.837  11.508   1.016  0.5346  0.5435 -0.4784
 2150SOL    HW212414   0.852  11.395   0.917 -1.1889 -0.1377  0.0047
 2151SOL     OW12415   2.516  10.598  10.379  0.5460 -0.0770 -0.1832
 2151SOL    HW112416   2.522  10.581  10.285  0.1020 -1.8274  0.0769
 2151SOL    HW212417   2.600  10.640  10.401  0.1517  1.5574 -1.5462
 2152SOL     OW12418  11.406   2.463   9.027 -0.0796 -0.6281 -0.1284
 2152SOL    HW112419  11.362   2.519   8.963  0.4778 -0.8856 -0.7499
 2152SOL    HW212420  11.349   2.465   9.104 -0.8837 -0.5081 -0.7138
 2153SOL     OW12421   2.840  11.242   4.880 -1.0907  0.1205  0.0094
 2153SOL    HW112422   2.781  11.210   4.812 -2.0293  0.8176  0.4771
 2153SOL    HW212423   2.924  11.251   4.836 -1.5007 -0.1717 -0.8596
 2154SOL     OW12424  11.552   2.378   3.209  0.2936 -0.5468  0.0743
 2154SOL    HW112425  11.559   2.286   3.183 -0.4247 -0.4754 -0.3735
 2154SOL    HW212426  11.641   2.412   3.200  0.0814 -0.5043 -2.3811
 2155SOL     OW12427   4.031  11.253   2.666  0.0301 -0.2795  0.1158
 2155SOL    HW112428   3.938  11.233   2.654  0.0630  0.3544 -1.4660
 2155SOL    HW212429   4.051  11.224   2.755 -1.6472 -0.5418  0.4345
 2156SOL     OW12430   9.367   9.109   0.278 -0.5321 -0.2208  0.1287
 2156SOL    HW112431   9.460   9.132   0.268 -0.9310  1.5635  0.1760
 2156SOL    HW212432   9.367   9.014   0.285  1.2947 -0.2674  0.1073
 2157SOL     OW12433   5.242   3.136   6.198  0.7604 -0.0123  0.0809
 2157SOL    HW112434   5.225   3.154   6.291  0.0308  0.7271 -0.1835
 2157SOL    HW212435   5.225   3.042   6.188  0.5489 -0.0375  0.6356
 2158SOL     OW12436  10.520   4.774   5.682  0.3137  0.0267  0.0563
 2158SOL    HW112437  10.461   4.750   5.753 -0.7076  0.3951 -0.6399
 2158SOL    HW212438  10.527   4.695   5.629 -0.9994  0.4728 -0.8300
 2159SOL     OW12439   1.672   9.425   2.638 -0.7653 -0.4574 -0.1771
 2159SOL    HW112440   1.709   9.431   2.726  0.5151 -0.4633 -0.6959
 2159SOL    HW212441   1.737   9.377   2.588 -1.2628 -0.0439 -1.2482
 2160SOL     OW12442   5.596   9.796  12.234  0.3374 -0.2929 -0.7849
 2160SOL    HW112443   5.624   9.884  12.257  1.9354 -1.4745  2.3898
 2160SOL    HW212444   5.640   9.777  12.151  2.0212  1.0296 -0.2415
 2161SOL     OW12445   7.479   4.559   1.180  0.2374  0.6682  0.0711
 2161SOL    HW112446   7.420   4.533   1.110  1.5605  0.0327 -0.8526
 2161SOL    HW212447   7.453   4.649   1.201 -0.4920  0.6988 -0.9032
 2162SOL     OW12448  10.793   6.557   0.514  0.2718  0.1548 -0.2153
 2162SOL    HW112449  10.743   6.623   0.467  1.1835  0.7163 -0.4158
 2162SOL    HW212450  10.756   6.557   0.603  0.8330  1.5722  0.0489
 2163SOL     OW12451   4.412   4.209   7.812 -0.7311 -0.2377  0.3799
 2163SOL    HW112452   4.436   4.228   7.902  0.5408  0.4698 -0.0874
 2163SOL    HW212453   4.406   4.294   7.769  2.2431 -0.6385 -1.0525
 2164SOL     OW12454   5.004   3.735   5.232 -0.3591 -0.5822 -0.8901
 2164SOL    HW112455   4.910   3.740   5.214 -0.9840 -1.1284  1.6987
 2164SOL    HW212456   5.046   3.763   5.151 -2.7549  0.2627 -1.9368
 2165SOL     OW12457   8.103  11.128   7.727 -0.3934  0.4392 -0.1443
 2165SOL    HW112458   8.069  11.176   7.803 -0.3632 -0.2251  0.3043
 2165SOL    HW212459   8.094  11.036   7.752  1.6411  0.2107 -0.0229
 2166SOL     OW12460   5.495  12.263   3.946  0.0010  0.0164  0.0593
 2166SOL    HW112461   5.538  12.304   3.871 -0.2467  1.8503  0.8695
 2166SOL    HW212462   5.508  12.169   3.932 -0.9272  0.2181 -2.7855
 2167SOL     OW12463   8.211  11.781  10.178  0.2855  0.3899  0.4960
 2167SOL    HW112464   8.179  11.827  10.100 -0.8260 -3.0074 -1.2696
 2167SOL    HW212465   8.304  11.802  10.181  0.4645  0.3086 -2.0527
 2168SOL     OW12466  11.273   3.612   8.146 -1.0046 -0.3072 -0.2651
 2168SOL    HW112467  11.253   3.620   8.053  0.8719 -0.6122 -0.7356
 2168SOL    HW212468  11.275   3.702   8.178  0.0337 -0.0793 -0.9248
 2169SOL     OW12469   8.677   4.110   4.344 -0.1385 -0.0188  0.0100
 2169SOL    HW112470   8.616   4.036   4.342 -0.1953  0.0312 -0.1466
 2169SOL    HW212471   8.664   4.154   4.260 -0.4489  0.4468  0.3007
 2170SOL     OW12472   6.600   9.789   2.723 -0.2554 -0.3181  0.2066
 2170SOL    HW112473   6.631   9.700   2.739  0.4210 -0.2677 -0.7433
 2170SOL    HW212474   6.673   9.833   2.679 -1.3961 -0.0143 -1.5071
 2171SOL     OW12475   3.814  10.034  11.014  0.0002 -1.0146 -0.0610
 2171SOL    HW112476   3.800  10.100  11.082 -1.3536 -1.6454  0.2941
 2171SOL    HW212477   3.739  10.042  10.956  0.7200 -1.0536 -1.0370
 2172SOL     OW12478   1.183   5.521   4.660 -0.3804  0.1612 -0.2087
 2172SOL    HW112479   1.222   5.568   4.734 -0.3647 -0.5031  0.2111
 2172SOL    HW212480   1.252   5.520   4.593 -0.6592  1.4325 -0.5272
 2173SOL     OW12481   0.807   9.532  10.640  0.0542  0.6246  0.6059
 2173SOL    HW112482   0.742   9.556  10.573 -1.1275 -0.6939  1.2296
 2173SOL    HW212483   0.763   9.467  10.694  1.4268  0.7456  1.9364
 2174SOL     OW12484   9.799   8.192  11.949 -0.0793  0.1654 -0.0486
 2174SOL    HW112485   9.756   8.128  11.893 -0.0380  0.8747 -0.9113
 2174SOL    HW212486   9.726   8.241  11.989 -0.0994 -0.0334  0.1617
 2175SOL     OW12487   3.423   6.122   5.652  0.5688  0.4156 -0.4304
 2175SOL    HW112488   3.357   6.186   5.678  0.1875 -0.6802  1.5051
 2175SOL    HW212489   3.502   6.150   5.698  0.8300  0.3894 -0.8606
 2176SOL     OW12490   4.969   8.987   2.606 -0.1153  0.1198 -0.1631
 2176SOL    HW112491   4.906   9.034   2.552  0.2037  0.8421  0.0681
 2176SOL    HW212492   5.022   8.937   2.544 -2.0952 -2.0524 -0.2347
 2177SOL     OW12493   1.633   0.610   8.391  0.2519 -0.1580  0.2250
 2177SOL    HW112494   1.666   0.692   8.357 -0.0937 -0.0661  0.1054
 2177SOL    HW212495   1.697   0.544   8.363  1.9698  0.4094  2.5908
 2178SOL     OW12496   3.154   0.158   1.754  0.5173  0.3789 -0.3609
 2178SOL    HW112497   3.155   0.164   1.659  0.8919 -0.7425 -0.4406
 2178SOL    HW212498   3.094   0.085   1.773 -0.2042  1.1269  0.3016
 2179SOL     OW12499   8.502  10.347   4.752 -0.0127 -0.1315 -0.0651
 2179SOL    HW112500   8.579  10.371   4.700  0.5870  0.9289  1.2152
 2179SOL    HW212501   8.461  10.275   4.704  1.5136 -0.4097 -1.0325
 2180SOL     OW12502   6.371   1.449   0.384  0.7792  0.0309 -0.4845
 2180SOL    HW112503   6.361   1.361   0.348 -0.3918  0.3236 -0.9182
 2180SOL    HW212504   6.338   1.507   0.315  0.1120  0.7016  0.3758
 2181SOL     OW12505   3.617   3.445   3.344 -0.2050  0.2099  0.4812
 2181SOL    HW112506   3.547   3.383   3.326 -0.4510  0.2732  1.1808
 2181SOL    HW212507   3.630   3.492   3.261  1.6472 -2.3800 -0.8064
 2182SOL     OW12508   9.954   5.472   1.333  0.5535 -0.3612  0.0743
 2182SOL    HW112509  10.048   5.473   1.311  0.8127 -0.1955  1.1372
 2182SOL    HW212510   9.939   5.556   1.376 -0.0215 -0.5173  0.1797
 2183SOL     OW12511  11.087   3.047  11.036  0.2632  0.5772 -0.1080
 2183SOL    HW112512  11.127   3.108  11.099  0.6842  1.3537 -1.1014
 2183SOL    HW212513  11.139   3.058  10.956 -1.9285  1.6689 -1.4696
 2184SOL     OW12514   9.165  11.804  10.150 -0.3169  0.0613 -0.2451
 2184SOL    HW112515   9.153  11.872  10.084  0.8058  0.6640  0.1487
 2184SOL    HW212516   9.230  11.840  10.211 -0.8446 -0.7442  0.8299
 2185SOL     OW12517   9.488   5.645  12.408 -0.5002 -0.2677  0.8182
 2185SOL    HW112518   9.504   5.719  12.467 -0.9968  0.2553  0.3119
 2185SOL    HW212519   9.394   5.629  12.415 -0.0828 -2.3655  2.6677
 2186SOL     OW12520  10.345   0.578   9.586 -0.2842 -0.2269  0.1168
 2186SOL    HW112521  10.286   0.503   9.591 -0.2556 -0.1976  0.8824
 2186SOL    HW212522  10.422   0.552   9.637  0.5967 -0.4601 -1.2591
 2187SOL     OW12523   7.896   0.208   5.033  0.0047 -0.8267 -0.3961
 2187SOL    HW112524   7.853   0.233   4.951  1.1428 -0.4744 -0.9056
 2187SOL    HW212525   7.916   0.115   5.023  0.6084 -0.6665 -0.7504
 2188SOL     OW12526   0.753   7.135  10.900 -0.0756  0.3503 -0.0005
 2188SOL    HW112527   0.700   7.194  10.953 -0.3591 -0.7664  1.0084
 2188SOL    HW212528   0.691   7.091  10.842 -0.7618 -2.5819  2.6719
 2189SOL     OW12529  12.470   7.075   1.112  0.0587  0.2508  0.0268
 2189SOL    HW112530  12.404   7.092   1.179 -1.1114  1.3531 -1.3406
 2189SOL    HW212531  12.436   7.117   1.033  1.9475  0.0133 -0.9819
 2190SOL     OW12532  12.002   4.846  11.309 -0.5613  0.2018 -0.4925
 2190SOL    HW112533  12.030   4.853  11.218 -0.5669  3.1803 -0.3538
 2190SOL    HW212534  11.912   4.815  11.305 -0.6116  0.4634 -1.5262
 2191SOL     OW12535   0.182  11.311   3.939 -0.1568  0.3560  0.2850
 2191SOL    HW112536   0.225  11.320   3.854  0.8664  2.0145  0.9356
 2191SOL    HW212537   0.163  11.217   3.946 -0.2221  0.1649 -1.7236
 2192SOL     OW12538  11.596  11.494   2.974 -0.6662  0.3755  0.1079
 2192SOL    HW112539  11.569  11.586   2.970  3.2386  1.6788 -1.0615
 2192SOL    HW212540  11.549  11.452   2.902 -2.3222  1.4668  0.4991
 2193SOL     OW12541  11.279   7.566   8.736 -0.0041  0.4299 -0.4565
 2193SOL    HW112542  11.228   7.572   8.655 -0.8806 -0.7526 -0.0154
 2193SOL    HW212543  11.367   7.541   8.708 -0.4294 -0.4698 -1.0185
 2194SOL     OW12544   7.777  11.338  10.560 -0.1728  0.1965 -0.1423
 2194SOL    HW112545   7.736  11.366  10.642 -1.2690 -2.5533  0.3522
 2194SOL    HW212546   7.718  11.368  10.492 -0.9665 -0.3021  0.3141
 2195SOL     OW12547   2.202   6.628   8.505  0.0022  0.0851 -0.3099
 2195SOL    HW112548   2.249   6.689   8.562  0.9144 -1.8075  1.0758
 2195SOL    HW212549   2.261   6.614   8.431 -0.1593  0.7933 -0.5707
 2196SOL     OW12550   6.388   3.514   9.014 -0.0216  0.0183  0.1820
 2196SOL    HW112551   6.420   3.425   9.001 -0.7440 -0.0316 -1.5434
 2196SOL    HW212552   6.301   3.503   9.051 -0.7048 -0.0767 -1.3786
 2197SOL     OW12553  11.057   7.462  11.532 -0.0299 -0.0549 -0.1928
 2197SOL    HW112554  11.132   7.405  11.548 -0.7417 -1.1120 -0.4616
 2197SOL    HW212555  11.088   7.528  11.471  0.3919 -1.1710 -1.2293
 2198SOL     OW12556   5.493   9.039  11.276 -0.1183 -0.2900 -0.3011
 2198SOL    HW112557   5.479   8.950  11.311  2.7538 -0.2540  1.2449
 2198SOL    HW212558   5.471   9.031  11.183  0.1451 -2.6676 -0.2403
 2199SOL     OW12559  10.014  11.491   3.583 -0.5456  0.1017 -0.0823
 2199SOL    HW112560   9.935  11.442   3.562 -0.6508 -0.5527  1.6499
 2199SOL    HW212561  10.083  11.450   3.531 -0.7334 -1.5844  0.9556
 2200SOL     OW12562   1.091   2.539   6.731 -0.0701  0.3355 -0.0437
 2200SOL    HW112563   1.010   2.532   6.681 -0.0248  0.9590 -0.2126
 2200SOL    HW212564   1.153   2.579   6.670  0.6167 -0.9257 -0.1987
 2201SOL     OW12565   9.476   4.687   9.612 -0.4170  0.2434  0.2459
 2201SOL    HW112566   9.491   4.722   9.700  1.4392  2.5154 -0.8362
 2201SOL    HW212567   9.558   4.642   9.590 -0.7703 -0.0884 -0.4282
 2202SOL     OW12568   2.372   6.828   4.627  0.2038  0.0851 -0.3522
 2202SOL    HW112569   2.436   6.769   4.587 -0.6435 -0.5625 -0.7614
 2202SOL    HW212570   2.310   6.848   4.557  0.3116  1.2339 -0.1334
 2203SOL     OW12571   2.965   2.174   5.217  0.2994 -0.1860  0.1799
 2203SOL    HW112572   2.943   2.218   5.299 -0.1007  1.3507 -0.7142
 2203SOL    HW212573   2.985   2.084   5.243  2.1454  0.7207  2.2264
 2204SOL     OW12574   3.732   5.908   9.604  0.0296 -0.1019  0.0303
 2204SOL    HW112575   3.731   5.912   9.509  0.1108 -0.8406 -0.0076
 2204SOL    HW212576   3.777   5.825   9.624  0.0755  0.0811  0.7073
 2205SOL     OW12577  11.672   2.869   8.578 -0.1646  0.6888 -0.2124
 2205SOL    HW112578  11.662   2.875   8.673 -0.5484  0.8521 -0.2620
 2205SOL    HW212579  11.708   2.782   8.562  0.4995  0.8969  0.1313
 2206SOL     OW12580   1.983   1.671   6.641 -0.1046  0.4489  0.5136
 2206SOL    HW112581   2.000   1.584   6.604  1.9008  0.1760  1.8851
 2206SOL    HW212582   1.954   1.723   6.567 -1.4367 -1.3763 -0.3416
 2207SOL     OW12583   8.122   7.215   0.481  0.5857  0.0540  0.1715
 2207SOL    HW112584   8.150   7.151   0.415 -1.4510  0.0172 -0.7454
 2207SOL    HW212585   8.161   7.298   0.452  1.0887 -0.2705 -0.1068
 2208SOL     OW12586   8.373   8.323   8.153 -0.0186  0.4547  0.4171
 2208SOL    HW112587   8.323   8.274   8.219 -0.7717  0.8223  0.1314
 2208SOL    HW212588   8.449   8.356   8.201 -0.2266  0.1771  0.9513
 2209SOL     OW12589   2.664   8.673   4.922 -0.2745  0.0290 -0.4686
 2209SOL    HW112590   2.585   8.620   4.924 -0.6717  0.5665 -1.4158
 2209SOL    HW212591   2.645   8.747   4.979  0.0015 -0.4342  0.2474
 2210SOL     OW12592   9.552  11.817   8.292 -0.3336 -0.2157  0.4675
 2210SOL    HW112593   9.483  11.811   8.359 -0.5595  0.8729  0.3511
 2210SOL    HW212594   9.505  11.805   8.209 -0.2164 -0.5459  0.4512
 2211SOL     OW12595   6.388   2.849   3.491 -0.0933  0.4144 -0.6744
 2211SOL    HW112596   6.370   2.862   3.398 -2.4612 -0.3549 -0.4128
 2211SOL    HW212597   6.317   2.792   3.521  1.0893 -0.0734  1.4354
 2212SOL     OW12598   9.762   8.318   4.969  0.2838  0.0573 -0.3017
 2212SOL    HW112599   9.786   8.253   4.903  1.0190  2.3134 -2.4037
 2212SOL    HW212600   9.832   8.314   5.034  0.3890 -1.1196 -0.4712
 2213SOL     OW12601   1.575  11.776   8.416  0.5345  0.4407  0.1879
 2213SOL    HW112602   1.544  11.864   8.396  1.4876  0.8837  0.5987
 2213SOL    HW212603   1.671  11.783   8.413  0.6192 -0.7846 -0.6232
 2214SOL     OW12604   7.839   8.287  10.026 -0.3834 -0.2169 -0.1719
 2214SOL    HW112605   7.767   8.275   9.964 -1.9109  0.4628  1.3821
 2214SOL    HW212606   7.871   8.375  10.008  0.5138 -0.7379 -1.2690
 2215SOL     OW12607   0.661   5.763   2.174 -0.2754 -0.3520 -0.0075
 2215SOL    HW112608   0.728   5.694   2.179  0.7873  0.5557 -1.0967
 2215SOL    HW212609   0.711   5.844   2.175 -1.4812  0.4055  0.6634
 2216SOL     OW12610   3.596   2.219   3.721  0.1700  0.0730  0.2437
 2216SOL    HW112611   3.557   2.132   3.729 -1.0009  0.6473  1.1488
 2216SOL    HW212612   3.525   2.275   3.689  0.8932  0.7107 -0.3005
 2217SOL     OW12613   5.536   7.675   5.587 -0.4635 -0.3686  0.2245
 2217SOL    HW112614   5.546   7.660   5.492 -1.1252  0.2844  0.0460
 2217SOL    HW212615   5.476   7.606   5.616  0.8210 -1.4457  0.4496
 2218SOL     OW12616   5.544   2.105  10.544  0.2531 -0.1045 -0.1835
 2218SOL    HW112617   5.482   2.111  10.617 -0.1098  1.6884 -0.5881
 2218SOL    HW212618   5.595   2.027  10.562 -1.1852 -0.8353  0.9194
 2219SOL     OW12619  12.035   2.107   1.053 -0.1791 -0.3437 -0.2799
 2219SOL    HW112620  12.009   2.019   1.081 -1.4057  0.8900  2.8233
 2219SOL    HW212621  12.131   2.104   1.052 -0.1538 -2.3697 -2.8521
 2220SOL     OW12622   2.129   0.740  10.283 -0.1608 -0.2335 -0.1361
 2220SOL    HW112623   2.162   0.656  10.250  0.1811 -1.0344  2.0686
 2220SOL    HW212624   2.173   0.806  10.229  0.1757 -1.4278 -1.3995
 2221SOL     OW12625   5.499   6.582   2.908  0.2551  0.3713 -0.5380
 2221SOL    HW112626   5.495   6.664   2.957  0.3643 -0.4047  0.8351
 2221SOL    HW212627   5.591   6.575   2.881  0.3580  0.4560 -0.2146
 2222SOL     OW12628   7.221   1.915  10.754 -0.7362 -0.7678  0.1575
 2222SOL    HW112629   7.158   1.938  10.686  1.6070 -1.1551 -2.3422
 2222SOL    HW212630   7.183   1.839  10.798 -3.0914  0.5262  0.5114
 2223SOL     OW12631   0.447   2.800  10.205 -0.0616  0.3557  0.4298
 2223SOL    HW112632   0.419   2.725  10.257 -0.2970  1.3411  1.7674
 2223SOL    HW212633   0.454   2.872  10.268 -0.2102  1.5497 -0.8679
 2224SOL     OW12634   3.844   9.660   1.623  0.0784  0.1902 -0.0947
 2224SOL    HW112635   3.827   9.745   1.664 -2.6661 -0.6488  0.7652
 2224SOL    HW212636   3.828   9.596   1.693  1.5685 -1.0803 -0.8483
 2225SOL     OW12637  10.338  10.931   3.982 -0.5031 -0.1127 -0.3479
 2225SOL    HW112638  10.395  11.000   4.015 -0.5787 -0.1871 -0.0491
 2225SOL    HW212639  10.397  10.864   3.948 -0.3924 -0.3410  0.2648
 2226SOL     OW12640  10.569   1.674   1.393 -0.6084 -0.1219  0.2048
 2226SOL    HW112641  10.594   1.633   1.477 -0.6759 -1.1614 -0.2666
 2226SOL    HW212642  10.631   1.745   1.382 -0.0299 -0.5337  0.7194
 2227SOL     OW12643   1.604   2.897   8.402  0.0976  0.4879  0.1966
 2227SOL    HW112644   1.557   2.844   8.337 -1.3350  0.4876  1.1904
 2227SOL    HW212645   1.632   2.975   8.354  0.8031 -0.3874 -0.8817
 2228SOL     OW12646   8.255   3.233   1.223  0.1018  0.0350  0.1920
 2228SOL    HW112647   8.161   3.238   1.201 -0.2494 -2.0240  1.0540
 2228SOL    HW212648   8.285   3.154   1.179  1.8414  1.4371 -1.2844
 2229SOL     OW12649   6.618   9.852   7.298  0.0590  0.5559  0.1064
 2229SOL    HW112650   6.551   9.887   7.240  0.9074 -0.0485 -1.3095
 2229SOL    HW212651   6.657   9.929   7.340 -2.6198  0.8406  2.3460
 2230SOL     OW12652   4.820   5.584   7.636  0.0023  0.3340  0.0508
 2230SOL    HW112653   4.769   5.585   7.717 -2.1688 -0.8002 -1.2236
 2230SOL    HW212654   4.765   5.629   7.572  2.3105  2.5274 -0.5241
 2231SOL     OW12655   8.397   0.599   8.450  0.1760  0.0614 -0.2566
 2231SOL    HW112656   8.370   0.632   8.364  2.0201 -0.5229 -1.1254
 2231SOL    HW212657   8.446   0.671   8.489 -0.3277  0.1901  0.1439
 2232SOL     OW12658  11.816   7.481   1.731 -0.2578 -0.6430 -0.2786
 2232SOL    HW112659  11.777   7.405   1.687 -0.1662 -1.1691  0.5319
 2232SOL    HW212660  11.910   7.468   1.722 -0.2345 -0.8436  0.2090
 2233SOL     OW12661   1.932   1.594  10.214 -0.1716  0.0709 -0.1958
 2233SOL    HW112662   1.920   1.545  10.133  0.3422  0.0509 -0.2584
 2233SOL    HW212663   1.845   1.630  10.233 -0.9261 -1.9588  0.5584
 2234SOL     OW12664   2.665   9.128  10.952  0.4028  0.1170 -0.0535
 2234SOL    HW112665   2.613   9.204  10.977 -0.2829 -0.1684 -0.6012
 2234SOL    HW212666   2.603   9.055  10.951  1.1376 -0.5560  0.9307
 2235SOL     OW12667   9.193  11.129   3.632  0.1186 -0.1270  0.6347
 2235SOL    HW112668   9.165  11.062   3.694  0.5173  0.8130  1.8566
 2235SOL    HW212669   9.283  11.107   3.610 -0.7078 -1.8054 -1.4926
 2236SOL     OW12670   8.445  11.546   8.124 -0.4653  0.3995 -0.0992
 2236SOL    HW112671   8.525  11.515   8.166 -1.1393 -1.0548  0.2110
 2236SOL    HW212672   8.398  11.466   8.101 -1.0251  1.1989 -1.8875
 2237SOL     OW12673  10.178   5.238   1.356 -0.3092  0.1823  0.5439
 2237SOL    HW112674  10.199   5.229   1.263 -1.8207  0.4433  0.1604
 2237SOL    HW212675  10.197   5.330   1.376  0.5359 -0.0049  0.6454
 2238SOL     OW12676   6.218   8.589   8.906 -0.6062 -0.3194  0.1211
 2238SOL    HW112677   6.184   8.509   8.867 -0.9174 -0.1970  0.1338
 2238SOL    HW212678   6.202   8.579   9.000  0.3717 -0.7228  0.2521
 2239SOL     OW12679   8.807   3.815   2.816 -0.4306 -0.8098  0.0631
 2239SOL    HW112680   8.727   3.840   2.770 -0.4903 -0.2867  0.4422
 2239SOL    HW212681   8.777   3.769   2.894 -0.4796  1.4155  1.4419
 2240SOL     OW12682   1.569  10.115  11.515 -0.0780 -0.6479 -0.1207
 2240SOL    HW112683   1.604  10.032  11.547 -0.6632 -2.0646 -2.8976
 2240SOL    HW212684   1.611  10.128  11.430 -1.2751  1.0430 -0.5032
 2241SOL     OW12685   6.612   0.972   9.624 -0.6404 -0.6846 -0.1243
 2241SOL    HW112686   6.689   0.983   9.568 -1.4357 -2.2310 -1.6215
 2241SOL    HW212687   6.647   0.951   9.710  0.6066  0.3186 -0.3537
 2242SOL     OW12688   7.982   4.660   9.440  0.2836 -0.3291  0.0520
 2242SOL    HW112689   7.935   4.577   9.430  0.2124 -0.1335 -1.4295
 2242SOL    HW212690   8.068   4.643   9.403 -0.1513  0.6025 -1.4306
 2243SOL     OW12691   9.386   6.919   7.867 -0.0638  0.0831 -0.3286
 2243SOL    HW112692   9.399   6.826   7.884  1.9905  0.4235  0.3201
 2243SOL    HW212693   9.429   6.935   7.783 -0.0658  0.5118 -0.2542
 2244SOL     OW12694   2.421  11.948   0.943  0.3763 -0.2360  0.4576
 2244SOL    HW112695   2.453  11.980   1.027 -0.0052  0.2662  0.4160
 2244SOL    HW212696   2.343  12.000   0.925 -0.0725 -0.9839  0.2309
 2245SOL     OW12697   6.898   2.232   5.230 -0.0609 -0.2579  0.1907
 2245SOL    HW112698   6.827   2.261   5.287  0.6994  0.4440  0.8023
 2245SOL    HW212699   6.947   2.169   5.283  0.6328  0.3766  0.3186
 2246SOL     OW12700   1.397   9.417   5.677 -0.2126  0.4233 -0.3173
 2246SOL    HW112701   1.472   9.371   5.715 -3.1789 -3.0219  2.0994
 2246SOL    HW212702   1.383   9.375   5.593 -0.1848  0.1368 -0.1813
 2247SOL     OW12703   4.379   6.156  12.057 -0.4564  0.0724  0.0335
 2247SOL    HW112704   4.378   6.196  12.143  1.5814  0.0757  0.0844
 2247SOL    HW212705   4.334   6.220  12.001 -4.0710 -0.9782  1.4061
 2248SOL     OW12706   1.276   4.930   5.021  0.0725 -0.4548 -0.4131
 2248SOL    HW112707   1.189   4.892   5.004 -1.4015  1.8772  1.3092
 2248SOL    HW212708   1.298   4.975   4.940 -0.8795 -0.1335 -0.5143
 2249SOL     OW12709   5.999   2.747   1.461  0.1636 -0.0244  0.1085
 2249SOL    HW112710   5.993   2.822   1.403 -0.9220  0.5379  0.8922
 2249SOL    HW212711   6.008   2.785   1.549  0.5161 -0.8234  0.4334
 2250SOL     OW12712   7.907   1.081  11.977 -1.2755  0.0485 -0.3273
 2250SOL    HW112713   7.828   1.131  11.997 -0.5434  1.5603 -1.0174
 2250SOL    HW212714   7.961   1.090  12.055 -1.0423  0.5800 -0.5420
 2251SOL     OW12715   0.477  10.898  11.753  0.0023  0.1928  0.0903
 2251SOL    HW112716   0.460  10.946  11.672  0.4539  0.5642  0.2111
 2251SOL    HW212717   0.568  10.869  11.746 -0.1228 -0.2420  0.2273
 2252SOL     OW12718   9.486   4.469   5.675 -0.6909 -0.4135  0.0185
 2252SOL    HW112719   9.412   4.441   5.622 -1.0370  1.7027 -0.6734
 2252SOL    HW212720   9.465   4.558   5.702  1.5173  0.1875 -0.0487
 2253SOL     OW12721   6.543   0.700   9.952  0.3346 -0.3618  0.0111
 2253SOL    HW112722   6.477   0.755   9.911  0.5583  1.0631  1.4909
 2253SOL    HW212723   6.513   0.689  10.042  1.3291 -1.0087  0.2810
 2254SOL     OW12724  11.928   4.539   9.331  0.0735  0.3799  0.5552
 2254SOL    HW112725  11.868   4.595   9.381 -0.5861  0.0983  0.0971
 2254SOL    HW212726  11.893   4.451   9.342 -1.9897  0.5789 -2.8914
 2255SOL     OW12727   7.245   3.520   5.239 -0.2112 -0.2648 -0.5286
 2255SOL    HW112728   7.334   3.494   5.218 -0.0834 -0.1714 -0.1164
 2255SOL    HW212729   7.245   3.616   5.229  0.5865  0.1440  2.4240
 2256SOL     OW12730   5.642  11.806   1.983 -0.0118  0.8494  0.0808
 2256SOL    HW112731   5.720  11.853   2.014  0.4983 -0.0133  0.1410
 2256SOL    HW212732   5.636  11.729   2.039  2.0211 -1.7902 -2.9372
 2257SOL     OW12733   2.927   5.411   6.704  0.3642  0.2246 -0.0384
 2257SOL    HW112734   2.852   5.429   6.761  0.8936 -1.1367  1.1513
 2257SOL    HW212735   3.003   5.424   6.759  0.8822 -1.4551 -0.2823
 2258SOL     OW12736  10.186   8.137   8.171 -0.1005  0.1721  0.2806
 2258SOL    HW112737  10.178   8.113   8.264 -1.3652  1.6395  0.5862
 2258SOL    HW212738  10.268   8.097   8.143  0.5089  0.0261  2.1385
 2259SOL     OW12739   5.927   1.105   2.406  0.4210  0.0671 -0.2727
 2259SOL    HW112740   5.951   1.089   2.497 -0.2316 -0.2113 -0.1480
 2259SOL    HW212741   5.845   1.154   2.411  0.7171  0.6267 -0.7040
 2260SOL     OW12742   5.376   9.283   3.552  0.1355  0.0919  0.0044
 2260SOL    HW112743   5.378   9.223   3.478  0.1427  0.2750 -0.1450
 2260SOL    HW212744   5.413   9.364   3.518  1.1908 -0.1574  0.5071
 2261SOL     OW12745   5.834   2.511   2.352 -0.2655  0.3007  0.4655
 2261SOL    HW112746   5.882   2.561   2.286  0.2914 -1.8488 -0.8512
 2261SOL    HW212747   5.873   2.539   2.435  0.6565  1.3490 -0.2868
 2262SOL     OW12748   6.121   0.637   1.566 -0.7206  0.5059 -0.5046
 2262SOL    HW112749   6.131   0.597   1.652  0.3845  2.7798  0.5143
 2262SOL    HW212750   6.084   0.568   1.511  0.2927 -1.5843  1.3068
 2263SOL     OW12751   2.507   6.270  10.129 -0.1169 -0.2990 -0.2149
 2263SOL    HW112752   2.553   6.210  10.070  2.3830 -1.5730  2.7796
 2263SOL    HW212753   2.567   6.344  10.140 -1.3790  0.8330 -0.6452
 2264SOL     OW12754   7.875   4.986  11.520  0.2285 -0.2672 -0.3491
 2264SOL    HW112755   7.789   4.967  11.559 -0.6163  1.6833 -1.1418
 2264SOL    HW212756   7.876   4.935  11.439  1.3335 -3.0651  1.2946
 2265SOL     OW12757   5.771   7.404   1.134  0.4829  0.1558 -0.5082
 2265SOL    HW112758   5.678   7.382   1.121  0.1501  1.2045 -0.0531
 2265SOL    HW212759   5.803   7.425   1.047  0.0720  0.5645 -0.5655
 2266SOL     OW12760   6.682   9.528   2.381  0.6321  0.3699  0.3012
 2266SOL    HW112761   6.718   9.455   2.332 -0.6867 -0.5229  0.6100
 2266SOL    HW212762   6.592   9.501   2.403 -0.0544  2.2551  0.0396
 2267SOL     OW12763   4.775   4.482   3.571  0.2688 -0.6149 -0.1202
 2267SOL    HW112764   4.864   4.466   3.601 -0.8869 -1.4872  3.2868
 2267SOL    HW212765   4.748   4.401   3.528  0.5621 -1.0292  0.4630
 2268SOL     OW12766   0.020   5.478   7.407 -0.2666 -0.6239 -0.3308
 2268SOL    HW112767  -0.055   5.508   7.356 -0.6506 -0.8725  0.0900
 2268SOL    HW212768   0.017   5.530   7.487  1.3363  1.0482 -1.2552
 2269SOL     OW12769   3.236   1.194   9.804  0.0810  0.0526  0.3402
 2269SOL    HW112770   3.224   1.103   9.831  1.0621 -0.5274 -1.0491
 2269SOL    HW212771   3.327   1.213   9.825  0.1947  0.3444 -0.3971
 2270SOL     OW12772   1.388   7.492   8.763  0.0876 -0.0810 -0.4599
 2270SOL    HW112773   1.466   7.536   8.731  1.0107 -0.2659  1.4057
 2270SOL    HW212774   1.418   7.406   8.791 -1.1471 -0.8429 -1.3413
 2271SOL     OW12775   7.016   8.736   3.473  0.3616 -0.1027  0.1402
 2271SOL    HW112776   7.073   8.659   3.468  0.4165 -0.1708  1.6122
 2271SOL    HW212777   7.051   8.789   3.544 -0.1009  0.9515 -0.3907
 2272SOL     OW12778   3.784   3.680   6.021  0.0653 -0.6265  0.2411
 2272SOL    HW112779   3.797   3.607   6.081 -0.8322  0.0374  1.2991
 2272SOL    HW212780   3.689   3.681   6.005  0.2528 -0.6116 -0.9791
 2273SOL     OW12781   6.194  11.987   2.763  0.3499 -0.4995 -0.0926
 2273SOL    HW112782   6.209  12.060   2.824  1.1429 -0.2937 -0.5212
 2273SOL    HW212783   6.243  11.914   2.801  0.2829 -0.5605 -0.1239
 2274SOL     OW12784   9.263   7.906  10.615 -0.0851  0.3455 -0.1064
 2274SOL    HW112785   9.194   7.968  10.636  1.7667  2.8524 -0.9377
 2274SOL    HW212786   9.328   7.919  10.684  1.2151  0.8235 -1.3751
 2275SOL     OW12787   5.589   0.773   2.116 -0.3295  0.2137 -0.3708
 2275SOL    HW112788   5.547   0.822   2.046 -1.3091 -0.8913 -0.5805
 2275SOL    HW212789   5.610   0.688   2.078  0.3476  0.0750  0.2885
 2276SOL     OW12790   0.532  11.208   6.002  0.0320 -0.4015  0.8507
 2276SOL    HW112791   0.474  11.275   5.964  0.6283 -0.4605 -0.1908
 2276SOL    HW212792   0.526  11.222   6.097 -0.5679  0.5249  0.6857
 2277SOL     OW12793   9.828  10.683   1.610  0.0972 -0.3748  0.4443
 2277SOL    HW112794   9.773  10.759   1.595  1.1375  0.5137  0.9805
 2277SOL    HW212795   9.771  10.620   1.655 -1.6606 -1.1906 -2.6501
 2278SOL     OW12796  10.996   4.874   7.225 -0.5733  0.0508 -0.2311
 2278SOL    HW112797  11.046   4.798   7.255 -1.0559 -0.1074  0.1932
 2278SOL    HW212798  10.911   4.838   7.200 -1.0838  0.5531  0.7365
 2279SOL     OW12799   0.983   3.938  12.112  0.1596  0.2896 -0.8109
 2279SOL    HW112800   1.063   3.904  12.152  1.1691  0.0519 -2.8710
 2279SOL    HW212801   0.944   3.862  12.069 -2.6242 -0.1794  2.1975
 2280SOL     OW12802   7.087   5.172   9.711 -0.5474 -0.0748 -0.4422
 2280SOL    HW112803   7.123   5.200   9.627 -3.4469 -0.4355 -1.8977
 2280SOL    HW212804   7.130   5.088   9.728  3.2370  1.8400  0.6872
 2281SOL     OW12805   5.640   2.963   3.053 -0.6474  0.1446 -0.2760
 2281SOL    HW112806   5.564   2.978   3.110 -0.0160  0.3731  0.5107
 2281SOL    HW212807   5.705   3.027   3.082  0.0853 -0.4801 -0.5207
 2282SOL     OW12808   6.781   8.981   0.999 -0.7551 -0.1477 -0.3746
 2282SOL    HW112809   6.732   9.062   1.015 -0.5268  0.0447 -0.6603
 2282SOL    HW212810   6.744   8.918   1.062 -1.7922 -0.1787 -0.9837
 2283SOL     OW12811   6.695   5.975   5.641 -0.2769 -0.3410 -0.0004
 2283SOL    HW112812   6.663   5.910   5.703 -1.0121  0.5619  0.5852
 2283SOL    HW212813   6.749   6.035   5.693  2.4162 -1.7635 -0.9398
 2284SOL     OW12814   3.681   9.106   3.479  0.0106 -1.1046 -0.0632
 2284SOL    HW112815   3.671   9.029   3.424 -1.1602 -0.7935 -0.3037
 2284SOL    HW212816   3.625   9.172   3.440  1.8697  0.2853 -0.5396
 2285SOL     OW12817   8.939   2.648   0.804 -0.5305 -0.2796  0.0095
 2285SOL    HW112818   8.911   2.558   0.787  0.7094 -0.5937 -0.4967
 2285SOL    HW212819   8.859   2.699   0.797 -1.0950 -1.2178 -0.7215
 2286SOL     OW12820   7.399   0.286   9.949  0.2021 -0.9269 -0.6541
 2286SOL    HW112821   7.404   0.361   9.890  0.7265 -1.2030 -0.9663
 2286SOL    HW212822   7.315   0.245   9.928 -0.7780  0.3560  0.4972
 2287SOL     OW12823   8.721  11.630   0.979 -0.5029  0.5998 -0.3030
 2287SOL    HW112824   8.634  11.629   0.939 -0.4372  1.4148 -0.4795
 2287SOL    HW212825   8.765  11.706   0.941  1.0713 -0.9660 -1.8683
 2288SOL     OW12826   3.605   9.992  11.537  0.0500  0.4117  0.3642
 2288SOL    HW112827   3.547   9.930  11.581 -0.5263  0.3202 -0.4937
 2288SOL    HW212828   3.694   9.963  11.561 -0.0547 -2.4573 -2.1190
 2289SOL     OW12829   7.018   6.738  10.460 -0.2034  0.3366  0.3290
 2289SOL    HW112830   6.978   6.809  10.409  2.3491  0.3319 -1.9164
 2289SOL    HW212831   7.098   6.776  10.495 -0.0887 -0.7429  1.3036
 2290SOL     OW12832   8.138   0.366   5.967  0.3515  0.9159  0.5073
 2290SOL    HW112833   8.122   0.460   5.956  2.6214  1.3591  0.5428
 2290SOL    HW212834   8.058   0.333   6.008 -0.6816  2.7402  0.0560
 2291SOL     OW12835  11.823   4.169   3.985 -0.6942  0.5919 -0.2050
 2291SOL    HW112836  11.878   4.208   4.053  0.9555 -0.6723 -0.7731
 2291SOL    HW212837  11.753   4.125   4.034 -0.1073  0.5600  0.6274
 2292SOL     OW12838   4.585   3.179   1.966 -0.1195 -0.6841  0.5537
 2292SOL    HW112839   4.601   3.126   1.888  0.6984  1.6520 -0.9707
 2292SOL    HW212840   4.647   3.146   2.031  1.1952 -0.8511 -0.7395
 2293SOL     OW12841   4.651   5.191   3.708 -0.3203  0.3050  0.3272
 2293SOL    HW112842   4.685   5.272   3.670 -2.5180  0.6987 -0.9656
 2293SOL    HW212843   4.659   5.203   3.802  0.2462  1.6177  0.1299
 2294SOL     OW12844   2.964   3.484  10.108 -0.1091  0.2165  0.2461
 2294SOL    HW112845   3.028   3.518  10.171 -0.3584  0.3594  0.4244
 2294SOL    HW212846   2.964   3.549  10.038  0.0711  0.1263  0.1630
 2295SOL     OW12847   0.043   0.828  10.159 -0.1219  0.2033  0.2419
 2295SOL    HW112848   0.042   0.845  10.253 -1.6782 -1.5146  0.6106
 2295SOL    HW212849   0.041   0.732  10.152  1.7082  0.2332 -1.5702
 2296SOL     OW12850   1.953   4.897   6.456  0.3142  0.3726  0.4110
 2296SOL    HW112851   1.899   4.826   6.490 -1.4719  0.9946 -0.9802
 2296SOL    HW212852   2.042   4.861   6.457 -0.4768 -1.7863  0.0897
 2297SOL     OW12853   7.569   7.325   0.203  0.1956 -0.3246 -0.0903
 2297SOL    HW112854   7.649   7.373   0.226  0.4247  0.1984 -1.7875
 2297SOL    HW212855   7.514   7.331   0.280  0.5017  2.1081  0.0165
 2298SOL     OW12856   2.463   7.804   8.694  0.2344  0.1616 -0.2860
 2298SOL    HW112857   2.413   7.851   8.761  0.0569  0.5210 -0.6711
 2298SOL    HW212858   2.398   7.751   8.648 -0.0774  1.7837 -1.8002
 2299SOL     OW12859   7.284   2.025  11.008  0.3245 -0.4554  0.4774
 2299SOL    HW112860   7.268   1.991  10.921  1.7396  0.4201 -0.1709
 2299SOL    HW212861   7.200   2.018  11.053 -0.8552  0.4987 -1.4430
 2300SOL     OW12862   5.975   3.736   4.065 -0.4831 -0.7092  0.2073
 2300SOL    HW112863   6.039   3.702   4.002 -1.5126 -2.6326  0.1453
 2300SOL    HW212864   6.021   3.731   4.149 -0.1529 -0.9962  0.0159
 2301SOL     OW12865   7.610   6.840   6.520  0.1421 -0.0242 -0.8144
 2301SOL    HW112866   7.581   6.875   6.604 -0.5540 -0.1370 -0.9993
 2301SOL    HW212867   7.697   6.876   6.507 -0.7960  2.2196 -1.3269
 2302SOL     OW12868  10.084   6.390   8.299 -0.0531  0.4796 -0.0010
 2302SOL    HW112869  10.029   6.406   8.376 -0.6002  3.3420 -0.8641
 2302SOL    HW212870  10.171   6.421   8.323  0.9728 -2.6259  0.8254
 2303SOL     OW12871   2.186   5.175  10.099 -0.5826  0.1241 -0.4228
 2303SOL    HW112872   2.143   5.261  10.106 -0.9499  0.0633 -1.7068
 2303SOL    HW212873   2.161   5.143  10.013 -0.2498 -1.1822 -0.0561
 2304SOL     OW12874   7.464   1.462   3.484  0.6292  0.0306 -0.3740
 2304SOL    HW112875   7.411   1.478   3.406  2.3177  0.0058 -1.5797
 2304SOL    HW212876   7.450   1.539   3.539  0.8351  0.9329 -1.5480
 2305SOL     OW12877   9.085  11.760   5.834 -0.6600  0.0329  0.7737
 2305SOL    HW112878   9.144  11.733   5.765  0.7038 -0.4035  2.0515
 2305SOL    HW212879   9.013  11.696   5.831  1.5796 -2.8254  2.5508
 2306SOL     OW12880   1.799   6.322   2.918  0.5326 -0.0954  0.5686
 2306SOL    HW112881   1.875   6.356   2.965  0.7141  0.1697  0.0951
 2306SOL    HW212882   1.794   6.377   2.839  0.3651 -0.6692  0.1767
 2307SOL     OW12883   2.056   4.250  11.372  0.3370 -0.2497 -0.0168
 2307SOL    HW112884   2.131   4.190  11.370  0.0530 -0.6124 -1.5547
 2307SOL    HW212885   2.065   4.302  11.292 -1.6476 -1.1008 -0.8535
 2308SOL     OW12886  10.209   4.201  10.041  0.8242  0.1870 -0.1067
 2308SOL    HW112887  10.191   4.108  10.033  1.0377  0.1683 -0.4054
 2308SOL    HW212888  10.210   4.233   9.951  1.9610  0.2364 -0.0902
 2309SOL     OW12889  10.169   8.532   4.754 -0.0318  0.0172  0.3369
 2309SOL    HW112890  10.092   8.530   4.697 -0.0943 -0.7182  0.4420
 2309SOL    HW212891  10.204   8.620   4.743  1.2284 -0.7200 -2.5128
 2310SOL     OW12892   7.339   6.992   5.556  0.3686  0.0286 -0.0335
 2310SOL    HW112893   7.293   6.931   5.614 -1.0123  0.5046 -0.5669
 2310SOL    HW212894   7.416   7.019   5.605 -0.6361  0.2455  1.4957
 2311SOL     OW12895   1.764  10.247   1.426 -0.2766  0.0081  0.4304
 2311SOL    HW112896   1.855  10.263   1.454  0.4548 -0.2685 -1.6089
 2311SOL    HW212897   1.722  10.332   1.433  0.9309  0.7957 -1.1854
 2312SOL     OW12898   4.638   4.482   3.833  0.2535  0.0154 -0.0063
 2312SOL    HW112899   4.652   4.463   3.740  1.5219  1.3354 -0.1233
 2312SOL    HW212900   4.676   4.408   3.879  0.0481 -0.4233 -0.5338
 2313SOL     OW12901  12.360   0.693  11.207 -0.5978 -0.3238  0.3329
 2313SOL    HW112902  12.394   0.744  11.281 -0.8883 -0.0983  0.3135
 2313SOL    HW212903  12.437   0.675  11.153 -0.3279 -0.7845  0.8608
 2314SOL     OW12904   5.955   9.172   6.997  0.1733 -0.0171 -0.5195
 2314SOL    HW112905   5.869   9.140   7.026 -0.2602  0.1038 -1.6301
 2314SOL    HW212906   5.946   9.182   6.902  1.6361 -0.6480 -0.7451
 2315SOL     OW12907   4.059  11.663   9.105 -0.5439  0.2428 -0.2729
 2315SOL    HW112908   4.072  11.758   9.109 -0.1138  0.2003 -0.5835
 2315SOL    HW212909   4.115  11.634   9.033 -1.2813 -0.1468 -0.7020
 2316SOL     OW12910   2.202   5.460  12.339  0.2560 -0.2149  0.1712
 2316SOL    HW112911   2.195   5.423  12.252 -0.7856 -0.8130  0.4910
 2316SOL    HW212912   2.158   5.396  12.396  0.1116  0.5953  0.9953
 2317SOL     OW12913   8.440  11.354  11.740  0.3951 -0.1812  0.3208
 2317SOL    HW112914   8.529  11.333  11.714  0.4667  0.4352  0.0717
 2317SOL    HW212915   8.444  11.360  11.836  0.4658 -0.8419  0.3667
 2318SOL     OW12916  11.209  11.079   1.086 -0.0420  0.2137  0.5105
 2318SOL    HW112917  11.201  10.987   1.111 -0.3667 -0.3929 -1.6844
 2318SOL    HW212918  11.228  11.078   0.993 -1.0353  2.3956  0.2100
 2319SOL     OW12919   0.484   1.849   1.108  0.2781  0.2910 -0.1705
 2319SOL    HW112920   0.529   1.905   1.046 -1.1331  1.2901 -0.3368
 2319SOL    HW212921   0.517   1.876   1.194  0.0347  0.9657 -0.2893
 2320SOL     OW12922  11.157   0.673   4.520  0.2007 -0.3494  0.4269
 2320SOL    HW112923  11.103   0.724   4.460  0.2793 -0.8229 -0.0539
 2320SOL    HW212924  11.098   0.652   4.593 -0.1914 -0.6360  0.0332
 2321SOL     OW12925  11.830   8.346   3.251  0.1679 -0.3542 -0.7942
 2321SOL    HW112926  11.831   8.251   3.245 -0.3152 -0.3297 -1.4227
 2321SOL    HW212927  11.752   8.372   3.201 -1.6024  0.1965  1.9917
 2322SOL     OW12928   9.785   5.751  11.935 -0.1432 -0.3525  0.4353
 2322SOL    HW112929   9.871   5.746  11.894 -0.3883 -0.0115 -0.1298
 2322SOL    HW212930   9.752   5.661  11.936 -0.6838 -0.2084 -1.3185
 2323SOL     OW12931   6.113   9.577   5.468  0.5705 -0.1874  0.5999
 2323SOL    HW112932   6.050   9.648   5.461  1.0667  0.2871  0.8827
 2323SOL    HW212933   6.060   9.498   5.475  0.0104  0.2072  0.8400
 2324SOL     OW12934  10.169  11.994  10.942 -0.0343 -0.8005  0.1941
 2324SOL    HW112935  10.243  12.054  10.943 -0.3774 -0.2115 -2.5992
 2324SOL    HW212936  10.092  12.051  10.940 -0.4603 -1.3722  0.0378
 2325SOL     OW12937   2.940   3.094  11.485  0.2771  0.2830 -0.0988
 2325SOL    HW112938   2.991   3.014  11.471 -0.9667 -0.3971 -0.9941
 2325SOL    HW212939   2.914   3.122  11.397  1.0473  1.9499  0.1689
 2326SOL     OW12940   0.387   6.848   9.518  0.5826  0.1739  0.2263
 2326SOL    HW112941   0.398   6.878   9.607  2.5640 -0.6323  0.3103
 2326SOL    HW212942   0.451   6.897   9.467 -0.7195  0.8453 -0.8499
 2327SOL     OW12943   9.596  10.961   9.269  0.4281  0.0873 -0.1414
 2327SOL    HW112944   9.599  11.056   9.276  0.1789  0.1205 -0.4765
 2327SOL    HW212945   9.530  10.944   9.202  1.9892 -0.2394 -1.6859
 2328SOL     OW12946   0.087   0.635   8.482 -0.4257 -0.2132 -0.0314
 2328SOL    HW112947   0.111   0.615   8.572  0.7045  1.8103  0.1604
 2328SOL    HW212948   0.001   0.677   8.489 -0.6952 -0.7551  0.0022
 2329SOL     OW12949   2.641   8.737   0.083 -0.2543  0.5471  0.2890
 2329SOL    HW112950   2.633   8.831   0.069 -2.1070  0.4333  0.3053
 2329SOL    HW212951   2.550   8.706   0.089  0.3164 -1.2370  0.2868
 2330SOL     OW12952   6.918  10.288   7.914 -0.2165  0.6247  0.3536
 2330SOL    HW112953   6.846  10.333   7.868 -0.5615 -1.1468 -0.9394
 2330SOL    HW212954   6.880  10.204   7.941  0.7415  0.5913  1.7016
 2331SOL     OW12955   6.778   3.782   9.707  0.2723 -0.2754 -0.5143
 2331SOL    HW112956   6.775   3.855   9.645  0.7403 -0.0235 -0.2471
 2331SOL    HW212957   6.831   3.815   9.780 -0.4050 -0.5115  0.0914
 2332SOL     OW12958   6.306   2.107   1.404 -0.0132 -0.5366 -0.7553
 2332SOL    HW112959   6.299   2.168   1.478  0.6499  0.3680 -1.4107
 2332SOL    HW212960   6.255   2.147   1.334  1.5359 -0.0105 -1.6330
 2333SOL     OW12961  10.422   5.070   2.440  0.3881 -0.2790 -0.0730
 2333SOL    HW112962  10.452   5.097   2.353  0.5950  1.7380  0.5628
 2333SOL    HW212963  10.344   5.018   2.423  0.3365  0.2077 -1.4758
 2334SOL     OW12964   8.413   2.682   7.612 -0.4913 -0.5212 -0.2064
 2334SOL    HW112965   8.358   2.669   7.689  0.1021 -2.3441 -0.0469
 2334SOL    HW212966   8.351   2.690   7.539 -1.0436  0.9401  0.3730
 2335SOL     OW12967   6.658   5.620   1.721  0.0382  0.1376 -0.5177
 2335SOL    HW112968   6.717   5.625   1.797  0.4446  1.5050 -0.8975
 2335SOL    HW212969   6.585   5.565   1.751  1.2010 -1.0965  0.1530
 2336SOL     OW12970   0.009   7.176   2.325  0.0698 -0.1218 -0.8847
 2336SOL    HW112971   0.001   7.165   2.420  1.8302  0.3326 -0.6391
 2336SOL    HW212972   0.028   7.269   2.314  1.2005 -0.4174 -1.5610
 2337SOL     OW12973  11.475   7.185  11.854  0.2017 -0.4221 -0.1325
 2337SOL    HW112974  11.436   7.270  11.837 -1.1623 -1.1506 -0.7681
 2337SOL    HW212975  11.550   7.204  11.911  0.4540  1.2790 -0.9803
 2338SOL     OW12976   7.826   3.619   8.118  0.4539  0.4522 -0.2449
 2338SOL    HW112977   7.818   3.710   8.144  0.1149  0.0228  1.2594
 2338SOL    HW212978   7.736   3.592   8.098  0.5431  0.4180 -0.6102
 2339SOL     OW12979   8.716   5.252   9.657 -0.1678  0.0682 -0.2834
 2339SOL    HW112980   8.733   5.318   9.589  1.2781  0.9076  0.8424
 2339SOL    HW212981   8.684   5.302   9.732  1.3763 -0.3814  0.7406
 2340SOL     OW12982   3.627   1.662   3.298 -0.5839  0.0909 -0.0019
 2340SOL    HW112983   3.653   1.697   3.383 -0.2606  0.1881 -0.1425
 2340SOL    HW212984   3.584   1.579   3.319 -3.6770  1.6866  0.5791
 2341SOL     OW12985   6.243   5.050   2.978  0.4643  0.7950  0.6112
 2341SOL    HW112986   6.190   5.127   2.999 -0.4431  0.0557  1.1138
 2341SOL    HW212987   6.187   4.997   2.922  1.0235  0.4181  0.4047
 2342SOL     OW12988  10.675  12.053  11.103 -0.1799  0.1732  0.2053
 2342SOL    HW112989  10.750  12.056  11.044  0.5008 -0.6103  0.9860
 2342SOL    HW212990  10.634  11.968  11.086 -1.3657  0.8945 -0.7396
 2343SOL     OW12991   6.750   5.632   8.818 -0.5104  0.1806 -0.3371
 2343SOL    HW112992   6.753   5.635   8.722  1.5704 -0.4736 -0.3389
 2343SOL    HW212993   6.762   5.723   8.845  0.7499  0.1436 -0.7127
 2344SOL     OW12994   7.665   3.620   1.346 -0.5693 -0.0059  0.4233
 2344SOL    HW112995   7.661   3.716   1.343 -0.7109  0.0179  1.0635
 2344SOL    HW212996   7.582   3.591   1.307 -1.7016  0.2054  2.5197
 2345SOL     OW12997   6.273   8.679   2.261  0.4980  0.4474 -0.1282
 2345SOL    HW112998   6.341   8.612   2.271  1.4536  1.4052 -0.0637
 2345SOL    HW212999   6.293   8.722   2.178 -1.0223 -0.3226 -0.9389
 2346SOL     OW13000   3.125   8.825   5.449 -0.0232  0.3360  0.6145
 2346SOL    HW113001   3.031   8.831   5.465 -0.3689  1.6734 -1.5022
 2346SOL    HW213002   3.136   8.745   5.398 -0.2677  0.9018 -0.3687
 2347SOL     OW13003   6.424  11.028  12.492  0.0858 -0.0825 -0.8235
 2347SOL    HW113004   6.441  11.122  12.495  0.0643 -0.0365 -1.7770
 2347SOL    HW213005   6.509  10.988  12.476  0.2952 -0.3314  0.7328
 2348SOL     OW13006  10.566   1.263   0.049  0.4724  0.1733  0.0346
 2348SOL    HW113007  10.639   1.325   0.054 -0.2539  1.0091  0.5254
 2348SOL    HW213008  10.599   1.183   0.089  0.8615  0.8142  1.0361
 2349SOL     OW13009  11.514   6.272   6.149  0.3557 -0.1719 -0.1563
 2349SOL    HW113010  11.551   6.234   6.069  0.8967 -0.1263  0.0714
 2349SOL    HW213011  11.506   6.366   6.129 -1.8999 -0.4776 -1.0830
 2350SOL     OW13012   4.731   7.064   9.133 -0.0978 -0.1008  0.5316
 2350SOL    HW113013   4.652   7.071   9.187 -0.3157  1.2630  0.0780
 2350SOL    HW213014   4.706   7.099   9.048  0.6212 -0.9706 -0.0559
 2351SOL     OW13015   8.222   6.661  10.993  0.1279 -0.0094  0.7022
 2351SOL    HW113016   8.162   6.673  10.919 -0.4222 -0.8987  0.9831
 2351SOL    HW213017   8.306   6.642  10.953 -0.2558 -0.8877  0.2858
 2352SOL     OW13018   4.434   0.535   2.400 -0.7144 -0.0009 -0.3360
 2352SOL    HW113019   4.431   0.624   2.434 -1.9013 -0.1112 -0.1000
 2352SOL    HW213020   4.490   0.487   2.461 -0.5439  0.4460 -0.1383
 2353SOL     OW13021   6.296   2.110   7.872 -0.3067  0.3372 -0.6521
 2353SOL    HW113022   6.242   2.098   7.950  1.3246 -0.1141  0.4644
 2353SOL    HW213023   6.255   2.183   7.826 -0.7564  1.3137  1.1701
 2354SOL     OW13024   5.128   4.714   3.334  0.1435  0.6835  0.2160
 2354SOL    HW113025   5.042   4.742   3.364  0.3820 -1.0928  2.9005
 2354SOL    HW213026   5.117   4.700   3.240 -2.2576  1.3161  0.3434
 2355SOL     OW13027   6.732   1.970  12.255 -0.1556  0.1703  0.5161
 2355SOL    HW113028   6.777   1.952  12.338 -0.5441 -0.9884  0.5009
 2355SOL    HW213029   6.802   1.991  12.194  0.3713 -1.2458  0.5839
 2356SOL     OW13030   0.611   9.322  12.139  0.3920 -1.0678  0.2354
 2356SOL    HW113031   0.623   9.412  12.169  0.8701 -0.7205 -0.9765
 2356SOL    HW213032   0.692   9.278  12.162  1.0783 -0.6021 -1.2143
 2357SOL     OW13033  10.607   7.057   2.390  0.4210  0.0116  0.0551
 2357SOL    HW113034  10.613   7.090   2.480  0.9879 -0.3244  0.1456
 2357SOL    HW213035  10.521   7.086   2.360  0.3018  0.2898  0.6411
 2358SOL     OW13036   0.615   0.058   0.494  0.4724 -0.0653  0.4917
 2358SOL    HW113037   0.653   0.111   0.564  0.2778  0.9520 -0.1531
 2358SOL    HW213038   0.599  -0.027   0.534  1.6184  0.0815  1.3071
 2359SOL     OW13039   1.329   5.411   8.282  0.3069 -0.3850 -0.0187
 2359SOL    HW113040   1.241   5.378   8.300 -0.0346 -1.5452 -3.2249
 2359SOL    HW213041   1.314   5.493   8.235  1.0157  0.1640  0.6805
 2360SOL     OW13042  10.510   4.338   1.009 -0.1086  0.5288 -0.1814
 2360SOL    HW113043  10.543   4.422   1.041 -0.2691  1.1916 -1.6336
 2360SOL    HW213044  10.547   4.273   1.068  3.3289  1.2458 -1.3223
 2361SOL     OW13045   7.675   3.120  10.274  0.6350  0.1214 -0.1748
 2361SOL    HW113046   7.648   3.033  10.302 -0.0216  1.1657  2.7109
 2361SOL    HW213047   7.770   3.119  10.280  0.6072 -0.2828  0.2139
 2362SOL     OW13048   5.865   1.619  10.908 -1.3385 -0.4673  0.2844
 2362SOL    HW113049   5.923   1.575  10.971 -0.3027 -0.4052 -0.5829
 2362SOL    HW213050   5.922   1.636  10.833 -2.5499 -0.5465 -0.6691
 2363SOL     OW13051  12.470   8.333  10.202 -0.0985 -0.1241 -0.2221
 2363SOL    HW113052  12.405   8.403  10.209 -0.7003 -0.4467 -2.1855
 2363SOL    HW213053  12.446   8.285  10.123 -0.2326 -3.1176  1.5031
 2364SOL     OW13054   5.223   2.470  10.351 -0.1967  0.3762 -0.2397
 2364SOL    HW113055   5.129   2.491  10.354 -0.3943 -0.5625  1.1435
 2364SOL    HW213056   5.225   2.376  10.334  0.5111  0.4740 -0.7011
 2365SOL     OW13057   1.108   7.658   2.853 -0.6942  0.6637 -0.5259
 2365SOL    HW113058   1.124   7.750   2.835  0.8637  0.6696  0.6467
 2365SOL    HW213059   1.106   7.652   2.948  0.8410 -0.7148 -0.5351
 2366SOL     OW13060  10.522   9.869   2.359 -0.2311 -0.3962 -0.5150
 2366SOL    HW113061  10.454   9.823   2.308 -1.1482 -1.0423  1.2069
 2366SOL    HW213062  10.602   9.820   2.340 -0.7786 -1.3719 -0.4211
 2367SOL     OW13063   2.131   6.150   7.465  0.5261  0.8917 -0.6450
 2367SOL    HW113064   2.180   6.069   7.451 -0.4352 -0.0156  0.9890
 2367SOL    HW213065   2.067   6.152   7.394 -0.1558 -0.3577 -0.0916
 2368SOL     OW13066  10.613   4.063   5.765  0.0578  0.2939  0.0835
 2368SOL    HW113067  10.600   4.142   5.816  0.2935 -0.1155  0.7963
 2368SOL    HW213068  10.524   4.029   5.750  0.0305 -0.0103  0.9157
 2369SOL     OW13069   4.530  11.701   7.452  0.4116 -0.2339  0.2836
 2369SOL    HW113070   4.615  11.662   7.473  0.2446 -0.1076  1.2073
 2369SOL    HW213071   4.484  11.633   7.402  1.2986 -0.0547 -0.8047
 2370SOL     OW13072   2.297   1.856   3.295  0.2796 -0.5769 -0.1245
 2370SOL    HW113073   2.298   1.945   3.258 -0.9468 -0.1764  0.7467
 2370SOL    HW213074   2.372   1.854   3.354 -0.1809  0.1948  0.5097
 2371SOL     OW13075   8.403   0.432   2.876  0.0907  0.2601 -1.0703
 2371SOL    HW113076   8.433   0.355   2.828 -0.8131 -0.0103 -1.2300
 2371SOL    HW213077   8.457   0.504   2.844  1.3675 -0.4116 -0.4715
 2372SOL     OW13078   1.372   4.449  10.511 -0.0586 -0.0200 -0.6337
 2372SOL    HW113079   1.410   4.512  10.572  1.2526 -1.7725  0.4944
 2372SOL    HW213080   1.288   4.425  10.551 -0.2750  0.5392 -0.7465
 2373SOL     OW13081   2.984  10.701  10.075  0.2424 -0.2320 -0.4604
 2373SOL    HW113082   3.026  10.780  10.042  0.9954 -0.1798  0.5629
 2373SOL    HW213083   3.016  10.631  10.018 -0.1551  0.1299 -1.1506
 2374SOL     OW13084   6.516   2.527  12.178 -0.1368 -0.8226  0.3004
 2374SOL    HW113085   6.597   2.493  12.216  0.2714 -0.8044 -0.5242
 2374SOL    HW213086   6.476   2.452  12.134  0.9992 -0.2195 -1.9225
 2375SOL     OW13087   2.410   6.083  12.127 -0.3207 -0.3550 -0.2351
 2375SOL    HW113088   2.335   6.028  12.104 -0.7294 -1.1856  2.6384
 2375SOL    HW213089   2.486   6.027  12.112 -0.1239  0.5530 -3.3410
 2376SOL     OW13090   9.018  10.332   0.094  0.4246  0.2864 -0.0598
 2376SOL    HW113091   8.992  10.314   0.184 -1.2767 -1.2497 -0.8112
 2376SOL    HW213092   8.963  10.405   0.067  0.8346  0.6536  0.0785
 2377SOL     OW13093   2.065   4.047   5.590  0.7491 -0.3790  0.5090
 2377SOL    HW113094   2.134   3.999   5.546  1.9203  0.9959  0.7807
 2377SOL    HW213095   2.062   4.009   5.678  1.5250 -0.1101  0.6588
 2378SOL     OW13096   6.268   8.371   2.018  0.9850 -0.3417 -0.4613
 2378SOL    HW113097   6.316   8.316   1.957  0.4773 -1.6573  0.2682
 2378SOL    HW213098   6.179   8.376   1.982  0.9722 -0.1796 -0.4097
 2379SOL     OW13099   0.516   2.008   3.774 -0.1003  0.7553  0.1672
 2379SOL    HW113100   0.553   2.096   3.763 -0.3905  0.6995 -1.3923
 2379SOL    HW213101   0.581   1.950   3.734 -0.8668  0.4611 -0.6803
 2380SOL     OW13102   9.425  10.902   2.587 -0.0065  0.0635  0.1641
 2380SOL    HW113103   9.427  10.923   2.680 -1.3366 -0.7078  0.3931
 2380SOL    HW213104   9.412  10.807   2.584  0.4848  0.0080 -0.8222
 2381SOL     OW13105  10.912   4.775  10.456  0.3536  0.1022 -0.5385
 2381SOL    HW113106  10.840   4.745  10.401  1.4773  0.0214 -2.0241
 2381SOL    HW213107  10.991   4.741  10.414  1.2897  0.1839  1.0342
 2382SOL     OW13108   7.107   4.175   0.023  0.4216  0.1814  0.0322
 2382SOL    HW113109   7.127   4.100  -0.032 -0.8379  0.4193 -0.8041
 2382SOL    HW213110   7.099   4.248  -0.038 -0.9239  0.4722  0.5039
 2383SOL     OW13111  11.597   4.121   6.435  0.3654 -0.0463 -0.1738
 2383SOL    HW113112  11.508   4.129   6.468  1.2921  0.5224  2.3982
 2383SOL    HW213113  11.604   4.189   6.368 -1.5024 -1.0538 -1.4942
 2384SOL     OW13114   5.992   4.145   4.114 -0.6240  0.5030 -0.2080
 2384SOL    HW113115   6.076   4.136   4.159 -0.7047 -0.2365 -0.1901
 2384SOL    HW213116   5.992   4.235   4.079 -0.8892  1.3757  1.8989
 2385SOL     OW13117   6.003   2.422   5.445 -0.0911  0.2431 -0.1828
 2385SOL    HW113118   6.076   2.432   5.384  0.2522 -0.2213  0.1411
 2385SOL    HW213119   5.933   2.382   5.393  0.0251  0.3237 -0.4008
 2386SOL     OW13120   5.313   5.589   3.250 -0.4426  0.4911 -0.0157
 2386SOL    HW113121   5.401   5.592   3.289 -0.0581 -1.0143 -0.6998
 2386SOL    HW213122   5.256   5.621   3.320  0.4649 -0.1750  1.0828
 2387SOL     OW13123   4.001   4.572   3.734 -0.6728 -0.1003  0.0446
 2387SOL    HW113124   3.915   4.536   3.756  0.4417 -0.8586  4.1274
 2387SOL    HW213125   4.006   4.654   3.782  0.5331  0.4270 -0.9326
 2388SOL     OW13126   0.223  12.012   5.618 -0.3088 -0.5892  0.6326
 2388SOL    HW113127   0.287  12.047   5.680  0.2802 -0.0499 -0.2569
 2388SOL    HW213128   0.138  12.041   5.652  0.1693  2.2096 -0.3127
 2389SOL     OW13129  10.031  10.020   4.509  0.2491 -0.0362 -0.0039
 2389SOL    HW113130  10.070  10.063   4.585 -1.1874  0.1363  0.6651
 2389SOL    HW213131  10.022  10.090   4.444 -1.6471  0.6404  0.9146
 2390SOL     OW13132   4.582   9.831  10.335  0.1638  0.2820 -0.2900
 2390SOL    HW113133   4.626   9.879  10.406 -0.9837  0.2308  0.4759
 2390SOL    HW213134   4.646   9.764  10.309  1.1092  1.1154 -0.2061
 2391SOL     OW13135  10.785   1.587   7.874  0.2530 -0.1025  0.3138
 2391SOL    HW113136  10.693   1.562   7.888 -0.0405  1.4625  1.5375
 2391SOL    HW213137  10.781   1.662   7.815  0.9459 -1.3086 -1.3618
 2392SOL     OW13138   4.187   7.774  11.148 -0.4347  0.2269  0.4223
 2392SOL    HW113139   4.281   7.769  11.130 -0.3437 -3.2360  1.3033
 2392SOL    HW213140   4.182   7.814  11.235  0.0921  1.4459 -0.0738
 2393SOL     OW13141   8.470   1.169   9.239  0.2652 -0.4300 -0.1504
 2393SOL    HW113142   8.538   1.166   9.171  0.6336  2.6333 -0.0481
 2393SOL    HW213143   8.514   1.136   9.318  1.2765  0.3755 -0.3607
 2394SOL     OW13144   7.982  10.064   2.281  0.3913  0.1748 -0.0532
 2394SOL    HW113145   8.070  10.028   2.278 -0.2758 -1.7799  1.5374
 2394SOL    HW213146   7.932  10.013   2.218 -0.1843 -0.6375  1.0149
 2395SOL     OW13147  11.496   7.249   1.068 -0.0129 -0.1426 -0.5003
 2395SOL    HW113148  11.409   7.240   1.030 -0.1303 -0.3131 -0.1967
 2395SOL    HW213149  11.550   7.184   1.023 -0.5841 -1.6414  0.8753
 2396SOL     OW13150   3.770   9.960   9.807 -0.3616 -0.1953 -0.0966
 2396SOL    HW113151   3.814   9.949   9.723  1.0589  1.7902  0.3235
 2396SOL    HW213152   3.832   9.927   9.871 -1.2525 -1.2685  0.2620
 2397SOL     OW13153   9.336   0.040  10.130 -0.0604 -0.5010  0.2899
 2397SOL    HW113154   9.329   0.133  10.108  0.7454 -0.4322  0.3171
 2397SOL    HW213155   9.294   0.033  10.216  0.4450 -0.0493  0.5767
 2398SOL     OW13156  11.192   9.041   5.803  0.0762  0.5851  0.4833
 2398SOL    HW113157  11.208   9.059   5.896 -1.1632 -0.4779  0.9303
 2398SOL    HW213158  11.255   9.096   5.757  0.0689  1.8657  1.9225
 2399SOL     OW13159   1.518   4.215   3.729 -0.1947  0.1477 -0.0382
 2399SOL    HW113160   1.520   4.139   3.671  1.9280 -0.4570  0.7257
 2399SOL    HW213161   1.438   4.205   3.780  0.6367 -2.3356  0.9454
 2400SOL     OW13162   1.694   8.406   7.954 -0.1020 -0.3498 -0.1853
 2400SOL    HW113163   1.716   8.313   7.954 -0.0315 -0.3334 -0.2761
 2400SOL    HW213164   1.636   8.417   8.029 -0.0176 -0.4443 -0.1062
 2401SOL     OW13165   3.746  11.204   3.020 -0.1781 -0.4665 -0.3134
 2401SOL    HW113166   3.833  11.195   3.059  0.3014  1.4044 -0.8757
 2401SOL    HW213167   3.747  11.144   2.945  0.5293 -0.6576 -0.1523
 2402SOL     OW13168   6.881   4.511   8.024 -0.0547 -0.2199 -0.3531
 2402SOL    HW113169   6.867   4.484   7.934  0.0925  0.3306 -0.5462
 2402SOL    HW213170   6.969   4.549   8.025 -0.7879  1.5594 -0.4187
 2403SOL     OW13171  12.357   0.789   7.132  0.3578  0.2378 -0.0870
 2403SOL    HW113172  12.382   0.744   7.051  0.2106  0.6822 -0.3843
 2403SOL    HW213173  12.430   0.848   7.150  0.1495  0.5279 -0.1898
 2404SOL     OW13174   7.456   5.199   2.299  0.0059  0.0131 -0.1822
 2404SOL    HW113175   7.539   5.245   2.312  0.6953 -1.4285  0.6944
 2404SOL    HW213176   7.480   5.108   2.284 -1.4220 -0.7790  1.7753
 2405SOL     OW13177   5.234   5.386   0.810  0.2249  0.6026  0.1606
 2405SOL    HW113178   5.222   5.349   0.723  2.6021  3.0872 -1.4033
 2405SOL    HW213179   5.298   5.329   0.852  0.3037  0.3061 -0.3527
 2406SOL     OW13180   8.398   6.760   2.281 -0.0341  0.1966  0.3526
 2406SOL    HW113181   8.426   6.809   2.204 -2.2380  1.6318  0.3753
 2406SOL    HW213182   8.358   6.826   2.339  0.2250 -1.0712  2.0574
 2407SOL     OW13183   3.783   2.647   1.623 -0.5347 -0.1330  0.5332
 2407SOL    HW113184   3.693   2.625   1.599 -1.3181  0.5022  2.6345
 2407SOL    HW213185   3.827   2.563   1.632 -0.9113 -0.4520 -0.4990
 2408SOL     OW13186   3.582   4.104   2.240  0.4782 -0.1969 -0.3366
 2408SOL    HW113187   3.637   4.054   2.300 -0.3218 -1.8697 -0.9156
 2408SOL    HW213188   3.616   4.193   2.244  1.1588 -0.5062  1.7179
 2409SOL     OW13189   6.516   9.203   8.233 -0.2724 -0.2920 -0.3178
 2409SOL    HW113190   6.567   9.125   8.216  1.2301  0.4936  0.3852
 2409SOL    HW213191   6.456   9.178   8.304 -1.2074 -1.3438 -1.4423
 2410SOL     OW13192   4.832   9.513   2.240 -0.0143  0.1229  0.2949
 2410SOL    HW113193   4.809   9.465   2.320  1.0993  0.1626  0.6589
 2410SOL    HW213194   4.884   9.451   2.189  0.1520  0.4480  0.0677
 2411SOL     OW13195   7.417   4.526  10.129  0.4039 -0.3904  0.3102
 2411SOL    HW113196   7.478   4.596  10.151  1.3863 -1.4231  0.9799
 2411SOL    HW213197   7.441   4.454  10.187 -1.0248 -1.0538  0.1113
 2412SOL     OW13198   8.421  11.159   6.222  0.4494  0.1261  0.2124
 2412SOL    HW113199   8.449  11.106   6.297 -0.1896 -0.7976 -0.1936
 2412SOL    HW213200   8.493  11.221   6.210  2.2085 -1.9141 -0.5446
 2413SOL     OW13201  12.392   8.239   7.415 -0.7676 -0.3912 -0.1349
 2413SOL    HW113202  12.352   8.327   7.411  0.0465 -0.0428 -2.8620
 2413SOL    HW213203  12.345   8.189   7.348  0.1770 -1.4059 -0.0661
 2414SOL     OW13204   2.200   2.602   8.258 -0.0185 -0.1006  0.2981
 2414SOL    HW113205   2.133   2.575   8.321 -1.0481 -0.0785 -0.7452
 2414SOL    HW213206   2.283   2.578   8.299 -0.6747 -0.3952  1.5018
 2415SOL     OW13207  11.976   9.240   3.194  0.2271  0.7283  0.0098
 2415SOL    HW113208  12.009   9.271   3.110  1.5969 -1.9504 -0.5550
 2415SOL    HW213209  12.049   9.254   3.255  0.8617 -1.1794 -0.2526
 2416SOL     OW13210  12.060   5.547   0.657  0.3582 -0.2974  0.3319
 2416SOL    HW113211  12.101   5.575   0.575 -0.1874 -0.2038  0.0868
 2416SOL    HW213212  11.978   5.505   0.630 -0.4652  0.8887  0.8936
 2417SOL     OW13213   1.832   2.179   7.005  0.3978  0.4229  0.1994
 2417SOL    HW113214   1.906   2.168   6.946  0.2570  1.4297 -0.1939
 2417SOL    HW213215   1.765   2.221   6.951 -0.5206 -0.6117  0.5002
 2418SOL     OW13216  12.324  12.195   5.774  0.0304  0.1135  0.8182
 2418SOL    HW113217  12.332  12.104   5.804 -0.1665  0.0758  0.7605
 2418SOL    HW213218  12.325  12.247   5.855 -0.5472  0.0075  0.8977
 2419SOL     OW13219  10.065  10.254  11.045  0.3361  0.7680  0.0225
 2419SOL    HW113220  10.102  10.331  11.089 -0.2289  0.6947  0.6349
 2419SOL    HW213221  10.040  10.287  10.958  0.3909  1.1994  0.1654
 2420SOL     OW13222   8.287   8.237   6.410  0.2279  0.1734  0.6964
 2420SOL    HW113223   8.308   8.155   6.454  0.5024  0.7221  1.6060
 2420SOL    HW213224   8.295   8.216   6.317 -3.6477 -1.9275  0.6182
 2421SOL     OW13225   6.567   2.529   1.017 -0.1284 -0.6437  0.8432
 2421SOL    HW113226   6.610   2.573   0.944 -0.5875 -2.6343 -0.7197
 2421SOL    HW213227   6.581   2.436   1.001 -0.3833 -1.1711  3.2517
 2422SOL     OW13228   0.491   0.396   2.594  0.1989 -0.0405  0.1012
 2422SOL    HW113229   0.500   0.357   2.681 -1.1249 -0.8028 -0.0897
 2422SOL    HW213230   0.580   0.393   2.558  0.8541  0.6836  1.5711
 2423SOL     OW13231   0.021   1.091  11.696  0.0673  0.7612  0.0321
 2423SOL    HW113232  -0.012   1.157  11.635  0.4922 -0.5995 -1.7710
 2423SOL    HW213233  -0.058   1.043  11.722 -0.2113  1.7998  1.1654
 2424SOL     OW13234   2.034  10.501   7.442  0.5200 -0.4506  0.5173
 2424SOL    HW113235   1.956  10.491   7.388  0.2265 -0.5047  0.9479
 2424SOL    HW213236   2.060  10.411   7.463 -1.4335 -0.4757  3.4058
 2425SOL     OW13237   4.170   8.366   3.361  0.7431 -0.7322  0.3299
 2425SOL    HW113238   4.207   8.435   3.306  2.5033 -1.4144  0.6043
 2425SOL    HW213239   4.127   8.306   3.299 -0.3070  0.2649  0.0461
 2426SOL     OW13240  10.151   1.009   3.180 -0.1884 -0.0722 -0.0344
 2426SOL    HW113241  10.148   0.915   3.195  0.1083  0.0678  1.0538
 2426SOL    HW213242  10.147   1.047   3.268  0.7055  0.8995 -0.3812
 2427SOL     OW13243   0.937   1.151   4.217  0.2505 -0.4754  0.0178
 2427SOL    HW113244   0.936   1.201   4.299 -0.0776 -0.9398  0.3024
 2427SOL    HW213245   0.857   1.098   4.220  0.2121 -0.4646 -0.6245
 2428SOL     OW13246   5.231  10.804   0.841 -0.3959  0.0336  0.3968
 2428SOL    HW113247   5.211  10.819   0.934 -0.5233 -0.8766  0.5250
 2428SOL    HW213248   5.145  10.789   0.801 -0.3910  0.9344  0.0242
 2429SOL     OW13249   8.179   7.671   8.058  0.0634 -0.1942  0.4909
 2429SOL    HW113250   8.130   7.604   8.010 -1.1788  0.2796  1.0578
 2429SOL    HW213251   8.245   7.621   8.107 -0.9531 -1.0418  1.0467
 2430SOL     OW13252   1.788   9.319   2.226 -0.0646  0.7714  0.4191
 2430SOL    HW113253   1.855   9.387   2.226  0.4377  0.4357 -2.7450
 2430SOL    HW213254   1.746   9.326   2.141 -1.3911 -1.5727  0.7768
 2431SOL     OW13255  11.402   1.442   3.492 -0.4446 -0.1826 -0.3553
 2431SOL    HW113256  11.464   1.513   3.473  0.1610 -0.4350  0.6404
 2431SOL    HW213257  11.398   1.392   3.410  1.3372 -0.6638 -0.1758
 2432SOL     OW13258   8.594   3.847   4.334  0.0925 -0.2150 -0.4193
 2432SOL    HW113259   8.541   3.868   4.258  0.7065  0.6382 -0.6321
 2432SOL    HW213260   8.619   3.755   4.321 -2.9483 -1.2948  0.7106
 2433SOL     OW13261   9.194  10.930   3.838 -0.8643  0.0376  0.9100
 2433SOL    HW113262   9.251  10.862   3.804 -1.7773  0.7906 -2.4640
 2433SOL    HW213263   9.122  10.882   3.880 -0.9380 -1.0811 -0.4281
 2434SOL     OW13264  10.700  12.114  10.203  0.3259 -0.0939  0.7049
 2434SOL    HW113265  10.675  12.159  10.284 -1.9741  0.4487 -0.2334
 2434SOL    HW213266  10.734  12.182  10.146  0.1369 -0.1493  0.5259
 2435SOL     OW13267   0.369   3.589  12.332  0.5112  0.1311 -0.3805
 2435SOL    HW113268   0.372   3.513  12.274 -2.7882  1.1332 -2.1227
 2435SOL    HW213269   0.296   3.570  12.391 -1.2158  2.3515 -1.6519
 2436SOL     OW13270  10.287   3.328   3.823  0.1026  0.2381  0.1580
 2436SOL    HW113271  10.320   3.243   3.794 -1.1179 -0.1129 -0.2543
 2436SOL    HW213272  10.199   3.310   3.856 -0.1083  1.3181  0.2216
 2437SOL     OW13273   6.386  11.895   7.353 -0.7761  0.2845  0.4475
 2437SOL    HW113274   6.355  11.950   7.282 -2.0099  0.2928  0.9669
 2437SOL    HW213275   6.343  11.811   7.339  0.1641 -0.1973  0.3395
 2438SOL     OW13276   0.778   5.646   0.620  0.2955  0.9198  0.5490
 2438SOL    HW113277   0.855   5.663   0.565 -1.8102 -0.2689 -3.1220
 2438SOL    HW213278   0.786   5.554   0.643 -0.2866  0.6185 -0.3969
 2439SOL     OW13279   1.120   3.105   9.045  0.0449  0.2645  0.1047
 2439SOL    HW113280   1.160   3.186   9.074 -3.7951  1.7370  2.0642
 2439SOL    HW213281   1.041   3.133   8.998 -0.9207 -2.2988  0.0325
 2440SOL     OW13282  11.687   1.110   0.914 -0.3057 -0.0114  0.0154
 2440SOL    HW113283  11.630   1.180   0.945  1.5007  1.3898  0.3310
 2440SOL    HW213284  11.773   1.129   0.953  0.2753 -2.3974  0.0934
 2441SOL     OW13285   7.329   5.407   1.355  0.1077  0.7114  0.0670
 2441SOL    HW113286   7.395   5.440   1.417  0.9938  0.1979 -0.5788
 2441SOL    HW213287   7.343   5.312   1.354 -0.6962  0.5864 -0.0316
 2442SOL     OW13288  12.358   9.459   1.274  0.3127  0.1967  0.4123
 2442SOL    HW113289  12.349   9.538   1.220  0.2959  0.2325  0.4680
 2442SOL    HW213290  12.391   9.393   1.213  0.6776  0.3446  0.4501
 2443SOL     OW13291  11.979   6.030   8.271  0.0733 -0.2065 -0.0163
 2443SOL    HW113292  11.904   6.070   8.226 -0.8973  0.8706  2.3692
 2443SOL    HW213293  12.048   6.096   8.265 -0.1065  0.0031  0.2259
 2444SOL     OW13294  10.346   8.010   2.394 -0.2355  0.3764  0.3399
 2444SOL    HW113295  10.413   7.960   2.347 -1.4428 -1.1026  0.0877
 2444SOL    HW213296  10.337   7.964   2.478 -0.6113  0.8375  0.5567
 2445SOL     OW13297   4.825   9.576   4.581  0.3663 -0.3446 -0.7653
 2445SOL    HW113298   4.857   9.640   4.517  0.6018  1.0379  0.6768
 2445SOL    HW213299   4.903   9.534   4.615  0.6450  1.6501  1.3306
 2446SOL     OW13300  11.869  11.413  11.709  0.1176 -0.4393 -0.2462
 2446SOL    HW113301  11.832  11.378  11.791  0.7153  0.6537  0.5202
 2446SOL    HW213302  11.810  11.485  11.686 -1.0378 -1.7960 -1.7463
 2447SOL     OW13303   3.754   8.112   5.223  0.0623 -0.2700  0.2100
 2447SOL    HW113304   3.704   8.147   5.149  0.2647 -0.6591 -0.1136
 2447SOL    HW213305   3.842   8.147   5.211 -0.5289  1.9827  1.8176
 2448SOL     OW13306   8.450   0.834   7.236 -0.2808 -0.6426 -0.6206
 2448SOL    HW113307   8.482   0.813   7.149  1.1930  1.4966 -0.6641
 2448SOL    HW213308   8.476   0.925   7.250 -1.0462 -0.7271  1.8071
 2449SOL     OW13309   5.394   6.694   1.177  0.5280  0.1773 -0.6510
 2449SOL    HW113310   5.427   6.641   1.250 -1.8659  0.1085  0.4652
 2449SOL    HW213311   5.372   6.778   1.217 -0.4130  0.2934 -1.3799
 2450SOL     OW13312   6.697  10.117   0.472  0.0408  0.0617 -0.3104
 2450SOL    HW113313   6.641  10.106   0.395  2.4244  1.4220 -2.3714
 2450SOL    HW213314   6.679  10.205   0.504 -0.0296 -0.0353 -0.0745
 2451SOL     OW13315   2.270   8.769   3.376  0.3034  0.2402 -0.1145
 2451SOL    HW113316   2.193   8.815   3.341  0.8924 -1.0597 -3.4436
 2451SOL    HW213317   2.344   8.805   3.327  1.2514 -1.4558 -0.0030
 2452SOL     OW13318  10.547   1.846   6.209 -0.0166 -0.2405  0.3333
 2452SOL    HW113319  10.577   1.925   6.254 -0.7833 -0.8202  1.9497
 2452SOL    HW213320  10.454   1.862   6.191 -0.4561 -1.1394  1.6240
 2453SOL     OW13321  10.614   4.617   4.460 -0.0412  0.4870  0.6986
 2453SOL    HW113322  10.642   4.576   4.379  0.3545  0.6500  0.7474
 2453SOL    HW213323  10.614   4.711   4.441 -0.0827  0.5178  0.8431
 2454SOL     OW13324   9.959   7.297   5.416 -0.6657  0.2899  0.4674
 2454SOL    HW113325  10.004   7.216   5.436 -0.3836  0.3097 -0.0797
 2454SOL    HW213326  10.008   7.336   5.344 -2.8118 -0.8163 -1.7602
 2455SOL     OW13327  11.761   1.867   2.506  0.2861  0.9053  0.7069
 2455SOL    HW113328  11.841   1.910   2.536  2.2601 -2.5523  0.8314
 2455SOL    HW213329  11.696   1.888   2.573  0.5112  4.9317 -0.0854
 2456SOL     OW13330   6.602   3.836   4.665 -0.1108 -0.1329 -0.1234
 2456SOL    HW113331   6.669   3.815   4.730 -0.0935  1.0548  0.2605
 2456SOL    HW213332   6.521   3.845   4.715  0.3891  3.6637  0.2683
 2457SOL     OW13333  10.949   6.530   8.534 -0.1494  0.6310  0.4369
 2457SOL    HW113334  10.988   6.577   8.608  1.0461  0.2312  0.0943
 2457SOL    HW213335  11.006   6.552   8.459 -0.7062  0.1747 -0.1330
 2458SOL     OW13336   6.172  11.465   7.555 -0.0513 -0.6347  0.9872
 2458SOL    HW113337   6.135  11.419   7.631 -1.1978  0.6877  1.2723
 2458SOL    HW213338   6.136  11.553   7.560 -0.2029 -0.5124 -1.1249
 2459SOL     OW13339  10.140   7.728   6.385 -0.1269 -0.4630 -0.2097
 2459SOL    HW113340  10.121   7.792   6.316 -1.9270 -0.6789  0.0415
 2459SOL    HW213341  10.057   7.718   6.431  0.2787 -2.5305  0.1460
 2460SOL     OW13342   9.690   8.941   9.022  0.0377 -0.3023  0.1158
 2460SOL    HW113343   9.778   8.914   9.046 -0.2449 -0.6969  0.7090
 2460SOL    HW213344   9.662   8.877   8.956  0.0106 -0.4612  0.2818
 2461SOL     OW13345   7.780   8.674   4.669 -0.0915 -0.4184 -0.4815
 2461SOL    HW113346   7.688   8.685   4.645  0.1043 -0.7461 -1.4266
 2461SOL    HW213347   7.807   8.761   4.698 -0.0100  0.3513 -2.6968
 2462SOL     OW13348   3.271   3.041   6.817 -0.0086  0.2412  0.1525
 2462SOL    HW113349   3.224   3.101   6.758  0.1113  0.5205  0.3370
 2462SOL    HW213350   3.350   3.017   6.768  0.9069  1.7491  0.8150
 2463SOL     OW13351   4.771   8.765   4.298  0.1169 -0.0074 -0.1127
 2463SOL    HW113352   4.765   8.859   4.285 -0.3269 -0.2381 -1.7999
 2463SOL    HW213353   4.865   8.747   4.300  0.2117  0.5284  0.8580
 2464SOL     OW13354   6.014   7.685   6.625 -0.0933 -0.2407  0.2226
 2464SOL    HW113355   5.947   7.616   6.623  0.2517 -0.6860  2.0200
 2464SOL    HW213356   5.992   7.736   6.703  2.0523 -0.8332  1.2797
 2465SOL     OW13357   0.038   5.559  11.591  0.5932 -0.2562  0.1579
 2465SOL    HW113358   0.079   5.499  11.654  0.8073  0.4288  0.6774
 2465SOL    HW213359   0.095   5.557  11.515  0.7509 -0.4935  0.2805
 2466SOL     OW13360   6.246   3.677   0.936  0.5431  0.4472 -0.2566
 2466SOL    HW113361   6.274   3.727   0.859  1.8395 -0.6680 -0.5608
 2466SOL    HW213362   6.216   3.593   0.901 -2.2378  1.1646  0.1858
 2467SOL     OW13363   6.915   9.761   4.052 -0.1047  0.0197 -0.3589
 2467SOL    HW113364   7.007   9.758   4.079 -0.0975 -1.4260 -0.4688
 2467SOL    HW213365   6.918   9.788   3.961  0.3218 -1.1076 -0.7063
 2468SOL     OW13366   2.301   9.831   3.995 -0.3295 -0.1259 -0.8188
 2468SOL    HW113367   2.395   9.826   3.981 -0.4138 -1.1646 -1.0944
 2468SOL    HW213368   2.265   9.847   3.908 -0.6739 -4.0271 -1.5575
 2469SOL     OW13369   2.022   4.459   5.801  0.2018 -0.3296 -0.3850
 2469SOL    HW113370   2.007   4.540   5.752  2.5969 -0.0318 -0.7185
 2469SOL    HW213371   1.934   4.432   5.830 -0.7848  1.7113 -1.2944
 2470SOL     OW13372   8.470   7.331   4.981 -0.7031  0.3055 -0.2305
 2470SOL    HW113373   8.443   7.419   5.008 -0.4586  0.8946 -1.7789
 2470SOL    HW213374   8.424   7.316   4.898 -0.7474 -1.0407  0.0203
 2471SOL     OW13375  10.873   9.296   5.009 -0.3034 -0.3378  0.3122
 2471SOL    HW113376  10.939   9.233   5.037  0.2647 -0.5572 -1.4028
 2471SOL    HW213377  10.910   9.381   5.033  1.0114 -0.4065 -1.3172
 2472SOL     OW13378  12.467   2.411   0.684 -0.0487 -0.0940 -0.1378
 2472SOL    HW113379  12.425   2.352   0.621  1.8003 -1.4292 -0.2206
 2472SOL    HW213380  12.476   2.358   0.763  1.2096  0.2114 -0.0552
 2473SOL     OW13381   6.570   4.193   2.134  0.4981 -0.1110 -0.5728
 2473SOL    HW113382   6.651   4.244   2.126  0.5336 -0.1707 -0.5905
 2473SOL    HW213383   6.525   4.207   2.050 -0.6735  1.9266  0.3186
 2474SOL     OW13384   1.063  10.587   5.275 -0.6764  0.8939 -0.4719
 2474SOL    HW113385   1.144  10.612   5.321 -0.4477  0.2375 -0.5074
 2474SOL    HW213386   1.015  10.533   5.338  0.5982 -1.8011 -1.6363
 2475SOL     OW13387   4.382   3.890   3.489 -0.1140  0.0205 -0.3562
 2475SOL    HW113388   4.474   3.864   3.483 -0.2445 -0.4156 -0.5704
 2475SOL    HW213389   4.378   3.974   3.445 -0.0480 -0.5762 -1.5494
 2476SOL     OW13390   1.998  11.992   0.722  0.1945  0.6412  0.2356
 2476SOL    HW113391   1.908  12.024   0.728  0.1982  1.0450 -1.3660
 2476SOL    HW213392   1.990  11.898   0.706 -0.0038  0.8505 -1.0058
 2477SOL     OW13393   7.528   0.587   4.131  0.3836 -0.1048 -0.3563
 2477SOL    HW113394   7.436   0.571   4.110 -0.2059 -0.0122  1.8583
 2477SOL    HW213395   7.537   0.683   4.132  0.2839 -0.0939  0.1482
 2478SOL     OW13396   6.608   7.613  11.668 -0.1980  0.0901 -0.5739
 2478SOL    HW113397   6.592   7.529  11.712  0.4595  0.6087  0.7027
 2478SOL    HW213398   6.675   7.656  11.721  0.4704  0.8534 -1.9826
 2479SOL     OW13399   4.437  11.840   2.718  0.4194  0.1885  0.7879
 2479SOL    HW113400   4.462  11.784   2.645 -0.5804  0.7061  0.0296
 2479SOL    HW213401   4.465  11.928   2.693 -0.9675  0.5643  0.4818
 2480SOL     OW13402   7.274   7.506   8.542 -0.5418 -0.5771  0.1997
 2480SOL    HW113403   7.281   7.587   8.593  0.4028  0.8186 -1.9981
 2480SOL    HW213404   7.251   7.439   8.606  1.4315  0.8784  2.5824
 2481SOL     OW13405   0.231   8.642   5.656  0.1024  0.4673 -0.0440
 2481SOL    HW113406   0.152   8.639   5.711 -0.8729 -2.2771 -1.4201
 2481SOL    HW213407   0.296   8.592   5.706  0.1075  0.3704 -0.1489
 2482SOL     OW13408   1.286   7.062   7.073  0.3287  0.1969  0.2356
 2482SOL    HW113409   1.305   7.040   7.164  3.0222 -0.0911 -0.3271
 2482SOL    HW213410   1.305   6.981   7.024  2.2882  1.2965 -0.9368
 2483SOL     OW13411   8.876   8.793   2.996  0.0200  0.1853  0.2632
 2483SOL    HW113412   8.946   8.809   3.059  1.0276 -0.7639 -0.5779
 2483SOL    HW213413   8.912   8.728   2.936 -1.9086 -0.9856  0.3029
 2484SOL     OW13414   1.769   5.082  10.691  0.4664 -0.1109  0.9706
 2484SOL    HW113415   1.739   5.139  10.762 -0.1985  0.9650 -0.1252
 2484SOL    HW213416   1.803   5.143  10.625 -0.2530 -0.9610 -0.2344
 2485SOL     OW13417   3.816  11.049   0.113 -0.3567 -0.0911  0.0970
 2485SOL    HW113418   3.808  11.109   0.188  1.2778 -0.3984  0.5662
 2485SOL    HW213419   3.910  11.033   0.106 -0.5383 -0.5999 -1.6293
 2486SOL     OW13420   4.557   1.746  11.545  0.0244  0.6240 -0.5808
 2486SOL    HW113421   4.625   1.680  11.557  0.7535  1.6001  0.9813
 2486SOL    HW213422   4.563   1.772  11.453  1.3357  0.2346 -0.6166
 2487SOL     OW13423   0.722  11.420  10.359  0.9220 -0.3375  0.6935
 2487SOL    HW113424   0.647  11.370  10.326  0.8250 -0.7050  1.4486
 2487SOL    HW213425   0.717  11.411  10.454  1.1428  0.7831  0.8240
 2488SOL     OW13426   8.840  12.236   8.579  0.0324  0.1461 -0.2871
 2488SOL    HW113427   8.934  12.252   8.572  0.0424 -0.3537 -1.5941
 2488SOL    HW213428   8.821  12.241   8.672  1.4477 -0.2684  0.0383
 2489SOL     OW13429   1.670   3.288   9.286 -0.6591  0.4301 -0.5433
 2489SOL    HW113430   1.675   3.323   9.375 -0.4595  0.1052 -0.4247
 2489SOL    HW213431   1.655   3.365   9.231 -0.0975  0.7206 -0.2985
 2490SOL     OW13432   1.649   8.183   3.596 -0.2357 -0.2372 -0.2172
 2490SOL    HW113433   1.634   8.221   3.682  0.1577 -0.1058 -0.2048
 2490SOL    HW213434   1.614   8.247   3.534  0.8130  0.3699 -0.2166
 2491SOL     OW13435  11.469   0.144  12.196  0.1255 -0.1117 -0.0649
 2491SOL    HW113436  11.478   0.058  12.237 -1.1252  0.1098  0.7361
 2491SOL    HW213437  11.409   0.192  12.254 -0.5859  0.6929 -1.4241
 2492SOL     OW13438  11.337   8.262   1.434  0.1756 -0.0263  0.4924
 2492SOL    HW113439  11.278   8.197   1.396  0.8627 -0.2205 -0.2538
 2492SOL    HW213440  11.304   8.274   1.523 -3.0525  2.3106 -0.8145
 2493SOL     OW13441   2.019   5.910   6.463  0.0621  0.0205 -0.0439
 2493SOL    HW113442   2.057   5.974   6.402  0.0041 -0.9941 -1.1773
 2493SOL    HW213443   1.937   5.950   6.492  0.6824  1.0563  0.3522
 2494SOL     OW13444  10.756   1.191   0.290  0.0935 -0.1220  0.3469
 2494SOL    HW113445  10.811   1.151   0.222 -1.5446 -1.8967 -0.0238
 2494SOL    HW213446  10.745   1.123   0.356 -2.6317 -0.3377 -0.1975
 2495SOL     OW13447   5.148   7.726   8.298 -0.4698  0.3285  0.1587
 2495SOL    HW113448   5.227   7.736   8.246  0.8236  2.3565  2.3403
 2495SOL    HW213449   5.080   7.769   8.245  0.2443  0.2164 -0.8954
 2496SOL     OW13450  11.620   7.528   1.396  0.0043 -0.6500 -0.4143
 2496SOL    HW113451  11.637   7.550   1.304  1.0614  1.4433  0.2060
 2496SOL    HW213452  11.684   7.460   1.416 -0.1926 -1.0827 -1.2051
 2497SOL     OW13453   5.001   9.965   3.923  0.2408  0.1878  0.2457
 2497SOL    HW113454   5.042   9.939   3.841 -0.0388 -0.9141  0.4382
 2497SOL    HW213455   5.048   9.916   3.990 -0.7933 -0.4162  0.5496
 2498SOL     OW13456   2.355   6.081   0.133  0.0174 -0.0724 -0.0193
 2498SOL    HW113457   2.445   6.114   0.128  0.9321 -2.5559 -3.1537
 2498SOL    HW213458   2.354   6.028   0.213  2.0007 -1.4458 -0.8141
 2499SOL     OW13459  10.147   2.146   8.101  0.6677 -0.0710 -0.1797
 2499SOL    HW113460  10.184   2.066   8.137  1.8627 -0.3994 -1.9909
 2499SOL    HW213461  10.195   2.160   8.019 -0.9253  1.3781 -0.9416
 2500SOL     OW13462   7.509   4.297  10.293  0.4014  0.5875 -0.5347
 2500SOL    HW113463   7.575   4.229  10.301  1.7454  1.9622  0.6192
 2500SOL    HW213464   7.428   4.250  10.271  0.7233 -1.6624  2.4469
 2501SOL     OW13465   1.093   7.535   5.506 -0.3574 -0.1862 -0.4978
 2501SOL    HW113466   1.031   7.566   5.572  0.2029 -0.2783  0.0851
 2501SOL    HW213467   1.058   7.566   5.423 -1.4069 -0.6107 -0.2191
 2502SOL     OW13468   2.576   6.807   6.038  0.3075  0.7171 -0.2883
 2502SOL    HW113469   2.553   6.802   6.131  2.0857 -0.7065  0.1480
 2502SOL    HW213470   2.632   6.884   6.031  0.1572  0.8362 -0.1891
 2503SOL     OW13471  11.970   2.947   3.170  0.6366  0.0481 -0.2862
 2503SOL    HW113472  11.997   2.884   3.104  0.9255 -2.4682  2.0799
 2503SOL    HW213473  11.964   2.897   3.251 -1.7870  2.5195  1.2355
 2504SOL     OW13474   9.499   5.938  11.473 -0.3211 -0.1390  0.3189
 2504SOL    HW113475   9.562   5.912  11.540  1.3182  1.5305 -0.4615
 2504SOL    HW213476   9.414   5.936  11.517  0.5767 -0.1269  2.1286
 2505SOL     OW13477   1.366   6.878   1.620 -0.8198  0.1251 -0.2688
 2505SOL    HW113478   1.406   6.836   1.544 -1.2277 -0.3161 -0.2413
 2505SOL    HW213479   1.404   6.832   1.695  0.4996  1.3502 -0.1428
 2506SOL     OW13480   6.579   2.419   7.158  0.8253  0.6457 -0.5688
 2506SOL    HW113481   6.607   2.348   7.215 -2.8686  1.0495  2.0844
 2506SOL    HW213482   6.642   2.418   7.086  2.3670 -3.6959  0.5281
 2507SOL     OW13483   4.949   0.811   0.290  0.5365 -0.0751  0.3166
 2507SOL    HW113484   5.020   0.774   0.238  0.2509 -1.0210  0.5938
 2507SOL    HW213485   4.873   0.757   0.270 -0.4368  1.6157 -0.8796
 2508SOL     OW13486   9.539   4.627   4.167 -0.1622  1.0061  0.0339
 2508SOL    HW113487   9.494   4.623   4.082  0.6914 -1.5162 -0.3565
 2508SOL    HW213488   9.631   4.613   4.146  0.1248  0.8534  1.3403
 2509SOL     OW13489   2.995  11.562  12.345 -0.4626 -0.4755 -0.2867
 2509SOL    HW113490   3.075  11.532  12.301  0.8582  1.3978  0.6831
 2509SOL    HW213491   2.978  11.495  12.412  1.4684  0.0201  0.7758
 2510SOL     OW13492  11.865   8.688   3.464  0.5256  0.0869  0.2754
 2510SOL    HW113493  11.831   8.635   3.392 -0.7712  0.6643  0.4385
 2510SOL    HW213494  11.953   8.653   3.481  0.6561 -0.3765 -1.2495
 2511SOL     OW13495   9.943   2.594   0.085  0.1924  0.2603 -0.1548
 2511SOL    HW113496  10.020   2.615   0.032 -0.1748 -1.4447 -1.4620
 2511SOL    HW213497   9.976   2.536   0.154  0.1178 -0.3011 -0.5893
 2512SOL     OW13498   1.643   6.138   3.096  0.0372  0.6116  0.6353
 2512SOL    HW113499   1.612   6.200   3.162  0.2427  1.3846  0.0281
 2512SOL    HW213500   1.706   6.188   3.044 -0.9858  0.3945 -0.8817
 2513SOL     OW13501   4.033  11.017   5.458  0.1652  0.3526  0.7670
 2513SOL    HW113502   3.986  11.034   5.376 -0.3929 -1.6614  0.6091
 2513SOL    HW213503   4.088  10.941   5.439  0.9500  0.5973  1.9301
 2514SOL     OW13504   4.775  11.556  11.891  0.3036 -0.0416  0.0690
 2514SOL    HW113505   4.751  11.605  11.970 -0.1995  0.2167 -0.2434
 2514SOL    HW213506   4.781  11.622  11.822  2.0255 -0.0736  0.1411
 2515SOL     OW13507   7.130  10.479  10.166 -0.4051  0.3892  0.1242
 2515SOL    HW113508   7.131  10.564  10.211 -0.4735  0.2739  0.3480
 2515SOL    HW213509   7.176  10.420  10.226 -1.0586  0.0884  0.3393
 2516SOL     OW13510   3.343   0.475   2.247  0.0471 -0.1453  0.1128
 2516SOL    HW113511   3.389   0.405   2.293  3.7182  0.2967 -2.4117
 2516SOL    HW213512   3.363   0.554   2.298 -0.2510 -0.3066  0.4872
 2517SOL     OW13513   6.547   2.118   5.784 -0.1554 -0.0504  0.0280
 2517SOL    HW113514   6.630   2.123   5.831 -0.3232  0.4455  0.2821
 2517SOL    HW213515   6.492   2.185   5.826 -0.1909  0.6429 -1.1035
 2518SOL     OW13516   1.081   9.153   9.529 -0.3760  0.0320 -0.7342
 2518SOL    HW113517   1.060   9.209   9.604 -0.0484 -1.0027  0.1597
 2518SOL    HW213518   1.118   9.074   9.568  1.2084  0.0638 -2.0508
 2519SOL     OW13519  10.020   1.839   8.188 -0.1213  0.4917 -0.0146
 2519SOL    HW113520  10.060   1.775   8.129 -1.5602 -0.7685  0.3309
 2519SOL    HW213521  10.094   1.881   8.232  0.8655 -0.6839 -0.5121
 2520SOL     OW13522  10.674   8.609   6.207 -0.1725  0.7312  0.1827
 2520SOL    HW113523  10.687   8.584   6.299 -2.3072  0.6840  0.5016
 2520SOL    HW213524  10.648   8.528   6.163  0.3909  0.8496 -0.3868
 2521SOL     OW13525   8.752   9.630   9.490 -0.4838  0.9367  0.3895
 2521SOL    HW113526   8.824   9.668   9.539 -0.3284  0.4444  0.5485
 2521SOL    HW213527   8.760   9.536   9.504 -0.4999  0.7889 -0.4935
 2522SOL     OW13528   3.435   8.351  10.885  0.7563  0.2503 -0.0818
 2522SOL    HW113529   3.424   8.431  10.937 -0.6599 -0.3540  0.5761
 2522SOL    HW213530   3.379   8.363  10.809 -1.2834 -1.0143  1.1305
 2523SOL     OW13531   8.369   9.707   7.323  0.2525  0.1113 -0.4000
 2523SOL    HW113532   8.429   9.641   7.287 -0.8770 -1.0478 -0.2129
 2523SOL    HW213533   8.286   9.691   7.278  0.1655  2.0125 -1.0245
 2524SOL     OW13534  11.201  11.540   3.520 -0.4190 -0.1404  0.0252
 2524SOL    HW113535  11.253  11.511   3.595  0.8415 -0.4699 -0.9388
 2524SOL    HW213536  11.209  11.636   3.521 -0.2254 -0.1572  0.1900
 2525SOL     OW13537   7.526   6.054   8.895  0.7017  0.2702 -0.4625
 2525SOL    HW113538   7.511   6.136   8.943  2.4086  0.2070  0.2765
 2525SOL    HW213539   7.608   6.020   8.932 -2.0320 -4.1077  2.5707
 2526SOL     OW13540   6.913  11.855   4.472 -0.3754 -0.2938  0.0993
 2526SOL    HW113541   6.844  11.808   4.518 -0.6331 -0.3878 -0.3716
 2526SOL    HW213542   6.962  11.787   4.426  0.1433 -0.2447  0.5686
 2527SOL     OW13543   3.486  10.502   4.077 -0.2128 -0.4788  0.2094
 2527SOL    HW113544   3.435  10.542   4.148  0.3182 -0.8306  0.7998
 2527SOL    HW213545   3.502  10.573   4.016  0.3146  0.1126  1.0154
 2528SOL     OW13546   0.786  10.857  11.984  0.5474 -0.0103 -0.3084
 2528SOL    HW113547   0.801  10.881  12.076 -2.0587 -0.2689  0.2820
 2528SOL    HW213548   0.775  10.762  11.985  0.0568  0.0359 -0.8038
 2529SOL     OW13549   2.091  10.989  12.067  0.1744 -0.3046 -0.6035
 2529SOL    HW113550   2.075  10.942  11.985  0.3372 -1.0013 -0.2392
 2529SOL    HW213551   2.005  11.021  12.094  0.0249 -0.6023 -0.7306
 2530SOL     OW13552   1.734   2.970  11.247  0.4728 -0.0040 -0.0972
 2530SOL    HW113553   1.667   3.025  11.289  1.4496  0.0502  1.4872
 2530SOL    HW213554   1.781   3.030  11.189 -0.1295  0.2117 -0.3736
 2531SOL     OW13555   0.545   6.670   7.739 -0.3174 -0.4551  0.6852
 2531SOL    HW113556   0.465   6.676   7.686  0.0089 -1.1573  0.0938
 2531SOL    HW213557   0.543   6.749   7.794 -1.0789 -0.1293  0.2128
 2532SOL     OW13558  12.438  12.408   9.035 -0.0074 -0.0825 -0.1084
 2532SOL    HW113559  12.514  12.458   9.065 -0.5108  1.7554 -1.7293
 2532SOL    HW213560  12.434  12.333   9.094  1.9977  0.7134  1.1304
 2533SOL     OW13561   8.372   9.762   3.836 -0.2731  0.0586  0.2888
 2533SOL    HW113562   8.370   9.842   3.784  1.9870 -1.4184 -2.3373
 2533SOL    HW213563   8.431   9.782   3.908 -1.1083  1.2612  0.6684
 2534SOL     OW13564   9.970   6.105   7.206  0.3459  0.1222  0.2098
 2534SOL    HW113565  10.040   6.055   7.249  2.1316  0.5737 -1.9876
 2534SOL    HW213566   9.964   6.068   7.118  2.6358  4.3314 -2.0185
 2535SOL     OW13567  12.164   4.747   0.742 -0.2547 -0.1683 -0.4122
 2535SOL    HW113568  12.101   4.733   0.671 -0.4262 -0.5479 -0.1895
 2535SOL    HW213569  12.247   4.761   0.697 -0.3418 -0.5163 -0.6876
 2536SOL     OW13570   2.394   5.132   4.259  0.0614  0.8776 -0.3834
 2536SOL    HW113571   2.411   5.043   4.290  0.7431  0.9286 -0.5955
 2536SOL    HW213572   2.441   5.137   4.175  0.0232  1.4371 -0.3746
 2537SOL     OW13573  11.944   6.868   4.370 -0.2935  0.0990 -0.2651
 2537SOL    HW113574  12.035   6.855   4.343 -0.3483  0.3409 -0.5700
 2537SOL    HW213575  11.895   6.802   4.321 -0.0255 -1.5566  1.5642
 2538SOL     OW13576   8.207   4.019   7.937 -0.6984  0.0287  0.9398
 2538SOL    HW113577   8.226   4.111   7.919  0.9195 -0.0476  2.1237
 2538SOL    HW213578   8.291   3.975   7.931 -1.1183 -1.0457  2.3278
 2539SOL     OW13579   8.902   1.806   6.109  0.3496 -0.0798  0.1496
 2539SOL    HW113580   8.987   1.792   6.068  0.8651  2.0792  0.3581
 2539SOL    HW213581   8.847   1.734   6.077  1.5735 -0.1777 -1.8816
 2540SOL     OW13582   8.984   3.222   5.802 -0.1841 -0.3338 -0.6601
 2540SOL    HW113583   9.050   3.186   5.860 -0.6091 -3.9713 -2.1417
 2540SOL    HW213584   8.904   3.173   5.823 -1.1085  0.4425 -2.1621
 2541SOL     OW13585   2.406  10.376   5.029 -0.2911  0.6656  0.0053
 2541SOL    HW113586   2.392  10.396   5.122 -1.6505 -1.1133  0.2539
 2541SOL    HW213587   2.352  10.439   4.982 -1.7019 -0.0600  0.5865
 2542SOL     OW13588   1.153  11.325   3.230 -0.0565 -0.5787 -0.0840
 2542SOL    HW113589   1.209  11.399   3.257  0.3020 -0.5159 -0.9825
 2542SOL    HW213590   1.192  11.249   3.275  0.5684 -0.4836 -0.4568
 2543SOL     OW13591   2.975   4.217   7.505 -0.2811  0.4223  1.0062
 2543SOL    HW113592   3.001   4.235   7.415 -0.0844 -2.2253  0.4420
 2543SOL    HW213593   2.881   4.236   7.507 -1.6144 -4.2243 -1.4210
 2544SOL     OW13594   8.385  10.544   2.363  0.0721 -0.0525 -0.9851
 2544SOL    HW113595   8.350  10.618   2.315  1.2993 -0.2455 -2.2576
 2544SOL    HW213596   8.311  10.483   2.372 -0.2924  0.1657 -2.3084
 2545SOL     OW13597   9.739   7.504   6.647 -0.5836 -0.7222  0.0139
 2545SOL    HW113598   9.809   7.485   6.708 -0.7524 -1.7795 -0.1108
 2545SOL    HW213599   9.715   7.595   6.666 -0.9064 -1.1446  1.7946
 2546SOL     OW13600   3.721   2.741  10.960  0.0308  0.0444  0.0942
 2546SOL    HW113601   3.700   2.677  11.029 -1.1862  1.2264  0.8527
 2546SOL    HW213602   3.640   2.749  10.909  1.1239 -1.4193 -2.0692
 2547SOL     OW13603   8.081   5.357  11.343 -0.0281 -0.2198  0.3671
 2547SOL    HW113604   8.074   5.374  11.249  0.3503  0.5824  0.4841
 2547SOL    HW213605   8.095   5.262  11.348 -1.2414 -0.4617 -0.3205
 2548SOL     OW13606   0.034   8.212   1.099 -0.8597  0.1211  0.4889
 2548SOL    HW113607   0.046   8.123   1.132 -1.5602 -0.7444 -1.4773
 2548SOL    HW213608   0.100   8.221   1.031 -2.7591 -0.0524 -1.4705
 2549SOL     OW13609   4.676  11.835  10.318 -0.2381 -0.3441  0.6423
 2549SOL    HW113610   4.769  11.842  10.299  0.2565 -1.6781  2.3457
 2549SOL    HW213611   4.663  11.887  10.398 -0.7227 -1.0258  1.0204
 2550SOL     OW13612  10.495   1.849   8.293  0.0108  0.3313 -0.0356
 2550SOL    HW113613  10.589   1.834   8.282  0.2064  1.9637 -0.9009
 2550SOL    HW213614  10.463   1.771   8.340  1.9228  0.1462  1.0364
 2551SOL     OW13615  10.822   6.005   0.330  0.3133  0.0657 -0.3020
 2551SOL    HW113616  10.748   6.054   0.296 -0.9726  0.7037  2.9786
 2551SOL    HW213617  10.887   6.071   0.354  0.1818 -0.1033  0.5834
 2552SOL     OW13618   6.582   7.709   8.611 -0.0799  0.1151  0.2671
 2552SOL    HW113619   6.613   7.717   8.520 -1.4274 -0.1943 -0.2363
 2552SOL    HW213620   6.560   7.798   8.637 -0.1315  0.1411  0.1348
 2553SOL     OW13621   4.387   3.214   4.826  0.1206 -0.1769  0.4866
 2553SOL    HW113622   4.391   3.306   4.801 -0.0551  0.2898  2.0433
 2553SOL    HW213623   4.448   3.170   4.767 -1.4509  0.5348 -1.8210
 2554SOL     OW13624   8.875   4.854   0.125  0.5770  0.1367  0.5216
 2554SOL    HW113625   8.954   4.808   0.096  0.1515  0.9932 -2.2374
 2554SOL    HW213626   8.811   4.784   0.137  1.0355 -0.3312  0.3105
 2555SOL     OW13627  11.636   4.296  11.850  0.6272  0.0820 -0.1516
 2555SOL    HW113628  11.595   4.255  11.773  0.0119 -1.6987  1.0379
 2555SOL    HW213629  11.710   4.345  11.815 -0.9853  1.2796 -2.1209
 2556SOL     OW13630   6.713   2.557   9.755 -0.0627 -0.1769 -0.2336
 2556SOL    HW113631   6.686   2.555   9.664 -0.3638 -0.0254 -0.1478
 2556SOL    HW213632   6.674   2.637   9.790  0.5412  0.0774 -0.1234
 2557SOL     OW13633   8.508   8.468   8.946  0.6922 -0.5227 -0.2179
 2557SOL    HW113634   8.450   8.518   8.889  1.2470  1.7782  1.1250
 2557SOL    HW213635   8.596   8.486   8.913  0.8487 -1.6747 -0.4797
 2558SOL     OW13636   9.415   5.312  12.102  0.2478 -0.1307 -0.3584
 2558SOL    HW113637   9.379   5.359  12.027 -0.5766  1.1611  0.8069
 2558SOL    HW213638   9.454   5.233  12.064  0.8664  1.0253 -2.2664
 2559SOL     OW13639   6.048   7.645   0.477 -0.1111 -0.1182 -0.0576
 2559SOL    HW113640   6.045   7.678   0.567  1.9156 -3.4928  1.4329
 2559SOL    HW213641   5.956   7.638   0.451 -0.8138 -0.1259  2.2227
 2560SOL     OW13642   1.061   6.842   6.540  0.7860 -0.4797 -0.3776
 2560SOL    HW113643   1.088   6.839   6.448  0.0594  0.1478 -0.6212
 2560SOL    HW213644   1.139   6.813   6.589  1.8691  1.1598 -1.0540
 2561SOL     OW13645  10.000   7.380   0.216 -0.0160  0.2328  0.1465
 2561SOL    HW113646   9.952   7.383   0.299 -1.6827  0.0185 -0.7596
 2561SOL    HW213647   9.953   7.315   0.164  0.3779  1.0809 -1.3255
 2562SOL     OW13648   1.622   4.995   3.344  0.7742  0.0040  0.0004
 2562SOL    HW113649   1.685   5.019   3.412  0.6969  2.3303 -0.6463
 2562SOL    HW213650   1.651   5.044   3.267  0.2534 -1.7374 -1.3749
 2563SOL     OW13651  11.498   6.627   4.290  0.3199 -0.1377 -0.4423
 2563SOL    HW113652  11.546   6.592   4.366  1.7912  0.9167 -0.8410
 2563SOL    HW213653  11.454   6.550   4.253  0.7999 -0.9485  0.5989
 2564SOL     OW13654   0.079   6.789   5.228  0.1633 -0.3943  0.0282
 2564SOL    HW113655   0.082   6.850   5.303 -0.9773  0.2295 -0.4164
 2564SOL    HW213656   0.094   6.703   5.267  0.9091  0.0671  0.7934
 2565SOL     OW13657   9.893  11.106   5.714 -0.4937  0.0687 -0.5707
 2565SOL    HW113658   9.901  11.087   5.808 -1.3707  0.2108 -0.4649
 2565SOL    HW213659   9.962  11.052   5.673 -1.1045 -1.1809  0.0050
 2566SOL     OW13660   2.877   7.729   6.047 -0.1363  0.2966 -0.7751
 2566SOL    HW113661   2.947   7.667   6.070  0.3510  1.0597 -0.1524
 2566SOL    HW213662   2.796   7.683   6.069  0.1675 -0.4715 -1.1907
 2567SOL     OW13663   7.233  10.865   1.254  0.6300  0.8286  0.2395
 2567SOL    HW113664   7.219  10.773   1.276 -2.3037  1.2799  0.6673
 2567SOL    HW213665   7.253  10.906   1.338 -0.9676  0.9991  0.5682
 2568SOL     OW13666   5.891   5.568   4.881  0.3438  0.2371 -0.1824
 2568SOL    HW113667   5.925   5.484   4.850  1.4487  0.5837  0.0334
 2568SOL    HW213668   5.857   5.611   4.803 -1.2778 -0.8551 -0.1305
 2569SOL     OW13669   1.497  10.695   9.465 -0.2304  0.6135 -0.0456
 2569SOL    HW113670   1.441  10.719   9.391  0.8211  0.1582 -1.0169
 2569SOL    HW213671   1.437  10.660   9.530 -1.0740  0.1212 -1.0703
 2570SOL     OW13672   5.466   9.570   3.501  0.0955 -0.1337 -0.1118
 2570SOL    HW113673   5.529   9.596   3.434  2.2823 -0.3086  1.7833
 2570SOL    HW213674   5.479   9.632   3.572 -2.8086  0.6197 -0.1013
 2571SOL     OW13675   6.664   4.391  10.401  0.4486  0.1349  0.2356
 2571SOL    HW113676   6.717   4.389  10.322  0.3017  6.4017 -0.5048
 2571SOL    HW213677   6.703   4.460  10.455 -2.9370  0.3102  2.8569
 2572SOL     OW13678   6.945   5.441   1.226 -0.0695 -0.1278 -0.4209
 2572SOL    HW113679   7.022   5.407   1.180 -0.4335 -0.1435 -1.0275
 2572SOL    HW213680   6.885   5.366   1.230 -0.1427 -0.0552 -0.1427
 2573SOL     OW13681  10.429   9.190   2.356  0.3902 -0.2007 -0.4628
 2573SOL    HW113682  10.422   9.165   2.264  1.4350 -1.2012 -0.2952
 2573SOL    HW213683  10.405   9.111   2.404 -2.4743  0.9484  0.2045
 2574SOL     OW13684  12.227   1.957   7.121  0.1992  0.1329  0.0715
 2574SOL    HW113685  12.141   1.956   7.164  0.1532  1.9750  0.1365
 2574SOL    HW213686  12.289   1.939   7.191 -0.0260  0.8679  0.4755
 2575SOL     OW13687   2.447   6.615   0.184  0.3384  0.3019 -0.2822
 2575SOL    HW113688   2.421   6.583   0.271 -1.3122  0.0809 -0.8167
 2575SOL    HW213689   2.446   6.537   0.129  1.3713  0.4460 -0.5085
 2576SOL     OW13690   8.541   8.844   2.059 -0.0824  0.3616  0.4295
 2576SOL    HW113691   8.482   8.834   2.133 -1.3226  1.8249 -0.2939
 2576SOL    HW213692   8.625   8.869   2.098  0.5903 -3.2235  1.5794
 2577SOL     OW13693   3.468   6.983   2.263 -0.2713  0.4018 -0.3393
 2577SOL    HW113694   3.376   6.997   2.245 -0.3399  4.2961  1.8009
 2577SOL    HW213695   3.514   7.038   2.200  0.2844  1.6562  1.0978
 2578SOL     OW13696   5.756   2.040   0.812 -0.1133 -0.9435 -0.3102
 2578SOL    HW113697   5.792   2.112   0.864 -2.1249 -0.0327 -0.0403
 2578SOL    HW213698   5.752   1.966   0.872  2.7611 -1.6041 -0.8240
 2579SOL     OW13699  10.786   2.022   1.846 -0.6795  0.2873  0.3442
 2579SOL    HW113700  10.699   2.034   1.808 -0.6918 -0.3087  0.1736
 2579SOL    HW213701  10.792   1.928   1.864  0.4302  0.0934 -0.8749
 2580SOL     OW13702   9.886   4.572   9.265  0.5303 -0.0077  0.2085
 2580SOL    HW113703   9.833   4.614   9.333 -0.8619  1.5950 -1.7577
 2580SOL    HW213704   9.851   4.483   9.259  0.2144  0.0463  1.0992
 2581SOL     OW13705   6.835   0.043   7.418  0.1062  0.4978 -0.1454
 2581SOL    HW113706   6.781  -0.035   7.433  0.0688  0.6530  0.5357
 2581SOL    HW213707   6.773   0.116   7.421  0.3493  0.6790  0.6571
 2582SOL     OW13708  10.389   9.844  11.631 -0.0881 -0.1070  0.0745
 2582SOL    HW113709  10.424   9.792  11.559  0.5442 -0.4318  0.6041
 2582SOL    HW213710  10.316   9.792  11.665  0.0529 -0.2793  0.1117
 2583SOL     OW13711   2.977   1.055   1.680 -0.2093  0.3790  0.0947
 2583SOL    HW113712   2.903   1.000   1.652 -0.2724 -0.4996  1.8533
 2583SOL    HW213713   2.972   1.132   1.623 -2.3659  0.2516  0.0224
 2584SOL     OW13714   2.175   8.924   0.543 -0.1369 -0.4447  0.2569
 2584SOL    HW113715   2.180   9.002   0.487  1.1308 -0.5894  0.1289
 2584SOL    HW213716   2.136   8.857   0.487 -3.7186  0.6909  1.1333
 2585SOL     OW13717   4.321   4.652  11.142  0.7288  0.1013  0.6718
 2585SOL    HW113718   4.244   4.682  11.094 -0.9264 -2.2820  1.6286
 2585SOL    HW213719   4.286   4.592  11.208  3.3140 -0.0782  2.0125
 2586SOL     OW13720   5.552   1.363   9.828 -0.5780 -0.5621 -0.4751
 2586SOL    HW113721   5.550   1.372   9.923  1.1811  2.7629 -0.5857
 2586SOL    HW213722   5.464   1.387   9.799 -0.6633  0.0286  0.2492
 2587SOL     OW13723   0.098   2.362  10.094  0.0595  0.4469  0.0855
 2587SOL    HW113724   0.112   2.410  10.012 -3.7225  2.9379  0.6449
 2587SOL    HW213725   0.137   2.418  10.162  0.2194  0.0886  0.2918
 2588SOL     OW13726   5.005  11.089   8.096 -0.1892  0.0185 -0.5252
 2588SOL    HW113727   4.965  11.063   8.179  0.9610  1.7352  0.6116
 2588SOL    HW213728   5.003  11.184   8.096  1.9485  0.1108 -1.4022
 2589SOL     OW13729  10.304   9.510   2.112 -0.7463 -0.1912  0.0827
 2589SOL    HW113730  10.395   9.482   2.119 -1.0765 -0.8887  3.3235
 2589SOL    HW213731  10.255   9.447   2.165 -2.9735  0.7921 -0.6661
 2590SOL     OW13732   7.877   1.309  10.935 -0.1151  0.3573  0.1369
 2590SOL    HW113733   7.807   1.245  10.944 -0.3893  0.8450  1.7932
 2590SOL    HW213734   7.937   1.270  10.871 -0.3675 -1.4708  0.9514
 2591SOL     OW13735   8.550   0.431   8.043  0.1546  0.5453 -0.1335
 2591SOL    HW113736   8.631   0.451   8.090  0.0642  2.0396 -0.5844
 2591SOL    HW213737   8.546   0.335   8.044  0.6586  0.4918  1.9991
 2592SOL     OW13738   4.942   3.475   1.366 -0.8703  0.1007 -0.4714
 2592SOL    HW113739   4.885   3.426   1.308  0.5275 -2.8237  0.4039
 2592SOL    HW213740   4.883   3.530   1.419 -2.4395  0.0747 -2.1226
 2593SOL     OW13741   4.207   8.564   1.034 -0.0996 -0.2588  0.2323
 2593SOL    HW113742   4.148   8.497   1.067 -0.1750  0.6893  2.1363
 2593SOL    HW213743   4.245   8.604   1.112  1.1254  0.8814 -0.8827
 2594SOL     OW13744   3.641   0.851   2.180 -0.5532 -0.3820  0.1608
 2594SOL    HW113745   3.730   0.886   2.183 -0.6813 -0.0800  0.4724
 2594SOL    HW213746   3.635   0.794   2.256 -0.3290 -1.1382 -0.3715
 2595SOL     OW13747   7.182   2.608   5.070  0.5801  0.1353 -0.2001
 2595SOL    HW113748   7.130   2.640   4.997  0.2489  0.9701  0.3883
 2595SOL    HW213749   7.123   2.549   5.118  0.0421  1.3477  0.6612
 2596SOL     OW13750   9.950   8.847   9.076  0.0367 -0.1595  0.3115
 2596SOL    HW113751   9.985   8.801   9.000  3.4349 -0.1716  1.7406
 2596SOL    HW213752  10.007   8.923   9.088 -1.4882  0.8326  1.8532
 2597SOL     OW13753   8.749  11.076   6.941 -0.2363  0.5900  0.3325
 2597SOL    HW113754   8.691  11.016   6.989 -0.4363  0.3710 -0.1656
 2597SOL    HW213755   8.827  11.024   6.923 -0.0067  0.7917  0.7481
 2598SOL     OW13756  10.802   6.904  12.278  0.2671 -0.5576 -0.4930
 2598SOL    HW113757  10.878   6.847  12.269  1.2408  0.0235  2.8537
 2598SOL    HW213758  10.820   6.957  12.355 -2.7597  0.9038 -0.6332
 2599SOL     OW13759  11.710   9.939   2.413  0.1705  0.2841  0.3024
 2599SOL    HW113760  11.745  10.021   2.377  0.4476 -0.1343 -0.3963
 2599SOL    HW213761  11.787   9.888   2.435  0.0281 -0.5130 -0.9412
 2600SOL     OW13762  10.663  10.930   2.480 -0.4060 -0.0908  0.1469
 2600SOL    HW113763  10.740  10.895   2.524 -1.4096 -0.6955  1.4870
 2600SOL    HW213764  10.697  10.969   2.399  1.4159  0.5075  1.1433
 2601SOL     OW13765   2.526   3.757   0.163 -0.0525 -0.0611  0.1554
 2601SOL    HW113766   2.506   3.664   0.169 -0.2933 -0.1048 -1.1054
 2601SOL    HW213767   2.618   3.761   0.136  0.2427  0.0930  1.1308
 2602SOL     OW13768   9.717   3.118   1.197  0.4148  0.0709  0.1546
 2602SOL    HW113769   9.726   3.112   1.292 -0.2418 -1.0575  0.1699
 2602SOL    HW213770   9.627   3.147   1.184 -0.3898 -2.3485 -0.1208
 2603SOL     OW13771   8.750   6.914   5.540  0.6003  0.0555  0.2452
 2603SOL    HW113772   8.678   6.962   5.581  1.1303  1.2307 -0.1454
 2603SOL    HW213773   8.772   6.845   5.603 -0.9882 -0.4560  0.2731
 2604SOL     OW13774   1.864   3.702   7.234 -0.2523  0.2493  0.0140
 2604SOL    HW113775   1.778   3.706   7.192  0.3753 -0.2162 -1.3826
 2604SOL    HW213776   1.923   3.745   7.172  0.6657 -0.2217  0.5410
 2605SOL     OW13777   9.556   9.492   6.282 -0.2732 -0.3966  0.4625
 2605SOL    HW113778   9.480   9.434   6.295  0.1235 -1.3945 -1.3097
 2605SOL    HW213779   9.627   9.449   6.330 -0.1900 -0.9174 -0.1222
 2606SOL     OW13780  10.850   0.705   6.253 -0.0067 -0.0307  1.0946
 2606SOL    HW113781  10.770   0.702   6.306 -1.5567  0.0801 -1.0986
 2606SOL    HW213782  10.870   0.798   6.246 -2.7666  0.5541 -2.4336
 2607SOL     OW13783   7.011   3.996   5.265  0.3731  0.3096 -0.3770
 2607SOL    HW113784   6.944   4.013   5.198 -1.1780  1.7124  1.3930
 2607SOL    HW213785   7.063   3.924   5.230 -2.4934 -1.3449 -1.5796
 2608SOL     OW13786   9.773  10.688   4.688  0.2389 -0.2592 -0.3942
 2608SOL    HW113787   9.835  10.735   4.632  1.6520 -0.5548  0.8501
 2608SOL    HW213788   9.823  10.614   4.722 -1.3401 -1.5366 -0.7104
 2609SOL     OW13789  11.303   7.221   0.030  0.1611  0.4041 -0.0415
 2609SOL    HW113790  11.281   7.141  -0.017  0.7336  1.3702 -2.0839
 2609SOL    HW213791  11.294   7.198   0.122 -1.5825 -1.4503 -0.5895
 2610SOL     OW13792   3.894   4.732   4.395 -0.2252 -0.6486 -0.1549
 2610SOL    HW113793   3.938   4.648   4.396  0.3074 -0.4706 -2.5565
 2610SOL    HW213794   3.832   4.728   4.468  1.3781 -2.1905  1.1962
 2611SOL     OW13795   3.947   4.786   6.819  0.7952  0.0924 -0.2057
 2611SOL    HW113796   3.996   4.719   6.867  0.4462  0.4931  0.7222
 2611SOL    HW213797   3.868   4.740   6.790  0.6836  0.0247  0.1970
 2612SOL     OW13798   7.276   3.519   7.217 -0.4744  0.4201  0.2279
 2612SOL    HW113799   7.266   3.424   7.207  2.0934  0.0951 -0.0680
 2612SOL    HW213800   7.247   3.555   7.133 -0.2061 -0.2582 -0.1695
 2613SOL     OW13801   0.898   8.835   3.710 -0.0859 -0.9363  0.1070
 2613SOL    HW113802   0.946   8.865   3.632  0.7438  0.2429  1.0411
 2613SOL    HW213803   0.839   8.767   3.676  0.1630 -0.3765 -1.5753
 2614SOL     OW13804   3.632   6.745  10.300  0.0378  0.1323 -0.1822
 2614SOL    HW113805   3.615   6.651  10.309  1.1535 -0.0878 -0.3047
 2614SOL    HW213806   3.614   6.764  10.208 -0.6145  0.1411 -0.0604
 2615SOL     OW13807   7.953   1.870  10.340  0.2254 -0.1742  0.0861
 2615SOL    HW113808   7.871   1.896  10.382  0.5419  1.0989 -0.0231
 2615SOL    HW213809   7.996   1.812  10.403 -0.0531  0.4063  0.8218
 2616SOL     OW13810  10.371   6.875   6.530  0.3392  0.5346 -0.0416
 2616SOL    HW113811  10.395   6.812   6.463 -1.5623 -0.5904  0.2705
 2616SOL    HW213812  10.295   6.920   6.495  0.3620  1.1346  0.6542
 2617SOL     OW13813   4.743   9.997   1.940 -0.0658  0.1071 -0.8813
 2617SOL    HW113814   4.788   9.927   1.893 -1.3555 -1.4155  0.0240
 2617SOL    HW213815   4.690  10.040   1.874  1.7331  1.1692 -1.7231
 2618SOL     OW13816   1.576   1.766   5.508 -0.2134  0.4015 -0.1876
 2618SOL    HW113817   1.553   1.802   5.593 -1.2203  0.6446 -0.5475
 2618SOL    HW213818   1.514   1.694   5.495  0.1576  0.1427 -0.5615
 2619SOL     OW13819  11.535   9.834   8.745  0.1668 -0.2963 -0.1835
 2619SOL    HW113820  11.510   9.863   8.832  0.0610 -0.9794  0.0157
 2619SOL    HW213821  11.531   9.738   8.749 -1.1883 -0.3260 -1.3219
 2620SOL     OW13822   9.901   9.500   6.863  0.2114  0.3422  0.5158
 2620SOL    HW113823   9.835   9.550   6.816  1.6810  0.9481 -0.9884
 2620SOL    HW213824   9.898   9.534   6.952 -0.4243  1.4361  0.0937
 2621SOL     OW13825  11.015   3.656   0.599 -0.6204 -0.0482 -0.4666
 2621SOL    HW113826  11.058   3.603   0.531  0.2472  0.7161 -0.5472
 2621SOL    HW213827  10.957   3.714   0.550  0.0027  0.5003 -0.5836
 2622SOL     OW13828   2.073   3.236   9.635 -0.1912  0.2276 -0.7177
 2622SOL    HW113829   2.086   3.330   9.624 -1.7849  0.5163 -0.3796
 2622SOL    HW213830   2.025   3.209   9.557 -1.3815  0.0821  0.0358
 2623SOL     OW13831   7.634   4.029   2.719 -0.4148 -0.1069 -0.3119
 2623SOL    HW113832   7.638   4.006   2.812 -1.4827 -0.6546 -0.3860
 2623SOL    HW213833   7.549   4.073   2.709  0.5429  1.7746 -0.6465
 2624SOL     OW13834  12.386   1.613   6.468 -0.0908 -0.2208 -0.3268
 2624SOL    HW113835  12.403   1.632   6.561  1.4157  3.0012 -1.1234
 2624SOL    HW213836  12.292   1.596   6.464 -0.4069  0.7257  1.6618
 2625SOL     OW13837   2.908   9.313   5.747  0.0975  0.3664 -0.4783
 2625SOL    HW113838   2.985   9.366   5.769 -2.2013  3.4054  1.0986
 2625SOL    HW213839   2.894   9.328   5.653  1.5283 -0.4557 -0.8465
 2626SOL     OW13840   7.932   1.097   1.626  0.2430 -0.5338 -0.3482
 2626SOL    HW113841   7.844   1.127   1.651  0.7059  2.0431 -1.4301
 2626SOL    HW213842   7.972   1.069   1.708 -0.5006  1.3952  0.7550
 2627SOL     OW13843   7.192   5.690   0.837  0.4762  0.3464 -0.0730
 2627SOL    HW113844   7.126   5.629   0.870 -0.5934  0.5689 -1.6883
 2627SOL    HW213845   7.276   5.647   0.856 -0.2380 -1.4676 -0.8093
 2628SOL     OW13846   1.551   9.828  11.242 -0.2335 -0.2942 -0.2413
 2628SOL    HW113847   1.538   9.790  11.329 -0.5497  2.0462  0.8176
 2628SOL    HW213848   1.643   9.854  11.241 -0.2785 -0.1405 -0.5317
 2629SOL     OW13849   5.126   8.325   0.447  0.0322 -0.7188  0.0063
 2629SOL    HW113850   5.209   8.323   0.495 -0.0050 -0.5053  0.0832
 2629SOL    HW213851   5.132   8.253   0.385  1.1715  0.5508 -1.4571
 2630SOL     OW13852   9.036   0.577   7.206  0.5678 -0.2714  0.3414
 2630SOL    HW113853   8.969   0.537   7.262  0.9575  1.3659  2.0863
 2630SOL    HW213854   9.053   0.512   7.138 -1.8352 -1.2653  0.6008
 2631SOL     OW13855   9.803   6.574   2.517  0.6563  0.3016  0.1455
 2631SOL    HW113856   9.863   6.503   2.540  1.0262  0.7266  0.4962
 2631SOL    HW213857   9.860   6.647   2.493  0.2813  0.7824  0.7094
 2632SOL     OW13858   5.294   3.104   2.639 -0.2016  0.0419  0.2686
 2632SOL    HW113859   5.336   3.173   2.588  0.0542  0.1655  0.6471
 2632SOL    HW213860   5.333   3.110   2.726 -1.0688  0.2239  0.6562
 2633SOL     OW13861   1.335   3.460   6.048  0.2691 -0.1858  0.1285
 2633SOL    HW113862   1.362   3.373   6.020  1.6462  0.1493  0.3459
 2633SOL    HW213863   1.312   3.451   6.140  3.1758  0.1738  0.9940
 2634SOL     OW13864   3.844  11.498   2.650 -0.2232  0.2869 -0.4168
 2634SOL    HW113865   3.875  11.562   2.713  1.0910  0.7131 -1.4431
 2634SOL    HW213866   3.877  11.530   2.565 -0.1036 -1.3844 -1.0378
 2635SOL     OW13867   5.664   0.070   4.705  0.5902  0.2891  0.5015
 2635SOL    HW113868   5.686  -0.006   4.758 -1.5020  0.6111  1.9339
 2635SOL    HW213869   5.585   0.044   4.656 -0.7161  1.7846  1.7193
 2636SOL     OW13870   9.403   8.133   1.332 -0.2353 -0.3178  0.1797
 2636SOL    HW113871   9.431   8.224   1.327 -0.1240 -0.2628  1.4779
 2636SOL    HW213872   9.481   8.085   1.362 -0.2698 -0.8602 -0.5587
 2637SOL     OW13873  12.274   9.482   5.076  0.3094  0.4219 -0.6055
 2637SOL    HW113874  12.261   9.479   5.171  0.7835 -0.7217 -0.5679
 2637SOL    HW213875  12.192   9.450   5.039 -0.3660  2.0959 -0.6413
 2638SOL     OW13876   7.267   6.321   7.894 -0.1138  0.1154 -0.3928
 2638SOL    HW113877   7.294   6.373   7.969 -0.7655  0.4840 -0.4043
 2638SOL    HW213878   7.347   6.308   7.843  0.1723  0.5661 -0.0597
 2639SOL     OW13879   8.959  10.948   7.995  0.2617 -0.2746 -0.7302
 2639SOL    HW113880   8.983  10.946   7.903 -0.3289  0.1812 -0.9006
 2639SOL    HW213881   8.864  10.936   7.995  0.1256  0.7484 -0.2433
 2640SOL     OW13882   0.417   8.009   6.483  0.4784  0.5225 -0.0437
 2640SOL    HW113883   0.449   8.014   6.393  0.5601 -2.7061 -0.3017
 2640SOL    HW213884   0.331   8.051   6.480 -0.5370 -1.4691 -2.2471
 2641SOL     OW13885   6.771  12.034   0.209 -0.5755 -0.2080  0.3042
 2641SOL    HW113886   6.760  11.952   0.161  1.7573  0.0822 -0.8506
 2641SOL    HW213887   6.689  12.082   0.193 -2.6257 -2.7661  2.1741
 2642SOL     OW13888   6.191   2.124   6.816  0.1248  0.3285  0.2142
 2642SOL    HW113889   6.115   2.072   6.788 -0.2894  1.0241  0.0098
 2642SOL    HW213890   6.216   2.173   6.738  1.0456 -0.1907  0.1720
 2643SOL     OW13891  10.160   5.580   7.246 -0.3334 -0.1168 -0.1835
 2643SOL    HW113892  10.119   5.645   7.188  0.6173  0.2935 -0.4136
 2643SOL    HW213893  10.251   5.576   7.218 -0.2729 -1.2528  0.1127
 2644SOL     OW13894  11.073  10.418   7.474  0.0850  0.1643  0.1746
 2644SOL    HW113895  11.075  10.488   7.408 -1.7277 -0.3173 -0.4511
 2644SOL    HW213896  11.156  10.427   7.521  0.2870  2.1560 -0.4754
 2645SOL     OW13897   2.025   3.623   9.594  0.2882 -0.1392 -0.2945
 2645SOL    HW113898   1.941   3.617   9.638  0.0020  0.8938 -0.6813
 2645SOL    HW213899   2.004   3.616   9.500  0.7812 -1.2847 -0.3328
 2646SOL     OW13900   9.044  12.463   3.853  0.0375  0.2101  0.1529
 2646SOL    HW113901   9.093  12.528   3.904 -1.6443  0.9958  0.8275
 2646SOL    HW213902   9.004  12.406   3.919  0.8560 -1.0678 -0.4168
 2647SOL     OW13903  12.405   0.943   7.916 -0.0611  0.7956 -0.1142
 2647SOL    HW113904  12.418   0.905   7.829 -0.2941  0.6953 -0.1058
 2647SOL    HW213905  12.442   0.880   7.977 -0.4736  0.5654 -0.0977
 2648SOL     OW13906   9.390   0.765   5.926  0.5591  0.3599  0.3887
 2648SOL    HW113907   9.414   0.785   5.836  1.2927 -2.2534 -0.0854
 2648SOL    HW213908   9.474   0.761   5.973  0.5016 -1.3317  0.4305
 2649SOL     OW13909   0.844  10.560   9.439  0.2092  1.0036  0.4363
 2649SOL    HW113910   0.912  10.611   9.482 -0.4846  0.4058  2.3260
 2649SOL    HW213911   0.853  10.472   9.476 -0.3912  0.4491 -0.6954
 2650SOL     OW13912   6.643   7.975  12.058  0.4701 -0.0834 -1.0331
 2650SOL    HW113913   6.686   8.055  12.090 -0.8817  0.1880  0.2111
 2650SOL    HW213914   6.568   8.007  12.008  0.8491 -0.5728 -1.9351
 2651SOL     OW13915  11.199   2.605  10.943 -0.2239  0.3726  0.1174
 2651SOL    HW113916  11.293   2.606  10.962 -0.4765  0.5554  1.5005
 2651SOL    HW213917  11.167   2.523  10.982 -0.5287 -0.0499 -0.9883
 2652SOL     OW13918   4.493   5.000   2.168 -0.9815 -0.2476  0.4211
 2652SOL    HW113919   4.501   5.095   2.161  0.2202 -0.3247  0.5081
 2652SOL    HW213920   4.478   4.985   2.262 -0.3139 -0.1877  0.5413
 2653SOL     OW13921   6.334   9.131   6.718 -0.2864 -0.0785 -0.2497
 2653SOL    HW113922   6.389   9.082   6.780 -1.3293 -0.8170  0.1086
 2653SOL    HW213923   6.280   9.064   6.676  0.7882  0.3166 -2.4181
 2654SOL     OW13924   4.229  11.389  10.185 -0.6200  0.4997 -0.5342
 2654SOL    HW113925   4.307  11.444  10.175 -0.5426  0.3969 -0.5061
 2654SOL    HW213926   4.157  11.451  10.196 -0.3976  0.5912  0.5085
 2655SOL     OW13927  10.171   5.443  12.152 -0.0433 -0.5663  0.6230
 2655SOL    HW113928  10.217   5.397  12.222 -1.7649 -0.3063  1.9817
 2655SOL    HW213929  10.133   5.373  12.098  1.6557 -0.7747 -0.3590
 2656SOL     OW13930   0.487   1.047   1.006  0.3991  0.1050 -0.1301
 2656SOL    HW113931   0.561   1.009   1.051  0.8015 -1.1629 -1.7632
 2656SOL    HW213932   0.413   0.992   1.030  0.8956 -1.5664 -2.1194
 2657SOL     OW13933   4.917   3.950   6.502  0.3507  0.2587  0.0024
 2657SOL    HW113934   4.949   3.976   6.588 -0.6454  0.0557  0.4484
 2657SOL    HW213935   4.822   3.948   6.511  0.2111  0.5192 -1.1866
 2658SOL     OW13936   5.692  11.416   6.363 -0.4005  0.7347  0.0513
 2658SOL    HW113937   5.728  11.328   6.364  0.0927  0.8099  4.0970
 2658SOL    HW213938   5.598  11.404   6.351 -0.2564 -0.2663 -0.1524
 2659SOL     OW13939   5.640   4.279   0.214 -0.6008  0.4410  0.2666
 2659SOL    HW113940   5.634   4.202   0.157  1.9429 -0.1819  0.7042
 2659SOL    HW213941   5.732   4.281   0.242 -1.2886  1.8662  2.7679
 2660SOL     OW13942   3.267   8.369   4.245 -0.3866 -0.0835 -0.2728
 2660SOL    HW113943   3.173   8.384   4.261 -0.2505  2.3417 -1.3312
 2660SOL    HW213944   3.272   8.350   4.152  0.1924 -0.0123 -0.2560
 2661SOL     OW13945   5.814   4.244   3.313  0.0812  0.8996 -0.0597
 2661SOL    HW113946   5.727   4.276   3.336  0.0456  1.0674 -0.4136
 2661SOL    HW213947   5.834   4.178   3.379 -1.6137 -1.4023 -1.6775
 2662SOL     OW13948   5.816   5.294   0.926 -0.0111 -0.9095 -0.4508
 2662SOL    HW113949   5.780   5.382   0.937  1.1262 -0.6116  1.3559
 2662SOL    HW213950   5.819   5.281   0.831 -0.8075  0.7370 -0.7362
 2663SOL     OW13951   9.159   3.944   1.770 -0.4126 -0.0189  0.2118
 2663SOL    HW113952   9.230   3.929   1.708 -0.5815 -3.1490  0.5868
 2663SOL    HW213953   9.125   3.856   1.789 -1.4206  0.9336  3.4910
 2664SOL     OW13954   6.516   6.537   4.393  0.7313 -0.4996 -0.2646
 2664SOL    HW113955   6.604   6.571   4.379  0.6382  0.2933  0.9271
 2664SOL    HW213956   6.497   6.555   4.485  0.7204 -4.0163  0.5561
 2665SOL     OW13957   2.270   5.306  12.102 -0.2065  0.0602 -0.2329
 2665SOL    HW113958   2.214   5.287  12.177  0.6460  1.0942  0.6899
 2665SOL    HW213959   2.321   5.227  12.089 -1.4533 -0.6979 -0.7378
 2666SOL     OW13960   8.130   6.777   9.637  0.2191 -0.5158 -0.7053
 2666SOL    HW113961   8.038   6.803   9.628  0.4693  0.4607 -0.5968
 2666SOL    HW213962   8.139   6.699   9.581 -0.5619 -0.3346 -1.0931
 2667SOL     OW13963   7.979   4.571  10.733 -0.8440 -0.1223 -0.2315
 2667SOL    HW113964   7.972   4.476  10.725  0.6836 -0.2752  0.0479
 2667SOL    HW213965   7.975   4.603  10.642  0.1814 -0.5858 -0.4562
 2668SOL     OW13966   6.388  11.638  12.238 -0.3407  0.3728 -0.6301
 2668SOL    HW113967   6.446  11.678  12.173 -0.6160  1.5161 -0.1995
 2668SOL    HW213968   6.303  11.680  12.223 -0.1005  1.6984  1.3350
 2669SOL     OW13969  11.947   9.199   0.082 -0.4280 -0.1077  0.0047
 2669SOL    HW113970  11.925   9.171  -0.007  0.5140 -1.4494  0.1648
 2669SOL    HW213971  12.041   9.217   0.078 -0.4866  0.3490  0.6046
 2670SOL     OW13972   3.477   8.466   2.115  0.4487  0.1743  0.1603
 2670SOL    HW113973   3.568   8.440   2.123  1.1428  2.4074  0.0823
 2670SOL    HW213974   3.453   8.499   2.202  0.7270  2.4473 -0.5464
 2671SOL     OW13975   3.565   1.680   4.066 -0.2317  0.0212 -1.0586
 2671SOL    HW113976   3.608   1.641   4.142 -0.4296  1.2200 -0.2971
 2671SOL    HW213977   3.626   1.749   4.037 -0.3914 -0.0925 -1.6840
 2672SOL     OW13978   7.464   7.936   3.895  0.3134  0.4376  0.3751
 2672SOL    HW113979   7.464   7.861   3.954  0.6915  1.6067  1.9099
 2672SOL    HW213980   7.549   7.931   3.850  0.5225  0.1767  0.7915
 2673SOL     OW13981   5.387   6.965   1.355  0.0323 -0.3154 -0.6661
 2673SOL    HW113982   5.377   6.942   1.447 -0.5953 -1.4994 -1.0117
 2673SOL    HW213983   5.473   7.007   1.350  0.3477 -0.8092  0.3474
 2674SOL     OW13984   3.146   6.307  10.646  0.2521  0.3284 -0.0942
 2674SOL    HW113985   3.100   6.306  10.562 -0.5533 -0.8001  0.3433
 2674SOL    HW213986   3.174   6.398  10.656 -1.9538  1.0967 -0.3557
 2675SOL     OW13987   6.443   6.043   1.834  0.2115  0.3409  0.1238
 2675SOL    HW113988   6.418   6.062   1.743 -1.1289  0.0002  0.4037
 2675SOL    HW213989   6.538   6.050   1.834  0.2188  0.5720 -1.2607
 2676SOL     OW13990   9.314   1.188   1.780 -0.9782 -0.0603 -0.1509
 2676SOL    HW113991   9.374   1.255   1.811 -0.6210 -0.5430  0.2098
 2676SOL    HW213992   9.246   1.237   1.734 -1.1772  0.6186  0.8318
 2677SOL     OW13993   4.595   3.247   9.969 -0.8901  0.2739 -0.0409
 2677SOL    HW113994   4.538   3.204  10.032  1.5195  2.4007  4.0281
 2677SOL    HW213995   4.554   3.333   9.955 -1.8158 -0.4540 -2.1765
 2678SOL     OW13996  12.093   4.691  12.098 -0.1304 -0.0525 -0.6151
 2678SOL    HW113997  12.005   4.722  12.078  1.1444  3.3496 -1.8656
 2678SOL    HW213998  12.096   4.685  12.194 -1.5879  0.2173 -0.5388
 2679SOL     OW13999  10.819   5.829   1.644  0.2296 -0.1145  0.4235
 2679SOL    HW114000  10.735   5.868   1.618  0.8192 -0.2041 -1.7850
 2679SOL    HW214001  10.796   5.741   1.673 -0.4736 -0.0716  0.0303
 2680SOL     OW14002  10.580   8.686   7.387 -0.3831 -0.0843 -0.1833
 2680SOL    HW114003  10.560   8.601   7.348 -1.1021 -0.3044  0.6360
 2680SOL    HW214004  10.632   8.731   7.321  0.0029 -1.1604 -0.6272
 2681SOL     OW14005   4.140   8.852   1.440  0.1201 -0.4301 -0.1754
 2681SOL    HW114006   4.172   8.782   1.383 -3.3175 -0.9894 -1.7121
 2681SOL    HW214007   4.170   8.933   1.399 -1.8553 -0.8363 -2.6994
 2682SOL     OW14008   0.098   7.830   5.250  0.6516 -0.3199  0.1115
 2682SOL    HW114009   0.156   7.764   5.289  1.1908 -0.3200 -0.6562
 2682SOL    HW214010   0.122   7.830   5.157 -1.7623 -1.5427 -0.5768
 2683SOL     OW14011   8.627   6.750   7.153 -0.4150 -0.1512 -0.2757
 2683SOL    HW114012   8.672   6.818   7.103 -2.1246  1.7899  0.6791
 2683SOL    HW214013   8.645   6.771   7.245 -1.0102 -0.9420  0.0378
 2684SOL     OW14014   6.749   3.896   9.984 -0.1482 -0.0147  0.1564
 2684SOL    HW114015   6.703   3.956   9.925 -0.1060 -0.0470  0.0914
 2684SOL    HW214016   6.679   3.843  10.023 -0.0813 -0.8009 -0.7483
 2685SOL     OW14017  12.269   7.690   5.682 -0.7322 -0.1792  0.0820
 2685SOL    HW114018  12.342   7.687   5.620 -0.5622  1.6610  0.1181
 2685SOL    HW214019  12.199   7.733   5.633 -1.1185 -0.1283  0.6806
 2686SOL     OW14020  10.643   4.972   9.125 -0.2809 -0.1177 -0.5910
 2686SOL    HW114021  10.684   5.031   9.062 -0.1470  1.3130  0.7979
 2686SOL    HW214022  10.716   4.921   9.161 -0.0651  0.6083  0.0020
 2687SOL     OW14023   8.758   0.348   6.898  0.1013 -0.1099 -0.2428
 2687SOL    HW114024   8.693   0.367   6.830  0.4575  0.8155 -0.3366
 2687SOL    HW214025   8.834   0.317   6.849 -0.1681 -0.9342 -0.1509
 2688SOL     OW14026   9.578   8.175  10.382 -0.0677 -0.2514  0.1701
 2688SOL    HW114027   9.618   8.229  10.450  0.0799  0.2829 -0.3284
 2688SOL    HW214028   9.550   8.238  10.315 -0.0704 -0.7771 -0.3329
 2689SOL     OW14029   5.274  10.732   4.895  0.2495 -0.5280 -0.2130
 2689SOL    HW114030   5.233  10.805   4.942  1.1154  0.7874 -1.4069
 2689SOL    HW214031   5.366  10.737   4.921  0.6464 -0.0670 -1.6569
 2690SOL     OW14032   4.990   3.505   4.942  0.0523 -0.4870  0.0126
 2690SOL    HW114033   4.964   3.500   5.034 -1.2345  0.9660 -0.2276
 2690SOL    HW214034   5.085   3.500   4.944  0.0233 -0.9070  1.3902
 2691SOL     OW14035  12.394   3.753   6.890  0.6932  0.4467  0.0053
 2691SOL    HW114036  12.384   3.689   6.960 -2.1188 -3.0694 -3.1891
 2691SOL    HW214037  12.317   3.810   6.898  0.6288  0.3505  0.0742
 2692SOL     OW14038  11.272   5.776  10.498 -0.1120 -0.3088  0.3808
 2692SOL    HW114039  11.263   5.870  10.509  1.5341 -0.2282  1.4109
 2692SOL    HW214040  11.317   5.765  10.414  1.4004 -0.0325  1.1160
 2693SOL     OW14041   0.052   1.303   8.440 -0.0896  0.1014 -0.1129
 2693SOL    HW114042   0.029   1.260   8.357  0.1629 -1.1878  0.4493
 2693SOL    HW214043   0.067   1.230   8.500  0.9235  1.0018  0.7521
 2694SOL     OW14044   4.747   1.810   2.669 -0.7250  0.0333 -0.3203
 2694SOL    HW114045   4.697   1.816   2.750 -1.9121 -1.4526 -0.8786
 2694SOL    HW214046   4.709   1.734   2.624  1.0740 -0.2380 -1.4609
 2695SOL     OW14047   0.932   4.476   3.661 -0.1646  0.2507 -0.0668
 2695SOL    HW114048   1.018   4.515   3.647  0.7451 -2.0672 -1.3873
 2695SOL    HW214049   0.870   4.543   3.631  1.3285  0.5122 -2.7856
 2696SOL     OW14050   8.864   0.680   1.253  0.8638 -0.2218 -0.2728
 2696SOL    HW114051   8.836   0.713   1.339  0.4546  1.4904 -1.0271
 2696SOL    HW214052   8.783   0.648   1.213  0.7951  0.3040 -0.5662
 2697SOL     OW14053   9.604  10.893   6.166  0.1359 -0.1467  0.2228
 2697SOL    HW114054   9.660  10.827   6.207  0.2890  0.8310  1.6682
 2697SOL    HW214055   9.614  10.971   6.221  0.4107  1.2903 -1.7484
 2698SOL     OW14056   2.562   0.355   0.008 -0.1244  0.7872  0.0663
 2698SOL    HW114057   2.490   0.328  -0.050  0.1893 -1.6822  0.6954
 2698SOL    HW214058   2.525   0.348   0.096  0.7903 -0.3747  0.3894
 2699SOL     OW14059   6.580   1.988   4.012 -0.0011  0.0363  0.1497
 2699SOL    HW114060   6.503   2.020   4.060 -1.9486 -0.1382 -2.6337
 2699SOL    HW214061   6.609   2.064   3.962  0.9663 -0.2100  0.3297
 2700SOL     OW14062   9.908  11.908  10.651 -0.6336 -0.1218 -0.0202
 2700SOL    HW114063   9.979  11.845  10.663  1.5605  2.3104  0.7857
 2700SOL    HW214064   9.933  11.959  10.575 -0.0206  2.4830  1.7769
 2701SOL     OW14065   7.263  10.717   8.158  0.2071  0.4003 -0.3300
 2701SOL    HW114066   7.226  10.680   8.078  0.2996 -0.9167  0.2065
 2701SOL    HW214067   7.357  10.723   8.141  0.3975 -1.0525  0.0958
 2702SOL     OW14068   0.633   0.143   4.170 -0.5145  0.2872 -0.2143
 2702SOL    HW114069   0.728   0.137   4.180 -0.3998 -0.7903 -1.6128
 2702SOL    HW214070   0.598   0.093   4.245 -0.0466  1.7915  1.0533
 2703SOL     OW14071   1.018   9.952   6.563  0.3329  0.4249  0.5333
 2703SOL    HW114072   1.020  10.046   6.543 -2.4582  0.7791  1.4987
 2703SOL    HW214073   0.929   9.936   6.593  0.7574 -2.5530  0.4830
 2704SOL     OW14074   1.506   4.084   7.876  0.0459  0.2676  0.2428
 2704SOL    HW114075   1.449   4.009   7.896  0.4804 -0.1802 -0.1831
 2704SOL    HW214076   1.595   4.049   7.879  0.2872  0.8774  0.5175
 2705SOL     OW14077   7.574   5.354   2.690  0.1232 -0.1538 -0.5036
 2705SOL    HW114078   7.614   5.315   2.769 -2.0570 -2.4265 -0.3873
 2705SOL    HW214079   7.519   5.424   2.724  1.2095  0.6426 -0.3205
 2706SOL     OW14080   5.934   9.433   3.019  0.4235  0.0709 -0.1638
 2706SOL    HW114081   5.956   9.499   3.085  0.5149  0.8701 -0.9770
 2706SOL    HW214082   5.944   9.478   2.936 -0.0491 -0.8226 -0.7204
 2707SOL     OW14083   6.193   0.313   6.229  0.4466 -0.6032 -0.4253
 2707SOL    HW114084   6.105   0.290   6.200  0.5647  0.2006 -1.5125
 2707SOL    HW214085   6.184   0.333   6.322 -1.2801  2.8073 -1.1262
 2708SOL     OW14086   1.841   7.059   4.551 -0.2189 -0.4065 -0.3483
 2708SOL    HW114087   1.935   7.069   4.537 -0.6551  0.1802 -3.6751
 2708SOL    HW214088   1.829   6.966   4.568  0.8940 -0.6964 -1.0265
 2709SOL     OW14089   1.255   8.660   4.040  0.4242  0.2102 -0.6509
 2709SOL    HW114090   1.328   8.653   3.979  0.5635  2.6142 -0.8396
 2709SOL    HW214091   1.176   8.656   3.985  0.5284  1.2498 -0.9040
 2710SOL     OW14092   4.665   4.582   6.436 -0.9996 -0.0126  0.3045
 2710SOL    HW114093   4.680   4.487   6.433 -0.3557  0.0842  0.3128
 2710SOL    HW214094   4.599   4.597   6.368  0.5182 -0.1881 -1.2906
 2711SOL     OW14095  11.605   5.003   8.249  0.1171 -0.0923  0.5690
 2711SOL    HW114096  11.637   4.977   8.336  1.3925 -0.9241 -0.1134
 2711SOL    HW214097  11.510   4.995   8.255 -0.0778  2.1725  2.6046
 2712SOL     OW14098   5.648   4.037  11.278  0.0130  0.3656  0.1558
 2712SOL    HW114099   5.734   4.077  11.260 -0.1846  0.7203 -0.0056
 2712SOL    HW214100   5.620   4.001  11.194 -0.0705  0.3887  0.1740
 2713SOL     OW14101   2.806   6.184   3.533 -0.3194 -0.2399  0.0624
 2713SOL    HW114102   2.840   6.247   3.598 -0.1766 -2.0925  1.8766
 2713SOL    HW214103   2.801   6.235   3.452 -1.5684  2.5249  1.7157
 2714SOL     OW14104   0.524   7.922   2.793  0.1531 -0.2183 -0.0978
 2714SOL    HW114105   0.447   7.879   2.756  0.0135  0.2414 -0.3555
 2714SOL    HW214106   0.538   7.998   2.736  1.3571 -0.8071 -0.6285
 2715SOL     OW14107  10.310   3.321   7.184  0.0610  0.2021 -0.2624
 2715SOL    HW114108  10.297   3.233   7.219 -0.4740  0.1614 -0.5475
 2715SOL    HW214109  10.392   3.315   7.135  0.4098  0.0602  0.3300
 2716SOL     OW14110   7.576  10.256   2.783  0.1176 -0.3801 -0.0653
 2716SOL    HW114111   7.666  10.240   2.757 -0.3721 -1.1912 -1.3201
 2716SOL    HW214112   7.583  10.288   2.873  1.8008  1.7283 -0.8562
 2717SOL     OW14113   0.998  10.891   0.606 -0.5171 -0.1839 -0.3866
 2717SOL    HW114114   1.013  10.972   0.559  0.9083  0.1427  0.5765
 2717SOL    HW214115   0.943  10.915   0.680  0.2277 -0.0171  0.1159
 2718SOL     OW14116   8.136  11.792   6.937  0.2082 -0.0457  0.1632
 2718SOL    HW114117   8.141  11.724   6.869  0.3961 -0.3371  0.4680
 2718SOL    HW214118   8.224  11.828   6.942  0.2375 -0.1472  0.3795
 2719SOL     OW14119   2.306   1.623   2.671  0.0032 -0.0298 -0.4022
 2719SOL    HW114120   2.222   1.583   2.650  0.2957 -1.2505  0.6611
 2719SOL    HW214121   2.283   1.700   2.724 -0.5062  0.6617 -1.5836
 2720SOL     OW14122  10.692   9.637   9.179  0.6355  0.0937  0.1296
 2720SOL    HW114123  10.778   9.602   9.154  0.1222 -1.4128  0.3878
 2720SOL    HW214124  10.697   9.730   9.156  2.1174 -0.0892 -0.4255
 2721SOL     OW14125   2.025   6.431   4.631 -0.4401  0.0193 -0.0362
 2721SOL    HW114126   2.112   6.398   4.611 -0.1359  0.4100  0.6509
 2721SOL    HW214127   1.994   6.468   4.548  0.8705  1.7386  0.1856
 2722SOL     OW14128  11.721   4.488   9.591 -0.3857 -0.1149 -0.3295
 2722SOL    HW114129  11.687   4.515   9.676 -0.7465  0.2354 -0.5816
 2722SOL    HW214130  11.683   4.550   9.529 -0.6146 -0.7369 -0.8229
 2723SOL     OW14131   5.962   4.366   0.780 -0.1221  0.4274 -0.4530
 2723SOL    HW114132   6.047   4.401   0.756  0.0667  0.1098 -0.2576
 2723SOL    HW214133   5.965   4.273   0.755 -0.1913  0.2724  0.0898
 2724SOL     OW14134   7.631   2.800  10.205 -0.6391  0.1402  0.5968
 2724SOL    HW114135   7.549   2.824  10.162 -1.1013  0.5947  1.6999
 2724SOL    HW214136   7.632   2.705  10.204 -1.5761  0.1113  1.2842
 2725SOL     OW14137   4.356   7.060   1.511  0.0396  0.1799 -0.0686
 2725SOL    HW114138   4.391   7.143   1.543 -0.2068  0.2627 -0.0073
 2725SOL    HW214139   4.270   7.052   1.553 -0.5830  0.6196 -1.1881
 2726SOL     OW14140   2.581   9.028   2.755 -0.1857 -0.0684 -0.4922
 2726SOL    HW114141   2.597   8.936   2.775 -0.0486  0.3587  1.5438
 2726SOL    HW214142   2.655   9.075   2.794 -1.0577  1.0368 -0.1025
 2727SOL     OW14143   5.841   4.720   2.366 -0.3962 -0.1229 -0.0795
 2727SOL    HW114144   5.857   4.641   2.418 -0.7832 -0.0774  0.1164
 2727SOL    HW214145   5.926   4.763   2.361 -0.2496 -0.3874  0.0917
 2728SOL     OW14146   7.771   5.231  11.668  0.4785 -0.6354 -0.2812
 2728SOL    HW114147   7.812   5.161  11.617  1.9255  2.1029 -3.1841
 2728SOL    HW214148   7.720   5.281  11.604 -0.6035  0.9267  1.6832
 2729SOL     OW14149   7.258  11.698   5.533  0.1654  0.0317  0.1360
 2729SOL    HW114150   7.302  11.776   5.568  0.4780 -0.9671  2.1322
 2729SOL    HW214151   7.173  11.697   5.577 -0.8418  0.4977 -1.6944
 2730SOL     OW14152   4.103   9.348   4.096  0.3084  0.3955  0.0181
 2730SOL    HW114153   4.146   9.432   4.077 -0.7567  0.5896 -1.7213
 2730SOL    HW214154   4.014   9.372   4.119  0.6644 -0.1182  2.0989
 2731SOL     OW14155   8.381   6.156   2.760  0.0469 -0.1100  0.0605
 2731SOL    HW114156   8.341   6.075   2.726 -0.7101 -0.1808  1.0783
 2731SOL    HW214157   8.399   6.208   2.682 -0.7576 -0.6759 -0.5247
 2732SOL     OW14158   8.792   4.616   3.395  0.0758 -0.1332 -0.2165
 2732SOL    HW114159   8.747   4.695   3.366  1.0813  0.6592  0.3157
 2732SOL    HW214160   8.785   4.618   3.490  0.9118 -0.1790 -0.1469
 2733SOL     OW14161  11.485  10.069  10.534  0.1058 -0.0829 -0.8876
 2733SOL    HW114162  11.541   9.992  10.519 -0.0427 -0.2222 -0.7291
 2733SOL    HW214163  11.545  10.136  10.567  0.0978 -0.3822 -0.2541
 2734SOL     OW14164   1.046   6.537   9.527 -0.1383  0.0477 -0.0679
 2734SOL    HW114165   1.098   6.503   9.600 -2.0291 -4.2667 -0.3720
 2734SOL    HW214166   0.963   6.563   9.566 -0.0363  0.7286 -0.3036
 2735SOL     OW14167   5.097   6.571   3.389  0.6114 -0.1494  0.3279
 2735SOL    HW114168   5.166   6.580   3.455  1.8571  0.2350 -0.9817
 2735SOL    HW214169   5.129   6.620   3.313 -0.3828 -1.3061 -0.8847
 2736SOL     OW14170   3.528   6.013   9.320 -0.5054  0.0397  0.2327
 2736SOL    HW114171   3.435   6.006   9.342 -0.2042  2.2281  2.7856
 2736SOL    HW214172   3.541   6.106   9.303  1.4148 -0.0111  1.1853
 2737SOL     OW14173   9.402   9.927   3.454 -0.2482  0.1387 -0.3812
 2737SOL    HW114174   9.351   9.846   3.453 -0.4828  0.2679  0.4606
 2737SOL    HW214175   9.339   9.994   3.479 -0.0766  0.6028 -1.1605
 2738SOL     OW14176   2.403   6.583   5.609  0.8226 -0.7831 -0.0687
 2738SOL    HW114177   2.455   6.636   5.549  0.7417  0.1642  0.6818
 2738SOL    HW214178   2.466   6.547   5.671  0.7500 -0.6995  0.0547
 2739SOL     OW14179   2.988  10.398  11.852  0.0826  0.0771 -0.2392
 2739SOL    HW114180   3.047  10.474  11.852 -0.5477  0.5720 -0.0354
 2739SOL    HW214181   2.943  10.403  11.767 -1.4953  1.1501  0.6279
 2740SOL     OW14182   0.643   0.419   5.957  0.3199  0.0912  0.0055
 2740SOL    HW114183   0.570   0.441   5.898  0.5792 -2.0800 -1.2612
 2740SOL    HW214184   0.695   0.356   5.907  0.5445 -1.9345  2.5712
 2741SOL     OW14185   8.460   7.645   2.965 -0.0077  0.1841 -0.6637
 2741SOL    HW114186   8.492   7.714   3.023  0.3180 -0.1292 -0.4704
 2741SOL    HW214187   8.365   7.655   2.966  0.0116  0.3228 -0.2584
 2742SOL     OW14188   2.388   7.790   2.802  0.5067 -0.6621  0.3252
 2742SOL    HW114189   2.340   7.873   2.793  0.8003 -0.4840  0.3982
 2742SOL    HW214190   2.355   7.736   2.730  0.1228 -0.5757  0.4332
 2743SOL     OW14191   1.425   1.294  12.342  0.0192  0.2430  0.0084
 2743SOL    HW114192   1.480   1.237  12.397  0.7563  0.7657 -0.1738
 2743SOL    HW214193   1.439   1.261  12.253 -0.5976 -0.1317  0.0455
 2744SOL     OW14194   4.814   6.826   8.585 -0.4714 -0.4235 -0.4589
 2744SOL    HW114195   4.739   6.793   8.536 -2.3616  2.6186  0.1345
 2744SOL    HW214196   4.827   6.915   8.552  0.5929  0.3700  1.8936
 2745SOL     OW14197   4.965   4.413   0.198  0.3336 -0.1551  0.0434
 2745SOL    HW114198   4.989   4.335   0.148  0.4640  0.5879 -1.0835
 2745SOL    HW214199   4.943   4.478   0.132 -2.3291  0.0014  0.9613
 2746SOL     OW14200  12.142  12.349   9.975  0.4451  0.9268  0.0577
 2746SOL    HW114201  12.154  12.326   9.883 -0.5130 -0.7771  0.3243
 2746SOL    HW214202  12.111  12.440   9.972  0.1339  0.8076 -1.3168
 2747SOL     OW14203   0.544   8.960   1.594 -0.3449  0.1222  0.1067
 2747SOL    HW114204   0.537   8.958   1.499  0.1435 -1.5275  0.0773
 2747SOL    HW214205   0.632   8.993   1.611 -0.9831  1.9621  0.0561
 2748SOL     OW14206   3.450   8.474   0.535 -0.3295 -0.1725  0.5905
 2748SOL    HW114207   3.418   8.512   0.453  0.6989 -0.5688 -0.0179
 2748SOL    HW214208   3.411   8.387   0.538 -0.0627 -0.3088  0.3026
 2749SOL     OW14209   8.678   5.437   7.612  0.2226 -0.2757 -0.0056
 2749SOL    HW114210   8.601   5.397   7.572  0.4916  0.0383 -0.8440
 2749SOL    HW214211   8.646   5.473   7.695 -0.5250 -0.1861 -0.3306
 2750SOL     OW14212   4.264   4.904   3.690  0.2235 -0.0495 -0.2885
 2750SOL    HW114213   4.181   4.950   3.696  0.0003 -0.4539 -0.2470
 2750SOL    HW214214   4.314   4.933   3.766  0.0408  0.0335 -0.2005
 2751SOL     OW14215  11.817   1.187   0.365 -0.2694 -0.0485  0.2269
 2751SOL    HW114216  11.768   1.185   0.446  0.0870 -0.3595  0.4402
 2751SOL    HW214217  11.901   1.145   0.386 -0.4679 -0.8532 -0.4873
 2752SOL     OW14218   5.190  10.591  10.024 -0.1924  0.2156 -0.4900
 2752SOL    HW114219   5.133  10.666  10.004 -0.1304  0.1664 -0.8640
 2752SOL    HW214220   5.278  10.628  10.021 -0.1782  0.1918 -0.3672
 2753SOL     OW14221   5.906   2.546  12.158  0.5093 -0.2240 -0.2902
 2753SOL    HW114222   5.912   2.537  12.063 -0.9811 -0.2743 -0.4151
 2753SOL    HW214223   5.945   2.465  12.192  1.0321 -0.2162 -0.8614
 2754SOL     OW14224   6.945  10.896  12.043 -0.1042 -0.9097  0.3909
 2754SOL    HW114225   7.013  10.842  12.004  0.7398  0.6699 -0.4290
 2754SOL    HW214226   6.868  10.882  11.987  0.2607 -0.8668 -0.1308
 2755SOL     OW14227   6.176  10.344  12.016 -0.8979  0.2140 -0.0466
 2755SOL    HW114228   6.183  10.305  12.104  0.6028  1.6902  0.5521
 2755SOL    HW214229   6.151  10.271  11.959 -0.4441 -1.1115  1.3777
 2756SOL     OW14230   2.826   6.066   7.098 -0.0634 -0.0241  0.1512
 2756SOL    HW114231   2.799   6.117   7.175 -2.0268  0.3446 -0.7260
 2756SOL    HW214232   2.796   6.118   7.023 -0.5313 -1.6217 -0.8079
 2757SOL     OW14233   1.341   3.005   5.210  0.0692  0.0411 -0.3761
 2757SOL    HW114234   1.312   2.932   5.265 -0.1526 -0.3352 -0.9867
 2757SOL    HW214235   1.436   3.009   5.224  0.2014 -0.8698 -0.9349
 2758SOL     OW14236   3.326   4.301  11.047 -0.4913  0.2249 -0.9354
 2758SOL    HW114237   3.278   4.351  11.114 -1.2536 -0.1046 -1.2247
 2758SOL    HW214238   3.410   4.280  11.089 -0.5676  0.8623 -0.4398
 2759SOL     OW14239  11.013   1.583   2.058 -0.0232  0.4490  0.1100
 2759SOL    HW114240  10.932   1.603   2.105 -0.1180  0.1794  0.0636
 2759SOL    HW214241  11.008   1.489   2.041 -0.1448  0.5971 -0.7309
 2760SOL     OW14242   6.967   2.554   9.855 -0.3329  0.0280  0.5663
 2760SOL    HW114243   6.887   2.535   9.806 -0.3878  0.9761  0.2835
 2760SOL    HW214244   7.038   2.521   9.799 -0.4741 -0.0410  0.4276
 2761SOL     OW14245  10.837   2.051   5.015  0.3717  0.0381 -0.4153
 2761SOL    HW114246  10.821   2.001   5.095 -1.9873 -0.7238 -1.2703
 2761SOL    HW214247  10.929   2.032   4.993  0.0488 -2.6557  0.1831
 2762SOL     OW14248   3.617   4.876   8.103  0.5829  0.6776 -1.0269
 2762SOL    HW114249   3.656   4.950   8.150  1.0618  0.1274 -0.5406
 2762SOL    HW214250   3.532   4.863   8.145  2.4738 -2.2262  2.4374
 2763SOL     OW14251  10.425   4.033   7.668  0.1810  0.4417  0.5147
 2763SOL    HW114252  10.384   3.958   7.626  0.3428  1.1514 -0.9448
 2763SOL    HW214253  10.517   4.029   7.642  0.5069  0.3587  1.6079
 2764SOL     OW14254   7.816   0.535   3.742  0.5971 -0.0745 -0.3652
 2764SOL    HW114255   7.729   0.509   3.774  0.1345  0.9237 -0.7453
 2764SOL    HW214256   7.815   0.514   3.649  0.3958  0.7741 -0.5722
 2765SOL     OW14257   1.599   7.613   8.605 -0.0706 -0.7219  0.2816
 2765SOL    HW114258   1.667   7.675   8.577 -1.9751  2.2631  1.7943
 2765SOL    HW214259   1.541   7.605   8.529 -0.2273  0.0040  0.3167
 2766SOL     OW14260   1.684   6.507   0.320  0.2548  0.1624 -0.0006
 2766SOL    HW114261   1.719   6.439   0.262  1.8339  1.0124 -0.1037
 2766SOL    HW214262   1.651   6.574   0.261 -0.8825 -0.2921  0.1027
 2767SOL     OW14263   7.263   3.313   9.387 -0.2385 -0.1830  0.2092
 2767SOL    HW114264   7.336   3.336   9.445  0.8636 -0.1923 -1.0952
 2767SOL    HW214265   7.199   3.271   9.443  0.5691  0.2580  1.4948
 2768SOL     OW14266   8.660   5.552   0.170  0.6577  0.2930 -0.0656
 2768SOL    HW114267   8.599   5.547   0.097 -0.1412  0.1950  0.5927
 2768SOL    HW214268   8.672   5.645   0.186 -0.7316  0.3297  0.9320
 2769SOL     OW14269   7.811   1.517   4.318 -0.4804 -0.0767  0.2586
 2769SOL    HW114270   7.797   1.427   4.289 -0.9109 -0.1674  0.7455
 2769SOL    HW214271   7.800   1.569   4.238  1.9602 -0.6107 -0.5201
 2770SOL     OW14272  11.620   4.726   1.808 -0.0777  0.5029 -0.4128
 2770SOL    HW114273  11.634   4.682   1.725  1.9958  0.5886 -0.1505
 2770SOL    HW214274  11.621   4.819   1.787 -1.8290  0.5124 -0.5847
 2771SOL     OW14275   3.518  11.832   6.816 -0.0921  0.1794  0.9624
 2771SOL    HW114276   3.448  11.797   6.762  0.4109  2.0853 -1.0729
 2771SOL    HW214277   3.568  11.755   6.843 -0.8578 -0.9250 -0.6179
 2772SOL     OW14278   8.719   2.819   0.783  0.1332 -0.3491  0.3656
 2772SOL    HW114279   8.706   2.834   0.690 -1.2400  0.7239  0.7057
 2772SOL    HW214280   8.769   2.895   0.813 -0.1427 -0.2854  0.6681
 2773SOL     OW14281   1.589   3.116   9.807 -0.2744 -0.0563  0.1214
 2773SOL    HW114282   1.638   3.044   9.845  1.0179  0.9846  0.4926
 2773SOL    HW214283   1.553   3.080   9.726  0.8172 -0.9607  0.0150
 2774SOL     OW14284   5.715  10.925   0.528  0.4092  0.0693  0.5351
 2774SOL    HW114285   5.719  10.961   0.440 -0.6240 -0.6068  0.1909
 2774SOL    HW214286   5.638  10.966   0.567 -0.1311 -0.8860  0.5189
 2775SOL     OW14287  10.836   2.482   8.081  0.2397  0.2047 -0.0314
 2775SOL    HW114288  10.858   2.415   8.145 -0.1569 -0.2933 -0.4077
 2775SOL    HW214289  10.919   2.525   8.062  0.4408  0.0409  0.4567
 2776SOL     OW14290   0.072   0.313   1.780 -0.1435 -0.4527 -0.2920
 2776SOL    HW114291  -0.005   0.261   1.803 -0.5732  0.3757  0.2066
 2776SOL    HW214292   0.048   0.402   1.804  0.8616 -0.1374 -0.4187
 2777SOL     OW14293  11.544  11.009   9.960  0.4208 -0.3029 -0.3084
 2777SOL    HW114294  11.637  11.016   9.940  0.2289  2.3329 -0.6738
 2777SOL    HW214295  11.537  11.037  10.051  0.0606 -1.4005  0.0150
 2778SOL     OW14296   4.568   5.288   0.850  0.1235  0.2036  0.2053
 2778SOL    HW114297   4.632   5.245   0.793 -1.8396 -0.4576 -1.6641
 2778SOL    HW214298   4.505   5.327   0.789 -2.7203 -1.4797  1.8285
 2779SOL     OW14299   4.427   7.732   1.483  0.0927 -0.6468 -0.1321
 2779SOL    HW114300   4.373   7.749   1.405  0.4707 -0.8987 -0.4514
 2779SOL    HW214301   4.498   7.795   1.477  0.2548 -0.8281 -0.1184
 2780SOL     OW14302   2.294   2.770   2.103 -0.3432 -0.0033  0.3939
 2780SOL    HW114303   2.300   2.686   2.148  2.0633  0.3102  0.7787
 2780SOL    HW214304   2.385   2.796   2.088 -1.0387  2.1381 -0.4793
 2781SOL     OW14305   9.817   4.655   8.759 -0.7520  0.1525 -0.1170
 2781SOL    HW114306   9.895   4.605   8.734  0.0710  1.5459 -0.4155
 2781SOL    HW214307   9.779   4.684   8.676 -2.4567 -1.7044 -0.0669
 2782SOL     OW14308   9.439   2.113   3.783  0.2421  0.4499 -0.1101
 2782SOL    HW114309   9.392   2.040   3.822 -1.5614  1.1153 -0.9114
 2782SOL    HW214310   9.450   2.175   3.856 -1.2724  0.8111 -0.1555
 2783SOL     OW14311  10.827   8.060   2.589  0.3682 -0.8689 -0.2828
 2783SOL    HW114312  10.768   8.077   2.516 -1.5713  0.3282  1.4660
 2783SOL    HW214313  10.792   7.981   2.631 -2.1477  1.5369  2.6243
 2784SOL     OW14314   9.130   0.497   2.062 -0.2066 -0.0536 -0.2877
 2784SOL    HW114315   9.105   0.490   1.970 -1.9356  1.3505  0.0405
 2784SOL    HW214316   9.175   0.581   2.069  0.3914 -0.3929  0.0658
 2785SOL     OW14317   3.551  11.895   2.022  0.1842  0.4565 -0.1824
 2785SOL    HW114318   3.474  11.864   2.070  0.3924 -0.4148 -0.4024
 2785SOL    HW214319   3.563  11.831   1.952  1.4261  0.2965  0.1633
 2786SOL     OW14320   8.647   3.965   0.963 -0.2613 -0.3582 -0.1026
 2786SOL    HW114321   8.710   3.919   1.019  1.0721  0.8270 -0.5631
 2786SOL    HW214322   8.622   4.042   1.014  0.0023  0.0710 -0.6079
 2787SOL     OW14323   5.385   9.617   6.070  0.2113  0.9004  0.1181
 2787SOL    HW114324   5.471   9.650   6.044  0.0274  0.8708 -0.5713
 2787SOL    HW214325   5.403   9.549   6.135  0.8647 -0.7359 -1.6786
 2788SOL     OW14326   2.069   8.483   4.867  0.1864  0.1009  0.3189
 2788SOL    HW114327   2.121   8.549   4.821  0.5768 -0.6870 -0.3999
 2788SOL    HW214328   2.074   8.508   4.959 -0.8743  1.9031 -0.0625
 2789SOL     OW14329   6.642   2.614   8.071 -0.0225 -0.6415  0.0871
 2789SOL    HW114330   6.662   2.659   7.989  0.1683 -0.4909  0.2170
 2789SOL    HW214331   6.664   2.522   8.054  1.3534 -0.3946  0.4114
 2790SOL     OW14332  11.581  11.952   4.408  0.5312  0.2076  0.1793
 2790SOL    HW114333  11.600  11.938   4.501  0.7340 -2.7698 -0.2119
 2790SOL    HW214334  11.659  11.994   4.373  0.4855  1.2838  1.2967
 2791SOL     OW14335   0.341   8.877   0.280  0.6562  0.5753  0.0362
 2791SOL    HW114336   0.429   8.883   0.244  0.7393 -0.8454 -0.0462
 2791SOL    HW214337   0.284   8.910   0.210  1.1424  2.3322  0.4029
 2792SOL     OW14338   6.947   8.407   3.134  0.1343  0.6463 -0.0815
 2792SOL    HW114339   7.036   8.433   3.156  1.4004 -1.4272 -2.3336
 2792SOL    HW214340   6.920   8.468   3.066  0.6220  0.0657 -0.8038
 2793SOL     OW14341   3.912   3.557   7.918  0.5878  0.1590 -0.0655
 2793SOL    HW114342   3.872   3.472   7.937  1.4159 -0.4282 -0.8550
 2793SOL    HW214343   4.006   3.544   7.932  0.6713  1.0922  0.3097
 2794SOL     OW14344   3.742   2.287   1.367  0.4082  0.1869 -0.7345
 2794SOL    HW114345   3.648   2.291   1.384  0.4306  0.8255 -0.7522
 2794SOL    HW214346   3.776   2.230   1.437  0.0049 -0.1124 -0.7735
 2795SOL     OW14347   1.219   0.034  11.967 -0.2405 -0.0753  0.2313
 2795SOL    HW114348   1.156   0.022  12.039 -2.0178 -2.5599 -1.5362
 2795SOL    HW214349   1.172   0.088  11.904  0.6513  0.6854  0.2102
 2796SOL     OW14350   8.703  10.561   5.748 -0.0281 -0.1078 -0.8647
 2796SOL    HW114351   8.618  10.573   5.790 -0.1422 -3.6573  0.2827
 2796SOL    HW214352   8.687  10.497   5.679  1.6767 -1.0037 -0.4900
 2797SOL     OW14353   0.206   9.573   1.260 -0.8359  0.3090 -0.7823
 2797SOL    HW114354   0.193   9.658   1.217  1.2460  1.2346  0.2605
 2797SOL    HW214355   0.118   9.546   1.287 -1.5178  2.2763 -0.8969
 2798SOL     OW14356   3.885   4.413   9.757  0.0054  0.7975  0.0005
 2798SOL    HW114357   3.853   4.334   9.802  0.8495  0.0991 -0.5832
 2798SOL    HW214358   3.915   4.381   9.672  3.3959  1.1595  0.9339
 2799SOL     OW14359   5.291   7.708   1.350 -0.6672 -0.6620 -0.2396
 2799SOL    HW114360   5.357   7.773   1.328 -1.5012  0.1880 -0.2867
 2799SOL    HW214361   5.331   7.655   1.419 -0.5918  0.9846  1.0457
 2800SOL     OW14362   5.576   8.737   1.860 -0.1749 -0.4361 -0.5207
 2800SOL    HW114363   5.666   8.755   1.834  0.5027 -1.6235  0.8717
 2800SOL    HW214364   5.572   8.642   1.869 -1.0586 -0.2762  1.1786
 2801SOL     OW14365   7.080   6.535   1.685 -0.3599  0.5019  0.4922
 2801SOL    HW114366   7.139   6.553   1.611  0.0675  1.1559  0.9779
 2801SOL    HW214367   7.116   6.586   1.757 -0.0348 -1.1058  1.5180
 2802SOL     OW14368   0.371  10.207   8.574  0.1305 -0.3265  0.1228
 2802SOL    HW114369   0.328  10.262   8.639  0.4864 -1.1815  1.1116
 2802SOL    HW214370   0.345  10.118   8.597  0.0773 -0.6339 -1.0546
 2803SOL     OW14371   5.216   7.968   7.213 -0.0577 -0.3430  0.7522
 2803SOL    HW114372   5.201   7.909   7.287  2.4259  0.6927  2.1920
 2803SOL    HW214373   5.244   7.911   7.142  1.4117 -1.0349  1.8443
 2804SOL     OW14374   3.705   8.429   1.438  0.1938 -0.4571 -0.2894
 2804SOL    HW114375   3.690   8.375   1.516 -1.8574 -0.6694 -0.7744
 2804SOL    HW214376   3.726   8.516   1.472  1.4853 -1.0540  0.4907
 2805SOL     OW14377  11.053   4.248   7.984 -0.2068 -0.1470 -0.2321
 2805SOL    HW114378  11.131   4.302   8.000  0.7730 -1.8485  1.1472
 2805SOL    HW214379  10.982   4.311   7.972  1.0998  1.4509 -0.0177
 2806SOL     OW14380  12.011   6.677   6.821 -0.4833 -0.6329  0.2771
 2806SOL    HW114381  11.997   6.771   6.834 -0.2661 -0.2557 -1.8140
 2806SOL    HW214382  12.028   6.643   6.909 -2.6275  0.9025  1.3968
 2807SOL     OW14383   7.648   8.416  12.335  0.1747 -0.0338  0.0954
 2807SOL    HW114384   7.620   8.393  12.246  0.2513 -0.0922  0.0854
 2807SOL    HW214385   7.567   8.425  12.384  0.1433 -0.4343  0.1236
 2808SOL     OW14386   8.949   9.433   3.431  0.4011 -0.1447  0.3652
 2808SOL    HW114387   8.868   9.448   3.480 -0.9722 -1.0704 -1.5022
 2808SOL    HW214388   8.927   9.363   3.369  2.4964 -0.0898 -0.5181
 2809SOL     OW14389   4.731   5.696   0.174 -0.2717 -0.3716  0.2713
 2809SOL    HW114390   4.662   5.711   0.239 -1.5293 -0.6195 -0.9526
 2809SOL    HW214391   4.694   5.631   0.115  1.3660 -1.1361  0.0401
 2810SOL     OW14392   9.598   0.618   7.858 -0.2020 -0.1541 -0.8484
 2810SOL    HW114393   9.567   0.703   7.827 -1.1831 -0.6803 -1.3782
 2810SOL    HW214394   9.609   0.629   7.952 -0.7944  0.4274 -0.8363
 2811SOL     OW14395   5.899   7.041   3.986 -0.4452  0.3812 -0.3404
 2811SOL    HW114396   5.891   7.055   3.892  0.6010  3.9465 -0.0531
 2811SOL    HW214397   5.991   7.019   4.000 -0.3735  0.8064 -0.1062
 2812SOL     OW14398  10.134  11.858   6.759  0.1495 -0.1357  0.3104
 2812SOL    HW114399  10.093  11.777   6.729  0.8557 -0.1102 -0.7510
 2812SOL    HW214400  10.121  11.857   6.854 -0.7370 -0.9905  0.1973
 2813SOL     OW14401   9.649   2.323   6.748 -0.4436  0.3146 -0.5886
 2813SOL    HW114402   9.712   2.392   6.725 -1.2990  0.9464 -1.0711
 2813SOL    HW214403   9.699   2.265   6.806  1.1700 -0.2503 -2.4278
 2814SOL     OW14404  12.238   2.426  11.179  0.1024  0.2693 -0.4834
 2814SOL    HW114405  12.164   2.483  11.154 -2.6127 -1.9191  1.8029
 2814SOL    HW214406  12.286   2.477  11.245  0.0203  1.3375 -1.2315
 2815SOL     OW14407   2.769   1.221   9.675 -0.7206 -0.3023 -0.0053
 2815SOL    HW114408   2.857   1.257   9.666 -0.8117 -0.3737 -1.5415
 2815SOL    HW214409   2.758   1.165   9.598 -1.7278 -1.1329  0.7128
 2816SOL     OW14410   2.129   6.226   2.588 -0.7354 -0.4217  0.2066
 2816SOL    HW114411   2.210   6.265   2.556 -1.0494 -0.2470 -0.3948
 2816SOL    HW214412   2.127   6.247   2.681  0.5228 -1.4869  0.5076
 2817SOL     OW14413   8.759   8.014   0.457 -0.0643  0.5054  0.2641
 2817SOL    HW114414   8.723   8.084   0.403  2.2929  1.4541 -0.1972
 2817SOL    HW214415   8.729   8.034   0.546 -1.1941  0.8400 -0.1776
 2818SOL     OW14416   1.403   4.238  10.141 -0.3360 -0.2544  0.1707
 2818SOL    HW114417   1.320   4.191  10.130  0.0157 -0.4479 -2.2047
 2818SOL    HW214418   1.405   4.300  10.068  1.5680 -0.1818  0.2308
 2819SOL     OW14419   4.661   9.312   9.556  0.5828  0.2253  0.4391
 2819SOL    HW114420   4.646   9.218   9.541  0.6283  0.2703  0.0961
 2819SOL    HW214421   4.665   9.349   9.468  1.2156  0.4501  0.5577
 2820SOL     OW14422   8.221   3.453   2.878  0.6336 -0.2986  0.2360
 2820SOL    HW114423   8.258   3.493   2.799  2.7703 -0.6878  0.9749
 2820SOL    HW214424   8.151   3.396   2.845  1.5033 -0.4855 -1.3924
 2821SOL     OW14425  11.296   7.792  11.061  0.1650  0.7289 -0.3805
 2821SOL    HW114426  11.220   7.847  11.078 -1.7905 -1.9911  0.5032
 2821SOL    HW214427  11.302   7.787  10.965 -2.1599 -0.5969 -0.5377
 2822SOL     OW14428  11.501  10.043  12.218  0.2642  0.9548 -0.1868
 2822SOL    HW114429  11.494   9.988  12.140 -1.0562  0.8688 -0.0306
 2822SOL    HW214430  11.423  10.099  12.214 -0.0108  0.7100  1.2409
 2823SOL     OW14431   7.593   3.595   6.194 -0.1950  0.1329  0.0218
 2823SOL    HW114432   7.678   3.639   6.194  0.0632 -0.2957 -1.7570
 2823SOL    HW214433   7.575   3.577   6.102 -2.1263  0.0163  0.3786
 2824SOL     OW14434   9.386   3.332   0.441  0.2139 -0.2236  0.3296
 2824SOL    HW114435   9.443   3.333   0.517 -0.6307 -0.4848  0.9792
 2824SOL    HW214436   9.327   3.258   0.456  0.9202 -1.1657 -1.2484
 2825SOL     OW14437   3.324   5.919   0.316  0.7574 -0.7348 -0.0905
 2825SOL    HW114438   3.267   5.887   0.386  1.1773  1.0423  1.1275
 2825SOL    HW214439   3.265   5.969   0.259  0.9172  0.5641  0.8233
 2826SOL     OW14440   9.538   3.331   2.998 -0.6053  0.3583  0.1486
 2826SOL    HW114441   9.528   3.393   2.927 -0.4002  1.2147  0.8566
 2826SOL    HW214442   9.591   3.260   2.962  0.0769  1.1137 -0.3486
 2827SOL     OW14443   1.466  10.644   3.401  0.3856  0.2191 -0.1653
 2827SOL    HW114444   1.378  10.606   3.405  0.4576 -0.0519 -0.9612
 2827SOL    HW214445   1.450  10.739   3.395  0.1466  0.1731 -0.2837
 2828SOL     OW14446  12.441   2.473   3.562  0.1368 -0.1319 -0.0480
 2828SOL    HW114447  12.503   2.404   3.584 -1.2568 -1.8272 -1.1614
 2828SOL    HW214448  12.453   2.539   3.630  0.8495 -1.9084  1.6211
 2829SOL     OW14449   3.502   9.203   0.723  0.1843  0.0528 -0.5242
 2829SOL    HW114450   3.532   9.293   0.731 -0.3338  0.3285 -1.4576
 2829SOL    HW214451   3.581   9.153   0.706  0.2240  0.7539 -2.8615
 2830SOL     OW14452   8.367   5.495  10.999 -0.3235  0.2188  0.3330
 2830SOL    HW114453   8.369   5.582  10.959  0.3654  0.4256  0.7974
 2830SOL    HW214454   8.435   5.446  10.952 -0.9885 -0.1965 -0.2049
 2831SOL     OW14455   4.209   7.125   2.126  0.5142  0.1806  0.3908
 2831SOL    HW114456   4.176   7.203   2.169  0.5095 -0.8658  2.4106
 2831SOL    HW214457   4.134   7.065   2.123  1.1784 -0.7524  1.4335
 2832SOL     OW14458   1.840   8.999  12.126  0.6337  0.0746  0.1249
 2832SOL    HW114459   1.900   9.049  12.070  1.4992 -0.4119  0.6055
 2832SOL    HW214460   1.891   8.979  12.204  0.3876 -1.7514 -0.1404
 2833SOL     OW14461  11.614  11.628   7.087  0.1834  0.0606 -0.4190
 2833SOL    HW114462  11.531  11.620   7.134 -0.3739 -1.5992 -1.5810
 2833SOL    HW214463  11.666  11.553   7.118  0.2074 -0.4455 -1.6300
 2834SOL     OW14464   5.226   0.524  10.805 -0.4005 -0.1853 -0.0929
 2834SOL    HW114465   5.150   0.497  10.753 -1.0790 -0.1559  0.8671
 2834SOL    HW214466   5.268   0.441  10.829 -1.2739 -0.3178  1.0538
 2835SOL     OW14467   1.073   1.334   6.939 -0.1712 -0.2828  0.3103
 2835SOL    HW114468   0.996   1.312   6.887 -0.3596  1.3419 -0.1470
 2835SOL    HW214469   1.099   1.421   6.908  1.6842 -0.6710  0.6429
 2836SOL     OW14470   3.696   7.506   2.629  0.2442  0.3129 -0.3067
 2836SOL    HW114471   3.658   7.443   2.689  1.9321  1.1370  1.7720
 2836SOL    HW214472   3.622   7.538   2.577 -1.0586 -1.4090  0.3894
 2837SOL     OW14473   2.654   3.232   1.497 -0.2169  0.2908  0.2793
 2837SOL    HW114474   2.691   3.284   1.569  0.3146 -0.1151  0.3013
 2837SOL    HW214475   2.730   3.201   1.448 -0.5790  0.5624 -0.4636
 2838SOL     OW14476  11.557   8.503   7.810 -0.6523 -0.5605  0.5724
 2838SOL    HW114477  11.541   8.421   7.857  0.2211 -1.0635  0.0309
 2838SOL    HW214478  11.645   8.492   7.772 -0.8607  0.2857 -0.2016
 2839SOL     OW14479   4.598   3.516   1.837 -0.5647 -0.6397 -0.2293
 2839SOL    HW114480   4.579   3.504   1.930  0.3540 -1.7080 -0.1632
 2839SOL    HW214481   4.513   3.511   1.794 -1.0808  0.5538  0.6000
 2840SOL     OW14482   5.002   5.903   6.606  0.0633 -0.4213 -0.9603
 2840SOL    HW114483   4.921   5.885   6.654  1.0026 -0.7155  0.5556
 2840SOL    HW214484   5.016   5.997   6.617 -0.7838 -0.0913 -2.4192
 2841SOL     OW14485   0.151   8.135   6.412  0.3673  0.0864 -0.3991
 2841SOL    HW114486   0.084   8.076   6.445 -2.4050  1.6285 -2.7835
 2841SOL    HW214487   0.199   8.084   6.347 -0.2087 -0.3080 -0.5162
 2842SOL     OW14488  11.809   7.111  10.755 -0.1483  0.2155  0.1832
 2842SOL    HW114489  11.760   7.193  10.749 -0.5337 -0.1014 -1.6547
 2842SOL    HW214490  11.873   7.117  10.683  0.6933 -0.5471  0.8492
 2843SOL     OW14491   8.104   1.516   7.190 -0.4178  0.1163 -0.3465
 2843SOL    HW114492   8.198   1.503   7.201 -0.0668  1.1524 -1.8657
 2843SOL    HW214493   8.072   1.532   7.279  0.9203  0.2984  0.1314
 2844SOL     OW14494   7.490   0.377   8.596 -0.1802  0.0195 -0.4556
 2844SOL    HW114495   7.491   0.345   8.686 -0.7610  0.2313 -0.3686
 2844SOL    HW214496   7.571   0.344   8.558 -1.4996 -3.0668 -0.8989
 2845SOL     OW14497   3.200   8.422  12.385  0.0072  0.0687 -0.4975
 2845SOL    HW114498   3.110   8.399  12.407 -0.5839  0.5347 -2.3183
 2845SOL    HW214499   3.246   8.420  12.469 -2.1820  2.0729  0.8851
 2846SOL     OW14500   4.082   0.643  12.405 -0.3314 -0.0901  0.0639
 2846SOL    HW114501   4.025   0.697  12.460 -1.3955 -1.2048  0.0928
 2846SOL    HW214502   4.025   0.575  12.371  0.8677 -0.8886 -0.4134
 2847SOL     OW14503   5.670   0.053   9.023  0.2159  0.0127  0.3616
 2847SOL    HW114504   5.629   0.095   9.098 -0.0723  1.0555 -0.3462
 2847SOL    HW214505   5.635   0.101   8.947  2.7799  1.0089 -0.2813
 2848SOL     OW14506  11.229   8.226   1.693  0.0159  0.4188  0.6629
 2848SOL    HW114507  11.137   8.198   1.690 -0.1029  0.7840  0.9290
 2848SOL    HW214508  11.278   8.144   1.684 -0.3262  0.3199 -0.5699
 2849SOL     OW14509   4.925   7.636   9.363 -0.2283 -0.2855 -0.2573
 2849SOL    HW114510   4.899   7.544   9.351  0.0312 -0.5741  1.2143
 2849SOL    HW214511   4.843   7.685   9.357 -0.5375 -0.7431  0.1245
 2850SOL     OW14512  11.220   8.032   7.305  0.6040 -0.3516  0.4593
 2850SOL    HW114513  11.258   8.006   7.222 -2.6527  0.4152 -1.4352
 2850SOL    HW214514  11.152   7.967   7.323 -1.8332  1.8938  0.0402
 2851SOL     OW14515   9.402   7.667   9.688 -0.2325  0.2593  0.3004
 2851SOL    HW114516   9.479   7.612   9.706 -1.1281 -0.7402  1.2504
 2851SOL    HW214517   9.339   7.606   9.648 -0.2258  1.2667 -1.3287
 2852SOL     OW14518   1.222  10.813   9.357  0.4269 -0.2561  0.0098
 2852SOL    HW114519   1.238  10.907   9.345 -0.9415 -0.1598 -1.3883
 2852SOL    HW214520   1.182  10.785   9.274  0.1567 -1.9290  0.6685
 2853SOL     OW14521   9.042   5.802   0.854  0.0780  0.3714 -0.1665
 2853SOL    HW114522   9.073   5.815   0.944 -1.2586  1.7288  0.1281
 2853SOL    HW214523   9.032   5.707   0.846 -0.2572  0.2637  1.2880
 2854SOL     OW14524   5.442   6.652  11.689  0.1740 -0.0220  1.0264
 2854SOL    HW114525   5.534   6.627  11.694 -0.2551 -1.9878  0.1216
 2854SOL    HW214526   5.396   6.583  11.735 -1.1031 -1.1027 -1.6620
 2855SOL     OW14527   5.230  12.126  10.416  0.0504  0.7113  0.0516
 2855SOL    HW114528   5.138  12.152  10.405 -0.7260 -2.1395 -1.3099
 2855SOL    HW214529   5.275  12.206  10.443 -3.0471  1.9266  2.1561
 2856SOL     OW14530   7.104   3.270   4.761  0.2699 -0.2812 -0.1299
 2856SOL    HW114531   7.122   3.349   4.810 -2.9566  0.1565  0.5693
 2856SOL    HW214532   7.074   3.301   4.675 -2.7061 -0.4902  0.7110
 2857SOL     OW14533   9.410   5.200   7.319 -0.4010  0.5656  0.0728
 2857SOL    HW114534   9.381   5.123   7.270 -1.3219 -0.0540  1.5190
 2857SOL    HW214535   9.504   5.205   7.302 -0.4345 -0.5099 -0.5330
 2858SOL     OW14536   4.404   4.493   7.727  0.0930 -0.7149 -0.2028
 2858SOL    HW114537   4.478   4.549   7.750  1.1383 -1.4789 -1.5755
 2858SOL    HW214538   4.348   4.494   7.805 -1.1763  4.0673 -0.8280
 2859SOL     OW14539  11.159  10.956   7.478  0.7790 -0.0361 -0.7625
 2859SOL    HW114540  11.165  10.984   7.569  3.0737 -2.1755 -0.1249
 2859SOL    HW214541  11.134  11.035   7.430  1.0425  1.5400  1.5198
 2860SOL     OW14542   0.989   6.155   0.254 -0.0604 -0.4548  0.2374
 2860SOL    HW114543   0.994   6.204   0.172 -1.5567  0.7213  0.8032
 2860SOL    HW214544   0.922   6.201   0.306  1.4482 -0.6201  2.4809
 2861SOL     OW14545  10.381   9.495   5.386  0.5474  0.1310 -0.3571
 2861SOL    HW114546  10.427   9.573   5.354  1.3386 -0.2669 -0.2196
 2861SOL    HW214547  10.450   9.442   5.426  0.1115 -0.8871 -0.9229
 2862SOL     OW14548   5.952   2.438   2.973  0.4145 -0.1597  0.8359
 2862SOL    HW114549   6.004   2.449   3.053  1.1253 -0.3496  0.4116
 2862SOL    HW214550   5.996   2.493   2.908 -0.5870  0.5788  0.7554
 2863SOL     OW14551   2.546   9.175   4.742 -0.0680 -0.1663  0.0514
 2863SOL    HW114552   2.569   9.203   4.831 -0.4172  2.2186 -0.5393
 2863SOL    HW214553   2.625   9.130   4.711  0.9734  1.0825  0.7516
 2864SOL     OW14554   3.347  12.221   4.309  0.0890 -0.5888  0.2624
 2864SOL    HW114555   3.433  12.185   4.290  0.4857 -0.2350  1.3156
 2864SOL    HW214556   3.363  12.290   4.374 -0.8613  0.2362 -0.3486
 2865SOL     OW14557   4.030  12.343   5.687 -0.0070  0.0743  0.2774
 2865SOL    HW114558   4.082  12.287   5.745 -0.6478 -0.5043  0.3018
 2865SOL    HW214559   3.969  12.283   5.644 -0.8323  0.7800  0.4387
 2866SOL     OW14560   5.837   3.194   8.175 -0.9411  0.3442  0.0698
 2866SOL    HW114561   5.867   3.259   8.112 -0.2043  1.5599  1.6044
 2866SOL    HW214562   5.759   3.234   8.215 -1.1107 -0.1885  0.2840
 2867SOL     OW14563   6.916   3.004   1.802 -0.0065  0.3761  0.2497
 2867SOL    HW114564   7.006   3.039   1.806 -0.8669  3.1955 -1.7768
 2867SOL    HW214565   6.911   2.962   1.716 -0.6547  0.3649  0.2899
 2868SOL     OW14566   5.069   4.885   8.620  0.0180  0.2782 -0.7425
 2868SOL    HW114567   5.103   4.944   8.553 -0.2298 -0.6811 -1.7317
 2868SOL    HW214568   5.129   4.896   8.694  0.2795  1.3731 -1.0991
 2869SOL     OW14569   4.807   9.158   8.344  0.1463  0.1277  0.1986
 2869SOL    HW114570   4.879   9.187   8.399 -0.2181  0.8011  0.3452
 2869SOL    HW214571   4.738   9.223   8.360  0.2456  0.7099 -1.5045
 2870SOL     OW14572   4.574   4.115  10.503  0.1015  0.1054  0.1250
 2870SOL    HW114573   4.517   4.137  10.429  0.0526  0.3168  0.2230
 2870SOL    HW214574   4.651   4.076  10.462 -0.7008 -1.5005  0.0761
 2871SOL     OW14575   4.470   2.355   9.180  0.1565 -0.1651 -0.3289
 2871SOL    HW114576   4.419   2.280   9.212  0.3081  0.2357  0.9034
 2871SOL    HW214577   4.552   2.350   9.229 -0.0268  1.0759  0.1314
 2872SOL     OW14578   7.181   0.115   2.170 -0.2911  0.2525 -0.5651
 2872SOL    HW114579   7.254   0.131   2.111 -0.5453  1.3242 -0.6181
 2872SOL    HW214580   7.221   0.083   2.251  0.0662 -1.1390 -1.2661
 2873SOL     OW14581   2.814   3.401   8.039 -1.2867 -0.1113 -0.2969
 2873SOL    HW114582   2.869   3.478   8.028 -1.1769 -0.4692 -2.9082
 2873SOL    HW214583   2.763   3.419   8.118 -1.3473  2.6909 -0.8780
 2874SOL     OW14584   0.469   2.563  11.811  0.0738 -0.3792  0.0638
 2874SOL    HW114585   0.491   2.602  11.896 -0.9399  1.4127 -0.4619
 2874SOL    HW214586   0.552   2.558  11.764  0.3551  0.2966  0.4856
 2875SOL     OW14587   2.656  12.053   2.495 -0.2064  0.1497  0.3624
 2875SOL    HW114588   2.718  12.030   2.425 -0.9448  2.0469 -1.0266
 2875SOL    HW214589   2.681  11.998   2.569  3.2791  0.9191 -0.0444
 2876SOL     OW14590   8.500   4.170   1.618  0.2895 -0.9290 -0.3559
 2876SOL    HW114591   8.511   4.136   1.707  0.2256  1.1739  0.5353
 2876SOL    HW214592   8.551   4.251   1.618 -0.8547 -0.1665 -1.7951
 2877SOL     OW14593   5.674   9.250   7.706 -0.0775 -0.5066 -0.5773
 2877SOL    HW114594   5.690   9.345   7.699 -0.7860  0.1323  3.6097
 2877SOL    HW214595   5.761   9.212   7.721 -0.1084  0.0619  1.3034
 2878SOL     OW14596   1.897   6.518   5.827 -0.0184  0.6452  0.4085
 2878SOL    HW114597   1.968   6.537   5.766 -0.7748  1.4553 -0.2348
 2878SOL    HW214598   1.820   6.509   5.772 -0.3143 -0.9795  1.0185
 2879SOL     OW14599   3.778   9.310   0.565  0.3536  0.5853  0.0929
 2879SOL    HW114600   3.799   9.216   0.562 -0.9154  0.3033 -0.9539
 2879SOL    HW214601   3.863   9.353   0.572  0.8803 -0.6834  2.7477
 2880SOL     OW14602   5.651  11.929  10.119 -0.1344  0.3476  0.0357
 2880SOL    HW114603   5.698  11.934  10.202  0.3806  1.2436 -0.2958
 2880SOL    HW214604   5.567  11.974  10.137 -0.2306  0.1028  0.2044
 2881SOL     OW14605  10.005   9.724   6.071  0.1430  0.1899  0.1556
 2881SOL    HW114606   9.992   9.650   6.130 -0.2640 -0.8658 -1.2137
 2881SOL    HW214607   9.920   9.737   6.029  0.5799  0.4985 -0.6653
 2882SOL     OW14608   0.862   0.279   1.305  0.4187  0.3164 -0.1730
 2882SOL    HW114609   0.915   0.218   1.356  1.1515  1.2911  0.2634
 2882SOL    HW214610   0.860   0.241   1.217  1.2504 -0.1031 -0.0223
 2883SOL     OW14611   2.754   9.977   3.791 -0.1758 -0.5734  1.1800
 2883SOL    HW114612   2.812   9.935   3.727 -1.3227 -1.5097  0.7228
 2883SOL    HW214613   2.809  10.043   3.833  0.6748 -0.0483 -0.6484
 2884SOL     OW14614   6.948   7.745   3.221 -0.0614 -0.1379  0.0746
 2884SOL    HW114615   6.931   7.782   3.134  2.3421  1.5292  0.1861
 2884SOL    HW214616   6.919   7.654   3.215 -2.6390  0.6765 -1.5033
 2885SOL     OW14617   8.955   6.209   4.396 -0.3546 -0.1546 -0.6761
 2885SOL    HW114618   8.861   6.198   4.411 -0.3039 -0.1513 -0.3358
 2885SOL    HW214619   8.962   6.289   4.345 -0.5610 -0.3454 -1.0092
 2886SOL     OW14620   6.048   9.587   3.191 -0.0127  0.0498 -0.4120
 2886SOL    HW114621   6.114   9.591   3.260  0.3773  1.1936 -0.8340
 2886SOL    HW214622   6.040   9.677   3.159 -2.1672  0.0674 -0.0158
 2887SOL     OW14623  11.118  10.911   1.507  0.3313 -0.3857  0.1581
 2887SOL    HW114624  11.068  10.883   1.430 -1.3219 -0.7306  1.3173
 2887SOL    HW214625  11.207  10.880   1.490  0.2827  0.5441 -2.1078
 2888SOL     OW14626  12.009   3.485   3.798  0.3551 -0.5991  0.2565
 2888SOL    HW114627  12.081   3.530   3.843 -0.2483 -0.6207  1.2799
 2888SOL    HW214628  11.955   3.555   3.762 -0.8782 -0.4091  2.3092
 2889SOL     OW14629   8.142  12.124   1.815 -0.2494 -0.0587 -0.5404
 2889SOL    HW114630   8.164  12.071   1.891  2.5322  0.0952 -1.1270
 2889SOL    HW214631   8.176  12.211   1.834 -1.1762  0.4850 -1.2316
 2890SOL     OW14632   9.684   4.163   8.529  0.3132 -0.3704  0.2019
 2890SOL    HW114633   9.708   4.254   8.543 -0.9461  0.1708 -0.8874
 2890SOL    HW214634   9.623   4.143   8.600  0.3424 -0.2592  0.2584
 2891SOL     OW14635   7.721   6.506   9.644  0.1072 -0.2186  0.5287
 2891SOL    HW114636   7.715   6.414   9.670  1.4469 -0.5649 -0.3091
 2891SOL    HW214637   7.728   6.553   9.727  0.8240 -1.0040  0.9359
 2892SOL     OW14638  12.009  11.639   6.470  0.4660 -0.4849  0.4259
 2892SOL    HW114639  12.099  11.669   6.484  0.5211 -0.5645  0.2509
 2892SOL    HW214640  11.992  11.656   6.378  0.2667 -0.3809  0.4818
 2893SOL     OW14641   8.745   9.689   6.218  0.5481  0.2528  0.4554
 2893SOL    HW114642   8.695   9.658   6.294 -0.2020  0.8208  0.2050
 2893SOL    HW214643   8.768   9.779   6.240  1.6878 -0.0739  0.6697
 2894SOL     OW14644   8.066   9.366   4.049  0.4898  0.3598  0.2178
 2894SOL    HW114645   8.113   9.408   3.977 -1.0281 -0.5665 -1.3956
 2894SOL    HW214646   8.083   9.273   4.038 -2.7751 -0.1705 -1.3430
 2895SOL     OW14647   6.819   6.540  11.325 -0.0908 -1.0202  0.7511
 2895SOL    HW114648   6.882   6.526  11.396  0.5757 -1.2928  0.1207
 2895SOL    HW214649   6.786   6.453  11.305 -0.0200 -0.9898  0.4977
 2896SOL     OW14650   7.530   3.903   0.343 -0.1548  0.1577 -0.2744
 2896SOL    HW114651   7.441   3.867   0.343 -0.2874  0.4102  1.3399
 2896SOL    HW214652   7.585   3.830   0.312 -0.6904 -0.6937  0.7095
 2897SOL     OW14653   7.264   6.595   2.938  0.3578  0.3649  0.7457
 2897SOL    HW114654   7.184   6.627   2.981  0.3044  0.0874  0.8569
 2897SOL    HW214655   7.279   6.509   2.977  0.1098 -0.0510 -0.0479
 2898SOL     OW14656   1.306  10.343  12.426  0.0408  0.5879  0.2623
 2898SOL    HW114657   1.262  10.427  12.440 -2.0181 -0.7605  2.6426
 2898SOL    HW214658   1.365  10.335  12.501  0.0494 -0.1629  0.1769
 2899SOL     OW14659   0.137   1.790   2.217 -0.0208 -0.1168  0.5281
 2899SOL    HW114660   0.144   1.695   2.204  0.9158  0.0368 -0.2170
 2899SOL    HW214661   0.228   1.821   2.217 -0.2937  0.7172  1.2985
 2900SOL     OW14662   1.741   4.426   3.510  0.2989  0.4048  0.2929
 2900SOL    HW114663   1.676   4.387   3.452 -0.4663  2.6136 -0.4267
 2900SOL    HW214664   1.695   4.443   3.592 -1.1299  4.6840 -1.1237
 2901SOL     OW14665   1.226   9.942   1.971 -0.6006  0.1212  0.2426
 2901SOL    HW114666   1.271   9.924   2.054 -0.4122 -0.0992  0.0927
 2901SOL    HW214667   1.271   9.887   1.907 -0.4416  0.6358 -0.0965
 2902SOL     OW14668   4.272   3.092   5.968  0.3873  0.3459  0.4060
 2902SOL    HW114669   4.282   3.087   5.873  0.9038  3.0464  0.2617
 2902SOL    HW214670   4.354   3.130   5.999 -0.4669  1.1728  1.7301
 2903SOL     OW14671   3.161   3.317   1.234  0.0375  0.1025  0.3707
 2903SOL    HW114672   3.230   3.310   1.300 -0.6592 -0.9742  1.0056
 2903SOL    HW214673   3.193   3.384   1.173  1.8107 -0.6529  0.4271
 2904SOL     OW14674  11.980   7.716   5.483  0.0500 -0.2275 -0.0631
 2904SOL    HW114675  11.911   7.657   5.515 -0.6625  0.1905 -0.7962
 2904SOL    HW214676  11.968   7.717   5.388  0.6298  0.4087 -0.1329
 2905SOL     OW14677   7.930   9.227   6.469  0.2082 -0.5189 -0.5403
 2905SOL    HW114678   8.021   9.233   6.495 -0.0239 -1.9259  0.7120
 2905SOL    HW214679   7.932   9.230   6.373  1.3245  1.8245 -0.5194
 2906SOL     OW14680  11.026   6.167   5.747 -0.8769  0.0044 -0.2425
 2906SOL    HW114681  10.940   6.126   5.755 -0.4956 -0.6521  0.7354
 2906SOL    HW214682  11.026   6.237   5.812 -0.6830  0.0265 -0.2652
 2907SOL     OW14683   6.546   5.601   3.518 -0.1827  0.4046 -0.0355
 2907SOL    HW114684   6.488   5.545   3.467 -2.2492  2.3815 -0.0002
 2907SOL    HW214685   6.630   5.598   3.471  0.0757 -3.2362  0.4148
 2908SOL     OW14686   8.323   1.289  10.747  0.2370 -0.0005  0.4105
 2908SOL    HW114687   8.333   1.263  10.656 -0.5701  0.3913  0.2029
 2908SOL    HW214688   8.385   1.233  10.795  0.3101 -0.5522 -0.3161
 2909SOL     OW14689   4.381   6.423   1.024  0.2357  0.1736  0.5087
 2909SOL    HW114690   4.462   6.430   1.074  0.1515 -1.1416  0.8641
 2909SOL    HW214691   4.344   6.339   1.050 -1.1213  0.6402  0.1607
 2910SOL     OW14692   6.513   0.378   0.624 -0.8165 -0.4599  0.5758
 2910SOL    HW114693   6.602   0.345   0.631 -0.1886  0.9857 -0.2542
 2910SOL    HW214694   6.458   0.301   0.642  0.5383 -2.2970 -2.3369
 2911SOL     OW14695   0.852   7.970   0.705  0.4114 -0.2423  0.3032
 2911SOL    HW114696   0.876   7.917   0.629 -0.2615 -0.1339  0.0026
 2911SOL    HW214697   0.935   8.002   0.740  0.7273 -0.2354 -0.4343
 2912SOL     OW14698   0.480  12.297   0.138  0.3193  0.2715  0.2035
 2912SOL    HW114699   0.425  12.233   0.185  0.5027  1.1252  1.6324
 2912SOL    HW214700   0.566  12.256   0.134  0.3237  0.2245  0.7046
 2913SOL     OW14701   7.246  11.820  11.548 -0.1914  0.9237  0.0875
 2913SOL    HW114702   7.159  11.842  11.582 -0.9910 -1.5492 -0.1667
 2913SOL    HW214703   7.285  11.764  11.615  0.6257  0.8380 -0.4445
 2914SOL     OW14704   5.873   5.770   7.734  0.3715 -0.2387  0.1558
 2914SOL    HW114705   5.842   5.705   7.671 -0.9471  1.0284 -0.5446
 2914SOL    HW214706   5.898   5.718   7.811 -2.1510 -1.4731  0.2330
 2915SOL     OW14707  10.338   9.860  10.283  0.2310  0.1964  0.6901
 2915SOL    HW114708  10.384   9.941  10.262  1.5126 -0.3154  1.4385
 2915SOL    HW214709  10.256   9.889  10.324 -0.4244  1.1261 -1.1545
 2916SOL     OW14710   7.652   3.932   9.369  0.4393  0.6162  0.2166
 2916SOL    HW114711   7.740   3.937   9.406  0.6934 -0.1666 -0.2508
 2916SOL    HW214712   7.594   3.950   9.443  0.9968  2.3561  0.2786
 2917SOL     OW14713   8.949   5.691   9.325  0.2013 -0.4366  0.5300
 2917SOL    HW114714   8.884   5.739   9.274 -0.2061 -1.0034  0.5063
 2917SOL    HW214715   8.968   5.613   9.272  0.1872 -0.7477  0.9772
 2918SOL     OW14716   8.910  11.091  10.114  0.3878  0.1677  0.0801
 2918SOL    HW114717   8.983  11.101  10.053  1.3247 -1.7810  0.7872
 2918SOL    HW214718   8.940  11.133  10.194 -0.7104  2.4273 -0.5979
 2919SOL     OW14719   8.721  10.886   1.279 -0.2460 -0.2606  0.0792
 2919SOL    HW114720   8.684  10.827   1.213  1.2515 -1.1202 -0.0410
 2919SOL    HW214721   8.705  10.974   1.244  0.4005 -0.6964 -1.3917
 2920SOL     OW14722   9.297   4.855   2.695 -0.1118 -0.3329 -0.1183
 2920SOL    HW114723   9.295   4.863   2.600  0.8328  0.4382 -0.0851
 2920SOL    HW214724   9.364   4.917   2.724 -0.7489 -0.1689  1.0965
 2921SOL     OW14725   2.016   0.952   0.243  0.3255  0.2016 -0.5115
 2921SOL    HW114726   2.056   0.943   0.329  0.0654 -2.2794 -0.5690
 2921SOL    HW214727   2.090   0.960   0.182  0.5193  1.3990 -0.1504
 2922SOL     OW14728   6.687   5.879  12.052 -0.0268 -0.0730 -0.0986
 2922SOL    HW114729   6.777   5.851  12.069 -0.2251 -0.9424 -0.3872
 2922SOL    HW214730   6.638   5.797  12.047 -0.5302  0.2784 -1.6338
 2923SOL     OW14731  12.214   5.547   8.202 -0.5635  0.1262 -0.0556
 2923SOL    HW114732  12.146   5.482   8.184 -1.2381  0.9243 -0.4385
 2923SOL    HW214733  12.168   5.618   8.246 -0.2018  1.1400 -1.2538
 2924SOL     OW14734   6.563   4.323   9.997  0.0850  0.4978  0.4018
 2924SOL    HW114735   6.603   4.401   9.959  0.5875 -0.8983 -2.1723
 2924SOL    HW214736   6.475   4.320   9.958  0.9354 -1.4626 -1.5978
 2925SOL     OW14737   0.427   3.333   0.093  0.1798 -0.2497 -0.3582
 2925SOL    HW114738   0.336   3.342   0.121  0.2920 -1.4792  0.5157
 2925SOL    HW214739   0.423   3.272   0.019  0.2471 -0.0096 -0.5575
 2926SOL     OW14740   9.686   3.819   3.032 -0.5002  0.2827 -0.0898
 2926SOL    HW114741   9.681   3.723   3.029  0.6986  0.2163 -0.4300
 2926SOL    HW214742   9.685   3.840   3.126  1.3513 -0.2231  0.0788
 2927SOL     OW14743   4.458   8.670   1.872  0.1995  0.3590  0.3603
 2927SOL    HW114744   4.409   8.750   1.891 -1.9106 -0.8911  0.4663
 2927SOL    HW214745   4.451   8.618   1.952  0.9572 -0.2466  0.0487
 2928SOL     OW14746   6.088   2.258   3.664  0.0024 -0.2632  0.2144
 2928SOL    HW114747   6.162   2.218   3.619 -1.1257  0.0225 -2.0450
 2928SOL    HW214748   6.113   2.258   3.757  2.4658 -0.8651 -0.3749
 2929SOL     OW14749   8.717   4.983   6.353  0.3890 -0.2460 -0.3583
 2929SOL    HW114750   8.807   4.998   6.381  0.8257 -2.2170 -0.5572
 2929SOL    HW214751   8.699   5.054   6.292  1.1462  1.2226  1.0392
 2930SOL     OW14752   0.048   4.033   1.926 -0.7501 -0.6070 -0.1097
 2930SOL    HW114753   0.081   4.119   1.950  0.4752 -0.6226 -1.5934
 2930SOL    HW214754  -0.043   4.033   1.956 -0.6543  1.0409  0.2726
 2931SOL     OW14755   2.768  12.134  11.687 -0.2852 -0.3604 -0.3159
 2931SOL    HW114756   2.765  12.090  11.772  0.2327 -0.8859 -0.5600
 2931SOL    HW214757   2.717  12.077  11.629 -0.1778 -0.2925 -0.4782
 2932SOL     OW14758   0.396   3.007   7.848  0.7444  0.4262  0.3271
 2932SOL    HW114759   0.397   2.967   7.761  2.3339  1.6452 -0.2416
 2932SOL    HW214760   0.327   3.073   7.843 -0.0534 -0.3648  0.4382
 2933SOL     OW14761   4.548   5.740   1.944  0.3573 -0.6488 -0.2636
 2933SOL    HW114762   4.628   5.755   1.892  1.6933 -2.3163  1.1866
 2933SOL    HW214763   4.573   5.767   2.033 -0.1353 -2.6749  0.5333
 2934SOL     OW14764   1.546   0.655   7.634 -0.3381  0.5821  0.5969
 2934SOL    HW114765   1.482   0.601   7.681  0.8265  0.5009  2.1755
 2934SOL    HW214766   1.552   0.735   7.686  0.8340  0.5913  0.4702
 2935SOL     OW14767   2.671   8.863   3.495 -0.1267  0.4570  0.6419
 2935SOL    HW114768   2.735   8.811   3.545 -0.9631 -2.2007 -0.8381
 2935SOL    HW214769   2.599   8.878   3.557  0.1283 -0.2364  1.1207
 2936SOL     OW14770  11.295   0.108   6.832  0.5029 -0.2279  0.0225
 2936SOL    HW114771  11.272   0.200   6.839  1.5298 -0.0219  0.9895
 2936SOL    HW214772  11.378   0.107   6.784 -0.9784 -0.9032 -2.7595
 2937SOL     OW14773  10.870   9.884  11.741 -0.1890  0.3793  0.1670
 2937SOL    HW114774  10.789   9.903  11.789 -1.2487 -0.4847 -1.1946
 2937SOL    HW214775  10.872   9.789  11.734  1.0723  0.3809  0.3651
 2938SOL     OW14776  11.897   0.654   1.818  0.2875 -0.2787  0.6019
 2938SOL    HW114777  11.952   0.732   1.823  2.5114 -1.7589  0.5918
 2938SOL    HW214778  11.868   0.640   1.908  0.6222  0.0445  0.7629
 2939SOL     OW14779   2.576  11.668   1.155  0.5461  0.7267 -0.5826
 2939SOL    HW114780   2.584  11.607   1.082 -0.3558 -1.1785  0.8173
 2939SOL    HW214781   2.664  11.701   1.169  1.2096 -0.8475 -0.9023
 2940SOL     OW14782   1.024   1.586  11.510  0.0994  0.5977 -0.4485
 2940SOL    HW114783   1.078   1.510  11.535  1.1838  0.5647 -2.6490
 2940SOL    HW214784   0.935   1.560  11.532  0.6074 -0.7213  0.1847
 2941SOL     OW14785   3.080   4.932   6.782  0.2971 -0.6542  0.2724
 2941SOL    HW114786   3.136   4.855   6.772 -0.2221 -0.9762 -0.2371
 2941SOL    HW214787   3.134   5.006   6.753  0.3318 -1.0089 -0.5700
 2942SOL     OW14788   3.358  12.438  12.319 -0.1570  0.2303 -0.5477
 2942SOL    HW114789   3.281  12.479  12.357 -1.3047 -2.6114  0.4912
 2942SOL    HW214790   3.430  12.464  12.375 -1.0987 -0.3250  0.9802
 2943SOL     OW14791   4.095   2.630   5.411 -0.1373 -0.0216 -0.0275
 2943SOL    HW114792   4.134   2.713   5.383  0.5498 -0.4231 -0.2852
 2943SOL    HW214793   4.017   2.621   5.356 -0.1979  0.4364 -0.0221
 2944SOL     OW14794   6.694   5.280   5.518 -0.5354  0.3048  0.1490
 2944SOL    HW114795   6.628   5.320   5.462 -0.3777  1.3718  0.7005
 2944SOL    HW214796   6.763   5.347   5.525  0.1692 -0.4244  0.3397
 2945SOL     OW14797   0.888   2.827  10.526 -0.3387  0.1351  0.0108
 2945SOL    HW114798   0.860   2.747  10.480 -1.2054  0.4690 -0.0702
 2945SOL    HW214799   0.828   2.834  10.600  0.2771  0.2579  0.5050
 2946SOL     OW14800  10.211   8.777   2.190 -0.3936  0.0221 -0.5223
 2946SOL    HW114801  10.271   8.713   2.228 -0.8132 -0.0211  0.0822
 2946SOL    HW214802  10.132   8.727   2.170 -0.8011  0.3762  0.1437
 2947SOL     OW14803   5.087   9.115  12.230  0.1879 -0.5174  0.7012
 2947SOL    HW114804   5.059   9.131  12.320  0.2171  0.6737  0.5031
 2947SOL    HW214805   5.168   9.163  12.220  0.3791 -0.9417  0.1371
 2948SOL     OW14806  11.640   0.219   8.105  0.5229  0.1153 -0.6806
 2948SOL    HW114807  11.610   0.149   8.048 -1.0193  0.3453 -0.2003
 2948SOL    HW214808  11.735   0.219   8.095  0.3997 -0.7646 -2.1503
 2949SOL     OW14809   3.617   0.572   5.173  0.0302  0.0209  0.3069
 2949SOL    HW114810   3.642   0.660   5.201 -1.7510  0.9516 -0.8713
 2949SOL    HW214811   3.588   0.528   5.253  1.2816  0.3521  0.9632
 2950SOL     OW14812   3.534   5.316   4.647 -0.3358 -0.1839  0.5045
 2950SOL    HW114813   3.582   5.299   4.566 -1.1234 -2.0453  0.3757
 2950SOL    HW214814   3.530   5.411   4.653 -0.2098  0.0070 -1.6339
 2951SOL     OW14815   2.947   8.961   2.159  0.1466  0.0394  0.0528
 2951SOL    HW114816   2.865   8.945   2.111  0.7737 -3.3271 -0.0922
 2951SOL    HW214817   2.996   8.879   2.151  3.2251  1.6659  0.8256
 2952SOL     OW14818   7.670   2.179   2.890 -0.1700  0.1254 -0.5131
 2952SOL    HW114819   7.731   2.172   2.963 -0.5766 -0.5965 -0.2294
 2952SOL    HW214820   7.588   2.140   2.922 -0.4362  0.0372 -1.2542
 2953SOL     OW14821  11.609   7.948  11.088 -0.5401  0.0277  0.5819
 2953SOL    HW114822  11.629   7.854  11.084  0.5072  0.2755 -0.4139
 2953SOL    HW214823  11.655   7.985  11.013 -1.3964  1.2669  0.6457
 2954SOL     OW14824   5.760   2.866   7.506 -0.1399  0.2835 -0.5217
 2954SOL    HW114825   5.837   2.824   7.546  1.0171  0.9139 -2.0099
 2954SOL    HW214826   5.796   2.923   7.438 -1.9917 -0.1661 -1.9521
 2955SOL     OW14827   2.020  12.118   3.322  0.3435 -0.4789  0.9478
 2955SOL    HW114828   1.937  12.070   3.322 -0.0187  0.0035 -1.5747
 2955SOL    HW214829   2.001  12.199   3.369 -1.0397  0.2022 -0.6902
 2956SOL     OW14830   6.610   0.234  11.254 -0.1893  0.3609 -0.1752
 2956SOL    HW114831   6.631   0.309  11.309  0.5335 -0.0354  0.1034
 2956SOL    HW214832   6.568   0.271  11.176  0.5125  1.0805 -0.2118
 2957SOL     OW14833   4.460   6.900   8.723 -0.2372  0.3351  0.5298
 2957SOL    HW114834   4.543   6.855   8.734  1.3090  3.2512  1.8848
 2957SOL    HW214835   4.474   6.960   8.650 -1.5820  0.0479  0.0027
 2958SOL     OW14836   7.495   5.027   5.858 -0.7555 -0.3256  0.0759
 2958SOL    HW114837   7.499   4.960   5.790  0.0103  0.5046 -0.7218
 2958SOL    HW214838   7.421   5.082   5.833 -0.6840 -0.2191  0.0995
 2959SOL     OW14839   0.633   0.031   6.695 -0.6879  0.4336  0.4514
 2959SOL    HW114840   0.635   0.058   6.787 -0.1984 -0.0400  0.5882
 2959SOL    HW214841   0.721   0.052   6.662  0.1302 -1.9624  0.8749
 2960SOL     OW14842   5.549   0.920   4.125 -0.3228  0.4347  0.3484
 2960SOL    HW114843   5.631   0.870   4.122 -0.3752  0.3511  0.2681
 2960SOL    HW214844   5.540   0.947   4.216  0.2004  1.1298  0.1986
 2961SOL     OW14845  10.871  12.146   7.484  0.0570 -0.3839  0.0718
 2961SOL    HW114846  10.946  12.206   7.486 -1.2580  1.3814  2.4428
 2961SOL    HW214847  10.855  12.125   7.576 -2.4472 -0.5208 -0.3187
 2962SOL     OW14848   0.003   2.662   6.687 -0.3757  0.1714 -0.2925
 2962SOL    HW114849  -0.090   2.678   6.668 -0.2289  1.6648  0.1253
 2962SOL    HW214850   0.011   2.677   6.781  0.3705  0.4686 -0.4012
 2963SOL     OW14851   1.491   5.254   0.790  0.0771  0.0591 -0.1212
 2963SOL    HW114852   1.539   5.173   0.771  1.1744  0.7250 -0.2622
 2963SOL    HW214853   1.511   5.312   0.716 -0.4086  0.5864  0.1553
 2964SOL     OW14854  12.021  11.190   2.815 -0.2527 -0.6149  0.0681
 2964SOL    HW114855  12.090  11.217   2.876 -0.4949 -0.6381  0.3583
 2964SOL    HW214856  11.949  11.162   2.872 -0.2775 -1.1714 -0.2257
 2965SOL     OW14857   6.819   0.247   0.134  0.1765  0.2523  0.3602
 2965SOL    HW114858   6.880   0.201   0.191 -0.4288 -0.8324  0.1522
 2965SOL    HW214859   6.796   0.326   0.183  0.2807 -0.2681  1.2619
 2966SOL     OW14860   9.899   1.483  10.657  0.1734  0.3159 -0.0529
 2966SOL    HW114861   9.829   1.450  10.599 -0.1870 -0.6269  0.8926
 2966SOL    HW214862   9.943   1.549  10.604 -0.9594  0.4014 -0.9542
 2967SOL     OW14863   5.676   7.082   1.891  0.0001 -0.6593  0.2448
 2967SOL    HW114864   5.747   7.146   1.878  0.0841 -0.4674  1.5249
 2967SOL    HW214865   5.691   7.046   1.978 -1.9868  0.0658  0.9599
 2968SOL     OW14866   4.983   6.763   0.966 -0.6560 -0.1822 -0.4411
 2968SOL    HW114867   4.988   6.681   0.916 -2.3361 -1.6558  1.6474
 2968SOL    HW214868   5.009   6.738   1.055 -1.1945  1.5786  0.2385
 2969SOL     OW14869   1.677   5.938   7.231 -0.3002 -0.2800  0.4415
 2969SOL    HW114870   1.713   5.956   7.144  0.8400  0.9766  1.1170
 2969SOL    HW214871   1.690   5.844   7.244 -0.9854 -0.5888 -0.9343
 2970SOL     OW14872   3.018   1.822  11.666 -0.2284  0.6645  0.0749
 2970SOL    HW114873   2.956   1.875  11.716 -0.1324  1.6383 -0.8204
 2970SOL    HW214874   3.007   1.850  11.576 -0.8773 -1.5489 -0.5911
 2971SOL     OW14875   7.775   7.288   7.256  0.1913  0.7260 -0.1555
 2971SOL    HW114876   7.780   7.324   7.345  1.6295  1.3143 -0.4453
 2971SOL    HW214877   7.846   7.223   7.253  0.4185  1.0047 -0.9960
 2972SOL     OW14878   3.403   3.379   3.537 -0.2469  0.2538  1.1550
 2972SOL    HW114879   3.474   3.416   3.485 -1.5227  0.6244 -0.3989
 2972SOL    HW214880   3.408   3.425   3.621  0.2845  1.5291  0.4571
 2973SOL     OW14881   8.816   1.812   9.623  0.6007 -0.0578 -0.1598
 2973SOL    HW114882   8.843   1.831   9.534  0.5752 -1.2485 -0.4305
 2973SOL    HW214883   8.882   1.855   9.678 -0.3179  2.1556 -0.6707
 2974SOL     OW14884  12.033   7.943   9.081  0.4126 -0.0062 -0.3073
 2974SOL    HW114885  12.060   7.920   8.992  0.2186 -0.1898 -0.3199
 2974SOL    HW214886  12.027   7.859   9.127  0.3207  0.0710 -0.1758
 2975SOL     OW14887   7.393   5.229   0.600  0.1497  0.3250 -0.0392
 2975SOL    HW114888   7.372   5.137   0.587  0.9168  0.2282 -0.6716
 2975SOL    HW214889   7.390   5.241   0.695  1.7586 -0.7935  0.1995
 2976SOL     OW14890  11.646   9.301   6.389 -0.0117 -0.5956 -0.2426
 2976SOL    HW114891  11.630   9.395   6.384  1.9955 -0.2464 -1.2354
 2976SOL    HW214892  11.626   9.277   6.479  2.7219  1.5181  1.0861
 2977SOL     OW14893   4.499   0.867   0.643  0.7278 -0.3779  0.1779
 2977SOL    HW114894   4.508   0.882   0.549  1.7952  0.1820  0.3609
 2977SOL    HW214895   4.416   0.908   0.666  0.6582 -0.1616 -0.4432
 2978SOL     OW14896   4.944   5.543  10.349  0.3753 -0.4799 -0.0727
 2978SOL    HW114897   4.927   5.574  10.261  2.6080  0.5893 -0.2009
 2978SOL    HW214898   4.973   5.452  10.337  0.1031 -0.5300 -0.3675
 2979SOL     OW14899   8.491   4.835   4.234  0.2534  0.2978 -0.9239
 2979SOL    HW114900   8.428   4.894   4.275 -0.2277 -0.5347 -0.4117
 2979SOL    HW214901   8.557   4.820   4.302 -1.0354 -1.8226 -0.0360
 2980SOL     OW14902   7.272   4.696   6.765 -0.0786 -0.6846 -0.2167
 2980SOL    HW114903   7.305   4.653   6.844 -0.6487  0.2571  0.5582
 2980SOL    HW214904   7.181   4.719   6.786 -0.2770 -0.5371 -1.1958
 2981SOL     OW14905   0.503   9.356   9.902 -0.0552  0.5474 -0.5417
 2981SOL    HW114906   0.563   9.405   9.959  0.4736  0.5323 -1.0843
 2981SOL    HW214907   0.527   9.264   9.915 -0.1242  0.5235 -0.5840
 2982SOL     OW14908   5.489   8.039   5.865 -0.0872 -0.3007  0.3708
 2982SOL    HW114909   5.568   8.064   5.913  0.2817 -1.1230  0.1960
 2982SOL    HW214910   5.505   8.071   5.776  0.8991 -2.1391 -0.1524
 2983SOL     OW14911   1.015  10.941  10.007  0.1543 -0.6971  0.0338
 2983SOL    HW114912   0.973  10.939  10.093 -2.0021  0.8391 -0.8986
 2983SOL    HW214913   0.981  10.863   9.963  1.3993 -1.5826  0.5947
 2984SOL     OW14914   2.100   7.181   5.557  0.5948 -0.7643  0.3956
 2984SOL    HW114915   2.019   7.231   5.549  0.8998 -0.4807 -1.3080
 2984SOL    HW214916   2.169   7.246   5.546  0.9988 -1.4716 -1.7733
 2985SOL     OW14917   7.535   1.914   2.832 -0.1267 -0.4909  0.0414
 2985SOL    HW114918   7.459   1.972   2.823 -0.9862 -1.2882  1.7650
 2985SOL    HW214919   7.498   1.827   2.845  1.1164 -1.0728 -0.1140
 2986SOL     OW14920   8.192   7.645   4.406  0.7059 -0.0738  0.0654
 2986SOL    HW114921   8.168   7.572   4.349  0.9077 -0.5750  0.6095
 2986SOL    HW214922   8.269   7.683   4.365 -0.0810  0.5883 -0.8606
 2987SOL     OW14923   1.308   6.546   7.370 -0.1404  0.5295  0.2265
 2987SOL    HW114924   1.391   6.560   7.416 -0.1772  2.2757 -0.1604
 2987SOL    HW214925   1.255   6.622   7.394 -1.2866 -0.0826 -0.2965
 2988SOL     OW14926   9.475   8.322  12.407  0.1493  0.1252  0.3812
 2988SOL    HW114927   9.567   8.329  12.380 -0.2727 -0.4410 -1.2992
 2988SOL    HW214928   9.478   8.271  12.488  1.3022 -0.0354  0.2620
 2989SOL     OW14929  11.502   8.300  10.949 -0.1888 -1.0612 -0.3734
 2989SOL    HW114930  11.558   8.262  11.016 -0.1306 -1.5803 -0.7086
 2989SOL    HW214931  11.562   8.345  10.890 -0.1708 -1.2035 -0.4644
 2990SOL     OW14932   1.203   2.300   7.646 -0.1348 -0.1837  0.4251
 2990SOL    HW114933   1.294   2.331   7.639 -0.8827  2.2323  0.4059
 2990SOL    HW214934   1.167   2.312   7.559 -0.7873  0.0442  0.7201
 2991SOL     OW14935   8.917  12.254   9.662 -0.7992  0.1563 -0.7579
 2991SOL    HW114936   8.993  12.209   9.624 -1.0087  1.4612 -2.9344
 2991SOL    HW214937   8.841  12.207   9.627 -1.0017  0.3291 -0.5572
 2992SOL     OW14938   9.614   3.067   8.524 -0.1502 -0.0197 -0.7032
 2992SOL    HW114939   9.528   3.068   8.483 -0.1704 -1.1423 -0.7130
 2992SOL    HW214940   9.671   3.026   8.459  0.6285  1.6349 -1.1112
 2993SOL     OW14941   8.148   3.812   5.951 -0.0762 -0.1398  0.0546
 2993SOL    HW114942   8.191   3.891   5.918  0.9265 -0.2931  0.9388
 2993SOL    HW214943   8.144   3.824   6.046  0.3950 -1.2895  0.2370
 2994SOL     OW14944   6.915   0.176   2.211 -0.3141 -0.3332 -0.3732
 2994SOL    HW114945   6.904   0.269   2.232  0.7700  0.1691 -1.8402
 2994SOL    HW214946   7.009   0.163   2.211 -0.3682 -0.9307 -2.1126
 2995SOL     OW14947   2.315   8.430   6.916  0.0593  0.5375  0.8839
 2995SOL    HW114948   2.289   8.367   6.849  0.9109  0.0563  0.9929
 2995SOL    HW214949   2.243   8.493   6.919 -0.6581 -0.2497  0.5429
 2996SOL     OW14950  11.114   7.950   6.592  0.1376  0.0421  0.0131
 2996SOL    HW114951  11.115   7.932   6.498 -0.0607  0.1616 -0.0116
 2996SOL    HW214952  11.023   7.940   6.618 -0.0015  1.1095 -0.0258
 2997SOL     OW14953   3.059   2.821  10.100 -0.0041 -0.0506 -0.1785
 2997SOL    HW114954   2.992   2.889  10.111  0.7579  0.4922  1.5253
 2997SOL    HW214955   3.025   2.746  10.149  0.5503  0.1990  0.6218
 2998SOL     OW14956   1.109   2.954   3.182  0.3269  0.4464  0.1864
 2998SOL    HW114957   1.026   3.001   3.173  0.0927  0.0281  0.1515
 2998SOL    HW214958   1.119   2.942   3.277  0.0282 -0.0629  0.1585
 2999SOL     OW14959   1.194   5.466   4.134 -0.4433 -0.0006 -0.0761
 2999SOL    HW114960   1.204   5.552   4.093 -0.9829  0.3509  0.5182
 2999SOL    HW214961   1.166   5.485   4.224 -0.7783 -0.8024 -0.0014
 3000SOL     OW14962   1.563   7.904   5.339 -0.2518 -0.3741 -0.3284
 3000SOL    HW114963   1.519   7.819   5.341  0.6403 -0.8378 -0.2300
 3000SOL    HW214964   1.567   7.927   5.246 -1.5622  0.1472 -0.2923
 3001SOL     OW14965  10.182   8.365   9.362 -0.5458 -0.1302  0.7151
 3001SOL    HW114966  10.232   8.307   9.305 -0.2138  0.8101  0.0166
 3001SOL    HW214967  10.092   8.358   9.332 -0.4286  0.0792  0.2996
 3002SOL     OW14968   8.354   8.993   2.590 -0.3752  0.5521 -0.0237
 3002SOL    HW114969   8.265   9.023   2.571 -0.1700  0.6438 -0.8746
 3002SOL    HW214970   8.410   9.068   2.570  0.0719 -0.1332 -1.5000
 3003SOL     OW14971   3.897   2.864  11.122  0.1227  0.0926 -0.1397
 3003SOL    HW114972   3.839   2.807  11.071 -0.3076 -1.1930  1.6778
 3003SOL    HW214973   3.980   2.816  11.125  0.9580  1.3415 -1.6712
 3004SOL     OW14974   4.891  11.988   4.591  0.1233 -0.0213 -0.0957
 3004SOL    HW114975   4.971  12.040   4.592  0.9442 -1.2531  0.8962
 3004SOL    HW214976   4.821  12.053   4.601  1.1401  0.8943  1.7832
 3005SOL     OW14977   6.590   1.347  10.917  0.5073  0.5046 -0.5642
 3005SOL    HW114978   6.610   1.407  10.989 -1.0480  0.3118  0.0786
 3005SOL    HW214979   6.614   1.261  10.950 -0.5701  0.3685 -0.0989
 3006SOL     OW14980   2.000  12.431   8.524 -0.0635 -0.1911  0.8223
 3006SOL    HW114981   2.026  12.344   8.555  2.3199  0.2708  0.3196
 3006SOL    HW214982   2.000  12.424   8.429  1.4961  0.6605  0.7271
 3007SOL     OW14983   2.987   7.436   4.400 -0.2911  0.0258  0.0007
 3007SOL    HW114984   2.965   7.523   4.369 -0.5658 -0.1482 -0.2967
 3007SOL    HW214985   3.043   7.399   4.332  2.1795  0.9931  1.3971
 3008SOL     OW14986   1.309  12.461   7.004 -0.4889  0.0446  0.1517
 3008SOL    HW114987   1.391  12.414   6.994  0.2986  0.8877  2.0768
 3008SOL    HW214988   1.256  12.434   6.930  1.4933 -0.5762 -1.1085
 3009SOL     OW14989   7.873   5.893  12.152 -0.4065  0.4982 -0.0050
 3009SOL    HW114990   7.897   5.943  12.075  4.3058 -0.2710  0.6774
 3009SOL    HW214991   7.909   5.806  12.137 -0.3835 -0.0191  2.5350
 3010SOL     OW14992  10.662   4.843   0.054  0.3498 -0.2106 -0.2788
 3010SOL    HW114993  10.690   4.768   0.002 -1.0008 -0.4812 -0.6559
 3010SOL    HW214994  10.721   4.844   0.129  3.0496  0.8063 -2.2574
 3011SOL     OW14995   3.715   9.211  12.478  0.0646 -0.6945 -0.0995
 3011SOL    HW114996   3.714   9.288  12.535 -0.3782 -0.2557 -0.6874
 3011SOL    HW214997   3.630   9.170  12.491  0.1277 -0.8364 -0.1281
 3012SOL     OW14998  11.527  10.711  11.459  0.6356 -0.1167 -0.2679
 3012SOL    HW114999  11.526  10.743  11.369  0.8373  1.5595  0.3019
 3012SOL    HW215000  11.445  10.742  11.497  0.8188 -0.3022  0.3019
 3013SOL     OW15001   8.794   0.708   2.369  0.2812  0.1925 -0.2241
 3013SOL    HW115002   8.743   0.646   2.316  0.3966 -1.1128  1.1195
 3013SOL    HW215003   8.874   0.722   2.319 -0.2803  0.2644 -1.1430
 3014SOL     OW15004  10.584   8.757   3.522  0.6096 -0.2740  0.2817
 3014SOL    HW115005  10.565   8.759   3.616  0.7493  1.7676  0.3144
 3014SOL    HW215006  10.670   8.797   3.515 -0.0421  0.9930 -0.8242
 3015SOL     OW15007   8.973   8.757  10.721  0.1225 -0.3401  0.5989
 3015SOL    HW115008   9.009   8.687  10.666  0.6722  0.5430 -0.1854
 3015SOL    HW215009   9.042   8.775  10.784  0.5397  0.4352 -0.0677
 3016SOL     OW15010  10.798   4.051   9.608  0.3122 -0.3085 -0.2323
 3016SOL    HW115011  10.791   3.980   9.672 -0.9384  0.0547  0.0546
 3016SOL    HW215012  10.719   4.044   9.555 -0.4618  1.5841  0.5755
 3017SOL     OW15013   5.807   4.986   2.760  0.4226 -0.3388  0.0119
 3017SOL    HW115014   5.793   5.039   2.839 -2.8511 -2.3098  0.9494
 3017SOL    HW215015   5.787   5.046   2.688 -2.7549  0.0203  1.0169
 3018SOL     OW15016   4.207   7.808   2.544  0.2107  0.1215 -0.2126
 3018SOL    HW115017   4.293   7.851   2.543 -0.8401  2.4227 -1.8851
 3018SOL    HW215018   4.146   7.879   2.524 -2.2870 -1.1104  2.4034
 3019SOL     OW15019   1.270  11.186  11.608  0.7554  0.3808  0.1906
 3019SOL    HW115020   1.202  11.169  11.674 -1.1142  2.5894 -1.0078
 3019SOL    HW215021   1.334  11.241  11.652  1.2794 -0.8923  1.0580
 3020SOL     OW15022  12.087   6.611   2.756  0.4351  0.4640  0.0763
 3020SOL    HW115023  12.027   6.605   2.682  0.1211  1.1947  0.2602
 3020SOL    HW215024  12.162   6.659   2.722  0.5790  0.2241  0.0547
 3021SOL     OW15025   9.391   5.064   1.696  0.0334  0.4767 -0.1184
 3021SOL    HW115026   9.353   5.149   1.720 -0.0085  0.7877 -1.2265
 3021SOL    HW215027   9.469   5.056   1.751  0.0122  1.2068  0.0272
 3022SOL     OW15028   8.940   0.761  10.627 -0.1744 -0.4435 -0.0173
 3022SOL    HW115029   8.977   0.688  10.677 -1.0045 -0.7463  0.1572
 3022SOL    HW215030   8.870   0.795  10.683 -1.8361 -1.4531 -1.3957
 3023SOL     OW15031   7.761   1.347   5.374  0.2817  0.1325 -0.4039
 3023SOL    HW115032   7.745   1.394   5.456  1.7703 -0.4248  0.2472
 3023SOL    HW215033   7.715   1.398   5.307  0.1865  1.3760  0.5725
 3024SOL     OW15034   2.570   4.410   6.525  0.0272  0.1563 -0.0152
 3024SOL    HW115035   2.509   4.368   6.586  0.5897  1.7823  1.7359
 3024SOL    HW215036   2.522   4.486   6.492  0.3386  0.2259 -0.3141
 3025SOL     OW15037   9.156   5.094   3.635  0.3751  1.1402 -0.4779
 3025SOL    HW115038   9.187   5.180   3.665  0.0272  1.5114 -1.1616
 3025SOL    HW215039   9.082   5.115   3.577 -1.6546  0.2947  1.6244
 3026SOL     OW15040   0.822   9.666   4.153 -0.4535 -0.2910  0.3969
 3026SOL    HW115041   0.838   9.580   4.193  1.0734 -0.6747 -0.9473
 3026SOL    HW215042   0.903   9.686   4.106 -0.6498  2.0511  0.9260
 3027SOL     OW15043   9.703  11.196   7.206 -0.1321  0.1854 -0.4429
 3027SOL    HW115044   9.783  11.144   7.197  0.1136  0.7275 -1.5514
 3027SOL    HW215045   9.734  11.284   7.227 -0.5140  0.1023  0.5413
 3028SOL     OW15046   4.032   9.075   3.634  0.2635  0.7835 -0.6511
 3028SOL    HW115047   4.017   9.038   3.547 -1.3398  1.4357 -0.6839
 3028SOL    HW215048   3.991   9.012   3.693  1.8939  0.0201 -0.2785
 3029SOL     OW15049   1.636  10.360   7.585  0.5847 -0.2085  0.0079
 3029SOL    HW115050   1.611  10.349   7.494  0.6102 -1.1367  0.0998
 3029SOL    HW215051   1.626  10.453   7.602 -1.2032 -0.2858 -0.4318
 3030SOL     OW15052   3.409   2.022  10.122  0.1436  0.5465  0.1280
 3030SOL    HW115053   3.393   1.928  10.116 -0.8128  0.6661  0.6316
 3030SOL    HW215054   3.337   2.062  10.074 -0.4717  1.0616  1.4302
 3031SOL     OW15055   0.621  10.118   8.068  0.6643  0.0189  0.4736
 3031SOL    HW115056   0.546  10.170   8.097  0.2956 -0.8373  1.0957
 3031SOL    HW215057   0.636  10.055   8.139  1.3058 -0.5132 -0.1121
 3032SOL     OW15058   7.459   9.166  10.131 -0.4152 -0.3097 -0.6924
 3032SOL    HW115059   7.497   9.087  10.169  0.0147  1.1453  2.1824
 3032SOL    HW215060   7.530   9.206  10.082 -0.2457 -1.0016 -1.0232
 3033SOL     OW15061   6.529  12.193   2.697 -0.0847  0.2605 -0.6316
 3033SOL    HW115062   6.621  12.171   2.715  0.2750  2.2175  0.1426
 3033SOL    HW215063   6.534  12.248   2.619 -0.6024  0.4019 -0.5620
 3034SOL     OW15064  10.623   6.075   3.236  0.1924 -0.2384 -0.1024
 3034SOL    HW115065  10.709   6.093   3.275  0.2231 -3.1857  1.5069
 3034SOL    HW215066  10.572   6.039   3.308 -1.3463 -1.4700 -1.7260
 3035SOL     OW15067  11.890   8.659   5.150 -0.2386 -0.1244  0.2558
 3035SOL    HW115068  11.866   8.715   5.223  1.6539 -1.4046  1.9587
 3035SOL    HW215069  11.952   8.710   5.099  0.7926 -0.3126  1.2980
 3036SOL     OW15070  11.778   8.299  10.059 -0.3317  0.2380 -0.3471
 3036SOL    HW115071  11.770   8.386  10.097 -0.1616 -0.1266  0.5431
 3036SOL    HW215072  11.690   8.278  10.027 -0.6701  0.2301  0.5711
 3037SOL     OW15073  10.474  10.568   5.539  0.4901  0.0698 -0.0332
 3037SOL    HW115074  10.459  10.502   5.472 -1.4607  0.5163 -0.0841
 3037SOL    HW215075  10.434  10.647   5.504 -2.5025 -0.1575  2.4331
 3038SOL     OW15076   7.249   5.497  12.084 -0.0608  0.2368 -0.4463
 3038SOL    HW115077   7.167   5.472  12.126  0.2200 -2.5467 -1.3273
 3038SOL    HW215078   7.223   5.526  11.996 -0.4295  3.9021  0.7111
 3039SOL     OW15079  11.929  11.302   1.727  0.1507 -0.1805  0.2057
 3039SOL    HW115080  12.015  11.287   1.690  0.6359 -0.4639  1.3802
 3039SOL    HW215081  11.889  11.369   1.672  1.7212  1.0721  0.5247
 3040SOL     OW15082   3.510   6.588   4.286 -0.0450  0.1265 -0.0084
 3040SOL    HW115083   3.483   6.596   4.195 -1.9954 -0.1018  0.5019
 3040SOL    HW215084   3.510   6.678   4.319 -1.2296  0.0438  0.2482
 3041SOL     OW15085   0.366   8.712   6.985  0.5164 -0.2120 -0.2495
 3041SOL    HW115086   0.286   8.662   6.997  0.7688 -0.2007  1.9328
 3041SOL    HW215087   0.337   8.797   6.953 -0.2316 -0.5423 -0.4710
 3042SOL     OW15088   5.710   8.125   7.795 -0.2804 -0.3508  0.6727
 3042SOL    HW115089   5.695   8.193   7.729 -2.2460  1.7024  3.0348
 3042SOL    HW215090   5.630   8.072   7.793  0.8428 -2.0962 -0.4823
 3043SOL     OW15091  12.068   5.416   8.734  0.1294 -0.4889  0.4666
 3043SOL    HW115092  12.007   5.472   8.686  0.8236  1.2656  1.5646
 3043SOL    HW215093  12.147   5.414   8.680 -0.6740 -2.4394 -0.7583
 3044SOL     OW15094   4.490   3.686   9.038 -0.1208 -0.6587  0.2757
 3044SOL    HW115095   4.430   3.614   9.055 -0.4598 -0.6135 -0.6663
 3044SOL    HW215096   4.433   3.761   9.021  0.1773 -0.7190 -1.0808
 3045SOL     OW15097  11.920   8.898   4.647  0.5696 -0.1075  0.3315
 3045SOL    HW115098  11.925   8.818   4.595  1.1204  0.8513 -1.1511
 3045SOL    HW215099  11.840   8.888   4.699 -0.0002 -1.1085 -0.6968
 3046SOL     OW15100   9.227   6.836   9.380 -0.3779  0.0328  0.2615
 3046SOL    HW115101   9.230   6.927   9.409  0.7152  0.6783 -1.7056
 3046SOL    HW215102   9.304   6.795   9.419  0.5683  0.6565 -0.8853
 3047SOL     OW15103   9.989  10.339  10.773 -0.3079 -0.2517 -0.4802
 3047SOL    HW115104  10.037  10.419  10.793 -3.0670  1.2987  0.4871
 3047SOL    HW215105   9.940  10.360  10.693 -1.0215 -0.9985 -0.2488
 3048SOL     OW15106   1.522   3.585   1.684 -0.2309 -0.6468  0.2489
 3048SOL    HW115107   1.590   3.651   1.680 -0.9503  0.0858 -0.1933
 3048SOL    HW215108   1.566   3.506   1.715  1.1202 -0.6141 -1.4828
 3049SOL     OW15109   6.348   3.587  11.515  0.2909  0.2606 -0.7612
 3049SOL    HW115110   6.278   3.603  11.451 -2.2357 -1.6899  1.3087
 3049SOL    HW215111   6.313   3.620  11.598  1.7508 -0.9533  0.3968
 3050SOL     OW15112   0.455  11.361   2.585 -0.0040  0.2659  0.0077
 3050SOL    HW115113   0.424  11.417   2.514 -0.0253  0.3501  0.0828
 3050SOL    HW215114   0.547  11.384   2.595  0.6635 -1.4411 -1.6079
 3051SOL     OW15115   4.004   0.082   8.595 -0.0521  0.2373  0.1791
 3051SOL    HW115116   3.993   0.150   8.529  2.3839 -1.7830 -2.5654
 3051SOL    HW215117   3.915   0.060   8.623 -1.0842  2.0513 -1.5081
 3052SOL     OW15118   2.257   5.417   0.229  0.0884 -0.5379 -0.1680
 3052SOL    HW115119   2.351   5.410   0.241 -0.0331 -0.7676  0.6830
 3052SOL    HW215120   2.244   5.505   0.192  0.5965 -0.3319  0.1349
 3053SOL     OW15121   1.974   9.906   6.715  0.1550  0.5926  0.5034
 3053SOL    HW115122   1.896   9.890   6.662 -1.1584  0.5376  2.3538
 3053SOL    HW215123   1.940   9.938   6.799  1.9443 -1.7226  2.2498
 3054SOL     OW15124   1.970   3.080  10.054  0.4175  0.6166  0.0866
 3054SOL    HW115125   1.954   3.173  10.041  0.4910  0.6223  0.0345
 3054SOL    HW215126   2.063   3.069  10.033  0.8378  0.8318  1.6626
 3055SOL     OW15127   6.015   8.343   3.987 -0.2306  0.1186 -0.0166
 3055SOL    HW115128   6.023   8.376   3.897  4.2926  2.2769  0.9114
 3055SOL    HW215129   6.020   8.248   3.978  0.3927  0.2954 -2.0595
 3056SOL     OW15130   6.539   3.206   0.542 -0.2424 -0.3785  0.5036
 3056SOL    HW115131   6.575   3.293   0.528  1.0573 -0.9902 -0.2009
 3056SOL    HW215132   6.489   3.213   0.624  0.9341  0.6967  1.1699
 3057SOL     OW15133   0.881  10.350  11.342  0.0481 -0.2449  0.2704
 3057SOL    HW115134   0.867  10.423  11.281 -1.6040 -0.9201 -0.2168
 3057SOL    HW215135   0.797  10.341  11.387 -0.4975 -3.0948 -1.1067
 3058SOL     OW15136   0.720   6.454   6.884 -0.0591  0.3207 -0.3617
 3058SOL    HW115137   0.695   6.546   6.877 -0.6252  0.2247  0.2923
 3058SOL    HW215138   0.684   6.425   6.968 -0.2994 -0.6238 -0.7747
 3059SOL     OW15139   1.506   5.626   2.696  0.7323 -0.0946 -0.2215
 3059SOL    HW115140   1.452   5.671   2.760  1.4146  0.1782  0.1796
 3059SOL    HW215141   1.565   5.694   2.663 -0.1846 -0.0136 -1.7949
 3060SOL     OW15142   1.457  12.157   0.707  0.7333 -0.6342  0.2967
 3060SOL    HW115143   1.381  12.136   0.652  1.2437 -1.1352 -0.2310
 3060SOL    HW215144   1.421  12.210   0.778 -0.0013 -0.2888 -0.3204
 3061SOL     OW15145   2.347  11.512   8.416 -0.1745 -0.5365  0.0561
 3061SOL    HW115146   2.251  11.510   8.418 -0.3466  1.6296 -1.6756
 3061SOL    HW215147   2.369  11.602   8.441  1.2103 -0.2029 -2.1379
 3062SOL     OW15148   7.443   6.680  12.410  0.0552  0.1271  0.6030
 3062SOL    HW115149   7.489   6.598  12.427  0.1699 -0.0997 -0.7181
 3062SOL    HW215150   7.512   6.746  12.405  0.1368 -0.0066 -0.1361
 3063SOL     OW15151   4.403   3.037   8.005 -0.4277  0.0156 -0.4076
 3063SOL    HW115152   4.449   2.965   7.962 -2.8108 -1.1517 -1.1972
 3063SOL    HW215153   4.410   3.016   8.099 -0.2701 -0.7402 -0.5782
 3064SOL     OW15154   0.323   0.713   9.355 -0.0552  0.1161 -0.0034
 3064SOL    HW115155   0.312   0.619   9.369 -1.7243  0.5113  1.6306
 3064SOL    HW215156   0.249   0.738   9.300  0.3691  0.4888 -0.4098
 3065SOL     OW15157   5.205   3.632   3.917  0.2053  0.4737 -0.6179
 3065SOL    HW115158   5.142   3.691   3.958  1.1665  0.0976  1.5346
 3065SOL    HW215159   5.242   3.582   3.990  2.7918  0.4951 -1.8141
 3066SOL     OW15160   9.523   8.424   3.529  0.3037 -0.7885 -0.0862
 3066SOL    HW115161   9.447   8.453   3.580 -0.4833  0.1141 -1.7113
 3066SOL    HW215162   9.487   8.396   3.445  1.5368 -2.5809 -0.0880
 3067SOL     OW15163   1.069   9.490   0.489 -0.2593  0.6511 -0.5880
 3067SOL    HW115164   1.079   9.435   0.411  1.2283  0.7633 -0.4972
 3067SOL    HW215165   1.120   9.446   0.557 -0.5985  1.1601  0.0137
 3068SOL     OW15166  11.552  12.481  10.647 -0.3267  0.2696  0.2553
 3068SOL    HW115167  11.565  12.445  10.560  0.6651  0.6556  0.2308
 3068SOL    HW215168  11.620  12.440  10.700  1.0292  2.2823  0.1564
 3069SOL     OW15169  10.384   9.082   9.459 -0.0873 -0.5802 -0.2696
 3069SOL    HW115170  10.368   8.989   9.475  2.7516 -0.9002  1.2610
 3069SOL    HW215171  10.348   9.125   9.537  0.9116 -0.6900  0.2658
 3070SOL     OW15172  12.139   3.551  12.444 -0.0934  0.0378  0.4650
 3070SOL    HW115173  12.111   3.640  12.468 -0.6391 -0.0569  0.2058
 3070SOL    HW215174  12.057   3.504  12.428  0.2119 -0.3450  0.0021
 3071SOL     OW15175   0.077   4.796  10.421 -0.2918 -0.0261  0.0273
 3071SOL    HW115176   0.113   4.854  10.354 -1.3665  1.2980  0.5351
 3071SOL    HW215177  -0.015   4.822  10.428 -0.8428 -1.8882  0.2164
 3072SOL     OW15178   7.771   4.592  10.897  0.0189  0.2247 -1.0369
 3072SOL    HW115179   7.852   4.576  10.849  2.0297  2.5101  1.2438
 3072SOL    HW215180   7.712   4.631  10.833  0.9852 -0.7570 -2.5857
 3073SOL     OW15181   6.652   2.874   0.686 -0.1120 -0.0183 -0.0459
 3073SOL    HW115182   6.684   2.955   0.726  0.2167  0.0866 -0.5039
 3073SOL    HW215183   6.619   2.901   0.600  0.3210 -0.4181 -0.3441
 3074SOL     OW15184   7.004   2.942   1.275 -0.1336 -0.3374  0.0245
 3074SOL    HW115185   6.917   2.902   1.269  0.2855 -1.0504 -1.8520
 3074SOL    HW215186   7.065   2.869   1.265  0.6723  0.3929 -0.5082
 3075SOL     OW15187   6.954   2.019   1.176 -0.3060 -0.1111  0.7671
 3075SOL    HW115188   7.023   1.996   1.238  1.1492  0.2314 -0.6529
 3075SOL    HW215189   6.951   2.115   1.178 -0.9074 -0.1289  0.9729
 3076SOL     OW15190   8.545   8.700   6.801 -0.2935 -0.5640  0.0918
 3076SOL    HW115191   8.562   8.788   6.766 -0.9782 -0.0322  1.0307
 3076SOL    HW215192   8.574   8.705   6.892 -1.8353 -0.8086  0.6186
 3077SOL     OW15193   5.854   8.265   2.271  0.1945 -0.0995 -0.2888
 3077SOL    HW115194   5.832   8.319   2.347 -1.2672  1.3262 -1.6700
 3077SOL    HW215195   5.823   8.314   2.196  1.2460 -1.6559 -1.8262
 3078SOL     OW15196   9.774   8.610  11.333 -0.0357 -0.2955  0.4821
 3078SOL    HW115197   9.798   8.628  11.424  0.0740  0.2138  0.3514
 3078SOL    HW215198   9.840   8.656  11.281 -0.1257 -0.5469  0.1396
 3079SOL     OW15199   2.344   4.854   6.993  0.4507 -0.3470  0.3788
 3079SOL    HW115200   2.416   4.856   7.056  0.4562 -0.9507  0.3957
 3079SOL    HW215201   2.297   4.936   7.008  0.7217 -0.2742  0.8488
 3080SOL     OW15202  10.353   9.930   9.540 -0.0644 -0.5680  0.2774
 3080SOL    HW115203  10.388   9.984   9.469 -2.2495  2.8636  1.5595
 3080SOL    HW215204  10.261   9.915   9.518 -0.2319 -1.3322  1.3585
 3081SOL     OW15205   1.993   8.610   6.331 -0.0700  0.0537 -0.5677
 3081SOL    HW115206   2.035   8.653   6.406 -0.8359  0.7853 -0.5435
 3081SOL    HW215207   2.055   8.542   6.305 -0.1978 -0.8361  1.2921
 3082SOL     OW15208  10.503   3.727   0.048  0.4292 -0.3851 -0.1125
 3082SOL    HW115209  10.534   3.650   0.001 -0.3885 -0.3777 -0.6926
 3082SOL    HW215210  10.443   3.770  -0.014  1.0149  0.8152  0.1273
 3083SOL     OW15211   3.769   0.717   1.361 -0.2605  0.5810  0.5359
 3083SOL    HW115212   3.735   0.679   1.280  1.7594  1.8039 -0.9800
 3083SOL    HW215213   3.691   0.746   1.409 -1.5605 -1.1613 -0.4158
 3084SOL     OW15214  11.950   1.740   8.554 -0.1151 -0.3256  0.2184
 3084SOL    HW115215  12.038   1.777   8.550  0.2910 -1.0339  1.8565
 3084SOL    HW215216  11.894   1.815   8.574  0.0879  0.1367 -0.8814
 3085SOL     OW15217   1.726  11.489   8.727  0.5093 -0.4864 -0.3069
 3085SOL    HW115218   1.804  11.450   8.687  0.9196 -0.6020  0.5663
 3085SOL    HW215219   1.750  11.499   8.819 -0.0978  0.5324 -0.2440
 3086SOL     OW15220   0.652   9.034  11.371  0.1697  0.1075  0.0506
 3086SOL    HW115221   0.618   9.117  11.338  0.0940 -0.2748 -0.8444
 3086SOL    HW215222   0.630   8.970  11.304  1.0560 -0.4747  0.2983
 3087SOL     OW15223   0.396   4.221   4.897 -0.0272  0.1011  0.7078
 3087SOL    HW115224   0.441   4.284   4.953  0.8004  0.1814 -0.0296
 3087SOL    HW215225   0.306   4.255   4.891 -0.1728  0.0204  2.0643
 3088SOL     OW15226   1.345   3.931   8.020  0.4785  0.1624  0.3027
 3088SOL    HW115227   1.314   3.977   8.098  1.0306  0.1496  0.5383
 3088SOL    HW215228   1.416   3.875   8.052  0.6100  0.0489 -0.1808
 3089SOL     OW15229   7.023   8.503   1.637  0.4417  0.4408  0.5854
 3089SOL    HW115230   6.957   8.434   1.641  0.7242 -0.0885 -1.9313
 3089SOL    HW215231   6.978   8.577   1.596  1.0139  0.5548  0.1426
 3090SOL     OW15232   7.441   8.253   0.883  0.2328 -0.0733 -0.3168
 3090SOL    HW115233   7.415   8.324   0.825  0.3733  0.2775  0.0448
 3090SOL    HW215234   7.444   8.176   0.826  2.4496  0.6380 -1.2878
 3091SOL     OW15235   2.296  12.259   7.772 -0.3936  0.2330 -0.1544
 3091SOL    HW115236   2.228  12.320   7.801 -0.2022  0.2516  0.2495
 3091SOL    HW215237   2.255  12.211   7.699 -0.2638  1.4119 -1.0216
 3092SOL     OW15238   8.714  12.271   5.950 -0.6264 -0.4268 -0.1040
 3092SOL    HW115239   8.779  12.256   5.881  0.5984 -0.1019  0.9319
 3092SOL    HW215240   8.632  12.286   5.903 -0.2253 -2.0210 -1.4206
 3093SOL     OW15241   0.706   4.624   9.568  0.1078  0.0896  0.5612
 3093SOL    HW115242   0.743   4.598   9.653 -0.5741 -1.9182  0.2979
 3093SOL    HW215243   0.631   4.679   9.590  0.5912  0.5025  1.2097
 3094SOL     OW15244   5.042   5.155   2.859  0.0986 -0.3634  0.1981
 3094SOL    HW115245   5.115   5.175   2.919  1.2407  1.1913 -1.5866
 3094SOL    HW215246   4.979   5.226   2.874 -0.0799 -0.5313  0.2471
 3095SOL     OW15247  11.594   9.985   1.925  0.0687  0.2483 -0.3951
 3095SOL    HW115248  11.534  10.057   1.946 -0.0107  0.4816 -1.4125
 3095SOL    HW215249  11.676  10.010   1.967 -0.2923  0.3500  0.2660
 3096SOL     OW15250   2.553   2.152   0.450 -0.0624 -0.2508  0.2264
 3096SOL    HW115251   2.459   2.133   0.448  0.0811 -1.0102  0.4431
 3096SOL    HW215252   2.594   2.069   0.477  1.1152 -1.6189 -4.7503
 3097SOL     OW15253   6.146  12.203   1.493  0.1464 -0.3516  0.1307
 3097SOL    HW115254   6.083  12.271   1.518  1.8331  1.9496 -1.4449
 3097SOL    HW215255   6.211  12.205   1.563  1.8802  2.0971 -1.3608
 3098SOL     OW15256   4.041   7.152   1.100 -0.3048  0.4401  0.1374
 3098SOL    HW115257   4.083   7.111   1.176 -2.2156 -3.8795 -0.8110
 3098SOL    HW215258   4.112   7.168   1.038  0.6478 -1.6928  0.5853
 3099SOL     OW15259   6.279  12.336   3.494  0.0887  0.3944 -0.8617
 3099SOL    HW115260   6.322  12.285   3.562 -0.6382  0.4464 -0.3438
 3099SOL    HW215261   6.350  12.381   3.448  0.6081  0.1328 -0.3218
 3100SOL     OW15262   9.013   8.836   9.957  0.2575  0.2047  0.4734
 3100SOL    HW115263   8.970   8.773   9.899 -1.3804  1.3935  0.3128
 3100SOL    HW215264   9.028   8.788  10.038  1.1613 -1.0293 -0.3967
 3101SOL     OW15265   2.828   0.686   1.047  0.2582  0.3892 -0.5251
 3101SOL    HW115266   2.861   0.752   0.987  1.0222  1.6830  1.2388
 3101SOL    HW215267   2.742   0.719   1.074  0.0142 -0.0767 -0.7202
 3102SOL     OW15268   8.341   2.750   9.104 -0.5697 -0.3503 -0.0316
 3102SOL    HW115269   8.398   2.728   9.030  0.4626  1.2490  0.2354
 3102SOL    HW215270   8.391   2.722   9.181 -1.1273 -0.9431  0.1208
 3103SOL     OW15271   7.752  11.285   5.059 -0.2263  0.2151 -0.1682
 3103SOL    HW115272   7.680  11.227   5.084  1.0192 -1.6250 -0.6941
 3103SOL    HW215273   7.725  11.321   4.975 -1.8757  1.9922  1.0442
 3104SOL     OW15274   7.320  11.039   1.458 -0.3452 -0.6387  0.4157
 3104SOL    HW115275   7.311  11.127   1.494  0.2801  0.5055 -1.9949
 3104SOL    HW215276   7.414  11.021   1.463 -0.5314 -1.4063  1.3563
 3105SOL     OW15277   0.739   5.109   5.865 -0.6382  0.0311  0.1948
 3105SOL    HW115278   0.694   5.118   5.781  1.2009  1.7048 -0.6983
 3105SOL    HW215279   0.671   5.077   5.925 -2.7722  1.5531 -1.2456
 3106SOL     OW15280   3.809   3.906   9.648 -1.0179 -0.7090  0.2557
 3106SOL    HW115281   3.743   3.948   9.592  0.4387 -0.5113 -1.3872
 3106SOL    HW215282   3.860   3.979   9.683  1.7398 -0.9144 -2.8793
 3107SOL     OW15283   0.898   5.193   1.842  0.0277  0.0699  0.4181
 3107SOL    HW115284   0.808   5.221   1.830 -0.1924 -1.1361 -1.1917
 3107SOL    HW215285   0.950   5.257   1.793  0.0032  0.4813  0.9272
 3108SOL     OW15286   5.304   1.426   6.599  0.3243 -0.1539  0.0069
 3108SOL    HW115287   5.378   1.486   6.588  0.3240  0.4691  2.7136
 3108SOL    HW215288   5.232   1.469   6.554  0.3554  1.9102  1.7843
 3109SOL     OW15289  11.019   1.784   2.452  0.1144 -0.0022  0.2557
 3109SOL    HW115290  10.940   1.837   2.447 -0.5296 -0.9837 -0.1764
 3109SOL    HW215291  11.056   1.787   2.364 -0.9417 -1.7642 -0.2923
 3110SOL     OW15292   3.845   7.053  10.268  0.6955 -0.3662 -0.4856
 3110SOL    HW115293   3.785   7.007  10.327  0.3083 -1.0901 -1.4075
 3110SOL    HW215294   3.824   7.145  10.280 -1.3431 -0.6198 -1.4879
 3111SOL     OW15295   7.877   5.089   0.504  0.2167  0.1715 -0.0377
 3111SOL    HW115296   7.925   5.126   0.577  1.2348 -1.1425 -0.0035
 3111SOL    HW215297   7.785   5.099   0.528  0.5247  0.4373  1.0671
 3112SOL     OW15298   8.048   6.477   2.289 -0.0077  0.1862 -0.3048
 3112SOL    HW115299   8.041   6.544   2.357 -1.1639  0.3427 -0.5627
 3112SOL    HW215300   8.050   6.394   2.336 -0.1111  0.3295 -0.0461
 3113SOL     OW15301  12.488   8.667   0.553 -0.1558 -0.1120 -0.5016
 3113SOL    HW115302  12.493   8.761   0.574  1.3240 -0.1023 -0.7275
 3113SOL    HW215303  12.457   8.664   0.462  1.0234  0.2474 -0.9369
 3114SOL     OW15304   8.974   4.575   7.627  0.0053 -0.0007  0.6133
 3114SOL    HW115305   9.017   4.637   7.686 -2.5922  1.3002  1.2896
 3114SOL    HW215306   8.911   4.529   7.682 -1.3525  0.1064 -0.7874
 3115SOL     OW15307  11.110  12.329   6.935 -0.4251  0.1235 -0.7196
 3115SOL    HW115308  11.148  12.413   6.963 -2.2733 -0.0859  2.9235
 3115SOL    HW215309  11.055  12.352   6.860 -1.7341  2.4646  0.8213
 3116SOL     OW15310  10.726   2.086  10.860  0.0742  0.1787 -0.2486
 3116SOL    HW115311  10.666   2.035  10.915  1.3745  0.1580  1.2332
 3116SOL    HW215312  10.677   2.164  10.836 -0.9289 -0.3761 -0.0514
 3117SOL     OW15313  12.489   8.818  10.377 -0.1249 -0.1372  0.0774
 3117SOL    HW115314  12.394   8.829  10.370 -0.0586  0.3483 -0.1484
 3117SOL    HW215315  12.521   8.837  10.289  0.1281 -0.9288 -0.0035
 3118SOL     OW15316   8.127   3.596   5.129 -0.2716 -0.1643  0.2585
 3118SOL    HW115317   8.207   3.567   5.086 -0.3977  0.9472 -0.7664
 3118SOL    HW215318   8.082   3.515   5.153  0.8133 -0.7997  0.2128
 3119SOL     OW15319   9.220   1.473   2.006  0.8329  0.3173  0.3017
 3119SOL    HW115320   9.140   1.420   2.006  1.7221 -1.2278 -2.1645
 3119SOL    HW215321   9.213   1.526   1.926  2.3903 -0.1160 -0.1587
 3120SOL     OW15322   2.401   1.904   2.791  0.1532 -0.1804  0.1449
 3120SOL    HW115323   2.406   1.895   2.696  0.1505  1.8835 -0.0877
 3120SOL    HW215324   2.492   1.911   2.820  0.1717 -1.1574  0.3534
 3121SOL     OW15325   9.222   4.486   8.892 -0.2359 -0.5020  0.2403
 3121SOL    HW115326   9.247   4.569   8.932 -1.4714 -0.0924  0.2100
 3121SOL    HW215327   9.169   4.443   8.958 -0.1231 -0.9905  0.0171
 3122SOL     OW15328   5.819   8.699   6.728  0.2847  0.2002 -0.3023
 3122SOL    HW115329   5.881   8.724   6.797 -0.8660 -0.4342  1.0250
 3122SOL    HW215330   5.767   8.778   6.714  0.5310  0.3357 -0.4667
 3123SOL     OW15331   0.157  11.891   1.850  0.3739  0.1950  0.0610
 3123SOL    HW115332   0.186  11.897   1.941 -0.0811  0.9300  0.1597
 3123SOL    HW215333   0.151  11.981   1.821 -0.9291  0.0174 -0.2439
 3124SOL     OW15334   5.430  11.353   0.253 -0.0403  0.5218 -0.1920
 3124SOL    HW115335   5.431  11.431   0.198 -1.5714  1.0999  0.5408
 3124SOL    HW215336   5.429  11.280   0.191 -1.1617  1.1522 -0.9618
 3125SOL     OW15337  10.506   3.468   9.674  0.3271  0.6297 -0.1042
 3125SOL    HW115338  10.542   3.519   9.746  1.9747 -0.1645 -0.3271
 3125SOL    HW215339  10.436   3.524   9.638  0.1992  1.4847  1.3989
 3126SOL     OW15340  10.847   8.186   9.756  0.5120 -0.6065  0.2318
 3126SOL    HW115341  10.768   8.201   9.808 -0.2981 -1.6297 -0.6697
 3126SOL    HW215342  10.845   8.253   9.688  0.7000 -0.3187  0.5035
 3127SOL     OW15343   5.996  10.637   8.023  0.3210  0.5827 -0.4328
 3127SOL    HW115344   6.033  10.586   7.951  0.6981  0.7108 -0.3381
 3127SOL    HW215345   6.065  10.636   8.090 -0.7993 -1.2252  0.7592
 3128SOL     OW15346   3.189   3.501   8.277  0.7243 -0.4302 -0.1259
 3128SOL    HW115347   3.131   3.434   8.240 -0.4299  1.5214 -2.1085
 3128SOL    HW215348   3.264   3.504   8.217 -0.0428  1.1389 -1.0808
 3129SOL     OW15349   2.566  12.166   7.850  0.2740 -0.5701 -0.7113
 3129SOL    HW115350   2.479  12.204   7.839  0.0514 -0.7067  0.4227
 3129SOL    HW215351   2.577  12.157   7.945  2.3498  1.3842 -0.6661
 3130SOL     OW15352  11.362   5.386   9.815  0.3419 -0.0900 -0.2268
 3130SOL    HW115353  11.291   5.373   9.753  0.4353 -0.7022 -0.2074
 3130SOL    HW215354  11.395   5.474   9.795  1.1150 -0.6889 -1.8263
 3131SOL     OW15355   8.984   6.719   7.364  0.1691  0.0563  0.0737
 3131SOL    HW115356   9.075   6.703   7.338  0.1250 -1.4157  0.7278
 3131SOL    HW215357   8.940   6.745   7.283  1.3966  2.0300 -0.0272
 3132SOL     OW15358   6.839  10.622   0.693  0.2164 -0.2150  0.1405
 3132SOL    HW115359   6.878  10.709   0.697  1.4775 -0.7379 -0.2845
 3132SOL    HW215360   6.882  10.573   0.762 -2.6480  0.2678  2.4271
 3133SOL     OW15361   7.912   7.639  11.352 -0.1409 -0.3080  0.6329
 3133SOL    HW115362   7.991   7.592  11.325 -0.3811 -0.2513 -0.2044
 3133SOL    HW215363   7.882   7.683  11.273 -1.1086 -0.4714  0.8885
 3134SOL     OW15364   6.245  10.854  11.503 -0.1920  0.0189  0.2080
 3134SOL    HW115365   6.289  10.780  11.462 -0.9113  0.6180 -1.7733
 3134SOL    HW215366   6.205  10.818  11.582 -2.5127 -2.3067 -1.8601
 3135SOL     OW15367   7.471  12.478   9.164 -0.4719 -0.9099  0.1435
 3135SOL    HW115368   7.477  12.493   9.259  0.7033 -0.5475  0.0263
 3135SOL    HW215369   7.389  12.520   9.138  0.6132  1.6306  0.5217
 3136SOL     OW15370   1.512  10.089  10.634  0.9228  0.0930 -0.0674
 3136SOL    HW115371   1.466  10.016  10.592  2.5172 -0.8362 -0.2674
 3136SOL    HW215372   1.468  10.098  10.718 -1.3392  0.9958 -1.2535
 3137SOL     OW15373   2.913  12.126  11.111 -0.0827  0.5688 -0.0922
 3137SOL    HW115374   2.837  12.074  11.138  1.6642 -1.7203  0.7540
 3137SOL    HW215375   2.907  12.128  11.015 -0.2004 -1.3191 -0.1733
 3138SOL     OW15376  10.874   1.654   6.811  0.4897  0.1260  0.7404
 3138SOL    HW115377  10.923   1.731   6.839  0.8509 -0.2812  1.2318
 3138SOL    HW215378  10.810   1.688   6.748  1.1850  0.7053  0.3417
 3139SOL     OW15379   7.753   6.760   7.169  0.1554 -0.2823 -0.6139
 3139SOL    HW115380   7.813   6.733   7.239  0.9284  2.1515 -0.2368
 3139SOL    HW215381   7.810   6.778   7.095  0.1110  2.8753 -0.0019
 3140SOL     OW15382  12.346   5.571   6.338  0.1691  0.1661  0.3592
 3140SOL    HW115383  12.380   5.660   6.346 -0.3995  0.2839  1.6428
 3140SOL    HW215384  12.364   5.530   6.422  0.0286 -0.7990 -0.0636
 3141SOL     OW15385   8.728   4.493   5.216  0.5331 -0.9558 -0.0290
 3141SOL    HW115386   8.632   4.494   5.218  0.4970  1.7132 -0.3743
 3141SOL    HW215387   8.749   4.453   5.131 -0.2354 -1.6422  0.0855
 3142SOL     OW15388   0.272   9.674   4.296 -0.2679 -0.5708  0.3971
 3142SOL    HW115389   0.332   9.741   4.264  0.4463 -1.4498 -0.1332
 3142SOL    HW215390   0.266   9.610   4.225 -1.4458 -0.7547  0.6370
 3143SOL     OW15391   6.649  11.901   3.439  0.0045  0.3701 -0.6010
 3143SOL    HW115392   6.596  11.828   3.473  2.6816 -1.6004 -0.3675
 3143SOL    HW215393   6.644  11.892   3.344  1.1148 -0.8178 -0.5775
 3144SOL     OW15394   4.584   2.953  12.294  0.0045 -0.8179 -0.4161
 3144SOL    HW115395   4.565   2.860  12.309 -2.2564 -0.1283  1.6571
 3144SOL    HW215396   4.498   2.993  12.279  0.8675  1.0201 -0.7239
 3145SOL     OW15397   6.209   1.842  11.611  0.0257 -0.0721  0.1625
 3145SOL    HW115398   6.291   1.839  11.660 -0.1731  0.6785  0.5598
 3145SOL    HW215399   6.190   1.935  11.601 -0.5539 -0.2299 -0.3084
 3146SOL     OW15400   2.839  11.551   5.426  0.4240 -0.0439  0.1226
 3146SOL    HW115401   2.907  11.520   5.366 -1.1144 -2.3653 -0.5434
 3146SOL    HW215402   2.837  11.486   5.495 -1.7799 -0.5999 -0.4052
 3147SOL     OW15403  11.331   6.980  10.866  0.2883  0.4339 -0.0979
 3147SOL    HW115404  11.271   6.948  10.934  0.7365 -2.4200 -0.9382
 3147SOL    HW215405  11.401   6.914  10.862  2.4364  2.5927 -0.5887
 3148SOL     OW15406   9.390   3.076   7.569 -0.1620 -0.2878 -0.3140
 3148SOL    HW115407   9.422   3.022   7.642  1.0165  0.3567 -0.3322
 3148SOL    HW215408   9.432   3.039   7.492 -0.4222 -0.1823 -0.5066
 3149SOL     OW15409   6.619   9.995   7.719  0.3008 -0.1245  0.5906
 3149SOL    HW115410   6.605  10.070   7.777  1.3782 -1.0186  2.0851
 3149SOL    HW215411   6.538   9.944   7.727 -0.3732  0.7632 -0.3089
 3150SOL     OW15412  10.349   5.906   2.745  0.2735 -0.8200  0.4943
 3150SOL    HW115413  10.387   5.991   2.768 -0.9401 -0.5590  1.7125
 3150SOL    HW215414  10.411   5.867   2.683  1.6765  0.2517  1.1687
 3151SOL     OW15415  12.140   2.997   2.127  0.1539  0.2972  0.2627
 3151SOL    HW115416  12.126   2.930   2.060  1.8332 -0.3328  0.4871
 3151SOL    HW215417  12.189   2.951   2.196 -0.7535  1.1561  1.5225
 3152SOL     OW15418   8.269   3.535   9.102 -0.4270 -0.5188  0.0227
 3152SOL    HW115419   8.287   3.441   9.092  1.5540 -0.2001  0.0554
 3152SOL    HW215420   8.265   3.549   9.196  1.4259 -0.2702  0.1015
 3153SOL     OW15421  10.297   1.542   8.743  0.0030  0.2432  0.4690
 3153SOL    HW115422  10.314   1.522   8.835  0.0826  0.4301  0.4949
 3153SOL    HW215423  10.384   1.553   8.705 -0.0208 -0.1239  0.3052
 3154SOL     OW15424   4.636   8.893   7.802 -0.2030  0.5715  0.1021
 3154SOL    HW115425   4.683   8.929   7.877 -0.6033 -0.2481  0.7619
 3154SOL    HW215426   4.663   8.948   7.729  3.2349 -0.9734  0.0597
 3155SOL     OW15427   6.344   3.992   8.156  0.1680 -0.2406 -0.3010
 3155SOL    HW115428   6.421   3.969   8.105  1.5703  2.5698  0.3499
 3155SOL    HW215429   6.371   4.067   8.208 -2.5119 -0.2580  1.3147
 3156SOL     OW15430  11.213   2.499   2.303  0.0870  0.4908 -0.1286
 3156SOL    HW115431  11.179   2.442   2.234  0.4633  2.2486 -1.8440
 3156SOL    HW215432  11.300   2.525   2.273  0.7131  0.4768  1.5459
 3157SOL     OW15433   6.326   3.103  11.553  0.2207  0.0047 -0.0068
 3157SOL    HW115434   6.320   3.168  11.483  2.3591  0.3689  0.0876
 3157SOL    HW215435   6.401   3.049  11.531 -1.3556 -2.3656  0.0564
 3158SOL     OW15436   6.013  11.576   4.612  0.0392  0.2557  0.6232
 3158SOL    HW115437   6.039  11.650   4.666  0.4719  1.3755 -1.0465
 3158SOL    HW215438   5.918  11.571   4.622 -0.1513  1.7903 -0.0954
 3159SOL     OW15439   2.110  11.678   7.132  0.0688 -0.0289  0.3975
 3159SOL    HW115440   2.140  11.641   7.049  2.2789 -0.4766  1.3028
 3159SOL    HW215441   2.018  11.653   7.138  0.0948 -0.7460 -1.4898
 3160SOL     OW15442  10.202   8.612  12.249  0.0791 -0.1639 -0.3573
 3160SOL    HW115443  10.233   8.537  12.199  1.2634 -2.1807  3.0616
 3160SOL    HW215444  10.260   8.684  12.223  1.2076 -1.3279 -1.1659
 3161SOL     OW15445   7.061   2.029   7.606 -0.3292 -0.7135  0.2847
 3161SOL    HW115446   7.036   1.957   7.663  0.2849 -0.6740  0.6209
 3161SOL    HW215447   7.100   2.094   7.665 -0.4671 -0.2983 -0.0701
 3162SOL     OW15448  11.425   8.054   3.522  0.7250  0.0053  0.3794
 3162SOL    HW115449  11.416   8.137   3.475  0.4228  0.1658  0.7133
 3162SOL    HW215450  11.508   8.017   3.490  0.7819  0.3597  0.1124
 3163SOL     OW15451   0.022   2.011   3.970  0.2849 -0.4138 -0.3452
 3163SOL    HW115452   0.020   2.105   3.987  0.7717 -0.3106 -0.8381
 3163SOL    HW215453  -0.004   1.971   4.053 -2.3786  0.2129 -0.7962
 3164SOL     OW15454   2.288   6.692  12.323  0.3459 -0.0447 -0.3177
 3164SOL    HW115455   2.289   6.652  12.236  2.0428 -3.8070  1.2201
 3164SOL    HW215456   2.213   6.652  12.366  0.9642 -0.1226  0.7070
 3165SOL     OW15457  11.011   1.855   5.945  0.1828 -0.6283 -0.3527
 3165SOL    HW115458  11.013   1.951   5.946 -0.6238 -0.6031  1.0869
 3165SOL    HW215459  10.920   1.833   5.966  0.8029 -1.7132  1.3182
 3166SOL     OW15460  10.950  12.193   3.588 -0.3582 -0.3080 -0.1223
 3166SOL    HW115461  10.962  12.099   3.603 -0.1311  0.0202  1.9887
 3166SOL    HW215462  10.904  12.225   3.666 -2.8655  0.9156 -1.9360
 3167SOL     OW15463   0.840   3.287   4.354  0.5174 -0.0736  0.0499
 3167SOL    HW115464   0.862   3.375   4.384  0.0585  0.2583 -0.5512
 3167SOL    HW215465   0.854   3.231   4.430 -0.7205  0.7532  0.9323
 3168SOL     OW15466   3.935  10.622   7.672  0.1295  0.2044 -0.6809
 3168SOL    HW115467   3.918  10.663   7.756 -1.4863 -1.1703 -0.2988
 3168SOL    HW215468   4.026  10.646   7.652  0.2111  1.3973  0.9404
 3169SOL     OW15469   7.402   4.901   7.931 -0.5847  0.2982 -0.0614
 3169SOL    HW115470   7.378   4.923   8.020 -0.2011 -0.0735  0.1400
 3169SOL    HW215471   7.374   4.810   7.920 -1.0838  0.5001 -0.4873
 3170SOL     OW15472   8.217   0.821  10.058 -0.1251 -0.3650  0.2510
 3170SOL    HW115473   8.222   0.907  10.015 -0.4734 -0.2104  0.5190
 3170SOL    HW215474   8.306   0.806  10.092  0.3438 -0.7835 -1.0787
 3171SOL     OW15475  10.168   1.975   1.337  0.0962 -0.0765  0.1931
 3171SOL    HW115476  10.219   1.899   1.310 -1.7295 -1.7573  1.1883
 3171SOL    HW215477  10.128   2.007   1.256  2.5636  1.2384 -0.5860
 3172SOL     OW15478  10.475   8.442   2.719 -0.2149  0.4827  0.2856
 3172SOL    HW115479  10.408   8.373   2.717  0.6440 -0.3520 -0.5787
 3172SOL    HW215480  10.551   8.400   2.760 -0.1508  1.3796  1.1302
 3173SOL     OW15481  10.969   0.744   8.382 -0.0498 -0.0668  0.1898
 3173SOL    HW115482  11.015   0.666   8.413 -0.6013 -0.7549 -0.7077
 3173SOL    HW215483  10.942   0.723   8.293  0.3543  1.3863 -0.3125
 3174SOL     OW15484  10.747   2.135   0.287 -0.0661 -0.2674 -0.2403
 3174SOL    HW115485  10.818   2.073   0.268 -0.1526 -0.2627 -0.5827
 3174SOL    HW215486  10.793   2.217   0.305  0.0512 -0.4362  0.2561
 3175SOL     OW15487  11.792   9.338   8.719  0.3511  0.7878  0.2333
 3175SOL    HW115488  11.759   9.252   8.746 -0.0041  0.6770 -0.5275
 3175SOL    HW215489  11.883   9.322   8.694 -0.1580  0.3051 -1.4014
 3176SOL     OW15490  11.757   4.414   7.409  0.3924 -0.2120  0.1261
 3176SOL    HW115491  11.709   4.366   7.342  0.9775 -2.1343  1.0045
 3176SOL    HW215492  11.726   4.505   7.401 -0.1219 -0.5337 -2.1780
 3177SOL     OW15493   0.336   5.687  10.239 -0.0910  0.3836  0.5930
 3177SOL    HW115494   0.310   5.776  10.262  1.4671  1.1935 -0.5799
 3177SOL    HW215495   0.330   5.684  10.143  1.1893 -0.3229  0.5110
 3178SOL     OW15496   5.628   1.114  10.292 -0.2317  0.3158 -0.4407
 3178SOL    HW115497   5.659   1.032  10.329  0.2965 -0.2900 -2.1170
 3178SOL    HW215498   5.705   1.150  10.247 -0.9625  0.7054 -1.4171
 3179SOL     OW15499   4.032   4.419   7.170 -0.1249  0.2409  0.2327
 3179SOL    HW115500   4.110   4.372   7.199 -0.4189 -0.0877  0.5055
 3179SOL    HW215501   3.992   4.452   7.251 -0.7530 -0.3706  0.1854
 3180SOL     OW15502   1.121   4.878   0.074 -0.0101 -0.2871 -0.1558
 3180SOL    HW115503   1.076   4.914   0.151  1.1178 -1.2358  0.9959
 3180SOL    HW215504   1.067   4.802   0.050 -0.7265  0.3874 -0.7297
 3181SOL     OW15505   3.982   2.877   3.349 -0.7694  0.4884 -0.3696
 3181SOL    HW115506   3.957   2.815   3.281  1.8832  0.6761 -1.6233
 3181SOL    HW215507   3.933   2.956   3.329 -0.4395  0.3603 -1.7641
 3182SOL     OW15508  10.150  11.093   0.115 -0.0880 -0.3113 -0.3790
 3182SOL    HW115509  10.086  11.159   0.089  0.4767  0.9148  1.1817
 3182SOL    HW215510  10.172  11.115   0.205  0.9978 -1.9560 -0.1964
 3183SOL     OW15511   6.137   5.238   9.236  0.1873 -0.5733 -0.1158
 3183SOL    HW115512   6.133   5.279   9.149 -2.2836 -2.0149 -0.7576
 3183SOL    HW215513   6.178   5.305   9.292 -0.2078  1.2602 -1.9084
 3184SOL     OW15514   2.342   3.381   4.864 -0.0022  0.1061  0.3066
 3184SOL    HW115515   2.397   3.422   4.797  0.1378 -0.4582  0.0671
 3184SOL    HW215516   2.354   3.435   4.942  0.7571  0.0920  0.2058
 3185SOL     OW15517   9.102   2.250   4.266 -0.9799  0.0262 -0.3720
 3185SOL    HW115518   9.179   2.203   4.298 -0.6799  0.3510 -0.6150
 3185SOL    HW215519   9.034   2.182   4.259 -0.5189 -0.3937 -0.8314
 3186SOL     OW15520   6.934   8.677   1.213  0.3300 -1.1182  0.1170
 3186SOL    HW115521   6.882   8.732   1.273  1.2805 -1.6569  1.4908
 3186SOL    HW215522   6.870   8.616   1.176 -0.4873 -0.0199 -0.3280
 3187SOL     OW15523  12.102   3.293   7.984 -0.3816 -0.0337  0.4511
 3187SOL    HW115524  12.189   3.334   7.988 -0.3216 -0.2413  1.7623
 3187SOL    HW215525  12.114   3.209   8.029 -0.7840 -1.0003 -1.1714
 3188SOL     OW15526  12.433   4.701   3.232  0.4392  0.0625  0.2008
 3188SOL    HW115527  12.391   4.717   3.317  0.5192  2.0099 -0.0713
 3188SOL    HW215528  12.370   4.735   3.168  1.2473  0.4885 -0.3772
 3189SOL     OW15529   8.742   5.459  10.427 -0.4528  0.2400 -0.2965
 3189SOL    HW115530   8.653   5.457  10.392 -0.8732  0.6991  0.7081
 3189SOL    HW215531   8.781   5.538  10.388 -0.6109  0.2433 -0.4482
 3190SOL     OW15532   0.692  10.040   9.965  0.2481 -0.0859  0.4470
 3190SOL    HW115533   0.648   9.968   9.918  0.7629  0.3668 -0.7900
 3190SOL    HW215534   0.667  10.028  10.056 -2.5379  0.1924 -0.1701
 3191SOL     OW15535   0.559   0.084   8.750  0.3449 -0.0923 -0.3129
 3191SOL    HW115536   0.633   0.073   8.809  0.0431 -0.3449  0.0247
 3191SOL    HW215537   0.596   0.080   8.662  0.4449 -2.4204 -0.2025
 3192SOL     OW15538   3.280   8.723   3.195  0.7372  0.1857  0.5853
 3192SOL    HW115539   3.188   8.709   3.174  1.2431 -1.8511 -0.5798
 3192SOL    HW215540   3.323   8.737   3.111  1.8266 -1.3805  0.8228
 3193SOL     OW15541   0.349   6.237   4.034  0.2986  0.5424  0.2660
 3193SOL    HW115542   0.275   6.288   4.068  1.1252  1.3029  0.9870
 3193SOL    HW215543   0.421   6.300   4.029  0.6438  0.0575 -1.3869
 3194SOL     OW15544  11.484   5.518   6.490 -0.6298  0.3028 -0.2153
 3194SOL    HW115545  11.570   5.476   6.483 -0.5166  0.4353  0.3548
 3194SOL    HW215546  11.431   5.458   6.541 -0.9283  0.1507 -0.6953
 3195SOL     OW15547   9.912   4.198  12.209  0.2232 -0.1527  0.3195
 3195SOL    HW115548   9.883   4.125  12.154 -1.2657  1.2661 -0.8664
 3195SOL    HW215549   9.977   4.244  12.155  1.3326 -0.6753  1.1540
 3196SOL     OW15550   0.390  10.203   3.769 -0.4052  0.0837 -0.3164
 3196SOL    HW115551   0.372  10.250   3.688  1.1899  0.5328 -0.4421
 3196SOL    HW215552   0.333  10.127   3.766 -1.1153  0.6328 -1.3606
 3197SOL     OW15553   6.574   2.092  10.454  0.0846 -0.1016 -0.3693
 3197SOL    HW115554   6.530   2.157  10.509 -0.1895 -0.4994 -0.1096
 3197SOL    HW215555   6.571   2.011  10.506  0.0903 -0.4121 -0.8459
 3198SOL     OW15556   6.287   2.457   1.156  0.1514  0.7343  0.4666
 3198SOL    HW115557   6.357   2.454   1.222  0.8261  0.6560 -0.2497
 3198SOL    HW215558   6.294   2.544   1.117  0.8411  0.1921 -0.6606
 3199SOL     OW15559   3.931   9.225  11.308 -0.4307 -0.1296 -0.5682
 3199SOL    HW115560   3.985   9.254  11.234 -0.0012 -1.4782 -0.8226
 3199SOL    HW215561   3.842   9.244  11.281 -0.3532 -1.3357 -1.8468
 3200SOL     OW15562   1.639   5.376   3.287  0.0556  0.0099 -0.4593
 3200SOL    HW115563   1.716   5.391   3.342 -0.0624 -1.5480  0.2044
 3200SOL    HW215564   1.665   5.306   3.227 -0.8538 -0.6393 -0.1308
 3201SOL     OW15565   9.041   5.182  11.397  0.1512  0.4417  0.1582
 3201SOL    HW115566   9.052   5.273  11.369  1.0317  0.6546  1.1384
 3201SOL    HW215567   9.014   5.188  11.489  0.9392 -0.2897  0.4511
 3202SOL     OW15568   4.272   5.868   8.913 -0.4343  0.1016  0.5726
 3202SOL    HW115569   4.277   5.822   8.830  0.4694  2.1035 -0.5509
 3202SOL    HW215570   4.324   5.814   8.974 -2.1319 -2.0387  0.2515
 3203SOL     OW15571   4.215   1.228   9.039  0.3532  0.4002 -0.0164
 3203SOL    HW115572   4.183   1.299   9.096  0.6521 -0.2139  0.9321
 3203SOL    HW215573   4.293   1.265   8.998 -0.2470  1.0927 -0.5943
 3204SOL     OW15574  12.480   3.202  12.293 -0.3798 -0.3420 -0.1680
 3204SOL    HW115575  12.390   3.227  12.275  0.0150  1.0431 -0.3415
 3204SOL    HW215576  12.521   3.198  12.206 -0.0397  0.0033 -0.0243
 3205SOL     OW15577   2.130   3.239   5.097 -0.5924 -0.3465  0.6170
 3205SOL    HW115578   2.215   3.207   5.129 -0.8408 -1.1138  0.5381
 3205SOL    HW215579   2.129   3.217   5.004 -0.6889  0.0791  0.5168
 3206SOL     OW15580  11.157   6.947   5.432 -0.2084  0.0740 -0.2403
 3206SOL    HW115581  11.071   6.939   5.392  0.0776 -1.0438 -0.6654
 3206SOL    HW215582  11.197   7.022   5.387 -1.2374  1.1461  0.5503
 3207SOL     OW15583   7.556   7.785   0.756 -0.3872 -0.3748  0.5375
 3207SOL    HW115584   7.522   7.695   0.756 -1.1698 -0.0988 -0.2261
 3207SOL    HW215585   7.638   7.780   0.805 -1.6554 -1.0243  2.7433
 3208SOL     OW15586   6.547   0.413   7.502  0.5216 -0.2285  0.1170
 3208SOL    HW115587   6.556   0.425   7.596  0.3112 -1.4430  0.2954
 3208SOL    HW215588   6.565   0.500   7.466  1.7211  0.0061  1.1951
 3209SOL     OW15589  12.276   2.714   9.044  0.4012  0.0889  0.7142
 3209SOL    HW115590  12.300   2.806   9.053  1.0921  0.0847 -0.8045
 3209SOL    HW215591  12.181   2.713   9.056  0.3164  1.0834  0.2407
 3210SOL     OW15592   9.461   6.701   6.723 -0.0325 -0.0499  0.4428
 3210SOL    HW115593   9.482   6.794   6.712 -0.4141 -0.0272 -0.2027
 3210SOL    HW215594   9.487   6.661   6.640 -0.8289 -0.3297  0.3190
 3211SOL     OW15595  11.613   2.816   0.501  0.3851  0.4444  0.2253
 3211SOL    HW115596  11.581   2.739   0.548  0.9106 -0.8754 -1.4392
 3211SOL    HW215597  11.535   2.867   0.481  0.1114  0.8230  2.0861
 3212SOL     OW15598   4.525   0.187   2.314  0.4779  0.7267  0.6098
 3212SOL    HW115599   4.464   0.159   2.381 -0.0892 -0.4911 -0.3726
 3212SOL    HW215600   4.502   0.136   2.237  2.8885 -0.0021  0.2645
 3213SOL     OW15601   9.481   7.332  10.942 -0.4457 -0.4140  0.7999
 3213SOL    HW115602   9.538   7.322  11.018  0.1473 -0.6277  0.3357
 3213SOL    HW215603   9.512   7.267  10.879 -1.6641 -1.0248  0.8033
 3214SOL     OW15604   1.819   5.946   3.694 -0.5012  0.1112 -0.1024
 3214SOL    HW115605   1.914   5.944   3.687 -0.4298 -0.0887  0.8379
 3214SOL    HW215606   1.788   5.959   3.604  0.3458 -1.7696 -0.7130
 3215SOL     OW15607   3.151  11.810   6.263  0.0883  0.7814  0.3469
 3215SOL    HW115608   3.101  11.869   6.207 -1.2148  0.5511  1.2260
 3215SOL    HW215609   3.233  11.795   6.215 -1.3153 -0.1205 -1.9592
 3216SOL     OW15610   2.693   9.222   9.457 -0.0783 -0.4531  0.0347
 3216SOL    HW115611   2.636   9.293   9.486 -1.5043 -2.2130  1.8562
 3216SOL    HW215612   2.743   9.198   9.535  1.8453 -0.1874 -1.0670
 3217SOL     OW15613   1.338   7.090  11.220 -0.2715 -0.2246  0.9384
 3217SOL    HW115614   1.427   7.057  11.210  0.1648  0.3649  2.5132
 3217SOL    HW215615   1.342   7.147  11.297 -1.5350  1.5910 -0.2722
 3218SOL     OW15616   4.557   2.819   1.238  0.5419  0.1060  0.2834
 3218SOL    HW115617   4.528   2.851   1.153  0.7332  1.6949  0.7843
 3218SOL    HW215618   4.523   2.729   1.243 -1.0776  0.6279 -0.6725
 3219SOL     OW15619   1.941   4.625   4.481 -0.2189 -0.2241 -0.3870
 3219SOL    HW115620   2.025   4.583   4.499 -1.0731 -1.4790  0.8768
 3219SOL    HW215621   1.881   4.553   4.464 -0.9176  0.6767 -1.9909
 3220SOL     OW15622   8.273  10.625   3.589  0.1242 -0.5229 -0.5670
 3220SOL    HW115623   8.285  10.586   3.675  0.9942  0.4033 -0.2610
 3220SOL    HW215624   8.199  10.686   3.600  0.3957 -0.2199 -0.4084
 3221SOL     OW15625  11.861   2.128   7.604 -0.3275 -0.2078 -0.1202
 3221SOL    HW115626  11.812   2.046   7.614 -0.2269 -0.2889 -0.2897
 3221SOL    HW215627  11.856   2.147   7.511  0.0827 -0.2907 -0.1613
 3222SOL     OW15628   3.267   2.360   6.480  0.0815 -0.1787 -0.4822
 3222SOL    HW115629   3.228   2.287   6.528  0.8384  0.5952  1.3817
 3222SOL    HW215630   3.361   2.345   6.486  0.2168 -0.6284 -2.7077
 3223SOL     OW15631   7.225   2.837   9.228 -0.1278  0.5038  0.1137
 3223SOL    HW115632   7.146   2.891   9.225 -0.5722 -0.0584  1.0892
 3223SOL    HW215633   7.282   2.873   9.160 -1.7217  0.1222 -1.4822
 3224SOL     OW15634  11.636   6.659   1.397 -0.2098 -0.3031  0.4056
 3224SOL    HW115635  11.569   6.614   1.448 -1.6193  0.2300 -0.8950
 3224SOL    HW215636  11.718   6.641   1.443 -1.1822 -1.3279  1.8056
 3225SOL     OW15637   0.721  11.307  11.784  0.0163 -0.0576  0.1074
 3225SOL    HW115638   0.810  11.342  11.795 -0.6710  3.0328 -2.6696
 3225SOL    HW215639   0.734  11.229  11.729  1.0580  0.2923 -0.1847
 3226SOL     OW15640  11.130   3.345  12.484 -0.0296  0.1657  0.0018
 3226SOL    HW115641  11.145   3.434  12.452 -2.0238  0.7193  0.4593
 3226SOL    HW215642  11.042   3.323  12.454 -0.8677 -0.4009  2.6173
 3227SOL     OW15643  11.702  11.507   5.490 -0.2323  0.2715 -0.6837
 3227SOL    HW115644  11.641  11.581   5.500  1.2987  1.4789  0.1089
 3227SOL    HW215645  11.699  11.487   5.397 -2.4909 -0.3133 -0.5578
 3228SOL     OW15646   2.970   2.884   1.278 -0.3583  0.2455  0.0885
 3228SOL    HW115647   2.915   2.827   1.223  0.0614  1.6536 -1.8825
 3228SOL    HW215648   2.910   2.952   1.308 -0.3830 -0.0176  0.6454
 3229SOL     OW15649   8.342   5.820   8.311  0.5708  0.4562  0.0474
 3229SOL    HW115650   8.342   5.785   8.222  1.2195  1.3190 -0.3029
 3229SOL    HW215651   8.292   5.755   8.362  1.2306 -0.6629 -0.6902
 3230SOL     OW15652   4.086   2.331  11.221  0.4408 -0.6636 -0.1311
 3230SOL    HW115653   4.161   2.363  11.271  0.9235 -0.0225 -1.2364
 3230SOL    HW215654   4.096   2.371  11.135 -0.7313 -1.2288 -0.5429
 3231SOL     OW15655   5.290   7.632  10.763  0.2811 -0.2321 -0.2485
 3231SOL    HW115656   5.279   7.544  10.799 -0.6586  0.1264  0.3404
 3231SOL    HW215657   5.258   7.691  10.831 -0.3039  0.5117 -1.1537
 3232SOL     OW15658   9.967   8.925   5.040  0.2018 -0.1961 -0.1515
 3232SOL    HW115659   9.879   8.960   5.048  0.1987 -0.4759  1.2060
 3232SOL    HW215660  10.021   9.000   5.016 -0.3996 -0.0290 -0.9977
 3233SOL     OW15661   8.755  10.893   8.622 -0.0052  0.5762 -0.2640
 3233SOL    HW115662   8.826  10.913   8.683  0.6892 -0.9878 -0.5211
 3233SOL    HW215663   8.688  10.959   8.642  0.2913  0.2777  2.0243
 3234SOL     OW15664   4.630   9.532   8.066  0.1984 -0.0470 -0.0954
 3234SOL    HW115665   4.572   9.598   8.028 -0.2983 -0.7051 -0.5261
 3234SOL    HW215666   4.624   9.458   8.005  2.6663  0.3888 -0.9661
 3235SOL     OW15667   3.161   7.007   6.372 -0.4468  0.3034  0.1404
 3235SOL    HW115668   3.174   6.986   6.279  1.1721  0.6231  0.2610
 3235SOL    HW215669   3.214   7.086   6.385  0.6207 -0.6313  1.6893
 3236SOL     OW15670   6.408  11.025  10.032 -0.2480  0.1057 -0.0768
 3236SOL    HW115671   6.449  10.958   9.977 -1.9882  0.1085 -1.4716
 3236SOL    HW215672   6.458  11.105  10.014 -1.4942  0.4128 -2.7244
 3237SOL     OW15673   5.520   1.374  12.220  0.1076  0.0478 -0.5513
 3237SOL    HW115674   5.530   1.309  12.151 -0.5221  1.3476 -1.9378
 3237SOL    HW215675   5.441   1.347  12.268 -0.8051  0.3729 -1.8238
 3238SOL     OW15676   3.135   7.638   3.312 -0.1808 -0.3148  0.0380
 3238SOL    HW115677   3.108   7.550   3.286  0.3247 -0.3356 -0.4333
 3238SOL    HW215678   3.068   7.696   3.275  0.8518 -0.2909 -1.8718
 3239SOL     OW15679  11.305   9.366  12.075  0.2770 -0.0102 -0.0105
 3239SOL    HW115680  11.234   9.322  12.029  0.1360  1.4626 -1.2777
 3239SOL    HW215681  11.371   9.298  12.088 -1.5399 -1.5589  1.7331
 3240SOL     OW15682   8.309  10.633   1.714 -0.0098  0.2267 -0.1053
 3240SOL    HW115683   8.254  10.558   1.739 -0.9731  0.8529 -0.3115
 3240SOL    HW215684   8.285  10.651   1.624  0.9579  0.1629 -0.3855
 3241SOL     OW15685   8.445   2.253   6.357 -0.4730 -0.6804  0.5515
 3241SOL    HW115686   8.361   2.270   6.314 -0.1128  0.2249  0.1750
 3241SOL    HW215687   8.442   2.304   6.438  0.8796  1.9805 -0.9026
 3242SOL     OW15688   5.373   2.331  10.681 -0.1059  0.2832  0.2378
 3242SOL    HW115689   5.427   2.401  10.646  0.4169 -0.5810 -0.7390
 3242SOL    HW215690   5.429   2.289  10.747  0.4371 -0.5617 -0.7178
 3243SOL     OW15691   7.630   3.249   7.461 -0.3575  0.0382 -0.3762
 3243SOL    HW115692   7.678   3.292   7.390  0.0966  0.2254  0.0472
 3243SOL    HW215693   7.566   3.314   7.490  0.5623  0.5661  0.5014
 3244SOL     OW15694   8.246  11.121   6.452 -0.1045 -0.2461  0.1306
 3244SOL    HW115695   8.212  11.185   6.390 -0.3428 -0.9169 -0.4358
 3244SOL    HW215696   8.322  11.164   6.492 -1.7255  1.3948  1.6243
 3245SOL     OW15697   2.919  10.611   6.311 -0.7122  0.3898 -0.6240
 3245SOL    HW115698   2.925  10.646   6.223  1.7181 -1.0659 -1.1092
 3245SOL    HW215699   2.892  10.520   6.299  0.2136  0.0076  0.0658
 3246SOL     OW15700   2.938   4.922   6.340  0.0378 -0.7848 -0.3793
 3246SOL    HW115701   2.924   4.978   6.264 -0.3486 -1.6645 -0.9683
 3246SOL    HW215702   2.864   4.862   6.340 -1.0927  0.4746  1.8946
 3247SOL     OW15703  12.080   3.634   5.184  0.1009 -0.0539 -0.3554
 3247SOL    HW115704  12.020   3.687   5.236  0.0693 -0.3743 -0.0612
 3247SOL    HW215705  12.139   3.698   5.144  1.7259  0.0971  2.0711
 3248SOL     OW15706   4.324   0.241   5.980  0.3746  0.1118  0.3109
 3248SOL    HW115707   4.408   0.271   6.015  0.2382 -0.2897  1.0044
 3248SOL    HW215708   4.298   0.310   5.918  1.3825  0.0563 -0.1959
 3249SOL     OW15709   9.608   5.466   1.875  0.6927 -0.2740  0.3223
 3249SOL    HW115710   9.551   5.401   1.833  0.2036  0.1613  0.2913
 3249SOL    HW215711   9.689   5.419   1.894  0.9889 -0.4618 -1.2479
 3250SOL     OW15712   8.209   9.833   5.019 -0.3589 -0.0347  0.0778
 3250SOL    HW115713   8.230   9.892   5.091  0.3251  0.9224 -0.8691
 3250SOL    HW215714   8.140   9.878   4.970 -1.6894 -1.2410  0.8043
 3251SOL     OW15715   5.122   5.212   6.053  0.1071 -0.1136 -0.0756
 3251SOL    HW115716   5.176   5.289   6.033 -1.3881  0.8508 -0.5447
 3251SOL    HW215717   5.079   5.191   5.970  0.1679 -1.1928  0.1649
 3252SOL     OW15718   7.944   3.484   8.314 -0.3605  0.0768  0.1891
 3252SOL    HW115719   7.856   3.465   8.347 -0.3626 -0.3202 -0.0296
 3252SOL    HW215720   7.929   3.515   8.224 -0.3093  0.4851  0.3213
 3253SOL     OW15721   3.198   3.111   3.817  0.3932  0.4366  0.0120
 3253SOL    HW115722   3.202   3.197   3.859  1.7924  0.1723  0.4568
 3253SOL    HW215723   3.287   3.093   3.788 -0.0741 -0.4517 -0.9532
 3254SOL     OW15724  11.335   0.525   9.896  0.1698  0.4979  0.1462
 3254SOL    HW115725  11.283   0.526   9.976  0.2076 -0.4023  0.1938
 3254SOL    HW215726  11.279   0.481   9.832  1.1255 -1.1511  0.3959
 3255SOL     OW15727   6.752   6.973   7.898 -0.1753  0.1635 -0.3102
 3255SOL    HW115728   6.763   6.909   7.968 -0.7338 -1.2853 -1.4931
 3255SOL    HW215729   6.839   7.013   7.888  0.1374 -0.2701  0.5671
 3256SOL     OW15730   1.656   4.367   5.351  0.2653  0.1692  0.4513
 3256SOL    HW115731   1.747   4.397   5.357  0.1652  0.5594  0.0942
 3256SOL    HW215732   1.657   4.279   5.389  0.8622  0.0285  0.1308
 3257SOL     OW15733   1.298   8.456   3.633 -0.1079 -0.1233  0.6797
 3257SOL    HW115734   1.251   8.375   3.653  0.0438 -0.7323 -1.2580
 3257SOL    HW215735   1.391   8.431   3.638 -0.0585 -0.4342 -1.1111
 3258SOL     OW15736   1.017  10.761   3.184  0.5828  0.1738 -0.1823
 3258SOL    HW115737   0.970  10.707   3.120  0.7196  2.0997 -2.0234
 3258SOL    HW215738   1.109  10.737   3.172  0.6456  0.7652 -1.0027
 3259SOL     OW15739   7.752  12.064   5.060  0.2326  0.0046  0.0432
 3259SOL    HW115740   7.707  12.077   4.976 -0.7284 -0.2940  0.4964
 3259SOL    HW215741   7.844  12.081   5.041  0.0889 -0.5069 -1.1691
 3260SOL     OW15742   7.901   4.629   8.846  0.0198  0.2020  0.3095
 3260SOL    HW115743   7.941   4.561   8.792 -0.7635 -0.9228  1.1156
 3260SOL    HW215744   7.942   4.619   8.932  1.4096  2.1101 -0.0601
 3261SOL     OW15745   0.150  12.410   3.143 -0.1889  0.2199  0.0756
 3261SOL    HW115746   0.226  12.354   3.129 -1.1470 -0.7078 -1.8500
 3261SOL    HW215747   0.176  12.495   3.108  0.2580  0.1699  0.2758
 3262SOL     OW15748   7.162   8.605  11.198  0.0664  0.3412  0.1556
 3262SOL    HW115749   7.181   8.524  11.150 -0.5109 -0.0230  0.5213
 3262SOL    HW215750   7.244   8.627  11.242  0.7999  1.0441 -1.4965
 3263SOL     OW15751   0.900   3.956   8.823  0.5903 -0.3106 -0.1789
 3263SOL    HW115752   0.957   4.033   8.813  0.1806  0.0541  0.2482
 3263SOL    HW215753   0.814   3.993   8.841  0.1821 -0.8601 -0.9768
 3264SOL     OW15754   0.526   2.319   0.542  0.7378  0.1943 -0.2397
 3264SOL    HW115755   0.441   2.327   0.585  0.4403 -0.4723 -0.6911
 3264SOL    HW215756   0.543   2.406   0.507 -0.2458  0.0909 -1.0264
 3265SOL     OW15757   1.470   2.040   1.789  0.0758  0.3568  0.1291
 3265SOL    HW115758   1.498   1.972   1.849  0.0143  0.2127 -0.0062
 3265SOL    HW215759   1.522   2.117   1.814 -0.0086  0.3189  0.4174
 3266SOL     OW15760   0.208   3.116   5.255  0.4992  0.4120  0.5258
 3266SOL    HW115761   0.168   3.039   5.295  1.6319 -0.0789  0.7503
 3266SOL    HW215762   0.143   3.185   5.266 -1.2104 -0.8478 -1.0709
 3267SOL     OW15763  11.176   8.486   1.592 -0.4541 -0.2069 -0.4096
 3267SOL    HW115764  11.096   8.538   1.599  0.5095  1.6185 -1.9516
 3267SOL    HW215765  11.157   8.405   1.640 -3.0765  0.3109 -0.4351
 3268SOL     OW15766  11.349   8.585   4.985 -0.5496  0.1789 -0.7946
 3268SOL    HW115767  11.294   8.577   4.907 -0.1276  0.0226 -1.0797
 3268SOL    HW215768  11.428   8.630   4.955  0.0694 -0.8059 -0.6961
 3269SOL     OW15769  10.565   9.533  11.767  0.3610 -0.2136  0.4448
 3269SOL    HW115770  10.515   9.534  11.849  0.9983  0.8545  0.8466
 3269SOL    HW215771  10.574   9.626  11.744 -1.2882 -0.5368 -1.7706
 3270SOL     OW15772  12.286   8.863   2.272  0.2479 -0.5765 -0.3319
 3270SOL    HW115773  12.228   8.796   2.237 -1.0243  0.5873 -0.5181
 3270SOL    HW215774  12.338   8.891   2.196  1.1874 -1.7074 -0.1380
 3271SOL     OW15775   6.713   6.269  11.300 -0.0063  0.0495  0.0957
 3271SOL    HW115776   6.630   6.314  11.285  0.4630  0.7883 -0.3138
 3271SOL    HW215777   6.697   6.180  11.269  0.0029  0.7384 -2.0388
 3272SOL     OW15778   9.012   1.307   3.069 -0.3300 -0.1696  0.3593
 3272SOL    HW115779   9.097   1.345   3.048 -0.9748  0.8416 -0.4749
 3272SOL    HW215780   9.034   1.227   3.118  1.0811  0.3314  0.6063
 3273SOL     OW15781   9.700   5.487  11.958  0.4381  0.1376  0.3953
 3273SOL    HW115782   9.732   5.478  12.048 -1.2422 -0.4746  0.9758
 3273SOL    HW215783   9.755   5.427  11.907  1.3453  0.4182  1.0121
 3274SOL     OW15784  12.069  11.907   6.366  0.5324  0.8046  0.7880
 3274SOL    HW115785  11.993  11.881   6.417 -0.3358  0.9021 -0.4295
 3274SOL    HW215786  12.143  11.864   6.409 -0.2325  0.5086  1.8270
 3275SOL     OW15787   7.964   8.885   7.958  0.5311  0.0727 -0.0231
 3275SOL    HW115788   7.926   8.809   8.003  2.9462 -1.2035  0.0421
 3275SOL    HW215789   7.990   8.944   8.029  2.2965 -0.9235  0.2143
 3276SOL     OW15790   8.130  10.705   4.204  0.2724 -1.0085  0.1059
 3276SOL    HW115791   8.058  10.659   4.162  0.5134  0.0334 -1.5352
 3276SOL    HW215792   8.109  10.798   4.192  0.5783 -0.6622  1.9552
 3277SOL     OW15793   0.999   6.051   3.890 -0.1495 -0.5599  0.3916
 3277SOL    HW115794   1.041   6.062   3.975 -1.1680 -0.7818  0.9395
 3277SOL    HW215795   0.931   6.118   3.887 -0.5179 -0.9390  0.0093
 3278SOL     OW15796   1.620  10.861  11.406 -0.2273 -0.2637  0.6975
 3278SOL    HW115797   1.677  10.878  11.332 -1.2926 -1.7934 -0.5362
 3278SOL    HW215798   1.616  10.945  11.453  1.9484  0.2170  0.1093
 3279SOL     OW15799   3.313  11.820  12.099 -0.3654 -0.0103 -0.6766
 3279SOL    HW115800   3.234  11.826  12.153 -0.1831  1.6430 -0.5646
 3279SOL    HW215801   3.379  11.781  12.158 -0.9592 -1.0384 -0.6590
 3280SOL     OW15802   1.600   6.154   2.759 -0.0762 -0.0496 -0.1790
 3280SOL    HW115803   1.622   6.092   2.828 -1.6897 -0.6108 -0.1345
 3280SOL    HW215804   1.676   6.213   2.754 -0.0814  0.2620  2.3468
 3281SOL     OW15805   5.285   9.516   5.747 -0.1619 -0.1220  0.1596
 3281SOL    HW115806   5.274   9.425   5.775  1.5559 -0.6557 -0.7772
 3281SOL    HW215807   5.330   9.558   5.820  0.1627 -0.3426  0.0872
 3282SOL     OW15808   1.017  12.105   5.751  0.1009  0.0137 -0.1165
 3282SOL    HW115809   1.106  12.089   5.718  0.2472 -0.9831  0.7236
 3282SOL    HW215810   0.997  12.029   5.805 -2.6210 -1.5529 -2.9862
 3283SOL     OW15811  10.530   3.470   4.684  0.0072 -0.3468 -0.1685
 3283SOL    HW115812  10.464   3.401   4.688 -0.1520 -0.1601  0.6324
 3283SOL    HW215813  10.598   3.442   4.745 -1.0382  1.1687  1.8459
 3284SOL     OW15814   3.224  11.959   4.339  0.6881  0.0313 -0.0017
 3284SOL    HW115815   3.235  12.053   4.326  1.6178 -0.1247 -0.3957
 3284SOL    HW215816   3.281  11.938   4.413  0.4404 -0.2211  0.1218
 3285SOL     OW15817   2.452   4.540  12.018  0.2833 -0.2923  0.5561
 3285SOL    HW115818   2.453   4.478  12.090 -2.7201  0.6250  1.5172
 3285SOL    HW215819   2.414   4.491  11.945 -0.2956 -0.1343  0.7492
 3286SOL     OW15820   5.520   8.090   5.574  0.0465  0.4485 -0.1794
 3286SOL    HW115821   5.610   8.124   5.569  0.7664 -1.4605 -0.8559
 3286SOL    HW215822   5.491   8.085   5.483 -0.2643 -0.1465 -0.0510
 3287SOL     OW15823   7.322  11.170  12.147 -0.1527  0.1337 -0.3343
 3287SOL    HW115824   7.297  11.251  12.102 -0.0346 -0.2959 -1.1931
 3287SOL    HW215825   7.275  11.173  12.230 -0.4098  0.9234 -0.4973
 3288SOL     OW15826   9.867   0.299   9.350 -0.4314 -0.2449 -0.3853
 3288SOL    HW115827   9.796   0.243   9.383  0.1310 -0.6611  0.1596
 3288SOL    HW215828   9.947   0.252   9.374  0.0523 -1.3060 -3.6184
 3289SOL     OW15829   4.632   2.695   0.151  0.1799 -0.9801  0.4315
 3289SOL    HW115830   4.648   2.700   0.056  0.7446 -1.1770  0.5098
 3289SOL    HW215831   4.570   2.765   0.169  0.7962 -0.3230  0.0639
 3290SOL     OW15832  10.019   0.345   1.741 -0.4915  0.3091  0.0762
 3290SOL    HW115833  10.110   0.334   1.768  0.5127  0.1502 -2.9467
 3290SOL    HW215834   9.986   0.416   1.795  1.7938  1.1307  0.4984
 3291SOL     OW15835   3.495   1.541   0.893 -0.7907 -0.1653 -0.0847
 3291SOL    HW115836   3.523   1.539   0.801 -1.3146 -1.2035 -0.2365
 3291SOL    HW215837   3.401   1.555   0.888 -0.6040  1.4656  0.3686
 3292SOL     OW15838   0.987   8.743   1.028 -0.3387  0.2045 -0.2094
 3292SOL    HW115839   0.918   8.685   0.996 -0.4273  1.6373 -2.9280
 3292SOL    HW215840   0.985   8.733   1.123 -2.6649 -1.5824 -0.3556
 3293SOL     OW15841  10.475   2.571   3.904  0.1254 -0.0830  0.1848
 3293SOL    HW115842  10.447   2.590   3.993 -1.8073 -0.1225 -0.3646
 3293SOL    HW215843  10.467   2.476   3.896 -0.0153 -0.0470 -0.1273
 3294SOL     OW15844   5.717   3.160   4.649  0.0560  0.4002  0.5358
 3294SOL    HW115845   5.648   3.125   4.705 -1.2590  0.8152 -0.7743
 3294SOL    HW215846   5.769   3.084   4.625 -0.6260 -0.1024  0.6258
 3295SOL     OW15847  10.702   8.039   8.327  0.2653  0.1277 -0.1246
 3295SOL    HW115848  10.755   8.079   8.258  1.8387 -3.3947 -1.1911
 3295SOL    HW215849  10.744   8.066   8.409  1.4935  0.3313 -0.8096
 3296SOL     OW15850   6.896   5.774   3.751  0.0351  0.4371  0.1075
 3296SOL    HW115851   6.902   5.869   3.746 -1.0924  0.6270  1.8103
 3296SOL    HW215852   6.969   5.748   3.807 -1.6621  0.7027  2.6157
 3297SOL     OW15853  12.366   3.917   2.861 -1.1847 -0.1732 -0.2963
 3297SOL    HW115854  12.368   3.840   2.918 -0.0819 -0.3363 -0.5243
 3297SOL    HW215855  12.275   3.946   2.862 -1.9519 -2.3424 -1.3654
 3298SOL     OW15856   2.866   0.010   5.981  0.4387 -0.3077 -0.8171
 3298SOL    HW115857   2.814  -0.062   6.018 -0.3049  0.3821 -0.4666
 3298SOL    HW215858   2.821   0.089   6.012 -0.3740  0.3371 -3.3795
 3299SOL     OW15859   2.874   9.328  11.899 -0.7833  0.4001  0.0409
 3299SOL    HW115860   2.917   9.397  11.950 -1.1810 -1.1790  2.6882
 3299SOL    HW215861   2.867   9.254  11.959 -2.1471 -1.3168 -2.0672
 3300SOL     OW15862   6.782   1.535   3.327  0.2448  0.2452 -1.0857
 3300SOL    HW115863   6.764   1.613   3.276 -1.2162  0.8635  0.2883
 3300SOL    HW215864   6.728   1.544   3.405  0.8734 -1.6194 -0.3684
 3301SOL     OW15865   4.983   2.079   6.130  0.0898  0.3988 -0.1004
 3301SOL    HW115866   5.039   2.070   6.053  0.9694 -1.1892  0.6918
 3301SOL    HW215867   4.972   1.990   6.163 -0.5438  1.0061  1.4321
 3302SOL     OW15868  12.379   9.867   9.949  0.0287 -0.7321  0.8038
 3302SOL    HW115869  12.378   9.963   9.942  2.2640 -0.7582 -1.2295
 3302SOL    HW215870  12.311   9.838   9.888  1.3301 -0.4179 -0.8761
 3303SOL     OW15871   9.669  10.046   9.200 -0.0232  0.9851 -0.1713
 3303SOL    HW115872   9.621  10.107   9.145  0.0273  1.2331  0.0599
 3303SOL    HW215873   9.601  10.001   9.251 -0.0359  1.0936 -0.0924
 3304SOL     OW15874   3.693   7.932   1.724  0.1915  0.4266 -0.3744
 3304SOL    HW115875   3.602   7.911   1.746 -0.0603  1.1910 -0.6484
 3304SOL    HW215876   3.728   7.971   1.805  0.0203  0.9045 -0.5265
 3305SOL     OW15877   9.847   3.758   8.379 -0.5913 -0.4397 -0.3111
 3305SOL    HW115878   9.830   3.763   8.473  0.2494 -0.1961 -0.1661
 3305SOL    HW215879   9.769   3.795   8.339 -0.9056 -0.4354  0.2920
 3306SOL     OW15880   6.430   6.448  11.690  0.0269 -0.3325 -0.2770
 3306SOL    HW115881   6.467   6.536  11.697 -0.9776 -0.0035  1.2935
 3306SOL    HW215882   6.382   6.449  11.607 -1.0139  1.0276  0.3129
 3307SOL     OW15883   1.064   1.794   3.820 -0.4235 -0.0980  0.0788
 3307SOL    HW115884   1.024   1.707   3.827 -0.2232 -0.0660  2.3741
 3307SOL    HW215885   1.158   1.778   3.835 -0.1000  0.3172 -1.3337
 3308SOL     OW15886   4.328   0.778   0.009  0.0328 -0.0428  0.1125
 3308SOL    HW115887   4.283   0.811   0.087 -1.1460 -1.2086 -0.0304
 3308SOL    HW215888   4.264   0.720  -0.032  1.3008 -0.9126 -0.7062
 3309SOL     OW15889   5.447   9.542   2.553  0.0145  0.1693  0.3009
 3309SOL    HW115890   5.478   9.631   2.569  1.5201 -0.2891  0.0882
 3309SOL    HW215891   5.424   9.508   2.640  0.2502  0.4788  0.4836
 3310SOL     OW15892  11.663   6.369   5.157  0.0319  0.0191 -0.0333
 3310SOL    HW115893  11.614   6.449   5.177  0.2388  0.0980  0.1663
 3310SOL    HW215894  11.614   6.299   5.200 -0.6950 -0.1051 -1.0232
 3311SOL     OW15895   8.030   3.131   9.539  0.1830  0.3403 -0.0632
 3311SOL    HW115896   7.951   3.089   9.575  0.1930  1.4554  1.3513
 3311SOL    HW215897   8.088   3.058   9.516  0.0957 -0.4592  2.0711
 3312SOL     OW15898   3.035   9.529  11.579 -0.6443 -0.1698 -0.2924
 3312SOL    HW115899   3.120   9.558  11.546  0.0384  2.2421  3.0892
 3312SOL    HW215900   3.052   9.447  11.625  0.3182  1.1011  1.7572
 3313SOL     OW15901   0.059   6.520   5.327 -0.4701  0.1442  0.1991
 3313SOL    HW115902   0.059   6.506   5.422 -1.1275  0.5774  0.2750
 3313SOL    HW215903  -0.032   6.509   5.301 -0.0732 -1.4115 -0.6256
 3314SOL     OW15904  10.466   8.247   2.450 -0.2712  0.1104 -0.2218
 3314SOL    HW115905  10.411   8.169   2.449  3.1277 -2.5741  1.3899
 3314SOL    HW215906  10.423   8.306   2.511 -1.9324 -1.3166  0.0716
 3315SOL     OW15907  10.162   8.996   8.588 -0.5559  0.3852  0.2782
 3315SOL    HW115908  10.126   9.084   8.587  0.4507  0.8283  0.9688
 3315SOL    HW215909  10.219   8.993   8.511 -1.7310 -0.1881 -0.6014
 3316SOL     OW15910   1.074  11.868   7.149 -0.3371 -0.0525 -0.6987
 3316SOL    HW115911   1.022  11.846   7.072  0.1623 -0.6934 -0.8627
 3316SOL    HW215912   1.126  11.944   7.122 -0.3685 -0.1006 -0.8939
 3317SOL     OW15913   7.604   0.099  10.325 -0.6046 -0.4075  0.1834
 3317SOL    HW115914   7.518   0.136  10.348 -1.1640 -1.3412 -0.3559
 3317SOL    HW215915   7.622   0.036  10.395  0.5843  1.1681  1.3801
 3318SOL     OW15916   8.611   6.434   4.735  0.1588  0.2171  0.1611
 3318SOL    HW115917   8.661   6.400   4.660  1.6094  1.3010  0.5866
 3318SOL    HW215918   8.638   6.379   4.809 -2.9289 -2.3336 -0.3799
 3319SOL     OW15919   2.173   1.680   0.061  0.0050 -0.8400 -0.0500
 3319SOL    HW115920   2.251   1.627   0.047  0.4845 -0.1776  0.0642
 3319SOL    HW215921   2.206   1.766   0.087 -0.6818  0.0155 -1.7953
 3320SOL     OW15922   8.333   3.588   9.939  0.1877 -0.5109  0.4477
 3320SOL    HW115923   8.369   3.578   9.850  1.0255 -2.1710  0.9296
 3320SOL    HW215924   8.242   3.562   9.931  0.0042  0.2485 -0.0882
 3321SOL     OW15925   8.481   8.151   2.145 -0.1658 -0.2988 -0.6897
 3321SOL    HW115926   8.507   8.105   2.224 -0.0438  0.7223 -0.1105
 3321SOL    HW215927   8.517   8.239   2.156 -0.8017  0.0813 -1.5232
 3322SOL     OW15928   2.953   3.822   9.033 -0.4580 -0.6807 -0.2540
 3322SOL    HW115929   2.859   3.840   9.028 -0.4594  0.5132  2.3071
 3322SOL    HW215930   2.981   3.815   8.942 -2.5014  2.0545 -1.2413
 3323SOL     OW15931   0.558   3.223   5.686  0.4278 -0.0836  0.1285
 3323SOL    HW115932   0.492   3.221   5.616  2.2986  1.0411 -1.7688
 3323SOL    HW215933   0.619   3.153   5.663  0.5853 -0.3127  1.1796
 3324SOL     OW15934   8.690   2.735   3.687  0.0193  0.6792 -0.3970
 3324SOL    HW115935   8.695   2.736   3.783  1.8794  0.3605 -0.4490
 3324SOL    HW215936   8.644   2.654   3.667  1.4515 -0.3224  0.2139
 3325SOL     OW15937   0.006   3.603   5.591  0.2691 -0.1669  0.4190
 3325SOL    HW115938  -0.027   3.557   5.514  1.0929 -1.2444  0.6845
 3325SOL    HW215939   0.093   3.565   5.606  1.4598  2.1935  0.0361
 3326SOL     OW15940   2.073  12.420   6.635 -0.2706  0.5498  0.1111
 3326SOL    HW115941   2.062  12.496   6.693  1.2082 -0.4301  1.7557
 3326SOL    HW215942   2.134  12.450   6.568 -0.3859  1.0690  0.2346
 3327SOL     OW15943   7.805   6.286  11.571  0.1173  0.2261 -0.1302
 3327SOL    HW115944   7.807   6.301  11.666 -0.1656 -1.5047  0.1983
 3327SOL    HW215945   7.712   6.277  11.550  0.2068 -4.2088  0.4092
 3328SOL     OW15946   8.208   6.274   5.925  0.6598 -0.1409 -0.5943
 3328SOL    HW115947   8.215   6.250   6.017  1.5645  0.2506 -0.5451
 3328SOL    HW215948   8.204   6.191   5.878 -1.6761 -0.3458 -0.1051
 3329SOL     OW15949  12.036   4.761   5.324 -0.4253  0.2527 -0.4821
 3329SOL    HW115950  11.980   4.799   5.392 -0.0054  0.4580 -0.2477
 3329SOL    HW215951  12.068   4.836   5.274 -0.7022  0.1043 -0.8891
 3330SOL     OW15952   6.525   4.372   6.367  0.4228  0.6027  0.4619
 3330SOL    HW115953   6.539   4.310   6.295 -0.4331  1.4155 -0.4313
 3330SOL    HW215954   6.443   4.416   6.345 -0.6277 -0.0966  2.6443
 3331SOL     OW15955   0.977   3.545   6.951 -0.4948  0.4450  0.3341
 3331SOL    HW115956   0.884   3.552   6.973 -0.6284  2.6750 -0.6861
 3331SOL    HW215957   1.011   3.477   7.009 -2.7996 -0.5885  0.5561
 3332SOL     OW15958   8.463   9.417   2.714 -0.2887  0.4335  0.5438
 3332SOL    HW115959   8.534   9.417   2.779 -0.3969  1.2034  0.6688
 3332SOL    HW215960   8.403   9.348   2.743  1.9733 -2.6185 -1.3236
 3333SOL     OW15961   3.452   4.775   7.461 -0.0621 -0.3526  0.2984
 3333SOL    HW115962   3.499   4.857   7.443 -2.5004  1.1772  0.3789
 3333SOL    HW215963   3.519   4.716   7.496  1.5547  2.0235  1.4931
 3334SOL     OW15964   3.000  12.405   8.811  0.1489 -0.4180  0.4861
 3334SOL    HW115965   2.988  12.371   8.900 -1.4206 -0.4765  0.2803
 3334SOL    HW215966   2.990  12.329   8.755 -1.2249 -0.0233  0.1501
 3335SOL     OW15967   0.273   8.106   0.444  0.3312 -0.5607 -0.3678
 3335SOL    HW115968   0.264   8.202   0.442 -0.5871 -0.3686  3.7533
 3335SOL    HW215969   0.213   8.075   0.377  0.9034  1.6759 -2.0789
 3336SOL     OW15970   8.668   6.788   4.388 -0.3974 -0.3245  0.3054
 3336SOL    HW115971   8.608   6.823   4.454 -0.5306 -1.2595  0.6894
 3336SOL    HW215972   8.624   6.803   4.304  0.2490  1.8753  0.2860
 3337SOL     OW15973   1.842   3.615   4.992  0.2748 -0.8932 -0.1501
 3337SOL    HW115974   1.901   3.690   4.995  0.0391 -0.7308  0.8057
 3337SOL    HW215975   1.789   3.623   5.071 -1.6242 -0.5505 -1.3894
 3338SOL     OW15976   1.698   0.052   5.631  0.7821  0.1566 -0.0149
 3338SOL    HW115977   1.793   0.060   5.636  0.6112  2.2498  0.6656
 3338SOL    HW215978   1.669   0.051   5.723 -0.0040  2.4594 -0.1718
 3339SOL     OW15979   1.037   6.740   8.003  0.5079  0.3142 -0.7108
 3339SOL    HW115980   1.017   6.655   7.965  1.4563 -0.3678  0.2584
 3339SOL    HW215981   1.133   6.742   8.009  0.4236 -0.1937  2.7780
 3340SOL     OW15982   7.499   3.563   6.621  0.5099  0.6705 -0.5879
 3340SOL    HW115983   7.473   3.500   6.689  2.1422  1.4875  0.8782
 3340SOL    HW215984   7.493   3.513   6.539  0.4001 -0.9638  0.3558
 3341SOL     OW15985   1.452   7.345  11.329  0.2844 -0.5237  0.4806
 3341SOL    HW115986   1.539   7.335  11.290  0.2682  2.0900 -0.4581
 3341SOL    HW215987   1.455   7.431  11.372 -1.0879 -1.4727  2.6025
 3342SOL     OW15988   6.453   6.097   6.910  0.1318  0.1361  0.6838
 3342SOL    HW115989   6.416   6.081   6.997 -2.5965  0.3820 -0.3224
 3342SOL    HW215990   6.397   6.047   6.851  0.3714  1.8904 -1.1293
 3343SOL     OW15991   9.246   0.857   1.536  0.1100  0.1164  0.2717
 3343SOL    HW115992   9.175   0.915   1.564 -1.2085  1.0758 -4.1878
 3343SOL    HW215993   9.210   0.769   1.548 -0.8844  0.5095  0.3055
 3344SOL     OW15994  11.270  10.430   2.520 -0.0614  0.1901  0.2872
 3344SOL    HW115995  11.283  10.516   2.481 -0.0653 -0.4022 -1.0914
 3344SOL    HW215996  11.197  10.440   2.580 -0.8950  0.8658 -0.8184
 3345SOL     OW15997  10.819  11.365   6.684 -0.2346  0.0656  0.1421
 3345SOL    HW115998  10.762  11.406   6.619  0.8301  0.4034 -0.6061
 3345SOL    HW215999  10.901  11.413   6.678  0.6569 -1.3842  0.0973
 3346SOL     OW16000   4.632   3.393   4.323 -0.2775 -0.0228 -0.0262
 3346SOL    HW116001   4.558   3.437   4.282 -2.0242 -0.0922  2.7720
 3346SOL    HW216002   4.653   3.320   4.265  0.0885  2.1118 -2.7465
 3347SOL     OW16003   4.785   1.441  11.396  0.1474  0.4409  0.3495
 3347SOL    HW116004   4.776   1.496  11.474  1.0894  1.1565 -0.0338
 3347SOL    HW216005   4.856   1.381  11.417 -0.6615 -0.4534  0.6404
 3348SOL     OW16006   1.526   6.258   0.906  0.2236 -0.4741  0.1124
 3348SOL    HW116007   1.595   6.215   0.957  0.2174 -0.2263  0.3331
 3348SOL    HW216008   1.459   6.190   0.894 -0.0295 -0.3822  0.9152
 3349SOL     OW16009   3.916  11.861   3.200 -0.6878  0.0219  0.2297
 3349SOL    HW116010   3.966  11.804   3.142  0.7238  1.0775  0.3640
 3349SOL    HW216011   3.975  11.878   3.273 -2.5088 -1.5083  2.2104
 3350SOL     OW16012   0.774   5.661  12.374 -0.4262 -0.4728  0.5917
 3350SOL    HW116013   0.827   5.718  12.319 -2.0249 -0.6349 -1.2330
 3350SOL    HW216014   0.837   5.614  12.428  1.3649 -1.1160 -1.8986
 3351SOL     OW16015   1.112   1.795   2.955 -0.0454  0.6212  0.3055
 3351SOL    HW116016   1.082   1.861   2.892 -2.2144 -0.2702  0.2888
 3351SOL    HW216017   1.186   1.752   2.911  0.2055  1.8082 -0.4708
 3352SOL     OW16018   7.400   7.047  11.035  0.0386 -0.2203  0.1575
 3352SOL    HW116019   7.365   7.105  11.103 -1.8487 -1.3821  0.2591
 3352SOL    HW216020   7.472   7.096  10.996 -1.6739  2.3836  0.0049
 3353SOL     OW16021   1.812  11.128   3.072 -0.6990  0.1813  0.0021
 3353SOL    HW116022   1.778  11.214   3.046  1.4123  1.3472  0.8645
 3353SOL    HW216023   1.903  11.128   3.042 -0.2509 -1.1783  1.2583
 3354SOL     OW16024   5.637   8.102   1.851 -0.4283  0.2993  0.9702
 3354SOL    HW116025   5.619   8.161   1.924 -0.9594  0.1219  0.9870
 3354SOL    HW216026   5.714   8.053   1.877  0.0388  1.0033  0.9465
 3355SOL     OW16027   4.432   9.817   1.635  0.0659  0.0110  0.3680
 3355SOL    HW116028   4.392   9.835   1.549 -1.1682 -0.7555  0.7483
 3355SOL    HW216029   4.504   9.757   1.616 -1.0752 -1.2938 -0.0208
 3356SOL     OW16030   5.066   9.005   8.298  0.0738  0.6318 -0.1904
 3356SOL    HW116031   5.118   9.073   8.343 -0.1645  0.7911 -0.1576
 3356SOL    HW216032   4.979   9.043   8.288 -0.8155 -0.5561  2.0740
 3357SOL     OW16033   2.424   1.274   9.280  0.1192  0.5253  0.0474
 3357SOL    HW116034   2.459   1.316   9.201 -0.5519 -1.8154 -1.5945
 3357SOL    HW216035   2.429   1.180   9.262 -0.2774 -0.0855  2.7357
 3358SOL     OW16036  12.216   7.009   2.344 -0.1707  0.1692  0.3603
 3358SOL    HW116037  12.134   7.058   2.346 -0.6577 -0.5297 -1.3479
 3358SOL    HW216038  12.252   7.024   2.257  0.1011 -1.7988  0.0914
 3359SOL     OW16039   7.666  11.351  11.303 -0.3443  0.1590 -0.1791
 3359SOL    HW116040   7.721  11.430  11.297 -1.0945  0.7852  0.8410
 3359SOL    HW216041   7.719  11.289  11.353  0.0372  0.2134 -0.5119
 3360SOL     OW16042  11.907   6.869   4.656 -0.0377 -0.0100 -0.3125
 3360SOL    HW116043  11.918   6.891   4.563  1.7923 -1.3784 -0.4809
 3360SOL    HW216044  11.868   6.782   4.655  0.0038 -0.0348  0.1965
 3361SOL     OW16045   8.423   9.479   4.089  0.3899  0.5028 -1.2736
 3361SOL    HW116046   8.367   9.451   4.161  0.7794 -0.8207 -1.4706
 3361SOL    HW216047   8.396   9.570   4.073  0.5832  0.9661  0.7786
 3362SOL     OW16048  10.138   0.114   4.068  0.0259 -0.2267 -0.1168
 3362SOL    HW116049  10.187   0.191   4.095 -0.4685  0.0780 -0.0743
 3362SOL    HW216050  10.199   0.065   4.013  0.4315  0.0604  0.0721
 3363SOL     OW16051  11.586   1.703   0.629  0.0109 -0.0384  0.2006
 3363SOL    HW116052  11.509   1.689   0.572 -1.0278  1.4453  1.1608
 3363SOL    HW216053  11.630   1.779   0.590 -0.6869  0.9643  1.2969
 3364SOL     OW16054   7.535   5.782   7.624  0.1834  0.3577  0.0142
 3364SOL    HW116055   7.605   5.724   7.655  0.4432 -0.2685 -1.6443
 3364SOL    HW216056   7.532   5.852   7.689  1.5862 -0.1963  0.7293
 3365SOL     OW16057   5.160   3.999   7.586  0.0334 -0.1037 -0.0315
 3365SOL    HW116058   5.157   3.929   7.521  1.5569  0.6061 -0.9272
 3365SOL    HW216059   5.240   4.047   7.565 -0.1434  0.9474  1.5558
 3366SOL     OW16060   0.256  12.361   2.672 -0.5285  0.0658  0.2223
 3366SOL    HW116061   0.170  12.340   2.636 -0.2071  0.3950 -0.7865
 3366SOL    HW216062   0.306  12.280   2.666 -0.3843  0.1916 -0.3820
 3367SOL     OW16063   9.197  10.858   1.799  0.4354 -0.3708 -0.4830
 3367SOL    HW116064   9.283  10.854   1.758  0.2131 -0.7193 -0.9340
 3367SOL    HW216065   9.160  10.941   1.769  0.7248 -0.0894 -0.0610
 3368SOL     OW16066   0.800   1.293   0.795  0.9145  0.2090 -0.2526
 3368SOL    HW116067   0.794   1.224   0.861 -0.1909  1.1026  0.6295
 3368SOL    HW216068   0.713   1.334   0.796  0.6894 -0.0851 -2.6559
 3369SOL     OW16069   8.115   8.573   2.559 -0.6276  0.2153 -0.6570
 3369SOL    HW116070   8.140   8.652   2.510 -0.3951  0.9378  0.5753
 3369SOL    HW216071   8.115   8.601   2.651 -2.5630 -0.6736 -0.3275
 3370SOL     OW16072   0.800   1.896  10.120  0.1380 -0.4589 -0.2263
 3370SOL    HW116073   0.848   1.814  10.110  1.6971  0.5310 -1.3821
 3370SOL    HW216074   0.868   1.964  10.115 -1.2932  0.9726 -1.2633
 3371SOL     OW16075   2.501   8.697   5.796  0.0528 -0.5484  0.2524
 3371SOL    HW116076   2.453   8.615   5.784  0.1696 -0.6454  0.4388
 3371SOL    HW216077   2.499   8.713   5.890 -1.7137  0.7255  0.0525
 3372SOL     OW16078  12.341   5.234  10.950  0.6778 -0.3524 -0.0481
 3372SOL    HW116079  12.375   5.193  10.871 -0.2766  0.0183 -0.6730
 3372SOL    HW216080  12.417   5.246  11.006  1.3799 -0.5579 -0.9376
 3373SOL     OW16081   4.577   0.994   7.723  0.6979 -0.5092 -0.1978
 3373SOL    HW116082   4.530   1.040   7.793  1.9462 -0.0549  0.3753
 3373SOL    HW216083   4.591   1.061   7.656  1.8241 -0.2325  0.2926
 3374SOL     OW16084   4.095   8.562   7.149 -0.1475  0.3365  0.0731
 3374SOL    HW116085   4.171   8.541   7.204  0.8402 -0.4910 -1.5004
 3374SOL    HW216086   4.117   8.646   7.109  0.2017 -0.1322 -0.7564
 3375SOL     OW16087   6.640   3.570  11.639  0.1854 -0.3638  0.4081
 3375SOL    HW116088   6.607   3.500  11.583  0.6478  1.2476 -2.0471
 3375SOL    HW216089   6.565   3.625  11.656  0.6041  0.8884 -1.4513
 3376SOL     OW16090   9.782   3.115   1.465  0.0107 -0.2115 -0.0483
 3376SOL    HW116091   9.799   3.041   1.523  1.4173  2.1488  2.8256
 3376SOL    HW216092   9.869   3.150   1.444 -0.6453  1.6772  0.1975
 3377SOL     OW16093   3.063   8.191   3.453 -0.0360  0.1398  0.4411
 3377SOL    HW116094   3.124   8.177   3.526 -1.4733  1.4409  1.9625
 3377SOL    HW216095   3.064   8.285   3.437 -1.9810  0.2855  0.8665
 3378SOL     OW16096   7.677   5.656   6.321  0.6118  0.5043 -0.1870
 3378SOL    HW116097   7.597   5.700   6.290  0.3946 -0.3752 -0.9147
 3378SOL    HW216098   7.726   5.637   6.241 -0.2011 -2.2839 -0.0981
 3379SOL     OW16099   5.571   6.219  11.179 -0.1917 -0.1156  0.4631
 3379SOL    HW116100   5.663   6.220  11.154  0.4169 -2.6453  2.2561
 3379SOL    HW216101   5.571   6.202  11.273 -2.4837 -0.9053  0.3949
 3380SOL     OW16102   0.924   3.391   6.705 -0.3157  0.0642 -0.0333
 3380SOL    HW116103   0.829   3.387   6.700 -0.4282  1.3840  0.8566
 3380SOL    HW216104   0.943   3.459   6.769  1.2373  0.4025 -0.7911
 3381SOL     OW16105   5.407   6.770   6.763 -0.1284 -0.0637  0.0889
 3381SOL    HW116106   5.347   6.697   6.778  0.5553 -0.4083  1.2016
 3381SOL    HW216107   5.451   6.783   6.847  0.7109  0.7707 -0.4636
 3382SOL     OW16108   1.872   3.674   8.157  0.3600 -0.0900  0.2793
 3382SOL    HW116109   1.886   3.584   8.126  1.3196  0.2432 -0.2909
 3382SOL    HW216110   1.832   3.719   8.083  1.8847  0.4927 -0.2275
 3383SOL     OW16111  11.325   0.364   8.497 -0.1283  0.0259  0.3179
 3383SOL    HW116112  11.346   0.447   8.540 -1.8734  0.3078  0.6867
 3383SOL    HW216113  11.381   0.363   8.419  0.1661  1.3780  0.4861
 3384SOL     OW16114   6.745   4.537   4.022  0.1423  0.0384  0.1420
 3384SOL    HW116115   6.816   4.590   3.984  1.4500 -0.8615  1.2304
 3384SOL    HW216116   6.717   4.480   3.951  0.5083  0.4168 -0.3126
 3385SOL     OW16117  10.062  10.109   9.684  0.8078 -0.3644  0.1515
 3385SOL    HW116118  10.106  10.152   9.611  0.0372  0.3444  0.0891
 3385SOL    HW216119   9.970  10.135   9.676  0.3200 -1.9274  0.1892
 3386SOL     OW16120   1.554   8.265  12.162 -0.2417  0.4846  0.1974
 3386SOL    HW116121   1.460   8.250  12.168 -0.3854  0.6226 -1.3231
 3386SOL    HW216122   1.592   8.177  12.157 -0.6043  0.4055 -2.6280
 3387SOL     OW16123   5.137   5.345   8.246 -0.1979 -0.4296  0.2521
 3387SOL    HW116124   5.048   5.355   8.280 -0.1325 -1.0860  0.6469
 3387SOL    HW216125   5.136   5.385   8.160 -0.4574  1.0059  0.9056
 3388SOL     OW16126  11.187   9.373   5.815  0.4902  0.2790 -0.0454
 3388SOL    HW116127  11.254   9.318   5.774  0.5434  0.2326  0.1015
 3388SOL    HW216128  11.233   9.422   5.882  0.5736  1.0241 -0.6381
 3389SOL     OW16129  10.151  10.692   8.288  0.0904  0.8166  0.8576
 3389SOL    HW116130  10.199  10.637   8.226  1.3924 -0.8756  3.2225
 3389SOL    HW216131  10.200  10.685   8.370 -3.9162 -0.8100  3.4378
 3390SOL     OW16132   3.604   7.253  11.630 -0.3012 -0.2932  0.1633
 3390SOL    HW116133   3.698   7.249  11.650 -0.5457  0.4097  1.5241
 3390SOL    HW216134   3.561   7.210  11.703 -1.1164  0.6935  0.2924
 3391SOL     OW16135   8.235   6.836   5.017  0.5241 -0.0060 -1.0854
 3391SOL    HW116136   8.155   6.787   5.034  0.8713 -0.8628 -1.8151
 3391SOL    HW216137   8.270   6.857   5.103 -1.1678  1.5903 -0.7077
 3392SOL     OW16138   4.488  12.286   1.117  0.5549 -0.0242 -0.1388
 3392SOL    HW116139   4.507  12.377   1.093 -2.0976  0.5572 -0.2773
 3392SOL    HW216140   4.443  12.250   1.041 -2.2646 -0.1011  1.4448
 3393SOL     OW16141   3.577  11.709   0.378 -0.5221  0.1156  0.2466
 3393SOL    HW116142   3.519  11.652   0.428  0.0035 -0.8649 -0.2147
 3393SOL    HW216143   3.522  11.744   0.308 -0.9184  0.4084  0.6961
 3394SOL     OW16144   1.865  11.433   1.177  0.5108  0.1127 -0.6991
 3394SOL    HW116145   1.949  11.411   1.218 -0.6782 -1.1815  1.2021
 3394SOL    HW216146   1.871  11.527   1.158  1.1430  0.8597  2.6157
 3395SOL     OW16147   9.290   6.836   7.485 -0.1537  0.1162  0.1523
 3395SOL    HW116148   9.282   6.765   7.421  0.6733 -0.3220  0.5119
 3395SOL    HW216149   9.259   6.798   7.567  0.9509 -0.0773  0.5014
 3396SOL     OW16150   2.611   3.904   2.025  0.1298  0.0035  0.3325
 3396SOL    HW116151   2.612   3.984   2.078 -1.4776 -0.1023  0.5820
 3396SOL    HW216152   2.583   3.835   2.085 -0.0600 -0.4351 -0.2495
 3397SOL     OW16153   2.183   5.691   6.382  0.2221  0.5599 -0.2407
 3397SOL    HW116154   2.123   5.637   6.330  1.6150 -2.1718  0.7645
 3397SOL    HW216155   2.129   5.763   6.415 -1.8031 -0.2480 -1.6086
 3398SOL     OW16156   3.364  11.280   2.492  0.4599  0.2757 -0.5985
 3398SOL    HW116157   3.392  11.253   2.579 -0.4539 -0.2904 -0.4662
 3398SOL    HW216158   3.431  11.342   2.464 -0.6157  2.6342  1.6267
 3399SOL     OW16159  11.068  11.243   1.486 -0.1327 -0.5386  0.2132
 3399SOL    HW116160  11.000  11.309   1.472 -0.9677 -1.4056  0.0546
 3399SOL    HW216161  11.134  11.262   1.420  0.3486  1.0156  1.0931
 3400SOL     OW16162   3.507   2.669   7.501 -0.5192 -0.3751  0.5902
 3400SOL    HW116163   3.581   2.728   7.489 -1.4530  0.6838 -0.1510
 3400SOL    HW216164   3.452   2.683   7.424 -1.0950 -1.7342  0.7317
 3401SOL     OW16165   7.966   0.093   6.546  0.2143 -0.0368  0.0776
 3401SOL    HW116166   7.895   0.157   6.535  0.8112  0.7682  0.7985
 3401SOL    HW216167   8.023   0.107   6.470  0.4580  0.4524  0.3444
 3402SOL     OW16168  12.040  11.075   5.308 -0.3967  0.2369  0.2121
 3402SOL    HW116169  12.031  11.145   5.244 -0.1253  0.6002  0.5682
 3402SOL    HW216170  12.040  10.994   5.256  0.3476  0.5540 -0.2912
 3403SOL     OW16171   4.126   6.882   3.476  0.8898 -0.7640  0.0699
 3403SOL    HW116172   4.180   6.869   3.398 -1.0688  0.8606 -1.7108
 3403SOL    HW216173   4.114   6.977   3.481 -2.1789 -1.0382 -0.0014
 3404SOL     OW16174  12.388  11.540   5.063  0.0509 -0.1798 -0.0223
 3404SOL    HW116175  12.439  11.543   4.981 -0.0678  0.4769 -0.0759
 3404SOL    HW216176  12.438  11.481   5.120  1.1485  0.8301  0.1023
 3405SOL     OW16177   0.150   1.017   1.177 -0.8461  0.1682  0.6971
 3405SOL    HW116178   0.184   1.053   1.258  0.7069  0.0896  0.1129
 3405SOL    HW216179   0.177   0.925   1.178 -0.6411  0.2106  0.0204
 3406SOL     OW16180   5.582   3.700   0.178 -0.4941  0.7881  0.1162
 3406SOL    HW116181   5.520   3.648   0.229 -0.3072  2.7142  2.4529
 3406SOL    HW216182   5.668   3.665   0.200 -0.2696  2.6883  2.6277
 3407SOL     OW16183   6.850   3.892  12.429  0.3830 -0.4245 -0.5770
 3407SOL    HW116184   6.834   3.811  12.382  0.2198 -1.1696  0.7064
 3407SOL    HW216185   6.862   3.958  12.361 -0.5593 -1.3072 -1.6364
 3408SOL     OW16186  11.150  10.894   3.060 -0.2984  0.7898 -0.3005
 3408SOL    HW116187  11.094  10.959   3.016 -0.8781  1.5330  1.4724
 3408SOL    HW216188  11.178  10.836   2.989 -0.8580  2.1777 -1.7217
 3409SOL     OW16189  10.085   9.388   2.732 -0.2033 -0.4066  0.3999
 3409SOL    HW116190  10.134   9.438   2.797 -0.0585 -0.3274  0.2299
 3409SOL    HW216191  10.124   9.301   2.735  1.4349  0.1957 -1.2584
 3410SOL     OW16192  10.614  12.143   9.560 -0.3729  0.0219  0.1081
 3410SOL    HW116193  10.551  12.214   9.574 -0.2169  0.1421  0.1982
 3410SOL    HW216194  10.667  12.172   9.486 -0.2302  0.0534  0.2232
 3411SOL     OW16195   0.801  10.553  12.043  0.0114 -0.0627  0.1917
 3411SOL    HW116196   0.783  10.477  12.099  1.4518 -1.1191 -0.7015
 3411SOL    HW216197   0.789  10.521  11.954 -1.6055  1.4260 -0.1806
 3412SOL     OW16198  10.669   8.564   6.514 -0.1539 -0.1785  0.0487
 3412SOL    HW116199  10.574   8.576   6.511 -0.0838  0.1058 -1.7550
 3412SOL    HW216200  10.680   8.470   6.528 -0.7291 -0.4725 -1.2834
 3413SOL     OW16201   8.403   6.104   3.047  0.5320 -0.2859  0.4793
 3413SOL    HW116202   8.384   6.092   3.140  1.3518  1.1206  0.8592
 3413SOL    HW216203   8.334   6.161   3.015  0.7570 -0.0355  0.4396
 3414SOL     OW16204   2.367  12.408   1.350  0.2685  0.0617 -0.1782
 3414SOL    HW116205   2.356  12.387   1.258 -0.0704  0.2972 -0.1924
 3414SOL    HW216206   2.431  12.344   1.382 -0.5894 -0.8733 -0.2655
 3415SOL     OW16207   9.049   8.411   3.582  0.5303  0.8170 -0.1442
 3415SOL    HW116208   8.981   8.456   3.532  1.2587  0.1066 -1.8492
 3415SOL    HW216209   9.001   8.359   3.647 -0.8224 -1.4862 -2.7595
 3416SOL     OW16210   3.946   1.563   7.679 -0.1681  0.2266  0.2140
 3416SOL    HW116211   4.037   1.541   7.698 -0.4288 -0.0793  1.1215
 3416SOL    HW216212   3.899   1.546   7.760 -1.2950 -1.0000 -0.6611
 3417SOL     OW16213   9.549   9.768  11.085 -0.5141 -0.3048  0.1786
 3417SOL    HW116214   9.484   9.766  11.155 -0.9145  0.3194 -0.1603
 3417SOL    HW216215   9.632   9.788  11.129 -1.0513  1.8764  0.3206
 3418SOL     OW16216   5.368  11.071  12.317 -0.5516 -0.0148  0.0806
 3418SOL    HW116217   5.363  11.141  12.382  0.3314 -0.0557  0.2107
 3418SOL    HW216218   5.278  11.059  12.287 -0.8271  0.6416  0.6200
 3419SOL     OW16219   0.324   5.437  12.159 -0.5295 -0.2495 -0.2266
 3419SOL    HW116220   0.283   5.362  12.117  2.4893 -1.3233 -1.4757
 3419SOL    HW216221   0.393   5.464  12.099  0.8077  1.2558  1.8517
 3420SOL     OW16222  10.689   9.083   7.913  0.4637 -0.5079 -0.4188
 3420SOL    HW116223  10.763   9.038   7.874 -0.1398 -0.1636 -2.0149
 3420SOL    HW216224  10.672   9.157   7.856 -0.4692  0.0124  0.4953
 3421SOL     OW16225   1.051   3.699   5.010  0.7693 -0.1680 -0.0635
 3421SOL    HW116226   0.993   3.775   5.002  0.5291 -0.4184 -0.7939
 3421SOL    HW216227   1.017   3.652   5.086  1.1315  0.6273  0.6059
 3422SOL     OW16228   2.303  12.239   4.869 -0.5571 -0.0994 -0.4261
 3422SOL    HW116229   2.222  12.218   4.915 -0.6449 -0.0995 -0.5795
 3422SOL    HW216230   2.371  12.235   4.937 -0.7073  0.0602 -0.2645
 3423SOL     OW16231   1.379  10.288   6.860 -0.0263 -0.1332 -0.1238
 3423SOL    HW116232   1.427  10.332   6.789  2.6696 -3.3172 -0.4836
 3423SOL    HW216233   1.311  10.239   6.815 -0.7530  0.7834 -0.0612
 3424SOL     OW16234   8.632   0.457   9.119  0.2381  0.0428 -0.7715
 3424SOL    HW116235   8.584   0.484   9.197  2.3582  0.5551  0.4566
 3424SOL    HW216236   8.579   0.387   9.081 -2.1865  1.5774 -0.4232
 3425SOL     OW16237   2.036   3.791  11.792  0.3309 -0.2348 -0.1435
 3425SOL    HW116238   2.070   3.824  11.709  1.1452 -0.8751 -0.0698
 3425SOL    HW216239   2.113   3.776  11.846 -0.1666 -0.2013  0.6004
 3426SOL     OW16240   6.842   4.830   9.707  0.1901  0.2997 -0.2138
 3426SOL    HW116241   6.844   4.832   9.612 -1.2439 -1.2259 -0.3237
 3426SOL    HW216242   6.893   4.752   9.730  0.3392  0.5323  0.2518
 3427SOL     OW16243   3.568   2.770   9.346  0.0999 -0.6507 -0.0454
 3427SOL    HW116244   3.659   2.791   9.324 -0.1787 -0.4340 -1.0397
 3427SOL    HW216245   3.553   2.813   9.430  0.9831 -0.8765  0.2386
 3428SOL     OW16246   8.688   3.945  11.345  0.3975  0.0194  0.8650
 3428SOL    HW116247   8.647   3.951  11.431  0.0128 -0.2351  0.6996
 3428SOL    HW216248   8.639   3.876  11.300 -0.7153  1.5076 -0.2971
 3429SOL     OW16249  10.564   9.230   4.592 -0.3730 -0.0758  0.2662
 3429SOL    HW116250  10.621   9.279   4.652 -2.9755  1.5998  1.5960
 3429SOL    HW216251  10.596   9.140   4.597  1.1673  0.4989  2.1239
 3430SOL     OW16252  10.779   3.578   3.261 -0.0275 -0.3344 -0.0405
 3430SOL    HW116253  10.744   3.560   3.173  0.4372 -2.1608  0.1133
 3430SOL    HW216254  10.873   3.563   3.252  0.4692  2.2305  0.1263
 3431SOL     OW16255   2.884   5.460   9.094  0.4183 -0.1125 -0.2913
 3431SOL    HW116256   2.970   5.501   9.100  0.2491  0.7430 -2.6258
 3431SOL    HW216257   2.867   5.453   9.000 -2.9315  1.6244  0.0256
 3432SOL     OW16258   3.022   6.985   3.061 -0.0687 -1.0798  0.2437
 3432SOL    HW116259   2.990   6.943   2.981  3.1007  0.9305 -2.3693
 3432SOL    HW216260   2.959   7.055   3.078 -0.6465 -1.3269 -0.7792
 3433SOL     OW16261   6.334   5.099   5.813  0.5248  0.2807  0.4400
 3433SOL    HW116262   6.371   5.021   5.772  1.9965  0.9391  0.4542
 3433SOL    HW216263   6.254   5.067   5.855 -1.1564 -0.4128 -2.9362
 3434SOL     OW16264   2.913   0.013   9.276  0.0183 -0.2378  0.4679
 3434SOL    HW116265   2.822  -0.016   9.272  0.2988 -0.9505 -1.6874
 3434SOL    HW216266   2.914   0.079   9.346 -2.1675 -0.0938  0.4227
 3435SOL     OW16267  11.522   9.055   9.182  0.2663  0.4597 -0.1623
 3435SOL    HW116268  11.535   8.980   9.239 -1.5750 -0.2202 -0.5652
 3435SOL    HW216269  11.429   9.052   9.159  0.4199  2.1525 -1.1835
 3436SOL     OW16270   8.062   0.198  10.693 -0.5210 -0.6045 -0.0815
 3436SOL    HW116271   8.140   0.159  10.652 -0.5896 -1.9368  1.0158
 3436SOL    HW216272   8.070   0.178  10.786 -0.9988  1.3143  0.4309
 3437SOL     OW16273  10.764   4.585   7.534  0.9723 -0.2166  0.3730
 3437SOL    HW116274  10.751   4.680   7.531  0.0820 -0.3473 -0.2311
 3437SOL    HW216275  10.847   4.571   7.487  1.4656  0.3118  1.0666
 3438SOL     OW16276   1.655   2.544   5.735 -0.4178  0.4857 -0.7608
 3438SOL    HW116277   1.642   2.490   5.658  0.7059  1.1857 -1.4790
 3438SOL    HW216278   1.749   2.560   5.737 -0.2149 -0.5906  1.5156
 3439SOL     OW16279   8.990  10.911   6.901 -0.1923  0.4167 -0.1536
 3439SOL    HW116280   9.065  10.968   6.881  1.0769 -0.2675  2.2861
 3439SOL    HW216281   9.026  10.823   6.902 -1.2700 -0.0394 -0.0072
 3440SOL     OW16282  12.457   0.315   3.702  0.0094 -0.2254  0.3380
 3440SOL    HW116283  12.449   0.292   3.795  0.4176 -2.7437 -0.1699
 3440SOL    HW216284  12.540   0.362   3.697 -0.2437  0.3520  1.3114
 3441SOL     OW16285   1.322  12.104   7.840 -0.1198  0.1628 -0.1879
 3441SOL    HW116286   1.332  12.189   7.798 -2.0698  0.2092 -0.6738
 3441SOL    HW216287   1.227  12.091   7.844  0.1214 -1.5693  0.7300
 3442SOL     OW16288   9.369  12.233  12.026 -0.1459  1.4418  0.6321
 3442SOL    HW116289   9.458  12.207  12.048 -0.0476  0.8370 -0.4289
 3442SOL    HW216290   9.333  12.266  12.108  0.3489 -0.2768  1.5816
 3443SOL     OW16291  10.528   4.832  12.324  0.0533  0.1847 -0.2559
 3443SOL    HW116292  10.578   4.858  12.402 -0.2196 -0.3658  0.1172
 3443SOL    HW216293  10.453   4.784  12.359 -1.4669  2.0824 -0.7371
 3444SOL     OW16294   8.059   9.083   2.532  0.1648 -0.3244  0.0454
 3444SOL    HW116295   7.983   9.027   2.548  0.0871 -0.1567  0.2778
 3444SOL    HW216296   8.069   9.083   2.437  1.5966 -2.6084  0.1458
 3445SOL     OW16297  11.639  11.315  11.321 -0.0319 -0.3179 -0.2644
 3445SOL    HW116298  11.706  11.276  11.377  0.3522 -0.9038 -1.1210
 3445SOL    HW216299  11.564  11.256  11.329  0.7257 -1.5963 -1.9758
 3446SOL     OW16300   4.618   3.886   6.342 -0.0006 -0.4274  0.1096
 3446SOL    HW116301   4.701   3.864   6.300 -0.3429  0.4738 -1.0749
 3446SOL    HW216302   4.568   3.934   6.276 -0.7174  0.7147  1.4034
 3447SOL     OW16303   1.883   9.048   5.692 -0.3424  0.0209  0.1610
 3447SOL    HW116304   1.819   9.050   5.620 -1.5636  2.4737  1.2027
 3447SOL    HW216305   1.833   9.016   5.767  0.5955 -1.2909  0.2642
 3448SOL     OW16306   0.706   0.089   9.181 -0.3256  0.2446 -0.1658
 3448SOL    HW116307   0.655   0.014   9.212  0.2818 -0.2128 -0.2555
 3448SOL    HW216308   0.785   0.088   9.234 -0.2026  0.6877 -0.3306
 3449SOL     OW16309   6.319   8.297   5.162  0.1895  0.1852 -0.1723
 3449SOL    HW116310   6.403   8.272   5.200 -0.1536 -0.5378  0.1203
 3449SOL    HW216311   6.272   8.338   5.234 -0.2170 -0.6160  0.0260
 3450SOL     OW16312  11.908   0.874   5.454 -0.4695  0.0295  0.4486
 3450SOL    HW116313  11.898   0.847   5.362  1.1523  1.5550 -0.2379
 3450SOL    HW216314  11.889   0.968   5.453  0.2553  0.2033  1.5544
 3451SOL     OW16315  12.321  10.112   6.740 -0.0529 -0.1072 -0.2014
 3451SOL    HW116316  12.288  10.027   6.767 -0.9384  0.1368 -0.4866
 3451SOL    HW216317  12.337  10.103   6.646  1.4447 -0.4502  0.0614
 3452SOL     OW16318   8.460   7.692   7.028 -0.0846 -0.0180  0.6131
 3452SOL    HW116319   8.415   7.609   7.041 -1.0175  0.2721 -0.5156
 3452SOL    HW216320   8.469   7.729   7.116  0.8725 -1.5587  1.1844
 3453SOL     OW16321   4.278   3.755   5.812  0.0781 -0.1608  0.5234
 3453SOL    HW116322   4.186   3.739   5.795  0.4631 -0.7234 -1.3048
 3453SOL    HW216323   4.308   3.679   5.862  0.1304 -1.4019 -1.2937
 3454SOL     OW16324   3.177   3.548   6.388 -0.4073 -0.6909 -0.0158
 3454SOL    HW116325   3.131   3.532   6.305  2.8260 -2.8799 -1.6307
 3454SOL    HW216326   3.222   3.465   6.406  1.8013  0.8307  2.0540
 3455SOL     OW16327   7.388   1.341  12.338  0.1587 -0.0290 -0.1534
 3455SOL    HW116328   7.342   1.416  12.377  0.2257  0.9934 -1.9187
 3455SOL    HW216329   7.334   1.265  12.362 -0.3093  0.6565  1.0725
 3456SOL     OW16330   6.796   3.176   8.660  0.4332  0.8249 -0.1309
 3456SOL    HW116331   6.884   3.172   8.699 -0.0278 -1.5737  0.8402
 3456SOL    HW216332   6.736   3.175   8.734 -0.4426 -2.5678 -0.6890
 3457SOL     OW16333   8.443   4.862   2.400  0.5137  0.1010  0.2791
 3457SOL    HW116334   8.397   4.942   2.375  2.0643  0.8358 -0.3410
 3457SOL    HW216335   8.373   4.801   2.424 -1.1301 -0.1472 -4.1699
 3458SOL     OW16336  10.458  11.793  10.809 -0.0069 -0.5825  0.4362
 3458SOL    HW116337  10.371  11.771  10.841 -0.8811  2.9163  0.8947
 3458SOL    HW216338  10.503  11.831  10.885  0.8704  0.2786 -0.4784
 3459SOL     OW16339   1.098   9.571   9.198  0.1087 -0.4461 -0.0689
 3459SOL    HW116340   1.060   9.493   9.156 -1.2185  0.1320  0.0128
 3459SOL    HW216341   1.170   9.537   9.251  0.1960 -1.4919 -0.8202
 3460SOL     OW16342   6.782   9.200  10.109  0.6062 -0.4731 -0.0949
 3460SOL    HW116343   6.798   9.132  10.044 -0.2546  0.1896 -1.0320
 3460SOL    HW216344   6.711   9.252  10.072  2.9874  2.5909 -0.7234
 3461SOL     OW16345   6.244  10.670   2.480  0.4120  0.5553 -0.2093
 3461SOL    HW116346   6.172  10.675   2.417  0.8511 -1.1476 -0.8989
 3461SOL    HW216347   6.311  10.728   2.444  0.4145  0.0784 -0.9969
 3462SOL     OW16348   6.960   8.943   9.689 -0.7414 -0.0994  0.0201
 3462SOL    HW116349   6.907   8.864   9.684 -0.0681 -0.5509 -0.1112
 3462SOL    HW216350   7.014   8.942   9.610 -1.1539  0.8050 -0.2830
 3463SOL     OW16351   5.467   2.803   1.396 -1.0184 -0.2194 -0.3169
 3463SOL    HW116352   5.410   2.826   1.470 -0.5678 -1.4349  0.4493
 3463SOL    HW216353   5.413   2.745   1.342 -1.2423  0.4179 -0.7863
 3464SOL     OW16354   0.993   1.298   1.764  0.3161  0.2641  0.0220
 3464SOL    HW116355   0.939   1.255   1.830  0.8305  0.8712  0.8501
 3464SOL    HW216356   1.059   1.233   1.740  0.1671  0.0669  0.1488
 3465SOL     OW16357   0.851   6.010   1.309 -0.2364  0.1995  0.1644
 3465SOL    HW116358   0.895   6.066   1.373 -1.5051 -0.8969  2.0678
 3465SOL    HW216359   0.866   6.054   1.225  1.4998  1.6687  1.1733
 3466SOL     OW16360   7.901  10.879  10.452  0.5367 -0.1172 -0.2483
 3466SOL    HW116361   7.897  10.975  10.459 -0.7815 -0.1574 -0.2028
 3466SOL    HW216362   7.889  10.848  10.541  0.9149 -0.3243 -0.2697
 3467SOL     OW16363   7.157   5.350   2.947  0.7649  0.1402 -0.0420
 3467SOL    HW116364   7.128   5.340   3.038  0.2181 -1.3354 -0.3583
 3467SOL    HW216365   7.094   5.411   2.908 -0.2893 -0.9037  0.0029
 3468SOL     OW16366   1.483   0.936   4.641  0.1875  0.0822  0.1220
 3468SOL    HW116367   1.497   0.964   4.551  0.8977 -1.3248 -0.2367
 3468SOL    HW216368   1.393   0.960   4.661 -0.0651  0.1541 -1.0674
 3469SOL     OW16369   0.678  12.197  12.369  0.8019 -0.3951  0.0638
 3469SOL    HW116370   0.706  12.282  12.404 -0.6740  0.5434 -0.9445
 3469SOL    HW216371   0.730  12.186  12.289  0.8808 -0.3645  0.1109
 3470SOL     OW16372   3.540   4.347   7.560  1.0005 -0.6487  0.3547
 3470SOL    HW116373   3.595   4.395   7.623 -0.0730  1.3705 -0.1477
 3470SOL    HW216374   3.461   4.325   7.610  0.9261 -0.6684  0.2294
 3471SOL     OW16375   4.005   7.861   0.416  0.0129  0.4694  0.3924
 3471SOL    HW116376   4.033   7.799   0.485  1.4437 -0.1456 -0.6918
 3471SOL    HW216377   3.931   7.818   0.374  2.2130 -1.5731 -1.6641
 3472SOL     OW16378   7.748   1.631   4.074  0.4434 -0.1970 -0.0389
 3472SOL    HW116379   7.687   1.594   4.011 -1.9776  1.6027  1.0839
 3472SOL    HW216380   7.794   1.699   4.025 -0.0512 -0.0815 -0.3546
 3473SOL     OW16381   6.637   0.979   3.592  0.1004 -0.2709  0.0835
 3473SOL    HW116382   6.593   1.062   3.611 -0.5365 -0.8892  1.4936
 3473SOL    HW216383   6.719   0.983   3.641  0.5380 -0.0710 -0.6587
 3474SOL     OW16384  10.169   5.151   1.099 -0.4832 -0.3358  0.5379
 3474SOL    HW116385  10.204   5.062   1.089 -0.1752 -0.3638  1.7036
 3474SOL    HW216386  10.085   5.149   1.053  0.6980 -0.4606 -1.7481
 3475SOL     OW16387   0.371   3.565   9.179  0.0357 -0.2214 -0.1036
 3475SOL    HW116388   0.295   3.531   9.132 -0.0944  0.0479 -0.0900
 3475SOL    HW216389   0.445   3.512   9.148  0.1788  0.7658 -1.5407
 3476SOL     OW16390  12.443   9.950   2.766  0.1729 -0.7691 -0.5302
 3476SOL    HW116391  12.502  10.007   2.816 -1.1279  0.1817 -0.0096
 3476SOL    HW216392  12.500   9.880   2.732  1.0998 -1.5834  2.4153
 3477SOL     OW16393   0.999   6.041   0.984 -0.3640  0.0487  0.2863
 3477SOL    HW116394   1.037   5.964   1.027  1.3127  0.9427  0.5097
 3477SOL    HW216395   0.995   6.107   1.054 -0.8836  0.4584 -0.1243
 3478SOL     OW16396  12.119   8.775   0.268  0.5060  0.1884  0.3794
 3478SOL    HW116397  12.197   8.740   0.312  0.0939 -2.0051 -0.4850
 3478SOL    HW216398  12.046   8.739   0.319  0.0214  1.3785  0.5588
 3479SOL     OW16399  10.800   3.555   5.952 -0.8303  0.1540  0.1835
 3479SOL    HW116400  10.744   3.590   5.883 -0.3497  0.8632  0.1467
 3479SOL    HW216401  10.889   3.561   5.916 -0.7358 -1.2154  0.1247
 3480SOL     OW16402   4.765  11.939   9.330 -0.2017  0.6946 -0.2146
 3480SOL    HW116403   4.673  11.943   9.356  0.2857  1.4090  1.6177
 3480SOL    HW216404   4.812  11.978   9.404  1.6164 -0.0998 -0.8876
 3481SOL     OW16405   8.208   9.696  10.649  0.3864 -0.2080 -0.6339
 3481SOL    HW116406   8.282   9.732  10.600 -1.1986  2.6855 -1.1311
 3481SOL    HW216407   8.223   9.724  10.739 -0.1919  0.6014 -0.7804
 3482SOL     OW16408   8.211   5.253   9.233 -0.0493  0.2332 -0.1169
 3482SOL    HW116409   8.296   5.296   9.218 -0.1425  0.8917  1.0578
 3482SOL    HW216410   8.220   5.167   9.192  1.0941  0.3996 -0.2593
 3483SOL     OW16411  11.045   6.930   8.610  0.2914  0.0736  0.0349
 3483SOL    HW116412  10.961   6.950   8.568  0.7058  2.3861  0.1402
 3483SOL    HW216413  11.025   6.861   8.673 -1.6129  0.7963  0.3017
 3484SOL     OW16414   9.507   7.480  12.452  0.3212  0.2053 -0.1477
 3484SOL    HW116415   9.507   7.567  12.491  0.2216 -0.1445  0.6575
 3484SOL    HW216416   9.415   7.455  12.447  0.4061 -0.4108  0.9464
 3485SOL     OW16417   2.968   5.620   8.343 -0.1010  0.1301 -0.6727
 3485SOL    HW116418   3.060   5.614   8.366 -0.1926  0.4730 -0.1958
 3485SOL    HW216419   2.921   5.600   8.424 -0.4824 -1.8469 -1.3216
 3486SOL     OW16420  10.292   5.809   0.603 -0.4451  0.4787  0.3275
 3486SOL    HW116421  10.199   5.815   0.581 -0.2328  2.2810 -0.2575
 3486SOL    HW216422  10.336   5.801   0.518 -0.0674 -0.9750  0.6300
 3487SOL     OW16423   7.355   8.886   2.840 -0.5701 -0.3146  0.2029
 3487SOL    HW116424   7.431   8.828   2.846  0.6503  1.0044 -1.3485
 3487SOL    HW216425   7.319   8.868   2.753  0.1485  1.5289 -0.5296
 3488SOL     OW16426   2.277   4.847   3.813  0.4222 -0.2927  0.1373
 3488SOL    HW116427   2.330   4.805   3.881  1.1496 -3.2074 -2.0494
 3488SOL    HW216428   2.287   4.941   3.830  1.6000 -0.8496  3.2306
 3489SOL     OW16429   7.238   2.933   3.704 -0.0463 -0.7518  0.0078
 3489SOL    HW116430   7.285   3.016   3.694 -1.0761 -0.3016 -1.6604
 3489SOL    HW216431   7.213   2.909   3.614 -0.5854 -2.3881  0.5509
 3490SOL     OW16432  11.068   0.065   6.081 -0.7474  0.2058  0.1020
 3490SOL    HW116433  11.018   0.015   6.016 -2.3202  2.5088 -0.5981
 3490SOL    HW216434  11.133   0.112   6.030 -0.0040 -0.2387  0.6151
 3491SOL     OW16435   8.703   6.680   3.979 -0.0403  0.0826  0.1141
 3491SOL    HW116436   8.794   6.651   3.989 -0.6680 -1.9181  0.4799
 3491SOL    HW216437   8.652   6.618   4.031 -1.8913 -0.6669 -2.3893
 3492SOL     OW16438  11.590   9.691   4.727  0.1209  0.1608 -0.0759
 3492SOL    HW116439  11.575   9.757   4.660 -1.0568 -0.5102 -0.5105
 3492SOL    HW216440  11.627   9.616   4.679  0.9925  0.3079  0.3347
 3493SOL     OW16441   0.363   3.572   4.796  0.1115  0.1364  0.4071
 3493SOL    HW116442   0.363   3.578   4.892 -0.2247  0.4961  0.3897
 3493SOL    HW216443   0.280   3.530   4.775 -0.6685  1.7080  0.1958
 3494SOL     OW16444   5.946  12.020   1.936 -0.5251 -0.0792 -0.1445
 3494SOL    HW116445   5.871  11.978   1.895 -1.2871  0.8250  0.2995
 3494SOL    HW216446   6.018  11.958   1.922 -1.4099 -1.1081 -0.3002
 3495SOL     OW16447  12.045   6.705   1.995 -0.0469  0.3729 -0.5167
 3495SOL    HW116448  12.127   6.754   1.996 -0.4709  1.1717 -2.0977
 3495SOL    HW216449  12.044   6.659   2.079  0.9503  2.0929  0.4994
 3496SOL     OW16450   9.232   8.787  11.067  0.4062  0.0662 -0.3985
 3496SOL    HW116451   9.212   8.880  11.075 -1.2581 -0.3256  0.4058
 3496SOL    HW216452   9.284   8.780  10.987 -2.1938  1.3055 -2.2994
 3497SOL     OW16453   5.765   6.570   1.698 -0.1075  0.0597  0.4208
 3497SOL    HW116454   5.750   6.665   1.697  1.1266  0.2856 -1.1295
 3497SOL    HW216455   5.828   6.556   1.769 -1.6069  0.1330  1.8117
 3498SOL     OW16456   9.093   1.869   4.026 -0.0284  0.6019  0.4367
 3498SOL    HW116457   9.089   1.846   4.119  1.0038 -2.7521 -0.1924
 3498SOL    HW216458   9.007   1.905   4.006 -1.6820 -2.1151  1.9852
 3499SOL     OW16459   3.517   1.214   3.641  0.4514  0.2145 -0.4224
 3499SOL    HW116460   3.539   1.286   3.582  0.4000 -0.4070 -1.2200
 3499SOL    HW216461   3.589   1.152   3.630 -0.1698 -0.4577 -0.7610
 3500SOL     OW16462  10.645   8.267   8.106  0.0077 -0.4150  0.1934
 3500SOL    HW116463  10.710   8.319   8.058 -1.6116  1.2196 -0.3596
 3500SOL    HW216464  10.630   8.315   8.187 -2.5338  0.8748 -0.9362
 3501SOL     OW16465   1.453   6.239   0.277 -0.2141 -0.8162  0.1709
 3501SOL    HW116466   1.450   6.324   0.320 -0.0771 -1.2718  1.1179
 3501SOL    HW216467   1.545   6.212   0.282 -0.2879 -1.0987  0.0560
 3502SOL     OW16468  11.061   1.622  12.204  0.3967  0.2287 -0.0194
 3502SOL    HW116469  11.111   1.541  12.207  1.6897  0.9877  3.2638
 3502SOL    HW216470  11.111   1.680  12.146  0.2398 -0.7761 -1.2089
 3503SOL     OW16471   1.366   9.860  10.584 -0.2691 -0.1428  0.4102
 3503SOL    HW116472   1.272   9.877  10.593  0.1557  2.8559  0.1702
 3503SOL    HW216473   1.371   9.772  10.546 -3.0263  0.2258 -1.0510
 3504SOL     OW16474   6.346  11.539   8.054  0.1500 -0.3607  0.3130
 3504SOL    HW116475   6.269  11.505   8.009  0.4945  1.1018 -1.5537
 3504SOL    HW216476   6.327  11.530   8.147 -1.3645 -1.9283 -0.1177
 3505SOL     OW16477   7.750   8.401   4.645  0.1321  0.1610  0.3988
 3505SOL    HW116478   7.741   8.491   4.677  1.5556  1.2675 -2.0092
 3505SOL    HW216479   7.729   8.406   4.552  1.2295 -1.7957 -0.0199
 3506SOL     OW16480  10.837   7.146   3.039  0.3287 -0.0812  0.1631
 3506SOL    HW116481  10.805   7.056   3.029  0.5945 -0.2007  0.3582
 3506SOL    HW216482  10.908   7.139   3.103  1.0430  0.1053 -0.5857
 3507SOL     OW16483   9.746   8.864   8.245  0.4369 -0.4444 -0.0492
 3507SOL    HW116484   9.667   8.854   8.297  0.0939 -0.1904 -0.5167
 3507SOL    HW216485   9.715   8.894   8.160  1.1158  0.8437  0.1255
 3508SOL     OW16486   0.076   6.998   3.290  0.1706  0.1900  0.2835
 3508SOL    HW116487   0.100   7.063   3.356 -0.8190  0.6234  0.2410
 3508SOL    HW216488   0.068   6.916   3.339 -0.6532  0.5272  0.7300
 3509SOL     OW16489   4.276   3.500   5.262 -0.0840 -0.7114  0.2000
 3509SOL    HW116490   4.367   3.472   5.258  1.2807  3.2386 -2.1211
 3509SOL    HW216491   4.279   3.589   5.297 -3.2652 -0.9447  1.3892
 3510SOL     OW16492   8.642   0.642   0.602 -0.4316 -0.1468 -0.5248
 3510SOL    HW116493   8.638   0.721   0.547  0.5446  0.2056 -0.1169
 3510SOL    HW216494   8.554   0.633   0.638 -1.1917 -0.5532 -2.3559
 3511SOL     OW16495   2.923   1.293   2.184 -0.5939  0.0497  0.0187
 3511SOL    HW116496   2.939   1.214   2.236 -2.1705 -0.9756 -0.9587
 3511SOL    HW216497   2.984   1.358   2.219 -0.2097 -1.1885  1.7738
 3512SOL     OW16498   3.769   8.300   2.146 -0.3279 -0.2170 -0.1388
 3512SOL    HW116499   3.782   8.346   2.063  2.0803 -0.4846  0.0090
 3512SOL    HW216500   3.754   8.209   2.122  0.3694 -0.2930 -0.3041
 3513SOL     OW16501   7.679   6.727   0.915  0.6841 -0.1996  0.2336
 3513SOL    HW116502   7.626   6.734   0.836  0.3365  0.4302  0.5158
 3513SOL    HW216503   7.745   6.661   0.894  0.2354 -0.4605 -0.3742
 3514SOL     OW16504   3.842   1.139   0.017 -0.2519 -0.6364  0.0656
 3514SOL    HW116505   3.785   1.196   0.070  0.4910  0.1470  0.0436
 3514SOL    HW216506   3.864   1.192  -0.060 -1.9439 -2.0300 -1.4753
 3515SOL     OW16507   9.456   2.455   5.424 -0.4398 -0.3777  0.0371
 3515SOL    HW116508   9.389   2.517   5.395  0.1328 -0.2820 -1.1356
 3515SOL    HW216509   9.518   2.450   5.351  1.0000 -0.2411  1.1944
 3516SOL     OW16510   3.418   6.711  11.631 -0.1097  0.1113  0.1347
 3516SOL    HW116511   3.388   6.712  11.722 -0.9233  2.8925 -0.0727
 3516SOL    HW216512   3.495   6.768  11.630  1.3184 -1.7176 -0.5720
 3517SOL     OW16513   8.553   3.319   2.306 -0.0549 -0.5473 -0.3587
 3517SOL    HW116514   8.531   3.230   2.278  0.5961 -0.7340 -0.2988
 3517SOL    HW216515   8.601   3.356   2.233 -0.8831 -0.0064 -0.6458
 3518SOL     OW16516   0.072   1.189  10.045  0.4791 -0.0926 -0.3017
 3518SOL    HW116517   0.115   1.177  10.129 -0.3429  0.6131  0.2483
 3518SOL    HW216518   0.094   1.279  10.020 -2.4023  1.1495  1.1036
 3519SOL     OW16519   8.066   2.165   8.191 -0.1168 -0.7627 -0.0525
 3519SOL    HW116520   8.008   2.130   8.260  1.2185  0.0457  1.5547
 3519SOL    HW216521   8.119   2.090   8.165  0.7413 -0.6515  1.2863
 3520SOL     OW16522   3.134   0.346   0.193  0.0011  0.1515  0.0517
 3520SOL    HW116523   3.067   0.388   0.138 -0.6847 -0.4894  0.3741
 3520SOL    HW216524   3.172   0.418   0.243  0.0111  0.6176 -0.6129
 3521SOL     OW16525   6.837  11.541   3.089 -0.2500  0.0877  0.4811
 3521SOL    HW116526   6.755  11.512   3.128  0.7763 -2.7279  0.8518
 3521SOL    HW216527   6.829  11.517   2.996 -0.1040  0.4465  0.3737
 3522SOL     OW16528   8.562   6.882   8.782 -0.0363  0.3252 -0.7031
 3522SOL    HW116529   8.655   6.874   8.759  0.0785 -0.4952 -0.0230
 3522SOL    HW216530   8.560   6.946   8.853 -0.2661  2.0312 -2.1876
 3523SOL     OW16531   1.771   2.720   2.823 -0.3674  0.1270  0.0774
 3523SOL    HW116532   1.685   2.750   2.854 -0.0038 -0.8390  2.1518
 3523SOL    HW216533   1.807   2.796   2.778 -1.7106  1.0274  0.4339
 3524SOL     OW16534   0.420   2.169   9.527 -0.3917  0.7547 -0.2817
 3524SOL    HW116535   0.428   2.088   9.476  1.6807  0.4726  0.4299
 3524SOL    HW216536   0.452   2.237   9.468 -1.1275  0.9280 -0.4964
 3525SOL     OW16537   1.315   6.342  12.397  0.1382  0.2520  0.3733
 3525SOL    HW116538   1.234   6.304  12.362  0.3807  0.6350 -0.6294
 3525SOL    HW216539   1.289   6.380  12.481 -0.9373  1.1654 -0.3461
 3526SOL     OW16540   9.406   7.039   5.628  0.6972 -0.3214 -0.0820
 3526SOL    HW116541   9.445   7.078   5.706 -0.9948  0.5561  0.3499
 3526SOL    HW216542   9.363   7.112   5.583  1.2631 -0.8901 -1.6255
 3527SOL     OW16543   2.667   9.182   7.366  0.2885 -0.4318  0.0716
 3527SOL    HW116544   2.687   9.226   7.448 -1.4443  1.3618 -0.3919
 3527SOL    HW216545   2.688   9.246   7.298  1.5975 -1.8418 -0.9221
 3528SOL     OW16546   3.378  10.599   6.442 -0.5182 -0.1713 -0.3442
 3528SOL    HW116547   3.444  10.538   6.476 -0.3511  0.1794 -0.0468
 3528SOL    HW216548   3.295  10.555   6.458 -0.4576  0.0638  0.6750
 3529SOL     OW16549   9.950   4.615   1.260 -0.2996 -0.2617  0.0580
 3529SOL    HW116550  10.000   4.544   1.301 -0.2220 -0.0943  0.2543
 3529SOL    HW216551   9.878   4.632   1.321 -0.5519 -0.4453 -0.1836
 3530SOL     OW16552   9.468   5.275   3.739 -0.0119 -0.2275  0.2041
 3530SOL    HW116553   9.492   5.233   3.656  1.3323 -1.3078  1.0917
 3530SOL    HW216554   9.469   5.203   3.803  1.3827  0.9589  1.5888
 3531SOL     OW16555   3.174   7.879   2.900  0.0322 -0.4159 -0.3912
 3531SOL    HW116556   3.100   7.919   2.947  1.1641  1.7792 -0.3785
 3531SOL    HW216557   3.229   7.842   2.969  0.0749 -0.0356 -0.2188
 3532SOL     OW16558   9.314   9.743   0.554  0.1838 -0.0314  0.3815
 3532SOL    HW116559   9.323   9.725   0.647 -0.6304 -0.6389  0.3599
 3532SOL    HW216560   9.270   9.665   0.519 -0.3041  0.5594 -0.3542
 3533SOL     OW16561   9.218   7.420   0.018 -0.2449  0.3486 -0.2589
 3533SOL    HW116562   9.149   7.485   0.004  1.0239  1.7047 -0.4821
 3533SOL    HW216563   9.216   7.366  -0.062 -0.9373  0.4613 -0.3281
 3534SOL     OW16564   2.457   9.254  11.388 -0.1091  0.1304  0.0426
 3534SOL    HW116565   2.485   9.335  11.345  0.4739 -0.1785 -0.1673
 3534SOL    HW216566   2.413   9.284  11.468  2.0640  0.6417  1.1367
 3535SOL     OW16567   5.870   1.172   8.685  0.5353 -0.4411 -0.3748
 3535SOL    HW116568   5.854   1.081   8.658  0.1209 -0.0607 -1.4795
 3535SOL    HW216569   5.831   1.224   8.615 -0.7668  0.6258  1.0640
 3536SOL     OW16570  11.822   3.000   6.609  0.2056 -0.4098 -0.5224
 3536SOL    HW116571  11.743   3.040   6.572 -0.4358 -1.7539 -0.6678
 3536SOL    HW216572  11.829   2.916   6.563  0.5159 -1.2340  0.9935
 3537SOL     OW16573   4.021  11.505   8.631 -0.2923 -0.0289 -0.1869
 3537SOL    HW116574   3.989  11.457   8.708 -0.9981  0.4749 -0.1621
 3537SOL    HW216575   3.955  11.489   8.564 -0.7237  1.2010 -0.0701
 3538SOL     OW16576   3.168   0.028  11.929 -0.2628 -0.1788 -0.0972
 3538SOL    HW116577   3.140   0.003  11.841 -1.8260  0.2150  0.2570
 3538SOL    HW216578   3.170  -0.055  11.977  2.0590 -0.6174 -0.8334
 3539SOL     OW16579  11.762  10.146  12.324  0.3002  0.0710 -0.6962
 3539SOL    HW116580  11.667  10.138  12.315  0.0571  1.6163  0.0688
 3539SOL    HW216581  11.796  10.123  12.238 -0.8363  0.2019 -1.2040
 3540SOL     OW16582   3.905   6.441  11.466  0.1886  0.3664  0.4051
 3540SOL    HW116583   3.894   6.495  11.387 -0.1648 -0.6050 -0.2271
 3540SOL    HW216584   3.908   6.351  11.433 -1.5381 -0.1863  1.6470
 3541SOL     OW16585  10.190   5.228   2.198 -0.1064 -0.0334  0.3055
 3541SOL    HW116586  10.137   5.161   2.156 -0.8228 -0.3575  1.6825
 3541SOL    HW216587  10.280   5.204   2.176 -0.4573 -0.0839 -1.1679
 3542SOL     OW16588   6.417   0.276  11.042  0.0166 -0.1216 -0.4996
 3542SOL    HW116589   6.459   0.309  10.962 -2.0036  1.1450 -1.1029
 3542SOL    HW216590   6.349   0.340  11.061 -0.5091 -1.1896  1.4317
 3543SOL     OW16591   4.859   0.094  10.288  0.1078 -0.3086  0.1841
 3543SOL    HW116592   4.874   0.087  10.193  0.3333 -0.7923  0.2551
 3543SOL    HW216593   4.945   0.112  10.324 -0.0581  0.3932  0.2563
 3544SOL     OW16594   9.439   3.563   7.028  0.8280 -0.6470  0.6396
 3544SOL    HW116595   9.351   3.585   7.060 -0.3074 -3.2929 -0.3852
 3544SOL    HW216596   9.438   3.586   6.935  0.5946 -2.2333  0.2279
 3545SOL     OW16597   2.952  11.391   0.063  0.2366 -0.0587  0.4349
 3545SOL    HW116598   3.009  11.387   0.140  1.1067  2.4042  0.0091
 3545SOL    HW216599   2.870  11.427   0.096  0.1262 -0.3390  0.4630
 3546SOL     OW16600  12.223   7.456   8.499 -0.0379  0.4537  0.1458
 3546SOL    HW116601  12.272   7.401   8.560 -0.7743 -1.2924 -0.7685
 3546SOL    HW216602  12.166   7.509   8.554  1.2367  0.8696  1.1010
 3547SOL     OW16603   1.419   8.281   4.170 -0.3419 -0.4548  0.4637
 3547SOL    HW116604   1.342   8.280   4.113  0.3630 -3.0897 -0.6220
 3547SOL    HW216605   1.486   8.326   4.119 -0.4809 -0.3803  0.3465
 3548SOL     OW16606   9.140   7.078   0.033 -0.3459 -0.1739 -0.7563
 3548SOL    HW116607   9.152   7.018  -0.040  0.0626 -0.9377 -0.0704
 3548SOL    HW216608   9.226   7.116   0.048 -0.2902 -0.4854 -0.2754
 3549SOL     OW16609   2.144   8.093   4.477 -1.0284 -0.1464  0.0546
 3549SOL    HW116610   2.163   8.176   4.520 -2.3295 -0.2485  0.8725
 3549SOL    HW216611   2.092   8.044   4.540 -0.3643 -1.5705 -0.4446
 3550SOL     OW16612  10.073   4.981   3.609  0.4591  0.4588  0.3542
 3550SOL    HW116613  10.142   5.046   3.596 -0.8870  1.9475  0.3600
 3550SOL    HW216614  10.018   4.989   3.531  0.1025 -0.4641  0.4991
 3551SOL     OW16615   0.492  10.593   2.462 -0.1596 -0.3931 -0.2529
 3551SOL    HW116616   0.553  10.639   2.405 -0.2918 -0.0148 -0.0919
 3551SOL    HW216617   0.536  10.511   2.484  1.5965  1.0846  2.2184
 3552SOL     OW16618   0.981   4.036  12.442  0.6559 -0.6924  0.7234
 3552SOL    HW116619   0.963   4.105  12.377 -0.0516 -2.9948 -1.6900
 3552SOL    HW216620   1.076   4.025  12.437  0.5581 -1.2096 -0.3797
 3553SOL     OW16621   0.500   7.610   1.298 -0.0537  0.5602  0.0194
 3553SOL    HW116622   0.591   7.635   1.282  0.4847 -1.2526  0.0647
 3553SOL    HW216623   0.489   7.622   1.393  0.2608  0.3901  0.0793
 3554SOL     OW16624   3.037   2.036   4.417 -0.2599 -0.4998 -0.7370
 3554SOL    HW116625   3.065   1.976   4.487 -0.7229 -1.8503 -1.6538
 3554SOL    HW216626   3.053   2.123   4.452 -0.9851 -1.1104  1.2693
 3555SOL     OW16627   3.610   0.690   1.757  0.6301 -0.2592 -0.0596
 3555SOL    HW116628   3.594   0.781   1.782  1.5617 -0.1195  0.0483
 3555SOL    HW216629   3.522   0.654   1.741  0.2928  0.8568 -0.8427
 3556SOL     OW16630  11.317   5.947   6.955  0.0666 -0.5972  0.3822
 3556SOL    HW116631  11.352   6.033   6.931 -0.2850 -0.5275  0.1029
 3556SOL    HW216632  11.305   5.952   7.050 -1.1965  0.1480  0.2154
 3557SOL     OW16633  12.316   2.229   1.024  0.3231 -0.0930  0.2252
 3557SOL    HW116634  12.400   2.273   1.009 -1.0601  3.7302  2.2919
 3557SOL    HW216635  12.308   2.226   1.120 -1.9826 -0.1466  0.0821
 3558SOL     OW16636   0.267   4.071  11.015  0.8243 -0.0119  0.3522
 3558SOL    HW116637   0.197   4.051  11.077  1.6042 -0.6922  1.0371
 3558SOL    HW216638   0.246   4.158  10.981 -0.6268 -0.4159  0.1552
 3559SOL     OW16639   8.401   4.591   7.380  0.1821 -0.1372 -0.3338
 3559SOL    HW116640   8.356   4.653   7.322  1.4253 -0.6925 -1.9773
 3559SOL    HW216641   8.334   4.526   7.401 -0.5634  0.6099 -0.3070
 3560SOL     OW16642   7.821   6.024   6.692 -0.3331  0.9877 -0.1063
 3560SOL    HW116643   7.826   6.119   6.679  1.1905  1.2454  1.7824
 3560SOL    HW216644   7.908   6.000   6.724 -1.1380 -0.7941  0.8898
 3561SOL     OW16645  10.749   8.621   6.870 -0.7971  0.1171  0.2399
 3561SOL    HW116646  10.738   8.687   6.801  0.6168  0.3971  0.2406
 3561SOL    HW216647  10.830   8.575   6.846 -1.2237 -0.9474  0.7869
 3562SOL     OW16648   2.633   5.868   6.509 -0.4646 -0.5401 -0.2148
 3562SOL    HW116649   2.658   5.943   6.562 -1.7331  0.1548 -0.5535
 3562SOL    HW216650   2.697   5.867   6.437  1.2516 -1.4818  1.2451
 3563SOL     OW16651   7.704  10.164   9.489 -0.0743  0.3591 -0.3258
 3563SOL    HW116652   7.682  10.139   9.579 -0.4703 -2.0570 -1.0174
 3563SOL    HW216653   7.623  10.201   9.454  0.2112  1.7373  0.4215
 3564SOL     OW16654   3.893   1.626   0.892 -0.3993  0.3885  0.0931
 3564SOL    HW116655   3.978   1.607   0.933 -1.1902 -0.9654  1.1556
 3564SOL    HW216656   3.907   1.711   0.849  1.1577  0.7434  1.1969
 3565SOL     OW16657  10.451   0.972   8.191 -0.3780  0.5016  0.1158
 3565SOL    HW116658  10.403   1.010   8.118  0.1992  0.7806 -0.1315
 3565SOL    HW216659  10.437   0.878   8.183 -0.7982  0.5725 -0.0081
 3566SOL     OW16660   9.935   9.957  10.676 -0.6078 -0.9266 -0.5278
 3566SOL    HW116661   9.893   9.877  10.646 -0.8906 -1.0128  0.0901
 3566SOL    HW216662   9.898   9.973  10.763  0.3653 -0.8130 -0.1146
 3567SOL     OW16663   6.152   2.939   6.987 -0.7008 -0.0109 -0.8625
 3567SOL    HW116664   6.099   2.877   6.936 -3.6067  1.1386  0.5576
 3567SOL    HW216665   6.124   3.025   6.957  1.4390  0.6784 -1.0119
 3568SOL     OW16666   7.456   6.841   4.515  0.0508  0.0857 -0.2780
 3568SOL    HW116667   7.448   6.779   4.588 -0.2603 -0.8246 -1.0662
 3568SOL    HW216668   7.537   6.818   4.471 -0.7625 -0.7227 -1.4208
 3569SOL     OW16669   6.828  10.459   8.585 -0.0787 -0.0225  0.1226
 3569SOL    HW116670   6.783  10.391   8.635  1.5636 -1.1359  0.1426
 3569SOL    HW216671   6.833  10.426   8.496 -0.7883  0.8543 -0.2579
 3570SOL     OW16672   1.879   3.998   0.945 -0.7775 -0.1971  0.4840
 3570SOL    HW116673   1.941   3.993   0.873 -0.3444 -1.8196  0.9225
 3570SOL    HW216674   1.898   4.081   0.988 -0.3842  0.3285 -0.6723
 3571SOL     OW16675   2.793  11.196   5.195 -0.7868  0.5009  0.2914
 3571SOL    HW116676   2.872  11.195   5.141  0.2693  1.3394  1.7267
 3571SOL    HW216677   2.742  11.269   5.162  0.1678  1.4331  0.8264
 3572SOL     OW16678   5.036   5.759  11.496  0.1865 -1.4606  0.1673
 3572SOL    HW116679   5.111   5.819  11.506  0.4952 -1.7599 -0.2875
 3572SOL    HW216680   4.960   5.811  11.521  0.3616 -0.6324 -0.9435
 3573SOL     OW16681  11.323   8.466   1.277  0.2977  0.0124 -0.3895
 3573SOL    HW116682  11.318   8.389   1.334  1.9885  0.6996  0.7661
 3573SOL    HW216683  11.242   8.514   1.296 -0.7175 -1.3765 -1.0291
 3574SOL     OW16684   0.151   4.890   4.240  0.0257  0.0110 -0.7413
 3574SOL    HW116685   0.183   4.805   4.209 -0.7940 -0.6158  0.0402
 3574SOL    HW216686   0.080   4.867   4.301 -0.4776  1.2756 -0.8293
 3575SOL     OW16687   6.807   8.601   2.967 -0.1775 -0.2599  0.2870
 3575SOL    HW116688   6.772   8.661   3.033  1.2548  0.6499  0.2462
 3575SOL    HW216689   6.835   8.658   2.896 -0.9328 -1.1756 -0.7745
 3576SOL     OW16690  10.706   6.034   4.205  1.0381  0.0277  0.0667
 3576SOL    HW116691  10.691   5.939   4.199  0.6859  0.0140  1.0588
 3576SOL    HW216692  10.796   6.041   4.237  1.1904  0.0395 -0.3535
 3577SOL     OW16693   5.401   0.245   5.993  0.2769  0.4701  0.0909
 3577SOL    HW116694   5.369   0.189   5.922  0.3598 -0.2383  0.5923
 3577SOL    HW216695   5.487   0.274   5.964  0.2155  0.3682 -0.2005
 3578SOL     OW16696   6.426   5.729   0.331  0.0145  0.1600 -0.2604
 3578SOL    HW116697   6.338   5.698   0.311  0.0605  0.0712 -0.3325
 3578SOL    HW216698   6.424   5.823   0.313 -0.7913  0.6695  2.2464
 3579SOL     OW16699   4.261   9.759   9.328 -0.2296  0.1469  0.4739
 3579SOL    HW116700   4.224   9.705   9.398 -0.3863  1.2083  1.2354
 3579SOL    HW216701   4.327   9.813   9.372  1.6228 -1.0506 -0.6897
 3580SOL     OW16702   9.044   3.115   0.357  0.2457  0.3791 -0.6865
 3580SOL    HW116703   8.970   3.055   0.351  0.1569  0.3508  0.5131
 3580SOL    HW216704   9.027   3.166   0.437  1.0503  1.0070 -0.9065
 3581SOL     OW16705   6.093   1.737   0.910  0.2739 -0.2570 -0.1393
 3581SOL    HW116706   6.120   1.828   0.920  2.3167 -0.8710  0.3969
 3581SOL    HW216707   6.026   1.724   0.977  1.2028  0.4184  0.9426
 3582SOL     OW16708   1.638   4.384   6.432 -0.3158  0.0112  0.3065
 3582SOL    HW116709   1.705   4.439   6.472 -0.7781 -0.7322  2.2187
 3582SOL    HW216710   1.667   4.295   6.448 -0.1021 -0.3609 -1.8436
 3583SOL     OW16711   6.042   4.295  11.339 -0.1151  0.2797 -0.0724
 3583SOL    HW116712   5.961   4.341  11.361 -0.9740 -0.5300 -1.4913
 3583SOL    HW216713   6.092   4.295  11.422 -1.8119  0.2198  0.9898
 3584SOL     OW16714   3.292  12.335   2.807 -0.1248 -0.6012 -0.3535
 3584SOL    HW116715   3.330  12.259   2.850 -0.2841  1.3090  3.6114
 3584SOL    HW216716   3.199  12.332   2.829  0.0216  1.1504  0.7208
 3585SOL     OW16717   0.353   3.545   6.695  0.0047 -0.1812 -0.3557
 3585SOL    HW116718   0.366   3.571   6.786 -1.3187 -0.5962 -0.0306
 3585SOL    HW216719   0.293   3.611   6.659 -1.1406 -1.1710 -0.3172
 3586SOL     OW16720   1.421   4.949   8.828 -0.0523 -0.0447  0.2229
 3586SOL    HW116721   1.401   4.898   8.906  0.8724 -0.4099  0.2365
 3586SOL    HW216722   1.509   4.920   8.802  0.6889  1.8301  0.4748
 3587SOL     OW16723   3.847   7.747   7.049  0.5303 -0.1022  0.1501
 3587SOL    HW116724   3.828   7.730   7.141  0.4844 -2.3552 -0.2194
 3587SOL    HW216725   3.943   7.745   7.043  0.5066 -2.3597 -0.1941
 3588SOL     OW16726   5.201   6.615   7.276  0.1832  0.5428  0.2246
 3588SOL    HW116727   5.194   6.535   7.223 -1.3382  0.2705  0.7790
 3588SOL    HW216728   5.266   6.593   7.343  0.4812  0.1161 -0.1919
 3589SOL     OW16729   7.212  11.334   5.170  0.5260  0.2913 -0.3725
 3589SOL    HW116730   7.122  11.358   5.151  0.2779 -0.3860 -0.1162
 3589SOL    HW216731   7.205  11.270   5.242  1.1171 -0.6655 -1.1308
 3590SOL     OW16732   6.212   3.705  10.136  0.6234  0.5310 -0.1102
 3590SOL    HW116733   6.255   3.737  10.216  0.3660 -1.0127  0.6851
 3590SOL    HW216734   6.152   3.637  10.167  0.6531 -0.2302 -1.6346
 3591SOL     OW16735   3.921   5.758   6.799  0.0474 -0.1549 -0.3225
 3591SOL    HW116736   3.853   5.770   6.866  0.4344  2.8045 -0.3412
 3591SOL    HW216737   3.928   5.843   6.757  1.7837 -1.1970 -2.2861
 3592SOL     OW16738   1.732   6.561   8.384  0.2077 -0.5560 -0.1539
 3592SOL    HW116739   1.812   6.587   8.428 -0.3058  1.4207 -0.2994
 3592SOL    HW216740   1.714   6.631   8.321 -1.6236 -0.9229 -0.1171
 3593SOL     OW16741   8.877   1.427   6.070 -0.1296 -0.2125 -0.4287
 3593SOL    HW116742   8.878   1.409   5.976  0.7545 -0.7316 -0.3379
 3593SOL    HW216743   8.872   1.341   6.111  1.9250 -0.1913 -0.0020
 3594SOL     OW16744   5.244   2.395   9.661  0.2003  0.3335 -0.0499
 3594SOL    HW116745   5.186   2.354   9.725  0.8315  0.1464  0.4151
 3594SOL    HW216746   5.277   2.473   9.705 -0.7273  1.1718 -0.8043
 3595SOL     OW16747   1.543   3.159   8.627 -0.4984 -0.3541 -0.4401
 3595SOL    HW116748   1.523   3.071   8.596 -2.6140 -0.3540  0.7406
 3595SOL    HW216749   1.473   3.213   8.591 -0.7271  0.3463  1.0221
 3596SOL     OW16750   9.126   1.541   0.548  0.6213  0.4994 -0.2169
 3596SOL    HW116751   9.196   1.599   0.518  1.7737 -0.4045  0.6543
 3596SOL    HW216752   9.119   1.558   0.642 -0.3841  0.6109 -0.2985
 3597SOL     OW16753   5.215  11.357   4.508 -0.5314 -0.2089  0.7105
 3597SOL    HW116754   5.265  11.312   4.576  1.4787  0.4572 -0.2343
 3597SOL    HW216755   5.188  11.288   4.448  0.7748 -0.4357  0.3420
 3598SOL     OW16756   1.438   4.511   3.197  0.3223 -0.5655 -0.4645
 3598SOL    HW116757   1.434   4.606   3.189 -1.1005 -0.5727 -0.2002
 3598SOL    HW216758   1.529   4.489   3.176  0.6646  0.8342 -0.5916
 3599SOL     OW16759   2.986   4.890  10.257 -0.2173 -0.2482  0.1993
 3599SOL    HW116760   2.982   4.795  10.271 -0.6495 -0.1415  0.8545
 3599SOL    HW216761   2.918   4.925  10.315 -0.5174  0.4081 -0.5360
 3600SOL     OW16762   2.041   7.206   7.094  0.1279 -0.4113  0.3814
 3600SOL    HW116763   2.091   7.125   7.100  1.0407  0.2189  1.8178
 3600SOL    HW216764   1.950   7.178   7.108  0.1582 -1.4275 -1.2026
 3601SOL     OW16765   2.399  10.378   0.065 -0.4954  0.7033  0.6361
 3601SOL    HW116766   2.450  10.351   0.142 -2.6780  0.1003  1.9708
 3601SOL    HW216767   2.412  10.307   0.002 -0.3301  0.1621  1.2687
 3602SOL     OW16768   4.344   3.194  11.875  0.7267  0.1189  0.1533
 3602SOL    HW116769   4.268   3.244  11.905 -1.4540 -2.0001 -1.5023
 3602SOL    HW216770   4.396   3.257  11.825 -0.8952  1.2286 -0.2209
 3603SOL     OW16771   0.298   5.567   9.291 -0.3139 -0.1232  0.3747
 3603SOL    HW116772   0.385   5.573   9.331 -0.5504 -0.3733  0.9422
 3603SOL    HW216773   0.243   5.528   9.359 -0.2913 -2.5629 -0.8690
 3604SOL     OW16774   3.963   7.652   3.224 -0.3037  0.2048  0.5569
 3604SOL    HW116775   4.056   7.658   3.243  0.1018  0.1603 -1.2927
 3604SOL    HW216776   3.926   7.605   3.299  1.4765 -1.5827  0.3670
 3605SOL     OW16777  10.224  11.121  11.471  0.3679  0.3628 -0.4298
 3605SOL    HW116778  10.159  11.190  11.485 -1.8236 -1.3662 -1.4246
 3605SOL    HW216779  10.241  11.087  11.558 -2.0942 -0.8083 -0.3138
 3606SOL     OW16780   0.641   4.191   8.507  0.3664 -0.0208  0.6018
 3606SOL    HW116781   0.625   4.246   8.430 -0.1299 -1.4128 -0.3359
 3606SOL    HW216782   0.737   4.187   8.515  0.4087  0.6022  0.4048
 3607SOL     OW16783   6.746   0.640   5.702 -0.6364  0.6116 -0.0715
 3607SOL    HW116784   6.733   0.562   5.649  0.0084 -0.2292  0.9513
 3607SOL    HW216785   6.797   0.699   5.647  0.3526 -0.3887 -0.2578
 3608SOL     OW16786  10.769   6.890   6.006 -0.5147  0.1864 -0.5913
 3608SOL    HW116787  10.817   6.812   5.978 -0.4782  0.1914 -0.5430
 3608SOL    HW216788  10.820   6.963   5.971 -0.5726  0.1873 -0.6740
 3609SOL     OW16789   2.221  10.270   2.637 -0.6212 -0.7108 -0.1133
 3609SOL    HW116790   2.191  10.187   2.671 -0.8145 -1.0483 -1.0657
 3609SOL    HW216791   2.159  10.292   2.567 -1.1056  0.6822  0.7121
 3610SOL     OW16792   4.596   0.297  10.370 -0.1336 -0.2965 -0.3638
 3610SOL    HW116793   4.525   0.357  10.390 -1.7317 -1.8960 -0.9093
 3610SOL    HW216794   4.596   0.234  10.442 -0.6101 -1.4284 -1.3041
 3611SOL     OW16795   2.446  12.279   7.467  0.0358 -0.2167  0.3575
 3611SOL    HW116796   2.385  12.206   7.471 -1.0901  0.7298  3.0618
 3611SOL    HW216797   2.533  12.238   7.474 -0.4183 -1.4140 -0.7611
 3612SOL     OW16798  10.195   6.559  11.913  0.2524 -0.5099 -0.0418
 3612SOL    HW116799  10.267   6.619  11.891 -0.6497  0.8571  0.5385
 3612SOL    HW216800  10.221   6.519  11.995  0.4178 -0.1107  0.1028
 3613SOL     OW16801  11.302   1.978  11.870 -0.2997 -0.2233  0.0210
 3613SOL    HW116802  11.253   1.995  11.789 -0.3692 -1.4223 -0.2090
 3613SOL    HW216803  11.391   2.006  11.850  0.1574 -2.3588 -1.2097
 3614SOL     OW16804  10.075   0.075  10.175  0.3623 -0.3548  0.3805
 3614SOL    HW116805   9.994   0.126  10.176  1.6948  1.9400 -0.9264
 3614SOL    HW216806  10.140   0.134  10.215  1.5887 -1.8075  0.6010
 3615SOL     OW16807   2.228  11.394  12.042 -0.1678  0.3530  0.4052
 3615SOL    HW116808   2.168  11.364  12.109 -0.1000 -0.5795  0.0547
 3615SOL    HW216809   2.232  11.489  12.054 -2.2435  0.5420  0.0132
 3616SOL     OW16810   3.013  10.730  10.466  0.5832 -0.2315 -0.2225
 3616SOL    HW116811   2.991  10.791  10.537  0.5786 -1.0309  0.4824
 3616SOL    HW216812   3.089  10.682  10.499  0.4588 -0.7503 -0.6760
 3617SOL     OW16813   5.301   9.583   6.676 -0.2574 -0.5875 -0.5503
 3617SOL    HW116814   5.289   9.586   6.771  0.2492  0.3055 -0.5104
 3617SOL    HW216815   5.285   9.672   6.646  1.0756 -0.5156 -1.1159
 3618SOL     OW16816   2.503   2.675   8.040  0.3067  0.1002 -0.2953
 3618SOL    HW116817   2.564   2.701   7.971 -0.3543  1.8413 -0.2763
 3618SOL    HW216818   2.502   2.580   8.036 -0.0787  0.1178 -3.0747
 3619SOL     OW16819  11.697   3.509   2.230 -0.7324  0.1317 -0.0711
 3619SOL    HW116820  11.726   3.424   2.264 -0.7866  0.0355 -0.2610
 3619SOL    HW216821  11.758   3.529   2.160 -0.4263  0.4841  0.2973
 3620SOL     OW16822   5.787  11.032   0.843 -0.7769  0.7791  0.5519
 3620SOL    HW116823   5.863  11.078   0.805  0.5931 -2.0995 -0.4934
 3620SOL    HW216824   5.728  11.020   0.769 -0.5984 -0.0942  0.5461
 3621SOL     OW16825   5.398   0.638   3.976  0.1628 -0.5219 -0.5289
 3621SOL    HW116826   5.393   0.730   3.950  2.1862 -0.2453 -0.0643
 3621SOL    HW216827   5.329   0.629   4.042  0.8142  1.0424  0.4407
 3622SOL     OW16828   5.999   1.346  10.452 -0.1200 -0.4559  0.3043
 3622SOL    HW116829   6.093   1.340  10.470 -0.0560 -0.5271 -0.0464
 3622SOL    HW216830   5.993   1.365  10.359 -0.4691 -1.9079  0.0030
 3623SOL     OW16831   2.896   0.712  12.094  0.1699 -0.2362 -0.1516
 3623SOL    HW116832   2.911   0.618  12.105 -1.3462 -0.2994  1.8268
 3623SOL    HW216833   2.869   0.720  12.002  0.3592 -1.7300 -0.3756
 3624SOL     OW16834   1.820   1.538   7.528  0.1339 -0.0539  0.0928
 3624SOL    HW116835   1.912   1.530   7.503  0.0543 -2.1277  0.2875
 3624SOL    HW216836   1.821   1.596   7.604  1.5617 -1.6137  1.3472
 3625SOL     OW16837   3.140   3.287   4.271  0.1978  0.0889 -0.1421
 3625SOL    HW116838   3.214   3.345   4.289 -0.1091  0.4091  0.1124
 3625SOL    HW216839   3.090   3.332   4.203  0.4685 -0.3368 -0.6289
 3626SOL     OW16840   1.649   6.436   4.482 -0.1002  0.4382 -0.0723
 3626SOL    HW116841   1.594   6.368   4.442 -0.2718  0.6678 -0.2270
 3626SOL    HW216842   1.733   6.429   4.436 -0.7662  1.6965 -1.5355
 3627SOL     OW16843   4.885   0.537   1.066 -0.3663 -0.2292 -0.3264
 3627SOL    HW116844   4.896   0.599   1.138  0.1707 -3.6195  2.7806
 3627SOL    HW216845   4.790   0.527   1.058 -0.4725  1.0732 -1.0596
 3628SOL     OW16846  11.942  11.542   4.765  0.2036 -0.1494  0.2048
 3628SOL    HW116847  11.992  11.623   4.752 -1.0114  0.3655 -1.6309
 3628SOL    HW216848  11.887  11.535   4.687 -1.6038 -1.3981  1.5178
 3629SOL     OW16849   4.166   2.638   3.446 -0.1725  0.2187  0.5607
 3629SOL    HW116850   4.167   2.641   3.542 -0.0897  1.8561  0.5307
 3629SOL    HW216851   4.099   2.700   3.420 -0.8205 -0.8522 -0.4548
 3630SOL     OW16852   1.652   6.321   7.061  0.3643 -0.0988 -0.2891
 3630SOL    HW116853   1.679   6.348   6.973 -0.9714  0.7790 -0.4516
 3630SOL    HW216854   1.564   6.356   7.071  1.0981  1.3140  2.0456
 3631SOL     OW16855   4.273   1.609  12.472  0.3993  0.2517  0.1344
 3631SOL    HW116856   4.326   1.578  12.399  0.5100 -0.8497  0.6585
 3631SOL    HW216857   4.183   1.591  12.445  0.5146 -2.3001  1.1353
 3632SOL     OW16858   5.007   5.300  10.277  0.5067  0.0952 -0.0667
 3632SOL    HW116859   5.059   5.295  10.197 -1.7432 -0.4470 -1.6022
 3632SOL    HW216860   4.996   5.208  10.304  0.0715  0.1675  0.0150
 3633SOL     OW16861   9.097   0.840   0.890  0.0433 -0.2968 -0.3000
 3633SOL    HW116862   9.121   0.749   0.910 -1.2681 -0.2993  1.4787
 3633SOL    HW216863   9.003   0.843   0.904  0.3499  1.8480  1.8813
 3634SOL     OW16864   9.719   0.004   5.327 -0.2801 -0.1442  0.2763
 3634SOL    HW116865   9.789   0.016   5.391  0.1588  0.5060 -0.3022
 3634SOL    HW216866   9.641   0.039   5.369 -0.2350 -0.7413  0.8717
 3635SOL     OW16867   3.714   7.981   5.485  0.3188 -0.1627  0.4085
 3635SOL    HW116868   3.620   7.991   5.496  0.4847  0.3131  1.5732
 3635SOL    HW216869   3.735   8.028   5.404 -0.5489 -0.9517 -0.2808
 3636SOL     OW16870  12.093   7.608   3.968 -0.1075 -0.3845 -0.0999
 3636SOL    HW116871  12.059   7.637   3.883  0.3911 -1.9676 -0.8768
 3636SOL    HW216872  12.034   7.648   4.032 -0.5628  0.7490 -1.1873
 3637SOL     OW16873  12.265   6.217   2.671 -1.0047  1.0285 -0.0498
 3637SOL    HW116874  12.348   6.211   2.719 -0.8075 -0.6550 -0.5262
 3637SOL    HW216875  12.213   6.144   2.704 -1.5800  0.9522 -1.0857
 3638SOL     OW16876   5.936   2.441  10.346  0.4280 -0.5318  0.0331
 3638SOL    HW116877   5.961   2.486  10.427  1.0604 -1.9653  0.6652
 3638SOL    HW216878   5.860   2.388  10.371 -1.1792  1.1417 -1.0369
 3639SOL     OW16879   3.733  10.306   3.413  0.3602 -0.1336 -0.4098
 3639SOL    HW116880   3.710  10.288   3.505  0.4699 -0.0710 -0.3702
 3639SOL    HW216881   3.696  10.392   3.395  0.3832 -0.1239 -0.4099
 3640SOL     OW16882   0.393   5.753   8.498 -0.1331  0.1706 -0.3376
 3640SOL    HW116883   0.378   5.825   8.436  0.6170  1.3296  0.7668
 3640SOL    HW216884   0.435   5.795   8.574 -0.9810 -1.2091  0.9457
 3641SOL     OW16885   6.923   5.450  10.837  0.0149 -0.2381  0.3385
 3641SOL    HW116886   6.886   5.430  10.923  0.3147  0.0319  0.5305
 3641SOL    HW216887   6.850   5.490  10.788  0.1304  0.5866  0.8221
 3642SOL     OW16888   5.092  12.418   4.651  0.4208  0.1976  0.2860
 3642SOL    HW116889   5.164  12.480   4.657 -0.6814  1.8744 -2.1134
 3642SOL    HW216890   5.070  12.415   4.557 -2.4582 -0.3796  0.8664
 3643SOL     OW16891  11.662   5.818   8.434  0.1196 -0.2842 -0.8498
 3643SOL    HW116892  11.661   5.903   8.390 -0.5816  0.8320  1.1784
 3643SOL    HW216893  11.570   5.800   8.453  0.4370 -0.3733  0.7277
 3644SOL     OW16894   1.022   5.326   3.194  0.1457 -0.5676  0.2572
 3644SOL    HW116895   1.091   5.390   3.175 -2.0756  0.7885 -4.7468
 3644SOL    HW216896   0.949   5.378   3.226  0.1750 -1.5457  2.0628
 3645SOL     OW16897   7.903   0.268   9.357  0.2614 -0.3554 -0.5770
 3645SOL    HW116898   7.891   0.231   9.269 -1.2029 -0.0506 -0.5323
 3645SOL    HW216899   7.957   0.204   9.402 -0.4001 -1.3873 -1.1815
 3646SOL     OW16900   7.659   1.224   9.663 -0.3908  0.0276  0.1286
 3646SOL    HW116901   7.724   1.175   9.714 -0.8873 -0.5019  0.2646
 3646SOL    HW216902   7.710   1.266   9.593  0.2566  0.5412  0.8955
 3647SOL     OW16903   8.148   5.948  12.260 -0.0130  0.0121  0.1503
 3647SOL    HW116904   8.064   5.911  12.287 -0.2329  1.3752  1.4946
 3647SOL    HW216905   8.209   5.921  12.329  0.3230  0.2385 -0.0565
 3648SOL     OW16906   8.480  11.845   4.559 -0.4532  0.7711 -0.1334
 3648SOL    HW116907   8.502  11.771   4.503 -1.0409  0.6789 -0.2542
 3648SOL    HW216908   8.553  11.906   4.549  0.9838 -0.6152  1.4701
 3649SOL     OW16909   0.908   5.580   2.775  0.7659  0.3047 -0.0116
 3649SOL    HW116910   0.852   5.503   2.778 -1.9032  2.1166  1.0744
 3649SOL    HW216911   0.912   5.610   2.866  2.0660  1.2407 -0.3527
 3650SOL     OW16912   8.295   8.813  11.020  0.7331 -0.0468  0.1037
 3650SOL    HW116913   8.215   8.857  11.051  1.5955  0.9056  1.0586
 3650SOL    HW216914   8.361   8.882  11.019  1.2395 -0.4870 -2.0805
 3651SOL     OW16915   9.611   8.711   1.520  0.9970 -0.3753 -0.2758
 3651SOL    HW116916   9.562   8.702   1.601 -2.4824 -0.1572 -2.1632
 3651SOL    HW216917   9.619   8.806   1.507 -0.6571 -0.3256 -1.2777
 3652SOL     OW16918   1.342   7.619   9.403 -0.5290 -0.5234  0.4578
 3652SOL    HW116919   1.361   7.697   9.454  0.8848 -1.3816  1.3152
 3652SOL    HW216920   1.247   7.620   9.392 -0.5984  0.9707  0.9957
 3653SOL     OW16921   3.689   9.669   4.317  0.7083  0.4519  0.0767
 3653SOL    HW116922   3.662   9.587   4.359  3.4696 -0.1365  0.8766
 3653SOL    HW216923   3.709   9.728   4.389  0.3145  1.3097 -0.4904
 3654SOL     OW16924   4.404   0.819  11.674  0.1248  0.4023  0.0449
 3654SOL    HW116925   4.460   0.888  11.709  1.2766 -0.2845 -0.3983
 3654SOL    HW216926   4.418   0.745  11.732  1.2705 -0.4175 -1.2155
 3655SOL     OW16927  12.305   2.678   3.776 -0.7026 -0.2854 -0.0783
 3655SOL    HW116928  12.364   2.753   3.770 -0.8893 -0.1018  0.3635
 3655SOL    HW216929  12.255   2.693   3.856 -0.6127 -0.9786  0.1130
 3656SOL     OW16930   9.155  11.760   3.197  0.3408  0.3800 -0.1753
 3656SOL    HW116931   9.086  11.737   3.135  1.8281  1.7585 -2.4816
 3656SOL    HW216932   9.187  11.845   3.168  0.4538  1.6560  3.1762
 3657SOL     OW16933   5.860  11.567   6.604  0.3685  0.0293  0.3330
 3657SOL    HW116934   5.887  11.529   6.521 -0.2830 -0.2726  0.2529
 3657SOL    HW216935   5.808  11.498   6.646  1.7687 -0.3444  1.5870
 3658SOL     OW16936   4.365   7.047   3.859 -0.7616 -0.4282 -0.2112
 3658SOL    HW116937   4.389   7.133   3.895 -0.3448  0.3531 -2.2215
 3658SOL    HW216938   4.425   6.986   3.901  0.0671  0.5153  0.0244
 3659SOL     OW16939   5.358   0.627   0.668 -0.3812 -0.2886 -0.4565
 3659SOL    HW116940   5.395   0.714   0.679 -0.0486 -0.3760 -0.8830
 3659SOL    HW216941   5.275   0.630   0.716  0.0705 -0.0297  0.3267
 3660SOL     OW16942  12.305   3.411   9.445  0.0611  0.0989 -0.8735
 3660SOL    HW116943  12.324   3.389   9.536  0.6635 -0.9340 -1.2296
 3660SOL    HW216944  12.210   3.413   9.440  0.0179 -0.3979 -0.3426
 3661SOL     OW16945   3.257   1.003   5.414 -0.0812 -0.3838 -0.4406
 3661SOL    HW116946   3.349   1.017   5.390 -0.1840 -0.4951 -0.8975
 3661SOL    HW216947   3.254   1.022   5.508  0.5758 -1.1510 -0.2535
 3662SOL     OW16948   0.015   4.947   7.469 -0.5383 -0.4341 -0.1940
 3662SOL    HW116949   0.096   4.996   7.478  0.5229 -2.2675  0.6556
 3662SOL    HW216950  -0.039   5.001   7.411  2.2511 -0.3591 -2.9516
 3663SOL     OW16951  12.491  10.783   5.849 -0.1669  0.1558  0.1942
 3663SOL    HW116952  12.427  10.798   5.780  0.5415  1.4452 -0.1989
 3663SOL    HW216953  12.568  10.748   5.805  0.1830  0.7019  0.3620
 3664SOL     OW16954   7.544  10.426   8.988  0.5523 -0.7068 -0.1946
 3664SOL    HW116955   7.638  10.416   8.969  1.1314  1.4205  1.2314
 3664SOL    HW216956   7.525  10.517   8.969 -1.0672 -0.9216  0.2409
 3665SOL     OW16957   2.004   8.515   0.756  0.0997  0.1587 -0.5802
 3665SOL    HW116958   2.076   8.537   0.698 -0.5671  2.6272 -0.5920
 3665SOL    HW216959   1.929   8.563   0.720 -1.2343 -1.2223  0.2210
 3666SOL     OW16960   6.757   0.755   8.409  0.0973 -0.8083  0.0946
 3666SOL    HW116961   6.802   0.703   8.476 -0.2432 -0.5478  0.5316
 3666SOL    HW216962   6.730   0.835   8.455  1.8756  0.4310 -0.9114
 3667SOL     OW16963   5.926   6.607  12.029  0.4430 -0.0079 -0.1492
 3667SOL    HW116964   6.006   6.622  11.979  0.1977  0.9564 -0.2884
 3667SOL    HW216965   5.934   6.666  12.104 -0.3687  0.5241 -0.4584
 3668SOL     OW16966  12.257   8.808   4.623  0.1920 -0.0852  0.3819
 3668SOL    HW116967  12.229   8.899   4.620  2.3176  0.7331  2.2984
 3668SOL    HW216968  12.276   8.785   4.532  1.5362  2.0948  0.0490
 3669SOL     OW16969   3.088   1.960   1.421  0.2422 -0.0089  0.1516
 3669SOL    HW116970   3.176   1.945   1.388  1.5280  2.9281  1.8085
 3669SOL    HW216971   3.100   2.021   1.494 -3.0654 -0.5084  1.2933
 3670SOL     OW16972   1.781   9.418   1.315  0.5355 -0.1486  0.3921
 3670SOL    HW116973   1.784   9.424   1.219  0.8066 -0.3832  0.3831
 3670SOL    HW216974   1.705   9.470   1.340  0.2759 -0.3496  0.0258
 3671SOL     OW16975   1.950   6.478   6.847 -0.2396 -0.0205  0.3239
 3671SOL    HW116976   1.935   6.501   6.938 -2.0234  1.0835 -0.2058
 3671SOL    HW216977   1.908   6.393   6.836  0.8535 -0.6390  0.7407
 3672SOL     OW16978  12.137   3.122  10.008  0.0223  0.3297  0.0015
 3672SOL    HW116979  12.222   3.093  10.042  1.4029  0.7849 -2.7696
 3672SOL    HW216980  12.108   3.190  10.069  1.4051 -0.1950  1.2814
 3673SOL     OW16981   7.934   1.661   0.196  0.3605  0.0809 -0.5154
 3673SOL    HW116982   7.967   1.577   0.164  0.8958  0.0029  0.1971
 3673SOL    HW216983   7.990   1.681   0.271 -1.4003 -0.2009  0.9469
 3674SOL     OW16984   5.872   6.721   4.369  0.2398  0.1051  0.3908
 3674SOL    HW116985   5.819   6.739   4.291 -0.1383 -0.1732  0.5821
 3674SOL    HW216986   5.959   6.753   4.346  0.4590 -1.1350 -0.6313
 3675SOL     OW16987   2.173   3.840  12.032  0.5000  0.0265  0.2872
 3675SOL    HW116988   2.255   3.796  12.008 -0.9137 -2.8118  0.2606
 3675SOL    HW216989   2.196   3.933  12.036  3.9259 -0.7188  1.1476
 3676SOL     OW16990   8.608   2.681   4.709 -0.2273 -0.3577  0.5713
 3676SOL    HW116991   8.519   2.645   4.699 -1.4417  1.9707  2.3013
 3676SOL    HW216992   8.599   2.774   4.687  1.1808  0.5117  3.2988
 3677SOL     OW16993   6.948   9.249   5.065  0.2322  0.1971  0.2975
 3677SOL    HW116994   6.912   9.304   4.995  0.1998 -2.0157 -1.5452
 3677SOL    HW216995   7.041   9.242   5.044  0.3209 -0.0803  0.7774
 3678SOL     OW16996   6.313  10.817   8.920  0.7025 -0.1300  0.3872
 3678SOL    HW116997   6.405  10.811   8.944  0.5295 -2.1285  0.6857
 3678SOL    HW216998   6.313  10.864   8.836  1.8672  0.9111  0.9366
 3679SOL     OW16999   9.730   6.685   0.577 -0.4362 -0.2328 -0.3880
 3679SOL    HW117000   9.650   6.655   0.534 -0.8948 -1.2471  1.0874
 3679SOL    HW217001   9.699   6.732   0.655  0.3882  0.4378 -0.4492
 3680SOL     OW17002   4.888  11.132   5.239  0.1451  0.6466 -0.0247
 3680SOL    HW117003   4.896  11.222   5.205  1.7433  1.5467  2.4157
 3680SOL    HW217004   4.917  11.139   5.330 -0.9067 -2.1563  0.6138
 3681SOL     OW17005   2.235   8.498   1.639 -0.1412 -0.0132  0.1123
 3681SOL    HW117006   2.205   8.450   1.716  1.2487  2.5081  2.4115
 3681SOL    HW217007   2.168   8.564   1.623  1.2456  1.8458  1.5806
 3682SOL     OW17008   0.255   7.072   3.650 -0.1052  0.0877 -0.1345
 3682SOL    HW117009   0.305   6.995   3.622  0.1362  0.3908 -0.5439
 3682SOL    HW217010   0.176   7.036   3.690 -0.3172 -0.3598 -0.9405
 3683SOL     OW17011   4.517   4.915   1.424  0.0644 -0.7315  0.2835
 3683SOL    HW117012   4.597   4.915   1.371 -1.0377  1.0899 -1.5021
 3683SOL    HW217013   4.456   4.858   1.376  0.0563 -1.6769  1.3557
 3684SOL     OW17014  11.363  10.700   1.852 -0.5939 -0.0289 -0.4459
 3684SOL    HW117015  11.283  10.727   1.806 -0.4245  1.2797 -0.0075
 3684SOL    HW217016  11.364  10.753   1.931  1.7879  1.5909 -1.4710
 3685SOL     OW17017  11.565   9.266  12.372 -0.5926 -0.1842 -0.0196
 3685SOL    HW117018  11.568   9.204  12.299  0.2237  0.9044 -0.9513
 3685SOL    HW217019  11.585   9.213  12.449  2.3210 -0.7810 -1.0343
 3686SOL     OW17020  10.983   0.541   1.483 -0.1487  0.5777  0.0999
 3686SOL    HW117021  11.027   0.505   1.560 -0.2449  2.3222  1.0026
 3686SOL    HW217022  10.905   0.487   1.472 -0.2013  0.3929  1.3096
 3687SOL     OW17023   7.034   5.715   1.344  0.1797  0.3684 -0.1538
 3687SOL    HW117024   7.019   5.622   1.327  2.1488  0.0898 -0.5541
 3687SOL    HW217025   7.021   5.757   1.258  0.7109  0.2632 -0.2866
 3688SOL     OW17026   7.227   3.852   4.072  0.2558  0.1535  0.7855
 3688SOL    HW117027   7.149   3.881   4.024  1.8724  0.5975 -1.7531
 3688SOL    HW217028   7.221   3.757   4.071 -0.2688  0.1837  0.6665
 3689SOL     OW17029   8.349   3.656  12.230  0.3467  0.0396 -0.4361
 3689SOL    HW117030   8.407   3.652  12.306 -0.1211  0.8619 -0.0080
 3689SOL    HW217031   8.314   3.745  12.232 -0.6151 -0.3079 -0.9033
 3690SOL     OW17032   2.252   1.979   8.049  0.1132 -0.0886  0.2202
 3690SOL    HW117033   2.198   1.967   7.972  0.9067 -0.5517 -0.2698
 3690SOL    HW217034   2.310   1.903   8.051 -3.0603 -2.8200  3.9935
 3691SOL     OW17035  12.010   4.887  12.366  0.0541 -0.3175  0.0862
 3691SOL    HW117036  12.069   4.812  12.358  2.0829  1.1956  0.0462
 3691SOL    HW217037  11.925   4.853  12.339  0.1460 -3.4041  2.9414
 3692SOL     OW17038   4.797  12.413  11.204 -0.5386  0.3244 -0.3050
 3692SOL    HW117039   4.712  12.450  11.228 -2.3074 -3.4101 -0.1680
 3692SOL    HW217040   4.828  12.370  11.284  0.9508  0.6371 -0.6823
 3693SOL     OW17041   6.441  10.695   1.135 -0.1215 -0.2238  0.2038
 3693SOL    HW117042   6.479  10.750   1.204  0.3666  0.3532 -0.5010
 3693SOL    HW217043   6.394  10.757   1.079  1.2929 -0.3331 -1.1813
 3694SOL     OW17044  11.900   6.172   5.871 -0.8262 -0.4146  0.0947
 3694SOL    HW117045  11.866   6.131   5.791 -0.0341  1.4696 -1.2702
 3694SOL    HW217046  11.993   6.152   5.871 -0.8544 -0.5647  0.6577
 3695SOL     OW17047   6.551  12.002  11.752  0.2109  0.6179  0.2427
 3695SOL    HW117048   6.465  11.967  11.776 -0.1379  0.7458 -0.7760
 3695SOL    HW217049   6.532  12.080  11.700  0.8717 -0.3412 -1.5268
 3696SOL     OW17050   1.046   3.506   0.586  0.1301  0.5020 -0.0635
 3696SOL    HW117051   1.042   3.579   0.648  0.8884 -0.1426  0.7681
 3696SOL    HW217052   1.139   3.489   0.574 -0.0376 -0.6852  0.1899
 3697SOL     OW17053   5.548   0.912  11.694 -0.1547 -0.1827  0.7689
 3697SOL    HW117054   5.590   0.854  11.758 -0.1798 -0.0917  0.8683
 3697SOL    HW217055   5.611   0.918  11.622 -0.6227 -1.2135  0.2515
 3698SOL     OW17056  11.332   4.893   8.932  0.2591 -0.3203 -1.1104
 3698SOL    HW117057  11.368   4.862   8.849  1.2002  0.7323 -1.1254
 3698SOL    HW217058  11.408   4.918   8.984 -0.3196 -0.8734  0.0515
 3699SOL     OW17059   4.505   7.624   0.995 -0.1112  0.5870 -0.8362
 3699SOL    HW117060   4.440   7.603   0.927 -0.5301  0.4817 -0.4071
 3699SOL    HW217061   4.589   7.597   0.957 -0.5919 -1.6765 -0.3914
 3700SOL     OW17062   6.216   4.666   4.194 -0.1161 -0.1077  0.1454
 3700SOL    HW117063   6.125   4.639   4.211  0.0159 -0.2384  0.6677
 3700SOL    HW217064   6.255   4.593   4.147 -0.1525 -0.2505  0.3337
 3701SOL     OW17065   0.941   7.227   5.366 -0.3277  0.2614  0.2995
 3701SOL    HW117066   0.923   7.180   5.284  2.7601 -0.7223  0.0753
 3701SOL    HW217067   0.995   7.301   5.340 -0.7927  0.9759  1.2906
 3702SOL     OW17068   2.367   4.203   4.478 -0.0995  0.5386 -0.2089
 3702SOL    HW117069   2.416   4.249   4.410 -0.6061  1.6370  0.1457
 3702SOL    HW217070   2.287   4.173   4.435  0.1672  0.1040 -0.4063
 3703SOL     OW17071   8.530   1.842   7.318 -0.1430 -0.5384 -0.4606
 3703SOL    HW117072   8.539   1.888   7.235 -0.7127 -0.8964 -0.7235
 3703SOL    HW217073   8.438   1.819   7.324 -0.6266  1.5570  1.3848
 3704SOL     OW17074   6.670   7.679   5.227  0.1354 -0.7445 -0.3691
 3704SOL    HW117075   6.589   7.629   5.219  1.2962 -2.4657 -2.2356
 3704SOL    HW217076   6.665   7.719   5.314 -2.2629 -1.5634 -0.0594
 3705SOL     OW17077  11.135  10.835   8.634 -0.0307  0.2205  0.0909
 3705SOL    HW117078  11.084  10.766   8.677  0.6104  0.3271  1.0486
 3705SOL    HW217079  11.140  10.808   8.543 -0.9898 -0.2740  0.1739
 3706SOL     OW17080  11.564  10.304   8.636 -0.7669 -0.4055 -0.3851
 3706SOL    HW117081  11.480  10.309   8.681 -0.4400  0.0487  0.1986
 3706SOL    HW217082  11.614  10.377   8.672 -0.0106 -0.8616 -0.4910
 3707SOL     OW17083   0.064   6.390  10.777  0.3890  0.2188 -0.4259
 3707SOL    HW117084   0.137   6.372  10.718  0.7948 -0.8823  0.3898
 3707SOL    HW217085  -0.003   6.326  10.751  0.4062  0.0195  0.0234
 3708SOL     OW17086   8.446  10.572  11.404  0.5839  0.0904  0.1657
 3708SOL    HW117087   8.519  10.511  11.390  0.8109  0.1740  0.9368
 3708SOL    HW217088   8.467  10.616  11.487  0.3945  1.1890 -0.3647
 3709SOL     OW17089   8.079   8.689   7.542 -0.6210  0.0790 -0.6633
 3709SOL    HW117090   8.052   8.781   7.549  1.3244  0.5993  1.0679
 3709SOL    HW217091   8.153   8.691   7.481  0.5068 -0.0169  0.6541
 3710SOL     OW17092  11.595   7.049   4.672  0.2508  0.2567 -0.1379
 3710SOL    HW117093  11.665   7.074   4.732 -1.1783 -0.5669  2.0169
 3710SOL    HW217094  11.636   7.045   4.586  1.8213  4.3774  0.1911
 3711SOL     OW17095   0.980   2.770   9.496 -0.0626  0.0041  0.2239
 3711SOL    HW117096   0.988   2.678   9.470  1.3617 -0.0962  0.9622
 3711SOL    HW217097   1.022   2.818   9.425 -1.0654  0.1370 -0.3080
 3712SOL     OW17098   5.737  10.334   2.232 -0.0062  0.1925 -0.2298
 3712SOL    HW117099   5.762  10.423   2.255  1.5424 -0.8249  2.3779
 3712SOL    HW217100   5.647  10.326   2.264  0.1311  0.5554  0.2516
 3713SOL     OW17101   0.095  10.543   8.876 -0.4695 -0.1205 -0.0112
 3713SOL    HW117102   0.027  10.585   8.823 -0.5899  0.5187  0.6262
 3713SOL    HW217103   0.049  10.512   8.954 -0.0053  0.5294  0.5381
 3714SOL     OW17104   4.792   5.847   4.211  0.2535 -0.1287 -0.5810
 3714SOL    HW117105   4.833   5.904   4.147  0.1296  1.4230  0.6483
 3714SOL    HW217106   4.759   5.907   4.279  0.4145 -1.6858  0.9438
 3715SOL     OW17107  10.612   1.693  12.465  0.9599 -0.3009  0.4506
 3715SOL    HW117108  10.578   1.630  12.402  2.1824 -2.5358  1.8988
 3715SOL    HW217109  10.703   1.708  12.439  0.9928  0.0267  0.7370
 3716SOL     OW17110  10.794   0.876   0.940 -0.5375 -0.7418 -0.1707
 3716SOL    HW117111  10.842   0.793   0.941 -0.2135 -0.6014 -1.5063
 3716SOL    HW217112  10.858   0.941   0.970  0.5225 -0.4000 -2.8861
 3717SOL     OW17113   6.311   5.436   3.384  0.0923 -0.1618 -0.0908
 3717SOL    HW117114   6.311   5.446   3.289  0.0029  1.3328  0.0451
 3717SOL    HW217115   6.251   5.504   3.415  0.3411 -0.4449  1.0526
 3718SOL     OW17116   2.899   1.517   8.777  0.1368 -0.4343  0.6682
 3718SOL    HW117117   2.842   1.481   8.846 -0.8462 -1.1886 -0.4884
 3718SOL    HW217118   2.875   1.468   8.698  0.0854  1.4927 -0.5775
 3719SOL     OW17119  11.941   8.286   9.049  0.5732  0.0717  0.7338
 3719SOL    HW117120  11.862   8.337   9.030 -0.5681 -1.1716  1.9495
 3719SOL    HW217121  11.911   8.196   9.054  2.0838 -0.4347  1.1839
 3720SOL     OW17122   8.944   1.239  12.417  0.7413  0.0024  0.5998
 3720SOL    HW117123   8.932   1.288  12.336  2.5951  0.6902  0.6955
 3720SOL    HW217124   8.905   1.294  12.484 -0.6931 -0.5123  0.2204
 3721SOL     OW17125   5.268   7.398   8.141 -0.0562  0.1766 -0.3243
 3721SOL    HW117126   5.267   7.303   8.149 -0.7294  0.2257  0.2401
 3721SOL    HW217127   5.353   7.418   8.100  0.4534 -0.5939  0.3403
 3722SOL     OW17128   7.983   5.469   6.336 -0.5533 -0.0091  0.1102
 3722SOL    HW117129   8.059   5.526   6.345 -0.5435 -0.1220  0.7918
 3722SOL    HW217130   7.921   5.520   6.283 -1.1282  1.2572  1.9135
 3723SOL     OW17131  12.353   1.674   1.269  0.1114 -0.7651 -0.2863
 3723SOL    HW117132  12.407   1.618   1.213  0.5854 -1.8076  1.1477
 3723SOL    HW217133  12.405   1.753   1.283  1.1871 -1.6239  0.8087
 3724SOL     OW17134   6.116   3.001   9.157 -0.1044  0.5577 -0.2123
 3724SOL    HW117135   6.111   3.046   9.073  0.8581 -0.9006 -1.1045
 3724SOL    HW217136   6.127   2.909   9.134  0.2072  0.1273  1.5208
 3725SOL     OW17137   7.377  10.976   6.221  0.4029  0.1354  0.3302
 3725SOL    HW117138   7.375  10.882   6.238  0.1250  0.1811  0.5657
 3725SOL    HW217139   7.426  10.985   6.139  1.1871 -0.1442  0.7558
 3726SOL     OW17140  12.092   9.294   4.431  0.1096  0.2760 -0.6373
 3726SOL    HW117141  12.130   9.327   4.350  1.0887  1.8891  0.4367
 3726SOL    HW217142  12.001   9.275   4.408  1.0903 -2.4379 -2.9226
 3727SOL     OW17143   2.074   8.589  12.406 -0.0449 -0.1385 -0.0607
 3727SOL    HW117144   1.980   8.605  12.398 -0.1661 -0.3855  0.7521
 3727SOL    HW217145   2.105   8.578  12.316 -0.5888  1.0578 -0.3998
 3728SOL     OW17146   9.029   9.799   4.526  0.1983  0.3184 -0.7748
 3728SOL    HW117147   9.046   9.719   4.475 -1.3842  1.2787 -2.9686
 3728SOL    HW217148   9.115   9.837   4.540  0.6990  0.1356 -3.0322
 3729SOL     OW17149   2.500   8.521   9.621 -0.4875 -0.4375  0.4906
 3729SOL    HW117150   2.511   8.495   9.713 -1.6455 -0.2348  0.7075
 3729SOL    HW217151   2.473   8.613   9.625  1.6950  0.2980 -0.1851
 3730SOL     OW17152   6.152   8.657  11.646 -0.5423 -0.3732 -0.3101
 3730SOL    HW117153   6.217   8.723  11.624  0.2448 -1.3280 -0.9516
 3730SOL    HW217154   6.152   8.653  11.742  1.5230 -1.4703 -0.3160
 3731SOL     OW17155   8.148   0.571  12.390  0.2332 -0.3019 -0.0977
 3731SOL    HW117156   8.218   0.511  12.416  0.5885 -0.3244 -1.0578
 3731SOL    HW217157   8.188   0.629  12.325  0.3436  2.0584  1.9383
 3732SOL     OW17158   8.952   4.236   9.788  0.1940 -0.3927  0.0821
 3732SOL    HW117159   8.946   4.142   9.807  1.6860 -0.6261 -0.4690
 3732SOL    HW217160   8.869   4.272   9.818  0.0522 -1.7049  1.3465
 3733SOL     OW17161   8.322  10.726   3.328 -0.0241 -0.2439 -0.4143
 3733SOL    HW117162   8.331  10.668   3.404 -0.8831  0.9304  0.6301
 3733SOL    HW217163   8.335  10.814   3.363  0.4560  0.2710 -1.8091
 3734SOL     OW17164   6.866   8.707  11.367 -0.3086  0.5189  0.9871
 3734SOL    HW117165   6.861   8.727  11.460  0.5660 -0.3812  1.2409
 3734SOL    HW217166   6.959   8.697  11.349 -0.3881  1.5513 -0.1942
 3735SOL     OW17167   1.589   4.479   9.007  0.0630  0.4552 -0.5741
 3735SOL    HW117168   1.531   4.403   9.008  0.2245  0.3005  1.7025
 3735SOL    HW217169   1.660   4.454   8.947 -0.5977 -0.6189 -0.9359
 3736SOL     OW17170   8.224   8.099   6.164 -0.2024 -0.3489  0.7115
 3736SOL    HW117171   8.183   8.026   6.118  1.0706 -1.7852  1.7193
 3736SOL    HW217172   8.289   8.132   6.102  1.8102 -2.5497  1.4670
 3737SOL     OW17173   1.539   5.644  11.577 -0.8429 -0.0961 -0.3426
 3737SOL    HW117174   1.603   5.586  11.618 -1.8570 -1.4795 -0.6538
 3737SOL    HW217175   1.539   5.723  11.632  1.4194  0.1498 -0.5856
 3738SOL     OW17176   0.638  10.014   3.411  0.2575  0.1005 -0.0520
 3738SOL    HW117177   0.551   9.977   3.426  0.3120  0.4262  1.2282
 3738SOL    HW217178   0.682   9.952   3.353  0.5718 -2.2145  2.4821
 3739SOL     OW17179   4.852   5.869  10.647 -0.4051  0.6559 -0.1107
 3739SOL    HW117180   4.885   5.945  10.599  0.8626 -0.0324 -0.3766
 3739SOL    HW217181   4.930   5.816  10.664 -1.2777 -0.6309 -0.0210
 3740SOL     OW17182   2.298   4.309  10.748  0.5975 -0.0938 -0.0986
 3740SOL    HW117183   2.251   4.347  10.674 -0.7201 -0.2104  0.6482
 3740SOL    HW217184   2.281   4.215  10.741  0.3121 -0.0847  0.4603
 3741SOL     OW17185   8.511   5.255   0.912 -0.3536  0.0820 -0.2583
 3741SOL    HW117186   8.511   5.230   0.819  0.9563  0.1063 -0.2858
 3741SOL    HW217187   8.601   5.283   0.929 -0.4835 -0.2626  1.1121
 3742SOL     OW17188   9.663  10.809   3.774  0.0959  0.9760  0.1943
 3742SOL    HW117189   9.723  10.799   3.847  0.5367 -0.2805 -0.2962
 3742SOL    HW217190   9.690  10.890   3.731  1.5498  0.3948 -0.0769
 3743SOL     OW17191   4.113   0.186   5.114  0.0385 -0.3714  0.0703
 3743SOL    HW117192   4.167   0.259   5.144  0.5446 -0.2467 -1.0983
 3743SOL    HW217193   4.067   0.156   5.193  0.3461  0.7568  0.6945
 3744SOL     OW17194   3.199   6.536  11.727 -0.0597  0.0767  0.0066
 3744SOL    HW117195   3.238   6.540  11.640 -0.7940 -1.7163 -0.4352
 3744SOL    HW217196   3.267   6.570  11.785  1.6828 -1.6939 -0.8953
 3745SOL     OW17197  12.095   6.390   4.014  0.0488 -0.2095  0.2460
 3745SOL    HW117198  12.122   6.365   3.925 -0.4552 -0.6023  0.1950
 3745SOL    HW217199  12.158   6.456   4.041 -0.7258  1.1059 -1.0289
 3746SOL     OW17200   9.517   5.611  10.762 -0.0365 -0.3321  0.3748
 3746SOL    HW117201   9.612   5.607  10.769 -0.0567 -0.5346  0.5210
 3746SOL    HW217202   9.486   5.526  10.793 -0.2277 -0.5372 -0.3497
 3747SOL     OW17203   4.833   5.811   1.019 -0.2810  0.2457 -0.2659
 3747SOL    HW117204   4.793   5.765   0.945  0.2077 -0.6516  0.0155
 3747SOL    HW217205   4.770   5.799   1.091  0.0100 -0.2988 -0.0971
 3748SOL     OW17206   4.041   3.078  12.158  0.1861 -0.5574  0.1350
 3748SOL    HW117207   3.979   3.064  12.230 -0.5588  0.8974 -0.1924
 3748SOL    HW217208   4.028   3.169  12.133  1.4883 -0.6273 -0.8780
 3749SOL     OW17209   2.685   5.333   6.856 -0.1248  0.1042  0.4130
 3749SOL    HW117210   2.590   5.332   6.868 -0.2406  0.0103 -0.4266
 3749SOL    HW217211   2.707   5.241   6.839  0.1705  0.0685  0.9709
 3750SOL     OW17212   9.253  10.815   9.537  0.1170 -0.1037 -0.1477
 3750SOL    HW117213   9.192  10.879   9.574 -0.7888 -0.7933 -0.4168
 3750SOL    HW217214   9.213  10.730   9.555  0.8421 -0.5579 -0.6130
 3751SOL     OW17215   4.007   3.810   4.293 -0.3026 -0.0873  0.1565
 3751SOL    HW117216   4.045   3.829   4.379 -0.4633  1.9297 -0.1690
 3751SOL    HW217217   3.970   3.893   4.264 -2.1681 -1.2281 -0.9393
 3752SOL     OW17218   2.463  10.453   4.318 -0.3143 -0.3569  0.8222
 3752SOL    HW117219   2.476  10.494   4.404 -0.8305  0.7475  0.3931
 3752SOL    HW217220   2.370  10.430   4.316 -0.5746  0.6795  0.1324
 3753SOL     OW17221   8.725   0.648   5.418 -0.1252  0.1661  0.3292
 3753SOL    HW117222   8.818   0.637   5.437  0.3313  1.6948 -0.7699
 3753SOL    HW217223   8.689   0.560   5.424  1.5441 -0.5875  0.0526
 3754SOL     OW17224   2.938   9.137   8.999  0.2433  0.2500  0.2877
 3754SOL    HW117225   2.862   9.163   8.947  1.6468  3.3041 -0.5231
 3754SOL    HW217226   2.908   9.139   9.090 -0.5756  1.9322  0.0152
 3755SOL     OW17227   1.331   9.755   9.439  0.0738 -0.2482 -0.3141
 3755SOL    HW117228   1.415   9.783   9.475  0.7125 -2.1414 -0.2488
 3755SOL    HW217229   1.351   9.678   9.386 -1.6461 -0.8487 -0.1700
 3756SOL     OW17230   9.414   6.420  11.410 -0.1880  0.1000  0.6387
 3756SOL    HW117231   9.503   6.419  11.447 -0.1192  1.8340  0.6172
 3756SOL    HW217232   9.422   6.375  11.326  0.1891 -1.6446  1.5517
 3757SOL     OW17233   6.103   3.605   9.117  0.3754  0.1930  0.4274
 3757SOL    HW117234   6.085   3.655   9.197  0.4226  0.8235  0.0483
 3757SOL    HW217235   6.096   3.669   9.047  1.8783 -0.0003  0.0601
 3758SOL     OW17236   9.752  12.262   3.053 -0.1450  0.7062  0.0946
 3758SOL    HW117237   9.829  12.285   3.104  1.6988  0.4597 -2.3579
 3758SOL    HW217238   9.784  12.197   2.989 -2.3740  0.6216 -1.0506
 3759SOL     OW17239   0.104   0.838   6.368 -0.1664  0.4353 -0.2772
 3759SOL    HW117240   0.187   0.881   6.389 -0.5212  1.2335 -0.4445
 3759SOL    HW217241   0.053   0.906   6.324 -0.6130 -0.2794 -0.8906
 3760SOL     OW17242   6.520   3.188   6.914 -0.0091 -0.0476  0.0157
 3760SOL    HW117243   6.462   3.205   6.988 -0.2458 -0.1987 -0.1309
 3760SOL    HW217244   6.532   3.273   6.873 -2.7969 -0.4218 -1.8950
 3761SOL     OW17245   9.634   6.895   2.257 -0.7567 -0.1523  0.5718
 3761SOL    HW117246   9.561   6.946   2.222 -0.1753 -0.7888 -1.7286
 3761SOL    HW217247   9.597   6.808   2.272 -0.7082 -0.2109  0.3521
 3762SOL     OW17248   2.255  11.006   3.179 -0.3961 -0.1913 -0.6228
 3762SOL    HW117249   2.200  10.943   3.226 -0.0600 -0.7273 -0.9326
 3762SOL    HW217250   2.342  10.966   3.179  0.7594  1.9407  2.4015
 3763SOL     OW17251   9.465   0.007   5.976 -0.5106 -0.4630 -0.3669
 3763SOL    HW117252   9.550   0.020   5.934 -0.2652  3.0337  0.8825
 3763SOL    HW217253   9.402   0.017   5.904  0.0204  1.9730 -0.5697
 3764SOL     OW17254   2.607  10.924   3.698  0.3859  0.2330 -0.1370
 3764SOL    HW117255   2.592  10.840   3.741 -0.0863  0.6970  0.6221
 3764SOL    HW217256   2.558  10.917   3.615  0.6497 -0.3710 -0.2472
 3765SOL     OW17257   5.496   6.712   8.604  0.0668 -0.0130  0.4781
 3765SOL    HW117258   5.530   6.793   8.567  0.2036 -1.3538 -2.6348
 3765SOL    HW217259   5.570   6.652   8.604 -0.7236 -1.0338 -0.2663
 3766SOL     OW17260   6.280   9.283   1.291 -0.2288  0.3647 -0.0812
 3766SOL    HW117261   6.330   9.215   1.247  0.8554  0.4334  1.0094
 3766SOL    HW217262   6.284   9.359   1.232  0.3197  0.1342 -0.3414
 3767SOL     OW17263   0.115  11.400  11.725 -0.0029  0.0312 -0.1480
 3767SOL    HW117264   0.067  11.404  11.642  1.1184  2.4743 -0.7689
 3767SOL    HW217265   0.151  11.312  11.728 -1.8269 -0.7945 -1.2092
 3768SOL     OW17266   3.778   3.566  10.820 -1.1324 -0.3144 -0.1177
 3768SOL    HW117267   3.728   3.622  10.879  0.4109  1.2463 -0.1990
 3768SOL    HW217268   3.766   3.605  10.733  1.1644  0.8927  0.0354
 3769SOL     OW17269   0.419  11.066   3.952  0.2654  0.2640  0.1736
 3769SOL    HW117270   0.448  11.137   4.010 -0.0017 -0.2055  0.9014
 3769SOL    HW217271   0.485  10.997   3.965  1.2008  0.8071 -1.4414
 3770SOL     OW17272   8.776   1.991   2.885 -0.3986 -0.3140  0.3026
 3770SOL    HW117273   8.718   1.960   2.817 -1.2730  1.2789  0.2693
 3770SOL    HW217274   8.811   1.912   2.926 -2.7106 -1.3355  0.4303
 3771SOL     OW17275   1.763   2.825  10.864  0.3434  0.1364  0.4949
 3771SOL    HW117276   1.684   2.792  10.822  0.0175  1.7804 -0.2823
 3771SOL    HW217277   1.833   2.805  10.803  0.5947 -1.4375  1.2431
 3772SOL     OW17278  11.181   5.836   6.737 -0.4790  0.0459  0.0584
 3772SOL    HW117279  11.248   5.799   6.680  0.7030  1.6844  0.2795
 3772SOL    HW217280  11.231   5.886   6.803 -1.8162 -1.1069  2.0515
 3773SOL     OW17281  10.516   2.008   8.747  0.5819 -0.0198  0.1150
 3773SOL    HW117282  10.501   1.931   8.802 -0.7901  1.4623  1.9521
 3773SOL    HW217283  10.452   1.999   8.677  0.5450 -0.6110  0.2132
 3774SOL     OW17284   2.455   2.169   7.959  0.4388 -0.0063  0.4127
 3774SOL    HW117285   2.381   2.111   7.977 -0.1584  0.6073 -0.0297
 3774SOL    HW217286   2.532   2.114   7.971 -0.1270 -1.0099 -0.4338
 3775SOL     OW17287   5.788  12.374  11.565 -0.4401  0.2147  0.5144
 3775SOL    HW117288   5.878  12.370  11.597 -0.4057  0.7967  0.5127
 3775SOL    HW217289   5.763  12.466  11.578 -1.0254  0.0594  0.4950
 3776SOL     OW17290   6.869   7.687  11.323 -0.1026  0.4730  0.1077
 3776SOL    HW117291   6.840   7.779  11.323  1.2727  0.9295 -0.8708
 3776SOL    HW217292   6.963   7.692  11.339 -0.4059 -0.9626  3.1289
 3777SOL     OW17293  11.042   8.417  12.378  0.6675 -0.3981 -1.3030
 3777SOL    HW117294  11.132   8.405  12.408  0.3840 -0.5850 -0.4982
 3777SOL    HW217295  10.988   8.384  12.450 -0.0355 -1.2810 -2.1875
 3778SOL     OW17296  10.187   0.497   6.305 -0.5154  0.3057  0.1519
 3778SOL    HW117297  10.099   0.537   6.306 -0.0777  1.3324 -0.4021
 3778SOL    HW217298  10.183   0.434   6.233 -0.6694  0.6634 -0.1574
 3779SOL     OW17299   3.936   2.823   5.989 -0.4372  0.3032 -0.2684
 3779SOL    HW117300   4.024   2.845   6.019 -0.9693  0.8333  0.9434
 3779SOL    HW217301   3.888   2.802   6.069 -1.3997 -0.0503 -0.9230
 3780SOL     OW17302  10.088   3.922   4.817  0.0562  0.1432  0.4978
 3780SOL    HW117303  10.065   3.894   4.729 -0.2721 -1.5901  1.0921
 3780SOL    HW217304  10.183   3.930   4.816  0.0536  0.1038 -0.0016
 3781SOL     OW17305   1.532   9.538   8.309  0.0368  0.7134 -0.0444
 3781SOL    HW117306   1.441   9.515   8.328  0.5433 -1.3029  0.1807
 3781SOL    HW217307   1.526   9.619   8.257 -2.0972 -1.0552 -2.8882
 3782SOL     OW17308   5.688   5.819   9.260  0.4976 -0.0245 -0.3868
 3782SOL    HW117309   5.783   5.808   9.268  0.2953 -1.0997  0.7508
 3782SOL    HW217310   5.667   5.784   9.174  1.2072  0.8648 -0.9433
 3783SOL     OW17311   7.510   9.890   6.443  0.2879 -0.2827  0.4636
 3783SOL    HW117312   7.551   9.805   6.454 -0.0474 -0.7666 -1.6148
 3783SOL    HW217313   7.544   9.923   6.360 -1.2620  0.5868  0.1242
 3784SOL     OW17314   5.266   7.340   1.348  0.4417 -0.1673 -0.1796
 3784SOL    HW117315   5.243   7.250   1.372 -2.2452  0.6326  0.4953
 3784SOL    HW217316   5.210   7.395   1.402  3.4182  2.0540  0.9177
 3785SOL     OW17317   3.410   6.432  11.523 -0.3626 -0.0809 -0.0385
 3785SOL    HW117318   3.474   6.411  11.591 -2.1205  0.9413  2.0734
 3785SOL    HW217319   3.405   6.354  11.469  3.0226 -0.0122 -0.6668
 3786SOL     OW17320   8.851   2.243   6.899 -0.0368 -0.2828 -0.0718
 3786SOL    HW117321   8.863   2.324   6.948  1.2949 -0.1323 -0.5989
 3786SOL    HW217322   8.939   2.205   6.894 -0.6869 -1.9324  0.4480
 3787SOL     OW17323   7.112  11.842  12.335 -0.4492 -0.2948 -0.3307
 3787SOL    HW117324   7.112  11.778  12.264 -0.5334 -0.3560 -0.2762
 3787SOL    HW217325   7.163  11.800  12.405 -0.7990 -0.4484 -0.1662
 3788SOL     OW17326   8.618  11.792   5.930 -0.0339 -0.5777 -0.0435
 3788SOL    HW117327   8.627  11.874   5.980  0.9468 -1.0239  0.5440
 3788SOL    HW217328   8.639  11.723   5.993  0.1934 -1.2258 -0.8154
 3789SOL     OW17329  12.322   4.849  12.167 -0.2132  0.2195 -0.0346
 3789SOL    HW117330  12.262   4.801  12.110 -0.3777 -0.3866  0.6325
 3789SOL    HW217331  12.335   4.792  12.242  0.1266  0.9301  0.4646
 3790SOL     OW17332   5.385   4.571   9.980  0.4747 -0.3695  0.2132
 3790SOL    HW117333   5.378   4.614   9.896  1.6337  2.9071  1.6262
 3790SOL    HW217334   5.456   4.508   9.969  0.9380  0.3669 -1.1374
 3791SOL     OW17335   0.431   5.878   1.474  0.2768  0.6243  0.0624
 3791SOL    HW117336   0.379   5.919   1.544 -1.1272  0.4371 -0.8152
 3791SOL    HW217337   0.469   5.800   1.514  1.8315  1.9893  1.3730
 3792SOL     OW17338   2.625   1.365   9.476 -0.1968  0.0226 -0.3607
 3792SOL    HW117339   2.562   1.333   9.412  0.6396 -0.1394 -1.1206
 3792SOL    HW217340   2.649   1.288   9.528 -0.2010 -0.0262 -0.4331
 3793SOL     OW17341   3.939   8.765   2.249  0.4634  0.7305 -0.4698
 3793SOL    HW117342   3.916   8.676   2.226 -0.3478  0.7841  0.0822
 3793SOL    HW217343   3.855   8.809   2.262  0.8562  1.4909 -0.4415
 3794SOL     OW17344  10.286  11.490  11.012  0.0798 -0.0183  0.1592
 3794SOL    HW117345  10.252  11.571  11.049 -0.1309 -0.1388  0.2305
 3794SOL    HW217346  10.304  11.511  10.921 -2.0945 -0.5039 -0.4354
 3795SOL     OW17347  11.875   1.501   1.957  0.4174  0.2717 -0.2416
 3795SOL    HW117348  11.875   1.474   1.865  1.9825 -1.0610  0.0864
 3795SOL    HW217349  11.784   1.526   1.975 -0.9439 -3.4075 -1.0686
 3796SOL     OW17350   3.806   1.546   4.555  0.7304  0.0514  0.2585
 3796SOL    HW117351   3.748   1.479   4.593  2.0054 -0.7073  0.9295
 3796SOL    HW217352   3.893   1.521   4.585  1.5735  0.4453 -1.7617
 3797SOL     OW17353  11.658  10.387  10.442 -0.0685 -0.0563 -0.4004
 3797SOL    HW117354  11.700  10.470  10.463 -1.3442 -0.0303  2.5933
 3797SOL    HW217355  11.726  10.321  10.460  0.7309  0.2303 -2.1508
 3798SOL     OW17356   6.538   1.657   9.196  0.1168 -0.1778  0.4292
 3798SOL    HW117357   6.494   1.681   9.277 -1.8568 -2.5002  0.1692
 3798SOL    HW217358   6.525   1.732   9.138  1.5886  1.5221  2.1860
 3799SOL     OW17359   8.165   6.867   1.056  0.2361  0.1115  0.7345
 3799SOL    HW117360   8.200   6.921   1.127  1.6743  0.7706 -0.4198
 3799SOL    HW217361   8.243   6.835   1.011 -0.6394  0.6079 -1.2084
 3800SOL     OW17362  12.210  11.109   1.720  0.0525  0.2198 -0.3762
 3800SOL    HW117363  12.268  11.166   1.771  1.3898  0.0432 -1.6255
 3800SOL    HW217364  12.185  11.040   1.781  1.0681  0.3730  0.2417
 3801SOL     OW17365   7.984   0.340   9.689  0.5685 -0.0146  0.0727
 3801SOL    HW117366   8.040   0.312   9.762 -0.3926 -2.3263  0.0126
 3801SOL    HW217367   8.000   0.275   9.621  0.8348  1.6441 -1.5353
 3802SOL     OW17368   0.102   5.381   1.979  0.3555 -0.2422 -0.1077
 3802SOL    HW117369   0.158   5.440   1.928 -0.2131 -1.0808 -1.7639
 3802SOL    HW217370   0.163   5.338   2.040  0.9544  1.2105  0.3634
 3803SOL     OW17371   8.831   9.940   3.247 -0.0190  0.3493 -0.0101
 3803SOL    HW117372   8.808   9.877   3.178 -0.4269  2.6753 -2.1277
 3803SOL    HW217373   8.925   9.929   3.258  0.0048 -0.2722 -0.7128
 3804SOL     OW17374   2.373  10.456   5.692  0.0135 -0.2344 -0.1906
 3804SOL    HW117375   2.457  10.467   5.735 -0.2436  0.0442  0.2481
 3804SOL    HW217376   2.385  10.495   5.605  0.4865 -0.6689 -0.3245
 3805SOL     OW17377  12.213   2.805   0.655 -0.7615 -0.2232  0.0203
 3805SOL    HW117378  12.225   2.758   0.737 -0.4262 -1.0477 -0.4824
 3805SOL    HW217379  12.218   2.737   0.588  0.6193  0.6478 -0.8047
 3806SOL     OW17380   4.597   2.850  11.517 -0.4711 -0.1457 -0.0382
 3806SOL    HW117381   4.684   2.890  11.528 -0.2872 -0.0898 -1.5434
 3806SOL    HW217382   4.539   2.904  11.571  0.1926  0.6692 -0.1137
 3807SOL     OW17383  11.235   6.471   6.186 -1.0640  0.2845 -0.1906
 3807SOL    HW117384  11.262   6.526   6.112 -0.5205  0.8485  0.4115
 3807SOL    HW217385  11.276   6.512   6.262  1.4648 -2.3127  0.0130
 3808SOL     OW17386   4.655   8.606   1.684 -0.2969  0.2886  0.0323
 3808SOL    HW117387   4.591   8.645   1.744  0.3725  0.5284  0.6025
 3808SOL    HW217388   4.635   8.513   1.685 -0.5877  0.3508  0.2661
 3809SOL     OW17389   3.785   0.875   9.277 -0.0569  0.6690 -0.4408
 3809SOL    HW117390   3.780   0.878   9.181  2.1875 -0.8799 -0.6823
 3809SOL    HW217391   3.802   0.783   9.297  0.7140  1.1628  1.3640
 3810SOL     OW17392   0.732  12.178   9.908 -0.0644 -0.2323 -0.0288
 3810SOL    HW117393   0.795  12.207   9.974 -3.1207  0.4209  2.9198
 3810SOL    HW217394   0.732  12.083   9.915 -0.2232 -0.1815  0.8562
 3811SOL     OW17395   6.664   6.451   9.199  0.5032  0.1242 -0.6933
 3811SOL    HW117396   6.668   6.532   9.249  1.3120 -1.4061  1.9593
 3811SOL    HW217397   6.571   6.439   9.179  0.1440  0.8311  0.4826
 3812SOL     OW17398   5.414   2.331   3.129  0.0952  0.1369  0.2719
 3812SOL    HW117399   5.494   2.346   3.179  0.3923  0.8951 -0.4233
 3812SOL    HW217400   5.390   2.417   3.094  1.0609 -0.6583 -2.6276
 3813SOL     OW17401   2.365  10.884  11.357  0.3273  0.9555  0.2975
 3813SOL    HW117402   2.329  10.796  11.348 -1.9173  1.6860  1.1627
 3813SOL    HW217403   2.459  10.873  11.345  0.1545 -1.5825  0.6092
 3814SOL     OW17404   8.551   2.616   0.033 -0.3661 -0.5129  0.2565
 3814SOL    HW117405   8.590   2.558  -0.033  1.7906  1.2988 -0.2037
 3814SOL    HW217406   8.505   2.682  -0.018  0.5224  0.3651  0.5534
 3815SOL     OW17407   5.715   8.715   9.994 -0.6310  0.2784  0.7873
 3815SOL    HW117408   5.727   8.634   9.943  3.0174  0.4512  1.1296
 3815SOL    HW217409   5.708   8.685  10.085  1.9399  0.2900  1.0519
 3816SOL     OW17410  11.437   6.305   3.627  0.1547  0.6376 -0.3022
 3816SOL    HW117411  11.430   6.262   3.542 -2.5230  1.3331 -0.5418
 3816SOL    HW217412  11.445   6.234   3.690 -0.7280 -0.0634 -0.9541
 3817SOL     OW17413   5.113   3.576   7.785 -0.4229 -0.0051  0.0710
 3817SOL    HW117414   5.104   3.483   7.805 -1.8511  0.2043  0.5470
 3817SOL    HW217415   5.023   3.605   7.765 -0.5165  1.8761  2.6735
 3818SOL     OW17416   0.738   4.252  10.107 -0.5119 -0.3839  0.8588
 3818SOL    HW117417   0.660   4.229  10.057 -0.8413  1.6468  0.3379
 3818SOL    HW217418   0.811   4.234  10.048 -0.8467  1.1293 -0.0793
 3819SOL     OW17419   9.925  11.767   1.430 -0.6742 -0.1215  0.0041
 3819SOL    HW117420   9.838  11.733   1.450 -1.3667  1.9173  0.7466
 3819SOL    HW217421   9.909  11.852   1.389  0.8564 -1.5885 -4.2262
 3820SOL     OW17422  10.344   6.554  10.099 -0.2397  0.4653  0.8498
 3820SOL    HW117423  10.430   6.590  10.078  0.1387  0.2607  2.0096
 3820SOL    HW217424  10.303   6.541  10.014  1.0549  0.1181  0.2557
 3821SOL     OW17425   4.186   8.870   4.659  0.2633  0.5785  0.0219
 3821SOL    HW117426   4.250   8.937   4.683 -1.6760  2.0026  1.6283
 3821SOL    HW217427   4.118   8.919   4.612 -0.1566 -0.6849 -0.7280
 3822SOL     OW17428   1.342   6.756  12.157  0.4576  0.0466  0.6831
 3822SOL    HW117429   1.437   6.763  12.165  0.2970  0.4750  2.8200
 3822SOL    HW217430   1.319   6.817  12.086  1.6230  1.4228  1.4365
 3823SOL     OW17431   7.902  11.968  11.206 -0.0308  0.2732 -0.0860
 3823SOL    HW117432   7.942  12.036  11.152 -0.3084 -0.8174 -1.7326
 3823SOL    HW217433   7.964  11.895  11.204 -1.1267 -0.6809 -0.9931
 3824SOL     OW17434  12.095   7.617   5.866  0.0265  0.5598  0.0966
 3824SOL    HW117435  12.029   7.558   5.830 -0.5108  0.3373  1.3920
 3824SOL    HW217436  12.157   7.631   5.794 -1.1787  0.4143 -0.9954
 3825SOL     OW17437   7.950   9.039   4.486 -0.5467 -0.5727 -0.0227
 3825SOL    HW117438   8.001   9.000   4.558  0.4403  0.2057 -0.2851
 3825SOL    HW217439   8.013   9.049   4.415 -0.9543  0.8414 -0.2030
 3826SOL     OW17440   1.146   7.600  11.063 -0.2131 -0.3751 -0.1488
 3826SOL    HW117441   1.162   7.668  10.998  0.0302 -0.5196 -0.2416
 3826SOL    HW217442   1.216   7.537  11.049  1.2728  0.7351  1.7969
 3827SOL     OW17443   4.604   3.491   1.432  0.6862  0.1918  0.1952
 3827SOL    HW117444   4.538   3.422   1.423  0.8719  0.2020 -1.7646
 3827SOL    HW217445   4.657   3.464   1.507 -0.7767 -0.4612  1.0296
 3828SOL     OW17446   4.936   4.360   0.974  0.0878 -0.2596  0.6559
 3828SOL    HW117447   4.944   4.455   0.983  0.2236 -0.2466  0.4069
 3828SOL    HW217448   4.843   4.342   0.985  0.0242 -0.0694  0.4342
 3829SOL     OW17449   5.433   6.388   1.107  0.3178 -0.0046  0.2383
 3829SOL    HW117450   5.384   6.382   1.025 -0.3236 -0.7842  0.6665
 3829SOL    HW217451   5.522   6.413   1.080 -0.0196  0.2517 -0.6437
 3830SOL     OW17452   0.505  10.307   2.137 -0.2726  0.0370  0.8674
 3830SOL    HW117453   0.482  10.319   2.045 -2.2488 -0.4972  1.2368
 3830SOL    HW217454   0.600  10.315   2.139 -0.1388 -0.3112 -1.2798
 3831SOL     OW17455  12.096   0.701   2.908  0.4975 -0.0247  0.0630
 3831SOL    HW117456  12.102   0.792   2.880  1.0508  0.2194  0.9263
 3831SOL    HW217457  12.008   0.693   2.944  0.9963  0.6534  1.5255
 3832SOL     OW17458   9.997   3.299  10.762  0.1555 -0.0019 -0.5192
 3832SOL    HW117459   9.943   3.376  10.779  0.7340  0.5284 -1.0438
 3832SOL    HW217460  10.087   3.333  10.757  0.5931 -0.9236  0.7268
 3833SOL     OW17461   2.533   7.597  12.127 -0.4126  0.0273 -0.4701
 3833SOL    HW117462   2.496   7.513  12.153 -1.8783  0.3634 -1.3935
 3833SOL    HW217463   2.568   7.582  12.039  1.0100 -0.0753  0.0804
 3834SOL     OW17464   6.305   8.445   5.434  0.4437  0.2314  0.1564
 3834SOL    HW117465   6.277   8.370   5.487  0.7676 -1.4714 -1.9547
 3834SOL    HW217466   6.388   8.472   5.473 -0.1991  0.2200  1.6034
 3835SOL     OW17467   7.844   6.060   9.241  0.6376 -0.7907 -0.2896
 3835SOL    HW117468   7.814   6.033   9.154  0.3002  0.7866 -0.6986
 3835SOL    HW217469   7.920   6.117   9.224 -0.5748  1.0988  0.2676
 3836SOL     OW17470   9.015  12.229   0.204 -0.7107 -0.0066 -0.4693
 3836SOL    HW117471   9.054  12.154   0.250  0.5308  0.9180  0.0245
 3836SOL    HW217472   8.920  12.214   0.210 -0.5498 -0.5031  1.4049
 3837SOL     OW17473   1.211   1.369   1.322  0.7498 -0.7034  0.4615
 3837SOL    HW117474   1.155   1.443   1.347 -1.1259 -1.5934 -0.8153
 3837SOL    HW217475   1.261   1.401   1.247  0.0388 -0.6644 -0.0077
 3838SOL     OW17476  10.579   7.725   1.605  0.2277 -0.3937 -0.2581
 3838SOL    HW117477  10.506   7.725   1.543  0.7281 -0.4854 -0.8686
 3838SOL    HW217478  10.552   7.664   1.674 -1.4267  1.6003  0.9794
 3839SOL     OW17479   3.267   3.297   6.352 -0.2239  0.0668  0.6920
 3839SOL    HW117480   3.359   3.281   6.374  0.1475  1.4393  0.2447
 3839SOL    HW217481   3.238   3.216   6.310  0.1194 -1.2110  2.7939
 3840SOL     OW17482   3.244   6.642   4.173 -0.5729  0.0887 -0.0760
 3840SOL    HW117483   3.254   6.678   4.261 -1.3300  0.8617 -0.2910
 3840SOL    HW217484   3.183   6.569   4.185  2.1862 -2.2745  0.6270
 3841SOL     OW17485   9.163   2.976   5.947 -0.3473 -0.0636  0.4851
 3841SOL    HW117486   9.168   2.912   5.876  2.1603 -0.7198  1.1416
 3841SOL    HW217487   9.255   2.997   5.967 -1.0363  2.4105  1.5104
 3842SOL     OW17488   7.900   6.397   8.198 -1.3532  0.0351 -0.4319
 3842SOL    HW117489   7.900   6.316   8.147 -1.0951  0.9827 -1.9995
 3842SOL    HW217490   7.895   6.467   8.132  1.6893  1.4317  0.6442
 3843SOL     OW17491  10.098  10.470   4.224  0.2801 -0.1947 -0.0468
 3843SOL    HW117492  10.187  10.458   4.255  2.2126  1.2254 -4.2692
 3843SOL    HW217493  10.095  10.561   4.195 -2.9846  0.1428  0.9789
 3844SOL     OW17494   6.307  10.231   2.786 -0.1611 -0.0267 -0.2099
 3844SOL    HW117495   6.294  10.326   2.775 -0.8922  0.2927  2.4985
 3844SOL    HW217496   6.280  10.193   2.703 -0.7314  2.0911 -1.0598
 3845SOL     OW17497   7.442  12.326  11.833 -0.1065 -0.2569  0.1996
 3845SOL    HW117498   7.490  12.291  11.757 -1.5720 -0.6532 -0.5736
 3845SOL    HW217499   7.408  12.249  11.877 -0.8324  0.0637  0.2023
 3846SOL     OW17500   1.867   0.169  12.464 -0.4733 -0.4026  0.0543
 3846SOL    HW117501   1.796   0.206  12.411 -0.2079 -1.4721 -1.1040
 3846SOL    HW217502   1.828   0.092  12.505 -0.3003 -0.3270  0.3635
 3847SOL     OW17503   8.564   0.008   0.052  0.6775  0.9620  0.1074
 3847SOL    HW117504   8.507   0.036  -0.019 -0.7230  0.7481  1.1157
 3847SOL    HW217505   8.647   0.054   0.035  0.6158  0.4202 -1.9829
 3848SOL     OW17506   2.165   6.815   1.559 -0.1679 -0.5890  0.2953
 3848SOL    HW117507   2.114   6.755   1.613  1.5193 -0.0403  2.6256
 3848SOL    HW217508   2.129   6.901   1.577 -0.7715 -0.5597 -0.9154
 3849SOL     OW17509   6.853   5.114  10.391  0.5471 -0.1251 -0.2723
 3849SOL    HW117510   6.947   5.112  10.410  0.7484  1.6327 -0.8890
 3849SOL    HW217511   6.829   5.206  10.402 -1.4498 -0.7750  1.3953
 3850SOL     OW17512   2.714   5.701  10.938  0.1599 -0.0573 -0.1964
 3850SOL    HW117513   2.757   5.778  10.901  1.0477 -0.4513 -0.0128
 3850SOL    HW217514   2.721   5.635  10.868  1.4107 -0.6528  0.4461
 3851SOL     OW17515  10.684   0.982   0.456 -0.4010  0.1259  0.1532
 3851SOL    HW117516  10.601   0.988   0.503  0.3115  0.0326  1.4875
 3851SOL    HW217517  10.750   1.003   0.522  0.6176  0.5843 -0.9750
 3852SOL     OW17518  10.863   2.789   4.929 -0.7294  0.1262  0.2362
 3852SOL    HW117519  10.861   2.703   4.971 -3.2131 -1.2047 -2.2356
 3852SOL    HW217520  10.774   2.824   4.942 -0.0945  1.8262  0.2350
 3853SOL     OW17521   9.685  11.825   3.659  0.1722  0.4866  1.0984
 3853SOL    HW117522   9.729  11.910   3.663  0.9876  0.1682 -0.2759
 3853SOL    HW217523   9.633  11.821   3.739  0.5885  2.0157  1.4846
 3854SOL     OW17524   5.486   5.475   7.510  0.4564  0.3755  1.0240
 3854SOL    HW117525   5.435   5.394   7.503 -0.0822  0.7678  0.2320
 3854SOL    HW217526   5.430   5.542   7.471  2.0229  0.6149 -1.0201
 3855SOL     OW17527   1.141   7.390   9.994  0.2034 -0.0704 -0.8079
 3855SOL    HW117528   1.055   7.428   9.977 -0.8312 -1.4330  0.9129
 3855SOL    HW217529   1.188   7.457  10.043 -0.8389 -0.1847  0.4154
 3856SOL     OW17530  12.028   8.368   0.175 -0.3957  0.0271 -0.0832
 3856SOL    HW117531  12.102   8.312   0.195 -1.2670 -0.8764  0.7580
 3856SOL    HW217532  12.012   8.416   0.257 -0.6806  0.2785 -0.2845
 3857SOL     OW17533   5.193   8.036   2.631  0.2290  0.2588 -0.7503
 3857SOL    HW117534   5.279   7.997   2.619  0.2781 -0.1622  0.7393
 3857SOL    HW217535   5.161   8.052   2.542  0.3254 -2.9308 -1.4861
 3858SOL     OW17536   9.526  10.917  10.043 -0.0696  0.4420 -0.0427
 3858SOL    HW117537   9.502  10.966   9.964 -0.3115 -1.2475 -1.0809
 3858SOL    HW217538   9.548  10.829  10.010 -1.4967 -0.7194  1.9016
 3859SOL     OW17539   1.329   1.158   3.878 -0.4213 -0.1293 -0.6994
 3859SOL    HW117540   1.424   1.156   3.894 -0.4663  0.2790 -0.3835
 3859SOL    HW217541   1.304   1.065   3.875 -0.2000 -0.2388  0.3469
 3860SOL     OW17542   2.096  10.241   8.296 -0.3203 -0.0495 -0.4610
 3860SOL    HW117543   2.050  10.168   8.255  0.5686  0.9725 -3.5689
 3860SOL    HW217544   2.027  10.305   8.315 -0.9030 -1.0399  0.8497
 3861SOL     OW17545   7.834   4.256   0.509  0.5107 -0.2532  0.2450
 3861SOL    HW117546   7.850   4.267   0.415  0.4254  0.2273  0.2844
 3861SOL    HW217547   7.770   4.184   0.514 -0.2209  0.3551 -0.1230
 3862SOL     OW17548   6.429  11.748   2.091  0.1430 -0.1997  0.0100
 3862SOL    HW117549   6.413  11.747   2.186  0.0784  0.0648  0.0033
 3862SOL    HW217550   6.343  11.730   2.052 -0.0110  0.5322 -0.0118
 3863SOL     OW17551   0.814  11.699   2.861  0.5594  0.1663  0.5557
 3863SOL    HW117552   0.901  11.664   2.883  0.7241  1.0804  1.4019
 3863SOL    HW217553   0.822  11.727   2.770  0.3743 -2.0942 -0.2319
 3864SOL     OW17554   5.140   7.015   8.480 -0.0089  0.1023  0.5154
 3864SOL    HW117555   5.054   7.054   8.471  0.4858  1.1250  0.0119
 3864SOL    HW217556   5.167   7.034   8.569 -0.5577 -0.8005  0.8918
 3865SOL     OW17557   3.980   8.106   6.282 -0.4320  0.3458 -0.2062
 3865SOL    HW117558   3.963   8.021   6.240  0.5153 -0.8101  1.6283
 3865SOL    HW217559   3.986   8.086   6.375  2.3984  1.9890  0.0755
 3866SOL     OW17560   2.961   5.318  11.058  0.1766  0.0857 -0.0472
 3866SOL    HW117561   2.994   5.380  10.994  0.7432 -0.3628 -0.1944
 3866SOL    HW217562   2.988   5.232  11.025  2.1547 -0.0531  1.7347
 3867SOL     OW17563   4.161   9.350   1.781  0.2460 -0.0722  0.2621
 3867SOL    HW117564   4.218   9.392   1.717  1.5453 -1.8752  0.1658
 3867SOL    HW217565   4.103   9.420   1.811 -1.4947  0.5698 -3.9516
 3868SOL     OW17566   9.018   8.026   0.470 -0.3635 -0.1375 -0.9814
 3868SOL    HW117567   8.923   8.028   0.479 -0.6814 -3.9749 -1.8171
 3868SOL    HW217568   9.032   8.025   0.375  0.5640  0.5101 -0.8644
 3869SOL     OW17569   8.696   6.628   9.938 -0.2506 -0.2855 -0.1835
 3869SOL    HW117570   8.770   6.635   9.998 -0.1557 -0.4247 -0.2833
 3869SOL    HW217571   8.720   6.557   9.879 -0.9082 -1.0277  0.4155
 3870SOL     OW17572   9.258   0.830   4.383  0.4106  0.4363  0.2870
 3870SOL    HW117573   9.302   0.820   4.299 -1.3798 -0.0342 -0.6458
 3870SOL    HW217574   9.236   0.924   4.388  0.9063  0.5475  0.4556
 3871SOL     OW17575   3.028   1.275   5.127  0.3221 -0.1411 -0.2068
 3871SOL    HW117576   2.962   1.341   5.150 -0.5873 -0.6557 -1.2623
 3871SOL    HW217577   3.022   1.267   5.032  1.6063 -0.5333 -0.2663
 3872SOL     OW17578  12.304   9.855   3.277  0.3647 -0.3517  0.1177
 3872SOL    HW117579  12.329   9.762   3.280  0.9569 -0.1847  0.5388
 3872SOL    HW217580  12.357   9.896   3.345  1.5903  0.6449 -1.3610
 3873SOL     OW17581   5.813  12.091   2.667  0.1664 -0.2736  0.1991
 3873SOL    HW117582   5.883  12.059   2.610 -0.0883  1.3971 -1.1527
 3873SOL    HW217583   5.774  12.163   2.618 -0.9551  0.3777  1.9557
 3874SOL     OW17584   6.747   2.409  12.233 -0.0873 -0.4286 -0.1303
 3874SOL    HW117585   6.812   2.393  12.164 -1.3614  0.4101 -1.5733
 3874SOL    HW217586   6.795   2.461  12.298  0.7517  0.0607 -1.0974
 3875SOL     OW17587  12.005   8.855  12.012 -0.3709  0.0550  0.5033
 3875SOL    HW117588  11.995   8.949  12.026  2.0684  0.5670 -0.6564
 3875SOL    HW217589  12.092   8.835  12.046 -1.0967 -1.9522  1.3296
 3876SOL     OW17590   4.539   6.073   0.550  0.0856 -0.7988 -0.7317
 3876SOL    HW117591   4.465   6.020   0.518 -0.8236 -0.3156  0.4761
 3876SOL    HW217592   4.615   6.039   0.503 -1.0134 -0.7683 -2.6281
 3877SOL     OW17593   7.775   9.043   1.143  0.1567 -0.2191 -0.0845
 3877SOL    HW117594   7.682   9.062   1.127  0.3920  0.3142 -0.8854
 3877SOL    HW217595   7.786   9.055   1.237 -0.2746  1.1957 -0.1804
 3878SOL     OW17596   0.649   7.469   0.218 -0.4938  0.3711 -0.4057
 3878SOL    HW117597   0.662   7.389   0.168  1.3049 -0.0073  0.5669
 3878SOL    HW217598   0.609   7.531   0.156  3.2859  0.5615 -2.9582
 3879SOL     OW17599   1.134   5.057  10.052 -0.2758  0.2126  0.2770
 3879SOL    HW117600   1.098   5.144  10.066 -1.0483 -0.2799  1.4470
 3879SOL    HW217601   1.176   5.062   9.966 -0.8824  1.5415  0.0402
 3880SOL     OW17602   8.810   1.656   0.914  0.4972 -0.2056  0.5928
 3880SOL    HW117603   8.888   1.703   0.885  0.2346  0.2445  0.6111
 3880SOL    HW217604   8.782   1.703   0.992  0.4981 -0.6740  0.8752
 3881SOL     OW17605   2.463   0.125   3.392 -0.5623 -0.0361  0.1646
 3881SOL    HW117606   2.500   0.052   3.344 -1.9731 -0.6425 -0.0498
 3881SOL    HW217607   2.538   0.165   3.437  0.2711 -1.4293  0.0696
 3882SOL     OW17608   1.168  12.367   5.482 -0.4417 -0.3841 -0.1124
 3882SOL    HW117609   1.170  12.291   5.539 -1.5592 -0.2374  0.1282
 3882SOL    HW217610   1.216  12.435   5.531  1.1998 -1.1099 -0.6372
 3883SOL     OW17611   5.465   5.272   7.925  0.4440 -0.6640  0.3311
 3883SOL    HW117612   5.535   5.271   7.859  0.0944 -0.9416 -0.0431
 3883SOL    HW217613   5.387   5.296   7.876  0.4732  0.7639  0.9613
 3884SOL     OW17614   9.151   8.684   7.400  0.8015 -0.1876 -0.6498
 3884SOL    HW117615   9.060   8.655   7.391  0.6639 -0.1040  0.3374
 3884SOL    HW217616   9.147   8.779   7.401  0.9961 -0.1609 -1.3891
 3885SOL     OW17617   1.105   2.183   1.195 -0.4983 -0.6037 -0.0401
 3885SOL    HW117618   1.135   2.094   1.178 -1.8574 -1.4167  1.5467
 3885SOL    HW217619   1.182   2.238   1.178  1.2140 -2.3553  1.5729
 3886SOL     OW17620   7.829   7.740   0.905 -0.4928 -0.1579 -0.3689
 3886SOL    HW117621   7.903   7.800   0.897 -0.4952  0.0429  0.9537
 3886SOL    HW217622   7.839   7.679   0.831  0.0677  0.8454 -1.1356
 3887SOL     OW17623   7.849  10.004   7.321  0.1040 -0.2647  0.2543
 3887SOL    HW117624   7.886  10.057   7.392 -1.0250  1.3390 -0.3036
 3887SOL    HW217625   7.762  10.040   7.307  0.0777 -0.9492 -1.5526
 3888SOL     OW17626   4.159   0.927  10.240  0.0007  0.5990 -0.7552
 3888SOL    HW117627   4.117   0.965  10.317  0.1783 -0.4417 -0.1240
 3888SOL    HW217628   4.155   0.996  10.174 -0.6307  1.3228  0.0162
 3889SOL     OW17629   0.788   0.003   7.881  0.5780  0.3457 -0.3107
 3889SOL    HW117630   0.842   0.052   7.944 -0.1225  1.5719 -0.6324
 3889SOL    HW217631   0.738  -0.059   7.935  0.5342  0.8739  0.2595
 3890SOL     OW17632   0.440  12.298   5.284 -0.5318 -0.3613  0.1175
 3890SOL    HW117633   0.384  12.362   5.240  0.4563 -0.3735 -1.2072
 3890SOL    HW217634   0.527  12.337   5.281 -0.2314 -0.9502  0.9467
 3891SOL     OW17635  10.414   8.395   4.754  0.3490  0.3222  0.2739
 3891SOL    HW117636  10.329   8.438   4.741  0.6678  0.5425 -1.2633
 3891SOL    HW217637  10.403   8.308   4.717  0.8672  0.4392 -0.1679
 3892SOL     OW17638  11.332   9.599   4.776 -0.1113 -0.1850  0.2759
 3892SOL    HW117639  11.425   9.616   4.790  0.0780 -1.1467  0.2477
 3892SOL    HW217640  11.290   9.685   4.784  0.6298  0.0872  1.4997
 3893SOL     OW17641   3.822   4.396   0.047  0.0984  0.1278 -0.2841
 3893SOL    HW117642   3.757   4.326   0.047  0.5017 -0.2439 -0.3251
 3893SOL    HW217643   3.887   4.369  -0.017  0.2336  0.5611 -0.3345
 3894SOL     OW17644   2.849   6.788   9.450  0.6260  0.0602  0.4612
 3894SOL    HW117645   2.774   6.821   9.400 -0.0678  1.1723  2.1573
 3894SOL    HW217646   2.853   6.695   9.427 -0.4353  0.2676 -0.6900
 3895SOL     OW17647   2.112  10.597  11.175  1.1283 -0.3144 -0.4833
 3895SOL    HW117648   2.093  10.657  11.247  0.8376  0.8945 -1.5387
 3895SOL    HW217649   2.189  10.549  11.204  0.8286 -0.0754  0.7648
 3896SOL     OW17650   2.070   0.773   3.439 -0.5601 -0.0956  0.5662
 3896SOL    HW117651   1.984   0.787   3.399 -0.3033 -0.4153 -0.1059
 3896SOL    HW217652   2.051   0.740   3.527 -1.1234  0.1457  0.5369
 3897SOL     OW17653   3.736   8.819   7.112 -0.0531 -0.1961 -0.1905
 3897SOL    HW117654   3.698   8.875   7.045  0.7965 -0.5577 -0.9957
 3897SOL    HW217655   3.745   8.733   7.070 -1.8672 -1.1358  1.1962
 3898SOL     OW17656   9.786  11.579   0.624  0.2019 -0.4295 -0.1671
 3898SOL    HW117657   9.702  11.621   0.643  1.1345  0.6717  1.8549
 3898SOL    HW217658   9.816  11.622   0.544 -0.7844 -0.2585 -0.4630
 3899SOL     OW17659   0.265   5.734  10.608  0.0294  0.4547 -0.0766
 3899SOL    HW117660   0.172   5.729  10.627  0.3067 -1.5163  1.0699
 3899SOL    HW217661   0.280   5.824  10.581 -2.1047  0.9370  0.2216
 3900SOL     OW17662   9.861   8.676   3.871 -0.8106  0.0782 -0.3856
 3900SOL    HW117663   9.922   8.748   3.886  0.3462 -1.0503  0.6311
 3900SOL    HW217664   9.910   8.614   3.816 -1.0019 -0.8545  0.4619
 3901SOL     OW17665   4.284   5.840   2.016 -0.4988  0.4520 -0.3435
 3901SOL    HW117666   4.283   5.924   1.970  1.8153  0.2941 -0.8389
 3901SOL    HW217667   4.353   5.790   1.972 -0.5767 -1.0185  1.1161
 3902SOL     OW17668  12.172   7.196   0.594 -0.4640  0.0926 -0.6336
 3902SOL    HW117669  12.133   7.205   0.507 -0.0493  2.4680 -0.6409
 3902SOL    HW217670  12.199   7.285   0.618 -0.6564 -0.4633  1.9818
 3903SOL     OW17671   4.773   0.194  12.407 -0.5245 -0.0705 -0.0003
 3903SOL    HW117672   4.782   0.289  12.422  0.9376 -0.2413  0.3390
 3903SOL    HW217673   4.681   0.182  12.386 -1.3132  1.1145  2.3706
 3904SOL     OW17674   1.741   7.259   5.115 -0.4075 -0.5686  0.4590
 3904SOL    HW117675   1.831   7.280   5.087 -1.2897  0.5792 -1.7839
 3904SOL    HW217676   1.750   7.179   5.166  1.8843 -0.5551  0.1841
 3905SOL     OW17677  11.671   1.119   8.513 -0.2919  0.1027 -0.3427
 3905SOL    HW117678  11.628   1.081   8.436  1.9100 -3.5760  0.0230
 3905SOL    HW217679  11.747   1.166   8.477 -0.8385  0.8396 -0.5542
 3906SOL     OW17680   9.785   5.900   7.885  0.1973  0.2548 -0.4126
 3906SOL    HW117681   9.816   5.989   7.870  0.0371  0.3753 -0.0456
 3906SOL    HW217682   9.690   5.909   7.892 -0.0703 -0.2519 -2.5806
 3907SOL     OW17683   9.532   8.101   3.850 -0.2141 -0.0263  0.2489
 3907SOL    HW117684   9.470   8.098   3.777 -0.3050  1.7753  0.1921
 3907SOL    HW217685   9.609   8.143   3.814  0.7506 -1.4902  0.5415
 3908SOL     OW17686   1.108  10.427   2.539  0.6526  0.2988  0.2553
 3908SOL    HW117687   1.056  10.442   2.460  0.7038 -0.8863 -0.0222
 3908SOL    HW217688   1.045  10.433   2.611  0.4157  0.3360  0.0436
 3909SOL     OW17689  10.447   3.683   9.166 -0.3276  0.0079 -0.1647
 3909SOL    HW117690  10.411   3.771   9.154  0.8337  0.7979  1.6246
 3909SOL    HW217691  10.377   3.634   9.209 -0.6603  0.3314 -0.3370
 3910SOL     OW17692   0.543   8.423   0.332  0.5906  0.0278 -0.0718
 3910SOL    HW117693   0.462   8.473   0.324  1.1070  1.1750  1.3987
 3910SOL    HW217694   0.562   8.423   0.426  1.7767 -1.0874 -0.2789
 3911SOL     OW17695   9.395   4.720   3.654 -0.1164 -0.0448 -0.2137
 3911SOL    HW117696   9.489   4.724   3.635  0.4658 -0.8378  2.1637
 3911SOL    HW217697   9.364   4.645   3.603  0.3997  0.4904 -1.3749
 3912SOL     OW17698  11.337  10.972   6.718 -0.2558 -0.3307 -0.3537
 3912SOL    HW117699  11.339  10.948   6.625 -0.0279 -0.7013 -0.2544
 3912SOL    HW217700  11.398  10.911   6.760  0.7374  0.7482 -0.1824
 3913SOL     OW17701   4.924  11.226   1.372  0.2051 -0.0287  0.0873
 3913SOL    HW117702   4.990  11.162   1.347  0.9863  0.5685  0.5962
 3913SOL    HW217703   4.863  11.177   1.427  1.7576  0.0400  1.9457
 3914SOL     OW17704   3.504   8.239  11.698  0.0112 -0.5149 -0.2028
 3914SOL    HW117705   3.418   8.279  11.696 -0.0662 -0.6957 -0.5157
 3914SOL    HW217706   3.497   8.170  11.764 -0.0224 -0.3958 -0.0818
 3915SOL     OW17707   6.853  12.401   8.150  0.0364  0.2363 -0.8746
 3915SOL    HW117708   6.905  12.472   8.112  0.2215  1.6957  1.8528
 3915SOL    HW217709   6.874  12.403   8.243 -2.2601 -1.4526 -0.2252
 3916SOL     OW17710   9.698   1.039   0.367 -0.5578 -0.3137  0.0674
 3916SOL    HW117711   9.704   1.041   0.272 -1.5361  0.9542  0.0080
 3916SOL    HW217712   9.609   1.067   0.387 -0.4814 -0.8932  1.3456
 3917SOL     OW17713  12.464  11.322   4.108  0.4582 -0.1231 -0.1603
 3917SOL    HW117714  12.555  11.335   4.083  0.4594 -2.0704 -1.3391
 3917SOL    HW217715  12.449  11.228   4.097 -2.0452  0.3343 -1.2160
 3918SOL     OW17716  11.268  11.116   2.762 -0.7999 -0.2511 -0.1905
 3918SOL    HW117717  11.342  11.080   2.811  0.0933 -1.5987 -2.4010
 3918SOL    HW217718  11.298  11.203   2.734 -0.5509 -0.2816 -0.0203
 3919SOL     OW17719   1.942   3.610  11.074  0.3862  0.2948 -0.0252
 3919SOL    HW117720   1.855   3.570  11.077  0.6905 -0.4237 -0.5418
 3919SOL    HW217721   1.955   3.645  11.163 -0.4325  0.4362  0.0492
 3920SOL     OW17722   7.529   2.356   3.577 -0.4939 -0.1306 -0.1366
 3920SOL    HW117723   7.602   2.334   3.518  0.9997  2.8463  0.4316
 3920SOL    HW217724   7.462   2.392   3.520  0.5081  1.7049 -0.2306
 3921SOL     OW17725   4.393   6.161  10.509 -0.3168  0.2664  0.0985
 3921SOL    HW117726   4.316   6.177  10.564 -0.1091 -1.3333  0.9278
 3921SOL    HW217727   4.466   6.154  10.571  0.5566  1.8604 -0.6820
 3922SOL     OW17728   4.160   5.845   0.146 -0.3329  0.4213  0.3877
 3922SOL    HW117729   4.110   5.919   0.180 -1.6126 -0.3192  0.1743
 3922SOL    HW217730   4.252   5.871   0.155 -0.7180  3.1405 -2.0623
 3923SOL     OW17731   8.407   3.444   7.909 -0.3975 -0.3006  0.1478
 3923SOL    HW117732   8.362   3.441   7.825  0.0170  1.8448 -0.1999
 3923SOL    HW217733   8.339   3.471   7.971  0.0107  1.4438 -0.1183
 3924SOL     OW17734   5.684  10.969   7.595 -0.2695  0.3591 -0.9333
 3924SOL    HW117735   5.611  10.960   7.656 -0.7194 -0.9120 -1.6268
 3924SOL    HW217736   5.748  11.023   7.642  0.2269 -2.0990  1.4991
 3925SOL     OW17737   8.830   2.026   9.044 -0.8185  0.4122  0.1528
 3925SOL    HW117738   8.770   2.021   9.118  0.1031 -0.1329  0.8806
 3925SOL    HW217739   8.774   2.012   8.967 -1.4538 -1.3142  0.8806
 3926SOL     OW17740   7.096   3.957  10.241  0.4710 -0.3434  0.3376
 3926SOL    HW117741   7.045   3.963  10.160 -0.3006 -0.3749  0.8068
 3926SOL    HW217742   7.042   4.002  10.307  1.0356 -0.4045  0.8537
 3927SOL     OW17743   7.845  11.796  11.795  0.4074 -0.0981  0.7341
 3927SOL    HW117744   7.921  11.765  11.747  0.0554 -0.7731  0.6091
 3927SOL    HW217745   7.831  11.885  11.763 -0.3182 -0.8076 -1.0387
 3928SOL     OW17746   3.667   3.555   3.062 -0.9992 -0.4951  0.0958
 3928SOL    HW117747   3.629   3.505   2.990 -0.0845 -0.1065 -0.6752
 3928SOL    HW217748   3.761   3.549   3.049 -0.8238 -0.1669  1.0931
 3929SOL     OW17749   2.279   9.585   6.045 -0.2668 -0.2071 -0.0312
 3929SOL    HW117750   2.293   9.676   6.017  0.0067 -0.5289 -0.9784
 3929SOL    HW217751   2.192   9.586   6.086 -0.3650  0.4375 -0.2442
 3930SOL     OW17752   8.362  11.285   2.553 -0.1800 -0.1130  0.5489
 3930SOL    HW117753   8.388  11.378   2.554  0.7426 -0.3605  0.6297
 3930SOL    HW217754   8.358  11.260   2.645  1.7775 -0.7191  0.5188
 3931SOL     OW17755   7.520   6.269   7.794  0.1132 -0.6326 -0.1425
 3931SOL    HW117756   7.570   6.224   7.862  0.2737  0.7146  0.6761
 3931SOL    HW217757   7.550   6.230   7.712  0.0655 -2.1508  0.5412
 3932SOL     OW17758   2.627   3.104  11.936 -0.6311  0.2801 -0.3118
 3932SOL    HW117759   2.684   3.063  11.871 -0.5622  2.9660 -2.1164
 3932SOL    HW217760   2.553   3.138  11.886 -2.1197 -0.1145  1.4923
 3933SOL     OW17761  12.333   0.453   6.373  0.3035 -0.1430  0.3525
 3933SOL    HW117762  12.349   0.368   6.412  0.1270 -0.0248  0.6860
 3933SOL    HW217763  12.419   0.483   6.343  0.2165 -0.8986 -0.7289
 3934SOL     OW17764   4.076   9.184   6.403 -0.1433  0.2235  0.1905
 3934SOL    HW117765   4.139   9.125   6.445  0.4349  0.5731 -0.1831
 3934SOL    HW217766   4.013   9.205   6.472  1.8367  2.3301  1.4952
 3935SOL     OW17767   2.331   4.131   9.174 -0.0534 -0.2393 -0.4047
 3935SOL    HW117768   2.427   4.136   9.170 -0.0445  0.3427  0.3662
 3935SOL    HW217769   2.314   4.053   9.227  0.0783  1.3190  2.1302
 3936SOL     OW17770   2.255   8.334   8.117 -0.8757  0.2917  0.1780
 3936SOL    HW117771   2.295   8.247   8.116 -2.1571 -0.3235 -1.2693
 3936SOL    HW217772   2.189   8.330   8.186 -1.3157 -0.0816 -0.2587
 3937SOL     OW17773   1.866   5.338  12.058 -0.0340  0.2757  0.6015
 3937SOL    HW117774   1.803   5.299  11.998 -1.1010 -0.2192  1.9754
 3937SOL    HW217775   1.883   5.270  12.122  1.5847  0.5615  0.5025
 3938SOL     OW17776   8.636   3.603   1.409  0.5447  0.0551  0.1969
 3938SOL    HW117777   8.611   3.512   1.394  1.7481 -0.3737  0.6634
 3938SOL    HW217778   8.554   3.650   1.412 -0.3229 -1.4025  2.4583
 3939SOL     OW17779   4.348   4.177  12.077  0.1953 -0.3775  0.9590
 3939SOL    HW117780   4.428   4.221  12.107 -0.3178  1.0324  0.3345
 3939SOL    HW217781   4.293   4.247  12.043 -0.4776 -1.5715 -0.5192
 3940SOL     OW17782   0.378   8.641   1.250 -0.7126  0.1438  0.3304
 3940SOL    HW117783   0.330   8.723   1.240  1.2192  1.3320  0.3183
 3940SOL    HW217784   0.314   8.573   1.228 -2.8135  1.5172  1.8376
 3941SOL     OW17785  12.390   8.497  11.162 -0.1486 -0.0943 -0.1307
 3941SOL    HW117786  12.346   8.412  11.165 -2.0653  0.8639  0.4502
 3941SOL    HW217787  12.479   8.477  11.132 -0.6161 -2.2596 -0.2278
 3942SOL     OW17788   0.911   1.297   5.038  0.1290  0.3112  0.7306
 3942SOL    HW117789   0.825   1.289   4.996  1.5671  0.9257 -2.6833
 3942SOL    HW217790   0.935   1.389   5.025  1.2267  0.2014  1.8400
 3943SOL     OW17791   8.523   1.352   5.626 -0.7359 -0.0025 -0.3139
 3943SOL    HW117792   8.518   1.259   5.606 -1.3662  0.1493 -0.9342
 3943SOL    HW217793   8.569   1.390   5.551  0.3152  0.0711  0.3582
 3944SOL     OW17794   5.677   1.320   7.041  0.1889  0.3096 -0.2833
 3944SOL    HW117795   5.707   1.395   6.988  0.3723 -0.0372 -0.6745
 3944SOL    HW217796   5.611   1.278   6.986  0.3617 -0.0364 -0.2230
 3945SOL     OW17797   7.946   6.595   3.744 -0.4233  0.2367 -0.4526
 3945SOL    HW117798   7.919   6.660   3.808 -1.4064 -0.8284  0.2537
 3945SOL    HW217799   7.865   6.571   3.698 -0.0602 -0.3964 -0.7865
 3946SOL     OW17800  10.223  11.655   1.664  0.0878 -0.0788  0.5325
 3946SOL    HW117801  10.293  11.655   1.729  0.4427  2.0160  0.2273
 3946SOL    HW217802  10.263  11.618   1.585  0.5014  0.0362  0.6868
 3947SOL     OW17803   2.268   4.590   8.892 -0.1676 -0.3740 -0.6791
 3947SOL    HW117804   2.239   4.500   8.877 -0.5924 -0.1369 -1.3443
 3947SOL    HW217805   2.264   4.631   8.806 -0.4088  0.4024 -0.3123
 3948SOL     OW17806  11.387   7.264   0.774  0.4366  0.2276 -0.0426
 3948SOL    HW117807  11.331   7.301   0.843  1.5676 -0.8107  1.4922
 3948SOL    HW217808  11.405   7.338   0.715 -1.9820  0.7398 -0.2385
 3949SOL     OW17809   0.355   3.136  11.452  0.0310 -0.0896  0.1711
 3949SOL    HW117810   0.324   3.155  11.541 -2.4256  0.3122 -0.6870
 3949SOL    HW217811   0.349   3.220  11.406 -1.1330 -0.7906 -1.0131
 3950SOL     OW17812   2.957   1.554  12.307  0.3985  0.2302  0.4779
 3950SOL    HW117813   2.933   1.567  12.399  0.7937 -0.2502  0.6560
 3950SOL    HW217814   3.007   1.472  12.307 -1.2141 -0.8195 -0.4450
 3951SOL     OW17815   6.675   3.093   3.589  0.0497 -0.0053 -0.0669
 3951SOL    HW117816   6.720   3.176   3.604  0.2258  0.2512 -1.8436
 3951SOL    HW217817   6.649   3.063   3.677  1.9615  0.7949  0.8109
 3952SOL     OW17818   0.030   1.421  10.313 -0.3337  0.2141 -0.4540
 3952SOL    HW117819   0.104   1.424  10.374  0.7790  1.1740 -1.7731
 3952SOL    HW217820  -0.030   1.357  10.351  0.7343  0.0990  1.1498
 3953SOL     OW17821   0.385   8.957   4.857 -0.4924 -0.1412 -0.2247
 3953SOL    HW117822   0.342   9.041   4.868 -1.6728 -0.7677  0.1019
 3953SOL    HW217823   0.425   8.939   4.942 -2.7927 -1.2599  0.7048
 3954SOL     OW17824  10.119   5.955   6.012  0.2196  0.4676  0.5292
 3954SOL    HW117825  10.154   6.017   6.076 -0.4457 -0.0004  1.3734
 3954SOL    HW217826  10.028   5.980   6.002  0.5240  1.0942 -0.9477
 3955SOL     OW17827   9.621   6.104  10.265 -0.3782 -0.3990  0.1919
 3955SOL    HW117828   9.546   6.067  10.311  0.0936  1.2144  2.3916
 3955SOL    HW217829   9.697   6.080  10.318  0.6253 -1.2379 -1.5160
 3956SOL     OW17830   3.638  12.290  10.619 -0.0140 -0.4664  0.2111
 3956SOL    HW117831   3.643  12.258  10.709 -0.6360 -1.2749 -0.0293
 3956SOL    HW217832   3.569  12.357  10.622 -0.3333 -0.7963  0.2509
 3957SOL     OW17833   2.689  11.142   6.079 -0.0475  0.1794  0.0725
 3957SOL    HW117834   2.622  11.211   6.086 -0.6021 -0.2556 -0.7459
 3957SOL    HW217835   2.647  11.064   6.116  0.4608  0.1960  0.6925
 3958SOL     OW17836   0.730   2.923   3.318 -0.9563  0.4021 -0.0089
 3958SOL    HW117837   0.808   2.873   3.345 -0.7932  0.0940 -1.0064
 3958SOL    HW217838   0.656   2.868   3.345 -0.8429  0.7211  0.9938
 3959SOL     OW17839   6.621   6.194   0.585  0.1744  0.1799 -0.3035
 3959SOL    HW117840   6.607   6.246   0.665 -0.7648  1.7351 -1.4207
 3959SOL    HW217841   6.648   6.258   0.519 -1.1587 -0.6979 -1.7797
 3960SOL     OW17842   1.235  12.452   0.499 -0.2337 -0.3231  0.2849
 3960SOL    HW117843   1.194  12.392   0.562 -1.3960 -0.0247 -0.1668
 3960SOL    HW217844   1.166  12.470   0.435  0.9433 -0.6679 -1.1175
 3961SOL     OW17845   1.315   6.651   5.004  0.1102  0.8742 -0.6854
 3961SOL    HW117846   1.236   6.697   5.034  1.1025  0.8804  2.2904
 3961SOL    HW217847   1.377   6.720   4.983  0.5485  0.9379  0.7162
 3962SOL     OW17848   0.131   2.634   0.990  0.1973 -0.0197  0.5747
 3962SOL    HW117849   0.086   2.682   1.060  1.5786 -0.7727  2.0198
 3962SOL    HW217850   0.203   2.692   0.964  0.5428 -0.3528  0.7844
 3963SOL     OW17851   8.273   0.683   3.769  0.3145 -0.2846  0.4760
 3963SOL    HW117852   8.276   0.763   3.822  1.5743 -0.0888  0.1413
 3963SOL    HW217853   8.234   0.617   3.827  1.5641 -0.0541  1.6390
 3964SOL     OW17854  12.229  12.110   1.843  0.0321 -0.1621 -0.2395
 3964SOL    HW117855  12.249  12.078   1.755  2.0942 -1.0818  0.4910
 3964SOL    HW217856  12.250  12.037   1.901  1.2465  1.2597  1.2163
 3965SOL     OW17857   8.196   1.577  10.804  0.0487 -0.3008 -0.4234
 3965SOL    HW117858   8.250   1.498  10.796  0.4245  0.0403 -1.3015
 3965SOL    HW217859   8.115   1.555  10.759 -0.8540 -1.0465  1.4477
 3966SOL     OW17860   8.495   5.781  12.287  0.4246 -0.1234 -0.1064
 3966SOL    HW117861   8.521   5.690  12.300 -0.1162 -0.2714 -0.0195
 3966SOL    HW217862   8.577   5.830  12.292  1.1082 -0.8235 -2.5981
 3967SOL     OW17863   4.905  12.118   4.136 -0.1267 -0.0319  0.4996
 3967SOL    HW117864   4.986  12.105   4.087 -0.8324 -2.8205 -0.1013
 3967SOL    HW217865   4.897  12.040   4.191 -1.8559  0.7169  1.4059
 3968SOL     OW17866  10.947  12.402   9.619  0.2805 -0.0324  0.2924
 3968SOL    HW117867  10.948  12.422   9.526  0.3454 -0.1047  0.2784
 3968SOL    HW217868  10.948  12.307   9.624 -0.7316 -0.0576  0.3439
 3969SOL     OW17869   6.466   8.471   8.092 -0.5332  0.0050  0.3159
 3969SOL    HW117870   6.523   8.447   8.019  0.9480 -0.0741  1.4488
 3969SOL    HW217871   6.406   8.398   8.101 -2.4602  1.0796 -2.3845
 3970SOL     OW17872   6.181   5.174   4.259 -0.0307 -0.8875  0.2451
 3970SOL    HW117873   6.216   5.124   4.333  0.6520 -3.4955 -1.6893
 3970SOL    HW217874   6.195   5.117   4.183 -0.7926  1.5986 -1.9048
 3971SOL     OW17875   3.313   3.598   3.273  0.2930 -0.2132  0.1786
 3971SOL    HW117876   3.342   3.626   3.360 -0.8675  1.1489  0.1688
 3971SOL    HW217877   3.319   3.503   3.275  1.5185 -0.1428  1.2937
 3972SOL     OW17878   1.302  11.054   6.821 -0.2941  0.2590  0.5607
 3972SOL    HW117879   1.388  11.090   6.842  0.3606 -0.4910 -0.7456
 3972SOL    HW217880   1.245  11.131   6.815  0.7341  0.9677 -0.5940
 3973SOL     OW17881   4.331   4.439  10.017  0.7067  0.2116  0.2889
 3973SOL    HW117882   4.257   4.474   9.967  0.4097 -1.1616 -0.2696
 3973SOL    HW217883   4.311   4.461  10.108 -0.8259 -0.8312  0.2383
 3974SOL     OW17884   6.063   8.088   7.503 -0.5355 -0.1268  0.0141
 3974SOL    HW117885   6.062   7.992   7.507 -1.0133 -0.1025  0.7884
 3974SOL    HW217886   5.973   8.112   7.482 -0.1392  0.1268 -1.5035
 3975SOL     OW17887   4.889   4.679   5.534  0.4088  0.1244 -0.2514
 3975SOL    HW117888   4.881   4.587   5.510  0.8405 -0.3361  1.3017
 3975SOL    HW217889   4.808   4.719   5.502  0.0090 -0.8764 -0.5145
 3976SOL     OW17890  10.081   3.180   9.675 -0.1063  0.5163 -0.4392
 3976SOL    HW117891  10.046   3.122   9.607  1.4272  0.2277 -1.0307
 3976SOL    HW217892  10.120   3.121   9.739 -1.2838  0.8032  0.5819
 3977SOL     OW17893  10.438   5.694   6.896  0.0517 -0.3761 -0.2794
 3977SOL    HW117894  10.498   5.724   6.828 -1.7745  0.2386 -1.6963
 3977SOL    HW217895  10.439   5.599   6.889  1.8545 -0.4778  0.6644
 3978SOL     OW17896  10.372   9.583   6.229 -0.0651  0.1647 -0.1772
 3978SOL    HW117897  10.338   9.542   6.308  0.0074 -0.8608 -0.6706
 3978SOL    HW217898  10.352   9.676   6.240  0.7970  0.1844  1.4712
 3979SOL     OW17899   1.399   4.830   0.045 -0.0272 -0.3220  0.0512
 3979SOL    HW117900   1.305   4.815   0.045 -0.3957  1.6344  0.9087
 3979SOL    HW217901   1.416   4.878  -0.036  0.3062 -0.9894 -0.2821
 3980SOL     OW17902   0.532   8.901   3.372  0.0108  0.4206 -0.0724
 3980SOL    HW117903   0.439   8.918   3.386 -0.1899  1.2589 -2.1164
 3980SOL    HW217904   0.553   8.946   3.290  1.9005 -0.8554 -0.3601
 3981SOL     OW17905   3.081   6.164   5.280 -0.3758  0.2178  0.6827
 3981SOL    HW117906   3.066   6.089   5.222 -1.7884  0.2629  0.9504
 3981SOL    HW217907   3.171   6.153   5.309  0.1823 -0.1366 -1.0337
 3982SOL     OW17908   8.960  11.954   3.338  0.1251  0.4089 -0.3241
 3982SOL    HW117909   8.945  11.875   3.390 -0.5022  0.3938 -0.5090
 3982SOL    HW217910   9.035  11.933   3.283 -0.0817 -0.0923 -0.4236
 3983SOL     OW17911   3.646   0.142   9.822  0.3695  0.1517  0.1974
 3983SOL    HW117912   3.729   0.181   9.851  0.0030 -0.9741  3.0733
 3983SOL    HW217913   3.647   0.053   9.858 -2.5624  0.4821  1.4202
 3984SOL     OW17914  11.211   3.732   7.370 -0.1389  0.1148 -0.3147
 3984SOL    HW117915  11.179   3.787   7.441  0.6602  1.1628 -0.7505
 3984SOL    HW217916  11.306   3.737   7.376 -0.0634 -0.6700 -0.7892
 3985SOL     OW17917  11.361   3.148   3.665  0.1219  0.4402 -0.3341
 3985SOL    HW117918  11.444   3.125   3.706  0.4026  0.6376 -0.7800
 3985SOL    HW217919  11.381   3.226   3.613  0.2976 -0.9453 -2.4706
 3986SOL     OW17920   9.189   8.336   6.076 -0.0794  0.6090 -0.6050
 3986SOL    HW117921   9.242   8.397   6.025  2.8363 -0.6471  0.6884
 3986SOL    HW217922   9.222   8.250   6.051  0.0597 -0.1281  1.8642
 3987SOL     OW17923   2.766   7.845   8.740 -0.2054  0.5388  0.1785
 3987SOL    HW117924   2.675   7.833   8.713 -0.1306  0.8814 -0.2420
 3987SOL    HW217925   2.789   7.933   8.708  0.8371 -0.2358 -1.3617
 3988SOL     OW17926   8.345   6.844   7.323 -0.3714  0.7101 -0.3753
 3988SOL    HW117927   8.282   6.772   7.326 -0.2641  0.6307  0.2360
 3988SOL    HW217928   8.292   6.923   7.330 -0.3142  0.5969  2.3665
 3989SOL     OW17929  10.966   8.995   0.288  0.6705 -0.3310  0.5298
 3989SOL    HW117930  10.944   8.904   0.307 -0.4389 -0.1494  0.1686
 3989SOL    HW217931  11.004   9.028   0.370 -0.7276 -0.5709  1.3078
 3990SOL     OW17932   7.380   2.452  12.011  0.0910  0.7922 -0.3858
 3990SOL    HW117933   7.401   2.466  12.104  0.3078 -0.6313 -0.1907
 3990SOL    HW217934   7.396   2.358  11.998 -2.4851  0.3990 -1.1966
 3991SOL     OW17935  10.506   5.879   6.680 -0.0152 -0.3992 -0.7307
 3991SOL    HW117936  10.581   5.840   6.726  0.2394  0.0371 -0.7601
 3991SOL    HW217937  10.516   5.850   6.590  1.3617  1.3724 -1.2109
 3992SOL     OW17938   5.560   5.577  11.086  0.5427 -0.1471 -0.5219
 3992SOL    HW117939   5.550   5.615  11.173 -0.1321  0.0194 -0.6718
 3992SOL    HW217940   5.643   5.613  11.054 -0.1517  1.3224 -0.7318
 3993SOL     OW17941   9.069   7.736   1.190  0.0346 -0.1215  0.0759
 3993SOL    HW117942   9.123   7.665   1.155 -1.4160 -0.5308 -1.4599
 3993SOL    HW217943   9.029   7.700   1.269  0.6756 -0.3850  0.2873
 3994SOL     OW17944   2.550   6.699  10.491  0.5091 -0.2789  0.4352
 3994SOL    HW117945   2.515   6.767  10.549  1.0629  2.0249 -1.7487
 3994SOL    HW217946   2.485   6.629  10.493 -1.8092  1.7437  0.2642
 3995SOL     OW17947   3.949   5.681   1.954  0.7043  0.5143  0.4660
 3995SOL    HW117948   3.854   5.682   1.940  0.8322  1.5043 -0.4556
 3995SOL    HW217949   3.979   5.601   1.912  0.3142  0.3613  0.4776
 3996SOL     OW17950   0.929   4.508   0.462 -0.0915 -0.3995 -0.3729
 3996SOL    HW117951   1.018   4.501   0.496 -0.2101  0.4555  0.1388
 3996SOL    HW217952   0.938   4.486   0.369  0.4736 -1.3208 -0.1196
 3997SOL     OW17953   4.496   4.599   3.359  0.0084  0.2036  0.5141
 3997SOL    HW117954   4.470   4.521   3.408  2.1475 -1.8304 -1.3249
 3997SOL    HW217955   4.414   4.646   3.344 -1.4372 -1.8771  1.3811
 3998SOL     OW17956   2.048  11.817   4.210 -0.1472  0.5833  0.0222
 3998SOL    HW117957   2.125  11.766   4.236 -1.4164 -1.0498  0.7211
 3998SOL    HW217958   1.983  11.800   4.277 -1.5944  0.8455 -1.2521
 3999SOL     OW17959   0.005   8.894   6.676 -0.2205 -0.2781  0.7132
 3999SOL    HW117960   0.098   8.915   6.685  0.3061 -1.7042 -0.9105
 3999SOL    HW217961  -0.020   8.861   6.762  1.1369 -1.1145  0.8215
 4000SOL     OW17962   4.001   7.758   9.676  0.1879 -0.1368 -0.0119
 4000SOL    HW117963   3.990   7.713   9.592  0.6483  0.9183 -0.6610
 4000SOL    HW217964   4.008   7.687   9.740  1.5569 -1.0315 -1.0811
 4001SOL     OW17965  11.229  10.940   9.151  0.4942 -0.0828 -0.0807
 4001SOL    HW117966  11.193  11.009   9.206 -1.1036 -0.6924 -0.2943
 4001SOL    HW217967  11.238  10.979   9.065  1.0029  0.2719  0.1301
 4002SOL     OW17968   7.009   8.271   4.145 -0.2692  0.1763  0.0019
 4002SOL    HW117969   7.043   8.305   4.062  1.2828  0.0983  0.5772
 4002SOL    HW217970   7.086   8.240   4.192 -1.0078  1.0164  1.8536
 4003SOL     OW17971   2.690   9.975   5.869  0.7997  0.1758  0.0307
 4003SOL    HW117972   2.719   9.887   5.842  1.4787  0.3230  0.2507
 4003SOL    HW217973   2.595   9.968   5.877  0.7311 -0.2499 -1.0028
 4004SOL     OW17974   7.596   8.896   8.817  0.5284 -0.6390  0.0706
 4004SOL    HW117975   7.534   8.825   8.803  1.1275 -1.1648  0.0134
 4004SOL    HW217976   7.557   8.972   8.774 -1.4434 -0.1915  2.4250
 4005SOL     OW17977   8.291   4.645   6.241 -0.0085  0.4219 -0.0514
 4005SOL    HW117978   8.236   4.634   6.318  0.0344  0.9623  0.0634
 4005SOL    HW217979   8.307   4.556   6.210 -2.3506  0.3001 -1.1136
 4006SOL     OW17980   2.917  10.550   7.306 -0.1384 -0.5363 -0.9682
 4006SOL    HW117981   2.926  10.611   7.379 -0.1245 -1.5081 -0.1506
 4006SOL    HW217982   3.006  10.544   7.269 -0.7620  2.9399 -3.5901
 4007SOL     OW17983  10.671  11.206   8.529 -0.3480  0.4706  0.5001
 4007SOL    HW117984  10.583  11.239   8.548  0.1805  3.4651 -1.5107
 4007SOL    HW217985  10.728  11.281   8.545  1.4408 -0.4138 -1.2606
 4008SOL     OW17986   3.453   3.801   6.870 -0.1775  0.1140 -0.7731
 4008SOL    HW117987   3.425   3.881   6.826  0.3997  0.8882  0.2058
 4008SOL    HW217988   3.543   3.819   6.897 -0.5130 -0.2706  0.7419
 4009SOL     OW17989  11.754  10.966   2.262 -0.0942  0.2572 -0.2078
 4009SOL    HW117990  11.824  11.000   2.205  1.7883  0.4357  2.0631
 4009SOL    HW217991  11.706  11.044   2.289  0.7943  0.5216  0.6582
 4010SOL     OW17992   2.955   0.071  10.844 -0.0691  0.4072 -0.1421
 4010SOL    HW117993   3.032   0.122  10.816 -0.1895  0.9069  0.4260
 4010SOL    HW217994   2.927   0.025  10.765  0.8699  0.1515 -0.3355
 4011SOL     OW17995   0.347   0.394   9.743 -0.1695 -0.6125 -0.2336
 4011SOL    HW117996   0.304   0.477   9.766  1.7746  0.8066 -1.3571
 4011SOL    HW217997   0.282   0.347   9.691 -0.7475  1.0148 -1.0648
 4012SOL     OW17998   4.379  12.306   6.487 -0.1959  0.0865  0.6360
 4012SOL    HW117999   4.450  12.267   6.540 -0.0467  1.2611  1.3311
 4012SOL    HW218000   4.409  12.295   6.397 -0.3862 -1.8294  0.7572
 4013SOL     OW18001   1.335   6.932   1.929  0.0310  0.6567 -0.5190
 4013SOL    HW118002   1.384   7.009   1.900  2.5521 -0.1947  1.0596
 4013SOL    HW218003   1.278   6.964   1.999  1.9688  1.0209  1.0010
 4014SOL     OW18004   3.303   5.605   7.686  0.1824  0.2353 -0.0223
 4014SOL    HW118005   3.340   5.606   7.597 -0.8483 -0.8881 -0.4900
 4014SOL    HW218006   3.370   5.563   7.740  1.2697  1.8639 -0.0173
 4015SOL     OW18007   9.027   4.478   5.146  0.0790  0.3557 -0.4143
 4015SOL    HW118008   8.963   4.480   5.075  0.6752  0.6579 -0.9622
 4015SOL    HW218009   9.103   4.433   5.108 -0.8926 -2.9288  1.1934
 4016SOL     OW18010   3.531   4.767   2.755  0.1433  0.4151 -0.4442
 4016SOL    HW118011   3.470   4.708   2.711  0.6302 -0.5353  0.1131
 4016SOL    HW218012   3.506   4.761   2.847  0.2610  1.0130 -0.3735
 4017SOL     OW18013   5.653   1.874   2.552  0.0757 -0.0707 -0.2918
 4017SOL    HW118014   5.736   1.903   2.515  2.3177 -4.3419  0.6413
 4017SOL    HW218015   5.660   1.894   2.646 -0.8377  1.1775 -0.4647
 4018SOL     OW18016   8.712   8.356   4.510 -0.1004 -0.2466  0.0649
 4018SOL    HW118017   8.768   8.322   4.580  0.2704 -0.3563 -0.2823
 4018SOL    HW218018   8.771   8.405   4.453 -0.0594 -1.6705 -1.1686
 4019SOL     OW18019   3.840   2.117   3.057 -0.1130  0.4699 -0.5642
 4019SOL    HW118020   3.837   2.050   3.125 -2.1297  0.3549 -0.7068
 4019SOL    HW218021   3.890   2.077   2.986  1.2361  0.2547  0.4687
 4020SOL     OW18022   7.795   2.262   6.184  0.1155 -0.2788 -0.0354
 4020SOL    HW118023   7.817   2.337   6.238 -1.8443  1.8881 -2.0352
 4020SOL    HW218024   7.860   2.262   6.114 -1.5225  1.4734 -1.6748
 4021SOL     OW18025   5.561   2.246   3.904  0.2294 -0.0496 -0.5105
 4021SOL    HW118026   5.537   2.289   3.987 -2.4246 -1.1005 -0.6194
 4021SOL    HW218027   5.594   2.160   3.931  0.4434  0.0339 -0.5045
 4022SOL     OW18028   1.040  10.857   6.305 -0.4279  0.6458 -0.0994
 4022SOL    HW118029   1.121  10.889   6.345 -0.3744  2.0696 -1.2404
 4022SOL    HW218030   1.068  10.780   6.254  0.4349  1.7025 -1.2855
 4023SOL     OW18031  12.073   4.537   6.991  0.0854 -0.2607  0.1966
 4023SOL    HW118032  12.098   4.623   6.957 -1.0305  0.1450  0.3864
 4023SOL    HW218033  12.139   4.518   7.057  0.3489  0.4479  0.1495
 4024SOL     OW18034   6.086   5.624   1.348  0.2005  0.5620  0.2214
 4024SOL    HW118035   6.122   5.646   1.262 -0.6774 -0.4198 -0.4284
 4024SOL    HW218036   6.006   5.676   1.354  0.0790  0.3638  0.2992
 4025SOL     OW18037   1.718  11.750  12.097 -0.0803 -0.3517  0.3624
 4025SOL    HW118038   1.660  11.674  12.104 -0.2423 -0.1228  2.0033
 4025SOL    HW218039   1.666  11.815  12.049  0.0477 -1.2372 -1.0299
 4026SOL     OW18040   2.752  10.565   0.987 -0.1130 -0.0090  0.3308
 4026SOL    HW118041   2.840  10.580   0.953 -0.4855 -0.4576 -0.8679
 4026SOL    HW218042   2.734  10.642   1.041  0.4832  0.7374 -0.4989
 4027SOL     OW18043   9.610   1.446   4.716 -0.0892  0.0525  0.0383
 4027SOL    HW118044   9.577   1.360   4.741  0.6576 -0.0204  0.8295
 4027SOL    HW218045   9.532   1.495   4.690 -0.3533 -1.3420 -2.0008
 4028SOL     OW18046  10.677   9.967   4.183 -0.3384  0.0732 -0.5712
 4028SOL    HW118047  10.592   9.935   4.213  1.1779 -1.5170  2.5371
 4028SOL    HW218048  10.706   9.903   4.118 -0.7568 -0.4092 -0.2868
 4029SOL     OW18049  11.528  10.329   3.665  0.0488 -0.0914  0.0704
 4029SOL    HW118050  11.490  10.321   3.752 -1.2505 -0.7354 -0.5165
 4029SOL    HW218051  11.554  10.240   3.642  0.7020  0.1317 -0.0720
 4030SOL     OW18052   9.161   5.218   2.671  0.3368 -0.9972  0.2478
 4030SOL    HW118053   9.113   5.258   2.743  1.9578  0.5305  0.5588
 4030SOL    HW218054   9.187   5.292   2.615  3.0784 -1.5810  0.6159
 4031SOL     OW18055  10.815   8.875   8.340 -0.2448 -0.3614  0.3083
 4031SOL    HW118056  10.819   8.913   8.252  0.8422 -1.6466 -0.2389
 4031SOL    HW218057  10.757   8.799   8.331 -1.8068  0.6825  1.2122
 4032SOL     OW18058  10.123   8.277   0.971 -0.6009  0.5083 -0.2032
 4032SOL    HW118059  10.187   8.299   0.902 -0.2833  0.9712  0.2342
 4032SOL    HW218060  10.078   8.359   0.989 -1.1320  0.2393 -0.3143
 4033SOL     OW18061   0.105   3.941   6.359 -0.0088 -0.3887  0.1927
 4033SOL    HW118062   0.151   3.900   6.285  0.2317  1.2432 -0.6085
 4033SOL    HW218063   0.055   4.012   6.319  0.0909  0.4999  1.6047
 4034SOL     OW18064  12.452   5.473   3.444 -0.4557  0.1060 -0.3699
 4034SOL    HW118065  12.477   5.384   3.469  1.0189  0.4514 -0.4777
 4034SOL    HW218066  12.464   5.475   3.349 -0.5952  0.3857 -0.3818
 4035SOL     OW18067   0.595   0.442   4.126  0.4272 -0.0197 -0.1104
 4035SOL    HW118068   0.665   0.471   4.184 -0.0189  0.0528  0.3992
 4035SOL    HW218069   0.581   0.350   4.150  0.2011  0.0272 -0.0613
 4036SOL     OW18070   8.613   1.619   4.090  0.1452  0.4440  0.2028
 4036SOL    HW118071   8.644   1.615   3.999 -0.0259 -0.9585  0.1846
 4036SOL    HW218072   8.524   1.586   4.086 -0.6108  2.3232  0.6024
 4037SOL     OW18073   7.104   8.976   9.440  0.0883  0.0089  0.4086
 4037SOL    HW118074   7.173   9.037   9.465  0.1602  0.2363 -0.3231
 4037SOL    HW218075   7.149   8.910   9.387 -0.0980 -0.3433  0.6871
 4038SOL     OW18076   3.799  12.001   2.611  0.0534  0.4733 -0.7531
 4038SOL    HW118077   3.752  11.995   2.527  0.0384  0.3620 -0.7380
 4038SOL    HW218078   3.774  11.920   2.657  1.2584 -0.2137 -1.2589
 4039SOL     OW18079   0.506   1.661  11.032  0.3709  0.0689  0.5507
 4039SOL    HW118080   0.496   1.603  10.957  0.5642  0.5468  0.1529
 4039SOL    HW218081   0.571   1.618  11.087  0.2153 -0.2914  0.4536
 4040SOL     OW18082   5.461  12.134  12.428 -0.2009  0.2319 -0.3278
 4040SOL    HW118083   5.489  12.214  12.473 -0.0930  0.2679 -0.4604
 4040SOL    HW218084   5.374  12.154  12.395 -2.3408 -1.2070  3.6914
 4041SOL     OW18085  12.336   6.677   9.704 -0.0883 -0.3144  0.0311
 4041SOL    HW118086  12.284   6.597   9.715  0.0709 -0.5591 -0.8936
 4041SOL    HW218087  12.289   6.727   9.637 -1.2625  1.3048  1.9618
 4042SOL     OW18088   2.060   4.819   5.948  0.6013 -0.4291 -0.1778
 4042SOL    HW118089   1.993   4.767   5.992  1.3042 -1.5830 -0.4275
 4042SOL    HW218090   2.031   4.826   5.858 -0.7398  1.7696  0.3354
 4043SOL     OW18091   4.578  12.386   1.812 -0.0771 -0.3522 -0.0827
 4043SOL    HW118092   4.526  12.467   1.810  1.6734  0.9538 -4.1043
 4043SOL    HW218093   4.518  12.318   1.781 -0.4850  0.3594 -0.9316
 4044SOL     OW18094  10.799   1.275   2.216 -0.0456 -0.3130 -0.2769
 4044SOL    HW118095  10.809   1.319   2.132  0.6877 -0.2903 -0.1902
 4044SOL    HW218096  10.746   1.198   2.197 -1.4425  0.6394 -0.4137
 4045SOL     OW18097   8.519  10.092   6.831 -0.1693 -0.0258 -0.2446
 4045SOL    HW118098   8.527  10.031   6.903 -1.9076  0.6027  0.5298
 4045SOL    HW218099   8.583  10.161   6.850 -0.6617  0.1697  0.7579
 4046SOL     OW18100   1.590   4.909  11.783  0.1859 -0.0655  0.2449
 4046SOL    HW118101   1.683   4.930  11.776  0.1582  0.3495  1.0560
 4046SOL    HW218102   1.575   4.896  11.877 -0.2723 -1.5518  0.0038
 4047SOL     OW18103   4.615  11.719   1.025  0.2589  0.2742 -0.3891
 4047SOL    HW118104   4.682  11.786   1.010 -0.5999  1.0355 -0.9496
 4047SOL    HW218105   4.614  11.667   0.945  0.7609 -0.2746 -0.0465
 4048SOL     OW18106   1.555   7.966   2.279 -0.1054 -0.1984  0.2937
 4048SOL    HW118107   1.608   8.045   2.287  1.0084 -0.7883 -0.8984
 4048SOL    HW218108   1.527   7.947   2.368  1.4984  0.2837  0.9379
 4049SOL     OW18109   6.057   2.945   8.321 -0.0944  0.5732  0.0084
 4049SOL    HW118110   6.133   2.961   8.265 -0.3432 -2.6083 -1.4504
 4049SOL    HW218111   5.983   2.937   8.261 -0.7794 -0.7408  0.9653
 4050SOL     OW18112   7.461   7.643   5.167  0.2469 -0.6589 -0.4237
 4050SOL    HW118113   7.461   7.719   5.225  1.8983 -0.9102 -0.0459
 4050SOL    HW218114   7.496   7.676   5.084 -1.0838 -0.5460 -0.9670
 4051SOL     OW18115   7.942  11.019   9.120 -0.1439 -0.2595  0.6439
 4051SOL    HW118116   7.997  10.983   9.189  1.4052 -0.2426 -0.5379
 4051SOL    HW218117   7.992  11.007   9.040 -1.5857  0.3704 -0.4041
 4052SOL     OW18118   4.085   2.138   0.787 -0.4238  0.2601  0.0320
 4052SOL    HW118119   4.160   2.108   0.838 -2.0724 -1.2766  1.6926
 4052SOL    HW218120   4.072   2.229   0.814 -1.6555 -0.6815  3.0385
 4053SOL     OW18121   8.376   9.426   3.039 -0.1163  0.1962  0.0822
 4053SOL    HW118122   8.314   9.365   2.998  0.4409  0.1128 -0.6663
 4053SOL    HW218123   8.330   9.510   3.041 -0.4303  0.0269 -0.0142
 4054SOL     OW18124   4.144   5.058   0.389  0.8088  0.6953 -0.0562
 4054SOL    HW118125   4.204   5.087   0.321  0.8273  1.9448  0.4638
 4054SOL    HW218126   4.201   5.036   0.463  0.7515 -0.0974 -0.2420
 4055SOL     OW18127  12.390   8.184   6.676  0.5452  0.5194  0.3624
 4055SOL    HW118128  12.432   8.270   6.680 -0.1562  0.9264 -0.4461
 4055SOL    HW218129  12.398   8.158   6.584  0.9460 -0.3893  0.6472
 4056SOL     OW18130  10.052   8.693   1.704  0.4903 -0.0086 -0.5240
 4056SOL    HW118131  10.126   8.632   1.697  1.0296  0.4545  0.8043
 4056SOL    HW218132  10.019   8.679   1.793  0.4814  1.4627 -0.2720
 4057SOL     OW18133  11.035   4.134  12.074  0.4870  0.0219 -0.5744
 4057SOL    HW118134  11.032   4.189  11.996 -3.6101  1.5320  0.3870
 4057SOL    HW218135  11.002   4.049  12.045  0.8885 -0.0475 -0.8377
 4058SOL     OW18136   7.413  10.487  10.368 -0.3737 -0.1861  0.0158
 4058SOL    HW118137   7.332  10.491  10.420 -0.5501  1.3057 -0.3405
 4058SOL    HW218138   7.440  10.578  10.358 -0.4197 -0.3855 -2.6415
 4059SOL     OW18139   5.340  12.490   5.191  0.2990 -0.4991  0.3237
 4059SOL    HW118140   5.408  12.426   5.167 -0.2587 -1.1563  0.4658
 4059SOL    HW218141   5.313  12.529   5.108  0.5245 -0.5670  0.2172
 4060SOL     OW18142   0.488   4.916   7.686 -0.3930  0.3065 -0.1563
 4060SOL    HW118143   0.510   4.826   7.710  1.5483  0.8640  0.3658
 4060SOL    HW218144   0.552   4.939   7.618 -0.6928  1.3758 -0.0996
 4061SOL     OW18145  11.409   2.848   0.260 -0.2911  0.3579  0.2052
 4061SOL    HW118146  11.416   2.940   0.285  1.8111 -0.0746  1.4651
 4061SOL    HW218147  11.320   2.823   0.286  0.2337  1.1772  3.2287
 4062SOL     OW18148   6.379   3.162   3.511  0.2248  0.4907  0.1827
 4062SOL    HW118149   6.382   3.116   3.427 -0.9515 -1.2394  1.0262
 4062SOL    HW218150   6.469   3.155   3.545  0.2942 -0.3606 -0.1418
 4063SOL     OW18151  10.868   4.306   2.718 -0.6085  0.2543 -0.0353
 4063SOL    HW118152  10.862   4.335   2.627  0.9078  2.2514  0.4367
 4063SOL    HW218153  10.777   4.293   2.744 -1.2311  1.9031 -1.1792
 4064SOL     OW18154   7.459   1.535   5.774 -0.0924 -0.3123  0.6032
 4064SOL    HW118155   7.462   1.630   5.756 -0.6454 -0.6313 -1.5234
 4064SOL    HW218156   7.512   1.497   5.704 -3.2426 -1.8134 -1.1697
 4065SOL     OW18157  10.487   5.353   9.052  0.2986  0.3161  0.1151
 4065SOL    HW118158  10.396   5.332   9.033  0.5989 -0.9441 -0.0287
 4065SOL    HW218159  10.494   5.343   9.147  0.6217 -1.1046 -0.0323
 4066SOL     OW18160   6.166   2.796  11.557  0.3960 -0.1376  0.3092
 4066SOL    HW118161   6.084   2.760  11.523  0.1746 -0.4946  1.2074
 4066SOL    HW218162   6.233   2.736  11.524  0.3861  0.5224 -0.9794
 4067SOL     OW18163   1.035   4.193  10.562  0.0138  0.5305  0.4809
 4067SOL    HW118164   0.945   4.225  10.551  0.2257  0.6442 -1.1301
 4067SOL    HW218165   1.050   4.195  10.657 -1.2411  1.7075  0.6776
 4068SOL     OW18166   3.382   7.950   3.150 -0.2665 -0.3884 -0.0087
 4068SOL    HW118167   3.352   8.040   3.139 -0.5274 -0.1266  2.3611
 4068SOL    HW218168   3.328   7.915   3.220  1.2531 -1.6928  0.5853
 4069SOL     OW18169   0.628  12.009   9.462 -0.7096 -0.0065 -0.3572
 4069SOL    HW118170   0.560  12.076   9.470  0.0123  0.6431  0.5842
 4069SOL    HW218171   0.604  11.943   9.528 -0.8656 -0.1686 -0.5775
 4070SOL     OW18172   2.467   8.221  11.760 -0.1883  0.5803  0.0193
 4070SOL    HW118173   2.527   8.270  11.816 -0.5503  0.3248  0.6444
 4070SOL    HW218174   2.461   8.273  11.680  0.4810  0.8569  0.1429
 4071SOL     OW18175   0.739   7.845   5.977 -0.3943 -0.1310  0.2264
 4071SOL    HW118176   0.677   7.913   6.003 -1.2363 -0.4583 -0.8468
 4071SOL    HW218177   0.763   7.801   6.059 -1.2837  0.2544  0.7033
 4072SOL     OW18178   0.605   4.502  10.599  0.0195  0.1153 -0.3496
 4072SOL    HW118179   0.585   4.589  10.635  0.8649  0.6269 -1.0881
 4072SOL    HW218180   0.694   4.510  10.566  0.8046 -1.5643  1.1816
 4073SOL     OW18181  11.478   3.296   9.878  0.0209  0.7539  0.6845
 4073SOL    HW118182  11.412   3.237   9.843  0.0133  1.4141 -0.4758
 4073SOL    HW218183  11.429   3.374   9.906  0.1564  0.6843  1.1220
 4074SOL     OW18184   1.594   5.155  10.390 -0.0084  0.5336  0.1068
 4074SOL    HW118185   1.526   5.187  10.331 -0.1789 -2.8200 -1.7698
 4074SOL    HW218186   1.673   5.202  10.363 -1.1155  3.2632  1.2263
 4075SOL     OW18187   8.616   8.283  11.734 -0.4757  0.1551  0.1623
 4075SOL    HW118188   8.702   8.324  11.746  0.5858 -2.4049  2.2021
 4075SOL    HW218189   8.570   8.342  11.673  1.9136  2.7194  0.6179
 4076SOL     OW18190  11.783  11.143   4.214 -0.2695 -0.7509  0.2927
 4076SOL    HW118191  11.847  11.196   4.262 -1.3288  0.1451  0.7324
 4076SOL    HW218192  11.798  11.166   4.122 -0.2126 -0.2524  0.4240
 4077SOL     OW18193   6.339   1.859   6.382  0.3548 -0.2976  0.1372
 4077SOL    HW118194   6.337   1.803   6.304  0.6797 -1.9505  1.2466
 4077SOL    HW218195   6.431   1.859   6.409  0.1948 -0.0028  0.6978
 4078SOL     OW18196   9.888   0.715   2.799  0.3192 -1.0215  0.2712
 4078SOL    HW118197   9.946   0.644   2.773 -0.5423 -1.9880  0.9198
 4078SOL    HW218198   9.832   0.677   2.867  0.1259  0.4031  0.9379
 4079SOL     OW18199   7.387   5.870  11.912 -0.4526  0.1263  0.5674
 4079SOL    HW118200   7.458   5.902  11.857  0.8601 -0.0781  2.0894
 4079SOL    HW218201   7.327   5.827  11.851  0.1103  1.3360 -0.8983
 4080SOL     OW18202   2.574   3.934   5.140 -1.0828  0.4391 -0.1026
 4080SOL    HW118203   2.634   4.000   5.175  0.2764 -0.6486 -0.2645
 4080SOL    HW218204   2.609   3.851   5.173 -1.0188 -0.4469 -2.2142
 4081SOL     OW18205   5.735   7.448   7.776  0.1536  0.0706 -0.2185
 4081SOL    HW118206   5.662   7.386   7.768  0.0287  0.2498 -0.4777
 4081SOL    HW218207   5.753   7.451   7.870 -1.1776  1.1579  0.0307
 4082SOL     OW18208  11.204   4.645   2.724 -0.0762  0.4286 -0.6252
 4082SOL    HW118209  11.255   4.670   2.647  0.9141  0.3315 -0.0225
 4082SOL    HW218210  11.269   4.616   2.787 -0.6849  2.4500  1.0103
 4083SOL     OW18211   8.601   3.520   4.348 -0.5185 -0.5353 -0.5520
 4083SOL    HW118212   8.530   3.511   4.284  0.0044 -0.5187 -1.1477
 4083SOL    HW218213   8.665   3.454   4.322 -0.4096 -0.6924  0.1083
 4084SOL     OW18214   6.311   0.504   7.384 -0.2179  0.3419 -0.3013
 4084SOL    HW118215   6.324   0.483   7.291 -1.7679  0.5644 -0.6086
 4084SOL    HW218216   6.360   0.437   7.431  0.6064  0.2264 -1.2723
 4085SOL     OW18217   8.482   7.217   0.952  0.1416 -0.3111  0.0379
 4085SOL    HW118218   8.542   7.180   1.016 -3.0737 -1.7463  2.5343
 4085SOL    HW218219   8.457   7.302   0.989 -2.0218 -1.3067  1.0890
 4086SOL     OW18220   9.214   9.249   0.486  0.2972  0.5793  0.4155
 4086SOL    HW118221   9.295   9.220   0.444  1.7140  2.2166  1.8401
 4086SOL    HW218222   9.213   9.203   0.570 -0.6684 -0.0073  0.0925
 4087SOL     OW18223   9.284   1.665   3.124 -0.6553  0.2522  0.2529
 4087SOL    HW118224   9.335   1.740   3.093  1.0875 -1.0706 -0.2369
 4087SOL    HW218225   9.197   1.700   3.140  0.0351  2.3168 -0.2285
 4088SOL     OW18226  11.047   1.579   7.910 -0.1118 -0.4088 -0.3142
 4088SOL    HW118227  11.098   1.499   7.893  0.2424  0.2775 -2.7532
 4088SOL    HW218228  10.956   1.552   7.899  0.0106 -0.4783 -1.2083
 4089SOL     OW18229   2.785   3.117  12.170  0.7865 -0.2082 -0.4778
 4089SOL    HW118230   2.710   3.127  12.110  0.2073  0.1482  0.2813
 4089SOL    HW218231   2.756   3.052  12.234  1.8868 -1.5545 -1.3053
 4090SOL     OW18232   7.572   7.886   8.971  0.0035 -0.5304  0.8010
 4090SOL    HW118233   7.619   7.803   8.975  0.9114 -0.0118  1.1954
 4090SOL    HW218234   7.493   7.872   9.024  0.2165 -1.0967  0.9706
 4091SOL     OW18235   1.182   0.314  10.910  0.6935 -0.1653  0.0119
 4091SOL    HW118236   1.193   0.367  10.831 -0.1988  0.7986  0.4998
 4091SOL    HW218237   1.271   0.291  10.936  1.0388  0.1790 -0.8341
 4092SOL     OW18238   8.932   2.941   2.249  0.0533 -0.1309  0.2397
 4092SOL    HW118239   8.882   3.019   2.275 -0.0044 -0.2226  0.4010
 4092SOL    HW218240   9.002   2.935   2.313  0.5464  0.2625 -0.2556
 4093SOL     OW18241  11.730   3.397   5.138  0.0509 -0.3751 -0.5360
 4093SOL    HW118242  11.713   3.404   5.044  0.1463 -0.3028 -0.5487
 4093SOL    HW218243  11.695   3.312   5.163 -0.8420  0.0103 -0.4525
 4094SOL     OW18244   1.490   5.884   4.269  0.1418  0.0506 -0.2490
 4094SOL    HW118245   1.456   5.970   4.245 -0.6875  0.2110  1.3270
 4094SOL    HW218246   1.553   5.902   4.339  1.0310 -0.5325 -0.8757
 4095SOL     OW18247   8.967  10.128   1.113  0.2091 -0.8119  0.2238
 4095SOL    HW118248   8.884  10.176   1.122 -0.9219 -2.6495  0.1775
 4095SOL    HW218249   8.957  10.052   1.170  1.9570 -0.9805  0.3402
 4096SOL     OW18250   2.224   7.020  12.147  0.6448  0.0805 -0.7850
 4096SOL    HW118251   2.259   7.105  12.120  2.3090  0.0666  1.0610
 4096SOL    HW218252   2.286   6.957  12.112  0.0954 -0.2907 -1.0972
 4097SOL     OW18253   2.006  11.925   3.038  0.1682 -0.2342 -0.4100
 4097SOL    HW118254   2.028  11.910   2.947 -1.1264  0.1316 -0.8036
 4097SOL    HW218255   1.954  12.005   3.038  0.7682  0.1975  0.7489
 4098SOL     OW18256   3.143   7.257   7.731  0.6583 -0.4102  0.1815
 4098SOL    HW118257   3.067   7.265   7.673  0.1031 -1.0492  0.7967
 4098SOL    HW218258   3.157   7.162   7.739  0.4400 -0.3511  1.4451
 4099SOL     OW18259   9.245   4.121   3.277  0.0511  0.1879 -0.3664
 4099SOL    HW118260   9.254   4.213   3.253  1.1361  0.3007  0.4017
 4099SOL    HW218261   9.310   4.108   3.346 -0.3766 -1.0546 -0.1777
 4100SOL     OW18262   0.940   3.890  11.545 -0.7268 -0.6252 -0.6616
 4100SOL    HW118263   0.879   3.851  11.608 -1.6513 -0.6521 -1.5413
 4100SOL    HW218264   0.938   3.984  11.565 -0.2583 -0.7372 -0.0334
 4101SOL     OW18265   4.938   8.133   8.324  0.4728 -0.5268 -0.0894
 4101SOL    HW118266   4.881   8.059   8.303 -0.8182  0.1595  0.8320
 4101SOL    HW218267   4.969   8.114   8.413  0.0888  0.0539  0.1734
 4102SOL     OW18268   2.246   9.716   2.688 -0.0228 -0.1212 -0.0057
 4102SOL    HW118269   2.157   9.744   2.667 -0.3928 -0.9405  0.4246
 4102SOL    HW218270   2.253   9.726   2.783  1.1450  2.1466 -0.2563
 4103SOL     OW18271   5.958   2.699  11.440 -0.1596  0.3391  0.2056
 4103SOL    HW118272   5.950   2.604  11.442 -0.7303  0.3732 -0.2664
 4103SOL    HW218273   5.879   2.731  11.483  0.0302  0.6047  0.3634
 4104SOL     OW18274   5.695   7.909   7.983  0.2839 -0.3227  0.2989
 4104SOL    HW118275   5.613   7.949   7.955  0.4610  1.2199  1.7603
 4104SOL    HW218276   5.763   7.960   7.939  0.5072  0.8471  1.9083
 4105SOL     OW18277  10.880   2.522  10.050  0.8172  0.0451  0.3872
 4105SOL    HW118278  10.821   2.450  10.071 -2.1438  2.1466 -0.0159
 4105SOL    HW218279  10.921   2.545  10.134 -0.7430 -0.0544  1.2149
 4106SOL     OW18280   0.260   4.649   1.438  0.4456 -0.0737 -0.6858
 4106SOL    HW118281   0.244   4.741   1.421 -1.2330 -0.4997 -1.5549
 4106SOL    HW218282   0.356   4.640   1.432  0.5523  1.3925 -1.6606
 4107SOL     OW18283   5.860   4.066   8.395 -0.6738  0.1877 -0.2942
 4107SOL    HW118284   5.878   4.010   8.471 -1.1857  0.1911 -0.1717
 4107SOL    HW218285   5.765   4.069   8.388 -0.6342 -0.3047 -1.3021
 4108SOL     OW18286   7.810   7.724   6.427  0.2883  0.8418  0.4016
 4108SOL    HW118287   7.837   7.772   6.349 -0.3400  1.1848  0.3876
 4108SOL    HW218288   7.848   7.772   6.499  1.7706 -0.0791  0.2719
 4109SOL     OW18289  11.364   4.614   9.114 -0.2452  0.5933 -0.4717
 4109SOL    HW118290  11.389   4.575   9.030 -0.3985  2.0030 -1.2181
 4109SOL    HW218291  11.424   4.689   9.123  0.3455 -0.0373  1.1222
 4110SOL     OW18292   2.498   6.634  12.039 -0.7985  0.3935 -0.0156
 4110SOL    HW118293   2.418   6.582  12.046 -0.1465 -0.8126 -1.1363
 4110SOL    HW218294   2.535   6.611  11.954  1.2255  0.2005  0.8463
 4111SOL     OW18295   0.966   6.727   0.856 -0.1937 -0.6251  0.2620
 4111SOL    HW118296   1.045   6.675   0.865 -1.5653 -2.9015 -0.0636
 4111SOL    HW218297   0.901   6.666   0.821 -2.7372  0.5064  2.6611
 4112SOL     OW18298   2.368  10.320   1.977 -0.3107  0.5298  0.3035
 4112SOL    HW118299   2.331  10.252   1.921 -0.0897 -0.8472  1.7719
 4112SOL    HW218300   2.428  10.274   2.035  0.8295  2.1780  0.5055
 4113SOL     OW18301   0.059   8.298   1.476  0.0289 -0.1350 -0.0254
 4113SOL    HW118302   0.099   8.217   1.444  1.0538  0.8302 -1.2794
 4113SOL    HW218303   0.111   8.322   1.553  0.5316  0.0096 -0.4113
 4114SOL     OW18304   4.545   8.748   7.156  0.3536 -1.0272  0.7528
 4114SOL    HW118305   4.610   8.789   7.099  0.1270 -0.5092  0.8615
 4114SOL    HW218306   4.517   8.670   7.108 -0.0416 -0.4420  0.0157
 4115SOL     OW18307   7.312   3.642   8.565  0.0524 -0.1301  0.3380
 4115SOL    HW118308   7.402   3.674   8.558 -0.3716  1.1015  0.2224
 4115SOL    HW218309   7.282   3.674   8.650 -0.1742 -0.8358  0.5283
 4116SOL     OW18310  12.427   9.369   1.527 -0.1249  0.0658 -0.3395
 4116SOL    HW118311  12.508   9.330   1.495  0.2707  0.8965 -0.3869
 4116SOL    HW218312  12.378   9.393   1.449 -0.8296 -1.2338 -0.3162
 4117SOL     OW18313   7.753  12.122   8.716  0.3318 -0.0114  0.1191
 4117SOL    HW118314   7.847  12.113   8.733  0.6727  0.7525 -1.2421
 4117SOL    HW218315   7.738  12.217   8.716 -0.1619 -0.0796 -1.0120
 4118SOL     OW18316   5.954   2.550   0.504 -0.1228 -0.4186  0.2740
 4118SOL    HW118317   5.879   2.517   0.554 -0.0391  0.2056  0.8168
 4118SOL    HW218318   5.994   2.471   0.467 -2.0038 -0.6750 -1.4240
 4119SOL     OW18319   3.335   7.036  10.073 -0.6187  0.5515  0.1011
 4119SOL    HW118320   3.250   7.080  10.069 -0.0389  1.5967 -2.3805
 4119SOL    HW218321   3.314   6.947  10.103 -2.5129  0.9231  0.0028
 4120SOL     OW18322   9.427   2.240   6.126  0.3404  0.3513 -0.2778
 4120SOL    HW118323   9.447   2.159   6.080 -3.5998 -0.3980 -1.0857
 4120SOL    HW218324   9.428   2.307   6.057  0.1602  0.3218 -0.3097
 4121SOL     OW18325  11.226  10.599   4.393 -0.0496 -0.4323  0.0089
 4121SOL    HW118326  11.308  10.647   4.402 -0.0897 -0.5158  0.9978
 4121SOL    HW218327  11.216  10.584   4.299 -0.1101  1.6409 -0.3803
 4122SOL     OW18328   7.611   6.102   2.552  0.3231 -0.2028  0.4183
 4122SOL    HW118329   7.601   6.051   2.472  0.4957  1.4908 -0.7442
 4122SOL    HW218330   7.681   6.164   2.533  3.0584 -2.1346  3.2151
 4123SOL     OW18331   0.756   3.834   9.112  0.3792 -0.0768 -1.0190
 4123SOL    HW118332   0.781   3.906   9.054  0.8447  1.0338  0.4784
 4123SOL    HW218333   0.662   3.845   9.125  0.9322  2.6917  2.1218
 4124SOL     OW18334  12.384  10.990  11.817 -0.5425 -0.5101  0.2128
 4124SOL    HW118335  12.421  10.908  11.849 -0.3083 -0.4307  0.1429
 4124SOL    HW218336  12.364  11.039  11.897  0.7184 -0.0066  0.2344
 4125SOL     OW18337   3.744   4.799   8.989  0.1651 -0.0764 -0.3871
 4125SOL    HW118338   3.825   4.850   8.984  0.6259 -0.8468 -1.0571
 4125SOL    HW218339   3.771   4.709   8.968 -0.6695 -0.5565  0.5093
 4126SOL     OW18340   5.966   6.856   7.388  0.4976 -0.1564  0.1767
 4126SOL    HW118341   5.921   6.780   7.425  1.2400 -0.5802  0.2327
 4126SOL    HW218342   5.934   6.861   7.298  1.1565 -1.1257 -0.1229
 4127SOL     OW18343   4.146   9.787  11.280 -0.3279  0.2502 -0.1845
 4127SOL    HW118344   4.179   9.875  11.264 -0.7765  0.3607 -0.5122
 4127SOL    HW218345   4.089   9.796  11.356  0.2508  0.0890  0.2757
 4128SOL     OW18346   0.356   1.104   7.735 -0.2299  0.0721 -0.5832
 4128SOL    HW118347   0.451   1.117   7.726 -0.4786  1.0307 -2.1063
 4128SOL    HW218348   0.344   1.081   7.827  1.2992  1.8545  0.1289
 4129SOL     OW18349   6.895  12.058   0.630 -0.0375 -0.1471  0.3879
 4129SOL    HW118350   6.991  12.059   0.623  0.1646  0.5028  2.5500
 4129SOL    HW218351   6.871  12.150   0.636 -0.8690 -0.2895 -0.5208
 4130SOL     OW18352  10.391   4.058   1.898 -0.1212 -0.1879 -0.0018
 4130SOL    HW118353  10.302   4.071   1.933 -0.3958  0.4283 -0.8995
 4130SOL    HW218354  10.443   4.127   1.938 -0.2348 -0.0385 -0.1099
 4131SOL     OW18355   9.346   6.382   8.079 -0.2370  0.2184 -0.5853
 4131SOL    HW118356   9.395   6.427   8.148  0.3225 -0.9166 -0.2159
 4131SOL    HW218357   9.269   6.437   8.064 -0.0206  0.8326  0.4655
 4132SOL     OW18358   5.481   4.057   7.708  0.1379  0.5203  0.0290
 4132SOL    HW118359   5.459   3.975   7.751 -0.2730  0.6878  0.1504
 4132SOL    HW218360   5.515   4.112   7.778  0.0024  0.6010  0.0317
 4133SOL     OW18361   0.323  12.335   7.879  0.0385  0.2900 -0.1734
 4133SOL    HW118362   0.307  12.420   7.837 -0.0128 -0.5781 -1.9681
 4133SOL    HW218363   0.407  12.306   7.844 -0.8261 -1.2488 -1.0376
 4134SOL     OW18364   9.617   1.194   3.939 -0.0767  0.0948  0.0650
 4134SOL    HW118365   9.569   1.277   3.928  0.4413  0.4147  0.2070
 4134SOL    HW218366   9.587   1.140   3.865  1.3409  1.2594 -1.4432
 4135SOL     OW18367   8.004  10.702   8.688  0.2028  0.6080  0.8255
 4135SOL    HW118368   8.050  10.773   8.731 -0.7450  1.2013  0.9026
 4135SOL    HW218369   7.956  10.658   8.758  0.2179  0.3425  0.6702
 4136SOL     OW18370   5.165   2.612  11.051  0.3698 -0.1028  0.1415
 4136SOL    HW118371   5.180   2.624  11.145  1.4276  0.6642 -0.1062
 4136SOL    HW218372   5.119   2.691  11.023  1.7694  0.5887 -0.3221
 4137SOL     OW18373   4.637  11.102   7.727  0.1491  0.4025 -0.0745
 4137SOL    HW118374   4.655  11.180   7.780 -1.2804 -1.2722  3.1225
 4137SOL    HW218375   4.710  11.043   7.744  0.0488  0.1125 -0.6146
 4138SOL     OW18376   9.332   6.101   8.017 -0.0819  0.4173  0.2372
 4138SOL    HW118377   9.329   6.035   8.087  1.6973 -0.0140 -0.0307
 4138SOL    HW218378   9.317   6.184   8.062  1.3023  0.1804  1.2359
 4139SOL     OW18379   6.823  11.143   7.457 -0.4927 -0.1174 -0.5492
 4139SOL    HW118380   6.898  11.200   7.473 -0.9562  0.3596 -0.0705
 4139SOL    HW218381   6.747  11.201   7.459 -1.0292 -0.8264  0.4895
 4140SOL     OW18382   0.733   8.082  11.125 -0.1284  0.1956 -0.1857
 4140SOL    HW118383   0.690   8.096  11.209  1.4388 -1.0021  0.8758
 4140SOL    HW218384   0.804   8.147  11.124 -0.4849  0.5869 -0.8607
 4141SOL     OW18385  10.719  12.410   8.909 -0.3836 -0.3937 -0.7816
 4141SOL    HW118386  10.719  12.429   8.816 -1.1417  0.1311 -0.6825
 4141SOL    HW218387  10.739  12.317   8.915 -3.4018 -1.1830 -1.6347
 4142SOL     OW18388   4.943   2.222   8.566  0.2779 -0.4862 -0.3540
 4142SOL    HW118389   4.874   2.250   8.506  1.3232  1.0282 -0.9098
 4142SOL    HW218390   4.909   2.244   8.653 -0.1864 -0.3139 -0.5739
 4143SOL     OW18391   6.182   8.085   8.940  0.0958  0.4560  0.7586
 4143SOL    HW118392   6.244   8.052   9.006  0.5463 -1.0067 -0.3461
 4143SOL    HW218393   6.150   8.006   8.897 -2.3617  1.2015  1.1113
 4144SOL     OW18394   5.612   8.918  11.991 -0.4279 -0.0604  0.1330
 4144SOL    HW118395   5.700   8.924  12.029 -0.3415  2.0834 -0.2505
 4144SOL    HW218396   5.567   8.996  12.025 -0.7185  1.3528 -3.1521
 4145SOL     OW18397   0.778   4.937   8.753 -0.0386 -0.1386  0.5925
 4145SOL    HW118398   0.771   4.974   8.841 -0.9139 -0.1714  0.5413
 4145SOL    HW218399   0.853   4.879   8.757 -0.4502 -0.6175  1.4936
 4146SOL     OW18400   3.223   7.775   4.903  0.7086  0.1278 -0.0362
 4146SOL    HW118401   3.197   7.684   4.916  1.0369  0.0249 -0.1011
 4146SOL    HW218402   3.280   7.773   4.827  2.9785 -0.0371  1.5660
 4147SOL     OW18403   2.967  11.614  11.182  0.0196  0.4402 -0.1483
 4147SOL    HW118404   3.039  11.606  11.119 -2.4415 -0.4384 -3.1585
 4147SOL    HW218405   2.926  11.527  11.182 -1.9262  1.2961  0.1958
 4148SOL     OW18406   2.396   3.889  12.462  0.1947 -0.1868  0.0903
 4148SOL    HW118407   2.455   3.845  12.523 -1.3369 -0.0147  1.7619
 4148SOL    HW218408   2.338   3.820  12.430 -0.7274  0.1661  0.9411
 4149SOL     OW18409   0.206  10.047   0.215  0.2718  0.7119  0.7635
 4149SOL    HW118410   0.240   9.965   0.178 -2.0929 -0.3600  0.7790
 4149SOL    HW218411   0.263  10.066   0.289  2.1477  0.2691 -0.4753
 4150SOL     OW18412   0.064   5.779   3.088  0.0575 -0.0444 -0.0640
 4150SOL    HW118413   0.155   5.779   3.118  1.2237 -1.0918 -3.2474
 4150SOL    HW218414   0.048   5.868   3.058  0.9017 -0.4161 -1.7126
 4151SOL     OW18415   2.869   4.336  10.039  0.6707 -0.4920  0.2364
 4151SOL    HW118416   2.948   4.297  10.076  3.4920  2.1456 -2.4147
 4151SOL    HW218417   2.858   4.293   9.954 -1.4285 -1.4795  0.9374
 4152SOL     OW18418   8.492   7.968   9.564 -0.4734  0.0488 -0.0096
 4152SOL    HW118419   8.496   8.030   9.490 -1.0907 -0.7639 -0.7417
 4152SOL    HW218420   8.551   7.897   9.539  0.8127  0.6591  1.1663
 4153SOL     OW18421   9.338  12.135  11.555  0.4514  0.0940 -0.3458
 4153SOL    HW118422   9.266  12.141  11.492  2.1942  0.1616 -2.4418
 4153SOL    HW218423   9.324  12.208  11.616 -1.3538 -0.0550 -0.5415
 4154SOL     OW18424   7.663   3.342  11.203 -0.2950 -0.0000 -0.1111
 4154SOL    HW118425   7.653   3.255  11.165 -0.7846  1.2047 -2.9888
 4154SOL    HW218426   7.755   3.346  11.230 -0.8893 -2.2946  2.8027
 4155SOL     OW18427   4.271  10.959  10.454  0.3456  0.2349  0.4938
 4155SOL    HW118428   4.177  10.972  10.462  0.1665  1.2261 -2.2089
 4155SOL    HW218429   4.296  10.911  10.533 -2.7323 -1.7542  0.3972
 4156SOL     OW18430  10.477   7.661  10.685  0.5539 -0.4370 -0.6245
 4156SOL    HW118431  10.478   7.733  10.622 -1.5844  1.9260  1.8187
 4156SOL    HW218432  10.390   7.622  10.676  0.3384 -0.2648  0.6279
 4157SOL     OW18433   6.385  11.348   4.803 -0.5199 -0.0388  0.1782
 4157SOL    HW118434   6.403  11.286   4.873  0.5296  1.0515  0.9205
 4157SOL    HW218435   6.337  11.419   4.847 -2.1657 -0.5119 -0.7535
 4158SOL     OW18436   2.091   2.640  11.808 -0.2547 -0.5410 -0.6177
 4158SOL    HW118437   2.019   2.643  11.745 -0.1416 -0.8667 -0.7639
 4158SOL    HW218438   2.114   2.732  11.823  0.4066 -0.4972 -1.8329
 4159SOL     OW18439   5.024   0.917  11.670  0.4065  0.0155 -0.3649
 4159SOL    HW118440   5.111   0.956  11.676  0.4678  0.1623 -1.8834
 4159SOL    HW218441   5.036   0.841  11.613  0.2146 -2.0661  2.1727
 4160SOL     OW18442  10.966  10.811   1.296  0.1543  0.3194 -0.1128
 4160SOL    HW118443  10.874  10.835   1.288  0.0136  1.1318  2.8208
 4160SOL    HW218444  10.970  10.719   1.270 -1.5328  0.1952 -0.0166
 4161SOL     OW18445   6.000   8.260   7.859  0.5174  0.1626 -0.0189
 4161SOL    HW118446   6.042   8.198   7.919  1.7372 -0.3634 -1.3432
 4161SOL    HW218447   6.013   8.222   7.773  1.3335  2.2718 -0.9006
 4162SOL     OW18448   1.895   6.512   2.471 -0.7365 -0.0145 -0.1886
 4162SOL    HW118449   1.838   6.525   2.395  1.0094  4.2822 -1.0867
 4162SOL    HW218450   1.969   6.462   2.438 -1.0976 -0.2662 -0.6288
 4163SOL     OW18451   6.228   3.809   0.687  0.4560  0.2194  0.3247
 4163SOL    HW118452   6.196   3.888   0.643  0.1521  0.0717  0.2811
 4163SOL    HW218453   6.218   3.739   0.623 -2.4087 -0.5167  1.4158
 4164SOL     OW18454   9.943  11.701   7.415  0.3994 -0.2909 -0.2430
 4164SOL    HW118455   9.914  11.690   7.506  1.3093 -1.3668 -0.0572
 4164SOL    HW218456  10.012  11.767   7.419 -0.1097  0.2540 -0.2850
 4165SOL     OW18457   2.601  11.095   2.205 -0.2580  0.9853  0.0913
 4165SOL    HW118458   2.584  11.027   2.270  0.3360  0.6352 -0.1192
 4165SOL    HW218459   2.574  11.056   2.122  1.8934  0.2503 -0.3247
 4166SOL     OW18460  12.362   4.566  12.082  0.1142 -0.4281 -0.1449
 4166SOL    HW118461  12.325   4.481  12.105 -1.8044 -0.5294 -3.1115
 4166SOL    HW218462  12.430   4.546  12.018  0.3708  0.2139 -0.0758
 4167SOL     OW18463  11.868  12.241   2.104 -0.2739  0.2487  0.1975
 4167SOL    HW118464  11.876  12.269   2.013 -0.1006 -2.6773 -0.7810
 4167SOL    HW218465  11.931  12.170   2.114  0.5605  1.2329  3.0059
 4168SOL     OW18466   9.141   2.581  10.655 -0.1065 -0.1674 -0.9173
 4168SOL    HW118467   9.181   2.535  10.582  2.0416  1.8051 -1.0802
 4168SOL    HW218468   9.170   2.533  10.733  0.5150 -0.2272 -1.1818
 4169SOL     OW18469   1.896   2.165  10.825 -0.1149  0.5406 -0.7465
 4169SOL    HW118470   1.954   2.120  10.887  0.2381 -1.2391 -2.2780
 4169SOL    HW218471   1.842   2.222  10.880  1.0993  0.0666  1.0347
 4170SOL     OW18472   3.926   8.126   6.853 -0.0322 -1.0007 -0.0570
 4170SOL    HW118473   3.992   8.153   6.788 -0.8404  0.2754 -0.3690
 4170SOL    HW218474   3.973   8.064   6.909  1.2517 -0.6250 -0.6653
 4171SOL     OW18475   8.271  11.703   4.191  0.2582 -0.0317 -0.2110
 4171SOL    HW118476   8.204  11.690   4.125 -0.6690 -1.2446  0.9042
 4171SOL    HW218477   8.224  11.702   4.274  1.5015  0.4505  0.5343
 4172SOL     OW18478   7.787   9.707   4.746  0.3087 -0.3769 -0.5054
 4172SOL    HW118479   7.794   9.620   4.707  1.3618 -0.2248 -0.6821
 4172SOL    HW218480   7.758   9.764   4.675  1.6972 -0.2013 -0.9637
 4173SOL     OW18481  10.450   3.715   3.448 -0.3661 -0.4382  0.6521
 4173SOL    HW118482  10.417   3.632   3.484 -1.9136  0.5845  1.7405
 4173SOL    HW218483  10.374   3.772   3.447  0.1683  0.3654 -2.1213
 4174SOL     OW18484   1.921   5.862   1.056 -0.0304 -0.2575 -0.3918
 4174SOL    HW118485   2.001   5.867   1.004 -0.2440  0.3470 -0.6729
 4174SOL    HW218486   1.951   5.858   1.147  0.3577 -1.5443 -0.5534
 4175SOL     OW18487  12.188   2.858   8.773  0.3033  0.2598 -0.2601
 4175SOL    HW118488  12.095   2.852   8.796  0.1204 -1.6354 -1.2724
 4175SOL    HW218489  12.189   2.911   8.693  0.0756  0.2631 -0.2615
 4176SOL     OW18490   2.549   6.916  11.460 -0.4730 -0.0569  0.1848
 4176SOL    HW118491   2.573   7.005  11.436  0.9559 -0.2071  0.9402
 4176SOL    HW218492   2.495   6.925  11.538  0.1136  0.1298  0.5737
 4177SOL     OW18493   0.356  12.061   2.773 -0.0159  0.4016  0.9239
 4177SOL    HW118494   0.273  12.105   2.787 -0.0830  0.4649  0.3376
 4177SOL    HW218495   0.370  12.010   2.853 -0.5872  0.4374  1.0502
 4178SOL     OW18496   2.677   6.496   6.352 -0.4677 -0.2459  0.0330
 4178SOL    HW118497   2.673   6.592   6.354 -0.1171 -0.1990 -0.9513
 4178SOL    HW218498   2.766   6.476   6.324 -0.0977 -0.9073  1.5528
 4179SOL     OW18499   2.209   4.201  11.625  0.3973 -0.4993  0.6626
 4179SOL    HW118500   2.124   4.243  11.614  1.6185  1.6992 -1.1728
 4179SOL    HW218501   2.259   4.261  11.679  0.9706 -1.5120  1.2867
 4180SOL     OW18502   0.327   1.328   6.709  0.3584 -0.0271 -0.1832
 4180SOL    HW118503   0.307   1.415   6.675  0.1694 -0.4907 -1.3323
 4180SOL    HW218504   0.242   1.285   6.717  0.5647 -0.8515 -1.8292
 4181SOL     OW18505   9.025   5.324  10.167 -0.0954 -0.2772 -0.1694
 4181SOL    HW118506   9.042   5.349  10.076 -1.0493 -0.9612 -0.5585
 4181SOL    HW218507   9.098   5.266  10.190 -0.6868 -1.4026 -1.0548
 4182SOL     OW18508   7.359  11.636  11.714  0.4355  0.1914  0.0251
 4182SOL    HW118509   7.369  11.581  11.636 -0.0020  0.9937 -0.6204
 4182SOL    HW218510   7.436  11.617  11.767  0.8353 -0.2369 -0.6921
 4183SOL     OW18511  12.010   2.591   3.349  0.3864  0.2813 -0.0482
 4183SOL    HW118512  12.026   2.557   3.437 -2.0696 -0.9707 -0.0228
 4183SOL    HW218513  11.988   2.683   3.363  0.2834  0.1605  0.6130
 4184SOL     OW18514  11.477  10.719   5.823  0.1283  0.4183 -0.1358
 4184SOL    HW118515  11.545  10.683   5.767 -0.6975 -0.4303 -0.6338
 4184SOL    HW218516  11.518  10.729   5.909  2.1160  3.9177 -1.3278
 4185SOL     OW18517   4.749   4.915  10.385  0.1322  0.5616  0.6103
 4185SOL    HW118518   4.773   4.836  10.433  1.3829  0.4603 -0.1421
 4185SOL    HW218519   4.751   4.985  10.450 -1.7395 -0.0927  1.4578
 4186SOL     OW18520   8.178   0.782   9.625  0.2641 -0.0035  0.0384
 4186SOL    HW118521   8.181   0.745   9.713 -0.6026 -2.2346 -0.8027
 4186SOL    HW218522   8.251   0.843   9.622  1.1630 -0.9145  1.8625
 4187SOL     OW18523   0.868   2.408   3.078  0.0152  0.4747 -0.3039
 4187SOL    HW118524   0.901   2.363   3.156  1.8353  1.6259 -0.3369
 4187SOL    HW218525   0.906   2.496   3.084 -1.2091  1.1248 -1.6243
 4188SOL     OW18526   5.872   9.982   9.609  0.1524 -0.3647  0.1636
 4188SOL    HW118527   5.854  10.004   9.701 -0.7462  0.1539 -0.1270
 4188SOL    HW218528   5.951  10.031   9.588  1.6754 -2.1597  1.2653
 4189SOL     OW18529   0.160  10.907  10.271 -0.7091 -0.2281 -1.2525
 4189SOL    HW118530   0.115  10.885  10.352  0.9763 -0.6575 -0.3961
 4189SOL    HW218531   0.156  11.002  10.266 -1.1824 -0.2249 -0.8913
 4190SOL     OW18532   6.402   8.854  12.026 -0.4712  0.1445 -0.0735
 4190SOL    HW118533   6.430   8.763  12.015  2.9158  1.1420 -0.7676
 4190SOL    HW218534   6.327   8.863  11.967 -0.8674 -2.1338 -0.0211
 4191SOL     OW18535   3.378   3.292   3.244  0.3608  0.2714  0.2335
 4191SOL    HW118536   3.391   3.208   3.200  1.7158  0.0359  1.0369
 4191SOL    HW218537   3.286   3.290   3.272  0.6031 -1.3621  1.0523
 4192SOL     OW18538   2.309   0.023   0.643  0.6789 -0.2640  0.2496
 4192SOL    HW118539   2.292   0.032   0.549 -0.2941 -2.4707  0.1582
 4192SOL    HW218540   2.225   0.043   0.685  1.5746  2.7082  0.8938
 4193SOL     OW18541   8.684   9.566   0.757 -0.3713 -0.2142 -0.2749
 4193SOL    HW118542   8.763   9.557   0.704 -0.5349  0.1370 -0.5797
 4193SOL    HW218543   8.692   9.652   0.798 -1.0884  0.2786 -1.1344
 4194SOL     OW18544  12.007  11.792  10.975  0.1832 -0.0001 -0.6022
 4194SOL    HW118545  11.929  11.736  10.967 -0.5148  0.7164  0.7675
 4194SOL    HW218546  12.079  11.738  10.942 -0.7192 -1.0995 -0.8380
 4195SOL     OW18547  12.032  10.033   9.726  0.0178 -0.0209 -0.0064
 4195SOL    HW118548  11.986  10.092   9.786 -0.6485  0.3990 -0.8900
 4195SOL    HW218549  12.118  10.020   9.765 -0.3367  0.3762  0.9377
 4196SOL     OW18550   9.522   6.888   4.664  0.1908  0.6178 -0.1779
 4196SOL    HW118551   9.438   6.846   4.688  1.0893 -1.6701 -0.7291
 4196SOL    HW218552   9.498   6.977   4.638 -2.0316  0.1268 -0.0277
 4197SOL     OW18553   4.244  11.318   4.603  0.0213  0.3158 -0.6965
 4197SOL    HW118554   4.276  11.293   4.516  0.0418 -1.1323 -0.3119
 4197SOL    HW218555   4.213  11.407   4.593 -2.6309 -0.7133 -2.9121
 4198SOL     OW18556   7.145   5.876   5.933  0.1646 -0.4992  0.0940
 4198SOL    HW118557   7.073   5.850   5.989  0.1629 -1.4037 -0.3008
 4198SOL    HW218558   7.133   5.970   5.918 -0.5343 -0.5117  0.5824
 4199SOL     OW18559   3.804   6.871   5.164  0.1378 -0.5751  0.0961
 4199SOL    HW118560   3.768   6.786   5.140 -1.3843 -0.3227  1.3444
 4199SOL    HW218561   3.897   6.854   5.182 -0.1784 -1.9967  0.5024
 4200SOL     OW18562   6.084   5.741  10.059 -0.5769  0.5633 -0.0189
 4200SOL    HW118563   6.121   5.681   9.994 -0.0571 -1.6837  2.2302
 4200SOL    HW218564   6.139   5.819  10.053  0.4718 -0.2253 -1.1667
 4201SOL     OW18565   6.556   5.726   5.394 -0.8786 -0.0655  0.0135
 4201SOL    HW118566   6.501   5.764   5.325 -0.5003  1.6441  0.6134
 4201SOL    HW218567   6.642   5.765   5.381  0.3244 -2.7855 -0.9680
 4202SOL     OW18568  11.354   2.765   2.467 -0.2068  0.3025 -0.3858
 4202SOL    HW118569  11.317   2.853   2.476  0.5244  0.5486  0.3511
 4202SOL    HW218570  11.292   2.718   2.412 -1.0144  1.0445 -0.1216
 4203SOL     OW18571   7.610  10.271   5.513  0.1507 -0.1114  0.0538
 4203SOL    HW118572   7.630  10.222   5.433  0.6800  1.6418 -0.9397
 4203SOL    HW218573   7.552  10.341   5.483  0.3072  0.5307  1.2266
 4204SOL     OW18574   7.609   1.139   3.944 -0.2233  0.2037 -0.0413
 4204SOL    HW118575   7.670   1.145   3.871 -0.6799 -1.0956 -0.5768
 4204SOL    HW218576   7.523   1.154   3.905 -0.7740 -3.0065 -0.3800
 4205SOL     OW18577   2.460   0.066   5.002 -0.5314  0.2827 -0.5096
 4205SOL    HW118578   2.392   0.028   4.946 -2.1183  2.5435 -0.2673
 4205SOL    HW218579   2.464   0.158   4.975 -1.6628  1.5953  3.2243
 4206SOL     OW18580  10.052   8.431   8.372 -0.3640 -0.3050 -0.4321
 4206SOL    HW118581   9.968   8.441   8.328  0.2876 -1.1515 -1.9347
 4206SOL    HW218582  10.033   8.448   8.464 -2.1313 -0.2692 -0.7732
 4207SOL     OW18583   3.174   0.954   9.125  0.1116 -0.4646 -0.5155
 4207SOL    HW118584   3.163   1.049   9.122 -0.3491 -0.4989 -0.0138
 4207SOL    HW218585   3.227   0.940   9.204  1.1137 -0.5435 -1.1886
 4208SOL     OW18586   5.914   1.245   8.023 -0.3761 -0.2181  0.4122
 4208SOL    HW118587   5.949   1.264   7.935 -1.1034  2.0362  0.5532
 4208SOL    HW218588   5.824   1.216   8.007 -0.5925  0.4400  0.4134
 4209SOL     OW18589  12.435   1.474   0.590 -0.3087 -0.1017 -0.5034
 4209SOL    HW118590  12.497   1.403   0.604 -0.2847 -0.0520 -0.3587
 4209SOL    HW218591  12.437   1.489   0.495  1.0201  0.8979 -0.3517
 4210SOL     OW18592   3.107   3.087   8.158 -0.0951  0.0780  0.4602
 4210SOL    HW118593   3.043   3.056   8.094  1.2519 -1.4253 -0.2260
 4210SOL    HW218594   3.187   3.100   8.108  0.4362  0.9162  1.4834
 4211SOL     OW18595   5.927   9.881  10.191 -0.6103  0.0902 -0.2802
 4211SOL    HW118596   5.897   9.902  10.103 -2.5872  0.3971  0.4212
 4211SOL    HW218597   5.915   9.786  10.199 -0.3544  0.0500 -0.3634
 4212SOL     OW18598   1.933   9.435   8.245 -0.0116 -0.1319  0.3530
 4212SOL    HW118599   1.949   9.344   8.220 -2.0610 -0.0107 -1.7367
 4212SOL    HW218600   1.944   9.436   8.341  2.3523 -1.9921  0.2121
 4213SOL     OW18601   6.606   1.264   4.768 -0.1337 -0.8448 -0.5375
 4213SOL    HW118602   6.520   1.290   4.733  1.2452  0.2066 -3.4709
 4213SOL    HW218603   6.604   1.168   4.766 -1.5152 -0.8739  0.3348
 4214SOL     OW18604  12.387   0.982   4.798 -0.2639 -1.0427 -0.0042
 4214SOL    HW118605  12.308   1.028   4.828 -0.2515 -0.0171 -1.4327
 4214SOL    HW218606  12.357   0.930   4.723  0.1652 -1.6508  0.2455
 4215SOL     OW18607   9.998  11.963   4.323 -0.1129 -0.3201 -0.1069
 4215SOL    HW118608   9.977  12.048   4.362  0.3813  0.2938 -1.1496
 4215SOL    HW218609  10.026  11.983   4.234  1.2110 -1.4634  0.0094
 4216SOL     OW18610  11.414  10.027   5.663 -0.8605 -0.7059  0.4278
 4216SOL    HW118611  11.395   9.981   5.744 -1.4558 -2.4292 -0.6418
 4216SOL    HW218612  11.478   9.971   5.618  0.8230  1.0963  0.4565
 4217SOL     OW18613  10.198   3.474   8.732  0.1758  0.1076  0.0204
 4217SOL    HW118614  10.191   3.481   8.637 -0.4398  0.1396  0.0618
 4217SOL    HW218615  10.234   3.387   8.748 -0.1432 -0.0718 -0.2307
 4218SOL     OW18616   0.427  10.914  11.486 -0.1725 -0.3759 -0.2468
 4218SOL    HW118617   0.462  10.836  11.443  1.8606  0.7460 -0.7425
 4218SOL    HW218618   0.389  10.966  11.416 -0.2046 -0.2468 -0.1356
 4219SOL     OW18619  11.358   3.544   7.567 -0.4251 -0.3185 -0.8051
 4219SOL    HW118620  11.380   3.608   7.635 -0.6883 -1.4898  0.4215
 4219SOL    HW218621  11.442   3.503   7.545 -0.1927  0.6695 -1.8715
 4220SOL     OW18622   0.266   2.396   1.142  0.4257 -0.3387  0.3075
 4220SOL    HW118623   0.320   2.451   1.085  0.0060 -0.3027 -0.0655
 4220SOL    HW218624   0.228   2.457   1.205 -0.7535 -0.0443 -0.6592
 4221SOL     OW18625   4.379   6.626   8.269  0.1446  0.9853 -0.2408
 4221SOL    HW118626   4.303   6.683   8.281  0.6324  1.6801 -0.4544
 4221SOL    HW218627   4.394   6.587   8.356 -1.2969 -0.2421 -0.4947
 4222SOL     OW18628   3.392  11.861   2.787  0.1763  0.2341  0.2663
 4222SOL    HW118629   3.481  11.828   2.776  0.3760  1.1195 -0.9670
 4222SOL    HW218630   3.345  11.827   2.711  0.3882  2.6551 -1.0486
 4223SOL     OW18631   4.316   5.288   9.574  0.0874  0.2165 -0.2025
 4223SOL    HW118632   4.384   5.221   9.568  0.5114  0.6200  0.0762
 4223SOL    HW218633   4.261   5.260   9.647 -0.0454 -0.1021 -0.4181
 4224SOL     OW18634   6.728   0.874  11.308 -0.0480  0.4098  0.1802
 4224SOL    HW118635   6.752   0.961  11.340 -0.0099 -0.6282  3.3546
 4224SOL    HW218636   6.802   0.847  11.254  1.2147  1.3247  1.3724
 4225SOL     OW18637   6.819   1.319  10.387 -0.0884  0.2095 -0.5784
 4225SOL    HW118638   6.905   1.283  10.365  0.3724  0.9401 -0.0105
 4225SOL    HW218639   6.833   1.369  10.467 -1.2603 -0.4985  0.1089
 4226SOL     OW18640   9.317   8.785   2.040 -0.4976 -0.2405  0.1204
 4226SOL    HW118641   9.314   8.817   1.950  0.8127  1.5054  0.6399
 4226SOL    HW218642   9.273   8.853   2.091 -1.4346 -1.3206  0.7960
 4227SOL     OW18643  11.047  10.511   5.782 -0.5180 -0.3031  0.2773
 4227SOL    HW118644  11.130  10.550   5.756 -0.5547  0.1081  0.7605
 4227SOL    HW218645  11.064  10.473   5.868 -0.4337 -1.5267 -0.2612
 4228SOL     OW18646  10.441  11.569   4.332  0.1227  0.4819 -0.1631
 4228SOL    HW118647  10.457  11.475   4.323 -0.8381  0.2049  0.7937
 4228SOL    HW218648  10.383  11.591   4.260  0.9257  0.5026 -0.8153
 4229SOL     OW18649   6.850   6.017  12.243  0.0231  0.0952 -0.3741
 4229SOL    HW118650   6.920   6.007  12.179  1.3816 -2.6416  1.3273
 4229SOL    HW218651   6.882   6.086  12.302  0.9238 -0.5330 -0.1036
 4230SOL     OW18652   8.750   7.153   4.473 -0.5848 -0.2383 -0.4782
 4230SOL    HW118653   8.761   7.196   4.558 -0.4433 -0.3486 -0.4408
 4230SOL    HW218654   8.709   7.069   4.494 -1.2006  0.0288 -0.5848
 4231SOL     OW18655   7.514  10.899   0.310  0.1788 -0.4670 -0.3714
 4231SOL    HW118656   7.574  10.966   0.344  0.4938 -0.2750 -1.2878
 4231SOL    HW218657   7.561  10.817   0.324 -0.0027 -0.4604  0.3138
 4232SOL     OW18658  12.424   4.782   0.616  0.0197  0.1668 -0.4756
 4232SOL    HW118659  12.467   4.866   0.598 -0.2627  0.7691  1.4443
 4232SOL    HW218660  12.423   4.737   0.531  3.3771  0.6089 -0.8880
 4233SOL     OW18661   2.902  10.660   5.146 -0.7439 -0.7391  0.1240
 4233SOL    HW118662   2.930  10.631   5.059  0.4226  1.6896 -0.4011
 4233SOL    HW218663   2.931  10.590   5.205 -0.5973 -1.9330 -1.3025
 4234SOL     OW18664   3.407   5.696  10.548  0.6962  0.1431  0.3893
 4234SOL    HW118665   3.346   5.755  10.503  0.4534 -0.6825 -0.4173
 4234SOL    HW218666   3.427   5.740  10.630 -2.8350 -0.5226  1.8256
 4235SOL     OW18667   1.231  10.413   1.524  0.0532 -0.4762 -0.3576
 4235SOL    HW118668   1.284  10.459   1.459 -1.4903  1.1835 -0.5158
 4235SOL    HW218669   1.249  10.320   1.509  2.3087 -0.0133 -0.8745
 4236SOL     OW18670  12.417   3.591  10.644  0.3701  0.1213  0.5273
 4236SOL    HW118671  12.416   3.643  10.564 -2.6549 -1.0886 -0.3657
 4236SOL    HW218672  12.491   3.625  10.695  1.6950  1.6688 -2.2573
 4237SOL     OW18673   2.101  12.164   5.505  0.3668 -0.1544  0.1682
 4237SOL    HW118674   2.085  12.108   5.429 -0.5379  0.5524 -0.1803
 4237SOL    HW218675   2.132  12.247   5.467 -3.1663  1.3819  0.2434
 4238SOL     OW18676   7.034   4.710   1.146  0.0397  0.3166  0.5848
 4238SOL    HW118677   7.021   4.798   1.180  1.0681  1.6273 -2.0936
 4238SOL    HW218678   7.071   4.661   1.219  0.8691  2.5368  1.7379
 4239SOL     OW18679   5.057  10.081   5.271  0.8003 -0.0177  0.1568
 4239SOL    HW118680   5.067  10.084   5.176 -3.2744  0.4004 -0.4633
 4239SOL    HW218681   5.087   9.993   5.296  1.4369 -0.3182 -1.5788
 4240SOL     OW18682  11.344   5.923   9.580  0.4101  0.1389  0.1357
 4240SOL    HW118683  11.393   6.003   9.566 -2.8802  2.1814 -0.9531
 4240SOL    HW218684  11.310   5.900   9.493  0.0173 -1.5498  0.6928
 4241SOL     OW18685   3.137   1.330   3.288 -0.2477  0.0474  0.0328
 4241SOL    HW118686   3.184   1.269   3.345 -1.4876 -0.7426  0.2533
 4241SOL    HW218687   3.060   1.355   3.339  0.1773  1.7215 -0.1124
 4242SOL     OW18688  12.210   1.104   7.611  0.9646  0.1302 -0.1878
 4242SOL    HW118689  12.142   1.036   7.615  0.4576  0.6035 -0.5562
 4242SOL    HW218690  12.234   1.118   7.703  0.9629 -0.4293 -0.0952
 4243SOL     OW18691   1.209   5.671   8.588 -0.5712 -0.5558 -0.4382
 4243SOL    HW118692   1.228   5.595   8.644 -1.4780 -0.9162 -0.5984
 4243SOL    HW218693   1.190   5.632   8.502 -2.7097 -0.3054 -0.1231
 4244SOL     OW18694   8.013   2.331   8.845  0.0446  0.1608 -0.5618
 4244SOL    HW118695   8.012   2.313   8.751 -1.0157  0.8836 -0.7054
 4244SOL    HW218696   7.947   2.272   8.882  0.8328 -0.5014 -0.1852
 4245SOL     OW18697   6.937   6.535   7.956  0.6783  0.4446  0.1777
 4245SOL    HW118698   6.977   6.452   7.930 -1.2009 -0.5658  0.3675
 4245SOL    HW218699   6.872   6.511   8.021 -0.2484  2.0221 -0.1153
 4246SOL     OW18700   8.610   3.462   0.463 -0.1239  0.0201  0.3651
 4246SOL    HW118701   8.603   3.387   0.522 -0.8379  0.2618  0.5979
 4246SOL    HW218702   8.582   3.537   0.516  0.8774  0.5059  0.2295
 4247SOL     OW18703   7.365   8.405   0.031 -0.3434 -0.0612  0.5088
 4247SOL    HW118704   7.448   8.451   0.039 -1.8478  2.4849  3.3197
 4247SOL    HW218705   7.388   8.312   0.041  2.3625  0.2794 -1.4268
 4248SOL     OW18706  10.405  10.605   9.949  0.0222  0.1148  0.1872
 4248SOL    HW118707  10.404  10.582   9.856  1.2700  1.7173 -0.2673
 4248SOL    HW218708  10.448  10.531   9.991  0.3527 -0.1911 -0.6661
 4249SOL     OW18709   3.761   7.182   3.393 -0.1630 -0.3720 -0.0569
 4249SOL    HW118710   3.693   7.240   3.358  0.9600  1.1144  0.1211
 4249SOL    HW218711   3.758   7.105   3.336 -1.5290 -0.0476 -0.4679
 4250SOL     OW18712  10.836   2.733   4.118  0.1629  0.6603  0.3096
 4250SOL    HW118713  10.856   2.753   4.210  0.6545  2.4742 -0.1602
 4250SOL    HW218714  10.791   2.648   4.122  0.1159  0.7178  2.2221
 4251SOL     OW18715   3.835   3.332   0.456 -0.1416  0.1834  0.0510
 4251SOL    HW118716   3.885   3.259   0.420 -0.1074  1.1029 -1.9089
 4251SOL    HW218717   3.747   3.321   0.420  0.2558  1.9149 -1.6210
 4252SOL     OW18718   2.735   0.062   1.012  0.3366  0.1725  0.2039
 4252SOL    HW118719   2.672   0.134   1.003 -0.1407 -0.3638 -0.8664
 4252SOL    HW218720   2.820   0.106   1.018  0.3478  0.8334 -3.0017
 4253SOL     OW18721   3.450   1.549   4.346 -0.2691 -0.1243 -0.4395
 4253SOL    HW118722   3.494   1.490   4.284 -3.6536 -0.7223 -2.5548
 4253SOL    HW218723   3.416   1.491   4.414  1.9815  0.3384  1.2035
 4254SOL     OW18724  10.320   6.579   9.740 -0.4136 -0.5781 -0.0890
 4254SOL    HW118725  10.355   6.500   9.779  0.5777 -0.4738 -0.7290
 4254SOL    HW218726  10.229   6.558   9.720 -0.1864 -1.5246 -0.1725
 4255SOL     OW18727  10.859   8.942   5.260  0.3360 -0.4608  0.1739
 4255SOL    HW118728  10.934   8.910   5.309  0.4886 -1.0306 -0.4190
 4255SOL    HW218729  10.876   9.036   5.248  0.3857 -0.3524  1.0304
 4256SOL     OW18730   2.280   3.631   9.438  0.1078  0.1217  0.1823
 4256SOL    HW118731   2.256   3.648   9.529 -0.2946 -0.9180  0.2765
 4256SOL    HW218732   2.217   3.680   9.387  0.2598  0.6123  0.4588
 4257SOL     OW18733  10.551   5.730   4.928  0.1163 -0.0333 -0.4848
 4257SOL    HW118734  10.631   5.721   4.981  0.4635 -0.9748 -1.1341
 4257SOL    HW218735  10.490   5.666   4.966  0.5459 -1.0950 -1.4974
 4258SOL     OW18736   0.819   6.007   9.648  0.5732 -0.2616 -0.3539
 4258SOL    HW118737   0.741   6.051   9.615  0.4179 -1.2858 -1.4333
 4258SOL    HW218738   0.878   6.078   9.672 -0.7416  0.5361  0.6800
 4259SOL     OW18739   3.743  12.287   3.796 -0.2089  0.0137  0.1093
 4259SOL    HW118740   3.783  12.333   3.870 -0.5315 -0.5277  0.6310
 4259SOL    HW218741   3.777  12.197   3.802 -0.5542 -0.1381 -0.1597
 4260SOL     OW18742   4.397   6.553   3.078  0.2453 -0.4556 -0.3602
 4260SOL    HW118743   4.367   6.632   3.032  1.5585 -0.5330 -1.4148
 4260SOL    HW218744   4.320   6.496   3.081 -0.3993  0.3814 -0.6619
 4261SOL     OW18745  12.342  11.223   2.374  0.3573 -0.5043 -0.0295
 4261SOL    HW118746  12.434  11.222   2.400  0.3183  1.5026  0.2796
 4261SOL    HW218747  12.295  11.193   2.453  0.6636 -0.4418  0.1781
 4262SOL     OW18748   5.243  10.929  11.953  0.0455 -0.1966  0.0885
 4262SOL    HW118749   5.149  10.929  11.933 -0.1325 -0.9183  0.8651
 4262SOL    HW218750   5.265  11.022  11.961 -0.4036  0.0140 -0.9408
 4263SOL     OW18751   2.640   7.413   2.079 -0.2187  0.6542 -0.0920
 4263SOL    HW118752   2.696   7.386   2.006 -0.0082 -1.0258  0.6468
 4263SOL    HW218753   2.642   7.339   2.140 -2.0203  1.1705  0.6701
 4264SOL     OW18754   5.396   7.370   7.162  0.1851 -0.5578  0.2710
 4264SOL    HW118755   5.319   7.412   7.200  0.3037  1.4518 -1.4652
 4264SOL    HW218756   5.373   7.278   7.156 -1.1815 -0.3545  1.8569
 4265SOL     OW18757   5.306   9.047   3.966 -0.1163 -0.2430 -0.1708
 4265SOL    HW118758   5.256   9.075   3.889  0.0318 -1.7355 -0.8441
 4265SOL    HW218759   5.285   8.954   3.975  0.1911 -0.1766  1.3569
 4266SOL     OW18760  10.457   2.947   1.169 -0.2013 -0.3249 -0.4704
 4266SOL    HW118761  10.395   3.019   1.177  1.2467  0.8982  0.4264
 4266SOL    HW218762  10.533   2.987   1.126  1.0440 -0.9982  0.9972
 4267SOL     OW18763  12.434   1.288   8.828  0.0157  0.2545  0.1404
 4267SOL    HW118764  12.385   1.209   8.851  1.4765 -0.5711  0.5239
 4267SOL    HW218765  12.390   1.322   8.750 -0.9539 -0.6359  0.2857
 4268SOL     OW18766   2.442   3.764   1.092  0.6808 -0.0329  0.8415
 4268SOL    HW118767   2.447   3.675   1.058 -1.5954  0.8053 -2.1144
 4268SOL    HW218768   2.478   3.819   1.022  0.2133  1.5008  1.7457
 4269SOL     OW18769   4.919   7.177  12.280  0.7660  0.3440  0.3111
 4269SOL    HW118770   4.912   7.084  12.259  0.4303  0.1214  1.3380
 4269SOL    HW218771   4.988   7.210  12.222 -0.5929 -0.0478 -1.6190
 4270SOL     OW18772   2.916   2.296   8.223  0.3988 -0.4149  0.7205
 4270SOL    HW118773   2.926   2.222   8.163 -1.5616 -2.0500  2.2343
 4270SOL    HW218774   2.958   2.268   8.303  2.0871  1.3246  0.5061
 4271SOL     OW18775   8.788   6.940   7.045  0.2246  0.2252 -0.5317
 4271SOL    HW118776   8.823   6.943   6.956  2.8763  2.5930  0.4234
 4271SOL    HW218777   8.865   6.947   7.101 -1.3316 -1.5636  2.0200
 4272SOL     OW18778   3.385   2.730   6.819 -0.0177 -0.4677  0.4232
 4272SOL    HW118779   3.396   2.651   6.766  0.3652 -0.8458  1.0598
 4272SOL    HW218780   3.419   2.801   6.763 -1.6952 -0.5185 -0.7408
 4273SOL     OW18781   8.237   3.539   1.801 -0.2040  0.0503  0.3400
 4273SOL    HW118782   8.290   3.543   1.881 -1.5621 -0.1229  1.2716
 4273SOL    HW218783   8.168   3.604   1.814  0.2317  0.8825 -1.2268
 4274SOL     OW18784   3.208  12.211   0.009 -0.7705 -0.1842  0.1172
 4274SOL    HW118785   3.129  12.232  -0.041 -1.0840  0.0383  0.7072
 4274SOL    HW218786   3.210  12.276   0.080 -1.1010 -1.3809  1.2470
 4275SOL     OW18787   0.656   4.720   6.329 -0.2331 -0.0904 -0.1234
 4275SOL    HW118788   0.562   4.737   6.339 -0.8818 -1.9521 -2.2892
 4275SOL    HW218789   0.678   4.759   6.245  1.0509  0.6155  0.5171
 4276SOL     OW18790   3.115  12.272   9.400 -0.9144 -0.3776 -0.1554
 4276SOL    HW118791   3.030  12.300   9.366 -1.8974 -0.3785  2.1439
 4276SOL    HW218792   3.145  12.344   9.455  0.0471 -0.8423 -0.0404
 4277SOL     OW18793   5.696   2.686   1.339  0.4987  0.5326  0.2413
 4277SOL    HW118794   5.728   2.703   1.428 -0.0304 -1.8613  0.9511
 4277SOL    HW218795   5.616   2.738   1.332  1.0348  1.4637  0.8076
 4278SOL     OW18796   5.864   4.455  10.227 -0.1349 -0.1574  0.0692
 4278SOL    HW118797   5.777   4.423  10.252 -0.6612  0.3499 -1.0661
 4278SOL    HW218798   5.864   4.548  10.250 -0.2068  0.0414 -0.7054
 4279SOL     OW18799  11.932   1.045   6.884  0.1696 -0.2424  0.8242
 4279SOL    HW118800  11.943   0.958   6.921 -0.2318 -0.6047  0.1119
 4279SOL    HW218801  11.848   1.075   6.918 -2.1821 -2.1264 -2.6446
 4280SOL     OW18802  10.484   1.597   6.743 -0.4921  0.3147  0.0455
 4280SOL    HW118803  10.530   1.520   6.711 -1.1555 -0.2750  0.4911
 4280SOL    HW218804  10.404   1.563   6.782 -0.5823  1.1848  0.6524
 4281SOL     OW18805   2.514   7.895   8.009 -0.4787  0.4217 -0.6663
 4281SOL    HW118806   2.445   7.842   8.050 -2.6566  2.5074 -1.4071
 4281SOL    HW218807   2.506   7.878   7.916  0.5599  0.1229 -0.7156
 4282SOL     OW18808   2.565   0.423   8.377 -0.6315  0.4887  0.0418
 4282SOL    HW118809   2.602   0.370   8.447  0.6028  0.5042 -0.5678
 4282SOL    HW218810   2.567   0.512   8.410 -1.3741  0.3312  0.5214
 4283SOL     OW18811   7.432   1.884   9.633  0.0512 -0.8428  0.0833
 4283SOL    HW118812   7.480   1.801   9.632  2.3274  0.3901  0.2524
 4283SOL    HW218813   7.501   1.951   9.635 -1.7180  1.0494  0.2473
 4284SOL     OW18814   6.859   6.900   9.744  0.0963  0.5264  0.1181
 4284SOL    HW118815   6.841   6.806   9.751 -1.5226  0.6498 -1.5101
 4284SOL    HW218816   6.903   6.910   9.659  2.9276  0.9573  1.5323
 4285SOL     OW18817   4.072   4.700   0.861 -0.0891  0.2441 -0.0436
 4285SOL    HW118818   4.153   4.712   0.910  0.0161 -2.4248  0.5762
 4285SOL    HW218819   4.099   4.697   0.770  0.5170 -0.3639  0.1428
 4286SOL     OW18820   0.396   1.945   8.926 -0.2074 -0.5874 -0.5335
 4286SOL    HW118821   0.441   1.874   8.971  0.3408  0.5981  0.8523
 4286SOL    HW218822   0.303   1.924   8.934 -0.0417 -1.3071 -0.4403
 4287SOL     OW18823   4.378   6.583  12.494 -0.3404 -0.8939  0.7736
 4287SOL    HW118824   4.392   6.541  12.578 -1.0469  0.3220  1.5256
 4287SOL    HW218825   4.284   6.597  12.489 -0.6436 -2.9543 -1.2425
 4288SOL     OW18826   4.367   0.006  11.030  0.3048 -0.3584 -0.4107
 4288SOL    HW118827   4.340   0.004  11.122  0.4965 -1.0101 -0.3621
 4288SOL    HW218828   4.285   0.005  10.981  0.2007  0.0157 -0.2468
 4289SOL     OW18829   2.136   8.631   7.745 -0.2605 -0.7738 -0.0173
 4289SOL    HW118830   2.154   8.718   7.781  1.6490 -1.9393  2.0722
 4289SOL    HW218831   2.047   8.611   7.774  0.1026 -0.3927  1.4064
 4290SOL     OW18832   4.380   4.140   3.373  0.0957  0.1839  0.5842
 4290SOL    HW118833   4.451   4.190   3.333 -1.2450  1.0983 -0.7047
 4290SOL    HW218834   4.313   4.204   3.393 -1.4252 -0.9728 -0.5816
 4291SOL     OW18835   4.504  12.370   4.842 -0.4175  0.1772  0.2838
 4291SOL    HW118836   4.553  12.391   4.763  0.7033 -0.9696  0.6467
 4291SOL    HW218837   4.527  12.439   4.904 -1.0588  0.9045 -0.2649
 4292SOL     OW18838   3.293   0.552   9.340  0.2118 -0.6077 -0.2287
 4292SOL    HW118839   3.345   0.568   9.262 -2.1768 -1.4658 -2.1176
 4292SOL    HW218840   3.257   0.638   9.363  1.1075 -0.3130  0.0947
 4293SOL     OW18841   7.099   6.587   9.859  0.3755  0.1369  0.0284
 4293SOL    HW118842   7.066   6.610   9.946 -0.8879  0.4138 -0.5046
 4293SOL    HW218843   7.162   6.657   9.838 -0.0227  0.5932  0.3317
 4294SOL     OW18844   9.707   7.818  11.613  0.4954  0.1399  0.3715
 4294SOL    HW118845   9.790   7.859  11.635  0.3729 -0.4371  2.0234
 4294SOL    HW218846   9.657   7.818  11.695 -0.8733 -0.1188 -0.4258
 4295SOL     OW18847   5.523   3.795   9.976  0.1100 -0.0213  0.6870
 4295SOL    HW118848   5.542   3.765  10.065  1.4096  2.2301  1.2452
 4295SOL    HW218849   5.609   3.808   9.936 -0.3864  1.5919  0.0694
 4296SOL     OW18850  10.667   8.330   5.236 -0.0707 -0.6373 -0.5165
 4296SOL    HW118851  10.740   8.288   5.191  0.7487 -0.2153  0.3641
 4296SOL    HW218852  10.621   8.379   5.168  0.0404 -1.4820 -1.2113
 4297SOL     OW18853   3.615  10.892   0.808  0.2377  0.4433 -0.1931
 4297SOL    HW118854   3.710  10.880   0.813  0.3200  1.2215  0.2300
 4297SOL    HW218855   3.580  10.826   0.868  0.7495  2.9618  3.1463
 4298SOL     OW18856   6.770   1.662   4.274  0.3284  0.0469 -0.1817
 4298SOL    HW118857   6.709   1.612   4.328 -0.2278  1.5648  0.6546
 4298SOL    HW218858   6.857   1.628   4.297 -0.1026 -1.8271 -1.0596
 4299SOL     OW18859   9.046  11.957   1.963  0.1043  0.0476  0.8002
 4299SOL    HW118860   9.095  11.875   1.971  2.6664  0.7396 -4.0528
 4299SOL    HW218861   9.113  12.026   1.971 -1.1252  1.3883  0.0154
 4300SOL     OW18862   3.082   2.864   4.591  0.1106  0.2788 -0.4396
 4300SOL    HW118863   3.031   2.813   4.528  0.8264  0.8323 -1.4917
 4300SOL    HW218864   3.153   2.805   4.617  0.6900  0.5725 -1.3253
 4301SOL     OW18865   5.187   9.368   6.420 -0.3611 -0.0663  0.0887
 4301SOL    HW118866   5.135   9.309   6.365 -1.7386  2.1517 -1.1403
 4301SOL    HW218867   5.150   9.455   6.403  2.6416  1.4167  0.5041
 4302SOL     OW18868   7.462   4.963   6.154 -0.0186 -0.1998  0.3850
 4302SOL    HW118869   7.467   4.979   6.060 -0.4782 -0.7597  0.2583
 4302SOL    HW218870   7.523   5.025   6.193 -1.0192  1.1803 -0.1500
 4303SOL     OW18871   2.643   8.366   4.400 -0.1211  0.0049  0.0804
 4303SOL    HW118872   2.713   8.327   4.348 -0.0934 -0.6077  0.5751
 4303SOL    HW218873   2.613   8.296   4.458  0.4997  0.9256  1.5778
 4304SOL     OW18874   6.372   3.891   4.329 -0.4973  0.3365  0.0976
 4304SOL    HW118875   6.412   3.852   4.251  1.8293  0.0028  1.3810
 4304SOL    HW218876   6.442   3.941   4.370 -0.7687 -1.7831  3.5054
 4305SOL     OW18877   3.177   1.273   7.215 -0.2186  0.2821  0.1470
 4305SOL    HW118878   3.084   1.264   7.193  0.3627 -0.8398 -2.2283
 4305SOL    HW218879   3.218   1.301   7.133  1.3206  2.7272  1.6545
 4306SOL     OW18880   9.349   4.295   8.721  0.1784  0.2103 -0.4062
 4306SOL    HW118881   9.440   4.279   8.747 -0.1121 -1.5444 -0.3184
 4306SOL    HW218882   9.311   4.343   8.795  1.0021  0.8619 -0.3998
 4307SOL     OW18883   8.925   8.713   9.523 -0.4638  0.0541  0.2231
 4307SOL    HW118884   8.934   8.660   9.602  1.0588  1.7164  1.2738
 4307SOL    HW218885   8.856   8.776   9.545  1.7518  2.2568  1.4227
 4308SOL     OW18886   9.832  10.959   4.127 -0.2103 -0.3016  0.0961
 4308SOL    HW118887   9.806  10.871   4.101  0.6005 -0.9456  1.3663
 4308SOL    HW218888   9.752  10.998   4.163 -0.5394 -0.5365 -0.3650
 4309SOL     OW18889  10.763   5.398   9.794  0.1401  0.2656 -0.4923
 4309SOL    HW118890  10.808   5.327   9.749 -0.0580 -0.8574  0.9932
 4309SOL    HW218891  10.792   5.477   9.750  3.5247 -0.3898  0.3301
 4310SOL     OW18892   7.545   1.314   7.308  0.5150  0.5911 -0.6247
 4310SOL    HW118893   7.581   1.388   7.260  0.8124  0.1816 -1.0526
 4310SOL    HW218894   7.460   1.344   7.340  1.2832  1.6125  0.4986
 4311SOL     OW18895   2.038   2.663   4.795 -0.1354  0.3391  0.6359
 4311SOL    HW118896   2.070   2.699   4.712 -0.1193 -0.9544  0.0407
 4311SOL    HW218897   2.112   2.671   4.855  0.1933  0.3791  0.2326
 4312SOL     OW18898   9.410   4.096   4.454  0.0566  0.4629 -0.1913
 4312SOL    HW118899   9.463   4.018   4.470 -0.3659  0.1770 -0.1653
 4312SOL    HW218900   9.383   4.124   4.542 -0.6461  0.0287 -0.2543
 4313SOL     OW18901   6.191   4.702  12.390 -0.1499 -0.3308 -0.5720
 4313SOL    HW118902   6.244   4.781  12.384 -0.8228  0.0607 -1.4982
 4313SOL    HW218903   6.131   4.718  12.463 -1.1625  0.5778 -1.5624
 4314SOL     OW18904   1.606   4.703   5.859  0.5599 -0.4319  0.1115
 4314SOL    HW118905   1.642   4.684   5.772 -0.0909  4.9175 -1.6717
 4314SOL    HW218906   1.541   4.634   5.873 -0.9909 -0.3876 -4.8502
 4315SOL     OW18907   8.058  10.786   3.609  0.1122  0.0084 -0.7148
 4315SOL    HW118908   7.964  10.795   3.624  0.4995  1.4777  1.1054
 4315SOL    HW218909   8.094  10.873   3.625  1.7096 -0.3016 -2.2400
 4316SOL     OW18910   6.236   0.640   4.723 -0.1305 -0.3872  0.5240
 4316SOL    HW118911   6.213   0.572   4.786 -0.3885 -0.3174  0.5073
 4316SOL    HW218912   6.155   0.688   4.710 -1.0162 -2.4354 -2.4071
 4317SOL     OW18913   7.307   9.131   5.723  0.5980 -0.1726 -0.2128
 4317SOL    HW118914   7.267   9.050   5.688  0.5842  0.3865 -1.5609
 4317SOL    HW218915   7.317   9.187   5.646 -0.4698  1.5816  0.8646
 4318SOL     OW18916   2.003   7.666   3.820  0.4711  0.3378  0.5141
 4318SOL    HW118917   1.943   7.641   3.891 -0.1646  1.0900  0.2518
 4318SOL    HW218918   2.027   7.583   3.779  1.1814 -0.1507  1.8672
 4319SOL     OW18919   7.384   7.850   6.428  0.1907  0.5876 -0.3128
 4319SOL    HW118920   7.424   7.928   6.390 -1.7899  0.6103 -2.6884
 4319SOL    HW218921   7.294   7.876   6.447 -0.3693 -0.9512 -0.6710
 4320SOL     OW18922   2.435  11.834   8.052  0.2017 -0.1656  0.3823
 4320SOL    HW118923   2.508  11.780   8.082  0.8079  0.8809  0.8285
 4320SOL    HW218924   2.360  11.774   8.050  0.6689 -0.8144  1.6981
 4321SOL     OW18925   9.452   6.272   1.622  0.3294 -0.7651 -0.2611
 4321SOL    HW118926   9.522   6.208   1.638  2.5413  1.5237 -0.2607
 4321SOL    HW218927   9.447   6.323   1.703  0.0551  0.3670 -0.9791
 4322SOL     OW18928   8.250   0.479   7.565  0.7523  0.2246 -0.8261
 4322SOL    HW118929   8.310   0.405   7.558  1.1850  0.3738  0.8845
 4322SOL    HW218930   8.297   0.542   7.620 -1.3618 -0.0765  1.4616
 4323SOL     OW18931   1.092  11.560   8.719  0.0535 -0.0553  0.0274
 4323SOL    HW118932   1.097  11.524   8.630 -1.7016  0.2739 -0.2361
 4323SOL    HW218933   1.033  11.635   8.711  0.5503  0.5032  1.3228
 4324SOL     OW18934   2.147   6.895   8.425  0.2746  0.1805 -0.4204
 4324SOL    HW118935   2.080   6.829   8.442  0.3347  0.3239  0.4153
 4324SOL    HW218936   2.217   6.846   8.381 -0.8782  0.2794 -2.5086
 4325SOL     OW18937   2.090   8.999   7.755 -0.3384 -0.1659  0.1763
 4325SOL    HW118938   2.075   8.956   7.840  0.2270  1.0648  0.9257
 4325SOL    HW218939   2.064   9.090   7.769 -0.0057  0.1109 -0.9038
 4326SOL     OW18940   9.479   2.236  12.231 -0.4064  1.0553  0.3692
 4326SOL    HW118941   9.568   2.261  12.205 -0.7943  1.9383 -0.1603
 4326SOL    HW218942   9.462   2.154  12.185  0.8065 -0.1463  1.9473
 4327SOL     OW18943   1.512   2.962   9.589  0.0568  0.2498 -0.5480
 4327SOL    HW118944   1.420   2.967   9.561 -0.4042  0.3522  0.9126
 4327SOL    HW218945   1.555   2.915   9.518 -0.9647  0.8752 -1.6296
 4328SOL     OW18946   0.582   6.599  10.321  0.3233  0.2505  0.3443
 4328SOL    HW118947   0.671   6.605  10.356  1.1461  0.2705 -1.6402
 4328SOL    HW218948   0.550   6.689  10.321  0.3711  0.2690  0.8927
 4329SOL     OW18949   2.211   5.263   3.411  0.1986  0.3313  0.1126
 4329SOL    HW118950   2.262   5.234   3.335  0.3844  0.6858  0.1001
 4329SOL    HW218951   2.137   5.202   3.414  1.3751 -1.1138  1.0106
 4330SOL     OW18952  10.604   3.340  11.126 -0.0927  0.2535  0.1608
 4330SOL    HW118953  10.693   3.307  11.118  0.0489  0.2423  1.6288
 4330SOL    HW218954  10.576   3.316  11.214 -1.5322  0.3183 -0.2439
 4331SOL     OW18955   5.453   8.727   3.189 -0.1077 -0.1348  0.2140
 4331SOL    HW118956   5.535   8.699   3.149 -0.2917  0.5466 -0.6729
 4331SOL    HW218957   5.477   8.800   3.245 -0.1471  0.2752 -0.2967
 4332SOL     OW18958  10.529   5.893  10.091  0.7251  0.0899  0.4820
 4332SOL    HW118959  10.450   5.839  10.090 -0.1343  1.2986 -1.7315
 4332SOL    HW218960  10.532   5.930  10.179 -1.2302  0.0898  0.5738
 4333SOL     OW18961   7.080   4.821  11.554  0.2135  0.0131  0.0272
 4333SOL    HW118962   7.094   4.911  11.524  0.3685 -0.3503 -1.0247
 4333SOL    HW218963   7.102   4.767  11.478  2.6388 -1.0644  1.4170
 4334SOL     OW18964   5.440  10.658   2.510 -0.0492  0.1276  0.1667
 4334SOL    HW118965   5.493  10.589   2.548 -2.0538 -1.5402  0.1224
 4334SOL    HW218966   5.373  10.676   2.577  1.1082  2.9616  0.7071
 4335SOL     OW18967  12.128   4.822   7.120 -0.1134  0.5006  0.0863
 4335SOL    HW118968  12.099   4.749   7.175 -0.1098  1.0033  0.7705
 4335SOL    HW218969  12.144   4.893   7.182  0.6564  0.8409 -0.4936
 4336SOL     OW18970   9.818   8.492   6.988 -0.0427 -0.1389 -0.0227
 4336SOL    HW118971   9.905   8.524   6.961 -0.3922 -0.8771 -2.2083
 4336SOL    HW218972   9.833   8.453   7.074  1.4782  1.0690  0.3085
 4337SOL     OW18973   5.280   9.977   9.101 -0.2231  0.0515  0.0139
 4337SOL    HW118974   5.326  10.019   9.174  0.2687 -0.4075 -0.0260
 4337SOL    HW218975   5.340   9.910   9.070  0.3568  1.4091 -2.0106
 4338SOL     OW18976   3.756   7.787   0.868  0.0648  0.2637 -0.4210
 4338SOL    HW118977   3.673   7.798   0.822 -1.4882 -1.0569  1.8797
 4338SOL    HW218978   3.741   7.714   0.927  2.9676 -0.1509 -0.0465
 4339SOL     OW18979   4.723   0.685   0.202  0.1059 -0.6185 -0.2223
 4339SOL    HW118980   4.667   0.614   0.234 -3.4144  2.0241  0.1419
 4339SOL    HW218981   4.717   0.679   0.107  1.2726 -1.7389 -0.2589
 4340SOL     OW18982   0.868   5.361   1.565  0.0593 -0.1228  0.6002
 4340SOL    HW118983   0.894   5.448   1.536 -2.3767 -0.0440 -1.7769
 4340SOL    HW218984   0.913   5.301   1.504 -0.3905 -0.3385  0.4748
 4341SOL     OW18985  11.452  10.348   2.240 -0.4607 -0.4387  0.5145
 4341SOL    HW118986  11.393  10.314   2.307 -0.6305 -1.5550 -0.1831
 4341SOL    HW218987  11.423  10.438   2.225 -2.5196 -1.1878 -0.3885
 4342SOL     OW18988   4.606   2.745   9.629 -0.0196 -0.3727  0.2603
 4342SOL    HW118989   4.574   2.815   9.686 -0.5075  0.2142 -0.7296
 4342SOL    HW218990   4.656   2.789   9.561 -1.3341 -0.8498 -1.0695
 4343SOL     OW18991  10.777   1.742   5.728  0.3237 -0.0166 -0.1378
 4343SOL    HW118992  10.845   1.675   5.720  1.1546  0.9713 -1.7126
 4343SOL    HW218993  10.778   1.766   5.821  2.0216 -0.1532 -0.0950
 4344SOL     OW18994   2.166   6.635   7.272 -0.3545  0.1953  0.0572
 4344SOL    HW118995   2.103   6.702   7.244  1.7064  2.3534  0.2870
 4344SOL    HW218996   2.123   6.552   7.251 -2.2694  1.5813 -1.9928
 4345SOL     OW18997   1.954   0.079  11.141  0.4537 -0.2590  0.3955
 4345SOL    HW118998   2.028   0.028  11.109 -0.9797 -1.7358 -0.7081
 4345SOL    HW218999   1.944   0.150  11.077  0.6910 -0.2693  0.3472
 4346SOL     OW19000   0.677  11.401   5.236 -0.4464 -0.1801 -0.0090
 4346SOL    HW119001   0.716  11.476   5.280  0.9448 -1.4657  1.0752
 4346SOL    HW219002   0.627  11.356   5.304 -0.6804 -0.6172 -0.4586
 4347SOL     OW19003   8.542   5.543   5.489  0.0845  0.1656  0.1646
 4347SOL    HW119004   8.501   5.616   5.443 -2.1884  0.1657  2.0020
 4347SOL    HW219005   8.604   5.584   5.550 -0.4412  0.5250  0.4697
 4348SOL     OW19006   5.937   9.435   3.591 -0.7649  0.1079 -0.0289
 4348SOL    HW119007   5.927   9.515   3.539 -0.4223 -0.2171 -0.5978
 4348SOL    HW219008   5.962   9.467   3.678  2.8667  0.5551 -1.0757
 4349SOL     OW19009   2.331  12.128  11.889 -0.1316  0.1567  0.1635
 4349SOL    HW119010   2.238  12.151  11.890 -0.1622  0.1386  2.1092
 4349SOL    HW219011   2.351  12.114  11.797 -2.2877 -0.7813 -0.2293
 4350SOL     OW19012   4.699   9.202   4.641  0.1640  0.8415 -0.2988
 4350SOL    HW119013   4.622   9.255   4.621  0.8584  1.3683 -1.8056
 4350SOL    HW219014   4.665   9.116   4.662 -0.9668  1.6969  1.6291
 4351SOL     OW19015   4.440  10.949   9.702  0.1589  0.6064 -0.3571
 4351SOL    HW119016   4.355  10.921   9.736 -0.5256  2.9191  0.0219
 4351SOL    HW219017   4.502  10.922   9.769 -0.6260  1.1093  0.6081
 4352SOL     OW19018   0.424   4.918   2.228 -0.2430 -0.0281  0.1230
 4352SOL    HW119019   0.403   4.994   2.284 -2.0410 -1.3314  1.3073
 4352SOL    HW219020   0.492   4.951   2.169 -2.6848  3.3132 -1.1790
 4353SOL     OW19021   3.119   0.492  10.141 -0.1710 -0.1678  0.2026
 4353SOL    HW119022   3.203   0.525  10.109  0.2244 -0.0410  1.3066
 4353SOL    HW219023   3.142   0.429  10.210 -0.9691  0.2508  0.8851
 4354SOL     OW19024   5.981  12.130   5.041  0.3520  0.1419 -0.1221
 4354SOL    HW119025   5.915  12.103   5.104  0.5403  0.3548  0.1682
 4354SOL    HW219026   6.019  12.048   5.009 -1.3903 -0.1112 -1.7687
 4355SOL     OW19027   4.812   4.890   8.412  0.3010 -0.3334  0.1424
 4355SOL    HW119028   4.893   4.839   8.419  1.5503  1.6705  1.6625
 4355SOL    HW219029   4.755   4.853   8.479  0.2344 -1.2386 -0.3912
 4356SOL     OW19030  11.529   7.664  11.644 -0.1898 -0.0287  0.0797
 4356SOL    HW119031  11.590   7.717  11.593  0.8144  0.4005  1.6677
 4356SOL    HW219032  11.506   7.719  11.719 -0.7688 -1.0490  0.6780
 4357SOL     OW19033   3.636   3.670   4.909 -0.0030  0.4825 -0.1283
 4357SOL    HW119034   3.610   3.759   4.888 -0.3523  0.3229 -0.3948
 4357SOL    HW219035   3.553   3.624   4.923  0.1966  0.4677  1.1189
 4358SOL     OW19036   1.502   5.677  11.292 -0.0076  0.0073 -0.2075
 4358SOL    HW119037   1.592   5.686  11.262 -0.3658 -0.2990 -1.4161
 4358SOL    HW219038   1.508   5.679  11.387  1.1583  1.0447 -0.2887
 4359SOL     OW19039   5.839   1.501   9.589 -0.0942 -0.0332 -0.1816
 4359SOL    HW119040   5.851   1.545   9.673 -0.6250  0.6270 -0.4450
 4359SOL    HW219041   5.922   1.455   9.575  0.5855  1.0994 -0.0197
 4360SOL     OW19042   6.171   2.250   3.919 -0.6956  0.0382 -0.1820
 4360SOL    HW119043   6.234   2.269   3.989 -0.5581  0.3172 -0.3807
 4360SOL    HW219044   6.146   2.159   3.934 -0.3319 -0.0382 -0.0330
 4361SOL     OW19045   7.261   5.644   7.053  0.3148 -1.1299  0.0425
 4361SOL    HW119046   7.317   5.719   7.074  0.1107 -0.7222 -0.8194
 4361SOL    HW219047   7.203   5.635   7.128 -1.3488  1.1698 -0.8481
 4362SOL     OW19048   6.472   2.876   4.097 -1.0404 -0.2161  0.2479
 4362SOL    HW119049   6.421   2.866   4.017 -2.0398  0.5287  0.7687
 4362SOL    HW219050   6.420   2.831   4.164 -0.4061 -0.4981  0.5587
 4363SOL     OW19051   6.471   4.349  12.376  0.9513 -0.1944 -0.0526
 4363SOL    HW119052   6.535   4.417  12.360  0.1671 -0.0209 -3.3132
 4363SOL    HW219053   6.408   4.388  12.437  2.3260  0.6986  0.8267
 4364SOL     OW19054   7.537   6.320   0.354  0.1867 -0.3769 -0.1889
 4364SOL    HW119055   7.473   6.332   0.283  0.2646  1.7801  0.0248
 4364SOL    HW219056   7.484   6.324   0.433  0.3505 -0.7327 -0.0601
 4365SOL     OW19057  10.604   7.493  12.056 -0.5036 -0.5007  0.4387
 4365SOL    HW119058  10.578   7.408  12.021  0.1751 -0.6035  0.1696
 4365SOL    HW219059  10.698   7.487  12.068 -0.0706  0.8992 -1.6082
 4366SOL     OW19060   2.039   8.127   2.996 -0.1629  0.5906  0.7813
 4366SOL    HW119061   2.053   8.153   2.905 -0.1137 -0.3018  0.5191
 4366SOL    HW219062   1.946   8.106   3.001  0.2114 -1.4394  0.3393
 4367SOL     OW19063   4.999   2.424  10.940 -0.8248 -0.3128  0.3870
 4367SOL    HW119064   5.061   2.475  10.992 -0.2783  0.9181 -1.3479
 4367SOL    HW219065   5.006   2.462  10.852 -4.6103  0.4797  0.2512
 4368SOL     OW19066   0.826   6.621  10.471 -0.7847  0.4780 -0.0184
 4368SOL    HW119067   0.833   6.685  10.541 -2.4333 -0.5756  1.2184
 4368SOL    HW219068   0.834   6.536  10.515  0.1877 -0.2082 -1.4282
 4369SOL     OW19069  11.777   5.504   1.274 -0.4647  0.5618  0.5045
 4369SOL    HW119070  11.769   5.421   1.228  0.1730  0.1034  1.1948
 4369SOL    HW219071  11.757   5.484   1.366 -1.9641  1.5057  0.4241
 4370SOL     OW19072   5.722   2.798   9.774 -0.2071 -0.0607 -0.1529
 4370SOL    HW119073   5.633   2.802   9.739  0.0685  0.4959 -0.8102
 4370SOL    HW219074   5.768   2.871   9.733  0.6314 -0.4987 -0.0266
 4371SOL     OW19075   8.495   6.069   2.193  1.0680  0.0547  0.2777
 4371SOL    HW119076   8.499   6.145   2.136  0.6839  0.2880  0.5555
 4371SOL    HW219077   8.580   6.026   2.184  0.1855 -1.3350 -2.4408
 4372SOL     OW19078  12.309   3.601   2.662 -0.0961  0.2727  0.0259
 4372SOL    HW119079  12.380   3.647   2.618  0.5370 -1.3617 -0.7466
 4372SOL    HW219080  12.354   3.542   2.723 -0.8822  0.6550  1.0052
 4373SOL     OW19081   6.003   5.995   1.474 -0.5872  0.1041 -0.0082
 4373SOL    HW119082   6.090   5.996   1.434  1.9300 -1.5789  4.6793
 4373SOL    HW219083   5.965   5.913   1.444  0.8864 -0.7535  0.3374
 4374SOL     OW19084   7.518   4.496   9.365 -0.2582 -0.1032 -0.1699
 4374SOL    HW119085   7.563   4.539   9.437 -1.7072  0.2666  0.5561
 4374SOL    HW219086   7.566   4.414   9.351  0.5854  0.2549  0.5863
 4375SOL     OW19087   7.417  11.494   5.275  0.3224  0.0503  0.3243
 4375SOL    HW119088   7.412  11.589   5.272  0.0994  0.0319  0.0892
 4375SOL    HW219089   7.330  11.464   5.248 -0.3009 -0.1927  2.3698
 4376SOL     OW19090   3.745  11.517   7.114 -0.4051 -0.1410  0.9733
 4376SOL    HW119091   3.766  11.562   7.195  0.7248 -0.6023  0.9436
 4376SOL    HW219092   3.806  11.444   7.109 -1.0792 -0.6788  0.1685
 4377SOL     OW19093   8.442   3.803   6.128 -0.2350  0.5319  0.0163
 4377SOL    HW119094   8.360   3.757   6.142 -1.1656  1.8167 -0.9226
 4377SOL    HW219095   8.484   3.757   6.055 -0.6517  0.5353 -0.2263
 4378SOL     OW19096   9.091  11.646  11.398 -1.0368 -0.2765 -0.6494
 4378SOL    HW119097   9.063  11.647  11.307 -1.1541  0.8558 -0.6164
 4378SOL    HW219098   9.153  11.719  11.405 -0.5641 -0.7261  0.0389
 4379SOL     OW19099   4.627   8.178   3.045 -0.4748  1.0337  0.0013
 4379SOL    HW119100   4.543   8.205   3.008 -0.0183  1.7474 -0.5305
 4379SOL    HW219101   4.612   8.176   3.140 -2.4087 -3.2877 -0.1480
 4380SOL     OW19102  10.905   6.197   3.300 -0.1872  0.8695 -0.1636
 4380SOL    HW119103  10.988   6.150   3.295 -0.7329 -0.0265 -1.7638
 4380SOL    HW219104  10.920   6.278   3.250 -0.0821  1.0571  0.1652
 4381SOL     OW19105   1.300  10.002  11.637 -0.1373 -0.8152 -0.5213
 4381SOL    HW119106   1.366  10.070  11.650  0.2095 -0.9297 -1.5139
 4381SOL    HW219107   1.330   9.929  11.691 -0.7735 -0.0328  0.9332
 4382SOL     OW19108   3.831   6.365  10.345 -0.7135  0.0926  0.1253
 4382SOL    HW119109   3.839   6.306  10.420  1.2700  0.4125  0.2252
 4382SOL    HW219110   3.866   6.316  10.271  3.3179  1.7640  0.6414
 4383SOL     OW19111   8.933  12.088   6.654 -0.3306  0.1540  0.6266
 4383SOL    HW119112   9.010  12.129   6.692 -0.0893  2.5776 -2.0825
 4383SOL    HW219113   8.967  12.029   6.587 -0.8163 -0.7972  1.1917
 4384SOL     OW19114   7.766   5.234   4.267 -0.1993  0.3106 -0.6980
 4384SOL    HW119115   7.826   5.304   4.294 -0.3581  0.4898 -0.8115
 4384SOL    HW219116   7.679   5.273   4.272 -0.6360 -0.7757  2.2517
 4385SOL     OW19117   6.119   7.322  10.910  0.2763 -0.1014  0.1379
 4385SOL    HW119118   6.064   7.244  10.916 -0.7340  0.6449  0.7714
 4385SOL    HW219119   6.194   7.294  10.856 -0.2291 -1.4025  0.0754
 4386SOL     OW19120   1.128   3.686   1.375  0.1639  0.1515 -0.2328
 4386SOL    HW119121   1.116   3.754   1.440 -0.0866 -0.6874  0.6171
 4386SOL    HW219122   1.178   3.618   1.420  0.0351 -0.4238 -0.9353
 4387SOL     OW19123   5.379   4.884  11.052  0.4616 -0.0388 -0.1582
 4387SOL    HW119124   5.399   4.946  11.123  0.6157 -0.3806  0.0984
 4387SOL    HW219125   5.335   4.811  11.095 -1.2726  0.6457 -0.6946
 4388SOL     OW19126   1.294  12.164   4.282 -0.0375 -0.1363 -0.0187
 4388SOL    HW119127   1.277  12.153   4.189 -0.1742 -3.4257  0.2700
 4388SOL    HW219128   1.251  12.246   4.306 -1.9505 -0.3592 -2.3927
 4389SOL     OW19129   2.216   8.952   2.829 -0.1905  0.2898  0.2297
 4389SOL    HW119130   2.130   8.932   2.794 -0.4324  1.2424  0.2538
 4389SOL    HW219131   2.269   8.875   2.810 -0.4607  0.5478 -1.7380
 4390SOL     OW19132   3.094   5.625   1.508  0.5578 -0.3596 -0.3025
 4390SOL    HW119133   3.114   5.713   1.540 -1.8275  0.3480 -0.5428
 4390SOL    HW219134   3.097   5.570   1.586 -0.6866  0.4870  0.3643
 4391SOL     OW19135  11.811  10.211   8.016  0.0991 -0.3251  0.0896
 4391SOL    HW119136  11.718  10.192   8.016 -0.1267  0.6061  2.0653
 4391SOL    HW219137  11.822  10.277   7.948 -1.0613  1.0825  1.2054
 4392SOL     OW19138  10.236  11.693   2.732 -0.3544  0.3028  0.0673
 4392SOL    HW119139  10.216  11.600   2.717  0.7388  0.0011  0.4333
 4392SOL    HW219140  10.326  11.694   2.763 -0.5417  1.4491  0.6320
 4393SOL     OW19141   0.189   3.538   0.074  0.2380  0.2616 -0.2072
 4393SOL    HW119142   0.264   3.583   0.113  0.9212 -1.0847  0.0970
 4393SOL    HW219143   0.117   3.600   0.081  0.9735  1.0265  0.8369
 4394SOL     OW19144  12.084  10.514   6.464  0.1623  0.2950 -0.0615
 4394SOL    HW119145  12.098  10.419   6.458  0.5068  0.1313  2.1935
 4394SOL    HW219146  12.168  10.548   6.494 -0.6608  0.9205  1.7250
 4395SOL     OW19147   2.626   8.515   2.771  0.3815 -0.2725  0.0158
 4395SOL    HW119148   2.662   8.429   2.749  1.1265 -0.3731  1.4767
 4395SOL    HW219149   2.580   8.501   2.854 -1.0580  0.3716 -0.6405
 4396SOL     OW19150   5.980   2.234   3.184 -0.8959 -0.4010 -0.0614
 4396SOL    HW119151   6.035   2.169   3.140 -0.7158 -0.2156 -0.1102
 4396SOL    HW219152   5.911   2.182   3.226 -1.4016 -0.5448 -1.0362
 4397SOL     OW19153   8.325   4.547   2.801  0.0966  0.0591 -0.6587
 4397SOL    HW119154   8.257   4.600   2.760 -2.3790 -1.5337  1.0781
 4397SOL    HW219155   8.326   4.466   2.749 -0.2475 -0.4127  0.0583
 4398SOL     OW19156   8.572  10.073  10.913 -0.4036 -0.1917  0.1035
 4398SOL    HW119157   8.606  10.031  10.992  2.7329 -0.8917 -1.4490
 4398SOL    HW219158   8.589  10.167  10.927  0.6065 -0.3596  0.1335
 4399SOL     OW19159   8.226   1.947   6.276 -0.0433 -0.2436  0.3447
 4399SOL    HW119160   8.164   1.897   6.329 -0.6356  0.1185 -0.0013
 4399SOL    HW219161   8.304   1.955   6.332 -1.0566  1.1281  1.6544
 4400SOL     OW19162   5.307   0.614   9.082 -0.1462 -0.1963  0.6362
 4400SOL    HW119163   5.275   0.684   9.024 -0.4381 -0.8866 -0.0452
 4400SOL    HW219164   5.375   0.657   9.134 -1.7142  1.1414  1.6958
 4401SOL     OW19165   7.653   9.186  10.904 -0.3578  0.1665 -0.2248
 4401SOL    HW119166   7.566   9.161  10.874  0.5452 -1.0028 -2.0719
 4401SOL    HW219167   7.675   9.263  10.852  0.8414 -1.3128 -2.0584
 4402SOL     OW19168   2.953   2.086   6.045 -0.1492 -0.0207 -0.3327
 4402SOL    HW119169   2.913   2.079   5.958  1.2704  1.1520 -1.1290
 4402SOL    HW219170   3.000   2.169   6.043  1.3393 -0.7788  0.9562
 4403SOL     OW19171   5.882   0.878   6.904  0.2402 -0.1210  0.5841
 4403SOL    HW119172   5.952   0.860   6.967  0.9747  2.2257  0.5476
 4403SOL    HW219173   5.853   0.967   6.926 -0.7216  0.0563 -1.2337
 4404SOL     OW19174   3.895  11.299   8.276  0.0777 -0.4929  0.4849
 4404SOL    HW119175   3.967  11.273   8.219  0.0671 -0.6060  0.5227
 4404SOL    HW219176   3.832  11.228   8.269  1.0045 -1.5844  2.2881
 4405SOL     OW19177  11.909   7.417  11.424  0.2096 -0.0933 -0.0228
 4405SOL    HW119178  11.906   7.512  11.436  0.2631 -0.1118  0.1372
 4405SOL    HW219179  11.969   7.404  11.351  0.9328 -0.0560  0.5490
 4406SOL     OW19180   1.252   0.968   2.830 -0.1920 -0.2567 -0.1521
 4406SOL    HW119181   1.262   0.938   2.920  0.2509 -0.7662 -0.3721
 4406SOL    HW219182   1.250   1.064   2.837 -1.4233 -0.3027  0.5234
 4407SOL     OW19183   1.539   8.871   0.664 -0.5546 -0.5948 -0.1765
 4407SOL    HW119184   1.508   8.785   0.693 -1.6049 -0.2277 -0.1831
 4407SOL    HW219185   1.547   8.864   0.569 -1.8191 -0.3391 -0.3234
 4408SOL     OW19186   4.388   6.709   1.992 -0.2186  0.2436 -0.2312
 4408SOL    HW119187   4.398   6.749   2.079 -0.5664  0.6758 -0.3880
 4408SOL    HW219188   4.422   6.621   2.003  2.2795  1.1341 -0.3500
 4409SOL     OW19189   6.018  11.849  10.553  0.4183  0.0880  0.2959
 4409SOL    HW119190   5.993  11.782  10.617 -0.6932  1.9251  1.9257
 4409SOL    HW219191   6.108  11.826  10.528 -0.3633 -2.6960 -0.2438
 4410SOL     OW19192   1.077   1.380   2.596  0.5793 -0.0391 -0.0551
 4410SOL    HW119193   1.082   1.355   2.688 -0.8808 -0.7528 -0.1462
 4410SOL    HW219194   0.994   1.427   2.587  0.4681 -0.3974 -1.0889
 4411SOL     OW19195   9.079   6.846   4.566  0.2090  0.3235 -0.2878
 4411SOL    HW119196   8.991   6.872   4.591  0.4729  1.1382 -0.2037
 4411SOL    HW219197   9.066   6.783   4.495 -0.4280  0.7289 -0.5338
 4412SOL     OW19198  10.814   2.319   7.556  0.4047 -0.2804 -0.6342
 4412SOL    HW119199  10.830   2.227   7.576 -0.6285 -0.2726  0.3076
 4412SOL    HW219200  10.785   2.357   7.638  1.5808  1.0938 -0.8201
 4413SOL     OW19201   7.397   3.481   9.866  0.0720 -0.4683 -0.2373
 4413SOL    HW119202   7.316   3.448   9.826 -0.6452  0.8453  0.1018
 4413SOL    HW219203   7.367   3.532   9.942  1.2649 -0.5583  0.3061
 4414SOL     OW19204   9.644   3.579   4.263 -0.0302 -0.2305  0.0305
 4414SOL    HW119205   9.714   3.644   4.269  1.4609 -1.7297 -0.0726
 4414SOL    HW219206   9.653   3.543   4.175 -0.3735 -1.0201  0.3106
 4415SOL     OW19207  10.308   4.482  11.713  0.0668 -0.1043  0.2602
 4415SOL    HW119208  10.398   4.454  11.694  0.0013  0.5821 -1.2653
 4415SOL    HW219209  10.269   4.408  11.759  1.5411 -0.2338  1.3817
 4416SOL     OW19210  10.528   3.509   7.908  0.6409 -0.1003  0.2732
 4416SOL    HW119211  10.565   3.563   7.978  1.1626 -0.1244  0.0143
 4416SOL    HW219212  10.501   3.572   7.841  0.1373 -0.0771  0.4959
 4417SOL     OW19213   6.795   9.840  10.665 -0.1190 -0.1357 -0.1398
 4417SOL    HW119214   6.725   9.869  10.606  0.2455 -0.9342 -0.9911
 4417SOL    HW219215   6.755   9.772  10.719 -1.0264  1.9744  1.9837
 4418SOL     OW19216   0.157   9.873   9.746  0.2569  0.3022 -0.3473
 4418SOL    HW119217   0.139   9.935   9.816  1.7892 -0.2902  0.6082
 4418SOL    HW219218   0.120   9.790   9.777 -3.1327  0.9174 -2.2542
 4419SOL     OW19219   6.950   7.123   2.946 -0.0548  0.1328  0.2296
 4419SOL    HW119220   7.024   7.173   2.980 -0.5667  0.3223  1.1145
 4419SOL    HW219221   6.873   7.178   2.966 -0.8174 -1.6552  2.7242
 4420SOL     OW19222  11.448  10.569   3.595 -0.1235 -0.3000 -0.0090
 4420SOL    HW119223  11.492  10.621   3.663  0.2822  0.0518 -0.5378
 4420SOL    HW219224  11.495  10.486   3.594 -1.2377 -0.9839  1.3535
 4421SOL     OW19225   5.751   6.966   0.603  0.0875 -0.5326  0.6962
 4421SOL    HW119226   5.807   6.892   0.580  0.9740  0.3699 -0.1240
 4421SOL    HW219227   5.804   7.044   0.583 -1.6143  0.3616 -0.5808
 4422SOL     OW19228   1.401   5.094   5.697  0.2410  0.2078  0.0866
 4422SOL    HW119229   1.434   5.113   5.609  2.1215 -2.4594  0.0978
 4422SOL    HW219230   1.479   5.097   5.753 -0.2398 -1.7740  0.9542
 4423SOL     OW19231   1.811   2.362   9.293 -0.1210 -0.6606 -0.0421
 4423SOL    HW119232   1.761   2.442   9.281  0.1114 -0.6160 -0.7623
 4423SOL    HW219233   1.746   2.296   9.319 -0.7099 -0.7965 -1.7402
 4424SOL     OW19234   3.527   4.656   3.519 -0.4359  0.1348  0.2348
 4424SOL    HW119235   3.550   4.636   3.428  0.5039  0.1057  0.4712
 4424SOL    HW219236   3.465   4.587   3.543 -1.8118  0.9300 -0.8065
 4425SOL     OW19237   8.509  10.798   9.599  0.2582 -0.2833  0.5969
 4425SOL    HW119238   8.436  10.736   9.598  0.8152 -1.0672  2.4606
 4425SOL    HW219239   8.587  10.744   9.584  0.5123  0.5006 -1.1185
 4426SOL     OW19240   1.494   3.129  11.300  0.1100 -0.8674  0.3087
 4426SOL    HW119241   1.477   3.212  11.345  0.8502 -0.3061 -0.4003
 4426SOL    HW219242   1.430   3.127  11.229 -0.2978 -1.1970  0.6800
 4427SOL     OW19243   9.361  11.105   1.973  0.3849 -0.0948  0.0180
 4427SOL    HW119244   9.291  11.125   2.036 -0.6823 -2.3159 -0.3693
 4427SOL    HW219245   9.319  11.118   1.887  1.2563  1.0440 -0.2585
 4428SOL     OW19246   9.773  10.289   6.954 -0.3278  0.1573 -0.7713
 4428SOL    HW119247   9.791  10.299   6.860  0.6010  2.5656 -0.4108
 4428SOL    HW219248   9.729  10.371   6.978 -0.4509 -0.3791  0.9348
 4429SOL     OW19249   6.286   1.484   6.579 -0.7570 -0.7245 -0.1583
 4429SOL    HW119250   6.328   1.407   6.618 -0.1829 -0.5217 -0.3718
 4429SOL    HW219251   6.305   1.477   6.485  0.6633  0.4980  0.0049
 4430SOL     OW19252   8.538   9.821   4.037 -0.0418  0.2107  0.4670
 4430SOL    HW119253   8.476   9.814   4.110 -0.7589  2.8662  0.2308
 4430SOL    HW219254   8.625   9.816   4.079 -0.4087 -0.9331  1.1345
 4431SOL     OW19255  10.263   9.094   0.184  0.0850  0.2319 -0.0659
 4431SOL    HW119256  10.201   9.098   0.111  0.6637  0.5052 -0.5559
 4431SOL    HW219257  10.348   9.079   0.142  0.3813  0.0521  0.5818
 4432SOL     OW19258   8.029   5.958  10.258 -0.7090  0.3858 -0.0942
 4432SOL    HW119259   7.934   5.949  10.257 -0.8020  1.2557 -0.2300
 4432SOL    HW219260   8.055   5.922  10.343 -1.3199  1.3973  0.5568
 4433SOL     OW19261   2.701   3.681   7.992  0.0881 -0.1748  0.2093
 4433SOL    HW119262   2.784   3.725   8.010 -0.5039  2.4966 -2.6280
 4433SOL    HW219263   2.642   3.714   8.059  0.6486  0.1726  0.5431
 4434SOL     OW19264  12.226   5.317   0.684 -0.1253  0.3923  0.1728
 4434SOL    HW119265  12.270   5.347   0.764 -0.5973 -0.7415  0.8778
 4434SOL    HW219266  12.189   5.396   0.646 -0.6284  0.8427  1.5375
 4435SOL     OW19267   6.752   6.627   2.311  0.2955  0.2419  0.2678
 4435SOL    HW119268   6.678   6.593   2.361  1.0207 -0.6972  0.7198
 4435SOL    HW219269   6.757   6.571   2.234  0.9685 -0.1412  0.5881
 4436SOL     OW19270   8.867   0.774   3.131 -0.3031  0.0387 -0.6934
 4436SOL    HW119271   8.813   0.766   3.209  1.2418  0.5190  0.4680
 4436SOL    HW219272   8.834   0.853   3.087 -0.8298  0.0638 -0.2632
 4437SOL     OW19273   8.199   2.736   1.513  1.0285  0.4826 -0.4628
 4437SOL    HW119274   8.197   2.641   1.507 -0.2786  0.4015  0.7827
 4437SOL    HW219275   8.204   2.754   1.607  1.4601  1.6465 -0.6872
 4438SOL     OW19276   9.656  11.859   2.734  0.1673 -0.2525 -0.2021
 4438SOL    HW119277   9.585  11.864   2.798  0.5813 -0.2960  0.2691
 4438SOL    HW219278   9.716  11.929   2.758 -0.2935  0.5502 -1.3259
 4439SOL     OW19279   9.315   5.666   9.195 -0.6323  0.3702 -0.7759
 4439SOL    HW119280   9.311   5.629   9.283  0.1045  0.0403 -0.8755
 4439SOL    HW219281   9.397   5.716   9.193 -1.3324  1.5619 -0.8236
 4440SOL     OW19282   0.251   0.672   5.237  0.1979  0.0847  0.2900
 4440SOL    HW119283   0.335   0.718   5.238  0.2242  0.0376  1.0791
 4440SOL    HW219284   0.185   0.740   5.228  0.2465  0.2801  1.2649
 4441SOL     OW19285   0.999   3.790   9.229  0.1263  0.1702  0.1492
 4441SOL    HW119286   1.042   3.857   9.177  0.5287 -0.2382 -0.0507
 4441SOL    HW219287   0.908   3.790   9.199  0.3059  0.0854 -0.4068
 4442SOL     OW19288  12.166  11.756   4.725 -0.2267 -0.1705  0.3164
 4442SOL    HW119289  12.227  11.729   4.656  0.7848  1.1614  0.6338
 4442SOL    HW219290  12.208  11.832   4.765 -0.9515 -0.6910  2.1783
 4443SOL     OW19291  11.032   9.184   5.204 -0.1111 -0.8197 -0.4499
 4443SOL    HW119292  11.110   9.237   5.220 -0.5851  0.2625 -1.5554
 4443SOL    HW219293  10.975   9.202   5.279  1.0679 -2.3966  0.8779
 4444SOL     OW19294   4.536  11.939   7.555  0.2102  0.1701 -0.1222
 4444SOL    HW119295   4.545  11.850   7.521  0.2223 -0.0729  0.5100
 4444SOL    HW219296   4.595  11.943   7.630 -0.4348  0.4361  0.3843
 4445SOL     OW19297  11.874   9.135   2.013  0.2318  0.0987 -0.4204
 4445SOL    HW119298  11.961   9.173   2.023 -0.2016  1.2711 -0.9140
 4445SOL    HW219299  11.839   9.175   1.933 -1.8387  1.9385  1.2491
 4446SOL     OW19300   0.873   8.285   4.342 -0.5982  0.2800  0.1428
 4446SOL    HW119301   0.798   8.299   4.285 -0.4213 -0.8376 -0.3947
 4446SOL    HW219302   0.853   8.204   4.389  0.1210  0.1495  0.2358
 4447SOL     OW19303   3.971   1.963   5.886 -0.1255 -0.0796 -0.2401
 4447SOL    HW119304   3.917   2.040   5.871  0.0895 -0.2569 -2.1281
 4447SOL    HW219305   3.990   1.929   5.799  0.0749 -2.0850  0.5322
 4448SOL     OW19306   0.888   8.273   2.483 -0.4125 -0.0108 -0.7169
 4448SOL    HW119307   0.953   8.292   2.415  3.4486 -1.3690  2.2235
 4448SOL    HW219308   0.891   8.350   2.540 -2.8764  0.6950 -1.4388
 4449SOL     OW19309   1.049  10.115   5.319  0.2672 -0.0419  0.2142
 4449SOL    HW119310   1.141  10.103   5.340  1.0820 -1.7030 -3.5820
 4449SOL    HW219311   1.012  10.027   5.315 -0.9448  0.4613 -0.4834
 4450SOL     OW19312   6.017   6.476  12.325  0.0986  0.0618  0.2848
 4450SOL    HW119313   5.969   6.410  12.275  0.1868  0.6330 -0.5773
 4450SOL    HW219314   5.963   6.555  12.320  0.4470  0.3209  0.5067
 4451SOL     OW19315   9.669   3.875   3.306  0.4298 -0.2354 -0.3521
 4451SOL    HW119316   9.703   3.819   3.376 -0.7322 -2.1070 -1.2323
 4451SOL    HW219317   9.574   3.868   3.314  0.2767  0.4588 -1.4102
 4452SOL     OW19318   0.936   5.972   3.041 -0.3513 -0.5552 -0.4187
 4452SOL    HW119319   1.021   5.927   3.042  0.5502  1.0674 -0.1194
 4452SOL    HW219320   0.953   6.054   2.995 -1.3312  0.5714  1.1213
 4453SOL     OW19321   0.580   6.281  11.332  0.4859  0.1090 -0.2797
 4453SOL    HW119322   0.611   6.257  11.419 -0.6093  0.6835  0.2834
 4453SOL    HW219323   0.485   6.291  11.342  0.5389  1.7500 -1.1725
 4454SOL     OW19324   5.798  12.274   9.706 -0.5644 -0.0863 -0.1612
 4454SOL    HW119325   5.710  12.270   9.743  0.2544  2.3210  2.3605
 4454SOL    HW219326   5.827  12.364   9.722  1.6792 -0.2436 -2.6439
 4455SOL     OW19327  11.790  10.102   4.617 -0.4933 -0.1183 -0.4564
 4455SOL    HW119328  11.702  10.139   4.626  0.4039  2.1043 -0.1252
 4455SOL    HW219329  11.822  10.094   4.706 -0.2104 -0.5916 -0.5939
 4456SOL     OW19330   2.818   8.663  10.413  0.6121 -0.1203 -0.4769
 4456SOL    HW119331   2.788   8.697  10.328  1.2199 -0.2914 -0.7697
 4456SOL    HW219332   2.745   8.612  10.446 -0.0177  0.7931 -0.4178
 4457SOL     OW19333   3.529   2.433   4.187  0.5326 -0.2906 -0.0059
 4457SOL    HW119334   3.541   2.355   4.132  1.8470 -0.8994  1.0862
 4457SOL    HW219335   3.565   2.504   4.134 -1.2092 -0.2627 -1.2588
 4458SOL     OW19336   1.843   4.210  11.639 -0.0026 -0.1385 -0.2616
 4458SOL    HW119337   1.841   4.257  11.555 -1.9282  0.2311 -0.0569
 4458SOL    HW219338   1.869   4.277  11.703  0.1942 -0.0993 -0.3806
 4459SOL     OW19339   0.048   2.395   9.816  0.2213  0.3252  0.4747
 4459SOL    HW119340  -0.018   2.462   9.798  1.0628  0.5948 -2.0104
 4459SOL    HW219341   0.001   2.325   9.859 -1.4279  1.0460 -0.0835
 4460SOL     OW19342   7.536   6.529   5.483 -0.2675 -0.2263 -0.3080
 4460SOL    HW119343   7.503   6.461   5.424 -0.4854 -0.6815  0.3260
 4460SOL    HW219344   7.510   6.499   5.570  2.2369 -0.8716  0.2940
 4461SOL     OW19345   2.261   7.018  11.413  0.5320 -0.2946 -0.0370
 4461SOL    HW119346   2.195   7.039  11.347 -0.4278  1.3463  1.3525
 4461SOL    HW219347   2.344   7.035  11.369 -0.0964  1.2086 -0.7303
 4462SOL     OW19348  11.717   2.609   2.304  0.2943  0.0167 -0.1652
 4462SOL    HW119349  11.711   2.683   2.244  0.2331 -0.3549 -0.6185
 4462SOL    HW219350  11.691   2.645   2.389  0.7986  0.6478 -0.2696
 4463SOL     OW19351   9.080   5.112   1.189  0.0556  0.0350  0.1457
 4463SOL    HW119352   9.008   5.121   1.251 -0.2197  2.6211 -0.4363
 4463SOL    HW219353   9.157   5.141   1.238  0.1862  0.1016 -0.1004
 4464SOL     OW19354   6.139   0.731   6.802  0.8859  0.2980 -0.0514
 4464SOL    HW119355   6.133   0.821   6.768 -1.9022  1.0352  2.0364
 4464SOL    HW219356   6.085   0.680   6.742  0.7536  0.4386 -0.0539
 4465SOL     OW19357   4.129   0.829   2.604  0.0028 -0.1038 -0.3555
 4465SOL    HW119358   4.120   0.897   2.537 -1.0651  0.2195  0.1062
 4465SOL    HW219359   4.075   0.756   2.572 -1.3400  0.4243  0.6027
 4466SOL     OW19360   7.466  11.869   2.644  0.3052 -0.2444 -0.5540
 4466SOL    HW119361   7.395  11.929   2.668 -0.8965 -1.9924  0.5158
 4466SOL    HW219362   7.437  11.830   2.562  0.7802  0.1498 -0.9145
 4467SOL     OW19363   0.077   6.045   8.278  0.2669 -0.0090 -0.0519
 4467SOL    HW119364   0.125   6.014   8.354 -1.5520 -0.3288  1.0081
 4467SOL    HW219365   0.066   5.967   8.223 -0.7422 -0.3733  0.6534
 4468SOL     OW19366   3.494   6.630   2.522  0.4183  0.3369  0.5883
 4468SOL    HW119367   3.451   6.582   2.593  0.6091 -0.4611  0.1752
 4468SOL    HW219368   3.587   6.624   2.543  0.5421 -0.6873 -0.2001
 4469SOL     OW19369  10.847  11.280   0.684  0.3321 -0.9022  0.2728
 4469SOL    HW119370  10.798  11.240   0.756  2.5503 -2.0302  1.2807
 4469SOL    HW219371  10.920  11.324   0.728  0.0055  1.1510 -1.1136
 4470SOL     OW19372   2.673   0.225   5.045  0.1807 -0.0264 -0.5739
 4470SOL    HW119373   2.632   0.148   5.083  1.7214 -0.9219 -0.6455
 4470SOL    HW219374   2.696   0.279   5.121  0.1485 -0.1905 -0.4466
 4471SOL     OW19375  10.271   1.760   2.679 -0.7648 -0.6892  0.1555
 4471SOL    HW119376  10.179   1.777   2.660 -0.8406 -1.2782 -0.0034
 4471SOL    HW219377  10.317   1.779   2.597 -0.6698  0.1706  0.3996
 4472SOL     OW19378  11.449  11.387  12.116  0.0967 -0.2967  0.4166
 4472SOL    HW119379  11.409  11.459  12.164  1.5327  0.0093  1.2257
 4472SOL    HW219380  11.483  11.329  12.183  1.3458 -0.3194 -0.1899
 4473SOL     OW19381  10.856   4.969   6.088 -0.0397 -0.1839  0.1962
 4473SOL    HW119382  10.769   4.971   6.127 -0.4966 -0.9217 -0.7264
 4473SOL    HW219383  10.840   4.964   5.994  0.9951 -0.3489  0.0141
 4474SOL     OW19384   0.916  11.206  10.399 -0.8861 -0.4838  0.6489
 4474SOL    HW119385   0.875  11.280  10.354 -0.5162 -0.0186  1.0843
 4474SOL    HW219386   0.879  11.208  10.487  0.3351  0.1685  1.1718
 4475SOL     OW19387   8.889   8.317   0.910 -0.2083 -0.4339 -0.3633
 4475SOL    HW119388   8.896   8.299   1.004  0.5658 -0.1864 -0.3722
 4475SOL    HW219389   8.856   8.235   0.872 -2.3951  0.0392  0.3498
 4476SOL     OW19390   8.928   9.184   1.737 -0.4583 -0.0243 -0.4967
 4476SOL    HW119391   8.996   9.218   1.679 -0.1847 -0.3008 -0.3438
 4476SOL    HW219392   8.850   9.178   1.682  0.0816 -1.3716 -1.1744
 4477SOL     OW19393   5.031   2.755   9.433  0.4468 -0.1801 -0.5297
 4477SOL    HW119394   5.044   2.754   9.527 -1.8755 -2.8440 -0.1221
 4477SOL    HW219395   4.940   2.781   9.420 -0.0231 -2.1837 -1.8110
 4478SOL     OW19396   3.648   6.453  10.669 -0.6697  0.3710  0.2668
 4478SOL    HW119397   3.625   6.466  10.761 -0.2949 -0.3420  0.4686
 4478SOL    HW219398   3.680   6.363  10.664  2.3411  1.3244  0.0832
 4479SOL     OW19399   8.747   3.249   6.204  0.2507 -0.6298  0.5862
 4479SOL    HW119400   8.830   3.202   6.205 -0.7746 -2.5512  1.3046
 4479SOL    HW219401   8.736   3.281   6.294  0.4669  0.1527  0.3453
 4480SOL     OW19402   2.295   5.010   8.293  0.6859 -0.2536 -0.0752
 4480SOL    HW119403   2.228   5.033   8.228  2.2451 -1.1863 -2.0938
 4480SOL    HW219404   2.359   5.081   8.288  1.3833 -0.8963 -0.3920
 4481SOL     OW19405   8.208   8.694   6.881  0.6164  0.2126  0.1445
 4481SOL    HW119406   8.196   8.787   6.901 -0.7548 -0.0395  0.6103
 4481SOL    HW219407   8.229   8.692   6.788 -0.1141  0.9420 -0.0455
 4482SOL     OW19408   8.674   4.009   8.683  0.1750 -0.2305 -0.1373
 4482SOL    HW119409   8.715   3.948   8.621 -0.9471 -1.1468  0.0003
 4482SOL    HW219410   8.623   4.069   8.628 -0.8570 -1.0711 -0.1277
 4483SOL     OW19411   3.447  12.123   2.890 -0.0321  0.2531 -0.2051
 4483SOL    HW119412   3.433  12.055   2.824 -1.5832 -0.0761  0.4026
 4483SOL    HW219413   3.471  12.075   2.969 -0.9060  0.4002  0.1659
 4484SOL     OW19414   6.973   8.048   5.285 -0.1073 -0.0243 -0.0211
 4484SOL    HW119415   6.889   8.016   5.252 -0.0086  1.5523 -2.0633
 4484SOL    HW219416   7.021   7.969   5.310 -2.2804 -0.9436  1.5465
 4485SOL     OW19417   2.549  10.643   2.251 -0.6355 -0.6964 -0.2227
 4485SOL    HW119418   2.457  10.647   2.224 -1.0915  0.3949  1.3584
 4485SOL    HW219419   2.594  10.700   2.189 -1.3138  0.1066 -0.0022
 4486SOL     OW19420   3.718  12.486  11.010  0.1448  0.1058  0.1484
 4486SOL    HW119421   3.788  12.539  10.971  1.1365 -0.5539  0.9485
 4486SOL    HW219422   3.641  12.502  10.956  1.6113 -1.3856 -2.6283
 4487SOL     OW19423   6.709   1.947   7.228  0.1618  0.5495 -0.0313
 4487SOL    HW119424   6.763   1.946   7.307 -0.9985  0.6512  0.7805
 4487SOL    HW219425   6.651   1.872   7.238  1.1662 -0.4933 -1.6386
 4488SOL     OW19426   9.432  10.195   2.081  0.1548 -0.7616 -0.1924
 4488SOL    HW119427   9.404  10.247   2.157  2.4873 -0.7056  0.7138
 4488SOL    HW219428   9.413  10.105   2.106 -0.3406 -0.6420 -0.1261
 4489SOL     OW19429   8.087   4.141   2.472  0.3814  0.0119 -0.1285
 4489SOL    HW119430   8.009   4.094   2.501  0.3221  0.4973  0.5097
 4489SOL    HW219431   8.158   4.104   2.524  0.5710 -0.4064 -0.6854
 4490SOL     OW19432   4.279  11.305  11.869 -0.1562  0.1323  0.0317
 4490SOL    HW119433   4.214  11.275  11.932 -1.5362 -0.0473 -1.4178
 4490SOL    HW219434   4.242  11.385  11.832 -0.2533 -0.7381 -1.8346
 4491SOL     OW19435  10.065   6.418   6.259  0.5792  0.2945  0.7008
 4491SOL    HW119436  10.125   6.392   6.329  1.3266 -2.0158 -0.6637
 4491SOL    HW219437  10.115   6.481   6.206  1.2340 -0.3898  0.4830
 4492SOL     OW19438   3.983  11.803  11.777 -0.0292 -0.5835  0.2244
 4492SOL    HW119439   3.918  11.856  11.732 -0.6967  0.2311  2.0434
 4492SOL    HW219440   3.975  11.828  11.869  2.2793 -1.0969  0.6298
 4493SOL     OW19441   0.969   6.755   1.410 -0.0586 -0.0991  0.9408
 4493SOL    HW119442   1.007   6.798   1.487 -1.5195  2.1818  0.4900
 4493SOL    HW219443   0.875   6.767   1.420 -0.3509 -0.9269 -0.5662
 4494SOL     OW19444   2.755  10.739   5.777 -0.2769  0.0139  0.1989
 4494SOL    HW119445   2.749  10.707   5.867 -0.7471  0.1878  0.2346
 4494SOL    HW219446   2.831  10.798   5.777 -0.4241  0.2072  0.5451
 4495SOL     OW19447   6.826  12.417   5.739  0.1238  0.0719  0.0189
 4495SOL    HW119448   6.810  12.508   5.764  0.2022 -0.0302  0.4485
 4495SOL    HW219449   6.917  12.401   5.763  0.1774 -0.0566 -0.2594
 4496SOL     OW19450   0.723  10.782   2.398  0.0912  0.1459  0.1676
 4496SOL    HW119451   0.749  10.789   2.489  0.3792 -2.1835  0.3204
 4496SOL    HW219452   0.678  10.864   2.379  1.1812  1.2172  1.9975
 4497SOL     OW19453   7.610   1.324  10.740 -0.1093 -0.2200  0.3561
 4497SOL    HW119454   7.576   1.315  10.830  0.2253  0.4269  0.5612
 4497SOL    HW219455   7.611   1.419  10.725  0.6407 -0.2788 -0.0175
 4498SOL     OW19456   6.679  11.126   2.188  0.5655  0.8731  0.0994
 4498SOL    HW119457   6.771  11.098   2.185  0.7611  1.5722 -1.1751
 4498SOL    HW219458   6.648  11.096   2.274  2.2200  1.3720  0.9242
 4499SOL     OW19459   5.054   7.805   1.343 -0.4961 -0.4669  0.0579
 4499SOL    HW119460   5.148   7.786   1.343 -0.6018 -1.1484  1.5347
 4499SOL    HW219461   5.048   7.899   1.324  0.4254 -0.5760 -0.8357
 4500SOL     OW19462   7.528   7.958   4.367  0.6327  0.5269 -0.0472
 4500SOL    HW119463   7.526   8.051   4.346  1.2089  0.8522  1.2642
 4500SOL    HW219464   7.521   7.954   4.462  1.3439 -0.7428 -0.0196
 4501SOL     OW19465   3.554   1.268   7.810 -0.7159 -0.9416  0.3142
 4501SOL    HW119466   3.590   1.224   7.887  0.4963 -0.1587  0.2127
 4501SOL    HW219467   3.521   1.352   7.842  1.4238  0.1802 -0.2664
 4502SOL     OW19468  11.335   3.772   9.070 -0.8760 -0.3112  0.4989
 4502SOL    HW119469  11.423   3.735   9.067 -0.5461  0.4831 -0.0333
 4502SOL    HW219470  11.348   3.863   9.097 -1.4412  0.0378 -0.3498
 4503SOL     OW19471  11.199   5.149   0.620  0.1655 -0.0468  0.3155
 4503SOL    HW119472  11.211   5.169   0.528 -0.9925  1.2958  0.4203
 4503SOL    HW219473  11.121   5.093   0.623  1.2989 -1.7027  0.3518
 4504SOL     OW19474  10.387  12.048   3.227  0.2807  0.5628  0.5672
 4504SOL    HW119475  10.444  12.125   3.219  2.1085 -0.8447 -1.2414
 4504SOL    HW219476  10.323  12.058   3.157  2.5623 -1.0209 -1.9351
 4505SOL     OW19477   5.757   8.779  10.664  0.3170  0.5860  0.2467
 4505SOL    HW119478   5.804   8.824  10.734 -0.1387  1.4595 -0.0055
 4505SOL    HW219479   5.818   8.778  10.590  0.9160 -0.6038  0.7238
 4506SOL     OW19480   1.554   8.424   5.659  0.1392  0.0216  0.3371
 4506SOL    HW119481   1.583   8.430   5.751 -1.9546  2.6674  0.9646
 4506SOL    HW219482   1.476   8.370   5.662  0.2077 -0.0872  0.0915
 4507SOL     OW19483   6.748   1.889   4.409  0.2257 -0.6494  0.2224
 4507SOL    HW119484   6.747   1.859   4.500 -0.8656 -1.2215  0.0412
 4507SOL    HW219485   6.754   1.809   4.357 -1.0054 -0.4633 -0.2341
 4508SOL     OW19486  10.577  12.219   2.613 -0.2722  0.5361 -0.3784
 4508SOL    HW119487  10.631  12.201   2.536 -0.6311 -1.4673 -0.2214
 4508SOL    HW219488  10.537  12.305   2.596  1.6284  1.2893 -1.2329
 4509SOL     OW19489   0.865  10.826   6.596 -0.4159  0.4336  0.4929
 4509SOL    HW119490   0.779  10.783   6.594 -0.0551 -0.2859  0.1162
 4509SOL    HW219491   0.872  10.871   6.512  0.2283 -0.8516 -0.1802
 4510SOL     OW19492   3.094   1.989   1.977  0.1720 -0.2417  0.0430
 4510SOL    HW119493   3.090   1.923   2.047  1.3705  1.0223  1.3676
 4510SOL    HW219494   3.104   1.937   1.897 -0.6325 -1.7161  0.8451
 4511SOL     OW19495  10.269   5.061   4.040 -0.2772  0.0728  0.2022
 4511SOL    HW119496  10.331   4.992   4.063 -0.1875  0.3969  0.9359
 4511SOL    HW219497  10.272   5.122   4.113 -0.6752  0.6403 -0.2456
 4512SOL     OW19498  10.035  12.196   3.212 -0.6447  0.5103  0.0363
 4512SOL    HW119499  10.021  12.114   3.259 -0.8536  0.0950 -0.7278
 4512SOL    HW219500  10.028  12.172   3.120 -4.0071  1.9693 -0.2202
 4513SOL     OW19501   0.122   6.037   1.888 -0.3754 -0.4003 -0.3119
 4513SOL    HW119502   0.059   6.110   1.886 -2.2377 -1.8266  1.7105
 4513SOL    HW219503   0.150   6.032   1.979  1.4974 -0.8279 -0.8679
 4514SOL     OW19504   5.855   5.471   4.300  0.1950  0.0234  0.4572
 4514SOL    HW119505   5.878   5.442   4.388 -0.5132 -2.2006 -0.0277
 4514SOL    HW219506   5.873   5.396   4.244 -2.1168  0.3389 -0.8660
 4515SOL     OW19507   8.552   9.250   2.051  0.1732  0.2137 -0.3556
 4515SOL    HW119508   8.577   9.173   2.103  1.4744  0.2026 -0.9526
 4515SOL    HW219509   8.635   9.292   2.029 -0.2691  0.0176 -2.7014
 4516SOL     OW19510  12.204   9.269   4.163 -0.4657 -0.3343  0.1775
 4516SOL    HW119511  12.125   9.266   4.109  0.0146  0.5527 -0.6236
 4516SOL    HW219512  12.205   9.186   4.210 -1.2227 -0.8797 -0.7315
 4517SOL     OW19513   8.012  10.422  11.865 -0.6409 -0.1268  0.8897
 4517SOL    HW119514   8.084  10.409  11.803 -2.2925  0.9056 -1.4060
 4517SOL    HW219515   8.054  10.459  11.943  1.2984  0.4867 -0.3701
 4518SOL     OW19516   6.510   6.144   8.021  0.3538 -0.3240  0.1635
 4518SOL    HW119517   6.485   6.150   8.113 -0.2796 -0.6114  0.0110
 4518SOL    HW219518   6.575   6.074   8.019  2.4520  1.4954  0.8143
 4519SOL     OW19519  11.291   9.964   2.812  0.2063  0.0870  0.1353
 4519SOL    HW119520  11.228   9.897   2.786 -0.1771 -0.9198  3.2795
 4519SOL    HW219521  11.376   9.921   2.804  0.2833  0.4494 -1.2169
 4520SOL     OW19522   9.139  12.058   7.951 -0.2924 -0.4163  0.1436
 4520SOL    HW119523   9.061  12.053   7.897 -0.0481  1.3600 -0.4371
 4520SOL    HW219524   9.136  12.145   7.991  0.8502 -0.7182  0.9541
 4521SOL     OW19525   4.028   8.507   8.822  0.1927 -1.1181 -0.0778
 4521SOL    HW119526   4.075   8.574   8.772 -0.0898 -3.0168 -3.1462
 4521SOL    HW219527   3.936   8.528   8.808  0.1077 -1.1169  0.4767
 4522SOL     OW19528   5.740   9.525   1.398 -0.5176  0.3691 -0.0957
 4522SOL    HW119529   5.796   9.448   1.406 -0.5188  0.4153  0.4211
 4522SOL    HW219530   5.800   9.599   1.404 -0.5746  0.4123 -0.0506
 4523SOL     OW19531   2.853   4.761  11.212 -0.0506  0.3026  0.3052
 4523SOL    HW119532   2.945   4.788  11.212  0.4981 -1.4002  1.2648
 4523SOL    HW219533   2.827   4.764  11.304  0.1508 -2.4979  0.5567
 4524SOL     OW19534   9.654   4.618   8.985 -0.0110 -0.4270 -0.2891
 4524SOL    HW119535   9.587   4.665   8.935  1.0794  1.3882 -0.1751
 4524SOL    HW219536   9.725   4.603   8.922  1.1563  1.4120  0.4788
 4525SOL     OW19537  11.337  11.582   9.707 -0.3569 -0.0235 -0.4316
 4525SOL    HW119538  11.345  11.669   9.668 -0.3644 -0.0009 -0.3831
 4525SOL    HW219539  11.400  11.529   9.659 -1.6386 -0.4435 -1.7357
 4526SOL     OW19540   4.616   4.281  10.229  0.1422 -0.4423  0.2947
 4526SOL    HW119541   4.678   4.274  10.156 -0.1694 -1.1141  0.0901
 4526SOL    HW219542   4.615   4.375  10.250  3.2671 -0.6807  2.1063
 4527SOL     OW19543   4.518   4.995   2.454  0.1168 -0.3680 -0.0155
 4527SOL    HW119544   4.536   5.089   2.463 -1.9837 -0.0372  1.3339
 4527SOL    HW219545   4.538   4.960   2.541 -2.0698 -0.5913  0.4332
 4528SOL     OW19546   6.867   5.062  11.126 -0.4153  0.9673 -1.0048
 4528SOL    HW119547   6.801   5.106  11.179  0.6184  0.4845  0.7736
 4528SOL    HW219548   6.904   5.131  11.071 -0.4302  1.8463  0.0506
 4529SOL     OW19549   2.344   1.156   3.065 -0.0641  0.3190 -0.0346
 4529SOL    HW119550   2.337   1.175   2.971  1.1992 -0.4399 -0.3043
 4529SOL    HW219551   2.366   1.240   3.105  3.8114 -0.0525 -1.0058
 4530SOL     OW19552  12.047  11.764   7.430 -0.0518  0.1238  0.8019
 4530SOL    HW119553  12.076  11.839   7.377  0.2460 -0.4353  0.1670
 4530SOL    HW219554  12.047  11.797   7.520 -3.4882  2.0765  0.2755
 4531SOL     OW19555   5.665  11.038   3.624 -0.4002  0.0102  0.0999
 4531SOL    HW119556   5.575  11.007   3.631 -0.7209  0.1520 -2.3345
 4531SOL    HW219557   5.660  11.117   3.570  1.0201  1.0815  1.4320
 4532SOL     OW19558  11.344   9.517   4.467 -0.2547 -0.5447 -0.2062
 4532SOL    HW119559  11.332   9.488   4.557 -1.9235 -0.1026 -0.2524
 4532SOL    HW219560  11.291   9.457   4.415 -1.9861  1.1281 -0.5191
 4533SOL     OW19561   2.472   4.714   2.581 -0.1728  0.3270  0.3246
 4533SOL    HW119562   2.383   4.715   2.546 -0.5812 -2.3030  1.0736
 4533SOL    HW219563   2.521   4.657   2.522  0.6061  0.4707  0.8118
 4534SOL     OW19564   2.119   1.408   6.536  0.0581 -0.2088 -0.0734
 4534SOL    HW119565   2.124   1.390   6.630 -0.7250 -2.0304 -0.3202
 4534SOL    HW219566   2.067   1.335   6.502  0.9669  0.0121 -2.0302
 4535SOL     OW19567  10.674   2.679   5.667  0.2782 -0.0120  0.2091
 4535SOL    HW119568  10.699   2.607   5.609 -0.9168  0.0642 -0.4103
 4535SOL    HW219569  10.601   2.722   5.623  1.2129  1.8292  0.3972
 4536SOL     OW19570   6.090   8.371  10.820 -0.0360  0.2435  0.3176
 4536SOL    HW119571   6.105   8.284  10.783  0.1456 -0.4377  1.8847
 4536SOL    HW219572   6.135   8.431  10.761  0.3776 -0.7914 -0.4404
 4537SOL     OW19573  12.283  11.926   6.909 -0.3171  0.4506  0.1181
 4537SOL    HW119574  12.313  11.851   6.960  1.0463  1.1235  0.3679
 4537SOL    HW219575  12.362  11.980   6.898 -1.1081  1.4868 -0.6657
 4538SOL     OW19576  10.207  11.227   2.280  0.2761  0.3314 -0.5605
 4538SOL    HW119577  10.218  11.248   2.188  1.2708 -0.2262 -0.5728
 4538SOL    HW219578  10.124  11.270   2.304  0.8198  1.8617 -1.2833
 4539SOL     OW19579   1.374  10.515   0.689 -0.2379 -0.1912 -0.5572
 4539SOL    HW119580   1.300  10.518   0.628 -0.7153 -1.3290 -0.0634
 4539SOL    HW219581   1.424  10.594   0.670 -1.3264  0.3606 -1.2261
 4540SOL     OW19582   2.748   0.780   3.869 -0.0886 -0.3388 -0.6847
 4540SOL    HW119583   2.739   0.869   3.834 -2.3769  0.1845  0.9613
 4540SOL    HW219584   2.794   0.792   3.952 -1.7239 -0.4176  0.2789
 4541SOL     OW19585   6.121   5.356   1.230  0.0005 -0.0885 -0.1582
 4541SOL    HW119586   6.101   5.293   1.299  1.0884 -0.9572 -0.6016
 4541SOL    HW219587   6.107   5.442   1.271 -0.0593 -0.5943  0.9215
 4542SOL     OW19588   2.338   5.618   5.902 -0.1555  0.0188  0.5428
 4542SOL    HW119589   2.348   5.711   5.918  1.5140 -0.3770  2.2452
 4542SOL    HW219590   2.363   5.576   5.985 -2.7615 -1.9049  0.4794
 4543SOL     OW19591  10.454   5.673  10.458 -0.4573  0.2763  0.0383
 4543SOL    HW119592  10.485   5.748  10.509 -0.9917 -0.9779  2.3291
 4543SOL    HW219593  10.535   5.629  10.431 -0.1577  0.2348  0.9566
 4544SOL     OW19594  11.972   1.657  11.596  0.0756  0.5473 -0.8521
 4544SOL    HW119595  12.061   1.665  11.630 -0.4157  1.8292  0.1959
 4544SOL    HW219596  11.950   1.744  11.564 -0.5338  0.0511 -1.8498
 4545SOL     OW19597  11.728   7.435  11.647  0.1484  0.2158 -0.3265
 4545SOL    HW119598  11.766   7.444  11.560  0.6246 -0.6942 -0.2236
 4545SOL    HW219599  11.641   7.475  11.640  0.7747  1.5462 -0.7911
 4546SOL     OW19600   8.827  10.517   0.497 -0.7474 -0.2780  0.5045
 4546SOL    HW119601   8.809  10.522   0.591  0.7495  0.0263  0.7961
 4546SOL    HW219602   8.774  10.587   0.460 -0.7989  0.0733  1.2143
 4547SOL     OW19603   8.201   4.705   1.686 -0.0450 -0.0470 -0.2020
 4547SOL    HW119604   8.276   4.652   1.661  1.7358  1.7725  0.9259
 4547SOL    HW219605   8.206   4.711   1.781 -2.8321 -1.4746  0.1325
 4548SOL     OW19606   6.385  11.839   4.538  0.3616 -0.2738  0.2367
 4548SOL    HW119607   6.396  11.840   4.633 -2.1195 -0.3232  0.5763
 4548SOL    HW219608   6.337  11.919   4.518  0.4011 -0.5198 -0.9162
 4549SOL     OW19609   2.838   8.567  11.654  0.0963  0.1967 -0.5536
 4549SOL    HW119610   2.900   8.579  11.726 -0.3734 -1.3175  0.1636
 4549SOL    HW219611   2.805   8.477  11.666 -1.6219  0.6737 -1.3857
 4550SOL     OW19612   9.264   1.760   6.638  0.1328  0.1385 -0.1335
 4550SOL    HW119613   9.205   1.728   6.705 -0.8242  0.8652 -0.6001
 4550SOL    HW219614   9.335   1.696   6.635 -1.2194 -1.4028 -0.3732
 4551SOL     OW19615   9.211   2.264   7.954 -0.1020  0.0819 -0.6999
 4551SOL    HW119616   9.225   2.213   7.875 -0.3615 -0.1198 -0.6181
 4551SOL    HW219617   9.228   2.355   7.928  0.9969 -0.1134 -0.6876
 4552SOL     OW19618   3.060   5.538   8.074 -0.5602  0.3851  0.5807
 4552SOL    HW119619   3.031   5.546   8.165 -0.2524  1.2594  0.6113
 4552SOL    HW219620   3.149   5.505   8.080 -0.5264  0.4798  0.5966
 4553SOL     OW19621   9.001   2.921   5.174  0.3983  0.3199 -0.0807
 4553SOL    HW119622   9.035   2.834   5.197 -0.2437  0.0734 -0.0416
 4553SOL    HW219623   9.036   2.978   5.242  1.6082  0.2813 -0.6301
 4554SOL     OW19624  11.855   5.923   9.018 -0.3770  0.6760  1.1039
 4554SOL    HW119625  11.893   5.948   8.933 -0.1981  0.5525  1.1467
 4554SOL    HW219626  11.836   6.006   9.061 -0.4969  0.7404  0.9306
 4555SOL     OW19627   9.333   8.709  10.831  0.3886  0.6559  0.5630
 4555SOL    HW119628   9.297   8.655  10.760  0.3758  0.8441  0.4235
 4555SOL    HW219629   9.425   8.683  10.836  0.1164 -0.2072  1.2822
 4556SOL     OW19630  11.576   8.512   6.554 -0.2131 -0.3232 -0.3182
 4556SOL    HW119631  11.646   8.564   6.594 -0.0595 -0.3003 -0.6150
 4556SOL    HW219632  11.496   8.541   6.598  0.1379 -1.4589  1.1573
 4557SOL     OW19633   8.332   9.532   8.760  0.2914  0.3111 -0.9008
 4557SOL    HW119634   8.387   9.608   8.778 -0.4855  0.9717 -1.2538
 4557SOL    HW219635   8.317   9.492   8.846  0.0185  1.0499 -0.6019
 4558SOL     OW19636  12.160  11.910   8.310 -0.1655  0.2626 -0.5727
 4558SOL    HW119637  12.211  11.935   8.232  0.5874 -0.9445 -0.4945
 4558SOL    HW219638  12.087  11.971   8.311 -0.4699  0.0030 -2.5129
 4559SOL     OW19639   6.474  10.348   4.160 -0.1831 -0.0526  0.6342
 4559SOL    HW119640   6.411  10.306   4.218 -1.4815 -1.6497 -1.7553
 4559SOL    HW219641   6.559  10.317   4.192 -0.7750 -0.1685  2.1816
 4560SOL     OW19642  11.262   9.222   4.044 -0.0523  0.4848  0.3488
 4560SOL    HW119643  11.266   9.217   4.139 -2.2159 -0.3020  0.4421
 4560SOL    HW219644  11.177   9.185   4.021  0.0483  1.4500 -1.8424
 4561SOL     OW19645   1.869   5.234   1.932 -0.3353  0.0102 -0.1540
 4561SOL    HW119646   1.850   5.258   1.841 -2.1470 -0.6193  0.0125
 4561SOL    HW219647   1.874   5.318   1.977  1.3410  0.3685 -0.9394
 4562SOL     OW19648   8.174   2.334   4.991 -0.0884 -0.2510  0.0920
 4562SOL    HW119649   8.080   2.316   4.991 -0.0931 -0.2310  0.4668
 4562SOL    HW219650   8.200   2.327   5.082  0.4420 -1.0937 -0.1158
 4563SOL     OW19651   0.111   7.075   9.208 -0.7517 -0.1325 -0.7681
 4563SOL    HW119652   0.206   7.064   9.209 -0.8038 -0.7376  0.6392
 4563SOL    HW219653   0.077   6.990   9.237 -1.6761  0.3096 -0.5312
 4564SOL     OW19654   2.186   6.163  12.445 -0.1380 -0.3313  0.6897
 4564SOL    HW119655   2.099   6.156  12.483  0.7236  1.0841  3.1846
 4564SOL    HW219656   2.246   6.144  12.517  1.6433 -0.1114 -0.6393
 4565SOL     OW19657  11.392   0.532   9.124  0.1705  0.3557  0.0840
 4565SOL    HW119658  11.344   0.580   9.057  1.9567  0.6361 -1.0687
 4565SOL    HW219659  11.359   0.566   9.207 -3.1585 -1.0247 -0.5258
 4566SOL     OW19660   3.182   0.323   6.171 -0.3379  0.7832 -0.3879
 4566SOL    HW119661   3.242   0.268   6.121  1.3175  1.3022  0.9400
 4566SOL    HW219662   3.116   0.351   6.108  0.2549 -0.6023 -1.6680
 4567SOL     OW19663   5.153   1.994   2.717  0.0647 -0.9282  0.4021
 4567SOL    HW119664   5.209   2.067   2.744  1.1325 -1.2001 -0.9858
 4567SOL    HW219665   5.109   1.967   2.798  0.5566  0.4689  1.1736
 4568SOL     OW19666   7.326   4.768  12.418 -0.6507 -0.3588  0.6042
 4568SOL    HW119667   7.297   4.858  12.402 -1.4170 -0.5807  0.6779
 4568SOL    HW219668   7.347   4.766  12.511  0.6765  0.0896  0.3283
 4569SOL     OW19669  11.060   9.071   0.848 -0.1451  0.1511  0.0045
 4569SOL    HW119670  11.004   9.100   0.920  0.0185 -1.0731  0.6419
 4569SOL    HW219671  11.003   9.021   0.791 -0.3749  1.4797 -0.9845
 4570SOL     OW19672  10.495   9.481   1.706 -0.6000 -0.0300 -0.1928
 4570SOL    HW119673  10.496   9.398   1.754 -2.2947 -0.6535 -1.1378
 4570SOL    HW219674  10.581   9.486   1.666 -0.3019 -1.1000  0.2614
 4571SOL     OW19675  12.060   0.593   2.665 -0.7992  0.1658  0.0448
 4571SOL    HW119676  12.089   0.616   2.754  0.5170  1.6243 -0.7185
 4571SOL    HW219677  12.105   0.655   2.608 -2.1530 -0.2901 -1.6095
 4572SOL     OW19678   6.451  10.669   4.487 -0.2539  0.2669  0.2034
 4572SOL    HW119679   6.502  10.685   4.408 -0.5350 -2.2637 -0.5813
 4572SOL    HW219680   6.514  10.681   4.558  0.7209 -0.0666 -0.5732
 4573SOL     OW19681   9.220   2.690  10.963  0.6273  0.1401 -0.0303
 4573SOL    HW119682   9.222   2.597  10.939 -0.6824 -0.0810  0.6244
 4573SOL    HW219683   9.267   2.695  11.046  0.9047  0.0965 -0.1867
 4574SOL     OW19684   5.135   0.760   1.065 -0.6333 -0.3656  0.5996
 4574SOL    HW119685   5.076   0.754   1.141  0.6266  1.3061  1.7841
 4574SOL    HW219686   5.143   0.854   1.048 -1.0908 -0.6902 -1.8384
 4575SOL     OW19687  10.801   2.246   6.964  0.0783 -0.1954 -0.8944
 4575SOL    HW119688  10.755   2.330   6.968  0.1293 -0.2014 -0.0985
 4575SOL    HW219689  10.881   2.265   6.915 -0.4343 -0.0369 -1.7062
 4576SOL     OW19690   7.016   7.170  11.453  0.6401 -0.3117 -0.2358
 4576SOL    HW119691   7.043   7.151  11.543 -1.0168  2.9619  1.0933
 4576SOL    HW219692   6.926   7.139  11.447 -0.0714  1.5547  0.0853
 4577SOL     OW19693   3.218   7.114  10.429  0.3582 -0.1191 -0.3904
 4577SOL    HW119694   3.215   7.121  10.333 -0.0273  0.8114 -0.3258
 4577SOL    HW219695   3.126   7.104  10.455  0.4919 -0.7157 -0.1361
 4578SOL     OW19696   1.527   5.104   9.383 -0.3578 -0.3434 -0.4562
 4578SOL    HW119697   1.547   5.014   9.356  2.7195  0.2057 -0.3359
 4578SOL    HW219698   1.578   5.159   9.323 -2.2686  1.3853 -0.6192
 4579SOL     OW19699   9.070   5.937  11.364 -0.7588  0.4622  0.2398
 4579SOL    HW119700   9.117   5.858  11.336  0.0888  1.1490 -0.3397
 4579SOL    HW219701   8.978   5.918  11.344 -0.5312 -0.2681 -0.1619
 4580SOL     OW19702  11.525   9.634   7.387 -0.3859  0.1013  0.5881
 4580SOL    HW119703  11.487   9.580   7.318  0.4539 -1.1355  1.0500
 4580SOL    HW219704  11.460   9.702   7.404 -1.1086 -0.2810 -0.5907
 4581SOL     OW19705  11.222   3.347  10.471 -0.1085  0.4504 -0.3344
 4581SOL    HW119706  11.252   3.421  10.524  0.5494  1.5927 -2.2217
 4581SOL    HW219707  11.276   3.349  10.392  0.5715 -2.6480 -0.0834
 4582SOL     OW19708   8.362   6.438   9.352  0.2425 -0.0596 -0.2100
 4582SOL    HW119709   8.441   6.478   9.316 -0.0890 -0.4578 -1.4607
 4582SOL    HW219710   8.349   6.360   9.298 -0.9480 -0.0525  0.0407
 4583SOL     OW19711  10.706  10.353   9.085 -0.0132 -0.1045 -0.2018
 4583SOL    HW119712  10.653  10.350   9.165  0.9557  1.1255  0.5346
 4583SOL    HW219713  10.712  10.262   9.057 -0.4231 -0.5620  1.1076
 4584SOL     OW19714   2.403   3.265   1.407  0.1972  0.1772  0.0448
 4584SOL    HW119715   2.358   3.295   1.485 -1.5000 -1.3011 -0.2968
 4584SOL    HW219716   2.492   3.244   1.437 -0.5285 -0.7112  1.6705
 4585SOL     OW19717   0.811   4.337   7.659  0.0668  0.4451  0.4242
 4585SOL    HW119718   0.835   4.389   7.581  1.9181  0.0089  0.6516
 4585SOL    HW219719   0.760   4.398   7.713  0.1245  1.2613 -0.4015
 4586SOL     OW19720   5.332   8.782   1.420 -0.5966  0.1520  0.4516
 4586SOL    HW119721   5.418   8.780   1.461  0.0395 -1.6454 -0.8231
 4586SOL    HW219722   5.279   8.722   1.473 -1.3373  1.8474  1.6982
 4587SOL     OW19723   7.382   6.704   6.950  0.6363  0.3084  0.2750
 4587SOL    HW119724   7.352   6.618   6.919  0.8738  0.6383 -0.9186
 4587SOL    HW219725   7.309   6.762   6.934  0.3253  0.2724  1.4622
 4588SOL     OW19726   0.711  10.064   5.336  0.3052 -0.1578 -0.2588
 4588SOL    HW119727   0.783  10.002   5.329 -0.1117 -0.4814 -2.4365
 4588SOL    HW219728   0.632  10.012   5.325 -0.2421  0.3132  1.2491
 4589SOL     OW19729   6.029   5.009   7.900  0.1138 -0.4398  0.0310
 4589SOL    HW119730   5.963   5.025   7.968  1.6289  0.3502  1.4022
 4589SOL    HW219731   6.085   4.940   7.936  0.3648 -0.7034 -0.8457
 4590SOL     OW19732   0.872   3.053   6.269  0.0830 -0.1162  0.2664
 4590SOL    HW119733   0.792   3.001   6.257 -1.3829  2.0084  0.2010
 4590SOL    HW219734   0.889   3.049   6.363  0.2627 -1.0594  0.2030
 4591SOL     OW19735   0.852   0.120   2.013 -0.9340 -0.0455 -0.1059
 4591SOL    HW119736   0.774   0.163   2.048 -1.7091 -1.6619  0.2297
 4591SOL    HW219737   0.858   0.151   1.923 -1.9074  0.1765 -0.1078
 4592SOL     OW19738   9.466  12.412   2.010 -0.1629 -0.2234  0.1855
 4592SOL    HW119739   9.414  12.489   1.990  0.6499  0.1717 -0.4370
 4592SOL    HW219740   9.539  12.414   1.948  0.3716 -0.9918  0.7562
 4593SOL     OW19741  11.557   1.979   2.195 -0.5217  0.5858 -0.9219
 4593SOL    HW119742  11.501   1.991   2.272 -0.9000  0.3398 -1.1538
 4593SOL    HW219743  11.579   2.068   2.167  0.5526  0.6742  0.1329
 4594SOL     OW19744   6.560   1.877   1.018 -0.4126 -0.3381  0.3710
 4594SOL    HW119745   6.593   1.796   1.058 -1.3630 -0.1671  1.5813
 4594SOL    HW219746   6.538   1.933   1.093 -1.3794  0.3682 -0.4104
 4595SOL     OW19747   5.884   0.554  11.670  0.2109  0.0725  0.1921
 4595SOL    HW119748   5.850   0.467  11.692 -0.5079  0.4799  0.7376
 4595SOL    HW219749   5.977   0.540  11.653  1.0803 -0.2045  4.2503
 4596SOL     OW19750   8.936   5.554   5.154 -0.2793 -0.0376  0.1848
 4596SOL    HW119751   8.948   5.586   5.244  2.2545  1.6437 -0.6440
 4596SOL    HW219752   9.024   5.530   5.126 -0.5762  1.8437 -2.6786
 4597SOL     OW19753   3.911  10.475   5.524 -0.2122 -0.1905  0.5992
 4597SOL    HW119754   3.894  10.514   5.438  0.3642  0.7373  0.8877
 4597SOL    HW219755   3.958  10.394   5.504 -2.3120 -1.3132 -0.0616
 4598SOL     OW19756   1.997   4.599   8.068 -0.2139  0.1770 -0.5829
 4598SOL    HW119757   2.053   4.669   8.036 -0.1947  0.4009 -0.0825
 4598SOL    HW219758   2.026   4.585   8.159 -1.8431  1.2297  0.1410
 4599SOL     OW19759   6.850   0.117   5.255  0.0450  0.0251 -0.7622
 4599SOL    HW119760   6.836   0.024   5.273  0.1727 -0.0054 -0.8187
 4599SOL    HW219761   6.926   0.119   5.197 -0.4222  0.1160 -1.3878
 4600SOL     OW19762   1.984   4.900   8.672 -0.1432 -0.8106 -0.2490
 4600SOL    HW119763   1.937   4.981   8.654 -1.1952 -1.6708 -1.6280
 4600SOL    HW219764   2.021   4.912   8.759  1.3413  1.8793 -1.1434
 4601SOL     OW19765  11.853   1.870   1.702  0.2675  0.3456 -0.1648
 4601SOL    HW119766  11.764   1.839   1.684  0.4781  0.0012 -0.6279
 4601SOL    HW219767  11.851   1.962   1.675 -0.1750  0.5670  0.5961
 4602SOL     OW19768   3.414   2.210   9.354  0.3687  0.3333 -0.4894
 4602SOL    HW119769   3.408   2.289   9.300  1.2794  0.2020 -0.8034
 4602SOL    HW219770   3.467   2.236   9.429 -1.9863  0.8900  1.1018
 4603SOL     OW19771   6.940  11.095  10.618 -0.0592  0.2167 -0.0008
 4603SOL    HW119772   7.010  11.160  10.621  0.6967 -0.6041  0.6244
 4603SOL    HW219773   6.984  11.013  10.595 -0.2795 -0.9400  3.1321
 4604SOL     OW19774   4.856  11.992   9.847 -0.0114  0.4648  0.7721
 4604SOL    HW119775   4.761  11.986   9.836 -0.1548  1.5892  1.1930
 4604SOL    HW219776   4.870  11.976   9.940  0.1770  0.6072  0.7677
 4605SOL     OW19777   9.259  10.179   7.942  0.0988 -0.5144  0.1677
 4605SOL    HW119778   9.163  10.180   7.946  0.1393  0.8103  2.2754
 4605SOL    HW219779   9.282  10.086   7.946 -1.0728 -1.0040 -2.3905
 4606SOL     OW19780   4.312   8.549   8.311 -0.3743  0.0748  0.1087
 4606SOL    HW119781   4.233   8.496   8.301  0.3200 -1.1946  1.1442
 4606SOL    HW219782   4.342   8.531   8.400  0.8275  0.9011 -0.1081
 4607SOL     OW19783   3.354   9.274   2.371 -0.0649  0.1128 -0.8184
 4607SOL    HW119784   3.366   9.344   2.434 -0.4967  0.7357 -1.4150
 4607SOL    HW219785   3.329   9.318   2.290 -3.3766 -0.8332 -0.4818
 4608SOL     OW19786  10.174   2.794   9.130  0.2623 -0.1995 -0.4576
 4608SOL    HW119787  10.218   2.795   9.045  0.1886  1.2110 -0.4935
 4608SOL    HW219788  10.121   2.874   9.131 -1.1297 -1.0836  0.2034
 4609SOL     OW19789   8.261   9.649   9.898 -0.2872 -0.3042  0.3353
 4609SOL    HW119790   8.179   9.690   9.925  0.0779  1.0214 -0.4927
 4609SOL    HW219791   8.316   9.722   9.869  0.1292 -1.4025 -1.8849
 4610SOL     OW19792   8.649   0.750   4.828  0.4587 -0.1133 -0.4110
 4610SOL    HW119793   8.685   0.771   4.742 -1.0126 -2.4278 -1.6821
 4610SOL    HW219794   8.714   0.783   4.890  1.5477  1.6353 -2.3647
 4611SOL     OW19795   5.189  12.445   1.147 -0.6090 -0.6849  0.2186
 4611SOL    HW119796   5.226  12.518   1.197 -1.1496  0.0100 -0.3658
 4611SOL    HW219797   5.264  12.402   1.107 -0.2230 -0.8942  1.1655
 4612SOL     OW19798   6.265   2.955   8.150  0.1334 -0.0707  0.3457
 4612SOL    HW119799   6.283   3.039   8.108 -1.3724  0.0773 -0.0444
 4612SOL    HW219800   6.352   2.917   8.165  0.7872  0.8033 -1.0014
 4613SOL     OW19801   8.377   2.690   0.427  0.2490  0.3596  0.6622
 4613SOL    HW119802   8.333   2.697   0.342  1.5708  1.1747  0.0065
 4613SOL    HW219803   8.338   2.613   0.469 -0.1506 -0.2997 -0.8608
 4614SOL     OW19804   3.657   7.589   7.207  0.0599 -0.1614 -0.0425
 4614SOL    HW119805   3.705   7.656   7.255  1.4892 -0.2849 -1.2003
 4614SOL    HW219806   3.566   7.616   7.212  0.5477  1.6185 -0.0630
 4615SOL     OW19807   9.088   8.297   1.873 -0.0262  0.0596 -0.1941
 4615SOL    HW119808   9.034   8.356   1.926  0.2230  0.3853 -0.2980
 4615SOL    HW219809   9.025   8.249   1.819 -0.5569 -2.2282  2.2376
 4616SOL     OW19810   3.415   1.935  12.358  0.2338 -0.0112  0.1069
 4616SOL    HW119811   3.406   1.979  12.442 -2.1139  0.9371 -0.5806
 4616SOL    HW219812   3.417   1.842  12.380  0.6076  0.2579  1.2658
 4617SOL     OW19813   7.493   3.870  12.016 -0.1235 -0.0650 -0.7928
 4617SOL    HW119814   7.483   3.837  12.105  0.7783 -0.8999 -0.9869
 4617SOL    HW219815   7.548   3.948  12.025 -0.5553  0.2138 -0.5548
 4618SOL     OW19816   2.654   0.434   2.313  0.6995 -1.0133 -0.5291
 4618SOL    HW119817   2.577   0.389   2.278 -0.3969 -0.4175  0.9567
 4618SOL    HW219818   2.619   0.516   2.348  2.0993 -0.5301 -0.2135
 4619SOL     OW19819   6.750  12.303  10.515  0.2570 -0.1927  0.3025
 4619SOL    HW119820   6.814  12.279  10.582 -2.1806 -0.5034  2.7009
 4619SOL    HW219821   6.714  12.386  10.547 -0.9954 -0.3763 -0.6028
 4620SOL     OW19822   3.664  11.317   9.431 -0.6802 -0.0392 -0.4597
 4620SOL    HW119823   3.701  11.405   9.433 -1.6953  0.3864 -0.0367
 4620SOL    HW219824   3.610  11.312   9.509 -0.3286 -1.1835 -0.2658
 4621SOL     OW19825   6.441   0.145  12.452  0.3493 -0.5268  0.1727
 4621SOL    HW119826   6.517   0.089  12.465  0.9334  0.2694  0.2236
 4621SOL    HW219827   6.425   0.142  12.358  0.3542 -0.8033  0.1793
 4622SOL     OW19828   5.924   1.454   3.798  0.5734  0.1102  0.2056
 4622SOL    HW119829   5.890   1.492   3.880 -0.2308 -1.1776  0.4976
 4622SOL    HW219830   5.982   1.522   3.763  0.0459  1.1530  1.2578
 4623SOL     OW19831   5.137   3.916   2.194 -0.1208  0.1811  0.3450
 4623SOL    HW119832   5.129   3.893   2.287  2.2541 -0.2953  0.4777
 4623SOL    HW219833   5.187   3.997   2.193 -1.2124  0.8851 -0.5193
 4624SOL     OW19834   1.426   1.757   4.634 -0.1943 -0.0946  0.1697
 4624SOL    HW119835   1.400   1.666   4.646  0.8966 -0.1241  3.1129
 4624SOL    HW219836   1.520   1.753   4.614 -0.2559  0.3715 -0.2277
 4625SOL     OW19837   6.054  11.427   2.191 -0.3334 -0.0678  0.3633
 4625SOL    HW119838   6.017  11.388   2.112 -2.3403  2.0730  0.1574
 4625SOL    HW219839   6.016  11.376   2.263  0.7481 -1.3964  0.0536
 4626SOL     OW19840   5.905   2.116   1.392 -0.5087 -0.0358 -0.4748
 4626SOL    HW119841   5.865   2.066   1.321  0.0853 -0.9519 -0.1787
 4626SOL    HW219842   5.964   2.177   1.349 -3.5857  2.7958 -1.1067
 4627SOL     OW19843  10.072   9.188  10.584  0.3797 -0.0321 -0.1217
 4627SOL    HW119844  10.069   9.127  10.658 -1.0841 -0.6606 -0.6674
 4627SOL    HW219845  10.134   9.256  10.612 -0.5172  0.0230  1.8958
 4628SOL     OW19846  11.804   7.739  10.717  0.0995 -0.6451  0.1367
 4628SOL    HW119847  11.833   7.730  10.626 -2.8552  0.2730 -1.0105
 4628SOL    HW219848  11.865   7.684  10.767  2.0838 -0.8482 -2.3042
 4629SOL     OW19849   9.312   6.208  11.772 -0.1129 -0.3752 -0.3800
 4629SOL    HW119850   9.392   6.164  11.743  0.0719 -0.0193 -0.4166
 4629SOL    HW219851   9.299   6.279  11.710 -1.6471 -1.6873 -1.6592
 4630SOL     OW19852   0.837   3.965   3.845  0.0837 -0.1748  0.0873
 4630SOL    HW119853   0.844   4.027   3.772 -0.7224  1.3990  1.2834
 4630SOL    HW219854   0.919   3.976   3.894 -0.8109  1.3462  1.3159
 4631SOL     OW19855   9.421   3.542   9.309 -0.6231 -0.4910  0.2246
 4631SOL    HW119856   9.507   3.554   9.349 -0.9931  1.8132  0.4949
 4631SOL    HW219857   9.429   3.585   9.223 -1.6941  0.4935  0.5910
 4632SOL     OW19858   9.292   5.008   1.001 -0.0509 -0.4608 -0.0990
 4632SOL    HW119859   9.299   4.917   0.975  0.6758 -0.0109 -1.5838
 4632SOL    HW219860   9.207   5.015   1.044 -0.6643 -1.5524 -1.1003
 4633SOL     OW19861   7.214   5.298   8.477 -0.5669  0.0268 -0.3071
 4633SOL    HW119862   7.258   5.297   8.392 -0.8286 -0.6471 -0.4411
 4633SOL    HW219863   7.210   5.206   8.503  1.4554  0.3649  1.4567
 4634SOL     OW19864   4.864  11.134  11.994 -0.2728 -0.2038  0.2343
 4634SOL    HW119865   4.891  11.115  11.904  1.7424 -0.8542  0.9386
 4634SOL    HW219866   4.780  11.179  11.984  0.9203  1.7476 -2.0801
 4635SOL     OW19867   1.800  10.665  10.880  0.3793  0.3338  0.1936
 4635SOL    HW119868   1.788  10.754  10.912  0.9636  0.2561  0.6553
 4635SOL    HW219869   1.721  10.646  10.830 -0.6239  0.4213  1.6964
 4636SOL     OW19870   7.187  10.789  11.914  0.3110 -0.1029 -0.0110
 4636SOL    HW119871   7.258  10.821  11.858  0.0533  0.4367 -0.0335
 4636SOL    HW219872   7.232  10.755  11.992  0.5083  2.1574  0.9360
 4637SOL     OW19873   0.357   1.281   7.298 -0.3861 -0.5303 -0.2105
 4637SOL    HW119874   0.280   1.333   7.321 -0.5614 -0.4026 -1.0401
 4637SOL    HW219875   0.372   1.301   7.205  1.9620  1.1626  0.4576
 4638SOL     OW19876  12.161   3.062   8.561 -1.0378 -0.0620  0.1919
 4638SOL    HW119877  12.088   3.086   8.617  0.0042  0.9454  1.1717
 4638SOL    HW219878  12.178   3.139   8.508 -0.4601 -0.1637  0.2212
 4639SOL     OW19879   8.113   0.966   5.550 -0.0796  0.0877 -0.2923
 4639SOL    HW119880   8.200   0.971   5.591  0.0076  0.3158 -0.4958
 4639SOL    HW219881   8.116   0.885   5.498 -0.4858 -0.6384  0.8005
 4640SOL     OW19882  10.665   3.284   8.329  0.0445  0.4937  0.3025
 4640SOL    HW119883  10.704   3.366   8.360 -0.3196  1.3170 -1.3070
 4640SOL    HW219884  10.683   3.283   8.235  2.1349 -2.4701  0.5958
 4641SOL     OW19885   0.016   0.528  10.228  0.1589 -0.3472 -0.3235
 4641SOL    HW119886   0.067   0.493  10.300 -0.7096  0.2631  0.6209
 4641SOL    HW219887  -0.064   0.562  10.269 -0.0364  0.6722 -1.4782
 4642SOL     OW19888   9.744  12.010   8.305  0.0894 -0.2646  0.5106
 4642SOL    HW119889   9.676  11.950   8.337 -1.5322  0.6371 -1.0573
 4642SOL    HW219890   9.786  11.962   8.233  0.2495 -0.3114  0.6330
 4643SOL     OW19891   3.878  11.610   5.823  0.4788 -0.1741  0.5473
 4643SOL    HW119892   3.943  11.679   5.834  1.5946 -1.3189  1.3122
 4643SOL    HW219893   3.845  11.623   5.734 -0.5281  2.3187  1.1835
 4644SOL     OW19894   1.047   6.994  10.578  0.5770  0.5548 -0.0412
 4644SOL    HW119895   1.107   6.936  10.530 -0.4653 -0.0819 -0.6235
 4644SOL    HW219896   1.055   6.965  10.669 -0.4047 -0.9933 -0.4062
 4645SOL     OW19897   1.017   5.079   0.594 -0.5448  0.4582  0.1891
 4645SOL    HW119898   0.941   5.022   0.583  0.5127 -1.4746  2.2186
 4645SOL    HW219899   1.014   5.106   0.686  0.8121  0.9708  0.1051
 4646SOL     OW19900   0.874  10.367   5.891  0.3651 -0.2436 -0.5902
 4646SOL    HW119901   0.789  10.387   5.851 -0.1449 -1.3376 -0.0952
 4646SOL    HW219902   0.923  10.323   5.821  0.3905  0.0289 -0.7494
 4647SOL     OW19903   3.156   8.482   2.333 -0.3722 -0.0815  0.2803
 4647SOL    HW119904   3.204   8.550   2.380 -1.0067  1.6737 -1.4484
 4647SOL    HW219905   3.127   8.525   2.252  1.8016 -3.2292 -2.4515
 4648SOL     OW19906   3.035  11.896   1.848 -0.5884  0.3386  0.3553
 4648SOL    HW119907   3.022  11.876   1.755 -1.9144  0.8093  0.4141
 4648SOL    HW219908   3.124  11.931   1.853 -0.4891  0.2738 -0.7361
 4649SOL     OW19909   1.817   3.480   9.805 -0.4909  0.3360 -0.0754
 4649SOL    HW119910   1.809   3.440   9.718  0.7146 -0.5874  0.2098
 4649SOL    HW219911   1.728   3.482   9.839 -1.2199  2.0351 -1.8849
 4650SOL     OW19912   6.033  11.151  10.837  0.5272  0.1043 -0.2295
 4650SOL    HW119913   6.025  11.055  10.836  0.0194  0.1075  1.0604
 4650SOL    HW219914   6.127  11.168  10.831  0.5769 -0.4484 -1.1397
 4651SOL     OW19915   2.333   5.051   0.604  0.4318 -0.2640 -0.6545
 4651SOL    HW119916   2.302   5.066   0.693  0.1039  0.6951 -0.9196
 4651SOL    HW219917   2.304   4.963   0.583  0.1772 -0.3535  0.0511
 4652SOL     OW19918  10.956   5.036   3.761 -0.0059  0.2529  0.0168
 4652SOL    HW119919  10.972   4.946   3.731  1.5546  0.0099  1.4136
 4652SOL    HW219920  11.020   5.049   3.831 -1.0258  2.0517  0.6650
 4653SOL     OW19921   5.290   3.921  11.430  0.5212 -0.4338  0.1636
 4653SOL    HW119922   5.315   3.833  11.404 -0.2719 -0.6873  0.2103
 4653SOL    HW219923   5.316   3.976  11.357  1.3407 -0.6514  0.2831
 4654SOL     OW19924   2.175  10.486   4.604 -0.3657  0.2839  0.1280
 4654SOL    HW119925   2.268  10.469   4.619 -0.2857  0.5762 -0.0302
 4654SOL    HW219926   2.131  10.445   4.679  0.1525  3.2025  2.1809
 4655SOL     OW19927   3.903   4.239   9.533  0.0208 -0.6488  0.0183
 4655SOL    HW119928   3.959   4.234   9.456 -0.1052 -1.8001 -0.0133
 4655SOL    HW219929   3.814   4.238   9.499 -0.0382  0.5630  0.1019
 4656SOL     OW19930   1.560   1.822   3.097 -0.1176  0.0609 -0.3221
 4656SOL    HW119931   1.510   1.848   3.019 -1.1058  1.5986  0.7735
 4656SOL    HW219932   1.578   1.904   3.142  1.8322 -0.6628  0.2832
 4657SOL     OW19933   7.863   4.673   3.376 -0.1383  0.8384  0.3989
 4657SOL    HW119934   7.826   4.595   3.417  1.2548  0.8158  1.7176
 4657SOL    HW219935   7.813   4.684   3.295 -1.6738 -0.2677  1.1446
 4658SOL     OW19936   9.100   4.854   3.280 -0.4433  0.0737  0.1433
 4658SOL    HW119937   9.176   4.864   3.338  0.1925  0.5993 -0.7581
 4658SOL    HW219938   9.059   4.940   3.278 -1.1560 -0.2417  0.7311
 4659SOL     OW19939   9.905   8.898   3.099 -0.2795  0.9436 -0.1567
 4659SOL    HW119940   9.934   8.932   3.184 -0.9770  0.8704  0.1213
 4659SOL    HW219941   9.935   8.962   3.035 -0.3795  1.3724  0.2216
 4660SOL     OW19942   9.287   3.461   4.765  0.3644 -0.2357 -0.1040
 4660SOL    HW119943   9.341   3.538   4.785  0.6265 -0.6688  0.9484
 4660SOL    HW219944   9.261   3.428   4.851 -1.0193 -0.4451 -0.5719
 4661SOL     OW19945  12.354   9.701   7.856 -0.0733  0.2615  0.0154
 4661SOL    HW119946  12.448   9.700   7.874 -0.3418  0.2347  1.5521
 4661SOL    HW219947  12.319   9.767   7.915 -1.3436 -1.5284  1.3888
 4662SOL     OW19948  11.831   7.324   1.470 -0.0302  0.3064  0.1579
 4662SOL    HW119949  11.850   7.289   1.383 -0.2892  1.8645 -0.5745
 4662SOL    HW219950  11.914   7.319   1.517  0.8991  2.1120 -1.1907
 4663SOL     OW19951   1.002   3.008   2.118  0.0395  0.4925 -0.1567
 4663SOL    HW119952   1.061   2.959   2.061  0.7126  0.5163  0.5178
 4663SOL    HW219953   1.059   3.056   2.178 -0.6289  1.5684 -0.3526
 4664SOL     OW19954   3.966   0.629  11.661  0.5320  0.0282 -0.0639
 4664SOL    HW119955   3.886   0.643  11.712  0.3319 -2.1697  0.2993
 4664SOL    HW219956   3.948   0.550  11.610  1.0805  1.5866 -2.8996
 4665SOL     OW19957   3.123   7.062   1.130 -0.2528  0.4301  0.1803
 4665SOL    HW119958   3.137   6.974   1.164  0.4452  0.9443  1.3267
 4665SOL    HW219959   3.091   7.112   1.206 -0.0038  1.3056 -0.2748
 4666SOL     OW19960   5.908   6.110   0.660 -0.1623 -0.2915 -0.5785
 4666SOL    HW119961   5.867   6.043   0.605  0.0820 -0.6850 -0.2815
 4666SOL    HW219962   5.940   6.176   0.598 -1.9367  0.4269 -0.7937
 4667SOL     OW19963  10.027   7.762   9.504 -0.3903  0.5735  0.7364
 4667SOL    HW119964  10.106   7.727   9.544 -0.2638  1.3482  1.1820
 4667SOL    HW219965   9.959   7.750   9.570 -0.5524  0.2884  0.5165
 4668SOL     OW19966   0.803   4.658   4.898 -0.2266  0.5550 -0.5223
 4668SOL    HW119967   0.850   4.659   4.982 -0.5471  0.4379 -0.3417
 4668SOL    HW219968   0.812   4.568   4.867  2.6185  1.2691 -2.1613
 4669SOL     OW19969   8.235   7.984   9.280  0.2462  0.3783 -0.0274
 4669SOL    HW119970   8.165   7.919   9.283  0.2146  0.2885 -1.7139
 4669SOL    HW219971   8.223   8.037   9.358 -2.6751  1.3400 -1.0123
 4670SOL     OW19972  11.248   7.545  12.172  0.2980  0.0563  0.5158
 4670SOL    HW119973  11.173   7.585  12.215  1.4786  1.3389  1.4775
 4670SOL    HW219974  11.210   7.483  12.110 -1.5191 -0.0760  1.6787
 4671SOL     OW19975   8.185   8.696   1.872  0.6164  0.1712  0.2647
 4671SOL    HW119976   8.192   8.742   1.788  1.3948  1.0656  0.8002
 4671SOL    HW219977   8.113   8.740   1.917 -1.7863 -2.1683 -1.0244
 4672SOL     OW19978   5.251   8.048   8.364 -0.2592 -0.0450  0.2059
 4672SOL    HW119979   5.247   7.953   8.355 -0.4373  0.1199 -2.0046
 4672SOL    HW219980   5.164   8.073   8.396 -0.6619 -0.5295 -0.4904
 4673SOL     OW19981   7.136   9.372   4.477  0.0904  0.1041 -0.1597
 4673SOL    HW119982   7.215   9.335   4.517  1.1834  2.0294 -0.4035
 4673SOL    HW219983   7.115   9.448   4.531 -0.6006  0.6011 -1.0999
 4674SOL     OW19984   5.425   7.870   3.880 -0.2222 -0.6236  0.2362
 4674SOL    HW119985   5.500   7.811   3.875  1.0862  0.6644  2.6499
 4674SOL    HW219986   5.428   7.905   3.969 -0.6242  3.4060 -1.1369
 4675SOL     OW19987   4.357   8.884   9.828  0.2078  0.1905 -0.2640
 4675SOL    HW119988   4.368   8.920   9.740 -1.5348 -0.7642 -0.9334
 4675SOL    HW219989   4.308   8.803   9.815  0.6063 -0.3885  1.5323
 4676SOL     OW19990   4.916   4.610  10.246 -0.1200 -0.0751  0.0672
 4676SOL    HW119991   5.005   4.588  10.220 -0.3668  0.8773 -1.7398
 4676SOL    HW219992   4.915   4.599  10.341  2.1688  0.7204  0.2369
 4677SOL     OW19993  12.065   0.883   8.068 -0.4107  0.0092  0.1297
 4677SOL    HW119994  11.990   0.846   8.021 -0.5917  0.1593  0.3013
 4677SOL    HW219995  12.106   0.807   8.110 -1.5350  0.1497  1.5641
 4678SOL     OW19996   4.882  11.525   9.683 -0.0754  0.0990  0.3078
 4678SOL    HW119997   4.866  11.618   9.700 -0.8966 -0.2554  1.5677
 4678SOL    HW219998   4.796  11.489   9.662  0.0200 -0.6331  1.1247
 4679SOL     OW19999   5.369   6.315   3.864  0.1578  0.4033  0.1766
 4679SOL    HW120000   5.353   6.385   3.927 -1.1920 -0.1338  0.4697
 4679SOL    HW220001   5.464   6.311   3.856  0.4095  0.1769  2.5446
 4680SOL     OW20002   2.952   5.711   9.783  0.4023  0.5821  0.1980
 4680SOL    HW120003   3.001   5.692   9.703 -1.8224 -0.3848 -1.0366
 4680SOL    HW220004   2.889   5.778   9.757 -0.0574  0.5831  1.2617
 4681SOL     OW20005   1.860   3.297   3.374  0.2043 -0.0946  0.3214
 4681SOL    HW120006   1.949   3.262   3.375 -0.0140 -0.7063  1.5173
 4681SOL    HW220007   1.804   3.219   3.376 -0.3051  0.2478  2.3209
 4682SOL     OW20008   4.191   5.475  10.623 -0.4184 -0.3218  0.1088
 4682SOL    HW120009   4.129   5.404  10.607 -0.3282 -0.5786  0.8599
 4682SOL    HW220010   4.228   5.455  10.709  0.9442 -0.3465 -0.4666
 4683SOL     OW20011   3.426  11.914   6.440  0.0917  0.2639 -0.7456
 4683SOL    HW120012   3.482  11.989   6.461  1.7925 -1.0478 -0.3955
 4683SOL    HW220013   3.337  11.948   6.450  0.7784  2.3950 -1.1973
 4684SOL     OW20014   5.563  10.546  11.649 -0.0758  0.2589 -0.0588
 4684SOL    HW120015   5.551  10.549  11.744 -2.9087 -1.5512 -0.2381
 4684SOL    HW220016   5.618  10.469  11.634 -1.1452 -0.5580  0.0773
 4685SOL     OW20017   8.489   7.640   5.936  0.4778 -0.3128  0.1588
 4685SOL    HW120018   8.504   7.635   6.030 -1.7996  2.7096  0.8670
 4685SOL    HW220019   8.394   7.654   5.928  0.6675  0.0112 -2.5445
 4686SOL     OW20020   9.777   1.589   1.702  0.7038  0.0229 -0.2713
 4686SOL    HW120021   9.774   1.666   1.759  0.4076 -0.5696  0.5293
 4686SOL    HW220022   9.720   1.526   1.745  1.7078 -0.9938 -0.4104
 4687SOL     OW20023   3.084   8.622  10.887  0.3100 -0.5884 -0.1431
 4687SOL    HW120024   3.028   8.687  10.846 -1.0488 -1.7225 -0.1424
 4687SOL    HW220025   3.050   8.538  10.857  2.4072 -1.3262 -0.6483
 4688SOL     OW20026  12.177   4.344  10.440 -0.2603 -0.0535 -1.0614
 4688SOL    HW120027  12.151   4.411  10.376 -2.1013  0.8292  0.4950
 4688SOL    HW220028  12.122   4.269  10.420 -0.8858  0.2464 -0.5212
 4689SOL     OW20029   1.652   6.629   9.482  0.1137  0.0120  0.2672
 4689SOL    HW120030   1.563   6.650   9.453  0.7758 -0.4915 -2.3901
 4689SOL    HW220031   1.640   6.572   9.558 -1.9054 -1.6602 -1.1938
 4690SOL     OW20032   1.401   7.114   7.950 -0.0237 -0.1910 -0.0732
 4690SOL    HW120033   1.398   7.185   8.013  1.1907  1.3821 -1.6778
 4690SOL    HW220034   1.448   7.044   7.994  1.4400  1.1401  0.5440
 4691SOL     OW20035   4.964   2.880   0.997 -0.1685  0.7474  0.3178
 4691SOL    HW120036   5.059   2.891   1.002 -0.3196  1.6509  1.9818
 4691SOL    HW220037   4.929   2.966   1.021 -1.4043  0.1222  0.8316
 4692SOL     OW20038   4.335   0.616   5.359 -0.1280 -0.2214 -0.0821
 4692SOL    HW120039   4.431   0.623   5.363 -0.2585  1.6760  1.2606
 4692SOL    HW220040   4.313   0.643   5.270  0.5292  0.6426  0.0005
 4693SOL     OW20041   6.609   3.240   0.021  0.9608  0.2109 -0.5222
 4693SOL    HW120042   6.641   3.330   0.008 -0.9920  1.0012 -0.1755
 4693SOL    HW220043   6.664   3.205   0.090  0.3280  1.9516  0.9434
 4694SOL     OW20044  10.434   7.928  11.543  0.3573  0.1593  0.5443
 4694SOL    HW120045  10.346   7.936  11.581 -0.1168 -2.2641  0.1361
 4694SOL    HW220046  10.461   7.838  11.564  1.6940  0.0179 -1.4765
 4695SOL     OW20047   8.696   3.184   0.151  0.4470  0.2402 -0.5875
 4695SOL    HW120048   8.783   3.151   0.170 -0.5675 -2.4232 -0.2301
 4695SOL    HW220049   8.690   3.183   0.056  0.1891 -1.4271 -0.5784
 4696SOL     OW20050  12.103   8.402   9.542  0.0174 -0.0383 -0.3804
 4696SOL    HW120051  12.040   8.384   9.612  0.8758 -0.1317  0.3884
 4696SOL    HW220052  12.055   8.384   9.462 -1.7180  2.2031  0.0567
 4697SOL     OW20053  11.613   8.602   4.286 -0.4064 -0.3819  0.0168
 4697SOL    HW120054  11.521   8.613   4.307 -0.6653 -2.4317  0.0904
 4697SOL    HW220055  11.617   8.614   4.191 -0.7222 -0.2093  0.0233
 4698SOL     OW20056   9.318  11.872   1.338 -0.0255 -0.1589  0.3156
 4698SOL    HW120057   9.288  11.925   1.412 -1.0600 -0.9997  0.5291
 4698SOL    HW220058   9.255  11.800   1.333  0.6565 -0.7143 -0.7097
 4699SOL     OW20059   7.688  11.104   0.401 -0.1354 -0.2680  1.0082
 4699SOL    HW120060   7.777  11.138   0.411 -0.2456  0.5776 -0.5418
 4699SOL    HW220061   7.632  11.178   0.425 -0.4701 -1.1112  2.9839
 4700SOL     OW20062   2.603   4.554   6.793  0.0036  0.0570  0.4785
 4700SOL    HW120063   2.528   4.542   6.851 -1.4413 -0.9563 -1.4753
 4700SOL    HW220064   2.629   4.465   6.769  0.4363  0.4448 -0.5598
 4701SOL     OW20065   6.516  11.334  10.916 -0.1734 -0.5332 -0.4426
 4701SOL    HW120066   6.507  11.239  10.907 -0.3777 -0.3779 -2.2639
 4701SOL    HW220067   6.599  11.354  10.874  0.2617  0.0346  0.6479
 4702SOL     OW20068   0.502   6.070   6.892  0.3133 -0.2852 -0.0166
 4702SOL    HW120069   0.593   6.050   6.915  0.4858 -0.0359 -0.4678
 4702SOL    HW220070   0.497   6.055   6.798  0.5747  2.0968 -0.4881
 4703SOL     OW20071   9.120   6.524   0.307  0.0578  0.1004 -0.5440
 4703SOL    HW120072   9.082   6.588   0.247  1.0230  0.0739 -1.2108
 4703SOL    HW220073   9.186   6.478   0.254 -0.3037 -1.1374  0.0463
 4704SOL     OW20074  10.535   0.231   4.773 -0.1653  0.9437 -0.2410
 4704SOL    HW120075  10.630   0.240   4.778 -0.2285  0.9256  1.7138
 4704SOL    HW220076  10.518   0.205   4.683  1.7682 -0.0242 -0.3729
 4705SOL     OW20077   8.647   7.671   8.072  0.1329  0.0413 -0.1129
 4705SOL    HW120078   8.580   7.684   8.139  1.3998  0.6996  1.0769
 4705SOL    HW220079   8.617   7.594   8.023 -0.4345 -0.9653  1.7235
 4706SOL     OW20080   1.466  11.277   0.249 -0.1662 -0.3532 -0.4345
 4706SOL    HW120081   1.556  11.259   0.221 -0.3852 -2.7251  0.1355
 4706SOL    HW220082   1.455  11.223   0.327 -2.0570 -0.0560 -0.4723
 4707SOL     OW20083  12.128   4.847   3.432 -0.0848 -0.3265  0.3169
 4707SOL    HW120084  12.134   4.899   3.512  1.8218 -0.5774  0.3986
 4707SOL    HW220085  12.194   4.779   3.443  0.2967 -0.3097 -1.5031
 4708SOL     OW20086  11.384   5.377   5.340  0.3759 -0.7720  0.0804
 4708SOL    HW120087  11.419   5.289   5.333  0.7106 -0.5710 -0.9523
 4708SOL    HW220088  11.333   5.377   5.421  2.8591 -1.0306  1.7339
 4709SOL     OW20089   3.304   6.495   4.673  0.2121 -0.3142  0.2630
 4709SOL    HW120090   3.267   6.523   4.589  0.1715  0.6984  0.6062
 4709SOL    HW220091   3.249   6.422   4.700 -0.7758  0.3751  0.1704
 4710SOL     OW20092   2.407   0.570  12.363  0.2486 -0.9749 -0.6042
 4710SOL    HW120093   2.333   0.543  12.417  1.3191 -2.1465  0.3325
 4710SOL    HW220094   2.434   0.491  12.317  1.4421 -0.7823 -0.2661
 4711SOL     OW20095  10.023   2.442   2.855  0.2916 -0.0446 -0.2580
 4711SOL    HW120096  10.054   2.451   2.765 -2.2707  1.0507 -1.1311
 4711SOL    HW220097  10.093   2.480   2.908  0.4895  2.3910 -2.0872
 4712SOL     OW20098   3.842   5.042  10.710  0.1116 -0.2200  0.0619
 4712SOL    HW120099   3.883   4.984  10.645 -0.4177 -0.9434  0.3559
 4712SOL    HW220100   3.757   5.063  10.673 -2.1304 -4.1875  2.3269
 4713SOL     OW20101   1.670   6.380   5.689 -0.0405 -0.6847  0.1772
 4713SOL    HW120102   1.670   6.424   5.604  0.8202 -1.5912 -0.3112
 4713SOL    HW220103   1.579   6.385   5.719 -0.4670 -0.8127 -1.0443
 4714SOL     OW20104   7.705   6.791   7.455 -0.3697 -0.1803  0.4502
 4714SOL    HW120105   7.689   6.879   7.420  3.2090  0.3948 -0.0627
 4714SOL    HW220106   7.749   6.806   7.539  0.8129 -1.4540  0.0851
 4715SOL     OW20107   5.066   7.749  10.934  0.4231  0.1279  0.6863
 4715SOL    HW120108   5.111   7.770  11.015 -1.2329  2.1597  1.1624
 4715SOL    HW220109   5.069   7.830  10.882 -0.3797 -0.4815 -0.3652
 4716SOL     OW20110   0.004   3.595   0.989 -0.2485  0.5597 -0.0572
 4716SOL    HW120111   0.010   3.639   1.073  2.3045  2.1487 -0.9685
 4716SOL    HW220112   0.061   3.519   0.997 -2.6185 -1.2636  0.6499
 4717SOL     OW20113  11.232   2.517   5.658  0.1360  0.1745 -0.2061
 4717SOL    HW120114  11.317   2.524   5.616 -0.3465  0.7612 -1.1127
 4717SOL    HW220115  11.169   2.517   5.586 -0.7122  1.2173  0.5019
 4718SOL     OW20116   5.365   7.044   7.959 -0.2668  0.0769 -0.2141
 4718SOL    HW120117   5.382   7.015   8.049  1.0557  0.9088 -0.1655
 4718SOL    HW220118   5.287   6.996   7.932 -1.3730  0.6558  1.7739
 4719SOL     OW20119  10.003   0.159   4.293 -1.2433 -0.0680 -0.2707
 4719SOL    HW120120   9.916   0.190   4.269 -1.6910 -0.5170  0.6978
 4719SOL    HW220121  10.041   0.127   4.211 -1.9585  0.2073 -0.7195
 4720SOL     OW20122   1.407  11.711   3.448 -0.3844  0.3859 -0.0127
 4720SOL    HW120123   1.438  11.714   3.538  0.8625 -0.5402 -0.3714
 4720SOL    HW220124   1.480  11.746   3.396 -1.2373  1.2831 -0.6399
 4721SOL     OW20125   8.314   2.614  11.953 -0.4889  0.1531  0.5417
 4721SOL    HW120126   8.308   2.707  11.974  2.0384  0.4563  0.1911
 4721SOL    HW220127   8.269   2.570  12.025 -3.4823  1.6381 -0.2458
 4722SOL     OW20128   0.686   2.136  10.267  0.1586 -0.6162  0.3348
 4722SOL    HW120129   0.740   2.061  10.291 -0.9074 -0.8886  2.0500
 4722SOL    HW220130   0.603   2.098  10.236  0.8588 -0.2110 -2.3275
 4723SOL     OW20131  10.093   4.030   0.171  0.2166  0.4197  0.0924
 4723SOL    HW120132  10.097   3.935   0.181  1.3517  0.4584  0.2231
 4723SOL    HW220133  10.009   4.047   0.129  0.2793 -0.6998 -0.5224
 4724SOL     OW20134   3.450  11.211   8.823  0.2598 -0.2739 -0.3824
 4724SOL    HW120135   3.381  11.214   8.757 -0.2132 -0.8949  0.0700
 4724SOL    HW220136   3.512  11.145   8.791  1.5197  1.3983 -1.5920
 4725SOL     OW20137   5.667  10.757   4.012  0.5021  0.4899 -0.0666
 4725SOL    HW120138   5.717  10.781   3.933  0.2240  0.7806 -0.1578
 4725SOL    HW220139   5.675  10.662   4.018  0.5499  0.4694 -0.4321
 4726SOL     OW20140   8.364   0.967  12.073  0.5210  0.4248 -0.0579
 4726SOL    HW120141   8.339   1.058  12.053 -2.0361  0.1843  1.5180
 4726SOL    HW220142   8.431   0.976  12.141  1.4579  1.1314 -1.0533
 4727SOL     OW20143   6.655  11.579   5.669 -0.2784 -0.5102 -0.0923
 4727SOL    HW120144   6.589  11.547   5.607  0.6756 -0.5696 -1.1036
 4727SOL    HW220145   6.722  11.511   5.671 -0.5416 -0.7496  1.4288
 4728SOL     OW20146   1.816   9.329   8.695 -0.1355 -0.2083 -0.4162
 4728SOL    HW120147   1.785   9.417   8.675  1.5581  0.6924  0.6704
 4728SOL    HW220148   1.911   9.333   8.682  0.3319 -1.1145  2.1353
 4729SOL     OW20149   4.733   3.062   5.233 -1.0643  0.4046 -0.4011
 4729SOL    HW120150   4.675   3.077   5.159 -0.5168 -3.4562 -1.8506
 4729SOL    HW220151   4.821   3.067   5.196 -0.5935  1.8127  0.8159
 4730SOL     OW20152   6.422   0.380   0.308  0.5643 -0.3984  0.0521
 4730SOL    HW120153   6.447   0.404   0.398 -1.4585 -0.6514  0.7383
 4730SOL    HW220154   6.418   0.285   0.309 -1.0787 -0.3434  0.1927
 4731SOL     OW20155   1.826   1.383  11.736 -0.4980  0.5727 -0.1800
 4731SOL    HW120156   1.867   1.310  11.783 -1.9992  0.1140  0.4593
 4731SOL    HW220157   1.835   1.458  11.795 -0.7149  0.4419  0.0174
 4732SOL     OW20158   3.190  10.359   5.588  0.1373  0.1417 -0.0602
 4732SOL    HW120159   3.184  10.448   5.624  0.4557  0.3139 -0.4285
 4732SOL    HW220160   3.275  10.357   5.544 -0.1991 -0.1045 -0.7002
 4733SOL     OW20161   3.932   3.768   6.764  0.0540  0.3859 -0.0904
 4733SOL    HW120162   4.021   3.784   6.795  0.3680 -1.9980  0.4557
 4733SOL    HW220163   3.943   3.715   6.686 -0.8946  0.9370 -0.6159
 4734SOL     OW20164   3.739   6.080   6.888 -0.2192  0.3569 -0.2061
 4734SOL    HW120165   3.815   6.069   6.830  0.0445  0.0900  0.1851
 4734SOL    HW220166   3.694   6.157   6.854  0.8074  1.1606  0.1844
 4735SOL     OW20167   7.527   4.737   5.121  0.3340  0.4394 -0.6928
 4735SOL    HW120168   7.466   4.791   5.172  1.1662 -1.1179  2.1677
 4735SOL    HW220169   7.484   4.652   5.115  1.7973 -0.4686  0.7372
 4736SOL     OW20170   0.485   7.915   2.004  0.7007  0.3960 -0.4791
 4736SOL    HW120171   0.451   7.834   1.965  0.4443  0.2310  0.0812
 4736SOL    HW220172   0.484   7.899   2.098 -0.9357  1.6461 -0.2430
 4737SOL     OW20173  11.208  11.057  11.654  0.0280  0.1885 -0.5039
 4737SOL    HW120174  11.289  11.108  11.652 -1.5212  3.0662  2.1255
 4737SOL    HW220175  11.145  11.113  11.699 -2.5988 -3.1465  0.3989
 4738SOL     OW20176   6.890  11.069   5.937 -0.4512 -0.0505 -0.0103
 4738SOL    HW120177   6.883  11.014   5.859  1.5437  1.9138 -1.6831
 4738SOL    HW220178   6.806  11.116   5.941 -1.7418 -2.2557  0.8260
 4739SOL     OW20179   6.777   3.634   1.299  0.4401  0.3649 -0.4338
 4739SOL    HW120180   6.688   3.616   1.329 -0.1227 -0.9243 -2.6294
 4739SOL    HW220181   6.825   3.554   1.318  0.8446  0.6528 -0.2458
 4740SOL     OW20182   1.966  11.076   9.441  0.2335 -0.1925 -0.5994
 4740SOL    HW120183   1.986  11.003   9.384 -1.7939 -0.6701 -0.7888
 4740SOL    HW220184   1.941  11.147   9.381 -3.0666 -1.0540 -0.4266
 4741SOL     OW20185   6.317   1.431   6.309 -0.2265 -0.6211  0.6679
 4741SOL    HW120186   6.228   1.426   6.273 -0.1402 -0.6644  0.4591
 4741SOL    HW220187   6.355   1.345   6.291  0.2541 -0.2215 -0.2963
 4742SOL     OW20188   3.893   6.633   5.024  0.5537 -0.3480  0.2619
 4742SOL    HW120189   3.841   6.556   5.001  1.7410 -1.1023 -0.0174
 4742SOL    HW220190   3.881   6.693   4.950  0.0783 -0.4999  0.2108
 4743SOL     OW20191   6.548   8.135   8.644  0.3493  0.5357  0.4450
 4743SOL    HW120192   6.557   8.128   8.549  0.1453 -1.6644  0.5388
 4743SOL    HW220193   6.453   8.130   8.660  0.4415 -0.1667  0.8136
 4744SOL     OW20194  10.620   4.544   6.073  0.0482 -0.8147  0.1803
 4744SOL    HW120195  10.525   4.528   6.069 -0.2534  0.7952  0.0963
 4744SOL    HW220196  10.643   4.571   5.984  0.3720 -0.2048  0.4446
 4745SOL     OW20197  12.080  11.089   1.455  0.0381  0.7414  0.4733
 4745SOL    HW120198  12.070  11.184   1.443  1.2594  0.8301 -0.0103
 4745SOL    HW220199  12.106  11.079   1.547  2.1393  1.1049 -0.0308
 4746SOL     OW20200  10.704  11.814   0.505  0.5637  0.0673 -0.0370
 4746SOL    HW120201  10.729  11.821   0.597  2.7737 -0.8684 -0.4963
 4746SOL    HW220202  10.729  11.898   0.467  2.9234 -0.6995 -0.3988
 4747SOL     OW20203   6.017   8.857   4.663 -0.0772 -0.2861  0.4568
 4747SOL    HW120204   6.016   8.785   4.727 -1.4625 -0.5227  0.1985
 4747SOL    HW220205   5.931   8.854   4.623  0.3242  0.6916 -0.5163
 4748SOL     OW20206   0.886   0.090   6.614 -0.3845 -0.1485  0.0862
 4748SOL    HW120207   0.905  -0.004   6.606  2.0915 -0.1436  3.5108
 4748SOL    HW220208   0.949   0.133   6.556  0.4478 -0.5839  0.6413
 4749SOL     OW20209  10.320   6.471   7.931  0.3522  0.2228 -0.0614
 4749SOL    HW120210  10.347   6.555   7.968  0.0133  0.9371 -1.3735
 4749SOL    HW220211  10.290   6.492   7.843  0.7790 -1.3677 -0.6164
 4750SOL     OW20212   9.911   9.019   7.972  0.1658  0.1303  0.2312
 4750SOL    HW120213   9.848   9.081   7.935  0.5931  0.3352 -0.1531
 4750SOL    HW220214   9.939   8.966   7.897 -0.9453 -1.2064  0.7096
 4751SOL     OW20215   6.094   2.300   1.318  0.0445 -0.0593 -0.3923
 4751SOL    HW120216   6.042   2.354   1.377 -1.4322 -1.0951 -0.6697
 4751SOL    HW220217   6.135   2.362   1.258 -0.4859  0.8295  0.1398
 4752SOL     OW20218   4.955   9.989  10.787  0.3920 -0.2562 -0.2199
 4752SOL    HW120219   4.992   9.904  10.761  0.5504  0.0381 -0.9909
 4752SOL    HW220220   4.988  10.050  10.721 -0.8625  0.1557 -0.4835
 4753SOL     OW20221  12.403   0.350   9.119 -0.0320  0.4087 -0.2192
 4753SOL    HW120222  12.402   0.262   9.157 -0.3041 -0.6088 -2.4306
 4753SOL    HW220223  12.317   0.387   9.140 -0.1440 -0.0841  0.1964
 4754SOL     OW20224   2.876   3.554   4.208 -0.0843 -0.7076  0.4295
 4754SOL    HW120225   2.921   3.532   4.126 -0.3566  2.3753 -0.6794
 4754SOL    HW220226   2.862   3.470   4.251  2.4678 -2.2073 -1.4041
 4755SOL     OW20227  10.862   9.141   3.522 -0.4650 -0.1859 -0.3886
 4755SOL    HW120228  10.896   9.157   3.434  0.3202 -1.6251 -0.3740
 4755SOL    HW220229  10.770   9.117   3.507 -0.5877  0.4528 -0.7192
 4756SOL     OW20230   4.498   8.809   0.989  0.1320 -0.4465  0.1462
 4756SOL    HW120231   4.521   8.763   0.908  1.2482 -1.1103  0.8203
 4756SOL    HW220232   4.577   8.858   1.012  0.4975 -1.7358  1.8195
 4757SOL     OW20233  11.491   0.033   0.009 -0.0945  0.2875 -0.3234
 4757SOL    HW120234  11.461   0.122   0.028  0.0448  0.5829 -1.4287
 4757SOL    HW220235  11.584   0.042  -0.008  0.5978 -0.5363  2.4870
 4758SOL     OW20236   5.693   1.913   8.235 -0.3083 -0.1361  0.4675
 4758SOL    HW120237   5.628   1.846   8.215 -0.8184  0.3662  0.4008
 4758SOL    HW220238   5.699   1.913   8.330  0.1477 -0.7006  0.4373
 4759SOL     OW20239   3.003   7.038   6.892 -0.6179 -0.3762  0.3435
 4759SOL    HW120240   2.986   7.031   6.985  1.4088 -1.0775  0.7171
 4759SOL    HW220241   2.973   6.955   6.855 -0.5514 -0.4789  0.5234
 4760SOL     OW20242   8.773   9.155   4.925 -0.0894 -0.0371  0.9229
 4760SOL    HW120243   8.769   9.071   4.879  0.0815  0.7331 -0.5819
 4760SOL    HW220244   8.681   9.178   4.941 -0.2882  0.6997 -1.0465
 4761SOL     OW20245   8.426   2.051  10.926 -0.6112 -0.1807  0.2082
 4761SOL    HW120246   8.458   2.107  10.855 -0.5705  0.3461  0.6296
 4761SOL    HW220247   8.333   2.042  10.911 -0.3796 -1.2237 -0.6914
 4762SOL     OW20248   7.089   3.932   2.658  0.0830 -0.4539 -0.1409
 4762SOL    HW120249   7.144   3.916   2.735 -1.2404  1.8172  1.3911
 4762SOL    HW220250   7.139   3.996   2.606 -0.6641  0.9668  0.8302
 4763SOL     OW20251   6.856   1.400   2.853  0.1891 -0.6053  0.7681
 4763SOL    HW120252   6.880   1.452   2.777  1.3364  0.9074  2.0934
 4763SOL    HW220253   6.767   1.427   2.875  0.1124 -0.5423  0.3762
 4764SOL     OW20254   4.882   1.065  12.278  0.1583  0.5318 -0.5156
 4764SOL    HW120255   4.950   1.058  12.345  0.3161  2.6726 -0.3829
 4764SOL    HW220256   4.802   1.033  12.321  0.2469  1.9176  0.7404
 4765SOL     OW20257  10.033   5.978   2.447 -0.0776  0.6312  0.3951
 4765SOL    HW120258  10.064   5.911   2.387  3.0646  0.8695  1.5728
 4765SOL    HW220259  10.024   6.057   2.393  1.2419  0.4821 -0.0563
 4766SOL     OW20260   4.665   6.993  12.487  0.4719  0.3749 -0.1345
 4766SOL    HW120261   4.736   6.992  12.551  0.9672 -1.9563 -0.6573
 4766SOL    HW220262   4.600   6.932  12.521  0.4264 -0.3625 -1.4725
 4767SOL     OW20263   2.589   9.951   5.532 -0.5054  0.0365  0.4655
 4767SOL    HW120264   2.522  10.004   5.574  0.5513  0.3618  1.8209
 4767SOL    HW220265   2.587   9.868   5.580 -0.5709 -0.3107 -0.1188
 4768SOL     OW20266   3.388   5.832   4.519 -0.1855  0.1746  0.3359
 4768SOL    HW120267   3.422   5.780   4.447  0.0607 -0.2898  0.7766
 4768SOL    HW220268   3.405   5.923   4.494  0.1303  0.0051 -0.0701
 4769SOL     OW20269   2.442   8.547   1.282 -0.0729 -0.3263 -0.5789
 4769SOL    HW120270   2.436   8.616   1.347 -0.3059 -1.4267  0.5977
 4769SOL    HW220271   2.536   8.538   1.266  0.0743 -0.8400  0.4964
 4770SOL     OW20272   2.402  10.170   3.271  0.7313  0.4821  0.0489
 4770SOL    HW120273   2.425  10.166   3.178 -2.0010  1.0606 -0.7601
 4770SOL    HW220274   2.372  10.082   3.292  2.0750  0.1494  0.6269
 4771SOL     OW20275   5.371  10.353   3.477  0.3318 -0.2573 -0.0591
 4771SOL    HW120276   5.316  10.429   3.457  0.6498 -0.1883 -0.6970
 4771SOL    HW220277   5.354  10.335   3.569  0.3209  0.6427  0.1258
 4772SOL     OW20278  10.400   1.529  10.610  0.0699 -0.4188 -0.1946
 4772SOL    HW120279  10.369   1.596  10.671  0.9251 -0.4346  0.2843
 4772SOL    HW220280  10.492   1.551  10.597  0.3999 -1.5756  0.0832
 4773SOL     OW20281   0.705   7.997   4.317 -0.1253 -0.7261 -0.1838
 4773SOL    HW120282   0.733   8.018   4.406  0.9957 -1.8044 -0.2549
 4773SOL    HW220283   0.624   7.947   4.328 -0.2813 -0.3883  0.2032
 4774SOL     OW20284   4.303  10.033  11.255  0.0833  0.1458 -0.2422
 4774SOL    HW120285   4.379  10.076  11.215  0.1765 -0.9533 -1.3078
 4774SOL    HW220286   4.299  10.069  11.344  1.2896  0.9059 -0.4718
 4775SOL     OW20287   8.296   7.554  11.409  0.1355 -0.2031  0.5063
 4775SOL    HW120288   8.357   7.491  11.446 -0.1905  0.5550  2.4377
 4775SOL    HW220289   8.346   7.635  11.400 -0.0247 -0.1440  0.1232
 4776SOL     OW20290   6.523   4.874   2.240  0.1200  0.3798 -0.1684
 4776SOL    HW120291   6.573   4.818   2.181 -0.5987 -0.3720 -0.0739
 4776SOL    HW220292   6.547   4.844   2.328  0.3317  0.7535 -0.0935
 4777SOL     OW20293  10.284   7.826   3.333 -0.6621  0.3366 -0.2105
 4777SOL    HW120294  10.326   7.741   3.323 -0.2755  0.6395 -1.4595
 4777SOL    HW220295  10.217   7.814   3.400 -0.1970 -0.7832  0.0605
 4778SOL     OW20296   9.625   3.510  10.515 -0.2208  0.4391  0.1552
 4778SOL    HW120297   9.598   3.551  10.432 -1.1759  0.1029  0.2867
 4778SOL    HW220298   9.702   3.457  10.492 -0.5887  0.2009 -0.5600
 4779SOL     OW20299   3.404   7.292   3.626 -0.7011 -0.5351  0.0056
 4779SOL    HW120300   3.354   7.321   3.550  1.7343  1.3225 -1.0234
 4779SOL    HW220301   3.343   7.301   3.699 -2.1557  0.7135 -1.2916
 4780SOL     OW20302   6.964   4.371   6.386 -0.4085  0.4433 -0.0355
 4780SOL    HW120303   7.049   4.337   6.413 -0.6456 -1.3033 -1.3687
 4780SOL    HW220304   6.974   4.466   6.393  1.6324  0.2846 -0.1508
 4781SOL     OW20305  10.011   2.169   4.955 -0.1050  0.6099 -0.0649
 4781SOL    HW120306   9.940   2.162   4.892 -1.7506  1.8825  1.5436
 4781SOL    HW220307  10.062   2.245   4.928 -0.0162  0.3717 -0.5747
 4782SOL     OW20308   8.557   4.723   2.169  0.0797 -0.2082 -0.1198
 4782SOL    HW120309   8.625   4.661   2.197 -1.0982 -1.6919 -0.4174
 4782SOL    HW220310   8.521   4.757   2.251 -0.0136 -0.7644  0.0755
 4783SOL     OW20311   9.394   1.961   7.579 -0.8759  0.2885 -0.0961
 4783SOL    HW120312   9.399   2.032   7.643  0.1562 -0.6952  0.9545
 4783SOL    HW220313   9.379   2.005   7.495  3.4961  2.1217 -0.1491
 4784SOL     OW20314   1.643   6.122   4.887 -0.2057 -0.6495 -0.0112
 4784SOL    HW120315   1.712   6.151   4.827  0.0030 -1.0128  0.0462
 4784SOL    HW220316   1.649   6.183   4.961 -0.4936 -0.1760 -0.3745
 4785SOL     OW20317  11.656   6.650   9.653 -0.9058 -0.2031 -0.3625
 4785SOL    HW120318  11.675   6.601   9.732 -0.9002  1.2552  0.5921
 4785SOL    HW220319  11.738   6.649   9.603 -0.1095  0.9143  0.8386
 4786SOL     OW20320   8.768   7.626   3.505 -0.1687 -0.0713 -0.4624
 4786SOL    HW120321   8.805   7.537   3.502  0.0533 -0.1229  1.7552
 4786SOL    HW220322   8.768   7.655   3.414 -0.5472 -2.4537 -1.2992
 4787SOL     OW20323   8.896   4.814   8.414  0.1303  0.0784 -0.0658
 4787SOL    HW120324   8.910   4.722   8.437 -1.5285 -0.0537  0.4888
 4787SOL    HW220325   8.971   4.835   8.358  0.7476 -1.4906  0.1037
 4788SOL     OW20326   0.007  12.086   8.611  0.1755 -0.2980 -0.3805
 4788SOL    HW120327   0.014  12.171   8.654 -1.5710 -0.3374  0.0471
 4788SOL    HW220328  -0.009  12.107   8.519  0.1906 -0.1811 -0.3560
 4789SOL     OW20329   7.899   7.838   3.016 -0.0118 -0.5296 -0.0075
 4789SOL    HW120330   7.851   7.796   2.945 -0.2179 -0.1337 -0.1060
 4789SOL    HW220331   7.855   7.923   3.028  0.6376 -0.1752 -0.0814
 4790SOL     OW20332   1.817   0.484   2.242 -0.3796  0.0809 -0.1505
 4790SOL    HW120333   1.778   0.559   2.287  0.6338  0.3177  0.3426
 4790SOL    HW220334   1.882   0.523   2.183  0.6200 -0.4290  0.5824
 4791SOL     OW20335  10.356   0.292   0.182  0.1968  0.0868 -0.0974
 4791SOL    HW120336  10.437   0.278   0.134 -1.3023 -3.5270 -1.9491
 4791SOL    HW220337  10.322   0.375   0.148  0.8370 -0.7099 -2.8797
 4792SOL     OW20338  11.264  11.917   2.901 -0.6320  0.2942 -0.4938
 4792SOL    HW120339  11.277  11.826   2.874  1.5572 -0.3055  2.1533
 4792SOL    HW220340  11.323  11.967   2.845 -1.1394 -0.0079 -1.3142
 4793SOL     OW20341   1.010   5.719   9.324 -0.0762  0.3781  0.3915
 4793SOL    HW120342   1.009   5.815   9.318  0.2772  0.4357  1.1806
 4793SOL    HW220343   1.050   5.700   9.409 -0.4740 -0.4626  0.4069
 4794SOL     OW20344   3.778  10.601   3.668  0.3088  0.0753 -0.4050
 4794SOL    HW120345   3.708  10.551   3.711  0.7226  1.3993  1.9999
 4794SOL    HW220346   3.733  10.677   3.631  0.0948 -0.5522 -1.4650
 4795SOL     OW20347   4.875   2.179  12.312 -0.3866  0.2292  0.0850
 4795SOL    HW120348   4.895   2.120  12.385  0.7653 -0.0725 -0.4518
 4795SOL    HW220349   4.843   2.259  12.354  1.2352  0.4445  0.9942
 4796SOL     OW20350   4.114  10.070  11.007 -0.0060 -0.4873 -0.0031
 4796SOL    HW120351   4.031  10.042  10.969 -0.4302  1.4678 -0.6643
 4796SOL    HW220352   4.089  10.115  11.088  0.3105  0.7076 -0.5471
 4797SOL     OW20353   5.528   5.153   6.300 -0.0476 -0.0146 -0.1246
 4797SOL    HW120354   5.601   5.178   6.356 -0.5500  0.1530  0.4692
 4797SOL    HW220355   5.545   5.198   6.217 -1.4019  3.2384  1.1843
 4798SOL     OW20356   0.436   4.683   9.973 -0.4425  0.0034 -0.3657
 4798SOL    HW120357   0.525   4.698  10.004  0.1358 -0.4613 -1.7155
 4798SOL    HW220358   0.435   4.718   9.884 -1.3304 -0.8193 -0.7072
 4799SOL     OW20359   7.974   6.859   0.857 -0.0743  0.0051 -0.1634
 4799SOL    HW120360   8.012   6.907   0.784  0.9341  0.0065  0.3410
 4799SOL    HW220361   8.047   6.849   0.919 -1.0772  0.6809  1.1832
 4800SOL     OW20362  11.390   3.062   1.932 -0.2023 -0.4363  0.0025
 4800SOL    HW120363  11.471   3.073   1.883  0.2703  0.8786  1.0224
 4800SOL    HW220364  11.402   2.980   1.980  0.8253  0.0884  0.6633
 4801SOL     OW20365   0.086   7.414   8.337 -0.5361 -0.2090  0.2293
 4801SOL    HW120366   0.082   7.455   8.251  1.6733  0.3355  0.3209
 4801SOL    HW220367   0.042   7.475   8.396  0.9700  1.1516  0.0209
 4802SOL     OW20368   3.797   1.910  10.542  0.5014 -0.3029 -0.3840
 4802SOL    HW120369   3.745   1.863  10.607  1.4626 -0.3128  0.3946
 4802SOL    HW220370   3.881   1.926  10.585  0.9656  0.1722 -1.4310
 4803SOL     OW20371   2.623   0.580   5.754 -0.2891 -0.0688  0.0293
 4803SOL    HW120372   2.684   0.508   5.770  1.2259  1.3063  0.8544
 4803SOL    HW220373   2.589   0.564   5.666  1.0964 -1.0378 -0.3654
 4804SOL     OW20374   8.069  12.337   3.638 -0.1811 -0.4074  0.2069
 4804SOL    HW120375   7.974  12.350   3.635  0.0106  1.2077  0.3920
 4804SOL    HW220376   8.103  12.395   3.571  0.8643  1.1681  2.0182
 4805SOL     OW20377   9.929   9.227   6.039 -0.3818 -0.7470 -0.9171
 4805SOL    HW120378   9.848   9.181   6.064  0.0736  0.2224  2.8385
 4805SOL    HW220379   9.995   9.158   6.035 -0.3510 -0.9252  1.5126
 4806SOL     OW20380   9.815   0.188   8.437 -0.1172 -0.2211  0.2062
 4806SOL    HW120381   9.800   0.144   8.521  0.7735  0.6857  0.8660
 4806SOL    HW220382   9.870   0.127   8.388 -0.0516 -0.4591  0.5683
 4807SOL     OW20383   2.901   6.387   3.755 -0.1374  0.4284 -0.7943
 4807SOL    HW120384   2.869   6.476   3.742  0.9274  0.8676 -0.5472
 4807SOL    HW220385   2.866   6.360   3.840  0.4048  1.0288 -0.3682
 4808SOL     OW20386  11.289   3.732   2.717  0.9550  0.7751 -0.4629
 4808SOL    HW120387  11.231   3.717   2.791  0.9133  0.5379 -0.5452
 4808SOL    HW220388  11.249   3.684   2.644  0.7998  1.3071 -0.7334
 4809SOL     OW20389   7.391   9.249  10.767  0.3215 -0.1486 -0.4889
 4809SOL    HW120390   7.406   9.289  10.681  1.2049 -0.4193 -0.4777
 4809SOL    HW220391   7.374   9.323  10.825  2.8282  0.3727 -0.2777
 4810SOL     OW20392   4.876   3.342  12.017  0.4421 -0.7563 -0.0884
 4810SOL    HW120393   4.830   3.291  12.084 -1.6088  0.3486 -0.5637
 4810SOL    HW220394   4.965   3.349  12.050 -0.1859 -1.2867  1.9154
 4811SOL     OW20395   2.280   5.181   4.527 -0.5261 -1.0682  0.0762
 4811SOL    HW120396   2.241   5.267   4.542 -0.8674 -1.2453  0.2075
 4811SOL    HW220397   2.311   5.184   4.436 -0.0938 -0.6369  0.2312
 4812SOL     OW20398  12.438   3.179   9.319 -0.3998  0.3595  0.0953
 4812SOL    HW120399  12.494   3.152   9.391 -0.0033 -1.2609 -0.7793
 4812SOL    HW220400  12.393   3.258   9.351 -0.5932 -0.5739  2.2548
 4813SOL     OW20401   4.270  10.230   4.543  0.1379 -0.2434  0.0605
 4813SOL    HW120402   4.193  10.265   4.588  0.7030  1.0077  0.0833
 4813SOL    HW220403   4.310  10.306   4.501  1.6692 -0.7856  0.4853
 4814SOL     OW20404   6.368   9.605   3.691 -0.1680  0.0493  1.0163
 4814SOL    HW120405   6.285   9.566   3.718 -1.0003  1.1844  0.1773
 4814SOL    HW220406   6.377   9.683   3.745 -0.5078  0.8571 -0.0576
 4815SOL     OW20407  10.000   0.767   9.555 -0.5797 -0.1687  0.4309
 4815SOL    HW120408  10.044   0.704   9.613 -0.6802  0.7341  1.5166
 4815SOL    HW220409   9.980   0.716   9.476  1.2572 -0.9375  0.4093
 4816SOL     OW20410   5.759   2.725  12.475  0.0012 -0.0469  0.5954
 4816SOL    HW120411   5.684   2.757  12.525  0.6961  2.2839  0.2468
 4816SOL    HW220412   5.723   2.701  12.390 -0.4000  0.8984  0.4888
 4817SOL     OW20413   0.127   0.621   5.802  0.1715 -0.3647  0.0759
 4817SOL    HW120414   0.105   0.665   5.720 -0.0654  1.0511  0.8710
 4817SOL    HW220415   0.220   0.639   5.815  0.1355 -0.3276  0.2758
 4818SOL     OW20416  11.759   0.240   6.189 -0.1521  0.4042  0.8113
 4818SOL    HW120417  11.721   0.152   6.178 -0.2359  0.5141  0.1729
 4818SOL    HW220418  11.833   0.227   6.249 -0.4510 -0.0196  1.0943
 4819SOL     OW20419   6.062   3.627   2.372 -0.4380  0.2585 -0.1836
 4819SOL    HW120420   6.134   3.657   2.317 -0.7897 -0.3070 -0.9663
 4819SOL    HW220421   6.079   3.534   2.384 -0.7771  0.2238  0.0362
 4820SOL     OW20422  12.467   9.515   9.488 -0.3050  0.0265  0.1174
 4820SOL    HW120423  12.498   9.440   9.437 -0.9988  1.3190 -2.3676
 4820SOL    HW220424  12.407   9.478   9.552  0.1859 -1.6272 -0.3278
 4821SOL     OW20425   0.955   6.544   0.199  0.1027 -0.5082 -0.5044
 4821SOL    HW120426   0.883   6.552   0.136  1.8817  0.3143 -2.5574
 4821SOL    HW220427   0.977   6.634   0.224  0.2270 -0.7645  0.3634
 4822SOL     OW20428   9.981  10.213   7.283  0.0346  0.2190 -0.3727
 4822SOL    HW120429  10.017  10.283   7.228  2.1331 -1.8165 -1.7615
 4822SOL    HW220430   9.903  10.183   7.236  1.0951 -0.6527 -1.6325
 4823SOL     OW20431   4.607   9.006   6.229  0.2192  0.4392  0.0298
 4823SOL    HW120432   4.573   8.941   6.167  0.8487  0.5765 -0.4778
 4823SOL    HW220433   4.674   9.053   6.179  0.3161  0.9532  0.6384
 4824SOL     OW20434   7.926   6.570   5.883 -0.2484 -1.2140 -0.0747
 4824SOL    HW120435   7.992   6.532   5.825  1.3900 -0.0648  0.9471
 4824SOL    HW220436   7.975   6.596   5.961 -1.7229  0.7314  0.2709
 4825SOL     OW20437   1.618  10.215  10.433  0.4173 -0.3490 -0.0783
 4825SOL    HW120438   1.706  10.180  10.421  0.2920 -0.2906 -1.2206
 4825SOL    HW220439   1.582  10.162  10.505  1.5914  0.0745  0.8683
 4826SOL     OW20440  12.451  11.278   0.141 -0.0438  1.0610  0.3091
 4826SOL    HW120441  12.361  11.246   0.153  1.1452 -1.6585  4.1727
 4826SOL    HW220442  12.481  11.237   0.060 -1.6417  0.2562  0.0905
 4827SOL     OW20443  10.463   1.298   8.345  0.2473  0.2261 -0.0738
 4827SOL    HW120444  10.426   1.235   8.406  0.5996 -0.4076 -0.4888
 4827SOL    HW220445  10.402   1.299   8.271 -0.2459  1.0848  0.3342
 4828SOL     OW20446   7.878   3.805   9.854  0.7016 -0.1195 -0.7019
 4828SOL    HW120447   7.916   3.761   9.931 -1.1844 -0.7265 -0.0541
 4828SOL    HW220448   7.873   3.897   9.879 -0.4324 -0.3925  0.1795
 4829SOL     OW20449   4.265  11.040   5.252  0.4135 -0.5328 -0.0794
 4829SOL    HW120450   4.177  11.011   5.226 -0.7696  1.5361  1.2779
 4829SOL    HW220451   4.249  11.099   5.326  2.7689  1.6414 -1.1709
 4830SOL     OW20452   3.365   0.434   4.714  0.1886 -0.4608 -0.2185
 4830SOL    HW120453   3.281   0.418   4.756  0.8384 -0.5926  1.0665
 4830SOL    HW220454   3.423   0.460   4.785  0.9362  0.8257 -1.2629
 4831SOL     OW20455   3.880   1.134   0.965  0.2636 -0.5612  0.3522
 4831SOL    HW120456   3.937   1.108   0.893  0.7760 -1.5909  1.0991
 4831SOL    HW220457   3.839   1.215   0.935 -0.3646 -1.5122 -1.5392
 4832SOL     OW20458   2.181  10.607   6.531  0.0954 -0.0129  0.8654
 4832SOL    HW120459   2.190  10.592   6.437 -0.1626 -0.5013  0.9144
 4832SOL    HW220460   2.088  10.592   6.549  0.0091  0.7413  1.0859
 4833SOL     OW20461   5.074  11.513   7.016  0.2168  0.0874  0.1559
 4833SOL    HW120462   5.079  11.544   6.925 -0.8836 -0.5090 -0.1290
 4833SOL    HW220463   5.153  11.461   7.028  1.1294  1.3872  0.0386
 4834SOL     OW20464  11.249   5.860   5.891 -0.0383 -0.0451 -0.0195
 4834SOL    HW120465  11.252   5.928   5.958 -0.0533 -2.1916  2.3329
 4834SOL    HW220466  11.205   5.901   5.817 -0.2694  2.3970  1.3555
 4835SOL     OW20467   5.393   0.065   3.066  0.0102 -0.7232  0.0842
 4835SOL    HW120468   5.355   0.133   3.121 -0.1142 -1.5526  1.0447
 4835SOL    HW220469   5.488   0.078   3.074  0.0760 -2.1656  2.2726
 4836SOL     OW20470   9.910   3.847   7.996 -0.2539 -0.3194 -0.0375
 4836SOL    HW120471   9.957   3.864   8.077 -0.0088 -1.0874 -0.0062
 4836SOL    HW220472   9.898   3.933   7.956  1.2968 -0.1122 -0.1093
 4837SOL     OW20473   1.845   4.141   5.406  0.1412  0.0056 -0.0513
 4837SOL    HW120474   1.904   4.111   5.475  0.3992 -0.8481 -0.6226
 4837SOL    HW220475   1.835   4.065   5.348 -0.2638  0.6276 -0.8220
 4838SOL     OW20476   9.741   2.861   2.143 -0.4617 -0.5580 -0.1919
 4838SOL    HW120477   9.721   2.953   2.160  1.6268 -0.3879  1.7804
 4838SOL    HW220478   9.794   2.862   2.063  2.1236  0.3835  1.4173
 4839SOL     OW20479   7.426   2.622   1.714 -0.3434 -0.8521 -0.2434
 4839SOL    HW120480   7.396   2.713   1.710 -1.4775 -1.2183 -0.6450
 4839SOL    HW220481   7.354   2.574   1.755 -1.2864 -2.1180 -3.1147
 4840SOL     OW20482   2.991   3.235   1.435  0.1868  0.8200 -0.2751
 4840SOL    HW120483   2.938   3.313   1.421  0.1956  0.9028  0.1227
 4840SOL    HW220484   3.057   3.237   1.366 -0.8848  0.2206 -1.3418
 4841SOL     OW20485   7.445   4.270   1.630  0.7399 -0.5530 -0.5950
 4841SOL    HW120486   7.352   4.259   1.649  0.2335 -0.2396 -2.6447
 4841SOL    HW220487   7.448   4.295   1.538  2.8438 -0.1201 -0.4654
 4842SOL     OW20488   6.719  11.258   7.135 -0.5059  0.7146  0.8621
 4842SOL    HW120489   6.749  11.285   7.222  1.1235 -1.0268  0.9139
 4842SOL    HW220490   6.627  11.235   7.147 -0.5354  1.3151  1.9263
 4843SOL     OW20491   4.502   4.660   8.163 -0.1216 -0.2147 -0.2192
 4843SOL    HW120492   4.557   4.735   8.140 -0.3995  0.0853  0.0739
 4843SOL    HW220493   4.546   4.584   8.124  0.7289 -0.0394  0.3732
 4844SOL     OW20494  11.993  11.258  11.250 -0.0377  1.1100 -0.0272
 4844SOL    HW120495  12.064  11.205  11.214  0.7703  1.2639  1.2434
 4844SOL    HW220496  11.969  11.319  11.180  1.4856  1.4334 -0.2903
 4845SOL     OW20497   3.249  11.943   9.893  0.0022  0.1734  0.4698
 4845SOL    HW120498   3.172  11.991   9.925 -0.1175 -0.6287  1.4505
 4845SOL    HW220499   3.227  11.851   9.907  0.5273 -0.1387 -0.6912
 4846SOL     OW20500  10.244   5.500   1.399  0.0134  0.3246 -0.0080
 4846SOL    HW120501  10.300   5.503   1.477  0.2299  1.9090 -0.2064
 4846SOL    HW220502  10.282   5.564   1.339 -1.3496  0.6209 -0.5941
 4847SOL     OW20503   6.383   3.142   1.901 -0.3290  0.2182 -0.1566
 4847SOL    HW120504   6.463   3.090   1.887  0.0324  0.4762  0.8700
 4847SOL    HW220505   6.384   3.163   1.994 -1.2640  0.7917 -0.2622
 4848SOL     OW20506  10.486   7.625   7.805  0.3036 -0.5325  0.2868
 4848SOL    HW120507  10.568   7.579   7.787 -0.6054 -1.8888 -0.6456
 4848SOL    HW220508  10.418   7.558   7.793 -0.9977  0.7247  0.3047
 4849SOL     OW20509  10.516   2.229   9.672 -0.1616 -0.0989  0.0117
 4849SOL    HW120510  10.488   2.248   9.762 -1.0286  3.1993 -0.8237
 4849SOL    HW220511  10.580   2.298   9.652 -1.2354  0.3006 -2.4082
 4850SOL     OW20512   6.115   5.402   5.011  0.2046  0.4759  0.8689
 4850SOL    HW120513   6.171   5.342   5.059 -0.7265 -1.8066 -0.7047
 4850SOL    HW220514   6.138   5.389   4.919 -1.7472  0.6713  0.3035
 4851SOL     OW20515  10.313   9.688  12.337 -0.0038 -0.3606  0.5056
 4851SOL    HW120516  10.341   9.763  12.285  1.5740 -1.0947  0.2255
 4851SOL    HW220517  10.346   9.612  12.289 -1.2141 -1.2357  0.9926
 4852SOL     OW20518   7.161   9.700   3.945 -0.2598  0.6487  0.1642
 4852SOL    HW120519   7.239   9.676   3.895 -0.8477 -0.2748 -0.3297
 4852SOL    HW220520   7.094   9.714   3.879 -0.7412  0.5849  0.6374
 4853SOL     OW20521  11.991  10.011   7.611 -0.3837 -0.3000 -0.4462
 4853SOL    HW120522  11.907   9.983   7.574  0.1783 -1.2118 -1.0998
 4853SOL    HW220523  11.986   9.986   7.703 -1.0567  0.1989 -0.3406
 4854SOL     OW20524   1.170  11.221   6.581 -0.3124  0.2748  0.3344
 4854SOL    HW120525   1.117  11.292   6.546 -0.1068 -0.1943 -1.0247
 4854SOL    HW220526   1.108  11.165   6.628 -0.7614  0.5244  0.0444
 4855SOL     OW20527   9.236   6.611  10.249  0.1753  0.1080 -0.2939
 4855SOL    HW120528   9.247   6.682  10.312 -2.1733 -0.0606  0.3773
 4855SOL    HW220529   9.236   6.654  10.163  0.2096  0.7272  0.0106
 4856SOL     OW20530   3.574  10.209   0.981  0.8125 -0.1984  0.1862
 4856SOL    HW120531   3.500  10.152   0.960 -1.9075  2.6212  1.1455
 4856SOL    HW220532   3.626  10.160   1.044  0.0235 -2.4678 -0.8277
 4857SOL     OW20533   2.495   1.662  11.663 -0.1718  0.2115  0.5399
 4857SOL    HW120534   2.430   1.599  11.694 -0.3625  0.3897  0.5039
 4857SOL    HW220535   2.579   1.630  11.697  0.1128 -1.4649 -1.5147
 4858SOL     OW20536   8.320   2.632   3.612  0.3024  0.0055  0.0756
 4858SOL    HW120537   8.319   2.621   3.707  0.8593 -0.7438  0.0033
 4858SOL    HW220538   8.236   2.675   3.593 -0.2963 -0.7824  0.8041
 4859SOL     OW20539  10.941   2.485   9.771  0.1025  0.3613 -0.3045
 4859SOL    HW120540  11.036   2.484   9.759  0.4330  2.4630  1.5394
 4859SOL    HW220541  10.928   2.470   9.865 -1.5629 -2.0175 -0.8151
 4860SOL     OW20542  11.235   0.277   9.038 -0.3048  0.0865 -0.0467
 4860SOL    HW120543  11.257   0.314   8.953 -0.8729 -2.2478 -1.2821
 4860SOL    HW220544  11.194   0.349   9.086  1.3699  1.8790 -1.1376
 4861SOL     OW20545  11.612   0.926  10.855  0.2389  0.4484 -0.0296
 4861SOL    HW120546  11.533   0.972  10.882 -0.5925 -0.1845 -1.2821
 4861SOL    HW220547  11.584   0.835  10.844  1.3346  0.0583  0.3005
 4862SOL     OW20548  10.328   9.381   3.186 -0.1199  0.2961 -0.2565
 4862SOL    HW120549  10.347   9.472   3.163  0.8535  0.9960  2.7730
 4862SOL    HW220550  10.330   9.380   3.282 -2.6588 -2.4226 -0.0862
 4863SOL     OW20551   1.571  12.386   4.933  0.3616 -0.2190 -0.1505
 4863SOL    HW120552   1.619  12.415   5.010  2.7849 -4.5496  0.2761
 4863SOL    HW220553   1.630  12.404   4.860 -0.1138  0.0378 -0.4794
 4864SOL     OW20554   0.194   1.652  10.662 -0.1030  0.1502 -0.6421
 4864SOL    HW120555   0.279   1.692  10.679 -0.3194  0.4084 -0.1232
 4864SOL    HW220556   0.193   1.574  10.718 -0.0293 -0.1019 -0.9900
 4865SOL     OW20557   2.176   1.406  10.997  0.0203  1.2821 -0.1627
 4865SOL    HW120558   2.139   1.387  11.083  2.7124 -0.5163  0.7432
 4865SOL    HW220559   2.217   1.492  11.008 -0.6212  1.5771 -0.0200
 4866SOL     OW20560   0.964   2.630  10.830  0.1385  0.1755  0.2606
 4866SOL    HW120561   0.979   2.711  10.880  0.6897  0.4285 -0.2973
 4866SOL    HW220562   0.930   2.568  10.894  3.5128 -0.4415  1.6532
 4867SOL     OW20563   4.480   9.311   6.929  0.5485  0.4949  0.5304
 4867SOL    HW120564   4.408   9.250   6.941  1.5459 -0.7545  0.3415
 4867SOL    HW220565   4.459   9.358   6.848 -0.1980  0.3767  0.6510
 4868SOL     OW20566  10.643   4.120   6.524 -0.6533 -0.1777  0.4598
 4868SOL    HW120567  10.573   4.143   6.463 -2.2091 -2.3845  1.2662
 4868SOL    HW220568  10.661   4.028   6.505  2.9608  0.6045 -0.5111
 4869SOL     OW20569   7.235   3.261   9.124  0.5057  0.1959 -0.2386
 4869SOL    HW120570   7.275   3.175   9.116  2.1073  0.7714  1.0913
 4869SOL    HW220571   7.234   3.279   9.218  1.4936  2.1795 -0.5427
 4870SOL     OW20572   8.095   0.558   0.167  0.5070 -0.4112  0.1958
 4870SOL    HW120573   8.107   0.526   0.077  1.9961 -0.8062  0.5044
 4870SOL    HW220574   8.181   0.546   0.208 -0.0865 -0.0061  1.6070
 4871SOL     OW20575   7.301   3.117  11.751  0.1300 -0.1891  0.6462
 4871SOL    HW120576   7.300   3.037  11.803 -1.6728 -1.1882 -0.8067
 4871SOL    HW220577   7.212   3.125  11.717  0.0097  2.9661  1.4751
 4872SOL     OW20578   9.239   5.190   0.787 -0.0592  0.2441 -0.1536
 4872SOL    HW120579   9.145   5.188   0.768  0.2627 -1.3994 -1.9101
 4872SOL    HW220580   9.248   5.140   0.868 -0.7436  0.8528  0.3051
 4873SOL     OW20581   6.883   6.902  11.303 -0.0942 -0.1727 -0.3685
 4873SOL    HW120582   6.890   6.991  11.338 -0.8820 -0.5584  0.7959
 4873SOL    HW220583   6.790   6.890  11.287 -0.2571 -1.4716  1.3401
 4874SOL     OW20584   0.940   8.668  12.461 -0.1152  0.4595  0.0175
 4874SOL    HW120585   0.903   8.628  12.539 -1.8317  1.5140 -0.2061
 4874SOL    HW220586   0.909   8.613  12.389  2.1488 -1.0100  0.0529
 4875SOL     OW20587  11.896   8.675   6.393 -0.4206  0.2715 -0.1541
 4875SOL    HW120588  11.987   8.667   6.364 -1.1631 -1.4631 -2.2712
 4875SOL    HW220589  11.875   8.591   6.432 -1.5336  0.0919 -1.0823
 4876SOL     OW20590   6.391   1.754   4.632 -0.7402  0.2699 -0.2069
 4876SOL    HW120591   6.381   1.719   4.720 -2.3577 -1.9458 -1.1857
 4876SOL    HW220592   6.438   1.837   4.644  1.1242 -1.0273  2.4916
 4877SOL     OW20593   8.960   1.400   7.475  0.0855 -0.2654  0.6332
 4877SOL    HW120594   9.042   1.437   7.444  0.0689  0.2465  1.1875
 4877SOL    HW220595   8.942   1.328   7.415  0.5712  0.0686  0.0809
 4878SOL     OW20596  10.294   3.549   5.842  0.2031  0.1521 -0.5971
 4878SOL    HW120597  10.218   3.491   5.845 -0.4491  1.0256  0.3799
 4878SOL    HW220598  10.368   3.493   5.865 -0.5074 -0.1727  1.0229
 4879SOL     OW20599   5.510   1.838   8.984 -0.4244  0.4392  0.3363
 4879SOL    HW120600   5.442   1.817   8.920  1.1090  1.0709 -1.6099
 4879SOL    HW220601   5.579   1.774   8.967  0.1414  0.8077  1.1829
 4880SOL     OW20602   0.644   2.038   2.143  0.3607  0.4034  0.1294
 4880SOL    HW120603   0.686   2.034   2.229 -0.3046  0.8740  0.4794
 4880SOL    HW220604   0.718   2.042   2.081  0.8554 -0.6627  0.6142
 4881SOL     OW20605   4.101   1.103   3.911  0.2995  0.1343 -0.0548
 4881SOL    HW120606   4.128   1.187   3.949  1.3825  0.0012 -0.4994
 4881SOL    HW220607   4.013   1.119   3.878  1.6063  2.0784 -2.9768
 4882SOL     OW20608   9.674   1.104   7.156  0.6205  0.6601  0.0980
 4882SOL    HW120609   9.759   1.127   7.119  0.5304  1.7036  0.5145
 4882SOL    HW220610   9.640   1.186   7.190 -0.0049  0.0066  1.0767
 4883SOL     OW20611   7.648   1.101   3.094 -0.2656  0.2958 -0.3053
 4883SOL    HW120612   7.566   1.101   3.044 -0.1102  1.0749 -0.5769
 4883SOL    HW220613   7.649   1.186   3.138  1.3493  1.2000 -1.9170
 4884SOL     OW20614  10.375   8.788   4.317 -0.6743 -0.1722  0.6525
 4884SOL    HW120615  10.331   8.704   4.329  0.3954 -0.7613  0.6057
 4884SOL    HW220616  10.326   8.832   4.248  0.2342 -1.8502 -1.1562
 4885SOL     OW20617   7.333   4.846   7.114 -0.7491 -0.5752 -0.1458
 4885SOL    HW120618   7.250   4.807   7.141 -2.1631  1.1838 -1.7909
 4885SOL    HW220619   7.311   4.933   7.083  1.9111  0.4611  0.5679
 4886SOL     OW20620   6.762   8.906   4.034  0.2960 -0.2446 -0.1606
 4886SOL    HW120621   6.782   8.829   4.088 -0.0071  0.8226  1.5331
 4886SOL    HW220622   6.805   8.979   4.078 -1.9290  1.0613 -0.0096
 4887SOL     OW20623   6.375   0.214  10.293  0.1215 -0.6127 -0.0173
 4887SOL    HW120624   6.402   0.196  10.203  0.0860 -0.0119 -0.1560
 4887SOL    HW220625   6.456   0.208  10.344  0.1718 -0.7788 -0.1161
 4888SOL     OW20626  10.234   0.444   3.929 -0.8092  0.5906  0.8463
 4888SOL    HW120627  10.283   0.383   3.874 -0.2442  0.5457  1.3893
 4888SOL    HW220628  10.143   0.429   3.906 -0.5347  1.5945 -1.1599
 4889SOL     OW20629   5.814   5.512   0.052 -0.6173  0.3259 -0.0105
 4889SOL    HW120630   5.728   5.470   0.046  0.7442 -2.6956  0.0330
 4889SOL    HW220631   5.843   5.494   0.142  0.2862  0.8709 -0.1849
 4890SOL     OW20632   9.061   6.142  10.102 -0.0646  0.5918  0.3832
 4890SOL    HW120633   9.021   6.189  10.030 -0.9586 -0.4843  0.1570
 4890SOL    HW220634   9.081   6.210  10.167  0.6240  1.5506 -0.7832
 4891SOL     OW20635   7.054   9.281   2.273 -0.2987  0.1514  0.6140
 4891SOL    HW120636   7.033   9.315   2.360 -0.3955  0.7232  0.3679
 4891SOL    HW220637   6.971   9.284   2.226 -0.6610 -1.8243  1.0383
 4892SOL     OW20638   5.765  11.825   4.732  0.0887 -0.0114  0.5269
 4892SOL    HW120639   5.817  11.836   4.652 -0.9316  0.3394 -0.0960
 4892SOL    HW220640   5.780  11.906   4.781  0.9407 -0.3439  0.8459
 4893SOL     OW20641  11.818  10.023   5.743 -0.3266  0.3801  0.0283
 4893SOL    HW120642  11.742   9.989   5.696 -0.5038 -0.3909  0.8595
 4893SOL    HW220643  11.861  10.081   5.679  0.0084 -1.3949 -1.4406
 4894SOL     OW20644   3.977   1.765   5.043  0.2190  0.1530 -0.2195
 4894SOL    HW120645   4.051   1.786   5.100  0.8056  1.0702 -1.2755
 4894SOL    HW220646   3.912   1.833   5.062  0.8530  1.1316 -1.3739
 4895SOL     OW20647   4.039   0.665   0.773  0.5789 -0.2079 -0.2352
 4895SOL    HW120648   3.998   0.651   0.688  3.4011 -3.2515 -1.3064
 4895SOL    HW220649   3.980   0.623   0.836 -1.9872  2.8311 -0.3640
 4896SOL     OW20650   8.765  11.208   8.877 -0.2492  0.2443 -0.4816
 4896SOL    HW120651   8.704  11.214   8.803 -0.9035  0.7997  0.0954
 4896SOL    HW220652   8.732  11.136   8.929 -2.2989  2.4356  1.4721
 4897SOL     OW20653  11.403   3.679   5.143  0.5382 -0.3073  0.2403
 4897SOL    HW120654  11.461   3.740   5.188  0.8083 -1.2569  1.2041
 4897SOL    HW220655  11.433   3.680   5.052 -0.6177  2.3550 -0.2224
 4898SOL     OW20656   0.021   3.584   4.871  0.5015  0.0511 -0.0746
 4898SOL    HW120657  -0.011   3.512   4.925 -1.6834  1.5261  0.7017
 4898SOL    HW220658   0.033   3.545   4.784 -1.4568 -1.0810  0.1113
 4899SOL     OW20659   7.988  11.080   5.469 -0.2635 -0.4193 -0.6177
 4899SOL    HW120660   7.974  11.122   5.384  1.3301  0.0281 -0.6990
 4899SOL    HW220661   7.922  11.120   5.526 -0.1131  0.7112 -1.1911
 4900SOL     OW20662   0.103  10.072   3.345 -0.4458  0.0517  0.3002
 4900SOL    HW120663   0.023  10.055   3.394  0.2404 -0.6986  1.1954
 4900SOL    HW220664   0.138   9.986   3.326  0.5933  0.3795  0.6709
 4901SOL     OW20665   4.038  11.250   5.573  0.4654 -0.1041 -0.7091
 4901SOL    HW120666   4.002  11.251   5.661  1.4751 -1.0695 -0.2708
 4901SOL    HW220667   4.024  11.161   5.541 -1.0034  0.5465 -2.0206
 4902SOL     OW20668   2.719   4.099   0.863 -0.0729  0.0587 -0.3867
 4902SOL    HW120669   2.808   4.093   0.898 -0.7361  0.8072  1.5267
 4902SOL    HW220670   2.729   4.147   0.780  1.1705  1.4060  0.4938
 4903SOL     OW20671   0.128   3.415   7.228 -0.4627 -0.1407 -0.1461
 4903SOL    HW120672   0.203   3.472   7.244 -0.3317  0.0120 -1.1836
 4903SOL    HW220673   0.160   3.327   7.247 -0.3211  0.0200  0.3639
 4904SOL     OW20674   8.797   5.536   1.056 -0.0009 -0.1941  0.2450
 4904SOL    HW120675   8.735   5.463   1.065 -1.2802  1.0317  1.7661
 4904SOL    HW220676   8.742   5.613   1.042  1.3660  0.3054 -3.4736
 4905SOL     OW20677   4.125   5.179   5.692  0.1760 -0.0259  0.1601
 4905SOL    HW120678   4.054   5.240   5.710  1.3779  1.3319  0.5500
 4905SOL    HW220679   4.092   5.123   5.623 -0.9849  1.1175 -0.2545
 4906SOL     OW20680   2.009   7.846   3.136 -0.5404  0.4134 -0.7688
 4906SOL    HW120681   1.994   7.897   3.056  1.2690  0.5699 -1.0506
 4906SOL    HW220682   2.079   7.891   3.181  0.8999 -1.5942 -0.8496
 4907SOL     OW20683  10.482   4.706  11.596 -0.0987 -0.4982 -0.0451
 4907SOL    HW120684  10.413   4.656  11.639 -1.9418  1.1192 -0.9830
 4907SOL    HW220685  10.448   4.723  11.508  1.7328 -0.0674 -0.7131
 4908SOL     OW20686   4.217  10.768   7.569  0.1861 -0.5074 -0.2304
 4908SOL    HW120687   4.247  10.748   7.657 -0.5129 -2.7012 -0.4222
 4908SOL    HW220688   4.136  10.817   7.581 -0.4396 -1.6631  0.3849
 4909SOL     OW20689   2.033   5.180  10.952 -0.4511 -0.5867  0.0337
 4909SOL    HW120690   2.055   5.235  11.027 -0.2505 -1.2350  0.4557
 4909SOL    HW220691   1.958   5.129  10.981 -0.8249 -0.3346 -0.4620
 4910SOL     OW20692   4.609   9.863  11.301 -0.7136  0.7544  0.1682
 4910SOL    HW120693   4.630   9.946  11.342  0.7974 -0.0938  1.2233
 4910SOL    HW220694   4.635   9.873  11.210  0.1597  1.1994  0.4583
 4911SOL     OW20695   0.344  10.481   4.441 -0.2908  0.0894 -0.1386
 4911SOL    HW120696   0.298  10.534   4.507 -0.4437  0.7000 -0.7225
 4911SOL    HW220697   0.393  10.417   4.492  1.1081  1.7319  0.6835
 4912SOL     OW20698   7.308   1.507   8.361  0.4698  0.6388 -0.2612
 4912SOL    HW120699   7.244   1.555   8.414  1.1622  0.6412  0.6093
 4912SOL    HW220700   7.256   1.449   8.306 -0.2553 -0.5521  1.5820
 4913SOL     OW20701   2.336   5.740   2.012 -0.6022  0.7067  0.8727
 4913SOL    HW120702   2.254   5.767   2.054  0.0812  1.9746  1.4565
 4913SOL    HW220703   2.404   5.766   2.074  0.2792  0.3115  0.0859
 4914SOL     OW20704   3.003  11.137  12.425  0.3682 -0.3360  0.0279
 4914SOL    HW120705   3.052  11.060  12.456 -0.4783 -0.9853 -0.2103
 4914SOL    HW220706   3.004  11.197  12.500 -1.4482 -1.7940  1.2968
 4915SOL     OW20707   1.052   8.644   3.826  0.0710  0.2713 -0.0220
 4915SOL    HW120708   1.002   8.725   3.834 -2.0006 -1.0174  1.0873
 4915SOL    HW220709   1.028   8.610   3.739  1.4162  1.1032 -0.7434
 4916SOL     OW20710   9.118   0.832   5.907  0.2810  0.2802 -0.3657
 4916SOL    HW120711   9.078   0.762   5.854 -0.9907 -0.7408  1.7964
 4916SOL    HW220712   9.212   0.817   5.900  0.0654 -0.9882 -0.8213
 4917SOL     OW20713   0.061   2.479  10.942  0.2204 -0.0802  0.3284
 4917SOL    HW120714   0.092   2.389  10.929  3.2765  1.0107 -0.7916
 4917SOL    HW220715   0.007   2.497  10.865  0.6547 -0.5440 -0.0960
 4918SOL     OW20716   4.312   0.935   4.409  0.7538  0.3220 -0.1675
 4918SOL    HW120717   4.308   1.023   4.446 -1.5240 -0.5320  1.9087
 4918SOL    HW220718   4.244   0.935   4.342  2.7738  0.9356 -2.3366
 4919SOL     OW20719   2.621   5.091  11.151  0.0095 -0.3964 -0.3964
 4919SOL    HW120720   2.529   5.117  11.143  0.3563  1.1379  0.3322
 4919SOL    HW220721   2.661   5.118  11.068  0.0677  0.0751 -0.2138
 4920SOL     OW20722   7.448  11.082   3.320 -0.0591  0.1947 -0.0315
 4920SOL    HW120723   7.357  11.109   3.310 -0.2844 -0.3949  0.4133
 4920SOL    HW220724   7.480  11.136   3.393 -0.1588  0.1393  0.0536
 4921SOL     OW20725   9.124  10.112   1.908  0.6467 -0.1048  0.2918
 4921SOL    HW120726   9.121  10.184   1.971 -0.2887  0.6670 -0.5940
 4921SOL    HW220727   9.194  10.137   1.848  1.8294 -1.0475  1.2216
 4922SOL     OW20728   7.952   0.828   1.452 -0.2313 -0.2475 -0.2350
 4922SOL    HW120729   8.038   0.800   1.420 -0.8357 -2.7840  0.1222
 4922SOL    HW220730   7.962   0.921   1.472  1.7886  0.0472 -2.2627
 4923SOL     OW20731   8.328   5.702  10.837 -0.2044 -0.0729  0.2515
 4923SOL    HW120732   8.308   5.743  10.754  1.4902  0.5202  0.0929
 4923SOL    HW220733   8.358   5.774  10.893  1.9793 -0.8747  0.2388
 4924SOL     OW20734  10.937   9.040   9.462 -0.0171  0.3308 -0.0404
 4924SOL    HW120735  10.875   8.974   9.496 -0.4292  0.7026 -0.0632
 4924SOL    HW220736  10.908   9.122   9.501 -0.8471  0.8685 -1.7148
 4925SOL     OW20737  11.807  12.384   0.604  0.2630  0.2271 -0.1046
 4925SOL    HW120738  11.774  12.462   0.559 -0.1715  0.3972  0.4879
 4925SOL    HW220739  11.892  12.368   0.565  0.9968  1.8462  0.7112
 4926SOL     OW20740   7.859   7.713   8.369  0.1980  0.1895 -0.1895
 4926SOL    HW120741   7.944   7.736   8.407  0.3894 -0.7347 -0.0416
 4926SOL    HW220742   7.853   7.767   8.290  1.2276 -0.2335 -0.5792
 4927SOL     OW20743   9.651  11.060   5.525  0.2682 -0.1193  0.3008
 4927SOL    HW120744   9.683  10.971   5.507  1.3036  0.0380  1.2833
 4927SOL    HW220745   9.700  11.088   5.602 -0.8803  0.8812  0.6987
 4928SOL     OW20746  11.767  12.092   4.298 -0.1897  0.2348 -0.1181
 4928SOL    HW120747  11.848  12.098   4.248  0.2223 -1.8126  0.2272
 4928SOL    HW220748  11.756  12.179   4.336 -0.6680  1.9951 -3.8506
 4929SOL     OW20749   5.263   6.799   8.789  0.0055  0.2619  0.3012
 4929SOL    HW120750   5.228   6.888   8.787  0.5909  0.5183  1.1588
 4929SOL    HW220751   5.353   6.807   8.758 -0.5572 -0.3527 -1.6059
 4930SOL     OW20752   2.902   5.313   3.399  0.1192 -0.2153  0.2226
 4930SOL    HW120753   2.948   5.268   3.328  0.9582  2.1882 -0.8558
 4930SOL    HW220754   2.958   5.298   3.476  1.0822  0.0615 -0.4003
 4931SOL     OW20755  11.915   0.315   7.208  0.0137 -0.5556 -0.1607
 4931SOL    HW120756  11.904   0.245   7.143 -0.4074 -0.4059 -0.2556
 4931SOL    HW220757  11.826   0.345   7.226  0.1577 -0.3626  0.2330
 4932SOL     OW20758   8.808   5.186   6.794  0.0724  0.4413 -0.5739
 4932SOL    HW120759   8.775   5.274   6.774 -2.2003 -0.3615 -0.6324
 4932SOL    HW220760   8.750   5.128   6.746  0.8547 -1.1575  0.3433
 4933SOL     OW20761   4.545   0.130   3.922  0.3332 -0.0855 -0.4395
 4933SOL    HW120762   4.619   0.137   3.982  1.2467  2.0539 -1.7126
 4933SOL    HW220763   4.562   0.051   3.871  1.0842 -0.2800  0.1028
 4934SOL     OW20764   3.136   7.242   9.007 -0.2409  0.2621  0.6538
 4934SOL    HW120765   3.208   7.253   9.069  0.3195  0.3972 -0.0091
 4934SOL    HW220766   3.159   7.163   8.958  0.6980  1.5812 -1.1670
 4935SOL     OW20767   5.914  10.538   4.123  0.5346 -0.2951  0.0502
 4935SOL    HW120768   5.972  10.535   4.047 -1.1006  0.0233 -1.2658
 4935SOL    HW220769   5.829  10.507   4.090 -0.6657  1.4450  1.2928
 4936SOL     OW20770   2.856   8.015   7.977  0.1358  0.0942  0.4700
 4936SOL    HW120771   2.792   7.946   7.994  0.0113  0.3083  0.8914
 4936SOL    HW220772   2.910   7.981   7.906 -1.2136  0.4412 -0.7515
 4937SOL     OW20773  11.454   3.158   6.984  0.0969  0.1773  0.4798
 4937SOL    HW120774  11.468   3.171   7.078 -0.4684 -0.3910  0.6548
 4937SOL    HW220775  11.537   3.124   6.951 -0.5772 -2.6632  1.3893
 4938SOL     OW20776   8.781   5.793  11.360  0.0390 -0.1435 -0.0396
 4938SOL    HW120777   8.827   5.747  11.290 -0.1936 -2.1450  1.0457
 4938SOL    HW220778   8.704   5.739  11.379 -0.7749  1.1970  0.6812
 4939SOL     OW20779   7.262  11.686   9.211 -0.4236 -0.1182 -0.2439
 4939SOL    HW120780   7.209  11.617   9.253 -1.9544 -0.1813 -2.1580
 4939SOL    HW220781   7.314  11.639   9.146 -0.9192  0.4117 -1.0372
 4940SOL     OW20782   6.027   8.939  11.445  0.0782 -0.0562 -0.0830
 4940SOL    HW120783   6.021   8.987  11.362 -1.6303 -0.3149 -0.1392
 4940SOL    HW220784   5.986   8.997  11.509  0.4500 -0.2973  0.3764
 4941SOL     OW20785  11.527  11.685   3.830 -0.2543 -0.1581  1.1170
 4941SOL    HW120786  11.610  11.684   3.878  0.8281  0.2689 -0.6763
 4941SOL    HW220787  11.495  11.595   3.836  1.4881 -0.9073 -0.0423
 4942SOL     OW20788   4.498   4.037   6.133  0.4483  0.2489 -0.5707
 4942SOL    HW120789   4.503   4.003   6.044  2.8036  2.4893 -1.4260
 4942SOL    HW220790   4.453   4.121   6.124 -5.8828 -2.3632  1.5597
 4943SOL     OW20791   1.180  11.482  10.260  0.1818  0.2573 -0.1481
 4943SOL    HW120792   1.109  11.487  10.196  1.4956 -2.0869 -1.9867
 4943SOL    HW220793   1.136  11.482  10.345 -1.7849  1.5295 -1.0922
 4944SOL     OW20794   7.581   7.705  11.263  0.1874  0.0654  0.1318
 4944SOL    HW120795   7.644   7.753  11.209  1.3702 -0.6640  0.8180
 4944SOL    HW220796   7.618   7.708  11.351 -0.7123 -0.4214  0.5341
 4945SOL     OW20797   0.429   6.756  11.097  0.0595 -0.0568 -0.6621
 4945SOL    HW120798   0.423   6.679  11.154 -0.7243  0.6627  0.2891
 4945SOL    HW220799   0.402   6.725  11.011 -1.0613 -0.6882 -0.1130
 4946SOL     OW20800   0.663   2.570   8.011 -0.6792  0.6058 -0.0571
 4946SOL    HW120801   0.657   2.644   8.072 -2.0010 -0.4093  1.1157
 4946SOL    HW220802   0.573   2.557   7.981 -0.2755  0.1615 -1.0959
 4947SOL     OW20803  11.371   4.766  11.960 -0.2761 -0.3926 -0.7275
 4947SOL    HW120804  11.409   4.686  11.923 -0.9754 -1.0754  0.0201
 4947SOL    HW220805  11.279   4.764  11.934 -0.5613 -0.4118  0.2372
 4948SOL     OW20806   9.624   2.064  11.771  0.3416  0.1552 -0.1787
 4948SOL    HW120807   9.699   2.120  11.793  1.2041 -1.3845  1.0076
 4948SOL    HW220808   9.548   2.120  11.786  1.1898  1.3512 -0.1013
 4949SOL     OW20809   0.530   4.633   1.413  0.3555 -0.2714  0.3335
 4949SOL    HW120810   0.559   4.550   1.375 -0.9724 -1.1121  1.0781
 4949SOL    HW220811   0.554   4.699   1.348  3.1012 -0.9624  0.5064
 4950SOL     OW20812   4.271   0.246   9.970 -0.7170 -0.2836  0.2041
 4950SOL    HW120813   4.306   0.330   9.998 -2.2922  0.4198  0.1882
 4950SOL    HW220814   4.261   0.196  10.051 -0.7310 -0.0768  0.3302
 4951SOL     OW20815   0.518  10.319   0.361  0.7555 -0.5077 -0.1465
 4951SOL    HW120816   0.600  10.280   0.330  0.1874 -1.1332 -0.8947
 4951SOL    HW220817   0.461  10.243   0.376  0.1976 -0.0509  0.0456
 4952SOL     OW20818  11.545   4.526   6.671 -0.6505 -0.0277 -0.6024
 4952SOL    HW120819  11.516   4.483   6.751  1.1014 -0.1404  0.0278
 4952SOL    HW220820  11.554   4.456   6.607 -0.9253 -0.1114 -0.5501
 4953SOL     OW20821  12.226   4.658  10.898  0.5720  0.2023 -0.2395
 4953SOL    HW120822  12.286   4.647  10.972  1.2684 -1.5587 -1.0175
 4953SOL    HW220823  12.257   4.596  10.832 -1.6447 -0.2203 -0.9699
 4954SOL     OW20824   8.512   0.302  11.299  0.3161  0.1069  0.6556
 4954SOL    HW120825   8.440   0.363  11.319 -1.0726 -1.8312  1.9056
 4954SOL    HW220826   8.468   0.219  11.279  2.1606 -0.6122 -0.7020
 4955SOL     OW20827   2.153   2.459   0.177  0.1564 -0.3168  0.0617
 4955SOL    HW120828   2.112   2.538   0.142 -0.5118 -1.1064 -1.0027
 4955SOL    HW220829   2.195   2.487   0.259  0.0223  1.1455 -0.3502
 4956SOL     OW20830  10.541   7.640   4.732 -0.2955 -0.2168  0.0406
 4956SOL    HW120831  10.624   7.652   4.779  0.4254 -1.1543 -0.9266
 4956SOL    HW220832  10.486   7.712   4.762  0.4574 -0.2394  1.5789
 4957SOL     OW20833  10.155   3.086   9.931  0.8438  0.0587  0.2601
 4957SOL    HW120834  10.161   2.998   9.893  1.7170 -0.0943  0.7263
 4957SOL    HW220835  10.091   3.077  10.002 -0.1466  0.1465 -0.6045
 4958SOL     OW20836   6.162  10.890   3.511  0.3853 -0.4854 -0.3315
 4958SOL    HW120837   6.232  10.890   3.575  0.7439 -1.7116 -0.6961
 4958SOL    HW220838   6.093  10.944   3.551 -1.0536 -4.2282  2.9880
 4959SOL     OW20839   1.691   1.724   9.110  0.4138  0.1395  0.2158
 4959SOL    HW120840   1.689   1.768   9.195  2.1485  0.5424  0.0861
 4959SOL    HW220841   1.783   1.704   9.096  0.2373  0.5733 -1.8262
 4960SOL     OW20842   8.632  11.913   7.686  0.0533  0.2131 -0.2935
 4960SOL    HW120843   8.600  11.995   7.647 -0.3460  0.0292 -0.3485
 4960SOL    HW220844   8.667  11.940   7.771 -1.0605  0.2843  0.1597
 4961SOL     OW20845  11.433   6.676   8.764 -0.1480 -0.5731  1.1516
 4961SOL    HW120846  11.433   6.629   8.680 -1.6325 -0.5976  1.1434
 4961SOL    HW220847  11.517   6.653   8.804 -0.0757 -1.7971  0.3537
 4962SOL     OW20848   2.089   9.484   9.456  0.2052  0.0831  0.2054
 4962SOL    HW120849   2.168   9.429   9.460 -0.2842 -0.6172  0.5434
 4962SOL    HW220850   2.059   9.474   9.365  0.6791  0.6086 -0.0136
 4963SOL     OW20851  10.928  12.198   3.900 -0.4368 -0.0723  0.5060
 4963SOL    HW120852  10.833  12.193   3.913 -0.3963  1.8909  1.8853
 4963SOL    HW220853  10.964  12.137   3.964 -0.7452 -2.1550 -1.1749
 4964SOL     OW20854   3.176   7.159   2.795 -0.9061  0.5812  0.0695
 4964SOL    HW120855   3.155   7.105   2.719 -0.8662  0.3330  0.2333
 4964SOL    HW220856   3.092   7.168   2.842 -0.6648 -0.3758  0.7038
 4965SOL     OW20857   5.013  12.063  11.244  0.2868  0.4151 -0.0847
 4965SOL    HW120858   5.023  12.158  11.246 -0.3293  0.5327 -1.2824
 4965SOL    HW220859   4.971  12.041  11.326 -0.9561  1.3770 -0.4303
 4966SOL     OW20860   5.471   3.525   0.841 -0.0647 -0.0748  0.1651
 4966SOL    HW120861   5.519   3.446   0.867 -0.9634 -1.0123 -0.9115
 4966SOL    HW220862   5.533   3.573   0.785 -0.2867 -1.2209 -1.1297
 4967SOL     OW20863   6.320   7.719   5.748  0.2992  0.6283  0.0160
 4967SOL    HW120864   6.311   7.808   5.714 -1.4607  0.7499  0.6836
 4967SOL    HW220865   6.360   7.670   5.676 -3.1939  0.8869 -2.3436
 4968SOL     OW20866   7.018   3.865  10.577 -0.2366  0.5854 -0.4177
 4968SOL    HW120867   7.102   3.830  10.548  0.0261  1.5258 -0.8537
 4968SOL    HW220868   7.021   3.957  10.551 -0.4169  1.2411  1.6830
 4969SOL     OW20869   3.780   6.968   9.449 -0.1761  0.3414  0.2745
 4969SOL    HW120870   3.826   6.942   9.529  2.7220  0.1077 -1.3257
 4969SOL    HW220871   3.714   6.901   9.436  1.8132 -1.7806  0.5098
 4970SOL     OW20872   0.767   2.251   4.081  0.3050 -0.3155  0.0995
 4970SOL    HW120873   0.862   2.238   4.077  0.5839  1.5427 -3.5711
 4970SOL    HW220874   0.730   2.164   4.071  1.4539 -1.3790  3.6895
 4971SOL     OW20875   0.245   3.194  12.404 -0.4907  0.6314 -0.1361
 4971SOL    HW120876   0.274   3.108  12.434 -0.2311  0.9435  0.5195
 4971SOL    HW220877   0.152   3.182  12.384  0.2511 -0.7089 -3.4489
 4972SOL     OW20878   8.667  12.469   7.616 -0.1911  0.5066 -0.1702
 4972SOL    HW120879   8.721  12.437   7.688  0.0738  0.4326 -0.3989
 4972SOL    HW220880   8.583  12.426   7.628 -0.3598  0.9919  0.4679
 4973SOL     OW20881   3.199  10.230  11.911 -0.4182  0.1248 -0.4209
 4973SOL    HW120882   3.120  10.279  11.888 -1.1658 -1.5617 -1.6735
 4973SOL    HW220883   3.217  10.176  11.834  1.9246  0.3797 -0.1309
 4974SOL     OW20884  11.665  11.995   6.420 -0.4243 -0.0640 -0.3074
 4974SOL    HW120885  11.688  11.919   6.366 -0.3516 -1.9748  2.2260
 4974SOL    HW220886  11.729  11.994   6.492 -0.8146  2.0494  0.1389
 4975SOL     OW20887   6.337   5.964   6.699  0.0234  0.1121  0.4078
 4975SOL    HW120888   6.423   5.963   6.656  0.4206 -1.3196  1.1453
 4975SOL    HW220889   6.308   5.872   6.696 -2.0562  0.7406 -0.8852
 4976SOL     OW20890   4.640   6.753   7.441  0.2902 -0.3587  0.2559
 4976SOL    HW120891   4.723   6.762   7.489 -0.0164  1.8027  0.4996
 4976SOL    HW220892   4.656   6.801   7.359 -0.4228 -0.7291 -0.1005
 4977SOL     OW20893   8.178  11.210  12.208  0.9013  0.0853  0.5958
 4977SOL    HW120894   8.256  11.263  12.223 -0.4871  1.7382  2.3646
 4977SOL    HW220895   8.129  11.258  12.142  1.1497 -0.7477 -0.2191
 4978SOL     OW20896   6.696  10.803   8.232 -0.2012  0.3499  0.5464
 4978SOL    HW120897   6.631  10.870   8.210 -0.6384 -0.7682 -1.8415
 4978SOL    HW220898   6.774  10.827   8.181 -0.6510 -1.3668 -1.0621
 4979SOL     OW20899   2.103  11.467   1.798  0.4028  0.1231 -0.0191
 4979SOL    HW120900   2.031  11.405   1.798  0.1964  0.3634  0.1544
 4979SOL    HW220901   2.181  11.414   1.781 -0.0314  0.1129 -2.3599
 4980SOL     OW20902   8.650   3.754   3.045 -0.0100  0.6491  0.0202
 4980SOL    HW120903   8.679   3.792   3.127 -0.9592  0.4620  0.4619
 4980SOL    HW220904   8.554   3.760   3.049 -0.1342 -0.6968 -0.4042
 4981SOL     OW20905   6.287  10.611   6.355 -0.3681 -0.3341 -0.5450
 4981SOL    HW120906   6.235  10.533   6.374 -1.5470  0.9146  1.7661
 4981SOL    HW220907   6.378  10.582   6.359 -0.4082 -0.8614  5.4365
 4982SOL     OW20908   5.513  12.444  10.112 -0.8688  0.2859  0.0736
 4982SOL    HW120909   5.434  12.493  10.090  0.0694  1.6719 -0.3492
 4982SOL    HW220910   5.505  12.425  10.206 -0.7380  2.2895  0.5197
 4983SOL     OW20911   6.391  12.109   7.175 -0.1554  0.6887  0.1970
 4983SOL    HW120912   6.343  12.191   7.165  1.3981  1.6458  0.0997
 4983SOL    HW220913   6.394  12.071   7.087 -0.7465  0.6133  0.2109
 4984SOL     OW20914   8.127   0.581  10.783 -0.5068  0.1583  0.0392
 4984SOL    HW120915   8.058   0.563  10.719 -1.1376  3.1926 -0.2766
 4984SOL    HW220916   8.085   0.567  10.868 -0.8503 -0.0909 -0.1681
 4985SOL     OW20917   1.727   1.734   7.798 -0.0489 -0.1731 -0.0047
 4985SOL    HW120918   1.819   1.738   7.821 -0.2046 -0.4173  0.6985
 4985SOL    HW220919   1.691   1.665   7.855 -0.7257  0.1545 -0.0234
 4986SOL     OW20920   6.696  11.106   1.711  1.1010 -0.4994  0.4058
 4986SOL    HW120921   6.729  11.046   1.644 -1.7182 -0.7014 -0.9148
 4986SOL    HW220922   6.691  11.052   1.790 -0.3586 -1.7505 -0.4948
 4987SOL     OW20923   6.263   5.155   7.960  0.5859 -0.3457  0.0853
 4987SOL    HW120924   6.197   5.091   7.936 -0.3901  1.1613 -1.4895
 4987SOL    HW220925   6.344   5.121   7.922  0.3056 -1.1441  0.1767
 4988SOL     OW20926   1.634   3.939   8.154 -0.2499  0.0524 -0.0898
 4988SOL    HW120927   1.604   3.972   8.239 -1.4399 -0.8047 -0.1508
 4988SOL    HW220928   1.680   3.858   8.175  0.1822  0.2673 -0.1957
 4989SOL     OW20929   9.342   0.465  11.196  0.1702 -0.2054  0.0984
 4989SOL    HW120930   9.335   0.554  11.229 -0.7432 -0.4888  0.7280
 4989SOL    HW220931   9.295   0.465  11.113  1.0852  0.1317 -0.4374
 4990SOL     OW20932   0.581  10.747   2.108 -0.0100  0.0067  0.5456
 4990SOL    HW120933   0.612  10.829   2.145  0.9228  0.6708 -1.5404
 4990SOL    HW220934   0.486  10.755   2.108  0.0820  1.6521 -0.7080
 4991SOL     OW20935   1.393  11.110   1.946  0.0948 -0.8531 -0.5656
 4991SOL    HW120936   1.399  11.101   1.851 -0.7094 -0.7765 -0.6364
 4991SOL    HW220937   1.301  11.134   1.962  1.0873  3.6385 -0.1724
 4992SOL     OW20938   3.704  10.299  11.145  0.4613  0.0141 -0.1070
 4992SOL    HW120939   3.731  10.387  11.171  3.3210 -1.1040  1.1741
 4992SOL    HW220940   3.663  10.262  11.223  0.4177 -0.2195 -0.2394
 4993SOL     OW20941   3.811  12.133   3.133 -0.4784 -0.5046 -0.0767
 4993SOL    HW120942   3.847  12.046   3.153  0.1743  0.0715  1.3702
 4993SOL    HW220943   3.824  12.143   3.039  0.6443 -1.4472 -0.0518
 4994SOL     OW20944  11.234   9.822  10.909 -0.2591 -0.3406 -0.5132
 4994SOL    HW120945  11.301   9.855  10.969  0.4103 -1.3582 -0.6691
 4994SOL    HW220946  11.241   9.878  10.832 -0.0963  0.0280 -0.2330
 4995SOL     OW20947   9.876   5.939   3.179  0.0232  0.0840  0.6582
 4995SOL    HW120948   9.872   6.028   3.213 -0.2286  0.0645  0.6819
 4995SOL    HW220949   9.831   5.943   3.095  2.0360  0.4794 -0.4611
 4996SOL     OW20950   8.054   4.667   5.142  0.0309 -0.3394 -0.1184
 4996SOL    HW120951   7.961   4.667   5.166  0.1465 -2.3139  0.5396
 4996SOL    HW220952   8.092   4.596   5.194  1.7867 -0.0050 -0.8652
 4997SOL     OW20953   1.110   7.068   8.329  0.2832  0.6292  0.6861
 4997SOL    HW120954   1.097   7.163   8.329 -0.7858  0.5026 -0.4609
 4997SOL    HW220955   1.076   7.039   8.245  1.5083 -0.6697  0.6007
 4998SOL     OW20956   6.601   3.036   8.480  0.8068 -0.5331 -0.1180
 4998SOL    HW120957   6.663   3.074   8.542 -1.2563 -0.0544  1.8199
 4998SOL    HW220958   6.606   2.942   8.496 -0.8037 -0.3554  2.1162
 4999SOL     OW20959   7.878   1.119   4.754  0.3367 -0.0027 -0.5581
 4999SOL    HW120960   7.949   1.099   4.816 -0.3752 -0.2280  0.2032
 4999SOL    HW220961   7.819   1.176   4.803 -0.9165 -1.2407 -0.5482
 5000SOL     OW20962   7.357  11.437   0.944  0.6902 -0.4255  0.4677
 5000SOL    HW120963   7.326  11.418   0.855 -0.2783 -1.0937  0.9271
 5000SOL    HW220964   7.343  11.531   0.954 -1.4985 -0.7170  0.7171
 5001SOL     OW20965   1.858   8.428  11.554 -0.3282  0.6559  0.3120
 5001SOL    HW120966   1.858   8.448  11.647 -1.0429  0.7231  0.3001
 5001SOL    HW220967   1.853   8.513  11.511  0.5463  0.6580  0.1953
 5002SOL     OW20968   1.304   8.545  10.842  0.4765 -0.0662  0.0665
 5002SOL    HW120969   1.391   8.570  10.811  0.0586  0.3154 -0.8402
 5002SOL    HW220970   1.264   8.503  10.766  0.1210 -0.8812  0.6967
 5003SOL     OW20971   4.939  11.458   4.177 -0.0431 -0.0453 -0.0451
 5003SOL    HW120972   5.031  11.431   4.170  0.1806  0.6731  0.0430
 5003SOL    HW220973   4.925  11.474   4.270 -0.3019 -0.3032 -0.0398
 5004SOL     OW20974   4.538   6.136   1.752 -0.1677 -0.9626 -0.6967
 5004SOL    HW120975   4.557   6.199   1.683 -1.8620 -0.5292 -0.8124
 5004SOL    HW220976   4.600   6.157   1.822  2.2648 -2.0174 -2.3676
 5005SOL     OW20977   0.196  11.486   7.422 -0.0818 -0.6605 -0.0611
 5005SOL    HW120978   0.213  11.467   7.329  1.1353 -0.5614  0.1271
 5005SOL    HW220979   0.101  11.500   7.426 -0.0989 -0.1960 -1.3809
 5006SOL     OW20980   8.252   5.168   8.504 -0.3863 -0.1141  0.0668
 5006SOL    HW120981   8.192   5.192   8.434 -2.1856 -0.2383  1.4994
 5006SOL    HW220982   8.202   5.106   8.558  1.1047 -0.3661  1.2129
 5007SOL     OW20983   4.356  11.093   8.281 -0.3121  0.0224 -0.4320
 5007SOL    HW120984   4.415  11.161   8.250 -1.0025  1.4431  1.1759
 5007SOL    HW220985   4.390  11.012   8.243  3.3265  0.5610  1.2767
 5008SOL     OW20986   8.019   5.220   0.738  0.1898 -0.4671 -0.3044
 5008SOL    HW120987   7.997   5.308   0.767 -0.4109 -0.0084 -2.0608
 5008SOL    HW220988   8.081   5.189   0.804  2.8319  2.4120 -1.1752
 5009SOL     OW20989   3.772   1.419   3.435  0.0158 -0.2071  0.0908
 5009SOL    HW120990   3.794   1.333   3.471  0.3146 -0.3038 -0.3251
 5009SOL    HW220991   3.734   1.401   3.350  0.0550  0.0724  0.0132
 5010SOL     OW20992  11.694   8.339   7.157  0.2798 -0.5254 -0.5987
 5010SOL    HW120993  11.614   8.331   7.104 -1.6300 -2.1871  2.2211
 5010SOL    HW220994  11.737   8.254   7.148  0.6084 -0.3672 -0.5142
 5011SOL     OW20995   6.306  12.480   1.542 -0.5778 -0.0203 -0.0428
 5011SOL    HW120996   6.307  12.407   1.604  0.2303  0.3585  0.4000
 5011SOL    HW220997   6.223  12.524   1.558 -0.3847  0.0677  0.7824
 5012SOL     OW20998   4.084   5.143   9.233  0.7394 -0.4199 -0.7698
 5012SOL    HW120999   4.062   5.075   9.297  2.0644 -0.0334  0.1449
 5012SOL    HW221000   4.069   5.225   9.279  1.2402 -0.1321 -1.1092
 5013SOL     OW21001   4.091   3.676   3.892 -0.1037 -0.0958  0.1785
 5013SOL    HW121002   4.159   3.727   3.848 -0.9904  1.8801  0.9889
 5013SOL    HW221003   4.013   3.732   3.889 -1.2070 -1.5257  0.8860
 5014SOL     OW21004   6.561  10.539   0.713  0.2718  0.5364 -0.6927
 5014SOL    HW121005   6.505  10.590   0.655 -1.0665  1.8269  1.5607
 5014SOL    HW221006   6.647  10.580   0.707 -0.2481  1.6779 -0.5802
 5015SOL     OW21007   4.648   1.735   4.009 -0.5084 -0.0270  0.1303
 5015SOL    HW121008   4.598   1.744   3.927 -1.5838  0.6919  0.8387
 5015SOL    HW221009   4.729   1.783   3.993 -1.0757  0.8414 -0.2417
 5016SOL     OW21010   3.747   7.788   4.107 -0.2980  0.4046  0.3640
 5016SOL    HW121011   3.688   7.715   4.089 -0.3330  1.0483 -2.5312
 5016SOL    HW221012   3.698   7.843   4.168 -2.0123  0.0735 -0.6568
 5017SOL     OW21013  10.272   4.742   6.318 -0.7461 -0.1229  0.3506
 5017SOL    HW121014  10.208   4.691   6.367 -2.1889  0.1342 -1.1931
 5017SOL    HW221015  10.345   4.754   6.379 -0.1489 -4.2890  0.7059
 5018SOL     OW21016   4.644   7.196  12.151  0.7377  0.3473 -0.2388
 5018SOL    HW121017   4.591   7.146  12.213 -0.0783  1.9662  0.4320
 5018SOL    HW221018   4.720   7.225  12.201  1.8864 -1.2302 -0.9685
 5019SOL     OW21019   9.013   8.032   2.026 -0.0555 -0.5056 -0.2379
 5019SOL    HW121020   9.078   7.975   2.068 -0.7998 -1.8418 -0.8412
 5019SOL    HW221021   9.057   8.117   2.020  0.9354 -0.8887  1.0630
 5020SOL     OW21022   2.327   2.114   3.531 -0.9117  0.2567 -0.2834
 5020SOL    HW121023   2.370   2.195   3.504 -1.0342  1.0853  1.8116
 5020SOL    HW221024   2.367   2.047   3.477 -0.8243  1.6943 -2.1099
 5021SOL     OW21025  12.484   5.550   3.863 -0.6744 -0.5451 -0.5380
 5021SOL    HW121026  12.422   5.525   3.794  0.1463  0.0068 -1.4900
 5021SOL    HW221027  12.528   5.468   3.886 -0.3078 -0.5674 -1.3157
 5022SOL     OW21028   0.753   9.140  11.082  0.0278  0.1397 -0.0176
 5022SOL    HW121029   0.677   9.174  11.128  0.3508 -2.1094  2.3999
 5022SOL    HW221030   0.821   9.207  11.095 -0.6662  0.7637  0.4761
 5023SOL     OW21031   1.397   0.939   8.104  0.0624  0.1930  0.2687
 5023SOL    HW121032   1.332   0.990   8.151 -0.9262 -1.1544  0.4081
 5023SOL    HW221033   1.454   0.903   8.172 -0.3418 -0.3681  0.3136
 5024SOL     OW21034   6.762   1.453   8.936  0.4636 -0.8156 -0.5089
 5024SOL    HW121035   6.698   1.494   8.995  0.3846 -0.4752 -0.8273
 5024SOL    HW221036   6.838   1.436   8.991  0.4032 -0.4694 -0.3151
 5025SOL     OW21037   0.515   3.724   2.057  0.0427 -0.0237  0.0834
 5025SOL    HW121038   0.511   3.640   2.013  0.9089  0.4623 -0.9705
 5025SOL    HW221039   0.451   3.717   2.128 -0.7379 -1.1491 -0.6949
 5026SOL     OW21040   1.990   4.123   5.101  0.6007 -0.1593  0.8458
 5026SOL    HW121041   2.005   4.194   5.038  0.3253 -0.3705  0.5341
 5026SOL    HW221042   1.918   4.154   5.156  1.3125  0.3222  1.5197
 5027SOL     OW21043   3.469   4.520   9.873  0.1532  0.0068 -0.1944
 5027SOL    HW121044   3.383   4.538   9.910  0.3207  1.2763 -0.3719
 5027SOL    HW221045   3.495   4.436   9.912 -0.9874 -0.2004  0.1545
 5028SOL     OW21046   0.036   4.109   0.532  0.1814  0.4587 -0.2124
 5028SOL    HW121047  -0.047   4.076   0.566  0.9816 -0.1886  1.1861
 5028SOL    HW221048   0.103   4.054   0.573  1.5231  3.0134  1.3098
 5029SOL     OW21049   8.330   4.860   8.650  0.1826  0.3398  0.0309
 5029SOL    HW121050   8.263   4.851   8.582  0.3258 -1.1884  0.0531
 5029SOL    HW221051   8.372   4.945   8.632  0.1357  0.0223 -1.7176
 5030SOL     OW21052   1.342  11.416  11.991  0.1404  0.1493 -0.1264
 5030SOL    HW121053   1.309  11.355  12.057  0.6114  0.1106  0.0801
 5030SOL    HW221054   1.286  11.493  11.998 -1.7453 -0.9811 -1.7237
 5031SOL     OW21055   2.860   2.589  10.624 -0.0448  0.2106 -0.2931
 5031SOL    HW121056   2.786   2.642  10.654 -0.0322 -0.3208  0.7375
 5031SOL    HW221057   2.935   2.623  10.673 -0.1087 -0.9847  0.6737
 5032SOL     OW21058   8.437   8.919   1.450 -0.7095  0.1317 -0.7418
 5032SOL    HW121059   8.527   8.888   1.455 -0.6736  0.0587 -1.7048
 5032SOL    HW221060   8.431   8.962   1.364 -0.8643  2.4437  0.3354
 5033SOL     OW21061   1.570  11.622   0.123  0.0656  0.7151 -0.3761
 5033SOL    HW121062   1.517  11.555   0.165  0.9586 -0.8363 -1.6103
 5033SOL    HW221063   1.644  11.574   0.085 -0.2176  2.1223 -2.8875
 5034SOL     OW21064   4.213   6.086   4.691  0.1240 -0.1962 -0.0396
 5034SOL    HW121065   4.148   6.048   4.631  1.6627 -0.8459 -1.3521
 5034SOL    HW221066   4.242   6.012   4.744 -0.1897  0.1006  0.5612
 5035SOL     OW21067  10.068  12.440  12.064 -0.4105  0.1418  0.0546
 5035SOL    HW121068  10.155  12.464  12.096  1.2106 -2.6275 -1.8416
 5035SOL    HW221069  10.069  12.463  11.971 -1.7381  0.0563  0.0011
 5036SOL     OW21070   8.041   3.251   3.732  0.3154  0.2863 -0.6555
 5036SOL    HW121071   8.025   3.345   3.719  0.5893  0.8801  2.5497
 5036SOL    HW221072   8.132   3.239   3.704  0.1200  0.8578 -1.5745
 5037SOL     OW21073   2.548   7.238   9.583  0.8045  0.0450  0.1473
 5037SOL    HW121074   2.588   7.322   9.559  0.6701 -0.0275 -0.3411
 5037SOL    HW221075   2.454   7.254   9.576  0.7865 -0.2570 -0.3359
 5038SOL     OW21076   8.232   7.794   3.882  0.7712 -0.3302  0.2762
 5038SOL    HW121077   8.208   7.757   3.967  0.8552  1.2947  1.0581
 5038SOL    HW221078   8.325   7.814   3.889  0.9470 -0.8497 -0.4713
 5039SOL     OW21079   9.002   3.240   8.234 -0.3171 -0.1883  0.2443
 5039SOL    HW121080   9.097   3.228   8.235 -0.4318 -1.2099  2.0316
 5039SOL    HW221081   8.976   3.212   8.146  1.1277  1.1184 -0.6442
 5040SOL     OW21082  12.223   6.199  11.854  0.6934 -0.4592  0.2292
 5040SOL    HW121083  12.192   6.286  11.880 -1.8331 -1.5981  1.3562
 5040SOL    HW221084  12.182   6.184  11.769  1.3656 -0.4804 -0.1032
 5041SOL     OW21085   1.484   7.356   7.367  0.9473  0.4430  0.5424
 5041SOL    HW121086   1.399   7.387   7.398  1.5103  0.2278  2.3772
 5041SOL    HW221087   1.526   7.434   7.331  0.2774  0.7035  0.3051
 5042SOL     OW21088  11.340  11.088   7.941 -0.4088 -0.0776 -0.5691
 5042SOL    HW121089  11.317  11.113   8.030 -0.7402  0.6689 -0.8601
 5042SOL    HW221090  11.389  11.163   7.906 -0.6470 -0.1894 -1.1585
 5043SOL     OW21091   9.449   3.741  11.159 -0.4229  0.0435  0.2591
 5043SOL    HW121092   9.461   3.647  11.154 -0.8743 -0.1510  2.1543
 5043SOL    HW221093   9.536   3.778  11.143 -0.2999 -0.6500 -0.7746
 5044SOL     OW21094   5.804   7.148   7.111  0.1227 -0.2961  0.4755
 5044SOL    HW121095   5.749   7.192   7.176  2.0306  2.0277  0.6778
 5044SOL    HW221096   5.752   7.149   7.031 -1.6203 -1.7403  1.5281
 5045SOL     OW21097   3.501  11.355   3.027  0.6152  0.2726  0.4323
 5045SOL    HW121098   3.510  11.388   2.938 -0.5750  0.7740  0.4687
 5045SOL    HW221099   3.570  11.290   3.037  0.2261 -0.4284 -1.1589
 5046SOL     OW21100   3.085   9.751   8.042 -0.0760  0.0265  0.1217
 5046SOL    HW121101   3.061   9.678   8.101  1.8610 -0.4236  0.4249
 5046SOL    HW221102   3.144   9.805   8.094  1.2586 -0.0829 -1.2236
 5047SOL     OW21103  10.015  10.891  10.941  0.2213 -0.1602  0.2455
 5047SOL    HW121104   9.979  10.959  10.884 -0.2490  0.8216  1.6634
 5047SOL    HW221105  10.094  10.861  10.896 -0.3730  0.2659 -1.1238
 5048SOL     OW21106  12.172   1.511   4.262 -0.1594 -0.0970  0.9428
 5048SOL    HW121107  12.139   1.548   4.180  2.5417  0.9084  0.2129
 5048SOL    HW221108  12.188   1.419   4.242  0.1774  0.0696  0.4184
 5049SOL     OW21109   2.506   2.672   3.610  0.2690  0.2819 -0.0777
 5049SOL    HW121110   2.599   2.693   3.618  0.4515 -0.4123 -0.3470
 5049SOL    HW221111   2.491   2.661   3.516  0.4952 -2.0897  0.1042
 5050SOL     OW21112   9.923   3.810   1.029 -0.9462  0.1032  0.5853
 5050SOL    HW121113   9.955   3.824   0.940 -1.2738  0.2701  0.4926
 5050SOL    HW221114   9.912   3.715   1.035 -0.2447  0.0185  0.6892
 5051SOL     OW21115  10.766   1.262   8.910 -0.3843 -0.0053  0.2018
 5051SOL    HW121116  10.805   1.349   8.901  1.1740 -0.9070 -3.2121
 5051SOL    HW221117  10.839   1.206   8.938 -0.4533 -0.7859 -1.0981
 5052SOL     OW21118   1.777  11.601   5.005  0.4947 -0.2477  0.1499
 5052SOL    HW121119   1.761  11.683   4.959 -0.6676 -0.9064 -0.6917
 5052SOL    HW221120   1.814  11.627   5.089 -1.4545  1.2401  0.6129
 5053SOL     OW21121   6.749   0.810  12.031  0.1117 -0.0199 -0.2819
 5053SOL    HW121122   6.843   0.818  12.045  0.2691 -1.9802  0.1488
 5053SOL    HW221123   6.712   0.799  12.118 -0.2922 -0.9885 -0.5621
 5054SOL     OW21124   4.640   3.873   7.025 -0.3239 -0.6857  0.1455
 5054SOL    HW121125   4.709   3.824   7.070 -0.6173 -1.5355 -0.3051
 5054SOL    HW221126   4.590   3.806   6.979 -0.0659  0.1467 -1.4055
 5055SOL     OW21127   5.631   6.475   5.762  0.2550  0.2595  0.1825
 5055SOL    HW121128   5.572   6.401   5.766  1.7397 -1.1559 -1.7956
 5055SOL    HW221129   5.705   6.451   5.818 -1.1098  2.2437  3.0744
 5056SOL     OW21130   3.632   2.534   4.425  0.2064 -0.0824  0.2302
 5056SOL    HW121131   3.609   2.508   4.336  0.3858  1.6577 -0.3682
 5056SOL    HW221132   3.728   2.536   4.425  0.2026  0.1936  0.3693
 5057SOL     OW21133   7.709   3.023   2.551 -0.0837  0.0340  0.4198
 5057SOL    HW121134   7.663   2.991   2.474  0.2083  0.9707 -0.1608
 5057SOL    HW221135   7.650   3.004   2.624 -0.7617 -0.0536 -0.1427
 5058SOL     OW21136   6.217  11.316   7.301  0.2473  0.9188 -0.4205
 5058SOL    HW121137   6.161  11.348   7.371 -2.3835 -1.4893 -1.2519
 5058SOL    HW221138   6.166  11.328   7.221  1.8900  0.7291 -1.5618
 5059SOL     OW21139   7.762   9.072  11.131  0.5499 -0.0368  0.2436
 5059SOL    HW121140   7.758   9.125  11.211 -0.6612 -0.8133  0.7347
 5059SOL    HW221141   7.727   9.130  11.063  0.8586  0.3694  0.4265
 5060SOL     OW21142   8.530   0.342  10.685  0.3456  0.0817  0.6767
 5060SOL    HW121143   8.458   0.326  10.745 -1.3217  1.6631 -0.7664
 5060SOL    HW221144   8.555   0.254  10.655 -1.7737 -0.4973  0.3759
 5061SOL     OW21145   7.092   8.239   1.474 -0.0761 -0.0195  0.2781
 5061SOL    HW121146   7.014   8.214   1.524 -0.5547  2.1877  0.7216
 5061SOL    HW221147   7.150   8.280   1.539 -1.1082  3.7864 -0.9509
 5062SOL     OW21148   5.851   0.285  11.590  0.6214  0.0824  0.4500
 5062SOL    HW121149   5.893   0.240  11.516  1.4404 -1.4167  1.7782
 5062SOL    HW221150   5.874   0.233  11.666 -1.2733  0.8760  1.6345
 5063SOL     OW21151  10.830   3.123   3.503 -0.5038 -1.0471  0.3015
 5063SOL    HW121152  10.883   3.072   3.442 -1.1191 -0.5593 -0.6762
 5063SOL    HW221153  10.889   3.145   3.575  0.3612 -1.2877 -0.3223
 5064SOL     OW21154   9.109   7.520   3.799  0.4362 -0.1463 -0.0515
 5064SOL    HW121155   9.119   7.591   3.736  0.5345 -1.1846 -1.2624
 5064SOL    HW221156   9.124   7.440   3.748  0.4844 -1.0401  1.2881
 5065SOL     OW21157   8.646   4.734  10.012  0.2427  0.4989 -0.2275
 5065SOL    HW121158   8.648   4.807  10.074  0.7259  0.7314 -0.5114
 5065SOL    HW221159   8.738   4.716   9.994  0.1890 -0.9497  0.7401
 5066SOL     OW21160   8.473   8.052   0.477 -0.3192 -0.7853 -0.3478
 5066SOL    HW121161   8.398   8.057   0.536  0.8926  0.9731  1.1232
 5066SOL    HW221162   8.541   8.008   0.528  0.4576 -0.0542 -0.7366
 5067SOL     OW21163  11.484   4.890  10.794  0.0781  0.1961 -0.0159
 5067SOL    HW121164  11.558   4.949  10.807 -0.0905  0.1750  1.1179
 5067SOL    HW221165  11.524   4.804  10.785  0.2295  0.2698 -0.0614
 5068SOL     OW21166   6.132   3.593   5.833 -0.0195  0.1497 -0.2933
 5068SOL    HW121167   6.050   3.596   5.882  0.1646 -1.6006  0.1563
 5068SOL    HW221168   6.201   3.586   5.899  0.2130 -2.5052 -0.7135
 5069SOL     OW21169   9.784   0.204   4.129  0.0555  0.0342  0.3585
 5069SOL    HW121170   9.756   0.115   4.110 -0.7583  0.3391  0.0963
 5069SOL    HW221171   9.706   0.247   4.163  0.4344  0.6567  0.4594
 5070SOL     OW21172  11.568   6.286   8.167  0.0605 -0.4213 -0.2671
 5070SOL    HW121173  11.579   6.202   8.210 -0.6898 -1.2354 -1.5897
 5070SOL    HW221174  11.491   6.275   8.111  1.9109 -0.0140 -3.1300
 5071SOL     OW21175   9.305   8.929  11.998 -0.6117 -0.2503 -0.6261
 5071SOL    HW121176   9.365   8.926  12.073 -1.5418 -0.8588  0.1181
 5071SOL    HW221177   9.358   8.897  11.924 -0.0077 -0.7438  0.0009
 5072SOL     OW21178   3.053  10.591   4.920 -0.4779 -0.3869 -0.2525
 5072SOL    HW121179   3.083  10.501   4.904 -1.0562 -0.4727 -0.9093
 5072SOL    HW221180   3.132  10.638   4.947 -0.2296 -1.1628  0.4196
 5073SOL     OW21181   7.297   0.502   7.797  0.2294 -0.3921  0.9744
 5073SOL    HW121182   7.242   0.431   7.833  1.4046 -1.1684  1.2989
 5073SOL    HW221183   7.237   0.552   7.741 -0.3286 -2.5041 -0.4473
 5074SOL     OW21184   3.257   0.809  10.716  0.0729 -0.4849 -0.6070
 5074SOL    HW121185   3.275   0.882  10.657 -0.2961  1.6231  1.7423
 5074SOL    HW221186   3.340   0.761  10.720  0.8773  0.8364 -0.8363
 5075SOL     OW21187   2.085   4.346   1.474 -0.4089  0.3667  0.0276
 5075SOL    HW121188   2.009   4.403   1.478  0.3061  1.2747  1.7219
 5075SOL    HW221189   2.153   4.392   1.523  1.2247 -0.4649 -1.3328
 5076SOL     OW21190   0.663   6.836   5.122  0.1877 -0.4246 -0.5158
 5076SOL    HW121191   0.719   6.759   5.131 -1.5904 -1.5677  1.8695
 5076SOL    HW221192   0.710   6.893   5.062  5.0177 -0.2675  2.8872
 5077SOL     OW21193   6.652   1.532   7.725  0.2819 -0.2830  0.2350
 5077SOL    HW121194   6.630   1.485   7.645 -0.1154 -1.6707  1.1259
 5077SOL    HW221195   6.743   1.508   7.743  0.6095  0.6124 -0.1785
 5078SOL     OW21196   4.383   7.570  10.387  0.0561  0.2349  0.1219
 5078SOL    HW121197   4.289   7.586  10.391  0.0794  1.3669 -2.0270
 5078SOL    HW221198   4.423   7.651  10.419  0.2621  0.4259 -0.5909
 5079SOL     OW21199   1.661  11.251   4.694 -0.3193 -0.1456 -1.0371
 5079SOL    HW121200   1.749  11.216   4.680 -0.1132 -0.5409  0.9771
 5079SOL    HW221201   1.610  11.177   4.729 -1.2017  0.3177 -1.2966
 5080SOL     OW21202  10.969  10.340   4.038  0.5841 -0.9626 -0.3437
 5080SOL    HW121203  10.946  10.365   3.949 -0.2240  0.1485  0.1652
 5080SOL    HW221204  10.886  10.336   4.085  1.1439  0.2959  0.8206
 5081SOL     OW21205  10.512   2.852   4.877  0.3435  0.1500 -0.1185
 5081SOL    HW121206  10.475   2.782   4.930  2.3122 -0.8967 -0.0491
 5081SOL    HW221207  10.446   2.868   4.809 -0.0234 -2.0085 -0.3372
 5082SOL     OW21208  11.146   1.174   2.253 -0.6853 -0.1854  0.4730
 5082SOL    HW121209  11.121   1.259   2.288  1.1454  0.0190  1.4085
 5082SOL    HW221210  11.103   1.169   2.168 -0.2495  2.0113  0.0688
 5083SOL     OW21211   7.556   0.491   4.370  0.4625  0.3508 -0.0755
 5083SOL    HW121212   7.548   0.523   4.280 -1.6308 -1.6969 -0.7012
 5083SOL    HW221213   7.497   0.548   4.421 -0.6690 -0.3176 -0.5884
 5084SOL     OW21214   5.164   9.799   5.951  0.2540  0.5364 -0.0461
 5084SOL    HW121215   5.149   9.878   6.004 -0.2925 -0.4350  1.2994
 5084SOL    HW221216   5.218   9.743   6.007 -0.0106 -0.3622 -0.6741
 5085SOL     OW21217   7.239   3.542   4.184 -0.5283 -0.2985 -0.6281
 5085SOL    HW121218   7.163   3.550   4.126 -1.9380 -0.1351  1.1523
 5085SOL    HW221219   7.281   3.460   4.157 -0.3044  0.4464 -2.7557
 5086SOL     OW21220  10.881   1.845   3.008 -0.0120  0.1970 -0.7307
 5086SOL    HW121221  10.794   1.818   3.039  0.3089 -0.9800 -0.7794
 5086SOL    HW221222  10.865   1.924   2.957 -1.4002 -1.2556 -2.7056
 5087SOL     OW21223  12.262   6.370   7.126  0.6264  0.1760 -0.0527
 5087SOL    HW121224  12.240   6.447   7.178  0.0228 -0.5306  0.7712
 5087SOL    HW221225  12.298   6.307   7.189 -0.6176 -0.8884 -0.3586
 5088SOL     OW21226   4.762   4.271   5.280 -0.4103  0.4614  0.4061
 5088SOL    HW121227   4.855   4.255   5.263 -0.7536 -1.4374  0.1463
 5088SOL    HW221228   4.760   4.360   5.316  1.8678 -0.4539  3.2831
 5089SOL     OW21229   7.058   6.704   6.655  0.3375  0.6460  0.6160
 5089SOL    HW121230   7.052   6.631   6.593  1.4583  0.3640  0.8244
 5089SOL    HW221231   7.042   6.664   6.741  0.8072  0.6732  0.7156
 5090SOL     OW21232   6.285   4.358   0.185  0.2050  0.5373 -0.1005
 5090SOL    HW121233   6.216   4.388   0.126  0.8798 -0.8623 -1.6808
 5090SOL    HW221234   6.317   4.438   0.228  0.2125  1.7299 -2.2171
 5091SOL     OW21235   0.408   3.446   1.974  1.2929  0.2087 -0.0941
 5091SOL    HW121236   0.364   3.482   1.898  1.0506  0.9204  0.3784
 5091SOL    HW221237   0.384   3.353   1.974  0.0411  0.5128 -0.0256
 5092SOL     OW21238   9.267   4.658   9.140 -0.3920  0.2183  0.6672
 5092SOL    HW121239   9.172   4.646   9.140 -0.3634 -0.0696 -0.1422
 5092SOL    HW221240   9.280   4.753   9.141 -0.7209  0.3124 -0.9537
 5093SOL     OW21241   5.874  10.176   7.629  0.2554 -0.1524 -0.8869
 5093SOL    HW121242   5.925  10.199   7.551  1.3330 -0.9347 -0.4493
 5093SOL    HW221243   5.926  10.108   7.672  0.3785  1.1869  1.2355
 5094SOL     OW21244   1.412  11.840  12.241 -0.3603 -0.1789 -0.0677
 5094SOL    HW121245   1.450  11.851  12.153  1.0625  2.2631  0.7682
 5094SOL    HW221246   1.320  11.864  12.230 -0.0773  0.6520 -0.8145
 5095SOL     OW21247   4.609   1.607   9.250 -0.5086  0.3298 -0.5661
 5095SOL    HW121248   4.550   1.655   9.192 -2.0477 -0.6331  0.1273
 5095SOL    HW221249   4.562   1.604   9.334  0.2163 -1.0794 -0.1799
 5096SOL     OW21250   5.574   4.645   6.389  0.3229 -0.2621 -1.1997
 5096SOL    HW121251   5.659   4.635   6.346  0.6353 -1.2916 -0.3924
 5096SOL    HW221252   5.531   4.716   6.341  1.9668  0.8625 -1.0898
 5097SOL     OW21253  11.303   1.189   6.503 -0.3012 -0.3941 -0.2616
 5097SOL    HW121254  11.394   1.157   6.507 -0.2365 -0.7316 -2.8176
 5097SOL    HW221255  11.311   1.284   6.498 -0.2437 -0.2508  1.7075
 5098SOL     OW21256   6.876  12.133   3.832 -0.1487  0.1884  0.1700
 5098SOL    HW121257   6.854  12.047   3.797 -0.2134  0.3353 -0.1485
 5098SOL    HW221258   6.803  12.190   3.805 -0.5491  0.1534  1.1211
 5099SOL     OW21259  10.911   2.214  12.004  0.1410  0.0542 -0.6910
 5099SOL    HW121260  10.926   2.291  11.949  1.6276 -0.8052 -1.5797
 5099SOL    HW221261  10.820   2.221  12.032  0.4679  2.5409 -0.0499
 5100SOL     OW21262  11.651   6.752   0.676  0.4727  0.0620 -0.3390
 5100SOL    HW121263  11.625   6.844   0.681  1.5672  0.3839 -0.3885
 5100SOL    HW221264  11.745   6.752   0.694  0.0048 -1.3590  2.7643
 5101SOL     OW21265   0.595   6.309   8.236 -0.3102  0.3549 -0.3731
 5101SOL    HW121266   0.657   6.382   8.240 -1.3487  1.5262 -3.0198
 5101SOL    HW221267   0.512   6.346   8.269  0.2482 -1.2774  3.4420
 5102SOL     OW21268   0.034   1.078   9.539  0.1222 -0.5667  0.1762
 5102SOL    HW121269   0.113   1.025   9.551  0.0623 -1.4458 -2.6827
 5102SOL    HW221270   0.068   1.166   9.519  0.3704 -0.7582 -0.2639
 5103SOL     OW21271   0.765   8.545   8.550  0.6086 -0.4303  0.7076
 5103SOL    HW121272   0.778   8.470   8.609  1.9598 -0.4987  0.3539
 5103SOL    HW221273   0.732   8.614   8.607  0.7727 -0.8533  1.3333
 5104SOL     OW21274   2.936   0.468   4.081 -0.1418  0.1342 -0.4626
 5104SOL    HW121275   2.963   0.382   4.051 -2.2410  0.1209 -2.5827
 5104SOL    HW221276   2.863   0.451   4.141  0.0286  0.4072 -0.1735
 5105SOL     OW21277   4.145   9.550   9.470  0.4181  0.1480  0.4274
 5105SOL    HW121278   4.056   9.582   9.482  0.7350  0.6340  1.5456
 5105SOL    HW221279   4.159   9.489   9.542 -0.0427 -2.3312 -1.4580
 5106SOL     OW21280   9.427   8.314   2.736  0.1330  0.3074 -0.0083
 5106SOL    HW121281   9.494   8.378   2.714  0.4166  0.2401  0.6444
 5106SOL    HW221282   9.383   8.295   2.653  0.6559  0.6519 -0.3639
 5107SOL     OW21283   7.199   4.371   5.945 -0.7532  0.7658  0.6024
 5107SOL    HW121284   7.144   4.314   5.998 -1.6836  1.0329 -0.0445
 5107SOL    HW221285   7.287   4.332   5.951 -1.2864 -0.5046  0.4947
 5108SOL     OW21286   2.812   7.455   3.217  0.5684  0.4900 -0.0271
 5108SOL    HW121287   2.767   7.473   3.135  0.5011  1.4995  0.2147
 5108SOL    HW221288   2.783   7.524   3.276  1.8845  0.7495  0.3425
 5109SOL     OW21289  12.126  10.329   0.540  0.0646 -0.2601  0.7852
 5109SOL    HW121290  12.167  10.275   0.608 -1.0754  0.0049  1.7076
 5109SOL    HW221291  12.070  10.268   0.492  1.1062 -0.5163 -0.1607
 5110SOL     OW21292   7.068  10.909   2.830  0.5592  0.0807 -0.7293
 5110SOL    HW121293   7.146  10.886   2.779 -0.1708 -1.7676 -1.0790
 5110SOL    HW221294   6.996  10.866   2.784 -0.4200  0.2309  0.6195
 5111SOL     OW21295  10.621   3.955   7.464 -0.0109 -0.4926  0.1157
 5111SOL    HW121296  10.642   3.871   7.506  1.3978 -0.2333 -0.0215
 5111SOL    HW221297  10.586   3.930   7.379  1.1596 -0.9617 -0.2587
 5112SOL     OW21298   2.403   4.803   6.214 -0.0104 -0.7440 -0.6989
 5112SOL    HW121299   2.382   4.738   6.147 -0.4948  0.1107 -1.4045
 5112SOL    HW221300   2.458   4.867   6.169  0.4080 -0.6221 -0.0331
 5113SOL     OW21301  10.067   7.661   7.451 -0.2792 -0.0124  0.4557
 5113SOL    HW121302  10.121   7.690   7.525 -0.4250  1.1052  0.1530
 5113SOL    HW221303  10.127   7.613   7.394 -0.4979 -2.2495  2.0127
 5114SOL     OW21304   6.873   0.687   2.659  0.4184 -0.4971  0.0890
 5114SOL    HW121305   6.949   0.746   2.653  0.3982 -0.6201 -1.9474
 5114SOL    HW221306   6.852   0.685   2.752  0.9859  2.0151  0.3498
 5115SOL     OW21307   5.643   0.348   4.738 -0.4155 -0.0465 -0.3229
 5115SOL    HW121308   5.570   0.336   4.799 -1.1533 -0.4854 -1.2683
 5115SOL    HW221309   5.672   0.259   4.718  0.4962  0.1304  0.1683
 5116SOL     OW21310   6.562   0.898   7.576 -0.3147  0.0867  0.1885
 5116SOL    HW121311   6.590   0.989   7.561  1.4481 -0.6683 -1.6075
 5116SOL    HW221312   6.586   0.880   7.667  1.2958  0.8093 -0.0589
 5117SOL     OW21313   5.269   8.301   8.637  0.6961  0.0160  0.2790
 5117SOL    HW121314   5.300   8.391   8.648 -0.1507  0.2397  1.1017
 5117SOL    HW221315   5.344   8.246   8.660  1.6180  0.4880 -1.5043
 5118SOL     OW21316   0.153   6.688   6.677 -0.4895  0.2442  0.0438
 5118SOL    HW121317   0.156   6.609   6.624 -1.3374  1.0716 -1.3062
 5118SOL    HW221318   0.077   6.736   6.644 -1.8941  0.2062  2.9262
 5119SOL     OW21319   6.271   1.521   9.973  0.0822 -0.2604  0.0487
 5119SOL    HW121320   6.345   1.542  10.030 -0.1915 -1.2241  0.7742
 5119SOL    HW221321   6.295   1.560   9.888  0.1333  1.8895  0.9803
 5120SOL     OW21322   0.364   4.234   7.669 -0.1450  0.0515 -0.2294
 5120SOL    HW121323   0.407   4.225   7.754 -1.5949 -0.1518  0.5244
 5120SOL    HW221324   0.376   4.148   7.627 -0.6182 -0.3198  0.3742
 5121SOL     OW21325   8.397   2.141  11.858  0.1635 -0.3678 -0.1561
 5121SOL    HW121326   8.318   2.119  11.810 -0.0035  0.4536 -0.2750
 5121SOL    HW221327   8.469   2.118  11.799 -0.0010 -0.6890 -0.2291
 5122SOL     OW21328   4.030   6.834   1.209 -0.1160  0.4596  0.0522
 5122SOL    HW121329   3.961   6.880   1.161  0.7418 -0.0050 -1.6839
 5122SOL    HW221330   4.110   6.855   1.162  0.3292 -2.7264 -0.8003
 5123SOL     OW21331   9.495   4.824   1.237 -0.1158  0.2338 -0.1019
 5123SOL    HW121332   9.412   4.782   1.214 -0.0511  0.6378 -1.1358
 5123SOL    HW221333   9.476   4.871   1.319 -0.3384 -1.3225  0.7649
 5124SOL     OW21334   8.000   9.247  12.294 -0.3078 -0.4688 -0.3602
 5124SOL    HW121335   8.089   9.280  12.280 -1.1909  1.2280 -2.5095
 5124SOL    HW221336   7.998   9.163  12.248 -0.4858  0.7133 -2.6433
 5125SOL     OW21337   9.563   9.203   7.730  0.4145  0.1703 -0.9975
 5125SOL    HW121338   9.657   9.209   7.746  0.4039 -0.5855 -0.6017
 5125SOL    HW221339   9.545   9.109   7.725 -0.5146  0.2600  0.1946
 5126SOL     OW21340   3.216   0.339   5.375  0.3108 -0.3864  0.2353
 5126SOL    HW121341   3.159   0.319   5.450  1.5278  0.4976  1.4482
 5126SOL    HW221342   3.168   0.307   5.299 -0.6399 -2.0318  1.4639
 5127SOL     OW21343   1.753   5.976   8.297  0.0158  0.6185  0.1297
 5127SOL    HW121344   1.801   5.984   8.379 -1.4243 -1.1705  1.2226
 5127SOL    HW221345   1.809   5.921   8.241 -0.6232 -1.4043  1.3687
 5128SOL     OW21346  11.760  11.134   6.596  0.4586 -0.4648 -0.2190
 5128SOL    HW121347  11.740  11.185   6.517  1.8546 -0.6747 -0.7269
 5128SOL    HW221348  11.749  11.197   6.668  2.8346  0.8508 -0.8777
 5129SOL     OW21349   6.140   2.834  10.942  0.7773  0.2279  0.1184
 5129SOL    HW121350   6.177   2.748  10.926  0.1087 -0.0542  0.0592
 5129SOL    HW221351   6.055   2.817  10.983 -1.0537  0.7202 -3.1628
 5130SOL     OW21352   5.898   1.353   2.045  0.0644  0.0477 -0.5967
 5130SOL    HW121353   5.904   1.261   2.072  0.6500  0.5325  1.0781
 5130SOL    HW221354   5.886   1.401   2.127  0.0084  1.4939 -1.4170
 5131SOL     OW21355  10.995   4.526   1.969 -0.5005  0.2041 -0.3218
 5131SOL    HW121356  10.991   4.617   1.996 -0.4181  0.5190 -1.3502
 5131SOL    HW221357  11.086   4.513   1.941 -1.1285  0.6115 -2.8228
 5132SOL     OW21358   9.915   3.485   2.352  0.3473 -0.1111 -0.7766
 5132SOL    HW121359   9.830   3.464   2.313 -0.4749  0.7750  0.4600
 5132SOL    HW221360   9.940   3.568   2.311  0.4685 -0.2120 -0.9078
 5133SOL     OW21361   0.560  10.947   0.335  0.1083  0.4927  0.4434
 5133SOL    HW121362   0.543  11.014   0.269 -0.4694  2.0210  2.0654
 5133SOL    HW221363   0.474  10.911   0.355  0.2352  0.2548  0.5635
 5134SOL     OW21364   6.460   8.583   4.871 -0.1620  0.5958  0.2654
 5134SOL    HW121365   6.436   8.589   4.778  0.0308 -2.4587 -0.0811
 5134SOL    HW221366   6.380   8.610   4.917 -1.1120 -0.2125 -0.8336
 5135SOL     OW21367   1.948  12.460   9.260 -0.0915  0.1710 -0.3806
 5135SOL    HW121368   1.895  12.402   9.205 -1.0621 -1.1497  1.8108
 5135SOL    HW221369   2.038  12.429   9.247 -0.6670 -2.6485  1.5029
 5136SOL     OW21370   5.971   9.691   3.494  0.2061 -0.1761  1.0094
 5136SOL    HW121371   6.026   9.707   3.418  2.8971  1.6604  3.1502
 5136SOL    HW221372   6.010   9.743   3.564 -2.9954 -0.5455  3.3252
 5137SOL     OW21373  12.269   8.947   6.945  0.0081  0.5563  0.1016
 5137SOL    HW121374  12.238   8.930   7.034 -1.4640 -0.1654 -0.5060
 5137SOL    HW221375  12.344   8.889   6.934 -1.0213 -0.8705  0.2414
 5138SOL     OW21376  10.276   0.976   7.629  0.2180  0.2465  0.3033
 5138SOL    HW121377  10.317   1.038   7.569  0.8513  0.2936  0.7797
 5138SOL    HW221378  10.349   0.927   7.667 -0.3020 -1.1978 -0.5002
 5139SOL     OW21379   5.061   1.198   1.482 -0.0134 -0.1490 -0.2034
 5139SOL    HW121380   5.009   1.180   1.560  0.4946 -0.8731 -0.0183
 5139SOL    HW221381   5.004   1.173   1.409  0.5913 -2.5132  0.0346
 5140SOL     OW21382   6.198   7.248   8.035  0.1401  0.0827 -0.3793
 5140SOL    HW121383   6.133   7.188   8.071  0.3356  0.1025  0.0179
 5140SOL    HW221384   6.279   7.196   8.033  0.0173 -0.0962 -1.3216
 5141SOL     OW21385   6.622   4.070   9.833  0.2533  0.2729 -0.0986
 5141SOL    HW121386   6.575   4.128   9.893  0.8203  2.2329 -1.4566
 5141SOL    HW221387   6.554   4.032   9.778 -0.0296  0.4917  0.0944
 5142SOL     OW21388   6.195   6.938  11.985  0.2885  0.4549  0.3032
 5142SOL    HW121389   6.204   6.856  11.937  1.7022  0.5004  0.4516
 5142SOL    HW221390   6.284   6.963  12.008 -0.0922  2.0989  0.1653
 5143SOL     OW21391   9.519  12.195   7.125 -0.4539  0.6659  0.3348
 5143SOL    HW121392   9.476  12.110   7.118  0.1551  0.2888  0.9752
 5143SOL    HW221393   9.459  12.248   7.178 -1.4530  1.0754 -1.1584
 5144SOL     OW21394   7.380   9.467  12.447 -0.1317  0.5186 -0.5927
 5144SOL    HW121395   7.454   9.484  12.505  0.2714 -1.6752 -0.3700
 5144SOL    HW221396   7.418   9.451  12.361 -0.1694 -1.5795 -0.2837
 5145SOL     OW21397   1.217   2.623  12.280 -0.0832  0.1630 -0.2405
 5145SOL    HW121398   1.154   2.617  12.209  1.3100 -2.1005 -1.4271
 5145SOL    HW221399   1.243   2.532  12.296  2.1681  0.9149  0.8137
 5146SOL     OW21400   0.280  10.650   3.178  0.2618 -0.2334  1.0684
 5146SOL    HW121401   0.311  10.686   3.094 -0.2273 -0.7631  0.6524
 5146SOL    HW221402   0.330  10.698   3.244  0.4169  0.4328  0.4891
 5147SOL     OW21403   5.411  12.027  10.209 -0.5768  0.2202  0.0637
 5147SOL    HW121404   5.352  11.979  10.151 -0.6237  0.1557  0.1653
 5147SOL    HW221405   5.353  12.077  10.266 -0.5273  1.3075 -0.7984
 5148SOL     OW21406  10.750  10.126   9.298 -0.3262 -0.1079 -0.2584
 5148SOL    HW121407  10.805  10.050   9.279  0.0585  0.5120 -1.7200
 5148SOL    HW221408  10.780  10.157   9.383 -1.4437 -2.4093  1.0947
 5149SOL     OW21409   4.047   2.101  11.529 -0.3662 -0.4685 -0.7470
 5149SOL    HW121410   4.032   2.015  11.567 -0.9231 -0.4109 -0.8336
 5149SOL    HW221411   3.960   2.136  11.512 -0.1600  0.3143 -0.2574
 5150SOL     OW21412   6.401   2.567   2.415 -0.4007  0.8947  0.5386
 5150SOL    HW121413   6.378   2.659   2.427  0.2035  0.8949  1.9015
 5150SOL    HW221414   6.321   2.519   2.438 -0.0647  1.0209  2.1334
 5151SOL     OW21415  11.182   4.349   7.350  0.6173  0.4273  0.2966
 5151SOL    HW121416  11.138   4.264   7.360  3.0886 -0.7644  2.4254
 5151SOL    HW221417  11.219   4.366   7.437  0.3649  3.6544 -0.1232
 5152SOL     OW21418   6.468   9.130  11.625 -0.0023 -0.1008 -0.2196
 5152SOL    HW121419   6.524   9.058  11.598  0.2414  0.4097 -1.1443
 5152SOL    HW221420   6.381   9.091  11.634  0.1887 -0.5755 -0.3865
 5153SOL     OW21421   4.531   4.170   8.070  0.4687  0.2857 -0.0855
 5153SOL    HW121422   4.604   4.160   8.008  1.5196 -0.9457  1.2776
 5153SOL    HW221423   4.487   4.085   8.068 -0.5396  0.7947 -0.3720
 5154SOL     OW21424   5.024   7.521  11.746  0.0038  0.0464 -0.0388
 5154SOL    HW121425   4.971   7.466  11.689 -0.8971 -0.0078  0.8246
 5154SOL    HW221426   5.015   7.482  11.833  1.0716  0.3270  0.2178
 5155SOL     OW21427  10.646   5.002   2.665  0.1473  0.1895  0.4077
 5155SOL    HW121428  10.635   5.036   2.754  0.6759  0.6170  0.3123
 5155SOL    HW221429  10.566   5.029   2.619  0.6162  1.4489  0.2939
 5156SOL     OW21430  10.537   5.145  12.372  0.1142 -0.3473 -0.0960
 5156SOL    HW121431  10.624   5.110  12.359  0.3506  0.0838  0.2808
 5156SOL    HW221432  10.519   5.131  12.465  0.2157  0.5014  0.0634
 5157SOL     OW21433  11.865   7.119   4.791 -0.1501  0.0584  0.6435
 5157SOL    HW121434  11.861   7.104   4.885  0.1316  0.9835  0.8123
 5157SOL    HW221435  11.866   7.032   4.753 -1.3089 -0.3269  1.4478
 5158SOL     OW21436   6.982  10.685   1.536 -0.4533  0.3438 -0.0741
 5158SOL    HW121437   6.950  10.611   1.587 -1.2527  0.3235 -0.5822
 5158SOL    HW221438   7.037  10.645   1.468  0.6676  0.3780  0.7884
 5159SOL     OW21439  10.846   9.668   8.753 -0.0231  0.3056 -0.3246
 5159SOL    HW121440  10.880   9.584   8.782 -1.4265 -0.2520 -0.2131
 5159SOL    HW221441  10.751   9.658   8.757 -0.2211  2.1548  0.4382
 5160SOL     OW21442  11.868  11.006   0.353 -0.1024  0.2191 -0.0088
 5160SOL    HW121443  11.871  10.926   0.300  3.4499  0.1133  0.0992
 5160SOL    HW221444  11.845  10.977   0.441  2.8700 -1.0953  0.4437
 5161SOL     OW21445   6.998   9.949   6.377 -0.0400  0.0614 -0.5628
 5161SOL    HW121446   6.951  10.013   6.324  1.0227 -0.3090 -2.0117
 5161SOL    HW221447   7.085   9.944   6.337 -0.1106 -2.3016 -0.5424
 5162SOL     OW21448  11.331   5.635   5.810 -0.0766  0.3589  0.0106
 5162SOL    HW121449  11.334   5.635   5.715 -1.1497  2.7445 -0.0809
 5162SOL    HW221450  11.300   5.722   5.834 -1.2335 -0.6223  2.5052
 5163SOL     OW21451  10.721   2.302   1.223  0.6076 -0.3854  0.3652
 5163SOL    HW121452  10.695   2.366   1.156  1.1350  0.2357  0.7426
 5163SOL    HW221453  10.768   2.354   1.288 -0.2905 -0.9110  1.4504
 5164SOL     OW21454   1.495  11.900  11.983  0.4776 -0.1933  0.1500
 5164SOL    HW121455   1.512  11.892  11.889  0.8366  0.2299  0.1790
 5164SOL    HW221456   1.525  11.988  12.006  0.5582 -0.3618  0.6996
 5165SOL     OW21457   6.021  10.533   1.096 -0.2054  0.2332 -0.0497
 5165SOL    HW121458   6.006  10.454   1.149 -2.1163  0.4398 -0.2251
 5165SOL    HW221459   6.108  10.563   1.123  0.3147 -1.5715  0.4642
 5166SOL     OW21460   4.010  12.239   1.958 -0.3133 -0.1636  0.3416
 5166SOL    HW121461   3.989  12.150   1.987  1.0560 -0.7841 -0.5025
 5166SOL    HW221462   4.033  12.229   1.866  1.1386  0.8492  0.5636
 5167SOL     OW21463   6.907   8.262  10.995  0.0487  0.1705 -0.3225
 5167SOL    HW121464   6.870   8.229  11.077  2.4344 -1.9300  0.0171
 5167SOL    HW221465   7.000   8.271  11.012  0.9266 -1.9421 -3.2090
 5168SOL     OW21466   1.539   6.729   4.421  0.2069 -0.4375 -0.4096
 5168SOL    HW121467   1.492   6.793   4.475  1.0590 -1.1143  1.2090
 5168SOL    HW221468   1.542   6.650   4.475  1.2326 -1.1083 -1.3993
 5169SOL     OW21469   0.523  10.430  12.350 -0.7304 -0.4498  0.6804
 5169SOL    HW121470   0.580  10.380  12.291 -1.1801  0.3672 -0.4833
 5169SOL    HW221471   0.447  10.373  12.363 -1.0827 -0.2310 -0.3548
 5170SOL     OW21472  12.099  11.805   7.990 -0.6624  0.0879  0.2014
 5170SOL    HW121473  12.057  11.749   8.055  0.3094 -2.6129 -1.3697
 5170SOL    HW221474  12.076  11.894   8.018 -2.1847 -1.0149  2.8811
 5171SOL     OW21475   6.999   1.505   3.667  0.5957 -0.5003  0.3279
 5171SOL    HW121476   6.944   1.432   3.640  1.6793 -1.4339  0.5702
 5171SOL    HW221477   6.968   1.579   3.614  0.8423 -1.6115 -1.4776
 5172SOL     OW21478   6.479  11.730   2.355  1.1860 -0.1800 -0.0718
 5172SOL    HW121479   6.538  11.695   2.421  0.3582 -0.1786  0.6837
 5172SOL    HW221480   6.418  11.786   2.404 -0.1139 -1.0360 -0.6622
 5173SOL     OW21481   1.170   5.957   5.462 -0.1468 -0.4530  0.0451
 5173SOL    HW121482   1.144   5.872   5.499 -1.3102  0.4613  1.4816
 5173SOL    HW221483   1.190   5.938   5.370 -0.3506 -2.2736  0.3280
 5174SOL     OW21484   4.660   6.087  11.054  0.2235  0.3032  0.3485
 5174SOL    HW121485   4.681   6.028  10.982  1.1953 -0.3705  1.1448
 5174SOL    HW221486   4.587   6.139  11.022  0.1272 -0.5062 -0.8287
 5175SOL     OW21487   1.416   7.099  10.388 -0.2059  0.3973  0.3654
 5175SOL    HW121488   1.355   7.167  10.415 -1.2275  0.2377 -1.4012
 5175SOL    HW221489   1.372   7.017  10.410  0.4103  0.2677  1.1901
 5176SOL     OW21490  11.847   4.203  10.355 -0.4689  0.4228  0.0452
 5176SOL    HW121491  11.788   4.135  10.386 -0.5327 -0.7190 -2.3518
 5176SOL    HW221492  11.790   4.278  10.335 -0.5313  0.8369  1.6138
 5177SOL     OW21493   8.799   5.079   3.018 -0.3472 -0.3751  0.6025
 5177SOL    HW121494   8.803   5.019   2.944 -0.4269  0.0210  0.2716
 5177SOL    HW221495   8.848   5.156   2.990  0.6708 -0.6955  1.4282
 5178SOL     OW21496   6.874   9.351  10.322 -0.2538  0.3622  0.4706
 5178SOL    HW121497   6.836   9.303  10.249 -0.2690  2.7344 -1.2070
 5178SOL    HW221498   6.967   9.326  10.322 -0.7421 -1.6424  1.4023
 5179SOL     OW21499   5.667   0.592   1.331 -0.7085  0.2973  0.4074
 5179SOL    HW121500   5.632   0.649   1.400 -1.5631  0.0877  0.1566
 5179SOL    HW221501   5.718   0.526   1.378 -0.1307  0.9602  0.7367
 5180SOL     OW21502   6.174   7.916   8.547  0.1333  0.2531 -0.0763
 5180SOL    HW121503   6.201   7.873   8.465  0.7907  0.0356  0.2429
 5180SOL    HW221504   6.107   7.979   8.520  1.4471  1.3062 -1.0199
 5181SOL     OW21505   3.482   4.209   1.915 -0.1228  0.1251 -0.2963
 5181SOL    HW121506   3.472   4.225   2.009 -0.5836 -0.8617 -0.1687
 5181SOL    HW221507   3.532   4.285   1.883 -0.7385  0.9243  0.5787
 5182SOL     OW21508   9.403   5.887   4.742 -0.0365  0.5375  0.0604
 5182SOL    HW121509   9.480   5.921   4.697  0.4993  1.2670  1.4586
 5182SOL    HW221510   9.357   5.965   4.774 -0.0884  0.0376  1.2461
 5183SOL     OW21511   2.638   2.802   8.262  0.6423  0.1923 -0.5579
 5183SOL    HW121512   2.595   2.743   8.201 -0.1852 -0.0604  0.2435
 5183SOL    HW221513   2.730   2.778   8.258  0.2934 -1.3025 -0.0964
 5184SOL     OW21514   1.393   0.780   2.674 -0.3437  0.0831 -0.0562
 5184SOL    HW121515   1.484   0.800   2.698 -0.9183  1.8118  0.9007
 5184SOL    HW221516   1.341   0.832   2.735 -1.9712  0.0949 -1.3895
 5185SOL     OW21517  10.707  11.712  10.188 -0.2182 -0.4384 -0.0534
 5185SOL    HW121518  10.665  11.778  10.242  0.3566  0.6623 -0.9211
 5185SOL    HW221519  10.726  11.640  10.249  1.4860  1.2280  1.5109
 5186SOL     OW21520  11.304   1.444   2.043 -0.0598  0.5247 -0.3655
 5186SOL    HW121521  11.308   1.534   2.012  0.8435  0.2301 -1.1383
 5186SOL    HW221522  11.244   1.400   1.982  0.5227  0.3058 -0.7909
 5187SOL     OW21523   2.626   8.696   7.460  0.2347 -0.6241  0.0656
 5187SOL    HW121524   2.561   8.646   7.411  0.1991 -1.0227  0.5139
 5187SOL    HW221525   2.647   8.770   7.403 -0.5371 -0.5429 -0.1232
 5188SOL     OW21526   4.690   9.579   3.211  0.2085 -0.2901 -0.3207
 5188SOL    HW121527   4.673   9.576   3.117 -0.8141 -1.0217 -0.1303
 5188SOL    HW221528   4.724   9.492   3.231  1.9669  0.3836 -0.2716
 5189SOL     OW21529   7.320   0.631   7.439  0.0046  0.3809  0.4138
 5189SOL    HW121530   7.268   0.653   7.517  0.1250  0.0577  0.5855
 5189SOL    HW221531   7.411   0.639   7.468  0.0658  1.5594 -0.0561
 5190SOL     OW21532   8.904   7.757   8.119  0.0632 -0.7477  0.4685
 5190SOL    HW121533   8.942   7.764   8.032 -0.7129  0.1408  0.1873
 5190SOL    HW221534   8.813   7.733   8.104  0.2584 -1.9940  1.1013
 5191SOL     OW21535   2.696   1.737   1.585 -0.3561  0.2549  0.3642
 5191SOL    HW121536   2.774   1.725   1.532 -0.8534 -0.2739 -0.2620
 5191SOL    HW221537   2.701   1.668   1.651 -0.7331 -0.3483 -0.2238
 5192SOL     OW21538   9.006   6.419   0.520 -0.0109 -0.4723 -0.3327
 5192SOL    HW121539   9.057   6.445   0.444  0.8936  0.4609  0.5633
 5192SOL    HW221540   9.020   6.324   0.527  1.9454 -0.2034  0.0882
 5193SOL     OW21541   4.190   6.737   2.964  0.1191  0.2831 -0.1587
 5193SOL    HW121542   4.173   6.726   2.870  0.0138  1.0495 -0.2378
 5193SOL    HW221543   4.127   6.678   3.007  2.1031 -2.3452 -0.6000
 5194SOL     OW21544  11.270   3.625   9.411  0.3286 -0.3777 -0.0280
 5194SOL    HW121545  11.243   3.696   9.469  0.4657 -1.1455  1.0256
 5194SOL    HW221546  11.363   3.612   9.432  0.2859 -0.9008 -0.1616
 5195SOL     OW21547   3.567   3.279   4.830 -0.3621 -0.2147  0.0794
 5195SOL    HW121548   3.496   3.248   4.887 -2.2174  2.0498 -0.8501
 5195SOL    HW221549   3.542   3.250   4.742  2.0461 -2.9371  0.1332
 5196SOL     OW21550   8.788   2.711   0.116 -0.0819 -0.4376  0.2632
 5196SOL    HW121551   8.710   2.706   0.061  1.2459 -0.6012 -1.7151
 5196SOL    HW221552   8.838   2.631   0.095  1.8733  0.9212 -0.5781
 5197SOL     OW21553   5.240   4.344   3.791 -0.3080  0.3043 -0.5349
 5197SOL    HW121554   5.254   4.254   3.819  1.8035  0.5359 -0.6567
 5197SOL    HW221555   5.247   4.395   3.871  0.3912  0.4934 -0.7025
 5198SOL     OW21556   7.260   0.595   3.124  0.0676 -0.6551  0.3951
 5198SOL    HW121557   7.206   0.647   3.184  0.0761  0.9531 -0.9263
 5198SOL    HW221558   7.215   0.511   3.117 -1.6100  0.2359  0.2311
 5199SOL     OW21559   7.051   1.636   8.850  0.4355  0.1663 -0.3510
 5199SOL    HW121560   6.963   1.673   8.857  0.6620  0.6427  0.0836
 5199SOL    HW221561   7.066   1.625   8.756 -0.4421 -0.8008 -0.4002
 5200SOL     OW21562  10.689   4.234   3.818  0.1994  0.6580  0.1374
 5200SOL    HW121563  10.755   4.165   3.819  0.2204  0.5291 -2.5899
 5200SOL    HW221564  10.731   4.306   3.771 -1.1691  0.9913 -0.6339
 5201SOL     OW21565   9.720   3.607   9.392 -0.0833  0.4330  0.3611
 5201SOL    HW121566   9.798   3.590   9.339 -0.0232  0.0086  0.5811
 5201SOL    HW221567   9.753   3.610   9.482 -0.4793 -0.9260  0.5842
 5202SOL     OW21568   4.897   6.589   2.939  0.1988 -0.2766 -0.0230
 5202SOL    HW121569   4.815   6.578   2.987  0.7386 -0.6128  0.8429
 5202SOL    HW221570   4.921   6.681   2.955 -0.4002  0.0534 -0.9351
 5203SOL     OW21571   0.658   4.096  12.438  0.1050 -0.3466 -0.2980
 5203SOL    HW121572   0.653   4.069  12.530 -1.4479  2.2059  0.4955
 5203SOL    HW221573   0.671   4.191  12.442 -2.5972  0.2706 -2.5869
 5204SOL     OW21574   3.302  11.529   0.960  0.4658  0.6017 -0.1530
 5204SOL    HW121575   3.226  11.527   0.902 -0.5638  0.3470  1.1723
 5204SOL    HW221576   3.268  11.507   1.046  2.5757 -3.0465 -0.0378
 5205SOL     OW21577   8.980   8.749   4.289  0.2769  0.5084 -0.4982
 5205SOL    HW121578   8.926   8.771   4.365  0.7920 -0.1887  0.0957
 5205SOL    HW221579   9.070   8.770   4.317  0.7043 -1.5503 -0.1583
 5206SOL     OW21580   4.793   9.684   7.555  0.2623 -0.7004 -0.3125
 5206SOL    HW121581   4.704   9.718   7.550 -0.0918 -1.6208 -0.5195
 5206SOL    HW221582   4.839   9.727   7.483  1.0766  2.7296  2.0588
 5207SOL     OW21583   6.027   6.665  10.697 -0.4043 -0.7165 -0.4394
 5207SOL    HW121584   6.010   6.719  10.619 -2.2127 -2.5252 -1.3874
 5207SOL    HW221585   6.054   6.728  10.764 -0.0340  1.0521 -2.1566
 5208SOL     OW21586   3.964  10.924  12.322  0.0667  0.2337 -0.2783
 5208SOL    HW121587   3.874  10.916  12.289 -0.1785  0.8432  0.2260
 5208SOL    HW221588   3.980  11.018  12.325  0.4910  0.1481  0.2628
 5209SOL     OW21589   2.702   3.232   2.542 -0.0097 -0.4032  0.4041
 5209SOL    HW121590   2.745   3.158   2.585  1.3305  0.9435  1.4567
 5209SOL    HW221591   2.643   3.268   2.608  0.1957  0.1720  0.2787
 5210SOL     OW21592   9.415   2.348  11.522 -0.5476  0.2232  0.7754
 5210SOL    HW121593   9.450   2.378  11.438  2.1234 -2.4587  0.7402
 5210SOL    HW221594   9.470   2.391  11.588  0.2822 -0.9933  0.9047
 5211SOL     OW21595   6.212  10.573   0.105 -0.5174 -0.0250  0.3804
 5211SOL    HW121596   6.122  10.546   0.088 -0.8293  1.4548 -0.5084
 5211SOL    HW221597   6.227  10.647   0.045  1.3961 -0.4448  0.2645
 5212SOL     OW21598   9.736   2.947  11.182 -0.2366 -0.0917  0.0837
 5212SOL    HW121599   9.803   2.883  11.158 -0.2024  0.3539 -1.0855
 5212SOL    HW221600   9.732   2.944  11.278  1.9262  0.3566  0.2181
 5213SOL     OW21601   8.039   9.293  11.763 -0.0878 -0.2565  0.6088
 5213SOL    HW121602   8.070   9.253  11.682 -1.1030 -0.0585  0.1067
 5213SOL    HW221603   8.104   9.268  11.829 -1.0628 -3.4764  0.5415
 5214SOL     OW21604   2.288   1.484   6.320  0.0023  0.2040  0.1263
 5214SOL    HW121605   2.219   1.484   6.253 -0.2380  2.5571  0.2964
 5214SOL    HW221606   2.242   1.469   6.402  0.0620 -0.8267 -0.0136
 5215SOL     OW21607   9.366   2.277   0.787 -0.2079 -0.6029  0.5190
 5215SOL    HW121608   9.435   2.213   0.804  0.4145  0.1268  0.8077
 5215SOL    HW221609   9.410   2.347   0.740 -0.7956 -0.2027  0.5565
 5216SOL     OW21610   7.268   7.918   4.846 -0.4983 -0.0727  0.0261
 5216SOL    HW121611   7.238   7.984   4.783  0.5842  0.7757  0.3569
 5216SOL    HW221612   7.192   7.898   4.899 -0.8549  0.8894 -0.1110
 5217SOL     OW21613   6.872   9.611  11.669  0.1389  0.3394  0.3630
 5217SOL    HW121614   6.807   9.602  11.739 -0.3828  1.5505  0.0703
 5217SOL    HW221615   6.873   9.705  11.650  0.2340  0.0375 -1.2661
 5218SOL     OW21616   0.920  12.283  10.679  0.0694 -0.4638 -0.8329
 5218SOL    HW121617   0.884  12.364  10.642 -1.5554 -0.1062  1.3138
 5218SOL    HW221618   0.845  12.239  10.719  1.2698 -2.0183 -0.1609
 5219SOL     OW21619   3.628   8.625  12.056 -0.4084  0.2604 -0.3591
 5219SOL    HW121620   3.678   8.655  12.131  1.1298  0.5225 -1.4368
 5219SOL    HW221621   3.557   8.572  12.093 -0.9823  2.1355  1.3562
 5220SOL     OW21622   0.456  12.446   9.658 -0.1248  0.3609  0.5572
 5220SOL    HW121623   0.370  12.481   9.681 -0.2321  1.4288 -1.3008
 5220SOL    HW221624   0.516  12.487   9.721 -0.5009  2.5717 -0.4254
 5221SOL     OW21625   3.956   5.375   6.093  0.0583  0.4046 -0.7635
 5221SOL    HW121626   4.049   5.383   6.069 -0.0050  2.3496 -0.4751
 5221SOL    HW221627   3.957   5.348   6.185  0.3476  0.9848 -0.5925
 5222SOL     OW21628   4.725   9.379   1.174 -0.6265  0.0907  0.6221
 5222SOL    HW121629   4.713   9.363   1.268 -0.6193  0.5626  0.7042
 5222SOL    HW221630   4.725   9.291   1.135  1.4008 -0.2882  1.3110
 5223SOL     OW21631   2.673   5.033   1.250 -0.5431  0.0185 -0.5918
 5223SOL    HW121632   2.748   5.051   1.307 -0.0362 -0.6543 -1.0288
 5223SOL    HW221633   2.659   4.938   1.259 -1.5227  0.1872 -0.2945
 5224SOL     OW21634   0.803  11.159   6.443  0.3526 -0.7409 -0.3430
 5224SOL    HW121635   0.871  11.210   6.398 -0.7305  1.4427  0.3354
 5224SOL    HW221636   0.834  11.154   6.533  0.6455 -1.6934 -0.4857
 5225SOL     OW21637   1.938  10.207  12.478  0.3978  0.4037  0.3487
 5225SOL    HW121638   1.952  10.250  12.394  1.4669  1.0503  0.8309
 5225SOL    HW221639   1.850  10.170  12.472  1.7252 -2.8439 -2.4635
 5226SOL     OW21640   3.378   5.431   2.390  1.0895  0.2675  0.5096
 5226SOL    HW121641   3.417   5.345   2.405 -0.2227 -0.2635  1.0537
 5226SOL    HW221642   3.296   5.412   2.344  0.5566  1.1847  1.0547
 5227SOL     OW21643   2.625   1.974   9.110 -0.4706  0.2600  0.3874
 5227SOL    HW121644   2.698   1.984   9.171 -1.5106  1.5959  1.4822
 5227SOL    HW221645   2.637   1.887   9.072  1.4521  0.2844  0.8289
 5228SOL     OW21646   2.426   4.789   0.755 -0.4329  0.2758  0.7087
 5228SOL    HW121647   2.373   4.771   0.677  0.0549  0.5037  0.3243
 5228SOL    HW221648   2.363   4.790   0.827 -1.0935  1.4967  0.1322
 5229SOL     OW21649   0.915   3.602  12.270 -0.0114  0.8197  0.1119
 5229SOL    HW121650   0.969   3.611  12.348 -1.1021 -1.3812  1.2009
 5229SOL    HW221651   0.849   3.671  12.279  1.2432  2.0815 -0.1016
 5230SOL     OW21652   0.343   7.815   6.729 -0.5564  0.2499 -0.0268
 5230SOL    HW121653   0.392   7.885   6.687 -1.1174  0.5325 -0.2161
 5230SOL    HW221654   0.352   7.741   6.669  2.2585 -0.7107  1.3946
 5231SOL     OW21655   5.023   1.433   0.072 -0.1003  0.2525 -0.0821
 5231SOL    HW121656   4.983   1.425   0.158  2.0062 -0.5273  0.8722
 5231SOL    HW221657   5.066   1.518   0.073 -0.6481  0.5528 -0.6601
 5232SOL     OW21658  10.928  10.297   4.973  0.0374  0.6591 -0.1633
 5232SOL    HW121659  10.894  10.269   4.888  0.7556 -0.6882 -0.0378
 5232SOL    HW221660  10.994  10.363   4.952  0.3055  0.2388 -0.6701
 5233SOL     OW21661   6.910   6.020  10.431  0.0371 -0.4110 -0.4211
 5233SOL    HW121662   6.903   6.114  10.414 -0.3026 -0.4325 -0.4159
 5233SOL    HW221663   6.999   5.998  10.407  0.4290  0.1063  0.4938
 5234SOL     OW21664  11.413   0.496   7.080 -0.5531  0.4610  0.0914
 5234SOL    HW121665  11.418   0.464   6.990  0.5446  1.4343 -0.2257
 5234SOL    HW221666  11.323   0.479   7.107 -0.0628 -2.9098  0.0050
 5235SOL     OW21667   5.283   5.594   7.726  0.0244  0.7422 -0.2943
 5235SOL    HW121668   5.215   5.526   7.719  1.6723 -1.0030 -0.0177
 5235SOL    HW221669   5.327   5.575   7.809  0.2613  2.4603  0.0098
 5236SOL     OW21670  10.756   8.602   8.693  0.2280 -0.3315  0.1855
 5236SOL    HW121671  10.716   8.527   8.737  1.3049 -1.3494 -0.5061
 5236SOL    HW221672  10.850   8.581   8.691  0.6115  1.2390  0.3481
 5237SOL     OW21673   7.826  10.214   2.731 -0.2170  0.1406 -0.2445
 5237SOL    HW121674   7.847  10.151   2.661  1.2692  0.0068  0.2754
 5237SOL    HW221675   7.873  10.181   2.807 -0.5719  1.1261  0.4138
 5238SOL     OW21676   5.432   7.349   5.214  0.0926 -0.0511 -0.1681
 5238SOL    HW121677   5.378   7.290   5.161 -0.3910  0.5122 -0.3215
 5238SOL    HW221678   5.463   7.415   5.152 -1.2631  1.1774  0.3704
 5239SOL     OW21679   5.597   4.810   2.454 -0.2325  0.1359 -0.0137
 5239SOL    HW121680   5.680   4.771   2.426  1.0284  2.0667  0.8607
 5239SOL    HW221681   5.567   4.860   2.378  0.6916  1.4242  0.4462
 5240SOL     OW21682   9.606  10.277   0.237  0.1750  0.8912  0.2697
 5240SOL    HW121683   9.620  10.306   0.327 -1.2463  1.4910  0.3231
 5240SOL    HW221684   9.519  10.309   0.215  0.8900  1.6728 -1.6892
 5241SOL     OW21685   8.363   0.671  10.724 -0.3102 -0.1828 -0.1600
 5241SOL    HW121686   8.360   0.657  10.630 -2.4185 -1.2265  0.0010
 5241SOL    HW221687   8.279   0.637  10.756  0.0316  0.8333  1.9984
 5242SOL     OW21688   2.855   4.890   7.440 -0.0109  0.3216 -0.4194
 5242SOL    HW121689   2.832   4.899   7.348 -2.8000  1.6333  0.2971
 5242SOL    HW221690   2.904   4.970   7.461  0.7334 -0.0353 -0.7571
 5243SOL     OW21691   4.903   2.000   8.423 -0.4765 -0.1407 -0.1676
 5243SOL    HW121692   4.887   2.094   8.411 -0.4171 -0.2474 -1.1967
 5243SOL    HW221693   4.954   1.994   8.503 -0.1980  0.7420 -0.2719
 5244SOL     OW21694   0.248   0.654   3.458 -0.7473  0.3484  0.1177
 5244SOL    HW121695   0.197   0.576   3.436  1.0739 -1.1970  1.1082
 5244SOL    HW221696   0.182   0.718   3.485 -2.2341 -1.3550  0.8091
 5245SOL     OW21697   5.953   0.046  11.761  0.2297  0.2571  0.6940
 5245SOL    HW121698   6.030   0.061  11.705  0.3291 -1.7597  0.2186
 5245SOL    HW221699   5.981  -0.020  11.824 -1.2677 -0.9864  0.1149
 5246SOL     OW21700   3.470   7.194   4.181  0.0163 -0.5826  0.4308
 5246SOL    HW121701   3.545   7.233   4.226 -1.1986  3.3733 -0.5503
 5246SOL    HW221702   3.396   7.247   4.210 -1.9635 -2.6412 -0.6699
 5247SOL     OW21703  11.798   7.849   2.831 -0.0726  0.6495 -0.5157
 5247SOL    HW121704  11.883   7.812   2.852 -0.4039  0.2739  0.2045
 5247SOL    HW221705  11.811   7.943   2.833  0.2454  0.5976 -0.0356
 5248SOL     OW21706   4.054   5.581   1.473  0.0835 -0.1233 -0.1604
 5248SOL    HW121707   4.097   5.496   1.488 -0.9724 -0.7697 -0.6614
 5248SOL    HW221708   4.120   5.634   1.427  0.2231 -1.2402 -1.3159
 5249SOL     OW21709   6.693   1.082  11.009 -0.1186 -0.6383 -0.7244
 5249SOL    HW121710   6.604   1.065  11.041 -0.5243  0.8796 -0.9998
 5249SOL    HW221711   6.735   0.995  11.009 -1.4096 -1.2912 -0.0600
 5250SOL     OW21712   6.409   5.865   3.265  0.0012 -0.7314 -0.5131
 5250SOL    HW121713   6.346   5.909   3.321  1.0968 -0.2244  0.3549
 5250SOL    HW221714   6.482   5.927   3.258  0.8784 -1.7564 -0.5867
 5251SOL     OW21715   2.279   9.355   9.835  0.4796  0.8752 -0.5877
 5251SOL    HW121716   2.205   9.297   9.814  0.7383  0.6952 -1.0275
 5251SOL    HW221717   2.255   9.395   9.918  0.8348 -0.8133  0.3764
 5252SOL     OW21718   5.923   5.396  11.080 -0.4232 -0.1496  0.6701
 5252SOL    HW121719   5.898   5.313  11.040  0.7266  0.6417 -1.8834
 5252SOL    HW221720   6.010   5.381  11.115 -1.1716 -0.6524  2.4292
 5253SOL     OW21721   3.937   7.744   8.069  0.5438  0.6446  0.1583
 5253SOL    HW121722   3.895   7.695   7.999  1.2590  0.0177  0.1615
 5253SOL    HW221723   3.960   7.679   8.135 -1.6721  1.4168  1.8177
 5254SOL     OW21724   2.423   8.410  10.672  0.3840  0.1640 -0.1640
 5254SOL    HW121725   2.436   8.414  10.767  0.2537 -0.4788 -0.1185
 5254SOL    HW221726   2.391   8.498  10.649 -1.4791 -0.2563  0.6732
 5255SOL     OW21727   4.885  10.477  11.434  0.0933  0.0500  0.7191
 5255SOL    HW121728   4.937  10.518  11.365  1.5552 -0.2965  1.5784
 5255SOL    HW221729   4.847  10.399  11.392 -0.1610  0.5758 -0.0559
 5256SOL     OW21730   2.319  12.260  10.639  0.2175 -0.1102  0.2895
 5256SOL    HW121731   2.253  12.292  10.577 -1.1305 -2.4965  0.3858
 5256SOL    HW221732   2.332  12.168  10.616 -0.2534 -1.0871  3.4231
 5257SOL     OW21733   3.732   8.341   7.855  0.4390  0.0390  0.2667
 5257SOL    HW121734   3.809   8.386   7.821 -0.7056  1.4135 -0.6479
 5257SOL    HW221735   3.733   8.256   7.811  1.3142  0.1143  0.1162
 5258SOL     OW21736   9.733   7.174  11.721  0.8184  0.1497 -0.2944
 5258SOL    HW121737   9.784   7.228  11.781  1.0813  0.9594 -1.2228
 5258SOL    HW221738   9.798   7.116  11.681  0.8285  0.3846 -0.6204
 5259SOL     OW21739  10.417   9.113   6.822 -0.0263  0.5006  0.1120
 5259SOL    HW121740  10.475   9.161   6.880  0.2245 -1.0780  1.2215
 5259SOL    HW221741  10.330   9.149   6.838  0.5864  3.1436 -1.8272
 5260SOL     OW21742   3.752   7.504   0.019 -0.6841  0.4012  0.3431
 5260SOL    HW121743   3.832   7.556   0.009 -0.1836  0.2612  2.9655
 5260SOL    HW221744   3.783   7.414   0.026 -0.9784  0.3917  1.8344
 5261SOL     OW21745   7.400   9.699   4.579  0.1902  0.6102  0.0061
 5261SOL    HW121746   7.409   9.626   4.518 -2.1207 -0.9953  1.4141
 5261SOL    HW221747   7.351   9.765   4.531  1.1042  0.6981 -0.8349
 5262SOL     OW21748  12.107   1.570  11.170  0.0155  0.3086 -0.2059
 5262SOL    HW121749  12.068   1.497  11.218 -0.8063  1.5421  1.0442
 5262SOL    HW221750  12.175   1.604  11.228 -0.7276  1.5798 -0.0602
 5263SOL     OW21751  11.525   2.933   6.685  0.1167 -0.3913 -0.4714
 5263SOL    HW121752  11.442   2.886   6.676  0.1158 -0.5383  0.2923
 5263SOL    HW221753  11.568   2.893   6.760  0.3891  0.4173 -0.1881
 5264SOL     OW21754  11.999   8.768   6.964 -0.0390  0.0154  0.5342
 5264SOL    HW121755  12.074   8.808   7.008 -1.2198  0.8332  1.9176
 5264SOL    HW221756  12.029   8.681   6.939  0.9771 -0.1686  2.2379
 5265SOL     OW21757   8.933   1.391  10.114 -0.6336  0.7607  0.1543
 5265SOL    HW121758   8.841   1.377  10.134 -0.8553  0.2853 -1.1071
 5265SOL    HW221759   8.933   1.463  10.050 -0.2184  0.0830 -0.6211
 5266SOL     OW21760   9.207   6.848  10.438 -0.2954 -0.3212 -0.3837
 5266SOL    HW121761   9.226   6.799  10.518  0.3349 -1.9380 -1.4734
 5266SOL    HW221762   9.224   6.939  10.462  1.8641 -0.9466  0.7842
 5267SOL     OW21763   2.746   9.277   2.881 -0.0733 -0.7739 -0.2132
 5267SOL    HW121764   2.761   9.347   2.945 -0.2214 -0.2656 -0.7241
 5267SOL    HW221765   2.699   9.320   2.809  1.6363 -0.9131 -1.4869
 5268SOL     OW21766   2.942   4.739   7.829  0.0007  0.2607 -0.7904
 5268SOL    HW121767   2.888   4.673   7.784 -0.7123  0.2287  0.0646
 5268SOL    HW221768   3.004   4.769   7.763 -0.9601  0.1687 -1.7703
 5269SOL     OW21769   8.323   8.655   7.383 -0.6080  0.4162  0.3268
 5269SOL    HW121770   8.356   8.685   7.468  0.1190 -1.5084  0.7753
 5269SOL    HW221771   8.361   8.717   7.320 -0.9856  1.7476  1.3497
 5270SOL     OW21772   5.752   5.006  11.277 -0.1235 -0.3767  0.4133
 5270SOL    HW121773   5.732   5.099  11.262  1.9843 -0.0291 -0.5999
 5270SOL    HW221774   5.830   4.990  11.225 -0.1126 -2.6057  1.0338
 5271SOL     OW21775   0.357   8.399   6.226  0.2720 -0.0304 -0.3629
 5271SOL    HW121776   0.430   8.339   6.241 -0.9155 -1.4570 -0.1088
 5271SOL    HW221777   0.310   8.402   6.309  0.7384  1.9080 -0.1234
 5272SOL     OW21778   1.042   6.795   3.644 -0.1881  0.5304 -0.3519
 5272SOL    HW121779   1.048   6.760   3.733 -1.2317 -0.6398 -0.7166
 5272SOL    HW221780   0.949   6.803   3.627 -0.1170 -1.6194 -2.1952
 5273SOL     OW21781   4.099   3.821  10.030  0.4174  0.3819  0.3051
 5273SOL    HW121782   4.181   3.805   9.983  0.1002  1.3259 -0.6121
 5273SOL    HW221783   4.126   3.854  10.115  0.9962 -0.7351  0.5778
 5274SOL     OW21784   3.930   1.897   0.823 -0.7456 -0.3419 -0.3663
 5274SOL    HW121785   3.982   1.970   0.856 -2.3535  0.8319 -0.3024
 5274SOL    HW221786   3.898   1.926   0.738  0.0105 -1.6994 -1.1448
 5275SOL     OW21787   9.990   3.718   9.854  0.3181 -0.3103 -0.6986
 5275SOL    HW121788  10.078   3.682   9.844  1.1496  1.3141  0.3211
 5275SOL    HW221789   9.971   3.712   9.947  0.3541  1.5040 -0.5377
 5276SOL     OW21790   2.572   9.591   1.888 -0.5810  0.3493 -0.7031
 5276SOL    HW121791   2.624   9.532   1.834  0.0065 -0.6372  0.8720
 5276SOL    HW221792   2.557   9.542   1.969 -3.4198  0.8496 -0.8350
 5277SOL     OW21793   7.202  12.116   3.363  0.3689  0.3082  0.4274
 5277SOL    HW121794   7.130  12.065   3.400  0.0863 -0.2072 -0.8060
 5277SOL    HW221795   7.281  12.070   3.393  0.1182 -1.3182 -1.2074
 5278SOL     OW21796   5.131   4.838  10.034  0.1571  0.4739 -0.4432
 5278SOL    HW121797   5.184   4.872   9.962 -0.6391  0.8400 -0.8589
 5278SOL    HW221798   5.115   4.913  10.090  0.2407  0.3196 -0.2103
 5279SOL     OW21799   7.633  12.049  11.426 -0.5209 -0.6069  0.3410
 5279SOL    HW121800   7.650  11.959  11.399  1.2051  0.0177 -0.7913
 5279SOL    HW221801   7.601  12.093  11.347  2.0216  0.5852 -0.1190
 5280SOL     OW21802  10.807   3.510  10.796 -0.5096  0.1567  0.2677
 5280SOL    HW121803  10.752   3.576  10.754  0.0792  1.0377  0.8366
 5280SOL    HW221804  10.894   3.550  10.799 -0.3327 -0.2798  1.4079
 5281SOL     OW21805   9.807   3.930   0.246  0.4070  0.0210  0.1014
 5281SOL    HW121806   9.795   3.873   0.170  1.7651  0.5314 -0.5303
 5281SOL    HW221807   9.747   4.003   0.231  1.3907  0.6300 -1.0277
 5282SOL     OW21808   4.183   8.377   9.130 -0.5136 -0.3184 -0.4571
 5282SOL    HW121809   4.254   8.427   9.090  0.4800 -1.6414 -0.4410
 5282SOL    HW221810   4.192   8.392   9.224  0.6380 -1.5182 -0.3337
 5283SOL     OW21811   8.143   7.941   2.912 -0.6230 -0.3229  0.3474
 5283SOL    HW121812   8.164   8.030   2.939 -0.4478 -0.4176  0.5275
 5283SOL    HW221813   8.058   7.923   2.952 -0.8888 -0.0599 -0.1003
 5284SOL     OW21814   5.983   8.666   8.260 -0.6756  0.0713  0.5547
 5284SOL    HW121815   6.007   8.725   8.332 -1.2405  0.0664  0.7504
 5284SOL    HW221816   5.889   8.677   8.250 -0.3331  1.6907 -1.6282
 5285SOL     OW21817   7.929   3.740   9.099  0.0080 -0.1546  0.0037
 5285SOL    HW121818   7.959   3.785   9.178 -0.2727 -1.2110  0.7457
 5285SOL    HW221819   8.009   3.719   9.051  0.1840  0.4935  0.0106
 5286SOL     OW21820   0.005   7.417  11.461 -0.5899  0.5612  0.7354
 5286SOL    HW121821  -0.084   7.409  11.495 -0.0446 -1.3632  1.8507
 5286SOL    HW221822   0.034   7.327  11.449  1.3043  1.1463  0.6454
 5287SOL     OW21823   7.571   8.757  12.365 -0.9054  0.1759 -0.5230
 5287SOL    HW121824   7.557   8.760  12.460 -2.4782  1.2793 -0.7467
 5287SOL    HW221825   7.649   8.703  12.354 -0.0443  0.9056  1.4640
 5288SOL     OW21826   6.816   0.521  12.328  0.1954 -0.6342  0.4263
 5288SOL    HW121827   6.784   0.493  12.242  0.8333  0.8605 -0.3314
 5288SOL    HW221828   6.737   0.543  12.376 -0.0738  1.1324 -0.7457
 5289SOL     OW21829   6.238  12.107   0.565 -0.0090 -0.6023  0.0758
 5289SOL    HW121830   6.223  12.190   0.521 -0.5890 -0.7451  0.0002
 5289SOL    HW221831   6.189  12.113   0.647  1.0629 -0.3386  0.7212
 5290SOL     OW21832   0.883  11.565   5.327 -0.4800  0.2593  0.4759
 5290SOL    HW121833   0.970  11.526   5.321 -0.8674 -0.4941 -0.6158
 5290SOL    HW221834   0.892  11.633   5.394  1.2190  0.8999 -0.3326
 5291SOL     OW21835  12.210   5.289   6.154  0.1868  0.2268 -0.3584
 5291SOL    HW121836  12.266   5.360   6.122 -1.0625  0.7237 -1.4927
 5291SOL    HW221837  12.173   5.323   6.236  1.2481  0.0219  0.2283
 5292SOL     OW21838   4.512   6.855   1.589 -0.6076 -0.1984  0.1222
 5292SOL    HW121839   4.498   6.949   1.582  0.0672  0.0232  1.5715
 5292SOL    HW221840   4.426   6.819   1.611 -0.4991  0.2953  1.4011
 5293SOL     OW21841  12.440   8.057   0.592 -0.1004  0.1576 -0.0660
 5293SOL    HW121842  12.450   8.130   0.654  1.4079 -0.2221  0.1720
 5293SOL    HW221843  12.493   7.987   0.629  1.7232  0.2604 -2.2751
 5294SOL     OW21844   0.332  10.730   2.919 -0.3141 -0.1109 -0.2586
 5294SOL    HW121845   0.351  10.720   2.826 -0.4324  0.5835 -0.3623
 5294SOL    HW221846   0.247  10.774   2.922 -0.0311  0.4274  0.1640
 5295SOL     OW21847   0.045   3.756   0.190  0.1383 -0.4123 -0.4049
 5295SOL    HW121848   0.097   3.780   0.267  0.3424  0.6850 -0.8617
 5295SOL    HW221849  -0.045   3.753   0.222  0.4725 -2.7431  0.4892
 5296SOL     OW21850   2.243   3.061   1.481  0.1492 -0.0570  0.3550
 5296SOL    HW121851   2.307   3.020   1.539  1.0051  1.8664  0.8571
 5296SOL    HW221852   2.292   3.132   1.439 -1.5399  1.2274  0.4613
 5297SOL     OW21853   4.276   3.748   6.115 -0.4918  0.0338 -0.0515
 5297SOL    HW121854   4.252   3.666   6.071 -0.0667  0.2765 -0.7534
 5297SOL    HW221855   4.365   3.766   6.085 -0.4208  0.5342  0.4371
 5298SOL     OW21856   8.894   4.684   5.291  0.0287  0.1419  0.7552
 5298SOL    HW121857   8.969   4.649   5.244 -0.4590 -0.7419  0.6191
 5298SOL    HW221858   8.831   4.612   5.293 -0.4366  0.5542  1.6994
 5299SOL     OW21859   8.836   3.633   9.857 -0.1681  0.6031  0.2332
 5299SOL    HW121860   8.926   3.660   9.835 -0.2482  0.6872  0.0052
 5299SOL    HW221861   8.816   3.565   9.792 -0.5837  1.1951 -0.2736
 5300SOL     OW21862   6.724   0.226   9.902  0.1099 -0.2288  0.1847
 5300SOL    HW121863   6.797   0.287   9.915  0.0389  0.4374 -2.0968
 5300SOL    HW221864   6.661   0.275   9.850 -1.8331 -0.9459  1.7316
 5301SOL     OW21865  12.408   0.686  12.225  0.2262  0.4157  0.4138
 5301SOL    HW121866  12.314   0.679  12.237 -0.0918 -0.7116 -2.0810
 5301SOL    HW221867  12.446   0.647  12.304 -1.3586  0.5339  1.2719
 5302SOL     OW21868  12.135   8.712   5.057  0.3249  0.5700 -0.0617
 5302SOL    HW121869  12.139   8.641   5.120  0.1955 -0.4673 -1.1883
 5302SOL    HW221870  12.156   8.671   4.973 -1.3149  1.5418 -0.9874
 5303SOL     OW21871   7.316   4.613   1.529  0.6798  0.1124 -0.8219
 5303SOL    HW121872   7.265   4.587   1.605  3.2986 -0.9460  0.6884
 5303SOL    HW221873   7.266   4.580   1.454 -1.7366  0.7806  0.3902
 5304SOL     OW21874   9.811   2.884   2.532  0.7741  0.2463  0.4223
 5304SOL    HW121875   9.782   2.946   2.466 -0.5801  0.5608  1.2633
 5304SOL    HW221876   9.735   2.828   2.548  2.0447 -1.8623 -0.5307
 5305SOL     OW21877   5.574   3.509   8.478 -0.3187  0.5402 -0.4182
 5305SOL    HW121878   5.570   3.494   8.572 -0.7842  1.4800 -0.2736
 5305SOL    HW221879   5.485   3.489   8.448 -0.9369  2.7703 -0.2319
 5306SOL     OW21880   6.661   0.708  11.794  0.1053 -0.0361  0.9797
 5306SOL    HW121881   6.566   0.706  11.801  0.0292  2.0654  1.1953
 5306SOL    HW221882   6.692   0.717  11.884  0.4618  0.1741  0.8377
 5307SOL     OW21883   4.104   5.329   6.462  0.3059  0.3902 -0.0512
 5307SOL    HW121884   4.101   5.247   6.414 -2.1289  0.2864  0.1519
 5307SOL    HW221885   4.123   5.395   6.396  0.0660 -0.0882 -0.5990
 5308SOL     OW21886   0.326   5.084   2.935 -0.3203 -0.2903 -0.0279
 5308SOL    HW121887   0.317   5.011   2.997 -1.5546 -0.7315 -0.6978
 5308SOL    HW221888   0.240   5.092   2.894 -0.8230  2.7852  1.3348
 5309SOL     OW21889   9.666   6.788   8.369 -0.1464  0.1338 -0.3899
 5309SOL    HW121890   9.667   6.762   8.277  0.9415 -0.5649 -0.1994
 5309SOL    HW221891   9.736   6.736   8.410 -0.7494  0.2745  0.8780
 5310SOL     OW21892   2.904  10.989   6.051  0.0531 -0.1413  0.9220
 5310SOL    HW121893   2.925  11.035   5.970 -1.0666 -1.1096  0.0493
 5310SOL    HW221894   2.852  11.051   6.101 -2.2623 -0.6871 -0.6489
 5311SOL     OW21895  10.412   2.944   4.146  0.3178  0.1063  0.4084
 5311SOL    HW121896  10.327   2.920   4.184  0.5827 -1.0736  0.2914
 5311SOL    HW221897  10.449   3.006   4.209 -1.4324  2.2270 -0.4753
 5312SOL     OW21898   4.940   7.773   9.766  0.0785 -0.4971 -0.9145
 5312SOL    HW121899   5.016   7.789   9.822 -0.5009  0.3387 -0.3485
 5312SOL    HW221900   4.966   7.698   9.711  1.3941 -0.0644 -0.9129
 5313SOL     OW21901  11.791   5.781   4.956  0.5176 -0.5072 -0.2388
 5313SOL    HW121902  11.697   5.763   4.954  0.3818  0.2197 -0.3805
 5313SOL    HW221903  11.816   5.787   4.864  0.5022  0.3357 -0.1892
 5314SOL     OW21904   3.643  11.329   3.362 -0.5062  0.2153 -0.5088
 5314SOL    HW121905   3.656  11.378   3.280  1.3731  0.1749 -0.2788
 5314SOL    HW221906   3.694  11.378   3.427  0.7356 -1.5444 -0.0877
 5315SOL     OW21907   3.047   5.012   1.882  0.0963  0.3114  0.1804
 5315SOL    HW121908   3.071   5.012   1.974 -0.8074  0.7069  0.4185
 5315SOL    HW221909   3.128   5.035   1.836  1.4068 -2.8825  0.6297
 5316SOL     OW21910   0.508  12.304   1.752  0.6687  0.2692  0.2765
 5316SOL    HW121911   0.417  12.322   1.727  0.3686 -0.6271  0.6652
 5316SOL    HW221912   0.552  12.284   1.670  0.1227 -0.8607  0.2368
 5317SOL     OW21913   4.952   4.833   9.638 -0.1259  0.2727  0.2228
 5317SOL    HW121914   4.926   4.798   9.552 -1.5534  0.1966  0.6670
 5317SOL    HW221915   4.981   4.923   9.619  0.8579 -0.1750 -0.5132
 5318SOL     OW21916   9.442  11.636   8.518  0.1277  0.1193  0.2385
 5318SOL    HW121917   9.457  11.541   8.514 -2.3987 -0.3666  0.5860
 5318SOL    HW221918   9.476  11.662   8.604 -0.6704 -0.8161  0.8611
 5319SOL     OW21919   0.867   3.202   9.373 -0.4803  0.5766 -0.0218
 5319SOL    HW121920   0.950   3.249   9.368 -0.2997  0.1618 -1.3426
 5319SOL    HW221921   0.881   3.135   9.440 -0.3144  1.5581  0.9457
 5320SOL     OW21922   5.671   1.830   9.451 -0.1427 -0.4478 -0.0628
 5320SOL    HW121923   5.639   1.873   9.372 -1.4351 -0.8802  0.1984
 5320SOL    HW221924   5.713   1.750   9.419 -0.8822 -0.7475 -0.3108
 5321SOL     OW21925   8.161   5.608   3.532 -0.1730 -0.0009  0.2318
 5321SOL    HW121926   8.253   5.627   3.548 -0.6122  1.3797  1.2791
 5321SOL    HW221927   8.128   5.574   3.615 -1.0493  1.4240  0.5047
 5322SOL     OW21928   9.990   1.687  10.037  0.1578  0.0123  1.0455
 5322SOL    HW121929  10.044   1.766  10.029 -1.0666  0.7301 -0.8732
 5322SOL    HW221930  10.020   1.631   9.965 -1.7180  0.5383 -0.2274
 5323SOL     OW21931   6.592   4.523   3.016  0.1271  0.0944  0.2861
 5323SOL    HW121932   6.666   4.487   2.967  0.6269  0.3886  0.8098
 5323SOL    HW221933   6.631   4.594   3.068 -0.2536 -0.6658  1.6430
 5324SOL     OW21934   4.539  11.910   3.486 -1.1351 -0.4590 -0.3915
 5324SOL    HW121935   4.556  11.891   3.394  1.3473  1.5407 -0.4608
 5324SOL    HW221936   4.484  11.989   3.485  1.8420  1.7840 -0.3304
 5325SOL     OW21937   4.203   0.839   5.917  0.6302 -0.3374 -0.0359
 5325SOL    HW121938   4.135   0.834   5.850 -1.6702 -0.1754  2.1312
 5325SOL    HW221939   4.171   0.905   5.979  1.8949 -1.5086  1.9766
 5326SOL     OW21940   1.536   9.541   7.963 -0.6402  0.1351  0.0435
 5326SOL    HW121941   1.524   9.636   7.973 -1.8289 -0.0469  0.5256
 5326SOL    HW221942   1.450   9.509   7.937 -1.3264 -1.2944  3.5390
 5327SOL     OW21943   0.226  11.490   9.782  0.7905  0.6044  0.4462
 5327SOL    HW121944   0.181  11.520   9.861 -0.2896  1.7788 -0.5446
 5327SOL    HW221945   0.162  11.504   9.712  1.3046 -1.4500 -0.5083
 5328SOL     OW21946  11.666  10.087   9.904  0.2302 -0.8154 -0.1967
 5328SOL    HW121947  11.629  10.000   9.894 -1.8431 -0.3914  2.5625
 5328SOL    HW221948  11.609  10.144   9.852 -1.2521 -0.6041  1.5338
 5329SOL     OW21949   7.086  12.384   4.213  0.0105  0.8630 -0.1930
 5329SOL    HW121950   7.105  12.296   4.246  1.3145  1.9809  2.3607
 5329SOL    HW221951   6.991  12.384   4.199  0.1652 -1.3895 -1.9163
 5330SOL     OW21952   0.700   3.239   0.375  0.1108  0.2664  0.5868
 5330SOL    HW121953   0.668   3.160   0.419 -0.0323  0.5479  0.9951
 5330SOL    HW221954   0.723   3.299   0.446 -0.5101  0.8865  0.2767
 5331SOL     OW21955   0.745  11.910   9.947 -0.0619 -0.2691  0.7756
 5331SOL    HW121956   0.719  11.827   9.909  0.2632 -0.2885  0.5978
 5331SOL    HW221957   0.836  11.897   9.975 -0.2375 -0.2022  1.3941
 5332SOL     OW21958   8.008  11.911   8.661  0.4504 -0.5122 -0.0134
 5332SOL    HW121959   8.083  11.866   8.699  1.1117  0.9883  0.5233
 5332SOL    HW221960   8.019  12.002   8.687 -1.7551 -0.3149  0.3725
 5333SOL     OW21961   5.731   4.009  10.824 -0.5615 -0.2485 -0.6350
 5333SOL    HW121962   5.714   4.091  10.778  0.6395  0.0270 -0.6072
 5333SOL    HW221963   5.811   3.975  10.785 -0.2423 -0.6650  0.3523
 5334SOL     OW21964   3.930   3.691  11.540 -0.7403  0.3842  0.1557
 5334SOL    HW121965   3.897   3.605  11.517  0.2394 -0.2298  0.9425
 5334SOL    HW221966   3.862   3.752  11.512 -0.2981 -0.3809 -2.9463
 5335SOL     OW21967   8.684   4.572   9.118 -0.0981  0.1777  0.0893
 5335SOL    HW121968   8.612   4.510   9.125 -0.2107  0.0418 -1.8214
 5335SOL    HW221969   8.756   4.521   9.080 -0.0710  1.0891 -1.1467
 5336SOL     OW21970   5.666   2.432  10.666  0.4086  0.0838 -0.1459
 5336SOL    HW121971   5.745   2.378  10.678  0.9557  0.6608 -1.0235
 5336SOL    HW221972   5.637   2.411  10.577 -0.5179 -0.2212  0.2174
 5337SOL     OW21973   6.848  11.359  10.444  0.0680 -0.1181  0.4091
 5337SOL    HW121974   6.821  11.315  10.524 -1.2309 -1.5811 -0.7717
 5337SOL    HW221975   6.782  11.334  10.379  0.1092  2.3805 -0.7300
 5338SOL     OW21976  10.967   2.807   6.437 -0.1732  0.1963 -0.1170
 5338SOL    HW121977  10.947   2.713   6.442  0.5103  0.0111 -0.6721
 5338SOL    HW221978  11.052   2.816   6.481 -0.1505  0.5242 -0.2249
 5339SOL     OW21979  12.340  11.426   9.096  0.2663 -0.3534  0.1013
 5339SOL    HW121980  12.409  11.359   9.097  1.8091  1.0741 -1.9488
 5339SOL    HW221981  12.357  11.477   9.017 -1.7001  1.5887  0.8264
 5340SOL     OW21982   6.965   1.571   7.833 -0.2926 -0.5412  0.5209
 5340SOL    HW121983   6.915   1.539   7.908  1.0921 -0.5093  1.4823
 5340SOL    HW221984   7.053   1.537   7.846 -0.1691 -1.0857 -1.4539
 5341SOL     OW21985   7.679   3.333   4.560 -0.1222  0.3576  0.5457
 5341SOL    HW121986   7.584   3.346   4.570 -0.2169  0.4144 -0.3769
 5341SOL    HW221987   7.702   3.381   4.481  0.7831  0.7758  1.0390
 5342SOL     OW21988   8.997  11.405   9.280 -0.0945 -0.0034 -0.1492
 5342SOL    HW121989   8.909  11.437   9.301 -0.8859  0.6876 -3.9207
 5342SOL    HW221990   9.055  11.457   9.337 -1.9747  0.9412  1.0092
 5343SOL     OW21991   3.764   5.355   8.052 -0.0280 -0.1098  0.6364
 5343SOL    HW121992   3.766   5.311   7.966  1.8692  0.0840  0.5199
 5343SOL    HW221993   3.816   5.298   8.109  0.3338  0.6956  1.1393
 5344SOL     OW21994   7.911   6.587   0.225 -0.1377 -0.5108 -0.8062
 5344SOL    HW121995   7.904   6.642   0.146  3.2289  1.4060  0.0417
 5344SOL    HW221996   7.926   6.499   0.191  2.4498  0.4501 -2.4587
 5345SOL     OW21997   2.783   4.726   2.430  0.1414 -0.1069 -0.7964
 5345SOL    HW121998   2.737   4.795   2.382  0.1982  0.6377  0.1949
 5345SOL    HW221999   2.722   4.651   2.427 -0.1674  0.1588 -1.3831
 5346SOL     OW22000   2.966   0.831   3.001  0.1987 -0.3736  0.3731
 5346SOL    HW122001   2.945   0.746   2.964 -3.4087  0.1011  0.9301
 5346SOL    HW222002   2.991   0.885   2.926 -4.8715 -0.0003 -1.4204
 5347SOL     OW22003  10.463   5.687  11.461 -0.1164  0.4676  0.0240
 5347SOL    HW122004  10.443   5.615  11.521 -0.5987  0.3723 -0.2509
 5347SOL    HW222005  10.558   5.683  11.450  0.0993  1.0254  1.4699
 5348SOL     OW22006   5.390   4.213  11.609 -0.3065 -0.0788 -0.2830
 5348SOL    HW122007   5.385   4.146  11.676 -0.2491 -0.9867 -1.1596
 5348SOL    HW222008   5.398   4.295  11.657  1.0274 -0.8107  0.8065
 5349SOL     OW22009   0.877   7.679   0.314  0.5977  0.5246 -0.4531
 5349SOL    HW122010   0.904   7.703   0.402  3.9013  0.5252 -1.3321
 5349SOL    HW222011   0.878   7.761   0.265  2.9840  0.0315 -1.3731
 5350SOL     OW22012   2.331   4.277   3.519  0.1620 -0.0111  0.6401
 5350SOL    HW122013   2.385   4.279   3.439  1.3173 -0.3685  1.3861
 5350SOL    HW222014   2.392   4.301   3.589 -0.7283 -0.1603  1.4748
 5351SOL     OW22015   7.910   6.317   0.123 -0.0936  0.3047 -0.3582
 5351SOL    HW122016   7.815   6.304   0.130 -0.0222 -0.3105 -0.4450
 5351SOL    HW222017   7.930   6.296   0.031  0.0775  0.7639 -0.4254
 5352SOL     OW22018   5.185   3.611   2.321  0.0308 -0.1110  0.1362
 5352SOL    HW122019   5.133   3.531   2.324 -0.7037  0.2697 -1.4409
 5352SOL    HW222020   5.121   3.681   2.315  0.5562  0.8511  3.6281
 5353SOL     OW22021   0.566   9.838  10.477 -0.7719  0.2980  0.8652
 5353SOL    HW122022   0.604   9.859  10.562 -0.7836  0.1205  0.9135
 5353SOL    HW222023   0.577   9.744  10.467 -0.1140  0.4231  0.3484
 5354SOL     OW22024   9.018   2.510   8.164 -0.4784  0.2094  1.0275
 5354SOL    HW122025   9.028   2.450   8.090 -1.9716  0.0654  0.8977
 5354SOL    HW222026   9.033   2.455   8.241 -0.2046  0.0530  0.8657
 5355SOL     OW22027   1.594   7.770   9.881 -0.3339  0.2544 -0.4458
 5355SOL    HW122028   1.573   7.677   9.869  0.5392  0.1488 -1.1888
 5355SOL    HW222029   1.536   7.798   9.953 -1.4959 -0.5459 -1.0378
 5356SOL     OW22030   0.018   9.498  11.979  0.1949  0.1359 -0.1871
 5356SOL    HW122031   0.071   9.566  12.022 -0.6438  0.4424  0.3835
 5356SOL    HW222032  -0.072   9.522  11.999 -0.1453 -0.6882 -0.6933
 5357SOL     OW22033   0.839   1.745   4.177  0.2721  0.2118  0.0092
 5357SOL    HW122034   0.762   1.786   4.218  0.4114  0.7261 -0.2395
 5357SOL    HW222035   0.818   1.743   4.083  1.0326  1.4027 -0.2058
 5358SOL     OW22036   4.693   9.393  12.397 -0.0712 -0.2378  0.2970
 5358SOL    HW122037   4.772   9.365  12.351  0.3313  1.5321 -0.1747
 5358SOL    HW222038   4.621   9.350  12.351  0.5174 -0.5939 -0.2968
 5359SOL     OW22039   7.086  11.982  11.011 -0.1597 -0.3478 -0.0084
 5359SOL    HW122040   7.062  12.073  10.995  0.9622 -0.0063  0.1360
 5359SOL    HW222041   7.023  11.952  11.076 -0.5128  0.3381 -0.0190
 5360SOL     OW22042   6.943  12.324   9.709 -0.0913  0.0068 -0.2423
 5360SOL    HW122043   7.033  12.346   9.732 -0.4125  0.1691  0.9384
 5360SOL    HW222044   6.921  12.251   9.767 -1.1305  0.8097  0.4188
 5361SOL     OW22045   4.442   9.858  11.840 -0.0284  0.4341 -0.2894
 5361SOL    HW122046   4.500   9.811  11.780  1.9719  1.4993  0.6784
 5361SOL    HW222047   4.472   9.949  11.835 -0.8545  0.8103  1.1148
 5362SOL     OW22048   8.067  10.716   7.380 -0.0291 -0.1425  0.1701
 5362SOL    HW122049   8.082  10.622   7.393  0.5837 -0.0996 -0.2100
 5362SOL    HW222050   8.122  10.739   7.305  0.4012  0.6886  0.7346
 5363SOL     OW22051   9.619   0.435   3.549  0.3230  0.2731  0.2482
 5363SOL    HW122052   9.535   0.436   3.505  1.0342 -0.3399 -1.1916
 5363SOL    HW222053   9.659   0.519   3.529  0.6308  0.0088 -0.2903
 5364SOL     OW22054   4.407   2.592   0.507 -0.0503  0.1344  0.1726
 5364SOL    HW122055   4.372   2.522   0.563  0.1806  0.1862  0.3811
 5364SOL    HW222056   4.498   2.566   0.490 -0.4848 -0.5546 -1.2456
 5365SOL     OW22057   9.471   7.431   1.263 -0.5396  0.0274  0.3532
 5365SOL    HW122058   9.558   7.418   1.225 -0.9079  0.1106 -0.5518
 5365SOL    HW222059   9.487   7.477   1.345  0.3477 -0.9249  0.7423
 5366SOL     OW22060  10.162   2.477   0.720 -0.1034 -0.0746  0.3440
 5366SOL    HW122061  10.238   2.530   0.744  0.9232 -1.5211  0.4210
 5366SOL    HW222062  10.148   2.420   0.795 -0.9356 -0.1905  0.1108
 5367SOL     OW22063   2.465   7.882  10.273  0.2563 -0.3850  0.2870
 5367SOL    HW122064   2.380   7.875  10.315 -0.9925  0.8165 -1.8483
 5367SOL    HW222065   2.491   7.973  10.287  0.5054 -0.3631 -0.2832
 5368SOL     OW22066   1.691   1.188   4.902 -0.2490 -0.2286 -0.2536
 5368SOL    HW122067   1.783   1.192   4.877  0.4852 -0.5935  2.1324
 5368SOL    HW222068   1.671   1.277   4.932 -0.1369 -0.5357  0.7953
 5369SOL     OW22069   0.554   9.968   6.836 -0.2836  0.7456 -0.0616
 5369SOL    HW122070   0.528   9.918   6.914  0.1302  1.0261  0.2569
 5369SOL    HW222071   0.616   9.912   6.791  0.5920  1.1763  0.5745
 5370SOL     OW22072   5.687  10.496   3.990 -0.4455  0.3563 -0.3501
 5370SOL    HW122073   5.625  10.440   4.036 -1.3526  0.5699 -1.2698
 5370SOL    HW222074   5.718  10.442   3.917  0.6679  0.1590  0.2590
 5371SOL     OW22075   0.913   0.254   9.964  0.4806  0.1707  0.1084
 5371SOL    HW122076   0.984   0.242  10.027 -0.2125 -1.5364  0.6200
 5371SOL    HW222077   0.833   0.238  10.014 -0.1851  0.5083 -0.8126
 5372SOL     OW22078   8.044   4.806   3.514  0.8629  0.2269 -0.4929
 5372SOL    HW122079   8.019   4.856   3.592  1.4661 -1.4236  0.8239
 5372SOL    HW222080   7.966   4.754   3.493  0.7110  0.6485 -0.9898
 5373SOL     OW22081   4.900   3.427   5.207 -0.0496 -0.0155  0.5424
 5373SOL    HW122082   4.922   3.351   5.260 -2.0180  0.2228  1.8382
 5373SOL    HW222083   4.827   3.468   5.254  0.1142  1.9494 -0.7895
 5374SOL     OW22084   2.774   1.660   0.419 -0.2116 -0.2301  0.0934
 5374SOL    HW122085   2.735   1.584   0.375  0.4653 -1.2125  1.1330
 5374SOL    HW222086   2.803   1.626   0.503  1.4787  0.8139 -0.0258
 5375SOL     OW22087   3.780   4.866  10.923 -0.1856 -0.2761 -0.0960
 5375SOL    HW122088   3.816   4.781  10.897 -0.1156  0.1536 -1.4760
 5375SOL    HW222089   3.756   4.908  10.840 -2.6018  0.0231  0.6845
 5376SOL     OW22090   7.367  10.787  12.344 -0.4067 -0.1344 -0.0847
 5376SOL    HW122091   7.377  10.844  12.420 -0.3546  0.7388 -0.7323
 5376SOL    HW222092   7.423  10.826  12.277  0.9425 -1.8773 -0.0546
 5377SOL     OW22093  12.257  10.089   5.891  0.1921 -0.0334 -0.2689
 5377SOL    HW122094  12.268  10.181   5.868 -0.5528 -0.0279 -0.6445
 5377SOL    HW222095  12.196  10.055   5.825  1.5025 -1.1402 -0.9678
 5378SOL     OW22096  11.860  11.041   3.839 -0.2241 -0.4209  0.2919
 5378SOL    HW122097  11.889  10.974   3.900  1.1001 -0.6394 -0.5470
 5378SOL    HW222098  11.873  11.124   3.886 -0.4225 -0.6517  0.7609
 5379SOL     OW22099   2.067   8.738   0.375 -0.1919  0.0804 -0.1558
 5379SOL    HW122100   1.972   8.737   0.362 -0.0208 -1.4483 -1.6749
 5379SOL    HW222101   2.092   8.646   0.377  1.3452  0.4584 -0.4979
 5380SOL     OW22102  10.783   7.398   4.356  0.1651 -0.4207  0.2813
 5380SOL    HW122103  10.789   7.458   4.430  1.4302 -0.5510  0.2960
 5380SOL    HW222104  10.873   7.386   4.326 -0.1030 -2.0004  0.0293
 5381SOL     OW22105   0.929   6.048  11.684  0.4350 -0.0825  0.3489
 5381SOL    HW122106   1.003   5.989  11.699  0.8352  0.8358  2.5143
 5381SOL    HW222107   0.945   6.085  11.598  1.8096 -0.8743  0.2300
 5382SOL     OW22108   9.108   9.449   8.010 -0.3460 -0.0570  0.2673
 5382SOL    HW122109   9.114   9.476   8.102 -0.9881 -0.3498  0.3986
 5382SOL    HW222110   9.064   9.522   7.966  1.2070  0.7074 -0.0943
 5383SOL     OW22111   8.462  10.066   9.237 -0.5862  0.4240  0.2376
 5383SOL    HW122112   8.477   9.973   9.251  0.5749  0.4924 -0.5016
 5383SOL    HW222113   8.375  10.081   9.274 -0.4471 -0.7725  1.1339
 5384SOL     OW22114   1.010   3.018   6.031 -0.7489 -0.2783  0.1238
 5384SOL    HW122115   0.951   3.039   6.103 -0.8877 -0.5792  0.0966
 5384SOL    HW222116   0.973   3.064   5.955 -0.9994 -0.5380  0.0868
 5385SOL     OW22117   5.114  10.745   7.370  0.1150  0.6812  0.1412
 5385SOL    HW122118   5.173  10.670   7.373  1.4007  1.6027 -0.9110
 5385SOL    HW222119   5.130  10.791   7.452  0.6830  0.7911 -0.0286
 5386SOL     OW22120   7.178   3.800   6.722 -0.6588  0.1995 -0.0423
 5386SOL    HW122121   7.154   3.776   6.633  0.4429  0.6101 -0.4601
 5386SOL    HW222122   7.119   3.872   6.745 -1.2330 -0.1897 -0.2672
 5387SOL     OW22123   4.599   6.481   6.550  0.0038 -0.1061  0.5309
 5387SOL    HW122124   4.644   6.559   6.518 -1.5175  1.0059  0.9519
 5387SOL    HW222125   4.657   6.446   6.617  1.4490 -0.2755 -0.7625
 5388SOL     OW22126   0.389   9.566  10.999 -0.0802 -0.2232  0.0257
 5388SOL    HW122127   0.327   9.567  10.927 -0.4130 -0.7409  0.2989
 5388SOL    HW222128   0.338   9.596  11.075  0.6523  1.8441 -0.2379
 5389SOL     OW22129   7.553   6.110   9.978  0.2813  0.0200  0.0898
 5389SOL    HW122130   7.535   6.089  10.070  1.0503 -0.7265  0.0888
 5389SOL    HW222131   7.622   6.176   9.981  0.1452  0.1626  0.0552
 5390SOL     OW22132   3.034   3.121   9.275 -0.1197 -0.4555 -0.0733
 5390SOL    HW122133   3.078   3.203   9.255  1.0086  0.7007  5.3681
 5390SOL    HW222134   2.945   3.146   9.301 -0.9704 -1.5394 -1.7617
 5391SOL     OW22135   0.025  10.419   6.619 -0.5943  0.0025  0.0066
 5391SOL    HW122136   0.080  10.348   6.652  1.1379  1.2063 -0.1809
 5391SOL    HW222137  -0.007  10.463   6.698 -0.8213 -0.3452  0.1110
 5392SOL     OW22138   5.432   6.381   8.770 -0.0840  0.4158 -0.4417
 5392SOL    HW122139   5.399   6.466   8.742 -2.5893 -0.5060 -0.5602
 5392SOL    HW222140   5.471   6.396   8.856  0.2277  1.7980 -0.8123
 5393SOL     OW22141   9.294   6.163   5.057  0.1621 -0.3785 -0.4496
 5393SOL    HW122142   9.380   6.132   5.084  0.2661  0.2523 -0.0386
 5393SOL    HW222143   9.259   6.092   5.003 -0.5097 -2.2373  2.2319
 5394SOL     OW22144   6.629  12.233   9.138  0.4557  0.4017  0.0792
 5394SOL    HW122145   6.586  12.203   9.058 -0.5233  2.0875 -0.0825
 5394SOL    HW222146   6.722  12.218   9.122  0.2201  0.0908 -1.0998
 5395SOL     OW22147   1.161  10.250   2.308 -0.1727  0.5290 -0.2976
 5395SOL    HW122148   1.186  10.301   2.385  2.0929  1.3949 -1.4984
 5395SOL    HW222149   1.108  10.311   2.256  0.4881  0.8788 -0.5886
 5396SOL     OW22150   9.772   5.946   5.195 -0.4960  0.9283  0.1972
 5396SOL    HW122151   9.858   5.912   5.220 -0.9622 -0.3760  0.1195
 5396SOL    HW222152   9.780   6.041   5.202  0.4955  0.7626  1.6500
 5397SOL     OW22153  11.581   8.551   1.786 -1.3028 -0.0841 -0.0236
 5397SOL    HW122154  11.518   8.533   1.856  2.3388 -2.1062  3.1085
 5397SOL    HW222155  11.623   8.633   1.812  1.1246 -1.6097  1.1878
 5398SOL     OW22156  10.692   5.992   5.978 -0.1353  0.7263  0.0275
 5398SOL    HW122157  10.597   6.003   5.981 -0.4531 -1.5226 -0.1899
 5398SOL    HW222158  10.710   5.973   5.886  0.4517  0.5257  0.1825
 5399SOL     OW22159   2.787   8.826  10.114  0.1849  0.2442 -0.0559
 5399SOL    HW122160   2.877   8.798  10.123  0.1193  0.1245  0.2154
 5399SOL    HW222161   2.788   8.884  10.037  0.5908  0.6702  0.2629
 5400SOL     OW22162   1.604   6.590   5.960 -0.1640 -0.3652 -1.1634
 5400SOL    HW122163   1.548   6.607   5.885  0.7789  1.3295 -1.5464
 5400SOL    HW222164   1.591   6.497   5.980 -2.2376 -0.2733 -1.8943
 5401SOL     OW22165   4.186  10.911   3.880  0.1369  0.0654  0.1824
 5401SOL    HW122166   4.192  10.884   3.788  1.8720 -0.9363  0.5303
 5401SOL    HW222167   4.277  10.922   3.907 -0.3720  1.0385  1.5977
 5402SOL     OW22168   6.629   0.482   1.731  0.1221 -0.5440 -0.2443
 5402SOL    HW122169   6.593   0.422   1.796  0.3067 -0.0052  0.3734
 5402SOL    HW222170   6.722   0.490   1.755  0.0866  0.0336 -0.2726
 5403SOL     OW22171   6.861   7.221   0.182  0.0432 -0.3150 -0.3820
 5403SOL    HW122172   6.811   7.180   0.112 -0.6182 -0.6555  0.2754
 5403SOL    HW222173   6.830   7.311   0.184 -0.7816 -0.5988  0.2162
 5404SOL     OW22174   8.800   1.870   4.055  0.3855  0.0536  0.1668
 5404SOL    HW122175   8.743   1.917   3.995 -0.1494 -1.2068 -0.3516
 5404SOL    HW222176   8.744   1.802   4.094  1.1855 -0.3319  0.6799
 5405SOL     OW22177   1.032   4.538   3.968  0.0311  0.8267 -0.0076
 5405SOL    HW122178   1.064   4.464   3.917  0.6840  1.8325 -1.1105
 5405SOL    HW222179   1.045   4.512   4.059 -1.5203 -1.1724 -0.2906
 5406SOL     OW22180   6.024   0.452  11.098 -0.1304  0.1429 -0.3785
 5406SOL    HW122181   6.091   0.467  11.032  0.9980  0.3247  0.7754
 5406SOL    HW222182   5.993   0.539  11.122  1.3018  0.2747  1.1482
 5407SOL     OW22183  11.882   4.247   7.864 -0.2599  0.0661  0.3273
 5407SOL    HW122184  11.823   4.184   7.905  0.7314 -0.8782  0.3621
 5407SOL    HW222185  11.846   4.258   7.776 -1.2311  0.5295  0.7706
 5408SOL     OW22186   0.239   8.586   4.254 -0.1772  0.0826  0.2649
 5408SOL    HW122187   0.187   8.511   4.223 -0.8788  0.4008  0.6532
 5408SOL    HW222188   0.317   8.547   4.292  0.7433 -0.3391 -1.9002
 5409SOL     OW22189   3.454   3.292   9.674  0.4639  0.1535 -0.0204
 5409SOL    HW122190   3.408   3.372   9.699  1.1360  1.1654 -1.8676
 5409SOL    HW222191   3.402   3.256   9.602  0.3090 -0.9563  0.6321
 5410SOL     OW22192   3.517   6.671   2.079  0.4826 -0.6019 -0.2748
 5410SOL    HW122193   3.441   6.729   2.081 -0.2891 -1.5810 -0.2804
 5410SOL    HW222194   3.491   6.597   2.134  1.7621 -0.5669  0.4170
 5411SOL     OW22195   1.839  11.369   5.814  0.4125 -0.3673  0.2934
 5411SOL    HW122196   1.765  11.311   5.802  0.9174 -0.7315 -1.3120
 5411SOL    HW222197   1.827  11.407   5.901 -1.7943 -0.1990 -0.0471
 5412SOL     OW22198  11.901   9.979   8.112 -0.2767 -0.0410 -0.5613
 5412SOL    HW122199  11.858  10.060   8.085 -0.5426  0.2065  0.5268
 5412SOL    HW222200  11.943  10.001   8.195  1.2730 -0.5043 -1.1934
 5413SOL     OW22201   6.530  11.696   4.340  0.5141 -0.0314  0.7441
 5413SOL    HW122202   6.478  11.753   4.397 -0.3175  1.4017 -1.3106
 5413SOL    HW222203   6.592  11.755   4.298  1.9722 -1.2756  1.0885
 5414SOL     OW22204   9.371   0.439   9.712  0.0924 -0.0118 -0.7268
 5414SOL    HW122205   9.362   0.347   9.687 -0.2663 -0.6662  1.6403
 5414SOL    HW222206   9.437   0.440   9.781  0.5681  1.6208 -1.1488
 5415SOL     OW22207   7.264   5.027  12.387  0.1832 -0.2635 -0.1841
 5415SOL    HW122208   7.222   5.111  12.403 -0.0832 -0.4098 -0.1159
 5415SOL    HW222209   7.356   5.041  12.411  0.0503 -0.1179  0.2475
 5416SOL     OW22210   9.909   3.631   1.984 -0.5514 -0.3899 -0.0804
 5416SOL    HW122211   9.902   3.633   2.079 -0.5918 -1.7067 -0.0408
 5416SOL    HW222212   9.972   3.561   1.966 -0.6112 -0.2162 -1.0266
 5417SOL     OW22213   9.736   7.043   8.241  0.1524  0.3837 -0.0752
 5417SOL    HW122214   9.695   6.962   8.271  1.0169 -0.2593 -0.5814
 5417SOL    HW222215   9.699   7.059   8.154  2.7116 -1.6016 -1.6945
 5418SOL     OW22216   0.045  11.916   7.825 -0.0994  0.3288  0.3892
 5418SOL    HW122217   0.115  11.981   7.817 -0.4566  0.6810  0.1255
 5418SOL    HW222218   0.043  11.894   7.919 -0.0136  0.7327  0.4843
 5419SOL     OW22219  10.516   9.174   7.080 -0.1408 -0.1759  0.1651
 5419SOL    HW122220  10.437   9.192   7.131  0.0872  0.5460  0.2697
 5419SOL    HW222221  10.582   9.153   7.146  0.1452  0.7239  0.1753
 5420SOL     OW22222   5.033   6.695   7.904  0.0622 -0.0756 -0.4713
 5420SOL    HW122223   5.059   6.782   7.874 -0.8435 -0.5953 -2.9948
 5420SOL    HW222224   4.938   6.697   7.904  0.0336 -0.9092  0.0422
 5421SOL     OW22225  11.638  11.656   2.701  0.1617 -0.1309 -0.1796
 5421SOL    HW122226  11.709  11.593   2.709  0.8643  0.7565  0.7583
 5421SOL    HW222227  11.559  11.603   2.703  0.7574 -1.0346 -0.0858
 5422SOL     OW22228   9.825  12.010   3.475 -0.0541 -0.2970  0.6911
 5422SOL    HW122229   9.777  12.004   3.393  0.7312  1.0806  0.0923
 5422SOL    HW222230   9.909  11.966   3.457  0.4641  0.7681  0.4647
 5423SOL     OW22231  10.001   6.606   3.141 -0.3973  0.1067  0.3088
 5423SOL    HW122232  10.046   6.656   3.073  0.1204 -0.3354  0.3187
 5423SOL    HW222233   9.943   6.546   3.094 -1.6305  1.2550  0.3119
 5424SOL     OW22234   3.490   3.878   9.138  0.7165 -0.0834 -0.0183
 5424SOL    HW122235   3.454   3.790   9.146  2.1593 -0.6701  0.4510
 5424SOL    HW222236   3.438   3.932   9.198 -0.5141 -0.4853 -0.6934
 5425SOL     OW22237   6.563   4.141   1.244 -0.2322  0.0364 -0.0678
 5425SOL    HW122238   6.637   4.200   1.230 -0.8270  0.8271  0.1188
 5425SOL    HW222239   6.496   4.170   1.183 -0.9968  0.3646  0.9108
 5426SOL     OW22240   1.278   8.947  10.604 -0.8189  0.4619 -0.0408
 5426SOL    HW122241   1.188   8.957  10.571 -0.1240  2.1399 -1.5735
 5426SOL    HW222242   1.320   9.030  10.584  1.9774 -1.3004 -2.2391
 5427SOL     OW22243   6.364   2.011   4.187  0.3509 -0.4375 -0.0428
 5427SOL    HW122244   6.404   1.944   4.243 -0.7299 -0.8980  0.2137
 5427SOL    HW222245   6.401   2.094   4.219 -0.8524 -0.5906  1.9918
 5428SOL     OW22246   5.698   2.324   8.193 -0.5867 -0.4319  0.2719
 5428SOL    HW122247   5.753   2.246   8.192  2.5972  1.6013  0.5729
 5428SOL    HW222248   5.682   2.341   8.286 -0.4135 -0.2148  0.2643
 5429SOL     OW22249   2.227   6.249   3.494 -0.0910  0.4064 -0.6464
 5429SOL    HW122250   2.206   6.186   3.563 -2.8367 -0.5189 -2.1670
 5429SOL    HW222251   2.232   6.333   3.539 -0.8759 -0.2981  0.8328
 5430SOL     OW22252   8.381   2.007   1.877  0.3202 -0.0453  0.1617
 5430SOL    HW122253   8.404   1.980   1.966  0.9521 -1.2490 -0.3446
 5430SOL    HW222254   8.394   2.102   1.877  0.2489 -0.0197  1.3646
 5431SOL     OW22255  10.613   3.690   8.145  0.4537  0.1650  0.4720
 5431SOL    HW122256  10.522   3.719   8.134  0.5132  0.2675  0.2500
 5431SOL    HW222257  10.637   3.722   8.232 -0.6544 -2.3545  1.8274
 5432SOL     OW22258   8.290   9.348   6.953 -0.1154 -0.0897  0.1483
 5432SOL    HW122259   8.353   9.309   7.013 -2.0283 -2.2957  0.8667
 5432SOL    HW222260   8.210   9.358   7.005 -1.0659  0.3740 -1.3338
 5433SOL     OW22261   1.854  10.638   1.157 -0.8066 -0.4013  0.0110
 5433SOL    HW122262   1.940  10.597   1.150  0.9306  2.9632 -0.6779
 5433SOL    HW222263   1.869  10.715   1.211 -3.4007  0.3469 -0.2006
 5434SOL     OW22264  11.753   7.913   9.008 -0.1577 -0.1810  0.2167
 5434SOL    HW122265  11.805   7.879   8.935 -1.7945 -1.7580 -0.2876
 5434SOL    HW222266  11.817   7.930   9.077  1.3090  0.3705 -1.2112
 5435SOL     OW22267   3.674   0.039   4.537  0.0043 -0.1572  0.1315
 5435SOL    HW122268   3.706   0.112   4.590 -0.3859  1.9024 -2.2604
 5435SOL    HW222269   3.729  -0.035   4.563  0.2193  0.8521  2.8900
 5436SOL     OW22270  11.054   3.833  10.892 -0.2218  0.0130 -0.0846
 5436SOL    HW122271  10.985   3.898  10.878  0.2076  0.5619  0.3090
 5436SOL    HW222272  11.035   3.764  10.828 -1.3780 -0.0521  0.3005
 5437SOL     OW22273   7.922   0.086   8.649 -0.1807 -0.6044  0.1166
 5437SOL    HW122274   8.014   0.104   8.670 -0.7804  0.0150  2.5736
 5437SOL    HW222275   7.915   0.103   8.556  1.9748  0.3483  0.0634
 5438SOL     OW22276   3.783   5.775  12.293 -0.4129 -0.1929  0.1457
 5438SOL    HW122277   3.857   5.828  12.323 -1.3657 -0.2743  2.9038
 5438SOL    HW222278   3.709   5.805  12.345 -2.4474  0.0127 -2.6415
 5439SOL     OW22279   0.507   7.167   5.218  0.5605 -0.3216  0.2333
 5439SOL    HW122280   0.453   7.088   5.217  1.8652 -1.2435 -0.5328
 5439SOL    HW222281   0.502   7.200   5.128 -1.7637  1.7957  1.0286
 5440SOL     OW22282   3.521   0.093   7.287  0.5860  0.1703 -0.4529
 5440SOL    HW122283   3.455   0.157   7.314 -0.7723 -1.1116 -0.5578
 5440SOL    HW222284   3.552   0.125   7.202  0.5989  1.1551 -0.0826
 5441SOL     OW22285   2.782  12.167   1.318 -0.1575  0.2942 -0.4771
 5441SOL    HW122286   2.861  12.154   1.370 -1.0199 -0.6989  0.6589
 5441SOL    HW222287   2.802  12.241   1.261  1.0087  1.1467  0.9603
 5442SOL     OW22288  12.178   4.351   9.053 -0.0029 -0.0613  0.4402
 5442SOL    HW122289  12.124   4.429   9.042 -0.2474 -0.3332 -0.3395
 5442SOL    HW222290  12.115   4.279   9.062  0.2139 -0.1395  1.4779
 5443SOL     OW22291   4.681   0.478  12.410  0.3799  0.0785 -0.3195
 5443SOL    HW122292   4.679   0.570  12.385  0.1931 -0.7976 -4.1062
 5443SOL    HW222293   4.602   0.441  12.371  0.9433 -1.8585  0.2793
 5444SOL     OW22294   8.362   8.139   5.451 -0.3706 -0.9925 -0.2365
 5444SOL    HW122295   8.400   8.081   5.385 -1.5354 -2.8044  0.5884
 5444SOL    HW222296   8.322   8.079   5.515 -1.9720  0.7494  0.4818
 5445SOL     OW22297   5.844   6.085   1.064 -0.0409  0.2810  0.0487
 5445SOL    HW122298   5.891   6.165   1.040  0.0851  0.7324  1.6677
 5445SOL    HW222299   5.757   6.096   1.025  0.8437 -0.1696 -2.2457
 5446SOL     OW22300   8.835   4.095   5.769  0.2414 -0.2796  0.7887
 5446SOL    HW122301   8.830   4.007   5.732 -0.0789 -0.6645  1.6975
 5446SOL    HW222302   8.874   4.082   5.856  0.6796  0.5465  0.7256
 5447SOL     OW22303  10.338   9.219   2.941 -0.4457  0.1934  0.3591
 5447SOL    HW122304  10.327   9.255   3.029 -0.5305 -1.4698  1.0525
 5447SOL    HW222305  10.433   9.217   2.927 -0.4470  1.7860 -0.2069
 5448SOL     OW22306   2.100   6.492   0.743  0.6420 -0.4231 -0.1169
 5448SOL    HW122307   2.069   6.582   0.753  2.6099  0.2178  0.7833
 5448SOL    HW222308   2.043   6.440   0.800  0.3180  0.4672  0.3861
 5449SOL     OW22309  11.441   7.990   8.413 -0.5374 -0.6490 -0.2798
 5449SOL    HW122310  11.426   8.083   8.431 -0.9795 -0.9237  0.8447
 5449SOL    HW222311  11.430   7.982   8.319 -1.4399  0.2722 -0.2659
 5450SOL     OW22312   1.532   6.972   8.899 -0.0882 -0.0531  0.2659
 5450SOL    HW122313   1.507   6.922   8.977 -1.1340  3.5912  2.5309
 5450SOL    HW222314   1.452   6.974   8.846 -0.3943  0.2130  0.7359
 5451SOL     OW22315  11.286   3.572   3.218  0.0502 -0.2545  0.3844
 5451SOL    HW122316  11.201   3.580   3.259  0.7179 -1.0130  1.9944
 5451SOL    HW222317  11.271   3.515   3.142 -1.0586  0.5823 -0.0477
 5452SOL     OW22318   4.080   3.341   5.125  0.1148 -0.1241  0.5603
 5452SOL    HW122319   4.136   3.389   5.188  1.4524  0.6752 -1.1552
 5452SOL    HW222320   4.005   3.399   5.111 -0.4367 -0.5203  1.7434
 5453SOL     OW22321  11.290  11.344   2.084 -0.4411 -0.6653 -0.2064
 5453SOL    HW122322  11.268  11.437   2.075  2.5057  0.1691  0.0361
 5453SOL    HW222323  11.318  11.317   1.997  0.7840 -0.6682  0.1644
 5454SOL     OW22324  10.737   4.831   2.464  0.1500 -0.3004  0.2173
 5454SOL    HW122325  10.694   4.883   2.532 -1.0800 -0.4120 -0.4515
 5454SOL    HW222326  10.677   4.834   2.390  0.5141 -1.8478 -0.1741
 5455SOL     OW22327   1.061  10.519   6.400 -0.5141 -0.4848  0.2584
 5455SOL    HW122328   1.056  10.599   6.453 -0.6491 -1.0271  1.0852
 5455SOL    HW222329   1.098  10.548   6.317 -0.1367  0.3587  0.7049
 5456SOL     OW22330  10.856   0.981   6.307 -0.0995  0.3218  0.0151
 5456SOL    HW122331  10.853   1.050   6.374 -0.3616  1.1220 -0.8006
 5456SOL    HW222332  10.777   0.995   6.255  1.0098  0.8759 -1.5766
 5457SOL     OW22333   8.084  10.395   8.374  0.0134 -0.2131  0.1789
 5457SOL    HW122334   8.152  10.336   8.408 -0.5226 -1.2655 -0.5099
 5457SOL    HW222335   8.075  10.463   8.441  1.0838 -0.5755  0.7131
 5458SOL     OW22336   1.467  11.949   8.702  0.5488 -0.0855 -0.1060
 5458SOL    HW122337   1.550  11.922   8.661  0.4870  0.6271 -0.7096
 5458SOL    HW222338   1.421  11.866   8.718  0.0203 -0.3740 -2.6732
 5459SOL     OW22339   7.959   5.463   4.305  0.2299  0.3913  0.3251
 5459SOL    HW122340   8.012   5.532   4.266  1.4154 -0.5329  0.2658
 5459SOL    HW222341   8.009   5.434   4.381  0.4924 -1.4093 -0.4929
 5460SOL     OW22342   3.326   5.949   5.903 -0.6534  0.4186 -0.3331
 5460SOL    HW122343   3.373   5.975   5.982  0.4466  1.3083 -1.2313
 5460SOL    HW222344   3.395   5.930   5.840 -1.5036 -0.8988 -0.8999
 5461SOL     OW22345   6.581   9.134   0.607  0.2594 -0.0209  0.5673
 5461SOL    HW122346   6.605   9.042   0.619 -1.2804 -0.6937 -0.9936
 5461SOL    HW222347   6.504   9.131   0.550 -0.2759  2.2172  1.0715
 5462SOL     OW22348  12.303   1.801   0.846 -0.1745  0.4640 -0.6465
 5462SOL    HW122349  12.270   1.802   0.936 -0.7330  2.6025 -0.8146
 5462SOL    HW222350  12.224   1.789   0.793  0.4524 -4.0948 -0.8856
 5463SOL     OW22351   2.635   8.839   1.353  0.7620  0.4747  0.0792
 5463SOL    HW122352   2.607   8.859   1.263  0.4561  0.7879  0.2439
 5463SOL    HW222353   2.689   8.760   1.343 -0.2294 -0.1864 -0.2400
 5464SOL     OW22354   4.510   2.612   6.625 -0.2490 -0.2487  0.1022
 5464SOL    HW122355   4.517   2.587   6.533  0.0585 -1.4621  0.4432
 5464SOL    HW222356   4.561   2.547   6.672  1.6348  1.6978  0.9498
 5465SOL     OW22357   6.644   9.600   5.734 -0.3132  0.2855 -0.3186
 5465SOL    HW122358   6.651   9.617   5.828  1.6948  0.3008 -0.4291
 5465SOL    HW222359   6.614   9.509   5.728  0.4453 -0.0220  0.3631
 5466SOL     OW22360  10.292   2.435   9.624 -0.0290 -0.0297 -0.2160
 5466SOL    HW122361  10.345   2.446   9.545  1.8038  0.9727  1.0810
 5466SOL    HW222362  10.353   2.452   9.697 -1.6084 -1.0484  1.4285
 5467SOL     OW22363   5.234   8.867   0.095 -0.1258 -0.3423 -0.0413
 5467SOL    HW122364   5.301   8.833   0.036  0.8916  1.3817  0.0662
 5467SOL    HW222365   5.160   8.888   0.037  0.5691  0.5748 -0.6313
 5468SOL     OW22366   1.808   4.039   3.771 -0.1501 -0.0537 -0.3766
 5468SOL    HW122367   1.770   4.003   3.691 -0.2127 -2.1728  0.5510
 5468SOL    HW222368   1.739   4.032   3.836  0.8392 -1.2128  0.6002
 5469SOL     OW22369   1.293  11.041   9.248 -0.0047 -0.0325  0.2249
 5469SOL    HW122370   1.230  11.048   9.177 -0.2970 -2.8904  0.0937
 5469SOL    HW222371   1.361  11.104   9.226 -1.4021  1.0963 -1.1132
 5470SOL     OW22372   0.692   1.653   1.077 -0.0697 -0.1310  0.4243
 5470SOL    HW122373   0.615   1.709   1.089 -0.5022 -0.8366  0.9853
 5470SOL    HW222374   0.714   1.622   1.165  0.6206 -0.2500  0.2182
 5471SOL     OW22375  12.076   1.590   2.793  0.4185  0.2601 -0.1382
 5471SOL    HW122376  12.068   1.569   2.886 -0.5436  2.7677  0.4150
 5471SOL    HW222377  11.986   1.595   2.761  0.5918  2.1548 -0.4705
 5472SOL     OW22378  11.731   8.800   1.854  0.1833 -0.2015  0.0275
 5472SOL    HW122379  11.700   8.807   1.944 -0.6708 -2.2663 -0.0334
 5472SOL    HW222380  11.693   8.875   1.809  2.0720  1.8862  1.7057
 5473SOL     OW22381   1.034   7.539   6.037 -0.6726  0.3199  0.1312
 5473SOL    HW122382   1.083   7.457   6.047  0.0676  0.4405 -2.1093
 5473SOL    HW222383   0.943   7.514   6.047 -0.3957 -0.5893  0.4967
 5474SOL     OW22384   4.325   3.818   5.281  0.5785  0.6195  0.4281
 5474SOL    HW122385   4.369   3.896   5.245 -0.5672  0.6071 -1.1280
 5474SOL    HW222386   4.358   3.811   5.370  2.0893  1.8339  0.0146
 5475SOL     OW22387   0.747   5.621   7.813  0.2791  0.5844  0.3196
 5475SOL    HW122388   0.712   5.681   7.746  2.3524  2.9177  1.1702
 5475SOL    HW222389   0.785   5.549   7.763 -2.9278 -0.5733 -0.7254
 5476SOL     OW22390  10.087   5.282   0.739  0.2684 -0.2910  0.1444
 5476SOL    HW122391  10.067   5.337   0.663 -0.2242 -0.7298 -0.0481
 5476SOL    HW222392  10.177   5.306   0.763  1.0678 -1.3212 -1.5974
 5477SOL     OW22393   8.454   2.126   9.695  0.2861  0.2203 -0.2736
 5477SOL    HW122394   8.469   2.145   9.603  1.5742  0.0185 -0.1212
 5477SOL    HW222395   8.519   2.060   9.717 -1.3450 -1.2691  0.2766
 5478SOL     OW22396  11.311   3.906   0.825  0.1294  0.2135 -1.1376
 5478SOL    HW122397  11.275   3.960   0.755 -2.7718 -1.1066 -0.8149
 5478SOL    HW222398  11.273   3.819   0.810  1.3906 -0.7145  0.6582
 5479SOL     OW22399   0.161   0.920   4.865 -0.1392  0.0301 -0.1282
 5479SOL    HW122400   0.190   0.856   4.800  0.2000  0.0263  0.0226
 5479SOL    HW222401   0.078   0.953   4.831 -0.4431 -0.6785 -0.0758
 5480SOL     OW22402   1.601   0.915   4.895  0.0560 -0.7684  0.5715
 5480SOL    HW122403   1.611   1.009   4.879  0.0496 -0.9971 -0.9579
 5480SOL    HW222404   1.581   0.878   4.809 -0.2031 -2.1460  1.1878
 5481SOL     OW22405   1.754   6.072   6.418  0.4896  0.0357  0.3457
 5481SOL    HW122406   1.719   6.044   6.334  0.9345  0.7272 -0.0804
 5481SOL    HW222407   1.692   6.037   6.483 -0.1751 -0.0090 -0.2994
 5482SOL     OW22408   3.233   0.912   8.858 -0.2608  0.2291 -0.6997
 5482SOL    HW122409   3.220   0.895   8.951  0.3132  0.2952 -0.6067
 5482SOL    HW222410   3.198   0.834   8.814 -0.8396  0.3439 -0.4494
 5483SOL     OW22411   4.528   8.657   9.367 -0.0194  0.1606 -0.4634
 5483SOL    HW122412   4.460   8.651   9.435 -1.2870  0.2625 -1.6811
 5483SOL    HW222413   4.603   8.610   9.404 -1.0509 -0.7443  0.5573
 5484SOL     OW22414   3.449  10.259   3.737 -0.0957 -0.3459  0.1549
 5484SOL    HW122415   3.438  10.332   3.676  0.3135 -1.1620 -0.9285
 5484SOL    HW222416   3.533  10.275   3.779 -0.7199  0.6145  1.0753
 5485SOL     OW22417   8.588   7.626   9.876 -0.2298 -0.1996 -0.0628
 5485SOL    HW122418   8.506   7.625   9.827 -0.8918 -0.6104  0.9913
 5485SOL    HW222419   8.656   7.610   9.811 -1.0935 -0.9820 -0.8049
 5486SOL     OW22420   2.959   2.895  12.209 -0.3365  0.2714 -0.0708
 5486SOL    HW122421   2.903   2.826  12.174  0.6647 -0.7846  0.3519
 5486SOL    HW222422   3.017   2.919  12.136 -0.4753  0.4495 -0.1235
 5487SOL     OW22423   3.514   6.064   7.582  0.4095 -0.5829 -0.7279
 5487SOL    HW122424   3.473   5.993   7.532  0.1483 -1.9456  1.3246
 5487SOL    HW222425   3.561   6.020   7.652  0.0961  1.2880  0.7301
 5488SOL     OW22426   3.075   5.515   6.419  0.0249 -0.3483  0.2644
 5488SOL    HW122427   3.170   5.516   6.432 -0.0913  1.5053  1.3637
 5488SOL    HW222428   3.041   5.473   6.498 -0.0665 -1.7762 -0.5023
 5489SOL     OW22429   9.583   0.895   8.446  0.2528  0.3628 -0.0216
 5489SOL    HW122430   9.610   0.834   8.515  2.3676  1.2887  0.0672
 5489SOL    HW222431   9.512   0.946   8.485  1.1599  0.6092  1.3645
 5490SOL     OW22432   4.866   3.901   1.802  0.5342  0.2867 -0.2909
 5490SOL    HW122433   4.887   3.810   1.820  2.1156  1.0829  2.4688
 5490SOL    HW222434   4.912   3.951   1.870 -1.4212  3.0649 -0.8176
 5491SOL     OW22435   2.007   7.909   6.612 -0.2938 -0.2460 -0.1084
 5491SOL    HW122436   1.939   7.967   6.578  0.3455  0.6654  0.0929
 5491SOL    HW222437   1.968   7.822   6.614 -1.4707  0.2776  0.0779
 5492SOL     OW22438  11.245   3.695   5.663  0.1073  0.1459 -0.2111
 5492SOL    HW122439  11.192   3.682   5.584  0.9830  1.2957 -1.0115
 5492SOL    HW222440  11.321   3.638   5.651  0.0368  0.0113 -0.0123
 5493SOL     OW22441   9.235   6.584   5.667  0.0119  0.6157 -0.2153
 5493SOL    HW122442   9.194   6.527   5.731  0.2990  0.2246 -0.3709
 5493SOL    HW222443   9.312   6.534   5.637 -1.1610 -0.0723 -2.2796
 5494SOL     OW22444   0.413   7.340   4.654  0.2243  0.2277 -0.5923
 5494SOL    HW122445   0.347   7.389   4.605  0.7247  0.4491 -1.0502
 5494SOL    HW222446   0.466   7.408   4.697  0.8588  0.0892 -1.1481
 5495SOL     OW22447   5.161   3.218  11.474 -0.1803 -0.1588  0.0474
 5495SOL    HW122448   5.230   3.161  11.507 -0.1285 -0.1014  0.0402
 5495SOL    HW222449   5.091   3.212  11.539 -0.2354 -0.3440 -0.0272
 5496SOL     OW22450  10.709  10.901   1.245  0.0241 -0.2420  0.3400
 5496SOL    HW122451  10.636  10.904   1.306  0.8183 -0.4721  1.3367
 5496SOL    HW222452  10.733  10.993   1.231 -0.1891 -0.1856  0.3499
 5497SOL     OW22453   1.189   3.789   2.349 -0.3799 -0.0728  0.3285
 5497SOL    HW122454   1.136   3.855   2.394 -0.2944 -0.2388  0.6764
 5497SOL    HW222455   1.145   3.776   2.265 -0.8289 -0.1213  0.5660
 5498SOL     OW22456   2.299   3.969  11.548 -0.0914 -0.2982  0.2146
 5498SOL    HW122457   2.350   3.933  11.621  0.3206  0.0415  0.0981
 5498SOL    HW222458   2.254   4.046  11.586  0.8318  0.4175 -0.1030
 5499SOL     OW22459   1.737  10.905   1.868 -0.0260  0.4584 -0.4997
 5499SOL    HW122460   1.685  10.844   1.919 -1.5700 -0.0952 -2.5885
 5499SOL    HW222461   1.828  10.877   1.881 -0.5807 -1.2168 -0.0645
 5500SOL     OW22462   6.978  11.778   9.792 -0.9256 -0.0435 -0.7127
 5500SOL    HW122463   7.032  11.723   9.849 -1.2546 -0.2590 -0.6049
 5500SOL    HW222464   7.012  11.761   9.704  1.3238  2.2543 -0.3901
 5501SOL     OW22465   0.796   2.372   0.875 -0.2761 -0.5530 -0.0562
 5501SOL    HW122466   0.790   2.321   0.795  0.3840  0.9300 -1.1139
 5501SOL    HW222467   0.748   2.453   0.856  0.2465  0.0009  0.8679
 5502SOL     OW22468  10.146  12.375   6.580  0.0194  0.3354 -0.1400
 5502SOL    HW122469  10.242  12.380   6.578 -0.0379  1.9088 -0.2564
 5502SOL    HW222470  10.119  12.406   6.493 -0.6053  0.2292  0.0167
 5503SOL     OW22471  10.287   3.389  10.757 -0.1141 -0.2270 -0.2971
 5503SOL    HW122472  10.377   3.384  10.790 -0.1481  0.8273 -0.0002
 5503SOL    HW222473  10.295   3.376  10.663  0.2279 -1.1657 -0.1466
 5504SOL     OW22474   9.609   9.952   2.949 -0.1417  0.0883 -0.2395
 5504SOL    HW122475   9.520   9.947   2.984 -0.6035 -0.2501 -1.4292
 5504SOL    HW222476   9.665   9.933   3.024 -1.0777  0.0535  0.4664
 5505SOL     OW22477   2.258   8.809  10.431  0.5165 -0.6019  0.8017
 5505SOL    HW122478   2.219   8.722  10.418 -0.9572 -0.1556  1.9662
 5505SOL    HW222479   2.291   8.833  10.344 -1.5312 -1.1663 -0.2063
 5506SOL     OW22480  12.357   9.348   3.922  0.2554  0.1875 -0.3715
 5506SOL    HW122481  12.297   9.329   3.994  0.8938 -1.3331 -0.2146
 5506SOL    HW222482  12.437   9.301   3.944  1.3851  1.8214 -0.7972
 5507SOL     OW22483   4.036   9.454   2.512 -0.1633  0.3749 -0.1214
 5507SOL    HW122484   3.957   9.450   2.458 -1.0813  0.6678  1.1480
 5507SOL    HW222485   4.064   9.363   2.520 -2.7893 -0.3511  2.7649
 5508SOL     OW22486   3.289   5.166   1.063 -0.1874  0.2979  0.5606
 5508SOL    HW122487   3.310   5.155   1.155 -0.0728 -0.3728  0.4575
 5508SOL    HW222488   3.217   5.229   1.062 -2.0866 -1.7255  1.3156
 5509SOL     OW22489   3.990   6.307   6.912 -0.0625 -0.0953 -0.2094
 5509SOL    HW122490   4.062   6.331   6.855 -0.2287  1.1182  0.0688
 5509SOL    HW222491   3.958   6.224   6.877  2.0608 -1.1607  0.2237
 5510SOL     OW22492   9.192   0.137   7.209 -0.4281  0.2615  0.5813
 5510SOL    HW122493   9.269   0.182   7.243  1.4809 -1.7500 -0.7788
 5510SOL    HW222494   9.204   0.046   7.236 -1.7834 -0.3029 -0.6018
 5511SOL     OW22495   8.851   6.744   5.163  0.3737 -0.2353  0.0876
 5511SOL    HW122496   8.927   6.732   5.106  0.5529 -3.2078  0.7738
 5511SOL    HW222497   8.884   6.794   5.237  1.5310 -0.9947  0.0999
 5512SOL     OW22498   5.787   4.832   6.152 -0.3856 -0.1706  0.8428
 5512SOL    HW122499   5.783   4.752   6.100 -2.1730  1.8977 -2.6091
 5512SOL    HW222500   5.695   4.853   6.169 -0.2350  2.6991 -1.2311
 5513SOL     OW22501   4.957   8.169  11.989 -1.1244 -0.5730 -0.0061
 5513SOL    HW122502   5.017   8.136  11.922  0.2102  0.6887  0.5172
 5513SOL    HW222503   4.974   8.263  11.992 -1.3014 -0.5738  1.9654
 5514SOL     OW22504   0.211   9.104   5.970  0.1161  0.0288 -0.0588
 5514SOL    HW122505   0.298   9.064   5.972 -0.2494 -0.7867  0.0758
 5514SOL    HW222506   0.212   9.168   6.041  1.3914  1.7519 -1.5452
 5515SOL     OW22507   5.828   8.132  11.542 -0.4298 -0.5924 -0.0827
 5515SOL    HW122508   5.904   8.076  11.561 -1.3650 -1.3566  1.6824
 5515SOL    HW222509   5.819   8.187  11.619 -0.5120  0.9079 -1.1262
 5516SOL     OW22510   4.535   2.659  11.727 -0.4621  0.5015 -0.6142
 5516SOL    HW122511   4.533   2.723  11.798 -3.1554  0.0363 -0.1621
 5516SOL    HW222512   4.502   2.706  11.651 -0.1442  0.2894 -0.8869
 5517SOL     OW22513   9.323   5.069   8.524  0.6287 -0.0137  0.3254
 5517SOL    HW122514   9.329   5.160   8.553  2.2558  0.4026 -1.1222
 5517SOL    HW222515   9.282   5.074   8.438  0.8425 -0.6212  0.1853
 5518SOL     OW22516   7.767  12.199   5.523  0.3361  0.5598 -0.2154
 5518SOL    HW122517   7.728  12.263   5.463 -1.2836  0.9705  1.1854
 5518SOL    HW222518   7.715  12.120   5.511  0.7109  0.2984 -0.1372
 5519SOL     OW22519   4.864   9.848   3.000 -0.2356  0.2207 -0.1329
 5519SOL    HW122520   4.850   9.926   2.947  0.1559  0.8343  0.6439
 5519SOL    HW222521   4.952   9.818   2.976 -0.0573  0.5001  0.1581
 5520SOL     OW22522   4.251  11.935  11.583 -0.1036  0.5706  0.4927
 5520SOL    HW122523   4.342  11.926  11.608  0.4345  0.0989 -1.5017
 5520SOL    HW222524   4.206  11.863  11.627  0.7936 -0.2243  0.1333
 5521SOL     OW22525   0.984   0.601   0.952  0.0605  0.0227  0.4785
 5521SOL    HW122526   1.032   0.637   1.026  1.0131 -1.8716  0.8517
 5521SOL    HW222527   0.983   0.672   0.887  2.7181  0.4239  0.7513
 5522SOL     OW22528   7.309  12.283   6.910  0.3988 -0.3560  0.5203
 5522SOL    HW122529   7.346  12.351   6.854 -0.6713  0.6219  0.9467
 5522SOL    HW222530   7.349  12.297   6.996  0.1065 -0.1948  0.6328
 5523SOL     OW22531  11.643   7.931   0.769  0.3059 -0.0073 -0.0891
 5523SOL    HW122532  11.554   7.899   0.784  0.6307 -0.2071  1.5557
 5523SOL    HW222533  11.639   8.024   0.792  0.9938 -0.4882  2.1107
 5524SOL     OW22534   9.507   6.733   0.144 -0.0825 -0.2340  0.3100
 5524SOL    HW122535   9.537   6.776   0.225  1.6016  1.2992 -1.0475
 5524SOL    HW222536   9.423   6.775   0.125  0.1088  0.3057  0.6192
 5525SOL     OW22537   9.400   5.228   9.368 -0.4417  0.4606  0.0987
 5525SOL    HW122538   9.470   5.271   9.418 -0.7461  0.3434  0.6207
 5525SOL    HW222539   9.395   5.279   9.287  1.5703 -0.6685 -0.8310
 5526SOL     OW22540   8.337   5.108   3.592 -0.0742  0.0181 -0.5799
 5526SOL    HW122541   8.401   5.177   3.575 -1.6036  1.4890 -0.6892
 5526SOL    HW222542   8.344   5.090   3.686 -2.1430  3.0794  0.3077
 5527SOL     OW22543   5.685   3.200   6.045 -0.4951  0.4317 -0.0946
 5527SOL    HW122544   5.604   3.155   6.021 -0.2955  0.4180 -0.7529
 5527SOL    HW222545   5.655   3.285   6.077 -0.9086 -0.3175  1.6091
 5528SOL     OW22546   0.691   3.467   6.969  0.3676  0.1327  0.4058
 5528SOL    HW122547   0.668   3.558   6.949 -2.3939 -0.5747 -0.1250
 5528SOL    HW222548   0.615   3.433   7.017  0.7001 -2.2630 -0.6057
 5529SOL     OW22549   0.880   5.864  10.210 -0.1982  0.4036 -0.3424
 5529SOL    HW122550   0.788   5.869  10.234  0.3854 -0.4625  2.3867
 5529SOL    HW222551   0.897   5.770  10.198  0.4444  0.5009 -0.2649
 5530SOL     OW22552  11.322   1.685   8.730 -0.4548 -0.0605  0.8845
 5530SOL    HW122553  11.348   1.685   8.637 -1.6755  0.7739  0.5215
 5530SOL    HW222554  11.326   1.593   8.756  2.0988 -0.0967  0.6704
 5531SOL     OW22555  11.835   9.915   6.357 -0.2378 -0.4115 -0.1296
 5531SOL    HW122556  11.856   9.899   6.449  2.1886 -0.9460 -0.7159
 5531SOL    HW222557  11.843  10.009   6.346 -0.4135 -0.3597  0.1738
 5532SOL     OW22558   5.363   8.424   1.759 -0.2199  0.5080 -0.1133
 5532SOL    HW122559   5.417   8.366   1.706  0.4615  1.8569 -0.9442
 5532SOL    HW222560   5.426   8.468   1.818 -0.5738  1.1327 -0.1894
 5533SOL     OW22561   8.142  11.625   9.306  0.2653  0.0299 -0.5320
 5533SOL    HW122562   8.122  11.687   9.376  0.6764  0.3253 -0.6751
 5533SOL    HW222563   8.209  11.568   9.343  0.2219 -0.0418 -0.5624
 5534SOL     OW22564   5.599   5.566   4.833 -0.0026  0.5003  0.1968
 5534SOL    HW122565   5.605   5.554   4.739 -0.6284 -1.3279  0.3486
 5534SOL    HW222566   5.642   5.489   4.871 -0.2689  0.9038  1.3887
 5535SOL     OW22567  11.942   6.240  10.276 -0.1406  0.2621  0.6444
 5535SOL    HW122568  12.001   6.314  10.288  0.2448  0.1595 -0.4821
 5535SOL    HW222569  11.893   6.261  10.196 -0.2708 -0.5367  0.5023
 5536SOL     OW22570   8.864   1.448   5.126 -0.3934 -0.0971 -0.2706
 5536SOL    HW122571   8.859   1.366   5.176 -1.7655 -0.5204 -1.0521
 5536SOL    HW222572   8.912   1.425   5.046  0.8566  0.3265  0.3319
 5537SOL     OW22573   0.236  10.532  10.507 -0.4121 -0.1489 -0.2945
 5537SOL    HW122574   0.326  10.500  10.498  0.0180 -0.9438  4.3860
 5537SOL    HW222575   0.245  10.620  10.542 -1.4576  0.0188 -0.4044
 5538SOL     OW22576   0.901   4.945   4.521  0.1949 -0.3681 -0.4100
 5538SOL    HW122577   0.979   4.890   4.523  0.8139  0.4848 -0.3509
 5538SOL    HW222578   0.834   4.895   4.567  1.3178 -0.2152  1.4798
 5539SOL     OW22579   4.225   6.731   2.609 -0.3222 -0.3276  0.2015
 5539SOL    HW122580   4.307   6.740   2.659 -0.2480 -0.8824  0.1859
 5539SOL    HW222581   4.238   6.787   2.532 -0.6764  1.0270  1.0763
 5540SOL     OW22582   0.611  10.037  11.645  0.4386  0.6973 -0.3639
 5540SOL    HW122583   0.541  10.011  11.704 -1.8164  1.0997 -2.6878
 5540SOL    HW222584   0.668  10.093  11.699 -1.1141  0.5402  1.5673
 5541SOL     OW22585   9.879   7.617  10.905 -0.1930  0.6670 -0.3334
 5541SOL    HW122586   9.885   7.587  10.996 -0.3337  0.1994 -0.4778
 5541SOL    HW222587   9.792   7.655  10.899 -0.9035 -0.9564 -0.7609
 5542SOL     OW22588   1.341  12.398   3.952 -0.1976  0.0520  0.1898
 5542SOL    HW122589   1.301  12.446   3.880 -0.5291  0.6717  0.7746
 5542SOL    HW222590   1.435  12.416   3.944 -0.2913  0.5791  0.2414
 5543SOL     OW22591  12.127   0.075   2.369  0.1399 -0.0813  0.2297
 5543SOL    HW122592  12.152   0.156   2.323 -0.6022 -0.8910 -1.7126
 5543SOL    HW222593  12.032   0.080   2.376  0.2581  0.2335  2.2002
 5544SOL     OW22594   4.916   1.311   6.360 -0.0529  0.2482  0.2882
 5544SOL    HW122595   5.001   1.346   6.333 -0.4073  0.5419 -0.4716
 5544SOL    HW222596   4.880   1.271   6.281 -0.9862  0.8790  0.3765
 5545SOL     OW22597   9.773   8.868  10.549 -0.1799  0.1521  0.3884
 5545SOL    HW122598   9.732   8.866  10.636  0.3713  0.2367  0.6547
 5545SOL    HW222599   9.856   8.823  10.561  0.6213  1.5429  0.2903
 5546SOL     OW22600   4.493   8.248   7.203 -0.3463  0.6067  0.0307
 5546SOL    HW122601   4.452   8.168   7.235  0.5386  0.2447  0.2959
 5546SOL    HW222602   4.501   8.303   7.281 -0.5132  0.7575 -0.0585
 5547SOL     OW22603  12.195   5.382   6.966  0.1391  0.3429  0.0409
 5547SOL    HW122604  12.123   5.409   6.909 -0.5821 -1.1227  0.1960
 5547SOL    HW222605  12.194   5.286   6.960  2.5510  0.3038 -0.5194
 5548SOL     OW22606   0.920   9.896   9.670  0.5889 -0.2580 -0.6326
 5548SOL    HW122607   0.863   9.869   9.742 -0.3536 -0.3538 -1.3964
 5548SOL    HW222608   0.993   9.834   9.672  0.6240 -0.2078  0.2760
 5549SOL     OW22609   1.079   5.758   6.993 -0.3256 -0.1794 -0.1824
 5549SOL    HW122610   1.171   5.764   6.970 -0.0286 -1.3726  0.6087
 5549SOL    HW222611   1.037   5.718   6.916 -0.0249 -0.5087 -0.1737
 5550SOL     OW22612   2.795   3.247   9.134  0.1265 -0.3253  0.3088
 5550SOL    HW122613   2.719   3.193   9.113  0.1961 -0.8100  1.2247
 5550SOL    HW222614   2.862   3.221   9.071 -0.1825 -0.5420  0.0694
 5551SOL     OW22615   2.952   7.664   8.860  0.3728 -0.0364 -0.0013
 5551SOL    HW122616   3.004   7.632   8.786  2.3900  0.9177  0.9492
 5551SOL    HW222617   2.889   7.724   8.821 -0.4290 -1.5864 -1.2337
 5552SOL     OW22618  10.589  10.631   5.882  0.2035 -0.2120  0.5135
 5552SOL    HW122619  10.597  10.657   5.974  0.6789  1.3268  0.0638
 5552SOL    HW222620  10.669  10.582   5.864  0.2940 -0.1728  0.7987
 5553SOL     OW22621   0.447   8.710  12.438  0.2464 -0.5786 -0.2477
 5553SOL    HW122622   0.410   8.625  12.459 -0.0857 -0.5948 -0.8886
 5553SOL    HW222623   0.526   8.690  12.386  0.9392 -0.5313  0.7546
 5554SOL     OW22624  11.802  10.241   3.065  0.1882 -0.1545  0.2127
 5554SOL    HW122625  11.717  10.260   3.106 -0.5317 -2.0174 -0.2983
 5554SOL    HW222626  11.811  10.146   3.073  2.1065 -0.0321 -0.0182
 5555SOL     OW22627   4.636   1.567   0.099 -0.0906 -0.1338  0.0237
 5555SOL    HW122628   4.608   1.595   0.012  0.3997 -0.0539 -0.1107
 5555SOL    HW222629   4.727   1.595   0.106 -0.4631  0.8874  1.0165
 5556SOL     OW22630   6.653   7.960   6.267 -0.1434 -0.0620 -0.0027
 5556SOL    HW122631   6.572   7.929   6.306  0.1854  0.7061  1.3896
 5556SOL    HW222632   6.722   7.917   6.317  0.3012  1.7846  1.1029
 5557SOL     OW22633   9.560   6.043   7.618  0.1830  0.0980 -0.0359
 5557SOL    HW122634   9.558   5.971   7.680 -2.0712  1.0451  1.1021
 5557SOL    HW222635   9.631   6.021   7.558  1.1090 -1.8559  1.6662
 5558SOL     OW22636   9.855   8.477  12.116  0.0177  0.0170  0.1525
 5558SOL    HW122637   9.923   8.421  12.154  0.6440  0.1156 -0.7802
 5558SOL    HW222638   9.882   8.488  12.025 -1.4534 -0.2286 -0.3364
 5559SOL     OW22639   4.096  12.209  10.509  0.0680  0.3264 -0.1941
 5559SOL    HW122640   4.176  12.261  10.517 -0.1051  0.5211  0.2784
 5559SOL    HW222641   4.117  12.143  10.442  1.1649 -0.6259  1.0329
 5560SOL     OW22642   9.752   5.901  10.090 -0.6125  0.1041 -0.3115
 5560SOL    HW122643   9.726   5.957  10.163  2.0817  1.6919 -0.4191
 5560SOL    HW222644   9.678   5.901  10.031 -1.7012  1.3052  0.9935
 5561SOL     OW22645   3.444   0.044   2.584  0.8885 -0.1323 -0.1121
 5561SOL    HW122646   3.458  -0.031   2.642  0.4357  0.0776  0.2832
 5561SOL    HW222647   3.528   0.058   2.540  0.8404 -1.1811 -0.5651
 5562SOL     OW22648  11.380   9.436   0.011 -0.3158  0.3568  0.5400
 5562SOL    HW122649  11.325   9.364   0.043 -0.8210 -0.2146 -1.4917
 5562SOL    HW222650  11.440   9.395  -0.051  0.9853  1.3334  1.1137
 5563SOL     OW22651   1.560   2.365  10.708  0.1764 -0.0212 -0.1644
 5563SOL    HW122652   1.527   2.332  10.624 -0.7259 -0.9106  0.5175
 5563SOL    HW222653   1.496   2.431  10.735 -0.6815 -1.1678  0.7621
 5564SOL     OW22654   0.796  11.673   7.385 -0.3365  0.0302 -0.1963
 5564SOL    HW122655   0.814  11.766   7.402  1.4602 -0.4203  0.7023
 5564SOL    HW222656   0.870  11.644   7.333  1.0636 -1.6567  2.5053
 5565SOL     OW22657   4.043   0.102   6.687 -0.4150 -0.0307  0.0101
 5565SOL    HW122658   4.049   0.156   6.608  0.5987 -0.0350  0.0686
 5565SOL    HW222659   3.959   0.057   6.679  0.6965 -1.9137 -2.2930
 5566SOL     OW22660   6.089   9.355  11.579  0.1748 -0.0430 -0.4340
 5566SOL    HW122661   6.117   9.264  11.587 -1.4097 -0.4806  0.5384
 5566SOL    HW222662   6.162   9.406  11.613  0.6173 -1.0139  0.1016
 5567SOL     OW22663  10.347  10.803  11.399  0.2185 -0.0042  0.2382
 5567SOL    HW122664  10.407  10.774  11.468  0.1025  2.3794  1.4374
 5567SOL    HW222665  10.380  10.888  11.373 -1.9325  0.8495  0.0839
 5568SOL     OW22666  11.859  11.012   5.617  0.0679 -0.1280  0.5930
 5568SOL    HW122667  11.917  10.951   5.662 -1.4649 -2.4957 -0.4457
 5568SOL    HW222668  11.876  10.996   5.524 -1.7263 -0.4165  0.2852
 5569SOL     OW22669   2.615   4.101   2.220  0.6505  0.5984  0.3154
 5569SOL    HW122670   2.653   4.188   2.237  2.4028  0.1210 -0.8663
 5569SOL    HW222671   2.618   4.057   2.305  2.5472  0.7133  0.3647
 5570SOL     OW22672  12.320   5.212   8.107  0.2139  0.4397  0.3980
 5570SOL    HW122673  12.261   5.172   8.171  1.5505 -1.5231  0.4786
 5570SOL    HW222674  12.377   5.268   8.159  1.4533 -1.3343  1.0412
 5571SOL     OW22675   3.621   6.342   1.193  0.7997 -0.1567  0.0077
 5571SOL    HW122676   3.532   6.341   1.229  0.8547 -1.5043  0.1546
 5571SOL    HW222677   3.617   6.403   1.119 -0.9714 -2.2404 -1.7516
 5572SOL     OW22678   3.791  11.884   9.945 -0.4501 -0.1786  0.3870
 5572SOL    HW122679   3.858  11.861  10.010 -1.4729  0.7040  1.8050
 5572SOL    HW222680   3.709  11.886   9.995 -1.3733 -0.0859 -1.0742
 5573SOL     OW22681   1.339   6.476   1.982 -0.1728  0.3390  0.0017
 5573SOL    HW122682   1.347   6.384   2.004 -1.0010 -0.3592 -2.3236
 5573SOL    HW222683   1.251   6.501   2.012 -0.7406 -0.2120 -1.1451
 5574SOL     OW22684   8.326   0.086   0.907  0.4584  0.1153  0.1759
 5574SOL    HW122685   8.411   0.086   0.951  1.3508 -0.9406 -1.4579
 5574SOL    HW222686   8.314   0.176   0.877  0.2733  0.6202  1.6580
 5575SOL     OW22687   1.365   4.014   4.448 -0.2396  0.8080 -0.5540
 5575SOL    HW122688   1.302   3.951   4.413  0.1857  0.7291 -1.1799
 5575SOL    HW222689   1.409   4.050   4.371 -0.5821  1.9914 -0.2310
 5576SOL     OW22690   4.302  11.436  11.009 -0.9117 -0.5022 -0.2803
 5576SOL    HW122691   4.214  11.407  11.034 -0.1888 -1.3746  1.3732
 5576SOL    HW222692   4.357  11.359  11.021  0.1592  0.1386 -0.9344
 5577SOL     OW22693   0.231   2.461   2.707 -0.7450 -0.2429  0.5740
 5577SOL    HW122694   0.244   2.421   2.793  2.5556  1.6187  1.1139
 5577SOL    HW222695   0.260   2.394   2.645  0.7072 -0.2307  1.1987
 5578SOL     OW22696   5.097   9.775  10.087 -0.2348 -0.0159  0.0778
 5578SOL    HW122697   5.167   9.802  10.147 -0.6787  0.1861  0.5094
 5578SOL    HW222698   5.143   9.733  10.014  0.3469  0.2837  0.2691
 5579SOL     OW22699  12.304   8.266  10.912 -0.0374 -0.0277  0.2963
 5579SOL    HW122700  12.211   8.274  10.890  0.2242 -0.1032 -0.9462
 5579SOL    HW222701  12.306   8.250  11.006 -1.4399 -2.8361 -0.0512
 5580SOL     OW22702  11.123   8.643   1.318  0.0549 -0.4950  0.4203
 5580SOL    HW122703  11.154   8.699   1.389 -0.4546  0.3009  0.0178
 5580SOL    HW222704  11.135   8.695   1.239  0.6903 -1.4034 -0.1032
 5581SOL     OW22705   9.526   8.807   8.378  0.2636 -0.3483 -0.4403
 5581SOL    HW122706   9.511   8.783   8.470 -1.0438 -0.6155 -0.7123
 5581SOL    HW222707   9.447   8.854   8.353  0.5563 -0.4054 -1.4899
 5582SOL     OW22708   1.589   0.772   1.928 -0.4451  0.3912  0.2971
 5582SOL    HW122709   1.682   0.785   1.948 -0.0498 -2.5652  0.8723
 5582SOL    HW222710   1.552   0.733   2.008 -1.0349 -2.6860 -1.2975
 5583SOL     OW22711  10.353   2.219   1.995 -0.0322 -0.1545  0.2281
 5583SOL    HW122712  10.353   2.314   2.006 -1.0086  0.0445 -1.2020
 5583SOL    HW222713  10.332   2.184   2.082 -0.0479  0.9559  0.6776
 5584SOL     OW22714  11.517   4.318  12.379 -0.3139 -0.0380  0.2955
 5584SOL    HW122715  11.549   4.334  12.468  2.9813  2.1369 -1.0663
 5584SOL    HW222716  11.551   4.231  12.357  0.9460  0.3969  0.4307
 5585SOL     OW22717   2.541  10.290   3.938 -0.2528  0.0220  0.1668
 5585SOL    HW122718   2.612  10.340   3.897 -1.3572  1.5681  0.0486
 5585SOL    HW222719   2.578  10.261   4.022  0.5643  0.7126  0.0642
 5586SOL     OW22720   5.973   5.294   7.689  0.1753  0.3221 -0.0234
 5586SOL    HW122721   5.950   5.201   7.680  1.0826  0.1212 -0.4765
 5586SOL    HW222722   6.039   5.308   7.621 -0.1448  1.3719 -0.1304
 5587SOL     OW22723   7.319   0.811   8.964  0.5400 -0.5385  0.0233
 5587SOL    HW122724   7.397   0.862   8.986  1.0393  0.6398 -3.7988
 5587SOL    HW222725   7.349   0.747   8.900 -1.2311 -1.7292  0.3054
 5588SOL     OW22726   2.424   3.415   7.187  0.1797 -0.0954 -0.1257
 5588SOL    HW122727   2.438   3.478   7.257 -0.9295  0.8707 -0.7391
 5588SOL    HW222728   2.372   3.345   7.226  0.2336  0.0499  0.2045
 5589SOL     OW22729   9.596   1.168   7.922 -0.3675 -0.0770  0.2639
 5589SOL    HW122730   9.649   1.221   7.981 -1.1032  0.9957 -0.0170
 5589SOL    HW222731   9.554   1.103   7.979 -0.7261  0.6670  0.8654
 5590SOL     OW22732  10.943   6.778  10.325  0.2419  0.0948  0.4574
 5590SOL    HW122733  11.027   6.814  10.354 -0.7290  1.9581  1.0939
 5590SOL    HW222734  10.878   6.839  10.359 -1.4041 -1.4122  0.1397
 5591SOL     OW22735   1.839   8.181  12.281 -0.0865 -0.0127  0.0566
 5591SOL    HW122736   1.933   8.176  12.266 -0.0069  1.7818 -0.3534
 5591SOL    HW222737   1.830   8.194  12.375  0.0820 -0.2588  0.1053
 5592SOL     OW22738   6.486   2.596  10.083  0.0442  0.1599 -0.1952
 5592SOL    HW122739   6.449   2.533  10.145  0.1475  1.4575  1.2425
 5592SOL    HW222740   6.577   2.568  10.072 -0.2730 -0.7183 -0.6233
 5593SOL     OW22741   2.791   4.227  10.571  0.5831 -0.3087 -0.3245
 5593SOL    HW122742   2.701   4.212  10.543  1.2189 -1.0897 -2.1008
 5593SOL    HW222743   2.785   4.299  10.634 -1.2708 -0.3798 -0.3673
 5594SOL     OW22744   9.893   0.726   1.718 -0.0876 -0.6388  0.4453
 5594SOL    HW122745   9.813   0.756   1.762  0.6059 -1.4427  2.3923
 5594SOL    HW222746   9.957   0.797   1.735 -0.4853  0.2635 -1.5793
 5595SOL     OW22747   8.245   5.853   6.009 -0.0127  0.1763  0.1744
 5595SOL    HW122748   8.157   5.830   5.980  1.1189 -1.8823 -1.9572
 5595SOL    HW222749   8.267   5.786   6.073 -0.8495  2.2025  2.7859
 5596SOL     OW22750   2.596   4.109   3.853  0.6062 -0.2387 -0.7657
 5596SOL    HW122751   2.585   4.017   3.830  0.9125 -0.1928 -1.1036
 5596SOL    HW222752   2.553   4.118   3.939 -0.3713 -0.4516 -1.2176
 5597SOL     OW22753  12.456   4.254  10.390 -0.2250  0.8133 -0.4710
 5597SOL    HW122754  12.484   4.163  10.384 -0.3228  0.7606 -0.1206
 5597SOL    HW222755  12.366   4.249  10.421  0.1800  1.0749  0.7781
 5598SOL     OW22756   2.149   4.094   4.330 -0.1834  0.3594 -0.1262
 5598SOL    HW122757   2.068   4.050   4.356 -1.4098  2.2862 -0.4426
 5598SOL    HW222758   2.120   4.179   4.296  1.7841  0.2143 -2.4621
 5599SOL     OW22759   8.548   1.649   6.439 -0.2941 -0.5168  0.2659
 5599SOL    HW122760   8.599   1.724   6.472 -2.7824  2.0612 -1.2630
 5599SOL    HW222761   8.581   1.634   6.351  0.8092 -1.9234  0.8792
 5600SOL     OW22762   8.634   8.928   2.904  0.8341 -0.1238  0.2020
 5600SOL    HW122763   8.594   8.997   2.958 -0.1547 -0.3452 -0.2327
 5600SOL    HW222764   8.702   8.891   2.960  2.5370  2.2762 -0.0925
 5601SOL     OW22765   9.864   5.087   3.802 -0.4246  0.5947 -0.4090
 5601SOL    HW122766   9.929   5.044   3.747 -0.2263 -0.3761  0.5420
 5601SOL    HW222767   9.895   5.072   3.892 -1.3882  1.0619  0.0191
 5602SOL     OW22768   2.229   4.559  11.773  0.1955 -0.2099  0.1405
 5602SOL    HW122769   2.257   4.473  11.804 -0.9195 -0.4696  0.4783
 5602SOL    HW222770   2.205   4.607  11.853  0.2979  0.2211 -0.0868
 5603SOL     OW22771   1.824   2.897  12.469 -0.0430  0.7431  0.4828
 5603SOL    HW122772   1.862   2.942  12.544  2.7373 -0.0553 -0.3371
 5603SOL    HW222773   1.743   2.858  12.503 -0.2386  2.5784  2.3220
 5604SOL     OW22774   3.323   5.709   8.821 -0.2059 -0.2023  0.2286
 5604SOL    HW122775   3.336   5.747   8.907  1.5575  1.4728 -0.6967
 5604SOL    HW222776   3.363   5.622   8.826 -1.9380 -0.9859  1.6138
 5605SOL     OW22777   0.244   0.124   0.280  0.1306 -0.1839  0.2348
 5605SOL    HW122778   0.249   0.216   0.252 -0.5087 -0.0089  0.6668
 5605SOL    HW222779   0.194   0.081   0.211  1.5326 -0.4961 -0.6268
 5606SOL     OW22780   5.610   5.042   1.862  0.1990 -0.6501 -0.6038
 5606SOL    HW122781   5.630   5.088   1.780 -0.5087 -1.3726 -1.1966
 5606SOL    HW222782   5.597   5.112   1.926  0.5904 -0.0705 -1.1425
 5607SOL     OW22783  10.931   3.563   3.797 -0.2549  0.0132  0.1827
 5607SOL    HW122784  10.969   3.651   3.808  1.4280 -0.5747 -0.5699
 5607SOL    HW222785  10.930   3.550   3.702  1.0693 -1.4050  0.3380
 5608SOL     OW22786   8.056   9.730   8.838  0.3277 -0.3179 -0.1225
 5608SOL    HW122787   8.149   9.751   8.832  0.3133 -0.1829  0.1562
 5608SOL    HW222788   8.049   9.667   8.910  0.3445 -1.1493 -0.8301
 5609SOL     OW22789   2.043   6.324   4.025  0.0745  0.2468 -0.0694
 5609SOL    HW122790   2.032   6.243   4.075  0.1437 -0.1191 -0.6380
 5609SOL    HW222791   1.964   6.330   3.972  0.8714 -0.4008 -1.3599
 5610SOL     OW22792   8.012   6.204   2.968  0.4746 -0.2984 -0.1478
 5610SOL    HW122793   8.060   6.257   3.032  0.5648 -1.4138  0.7453
 5610SOL    HW222794   8.007   6.117   3.008 -1.2206 -0.5333 -0.7717
 5611SOL     OW22795   2.250   0.851   4.878  0.0252 -0.2044 -0.3023
 5611SOL    HW122796   2.157   0.845   4.902 -0.0017 -1.8327 -0.6528
 5611SOL    HW222797   2.284   0.763   4.894  1.2454  0.0717 -1.2117
 5612SOL     OW22798  10.487   4.478   1.596  0.0288 -1.2086 -0.0060
 5612SOL    HW122799  10.540   4.399   1.583 -0.0205 -1.2654  0.1448
 5612SOL    HW222800  10.406   4.447   1.636  0.4262 -0.9517  1.0078
 5613SOL     OW22801   3.560   7.463   9.515 -0.5860 -0.4204 -0.3664
 5613SOL    HW122802   3.553   7.482   9.422 -0.7450 -0.7334 -0.4173
 5613SOL    HW222803   3.601   7.377   9.520 -0.1676 -0.2108 -0.1358
 5614SOL     OW22804   1.941  11.787   8.934 -0.1025  0.0759 -0.3196
 5614SOL    HW122805   1.878  11.775   9.006 -0.9906 -2.4662 -1.3965
 5614SOL    HW222806   2.020  11.744   8.965 -0.2226 -0.2967 -0.5218
 5615SOL     OW22807   9.029  11.272   9.538 -0.2899 -0.0227  0.2049
 5615SOL    HW122808   9.060  11.204   9.479  1.2742  0.1644  0.7587
 5615SOL    HW222809   9.048  11.354   9.492 -0.5421  0.0755  0.2780
 5616SOL     OW22810   0.747   2.649   4.649 -0.3800  0.1228 -0.0843
 5616SOL    HW122811   0.692   2.727   4.638  0.4407  0.6648 -0.4686
 5616SOL    HW222812   0.704   2.598   4.717 -1.7045  0.2242 -0.8184
 5617SOL     OW22813   2.529   8.176   8.745  1.0129 -0.8451  0.0095
 5617SOL    HW122814   2.443   8.161   8.783  0.9265  0.9647  0.6168
 5617SOL    HW222815   2.590   8.159   8.817  1.0076  0.0648  0.2393
 5618SOL     OW22816   9.623  10.340   3.412  0.2711 -0.1996 -0.0059
 5618SOL    HW122817   9.598  10.280   3.341  0.1679 -1.5879  1.1666
 5618SOL    HW222818   9.717  10.353   3.400  0.0627  0.5459 -1.0759
 5619SOL     OW22819   6.597   0.318   3.595  0.2900 -0.0019  0.3055
 5619SOL    HW122820   6.664   0.386   3.600 -1.8361  2.1918  1.9210
 5619SOL    HW222821   6.621   0.255   3.663  2.6495 -1.3474 -1.6454
 5620SOL     OW22822   0.835   5.629   4.203 -0.3353 -0.6581 -0.3894
 5620SOL    HW122823   0.766   5.660   4.145 -0.1399 -0.8685 -0.7402
 5620SOL    HW222824   0.790   5.604   4.284 -0.7431 -1.2758 -0.7945
 5621SOL     OW22825   3.540   7.215   3.880  0.1511 -0.2387 -0.2529
 5621SOL    HW122826   3.508   7.243   3.966  0.0861 -1.3484  0.0981
 5621SOL    HW222827   3.635   7.222   3.887  0.0997  1.8978 -0.8947
 5622SOL     OW22828   8.790   3.541  11.067  0.3773 -0.1138  0.2629
 5622SOL    HW122829   8.834   3.536  10.982  0.1801  0.9213  0.0897
 5622SOL    HW222830   8.770   3.450  11.090 -0.6550 -0.3362 -1.3747
 5623SOL     OW22831   3.478   2.527   9.456 -0.3386  0.3450 -0.0297
 5623SOL    HW122832   3.514   2.609   9.422  4.4539 -1.8504 -1.1333
 5623SOL    HW222833   3.449   2.479   9.378 -1.2543  0.1872  0.3926
 5624SOL     OW22834   4.427   9.434  10.333  0.0034 -0.2074 -0.0606
 5624SOL    HW122835   4.444   9.342  10.349 -2.2335 -0.8422 -0.8671
 5624SOL    HW222836   4.481   9.456  10.257  1.3329 -0.5232  0.7655
 5625SOL     OW22837   1.921   5.101   2.349  0.3812  0.1311 -0.5629
 5625SOL    HW122838   2.008   5.123   2.315  0.3047  2.0178  0.3062
 5625SOL    HW222839   1.866   5.175   2.324 -1.0900 -1.2041 -1.4020
 5626SOL     OW22840  11.811   2.003   3.206 -0.2829 -0.2813 -0.0260
 5626SOL    HW122841  11.793   1.974   3.296  1.4093  1.5167  0.9848
 5626SOL    HW222842  11.829   1.923   3.158 -0.0202 -1.2268  1.5701
 5627SOL     OW22843   1.109   6.908   5.527  0.0514 -0.2897  0.0828
 5627SOL    HW122844   1.070   6.888   5.613 -0.5238 -0.4434 -0.2116
 5627SOL    HW222845   1.125   6.823   5.487  0.2522 -0.2164  0.0045
 5628SOL     OW22846   9.559  11.676   9.420 -0.2385 -0.2524  0.2279
 5628SOL    HW122847   9.613  11.669   9.498 -1.9380 -1.5775  1.3725
 5628SOL    HW222848   9.503  11.752   9.436 -0.4249 -0.3833  0.2106
 5629SOL     OW22849   4.887   6.144   8.896 -0.0061 -0.4732 -0.5298
 5629SOL    HW122850   4.858   6.057   8.872 -2.8702 -0.0956  1.0702
 5629SOL    HW222851   4.977   6.149   8.865  0.5072 -4.2138 -0.0843
 5630SOL     OW22852   7.127   1.896   3.062  0.4951  0.1501 -0.0076
 5630SOL    HW122853   7.084   1.954   2.999  1.2358  0.7857  0.0505
 5630SOL    HW222854   7.132   1.947   3.143  0.4889 -0.2698  0.2609
 5631SOL     OW22855   5.950   3.935  10.695 -0.4023  0.2555  0.0014
 5631SOL    HW122856   6.037   3.971  10.714 -0.5917 -0.0986  1.7188
 5631SOL    HW222857   5.968   3.849  10.657 -0.0055  0.1948  0.3190
 5632SOL     OW22858   8.816   4.730   6.295  0.3958  0.7104 -0.7802
 5632SOL    HW122859   8.761   4.808   6.299  1.1565  1.3901 -2.6775
 5632SOL    HW222860   8.759   4.663   6.258  0.2767  0.8519 -0.8517
 5633SOL     OW22861  10.515   8.344  11.865  0.6979 -0.1578  0.4306
 5633SOL    HW122862  10.572   8.388  11.803  2.1876 -0.4716  1.5230
 5633SOL    HW222863  10.565   8.269  11.896 -0.1413 -0.2282  1.7183
 5634SOL     OW22864  11.280   1.387  11.354  0.2644  0.2129  0.2910
 5634SOL    HW122865  11.200   1.352  11.392 -0.7143 -0.0051 -1.8541
 5634SOL    HW222866  11.338   1.401  11.429 -1.5501 -0.1614  1.8301
 5635SOL     OW22867  11.851  11.559   1.986 -0.4677 -0.4596 -0.3037
 5635SOL    HW122868  11.791  11.522   1.922  0.2176  0.2304 -1.3809
 5635SOL    HW222869  11.867  11.648   1.956  0.7511 -0.4899  0.1873
 5636SOL     OW22870   3.636   7.278   0.269  0.4827  0.0145  0.3191
 5636SOL    HW122871   3.655   7.193   0.308  1.5019 -0.5355 -1.2972
 5636SOL    HW222872   3.541   7.277   0.256  0.1408  0.1296  2.4766
 5637SOL     OW22873   7.208   7.306   9.450  0.2423 -0.2223  0.4886
 5637SOL    HW122874   7.218   7.351   9.366 -0.7796 -0.7475  0.0745
 5637SOL    HW222875   7.116   7.320   9.474  0.0429 -1.6232  0.6117
 5638SOL     OW22876  11.774   0.563   2.756  0.3072  0.0836  0.4090
 5638SOL    HW122877  11.782   0.648   2.800  0.5730 -0.0828  0.6890
 5638SOL    HW222878  11.864   0.543   2.729  1.1661 -2.0993  4.1265
 5639SOL     OW22879   8.833   1.457   9.133 -0.1297  0.2724 -0.1203
 5639SOL    HW122880   8.927   1.457   9.116 -0.1362  0.6680 -0.1669
 5639SOL    HW222881   8.798   1.393   9.071 -0.1293  1.5679 -1.5108
 5640SOL     OW22882   9.509   2.174   9.668  0.1782 -0.1159 -0.0056
 5640SOL    HW122883   9.422   2.205   9.693  0.3318  0.3549 -0.0512
 5640SOL    HW222884   9.546   2.246   9.617  1.8160  1.0119  2.6150
 5641SOL     OW22885   2.074   8.427   9.052  0.0633  0.2453  0.3048
 5641SOL    HW122886   1.983   8.442   9.029  0.0680  2.9662  1.6780
 5641SOL    HW222887   2.079   8.443   9.146  1.8810 -0.2785  0.3486
 5642SOL     OW22888   9.729   5.302   6.316 -0.1198  0.4232  0.5843
 5642SOL    HW122889   9.645   5.343   6.338 -1.6896 -1.4049 -1.4708
 5642SOL    HW222890   9.758   5.348   6.238 -1.5078 -1.6341 -1.2771
 5643SOL     OW22891  12.057   8.027   5.594  0.1752 -0.1924  0.0018
 5643SOL    HW122892  12.144   8.017   5.554 -0.2338  0.5709 -1.1353
 5643SOL    HW222893  12.039   7.942   5.634  1.8731 -0.0560  1.1490
 5644SOL     OW22894   7.942   1.435   7.394 -0.3558 -0.1979  0.1915
 5644SOL    HW122895   7.992   1.457   7.472 -2.5022 -1.4238  2.0281
 5644SOL    HW222896   7.982   1.354   7.362  1.3741  0.9931 -0.8696
 5645SOL     OW22897   1.750   1.823   0.940 -0.1545 -0.0864 -0.2389
 5645SOL    HW122898   1.719   1.789   1.023  0.0030 -0.4684 -0.3359
 5645SOL    HW222899   1.708   1.909   0.932  0.8436  0.5252  0.8380
 5646SOL     OW22900   7.635  11.487  10.419  0.6488 -0.1219 -0.2716
 5646SOL    HW122901   7.541  11.479  10.407  0.6817 -0.3756 -0.3527
 5646SOL    HW222902   7.658  11.569  10.374  0.3600  0.3242  0.3720
 5647SOL     OW22903  11.058   0.943   1.259 -0.3936 -0.0936  0.5236
 5647SOL    HW122904  11.121   0.996   1.308 -0.3912  0.0288  0.3864
 5647SOL    HW222905  11.100   0.858   1.251 -0.3961 -0.1153  0.7406
 5648SOL     OW22906   7.280   0.006   3.992  0.4103 -1.1384  0.0237
 5648SOL    HW122907   7.242  -0.033   3.913 -1.0143  1.9488 -0.9947
 5648SOL    HW222908   7.210  -0.001   4.058  1.4052 -3.2245  0.9667
 5649SOL     OW22909   8.496   4.989   2.096 -0.1679  0.7750 -0.4918
 5649SOL    HW122910   8.548   4.917   2.131 -1.3128  0.3164  0.3570
 5649SOL    HW222911   8.558   5.043   2.047  1.1559  0.4551  0.7710
 5650SOL     OW22912  10.332   5.864   1.086  0.0719  0.0205  0.0155
 5650SOL    HW122913  10.346   5.956   1.107 -1.6105 -0.4303  4.2023
 5650SOL    HW222914  10.413   5.836   1.043  0.2922  3.5114 -2.2305
 5651SOL     OW22915   8.708  10.652  11.481  0.1241 -0.1175  0.1319
 5651SOL    HW122916   8.765  10.614  11.549 -0.4393  1.3145  1.4587
 5651SOL    HW222917   8.716  10.746  11.493  0.1665  0.1873 -1.9798
 5652SOL     OW22918   5.854   7.867   6.189  0.0520  0.0765 -0.4718
 5652SOL    HW122919   5.850   7.963   6.191  0.3071  0.1155 -1.6365
 5652SOL    HW222920   5.919   7.844   6.256  1.1213  0.7969 -1.2374
 5653SOL     OW22921   1.604  12.289   8.613 -0.0053  0.0055 -0.0906
 5653SOL    HW122922   1.595  12.383   8.598  0.5500 -0.0504 -0.8604
 5653SOL    HW222923   1.521  12.251   8.586  0.2849  0.1285 -1.1897
 5654SOL     OW22924  10.404   3.357   9.300 -0.3609  0.1182 -0.0051
 5654SOL    HW122925  10.352   3.437   9.316 -0.8290 -0.3410  0.8254
 5654SOL    HW222926  10.376   3.328   9.213 -0.5069  0.6260 -0.1317
 5655SOL     OW22927  10.679   8.139   8.901 -0.3686 -0.3747  0.1502
 5655SOL    HW122928  10.697   8.151   8.994  1.6662 -0.1454 -0.2205
 5655SOL    HW222929  10.620   8.063   8.897 -0.1232 -0.6595  1.6015
 5656SOL     OW22930  10.403   4.023   8.305 -0.1222 -0.2993 -0.1390
 5656SOL    HW122931  10.329   4.061   8.258  1.2086  2.3938 -0.2195
 5656SOL    HW222932  10.394   4.055   8.395  1.2075  0.5715 -0.2823
 5657SOL     OW22933   2.842   9.437   4.710  0.1898 -0.4021  0.1076
 5657SOL    HW122934   2.912   9.421   4.647  0.2284 -0.6391  0.2095
 5657SOL    HW222935   2.791   9.509   4.672  0.4345 -0.2903 -0.0092
 5658SOL     OW22936   2.023   7.947   4.855  0.2706  0.1879  0.4383
 5658SOL    HW122937   2.078   7.891   4.800  0.0919  1.3968 -1.0467
 5658SOL    HW222938   1.945   7.964   4.802 -0.1454  1.0017  1.2630
 5659SOL     OW22939   4.733   2.376  11.344  0.1477  0.6174 -0.1917
 5659SOL    HW122940   4.742   2.412  11.256 -4.5896  1.6195 -0.5273
 5659SOL    HW222941   4.718   2.452  11.400  1.2100 -0.1481  1.2141
 5660SOL     OW22942   3.792   0.625   0.195 -0.0368 -0.0208 -0.1144
 5660SOL    HW122943   3.725   0.661   0.137  0.0603  1.1306  0.4516
 5660SOL    HW222944   3.857   0.695   0.204  0.3251 -0.4458  0.7830
 5661SOL     OW22945  12.104   5.142   8.791 -0.3337  0.1911 -0.3979
 5661SOL    HW122946  12.130   5.234   8.789 -1.3748  0.5143  0.2463
 5661SOL    HW222947  12.043   5.133   8.718 -1.6831  0.4852  0.6641
 5662SOL     OW22948  10.001   1.396   0.451 -0.5089  0.6293 -0.9151
 5662SOL    HW122949  10.015   1.306   0.424  0.5552  0.1557  1.0331
 5662SOL    HW222950  10.067   1.446   0.404  0.0180  0.1265 -0.7172
 5663SOL     OW22951  10.730   1.672   4.840  0.2387  0.0840  0.6154
 5663SOL    HW122952  10.719   1.756   4.794 -0.0948 -0.4697 -0.3416
 5663SOL    HW222953  10.794   1.691   4.908 -0.0269  1.1852  0.5793
 5664SOL     OW22954   8.290   0.829   7.922  0.0984  0.0558  0.1755
 5664SOL    HW122955   8.229   0.756   7.921  0.4593 -0.3324  2.1714
 5664SOL    HW222956   8.324   0.834   7.832 -1.5858 -0.7810 -0.5387
 5665SOL     OW22957   6.103   0.519   1.826 -0.2834  0.7837  0.0919
 5665SOL    HW122958   6.076   0.427   1.823  1.7697  0.1148  0.5884
 5665SOL    HW222959   6.167   0.523   1.897  1.2262  2.1323 -1.2546
 5666SOL     OW22960   9.247   9.447   0.958  0.1077 -0.0452  0.2366
 5666SOL    HW122961   9.318   9.472   0.898 -0.2748 -0.5054 -0.4258
 5666SOL    HW222962   9.259   9.503   1.034  0.3022  0.9207 -0.4835
 5667SOL     OW22963   9.219  10.248   2.540 -0.3325 -0.3293  0.3884
 5667SOL    HW122964   9.234  10.178   2.604 -0.7339 -1.1059 -0.3478
 5667SOL    HW222965   9.208  10.202   2.456 -0.3485  0.6347 -0.1505
 5668SOL     OW22966  11.568   8.844   6.925  0.6552 -0.2826  0.1864
 5668SOL    HW122967  11.642   8.895   6.957  0.0859  0.1840  0.7744
 5668SOL    HW222968  11.531   8.802   7.002 -1.4124  1.7413  0.4169
 5669SOL     OW22969   8.412   7.182   8.064 -0.5548 -0.4254 -0.5512
 5669SOL    HW122970   8.485   7.130   8.030 -0.6200  0.1849 -1.6525
 5669SOL    HW222971   8.353   7.117   8.104  0.1608 -1.0132 -0.4315
 5670SOL     OW22972   9.119  11.469   5.774 -0.1388 -0.2164 -0.1447
 5670SOL    HW122973   9.164  11.420   5.843 -0.9694  1.0047  1.3109
 5670SOL    HW222974   9.189  11.519   5.731  0.2654 -0.2991  0.4057
 5671SOL     OW22975  10.384   6.827   8.787  0.4231 -0.1960  0.1970
 5671SOL    HW122976  10.292   6.846   8.805  0.2731 -0.4599 -0.2635
 5671SOL    HW222977  10.398   6.740   8.825  1.0687  0.7317  2.1759
 5672SOL     OW22978   7.638   0.149   0.923 -0.2430  0.2764  0.3960
 5672SOL    HW122979   7.643   0.231   0.972 -2.5706  1.8228 -1.7096
 5672SOL    HW222980   7.729   0.119   0.917  0.6609  2.6085  1.3798
 5673SOL     OW22981  11.097   9.186   8.405 -0.1277  0.0697  0.1552
 5673SOL    HW122982  11.079   9.266   8.454 -0.6074 -0.0792  0.2189
 5673SOL    HW222983  11.178   9.206   8.356  0.3026  0.2527  0.9241
 5674SOL     OW22984  10.857  11.133   7.812  0.4396 -0.2398 -0.0500
 5674SOL    HW122985  10.886  11.048   7.846  0.9861 -0.7946 -1.7949
 5674SOL    HW222986  10.841  11.117   7.719 -1.0802  1.1813 -0.0657
 5675SOL     OW22987   7.534   8.572   6.479 -0.0450  0.0844  0.0534
 5675SOL    HW122988   7.498   8.547   6.394 -0.2545  1.4581 -0.2763
 5675SOL    HW222989   7.475   8.639   6.513  0.2839 -0.1175  1.0916
 5676SOL     OW22990   2.895   7.674  10.738 -0.4077  0.2829 -0.1774
 5676SOL    HW122991   2.897   7.595  10.792 -0.8892  0.1823 -0.2972
 5676SOL    HW222992   2.885   7.640  10.648  0.8021  0.4274 -0.3874
 5677SOL     OW22993   8.085   8.329   4.291  0.1483  0.0881 -0.1078
 5677SOL    HW122994   7.995   8.363   4.286  0.5638  1.3275  0.3845
 5677SOL    HW222995   8.080   8.256   4.353 -0.3841  0.6569  0.5310
 5678SOL     OW22996   9.786   8.180   6.632  0.4227  0.3528 -0.5185
 5678SOL    HW122997   9.699   8.169   6.668  0.0751 -1.7656 -1.8562
 5678SOL    HW222998   9.845   8.142   6.697  0.1981  0.3198 -0.3380
 5679SOL     OW22999  12.224  11.432  11.972 -0.2116 -0.3228 -0.1522
 5679SOL    HW123000  12.305  11.383  11.985 -1.1011 -1.6311  0.6312
 5679SOL    HW223001  12.193  11.405  11.885 -0.1228 -0.2846 -0.1957
 5680SOL     OW23002   4.445   6.828  12.370  0.3286 -0.2441  0.0249
 5680SOL    HW123003   4.531   6.824  12.327  0.2938 -0.2251 -0.0469
 5680SOL    HW223004   4.454   6.771  12.446 -0.4209 -2.4338 -1.4469
 5681SOL     OW23005  10.734   5.768   6.786 -0.1768  0.6880 -0.6993
 5681SOL    HW123006  10.793   5.781   6.861 -0.9369  0.6075 -0.0739
 5681SOL    HW223007  10.781   5.706   6.730  0.6755  1.2181 -0.5982
 5682SOL     OW23008   5.085   2.196  11.662  0.3341  0.3679  0.4525
 5682SOL    HW123009   5.020   2.228  11.724  1.1342 -1.4555  2.3923
 5682SOL    HW223010   5.168   2.229  11.696  0.5212  2.9804 -2.1892
 5683SOL     OW23011   6.556   5.190   7.615 -0.1452  0.7701  0.1243
 5683SOL    HW123012   6.556   5.244   7.536 -0.0458  1.9713  0.9091
 5683SOL    HW223013   6.495   5.235   7.674 -2.2616 -1.5293 -0.1562
 5684SOL     OW23014   6.389   9.736   0.644 -0.0840 -0.5223  0.2457
 5684SOL    HW123015   6.318   9.695   0.595  0.5766 -1.3796 -0.0239
 5684SOL    HW223016   6.461   9.741   0.581 -0.1278  1.0436  0.2772
 5685SOL     OW23017   6.577   3.770  10.209 -0.2629  0.1529 -0.1365
 5685SOL    HW123018   6.564   3.716  10.131  1.3284 -2.2360  1.1108
 5685SOL    HW223019   6.503   3.748  10.266  0.4660 -0.9213  0.4346
 5686SOL     OW23020   3.874   6.831   9.691  0.6777 -0.5792 -0.3172
 5686SOL    HW123021   3.898   6.899   9.754  1.3962 -0.5756 -0.5879
 5686SOL    HW223022   3.931   6.757   9.712 -0.5408 -1.3461  0.3874
 5687SOL     OW23023   0.398   0.436   4.614 -0.0504  0.6763 -0.3443
 5687SOL    HW123024   0.476   0.381   4.626 -0.2275  0.2094 -1.2748
 5687SOL    HW223025   0.344   0.416   4.691  0.6746  0.8954  0.2355
 5688SOL     OW23026   9.526   9.821  10.257  0.3603 -0.0986 -0.0227
 5688SOL    HW123027   9.552   9.912  10.242 -2.3068  0.6087 -1.0197
 5688SOL    HW223028   9.548   9.777  10.174  0.4802 -0.0576 -0.0132
 5689SOL     OW23029  11.069   7.231   9.081 -0.0395 -0.2243 -0.2101
 5689SOL    HW123030  10.997   7.197   9.135 -0.3299 -0.6769 -0.8663
 5689SOL    HW223031  11.133   7.159   9.079  0.4634  0.1923  0.4070
 5690SOL     OW23032   8.484  12.122   5.484 -0.0987  0.4640  0.1954
 5690SOL    HW123033   8.536  12.046   5.455 -0.1540 -0.1659  1.6583
 5690SOL    HW223034   8.417  12.085   5.541  0.8223  1.7250  2.2161
 5691SOL     OW23035   3.555   4.964   6.498  0.6450  0.1949 -0.4434
 5691SOL    HW123036   3.632   4.939   6.549 -0.2277 -0.1874  0.7157
 5691SOL    HW223037   3.563   4.916   6.416  1.7713  0.3720 -0.4476
 5692SOL     OW23038   1.458   6.396  11.821 -0.2174  0.5167 -0.1812
 5692SOL    HW123039   1.447   6.378  11.914  0.0251  1.9136  0.1406
 5692SOL    HW223040   1.383   6.355  11.779 -0.9251  0.8220  0.7610
 5693SOL     OW23041   8.846   8.306   8.202  0.2956  0.0213 -0.2182
 5693SOL    HW123042   8.862   8.218   8.168  2.4655  0.2218  0.1791
 5693SOL    HW223043   8.864   8.298   8.296 -1.3179  0.4978  0.1663
 5694SOL     OW23044   7.051   9.981   6.655 -0.0031 -0.3870 -0.1446
 5694SOL    HW123045   7.028   9.993   6.563  0.2836  0.1943 -0.1420
 5694SOL    HW223046   7.146   9.977   6.655  0.1040  1.4006  0.3210
 5695SOL     OW23047   8.014  12.449   0.017  0.2237  0.4733  0.1004
 5695SOL    HW123048   8.021  12.545   0.016  0.6390  0.4825  1.5209
 5695SOL    HW223049   7.960  12.431   0.094 -1.0142 -0.3963 -0.9197
 5696SOL     OW23050  11.524   0.653  10.482  0.3343 -0.3238 -0.4218
 5696SOL    HW123051  11.456   0.678  10.545  2.8099 -0.5676  2.5836
 5696SOL    HW223052  11.582   0.728  10.477  0.5233 -0.5222 -2.0761
 5697SOL     OW23053   0.567  10.583   4.323  0.9852 -0.0245  0.5054
 5697SOL    HW123054   0.491  10.526   4.329  0.2908  0.9150  0.7633
 5697SOL    HW223055   0.611  10.572   4.407  1.0369 -0.4124  0.4333
 5698SOL     OW23056   4.794  12.326   3.431 -0.4013  0.5577 -0.3275
 5698SOL    HW123057   4.821  12.397   3.489 -0.3042  1.9105 -1.9411
 5698SOL    HW223058   4.849  12.336   3.354 -0.4153 -1.2765 -0.6197
 5699SOL     OW23059   3.639   3.221  11.600 -0.3143  0.0320 -0.1565
 5699SOL    HW123060   3.620   3.270  11.680  0.3482  0.0153  0.0221
 5699SOL    HW223061   3.694   3.279  11.548 -0.7102  0.0261 -0.5881
 5700SOL     OW23062   3.171  10.337  10.106 -0.8328 -0.0830 -0.6572
 5700SOL    HW123063   3.265  10.320  10.113 -1.2353 -2.5444 -0.1937
 5700SOL    HW223064   3.164  10.431  10.089  1.6397  0.4464  0.7773
 5701SOL     OW23065   0.765   6.345   6.372 -0.5734 -0.0748  0.2755
 5701SOL    HW123066   0.796   6.435   6.374 -2.9563  0.7977  0.5826
 5701SOL    HW223067   0.762   6.323   6.279 -1.5578  0.7825  0.0852
 5702SOL     OW23068   2.227   0.982   9.723 -0.4967  0.2196  0.5628
 5702SOL    HW123069   2.292   1.007   9.656 -0.3762  0.2825  0.7030
 5702SOL    HW223070   2.217   1.060   9.777 -0.5990  0.1693  0.6159
 5703SOL     OW23071   3.867   5.743   8.906 -0.0206 -0.5029 -0.3734
 5703SOL    HW123072   3.915   5.661   8.896  1.4628  0.4416 -1.3016
 5703SOL    HW223073   3.895   5.778   8.990 -0.5712 -0.8781 -0.0277
 5704SOL     OW23074   9.780   8.305   8.047 -0.0722  0.3486 -0.3877
 5704SOL    HW123075   9.873   8.318   8.068  0.3412  1.1007 -2.3868
 5704SOL    HW223076   9.734   8.372   8.097  0.3227 -0.6388  1.3686
 5705SOL     OW23077   5.664  12.208   3.512 -0.0506 -0.2328 -0.1449
 5705SOL    HW123078   5.674  12.229   3.605 -1.4462  0.2443 -0.0843
 5705SOL    HW223079   5.642  12.115   3.511  2.0823 -0.7930 -0.1643
 5706SOL     OW23080   1.600  10.120   8.446  0.1965 -0.1076 -0.1319
 5706SOL    HW123081   1.539  10.185   8.481 -0.2035 -0.5401 -0.0229
 5706SOL    HW223082   1.641  10.164   8.372 -0.8434 -0.0863 -0.7189
 5707SOL     OW23083   3.084   8.946   6.736  0.0696 -0.4206  0.3052
 5707SOL    HW123084   3.054   8.979   6.821  1.0171 -0.8458  0.8207
 5707SOL    HW223085   3.174   8.918   6.752 -0.2280 -1.9012 -0.4774
 5708SOL     OW23086   5.971   7.465   7.612  0.2511 -0.4867  0.5967
 5708SOL    HW123087   5.877   7.463   7.633  0.5441 -1.3104  1.9213
 5708SOL    HW223088   6.008   7.393   7.662  1.6057 -0.1598  0.0900
 5709SOL     OW23089   8.060   5.406   4.550  0.4611 -0.3177 -1.2005
 5709SOL    HW123090   8.039   5.313   4.552 -0.0394 -0.2097 -1.0357
 5709SOL    HW223091   7.979   5.449   4.580  0.9324  0.1233 -0.5249
 5710SOL     OW23092   8.886   0.897  11.646 -0.0224 -0.0552  0.7963
 5710SOL    HW123093   8.887   0.868  11.555 -0.6394  0.5688  0.5787
 5710SOL    HW223094   8.819   0.965  11.649 -0.9521 -0.9662  2.0026
 5711SOL     OW23095   8.879   0.773  11.423 -0.3174  0.4074 -0.2693
 5711SOL    HW123096   8.954   0.716  11.404 -0.8740 -1.5931  2.8959
 5711SOL    HW223097   8.803   0.717  11.412 -1.1524  1.5136 -0.3143
 5712SOL     OW23098   2.661   8.345   0.651  0.0058  0.0355 -0.7649
 5712SOL    HW123099   2.586   8.381   0.698  0.0207 -0.2820 -0.4948
 5712SOL    HW223100   2.734   8.400   0.676 -0.0379  0.0267 -0.6202
 5713SOL     OW23101  11.192   6.962   2.634  0.1978 -0.1117  0.1451
 5713SOL    HW123102  11.181   7.012   2.716 -1.1625 -0.3666  0.1308
 5713SOL    HW223103  11.273   6.997   2.596 -0.3139  1.5646  0.5094
 5714SOL     OW23104   8.058   7.328   8.570  0.2322  0.1115  0.1907
 5714SOL    HW123105   7.991   7.343   8.637 -0.6781  1.2648 -0.9070
 5714SOL    HW223106   8.134   7.378   8.600 -0.4358  1.2692  0.0071
 5715SOL     OW23107  10.264   3.890  10.539  0.6518  0.2051  0.2085
 5715SOL    HW123108  10.231   3.898  10.629  0.2786 -0.6980  0.1582
 5715SOL    HW223109  10.225   3.965  10.493 -3.5409 -2.1300 -0.4942
 5716SOL     OW23110   2.839   1.181   6.579 -0.3360  0.2881  0.0134
 5716SOL    HW123111   2.894   1.245   6.534 -0.5654  0.5486  0.1027
 5716SOL    HW223112   2.872   1.182   6.669 -0.6805  0.6653  0.1389
 5717SOL     OW23113   2.022   2.205   0.477  0.1398 -0.5462  0.4447
 5717SOL    HW123114   1.979   2.125   0.447  0.8276 -0.9147  0.4172
 5717SOL    HW223115   2.115   2.181   0.482  0.4392  0.4286 -0.1830
 5718SOL     OW23116   3.607   2.361  11.757 -1.1357 -0.0170 -0.2801
 5718SOL    HW123117   3.538   2.405  11.708 -0.5962  1.0611 -0.1097
 5718SOL    HW223118   3.688   2.405  11.730 -0.8295  0.7744  1.6981
 5719SOL     OW23119   2.971   8.449   4.031 -0.7646  0.0755 -0.5703
 5719SOL    HW123120   2.889   8.438   3.984  0.0789 -1.2745 -1.8188
 5719SOL    HW223121   3.027   8.377   4.000  1.1114  1.3031 -0.2321
 5720SOL     OW23122   9.549   0.673   9.270  0.3657 -0.0743 -0.5817
 5720SOL    HW123123   9.510   0.601   9.222  0.9867 -1.0812  0.3678
 5720SOL    HW223124   9.589   0.632   9.347 -2.1224  1.6118  1.8193
 5721SOL     OW23125   9.173  11.449   2.666  0.3203 -0.2432  0.4241
 5721SOL    HW123126   9.082  11.417   2.671  0.7880 -1.6369  0.4616
 5721SOL    HW223127   9.213  11.420   2.747 -0.0624  3.4933  2.1749
 5722SOL     OW23128   6.408   7.343   7.328 -0.2969 -0.5631 -0.0095
 5722SOL    HW123129   6.356   7.423   7.335  0.3826 -0.2293  1.5104
 5722SOL    HW223130   6.347   7.273   7.351  0.5437  0.0671  5.3278
 5723SOL     OW23131   8.327   8.653   8.842 -0.0113 -0.2931 -0.0823
 5723SOL    HW123132   8.388   8.721   8.813 -1.3126  0.9890  0.0482
 5723SOL    HW223133   8.298   8.683   8.928 -0.2035 -1.2992  0.2081
 5724SOL     OW23134   9.659  10.157   8.749 -0.1341 -0.2642 -0.2779
 5724SOL    HW123135   9.596  10.176   8.679  1.2482 -1.0876 -1.8213
 5724SOL    HW223136   9.745  10.165   8.706  0.8643  1.1463  1.8248
 5725SOL     OW23137   0.281   4.677   0.578  0.4105 -0.1240  0.0834
 5725SOL    HW123138   0.295   4.768   0.602 -0.1613 -0.1471  0.5092
 5725SOL    HW223139   0.231   4.640   0.650 -0.4328 -0.4559 -0.6504
 5726SOL     OW23140   1.748   0.900   0.868 -0.1694  0.4727  0.1230
 5726SOL    HW123141   1.798   0.832   0.912  0.7853  0.6066 -0.7193
 5726SOL    HW223142   1.741   0.870   0.778 -1.0628  0.7731  0.0809
 5727SOL     OW23143   6.262   1.130   5.383 -0.1356  0.2445 -0.1944
 5727SOL    HW123144   6.180   1.137   5.432 -1.1712  1.6935 -1.9773
 5727SOL    HW223145   6.314   1.067   5.432 -2.1788 -0.4706  1.2055
 5728SOL     OW23146   4.575   5.013   7.007 -0.8473  0.0967  0.1492
 5728SOL    HW123147   4.535   5.022   7.093 -1.7048 -0.8553 -0.1369
 5728SOL    HW223148   4.505   5.034   6.945 -0.4839 -0.0913 -0.3340
 5729SOL     OW23149  11.576   8.965   9.705 -0.1190  0.0057 -0.1717
 5729SOL    HW123150  11.502   8.908   9.725 -0.1126  0.0459 -0.0257
 5729SOL    HW223151  11.543   9.027   9.641 -1.1030  1.8567  1.9661
 5730SOL     OW23152   2.622  11.921  11.597 -0.3701  0.2881 -0.0308
 5730SOL    HW123153   2.672  11.852  11.642  0.7299  0.7080 -0.5676
 5730SOL    HW223154   2.583  11.877  11.522 -0.7296 -0.0285  0.3405
 5731SOL     OW23155  12.391  11.856  11.479  0.0627 -0.2321  0.0799
 5731SOL    HW123156  12.396  11.938  11.528  0.4895  0.3806 -0.9411
 5731SOL    HW223157  12.459  11.801  11.518  0.1537  0.1064  0.4056
 5732SOL     OW23158   2.135   6.534   7.771  0.2384 -0.4868 -0.0365
 5732SOL    HW123159   2.129   6.576   7.857  1.6489 -0.0933 -0.1157
 5732SOL    HW223160   2.047   6.542   7.734  0.2115  1.4686  0.3738
 5733SOL     OW23161   2.456   2.160  11.113 -0.2823  0.2173  0.2879
 5733SOL    HW123162   2.427   2.235  11.060 -1.4677 -1.9620 -2.3716
 5733SOL    HW223163   2.410   2.171  11.196  0.1078  2.7570  0.2578
 5734SOL     OW23164   7.990   2.383   4.160  0.0983  0.5126  0.2714
 5734SOL    HW123165   8.009   2.336   4.241 -1.5335 -0.0121  0.3997
 5734SOL    HW223166   7.970   2.472   4.188 -1.3182  0.1201  0.5766
 5735SOL     OW23167   2.889   4.202   3.228  0.4570  0.8791  0.3091
 5735SOL    HW123168   2.823   4.196   3.160 -0.3256  1.6244  0.9862
 5735SOL    HW223169   2.951   4.132   3.207  1.1152  2.0772 -2.0873
 5736SOL     OW23170   1.922   3.682   9.134 -0.0579  0.1814  0.4063
 5736SOL    HW123171   1.915   3.630   9.213 -0.3461  1.7454  1.4637
 5736SOL    HW223172   1.923   3.618   9.063  0.6926 -1.2832  1.6781
 5737SOL     OW23173   1.227   7.951   9.013 -0.7879  0.8097 -0.3282
 5737SOL    HW123174   1.305   7.896   9.002 -1.4690  0.0881 -1.7228
 5737SOL    HW223175   1.172   7.931   8.937 -2.0219  1.8417  0.2577
 5738SOL     OW23176  11.137  11.833   4.160  0.1893  0.9471 -0.0155
 5738SOL    HW123177  11.175  11.746   4.145 -0.0476  0.8761 -0.2101
 5738SOL    HW223178  11.170  11.886   4.088 -1.0919  0.5619 -0.9136
 5739SOL     OW23179   9.650   6.210   5.618  0.4235  0.5290  0.1243
 5739SOL    HW123180   9.683   6.195   5.529 -1.3053 -0.9606 -0.3111
 5739SOL    HW223181   9.661   6.126   5.662 -0.1963  0.8049  0.8162
 5740SOL     OW23182  11.839   9.602   4.583  0.3197 -0.2888  0.4956
 5740SOL    HW123183  11.898   9.674   4.605 -1.5945  1.2231  1.0338
 5740SOL    HW223184  11.796   9.631   4.503 -0.8595 -0.5538  1.0079
 5741SOL     OW23185   6.926   2.970   5.658  0.3773 -0.2568  0.1128
 5741SOL    HW123186   6.935   3.064   5.643  3.2898 -0.2847  1.1160
 5741SOL    HW223187   6.910   2.933   5.571  2.2834  0.9027 -0.7855
 5742SOL     OW23188   5.622   3.512   7.970  0.0127  0.1429  0.3031
 5742SOL    HW123189   5.547   3.511   7.911  1.1261 -0.7627 -1.1846
 5742SOL    HW223190   5.690   3.463   7.923  0.5291 -1.8833  2.9414
 5743SOL     OW23191   4.258  11.232  11.363  0.0207  0.3374  0.3516
 5743SOL    HW123192   4.235  11.170  11.294 -1.5596  0.8846  0.3485
 5743SOL    HW223193   4.289  11.177  11.435 -0.3999 -0.3953 -0.0175
 5744SOL     OW23194   7.133   8.160  12.473 -0.4289 -0.1495 -0.0723
 5744SOL    HW123195   7.225   8.155  12.447 -0.6265 -1.8872 -0.5512
 5744SOL    HW223196   7.124   8.247  12.512  1.2291  0.3428 -0.6960
 5745SOL     OW23197   4.418   8.607  10.600  0.2927 -0.3771 -0.0353
 5745SOL    HW123198   4.372   8.531  10.634  0.8891 -1.2784 -1.1890
 5745SOL    HW223199   4.501   8.573  10.567  0.7117  0.8245 -0.2796
 5746SOL     OW23200   4.457   6.029   0.895  0.5547 -0.4256 -0.9592
 5746SOL    HW123201   4.490   6.087   0.826  2.0744 -1.1321 -0.8699
 5746SOL    HW223202   4.449   6.086   0.972 -0.6797  0.2571 -1.5687
 5747SOL     OW23203   8.710  11.208   9.405 -0.1652  0.4244  0.0882
 5747SOL    HW123204   8.711  11.302   9.425 -0.2540  0.4856 -0.1917
 5747SOL    HW223205   8.656  11.170   9.473 -0.3343  0.6110  0.0593
 5748SOL     OW23206   0.007   8.563   8.095 -0.0165 -0.0092  0.1544
 5748SOL    HW123207  -0.084   8.589   8.086 -0.2688 -0.5153  1.1004
 5748SOL    HW223208   0.005   8.467   8.091  0.5132 -0.0140 -0.1061
 5749SOL     OW23209   4.948   1.550  11.864 -0.0684 -0.5229 -0.3627
 5749SOL    HW123210   4.853   1.541  11.874  0.1159 -0.7231  1.7660
 5749SOL    HW223211   4.966   1.640  11.893  0.4165 -0.6090 -0.3913
 5750SOL     OW23212  12.401   8.440  10.572 -0.3593  0.3461  0.1535
 5750SOL    HW123213  12.331   8.469  10.631 -0.1537  2.8611 -0.7240
 5750SOL    HW223214  12.399   8.345  10.578 -1.4005  0.4472  2.9656
 5751SOL     OW23215   6.834   4.498   2.850 -0.3495  0.5238  0.2265
 5751SOL    HW123216   6.845   4.578   2.798 -1.4923 -0.0237 -0.9290
 5751SOL    HW223217   6.912   4.446   2.829 -0.6884  0.4033 -0.8080
 5752SOL     OW23218   2.541   8.931   8.796 -0.4645 -0.3150 -0.0394
 5752SOL    HW123219   2.612   8.995   8.803  0.8894 -1.4981 -1.9386
 5752SOL    HW223220   2.547   8.899   8.706 -1.7997 -2.3198  0.5294
 5753SOL     OW23221   4.284   0.116  12.189 -0.2237  0.5087 -0.8170
 5753SOL    HW123222   4.252   0.206  12.191  0.4707  0.7518  1.5079
 5753SOL    HW223223   4.205   0.063  12.196 -0.6465  0.8937 -2.2726
 5754SOL     OW23224  11.501   4.853   0.401  0.0291 -0.1976 -1.0177
 5754SOL    HW123225  11.476   4.893   0.484 -2.0912 -3.8194  0.3293
 5754SOL    HW223226  11.596   4.841   0.408 -0.1484 -0.8099  1.1348
 5755SOL     OW23227   4.773   8.226  10.139 -0.4981  0.0731  0.0388
 5755SOL    HW123228   4.754   8.145  10.092  0.1660 -0.6783  1.0325
 5755SOL    HW223229   4.784   8.292  10.070  0.1675 -0.9352 -0.8481
 5756SOL     OW23230   6.506   0.768   1.712  0.1438 -0.4907 -0.6957
 5756SOL    HW123231   6.514   0.673   1.705  0.3608 -0.3908 -2.1044
 5756SOL    HW223232   6.568   0.793   1.780 -0.5738 -1.4373  0.3452
 5757SOL     OW23233  10.785  10.323  11.057 -0.7045 -0.5423  0.0134
 5757SOL    HW123234  10.729  10.395  11.084 -2.3748 -0.9661 -1.9991
 5757SOL    HW223235  10.873  10.350  11.081 -1.4308  1.5690  0.5117
 5758SOL     OW23236   4.375   2.622  10.044  0.1465  0.3957  0.4729
 5758SOL    HW123237   4.392   2.630   9.950  0.6924  0.5355  0.5766
 5758SOL    HW223238   4.304   2.683  10.061  0.3350  0.6911  0.2218
 5759SOL     OW23239   5.210  10.540   7.073  0.3688 -0.3029 -0.6066
 5759SOL    HW123240   5.250  10.496   6.998  2.3410 -0.4566  0.4735
 5759SOL    HW223241   5.201  10.631   7.045  0.6196 -0.4570 -1.2064
 5760SOL     OW23242   5.652   6.695  12.331 -0.0755 -0.6572  0.1195
 5760SOL    HW123243   5.677   6.604  12.342 -0.8024 -0.9296 -0.3906
 5760SOL    HW223244   5.580   6.693  12.268  0.9632  0.4080 -1.1689
 5761SOL     OW23245   7.654   5.249   4.917  0.0931 -0.0753  0.1658
 5761SOL    HW123246   7.600   5.262   4.996 -0.6490 -0.1149 -0.3285
 5761SOL    HW223247   7.681   5.337   4.892 -0.7025  0.0658 -0.2389
 5762SOL     OW23248   3.184   2.991   6.451 -0.4389  0.1817 -0.6917
 5762SOL    HW123249   3.118   2.978   6.382 -0.1346  1.6034 -1.2846
 5762SOL    HW223250   3.202   2.903   6.483 -2.7708 -0.2523 -0.3654
 5763SOL     OW23251   2.144   1.744   8.922  0.1485  0.3178 -0.7015
 5763SOL    HW123252   2.063   1.792   8.903 -0.5329 -0.1449  0.8438
 5763SOL    HW223253   2.129   1.656   8.889 -0.1309  0.1364 -0.1029
 5764SOL     OW23254   5.879  12.304   5.402 -0.1134  0.7539  0.0529
 5764SOL    HW123255   5.857  12.362   5.475 -0.2676  0.9606 -0.1543
 5764SOL    HW223256   5.970  12.325   5.381  0.2547 -0.0021  0.8219
 5765SOL     OW23257   0.904   4.818   1.111  0.3471  0.6866 -0.4612
 5765SOL    HW123258   0.894   4.794   1.203 -0.9896 -0.2447 -0.8301
 5765SOL    HW223259   0.928   4.736   1.068 -1.3321  0.5965 -1.2795
 5766SOL     OW23260   5.957   8.100   6.981  0.3634  0.3857  0.3691
 5766SOL    HW123261   5.867   8.111   7.011 -0.3271 -0.7951 -1.0851
 5766SOL    HW223262   6.008   8.091   7.061 -1.0177 -0.3159  1.2238
 5767SOL     OW23263  10.216   0.948   6.417  0.0157 -0.0973  0.6410
 5767SOL    HW123264  10.163   0.924   6.340  0.7834 -0.6003  0.2576
 5767SOL    HW223265  10.164   1.015   6.461 -0.1364  0.7209 -0.6988
 5768SOL     OW23266   8.586   0.903   2.795  0.1137 -0.4772  0.5804
 5768SOL    HW123267   8.643   0.974   2.826 -2.1246  2.0846 -0.7653
 5768SOL    HW223268   8.586   0.912   2.700 -0.7915 -1.8846  0.4208
 5769SOL     OW23269   9.124   7.510   9.891 -0.3794  0.3847  0.3222
 5769SOL    HW123270   9.174   7.542   9.967 -1.1799  0.8289  0.6780
 5769SOL    HW223271   9.091   7.424   9.918 -1.3496  0.8916  0.8139
 5770SOL     OW23272   9.921   6.278   8.502  0.0699  0.1417 -0.4759
 5770SOL    HW123273   9.907   6.242   8.414  2.1477 -0.6182 -0.5770
 5770SOL    HW223274   9.924   6.201   8.559 -1.7772  0.6613  0.3899
 5771SOL     OW23275  11.958  10.449   8.533  0.8850  0.1075  0.5335
 5771SOL    HW123276  11.995  10.478   8.450 -0.4570  0.1732 -0.0523
 5771SOL    HW223277  12.004  10.367   8.552  2.0935  0.7283  0.3849
 5772SOL     OW23278   1.860   6.410  10.168 -0.2479 -0.4744 -0.4852
 5772SOL    HW123279   1.906   6.347  10.112  0.3935 -0.4498 -0.0022
 5772SOL    HW223280   1.856   6.367  10.254 -1.0016 -0.4090 -0.4839
 5773SOL     OW23281   0.814   2.520   5.202 -0.3861 -0.0306 -0.4761
 5773SOL    HW123282   0.736   2.522   5.146  0.3803  0.3922 -1.5728
 5773SOL    HW223283   0.838   2.612   5.213 -0.3166 -0.1335  0.2638
 5774SOL     OW23284  10.644   9.702  12.426  0.2036 -0.2216  0.0887
 5774SOL    HW123285  10.635   9.757  12.348  0.1856  0.0468  0.2782
 5774SOL    HW223286  10.572   9.731  12.483 -1.1590 -1.9042 -0.6798
 5775SOL     OW23287   7.983   4.324   7.942 -0.3256  0.5627  0.8461
 5775SOL    HW123288   7.919   4.394   7.955 -0.8693  0.9203 -2.7735
 5775SOL    HW223289   7.937   4.245   7.969 -1.2946  1.1269  0.8990
 5776SOL     OW23290   4.482   0.981   0.365 -0.0237 -0.3256  0.5005
 5776SOL    HW123291   4.489   1.076   0.381 -0.5634 -0.3107  0.6556
 5776SOL    HW223292   4.558   0.961   0.311  0.7998 -0.0325  1.5116
 5777SOL     OW23293   6.213  11.094   6.767  0.4758 -0.4189 -0.5459
 5777SOL    HW123294   6.266  11.152   6.712  1.8537 -2.3059 -1.3122
 5777SOL    HW223295   6.132  11.082   6.717  0.4232  0.3550 -0.6585
 5778SOL     OW23296   7.720   8.128   4.721 -0.1683 -0.4408  0.0114
 5778SOL    HW123297   7.743   8.217   4.692 -0.7863  1.1198  3.7706
 5778SOL    HW223298   7.797   8.075   4.699  0.8662  1.3550 -0.9189
 5779SOL     OW23299   6.425   3.642   5.918 -0.5932  0.7404 -0.0580
 5779SOL    HW123300   6.508   3.685   5.939 -0.5964  0.4631  0.5637
 5779SOL    HW223301   6.397   3.604   6.002 -1.4297  0.9781 -0.2296
 5780SOL     OW23302   7.273   3.113   0.996 -0.2147 -0.1969 -0.6729
 5780SOL    HW123303   7.334   3.076   1.060 -0.9200 -0.0915  0.0814
 5780SOL    HW223304   7.329   3.150   0.928  0.5908  0.5355  0.3574
 5781SOL     OW23305  12.332   1.594   3.619 -0.1500  0.7021  0.0585
 5781SOL    HW123306  12.311   1.685   3.640 -1.5493  0.2255  0.7901
 5781SOL    HW223307  12.275   1.572   3.545 -0.8414 -0.0009  0.7869
 5782SOL     OW23308   6.785   8.979   3.705 -0.0890 -0.1845  0.0961
 5782SOL    HW123309   6.803   8.907   3.765 -0.2911 -0.0138  0.3644
 5782SOL    HW223310   6.690   8.978   3.695 -0.1018  0.1007  0.1750
 5783SOL     OW23311  11.086  11.891   7.110 -0.7938 -0.3211  0.7606
 5783SOL    HW123312  11.058  11.872   7.199 -1.0974 -0.5000  0.6284
 5783SOL    HW223313  11.099  11.985   7.108 -0.7708 -0.3199  0.9995
 5784SOL     OW23314   3.651   2.597   3.317  0.6195 -0.1230  0.2846
 5784SOL    HW123315   3.586   2.667   3.327  0.5832 -0.4022  2.3964
 5784SOL    HW223316   3.600   2.516   3.317  0.7755 -0.2334 -0.7540
 5785SOL     OW23317   7.268   6.702  12.126  0.4698 -0.4585 -0.3586
 5785SOL    HW123318   7.339   6.732  12.069  1.0267 -0.5920  0.2468
 5785SOL    HW223319   7.312   6.682  12.209 -0.2308 -0.8553 -0.0802
 5786SOL     OW23320   2.234   6.579   8.917 -0.6057 -0.3187  0.0227
 5786SOL    HW123321   2.192   6.494   8.931 -1.7226 -0.0088 -1.2902
 5786SOL    HW223322   2.195   6.635   8.983 -0.4570 -0.6142  0.3694
 5787SOL     OW23323   0.201   5.660   7.859 -0.0914 -0.5828  0.2520
 5787SOL    HW123324   0.234   5.750   7.850  2.5278 -1.5510 -0.8319
 5787SOL    HW223325   0.209   5.641   7.952  0.2476 -0.0002  0.3509
 5788SOL     OW23326   5.358  11.224   8.736 -0.0691  0.2501 -0.4526
 5788SOL    HW123327   5.405  11.143   8.755 -0.7276 -0.1973 -0.7292
 5788SOL    HW223328   5.423  11.293   8.752  0.6456 -0.3521 -0.7169
 5789SOL     OW23329  11.276   5.226   4.748  0.1609  0.0828 -0.0460
 5789SOL    HW123330  11.266   5.178   4.830  0.0124 -0.1768 -0.2133
 5789SOL    HW223331  11.228   5.308   4.762 -1.3049 -0.6651 -0.4360
 5790SOL     OW23332  12.060   3.504   0.737  0.4678  0.1983  0.1833
 5790SOL    HW123333  12.081   3.470   0.824  1.3765 -0.2792 -0.2181
 5790SOL    HW223334  12.122   3.462   0.678 -0.5781 -0.0032 -0.8118
 5791SOL     OW23335   4.068   2.446   9.781  0.0148  0.0101 -0.1398
 5791SOL    HW123336   4.155   2.481   9.802 -0.9891  2.1661  0.7202
 5791SOL    HW223337   4.032   2.420   9.866  0.0717 -1.6310 -0.5799
 5792SOL     OW23338   1.571   5.448   8.424  0.2775 -0.0231 -0.5580
 5792SOL    HW123339   1.601   5.386   8.358 -0.3969 -0.8007 -0.1510
 5792SOL    HW223340   1.480   5.466   8.401  0.8614  1.9844 -1.5350
 5793SOL     OW23341  12.213   7.663   9.745  0.2582  0.8121  0.3496
 5793SOL    HW123342  12.130   7.689   9.785  0.6238 -0.9066  2.4274
 5793SOL    HW223343  12.254   7.745   9.717 -2.2203  1.6785 -1.0067
 5794SOL     OW23344  10.920  12.041   5.248 -0.2929 -0.0671  0.5094
 5794SOL    HW123345  10.974  11.963   5.259  0.1501  0.1054 -0.3720
 5794SOL    HW223346  10.864  12.043   5.326 -1.6849 -2.3427 -0.3485
 5795SOL     OW23347   9.166   8.183  11.574 -0.6775 -0.1137 -0.4008
 5795SOL    HW123348   9.243   8.166  11.519 -0.6171 -0.5990 -0.1715
 5795SOL    HW223349   9.150   8.277  11.564 -0.7140 -0.2002 -1.3091
 5796SOL     OW23350   1.126   1.302   6.431 -0.0033 -0.4605 -0.1151
 5796SOL    HW123351   1.087   1.356   6.362  2.1627  2.2942  0.6326
 5796SOL    HW223352   1.058   1.239   6.454 -2.1686  0.9929 -2.1036
 5797SOL     OW23353   9.041  11.854   1.128  0.0664  0.1590 -0.2891
 5797SOL    HW123354   9.043  11.774   1.076 -2.5196  0.6516 -1.3139
 5797SOL    HW223355   8.994  11.830   1.208  0.1711  0.4126 -0.1491
 5798SOL     OW23356   0.674   7.021   3.490  0.4287  0.1119 -0.6010
 5798SOL    HW123357   0.708   7.095   3.439  1.7492  0.8171  1.1882
 5798SOL    HW223358   0.623   7.061   3.560 -0.6110 -0.8015 -0.8084
 5799SOL     OW23359   5.731   1.860   6.235  0.1171  0.5315 -0.0325
 5799SOL    HW123360   5.825   1.853   6.216  0.6923  0.3475  2.5782
 5799SOL    HW223361   5.715   1.793   6.302 -1.4049  1.9887  1.1374
 5800SOL     OW23362  11.909   5.442  10.996  0.0294  0.0556 -0.2562
 5800SOL    HW123363  11.835   5.470  11.051  0.5792 -0.4173  0.7658
 5800SOL    HW223364  11.983   5.436  11.057  0.8159  0.1118 -1.1802
 5801SOL     OW23365   0.313   4.518   7.756 -0.2658 -0.2855  0.2446
 5801SOL    HW123366   0.254   4.563   7.695 -0.8563 -0.5604  0.6039
 5801SOL    HW223367   0.318   4.429   7.723  0.1922 -0.1875  0.0449
 5802SOL     OW23368   0.108   5.218   8.651  0.2271 -0.2904  0.1546
 5802SOL    HW123369   0.072   5.152   8.592 -1.9822 -1.1662  2.3279
 5802SOL    HW223370   0.141   5.286   8.592  0.4146 -2.1931 -2.1124
 5803SOL     OW23371   4.299   2.168   8.444  0.2422  0.5545 -0.3552
 5803SOL    HW123372   4.383   2.168   8.399  1.2311  1.0340  1.4144
 5803SOL    HW223373   4.315   2.215   8.526 -1.5820  0.0655  0.3350
 5804SOL     OW23374  11.036   4.583  11.865  0.2582 -0.0151 -0.3658
 5804SOL    HW123375  11.046   4.677  11.882 -0.9385  0.1946 -0.6979
 5804SOL    HW223376  11.122   4.555  11.833  0.7368  0.8829  0.0934
 5805SOL     OW23377  11.020   1.472   6.517  0.0642 -0.1922  0.3165
 5805SOL    HW123378  11.082   1.545   6.526  0.5248 -0.5043 -0.2894
 5805SOL    HW223379  10.934   1.515   6.510  0.1532  0.2275  1.5512
 5806SOL     OW23380   6.861   5.929   3.133 -0.1243  0.5232 -0.2397
 5806SOL    HW123381   6.804   5.970   3.067 -1.2099  0.5505  0.6838
 5806SOL    HW223382   6.857   5.988   3.208  0.8822  0.3514 -0.0431
 5807SOL     OW23383   6.180   4.881   7.099  0.0313  0.2209  0.3831
 5807SOL    HW123384   6.094   4.916   7.079  1.3968  2.0934 -3.2007
 5807SOL    HW223385   6.178   4.791   7.067 -0.7043  0.0636  0.8440
 5808SOL     OW23386   2.321   2.566  10.613  0.3768 -0.7319  0.2818
 5808SOL    HW123387   2.252   2.528  10.668 -0.6048  0.0701 -0.3486
 5808SOL    HW223388   2.274   2.606  10.540  1.3837  1.1919  0.6108
 5809SOL     OW23389   2.519   8.036   3.356  0.0998  0.7678  0.9319
 5809SOL    HW123390   2.551   8.035   3.446  2.2741  0.6106  0.2259
 5809SOL    HW223391   2.599   8.040   3.302 -1.0313 -0.8493 -1.0289
 5810SOL     OW23392   4.378   4.421   3.564 -0.3594  0.2321  0.2782
 5810SOL    HW123393   4.396   4.468   3.646  2.1373 -0.6162  0.2879
 5810SOL    HW223394   4.315   4.353   3.588 -0.1294  0.3867  1.3571
 5811SOL     OW23395  12.270   5.998  10.574 -0.1724 -0.2010 -0.1447
 5811SOL    HW123396  12.194   5.987  10.517  1.6537 -2.2580 -2.3793
 5811SOL    HW223397  12.338   6.031  10.516  0.8056  1.3286  1.7473
 5812SOL     OW23398  11.328   1.473   7.368 -0.4377  0.3455 -0.5488
 5812SOL    HW123399  11.363   1.434   7.288 -1.3643 -2.7334  0.4152
 5812SOL    HW223400  11.391   1.450   7.436 -1.6978 -0.7433  0.2936
 5813SOL     OW23401   0.052   3.490   3.131  0.3575 -0.4113  0.0067
 5813SOL    HW123402   0.137   3.447   3.136  1.3127  1.3143 -0.5229
 5813SOL    HW223403   0.042   3.534   3.215  0.4519  0.1746 -0.2807
 5814SOL     OW23404   8.175   7.983   8.604 -0.0985  0.3230  0.1903
 5814SOL    HW123405   8.169   7.938   8.519 -0.0314 -0.8520  0.7874
 5814SOL    HW223406   8.169   8.076   8.582  2.4992  0.2336 -1.3883
 5815SOL     OW23407  10.847   3.701   4.453 -0.3317 -0.5705  0.3751
 5815SOL    HW123408  10.903   3.779   4.456 -1.2202  0.1728 -1.1743
 5815SOL    HW223409  10.859   3.660   4.539  1.6972  0.1668  0.5097
 5816SOL     OW23410   9.984  11.356   0.111  0.0853  0.6828  0.1436
 5816SOL    HW123411   9.909  11.334   0.167  1.1039 -0.1433  1.2097
 5816SOL    HW223412  10.039  11.412   0.165 -0.3586  2.4008 -1.0831
 5817SOL     OW23413   1.732   8.622   1.352 -0.5006  0.2671  0.1800
 5817SOL    HW123414   1.636   8.618   1.354 -0.5098  0.5066  1.4711
 5817SOL    HW223415   1.759   8.542   1.308 -1.3029  0.3613 -0.4904
 5818SOL     OW23416  11.738  11.214  11.858 -0.1192 -0.7182  0.4184
 5818SOL    HW123417  11.668  11.229  11.923  0.3761 -0.8727  0.9976
 5818SOL    HW223418  11.748  11.119  11.856 -1.6293 -0.9005 -1.5136
 5819SOL     OW23419   9.641   0.871   0.593 -0.1775 -0.4134 -0.0613
 5819SOL    HW123420   9.731   0.849   0.616 -1.0873 -2.4599  1.8205
 5819SOL    HW223421   9.647   0.903   0.503  2.6962  1.7463  0.7424
 5820SOL     OW23422   9.234   2.488   8.481 -0.1702  0.0923 -0.4414
 5820SOL    HW123423   9.205   2.496   8.572  0.9457  0.1271 -0.0760
 5820SOL    HW223424   9.319   2.532   8.478  0.8453 -1.7817 -0.9896
 5821SOL     OW23425  12.444   0.247  10.793  0.4319  0.3678 -0.1810
 5821SOL    HW123426  12.460   0.294  10.875  0.8611 -0.4784  0.2349
 5821SOL    HW223427  12.451   0.154  10.817 -0.4001  0.0856 -0.9820
 5822SOL     OW23428   2.695   6.762  11.650 -0.8654 -0.4267 -0.0062
 5822SOL    HW123429   2.693   6.768  11.554  0.8568  0.5087 -0.0104
 5822SOL    HW223430   2.682   6.852  11.680  0.3441 -0.4268  0.5765
 5823SOL     OW23431   3.474   8.350   7.582 -0.1388 -0.0804 -0.5388
 5823SOL    HW123432   3.484   8.439   7.614  1.9176 -0.9930  1.6216
 5823SOL    HW223433   3.555   8.332   7.535  0.2798 -1.3803  0.6192
 5824SOL     OW23434   6.124   8.950   2.179  0.1501  0.0240 -0.0600
 5824SOL    HW123435   6.080   9.015   2.125 -1.0401 -1.6873 -1.2697
 5824SOL    HW223436   6.205   8.930   2.131  0.3118  0.2882  0.0976
 5825SOL     OW23437  10.991   2.027   4.583  0.0461 -0.1639  0.0794
 5825SOL    HW123438  10.980   2.063   4.494  0.0968  1.1439  0.5785
 5825SOL    HW223439  10.947   1.942   4.579 -0.2644  0.0187 -1.1084
 5826SOL     OW23440  11.867   6.568   2.924 -0.2418 -0.1723 -0.0117
 5826SOL    HW123441  11.807   6.643   2.916 -1.5544 -0.9703  1.7033
 5826SOL    HW223442  11.943   6.593   2.871 -1.9091  1.0496 -1.9914
 5827SOL     OW23443   0.787   7.214  11.770 -0.0072 -0.7836  0.2300
 5827SOL    HW123444   0.866   7.169  11.741 -0.9003 -2.5917  0.5105
 5827SOL    HW223445   0.715   7.158  11.743 -1.1528  0.2433  1.0174
 5828SOL     OW23446   6.462   7.231   4.147 -0.6298 -0.7817 -0.6819
 5828SOL    HW123447   6.413   7.185   4.215  1.2090 -0.5502  0.9126
 5828SOL    HW223448   6.554   7.212   4.167  0.0578  1.0169 -1.8538
 5829SOL     OW23449   3.816   6.118   9.037  0.4731  0.0410 -0.0126
 5829SOL    HW123450   3.745   6.119   9.100  1.5341 -0.9490  1.2388
 5829SOL    HW223451   3.776   6.147   8.955 -1.0161  0.9755  1.0035
 5830SOL     OW23452  11.391   3.058   7.746 -0.6594  0.6939  0.0923
 5830SOL    HW123453  11.409   3.084   7.656  2.0548  1.1391  0.6976
 5830SOL    HW223454  11.477   3.051   7.788 -1.6636 -1.7619  2.0685
 5831SOL     OW23455   4.950   5.623   8.237  0.1490 -0.3468  0.0800
 5831SOL    HW123456   4.998   5.667   8.307 -1.3415 -0.1129  0.9999
 5831SOL    HW223457   4.921   5.540   8.276 -0.6951 -0.2143 -0.2328
 5832SOL     OW23458   2.627  12.386   0.818  0.0546  0.0400 -0.1638
 5832SOL    HW123459   2.641  12.431   0.735 -1.5695  0.9197 -0.0148
 5832SOL    HW223460   2.676  12.438   0.882  0.4516 -0.0368 -0.3994
 5833SOL     OW23461   6.776   8.408  11.351 -0.2211  0.0916  0.3251
 5833SOL    HW123462   6.766   8.486  11.295 -0.2542  0.6246  1.0594
 5833SOL    HW223463   6.858   8.422  11.397 -1.0039  0.4702  1.6408
 5834SOL     OW23464  12.292  11.137   9.506 -0.2717  0.4773 -0.0785
 5834SOL    HW123465  12.385  11.124   9.489 -0.6680 -1.8112 -0.7975
 5834SOL    HW223466  12.288  11.174   9.594  1.2918 -0.0462  0.2328
 5835SOL     OW23467  12.352   3.074   7.747  0.2583 -0.2457 -0.0210
 5835SOL    HW123468  12.347   3.095   7.841  0.5205  2.1746 -0.4802
 5835SOL    HW223469  12.296   2.997   7.737 -1.6298  0.7892  1.7786
 5836SOL     OW23470   1.169   8.316   9.664 -0.5253  0.0961  0.0161
 5836SOL    HW123471   1.152   8.222   9.653 -1.5094  0.3521 -0.7994
 5836SOL    HW223472   1.252   8.331   9.621 -0.8347 -0.2346 -0.7069
 5837SOL     OW23473   5.749   9.144   9.180  0.4979 -0.4734  0.2209
 5837SOL    HW123474   5.670   9.187   9.214 -0.4347 -0.1422 -2.1590
 5837SOL    HW223475   5.820   9.180   9.233 -0.8778 -0.6239  2.3044
 5838SOL     OW23476   7.415   5.282  11.258 -0.4061  0.1089 -0.4377
 5838SOL    HW123477   7.388   5.318  11.343 -0.9220  2.0304 -1.3622
 5838SOL    HW223478   7.334   5.277  11.207 -0.4652 -2.9112 -0.2570
 5839SOL     OW23479   2.407   2.582   0.949  0.2673 -0.2879 -0.5859
 5839SOL    HW123480   2.356   2.514   0.904 -0.7521  1.1358 -1.6620
 5839SOL    HW223481   2.376   2.579   1.040 -0.1371 -0.9162 -0.7379
 5840SOL     OW23482   4.719   9.320   0.194  0.4546 -0.2588 -0.0806
 5840SOL    HW123483   4.684   9.394   0.244 -1.2644 -1.2106  0.2266
 5840SOL    HW223484   4.740   9.357   0.108 -0.2316  0.6259  0.1158
 5841SOL     OW23485   0.246  12.197   8.135  0.1317 -0.7429  0.1302
 5841SOL    HW123486   0.230  12.279   8.182  2.6648  0.7862 -1.4257
 5841SOL    HW223487   0.249  12.223   8.043  0.1420 -2.7734 -0.4788
 5842SOL     OW23488   8.226   2.618   4.394  1.1207  0.4264  0.3151
 5842SOL    HW123489   8.234   2.598   4.488  0.5483  0.4931  0.3817
 5842SOL    HW223490   8.313   2.650   4.369  1.6258 -0.7067  0.5537
 5843SOL     OW23491   6.575   3.107  10.281 -0.4792  0.4554 -0.2037
 5843SOL    HW123492   6.522   3.073  10.209 -0.1323  1.8275 -1.1385
 5843SOL    HW223493   6.511   3.143  10.343 -0.8153 -1.2586  0.5141
 5844SOL     OW23494   9.222   7.944   4.090 -0.7803 -0.1155  0.1754
 5844SOL    HW123495   9.247   7.886   4.019 -1.1414 -0.3758  0.2576
 5844SOL    HW223496   9.229   7.890   4.169  1.5324  0.6985  0.6098
 5845SOL     OW23497   1.618   3.494   1.423  0.2806 -1.0415  0.0924
 5845SOL    HW123498   1.714   3.494   1.427  0.5008  3.0266 -0.9839
 5845SOL    HW223499   1.591   3.542   1.501 -0.5151  1.2290 -1.4546
 5846SOL     OW23500   4.243   7.397   1.860 -0.2101 -0.6254  0.0609
 5846SOL    HW123501   4.307   7.463   1.832 -1.0671 -0.3732 -1.4269
 5846SOL    HW223502   4.161   7.424   1.820 -1.3700 -0.7516  2.2437
 5847SOL     OW23503  10.102  11.620   7.852 -0.7888  0.1201 -0.5247
 5847SOL    HW123504  10.033  11.653   7.795 -0.5753 -0.6488 -1.2398
 5847SOL    HW223505  10.114  11.529   7.826 -0.5237 -0.1803  0.5942
 5848SOL     OW23506   8.383   1.629  10.038  0.3782  0.0596  0.4831
 5848SOL    HW123507   8.396   1.683   9.960 -1.8205  1.6694  1.1389
 5848SOL    HW223508   8.328   1.682  10.096  0.6163 -1.7142  2.4815
 5849SOL     OW23509  10.914  10.515  10.509  0.0201  0.3590 -0.5008
 5849SOL    HW123510  10.926  10.525  10.415  0.3996  1.5805 -0.3300
 5849SOL    HW223511  10.997  10.480  10.541 -0.3412 -0.7190 -0.6995
 5850SOL     OW23512   4.828  11.315   0.800 -0.3105  0.1837 -0.3324
 5850SOL    HW123513   4.796  11.239   0.752 -0.3797 -0.7883  1.1729
 5850SOL    HW223514   4.903  11.283   0.849  0.8574  1.5909 -1.1438
 5851SOL     OW23515   8.838   7.201   0.377  0.0841  0.1696  0.2902
 5851SOL    HW123516   8.788   7.265   0.326 -2.4615 -1.5224  0.4673
 5851SOL    HW223517   8.919   7.188   0.328 -0.3604  1.7914 -0.9486
 5852SOL     OW23518   9.405   9.879   6.248 -0.2943  0.3194 -0.0558
 5852SOL    HW123519   9.500   9.875   6.237 -0.3689 -0.2898 -0.5216
 5852SOL    HW223520   9.380   9.965   6.213  0.4934  2.1414  3.4725
 5853SOL     OW23521   7.461   1.437   8.812 -0.2982 -0.0004 -0.1113
 5853SOL    HW123522   7.499   1.430   8.724 -0.2590  0.6460 -0.1544
 5853SOL    HW223523   7.369   1.413   8.800  0.0458 -1.4239 -0.0337
 5854SOL     OW23524   8.328   0.051   3.795  0.3607 -0.7368  0.1048
 5854SOL    HW123525   8.262   0.071   3.728 -0.0900  1.7560  1.1459
 5854SOL    HW223526   8.285  -0.013   3.852 -1.0014  0.3776  0.4133
 5855SOL     OW23527  10.994   5.686   4.374  0.1150  0.2556  0.1768
 5855SOL    HW123528  10.902   5.710   4.383  0.0663  0.9567 -1.6955
 5855SOL    HW223529  11.042   5.758   4.416 -0.1747  0.9515 -0.6492
 5856SOL     OW23530   9.368  10.698   0.017 -0.4480  0.5146 -0.2882
 5856SOL    HW123531   9.324  10.654   0.089  0.5517  0.6073  0.4090
 5856SOL    HW223532   9.310  10.687  -0.058 -0.9220 -0.6552  0.2340
 5857SOL     OW23533   0.919   5.125  11.737 -0.0281 -0.2114 -0.1777
 5857SOL    HW123534   0.914   5.221  11.729  1.5270 -0.1721 -1.0061
 5857SOL    HW223535   0.829   5.096  11.724 -0.4470  1.1077 -0.4486
 5858SOL     OW23536   8.379   8.847   3.170 -0.7072 -0.1054 -0.3056
 5858SOL    HW123537   8.466   8.887   3.161 -0.6218 -0.0674  0.5810
 5858SOL    HW223538   8.318   8.918   3.151 -0.5481 -0.3130 -1.6408
 5859SOL     OW23539   3.813   4.214   9.912  0.6950  0.1163 -0.1595
 5859SOL    HW123540   3.849   4.125   9.912 -0.2790 -0.2974  0.5376
 5859SOL    HW223541   3.832   4.247  10.000 -1.4102 -0.4825  0.5977
 5860SOL     OW23542   0.363   2.814   5.001 -0.3453 -0.0941 -0.0913
 5860SOL    HW123543   0.423   2.870   4.951 -0.3427 -1.5469 -1.7994
 5860SOL    HW223544   0.280   2.823   4.956 -1.2578  1.1537  1.6991
 5861SOL     OW23545   1.576   4.778   2.895  0.3402 -0.2693 -0.0391
 5861SOL    HW123546   1.555   4.719   2.823 -0.0923  1.5305 -1.4694
 5861SOL    HW223547   1.505   4.765   2.959  0.8762 -2.0803  0.2598
 5862SOL     OW23548   7.404   1.277   2.068  0.4281 -0.9093  0.0053
 5862SOL    HW123549   7.475   1.213   2.065  0.9211 -0.3377 -1.0602
 5862SOL    HW223550   7.428   1.343   2.003 -0.5058 -0.0946  0.4564
 5863SOL     OW23551   4.552   1.600  12.331  0.6112  0.6072  0.0452
 5863SOL    HW123552   4.483   1.635  12.274  0.4499 -0.3328 -0.3670
 5863SOL    HW223553   4.627   1.586  12.272  0.9092  0.9310  0.3435
 5864SOL     OW23554  10.011   7.394   8.795  0.0507  0.1049 -0.1927
 5864SOL    HW123555   9.945   7.360   8.735 -0.5033  0.7817  0.0136
 5864SOL    HW223556  10.043   7.474   8.753  0.7009 -0.1959 -0.2663
 5865SOL     OW23557   8.283   6.227   2.310 -0.1379 -0.3880  0.2351
 5865SOL    HW123558   8.323   6.259   2.391 -0.1064 -0.4643  0.2497
 5865SOL    HW223559   8.351   6.172   2.270  0.4718  0.9566 -0.6638
 5866SOL     OW23560   1.092   4.533   6.659 -0.3900 -0.4170  0.5595
 5866SOL    HW123561   1.019   4.538   6.597 -1.7260  2.5615  2.1939
 5866SOL    HW223562   1.092   4.442   6.688 -0.7997 -1.4908 -2.4248
 5867SOL     OW23563   2.239  10.143   1.825  0.0308 -0.1562  0.5633
 5867SOL    HW123564   2.201  10.220   1.783  1.4118  1.9481  2.9254
 5867SOL    HW223565   2.167  10.080   1.829 -1.1509  0.9622 -1.4031
 5868SOL     OW23566  11.335   9.650   0.140  0.2340  0.1076 -0.4871
 5868SOL    HW123567  11.337   9.568   0.091 -0.2318  0.2983 -0.8330
 5868SOL    HW223568  11.428   9.673   0.151  0.3871 -0.7469  0.1147
 5869SOL     OW23569   7.310   1.955   5.661 -0.0087 -0.0379 -0.0351
 5869SOL    HW123570   7.361   2.003   5.596  0.9211 -0.1659  0.5670
 5869SOL    HW223571   7.369   1.886   5.691 -1.2483 -1.4506 -0.7461
 5870SOL     OW23572  10.986   3.087   6.713  0.3971 -0.0506 -0.0369
 5870SOL    HW123573  11.005   3.122   6.626  2.1847 -1.1153 -0.1290
 5870SOL    HW223574  11.034   3.144   6.773 -1.4982  1.1873  0.3787
 5871SOL     OW23575   5.640   5.885  11.986  0.2052 -0.0643  0.6345
 5871SOL    HW123576   5.676   5.937  11.914 -1.6172  0.4943  0.0725
 5871SOL    HW223577   5.709   5.821  12.005  0.3182 -1.0623 -2.4566
 5872SOL     OW23578  12.414   0.754   9.776 -0.2234  0.1468  0.6396
 5872SOL    HW123579  12.431   0.696   9.850  1.4091 -0.3883 -0.0797
 5872SOL    HW223580  12.434   0.842   9.808 -0.6713  0.0582  1.1597
 5873SOL     OW23581   1.585  10.332   9.753 -0.2141 -0.2415  0.0773
 5873SOL    HW123582   1.591  10.297   9.842  0.4021  1.9371  0.9393
 5873SOL    HW223583   1.653  10.399   9.748 -0.9028  0.3963 -1.7087
 5874SOL     OW23584   3.635  12.477   0.834  0.1372  0.6072  0.2570
 5874SOL    HW123585   3.576  12.439   0.899 -0.4264 -1.2331 -1.2356
 5874SOL    HW223586   3.675  12.401   0.791  0.4088  1.7393 -1.5952
 5875SOL     OW23587   7.847   8.697   2.241  0.5791  0.4211  0.3208
 5875SOL    HW123588   7.858   8.739   2.155  0.8260 -0.4923 -0.1060
 5875SOL    HW223589   7.777   8.747   2.283 -0.2146  0.2857 -0.8026
 5876SOL     OW23590   8.302   8.782   3.657 -0.4341  0.0540 -0.3410
 5876SOL    HW123591   8.239   8.785   3.729  0.5957 -0.9833  0.6511
 5876SOL    HW223592   8.380   8.742   3.695 -0.6384 -2.8443 -2.5865
 5877SOL     OW23593   5.793   3.189   1.384  0.1358 -0.2206 -0.0159
 5877SOL    HW123594   5.824   3.279   1.385  0.5655 -0.3725  0.3892
 5877SOL    HW223595   5.757   3.174   1.471 -0.9159 -0.1093 -0.4139
 5878SOL     OW23596   9.785   0.893   5.697  0.1945  0.2354 -0.7878
 5878SOL    HW123597   9.764   0.946   5.773  0.0033 -2.4756  1.1877
 5878SOL    HW223598   9.850   0.944   5.649  1.2000  1.5587  1.8330
 5879SOL     OW23599   9.412   6.784   4.311 -0.3220 -0.6581 -0.9470
 5879SOL    HW123600   9.424   6.877   4.334 -3.3658  0.0226 -1.6438
 5879SOL    HW223601   9.451   6.776   4.224  0.2401 -0.1381 -0.7558
 5880SOL     OW23602   9.946   1.851   0.510 -0.3007  0.1056  0.4991
 5880SOL    HW123603   9.983   1.787   0.572 -0.8999 -1.8084 -1.0010
 5880SOL    HW223604   9.945   1.933   0.559  3.5753 -0.2072  1.4649
 5881SOL     OW23605   6.430  12.122   9.947  0.2570 -0.2283  0.3375
 5881SOL    HW123606   6.477  12.039   9.957  1.4387  0.2473 -0.9647
 5881SOL    HW223607   6.353  12.100   9.895  0.8848 -0.4233 -0.5275
 5882SOL     OW23608   8.685  12.009   4.529  0.5197  0.2977 -0.3037
 5882SOL    HW123609   8.673  12.001   4.434 -1.3936  1.4746 -0.2264
 5882SOL    HW223610   8.715  12.098   4.542  0.1302  0.3569  0.2246
 5883SOL     OW23611  11.626   1.093   3.950 -0.1898  0.0762  0.0471
 5883SOL    HW123612  11.605   1.000   3.959 -0.0898  0.1974  1.8749
 5883SOL    HW223613  11.584   1.135   4.025  0.2844  1.4313 -0.4082
 5884SOL     OW23614   9.805   2.334   1.121 -0.1848 -0.7027 -0.2454
 5884SOL    HW123615   9.870   2.405   1.128 -2.5946  1.6612 -0.1601
 5884SOL    HW223616   9.820   2.298   1.033  0.8049  0.2365 -0.4942
 5885SOL     OW23617   0.568   3.221   4.318  0.7464 -0.4181  0.2552
 5885SOL    HW123618   0.662   3.234   4.310  0.7069  0.3323  0.9505
 5885SOL    HW223619   0.541   3.278   4.390  0.0242 -1.8851  1.1933
 5886SOL     OW23620   8.145   9.155   0.771  0.3321  0.0898  0.7638
 5886SOL    HW123621   8.070   9.154   0.831 -1.4178  0.8028 -1.2818
 5886SOL    HW223622   8.133   9.077   0.717 -0.4130  1.5222 -1.2247
 5887SOL     OW23623   6.522   2.242   7.857 -0.2304 -0.0169  0.1183
 5887SOL    HW123624   6.569   2.207   7.782  0.6346  0.7774  0.2773
 5887SOL    HW223625   6.432   2.209   7.847  0.1350 -0.7979 -0.6698
 5888SOL     OW23626   2.847   8.129  11.351 -0.0239  0.0146  0.3688
 5888SOL    HW123627   2.808   8.046  11.376 -2.1799  0.8780  0.1095
 5888SOL    HW223628   2.932   8.106  11.315 -0.1709 -1.9683  1.1669
 5889SOL     OW23629  11.621   6.677  11.023 -0.0946 -0.1491 -0.9905
 5889SOL    HW123630  11.688   6.646  10.961  0.0961 -0.9517 -0.3999
 5889SOL    HW223631  11.545   6.696  10.968  0.3703  0.0402 -1.5841
 5890SOL     OW23632   4.836   4.022   4.711 -0.1931  0.3055  0.3735
 5890SOL    HW123633   4.767   3.965   4.746 -1.1398  1.4818  0.4909
 5890SOL    HW223634   4.916   3.971   4.721 -0.7766 -0.3835  1.9635
 5891SOL     OW23635   1.504   4.363   7.414 -0.0988  0.0925  0.3800
 5891SOL    HW123636   1.462   4.345   7.330 -0.6429  0.2444  0.6156
 5891SOL    HW223637   1.563   4.289   7.427  0.4105  0.3522 -0.3989
 5892SOL     OW23638   0.067   5.912  10.294 -0.1418 -0.4279 -0.4027
 5892SOL    HW123639   0.156   5.908  10.327 -0.6917 -0.4698  1.1361
 5892SOL    HW223640   0.075   5.951  10.207  1.4781 -1.4819 -0.7576
 5893SOL     OW23641   3.630   5.822   7.615  0.5103  0.0408 -0.6199
 5893SOL    HW123642   3.665   5.744   7.573  0.3367  0.1561 -0.9804
 5893SOL    HW223643   3.692   5.891   7.592 -0.4319  0.4470 -2.0499
 5894SOL     OW23644   4.201   8.970  11.880  0.1639  0.4231 -0.1931
 5894SOL    HW123645   4.182   8.876  11.879  0.6101  0.3201  0.4118
 5894SOL    HW223646   4.222   8.989  11.972 -0.1771  1.1681 -0.2630
 5895SOL     OW23647   2.265   7.133   1.436 -0.6619  0.1238  0.5474
 5895SOL    HW123648   2.191   7.109   1.491 -0.4069  1.7033  1.6401
 5895SOL    HW223649   2.295   7.217   1.470  0.1555  0.6785 -1.3741
 5896SOL     OW23650   4.331  11.288   5.572  0.3098 -0.0169 -0.5006
 5896SOL    HW123651   4.239  11.263   5.568 -0.4874  2.6601 -0.6046
 5896SOL    HW223652   4.356  11.305   5.481  0.3953  0.8926 -0.3160
 5897SOL     OW23653   3.296   6.723   6.116  0.1840  0.0045 -0.3079
 5897SOL    HW123654   3.207   6.706   6.145  0.2233  0.1572 -0.0879
 5897SOL    HW223655   3.307   6.670   6.038 -0.3806  0.6197 -0.8150
 5898SOL     OW23656   9.032   1.551   1.237  0.0875  0.7521 -0.0219
 5898SOL    HW123657   8.956   1.595   1.200  0.0610 -0.4713 -1.5018
 5898SOL    HW223658   9.004   1.527   1.326 -1.0684  0.7799 -0.3607
 5899SOL     OW23659  10.059   3.732   7.009 -0.0893  0.0997  0.2275
 5899SOL    HW123660  10.020   3.647   7.031  1.1843 -0.5906 -0.1194
 5899SOL    HW223661   9.986   3.794   7.016 -0.7108 -0.7660  2.0376
 5900SOL     OW23662   4.005   4.138  11.632  0.4224  0.1330 -0.7329
 5900SOL    HW123663   3.994   4.133  11.727 -1.5102 -2.6218 -0.9804
 5900SOL    HW223664   4.059   4.062  11.610  0.1803  0.2869 -1.9222
 5901SOL     OW23665   0.506  10.295  10.739 -0.4776  0.2159 -0.1660
 5901SOL    HW123666   0.566  10.344  10.795 -2.5044  2.6841  0.0504
 5901SOL    HW223667   0.439  10.261  10.798  0.0373 -1.5090 -0.5307
 5902SOL     OW23668   3.118   5.647  11.850  0.3295  0.3793  0.0510
 5902SOL    HW123669   3.169   5.580  11.896 -0.5422 -0.2076  0.1726
 5902SOL    HW223670   3.127   5.725  11.904  1.8097  0.5440 -0.3707
 5903SOL     OW23671   0.828   7.036   6.878 -0.2447 -0.1437 -0.0187
 5903SOL    HW123672   0.804   7.046   6.785 -0.8173 -0.8606  0.0468
 5903SOL    HW223673   0.841   6.942   6.890  0.1416 -0.0217  0.5592
 5904SOL     OW23674   7.888   4.196  10.526  0.5505  0.8246 -0.0490
 5904SOL    HW123675   7.933   4.122  10.486 -0.1229  0.4329 -0.0975
 5904SOL    HW223676   7.798   4.167  10.537  0.6880  0.9226  1.7228
 5905SOL     OW23677   8.787   0.054   3.681 -0.4313  0.3946 -0.3019
 5905SOL    HW123678   8.828  -0.028   3.709 -0.9462  0.0247 -0.6154
 5905SOL    HW223679   8.706   0.027   3.638 -1.2076  1.1365  0.6525
 5906SOL     OW23680   2.502   8.031   0.448  0.5401 -0.0820  0.1403
 5906SOL    HW123681   2.507   8.115   0.402  0.3002 -0.2573 -0.2098
 5906SOL    HW223682   2.530   7.967   0.383  0.6361 -0.2868  0.3807
 5907SOL     OW23683   2.560   6.361   2.591 -0.1567 -0.1427 -0.6018
 5907SOL    HW123684   2.528   6.288   2.538 -1.2618 -0.1146  0.0076
 5907SOL    HW223685   2.541   6.439   2.539 -1.4402 -0.0976 -0.0949
 5908SOL     OW23686   7.317   8.574   4.467 -0.2620  0.0930 -0.5094
 5908SOL    HW123687   7.392   8.585   4.408 -0.3131  2.3734 -0.2182
 5908SOL    HW223688   7.240   8.591   4.412 -0.4064  0.5611 -0.1633
 5909SOL     OW23689   2.096   7.357   2.694  0.1584 -0.3323 -0.2920
 5909SOL    HW123690   2.162   7.289   2.708  1.8112  1.1525 -0.5555
 5909SOL    HW223691   2.124   7.400   2.613  0.3549  1.9594  0.9330
 5910SOL     OW23692   6.529   7.410  10.127 -0.2819 -0.4920  0.0138
 5910SOL    HW123693   6.438   7.437  10.132 -0.1595  0.0413 -0.5431
 5910SOL    HW223694   6.534   7.331  10.182 -1.4549 -1.5430 -1.3257
 5911SOL     OW23695   5.710   3.616   0.509  0.5678 -0.6066  0.0922
 5911SOL    HW123696   5.667   3.580   0.432 -1.0308  0.4684  0.4455
 5911SOL    HW223697   5.750   3.540   0.552 -3.4136 -2.2556  1.2898
 5912SOL     OW23698   1.882   4.583   9.244  0.8838  0.1830  0.3132
 5912SOL    HW123699   1.940   4.550   9.175  0.8143 -0.1546  0.4144
 5912SOL    HW223700   1.911   4.539   9.323 -0.1240 -0.7350  0.1938
 5913SOL     OW23701   5.784  11.862  10.362  0.1323  0.0183 -0.6617
 5913SOL    HW123702   5.873  11.855  10.326  0.5120 -0.8243  0.3769
 5913SOL    HW223703   5.796  11.909  10.445  0.0615 -2.4754  0.8602
 5914SOL     OW23704   1.580   2.961   0.755 -0.6640 -0.4756  0.2572
 5914SOL    HW123705   1.595   3.029   0.821 -1.0611  0.4048 -0.5356
 5914SOL    HW223706   1.653   2.900   0.767  2.5394  2.4983 -2.0200
 5915SOL     OW23707   8.477   4.787   6.659 -0.2745 -0.2486 -0.5871
 5915SOL    HW123708   8.424   4.815   6.734  2.0937  0.7365  0.8185
 5915SOL    HW223709   8.430   4.710   6.624 -2.9000  0.8976  0.1444
 5916SOL     OW23710   9.334   7.096   9.172 -0.4094 -0.1130  0.2042
 5916SOL    HW123711   9.245   7.126   9.190 -1.0819 -0.8539 -1.6846
 5916SOL    HW223712   9.375   7.170   9.125  1.0726  1.4829  3.6152
 5917SOL     OW23713   4.437   0.945   4.147 -0.4808  0.2484  0.4459
 5917SOL    HW123714   4.414   0.880   4.213 -0.3466  0.4176  0.6600
 5917SOL    HW223715   4.496   0.899   4.087 -2.8883 -0.7937 -1.2544
 5918SOL     OW23716   4.606   0.072   1.422  0.7079  0.2536  0.4194
 5918SOL    HW123717   4.630   0.122   1.343 -1.1788  1.0002  0.2559
 5918SOL    HW223718   4.626  -0.019   1.400  1.4294  0.6019 -0.4206
 5919SOL     OW23719  10.661   3.718  10.724 -0.5620  0.1605  0.1320
 5919SOL    HW123720  10.597   3.705  10.654  0.1004  0.0508 -0.4660
 5919SOL    HW223721  10.608   3.736  10.802 -1.3402 -0.6489 -0.1918
 5920SOL     OW23722   9.145   3.866   8.632 -0.2891 -0.0903 -0.1323
 5920SOL    HW123723   9.167   3.944   8.683 -0.2545 -1.1320  1.5412
 5920SOL    HW223724   9.049   3.871   8.623 -0.2170  0.4958 -0.6712
 5921SOL     OW23725   3.100  11.825   2.323 -0.4765  0.7368 -0.2346
 5921SOL    HW123726   3.149  11.817   2.405  0.6744 -1.9209 -1.0797
 5921SOL    HW223727   3.167  11.822   2.254 -1.6207 -1.7713 -1.3890
 5922SOL     OW23728  11.465  11.617   2.416  0.0240 -0.3584 -0.0865
 5922SOL    HW123729  11.459  11.571   2.499 -0.8859 -2.2546 -1.1227
 5922SOL    HW223730  11.374  11.622   2.386  0.4731 -1.2174 -1.7026
 5923SOL     OW23731   2.077   7.249   2.093 -0.1687 -0.1633 -0.3919
 5923SOL    HW123732   2.044   7.207   2.172 -0.7707 -1.1665 -1.1545
 5923SOL    HW223733   2.135   7.318   2.125  2.3452 -2.7032  0.9384
 5924SOL     OW23734   1.994   7.561  11.772  0.3641  0.3474 -0.1018
 5924SOL    HW123735   1.962   7.635  11.721 -0.6842  1.5755  2.1833
 5924SOL    HW223736   2.063   7.598  11.827  3.0438 -1.4077 -2.0006
 5925SOL     OW23737   5.397  11.336   2.716 -0.2599 -0.7052  0.2826
 5925SOL    HW123738   5.346  11.261   2.684 -0.7187  0.1681 -1.1503
 5925SOL    HW223739   5.456  11.357   2.644 -0.8384  0.9231  0.2463
 5926SOL     OW23740  11.869  10.179   9.328 -0.3643 -0.8856  0.6267
 5926SOL    HW123741  11.955  10.178   9.286 -0.4415 -3.9690  0.3173
 5926SOL    HW223742  11.807  10.188   9.256 -0.3637 -0.2983  0.6939
 5927SOL     OW23743   6.951   2.232   6.119  0.6324 -0.1825 -0.1832
 5927SOL    HW123744   7.033   2.198   6.155  0.8223  0.5952  0.1408
 5927SOL    HW223745   6.882   2.194   6.174  0.8886  0.5609  0.6535
 5928SOL     OW23746   2.672  10.888   5.458  0.5787  0.0186  0.0462
 5928SOL    HW123747   2.660  10.963   5.517 -0.9702 -0.9150  0.9936
 5928SOL    HW223748   2.756  10.904   5.415  0.3153  2.2512  0.2679
 5929SOL     OW23749  10.650  10.367   3.889 -0.1807  0.2116  0.2094
 5929SOL    HW123750  10.652  10.356   3.984 -1.0409  1.0931  0.3423
 5929SOL    HW223751  10.571  10.321   3.861 -1.4050  2.1737  0.2623
 5930SOL     OW23752   1.333  10.623   4.670  0.4621  0.0839  0.4503
 5930SOL    HW123753   1.284  10.550   4.632 -1.5024  2.4549 -1.9729
 5930SOL    HW223754   1.267  10.677   4.714  1.4671  1.4991  0.3136
 5931SOL     OW23755   2.574   6.960   9.615 -0.0667 -0.2313  0.2801
 5931SOL    HW123756   2.586   7.046   9.574  0.0027 -0.2931  0.1730
 5931SOL    HW223757   2.635   6.902   9.569 -0.1876 -0.3621  0.2840
 5932SOL     OW23758   8.430   6.567   5.941 -0.1338 -0.8068 -0.5885
 5932SOL    HW123759   8.408   6.484   5.898 -0.1326 -0.5927 -1.0068
 5932SOL    HW223760   8.494   6.543   6.008  1.0123 -0.9500 -1.6833
 5933SOL     OW23761   2.463   7.215  11.725 -0.1516 -0.1621 -0.4033
 5933SOL    HW123762   2.435   7.287  11.668  0.0750 -1.0377 -1.6659
 5933SOL    HW223763   2.426   7.137  11.685  1.7406 -1.0381 -0.5459
 5934SOL     OW23764   2.877   7.831   3.689  0.1154  0.1766  0.1062
 5934SOL    HW123765   2.881   7.873   3.775  0.4222 -0.0036  0.1811
 5934SOL    HW223766   2.959   7.856   3.646 -0.1478  0.4697 -0.2290
 5935SOL     OW23767   7.772   4.720   8.273 -0.4264 -0.5968 -0.0423
 5935SOL    HW123768   7.824   4.800   8.281  2.4509 -2.3251 -0.2398
 5935SOL    HW223769   7.775   4.699   8.180  2.0961 -2.8116  0.4117
 5936SOL     OW23770   9.134   0.167  11.087  0.3916 -0.3291  0.0524
 5936SOL    HW123771   9.166   0.081  11.059  0.7597 -0.3630  0.5614
 5936SOL    HW223772   9.069   0.149  11.154 -0.7826 -0.2603 -1.0355
 5937SOL     OW23773  10.117   1.470   5.592  0.4736  0.2079 -0.4174
 5937SOL    HW123774  10.097   1.470   5.499 -0.0306  1.2267 -0.3282
 5937SOL    HW223775  10.039   1.507   5.634  0.7179 -0.1712  0.3987
 5938SOL     OW23776   8.623   4.944   8.347  0.0341 -0.0324  0.2792
 5938SOL    HW123777   8.698   4.902   8.389  0.5397 -0.1449 -0.7009
 5938SOL    HW223778   8.662   5.001   8.280 -0.7698 -0.7077 -0.7973
 5939SOL     OW23779   1.188   1.753   2.423  0.0292  0.4500 -0.4774
 5939SOL    HW123780   1.127   1.767   2.496 -0.7271 -2.1290 -0.4993
 5939SOL    HW223781   1.176   1.829   2.367 -1.6342  1.0487  0.6049
 5940SOL     OW23782   5.590   9.737   5.185 -0.0401 -0.1858  0.5464
 5940SOL    HW123783   5.645   9.660   5.168 -0.7143 -0.7825  0.9812
 5940SOL    HW223784   5.505   9.700   5.212 -0.3974  0.7146  0.6892
 5941SOL     OW23785  12.075   7.588   3.506  0.0409 -0.7270  0.3911
 5941SOL    HW123786  12.113   7.667   3.467  1.6640 -0.9170  1.4935
 5941SOL    HW223787  12.135   7.518   3.481 -1.0277 -1.5248 -0.0169
 5942SOL     OW23788  10.749  11.124  12.349  0.5883  0.0536 -0.3674
 5942SOL    HW123789  10.717  11.082  12.270 -2.0497 -0.9756  1.1239
 5942SOL    HW223790  10.767  11.052  12.410  2.1016  0.8458  0.1905
 5943SOL     OW23791   6.816  12.332   4.218 -0.2897 -0.1125 -0.7886
 5943SOL    HW123792   6.748  12.378   4.267  1.1704 -0.5717  1.8500
 5943SOL    HW223793   6.793  12.345   4.126 -2.7129  1.5354 -0.0280
 5944SOL     OW23794   0.110   8.428   2.022  0.0757 -0.2011  0.5691
 5944SOL    HW123795   0.078   8.518   2.022  0.5281  0.0015 -0.8986
 5944SOL    HW223796   0.202   8.435   1.994 -0.1985 -1.1754 -0.7369
 5945SOL     OW23797   9.635   4.445   2.569  0.2706  0.1203  0.0023
 5945SOL    HW123798   9.649   4.470   2.660  0.1294  0.6113 -0.1046
 5945SOL    HW223799   9.545   4.471   2.550  0.2659 -0.0736 -0.2445
 5946SOL     OW23800  10.922   8.596   1.568 -0.2867 -0.0219  0.6036
 5946SOL    HW123801  10.932   8.630   1.479  0.1530  0.5347  0.8584
 5946SOL    HW223802  10.865   8.520   1.558  0.3141 -0.3787 -0.2467
 5947SOL     OW23803   7.940   8.248   9.424  0.2178 -0.5707 -0.1938
 5947SOL    HW123804   7.877   8.214   9.361  1.4135 -0.5552 -1.4654
 5947SOL    HW223805   7.990   8.171   9.452 -0.8814 -0.7204  1.4670
 5948SOL     OW23806   5.432   8.766  11.128  0.2010  0.3362  0.3938
 5948SOL    HW123807   5.527   8.751  11.132 -0.0819 -1.5643  1.7732
 5948SOL    HW223808   5.395   8.678  11.117 -1.4104  1.0706 -0.2885
 5949SOL     OW23809  11.662   9.575  12.361 -0.0492  0.6944 -0.4441
 5949SOL    HW123810  11.621   9.579  12.447  1.8920  0.0455  0.5532
 5949SOL    HW223811  11.659   9.483  12.337  0.3893  0.7138 -0.5835
 5950SOL     OW23812  10.647   4.210  10.788 -0.2082  0.1360 -0.7816
 5950SOL    HW123813  10.593   4.177  10.860  1.4778 -0.1997  0.3735
 5950SOL    HW223814  10.608   4.295  10.767 -1.3572 -0.2210 -0.1996
 5951SOL     OW23815   7.733   7.714   6.894  0.1933 -0.4533 -0.5584
 5951SOL    HW123816   7.696   7.688   6.979 -0.5012  0.7161 -0.4859
 5951SOL    HW223817   7.682   7.790   6.868  2.0251  0.7328 -0.8431
 5952SOL     OW23818   7.344   7.224   7.610  0.0763 -0.4295 -0.0251
 5952SOL    HW123819   7.401   7.153   7.581  0.8674  0.8344 -1.7334
 5952SOL    HW223820   7.291   7.245   7.533  0.6354  1.5283  0.0747
 5953SOL     OW23821   4.280   3.915  12.088  0.6007  0.2216  0.1964
 5953SOL    HW123822   4.344   3.864  12.140 -1.8304 -0.2211  3.0707
 5953SOL    HW223823   4.307   4.006  12.100 -0.3509  0.2333  3.2477
 5954SOL     OW23824   6.315   1.444   8.369 -0.4864 -0.1532  0.4973
 5954SOL    HW123825   6.245   1.494   8.411  1.6013  2.5065  1.0414
 5954SOL    HW223826   6.376   1.422   8.439 -0.3076 -1.7474 -0.0931
 5955SOL     OW23827   4.155  12.119  11.057 -0.4634  0.3708  0.3389
 5955SOL    HW123828   4.152  12.106  11.152 -0.4840 -2.5556  0.0259
 5955SOL    HW223829   4.072  12.161  11.037 -1.6870 -1.3880  1.3841
 5956SOL     OW23830   3.408   4.997   2.766  0.2829 -0.2770 -0.6119
 5956SOL    HW123831   3.416   5.048   2.685  0.7130 -1.0176 -1.0493
 5956SOL    HW223832   3.474   4.929   2.757  0.2577 -0.4325  0.3249
 5957SOL     OW23833  10.856   6.943   6.397 -0.3242  0.2631  0.2029
 5957SOL    HW123834  10.774   6.984   6.426  0.3289  1.0352  1.0393
 5957SOL    HW223835  10.895   7.008   6.338 -0.5537 -0.3275 -0.6104
 5958SOL     OW23836   6.035  10.327   4.255 -0.0316 -0.0375  0.1562
 5958SOL    HW123837   6.020  10.408   4.206  0.1737  0.3155  0.6631
 5958SOL    HW223838   5.953  10.279   4.249 -0.9427  1.2501  1.7721
 5959SOL     OW23839   2.166   9.955   3.305 -0.3220 -0.1172 -0.1900
 5959SOL    HW123840   2.225   9.974   3.378 -2.4173 -0.4787  1.7112
 5959SOL    HW223841   2.186   9.865   3.282  1.2106  0.3816 -0.9597
 5960SOL     OW23842  12.426   6.412   6.822  0.2209 -0.2994 -0.2319
 5960SOL    HW123843  12.330   6.418   6.817  0.1430 -0.9907  0.2065
 5960SOL    HW223844  12.446   6.421   6.915  0.5837 -0.1967 -0.3180
 5961SOL     OW23845   3.397   9.107   2.806 -0.1620  0.5254 -0.3932
 5961SOL    HW123846   3.402   9.107   2.902 -0.2349 -0.5707 -0.3745
 5961SOL    HW223847   3.315   9.153   2.787  0.5184  1.9291  0.0087
 5962SOL     OW23848  11.477   6.523   6.845 -0.4637 -0.7825  0.1547
 5962SOL    HW123849  11.571   6.530   6.859 -0.7780  1.2279  1.5635
 5962SOL    HW223850  11.449   6.453   6.904 -0.3713  1.3161  2.8794
 5963SOL     OW23851   1.731   4.644   9.544  0.5291 -0.3280 -0.3423
 5963SOL    HW123852   1.806   4.597   9.506  0.4921 -1.4130  0.8354
 5963SOL    HW223853   1.660   4.631   9.482  0.7611 -1.1353 -0.4491
 5964SOL     OW23854   9.219   3.561   2.044 -0.0066  0.2733 -0.1345
 5964SOL    HW123855   9.293   3.619   2.022 -0.9806  1.5533 -0.1864
 5964SOL    HW223856   9.168   3.556   1.963 -1.0202  1.0506  0.4181
 5965SOL     OW23857   2.253  10.644   0.613  0.3036 -0.0991 -0.0994
 5965SOL    HW123858   2.320  10.594   0.660 -0.2368 -0.7836 -0.0432
 5965SOL    HW223859   2.298  10.724   0.585  0.7271  0.1933  1.3162
 5966SOL     OW23860   3.779   2.353   9.783  0.4390 -0.1566 -0.0427
 5966SOL    HW123861   3.708   2.417   9.778  0.3858 -0.3151 -1.9459
 5966SOL    HW223862   3.744   2.282   9.837 -0.9969 -0.3620 -1.1784
 5967SOL     OW23863   5.526   8.523   4.561 -0.3195  0.5699  0.0307
 5967SOL    HW123864   5.508   8.430   4.556 -0.6848  0.6911 -1.0665
 5967SOL    HW223865   5.602   8.536   4.504  0.6410  0.7372  1.2927
 5968SOL     OW23866   5.173   6.508   8.051 -0.4622  0.1643 -0.2107
 5968SOL    HW123867   5.140   6.418   8.051 -0.4769  0.1658  0.5284
 5968SOL    HW223868   5.106   6.558   8.004 -1.0182 -0.0140  0.3745
 5969SOL     OW23869   4.012   3.728   7.713  0.1379  0.0530  0.2542
 5969SOL    HW123870   3.953   3.695   7.781  0.5076 -1.5304 -0.1391
 5969SOL    HW223871   4.031   3.651   7.659 -0.5930  1.3702 -1.9948
 5970SOL     OW23872   5.796   2.445   7.495 -0.4785 -0.2213  0.5250
 5970SOL    HW123873   5.847   2.524   7.477  0.9476 -0.8907  1.4402
 5970SOL    HW223874   5.771   2.412   7.409 -0.7518  1.0014  0.1220
 5971SOL     OW23875   9.117   2.789   9.582  0.1254 -0.3282  0.2734
 5971SOL    HW123876   9.166   2.871   9.572 -1.3352  0.6104  0.5083
 5971SOL    HW223877   9.146   2.754   9.666  0.7169 -0.0261  0.2003
 5972SOL     OW23878  10.070   5.620   6.441  0.1393  0.2116  0.4533
 5972SOL    HW123879  10.066   5.709   6.406 -1.6236  0.2155  0.5754
 5972SOL    HW223880   9.982   5.604   6.474 -0.1213 -2.2028 -1.1494
 5973SOL     OW23881   3.773   4.643   5.416 -0.0518 -0.3891  0.4974
 5973SOL    HW123882   3.714   4.714   5.441 -0.4672 -0.9222  1.0457
 5973SOL    HW223883   3.859   4.685   5.408 -0.8572  0.9794 -2.9417
 5974SOL     OW23884   7.003   5.237   5.342  0.4704  0.4570  0.1339
 5974SOL    HW123885   7.039   5.274   5.423  2.8011  0.4444 -0.8207
 5974SOL    HW223886   6.964   5.312   5.297  1.4762  0.9803  0.1056
 5975SOL     OW23887  12.041   8.124  12.252  0.0478 -0.1796 -0.5045
 5975SOL    HW123888  12.084   8.160  12.174 -0.1079 -1.4075 -1.1812
 5975SOL    HW223889  11.947   8.126  12.231  0.0175 -0.6758 -0.4306
 5976SOL     OW23890   9.501   2.008   6.961 -0.1021 -0.3317  0.3399
 5976SOL    HW123891   9.440   2.021   6.888  1.2299  1.2677 -0.5641
 5976SOL    HW223892   9.552   1.931   6.936  1.3841  1.0921 -1.2473
 5977SOL     OW23893  12.117   7.032   1.088 -0.0770  1.2235 -0.2165
 5977SOL    HW123894  12.027   7.051   1.060 -0.6776  0.5438  1.1207
 5977SOL    HW223895  12.130   7.087   1.165 -0.4602 -0.7898  1.3870
 5978SOL     OW23896   8.884   1.812   2.654  0.1644 -0.2913  0.1274
 5978SOL    HW123897   8.849   1.818   2.566 -0.1269 -0.6009  0.2222
 5978SOL    HW223898   8.836   1.741   2.695  0.3011 -0.1545  0.5348
 5979SOL     OW23899  10.198   9.890   9.767 -0.3693  0.0876 -0.0713
 5979SOL    HW123900  10.268   9.873   9.704  0.0209  0.8580  0.1354
 5979SOL    HW223901  10.159   9.972   9.738 -1.4127 -0.4946 -0.3687
 5980SOL     OW23902   6.104   7.237   8.393  0.0155 -0.0933 -0.1209
 5980SOL    HW123903   6.153   7.155   8.390 -0.4534 -0.3808  0.0062
 5980SOL    HW223904   6.171   7.305   8.397  0.4057 -0.4739 -0.1348
 5981SOL     OW23905   0.636   2.462  12.187  0.1979 -0.0519  0.8140
 5981SOL    HW123906   0.603   2.543  12.148  0.8161 -0.1764  0.0159
 5981SOL    HW223907   0.728   2.479  12.205  0.0544 -0.1975  1.6883
 5982SOL     OW23908   1.670   8.425   0.447 -0.1219 -0.1258  0.0143
 5982SOL    HW123909   1.694   8.389   0.362 -2.6101  1.0755 -1.2833
 5982SOL    HW223910   1.705   8.514   0.446  2.9200 -1.1155  1.8053
 5983SOL     OW23911   4.960   1.998   1.325 -0.1034 -0.1177  0.2584
 5983SOL    HW123912   4.979   1.925   1.384  0.1950  0.5586  1.0109
 5983SOL    HW223913   4.953   1.957   1.238  0.1276 -1.0290  0.6567
 5984SOL     OW23914   8.527   5.194   7.762 -0.5765  0.0435 -0.5202
 5984SOL    HW123915   8.588   5.194   7.836 -0.4342 -1.2797 -0.6113
 5984SOL    HW223916   8.571   5.143   7.694 -2.3239 -2.2843 -0.0590
 5985SOL     OW23917   7.705   8.388   0.525 -0.2220 -0.3566 -0.7578
 5985SOL    HW123918   7.718   8.434   0.442 -0.9419 -2.6252 -2.2253
 5985SOL    HW223919   7.636   8.323   0.506 -2.7594  1.0987  2.4923
 5986SOL     OW23920  10.104   7.229   5.046 -0.7596  0.2973 -0.0953
 5986SOL    HW123921  10.174   7.190   5.099 -0.2452  2.5032  0.9768
 5986SOL    HW223922  10.095   7.170   4.972  1.3255 -0.7746  0.4121
 5987SOL     OW23923   3.524   1.392  10.828  0.0813  0.2507 -0.5719
 5987SOL    HW123924   3.606   1.347  10.845 -0.5860 -0.8040 -0.0258
 5987SOL    HW223925   3.515   1.393  10.733 -0.5000 -1.9473 -0.5822
 5988SOL     OW23926   3.641  11.559  10.040 -0.0717 -0.1979 -0.1121
 5988SOL    HW123927   3.736  11.557  10.049 -0.1411 -0.9974  0.5374
 5988SOL    HW223928   3.626  11.557   9.945  0.5607  0.6979 -0.2410
 5989SOL     OW23929   7.102   1.715   9.145 -0.3142  0.0810  0.2900
 5989SOL    HW123930   7.086   1.631   9.101  0.2016 -0.4195  1.0177
 5989SOL    HW223931   7.113   1.778   9.075  0.5233 -0.6973 -0.2962
 5990SOL     OW23932   8.601  12.070  11.881  0.4003 -0.2078  0.0405
 5990SOL    HW123933   8.613  12.106  11.793  2.7989 -1.3288 -0.1690
 5990SOL    HW223934   8.588  11.976  11.867  0.9220 -0.4088  0.8784
 5991SOL     OW23935  12.104   3.629   7.023  0.0282 -0.0908 -0.2790
 5991SOL    HW123936  12.122   3.548   7.071 -0.3745  0.8031  1.4757
 5991SOL    HW223937  12.151   3.696   7.073 -1.9242  1.1611 -0.0297
 5992SOL     OW23938   1.041   7.390   0.597 -0.2298 -0.0331  0.0811
 5992SOL    HW123939   1.027   7.401   0.691 -1.1183 -0.0603 -0.0352
 5992SOL    HW223940   0.952   7.382   0.560  0.1264 -1.6820 -0.5471
 5993SOL     OW23941   1.147   2.710   9.107 -0.1960 -0.0618 -0.7839
 5993SOL    HW123942   1.054   2.686   9.111 -0.2814  0.4322  1.3739
 5993SOL    HW223943   1.177   2.675   9.023 -1.7708 -2.2829 -0.5158
 5994SOL     OW23944   2.361   8.998   8.125 -0.2690 -0.1957 -0.0659
 5994SOL    HW123945   2.315   9.078   8.100 -2.0308 -1.0567  0.3025
 5994SOL    HW223946   2.329   8.979   8.213  0.8617 -0.8090  0.2312
 5995SOL     OW23947   0.468   1.581  10.498  0.2150  0.1452 -0.0738
 5995SOL    HW123948   0.530   1.526  10.449 -1.5473 -2.0372 -0.0181
 5995SOL    HW223949   0.507   1.590  10.585  0.2204 -1.7505  0.1679
 5996SOL     OW23950   0.973  10.357   8.183  0.2282  1.1151 -0.2898
 5996SOL    HW123951   0.931  10.425   8.237 -0.7703  0.8882 -0.7535
 5996SOL    HW223952   1.062  10.351   8.217 -0.7076  0.0570  2.2486
 5997SOL     OW23953   2.983  10.211   8.619  0.2264 -0.1453  0.1517
 5997SOL    HW123954   3.011  10.135   8.670 -0.6763  0.7120  2.0393
 5997SOL    HW223955   2.891  10.194   8.599  0.2856  0.0160 -0.2587
 5998SOL     OW23956   7.248   4.449   4.045 -0.1630  0.9275  0.2080
 5998SOL    HW123957   7.249   4.461   4.140  1.1237  2.2530  0.0549
 5998SOL    HW223958   7.155   4.440   4.022 -0.4625  0.1917  1.6124
 5999SOL     OW23959   9.032  12.038   8.356  0.1911  0.4987  0.2455
 5999SOL    HW123960   9.105  12.101   8.363 -0.1071  1.1075 -1.5595
 5999SOL    HW223961   9.071  11.954   8.380  0.7006  1.2534  2.3369
 6000SOL     OW23962  10.635   9.048   4.970  0.0063 -0.1602 -0.3282
 6000SOL    HW123963  10.710   9.096   5.003 -0.7721  2.2007 -1.7415
 6000SOL    HW223964  10.577   9.037   5.046  0.4823  0.6116  0.1494
 6001SOL     OW23965   3.311  12.067   7.279  0.4275  0.0757  0.3835
 6001SOL    HW123966   3.246  12.118   7.328  2.6611  3.7300 -0.0914
 6001SOL    HW223967   3.380  12.050   7.342 -0.8565 -4.0474  0.9684
 6002SOL     OW23968   4.005   8.892  12.207 -0.0876 -0.5574  0.3110
 6002SOL    HW123969   4.086   8.911  12.160 -1.5180  0.3383 -2.0056
 6002SOL    HW223970   3.997   8.963  12.271  1.7838 -1.6668  1.8918
 6003SOL     OW23971   4.662   0.593   7.200  0.2923  0.1361  0.0686
 6003SOL    HW123972   4.670   0.581   7.106 -0.6732 -2.0951  0.2237
 6003SOL    HW223973   4.683   0.686   7.214  2.1527  0.1087 -2.0911
 6004SOL     OW23974   0.710   2.445   9.454 -0.2074 -0.4490  0.4339
 6004SOL    HW123975   0.803   2.423   9.442 -0.0725  0.7593 -1.0292
 6004SOL    HW223976   0.701   2.464   9.547  2.0061  3.3979  0.0873
 6005SOL     OW23977   6.318   6.634   5.081  0.7186  0.0340 -0.5220
 6005SOL    HW123978   6.274   6.587   5.010 -0.5683  1.2117 -0.5340
 6005SOL    HW223979   6.354   6.713   5.040 -1.1386  1.3813  0.3120
 6006SOL     OW23980   9.347   1.910   3.918 -0.1836 -0.1956 -0.0865
 6006SOL    HW123981   9.413   1.850   3.955 -1.0305 -0.6120  0.7781
 6006SOL    HW223982   9.265   1.884   3.959 -0.4660  2.0677  0.9233
 6007SOL     OW23983   9.824   2.924   3.163 -0.0781 -0.1085 -0.1064
 6007SOL    HW123984   9.814   2.832   3.187 -0.5077  0.2460  1.1532
 6007SOL    HW223985   9.838   2.969   3.247 -1.2325  1.1420 -0.5434
 6008SOL     OW23986   6.682  12.267   3.707  0.3951  0.1406 -0.2306
 6008SOL    HW123987   6.693  12.238   3.616 -3.1415 -1.1002 -0.4054
 6008SOL    HW223988   6.677  12.362   3.702 -0.3512  0.0572 -1.4718
 6009SOL     OW23989   2.008   3.267   1.120  0.1773  0.4301 -0.4193
 6009SOL    HW123990   1.921   3.228   1.112  0.8589 -1.0743 -0.9208
 6009SOL    HW223991   2.044   3.262   1.031  1.1295  0.1202 -0.0343
 6010SOL     OW23992   0.526   2.053   2.608  0.4354  0.2495 -0.4465
 6010SOL    HW123993   0.550   1.986   2.544  0.5940 -0.1260  0.0058
 6010SOL    HW223994   0.607   2.073   2.655 -0.0807 -0.9690  1.0332
 6011SOL     OW23995   9.421   8.847   0.343 -0.1894  0.3395 -0.4103
 6011SOL    HW123996   9.355   8.834   0.411  0.5566  0.3871  0.3499
 6011SOL    HW223997   9.496   8.794   0.371 -0.0890 -0.1446 -1.5351
 6012SOL     OW23998   4.412   0.826   2.509  0.2352  0.3896  0.4475
 6012SOL    HW123999   4.329   0.817   2.555  1.1588  0.3104  2.1943
 6012SOL    HW224000   4.396   0.894   2.444 -1.5229 -0.5030 -0.0953
 6013SOL     OW24001   8.586   3.472   9.515  0.3707  0.4143 -0.6112
 6013SOL    HW124002   8.655   3.444   9.574 -0.1678 -1.5203 -0.8411
 6013SOL    HW224003   8.593   3.414   9.440 -1.9041 -0.3083 -0.3402
 6014SOL     OW24004   9.279   0.968  11.522  0.1770 -0.4193 -0.2002
 6014SOL    HW124005   9.248   1.026  11.453  0.0877 -0.2904 -0.0539
 6014SOL    HW224006   9.249   1.009  11.603  0.7989 -0.2428 -0.0495
 6015SOL     OW24007   4.191   1.533   4.042 -0.0378 -0.0288 -0.2881
 6015SOL    HW124008   4.192   1.566   4.132 -0.1232 -0.2650 -0.1989
 6015SOL    HW224009   4.120   1.580   3.999 -0.3940 -0.3567 -0.0615
 6016SOL     OW24010   1.795   4.152   1.308 -0.7361 -0.9394 -0.3187
 6016SOL    HW124011   1.881   4.158   1.266 -1.3615 -0.0293 -1.5422
 6016SOL    HW224012   1.765   4.242   1.315 -1.3070 -1.1975  0.7466
 6017SOL     OW24013   4.450   3.735   3.253 -0.1694 -0.1327  0.4579
 6017SOL    HW124014   4.419   3.645   3.258  0.4668 -0.3858 -0.0850
 6017SOL    HW224015   4.375   3.787   3.283 -1.1794 -0.7246 -0.9466
 6018SOL     OW24016   7.759   5.807   4.951  0.4239  0.5767  0.1082
 6018SOL    HW124017   7.822   5.747   4.990  0.3267  0.5384  0.2058
 6018SOL    HW224018   7.787   5.894   4.982 -0.0674  0.4836  0.8363
 6019SOL     OW24019   5.338   3.870   4.205  0.1824  0.6130  0.6067
 6019SOL    HW124020   5.350   3.784   4.244 -2.0231  0.6363  1.4579
 6019SOL    HW224021   5.376   3.931   4.269  0.8334  0.3470  0.4773
 6020SOL     OW24022  10.941   2.823   7.472  0.7994 -0.2657  0.3486
 6020SOL    HW124023  10.896   2.888   7.527  0.8719  0.6456 -0.6510
 6020SOL    HW224024  10.959   2.869   7.390  2.6027 -0.9480  0.3185
 6021SOL     OW24025  11.133   4.337   1.306 -0.0107  0.6076  0.1354
 6021SOL    HW124026  11.085   4.416   1.327  0.9505  1.0768  0.6025
 6021SOL    HW224027  11.223   4.365   1.295  0.4335 -0.4979  0.7826
 6022SOL     OW24028  11.005   6.373  10.538 -0.5545 -0.2171  0.1984
 6022SOL    HW124029  10.999   6.461  10.575 -0.6856 -0.1434  0.0066
 6022SOL    HW224030  11.098   6.361  10.518 -0.1698 -0.9369  2.1754
 6023SOL     OW24031   4.469   2.278   7.170 -0.0434  0.2931  0.0225
 6023SOL    HW124032   4.536   2.278   7.101 -0.0790 -1.7825 -0.0993
 6023SOL    HW224033   4.517   2.259   7.250 -0.2649  0.5086  0.2063
 6024SOL     OW24034   0.800  10.536   9.747 -0.0717  0.0847  0.0426
 6024SOL    HW124035   0.864  10.475   9.709  1.6137  2.5895 -1.4030
 6024SOL    HW224036   0.736  10.548   9.677  0.0133  0.5470  0.0462
 6025SOL     OW24037   4.377   5.025   5.537 -0.4317 -0.2980  0.0106
 6025SOL    HW124038   4.290   5.003   5.504  0.2090 -1.2704 -1.1047
 6025SOL    HW224039   4.404   5.101   5.485 -1.3263  1.2428  1.6497
 6026SOL     OW24040   9.358  10.139   8.647 -0.4275  0.2055 -0.4196
 6026SOL    HW124041   9.334  10.132   8.554  0.0804  0.3362 -0.5662
 6026SOL    HW224042   9.382  10.049   8.672 -1.2210  0.0419 -0.2249
 6027SOL     OW24043   0.635   7.609  12.081  0.3250  0.5211 -0.1561
 6027SOL    HW124044   0.664   7.631  12.169  0.7817  1.6039 -0.5643
 6027SOL    HW224045   0.670   7.521  12.065 -0.4995 -0.0564  1.0477
 6028SOL     OW24046   9.874   7.919   7.645  0.0493 -0.2631  0.3657
 6028SOL    HW124047   9.855   8.013   7.634 -0.5873 -0.3031  1.0224
 6028SOL    HW224048   9.946   7.917   7.707  1.3545 -0.1575 -1.0974
 6029SOL     OW24049   3.549   3.647   4.140  0.2651  0.1672 -0.0607
 6029SOL    HW124050   3.641   3.674   4.145  0.1791  0.4451  0.0577
 6029SOL    HW224051   3.546   3.564   4.189  0.6176 -0.3001 -0.8201
 6030SOL     OW24052  10.102  11.013   9.646  0.5419 -0.4250  0.0108
 6030SOL    HW124053  10.184  10.985   9.687  0.5276 -0.1417  0.2368
 6030SOL    HW224054  10.045  10.936   9.652  0.6906 -0.5264  0.1251
 6031SOL     OW24055   1.906  10.464   3.445  0.4309 -0.5593 -0.0413
 6031SOL    HW124056   1.840  10.518   3.487  0.9275 -0.2176  0.3141
 6031SOL    HW224057   1.884  10.374   3.470 -1.7216 -0.8121 -2.4336
 6032SOL     OW24058   0.298   5.402   5.369  0.7378  0.2250 -0.0303
 6032SOL    HW124059   0.317   5.355   5.450  1.7614  0.4847 -0.0986
 6032SOL    HW224060   0.241   5.474   5.395 -0.3607 -0.6949  0.1694
 6033SOL     OW24061   8.552   1.387   9.622  0.2409  0.5314 -1.0857
 6033SOL    HW124062   8.546   1.481   9.604 -0.0269  0.6298 -0.4928
 6033SOL    HW224063   8.618   1.355   9.560 -1.9403  0.5058 -3.5324
 6034SOL     OW24064   1.677   4.634  12.160  0.7391  0.1163  0.0218
 6034SOL    HW124065   1.737   4.703  12.189 -0.1710  1.9357 -2.0350
 6034SOL    HW224066   1.666   4.577  12.236  1.7257  2.1301  1.7857
 6035SOL     OW24067   8.188   9.813   9.624 -0.6101 -0.4346  0.2800
 6035SOL    HW124068   8.119   9.859   9.671 -0.6016  0.7089 -0.7761
 6035SOL    HW224069   8.238   9.883   9.581  0.2683 -1.3478 -0.2188
 6036SOL     OW24070   2.562   9.719   5.732 -0.6566 -0.0068  0.7104
 6036SOL    HW124071   2.498   9.743   5.799 -1.4849  0.1555 -0.1243
 6036SOL    HW224072   2.592   9.631   5.758 -0.0740  0.5363  1.9404
 6037SOL     OW24073   0.939   1.973   4.913  0.1779  0.0512 -0.3910
 6037SOL    HW124074   0.904   2.050   4.958 -0.3841  0.0652 -0.8506
 6037SOL    HW224075   0.995   2.009   4.844 -2.0080  0.1572 -2.2349
 6038SOL     OW24076   6.787   1.973  11.305  0.3290 -0.4077  0.4086
 6038SOL    HW124077   6.716   2.036  11.316  0.9221  0.0461  1.9286
 6038SOL    HW224078   6.816   1.954  11.394  2.7204  0.1222 -0.1936
 6039SOL     OW24079   6.051   3.847   2.548 -0.9235 -0.1165  0.0781
 6039SOL    HW124080   6.099   3.805   2.619 -1.9802  0.6595  1.2961
 6039SOL    HW224081   6.062   3.788   2.473 -0.2702 -1.2486  1.0351
 6040SOL     OW24082  12.240  11.811   3.763  0.1235  0.3558  0.3410
 6040SOL    HW124083  12.287  11.741   3.808  1.3367  1.4704  0.8504
 6040SOL    HW224084  12.295  11.833   3.688  0.8894  2.2233  1.3844
 6041SOL     OW24085   4.787   4.994  12.356  0.4531 -0.2909  0.2422
 6041SOL    HW124086   4.869   4.984  12.307  1.2526  1.4065  1.1520
 6041SOL    HW224087   4.724   5.024  12.291  1.0492  0.2203 -0.1235
 6042SOL     OW24088   7.208   4.994   2.103  0.1212  0.0285 -0.0824
 6042SOL    HW124089   7.238   5.085   2.112  1.5061 -0.3176 -0.7692
 6042SOL    HW224090   7.142   4.998   2.034  1.4861  0.3051 -1.4491
 6043SOL     OW24091   5.898   2.066   0.035  0.2090 -0.3878  0.4747
 6043SOL    HW124092   5.805   2.048   0.020  0.4951 -0.9260 -0.8118
 6043SOL    HW224093   5.902   2.098   0.125 -1.1437 -0.8964  0.7409
 6044SOL     OW24094   4.973  12.222   7.101 -0.2291  0.2263  0.1908
 6044SOL    HW124095   5.065  12.198   7.085  0.0771  0.6772  1.1781
 6044SOL    HW224096   4.955  12.188   7.189 -0.3213  2.0216  0.9051
 6045SOL     OW24097   0.106   8.028   8.874 -0.7436  0.1550 -0.0350
 6045SOL    HW124098   0.122   7.954   8.815 -1.3334  0.5024 -0.6405
 6045SOL    HW224099   0.057   7.990   8.947  0.5381 -0.4019  0.5614
 6046SOL     OW24100   0.519   5.142   5.272 -0.4044 -0.0984  0.1704
 6046SOL    HW124101   0.533   5.059   5.316 -0.6794 -0.3155 -0.1491
 6046SOL    HW224102   0.426   5.143   5.251 -0.7862  1.0596  1.7222
 6047SOL     OW24103   2.362   3.686   3.123 -0.0149 -0.2912 -0.1503
 6047SOL    HW124104   2.391   3.615   3.180  2.2476  2.4431  2.3950
 6047SOL    HW224105   2.289   3.726   3.170  0.1220  0.3578 -0.4759
 6048SOL     OW24106   3.158  10.291  10.543 -0.2688 -0.5206  0.0787
 6048SOL    HW124107   3.193  10.227  10.605  2.3961 -0.4953 -1.2433
 6048SOL    HW224108   3.104  10.239  10.483 -1.8269 -0.7344  1.5807
 6049SOL     OW24109  12.390   2.623   7.073 -0.0072 -0.3639 -0.1981
 6049SOL    HW124110  12.436   2.705   7.087  0.2324 -0.5151 -0.0958
 6049SOL    HW224111  12.305   2.636   7.115  0.0318 -0.1711 -0.1774
 6050SOL     OW24112  10.426   9.947   3.720  0.6529  0.5679 -0.1285
 6050SOL    HW124113  10.496   9.889   3.750  1.0085  0.5720 -0.9119
 6050SOL    HW224114  10.469  10.004   3.656  0.3118  1.7116  0.6323
 6051SOL     OW24115   0.974   5.771   4.967 -0.2964 -0.0666 -0.5866
 6051SOL    HW124116   0.906   5.713   4.934  1.1837 -0.9032 -2.3103
 6051SOL    HW224117   1.005   5.729   5.047 -0.1078 -1.0119 -1.1405
 6052SOL     OW24118   2.092   8.677   5.070  0.0479  0.4313 -0.0664
 6052SOL    HW124119   2.186   8.691   5.084 -0.1347  0.7377  0.9012
 6052SOL    HW224120   2.049   8.731   5.136 -0.8012 -0.2185 -0.0650
 6053SOL     OW24121   1.611  10.700  10.645 -0.1340 -0.2556 -0.3565
 6053SOL    HW124122   1.676  10.768  10.629  0.6769 -0.8441  0.3575
 6053SOL    HW224123   1.620  10.641  10.571  0.5274 -0.6212  0.0103
 6054SOL     OW24124  11.988   4.267   6.793  0.0556  0.2418 -0.2590
 6054SOL    HW124125  11.933   4.344   6.804 -0.6737 -0.1042 -1.3661
 6054SOL    HW224126  12.078   4.302   6.793 -0.0992  0.7816  1.7435
 6055SOL     OW24127   5.545   3.931   6.327 -0.8641 -0.8559  0.6066
 6055SOL    HW124128   5.469   3.977   6.362 -1.2955 -0.8425 -0.3218
 6055SOL    HW224129   5.550   3.958   6.235  0.8070 -0.1476  0.8669
 6056SOL     OW24130  10.265   9.251   3.803  0.9221 -0.0245 -0.3412
 6056SOL    HW124131  10.214   9.277   3.727  2.3749  0.7826 -1.0809
 6056SOL    HW224132  10.255   9.156   3.807 -3.0558  0.2462  1.3701
 6057SOL     OW24133  10.160   5.932   0.859 -0.3743  0.2323 -0.6237
 6057SOL    HW124134  10.204   5.874   0.921  0.9663  1.5879 -0.2311
 6057SOL    HW224135  10.208   5.921   0.777 -0.6248  0.1978 -0.7665
 6058SOL     OW24136   2.100   4.628   3.988 -0.0349 -0.2798  0.0018
 6058SOL    HW124137   2.047   4.697   3.949  2.0361  1.0271 -0.6772
 6058SOL    HW224138   2.190   4.661   3.983  0.9441 -2.6548  0.4668
 6059SOL     OW24139   6.666  10.630   1.520  0.4405  0.0293 -0.1079
 6059SOL    HW124140   6.669  10.541   1.555  0.0457 -0.7393 -1.9040
 6059SOL    HW224141   6.680  10.620   1.426 -3.9294  1.2911 -1.1714
 6060SOL     OW24142   6.847   5.247   0.125 -0.4368  0.1094  0.3263
 6060SOL    HW124143   6.937   5.230   0.099 -0.9224 -2.1388 -0.0951
 6060SOL    HW224144   6.804   5.276   0.044 -0.3058  0.2492  0.3071
 6061SOL     OW24145   4.576   7.359   1.758 -0.2122 -0.1691 -0.2149
 6061SOL    HW124146   4.554   7.451   1.746 -1.4730 -0.4765 -0.3763
 6061SOL    HW224147   4.541   7.337   1.844 -0.8756 -0.7634 -0.6285
 6062SOL     OW24148   1.600   6.572   8.934  0.2939 -0.4633  0.3901
 6062SOL    HW124149   1.607   6.565   8.838  0.4862 -1.5993  0.4759
 6062SOL    HW224150   1.531   6.637   8.948  0.2373 -0.3106 -0.5187
 6063SOL     OW24151  12.468  12.210   9.995 -0.2370 -0.1041  0.1484
 6063SOL    HW124152  12.536  12.212   9.928  0.0862  1.5570  0.4774
 6063SOL    HW224153  12.442  12.301  10.004 -1.1287 -0.4692  1.4286
 6064SOL     OW24154   9.116   2.867  10.614  0.1516  0.0745 -0.2750
 6064SOL    HW124155   9.116   2.772  10.616  2.6944  0.0385  1.6740
 6064SOL    HW224156   9.073   2.893  10.695 -1.1752  0.6521 -1.1256
 6065SOL     OW24157  12.267  10.184   3.317 -0.4881 -0.0388 -0.1629
 6065SOL    HW124158  12.213  10.120   3.272  2.0985 -1.1373 -1.9262
 6065SOL    HW224159  12.303  10.137   3.392  2.9243 -1.5639 -2.4682
 6066SOL     OW24160   2.469   5.153  12.072  0.1025 -0.2263 -0.0802
 6066SOL    HW124161   2.496   5.130  11.983 -0.0044 -1.0320  0.0801
 6066SOL    HW224162   2.514   5.089  12.127 -1.5894 -1.2209  0.2373
 6067SOL     OW24163   6.558   3.866   3.470  0.6447 -0.1835 -0.3687
 6067SOL    HW124164   6.498   3.796   3.447  0.4021 -0.1339  0.0930
 6067SOL    HW224165   6.531   3.940   3.416 -0.0749  0.0056  0.2250
 6068SOL     OW24166   6.815   1.900  11.042  0.2208  0.0420  0.2142
 6068SOL    HW124167   6.794   1.963  10.974 -2.8341 -0.4491  0.5787
 6068SOL    HW224168   6.811   1.951  11.124  0.3841 -0.0830  0.3008
 6069SOL     OW24169  10.957   2.555  12.155  0.0535  0.1033  0.0757
 6069SOL    HW124170  11.006   2.482  12.117  0.2652  0.6845 -0.7917
 6069SOL    HW224171  10.998   2.571  12.239 -0.5236 -1.3184  0.6720
 6070SOL     OW24172  10.099   9.967   6.094 -0.6937 -0.1385  0.0775
 6070SOL    HW124173  10.063   9.880   6.078 -2.3303  0.3799  0.6730
 6070SOL    HW224174  10.114  10.003   6.006  0.0348 -1.0148 -0.1683
 6071SOL     OW24175   4.569   9.159   5.472  0.2881  0.0464  0.8260
 6071SOL    HW124176   4.662   9.167   5.451  0.1480  1.5825  0.6663
 6071SOL    HW224177   4.566   9.159   5.568  0.4496 -0.1189  0.8324
 6072SOL     OW24178   2.662   2.529   1.061 -0.0645  0.1217 -0.1004
 6072SOL    HW124179   2.699   2.441   1.059  1.5578  0.7669 -1.9601
 6072SOL    HW224180   2.597   2.529   0.990  2.9607  1.4762 -3.2003
 6073SOL     OW24181   8.596   8.071  11.878 -0.7636  0.3680 -0.1790
 6073SOL    HW124182   8.681   8.059  11.922 -1.2978 -0.1040  0.7523
 6073SOL    HW224183   8.604   8.155  11.832  0.9428 -0.6093 -1.8322
 6074SOL     OW24184   9.680   4.099   3.001 -0.3518  0.2619 -0.1037
 6074SOL    HW124185   9.717   4.102   3.089  3.0498  0.7472 -1.4068
 6074SOL    HW224186   9.681   4.006   2.978 -0.7355  0.1903  0.1636
 6075SOL     OW24187   8.243   9.400   3.796  0.8583  0.0901  0.9969
 6075SOL    HW124188   8.338   9.391   3.785  0.7286 -0.4317  0.1803
 6075SOL    HW224189   8.212   9.309   3.801  0.1899  0.1823 -0.8429
 6076SOL     OW24190   9.211   2.723   5.104  0.0256  0.2174  0.5718
 6076SOL    HW124191   9.225   2.761   5.018 -1.0832  1.7287  1.0218
 6076SOL    HW224192   9.159   2.644   5.088  1.9215 -0.9406 -0.3235
 6077SOL     OW24193   3.403   5.157   2.524 -0.9014 -0.0344 -0.1231
 6077SOL    HW124194   3.320   5.115   2.498  0.0657 -1.9730 -0.2629
 6077SOL    HW224195   3.470   5.106   2.479  0.3854  1.7578 -0.3354
 6078SOL     OW24196  10.335   8.731   3.342 -0.2551 -0.4721 -0.4614
 6078SOL    HW124197  10.418   8.683   3.339  0.2303  0.3756 -1.1000
 6078SOL    HW224198  10.361   8.824   3.346 -1.1704 -0.2290  0.4831
 6079SOL     OW24199   8.606   9.158   3.371  0.5646 -0.1085 -0.2863
 6079SOL    HW124200   8.549   9.229   3.400  0.9557 -0.5504  1.6535
 6079SOL    HW224201   8.579   9.082   3.423  3.3294 -0.1598  1.2603
 6080SOL     OW24202   8.515   9.208   5.256  0.0315 -0.2564 -0.4298
 6080SOL    HW124203   8.566   9.269   5.310  1.8710  0.1078 -2.4378
 6080SOL    HW224204   8.530   9.123   5.296  0.8209  0.0868  0.0345
 6081SOL     OW24205   8.581   9.009  11.108 -0.1853 -0.2588  0.2927
 6081SOL    HW124206   8.644   9.048  11.169 -0.9281  1.7051 -0.1165
 6081SOL    HW224207   8.531   9.084  11.075 -0.4998 -1.3763 -1.9270
 6082SOL     OW24208   8.987   8.077   4.546 -0.4630  0.2622 -0.4134
 6082SOL    HW124209   9.006   8.164   4.581  1.2057  0.3457 -1.3971
 6082SOL    HW224210   9.064   8.025   4.569 -1.3473 -0.9128 -0.0165
 6083SOL     OW24211   8.722  12.245   6.553 -0.2959  0.0741  0.1525
 6083SOL    HW124212   8.797  12.192   6.578 -1.1614 -0.7838  1.0345
 6083SOL    HW224213   8.659  12.231   6.624 -0.7772  1.8206  0.1095
 6084SOL     OW24214   6.974   7.585   9.298 -0.2714 -0.2817 -0.5619
 6084SOL    HW124215   6.888   7.545   9.284 -0.4574  0.4345 -1.5153
 6084SOL    HW224216   7.032   7.539   9.238 -0.1585 -0.2029 -0.5124
 6085SOL     OW24217   4.800   3.437   8.496 -0.0881 -0.3623 -0.1519
 6085SOL    HW124218   4.821   3.373   8.564  1.7684  0.5146  0.1841
 6085SOL    HW224219   4.804   3.521   8.541 -0.5127  0.1239 -0.9994
 6086SOL     OW24220  11.098   4.118   2.754  0.1260  0.1792 -0.2850
 6086SOL    HW124221  11.093   4.041   2.698  1.6523  0.6000 -1.0795
 6086SOL    HW224222  11.025   4.173   2.726  0.8686  0.3818 -1.9080
 6087SOL     OW24223   2.215   8.895  11.886  0.4104 -0.0291 -0.2035
 6087SOL    HW124224   2.301   8.864  11.914  0.1426 -0.3842  0.2232
 6087SOL    HW224225   2.158   8.818  11.891  0.8446 -0.8287 -4.0397
 6088SOL     OW24226   5.328   5.129   1.400  0.0109 -0.1679 -0.4127
 6088SOL    HW124227   5.422   5.117   1.414  0.0635 -0.6241 -1.0991
 6088SOL    HW224228   5.297   5.173   1.479  0.4954 -1.5217  0.5548
 6089SOL     OW24229  11.287   0.176   9.511  0.1024  0.5713 -0.1585
 6089SOL    HW124230  11.261   0.095   9.468 -0.8353  0.7952 -0.0396
 6089SOL    HW224231  11.381   0.183   9.494  0.3139 -0.8073  0.2866
 6090SOL     OW24232   9.146   6.308   8.743 -0.0007  0.2694 -0.5080
 6090SOL    HW124233   9.135   6.376   8.809 -0.6925 -1.0709  0.8016
 6090SOL    HW224234   9.225   6.260   8.770  1.2198  1.2430 -2.1070
 6091SOL     OW24235  10.073   1.888   9.310 -0.2342  0.6587  0.0260
 6091SOL    HW124236  10.104   1.860   9.224 -0.3845 -1.2722  0.5365
 6091SOL    HW224237  10.005   1.824   9.333  0.7042  0.3061  2.1055
 6092SOL     OW24238   6.867   5.067   8.674  0.1766 -0.0836 -0.1325
 6092SOL    HW124239   6.923   5.113   8.737  2.1386 -0.2592 -1.6600
 6092SOL    HW224240   6.822   5.000   8.727  1.4005  0.0742  1.1741
 6093SOL     OW24241  12.399   3.544  11.547 -0.2328  0.1526 -0.1835
 6093SOL    HW124242  12.331   3.477  11.539 -0.0682  0.0078 -0.4122
 6093SOL    HW224243  12.408   3.580  11.458  2.0916 -1.9219 -0.9156
 6094SOL     OW24244   9.644   8.566   4.007 -0.5435  0.1090  0.3671
 6094SOL    HW124245   9.566   8.606   3.968 -0.9909  1.8955  2.8906
 6094SOL    HW224246   9.714   8.585   3.944 -1.8386 -0.4715 -1.3521
 6095SOL     OW24247   2.113   3.168   4.828 -0.4677 -0.2107 -0.5094
 6095SOL    HW124248   2.200   3.134   4.811  0.5811  2.2351 -0.4579
 6095SOL    HW224249   2.064   3.150   4.748  0.6445  0.0094 -1.2564
 6096SOL     OW24250   3.163   4.439   7.803  0.0365  0.1663  0.1099
 6096SOL    HW124251   3.070   4.449   7.822 -0.1129  0.0865 -0.5660
 6096SOL    HW224252   3.203   4.422   7.888 -0.4892  0.7462  0.4815
 6097SOL     OW24253  10.987   5.098   7.084  0.1642  0.0376  0.2170
 6097SOL    HW124254  10.994   5.003   7.085  1.1348  0.0962  0.0243
 6097SOL    HW224255  11.024   5.124   6.999  3.6147  0.8084  1.7634
 6098SOL     OW24256   8.914   6.135  11.019  0.4107  0.1951  0.4563
 6098SOL    HW124257   8.986   6.135  11.083  0.1228  1.7065  0.8261
 6098SOL    HW224258   8.835   6.125  11.073  0.2767 -0.6333  0.1242
 6099SOL     OW24259  10.712   6.194   9.480  0.0366  0.0513 -0.0692
 6099SOL    HW124260  10.784   6.135   9.502  0.1400  0.2484  0.1157
 6099SOL    HW224261  10.633   6.141   9.495  0.1348 -0.1074 -0.1066
 6100SOL     OW24262   3.823   3.792   1.079  0.0718  0.4445 -0.2706
 6100SOL    HW124263   3.915   3.768   1.092  0.1072  0.9756  0.5689
 6100SOL    HW224264   3.820   3.886   1.100 -0.4068  0.7553 -1.6323
 6101SOL     OW24265   4.484   8.785   8.209 -0.1841 -0.5863  0.1062
 6101SOL    HW124266   4.552   8.778   8.276 -1.2585  0.1073  1.3136
 6101SOL    HW224267   4.435   8.703   8.216 -0.0768 -0.6700 -0.0971
 6102SOL     OW24268   6.628   5.890   8.033  0.3237  0.0700 -0.2822
 6102SOL    HW124269   6.618   5.814   8.091 -0.8439 -0.5364 -1.2271
 6102SOL    HW224270   6.716   5.880   7.995  0.9143  0.2300  1.0018
 6103SOL     OW24271   8.765   1.643   7.708  0.0727  0.1962  0.1975
 6103SOL    HW124272   8.837   1.593   7.747  0.4418  1.1576  0.8107
 6103SOL    HW224273   8.756   1.608   7.619  0.8065 -0.4380  0.3618
 6104SOL     OW24274   5.242  11.471   3.627  0.1559  0.1055 -0.1872
 6104SOL    HW124275   5.173  11.476   3.561 -1.5539  1.2047  1.5692
 6104SOL    HW224276   5.211  11.527   3.699  2.0092 -0.8522  1.4637
 6105SOL     OW24277  10.144   5.217   3.867 -0.5114 -0.1420  0.3318
 6105SOL    HW124278  10.142   5.295   3.922  1.0091  0.8335 -0.9256
 6105SOL    HW224279  10.164   5.146   3.928 -1.1466  0.5493  1.3731
 6106SOL     OW24280   9.316   8.288   2.464 -1.1126 -0.2506 -0.5552
 6106SOL    HW124281   9.250   8.346   2.426 -0.9110 -0.4399 -1.2197
 6106SOL    HW224282   9.271   8.205   2.475 -1.3063 -0.0652  0.0837
 6107SOL     OW24283  12.288  11.060   2.014  0.2202 -0.2129  0.2707
 6107SOL    HW124284  12.251  10.984   1.968 -0.1685 -0.5996  1.1961
 6107SOL    HW224285  12.236  11.067   2.094 -2.3265  3.3405 -1.4365
 6108SOL     OW24286  12.266   1.425   7.748 -0.2136  0.5323  0.2424
 6108SOL    HW124287  12.270   1.446   7.841  0.9700  1.9723 -0.0957
 6108SOL    HW224288  12.346   1.375   7.731 -0.8722 -0.5195  0.1582
 6109SOL     OW24289   3.695   5.844   8.011  0.1058 -0.6351 -0.3261
 6109SOL    HW124290   3.735   5.831   8.097 -0.2846 -0.2962 -0.0911
 6109SOL    HW224291   3.746   5.914   7.971  0.5243 -1.0485 -0.5243
 6110SOL     OW24292   4.874   0.832   1.883 -0.0680  0.0720 -0.3122
 6110SOL    HW124293   4.893   0.768   1.952 -0.3205 -0.1516 -0.4473
 6110SOL    HW224294   4.940   0.900   1.894 -1.9080  1.6302  2.1005
 6111SOL     OW24295   5.798  11.590  12.429 -0.0682 -0.0739  0.2808
 6111SOL    HW124296   5.749  11.605  12.348  2.8224 -0.4492 -1.6786
 6111SOL    HW224297   5.749  11.522  12.474 -1.8746  0.2738 -1.0341
 6112SOL     OW24298   1.639   8.820   9.428 -0.3364  0.2108  0.6116
 6112SOL    HW124299   1.716   8.766   9.445  0.0072  0.2296 -0.7207
 6112SOL    HW224300   1.595   8.776   9.355 -0.3612  1.3877 -0.1169
 6113SOL     OW24301   7.991   6.262   7.490 -0.0280 -0.2069 -0.3517
 6113SOL    HW124302   7.964   6.215   7.569 -2.4737  0.4103 -0.7512
 6113SOL    HW224303   7.910   6.298   7.454  1.3437  1.6358 -1.8022
 6114SOL     OW24304   2.185   4.327   9.272  0.2880  0.3240  0.5859
 6114SOL    HW124305   2.103   4.278   9.278  0.3166  0.2546  0.4085
 6114SOL    HW224306   2.249   4.263   9.241  0.1949  0.6171 -0.2396
 6115SOL     OW24307   6.689   5.995   4.005 -0.5078 -0.1518 -0.2118
 6115SOL    HW124308   6.666   5.990   4.097  0.6181 -1.1441  0.0337
 6115SOL    HW224309   6.653   5.916   3.966 -1.7853  0.6985 -0.8428
 6116SOL     OW24310   8.060   1.254  10.744 -0.3503 -0.2455  0.2382
 6116SOL    HW124311   8.146   1.295  10.730  0.2272 -1.4653  0.0390
 6116SOL    HW224312   8.080   1.160  10.754 -1.6341 -0.5063  0.4972
 6117SOL     OW24313  11.146   2.886   5.523  0.1723  0.1004  0.7982
 6117SOL    HW124314  11.161   2.977   5.550  0.3191  0.5434 -0.6851
 6117SOL    HW224315  11.084   2.852   5.588 -0.3561  1.4536  1.0410
 6118SOL     OW24316   2.164   6.185   6.531 -0.0237 -0.5472  0.3447
 6118SOL    HW124317   2.235   6.131   6.566 -0.3574 -1.4663 -0.3769
 6118SOL    HW224318   2.159   6.161   6.439 -0.6154  0.2501  0.1607
 6119SOL     OW24319  11.718   2.194   2.783 -0.1087  0.2663  0.4710
 6119SOL    HW124320  11.745   2.246   2.707 -1.2312  0.9039  0.4773
 6119SOL    HW224321  11.794   2.140   2.804  1.4215  2.4721  0.9510
 6120SOL     OW24322  10.259   5.267  11.680  0.4806  0.2653 -0.5108
 6120SOL    HW124323  10.220   5.338  11.729  1.4321  0.2708  0.2602
 6120SOL    HW224324  10.274   5.198  11.744 -0.6268 -0.7386 -1.2809
 6121SOL     OW24325   8.507   7.815   3.890  0.2473  0.5712  0.3192
 6121SOL    HW124326   8.569   7.851   3.953  0.9021  0.4771 -0.2598
 6121SOL    HW224327   8.524   7.721   3.891  0.5411  0.6114 -0.2805
 6122SOL     OW24328   6.852   8.366  12.365  0.2675  0.3200  0.2570
 6122SOL    HW124329   6.903   8.447  12.366  2.1244 -0.7855 -0.6452
 6122SOL    HW224330   6.846   8.341  12.457  0.1369  1.1885  0.4954
 6123SOL     OW24331   1.928   2.237   7.831  0.4058  0.1186  0.1310
 6123SOL    HW124332   1.937   2.164   7.892  1.9055 -0.9543 -1.2599
 6123SOL    HW224333   1.998   2.298   7.857 -0.5559  0.8737  1.0082
 6124SOL     OW24334   9.812  10.226   3.042 -0.0282  0.0185  0.1213
 6124SOL    HW124335   9.751  10.201   2.972 -0.3339  0.4306  0.2366
 6124SOL    HW224336   9.825  10.146   3.093  0.9116 -0.5270 -0.9323
 6125SOL     OW24337   4.600  10.580   1.454 -0.1263 -0.3504 -0.0515
 6125SOL    HW124338   4.605  10.665   1.497 -0.5805 -0.9301  1.2123
 6125SOL    HW224339   4.581  10.599   1.363 -1.1839  0.8660  0.4020
 6126SOL     OW24340  10.255   9.938   8.922 -0.5376 -0.0336 -0.1973
 6126SOL    HW124341  10.169   9.912   8.889 -0.8031 -1.4136  1.4300
 6126SOL    HW224342  10.237   9.977   9.007  0.4566 -0.7121  0.3466
 6127SOL     OW24343   0.440  10.683   4.768  0.5500 -0.0907 -0.1698
 6127SOL    HW124344   0.523  10.695   4.816 -0.0600  1.2752  0.6038
 6127SOL    HW224345   0.372  10.705   4.832 -0.4363 -1.2899 -0.7671
 6128SOL     OW24346   1.455  12.403  10.449 -0.6142 -0.1659 -0.0815
 6128SOL    HW124347   1.360  12.394  10.454 -0.6865  1.0548  1.4728
 6128SOL    HW224348   1.477  12.381  10.358 -2.2521 -1.3808 -0.2145
 6129SOL     OW24349   3.274   6.121  10.411 -0.0781 -0.0197 -0.1673
 6129SOL    HW124350   3.225   6.198  10.383 -0.5037  0.8191  2.5360
 6129SOL    HW224351   3.362   6.155  10.429  0.4880 -0.7527 -1.4389
 6130SOL     OW24352   8.376   3.623   2.027 -0.1178 -0.5461  0.4531
 6130SOL    HW124353   8.466   3.616   1.994  0.1876  0.7665  0.9360
 6130SOL    HW224354   8.382   3.686   2.099 -1.0257 -2.2244  2.0538
 6131SOL     OW24355   1.762   9.411   4.669 -0.3759 -0.1012 -0.8792
 6131SOL    HW124356   1.704   9.343   4.703 -0.9381  1.2611  1.0690
 6131SOL    HW224357   1.703   9.474   4.628 -0.0636  0.1784 -0.9035
 6132SOL     OW24358   4.279  12.083   4.352 -0.2944 -0.0270  0.4998
 6132SOL    HW124359   4.333  12.153   4.315  1.7660 -1.1625  1.2169
 6132SOL    HW224360   4.198  12.127   4.379  1.1334  2.2021  1.4155
 6133SOL     OW24361   6.820   4.148   8.073 -0.1148 -0.0692 -0.0298
 6133SOL    HW124362   6.810   4.053   8.078  3.4713 -0.6075  0.1493
 6133SOL    HW224363   6.824   4.166   7.979  0.4000 -0.3286 -0.0664
 6134SOL     OW24364   2.037   2.609   8.037  0.0613  0.5274  0.0012
 6134SOL    HW124365   2.102   2.587   7.969  0.6038  2.4936 -0.1943
 6134SOL    HW224366   2.085   2.601   8.119 -0.4179 -1.2382  0.1398
 6135SOL     OW24367   6.335   1.907   5.833  0.3560 -0.1083 -0.2489
 6135SOL    HW124368   6.404   1.966   5.862  1.1163 -1.0846  0.0167
 6135SOL    HW224369   6.303   1.945   5.751  1.4942  0.1512 -0.5901
 6136SOL     OW24370  10.666   9.603   4.451 -0.2412  0.3716 -0.0608
 6136SOL    HW124371  10.740   9.617   4.393 -0.6302  2.1992 -0.1668
 6136SOL    HW224372  10.694   9.532   4.509  0.9962  0.0230 -1.0439
 6137SOL     OW24373   3.033   2.257  12.232  1.1230  0.3589 -0.0471
 6137SOL    HW124374   3.094   2.205  12.284  1.9637 -0.6164 -1.8961
 6137SOL    HW224375   3.074   2.262  12.145  0.0101  2.2768 -0.5333
 6138SOL     OW24376   1.550   0.364   8.938  0.2996  0.0039  0.4468
 6138SOL    HW124377   1.631   0.321   8.968  0.1986 -0.6867 -0.2414
 6138SOL    HW224378   1.580   0.445   8.897  0.8579 -1.0807 -1.4380
 6139SOL     OW24379  12.361   2.455  11.471 -0.3349 -0.3551 -0.4429
 6139SOL    HW124380  12.415   2.491  11.541  0.4497 -0.1809 -1.1272
 6139SOL    HW224381  12.289   2.411  11.516  0.3383 -0.5267  0.4773
 6140SOL     OW24382   5.997   3.547   9.855  0.2276 -0.0947  0.0849
 6140SOL    HW124383   6.091   3.531   9.852  0.1910 -0.3711  0.3356
 6140SOL    HW224384   5.957   3.461   9.838  0.0287 -0.2816  1.3903
 6141SOL     OW24385   7.647   6.258   0.120  0.0746  0.2610  0.6867
 6141SOL    HW124386   7.638   6.246   0.214 -0.5849  1.5611  0.8201
 6141SOL    HW224387   7.589   6.192   0.082 -1.3320  1.0932  1.2814
 6142SOL     OW24388   5.870   7.826   7.633 -0.2653  0.0831  0.1570
 6142SOL    HW124389   5.809   7.770   7.585  1.1787  0.4889 -2.3081
 6142SOL    HW224390   5.841   7.915   7.613  2.1852  0.3655 -2.7698
 6143SOL     OW24391   0.056   5.946   2.576 -0.4998  0.1799  0.0366
 6143SOL    HW124392   0.123   5.884   2.550 -0.8981 -0.3630  0.2882
 6143SOL    HW224393  -0.013   5.936   2.511 -0.7340  0.0749  0.2968
 6144SOL     OW24394   8.422   9.404  11.098 -0.3355 -0.2115  0.0335
 6144SOL    HW124395   8.432   9.330  11.159 -1.6701  0.0239  0.5925
 6144SOL    HW224396   8.507   9.412  11.055  0.1160 -1.4810  0.6373
 6145SOL     OW24397   9.042  10.631   9.023  0.2109 -0.3854  0.0385
 6145SOL    HW124398   9.078  10.718   9.003 -0.0865 -0.0262  1.0324
 6145SOL    HW224399   8.973  10.647   9.087  0.1600 -1.3615  0.2424
 6146SOL     OW24400   3.582   0.140   3.987  0.3231  0.5148  0.2766
 6146SOL    HW124401   3.593   0.235   3.979  0.5728  0.5014  0.4740
 6146SOL    HW224402   3.490   0.125   3.966 -0.1438  0.9874  1.8138
 6147SOL     OW24403   8.458   1.651   1.952 -0.6204  0.1634  0.0447
 6147SOL    HW124404   8.495   1.640   2.040 -0.2398 -0.0680 -0.1396
 6147SOL    HW224405   8.516   1.714   1.910  0.6065 -1.4602 -0.8201
 6148SOL     OW24406   8.214   6.712   6.606  0.3023 -0.0773 -0.4621
 6148SOL    HW124407   8.284   6.649   6.620 -0.4631 -0.8407  0.0483
 6148SOL    HW224408   8.259   6.796   6.592  1.2962 -0.4941  0.1430
 6149SOL     OW24409   2.240  11.447   9.678  0.0990 -0.0752 -0.0300
 6149SOL    HW124410   2.313  11.387   9.690  0.7677  0.6593 -0.3443
 6149SOL    HW224411   2.165  11.390   9.663  0.6168 -0.8396  0.1838
 6150SOL     OW24412   2.872   0.209   3.910 -0.0555 -0.0392  0.0488
 6150SOL    HW124413   2.827   0.153   3.847 -1.2124 -0.4842  1.2225
 6150SOL    HW224414   2.838   0.181   3.996  2.4808 -0.4044  1.0224
 6151SOL     OW24415   9.710   9.072   6.069  0.7126 -0.2994 -0.2755
 6151SOL    HW124416   9.727   8.980   6.087  1.2684 -0.1136  0.2059
 6151SOL    HW224417   9.667   9.105   6.148  2.1656  0.2704  0.3039
 6152SOL     OW24418   4.583   4.585   9.941 -0.7775 -0.0933 -0.5799
 6152SOL    HW124419   4.600   4.554   9.852 -0.6880  1.7261 -1.2387
 6152SOL    HW224420   4.504   4.539   9.967 -0.6402 -0.8786 -1.4891
 6153SOL     OW24421  12.380  11.058  12.083  0.3276  0.4318 -0.4697
 6153SOL    HW124422  12.472  11.053  12.110  0.8935 -0.0931 -2.3497
 6153SOL    HW224423  12.339  11.113  12.149  1.6756 -0.4507  1.2043
 6154SOL     OW24424  12.329   4.642   0.361  0.2369  0.3456  0.2298
 6154SOL    HW124425  12.418   4.629   0.330 -0.1523 -1.1494 -0.3206
 6154SOL    HW224426  12.284   4.560   0.340 -1.6163  1.5346 -0.7155
 6155SOL     OW24427   1.708  11.799   9.079 -0.1604 -0.8076  0.2975
 6155SOL    HW124428   1.658  11.881   9.079 -1.1419 -1.3861  0.9732
 6155SOL    HW224429   1.649  11.734   9.041  0.9575 -1.0292 -1.1609
 6156SOL     OW24430   0.570   2.331   2.973  0.0843 -0.2415 -0.5196
 6156SOL    HW124431   0.571   2.238   2.994  0.3156 -0.5862 -1.9901
 6156SOL    HW224432   0.659   2.361   2.992 -0.1767 -0.1366  0.6355
 6157SOL     OW24433   7.302  10.117  11.373  0.3024  0.2768 -0.3259
 6157SOL    HW124434   7.335  10.090  11.288 -0.7686  1.0427 -1.0123
 6157SOL    HW224435   7.233  10.182  11.353 -0.6427 -0.2399  1.0736
 6158SOL     OW24436  12.436   5.963   5.151  0.1101 -0.5986  0.1544
 6158SOL    HW124437  12.405   6.043   5.194 -0.2244 -0.1402 -0.9171
 6158SOL    HW224438  12.477   5.993   5.070  2.5264 -1.2669  1.0465
 6159SOL     OW24439   4.067  11.763  11.011 -0.3239 -0.4036 -0.1947
 6159SOL    HW124440   4.085  11.830  10.945  0.0389  1.4016  1.6619
 6159SOL    HW224441   4.148  11.755  11.061 -1.2360 -0.1661  1.3729
 6160SOL     OW24442   9.947   1.204   7.098 -0.4339  0.4408  0.3248
 6160SOL    HW124443   9.988   1.197   7.184  0.4139  0.6318 -0.0513
 6160SOL    HW224444   9.919   1.296   7.092 -1.0041  0.2915  0.6123
 6161SOL     OW24445   4.411   2.447   0.892 -0.2248 -0.1372  0.5322
 6161SOL    HW124446   4.460   2.431   0.811  1.4130 -0.4611  1.5346
 6161SOL    HW224447   4.372   2.533   0.879 -0.2373 -0.3156 -0.7198
 6162SOL     OW24448   8.082   7.089   4.588  0.1786 -0.3404 -0.1228
 6162SOL    HW124449   8.065   7.175   4.551 -0.2039 -0.7049 -0.8089
 6162SOL    HW224450   8.115   7.107   4.676 -3.2440  0.4214  1.1275
 6163SOL     OW24451  10.157   4.050   8.536 -0.0923 -0.2894  0.0489
 6163SOL    HW124452  10.161   3.965   8.492  1.3252 -0.1728 -0.1083
 6163SOL    HW224453  10.093   4.039   8.606  0.3178 -1.5946  0.2334
 6164SOL     OW24454  10.193   4.393   4.283 -0.0587  0.3577  0.3254
 6164SOL    HW124455  10.098   4.387   4.274  0.0411 -0.4094 -0.3867
 6164SOL    HW224456  10.207   4.444   4.362 -1.0725  1.9372 -0.4555
 6165SOL     OW24457  11.240   3.170   9.034 -0.5453 -0.0429  0.3356
 6165SOL    HW124458  11.245   3.266   9.030  0.0442 -0.0159  1.2634
 6165SOL    HW224459  11.155   3.148   8.997  0.9044  0.5374 -3.8767
 6166SOL     OW24460   7.557   1.005   6.086  0.5640  0.1453  0.1831
 6166SOL    HW124461   7.543   1.097   6.062  1.0337  0.2084  0.1445
 6166SOL    HW224462   7.484   0.985   6.145 -0.6156 -0.0206 -1.2692
 6167SOL     OW24463   6.422   7.086   8.136  0.4133 -0.0954  0.5137
 6167SOL    HW124464   6.398   7.007   8.089 -0.2077  0.0017  0.6579
 6167SOL    HW224465   6.517   7.092   8.126  0.3507 -0.3464 -0.2872
 6168SOL     OW24466  12.021   9.618   4.903  0.1865  0.5871  0.3207
 6168SOL    HW124467  12.054   9.567   4.829 -0.0502  1.0103 -0.0742
 6168SOL    HW224468  11.972   9.555   4.955  3.0556 -0.5537  1.9217
 6169SOL     OW24469   5.211   5.575   0.348  0.1580  0.0703 -0.2662
 6169SOL    HW124470   5.304   5.558   0.335  0.5771  1.4039  0.7852
 6169SOL    HW224471   5.196   5.559   0.442 -0.3048  1.4183 -0.0933
 6170SOL     OW24472   3.546  10.214   1.647  0.1764  0.2845  0.1148
 6170SOL    HW124473   3.621  10.177   1.601  1.1463  1.0380  1.0352
 6170SOL    HW224474   3.579  10.293   1.689 -1.0484  0.4619  0.8221
 6171SOL     OW24475   8.919  10.405   3.593  0.5768 -0.4971 -0.3815
 6171SOL    HW124476   8.960  10.353   3.662  0.5118  0.6864  0.5822
 6171SOL    HW224477   8.835  10.433   3.631  1.6653  2.3980  0.1614
 6172SOL     OW24478  10.738   9.248   6.960  0.0747  0.7380 -0.3492
 6172SOL    HW124479  10.733   9.343   6.955 -2.5816  0.7173  0.0587
 6172SOL    HW224480  10.649   9.221   6.984  1.0589 -1.7751  0.8979
 6173SOL     OW24481   8.934  11.271   8.217  0.0417 -0.2396  0.1110
 6173SOL    HW124482   9.020  11.260   8.176 -0.7947  0.3373 -1.9063
 6173SOL    HW224483   8.896  11.183   8.217 -0.1406 -0.1740 -0.8686
 6174SOL     OW24484  11.543   5.017   5.939  0.3496 -0.4185  0.2400
 6174SOL    HW124485  11.604   5.060   5.998 -1.7234  0.0570  2.1775
 6174SOL    HW224486  11.533   5.078   5.866  0.7572  0.3665  0.8309
 6175SOL     OW24487   1.217   7.833  11.426 -0.6552 -0.0584  0.1646
 6175SOL    HW124488   1.185   7.906  11.479 -1.1392  0.5005 -0.8555
 6175SOL    HW224489   1.153   7.825  11.356 -2.4621 -3.6167  1.9799
 6176SOL     OW24490  10.920   5.042   2.971 -0.2132 -0.6570  0.6689
 6176SOL    HW124491  10.940   4.981   2.901 -0.1076 -0.7984  0.8210
 6176SOL    HW224492  10.995   5.102   2.974 -0.4011 -0.4080  0.3995
 6177SOL     OW24493   0.773   7.641  12.319 -0.0396  0.9348 -0.0871
 6177SOL    HW124494   0.835   7.714  12.317  1.4534 -0.2812 -1.7659
 6177SOL    HW224495   0.824   7.568  12.352 -0.1176 -0.4080 -2.6535
 6178SOL     OW24496   8.457  11.881  12.436 -0.2167 -0.0803  0.1743
 6178SOL    HW124497   8.440  11.900  12.529  1.3182  0.4045  0.3887
 6178SOL    HW224498   8.502  11.960  12.404 -0.7218 -0.2568 -0.9819
 6179SOL     OW24499   3.872   4.110   5.496  0.0835  0.2411  0.0113
 6179SOL    HW124500   3.887   4.202   5.474  0.5975  0.0260 -0.6112
 6179SOL    HW224501   3.958   4.069   5.483 -0.0032 -0.2202  0.8507
 6180SOL     OW24502  12.072   2.295   8.907  0.0095 -0.0221 -0.0774
 6180SOL    HW124503  12.088   2.218   8.852  2.9894 -0.2616  0.9335
 6180SOL    HW224504  12.156   2.342   8.908 -0.6755  1.3361  2.1953
 6181SOL     OW24505   0.643   9.347  10.816  0.0320  0.3531  0.1919
 6181SOL    HW124506   0.638   9.258  10.780  1.4173  0.0108  0.7846
 6181SOL    HW224507   0.562   9.389  10.787 -1.5134 -1.6231  1.3775
 6182SOL     OW24508   0.327   4.418   3.165 -0.0166 -0.3408 -0.0759
 6182SOL    HW124509   0.291   4.507   3.171 -1.5178 -0.9420  0.2769
 6182SOL    HW224510   0.330   4.400   3.071 -1.5177 -0.5839 -0.1093
 6183SOL     OW24511   7.190  10.607   9.562  0.2056 -0.0424 -0.8012
 6183SOL    HW124512   7.234  10.581   9.643 -0.7534  1.4307  0.2601
 6183SOL    HW224513   7.179  10.702   9.571  0.4436  0.2271 -2.8698
 6184SOL     OW24514   4.281   6.967  11.319  0.0783  0.0962  0.2151
 6184SOL    HW124515   4.342   7.040  11.322 -0.6598  0.7030  1.4636
 6184SOL    HW224516   4.196   7.006  11.341 -1.0673 -0.4493 -2.7461
 6185SOL     OW24517   7.879   9.894  11.711  0.5864  0.4754  0.7402
 6185SOL    HW124518   7.878   9.927  11.801 -0.8677 -1.1778  1.3970
 6185SOL    HW224519   7.800   9.931  11.671  0.4984  0.1064  0.5731
 6186SOL     OW24520   5.708   5.877   0.540 -0.3050 -0.8313 -0.0926
 6186SOL    HW124521   5.657   5.898   0.618  1.2005 -0.1710  0.7580
 6186SOL    HW224522   5.645   5.884   0.468 -1.4750 -0.3581  0.9354
 6187SOL     OW24523   4.218  11.788   0.387  0.0894 -0.4368 -0.0234
 6187SOL    HW124524   4.201  11.850   0.316  1.6405  2.4420  1.9193
 6187SOL    HW224525   4.313  11.785   0.394  0.0088  0.8253  2.9880
 6188SOL     OW24526  11.391   6.701  10.584 -0.1554 -0.4755  0.0409
 6188SOL    HW124527  11.420   6.765  10.520  1.0239 -0.4636  0.5605
 6188SOL    HW224528  11.303   6.729  10.609  0.2425  0.8062  0.0746
 6189SOL     OW24529   0.325   6.532   4.211  0.2874  0.2101  0.3417
 6189SOL    HW124530   0.322   6.561   4.302  0.0584 -0.6381  0.6098
 6189SOL    HW224531   0.234   6.534   4.182  0.4189  1.0015 -0.0473
 6190SOL     OW24532   4.609   4.321   1.068 -0.4101  0.0410  0.1925
 6190SOL    HW124533   4.610   4.356   0.979 -1.1059  1.8020  0.8153
 6190SOL    HW224534   4.529   4.269   1.073 -0.2748 -0.2149 -0.2525
 6191SOL     OW24535   4.093   4.316   6.287  0.3281  0.5705 -0.2261
 6191SOL    HW124536   4.088   4.257   6.212 -0.7981 -0.1459  0.3713
 6191SOL    HW224537   4.076   4.260   6.363  2.2524  1.1307  0.6642
 6192SOL     OW24538   7.679   7.345   9.113 -0.3513 -0.1676  0.1624
 6192SOL    HW124539   7.609   7.281   9.126 -0.5546 -0.0066 -0.1307
 6192SOL    HW224540   7.749   7.316   9.172 -0.4697 -0.6154  0.0890
 6193SOL     OW24541   9.762   8.315  12.398 -0.0546 -0.1664 -0.1525
 6193SOL    HW124542   9.846   8.283  12.365  0.1790 -0.4148  0.6595
 6193SOL    HW224543   9.786   8.389  12.454 -0.5014  0.7124 -1.0816
 6194SOL     OW24544   4.944  11.140   3.160 -0.2716  0.3142  0.3197
 6194SOL    HW124545   4.991  11.059   3.178  0.5912  0.3258 -1.6340
 6194SOL    HW224546   5.012  11.204   3.141 -1.0120  0.9828 -0.1380
 6195SOL     OW24547   0.123  10.754   8.481  0.0747  0.0119  0.1757
 6195SOL    HW124548   0.169  10.706   8.411  1.4288  1.4252  0.0410
 6195SOL    HW224549   0.060  10.808   8.435  0.6150  0.5648  0.0780
 6196SOL     OW24550   3.510  12.162   6.472 -0.3926 -0.0964  0.1847
 6196SOL    HW124551   3.597  12.201   6.478 -0.2404 -0.4828  0.6668
 6196SOL    HW224552   3.453  12.224   6.517 -0.0423 -0.7074  1.5465
 6197SOL     OW24553   5.676   3.280   5.493 -0.2124 -0.4220 -0.0646
 6197SOL    HW124554   5.747   3.262   5.554  0.7862  0.5776 -0.9006
 6197SOL    HW224555   5.657   3.194   5.454  1.2236 -0.5602 -0.5370
 6198SOL     OW24556   1.552   3.518   9.949 -0.1265 -0.4870  0.3978
 6198SOL    HW124557   1.486   3.587   9.940  1.1152  1.0700  2.3919
 6198SOL    HW224558   1.508   3.450   9.999 -0.5702  0.0291  0.7235
 6199SOL     OW24559   8.591   1.733   3.600 -0.1046  0.3643 -0.2575
 6199SOL    HW124560   8.606   1.645   3.636  1.6581  0.5622 -0.3998
 6199SOL    HW224561   8.634   1.731   3.514 -1.6467  0.8189 -1.0647
 6200SOL     OW24562   3.438  10.958   7.899  0.1818 -0.1302  0.4582
 6200SOL    HW124563   3.382  11.022   7.944  0.8866  0.6415  0.2582
 6200SOL    HW224564   3.419  10.875   7.943 -1.5898 -0.0273 -0.0132
 6201SOL     OW24565   5.953   2.276   6.063  0.0820  0.2670  0.3272
 6201SOL    HW124566   5.899   2.317   6.130 -1.5384 -0.7018 -0.3379
 6201SOL    HW224567   5.955   2.338   5.991  1.8419  1.3203  1.1867
 6202SOL     OW24568   2.201  11.399   1.103 -0.3729  0.6401  0.1050
 6202SOL    HW124569   2.233  11.464   1.040  1.1349 -2.8721 -3.1685
 6202SOL    HW224570   2.264  11.404   1.176  1.7570  0.7000 -1.6209
 6203SOL     OW24571   4.682   5.473   4.982  0.9690 -0.3462 -0.5934
 6203SOL    HW124572   4.632   5.470   5.064 -0.5163  0.1227 -1.4401
 6203SOL    HW224573   4.676   5.384   4.947 -1.1890  0.1779 -1.7370
 6204SOL     OW24574  12.074   3.721   1.507  0.6190  0.0318 -0.8981
 6204SOL    HW124575  12.018   3.644   1.515  1.0846 -0.1476  1.4147
 6204SOL    HW224576  12.032   3.775   1.440 -1.9053 -0.4511  0.1946
 6205SOL     OW24577   6.624  12.371   8.869  0.2744 -0.0693  0.0534
 6205SOL    HW124578   6.576  12.328   8.798  0.4980  2.0877 -1.5111
 6205SOL    HW224579   6.680  12.434   8.824  2.5922 -0.6079  2.0061
 6206SOL     OW24580   7.024  11.358  12.214  0.0757  0.1432  0.0337
 6206SOL    HW124581   7.077  11.280  12.225  0.7421  0.6618  0.6391
 6206SOL    HW224582   6.934  11.327  12.212  0.4169 -0.9081 -2.4090
 6207SOL     OW24583   3.927  11.759  11.310  0.2968 -0.3061 -0.1061
 6207SOL    HW124584   3.910  11.814  11.233  0.6067  0.5106  0.4057
 6207SOL    HW224585   3.843  11.715  11.326 -0.6182  1.6591  0.7698
 6208SOL     OW24586  11.170   9.104   1.445  0.6753  0.0989  0.2775
 6208SOL    HW124587  11.261   9.077   1.438  0.1897 -1.4386 -0.6075
 6208SOL    HW224588  11.150   9.146   1.361  0.1478 -1.0205 -0.1766
 6209SOL     OW24589  11.578   8.836   5.464 -0.5169 -0.2710 -0.5223
 6209SOL    HW124590  11.671   8.824   5.444 -0.6825 -1.3626 -0.7282
 6209SOL    HW224591  11.533   8.811   5.383 -0.9853  0.3768 -0.4666
 6210SOL     OW24592  10.094   2.271   0.921 -0.3198  0.3889 -0.2500
 6210SOL    HW124593  10.183   2.295   0.946  0.2247 -0.4986 -1.2557
 6210SOL    HW224594  10.064   2.212   0.991 -1.4672  3.3664  1.9462
 6211SOL     OW24595   9.395   3.047   2.586  0.4836 -0.2721  0.2326
 6211SOL    HW124596   9.405   3.121   2.646 -1.1822  0.0847  0.1218
 6211SOL    HW224597   9.443   3.073   2.507 -0.0767  0.6885  0.1978
 6212SOL     OW24598   3.334   4.153   3.689  0.0048  0.1789  0.8218
 6212SOL    HW124599   3.387   4.211   3.635  0.5398  0.0971  1.2516
 6212SOL    HW224600   3.243   4.176   3.668  0.2132  0.9054  0.7168
 6213SOL     OW24601   3.871   2.453  10.924  0.5924  0.0985 -0.0158
 6213SOL    HW124602   3.804   2.484  10.863  0.4337 -0.2623 -0.0304
 6213SOL    HW224603   3.828   2.453  11.009  0.7006  0.2557  0.0384
 6214SOL     OW24604   4.472   0.488   6.705 -0.1431  0.1609  0.0108
 6214SOL    HW124605   4.408   0.465   6.638 -0.9196  0.5823  0.6003
 6214SOL    HW224606   4.553   0.446   6.675 -0.7420 -0.5996 -0.6058
 6215SOL     OW24607   5.991  11.852   1.338  0.1894  0.7144 -0.5348
 6215SOL    HW124608   6.041  11.771   1.330  0.3171  0.8335 -0.9524
 6215SOL    HW224609   5.982  11.865   1.433  0.0383  0.1328 -0.4619
 6216SOL     OW24610   7.019   9.137   0.610  0.1498  0.5002  0.2824
 6216SOL    HW124611   7.052   9.062   0.659 -1.1508 -0.3374 -0.0487
 6216SOL    HW224612   6.969   9.187   0.675  0.3313  0.6346  0.3188
 6217SOL     OW24613  11.927   3.455   7.248 -0.1023 -0.1959 -0.4707
 6217SOL    HW124614  11.841   3.476   7.212 -0.1178 -1.7402 -1.4244
 6217SOL    HW224615  11.908   3.401   7.326 -0.0227  1.6523  0.8915
 6218SOL     OW24616   9.555   1.808   4.497  0.0015  0.3538 -0.1670
 6218SOL    HW124617   9.474   1.850   4.470 -1.3746 -0.9838  1.6611
 6218SOL    HW224618   9.529   1.721   4.527  1.9890  0.1600  1.2209
 6219SOL     OW24619  11.695   2.695   9.755  0.2653  0.0831  0.0326
 6219SOL    HW124620  11.681   2.601   9.750  0.2663  0.1200 -0.7369
 6219SOL    HW224621  11.758   2.706   9.826  0.4672 -0.5190 -0.0522
 6220SOL     OW24622   2.318   7.005   9.510 -0.1614 -0.3253  0.0542
 6220SOL    HW124623   2.280   6.927   9.470  0.8664 -0.5465 -0.5379
 6220SOL    HW224624   2.403   6.975   9.543 -0.2097  0.3019  0.7642
 6221SOL     OW24625   2.532   1.439  10.409  0.1952 -0.5515  0.1986
 6221SOL    HW124626   2.626   1.446  10.427 -0.0061  2.2844  0.6246
 6221SOL    HW224627   2.526   1.407  10.319  1.4574 -3.1592  0.9432
 6222SOL     OW24628   8.196   3.369   0.511 -0.0461  0.3205 -0.5485
 6222SOL    HW124629   8.284   3.390   0.543 -0.3048 -0.9509  1.1821
 6222SOL    HW224630   8.154   3.326   0.586 -2.2508  1.1669 -1.2302
 6223SOL     OW24631  11.255   6.452  10.977 -0.2664  0.0767 -0.0654
 6223SOL    HW124632  11.316   6.477  11.046 -1.5870  0.2597  1.0764
 6223SOL    HW224633  11.296   6.377  10.935  1.6040  1.2934 -0.5614
 6224SOL     OW24634  11.436  11.251   5.953 -0.3447 -0.5182  0.3036
 6224SOL    HW124635  11.461  11.281   6.040  2.6325 -1.7147 -0.0441
 6224SOL    HW224636  11.500  11.184   5.930 -1.9576 -1.3696 -2.2027
 6225SOL     OW24637   5.297   3.638   3.289 -0.7641 -0.4712 -0.1466
 6225SOL    HW124638   5.245   3.719   3.287  0.2105  0.1601 -0.1790
 6225SOL    HW224639   5.343   3.637   3.205  0.4806 -0.2199  0.5121
 6226SOL     OW24640   9.324   5.186  11.020  0.0509  0.2153  0.2996
 6226SOL    HW124641   9.363   5.254  10.965 -0.2877  1.0342  1.0518
 6226SOL    HW224642   9.269   5.233  11.082  0.2579 -0.7003  1.2125
 6227SOL     OW24643   1.235   0.744  10.340  0.3336 -0.3271  0.4888
 6227SOL    HW124644   1.185   0.785  10.411 -0.4192 -0.0826 -0.1754
 6227SOL    HW224645   1.324   0.739  10.375  0.3839  1.5178  0.7604
 6228SOL     OW24646   7.175   0.250   1.856  0.1707 -0.2918  0.1788
 6228SOL    HW124647   7.209   0.303   1.929 -0.8374 -1.1745  1.3246
 6228SOL    HW224648   7.145   0.169   1.897 -1.3956 -0.3828 -1.0593
 6229SOL     OW24649  10.180   7.935  10.444 -0.0842 -0.2974 -0.1214
 6229SOL    HW124650  10.194   7.958  10.535  0.6887  0.2323 -0.3760
 6229SOL    HW224651  10.205   7.842  10.439 -1.5348 -0.7551  0.5105
 6230SOL     OW24652   4.529  11.409   9.398  0.3890  0.5595  0.2070
 6230SOL    HW124653   4.457  11.464   9.368  0.2893 -0.0425 -0.7009
 6230SOL    HW224654   4.525  11.413   9.494 -0.2589  1.2755  0.1574
 6231SOL     OW24655  11.454  10.198   2.030  0.9628  0.2944 -0.0849
 6231SOL    HW124656  11.379  10.234   1.983 -0.5662  0.4430  2.2821
 6231SOL    HW224657  11.472  10.262   2.099  0.7267 -1.5422  1.7636
 6232SOL     OW24658  10.257  10.363   6.292  0.0281  0.2557  0.3923
 6232SOL    HW124659  10.290  10.323   6.212 -0.2086 -0.2121  0.5250
 6232SOL    HW224660  10.163  10.377   6.275 -0.4302 -1.5223  1.2352
 6233SOL     OW24661   0.875  11.166   5.447  0.1734 -0.1931  0.0687
 6233SOL    HW124662   0.946  11.206   5.496  0.1984 -0.9930  0.7158
 6233SOL    HW224663   0.903  11.075   5.434 -0.7044 -0.5042  0.2837
 6234SOL     OW24664   3.394   2.462   3.305 -0.5108 -0.3098  0.7077
 6234SOL    HW124665   3.388   2.371   3.274 -0.3482  0.5644 -2.2715
 6234SOL    HW224666   3.308   2.499   3.286  0.0608  0.6564 -0.1366
 6235SOL     OW24667   1.171   7.326   7.070  0.2470  0.3372  0.6133
 6235SOL    HW124668   1.195   7.234   7.079 -0.7470  0.0593  0.5921
 6235SOL    HW224669   1.098   7.326   7.009  0.2570  1.1461  0.5891
 6236SOL     OW24670   2.338   6.793   6.440  0.0655  0.1929 -0.3687
 6236SOL    HW124671   2.316   6.881   6.470 -1.6434  0.1793 -1.4497
 6236SOL    HW224672   2.255   6.746   6.438  0.8550 -1.2741 -0.4062
 6237SOL     OW24673   2.137   2.490  11.399  0.1164 -0.1254 -0.3707
 6237SOL    HW124674   2.046   2.474  11.377 -0.1838  1.3306 -0.2840
 6237SOL    HW224675   2.165   2.560  11.340  0.5292  0.8992  0.9675
 6238SOL     OW24676  10.777   1.133   4.361 -0.0933  0.6870  0.4015
 6238SOL    HW124677  10.682   1.139   4.371 -0.1417  0.1407  0.3128
 6238SOL    HW224678  10.808   1.096   4.444 -0.1172 -0.4841 -0.0971
 6239SOL     OW24679   7.991   7.494   9.580 -0.2123  0.3357  0.6048
 6239SOL    HW124680   8.051   7.430   9.541 -3.0508 -1.8916 -0.4476
 6239SOL    HW224681   7.992   7.474   9.673 -0.0001 -0.2637  0.4810
 6240SOL     OW24682   7.272   5.862   5.646  0.5011  0.2107 -0.4136
 6240SOL    HW124683   7.286   5.867   5.740  2.8103 -0.8346 -0.6455
 6240SOL    HW224684   7.204   5.796   5.635 -0.8380  1.3838  0.5564
 6241SOL     OW24685   8.990   3.088   6.166  0.0765 -0.2379  0.2805
 6241SOL    HW124686   9.040   3.043   6.097 -2.0760 -1.9565 -0.2609
 6241SOL    HW224687   9.035   3.064   6.247  2.0731  1.0291 -0.3591
 6242SOL     OW24688   1.550  12.386   8.946 -0.6169  0.2139 -0.4298
 6242SOL    HW124689   1.543  12.471   8.903 -1.6573 -0.6770 -2.1194
 6242SOL    HW224690   1.629  12.347   8.908 -0.7699 -0.0227 -0.5081
 6243SOL     OW24691  12.052   8.414   1.865  0.9821  0.6573  0.1110
 6243SOL    HW124692  11.963   8.391   1.838  0.1617  1.6731  1.7751
 6243SOL    HW224693  12.074   8.349   1.932  0.2752  2.1333  1.8506
 6244SOL     OW24694   9.288   3.299   8.211 -0.4857  0.0523  0.3246
 6244SOL    HW124695   9.258   3.309   8.120 -2.3708 -0.3820  0.8506
 6244SOL    HW224696   9.344   3.375   8.225  2.4859 -1.4809 -2.1292
 6245SOL     OW24697  10.638   2.033   8.077  0.3452  0.3873 -0.2979
 6245SOL    HW124698  10.733   2.031   8.077  0.3842  1.3608  0.2965
 6245SOL    HW224699  10.612   1.958   8.130  0.7368 -0.6127 -1.4929
 6246SOL     OW24700   7.142   9.866  11.919  0.3353 -0.0049  0.2171
 6246SOL    HW124701   7.057   9.823  11.924  0.9327 -1.2890 -0.3199
 6246SOL    HW224702   7.167   9.883  12.010 -0.0808 -0.4558  0.4126
 6247SOL     OW24703   1.074   4.345   6.032  0.0198  0.2139 -0.0923
 6247SOL    HW124704   1.029   4.360   6.115  0.9206  2.8995  0.0019
 6247SOL    HW224705   1.132   4.271   6.049 -2.4747 -1.7404  0.4780
 6248SOL     OW24706   3.818  10.768   7.349 -0.2631 -1.0082  0.0157
 6248SOL    HW124707   3.809  10.673   7.354  1.8177 -1.2326  0.5129
 6248SOL    HW224708   3.807  10.798   7.439  1.6467 -1.1022  0.3179
 6249SOL     OW24709   4.821   1.984   9.525 -0.0259 -0.3467  0.4225
 6249SOL    HW124710   4.746   2.000   9.467  1.0987  1.4546 -0.6183
 6249SOL    HW224711   4.898   2.001   9.470  1.1021  0.6642  2.2264
 6250SOL     OW24712   0.821  11.138   5.890 -0.2761 -0.2814  0.2800
 6250SOL    HW124713   0.815  11.067   5.954  0.7603  0.2060  0.9492
 6250SOL    HW224714   0.779  11.212   5.932  0.3418  0.0197  0.3838
 6251SOL     OW24715   0.742   5.773  10.567 -0.9320  0.2753 -0.0056
 6251SOL    HW124716   0.689   5.699  10.535 -1.6538  0.1218  1.4622
 6251SOL    HW224717   0.680   5.845  10.575 -0.6795  0.4298  0.5993
 6252SOL     OW24718  10.255   7.292   8.458  0.1737  0.0755 -0.2542
 6252SOL    HW124719  10.235   7.200   8.471  0.7049  0.2978  2.8895
 6252SOL    HW224720  10.182   7.338   8.499  1.2113  0.9909  0.6329
 6253SOL     OW24721   3.309   8.289   8.800 -0.6851 -0.1777 -0.4018
 6253SOL    HW124722   3.392   8.299   8.846 -1.8153  2.6744  1.3004
 6253SOL    HW224723   3.275   8.204   8.829  1.1847 -0.9777 -0.4547
 6254SOL     OW24724   7.206   3.547   3.713  0.2839  0.1220  0.0477
 6254SOL    HW124725   7.184   3.638   3.730 -0.1136  0.3214 -1.3812
 6254SOL    HW224726   7.298   3.538   3.737 -0.3906  0.1204  3.0001
 6255SOL     OW24727   5.846   3.880   5.902  0.0602  0.0818  0.0962
 6255SOL    HW124728   5.890   3.803   5.937  1.1548  0.4003 -0.5332
 6255SOL    HW224729   5.891   3.954   5.943 -0.3193  0.4027 -0.0588
 6256SOL     OW24730   2.456   9.560   1.172 -0.0918  0.1282 -0.1776
 6256SOL    HW124731   2.503   9.537   1.091 -1.4382 -1.3056 -0.6077
 6256SOL    HW224732   2.415   9.478   1.200  0.9931  0.3787  2.4546
 6257SOL     OW24733   3.193   2.282   5.467 -0.1894  0.2227 -0.2871
 6257SOL    HW124734   3.214   2.375   5.479  1.7936 -0.3231  0.9288
 6257SOL    HW224735   3.098   2.278   5.473 -0.3061  2.1691 -0.3067
 6258SOL     OW24736   6.325  10.690   0.317 -0.3665 -0.0669 -0.5518
 6258SOL    HW124737   6.338  10.780   0.289 -0.8681 -0.1294 -0.9994
 6258SOL    HW224738   6.272  10.650   0.248 -1.2541 -0.3476  0.2630
 6259SOL     OW24739   8.699  12.248   3.669  0.0558 -0.4477  0.2134
 6259SOL    HW124740   8.655  12.165   3.653  1.0979 -0.9889  0.0349
 6259SOL    HW224741   8.775  12.247   3.610 -1.0958  1.6264 -1.4595
 6260SOL     OW24742  12.140   0.396   8.713 -0.2715  0.3202 -0.4161
 6260SOL    HW124743  12.143   0.487   8.741 -0.3957  0.2396 -0.1382
 6260SOL    HW224744  12.091   0.351   8.782 -0.7346  0.1536 -0.8401
 6261SOL     OW24745   7.966   9.640   3.165  0.6165  0.5254  0.2109
 6261SOL    HW124746   7.953   9.734   3.155  1.4154  0.6601  0.3820
 6261SOL    HW224747   8.005   9.630   3.252 -0.8420 -0.1092  0.8275
 6262SOL     OW24748   7.405   6.525   1.650  0.5572 -0.2157 -0.1419
 6262SOL    HW124749   7.465   6.537   1.577 -0.5271  1.4550 -0.8266
 6262SOL    HW224750   7.396   6.613   1.689 -0.0561 -0.7795  1.0575
 6263SOL     OW24751  12.165   9.949   1.731  0.3699 -0.5330  0.1281
 6263SOL    HW124752  12.158   9.992   1.816 -1.2546 -1.8376  0.7285
 6263SOL    HW224753  12.075   9.923   1.711  0.2942  1.6256 -3.0659
 6264SOL     OW24754   6.011   7.899  11.406  0.2094  0.6110  0.4816
 6264SOL    HW124755   6.010   7.856  11.321  0.4572  0.6151  0.4770
 6264SOL    HW224756   6.059   7.980  11.392  3.4339 -0.9613  1.3661
 6265SOL     OW24757   4.349   2.920  11.917 -0.4356  0.8824 -0.1647
 6265SOL    HW124758   4.365   3.005  11.877 -0.3833  0.4190 -1.1511
 6265SOL    HW224759   4.433   2.894  11.955  0.0244  0.4933 -1.3971
 6266SOL     OW24760   1.655   4.042   6.605 -0.2599  0.1777  0.8508
 6266SOL    HW124761   1.621   3.965   6.651  0.5705  0.0539  1.2783
 6266SOL    HW224762   1.667   4.013   6.515 -2.1042  0.4812  0.4722
 6267SOL     OW24763   5.238  11.934   2.129  0.0343  0.3196  0.7072
 6267SOL    HW124764   5.263  11.852   2.086 -1.4178  0.0134  0.3957
 6267SOL    HW224765   5.309  11.951   2.190  0.7151 -0.7909  0.2672
 6268SOL     OW24766  11.973   8.456   5.601  0.3725 -0.5279 -0.6921
 6268SOL    HW124767  12.029   8.383   5.627  0.3589 -0.2318  0.2169
 6268SOL    HW224768  11.936   8.488   5.683 -0.7786 -0.4235 -1.2413
 6269SOL     OW24769   5.600  12.201  11.655 -0.1345 -0.3801 -0.3656
 6269SOL    HW124770   5.554  12.154  11.585 -0.1144  1.0770 -1.3872
 6269SOL    HW224771   5.658  12.262  11.609  0.0898  0.4139  0.9278
 6270SOL     OW24772   3.841   9.932   5.512  0.6237 -0.4260 -0.0001
 6270SOL    HW124773   3.802   9.988   5.580  0.2475 -1.3596  0.5664
 6270SOL    HW224774   3.784   9.945   5.436 -0.4592 -1.2909  0.6278
 6271SOL     OW24775  12.452   5.901   6.079  0.0307  0.0995  0.0844
 6271SOL    HW124776  12.369   5.859   6.101  0.0377  1.0335  2.1332
 6271SOL    HW224777  12.475   5.952   6.157  2.6114 -0.2471 -0.3347
 6272SOL     OW24778   4.245   4.478   3.808 -0.5369  0.5763 -0.1943
 6272SOL    HW124779   4.268   4.522   3.890 -0.7228 -0.6387  0.5378
 6272SOL    HW224780   4.162   4.518   3.781 -0.5208  0.9251  0.2682
 6273SOL     OW24781   1.986   7.714  10.196  0.1919 -0.2392  0.0210
 6273SOL    HW124782   1.918   7.742  10.257  0.0501 -1.5467  0.4947
 6273SOL    HW224783   1.947   7.641  10.148  0.3493  0.6661 -1.5778
 6274SOL     OW24784   3.735   8.254   0.347 -0.1907 -0.4557 -0.0898
 6274SOL    HW124785   3.660   8.214   0.304  0.7208 -1.1175 -1.1224
 6274SOL    HW224786   3.809   8.236   0.289  0.5079  1.5800  0.0713
 6275SOL     OW24787  11.914   4.403   1.507 -0.4428 -0.5118  0.0130
 6275SOL    HW124788  11.989   4.351   1.478 -0.8228 -0.7591 -0.5571
 6275SOL    HW224789  11.950   4.490   1.524 -0.4691  0.2358 -3.1124
 6276SOL     OW24790  12.299   5.435  11.964  0.0037  0.2618 -0.5107
 6276SOL    HW124791  12.241   5.359  11.961  0.1327  0.1594 -0.4129
 6276SOL    HW224792  12.341   5.430  12.050 -0.4507  0.7923 -0.2518
 6277SOL     OW24793   0.378   7.017  10.882  0.4052 -0.2298 -0.2663
 6277SOL    HW124794   0.303   7.074  10.900  0.5370  0.1641 -0.9387
 6277SOL    HW224795   0.379   6.954  10.955 -0.8230 -0.5024 -0.4751
 6278SOL     OW24796   5.015  11.874   5.944  0.1653  0.0236 -0.4250
 6278SOL    HW124797   4.976  11.822   6.014 -0.2050 -0.4599 -0.9840
 6278SOL    HW224798   4.946  11.883   5.878 -0.4555  2.8717  0.4558
 6279SOL     OW24799   4.732   6.823   0.847 -0.0654 -0.1375 -0.2914
 6279SOL    HW124800   4.748   6.778   0.765 -0.9438 -1.0494  0.0183
 6279SOL    HW224801   4.801   6.793   0.905 -1.2504 -2.0082  0.2449
 6280SOL     OW24802   0.355   0.018  12.435  0.4796 -0.4021 -0.4671
 6280SOL    HW124803   0.384  -0.033  12.510  0.2341 -1.5338 -1.1085
 6280SOL    HW224804   0.271   0.055  12.462  0.4534 -0.6965 -0.1370
 6281SOL     OW24805  10.239  11.630   2.438 -0.0642 -0.3511  0.2787
 6281SOL    HW124806  10.256  11.547   2.483 -3.4340 -0.6792  1.2698
 6281SOL    HW224807  10.238  11.695   2.508  0.3401  0.1439 -0.1693
 6282SOL     OW24808   1.302   8.109   9.918 -0.0179 -0.0232  0.1601
 6282SOL    HW124809   1.261   8.023   9.922 -0.0764  0.0496  1.4516
 6282SOL    HW224810   1.251   8.164   9.977  1.2223  0.3677  0.9105
 6283SOL     OW24811   9.120   6.365   3.940 -0.3647  0.7087 -0.3180
 6283SOL    HW124812   9.069   6.325   3.870  1.7603  1.3289 -2.3571
 6283SOL    HW224813   9.121   6.300   4.010 -2.1516 -0.1419 -1.0306
 6284SOL     OW24814   1.350   0.438   0.741 -0.2504  0.4912 -0.1949
 6284SOL    HW124815   1.378   0.419   0.652 -2.0887  1.0894 -0.9472
 6284SOL    HW224816   1.342   0.533   0.744 -1.5620  0.3909  0.1550
 6285SOL     OW24817   4.049  12.197   0.724 -0.1398  0.4694  0.6099
 6285SOL    HW124818   3.958  12.226   0.713 -0.0050  1.0063  0.8733
 6285SOL    HW224819   4.052  12.110   0.684 -0.7384  0.5056  0.4841
 6286SOL     OW24820   2.531   0.526   7.970 -0.1728  0.4913  0.7756
 6286SOL    HW124821   2.515   0.535   7.876  1.7207  0.3009  0.3972
 6286SOL    HW224822   2.447   0.497   8.006 -1.2090  1.5373 -0.6946
 6287SOL     OW24823   8.061   6.013   6.367  0.1408 -0.2204  0.3818
 6287SOL    HW124824   8.014   5.969   6.297  0.6345  0.0520 -0.1241
 6287SOL    HW224825   8.077   5.944   6.432  1.2219 -0.8942 -0.5548
 6288SOL     OW24826   6.759   1.579  10.186 -0.3926  0.0231  0.3109
 6288SOL    HW124827   6.848   1.546  10.193  0.8024  2.6682 -1.1671
 6288SOL    HW224828   6.757   1.657  10.242 -2.0779 -0.4715  1.0225
 6289SOL     OW24829   2.619  11.031   5.034  0.1260  0.2726 -0.1936
 6289SOL    HW124830   2.580  11.078   4.961  0.6785 -1.6687 -1.8180
 6289SOL    HW224831   2.698  11.081   5.056  0.5558  0.2710 -1.6687
 6290SOL     OW24832   5.407   0.850   4.654  0.0359 -0.6902  0.3926
 6290SOL    HW124833   5.416   0.828   4.747  0.5486  2.1516  1.1048
 6290SOL    HW224834   5.313   0.841   4.637  0.1589 -2.9051  0.6717
 6291SOL     OW24835  10.575   9.857  11.237  0.3868 -0.5508  0.4613
 6291SOL    HW124836  10.635   9.916  11.192  1.8377 -1.1347  1.5258
 6291SOL    HW224837  10.556   9.900  11.320  1.1134 -1.3376  1.0623
 6292SOL     OW24838   0.317   2.720   3.515  0.1955  0.4543  0.1558
 6292SOL    HW124839   0.248   2.786   3.513 -1.2352 -0.9940 -0.0515
 6292SOL    HW224840   0.364   2.736   3.597  0.3811  2.1837 -0.2626
 6293SOL     OW24841   5.134  11.398   8.196 -0.1928 -0.2411  0.0362
 6293SOL    HW124842   5.223  11.372   8.220 -0.2290 -0.5595 -0.1743
 6293SOL    HW224843   5.097  11.432   8.277 -0.0268 -0.5215  0.2311
 6294SOL     OW24844   8.147   9.062   9.940 -0.0767  0.2525 -0.1920
 6294SOL    HW124845   8.165   9.114  10.019  0.9278 -0.9096  0.3726
 6294SOL    HW224846   8.200   8.983   9.950  0.4389  0.2845 -2.2751
 6295SOL     OW24847   7.890   7.193   9.705  0.1287 -0.1076  0.8989
 6295SOL    HW124848   7.905   7.255   9.776 -1.6547 -0.1460  1.3441
 6295SOL    HW224849   7.850   7.117   9.747 -0.1561 -0.4860 -0.0292
 6296SOL     OW24850  11.555   1.700   7.982 -0.2562 -0.1083 -0.1515
 6296SOL    HW124851  11.511   1.761   7.923  1.6860  1.8261  0.2883
 6296SOL    HW224852  11.487   1.637   8.007 -2.0177  1.1429 -1.6036
 6297SOL     OW24853   8.482   4.493  10.369  0.5269  0.0831 -0.9482
 6297SOL    HW124854   8.536   4.507  10.447 -2.6362 -0.6168  1.6106
 6297SOL    HW224855   8.495   4.571  10.315  1.5417  1.4303  1.1264
 6298SOL     OW24856   7.083   6.762  10.074 -0.3791  0.6788  0.0089
 6298SOL    HW124857   7.141   6.812  10.016 -1.8045  0.8420 -1.3351
 6298SOL    HW224858   7.019   6.826  10.105 -0.4495  0.2881  0.6864
 6299SOL     OW24859   4.318   5.498   7.396  0.0996  0.0730 -0.6196
 6299SOL    HW124860   4.272   5.419   7.424 -0.5217  0.0337 -1.7190
 6299SOL    HW224861   4.378   5.468   7.328  0.6164  0.3875 -0.3058
 6300SOL     OW24862  10.562   0.023  10.109 -0.0905 -0.2521  0.2375
 6300SOL    HW124863  10.632   0.033  10.174 -1.2196 -2.7047  2.0318
 6300SOL    HW224864  10.560  -0.072  10.091 -0.5682  0.1997 -2.6202
 6301SOL     OW24865   0.946  11.162   7.801 -0.2249 -0.1258 -0.1796
 6301SOL    HW124866   0.880  11.116   7.852 -0.5879  0.2778 -0.2879
 6301SOL    HW224867   0.982  11.095   7.743 -0.1317 -0.4780  0.2806
 6302SOL     OW24868   1.223   6.370  11.224  0.1214  0.2495  0.2069
 6302SOL    HW124869   1.305   6.358  11.177  0.1849 -0.5059  0.4922
 6302SOL    HW224870   1.248   6.375  11.316 -0.0900  0.7518  0.2405
 6303SOL     OW24871   4.734  10.571   6.991  0.0236 -0.1055  0.0963
 6303SOL    HW124872   4.805  10.633   6.975 -1.1589  1.2863  0.0195
 6303SOL    HW224873   4.658  10.611   6.948 -1.1663 -0.7555  1.5370
 6304SOL     OW24874   5.297   8.350  11.953  0.3483 -0.1467 -0.4640
 6304SOL    HW124875   5.271   8.394  12.034  0.2013 -1.9878  0.5170
 6304SOL    HW224876   5.224   8.292  11.932  1.7959 -2.2462  0.0155
 6305SOL     OW24877  10.553   2.203  11.495  0.1642  0.1996  0.5963
 6305SOL    HW124878  10.553   2.289  11.452  0.2248  0.1764  0.5496
 6305SOL    HW224879  10.462   2.188  11.520  0.2948  0.7098  1.4467
 6306SOL     OW24880   2.741   4.380   9.682 -0.4094  0.9145  0.2236
 6306SOL    HW124881   2.782   4.437   9.617 -0.5550 -0.5743 -1.2309
 6306SOL    HW224882   2.650   4.372   9.653 -0.7617  1.1050  1.2465
 6307SOL     OW24883   6.129   0.774   7.094  0.4602 -0.0104 -0.2097
 6307SOL    HW124884   6.214   0.806   7.064 -1.0457  3.0406 -1.6266
 6307SOL    HW224885   6.100   0.716   7.024 -0.4305  2.4158 -1.9932
 6308SOL     OW24886  11.155   4.364   2.514  0.4120  0.4028 -0.1646
 6308SOL    HW124887  11.246   4.384   2.492 -0.0882  2.1982 -0.7982
 6308SOL    HW224888  11.125   4.442   2.561 -0.1178 -1.1736  2.2600
 6309SOL     OW24889   2.116   2.899   6.534  0.3749  0.0902  0.0384
 6309SOL    HW124890   2.124   2.975   6.477 -0.1395  0.1937  0.1004
 6309SOL    HW224891   2.184   2.839   6.504  0.3356  0.2903 -0.4596
 6310SOL     OW24892   7.790   5.920   9.022 -0.2639  0.0821  0.3715
 6310SOL    HW124893   7.882   5.893   9.025 -0.4552 -1.0655 -2.0053
 6310SOL    HW224894   7.742   5.841   8.996 -1.8103  0.8951  0.6270
 6311SOL     OW24895   1.106   4.787   4.016  0.1177  0.5442  0.4085
 6311SOL    HW124896   1.078   4.697   3.996 -0.8622  0.3148  2.4836
 6311SOL    HW224897   1.059   4.808   4.097  3.0371  1.6209  1.9373
 6312SOL     OW24898   3.440   3.749  11.963 -0.5858  0.0952  0.3850
 6312SOL    HW124899   3.381   3.674  11.954  0.0592 -0.2003 -1.9121
 6312SOL    HW224900   3.513   3.715  12.015 -0.1870 -0.9916 -0.8336
 6313SOL     OW24901   5.123  10.151   0.160 -0.8423  0.2356 -0.0959
 6313SOL    HW124902   5.067  10.227   0.174  1.4387  1.7835  1.2309
 6313SOL    HW224903   5.183  10.178   0.091 -0.4738 -0.6293 -0.1231
 6314SOL     OW24904   2.872   9.517   1.927 -0.2040  0.3629 -0.2505
 6314SOL    HW124905   2.894   9.447   1.866 -0.7157  0.5283 -0.6240
 6314SOL    HW224906   2.946   9.578   1.920 -0.2877  0.4082 -0.7413
 6315SOL     OW24907   4.440   8.060   0.712 -0.1283 -0.3869  0.1588
 6315SOL    HW124908   4.523   8.052   0.759 -0.7752 -2.1466  1.0843
 6315SOL    HW224909   4.379   8.094   0.776 -0.5338 -0.8111  0.0031
 6316SOL     OW24910   8.578  11.190   6.732 -0.4272  0.4290  0.2199
 6316SOL    HW124911   8.561  11.114   6.676 -0.2974 -0.0143  0.7759
 6316SOL    HW224912   8.653  11.165   6.785  1.3772  1.9709 -1.4549
 6317SOL     OW24913   1.162   6.741   6.313 -0.0646  0.2864 -0.0520
 6317SOL    HW124914   1.253   6.762   6.335 -0.5706  0.2111  2.3791
 6317SOL    HW224915   1.153   6.648   6.334 -0.3339 -0.1026 -1.7496
 6318SOL     OW24916  12.130   3.287   2.149  0.1278 -0.2202 -0.1343
 6318SOL    HW124917  12.162   3.198   2.168  2.9473  0.3527 -1.6428
 6318SOL    HW224918  12.162   3.339   2.223 -1.7474 -0.4158  0.8830
 6319SOL     OW24919   1.338  12.483   3.695  0.1596 -0.1121  0.3915
 6319SOL    HW124920   1.418  12.450   3.653 -0.4744  0.0354 -0.9742
 6319SOL    HW224921   1.267  12.441   3.647 -0.6216  1.3912  0.1763
 6320SOL     OW24922   4.663   4.623   2.717 -0.3977  0.0607  0.0178
 6320SOL    HW124923   4.597   4.638   2.649  0.2721  0.2160 -0.6091
 6320SOL    HW224924   4.740   4.671   2.687  0.0890 -0.3303  0.6137
 6321SOL     OW24925   9.576   7.916  11.880 -1.0052 -0.0955 -0.2186
 6321SOL    HW124926   9.561   7.929  11.973  0.5802  1.9698 -0.1785
 6321SOL    HW224927   9.528   7.987  11.837  0.2645  0.4954 -0.7434
 6322SOL     OW24928   8.321   6.704  10.377 -0.1150  0.3463 -0.8135
 6322SOL    HW124929   8.349   6.795  10.384  1.0335 -0.0728  0.3618
 6322SOL    HW224930   8.370   6.658  10.445 -0.2015 -1.2682 -1.7935
 6323SOL     OW24931   5.275   4.493   5.855 -0.2300 -0.2950 -0.3349
 6323SOL    HW124932   5.294   4.451   5.771  1.9754 -0.2103  0.0608
 6323SOL    HW224933   5.293   4.426   5.921  1.7385  0.6749  0.2092
 6324SOL     OW24934   5.309  10.266  11.756  0.0616 -0.2253  0.8440
 6324SOL    HW124935   5.301  10.326  11.682 -1.2657  1.2605  2.1202
 6324SOL    HW224936   5.357  10.192  11.721 -0.6372  0.3534 -1.5523
 6325SOL     OW24937   0.866   5.525  11.466  0.1540  0.3818 -0.5061
 6325SOL    HW124938   0.934   5.532  11.399  0.9527  0.4389  0.3077
 6325SOL    HW224939   0.803   5.462  11.429  0.0153  1.2201 -1.7852
 6326SOL     OW24940   6.500   6.800   6.405 -0.1490  0.0124  0.4403
 6326SOL    HW124941   6.526   6.746   6.331  0.2908  0.3667  0.3319
 6326SOL    HW224942   6.558   6.774   6.476  2.2394  2.4334 -0.4309
 6327SOL     OW24943   8.576   1.303   0.804  0.0861 -0.3179  0.1267
 6327SOL    HW124944   8.537   1.266   0.883  0.6378 -0.3989  0.3638
 6327SOL    HW224945   8.501   1.333   0.752 -0.2478  0.6185  1.1150
 6328SOL     OW24946  12.403   8.353   3.189 -0.0337  0.1292 -0.2950
 6328SOL    HW124947  12.384   8.401   3.109 -0.5108 -0.3749 -0.4873
 6328SOL    HW224948  12.374   8.263   3.171 -1.5158  0.3183  0.9388
 6329SOL     OW24949  11.633   9.610   9.173 -0.0261 -0.6647 -0.3156
 6329SOL    HW124950  11.696   9.619   9.102  0.7616  1.2116  0.5449
 6329SOL    HW224951  11.615   9.700   9.201 -0.0924 -1.3375  2.0311
 6330SOL     OW24952   4.855   9.748   0.947 -0.4646  0.0390  0.1226
 6330SOL    HW124953   4.890   9.692   1.016  0.6560  0.0423 -0.4273
 6330SOL    HW224954   4.858   9.836   0.983  1.8658  0.3026 -0.5345
 6331SOL     OW24955   0.541   9.601   0.984  0.3053  0.0395 -0.2315
 6331SOL    HW124956   0.470   9.604   1.049  0.0356 -3.7578 -0.1197
 6331SOL    HW224957   0.532   9.683   0.935 -2.5532  0.8521  1.4159
 6332SOL     OW24958   6.040   7.601   3.626  0.5828 -0.1357  0.5817
 6332SOL    HW124959   6.007   7.553   3.549 -1.0696  4.1368 -1.7016
 6332SOL    HW224960   5.975   7.583   3.694 -2.1005  1.4734 -1.3271
 6333SOL     OW24961   7.840  11.745   4.180  0.5648 -0.2521 -0.2286
 6333SOL    HW124962   7.897  11.726   4.255 -0.2872 -0.3587  0.4134
 6333SOL    HW224963   7.800  11.829   4.202 -0.4180 -0.7358 -0.0968
 6334SOL     OW24964   6.984   0.252  10.146 -0.5440 -0.0924 -0.7959
 6334SOL    HW124965   7.056   0.248  10.082 -1.5601 -1.3548 -1.9357
 6334SOL    HW224966   6.923   0.316  10.109 -0.2710  0.5886 -0.0964
 6335SOL     OW24967  10.096   9.797   0.405 -0.8760 -0.2433 -0.3593
 6335SOL    HW124968  10.186   9.808   0.435 -0.2822 -0.5403 -1.9492
 6335SOL    HW224969  10.080   9.872   0.347 -1.8380  0.0809  0.2949
 6336SOL     OW24970  11.042  11.547  10.415  0.2668  0.1976  0.4041
 6336SOL    HW124971  11.100  11.558  10.491 -0.7520  0.0298  1.2295
 6336SOL    HW224972  11.066  11.619  10.357 -0.1072  1.3909  1.6670
 6337SOL     OW24973   0.289   9.214   3.318  0.0395  0.2360 -0.0457
 6337SOL    HW124974   0.368   9.205   3.265 -0.7476  1.4983 -1.4823
 6337SOL    HW224975   0.285   9.131   3.367  0.5803 -1.1975 -2.2567
 6338SOL     OW24976   8.775   1.037   3.071  0.0295  0.2009 -0.5003
 6338SOL    HW124977   8.846   1.046   3.007  0.7364  0.9196  0.3685
 6338SOL    HW224978   8.717   1.111   3.053 -0.5323 -0.3882 -1.2120
 6339SOL     OW24979  11.577   2.711   6.472  0.0658 -0.3889  0.2303
 6339SOL    HW124980  11.563   2.784   6.532  0.5693 -0.6702  0.6991
 6339SOL    HW224981  11.669   2.687   6.484  0.0191 -0.8130 -0.2398
 6340SOL     OW24982   6.001   5.226   0.164 -0.7171  0.0770 -0.0433
 6340SOL    HW124983   5.942   5.244   0.090 -2.5049 -2.4255  0.6614
 6340SOL    HW224984   5.950   5.247   0.241 -1.7586 -4.2088  0.6886
 6341SOL     OW24985   6.029   5.326   6.757 -0.1643  0.1557 -0.3413
 6341SOL    HW124986   6.059   5.308   6.668 -0.3937 -0.4524 -0.2951
 6341SOL    HW224987   6.075   5.263   6.812 -1.1559 -0.4923 -0.2142
 6342SOL     OW24988  11.933   6.145   8.833  0.0136  0.2743 -0.2164
 6342SOL    HW124989  11.886   6.096   8.766 -0.9005  0.9090 -0.0672
 6342SOL    HW224990  12.026   6.125   8.818  0.0468  1.9523 -2.9806
 6343SOL     OW24991   3.952   8.807   9.339  0.3417 -0.1291 -0.0607
 6343SOL    HW124992   3.955   8.802   9.243 -0.0328 -3.8250  0.0000
 6343SOL    HW224993   3.859   8.814   9.360  0.1669 -2.2470  0.0235
 6344SOL     OW24994   0.041   0.007   9.971  0.0971 -0.1379  0.2947
 6344SOL    HW124995   0.115   0.050  10.015  0.4517 -1.0258  0.6033
 6344SOL    HW224996  -0.037   0.042  10.014  0.4154 -0.4909  1.1734
 6345SOL     OW24997   4.984   3.267   2.884 -0.0970 -0.0501 -0.7417
 6345SOL    HW124998   5.036   3.269   2.964  0.7420  0.5030 -1.2813
 6345SOL    HW224999   4.898   3.300   2.911  0.5635  1.4421 -0.3158
 6346SOL     OW25000   9.559   3.338   0.630 -0.3627 -0.4788 -0.4599
 6346SOL    HW125001   9.562   3.312   0.722 -3.7585  1.7368  0.4646
 6346SOL    HW225002   9.550   3.433   0.631 -2.8331 -0.5424 -2.9058
 6347SOL     OW25003  10.976   3.128   9.238  0.3040  0.0572 -0.0052
 6347SOL    HW125004  10.933   3.194   9.183 -1.2448  0.1803  1.2657
 6347SOL    HW225005  10.954   3.154   9.328  1.8768 -0.7220  0.6521
 6348SOL     OW25006   8.779   1.001   2.114 -0.3229 -0.3108  1.0345
 6348SOL    HW125007   8.786   1.097   2.113 -0.0742 -0.3073  2.4297
 6348SOL    HW225008   8.780   0.977   2.021  0.5286  0.9699  0.6789
 6349SOL     OW25009   7.607   3.733   0.971 -0.2522  0.1087 -0.2972
 6349SOL    HW125010   7.530   3.789   0.981  0.3463  0.8111  0.5518
 6349SOL    HW225011   7.676   3.779   1.018  1.1921  0.4188 -2.5706
 6350SOL     OW25012   4.136  12.423   3.398  0.0116 -0.2413  0.1750
 6350SOL    HW125013   4.155  12.489   3.331 -0.7079 -0.0369  0.1646
 6350SOL    HW225014   4.062  12.374   3.363  0.1320 -0.6363  0.4741
 6351SOL     OW25015   3.871   6.348  12.001 -0.0735 -0.3846  0.3022
 6351SOL    HW125016   3.941   6.355  11.936  0.2282 -1.1359  0.5361
 6351SOL    HW225017   3.910   6.301  12.074 -0.1831  1.1431  1.3866
 6352SOL     OW25018   7.244   3.258   1.402  0.3542  0.8976 -0.1099
 6352SOL    HW125019   7.268   3.316   1.329 -1.0187 -1.7438 -2.8953
 6352SOL    HW225020   7.306   3.185   1.396 -2.3684 -1.4817 -1.5658
 6353SOL     OW25021   1.435   4.331  11.197  0.3276 -0.1451 -0.7138
 6353SOL    HW125022   1.347   4.353  11.227  0.2873  2.3887 -2.3436
 6353SOL    HW225023   1.425   4.245  11.156 -1.1163 -0.4319  0.1567
 6354SOL     OW25024   3.253   8.185   2.760  0.5391  0.0809 -0.0385
 6354SOL    HW125025   3.199   8.132   2.700  0.0414 -1.4942  1.7032
 6354SOL    HW225026   3.337   8.140   2.764  0.1591 -0.5697  1.3547
 6355SOL     OW25027   2.465   1.964   5.141 -0.0271 -0.2747 -0.3960
 6355SOL    HW125028   2.512   1.904   5.198  1.4440 -0.2612 -1.5485
 6355SOL    HW225029   2.506   2.049   5.156 -0.8795  0.1099 -0.1316
 6356SOL     OW25030   5.894  10.064   3.004  0.0002 -0.2264  0.3598
 6356SOL    HW125031   5.959  10.079   3.072  1.2880  0.8549 -1.0280
 6356SOL    HW225032   5.919   9.980   2.965  0.3533  0.0123  0.0668
 6357SOL     OW25033  11.044  10.012  10.386 -0.7568  0.1569  0.9502
 6357SOL    HW125034  11.087  10.047  10.308  1.4497 -1.7672  1.1812
 6357SOL    HW225035  11.009  10.089  10.431 -0.5801  1.4734 -1.0415
 6358SOL     OW25036   8.030  10.298   2.008 -0.2987 -0.0605 -0.0094
 6358SOL    HW125037   7.971  10.272   2.079  0.6328 -0.3698  0.6648
 6358SOL    HW225038   8.102  10.344   2.051  0.3843 -0.4176 -0.7320
 6359SOL     OW25039   6.685   1.138   4.368 -0.7605  0.4247 -0.2491
 6359SOL    HW125040   6.749   1.066   4.369  1.0333  1.9452  0.4365
 6359SOL    HW225041   6.606   1.100   4.329  0.3578 -1.6983 -0.5723
 6360SOL     OW25042   0.623   6.604  11.961 -0.6570 -0.2114  0.4836
 6360SOL    HW125043   0.672   6.635  12.037 -0.8123 -2.1470  1.4467
 6360SOL    HW225044   0.553   6.668  11.950 -0.0654  0.6222  1.3586
 6361SOL     OW25045   7.913   8.510   9.533  0.3922 -0.3651 -0.4592
 6361SOL    HW125046   7.903   8.419   9.505 -1.2768 -0.0343 -1.0267
 6361SOL    HW225047   7.955   8.554   9.459 -1.1011 -0.1712 -1.2275
 6362SOL     OW25048   8.601   3.001   6.254  0.2858 -0.2399 -0.6252
 6362SOL    HW125049   8.645   3.074   6.212  1.4971  0.3834  1.5635
 6362SOL    HW225050   8.594   3.026   6.346  0.4042 -2.7071  0.1385
 6363SOL     OW25051  10.626  11.040   8.972 -0.0973  0.6488 -0.1145
 6363SOL    HW125052  10.711  11.006   9.001  0.7574  1.2499 -1.7512
 6363SOL    HW225053  10.611  10.997   8.887 -0.6043  1.8237 -0.6359
 6364SOL     OW25054   3.916  10.189  11.377  0.1935 -0.0088  0.4669
 6364SOL    HW125055   3.964  10.244  11.316 -0.0810  0.3214  0.5427
 6364SOL    HW225056   3.871  10.251  11.435  0.7898 -0.3132  1.2804
 6365SOL     OW25057   6.281   3.063   0.410 -0.7873  0.1681  0.2795
 6365SOL    HW125058   6.346   3.116   0.365 -1.0804  1.5980  1.4868
 6365SOL    HW225059   6.216   3.042   0.342 -0.0387  0.2831 -0.4905
 6366SOL     OW25060   1.743   4.241  10.490 -0.7728  0.5524  0.4391
 6366SOL    HW125061   1.657   4.251  10.451 -1.8091 -0.5223  2.3209
 6366SOL    HW225062   1.743   4.303  10.564 -0.0026  0.4015  0.5769
 6367SOL     OW25063   3.660   4.329   5.261 -0.1637 -0.2524 -0.0100
 6367SOL    HW125064   3.675   4.399   5.198  0.1758  0.1350  0.4960
 6367SOL    HW225065   3.661   4.249   5.208  0.5237  0.0317 -0.4387
 6368SOL     OW25066   1.922   6.636   4.113 -0.0322  0.2183 -0.4471
 6368SOL    HW125067   1.910   6.689   4.034  0.2852  0.8003 -0.1068
 6368SOL    HW225068   2.005   6.592   4.099  0.4474  0.9871 -0.0640
 6369SOL     OW25069   5.410   7.208   9.854  0.3709  0.0729 -0.5633
 6369SOL    HW125070   5.497   7.189   9.818 -0.2958 -1.0159 -1.6789
 6369SOL    HW225071   5.365   7.254   9.783  0.5341  2.1358  0.5930
 6370SOL     OW25072  10.619   1.570   6.242  0.0043  0.3751  0.1782
 6370SOL    HW125073  10.548   1.509   6.220 -0.5906  1.5370 -1.2516
 6370SOL    HW225074  10.582   1.657   6.226  2.0672  0.9923 -1.6917
 6371SOL     OW25075  12.317   7.064  10.654 -0.0787 -0.4199 -0.3211
 6371SOL    HW125076  12.223   7.075  10.639 -0.1347 -1.2601 -0.6710
 6371SOL    HW225077  12.331   6.970  10.644  1.2856 -0.0174 -3.1696
 6372SOL     OW25078   3.027   5.159   7.745  0.0088  0.5091 -0.3695
 6372SOL    HW125079   3.026   5.142   7.651 -1.3469 -1.3692 -0.0734
 6372SOL    HW225080   3.099   5.106   7.778 -1.0999 -0.8521 -0.0650
 6373SOL     OW25081   8.547   1.230   8.918  0.0921 -0.4675  0.2607
 6373SOL    HW125082   8.513   1.211   8.830  1.3635 -0.4639 -0.2553
 6373SOL    HW225083   8.641   1.212   8.911 -0.0950 -2.6504  2.2322
 6374SOL     OW25084   7.744  10.756   1.746  0.2917 -0.0278  0.2060
 6374SOL    HW125085   7.785  10.828   1.794  1.6851  0.2566 -1.3616
 6374SOL    HW225086   7.664  10.738   1.796  0.3923  1.9457  1.1871
 6375SOL     OW25087   3.430   5.571   9.989 -0.2159 -0.2547 -0.3717
 6375SOL    HW125088   3.466   5.658  10.006 -2.0078  0.9792 -2.4756
 6375SOL    HW225089   3.335   5.583   9.988 -0.5576 -2.4615  0.3207
 6376SOL     OW25090   9.430   8.773   7.496 -0.0419 -0.3013 -0.1305
 6376SOL    HW125091   9.479   8.835   7.551  1.6701 -1.7739  0.1083
 6376SOL    HW225092   9.443   8.804   7.407  0.1606  0.1147  0.0404
 6377SOL     OW25093   3.526   9.887   6.694  0.2135  0.4218  0.3368
 6377SOL    HW125094   3.615   9.862   6.669  0.3401  0.6864  0.5257
 6377SOL    HW225095   3.537   9.960   6.754 -0.0180 -1.0416  2.2761
 6378SOL     OW25096   0.240   7.944  12.459 -0.1127 -0.0014 -0.2034
 6378SOL    HW125097   0.204   7.952  12.371  0.0321 -1.2369 -0.3899
 6378SOL    HW225098   0.216   7.856  12.488 -1.1527  0.7610  1.4559
 6379SOL     OW25099   4.466   3.484   8.453 -0.4094 -0.2895 -0.3076
 6379SOL    HW125100   4.521   3.550   8.411  0.7731 -1.6165 -0.8862
 6379SOL    HW225101   4.491   3.402   8.412 -2.8856 -0.9476 -0.6551
 6380SOL     OW25102   3.945   0.310   1.356  0.3754 -0.0445  0.4840
 6380SOL    HW125103   3.884   0.337   1.288 -0.4015 -0.5317  0.9677
 6380SOL    HW225104   3.965   0.390   1.405  0.5880  0.2208 -0.0302
 6381SOL     OW25105   0.542  10.472  11.433 -0.0132  0.0526 -0.4695
 6381SOL    HW125106   0.490  10.488  11.511 -0.2531 -1.0434 -0.3913
 6381SOL    HW225107   0.604  10.403  11.458  1.4306  1.2489 -0.5844
 6382SOL     OW25108  12.244   2.299   3.612  0.6582  0.4471  0.5513
 6382SOL    HW125109  12.313   2.343   3.563 -1.1141  1.8919 -0.7637
 6382SOL    HW225110  12.249   2.208   3.583  0.8638  0.9000 -0.8807
 6383SOL     OW25111   5.276   5.208   5.741  0.3440 -0.0472 -0.1290
 6383SOL    HW125112   5.224   5.133   5.713 -0.2179 -0.0563  0.8935
 6383SOL    HW225113   5.365   5.187   5.713 -0.2216  0.1531 -2.2623
 6384SOL     OW25114   0.366   2.836   2.575  0.0347 -0.0092 -0.5548
 6384SOL    HW125115   0.417   2.876   2.504  0.8731  0.9411  0.5624
 6384SOL    HW225116   0.277   2.869   2.561 -0.0918 -0.7962 -1.8567
 6385SOL     OW25117   6.309   7.583   3.691  0.5991 -0.0929 -0.3552
 6385SOL    HW125118   6.323   7.490   3.678  1.6292 -0.2935  1.6933
 6385SOL    HW225119   6.216   7.597   3.672  0.5235 -1.4358 -1.0599
 6386SOL     OW25120   4.850   1.310   8.866  0.4080 -0.0672 -0.0319
 6386SOL    HW125121   4.803   1.380   8.821 -1.3417  0.2680  2.1469
 6386SOL    HW225122   4.790   1.235   8.862 -0.0045  0.0853  1.9762
 6387SOL     OW25123  11.628  12.377  10.403  0.0657 -0.1498  0.1685
 6387SOL    HW125124  11.699  12.440  10.393 -0.9151  0.8644 -0.6259
 6387SOL    HW225125  11.653  12.303  10.347  1.1917 -0.4840  1.0626
 6388SOL     OW25126   8.770  12.135   1.610  0.0799  0.2863  0.4341
 6388SOL    HW125127   8.677  12.115   1.612  0.3048 -0.8216  0.5969
 6388SOL    HW225128   8.812  12.061   1.655  0.8080  2.1739  3.1619
 6389SOL     OW25129  11.036   3.499  10.049  0.6987  0.3230  0.4536
 6389SOL    HW125130  11.127   3.479  10.029  0.8029  0.3378  0.9011
 6389SOL    HW225131  11.033   3.594  10.059  0.7514  0.2759  0.9783
 6390SOL     OW25132   6.279   1.402   2.647  0.4790 -0.5943  0.0493
 6390SOL    HW125133   6.281   1.350   2.727 -1.5238  0.9651  1.1961
 6390SOL    HW225134   6.322   1.484   2.670 -1.4378  0.4685  0.0754
 6391SOL     OW25135   5.151   0.965  12.352  0.0192  0.0496  0.0744
 6391SOL    HW125136   5.243   0.943  12.361 -0.1364  0.1745  2.8157
 6391SOL    HW225137   5.144   1.056  12.382 -0.8908  0.3138 -0.8683
 6392SOL     OW25138  11.029   3.466   7.269 -0.2306  0.3803 -0.3546
 6392SOL    HW125139  10.942   3.432   7.291  0.5009 -1.0606  0.4229
 6392SOL    HW225140  11.015   3.561   7.258 -1.5747  0.4638  1.5456
 6393SOL     OW25141   0.926  11.387  11.036 -0.3653 -0.0712  0.1589
 6393SOL    HW125142   0.911  11.321  10.969  0.9426 -0.4635  0.2244
 6393SOL    HW225143   0.972  11.458  10.989 -0.4809  0.1647  0.4001
 6394SOL     OW25144  12.125   0.163   5.600 -0.3395  0.3751  0.6466
 6394SOL    HW125145  12.139   0.206   5.684  0.1445 -0.3142  0.9322
 6394SOL    HW225146  12.119   0.070   5.622  4.3232 -0.4441 -0.4594
 6395SOL     OW25147   3.907   2.076   3.706  0.3808 -0.2429  0.4289
 6395SOL    HW125148   3.891   2.000   3.649  1.6274 -0.1961 -0.0032
 6395SOL    HW225149   3.856   2.146   3.666  0.2582 -0.5243  0.0832
 6396SOL     OW25150   7.187   6.151   1.795 -0.1142 -0.0084  0.2710
 6396SOL    HW125151   7.226   6.170   1.709  1.4407  0.5917  1.0829
 6396SOL    HW225152   7.198   6.232   1.845 -2.2251  0.1137  0.6402
 6397SOL     OW25153   0.836  10.957   5.656 -0.4386 -0.2205 -0.1074
 6397SOL    HW125154   0.848  10.864   5.675  0.0453 -0.2344 -0.4723
 6397SOL    HW225155   0.806  10.995   5.739 -1.0813 -0.7770 -0.0763
 6398SOL     OW25156  10.449   8.992   1.416 -0.9410 -0.2323 -0.1307
 6398SOL    HW125157  10.483   8.950   1.336  0.8230 -1.3823  1.1545
 6398SOL    HW225158  10.454   8.924   1.483 -2.2570  0.7526  1.0203
 6399SOL     OW25159  12.075   3.356  10.203  0.0777 -0.0776  0.1166
 6399SOL    HW125160  12.048   3.376  10.113  1.0414 -1.1395 -0.4396
 6399SOL    HW225161  12.003   3.305  10.240 -0.1270 -0.0266 -0.2084
 6400SOL     OW25162  11.802   3.753   2.365 -0.3924 -0.2426 -0.2832
 6400SOL    HW125163  11.785   3.665   2.332  0.3028 -0.8790  0.9781
 6400SOL    HW225164  11.791   3.810   2.289  0.1975 -1.5357 -1.3681
 6401SOL     OW25165   5.056   5.609   4.741  0.1253 -0.7285  0.3902
 6401SOL    HW125166   5.037   5.683   4.683  0.5596 -0.3595  0.7055
 6401SOL    HW225167   5.146   5.584   4.719  0.5098 -0.2029  1.3045
 6402SOL     OW25168   6.200   0.002   0.991  0.6239  0.8477  0.1873
 6402SOL    HW125169   6.293  -0.011   0.973  0.4719  2.8135 -2.7272
 6402SOL    HW225170   6.157  -0.075   0.953  0.9490  0.9108 -0.3203
 6403SOL     OW25171   8.446   9.775  12.419 -0.1737  0.2442 -0.2711
 6403SOL    HW125172   8.464   9.681  12.417  2.9087  0.7120  0.3420
 6403SOL    HW225173   8.485   9.809  12.338  1.3718  1.2996  0.8522
 6404SOL     OW25174   7.472   0.089   8.144 -0.6161  0.0503  0.2467
 6404SOL    HW125175   7.514   0.005   8.161 -2.5887 -1.6321 -2.4722
 6404SOL    HW225176   7.534   0.136   8.088  0.1507  0.1280  1.1356
 6405SOL     OW25177   0.440   0.763   1.887 -0.1644  0.1912  0.1323
 6405SOL    HW125178   0.421   0.710   1.965 -1.7515  0.0208 -0.3150
 6405SOL    HW225179   0.438   0.700   1.815  2.1440  0.2045  0.0092
 6406SOL     OW25180   7.239   0.894  10.864 -0.3499  0.5357  0.1693
 6406SOL    HW125181   7.308   0.838  10.901 -0.7753  0.0768  0.2771
 6406SOL    HW225182   7.268   0.983  10.883  0.6503  0.3783 -0.5590
 6407SOL     OW25183   4.255   1.494   3.627 -0.0609  0.2675 -0.5613
 6407SOL    HW125184   4.161   1.513   3.620 -0.2939 -0.8713 -0.8607
 6407SOL    HW225185   4.258   1.401   3.651  0.9861  0.5509  0.4666
 6408SOL     OW25186   0.575   7.074   3.969  0.4842  0.4601 -0.5394
 6408SOL    HW125187   0.494   7.037   4.005  0.1315  0.5745 -1.1894
 6408SOL    HW225188   0.629   6.998   3.947  0.1826  0.3496 -0.9193
 6409SOL     OW25189   5.548   4.758   5.583 -0.3350 -0.3942 -0.0155
 6409SOL    HW125190   5.531   4.762   5.489 -0.1055  0.1246 -0.0363
 6409SOL    HW225191   5.492   4.687   5.615 -2.1583  0.9283 -0.1540
 6410SOL     OW25192   8.270   6.306   8.122  0.3434  0.7454  0.2271
 6410SOL    HW125193   8.333   6.310   8.194 -0.7227 -0.6826  1.3006
 6410SOL    HW225194   8.193   6.352   8.155  0.3949  1.4923 -0.6481
 6411SOL     OW25195  10.165   6.898  11.927 -1.0938  0.0867  0.4035
 6411SOL    HW125196  10.230   6.831  11.905 -0.2196  1.4479 -1.3068
 6411SOL    HW225197  10.086   6.848  11.946 -0.0095 -1.5235  0.9344
 6412SOL     OW25198   3.384   5.456   2.972 -0.0056 -0.1675  0.2085
 6412SOL    HW125199   3.298   5.443   3.012 -1.1439  2.0570 -1.2685
 6412SOL    HW225200   3.367   5.453   2.878  1.4972  0.4407 -0.1163
 6413SOL     OW25201   1.423   5.075   1.890  0.0501  0.6265  0.1314
 6413SOL    HW125202   1.517   5.068   1.901 -0.1087  0.4714  1.5753
 6413SOL    HW225203   1.405   5.032   1.806  1.4853  2.5600 -1.2412
 6414SOL     OW25204   6.878   1.111   9.018  0.5004  0.0666  0.3251
 6414SOL    HW125205   6.787   1.134   9.036  0.5671 -0.1224  0.9202
 6414SOL    HW225206   6.914   1.086   9.103  0.4688 -2.1181 -0.2339
 6415SOL     OW25207   5.551   9.684   8.248 -0.1965  0.4186 -0.6940
 6415SOL    HW125208   5.638   9.663   8.282 -1.1030  0.3016  1.7459
 6415SOL    HW225209   5.549   9.780   8.247  0.1236  0.4268 -1.2859
 6416SOL     OW25210   2.356   3.453   8.896  0.4754 -0.4988  0.1424
 6416SOL    HW125211   2.347   3.410   8.812 -2.1633  0.4484 -0.1622
 6416SOL    HW225212   2.318   3.392   8.959 -1.5269  0.5119 -0.0227
 6417SOL     OW25213   1.533   3.406  12.161  0.4004 -0.5240 -0.2048
 6417SOL    HW125214   1.626   3.422  12.181  0.1938 -0.6219  0.9038
 6417SOL    HW225215   1.496   3.377  12.244 -0.7832  0.1922 -0.4608
 6418SOL     OW25216   2.890  10.698  11.965 -0.1365  0.3573  0.0482
 6418SOL    HW125217   2.884  10.693  12.060  2.7116 -2.5348  0.2489
 6418SOL    HW225218   2.979  10.727  11.948 -0.3000 -0.0313 -1.7211
 6419SOL     OW25219  11.636   6.630   0.030 -0.3259  0.5108  0.8304
 6419SOL    HW125220  11.700   6.694  -0.001  0.0076 -0.4323 -0.5555
 6419SOL    HW225221  11.582   6.611  -0.047  0.1065 -1.4594  0.9574
 6420SOL     OW25222   3.687   4.323   6.877  0.1691 -0.4051  0.4006
 6420SOL    HW125223   3.780   4.326   6.901  0.0389 -0.3270  0.9086
 6420SOL    HW225224   3.663   4.231   6.887  0.2821 -0.4886 -0.0865
 6421SOL     OW25225   9.954  10.421   2.613 -1.0203  0.0867 -0.9699
 6421SOL    HW125226  10.002  10.437   2.531 -0.0820  1.1269 -0.2430
 6421SOL    HW225227   9.932  10.508   2.645 -0.2066 -0.2373  0.5583
 6422SOL     OW25228  11.117  11.972   7.431  0.3075  0.3476  0.5300
 6422SOL    HW125229  11.060  11.976   7.508  0.1859  0.4212  0.4370
 6422SOL    HW225230  11.152  12.061   7.423 -0.6941  0.6933 -0.2616
 6423SOL     OW25231   0.959   2.828   0.668 -0.8059  0.6185 -0.3208
 6423SOL    HW125232   0.954   2.743   0.712 -0.6950  0.2672 -0.9733
 6423SOL    HW225233   1.048   2.858   0.684 -0.4638  0.0559 -1.0772
 6424SOL     OW25234  11.651  11.724  11.762  0.0332 -0.7610 -0.1139
 6424SOL    HW125235  11.683  11.718  11.672 -0.5845 -0.2670 -0.3754
 6424SOL    HW225236  11.605  11.641  11.777 -0.5927 -0.4976 -0.5484
 6425SOL     OW25237   4.722   6.769   5.527 -0.1482  0.2953 -0.9757
 6425SOL    HW125238   4.672   6.812   5.597 -1.5150  0.1033 -1.8065
 6425SOL    HW225239   4.810   6.760   5.564 -0.1655  2.4843 -0.2199
 6426SOL     OW25240   6.587   2.825   9.408  0.4965  0.6959  0.7717
 6426SOL    HW125241   6.668   2.864   9.441  0.1620  0.4156  1.9946
 6426SOL    HW225242   6.521   2.849   9.473 -0.7344  2.1170 -0.9104
 6427SOL     OW25243  10.062   3.057   9.049  0.2385 -0.5627  0.0052
 6427SOL    HW125244  10.112   3.054   8.967  0.1046 -1.1822 -0.0598
 6427SOL    HW225245   9.971   3.050   9.023  0.1911 -0.7083  0.2015
 6428SOL     OW25246   5.972   3.795  10.962  0.5218 -0.2824 -0.3969
 6428SOL    HW125247   5.986   3.861  11.030 -3.1775  1.7666 -1.3063
 6428SOL    HW225248   5.911   3.733  11.001  0.1098 -0.3384 -1.1081
 6429SOL     OW25249   1.116  12.166   8.909 -0.0257  0.5704  0.3933
 6429SOL    HW125250   1.093  12.114   8.986  0.0281  2.2984  1.6468
 6429SOL    HW225251   1.210  12.153   8.898 -0.1964 -0.4193  0.0289
 6430SOL     OW25252   9.619  10.371   7.273 -0.2454  0.4711  0.2961
 6430SOL    HW125253   9.582  10.442   7.324  2.0214  1.3118  0.8847
 6430SOL    HW225254   9.695  10.410   7.229 -0.2099 -1.0569 -1.1149
 6431SOL     OW25255  12.363  11.945   3.158  0.8607  0.3462  0.3811
 6431SOL    HW125256  12.398  12.031   3.181 -0.1514  1.2928 -1.3618
 6431SOL    HW225257  12.426  11.883   3.193  3.2696  1.8921 -0.9655
 6432SOL     OW25258   2.742  12.107   3.789 -0.2995 -0.2156 -0.7501
 6432SOL    HW125259   2.783  12.137   3.707 -1.2771 -0.6459 -1.4205
 6432SOL    HW225260   2.697  12.184   3.823 -0.0181 -0.0743 -0.6907
 6433SOL     OW25261   3.710   6.461   8.802 -0.3346 -0.6210 -0.2108
 6433SOL    HW125262   3.794   6.422   8.829 -0.2623 -1.1254 -1.1112
 6433SOL    HW225263   3.705   6.442   8.708 -0.5077  1.1837 -0.5939
 6434SOL     OW25264  11.368   9.948   9.531 -0.4690  0.3204  0.2963
 6434SOL    HW125265  11.459   9.925   9.554 -1.2525 -1.6777  1.7910
 6434SOL    HW225266  11.374   9.986   9.444  1.7673 -0.2392  0.1330
 6435SOL     OW25267   9.772   1.292  11.436 -0.2910  0.3634 -0.2210
 6435SOL    HW125268   9.680   1.296  11.410 -0.4597 -0.3363  0.2435
 6435SOL    HW225269   9.770   1.267  11.528  0.3626  0.5468 -0.1508
 6436SOL     OW25270   5.424  12.294   1.057  0.2171  0.5194 -0.0458
 6436SOL    HW125271   5.439  12.203   1.031  1.9692  1.4852 -2.8141
 6436SOL    HW225272   5.508  12.323   1.091 -0.6771  0.8122  2.0603
 6437SOL     OW25273   4.055   9.625   0.349  0.3768 -0.4114 -0.3156
 6437SOL    HW125274   3.961   9.605   0.355  0.3310 -0.5871 -1.3506
 6437SOL    HW225275   4.058   9.720   0.337  0.3133 -0.4237 -0.4367
 6438SOL     OW25276  10.757   6.093   2.687 -0.2864 -0.3308  0.2223
 6438SOL    HW125277  10.804   6.027   2.738  1.5755 -0.1167 -1.1141
 6438SOL    HW225278  10.786   6.078   2.597 -1.3909  1.0302 -0.3860
 6439SOL     OW25279  11.107   8.039  11.788 -0.0025 -0.0770 -0.1237
 6439SOL    HW125280  11.022   7.996  11.794  0.1745 -0.3985  0.0817
 6439SOL    HW225281  11.102   8.089  11.707 -0.4999  0.1517  0.0449
 6440SOL     OW25282   9.488   0.951  11.259 -0.2921 -0.9707 -0.0901
 6440SOL    HW125283   9.395   0.931  11.266  0.0954 -3.2710 -0.7199
 6440SOL    HW225284   9.532   0.866  11.266  1.7006 -0.0885 -0.9706
 6441SOL     OW25285  10.126   2.818   2.380  0.0900 -0.2668 -0.4300
 6441SOL    HW125286  10.116   2.862   2.465 -0.3219 -1.0368 -0.0687
 6441SOL    HW225287  10.221   2.817   2.365  0.0967  0.9767 -0.5851
 6442SOL     OW25288   4.455   7.156   2.255 -0.1687  0.6387 -0.4342
 6442SOL    HW125289   4.496   7.072   2.236 -1.0910  0.0442  0.1000
 6442SOL    HW225290   4.367   7.133   2.285 -0.1673  1.7422  0.4866
 6443SOL     OW25291  12.059   4.577  10.068 -0.5687 -0.1303 -0.5902
 6443SOL    HW125292  12.013   4.657  10.045  0.2830  0.4723 -0.2213
 6443SOL    HW225293  12.141   4.606  10.106  0.1866 -1.1803 -1.3490
 6444SOL     OW25294   2.066   8.004   4.232 -0.0848  0.3569 -0.0593
 6444SOL    HW125295   2.033   7.928   4.280  0.9312 -0.4942 -0.6740
 6444SOL    HW225296   2.116   8.054   4.297  0.3826 -0.2225  0.0328
 6445SOL     OW25297  11.846   2.189   7.327 -0.5830 -0.2206  0.0735
 6445SOL    HW125298  11.765   2.207   7.279 -0.6325 -0.6418 -0.0044
 6445SOL    HW225299  11.880   2.108   7.288  0.9657  1.0142 -1.3201
 6446SOL     OW25300   9.394   1.771   3.685 -0.0110  0.5678 -0.4175
 6446SOL    HW125301   9.489   1.783   3.683  0.3226 -0.6265  2.6801
 6446SOL    HW225302   9.363   1.839   3.745 -1.0615  0.5639 -0.9428
 6447SOL     OW25303  10.083   8.955  10.720 -0.0644  0.1579  0.3371
 6447SOL    HW125304  10.033   8.919  10.794  1.6563  0.4344  1.7090
 6447SOL    HW225305  10.163   8.991  10.760  0.7992  0.5884 -1.6369
 6448SOL     OW25306   6.509  11.744   3.975  0.5083  0.1686 -0.4587
 6448SOL    HW125307   6.419  11.715   3.958  0.1267  0.7759  0.4752
 6448SOL    HW225308   6.563  11.671   3.945 -0.3661 -0.8890  0.4551
 6449SOL     OW25309  10.019   5.759  11.801  0.2153  0.5063 -0.3767
 6449SOL    HW125310  10.075   5.834  11.820  0.4020  0.7456 -1.7942
 6449SOL    HW225311   9.987   5.774  11.712  0.2367 -1.0649 -0.6874
 6450SOL     OW25312   9.658   2.062  10.861 -0.2340 -0.0796  0.2425
 6450SOL    HW125313   9.686   2.115  10.936 -2.6306  0.4659  0.8367
 6450SOL    HW225314   9.608   1.990  10.900  1.0571 -1.5586 -0.7011
 6451SOL     OW25315   4.279   6.691   7.103  0.0199 -0.5293  0.1688
 6451SOL    HW125316   4.268   6.710   7.010  3.9207  0.0553 -0.3340
 6451SOL    HW225317   4.283   6.595   7.107  3.0809 -0.5608 -0.9230
 6452SOL     OW25318   7.565  11.244   0.112  0.3834 -0.0352  0.0582
 6452SOL    HW125319   7.584  11.318   0.054 -0.2845 -1.0966 -1.5909
 6452SOL    HW225320   7.487  11.272   0.161  0.6414  0.6701  0.0792
 6453SOL     OW25321   7.171   9.026  10.216 -0.4861  0.2349 -0.1490
 6453SOL    HW125322   7.243   9.058  10.162 -0.5476 -1.7823 -1.5333
 6453SOL    HW225323   7.203   8.945  10.254 -0.9235  0.9606  1.8817
 6454SOL     OW25324  12.333  10.581   9.576  0.2412 -0.3872 -0.0961
 6454SOL    HW125325  12.350  10.663   9.529 -2.8972  0.0054 -0.7432
 6454SOL    HW225326  12.300  10.521   9.509 -0.8452 -1.0155  0.9673
 6455SOL     OW25327  12.014  10.753   7.882 -0.0978 -0.1271 -0.3917
 6455SOL    HW125328  11.975  10.836   7.909  1.3328  1.2353 -2.1822
 6455SOL    HW225329  11.956  10.720   7.813  1.3980  1.6126 -2.6540
 6456SOL     OW25330  12.448   2.905   0.503 -0.2467 -0.0589 -0.3458
 6456SOL    HW125331  12.377   2.899   0.567  1.6516 -2.4994  1.7755
 6456SOL    HW225332  12.406   2.938   0.424 -3.8721 -1.7434  0.6247
 6457SOL     OW25333   9.131  11.048   3.219  0.0565  0.3647  0.4350
 6457SOL    HW125334   9.105  11.092   3.138 -0.0113 -0.3038  0.0889
 6457SOL    HW225335   9.052  11.050   3.273  0.4492  1.9374  1.0083
 6458SOL     OW25336   9.759   4.446   1.692  0.8222 -0.1103  0.5578
 6458SOL    HW125337   9.811   4.366   1.694  1.2811  0.1975  1.1014
 6458SOL    HW225338   9.710   4.440   1.610  0.4383 -1.1988  0.8423
 6459SOL     OW25339   6.875   4.236   9.393 -0.1000 -0.5051 -0.0568
 6459SOL    HW125340   6.872   4.286   9.312 -1.3329  0.9035  0.7981
 6459SOL    HW225341   6.966   4.240   9.421  0.0783  0.0893 -0.7141
 6460SOL     OW25342   6.768  10.132   5.294 -1.2780 -0.6827 -0.0334
 6460SOL    HW125343   6.746  10.155   5.384 -1.3470 -1.8372  0.2660
 6460SOL    HW225344   6.831  10.060   5.303  0.5297  0.7288 -0.8960
 6461SOL     OW25345   1.047   8.851  10.460 -0.0165 -0.5189  0.1916
 6461SOL    HW125346   1.033   8.871  10.367  1.6589  0.3610  0.0976
 6461SOL    HW225347   0.992   8.914  10.506 -0.8128 -0.9199 -0.1882
 6462SOL     OW25348   7.954  10.533   7.101  0.6668  0.2814  0.6170
 6462SOL    HW125349   8.028  10.495   7.149 -0.2566 -0.0773  1.8102
 6462SOL    HW225350   7.883  10.533   7.165 -0.7412 -0.6196 -0.8901
 6463SOL     OW25351   4.511   4.686   3.975 -0.2713  0.5963  0.1617
 6463SOL    HW125352   4.485   4.657   4.063  0.4064  1.3755  0.6318
 6463SOL    HW225353   4.537   4.605   3.931  1.8347  0.4561  1.5405
 6464SOL     OW25354   7.720   6.086   5.064  0.0079  0.1846 -0.3733
 6464SOL    HW125355   7.789   6.150   5.047  0.4474 -0.3526 -0.6394
 6464SOL    HW225356   7.642   6.124   5.023 -0.4969  1.9741  2.0191
 6465SOL     OW25357   7.855   8.856   2.529 -0.2769 -0.0719  0.5133
 6465SOL    HW125358   7.879   8.785   2.469 -1.1517  0.9541 -1.1379
 6465SOL    HW225359   7.768   8.884   2.499 -0.6818  0.5942  2.1957
 6466SOL     OW25360   6.042   0.288   9.773  0.2808  1.4204 -0.1127
 6466SOL    HW125361   6.120   0.257   9.820 -0.4490  0.5323  0.5387
 6466SOL    HW225362   6.025   0.374   9.810  0.8539  1.5510 -0.1410
 6467SOL     OW25363  10.628   7.328  11.212  0.1616  0.2856 -0.2515
 6467SOL    HW125364  10.674   7.245  11.228 -0.6993 -0.3676 -1.0133
 6467SOL    HW225365  10.635   7.376  11.294  2.2751  0.2585 -0.3766
 6468SOL     OW25366   7.536   1.971  12.460  0.0476 -0.4299  0.1902
 6468SOL    HW125367   7.453   2.011  12.483  0.6895  0.8604  0.3334
 6468SOL    HW225368   7.565   1.926  12.540  0.9807  1.7864  1.1824
 6469SOL     OW25369  11.866   2.325  10.550 -0.0317  0.1923  0.3940
 6469SOL    HW125370  11.896   2.241  10.514 -1.6856 -0.6192  0.7700
 6469SOL    HW225371  11.935   2.351  10.611  1.0374 -0.3059 -0.5539
 6470SOL     OW25372   2.772   3.663   6.125 -0.5471 -0.0336 -0.5178
 6470SOL    HW125373   2.834   3.711   6.180  0.3756 -3.1480  1.4001
 6470SOL    HW225374   2.813   3.658   6.039  0.2122  0.8818 -0.2238
 6471SOL     OW25375   3.549   0.070   1.875  0.3890 -0.2869  0.6337
 6471SOL    HW125376   3.635   0.037   1.902  0.9642  0.8797  0.2883
 6471SOL    HW225377   3.558   0.165   1.876 -0.6177 -0.1553 -0.3477
 6472SOL     OW25378   0.048   6.785   9.229  0.0248  0.2376  0.1230
 6472SOL    HW125379  -0.038   6.764   9.193  0.4722  1.1536 -1.6539
 6472SOL    HW225380   0.060   6.724   9.301 -1.1017 -1.5755 -1.1286
 6473SOL     OW25381  11.132   2.298   2.114 -0.3891 -0.1867 -0.6013
 6473SOL    HW125382  11.217   2.291   2.071 -1.0915 -1.6583 -1.8364
 6473SOL    HW225383  11.122   2.216   2.162 -1.9631 -0.9841 -2.1761
 6474SOL     OW25384   0.554   4.920   5.386 -0.3712 -0.0477 -0.0006
 6474SOL    HW125385   0.527   4.854   5.450  1.7411 -0.3027  0.7135
 6474SOL    HW225386   0.561   4.871   5.303  0.0462 -0.4760  0.2786
 6475SOL     OW25387   5.825   0.257  11.065  0.5504 -0.4734  0.5109
 6475SOL    HW125388   5.767   0.302  11.126  0.1578  1.3576 -1.1181
 6475SOL    HW225389   5.903   0.313  11.060  0.3461 -0.2570 -1.0183
 6476SOL     OW25390   9.594   7.456  12.175  0.1761  0.3660  0.1140
 6476SOL    HW125391   9.596   7.435  12.268  0.2853  0.8008  0.2124
 6476SOL    HW225392   9.532   7.528  12.168  0.3499  0.4967 -0.1141
 6477SOL     OW25393   4.839   0.335   3.515  0.3365 -0.1797  0.0414
 6477SOL    HW125394   4.809   0.405   3.574 -0.2920  1.1194 -1.7406
 6477SOL    HW225395   4.882   0.273   3.573  0.4262  1.4024  1.7827
 6478SOL     OW25396  11.448   0.094   4.188  0.5014 -0.2260 -0.3646
 6478SOL    HW125397  11.453   0.091   4.283  0.4137 -1.1731 -0.3834
 6478SOL    HW225398  11.510   0.027   4.158  1.3466  0.8012 -1.0101
 6479SOL     OW25399   4.128   4.931   5.531 -0.0552  0.5461 -0.0993
 6479SOL    HW125400   4.062   4.888   5.584  1.3078 -1.8491 -0.2236
 6479SOL    HW225401   4.091   4.932   5.443 -0.5568  0.6876  0.1075
 6480SOL     OW25402   0.096  11.300   2.471 -0.4177  0.5237  0.5385
 6480SOL    HW125403   0.152  11.377   2.465  0.1875  0.0244 -0.8559
 6480SOL    HW225404   0.095  11.278   2.564 -0.9937  2.4632  1.0283
 6481SOL     OW25405   8.306  11.481   5.659 -0.0565 -0.1423  0.7357
 6481SOL    HW125406   8.372  11.546   5.682 -0.8200  0.9244  0.0066
 6481SOL    HW225407   8.354  11.415   5.609  1.1987 -1.4000  3.3601
 6482SOL     OW25408   0.935   6.401   0.803 -0.6476 -0.5488 -0.1800
 6482SOL    HW125409   1.027   6.403   0.830 -0.6957  0.0893 -0.0519
 6482SOL    HW225410   0.886   6.408   0.884 -0.8214 -1.1957 -0.2204
 6483SOL     OW25411   3.631   2.504   8.261 -0.0130  0.9034  0.1593
 6483SOL    HW125412   3.544   2.543   8.260  0.2198  1.4279 -0.1958
 6483SOL    HW225413   3.659   2.504   8.170 -1.1973 -2.8872 -0.3967
 6484SOL     OW25414   7.187   3.560   9.256  0.1411  0.1028 -0.1483
 6484SOL    HW125415   7.213   3.475   9.292 -2.5932 -0.5400  0.5632
 6484SOL    HW225416   7.241   3.571   9.178  1.1296 -1.8931  0.1909
 6485SOL     OW25417   1.638   8.476   9.973  0.3103 -0.2799 -0.3445
 6485SOL    HW125418   1.617   8.391   9.935 -0.3179  0.0910 -0.8480
 6485SOL    HW225419   1.578   8.537   9.929  0.4943  0.3606  0.2823
 6486SOL     OW25420   8.014   3.720   3.898 -0.1487  0.0479  0.2095
 6486SOL    HW125421   7.990   3.777   3.971 -1.3671 -1.0243  0.6808
 6486SOL    HW225422   8.075   3.772   3.845 -1.1783  1.7523  0.6507
 6487SOL     OW25423  11.758  10.284  12.038  0.1566 -0.4004 -0.5128
 6487SOL    HW125424  11.670  10.252  12.018  0.2743 -0.4612 -0.9603
 6487SOL    HW225425  11.809  10.261  11.960  0.3038  0.6577 -0.7499
 6488SOL     OW25426   5.676   1.835   1.840  0.0093  0.2987  0.5091
 6488SOL    HW125427   5.601   1.856   1.895 -0.6096 -0.0149 -0.1979
 6488SOL    HW225428   5.639   1.784   1.768  1.0397 -0.7023  0.6665
 6489SOL     OW25429   9.336   1.816  10.578 -0.1316 -0.4505  0.5813
 6489SOL    HW125430   9.407   1.880  10.569  0.0993 -0.6487  0.9703
 6489SOL    HW225431   9.376   1.742  10.623 -0.6455 -0.4634  1.0230
 6490SOL     OW25432  11.104   9.213  11.933  0.6015 -0.3986 -0.5103
 6490SOL    HW125433  11.082   9.212  11.840 -0.8683  0.8052 -0.2191
 6490SOL    HW225434  11.049   9.144  11.971 -1.1323  1.1119 -0.1254
 6491SOL     OW25435   6.760   6.817   8.138  0.0043 -0.4267 -0.1655
 6491SOL    HW125436   6.843   6.771   8.127  0.0915 -0.4605  0.5472
 6491SOL    HW225437   6.698   6.748   8.163 -0.4252 -0.5251 -1.4382
 6492SOL     OW25438   1.481   9.190  11.131 -0.7396 -0.7724 -0.3636
 6492SOL    HW125439   1.425   9.113  11.139 -0.1657 -1.2673 -1.0490
 6492SOL    HW225440   1.570   9.156  11.129 -0.4550 -0.0594 -0.2473
 6493SOL     OW25441   8.787   6.467   3.004  0.1589  0.8948 -0.4414
 6493SOL    HW125442   8.743   6.429   3.080 -0.2764  0.8323 -0.7250
 6493SOL    HW225443   8.723   6.462   2.934  1.3359 -1.2157 -1.4508
 6494SOL     OW25444   9.160  12.472   8.926 -0.1396 -0.2949 -0.1186
 6494SOL    HW125445   9.189  12.533   8.858 -1.9966 -0.4155 -1.0931
 6494SOL    HW225446   9.240  12.442   8.968  0.9588  0.9808 -1.2277
 6495SOL     OW25447  11.690   3.720   5.753 -0.4479 -0.5000  0.0376
 6495SOL    HW125448  11.719   3.717   5.845  0.2937  2.0361 -0.0233
 6495SOL    HW225449  11.631   3.645   5.744  0.7383 -1.7891  2.1185
 6496SOL     OW25450   3.486   6.593   1.229 -0.1547 -0.3473 -0.0704
 6496SOL    HW125451   3.491   6.620   1.137  0.3298  0.4997  0.1914
 6496SOL    HW225452   3.512   6.671   1.278 -3.8331  0.3763  0.9670
 6497SOL     OW25453   6.433   4.229  11.691  0.3820 -0.1580 -0.2584
 6497SOL    HW125454   6.493   4.210  11.620 -0.2743  0.5611 -1.0381
 6497SOL    HW225455   6.474   4.302  11.738 -0.7885  1.7921 -2.0594
 6498SOL     OW25456   3.581   7.698   4.404 -0.5412  0.6409  0.1346
 6498SOL    HW125457   3.597   7.789   4.379  1.3894 -0.4248 -3.1739
 6498SOL    HW225458   3.548   7.657   4.324  0.3348 -1.9524  1.0097
 6499SOL     OW25459  10.428   6.112   6.447  0.0113 -0.6738 -0.0392
 6499SOL    HW125460  10.475   6.056   6.385  0.0124  1.3461 -1.9719
 6499SOL    HW225461  10.493   6.176   6.475 -0.2437 -1.0071  1.3982
 6500SOL     OW25462   2.429   3.966   8.962 -0.3264  0.5601  0.4750
 6500SOL    HW125463   2.360   3.901   8.979  1.3239 -1.4093  0.0614
 6500SOL    HW225464   2.384   4.050   8.968 -2.0372 -0.4088  3.7977
 6501SOL     OW25465   6.048   8.009  11.753 -0.0518  0.2645 -0.1092
 6501SOL    HW125466   6.120   8.071  11.744  0.7789 -0.9224 -2.7028
 6501SOL    HW225467   6.067   7.941  11.688 -1.9535 -1.6810  1.2306
 6502SOL     OW25468   0.688   9.661   1.250  0.0147 -0.2349 -0.0356
 6502SOL    HW125469   0.774   9.620   1.263  0.2661  0.5407  0.7567
 6502SOL    HW225470   0.626   9.596   1.281  0.3152 -0.7298 -0.4445
 6503SOL     OW25471   4.734   7.528   5.024 -0.2660  0.5130 -0.2212
 6503SOL    HW125472   4.822   7.492   5.016 -0.0006  1.0876  0.0676
 6503SOL    HW225473   4.721   7.538   5.118 -0.7969  0.0600 -0.2395
 6504SOL     OW25474  11.328   1.320   2.569  0.7427  0.0601  0.4033
 6504SOL    HW125475  11.329   1.414   2.588  1.2483  0.5218 -1.6628
 6504SOL    HW225476  11.259   1.309   2.504  0.9608 -0.9356  0.3245
 6505SOL     OW25477   2.212   0.210   9.466 -0.2624  0.0110  0.0913
 6505SOL    HW125478   2.221   0.267   9.543  0.3589  0.6509 -0.4447
 6505SOL    HW225479   2.120   0.217   9.442 -0.4284 -0.0811  0.6972
 6506SOL     OW25480   5.650   3.340  10.848 -0.4444 -0.2097 -0.7759
 6506SOL    HW125481   5.600   3.421  10.858 -0.8809 -0.4618 -0.8965
 6506SOL    HW225482   5.587   3.277  10.813 -0.8717 -1.3879  1.8904
 6507SOL     OW25483   6.697   2.760   3.874  0.5452 -0.3003  0.0591
 6507SOL    HW125484   6.658   2.787   3.791  1.6251 -1.0158 -0.7006
 6507SOL    HW225485   6.624   2.730   3.927 -0.1571  0.2069 -0.6110
 6508SOL     OW25486   9.735  11.194   3.452 -0.5001  0.0297  0.2470
 6508SOL    HW125487   9.692  11.278   3.469  0.5427  0.3645  1.4377
 6508SOL    HW225488   9.815  11.218   3.404 -0.5980 -0.3664 -0.1178
 6509SOL     OW25489   2.779   2.861  10.720 -0.0240 -0.2604 -0.0842
 6509SOL    HW125490   2.807   2.835  10.808 -0.7173  1.2756  0.6355
 6509SOL    HW225491   2.686   2.839  10.717  0.4800 -2.4454 -1.3177
 6510SOL     OW25492  10.034   1.600   5.970  0.4891  0.0073  0.3973
 6510SOL    HW125493  10.110   1.547   5.996 -0.4455 -1.1863  0.7402
 6510SOL    HW225494  10.057   1.632   5.882  1.3244 -0.4717  0.4271
 6511SOL     OW25495   9.233  11.506   4.676  0.6783  0.1410  0.0447
 6511SOL    HW125496   9.246  11.600   4.665 -3.2627  0.8032 -0.4141
 6511SOL    HW225497   9.188  11.478   4.596 -0.1572 -1.6558  1.0772
 6512SOL     OW25498  10.652   3.307   3.364  0.0664  0.0065 -0.1912
 6512SOL    HW125499  10.678   3.397   3.340 -1.3314  0.6306  0.5237
 6512SOL    HW225500  10.715   3.282   3.432 -1.3542  1.6820  1.8782
 6513SOL     OW25501   3.967  11.429   4.447  0.4487 -0.8461  0.3423
 6513SOL    HW125502   4.036  11.418   4.382  0.3013 -0.8270  0.1813
 6513SOL    HW225503   4.002  11.493   4.509  0.2303 -0.1642 -0.2284
 6514SOL     OW25504   6.691   9.272   9.242  0.1302 -0.6235  0.4727
 6514SOL    HW125505   6.656   9.222   9.316  0.6760 -1.6291  0.0625
 6514SOL    HW225506   6.614   9.297   9.191 -0.3303  0.6730  1.7047
 6515SOL     OW25507   4.239   4.689   4.432  0.3367  0.1629  0.0144
 6515SOL    HW125508   4.289   4.649   4.504  0.2423 -1.8687 -0.9803
 6515SOL    HW225509   4.180   4.750   4.476  0.6795 -0.5940  1.6249
 6516SOL     OW25510   1.724  11.807   9.345 -0.0698  0.1210 -1.0128
 6516SOL    HW125511   1.641  11.852   9.358 -0.4446 -0.5701 -0.9646
 6516SOL    HW225512   1.742  11.815   9.251  0.9062  2.1288 -0.7093
 6517SOL     OW25513   7.208   6.500   1.063 -0.0995  1.2565 -0.1415
 6517SOL    HW125514   7.291   6.453   1.054  0.0790  1.1198  1.8699
 6517SOL    HW225515   7.191   6.535   0.976 -0.4445 -2.8260 -1.9524
 6518SOL     OW25516   9.717   6.076   9.434 -0.2581  0.0720 -0.2138
 6518SOL    HW125517   9.807   6.107   9.433 -0.4205  0.7570  1.6881
 6518SOL    HW225518   9.721   5.991   9.477 -0.4456 -0.2236 -0.7688
 6519SOL     OW25519   3.208   4.595   8.257 -0.1107  0.1960 -0.1778
 6519SOL    HW125520   3.179   4.653   8.188  1.7289  2.1252  0.5575
 6519SOL    HW225521   3.177   4.636   8.338 -0.5222 -0.9623  0.2823
 6520SOL     OW25522   2.434   6.839   4.885  0.3006 -0.4038 -0.1312
 6520SOL    HW125523   2.466   6.926   4.906 -2.4180  0.4649  0.8429
 6520SOL    HW225524   2.407   6.844   4.793  0.9000 -0.4742 -0.3121
 6521SOL     OW25525   3.847   7.869   8.985 -0.5321 -0.0773 -0.4222
 6521SOL    HW125526   3.863   7.829   8.900 -0.9641 -1.5955  0.1620
 6521SOL    HW225527   3.798   7.802   9.034 -1.9530  1.4707  0.3850
 6522SOL     OW25528   4.065  10.289   2.915 -0.4712 -0.1522 -0.4573
 6522SOL    HW125529   4.071  10.245   2.830 -0.9535  1.1984 -1.2243
 6522SOL    HW225530   4.149  10.334   2.925  0.0934 -1.3416  0.4102
 6523SOL     OW25531   0.325   2.124   3.430 -0.2834 -0.0333 -1.3291
 6523SOL    HW125532   0.366   2.207   3.450  1.1212 -1.1302  0.6468
 6523SOL    HW225533   0.245   2.147   3.383  0.7857  2.3235 -2.1221
 6524SOL     OW25534   0.651  12.014   4.612 -0.7373  0.6305  0.0910
 6524SOL    HW125535   0.707  12.019   4.689  0.1035 -2.6262 -0.1656
 6524SOL    HW225536   0.592  11.940   4.629 -0.5026 -0.2385 -2.3371
 6525SOL     OW25537   0.490   4.263   9.423  0.6103  0.1957  0.0206
 6525SOL    HW125538   0.582   4.280   9.404  0.5730 -0.4153 -0.7849
 6525SOL    HW225539   0.492   4.194   9.490  0.7751 -1.5547 -1.6948
 6526SOL     OW25540   9.140   3.839  11.075  1.0813  0.0850  0.2325
 6526SOL    HW125541   9.228   3.835  11.111  1.0757  0.8323  0.3355
 6526SOL    HW225542   9.125   3.931  11.056  0.7210 -0.1584 -0.7837
 6527SOL     OW25543  12.159   4.736   9.292 -0.3305  0.1536 -0.1621
 6527SOL    HW125544  12.104   4.658   9.298 -0.8508  0.5384  0.2902
 6527SOL    HW225545  12.130   4.780   9.212 -1.7732  1.1214  0.8223
 6528SOL     OW25546   9.058   2.346   9.097 -0.1312  0.3466 -0.4099
 6528SOL    HW125547   9.057   2.266   9.045  0.9017  0.5060 -0.6829
 6528SOL    HW225548   8.986   2.398   9.062  0.7838  0.6086 -1.9497
 6529SOL     OW25549   6.270   0.350   4.472 -0.5139 -0.6220  0.1149
 6529SOL    HW125550   6.209   0.280   4.496  0.8527 -2.2069 -0.8572
 6529SOL    HW225551   6.342   0.341   4.534  0.1928 -0.8261 -0.7173
 6530SOL     OW25552   4.738   7.175   4.195  0.2854 -0.0689  0.3591
 6530SOL    HW125553   4.783   7.203   4.115 -1.9063 -0.6307 -1.1534
 6530SOL    HW225554   4.755   7.246   4.258  2.9670 -0.1389 -0.1823
 6531SOL     OW25555   9.217   2.676   1.179  0.6884 -0.2986 -0.5629
 6531SOL    HW125556   9.209   2.724   1.261  1.2082  3.0184 -2.2810
 6531SOL    HW225557   9.283   2.609   1.197 -0.9386 -1.2866  2.3063
 6532SOL     OW25558  10.827   7.948   6.061  0.2027 -0.0496  0.3937
 6532SOL    HW125559  10.743   7.954   6.107 -0.6260  0.2207 -1.0746
 6532SOL    HW225560  10.812   7.994   5.978  2.7417  2.8580  1.3368
 6533SOL     OW25561   6.228   7.019   9.598  0.0560 -0.5277 -0.3007
 6533SOL    HW125562   6.268   6.997   9.514 -1.5920  1.0854 -1.6219
 6533SOL    HW225563   6.283   6.977   9.663  0.9580 -2.5258 -2.2150
 6534SOL     OW25564   0.353   1.144   4.483  0.1648 -0.3155 -0.0895
 6534SOL    HW125565   0.423   1.148   4.417 -0.5922 -0.8128 -0.9442
 6534SOL    HW225566   0.340   1.050   4.497  0.6486 -0.2182  1.1476
 6535SOL     OW25567   7.746   7.852  12.359 -0.5328 -0.0394 -0.4806
 6535SOL    HW125568   7.733   7.923  12.296  0.9603  1.0367  0.3613
 6535SOL    HW225569   7.692   7.875  12.433  0.7645  0.8284  0.2310
 6536SOL     OW25570   7.569   4.249   6.738  0.1106  0.8167 -0.1664
 6536SOL    HW125571   7.498   4.282   6.793 -1.3832  0.4685 -1.7865
 6536SOL    HW225572   7.612   4.328   6.705 -0.2418  1.0677 -0.0369
 6537SOL     OW25573   7.240  10.339   4.422  0.8596  0.1967  1.1184
 6537SOL    HW125574   7.205  10.327   4.511  0.7829 -0.5100  0.9939
 6537SOL    HW225575   7.248  10.434   4.413 -1.8128  0.4638  0.8570
 6538SOL     OW25576  12.349  12.470   6.366 -0.3974  0.6249 -0.3078
 6538SOL    HW125577  12.367  12.528   6.440  0.9631  0.6280 -0.6238
 6538SOL    HW225578  12.431  12.425   6.350 -0.7961  0.3051 -1.5469
 6539SOL     OW25579   9.244   9.050   3.675  0.1500  0.0256 -0.1089
 6539SOL    HW125580   9.256   8.996   3.753  1.6209 -1.6690 -1.4186
 6539SOL    HW225581   9.304   9.013   3.610 -0.7969  1.5408 -1.9706
 6540SOL     OW25582   9.515   0.679   9.629 -0.3003  0.0076  0.0665
 6540SOL    HW125583   9.589   0.634   9.588 -0.8860 -0.5579 -0.3839
 6540SOL    HW225584   9.449   0.611   9.640 -1.7551  0.9747 -1.9279
 6541SOL     OW25585   9.908   5.828   4.103 -0.1575 -0.5108 -0.0375
 6541SOL    HW125586   9.889   5.914   4.139  1.0725 -0.2208 -0.0213
 6541SOL    HW225587   9.872   5.767   4.167 -1.1824 -0.0250 -0.1293
 6542SOL     OW25588   1.838   3.313   2.905  0.1014 -0.8613  0.3323
 6542SOL    HW125589   1.899   3.363   2.960  0.3569  1.2814 -1.7644
 6542SOL    HW225590   1.753   3.355   2.919 -0.3637 -1.9781  1.0167
 6543SOL     OW25591   2.140   8.496  11.453  0.4578  0.0728  0.1885
 6543SOL    HW125592   2.131   8.589  11.476  1.0962  0.0383  0.6042
 6543SOL    HW225593   2.105   8.490  11.364 -0.6294  0.4983  0.5582
 6544SOL     OW25594   4.880  11.862   0.863 -0.0310 -0.1005  0.2298
 6544SOL    HW125595   4.923  11.779   0.886 -2.2861 -1.9438 -1.6814
 6544SOL    HW225596   4.888  11.868   0.768  0.2756  2.0659  0.3330
 6545SOL     OW25597   8.238   4.015  10.663 -0.4129 -0.2044  0.0064
 6545SOL    HW125598   8.238   3.959  10.585 -1.6026 -1.1528  0.6503
 6545SOL    HW225599   8.207   3.957  10.733 -1.2450  1.1543  0.7880
 6546SOL     OW25600  10.741   4.833   5.860  0.0456 -0.1547  0.4032
 6546SOL    HW125601  10.664   4.826   5.804  1.3394 -0.0749 -1.4571
 6546SOL    HW225602  10.786   4.749   5.851  1.2481  0.5298 -0.1958
 6547SOL     OW25603   0.305   5.587   2.116 -0.6130  0.3238  0.4568
 6547SOL    HW125604   0.276   5.615   2.030 -1.6228 -3.1055 -0.4492
 6547SOL    HW225605   0.228   5.598   2.172 -0.5241  0.7597  0.5007
 6548SOL     OW25606   1.596  10.165   1.020  0.4677 -0.0300 -0.7376
 6548SOL    HW125607   1.537  10.097   0.987  0.6162 -0.4909 -0.0783
 6548SOL    HW225608   1.539  10.240   1.038 -0.0971 -0.7536  0.7244
 6549SOL     OW25609   4.121  12.480   1.643  0.2569 -0.1415 -0.2143
 6549SOL    HW125610   4.033  12.450   1.618  1.2361 -2.0356 -1.6833
 6549SOL    HW225611   4.173  12.467   1.564  1.7980  1.3284  0.5074
 6550SOL     OW25612   0.174  11.476   0.182 -0.1757  0.0747  0.6556
 6550SOL    HW125613   0.112  11.542   0.214 -0.3834 -0.8733  2.3356
 6550SOL    HW225614   0.120  11.399   0.165  0.0628  0.2899 -1.3109
 6551SOL     OW25615  11.747   0.836   0.935 -0.1626 -0.3452 -0.0536
 6551SOL    HW125616  11.695   0.906   0.975  1.6201  0.5529  0.8009
 6551SOL    HW225617  11.683   0.767   0.915 -1.9828  1.4971 -0.9389
 6552SOL     OW25618   1.825   0.648   7.347 -0.0732  0.3596 -0.2793
 6552SOL    HW125619   1.867   0.655   7.262 -0.7867 -0.1004 -0.6897
 6552SOL    HW225620   1.886   0.688   7.409 -0.1362  1.9313 -1.1944
 6553SOL     OW25621  10.392  10.090   7.779 -0.2202  0.1624  0.4948
 6553SOL    HW125622  10.485  10.092   7.804 -0.2705  0.2647  0.6791
 6553SOL    HW225623  10.347  10.131   7.853 -0.4025  0.2023  0.3616
 6554SOL     OW25624   0.587   5.194   6.706 -0.3686  0.4958 -0.7269
 6554SOL    HW125625   0.566   5.285   6.685  0.2931  0.7724 -0.2363
 6554SOL    HW225626   0.525   5.143   6.655  1.2732  1.1118 -3.5526
 6555SOL     OW25627   8.358   0.889   6.296  0.3804  0.0485 -0.0234
 6555SOL    HW125628   8.287   0.947   6.267  0.5281  1.5420  2.3537
 6555SOL    HW225629   8.318   0.802   6.298 -0.3224  0.2688 -2.0969
 6556SOL     OW25630   7.191   5.581   7.331  0.3998  0.7093  0.2237
 6556SOL    HW125631   7.112   5.528   7.344  0.4787  0.7768  1.0950
 6556SOL    HW225632   7.263   5.522   7.355  0.5283  1.0182  0.6087
 6557SOL     OW25633   3.647   4.948   0.899  0.5349  0.5602  0.3803
 6557SOL    HW125634   3.552   4.942   0.910  0.5647 -0.8241 -0.0101
 6557SOL    HW225635   3.659   5.010   0.827 -0.2329 -1.4496 -1.5953
 6558SOL     OW25636   6.689   0.002   9.167 -0.1675  0.5130  0.5998
 6558SOL    HW125637   6.671   0.021   9.075  0.4937  0.2966  0.4208
 6558SOL    HW225638   6.660  -0.089   9.178 -0.8390  0.7456  0.7711
 6559SOL     OW25639   3.192   4.211   6.013  0.3000 -0.3932 -0.3216
 6559SOL    HW125640   3.139   4.280   6.052 -1.8623 -1.6581 -0.8184
 6559SOL    HW225641   3.146   4.130   6.036  0.6448 -1.4096 -2.8230
 6560SOL     OW25642   3.253  10.344   8.000 -0.0172  0.0824  0.0545
 6560SOL    HW125643   3.313  10.293   8.053  0.5468  0.9272  0.2391
 6560SOL    HW225644   3.293  10.430   7.993 -1.2056  0.6729  0.1964
 6561SOL     OW25645  10.685  11.400   6.369  0.7029 -0.4408  0.1694
 6561SOL    HW125646  10.601  11.396   6.415  0.8412 -0.0476  0.4691
 6561SOL    HW225647  10.678  11.478   6.313  0.7443 -0.5956 -0.0506
 6562SOL     OW25648   3.490  10.349   2.281 -0.2917  0.5475 -0.5378
 6562SOL    HW125649   3.568  10.391   2.317 -0.6737  1.0104 -0.2387
 6562SOL    HW225650   3.421  10.371   2.342 -0.2922 -1.5041  0.2715
 6563SOL     OW25651   6.262   6.637  11.402  0.1255 -0.0579 -0.4971
 6563SOL    HW125652   6.170   6.652  11.423  0.0507 -1.2799  0.1937
 6563SOL    HW225653   6.267   6.640  11.307 -1.2316 -2.8160 -0.7633
 6564SOL     OW25654   2.820   0.617   8.163 -0.3274 -0.2291  0.3188
 6564SOL    HW125655   2.732   0.648   8.181 -1.0136 -1.9489  0.1589
 6564SOL    HW225656   2.807   0.531   8.122  1.3445  0.4767 -1.9202
 6565SOL     OW25657   7.430   7.637  10.686 -0.1119  0.3146  0.0008
 6565SOL    HW125658   7.442   7.543  10.674  0.6679  0.4177 -0.0942
 6565SOL    HW225659   7.339   7.646  10.715  0.2101 -0.5880  1.3838
 6566SOL     OW25660   9.960   5.809   1.885  0.8329  0.2866  0.1078
 6566SOL    HW125661   9.989   5.896   1.912 -2.0686  1.0566  1.1397
 6566SOL    HW225662   9.907   5.825   1.806 -0.1416 -0.4356  0.5942
 6567SOL     OW25663  10.807   4.889   9.426  0.1360 -0.2900 -0.3687
 6567SOL    HW125664  10.812   4.794   9.413 -0.0179 -0.3362 -0.1069
 6567SOL    HW225665  10.896   4.920   9.409  0.7760 -0.7714  1.7151
 6568SOL     OW25666   3.679   9.506  12.062 -0.2393 -0.8233 -0.2072
 6568SOL    HW125667   3.749   9.451  12.026  0.5290  0.5873 -0.9422
 6568SOL    HW225668   3.698   9.510  12.155  0.4975 -0.7047 -0.3538
 6569SOL     OW25669   5.921   5.045   8.150 -0.0241 -0.5611 -0.0302
 6569SOL    HW125670   5.927   5.096   8.231  1.0821  0.1568 -0.5370
 6569SOL    HW225671   5.980   4.971   8.164  2.7883  1.2391 -1.2919
 6570SOL     OW25672   6.159  11.342   4.318  0.5465  0.3105 -0.6314
 6570SOL    HW125673   6.178  11.422   4.367 -1.3910  0.7268 -0.4946
 6570SOL    HW225674   6.235  11.331   4.260  2.5481  0.2020  1.8475
 6571SOL     OW25675  11.913   5.375   7.516 -0.2189  0.3289  0.5028
 6571SOL    HW125676  11.987   5.359   7.457 -1.9021  0.4076 -1.8067
 6571SOL    HW225677  11.845   5.412   7.459 -1.2310  2.6260  2.9811
 6572SOL     OW25678   6.123   8.476   3.069  0.1802 -0.1909  0.0054
 6572SOL    HW125679   6.132   8.465   3.163  1.8463 -0.6650 -0.1940
 6572SOL    HW225680   6.068   8.402   3.041 -1.3540  0.6286  0.7345
 6573SOL     OW25681   7.026   1.509  11.095  0.0185  0.0465 -0.4406
 6573SOL    HW125682   7.051   1.598  11.121 -1.2223 -0.3088  2.3249
 6573SOL    HW225683   6.972   1.522  11.017  0.1534  1.7039 -0.3060
 6574SOL     OW25684   3.645   6.952  10.448 -0.1461  0.1423 -0.2805
 6574SOL    HW125685   3.594   6.960  10.528 -0.5608 -1.6926 -0.3081
 6574SOL    HW225686   3.621   6.867  10.413  0.7375  0.5061 -1.8692
 6575SOL     OW25687  11.166  11.695   5.440  0.2987 -0.0254  0.1473
 6575SOL    HW125688  11.239  11.634   5.431 -2.5479 -3.5349 -1.8110
 6575SOL    HW225689  11.121  11.667   5.519 -1.3134 -0.9590 -1.0384
 6576SOL     OW25690   9.967   7.524   6.784  0.4579 -0.1193 -0.7637
 6576SOL    HW125691  10.038   7.533   6.721  1.4109 -0.3963  0.2396
 6576SOL    HW225692   9.975   7.600   6.840 -0.0313 -0.1654 -0.6268
 6577SOL     OW25693   3.938   9.029  11.039  0.1618  0.0347 -0.1645
 6577SOL    HW125694   3.912   8.955  11.094 -2.0248  1.1135  0.3637
 6577SOL    HW225695   3.860   9.049  10.988  0.6610  2.0398 -0.2076
 6578SOL     OW25696   2.288   0.214   2.344 -0.0172 -0.0521  0.1454
 6578SOL    HW125697   2.203   0.171   2.338  0.5048 -1.0599 -0.3021
 6578SOL    HW225698   2.267   0.308   2.348 -1.1571 -0.3039  0.5953
 6579SOL     OW25699  10.206   0.618   1.803  0.9050 -0.2719  0.1921
 6579SOL    HW125700  10.120   0.644   1.837 -0.1911 -1.7651 -1.2063
 6579SOL    HW225701  10.253   0.700   1.790 -0.6761  0.6699  0.1093
 6580SOL     OW25702   4.770   9.707  11.471  0.1718 -0.0105  0.0940
 6580SOL    HW125703   4.706   9.769  11.435  0.6751  0.2624 -0.3417
 6580SOL    HW225704   4.829   9.688  11.398  0.9441  0.2056  0.6497
 6581SOL     OW25705   8.065   6.735   1.517  0.8223  0.4141  0.1760
 6581SOL    HW125706   8.098   6.702   1.434  1.4998  0.2841  0.4873
 6581SOL    HW225707   8.060   6.658   1.574  0.3114  0.4921  0.2428
 6582SOL     OW25708   1.732  10.735  12.350  0.3021 -0.6422 -0.4415
 6582SOL    HW125709   1.647  10.753  12.391  0.4693  1.4928 -0.9017
 6582SOL    HW225710   1.788  10.707  12.422 -0.0450  0.7369  0.4045
 6583SOL     OW25711  12.342  12.010   3.984 -0.0545 -0.2549 -0.0787
 6583SOL    HW125712  12.289  11.933   4.005 -0.7876  0.2180 -0.1445
 6583SOL    HW225713  12.291  12.084   4.019  0.1547  0.2868 -0.9002
 6584SOL     OW25714   5.593   8.153   3.447 -0.1551  0.2232 -0.0026
 6584SOL    HW125715   5.629   8.179   3.362  1.5390  0.1473  0.6722
 6584SOL    HW225716   5.668   8.122   3.497 -1.2245 -0.3095  1.3269
 6585SOL     OW25717   5.845   7.616   1.995 -0.3086  0.0594 -0.4953
 6585SOL    HW125718   5.872   7.541   1.942 -0.9160 -0.7519  0.3021
 6585SOL    HW225719   5.922   7.636   2.049  1.0371  2.1695 -2.9783
 6586SOL     OW25720   8.170   7.928   2.287  0.1956  0.2107  0.4314
 6586SOL    HW125721   8.157   8.015   2.251  0.3775  0.0594 -0.0057
 6586SOL    HW225722   8.197   7.875   2.212  0.2024 -0.1927  0.7174
 6587SOL     OW25723   5.288   1.633   8.728  0.0162 -0.1156  0.4119
 6587SOL    HW125724   5.267   1.579   8.804  0.7235 -0.9832  0.0132
 6587SOL    HW225725   5.382   1.622   8.716 -0.2816 -1.1720 -1.4478
 6588SOL     OW25726   5.237   8.542   0.339  0.1556 -0.4092  0.3939
 6588SOL    HW125727   5.183   8.463   0.346  1.0535 -1.2522 -1.3696
 6588SOL    HW225728   5.326   8.509   0.327  0.5569  0.8649 -0.3524
 6589SOL     OW25729   3.450   9.941   7.636 -0.0834  0.6487  0.4827
 6589SOL    HW125730   3.521   9.891   7.596 -0.1775  0.4938  0.5102
 6589SOL    HW225731   3.441  10.018   7.580 -1.2465 -0.3111 -0.7238
 6590SOL     OW25732   6.484   2.141   4.415  0.4163  0.3855 -0.1026
 6590SOL    HW125733   6.436   2.214   4.455 -0.8301 -1.0648  1.1376
 6590SOL    HW225734   6.541   2.108   4.484  0.9351  0.1255 -0.6409
 6591SOL     OW25735   1.287   4.211   9.380 -0.2162  0.5641 -0.3939
 6591SOL    HW125736   1.305   4.200   9.287 -0.3262 -1.5726 -0.2057
 6591SOL    HW225737   1.331   4.293   9.403  0.3768  0.7878 -2.1738
 6592SOL     OW25738   3.524  11.605   3.646 -0.1021  0.4191  0.1240
 6592SOL    HW125739   3.511  11.684   3.593  0.8245 -0.4848 -1.5388
 6592SOL    HW225740   3.436  11.568   3.655 -0.3557  0.9026 -0.2857
 6593SOL     OW25741   3.442   7.898   1.795 -0.2793 -0.1223  0.6534
 6593SOL    HW125742   3.413   7.924   1.883 -1.1554 -2.2691  1.0566
 6593SOL    HW225743   3.371   7.924   1.737  0.3317  1.3650  0.5360
 6594SOL     OW25744   7.254   8.381   9.119 -0.3264 -0.8829 -0.8772
 6594SOL    HW125745   7.333   8.412   9.075 -1.2207  0.2017 -1.8101
 6594SOL    HW225746   7.274   8.388   9.212 -0.0375  1.5348 -1.0407
 6595SOL     OW25747  11.017   0.701   8.708 -0.3299  0.8141  0.2671
 6595SOL    HW125748  10.940   0.674   8.758  0.3135 -0.1875  0.7523
 6595SOL    HW225749  11.017   0.642   8.632 -0.8884  1.8331 -0.5362
 6596SOL     OW25750   7.800   9.354  11.641 -0.1048 -0.0724 -0.2304
 6596SOL    HW125751   7.886   9.343  11.682 -0.3728 -0.1570  0.3029
 6596SOL    HW225752   7.778   9.446  11.655  0.2820  0.1765 -1.1295
 6597SOL     OW25753   3.444   4.761   4.680  0.0625  0.4143 -0.3167
 6597SOL    HW125754   3.517   4.818   4.659 -1.4779  1.8659 -2.0449
 6597SOL    HW225755   3.366   4.814   4.665 -1.4279 -1.7922 -0.9376
 6598SOL     OW25756  11.015   8.062   9.314 -0.4084 -0.2648  0.0158
 6598SOL    HW125757  11.066   7.982   9.298  0.1375  0.0462  0.2047
 6598SOL    HW225758  11.074   8.133   9.290 -0.7735  0.0957  0.1906
 6599SOL     OW25759   7.506   3.404   6.403 -0.4216 -0.1051 -0.0623
 6599SOL    HW125760   7.538   3.448   6.324 -0.9785 -0.5247 -0.5294
 6599SOL    HW225761   7.524   3.312   6.389  2.6783  0.0746  1.8130
 6600SOL     OW25762   8.974   3.682  11.731  0.1634 -0.2111  0.2361
 6600SOL    HW125763   8.951   3.737  11.656 -0.7971  0.0468  0.7101
 6600SOL    HW225764   9.063   3.652  11.712  0.2825  0.6048 -0.5590
 6601SOL     OW25765   2.633   7.930   6.229 -0.3299 -0.0891  0.2167
 6601SOL    HW125766   2.564   7.962   6.287  0.5044  3.6428 -0.5278
 6601SOL    HW225767   2.711   7.923   6.285 -0.6451 -1.4904  0.4974
 6602SOL     OW25768   9.310   8.713   0.629 -0.2316  0.0131  0.2960
 6602SOL    HW125769   9.394   8.724   0.583 -1.1372 -1.9703 -2.0403
 6602SOL    HW225770   9.334   8.695   0.719  1.8453 -0.0129 -0.2083
 6603SOL     OW25771   1.933  11.288   0.402  0.0161 -0.0279  0.1174
 6603SOL    HW125772   1.996  11.230   0.359 -1.0317 -1.3306  0.2762
 6603SOL    HW225773   1.958  11.287   0.494  0.0671 -0.1231  0.1021
 6604SOL     OW25774   5.632   7.662   1.239 -0.4214  0.0137  0.1972
 6604SOL    HW125775   5.672   7.580   1.213 -0.1531  0.0632  0.4556
 6604SOL    HW225776   5.631   7.660   1.335  1.3614  1.1407  0.2790
 6605SOL     OW25777   8.365   6.805   7.031  0.2645 -0.6321  0.0118
 6605SOL    HW125778   8.450   6.814   7.074  0.6778 -1.3414 -0.6235
 6605SOL    HW225779   8.380   6.741   6.962 -0.4947  0.1740 -0.9201
 6606SOL     OW25780   6.086  11.124   2.243 -0.3905  0.0632  0.4592
 6606SOL    HW125781   6.133  11.202   2.217 -0.0041 -0.5133 -0.6139
 6606SOL    HW225782   6.151  11.070   2.287 -0.1979 -0.4356 -0.4176
 6607SOL     OW25783   1.427   2.613  10.740 -0.5274 -0.3299  0.6408
 6607SOL    HW125784   1.420   2.635  10.833 -0.3415  0.0028  0.5732
 6607SOL    HW225785   1.352   2.657  10.700 -1.4125 -1.5720  0.8297
 6608SOL     OW25786   5.607   0.973   3.703  0.3193 -0.1115 -0.2103
 6608SOL    HW125787   5.534   0.975   3.764 -0.1523 -2.3045 -0.6140
 6608SOL    HW225788   5.567   0.985   3.617  0.5803 -0.0755 -0.3282
 6609SOL     OW25789   1.703   3.924   6.110  0.1585 -0.1292 -0.3209
 6609SOL    HW125790   1.657   3.893   6.032  1.6998 -0.7731 -1.0130
 6609SOL    HW225791   1.656   3.884   6.183  0.4328 -1.9062 -1.0588
 6610SOL     OW25792   9.708   2.332   1.880 -0.2414 -0.2655 -0.0660
 6610SOL    HW125793   9.699   2.237   1.869  0.0073 -0.1347 -1.7901
 6610SOL    HW225794   9.630   2.358   1.927 -0.2424 -1.3436  0.5735
 6611SOL     OW25795   1.278  10.770   0.174 -0.2342 -0.0473 -0.6012
 6611SOL    HW125796   1.252  10.691   0.220 -1.6235  0.1345 -1.0161
 6611SOL    HW225797   1.339  10.814   0.233 -0.5678 -0.7105  0.2558
 6612SOL     OW25798   2.017   4.941   9.986 -0.1339 -0.7469 -0.5553
 6612SOL    HW125799   1.943   5.001   9.997 -0.0624 -0.6634 -0.5364
 6612SOL    HW225800   1.997   4.894   9.905  0.5866  0.4015 -1.4353
 6613SOL     OW25801   7.205  10.524  10.991  0.1785 -0.2271  0.1661
 6613SOL    HW125802   7.262  10.585  11.039  0.1835 -1.0757  1.2735
 6613SOL    HW225803   7.196  10.564  10.905  0.7293  1.0047  0.6423
 6614SOL     OW25804  11.024   9.892   7.259  0.6890  0.0750  0.6672
 6614SOL    HW125805  10.991   9.822   7.315 -1.6301 -0.1322 -0.7884
 6614SOL    HW225806  10.950   9.954   7.253  1.4956  0.9579 -0.7223
 6615SOL     OW25807  12.099   5.039  12.144  0.3638  0.2249  0.7443
 6615SOL    HW125808  12.177   4.996  12.109 -1.4760 -2.4633 -0.4272
 6615SOL    HW225809  12.081   4.993  12.226 -1.0540 -0.6136  0.0051
 6616SOL     OW25810   0.549  11.076   1.472  0.3963 -0.3582  0.2288
 6616SOL    HW125811   0.602  11.060   1.550  2.0805 -0.5998 -0.8983
 6616SOL    HW225812   0.477  11.013   1.479  0.9329 -0.8942  1.2192
 6617SOL     OW25813   6.293   2.984   5.727 -0.0004 -0.0491 -1.2797
 6617SOL    HW125814   6.290   3.053   5.793  0.1086 -0.6915 -0.5954
 6617SOL    HW225815   6.369   3.006   5.673  1.5060 -0.8932  0.3682
 6618SOL     OW25816   3.651  11.380  11.359 -0.2472 -0.2111  0.0616
 6618SOL    HW125817   3.725  11.381  11.420 -0.2810  0.1208  0.1020
 6618SOL    HW225818   3.682  11.329  11.285  0.0970  0.0860 -0.0037
 6619SOL     OW25819   1.958   7.204   0.602 -0.2391 -0.3551 -0.2711
 6619SOL    HW125820   2.009   7.124   0.586  0.8038  0.3007 -0.3358
 6619SOL    HW225821   2.004   7.247   0.674 -0.9614  0.0513 -0.0416
 6620SOL     OW25822   5.041  12.261   6.293  0.8566 -0.3489 -0.3353
 6620SOL    HW125823   5.120  12.207   6.303 -0.1716 -1.5089  3.0853
 6620SOL    HW225824   4.981  12.207   6.242  1.7653  0.0453 -1.9013
 6621SOL     OW25825   4.023   2.308   5.056 -0.3276  0.1343 -0.1449
 6621SOL    HW125826   3.990   2.281   4.970 -1.1391 -1.4984  0.6251
 6621SOL    HW225827   4.106   2.263   5.065  0.2415  1.0970 -0.4582
 6622SOL     OW25828  10.919   2.054   3.225  0.5722  0.4431 -0.4288
 6622SOL    HW125829  10.896   1.970   3.187  0.2759 -0.0578  0.8062
 6622SOL    HW225830  10.845   2.076   3.282  1.3601  0.7529  0.5070
 6623SOL     OW25831   8.955   9.755   6.712  0.5805  0.1166  0.2715
 6623SOL    HW125832   8.953   9.672   6.664  1.4832  0.4164 -0.3214
 6623SOL    HW225833   8.965   9.729   6.804  0.5664 -0.4405  0.1201
 6624SOL     OW25834   2.703   5.083   0.045 -0.3654  0.1849  0.6117
 6624SOL    HW125835   2.774   5.053  -0.012 -1.0987 -1.0578  0.3361
 6624SOL    HW225836   2.720   5.040   0.129  0.9326  2.3050  1.5322
 6625SOL     OW25837   1.424   6.971   4.573  0.0529  0.1373 -0.1146
 6625SOL    HW125838   1.509   6.994   4.612 -0.3452 -0.6220  1.2542
 6625SOL    HW225839   1.388   7.055   4.544  1.1555  0.4943 -0.5046
 6626SOL     OW25840   0.941   8.749   9.641 -0.4158  0.2154  0.2493
 6626SOL    HW125841   0.854   8.732   9.676 -0.5316  1.3875  0.5613
 6626SOL    HW225842   0.966   8.667   9.597 -0.9610 -0.7057  1.6021
 6627SOL     OW25843   3.599  10.965   1.240 -0.3367 -0.1069  0.3649
 6627SOL    HW125844   3.531  10.994   1.300  0.5736  2.0552  0.4272
 6627SOL    HW225845   3.666  11.033   1.244  1.5764 -1.8582 -0.1443
 6628SOL     OW25846   7.871   2.804  10.353  0.4266 -0.4615 -0.4224
 6628SOL    HW125847   7.878   2.824  10.447  1.1204 -1.1880 -0.3053
 6628SOL    HW225848   7.790   2.847  10.325  2.1021  3.1109 -0.3549
 6629SOL     OW25849   3.125   7.599  11.301  0.3598 -0.1692 -0.2898
 6629SOL    HW125850   3.122   7.632  11.391  2.6354  2.0396 -0.8942
 6629SOL    HW225851   3.178   7.520  11.307  0.4223 -0.0850  0.3459
 6630SOL     OW25852   2.708   5.921   3.475  0.4794 -0.1081  0.0277
 6630SOL    HW125853   2.764   5.998   3.484  0.0469  0.0908  1.2206
 6630SOL    HW225854   2.660   5.917   3.557 -1.5827 -0.0191 -1.1140
 6631SOL     OW25855   0.488   5.667   2.565  0.7016  0.0499 -0.0641
 6631SOL    HW125856   0.525   5.589   2.606  0.0884 -0.4144 -0.3743
 6631SOL    HW225857   0.559   5.703   2.513  1.3472  0.3716  1.0078
 6632SOL     OW25858   8.911   2.633   9.467 -0.1202  0.2459 -0.4237
 6632SOL    HW125859   8.876   2.689   9.397  1.2783  0.7711 -0.7258
 6632SOL    HW225860   8.985   2.681   9.502 -0.6484 -0.1244  1.2971
 6633SOL     OW25861   8.469   9.799   9.780  0.5222  0.2167  0.0931
 6633SOL    HW125862   8.489   9.790   9.687 -0.4559  0.5134 -0.1586
 6633SOL    HW225863   8.492   9.889   9.802  2.0041 -0.2368  0.4725
 6634SOL     OW25864   3.073   4.254   0.838 -0.6439 -0.3093 -0.1643
 6634SOL    HW125865   3.014   4.322   0.805 -1.9151 -1.3081 -0.0460
 6634SOL    HW225866   3.045   4.174   0.793  1.5252 -0.5965 -1.1147
 6635SOL     OW25867  10.469   2.966   9.214 -0.1414 -0.4718  0.9934
 6635SOL    HW125868  10.461   2.874   9.236 -1.5816 -0.0550  2.4620
 6635SOL    HW225869  10.554   2.974   9.171  0.4314 -2.3038  1.6955
 6636SOL     OW25870   2.250  10.658   2.621  0.4319  0.1889 -0.1631
 6636SOL    HW125871   2.199  10.584   2.588 -0.5191  0.8054 -0.1208
 6636SOL    HW225872   2.230  10.729   2.560 -0.0793  0.8954  0.8011
 6637SOL     OW25873   9.195   8.132   6.969 -0.1090  0.1167 -0.2936
 6637SOL    HW125874   9.190   8.193   7.043 -0.0358  0.9074 -0.9242
 6637SOL    HW225875   9.122   8.072   6.984  0.8830 -0.7680  1.2931
 6638SOL     OW25876   2.226   4.545  12.279  0.9574 -0.5737 -0.5848
 6638SOL    HW125877   2.246   4.613  12.344 -0.6985  0.6903 -1.3112
 6638SOL    HW225878   2.301   4.486  12.282  2.5480  1.3706 -0.0337
 6639SOL     OW25879   7.039   3.201   1.121  0.0315  0.2304 -0.4440
 6639SOL    HW125880   7.027   3.107   1.134  0.1388 -0.1744 -2.8804
 6639SOL    HW225881   7.134   3.214   1.119  0.0188  0.2827 -0.7600
 6640SOL     OW25882   8.413  12.271   9.010 -0.1322  0.6039 -0.2591
 6640SOL    HW125883   8.492  12.300   9.056 -1.1421  1.4235  1.0271
 6640SOL    HW225884   8.342  12.317   9.054 -1.6493 -2.2993  0.6315
 6641SOL     OW25885   7.087  12.072  10.295  0.3824  0.0440  0.2816
 6641SOL    HW125886   7.108  12.065  10.388  0.5887  1.0879  0.3272
 6641SOL    HW225887   7.003  12.118  10.292  0.7802  0.7702 -0.0623
 6642SOL     OW25888  11.079  12.153   7.135  0.4538  0.3797 -0.3747
 6642SOL    HW125889  11.127  12.186   7.211 -0.0303  0.2544 -0.0105
 6642SOL    HW225890  11.094  12.219   7.067 -1.6331  2.1547  0.7473
 6643SOL     OW25891   5.684   6.774   8.082 -0.8161  0.6334 -0.5379
 6643SOL    HW125892   5.640   6.690   8.101 -0.4677  0.2457 -1.3866
 6643SOL    HW225893   5.773   6.763   8.115 -0.3952  0.1882 -1.7640
 6644SOL     OW25894   3.872  11.703   3.770 -0.4094 -0.2267  0.3008
 6644SOL    HW125895   3.928  11.745   3.705 -0.1624 -0.0611  0.6199
 6644SOL    HW225896   3.925  11.633   3.807  0.0286  0.6419  1.4216
 6645SOL     OW25897   2.013   9.968  12.160  0.1563 -0.3001 -0.6626
 6645SOL    HW125898   2.058   9.951  12.243  1.8352 -0.1339 -1.5008
 6645SOL    HW225899   2.052  10.049  12.127 -0.5825 -0.2932 -1.5651
 6646SOL     OW25900   8.003   3.246   1.091 -0.2609  0.1448 -0.0001
 6646SOL    HW125901   8.004   3.157   1.057  0.3015 -0.9278  2.6051
 6646SOL    HW225902   7.910   3.268   1.096 -0.4195 -0.4222 -0.2957
 6647SOL     OW25903   2.336   3.529   5.520  0.0472  0.6603  0.0377
 6647SOL    HW125904   2.431   3.520   5.509  0.1099  0.3978  0.7390
 6647SOL    HW225905   2.326   3.585   5.596 -0.3614 -0.0488  0.5144
 6648SOL     OW25906   4.217   1.939   9.469  0.8895  0.4804  0.0693
 6648SOL    HW125907   4.131   1.957   9.431  1.5643  1.2419 -1.1734
 6648SOL    HW225908   4.279   1.975   9.405  2.1526 -0.7216  0.5739
 6649SOL     OW25909  12.353   5.390   0.935  0.1707  0.4031  0.4522
 6649SOL    HW125910  12.321   5.312   0.980  0.4511 -0.0082 -0.0366
 6649SOL    HW225911  12.362   5.456   1.003 -2.2592  0.7332  0.5344
 6650SOL     OW25912   8.230   3.800   7.373  0.2673 -0.3183 -0.1133
 6650SOL    HW125913   8.138   3.829   7.374  0.5874  0.9466  2.3414
 6650SOL    HW225914   8.273   3.858   7.311 -0.4220 -0.2871 -0.5716
 6651SOL     OW25915   9.312  11.662   0.485 -0.0484 -0.1204 -0.1216
 6651SOL    HW125916   9.229  11.696   0.518 -0.2278  0.6641 -1.3296
 6651SOL    HW225917   9.296  11.645   0.392  0.9278 -0.6610 -0.1995
 6652SOL     OW25918  10.904   8.106   0.002 -0.1134  0.0461 -0.2779
 6652SOL    HW125919  10.840   8.115  -0.068  1.1530  1.1614 -1.3738
 6652SOL    HW225920  10.860   8.139   0.080 -0.4598  2.2120 -1.2938
 6653SOL     OW25921   1.429   0.284   7.474  0.2569  0.5022 -0.4050
 6653SOL    HW125922   1.348   0.287   7.423  1.0060  2.3322 -1.5441
 6653SOL    HW225923   1.463   0.373   7.473  1.9096 -0.0537  0.7128
 6654SOL     OW25924   0.339   5.980  10.361  0.0215 -0.0983 -0.3458
 6654SOL    HW125925   0.425   5.998  10.324 -0.7601  0.8320 -1.7922
 6654SOL    HW225926   0.323   6.053  10.421  0.6264 -0.7823  0.6728
 6655SOL     OW25927   4.550   2.575   4.539  0.1372  0.0738 -0.2727
 6655SOL    HW125928   4.530   2.632   4.614 -1.0734 -0.2553 -0.3125
 6655SOL    HW225929   4.489   2.502   4.549 -0.0416  0.0274 -1.5776
 6656SOL     OW25930   5.318  11.009   4.002 -0.2370 -0.1659 -0.4398
 6656SOL    HW125931   5.332  10.928   3.953 -0.6734 -0.2239 -0.4720
 6656SOL    HW225932   5.350  11.078   3.945  1.7396 -0.4206  0.2485
 6657SOL     OW25933   6.605   5.712  11.244  0.3364  0.7059  0.2358
 6657SOL    HW125934   6.688   5.666  11.253 -0.1450 -0.6013 -1.4486
 6657SOL    HW225935   6.628   5.804  11.247  2.0594  0.3925 -1.5588
 6658SOL     OW25936   7.330   8.398   3.671  0.6234  0.6150  0.4247
 6658SOL    HW125937   7.408   8.361   3.712 -0.3873 -2.7795 -0.4231
 6658SOL    HW225938   7.265   8.403   3.741  0.1790 -1.1900  0.1790
 6659SOL     OW25939   8.741  11.276   7.511  0.1597 -0.2246 -0.2451
 6659SOL    HW125940   8.664  11.245   7.463 -1.2146  1.4222  0.7477
 6659SOL    HW225941   8.735  11.232   7.596 -0.2670  0.6285  0.1815
 6660SOL     OW25942   0.616   4.303  10.870 -0.4226  0.0037  0.3587
 6660SOL    HW125943   0.648   4.383  10.912 -0.8719 -0.2814  1.2535
 6660SOL    HW225944   0.546   4.271  10.927 -0.1763 -1.0941  0.0801
 6661SOL     OW25945   3.345   6.387   4.412 -0.2528  0.2913  0.1323
 6661SOL    HW125946   3.361   6.478   4.389  0.6167  0.5564  1.7001
 6661SOL    HW225947   3.431   6.350   4.431 -0.8639  0.1752  3.0910
 6662SOL     OW25948  10.793   3.967  11.591  0.0844  0.3007 -0.4981
 6662SOL    HW125949  10.875   3.921  11.569  0.4587  1.0681 -0.7369
 6662SOL    HW225950  10.724   3.909  11.558  0.5045 -0.6591  0.2781
 6663SOL     OW25951   1.668   1.731   1.178 -0.3007  0.0681 -0.0155
 6663SOL    HW125952   1.666   1.639   1.206 -1.1276 -1.1685 -3.6717
 6663SOL    HW225953   1.720   1.775   1.245  0.9829 -3.2376  1.3570
 6664SOL     OW25954   6.752   7.607   3.972  0.5144 -0.1746 -0.1836
 6664SOL    HW125955   6.691   7.638   3.905  1.8046  1.8905 -0.4914
 6664SOL    HW225956   6.832   7.588   3.924  0.8094 -0.7172  0.5097
 6665SOL     OW25957   4.826  10.397   1.393  0.1748 -0.6997 -0.6655
 6665SOL    HW125958   4.745  10.442   1.373  1.8624  1.7803 -2.4208
 6665SOL    HW225959   4.842  10.417   1.486 -0.3457  0.2837 -0.7766
 6666SOL     OW25960   5.753   7.393   2.853 -0.1429 -0.0774 -0.7958
 6666SOL    HW125961   5.725   7.377   2.943 -0.3291 -0.1283 -0.8628
 6666SOL    HW225962   5.753   7.488   2.845 -2.7680 -0.0827 -1.5606
 6667SOL     OW25963   8.758   4.391   5.478 -0.2459  0.0774 -0.3842
 6667SOL    HW125964   8.749   4.419   5.387  0.7445  0.3863 -0.3952
 6667SOL    HW225965   8.692   4.443   5.525 -1.4181 -0.7790 -1.0490
 6668SOL     OW25966  10.868   1.405   1.037 -0.0673 -0.1562  0.1348
 6668SOL    HW125967  10.940   1.389   0.976 -1.0472 -0.2697 -1.0520
 6668SOL    HW225968  10.794   1.426   0.980 -0.9931 -0.1447  1.3123
 6669SOL     OW25969   0.559   0.958   1.366  0.3830  0.8367  0.3954
 6669SOL    HW125970   0.623   0.922   1.428  0.1288 -0.9064 -0.2992
 6669SOL    HW225971   0.480   0.906   1.381 -0.0325  1.1561 -0.6271
 6670SOL     OW25972   6.156   6.940   4.579 -0.3689  0.1087 -0.4726
 6670SOL    HW125973   6.160   6.844   4.580 -2.9355 -0.1098  2.1360
 6670SOL    HW225974   6.240   6.967   4.616  0.1042 -1.1458 -0.5598
 6671SOL     OW25975  11.565   1.777   9.479  0.1584  0.1280  0.4938
 6671SOL    HW125976  11.554   1.841   9.409 -1.4619  0.2345  0.8058
 6671SOL    HW225977  11.657   1.751   9.474 -0.2562 -1.0949 -2.7223
 6672SOL     OW25978   9.293  11.964   7.465  0.2939 -0.0263 -0.0996
 6672SOL    HW125979   9.297  12.044   7.517 -0.3467 -0.5660  0.8075
 6672SOL    HW225980   9.325  11.990   7.379  2.0897  0.7269  0.7340
 6673SOL     OW25981   2.400   8.672   1.783  0.1690  0.3810  0.3936
 6673SOL    HW125982   2.349   8.602   1.743 -0.5723  0.1900  1.6104
 6673SOL    HW225983   2.339   8.714   1.844  0.8086  1.6409  0.1899
 6674SOL     OW25984  12.014  10.318   5.679  0.5614 -0.1953  0.3289
 6674SOL    HW125985  11.935  10.292   5.633  0.3120  0.4555  0.3757
 6674SOL    HW225986  12.054  10.236   5.707 -0.2848 -0.5175  0.6202
 6675SOL     OW25987   8.153   1.744   3.820  0.0327 -0.0960  0.5061
 6675SOL    HW125988   8.204   1.752   3.901 -1.8504  2.2201  1.5784
 6675SOL    HW225989   8.213   1.774   3.751  1.3972 -1.3290  1.0955
 6676SOL     OW25990   4.571   4.250   6.766 -0.1250 -0.1037  0.6326
 6676SOL    HW125991   4.531   4.232   6.850 -1.4219 -0.0987  0.0311
 6676SOL    HW225992   4.504   4.297   6.716  0.6804  0.0590 -0.3360
 6677SOL     OW25993   8.145   2.514   9.822  0.0411  0.2902  0.0671
 6677SOL    HW125994   8.197   2.436   9.840 -0.9362  0.2487  3.3738
 6677SOL    HW225995   8.209   2.579   9.792  1.3208 -0.9281  0.0578
 6678SOL     OW25996   9.014   9.817  10.218  0.5235 -0.0443  0.3346
 6678SOL    HW125997   8.928   9.813  10.259  0.0668  0.8689 -0.4808
 6678SOL    HW225998   9.005   9.886  10.152  1.3618 -1.1414 -0.9662
 6679SOL     OW25999   4.651  11.686   6.146 -0.4862 -0.2339 -0.4263
 6679SOL    HW126000   4.603  11.605   6.162 -0.7948 -0.1669 -1.0296
 6679SOL    HW226001   4.593  11.739   6.093 -0.7572  0.8617  0.9136
 6680SOL     OW26002   7.696   1.799   8.279 -1.4296  0.2280 -1.1957
 6680SOL    HW126003   7.674   1.846   8.198 -1.0012  0.5452 -1.1305
 6680SOL    HW226004   7.611   1.767   8.312 -2.0046  2.4646 -0.2959
 6681SOL     OW26005   2.199   1.711  10.877 -0.1342 -0.4739  0.7174
 6681SOL    HW126006   2.241   1.796  10.890 -1.3791  0.3017 -0.0494
 6681SOL    HW226007   2.144   1.700  10.955 -0.7076 -0.1012  0.3751
 6682SOL     OW26008  11.285   6.049   8.566  0.8981  0.1845  0.5107
 6682SOL    HW126009  11.374   6.055   8.602  0.8500  1.9316  0.4490
 6682SOL    HW226010  11.244   5.977   8.613  2.2111 -0.3637  0.8534
 6683SOL     OW26011   2.946   3.543   0.240  0.1693 -0.0143 -0.1644
 6683SOL    HW126012   3.000   3.468   0.214  1.0014  0.2429  0.7832
 6683SOL    HW226013   2.955   3.548   0.335 -1.6441 -0.0359  0.0542
 6684SOL     OW26014   7.034   5.689   7.644  0.3262  0.6894  0.1093
 6684SOL    HW126015   7.127   5.701   7.627  0.0529  1.1762 -1.0922
 6684SOL    HW226016   7.001   5.776   7.665  0.0742  0.5775  0.1869
 6685SOL     OW26017  11.384  11.632   6.138 -0.2549 -0.4435  0.1318
 6685SOL    HW126018  11.326  11.598   6.069  0.0957 -1.0777  0.1429
 6685SOL    HW226019  11.416  11.715   6.104 -0.5869 -0.4452 -0.1950
 6686SOL     OW26020   9.867   5.201  10.005  0.0559 -0.0937 -0.7163
 6686SOL    HW126021   9.934   5.189  10.073  0.5265  1.0796 -0.9579
 6686SOL    HW226022   9.793   5.149  10.036  0.0858  0.7899  0.9590
 6687SOL     OW26023   3.779   5.548   3.822  0.7655  0.0016  0.1335
 6687SOL    HW126024   3.829   5.584   3.895 -0.4003  1.1001  0.4371
 6687SOL    HW226025   3.705   5.504   3.863  1.6852 -2.0638 -0.2860
 6688SOL     OW26026   5.714   1.498   9.077 -0.5698 -0.3782  0.0895
 6688SOL    HW126027   5.722   1.557   9.152 -0.3012  0.0180 -0.2509
 6688SOL    HW226028   5.776   1.427   9.097 -0.7291 -0.4377  0.3888
 6689SOL     OW26029   4.928   2.770   6.855  0.0800 -0.7942 -0.1515
 6689SOL    HW126030   4.925   2.681   6.890  1.2844 -1.1764 -0.9523
 6689SOL    HW226031   4.888   2.763   6.769  0.8226 -0.7314 -0.5140
 6690SOL     OW26032   9.140   2.584   2.060  0.0967 -0.8347  0.0753
 6690SOL    HW126033   9.074   2.584   1.990  0.3300 -0.6397 -0.1464
 6690SOL    HW226034   9.178   2.672   2.056 -0.2037 -0.6666  0.7478
 6691SOL     OW26035   6.267  11.899   9.781  0.2098 -0.1946  0.3846
 6691SOL    HW126036   6.177  11.881   9.754 -0.0503  0.6377  0.6816
 6691SOL    HW226037   6.312  11.815   9.770 -0.9877 -1.0752  1.8337
 6692SOL     OW26038   4.356  10.575   5.858  0.7156  0.2832  0.6677
 6692SOL    HW126039   4.423  10.623   5.809  1.5935 -3.2280 -1.9969
 6692SOL    HW226040   4.403  10.540   5.934  1.5650 -0.7823 -0.3084
 6693SOL     OW26041   2.045   5.608   8.720 -0.4070 -1.0315  0.1081
 6693SOL    HW126042   2.040   5.517   8.692 -0.5286 -0.8775 -0.3819
 6693SOL    HW226043   2.137   5.633   8.706 -0.4573 -0.9688 -0.1177
 6694SOL     OW26044   3.750   6.475  11.177 -0.0906 -0.0012  0.2941
 6694SOL    HW126045   3.834   6.432  11.160 -0.9992 -1.5802 -0.3777
 6694SOL    HW226046   3.774   6.556  11.221  1.7461 -0.8264  0.9246
 6695SOL     OW26047   4.061   0.331   6.513  0.6398  0.0045 -0.3048
 6695SOL    HW126048   4.013   0.369   6.440  0.0067 -0.5048 -0.1665
 6695SOL    HW226049   4.144   0.301   6.474  1.6212  2.4131 -0.2056
 6696SOL     OW26050   4.918  11.718   6.151  0.2704 -0.4852 -0.0229
 6696SOL    HW126051   4.823  11.734   6.150  0.1006 -1.4027 -0.9625
 6696SOL    HW226052   4.926  11.623   6.159  1.1147 -0.4238 -0.0299
 6697SOL     OW26053   3.160  10.712  11.285  0.8419 -0.2072  0.2470
 6697SOL    HW126054   3.195  10.719  11.374 -0.0507  0.7444  0.5445
 6697SOL    HW226055   3.109  10.793  11.273 -0.2394 -0.9868 -0.5995
 6698SOL     OW26056   3.071   9.093  10.484  0.1173 -0.1837  0.0987
 6698SOL    HW126057   3.044   9.012  10.528 -0.1203  0.9648  2.2192
 6698SOL    HW226058   3.025   9.091  10.400 -3.2168 -0.3431  1.7912
 6699SOL     OW26059   2.919   4.319   5.386 -0.6420  0.4881 -0.3178
 6699SOL    HW126060   3.009   4.297   5.362 -1.8659 -4.1072 -1.6952
 6699SOL    HW226061   2.928   4.381   5.459  3.5415  0.9615 -1.0000
 6700SOL     OW26062   1.225  11.220   8.461  0.1833 -0.2076 -0.4975
 6700SOL    HW126063   1.158  11.273   8.504  0.5166 -0.6483  0.6128
 6700SOL    HW226064   1.290  11.283   8.428  0.0428  0.1256 -0.1348
 6701SOL     OW26065  12.280   4.353   7.760 -0.0020 -0.0825  0.0832
 6701SOL    HW126066  12.273   4.293   7.686  0.4426 -0.7608  0.5845
 6701SOL    HW226067  12.351   4.318   7.813 -1.4155 -0.5818  1.7237
 6702SOL     OW26068  10.955   3.491   2.052  0.4099 -0.8085  0.5485
 6702SOL    HW126069  11.021   3.442   2.101  1.5135  0.1660  0.0726
 6702SOL    HW226070  10.978   3.477   1.960  0.0008 -0.3822  0.3771
 6703SOL     OW26071  11.355  10.547   2.810 -0.0358 -0.1422 -0.0287
 6703SOL    HW126072  11.261  10.548   2.790  0.1000 -1.5521 -0.8626
 6703SOL    HW226073  11.384  10.461   2.781  1.5472  0.3227  0.1278
 6704SOL     OW26074   6.841   7.884   2.937 -0.1279  0.0922 -0.0408
 6704SOL    HW126075   6.755   7.844   2.940 -1.4390  2.6261 -0.9629
 6704SOL    HW226076   6.826   7.977   2.953  2.9697  0.1471  4.3932
 6705SOL     OW26077   7.599   3.184   5.581  0.3122 -0.0865 -0.4434
 6705SOL    HW126078   7.615   3.262   5.526  0.0911 -0.0851 -0.5072
 6705SOL    HW226079   7.522   3.143   5.541 -0.4286  0.4287  0.4227
 6706SOL     OW26080   0.528  11.028   8.750  0.5792  0.1186  0.4763
 6706SOL    HW126081   0.437  11.013   8.724  0.4474  0.8587  0.4825
 6706SOL    HW226082   0.553  10.948   8.796  0.1526 -0.3642 -0.1125
 6707SOL     OW26083   7.240   7.243   2.680  0.4426 -0.2055 -0.6312
 6707SOL    HW126084   7.180   7.248   2.605  0.8897  0.7856 -0.9398
 6707SOL    HW226085   7.201   7.177   2.737  0.5157 -1.5611 -2.0870
 6708SOL     OW26086   7.545  10.176   9.117  0.4406 -0.2156  0.8736
 6708SOL    HW126087   7.535  10.266   9.086  0.4504 -0.6747 -0.5421
 6708SOL    HW226088   7.638  10.168   9.138  0.6578 -0.1742 -0.0081
 6709SOL     OW26089   3.380   0.538  10.010  0.1431 -0.0441 -0.3385
 6709SOL    HW126090   3.330   0.603   9.961  2.7165  2.0431 -0.4044
 6709SOL    HW226091   3.420   0.483   9.942 -0.0685 -0.1449 -0.3829
 6710SOL     OW26092  11.431   9.319   9.195  0.3071 -0.4067  0.4460
 6710SOL    HW126093  11.484   9.240   9.210  2.4678  0.9025  0.1606
 6710SOL    HW226094  11.376   9.325   9.273  1.5327 -1.1354  1.4230
 6711SOL     OW26095   8.171   3.852   3.726  0.4254 -0.4226  0.0711
 6711SOL    HW126096   8.148   3.943   3.707 -1.7311 -0.7889  0.7489
 6711SOL    HW226097   8.189   3.813   3.641 -0.0097  0.2720 -0.3444
 6712SOL     OW26098   4.026   5.779   5.773 -0.1727 -0.9393  0.2005
 6712SOL    HW126099   3.944   5.817   5.741  1.4710  0.9175 -2.1795
 6712SOL    HW226100   4.000   5.722   5.846 -3.4160  0.4215  0.2549
 6713SOL     OW26101   2.364   5.647  11.942  0.6466  0.1090 -0.1896
 6713SOL    HW126102   2.321   5.675  11.861  0.5959  1.2042  0.1900
 6713SOL    HW226103   2.335   5.711  12.007  1.0132 -0.5151  0.6037
 6714SOL     OW26104   9.501   3.595   5.900  0.1666 -0.0599  0.5832
 6714SOL    HW126105   9.536   3.511   5.870 -0.2604 -0.0551  0.0326
 6714SOL    HW226106   9.515   3.595   5.994 -0.8783 -1.2716  0.7737
 6715SOL     OW26107   7.347   2.538   2.270  0.3029 -0.0717 -0.4502
 6715SOL    HW126108   7.411   2.471   2.244  0.3013 -0.2122 -0.0925
 6715SOL    HW226109   7.264   2.491   2.272  0.7228 -0.9367  3.0471
 6716SOL     OW26110  12.130   9.805   8.173  0.4198 -0.1640 -0.1959
 6716SOL    HW126111  12.087   9.821   8.258  1.1173  1.9542 -0.1690
 6716SOL    HW226112  12.061   9.770   8.118 -0.4047 -0.3014  0.8774
 6717SOL     OW26113   3.395   4.661   7.850  0.0456 -0.1970  0.0463
 6717SOL    HW126114   3.447   4.583   7.830  0.3908 -0.5072  1.9141
 6717SOL    HW226115   3.455   4.734   7.835  0.4182 -0.4355  0.3444
 6718SOL     OW26116   8.938   9.853   5.595  0.2752  0.0332  0.0554
 6718SOL    HW126117   8.930   9.770   5.548  0.2268  0.5393 -0.8613
 6718SOL    HW226118   9.012   9.897   5.552 -0.3074  0.8660 -0.1109
 6719SOL     OW26119   8.059   4.855   4.505 -0.0600 -0.5740  0.0503
 6719SOL    HW126120   8.147   4.870   4.538 -0.0460 -0.9865  0.2105
 6719SOL    HW226121   8.022   4.789   4.564 -0.7009  0.0467  0.3687
 6720SOL     OW26122  10.508   7.469   2.447  0.0619  0.0652 -0.3522
 6720SOL    HW126123  10.423   7.429   2.465  0.1231  0.0618 -0.0635
 6720SOL    HW226124  10.491   7.527   2.372 -0.0838 -0.2955 -0.6043
 6721SOL     OW26125   3.681   0.993   7.311 -0.6275 -0.4131 -0.2690
 6721SOL    HW126126   3.661   1.034   7.396 -0.6971  0.0353 -0.4982
 6721SOL    HW226127   3.596   0.981   7.270 -0.7099 -1.9049  0.2936
 6722SOL     OW26128   8.571   8.362   1.443  0.0793  0.2591 -0.0087
 6722SOL    HW126129   8.491   8.339   1.396  0.7780 -1.5293 -0.4342
 6722SOL    HW226130   8.606   8.278   1.472  1.6656  1.0248  0.3935
 6723SOL     OW26131  11.046   7.351   2.687  0.3969 -0.3985 -0.0036
 6723SOL    HW126132  10.958   7.369   2.654  0.0257  0.2976  1.2802
 6723SOL    HW226133  11.044   7.259   2.712 -0.3434 -0.0990  1.0840
 6724SOL     OW26134   1.533   4.274   5.103  0.1741  0.1190  0.4588
 6724SOL    HW126135   1.602   4.235   5.049  1.2924  1.7099  0.6633
 6724SOL    HW226136   1.475   4.201   5.125 -0.3018 -0.6248 -2.7977
 6725SOL     OW26137   9.342   4.748   0.946  0.6325  0.2415  0.0299
 6725SOL    HW126138   9.424   4.742   0.897  0.1225  0.7022 -0.9123
 6725SOL    HW226139   9.312   4.658   0.954  0.8745  0.1349 -0.2462
 6726SOL     OW26140   7.856   7.601   7.254 -0.1549 -0.1271 -0.3635
 6726SOL    HW126141   7.866   7.509   7.230 -2.3048  0.0796 -2.3937
 6726SOL    HW226142   7.865   7.602   7.350  1.8570 -2.1006 -0.4517
 6727SOL     OW26143   4.259   9.012   9.132  0.5571 -0.8787 -0.5986
 6727SOL    HW126144   4.306   8.934   9.105  0.0448 -1.7304  0.8468
 6727SOL    HW226145   4.191   9.023   9.065  0.0195 -2.2567 -0.3101
 6728SOL     OW26146   2.483   9.676  10.278  0.0562  0.3679 -0.6262
 6728SOL    HW126147   2.484   9.598  10.332  0.5181 -0.2278 -1.4685
 6728SOL    HW226148   2.511   9.747  10.336  0.2695 -0.2066 -0.0285
 6729SOL     OW26149  11.417   7.951  10.431 -0.8579 -0.6449 -0.3771
 6729SOL    HW126150  11.355   8.007  10.478 -0.8496 -0.6770 -0.3276
 6729SOL    HW226151  11.362   7.892  10.380 -0.8690 -0.6825 -0.3218
 6730SOL     OW26152  11.871   2.771   9.248 -0.2541 -0.3347 -0.2616
 6730SOL    HW126153  11.871   2.810   9.336  0.1165 -1.2198  0.1508
 6730SOL    HW226154  11.876   2.845   9.188 -0.0615  0.2646  0.4815
 6731SOL     OW26155  12.172   3.029  10.773  0.1906 -0.0669  0.3072
 6731SOL    HW126156  12.100   2.974  10.741  0.1056  0.6773 -0.8643
 6731SOL    HW226157  12.167   3.023  10.868 -1.8988  0.5355  0.2868
 6732SOL     OW26158   1.756   7.448   0.760  0.5993 -0.0233  0.0993
 6732SOL    HW126159   1.660   7.452   0.769  0.3581 -0.6597 -1.7920
 6732SOL    HW226160   1.779   7.360   0.789  0.3252 -0.6132 -1.3831
 6733SOL     OW26161   1.033  11.107   1.561  0.5112  0.3288 -0.2391
 6733SOL    HW126162   0.986  11.026   1.582 -1.3026  0.6552 -2.5447
 6733SOL    HW226163   1.086  11.085   1.484  1.6745  0.8256  0.3970
 6734SOL     OW26164   3.876   7.852   6.265 -0.2794  0.0118 -0.0817
 6734SOL    HW126165   3.786   7.826   6.245  0.2206 -2.0616  0.1428
 6734SOL    HW226166   3.929   7.777   6.238  1.0244 -0.3617  3.1037
 6735SOL     OW26167  11.826   4.720   8.320  0.3790  0.2358  0.0095
 6735SOL    HW126168  11.811   4.714   8.414 -3.3144  1.9841 -0.2835
 6735SOL    HW226169  11.847   4.630   8.293 -1.3120 -0.8769  2.1218
 6736SOL     OW26170   0.748  11.640   8.909 -0.2628  0.0976  0.0032
 6736SOL    HW126171   0.802  11.562   8.892  1.2583  1.1865 -0.3690
 6736SOL    HW226172   0.737  11.680   8.822 -0.9167  0.3862  0.2143
 6737SOL     OW26173   7.586   6.460   8.125  0.5334 -0.6977  0.0752
 6737SOL    HW126174   7.548   6.464   8.213 -0.2145  1.3385 -0.2809
 6737SOL    HW226175   7.626   6.373   8.120  0.3259 -0.9784  2.3016
 6738SOL     OW26176   6.384   6.388   8.543 -0.6359  0.1309  0.2227
 6738SOL    HW126177   6.421   6.406   8.629 -1.3510  0.1428  0.5313
 6738SOL    HW226178   6.317   6.322   8.558 -0.9702  0.3467 -0.2772
 6739SOL     OW26179   2.126   7.855   1.130 -0.5558  0.5553  0.2287
 6739SOL    HW126180   2.178   7.924   1.088 -1.2915  1.0071  0.0494
 6739SOL    HW226181   2.145   7.776   1.078 -1.4119  1.0889 -0.9573
 6740SOL     OW26182   5.399  12.160   7.966 -0.3490 -0.7213  0.1227
 6740SOL    HW126183   5.450  12.239   7.946 -2.2605  0.8112  0.9525
 6740SOL    HW226184   5.368  12.130   7.881 -0.4393  0.0480 -0.1279
 6741SOL     OW26185   8.453  11.387   7.070 -0.1630 -0.2502  0.0927
 6741SOL    HW126186   8.547  11.392   7.051 -0.5387 -0.9730 -2.3951
 6741SOL    HW226187   8.432  11.472   7.109  1.4411  0.0826  0.3137
 6742SOL     OW26188  10.100   9.141  12.105 -0.8994 -0.7453  0.2292
 6742SOL    HW126189  10.159   9.193  12.159 -3.4637  2.3523  0.3630
 6742SOL    HW226190  10.030   9.115  12.165 -2.5320  0.6352 -0.9952
 6743SOL     OW26191  11.214   1.255   5.650 -0.2023 -0.5296 -0.1812
 6743SOL    HW126192  11.161   1.276   5.726 -2.8359 -0.0356 -2.0108
 6743SOL    HW226193  11.216   1.160   5.648 -0.6798 -0.5519  0.1578
 6744SOL     OW26194   2.402   2.663  10.973  0.3300 -0.1777 -0.3391
 6744SOL    HW126195   2.420   2.576  11.009 -0.7673  0.0802  0.9242
 6744SOL    HW226196   2.306   2.668  10.970  0.3672  1.2599  0.3032
 6745SOL     OW26197  10.389   4.206   6.084 -0.1194 -0.2594 -0.7260
 6745SOL    HW126198  10.446   4.129   6.082 -0.5618 -0.7326  1.4962
 6745SOL    HW226199  10.308   4.178   6.042 -0.3076 -1.0761  0.1496
 6746SOL     OW26200   1.367   5.598   7.538  0.6050 -0.0284 -0.7423
 6746SOL    HW126201   1.330   5.536   7.601  0.3319  0.2904 -0.5815
 6746SOL    HW226202   1.457   5.570   7.525  1.5170  1.4212  1.7882
 6747SOL     OW26203   4.311   9.985   2.967 -0.3712  0.0467 -0.0276
 6747SOL    HW126204   4.230   9.970   2.919  0.5337  1.2482 -2.0431
 6747SOL    HW226205   4.366   9.908   2.946 -0.1490  0.3470 -0.5589
 6748SOL     OW26206   2.138  11.681   5.403 -0.0696  0.5908  0.2590
 6748SOL    HW126207   2.176  11.594   5.416 -1.8622 -0.5178 -1.3889
 6748SOL    HW226208   2.214  11.738   5.390  1.1851 -1.4568 -2.7341
 6749SOL     OW26209   3.989   3.405  10.234  0.5607 -0.2340 -0.2519
 6749SOL    HW126210   3.922   3.416  10.166  2.1060  0.3270 -1.7629
 6749SOL    HW226211   3.967   3.470  10.300  0.0769  0.5162 -1.1312
 6750SOL     OW26212   3.449   0.887   6.980 -0.0036  0.2779  0.3218
 6750SOL    HW126213   3.505   0.931   6.916  2.2096 -1.7277  0.7263
 6750SOL    HW226214   3.368   0.868   6.933  0.2917  1.7276 -0.8372
 6751SOL     OW26215   4.801  11.946   7.122  0.4273  0.3789  0.2898
 6751SOL    HW126216   4.744  11.869   7.112 -1.2147  1.7056 -1.0555
 6751SOL    HW226217   4.879  11.924   7.071  0.6288 -0.9619  1.1137
 6752SOL     OW26218   1.351  11.948  10.768  0.0410 -0.0905 -0.1164
 6752SOL    HW126219   1.355  12.036  10.805 -0.9331 -0.2854  0.5109
 6752SOL    HW226220   1.428  11.941  10.711  2.5147 -0.3178  3.0244
 6753SOL     OW26221   6.481   7.748   6.698 -0.2158 -0.5690 -0.2573
 6753SOL    HW126222   6.447   7.684   6.635  0.4637 -2.7037  1.4246
 6753SOL    HW226223   6.570   7.765   6.667 -0.5894  0.0308 -1.0322
 6754SOL     OW26224   2.766   6.352   7.188  0.1445 -0.5404  0.6844
 6754SOL    HW126225   2.774   6.332   7.281 -2.5494 -1.1358  0.8686
 6754SOL    HW226226   2.703   6.425   7.185  1.4630  0.6169 -0.6186
 6755SOL     OW26227   4.616   9.006   0.811  0.2472 -0.3506  0.5048
 6755SOL    HW126228   4.527   9.041   0.808 -1.0880 -3.3657  1.1227
 6755SOL    HW226229   4.648   9.013   0.721  0.4710  3.0291  0.7187
 6756SOL     OW26230  11.879   3.533   8.262  0.3355  0.0603  0.3305
 6756SOL    HW126231  11.807   3.595   8.257 -2.0157 -2.4486  0.6688
 6756SOL    HW226232  11.885   3.510   8.355 -0.5091 -1.9269 -0.0544
 6757SOL     OW26233   4.544   3.540   9.997 -0.0138 -0.1380  0.2224
 6757SOL    HW126234   4.605   3.602   9.957  0.3645 -1.3396 -1.1627
 6757SOL    HW226235   4.552   3.555  10.091 -1.0828  2.9370 -0.0846
 6758SOL     OW26236   2.236   3.164   0.496  0.0557 -0.2447  0.3813
 6758SOL    HW126237   2.204   3.101   0.561  1.2047 -1.7543 -0.4424
 6758SOL    HW226238   2.177   3.153   0.421 -0.0544  0.0403  0.4251
 6759SOL     OW26239  11.736   2.223   5.920 -0.1184  0.1135  0.8800
 6759SOL    HW126240  11.702   2.310   5.942  1.3956  1.1973 -0.7296
 6759SOL    HW226241  11.781   2.236   5.836  1.4671 -1.8984  1.3442
 6760SOL     OW26242   6.505   3.238  10.894 -0.1742 -0.0706 -0.0374
 6760SOL    HW126243   6.523   3.269  10.983 -0.2832  1.2988 -0.4731
 6760SOL    HW226244   6.588   3.249  10.847 -0.3613  0.0605 -0.3421
 6761SOL     OW26245   9.292   4.169  10.301  0.2087 -0.4472  0.0317
 6761SOL    HW126246   9.249   4.128  10.227  0.6931 -0.0126 -0.5032
 6761SOL    HW226247   9.256   4.258  10.304 -0.8458 -0.8856  1.1882
 6762SOL     OW26248   5.705   1.473   6.827 -0.0380 -0.2311  0.6928
 6762SOL    HW126249   5.790   1.499   6.863 -0.8713  2.0766  1.1263
 6762SOL    HW226250   5.725   1.445   6.738  1.2206 -0.0174  0.8813
 6763SOL     OW26251   5.156   1.921   3.857 -0.1368  0.4828  0.1094
 6763SOL    HW126252   5.062   1.931   3.866  0.0636  1.7410  0.9588
 6763SOL    HW226253   5.170   1.826   3.857 -1.5579  0.1953 -2.0353
 6764SOL     OW26254   3.988   6.949   3.060 -0.2686  0.5411 -0.2993
 6764SOL    HW126255   3.979   6.971   2.968 -2.3435 -0.6966 -0.4436
 6764SOL    HW226256   4.017   6.858   3.061 -0.0309  0.6130  0.2863
 6765SOL     OW26257   5.317   4.603   3.476  0.0544 -0.0035  0.2184
 6765SOL    HW126258   5.259   4.651   3.417 -0.8854 -0.5171  0.7160
 6765SOL    HW226259   5.273   4.520   3.492  0.2733  0.1356  1.6716
 6766SOL     OW26260   7.799   1.679  11.295 -0.0994 -0.1947 -0.3927
 6766SOL    HW126261   7.710   1.699  11.264 -0.5684 -1.6257 -0.0314
 6766SOL    HW226262   7.844   1.642  11.220 -0.8844 -2.6021  0.2477
 6767SOL     OW26263  11.023   2.340  11.294 -0.2951 -0.3479  0.6458
 6767SOL    HW126264  11.069   2.260  11.322 -1.1692 -0.3871  2.0704
 6767SOL    HW226265  10.932   2.324  11.317 -0.6783  0.6230 -0.1229
 6768SOL     OW26266   9.566   4.652   7.980  0.1951 -0.0596 -0.3476
 6768SOL    HW126267   9.550   4.620   7.892 -0.3737  1.4716 -0.8475
 6768SOL    HW226268   9.499   4.610   8.034 -3.0856  2.9854 -1.6605
 6769SOL     OW26269   3.077   0.416   1.021  0.2925 -0.2001  0.1723
 6769SOL    HW126270   3.010   0.458   1.075  0.0250  0.7208 -0.8577
 6769SOL    HW226271   3.047   0.427   0.931  1.6075 -0.1697 -0.2877
 6770SOL     OW26272   1.723   2.650  12.233 -0.3467  0.5113  0.1146
 6770SOL    HW126273   1.677   2.734  12.233  0.8903  1.2290 -0.5666
 6770SOL    HW226274   1.766   2.647  12.319  0.4852  1.1033 -0.2674
 6771SOL     OW26275   8.407   2.668  11.488  0.0810  0.2810 -0.2015
 6771SOL    HW126276   8.351   2.726  11.538  2.1157  1.0748  1.2814
 6771SOL    HW226277   8.423   2.593  11.546  0.9304  0.3046 -0.3798
 6772SOL     OW26278   2.392  10.098   4.985  0.0828  0.3711 -0.6511
 6772SOL    HW126279   2.379  10.088   5.079  0.5650 -1.9303 -0.7680
 6772SOL    HW226280   2.414  10.191   4.973  2.0935  0.3141  1.7815
 6773SOL     OW26281   2.490   7.458   5.418  0.0034 -0.1570  0.4808
 6773SOL    HW126282   2.514   7.367   5.435  0.2560 -0.3853 -0.9307
 6773SOL    HW226283   2.545   7.483   5.344  0.5852  1.4460  1.4361
 6774SOL     OW26284   8.113   5.962   9.291  0.0863  0.9002 -0.1280
 6774SOL    HW126285   8.056   5.931   9.221 -1.3789  0.8052  1.0484
 6774SOL    HW226286   8.144   5.883   9.334  0.3233  0.9762 -0.1566
 6775SOL     OW26287  12.315   4.995   6.463 -0.5707 -0.1064  0.3995
 6775SOL    HW126288  12.280   4.910   6.489  0.1640 -0.4121  0.3947
 6775SOL    HW226289  12.274   5.057   6.524  0.6909 -0.7520  1.9734
 6776SOL     OW26290   1.425   0.208   7.182  0.1778  0.5760 -0.1658
 6776SOL    HW126291   1.506   0.235   7.138  0.5601 -0.4760 -0.1369
 6776SOL    HW226292   1.378   0.157   7.116 -1.0502  2.1641 -0.5868
 6777SOL     OW26293  12.393   4.315   0.283 -0.3569  0.0568 -0.5475
 6777SOL    HW126294  12.320   4.353   0.333 -0.1374  0.4915 -0.5520
 6777SOL    HW226295  12.467   4.318   0.344  0.5411  2.7940 -1.6096
 6778SOL     OW26296   3.589   9.207  11.719  0.8705  0.5402 -0.0121
 6778SOL    HW126297   3.672   9.244  11.689  0.1761  0.3265 -2.4067
 6778SOL    HW226298   3.609   9.116  11.739  1.0769  0.2646 -1.3902
 6779SOL     OW26299  11.464   7.464   4.999 -0.1214  0.1363 -0.1409
 6779SOL    HW126300  11.488   7.545   4.954  1.6226 -0.0691  0.3541
 6779SOL    HW226301  11.541   7.408   4.992 -0.8887 -1.0552  0.5010
 6780SOL     OW26302  12.235   1.251   6.371  0.1352 -0.4037  0.1799
 6780SOL    HW126303  12.214   1.166   6.331 -0.0332 -0.2490 -0.0603
 6780SOL    HW226304  12.292   1.229   6.445 -0.8505 -0.8294  0.8341
 6781SOL     OW26305   2.943   5.157   3.879  0.4584 -0.2615 -0.1989
 6781SOL    HW126306   2.879   5.134   3.946  1.0116  0.5228  0.6361
 6781SOL    HW226307   2.896   5.150   3.797 -1.1396  1.5877  0.4682
 6782SOL     OW26308  10.682   2.427   7.823 -0.2598  0.5347  0.0510
 6782SOL    HW126309  10.691   2.422   7.919 -1.6182  1.0561  0.2243
 6782SOL    HW226310  10.758   2.479   7.795  0.8679 -0.7066  0.6903
 6783SOL     OW26311   8.540  10.661   8.933  0.3812 -0.7565 -0.8578
 6783SOL    HW126312   8.523  10.746   8.893  0.0265 -0.2636  0.3071
 6783SOL    HW226313   8.561  10.604   8.859  1.8819  0.6222 -1.5482
 6784SOL     OW26314   4.041   6.987   9.307  0.4065  0.0863 -0.3485
 6784SOL    HW126315   4.021   7.031   9.224  0.5725 -2.7648 -2.0215
 6784SOL    HW226316   4.112   6.928   9.286  0.2572 -0.9305  1.7898
 6785SOL     OW26317   9.618   1.068  12.418  0.3244 -0.1795  0.4082
 6785SOL    HW126318   9.539   1.092  12.465 -0.5214 -0.4819 -0.8171
 6785SOL    HW226319   9.657   1.151  12.391  0.2759 -0.0387  0.7735
 6786SOL     OW26320   1.401   3.057   1.561 -0.2720  0.0809  0.2855
 6786SOL    HW126321   1.455   3.113   1.506 -0.8140 -0.1415 -0.4864
 6786SOL    HW226322   1.427   3.079   1.651  1.5270 -0.4696 -0.0682
 6787SOL     OW26323  10.752   2.333  11.337  0.3995 -0.4007  0.0484
 6787SOL    HW126324  10.731   2.240  11.349  1.5771 -0.6891 -0.0015
 6787SOL    HW226325  10.737   2.349  11.244  0.9146 -0.7534 -0.1051
 6788SOL     OW26326   2.509   8.277   3.798 -0.5176  0.1710 -0.0044
 6788SOL    HW126327   2.581   8.314   3.849  1.3231  0.6859 -2.7793
 6788SOL    HW226328   2.454   8.352   3.775 -2.0853 -0.2141  2.0707
 6789SOL     OW26329   5.874  11.570   2.705  0.0348 -0.3736  0.1763
 6789SOL    HW126330   5.897  11.658   2.674 -2.8824 -0.0532 -1.4306
 6789SOL    HW226331   5.925  11.511   2.648 -0.2975  0.2765 -0.8161
 6790SOL     OW26332   7.974  10.122   7.766 -0.4960  0.0645 -0.5462
 6790SOL    HW126333   7.981  10.203   7.817  0.6216  0.5270 -1.3678
 6790SOL    HW226334   8.052  10.072   7.791 -1.5100 -1.0850  0.4434
 6791SOL     OW26335   4.632   1.941   2.018  0.1216 -0.6298 -0.3919
 6791SOL    HW126336   4.690   1.973   1.948  0.9175 -1.9923 -0.3742
 6791SOL    HW226337   4.554   1.995   2.009  1.0530  0.7149 -0.9326
 6792SOL     OW26338  12.412   6.513   1.024  0.4444 -0.2736 -0.4140
 6792SOL    HW126339  12.394   6.607   1.035 -0.4188 -0.6566  2.1888
 6792SOL    HW226340  12.446   6.505   0.935  0.3266  2.4710 -0.7858
 6793SOL     OW26341   8.656   8.358   5.792 -0.1394  0.1477 -0.5209
 6793SOL    HW126342   8.640   8.344   5.699  0.6167  0.0153 -0.6375
 6793SOL    HW226343   8.612   8.441   5.812 -2.2300 -0.9171 -0.4698
 6794SOL     OW26344   9.175   3.410  10.424  0.6303  0.2147 -0.5384
 6794SOL    HW126345   9.220   3.437  10.505  1.4659  1.7749 -1.4696
 6794SOL    HW226346   9.165   3.492  10.375 -0.5367 -0.5946 -1.6970
 6795SOL     OW26347   6.695  11.823   0.899 -0.0525  0.3817 -0.1410
 6795SOL    HW126348   6.687  11.849   0.807  0.8977  0.9122 -0.0854
 6795SOL    HW226349   6.617  11.860   0.941 -0.1641  0.6890 -0.6101
 6796SOL     OW26350   1.586   4.861   6.608  0.0514 -0.0546 -0.1368
 6796SOL    HW126351   1.551   4.848   6.696 -0.4364 -1.3249 -0.4945
 6796SOL    HW226352   1.671   4.902   6.621 -0.0365 -0.1973  0.9290
 6797SOL     OW26353  10.342  11.722   2.182 -0.0015  0.3165 -0.5944
 6797SOL    HW126354  10.278  11.673   2.130  0.2061 -2.5767  1.5874
 6797SOL    HW226355  10.317  11.705   2.273  1.4816  2.5165  0.3032
 6798SOL     OW26356   9.383   4.088   4.762  0.4300  0.2335  0.5178
 6798SOL    HW126357   9.443   4.161   4.780 -1.1024  1.7779 -0.2808
 6798SOL    HW226358   9.311   4.102   4.824 -0.3502 -0.0003 -0.3159
 6799SOL     OW26359   6.055   1.097  12.241  0.2857  0.4829  0.8467
 6799SOL    HW126360   5.999   1.044  12.185 -0.9336  2.6687 -0.1093
 6799SOL    HW226361   6.141   1.095  12.198 -0.5553  1.8901 -1.0446
 6800SOL     OW26362   3.008  11.619   4.799 -0.1530 -0.6293  0.4067
 6800SOL    HW126363   3.040  11.691   4.743  0.4354 -1.0937  0.1275
 6800SOL    HW226364   2.973  11.663   4.876 -0.1911 -0.0160  0.0517
 6801SOL     OW26365   3.298   3.571  10.045  0.1044  0.3499  0.2661
 6801SOL    HW126366   3.362   3.641  10.047 -0.3151  0.8835 -1.8512
 6801SOL    HW226367   3.213   3.616  10.044 -0.1621 -0.0943 -1.6107
 6802SOL     OW26368   6.974   1.617   1.541 -0.2924 -0.2305  0.1706
 6802SOL    HW126369   6.939   1.638   1.628 -0.6154 -1.6097  0.3991
 6802SOL    HW226370   6.924   1.540   1.513 -0.3024  0.2864 -1.3164
 6803SOL     OW26371   6.861   2.276   2.177 -0.8367 -0.4237  0.7381
 6803SOL    HW126372   6.810   2.195   2.170  1.6383 -1.9928 -3.2395
 6803SOL    HW226373   6.820   2.335   2.114  0.2400 -0.5298 -0.0994
 6804SOL     OW26374   1.729   6.075   1.283 -0.2514  0.2165  0.0926
 6804SOL    HW126375   1.638   6.052   1.304 -0.0444 -0.8164 -0.0533
 6804SOL    HW226376   1.781   6.033   1.351  0.2288 -0.7918 -0.8566
 6805SOL     OW26377   3.946   2.697   4.186  0.3635  0.1876 -0.1495
 6805SOL    HW126378   3.970   2.728   4.098  1.1120 -1.5424 -0.6058
 6805SOL    HW226379   4.021   2.719   4.240  0.4705  0.0810 -0.2524
 6806SOL     OW26380   1.407  10.764   5.971  0.4384 -1.1623  0.0021
 6806SOL    HW126381   1.500  10.742   5.980  0.4717 -1.4376 -0.8977
 6806SOL    HW226382   1.364  10.681   5.952  0.2989 -0.7667 -1.5421
 6807SOL     OW26383   6.212   7.258   9.032  0.2269 -0.8312  0.6667
 6807SOL    HW126384   6.230   7.173   8.991  1.4647 -0.1712 -0.2040
 6807SOL    HW226385   6.171   7.235   9.116  2.3613 -2.3890  1.3894
 6808SOL     OW26386   0.418   1.843   2.215 -0.3355 -0.2166 -0.3865
 6808SOL    HW126387   0.406   1.786   2.291  0.8410 -0.6457 -0.5088
 6808SOL    HW226388   0.501   1.815   2.177  0.3696  1.6900 -0.3491
 6809SOL     OW26389   2.997   1.610  10.083  0.3751  0.0036  0.0537
 6809SOL    HW126390   2.912   1.566  10.085  0.2765  0.1034 -1.2211
 6809SOL    HW226391   3.004   1.646   9.994  2.1338 -0.7899 -0.1719
 6810SOL     OW26392   7.564   9.622  11.917 -0.4056 -0.2658 -0.1234
 6810SOL    HW126393   7.606   9.543  11.950  3.2031  1.6614  0.4335
 6810SOL    HW226394   7.492   9.638  11.978  2.4500 -0.0015  3.5780
 6811SOL     OW26395   6.082  11.194   9.594 -0.5219  0.3050  0.8456
 6811SOL    HW126396   6.029  11.189   9.514  1.5786  1.1369 -0.6702
 6811SOL    HW226397   6.065  11.281   9.629  0.0141  0.6509  0.2435
 6812SOL     OW26398   2.442   3.531   7.858  0.5891 -0.0957  0.1630
 6812SOL    HW126399   2.360   3.563   7.819  0.6541 -0.4535 -0.2804
 6812SOL    HW226400   2.455   3.585   7.935  0.5769  0.7906 -0.4482
 6813SOL     OW26401   7.622   1.587   4.540  0.1242 -0.6961 -0.7482
 6813SOL    HW126402   7.556   1.656   4.536  2.6306  1.8441 -1.3210
 6813SOL    HW226403   7.653   1.578   4.450 -0.2798 -2.8567 -0.7473
 6814SOL     OW26404   7.291   3.427   5.650 -0.3613 -0.5612  0.6734
 6814SOL    HW126405   7.304   3.508   5.699 -0.0124  0.4510 -1.0092
 6814SOL    HW226406   7.204   3.435   5.612 -0.1668 -0.7877  0.1673
 6815SOL     OW26407  10.861   4.742   9.036 -0.2624 -0.0413  0.5539
 6815SOL    HW126408  10.803   4.678   9.076  0.9406 -1.8164 -0.4296
 6815SOL    HW226409  10.946   4.730   9.079 -0.4602  2.3105  1.7657
 6816SOL     OW26410  10.306   8.159   5.916  0.3672  0.1585  0.1295
 6816SOL    HW126411  10.297   8.190   6.006  0.1872 -0.6591  0.4013
 6816SOL    HW226412  10.217   8.153   5.883  0.1088 -2.8669  1.0738
 6817SOL     OW26413   5.453   1.435  10.792  0.1210 -0.9870  0.3519
 6817SOL    HW126414   5.483   1.345  10.782  0.2489 -0.9911  0.7374
 6817SOL    HW226415   5.512   1.487  10.738  0.3552 -1.0804  0.5162
 6818SOL     OW26416   5.816   9.663   8.303 -0.0247 -0.0031 -0.7261
 6818SOL    HW126417   5.870   9.583   8.308  1.4118  1.0080  1.3242
 6818SOL    HW226418   5.868   9.723   8.249 -0.3347  0.1138 -0.8977
 6819SOL     OW26419   0.201   1.544  12.272 -0.3375 -0.4289 -0.4348
 6819SOL    HW126420   0.227   1.632  12.246  0.5978 -0.7717 -0.6974
 6819SOL    HW226421   0.272   1.514  12.329 -1.7840 -0.1324  1.6248
 6820SOL     OW26422   9.598   3.396   1.016 -0.4323 -0.1377  0.0085
 6820SOL    HW126423   9.563   3.321   0.969  0.8232 -0.9355  0.3047
 6820SOL    HW226424   9.562   3.390   1.104 -1.6047  0.5259 -0.4059
 6821SOL     OW26425   6.089  12.302   3.081  0.0210  0.1712  0.1320
 6821SOL    HW126426   6.038  12.382   3.095 -0.6942 -0.1894 -0.3344
 6821SOL    HW226427   6.057  12.268   2.998  1.4572  0.2458 -0.4771
 6822SOL     OW26428   5.865   2.567   8.487  0.3536 -0.1440  0.4628
 6822SOL    HW126429   5.923   2.579   8.412 -1.9850  0.3473 -1.3646
 6822SOL    HW226430   5.862   2.653   8.529  2.9232 -0.7901  2.2134
 6823SOL     OW26431   7.020  11.669   5.667 -0.7027 -0.6415  0.5351
 6823SOL    HW126432   6.994  11.760   5.681 -0.0289 -0.1478 -1.1317
 6823SOL    HW226433   6.956  11.617   5.716 -0.7305  0.7236  2.0335
 6824SOL     OW26434  10.495   6.549   0.062  0.1154  0.1676  0.1900
 6824SOL    HW126435  10.555   6.575  -0.007 -2.5117  2.2655 -1.5497
 6824SOL    HW226436  10.540   6.572   0.143  1.5087  1.9907 -1.0215
 6825SOL     OW26437   4.335   1.740   9.602  0.3467 -0.2174 -0.1658
 6825SOL    HW126438   4.285   1.659   9.602  0.0301 -0.1022  2.2545
 6825SOL    HW226439   4.272   1.807   9.576 -0.3430 -0.3111  1.1844
 6826SOL     OW26440   0.998   1.599   0.497 -0.0614  0.0586  0.2048
 6826SOL    HW126441   1.031   1.592   0.407  0.2402  0.5830  0.2677
 6826SOL    HW226442   1.020   1.689   0.523 -3.0314  1.0570 -0.3358
 6827SOL     OW26443  11.305   8.456   2.950  0.5121  0.5301  0.2355
 6827SOL    HW126444  11.298   8.370   2.992 -1.9398  0.7668  0.4878
 6827SOL    HW226445  11.300   8.519   3.022  1.6808  0.9225 -0.0008
 6828SOL     OW26446   8.109   8.811   3.873  0.1868 -0.0629 -0.2025
 6828SOL    HW126447   8.035   8.812   3.811 -0.3750  0.7268  0.4674
 6828SOL    HW226448   8.075   8.764   3.949  0.3204  0.4392  0.1691
 6829SOL     OW26449   9.291   7.210   1.584 -0.3171 -0.1423 -0.5814
 6829SOL    HW126450   9.377   7.243   1.559 -0.1136 -0.5779 -0.4675
 6829SOL    HW226451   9.288   7.220   1.679  0.6718 -2.5473 -0.2247
 6830SOL     OW26452  11.496   4.580   0.373  0.4801  0.5616 -0.2675
 6830SOL    HW126453  11.567   4.629   0.331 -0.3361  0.4912 -1.7998
 6830SOL    HW226454  11.432   4.648   0.398  0.0655  0.4419 -0.9682
 6831SOL     OW26455  10.067   3.391   7.521 -0.0433 -0.1276 -0.1652
 6831SOL    HW126456  10.032   3.338   7.593 -2.9008  1.8819  0.0605
 6831SOL    HW226457  10.129   3.450   7.563 -0.0553 -0.4126  0.2686
 6832SOL     OW26458   4.785   3.966  11.396  0.1838 -0.3089  0.1615
 6832SOL    HW126459   4.854   3.922  11.346  0.3793  0.2438 -0.0656
 6832SOL    HW226460   4.773   4.050  11.351 -0.8504 -0.5203  0.0117
 6833SOL     OW26461   0.320  11.916   3.195  1.1080  0.2989  0.2417
 6833SOL    HW126462   0.387  11.947   3.133  1.7096 -0.7789  0.3294
 6833SOL    HW226463   0.305  11.825   3.171  0.9875  0.0088  1.3578
 6834SOL     OW26464   8.035  11.166   8.825 -0.2454  0.0653 -0.2594
 6834SOL    HW126465   8.127  11.149   8.805  0.0479  0.9610  0.2901
 6834SOL    HW226466   8.034  11.256   8.858 -1.1952 -0.2306  0.5565
 6835SOL     OW26467   9.003   2.572  11.934  0.0658 -0.0122  0.1748
 6835SOL    HW126468   9.060   2.648  11.922 -1.9310  1.9692  2.3237
 6835SOL    HW226469   9.036   2.530  12.014  0.1638 -0.4581 -0.0981
 6836SOL     OW26470   6.047   4.632  10.555 -0.9105  0.5757  0.3066
 6836SOL    HW126471   6.053   4.669  10.643  2.8586  1.0420  0.0024
 6836SOL    HW226472   6.074   4.703  10.497 -0.0912 -0.6951 -0.9188
 6837SOL     OW26473   1.025   2.512  10.525 -0.5788 -0.3466  0.1882
 6837SOL    HW126474   0.971   2.504  10.604 -0.1244 -0.7559  0.4630
 6837SOL    HW226475   0.968   2.555  10.461 -1.0614 -0.3128  0.6329
 6838SOL     OW26476  11.856   3.227   4.763  0.2875  0.0238  0.1513
 6838SOL    HW126477  11.903   3.303   4.729  1.1237  0.0429  1.2844
 6838SOL    HW226478  11.783   3.264   4.812  0.7350  0.1104  0.7619
 6839SOL     OW26479   1.419   6.035   2.279  0.6173 -0.0825  0.3340
 6839SOL    HW126480   1.334   6.005   2.246  0.5192  0.0086  0.5017
 6839SOL    HW226481   1.476   6.035   2.202  0.0462  1.4129 -0.1197
 6840SOL     OW26482   5.567  10.151   4.009  0.1393 -0.1384 -0.4094
 6840SOL    HW126483   5.586  10.111   3.924 -4.3754 -2.5531 -0.6002
 6840SOL    HW226484   5.627  10.106   4.070  0.5592 -1.5085 -1.7665
 6841SOL     OW26485   3.606  12.108   4.550 -0.4184 -0.6863  0.5301
 6841SOL    HW126486   3.664  12.156   4.609 -1.4293  0.4088  0.6612
 6841SOL    HW226487   3.596  12.165   4.474 -0.8478 -1.1357  0.2445
 6842SOL     OW26488   6.407   0.282   1.594 -0.6439 -0.3319 -0.2257
 6842SOL    HW126489   6.322   0.312   1.562 -0.8791 -1.1669 -0.3987
 6842SOL    HW226490   6.388   0.200   1.640  0.4586 -2.4102 -3.1599
 6843SOL     OW26491   3.249   2.176  11.945  0.1904  0.1669  0.1743
 6843SOL    HW126492   3.237   2.102  12.004  0.3907 -1.5166 -1.7964
 6843SOL    HW226493   3.343   2.189  11.939  0.1397  1.2076  1.1851
 6844SOL     OW26494   1.789   5.149   1.554  0.3366  0.0562  0.4197
 6844SOL    HW126495   1.819   5.131   1.465  0.0153 -0.7815  0.4780
 6844SOL    HW226496   1.696   5.129   1.553  0.3557 -0.0764  0.9747
 6845SOL     OW26497   1.827  11.587   7.225  0.1611 -0.1254 -0.5344
 6845SOL    HW126498   1.738  11.614   7.203 -0.0649 -0.0441  0.4422
 6845SOL    HW226499   1.833  11.600   7.319  1.1482 -0.3171 -0.5632
 6846SOL     OW26500   9.024   8.804   5.853  0.4178  0.0931  0.1502
 6846SOL    HW126501   8.959   8.792   5.784 -1.4341 -2.0590  2.1126
 6846SOL    HW226502   9.108   8.785   5.810 -0.6646 -1.2602 -1.4927
 6847SOL     OW26503   9.888   3.493   1.493 -0.6168 -0.1126 -0.1593
 6847SOL    HW126504   9.867   3.504   1.400  0.4443 -0.1172 -0.4122
 6847SOL    HW226505   9.811   3.449   1.530 -0.3661 -1.6646 -1.3834
 6848SOL     OW26506   8.912   7.547   8.899  0.3135  0.3617 -0.3508
 6848SOL    HW126507   8.943   7.637   8.884  0.5291  0.6110  1.3263
 6848SOL    HW226508   8.972   7.512   8.964 -1.8395  0.2478  1.7127
 6849SOL     OW26509   2.830   5.858  11.577 -0.1407  0.2308  0.4002
 6849SOL    HW126510   2.751   5.912  11.575  0.3388  1.0110  1.3206
 6849SOL    HW226511   2.860   5.864  11.668  0.4177 -0.8785  0.3006
 6850SOL     OW26512   3.024  11.759   6.496 -0.2462  0.2133 -0.2891
 6850SOL    HW126513   2.979  11.829   6.543 -1.3360 -0.8537  0.3113
 6850SOL    HW226514   3.080  11.804   6.433 -0.9336  1.6156  0.0728
 6851SOL     OW26515   4.750  12.044   2.680 -0.6672  0.4004  0.4615
 6851SOL    HW126516   4.732  12.038   2.586 -1.6948  2.0075  0.5212
 6851SOL    HW226517   4.708  11.966   2.717 -0.0657 -0.3663 -0.4090
 6852SOL     OW26518   9.305   3.282   0.140 -0.0008  0.0695 -0.0207
 6852SOL    HW126519   9.216   3.307   0.165 -0.7376  0.0438 -2.3923
 6852SOL    HW226520   9.326   3.208   0.196 -1.7189 -0.3292  0.1465
 6853SOL     OW26521   7.552   6.638  11.132  0.2990  0.5260  0.1426
 6853SOL    HW126522   7.478   6.697  11.118 -0.3549 -0.2137  0.4529
 6853SOL    HW226523   7.566   6.640  11.227  2.0073  2.2406 -0.0759
 6854SOL     OW26524  10.594   1.916   2.205  0.0324 -1.2155 -0.2806
 6854SOL    HW126525  10.558   1.863   2.133  0.9853  0.0985 -1.7864
 6854SOL    HW226526  10.516   1.950   2.250 -0.5842 -2.1034 -0.6354
 6855SOL     OW26527  12.232  10.462   9.803  0.2906  0.4149 -0.1496
 6855SOL    HW126528  12.307  10.414   9.838  0.6156  1.7516  1.0843
 6855SOL    HW226529  12.262  10.496   9.719  1.2317  1.2912  0.5273
 6856SOL     OW26530  10.710   1.099   1.141 -0.4158  0.1809  0.1600
 6856SOL    HW126531  10.750   1.083   1.226  0.0758 -1.8045 -0.3988
 6856SOL    HW226532  10.619   1.121   1.160 -0.4074 -0.6292  1.1706
 6857SOL     OW26533   1.926  11.668   6.113 -0.1842 -0.3035 -0.0385
 6857SOL    HW126534   1.854  11.628   6.066 -0.7275  0.6096 -0.0178
 6857SOL    HW226535   1.978  11.595   6.145 -1.7328 -1.0208  0.9540
 6858SOL     OW26536  11.746  10.336   9.509 -0.6153  0.3139 -0.8600
 6858SOL    HW126537  11.779  10.302   9.426 -0.1716 -1.5076  0.0101
 6858SOL    HW226538  11.656  10.304   9.513 -0.4526 -0.0952 -0.3909
 6859SOL     OW26539   9.424   1.383   3.887  0.1247 -0.4973 -1.3536
 6859SOL    HW126540   9.377   1.351   3.964  0.6236  0.5640 -0.5661
 6859SOL    HW226541   9.380   1.343   3.812 -0.3703 -1.5569 -0.5165
 6860SOL     OW26542   8.441   4.538   4.141 -0.1470 -0.1223 -0.1787
 6860SOL    HW126543   8.394   4.538   4.225  2.4324  2.0291  1.4418
 6860SOL    HW226544   8.405   4.613   4.093  1.6552  1.7501  1.2114
 6861SOL     OW26545   6.031   1.082   7.737  0.0114  0.3888 -0.5197
 6861SOL    HW126546   6.037   1.177   7.722 -1.0230  0.3119 -1.5723
 6861SOL    HW226547   6.032   1.043   7.650 -0.4123 -0.5050 -0.1436
 6862SOL     OW26548   2.872  10.982   9.781 -0.0768 -0.5886  0.2709
 6862SOL    HW126549   2.929  10.979   9.704 -0.9444 -2.1790 -0.3514
 6862SOL    HW226550   2.887  10.899   9.825  0.6103  0.4224  2.0115
 6863SOL     OW26551   8.815   3.061   1.775  0.4533 -0.2979 -0.0180
 6863SOL    HW126552   8.754   3.067   1.702  1.0022 -1.4138 -0.5916
 6863SOL    HW226553   8.901   3.061   1.734  0.8701  1.1433  0.7781
 6864SOL     OW26554  10.490   3.022   0.689  0.2349  0.4697  0.8606
 6864SOL    HW126555  10.425   2.952   0.695 -0.2569  0.9097  0.7507
 6864SOL    HW226556  10.443   3.095   0.647  0.4451  1.2182  1.8884
 6865SOL     OW26557   0.117  10.264   3.137 -0.0805 -0.1486 -0.0993
 6865SOL    HW126558   0.025  10.287   3.127 -0.3953 -0.1970  2.1807
 6865SOL    HW226559   0.119  10.201   3.209  1.8321  0.8427  0.8105
 6866SOL     OW26560   4.925   2.780   6.197  0.3671  0.1633  0.5255
 6866SOL    HW126561   4.866   2.799   6.270 -0.8906  0.2953 -0.4900
 6866SOL    HW226562   4.901   2.692   6.169  1.6382 -0.3583  0.9756
 6867SOL     OW26563   1.552   8.398  11.926 -0.2457  0.7035 -0.0240
 6867SOL    HW126564   1.480   8.460  11.919 -0.8356  0.1025  0.6235
 6867SOL    HW226565   1.544   8.360  12.013 -0.4323 -0.9200 -0.7142
 6868SOL     OW26566   8.392   1.877   9.431  0.5846 -0.4373  0.4288
 6868SOL    HW126567   8.401   1.876   9.336 -0.4237  0.0628  0.3120
 6868SOL    HW226568   8.305   1.913   9.446  1.1508  0.5275  1.5718
 6869SOL     OW26569   9.192   8.692   3.354  0.1236 -0.4463  0.1520
 6869SOL    HW126570   9.114   8.646   3.386 -0.5935  0.6090 -0.0297
 6869SOL    HW226571   9.206   8.656   3.266 -1.0843  0.4066 -0.4280
 6870SOL     OW26572   3.562   1.882   0.911  0.7809  0.4436 -0.1047
 6870SOL    HW126573   3.524   1.907   0.827 -1.4538 -0.7557  0.4429
 6870SOL    HW226574   3.591   1.792   0.898  0.2995  0.2052  0.4113
 6871SOL     OW26575   1.197   8.855   6.552 -0.3108 -0.2450 -0.0341
 6871SOL    HW126576   1.227   8.771   6.518  0.1316  0.4416 -1.4351
 6871SOL    HW226577   1.161   8.900   6.476  0.2519  1.1646  0.4935
 6872SOL     OW26578   9.538   6.184   0.894  0.3354 -0.7641  0.4042
 6872SOL    HW126579   9.549   6.242   0.818  1.6580 -1.4261  0.0567
 6872SOL    HW226580   9.465   6.221   0.942 -0.1659  0.0069 -0.8976
 6873SOL     OW26581  11.919  10.297   2.834 -0.6662  0.6003 -0.1162
 6873SOL    HW126582  11.867  10.286   2.914  0.8561  0.3113  0.8812
 6873SOL    HW226583  12.010  10.282   2.862 -0.2102 -0.8858 -2.1867
 6874SOL     OW26584   9.707  10.558  10.991 -0.3472  0.4574  0.4667
 6874SOL    HW126585   9.778  10.616  11.018 -0.0987 -0.0590  0.9275
 6874SOL    HW226586   9.632  10.586  11.044 -0.8873  1.8694 -0.9254
 6875SOL     OW26587  10.904   3.760   7.806 -0.5733 -0.0089  0.1836
 6875SOL    HW126588  10.926   3.721   7.891 -0.5773  0.4740  0.4121
 6875SOL    HW226589  10.964   3.719   7.744 -0.7589 -0.5733  0.3719
 6876SOL     OW26590   8.869  11.679   7.032  0.3118  0.5874  0.0620
 6876SOL    HW126591   8.866  11.770   7.002  2.3905  0.7880  0.2529
 6876SOL    HW226592   8.921  11.634   6.965 -0.5802 -0.4332  0.0435
 6877SOL     OW26593   2.273   7.414   4.256  0.2529  1.0715 -0.4325
 6877SOL    HW126594   2.278   7.503   4.222  4.2450  1.5040  0.8214
 6877SOL    HW226595   2.241   7.424   4.346  1.9919  1.4997  0.1801
 6878SOL     OW26596   0.259   0.913   8.924 -0.3493  0.4443 -0.1168
 6878SOL    HW126597   0.336   0.856   8.923 -0.6482  0.0160 -1.8956
 6878SOL    HW226598   0.294   1.001   8.934  0.1497  0.0554  2.1745
 6879SOL     OW26599   5.351   2.209   8.042 -0.2268  0.6693 -0.5140
 6879SOL    HW126600   5.445   2.226   8.030  0.4678 -2.1552  0.1627
 6879SOL    HW226601   5.341   2.118   8.016 -3.0120  1.1512 -1.4069
 6880SOL     OW26602   3.943  11.068   2.318 -0.0287 -0.0939  0.8695
 6880SOL    HW126603   3.937  11.027   2.404  3.0642 -1.6582  0.4863
 6880SOL    HW226604   3.945  10.996   2.256 -1.9619  0.9983 -0.5797
 6881SOL     OW26605   0.049  10.887   7.948 -0.3470  0.3041  0.3707
 6881SOL    HW126606   0.079  10.955   7.888  0.0258 -0.5050 -0.3918
 6881SOL    HW226607  -0.041  10.871   7.922 -0.0838 -0.2749 -0.2028
 6882SOL     OW26608   7.884   1.955   1.679  0.2459  0.4612  0.9383
 6882SOL    HW126609   7.885   1.986   1.770 -0.4208  1.1698  0.7252
 6882SOL    HW226610   7.965   1.905   1.669  1.6099  2.5063  1.1982
 6883SOL     OW26611   3.641   7.088   3.626 -0.1549 -0.2054 -0.1860
 6883SOL    HW126612   3.717   7.046   3.667 -1.5549 -2.3726  0.3485
 6883SOL    HW226613   3.677   7.132   3.549  1.6504 -1.0137  0.1334
 6884SOL     OW26614   9.609   6.104   3.900 -0.1927 -0.2336 -0.1113
 6884SOL    HW126615   9.696   6.139   3.917 -0.6233  0.0850  1.5569
 6884SOL    HW226616   9.586   6.056   3.979 -1.9992  0.6765 -0.0216
 6885SOL     OW26617   9.705   9.847  11.971  1.0075  0.5599  0.5413
 6885SOL    HW126618   9.760   9.925  11.977  0.3832  1.1620 -1.1130
 6885SOL    HW226619   9.718   9.815  11.882  1.7461 -1.6339  1.3677
 6886SOL     OW26620   8.433  12.291  11.753  0.2905 -0.1338  0.1908
 6886SOL    HW126621   8.474  12.368  11.713  0.5046  0.1945  1.0061
 6886SOL    HW226622   8.499  12.258  11.814  0.0257 -0.6964  0.1755
 6887SOL     OW26623   8.309   0.332  10.821  0.0730 -0.0558 -0.2207
 6887SOL    HW126624   8.334   0.393  10.890 -1.3856  1.0938 -0.6580
 6887SOL    HW226625   8.267   0.386  10.755 -0.7281 -1.4591 -0.9150
 6888SOL     OW26626   3.509   5.548   5.252  0.8526 -0.6821 -0.3501
 6888SOL    HW126627   3.469   5.491   5.317  2.1446 -1.4158 -0.1639
 6888SOL    HW226628   3.476   5.636   5.273  0.6350 -1.0189  0.7937
 6889SOL     OW26629   7.696  11.566   2.447  0.1893 -0.3744  0.3956
 6889SOL    HW126630   7.634  11.502   2.414  1.3146  0.2453 -3.4179
 6889SOL    HW226631   7.772  11.557   2.390  2.0834  1.5076  2.4306
 6890SOL     OW26632   9.758   8.770  10.915  0.6058 -0.2213 -0.2480
 6890SOL    HW126633   9.834   8.761  10.973  0.3983 -1.6196 -0.1609
 6890SOL    HW226634   9.708   8.689  10.929 -1.7400  1.3232  0.8884
 6891SOL     OW26635   7.591   4.676  11.753 -0.4279  0.3530 -0.2352
 6891SOL    HW126636   7.606   4.685  11.659  0.4353  0.1192 -0.1290
 6891SOL    HW226637   7.678   4.686  11.792 -1.1338  3.3122  0.8008
 6892SOL     OW26638  11.138  11.912   1.154  0.1871 -0.5827 -0.4309
 6892SOL    HW126639  11.195  11.904   1.231  0.7177 -1.0876 -0.8655
 6892SOL    HW226640  11.064  11.964   1.185  0.1937 -1.1137  0.5349
 6893SOL     OW26641  12.447   3.867   4.272  0.4022 -0.0202 -0.3877
 6893SOL    HW126642  12.377   3.862   4.338  0.9116  1.5962  0.3238
 6893SOL    HW226643  12.514   3.922   4.313  0.7888  0.9330 -2.2270
 6894SOL     OW26644   5.440   3.099   1.987  0.6374  0.2804 -0.0233
 6894SOL    HW126645   5.374   3.116   1.919 -1.2972  0.5446  1.7896
 6894SOL    HW226646   5.513   3.058   1.940 -0.3550  0.9462 -2.3190
 6895SOL     OW26647  11.234  12.382   4.816 -0.6427  0.1951 -0.1292
 6895SOL    HW126648  11.221  12.409   4.908  0.0672 -0.5036  0.1829
 6895SOL    HW226649  11.161  12.323   4.798  0.2690 -1.2243  0.6284
 6896SOL     OW26650   7.983  11.475  10.414 -1.1194  0.3140  0.4953
 6896SOL    HW126651   7.908  11.447  10.467 -1.1407  0.8775  0.7705
 6896SOL    HW226652   8.047  11.404  10.423 -1.4110  0.0775  0.6938
 6897SOL     OW26653   3.988   2.145   0.523  0.5479  0.4601  0.3113
 6897SOL    HW126654   4.032   2.136   0.608  3.4410 -1.3192 -1.2136
 6897SOL    HW226655   3.951   2.059   0.506  0.9334  0.4699 -0.6565
 6898SOL     OW26656   9.668   1.686  10.061  0.0211  0.0047 -0.6736
 6898SOL    HW126657   9.642   1.764  10.110 -0.2339  0.3661 -1.3729
 6898SOL    HW226658   9.661   1.712   9.969  0.4927 -0.6622 -0.9068
 6899SOL     OW26659   9.024   5.030   6.718  0.2691  0.2092 -0.0287
 6899SOL    HW126660   8.961   5.099   6.740  1.4797  0.9966  1.1266
 6899SOL    HW226661   8.975   4.949   6.729 -1.1534  0.8564 -1.3137
 6900SOL     OW26662   7.456  11.292   5.874 -0.2070 -0.0486 -0.1028
 6900SOL    HW126663   7.392  11.363   5.881 -1.0321 -0.8934  1.3590
 6900SOL    HW226664   7.539  11.332   5.899 -0.7067  0.3485  0.9393
 6901SOL     OW26665   5.509   8.801   5.873 -0.3265  0.0858  0.3413
 6901SOL    HW126666   5.427   8.791   5.824  0.3828 -0.4438 -0.7703
 6901SOL    HW226667   5.552   8.876   5.833  0.3022 -0.4069  0.0811
 6902SOL     OW26668   8.426   2.843  10.531 -0.4718 -0.2262  0.4345
 6902SOL    HW126669   8.503   2.786  10.536 -0.3126 -0.0925 -0.3522
 6902SOL    HW226670   8.402   2.858  10.622 -1.3319 -2.6101  0.6706
 6903SOL     OW26671   8.519   7.248   6.293  0.1489  0.2309  0.2705
 6903SOL    HW126672   8.575   7.198   6.353 -0.5948 -1.4081 -0.3368
 6903SOL    HW226673   8.570   7.255   6.213  0.1785  0.2600  0.2921
 6904SOL     OW26674   3.585  10.448   6.583 -0.0077 -0.3432  0.0471
 6904SOL    HW126675   3.603  10.415   6.495 -0.4711  0.1879 -0.2587
 6904SOL    HW226676   3.649  10.518   6.597  1.7358 -2.0759  1.1503
 6905SOL     OW26677   6.774   5.253   7.162 -0.0382  0.0387  0.3236
 6905SOL    HW126678   6.753   5.187   7.228  0.5843  0.1615  0.6611
 6905SOL    HW226679   6.699   5.254   7.103 -0.1822 -0.7665  0.4778
 6906SOL     OW26680   2.422  10.085   8.168 -0.0428  0.5471 -0.3919
 6906SOL    HW126681   2.391  10.116   8.253  0.7559  0.5315 -0.0852
 6906SOL    HW226682   2.501  10.036   8.188 -0.0778  0.1893 -1.1078
 6907SOL     OW26683   9.857   0.771   2.521 -0.5077  0.8483  0.2411
 6907SOL    HW126684   9.764   0.777   2.498 -0.5243 -2.2574 -0.9663
 6907SOL    HW226685   9.857   0.746   2.613 -0.8774  0.3124  0.0965
 6908SOL     OW26686   2.434   9.943   9.303  0.0642 -0.4306  0.7295
 6908SOL    HW126687   2.437   9.879   9.374 -0.0121 -0.3681  0.7889
 6908SOL    HW226688   2.526   9.959   9.282  0.0595 -1.2640  0.0699
 6909SOL     OW26689  10.885  11.267  10.134 -0.0606  0.2161 -0.5798
 6909SOL    HW126690  10.871  11.184  10.087  1.8656 -0.3731 -0.1747
 6909SOL    HW226691  10.921  11.241  10.218 -0.8414  1.4218  0.1422
 6910SOL     OW26692   0.360   9.761   3.857 -0.3392 -0.0541 -0.0501
 6910SOL    HW126693   0.386   9.681   3.813 -1.1063 -0.0242 -0.5884
 6910SOL    HW226694   0.441   9.809   3.871  0.1761 -1.0855  0.6268
 6911SOL     OW26695   1.453  11.342   6.672  0.0700  0.3924  0.0627
 6911SOL    HW126696   1.386  11.278   6.648 -0.9372  1.2069  0.6424
 6911SOL    HW226697   1.407  11.405   6.727  0.8711  1.9811 -1.0084
 6912SOL     OW26698   5.698  11.279   3.138  0.0397 -0.0425  0.4912
 6912SOL    HW126699   5.763  11.324   3.084  1.6215 -0.1333  2.2033
 6912SOL    HW226700   5.732  11.190   3.147 -1.6654 -0.8503 -0.6469
 6913SOL     OW26701   3.606  10.540  10.264  0.8190  0.7534 -0.0375
 6913SOL    HW126702   3.562  10.598  10.201  0.7852  0.5525 -0.2010
 6913SOL    HW226703   3.610  10.456  10.219  0.1780  0.4313  0.4935
 6914SOL     OW26704   9.479  10.513   9.763 -0.4766  0.8721  0.5069
 6914SOL    HW126705   9.393  10.553   9.781 -0.8689 -0.2882  1.4116
 6914SOL    HW226706   9.467  10.421   9.788  0.0050 -0.1662 -2.6264
 6915SOL     OW26707   5.576   5.758   2.150 -0.6434 -0.4133  0.3761
 6915SOL    HW126708   5.555   5.763   2.056 -0.0243  0.3378  0.2680
 6915SOL    HW226709   5.645   5.822   2.162  0.2778 -1.5145  1.0854
 6916SOL     OW26710   1.111  11.066   5.850  0.1652 -0.1133 -0.1585
 6916SOL    HW126711   1.041  11.077   5.785  0.9967 -0.4150 -1.1344
 6916SOL    HW226712   1.083  11.119   5.925 -1.0479 -0.1475 -0.5762
 6917SOL     OW26713   8.372   8.680   3.369 -0.8224  0.3990 -0.0511
 6917SOL    HW126714   8.278   8.682   3.387 -0.8199  1.0005 -0.0958
 6917SOL    HW226715   8.383   8.730   3.288 -0.7254 -1.5128 -1.3012
 6918SOL     OW26716   8.677   3.630   0.184 -0.3575  0.1078  0.1068
 6918SOL    HW126717   8.716   3.590   0.106 -1.0509  1.2212 -0.8536
 6918SOL    HW226718   8.735   3.606   0.256 -1.6388 -4.1450 -0.0073
 6919SOL     OW26719   7.970   7.620   1.112 -0.4038 -0.2200 -0.2762
 6919SOL    HW126720   7.892   7.660   1.073 -0.0363  1.4692  0.6299
 6919SOL    HW226721   8.030   7.607   1.039 -1.3481 -1.1548 -0.9187
 6920SOL     OW26722   9.961  12.478   7.057  0.0808  0.0464 -0.0725
 6920SOL    HW126723   9.890  12.414   7.054  0.6027 -0.5513  0.2087
 6920SOL    HW226724  10.018  12.454   6.985 -0.0221  0.5591 -0.3290
 6921SOL     OW26725   2.465   8.030   5.405  0.6249 -0.4670  0.0398
 6921SOL    HW126726   2.388   7.981   5.435  0.3500  0.2046  0.4543
 6921SOL    HW226727   2.514   7.968   5.352  0.9459 -1.6186  1.6034
 6922SOL     OW26728   4.325   4.962   0.597  0.1395  0.0181 -0.2743
 6922SOL    HW126729   4.375   4.956   0.678 -0.8302 -1.7202  0.2514
 6922SOL    HW226730   4.387   4.936   0.529  0.2942 -1.0114  0.2364
 6923SOL     OW26731   7.686   0.764   6.981  0.4547 -0.3195  0.3158
 6923SOL    HW126732   7.681   0.844   7.033 -1.8359  0.7016 -1.3148
 6923SOL    HW226733   7.737   0.789   6.904 -3.3320  0.8952 -2.0721
 6924SOL     OW26734   6.265   9.915   1.385 -0.7944 -0.0033  0.7482
 6924SOL    HW126735   6.312   9.894   1.466  0.0281  0.6874  0.4680
 6924SOL    HW226736   6.310   9.992   1.351 -0.1973 -1.1357 -1.1309
 6925SOL     OW26737   9.363   2.742   8.619 -0.4723 -0.3371 -0.2378
 6925SOL    HW126738   9.343   2.742   8.713 -0.1535  0.4375 -0.1635
 6925SOL    HW226739   9.284   2.776   8.578 -0.0293  0.9259 -0.0984
 6926SOL     OW26740   1.081   2.156   8.701  0.0639 -0.2429  0.0293
 6926SOL    HW126741   1.110   2.088   8.761 -0.6430 -1.0099 -0.4628
 6926SOL    HW226742   1.140   2.229   8.716  1.0988 -1.1125  0.2912
 6927SOL     OW26743   5.641   9.802   0.013 -0.0724  0.6562  0.0057
 6927SOL    HW126744   5.626   9.786  -0.080 -0.4670 -1.3356  0.3670
 6927SOL    HW226745   5.614   9.893   0.027 -0.1324  0.9419 -1.7769
 6928SOL     OW26746   4.596   5.453   6.109  0.4496  0.1707  0.4814
 6928SOL    HW126747   4.588   5.359   6.125  2.0136 -0.3868 -1.5754
 6928SOL    HW226748   4.690   5.468   6.097  0.0069  1.4022 -2.1992
 6929SOL     OW26749   9.781  10.935  10.646  0.4222 -0.4614 -0.2996
 6929SOL    HW126750   9.765  10.942  10.740 -2.5151  0.9404 -0.7917
 6929SOL    HW226751   9.805  11.024  10.619  2.1994 -1.0365 -0.8156
 6930SOL     OW26752  10.073  11.320   6.318  0.4876 -0.4671  0.1682
 6930SOL    HW126753   9.997  11.375   6.299  0.6324 -0.4148 -0.2679
 6930SOL    HW226754  10.106  11.352   6.402  1.3720  1.0276 -0.6916
 6931SOL     OW26755  12.010  10.275  11.538 -0.1916 -0.3885  0.2183
 6931SOL    HW126756  12.039  10.341  11.601  1.6080  0.1335 -1.0887
 6931SOL    HW226757  11.953  10.323  11.477 -1.6572 -0.8231  1.1774
 6932SOL     OW26758   1.078   0.433   2.327 -0.0645 -0.3714  0.0367
 6932SOL    HW126759   1.084   0.399   2.238 -0.8333 -1.9200  0.5387
 6932SOL    HW226760   1.167   0.457   2.350  0.9944 -3.9725  0.3248
 6933SOL     OW26761  11.822  12.053   0.376 -0.4681  0.1429 -0.2736
 6933SOL    HW126762  11.774  11.989   0.429  1.5292 -1.3940 -0.1750
 6933SOL    HW226763  11.776  12.053   0.292 -2.4993  1.1433  0.7689
 6934SOL     OW26764  11.681   2.431  11.545  0.1006  0.1344  0.0985
 6934SOL    HW126765  11.659   2.386  11.463  0.1249 -0.4408  0.3980
 6934SOL    HW226766  11.725   2.511  11.518  0.4165 -0.2158 -0.4483
 6935SOL     OW26767  11.371   4.782   7.896  0.2810  0.3037 -0.3853
 6935SOL    HW126768  11.461   4.807   7.875  0.1462  1.5676  0.4326
 6935SOL    HW226769  11.375   4.753   7.987 -0.3980  2.0861  0.2759
 6936SOL     OW26770   0.468   5.990   9.329 -0.4335 -0.6840  0.2271
 6936SOL    HW126771   0.525   5.926   9.372  0.8537  0.3955  0.1807
 6936SOL    HW226772   0.518   6.072   9.330 -2.1143  0.3798  0.4500
 6937SOL     OW26773   5.196   1.245  10.974 -0.2413  0.3678 -0.6683
 6937SOL    HW126774   5.215   1.328  11.017  1.9232 -0.5754  0.2974
 6937SOL    HW226775   5.205   1.264  10.880 -1.9959  1.6980 -0.6280
 6938SOL     OW26776  11.772   4.353   4.461 -0.2994 -0.3158 -0.3804
 6938SOL    HW126777  11.746   4.441   4.488  3.0924  1.6469 -2.6323
 6938SOL    HW226778  11.813   4.315   4.538  2.0774  1.9441 -0.3822
 6939SOL     OW26779  10.667   6.618   5.460 -0.0681 -0.0508  0.4110
 6939SOL    HW126780  10.763   6.618   5.460 -0.0313 -0.0285 -1.3544
 6939SOL    HW226781  10.643   6.545   5.402 -1.2151 -1.8133  2.8852
 6940SOL     OW26782   8.780   3.647   2.552  0.1571 -0.1754  0.3344
 6940SOL    HW126783   8.716   3.713   2.578  0.2950  0.4940 -0.9223
 6940SOL    HW226784   8.809   3.675   2.465  0.7583 -1.4994  0.0775
 6941SOL     OW26785  12.031   7.085  10.960 -0.1407  0.2727  0.0251
 6941SOL    HW126786  11.981   7.074  10.879 -0.8359  0.7476  0.3934
 6941SOL    HW226787  11.975   7.137  11.017  0.0500 -0.6506  1.0839
 6942SOL     OW26788   7.733   4.412   6.277  0.6139 -0.7438  0.0437
 6942SOL    HW126789   7.803   4.426   6.214 -0.0764 -1.4242 -0.8911
 6942SOL    HW226790   7.772   4.435   6.362  1.6281 -0.0750 -0.5843
 6943SOL     OW26791   0.315   6.363   8.053 -0.0041  0.1914 -0.0544
 6943SOL    HW126792   0.333   6.297   7.985  1.2298 -1.2903  1.5951
 6943SOL    HW226793   0.367   6.439   8.026 -1.0703  0.3716 -1.7515
 6944SOL     OW26794   1.702   7.286   4.562 -0.2258 -0.1772  0.5388
 6944SOL    HW126795   1.663   7.318   4.643  0.2217 -1.6157  1.3645
 6944SOL    HW226796   1.758   7.213   4.589  0.8422  0.0401 -0.9347
 6945SOL     OW26797   7.498   6.454   9.397  0.5266 -0.7784 -0.1644
 6945SOL    HW126798   7.521   6.504   9.475  1.4387 -1.4562  0.0125
 6945SOL    HW226799   7.432   6.391   9.426  0.5248 -0.7232 -0.0497
 6946SOL     OW26800   1.655   0.119   7.674 -0.2124  0.6667  0.5509
 6946SOL    HW126801   1.586   0.148   7.615 -1.1438  0.8507  1.7008
 6946SOL    HW226802   1.730   0.102   7.617 -1.0262  1.0160 -0.6493
 6947SOL     OW26803   6.409   0.779   8.627 -0.0383 -0.0791  0.0062
 6947SOL    HW126804   6.453   0.702   8.591 -0.2800 -0.2386  0.0474
 6947SOL    HW226805   6.319   0.750   8.642 -0.0048  0.0518  0.5098
 6948SOL     OW26806   2.490  11.207  11.339  0.1863 -0.1869  0.3551
 6948SOL    HW126807   2.403  11.193  11.302 -0.0946 -1.3166  1.3721
 6948SOL    HW226808   2.475  11.213  11.433  1.3048 -1.5446  0.6528
 6949SOL     OW26809   8.314   9.419   0.918  0.0465  0.2670  0.0886
 6949SOL    HW126810   8.252   9.356   0.881 -0.8391  1.0750  0.1367
 6949SOL    HW226811   8.303   9.410   1.013 -0.6628  1.0124  0.0946
 6950SOL     OW26812   1.746   3.328   0.340  0.0500  0.0138 -0.1167
 6950SOL    HW126813   1.725   3.381   0.417  1.1446 -1.0227  0.9381
 6950SOL    HW226814   1.823   3.371   0.302 -0.4562  0.4923 -0.6362
 6951SOL     OW26815  10.425  10.251   8.186 -0.1303  0.4660 -0.5681
 6951SOL    HW126816  10.365  10.182   8.215  1.0850 -1.1752 -1.7252
 6951SOL    HW226817  10.438  10.306   8.263 -1.0906 -0.6445  0.4312
 6952SOL     OW26818  12.258  12.378   3.837 -0.4465  0.4588 -0.0545
 6952SOL    HW126819  12.166  12.368   3.861 -0.3703 -3.2862 -0.7820
 6952SOL    HW226820  12.257  12.408   3.746 -0.9363  0.1459 -0.1521
 6953SOL     OW26821   2.284   7.776   3.932  0.2325 -0.1880 -0.1253
 6953SOL    HW126822   2.201   7.759   3.888  0.4745 -1.3298 -0.1883
 6953SOL    HW226823   2.297   7.870   3.924 -1.0162 -0.0024 -0.1713
 6954SOL     OW26824   3.403   7.655   1.293 -0.0314  0.2215 -0.3085
 6954SOL    HW126825   3.396   7.563   1.318  0.3691  0.3767  0.4274
 6954SOL    HW226826   3.337   7.699   1.346  1.5073  0.7009  1.3480
 6955SOL     OW26827   5.919   6.788   1.488 -0.1298 -0.3145 -0.2884
 6955SOL    HW126828   5.899   6.830   1.571 -2.0401  0.2646 -0.9848
 6955SOL    HW226829   5.929   6.696   1.509  0.8346  0.0123  0.7750
 6956SOL     OW26830   6.320   4.492   6.729 -0.3965  0.3872 -0.7772
 6956SOL    HW126831   6.355   4.521   6.645 -1.9759  0.6389 -1.3966
 6956SOL    HW226832   6.226   4.512   6.723 -0.3133  1.9521  1.6768
 6957SOL     OW26833   9.612   8.800   8.813 -0.3490  0.3808  0.5713
 6957SOL    HW126834   9.629   8.881   8.766  2.0026 -1.7004 -2.6014
 6957SOL    HW226835   9.534   8.763   8.771 -0.8764  0.5547  1.3844
 6958SOL     OW26836   2.292   1.709   2.017  0.1840  0.2862 -0.3222
 6958SOL    HW126837   2.374   1.730   1.973  0.3658 -1.5027 -0.9249
 6958SOL    HW226838   2.229   1.698   1.947 -0.3014  0.5021  0.0712
 6959SOL     OW26839   8.135   8.787   9.738  0.0238  0.4351  0.0818
 6959SOL    HW126840   8.194   8.715   9.717 -0.0620  0.4727 -0.2973
 6959SOL    HW226841   8.173   8.863   9.692 -0.3581  0.4420 -0.2261
 6960SOL     OW26842   4.630  11.461  11.032 -0.2029  0.3462  0.2095
 6960SOL    HW126843   4.584  11.408  11.098 -0.3068  2.0687  1.6010
 6960SOL    HW226844   4.711  11.413  11.016 -1.1089 -1.1864 -0.0124
 6961SOL     OW26845   3.859   2.702   3.190 -0.5720  0.1331 -0.2457
 6961SOL    HW126846   3.894   2.629   3.138  0.7626  0.1397  0.6067
 6961SOL    HW226847   3.785   2.665   3.237  0.2766 -0.7829  0.4132
 6962SOL     OW26848  10.900   0.694   2.276  0.6162  0.0445  0.3144
 6962SOL    HW126849  10.888   0.614   2.226  2.0980 -0.4537  0.6827
 6962SOL    HW226850  10.890   0.764   2.212  0.9657 -0.5159 -0.3711
 6963SOL     OW26851   2.682   7.170   4.778 -0.0099  0.2404  0.4181
 6963SOL    HW126852   2.590   7.193   4.769  0.0933  0.4516 -0.1398
 6963SOL    HW226853   2.681   7.083   4.818 -0.4215  0.7561  1.5525
 6964SOL     OW26854   2.453   8.831   3.672 -0.0128 -0.3379 -0.3892
 6964SOL    HW126855   2.445   8.745   3.631 -1.4524 -0.5701  0.3064
 6964SOL    HW226856   2.371   8.875   3.651  1.4188  1.6145 -2.2889
 6965SOL     OW26857   2.270   9.770  12.157 -0.0966  0.0185 -0.8301
 6965SOL    HW126858   2.217   9.691  12.154 -0.5850  0.3424 -0.8346
 6965SOL    HW226859   2.304   9.772  12.246 -1.0149  0.3996 -0.4736
 6966SOL     OW26860   3.736   5.831   1.415 -0.5289  0.0298  0.1403
 6966SOL    HW126861   3.774   5.751   1.380  1.0958 -0.1523  2.1552
 6966SOL    HW226862   3.666   5.802   1.473 -1.1728  0.1904 -0.5362
 6967SOL     OW26863   0.423  11.321   8.688  0.1354  0.0945 -0.5124
 6967SOL    HW126864   0.473  11.251   8.730 -0.5878  0.8177  1.7505
 6967SOL    HW226865   0.487  11.370   8.637  1.3085 -0.2408  0.5955
 6968SOL     OW26866   5.209   0.211   6.432 -0.0040  0.0906  0.3047
 6968SOL    HW126867   5.235   0.243   6.345 -0.6040  0.9288  0.4219
 6968SOL    HW226868   5.277   0.148   6.455  0.5382  0.3648 -0.4835
 6969SOL     OW26869   2.791   5.945  10.537  0.1043  0.5341  0.1220
 6969SOL    HW126870   2.706   5.942  10.494  0.8661  1.4530 -1.5315
 6969SOL    HW226871   2.854   5.924  10.468  1.1512 -2.0690  1.7171
 6970SOL     OW26872   3.439   9.512   2.444 -0.2168 -0.3000 -0.0411
 6970SOL    HW126873   3.485   9.546   2.368  0.0598  1.1859  0.7471
 6970SOL    HW226874   3.346   9.519   2.421 -0.1327  0.0259 -0.2810
 6971SOL     OW26875   0.331   9.020   4.349 -0.2142 -0.0888  0.6755
 6971SOL    HW126876   0.372   9.096   4.307  0.1244 -0.8366 -0.3986
 6971SOL    HW226877   0.257   8.999   4.292 -0.4308 -0.4413  1.0826
 6972SOL     OW26878  11.227   1.557   1.693 -0.1228  0.3560  0.2361
 6972SOL    HW126879  11.196   1.642   1.724 -1.3178 -0.5459  1.6688
 6972SOL    HW226880  11.178   1.541   1.613 -2.1508 -0.2181  1.4983
 6973SOL     OW26881   0.529  12.125   7.791  0.2725 -0.2645  0.6355
 6973SOL    HW126882   0.577  12.131   7.873 -0.5909  0.6097  1.1036
 6973SOL    HW226883   0.554  12.041   7.753  1.4231 -0.2403  1.3190
 6974SOL     OW26884   8.326   3.280   4.137  0.2261  0.0754  0.0188
 6974SOL    HW126885   8.244   3.328   4.150  0.3389  0.0635  0.8010
 6974SOL    HW226886   8.390   3.349   4.115 -0.1399  0.0072 -1.3816
 6975SOL     OW26887   3.338  10.121   1.336  0.8189 -0.3433 -0.0710
 6975SOL    HW126888   3.432  10.117   1.322  0.8044 -1.6679  0.0814
 6975SOL    HW226889   3.327  10.189   1.403  1.4708  1.1509 -1.4204
 6976SOL     OW26890   8.098   6.704  12.366 -0.2349  0.0297 -0.1285
 6976SOL    HW126891   8.098   6.650  12.287  0.9931  0.3760 -0.3786
 6976SOL    HW226892   8.171   6.672  12.418 -0.8384  0.0174  0.7408
 6977SOL     OW26893   1.148   4.812   1.528  0.0859  0.3987  0.0391
 6977SOL    HW126894   1.166   4.889   1.474  1.2227 -0.5048 -0.9269
 6977SOL    HW226895   1.087   4.843   1.595  2.7288  2.9113  1.5168
 6978SOL     OW26896   0.014  10.934   2.458  0.6321 -0.1777  0.8634
 6978SOL    HW126897   0.032  10.844   2.431 -0.4843 -0.5819  1.3843
 6978SOL    HW226898  -0.081  10.938   2.465  0.6500  1.1386  0.5648
 6979SOL     OW26899  11.543   3.785   1.358  0.0001  0.2499  0.1293
 6979SOL    HW126900  11.477   3.810   1.423  0.4781 -1.1191  1.1901
 6979SOL    HW226901  11.538   3.853   1.292 -1.4654  0.9589  0.9163
 6980SOL     OW26902   5.066  10.196   3.523 -0.3073 -0.4871  0.3328
 6980SOL    HW126903   5.160  10.191   3.539  0.0616  0.8533 -1.1304
 6980SOL    HW226904   5.048  10.124   3.463  0.2821  0.6240 -1.2527
 6981SOL     OW26905   1.780   0.371  11.132 -0.4946  0.2801 -0.3941
 6981SOL    HW126906   1.697   0.333  11.159 -1.8471  3.5148  0.3901
 6981SOL    HW226907   1.829   0.382  11.213  0.4281 -0.8424 -0.7633
 6982SOL     OW26908  10.112  12.052   6.473  0.1517 -0.5555 -0.1086
 6982SOL    HW126909  10.179  11.988   6.449 -0.6416 -1.4695  0.0362
 6982SOL    HW226910  10.048  12.048   6.402  1.2309  1.8204 -1.3124
 6983SOL     OW26911   4.883   1.896   5.840 -0.7395 -0.5882  0.0710
 6983SOL    HW126912   4.826   1.819   5.843 -1.6027  0.0644  1.6864
 6983SOL    HW226913   4.838   1.962   5.893 -1.3180  1.9864 -3.2617
 6984SOL     OW26914   9.016   0.400   7.018 -0.0091  0.3682  0.1264
 6984SOL    HW126915   8.971   0.320   7.047  2.2362 -0.2261  2.2725
 6984SOL    HW226916   9.036   0.384   6.926 -1.2743 -0.6932  0.0063
 6985SOL     OW26917   5.636   2.917   1.583 -0.5876 -0.6464 -0.2541
 6985SOL    HW126918   5.581   2.895   1.508 -0.8597 -0.5766 -0.0729
 6985SOL    HW226919   5.598   2.871   1.657 -0.0088 -1.1367 -0.2551
 6986SOL     OW26920  10.184   1.266  10.218 -0.4297 -0.0770 -0.4785
 6986SOL    HW126921  10.247   1.273  10.290 -1.5557 -1.1033  0.6672
 6986SOL    HW226922  10.135   1.348  10.221  0.3578  0.4354 -0.9430
 6987SOL     OW26923  10.199   5.030   2.671 -0.1016 -0.4411  0.6853
 6987SOL    HW126924  10.200   5.079   2.589  0.9795 -1.4980  0.0357
 6987SOL    HW226925  10.211   5.097   2.739 -1.4076  0.4916  0.0397
 6988SOL     OW26926   3.949   4.643   8.057  0.2414  0.8148 -0.3296
 6988SOL    HW126927   3.987   4.571   8.107 -1.6271  1.2617  1.9071
 6988SOL    HW226928   3.922   4.603   7.974 -1.2703 -1.2941  1.0531
 6989SOL     OW26929   5.660  10.800   6.728  0.0622 -0.4851  0.1753
 6989SOL    HW126930   5.622  10.886   6.742  1.8139  0.0554  2.1778
 6989SOL    HW226931   5.723  10.812   6.657  0.9419  0.1439  1.0374
 6990SOL     OW26932   8.126   9.034   6.002  0.4599 -0.2909 -0.9643
 6990SOL    HW126933   8.060   9.099   5.978 -1.4027 -1.6671  0.1150
 6990SOL    HW226934   8.204   9.084   6.022 -1.1081  1.7132  0.5515
 6991SOL     OW26935   5.749   1.058   7.629  0.0133  0.1011 -0.0626
 6991SOL    HW126936   5.795   0.987   7.585  0.5643  1.2764 -1.4621
 6991SOL    HW226937   5.809   1.084   7.700 -0.0985 -0.6721  0.3251
 6992SOL     OW26938   7.036   5.944   9.920 -0.7740 -0.1050  0.4552
 6992SOL    HW126939   7.097   5.999   9.870 -1.7059  0.0386 -0.5548
 6992SOL    HW226940   7.083   5.924  10.001  1.4768 -1.7373 -1.1305
 6993SOL     OW26941   2.202  11.461   2.145 -0.0215 -0.2000  0.1318
 6993SOL    HW126942   2.156  11.377   2.154  2.4768 -1.4552  2.7900
 6993SOL    HW226943   2.283  11.438   2.099 -1.3124  1.7842 -3.5721
 6994SOL     OW26944   0.954   7.619   5.273  0.0095  0.5729 -0.0357
 6994SOL    HW126945   0.869   7.600   5.314  0.7675  0.1981  1.4126
 6994SOL    HW226946   0.947   7.578   5.186 -0.7565 -0.7845  0.6158
 6995SOL     OW26947   5.108  10.158  11.387 -0.0817 -0.3143  0.4545
 6995SOL    HW126948   5.023  10.148  11.345 -0.0419 -1.6247  0.6267
 6995SOL    HW226949   5.140  10.244  11.359 -1.4115  0.1420  0.3155
 6996SOL     OW26950   8.418  10.532   7.200 -0.8975 -0.4737  0.6075
 6996SOL    HW126951   8.480  10.497   7.136 -1.3983  0.0047 -0.1721
 6996SOL    HW226952   8.471  10.551   7.277 -0.1260 -0.3519  0.0651
 6997SOL     OW26953   8.375   2.193   1.616 -0.3090 -0.2946  0.1948
 6997SOL    HW126954   8.465   2.210   1.642 -0.5836  0.0670  0.9312
 6997SOL    HW226955   8.376   2.103   1.582 -0.0586 -1.0400  2.0568
 6998SOL     OW26956   3.247  10.814   0.049 -0.0134  0.3572  0.0921
 6998SOL    HW126957   3.328  10.861   0.032  0.4136 -0.4857 -0.2981
 6998SOL    HW226958   3.202  10.811  -0.036 -0.2427  0.4496  0.2101
 6999SOL     OW26959   7.068   1.224   8.861  0.1936 -0.1311 -0.5024
 6999SOL    HW126960   7.118   1.146   8.835  0.8968 -0.6058  1.9605
 6999SOL    HW226961   6.991   1.188   8.906 -0.5721  0.6115 -1.2052
 7000SOL     OW26962  10.325   5.086   3.488  0.3005  0.4251  0.2622
 7000SOL    HW126963  10.405   5.033   3.486  1.3013  1.8777 -0.8414
 7000SOL    HW226964  10.306   5.105   3.396 -1.3140  0.1666  0.5098
 7001SOL     OW26965   5.118   1.474  11.646  0.5405  0.0777 -0.3763
 7001SOL    HW126966   5.059   1.485  11.721  2.6018 -0.4753  1.4317
 7001SOL    HW226967   5.063   1.436  11.577 -1.4115  0.5241  0.8785
 7002SOL     OW26968   2.865   9.730   4.902 -0.2657  0.1717 -0.3364
 7002SOL    HW126969   2.864   9.794   4.831 -0.7088  1.3745  0.7228
 7002SOL    HW226970   2.842   9.780   4.980  2.2571 -0.6613  1.0625
 7003SOL     OW26971  10.805   2.903  12.274 -0.0829 -0.5082 -0.1029
 7003SOL    HW126972  10.727   2.950  12.303  1.3875  1.3811  0.9888
 7003SOL    HW226973  10.802   2.819  12.320 -1.0167 -0.0917  0.6178
 7004SOL     OW26974  11.900   9.092   1.032  0.0900 -0.6575  0.3905
 7004SOL    HW126975  11.966   9.094   1.102 -0.1553  0.1305  0.6126
 7004SOL    HW226976  11.934   9.153   0.966  0.3666 -1.4702 -0.2343
 7005SOL     OW26977   1.889   8.834   5.264 -0.2401  0.1597  0.1268
 7005SOL    HW126978   1.981   8.845   5.288 -0.1867 -0.0980  0.0425
 7005SOL    HW226979   1.847   8.798   5.342 -0.4205  0.9775  0.4124
 7006SOL     OW26980   4.563   9.354   5.058  0.1372  0.0371 -0.2006
 7006SOL    HW126981   4.499   9.320   5.120 -0.0811 -1.5540 -1.2383
 7006SOL    HW226982   4.524   9.436   5.026  0.1958  0.8043  1.6015
 7007SOL     OW26983   8.709   2.912  11.002 -0.8129 -0.2285  0.7754
 7007SOL    HW126984   8.776   2.976  11.023  0.2596 -1.4792  1.3402
 7007SOL    HW226985   8.635   2.963  10.970  1.1856  1.1075 -2.1705
 7008SOL     OW26986   4.270  11.781   3.850  0.0558  0.3159  0.3009
 7008SOL    HW126987   4.311  11.739   3.926  3.3617  0.8824 -1.0157
 7008SOL    HW226988   4.274  11.874   3.869  0.8007  0.4528 -0.4954
 7009SOL     OW26989   4.368  11.924   7.250 -0.2990  0.1057 -0.0717
 7009SOL    HW126990   4.329  11.875   7.322 -1.7056 -1.2813 -1.6615
 7009SOL    HW226991   4.433  11.863   7.213 -2.3336 -0.8579 -2.3072
 7010SOL     OW26992   3.964   0.689   9.041 -0.2620 -0.6610 -0.0916
 7010SOL    HW126993   3.920   0.613   9.081 -0.9765 -1.4720 -2.2520
 7010SOL    HW226994   4.026   0.719   9.107 -2.6466 -0.7160  2.3467
 7011SOL     OW26995   6.717   9.306   7.312 -0.1694  0.4209  0.1101
 7011SOL    HW126996   6.675   9.392   7.310 -2.2255 -0.4534  1.9152
 7011SOL    HW226997   6.811   9.325   7.311 -0.5393  2.5615 -1.5829
 7012SOL     OW26998   3.467  11.656   6.540  0.3613 -0.4183  0.4475
 7012SOL    HW126999   3.562  11.657   6.544  0.4466 -0.2420 -1.2218
 7012SOL    HW227000   3.443  11.744   6.514 -0.2025 -0.7411 -0.1510
 7013SOL     OW27001   6.798   3.505   4.750 -0.4726  0.3264  0.3202
 7013SOL    HW127002   6.811   3.432   4.690 -0.6160 -0.3440  1.0824
 7013SOL    HW227003   6.872   3.564   4.733 -0.0095 -0.2981  0.1324
 7014SOL     OW27004   7.542   7.375   4.356  0.5467 -0.2396 -0.4367
 7014SOL    HW127005   7.631   7.375   4.321  1.1640 -3.1127  0.8647
 7014SOL    HW227006   7.540   7.449   4.416  3.2358 -1.9379  1.9992
 7015SOL     OW27007   1.967   5.400   3.066 -0.1940  0.3045  0.3976
 7015SOL    HW127008   1.936   5.488   3.087  0.1623  0.0683  2.0503
 7015SOL    HW227009   1.915   5.342   3.123 -0.3764 -0.5585 -0.6146
 7016SOL     OW27010   8.533   7.348   1.864 -0.3686  0.2700  0.0074
 7016SOL    HW127011   8.591   7.424   1.866 -2.2032  1.7860 -1.4269
 7016SOL    HW227012   8.459   7.372   1.919 -1.7030  0.2242 -1.6783
 7017SOL     OW27013   4.779   3.521  11.653 -0.0068 -0.3473 -0.1776
 7017SOL    HW127014   4.777   3.485  11.565 -1.4353 -0.3140 -0.1815
 7017SOL    HW227015   4.782   3.616  11.640  1.2392 -0.3618 -0.1649
 7018SOL     OW27016   2.287  10.806   3.941 -0.1989 -0.2378  0.4096
 7018SOL    HW127017   2.311  10.748   4.014  1.9036 -1.1780 -0.9390
 7018SOL    HW227018   2.319  10.893   3.968  0.0055 -0.4488  0.8556
 7019SOL     OW27019   2.124   9.899   1.861  0.0213  0.2737  0.4038
 7019SOL    HW127020   2.073   9.894   1.780  0.8317  1.2115 -0.1849
 7019SOL    HW227021   2.204   9.850   1.842  1.6250  3.0262 -0.4998
 7020SOL     OW27022  11.426  11.364   6.497 -0.1163 -0.5338  0.0001
 7020SOL    HW127023  11.401  11.423   6.568  2.2971  0.4485  0.1517
 7020SOL    HW227024  11.519  11.382   6.483 -0.3123 -1.2194 -2.9193
 7021SOL     OW27025   1.410   7.373   1.137  0.0131 -0.2790  0.2418
 7021SOL    HW127026   1.407   7.445   1.073 -2.9248 -0.5245 -0.0198
 7021SOL    HW227027   1.504   7.358   1.151  0.7468  2.8854 -0.4641
 7022SOL     OW27028   7.485   4.791   8.585 -0.4085  0.3103 -0.2442
 7022SOL    HW127029   7.432   4.747   8.651 -0.7570  0.0997 -0.6599
 7022SOL    HW227030   7.561   4.824   8.633 -0.2052 -0.6267  0.0919
 7023SOL     OW27031   4.988   6.868  10.467  0.2385  0.1741 -0.0434
 7023SOL    HW127032   5.039   6.918  10.530  0.3842  1.7840 -1.3655
 7023SOL    HW227033   4.903   6.856  10.509  0.6991  0.2034  0.9149
 7024SOL     OW27034  10.033   7.352   1.391 -0.0966 -0.4140  0.1433
 7024SOL    HW127035  10.118   7.357   1.434  0.2765  0.6298 -0.6724
 7024SOL    HW227036  10.046   7.292   1.317  0.4251  1.0574 -1.0028
 7025SOL     OW27037   8.485   0.057   8.447 -0.2237 -0.0897  0.1904
 7025SOL    HW127038   8.534  -0.017   8.410 -1.4478 -0.1738 -1.3921
 7025SOL    HW227039   8.542   0.133   8.434  0.6178 -0.5960  0.8937
 7026SOL     OW27040   3.891   8.410   5.017 -0.1805 -0.4884  0.7255
 7026SOL    HW127041   3.826   8.358   4.969 -0.4037  1.1956 -0.9443
 7026SOL    HW227042   3.880   8.499   4.982  2.6466 -0.0383  0.7626
 7027SOL     OW27043   8.422  10.211   7.853  0.4228  0.3326 -0.1126
 7027SOL    HW127044   8.444  10.177   7.940  1.2363  1.5537  0.1838
 7027SOL    HW227045   8.471  10.293   7.846 -1.7856  1.7176 -0.5982
 7028SOL     OW27046   1.065  11.364   5.558  0.5655 -0.3948 -0.1000
 7028SOL    HW127047   1.125  11.370   5.633  0.0550 -2.0265  0.4862
 7028SOL    HW227048   1.097  11.430   5.496  0.4754  1.6408  1.9018
 7029SOL     OW27049   0.147   0.049   9.142  0.2824 -0.7449  0.2467
 7029SOL    HW127050   0.179   0.127   9.097  1.5478 -0.8707  0.8729
 7029SOL    HW227051   0.226  -0.000   9.164 -0.3658 -1.2992  1.4884
 7030SOL     OW27052   5.336   6.449   4.167  0.0903  0.3054 -0.1366
 7030SOL    HW127053   5.324   6.358   4.194 -0.2470 -0.1835 -1.8057
 7030SOL    HW227054   5.247   6.483   4.157  0.2135  0.9982  0.9694
 7031SOL     OW27055   9.793   0.338   1.584  0.0459  0.4191  0.0820
 7031SOL    HW127056   9.723   0.341   1.649  0.0413 -0.6698  0.1497
 7031SOL    HW227057   9.873   0.355   1.633 -0.0366  0.3799  0.2301
 7032SOL     OW27058   7.770   2.256   3.427  0.0560 -0.3402 -0.0336
 7032SOL    HW127059   7.848   2.298   3.391 -0.0510 -1.6339 -1.9630
 7032SOL    HW227060   7.798   2.166   3.444 -0.6216 -0.4165  0.7104
 7033SOL     OW27061   0.644   5.865   4.105 -0.2947 -0.3741  0.3814
 7033SOL    HW127062   0.622   5.944   4.055 -2.0164  0.8718  2.8445
 7033SOL    HW227063   0.584   5.798   4.071  1.8857 -1.0892 -2.4589
 7034SOL     OW27064   9.642   7.950   1.889 -0.4861 -0.2434 -0.2163
 7034SOL    HW127065   9.575   7.995   1.941 -1.5969  0.1553 -1.8944
 7034SOL    HW227066   9.594   7.883   1.841  0.6157 -1.0208 -0.2698
 7035SOL     OW27067  12.425   3.336   6.674  0.1113 -0.0096  0.2119
 7035SOL    HW127068  12.345   3.388   6.670 -0.0341 -0.0541  1.8302
 7035SOL    HW227069  12.463   3.358   6.760  1.0488 -1.1197  0.0992
 7036SOL     OW27070   1.070   5.636   5.175  0.4250 -0.1558 -0.4512
 7036SOL    HW127071   1.147   5.597   5.217  0.4777  1.2100  0.8233
 7036SOL    HW227072   1.001   5.570   5.184  0.9022 -0.5694  0.2754
 7037SOL     OW27073   3.295   1.138  11.442  0.6182 -0.9483  0.1145
 7037SOL    HW127074   3.288   1.118  11.535 -3.3281  0.3604  0.2625
 7037SOL    HW227075   3.243   1.071  11.398  0.2817 -0.0708 -0.8832
 7038SOL     OW27076   4.388   3.691   1.410  0.1901  0.0765 -0.1428
 7038SOL    HW127077   4.382   3.667   1.503 -0.1039 -0.6783 -0.3508
 7038SOL    HW227078   4.427   3.614   1.368 -0.5842  0.0256 -0.7986
 7039SOL     OW27079   8.713   5.702   5.617 -0.1743  0.0890  0.2461
 7039SOL    HW127080   8.807   5.692   5.632  0.6050  1.7239 -2.7467
 7039SOL    HW227081   8.697   5.796   5.625 -1.9372 -0.3066  2.2368
 7040SOL     OW27082   5.387   5.549   1.014 -0.2492 -0.1723 -0.1750
 7040SOL    HW127083   5.379   5.627   0.960  0.3007 -0.8730 -1.2886
 7040SOL    HW227084   5.321   5.488   0.979 -0.6262 -0.2450  0.6346
 7041SOL     OW27085  10.815   9.621  11.729  0.0176  0.1036 -0.0658
 7041SOL    HW127086  10.743   9.573  11.769  0.2553 -1.3535 -1.3266
 7041SOL    HW227087  10.892   9.595  11.780 -0.1384  0.6862  0.4815
 7042SOL     OW27088  10.650  12.061  11.774 -0.0580 -0.4810  0.5825
 7042SOL    HW127089  10.610  11.991  11.721  0.5668  0.0306 -0.6080
 7042SOL    HW227090  10.581  12.127  11.782  0.1396 -0.1249 -0.4670
 7043SOL     OW27091   1.348  11.766   9.781 -0.1195 -0.0573  0.1576
 7043SOL    HW127092   1.283  11.720   9.728 -0.0929 -0.4688  0.4802
 7043SOL    HW227093   1.422  11.706   9.785  1.5833  1.6196 -2.8047
 7044SOL     OW27094   4.045   7.996   7.751 -0.2624  0.2809 -0.6697
 7044SOL    HW127095   4.106   7.990   7.677 -1.1091 -0.8517 -1.3130
 7044SOL    HW227096   3.966   8.036   7.713 -0.1438  1.1993  0.0199
 7045SOL     OW27097   4.070   0.076   4.831 -0.2518  0.4435  0.8298
 7045SOL    HW127098   4.087   0.114   4.918  0.7182  2.5645 -0.2185
 7045SOL    HW227099   4.156   0.045   4.802 -0.1892  1.4214 -0.0866
 7046SOL     OW27100   4.254   1.403   2.842  0.5539  0.3881 -0.9003
 7046SOL    HW127101   4.178   1.363   2.884  0.2249 -0.4232 -2.1991
 7046SOL    HW227102   4.329   1.374   2.894 -0.1129  3.6937  2.3220
 7047SOL     OW27103   1.388   6.412   5.132  0.1660 -0.2567 -0.9301
 7047SOL    HW127104   1.325   6.378   5.196  1.6912  0.4854  1.0453
 7047SOL    HW227105   1.348   6.493   5.101 -0.4522 -0.4558 -0.6863
 7048SOL     OW27106  10.891   8.155   4.663  0.4519 -0.0142 -0.0091
 7048SOL    HW127107  10.906   8.158   4.568 -0.2502  0.1935 -0.1145
 7048SOL    HW227108  10.816   8.212   4.678  1.4435  1.1183  0.8700
 7049SOL     OW27109   8.084   8.732   8.474  0.0737 -0.1105 -0.2719
 7049SOL    HW127110   8.160   8.686   8.509  0.0573 -0.2361 -0.4019
 7049SOL    HW227111   8.024   8.740   8.548  0.0894 -0.2684 -0.2433
 7050SOL     OW27112   9.402   3.220   6.965 -0.4812  0.1211  0.8659
 7050SOL    HW127113   9.399   3.125   6.976 -0.6311  0.0663  0.3488
 7050SOL    HW227114   9.495   3.241   6.967 -0.4424  0.4754  5.2488
 7051SOL     OW27115   4.188   5.522   1.130  0.3939 -0.0216 -0.1914
 7051SOL    HW127116   4.131   5.447   1.113  1.8121 -1.4027  0.9532
 7051SOL    HW227117   4.243   5.528   1.052 -0.2632  0.3797 -0.6417
 7052SOL     OW27118   2.618   7.632   8.178 -0.1434 -0.1299  0.3765
 7052SOL    HW127119   2.540   7.659   8.226 -1.2915 -1.0220 -0.9099
 7052SOL    HW227120   2.614   7.536   8.178  1.4630 -0.2294  1.0624
 7053SOL     OW27121  10.862   1.369   3.923 -0.1896 -0.4691  0.2512
 7053SOL    HW127122  10.907   1.284   3.919  0.3916 -0.1670  0.2369
 7053SOL    HW227123  10.771   1.348   3.903 -0.0169 -1.0624  0.0277
 7054SOL     OW27124   1.064   4.412   0.698  0.3200 -0.0373  0.1465
 7054SOL    HW127125   1.028   4.475   0.760  0.3156 -1.2682  1.4545
 7054SOL    HW227126   1.065   4.329   0.747 -0.2546 -1.1845 -1.7014
 7055SOL     OW27127   1.629   2.102   1.412 -0.0541  0.3736 -0.2207
 7055SOL    HW127128   1.642   2.197   1.404  0.3256  0.2980 -0.5612
 7055SOL    HW227129   1.686   2.077   1.484 -0.8125  0.5299  0.4447
 7056SOL     OW27130   1.642   3.174   5.020 -0.1617 -0.5593  0.5305
 7056SOL    HW127131   1.621   3.086   5.049  1.4615 -0.8276  0.9778
 7056SOL    HW227132   1.724   3.196   5.064  0.2815  0.5812 -0.7531
 7057SOL     OW27133   0.715   6.408   2.088 -0.7779 -0.1601  0.2141
 7057SOL    HW127134   0.661   6.370   2.019  1.4390 -0.3890 -1.5142
 7057SOL    HW227135   0.744   6.333   2.139 -3.0170  0.0677  1.9806
 7058SOL     OW27136   8.872   9.966  11.018  0.1997  0.1664  0.2288
 7058SOL    HW127137   8.895  10.015  11.097 -0.9806  0.5089  0.3893
 7058SOL    HW227138   8.911  10.016  10.946 -0.2321  0.8651  0.4651
 7059SOL     OW27139   9.287  11.492   1.015 -0.0810 -0.2064  0.7016
 7059SOL    HW127140   9.264  11.444   0.936  0.0738  1.5647 -0.4818
 7059SOL    HW227141   9.204  11.532   1.043  0.1439  0.3317  0.5996
 7060SOL     OW27142  12.242   4.235   3.945  0.0592 -0.7248  0.5060
 7060SOL    HW127143  12.169   4.294   3.922  1.0257 -0.0980 -1.1505
 7060SOL    HW227144  12.232   4.221   4.039 -0.6723  1.4840  0.8352
 7061SOL     OW27145   2.078   3.470   5.452  0.1960 -0.2641 -0.4126
 7061SOL    HW127146   2.025   3.512   5.519 -0.1934  0.6081 -1.2393
 7061SOL    HW227147   2.168   3.488   5.478  0.0398  0.8449 -0.5747
 7062SOL     OW27148   2.534   1.926   3.415 -0.5972 -0.1991  0.1352
 7062SOL    HW127149   2.584   1.993   3.369  2.2453 -2.6256 -0.6696
 7062SOL    HW227150   2.587   1.905   3.492 -1.2259 -1.6943  0.2062
 7063SOL     OW27151   3.242   9.963   1.095  0.0069  0.6807 -0.6172
 7063SOL    HW127152   3.283   9.891   1.144 -1.0057  0.4602 -0.0740
 7063SOL    HW227153   3.249  10.039   1.153 -1.2233  0.4115 -0.0978
 7064SOL     OW27154  11.154   2.142  11.414 -0.2910  0.1245  0.0572
 7064SOL    HW127155  11.169   2.222  11.464 -0.4903 -0.0334  0.3726
 7064SOL    HW227156  11.228   2.085  11.438  1.0081  0.9498 -1.7246
 7065SOL     OW27157   0.359  12.119   9.101 -0.0452 -0.6180 -0.0287
 7065SOL    HW127158   0.357  12.071   9.184  0.1514 -1.0614 -0.2848
 7065SOL    HW227159   0.266  12.132   9.079 -0.1479  1.0958  1.1800
 7066SOL     OW27160   8.380   1.875   3.683  0.3509  0.1330 -0.1685
 7066SOL    HW127161   8.453   1.832   3.639  2.4401  2.5266  0.6797
 7066SOL    HW227162   8.397   1.862   3.776 -1.8607 -1.5452  0.0633
 7067SOL     OW27163   7.981   7.713  10.077  1.0616  0.6022 -0.1775
 7067SOL    HW127164   8.025   7.654  10.139 -2.2320 -0.8771  0.9874
 7067SOL    HW227165   7.956   7.656  10.004  0.0370  1.1111 -0.2309
 7068SOL     OW27166   2.017   5.250   5.386  0.0805 -0.2390 -0.5597
 7068SOL    HW127167   2.095   5.210   5.347 -0.0585 -0.6312 -0.4417
 7068SOL    HW227168   2.051   5.321   5.441  0.3164 -0.0708 -0.9178
 7069SOL     OW27169   1.935   1.478   1.753  0.0728 -0.1198 -0.4929
 7069SOL    HW127170   1.900   1.542   1.815  0.9687  0.9569 -1.0600
 7069SOL    HW227171   1.866   1.466   1.688  1.1576  3.1839 -2.5029
 7070SOL     OW27172   0.727   7.630   6.705 -0.3273 -0.3035  0.5976
 7070SOL    HW127173   0.822   7.639   6.698 -0.2651 -0.3271  1.2716
 7070SOL    HW227174   0.698   7.602   6.618  0.4484 -1.7325  0.7641
 7071SOL     OW27175   5.471   3.111   9.625 -0.4103  0.1421  0.8563
 7071SOL    HW127176   5.469   3.206   9.614 -2.0249  0.3198  2.1193
 7071SOL    HW227177   5.379   3.087   9.638 -0.6481 -2.1558 -3.3200
 7072SOL     OW27178   0.238   2.687   0.579 -0.4146  0.0379  0.1115
 7072SOL    HW127179   0.262   2.777   0.556 -1.9205  0.7780  1.2346
 7072SOL    HW227180   0.173   2.662   0.514 -0.3026 -0.0793  0.0448
 7073SOL     OW27181   6.814   3.519   9.542  0.2645  0.6602 -0.1281
 7073SOL    HW127182   6.738   3.487   9.591 -0.0980 -0.1276 -1.1877
 7073SOL    HW227183   6.786   3.604   9.507  0.0100  0.5469 -0.2008
 7074SOL     OW27184   8.686   7.574  12.229 -0.4486  0.5105  0.1360
 7074SOL    HW127185   8.596   7.591  12.257 -0.8413 -1.3906  0.1307
 7074SOL    HW227186   8.726   7.530  12.304  0.4374  1.1409  0.0540
 7075SOL     OW27187   0.121   8.230   7.723  0.3489  0.2097 -0.4854
 7075SOL    HW127188   0.160   8.297   7.667  0.1583 -0.0354 -0.9241
 7075SOL    HW227189   0.193   8.171   7.745  0.4191  0.2920 -0.4960
 7076SOL     OW27190  11.973   2.334   6.406 -0.6270 -0.1174  0.5120
 7076SOL    HW127191  11.986   2.427   6.384 -0.7385 -0.7593 -2.7080
 7076SOL    HW227192  11.878   2.323   6.408 -0.6230 -0.0432  1.6514
 7077SOL     OW27193  12.401   6.487  10.952  0.1559  0.9308 -0.1793
 7077SOL    HW127194  12.423   6.460  11.041  0.9500  2.9816  0.3198
 7077SOL    HW227195  12.462   6.440  10.896 -1.8344 -2.2010  0.0133
 7078SOL     OW27196  10.873   1.248   3.402  0.3188 -0.5642 -0.0149
 7078SOL    HW127197  10.839   1.228   3.489 -0.5141 -0.7030 -0.3609
 7078SOL    HW227198  10.898   1.163   3.366  2.7734 -0.3234  0.8941
 7079SOL     OW27199   6.518   4.590   6.543 -0.0818  0.5737 -0.0751
 7079SOL    HW127200   6.502   4.514   6.487 -2.1318  0.9187 -0.0566
 7079SOL    HW227201   6.483   4.664   6.493  0.2552  1.2445  0.6612
 7080SOL     OW27202   3.890   1.739   6.456  0.0769  0.2383 -0.2424
 7080SOL    HW127203   3.833   1.796   6.507 -1.0123 -0.9793 -0.0560
 7080SOL    HW227204   3.885   1.774   6.367  0.2764  1.0652  0.0614
 7081SOL     OW27205   5.368   7.826   0.160 -0.7659 -0.5866 -0.7682
 7081SOL    HW127206   5.381   7.871   0.076  0.8903  1.3053  0.4059
 7081SOL    HW227207   5.286   7.862   0.195 -1.3264 -1.1926 -1.4309
 7082SOL     OW27208   4.962   4.812   4.658  0.1561 -0.7276 -0.0755
 7082SOL    HW127209   5.009   4.769   4.729 -0.2552  0.6227  1.0572
 7082SOL    HW227210   5.018   4.798   4.581  1.8387 -0.1740  0.9806
 7083SOL     OW27211  10.060   8.531  11.914 -0.3309  0.3816  0.2499
 7083SOL    HW127212   9.999   8.589  11.869 -0.6437 -1.1301 -1.3697
 7083SOL    HW227213  10.142   8.582  11.918 -0.1758  0.4797 -2.4213
 7084SOL     OW27214   4.137   8.226   7.919  0.0382 -0.3270  0.2763
 7084SOL    HW127215   4.075   8.210   7.990 -0.6025  0.8377 -0.0051
 7084SOL    HW227216   4.095   8.186   7.842 -0.3952  0.5053  0.0757
 7085SOL     OW27217   0.495   5.882   8.746 -0.7637  0.4990  0.5391
 7085SOL    HW127218   0.513   5.916   8.834  0.3500  0.2952  0.3923
 7085SOL    HW227219   0.435   5.809   8.761 -0.0172  0.0067  1.1897
 7086SOL     OW27220   7.215   2.673  11.072 -0.7700  0.6628 -0.2106
 7086SOL    HW127221   7.295   2.707  11.113 -0.2774  0.4483 -0.9769
 7086SOL    HW227222   7.232   2.580  11.061 -0.6026  0.8293 -1.5293
 7087SOL     OW27223   1.653   3.715   0.996  0.1170 -0.4033  0.1717
 7087SOL    HW127224   1.575   3.722   1.051  0.4506 -2.6171  1.0274
 7087SOL    HW227225   1.702   3.642   1.033  0.4031 -2.0057 -2.9710
 7088SOL     OW27226   8.368   5.091   3.912 -0.5273  0.4588  0.0362
 7088SOL    HW127227   8.297   5.034   3.944 -0.8014  1.3466  1.0868
 7088SOL    HW227228   8.448   5.053   3.948 -0.5956  0.1254 -0.1651
 7089SOL     OW27229   3.446   7.347   1.903  0.4604 -0.2102  0.1827
 7089SOL    HW127230   3.508   7.330   1.974 -0.8546 -4.6901  0.5851
 7089SOL    HW227231   3.486   7.308   1.825  1.0744  3.0685 -1.3074
 7090SOL     OW27232  10.621   9.215   1.700  0.0642 -0.1478  0.0475
 7090SOL    HW127233  10.614   9.127   1.737  1.4029 -0.0363  0.5954
 7090SOL    HW227234  10.604   9.203   1.606 -0.7029 -0.8333  0.2635
 7091SOL     OW27235   5.217  11.761  12.120  0.2803  0.0943 -0.4474
 7091SOL    HW127236   5.149  11.819  12.152 -0.8491 -2.3564  1.9925
 7091SOL    HW227237   5.186  11.732  12.034 -0.2285  1.3257 -0.6900
 7092SOL     OW27238   2.856   3.864   9.381  0.3556  0.0932  0.8484
 7092SOL    HW127239   2.768   3.828   9.366  0.8829 -0.2496 -1.8272
 7092SOL    HW227240   2.915   3.791   9.365  1.2080  0.7420  0.9977
 7093SOL     OW27241   4.501   4.967   7.517  0.2960  0.1537  0.5456
 7093SOL    HW127242   4.500   4.992   7.425 -2.0518  2.4078  1.0585
 7093SOL    HW227243   4.441   4.893   7.524  2.1434 -1.4735  0.0208
 7094SOL     OW27244   1.237   7.182  12.321  0.4104 -0.5093  0.3422
 7094SOL    HW127245   1.244   7.188  12.226 -1.7056  0.6083  0.2020
 7094SOL    HW227246   1.295   7.251  12.354 -1.9046  1.9138 -0.3510
 7095SOL     OW27247   8.888   8.277   1.188  0.2268  0.2317  0.2668
 7095SOL    HW127248   8.912   8.189   1.213  0.4089 -0.6831 -2.7034
 7095SOL    HW227249   8.963   8.331   1.213  0.0792 -0.3715  2.1758
 7096SOL     OW27250   6.362   9.022   3.417 -0.3390 -0.6623 -0.3043
 7096SOL    HW127251   6.311   9.102   3.431  1.7991  0.7755 -0.3185
 7096SOL    HW227252   6.378   9.020   3.322 -0.9506 -1.4973 -0.4006
 7097SOL     OW27253   4.135   7.685   6.213 -0.2931 -0.3721  0.4180
 7097SOL    HW127254   4.219   7.640   6.216 -1.1309 -2.1483 -0.8054
 7097SOL    HW227255   4.076   7.628   6.262 -0.9109  0.5635  0.7840
 7098SOL     OW27256   0.116   8.999   5.010  0.2969  0.4121  0.7000
 7098SOL    HW127257   0.046   9.029   5.067  0.2556  1.4263  0.1518
 7098SOL    HW227258   0.151   9.080   4.971 -0.3360 -0.2812 -1.4626
 7099SOL     OW27259   6.183   2.691   8.114  0.2443  0.4391 -0.5207
 7099SOL    HW127260   6.098   2.712   8.076  1.1574  1.1470 -2.2800
 7099SOL    HW227261   6.217   2.776   8.143  0.4042  0.1696  0.1056
 7100SOL     OW27262   9.851   8.433   1.062  0.2153 -0.3325 -0.5844
 7100SOL    HW127263   9.833   8.509   1.007 -0.0585 -1.5816 -2.3148
 7100SOL    HW227264   9.826   8.358   1.008  1.3002 -1.7012  0.7142
 7101SOL     OW27265   7.946   1.428   8.907 -0.4172 -0.1935  0.3365
 7101SOL    HW127266   8.030   1.396   8.940 -1.6057 -2.8353  1.1052
 7101SOL    HW227267   7.964   1.452   8.816  1.1482 -0.9400  0.4155
 7102SOL     OW27268   2.846   6.383   2.622  0.0991 -0.2358 -0.2591
 7102SOL    HW127269   2.759   6.377   2.583 -0.1818 -0.7642  0.4316
 7102SOL    HW227270   2.835   6.352   2.712  0.5360  1.7950  0.5604
 7103SOL     OW27271   6.121   2.064  10.208 -0.0388  0.1542  0.4088
 7103SOL    HW127272   6.185   2.126  10.243  0.2377 -0.0701  0.3015
 7103SOL    HW227273   6.107   2.093  10.118  0.7279 -0.4410  0.0908
 7104SOL     OW27274   5.717   4.071   1.690 -0.1084 -0.1518 -0.3851
 7104SOL    HW127275   5.760   4.004   1.637  0.0913  0.0950 -0.5371
 7104SOL    HW227276   5.623   4.059   1.672 -0.2632 -1.7550  1.1985
 7105SOL     OW27277   9.649   9.172   5.401 -0.5175  0.3704 -0.0494
 7105SOL    HW127278   9.599   9.211   5.473 -0.2873  0.5693  0.0042
 7105SOL    HW227279   9.734   9.214   5.406 -0.3914  0.1386 -0.2322
 7106SOL     OW27280   8.794   4.542   0.845  0.4741 -0.6955 -0.1324
 7106SOL    HW127281   8.761   4.461   0.884 -0.3217 -0.5599 -0.5022
 7106SOL    HW227282   8.734   4.610   0.877  0.2515 -0.4763 -0.9777
 7107SOL     OW27283   0.006   9.502  11.287  0.2184 -0.0329  0.0870
 7107SOL    HW127284  -0.063   9.563  11.315 -0.0107  0.2771 -1.0942
 7107SOL    HW227285   0.003   9.431  11.352 -1.6217 -0.3232 -0.2655
 7108SOL     OW27286   9.406   2.919   8.942  0.2713 -0.3325  0.9155
 7108SOL    HW127287   9.376   2.959   8.861  0.2618 -0.9994  0.5844
 7108SOL    HW227288   9.481   2.864   8.916  1.6122  1.0682  1.6768
 7109SOL     OW27289   6.532   8.553  11.022  0.5591  0.3835 -0.3753
 7109SOL    HW127290   6.556   8.482  10.962 -2.4514  1.3844 -3.0355
 7109SOL    HW227291   6.613   8.572  11.071  2.1753 -3.0190 -1.4138
 7110SOL     OW27292   2.629   3.649   8.402 -0.4345  0.1794 -0.7287
 7110SOL    HW127293   2.700   3.713   8.407 -0.7819  0.5289 -0.1400
 7110SOL    HW227294   2.571   3.671   8.476 -0.5231 -0.8582 -0.4695
 7111SOL     OW27295   3.528   9.918   3.639  0.4037  0.1952  0.2724
 7111SOL    HW127296   3.521   9.866   3.559 -0.6849 -1.9319  1.6530
 7111SOL    HW227297   3.465   9.989   3.628  0.7217  0.3054 -0.9701
 7112SOL     OW27298   8.191   6.303   1.298 -0.3568 -0.3725  0.1033
 7112SOL    HW127299   8.229   6.346   1.375  0.0403  0.6904 -0.6563
 7112SOL    HW227300   8.108   6.348   1.284  0.0952  0.2217 -0.7435
 7113SOL     OW27301   1.578   3.536   5.559  0.2326 -0.0785 -0.0760
 7113SOL    HW127302   1.622   3.464   5.513  0.0524 -0.2026 -0.0546
 7113SOL    HW227303   1.624   3.542   5.643 -1.9255 -2.4886  1.4449
 7114SOL     OW27304   2.368   5.740   6.571 -0.2510 -0.2435  0.4605
 7114SOL    HW127305   2.456   5.740   6.533 -0.7824  0.9197 -0.8706
 7114SOL    HW227306   2.316   5.688   6.510 -0.8163  0.3958  0.3962
 7115SOL     OW27307   8.468   9.435  11.528 -0.3586  0.2442  0.1576
 7115SOL    HW127308   8.384   9.481  11.523 -0.3182  0.3201  0.1757
 7115SOL    HW227309   8.533   9.505  11.531 -0.2411  0.1879 -0.8027
 7116SOL     OW27310   1.904  10.459  10.614 -0.6729  0.2037 -0.7611
 7116SOL    HW127311   1.834  10.481  10.553 -1.4565  1.6762  0.5931
 7116SOL    HW227312   1.880  10.373  10.649 -0.6816 -0.2399 -1.8384
 7117SOL     OW27313   4.936   1.172   3.325 -0.1581 -0.4465 -0.1748
 7117SOL    HW127314   4.991   1.098   3.351  0.4878 -0.7461 -2.2037
 7117SOL    HW227315   4.846   1.142   3.339  0.1389 -0.9993  0.5617
 7118SOL     OW27316   0.234   6.876   3.080 -0.0811 -0.2635  0.4125
 7118SOL    HW127317   0.177   6.912   3.148 -0.2963 -1.2708  0.7712
 7118SOL    HW227318   0.301   6.827   3.127  0.8229  0.5052 -0.0288
 7119SOL     OW27319   6.139  10.480   6.147  0.0791 -0.8283 -0.0503
 7119SOL    HW127320   6.176  10.538   6.081 -2.8513 -1.8045 -2.7742
 7119SOL    HW227321   6.096  10.538   6.210  0.3131  0.0437 -0.6828
 7120SOL     OW27322   1.792   9.540   6.084 -0.3296 -0.2245 -0.2117
 7120SOL    HW127323   1.771   9.484   6.009 -1.0933 -1.4583  0.8565
 7120SOL    HW227324   1.708   9.550   6.130  0.1272  0.4440  0.5004
 7121SOL     OW27325   1.056   9.531   2.530 -0.0825  1.1011 -0.3274
 7121SOL    HW127326   1.019   9.454   2.573 -0.2106  0.9717 -0.6644
 7121SOL    HW227327   1.002   9.542   2.452  0.1805  1.3050 -0.4787
 7122SOL     OW27328   6.423   7.349   1.893  0.5246 -0.8289  0.1940
 7122SOL    HW127329   6.433   7.287   1.965  0.9285 -0.5630  0.3770
 7122SOL    HW227330   6.417   7.295   1.815  1.8294 -1.0919  0.2422
 7123SOL     OW27331   5.602   9.589  10.629  0.1364  0.0218 -0.7716
 7123SOL    HW127332   5.562   9.517  10.580  1.1001 -0.2399 -1.1914
 7123SOL    HW227333   5.681   9.611  10.580  0.5986  0.4249  0.1161
 7124SOL     OW27334   1.170   3.810   4.370  0.0225 -0.1957 -0.5920
 7124SOL    HW127335   1.179   3.733   4.313 -0.1917  0.2355 -1.2143
 7124SOL    HW227336   1.171   3.773   4.459  1.2126 -0.7991 -0.8267
 7125SOL     OW27337   3.519   2.916   4.912 -0.0857  0.1969  1.0124
 7125SOL    HW127338   3.447   2.974   4.935  1.2154  1.4373  2.1969
 7125SOL    HW227339   3.481   2.828   4.913 -1.9276  0.9232 -0.0746
 7126SOL     OW27340   4.443  11.500   6.178 -0.5597 -0.8895 -0.2701
 7126SOL    HW127341   4.368  11.470   6.126 -0.2655  0.5545 -1.5791
 7126SOL    HW227342   4.403  11.548   6.251 -0.9317 -1.0694 -0.3492
 7127SOL     OW27343   4.889   5.324   7.166 -0.0054  0.1399  0.0142
 7127SOL    HW127344   4.908   5.346   7.258  0.5035 -0.5507  0.0790
 7127SOL    HW227345   4.969   5.283   7.134 -0.7601 -1.1751 -0.2441
 7128SOL     OW27346   8.045   7.677  11.030 -0.3484 -0.1080 -0.0360
 7128SOL    HW127347   8.118   7.733  11.056 -1.9260  1.9627  0.1457
 7128SOL    HW227348   8.062   7.593  11.074  1.9524  0.2391 -0.1203
 7129SOL     OW27349   0.236   2.230  12.095 -0.1817 -0.1994 -0.5772
 7129SOL    HW127350   0.171   2.160  12.100  1.9952 -2.3445 -0.0374
 7129SOL    HW227351   0.291   2.217  12.172  1.0544  1.3042 -1.1496
 7130SOL     OW27352   8.630  10.822  10.531  0.4962  0.3238  0.6859
 7130SOL    HW127353   8.651  10.915  10.521 -1.0443  0.7807  1.2954
 7130SOL    HW227354   8.713  10.776  10.517  1.2504  1.7731  0.1994
 7131SOL     OW27355   4.096  11.216   1.641  0.0416  0.1087  0.8172
 7131SOL    HW127356   4.147  11.284   1.598  1.3957 -0.5344  1.3343
 7131SOL    HW227357   4.156  11.141   1.647 -1.0477 -0.7628  1.2360
 7132SOL     OW27358   6.264  11.000   9.165 -0.3827  0.2716 -0.3022
 7132SOL    HW127359   6.356  11.027   9.163 -0.9295  2.3005 -2.3714
 7132SOL    HW227360   6.242  10.984   9.073 -1.4787 -2.7383  0.3851
 7133SOL     OW27361   6.416   8.011   2.615 -0.0845  0.2111  0.4450
 7133SOL    HW127362   6.452   7.922   2.616 -0.3256  0.1054  0.0223
 7133SOL    HW227363   6.338   8.005   2.560 -1.0035  0.3427  1.6752
 7134SOL     OW27364  10.742  10.413   8.315  0.3598 -0.1576 -0.3238
 7134SOL    HW127365  10.741  10.328   8.271  0.4671  0.0947 -0.8170
 7134SOL    HW227366  10.833  10.424   8.343  0.2912 -0.3201 -0.0262
 7135SOL     OW27367  11.982   3.804  12.432 -0.4837  0.0143 -0.0138
 7135SOL    HW127368  12.067   3.847  12.443 -1.0055  0.7848  1.1417
 7135SOL    HW227369  11.921   3.875  12.411 -1.6216  0.1716  3.2285
 7136SOL     OW27370  12.302   5.775   2.885 -0.6044 -0.6913 -0.7196
 7136SOL    HW127371  12.377   5.726   2.852  0.6859  0.2175  0.7625
 7136SOL    HW227372  12.251   5.710   2.934  0.7654 -0.7189  0.7102
 7137SOL     OW27373   6.886   6.358   1.607 -0.8073  0.1086 -0.2830
 7137SOL    HW127374   6.966   6.410   1.606 -0.7038 -0.0543 -0.5199
 7137SOL    HW227375   6.905   6.284   1.550 -1.1899  0.1634 -0.4821
 7138SOL     OW27376   1.003   5.152   1.000  0.2480 -0.3733 -0.4905
 7138SOL    HW127377   1.060   5.211   0.952 -0.0862  0.3555 -0.0132
 7138SOL    HW227378   1.056   5.074   1.015  0.5363 -0.3940 -1.5383
 7139SOL     OW27379   9.786   5.568   7.295 -0.0104  0.3769  0.1531
 7139SOL    HW127380   9.798   5.489   7.347 -0.6091  0.0740 -0.1517
 7139SOL    HW227381   9.835   5.636   7.341  0.5488 -0.1816  0.3930
 7140SOL     OW27382   0.614   4.028   5.339 -0.0298 -0.2244 -0.0292
 7140SOL    HW127383   0.661   3.978   5.406  1.2864  2.3985  1.1727
 7140SOL    HW227384   0.542   4.070   5.386 -0.8631 -0.6321 -0.9144
 7141SOL     OW27385   2.366   4.032   7.493 -0.3995  0.2484 -0.5349
 7141SOL    HW127386   2.452   3.991   7.485  0.1157  1.2055 -0.0103
 7141SOL    HW227387   2.314   3.993   7.422  0.6368  0.1048 -1.2295
 7142SOL     OW27388   1.293  10.028   5.432  0.6586  0.2119 -0.2940
 7142SOL    HW127389   1.348   9.982   5.369  1.0832 -0.4397  0.5441
 7142SOL    HW227390   1.266   9.961   5.495 -1.0333  0.5166 -0.6209
 7143SOL     OW27391   0.495  10.572   5.579 -0.6605  0.5703 -0.0182
 7143SOL    HW127392   0.544  10.610   5.507 -0.3355 -1.1028 -0.7293
 7143SOL    HW227393   0.441  10.504   5.538 -0.6410 -0.2609  1.2730
 7144SOL     OW27394   9.294   1.314   4.106 -0.4346 -0.0649 -0.1119
 7144SOL    HW127395   9.240   1.389   4.128 -1.1701  0.1291 -2.3533
 7144SOL    HW227396   9.279   1.251   4.177 -0.9777  1.2754  1.0047
 7145SOL     OW27397   9.501   8.512   7.602  0.5339 -0.6101  0.2255
 7145SOL    HW127398   9.478   8.597   7.566  0.8230 -0.8110 -0.4382
 7145SOL    HW227399   9.576   8.530   7.659 -0.4621 -0.1554  1.4322
 7146SOL     OW27400   5.757  10.080   0.797  0.5269 -0.5774  0.2569
 7146SOL    HW127401   5.728  10.152   0.853  0.5827  0.8296 -1.4137
 7146SOL    HW227402   5.718  10.002   0.835 -2.9042  0.8100 -0.0612
 7147SOL     OW27403   2.111   7.061   4.023  0.0953  0.1521  0.1030
 7147SOL    HW127404   2.164   6.983   4.038 -1.0492 -1.0373 -1.6135
 7147SOL    HW227405   2.173   7.133   4.022  1.4246 -0.9651 -0.0182
 7148SOL     OW27406   5.219   0.346   6.699  0.1639 -0.2903 -0.2504
 7148SOL    HW127407   5.246   0.436   6.711 -1.4486  0.2828 -0.6006
 7148SOL    HW227408   5.221   0.332   6.604  0.1537 -0.5331 -0.2169
 7149SOL     OW27409   9.857   4.537   5.770 -0.0079  0.1507  0.1345
 7149SOL    HW127410   9.876   4.445   5.755 -0.9259  0.1559 -1.2474
 7149SOL    HW227411   9.806   4.538   5.851  1.7149 -0.3167  1.2689
 7150SOL     OW27412   8.963   4.134   7.574  0.1247 -0.2897 -0.3788
 7150SOL    HW127413   8.912   4.102   7.500 -2.9118  1.5394  0.7353
 7150SOL    HW227414   8.951   4.229   7.573  2.2380  0.0723  0.9368
 7151SOL     OW27415   2.307  12.346   1.092  0.0582  0.3843 -0.0935
 7151SOL    HW127416   2.269  12.420   1.046  0.4010  1.1887  0.8679
 7151SOL    HW227417   2.241  12.277   1.087 -1.6319  1.7737  1.6472
 7152SOL     OW27418   0.888  10.176   2.899  0.0626  0.0839 -0.5386
 7152SOL    HW127419   0.804  10.131   2.900 -0.3204  0.7908 -0.4674
 7152SOL    HW227420   0.902  10.204   2.989  0.8887 -0.9500 -0.3219
 7153SOL     OW27421   3.285  11.840  11.183 -0.3742  0.3794 -0.4272
 7153SOL    HW127422   3.239  11.799  11.256 -0.9448  1.6563 -0.0287
 7153SOL    HW227423   3.301  11.930  11.212 -1.3367  1.1620 -2.1558
 7154SOL     OW27424   8.837   7.391   3.819  0.0985  0.2896 -0.5135
 7154SOL    HW127425   8.838   7.479   3.781  0.7795 -0.1829 -1.6555
 7154SOL    HW227426   8.758   7.350   3.782 -0.3700  0.4965  0.2356
 7155SOL     OW27427   2.480   8.604  10.343  0.1848  0.0390  0.0176
 7155SOL    HW127428   2.426   8.538  10.301  1.3502 -0.2762 -1.0468
 7155SOL    HW227429   2.516   8.560  10.420 -2.2725  0.7411  1.6812
 7156SOL     OW27430  12.346   1.193   4.572 -0.3734 -0.4246 -0.2294
 7156SOL    HW127431  12.365   1.142   4.650 -1.0620 -0.4461 -0.0707
 7156SOL    HW227432  12.420   1.177   4.514 -0.0544 -0.7275  0.2588
 7157SOL     OW27433  12.161  11.075   2.260  0.1942  0.1074  0.2436
 7157SOL    HW127434  12.214  11.132   2.315 -0.7694  0.9895  0.2870
 7157SOL    HW227435  12.127  11.009   2.320  0.9464 -0.2610  0.2783
 7158SOL     OW27436  10.418   9.805   7.775  0.1012  0.0229 -0.4908
 7158SOL    HW127437  10.358   9.879   7.778  1.2496  0.9654 -0.2787
 7158SOL    HW227438  10.368   9.732   7.811 -0.5726  1.0366  0.6969
 7159SOL     OW27439  11.152   7.094  11.260  0.4665  0.2058 -0.4077
 7159SOL    HW127440  11.159   7.176  11.212 -0.2795 -0.1646 -1.1724
 7159SOL    HW227441  11.100   7.115  11.337 -1.3147  0.0859 -1.5302
 7160SOL     OW27442   1.169   3.627   5.918 -0.0123 -0.2970 -0.0307
 7160SOL    HW127443   1.231   3.569   5.961  1.2159 -0.5774 -2.0378
 7160SOL    HW227444   1.217   3.662   5.843 -0.9431  2.7522  0.6506
 7161SOL     OW27445   7.112  11.990   5.383 -0.7640 -0.2411 -0.1188
 7161SOL    HW127446   7.067  11.910   5.359  0.0582 -1.5337  2.2604
 7161SOL    HW227447   7.059  12.027   5.454  0.1042  0.0310  0.4039
 7162SOL     OW27448   1.599   2.342   6.523  0.8621 -0.1963 -0.4753
 7162SOL    HW127449   1.532   2.330   6.456 -1.1908  0.7266  1.2772
 7162SOL    HW227450   1.591   2.263   6.578  1.0236  0.0287 -0.1264
 7163SOL     OW27451  11.573   0.972   4.985  0.2684 -0.5548  0.1753
 7163SOL    HW127452  11.648   0.951   4.929 -0.0959  0.3659 -0.6830
 7163SOL    HW227453  11.503   0.993   4.924 -0.2937 -0.0565  0.9817
 7164SOL     OW27454  10.601  10.631   2.271 -0.1648 -0.1556  0.3305
 7164SOL    HW127455  10.603  10.597   2.361 -0.1388 -0.2912  0.2778
 7164SOL    HW227456  10.513  10.611   2.240  0.0208 -0.6386  0.1175
 7165SOL     OW27457   6.636   4.304   0.365 -1.1201  0.4966 -0.2028
 7165SOL    HW127458   6.634   4.392   0.329 -1.8915  1.4924  2.0800
 7165SOL    HW227459   6.559   4.300   0.422 -0.5990 -1.3387  0.4389
 7166SOL     OW27460   0.479  12.410   2.849 -0.4960 -0.0082  0.3502
 7166SOL    HW127461   0.492  12.412   2.755  0.8529  0.6979  0.5291
 7166SOL    HW227462   0.384  12.410   2.860 -0.6702 -0.5519 -1.0025
 7167SOL     OW27463   2.375   0.594  10.836 -0.4250  0.2464 -0.2743
 7167SOL    HW127464   2.388   0.501  10.817  0.3697  0.3956 -0.4807
 7167SOL    HW227465   2.357   0.597  10.930  0.0795 -0.0648 -0.1674
 7168SOL     OW27466  11.456   2.181  12.275 -0.3134  0.6728 -0.1676
 7168SOL    HW127467  11.370   2.186  12.315 -1.7498  3.4708 -3.1376
 7168SOL    HW227468  11.443   2.124  12.199  1.0298 -0.5156  0.4570
 7169SOL     OW27469   2.225   0.195   3.573 -0.1952  0.3402  0.0502
 7169SOL    HW127470   2.262   0.168   3.489 -1.5351 -0.8343 -0.1957
 7169SOL    HW227471   2.253   0.127   3.634  1.5932  1.6848  0.8338
 7170SOL     OW27472   9.759   3.336  10.974  0.2555 -0.2733  0.6942
 7170SOL    HW127473   9.837   3.385  10.999  0.4164 -0.0357 -0.2341
 7170SOL    HW227474   9.688   3.401  10.978  0.5562  0.2078 -1.0618
 7171SOL     OW27475   9.010   2.547   6.516  0.4478  0.1303 -0.2382
 7171SOL    HW127476   9.062   2.507   6.446  1.0890 -0.9078  0.7745
 7171SOL    HW227477   9.075   2.577   6.580 -0.1486 -1.0990  1.0123
 7172SOL     OW27478   8.151   7.767  12.389 -0.4498  0.4040 -0.0018
 7172SOL    HW127479   8.071   7.795  12.433  0.4020 -0.4927  2.2961
 7172SOL    HW227480   8.222   7.793  12.449  0.7879 -0.9883 -0.7870
 7173SOL     OW27481   9.024  12.377   9.938  0.6421 -0.0398  0.3439
 7173SOL    HW127482   8.960  12.357   9.870 -0.2245 -1.9881  1.6484
 7173SOL    HW227483   9.069  12.293   9.955  2.1946  0.8400  0.8254
 7174SOL     OW27484   1.155  11.526   5.351  0.3920  0.5140 -0.3283
 7174SOL    HW127485   1.179  11.606   5.306 -0.9317  0.1761 -1.7172
 7174SOL    HW227486   1.189  11.455   5.296 -0.7671  0.1025 -0.5467
 7175SOL     OW27487   7.860   8.105   4.053  0.0441 -0.0739 -0.0726
 7175SOL    HW127488   7.936   8.056   4.021  0.2906 -0.5233  1.1442
 7175SOL    HW227489   7.873   8.110   4.147 -1.7302 -0.7016  0.2462
 7176SOL     OW27490   4.092   7.543   9.814  0.1937 -0.4420  0.4118
 7176SOL    HW127491   4.049   7.462   9.788 -0.4904 -0.0611  0.3540
 7176SOL    HW227492   4.178   7.539   9.770  0.0501 -0.9907  0.1713
 7177SOL     OW27493   4.882   4.225   8.301  0.2358  0.1172 -0.7968
 7177SOL    HW127494   4.832   4.306   8.306  0.9960  0.6101 -0.9774
 7177SOL    HW227495   4.895   4.211   8.207 -0.4369 -0.5713 -0.8039
 7178SOL     OW27496   6.487  11.853   9.945  0.2342 -0.9168  0.3840
 7178SOL    HW127497   6.582  11.837   9.940  0.2268 -1.1715  0.9215
 7178SOL    HW227498   6.450  11.766   9.961  0.0838 -0.5450  2.2247
 7179SOL     OW27499  10.233   5.567   7.950  0.1322  0.0343  0.1334
 7179SOL    HW127500  10.165   5.631   7.972 -0.6211  0.1857 -2.3069
 7179SOL    HW227501  10.186   5.500   7.899  1.5369 -0.6913 -0.2414
 7180SOL     OW27502   1.701   8.356   6.522 -0.3753 -0.1471 -0.7533
 7180SOL    HW127503   1.744   8.414   6.585  1.3702  0.1220 -2.0970
 7180SOL    HW227504   1.621   8.402   6.497 -0.8389 -0.0329  0.8661
 7181SOL     OW27505   4.861   1.694   3.253  0.6866 -0.0036 -0.5873
 7181SOL    HW127506   4.784   1.747   3.271  2.1860  2.0070  0.2476
 7181SOL    HW227507   4.883   1.654   3.337  0.7067 -0.4092 -0.7793
 7182SOL     OW27508  12.401   4.250   9.993 -0.1038  0.7667  0.2886
 7182SOL    HW127509  12.450   4.320  10.036  0.8353 -0.6783  1.6743
 7182SOL    HW227510  12.447   4.237   9.910 -0.3580  1.8558 -0.0357
 7183SOL     OW27511   7.628  12.050  10.492  0.3939  0.3704  0.4531
 7183SOL    HW127512   7.643  12.069  10.585  2.3658  0.8487  0.0930
 7183SOL    HW227513   7.666  12.125  10.446 -2.0712  0.9759 -0.7500
 7184SOL     OW27514   2.700  10.194  10.495 -0.1954  0.6237 -0.1945
 7184SOL    HW127515   2.721  10.276  10.538 -0.5398  0.6673 -0.1068
 7184SOL    HW227516   2.666  10.220  10.409  1.6134  0.4960 -0.9770
 7185SOL     OW27517   8.705   0.380   5.133  0.1904 -0.2667  0.2010
 7185SOL    HW127518   8.629   0.436   5.118  0.7559 -0.2566 -3.8284
 7185SOL    HW227519   8.670   0.291   5.134 -0.2192 -0.1402  2.3846
 7186SOL     OW27520  10.898  10.946   7.147 -0.3091  0.3040  0.1858
 7186SOL    HW127521  10.885  10.851   7.150  0.7899  0.1010 -0.7558
 7186SOL    HW227522  10.809  10.982   7.152 -0.9111 -0.8331 -1.3971
 7187SOL     OW27523  10.791   2.056   0.878 -0.1285  0.1668 -0.0697
 7187SOL    HW127524  10.755   2.018   0.958  0.5226 -1.0933 -0.3382
 7187SOL    HW227525  10.874   2.009   0.865  0.8921  1.9410 -0.2624
 7188SOL     OW27526   5.162   1.460   7.087  0.2841  0.3745 -0.0299
 7188SOL    HW127527   5.230   1.407   7.046 -0.0239  1.7308 -2.5032
 7188SOL    HW227528   5.113   1.399   7.143  1.2518 -1.4245 -1.0760
 7189SOL     OW27529   8.887   3.809   7.198  0.0416  0.0704  0.4280
 7189SOL    HW127530   8.868   3.716   7.181 -0.3443  0.2855 -0.3418
 7189SOL    HW227531   8.899   3.813   7.293 -1.5299 -0.4972  0.6892
 7190SOL     OW27532   9.151   3.184  12.142  0.6509  0.9598 -0.2749
 7190SOL    HW127533   9.078   3.173  12.203  1.2764  0.3406  0.3766
 7190SOL    HW227534   9.229   3.171  12.196  1.2314 -2.8562 -1.7372
 7191SOL     OW27535  12.072   0.823   1.575  0.6888  0.5451 -0.3857
 7191SOL    HW127536  12.116   0.840   1.658  0.8703 -0.4939 -0.2501
 7191SOL    HW227537  11.984   0.860   1.585  1.0663  1.3803 -0.1387
 7192SOL     OW27538   7.936   3.532   3.705  0.0230  0.1752 -0.1328
 7192SOL    HW127539   7.861   3.571   3.660 -1.6729 -0.9637  1.5433
 7192SOL    HW227540   7.975   3.604   3.755  0.1506  0.8031 -1.1215
 7193SOL     OW27541  11.538  12.141   8.789  0.2800  0.0921 -0.7214
 7193SOL    HW127542  11.575  12.229   8.787  0.8841 -0.0933  0.8232
 7193SOL    HW227543  11.607  12.087   8.826 -0.5991 -0.7395 -0.2418
 7194SOL     OW27544  12.211   4.162   6.206 -0.1878 -0.8196  0.2094
 7194SOL    HW127545  12.251   4.094   6.259 -2.2122 -3.0091 -0.8533
 7194SOL    HW227546  12.158   4.114   6.142 -2.5350  1.7622  0.0304
 7195SOL     OW27547  11.487   6.980   8.650  0.1923 -0.3618  0.0587
 7195SOL    HW127548  11.484   6.985   8.554  0.7925 -1.6157 -0.0360
 7195SOL    HW227549  11.559   6.920   8.669 -0.0181 -0.2421  1.3010
 7196SOL     OW27550  12.493   7.694   1.332 -0.2521 -0.1434  0.6783
 7196SOL    HW127551  12.475   7.600   1.345  0.3298 -0.3721 -0.1006
 7196SOL    HW227552  12.408   7.736   1.346 -1.1577 -1.0493 -1.5722
 7197SOL     OW27553   2.540   0.707   6.977  0.2684  0.3017 -0.0831
 7197SOL    HW127554   2.559   0.614   6.983 -0.6814  0.0957 -0.1411
 7197SOL    HW227555   2.447   0.714   6.997  0.3533  1.2510  0.0234
 7198SOL     OW27556   8.343   3.522   4.958 -0.4345 -0.1747  0.5988
 7198SOL    HW127557   8.309   3.548   4.872 -0.9024 -1.0351  0.5183
 7198SOL    HW227558   8.438   3.533   4.950 -0.4009 -0.9700 -0.2927
 7199SOL     OW27559  10.536   2.468   6.425  0.0629 -0.0708  0.3586
 7199SOL    HW127560  10.561   2.523   6.350 -2.1102  0.6619  0.1110
 7199SOL    HW227561  10.494   2.392   6.385  1.4213 -1.0839  0.7803
 7200SOL     OW27562   9.621  11.239   5.325 -0.2885 -0.0203 -0.0409
 7200SOL    HW127563   9.559  11.185   5.275  1.1906 -1.2286 -0.6579
 7200SOL    HW227564   9.642  11.186   5.402 -0.7509  0.8147  0.6808
 7201SOL     OW27565  10.585   8.972   2.782 -0.2338 -0.2906 -0.1135
 7201SOL    HW127566  10.652   8.942   2.844 -1.0343 -0.8125  0.5276
 7201SOL    HW227567  10.577   8.901   2.719 -0.4777 -0.4050  0.0476
 7202SOL     OW27568   2.556   1.788   2.296 -0.2757 -0.4483  0.0055
 7202SOL    HW127569   2.564   1.781   2.201 -1.8432  0.4101 -0.2239
 7202SOL    HW227570   2.513   1.706   2.322 -0.8042 -0.2260 -0.1626
 7203SOL     OW27571   1.214   3.338   5.620  0.3707  0.1770 -0.4678
 7203SOL    HW127572   1.185   3.338   5.529  0.0414  0.1572 -0.3649
 7203SOL    HW227573   1.134   3.352   5.671  0.0692 -2.5799 -0.0354
 7204SOL     OW27574   9.497   7.695   3.588 -0.6914 -0.0573 -0.2032
 7204SOL    HW127575   9.507   7.748   3.509 -2.6032 -0.2601 -0.6189
 7204SOL    HW227576   9.585   7.691   3.625  0.1645  0.3941 -2.0788
 7205SOL     OW27577   1.547  12.168   4.090  0.2615  0.2474  0.0114
 7205SOL    HW127578   1.559  12.260   4.065 -0.9546  0.6427  0.8025
 7205SOL    HW227579   1.520  12.171   4.182 -0.2699 -0.8709 -0.0895
 7206SOL     OW27580   8.737   5.713   6.973 -0.1525 -0.2747  0.3664
 7206SOL    HW127581   8.776   5.778   6.915  0.0629 -0.2074  0.5834
 7206SOL    HW227582   8.802   5.642   6.976 -0.4258 -0.5453  0.0557
 7207SOL     OW27583   8.147   4.035   7.651  0.5418 -0.1036  0.9878
 7207SOL    HW127584   8.148   3.954   7.702 -0.4809  0.0079  1.2099
 7207SOL    HW227585   8.071   4.026   7.593  2.2572 -0.6711 -1.2909
 7208SOL     OW27586   0.894   7.966  10.030 -0.7824  0.1254  0.1120
 7208SOL    HW127587   0.812   7.989  10.075 -0.6470 -1.6317  1.4077
 7208SOL    HW227588   0.953   8.039  10.047 -1.9524  1.2527 -0.5376
 7209SOL     OW27589   7.104   6.934   2.433  0.0602  0.1574 -0.6082
 7209SOL    HW127590   7.182   6.888   2.401 -0.6875  0.7191 -3.5135
 7209SOL    HW227591   7.112   6.931   2.528  2.4155 -1.8427 -0.7722
 7210SOL     OW27592   7.553   0.911   9.237  0.2770  0.5397  0.0909
 7210SOL    HW127593   7.585   0.969   9.307  1.2457  0.5787 -0.3803
 7210SOL    HW227594   7.575   0.823   9.267  0.7431  0.5601 -0.1858
 7211SOL     OW27595   2.220   8.570   5.494 -0.1667 -0.8136  0.0728
 7211SOL    HW127596   2.141   8.523   5.468  0.6271 -2.1058 -0.1198
 7211SOL    HW227597   2.202   8.662   5.474 -1.3492 -1.1774 -0.5983
 7212SOL     OW27598   3.038   4.385  11.750 -1.0149  0.5028 -0.3966
 7212SOL    HW127599   2.954   4.429  11.759 -0.7844  0.8734 -0.0530
 7212SOL    HW227600   3.101   4.455  11.734 -0.7125  0.2668 -0.2615
 7213SOL     OW27601   3.702   8.254   2.682  0.3269 -0.2069  0.2197
 7213SOL    HW127602   3.742   8.287   2.763  1.3362 -0.8919  0.0268
 7213SOL    HW227603   3.777   8.229   2.628 -0.3280  0.5397 -1.0605
 7214SOL     OW27604  10.344   2.620  11.461  0.4677  0.9091  0.0360
 7214SOL    HW127605  10.343   2.701  11.410  0.2894  0.7803 -0.1699
 7214SOL    HW227606  10.260   2.620  11.507  0.1742  0.5183 -0.4870
 7215SOL     OW27607  12.101   8.520   2.333  0.2543  0.0415  0.3072
 7215SOL    HW127608  12.039   8.451   2.308  0.5968  0.3883 -1.6903
 7215SOL    HW227609  12.067   8.598   2.289  0.2651  1.0195  1.9587
 7216SOL     OW27610  10.027  10.388   8.119  0.0995  0.4310 -0.6508
 7216SOL    HW127611   9.961  10.447   8.082  0.1354 -0.4470 -2.2060
 7216SOL    HW227612  10.017  10.306   8.070  0.0133 -0.9201  1.4893
 7217SOL     OW27613   3.379  11.666   9.684 -0.0196  0.5275 -0.2082
 7217SOL    HW127614   3.354  11.622   9.603  2.4779  0.0719 -0.8034
 7217SOL    HW227615   3.474  11.655   9.690 -0.0214  1.1470  2.4392
 7218SOL     OW27616   2.078   2.104   5.484  0.0107 -0.4464  0.3066
 7218SOL    HW127617   2.113   2.108   5.573 -0.2055 -0.2989  0.3855
 7218SOL    HW227618   1.984   2.096   5.495 -0.1496  0.9059  0.0926
 7219SOL     OW27619  11.664   4.770   8.062 -0.1672 -0.1862  0.0199
 7219SOL    HW127620  11.723   4.717   8.116  0.7758  1.8980  1.1840
 7219SOL    HW227621  11.634   4.839   8.121 -0.2493  1.3504 -1.7247
 7220SOL     OW27622   0.917  11.166   8.889 -0.0406  0.5822 -0.0288
 7220SOL    HW127623   0.994  11.124   8.927 -0.1006  0.2320 -0.2944
 7220SOL    HW227624   0.853  11.165   8.959  0.0292  0.4197  0.0335
 7221SOL     OW27625   5.124   8.834  11.537 -0.0595 -0.2524 -0.3141
 7221SOL    HW127626   5.090   8.760  11.488  1.1403  0.2194 -1.9384
 7221SOL    HW227627   5.218   8.836  11.516 -0.0015  1.5270 -0.0548
 7222SOL     OW27628   3.123   1.004  11.709 -0.0699  0.5269  0.1803
 7222SOL    HW127629   3.049   1.053  11.746  0.9565  2.1099  0.2582
 7222SOL    HW227630   3.086   0.953  11.638 -1.2809  1.1234  0.3668
 7223SOL     OW27631   1.246   9.046   7.893 -0.2807 -0.4611 -0.5022
 7223SOL    HW127632   1.315   8.980   7.906  0.9923  1.0005  0.5453
 7223SOL    HW227633   1.165   9.000   7.916  0.7757 -1.1160  2.3987
 7224SOL     OW27634  11.786   3.543   9.488  0.3341  0.2592 -0.7972
 7224SOL    HW127635  11.858   3.483   9.470  0.3323 -0.4856  1.3769
 7224SOL    HW227636  11.736   3.501   9.558 -2.2235  0.7630 -2.1672
 7225SOL     OW27637   9.893   6.730  11.250 -0.4660  0.5454  0.0823
 7225SOL    HW127638   9.978   6.764  11.279 -0.3552  0.2784  0.0754
 7225SOL    HW227639   9.886   6.757  11.159  0.4515 -0.9958 -0.4902
 7226SOL     OW27640   1.020   0.085   4.375 -0.4580  0.0774  0.3047
 7226SOL    HW127641   0.941   0.031   4.373 -1.1282  1.0238  0.5083
 7226SOL    HW227642   1.004   0.154   4.310  0.8637 -0.5929 -0.7813
 7227SOL     OW27643   7.022   7.045   6.799  0.9103 -0.6323 -0.4187
 7227SOL    HW127644   6.935   7.062   6.764 -0.8686 -0.8131  3.4462
 7227SOL    HW227645   7.054   7.131   6.827  1.3535 -0.7693 -0.4895
 7228SOL     OW27646  12.006   4.287   1.167 -0.6667 -0.2642  0.0502
 7228SOL    HW127647  12.059   4.275   1.088  0.0325 -1.9532  0.7347
 7228SOL    HW227648  11.943   4.355   1.143 -1.4713 -1.7395 -2.5384
 7229SOL     OW27649   3.516   7.906   1.178  0.1536  0.2306  0.2155
 7229SOL    HW127650   3.475   7.832   1.222  0.0496  0.0504 -0.1715
 7229SOL    HW227651   3.488   7.897   1.086  2.4825 -0.9593 -0.4714
 7230SOL     OW27652   4.162   6.421  10.123  0.2077 -0.2050  0.2621
 7230SOL    HW127653   4.096   6.352  10.137  1.3115 -1.3422  0.0289
 7230SOL    HW227654   4.170   6.463  10.209 -0.8361 -0.0165  0.2903
 7231SOL     OW27655   0.531   0.980   9.095  0.0840  0.3786 -0.3850
 7231SOL    HW127656   0.517   0.904   9.039  0.3006 -0.2278  0.3558
 7231SOL    HW227657   0.593   0.950   9.161  0.1328  1.1873 -0.0424
 7232SOL     OW27658  10.809   4.289   6.369  0.1287 -0.2250  0.2761
 7232SOL    HW127659  10.763   4.209   6.395  0.0353  0.0319  0.9351
 7232SOL    HW227660  10.897   4.278   6.405 -0.4565  0.8254  2.1319
 7233SOL     OW27661   8.974   0.598   4.796  0.2425  0.5598  0.1278
 7233SOL    HW127662   8.980   0.658   4.722 -0.0845  1.0090  0.4622
 7233SOL    HW227663   8.988   0.653   4.873  1.2366 -0.0177  0.3719
 7234SOL     OW27664   0.602   9.858   3.946 -0.0548 -0.4744 -0.2051
 7234SOL    HW127665   0.654   9.797   3.893  0.9036 -0.3979  0.6209
 7234SOL    HW227666   0.662   9.888   4.014 -1.0868 -0.1100  0.5706
 7235SOL     OW27667   4.172   4.870   6.533  0.3947  0.0810  0.6862
 7235SOL    HW127668   4.204   4.807   6.598  1.3747  0.8872  1.0191
 7235SOL    HW227669   4.117   4.930   6.584 -0.8041 -0.6659  0.3111
 7236SOL     OW27670  10.898   2.064  10.138 -0.0311  0.5561 -0.4186
 7236SOL    HW127671  10.909   2.084  10.045  0.1107 -1.0674 -0.7704
 7236SOL    HW227672  10.939   1.979  10.150 -1.1436  0.1580  0.8734
 7237SOL     OW27673   1.425   4.486   6.586  0.3877  0.6244 -0.4798
 7237SOL    HW127674   1.373   4.559   6.621  0.6550 -0.3259  2.0682
 7237SOL    HW227675   1.506   4.488   6.636 -0.3781 -2.5818  1.1573
 7238SOL     OW27676  10.118   7.814   7.201  0.1443  0.3475  1.0897
 7238SOL    HW127677  10.165   7.851   7.275 -0.4283 -0.7465  2.0316
 7238SOL    HW227678  10.026   7.826   7.222 -0.0587  1.6730 -0.3309
 7239SOL     OW27679   3.590   4.289   5.793  0.5799 -0.1869  0.1882
 7239SOL    HW127680   3.514   4.330   5.836 -0.1290 -0.0573 -1.1277
 7239SOL    HW227681   3.562   4.200   5.774 -0.3095  0.5890 -2.6652
 7240SOL     OW27682   8.782   4.837  10.318 -0.0866  0.4680 -0.0523
 7240SOL    HW127683   8.781   4.883  10.234  1.0822  1.3621  0.3936
 7240SOL    HW227684   8.854   4.775  10.311  0.2958  0.8539  0.4471
 7241SOL     OW27685   6.901  12.325   9.442  0.4304  0.1816 -0.3894
 7241SOL    HW127686   6.886  12.418   9.424 -0.1971  0.1079 -0.2712
 7241SOL    HW227687   6.890  12.317   9.537 -0.1236 -0.1135 -0.4700
 7242SOL     OW27688   3.477   9.612  11.685  0.6749  0.1603 -0.2342
 7242SOL    HW127689   3.408   9.573  11.631 -0.0090  3.5418 -2.1005
 7242SOL    HW227690   3.555   9.609  11.630  0.6069  1.3146 -0.4160
 7243SOL     OW27691  11.513  10.162  10.219 -0.0828  0.3085  0.0642
 7243SOL    HW127692  11.594  10.145  10.170  0.5601 -1.0408  1.4942
 7243SOL    HW227693  11.543  10.206  10.298 -0.8106  0.2284  0.3836
 7244SOL     OW27694   7.822   1.228   0.180  0.0601 -0.0956  0.4888
 7244SOL    HW127695   7.733   1.262   0.188 -0.3678 -1.2744  0.9856
 7244SOL    HW227696   7.825   1.191   0.092  0.5393  1.1975 -0.0681
 7245SOL     OW27697   0.006  12.307   4.013  0.4294  0.3744 -0.2527
 7245SOL    HW127698   0.069  12.272   3.951  0.7753  0.4234  0.0714
 7245SOL    HW227699  -0.077  12.306   3.965  1.2162  3.6166 -1.9773
 7246SOL     OW27700  10.444   8.286   5.699  0.1906  0.6668  0.0504
 7246SOL    HW127701  10.398   8.244   5.771  1.9196  0.7168  1.2333
 7246SOL    HW227702  10.377   8.341   5.657 -1.2484 -0.6089  0.5697
 7247SOL     OW27703   3.975   2.295  10.527 -0.0684 -0.2438 -0.1910
 7247SOL    HW127704   3.904   2.282  10.464  0.0283  1.4445 -0.7136
 7247SOL    HW227705   4.055   2.295  10.473 -0.0753  2.4208 -0.3352
 7248SOL     OW27706   8.171  10.546   0.054  0.3745 -0.0171 -0.1051
 7248SOL    HW127707   8.121  10.614   0.009  0.7425  2.1145  2.4339
 7248SOL    HW227708   8.261  10.561   0.026  0.3436 -0.0318 -0.2157
 7249SOL     OW27709   9.636   1.551   0.040  1.1690 -0.2526  0.0410
 7249SOL    HW127710   9.657   1.500  -0.038  0.2122  0.9702 -1.0612
 7249SOL    HW227711   9.710   1.611   0.051  2.0288 -1.4464  1.0078
 7250SOL     OW27712   7.020   8.621   7.634  0.3188  0.4851 -0.5272
 7250SOL    HW127713   7.062   8.537   7.651 -1.6419 -0.2167  1.2149
 7250SOL    HW227714   6.953   8.629   7.702  1.1541  3.9669  0.0838
 7251SOL     OW27715   4.469   1.861   0.286  0.2882 -0.0678 -0.1053
 7251SOL    HW127716   4.449   1.952   0.305  0.8084  0.1768 -0.7135
 7251SOL    HW227717   4.564   1.857   0.282  0.2784 -0.6823  0.1127
 7252SOL     OW27718   6.774   2.834   3.286 -0.0772  0.2464  0.4198
 7252SOL    HW127719   6.798   2.756   3.336 -0.4024 -1.3777 -1.8118
 7252SOL    HW227720   6.728   2.800   3.209  0.2649  2.6208 -0.9302
 7253SOL     OW27721  10.418   8.203  12.442 -0.1521  0.1600  0.0559
 7253SOL    HW127722  10.361   8.267  12.485 -0.8655 -0.6001  0.2557
 7253SOL    HW227723  10.463   8.158  12.514 -1.5510 -1.3027  0.0721
 7254SOL     OW27724   0.366   2.956   1.905  0.3439 -0.1268 -0.2452
 7254SOL    HW127725   0.353   2.881   1.847  0.1855 -1.3329  1.2909
 7254SOL    HW227726   0.461   2.959   1.918  0.3583 -0.0003 -0.3770
 7255SOL     OW27727   2.713   8.388   3.970  0.1912 -0.2876 -0.3503
 7255SOL    HW127728   2.701   8.319   4.035 -0.8151 -0.7030 -0.9490
 7255SOL    HW227729   2.673   8.465   4.010  1.4542  0.0133  0.3841
 7256SOL     OW27730  10.837   1.116   5.187 -0.1896  0.7429 -0.0947
 7256SOL    HW127731  10.927   1.108   5.155 -0.1896  0.1034  0.0418
 7256SOL    HW227732  10.788   1.049   5.139 -0.6802  1.3434 -0.4509
 7257SOL     OW27733   7.974   7.083   8.148  0.5769  0.2448 -0.7815
 7257SOL    HW127734   7.985   7.164   8.198  0.8367 -0.9853  1.2920
 7257SOL    HW227735   7.971   7.014   8.215 -1.1857 -1.3379 -2.3509
 7258SOL     OW27736   7.804  11.675   0.132 -0.2136 -0.9983 -0.2186
 7258SOL    HW127737   7.736  11.730   0.094  1.3422  1.2226 -0.0150
 7258SOL    HW227738   7.850  11.638   0.057  1.9453  2.2277 -0.6985
 7259SOL     OW27739  11.739   7.803   3.639 -0.2995 -0.3155 -0.7110
 7259SOL    HW127740  11.662   7.757   3.674 -0.3800 -0.0638 -0.5575
 7259SOL    HW227741  11.745   7.773   3.548  1.1091 -2.5668  0.0419
 7260SOL     OW27742   5.297  10.217   7.403 -0.2139 -0.1495  0.5173
 7260SOL    HW127743   5.286  10.174   7.318 -3.1230  0.4907  0.4532
 7260SOL    HW227744   5.303  10.145   7.466  0.3345 -0.6267 -0.0729
 7261SOL     OW27745   3.340   5.940   1.999  0.5831 -0.0358  0.0005
 7261SOL    HW127746   3.354   6.021   1.950  2.6556  0.7066  1.7065
 7261SOL    HW227747   3.259   5.955   2.047  0.0181  0.3064 -1.0203
 7262SOL     OW27748  11.761   4.741   0.392 -0.3709  0.4262  0.4475
 7262SOL    HW127749  11.811   4.792   0.456  1.5876 -0.1983 -0.4982
 7262SOL    HW227750  11.804   4.760   0.308  0.0142 -2.1850 -0.0347
 7263SOL     OW27751   0.604   2.881  11.896  0.1369 -0.3225 -0.9641
 7263SOL    HW127752   0.636   2.850  11.811  0.8557 -0.1588 -0.7542
 7263SOL    HW227753   0.623   2.974  11.896  2.0218 -0.6743  0.2040
 7264SOL     OW27754   0.178   4.780   2.136  0.2820 -0.0892 -0.2091
 7264SOL    HW127755   0.152   4.757   2.225 -2.7425  6.1392  1.0895
 7264SOL    HW227756   0.267   4.814   2.144  0.7649 -1.3355 -0.0684
 7265SOL     OW27757   5.540  11.893  11.709 -0.2248 -0.3916 -0.1321
 7265SOL    HW127758   5.529  11.880  11.803  2.4398  1.9911  0.6562
 7265SOL    HW227759   5.551  11.988  11.699  1.2302 -0.7302 -2.6057
 7266SOL     OW27760   3.582   5.281   2.900  0.6449 -0.6972  0.8036
 7266SOL    HW127761   3.593   5.274   2.805  0.0961 -0.9049  0.7498
 7266SOL    HW227762   3.510   5.344   2.911 -0.1670 -1.6356  1.0350
 7267SOL     OW27763   5.597   7.044   3.075  0.8008 -0.0372 -0.2830
 7267SOL    HW127764   5.607   7.052   3.170  1.7771 -0.5620 -0.3308
 7267SOL    HW227765   5.681   7.010   3.045  0.4120 -0.1159 -1.3128
 7268SOL     OW27766  10.340   8.258  10.787 -0.1170  0.5312  0.1492
 7268SOL    HW127767  10.290   8.330  10.825  0.7810  2.0028 -1.3030
 7268SOL    HW227768  10.282   8.183  10.791 -1.8984  1.8273 -0.1625
 7269SOL     OW27769   7.089   4.650   2.613  0.3903  0.1906 -0.4459
 7269SOL    HW127770   7.003   4.683   2.640  1.3626  0.5630  2.6042
 7269SOL    HW227771   7.149   4.722   2.632  1.7077 -1.0033  0.0612
 7270SOL     OW27772   6.982  12.209   7.156  0.3238  0.2909  0.5977
 7270SOL    HW127773   6.963  12.119   7.132 -0.3227 -0.4435  3.5021
 7270SOL    HW227774   7.057  12.233   7.102  1.3565 -2.4482  0.6469
 7271SOL     OW27775   0.417   4.434   8.150 -0.2375 -0.1616 -0.2381
 7271SOL    HW127776   0.322   4.429   8.151 -0.2173 -0.9218  1.3762
 7271SOL    HW227777   0.438   4.477   8.067 -1.9126 -1.4440 -1.4105
 7272SOL     OW27778   7.533   4.774  10.207  0.2780 -0.2104  0.2622
 7272SOL    HW127779   7.544   4.866  10.231 -2.9499  0.1278  0.9486
 7272SOL    HW227780   7.523   4.775  10.112  0.0875  0.1779  0.2850
 7273SOL     OW27781  12.311  12.205   5.346 -0.2300  0.1078  0.3180
 7273SOL    HW127782  12.325  12.143   5.274 -0.4742 -1.1821  1.3616
 7273SOL    HW227783  12.216  12.211   5.355 -0.2530 -2.0663  2.4327
 7274SOL     OW27784   9.234   1.275  11.010 -0.0386 -0.2598 -0.3248
 7274SOL    HW127785   9.294   1.211  10.970  2.2393  0.6408  1.4041
 7274SOL    HW227786   9.252   1.357  10.965 -0.9503 -0.2291 -0.6587
 7275SOL     OW27787   1.390   2.932  11.779  0.0412 -0.5682 -0.2720
 7275SOL    HW127788   1.476   2.937  11.738 -0.3400 -1.0519 -1.1633
 7275SOL    HW227789   1.332   2.978  11.718 -0.4836 -1.0175 -0.1148
 7276SOL     OW27790  10.404   9.562  11.981 -0.1189  0.3095 -0.5864
 7276SOL    HW127791  10.436   9.533  12.066  0.5437  0.7308 -0.6822
 7276SOL    HW227792  10.309   9.561  11.990 -0.1170 -1.5376 -0.4889
 7277SOL     OW27793   7.648   7.586   8.975  0.1361 -0.1909  0.2059
 7277SOL    HW127794   7.713   7.544   9.031 -1.8806 -2.0613  1.2956
 7277SOL    HW227795   7.602   7.514   8.933 -0.3562  1.1129 -1.5963
 7278SOL     OW27796   5.281   6.737   8.428  0.1152 -0.2835  0.1597
 7278SOL    HW127797   5.352   6.731   8.492  1.5053  2.2978 -0.9541
 7278SOL    HW227798   5.222   6.803   8.464 -0.3719 -0.5666 -0.1113
 7279SOL     OW27799  10.330   1.801   5.278 -0.2556  0.1928 -0.1511
 7279SOL    HW127800  10.381   1.760   5.208 -0.9536 -1.5673  0.3303
 7279SOL    HW227801  10.370   1.770   5.359 -2.0783 -1.3250  0.2427
 7280SOL     OW27802   9.468   4.228   4.064  0.4256  0.1475 -0.0526
 7280SOL    HW127803   9.434   4.170   4.133 -1.4482  0.8394 -0.3338
 7280SOL    HW227804   9.493   4.168   3.993  0.4413 -0.4361  0.4330
 7281SOL     OW27805   5.553  12.016   5.063 -0.0176  0.0821  0.3955
 7281SOL    HW127806   5.644  12.041   5.050 -0.0016 -0.8226 -1.6223
 7281SOL    HW227807   5.552  11.921   5.053 -1.2211  0.1142  0.0124
 7282SOL     OW27808   8.013   3.781  10.121 -0.3278  0.1125 -0.1177
 7282SOL    HW127809   7.973   3.730  10.191  0.9515 -1.4065 -0.4327
 7282SOL    HW227810   8.066   3.718  10.072  2.7245  1.9971  0.4721
 7283SOL     OW27811   1.400   3.888   6.478  0.0037  0.2310  0.4057
 7283SOL    HW127812   1.340   3.900   6.404 -0.6285  0.0093  0.8756
 7283SOL    HW227813   1.480   3.854   6.438  0.1884  1.4966 -0.3532
 7284SOL     OW27814   5.298   1.957   0.855 -0.0851  0.4740  0.3818
 7284SOL    HW127815   5.302   1.907   0.936 -0.6716  1.1252  0.8230
 7284SOL    HW227816   5.207   1.950   0.826  0.5252 -1.3405 -1.2609
 7285SOL     OW27817   3.231   9.280   1.738  0.2754 -0.4216 -0.4424
 7285SOL    HW127818   3.263   9.211   1.795 -1.5893 -0.6829  0.3493
 7285SOL    HW227819   3.138   9.288   1.759  0.5541  2.9469  0.1874
 7286SOL     OW27820   3.690   1.322   0.377  0.2677  0.4583  0.2000
 7286SOL    HW127821   3.689   1.293   0.286 -1.9158  0.6261  0.1082
 7286SOL    HW227822   3.601   1.306   0.409  0.7774  1.0589  2.0974
 7287SOL     OW27823   0.767  10.517   9.001  0.1235  0.2812 -0.0766
 7287SOL    HW127824   0.853  10.476   8.996 -0.1424 -0.2449 -0.3965
 7287SOL    HW227825   0.720  10.466   9.068  0.4298  1.2761  0.9395
 7288SOL     OW27826   9.521   2.403  10.712  0.4703 -0.1153  0.4774
 7288SOL    HW127827   9.617   2.408  10.704  0.4433  1.3789  0.8492
 7288SOL    HW227828   9.493   2.494  10.716 -1.3868 -0.1445 -4.3615
 7289SOL     OW27829   7.468   7.248   2.008 -0.4832  0.0595 -0.1876
 7289SOL    HW127830   7.456   7.328   1.957  1.6741  1.8438  1.8868
 7289SOL    HW227831   7.412   7.183   1.965 -0.5756  2.0390 -3.3280
 7290SOL     OW27832   3.685   0.728   6.970  0.0498 -0.5455 -0.2127
 7290SOL    HW127833   3.659   0.636   6.977  0.7467 -0.6810  0.8830
 7290SOL    HW227834   3.603   0.777   6.983 -0.4437 -0.9988 -1.4608
 7291SOL     OW27835   8.298   3.375   3.221  0.3170 -0.3398 -0.2445
 7291SOL    HW127836   8.347   3.349   3.143 -0.8478  0.0970 -1.1457
 7291SOL    HW227837   8.209   3.346   3.204  0.2084 -1.0669  1.3442
 7292SOL     OW27838   4.731   9.580   6.701  0.1258  0.1627 -0.1688
 7292SOL    HW127839   4.672   9.646   6.665 -0.9408 -0.7779 -0.2140
 7292SOL    HW227840   4.743   9.518   6.629 -1.9933 -1.7167  0.9664
 7293SOL     OW27841   6.882   7.808  10.181 -0.5755  0.6875  0.0412
 7293SOL    HW127842   6.833   7.730  10.155  5.7687 -3.9810 -0.2735
 7293SOL    HW227843   6.896   7.856  10.099 -1.7410  0.3523 -0.3735
 7294SOL     OW27844  11.659  11.715  12.072  0.1446 -0.2501  0.3939
 7294SOL    HW127845  11.610  11.788  12.111  0.1825 -1.1043  2.1654
 7294SOL    HW227846  11.628  11.711  11.982  1.4234  3.0294 -0.3221
 7295SOL     OW27847   1.109   1.086   0.643  0.0937 -0.1697  0.2311
 7295SOL    HW127848   1.017   1.092   0.617  0.5219  1.0471 -1.1290
 7295SOL    HW227849   1.108   1.034   0.723 -1.9248  0.9135  0.9777
 7296SOL     OW27850   5.668   6.692  11.966  0.6409  0.0305 -0.9303
 7296SOL    HW127851   5.663   6.687  11.870  1.0515  1.2771 -1.0346
 7296SOL    HW227852   5.756   6.662  11.987  0.6201 -0.0484 -0.9553
 7297SOL     OW27853   8.348   9.218   0.544 -0.1510 -0.1676 -0.3210
 7297SOL    HW127854   8.430   9.174   0.566  0.4804  0.8398 -0.5908
 7297SOL    HW227855   8.299   9.218   0.627  1.0653  1.1797  0.4479
 7298SOL     OW27856   5.995   0.227   0.697 -0.2841  0.1348  0.2720
 7298SOL    HW127857   6.014   0.274   0.778  1.1669 -0.9113  0.5772
 7298SOL    HW227858   5.929   0.163   0.721 -2.0636  1.7489 -0.0813
 7299SOL     OW27859   2.190   6.475  11.746 -0.3262  0.1287  0.5192
 7299SOL    HW127860   2.241   6.415  11.800  0.8454  0.5047 -0.1423
 7299SOL    HW227861   2.252   6.507  11.680 -2.0097 -1.3958 -1.9706
 7300SOL     OW27862   2.609   3.931   7.481  0.1430  0.2976  0.7450
 7300SOL    HW127863   2.666   3.875   7.533  0.7122 -0.6659 -0.8334
 7300SOL    HW227864   2.665   3.960   7.408 -1.3729 -0.7661 -0.9181
 7301SOL     OW27865   1.353   5.156   5.174 -0.2594 -0.4947 -0.4960
 7301SOL    HW127866   1.321   5.122   5.090 -0.3121  1.0653 -1.1435
 7301SOL    HW227867   1.436   5.198   5.152  0.1016 -0.7396  0.3905
 7302SOL     OW27868  10.733  10.161   0.803  0.2668 -0.1887 -0.3329
 7302SOL    HW127869  10.817  10.204   0.816  0.1745 -0.1493  0.1537
 7302SOL    HW227870  10.720  10.110   0.882  1.2289 -2.5721 -1.5971
 7303SOL     OW27871   0.295   3.307  11.955 -0.7225 -0.9605  0.7169
 7303SOL    HW127872   0.364   3.314  12.021  0.8559 -0.2504 -0.8884
 7303SOL    HW227873   0.257   3.395  11.951 -2.3020 -1.5388  2.1271
 7304SOL     OW27874  12.473  11.548   9.624 -0.1962 -0.0739  0.2356
 7304SOL    HW127875  12.473  11.531   9.530  1.7637  0.3880  0.1000
 7304SOL    HW227876  12.429  11.633   9.633  1.6087  1.0180 -0.5757
 7305SOL     OW27877   0.568   0.544   6.992  0.0115 -0.0743  0.1230
 7305SOL    HW127878   0.549   0.583   7.077 -2.4086  0.2975 -0.5096
 7305SOL    HW227879   0.558   0.450   7.006 -1.4523  0.0526  0.0454
 7306SOL     OW27880   2.546  11.890  10.075  0.1360 -0.6285 -0.2153
 7306SOL    HW127881   2.555  11.930   9.988 -0.9288 -0.4962 -0.2794
 7306SOL    HW227882   2.455  11.907  10.100  0.3552 -0.9050  0.8143
 7307SOL     OW27883   1.466   2.785  10.991 -0.2646  0.4000 -0.1176
 7307SOL    HW127884   1.536   2.825  11.043  1.8010 -2.0682 -0.7244
 7307SOL    HW227885   1.385   2.819  11.028  1.2231  3.1008  0.9185
 7308SOL     OW27886   1.412  11.371   5.494 -0.0949 -0.2820  0.4652
 7308SOL    HW127887   1.336  11.416   5.532 -1.4294 -3.0448  1.2896
 7308SOL    HW227888   1.448  11.435   5.432 -1.8860  1.8646  1.4590
 7309SOL     OW27889   4.209   7.739   3.014 -0.9390 -0.5185 -0.2451
 7309SOL    HW127890   4.209   7.661   3.070 -0.9288 -0.1785  0.2402
 7309SOL    HW227891   4.250   7.711   2.933 -0.3731 -0.8589  0.1526
 7310SOL     OW27892   8.343   1.603  11.361  0.4268  0.7756  0.1434
 7310SOL    HW127893   8.281   1.602  11.289  1.0628  0.5165 -0.4082
 7310SOL    HW227894   8.352   1.511  11.386  0.0068  0.8880  0.7393
 7311SOL     OW27895   7.678   3.787   7.805  0.0647  0.0089 -0.7719
 7311SOL    HW127896   7.706   3.865   7.757  1.2418  0.7411  0.9784
 7311SOL    HW227897   7.728   3.715   7.766  1.0102  0.5862 -0.6693
 7312SOL     OW27898   0.798  10.226   7.099 -0.1715  0.6617 -0.3727
 7312SOL    HW127899   0.719  10.254   7.052 -1.3177  1.0246  1.6350
 7312SOL    HW227900   0.849  10.306   7.109 -0.2592  0.7229 -0.4097
 7313SOL     OW27901  11.890   8.132   7.142 -0.0647  0.2310 -0.3633
 7313SOL    HW127902  11.892   8.118   7.047  0.4166 -0.7285 -0.2251
 7313SOL    HW227903  11.975   8.173   7.161 -0.2438  0.6055 -0.3734
 7314SOL     OW27904   1.814   7.949   8.712  0.4965  0.0001 -0.2620
 7314SOL    HW127905   1.829   7.876   8.652  2.8238 -0.7317  1.1009
 7314SOL    HW227906   1.758   7.913   8.781  0.2719  0.0027 -0.4389
 7315SOL     OW27907   8.387   7.362  12.164 -0.5114 -0.5051 -0.5318
 7315SOL    HW127908   8.395   7.407  12.080 -0.9800 -1.1794 -0.9439
 7315SOL    HW227909   8.389   7.433  12.229 -1.0446  0.1030 -1.1583
 7316SOL     OW27910   9.009   8.598  11.089  0.3115  0.1338  0.4751
 7316SOL    HW127911   9.022   8.518  11.037  1.6732 -0.5565  1.8123
 7316SOL    HW227912   9.068   8.662  11.049  0.2791  0.0383  0.2730
 7317SOL     OW27913   1.186   5.917  11.620 -0.3812 -0.3276  0.2321
 7317SOL    HW127914   1.152   5.912  11.531  0.2342  1.1467 -0.1118
 7317SOL    HW227915   1.224   5.830  11.636  0.4094 -0.3052 -1.3259
 7318SOL     OW27916   8.644   5.853   0.213  0.1433  0.2252 -0.1699
 7318SOL    HW127917   8.642   5.906   0.134  0.4625  0.4984  0.0019
 7318SOL    HW227918   8.573   5.888   0.268  0.1659  0.2813 -0.1770
 7319SOL     OW27919  11.494  11.018   2.945  0.6063 -0.1709  0.0753
 7319SOL    HW127920  11.452  10.936   2.970  0.9516 -0.4143 -0.1325
 7319SOL    HW227921  11.552  11.038   3.018  0.5745 -0.1460  0.0937
 7320SOL     OW27922   7.281   6.394   3.129 -0.3887  0.0829  0.6849
 7320SOL    HW127923   7.333   6.375   3.208 -0.0637 -1.5715  0.1054
 7320SOL    HW227924   7.286   6.314   3.077 -0.1397  1.3075 -1.2918
 7321SOL     OW27925   8.410   5.023  10.142 -0.0342  0.0855 -0.1487
 7321SOL    HW127926   8.333   5.065  10.181 -0.7390 -1.1633 -0.1470
 7321SOL    HW227927   8.389   5.018  10.048  0.0595 -0.2020 -0.1560
 7322SOL     OW27928   5.881   5.167   8.392 -0.5689 -0.9250 -0.1531
 7322SOL    HW127929   5.972   5.195   8.396 -0.8641  0.2626 -0.9404
 7322SOL    HW227930   5.858   5.145   8.483 -0.6947  2.9219  0.9405
 7323SOL     OW27931   4.301  10.589   2.638 -0.0122  0.7648  0.4396
 7323SOL    HW127932   4.312  10.521   2.571 -0.0862  0.3259  0.8662
 7323SOL    HW227933   4.210  10.617   2.630 -0.2253  0.1946  0.8381
 7324SOL     OW27934   0.724   4.316   9.774 -0.1845 -0.2041 -0.1987
 7324SOL    HW127935   0.778   4.394   9.784  0.2481 -0.7391  2.2243
 7324SOL    HW227936   0.670   4.313   9.853 -0.5099 -2.0941 -0.4374
 7325SOL     OW27937   3.019   9.320  12.469  0.1069 -0.0150 -0.2656
 7325SOL    HW127938   3.051   9.397  12.422  2.2924 -1.5928 -1.5605
 7325SOL    HW227939   3.092   9.258  12.466 -0.9707 -1.5611  2.1477
 7326SOL     OW27940   0.127  12.469   1.911  0.4314  0.0398  0.0924
 7326SOL    HW127941   0.189  12.475   1.984 -0.9284 -2.2936  1.5849
 7326SOL    HW227942   0.043  12.448   1.953 -0.4954 -0.9789 -2.0978
 7327SOL     OW27943  11.319  10.993   4.368  0.6339  0.0960  0.2659
 7327SOL    HW127944  11.352  10.904   4.380  0.4257 -0.0487 -0.1776
 7327SOL    HW227945  11.397  11.045   4.350  0.8120  0.1000  1.0285
 7328SOL     OW27946   8.726   7.866   9.482 -0.1789  0.1400 -0.0439
 7328SOL    HW127947   8.802   7.854   9.540  1.6179 -1.6453 -2.5465
 7328SOL    HW227948   8.758   7.842   9.395 -3.1054  1.3465 -1.5964
 7329SOL     OW27949   6.436   0.155   0.438 -0.4997 -0.3949 -0.4220
 7329SOL    HW127950   6.343   0.164   0.458 -0.2572 -0.2143  0.6474
 7329SOL    HW227951   6.469   0.094   0.504  0.3545  0.3516 -0.1408
 7330SOL     OW27952   2.259   9.779   1.295 -0.6436  0.7758  0.0994
 7330SOL    HW127953   2.318   9.775   1.220 -0.9415  1.6357 -0.1877
 7330SOL    HW227954   2.260   9.690   1.331 -2.1622 -0.2683 -2.2000
 7331SOL     OW27955   5.313   7.534  11.841  0.6417 -0.2791 -0.2041
 7331SOL    HW127956   5.365   7.508  11.765  1.1303 -2.4412  0.7886
 7331SOL    HW227957   5.282   7.451  11.878 -0.3017  0.7600  1.4730
 7332SOL     OW27958   3.333   0.176  12.070  0.1166  0.1441 -0.0874
 7332SOL    HW127959   3.381   0.097  12.096  0.7010  0.6826  0.5067
 7332SOL    HW227960   3.279   0.147  11.996  0.4689 -0.7639 -0.0110
 7333SOL     OW27961   8.767   3.057   5.913 -0.2575  0.4548 -0.3934
 7333SOL    HW127962   8.791   3.029   6.002 -0.0274  0.2410 -0.5197
 7333SOL    HW227963   8.729   2.979   5.873 -0.0481  0.4539 -0.5943
 7334SOL     OW27964   1.385  10.557  10.482  0.1416  0.0453 -0.0293
 7334SOL    HW127965   1.390  10.636  10.429 -0.2180 -0.0153 -0.1627
 7334SOL    HW227966   1.468  10.512  10.467 -1.0372 -1.4764 -2.9759
 7335SOL     OW27967  10.878   0.836   2.490  0.2748 -0.0766 -0.1508
 7335SOL    HW127968  10.805   0.801   2.540  0.5903 -1.1664 -0.4199
 7335SOL    HW227969  10.886   0.778   2.414  1.4792 -0.0518 -0.0751
 7336SOL     OW27970  11.855  12.378   5.091  0.3790  0.5521  0.3037
 7336SOL    HW127971  11.883  12.378   5.000 -0.8502  0.2963 -0.0932
 7336SOL    HW227972  11.769  12.336   5.090  0.1742  0.8952  1.5187
 7337SOL     OW27973   9.203   4.642   0.574 -0.0570 -0.3182  0.0380
 7337SOL    HW127974   9.130   4.663   0.632  0.3378 -3.0142  1.6652
 7337SOL    HW227975   9.254   4.577   0.621  0.0990 -3.0097 -3.3936
 7338SOL     OW27976   9.464   2.203  10.077  0.4597  0.0439  0.5252
 7338SOL    HW127977   9.519   2.279  10.094  1.4785 -0.1828 -1.4715
 7338SOL    HW227978   9.374   2.237  10.076  0.5341  0.5387  3.1006
 7339SOL     OW27979   7.492   1.985   6.225 -0.0084 -0.2448 -0.4579
 7339SOL    HW127980   7.546   2.032   6.289 -0.6067 -1.4649  1.0217
 7339SOL    HW227981   7.413   1.959   6.274 -0.6091 -1.0194 -1.7583
 7340SOL     OW27982   9.531   8.483   3.080  0.1896  0.0939  0.3849
 7340SOL    HW127983   9.609   8.440   3.043  0.3730  2.2153 -1.9388
 7340SOL    HW227984   9.468   8.485   3.008 -1.0408  0.7798  1.4388
 7341SOL     OW27985  11.594   0.464  10.840 -0.5186  0.4942 -0.5004
 7341SOL    HW127986  11.554   0.405  10.903  0.3798  0.0045 -0.3706
 7341SOL    HW227987  11.604   0.411  10.761  1.3707  0.0700 -0.0243
 7342SOL     OW27988   2.827   2.618  11.127  0.2604  0.0737 -0.1385
 7342SOL    HW127989   2.837   2.538  11.075 -0.8608  0.4111 -0.9101
 7342SOL    HW227990   2.911   2.628  11.172  0.0285 -2.1275  0.8562
 7343SOL     OW27991  11.279   3.895   7.558 -0.2097  0.0739 -0.9229
 7343SOL    HW127992  11.243   3.971   7.605 -0.3694  0.5392 -1.7840
 7343SOL    HW227993  11.331   3.850   7.624 -0.1542  0.9026 -0.3754
 7344SOL     OW27994   0.820   1.564   5.851  0.1932 -0.0304 -0.1293
 7344SOL    HW127995   0.783   1.585   5.765 -0.0592 -1.5890 -0.4397
 7344SOL    HW227996   0.776   1.482   5.876  0.1739  0.4721  1.5485
 7345SOL     OW27997   3.756   1.599   4.280  0.0285 -0.2428  0.7483
 7345SOL    HW127998   3.745   1.693   4.298  0.3651 -0.2555  1.0310
 7345SOL    HW227999   3.725   1.555   4.359 -0.1881 -0.3741  0.5916
 7346SOL     OW28000   0.647   5.275   9.624 -0.1196 -0.0078 -0.3414
 7346SOL    HW128001   0.719   5.236   9.575  0.4644  0.5782  0.0338
 7346SOL    HW228002   0.652   5.368   9.603 -1.3099 -0.0736 -0.9977
 7347SOL     OW28003   0.520   4.311   9.951 -0.4859 -0.0026 -0.3428
 7347SOL    HW128004   0.455   4.277  10.013 -1.7477  1.7082 -0.6838
 7347SOL    HW228005   0.474   4.316   9.868  0.3709  0.3333 -0.8029
 7348SOL     OW28006   9.725  11.024   0.825  0.8734 -0.1426 -0.5953
 7348SOL    HW128007   9.741  11.014   0.731  0.2158 -1.0827 -0.6118
 7348SOL    HW228008   9.631  11.036   0.833  0.7928 -1.0711  0.0185
 7349SOL     OW28009   3.178   1.693   7.516 -0.2034  0.0614  0.6343
 7349SOL    HW128010   3.259   1.729   7.479 -0.2916  0.0499  0.4294
 7349SOL    HW228011   3.120   1.682   7.441  0.2389 -1.6361  0.5061
 7350SOL     OW28012   7.626   5.546   0.420  0.1689  0.4114 -0.1362
 7350SOL    HW128013   7.672   5.495   0.487  0.3809  0.4845 -0.2239
 7350SOL    HW228014   7.609   5.482   0.350 -0.4209  0.2393  0.1615
 7351SOL     OW28015   1.831   6.554   9.316  0.4557 -0.0013  0.5957
 7351SOL    HW128016   1.759   6.586   9.371  0.1523 -0.0358  0.2166
 7351SOL    HW228017   1.843   6.463   9.344  0.5351  0.0834  0.8450
 7352SOL     OW28018   3.012   5.730   2.527  0.1985  0.2289 -0.3781
 7352SOL    HW128019   3.105   5.745   2.510  0.4370 -0.7414  0.0073
 7352SOL    HW228020   3.010   5.662   2.594 -0.7970 -1.3527 -1.9258
 7353SOL     OW28021   8.092   3.746   8.382  0.4096  0.4660 -0.6126
 7353SOL    HW128022   8.185   3.747   8.356 -0.1330  2.6905 -2.9956
 7353SOL    HW228023   8.058   3.665   8.346  1.2075  0.1794 -0.7502
 7354SOL     OW28024   3.797   3.084   3.347 -0.6155  0.0093 -0.1719
 7354SOL    HW128025   3.774   3.130   3.266 -1.2844 -0.3549 -0.1925
 7354SOL    HW228026   3.836   3.152   3.402 -0.9095  0.4410 -0.4830
 7355SOL     OW28027   8.611   6.414   4.415 -0.2195 -0.2208  0.0926
 7355SOL    HW128028   8.692   6.461   4.393  0.5111 -1.6731 -0.4165
 7355SOL    HW228029   8.541   6.475   4.393  0.6953  0.5927 -0.6317
 7356SOL     OW28030   1.320  10.965  11.222 -0.9840  0.3638 -0.0939
 7356SOL    HW128031   1.350  10.881  11.188 -1.7348  1.0382 -2.5850
 7356SOL    HW228032   1.226  10.965  11.207 -1.6526  0.2635  3.2085
 7357SOL     OW28033  11.069   6.113   9.710  0.4589 -0.1240  0.2021
 7357SOL    HW128034  11.155   6.153   9.700 -0.3561  2.1267  1.2999
 7357SOL    HW228035  11.027   6.127   9.625  0.9206 -0.5793 -0.1049
 7358SOL     OW28036  11.845   8.403   8.709 -0.5730 -0.0385 -0.7302
 7358SOL    HW128037  11.790   8.399   8.788  0.0143 -0.2239 -0.3252
 7358SOL    HW228038  11.796   8.352   8.645 -0.7483 -0.4471 -0.2857
 7359SOL     OW28039  10.119   4.326   8.545  0.1622  0.0290 -0.3603
 7359SOL    HW128040  10.062   4.347   8.471  0.3477 -0.0833 -0.5368
 7359SOL    HW228041  10.142   4.234   8.533 -0.5843 -0.2668  0.3728
 7360SOL     OW28042   7.058  10.802   6.267 -0.4872 -0.1770  0.2189
 7360SOL    HW128043   7.113  10.745   6.213 -1.9112  0.2303 -1.7853
 7360SOL    HW228044   7.117  10.835   6.335  1.5325 -0.3832 -1.3343
 7361SOL     OW28045  12.022  11.482   2.730 -0.1065 -0.4579 -0.4547
 7361SOL    HW128046  12.048  11.431   2.807 -1.2188  0.5380  0.6311
 7361SOL    HW228047  12.097  11.539   2.713 -0.1232 -0.1671  0.3725
 7362SOL     OW28048   0.374   9.715  12.341 -0.4593 -0.0193 -0.0003
 7362SOL    HW128049   0.316   9.721  12.417 -0.9764 -2.5977 -0.0821
 7362SOL    HW228050   0.439   9.649  12.367  0.5151  0.4739 -1.1015
 7363SOL     OW28051   4.347   7.924   3.146 -0.2857  0.5093  0.5393
 7363SOL    HW128052   4.290   7.863   3.099 -0.7987  0.2069  1.5236
 7363SOL    HW228053   4.413   7.949   3.082 -0.0038 -1.1498  0.1312
 7364SOL     OW28054   0.736   6.521   2.738 -0.0113 -0.1093  0.2268
 7364SOL    HW128055   0.712   6.475   2.819  2.3882 -1.3063  0.3398
 7364SOL    HW228056   0.662   6.504   2.679 -0.6600 -1.3862  1.3443
 7365SOL     OW28057   5.443  10.007   9.607 -0.2735  0.3875  0.3085
 7365SOL    HW128058   5.438   9.978   9.698  0.3320 -1.4760 -0.2171
 7365SOL    HW228059   5.363   9.974   9.566 -0.6774  1.4541  0.2056
 7366SOL     OW28060  10.356   5.487   0.233 -0.6799 -0.2544 -0.9054
 7366SOL    HW128061  10.297   5.506   0.160 -1.1734 -0.8213 -0.6625
 7366SOL    HW228062  10.298   5.481   0.309 -0.2547 -0.4057 -0.5919
 7367SOL     OW28063   3.803   5.789   7.365  0.5606 -0.1621  0.0180
 7367SOL    HW128064   3.712   5.801   7.336  0.3063  0.8416  1.1560
 7367SOL    HW228065   3.855   5.824   7.293  0.0512 -0.5755 -0.5668
 7368SOL     OW28066   4.527   7.267   1.517 -0.0681 -0.0616 -0.5120
 7368SOL    HW128067   4.552   7.304   1.601  1.3555 -0.2398 -0.8342
 7368SOL    HW228068   4.530   7.341   1.456 -0.0233 -0.1550 -0.6230
 7369SOL     OW28069   0.832   7.475   4.219  0.3379 -0.4898 -0.2151
 7369SOL    HW128070   0.808   7.396   4.170 -1.9291 -1.0733  1.6549
 7369SOL    HW228071   0.904   7.446   4.276  2.0954 -0.1345 -2.1070
 7370SOL     OW28072   1.845   3.338   8.195  0.0665 -0.3707 -0.2497
 7370SOL    HW128073   1.913   3.270   8.194  0.0081 -0.4330 -2.0047
 7370SOL    HW228074   1.815   3.339   8.286 -0.1954 -2.9450 -0.2282
 7371SOL     OW28075   2.004  12.476   1.765  0.0438  0.0836 -0.2925
 7371SOL    HW128076   2.043  12.430   1.839  1.0180 -0.2447 -0.9787
 7371SOL    HW228077   1.940  12.416   1.729 -0.6733  0.3777  0.4767
 7372SOL     OW28078   8.275   8.678   7.977 -0.0306 -0.9370 -0.0879
 7372SOL    HW128079   8.278   8.654   8.069  0.1966 -1.9477 -0.3436
 7372SOL    HW228080   8.331   8.756   7.969 -0.5904 -0.4397  0.7295
 7373SOL     OW28081  11.510   9.012   8.037 -0.3159  0.0921  0.0745
 7373SOL    HW128082  11.488   8.924   8.006 -0.0576  0.5807 -1.5575
 7373SOL    HW228083  11.577   9.043   7.977  1.0036  0.7077  1.7754
 7374SOL     OW28084  10.248   7.899   3.068 -0.7777 -0.1231  0.1170
 7374SOL    HW128085  10.266   7.806   3.057  1.5944  0.2140  0.5992
 7374SOL    HW228086  10.237   7.911   3.162  4.5402  0.7796  0.9271
 7375SOL     OW28087   2.697   1.825   4.894  0.3111  0.0664  0.3953
 7375SOL    HW128088   2.702   1.919   4.881  1.4594 -0.0674 -0.2493
 7375SOL    HW228089   2.661   1.791   4.813  1.6872 -0.1998 -0.1388
 7376SOL     OW28090   3.439   1.904  10.466  0.3598 -0.3310  0.1903
 7376SOL    HW128091   3.435   1.905  10.562 -0.5749  2.2986  0.1857
 7376SOL    HW228092   3.424   1.994  10.440  2.8266 -0.5165 -2.4027
 7377SOL     OW28093   6.270   1.829   1.155 -0.2307  0.1878 -0.2023
 7377SOL    HW128094   6.253   1.839   1.062  1.3096 -0.3699 -0.5616
 7377SOL    HW228095   6.354   1.871   1.170 -0.9058  1.1468  1.1408
 7378SOL     OW28096   7.602   2.592   6.353 -0.0145  0.2485  0.4611
 7378SOL    HW128097   7.576   2.595   6.446 -0.4197 -0.5417  0.3828
 7378SOL    HW228098   7.688   2.550   6.355 -0.2862 -0.3231  0.4390
 7379SOL     OW28099   8.513   4.257   1.343  0.7493  0.7100 -0.0852
 7379SOL    HW128100   8.533   4.348   1.321 -0.1103  1.4120  1.7918
 7379SOL    HW228101   8.468   4.262   1.428 -0.3860 -1.3787 -0.4877
 7380SOL     OW28102   1.679   3.100   2.904 -0.0928  0.1899 -0.1865
 7380SOL    HW128103   1.742   3.050   2.852  0.2781 -0.3670  0.7619
 7380SOL    HW228104   1.715   3.188   2.908 -0.1374  0.2439 -0.8742
 7381SOL     OW28105  11.436   7.744   5.018 -0.3231  0.3573  0.0585
 7381SOL    HW128106  11.364   7.784   5.065 -0.4915 -0.3015  0.3686
 7381SOL    HW228107  11.407   7.742   4.927 -1.1725 -0.9205  0.3415
 7382SOL     OW28108   3.140   6.984  12.242 -0.0582  0.1604 -0.4288
 7382SOL    HW128109   3.052   7.014  12.264 -1.3283 -1.4997 -2.8024
 7382SOL    HW228110   3.187   6.986  12.326 -2.4329  0.7493  0.9985
 7383SOL     OW28111   0.024   6.942   7.489  0.3740  0.0571 -0.5640
 7383SOL    HW128112  -0.057   6.929   7.439 -0.3372  0.0021  0.5798
 7383SOL    HW228113  -0.001   6.929   7.580  1.9614 -1.3808 -0.2707
 7384SOL     OW28114   7.811   3.070   8.480 -0.6111  0.1293 -0.0265
 7384SOL    HW128115   7.784   3.060   8.572 -2.2712 -0.1795 -0.5154
 7384SOL    HW228116   7.886   3.130   8.484 -0.1870 -0.4434  1.5830
 7385SOL     OW28117   0.144   7.289   9.015 -0.5099  0.3436 -0.2981
 7385SOL    HW128118   0.106   7.210   9.053 -0.4077  0.8270  0.8663
 7385SOL    HW228119   0.223   7.305   9.067  0.2734  0.4035 -1.4727
 7386SOL     OW28120   3.666   8.178   4.977  0.0224  0.8547  0.1388
 7386SOL    HW128121   3.729   8.123   4.930 -0.8868 -0.0981 -0.0170
 7386SOL    HW228122   3.589   8.179   4.920 -0.5186  1.0198  0.8683
 7387SOL     OW28123   2.603   6.430   1.705 -0.2414 -0.0853  0.2533
 7387SOL    HW128124   2.611   6.335   1.697 -0.4752 -0.0715 -0.2112
 7387SOL    HW228125   2.676   6.465   1.654 -0.7084 -0.0136 -0.3922
 7388SOL     OW28126   3.448   7.178  11.137  0.2008 -0.0696 -0.7358
 7388SOL    HW128127   3.513   7.249  11.134 -1.2876  1.3859 -0.2432
 7388SOL    HW228128   3.498   7.099  11.121  2.0083  1.0543 -0.9237
 7389SOL     OW28129   6.289   9.227  11.381  0.4954  0.4030  0.0919
 7389SOL    HW128130   6.247   9.176  11.312 -0.6583 -0.0559  1.0896
 7389SOL    HW228131   6.331   9.163  11.438  1.9963  0.8187 -0.5144
 7390SOL     OW28132   6.469   8.195   6.755 -0.3590 -0.1191  0.0405
 7390SOL    HW128133   6.386   8.165   6.720  0.3687 -0.9108 -1.0805
 7390SOL    HW228134   6.516   8.229   6.679  0.4377  0.1108  0.6181
 7391SOL     OW28135   0.444  11.366   9.882  0.1298  0.1712 -0.0066
 7391SOL    HW128136   0.498  11.445   9.885 -0.5675  0.6383  1.4403
 7391SOL    HW228137   0.366  11.392   9.833  1.5690 -0.8204 -3.1148
 7392SOL     OW28138   5.596   7.608   2.143 -0.3758  0.3921 -0.5825
 7392SOL    HW128139   5.672   7.557   2.113 -0.6865  0.3833 -1.3652
 7392SOL    HW228140   5.544   7.622   2.065 -0.9751  0.7696 -0.1230
 7393SOL     OW28141   3.889   5.005   4.284  0.3340 -0.1261  0.5067
 7393SOL    HW128142   3.865   4.913   4.299 -0.1005 -0.0609  0.2051
 7393SOL    HW228143   3.836   5.054   4.347 -0.3738  0.0237 -0.2016
 7394SOL     OW28144   5.499   8.685  10.727 -0.7927  0.4871 -0.1363
 7394SOL    HW128145   5.462   8.699  10.640 -1.0973  0.9218  0.0642
 7394SOL    HW228146   5.593   8.696  10.715 -0.6156 -1.3063 -0.7912
 7395SOL     OW28147  10.122   5.485  11.813  0.6717  0.2542 -0.3620
 7395SOL    HW128148  10.068   5.445  11.880 -0.8085  1.9296 -0.4727
 7395SOL    HW228149  10.075   5.564  11.788  2.1853  0.7339 -1.9438
 7396SOL     OW28150   2.608   9.072   8.199 -0.3325  0.0739  0.0140
 7396SOL    HW128151   2.657   8.990   8.213  1.7358  1.2002 -0.1715
 7396SOL    HW228152   2.521   9.043   8.173  0.0465 -2.0672  0.8949
 7397SOL     OW28153   6.463   9.200   9.736  0.1785 -0.4974 -0.2583
 7397SOL    HW128154   6.554   9.215   9.710  0.1698  0.3187  0.1338
 7397SOL    HW228155   6.470   9.154   9.819  0.2415 -0.2169 -0.1055
 7398SOL     OW28156   0.675   4.144  10.666  0.7625  0.1627 -0.0497
 7398SOL    HW128157   0.653   4.213  10.604 -1.0844 -1.0342 -0.8359
 7398SOL    HW228158   0.656   4.181  10.752  0.3019  0.8187 -0.4279
 7399SOL     OW28159  11.876   2.014   8.684  0.0758  0.3020 -0.4893
 7399SOL    HW128160  11.889   2.106   8.660  0.2270  0.3160 -0.3558
 7399SOL    HW228161  11.781   2.003   8.687  0.0545  0.3836 -0.7776
 7400SOL     OW28162  11.591  11.411   5.016  0.3556  0.7917 -0.3305
 7400SOL    HW128163  11.679  11.419   5.054  1.4035 -1.7605 -2.0240
 7400SOL    HW228164  11.567  11.320   5.031 -2.9601  1.8281  1.8406
 7401SOL     OW28165   1.180   5.975  10.188 -0.0752 -0.0801 -0.3318
 7401SOL    HW128166   1.134   5.891  10.187  0.3323 -0.3502 -2.5877
 7401SOL    HW228167   1.270   5.953  10.212 -0.5926  0.1595  1.9919
 7402SOL     OW28168   5.237  10.342   5.923 -0.3592  0.1679  0.7635
 7402SOL    HW128169   5.187  10.303   5.994  2.8335 -0.7657  2.6852
 7402SOL    HW228170   5.285  10.269   5.884  0.5917  1.1846 -0.0427
 7403SOL     OW28171   7.396   1.443   1.742 -0.3171 -0.3133 -0.6329
 7403SOL    HW128172   7.357   1.502   1.677  0.8871  1.3166  0.0659
 7403SOL    HW228173   7.331   1.373   1.752 -1.0139 -0.0476 -2.7735
 7404SOL     OW28174   4.868   4.954   7.741 -0.4034  0.4259  0.2520
 7404SOL    HW128175   4.816   5.031   7.764  0.6469  1.2837 -0.1749
 7404SOL    HW228176   4.916   4.979   7.662  2.3001  0.5044  1.7778
 7405SOL     OW28177   6.131   8.583  12.256  0.1372  0.4416 -0.0573
 7405SOL    HW128178   6.071   8.508  12.258  0.4469  0.1980  0.3204
 7405SOL    HW228179   6.094   8.645  12.319 -0.7368  1.1038 -1.1802
 7406SOL     OW28180  12.064   4.689   7.871 -0.0447 -0.3748  0.1083
 7406SOL    HW128181  12.059   4.594   7.881 -0.5800 -0.4451 -0.7465
 7406SOL    HW228182  12.123   4.703   7.796  0.9521  0.0192  0.9278
 7407SOL     OW28183   8.188   8.649  10.467  0.1198  0.6254  0.1692
 7407SOL    HW128184   8.246   8.665  10.393  0.0939 -0.4100 -0.0958
 7407SOL    HW228185   8.219   8.709  10.535  0.1006  1.6446 -0.6864
 7408SOL     OW28186   8.634   8.406  11.456 -0.1103  0.2198  0.4022
 7408SOL    HW128187   8.727   8.397  11.474  0.0429  1.1505  0.0874
 7408SOL    HW228188   8.628   8.407  11.360 -0.6327 -1.6155  0.3588
 7409SOL     OW28189   0.169   9.266   0.245 -0.5687  0.2981  0.9681
 7409SOL    HW128190   0.092   9.213   0.267 -0.6880  0.2003  0.3297
 7409SOL    HW228191   0.147   9.308   0.162  0.5178 -0.6681  0.1511
 7410SOL     OW28192   5.682  12.129   5.691 -0.2901  0.6284 -0.5854
 7410SOL    HW128193   5.716  12.070   5.624  0.3217  0.4081 -0.0892
 7410SOL    HW228194   5.741  12.204   5.689 -0.5380  0.8242 -0.6006
 7411SOL     OW28195   5.298   5.389   5.962  0.4987  0.1797 -0.5836
 7411SOL    HW128196   5.384   5.407   6.000 -0.4292  0.2853  1.6294
 7411SOL    HW228197   5.318   5.348   5.878  2.6815  1.7953 -0.9598
 7412SOL     OW28198  11.626   0.479   8.747  0.2794  0.3560  0.0628
 7412SOL    HW128199  11.643   0.394   8.706  0.0394  0.0765  0.5375
 7412SOL    HW228200  11.568   0.524   8.686 -1.0218 -0.5115  0.6284
 7413SOL     OW28201  12.453   8.640   6.120 -0.0684  0.6444  0.1421
 7413SOL    HW128202  12.502   8.686   6.052 -0.5804  3.0598  1.3146
 7413SOL    HW228203  12.371   8.688   6.128 -1.1212 -1.1445  0.7352
 7414SOL     OW28204   8.315  10.031   1.701  0.0045  0.2879  0.0140
 7414SOL    HW128205   8.367   9.970   1.754 -0.3372  0.5259  0.6440
 7414SOL    HW228206   8.273  10.088   1.766 -2.8413 -1.3096 -0.2525
 7415SOL     OW28207   2.403  10.684   7.816  0.0111 -0.7072 -0.0152
 7415SOL    HW128208   2.372  10.596   7.839 -0.6286 -0.2111  1.0848
 7415SOL    HW228209   2.383  10.737   7.892  2.1935 -0.0006  0.1305
 7416SOL     OW28210   1.668   9.211   4.827  0.5567 -0.2107 -0.3769
 7416SOL    HW128211   1.743   9.160   4.796  1.0901  0.8410 -0.8722
 7416SOL    HW228212   1.701   9.260   4.902  0.6530  0.9688 -1.1603
 7417SOL     OW28213  11.219  11.761   2.564  0.5374 -0.4957  0.2651
 7417SOL    HW128214  11.127  11.770   2.589  0.6290  0.8607  0.2174
 7417SOL    HW228215  11.264  11.736   2.644  0.3328  0.3909  0.6698
 7418SOL     OW28216   0.187   5.550   5.078 -0.5441  0.0087  0.0678
 7418SOL    HW128217   0.165   5.637   5.112 -2.0323 -0.3588  0.1289
 7418SOL    HW228218   0.103   5.512   5.053  0.3066 -0.4443 -2.3584
 7419SOL     OW28219   5.382   4.556  11.416  0.2114  0.0240  0.0680
 7419SOL    HW128220   5.475   4.570  11.434  0.5358 -0.6526 -0.9998
 7419SOL    HW228221   5.380   4.483  11.353 -1.0938 -0.6695  0.8675
 7420SOL     OW28222   4.387   7.009  11.896  0.5029 -0.5323 -0.0519
 7420SOL    HW128223   4.305   7.016  11.943  1.0176 -1.6613  1.0620
 7420SOL    HW228224   4.430   6.932  11.932  2.5091  0.5899  0.1226
 7421SOL     OW28225  11.998   6.568   1.128  0.0904 -0.4237  0.6846
 7421SOL    HW128226  12.002   6.499   1.195  1.0472  0.3617  1.4701
 7421SOL    HW228227  12.089   6.596   1.118 -0.1101 -0.1900 -0.6128
 7422SOL     OW28228   8.338   9.462  10.407  0.0688 -0.4950  0.1985
 7422SOL    HW128229   8.254   9.415  10.405  1.3382 -2.8808 -0.5108
 7422SOL    HW228230   8.363   9.470  10.315  0.8963 -0.3191  0.4337
 7423SOL     OW28231  12.124  10.461   7.297  0.8031 -0.1175  0.7084
 7423SOL    HW128232  12.049  10.520   7.303  0.9742  0.0327  1.6295
 7423SOL    HW228233  12.086  10.374   7.281  0.1611 -0.5622  3.9869
 7424SOL     OW28234   1.369   9.485  12.312 -0.6172  0.0267  1.0645
 7424SOL    HW128235   1.402   9.412  12.364  1.0745 -0.7555 -0.9521
 7424SOL    HW228236   1.329   9.443  12.236  2.3241  1.0760 -1.2564
 7425SOL     OW28237   5.323  11.548   9.452 -0.0264  0.0389  0.2585
 7425SOL    HW128238   5.293  11.604   9.381 -1.5637  0.2307  1.0084
 7425SOL    HW228239   5.413  11.575   9.468 -0.7057  2.2882  0.5735
 7426SOL     OW28240  10.936  10.086   1.129 -0.3793 -0.5215 -0.0224
 7426SOL    HW128241  10.983  10.042   1.058  2.7789 -0.5667  1.9248
 7426SOL    HW228242  10.928  10.177   1.100  0.9084 -0.5282 -0.4411
 7427SOL     OW28243   0.788   4.548   7.840  0.1010 -0.4979  0.1303
 7427SOL    HW128244   0.853   4.597   7.789 -0.1550 -2.2155 -1.9816
 7427SOL    HW228245   0.840   4.497   7.902  0.6319 -0.3607 -0.1975
 7428SOL     OW28246  11.662   4.331   5.987 -0.0228  0.3794 -0.3384
 7428SOL    HW128247  11.714   4.405   5.955 -0.1809  0.2039 -1.0070
 7428SOL    HW228248  11.589   4.325   5.926  0.5172 -0.9413 -0.8918
 7429SOL     OW28249   4.645   3.688   0.396 -0.2041  0.1857  0.4539
 7429SOL    HW128250   4.594   3.621   0.441 -0.5026  1.0863  1.4825
 7429SOL    HW228251   4.733   3.681   0.435  0.2869 -0.8431 -0.7676
 7430SOL     OW28252   2.817  12.027  10.848 -0.1884  0.5776  0.3352
 7430SOL    HW128253   2.802  11.945  10.895 -0.6379  0.2973 -0.2866
 7430SOL    HW228254   2.882  12.005  10.781 -1.7849  0.2049 -1.1553
 7431SOL     OW28255   6.431  11.547   7.443 -0.0105  0.0539  0.5564
 7431SOL    HW128256   6.361  11.498   7.486 -1.2801  0.2985 -1.1187
 7431SOL    HW228257   6.388  11.589   7.368  1.6845  1.2373  0.1994
 7432SOL     OW28258   4.546  12.259   9.736 -0.0945  0.6378 -0.4022
 7432SOL    HW128259   4.523  12.192   9.672 -0.6279  1.4407 -1.0741
 7432SOL    HW228260   4.471  12.262   9.795  0.1110  0.3590 -0.1234
 7433SOL     OW28261   2.638   2.523   2.292  0.1579  0.8926  0.2210
 7433SOL    HW128262   2.699   2.540   2.363  0.8932  0.0844 -0.1958
 7433SOL    HW228263   2.580   2.454   2.326  0.2928  0.7480  0.1572
 7434SOL     OW28264   2.117  10.213  10.716  0.0977  0.7262 -0.1511
 7434SOL    HW128265   2.105  10.193  10.623  0.1733  1.5924 -0.3588
 7434SOL    HW228266   2.039  10.263  10.739 -1.4863 -2.0776  1.0740
 7435SOL     OW28267  11.641  12.398   4.149  0.5942  0.0772 -0.1205
 7435SOL    HW128268  11.609  12.314   4.181 -0.6237  1.0881  1.4781
 7435SOL    HW228269  11.605  12.405   4.060 -1.5229  0.0291  0.6817
 7436SOL     OW28270   0.074  11.696   7.668 -0.1856  0.3118 -0.0120
 7436SOL    HW128271  -0.001  11.712   7.612  1.4685  0.6884 -2.2530
 7436SOL    HW228272   0.085  11.778   7.717 -2.3498 -0.4267  1.9018
 7437SOL     OW28273   7.612   2.328  10.317 -0.0581 -0.2541  0.0206
 7437SOL    HW128274   7.564   2.248  10.339 -0.5994 -0.3392 -1.3982
 7437SOL    HW228275   7.623   2.373  10.401 -1.6614 -0.7540  0.5362
 7438SOL     OW28276   2.487   5.917  11.847  0.0121  0.3751  0.2871
 7438SOL    HW128277   2.439   5.973  11.786  0.7305  0.9795  0.2694
 7438SOL    HW228278   2.441   5.833  11.844  0.2548  0.2865 -1.3610
 7439SOL     OW28279  11.909  10.977   7.923 -0.1318  0.0039 -0.5228
 7439SOL    HW128280  11.898  10.991   7.829 -0.9255 -2.4024 -0.8597
 7439SOL    HW228281  11.848  11.039   7.964  0.5604  1.4031 -1.5208
 7440SOL     OW28282   1.050   3.438   6.305  0.0320  0.5658  0.6720
 7440SOL    HW128283   0.992   3.505   6.343 -0.8030  1.3418 -1.7452
 7440SOL    HW228284   0.991   3.377   6.262  0.9009  0.9189 -1.1509
 7441SOL     OW28285   5.462   5.403   5.509  0.0034  0.2191 -0.0185
 7441SOL    HW128286   5.535   5.366   5.558  1.0510  0.9725 -0.9724
 7441SOL    HW228287   5.414   5.456   5.573  1.0311  0.7546  0.3225
 7442SOL     OW28288   9.912  10.496   4.774  0.1667  0.3028  0.7155
 7442SOL    HW128289   9.902  10.428   4.707 -0.8390  0.8555  0.2686
 7442SOL    HW228290   9.988  10.469   4.825  0.4985 -0.5295 -0.1860
 7443SOL     OW28291   5.955   7.127   0.540 -0.2539  0.8475 -0.2064
 7443SOL    HW128292   5.975   7.195   0.477  3.4042  0.3046  0.1370
 7443SOL    HW228293   5.988   7.161   0.624  1.1530 -1.0057  0.0724
 7444SOL     OW28294   6.380  12.433   9.854 -0.0086  0.0465  0.0152
 7444SOL    HW128295   6.436  12.357   9.843  3.3685  2.1469  1.1710
 7444SOL    HW228296   6.388  12.482   9.772  1.5059  1.2611  0.8236
 7445SOL     OW28297   2.132  11.609   6.864 -0.5535 -0.0028  0.0517
 7445SOL    HW128298   2.118  11.704   6.864  0.3751  0.1391  0.2167
 7445SOL    HW228299   2.116  11.583   6.773 -0.9546  0.2846  0.0352
 7446SOL     OW28300   4.284   2.552   0.271 -0.0462 -0.1129 -0.2371
 7446SOL    HW128301   4.238   2.474   0.302  0.4812 -0.5081 -0.4185
 7446SOL    HW228302   4.327   2.588   0.348  0.1017 -0.2787 -0.2415
 7447SOL     OW28303   9.618   8.197   7.194  0.0656  0.3238  0.1086
 7447SOL    HW128304   9.566   8.124   7.159 -0.5798  1.4258 -1.3900
 7447SOL    HW228305   9.565   8.275   7.175  1.1521  1.2674  0.8097
 7448SOL     OW28306   6.515  10.891   1.292 -0.2813  0.1636 -0.2997
 7448SOL    HW128307   6.474  10.970   1.257 -0.1987  0.4080  0.1361
 7448SOL    HW228308   6.551  10.919   1.377  0.7668 -0.0462 -0.6608
 7449SOL     OW28309   3.835   2.009   4.777 -0.1577  0.3631 -0.1281
 7449SOL    HW128310   3.816   1.917   4.795  2.7115 -0.2718  0.1154
 7449SOL    HW228311   3.757   2.041   4.732 -3.0319 -1.0161  3.3124
 7450SOL     OW28312   0.144   0.009   7.177 -0.3746 -0.2116  0.1756
 7450SOL    HW128313   0.065  -0.022   7.220 -1.3531 -0.2791 -1.5777
 7450SOL    HW228314   0.209  -0.060   7.192 -1.1286 -0.8985  0.3089
 7451SOL     OW28315   8.759  10.163   2.532  0.1994  0.8381 -0.1792
 7451SOL    HW128316   8.817  10.239   2.526 -0.7477  1.7660  1.6918
 7451SOL    HW228317   8.671  10.200   2.532 -0.2531 -0.0940  2.3277
 7452SOL     OW28318   0.793   2.759  11.747  0.0077  0.2564 -0.0435
 7452SOL    HW128319   0.817   2.838  11.698  0.8502  0.2241  0.2926
 7452SOL    HW228320   0.752   2.702  11.682 -0.2776  0.8229 -0.3676
 7453SOL     OW28321  11.141   7.605   8.502 -0.3284 -0.1814  0.6434
 7453SOL    HW128322  11.127   7.516   8.469  0.5523 -0.1962  0.2752
 7453SOL    HW228323  11.232   7.625   8.479 -0.7012  1.0511  0.1673
 7454SOL     OW28324   5.404   7.258   3.356 -0.2737  0.0582 -0.0382
 7454SOL    HW128325   5.360   7.290   3.277  0.7738 -0.4952 -0.8767
 7454SOL    HW228326   5.477   7.205   3.323  0.2998 -0.0334  1.3074
 7455SOL     OW28327   9.808  12.466  10.503  0.4782 -0.2009  0.0058
 7455SOL    HW128328   9.802  12.463  10.598  0.0657 -4.0441  0.0086
 7455SOL    HW228329   9.902  12.460  10.485  0.4363 -2.8955  0.2926
 7456SOL     OW28330   1.603   0.298   3.487 -0.2399  0.3064  0.2292
 7456SOL    HW128331   1.610   0.290   3.583 -0.0506  1.1108  0.2819
 7456SOL    HW228332   1.512   0.275   3.468 -0.0070 -0.9133  0.4852
 7457SOL     OW28333   1.167   8.342   4.737  0.5745 -0.0714 -0.3014
 7457SOL    HW128334   1.124   8.262   4.768  2.0695 -0.7375  0.1045
 7457SOL    HW228335   1.100   8.410   4.746 -0.8677 -1.3245 -1.0324
 7458SOL     OW28336   7.851   4.605  12.189 -0.2609  0.4455 -0.1168
 7458SOL    HW128337   7.821   4.695  12.173 -0.7078  0.1697 -0.8580
 7458SOL    HW228338   7.800   4.578  12.266 -2.5053 -0.2403 -1.7323
 7459SOL     OW28339   0.008  11.037   8.948  0.3300  0.6385  0.0579
 7459SOL    HW128340  -0.069  11.020   9.002  0.6407 -1.0830  0.0401
 7459SOL    HW228341   0.047  11.116   8.985 -0.8548  0.9256  0.7367
 7460SOL     OW28342  12.074  11.773   8.902  0.0377 -0.3721  0.3211
 7460SOL    HW128343  12.130  11.734   8.835  0.1437 -0.5856  0.5336
 7460SOL    HW228344  11.988  11.732   8.888 -0.1755  0.2493 -0.2613
 7461SOL     OW28345   8.547  11.067   9.590  0.0093 -0.1220  0.2260
 7461SOL    HW128346   8.610  11.079   9.661 -0.4930 -3.1953  1.3329
 7461SOL    HW228347   8.534  10.972   9.585 -0.4723 -0.0274 -3.5771
 7462SOL     OW28348   7.501   4.936   9.073  0.0219  0.9457  0.0162
 7462SOL    HW128349   7.566   5.000   9.100  0.9353 -0.9030  2.4786
 7462SOL    HW228350   7.545   4.884   9.006  0.7293  0.3752  0.9083
 7463SOL     OW28351   3.135   3.368   8.911  0.7199  0.5878 -0.0162
 7463SOL    HW128352   3.047   3.380   8.875  0.8847  1.1614 -0.2311
 7463SOL    HW228353   3.185   3.332   8.837  0.2115 -1.6085  0.6368
 7464SOL     OW28354  10.256   4.532   9.930 -0.4072  0.0210 -0.1943
 7464SOL    HW128355  10.225   4.542   9.840 -0.2780 -2.8491 -0.6321
 7464SOL    HW228356  10.178   4.548   9.984 -0.5994  1.2666 -0.8114
 7465SOL     OW28357   5.354   3.872   8.458 -0.2844  0.8060  0.5026
 7465SOL    HW128358   5.283   3.925   8.422  0.5111  1.0412 -0.8045
 7465SOL    HW228359   5.349   3.789   8.410  0.5720  0.9793  0.0978
 7466SOL     OW28360   3.476  10.565   1.496 -0.3738  0.4598  0.1037
 7466SOL    HW128361   3.400  10.531   1.543  0.0073  1.3227  1.4056
 7466SOL    HW228362   3.501  10.643   1.546  1.1053  0.4248 -0.5546
 7467SOL     OW28363  10.894   4.378   6.698 -0.7667 -0.4277 -0.3176
 7467SOL    HW128364  10.934   4.373   6.785 -2.2439 -0.2435  0.4158
 7467SOL    HW228365  10.957   4.425   6.645  0.2721 -0.7480  0.5984
 7468SOL     OW28366   7.534   0.947   0.190 -0.1349 -0.3780  0.4901
 7468SOL    HW128367   7.482   0.868   0.204  0.8401 -1.2669 -0.6563
 7468SOL    HW228368   7.612   0.935   0.244  0.3758 -0.5930 -0.2678
 7469SOL     OW28369   6.261   2.243   1.645  0.6064 -0.2101  0.1379
 7469SOL    HW128370   6.211   2.182   1.701 -0.1608  0.6380  0.4016
 7469SOL    HW228371   6.224   2.329   1.665 -0.3116  0.0408 -2.3023
 7470SOL     OW28372   0.036   0.260   9.388 -0.4764  0.3950 -0.1777
 7470SOL    HW128373   0.093   0.203   9.336 -0.3422 -0.9740  1.3905
 7470SOL    HW228374  -0.052   0.228   9.371 -0.4140 -0.2056  0.5842
 7471SOL     OW28375   5.936   1.537   6.932 -0.2565  0.1051 -0.0452
 7471SOL    HW128376   6.008   1.473   6.931 -1.0215 -0.8006  0.5515
 7471SOL    HW228377   5.934   1.568   7.023 -1.2142 -0.5873  0.1803
 7472SOL     OW28378   4.808   3.695   6.738  0.3596 -0.1301 -0.1922
 7472SOL    HW128379   4.890   3.687   6.788 -0.3813 -2.8226  0.7853
 7472SOL    HW228380   4.740   3.705   6.805 -0.3160 -0.1613 -0.8596
 7473SOL     OW28381   1.218   3.857   2.890  0.0009  0.3833  0.2410
 7473SOL    HW128382   1.223   3.761   2.888  1.0558  0.3687  1.5780
 7473SOL    HW228383   1.276   3.886   2.819  0.5531  0.0180  0.5341
 7474SOL     OW28384   7.997  10.698   4.811 -0.0421  0.0747  0.3846
 7474SOL    HW128385   7.920  10.718   4.864 -1.0398  0.3787 -1.1209
 7474SOL    HW228386   8.009  10.776   4.756  0.4489 -0.5479 -0.4089
 7475SOL     OW28387   7.075   3.353   2.289  0.7425 -0.2152  0.2848
 7475SOL    HW128388   7.088   3.333   2.381 -0.2317 -0.7402  0.3208
 7475SOL    HW228389   7.066   3.268   2.246 -1.4115  0.0432  0.1307
 7476SOL     OW28390   4.527  11.679   1.499 -0.0061  0.5981 -0.1449
 7476SOL    HW128391   4.619  11.667   1.521  0.0031  0.3215 -0.3363
 7476SOL    HW228392   4.524  11.675   1.404 -0.4197 -0.9474 -0.0958
 7477SOL     OW28393   0.806   5.757  10.921 -0.2188  0.6187  0.3486
 7477SOL    HW128394   0.815   5.843  10.879 -0.9409  1.1205  1.1816
 7477SOL    HW228395   0.732   5.716  10.876  1.3546 -0.4415 -1.4309
 7478SOL     OW28396   3.516   0.368   0.718 -0.1933 -0.1557  0.5867
 7478SOL    HW128397   3.527   0.445   0.774  2.2863  1.5541 -1.9540
 7478SOL    HW228398   3.600   0.323   0.722  0.7292  0.9851 -2.8792
 7479SOL     OW28399   7.113   7.238   9.919 -0.3119 -0.0451  0.7308
 7479SOL    HW128400   7.056   7.162   9.927  1.2631 -1.5807 -1.5513
 7479SOL    HW228401   7.072   7.292   9.851  0.2154 -0.4867  0.0482
 7480SOL     OW28402   7.556  10.302   1.756  0.1977 -0.8043  0.1254
 7480SOL    HW128403   7.513  10.234   1.808  0.1177 -0.8189  0.0401
 7480SOL    HW228404   7.618  10.254   1.701 -0.3947 -0.8827 -0.4779
 7481SOL     OW28405   4.803   4.548   2.328 -0.5322 -0.6122 -0.0669
 7481SOL    HW128406   4.855   4.526   2.250  0.6947 -1.3089  0.9072
 7481SOL    HW228407   4.868   4.579   2.391 -0.7172 -4.4584  2.3034
 7482SOL     OW28408   9.043   3.607   2.591 -0.0901  0.5956 -0.0083
 7482SOL    HW128409   9.025   3.688   2.640 -0.0638 -1.6588  4.1866
 7482SOL    HW228410   8.958   3.565   2.582  0.3142 -0.5385  1.1864
 7483SOL     OW28411   1.162   9.995   9.355  0.3700  0.2277 -0.3578
 7483SOL    HW128412   1.239   9.942   9.375  0.2381 -0.7556 -2.2031
 7483SOL    HW228413   1.094   9.962   9.414  0.9494  0.0474  0.2139
 7484SOL     OW28414  11.242   4.472  10.399  1.1031  0.3397  0.4919
 7484SOL    HW128415  11.255   4.556  10.443 -0.7855  1.1271 -0.3049
 7484SOL    HW228416  11.211   4.495  10.311 -0.1879 -1.1583  0.4901
 7485SOL     OW28417   7.431   8.911  11.517  0.3298 -0.8782  0.0178
 7485SOL    HW128418   7.400   8.946  11.600 -0.2598  0.9096 -0.9181
 7485SOL    HW228419   7.440   8.987  11.461  2.0372 -1.8852 -1.1630
 7486SOL     OW28420   9.147   6.020   4.476  0.3252  0.3877  0.4770
 7486SOL    HW128421   9.080   6.074   4.434 -1.1865 -0.9988  0.9961
 7486SOL    HW228422   9.099   5.968   4.541  1.7497 -1.3110  0.2604
 7487SOL     OW28423   8.013   5.160   2.737 -0.6930 -0.5590  0.0292
 7487SOL    HW128424   8.059   5.235   2.776 -1.6772  0.0781 -0.0095
 7487SOL    HW228425   8.081   5.114   2.688  0.0151  0.0826  0.3747
 7488SOL     OW28426   9.124   8.597   7.850  0.0448 -0.4221  0.2775
 7488SOL    HW128427   9.130   8.692   7.840  1.0882 -0.2017  2.4408
 7488SOL    HW228428   9.030   8.579   7.843 -0.2618  0.8863  0.6229
 7489SOL     OW28429   3.618   1.422  11.499 -0.5821 -0.0911 -0.3395
 7489SOL    HW128430   3.545   1.449  11.443 -0.9123 -1.7932 -0.8065
 7489SOL    HW228431   3.679   1.495  11.497 -1.2109  0.4273 -1.8312
 7490SOL     OW28432   2.683   7.040  11.716 -0.0823 -0.1319 -0.0051
 7490SOL    HW128433   2.731   7.109  11.670 -0.2048 -0.9942 -1.4712
 7490SOL    HW228434   2.602   7.082  11.745 -1.1767 -0.1478 -2.7815
 7491SOL     OW28435   0.407   0.549   2.049  0.1894  0.0365  0.4393
 7491SOL    HW128436   0.400   0.468   2.000 -2.0720  0.3668  0.0997
 7491SOL    HW228437   0.476   0.533   2.113 -0.2211 -2.1573  0.3900
 7492SOL     OW28438   7.942   1.182   0.965 -0.1439 -0.3991 -0.5347
 7492SOL    HW128439   7.888   1.261   0.978  0.8731  0.4326 -1.2126
 7492SOL    HW228440   7.879   1.110   0.963 -1.1178  0.4110 -0.0997
 7493SOL     OW28441   0.610   7.256   3.306  0.5974 -0.7254 -0.8903
 7493SOL    HW128442   0.625   7.182   3.247 -2.9481 -1.2933 -1.2907
 7493SOL    HW228443   0.605   7.332   3.248 -0.8580 -0.9967 -1.1760
 7494SOL     OW28444   5.859  11.851   6.339 -0.1368  0.0329  0.3014
 7494SOL    HW128445   5.779  11.820   6.381 -2.6123  2.9751 -1.7651
 7494SOL    HW228446   5.896  11.914   6.402 -2.2904  2.3262 -0.5547
 7495SOL     OW28447   4.947   5.465   6.767  0.0357 -0.0724 -0.1458
 7495SOL    HW128448   5.029   5.514   6.769 -0.9587  1.6501  1.1910
 7495SOL    HW228449   4.904   5.493   6.686  0.7158 -0.9646 -0.8386
 7496SOL     OW28450   4.186   2.290  10.382  0.7782  0.1585 -0.2091
 7496SOL    HW128451   4.177   2.215  10.324  1.4315  0.3351 -0.5582
 7496SOL    HW228452   4.191   2.366  10.323  1.8405  0.3036  0.0350
 7497SOL     OW28453   8.072   8.270  10.942 -0.0144 -0.2363 -0.0568
 7497SOL    HW128454   8.166   8.263  10.926  0.0590 -1.2175  0.7335
 7497SOL    HW228455   8.062   8.261  11.037 -0.9865 -1.3779 -0.2330
 7498SOL     OW28456   7.143   0.622  11.151 -0.6926 -0.5616 -0.5755
 7498SOL    HW128457   7.224   0.646  11.106 -0.9399  0.8314 -0.3274
 7498SOL    HW228458   7.171   0.597  11.239 -0.4992 -0.3722 -0.5826
 7499SOL     OW28459   8.803  10.328   9.873  0.4508 -0.0738 -0.6270
 7499SOL    HW128460   8.869  10.397   9.882  0.1562  0.2310 -0.8123
 7499SOL    HW228461   8.854  10.248   9.862  0.7984  0.2996 -1.8590
 7500SOL     OW28462   9.120   0.023  11.553  0.0063  0.3574  0.6545
 7500SOL    HW128463   9.111   0.044  11.646 -0.0136  0.0475  0.7234
 7500SOL    HW228464   9.207   0.055  11.529  0.2125 -0.0128  0.9036
 7501SOL     OW28465   1.486   3.941   5.666 -0.4728  0.1516  0.1680
 7501SOL    HW128466   1.516   3.905   5.583 -1.3374 -3.2662  1.1861
 7501SOL    HW228467   1.561   3.991   5.699  0.2181  0.7772 -2.1386
 7502SOL     OW28468   0.567  10.444  11.879  0.9587 -0.3294 -0.4282
 7502SOL    HW128469   0.529  10.395  11.806  1.1777 -1.3257  0.1078
 7502SOL    HW228470   0.505  10.433  11.951  0.7524  0.6310 -0.4393
 7503SOL     OW28471   0.684   2.390   9.195  0.3673 -0.3712  0.3519
 7503SOL    HW128472   0.744   2.315   9.192 -0.6248 -1.3819  2.9689
 7503SOL    HW228473   0.679   2.414   9.287 -0.8398  1.7225 -0.1840
 7504SOL     OW28474  11.673   7.580   6.554  0.6202  0.1296  0.7309
 7504SOL    HW128475  11.745   7.598   6.614 -1.7889  1.4866  3.4935
 7504SOL    HW228476  11.655   7.663   6.511  0.3340 -0.0512  0.4935
 7505SOL     OW28477   3.511   1.728   0.416  0.1687 -0.0055  0.3080
 7505SOL    HW128478   3.488   1.697   0.328 -2.4205  1.0212  0.5407
 7505SOL    HW228479   3.583   1.789   0.401 -1.8367  2.1427 -1.5654
 7506SOL     OW28480   6.783   5.920   5.986 -0.2921 -0.2356 -0.5662
 7506SOL    HW128481   6.802   5.854   5.920 -0.2101 -1.3060  0.4887
 7506SOL    HW228482   6.793   6.003   5.941  0.6594 -0.9194 -1.6554
 7507SOL     OW28483   4.921   7.548  10.821  0.2038 -0.7331  0.3116
 7507SOL    HW128484   4.964   7.618  10.871 -0.0795 -0.7836  0.6309
 7507SOL    HW228485   4.900   7.481  10.886 -1.2261 -0.2921  0.3550
 7508SOL     OW28486   9.274   6.846   4.750  0.0292 -0.1208  0.5208
 7508SOL    HW128487   9.259   6.760   4.789  0.1109 -0.3815 -0.0129
 7508SOL    HW228488   9.208   6.853   4.680  1.7021 -0.8787 -1.2149
 7509SOL     OW28489   1.693   3.052  12.129  0.1424  0.1498  0.6175
 7509SOL    HW128490   1.768   3.011  12.086  0.7769  1.2009  0.6829
 7509SOL    HW228491   1.731   3.103  12.201 -0.6871  0.2753  0.9839
 7510SOL     OW28492  11.297   9.194   4.307  0.1378 -0.3705 -0.1982
 7510SOL    HW128493  11.247   9.137   4.365 -0.5325  0.2611 -0.1306
 7510SOL    HW228494  11.387   9.164   4.315 -0.0732 -0.8423  0.5209
 7511SOL     OW28495   9.763   2.612   3.543  0.2015 -0.5608 -0.5133
 7511SOL    HW128496   9.789   2.631   3.453 -1.2190 -1.4088 -1.1481
 7511SOL    HW228497   9.796   2.523   3.558  1.7936  0.1517  0.3825
 7512SOL     OW28498   9.444   7.958   1.116  0.0851  0.3691 -0.2312
 7512SOL    HW128499   9.443   8.004   1.200  0.8935 -1.2237  0.6809
 7512SOL    HW228500   9.368   7.993   1.069 -0.1141  1.6283  0.9561
 7513SOL     OW28501   3.735  10.517   2.109 -0.2118  0.0220  0.1914
 7513SOL    HW128502   3.781  10.599   2.130  0.4018 -0.0222 -0.9547
 7513SOL    HW228503   3.784  10.449   2.155  0.8086 -0.0097 -0.9309
 7514SOL     OW28504   5.997   5.873  11.078  0.6258 -0.3808  0.6041
 7514SOL    HW128505   6.023   5.820  11.003 -2.5776  0.6078 -1.3680
 7514SOL    HW228506   6.008   5.964  11.048 -0.4784  0.0354  1.4036
 7515SOL     OW28507   4.128   8.968   1.744 -0.1728  0.2455 -0.0567
 7515SOL    HW128508   4.115   9.006   1.658 -0.5516  0.6764  0.1896
 7515SOL    HW228509   4.165   8.881   1.726  0.2496  0.5399 -0.6305
 7516SOL     OW28510   7.995   5.801  11.843 -0.1040  0.2633 -0.4976
 7516SOL    HW128511   8.045   5.875  11.877  0.9453  0.2011 -1.7921
 7516SOL    HW228512   8.045   5.724  11.869 -0.8326  0.0395  0.2668
 7517SOL     OW28513   2.758   5.217   4.426  0.0648  0.2086  0.9550
 7517SOL    HW128514   2.756   5.235   4.332  0.8264 -1.9967  0.4635
 7517SOL    HW228515   2.674   5.251   4.459 -0.5425  0.3503 -0.6474
 7518SOL     OW28516  11.661  12.180   4.800  0.5100 -0.7669  0.8514
 7518SOL    HW128517  11.748  12.197   4.835  0.5514 -0.3811  0.5605
 7518SOL    HW228518  11.652  12.085   4.803  0.5828 -0.7558  1.7514
 7519SOL     OW28519   1.032   9.997   2.345 -0.2830 -0.2228  0.4853
 7519SOL    HW128520   0.989   9.990   2.260 -2.3245 -0.7197  1.5003
 7519SOL    HW228521   1.098  10.065   2.333 -0.2661 -0.5479 -1.5839
 7520SOL     OW28522  10.280   9.059  10.290 -0.0810  0.4577  0.5269
 7520SOL    HW128523  10.275   9.148  10.255 -0.6443  0.8833  1.6088
 7520SOL    HW228524  10.292   9.003  10.213 -1.9546  1.2731 -0.4382
 7521SOL     OW28525   8.358  11.043   5.583 -0.0332 -0.2671  0.3889
 7521SOL    HW128526   8.396  11.086   5.506  0.0927  0.3606  0.7946
 7521SOL    HW228527   8.406  10.961   5.590  0.2589 -0.1295  0.0530
 7522SOL     OW28528   2.647  11.346   4.680 -0.1723 -0.3284 -0.0246
 7522SOL    HW128529   2.577  11.409   4.662 -0.4336 -0.2401  1.2316
 7522SOL    HW228530   2.728  11.395   4.665 -0.3650 -0.1842 -0.6427
 7523SOL     OW28531   8.445  11.356   8.482 -0.5227  0.5939 -0.2306
 7523SOL    HW128532   8.451  11.449   8.463 -0.8942  0.6073 -0.2915
 7523SOL    HW228533   8.517  11.316   8.433  0.3080  0.9729  0.6519
 7524SOL     OW28534   7.338   6.606  10.105  0.1212 -0.1262  0.3832
 7524SOL    HW128535   7.358   6.599  10.198  2.0941  3.8326  0.4713
 7524SOL    HW228536   7.254   6.652  10.101  0.4193  0.4153  0.2422
 7525SOL     OW28537  11.787   0.131   9.973  0.0098  0.0271 -0.1428
 7525SOL    HW128538  11.797   0.169   9.886  0.3612  0.9889  0.3099
 7525SOL    HW228539  11.876   0.108  10.000  0.3160  2.4438  1.1468
 7526SOL     OW28540   6.166   0.655   9.897  0.0823 -0.1287 -0.6628
 7526SOL    HW128541   6.207   0.574   9.867  0.8417 -0.3284  0.7963
 7526SOL    HW228542   6.222   0.724   9.863 -0.6507 -0.1846 -2.0378
 7527SOL     OW28543   2.829   7.917   9.187 -0.3129  0.3122 -0.1774
 7527SOL    HW128544   2.762   7.851   9.171  0.3190 -0.6544  0.9812
 7527SOL    HW228545   2.781   7.998   9.202 -1.1631 -0.1595 -0.3167
 7528SOL     OW28546   7.326   5.727   7.937 -0.3235  0.4659 -0.1583
 7528SOL    HW128547   7.350   5.654   7.880  1.2258  0.4804  0.4176
 7528SOL    HW228548   7.283   5.790   7.880 -2.8628 -1.3724 -0.4522
 7529SOL     OW28549   8.519   6.906   4.594 -0.0692 -0.0321 -0.2769
 7529SOL    HW128550   8.593   6.908   4.656  0.8272  0.3548 -1.3284
 7529SOL    HW228551   8.443   6.888   4.649  0.7913 -0.3627  0.8529
 7530SOL     OW28552   4.591   5.307   4.500  0.5222  0.4795 -1.0020
 7530SOL    HW128553   4.677   5.342   4.524  0.4768  0.6760 -1.1158
 7530SOL    HW228554   4.603   5.275   4.410  0.6829 -0.2193 -0.7367
 7531SOL     OW28555  12.145  10.250   6.450 -0.6319  0.0982 -0.3826
 7531SOL    HW128556  12.224  10.259   6.397 -1.0020 -0.1969 -0.9941
 7531SOL    HW228557  12.123  10.157   6.445 -1.9361  0.4271 -1.5839
 7532SOL     OW28558   0.227  11.909   9.725  0.2788  0.0072  0.0850
 7532SOL    HW128559   0.198  11.859   9.802 -2.2522 -0.0037 -0.8091
 7532SOL    HW228560   0.232  12.000   9.756  1.1625 -0.2332  0.7115
 7533SOL     OW28561   6.988   7.961   9.921  0.3494 -0.4727 -0.6302
 7533SOL    HW128562   7.071   7.945   9.965 -0.0238 -1.7786 -0.3470
 7533SOL    HW228563   6.998   7.919   9.835 -0.6829 -2.5114  0.1570
 7534SOL     OW28564  11.031   4.930  10.631 -0.5554  0.1867 -0.7040
 7534SOL    HW128565  11.073   5.002  10.583 -1.0048  0.6452 -0.4214
 7534SOL    HW228566  10.980   4.884  10.565 -0.8975  0.6094 -0.7433
 7535SOL     OW28567   9.426   4.530   4.414 -0.6668  0.2210 -0.0130
 7535SOL    HW128568   9.332   4.512   4.412 -0.8475  1.1165 -0.1844
 7535SOL    HW228569   9.445   4.562   4.326 -0.5289  1.5399  0.4728
 7536SOL     OW28570   5.049   2.825   1.714  0.5560  0.5596 -0.1051
 7536SOL    HW128571   5.085   2.857   1.632  2.2757 -0.8815  0.0149
 7536SOL    HW228572   5.011   2.902   1.756  0.2339  1.4463 -1.9252
 7537SOL     OW28573  10.692  11.931   6.992 -0.1494 -0.1562 -0.2067
 7537SOL    HW128574  10.732  11.962   7.073 -2.4919  1.2124  0.5243
 7537SOL    HW228575  10.653  11.846   7.015 -0.1699 -0.1206 -0.1110
 7538SOL     OW28576   4.580   5.412   5.611 -0.2630  0.3293 -0.1761
 7538SOL    HW128577   4.502   5.439   5.562 -0.3838  0.3186  0.0089
 7538SOL    HW228578   4.631   5.361   5.548 -0.1753  0.7408 -0.4412
 7539SOL     OW28579   4.166   5.853  12.102 -0.1606 -0.2183 -0.6228
 7539SOL    HW128580   4.183   5.885  12.190  0.3119 -0.6990 -0.5328
 7539SOL    HW228581   4.242   5.882  12.051 -1.1931  1.4825 -1.2705
 7540SOL     OW28582   5.695   3.661   5.060  0.0971  0.0764 -0.5644
 7540SOL    HW128583   5.626   3.633   5.120 -0.0434 -0.8239 -1.1311
 7540SOL    HW228584   5.768   3.602   5.078 -0.8064 -1.9477 -3.0103
 7541SOL     OW28585   0.587  12.240   4.030  0.2964  0.2016  0.5620
 7541SOL    HW128586   0.523  12.170   4.027 -0.5285  0.8117  2.3845
 7541SOL    HW228587   0.619  12.240   4.120  1.5416  1.0692  0.1530
 7542SOL     OW28588   4.096   7.661   0.585 -0.1737  0.2669  0.0656
 7542SOL    HW128589   4.134   7.715   0.654 -0.6920 -0.1615  0.6915
 7542SOL    HW228590   4.131   7.574   0.599 -1.7292 -0.2532  0.9615
 7543SOL     OW28591   2.152   7.636   0.969  0.0221 -0.7049  0.2333
 7543SOL    HW128592   2.108   7.640   0.884 -0.0829 -0.9212  0.2762
 7543SOL    HW228593   2.232   7.586   0.951  1.9023  2.3160 -0.5531
 7544SOL     OW28594   0.553   7.142   4.579 -0.5273 -0.4385 -0.0204
 7544SOL    HW128595   0.642   7.172   4.564 -0.5802  0.2771  0.9541
 7544SOL    HW228596   0.506   7.221   4.607 -1.4134 -0.8459 -0.3310
 7545SOL     OW28597   3.218   0.747   9.931 -0.3310  0.1245 -0.2077
 7545SOL    HW128598   3.186   0.806   9.863 -1.6505 -0.1858  0.1122
 7545SOL    HW228599   3.206   0.795  10.013  1.1526  0.4564 -0.1584
 7546SOL     OW28600   4.259   7.396   6.510 -0.2299  0.3479  0.2804
 7546SOL    HW128601   4.301   7.320   6.551  1.6186  1.7104  1.0151
 7546SOL    HW228602   4.173   7.400   6.552 -0.4534 -1.4326  0.0745
 7547SOL     OW28603   1.605  12.352  10.674  0.6667 -0.1199  0.0901
 7547SOL    HW128604   1.557  12.371  10.594  0.9315 -2.6090 -0.7233
 7547SOL    HW228605   1.692  12.324  10.644  1.1387 -0.0410  1.3147
 7548SOL     OW28606   6.718   9.116   0.045 -0.3333  0.0511 -0.1809
 7548SOL    HW128607   6.749   9.032   0.078 -0.7364 -0.5335 -1.2239
 7548SOL    HW228608   6.705   9.101  -0.049 -0.4167  1.2796 -0.3772
 7549SOL     OW28609  10.667  12.282  10.424  0.2435  0.1844 -0.0361
 7549SOL    HW128610  10.583  12.307  10.461 -0.0284  0.5569 -0.8812
 7549SOL    HW228611  10.698  12.360  10.378  0.0170 -0.5635 -1.5589
 7550SOL     OW28612  10.059   5.350   5.678  0.0883  0.0045 -0.2684
 7550SOL    HW128613  10.072   5.442   5.700 -0.1541  0.3364 -1.4947
 7550SOL    HW228614  10.120   5.333   5.606 -2.8639  0.3911 -3.0582
 7551SOL     OW28615  10.896   9.622  12.008  0.0557  0.2378 -0.2957
 7551SOL    HW128616  10.970   9.572  11.972 -1.4198 -2.2974 -0.0924
 7551SOL    HW228617  10.886   9.589  12.097 -1.6563  0.0624 -0.5152
 7552SOL     OW28618   9.628   0.239  10.367  0.0674  0.8854 -0.0369
 7552SOL    HW128619   9.647   0.263  10.457  0.6729  1.7538 -0.3785
 7552SOL    HW228620   9.665   0.310  10.315  0.9213 -0.2465 -1.0457
 7553SOL     OW28621   8.754   8.939  10.159 -0.3427  0.1287 -0.1660
 7553SOL    HW128622   8.741   8.987  10.077 -0.0122  1.3410  0.4704
 7553SOL    HW228623   8.670   8.944  10.203 -0.4341 -0.2705 -0.2888
 7554SOL     OW28624   4.214   9.210   3.802  0.1796  0.0977  0.1159
 7554SOL    HW128625   4.173   9.141   3.751  0.5322  0.6141 -0.8922
 7554SOL    HW228626   4.143   9.248   3.854 -0.2498 -0.2053 -0.2522
 7555SOL     OW28627   2.846   5.910  10.801 -0.2992 -0.1350 -0.4134
 7555SOL    HW128628   2.915   5.974  10.816 -0.0882  0.0696 -2.0545
 7555SOL    HW228629   2.837   5.906  10.705 -0.9034 -1.9297 -0.3151
 7556SOL     OW28630   2.372   3.774   1.359 -0.1120 -0.0130  0.0835
 7556SOL    HW128631   2.452   3.743   1.402  0.2331 -1.4767 -1.5123
 7556SOL    HW228632   2.395   3.780   1.267 -0.3424  4.5930  0.0772
 7557SOL     OW28633   0.887   4.136   4.509  0.1828 -0.1188  0.0360
 7557SOL    HW128634   0.920   4.225   4.513  0.7432 -0.2196 -1.5233
 7557SOL    HW228635   0.809   4.141   4.454  0.4163 -0.6287 -0.3555
 7558SOL     OW28636   1.840   5.746   4.051  0.4806  0.1049  0.0206
 7558SOL    HW128637   1.779   5.790   4.110  0.1556 -0.3388  0.0241
 7558SOL    HW228638   1.790   5.732   3.970 -0.4950 -2.9206  0.9833
 7559SOL     OW28639   1.841   5.248  10.344  0.3576 -0.5974  0.2717
 7559SOL    HW128640   1.908   5.181  10.330  3.2734  1.8120  1.5544
 7559SOL    HW228641   1.886   5.317  10.393 -2.8951  1.5860  0.4790
 7560SOL     OW28642   3.355   1.971   0.337  0.1561 -0.1022  0.2496
 7560SOL    HW128643   3.419   1.903   0.356 -0.1271 -0.7279 -0.9478
 7560SOL    HW228644   3.344   2.017   0.421  2.2504  0.1345  0.4457
 7561SOL     OW28645   3.488   4.981   3.439  0.4144  0.5027  0.0877
 7561SOL    HW128646   3.525   4.900   3.474  0.6312  0.2064 -0.7988
 7561SOL    HW228647   3.506   4.977   3.345  1.3210  2.0523  0.1710
 7562SOL     OW28648   2.996   0.703  11.594 -0.6428  0.4528  0.3136
 7562SOL    HW128649   3.033   0.615  11.594  0.0764  0.7488  0.5001
 7562SOL    HW228650   2.949   0.709  11.677  0.8874  0.8774  1.1896
 7563SOL     OW28651   1.729   9.589   8.658 -0.6510 -0.2701 -0.1290
 7563SOL    HW128652   1.740   9.624   8.746 -0.8063  0.1417 -0.2713
 7563SOL    HW228653   1.636   9.568   8.652 -0.5014 -1.0241  0.0688
 7564SOL     OW28654   5.816   1.009   0.383  0.0010 -0.8101  0.5886
 7564SOL    HW128655   5.821   0.915   0.398 -1.9598 -1.1049 -0.2633
 7564SOL    HW228656   5.838   1.048   0.468  0.2194 -2.0352  1.1224
 7565SOL     OW28657   5.426   5.553   8.617  0.0697  0.1657 -0.0634
 7565SOL    HW128658   5.478   5.511   8.549  0.3711  0.7609 -0.2089
 7565SOL    HW228659   5.483   5.555   8.694  1.5627  3.6771 -1.0688
 7566SOL     OW28660   3.150   2.602   4.199 -0.2540  0.4432  0.7849
 7566SOL    HW128661   3.215   2.672   4.193  0.9756 -0.5676  1.7141
 7566SOL    HW228662   3.093   2.629   4.271  0.6193  0.2263  1.5930
 7567SOL     OW28663   0.279   6.720   6.072  0.2310  0.2310 -0.2728
 7567SOL    HW128664   0.308   6.679   6.154  0.8320  0.0302 -0.5769
 7567SOL    HW228665   0.358   6.765   6.040 -0.0020  0.3074 -0.7391
 7568SOL     OW28666  11.805  11.826   9.954  0.2141  0.3268  0.7967
 7568SOL    HW128667  11.759  11.807   9.872  1.7886  0.4183 -0.1381
 7568SOL    HW228668  11.794  11.920   9.967 -0.4011  0.2408  0.9373
 7569SOL     OW28669   6.384   4.431   5.397  0.0371 -0.0989  0.1311
 7569SOL    HW128670   6.308   4.379   5.370 -0.2407  0.0494  0.6285
 7569SOL    HW228671   6.447   4.419   5.326  0.2960 -1.7698  0.5952
 7570SOL     OW28672   3.949   3.716   0.631  0.4040  0.5438  0.0653
 7570SOL    HW128673   3.938   3.691   0.539  1.3918 -0.9282  0.3147
 7570SOL    HW228674   3.869   3.688   0.673  1.7021 -3.0645  0.4558
 7571SOL     OW28675   5.433   5.173   3.484 -0.3656  0.2405  0.3085
 7571SOL    HW128676   5.525   5.153   3.464  0.5421 -0.3815  4.1704
 7571SOL    HW228677   5.388   5.089   3.471  0.5229 -0.6166  2.2356
 7572SOL     OW28678   4.039   1.399   6.647 -0.3045 -0.0069 -0.2532
 7572SOL    HW128679   4.018   1.484   6.686 -0.2784 -0.7086  1.3641
 7572SOL    HW228680   4.117   1.415   6.594 -1.2618  1.3145 -1.3292
 7573SOL     OW28681  10.981   4.066   7.019 -0.2779  0.2641  0.2849
 7573SOL    HW128682  11.036   4.137   7.054 -1.6438  0.3427  2.4375
 7573SOL    HW228683  11.005   3.990   7.072  0.1158 -0.5397 -1.0181
 7574SOL     OW28684   6.392   4.167  11.107  0.0357 -0.0298  0.1621
 7574SOL    HW128685   6.371   4.238  11.167 -0.9330 -1.0356  1.0730
 7574SOL    HW228686   6.452   4.112  11.156  0.4029 -0.0949 -0.3536
 7575SOL     OW28687   6.112   3.641   8.542 -0.1525  1.0485 -0.0142
 7575SOL    HW128688   6.149   3.695   8.472  1.0861 -2.4871 -2.3385
 7575SOL    HW228689   6.184   3.633   8.605  0.5229  0.2549 -0.8498
 7576SOL     OW28690  11.212   1.025   1.781  0.2353 -0.4562 -0.2395
 7576SOL    HW128691  11.155   1.074   1.840 -0.6606 -0.2079 -1.2908
 7576SOL    HW228692  11.189   0.933   1.796  0.0028 -0.3948 -0.2227
 7577SOL     OW28693   9.314   5.162   5.290  0.2774  0.0337 -0.7186
 7577SOL    HW128694   9.378   5.168   5.218  0.7031 -0.5779 -0.3996
 7577SOL    HW228695   9.359   5.112   5.357  0.1301  1.1503  0.2541
 7578SOL     OW28696   2.101   6.813   4.782  0.3559 -0.2916 -0.3227
 7578SOL    HW128697   2.103   6.900   4.824 -0.5997 -1.6601  2.8963
 7578SOL    HW228698   2.009   6.788   4.785  0.6859 -1.6123 -0.7794
 7579SOL     OW28699  11.396   0.642   2.042 -0.0022  0.3420 -0.2384
 7579SOL    HW128700  11.317   0.674   1.999  0.2760  0.3634 -0.7396
 7579SOL    HW228701  11.366   0.569   2.095 -0.4320  0.6309 -0.0790
 7580SOL     OW28702   9.002   1.248   4.198 -0.3107 -0.0627  0.0054
 7580SOL    HW128703   9.013   1.268   4.105  0.7635 -1.0940 -0.1092
 7580SOL    HW228704   8.919   1.200   4.201  0.2048 -1.0386 -0.6128
 7581SOL     OW28705   2.128   3.829  10.289 -0.1282 -0.1043 -0.4918
 7581SOL    HW128706   2.053   3.830  10.348  0.9066  0.1751  0.8589
 7581SOL    HW228707   2.103   3.768  10.220 -0.8791 -1.4270  0.8917
 7582SOL     OW28708   2.738   4.923   7.704 -0.2806  0.3256 -0.0323
 7582SOL    HW128709   2.818   4.876   7.726  0.3112  1.6185  0.6804
 7582SOL    HW228710   2.728   4.911   7.610  0.0915 -0.8284  0.0588
 7583SOL     OW28711   4.202   2.344   7.495 -0.5388  0.6332 -0.3612
 7583SOL    HW128712   4.201   2.436   7.524 -3.5331  0.4548  0.3860
 7583SOL    HW228713   4.173   2.348   7.404  1.1939  0.5277 -0.9517
 7584SOL     OW28714   5.027   4.096   7.160  0.1727 -0.3073 -0.3343
 7584SOL    HW128715   4.967   4.135   7.224  0.4514 -0.4865  0.0449
 7584SOL    HW228716   5.112   4.133   7.182  0.2113 -0.0835 -0.8468
 7585SOL     OW28717   6.057   7.385   9.784  0.2214 -0.3322 -0.1175
 7585SOL    HW128718   5.964   7.397   9.763  0.3794 -0.1465 -0.7390
 7585SOL    HW228719   6.077   7.455   9.846  0.5754  1.2959 -1.9714
 7586SOL     OW28720   1.403   5.341  10.211 -0.1384  0.0973  0.0219
 7586SOL    HW128721   1.419   5.282  10.138 -0.2761  0.0322  0.0433
 7586SOL    HW228722   1.332   5.398  10.181 -1.3716 -1.0167  0.7090
 7587SOL     OW28723   6.563  10.619   6.332  0.2157 -0.0234  0.1975
 7587SOL    HW128724   6.541  10.637   6.241  1.7435  0.8963 -0.0332
 7587SOL    HW228725   6.642  10.670   6.348  1.4514 -2.1085  1.2901
 7588SOL     OW28726  11.310   3.553  11.639  0.2212  0.1262  0.3181
 7588SOL    HW128727  11.394   3.597  11.657  0.1587  0.4676 -0.1938
 7588SOL    HW228728  11.303   3.553  11.544  0.1407 -0.8640  0.3090
 7589SOL     OW28729   6.101   3.941  10.033 -0.0439  0.3361 -0.4149
 7589SOL    HW128730   6.137   3.853  10.034  1.2973  0.8357 -1.3860
 7589SOL    HW228731   6.119   3.976  10.120  0.7027  0.1267 -0.4786
 7590SOL     OW28732   1.095  11.894   9.721 -0.2114 -0.3906 -0.6634
 7590SOL    HW128733   1.007  11.927   9.701  0.0481 -1.1712 -3.6251
 7590SOL    HW228734   1.153  11.964   9.693  0.1688  0.2532  1.5827
 7591SOL     OW28735   0.267   7.350  10.669 -0.2750 -0.2864 -0.3350
 7591SOL    HW128736   0.349   7.301  10.667 -0.0755 -0.1923  2.1015
 7591SOL    HW228737   0.199   7.285  10.652  0.0809 -1.2270  1.5167
 7592SOL     OW28738   6.733   9.000  11.222  0.0576 -0.7327 -0.3889
 7592SOL    HW128739   6.707   9.087  11.250  0.4659 -0.5560 -0.5506
 7592SOL    HW228740   6.750   8.952  11.303 -1.1642 -0.9798 -0.2666
 7593SOL     OW28741   1.727   9.071  11.211 -0.5077 -0.1305 -0.1473
 7593SOL    HW128742   1.696   9.051  11.299 -1.7565  0.7726 -0.3560
 7593SOL    HW228743   1.790   9.142  11.224 -0.2785 -0.3721  0.0682
 7594SOL     OW28744   5.287   1.439   9.867 -0.7047  0.1762 -0.3554
 7594SOL    HW128745   5.221   1.509   9.874 -1.4860 -0.5587 -0.2381
 7594SOL    HW228746   5.260   1.374   9.932  0.1167 -0.1705 -0.3421
 7595SOL     OW28747   9.254   1.417   3.032 -0.1795 -0.0527  0.3152
 7595SOL    HW128748   9.344   1.402   3.007 -0.6157 -0.6933 -0.9371
 7595SOL    HW228749   9.254   1.505   3.069  0.4188  1.2431 -2.5378
 7596SOL     OW28750   7.690   0.282   0.345  0.3013  0.1416  0.0848
 7596SOL    HW128751   7.649   0.219   0.285 -0.3073 -0.9708  1.6133
 7596SOL    HW228752   7.777   0.245   0.362  1.4128  1.6493 -1.8513
 7597SOL     OW28753  10.236  11.480   5.461  0.2792 -0.0373  0.5047
 7597SOL    HW128754  10.154  11.527   5.445  0.4613  1.0809  2.5203
 7597SOL    HW228755  10.278  11.527   5.533  1.5809 -1.9608  1.1165
 7598SOL     OW28756   9.142   1.525   3.475  0.0150 -0.5219  0.0604
 7598SOL    HW128757   9.111   1.599   3.424  2.0779  0.5276  0.1860
 7598SOL    HW228758   9.181   1.465   3.411  0.1866 -0.5032  0.1456
 7599SOL     OW28759   6.927   7.490   2.426  0.0947 -0.2530 -0.1319
 7599SOL    HW128760   7.008   7.446   2.401  0.1698  0.2189 -0.7507
 7599SOL    HW228761   6.929   7.493   2.521  0.0267 -1.6993 -0.0680
 7600SOL     OW28762   9.920   9.343   0.099 -0.0004  1.0395 -0.3298
 7600SOL    HW128763   9.949   9.253   0.084 -1.1992  0.0590  2.5184
 7600SOL    HW228764   9.999   9.396   0.086  1.6029 -0.8240  1.1267
 7601SOL     OW28765   5.045  10.342   2.285  0.2390  0.2770 -0.5797
 7601SOL    HW128766   4.992  10.417   2.260  0.8175  0.0640 -2.6307
 7601SOL    HW228767   4.996  10.266   2.251 -0.8804 -0.4675  2.3558
 7602SOL     OW28768   1.976   1.493   0.721 -0.1379  0.0416 -0.3389
 7602SOL    HW128769   1.998   1.570   0.774  0.4713  0.0620 -0.6135
 7602SOL    HW228770   1.967   1.422   0.785  3.4810 -0.6206 -0.3254
 7603SOL     OW28771  11.793   9.491   2.530 -0.3892 -0.1654  0.3359
 7603SOL    HW128772  11.789   9.424   2.599 -1.2329  0.5233  0.9749
 7603SOL    HW228773  11.830   9.567   2.574  0.0683 -0.0429 -0.2558
 7604SOL     OW28774   8.067   7.295   1.057  0.5804  0.2134 -0.1255
 7604SOL    HW128775   8.023   7.378   1.040  0.4869  0.0547 -0.6549
 7604SOL    HW228776   8.121   7.279   0.980  0.0481 -0.5773 -0.3459
 7605SOL     OW28777  10.570   9.671   0.797 -0.0809  0.0379  0.6907
 7605SOL    HW128778  10.475   9.667   0.790 -0.1543  2.1787 -0.4304
 7605SOL    HW228779  10.602   9.630   0.717 -0.2078  2.1745 -0.5226
 7606SOL     OW28780   5.769   8.917   9.779  0.1024 -0.7653  0.0871
 7606SOL    HW128781   5.758   8.873   9.863  0.2415 -0.5068  0.2406
 7606SOL    HW228782   5.775   9.010   9.801 -0.3670 -0.6557 -0.2558
 7607SOL     OW28783   3.094   2.220   1.082 -0.1820  0.5070 -0.1336
 7607SOL    HW128784   2.999   2.211   1.074  0.0192 -2.1557 -0.4994
 7607SOL    HW228785   3.114   2.182   1.168  0.6394  0.1962 -0.4586
 7608SOL     OW28786   9.785   7.581   0.503 -0.1497  0.0944 -0.5296
 7608SOL    HW128787   9.788   7.494   0.463  1.3694 -0.5763  0.9293
 7608SOL    HW228788   9.877   7.609   0.507 -0.1558  0.0190  2.5795
 7609SOL     OW28789  10.257   4.013   2.712  0.4348 -0.7539  0.2793
 7609SOL    HW128790  10.246   4.089   2.656 -0.3375 -0.7153  0.4705
 7609SOL    HW228791  10.270   3.940   2.652 -1.1021 -0.8266  0.0140
 7610SOL     OW28792   3.158   9.746   2.496 -0.0590 -0.2953  0.0699
 7610SOL    HW128793   3.188   9.834   2.520 -1.9700  0.9020 -1.6217
 7610SOL    HW228794   3.080   9.731   2.549  0.4451 -1.1261  0.5919
 7611SOL     OW28795  11.349  10.627   7.934  0.6108 -0.0424 -0.1664
 7611SOL    HW128796  11.423  10.568   7.946  1.6061  1.1936  0.0097
 7611SOL    HW228797  11.388  10.710   7.906 -0.6212  0.8759  0.6804
 7612SOL     OW28798   9.864   7.007  12.008  0.2019  0.0515 -0.1291
 7612SOL    HW128799   9.803   7.062  12.057  3.2377  2.9923  0.7121
 7612SOL    HW228800   9.907   7.066  11.947  2.1929 -1.8343 -0.7026
 7613SOL     OW28801  11.053   9.482   2.866  0.0086  0.6289 -0.2811
 7613SOL    HW128802  11.005   9.441   2.793 -0.0146 -0.8459  0.5163
 7613SOL    HW228803  11.098   9.409   2.908  0.9035  1.6251  0.5327
 7614SOL     OW28804   2.574   9.292   1.674  0.2022 -0.2023 -0.4784
 7614SOL    HW128805   2.630   9.231   1.722  0.4043 -0.8462 -1.4876
 7614SOL    HW228806   2.485   9.260   1.689  0.4206 -2.3002 -2.9405
 7615SOL     OW28807  11.868   2.485   8.848  0.4336  0.0003  0.0683
 7615SOL    HW128808  11.915   2.567   8.835  2.0331 -0.9543 -0.6773
 7615SOL    HW228809  11.938   2.421   8.863 -0.8069 -1.0760  1.5126
 7616SOL     OW28810   4.607   7.226   5.294  0.2778  0.0510  0.1213
 7616SOL    HW128811   4.583   7.318   5.290 -0.8626 -0.2699 -1.7030
 7616SOL    HW228812   4.663   7.218   5.371  3.4883  2.9932 -1.6248
 7617SOL     OW28813  11.494   9.542   3.329 -0.0223  0.3444  0.6464
 7617SOL    HW128814  11.436   9.501   3.265  1.0008  0.1875 -0.2068
 7617SOL    HW228815  11.472   9.635   3.325 -1.9413  0.0208  2.1658
 7618SOL     OW28816   3.402   0.030   5.031 -0.4557  0.1594  0.0730
 7618SOL    HW128817   3.495   0.034   5.009 -0.8040  0.2182 -1.4807
 7618SOL    HW228818   3.375  -0.058   5.006 -0.6817 -0.0843  1.1400
 7619SOL     OW28819  12.337   8.927   3.629  0.1354 -0.2113  0.0666
 7619SOL    HW128820  12.299   9.010   3.600  1.1891  0.5489  0.7650
 7619SOL    HW228821  12.265   8.880   3.671 -0.6199  0.0735 -0.8664
 7620SOL     OW28822   8.506   3.047  11.733  0.2127 -0.0607  0.9863
 7620SOL    HW128823   8.598   3.041  11.710  0.4533 -0.2205  1.9509
 7620SOL    HW228824   8.484   3.140  11.719  0.3184 -0.1731  0.0527
 7621SOL     OW28825   4.529   7.944   2.966 -0.0469 -0.4432 -0.4995
 7621SOL    HW128826   4.581   7.867   2.941  0.7240 -0.3861  0.8189
 7621SOL    HW228827   4.592   8.004   3.005 -0.8810  0.2313 -0.1448
 7622SOL     OW28828  10.390   1.734   7.009 -0.4399  0.0302  0.6153
 7622SOL    HW128829  10.380   1.653   7.060  1.2089 -0.1003  0.8040
 7622SOL    HW228830  10.455   1.712   6.942  1.5534  1.6886  1.8905
 7623SOL     OW28831   6.284  10.768   1.992  0.5234  0.0070 -0.0909
 7623SOL    HW128832   6.365  10.818   1.997  0.4366  0.2686 -1.0585
 7623SOL    HW228833   6.282  10.735   1.902  0.2746 -1.2232  0.3520
 7624SOL     OW28834   0.751   1.798   3.899  0.6726 -0.2458 -0.2904
 7624SOL    HW128835   0.761   1.870   3.836 -0.3430  1.1154  1.0270
 7624SOL    HW228836   0.820   1.736   3.876  0.5987  0.3894 -2.4582
 7625SOL     OW28837   0.203   7.613   0.584  0.4308 -0.2830 -0.5188
 7625SOL    HW128838   0.177   7.575   0.668 -0.5845  1.6367  0.0991
 7625SOL    HW228839   0.277   7.668   0.605  0.6937 -0.4301 -1.0471
 7626SOL     OW28840   7.492   0.796   0.939  0.7841 -0.6216 -0.2734
 7626SOL    HW128841   7.504   0.877   0.890  1.8476 -0.8361 -0.4065
 7626SOL    HW228842   7.479   0.824   1.029  0.9520 -0.2926 -0.3500
 7627SOL     OW28843   3.078   5.694   5.045  0.5214 -0.4870 -0.0787
 7627SOL    HW128844   3.063   5.602   5.026 -1.1980 -0.6287  1.6574
 7627SOL    HW228845   3.151   5.719   4.988  1.1887 -2.9595 -0.4095
 7628SOL     OW28846   8.850  12.356   2.451  0.0673  0.0903 -0.2161
 7628SOL    HW128847   8.869  12.371   2.543 -0.1412  1.0272 -0.3150
 7628SOL    HW228848   8.841  12.261   2.443 -0.7931  0.0608  0.8946
 7629SOL     OW28849   8.554   8.519   7.959 -0.0264 -0.4389  0.0458
 7629SOL    HW128850   8.568   8.467   8.038 -0.4833  1.5111  1.4929
 7629SOL    HW228851   8.461   8.541   7.961 -0.1466 -0.7449 -1.3066
 7630SOL     OW28852   6.552   9.521   8.744  0.2428  0.0994  0.5430
 7630SOL    HW128853   6.601   9.438   8.747 -1.7782 -1.2004 -0.1938
 7630SOL    HW228854   6.579   9.561   8.662  1.7028  0.5189  1.1928
 7631SOL     OW28855   7.390   3.599  11.875 -0.2895  0.1164  0.4814
 7631SOL    HW128856   7.325   3.661  11.842 -0.6154 -0.0262  0.8511
 7631SOL    HW228857   7.382   3.523  11.817  0.7109  0.7315 -0.5251
 7632SOL     OW28858   0.347  12.202   6.980  0.3203 -0.1843 -0.4146
 7632SOL    HW128859   0.313  12.219   7.068 -0.4418  0.1404 -0.7528
 7632SOL    HW228860   0.342  12.287   6.936 -0.5012 -0.5968 -1.1530
 7633SOL     OW28861   8.090   2.124   4.671  0.0693 -0.1377 -0.0507
 7633SOL    HW128862   8.000   2.150   4.692 -0.0184  0.3880 -1.0260
 7633SOL    HW228863   8.088   2.028   4.671 -0.5370 -0.1293 -0.2512
 7634SOL     OW28864   3.247   6.847   3.144 -0.0655  1.1323  0.7474
 7634SOL    HW128865   3.234   6.869   3.236  0.7458  1.2525  0.8413
 7634SOL    HW228866   3.176   6.893   3.098 -1.2645  0.0424  1.4161
 7635SOL     OW28867   9.384   4.060  11.159 -0.0798 -0.2206  0.4422
 7635SOL    HW128868   9.435   4.141  11.158  0.2635 -0.4392 -0.0933
 7635SOL    HW228869   9.407   4.018  11.242  0.4321 -0.2087  0.3054
 7636SOL     OW28870   7.745   3.529  11.016  0.1929 -0.3280 -0.5088
 7636SOL    HW128871   7.704   3.458  11.065  0.0881 -0.4569 -0.7788
 7636SOL    HW228872   7.711   3.609  11.056  0.3362 -0.4293 -0.1840
 7637SOL     OW28873  11.021   3.370   0.723 -0.0942 -0.1911  0.7362
 7637SOL    HW128874  11.039   3.463   0.708 -2.1703  0.0520 -0.6120
 7637SOL    HW228875  11.076   3.347   0.798  1.6860  1.6897  0.0966
 7638SOL     OW28876   1.115   4.253   6.762  0.7656 -0.2083  0.2989
 7638SOL    HW128877   1.119   4.166   6.723 -0.8271 -1.1980  2.1439
 7638SOL    HW228878   1.093   4.237   6.854 -0.3221  2.1536  0.5365
 7639SOL     OW28879   0.645  10.708   7.281 -0.7750 -0.2629 -0.1197
 7639SOL    HW128880   0.667  10.795   7.312 -1.3260  0.8992 -2.7516
 7639SOL    HW228881   0.553  10.697   7.304 -0.2433 -1.0270  1.9208
 7640SOL     OW28882   9.926   3.465   9.270  0.4492  0.2317  0.2608
 7640SOL    HW128883   9.953   3.486   9.180  0.9266 -0.8550  0.1321
 7640SOL    HW228884   9.960   3.377   9.285  1.1498  0.7459  1.8332
 7641SOL     OW28885  10.879   9.441   4.074 -0.4410  0.1785 -0.3544
 7641SOL    HW128886  10.960   9.399   4.044  0.5533  1.4530  0.4529
 7641SOL    HW228887  10.836   9.469   3.993 -0.2285 -0.7548 -0.8083
 7642SOL     OW28888   6.517   8.876   3.578 -0.5474 -0.2052 -0.8706
 7642SOL    HW128889   6.455   8.807   3.601 -1.0521  1.0326  1.8674
 7642SOL    HW228890   6.463   8.942   3.534 -1.1816  0.6699  1.1131
 7643SOL     OW28891  12.365   0.843   5.756 -0.0071  0.2780  0.0842
 7643SOL    HW128892  12.303   0.825   5.826 -0.3764 -1.3354 -0.6090
 7643SOL    HW228893  12.335   0.925   5.717 -0.1820  0.8394  1.3796
 7644SOL     OW28894   1.412   0.399   5.110  0.4317  0.4570 -0.7092
 7644SOL    HW128895   1.383   0.483   5.146 -1.2061  0.3043 -1.5732
 7644SOL    HW228896   1.451   0.421   5.026 -0.5571  0.3220 -1.2193
 7645SOL     OW28897   1.214   0.921  12.224 -0.3315  0.2335  0.0808
 7645SOL    HW128898   1.202   0.955  12.312  0.5847  1.4235 -0.2307
 7645SOL    HW228899   1.126   0.899  12.194 -0.5400 -1.7043  1.8412
 7646SOL     OW28900   9.059   6.659   1.445 -0.1751 -0.2941 -0.6390
 7646SOL    HW128901   9.078   6.751   1.426 -1.7359 -0.1803 -1.7780
 7646SOL    HW228902   9.050   6.656   1.540 -0.8636  0.8965 -0.6476
 7647SOL     OW28903   5.967   2.317   1.675  0.3476 -0.8021 -0.0659
 7647SOL    HW128904   5.935   2.378   1.610  0.4641 -0.2017  0.4343
 7647SOL    HW228905   5.928   2.233   1.651  0.6853 -0.6710 -1.1208
 7648SOL     OW28906  11.792   0.371   2.212 -0.2366  0.3281 -0.3474
 7648SOL    HW128907  11.839   0.395   2.291 -1.2316  0.9757  0.0784
 7648SOL    HW228908  11.742   0.293   2.235  1.3073 -0.9305 -1.0800
 7649SOL     OW28909  10.776   5.969   8.641  0.7754  0.5906 -0.1845
 7649SOL    HW128910  10.711   5.900   8.650  1.6732 -0.4329 -1.2268
 7649SOL    HW228911  10.725   6.050   8.638 -0.2217  0.1344  2.3065
 7650SOL     OW28912   3.646   9.776   7.507 -0.3114  0.0756 -0.8395
 7650SOL    HW128913   3.720   9.718   7.524 -1.7534 -1.6586 -0.2619
 7650SOL    HW228914   3.664   9.813   7.420  1.0185 -0.6020 -0.8710
 7651SOL     OW28915   2.093  11.587   6.581  0.2822  0.1531  0.2962
 7651SOL    HW128916   2.130  11.499   6.577 -1.2882 -0.4970 -0.9815
 7651SOL    HW228917   2.110  11.624   6.494 -0.7457  0.3791  0.1819
 7652SOL     OW28918  10.466  11.110  12.127 -0.5735 -0.6923  0.5121
 7652SOL    HW128919  10.385  11.159  12.142 -1.2013 -1.1463 -1.1218
 7652SOL    HW228920  10.441  11.041  12.066  0.9901 -1.0276  0.2016
 7653SOL     OW28921   6.451   5.490  10.892  0.4689  0.1237  0.2819
 7653SOL    HW128922   6.415   5.569  10.933 -1.0790 -0.0725 -0.6193
 7653SOL    HW228923   6.517   5.522  10.831  0.3138  0.6790  0.3971
 7654SOL     OW28924   0.758   5.707   2.566 -0.2854 -0.2710 -0.2006
 7654SOL    HW128925   0.781   5.654   2.489  1.6683  0.2489 -0.0386
 7654SOL    HW228926   0.790   5.656   2.640 -0.8657 -0.1078  0.1625
 7655SOL     OW28927   7.867  12.487   3.879 -0.1986  0.1745  0.1500
 7655SOL    HW128928   7.832  12.457   3.794 -0.4269 -0.4875  0.4707
 7655SOL    HW228929   7.802  12.458   3.943 -0.3285  1.1971  0.4983
 7656SOL     OW28930   0.716  11.946   1.781 -0.6667  0.4342  0.1141
 7656SOL    HW128931   0.726  11.904   1.696  1.4759 -1.4128  1.1735
 7656SOL    HW228932   0.662  11.885   1.832 -0.0291  0.3905  0.7568
 7657SOL     OW28933   1.214  11.968   3.472  0.5915  0.0288 -0.3039
 7657SOL    HW128934   1.122  11.942   3.484  0.7549 -0.7530 -0.7047
 7657SOL    HW228935   1.265  11.892   3.499  1.1500  0.6731  0.4871
 7658SOL     OW28936   2.715  10.459   1.305  0.0859 -0.2787  0.7675
 7658SOL    HW128937   2.747  10.433   1.219  0.0908 -0.0081  0.6869
 7658SOL    HW228938   2.782  10.517   1.340 -0.3057  0.2781  0.6021
 7659SOL     OW28939  10.064   2.979   4.000  0.2080  0.6441  0.0930
 7659SOL    HW128940  10.136   2.918   3.983 -1.3551 -1.3490  0.3118
 7659SOL    HW228941  10.077   3.049   3.936  2.0405  0.0979 -0.1995
 7660SOL     OW28942   5.583   4.295  11.433 -0.1564  0.0344 -0.0306
 7660SOL    HW128943   5.605   4.218  11.381  3.4882  0.7304  0.1610
 7660SOL    HW228944   5.510   4.268  11.489  0.7480 -3.1495 -0.2182
 7661SOL     OW28945   5.311  12.465   2.216 -0.2322  0.0230 -0.3682
 7661SOL    HW128946   5.280  12.378   2.193  2.0057 -1.3152  1.2604
 7661SOL    HW228947   5.395  12.450   2.260 -0.2574  2.9468  0.9154
 7662SOL     OW28948   3.739  11.650   6.855  0.4547  0.1748  0.5799
 7662SOL    HW128949   3.758  11.628   6.946  1.3623  0.2544  0.4235
 7662SOL    HW228950   3.819  11.627   6.808  0.3553  1.0370 -0.0416
 7663SOL     OW28951   9.370   3.831   0.553 -0.2409  0.6671  0.1295
 7663SOL    HW128952   9.325   3.748   0.541 -1.7124  0.9569  2.8273
 7663SOL    HW228953   9.461   3.812   0.532 -0.5730 -1.5641  0.4346
 7664SOL     OW28954   1.650   1.057   7.430  0.1011  0.0765  0.4453
 7664SOL    HW128955   1.588   1.130   7.433  0.1880  0.2661 -1.5015
 7664SOL    HW228956   1.710   1.073   7.503  0.2931  2.1159 -0.1230
 7665SOL     OW28957   6.845   5.876   4.281  0.5291  0.5886 -0.1987
 7665SOL    HW128958   6.815   5.904   4.367 -0.4535 -0.7873 -0.0484
 7665SOL    HW228959   6.870   5.956   4.236  1.9467  1.2627  1.6788
 7666SOL     OW28960   7.560  10.636   0.357 -0.4263  0.3585  0.2190
 7666SOL    HW128961   7.507  10.598   0.427  0.1853 -0.4228  0.2693
 7666SOL    HW228962   7.545  10.579   0.282 -1.4164  1.4359 -0.4298
 7667SOL     OW28963   3.845  10.443  11.937  0.2886  0.0674 -0.6184
 7667SOL    HW128964   3.829  10.400  12.021 -0.3534 -2.5672 -1.9810
 7667SOL    HW228965   3.758  10.455  11.899  0.6359 -0.0213 -1.4658
 7668SOL     OW28966   8.085   0.254   3.039  0.6241 -0.4041  0.1183
 7668SOL    HW128967   8.101   0.344   3.012  0.1246 -0.4235 -0.2501
 7668SOL    HW228968   8.171   0.219   3.060  0.6641  0.7669  2.1928
 7669SOL     OW28969  12.459   6.338   6.146  0.2392  0.0289 -0.3610
 7669SOL    HW128970  12.440   6.429   6.171 -0.7880 -0.8666  2.4812
 7669SOL    HW228971  12.432   6.333   6.054  2.2581  3.0673 -1.2897
 7670SOL     OW28972  10.248   4.088   3.404  0.4086 -0.1771 -0.3033
 7670SOL    HW128973  10.164   4.105   3.361  0.7574  0.4687 -0.7590
 7670SOL    HW228974  10.288   4.175   3.413  0.4876 -0.3349  1.0491
 7671SOL     OW28975  12.454  11.464  10.344  0.1037  0.3362 -0.1256
 7671SOL    HW128976  12.443  11.527  10.273 -0.6126  1.1053  0.6394
 7671SOL    HW228977  12.445  11.516  10.424 -0.5552 -0.7369  0.5270
 7672SOL     OW28978   9.422   3.037   4.997  0.3482 -0.3320  0.0438
 7672SOL    HW128979   9.438   3.129   4.974  2.1884 -0.2961  1.2990
 7672SOL    HW228980   9.391   3.040   5.087  2.0194 -1.0116  0.6784
 7673SOL     OW28981   5.716  12.130  11.232  0.0826 -0.7139  0.3576
 7673SOL    HW128982   5.683  12.215  11.263 -1.2430 -1.1068  0.0481
 7673SOL    HW228983   5.789  12.110  11.291 -1.0820 -0.4711  1.9416
 7674SOL     OW28984   3.433   0.265  10.106  0.1381 -0.5494  0.6354
 7674SOL    HW128985   3.371   0.213  10.158  0.2358  1.2621  2.7339
 7674SOL    HW228986   3.381   0.294  10.031 -0.7781 -1.2337  0.9731
 7675SOL     OW28987   4.749   0.950   0.984  0.0871  0.2506  1.1344
 7675SOL    HW128988   4.829   0.991   0.951  1.2040 -2.6033  0.0056
 7675SOL    HW228989   4.738   0.871   0.931 -0.8474 -1.9632  4.2856
 7676SOL     OW28990   9.525   4.494  12.143  0.2496 -0.2759  0.1436
 7676SOL    HW128991   9.491   4.405  12.140  0.6688 -0.5830  2.4965
 7676SOL    HW228992   9.619   4.484  12.127  0.7644 -0.6673  2.9201
 7677SOL     OW28993   9.896   2.093   2.925 -0.1254  0.4932  0.1279
 7677SOL    HW128994   9.989   2.098   2.903  0.0210 -2.0388 -0.1233
 7677SOL    HW228995   9.868   2.184   2.930  2.3938  1.3451  0.3871
 7678SOL     OW28996   1.912   1.847  12.435  0.2212  0.4827  0.8865
 7678SOL    HW128997   1.965   1.791  12.491 -1.0500 -0.2403  1.4012
 7678SOL    HW228998   1.836   1.794  12.412 -0.4096  1.5687  0.3606
 7679SOL     OW28999   8.637   3.523   3.558 -0.3666 -0.1097  0.4525
 7679SOL    HW129000   8.677   3.466   3.492  3.6202  1.3290  1.3389
 7679SOL    HW229001   8.598   3.462   3.621 -0.3742 -1.6586 -0.9767
 7680SOL     OW29002   6.835  11.649  10.450  0.1489  0.1254 -0.2817
 7680SOL    HW129003   6.856  11.567  10.405 -2.6578 -2.9811  3.3642
 7680SOL    HW229004   6.749  11.674  10.416 -0.5916 -0.5333  1.0193
 7681SOL     OW29005  10.599   0.828  11.732  0.0248 -0.1804  0.4026
 7681SOL    HW129006  10.688   0.819  11.766  0.4646 -2.7074 -1.1332
 7681SOL    HW229007  10.603   0.905  11.675  1.5293 -0.7904 -0.3850
 7682SOL     OW29008   5.757  10.116  11.266 -0.1175 -0.0313 -0.1260
 7682SOL    HW129009   5.718  10.068  11.193  1.0830 -0.1993 -0.6805
 7682SOL    HW229010   5.832  10.063  11.292 -0.7923 -0.2129  1.5596
 7683SOL     OW29011  10.698   3.306   4.897  0.4038 -0.1447  0.5477
 7683SOL    HW129012  10.721   3.255   4.974 -0.4570 -0.9161  0.3160
 7683SOL    HW229013  10.670   3.241   4.832  1.5808  0.4348 -0.6039
 7684SOL     OW29014   3.932   2.621   8.545  0.1493 -0.0706  0.3135
 7684SOL    HW129015   3.912   2.620   8.639  0.0340  0.2575  0.2941
 7684SOL    HW229016   4.024   2.649   8.541 -0.3523  1.7080  0.2580
 7685SOL     OW29017  10.373   7.992   1.368 -0.4822 -0.1602 -0.9380
 7685SOL    HW129018  10.320   8.047   1.426  0.5534 -0.0424 -0.0825
 7685SOL    HW229019  10.384   7.910   1.415  1.1632  0.2698 -0.4874
 7686SOL     OW29020   1.004  10.596   1.835  0.4345  0.1247  0.6192
 7686SOL    HW129021   0.984  10.538   1.762 -0.3465  0.8649  0.2267
 7686SOL    HW229022   1.069  10.549   1.886  2.1775  0.2475 -1.3802
 7687SOL     OW29023   7.226   5.535   4.669 -0.2612  0.0071  0.2231
 7687SOL    HW129024   7.157   5.523   4.604 -1.2186 -0.5538  1.3123
 7687SOL    HW229025   7.308   5.519   4.621 -1.0491 -2.5588 -0.3657
 7688SOL     OW29026   9.970   3.026   6.756 -0.1033 -0.3520 -0.3855
 7688SOL    HW129027  10.004   2.938   6.737 -2.0893 -1.1237 -0.5787
 7688SOL    HW229028   9.936   3.057   6.672 -2.7341 -0.9715  0.3544
 7689SOL     OW29029   3.921   7.636  11.440 -0.2516 -0.0405 -0.2901
 7689SOL    HW129030   3.967   7.677  11.513 -2.2886 -0.9097  1.6055
 7689SOL    HW229031   3.894   7.710  11.385 -0.5344  0.8666  1.0133
 7690SOL     OW29032   7.372   6.412   0.556  0.1566  0.4412  0.1157
 7690SOL    HW129033   7.352   6.506   0.550  0.2167  0.4524  0.0911
 7690SOL    HW229034   7.339   6.386   0.642 -0.0355  0.4438  0.0449
 7691SOL     OW29035  11.361  10.836   8.811  0.1856 -0.1343 -0.0733
 7691SOL    HW129036  11.288  10.858   8.753 -1.0257 -2.1058  0.5842
 7691SOL    HW229037  11.319  10.812   8.894  1.8298  2.0321  1.5169
 7692SOL     OW29038   1.834   3.613   2.819 -0.0187 -0.2586  0.0260
 7692SOL    HW129039   1.908   3.615   2.881 -0.3413  0.1266  0.4043
 7692SOL    HW229040   1.761   3.650   2.869 -0.2100  0.3363 -0.6839
 7693SOL     OW29041   3.459   4.574   8.662  0.3785 -0.1437  0.2515
 7693SOL    HW129042   3.379   4.617   8.690 -0.2975 -0.1048 -1.6175
 7693SOL    HW229043   3.473   4.605   8.572  0.8728 -2.4041 -0.5061
 7694SOL     OW29044   0.370   8.703   8.239 -0.4426  0.6591 -0.4898
 7694SOL    HW129045   0.334   8.647   8.170 -0.7833  1.4804 -0.9924
 7694SOL    HW229046   0.295   8.727   8.293 -0.2549  0.4237 -0.1188
 7695SOL     OW29047   6.422  11.914   9.480 -0.1226  0.2613  0.0755
 7695SOL    HW129048   6.482  11.954   9.542 -0.1132  1.4346 -0.6699
 7695SOL    HW229049   6.435  11.962   9.398 -0.4013 -0.9990 -0.7499
 7696SOL     OW29050   9.796   8.135   2.788 -0.3668  0.5534  0.4286
 7696SOL    HW129051   9.782   8.183   2.869 -0.9951  1.1882 -0.0548
 7696SOL    HW229052   9.764   8.193   2.719 -0.2025 -0.1406 -0.2451
 7697SOL     OW29053   6.138   1.636   2.836  0.3863  0.0670 -0.3802
 7697SOL    HW129054   6.081   1.622   2.761  0.0684 -0.0456 -0.1219
 7697SOL    HW229055   6.128   1.557   2.889  0.9464 -0.0492 -0.4353
 7698SOL     OW29056   6.955  11.013   9.329 -0.2802 -0.0817  0.2392
 7698SOL    HW129057   6.987  10.942   9.386  0.6210  0.2555  0.1802
 7698SOL    HW229058   7.026  11.026   9.267 -0.2300  1.2018  0.5488
 7699SOL     OW29059   7.641   8.890   2.331  0.3525 -0.0480 -0.3630
 7699SOL    HW129060   7.658   8.973   2.287  0.1742 -0.4263 -1.1663
 7699SOL    HW229061   7.549   8.870   2.311 -0.2656  0.6050  1.6155
 7700SOL     OW29062   2.682   1.280   0.957 -0.1694 -0.6439 -0.1767
 7700SOL    HW129063   2.679   1.239   1.043 -1.8418  0.5012  0.3528
 7700SOL    HW229064   2.725   1.364   0.973 -1.2037 -0.0843 -0.2884
 7701SOL     OW29065  10.025  11.564  11.778  0.3586  0.2585 -0.1140
 7701SOL    HW129066   9.967  11.544  11.705  0.5263 -0.4779 -0.0547
 7701SOL    HW229067  10.108  11.586  11.737  0.2842  0.4465 -0.1662
 7702SOL     OW29068   9.461   9.581   6.791 -0.4008  0.1555 -0.6054
 7702SOL    HW129069   9.515   9.546   6.721 -2.1433  0.6788 -2.2835
 7702SOL    HW229070   9.480   9.525   6.866  1.5292 -0.4034 -1.4592
 7703SOL     OW29071   2.003   6.823   6.606  0.0847  0.1003  0.0458
 7703SOL    HW129072   2.018   6.860   6.693 -1.1203  0.8837 -0.0552
 7703SOL    HW229073   2.023   6.730   6.615 -0.8779  0.0043  1.4054
 7704SOL     OW29074   4.303   1.708   2.491  0.1631  0.2187 -0.1777
 7704SOL    HW129075   4.341   1.633   2.537  1.3603  1.3724  0.7991
 7704SOL    HW229076   4.358   1.719   2.413 -2.2131 -2.0928 -2.3486
 7705SOL     OW29077   5.192  10.969   3.197 -0.4162  0.1702  0.3052
 7705SOL    HW129078   5.227  10.923   3.274 -0.0156  0.7632  0.4932
 7705SOL    HW229079   5.248  11.047   3.190 -1.4028  0.8944  0.3166
 7706SOL     OW29080  11.468  12.248   1.694 -0.0092 -0.2306 -0.6027
 7706SOL    HW129081  11.552  12.243   1.739  0.0806  1.4755 -0.4834
 7706SOL    HW229082  11.419  12.172   1.726  0.6057  0.0771  1.2232
 7707SOL     OW29083   2.167   1.802   6.757  0.0718 -0.2854  0.4448
 7707SOL    HW129084   2.128   1.855   6.826 -0.0229  0.9492 -0.5188
 7707SOL    HW229085   2.092   1.758   6.716 -0.1528  0.7567 -0.3087
 7708SOL     OW29086   1.806   9.720   1.824 -0.1449  0.0799 -0.0726
 7708SOL    HW129087   1.788   9.728   1.918  1.2707  0.7516  0.1662
 7708SOL    HW229088   1.893   9.681   1.820  0.1699  0.8452 -1.0909
 7709SOL     OW29089   4.662   3.029  10.754  0.3237  0.0166  0.5296
 7709SOL    HW129090   4.671   3.060  10.845  0.3313  1.2263  0.1411
 7709SOL    HW229091   4.622   3.103  10.708  1.9224  0.1144 -0.8236
 7710SOL     OW29092   1.380   2.674   3.157  0.2796  0.2114 -0.2347
 7710SOL    HW129093   1.368   2.684   3.252  0.5498 -0.9327 -0.0688
 7710SOL    HW229094   1.292   2.661   3.123  0.1211  1.1572 -0.2264
 7711SOL     OW29095  10.027   8.347   2.581 -0.7105  0.3692 -0.9887
 7711SOL    HW129096  10.020   8.426   2.528  1.5154  0.1519 -1.6824
 7711SOL    HW229097  10.013   8.275   2.518  0.6089  0.1515 -1.0666
 7712SOL     OW29098   4.317   4.495   6.943  0.0745 -0.5232  0.0841
 7712SOL    HW129099   4.346   4.408   6.916  0.8918  0.1155 -1.2074
 7712SOL    HW229100   4.368   4.515   7.021 -1.9981 -2.2259  2.0081
 7713SOL     OW29101   9.245  10.629  11.155  0.3111  0.1185 -0.0392
 7713SOL    HW129102   9.278  10.542  11.176  1.1839  0.3206 -0.5478
 7713SOL    HW229103   9.177  10.645  11.221  1.0821 -0.3913  0.9112
 7714SOL     OW29104   9.491  10.424   2.976  0.1319  0.2849  0.1966
 7714SOL    HW129105   9.545  10.371   2.918 -1.6102 -0.5803 -0.7061
 7714SOL    HW229106   9.492  10.377   3.060  1.0389  0.4735  0.3009
 7715SOL     OW29107   2.517   4.688   5.089  0.0671 -0.6414 -0.1215
 7715SOL    HW129108   2.608   4.673   5.065  0.4728 -0.5837  1.2410
 7715SOL    HW229109   2.470   4.610   5.060  0.1625  0.1417 -2.5680
 7716SOL     OW29110   4.717   4.031   3.119 -0.7594 -0.2845 -0.3580
 7716SOL    HW129111   4.787   4.004   3.178 -1.1951 -1.9234 -0.5569
 7716SOL    HW229112   4.687   4.115   3.155 -0.8956 -1.1440  1.6485
 7717SOL     OW29113   5.122   0.941  10.330  0.0571  0.1945 -0.6991
 7717SOL    HW129114   5.168   0.881  10.272  0.7068  2.1051 -2.2665
 7717SOL    HW229115   5.098   0.887  10.406  2.2717 -1.5733 -1.1450
 7718SOL     OW29116   7.756  10.598   6.257 -0.4345  0.3064  0.3420
 7718SOL    HW129117   7.811  10.652   6.313 -1.2702  0.2428  1.2627
 7718SOL    HW229118   7.816  10.560   6.192  0.3939  1.1299  0.6177
 7719SOL     OW29119   8.232   7.940   1.610 -0.0573  0.3161  0.3505
 7719SOL    HW129120   8.310   7.991   1.629  0.1283  0.3292 -0.4196
 7719SOL    HW229121   8.236   7.924   1.516 -1.0103  0.3692  0.2887
 7720SOL     OW29122   8.531   9.967   4.438 -0.4852 -0.2256 -0.2383
 7720SOL    HW129123   8.612   9.919   4.459  0.5246  1.5578  0.1987
 7720SOL    HW229124   8.476   9.955   4.515  0.3077  0.4044  0.4495
 7721SOL     OW29125   8.322   6.932  10.619  0.2404  0.4576  0.0645
 7721SOL    HW129126   8.323   6.991  10.544  0.6684  0.9174  0.4276
 7721SOL    HW229127   8.389   6.966  10.678  0.6697 -0.5311  0.1757
 7722SOL     OW29128   8.583   4.003   5.866 -0.2046 -0.0632 -0.3003
 7722SOL    HW129129   8.528   4.048   5.930  0.2910 -1.0497  0.8631
 7722SOL    HW229130   8.666   4.052   5.867 -0.3550  0.1959 -0.5260
 7723SOL     OW29131   5.046   0.855   9.976 -0.0730 -0.3082  0.3525
 7723SOL    HW129132   4.962   0.883  10.014  0.5701  0.5595  1.1672
 7723SOL    HW229133   5.027   0.768   9.939 -1.5717  0.2835 -0.3522
 7724SOL     OW29134   7.456  10.367   2.262 -0.1323  0.0929 -0.1494
 7724SOL    HW129135   7.535  10.326   2.296 -0.9402  0.5387  2.4947
 7724SOL    HW229136   7.388  10.344   2.325 -1.5851  1.7329 -1.0252
 7725SOL     OW29137   9.041  10.930   9.045  0.3764  0.6384 -0.5560
 7725SOL    HW129138   8.981  10.987   9.093 -2.0510 -2.8781  0.9727
 7725SOL    HW229139   9.128  10.968   9.062 -0.8839  2.7190  1.9986
 7726SOL     OW29140  11.092   1.900   6.354  0.0424 -0.0300  0.3203
 7726SOL    HW129141  11.007   1.867   6.324  0.2189 -1.9669  1.7608
 7726SOL    HW229142  11.153   1.876   6.284 -0.6746  2.3559 -1.2528
 7727SOL     OW29143  10.681   7.053   7.152  0.0941  0.1636  0.1870
 7727SOL    HW129144  10.598   7.095   7.176  0.5772  1.8722 -0.9234
 7727SOL    HW229145  10.688   6.978   7.211 -3.0510 -1.0586 -0.8421
 7728SOL     OW29146  11.554  10.830   0.522 -0.0677  0.4425 -0.9497
 7728SOL    HW129147  11.523  10.777   0.595  0.9398  0.7710 -0.2587
 7728SOL    HW229148  11.642  10.858   0.548 -0.7184  2.8482 -1.0680
 7729SOL     OW29149   7.637   1.056   8.760 -0.1906 -0.6735  0.1411
 7729SOL    HW129150   7.597   1.011   8.686 -0.5104  1.5290 -1.1226
 7729SOL    HW229151   7.724   1.081   8.728 -0.2228  0.0527  0.5871
 7730SOL     OW29152   4.333   3.941   8.097  0.6205 -0.3161  0.6238
 7730SOL    HW129153   4.325   3.878   8.025 -0.7053 -0.3116  0.7410
 7730SOL    HW229154   4.285   3.900   8.169  1.9107 -0.3131  1.5159
 7731SOL     OW29155   0.762   1.571   1.867 -0.9343  0.3521  0.4762
 7731SOL    HW129156   0.774   1.481   1.896  0.1241  0.3971  0.2234
 7731SOL    HW229157   0.700   1.566   1.795  2.1445 -0.7669 -2.3686
 7732SOL     OW29158   1.945   6.364  11.708 -0.1308  0.0958 -0.2327
 7732SOL    HW129159   2.029   6.403  11.685 -0.5020  0.1441 -1.6280
 7732SOL    HW229160   1.886   6.439  11.718  0.4684  0.2522  3.1901
 7733SOL     OW29161   6.716  11.658   8.480  0.0058 -0.1729 -0.0569
 7733SOL    HW129162   6.806  11.691   8.485  0.3601 -1.1070  0.0937
 7733SOL    HW229163   6.662  11.735   8.462  0.9762  0.2120 -1.4585
 7734SOL     OW29164   1.444  10.832   6.507 -0.2015  0.4020  0.2196
 7734SOL    HW129165   1.422  10.805   6.597 -1.8600 -0.4068 -0.3755
 7734SOL    HW229166   1.377  10.897   6.485  0.1526  0.5386 -0.4624
 7735SOL     OW29167   1.655   7.213   3.834 -0.1600 -0.0654 -0.1769
 7735SOL    HW129168   1.654   7.154   3.908  0.3092  0.4087  0.2169
 7735SOL    HW229169   1.612   7.293   3.866 -0.1694  0.0574 -0.4872
 7736SOL     OW29170  12.396   1.164   6.607 -0.0260 -0.0446  0.0691
 7736SOL    HW129171  12.401   1.137   6.699  0.5210 -0.0919  0.0270
 7736SOL    HW229172  12.483   1.198   6.587 -0.2238  0.2235 -0.3546
 7737SOL     OW29173   6.011  10.021   1.400 -0.3669 -0.2244 -0.4508
 7737SOL    HW129174   5.972  10.032   1.313  1.1916  1.5759 -0.9937
 7737SOL    HW229175   6.092   9.972   1.384 -0.6089 -0.8219  0.1460
 7738SOL     OW29176   3.198   7.114   4.702  0.0217  0.1516  0.1504
 7738SOL    HW129177   3.134   7.169   4.658  0.0344 -0.7211 -1.0123
 7738SOL    HW229178   3.146   7.055   4.757 -0.3959 -1.8291 -2.2122
 7739SOL     OW29179   6.182   2.135  11.677 -0.1633  0.1389  0.3702
 7739SOL    HW129180   6.209   2.217  11.718 -0.9068  1.4801 -1.6935
 7739SOL    HW229181   6.093   2.152  11.646 -1.4701 -2.3931  2.2867
 7740SOL     OW29182   0.564   7.316  10.703  0.2819 -0.1586 -0.0982
 7740SOL    HW129183   0.553   7.223  10.684  1.6022 -0.9640  2.4969
 7740SOL    HW229184   0.656   7.334  10.682 -0.2341  0.8963 -1.6115
 7741SOL     OW29185   2.085  10.546   0.407 -0.5960  0.0761 -1.1883
 7741SOL    HW129186   2.069  10.640   0.402  0.1544  0.2336 -0.7818
 7741SOL    HW229187   2.141  10.535   0.483  0.5518 -0.5153 -2.0818
 7742SOL     OW29188   6.634   2.894  12.311 -0.4549 -0.3713 -0.2808
 7742SOL    HW129189   6.706   2.919  12.369 -0.6611  0.1608 -0.2522
 7742SOL    HW229190   6.584   2.830  12.361 -0.4929 -0.0976  0.0310
 7743SOL     OW29191   5.196   5.362   8.737 -0.1224  0.0904 -0.6394
 7743SOL    HW129192   5.269   5.300   8.733 -0.4661 -0.2501 -3.1517
 7743SOL    HW229193   5.123   5.311   8.772  0.3160 -0.1054  0.0162
 7744SOL     OW29194   3.600   9.409   3.154 -0.2130 -0.7955 -0.3033
 7744SOL    HW129195   3.615   9.342   3.087 -0.6788 -0.1077 -1.1208
 7744SOL    HW229196   3.580   9.360   3.233  1.1969 -1.6490 -0.4394
 7745SOL     OW29197   5.328   1.545   0.009 -0.0355  0.2450  0.3897
 7745SOL    HW129198   5.346   1.462   0.052  0.1472 -0.2620 -0.6403
 7745SOL    HW229199   5.301   1.604   0.080  2.9751  0.2674  1.6471
 7746SOL     OW29200   4.817   8.534   1.871  0.3783 -0.0974 -0.2594
 7746SOL    HW129201   4.753   8.584   1.820 -0.0996  0.5588  0.9380
 7746SOL    HW229202   4.860   8.477   1.807 -1.4160 -0.5792 -1.0993
 7747SOL     OW29203   0.581   1.974   9.967  0.4719 -0.3478  0.0137
 7747SOL    HW129204   0.500   1.961  10.016 -0.8251  0.2067 -1.8618
 7747SOL    HW229205   0.645   1.919  10.012 -1.5332 -2.7307  0.1656
 7748SOL     OW29206   9.749   3.161   0.217  0.1160 -0.3934 -0.1453
 7748SOL    HW129207   9.737   3.081   0.166 -1.3090  0.9837 -2.1448
 7748SOL    HW229208   9.786   3.224   0.155 -0.9166  1.1115  0.6938
 7749SOL     OW29209  11.130   1.169   2.760  0.0556 -0.2665 -0.2901
 7749SOL    HW129210  11.104   1.198   2.847  0.8064  0.9685 -0.4483
 7749SOL    HW229211  11.172   1.246   2.721 -1.2894 -0.4191 -2.1743
 7750SOL     OW29212   9.955  12.467   7.436 -0.0229 -0.0130 -0.4258
 7750SOL    HW129213  10.030  12.411   7.455 -1.0012 -0.8020  1.3376
 7750SOL    HW229214   9.889  12.407   7.399 -0.1183  0.4995 -1.1058
 7751SOL     OW29215   7.807   3.594   7.624 -0.1722  0.1951 -0.4409
 7751SOL    HW129216   7.786   3.585   7.531  1.3477  1.1098 -0.8939
 7751SOL    HW229217   7.743   3.538   7.667 -4.3531  3.5454 -1.5790
 7752SOL     OW29218   1.990   9.049  10.485  0.2964  0.3940 -0.4982
 7752SOL    HW129219   2.008   9.136  10.449  1.6330  0.7185  0.8759
 7752SOL    HW229220   1.910   9.060  10.536  0.1952  0.6881 -0.7166
 7753SOL     OW29221   0.113   7.686   8.477  0.3252  0.4105 -0.3245
 7753SOL    HW129222   0.195   7.691   8.429  0.2615  0.0513 -0.4805
 7753SOL    HW229223   0.108   7.767   8.528  0.3566  0.8252 -0.9827
 7754SOL     OW29224   4.058   7.819   1.434  0.1130  0.1866  0.4460
 7754SOL    HW129225   3.972   7.777   1.432  2.0639 -4.4092 -0.7123
 7754SOL    HW229226   4.071   7.851   1.345  0.3251 -1.0894 -0.0146
 7755SOL     OW29227  11.788   1.162   8.025 -0.1719  0.0656  0.0441
 7755SOL    HW129228  11.706   1.210   8.034  0.3913  0.7545  2.0694
 7755SOL    HW229229  11.829   1.199   7.946 -1.7146 -0.2207 -0.9374
 7756SOL     OW29230   0.393  10.283  11.271  0.0139  0.7372 -0.1708
 7756SOL    HW129231   0.391  10.353  11.337 -1.0823  0.4531  0.1119
 7756SOL    HW229232   0.328  10.220  11.301  1.0624 -0.4724 -0.3695
 7757SOL     OW29233   4.950   0.474   6.892  0.4789 -0.4933 -0.5713
 7757SOL    HW129234   4.945   0.561   6.853  1.7551 -0.3246 -0.3897
 7757SOL    HW229235   4.978   0.417   6.821 -1.7152 -1.0669 -1.0723
 7758SOL     OW29236   6.124   6.276   2.681  0.7408 -0.0187 -0.1257
 7758SOL    HW129237   6.212   6.314   2.679  0.9782 -0.5610 -0.1743
 7758SOL    HW229238   6.069   6.344   2.720  1.0077  0.6806 -0.9336
 7759SOL     OW29239   2.124   7.704   9.183 -0.9352  0.5610  0.4005
 7759SOL    HW129240   2.147   7.621   9.224 -0.9804 -0.2085 -1.0494
 7759SOL    HW229241   2.030   7.698   9.166 -0.4877 -0.2983 -2.1713
 7760SOL     OW29242   3.376   0.054   8.343 -0.2717  0.0243  0.1569
 7760SOL    HW129243   3.401   0.132   8.393 -0.2025  0.9834 -1.3229
 7760SOL    HW229244   3.280   0.055   8.345 -0.2807  0.4240 -0.2521
 7761SOL     OW29245   0.175   4.928   1.435  0.4609 -0.2311 -0.4163
 7761SOL    HW129246   0.130   4.923   1.519  0.6166  0.2404 -0.3038
 7761SOL    HW229247   0.134   5.002   1.390  1.2540  0.3406 -0.2298
 7762SOL     OW29248   3.413   8.880   2.016  0.1820  0.2571 -0.1724
 7762SOL    HW129249   3.368   8.854   2.096 -1.0817  0.8195 -0.6638
 7762SOL    HW229250   3.487   8.932   2.047  0.1395 -0.1488  0.6502
 7763SOL     OW29251   8.301   3.426   8.387  0.0781 -0.1689 -0.3068
 7763SOL    HW129252   8.375   3.475   8.423 -1.1421  2.2562 -0.8988
 7763SOL    HW229253   8.230   3.438   8.450 -0.3672 -0.9029 -0.6433
 7764SOL     OW29254   7.442   7.202   9.134  0.4368 -0.7958  0.0103
 7764SOL    HW129255   7.419   7.154   9.054 -1.2862 -2.5560  1.4446
 7764SOL    HW229256   7.363   7.251   9.155  1.8135  1.9563 -0.8175
 7765SOL     OW29257   5.396   3.850   3.845  0.1159 -0.4804 -0.2815
 7765SOL    HW129258   5.466   3.803   3.889  0.5845  1.2018  0.8430
 7765SOL    HW229259   5.317   3.797   3.862  0.5696 -0.7232  1.1866
 7766SOL     OW29260  11.750   5.601   5.617 -0.0369  0.2284 -0.1783
 7766SOL    HW129261  11.701   5.667   5.568  0.0146  1.2200  1.0466
 7766SOL    HW229262  11.802   5.652   5.680  1.2329 -0.8951 -0.2728
 7767SOL     OW29263   8.593   8.247   0.772  0.6303 -0.4578  0.4913
 7767SOL    HW129264   8.638   8.317   0.725 -0.4879  1.5183  2.1813
 7767SOL    HW229265   8.622   8.256   0.863 -0.6866 -1.2145  1.0230
 7768SOL     OW29266   3.492   0.424   1.117 -0.3016  0.6143 -0.3210
 7768SOL    HW129267   3.503   0.473   1.036  1.9855  0.8027  0.0486
 7768SOL    HW229268   3.498   0.489   1.187  2.5824 -0.0168  0.1669
 7769SOL     OW29269   0.751   1.639   7.337  0.0549  0.0238 -0.4650
 7769SOL    HW129270   0.713   1.584   7.269 -3.1891  1.5742 -0.1383
 7769SOL    HW229271   0.807   1.700   7.290  0.3110 -0.8472 -1.3327
 7770SOL     OW29272  12.100   9.367   2.994  0.2041 -0.8289 -0.4338
 7770SOL    HW129273  12.187   9.398   3.018 -0.3361  0.9625 -0.6420
 7770SOL    HW229274  12.100   9.367   2.899 -0.2444 -0.0804 -0.4444
 7771SOL     OW29275  10.620   6.064   4.471  0.0865 -0.3974 -0.6566
 7771SOL    HW129276  10.568   5.983   4.471 -0.7091  0.0105  1.9123
 7771SOL    HW229277  10.667   6.062   4.388 -1.8862 -2.1959 -1.8483
 7772SOL     OW29278   0.413   5.417   6.643 -0.0446  0.4779 -0.1768
 7772SOL    HW129279   0.439   5.502   6.677 -0.4905 -0.4778  2.8893
 7772SOL    HW229280   0.317   5.418   6.647 -0.0534 -0.1470 -0.0537
 7773SOL     OW29281  10.463  12.080   0.230  0.1046 -0.0369 -0.5627
 7773SOL    HW129282  10.370  12.058   0.229  0.4579 -1.6912 -0.2220
 7773SOL    HW229283  10.494  12.047   0.314  0.9736  0.6418 -0.6088
 7774SOL     OW29284   9.728   6.203  12.140 -0.6476  0.1797 -0.4115
 7774SOL    HW129285   9.727   6.261  12.217 -1.0507 -1.0885  0.5778
 7774SOL    HW229286   9.717   6.115  12.177 -0.1528 -0.5197 -1.8815
 7775SOL     OW29287   3.728   4.109  11.602  0.2077  0.0939  0.4318
 7775SOL    HW129288   3.698   4.184  11.551 -0.1507 -0.7218 -0.5885
 7775SOL    HW229289   3.823   4.112  11.595  0.2161 -2.0180 -3.4839
 7776SOL     OW29290  10.468   9.417   9.168  0.2684  0.3870 -0.3205
 7776SOL    HW129291  10.490   9.331   9.204 -0.7319 -0.2740 -1.2329
 7776SOL    HW229292  10.516   9.422   9.085 -0.1028  0.4819 -0.5328
 7777SOL     OW29293   6.729  10.100   0.980  0.2271 -0.6755 -1.0871
 7777SOL    HW129294   6.746  10.129   1.070 -0.5251 -2.0677 -0.4571
 7777SOL    HW229295   6.733  10.180   0.928  1.2311  0.0831  0.0935
 7778SOL     OW29296  10.784   9.974   5.383 -0.1209  0.3051  0.8895
 7778SOL    HW129297  10.795   9.879   5.390 -1.4074  0.0442 -0.2605
 7778SOL    HW229298  10.863  10.010   5.424  1.1728 -1.2818 -0.0912
 7779SOL     OW29299   6.432   5.459   5.467 -0.1154 -0.1809 -0.1641
 7779SOL    HW129300   6.352   5.408   5.474  0.1353 -0.5315  0.1876
 7779SOL    HW229301   6.404   5.549   5.480 -0.5420 -0.2393 -0.6552
 7780SOL     OW29302  10.483   2.292   4.014  0.6796  0.5636 -0.0403
 7780SOL    HW129303  10.460   2.296   4.107  1.0784 -1.8276  0.2244
 7780SOL    HW229304  10.558   2.232   4.011  0.1254 -0.0977 -2.0014
 7781SOL     OW29305   0.362   7.980   3.354  0.1222 -0.1571  0.3402
 7781SOL    HW129306   0.277   7.958   3.316  0.0272  0.4599  0.1930
 7781SOL    HW229307   0.353   7.956   3.447  0.1144 -0.9835  0.1325
 7782SOL     OW29308   1.111  11.607  10.535  0.6260 -0.4336 -0.2385
 7782SOL    HW129309   1.022  11.587  10.566 -0.6338 -1.1371 -3.8124
 7782SOL    HW229310   1.102  11.691  10.490  1.7802 -0.5259 -0.6587
 7783SOL     OW29311   9.200   1.840   8.147  0.3052  0.4333  0.3284
 7783SOL    HW129312   9.166   1.929   8.136 -2.0833 -0.2007  1.7997
 7783SOL    HW229313   9.129   1.784   8.116  0.4015 -0.9755  2.4710
 7784SOL     OW29314   4.438   0.504   6.409  0.0936 -0.6007 -0.3629
 7784SOL    HW129315   4.445   0.410   6.393 -0.4136 -0.4897 -1.3256
 7784SOL    HW229316   4.352   0.528   6.374 -0.5527 -0.0832  1.4598
 7785SOL     OW29317  10.205  11.428   9.997  0.0293 -0.1016 -0.5815
 7785SOL    HW129318  10.243  11.509  10.030 -0.6661 -0.2025  0.5137
 7785SOL    HW229319  10.188  11.376  10.075  1.4064 -1.7548 -1.2955
 7786SOL     OW29320   9.385   5.937   2.861  0.3685 -0.3785  0.4649
 7786SOL    HW129321   9.354   5.875   2.928  1.3941 -0.7591  0.6141
 7786SOL    HW229322   9.404   5.882   2.785 -0.3288 -0.0090  0.0125
 7787SOL     OW29323   7.869  10.637   5.700  0.1158 -0.2306  0.0919
 7787SOL    HW129324   7.793  10.651   5.643 -0.0757  0.6239  0.5396
 7787SOL    HW229325   7.833  10.608   5.783  0.3298 -0.4723  0.1028
 7788SOL     OW29326   8.185   2.177   5.235  0.1515 -0.0952 -0.4123
 7788SOL    HW129327   8.216   2.096   5.276  0.8771 -0.9376 -2.5095
 7788SOL    HW229328   8.157   2.232   5.309 -0.2443 -2.1824  1.0797
 7789SOL     OW29329   1.693   1.747   7.256 -0.2512 -0.4130  0.3247
 7789SOL    HW129330   1.767   1.686   7.250  1.3261  1.3020  1.2611
 7789SOL    HW229331   1.704   1.804   7.180  0.1207  0.5854  1.1090
 7790SOL     OW29332  10.226   6.188   2.360 -0.1235 -0.1007 -0.1803
 7790SOL    HW129333  10.220   6.191   2.456 -3.1440 -0.9723 -0.2412
 7790SOL    HW229334  10.232   6.279   2.334 -0.7884  0.2513  0.8205
 7791SOL     OW29335   5.742   1.491   7.927 -0.1483  0.1196 -0.0707
 7791SOL    HW129336   5.707   1.472   7.840  0.6467  0.5722 -0.5121
 7791SOL    HW229337   5.709   1.421   7.983 -1.5655  0.4196 -0.4914
 7792SOL     OW29338   9.767   1.358   6.613 -0.1374 -0.1677 -0.3218
 7792SOL    HW129339   9.807   1.359   6.526  0.5691 -1.8455 -0.0443
 7792SOL    HW229340   9.748   1.450   6.631  0.0825  0.2596 -2.0685
 7793SOL     OW29341   9.949  12.337  10.178  0.5536  0.7357  0.1313
 7793SOL    HW129342   9.987  12.422  10.199  0.7929  0.7279 -0.2538
 7793SOL    HW229343  10.021  12.288  10.137  0.1379  0.7186 -0.6079
 7794SOL     OW29344   2.708   1.544   1.793 -0.1132  0.0864 -0.1642
 7794SOL    HW129345   2.792   1.550   1.839  0.6395 -0.8190 -1.3465
 7794SOL    HW229346   2.673   1.459   1.818 -1.4839  1.0761  1.5452
 7795SOL     OW29347   4.178   3.623   4.200  0.1101  0.1918 -0.6666
 7795SOL    HW129348   4.143   3.635   4.112 -0.8626 -1.2767 -0.5081
 7795SOL    HW229349   4.149   3.700   4.249 -0.8462  0.1667 -1.1794
 7796SOL     OW29350   1.748   3.762   1.994  0.4036  0.0283  0.4976
 7796SOL    HW129351   1.749   3.725   1.905  2.5751 -3.3531  1.7617
 7796SOL    HW229352   1.839   3.786   2.011  0.1717 -0.1562  2.1032
 7797SOL     OW29353   3.251   0.702  11.278 -0.5023 -0.0928 -0.3436
 7797SOL    HW129354   3.185   0.671  11.217  0.0193 -1.3164 -0.3065
 7797SOL    HW229355   3.269   0.627  11.335  2.0769 -0.3377 -1.3697
 7798SOL     OW29356   0.520  11.733   4.091 -0.4093 -0.7093 -0.5118
 7798SOL    HW129357   0.467  11.690   4.157  0.4055 -1.3142 -0.2409
 7798SOL    HW229358   0.506  11.682   4.011 -0.0711 -1.0081 -0.3848
 7799SOL     OW29359   1.049   0.130   4.651  0.1694 -0.3403  0.5784
 7799SOL    HW129360   1.012   0.213   4.621 -0.5626 -0.3116  1.5397
 7799SOL    HW229361   1.043   0.072   4.575 -0.8673 -0.0187  0.4071
 7800SOL     OW29362  12.257   2.413   5.363  0.2243 -0.2901 -0.0134
 7800SOL    HW129363  12.216   2.499   5.357  0.9928  0.0704 -0.0807
 7800SOL    HW229364  12.345   2.429   5.396 -0.5405 -1.2990  2.7767
 7801SOL     OW29365   9.468   9.109   6.552 -0.3888  0.0810 -0.2310
 7801SOL    HW129366   9.417   9.183   6.586 -0.5805 -0.2283  0.1730
 7801SOL    HW229367   9.405   9.037   6.549 -0.4619  0.1850 -1.5798
 7802SOL     OW29368   3.836   2.685   7.645 -0.4359 -0.1889  0.0658
 7802SOL    HW129369   3.758   2.710   7.695 -0.4178  1.7562 -0.7631
 7802SOL    HW229370   3.827   2.732   7.562  1.5846  0.0725 -0.0648
 7803SOL     OW29371   0.120  10.622   6.435  0.1193 -0.2949  0.2597
 7803SOL    HW129372   0.121  10.597   6.343  0.3962 -1.2259  0.5117
 7803SOL    HW229373   0.087  10.546   6.482 -0.9872  0.5154  0.8490
 7804SOL     OW29374   6.971  11.262   9.113  0.1749 -0.1565 -0.2008
 7804SOL    HW129375   7.034  11.190   9.124  0.9585  0.3931 -1.0204
 7804SOL    HW229376   7.006  11.333   9.167 -0.0383 -0.0307 -0.2257
 7805SOL     OW29377   6.216   4.481   9.083  0.2445 -1.1877  0.3546
 7805SOL    HW129378   6.309   4.503   9.088  0.5302 -1.8417 -1.4863
 7805SOL    HW229379   6.172   4.565   9.067  0.9573 -1.3094 -2.7870
 7806SOL     OW29380   7.609   9.641   6.490  0.4179 -0.3685 -0.0376
 7806SOL    HW129381   7.672   9.619   6.559  0.6935 -0.4354 -0.3067
 7806SOL    HW229382   7.603   9.561   6.437 -1.0712 -0.9015  0.8744
 7807SOL     OW29383   1.388   3.136   2.804  0.0315  0.1312  0.3390
 7807SOL    HW129384   1.482   3.143   2.821  0.2885 -1.7574 -0.0803
 7807SOL    HW229385   1.381   3.142   2.709 -0.2034 -0.2990  0.3294
 7808SOL     OW29386   5.217   1.638   6.441  0.2537  0.5285  0.0771
 7808SOL    HW129387   5.226   1.709   6.377  2.0020  2.1598  1.9539
 7808SOL    HW229388   5.168   1.678   6.513  0.8262 -0.3364  0.9657
 7809SOL     OW29389  11.133   6.960   4.367  1.0596 -0.0527  0.0497
 7809SOL    HW129390  11.164   6.918   4.448 -0.2700 -0.4597  0.3681
 7809SOL    HW229391  11.171   6.908   4.297  0.0940 -1.3377  0.4411
 7810SOL     OW29392   3.504  11.809   3.407  0.0645  0.0732 -0.1258
 7810SOL    HW129393   3.476  11.901   3.409 -0.7532 -0.1421 -0.8865
 7810SOL    HW229394   3.422  11.760   3.406  0.4884 -0.6299 -1.0308
 7811SOL     OW29395   3.575   0.322   8.552 -0.1912  0.4166  0.1466
 7811SOL    HW129396   3.492   0.340   8.509 -0.4284  0.6042  0.6690
 7811SOL    HW229397   3.588   0.397   8.610  0.3939  0.4359 -0.0051
 7812SOL     OW29398   2.661   1.880   3.675 -0.3871 -0.3019 -0.0529
 7812SOL    HW129399   2.663   1.785   3.664 -1.3030 -0.3396 -0.0214
 7812SOL    HW229400   2.593   1.895   3.741 -0.6091  0.3947 -0.4249
 7813SOL     OW29401   6.600   0.045   4.283 -0.1366 -0.1223 -0.0036
 7813SOL    HW129402   6.533   0.003   4.338  1.9017 -0.5460  2.3113
 7813SOL    HW229403   6.629   0.120   4.335  2.6252 -1.1433  0.0753
 7814SOL     OW29404   9.219   4.311   0.686  0.8346  0.0571 -0.0473
 7814SOL    HW129405   9.305   4.355   0.690  0.5319  0.6612  0.0214
 7814SOL    HW229406   9.239   4.222   0.657  1.5432  0.0335  0.4673
 7815SOL     OW29407   9.803   5.005   6.182  0.3852 -0.0922  0.4699
 7815SOL    HW129408   9.813   4.982   6.275 -0.4281  0.7533  0.7862
 7815SOL    HW229409   9.767   5.094   6.184 -0.1774 -0.2874 -0.6527
 7816SOL     OW29410   6.941   5.731   9.025  0.1566 -0.0346 -0.2489
 7816SOL    HW129411   7.005   5.801   9.013  0.3080 -0.2677 -0.8707
 7816SOL    HW229412   6.875   5.768   9.083 -2.0118  2.1971 -3.7423
 7817SOL     OW29413   9.428   8.864  10.121  0.4136 -0.3942 -0.3677
 7817SOL    HW129414   9.469   8.945  10.090 -1.2716  0.3067 -0.9101
 7817SOL    HW229415   9.458   8.855  10.211  2.7437 -0.6460 -1.1066
 7818SOL     OW29416   6.776   4.496   6.731 -0.4149  0.7408  0.0062
 7818SOL    HW129417   6.739   4.423   6.682  1.7300  0.9264 -2.0468
 7818SOL    HW229418   6.810   4.555   6.664  1.5078  1.6393  1.6793
 7819SOL     OW29419   2.453   2.263   9.196 -0.2676  0.1212  0.2558
 7819SOL    HW129420   2.475   2.350   9.164 -1.3652  0.6952  1.0118
 7819SOL    HW229421   2.466   2.206   9.120  2.9312  0.5024  0.4220
 7820SOL     OW29422   2.263  11.620   8.104 -0.2720 -0.1397  0.2424
 7820SOL    HW129423   2.202  11.690   8.081  0.7239  0.8102  0.3945
 7820SOL    HW229424   2.234  11.591   8.191 -1.2736 -0.5837 -0.2321
 7821SOL     OW29425   0.151  11.325   5.971  0.0560 -0.1235 -0.5125
 7821SOL    HW129426   0.068  11.328   5.924 -0.3789  0.1267  0.2658
 7821SOL    HW229427   0.127  11.328   6.064  1.0335  3.6378 -0.2375
 7822SOL     OW29428   3.380   0.907   6.104  0.8215  0.0590 -0.1434
 7822SOL    HW129429   3.361   0.861   6.185  1.4621  0.0390  0.0057
 7822SOL    HW229430   3.442   0.850   6.058 -0.8712 -0.7909 -1.4850
 7823SOL     OW29431   5.577   3.537   9.872 -0.6663 -0.8182 -0.1496
 7823SOL    HW129432   5.539   3.564   9.956  1.7724  1.6660  0.3088
 7823SOL    HW229433   5.543   3.599   9.808 -0.0336 -0.6746 -0.3577
 7824SOL     OW29434   7.574   2.108  10.052  0.1824 -0.0957  0.7399
 7824SOL    HW129435   7.513   2.113   9.978  2.1349 -0.5244 -0.9638
 7824SOL    HW229436   7.609   2.019  10.049  1.9948  0.5759  0.7378
 7825SOL     OW29437   0.608  11.606   6.098  0.0713 -0.2449  0.5423
 7825SOL    HW129438   0.521  11.580   6.067  0.3868 -1.5629  0.7273
 7825SOL    HW229439   0.625  11.690   6.055 -1.1157 -0.1750  0.1913
 7826SOL     OW29440   5.159   9.594   4.042  0.8892 -0.4735 -0.2897
 7826SOL    HW129441   5.145   9.534   3.969  0.7065 -0.5062 -0.2292
 7826SOL    HW229442   5.084   9.653   4.039  0.8695 -0.4868 -0.1181
 7827SOL     OW29443   1.170   3.980   9.489 -0.0584  0.2943  0.1763
 7827SOL    HW129444   1.205   4.047   9.431  0.7035 -0.4038 -0.1911
 7827SOL    HW229445   1.085   3.958   9.451 -0.5184  1.3575  0.5579
 7828SOL     OW29446  10.142   4.637   3.125  0.1294  0.6034  0.3027
 7828SOL    HW129447  10.213   4.689   3.089 -0.6755  0.2394 -1.9421
 7828SOL    HW229448  10.120   4.575   3.056  0.0746 -1.7807  2.3143
 7829SOL     OW29449   5.488  11.077   0.636 -0.2544 -0.8283 -0.2800
 7829SOL    HW129450   5.520  11.150   0.583 -0.3531  0.0820  0.8898
 7829SOL    HW229451   5.410  11.046   0.590 -0.2416 -0.1623 -0.7622
 7830SOL     OW29452   1.581   6.797  11.663  0.2927 -0.1027  0.3539
 7830SOL    HW129453   1.566   6.756  11.748 -0.0182 -1.3909 -0.2863
 7830SOL    HW229454   1.614   6.726  11.608 -2.8577 -0.2514 -1.5639
 7831SOL     OW29455   0.551   0.478   2.276  0.5585  0.6027 -0.3599
 7831SOL    HW129456   0.634   0.519   2.300  0.1372  1.1119  0.2630
 7831SOL    HW229457   0.502   0.474   2.358 -0.4656  1.3090 -0.9138
 7832SOL     OW29458   2.189   1.411   9.580 -0.0453  0.3413 -0.2979
 7832SOL    HW129459   2.204   1.481   9.644  1.1517  0.5613 -0.8082
 7832SOL    HW229460   2.268   1.358   9.583 -0.9272 -1.0147  0.0749
 7833SOL     OW29461   0.997   8.410   1.217 -0.6341 -0.2436  0.0568
 7833SOL    HW129462   0.922   8.351   1.223 -0.9721  0.2407  0.8221
 7833SOL    HW229463   1.069   8.355   1.186 -1.4686 -0.5592 -1.3967
 7834SOL     OW29464  12.117   7.289   0.337  0.0409  0.4195  0.6397
 7834SOL    HW129465  12.071   7.354   0.283 -1.8506 -1.2744  0.1180
 7834SOL    HW229466  12.210   7.312   0.326 -0.4468  1.8692 -1.0556
 7835SOL     OW29467  10.418   6.331   7.615  0.2692 -0.0253 -0.4825
 7835SOL    HW129468  10.330   6.344   7.651  0.3983  0.6630 -0.4073
 7835SOL    HW229469  10.403   6.296   7.527 -0.0867  0.2449 -0.5309
 7836SOL     OW29470   8.488   9.161   1.792 -0.0354  0.1540  0.1842
 7836SOL    HW129471   8.451   9.075   1.777 -2.4646  1.3618 -1.3879
 7836SOL    HW229472   8.504   9.165   1.886 -0.1237 -1.8740  0.3163
 7837SOL     OW29473   0.822   7.818   7.641  0.5755  0.1176 -0.5277
 7837SOL    HW129474   0.882   7.765   7.588 -0.2300  0.1937 -1.5351
 7837SOL    HW229475   0.736   7.803   7.602 -0.2816 -0.9084  1.5998
 7838SOL     OW29476   3.103   1.194   2.547  0.0067  0.3604 -0.2401
 7838SOL    HW129477   3.011   1.192   2.572  0.2265 -0.0001  0.5998
 7838SOL    HW229478   3.125   1.102   2.529 -0.6542  0.7865 -3.8711
 7839SOL     OW29479   3.562   9.520   8.074  0.8714 -0.1240 -0.3895
 7839SOL    HW129480   3.558   9.541   7.981 -0.6380 -2.2755 -0.8759
 7839SOL    HW229481   3.482   9.558   8.110  1.2431  0.3359 -0.0361
 7840SOL     OW29482   4.436   5.128  10.474  0.0184  0.5364  0.0591
 7840SOL    HW129483   4.375   5.108  10.403 -0.0228  1.5963 -0.2150
 7840SOL    HW229484   4.429   5.053  10.533 -1.4333  0.5619 -0.0472
 7841SOL     OW29485   6.987  12.225  10.955  0.3567 -0.4181 -0.1238
 7841SOL    HW129486   6.904  12.271  10.947  0.5808 -0.0211 -0.2144
 7841SOL    HW229487   7.052  12.295  10.966  0.6975 -0.7143 -0.2387
 7842SOL     OW29488   8.326  10.542   2.688 -0.2493  0.4043  0.1441
 7842SOL    HW129489   8.404  10.593   2.664 -0.5585  2.1418  2.4693
 7842SOL    HW229490   8.256  10.580   2.635 -0.1543  1.2692  0.6180
 7843SOL     OW29491   1.354   9.866   4.061 -0.0591  0.3190  0.0248
 7843SOL    HW129492   1.403   9.840   3.982 -0.7020 -0.5374 -0.1092
 7843SOL    HW229493   1.277   9.808   4.061  0.0549  0.1447  1.4137
 7844SOL     OW29494   7.449   5.525   4.157  0.0584  0.5457 -0.7497
 7844SOL    HW129495   7.470   5.563   4.242  0.3631 -0.6348 -0.2705
 7844SOL    HW229496   7.485   5.587   4.094  3.4292 -0.3790  0.0110
 7845SOL     OW29497  12.174   5.255   7.893 -0.2331  0.3658  0.2515
 7845SOL    HW129498  12.233   5.245   7.968 -0.4153 -0.7887  0.2602
 7845SOL    HW229499  12.225   5.306   7.830  1.6090 -2.2353 -0.5513
 7846SOL     OW29500   8.057  12.147   5.324 -0.7097 -0.7087 -0.8711
 7846SOL    HW129501   8.106  12.070   5.353  0.9896  0.3566 -0.8404
 7846SOL    HW229502   8.075  12.152   5.230 -2.1942 -1.2827 -1.2225
 7847SOL     OW29503   5.976   9.803   9.437  0.5412 -0.2228 -0.1625
 7847SOL    HW129504   6.029   9.754   9.499  0.3254  0.6504  0.7365
 7847SOL    HW229505   5.924   9.863   9.492  0.3538  0.5731 -1.1812
 7848SOL     OW29506   8.684   8.691   4.467  0.1003  0.3557 -0.2943
 7848SOL    HW129507   8.764   8.702   4.518 -1.0680  1.2706  1.4269
 7848SOL    HW229508   8.623   8.649   4.527 -1.2537  1.2431 -1.0087
 7849SOL     OW29509  10.991   7.189  10.058  0.9778 -0.2081  0.6750
 7849SOL    HW129510  10.978   7.258   9.992  1.1224 -0.1502  0.7069
 7849SOL    HW229511  10.918   7.129  10.044 -0.0429  0.7340  1.6256
 7850SOL     OW29512   4.112   8.725   6.538 -0.0368 -0.6829  0.3236
 7850SOL    HW129513   4.057   8.800   6.563  0.1011 -0.9495  1.4756
 7850SOL    HW229514   4.162   8.757   6.463  0.2074  0.4843  0.9504
 7851SOL     OW29515   7.199   6.503  12.386  0.2684  0.2382 -0.6219
 7851SOL    HW129516   7.215   6.425  12.333  2.5682  0.2034  0.0611
 7851SOL    HW229517   7.279   6.554  12.380  0.3645  0.5964  2.2021
 7852SOL     OW29518   2.051  10.968   8.357 -0.5071 -0.0065  0.2088
 7852SOL    HW129519   1.970  10.944   8.313  0.6951 -0.3338 -1.9931
 7852SOL    HW229520   2.117  10.910   8.319  0.5061 -1.0517  3.2661
 7853SOL     OW29521  10.155   7.640   8.677  0.6998  0.1809  0.3615
 7853SOL    HW129522  10.147   7.720   8.624  0.6435  0.8896  1.4233
 7853SOL    HW229523  10.245   7.610   8.660  0.7420  0.4963  0.0075
 7854SOL     OW29524   0.842   8.531   4.078 -0.6501  0.7836  0.5122
 7854SOL    HW129525   0.925   8.523   4.125  1.7823 -0.5495 -3.5109
 7854SOL    HW229526   0.819   8.624   4.087  2.3658  1.6677  0.2203
 7855SOL     OW29527   2.006   2.987  12.072 -0.4348 -0.1677 -0.2537
 7855SOL    HW129528   2.041   3.039  12.000  1.0769 -0.2988  0.3508
 7855SOL    HW229529   2.035   3.032  12.151 -1.9506 -0.1089  0.2927
 7856SOL     OW29530   5.583   9.229   4.556 -0.2719 -0.5262  0.8002
 7856SOL    HW129531   5.664   9.235   4.505 -1.1952  2.2694 -0.5481
 7856SOL    HW229532   5.569   9.135   4.568  2.5094 -1.1320  0.0617
 7857SOL     OW29533   2.012  10.884   2.199  0.0941  0.2300 -0.2572
 7857SOL    HW129534   1.982  10.937   2.125  0.5813  1.2031  0.2256
 7857SOL    HW229535   1.955  10.909   2.271  0.4085  0.1985  0.0054
 7858SOL     OW29536   1.618  10.134   6.042  0.0256  0.1155 -0.6795
 7858SOL    HW129537   1.685  10.201   6.031  0.3736  0.3149  1.9468
 7858SOL    HW229538   1.667  10.055   6.066 -0.5821 -0.1985 -0.4595
 7859SOL     OW29539  10.477   2.734   5.857 -0.1520 -0.0665  0.2675
 7859SOL    HW129540  10.531   2.741   5.778  0.7617 -0.4309  0.8415
 7859SOL    HW229541  10.388   2.748   5.826  0.1379 -0.6827 -0.9143
 7860SOL     OW29542   9.748   7.761   5.307  0.5905 -0.6841  0.0702
 7860SOL    HW129543   9.784   7.680   5.344 -1.2704 -1.9347 -0.7065
 7860SOL    HW229544   9.654   7.748   5.308  0.3043  0.9907 -1.1827
 7861SOL     OW29545   8.208   7.609   2.690  0.3567  0.5655  0.1024
 7861SOL    HW129546   8.292   7.617   2.646 -0.8529  0.9729 -2.2793
 7861SOL    HW229547   8.155   7.682   2.656 -2.0215 -1.5458 -1.0885
 7862SOL     OW29548   0.429   8.066   7.410 -0.1586 -0.5075 -0.1501
 7862SOL    HW129549   0.479   8.007   7.354  0.9960  0.0366  0.2568
 7862SOL    HW229550   0.445   8.153   7.372  0.3890 -0.1679  0.8091
 7863SOL     OW29551   5.093   6.337   7.376 -0.3684  0.4315 -0.7810
 7863SOL    HW129552   5.085   6.242   7.373  2.6399  0.0520  0.1040
 7863SOL    HW229553   5.133   6.360   7.292  1.0638  0.6138 -0.0586
 7864SOL     OW29554   7.065   9.035   1.352  0.2331  0.3294 -0.1199
 7864SOL    HW129555   7.104   8.952   1.378 -2.2258 -1.8785 -2.7749
 7864SOL    HW229556   7.112   9.060   1.272  0.4541  1.1292  0.2456
 7865SOL     OW29557   7.334   9.455   3.353 -0.6067  0.4060  0.1985
 7865SOL    HW129558   7.309   9.534   3.305 -1.6542 -0.0805 -0.0929
 7865SOL    HW229559   7.385   9.487   3.427  1.2870  1.1709 -1.3320
 7866SOL     OW29560  12.133   8.903   5.393  0.3257 -0.0201  0.6250
 7866SOL    HW129561  12.117   8.809   5.384 -0.9831  0.2523 -0.3112
 7866SOL    HW229562  12.226   8.910   5.414  0.2560 -1.5581  1.5795
 7867SOL     OW29563  12.272   4.327   2.377 -0.1831  0.9062  0.0099
 7867SOL    HW129564  12.295   4.286   2.460  2.0850  1.7976 -0.1189
 7867SOL    HW229565  12.234   4.256   2.324  0.5678 -0.2191  0.9499
 7868SOL     OW29566   4.583   9.169  10.047 -0.1394  0.9209  0.5882
 7868SOL    HW129567   4.509   9.213  10.006 -1.2385 -0.0955  1.4150
 7868SOL    HW229568   4.655   9.179   9.984 -1.3158  0.8420 -0.8065
 7869SOL     OW29569  12.240   7.674   1.454 -0.3305 -0.5679  0.0838
 7869SOL    HW129570  12.162   7.645   1.407 -0.6606 -0.3418  0.4794
 7869SOL    HW229571  12.207   7.737   1.519  0.3105  0.3305 -0.4340
 7870SOL     OW29572  10.894   4.067   5.454  0.0113 -0.1869  0.6493
 7870SOL    HW129573  10.989   4.070   5.453  0.0556 -1.2650 -0.6865
 7870SOL    HW229574  10.867   4.121   5.379 -0.3145 -1.8294 -0.4636
 7871SOL     OW29575   4.261   2.334  11.552 -0.0056 -0.3569 -0.3561
 7871SOL    HW129576   4.214   2.413  11.579  1.0214  0.1356  0.0270
 7871SOL    HW229577   4.193   2.267  11.546 -0.4450 -0.2885  2.6387
 7872SOL     OW29578   1.848   7.424   7.214 -0.4904  0.8478 -0.1204
 7872SOL    HW129579   1.844   7.406   7.120 -0.0277  2.2354 -0.4376
 7872SOL    HW229580   1.864   7.339   7.254 -1.6856  0.0620 -1.2043
 7873SOL     OW29581   3.811   5.308   6.381  0.0289  0.1471  0.8842
 7873SOL    HW129582   3.759   5.388   6.380 -2.3628 -1.2932  0.8325
 7873SOL    HW229583   3.774   5.254   6.310 -1.7059 -2.8462  3.7903
 7874SOL     OW29584  11.492   2.467   2.489 -0.0572 -0.4710  0.1135
 7874SOL    HW129585  11.425   2.419   2.538 -0.0616 -0.5155  0.0635
 7874SOL    HW229586  11.531   2.526   2.554 -0.4853 -0.0889  0.0272
 7875SOL     OW29587   9.712   3.510   7.079 -0.1165  0.0320  0.1654
 7875SOL    HW129588   9.776   3.526   7.010  0.3836 -0.0801  0.5955
 7875SOL    HW229589   9.627   3.521   7.036  0.1463 -1.7239 -0.8820
 7876SOL     OW29590   2.655  11.862   0.801 -0.7145  0.2009  0.0794
 7876SOL    HW129591   2.717  11.924   0.765 -0.2777  0.0504  0.5558
 7876SOL    HW229592   2.577  11.914   0.821 -0.2467  0.6540  0.7481
 7877SOL     OW29593   2.425   7.112  10.872 -0.2184 -0.2235 -0.2053
 7877SOL    HW129594   2.414   7.117  10.967  1.7020 -1.9228  0.1835
 7877SOL    HW229595   2.424   7.018  10.853 -1.1211  0.0998 -1.9677
 7878SOL     OW29596   4.531   7.903   0.470 -0.2771 -0.4444 -0.4448
 7878SOL    HW129597   4.600   7.863   0.523  0.9636  2.4686  0.3417
 7878SOL    HW229598   4.486   7.964   0.530 -0.6690  0.8876 -2.0068
 7879SOL     OW29599  12.125   9.973   6.499 -0.0251 -0.4520  0.4088
 7879SOL    HW129600  12.092   9.924   6.423  0.2597  1.0741 -0.7463
 7879SOL    HW229601  12.216   9.944   6.508  0.8387  1.3170 -1.6329
 7880SOL     OW29602   3.735   6.335   8.234  0.3239  0.1251  0.2831
 7880SOL    HW129603   3.705   6.245   8.245 -0.1802  0.4462  1.8317
 7880SOL    HW229604   3.807   6.344   8.297  1.5601  0.3241 -1.0842
 7881SOL     OW29605   6.694   3.874   5.192 -0.0925  0.0028 -0.1756
 7881SOL    HW129606   6.743   3.804   5.147 -0.2631 -0.5801  0.5209
 7881SOL    HW229607   6.697   3.948   5.132  0.0227 -0.6359 -0.9701
 7882SOL     OW29608   5.882   9.726   4.383 -0.0425  0.3393  0.3458
 7882SOL    HW129609   5.800   9.740   4.336 -0.0644 -0.2958  0.1783
 7882SOL    HW229610   5.946   9.706   4.314 -0.0720 -0.5896  0.5668
 7883SOL     OW29611   9.746   5.637   0.283  0.4033 -0.2008  0.1506
 7883SOL    HW129612   9.667   5.691   0.283 -0.7562 -1.8129  0.9096
 7883SOL    HW229613   9.756   5.609   0.374  1.4797 -0.5610 -0.0613
 7884SOL     OW29614   7.027  12.446   3.359  0.3159  0.3101  0.2862
 7884SOL    HW129615   7.117  12.449   3.391 -0.6020  1.5825  2.9961
 7884SOL    HW229616   7.015  12.529   3.313  0.8962 -0.4869 -1.4013
 7885SOL     OW29617  10.094   4.207   5.876 -0.0734  0.3901 -0.0783
 7885SOL    HW129618   9.998   4.213   5.875 -0.0902  0.2504 -1.6667
 7885SOL    HW229619  10.112   4.115   5.895 -0.1774  0.8490  2.5674
 7886SOL     OW29620   8.409   5.236   7.215  0.6107  0.1689 -0.0359
 7886SOL    HW129621   8.325   5.223   7.172  0.2980  3.2526 -0.6309
 7886SOL    HW229622   8.396   5.201   7.303 -1.0847 -0.0340 -0.3248
 7887SOL     OW29623   8.574   6.015   9.641  0.0319 -0.3686  0.3029
 7887SOL    HW129624   8.518   5.939   9.625 -1.2118  0.5494  0.1556
 7887SOL    HW229625   8.605   6.041   9.555 -0.6033  0.0558  0.1912
 7888SOL     OW29626   6.540   7.702   9.316  0.5221 -0.2610 -0.0264
 7888SOL    HW129627   6.585   7.624   9.282  1.4769 -0.4345  1.5112
 7888SOL    HW229628   6.590   7.725   9.395 -0.4609  1.2158  0.1945
 7889SOL     OW29629   7.946   2.315   0.309 -0.0528  0.1020  0.5056
 7889SOL    HW129630   7.987   2.353   0.386 -0.7016  1.2507  0.3017
 7889SOL    HW229631   8.018   2.297   0.249  0.6730 -2.3948  1.9813
 7890SOL     OW29632  11.638  10.958   1.480 -0.4964 -0.3656  0.2443
 7890SOL    HW129633  11.672  11.004   1.557  0.6069 -3.9704  2.1552
 7890SOL    HW229634  11.713  10.954   1.420 -0.4640 -0.0729  0.2636
 7891SOL     OW29635   9.168  11.457  10.837  0.3423 -0.7720 -0.0845
 7891SOL    HW129636   9.175  11.364  10.859 -1.2984 -0.2698  3.2666
 7891SOL    HW229637   9.076  11.478  10.852  0.8575  1.5625  0.0970
 7892SOL     OW29638   3.332   2.251   7.599 -0.1017  0.5325  0.2233
 7892SOL    HW129639   3.384   2.191   7.545 -1.9254  0.3155 -1.4078
 7892SOL    HW229640   3.387   2.328   7.610  0.6143  0.2840 -1.3917
 7893SOL     OW29641   9.599   7.567  11.271 -0.3539 -0.3320  0.3721
 7893SOL    HW129642   9.537   7.613  11.214 -0.5544  0.5552  1.2690
 7893SOL    HW229643   9.565   7.477  11.276 -1.6494  0.1562  0.9284
 7894SOL     OW29644   6.761   5.042  10.679 -0.7554 -0.4079 -0.2428
 7894SOL    HW129645   6.716   5.121  10.651 -2.0942 -0.9977  0.1621
 7894SOL    HW229646   6.734   4.974  10.617  0.9290 -0.4330 -1.0136
 7895SOL     OW29647   7.305   4.874   2.364  0.6688 -0.0351 -0.3607
 7895SOL    HW129648   7.375   4.886   2.429 -0.4959 -0.4360  1.0060
 7895SOL    HW229649   7.233   4.928   2.397 -0.3113 -1.0778 -0.7675
 7896SOL     OW29650   6.456   1.796   9.751  0.1990 -0.1790 -0.5713
 7896SOL    HW129651   6.409   1.729   9.700 -0.4496 -0.3773  0.2721
 7896SOL    HW229652   6.531   1.750   9.788  0.4959 -0.1115 -1.0844
 7897SOL     OW29653   8.750   3.051   1.466 -0.4186 -0.0503  0.1712
 7897SOL    HW129654   8.765   3.108   1.392  2.8803 -0.4206  0.4325
 7897SOL    HW229655   8.742   2.963   1.428 -0.4714 -0.0286  0.1322
 7898SOL     OW29656  10.477   9.461   0.553  0.5200  0.4594 -0.1838
 7898SOL    HW129657  10.394   9.417   0.573  0.4616  0.9524  0.6784
 7898SOL    HW229658  10.475   9.472   0.458 -1.1092  1.7863 -0.0504
 7899SOL     OW29659   8.574   0.633   0.240  0.0953 -0.3059 -0.1113
 7899SOL    HW129660   8.524   0.711   0.216 -1.4460 -0.4982  2.2035
 7899SOL    HW229661   8.664   0.663   0.245 -0.4356  1.3027  0.5206
 7900SOL     OW29662   6.588   1.009   6.891  0.4218 -0.2985  0.4820
 7900SOL    HW129663   6.587   1.000   6.796 -0.4626  0.8623  0.3604
 7900SOL    HW229664   6.657   1.073   6.909 -0.9185  1.2235  0.4127
 7901SOL     OW29665  10.442  10.832   5.770  0.4442  0.4083  0.5527
 7901SOL    HW129666  10.501  10.903   5.745  2.5734 -1.1735  0.7360
 7901SOL    HW229667  10.501  10.763   5.802 -1.6214 -0.8756  1.7872
 7902SOL     OW29668   1.127   1.984   8.943 -0.0375 -0.3570  0.0615
 7902SOL    HW129669   1.124   1.892   8.970 -0.5097 -0.6351 -0.9013
 7902SOL    HW229670   1.100   2.032   9.020 -0.7192 -1.0917  0.3017
 7903SOL     OW29671  10.038   1.093   0.392  0.2219  0.3815 -0.4767
 7903SOL    HW129672  10.032   1.128   0.303  0.0269  0.2687 -0.5088
 7903SOL    HW229673   9.984   1.014   0.390 -0.2949  0.7212 -0.0865
 7904SOL     OW29674   6.385   8.858   2.687  0.1590 -0.2698 -0.2596
 7904SOL    HW129675   6.319   8.906   2.737  0.4945 -0.0694 -0.0053
 7904SOL    HW229676   6.357   8.866   2.596  1.8452  3.1366 -0.6353
 7905SOL     OW29677   7.374  10.973   6.882 -0.0666  0.0365  0.0602
 7905SOL    HW129678   7.382  10.970   6.787 -0.6594  2.2858 -0.1257
 7905SOL    HW229679   7.345  10.885   6.907 -1.0794 -0.2567 -1.9636
 7906SOL     OW29680   2.640   9.786   0.848 -0.4240 -0.3514 -0.4425
 7906SOL    HW129681   2.581   9.807   0.921  0.9385 -1.3279  1.0022
 7906SOL    HW229682   2.686   9.869   0.831 -0.2013 -0.2984  0.3549
 7907SOL     OW29683   4.275   7.167   0.951  0.2951  0.9289 -0.0267
 7907SOL    HW129684   4.365   7.195   0.939  0.3816  0.9235  0.5650
 7907SOL    HW229685   4.244   7.146   0.863  1.3195 -0.4140 -0.1141
 7908SOL     OW29686   0.501   4.035   6.705 -0.3511  0.6136  0.2036
 7908SOL    HW129687   0.453   4.092   6.644 -1.9138 -0.7167  0.1041
 7908SOL    HW229688   0.493   3.948   6.666 -2.3746 -0.5042  2.7818
 7909SOL     OW29689  10.318   6.731   7.105 -0.2419  0.1992 -0.0059
 7909SOL    HW129690  10.354   6.817   7.083  0.3962 -0.2667 -0.8199
 7909SOL    HW229691  10.225   6.749   7.124  0.5409  1.5999  3.2643
 7910SOL     OW29692   8.659  11.430   5.701  0.6250  0.3945  0.3873
 7910SOL    HW129693   8.695  11.359   5.754  2.6609  0.4201 -0.8585
 7910SOL    HW229694   8.586  11.391   5.654  2.7271 -1.4521 -1.5781
 7911SOL     OW29695  12.033  11.301   2.297 -0.6338  0.3293  0.0118
 7911SOL    HW129696  12.001  11.288   2.386 -1.0763  0.5991 -0.1058
 7911SOL    HW229697  12.067  11.215   2.271 -0.2572  0.3152  0.5335
 7912SOL     OW29698   9.500   6.829  12.251 -0.4829  0.3013 -0.0397
 7912SOL    HW129699   9.544   6.865  12.328 -0.5058 -0.4416  0.3366
 7912SOL    HW229700   9.563   6.841  12.180 -0.2755  0.5892  0.1902
 7913SOL     OW29701   7.462  11.910   4.595  0.4345  0.5288  0.0239
 7913SOL    HW129702   7.390  11.850   4.616  0.6459  1.0662  2.6746
 7913SOL    HW229703   7.537  11.853   4.579 -0.1255  0.0242 -0.8701
 7914SOL     OW29704   6.078   3.654  12.268  0.2040 -0.0917 -0.0030
 7914SOL    HW129705   6.088   3.644  12.363  1.8481  0.6322 -0.0707
 7914SOL    HW229706   6.168   3.660  12.235 -0.3586  0.2159 -1.5580
 7915SOL     OW29707  10.561  10.610   7.333  0.0857  0.0525  0.2297
 7915SOL    HW129708  10.537  10.583   7.244 -0.9595  4.1175 -0.9286
 7915SOL    HW229709  10.485  10.588   7.386 -0.7490  0.6841 -0.6652
 7916SOL     OW29710   5.930   3.029  12.228  0.2671  0.0458  0.1494
 7916SOL    HW129711   5.891   3.046  12.142  0.7524 -0.4060 -0.1636
 7916SOL    HW229712   6.009   2.978  12.209  0.1323 -0.4508  0.8968
 7917SOL     OW29713  10.247   4.978  12.250  0.2861 -0.4062  0.1619
 7917SOL    HW129714  10.219   4.952  12.338  0.8010 -2.1401 -0.1440
 7917SOL    HW229715  10.338   5.005  12.261  0.0819  0.2349  0.3020
 7918SOL     OW29716   9.822   4.494  12.119 -0.1904  0.1338  0.1057
 7918SOL    HW129717   9.873   4.503  12.199  0.5457 -1.2984 -0.1767
 7918SOL    HW229718   9.827   4.401  12.097 -1.0057  0.3699 -1.1911
 7919SOL     OW29719   5.465  12.299   8.410 -0.2231  0.2062 -0.1830
 7919SOL    HW129720   5.429  12.370   8.356 -0.7326  0.3858  0.3768
 7919SOL    HW229721   5.464  12.334   8.499 -1.6087 -0.9082  0.2837
 7920SOL     OW29722  11.523   3.999   3.764 -0.1225  0.5697  0.7916
 7920SOL    HW129723  11.512   4.087   3.728 -0.0261  1.2838  2.4064
 7920SOL    HW229724  11.498   4.007   3.856  0.8582 -0.8557  1.2239
 7921SOL     OW29725   6.943   2.844   0.706 -0.0645  0.2486  0.3944
 7921SOL    HW129726   6.949   2.921   0.762 -0.5595 -1.5785  3.2265
 7921SOL    HW229727   6.849   2.829   0.696 -0.0156 -0.7903  1.2141
 7922SOL     OW29728  11.162   0.909   4.970 -0.3739  0.0386  0.2214
 7922SOL    HW129729  11.151   0.956   5.052  1.5214  0.2125  0.4296
 7922SOL    HW229730  11.241   0.946   4.931  0.6220 -2.2469 -0.1073
 7923SOL     OW29731  11.426   3.548   2.290  0.1630 -0.0911  0.2464
 7923SOL    HW129732  11.396   3.551   2.380 -0.1697  1.0032  0.1063
 7923SOL    HW229733  11.522   3.540   2.296  0.2879  1.4942  0.7129
 7924SOL     OW29734   9.938  10.669   2.735  0.0679 -0.5101  0.1256
 7924SOL    HW129735   9.966  10.759   2.747 -0.0187 -0.2564 -1.3370
 7924SOL    HW229736   9.860  10.660   2.791  0.5289  0.0747  0.8686
 7925SOL     OW29737   4.734   0.736  12.412  0.3452  0.2578 -0.3828
 7925SOL    HW129738   4.824   0.743  12.379  0.2646 -0.7557 -0.8533
 7925SOL    HW229739   4.701   0.825  12.410  1.8522  0.9235  1.2951
 7926SOL     OW29740   8.622   4.656   0.097 -0.0243 -0.1863 -0.5929
 7926SOL    HW129741   8.569   4.729   0.066  0.0317  0.2835  0.3561
 7926SOL    HW229742   8.559   4.593   0.131 -0.0402 -0.2431 -0.7290
 7927SOL     OW29743   8.568   7.287   7.474 -0.3668 -0.6892 -0.3270
 7927SOL    HW129744   8.604   7.265   7.560  0.9475  1.0216 -0.3760
 7927SOL    HW229745   8.645   7.310   7.422 -1.3289  0.5815 -1.2462
 7928SOL     OW29746  11.732   3.414   6.239 -0.1527 -0.2982 -0.2876
 7928SOL    HW129747  11.757   3.482   6.176  0.5406 -0.7644 -0.5315
 7928SOL    HW229748  11.737   3.457   6.324  1.3136 -0.2995 -0.3461
 7929SOL     OW29749   4.915   2.465   5.331  0.2266 -0.3804  0.1786
 7929SOL    HW129750   4.976   2.392   5.345  0.6003 -0.1701 -0.3124
 7929SOL    HW229751   4.947   2.507   5.251  0.1328  0.4386  0.5677
 7930SOL     OW29752   0.025   7.305   3.091  0.0787 -0.3145 -0.2699
 7930SOL    HW129753   0.069   7.262   3.017  1.6388 -0.8364  0.9018
 7930SOL    HW229754   0.071   7.272   3.168 -1.7090 -0.0317  0.9831
 7931SOL     OW29755   6.098   5.728   4.989  0.1384 -0.4824  0.2929
 7931SOL    HW129756   6.032   5.669   4.952 -0.0813  0.5396 -1.0360
 7931SOL    HW229757   6.182   5.688   4.966 -0.0029 -0.0490 -1.0181
 7932SOL     OW29758   3.381   2.004   3.029 -0.2472 -0.2261 -0.3455
 7932SOL    HW129759   3.474   2.000   3.051 -0.2033 -0.6143 -0.5850
 7932SOL    HW229760   3.345   2.069   3.090  0.1117 -0.3315 -0.0106
 7933SOL     OW29761   3.682  11.963  10.469 -0.8207 -0.3395  0.0453
 7933SOL    HW129762   3.707  11.967  10.561  2.9169 -1.0728 -0.7566
 7933SOL    HW229763   3.736  12.030  10.427 -0.9388 -1.3701 -1.8625
 7934SOL     OW29764  10.210   9.751   3.921  0.3204 -0.1805  0.2540
 7934SOL    HW129765  10.211   9.691   3.996  0.8879 -0.1220  0.2906
 7934SOL    HW229766  10.249   9.832   3.954  0.8074 -0.2383 -0.1731
 7935SOL     OW29767  11.940  10.405   2.569 -0.0074  0.3174  0.3562
 7935SOL    HW129768  11.984  10.487   2.594  2.0538 -0.0972 -1.5790
 7935SOL    HW229769  11.932  10.356   2.651  2.1741  0.9011  0.9776
 7936SOL     OW29770   3.335  10.153  10.985  0.3503 -0.1297 -0.2971
 7936SOL    HW129771   3.380  10.222  11.034 -0.7868 -0.3182  1.0859
 7936SOL    HW229772   3.280  10.109  11.051 -1.2501 -0.3881 -1.7358
 7937SOL     OW29773   9.489   6.911   8.611  0.0050  0.4930 -0.0923
 7937SOL    HW129774   9.512   6.840   8.551  2.9400  0.0174  1.4139
 7937SOL    HW229775   9.487   6.869   8.697 -2.0332  1.5550  0.4280
 7938SOL     OW29776   0.364   7.308   0.486  0.1875  0.2966 -0.4299
 7938SOL    HW129777   0.415   7.236   0.449  0.3919  0.2324 -0.0255
 7938SOL    HW229778   0.415   7.387   0.466  1.2997  0.0841  1.4136
 7939SOL     OW29779   5.833   1.076   2.111  0.3030  0.1292  0.1659
 7939SOL    HW129780   5.798   1.091   2.199 -0.6715  2.1935 -0.5164
 7939SOL    HW229781   5.905   1.015   2.125  1.4079  1.8119  2.6904
 7940SOL     OW29782   2.572   3.226   7.397  0.3749 -0.0481  0.2094
 7940SOL    HW129783   2.605   3.316   7.406 -0.4561  0.4776 -1.6130
 7940SOL    HW229784   2.477   3.235   7.403  0.2552 -0.7255 -0.6120
 7941SOL     OW29785   0.417   7.616   3.531 -0.1033 -0.2859 -0.6291
 7941SOL    HW129786   0.403   7.521   3.540  0.3947 -0.2814  0.2428
 7941SOL    HW229787   0.334   7.649   3.499 -0.1621 -1.0714 -1.3408
 7942SOL     OW29788   7.581   6.675   0.668 -0.7247 -0.4843  0.0946
 7942SOL    HW129789   7.536   6.731   0.604  1.5419  1.3609 -0.0006
 7942SOL    HW229790   7.599   6.594   0.620  2.3244  1.3844 -2.3550
 7943SOL     OW29791   9.481  12.347   8.614  0.2379 -0.0822 -0.0244
 7943SOL    HW129792   9.480  12.300   8.698  2.7769  0.3703  0.3425
 7943SOL    HW229793   9.565  12.324   8.575  0.1993  1.7144 -1.2725
 7944SOL     OW29794   9.362   7.187   1.111  0.6215 -0.0786  0.1213
 7944SOL    HW129795   9.393   7.258   1.055  1.0600  0.1414  0.6336
 7944SOL    HW229796   9.377   7.219   1.200  0.5658 -0.7026  0.3565
 7945SOL     OW29797   8.348   5.958  10.944 -0.5647  0.0645  0.1744
 7945SOL    HW129798   8.369   6.031  11.002  0.5857 -0.7581  0.8477
 7945SOL    HW229799   8.364   5.992  10.856  0.6701  0.4285  0.5121
 7946SOL     OW29800  11.065   3.659   4.864  0.3156 -0.0739 -0.4889
 7946SOL    HW129801  11.059   3.732   4.927  0.7822 -0.6614  0.2554
 7946SOL    HW229802  10.999   3.597   4.894 -1.3062  0.7715 -2.1458
 7947SOL     OW29803   9.863   0.514  11.443  0.2870 -0.3796  0.5771
 7947SOL    HW129804   9.866   0.524  11.348  2.5390  2.0271  0.7717
 7947SOL    HW229805   9.941   0.462  11.463  0.2516 -0.2099  1.1591
 7948SOL     OW29806  12.209   9.079   8.493 -0.2126 -0.3201  0.5473
 7948SOL    HW129807  12.209   9.152   8.430 -1.0225 -0.1455  0.7457
 7948SOL    HW229808  12.299   9.046   8.491  0.3465  1.1246  0.9607
 7949SOL     OW29809   4.269   2.964   2.489  0.4094 -0.0817 -0.0877
 7949SOL    HW129810   4.355   2.963   2.446  0.0662  1.0843 -0.8422
 7949SOL    HW229811   4.217   3.025   2.437 -0.3965  0.4416  1.2823
 7950SOL     OW29812  12.296   8.292   2.722 -0.2519 -0.0440  1.0296
 7950SOL    HW129813  12.357   8.218   2.729  1.4137  1.3619  2.0303
 7950SOL    HW229814  12.287   8.307   2.628  0.7620 -0.4374  0.8608
 7951SOL     OW29815   4.484   3.527   3.489 -0.2839  0.3713  0.1745
 7951SOL    HW129816   4.474   3.611   3.534  0.1561  1.2636 -1.3348
 7951SOL    HW229817   4.420   3.470   3.531 -1.0662  1.6427  0.7702
 7952SOL     OW29818   1.002   8.107   3.827  0.3561  0.4519 -0.0326
 7952SOL    HW129819   0.940   8.179   3.841 -0.7526 -0.7608  1.8484
 7952SOL    HW229820   1.067   8.117   3.897  0.0558 -0.4635  0.3974
 7953SOL     OW29821   9.609  12.468  12.090  0.0167 -0.5994 -0.0205
 7953SOL    HW129822   9.589  12.561  12.076 -0.6456 -0.8080 -0.5270
 7953SOL    HW229823   9.686  12.451  12.037 -0.9867 -0.7819 -1.4656
 7954SOL     OW29824   5.553   1.190   6.815  0.3839  0.2698 -0.0666
 7954SOL    HW129825   5.508   1.155   6.739  2.0170 -0.6148 -0.6901
 7954SOL    HW229826   5.626   1.241   6.779  0.7572  0.4386  0.8822
 7955SOL     OW29827   5.137   7.035   4.778 -0.0760  0.2271 -0.5940
 7955SOL    HW129828   5.163   7.117   4.820 -0.8156 -0.4989  1.3776
 7955SOL    HW229829   5.177   7.040   4.691  3.5910  0.7653  0.9151
 7956SOL     OW29830   1.205   1.118   4.442 -0.8063  0.2919  0.3422
 7956SOL    HW129831   1.145   1.192   4.450 -0.9479  0.0878  1.3522
 7956SOL    HW229832   1.224   1.093   4.533 -0.7082 -0.8627  0.0125
 7957SOL     OW29833   0.632   3.149   7.390 -0.1537  0.1448  0.4819
 7957SOL    HW129834   0.643   3.225   7.334  1.8151 -0.3420  0.1253
 7957SOL    HW229835   0.578   3.179   7.463  0.9250  1.9970  0.5619
 7958SOL     OW29836   4.606   2.180   0.801 -0.0115  0.2077 -0.0482
 7958SOL    HW129837   4.623   2.268   0.769  1.3079 -0.0979 -0.2707
 7958SOL    HW229838   4.554   2.138   0.733  2.3473 -0.2863 -1.6660
 7959SOL     OW29839   8.669   9.920   2.010  0.1901  0.6188 -0.0030
 7959SOL    HW129840   8.669  10.000   2.062 -0.2258 -0.4132  1.6696
 7959SOL    HW229841   8.755   9.881   2.026  0.7603  1.1796 -1.5800
 7960SOL     OW29842   1.562   7.842   1.183  0.5330 -0.2262 -0.1570
 7960SOL    HW129843   1.493   7.837   1.117 -2.1860 -0.3610  2.4980
 7960SOL    HW229844   1.516   7.854   1.266  3.8403  3.4036  1.4843
 7961SOL     OW29845   0.961   9.129   7.447  0.5623  0.1281  0.2856
 7961SOL    HW129846   1.044   9.082   7.453  2.1941  2.9067  1.1956
 7961SOL    HW229847   0.949   9.167   7.534 -0.8902  1.0642 -0.2872
 7962SOL     OW29848   5.413   3.523   8.940  0.2263  0.3252 -0.2209
 7962SOL    HW129849   5.446   3.559   9.022  0.8385  0.2465 -0.4298
 7962SOL    HW229850   5.397   3.599   8.885 -1.2020  0.4639  0.3191
 7963SOL     OW29851   9.374   8.105   5.602 -0.4667  0.2601  0.2140
 7963SOL    HW129852   9.451   8.133   5.652 -0.6487 -0.7721  1.1179
 7963SOL    HW229853   9.411   8.063   5.524 -0.0616 -0.7495  0.9191
 7964SOL     OW29854  10.760  11.376   4.476 -0.3600  0.3378  0.5765
 7964SOL    HW129855  10.815  11.412   4.546 -0.5798  0.1265  0.8626
 7964SOL    HW229856  10.677  11.357   4.519 -0.0266 -1.1847  0.6092
 7965SOL     OW29857   1.638   0.523   4.341  0.3413 -0.5048  0.1678
 7965SOL    HW129858   1.577   0.457   4.376 -1.1753  0.5667 -0.3387
 7965SOL    HW229859   1.657   0.580   4.415  0.1124 -0.4052  0.1522
 7966SOL     OW29860  10.661   5.853   7.526 -0.0078  0.4455  0.5187
 7966SOL    HW129861  10.729   5.916   7.502  0.2856 -0.2544 -0.5335
 7966SOL    HW229862  10.685   5.823   7.614  1.0471  0.2018  0.1522
 7967SOL     OW29863   2.653   9.149   5.422 -0.1807 -0.2372  0.6551
 7967SOL    HW129864   2.631   9.086   5.354 -1.1521  0.4261  0.3263
 7967SOL    HW229865   2.589   9.132   5.491  1.3301 -1.4869  1.8258
 7968SOL     OW29866   6.215   3.075   4.052 -0.3232 -0.0824 -0.2884
 7968SOL    HW129867   6.187   3.034   4.134 -2.6106  1.3571 -0.2601
 7968SOL    HW229868   6.272   3.010   4.011 -0.5213 -1.5493  1.6234
 7969SOL     OW29869   2.556   4.850  10.792 -0.6929 -0.0879  0.1608
 7969SOL    HW129870   2.595   4.808  10.868  0.4426  0.9449  0.1744
 7969SOL    HW229871   2.475   4.889  10.825  0.8418  2.2462  1.4431
 7970SOL     OW29872   4.476   8.862   6.027 -0.0051  0.3666 -0.3033
 7970SOL    HW129873   4.393   8.820   6.006  0.2067 -0.4128  0.3845
 7970SOL    HW229874   4.540   8.820   5.969  0.2503 -0.4557  0.5561
 7971SOL     OW29875   4.064   7.672   6.743  0.3229 -0.2599  0.0548
 7971SOL    HW129876   4.155   7.687   6.719  0.2609  1.5278  0.8140
 7971SOL    HW229877   4.068   7.640   6.833  0.1559  1.4037  0.6839
 7972SOL     OW29878   3.977   0.164   3.139 -0.4252 -0.5307  0.6386
 7972SOL    HW129879   3.895   0.153   3.090 -0.7997 -1.8251  1.5111
 7972SOL    HW229880   4.029   0.087   3.115 -1.0067 -1.7378  2.9456
 7973SOL     OW29881   5.107  11.194   3.642  0.3725  0.4854 -0.2425
 7973SOL    HW129882   5.075  11.245   3.567  0.4421  1.2942  0.2752
 7973SOL    HW229883   5.077  11.242   3.718 -0.8705 -1.0363  0.2903
 7974SOL     OW29884   6.190   1.025   6.828 -0.5845 -0.2214  0.2320
 7974SOL    HW129885   6.239   0.949   6.858 -0.0957 -0.2470 -0.5944
 7974SOL    HW229886   6.256   1.094   6.817 -0.5253 -0.5525 -1.8813
 7975SOL     OW29887   1.493   6.396   1.654 -0.1561  0.3218  0.3594
 7975SOL    HW129888   1.583   6.429   1.655 -0.1320  0.2553  1.7459
 7975SOL    HW229889   1.485   6.343   1.733 -1.2503 -0.1451 -0.0352
 7976SOL     OW29890   3.319   7.321   4.393 -0.4677  0.3383 -0.1167
 7976SOL    HW129891   3.340   7.307   4.486 -0.2044 -0.2545 -0.2628
 7976SOL    HW229892   3.286   7.410   4.390 -1.0626  0.1563  0.6532
 7977SOL     OW29893   2.267   9.641   5.159  0.1636  0.8213 -0.0034
 7977SOL    HW129894   2.310   9.648   5.244  0.0009  0.1263  0.1353
 7977SOL    HW229895   2.203   9.712   5.159  0.2391  0.8915  0.4071
 7978SOL     OW29896   7.078   1.981  12.098 -0.3483 -0.1004 -0.0281
 7978SOL    HW129897   6.986   1.973  12.074 -0.6544  0.0004  1.0739
 7978SOL    HW229898   7.113   2.046  12.038 -1.4768  1.3455  0.8127
 7979SOL     OW29899  10.316   2.245   6.702 -0.9178  0.0816  0.4305
 7979SOL    HW129900  10.367   2.197   6.636  0.1023  1.0407  0.4863
 7979SOL    HW229901  10.225   2.226   6.681 -0.6398  0.7463 -1.5583
 7980SOL     OW29902  12.250   9.087   1.905 -0.5066 -0.2042  0.0586
 7980SOL    HW129903  12.244   9.133   1.821 -0.0513 -0.3989 -0.0852
 7980SOL    HW229904  12.342   9.094   1.929 -0.4486 -0.9604  0.0792
 7981SOL     OW29905   7.518   2.167  11.928 -0.5703 -0.2222  0.0212
 7981SOL    HW129906   7.455   2.105  11.892  1.2027 -3.3530  1.8923
 7981SOL    HW229907   7.582   2.179  11.859 -1.6394  0.7451 -0.8538
 7982SOL     OW29908   4.360   6.321   4.744  0.2698  0.2489 -0.2343
 7982SOL    HW129909   4.447   6.294   4.715  0.2690 -0.6718  0.5703
 7982SOL    HW229910   4.307   6.241   4.742 -0.4629  0.7209 -0.3589
 7983SOL     OW29911   7.015   9.771   1.213  0.1910  0.0914  0.4539
 7983SOL    HW129912   6.975   9.688   1.185  0.7501 -0.2682  0.6926
 7983SOL    HW229913   6.953   9.808   1.274  0.2584 -0.5099  0.9003
 7984SOL     OW29914  11.127   0.388   1.115  0.1158 -0.3020 -0.3493
 7984SOL    HW129915  11.075   0.388   1.034  3.3073 -0.4714 -2.5706
 7984SOL    HW229916  11.108   0.303   1.155 -1.0769 -0.4687 -1.2145
 7985SOL     OW29917   2.824   7.612   2.200  0.6938  0.3188 -0.2651
 7985SOL    HW129918   2.866   7.680   2.147 -0.5711  1.6289  0.3452
 7985SOL    HW229919   2.774   7.560   2.137  0.1753  1.1112 -0.5120
 7986SOL     OW29920   4.256   1.226   3.668  0.3251 -0.1957  0.0777
 7986SOL    HW129921   4.298   1.219   3.754  0.7495 -0.7963 -0.1727
 7986SOL    HW229922   4.188   1.159   3.669 -0.3007  0.4274  0.2875
 7987SOL     OW29923   1.322   8.890   8.208 -0.0641 -0.1468  0.4643
 7987SOL    HW129924   1.388   8.951   8.240  0.5201  0.2525 -1.4345
 7987SOL    HW229925   1.352   8.865   8.121 -2.9529  0.9177 -0.9550
 7988SOL     OW29926   7.975   5.310   3.082 -0.0666  0.4311  0.2191
 7988SOL    HW129927   7.893   5.288   3.126 -0.8260  1.3849 -0.6561
 7988SOL    HW229928   7.958   5.395   3.041  0.6391 -0.3224 -1.7661
 7989SOL     OW29929   2.693   0.828   6.344 -0.1898 -0.0134  0.2105
 7989SOL    HW129930   2.611   0.879   6.349 -0.8044 -1.0602  1.6991
 7989SOL    HW229931   2.761   0.894   6.327 -1.0985  1.1503  0.8947
 7990SOL     OW29932   4.846   1.673   9.107  0.5436  0.4454  0.1427
 7990SOL    HW129933   4.752   1.658   9.111  0.5686 -0.2393 -1.2299
 7990SOL    HW229934   4.861   1.749   9.164 -1.0897  1.7294 -1.0456
 7991SOL     OW29935   2.948   0.018   9.624 -0.2247 -0.5843 -0.2558
 7991SOL    HW129936   2.977   0.109   9.619 -0.2397 -0.6166 -1.1977
 7991SOL    HW229937   2.853   0.024   9.633 -0.1422 -0.5074  0.7213
 7992SOL     OW29938   6.848  10.721   2.749  0.2453  0.4404 -0.2856
 7992SOL    HW129939   6.911  10.677   2.692 -1.4101 -0.7000 -1.3362
 7992SOL    HW229940   6.859  10.680   2.834  0.9875  0.3324 -0.4277
 7993SOL     OW29941  11.964   9.519   0.915 -0.2728 -0.0717 -0.1306
 7993SOL    HW129942  12.035   9.576   0.884 -0.3519 -0.7535 -1.6597
 7993SOL    HW229943  11.886   9.551   0.868 -0.4620 -0.9405 -0.4195
 7994SOL     OW29944  11.722   4.560  12.406 -0.3051 -0.1960  0.2540
 7994SOL    HW129945  11.748   4.513  12.327  3.7295  0.5111  0.9500
 7994SOL    HW229946  11.718   4.493  12.474  0.1250 -0.2676  0.2092
 7995SOL     OW29947   8.277  12.321   3.325  0.1948  0.0959  0.8440
 7995SOL    HW129948   8.289  12.371   3.244 -1.2113 -0.8039  0.0563
 7995SOL    HW229949   8.243  12.385   3.388 -1.4918  0.1932 -0.1227
 7996SOL     OW29950   2.038  11.444   9.319 -0.3693  0.1336 -0.2785
 7996SOL    HW129951   1.963  11.385   9.330 -1.5176  1.1278 -2.2700
 7996SOL    HW229952   2.084  11.412   9.242  0.7817  0.0499  0.4219
 7997SOL     OW29953   5.443   8.676   8.764 -0.2016 -0.2093  0.2460
 7997SOL    HW129954   5.383   8.749   8.780 -0.8832 -0.9438  1.1437
 7997SOL    HW229955   5.485   8.697   8.681 -0.7904  0.9342  0.2226
 7998SOL     OW29956  10.486   9.207  10.483  0.0758  0.1626  0.4501
 7998SOL    HW129957  10.493   9.273  10.415 -2.0478 -0.4303 -0.4252
 7998SOL    HW229958  10.435   9.136  10.443  1.0229 -1.3650  1.8262
 7999SOL     OW29959   8.989   0.433   9.886 -0.0514  0.0441  0.3491
 7999SOL    HW129960   8.932   0.360   9.863 -1.2000  0.4526  1.7139
 7999SOL    HW229961   8.959   0.460   9.973  0.7944  1.6863  0.1699
 8000SOL     OW29962   5.654   9.408   2.159  0.1908  0.2383 -0.1290
 8000SOL    HW129963   5.561   9.424   2.177  0.5117  1.9224  0.2301
 8000SOL    HW229964   5.676   9.332   2.213 -0.9560 -0.1581 -0.1790
 8001SOL     OW29965   3.287   3.586   8.551 -0.5801  0.1942 -0.5344
 8001SOL    HW129966   3.375   3.613   8.525 -1.0465  2.5941  0.1711
 8001SOL    HW229967   3.233   3.602   8.473 -0.4819 -0.8995 -0.8385
 8002SOL     OW29968  12.117  11.525   5.097 -0.1708 -0.0792  0.1446
 8002SOL    HW129969  12.210  11.535   5.078  0.0889  0.4694  1.5854
 8002SOL    HW229970  12.083  11.614   5.100 -0.3894 -0.1899  1.2392
 8003SOL     OW29971   0.498   6.863   4.569 -0.0678 -0.4386 -0.4448
 8003SOL    HW129972   0.418   6.855   4.622 -0.9505 -0.1809 -1.7174
 8003SOL    HW229973   0.515   6.957   4.566 -0.2497 -0.4184 -0.9352
 8004SOL     OW29974   8.609   0.563   7.123  0.1123  0.8451 -0.6176
 8004SOL    HW129975   8.571   0.567   7.035 -1.7507  0.6822  0.1237
 8004SOL    HW229976   8.534   0.547   7.180  1.1674  1.7837  1.0997
 8005SOL     OW29977   0.807   8.860   4.426 -0.1744  0.3329  0.5921
 8005SOL    HW129978   0.806   8.951   4.455 -0.0325  0.6410 -0.3282
 8005SOL    HW229979   0.715   8.834   4.422 -0.3213  0.9643 -0.6918
 8006SOL     OW29980   8.188   2.217   6.251 -0.0409 -0.1768 -0.1623
 8006SOL    HW129981   8.162   2.244   6.163 -0.1688  0.6026  0.1103
 8006SOL    HW229982   8.190   2.121   6.247  0.3035 -0.1430 -1.1115
 8007SOL     OW29983   0.740   1.011   9.369 -0.1292  0.4722 -1.0838
 8007SOL    HW129984   0.678   0.943   9.345 -0.1499  0.7662 -1.8876
 8007SOL    HW229985   0.695   1.063   9.436 -0.9352  0.9412 -1.9606
 8008SOL     OW29986   8.177   7.628   9.337  0.4300  0.3319  0.1072
 8008SOL    HW129987   8.266   7.645   9.305 -0.0821  3.5404  0.0635
 8008SOL    HW229988   8.189   7.603   9.428  1.4300 -0.3644 -0.1972
 8009SOL     OW29989   9.193   3.856   5.460 -0.2004  0.6964  0.1242
 8009SOL    HW129990   9.163   3.947   5.471 -1.2645  0.3514  0.2257
 8009SOL    HW229991   9.164   3.812   5.540  0.5786  0.3280  0.2123
 8010SOL     OW29992   6.001   8.628   9.557 -0.9087  0.5035  0.1411
 8010SOL    HW129993   5.996   8.547   9.507 -0.3089  0.1707  0.5955
 8010SOL    HW229994   5.948   8.612   9.635 -0.4124  0.3625  0.4595
 8011SOL     OW29995   2.088   8.472  10.862  0.2012  0.1809 -0.1372
 8011SOL    HW129996   2.054   8.556  10.831 -1.1001 -0.0750  0.5358
 8011SOL    HW229997   2.011   8.416  10.869  1.1299 -1.3010 -1.2227
 8012SOL     OW29998  10.832   0.130   1.318 -0.4586 -0.4578 -0.3063
 8012SOL    HW129999  10.761   0.115   1.381 -0.3355  0.5097  0.0875
 8012SOL    HW230000  10.798   0.199   1.260 -0.0909 -0.4467 -0.5125
 8013SOL     OW30001   1.816   6.742   8.120  0.0988 -0.7428  0.5176
 8013SOL    HW130002   1.808   6.800   8.196 -0.8599 -1.8836  1.3196
 8013SOL    HW230003   1.728   6.710   8.105  0.2082 -0.3081 -1.3126
 8014SOL     OW30004   3.799   2.009  11.234  1.0469  0.1082  0.4267
 8014SOL    HW130005   3.812   2.103  11.246  0.7915  0.4560 -1.6795
 8014SOL    HW230006   3.773   2.000  11.142  0.3594 -1.9537  0.7749
 8015SOL     OW30007  10.672   2.942   6.235  0.4296 -0.0880 -0.6733
 8015SOL    HW130008  10.640   3.000   6.304 -0.6388 -1.5997  0.1669
 8015SOL    HW230009  10.611   2.955   6.162 -0.7926 -1.2559  0.0887
 8016SOL     OW30010   3.913   0.602   3.402 -0.4293 -0.1250  0.1206
 8016SOL    HW130011   3.897   0.510   3.382  2.6938 -0.8559  0.4548
 8016SOL    HW230012   3.875   0.614   3.490 -0.6954 -1.1466  0.1576
 8017SOL     OW30013   3.073   7.199  11.375 -0.8691 -0.4267 -0.2264
 8017SOL    HW130014   3.143   7.265  11.371  1.6738 -2.9844 -0.9471
 8017SOL    HW230015   3.067   7.175  11.467 -1.1597  0.1058 -0.0994
 8018SOL     OW30016   8.655   2.365  12.095  0.1252 -0.5153 -0.0874
 8018SOL    HW130017   8.567   2.331  12.109  0.3512 -1.5218 -0.9318
 8018SOL    HW230018   8.644   2.460  12.089 -1.1887 -0.7293 -1.9638
 8019SOL     OW30019   8.241   3.714   3.490  0.9317 -0.1568  0.3738
 8019SOL    HW130020   8.315   3.735   3.434  0.7717  0.6358  0.4423
 8019SOL    HW230021   8.251   3.621   3.510  2.0366 -0.0154  0.5641
 8020SOL     OW30022   2.466   9.580   3.891 -0.8771  0.5103  0.2138
 8020SOL    HW130023   2.523   9.538   3.955 -1.2201 -1.2871 -0.5997
 8020SOL    HW230024   2.490   9.673   3.895  3.3067 -0.2786 -1.2292
 8021SOL     OW30025   6.276   4.675   3.459  0.3566 -0.1354 -0.1451
 8021SOL    HW130026   6.366   4.707   3.465  0.0200  1.3948 -2.0335
 8021SOL    HW230027   6.238   4.724   3.386 -2.2444 -0.1775  1.0460
 8022SOL     OW30028  11.079   3.133   3.155  0.1024  0.5002 -0.7179
 8022SOL    HW130029  10.994   3.172   3.137 -0.8831 -1.2306 -0.1128
 8022SOL    HW230030  11.101   3.084   3.076  0.4320  0.7503 -0.7844
 8023SOL     OW30031   0.528   7.138   3.704  0.1828  0.8158 -0.0988
 8023SOL    HW130032   0.532   7.175   3.792 -0.3016 -1.0844  0.7849
 8023SOL    HW230033   0.448   7.085   3.704 -0.5349  1.7827 -2.1357
 8024SOL     OW30034   4.944   3.328   4.020  0.1353 -0.5490  0.2801
 8024SOL    HW130035   4.945   3.406   3.965 -0.3095 -1.3613 -0.9212
 8024SOL    HW230036   4.853   3.318   4.047  0.2624 -0.4383  0.7682
 8025SOL     OW30037   6.063   3.049   6.087  0.8089 -0.7519  0.0817
 8025SOL    HW130038   6.059   3.049   6.182 -0.4204  0.6364  0.0616
 8025SOL    HW230039   6.040   2.960   6.061  0.5074 -0.9611  1.0513
 8026SOL     OW30040   9.814  11.805   6.981  0.1830 -0.6078 -0.4242
 8026SOL    HW130041   9.779  11.730   6.933  0.1634  0.4068 -2.0912
 8026SOL    HW230042   9.742  11.835   7.036 -0.4228 -0.7028 -1.1497
 8027SOL     OW30043   1.407  12.421   8.123 -0.2219  0.1744  0.2038
 8027SOL    HW130044   1.383  12.328   8.122 -1.5678  0.4882 -2.0081
 8027SOL    HW230045   1.385  12.453   8.036  0.3552  2.5602  0.8569
 8028SOL     OW30046   0.242  11.665   6.275 -0.0292  0.0166 -0.5562
 8028SOL    HW130047   0.219  11.575   6.296 -0.1945  0.2173  0.1273
 8028SOL    HW230048   0.213  11.677   6.184 -1.6253 -0.0718 -0.0829
 8029SOL     OW30049   8.763   8.908   2.233  0.6653  0.1053 -0.1137
 8029SOL    HW130050   8.735   8.996   2.256  0.8077 -0.2192  1.3797
 8029SOL    HW230051   8.718   8.851   2.295  0.8526 -0.8476 -0.8300
 8030SOL     OW30052   3.021  11.138   1.422  0.7046  0.4090  0.3761
 8030SOL    HW130053   2.966  11.216   1.426  2.2022  1.6565 -1.8510
 8030SOL    HW230054   3.050  11.133   1.331  1.3477 -2.2793  0.6492
 8031SOL     OW30055   0.505   4.575   5.779  0.0444 -0.2200  0.1429
 8031SOL    HW130056   0.537   4.537   5.698  1.6406 -0.7389  0.9612
 8031SOL    HW230057   0.574   4.557   5.843  0.2431  2.7609  0.9369
 8032SOL     OW30058   1.201   1.397  12.072 -0.4065  0.7158 -0.2789
 8032SOL    HW130059   1.222   1.471  12.015  1.1467 -0.7024 -1.6794
 8032SOL    HW230060   1.191   1.435  12.159 -0.9424  2.7075 -1.1643
 8033SOL     OW30061   1.848   6.434   1.834 -0.0267  0.1634  0.0668
 8033SOL    HW130062   1.885   6.470   1.754  0.5006  1.7147  0.9589
 8033SOL    HW230063   1.759   6.469   1.837  0.5357  1.6133  1.0123
 8034SOL     OW30064  11.944  10.815  10.592 -0.2538 -0.0715 -0.2412
 8034SOL    HW130065  11.920  10.843  10.681  0.0651 -0.7428  0.0656
 8034SOL    HW230066  11.888  10.867  10.535  2.6275  3.8633  0.0615
 8035SOL     OW30067   9.546   2.652   6.969 -0.2511 -0.2755  0.7073
 8035SOL    HW130068   9.516   2.596   6.898 -1.5014  0.8833  0.2914
 8035SOL    HW230069   9.578   2.591   7.036  0.0140 -1.4079 -0.4293
 8036SOL     OW30070   8.552   0.740   1.956 -0.1545  0.2026 -0.3470
 8036SOL    HW130071   8.528   0.648   1.944 -0.9398  0.1237  1.5023
 8036SOL    HW230072   8.543   0.755   2.050  3.7940  1.1273  0.0662
 8037SOL     OW30073   9.352   7.847   8.906 -0.5097  0.3920  0.2810
 8037SOL    HW130074   9.334   7.940   8.920  0.3642  0.3131  2.2476
 8037SOL    HW230075   9.333   7.806   8.990  2.3132 -0.6567  0.5247
 8038SOL     OW30076   0.792  11.925  10.617 -0.2699  0.4848 -0.2000
 8038SOL    HW130077   0.878  11.937  10.576 -0.8094  0.3709 -1.4096
 8038SOL    HW230078   0.743  12.003  10.591 -0.1442  1.2122  1.5871
 8039SOL     OW30079   6.288  11.001   8.688 -0.2367 -0.1123 -0.3737
 8039SOL    HW130080   6.311  11.012   8.596 -0.1503 -1.9826 -0.6203
 8039SOL    HW230081   6.323  11.078   8.732  0.7771  0.2213 -1.7214
 8040SOL     OW30082  10.372   3.154   5.055  0.1674 -0.2068  0.5074
 8040SOL    HW130083  10.300   3.092   5.053  0.2493 -0.2985 -0.7336
 8040SOL    HW230084  10.450   3.100   5.072  0.0717 -0.2536  0.7952
 8041SOL     OW30085   2.701  10.126   9.491 -0.2616  0.0409 -0.1006
 8041SOL    HW130086   2.684  10.080   9.573  0.9880  0.3769  0.3556
 8041SOL    HW230087   2.717  10.056   9.427 -0.2989 -0.1959  0.1475
 8042SOL     OW30088   1.079   9.248   1.616 -0.1661  0.3653 -0.1033
 8042SOL    HW130089   1.129   9.296   1.681  2.1496 -0.6310 -1.0440
 8042SOL    HW230090   1.046   9.171   1.662  0.4074  0.2958  0.1930
 8043SOL     OW30091   4.992   7.663   4.403 -0.1913 -0.4137  0.6716
 8043SOL    HW130092   5.077   7.705   4.418  0.4074 -1.4836  0.3602
 8043SOL    HW230093   4.937   7.696   4.474  0.4265  0.4196  0.7878
 8044SOL     OW30094   4.148  11.258   5.119  0.5903  0.1527  0.5291
 8044SOL    HW130095   4.174  11.338   5.165  1.0809 -1.0298  2.4544
 8044SOL    HW230096   4.229  11.223   5.083  0.8639 -0.8143  1.9987
 8045SOL     OW30097   5.649   2.229   5.272  0.4629 -0.2170  0.1432
 8045SOL    HW130098   5.628   2.313   5.312  2.1743  0.1880  0.2630
 8045SOL    HW230099   5.637   2.165   5.343 -0.9251 -0.1177  0.0264
 8046SOL     OW30100   1.711   1.930   7.043  0.3122  0.1027  0.2323
 8046SOL    HW130101   1.735   2.020   7.061  1.7999  0.0971 -1.4163
 8046SOL    HW230102   1.629   1.937   6.992  0.3591  0.5202  0.2108
 8047SOL     OW30103   3.536   5.685   1.520 -0.2042  0.4439 -0.2904
 8047SOL    HW130104   3.457   5.739   1.514 -1.2071 -0.5032  2.7224
 8047SOL    HW230105   3.504   5.595   1.507  0.1739 -0.0042  1.5461
 8048SOL     OW30106  12.478   8.587   3.621  0.1086  0.4109  0.1805
 8048SOL    HW130107  12.531   8.664   3.603 -1.7383  1.3275 -1.8291
 8048SOL    HW230108  12.453   8.554   3.535 -1.3195 -0.8553  1.0218
 8049SOL     OW30109   8.264   3.516   8.121  0.0883  0.1889 -0.2369
 8049SOL    HW130110   8.215   3.464   8.185 -0.8346  0.4754 -0.6873
 8049SOL    HW230111   8.337   3.553   8.171  0.3983 -1.0159  0.2337
 8050SOL     OW30112   0.296  12.027   1.054 -0.1358  0.0030  0.1931
 8050SOL    HW130113   0.304  12.016   1.149 -0.5920  0.6689  0.3189
 8050SOL    HW230114   0.308  12.121   1.040 -1.3049  0.0988 -0.2649
 8051SOL     OW30115   9.021   9.974   2.704  0.5233 -0.4714  0.4302
 8051SOL    HW130116   9.053   9.925   2.780  0.1004 -1.4105  0.0142
 8051SOL    HW230117   8.927   9.981   2.719  0.6651  0.8332  0.8257
 8052SOL     OW30118   3.182  11.532   1.258  0.4967  0.5799 -0.0642
 8052SOL    HW130119   3.223  11.492   1.334 -0.8492  0.3434  0.5687
 8052SOL    HW230120   3.132  11.461   1.218  0.8915  0.7938 -0.9676
 8053SOL     OW30121   6.804  11.255   3.553 -0.6521  0.2657 -0.6134
 8053SOL    HW130122   6.806  11.350   3.537 -0.6960 -0.0618 -2.9864
 8053SOL    HW230123   6.712  11.231   3.539 -0.6287 -0.1532 -0.0772
 8054SOL     OW30124   0.053   9.905   5.238  0.1783  0.1818 -1.0215
 8054SOL    HW130125  -0.005   9.890   5.313  1.1322 -0.6249 -0.4195
 8054SOL    HW230126   0.038   9.830   5.181  0.5052  0.0472 -0.9343
 8055SOL     OW30127  10.261   9.960   5.830  0.6325  0.0608 -0.4253
 8055SOL    HW130128  10.317   9.947   5.753 -0.2973  1.2466 -1.3281
 8055SOL    HW230129  10.236   9.871   5.856  0.1887 -0.3371 -2.0908
 8056SOL     OW30130   3.977   1.924   9.359  0.8477  0.2029  0.0467
 8056SOL    HW130131   3.927   1.908   9.278  0.9503  1.3016 -0.2589
 8056SOL    HW230132   3.934   1.870   9.425  0.7757 -0.7333 -0.7458
 8057SOL     OW30133   4.079   7.216   9.434 -0.6401 -0.2338 -0.3392
 8057SOL    HW130134   4.040   7.196   9.519  1.3473 -1.6421  0.3252
 8057SOL    HW230135   4.081   7.132   9.389 -0.5124  0.2684 -1.2940
 8058SOL     OW30136   0.408   8.968   8.776 -0.5430 -0.3853 -0.4937
 8058SOL    HW130137   0.341   8.924   8.723 -2.4471 -1.4854  2.5327
 8058SOL    HW230138   0.448   8.898   8.827  1.1846  0.6246 -0.3826
 8059SOL     OW30139   7.386   1.261  11.955 -0.3170  0.3394  0.2043
 8059SOL    HW130140   7.329   1.206  11.901  0.3207 -1.3808  1.1833
 8059SOL    HW230141   7.327   1.302  12.018 -0.7566  0.3820 -0.2325
 8060SOL     OW30142   7.544   3.818   8.579  0.5123 -0.3454  0.3283
 8060SOL    HW130143   7.636   3.823   8.552  0.2843  0.7089 -0.3373
 8060SOL    HW230144   7.516   3.910   8.585 -1.1171 -0.6278 -1.6943
 8061SOL     OW30145   3.517   5.228   0.923  0.2479 -0.2654 -0.0437
 8061SOL    HW130146   3.435   5.200   0.965 -0.1955  1.2212  0.1409
 8061SOL    HW230147   3.573   5.254   0.996  0.5776 -0.4575 -0.2257
 8062SOL     OW30148  12.362   1.931  10.939  0.5936 -0.0537  0.1031
 8062SOL    HW130149  12.331   1.940  11.029 -0.1739 -0.5850 -0.0951
 8062SOL    HW230150  12.286   1.950  10.885  0.9123 -0.2552 -0.4262
 8063SOL     OW30151   6.304   4.624   0.314 -0.1797 -0.0397 -0.1406
 8063SOL    HW130152   6.274   4.708   0.278 -0.5493  0.2878  0.8780
 8063SOL    HW230153   6.377   4.647   0.371 -0.4997 -0.3674  0.4085
 8064SOL     OW30154   4.995   4.603  11.854  0.1971  0.5070 -0.4511
 8064SOL    HW130155   5.020   4.526  11.803 -0.5694 -0.2851  0.3336
 8064SOL    HW230156   5.065   4.666  11.837  1.0890 -0.5213 -0.7404
 8065SOL     OW30157   5.296   5.884  11.450  0.0015  0.3008 -0.3588
 8065SOL    HW130158   5.307   5.915  11.540 -0.3738  1.5456 -0.7237
 8065SOL    HW230159   5.285   5.964  11.398 -1.6769 -0.4778 -1.2642
 8066SOL     OW30160   6.278   1.099  12.058 -0.2189 -0.1450 -0.3920
 8066SOL    HW130161   6.299   1.190  12.039 -1.2726  0.0997 -0.4682
 8066SOL    HW230162   6.363   1.056  12.068  0.2937  0.7635 -0.7159
 8067SOL     OW30163   9.548  11.270   7.916 -0.8508  0.9060 -0.1362
 8067SOL    HW130164   9.560  11.272   8.011  0.6017  1.5903 -0.3145
 8067SOL    HW230165   9.466  11.318   7.902 -2.0858 -0.7636  0.8690
 8068SOL     OW30166  10.105  11.292  12.369 -0.0184  1.0770  0.4538
 8068SOL    HW130167  10.055  11.310  12.449 -1.4762  1.3926 -0.4878
 8068SOL    HW230168  10.188  11.337  12.383 -0.9460  2.7096  1.0639
 8069SOL     OW30169  11.555  10.606   0.723 -0.0411  0.0186  0.1248
 8069SOL    HW130170  11.572  10.520   0.760 -1.9308 -0.3152  0.3400
 8069SOL    HW230171  11.519  10.657   0.796 -1.4850  0.1244 -0.6266
 8070SOL     OW30172   0.663  11.434  10.821 -0.6442 -0.1130 -0.0345
 8070SOL    HW130173   0.689  11.521  10.853  2.9895 -1.2776  0.6640
 8070SOL    HW230174   0.615  11.395  10.894 -0.7557  0.6484  0.3091
 8071SOL     OW30175   0.275  11.380   2.969  0.0421 -0.2771 -0.1650
 8071SOL    HW130176   0.214  11.452   2.954 -0.8643 -0.9819  0.0973
 8071SOL    HW230177   0.319  11.402   3.051 -0.8913 -0.4744  0.3899
 8072SOL     OW30178   5.991   0.989   4.297  0.4478  0.4359 -0.3357
 8072SOL    HW130179   6.003   0.896   4.317  1.0059  0.3645 -0.9467
 8072SOL    HW230180   5.901   1.008   4.323  0.2581 -0.3350 -0.4108
 8073SOL     OW30181  11.935   1.056   4.988  0.4280 -0.2148 -0.4164
 8073SOL    HW130182  11.886   0.988   4.941 -0.0077 -0.0267 -0.2349
 8073SOL    HW230183  11.883   1.135   4.976  0.5199 -0.0825  0.0593
 8074SOL     OW30184   9.382   2.394   2.393 -0.2627  0.1048 -0.3680
 8074SOL    HW130185   9.312   2.340   2.431 -0.4852  0.1192 -0.7491
 8074SOL    HW230186   9.436   2.331   2.344  0.8606 -0.1485  1.1441
 8075SOL     OW30187   8.952  10.939   9.480 -0.1912  0.0395  0.8361
 8075SOL    HW130188   8.948  10.876   9.408 -1.4150 -0.0838  0.9989
 8075SOL    HW230189   9.028  10.994   9.459 -0.5467  0.0298 -0.5843
 8076SOL     OW30190   8.491   6.884   2.051 -0.8614  1.0287 -0.1731
 8076SOL    HW130191   8.556   6.914   1.988 -0.8095  1.3937  0.0514
 8076SOL    HW230192   8.411   6.873   2.001 -1.1277  2.4617 -0.0817
 8077SOL     OW30193   6.668   7.136   0.750  0.1984 -0.2470 -0.3459
 8077SOL    HW130194   6.666   7.121   0.844  0.5278 -0.5764 -0.3903
 8077SOL    HW230195   6.576   7.146   0.726  0.0329 -1.2202 -0.1535
 8078SOL     OW30196   1.160  11.428   8.226 -0.0838 -0.3322  0.6458
 8078SOL    HW130197   1.095  11.391   8.167  0.2411  0.1123 -0.0077
 8078SOL    HW230198   1.243  11.389   8.197  0.4686  1.7506 -0.8782
 8079SOL     OW30199   7.375  10.118  12.307 -0.6120 -0.0257  0.3847
 8079SOL    HW130200   7.381  10.023  12.294  0.8201 -0.3058  2.5716
 8079SOL    HW230201   7.342  10.152  12.224  1.7747 -2.1064 -1.5414
 8080SOL     OW30202   9.577   9.222   5.800 -0.5395 -0.5204  0.3968
 8080SOL    HW130203   9.517   9.217   5.874 -0.0228  0.3193  0.8754
 8080SOL    HW230204   9.646   9.282   5.827  0.6346 -1.6029 -0.0792
 8081SOL     OW30205   3.298   4.974   3.955 -0.1424 -0.1515 -0.1254
 8081SOL    HW130206   3.339   5.057   3.978 -1.3245 -0.1459  2.4108
 8081SOL    HW230207   3.361   4.908   3.982 -0.3598 -0.0910  0.5576
 8082SOL     OW30208   6.725   2.504   2.506 -0.2748  0.6020  0.0663
 8082SOL    HW130209   6.668   2.527   2.432  0.9093 -1.2231 -1.5125
 8082SOL    HW230210   6.763   2.588   2.532 -1.9805  1.5375 -0.2631
 8083SOL     OW30211   7.908   4.304  12.176 -0.7256 -0.2677  0.7882
 8083SOL    HW130212   7.988   4.347  12.205 -0.6807  1.1959 -1.2951
 8083SOL    HW230213   7.839   4.368  12.191 -0.9184 -0.0567 -0.7464
 8084SOL     OW30214   2.474   3.691   2.487 -0.1260  0.1220  0.2687
 8084SOL    HW130215   2.415   3.735   2.549 -1.2796 -2.1376  0.8985
 8084SOL    HW230216   2.435   3.605   2.475  4.0824 -2.3989  2.3551
 8085SOL     OW30217   0.398   1.358  10.106  0.1078  0.3478  0.0352
 8085SOL    HW130218   0.470   1.415  10.133  0.6599 -1.2030  2.1389
 8085SOL    HW230219   0.433   1.309  10.032  1.1716 -0.1970  0.8670
 8086SOL     OW30220  10.028   2.244   2.131  0.3138 -0.1439  0.0401
 8086SOL    HW130221  10.033   2.339   2.120 -0.5584  0.2487  2.4122
 8086SOL    HW230222  10.045   2.208   2.044 -0.0309  2.2007 -1.0520
 8087SOL     OW30223   2.607   7.308   4.507 -0.3840  0.2434 -0.4583
 8087SOL    HW130224   2.538   7.371   4.527  0.0727  1.0200 -1.2686
 8087SOL    HW230225   2.675   7.324   4.571 -0.2201  0.6537 -0.7343
 8088SOL     OW30226   4.634   2.583   2.399  0.4424 -0.5117 -0.5326
 8088SOL    HW130227   4.642   2.538   2.315  0.9495 -0.2420 -0.6373
 8088SOL    HW230228   4.724   2.611   2.420  0.2445 -0.1509 -0.1406
 8089SOL     OW30229   4.621   4.356   8.433 -0.1974 -0.3023 -0.8808
 8089SOL    HW130230   4.632   4.273   8.479  0.8934 -0.9033 -2.1720
 8089SOL    HW230231   4.539   4.345   8.384 -0.6560 -0.1623 -0.1636
 8090SOL     OW30232   3.805   6.466   0.432 -0.3378 -0.0246 -0.4122
 8090SOL    HW130233   3.748   6.411   0.379 -0.0206  0.4626 -1.2830
 8090SOL    HW230234   3.836   6.534   0.372  0.8293 -0.0416  0.1365
 8091SOL     OW30235   0.459   9.286   6.793 -0.3548  0.0550 -0.0253
 8091SOL    HW130236   0.422   9.210   6.838 -0.0078  0.8368  1.6769
 8091SOL    HW230237   0.471   9.257   6.703 -2.9675 -0.9356 -0.1349
 8092SOL     OW30238   2.728   9.128   5.822  0.4777 -0.2191  0.2986
 8092SOL    HW130239   2.792   9.182   5.776  1.8833 -0.6434  1.7115
 8092SOL    HW230240   2.712   9.054   5.763 -1.1406  1.4210 -1.4581
 8093SOL     OW30241   8.027   5.673  12.136  0.2706 -0.1397 -0.0501
 8093SOL    HW130242   8.061   5.588  12.107  0.2399 -0.5024  0.9278
 8093SOL    HW230243   8.018   5.664  12.231  1.4382  1.3710  0.2486
 8094SOL     OW30244   6.544   7.756   1.602  0.1416 -0.3209  0.2182
 8094SOL    HW130245   6.612   7.689   1.598  0.8336  0.4355 -1.8710
 8094SOL    HW230246   6.472   7.713   1.648  1.3148 -1.7831  0.8029
 8095SOL     OW30247   6.618  11.121   4.360 -0.6198  0.0512 -0.2378
 8095SOL    HW130248   6.701  11.162   4.336 -1.5727  1.6138 -1.0658
 8095SOL    HW230249   6.579  11.181   4.424 -1.2323 -0.5293 -0.0514
 8096SOL     OW30250  11.473   0.381   3.682 -0.7836  0.1992 -0.0015
 8096SOL    HW130251  11.497   0.339   3.764 -0.5481 -0.3372 -0.3360
 8096SOL    HW230252  11.458   0.473   3.704  0.5632  0.3310  0.3977
 8097SOL     OW30253   6.531   4.465  11.843 -0.1016 -0.0721  0.9427
 8097SOL    HW130254   6.612   4.441  11.890  0.6914  0.2718 -0.2153
 8097SOL    HW230255   6.555   4.544  11.794 -0.9282 -0.3995 -0.0012
 8098SOL     OW30256   5.824   7.938   1.978 -0.0160 -0.1548  0.5791
 8098SOL    HW130257   5.916   7.960   1.995  0.2404 -0.2380 -0.6049
 8098SOL    HW230258   5.822   7.842   1.979  0.3547 -0.2316 -1.3733
 8099SOL     OW30259   3.596   9.614   7.150  0.0745 -0.2728 -0.6944
 8099SOL    HW130260   3.554   9.542   7.199  0.7856 -0.2057  0.0349
 8099SOL    HW230261   3.561   9.605   7.061 -2.5920  0.6436  0.1642
 8100SOL     OW30262   4.570   8.124   9.579 -0.1065 -0.1004  0.4985
 8100SOL    HW130263   4.511   8.072   9.635 -0.6638 -0.2560 -0.2234
 8100SOL    HW230264   4.646   8.068   9.566 -1.9866 -2.1757 -2.8755
 8101SOL     OW30265   0.799   5.122   8.411  0.1011 -0.3045  0.5256
 8101SOL    HW130266   0.777   5.150   8.323  0.2293  0.7531  0.8178
 8101SOL    HW230267   0.788   5.027   8.409 -0.4209 -0.2400 -0.4748
 8102SOL     OW30268   5.872   5.458   5.169  0.1268  0.4324 -0.0226
 8102SOL    HW130269   5.938   5.398   5.134  0.6064  1.2835 -0.5838
 8102SOL    HW230270   5.847   5.513   5.095 -2.4584 -0.9329 -0.2766
 8103SOL     OW30271  12.461   0.084   2.837 -0.4621 -0.1554 -0.1729
 8103SOL    HW130272  12.426   0.095   2.926 -1.5392 -0.5914 -0.5246
 8103SOL    HW230273  12.407   0.014   2.799  0.2507 -0.2500 -1.0388
 8104SOL     OW30274  11.690  10.173   8.874 -0.0244 -0.2463  0.2082
 8104SOL    HW130275  11.661  10.201   8.787 -0.0312 -0.5083  0.1247
 8104SOL    HW230276  11.784  10.156   8.863  0.1367  0.4697  0.4435
 8105SOL     OW30277   4.319  11.982   6.944 -0.1692  0.1347  0.0552
 8105SOL    HW130278   4.351  12.072   6.938 -0.2188  0.1640  0.2117
 8105SOL    HW230279   4.318  11.964   7.038 -1.0076  0.2769  0.0758
 8106SOL     OW30280   9.217  12.443   1.574  0.1848 -0.1628 -0.3239
 8106SOL    HW130281   9.264  12.359   1.578 -3.2795 -2.4016 -1.5881
 8106SOL    HW230282   9.209  12.461   1.481 -0.4034  0.7708 -0.1007
 8107SOL     OW30283  11.699   0.886  10.447  0.0967  0.1313  0.0564
 8107SOL    HW130284  11.769   0.928  10.397  0.3716  1.0529  1.1613
 8107SOL    HW230285  11.633   0.955  10.458  0.2931  0.1216  1.4163
 8108SOL     OW30286   5.243   1.657   3.860  0.4272  0.0266 -0.7672
 8108SOL    HW130287   5.284   1.632   3.943  0.5936 -1.0066 -1.1459
 8108SOL    HW230288   5.165   1.601   3.854  1.1367 -0.8901 -1.9233
 8109SOL     OW30289   2.367   3.074   4.766 -0.4745 -0.3929 -0.0781
 8109SOL    HW130290   2.346   3.057   4.674  0.0286 -0.5386 -0.1677
 8109SOL    HW230291   2.459   3.100   4.766 -0.0417 -1.8083  0.5327
 8110SOL     OW30292   3.131  11.433   0.253 -0.4954  0.0055  0.3699
 8110SOL    HW130293   3.192  11.372   0.296  1.5118  0.3492 -1.7888
 8110SOL    HW230294   3.174  11.518   0.259  1.0783 -0.2308 -4.0123
 8111SOL     OW30295  11.165   9.704  10.361 -0.7392  0.3098  0.3384
 8111SOL    HW130296  11.205   9.791  10.369 -0.1142  0.1489 -0.8844
 8111SOL    HW230297  11.125   9.689  10.447 -0.3634  1.5545  0.7617
 8112SOL     OW30298  11.852   6.925   3.393 -0.3248 -0.7144 -0.1706
 8112SOL    HW130299  11.878   6.898   3.305  1.1642 -0.0584  0.0348
 8112SOL    HW230300  11.920   6.987   3.420 -0.8120 -0.8222  1.4019
 8113SOL     OW30301  10.247   5.648  12.308 -0.7484 -0.3299 -0.3282
 8113SOL    HW130302  10.203   5.631  12.391 -1.9403 -0.9052 -1.0435
 8113SOL    HW230303  10.220   5.575  12.252  0.9695 -0.5780 -0.8739
 8114SOL     OW30304  11.056   2.944   0.084  0.5415  1.0673 -0.0748
 8114SOL    HW130305  11.102   3.023   0.054  0.8275  0.8227 -0.2770
 8114SOL    HW230306  10.986   2.978   0.140  0.3499  1.4942 -0.5623
 8115SOL     OW30307   9.497   9.481   5.073  0.0847 -0.2633 -0.0128
 8115SOL    HW130308   9.466   9.415   5.135  0.0142 -1.2641 -1.0933
 8115SOL    HW230309   9.423   9.540   5.061 -0.4149 -0.9587 -0.3410
 8116SOL     OW30310   5.926   8.463   0.513  0.0188  0.3013 -0.3071
 8116SOL    HW130311   5.988   8.509   0.570  1.0711 -1.2387 -0.1469
 8116SOL    HW230312   5.847   8.455   0.565  0.7900 -0.6066  0.7789
 8117SOL     OW30313   3.475  10.293  12.378  0.3344  0.5629 -0.5113
 8117SOL    HW130314   3.420  10.215  12.368 -1.1877  1.5863 -0.4427
 8117SOL    HW230315   3.413  10.366  12.379  1.7099  1.7698 -0.3886
 8118SOL     OW30316   0.313  12.249   7.265 -0.5929 -0.0197 -0.3993
 8118SOL    HW130317   0.293  12.157   7.253  0.4117 -0.1950 -0.7782
 8118SOL    HW230318   0.358  12.253   7.350 -0.0188  0.0163 -0.6997
 8119SOL     OW30319   8.346   2.748   6.982 -0.6091  0.1816  0.0781
 8119SOL    HW130320   8.392   2.795   7.051  0.1119 -1.3461  0.6917
 8119SOL    HW230321   8.259   2.732   7.018 -0.3421 -0.3251  0.5157
 8120SOL     OW30322   5.319   5.310   1.625  0.3843 -0.1109  0.2063
 8120SOL    HW130323   5.410   5.320   1.650  0.3950 -1.2332  0.6898
 8120SOL    HW230324   5.286   5.240   1.681 -0.2049 -1.1479 -1.3544
 8121SOL     OW30325   4.685   6.790  12.246  0.3128  0.2168 -0.6508
 8121SOL    HW130326   4.679   6.804  12.151  2.4441  0.9153 -0.7423
 8121SOL    HW230327   4.773   6.820  12.269 -0.3037  0.4518  1.6420
 8122SOL     OW30328  11.271   3.013   8.653  0.5526 -0.2418  0.2445
 8122SOL    HW130329  11.288   2.920   8.638  1.0095  0.0127 -0.9468
 8122SOL    HW230330  11.251   3.047   8.566 -3.8637 -0.0100  1.1207
 8123SOL     OW30331   7.647   8.368   8.386 -0.4332 -0.6873 -0.4309
 8123SOL    HW130332   7.606   8.289   8.350  0.9585 -1.7214  0.1388
 8123SOL    HW230333   7.587   8.439   8.365 -2.4830 -2.1050  0.3406
 8124SOL     OW30334  10.327   0.913   5.477 -1.0483  0.2312  0.5826
 8124SOL    HW130335  10.264   0.904   5.548 -0.6236  1.0629  1.0899
 8124SOL    HW230336  10.321   1.006   5.452  0.7576  0.6274  1.4294
 8125SOL     OW30337   2.309   0.551   8.602 -0.4251  0.0144  0.1820
 8125SOL    HW130338   2.313   0.591   8.515 -1.8769  1.1027  0.5736
 8125SOL    HW230339   2.229   0.498   8.601 -0.1091 -0.4850  0.6482
 8126SOL     OW30340  11.152   0.083  10.804 -0.2287 -0.4313 -0.4184
 8126SOL    HW130341  11.243   0.106  10.788  0.1766  1.4782  3.4698
 8126SOL    HW230342  11.102   0.160  10.778 -0.5331 -0.7326 -0.7397
 8127SOL     OW30343   6.052   4.799  11.706 -0.4528  0.2148  0.2008
 8127SOL    HW130344   6.068   4.718  11.755  2.2048  0.9955  0.7554
 8127SOL    HW230345   6.037   4.865  11.773  1.9414  1.0347  0.0123
 8128SOL     OW30346   0.628   2.716   1.998 -0.2197  0.1179 -0.8157
 8128SOL    HW130347   0.630   2.698   1.904  1.1901  0.0663 -0.8022
 8128SOL    HW230348   0.688   2.651   2.036 -2.5651 -1.4487  0.4489
 8129SOL     OW30349   5.769   3.992   1.968  0.3140 -0.5156 -0.7996
 8129SOL    HW130350   5.778   4.031   1.881  1.7979  2.8242  0.6545
 8129SOL    HW230351   5.781   4.066   2.029 -4.1699 -1.9286  2.2966
 8130SOL     OW30352   7.338   1.809   7.871 -0.3199 -0.3013  0.0468
 8130SOL    HW130353   7.273   1.811   7.800 -0.2954  0.5838  0.0372
 8130SOL    HW230354   7.400   1.741   7.845  0.4985  0.9661 -1.5120
 8131SOL     OW30355   3.872   8.025   9.697 -0.0253  0.4604 -0.5838
 8131SOL    HW130356   3.946   7.964   9.698 -0.7290 -0.4574  1.9970
 8131SOL    HW230357   3.795   7.969   9.688 -0.5421  1.2548 -1.2576
 8132SOL     OW30358   9.342   8.513   6.479 -0.3173  0.2077  0.5217
 8132SOL    HW130359   9.246   8.514   6.475 -0.2806 -0.3687 -0.6682
 8132SOL    HW230360   9.364   8.425   6.508 -0.0910 -0.5310 -1.7457
 8133SOL     OW30361   8.302   0.827   1.875 -0.1005  0.1778  0.3391
 8133SOL    HW130362   8.383   0.787   1.908  0.1439 -1.2614 -1.8026
 8133SOL    HW230363   8.234   0.794   1.933  0.4321 -1.4079  0.1003
 8134SOL     OW30364  12.369   7.736   6.825 -0.0516  0.3524  0.0692
 8134SOL    HW130365  12.389   7.805   6.888  0.2373  0.6130 -0.3047
 8134SOL    HW230366  12.343   7.661   6.879  1.5768  0.1111  0.5884
 8135SOL     OW30367  11.054   3.623  10.677 -0.2886 -0.5082 -0.2972
 8135SOL    HW130368  11.008   3.674  10.611 -0.3138  1.9689  1.5241
 8135SOL    HW230369  11.131   3.589  10.632 -0.3138  1.0937 -1.6142
 8136SOL     OW30370  11.033   8.036   3.874 -0.1112  0.1278 -0.3010
 8136SOL    HW130371  11.126   8.050   3.855  0.2039 -0.9396  0.3498
 8136SOL    HW230372  11.033   7.994   3.961 -1.1400 -0.6646 -0.6638
 8137SOL     OW30373   5.993  10.903   3.227 -0.5461  0.5603  0.5433
 8137SOL    HW130374   6.040  10.823   3.203 -2.3762 -0.6676  0.8210
 8137SOL    HW230375   6.009  10.912   3.321 -0.8181  0.1662  0.6309
 8138SOL     OW30376   0.944   2.773   5.185  0.1852  0.4461 -0.0363
 8138SOL    HW130377   0.929   2.798   5.094  1.7819 -0.0069 -0.4498
 8138SOL    HW230378   1.001   2.696   5.180 -1.3720 -0.8876  1.3095
 8139SOL     OW30379  11.623   2.456   7.397 -0.2668  0.1594 -0.1446
 8139SOL    HW130380  11.594   2.541   7.366 -0.1035  0.3621  0.2627
 8139SOL    HW230381  11.561   2.394   7.358  0.9407  0.2169 -2.3785
 8140SOL     OW30382   6.253   5.253   0.663  0.8921  0.4442 -0.3699
 8140SOL    HW130383   6.312   5.178   0.677 -0.7971 -1.4037 -2.3998
 8140SOL    HW230384   6.213   5.268   0.748  3.0440  0.6742  0.6566
 8141SOL     OW30385   4.688   6.169   5.780 -0.0944  0.5495 -0.0388
 8141SOL    HW130386   4.713   6.209   5.697 -0.4723 -1.2752 -1.0914
 8141SOL    HW230387   4.733   6.085   5.781 -0.8260  0.1448  1.1710
 8142SOL     OW30388   7.152  10.223   3.670  1.0196 -0.2825  0.2331
 8142SOL    HW130389   7.119  10.153   3.614 -0.1698  1.0735 -0.8320
 8142SOL    HW230390   7.116  10.203   3.757  0.0900 -0.5896 -0.2170
 8143SOL     OW30391  10.169   9.987   2.056  0.1586 -0.0188 -0.1416
 8143SOL    HW130392  10.131   9.899   2.062 -0.0225  0.0140 -0.6865
 8143SOL    HW230393  10.163  10.009   1.963 -0.5410  0.8917  0.0985
 8144SOL     OW30394   9.370   0.504   5.028  0.9892  0.0170  0.2405
 8144SOL    HW130395   9.325   0.472   4.950 -0.0383  2.7934 -0.4210
 8144SOL    HW230396   9.368   0.431   5.089 -1.4484 -1.0589 -1.0109
 8145SOL     OW30397   5.725   3.890   7.042 -0.1594  0.0425 -0.0384
 8145SOL    HW130398   5.706   3.852   7.128 -1.2222  0.1279 -0.2285
 8145SOL    HW230399   5.739   3.983   7.060  2.7502 -0.3671  0.4748
 8146SOL     OW30400   5.527   9.792   8.803 -0.4118  0.3719  0.5476
 8146SOL    HW130401   5.518   9.698   8.784  1.2144  0.5275 -1.3639
 8146SOL    HW230402   5.456   9.833   8.755 -0.4506  0.2022  0.4583
 8147SOL     OW30403   5.823  11.902   9.016  0.4390 -0.2255 -0.4530
 8147SOL    HW130404   5.811  11.984   8.969 -0.4411 -0.7576 -1.1881
 8147SOL    HW230405   5.821  11.926   9.109 -1.3809  0.4015 -0.6119
 8148SOL     OW30406  11.511   8.063  12.322 -0.6483  0.9149 -0.0034
 8148SOL    HW130407  11.539   8.048  12.231  0.5510  0.8893  0.3604
 8148SOL    HW230408  11.557   7.997  12.373  2.4816  3.7540  1.2374
 8149SOL     OW30409   0.348   7.448   9.438  0.2433  0.2100 -0.5668
 8149SOL    HW130410   0.434   7.450   9.480 -0.1502 -1.0454  0.3362
 8149SOL    HW230411   0.351   7.371   9.381 -0.9383 -1.0689  1.0089
 8150SOL     OW30412   0.093   6.848  10.840  0.9315  0.5088  0.0981
 8150SOL    HW130413   0.139   6.789  10.780 -0.3272  0.3516 -0.7479
 8150SOL    HW230414   0.062   6.919  10.784 -0.2344  0.3807  0.5664
 8151SOL     OW30415   8.603   3.965   0.687  0.2333  0.2534 -0.1635
 8151SOL    HW130416   8.627   3.980   0.778 -1.5429  2.3142  0.0582
 8151SOL    HW230417   8.599   3.870   0.678  0.1987  0.0005  1.9800
 8152SOL     OW30418   5.652   4.619   2.714  0.5835  0.3463 -0.0997
 8152SOL    HW130419   5.606   4.667   2.645  1.7324 -0.6895 -1.6217
 8152SOL    HW230420   5.589   4.553   2.743  0.1112  0.7568 -0.1777
 8153SOL     OW30421   5.650   4.545   0.157 -0.4827 -0.2237  0.4574
 8153SOL    HW130422   5.592   4.598   0.211 -1.9395 -1.6810  0.3848
 8153SOL    HW230423   5.614   4.456   0.163  0.9064 -0.9097 -0.7512
 8154SOL     OW30424   6.432   5.592   0.719 -0.0224 -0.0163  0.1564
 8154SOL    HW130425   6.349   5.614   0.677 -0.1896  0.4822  0.7294
 8154SOL    HW230426   6.454   5.668   0.772  0.7954 -0.1513  0.0362
 8155SOL     OW30427   0.832   2.923   4.320 -0.1724 -0.1286  0.0029
 8155SOL    HW130428   0.904   2.947   4.262 -1.6409  0.9521 -1.4780
 8155SOL    HW230429   0.791   3.006   4.344 -1.4481 -0.7587  0.0797
 8156SOL     OW30430  10.160   3.863  12.159  0.6578  0.9487 -0.5877
 8156SOL    HW130431  10.231   3.865  12.094  0.2769  0.3986 -1.0426
 8156SOL    HW230432  10.083   3.835  12.108  0.6043 -0.6747  0.3229
 8157SOL     OW30433   9.270   2.584   1.697  0.0037  0.2490  0.0902
 8157SOL    HW130434   9.178   2.609   1.700  0.1213  0.7617 -0.3666
 8157SOL    HW230435   9.307   2.623   1.776 -0.1448  0.1699  0.1982
 8158SOL     OW30436   4.445   1.109   3.498  0.0813 -0.2440  0.6840
 8158SOL    HW130437   4.512   1.158   3.449 -0.9291 -0.8336 -1.4073
 8158SOL    HW230438   4.410   1.173   3.561 -0.3361  1.3920 -1.1042
 8159SOL     OW30439   0.337   7.999  11.284 -0.4070  0.5116  0.8551
 8159SOL    HW130440   0.389   7.935  11.235 -0.5809  1.2351 -0.3312
 8159SOL    HW230441   0.342   7.970  11.375  1.5429  0.1873  0.6938
 8160SOL     OW30442   0.339  11.469   1.640 -0.1166  0.0390  0.2621
 8160SOL    HW130443   0.423  11.469   1.685  0.0545  0.1122 -0.0541
 8160SOL    HW230444   0.316  11.561   1.631 -0.8393 -0.0062  1.4653
 8161SOL     OW30445   7.620   3.819  11.412  0.1090 -0.5968  0.0018
 8161SOL    HW130446   7.579   3.876  11.477 -0.9039 -1.5257  0.2178
 8161SOL    HW230447   7.673   3.758  11.463 -1.5661 -2.0513  0.1319
 8162SOL     OW30448  10.244  12.307   2.942  0.4770  0.1841 -0.4820
 8162SOL    HW130449  10.221  12.214   2.953 -0.8215  0.6750  1.4673
 8162SOL    HW230450  10.312  12.322   3.008  1.8444  0.2933 -1.8593
 8163SOL     OW30451   9.509   9.467   8.411  0.1470  0.1423  0.1496
 8163SOL    HW130452   9.554   9.534   8.360 -0.6059  0.1613 -0.5100
 8163SOL    HW230453   9.428   9.450   8.363 -1.6402  1.6621  2.4206
 8164SOL     OW30454   6.434   0.443   6.625 -0.4751 -0.8284  0.0709
 8164SOL    HW130455   6.501   0.457   6.558 -0.4886 -0.4309  0.1387
 8164SOL    HW230456   6.351   0.447   6.578 -0.5023 -0.2027  0.1583
 8165SOL     OW30457  12.068   9.346   8.678 -0.8445  0.2730 -0.3551
 8165SOL    HW130458  12.118   9.373   8.755  2.1463  0.0818 -2.0732
 8165SOL    HW230459  12.108   9.263   8.652 -1.6944  0.3909 -2.1891
 8166SOL     OW30460   5.333   2.623   6.325 -0.2972  0.1798  0.1888
 8166SOL    HW130461   5.357   2.591   6.412 -0.7478 -0.3355  0.1331
 8166SOL    HW230462   5.383   2.567   6.265  0.3002  0.7778  0.1151
 8167SOL     OW30463   9.158   2.324   2.098  0.1056  0.3283  0.4637
 8167SOL    HW130464   9.119   2.297   2.015 -0.7946  0.6136  0.7822
 8167SOL    HW230465   9.149   2.419   2.099  0.9711  0.4207  0.4762
 8168SOL     OW30466   8.821   8.242   7.221 -0.5115 -0.2479 -0.6712
 8168SOL    HW130467   8.739   8.233   7.269 -0.6584  2.0440 -0.3850
 8168SOL    HW230468   8.796   8.231   7.129 -1.2371  0.8683 -0.6201
 8169SOL     OW30469   6.419   3.287   6.232  0.1869  0.0278  0.3953
 8169SOL    HW130470   6.335   3.323   6.204  0.0368 -0.6671 -0.0720
 8169SOL    HW230471   6.479   3.361   6.229 -0.0532  0.1850 -0.8170
 8170SOL     OW30472   2.055   9.646  11.633  0.1849 -0.5958 -0.2848
 8170SOL    HW130473   2.138   9.633  11.679  1.0160 -1.0006 -1.8193
 8170SOL    HW230474   1.989   9.645  11.703  1.5330  0.8181  1.0882
 8171SOL     OW30475  11.833  10.145  10.453 -0.0903 -0.1516 -0.1756
 8171SOL    HW130476  11.784  10.073  10.414 -0.3248  0.6665 -1.4761
 8171SOL    HW230477  11.914  10.105  10.485 -0.1489 -0.9779 -1.0103
 8172SOL     OW30478   2.736   4.624   0.278 -0.1795  0.7943 -0.4917
 8172SOL    HW130479   2.672   4.692   0.300 -0.6835  0.1741  0.0116
 8172SOL    HW230480   2.785   4.660   0.205 -1.8198  0.8701 -1.6168
 8173SOL     OW30481   3.098   4.216  10.178  0.3713 -0.6392 -0.2853
 8173SOL    HW130482   3.120   4.288  10.236  1.2417  0.4689 -1.9366
 8173SOL    HW230483   3.050   4.154  10.234 -3.1566  2.4953  0.5934
 8174SOL     OW30484   4.640   9.827   6.557 -0.1230 -0.3377  0.0246
 8174SOL    HW130485   4.554   9.823   6.599 -0.1460 -1.5079 -0.0955
 8174SOL    HW230486   4.680   9.906   6.592 -0.7256 -0.4981  1.1159
 8175SOL     OW30487   0.581   2.105   4.409  0.2326 -0.0053  0.0599
 8175SOL    HW130488   0.668   2.066   4.408  0.4698  0.5202 -0.8813
 8175SOL    HW230489   0.597   2.197   4.432 -0.3832 -0.5465  3.0851
 8176SOL     OW30490   1.320  10.624  11.594 -0.2283  0.1391  0.2242
 8176SOL    HW130491   1.322  10.690  11.524 -0.1775  0.8466  0.8788
 8176SOL    HW230492   1.370  10.550  11.558 -0.0170  0.5749 -0.4037
 8177SOL     OW30493   3.300   4.001   1.752 -0.1610  0.0895 -0.0237
 8177SOL    HW130494   3.220   3.986   1.701  0.4957  1.1836 -1.4177
 8177SOL    HW230495   3.335   3.913   1.767 -0.5869 -0.2872 -1.1169
 8178SOL     OW30496   0.535   6.608   9.163  0.1820 -0.4076 -0.1536
 8178SOL    HW130497   0.453   6.655   9.177  1.6475  2.7566 -1.1884
 8178SOL    HW230498   0.540   6.547   9.236 -1.6717  1.4173  1.6511
 8179SOL     OW30499   2.175   3.805   1.756 -0.0784 -0.2629  0.0057
 8179SOL    HW130500   2.180   3.750   1.678 -0.0102  0.0067 -0.1817
 8179SOL    HW230501   2.235   3.878   1.738 -0.2742 -0.0529  0.1910
 8180SOL     OW30502   4.673   5.186   4.285  0.3114 -0.0791 -1.1985
 8180SOL    HW130503   4.598   5.143   4.243 -0.8864  1.0744 -0.3286
 8180SOL    HW230504   4.736   5.116   4.299 -1.3548 -1.4923 -0.2697
 8181SOL     OW30505   4.370   4.010  10.073 -0.0551 -0.0243 -0.2978
 8181SOL    HW130506   4.297   4.071  10.057 -0.3060  0.2692  1.6772
 8181SOL    HW230507   4.365   3.947  10.001 -1.4584  0.7511 -0.9165
 8182SOL     OW30508  11.150   8.355  10.703  0.7539  0.2299  0.1706
 8182SOL    HW130509  11.056   8.372  10.689  0.1353 -1.1426  2.2531
 8182SOL    HW230510  11.153   8.271  10.748  3.0228  0.2180  0.1111
 8183SOL     OW30511   4.146   4.895  10.895 -0.4481  0.0976  0.2985
 8183SOL    HW130512   4.067   4.873  10.946  0.0204 -0.3222  0.8621
 8183SOL    HW230513   4.156   4.989  10.908  0.8093 -0.2802  2.7353
 8184SOL     OW30514  11.032   4.637   7.623 -0.2433  0.6482 -0.1313
 8184SOL    HW130515  11.114   4.656   7.670  0.4959 -0.0890 -1.0788
 8184SOL    HW230516  11.024   4.542   7.625 -2.3608  0.7905  1.9954
 8185SOL     OW30517   4.840  12.308   9.062  0.6175 -0.1478 -0.1121
 8185SOL    HW130518   4.894  12.313   8.983  1.4738  1.9218  0.5523
 8185SOL    HW230519   4.890  12.251   9.120  2.5184  2.1943  0.7145
 8186SOL     OW30520   7.003   1.808   4.121 -0.0254  0.0683  1.0181
 8186SOL    HW130521   6.951   1.747   4.068  0.6146  0.4024 -0.0399
 8186SOL    HW230522   6.940   1.873   4.152 -0.0630  1.3941 -1.5858
 8187SOL     OW30523   2.043   7.444   9.310  0.5431  0.3247  0.0714
 8187SOL    HW130524   1.951   7.440   9.288  0.4331  0.0306  0.5695
 8187SOL    HW230525   2.082   7.368   9.269  0.5785  0.4954 -0.2100
 8188SOL     OW30526   8.365   7.025  12.313  0.0060 -0.0652 -0.4589
 8188SOL    HW130527   8.412   6.947  12.342  1.6035  0.8192 -0.5577
 8188SOL    HW230528   8.416   7.058  12.239 -1.3983  0.3311 -1.2829
 8189SOL     OW30529   6.218   4.108  10.470  0.6453  0.4593  0.0659
 8189SOL    HW130530   6.140   4.162  10.472  0.2242 -0.0587 -1.2712
 8189SOL    HW230531   6.258   4.120  10.556 -1.6403 -0.3564  1.3274
 8190SOL     OW30532   8.969   8.907   4.032  0.2806 -0.7052  0.0082
 8190SOL    HW130533   8.983   8.850   4.108  1.6045  0.7610  0.9118
 8190SOL    HW230534   9.045   8.891   3.976  0.2220 -0.4365 -0.1488
 8191SOL     OW30535  10.829   2.070   9.061  0.0471 -0.0567  0.6110
 8191SOL    HW130536  10.822   2.092   8.968 -1.7106 -0.7193  0.5478
 8191SOL    HW230537  10.846   2.153   9.105  0.6431  0.2969 -0.2643
 8192SOL     OW30538  12.414   9.482   1.771  0.0062  0.1283  0.0565
 8192SOL    HW130539  12.390   9.575   1.775 -1.7027 -0.2063 -1.3117
 8192SOL    HW230540  12.422   9.464   1.677 -1.2671 -1.4741  0.2238
 8193SOL     OW30541  12.379  11.139   1.499  0.9972  0.1437  0.6293
 8193SOL    HW130542  12.372  11.226   1.540  2.7981  0.6680 -0.0909
 8193SOL    HW230543  12.310  11.088   1.542 -0.3380  1.9962  0.8417
 8194SOL     OW30544  11.037   7.774   5.397 -0.0027  0.7043 -0.1672
 8194SOL    HW130545  11.040   7.687   5.435  1.6786  0.9338  0.2940
 8194SOL    HW230546  11.128   7.804   5.397 -0.0767  1.2295 -3.1911
 8195SOL     OW30547  11.548   3.744  10.930 -0.0030  0.2244 -0.2450
 8195SOL    HW130548  11.455   3.721  10.931 -0.1677  0.4193 -3.0958
 8195SOL    HW230549  11.584   3.694  10.857  1.9948  0.7020  0.3596
 8196SOL     OW30550   9.580  12.477   7.243  0.1267 -0.3308 -0.1327
 8196SOL    HW130551   9.577  12.555   7.188  0.5528  0.4357  0.9173
 8196SOL    HW230552   9.489  12.449   7.249 -0.1599  0.6547  0.2796
 8197SOL     OW30553   3.674   0.997   1.106 -0.5622 -0.0993 -0.0319
 8197SOL    HW130554   3.704   1.017   1.194 -0.9727  0.6812 -0.0570
 8197SOL    HW230555   3.734   1.045   1.049 -1.8933  1.6367 -0.0775
 8198SOL     OW30556   1.686   6.562   3.757  0.0504  0.5541  0.4997
 8198SOL    HW130557   1.730   6.647   3.759  0.6427  0.2497  0.6652
 8198SOL    HW230558   1.725   6.514   3.830  0.4297 -0.2085 -0.1903
 8199SOL     OW30559  10.544   6.751   4.672 -0.2796  0.1137  0.5547
 8199SOL    HW130560  10.450   6.757   4.653 -0.4323 -0.3236  1.1481
 8199SOL    HW230561  10.576   6.680   4.616 -0.0350  1.1140 -0.6111
 8200SOL     OW30562   6.228   6.641   4.605  0.2080  0.2673  0.0989
 8200SOL    HW130563   6.195   6.593   4.681 -0.7225 -0.7922 -0.9409
 8200SOL    HW230564   6.323   6.646   4.620 -0.0657  0.9232  1.7775
 8201SOL     OW30565   7.914  11.866   1.220 -0.2379  0.5845 -0.4285
 8201SOL    HW130566   7.852  11.921   1.267 -1.2505 -0.2647 -0.7417
 8201SOL    HW230567   7.999  11.885   1.260 -0.5517  2.3919 -0.5600
 8202SOL     OW30568   2.512  12.078   0.176 -0.2928 -0.1290  0.0153
 8202SOL    HW130569   2.520  12.060   0.083 -1.5615 -0.7249 -0.0026
 8202SOL    HW230570   2.419  12.066   0.195 -0.2167  0.9113  1.1765
 8203SOL     OW30571   4.930   0.959   5.418 -0.4196  0.6149 -0.3911
 8203SOL    HW130572   4.856   0.968   5.359 -1.2076  1.7128  0.7007
 8203SOL    HW230573   4.929   1.040   5.470  0.2016 -0.3160  1.1349
 8204SOL     OW30574  12.144  11.448  11.703 -0.1966 -0.1508 -0.9866
 8204SOL    HW130575  12.145  11.529  11.652  1.9598  0.5026 -0.0636
 8204SOL    HW230576  12.052  11.422  11.706 -0.8355  1.7785 -2.0701
 8205SOL     OW30577  10.277   6.360   0.250 -0.1417 -0.3302 -0.3349
 8205SOL    HW130578  10.255   6.283   0.198 -2.7487 -0.0075  0.1636
 8205SOL    HW230579  10.206   6.368   0.314  0.6176  1.8464  0.3494
 8206SOL     OW30580   3.213   7.603   8.093 -0.2038 -0.1612  0.1197
 8206SOL    HW130581   3.179   7.688   8.067 -0.9185  0.2731  2.2343
 8206SOL    HW230582   3.155   7.539   8.051 -2.2823  0.5259  1.7430
 8207SOL     OW30583   3.921   9.166   2.133  0.5079 -0.0726  0.8139
 8207SOL    HW130584   3.959   9.115   2.204  1.7777 -1.1279 -0.5741
 8207SOL    HW230585   3.981   9.155   2.059 -0.0608  2.0757 -0.0561
 8208SOL     OW30586  12.330  10.689   7.572 -0.5114  0.0515 -0.4196
 8208SOL    HW130587  12.314  10.747   7.647  1.6222 -0.3011  0.3775
 8208SOL    HW230588  12.418  10.713   7.542  0.0455 -2.0959 -0.6532
 8209SOL     OW30589   3.917   6.797   6.754  0.1548 -0.5257  0.0089
 8209SOL    HW130590   3.906   6.868   6.691  1.2860 -0.6536 -0.3672
 8209SOL    HW230591   3.841   6.740   6.740  0.1244 -0.2831 -0.8873
 8210SOL     OW30592   2.320   8.840   9.957  0.6182 -0.0064  0.2788
 8210SOL    HW130593   2.375   8.809  10.030 -0.5191  0.5439  1.4115
 8210SOL    HW230594   2.249   8.887  10.000 -0.4913 -0.3083 -1.1769
 8211SOL     OW30595   6.357  10.410   1.778 -0.8961  0.2688 -0.9057
 8211SOL    HW130596   6.324  10.496   1.752 -0.2119  0.9601  0.3920
 8211SOL    HW230597   6.282  10.365   1.817 -1.3802  0.0621 -2.0341
 8212SOL     OW30598  10.739   5.433  12.122 -0.1478  0.1853 -0.2324
 8212SOL    HW130599  10.824   5.390  12.135 -0.0822  0.2095 -0.5627
 8212SOL    HW230600  10.760   5.513  12.073 -0.2805  0.5414  0.2833
 8213SOL     OW30601  11.900   6.055   2.863  0.4330 -0.4742  0.2285
 8213SOL    HW130602  11.944   6.133   2.897  0.2479  0.8109 -2.2644
 8213SOL    HW230603  11.967   6.009   2.814 -0.3143  0.1354 -1.4308
 8214SOL     OW30604   6.862   6.608   8.856 -0.2458 -0.0812  0.1187
 8214SOL    HW130605   6.945   6.574   8.889 -0.7260  0.1864  1.6832
 8214SOL    HW230606   6.882   6.695   8.822  0.3956 -0.6502 -1.0085
 8215SOL     OW30607   1.781   7.650   5.173  0.1788 -0.2980 -0.0010
 8215SOL    HW130608   1.847   7.598   5.219  0.1195 -1.5248 -1.2533
 8215SOL    HW230609   1.831   7.718   5.128  0.3080  0.4253  1.1816
 8216SOL     OW30610   9.194   7.364   5.651 -0.0761  0.3972  0.2352
 8216SOL    HW130611   9.234   7.396   5.733  0.4023  1.3062 -0.3349
 8216SOL    HW230612   9.120   7.312   5.680  0.5554  0.0348  1.2820
 8217SOL     OW30613   0.980   3.122   8.038  0.1486 -0.6004 -0.1670
 8217SOL    HW130614   1.002   3.075   7.957  2.5954 -0.6033  0.4142
 8217SOL    HW230615   0.974   3.214   8.011  0.6246 -0.6423 -0.4363
 8218SOL     OW30616   7.995   9.146   2.920 -0.4564  0.0901  0.2782
 8218SOL    HW130617   7.936   9.076   2.892 -1.0684  0.5393  0.4290
 8218SOL    HW230618   7.942   9.202   2.976  0.0797  0.5743  0.3176
 8219SOL     OW30619   2.222   4.800   2.149  0.5871  0.2338 -0.3296
 8219SOL    HW130620   2.290   4.850   2.104  0.0889  0.8192 -0.4417
 8219SOL    HW230621   2.142   4.815   2.098  0.3260 -0.3014 -0.0965
 8220SOL     OW30622   7.182  11.131   3.365 -0.3513  0.3195 -0.1295
 8220SOL    HW130623   7.127  11.084   3.302  1.7080 -1.7318 -0.5386
 8220SOL    HW230624   7.139  11.117   3.449 -0.9651 -0.4358 -0.5528
 8221SOL     OW30625   1.688  10.209   3.738  0.2831  0.0242  0.3228
 8221SOL    HW130626   1.747  10.167   3.801 -0.8725 -0.7739  0.8953
 8221SOL    HW230627   1.697  10.157   3.659 -0.0562 -0.4313  0.5803
 8222SOL     OW30628   5.297   8.643   2.944 -0.1697  0.0558  0.4886
 8222SOL    HW130629   5.344   8.706   2.999 -1.5694  1.4423  0.1703
 8222SOL    HW230630   5.348   8.638   2.863  0.8925 -0.5903  1.1642
 8223SOL     OW30631   1.835  10.529   0.739 -0.1673  0.2627  1.0155
 8223SOL    HW130632   1.864  10.491   0.656  1.5316  1.4368  1.0122
 8223SOL    HW230633   1.761  10.475   0.766  1.4068 -2.3157  0.4638
 8224SOL     OW30634   7.723   7.110  11.403 -0.3796 -0.2202 -0.4333
 8224SOL    HW130635   7.679   7.029  11.380 -1.6158  0.5500 -0.8550
 8224SOL    HW230636   7.657   7.178  11.393  0.2583  0.7085  1.1279
 8225SOL     OW30637   0.200   1.222   8.738  0.1434 -0.2857 -0.1329
 8225SOL    HW130638   0.148   1.164   8.682 -0.9346  0.9935 -0.5252
 8225SOL    HW230639   0.153   1.225   8.820  0.7278 -0.7097  0.2272
 8226SOL     OW30640  12.315   9.181  10.141  0.5357  0.1256  0.4585
 8226SOL    HW130641  12.305   9.128  10.221 -0.8469 -0.2900  0.0494
 8226SOL    HW230642  12.401   9.157  10.107 -0.6564 -3.3168 -0.6620
 8227SOL     OW30643   8.834   1.972  11.821 -0.4213  0.6125  0.4362
 8227SOL    HW130644   8.745   1.945  11.843 -0.7350 -0.5788 -2.0216
 8227SOL    HW230645   8.838   2.064  11.848 -0.9901 -0.3266  4.3411
 8228SOL     OW30646   7.390   2.650   6.558 -0.1618  0.4208 -0.3245
 8228SOL    HW130647   7.434   2.660   6.643 -0.6240 -0.6586  0.0653
 8228SOL    HW230648   7.327   2.721   6.555 -1.3774 -0.5330  1.0503
 8229SOL     OW30649   3.104   0.968  11.320 -0.4598 -0.2738  0.2779
 8229SOL    HW130650   3.148   0.886  11.295  0.6080  0.0857  0.9288
 8229SOL    HW230651   3.108   1.021  11.240  0.0172 -0.3662  0.2333
 8230SOL     OW30652   5.326   7.140   5.903 -0.1531 -0.3857  0.1839
 8230SOL    HW130653   5.267   7.190   5.959 -0.3217 -0.0682 -0.2667
 8230SOL    HW230654   5.356   7.067   5.957 -0.7192 -0.3723  0.5178
 8231SOL     OW30655  11.816   2.936  10.101 -0.6557 -0.3505 -0.0534
 8231SOL    HW130656  11.782   3.010  10.051 -1.7422 -0.2809  0.7570
 8231SOL    HW230657  11.755   2.926  10.174  1.3881  0.2091  1.8570
 8232SOL     OW30658  11.344   0.492   3.410 -0.3615 -0.0096  0.0509
 8232SOL    HW130659  11.408   0.427   3.382 -0.8312 -0.5999  0.3210
 8232SOL    HW230660  11.361   0.505   3.503 -1.2713 -0.9280  0.3621
 8233SOL     OW30661   2.205   1.240   4.819 -0.2205 -0.3149 -0.5723
 8233SOL    HW130662   2.266   1.170   4.795 -0.6660 -0.5244 -1.1194
 8233SOL    HW230663   2.244   1.280   4.897  1.5840  0.7885 -1.9931
 8234SOL     OW30664   0.478   6.867   5.893  0.6590 -0.6529 -0.1701
 8234SOL    HW130665   0.554   6.830   5.847  0.8967 -0.6284  0.1961
 8234SOL    HW230666   0.502   6.959   5.906 -0.3941 -0.0590 -2.0708
 8235SOL     OW30667   4.282   4.494  10.554 -0.2509  0.3094  0.0481
 8235SOL    HW130668   4.319   4.450  10.630  1.0614  0.4806 -0.4790
 8235SOL    HW230669   4.228   4.564  10.592 -0.2396 -0.0882  0.8295
 8236SOL     OW30670   5.507   2.647   8.563 -0.6342 -0.2234  0.3545
 8236SOL    HW130671   5.468   2.640   8.476 -1.1890 -2.0155  0.7109
 8236SOL    HW230672   5.539   2.737   8.568  0.9523 -0.5499 -2.3511
 8237SOL     OW30673   4.305   5.119   1.347  0.4468  0.1393  0.1742
 8237SOL    HW130674   4.300   5.093   1.255 -2.5066  0.0150  0.2535
 8237SOL    HW230675   4.381   5.072   1.382 -0.0162 -2.0686 -1.5770
 8238SOL     OW30676  12.451   4.500   4.341  0.3308  0.3270  0.3502
 8238SOL    HW130677  12.541   4.527   4.359  0.8582 -0.1952 -1.2931
 8238SOL    HW230678  12.450   4.484   4.246 -1.3107 -0.3498  0.4603
 8239SOL     OW30679   1.424   4.236   5.678 -0.0841  0.4968 -0.4591
 8239SOL    HW130680   1.382   4.212   5.596  0.3759 -1.8028 -0.0924
 8239SOL    HW230681   1.510   4.195   5.675 -0.1564  0.1169  1.2547
 8240SOL     OW30682  10.550   4.809   0.794 -0.3329 -0.2080 -0.3030
 8240SOL    HW130683  10.513   4.825   0.707 -0.8622  2.3087  0.2901
 8240SOL    HW230684  10.495   4.740   0.831 -0.9434 -0.3746 -1.4633
 8241SOL     OW30685   1.233   3.746  11.806  0.0300 -0.5322  0.4763
 8241SOL    HW130686   1.274   3.714  11.886  0.0232 -2.1173 -0.1160
 8241SOL    HW230687   1.262   3.685  11.738 -0.5094  0.3742 -0.6104
 8242SOL     OW30688   4.942   6.001   0.768 -0.2158  0.0540  0.0874
 8242SOL    HW130689   4.881   5.971   0.701 -0.2426 -0.4517  0.3358
 8242SOL    HW230690   4.886   6.039   0.836 -0.2397 -0.2086  0.2141
 8243SOL     OW30691   2.128   0.039   5.043 -0.3619  0.0516  0.1762
 8243SOL    HW130692   2.056   0.103   5.045 -0.2540  0.2700 -1.4804
 8243SOL    HW230693   2.168   0.045   5.129 -1.3570  1.0605  0.5941
 8244SOL     OW30694   5.073   8.910   0.777  0.1841  0.0006  0.5333
 8244SOL    HW130695   5.154   8.942   0.737 -0.1388 -0.5732 -0.6311
 8244SOL    HW230696   5.019   8.988   0.789 -0.0844  0.1036 -1.0858
 8245SOL     OW30697  10.905  12.224   1.985 -0.1603  0.0030 -0.6116
 8245SOL    HW130698  10.936  12.188   2.068  0.8760  0.6490 -0.6975
 8245SOL    HW230699  10.904  12.150   1.925 -1.5301 -0.5987  0.1346
 8246SOL     OW30700   9.621  11.253   6.772  0.3655 -0.0609  0.4423
 8246SOL    HW130701   9.544  11.207   6.739 -0.1000  2.4891 -2.5427
 8246SOL    HW230702   9.694  11.211   6.726  0.3141 -0.0795  0.3762
 8247SOL     OW30703   3.558   8.134   1.994  0.6964  0.7424 -0.0692
 8247SOL    HW130704   3.497   8.063   2.014  1.1753  1.1946  3.7369
 8247SOL    HW230705   3.509   8.191   1.934 -2.9272  1.2237  2.9363
 8248SOL     OW30706   3.408   6.939   9.218  0.1552 -0.1096 -0.3407
 8248SOL    HW130707   3.439   6.888   9.293 -1.9273 -0.3790  0.3867
 8248SOL    HW230708   3.479   6.931   9.153  1.6271 -0.5689  1.2464
 8249SOL     OW30709   0.813   7.825  10.753 -0.3188  0.0886  0.2707
 8249SOL    HW130710   0.908   7.832  10.743 -0.4649 -1.0293 -2.8346
 8249SOL    HW230711   0.795   7.868  10.837  2.7388  1.6584  0.2690
 8250SOL     OW30712   3.361   0.975  10.450  0.2531  0.1314  0.0697
 8250SOL    HW130713   3.417   0.997  10.375  0.2082 -1.8032 -0.5840
 8250SOL    HW230714   3.420   0.981  10.525  1.1265 -0.9595 -0.5046
 8251SOL     OW30715  10.402   9.530   1.429  0.6821 -0.5165  0.1279
 8251SOL    HW130716  10.323   9.580   1.411  0.5479 -1.1741 -1.3106
 8251SOL    HW230717  10.403   9.518   1.524 -1.7285 -1.7633  0.0487
 8252SOL     OW30718   3.879   2.828  10.045 -0.1832  0.0358  0.0134
 8252SOL    HW130719   3.902   2.868   9.961  1.6553 -0.6788  0.1172
 8252SOL    HW230720   3.888   2.899  10.108 -0.6634  0.3582 -0.2783
 8253SOL     OW30721   2.463  12.236   9.816 -0.3544  0.3464  0.5731
 8253SOL    HW130722   2.526  12.304   9.792 -1.1008  1.1092  0.7046
 8253SOL    HW230723   2.409  12.225   9.738  1.1781 -1.7853 -0.2656
 8254SOL     OW30724   8.979   5.029   6.392 -0.3535  0.3217  0.1300
 8254SOL    HW130725   8.988   5.124   6.402 -2.2608  0.3936  1.8548
 8254SOL    HW230726   8.993   4.994   6.479 -0.6616 -0.8764 -0.2868
 8255SOL     OW30727   7.331   1.260  10.154  0.1806  0.0575 -0.1581
 8255SOL    HW130728   7.315   1.180  10.105  2.6812  0.2128 -1.3842
 8255SOL    HW230729   7.365   1.321  10.089 -1.1861  2.0021  0.8369
 8256SOL     OW30730  11.776   0.801   1.251 -0.4783 -0.4180  0.0875
 8256SOL    HW130731  11.738   0.808   1.164  0.6519  0.2517 -0.3784
 8256SOL    HW230732  11.722   0.857   1.306 -0.0058  0.7927 -0.6353
 8257SOL     OW30733   6.974   9.531   4.632  0.2060  0.4726  0.6387
 8257SOL    HW130734   6.956   9.614   4.588 -0.6484  1.5286  2.7898
 8257SOL    HW230735   6.896   9.478   4.618  0.4369  0.3282 -0.1073
 8258SOL     OW30736   4.232   8.894   1.017  0.2517 -0.2397  0.1147
 8258SOL    HW130737   4.188   8.917   0.935  0.8971  0.9861  0.0854
 8258SOL    HW230738   4.319   8.866   0.990  0.8616  1.2563  0.4207
 8259SOL     OW30739   4.904  11.035   9.244 -0.1847  0.1523  0.2569
 8259SOL    HW130740   4.934  11.123   9.267 -0.8545 -0.2555  2.9246
 8259SOL    HW230741   4.963  10.976   9.291  0.0839 -0.8827 -1.2870
 8260SOL     OW30742  10.657   3.065   2.217  0.4795  0.2446  0.4345
 8260SOL    HW130743  10.673   2.977   2.253 -2.3898 -0.6340 -0.1707
 8260SOL    HW230744  10.735   3.115   2.242  2.1491 -2.3929  0.9621
 8261SOL     OW30745  12.012   5.669   5.132 -0.2578  0.1707  0.0522
 8261SOL    HW130746  11.940   5.686   5.071  0.1648 -1.7582 -1.0629
 8261SOL    HW230747  11.968   5.662   5.217 -1.0250  1.5830 -0.1864
 8262SOL     OW30748   5.260  10.189   4.755  0.0181 -0.1105 -0.2888
 8262SOL    HW130749   5.267  10.171   4.661 -1.2766 -2.2333 -0.0390
 8262SOL    HW230750   5.318  10.127   4.797  0.5730  0.8131  0.3432
 8263SOL     OW30751   3.535   1.928  11.336  0.0430 -0.0368 -0.0210
 8263SOL    HW130752   3.629   1.945  11.325  0.3081 -1.5162 -0.3056
 8263SOL    HW230753   3.496   1.959  11.254  0.4266 -0.3139 -0.3163
 8264SOL     OW30754   6.283   0.080  11.305 -0.0825 -0.3231  0.6572
 8264SOL    HW130755   6.273   0.175  11.314 -0.0293 -0.3515  1.0272
 8264SOL    HW230756   6.362   0.069  11.253  1.5165 -0.2004  2.9406
 8265SOL     OW30757  10.896   4.476   7.911 -0.2586 -0.4054  0.5113
 8265SOL    HW130758  10.809   4.515   7.899 -0.8649 -1.6280  0.6713
 8265SOL    HW230759  10.949   4.545   7.948 -0.5406  1.0818 -1.6334
 8266SOL     OW30760   7.295   5.272   3.621 -0.4061  0.0353 -0.3468
 8266SOL    HW130761   7.233   5.256   3.692  0.0050  0.6296  0.1567
 8266SOL    HW230762   7.255   5.231   3.544 -0.0646 -2.1547  0.5661
 8267SOL     OW30763  12.485   1.452   1.097  0.0030 -0.3610 -0.5416
 8267SOL    HW130764  12.491   1.510   1.021  0.3919  1.0076  0.4881
 8267SOL    HW230765  12.480   1.364   1.060 -1.4402  0.3592 -2.1844
 8268SOL     OW30766  10.663   9.837   4.993 -0.1249 -0.1610  0.2376
 8268SOL    HW130767  10.718   9.899   5.041  0.0088  0.3943 -0.6030
 8268SOL    HW230768  10.726   9.786   4.941 -0.1401 -1.6529  1.5909
 8269SOL     OW30769   4.181  11.582   4.603 -0.3591  0.3106 -0.6337
 8269SOL    HW130770   4.137  11.649   4.655 -0.5972  1.4524 -2.2330
 8269SOL    HW230771   4.274  11.598   4.617 -0.4010 -0.3150  0.5280
 8270SOL     OW30772  10.009   1.540  10.897  0.1383 -0.1659 -0.8100
 8270SOL    HW130773   9.966   1.507  10.819 -1.4210 -2.3011  0.8322
 8270SOL    HW230774  10.015   1.464  10.956 -0.0764  1.6203  1.7085
 8271SOL     OW30775   3.085   0.299   9.051  0.0522  0.3148  0.3114
 8271SOL    HW130776   3.093   0.392   9.072 -0.4666  0.1780  1.1526
 8271SOL    HW230777   3.094   0.254   9.135 -0.2640 -0.3665 -0.0109
 8272SOL     OW30778   7.863   7.954   9.278  0.2947 -0.1502  0.6480
 8272SOL    HW130779   7.879   7.862   9.262  1.9249  0.4268 -1.3922
 8272SOL    HW230780   7.784   7.975   9.227  1.0070 -0.0339 -0.4334
 8273SOL     OW30781  12.422  11.192   9.210 -0.0344 -0.7885 -0.3352
 8273SOL    HW130782  12.372  11.253   9.265  1.3854 -0.1872  0.3714
 8273SOL    HW230783  12.407  11.106   9.249  0.2305 -0.4815  0.4705
 8274SOL     OW30784  12.207   2.274  10.881 -0.3236  0.0317 -0.8643
 8274SOL    HW130785  12.146   2.241  10.947 -3.2129  1.8257 -2.4070
 8274SOL    HW230786  12.292   2.273  10.924 -1.9034  0.3585  2.6105
 8275SOL     OW30787   7.973   5.788   5.118 -0.6936  0.1453 -0.1126
 8275SOL    HW130788   8.036   5.727   5.155 -1.7391 -1.5085 -0.9811
 8275SOL    HW230789   8.026   5.849   5.066  0.3228 -0.2035  0.4926
 8276SOL     OW30790  11.576  11.141   0.830  0.5148 -0.0189 -0.3762
 8276SOL    HW130791  11.637  11.103   0.892  1.3480  1.1028 -0.4912
 8276SOL    HW230792  11.554  11.226   0.866  0.9416  0.6116 -1.5515
 8277SOL     OW30793   2.825   9.594   4.198 -0.0479 -0.2852  0.6172
 8277SOL    HW130794   2.845   9.686   4.181 -1.3986  0.5656  3.2132
 8277SOL    HW230795   2.730   9.589   4.196 -0.1986 -0.7854  3.9043
 8278SOL     OW30796   2.591   1.293   7.520  0.0375  0.4830 -0.0519
 8278SOL    HW130797   2.634   1.207   7.522 -0.1463  0.3773 -0.6269
 8278SOL    HW230798   2.548   1.297   7.435 -0.4232  0.9194  0.1942
 8279SOL     OW30799   1.236   9.613   8.041 -0.7383 -0.7493  0.5575
 8279SOL    HW130800   1.225   9.653   8.127  0.1720 -0.0538  0.3564
 8279SOL    HW230801   1.237   9.687   7.980  1.1205 -1.0244  0.1982
 8280SOL     OW30802   1.929   3.500   9.325  0.0077 -0.5416 -0.4187
 8280SOL    HW130803   1.861   3.482   9.389 -0.5510 -0.8358 -1.0830
 8280SOL    HW230804   1.960   3.414   9.297  0.3949 -0.4133 -0.3889
 8281SOL     OW30805   8.810   5.765   9.962 -0.5655 -0.4725 -0.5694
 8281SOL    HW130806   8.857   5.810   9.892 -1.5219 -1.9908 -2.2824
 8281SOL    HW230807   8.721   5.799   9.956 -0.5947 -0.4127  0.1208
 8282SOL     OW30808  11.450   3.287   6.319  0.2656  0.5420 -0.1771
 8282SOL    HW130809  11.449   3.323   6.407  0.9123  0.8727 -0.2952
 8282SOL    HW230810  11.523   3.332   6.275  1.1823 -0.9826 -0.2940
 8283SOL     OW30811   8.348  11.607   6.043  0.5456 -0.7147 -0.2652
 8283SOL    HW130812   8.344  11.620   6.138  1.1874  0.4573 -0.3768
 8283SOL    HW230813   8.415  11.669   6.013 -0.5225 -0.1543 -1.6327
 8284SOL     OW30814   2.967   7.728  12.026  0.1000  0.0494 -0.0859
 8284SOL    HW130815   2.987   7.809  12.072 -0.8085  0.9082 -1.1630
 8284SOL    HW230816   2.872   7.721  12.029  0.1233 -0.6245 -0.5929
 8285SOL     OW30817   7.221  11.299   1.147 -0.4371  0.1529  0.5232
 8285SOL    HW130818   7.252  11.341   1.067  1.5973  0.8892  1.6443
 8285SOL    HW230819   7.272  11.219   1.154 -0.5344  0.1384  1.1377
 8286SOL     OW30820  10.703   5.771   7.784  0.8039 -0.1089  0.2487
 8286SOL    HW130821  10.622   5.725   7.806 -0.5750  1.4450 -1.2563
 8286SOL    HW230822  10.752   5.774   7.866  1.1188 -4.3088  0.4213
 8287SOL     OW30823   0.249   7.652   5.693  0.6475 -0.5989  0.1679
 8287SOL    HW130824   0.326   7.636   5.748  1.1724 -0.9396 -0.6633
 8287SOL    HW230825   0.179   7.668   5.756  1.3073 -0.6721  0.9424
 8288SOL     OW30826   6.079  11.415   6.865 -0.3342  0.1626 -0.0871
 8288SOL    HW130827   6.001  11.380   6.822 -0.3987 -1.7991  1.5098
 8288SOL    HW230828   6.135  11.444   6.792 -1.0087 -1.7574 -1.4480
 8289SOL     OW30829   7.559  12.419   3.417  0.5507  0.1232 -0.4461
 8289SOL    HW130830   7.541  12.513   3.425  0.7125  0.0312  1.5886
 8289SOL    HW230831   7.571  12.405   3.323 -0.8763  1.8645 -0.9560
 8290SOL     OW30832  12.141  11.337   1.498 -0.0124  0.1216 -0.3763
 8290SOL    HW130833  12.219  11.342   1.553  0.3083 -0.5757 -0.7684
 8290SOL    HW230834  12.148  11.412   1.440 -1.2809  1.9921  1.7077
 8291SOL     OW30835   9.786   7.305  11.294  0.7128 -0.1070 -0.4083
 8291SOL    HW130836   9.835   7.237  11.341 -1.0932 -1.2983 -0.1235
 8291SOL    HW230837   9.727   7.255  11.237 -0.5559  1.2318 -0.3085
 8292SOL     OW30838   3.890   3.337   7.577 -0.5871  0.6652  0.1562
 8292SOL    HW130839   3.863   3.369   7.491 -0.7513 -0.8698 -0.3900
 8292SOL    HW230840   3.974   3.380   7.594 -0.6827  1.1796 -0.6363
 8293SOL     OW30841   1.476  12.231  11.678 -0.1598  0.0361  0.5151
 8293SOL    HW130842   1.386  12.201  11.663 -0.2937 -0.1264  1.5247
 8293SOL    HW230843   1.468  12.325  11.688 -0.5645 -0.1652  2.6409
 8294SOL     OW30844   0.268   5.767   4.791 -0.5143  0.9001 -0.5992
 8294SOL    HW130845   0.336   5.748   4.726 -1.0212  1.6579 -1.3736
 8294SOL    HW230846   0.315   5.780   4.873  0.0690 -1.0884 -0.5647
 8295SOL     OW30847  10.078   1.528  12.221 -0.3784 -0.7706  0.6196
 8295SOL    HW130848  10.076   1.513  12.126 -0.0515  0.1210  0.4627
 8295SOL    HW230849  10.094   1.622  12.230 -1.5604 -0.6334  1.5540
 8296SOL     OW30850   5.498   9.014   6.101  0.4811  0.1696  0.0911
 8296SOL    HW130851   5.505   8.943   6.037 -0.1597  0.7992 -0.7068
 8296SOL    HW230852   5.544   9.088   6.060  0.2866  0.5044  0.4733
 8297SOL     OW30853   4.986   6.953   6.792  0.0965  0.5448  0.6178
 8297SOL    HW130854   5.004   6.994   6.877  0.6144  1.0170  0.2914
 8297SOL    HW230855   4.903   6.908   6.804 -0.3721  1.5050  1.0580
 8298SOL     OW30856   9.121   1.628  10.899 -0.1074 -0.4294  0.1028
 8298SOL    HW130857   9.155   1.557  10.844 -0.5207 -0.6194  0.0867
 8298SOL    HW230858   9.180   1.630  10.974  1.6756  1.1448 -1.2432
 8299SOL     OW30859  11.837   3.944   9.928  0.8904 -0.1875 -0.3876
 8299SOL    HW130860  11.776   4.012   9.901  2.2462  0.9434 -0.7283
 8299SOL    HW230861  11.864   3.970  10.016  0.0907 -1.2710  0.2018
 8300SOL     OW30862   3.763   0.120   8.669  0.3297  0.1201  0.0029
 8300SOL    HW130863   3.692   0.058   8.652  0.3278  0.1519 -0.1088
 8300SOL    HW230864   3.720   0.206   8.666  0.1894  0.0873  0.9234
 8301SOL     OW30865   4.164   3.471   7.237 -0.3126 -0.2580 -0.1556
 8301SOL    HW130866   4.199   3.384   7.256  0.3730  0.2185  0.9034
 8301SOL    HW230867   4.224   3.508   7.172 -1.1442 -0.9108 -1.3190
 8302SOL     OW30868   9.912   3.718   7.418 -0.3215  0.6829 -0.4534
 8302SOL    HW130869   9.872   3.631   7.412 -0.9753  0.5009  3.6111
 8302SOL    HW230870   9.842   3.779   7.395 -1.0884  0.2035  0.5461
 8303SOL     OW30871   8.514  11.368   4.911 -0.3075  0.3957  0.0839
 8303SOL    HW130872   8.502  11.273   4.917 -0.3599  0.4415  0.7330
 8303SOL    HW230873   8.463  11.393   4.834  0.2784 -0.1944 -0.5105
 8304SOL     OW30874  12.049   1.444   5.080  0.1435  0.1383 -0.3282
 8304SOL    HW130875  12.107   1.520   5.066 -2.7256  2.3575 -1.2826
 8304SOL    HW230876  12.048   1.399   4.995 -0.8923  1.1938 -0.9045
 8305SOL     OW30877   9.360  10.192   6.831  0.3525  0.4883 -0.1262
 8305SOL    HW130878   9.346  10.287   6.833 -1.8823  0.3030 -2.3172
 8305SOL    HW230879   9.433  10.180   6.770 -0.2622  0.7616 -0.9301
 8306SOL     OW30880  10.335   3.868   1.247 -0.2981  0.0927 -0.0129
 8306SOL    HW130881  10.371   3.788   1.210  0.4546 -0.3240  1.5308
 8306SOL    HW230882  10.247   3.845   1.275 -0.7392  0.3153 -1.1837
 8307SOL     OW30883   3.037   2.705   0.604 -0.3081  0.6065  0.6326
 8307SOL    HW130884   3.001   2.792   0.590 -1.1592  0.3664  1.2396
 8307SOL    HW230885   2.968   2.658   0.651  1.3824  0.5949  3.2645
 8308SOL     OW30886   9.204  10.604   9.755 -0.6946 -0.4934 -0.0798
 8308SOL    HW130887   9.167  10.535   9.700  0.1585 -0.6427 -0.4879
 8308SOL    HW230888   9.141  10.616   9.825  0.1831 -3.3498  1.3628
 8309SOL     OW30889   4.428   1.271  12.279  0.4328 -0.5728 -0.0870
 8309SOL    HW130890   4.439   1.176  12.275 -2.0728 -0.9081 -2.2440
 8309SOL    HW230891   4.448   1.302  12.190 -1.0054  0.5450 -0.0769
 8310SOL     OW30892   1.999   7.181  11.960  0.3156  0.4821  0.4929
 8310SOL    HW130893   1.906   7.185  11.985  0.4950 -0.0116  1.2552
 8310SOL    HW230894   2.037   7.117  12.020  1.1523  0.6763  0.1732
 8311SOL     OW30895   3.789   9.009   6.468 -0.3351 -0.2880  0.2733
 8311SOL    HW130896   3.753   9.094   6.494 -0.0441 -0.6196  1.8645
 8311SOL    HW230897   3.846   8.984   6.541  0.1018 -1.5388 -0.4750
 8312SOL     OW30898   4.964   0.230   3.039 -0.6435  1.0074  0.0111
 8312SOL    HW130899   4.983   0.175   2.963 -0.8716  1.0915 -0.1077
 8312SOL    HW230900   4.899   0.180   3.089  0.3234  0.4390  0.7335
 8313SOL     OW30901   0.920   0.690   5.173 -0.2608  0.4334 -0.2580
 8313SOL    HW130902   0.973   0.769   5.185 -1.6579  1.6174 -1.4726
 8313SOL    HW230903   0.838   0.722   5.136 -0.7981 -1.6374 -0.9675
 8314SOL     OW30904   7.885   3.575   9.648  0.6116  0.4004 -0.0467
 8314SOL    HW130905   7.865   3.493   9.695 -3.5658  0.6744 -1.0125
 8314SOL    HW230906   7.861   3.644   9.709  0.5873  0.8590 -0.5681
 8315SOL     OW30907   0.439  10.167   5.651 -0.0068 -0.1241 -0.2086
 8315SOL    HW130908   0.459  10.083   5.610 -1.4317 -0.0046 -1.2214
 8315SOL    HW230909   0.390  10.215   5.585  0.2955  1.3025  0.5544
 8316SOL     OW30910   9.412   8.126   6.211 -0.7669 -0.3384  0.2931
 8316SOL    HW130911   9.412   8.203   6.155  0.2298 -0.3117  0.3081
 8316SOL    HW230912   9.468   8.063   6.165 -3.6479 -2.1260 -1.0992
 8317SOL     OW30913   7.745   4.068  11.786  0.3863 -0.0019  0.6239
 8317SOL    HW130914   7.816   4.003  11.784 -0.2133 -0.6980  1.5170
 8317SOL    HW230915   7.702   4.055  11.870 -1.3484 -0.1630 -0.2442
 8318SOL     OW30916   6.827   6.941   7.609 -0.0904  0.6083 -0.4918
 8318SOL    HW130917   6.866   6.961   7.694  0.3409  0.7640 -0.7295
 8318SOL    HW230918   6.848   6.849   7.594 -1.4264  0.1393  0.2455
 8319SOL     OW30919   5.189   4.915   6.871  0.1018  0.0200  0.0406
 8319SOL    HW130920   5.205   5.009   6.866  0.2574  0.0092  0.3099
 8319SOL    HW230921   5.095   4.905   6.854 -0.2798  0.3882  1.7496
 8320SOL     OW30922   2.693   8.157   1.624  0.3299  0.4438 -0.0291
 8320SOL    HW130923   2.704   8.067   1.594 -0.3242  0.3157  0.1087
 8320SOL    HW230924   2.624   8.193   1.569  1.1046  1.1064 -0.5972
 8321SOL     OW30925   4.542   2.306   3.108  0.6624 -0.1653  0.0538
 8321SOL    HW130926   4.457   2.340   3.135  1.2688  1.7940 -0.3644
 8321SOL    HW230927   4.558   2.345   3.022  2.3559  0.2248  0.5061
 8322SOL     OW30928   4.355   6.845  10.613  0.0871 -0.0155 -0.1361
 8322SOL    HW130929   4.420   6.889  10.559  0.9696 -1.1392 -0.0269
 8322SOL    HW230930   4.362   6.886  10.699  0.6445 -0.1137 -0.1342
 8323SOL     OW30931  10.062   3.359   5.811 -0.0370  0.0650  0.1830
 8323SOL    HW130932  10.100   3.287   5.761 -1.6973 -0.4688 -0.3797
 8323SOL    HW230933   9.975   3.328   5.836 -0.9910  2.0128 -0.4609
 8324SOL     OW30934   2.830   9.418  10.822  0.2839 -0.2756  0.1325
 8324SOL    HW130935   2.817   9.502  10.867  2.4616 -0.2547  0.8736
 8324SOL    HW230936   2.744   9.394  10.789 -0.9870  0.7909  2.4805
 8325SOL     OW30937   5.677   7.166   2.662  0.1115 -0.2252  0.4846
 8325SOL    HW130938   5.696   7.251   2.702  1.0538  0.0973 -0.5877
 8325SOL    HW230939   5.582   7.164   2.653  0.1535  1.2390 -0.5856
 8326SOL     OW30940  10.798   2.643  11.149  0.2896 -0.0008 -0.0498
 8326SOL    HW130941  10.747   2.722  11.166 -0.4769 -0.0433 -1.9352
 8326SOL    HW230942  10.878   2.675  11.106 -0.6307 -0.2578 -2.1101
 8327SOL     OW30943   3.286  10.454   0.478 -0.1197  0.5042  0.5860
 8327SOL    HW130944   3.352  10.490   0.537  1.8654 -2.2757  0.2665
 8327SOL    HW230945   3.328  10.454   0.392 -0.3230 -1.5766  0.4239
 8328SOL     OW30946   4.566   2.419   1.758  0.0809 -0.0472  0.6121
 8328SOL    HW130947   4.611   2.375   1.687 -0.9525 -2.0096  1.1028
 8328SOL    HW230948   4.634   2.468   1.804  0.9206  0.4428 -1.0997
 8329SOL     OW30949   4.418  11.318   0.605  0.0407  0.3189  0.1733
 8329SOL    HW130950   4.379  11.403   0.589  2.7592  1.2976 -2.1157
 8329SOL    HW230951   4.406  11.270   0.523  0.1450 -0.8185  0.7987
 8330SOL     OW30952   1.912   2.973   4.278 -0.2904  0.0546 -0.5265
 8330SOL    HW130953   1.873   2.981   4.191 -0.0366  4.8156 -0.4239
 8330SOL    HW230954   2.000   2.938   4.262 -1.0240 -1.3078 -1.8384
 8331SOL     OW30955   9.328   1.358   6.309 -0.5494  0.1312  0.1795
 8331SOL    HW130956   9.253   1.362   6.368 -0.3538  0.0908  0.4339
 8331SOL    HW230957   9.290   1.341   6.223 -0.9465  1.5911  0.0466
 8332SOL     OW30958   0.386   5.304   8.373 -0.1968  0.2777 -0.1169
 8332SOL    HW130959   0.351   5.244   8.307 -2.9686  2.8533 -1.1907
 8332SOL    HW230960   0.430   5.372   8.323 -0.2987  1.0534  0.8264
 8333SOL     OW30961   3.060   6.822  11.606  0.1781  1.1870 -0.0274
 8333SOL    HW130962   2.979   6.790  11.646  0.5573  0.2846  0.0305
 8333SOL    HW230963   3.123   6.823  11.678  0.3970  1.2457 -0.2189
 8334SOL     OW30964  10.759   1.314   4.631  0.0389 -0.2405  0.0315
 8334SOL    HW130965  10.737   1.271   4.714 -0.8283  1.4584  0.7344
 8334SOL    HW230966  10.697   1.386   4.624 -0.4790 -0.8533 -2.5716
 8335SOL     OW30967   9.031  10.847   2.041 -0.1371 -0.1901 -0.0163
 8335SOL    HW130968   9.114  10.847   1.994  0.0708  1.4989  0.2869
 8335SOL    HW230969   8.964  10.835   1.973  0.3120 -1.5497 -0.2602
 8336SOL     OW30970   8.724   7.563   7.347  0.0390 -0.0566 -0.2942
 8336SOL    HW130971   8.796   7.616   7.313  0.2737 -0.1121  0.1059
 8336SOL    HW230972   8.721   7.584   7.441  1.5410 -2.3018  0.3544
 8337SOL     OW30973   9.609   3.240   6.430 -0.2028 -0.6337 -0.1551
 8337SOL    HW130974   9.545   3.182   6.388 -1.8971  1.6228 -0.8896
 8337SOL    HW230975   9.611   3.318   6.375 -0.2003  1.1905  2.2568
 8338SOL     OW30976   4.918   9.123   0.519  0.1414 -0.2336  0.3873
 8338SOL    HW130977   4.822   9.126   0.519  0.1581  1.1364 -0.1776
 8338SOL    HW230978   4.939   9.049   0.461 -0.5784 -0.0767 -0.0947
 8339SOL     OW30979   7.903   9.064   4.112  0.3031 -0.1482 -0.4592
 8339SOL    HW130980   7.861   9.080   4.027 -0.4220  1.6890  0.2023
 8339SOL    HW230981   7.866   9.130   4.170 -0.7592 -2.5628  1.8491
 8340SOL     OW30982   9.214   3.693  10.342 -0.9502  0.3792  0.5300
 8340SOL    HW130983   9.260   3.692  10.258 -0.9479 -0.8896  0.5291
 8340SOL    HW230984   9.160   3.772  10.339 -2.0762 -0.4117 -1.2926
 8341SOL     OW30985   2.016   3.896  11.519 -0.2304 -0.7802  0.0662
 8341SOL    HW130986   2.093   3.935  11.477 -0.0113 -1.3239 -0.0428
 8341SOL    HW230987   1.954   3.969  11.527 -0.7095 -0.8670 -2.1996
 8342SOL     OW30988   7.911  11.366   1.255  0.0540 -0.0379 -0.4023
 8342SOL    HW130989   7.977  11.322   1.201  1.7327  1.0314  0.6904
 8342SOL    HW230990   7.893  11.448   1.210 -1.8182 -0.9808 -1.5405
 8343SOL     OW30991   0.695   9.074   0.250 -0.1173  0.3498  0.3936
 8343SOL    HW130992   0.616   9.086   0.198 -0.5758  2.3246  1.4252
 8343SOL    HW230993   0.672   9.005   0.313  0.8298 -2.9132 -2.5422
 8344SOL     OW30994   8.755   6.590  11.062 -0.1757 -0.2797  0.1831
 8344SOL    HW130995   8.704   6.537  11.124 -0.1706  0.1074  0.5231
 8344SOL    HW230996   8.839   6.545  11.056 -0.0340 -0.1089  0.7687
 8345SOL     OW30997   1.623   6.709   7.714 -0.3325  0.1996 -0.1392
 8345SOL    HW130998   1.563   6.636   7.727  1.2595 -1.1687 -0.1342
 8345SOL    HW230999   1.709   6.675   7.739  0.7777  1.4552 -1.9688
 8346SOL     OW31000   2.475   9.491  11.260 -0.2457  0.5342 -0.0696
 8346SOL    HW131001   2.496   9.577  11.296 -1.5550  0.8659 -0.0718
 8346SOL    HW231002   2.470   9.505  11.166  0.5319  0.2216 -0.1719
 8347SOL     OW31003   5.199   5.230   2.065 -0.0645 -0.4120 -0.3753
 8347SOL    HW131004   5.123   5.171   2.065 -1.4448  1.3011 -0.1675
 8347SOL    HW231005   5.188   5.283   2.144  0.5382  0.8578 -1.1228
 8348SOL     OW31006   0.702  10.699   4.902 -0.0902  0.2867 -0.3326
 8348SOL    HW131007   0.748  10.658   4.829  0.0762  1.3983 -0.8691
 8348SOL    HW231008   0.760  10.685   4.977  0.6635  0.8200 -0.8057
 8349SOL     OW31009   3.162   6.830   1.248  0.2289  0.4766 -0.4879
 8349SOL    HW131010   3.198   6.833   1.336  2.0433  1.2019 -1.2044
 8349SOL    HW231011   3.178   6.740   1.218  0.3352  0.4581 -0.3748
 8350SOL     OW31012   5.460   7.740   8.576  0.0597  0.6889 -0.2193
 8350SOL    HW131013   5.539   7.738   8.521 -0.2848  1.5748 -0.7580
 8350SOL    HW231014   5.436   7.648   8.586  3.2106 -0.0074  2.9678
 8351SOL     OW31015   4.956   3.351   7.477 -0.4901 -0.3549 -0.2339
 8351SOL    HW131016   5.052   3.348   7.480 -0.1608  1.6223 -3.5393
 8351SOL    HW231017   4.932   3.273   7.426 -0.4529  0.0212 -0.8417
 8352SOL     OW31018   9.347   6.810   1.556  0.0192  0.0255  0.7352
 8352SOL    HW131019   9.305   6.761   1.627 -0.9760 -2.3672 -1.3490
 8352SOL    HW231020   9.275   6.843   1.503  0.7358  0.3429 -0.0684
 8353SOL     OW31021   3.485   6.925   3.871 -0.2237 -0.9385  0.4085
 8353SOL    HW131022   3.578   6.904   3.882 -0.0447  0.5145  2.1841
 8353SOL    HW231023   3.445   6.900   3.955 -0.7945  1.4450  0.9045
 8354SOL     OW31024   1.907   1.737  11.815  0.8149  0.0280 -0.1352
 8354SOL    HW131025   1.999   1.763  11.815  0.7839  0.1577 -1.1416
 8354SOL    HW231026   1.894   1.698  11.901  1.3479  1.6216  0.7087
 8355SOL     OW31027   9.593   1.866   6.517  0.5258 -0.0109  0.2359
 8355SOL    HW131028   9.563   1.947   6.558  0.7856 -0.5150  1.4973
 8355SOL    HW231029   9.678   1.888   6.480 -0.9027  1.1942 -2.5816
 8356SOL     OW31030   0.561   6.168   9.647 -0.6930 -0.0128 -0.1243
 8356SOL    HW131031   0.526   6.112   9.716 -0.7006  0.4902  0.2833
 8356SOL    HW231032   0.483   6.200   9.601 -0.7627  0.7686  0.5183
 8357SOL     OW31033   0.029   4.219   7.862 -0.5219 -0.4423  0.0746
 8357SOL    HW131034   0.063   4.195   7.949 -1.9194  0.7851  1.0208
 8357SOL    HW231035   0.097   4.190   7.801  1.3791  0.2857  1.7035
 8358SOL     OW31036  11.912   3.933  10.893 -0.2631 -0.0568  0.2445
 8358SOL    HW131037  11.921   3.842  10.864  0.9455 -0.7030  2.4247
 8358SOL    HW231038  11.967   3.984  10.834 -1.0906 -0.6734 -1.1084
 8359SOL     OW31039   9.919   4.316  11.380 -0.1774 -0.2690 -0.1214
 8359SOL    HW131040   9.938   4.334  11.288  0.5607 -0.7151 -0.0621
 8359SOL    HW231041   9.985   4.252  11.406 -1.3436 -1.3268  0.2935
 8360SOL     OW31042   3.002   7.424  10.162  0.3803 -0.2251 -0.0224
 8360SOL    HW131043   3.016   7.418  10.256 -1.3325  1.4954  0.3999
 8360SOL    HW231044   2.941   7.353  10.142  1.5989 -1.2969 -0.0814
 8361SOL     OW31045   7.151  10.673  11.548 -0.0333 -0.2520  0.3127
 8361SOL    HW131046   7.170  10.579  11.556 -1.1864 -0.6259 -1.0159
 8361SOL    HW231047   7.219  10.707  11.490 -1.1301 -0.8302 -1.3708
 8362SOL     OW31048   5.031   1.123   3.735 -0.4781  0.5429  0.1158
 8362SOL    HW131049   5.093   1.184   3.695  0.4115  0.7927  1.7743
 8362SOL    HW231050   4.957   1.121   3.674  0.2960  1.7866 -0.9331
 8363SOL     OW31051   9.516   0.971   2.606  0.0518  0.1814 -0.6990
 8363SOL    HW131052   9.527   0.889   2.559 -0.1885  0.4043 -1.1521
 8363SOL    HW231053   9.601   1.014   2.601  0.6492 -0.7465  0.9191
 8364SOL     OW31054   9.757   1.323  10.834 -0.3687  0.1186 -0.7411
 8364SOL    HW131055   9.792   1.237  10.860 -1.1582 -0.2061 -0.7268
 8364SOL    HW231056   9.795   1.339  10.748  0.6424  0.2577 -0.2841
 8365SOL     OW31057   4.906   3.301   8.713 -0.1266  0.2226 -0.1613
 8365SOL    HW131058   4.945   3.381   8.748 -0.7380  0.6147 -0.3575
 8365SOL    HW231059   4.976   3.236   8.716  0.6973  1.0418 -0.9808
 8366SOL     OW31060   1.185   7.761   1.075  0.0901 -0.3310  0.6494
 8366SOL    HW131061   1.257   7.783   1.016  0.4538 -1.1211  0.7836
 8366SOL    HW231062   1.112   7.740   1.017  0.8796 -2.6198  0.3832
 8367SOL     OW31063   6.917  10.221  10.130  0.0685  0.1159 -0.5453
 8367SOL    HW131064   6.924  10.284  10.202  0.9377  0.6150 -1.0554
 8367SOL    HW231065   6.897  10.138  10.174  1.3650  0.2441  0.3676
 8368SOL     OW31066   5.768  10.450  10.496  0.6499 -0.1371  0.5547
 8368SOL    HW131067   5.778  10.358  10.474  0.4529  0.0730 -0.4560
 8368SOL    HW231068   5.817  10.497  10.428  0.7372  0.5003  1.0511
 8369SOL     OW31069   3.705   6.426   3.421 -0.1595 -0.0797  0.1634
 8369SOL    HW131070   3.620   6.408   3.460 -0.7185  1.9856  0.0365
 8369SOL    HW231071   3.764   6.437   3.495  0.4026 -2.8849  0.2487
 8370SOL     OW31072   2.915   4.618   8.110 -0.2719 -0.1465 -0.3474
 8370SOL    HW131073   2.910   4.687   8.175  1.0366 -0.9542  0.6677
 8370SOL    HW231074   2.856   4.646   8.040 -0.7857  1.3233  0.6337
 8371SOL     OW31075   4.868   5.412   8.393  0.2197 -0.2769  0.1894
 8371SOL    HW131076   4.863   5.471   8.468 -1.1185 -0.2973  0.1468
 8371SOL    HW231077   4.854   5.325   8.431  2.9658 -0.7275  0.3694
 8372SOL     OW31078  10.950   8.665   9.702 -0.3590 -0.0057 -0.6216
 8372SOL    HW131079  10.885   8.643   9.634 -0.8982 -0.2182 -0.0488
 8372SOL    HW231080  10.941   8.596   9.767  0.1387  0.2106 -0.3174
 8373SOL     OW31081   3.317   3.973   1.011  0.1923  0.0070 -0.4431
 8373SOL    HW131082   3.295   4.052   0.962 -0.4198  0.2176  0.1735
 8373SOL    HW231083   3.412   3.977   1.022  0.0901  0.9785  0.1401
 8374SOL     OW31084   5.523   4.525   3.745  0.0344  0.0134  0.0194
 8374SOL    HW131085   5.452   4.564   3.694 -1.0733 -0.5818  1.0548
 8374SOL    HW231086   5.598   4.525   3.686 -0.4699  1.8187 -0.6815
 8375SOL     OW31087   2.811   1.614   4.443  0.0177  0.8500 -0.0226
 8375SOL    HW131088   2.804   1.628   4.538 -0.4300  0.8220 -0.0517
 8375SOL    HW231089   2.773   1.528   4.429  1.3485  0.2352 -0.0504
 8376SOL     OW31090   7.836  11.640   9.083 -0.1756  0.2822 -0.4204
 8376SOL    HW131091   7.845  11.615   8.991  1.1602 -4.9115  0.8085
 8376SOL    HW231092   7.767  11.583   9.117  0.0284  1.3808  2.0754
 8377SOL     OW31093   8.733  11.520   8.308 -0.0723 -0.1146  0.2055
 8377SOL    HW131094   8.798  11.547   8.373  0.4825  1.2900 -0.8896
 8377SOL    HW231095   8.760  11.562   8.227 -2.9881  1.6032 -0.0504
 8378SOL     OW31096   7.445   2.505  10.831  0.3530  0.3712  0.2483
 8378SOL    HW131097   7.509   2.474  10.768  1.1304 -0.5336  1.4387
 8378SOL    HW231098   7.434   2.432  10.892  0.4162  1.5729  1.7588
 8379SOL     OW31099   4.586   9.484   4.670 -0.0312  0.0480 -0.2070
 8379SOL    HW131100   4.604   9.520   4.756 -1.0312  1.6173 -0.6115
 8379SOL    HW231101   4.670   9.491   4.623  0.1453  0.5518  0.1769
 8380SOL     OW31102  11.320   7.238   7.640  0.4189 -0.3933  0.3185
 8380SOL    HW131103  11.253   7.192   7.690  0.1494 -1.4736 -0.9725
 8380SOL    HW231104  11.337   7.181   7.564  2.3134  0.1601  0.2623
 8381SOL     OW31105   4.145   3.712   4.533 -0.4734  0.0448  0.0116
 8381SOL    HW131106   4.237   3.685   4.532 -0.6670 -0.7867  1.4101
 8381SOL    HW231107   4.098   3.633   4.558 -1.6731  0.2373 -1.5761
 8382SOL     OW31108   9.330   0.353   7.067 -0.0810  0.0892 -0.1280
 8382SOL    HW131109   9.235   0.361   7.060 -0.0524  1.1786  0.5607
 8382SOL    HW231110   9.362   0.443   7.074  0.8013 -0.3241  1.9542
 8383SOL     OW31111   2.724   5.355   9.605 -0.0918  0.0665  0.1961
 8383SOL    HW131112   2.643   5.340   9.655 -0.7634  0.0391 -0.8745
 8383SOL    HW231113   2.699   5.341   9.514  0.8325  1.2449 -0.2635
 8384SOL     OW31114   1.993   7.880  12.231  0.1856 -0.2072 -0.1257
 8384SOL    HW131115   2.063   7.836  12.280 -0.3750  0.1152  1.0009
 8384SOL    HW231116   1.930   7.810  12.213 -0.5520  0.0227  1.3848
 8385SOL     OW31117   8.347  10.083   5.067 -0.3426  0.4699 -0.0925
 8385SOL    HW131118   8.429  10.096   5.114 -0.3523  1.0113 -0.2131
 8385SOL    HW231119   8.328  10.168   5.027 -0.3853  0.0517 -0.9996
 8386SOL     OW31120   1.905   5.607   6.121 -0.4284 -0.2225 -0.5629
 8386SOL    HW131121   1.945   5.639   6.040  0.6480  0.5474  0.2373
 8386SOL    HW231122   1.866   5.685   6.161 -1.5901 -0.7309 -0.6886
 8387SOL     OW31123  10.923  11.492   6.122  0.3156  0.1209  0.0984
 8387SOL    HW131124  10.845  11.443   6.096 -0.3775  1.7349 -1.0073
 8387SOL    HW231125  10.995  11.430   6.110 -0.6916 -1.1839  0.4945
 8388SOL     OW31126  10.205   4.817  10.979 -0.2807  0.1361  0.7136
 8388SOL    HW131127  10.135   4.863  11.026 -0.1738 -1.1088  2.1656
 8388SOL    HW231128  10.229   4.745  11.036  0.6638 -0.7936 -0.7751
 8389SOL     OW31129   0.164   4.986  11.337  0.8731  0.0771  0.3147
 8389SOL    HW131130   0.174   5.026  11.250 -0.0499 -1.2034 -0.4301
 8389SOL    HW231131   0.077   5.014  11.366 -1.2017 -3.5269 -1.5595
 8390SOL     OW31132   6.414   1.212   7.014 -0.8433  0.4705  0.0674
 8390SOL    HW131133   6.496   1.207   6.964 -0.9665 -0.6686 -0.0548
 8390SOL    HW231134   6.441   1.210   7.105 -0.7736 -2.3089  0.0732
 8391SOL     OW31135  11.960   9.713   1.738 -0.2699  0.4087  0.1072
 8391SOL    HW131136  11.976   9.716   1.643 -0.4466  1.8334  0.1016
 8391SOL    HW231137  11.972   9.621   1.761  1.1004  0.2430 -1.0749
 8392SOL     OW31138   5.422   9.808  10.291  0.1302  0.2391  0.3540
 8392SOL    HW131139   5.425   9.728  10.237  3.7349 -0.6284  1.5640
 8392SOL    HW231140   5.488   9.865  10.252 -0.6437  1.6386  1.0253
 8393SOL     OW31141  12.493   9.243  10.432 -0.0654  0.0767 -0.3956
 8393SOL    HW131142  12.464   9.207  10.516  0.5713 -0.1341 -0.2650
 8393SOL    HW231143  12.425   9.308  10.409 -1.8606 -1.9496 -1.1848
 8394SOL     OW31144   9.757   2.397   3.332 -0.3101 -0.2313  0.2921
 8394SOL    HW131145   9.697   2.354   3.272  2.3745  0.8880 -3.5972
 8394SOL    HW231146   9.835   2.342   3.332  0.1457  0.3637  1.9509
 8395SOL     OW31147   5.259  11.427  11.524  0.1499  0.2464 -0.4227
 8395SOL    HW131148   5.252  11.409  11.618  0.8130  2.7837  0.1902
 8395SOL    HW231149   5.274  11.341  11.485  0.4525 -0.8275  1.8483
 8396SOL     OW31150   4.912   8.326   4.782 -0.2175  0.6847  0.6344
 8396SOL    HW131151   4.848   8.293   4.845 -0.8100 -0.0585 -0.3236
 8396SOL    HW231152   4.934   8.250   4.728  1.3777  0.9695  0.8544
 8397SOL     OW31153   4.443  12.042   6.115  0.3388 -0.0533 -0.3532
 8397SOL    HW131154   4.381  11.978   6.149 -0.6048  0.6061 -0.7986
 8397SOL    HW231155   4.518  11.990   6.087 -0.5105 -0.9991 -0.9379
 8398SOL     OW31156  10.202   4.290   7.317 -0.5675 -0.5021 -0.1659
 8398SOL    HW131157  10.239   4.327   7.237 -1.6804  0.1267 -0.4093
 8398SOL    HW231158  10.269   4.305   7.383 -0.5430  1.0030 -0.4982
 8399SOL     OW31159  11.781   4.992   5.304 -0.2304 -0.8864 -0.1199
 8399SOL    HW131160  11.871   5.018   5.289 -1.1832  2.3901 -0.9430
 8399SOL    HW231161  11.761   4.933   5.231  0.7366 -0.1807 -0.9871
 8400SOL     OW31162   6.792   0.463  12.054 -0.0925  0.0325  0.4384
 8400SOL    HW131163   6.870   0.509  12.023 -0.8821  0.2333 -1.3375
 8400SOL    HW231164   6.816   0.371  12.054  0.1970  0.1082  0.0755
 8401SOL     OW31165   6.763   8.436   9.140 -0.0837 -0.2740  0.8500
 8401SOL    HW131166   6.772   8.374   9.213 -0.5541  0.9074  1.9611
 8401SOL    HW231167   6.850   8.440   9.101  0.6410  0.3279  2.4295
 8402SOL     OW31168   2.174   9.112   2.301  0.4248 -0.3076  0.1738
 8402SOL    HW131169   2.091   9.117   2.349  0.7517 -1.6888  0.9278
 8402SOL    HW231170   2.228   9.051   2.352  0.6952 -2.0441 -2.0179
 8403SOL     OW31171   3.573  11.423   0.292 -0.3496  0.1260  0.1848
 8403SOL    HW131172   3.489  11.391   0.324 -0.8820  1.6271  0.3851
 8403SOL    HW231173   3.567  11.518   0.302  1.6775  0.2103  0.9248
 8404SOL     OW31174   7.038  12.270   0.840  1.1506  0.2923  0.7152
 8404SOL    HW131175   7.113  12.214   0.819  1.3394  1.7717 -3.5675
 8404SOL    HW231176   7.075  12.358   0.849  0.1121  0.9129 -0.6484
 8405SOL     OW31177   2.753   6.478   9.789  0.3745  0.2531  0.2686
 8405SOL    HW131178   2.736   6.398   9.740  1.1476 -0.1507  0.6437
 8405SOL    HW231179   2.675   6.532   9.775  0.6412  0.2417 -1.5569
 8406SOL     OW31180   3.433   5.441   5.026 -0.0894  0.3208 -0.0993
 8406SOL    HW131181   3.500   5.490   4.979 -1.7649  2.5564 -0.3569
 8406SOL    HW231182   3.438   5.473   5.116 -0.7849  0.5546 -0.1313
 8407SOL     OW31183   1.547   1.999   0.406 -0.4157  0.1552  0.1923
 8407SOL    HW131184   1.468   1.982   0.458  0.2323 -0.4001  1.0367
 8407SOL    HW231185   1.538   1.941   0.330 -0.2222 -0.9005  0.9448
 8408SOL     OW31186   4.880  10.308   3.937 -0.0232 -0.5137 -0.1719
 8408SOL    HW131187   4.915  10.227   3.976  0.9390 -0.0733 -0.0766
 8408SOL    HW231188   4.840  10.279   3.855 -0.3085 -1.1803  0.1919
 8409SOL     OW31189   0.169   7.989   7.405  0.0981  0.0719 -0.0319
 8409SOL    HW131190   0.129   8.023   7.325 -0.2237  0.2247  0.1946
 8409SOL    HW231191   0.258   8.023   7.404  0.3300 -0.5124 -0.6907
 8410SOL     OW31192   6.548   3.943   2.223  0.2076  0.2803  0.0176
 8410SOL    HW131193   6.613   3.929   2.292  1.1792  0.6834 -0.8009
 8410SOL    HW231194   6.578   4.020   2.176 -0.0994 -0.3321 -1.2343
 8411SOL     OW31195  10.310   7.097   1.788 -0.0914 -0.5949 -0.0906
 8411SOL    HW131196  10.387   7.141   1.753 -0.4362 -0.4593 -0.6844
 8411SOL    HW231197  10.311   7.010   1.748  0.1221 -0.8377  0.4268
 8412SOL     OW31198   8.961   2.996   7.243 -0.4965  0.1353 -0.1106
 8412SOL    HW131199   8.979   3.089   7.233  1.2476  0.0469  1.5989
 8412SOL    HW231200   9.047   2.953   7.232 -1.1777 -1.2322 -0.3904
 8413SOL     OW31201   8.584   5.879   6.191  0.0766 -0.3599 -0.2539
 8413SOL    HW131202   8.659   5.925   6.227 -0.9075  0.3466  0.9462
 8413SOL    HW231203   8.538   5.944   6.138  0.2814 -0.7858 -0.9750
 8414SOL     OW31204  10.941   6.590   6.605 -0.1616 -0.0455 -0.3228
 8414SOL    HW131205  10.847   6.605   6.612  0.1542  1.5452  1.4177
 8414SOL    HW231206  10.961   6.603   6.513 -1.5997 -0.1970 -0.6765
 8415SOL     OW31207  11.532   1.250   8.044 -0.1645  0.0874  0.5311
 8415SOL    HW131208  11.454   1.200   8.068  0.0536 -1.2247 -1.2995
 8415SOL    HW231209  11.506   1.342   8.054 -2.2804 -0.2929 -0.9837
 8416SOL     OW31210   0.359   0.769   0.883 -0.2685  0.5213 -0.1252
 8416SOL    HW131211   0.435   0.761   0.826  0.8490  0.9309  1.2334
 8416SOL    HW231212   0.294   0.816   0.831  0.4270  0.2252 -1.2902
 8417SOL     OW31213   0.691   1.905  12.361 -0.2429 -0.2128 -0.0547
 8417SOL    HW131214   0.688   1.829  12.419  0.8876 -1.0785 -1.0835
 8417SOL    HW231215   0.606   1.905  12.318 -0.2754 -0.8788 -0.0093
 8418SOL     OW31216   3.455   0.464   9.545 -0.0138 -0.3325 -0.1952
 8418SOL    HW131217   3.466   0.371   9.522  2.6675 -0.1327 -0.0117
 8418SOL    HW231218   3.393   0.497   9.481 -0.7783 -2.1597 -0.4787
 8419SOL     OW31219  11.686   7.021   0.636 -0.4732  0.2937 -0.2514
 8419SOL    HW131220  11.670   7.084   0.566  0.0875 -0.0165 -0.6615
 8419SOL    HW231221  11.766   7.053   0.679 -1.1614  0.8463  0.6691
 8420SOL     OW31222  11.070   7.418   4.297  0.1690 -0.3990  0.4898
 8420SOL    HW131223  11.067   7.479   4.223 -0.2856 -1.4226 -0.3822
 8420SOL    HW231224  11.138   7.452   4.354  2.1697 -0.7763 -1.5278
 8421SOL     OW31225  10.427   7.296   9.144  0.2195  0.1701  0.1766
 8421SOL    HW131226  10.358   7.309   9.078 -0.0299  1.2538  0.6304
 8421SOL    HW231227  10.503   7.342   9.108  0.2382  0.3144  0.3999
 8422SOL     OW31228   1.256   1.780   4.204 -0.4083  0.2952 -0.5016
 8422SOL    HW131229   1.210   1.734   4.275  1.1271 -1.3340 -0.4934
 8422SOL    HW231230   1.299   1.853   4.247  2.5578 -2.0501  0.8655
 8423SOL     OW31231   6.798   6.105   5.009  0.0191 -0.4547 -0.4143
 8423SOL    HW131232   6.884   6.116   5.050  0.6925  2.5499 -2.3273
 8423SOL    HW231233   6.814   6.050   4.932  0.1965 -0.0484 -0.6681
 8424SOL     OW31234  11.425   4.422   2.406 -0.6506  0.2122 -0.0312
 8424SOL    HW131235  11.472   4.355   2.456  1.0003 -0.0414 -1.7967
 8424SOL    HW231236  11.414   4.495   2.467 -0.6544 -0.9016  1.3219
 8425SOL     OW31237   3.359   2.675   1.259 -0.6154 -0.8388  0.0848
 8425SOL    HW131238   3.298   2.604   1.241 -0.5380 -0.5765 -1.3088
 8425SOL    HW231239   3.304   2.752   1.272 -0.6228 -0.7692 -0.3460
 8426SOL     OW31240   8.499   1.946   7.793 -0.1876  0.0387 -0.1987
 8426SOL    HW131241   8.473   1.982   7.707 -0.8168  0.1765  0.0440
 8426SOL    HW231242   8.475   2.015   7.855  0.1621 -0.1106  0.1026
 8427SOL     OW31243  10.536   8.947  11.350 -0.2742 -0.1217  0.1226
 8427SOL    HW131244  10.565   9.013  11.413 -0.6132 -1.0410  1.2846
 8427SOL    HW231245  10.586   8.869  11.372 -0.1750 -0.3792 -0.9666
 8428SOL     OW31246  12.441   6.060  11.371 -0.2054 -0.0520  0.7432
 8428SOL    HW131247  12.434   6.111  11.290  0.6379  0.3553  0.9138
 8428SOL    HW231248  12.515   6.099  11.418  0.3308 -1.2920  0.9786
 8429SOL     OW31249   8.299  12.293  10.536 -0.1026 -0.4420  0.5377
 8429SOL    HW131250   8.283  12.361  10.471 -0.9417  0.8637  2.0403
 8429SOL    HW231251   8.394  12.279  10.534  0.0974  0.8436  0.2362
 8430SOL     OW31252   8.969   7.055   4.887 -0.2454 -0.0823 -0.4919
 8430SOL    HW131253   9.012   7.135   4.856 -1.1593  1.0016  0.9244
 8430SOL    HW231254   8.938   7.077   4.975 -1.9394 -1.4717 -0.6950
 8431SOL     OW31255  10.151   5.457   0.055  0.0282 -0.3091 -0.5196
 8431SOL    HW131256  10.082   5.402   0.092  1.6128 -1.1866  1.3329
 8431SOL    HW231257  10.194   5.401  -0.010  2.0478 -1.6638  1.8106
 8432SOL     OW31258   8.459   0.267  10.257  0.7018 -0.3883 -0.4836
 8432SOL    HW131259   8.457   0.175  10.285  0.6722 -0.0951  0.5428
 8432SOL    HW231260   8.384   0.306  10.301  0.1265 -0.0798 -1.7217
 8433SOL     OW31261   6.151   9.646   7.289 -0.1521 -0.1321 -0.3904
 8433SOL    HW131262   6.219   9.593   7.247 -0.5033 -0.0593 -1.0617
 8433SOL    HW231263   6.085   9.583   7.319  0.2944 -0.2220  0.4495
 8434SOL     OW31264  10.391  11.643   5.981  0.5457 -0.1213 -0.5037
 8434SOL    HW131265  10.456  11.581   5.948 -1.1504 -2.4818  0.2970
 8434SOL    HW231266  10.371  11.613   6.069 -0.5796  1.4197 -0.1854
 8435SOL     OW31267  11.548  12.316   5.324 -0.4476 -0.3017 -0.1929
 8435SOL    HW131268  11.592  12.288   5.243 -1.1697 -4.4094  0.6239
 8435SOL    HW231269  11.619  12.323   5.388 -0.3372 -2.2447 -0.0244
 8436SOL     OW31270   0.774   2.066   6.817 -0.5234  0.0127  0.4897
 8436SOL    HW131271   0.693   2.058   6.767  0.4851  0.0657 -1.2377
 8436SOL    HW231272   0.779   2.159   6.840 -1.7120 -0.2626  2.0206
 8437SOL     OW31273   1.964   7.202   1.222  0.1692 -0.0036  0.1553
 8437SOL    HW131274   1.915   7.170   1.147 -0.1120  1.2645 -0.2280
 8437SOL    HW231275   2.046   7.234   1.186 -0.8805  2.7614 -0.0265
 8438SOL     OW31276   4.417   0.505   0.040  0.0627 -0.1189  0.1653
 8438SOL    HW131277   4.393   0.594   0.014  0.0554 -0.5815 -1.5775
 8438SOL    HW231278   4.345   0.476   0.095  0.2115  1.0418  1.0232
 8439SOL     OW31279   6.671   4.528   0.205 -0.6997 -0.2288 -0.1529
 8439SOL    HW131280   6.680   4.621   0.221 -2.2649 -0.1796  0.5836
 8439SOL    HW231281   6.597   4.520   0.144 -1.6296 -1.0493  1.0284
 8440SOL     OW31282   3.600  11.329   8.600  0.1500 -0.1801  0.3400
 8440SOL    HW131283   3.612  11.237   8.624 -0.5603  0.1764  2.2100
 8440SOL    HW231284   3.588  11.374   8.683 -1.5722  1.3095 -0.6360
 8441SOL     OW31285  10.790   6.416   4.290  0.6832 -0.0570 -0.4985
 8441SOL    HW131286  10.763   6.339   4.239 -0.2619  0.2746 -0.5292
 8441SOL    HW231287  10.880   6.433   4.262  1.0816 -1.4340 -0.1304
 8442SOL     OW31288   2.581   6.008   1.928 -0.0672  0.1865 -0.3063
 8442SOL    HW131289   2.539   5.969   2.004  0.5913 -0.0375 -0.0549
 8442SOL    HW231290   2.593   5.936   1.867 -0.7526  0.3969 -0.7067
 8443SOL     OW31291   0.292  12.435   1.640  0.5796  0.3444  1.0146
 8443SOL    HW131292   0.276  12.465   1.730  1.1530  1.0656  0.8894
 8443SOL    HW231293   0.273  12.512   1.586  0.3007 -0.0668  0.5161
 8444SOL     OW31294   1.052   2.250   0.063  0.0160 -0.0743  0.0795
 8444SOL    HW131295   1.033   2.160   0.036 -0.0320 -0.0212 -0.0630
 8444SOL    HW231296   0.967   2.294   0.061 -0.0021 -0.0952  0.4082
 8445SOL     OW31297   5.653  10.044   1.367 -0.3917 -0.4959  0.0193
 8445SOL    HW131298   5.703  10.042   1.448  0.1088  2.2931 -0.1135
 8445SOL    HW231299   5.573  10.093   1.390 -0.4569 -0.0795 -1.0551
 8446SOL     OW31300  10.141   3.797   3.432  0.1560 -0.0274  0.0776
 8446SOL    HW131301  10.204   3.812   3.361 -0.6286  0.5331 -0.5117
 8446SOL    HW231302  10.120   3.704   3.427  0.5566 -0.1118 -0.0424
 8447SOL     OW31303   7.378   3.253   4.351  0.1054  0.5030  0.1027
 8447SOL    HW131304   7.363   3.303   4.432  0.2463  0.9876 -0.1671
 8447SOL    HW231305   7.291   3.223   4.325  0.0450  0.4376  0.3750
 8448SOL     OW31306   5.244   0.190   1.303 -0.2795  0.7254 -0.4781
 8448SOL    HW131307   5.165   0.150   1.339  0.1327  1.0046  0.7824
 8448SOL    HW231308   5.311   0.176   1.369  1.3915 -1.5585 -2.4882
 8449SOL     OW31309   9.776   6.962   1.362 -0.1337 -0.0918  0.0793
 8449SOL    HW131310   9.824   6.961   1.445  1.0130  0.0133 -0.5557
 8449SOL    HW231311   9.733   6.876   1.358  2.3921 -1.4233 -0.6275
 8450SOL     OW31312   2.368   7.862  12.015 -0.0446 -0.6441  0.0719
 8450SOL    HW131313   2.362   7.880  12.109 -2.4842  0.8015 -0.2647
 8450SOL    HW231314   2.462   7.849  11.999  0.7358  1.3333  2.3313
 8451SOL     OW31315   9.642   9.466  12.053 -0.0719  0.2453  0.1335
 8451SOL    HW131316   9.678   9.377  12.056 -0.0868  0.2154 -0.5847
 8451SOL    HW231317   9.635   9.491  12.145 -0.5050 -0.6751  0.3648
 8452SOL     OW31318   5.899   8.855   2.321  0.2122  0.1739 -0.5399
 8452SOL    HW131319   5.976   8.867   2.265  1.0237  2.2880  0.8965
 8452SOL    HW231320   5.861   8.942   2.328  0.3172  0.0734  2.3487
 8453SOL     OW31321   2.756   4.970   7.193  0.1505 -0.0954  0.2971
 8453SOL    HW131322   2.726   5.060   7.181 -2.1344 -1.0707 -2.2841
 8453SOL    HW231323   2.826   4.958   7.128 -0.2975 -0.4706 -0.1246
 8454SOL     OW31324   0.304   8.286   8.585 -0.0146  0.0006 -0.4160
 8454SOL    HW131325   0.351   8.334   8.653 -0.2820 -1.9038  1.2090
 8454SOL    HW231326   0.228   8.340   8.564 -0.3004  0.3153  1.3224
 8455SOL     OW31327   1.119   8.476  11.337 -0.5867 -0.0944 -0.0280
 8455SOL    HW131328   1.112   8.521  11.253 -1.0450  0.0720  0.0993
 8455SOL    HW231329   1.039   8.425  11.343  0.1290 -1.3257 -0.3968
 8456SOL     OW31330   9.025   7.822  10.455  0.8643  0.2482  0.0157
 8456SOL    HW131331   9.097   7.817  10.517  0.3171  0.5900  0.7081
 8456SOL    HW231332   8.955   7.866  10.504 -0.0667 -0.7395 -0.3917
 8457SOL     OW31333   2.464   0.019   2.381 -0.5412 -0.1173  0.5331
 8457SOL    HW131334   2.422   0.105   2.376  0.4126  0.4228  1.4251
 8457SOL    HW231335   2.485   0.008   2.474 -2.3643 -2.1940  0.7924
 8458SOL     OW31336   6.325   7.462   2.946 -0.4918  0.1116 -0.3908
 8458SOL    HW131337   6.332   7.553   2.917 -1.5850  0.3998  0.1897
 8458SOL    HW231338   6.347   7.410   2.869  1.1129  0.8515 -0.4741
 8459SOL     OW31339   2.874   2.580   5.763 -0.3339 -0.2768  0.5212
 8459SOL    HW131340   2.924   2.500   5.779 -1.5360 -1.3177 -0.7005
 8459SOL    HW231341   2.838   2.603   5.849 -0.0598 -1.1091  0.8693
 8460SOL     OW31342   1.207   5.775  10.995  0.0220  0.0106 -0.0988
 8460SOL    HW131343   1.239   5.765  11.084 -0.7753 -0.0912  0.1778
 8460SOL    HW231344   1.169   5.863  10.993  2.6024  1.2244 -1.1581
 8461SOL     OW31345  12.026   1.391   2.419 -0.2092 -0.7389  0.5185
 8461SOL    HW131346  11.982   1.474   2.438  1.6968  0.3615  0.3522
 8461SOL    HW231347  12.068   1.405   2.334 -0.3712 -2.1044  0.1984
 8462SOL     OW31348   4.535   4.988   7.954  0.5365 -0.7406 -0.0640
 8462SOL    HW131349   4.588   5.061   7.921 -0.9083  0.6127  0.5095
 8462SOL    HW231350   4.473   5.028   8.015 -1.4621 -2.1641 -1.0341
 8463SOL     OW31351   3.606  11.873   1.207  0.4686 -0.5242 -0.0757
 8463SOL    HW131352   3.649  11.944   1.160  1.9982 -1.2819  0.1420
 8463SOL    HW231353   3.557  11.826   1.140 -0.6640  0.7735 -0.2048
 8464SOL     OW31354   0.201  11.179   2.241 -0.0852 -0.6975  0.2459
 8464SOL    HW131355   0.141  11.108   2.219 -1.0498 -0.2347  1.2611
 8464SOL    HW231356   0.174  11.207   2.329  0.1223  1.0455 -0.1959
 8465SOL     OW31357  10.796   6.672   1.922  0.6870  0.2155 -0.3404
 8465SOL    HW131358  10.808   6.588   1.877 -1.7293 -0.4886  0.1959
 8465SOL    HW231359  10.768   6.732   1.853  0.4314  0.0495 -0.3829
 8466SOL     OW31360   7.222   3.248  11.363  0.2449  0.5109 -0.1249
 8466SOL    HW131361   7.165   3.244  11.440  1.2055  0.4634  0.6076
 8466SOL    HW231362   7.241   3.157  11.342 -0.4088  0.5054 -0.7372
 8467SOL     OW31363   4.543   2.963   9.818  0.7699  0.5581 -0.1211
 8467SOL    HW131364   4.522   3.046   9.861  3.7535  1.1754  0.3464
 8467SOL    HW231365   4.585   2.910   9.886 -1.5265 -1.6657 -0.2611
 8468SOL     OW31366   0.303  10.668  11.635  0.1827 -0.3398  0.1456
 8468SOL    HW131367   0.376  10.729  11.643 -0.6374  0.8556 -1.1455
 8468SOL    HW231368   0.232  10.720  11.599 -2.1335 -0.8168  3.5572
 8469SOL     OW31369   7.508   4.769   4.324  0.3826  0.1519 -0.0563
 8469SOL    HW131370   7.553   4.823   4.389  0.7904  0.7140 -0.7884
 8469SOL    HW231371   7.415   4.781   4.343  0.4561  1.2664 -0.3047
 8470SOL     OW31372   8.515   2.421   1.203 -0.3745  0.0364  0.2962
 8470SOL    HW131373   8.426   2.388   1.192 -0.9080  1.2640  0.7449
 8470SOL    HW231374   8.516   2.461   1.290  1.0771 -1.3055  0.9521
 8471SOL     OW31375   6.516   7.724  10.244 -0.2292 -0.0118 -0.3133
 8471SOL    HW131376   6.604   7.691  10.228 -0.3810  0.1772 -1.6300
 8471SOL    HW231377   6.518   7.753  10.336  0.2296 -2.5780  0.5687
 8472SOL     OW31378  10.559   0.792   1.651  0.2499 -0.1683 -0.8235
 8472SOL    HW131379  10.547   0.699   1.636  0.6317 -0.5027  0.6834
 8472SOL    HW231380  10.471   0.826   1.664  0.1151 -0.3432 -1.2896
 8473SOL     OW31381   6.896   7.225   5.617 -0.0757  0.3917  0.2094
 8473SOL    HW131382   6.847   7.266   5.546  0.1236 -0.0348 -0.1804
 8473SOL    HW231383   6.850   7.143   5.634  1.7241 -1.0989 -1.6788
 8474SOL     OW31384   3.891   8.435   8.529 -0.0351  0.0197  1.1035
 8474SOL    HW131385   3.946   8.378   8.583 -0.3417  0.1302  1.5387
 8474SOL    HW231386   3.888   8.518   8.578  0.5128  0.4549  0.4162
 8475SOL     OW31387  10.448   4.714   6.518 -0.4331  0.1731  0.6320
 8475SOL    HW131388  10.437   4.698   6.612 -0.5712 -0.9427  0.4466
 8475SOL    HW231389  10.502   4.641   6.488 -1.3252 -0.1142 -0.3516
 8476SOL     OW31390   0.425  12.124   4.883  0.0771  0.2862 -0.5190
 8476SOL    HW131391   0.445  12.038   4.922 -1.6347  0.4528  0.8807
 8476SOL    HW231392   0.500  12.178   4.907 -0.2081 -0.0432  1.3198
 8477SOL     OW31393   0.635   9.328   4.191 -0.0722  0.1551  0.3821
 8477SOL    HW131394   0.677   9.382   4.259  0.9160  0.0859 -0.1553
 8477SOL    HW231395   0.632   9.240   4.229  1.5798 -0.1419 -0.0856
 8478SOL     OW31396   3.102   3.614  10.310 -0.4894 -0.2716  0.4719
 8478SOL    HW131397   3.072   3.679  10.374 -1.0596 -0.3242  0.2662
 8478SOL    HW231398   3.159   3.556  10.360  1.5325  1.4304  0.2587
 8479SOL     OW31399   8.514   9.633   6.388  0.1242 -0.2159  0.0026
 8479SOL    HW131400   8.534   9.621   6.481 -1.2643  0.4193  0.4115
 8479SOL    HW231401   8.418   9.636   6.384  0.1735  0.9902 -1.2711
 8480SOL     OW31402   3.084   5.793   4.368  0.5403 -0.2880  0.6952
 8480SOL    HW131403   3.068   5.844   4.447 -0.8983  0.4132 -0.0126
 8480SOL    HW231404   3.120   5.710   4.400 -1.3648 -0.6063  2.2441
 8481SOL     OW31405   1.517   3.979   9.437  0.8930  0.5367 -0.5157
 8481SOL    HW131406   1.548   3.954   9.524 -1.6330  0.0966  0.3404
 8481SOL    HW231407   1.464   4.058   9.453 -1.7826 -1.0208 -1.1582
 8482SOL     OW31408   3.611  12.127   6.795 -0.1973  0.0317 -0.0465
 8482SOL    HW131409   3.555  12.178   6.854  0.2885 -0.3707  0.7714
 8482SOL    HW231410   3.561  12.048   6.777  0.4393 -0.7491  1.4075
 8483SOL     OW31411   6.833   8.450   6.220  0.2436 -0.6405  0.5576
 8483SOL    HW131412   6.916   8.481   6.185  0.4485 -2.8933 -1.1564
 8483SOL    HW231413   6.856   8.375   6.275 -0.5939 -0.6896  0.8646
 8484SOL     OW31414   6.780   2.327   4.724 -0.2325 -0.3336  0.1102
 8484SOL    HW131415   6.831   2.255   4.762  1.7397  0.5438 -0.7206
 8484SOL    HW231416   6.841   2.370   4.664 -2.2304  0.3288 -1.5346
 8485SOL     OW31417   8.456   4.840   4.779  0.0804 -0.1081 -0.3888
 8485SOL    HW131418   8.410   4.765   4.739  0.2408 -0.9065  0.8387
 8485SOL    HW231419   8.546   4.810   4.790  0.4072  0.6796 -0.8691
 8486SOL     OW31420   5.424  12.361  10.404 -0.3920 -0.3760  0.2975
 8486SOL    HW131421   5.474  12.431  10.446 -0.7687 -0.0284  0.1752
 8486SOL    HW231422   5.333  12.376  10.431 -0.4497 -0.9403  0.4342
 8487SOL     OW31423   5.834   8.745   5.082  0.6091  0.1438 -0.2380
 8487SOL    HW131424   5.746   8.712   5.066  0.0440  1.9975 -1.2496
 8487SOL    HW231425   5.831   8.778   5.172 -0.1772  1.4470 -0.7182
 8488SOL     OW31426   9.077   1.063  10.702 -0.5047 -0.0528  0.0390
 8488SOL    HW131427   9.050   1.033  10.789  0.6295 -1.1448  0.0509
 8488SOL    HW231428   9.150   1.006  10.680 -0.2798  0.7348 -1.3087
 8489SOL     OW31429   8.530   1.805  10.631  0.3230 -0.0858 -0.1737
 8489SOL    HW131430   8.497   1.785  10.718 -1.7385  0.0540 -0.8652
 8489SOL    HW231431   8.549   1.720  10.592  3.3927 -0.0996  1.1033
 8490SOL     OW31432   4.660   3.967  11.077 -0.2222  0.0863  0.1309
 8490SOL    HW131433   4.570   3.964  11.043 -0.3377 -1.0080  0.4827
 8490SOL    HW231434   4.655   4.025  11.152 -0.1637  1.7683 -1.0965
 8491SOL     OW31435   8.746   3.752   7.716  0.4394 -0.3275 -0.7773
 8491SOL    HW131436   8.804   3.799   7.776 -0.0682  0.3182 -0.7843
 8491SOL    HW231437   8.686   3.819   7.683 -0.9731 -1.1428  0.0246
 8492SOL     OW31438   2.577   4.516   0.831  0.4083 -0.4138 -0.2413
 8492SOL    HW131439   2.643   4.490   0.767  1.9899  3.8644 -0.6847
 8492SOL    HW231440   2.508   4.558   0.780 -0.1127 -0.2160  0.5984
 8493SOL     OW31441   5.900   9.383   4.391  0.1307 -0.5055  0.2805
 8493SOL    HW131442   5.894   9.289   4.372  0.9185 -0.3225 -0.9489
 8493SOL    HW231443   5.982   9.392   4.439 -0.5306 -0.5805  1.4865
 8494SOL     OW31444   7.701   2.027  11.000  0.0017 -0.6389  0.1742
 8494SOL    HW131445   7.629   2.012  11.061 -0.1041  0.5199  0.3527
 8494SOL    HW231446   7.777   2.043  11.056 -0.3293  1.6014  0.0851
 8495SOL     OW31447   9.983   2.027   1.102  0.2241 -0.3658  0.0581
 8495SOL    HW131448   9.925   2.065   1.167  0.5179  1.2365 -0.5752
 8495SOL    HW231449   9.952   1.937   1.092 -0.6532 -0.2412  1.4197
 8496SOL     OW31450  10.668   6.645   0.824 -0.3603 -0.0594 -0.1142
 8496SOL    HW131451  10.676   6.562   0.871  0.7804  0.2621  0.2894
 8496SOL    HW231452  10.713   6.709   0.880 -2.1729  1.0763  0.1345
 8497SOL     OW31453   4.721   2.378   9.288  0.4205 -0.5565  0.6648
 8497SOL    HW131454   4.771   2.417   9.216 -0.3453 -0.5843  0.1013
 8497SOL    HW231455   4.786   2.363   9.357  0.9255  0.7367  0.5016
 8498SOL     OW31456   6.566   0.255   2.847 -0.3147  0.3912 -0.0982
 8498SOL    HW131457   6.477   0.283   2.825 -0.6028 -0.3412  0.1165
 8498SOL    HW231458   6.600   0.325   2.904 -0.0965  1.5642 -1.5963
 8499SOL     OW31459  11.604   2.759   2.533 -0.3993  0.4261  0.7157
 8499SOL    HW131460  11.509   2.752   2.528 -0.3591 -0.7441  1.3577
 8499SOL    HW231461  11.623   2.759   2.627  0.2871 -0.0942  0.5822
 8500SOL     OW31462   5.085   7.810   0.630  0.0926  0.2530  0.0937
 8500SOL    HW131463   5.163   7.755   0.629 -0.6732 -1.1641  3.6794
 8500SOL    HW231464   5.013   7.750   0.614 -0.5552  0.6816  1.2614
 8501SOL     OW31465  11.022   8.339   6.585 -0.0168 -0.2034  0.5606
 8501SOL    HW131466  11.099   8.286   6.603 -0.5026 -1.3928 -0.7363
 8501SOL    HW231467  11.050   8.402   6.518 -0.1869 -0.7060  0.0107
 8502SOL     OW31468   2.738  11.891   0.342  0.0308 -0.1036  0.0125
 8502SOL    HW131469   2.771  11.974   0.306 -1.0578 -0.4569 -1.9360
 8502SOL    HW231470   2.646  11.889   0.317  0.1892 -2.2019 -0.6220
 8503SOL     OW31471   1.558   3.430   2.820  0.5697 -0.3973 -0.2511
 8503SOL    HW131472   1.528   3.441   2.730  0.4509  2.6146  0.0636
 8503SOL    HW231473   1.479   3.410   2.869  0.5310 -1.3958 -0.7050
 8504SOL     OW31474   1.428   4.558   0.055  0.0979  0.4417 -0.2755
 8504SOL    HW131475   1.417   4.544   0.149  1.5783  2.1287  0.2048
 8504SOL    HW231476   1.428   4.654   0.045  3.1519  0.4011 -1.5260
 8505SOL     OW31477   9.752   0.553   0.598  0.1354 -0.1278 -0.2014
 8505SOL    HW131478   9.750   0.622   0.532 -1.0635  1.6437  1.5593
 8505SOL    HW231479   9.711   0.478   0.555 -0.9368  1.0664 -1.3802
 8506SOL     OW31480  10.880   0.887   4.161  0.1548  0.5902  0.5450
 8506SOL    HW131481  10.918   0.843   4.085  0.4312 -1.8909  1.9862
 8506SOL    HW231482  10.811   0.943   4.125  0.0937 -0.6901 -1.5057
 8507SOL     OW31483   4.000   3.886   0.137  0.3695  0.3666 -0.5261
 8507SOL    HW131484   3.941   3.837   0.195 -0.0673 -0.0001 -1.2753
 8507SOL    HW231485   3.947   3.958   0.104  0.5193  0.3786 -0.7409
 8508SOL     OW31486   8.446  12.128   3.624  0.2608 -0.3232  0.0093
 8508SOL    HW131487   8.455  12.119   3.529 -0.2477 -1.3599  0.0453
 8508SOL    HW231488   8.354  12.106   3.642 -0.0292  1.2045  0.6030
 8509SOL     OW31489   5.189   5.140   8.475 -0.1713  0.1707 -0.0453
 8509SOL    HW131490   5.204   5.198   8.400 -0.1395 -0.0313 -0.1969
 8509SOL    HW231491   5.098   5.158   8.501 -2.0381 -3.2141 -3.2226
 8510SOL     OW31492  10.241   1.864   4.092  0.9851 -0.0857  0.3455
 8510SOL    HW131493  10.177   1.897   4.156 -0.0067  0.3094 -0.7979
 8510SOL    HW231494  10.310   1.825   4.145 -0.8577 -1.8009  1.6530
 8511SOL     OW31495   6.978  12.228  10.663  0.0859  0.6455  0.5072
 8511SOL    HW131496   6.976  12.204  10.756  1.5319 -0.6131  0.2621
 8511SOL    HW231497   7.047  12.173  10.626 -1.8151 -0.4176 -1.7463
 8512SOL     OW31498   6.075   6.862   8.788 -0.1006 -0.3609  0.0154
 8512SOL    HW131499   6.141   6.921   8.824 -0.5335 -0.1330  0.4535
 8512SOL    HW231500   6.064   6.795   8.855  1.3829 -1.7470 -1.0547
 8513SOL     OW31501   6.331   4.390   2.236  0.0148 -0.8215 -0.2635
 8513SOL    HW131502   6.342   4.383   2.141  0.8043 -0.2144 -0.2149
 8513SOL    HW231503   6.255   4.333   2.254  1.9283 -3.7835 -0.8030
 8514SOL     OW31504   3.694   3.769  11.792  0.0542  0.3295  0.1149
 8514SOL    HW131505   3.784   3.776  11.824  0.2856 -1.4334 -0.0063
 8514SOL    HW231506   3.647   3.725  11.863 -0.4436  0.2695 -0.2471
 8515SOL     OW31507   3.974   6.997   6.539 -0.9641  0.0412  0.4962
 8515SOL    HW131508   3.951   7.058   6.609 -1.2347 -1.0162  1.3409
 8515SOL    HW231509   4.070   6.999   6.536 -0.9337  2.9483 -1.7035
 8516SOL     OW31510   3.580  11.459   2.415  0.0594 -0.3162  0.0874
 8516SOL    HW131511   3.621  11.535   2.458  0.0998 -0.6519  0.6529
 8516SOL    HW231512   3.557  11.491   2.327  0.6662  0.1575  0.0916
 8517SOL     OW31513  12.491   8.904   9.025  0.1473 -0.3064 -0.2024
 8517SOL    HW131514  12.546   8.963   9.078 -0.5020 -1.3141  1.6588
 8517SOL    HW231515  12.474   8.954   8.945  0.1050  1.8103  1.0498
 8518SOL     OW31516   4.672   6.752  10.917  0.0956  0.2316 -0.3651
 8518SOL    HW131517   4.587   6.709  10.917  0.9966 -1.7689  1.4718
 8518SOL    HW231518   4.724   6.702  10.980  2.8516  0.9224 -1.8877
 8519SOL     OW31519  12.411  10.777   0.715 -0.0722  0.3920 -0.0488
 8519SOL    HW131520  12.395  10.683   0.723  0.7426  0.1962 -0.5850
 8519SOL    HW231521  12.333  10.811   0.671 -0.0411 -0.1561 -0.5324
 8520SOL     OW31522   5.040   3.697   6.880  0.0396  0.1599 -0.3500
 8520SOL    HW131523   5.057   3.716   6.972  0.5908  0.0171 -0.4140
 8520SOL    HW231524   5.092   3.763   6.832  0.5277 -0.3648 -0.5579
 8521SOL     OW31525   1.758   8.864   2.507 -0.8022 -0.4426  0.1548
 8521SOL    HW131526   1.706   8.783   2.502  0.9078 -1.5947  0.3325
 8521SOL    HW231527   1.718   8.914   2.578 -0.0832 -2.5131  2.1480
 8522SOL     OW31528   7.329  11.773   5.907 -0.0455 -0.0904  0.8730
 8522SOL    HW131529   7.302  11.848   5.853  0.3217 -0.3483  0.3289
 8522SOL    HW231530   7.425  11.780   5.912  0.1739 -1.5112 -0.6596
 8523SOL     OW31531   3.234   8.926   0.490 -0.0210 -0.5368 -0.0192
 8523SOL    HW131532   3.320   8.957   0.460 -0.7767 -0.1814 -1.9269
 8523SOL    HW231533   3.236   8.941   0.585  1.9913 -0.4882 -0.0094
 8524SOL     OW31534   1.774   6.949   6.522 -0.2234  0.4438  0.4546
 8524SOL    HW131535   1.857   6.920   6.559 -1.0736 -1.8782  0.7094
 8524SOL    HW231536   1.748   6.879   6.462 -1.8634  1.2315  0.1720
 8525SOL     OW31537   9.979   9.970   6.345  0.1071 -0.3268  0.4472
 8525SOL    HW131538  10.037   9.982   6.270  0.9886  0.3160  1.2181
 8525SOL    HW231539   9.922  10.047   6.344 -1.3710 -1.3767 -0.8238
 8526SOL     OW31540   6.786   7.868  11.554 -0.0955  0.5866  0.0425
 8526SOL    HW131541   6.771   7.814  11.632 -1.6119 -4.4493 -3.2526
 8526SOL    HW231542   6.699   7.878  11.515  0.8039  1.4272 -1.8727
 8527SOL     OW31543   1.390   2.590   5.678  0.3514  0.0633 -0.0368
 8527SOL    HW131544   1.480   2.576   5.707  0.4947 -0.5815 -0.7499
 8527SOL    HW231545   1.389   2.679   5.645  0.4111  0.5008  1.0922
 8528SOL     OW31546   5.074   3.352   1.556  0.2541 -0.0040  0.7690
 8528SOL    HW131547   5.040   3.407   1.485  1.1280  0.4512  0.6919
 8528SOL    HW231548   5.167   3.342   1.537  0.3661 -0.4482  1.4886
 8529SOL     OW31549   8.932  11.560   4.194  0.4969 -0.2390 -0.2005
 8529SOL    HW131550   8.988  11.519   4.129  0.5633  0.5190 -0.6375
 8529SOL    HW231551   8.902  11.488   4.250  1.5962 -0.7005 -0.1887
 8530SOL     OW31552  11.688   6.413   8.392 -1.0603  0.3680 -0.4229
 8530SOL    HW131553  11.667   6.367   8.311  1.6490 -4.6384  1.3137
 8530SOL    HW231554  11.770   6.458   8.373 -0.2003 -1.1466 -0.4350
 8531SOL     OW31555   5.381   4.038   5.904  0.6369 -0.5215 -0.3010
 8531SOL    HW131556   5.365   4.020   5.811  1.7372 -0.6485 -0.4726
 8531SOL    HW231557   5.297   4.021   5.946  0.4880 -1.8168 -1.0729
 8532SOL     OW31558   1.438   8.098   9.668  0.5000 -0.1934 -0.1786
 8532SOL    HW131559   1.384   8.103   9.748  1.1100 -0.8856  0.2841
 8532SOL    HW231560   1.527   8.082   9.700  0.8693  0.2233 -0.9727
 8533SOL     OW31561   8.466   1.485   8.078 -0.1256  0.1329  0.0189
 8533SOL    HW131562   8.377   1.451   8.074  0.3065 -1.0158 -0.2907
 8533SOL    HW231563   8.469   1.553   8.011 -0.5399 -0.3863 -0.5371
 8534SOL     OW31564   2.595  10.491   0.427  0.0546 -0.2388 -0.2444
 8534SOL    HW131565   2.671  10.471   0.481 -0.1372 -0.4104 -0.0373
 8534SOL    HW231566   2.582  10.413   0.374  0.7498  0.2349 -1.1496
 8535SOL     OW31567   2.127   5.934   1.287  0.0198 -0.0564  0.1694
 8535SOL    HW131568   2.199   5.997   1.289  0.7886 -0.9125  0.0986
 8535SOL    HW231569   2.169   5.848   1.298 -1.0188 -0.5528  0.4285
 8536SOL     OW31570   7.106   4.464   1.662  0.5136  0.1808 -0.2603
 8536SOL    HW131571   7.127   4.378   1.625  0.5641  0.4790 -0.9385
 8536SOL    HW231572   7.155   4.468   1.744  0.6676 -0.3562 -0.3270
 8537SOL     OW31573   2.267   5.955   8.279  0.5386  0.2087  0.4784
 8537SOL    HW131574   2.175   5.983   8.287  0.9172  1.1207  2.2073
 8537SOL    HW231575   2.305   5.974   8.365  2.1750 -0.8480  0.0272
 8538SOL     OW31576  10.026   9.128  11.342  0.1345 -0.0496 -0.0235
 8538SOL    HW131577  10.100   9.084  11.302  1.0578  1.7085 -0.3397
 8538SOL    HW231578  10.043   9.222  11.329 -1.6133  0.4354  0.8193
 8539SOL     OW31579   9.387   9.706   7.571  0.1629 -0.2991 -0.3620
 8539SOL    HW131580   9.388   9.748   7.485 -0.9372 -0.6457 -0.5560
 8539SOL    HW231581   9.305   9.657   7.573  1.1400 -2.0039  0.0847
 8540SOL     OW31582   2.230   3.622   7.032  0.2083  0.7606 -0.0360
 8540SOL    HW131583   2.212   3.536   7.069  0.6190 -0.2764 -2.1688
 8540SOL    HW231584   2.315   3.646   7.068  0.0765  0.3272  0.5950
 8541SOL     OW31585   6.283   5.864   9.276  0.2300 -0.1310  0.1682
 8541SOL    HW131586   6.209   5.820   9.234  1.7882 -0.3989 -2.5264
 8541SOL    HW231587   6.321   5.798   9.334 -2.2916  0.4109  2.6544
 8542SOL     OW31588   0.978   1.212   2.384 -0.1205  0.4566  0.1387
 8542SOL    HW131589   0.884   1.227   2.377 -0.1496  0.3457  0.2912
 8542SOL    HW231590   1.001   1.243   2.472  0.0674  0.9206 -0.0729
 8543SOL     OW31591   0.702   8.389   7.483 -0.2318 -0.1096  0.1034
 8543SOL    HW131592   0.648   8.372   7.406 -2.2997  0.5650  1.3316
 8543SOL    HW231593   0.704   8.484   7.490 -0.0328 -0.1662  0.8634
 8544SOL     OW31594   5.215   8.964   9.913 -0.1724 -0.6507 -0.3163
 8544SOL    HW131595   5.200   8.881   9.867  0.2601 -0.5118 -0.7135
 8544SOL    HW231596   5.228   8.939  10.004 -1.8890 -0.8664 -0.0935
 8545SOL     OW31597  10.403   6.082   6.871  0.3909  0.1059  0.0145
 8545SOL    HW131598  10.433   6.079   6.780  1.4543  0.3942  0.3424
 8545SOL    HW231599  10.413   5.993   6.903 -0.2516 -0.0588 -0.2205
 8546SOL     OW31600   3.299   0.400  10.874 -0.0878 -0.0202  0.0784
 8546SOL    HW131601   3.380   0.394  10.924  0.1381  0.3586 -0.2411
 8546SOL    HW231602   3.277   0.309  10.853  1.3312 -0.0453 -1.5314
 8547SOL     OW31603   8.790   5.979   2.827 -0.0173 -0.2061  0.0704
 8547SOL    HW131604   8.750   6.060   2.858 -0.3588 -0.4389  0.2361
 8547SOL    HW231605   8.780   5.982   2.732  2.5618  1.3488 -0.2694
 8548SOL     OW31606   3.253  11.360   3.953  0.1741 -0.4849  0.2101
 8548SOL    HW131607   3.315  11.293   3.982  0.7757 -0.1719 -0.3321
 8548SOL    HW231608   3.237  11.413   4.032  1.9155  0.4590 -0.0164
 8549SOL     OW31609   0.851   3.919  10.134  0.0504  0.0864 -0.2900
 8549SOL    HW131610   0.900   3.890  10.057  0.8496 -0.3753  0.3809
 8549SOL    HW231611   0.888   4.005  10.154  0.2027 -0.0178 -0.1195
 8550SOL     OW31612   0.510   0.811   3.400 -0.0969  0.0190  0.0590
 8550SOL    HW131613   0.424   0.770   3.415 -0.4765  1.2555  1.5725
 8550SOL    HW231614   0.522   0.808   3.305 -2.8371  1.7271 -0.4438
 8551SOL     OW31615  11.921   9.668   1.469 -0.2628 -0.2242  0.2544
 8551SOL    HW131616  11.826   9.657   1.476 -0.6751  1.3525 -1.8554
 8551SOL    HW231617  11.935   9.703   1.381  2.4488 -1.9077 -0.1184
 8552SOL     OW31618   1.202   5.303   9.318 -0.1903  0.1198 -0.5303
 8552SOL    HW131619   1.270   5.370   9.330 -0.8814  0.7239  0.1418
 8552SOL    HW231620   1.143   5.315   9.393  0.0427 -1.7120 -0.0105
 8553SOL     OW31621   1.979   4.853   9.723  0.0552  0.2693  0.0505
 8553SOL    HW131622   1.890   4.839   9.690  0.2201  0.6652 -0.5819
 8553SOL    HW231623   2.006   4.936   9.685  0.0381  1.0647  1.6798
 8554SOL     OW31624   4.709   8.509   4.691 -0.1861  0.1217 -0.0402
 8554SOL    HW131625   4.703   8.591   4.741  2.9752  1.2101 -1.1653
 8554SOL    HW231626   4.772   8.456   4.740 -0.0174 -0.4257 -0.8349
 8555SOL     OW31627   5.934   1.134   0.617  0.1022  0.2352 -0.2433
 8555SOL    HW131628   6.025   1.107   0.603 -0.3574 -2.2433  1.0673
 8555SOL    HW231629   5.940   1.207   0.679  1.2054 -0.3216  0.3434
 8556SOL     OW31630   4.989   2.099   5.147 -0.2062 -0.0923  0.5900
 8556SOL    HW131631   5.042   2.037   5.097 -0.2498 -0.4740  1.0145
 8556SOL    HW231632   4.932   2.045   5.200 -0.4243  0.3149  0.7777
 8557SOL     OW31633   7.459   0.426   9.679 -0.2568  0.0273 -0.1325
 8557SOL    HW131634   7.552   0.404   9.683 -0.3386 -0.1856  1.5460
 8557SOL    HW231635   7.447   0.492   9.747 -1.1286  0.9775 -1.1656
 8558SOL     OW31636  11.255   4.803   3.883 -0.4443  0.3026  0.2843
 8558SOL    HW131637  11.314   4.754   3.941 -1.1126 -0.7549  0.0916
 8558SOL    HW231638  11.298   4.799   3.797 -0.7737 -0.4641  0.1446
 8559SOL     OW31639   0.488   8.142   4.870  0.5175 -0.2375  0.5251
 8559SOL    HW131640   0.445   8.189   4.798  0.3235  2.0455  2.0293
 8559SOL    HW231641   0.440   8.060   4.877  1.2532 -1.0602 -2.6261
 8560SOL     OW31642   4.116   4.049   5.686  0.4543 -0.2442  0.4115
 8560SOL    HW131643   4.080   4.137   5.693  1.2881  0.0847  0.6772
 8560SOL    HW231644   4.107   4.012   5.774  3.8316  1.0906  1.5012
 8561SOL     OW31645  11.156   5.465   2.650  0.0831 -0.2213  0.6160
 8561SOL    HW131646  11.169   5.555   2.682 -0.7808  0.4982 -0.9428
 8561SOL    HW231647  11.092   5.474   2.579  1.2870 -1.8148 -0.7583
 8562SOL     OW31648   8.835   3.327   7.278  0.2857 -0.1030  0.4855
 8562SOL    HW131649   8.921   3.293   7.303  0.6790 -0.4476 -1.1896
 8562SOL    HW231650   8.850   3.419   7.260  0.5009 -0.3405 -0.6004
 8563SOL     OW31651   5.016   4.926  11.081 -0.1284 -0.0445 -0.2323
 8563SOL    HW131652   5.075   4.987  11.125  0.3284  0.7075 -1.8071
 8563SOL    HW231653   5.034   4.842  11.123  1.7941  0.2366 -0.3859
 8564SOL     OW31654   3.532   0.318  10.675  0.2374 -0.2400  0.1348
 8564SOL    HW131655   3.611   0.366  10.648 -1.0477  2.1969  0.4074
 8564SOL    HW231656   3.486   0.379  10.732 -2.4682 -1.0800 -1.0086
 8565SOL     OW31657   3.235   7.029   3.414  0.4700  0.3344  0.4397
 8565SOL    HW131658   3.273   6.987   3.491 -0.2793 -0.2223  0.5157
 8565SOL    HW231659   3.300   7.095   3.388  0.3423  1.1344  2.0534
 8566SOL     OW31660   3.290   6.522   8.064  0.3665 -0.8802 -0.0442
 8566SOL    HW131661   3.259   6.432   8.064  0.1606 -0.8116 -0.1796
 8566SOL    HW231662   3.384   6.515   8.047  0.7183 -1.1704  1.8288
 8567SOL     OW31663   7.949   3.482   2.560  0.2186  0.6067  0.0481
 8567SOL    HW131664   8.031   3.451   2.600  0.5082  0.6263 -0.5104
 8567SOL    HW231665   7.926   3.413   2.498 -0.2761  0.5293  0.3181
 8568SOL     OW31666  10.324   1.501   7.181  0.3687  0.0130  0.2406
 8568SOL    HW131667  10.240   1.488   7.136 -0.9106  1.7926  1.9504
 8568SOL    HW231668  10.361   1.413   7.187 -1.1871 -0.7796 -0.9100
 8569SOL     OW31669   6.812  11.719  12.273  0.8411 -0.3065 -0.0659
 8569SOL    HW131670   6.818  11.813  12.283  0.5322 -0.4462  1.7362
 8569SOL    HW231671   6.897  11.692  12.238  1.4594  0.4738  0.8072
 8570SOL     OW31672   8.962   2.503   6.947  0.4200 -0.9156  0.2477
 8570SOL    HW131673   9.016   2.483   7.023  1.0193  0.5545  0.2544
 8570SOL    HW231674   9.024   2.536   6.881 -0.3497  0.0978 -0.0081
 8571SOL     OW31675  10.096   0.922   6.146  0.9577 -0.0989 -0.6458
 8571SOL    HW131676  10.014   0.880   6.123  0.7028 -1.0937  1.7617
 8571SOL    HW231677  10.088   1.012   6.113  0.2546 -1.0399 -3.1978
 8572SOL     OW31678   9.874   5.422  12.180  0.0627 -0.3935 -0.0308
 8572SOL    HW131679   9.917   5.369  12.113 -1.3629  0.4782 -1.7273
 8572SOL    HW231680   9.939   5.489  12.202 -0.0720  0.4700 -2.0117
 8573SOL     OW31681  11.882   5.666   3.358  0.3694  0.8143  0.0193
 8573SOL    HW131682  11.867   5.693   3.268  0.1850 -1.6974 -0.7528
 8573SOL    HW231683  11.812   5.708   3.408 -0.9958  0.3023 -1.3962
 8574SOL     OW31684   4.003   0.575   5.238 -0.1754 -0.4554 -0.6487
 8574SOL    HW131685   3.977   0.493   5.280 -0.2738  0.4144  1.0426
 8574SOL    HW231686   4.096   0.562   5.217  0.5499 -0.1146  1.9778
 8575SOL     OW31687   8.221   3.334   9.542 -0.2474  0.0779  0.2314
 8575SOL    HW131688   8.149   3.273   9.526 -1.1549  1.0588  0.4086
 8575SOL    HW231689   8.197   3.413   9.493 -0.0373  0.9410  1.4682
 8576SOL     OW31690   1.299   7.658   4.245 -0.1883 -0.4096 -0.0904
 8576SOL    HW131691   1.219   7.708   4.261  0.0904 -0.3061  1.0999
 8576SOL    HW231692   1.326   7.682   4.156 -1.5897 -0.6237 -0.5900
 8577SOL     OW31693   2.726   9.427   0.031 -0.1785 -0.1856 -0.1214
 8577SOL    HW131694   2.670   9.482   0.086  1.4947  2.7354 -1.1025
 8577SOL    HW231695   2.815   9.447   0.061  0.6697  0.2523 -2.6991
 8578SOL     OW31696   7.080   4.879  10.635  0.3197  0.1070  0.5830
 8578SOL    HW131697   7.006   4.922  10.676 -1.0436 -1.7806  0.2191
 8578SOL    HW231698   7.141   4.863  10.707 -0.2510  0.4209  1.1440
 8579SOL     OW31699   4.951  11.582   3.781 -0.2114  0.3226 -0.1375
 8579SOL    HW131700   5.007  11.650   3.819 -0.3685  0.7295 -0.6164
 8579SOL    HW231701   4.935  11.612   3.691  1.2381 -1.2416 -0.9843
 8580SOL     OW31702   7.096  11.374  11.817 -0.6597 -0.1757 -0.4259
 8580SOL    HW131703   7.102  11.297  11.873 -1.2819 -0.3981 -0.6587
 8580SOL    HW231704   7.120  11.447  11.874  0.0934 -0.5521 -0.2489
 8581SOL     OW31705   9.780  11.193   1.494  0.4440  0.2562 -0.0266
 8581SOL    HW131706   9.802  11.219   1.584  0.3054  0.3194 -0.0100
 8581SOL    HW231707   9.814  11.263   1.439 -0.0398  0.5427  0.0278
 8582SOL     OW31708   2.225  11.322   0.703 -0.1749  0.0526  0.3314
 8582SOL    HW131709   2.206  11.416   0.699 -0.1307  0.0228 -2.1613
 8582SOL    HW231710   2.276  11.305   0.624 -1.5687 -2.3624 -0.1398
 8583SOL     OW31711   1.206   3.259   9.637 -0.5015 -0.0891  0.2958
 8583SOL    HW131712   1.119   3.264   9.678 -0.8210  0.8666 -0.4543
 8583SOL    HW231713   1.203   3.179   9.586 -0.3314 -0.9481  1.5826
 8584SOL     OW31714  11.936   2.589   3.940  0.0482  0.0503  0.4363
 8584SOL    HW131715  11.872   2.648   3.902  0.2946 -1.0326 -1.7813
 8584SOL    HW231716  12.001   2.647   3.981 -0.2269  1.2928 -0.8185
 8585SOL     OW31717   2.992   2.421   1.927  0.1688  0.9696  0.1984
 8585SOL    HW131718   2.967   2.338   1.969  1.3549  1.2955  1.6741
 8585SOL    HW231719   2.927   2.434   1.859  0.0164 -1.2429 -0.1707
 8586SOL     OW31720   3.828   2.698   7.246 -0.0224  0.1680  0.0498
 8586SOL    HW131721   3.845   2.732   7.158  0.4136  0.4334  0.2345
 8586SOL    HW231722   3.856   2.606   7.242  1.8209  0.6763  0.4387
 8587SOL     OW31723   4.367   6.330   9.956 -0.3184  0.2748 -0.0264
 8587SOL    HW131724   4.332   6.345  10.043 -0.9423 -0.6017 -0.1146
 8587SOL    HW231725   4.434   6.264   9.968 -1.8407 -1.4352 -0.4620
 8588SOL     OW31726   9.951  12.490   8.283  0.0854  0.1095  0.0418
 8588SOL    HW131727  10.005  12.431   8.335 -0.1332 -0.2247 -0.1038
 8588SOL    HW231728   9.957  12.456   8.194 -0.0941  0.2678 -0.0330
 8589SOL     OW31729   8.942   2.009   3.168 -0.4281  0.0934  0.5689
 8589SOL    HW131730   9.013   1.983   3.227 -1.0947  1.9718  2.3629
 8589SOL    HW231731   8.980   2.078   3.114 -0.9803  1.6631  2.0671
 8590SOL     OW31732   4.983  11.533   6.467 -0.4587 -1.0610  0.5908
 8590SOL    HW131733   4.970  11.533   6.562 -2.3431 -1.0170  0.3725
 8590SOL    HW231734   5.077  11.523   6.456  0.0575  0.9402  2.4960
 8591SOL     OW31735   7.410   0.638   9.866  0.5360  0.2982 -0.5670
 8591SOL    HW131736   7.487   0.663   9.917  0.2289 -0.1003  0.0909
 8591SOL    HW231737   7.381   0.720   9.825  1.0338  0.5351 -0.4548
 8592SOL     OW31738  11.462   7.541   0.974 -0.1488  0.2303  0.5020
 8592SOL    HW131739  11.425   7.617   0.929  0.4095  0.1535 -0.0999
 8592SOL    HW231740  11.392   7.512   1.033 -0.8661  0.3695 -0.2643
 8593SOL     OW31741   2.636  10.920   4.680 -0.1939  0.2263 -0.0677
 8593SOL    HW131742   2.579  10.850   4.714 -1.2874  0.1509 -1.9124
 8593SOL    HW231743   2.615  10.996   4.735 -0.1038 -0.4784  0.9807
 8594SOL     OW31744   3.468   6.311   9.349 -0.3694  0.0979  0.0517
 8594SOL    HW131745   3.465   6.342   9.440  0.0547  1.8515 -0.4863
 8594SOL    HW231746   3.376   6.296   9.326 -0.5644  0.6258  0.4685
 8595SOL     OW31747   5.853  11.962   3.885 -0.3569  0.3379 -0.1053
 8595SOL    HW131748   5.894  11.962   3.971  0.1264  4.2947 -0.1474
 8595SOL    HW231749   5.887  11.883   3.842  0.2575 -1.1305  2.8714
 8596SOL     OW31750   6.211   2.516   9.715 -0.1179 -0.1813  0.3329
 8596SOL    HW131751   6.152   2.443   9.737  0.3444 -0.3925  0.8803
 8596SOL    HW231752   6.196   2.580   9.785 -0.2980  0.1151  0.0213
 8597SOL     OW31753   8.813   3.844   5.659  0.0827 -0.1194  0.1683
 8597SOL    HW131754   8.765   3.761   5.663 -0.4745  0.0187 -2.1064
 8597SOL    HW231755   8.815   3.865   5.566  1.8390  1.5042  0.5267
 8598SOL     OW31756   8.113   9.306   8.691  0.1132  0.6914  0.2328
 8598SOL    HW131757   8.158   9.383   8.723 -0.1564 -0.1241  2.7939
 8598SOL    HW231758   8.078   9.263   8.770  0.5011 -2.1935 -1.0220
 8599SOL     OW31759   0.717   5.722  11.184  0.2454  0.3197 -0.6001
 8599SOL    HW131760   0.636   5.772  11.174 -0.2936 -0.7475 -1.7158
 8599SOL    HW231761   0.762   5.732  11.101  0.9154  0.2961 -0.2426
 8600SOL     OW31762   1.595   4.222   1.870 -0.6783  0.0953  0.6227
 8600SOL    HW131763   1.690   4.213   1.876 -0.4773  1.8197  0.5587
 8600SOL    HW231764   1.576   4.216   1.777 -0.7538 -1.0807  0.6977
 8601SOL     OW31765   7.931   1.655   5.509  0.1291  0.1318 -0.0005
 8601SOL    HW131766   7.930   1.684   5.418 -2.4080  1.2332  0.2913
 8601SOL    HW231767   7.965   1.566   5.506  0.4982  0.2989 -1.9604
 8602SOL     OW31768   3.441   8.056   6.424 -0.3614  0.3081  0.4115
 8602SOL    HW131769   3.459   7.962   6.426  0.2572  0.4287  0.7233
 8602SOL    HW231770   3.380   8.070   6.496 -0.6705  0.1065  0.1927
 8603SOL     OW31771   9.085   7.381   4.223 -0.0660 -0.4042 -0.5742
 8603SOL    HW131772   9.107   7.392   4.315  0.4579 -0.0529 -0.7330
 8603SOL    HW231773   9.144   7.441   4.177 -1.6070  0.8534 -1.0026
 8604SOL     OW31774   6.509   1.631   6.593  0.3647  1.0746  0.1816
 8604SOL    HW131775   6.464   1.703   6.637  1.8733  2.8711 -1.0632
 8604SOL    HW231776   6.445   1.559   6.593 -0.9029  2.1165  2.1753
 8605SOL     OW31777   5.736  11.173   0.300  0.1178  0.1112 -0.4890
 8605SOL    HW131778   5.717  11.233   0.372 -0.1435 -0.9381  0.3475
 8605SOL    HW231779   5.831  11.174   0.292  0.0586  1.9630 -1.6908
 8606SOL     OW31780   4.529  10.690   3.718  0.1574 -0.8471 -0.1086
 8606SOL    HW131781   4.482  10.656   3.642 -1.1147 -2.1350  1.1814
 8606SOL    HW231782   4.617  10.706   3.687 -0.0362 -2.3995 -1.6005
 8607SOL     OW31783   1.331   2.647   3.417 -0.5483 -0.4170 -0.0018
 8607SOL    HW131784   1.361   2.565   3.457  0.8974 -0.2840 -0.7461
 8607SOL    HW231785   1.248   2.624   3.376 -1.2847 -0.9363  1.6964
 8608SOL     OW31786   9.963  10.596   9.480 -0.3767  0.2019  0.2414
 8608SOL    HW131787   9.899  10.645   9.532  0.8425  5.8507 -2.8069
 8608SOL    HW231788   9.917  10.575   9.399  0.6615  1.5399 -0.7366
 8609SOL     OW31789   7.694   3.684   0.242 -0.6298 -0.1973 -0.0608
 8609SOL    HW131790   7.658   3.635   0.316 -1.6228  0.0092 -0.3951
 8609SOL    HW231791   7.691   3.622   0.169 -0.0395 -0.2660 -0.0330
 8610SOL     OW31792   6.757   0.985   9.892 -0.1966 -0.2068 -0.8429
 8610SOL    HW131793   6.790   1.056   9.948 -0.7609 -1.2196  0.8726
 8610SOL    HW231794   6.787   0.905   9.936 -4.5294 -1.2429  0.7362
 8611SOL     OW31795  10.858  10.144   9.546  0.3255  0.5452  0.0956
 8611SOL    HW131796  10.801  10.199   9.600  2.2074  2.5855  0.1268
 8611SOL    HW231797  10.945  10.183   9.555  1.3253 -1.0792 -1.7682
 8612SOL     OW31798   3.818  10.402   5.255  0.0597  0.1620  0.0049
 8612SOL    HW131799   3.725  10.380   5.264  0.2789 -0.8075  0.0046
 8612SOL    HW231800   3.826  10.434   5.165  0.3698 -3.3335 -1.3443
 8613SOL     OW31801   0.031  10.156  11.120  0.1172 -0.3455  0.3436
 8613SOL    HW131802   0.017  10.163  11.214 -0.4482  1.1550  0.1827
 8613SOL    HW231803  -0.058  10.161  11.083  0.3930 -0.1804 -0.3000
 8614SOL     OW31804   3.351   2.857   5.243 -0.3226  0.4073  0.0027
 8614SOL    HW131805   3.417   2.797   5.208  0.9421  0.9932  1.2586
 8614SOL    HW231806   3.402   2.931   5.276 -1.6640  1.0869  0.6167
 8615SOL     OW31807  12.256   4.639   9.705 -0.0874  0.2115  0.4927
 8615SOL    HW131808  12.184   4.583   9.675  0.8277 -0.1073 -1.2999
 8615SOL    HW231809  12.334   4.597   9.669  0.7756  1.7874  0.4472
 8616SOL     OW31810  10.691   6.977  12.029 -0.1300 -0.2679 -0.6906
 8616SOL    HW131811  10.741   6.917  11.973 -0.2474 -2.5938  1.4924
 8616SOL    HW231812  10.719   6.955  12.118 -0.5657  2.6626  0.2839
 8617SOL     OW31813  10.960  11.340   8.536  0.0788  0.6348 -0.0965
 8617SOL    HW131814  10.924  11.365   8.621  0.5575  1.1514 -0.0403
 8617SOL    HW231815  10.910  11.391   8.472 -3.4644 -3.0073 -0.5841
 8618SOL     OW31816   8.780  10.797  11.169 -0.4679 -0.0480  0.0199
 8618SOL    HW131817   8.685  10.789  11.161 -0.4106  0.2319 -0.9680
 8618SOL    HW231818   8.794  10.885  11.204 -0.6583 -0.8622  2.3145
 8619SOL     OW31819   8.473   1.269   4.941  0.2545  0.1740  0.3069
 8619SOL    HW131820   8.499   1.193   4.890  0.9776  1.4623 -1.3542
 8619SOL    HW231821   8.523   1.262   5.023 -0.3364 -1.5333  0.5481
 8620SOL     OW31822   1.008   1.912   1.667  0.3717 -0.1213  0.4159
 8620SOL    HW131823   0.981   2.004   1.664 -1.2292 -0.5119  1.3787
 8620SOL    HW231824   1.102   1.914   1.654  0.2573  1.5813 -0.4663
 8621SOL     OW31825   7.283  12.492   5.000 -0.2571  0.0962 -0.8131
 8621SOL    HW131826   7.366  12.537   4.989  0.9045 -0.7889  2.9371
 8621SOL    HW231827   7.303  12.400   4.985 -1.0649  0.0461 -1.7379
 8622SOL     OW31828   2.213   8.940   2.516 -0.4434  0.1299  0.0403
 8622SOL    HW131829   2.132   8.937   2.566 -0.6302 -0.2822 -0.2843
 8622SOL    HW231830   2.237   8.848   2.505 -0.5961  0.2056 -0.9434
 8623SOL     OW31831   5.557   6.054  10.535 -1.0084 -0.3510 -0.0244
 8623SOL    HW131832   5.516   5.968  10.539 -1.3142 -0.1623  1.8425
 8623SOL    HW231833   5.515   6.104  10.606  0.7820  0.5727  0.4427
 8624SOL     OW31834   3.631   5.823   2.859 -0.1786  0.0839 -0.4231
 8624SOL    HW131835   3.601   5.798   2.947 -1.2968  1.2012 -0.4668
 8624SOL    HW231836   3.708   5.767   2.844  0.6902  0.5828  1.6883
 8625SOL     OW31837   8.948  11.706   2.213  0.2272 -0.4243 -0.2353
 8625SOL    HW131838   8.868  11.758   2.205  1.0455  0.7514 -1.3252
 8625SOL    HW231839   8.920  11.624   2.252 -1.7420 -0.5543 -1.7470
 8626SOL     OW31840   4.320   7.678   7.902 -0.8435 -0.4116 -0.2997
 8626SOL    HW131841   4.296   7.767   7.926  0.2844 -0.3541  0.7007
 8626SOL    HW231842   4.416   7.680   7.895 -0.9528 -0.8057 -3.3452
 8627SOL     OW31843   9.244   2.854   0.119  0.3623  0.0359  0.3814
 8627SOL    HW131844   9.256   2.909   0.196  1.7613 -0.4437  0.5431
 8627SOL    HW231845   9.332   2.846   0.082 -0.2457  0.0998 -1.1690
 8628SOL     OW31846  10.698   6.441   9.367  0.0813  0.5576 -0.2383
 8628SOL    HW131847  10.721   6.355   9.402 -1.5745 -1.0767 -2.7597
 8628SOL    HW231848  10.612   6.461   9.405 -0.0966  0.4710 -0.5829
 8629SOL     OW31849   1.952   1.664   9.156 -0.3815 -0.0311  0.2664
 8629SOL    HW131850   2.025   1.716   9.123 -1.0246  1.7052  1.4649
 8629SOL    HW231851   1.995   1.593   9.205  0.5774  1.7093  2.0857
 8630SOL     OW31852  11.414   0.980   4.759 -0.0804 -0.1900 -0.4873
 8630SOL    HW131853  11.377   1.006   4.675 -2.0143 -0.6334  0.1736
 8630SOL    HW231854  11.437   0.888   4.748  1.4201  0.2166 -1.0590
 8631SOL     OW31855  11.391  12.081   4.518 -0.0221  0.1076 -0.2811
 8631SOL    HW131856  11.406  12.161   4.569 -1.7154  0.2325  0.0811
 8631SOL    HW231857  11.475  12.063   4.477  0.5491  1.7677  0.0703
 8632SOL     OW31858   6.021   2.804   3.998 -0.4997 -0.0063  0.0147
 8632SOL    HW131859   6.072   2.799   4.079 -1.0643  0.3380  0.3954
 8632SOL    HW231860   5.987   2.893   3.997 -0.9808 -0.1962 -0.3045
 8633SOL     OW31861   9.225  12.431  11.305  0.2799  0.1070  0.1911
 8633SOL    HW131862   9.316  12.417  11.331  0.6082  2.3809  0.4699
 8633SOL    HW231863   9.175  12.420  11.386  0.2613 -1.2434  0.0183
 8634SOL     OW31864  12.066   4.903   9.822 -1.0643 -0.2143 -0.2342
 8634SOL    HW131865  12.124   4.889   9.747 -1.1385 -0.9520 -0.1560
 8634SOL    HW231866  12.125   4.928   9.893 -0.9474  0.0075 -0.4050
 8635SOL     OW31867   4.448   5.389   8.779 -0.2950  0.0191  0.4158
 8635SOL    HW131868   4.504   5.412   8.853 -1.4406  1.0874  0.9996
 8635SOL    HW231869   4.361   5.374   8.818 -0.8886  0.4736 -0.6772
 8636SOL     OW31870  10.131   6.415   3.815  0.1392 -0.3864 -0.2830
 8636SOL    HW131871  10.175   6.500   3.811 -0.7744  0.1609  0.9217
 8636SOL    HW231872  10.044   6.431   3.779 -1.2801  0.0752  3.0209
 8637SOL     OW31873   1.501   7.808   7.911  0.0650  0.4443 -0.0155
 8637SOL    HW131874   1.530   7.836   7.824 -1.0637 -0.3950 -0.6833
 8637SOL    HW231875   1.431   7.746   7.894  2.1697 -2.5590  1.3914
 8638SOL     OW31876   1.832   3.545   2.560  1.2525 -0.1968 -0.3322
 8638SOL    HW131877   1.833   3.587   2.646  1.6374  0.6182 -0.7278
 8638SOL    HW231878   1.875   3.461   2.574  1.1841 -0.1301  0.3044
 8639SOL     OW31879   6.894   1.386   6.825  0.1283  0.4018 -0.3624
 8639SOL    HW131880   6.989   1.383   6.821  0.1683  2.0297 -1.7162
 8639SOL    HW231881   6.872   1.479   6.821 -1.5070  0.1576  1.1904
 8640SOL     OW31882   3.186   1.643   3.291  0.9368 -0.2980  0.3240
 8640SOL    HW131883   3.233   1.618   3.211  0.0723 -0.9191 -0.0094
 8640SOL    HW231884   3.137   1.564   3.316 -1.8744  0.9531 -0.7552
 8641SOL     OW31885  10.381   1.319   2.307 -0.3808 -0.0623 -0.5780
 8641SOL    HW131886  10.348   1.369   2.382 -0.8729  1.4274 -1.7351
 8641SOL    HW231887  10.475   1.338   2.305 -0.3916  0.0084 -0.4212
 8642SOL     OW31888  11.157  11.587   2.023  0.5365  0.2198  0.0763
 8642SOL    HW131889  11.072  11.545   2.035  0.4470  0.6960  1.3520
 8642SOL    HW231890  11.162  11.607   1.930  0.8422 -3.0946 -0.7352
 8643SOL     OW31891   4.282   7.891   1.983  0.3661  0.6092 -0.2500
 8643SOL    HW131892   4.244   7.876   2.070  0.2072  0.3218 -0.3708
 8643SOL    HW231893   4.375   7.870   1.994 -0.1708 -2.4912 -0.9095
 8644SOL     OW31894   3.673  10.791   2.256 -0.2246 -0.1330  1.1229
 8644SOL    HW131895   3.671  10.871   2.203 -0.1376 -1.3112 -0.7828
 8644SOL    HW231896   3.581  10.777   2.281 -0.4049  0.0242  0.5748
 8645SOL     OW31897   4.546   1.637   1.628 -0.4793 -0.1069  0.2696
 8645SOL    HW131898   4.623   1.620   1.682 -2.0505 -1.2924  2.2540
 8645SOL    HW231899   4.553   1.729   1.605  0.8078  0.1569  1.5793
 8646SOL     OW31900   5.124  12.228   3.844  0.5013  0.4323  0.0254
 8646SOL    HW131901   5.133  12.133   3.853  2.7879  0.3514 -2.0542
 8646SOL    HW231902   5.176  12.265   3.915 -0.3326  0.1813  0.7929
 8647SOL     OW31903   6.062  12.290   1.986  0.3506 -0.1522 -0.0693
 8647SOL    HW131904   6.025  12.202   1.984 -0.9146  0.3541  0.0751
 8647SOL    HW231905   5.993  12.346   1.951  0.6243  0.9543  1.0680
 8648SOL     OW31906  11.286   6.261   3.087 -0.0908 -0.0055 -0.2864
 8648SOL    HW131907  11.338   6.255   3.007  2.3703  2.0876  0.9818
 8648SOL    HW231908  11.205   6.304   3.060 -0.1924 -1.1760 -1.9637
 8649SOL     OW31909   5.813   3.196   3.497  0.3596 -0.0629 -0.5167
 8649SOL    HW131910   5.740   3.244   3.458 -0.3114 -0.8229 -0.2307
 8649SOL    HW231911   5.829   3.123   3.436  1.1818  0.3430 -0.8040
 8650SOL     OW31912   1.654   1.727   4.884 -0.1176  0.0189 -0.3908
 8650SOL    HW131913   1.649   1.817   4.916 -0.0515 -0.2481  0.4079
 8650SOL    HW231914   1.667   1.735   4.790  1.8729  0.8514 -0.0784
 8651SOL     OW31915  11.283   5.022   5.979 -0.6417  0.0836  0.0671
 8651SOL    HW131916  11.377   5.006   5.968 -0.3135  1.7161  0.3210
 8651SOL    HW231917  11.241   4.962   5.917  0.4628 -1.8536  1.0653
 8652SOL     OW31918   2.298   0.662   6.253  0.5849  0.1584 -0.7509
 8652SOL    HW131919   2.320   0.752   6.278  0.3623  0.1176 -0.3897
 8652SOL    HW231920   2.377   0.628   6.211  1.4482 -0.1631  1.0067
 8653SOL     OW31921   7.935   7.048   7.201  0.5052 -0.0613  0.4718
 8653SOL    HW131922   7.871   6.978   7.188  1.1090 -0.5815  0.1594
 8653SOL    HW231923   7.986   7.048   7.119  2.6719 -1.5461  1.6933
 8654SOL     OW31924   6.025  11.268   4.758  0.1092  0.3324 -0.4566
 8654SOL    HW131925   6.039  11.361   4.744 -0.8957  0.7623  1.1345
 8654SOL    HW231926   5.958  11.244   4.694  1.3515  0.3443 -1.8171
 8655SOL     OW31927   2.746   4.418   8.632  0.1401  0.5773 -0.1431
 8655SOL    HW131928   2.671   4.454   8.584 -1.3311 -1.6341  0.3575
 8655SOL    HW231929   2.807   4.391   8.564 -0.5143  0.3574 -0.6550
 8656SOL     OW31930  11.632   5.341  11.591  0.2110  0.3838 -0.0271
 8656SOL    HW131931  11.628   5.435  11.574 -0.2095  0.1464 -1.4244
 8656SOL    HW231932  11.542   5.316  11.612 -0.0598  0.0168 -1.4896
 8657SOL     OW31933   0.761  11.635   1.209  0.3560 -0.7153 -0.2118
 8657SOL    HW131934   0.757  11.715   1.262  0.5034 -0.8738  0.0393
 8657SOL    HW231935   0.678  11.635   1.160  0.9111  0.2858 -1.2219
 8658SOL     OW31936   3.878   1.031   4.301  0.0097 -0.0011  0.6159
 8658SOL    HW131937   3.799   0.988   4.334 -0.5035  0.3788 -0.0892
 8658SOL    HW231938   3.845   1.106   4.252  0.7573 -0.4257 -0.5700
 8659SOL     OW31939   1.987   2.367   9.512 -0.3995  0.2905  0.0915
 8659SOL    HW131940   1.970   2.461   9.521  0.8503  0.4851  0.5965
 8659SOL    HW231941   1.925   2.338   9.445  0.6382  1.8996 -1.6803
 8660SOL     OW31942   1.132   6.732   9.335  0.0297  0.2135 -0.8394
 8660SOL    HW131943   1.073   6.706   9.264  1.6939  0.5391 -2.4097
 8660SOL    HW231944   1.096   6.689   9.413 -1.4701 -0.7208 -1.9878
 8661SOL     OW31945   0.394  10.492   1.376  0.2251  0.1704  0.3232
 8661SOL    HW131946   0.354  10.579   1.370 -0.1194  0.1105  1.5618
 8661SOL    HW231947   0.450  10.486   1.298 -0.9406  0.8794 -0.5910
 8662SOL     OW31948  10.993  12.396   5.845  0.2704 -0.0061  0.3641
 8662SOL    HW131949  10.913  12.346   5.829 -0.4254  1.4658 -1.0446
 8662SOL    HW231950  11.064  12.332   5.837 -0.7399 -1.3479  1.7032
 8663SOL     OW31951   5.809  12.062   1.639  0.3404 -0.1008 -0.3065
 8663SOL    HW131952   5.835  12.150   1.613 -0.4193  0.0387 -0.6154
 8663SOL    HW231953   5.732  12.075   1.695  2.2187 -0.3408  2.5603
 8664SOL     OW31954   9.752   6.875   4.546 -0.3193  1.4086  0.0558
 8664SOL    HW131955   9.671   6.870   4.597 -0.9426  0.9081 -0.9402
 8664SOL    HW231956   9.817   6.831   4.600 -1.0005  0.7240  0.3423
 8665SOL     OW31957   8.614   0.566   2.223 -0.3124  0.2788 -0.1204
 8665SOL    HW131958   8.573   0.652   2.227 -0.7355  0.1601 -1.4791
 8665SOL    HW231959   8.545   0.506   2.251 -1.0455  0.1072 -2.1369
 8666SOL     OW31960   4.373   2.159   1.432 -0.6035 -0.7605  0.1233
 8666SOL    HW131961   4.324   2.216   1.373  1.1136 -0.8737 -1.4906
 8666SOL    HW231962   4.425   2.103   1.374  0.4686 -1.5086  1.7330
 8667SOL     OW31963   3.301  11.092   9.844 -0.1495 -0.1745  0.4128
 8667SOL    HW131964   3.322  11.159   9.908  0.4215 -1.0838  1.2045
 8667SOL    HW231965   3.293  11.140   9.761  0.8120  0.7902  0.8519
 8668SOL     OW31966   1.187  12.243   7.614 -0.0640 -0.3835  0.0896
 8668SOL    HW131967   1.163  12.154   7.639 -1.5426  0.2273  0.9613
 8668SOL    HW231968   1.107  12.279   7.575  0.6926  0.3877 -0.8062
 8669SOL     OW31969   6.524   6.646   4.661  0.0381 -0.5285 -0.4666
 8669SOL    HW131970   6.523   6.575   4.725 -0.4012 -0.1567 -0.0445
 8669SOL    HW231971   6.605   6.693   4.679 -0.6616  0.3067  0.6718
 8670SOL     OW31972  10.527   4.860   2.279  0.6608  0.0582  0.4410
 8670SOL    HW131973  10.522   4.806   2.201 -0.0714 -3.0972  2.4889
 8670SOL    HW231974  10.435   4.870   2.307  0.9776  0.0062  1.5588
 8671SOL     OW31975  11.050   4.050  10.278 -0.0644 -0.1930 -0.0551
 8671SOL    HW131976  11.026   4.094  10.197  2.1291 -0.0407 -0.6869
 8671SOL    HW231977  11.078   4.120  10.336  1.1916 -0.5330 -0.2318
 8672SOL     OW31978   3.077   7.399   7.949  0.2206  0.3622  0.8787
 8672SOL    HW131979   3.106   7.334   7.886 -0.7533 -0.3562  1.1597
 8672SOL    HW231980   3.046   7.348   8.024 -1.6017  1.0980  0.6617
 8673SOL     OW31981   8.262   5.452   9.442  0.0054 -0.0984 -0.0944
 8673SOL    HW131982   8.337   5.502   9.410 -1.1876  1.3979 -0.7136
 8673SOL    HW231983   8.295   5.364   9.456  1.8363  0.4960 -0.4559
 8674SOL     OW31984   6.379  11.205  12.250 -0.8045  0.7743  0.0123
 8674SOL    HW131985   6.431  11.233  12.175 -0.8077  1.2153  0.1760
 8674SOL    HW231986   6.374  11.281  12.307 -1.2468  0.6022  0.2156
 8675SOL     OW31987   7.155   2.436   2.549  0.0026  0.6079 -0.2297
 8675SOL    HW131988   7.153   2.481   2.634 -1.8479 -0.0674  0.1302
 8675SOL    HW231989   7.119   2.500   2.487  0.8237  0.8942 -0.4361
 8676SOL     OW31990   7.808  11.086   1.673  0.6606 -0.1724  0.2002
 8676SOL    HW131991   7.857  11.030   1.733 -0.1201 -1.6417 -0.4909
 8676SOL    HW231992   7.717  11.067   1.692  0.3821  0.7563 -0.1707
 8677SOL     OW31993   5.732   5.234   2.612 -0.0803  0.7362 -0.0720
 8677SOL    HW131994   5.646   5.205   2.583  0.2602  0.0316 -0.3955
 8677SOL    HW231995   5.719   5.326   2.635 -1.0777  0.4555  0.5570
 8678SOL     OW31996  11.033   2.361   3.839 -0.5962  0.3978 -0.2706
 8678SOL    HW131997  11.052   2.404   3.922 -0.0111  0.2018 -0.3017
 8678SOL    HW231998  11.039   2.430   3.774  2.3115 -0.0246 -0.5946
 8679SOL     OW31999   0.145  10.841   4.679  0.1528  0.0061  0.2469
 8679SOL    HW132000   0.125  10.840   4.772  1.2522 -1.6749  0.5062
 8679SOL    HW232001   0.060  10.849   4.636 -0.3765  0.6976  1.3728
 8680SOL     OW32002   3.288   5.879  11.655 -0.0018 -0.0175  0.5111
 8680SOL    HW132003   3.287   5.944  11.585  0.2806 -2.8391 -2.3497
 8680SOL    HW232004   3.366   5.900  11.707 -0.6730  2.6345  0.5840
 8681SOL     OW32005   1.302   6.725   0.590 -0.6277  0.5150  0.0005
 8681SOL    HW132006   1.392   6.736   0.559 -0.6334 -2.2514 -1.3293
 8681SOL    HW232007   1.309   6.661   0.661 -1.5016  0.8659  0.4196
 8682SOL     OW32008   4.629   4.898   8.173  0.1462 -0.1084  0.2414
 8682SOL    HW132009   4.717   4.878   8.140  0.5180  1.3504  0.2689
 8682SOL    HW232010   4.579   4.922   8.095  0.7458  2.3563  0.5369
 8683SOL     OW32011   5.395   3.130   7.813 -0.5450 -0.1128  0.5342
 8683SOL    HW132012   5.454   3.093   7.879  0.0303  1.0252  0.6722
 8683SOL    HW232013   5.358   3.053   7.769  1.0322 -0.8650  0.4474
 8684SOL     OW32014   0.904  10.141  10.366  0.5987 -0.0604 -0.1413
 8684SOL    HW132015   0.882  10.199  10.293  0.0152  2.5261  1.9267
 8684SOL    HW232016   0.821  10.131  10.413  1.3184 -0.1645  1.1282
 8685SOL     OW32017  10.804   5.086   1.226  0.6053  0.5212  0.1376
 8685SOL    HW132018  10.833   5.072   1.135 -0.5576  1.0452 -0.3312
 8685SOL    HW232019  10.765   5.173   1.225 -1.8217 -0.4778  0.4864
 8686SOL     OW32020   0.252   0.607   9.883 -0.1845  0.4104  0.1091
 8686SOL    HW132021   0.159   0.587   9.884 -0.6792  2.2834 -1.1172
 8686SOL    HW232022   0.261   0.681   9.943  0.6595 -0.2503  0.8099
 8687SOL     OW32023   5.556   0.523   8.699  0.0097 -0.0763 -0.3946
 8687SOL    HW132024   5.503   0.491   8.626  2.9862 -0.8823 -2.3791
 8687SOL    HW232025   5.576   0.446   8.751 -0.9472  0.2902  0.5843
 8688SOL     OW32026   5.425   6.154   8.182  0.2300  0.0995  0.4739
 8688SOL    HW132027   5.412   6.169   8.088  2.3349 -0.2173  0.0913
 8688SOL    HW232028   5.347   6.105   8.209  0.8239 -2.2972 -1.7607
 8689SOL     OW32029   7.622   9.903  11.644 -0.3782 -0.0791 -0.6722
 8689SOL    HW132030   7.571   9.951  11.710 -0.3242 -1.1101  0.1338
 8689SOL    HW232031   7.557   9.852  11.596 -0.1995 -0.9602 -0.0106
 8690SOL     OW32032  10.685   2.285   5.080  0.0229  0.1858  0.3455
 8690SOL    HW132033  10.643   2.229   5.147  0.2404  0.1218  0.4284
 8690SOL    HW232034  10.729   2.223   5.022  0.2710  0.2723  0.4422
 8691SOL     OW32035   0.109   3.014   3.248 -0.1648 -0.4947 -0.2289
 8691SOL    HW132036   0.016   3.014   3.270 -0.8204 -0.6974 -2.6551
 8691SOL    HW232037   0.119   2.942   3.185  0.9333  1.3943 -2.3770
 8692SOL     OW32038  11.736   4.080   1.717 -0.8233 -0.8815 -0.1814
 8692SOL    HW132039  11.785   4.012   1.762 -1.5317 -0.3918  1.4066
 8692SOL    HW232040  11.766   4.162   1.756 -0.2738 -0.2905 -1.7823
 8693SOL     OW32041   2.922   3.616   5.884 -0.1987  0.1129 -0.3315
 8693SOL    HW132042   2.983   3.550   5.917  0.3117 -0.1654 -1.7740
 8693SOL    HW232043   2.861   3.568   5.828  0.6009  0.9276 -1.9624
 8694SOL     OW32044   8.571   6.448   1.599  0.2670  0.1498  0.2841
 8694SOL    HW132045   8.631   6.423   1.528 -0.6094 -0.2791 -0.3240
 8694SOL    HW232046   8.604   6.400   1.676  0.0268 -1.0216 -0.3185
 8695SOL     OW32047   6.556   8.809   8.779  0.0798  0.2834  0.1919
 8695SOL    HW132048   6.549   8.719   8.746 -1.4311  0.0846  0.9523
 8695SOL    HW232049   6.542   8.864   8.702 -0.9971 -0.1616  0.0459
 8696SOL     OW32050   0.655   6.337   5.426  0.1924 -0.5179 -0.0515
 8696SOL    HW132051   0.746   6.365   5.415 -0.0592  1.0767  1.4663
 8696SOL    HW232052   0.610   6.374   5.350  0.7607 -1.1726 -0.7243
 8697SOL     OW32053  10.889   6.029   9.925  0.6112 -0.3887 -0.6330
 8697SOL    HW132054  10.903   6.075   9.843  1.9568  1.1443  0.3863
 8697SOL    HW232055  10.812   6.072   9.964  0.8638 -0.1145 -0.4336
 8698SOL     OW32056  11.894  11.482   6.644  0.1812  0.3393 -0.3777
 8698SOL    HW132057  11.915  11.545   6.575  1.2888 -1.5172 -1.8358
 8698SOL    HW232058  11.823  11.430   6.607  1.2683 -1.1440 -0.4693
 8699SOL     OW32059   3.243   6.703  10.434  0.0534 -0.0612  0.6918
 8699SOL    HW132060   3.180   6.658  10.490  0.7744  0.3223  1.8586
 8699SOL    HW232061   3.329   6.678  10.469  0.4973  0.9715  0.3941
 8700SOL     OW32062   9.626   4.369   5.872 -0.2642  0.0319 -0.4204
 8700SOL    HW132063   9.595   4.414   5.793 -0.9216  0.7655  0.2426
 8700SOL    HW232064   9.642   4.440   5.934  0.5922 -0.5168 -0.0021
 8701SOL     OW32065   1.867   1.497   3.214  0.3977 -0.0240 -0.5952
 8701SOL    HW132066   1.847   1.403   3.215  1.3034 -0.2838  2.2605
 8701SOL    HW232067   1.959   1.502   3.191  0.6321  0.0436  0.3070
 8702SOL     OW32068  10.084   2.352  10.424  0.2265 -0.3976 -0.1474
 8702SOL    HW132069  10.090   2.379  10.516  2.3462  0.2457 -0.4192
 8702SOL    HW232070  10.018   2.283  10.423  0.2842 -0.5370  1.8851
 8703SOL     OW32071  12.426  10.701   3.970 -0.4185  0.4267 -0.4482
 8703SOL    HW132072  12.371  10.624   3.984  0.9656 -0.4838  0.1932
 8703SOL    HW232073  12.395  10.764   4.035  0.3974 -0.7073  1.1166
 8704SOL     OW32074   8.289   0.901   8.774  0.3984  0.1345  0.0972
 8704SOL    HW132075   8.230   0.911   8.699 -0.8456 -0.3097  0.9826
 8704SOL    HW232076   8.255   0.963   8.839 -0.3488 -1.5255  1.3604
 8705SOL     OW32077   0.252   2.457   0.707 -0.1827 -0.0243 -0.4169
 8705SOL    HW132078   0.267   2.542   0.666  0.2755  0.3969  0.5864
 8705SOL    HW232079   0.156   2.452   0.716 -0.1955  0.5742 -0.1185
 8706SOL     OW32080   4.229   2.414   0.633  0.3054  0.6712  0.1267
 8706SOL    HW132081   4.169   2.408   0.707 -1.0336  1.5482 -0.8370
 8706SOL    HW232082   4.179   2.383   0.558  2.3591 -2.4410 -0.1413
 8707SOL     OW32083   2.153   1.524   0.975  0.0589  0.0464  0.2718
 8707SOL    HW132084   2.093   1.595   0.951 -0.3932 -0.4740 -0.1539
 8707SOL    HW232085   2.096   1.449   0.993  0.4561  0.0834  1.8251
 8708SOL     OW32086  11.307   4.811   9.516  0.2999 -0.0113  0.3121
 8708SOL    HW132087  11.387   4.860   9.538  0.4421 -0.4137  0.7147
 8708SOL    HW232088  11.324   4.723   9.549 -0.4906  0.0113  0.8122
 8709SOL     OW32089   5.143   0.293  11.873  0.0475  0.9809 -0.4442
 8709SOL    HW132090   5.163   0.306  11.966 -2.1532  0.0375  0.2394
 8709SOL    HW232091   5.092   0.370  11.848  0.3177  1.0565 -0.7593
 8710SOL     OW32092  11.390   1.263   3.281  0.2679 -0.3866 -0.0782
 8710SOL    HW132093  11.452   1.271   3.208  1.2792 -0.2626  0.7715
 8710SOL    HW232094  11.315   1.317   3.255  1.3660  1.1172 -0.2505
 8711SOL     OW32095   0.846  12.233   5.454  0.2606 -0.1180  0.5257
 8711SOL    HW132096   0.784  12.181   5.504  0.5608  0.1788  1.2174
 8711SOL    HW232097   0.914  12.257   5.517  0.1211  1.1267  0.2358
 8712SOL     OW32098   3.493  11.405   4.284 -0.5214  0.1684  0.1067
 8712SOL    HW132099   3.481  11.425   4.376 -1.2636  1.1283 -0.1871
 8712SOL    HW232100   3.587  11.417   4.268 -0.9578  4.4591 -0.2392
 8713SOL     OW32101   2.386   7.872   9.255 -0.3796  0.3922 -0.3732
 8713SOL    HW132102   2.449   7.926   9.302  1.6700 -0.8512 -1.5180
 8713SOL    HW232103   2.385   7.908   9.167 -0.7706  0.0071 -0.5278
 8714SOL     OW32104   3.233   6.835   9.033  0.4974 -0.0524 -0.2456
 8714SOL    HW132105   3.283   6.883   9.099  0.0570 -0.4477  0.3798
 8714SOL    HW232106   3.156   6.803   9.080  0.6510 -1.1422 -0.7234
 8715SOL     OW32107   9.034   7.881   1.453  0.2799  0.1767 -0.2882
 8715SOL    HW132108   8.954   7.844   1.490 -0.1202 -0.7812 -2.0223
 8715SOL    HW232109   9.098   7.810   1.459  1.3215  1.1931  1.8586
 8716SOL     OW32110  11.022   5.059   4.822  0.2122  0.1310 -0.0245
 8716SOL    HW132111  10.934   5.089   4.845  0.8061  0.6102  1.8211
 8716SOL    HW232112  11.076   5.084   4.898  1.8460 -0.5506 -0.9200
 8717SOL     OW32113   1.336  10.733  10.065 -0.3294  0.7237  0.0522
 8717SOL    HW132114   1.421  10.708  10.029 -0.4666 -0.2547  0.3845
 8717SOL    HW232115   1.313  10.814  10.019 -0.0318  0.0526 -1.3209
 8718SOL     OW32116   7.799   6.833   3.730  0.1536 -0.2082  0.0346
 8718SOL    HW132117   7.810   6.880   3.647  1.4036  2.5597  1.6235
 8718SOL    HW232118   7.706   6.839   3.749  0.2877  1.8818  0.2424
 8719SOL     OW32119   4.603  11.359   2.169 -0.7996 -0.5104 -0.1231
 8719SOL    HW132120   4.554  11.316   2.239 -1.4532  0.6381  0.1509
 8719SOL    HW232121   4.552  11.438   2.149 -1.8134 -1.8261 -3.3733
 8720SOL     OW32122  11.600   0.188   2.520  0.3703  0.5734  0.2685
 8720SOL    HW132123  11.682   0.205   2.566  0.6741  0.2597 -0.1551
 8720SOL    HW232124  11.552   0.271   2.525  2.2338  1.9964 -2.6416
 8721SOL     OW32125   8.751   1.806   1.988  0.3492 -0.0354 -0.4008
 8721SOL    HW132126   8.808   1.882   1.976  2.1903 -1.0776  1.0753
 8721SOL    HW232127   8.718   1.786   1.901  1.2404  1.3872 -1.1014
 8722SOL     OW32128   1.923   7.249   3.966  0.5072  0.6220 -0.0176
 8722SOL    HW132129   1.836   7.209   3.965  0.3681  0.9172 -1.2008
 8722SOL    HW232130   1.982   7.178   3.990  0.1171  0.0175 -0.8253
 8723SOL     OW32131   3.709   3.304   0.840 -0.0721 -0.0380  0.1466
 8723SOL    HW132132   3.726   3.363   0.913 -1.5284  0.5846  0.0105
 8723SOL    HW232133   3.633   3.253   0.867  0.2254 -0.7757 -0.3741
 8724SOL     OW32134   4.600   6.952   4.241  0.7493 -0.1591 -0.0280
 8724SOL    HW132135   4.593   6.952   4.337 -0.7241  0.5727 -0.0925
 8724SOL    HW232136   4.671   7.012   4.222  1.6192 -0.9589  0.6156
 8725SOL     OW32137   2.588   1.238   1.219  0.0173 -0.2063 -0.4475
 8725SOL    HW132138   2.547   1.181   1.284  0.5516 -0.1808 -0.0830
 8725SOL    HW232139   2.514   1.276   1.171 -0.3450 -1.1712 -0.6754
 8726SOL     OW32140   9.021   7.655  10.781  0.5941 -0.0906 -0.1215
 8726SOL    HW132141   8.993   7.563  10.773  1.0048 -0.3845  1.4615
 8726SOL    HW232142   8.948   7.705  10.745 -0.0916 -0.9996 -0.0349
 8727SOL     OW32143   2.008  11.465  10.375 -0.0821  0.9260  0.1243
 8727SOL    HW132144   1.972  11.528  10.436 -1.2402  0.4115  0.0079
 8727SOL    HW232145   1.940  11.455  10.308 -0.5065 -1.3439  0.7868
 8728SOL     OW32146   5.617   1.609   1.264  0.0911 -0.7575 -0.1026
 8728SOL    HW132147   5.644   1.571   1.348  1.0817 -1.6661 -0.8011
 8728SOL    HW232148   5.686   1.673   1.244 -0.7572  0.3137  0.3219
 8729SOL     OW32149   7.628   9.855   1.160  0.4957  0.4235  0.3960
 8729SOL    HW132150   7.571   9.841   1.235  0.0574 -0.9409 -0.1617
 8729SOL    HW232151   7.664   9.769   1.141 -0.2755  0.5025 -1.6494
 8730SOL     OW32152   4.354   7.223  10.258 -0.2436 -0.8812 -0.7308
 8730SOL    HW132153   4.310   7.217  10.343  2.2160 -0.6004  0.6342
 8730SOL    HW232154   4.323   7.306  10.221 -0.3011 -0.3173  0.5271
 8731SOL     OW32155   7.341   3.403   8.446 -0.3395  0.7286  0.0868
 8731SOL    HW132156   7.394   3.348   8.503 -0.4008 -1.1747 -1.5826
 8731SOL    HW232157   7.345   3.490   8.486  2.2111  0.1829  1.2157
 8732SOL     OW32158  12.131   0.689   5.567 -0.4085  0.2494 -0.3556
 8732SOL    HW132159  12.142   0.595   5.552  2.5150  0.4613 -0.1120
 8732SOL    HW232160  12.046   0.709   5.530 -1.1314 -2.4972 -0.3849
 8733SOL     OW32161   9.187   5.990   4.871 -0.6306 -0.4386  0.3379
 8733SOL    HW132162   9.091   5.991   4.869 -0.6221 -0.3951 -0.1651
 8733SOL    HW232163   9.209   5.898   4.888 -0.7603 -0.4344  0.5402
 8734SOL     OW32164   6.355   4.556   9.347  0.0708  0.1753  0.1980
 8734SOL    HW132165   6.386   4.586   9.432  1.9780 -1.1114  0.0195
 8734SOL    HW232166   6.329   4.636   9.301  1.0643  1.1101  1.2195
 8735SOL     OW32167   1.124  11.266   3.650  0.0543  0.3994  0.8873
 8735SOL    HW132168   1.053  11.203   3.641  0.0460  0.4754  0.4232
 8735SOL    HW232169   1.162  11.246   3.736  1.3234 -1.5447 -0.0683
 8736SOL     OW32170   4.322   3.881  10.684  0.2255 -0.1470  0.0109
 8736SOL    HW132171   4.383   3.884  10.610  1.0280  0.0707  0.6730
 8736SOL    HW232172   4.245   3.929  10.653  1.3248  1.7125 -0.0154
 8737SOL     OW32173   6.776   6.787  12.346  0.1344  0.0483  0.1375
 8737SOL    HW132174   6.840   6.726  12.308 -1.0100 -0.6736 -0.7017
 8737SOL    HW232175   6.792   6.869  12.299  0.7413  0.0152  0.2690
 8738SOL     OW32176   9.834   0.821   4.919  0.0900  0.7758  0.3866
 8738SOL    HW132177   9.790   0.813   4.834  2.0186  2.2913 -0.8312
 8738SOL    HW232178   9.788   0.892   4.964  0.0452  1.0248 -0.0471
 8739SOL     OW32179  10.743   3.843   6.495 -0.3399  0.2858 -0.3664
 8739SOL    HW132180  10.808   3.788   6.540 -1.4899 -0.9753 -0.1911
 8739SOL    HW232181  10.773   3.847   6.404 -0.0609 -0.3411 -0.3045
 8740SOL     OW32182   5.842   5.876  10.712  0.3823  0.3661  0.6131
 8740SOL    HW132183   5.771   5.880  10.776 -0.2498  0.4359 -0.0725
 8740SOL    HW232184   5.838   5.960  10.666  1.5697  0.7945  1.2353
 8741SOL     OW32185   0.292  10.214  10.437 -0.0295  0.0773  0.8158
 8741SOL    HW132186   0.241  10.229  10.358  0.2111  0.3814  0.7151
 8741SOL    HW232187   0.304  10.120  10.441 -0.1041  0.0571  0.5290
 8742SOL     OW32188   5.498   6.953   0.486 -0.8525 -0.0082 -0.0251
 8742SOL    HW132189   5.587   6.958   0.523 -1.0879  3.1468  0.4365
 8742SOL    HW232190   5.441   6.946   0.562 -1.0610 -0.0213 -0.1838
 8743SOL     OW32191  12.356   3.535   1.467  0.6049 -0.2682  0.0737
 8743SOL    HW132192  12.368   3.628   1.487 -0.0221 -0.0063 -0.7086
 8743SOL    HW232193  12.440   3.507   1.432  0.4903  0.2800 -0.6676
 8744SOL     OW32194  10.541   4.414   3.992  0.3843  0.6137 -0.2050
 8744SOL    HW132195  10.536   4.492   3.937 -0.9424  0.0209 -0.9681
 8744SOL    HW232196  10.606   4.358   3.949  1.6333  1.4311  0.5629
 8745SOL     OW32197   7.970   6.932   5.766 -0.2023  0.0901  0.2659
 8745SOL    HW132198   7.899   6.869   5.759 -1.4369  1.4286  0.1941
 8745SOL    HW232199   7.974   6.954   5.859  1.4760 -1.4040  0.6145
 8746SOL     OW32200   2.562   7.332   6.514  0.1896  0.2360  0.1206
 8746SOL    HW132201   2.601   7.283   6.441  1.4580  0.3922  0.6708
 8746SOL    HW232202   2.469   7.338   6.491  0.6697  0.9884 -1.8808
 8747SOL     OW32203   2.598  11.134   8.195  0.1712  0.2082 -0.4181
 8747SOL    HW132204   2.634  11.221   8.179 -0.5083  0.7069  0.7088
 8747SOL    HW232205   2.505  11.148   8.213  0.5208 -0.4153  2.3776
 8748SOL     OW32206   0.375   5.940   5.874 -0.0291  0.5084 -0.2972
 8748SOL    HW132207   0.455   5.892   5.897  0.0185  0.2067 -1.0719
 8748SOL    HW232208   0.380   5.951   5.779 -0.6388  0.9852 -0.2787
 8749SOL     OW32209  10.949   2.295   8.682  0.4080 -0.3716 -0.0403
 8749SOL    HW132210  10.868   2.264   8.721 -0.1274  1.1060  0.0809
 8749SOL    HW232211  10.976   2.368   8.737  0.6957  0.4713 -1.2533
 8750SOL     OW32212   7.344  10.551   1.073 -0.2466 -0.4604  0.1688
 8750SOL    HW132213   7.401  10.592   1.137 -1.7962  0.0611  1.2610
 8750SOL    HW232214   7.306  10.476   1.119 -0.0122 -1.1580 -0.7375
 8751SOL     OW32215   8.560   8.341  11.177 -0.0571  0.2552 -0.1779
 8751SOL    HW132216   8.483   8.285  11.193  1.2050 -1.5514 -0.0531
 8751SOL    HW232217   8.559   8.357  11.083 -0.2365 -0.3218 -0.2796
 8752SOL     OW32218   9.175   4.436  10.303  0.0100  0.1889  0.1162
 8752SOL    HW132219   9.149   4.423  10.212  0.6550  0.2787 -0.0837
 8752SOL    HW232220   9.219   4.521  10.303 -0.8655  0.6692  0.7060
 8753SOL     OW32221   1.483   3.848   8.581  0.3883  0.3177  0.5519
 8753SOL    HW132222   1.493   3.759   8.548 -0.3529 -0.1819  1.6091
 8753SOL    HW232223   1.560   3.862   8.636  0.1043  0.0170  1.0353
 8754SOL     OW32224   7.910   3.276  11.303 -0.2737 -0.1432 -0.1782
 8754SOL    HW132225   7.978   3.337  11.276  0.7576 -1.4509 -0.6083
 8754SOL    HW232226   7.943   3.190  11.279 -0.9404 -1.0533  1.9340
 8755SOL     OW32227   5.327   2.598   3.069  0.3220 -0.2854  0.3941
 8755SOL    HW132228   5.319   2.676   3.014  0.7422 -1.6237 -1.6551
 8755SOL    HW232229   5.240   2.587   3.107 -0.2260  0.1646 -0.7072
 8756SOL     OW32230  11.068   1.335   9.960  0.0383 -0.1438  0.0637
 8756SOL    HW132231  11.123   1.285   9.899  1.0664  1.2505 -0.1828
 8756SOL    HW232232  11.082   1.293  10.045 -0.5858 -1.4395 -0.4432
 8757SOL     OW32233   0.871   4.137   5.282 -0.1800 -0.1909  0.0200
 8757SOL    HW132234   0.922   4.059   5.302 -0.6135 -0.1084  1.5701
 8757SOL    HW232235   0.787   4.104   5.250  0.1841 -0.3267 -0.8419
 8758SOL     OW32236  12.236   2.795   2.304  0.3595 -0.0698 -0.0240
 8758SOL    HW132237  12.156   2.769   2.258  0.5094  0.8007 -0.7947
 8758SOL    HW232238  12.294   2.719   2.295 -0.3761 -0.7218  0.5699
 8759SOL     OW32239   8.989   3.491   0.948 -1.0298 -0.7067  0.2236
 8759SOL    HW132240   9.007   3.441   0.869 -1.6021  0.3662 -0.6247
 8759SOL    HW232241   8.975   3.581   0.917 -1.5310 -0.3085  1.5074
 8760SOL     OW32242   6.175  10.742  12.038  0.2969  0.8132 -0.0012
 8760SOL    HW132243   6.119  10.700  12.104 -1.0499  0.3317 -1.3897
 8760SOL    HW232244   6.218  10.813  12.085 -1.6273  1.3169  1.0930
 8761SOL     OW32245   8.109   2.259   6.528  0.4626  0.2553  0.8894
 8761SOL    HW132246   8.103   2.244   6.434 -0.6031 -1.7129  1.2143
 8761SOL    HW232247   8.185   2.316   6.538  0.5892  0.5282 -1.1476
 8762SOL     OW32248   4.567   6.879  10.440 -0.1455  0.5354  0.1740
 8762SOL    HW132249   4.622   6.862  10.516 -2.0747 -0.2425  1.4836
 8762SOL    HW232250   4.627   6.907  10.371  1.7968  0.0535  1.6196
 8763SOL     OW32251   6.483   2.011  12.119  0.8046  0.2772 -0.2068
 8763SOL    HW132252   6.423   1.946  12.156  0.8222  0.6437  0.4802
 8763SOL    HW232253   6.556   2.016  12.180 -0.6533  3.2135  1.5318
 8764SOL     OW32254   2.851   4.907   5.227  0.4019 -0.4958  0.1997
 8764SOL    HW132255   2.824   4.820   5.198  0.1018 -0.3453  0.0249
 8764SOL    HW232256   2.792   4.967   5.181 -0.5253 -0.2821  1.6040
 8765SOL     OW32257  11.211   7.859   9.483 -0.2522  0.0252 -0.3668
 8765SOL    HW132258  11.201   7.842   9.389  0.1041 -1.3782 -0.1772
 8765SOL    HW232259  11.128   7.831   9.522 -0.4833  0.8074 -0.2641
 8766SOL     OW32260   1.753   4.986   6.250 -0.2073  0.2537  0.2027
 8766SOL    HW132261   1.795   4.941   6.323 -0.3898 -2.0665 -1.0457
 8766SOL    HW232262   1.825   5.032   6.206  0.7809 -2.1236 -0.8004
 8767SOL     OW32263   1.613   3.321   5.322  0.1167  0.1939 -0.3639
 8767SOL    HW132264   1.694   3.297   5.277 -0.2783 -0.5524 -0.6879
 8767SOL    HW232265   1.553   3.248   5.305 -0.8899  1.0812 -0.8004
 8768SOL     OW32266   0.724   9.133   5.196  0.0904  0.0534  0.0081
 8768SOL    HW132267   0.742   9.099   5.284  1.2411 -1.0702 -0.6200
 8768SOL    HW232268   0.807   9.121   5.149  0.4308  3.3251 -0.4518
 8769SOL     OW32269   2.955   2.468   7.675 -0.7108 -0.2031 -0.4815
 8769SOL    HW132270   2.964   2.554   7.717  0.0526 -0.7049  0.4067
 8769SOL    HW232271   2.868   2.471   7.634 -0.3227  1.3189 -1.2568
 8770SOL     OW32272   3.121   6.598   3.513 -0.1941  0.2042  0.3214
 8770SOL    HW132273   3.198   6.588   3.456  1.3349  1.3346  2.0666
 8770SOL    HW232274   3.056   6.642   3.458  0.8108  0.2476 -0.8808
 8771SOL     OW32275  10.439   3.947  11.437  0.0709  0.2050 -0.4637
 8771SOL    HW132276  10.454   3.970  11.345  0.7320  1.3173 -0.1020
 8771SOL    HW232277  10.503   3.878  11.455 -0.1912 -0.1512 -0.8870
 8772SOL     OW32278  12.166   3.088   9.435  0.1747  0.0064  0.5369
 8772SOL    HW132279  12.207   3.012   9.477  0.3632 -0.3753 -0.3046
 8772SOL    HW232280  12.073   3.080   9.458  0.1091 -0.7651  0.0728
 8773SOL     OW32281   9.794   8.768   7.363 -0.0810 -0.1425  0.1333
 8773SOL    HW132282   9.874   8.718   7.373  0.4658  0.4196 -1.1630
 8773SOL    HW232283   9.763   8.783   7.452  0.8189 -1.0433  0.6128
 8774SOL     OW32284  10.446   6.696   0.419 -0.3901  0.4096 -0.8057
 8774SOL    HW132285  10.373   6.730   0.368 -1.9269 -0.5036  0.6552
 8774SOL    HW232286  10.429   6.727   0.508  1.3382  0.6519 -0.5256
 8775SOL     OW32287   9.966   0.562   1.517  0.5217 -0.6353 -0.2885
 8775SOL    HW132288   9.971   0.469   1.540 -1.3104 -0.2182  2.1671
 8775SOL    HW232289   9.935   0.605   1.597  0.6558  2.0230 -1.5577
 8776SOL     OW32290  12.101   7.912  10.361 -0.0432  0.2538 -0.4856
 8776SOL    HW132291  12.135   7.989  10.407 -0.5411  1.5984 -2.2722
 8776SOL    HW232292  12.123   7.927  10.269 -1.3204 -1.1093 -1.0467
 8777SOL     OW32293   3.939   9.401   4.370 -0.0422  0.1736 -0.2456
 8777SOL    HW132294   4.023   9.430   4.405  1.0394 -0.9053 -1.8199
 8777SOL    HW232295   3.911   9.332   4.429  0.2586  0.4073  0.1791
 8778SOL     OW32296   0.100  11.389   5.179  0.4296  0.4501 -0.0581
 8778SOL    HW132297   0.112  11.332   5.255 -1.4106 -0.1921 -0.2124
 8778SOL    HW232298   0.179  11.376   5.127  0.9494 -0.4053  0.8945
 8779SOL     OW32299  11.288   8.909   3.295 -0.0079  0.1368 -0.1259
 8779SOL    HW132300  11.350   8.944   3.359  2.1487 -1.0499 -1.4552
 8779SOL    HW232301  11.306   8.959   3.215  0.7451 -1.5736 -1.0944
 8780SOL     OW32302   4.075   2.263   1.740 -0.4898  0.1708 -0.2557
 8780SOL    HW132303   4.016   2.312   1.681 -0.9152  0.9181  0.7664
 8780SOL    HW232304   4.155   2.315   1.742  0.7047 -1.3979 -2.5078
 8781SOL     OW32305   8.259   5.793   5.545  0.1097  0.5240 -0.3021
 8781SOL    HW132306   8.304   5.825   5.624 -1.3055 -0.5515  0.9981
 8781SOL    HW232307   8.329   5.755   5.492  0.9940  0.4861  0.8426
 8782SOL     OW32308   3.405   5.045   8.476  0.2091  0.2321 -0.3343
 8782SOL    HW132309   3.470   5.111   8.498  0.3490  0.3809 -1.1611
 8782SOL    HW232310   3.348   5.087   8.412 -1.2834  0.4304  1.0364
 8783SOL     OW32311   6.213   2.554   4.527 -0.3882  0.3698 -0.2828
 8783SOL    HW132312   6.234   2.647   4.518  3.4517 -0.3376 -0.4427
 8783SOL    HW232313   6.139   2.551   4.588 -0.0317  3.4532  0.4439
 8784SOL     OW32314  11.135   2.394   6.625  0.1661 -0.0879 -0.0779
 8784SOL    HW132315  11.218   2.424   6.587  1.4515 -1.2201  1.6615
 8784SOL    HW232316  11.107   2.323   6.567 -0.2721  1.1068 -1.3754
 8785SOL     OW32317   1.824   4.833   5.212  0.3165 -0.2723  0.0795
 8785SOL    HW132318   1.798   4.859   5.300  0.4574  0.4328 -0.0758
 8785SOL    HW232319   1.897   4.891   5.191 -0.5644  0.4759 -0.9974
 8786SOL     OW32320   1.750   6.447   9.719 -0.5515 -0.3281  0.1306
 8786SOL    HW132321   1.726   6.390   9.646 -1.3112 -0.0498  0.1493
 8786SOL    HW232322   1.705   6.409   9.795  1.2943 -1.3881  0.7506
 8787SOL     OW32323   5.626   7.160   9.717  0.3725 -0.4168 -0.2471
 8787SOL    HW132324   5.582   7.110   9.648 -0.7520 -3.7104  2.6180
 8787SOL    HW232325   5.693   7.102   9.751  3.2134  2.3684 -0.5719
 8788SOL     OW32326   3.888   7.143   1.760  0.1264 -0.1319 -0.1820
 8788SOL    HW132327   3.802   7.183   1.770  0.6637  0.6323  1.9128
 8788SOL    HW232328   3.871   7.051   1.740 -1.2768 -0.6076  2.6847
 8789SOL     OW32329   4.774  11.444   1.501 -0.0259 -0.1087  0.1290
 8789SOL    HW132330   4.804  11.526   1.462 -0.8181 -0.3581 -1.0589
 8789SOL    HW232331   4.825  11.377   1.457 -0.9425 -0.3950 -0.5296
 8790SOL     OW32332   2.816   9.909   2.520  0.0024  0.2634  0.2457
 8790SOL    HW132333   2.840   9.839   2.459  0.0277  0.7045 -0.2641
 8790SOL    HW232334   2.725   9.931   2.496  0.0778  0.5695  0.2364
 8791SOL     OW32335   1.251   4.595   9.579  0.2257  0.6244  0.5001
 8791SOL    HW132336   1.161   4.604   9.548 -0.0714  0.7445  1.3932
 8791SOL    HW232337   1.297   4.555   9.505 -0.5997  0.3689  0.1125
 8792SOL     OW32338   4.145   6.741  10.072 -0.1077  0.7484 -0.0338
 8792SOL    HW132339   4.151   6.783   9.986 -1.5523  0.3241 -0.3729
 8792SOL    HW232340   4.148   6.647  10.053 -0.9215  0.6427  0.3234
 8793SOL     OW32341   9.656   9.666   3.803  0.0081  0.3323 -0.3793
 8793SOL    HW132342   9.751   9.677   3.799 -0.0308  2.3021  1.8339
 8793SOL    HW232343   9.634   9.686   3.894 -2.6958  1.5403 -1.2157
 8794SOL     OW32344   1.604   6.685   6.992  0.4173 -0.0321 -0.1274
 8794SOL    HW132345   1.657   6.765   6.987 -0.4203  0.6628  1.5863
 8794SOL    HW232346   1.665   6.618   7.025  0.3719  0.6532  1.3994
 8795SOL     OW32347  10.033   5.349   6.928  0.3152  0.4154  0.0292
 8795SOL    HW132348  10.068   5.425   6.974 -0.2737 -0.6006  2.3181
 8795SOL    HW232349   9.940   5.347   6.954  0.3736 -1.1711  0.2141
 8796SOL     OW32350   7.360   4.184   5.367 -0.4729  0.5869  0.2669
 8796SOL    HW132351   7.365   4.267   5.415 -4.0028  0.7856  0.5019
 8796SOL    HW232352   7.354   4.117   5.436 -1.6212  0.5311  0.1293
 8797SOL     OW32353   3.457   3.444   6.564 -0.3835  0.1166 -0.1886
 8797SOL    HW132354   3.504   3.526   6.548  0.5112 -0.3448  0.0152
 8797SOL    HW232355   3.418   3.455   6.651  1.0018 -0.2351  0.5064
 8798SOL     OW32356   7.354   7.163   7.039  0.4692  0.0184 -0.3180
 8798SOL    HW132357   7.267   7.166   7.079  0.4545  0.1835 -0.3621
 8798SOL    HW232358   7.337   7.160   6.945  0.5239  1.6210 -0.4067
 8799SOL     OW32359   0.253  11.229   9.378  0.5720 -0.2417 -0.2426
 8799SOL    HW132360   0.263  11.324   9.364  0.6305 -0.5885 -3.4124
 8799SOL    HW232361   0.338  11.193   9.351  1.0256 -1.1649  2.2222
 8800SOL     OW32362   5.271  11.474   3.325 -0.4603  0.3399 -0.3405
 8800SOL    HW132363   5.352  11.466   3.375 -0.2260 -0.0749 -0.7683
 8800SOL    HW232364   5.298  11.516   3.243 -0.9415  1.5739  0.1140
 8801SOL     OW32365   6.898   6.880   3.065  0.2166  0.3743 -0.3876
 8801SOL    HW132366   6.911   6.959   3.012 -0.3118  1.7215  1.3932
 8801SOL    HW232367   6.889   6.913   3.155  0.4578 -1.7664  0.4723
 8802SOL     OW32368   9.010   6.665   6.236 -0.3662  0.1182 -0.8671
 8802SOL    HW132369   8.924   6.676   6.195 -1.0140 -0.4035  0.2996
 8802SOL    HW232370   9.008   6.722   6.313  0.5678  0.5567 -1.1573
 8803SOL     OW32371   3.741  10.366   1.198  0.3643  0.9133  0.1129
 8803SOL    HW132372   3.750  10.456   1.231 -0.2854  0.7827  0.6591
 8803SOL    HW232373   3.658  10.366   1.150 -0.5271  0.1846  1.5810
 8804SOL     OW32374   4.573  10.105   2.921 -0.6195  0.9319 -0.0139
 8804SOL    HW132375   4.578  10.070   2.832 -2.1151 -2.0398  0.9566
 8804SOL    HW232376   4.480  10.101   2.943 -0.0081 -1.0078  2.6092
 8805SOL     OW32377   1.760   7.423   7.843 -0.2768  0.1052 -0.6302
 8805SOL    HW132378   1.749   7.382   7.757 -0.3580 -0.8278 -0.1837
 8805SOL    HW232379   1.829   7.489   7.829 -0.3253  0.0061 -1.4148
 8806SOL     OW32380   9.285   9.518   5.506  1.1679 -0.8085 -0.3183
 8806SOL    HW132381   9.196   9.529   5.538 -0.2989  0.0923 -4.0696
 8806SOL    HW232382   9.334   9.591   5.544 -0.2085 -0.1943  0.3071
 8807SOL     OW32383   4.023   3.433   2.106 -0.4010  0.3525  0.4137
 8807SOL    HW132384   4.000   3.354   2.058 -1.2761 -0.7018  2.4520
 8807SOL    HW232385   3.945   3.489   2.098 -0.9724 -0.2648  1.4201
 8808SOL     OW32386   5.924   6.462   8.535 -0.2951 -0.0847 -0.0743
 8808SOL    HW132387   6.001   6.452   8.479 -1.5010  0.1344 -1.8622
 8808SOL    HW232388   5.919   6.380   8.584  1.3913  0.1415  0.5497
 8809SOL     OW32389  11.135   9.139  10.789 -0.1997  0.1213 -0.0919
 8809SOL    HW132390  11.047   9.105  10.772  0.0418 -0.2085 -0.7283
 8809SOL    HW232391  11.124   9.195  10.865 -1.0202  0.3379 -0.3541
 8810SOL     OW32392   8.683   8.920  11.536 -0.3483 -0.5328 -0.0773
 8810SOL    HW132393   8.619   8.861  11.495 -1.7620 -0.5098  1.9568
 8810SOL    HW232394   8.723   8.867  11.605  1.2303 -0.2595 -0.7359
 8811SOL     OW32395   3.002   9.095   3.730 -0.2053  0.0467 -0.0787
 8811SOL    HW132396   2.961   9.019   3.773 -0.3983 -0.3943 -1.0206
 8811SOL    HW232397   3.064   9.057   3.669 -1.0755  0.6017 -1.3526
 8812SOL     OW32398   4.380  11.102   4.110 -0.4387  0.1127 -0.0975
 8812SOL    HW132399   4.369  11.196   4.099  1.0018  0.8022  3.1166
 8812SOL    HW232400   4.453  11.080   4.051 -0.8544  0.9513 -0.9574
 8813SOL     OW32401   8.911   3.181   9.293 -0.2015  0.1104 -0.0399
 8813SOL    HW132402   8.829   3.222   9.267  0.8044  1.5642 -1.0580
 8813SOL    HW232403   8.955   3.247   9.347  0.1452 -0.8039  0.8376
 8814SOL     OW32404   4.905   1.511   7.266  0.0720  0.2000  0.6833
 8814SOL    HW132405   4.944   1.598   7.260 -1.3216  0.8987  1.3618
 8814SOL    HW232406   4.883   1.488   7.175  0.9472  0.2917  0.4366
 8815SOL     OW32407   0.347   5.192   0.591 -0.2272 -0.8243  0.0868
 8815SOL    HW132408   0.397   5.268   0.620  0.4674 -1.1641 -0.2027
 8815SOL    HW232409   0.262   5.227   0.567  0.6231  0.1632 -1.6787
 8816SOL     OW32410   6.116   2.602   8.372 -0.3399  0.2355  0.0313
 8816SOL    HW132411   6.104   2.618   8.278 -2.6115 -1.6989 -0.0784
 8816SOL    HW232412   6.204   2.636   8.390 -0.4246  2.0588 -2.4346
 8817SOL     OW32413   4.980   0.464  11.748  0.3358  0.5180  0.2543
 8817SOL    HW132414   5.024   0.452  11.664  1.1521  0.0091  0.7393
 8817SOL    HW232415   4.907   0.524  11.729 -0.3921 -0.7440 -1.1089
 8818SOL     OW32416   4.473  10.036   4.887  1.0310  0.3996 -0.0337
 8818SOL    HW132417   4.526  10.056   4.810  0.4048  0.3252 -0.4898
 8818SOL    HW232418   4.382  10.043   4.857  0.7724  0.5543  0.7431
 8819SOL     OW32419   1.560   2.002   3.670 -0.1253 -0.3062  0.1883
 8819SOL    HW132420   1.478   2.038   3.637  0.1217  2.2286  2.0341
 8819SOL    HW232421   1.623   2.073   3.658  1.1144 -1.1456  1.4401
 8820SOL     OW32422   9.123   5.718   9.018 -0.6723 -0.0328  0.2296
 8820SOL    HW132423   9.078   5.793   9.058  0.8340  0.3975  1.1767
 8820SOL    HW232424   9.190   5.693   9.081  1.0162 -0.0929 -1.5031
 8821SOL     OW32425   4.965   8.575   5.720 -0.6327  0.0433 -0.2614
 8821SOL    HW132426   4.903   8.630   5.671 -0.8789 -1.8891 -2.3125
 8821SOL    HW232427   5.041   8.631   5.734 -0.6122  0.7664 -2.8051
 8822SOL     OW32428  10.590   6.191   8.662 -0.3603  0.4932 -0.2448
 8822SOL    HW132429  10.643   6.271   8.660  0.0430  0.2072 -1.2724
 8822SOL    HW232430  10.529   6.200   8.589 -0.6602  0.0898 -0.0505
 8823SOL     OW32431   6.859   4.250  10.171 -0.5684 -0.0882 -0.2439
 8823SOL    HW132432   6.840   4.177  10.230  0.6022 -1.0591 -1.0294
 8823SOL    HW232433   6.906   4.313  10.226  0.0878 -0.7647 -0.0260
 8824SOL     OW32434   2.637  11.723   5.491 -0.1324 -0.3105  0.0887
 8824SOL    HW132435   2.607  11.664   5.561  1.6937 -1.3368  0.0584
 8824SOL    HW232436   2.713  11.680   5.454  0.2650  1.3012 -1.0737
 8825SOL     OW32437   1.156   7.265   1.079  0.4884 -0.6953  0.4007
 8825SOL    HW132438   1.195   7.179   1.097  0.2312 -0.6883  0.9940
 8825SOL    HW232439   1.227   7.327   1.094  0.9379 -0.8515 -0.8947
 8826SOL     OW32440  11.416  11.529   8.650 -0.6179 -0.2449 -0.1976
 8826SOL    HW132441  11.491  11.516   8.592  1.5532  2.7272  1.6077
 8826SOL    HW232442  11.397  11.623   8.644 -1.1525 -0.0460  2.7557
 8827SOL     OW32443   3.643   6.592   9.277 -0.0169 -0.5344  0.2388
 8827SOL    HW132444   3.583   6.519   9.262  0.8064 -1.3787  0.9140
 8827SOL    HW232445   3.720   6.570   9.225 -0.0863  0.2775 -0.2092
 8828SOL     OW32446   5.788  12.010   1.209  0.0848 -0.1169 -0.4649
 8828SOL    HW132447   5.832  12.094   1.222  1.6469 -0.5811 -2.4138
 8828SOL    HW232448   5.853  11.944   1.233 -0.8363 -0.8189  0.2121
 8829SOL     OW32449   6.328  10.839   5.829  0.0697  0.5183  0.1849
 8829SOL    HW132450   6.343  10.909   5.892  0.8356  1.0853 -0.5974
 8829SOL    HW232451   6.382  10.863   5.754 -0.4653 -0.3784 -0.5036
 8830SOL     OW32452   5.135   8.835   2.450 -0.2018  0.1647  0.7731
 8830SOL    HW132453   5.222   8.839   2.413  0.2026  0.3246  1.7120
 8830SOL    HW232454   5.077   8.822   2.375  0.8550 -2.9019  0.3428
 8831SOL     OW32455   4.261  11.172   8.519  0.5791 -0.1324 -0.2688
 8831SOL    HW132456   4.167  11.166   8.498  0.7283 -0.0855 -0.9842
 8831SOL    HW232457   4.305  11.164   8.434  1.2777 -1.2034  0.1795
 8832SOL     OW32458   6.949   3.782   2.465  0.1106 -0.2602 -0.1781
 8832SOL    HW132459   6.997   3.793   2.384  0.7730  0.3637  0.2863
 8832SOL    HW232460   7.003   3.826   2.532  0.4919 -2.3148  0.9370
 8833SOL     OW32461  11.153   7.703  11.415  0.4140  0.8937 -0.0851
 8833SOL    HW132462  11.104   7.785  11.412 -0.4771  0.3782  0.0136
 8833SOL    HW232463  11.199   7.706  11.499 -1.3171  0.3664  0.9297
 8834SOL     OW32464  11.105  10.000  11.849 -0.0955  1.2312 -0.1960
 8834SOL    HW132465  11.116   9.951  11.931  0.6986 -0.5899 -1.3261
 8834SOL    HW232466  11.012   9.992  11.828  0.1812 -0.6507 -0.8342
 8835SOL     OW32467  11.245  12.090   0.937  0.5286  0.4254  0.5323
 8835SOL    HW132468  11.184  12.044   0.995 -0.2694 -0.5917 -1.0388
 8835SOL    HW232469  11.326  12.039   0.941  1.0162  1.2540  1.9106
 8836SOL     OW32470   1.991   5.401   7.224 -0.6911 -0.4101  0.5029
 8836SOL    HW132471   1.945   5.447   7.295 -0.0949  0.7514  0.1587
 8836SOL    HW232472   1.938   5.418   7.146  0.9779  2.1883 -0.1971
 8837SOL     OW32473   3.958   9.729   2.981 -0.3394  0.6613  0.6373
 8837SOL    HW132474   3.968   9.787   3.056  2.1923 -0.6231  1.3805
 8837SOL    HW232475   3.930   9.645   3.018  0.8615  0.0374  0.1675
 8838SOL     OW32476   9.280   7.573   4.998  0.1435  0.5370 -0.3966
 8838SOL    HW132477   9.366   7.560   5.038  1.2007  0.4060 -2.6136
 8838SOL    HW232478   9.222   7.513   5.046  1.1670  0.8479  1.3296
 8839SOL     OW32479   5.964   2.287  12.283  0.2865  0.1066 -0.7238
 8839SOL    HW132480   5.919   2.210  12.247  1.1279  0.4659 -2.6662
 8839SOL    HW232481   5.901   2.324  12.345 -0.7006 -1.3376 -0.8020
 8840SOL     OW32482  10.426   5.743   6.202  0.0205  0.5687 -0.3036
 8840SOL    HW132483  10.445   5.828   6.241  1.3035  1.2419 -2.2431
 8840SOL    HW232484  10.380   5.763   6.121 -0.3079 -0.6259 -0.4330
 8841SOL     OW32485   5.009  10.470   2.587  0.1811 -0.2618  0.1362
 8841SOL    HW132486   5.043  10.483   2.675  1.8166  0.2139 -0.5259
 8841SOL    HW232487   5.067  10.404   2.549  1.2173  1.4756 -1.4508
 8842SOL     OW32488   5.390   6.909   5.282  0.3681 -0.7050  0.1845
 8842SOL    HW132489   5.340   6.987   5.304 -1.1352 -1.0896 -1.5740
 8842SOL    HW232490   5.436   6.932   5.202  0.0128 -1.5498 -0.2770
 8843SOL     OW32491   5.664   0.321   5.890  0.0509 -0.7953 -0.0224
 8843SOL    HW132492   5.707   0.405   5.873 -0.9377 -0.2445  0.1216
 8843SOL    HW232493   5.733   0.255   5.876  1.6624  0.1681  2.6585
 8844SOL     OW32494   7.991  10.257  11.636 -0.2357  0.5258 -0.3168
 8844SOL    HW132495   7.960  10.271  11.726  2.1360  0.8052  0.5175
 8844SOL    HW232496   7.965  10.337  11.590 -0.3273  0.9599  0.4615
 8845SOL     OW32497   7.650  11.941   5.536  0.0079 -0.9452 -0.0968
 8845SOL    HW132498   7.719  11.905   5.480 -1.5616 -1.0777 -2.0980
 8845SOL    HW232499   7.592  11.866   5.553 -0.9767 -0.3277 -0.6245
 8846SOL     OW32500  12.082   9.728  10.068  0.2075 -0.4116  0.0110
 8846SOL    HW132501  12.059   9.777   9.989  1.9976  0.4750 -0.0141
 8846SOL    HW232502  12.011   9.664  10.078 -1.5151  1.2669 -0.7323
 8847SOL     OW32503   0.519   5.576  11.945  0.2408  0.3453 -0.1603
 8847SOL    HW132504   0.572   5.533  12.012  0.7149  0.4061 -0.4882
 8847SOL    HW232505   0.556   5.546  11.862 -0.8172 -0.3041 -0.4056
 8848SOL     OW32506   5.170  10.774  11.307 -0.5833 -0.2816 -0.4435
 8848SOL    HW132507   5.157  10.740  11.396 -0.9301 -0.1174 -0.4309
 8848SOL    HW232508   5.144  10.866  11.312 -0.0200 -0.1095 -0.5738
 8849SOL     OW32509   5.494   0.948   1.913 -0.5688 -0.3820  0.8788
 8849SOL    HW132510   5.454   1.015   1.968 -2.0588 -0.9521  0.5437
 8849SOL    HW232511   5.421   0.910   1.865  0.7088  0.6241 -2.1228
 8850SOL     OW32512  12.120   5.592   9.003  0.0086 -0.2167  0.8229
 8850SOL    HW132513  12.141   5.685   9.008  1.1171 -0.4871  1.4701
 8850SOL    HW232514  12.025   5.588   9.014 -0.5541  1.0699 -2.3428
 8851SOL     OW32515   7.427   6.728   0.439 -0.5081 -0.2087  0.0194
 8851SOL    HW132516   7.467   6.701   0.356 -0.7949  1.3498 -0.6501
 8851SOL    HW232517   7.334   6.732   0.421 -0.5532  0.3563  0.3630
 8852SOL     OW32518   3.701   4.419   6.037 -0.0328 -0.7247 -0.1900
 8852SOL    HW132519   3.686   4.396   5.946  0.5236  1.2004 -0.8200
 8852SOL    HW232520   3.710   4.335   6.082 -2.5152 -1.8055 -1.4661
 8853SOL     OW32521  12.078   6.624   7.164  0.1653 -0.2605 -0.1346
 8853SOL    HW132522  12.075   6.626   7.260  0.8901 -0.7980 -0.0905
 8853SOL    HW232523  12.081   6.716   7.138  2.4503 -0.1015  0.4756
 8854SOL     OW32524   5.757   7.714  10.892  0.4328  0.0698 -0.2009
 8854SOL    HW132525   5.805   7.643  10.934  1.8082  0.3955 -1.1654
 8854SOL    HW232526   5.690   7.738  10.956 -0.4073 -2.3876 -0.0303
 8855SOL     OW32527  10.575  11.834   8.755  0.0863 -0.0963  0.3321
 8855SOL    HW132528  10.555  11.842   8.662  3.3696  0.6439 -0.4439
 8855SOL    HW232529  10.499  11.790   8.793 -1.2821 -0.5713 -2.7033
 8856SOL     OW32530   2.549   2.625   2.809  0.4374  0.2578 -0.1366
 8856SOL    HW132531   2.537   2.643   2.902 -0.1772 -0.9118  0.0281
 8856SOL    HW232532   2.467   2.655   2.769  0.9177  1.2665 -0.3916
 8857SOL     OW32533   9.888   0.447   6.814 -0.1978  0.2298  0.0602
 8857SOL    HW132534   9.899   0.359   6.848  0.4450  0.1423 -0.3482
 8857SOL    HW232535   9.832   0.491   6.878 -2.7277 -1.2161 -1.0235
 8858SOL     OW32536  11.100   6.570   8.322  0.0271  0.2305 -0.1571
 8858SOL    HW132537  11.087   6.576   8.227  1.9432 -0.1966 -0.5079
 8858SOL    HW232538  11.161   6.497   8.332  0.9522  1.1591  1.2870
 8859SOL     OW32539   1.016   1.182  10.976  0.3076  0.1650 -0.1102
 8859SOL    HW132540   0.984   1.250  10.917 -0.7879 -0.6134 -0.4337
 8859SOL    HW232541   1.111   1.197  10.980  0.2959  0.7076 -1.4329
 8860SOL     OW32542   7.570   3.710   7.057 -0.0385  0.0717 -0.4003
 8860SOL    HW132543   7.583   3.685   6.965 -0.1693 -0.3649 -0.3032
 8860SOL    HW232544   7.623   3.648   7.106  0.9583  1.0244 -0.2304
 8861SOL     OW32545   5.341   2.858   2.501  0.7350 -0.3895 -0.3570
 8861SOL    HW132546   5.297   2.906   2.571  0.8862 -0.7343 -0.0156
 8861SOL    HW232547   5.304   2.769   2.507  2.0825 -0.9340  0.5203
 8862SOL     OW32548   8.164   7.083  12.472 -0.7141 -0.3486 -0.0359
 8862SOL    HW132549   8.173   7.051  12.562 -0.8799  0.8145  0.4063
 8862SOL    HW232550   8.242   7.051  12.427 -0.7925 -1.2193  0.4296
 8863SOL     OW32551   7.079  11.202   5.383  0.3987  0.3338 -0.5802
 8863SOL    HW132552   7.030  11.123   5.407  3.3766 -1.3775  0.3893
 8863SOL    HW232553   7.035  11.273   5.431 -0.9460 -1.1218  0.4362
 8864SOL     OW32554  10.860   3.385   6.769  0.1689 -0.3356  0.3857
 8864SOL    HW132555  10.780   3.415   6.727  1.8130  2.8626 -0.8483
 8864SOL    HW232556  10.896   3.320   6.708 -0.0595  0.4002 -0.5623
 8865SOL     OW32557   6.821   3.016  12.080 -0.6633  0.4867 -0.0620
 8865SOL    HW132558   6.916   3.025  12.080 -0.6096 -0.0222  0.2236
 8865SOL    HW232559   6.803   2.949  12.146 -1.2288  0.6620 -0.0268
 8866SOL     OW32560   0.218   5.179   7.264  0.1765  0.4888  0.3091
 8866SOL    HW132561   0.246   5.113   7.328 -0.2366  0.8097  0.8310
 8866SOL    HW232562   0.266   5.156   7.184 -1.8779 -2.0252 -0.3359
 8867SOL     OW32563   0.806   1.858   7.547 -0.1112 -0.1273  0.0120
 8867SOL    HW132564   0.847   1.831   7.464  0.0711  0.4859 -0.1038
 8867SOL    HW232565   0.858   1.933   7.576 -1.5067  1.0765 -0.4508
 8868SOL     OW32566  10.480   7.161   2.644 -0.8107 -0.3499  0.2028
 8868SOL    HW132567  10.546   7.176   2.712 -1.5084  0.6575  0.6902
 8868SOL    HW232568  10.443   7.075   2.665  0.2132 -0.8379  0.0344
 8869SOL     OW32569  11.671   1.437   0.585 -0.5441 -0.4585 -0.8818
 8869SOL    HW132570  11.738   1.450   0.518  0.3918  0.1132  0.1314
 8869SOL    HW232571  11.652   1.525   0.618 -0.2986 -0.8126  0.2457
 8870SOL     OW32572  12.326   2.902   4.955  0.1630 -0.1827 -0.1146
 8870SOL    HW132573  12.362   2.830   5.006  2.2371  0.7354 -0.1998
 8870SOL    HW232574  12.297   2.861   4.873 -0.9729 -1.2760  0.8002
 8871SOL     OW32575   9.293   4.477   0.980 -0.8305 -0.1275  0.4321
 8871SOL    HW132576   9.208   4.454   0.942 -0.3510  1.9041 -2.1950
 8871SOL    HW232577   9.355   4.466   0.908  1.0555 -0.7210  2.0437
 8872SOL     OW32578   9.595  12.154   1.533 -0.0931  0.3045 -0.8160
 8872SOL    HW132579   9.633  12.239   1.555 -0.7310  1.1950 -2.9007
 8872SOL    HW232580   9.670  12.093   1.534  0.5843  1.1212 -0.5606
 8873SOL     OW32581   2.363   6.671   8.076  0.1300  0.6212 -0.2480
 8873SOL    HW132582   2.286   6.642   8.126  0.6227  2.3748  1.6662
 8873SOL    HW232583   2.433   6.612   8.104  0.0872  0.7118  0.0530
 8874SOL     OW32584   3.659  10.665   5.026  0.3877 -0.4627 -0.2124
 8874SOL    HW132585   3.691  10.576   5.033 -0.4638 -0.7594  0.1471
 8874SOL    HW232586   3.576  10.664   5.075 -0.2036  0.2348 -1.1693
 8875SOL     OW32587   5.789  11.229  10.711 -0.4407 -0.3236 -0.0369
 8875SOL    HW132588   5.871  11.203  10.752 -1.0165 -1.1211  0.6350
 8875SOL    HW232589   5.737  11.149  10.706 -1.9592  0.4897  1.3877
 8876SOL     OW32590  11.565   0.950   3.087 -0.3952  0.4138  0.1414
 8876SOL    HW132591  11.550   0.896   3.165  0.3440  1.1881  0.8304
 8876SOL    HW232592  11.478   0.968   3.053 -0.7471  0.3922  1.0144
 8877SOL     OW32593   5.561   0.532   0.923  0.0867 -0.1838  0.1246
 8877SOL    HW132594   5.489   0.490   0.877  0.2273  1.9830 -2.3081
 8877SOL    HW232595   5.519   0.579   0.995 -0.7389 -0.2198 -0.3208
 8878SOL     OW32596   6.663  12.013   6.500  0.3404  0.0392  0.2350
 8878SOL    HW132597   6.708  12.097   6.492 -1.8911  1.1154 -4.3846
 8878SOL    HW232598   6.570  12.036   6.510 -0.1362 -1.9304  0.9258
 8879SOL     OW32599   2.212   4.284   5.739 -0.4309  0.0091  0.3001
 8879SOL    HW132600   2.132   4.332   5.759 -0.6865 -0.6420  0.8600
 8879SOL    HW232601   2.185   4.218   5.675  0.7516  3.4416 -4.2886
 8880SOL     OW32602   1.776   5.538  11.670  0.0953  0.0297  0.0633
 8880SOL    HW132603   1.838   5.474  11.705  0.4144  1.6480  2.7269
 8880SOL    HW232604   1.760   5.598  11.742 -2.9399  0.9518 -1.2090
 8881SOL     OW32605   4.837   4.702   7.601 -0.3213 -0.3248 -0.0598
 8881SOL    HW132606   4.814   4.784   7.646 -1.1143 -1.7940  2.4265
 8881SOL    HW232607   4.854   4.640   7.672  1.1635 -2.1158 -1.8620
 8882SOL     OW32608   7.257   4.515   1.022  0.8108  0.0348  0.5967
 8882SOL    HW132609   7.222   4.442   1.073  0.7583 -1.5381 -1.5255
 8882SOL    HW232610   7.183   4.574   1.012 -0.5345 -1.7785 -1.2338
 8883SOL     OW32611   0.241   6.663   7.245  0.1001 -0.0344  0.1449
 8883SOL    HW132612   0.321   6.682   7.195 -1.9001  3.2721 -2.2218
 8883SOL    HW232613   0.183   6.621   7.181 -0.7765 -0.4619  1.1995
 8884SOL     OW32614   1.222   9.728  11.458 -0.5557 -0.8090 -0.2818
 8884SOL    HW132615   1.304   9.778  11.454 -0.7793 -0.4369 -0.2608
 8884SOL    HW232616   1.216   9.684  11.373 -1.4945  1.0220 -1.2222
 8885SOL     OW32617   5.726   4.227   9.307  0.5983 -0.1790 -0.6704
 8885SOL    HW132618   5.652   4.244   9.365  0.0317  1.1252 -1.7256
 8885SOL    HW232619   5.776   4.158   9.350 -0.8020 -0.5136  0.4467
 8886SOL     OW32620  10.665  11.232  11.975  0.0123  0.3779  0.0776
 8886SOL    HW132621  10.693  11.311  12.021 -0.1976  1.0384 -0.9041
 8886SOL    HW232622  10.587  11.202  12.022  0.4964  0.3424  0.8784
 8887SOL     OW32623  12.213  11.337  10.316 -0.5708 -0.3408  0.3121
 8887SOL    HW132624  12.286  11.398  10.320 -2.4434  2.0765  0.1268
 8887SOL    HW232625  12.205  11.315  10.224 -1.4934  1.3494 -0.0616
 8888SOL     OW32626   5.233   9.946   0.982 -0.3996  0.2469  0.0294
 8888SOL    HW132627   5.191   9.874   0.935 -2.5382  1.1078  0.4947
 8888SOL    HW232628   5.287   9.989   0.916 -3.0075  1.1861 -1.6661
 8889SOL     OW32629   6.684   0.416   8.282 -0.1757 -0.6112 -0.2080
 8889SOL    HW132630   6.628   0.494   8.286 -0.7940 -1.0696  0.5387
 8889SOL    HW232631   6.624   0.345   8.263  0.4366 -0.8736 -1.2251
 8890SOL     OW32632   7.395   8.190   8.382 -0.2272 -0.5706  0.4304
 8890SOL    HW132633   7.387   8.095   8.387 -0.1379 -0.5779  0.4450
 8890SOL    HW232634   7.389   8.220   8.473 -1.7437 -0.4368  0.3141
 8891SOL     OW32635   5.894   6.755  12.272  0.1081 -0.7191  0.8667
 8891SOL    HW132636   5.801   6.746  12.291 -0.5799  1.5063 -0.9281
 8891SOL    HW232637   5.917   6.841  12.307  0.5688  0.2442 -1.5840
 8892SOL     OW32638   3.014   8.761   3.191  0.3724 -0.2702  0.1485
 8892SOL    HW132639   2.991   8.830   3.253 -1.8095 -0.8881  0.1167
 8892SOL    HW232640   2.994   8.797   3.105 -0.5440 -0.8250  0.1138
 8893SOL     OW32641   1.296   8.469   0.055 -0.3396  0.5167 -0.1358
 8893SOL    HW132642   1.260   8.533   0.117  1.2367  2.1874 -0.8283
 8893SOL    HW232643   1.370   8.515   0.014  0.8320 -1.7587 -0.7371
 8894SOL     OW32644   1.152  10.866   4.540  0.4805  0.2128  0.5713
 8894SOL    HW132645   1.158  10.883   4.634 -1.6221  0.7681  0.6551
 8894SOL    HW232646   1.119  10.948   4.503 -1.0390 -0.7444 -0.2876
 8895SOL     OW32647   3.905   8.546  11.134  0.4541 -0.3548 -0.2828
 8895SOL    HW132648   3.954   8.483  11.186  0.4333 -0.5896 -0.5439
 8895SOL    HW232649   3.819   8.506  11.122  0.1684  0.0872  0.2330
 8896SOL     OW32650   9.187   5.170   8.309  0.1904  0.1143  0.1464
 8896SOL    HW132651   9.112   5.225   8.333  0.9616  1.8753 -1.2903
 8896SOL    HW232652   9.209   5.195   8.220  1.9458 -1.0075  0.2006
 8897SOL     OW32653   1.697  10.479   4.153  0.1850 -0.5730 -0.1580
 8897SOL    HW132654   1.760  10.508   4.218 -0.1876  0.7780 -0.3876
 8897SOL    HW232655   1.618  10.529   4.170 -0.5914 -1.6772 -0.3749
 8898SOL     OW32656  10.095   8.763   2.715  0.1205 -0.0024 -0.1103
 8898SOL    HW132657  10.166   8.806   2.762 -1.0564 -0.5629  2.3394
 8898SOL    HW232658  10.139   8.714   2.645  1.8654  1.5998 -0.2131
 8899SOL     OW32659   8.960   6.376  12.457 -0.1483  0.0250  0.4681
 8899SOL    HW132660   9.035   6.375  12.516  0.9699 -2.0893 -0.8781
 8899SOL    HW232661   8.975   6.303  12.398 -0.9099  2.3164 -2.8433
 8900SOL     OW32662   5.416   0.319   4.158  0.2736  0.1102 -0.3922
 8900SOL    HW132663   5.362   0.239   4.163  0.3062 -0.0556 -2.0565
 8900SOL    HW232664   5.472   0.305   4.081  0.8336  1.4138 -0.2433
 8901SOL     OW32665   1.286  11.593   0.546  0.4778 -0.1025 -0.0891
 8901SOL    HW132666   1.367  11.544   0.562 -0.7864 -2.0501  0.8340
 8901SOL    HW232667   1.282  11.657   0.617  1.2573  0.1043 -0.2230
 8902SOL     OW32668   2.405   0.880  11.289  0.3052  0.3633  0.2228
 8902SOL    HW132669   2.470   0.831  11.339 -1.2519  0.2415  2.2648
 8902SOL    HW232670   2.432   0.869  11.198  1.4344 -2.2128  0.7602
 8903SOL     OW32671   9.615   6.942   9.352 -0.2878  0.6257  0.0062
 8903SOL    HW132672   9.555   6.992   9.297 -0.7753 -0.2140 -0.2283
 8903SOL    HW232673   9.646   6.871   9.297  0.7860  0.9271  0.1886
 8904SOL     OW32674   3.148   2.804  12.001 -0.1683 -0.0627  0.0235
 8904SOL    HW132675   3.203   2.726  11.998 -0.2831 -0.3821  3.0811
 8904SOL    HW232676   3.156   2.842  11.914  2.2742 -1.8624 -0.6520
 8905SOL     OW32677   5.928   4.212  10.494 -0.2520  0.5517 -0.1952
 8905SOL    HW132678   5.955   4.245  10.408  1.0071 -0.6065 -0.2569
 8905SOL    HW232679   5.915   4.291  10.546  3.2168  1.2626 -0.1716
 8906SOL     OW32680   3.380   0.883   7.447  0.8700 -0.7251 -0.8144
 8906SOL    HW132681   3.351   0.960   7.397 -0.4876  1.6439  3.1515
 8906SOL    HW232682   3.299   0.837   7.468  0.5893  1.2106  3.2139
 8907SOL     OW32683   5.132   1.271  10.059 -0.1485 -0.2052 -0.4688
 8907SOL    HW132684   5.047   1.279  10.015 -0.3752  1.8076  0.2267
 8907SOL    HW232685   5.113   1.223  10.139 -0.0384 -2.3838 -1.6690
 8908SOL     OW32686   0.706   8.391  11.583  0.1452 -0.6430 -0.1601
 8908SOL    HW132687   0.780   8.432  11.629  1.3728 -1.7389 -1.0667
 8908SOL    HW232688   0.664   8.463  11.537  1.8222 -0.2353 -1.1484
 8909SOL     OW32689   3.970   8.169   0.562  0.2527 -0.0734 -0.4108
 8909SOL    HW132690   3.887   8.197   0.522  0.0928 -0.3566 -0.2786
 8909SOL    HW232691   3.987   8.083   0.524 -1.8531 -2.1656  2.8515
 8910SOL     OW32692   7.719   8.434  11.001 -0.5129 -0.5771  0.4630
 8910SOL    HW132693   7.790   8.410  10.941 -1.1542  0.9135 -0.9519
 8910SOL    HW232694   7.640   8.436  10.946 -0.7791  3.1321  0.7250
 8911SOL     OW32695   9.761   4.180   1.320 -0.0968  0.0563  0.0270
 8911SOL    HW132696   9.853   4.193   1.297 -0.2456  1.4015  0.1602
 8911SOL    HW232697   9.739   4.094   1.282  0.9155  0.2024 -0.9319
 8912SOL     OW32698  10.563   6.182   4.919 -0.3783  0.8426  0.0294
 8912SOL    HW132699  10.512   6.105   4.895  2.1032 -1.0538  0.5242
 8912SOL    HW232700  10.539   6.247   4.853 -0.6353 -1.2063 -2.0233
 8913SOL     OW32701   7.979   0.975  10.929 -0.0980 -0.1321 -0.0357
 8913SOL    HW132702   8.067   0.996  10.899  0.3054 -1.1169  0.4135
 8913SOL    HW232703   7.943   0.918  10.862 -1.3514  2.2202 -1.4672
 8914SOL     OW32704  12.492  10.855  10.573 -0.6468  0.9544  0.1481
 8914SOL    HW132705  12.412  10.818  10.537  0.1289  2.3486 -3.3356
 8914SOL    HW232706  12.473  10.948  10.583 -0.1052  0.9537  1.3846
 8915SOL     OW32707   0.536   2.320  10.586 -0.8659 -0.3356  0.1275
 8915SOL    HW132708   0.561   2.229  10.601  1.7067  0.5824  2.1242
 8915SOL    HW232709   0.585   2.346  10.509 -1.0097 -0.4008  0.0120
 8916SOL     OW32710   7.738   5.143   4.617 -0.1381 -0.2568 -0.5266
 8916SOL    HW132711   7.657   5.145   4.567 -0.8724 -1.9659  0.5170
 8916SOL    HW232712   7.743   5.230   4.658 -1.6731 -0.2575 -0.2739
 8917SOL     OW32713  11.443  12.037   6.564  0.3174  0.5102 -0.4810
 8917SOL    HW132714  11.519  12.031   6.504  0.0368 -0.2954 -0.7740
 8917SOL    HW232715  11.370  12.004   6.512 -0.4447  2.2326 -0.5299
 8918SOL     OW32716   8.495   3.235  11.199  0.0010 -0.6529 -0.2806
 8918SOL    HW132717   8.474   3.297  11.269  0.4918  0.7707 -1.3547
 8918SOL    HW232718   8.548   3.168  11.242  2.0121  1.2304  0.4079
 8919SOL     OW32719   0.235   1.426   0.512  0.3546  0.1093  0.0533
 8919SOL    HW132720   0.314   1.479   0.504  0.9457 -0.8910 -1.1488
 8919SOL    HW232721   0.265   1.342   0.547 -0.3173  0.0200  0.4356
 8920SOL     OW32722   6.851   4.022   0.914  0.5507  0.6338 -0.2004
 8920SOL    HW132723   6.865   3.997   0.823 -3.1198  0.4784 -0.8600
 8920SOL    HW232724   6.855   4.118   0.913  0.0146  0.6556 -0.6561
 8921SOL     OW32725   4.771   4.125   9.074  0.2114  0.1660 -0.8688
 8921SOL    HW132726   4.774   4.197   9.011  0.5739 -0.6217 -1.7686
 8921SOL    HW232727   4.845   4.069   9.050  0.9749  0.3661  0.8880
 8922SOL     OW32728   7.477   5.554   5.657 -0.1129 -0.0846  0.1314
 8922SOL    HW132729   7.450   5.547   5.566  2.0109 -0.8920 -0.4847
 8922SOL    HW232730   7.570   5.532   5.657 -0.3010 -1.2722  2.6607
 8923SOL     OW32731  10.040   7.793   4.206  0.1676 -0.3678  0.0985
 8923SOL    HW132732  10.033   7.824   4.116 -1.5779  0.1755  0.4004
 8923SOL    HW232733  10.007   7.703   4.203  2.1686 -1.1426 -0.1721
 8924SOL     OW32734  10.951   1.824  11.020 -0.1254  0.0696 -0.0254
 8924SOL    HW132735  10.974   1.744  10.972 -0.0116  0.0779  0.0143
 8924SOL    HW232736  11.000   1.817  11.102 -0.6625 -0.1575  0.2800
 8925SOL     OW32737  11.106   5.506   3.792 -0.0239 -0.4586  0.4313
 8925SOL    HW132738  11.131   5.598   3.802 -2.0059  0.2235 -0.3804
 8925SOL    HW232739  11.094   5.475   3.881  1.5774 -0.2186  0.7503
 8926SOL     OW32740   1.031   8.584   6.655  0.2687  0.2311  0.0649
 8926SOL    HW132741   1.035   8.560   6.747  2.5140  2.5992  0.6810
 8926SOL    HW232742   0.964   8.653   6.651  0.4834  0.4369  0.0079
 8927SOL     OW32743   5.922   4.412   4.448 -0.1880  0.6633  0.1969
 8927SOL    HW132744   5.993   4.371   4.398  0.6962  1.7160  0.5439
 8927SOL    HW232745   5.896   4.346   4.511 -0.1061 -0.0465 -0.4963
 8928SOL     OW32746   6.512   3.777   9.113  0.0888 -0.1890 -0.1233
 8928SOL    HW132747   6.579   3.738   9.169 -2.0774 -1.5619  1.6568
 8928SOL    HW232748   6.476   3.704   9.064 -0.6366  0.3831 -0.4586
 8929SOL     OW32749   6.570   8.162   3.827 -0.2482 -0.3408 -0.7290
 8929SOL    HW132750   6.556   8.079   3.782  2.2866 -2.4856  2.0078
 8929SOL    HW232751   6.664   8.178   3.817 -0.8793  3.1522 -2.4733
 8930SOL     OW32752   8.070  10.464   4.042  0.3856  0.0953 -0.3662
 8930SOL    HW132753   8.091  10.545   3.996  0.3310  0.1024 -0.3776
 8930SOL    HW232754   7.992  10.431   3.999 -0.2375  0.6024  0.3410
 8931SOL     OW32755   2.852   1.615   2.939  0.4374 -0.2735 -0.2658
 8931SOL    HW132756   2.846   1.602   2.845  0.2870  0.5754 -0.3822
 8931SOL    HW232757   2.925   1.675   2.951  0.2727 -0.1454  0.1305
 8932SOL     OW32758   3.982   2.918   2.089 -0.0072 -0.7986  0.4081
 8932SOL    HW132759   4.059   2.861   2.091  2.3080  2.0808  2.8317
 8932SOL    HW232760   3.947   2.915   2.177 -1.0328  0.0252  0.0488
 8933SOL     OW32761  11.581  10.951  12.107 -0.4647 -0.1132 -0.0244
 8933SOL    HW132762  11.640  10.900  12.163 -1.8721  0.3656  2.0098
 8933SOL    HW232763  11.536  11.010  12.167 -0.5790  1.9254 -1.9836
 8934SOL     OW32764   4.657   9.140   0.583  0.3140 -0.2134  0.1511
 8934SOL    HW132765   4.574   9.147   0.535  1.4968 -0.6191 -2.0982
 8934SOL    HW232766   4.653   9.209   0.649 -1.9927 -0.5446  0.4350
 8935SOL     OW32767  11.092   7.936   6.156  0.2506  0.2349  0.6268
 8935SOL    HW132768  11.001   7.956   6.135  0.7993  1.9654 -0.2389
 8935SOL    HW232769  11.131   8.020   6.179  1.6265 -0.4875  1.0776
 8936SOL     OW32770  10.135  10.495  11.162  0.0658  0.1252  0.4707
 8936SOL    HW132771  10.220  10.539  11.159  0.5754 -0.8857 -0.8874
 8936SOL    HW232772  10.074  10.558  11.124  0.3980  0.4364  0.4477
 8937SOL     OW32773   9.046   6.172  12.322 -0.4602  0.4968  0.2301
 8937SOL    HW132774   9.081   6.119  12.394 -1.9262  0.2551  0.8062
 8937SOL    HW232775   9.012   6.108  12.260 -0.9396  0.7309  0.2491
 8938SOL     OW32776   7.170   7.729   1.549  0.3561  0.1597  0.2947
 8938SOL    HW132777   7.218   7.699   1.472  0.2450  1.6487 -0.3813
 8938SOL    HW232778   7.219   7.806   1.580 -0.2383  0.2569  1.0366
 8939SOL     OW32779   8.829   4.162   0.774  0.0964  0.1176 -0.1626
 8939SOL    HW132780   8.782   4.079   0.765  0.5744 -0.2747  0.7814
 8939SOL    HW232781   8.832   4.198   0.686  0.7934 -1.3705 -0.7764
 8940SOL     OW32782   6.107   3.360   9.459  0.2192 -0.5278  0.0301
 8940SOL    HW132783   6.069   3.354   9.372 -0.0872  0.6157  0.0594
 8940SOL    HW232784   6.197   3.331   9.448  0.0044 -1.0042 -0.5320
 8941SOL     OW32785  12.231   9.518   6.312  0.3543 -0.2978 -0.1310
 8941SOL    HW132786  12.292   9.565   6.368 -2.0908  1.0178  1.6181
 8941SOL    HW232787  12.174   9.587   6.276 -1.7780 -1.6472  0.5104
 8942SOL     OW32788   8.069   5.798   2.102  0.2258 -0.2704 -0.0157
 8942SOL    HW132789   8.080   5.734   2.032  0.5692 -0.1106 -0.1101
 8942SOL    HW232790   8.152   5.796   2.150 -0.1426 -0.6628  0.6276
 8943SOL     OW32791   6.873   6.664   0.734  0.8873 -0.7276  0.2635
 8943SOL    HW132792   6.942   6.674   0.800  1.5709  0.0905 -0.5466
 8943SOL    HW232793   6.795   6.701   0.776  1.7728  1.6926 -0.0849
 8944SOL     OW32794   9.092   0.851   5.384 -0.0647 -0.0606 -0.3484
 8944SOL    HW132795   9.040   0.889   5.454  0.2054 -0.7776  0.2517
 8944SOL    HW232796   9.059   0.762   5.374 -1.3374  0.5747 -2.3903
 8945SOL     OW32797   6.894   0.141   3.800 -0.1936 -0.4775  0.0675
 8945SOL    HW132798   6.910   0.234   3.815 -0.2319 -0.7229  1.8609
 8945SOL    HW232799   6.823   0.119   3.860 -0.6609 -1.5339 -0.8294
 8946SOL     OW32800   9.051  10.243   3.239  0.5865  0.0030 -0.3659
 8946SOL    HW132801   8.967  10.260   3.282 -0.3606 -0.2660 -2.0266
 8946SOL    HW232802   9.043  10.284   3.153  1.4664 -1.5856 -1.2442
 8947SOL     OW32803   0.194   5.102   9.064 -0.5527  0.1824 -0.1173
 8947SOL    HW132804   0.219   5.190   9.092  0.0992  0.0842 -0.3682
 8947SOL    HW232805   0.114   5.083   9.113  1.4923 -0.7030  3.1778
 8948SOL     OW32806   1.916  11.742   9.669  0.0886  1.0329  0.0102
 8948SOL    HW132807   1.963  11.750   9.586  0.8021  0.1929  0.3156
 8948SOL    HW232808   1.835  11.694   9.646  1.1976 -0.9921  0.0843
 8949SOL     OW32809   1.195   8.636   0.248 -0.0945 -0.4186 -0.2598
 8949SOL    HW132810   1.150   8.578   0.310 -2.2298  1.0099 -0.3427
 8949SOL    HW232811   1.244   8.698   0.303 -0.7274 -0.1161 -0.0214
 8950SOL     OW32812   4.065   0.778  11.998 -0.2536  0.4690  0.4061
 8950SOL    HW132813   4.083   0.803  12.089  1.8022  0.0024  0.1798
 8950SOL    HW232814   4.128   0.709  11.980  0.2829  1.4624 -1.7971
 8951SOL     OW32815   1.481   1.274   0.830 -0.0889 -0.7619  0.3002
 8951SOL    HW132816   1.406   1.285   0.771  0.8952 -1.7946 -1.1926
 8951SOL    HW232817   1.504   1.363   0.856 -0.4619 -0.2659 -0.9860
 8952SOL     OW32818   7.222   6.824   9.778 -0.2792  0.2542  0.4710
 8952SOL    HW132819   7.206   6.901   9.833 -1.8277  1.6458 -1.7525
 8952SOL    HW232820   7.253   6.859   9.695 -4.0344 -1.0843 -1.7765
 8953SOL     OW32821   4.526  11.168  11.877  0.0749  0.1249  0.6297
 8953SOL    HW132822   4.588  11.210  11.817  1.4967 -1.8659  0.6041
 8953SOL    HW232823   4.452  11.229  11.882  2.0647  2.6762  0.7830
 8954SOL     OW32824   3.881   5.732   6.473  0.4550 -0.0435  0.1907
 8954SOL    HW132825   3.904   5.696   6.559  0.4728 -2.0927 -0.6042
 8954SOL    HW232826   3.788   5.710   6.463  0.7679 -1.0197 -0.8204
 8955SOL     OW32827   5.623   1.238   7.914 -0.0295 -0.3435 -0.3166
 8955SOL    HW132828   5.608   1.228   7.820  1.3226 -0.9072 -0.4874
 8955SOL    HW232829   5.661   1.154   7.942 -0.2520 -0.1213  0.7059
 8956SOL     OW32830  11.149   7.889   4.283 -0.1024  0.0119  0.9863
 8956SOL    HW132831  11.170   7.828   4.211  0.7252  1.6536 -0.2287
 8956SOL    HW232832  11.060   7.865   4.310 -0.9633  0.1478 -1.4851
 8957SOL     OW32833   7.787  10.270   8.584 -0.3931  0.6287 -0.7949
 8957SOL    HW132834   7.779  10.288   8.678 -0.4278  2.9898 -1.1922
 8957SOL    HW232835   7.870  10.222   8.576  0.1231  1.2957  0.3289
 8958SOL     OW32836   7.414   2.829   9.781  0.2161 -0.0017  0.0507
 8958SOL    HW132837   7.412   2.841   9.876 -0.3435  0.7294 -0.0429
 8958SOL    HW232838   7.338   2.774   9.762 -0.4346  0.9397 -0.1060
 8959SOL     OW32839   6.532   7.746   7.348  0.3206 -0.0729  0.4762
 8959SOL    HW132840   6.548   7.654   7.328 -0.7858  0.0154 -1.0484
 8959SOL    HW232841   6.437   7.755   7.343  0.3926  1.0989  0.8813
 8960SOL     OW32842   4.737   5.839   2.628 -0.4691  0.0258  0.0996
 8960SOL    HW132843   4.702   5.928   2.617 -0.1853  0.0284 -0.8485
 8960SOL    HW232844   4.687   5.786   2.565  0.1821 -0.2575 -0.1850
 8961SOL     OW32845   6.541   4.042   3.121  0.6639  0.7513 -0.4102
 8961SOL    HW132846   6.612   4.044   3.185 -0.3546  0.1266  0.7750
 8961SOL    HW232847   6.569   3.978   3.055  0.6166 -0.5342  0.7779
 8962SOL     OW32848   5.674   3.382   6.636  0.3655 -0.7738  0.6417
 8962SOL    HW132849   5.659   3.464   6.683  2.6362  1.1236 -1.6557
 8962SOL    HW232850   5.604   3.378   6.572  0.7374 -0.1475  0.1888
 8963SOL     OW32851  12.094   5.936   4.788 -0.1705  0.5687  0.2240
 8963SOL    HW132852  12.074   5.961   4.878  0.0338  0.9853  0.1592
 8963SOL    HW232853  12.185   5.963   4.775  0.5062 -1.4225  0.5504
 8964SOL     OW32854  11.871  10.714   0.294 -0.0879 -0.1138  0.5404
 8964SOL    HW132855  11.878  10.632   0.343 -0.9203 -0.7447 -0.3716
 8964SOL    HW232856  11.850  10.687   0.205  1.0292  1.0389 -0.1006
 8965SOL     OW32857   9.530   7.320  11.518 -0.1238  0.1049  0.3462
 8965SOL    HW132858   9.624   7.336  11.516  0.3798 -2.3537  0.5295
 8965SOL    HW232859   9.518   7.240  11.466 -2.4878  1.7540 -1.8696
 8966SOL     OW32860   9.714   2.196   7.527  0.1823 -0.1179  0.1832
 8966SOL    HW132861   9.715   2.141   7.605  1.9601 -0.1312  0.1867
 8966SOL    HW232862   9.797   2.244   7.530  0.5692 -0.5388 -1.9746
 8967SOL     OW32863  10.139   3.431   4.124  0.0837 -0.2425  0.2725
 8967SOL    HW132864  10.090   3.348   4.128 -1.6437  0.7717  1.0227
 8967SOL    HW232865  10.231   3.404   4.131 -0.4546 -2.0540  1.1282
 8968SOL     OW32866   6.331   9.345   0.829 -0.0139 -0.5211 -0.1832
 8968SOL    HW132867   6.340   9.251   0.844 -0.7145 -0.7121 -0.8506
 8968SOL    HW232868   6.418   9.374   0.802  0.6165 -0.6545  1.5758
 8969SOL     OW32869   7.533   2.950  10.810  0.1719  0.4858 -0.0075
 8969SOL    HW132870   7.508   2.983  10.897  1.4540 -0.2765  0.6879
 8969SOL    HW232871   7.598   3.013  10.779 -1.6343  1.8036 -1.2828
 8970SOL     OW32872   0.406   9.451   2.065 -0.5062  0.1453  0.1941
 8970SOL    HW132873   0.440   9.527   2.114 -0.5824  0.4316 -0.1912
 8970SOL    HW232874   0.481   9.419   2.015 -0.1776 -0.7472  1.2333
 8971SOL     OW32875   0.977   6.596   4.922  0.4920 -0.0091  0.2362
 8971SOL    HW132876   0.985   6.508   4.885  0.5854  0.1375 -0.1032
 8971SOL    HW232877   0.947   6.650   4.848 -1.4031 -0.1023  0.8765
 8972SOL     OW32878   5.560   7.283   4.375 -0.6144 -0.1619 -0.3390
 8972SOL    HW132879   5.651   7.253   4.368 -0.2538  1.1299 -1.5586
 8972SOL    HW232880   5.518   7.249   4.295 -1.1482 -0.5391  0.0956
 8973SOL     OW32881   4.571   3.600   6.572  0.2013 -0.0978 -0.0281
 8973SOL    HW132882   4.537   3.620   6.660  0.1786 -2.2593  0.5222
 8973SOL    HW232883   4.659   3.638   6.571  0.7547 -1.2042  1.4940
 8974SOL     OW32884   5.243   0.938   7.983  0.3238  0.5223  0.8330
 8974SOL    HW132885   5.321   0.916   8.034  0.6490  2.1384  1.0831
 8974SOL    HW232886   5.176   0.955   8.050 -0.1817 -0.5536  0.6251
 8975SOL     OW32887   8.869   4.257  10.257 -0.5521  0.3973  0.3997
 8975SOL    HW132888   8.888   4.305  10.338  0.8993 -0.7777  0.8119
 8975SOL    HW232889   8.853   4.325  10.192 -1.7460  1.3720  1.6469
 8976SOL     OW32890   3.350   0.587   5.336  0.1263 -0.5186 -0.2675
 8976SOL    HW132891   3.305   0.507   5.363 -0.7995  0.8200  2.5038
 8976SOL    HW232892   3.327   0.597   5.243 -0.1816 -3.1152 -0.5319
 8977SOL     OW32893   0.352   4.781   1.791  0.0844  0.1716  0.0325
 8977SOL    HW132894   0.337   4.873   1.770 -2.8461 -0.6503 -2.3376
 8977SOL    HW232895   0.428   4.756   1.737 -0.8527  0.6205 -1.5754
 8978SOL     OW32896   0.746   2.859   5.848 -0.3983 -0.5216  0.1135
 8978SOL    HW132897   0.820   2.838   5.905 -0.1907 -0.2436 -0.0490
 8978SOL    HW232898   0.705   2.775   5.829 -0.2129 -0.6607  0.3278
 8979SOL     OW32899  12.354   4.452   0.884 -0.4773  0.0412  0.1540
 8979SOL    HW132900  12.426   4.445   0.822  0.7738 -1.2544  1.6534
 8979SOL    HW232901  12.294   4.382   0.860  0.1840 -0.6930  0.5829
 8980SOL     OW32902   4.614   7.217  10.877 -0.2374 -0.0034  0.0091
 8980SOL    HW132903   4.619   7.307  10.910  2.9964  0.0739 -0.3611
 8980SOL    HW232904   4.571   7.225  10.792  0.4840  1.2728 -0.2636
 8981SOL     OW32905  10.882   6.826   3.687 -0.3739 -0.3592 -0.0154
 8981SOL    HW132906  10.787   6.828   3.702 -0.7018 -1.9459 -1.5903
 8981SOL    HW232907  10.914   6.764   3.753 -0.2369  1.0133  1.2554
 8982SOL     OW32908   1.361   1.079   0.975 -0.0779  0.1506 -0.1271
 8982SOL    HW132909   1.403   1.133   0.907 -0.0090  0.9607  0.5360
 8982SOL    HW232910   1.281   1.127   0.997 -0.3707 -0.3891 -0.0179
 8983SOL     OW32911  10.716   5.795   9.931  0.2125  0.5703  0.0263
 8983SOL    HW132912  10.763   5.876   9.951  0.4248  0.4314  0.0876
 8983SOL    HW232913  10.630   5.806   9.973 -0.0597  1.0990 -0.6358
 8984SOL     OW32914   2.644   8.469  10.526  0.1762  0.3779  0.3473
 8984SOL    HW132915   2.695   8.391  10.505  1.2434  0.3635  2.7478
 8984SOL    HW232916   2.571   8.437  10.579 -1.5420  0.6190 -1.6859
 8985SOL     OW32917   0.323   0.603   0.040 -0.0787  0.1919  0.3172
 8985SOL    HW132918   0.406   0.562   0.015 -0.3429 -0.1560 -0.0145
 8985SOL    HW232919   0.348   0.687   0.077  0.5222 -0.5081  1.5879
 8986SOL     OW32920   6.145  11.260   8.585  0.1353  0.5141  0.0845
 8986SOL    HW132921   6.116  11.169   8.590  0.9135 -0.0293 -2.8212
 8986SOL    HW232922   6.095  11.306   8.651 -0.3702 -1.9994  1.5685
 8987SOL     OW32923   2.378   2.195   6.400  0.0160 -0.0089 -0.5236
 8987SOL    HW132924   2.287   2.189   6.368  0.0930  0.6137 -0.8816
 8987SOL    HW232925   2.406   2.104   6.409 -1.5066 -0.2945  2.1337
 8988SOL     OW32926   9.368   9.721  10.683  0.6800 -0.3142  0.4327
 8988SOL    HW132927   9.285   9.672  10.686 -0.5460  1.6357  0.3390
 8988SOL    HW232928   9.386   9.744  10.774  0.2196  0.6430  0.2950
 8989SOL     OW32929   0.100   2.113   1.758 -0.1800  0.1053 -0.0003
 8989SOL    HW132930   0.162   2.134   1.688 -1.2753  0.2319 -0.9517
 8989SOL    HW232931   0.024   2.168   1.741 -0.6632 -0.2266  1.0086
 8990SOL     OW32932   5.099   0.397   0.592  0.5016 -0.0238  0.4315
 8990SOL    HW132933   5.098   0.341   0.514  0.0888 -1.4992  1.4573
 8990SOL    HW232934   5.191   0.399   0.619  0.5175 -0.2068  0.3924
 8991SOL     OW32935   8.697   2.033   3.658  0.5565  0.2911 -0.2625
 8991SOL    HW132936   8.668   1.942   3.659  1.5374 -0.0380  0.3883
 8991SOL    HW232937   8.677   2.064   3.570 -0.0515 -0.4672 -0.4035
 8992SOL     OW32938   1.522   3.794  10.684 -0.3929  0.1191  0.5488
 8992SOL    HW132939   1.558   3.822  10.768 -1.1908  0.9904  0.6125
 8992SOL    HW232940   1.538   3.699  10.682  3.9581  0.6340 -0.4293
 8993SOL     OW32941   8.861   4.452   6.020 -0.6009  0.1333 -0.2347
 8993SOL    HW132942   8.849   4.546   6.004 -2.3653  0.2224  1.2511
 8993SOL    HW232943   8.842   4.411   5.935  1.0427  1.1171 -1.1367
 8994SOL     OW32944   7.184   5.527   2.235 -0.0311  0.5568 -0.6644
 8994SOL    HW132945   7.250   5.597   2.231 -0.3567  0.8876 -0.3156
 8994SOL    HW232946   7.102   5.573   2.254 -0.4310  0.1842 -1.4526
 8995SOL     OW32947   6.523  11.967  11.239 -0.5941 -0.4735 -0.0908
 8995SOL    HW132948   6.518  11.887  11.187 -1.2054 -0.2178 -0.4425
 8995SOL    HW232949   6.597  12.015  11.202 -1.3337 -0.0595 -1.0869
 8996SOL     OW32950   3.947   4.560   9.392  0.5973  0.2618  0.2284
 8996SOL    HW132951   4.005   4.549   9.468  0.1518  0.2930  0.5784
 8996SOL    HW232952   3.987   4.506   9.324  1.1583  0.4575  0.3961
 8997SOL     OW32953   8.731   2.975  10.059  0.2865 -0.0777  0.2199
 8997SOL    HW132954   8.762   2.942   9.975 -1.4302 -2.4476  0.4109
 8997SOL    HW232955   8.639   2.998  10.043 -0.2068 -1.0284  1.5120
 8998SOL     OW32956   9.063   5.080   7.670 -0.2671 -0.0746  0.2543
 8998SOL    HW132957   8.993   5.141   7.693 -0.4346 -0.0662 -0.2613
 8998SOL    HW232958   9.115   5.126   7.604 -0.3167 -0.4352 -0.0416
 8999SOL     OW32959   6.488  11.732  10.824 -0.1625  0.3075  0.0564
 8999SOL    HW132960   6.566  11.692  10.784  0.7747  1.4230  0.6760
 8999SOL    HW232961   6.473  11.811  10.771 -1.1690 -0.1229 -0.3296
 9000SOL     OW32962   4.691   2.066   5.944 -0.3211  0.2655 -0.4063
 9000SOL    HW132963   4.741   2.147   5.931  0.5419 -0.3472 -1.0673
 9000SOL    HW232964   4.611   2.078   5.894  0.8132 -0.1512 -2.4280
 9001SOL     OW32965  11.420   1.097   1.633  0.0979 -0.2304  0.0964
 9001SOL    HW132966  11.476   1.150   1.691 -1.3954  1.0281  0.4773
 9001SOL    HW232967  11.345   1.073   1.688 -1.0340  0.4280 -1.0885
 9002SOL     OW32968   9.288   7.554   6.225  0.0230 -0.5063  0.4117
 9002SOL    HW132969   9.285   7.607   6.145  0.6462 -0.8223  0.1631
 9002SOL    HW232970   9.377   7.518   6.226 -0.4031 -1.6097  0.5308
 9003SOL     OW32971   0.336  11.197   2.763  0.8324 -0.0702  0.1776
 9003SOL    HW132972   0.306  11.250   2.836 -0.8332 -0.9454  0.1801
 9003SOL    HW232973   0.380  11.259   2.705  0.4012  1.0074  0.9622
 9004SOL     OW32974   6.985   6.766   2.269  0.7855 -0.0301  0.2497
 9004SOL    HW132975   6.907   6.720   2.299  0.2299 -0.4661 -1.7087
 9004SOL    HW232976   7.010   6.822   2.343 -2.2994  1.3157  0.4319
 9005SOL     OW32977   1.579   4.649   6.208 -0.1205 -0.3676 -0.3177
 9005SOL    HW132978   1.609   4.559   6.214  1.1246  0.1041  0.9781
 9005SOL    HW232979   1.638   4.699   6.264 -1.6439  1.0487  0.1275
 9006SOL     OW32980   3.318   1.527   3.059  0.1162  0.2924  0.0815
 9006SOL    HW132981   3.254   1.461   3.034  1.3402 -0.9783  0.1911
 9006SOL    HW232982   3.320   1.588   2.985  1.6053 -1.8371 -1.7771
 9007SOL     OW32983   4.785   2.572   1.983  0.0751  0.1637  0.2281
 9007SOL    HW132984   4.851   2.551   1.916 -1.5364  0.4872 -1.5303
 9007SOL    HW232985   4.814   2.657   2.018  0.6983  0.2115 -0.3685
 9008SOL     OW32986   7.322   1.379   4.062 -0.0934  0.5923  0.0653
 9008SOL    HW132987   7.268   1.390   4.140 -1.2964 -0.9925 -0.4794
 9008SOL    HW232988   7.259   1.362   3.992  0.9893  1.4806 -1.1698
 9009SOL     OW32989   7.545   7.008   9.358 -0.1929  0.1214  0.2960
 9009SOL    HW132990   7.587   7.089   9.387  0.6291 -0.4252  0.6742
 9009SOL    HW232991   7.452   7.021   9.376 -0.0925  1.0278  0.2298
 9010SOL     OW32992   2.216   1.688   1.510  0.1477 -0.0316 -0.0113
 9010SOL    HW132993   2.208   1.720   1.421  0.6612  0.4524  0.1055
 9010SOL    HW232994   2.280   1.617   1.505 -1.8371 -1.9038 -0.4633
 9011SOL     OW32995   5.496   8.516  11.765 -0.0178  0.2458  0.3408
 9011SOL    HW132996   5.443   8.594  11.781 -1.8529 -0.6376 -1.0652
 9011SOL    HW232997   5.461   8.451  11.825 -0.7206 -0.4046 -0.7428
 9012SOL     OW32998   9.722   5.652   3.920 -0.1309  0.1509  0.1284
 9012SOL    HW132999   9.781   5.690   3.986  0.5608  1.1192 -1.0021
 9012SOL    HW233000   9.669   5.726   3.890  1.1715  0.3154 -2.0420
 9013SOL     OW33001   3.852   7.227   3.887  0.3355 -0.0129  0.4344
 9013SOL    HW133002   3.908   7.230   3.810  0.3171 -1.1300  0.3578
 9013SOL    HW233003   3.875   7.145   3.930  0.8223  0.9027  1.9978
 9014SOL     OW33004   2.060   0.554  10.922  0.1393 -0.0630 -0.5446
 9014SOL    HW133005   2.013   0.637  10.917  0.0057 -0.0942  0.0615
 9014SOL    HW233006   2.136   0.572  10.978  1.2601  0.1661 -2.0823
 9015SOL     OW33007  10.279   2.097   7.419 -0.3879 -0.1724  0.1512
 9015SOL    HW133008  10.295   2.032   7.349 -1.7644  0.0904 -0.4424
 9015SOL    HW233009  10.224   2.164   7.377 -1.4721 -0.1416  1.5437
 9016SOL     OW33010  10.301   7.443   2.752 -0.1827 -0.4387  0.9868
 9016SOL    HW133011  10.391   7.417   2.736 -0.7727 -1.0079 -2.0136
 9016SOL    HW233012  10.256   7.363   2.775 -1.0077 -1.5540 -3.5073
 9017SOL     OW33013   6.199  12.356   0.380  0.5068 -0.1898  0.5075
 9017SOL    HW133014   6.108  12.324   0.378 -0.2683  1.7931  0.9001
 9017SOL    HW233015   6.219  12.378   0.289  1.5900 -2.9858 -0.0352
 9018SOL     OW33016   8.001   5.863   5.607 -0.3139 -0.0980 -0.5202
 9018SOL    HW133017   8.085   5.817   5.603 -1.2550 -1.8540 -2.1883
 9018SOL    HW233018   8.024   5.953   5.628  2.1723 -0.1332 -2.5619
 9019SOL     OW33019   2.709   1.670  10.239  0.0733  0.1925 -0.2874
 9019SOL    HW133020   2.749   1.686  10.325 -2.1581  2.1194  0.5163
 9019SOL    HW233021   2.771   1.708  10.177  1.8267 -1.4015  0.3847
 9020SOL     OW33022   4.195   3.423  11.695  0.5586 -0.4135  0.1194
 9020SOL    HW133023   4.102   3.420  11.669  0.5672 -0.3813  0.0867
 9020SOL    HW233024   4.195   3.467  11.780  0.5075 -0.7137  0.2777
 9021SOL     OW33025   7.915   0.471   6.383 -0.5442 -0.0227  0.0002
 9021SOL    HW133026   7.955   0.554   6.356  0.8821 -0.4897  0.6055
 9021SOL    HW233027   7.989   0.413   6.400 -1.5242 -1.7024 -1.1983
 9022SOL     OW33028  10.120  12.293   8.385 -0.4925 -0.5058  0.1044
 9022SOL    HW133029  10.204  12.295   8.431  0.5220 -1.0531 -1.6427
 9022SOL    HW233030  10.143  12.289   8.292 -2.4696  0.4844 -0.4822
 9023SOL     OW33031   3.341  11.296   0.424 -0.2062  0.1751 -0.3918
 9023SOL    HW133032   3.353  11.329   0.513  1.7562 -1.1396 -0.0916
 9023SOL    HW233033   3.278  11.225   0.433  0.3005 -0.2365  0.0646
 9024SOL     OW33034   3.602  12.045   7.979  0.5720 -0.0200  0.4498
 9024SOL    HW133035   3.515  12.009   7.963  0.9421 -0.5667 -0.3712
 9024SOL    HW233036   3.609  12.049   8.075 -0.2531 -0.2204  0.5216
 9025SOL     OW33037   2.207   9.298   4.892 -0.0520  0.4214  0.2771
 9025SOL    HW133038   2.271   9.368   4.901 -0.2702  0.6733 -0.1129
 9025SOL    HW233039   2.123   9.340   4.909 -0.5445  1.0155 -3.0065
 9026SOL     OW33040   9.575   0.252  12.019  0.1551 -0.1488  0.0231
 9026SOL    HW133041   9.650   0.309  12.002  1.6702 -2.2244 -0.8537
 9026SOL    HW233042   9.580   0.233  12.112 -1.2842  2.2589  0.6565
 9027SOL     OW33043  11.894  12.421   0.960  0.6885  0.3773 -0.6796
 9027SOL    HW133044  11.851  12.506   0.964  0.3936  0.2791 -1.5415
 9027SOL    HW233045  11.855  12.378   0.883 -0.5288 -1.2641  0.7772
 9028SOL     OW33046   1.533   3.263  10.033  0.1198  0.1558  0.2561
 9028SOL    HW133047   1.620   3.263  10.075  0.1957  0.3129  0.1025
 9028SOL    HW233048   1.542   3.202   9.960 -0.2743 -0.7931  0.9935
 9029SOL     OW33049   7.709  11.844   8.879  0.2142 -0.1586 -0.7493
 9029SOL    HW133050   7.697  11.909   8.810  0.1608 -0.3844 -0.9562
 9029SOL    HW233051   7.790  11.798   8.855  1.1516  0.9082  0.2740
 9030SOL     OW33052  11.901   5.663   9.686 -0.0483 -0.1225 -0.6422
 9030SOL    HW133053  11.925   5.640   9.775 -1.5363 -0.7444 -0.3695
 9030SOL    HW233054  11.901   5.580   9.638 -0.3845  0.0441 -0.9362
 9031SOL     OW33055   0.361   0.818   2.253 -0.0935  0.5158 -0.3106
 9031SOL    HW133056   0.391   0.742   2.203  0.7955  2.2579 -2.6242
 9031SOL    HW233057   0.268   0.802   2.266  0.2367 -1.3517  0.0255
 9032SOL     OW33058   1.710   3.496   5.817  0.4219 -0.4789 -0.1107
 9032SOL    HW133059   1.798   3.522   5.789  0.4922 -1.0867 -0.4641
 9032SOL    HW233060   1.715   3.402   5.831 -0.0685 -0.4520  0.2698
 9033SOL     OW33061   9.151   0.645  12.296  0.6880  0.2598  0.3144
 9033SOL    HW133062   9.058   0.664  12.278  0.1916 -1.7438  0.5628
 9033SOL    HW233063   9.198   0.717  12.254 -0.8205 -0.1728 -2.3626
 9034SOL     OW33064  11.854   1.398   8.669  0.0651  0.4048 -0.1411
 9034SOL    HW133065  11.865   1.410   8.575 -0.1005 -0.5624 -0.2924
 9034SOL    HW233066  11.926   1.341   8.694 -0.8981 -0.7793 -0.0054
 9035SOL     OW33067   3.039   8.169   9.203  0.0495  0.3308 -0.2945
 9035SOL    HW133068   3.056   8.080   9.234 -0.3935  1.2335  2.9037
 9035SOL    HW233069   2.946   8.183   9.222  0.0208  1.3532 -1.1225
 9036SOL     OW33070   3.989   5.292   1.680  0.7136  0.3758  0.5541
 9036SOL    HW133071   4.007   5.264   1.590  0.1646  0.8915  0.2752
 9036SOL    HW233072   4.039   5.232   1.734  2.5424  1.1860 -0.1540
 9037SOL     OW33073  10.327   9.403   4.887  0.4900 -0.0536 -0.9223
 9037SOL    HW133074  10.408   9.451   4.873  0.6523 -0.1550 -0.3651
 9037SOL    HW233075  10.294   9.436   4.971 -0.5597  0.7133 -1.6032
 9038SOL     OW33076   0.550  12.416   5.904 -0.5685  0.2446 -0.4336
 9038SOL    HW133077   0.637  12.409   5.865 -1.3816 -2.6352 -2.0151
 9038SOL    HW233078   0.504  12.480   5.850  0.4586  1.6080  0.2713
 9039SOL     OW33079   3.903   8.954   0.340 -0.9480  0.4005  0.0825
 9039SOL    HW133080   3.847   9.031   0.327  0.2365  1.7461  2.3630
 9039SOL    HW233081   3.848   8.892   0.386 -1.4821  0.4271 -0.4971
 9040SOL     OW33082  12.477   6.027  12.187  0.2992  0.3666  0.3827
 9040SOL    HW133083  12.403   6.011  12.246  0.0983 -0.0044  0.0383
 9040SOL    HW233084  12.529   5.947  12.192 -0.3060 -0.1188 -0.7792
 9041SOL     OW33085   5.248   6.093   4.873  0.5410  0.6902 -0.0458
 9041SOL    HW133086   5.215   6.173   4.832 -0.7667  0.4498  0.5109
 9041SOL    HW233087   5.324   6.122   4.924 -0.4458  1.7283  0.8621
 9042SOL     OW33088   9.378   0.722   1.296  0.4803  0.2438  0.1070
 9042SOL    HW133089   9.443   0.663   1.259  2.1364  2.9218 -1.5624
 9042SOL    HW233090   9.297   0.702   1.249  1.1980 -0.1883 -0.9678
 9043SOL     OW33091  12.291   1.452  11.563 -0.2846 -0.0977  0.0242
 9043SOL    HW133092  12.359   1.500  11.612  0.1244  0.7384 -1.3122
 9043SOL    HW233093  12.233   1.418  11.631  1.5105 -0.9275  1.2233
 9044SOL     OW33094  10.303   4.667   0.504 -0.1270 -0.1425 -0.5819
 9044SOL    HW133095  10.216   4.707   0.498 -0.0417  0.2945  0.8010
 9044SOL    HW233096  10.286   4.576   0.528 -0.2188 -0.2995 -1.2076
 9045SOL     OW33097   9.769   5.215   4.363 -0.0223 -0.4943 -0.0134
 9045SOL    HW133098   9.819   5.141   4.398 -0.6590 -1.4187 -1.0250
 9045SOL    HW233099   9.806   5.231   4.277 -0.4654 -0.1890 -0.1515
 9046SOL     OW33100   9.250  10.121   1.473 -0.2695  0.3586 -0.1365
 9046SOL    HW133101   9.196  10.057   1.520  0.0006  1.2368  1.4711
 9046SOL    HW233102   9.254  10.088   1.384 -2.8900 -0.1240 -0.1716
 9047SOL     OW33103   0.162   2.969  11.671 -0.3176  0.0386 -0.1341
 9047SOL    HW133104   0.069   2.946  11.671 -0.4932  0.7299 -0.9487
 9047SOL    HW233105   0.200   2.915  11.602 -0.8072  2.3357 -2.3602
 9048SOL     OW33106   2.755   1.442   0.246  0.7790  0.2832  0.2183
 9048SOL    HW133107   2.808   1.367   0.274 -0.3018 -0.5455  0.1208
 9048SOL    HW233108   2.803   1.478   0.171  1.5497 -0.0267  0.5506
 9049SOL     OW33109   6.848   2.549   1.785 -0.0256  0.1177  0.1837
 9049SOL    HW133110   6.756   2.556   1.762  0.1349  0.0545 -0.4953
 9049SOL    HW233111   6.872   2.459   1.761  0.1553  0.0561  0.5790
 9050SOL     OW33112   5.418   0.695  11.296 -0.2604  0.4343 -0.0451
 9050SOL    HW133113   5.365   0.773  11.280 -1.3684 -0.1745  0.4903
 9050SOL    HW233114   5.428   0.655  11.210 -0.5768  0.6227 -0.1726
 9051SOL     OW33115  11.941   2.827   1.972  0.5053 -0.0445 -0.3401
 9051SOL    HW133116  11.902   2.868   1.895 -1.3480 -2.5360 -0.8456
 9051SOL    HW233117  11.874   2.838   2.041  2.2835  2.4903  1.1720
 9052SOL     OW33118   8.088   1.207   7.316  0.1900 -0.4451 -0.3727
 9052SOL    HW133119   8.125   1.183   7.401  2.8399  1.6074 -0.7864
 9052SOL    HW233120   8.091   1.127   7.264 -3.6379 -2.3928  1.9499
 9053SOL     OW33121   6.997   7.400  10.115  0.4959  0.2153  0.1060
 9053SOL    HW133122   6.985   7.342  10.190  1.4830  0.5905  0.5723
 9053SOL    HW233123   7.048   7.349  10.053  1.2893  0.5372  0.4801
 9054SOL     OW33124   4.818  11.398   5.546  0.9435  0.4508 -0.3753
 9054SOL    HW133125   4.886  11.433   5.489  0.7002 -0.5683 -1.3202
 9054SOL    HW233126   4.736  11.418   5.502  0.7473 -0.2934 -0.3609
 9055SOL     OW33127   4.673   0.568   5.741  0.0396  0.1732  0.3079
 9055SOL    HW133128   4.707   0.605   5.660  0.3417  0.5169  0.5876
 9055SOL    HW233129   4.617   0.636   5.777 -2.0622 -0.8719 -0.8124
 9056SOL     OW33130   7.498   0.010   9.869  0.2598 -0.2016 -0.5264
 9056SOL    HW133131   7.427   0.067   9.897 -0.0549 -0.5564 -0.5929
 9056SOL    HW233132   7.545   0.061   9.803 -0.3479 -0.2216 -0.9850
 9057SOL     OW33133  11.415   0.114   3.615  0.9087  0.0800  0.4615
 9057SOL    HW133134  11.429   0.183   3.679 -0.8892  0.7745  0.1666
 9057SOL    HW233135  11.330   0.134   3.575  1.4918 -0.8871 -1.4286
 9058SOL     OW33136   2.293   8.291   4.631 -0.2461 -0.1731  0.5835
 9058SOL    HW133137   2.382   8.278   4.600 -0.0309  0.6192  0.8446
 9058SOL    HW233138   2.292   8.253   4.719  0.0753  0.5479  0.9107
 9059SOL     OW33139   0.220  11.721  11.551  0.2394  0.2009 -0.2072
 9059SOL    HW133140   0.233  11.644  11.494  0.1952  0.6965 -0.9000
 9059SOL    HW233141   0.264  11.698  11.633 -1.7156 -1.4898  0.4453
 9060SOL     OW33142   8.260   3.812   0.912  0.0874 -0.3232  0.6090
 9060SOL    HW133143   8.333   3.847   0.963 -0.2699  0.5036  0.5775
 9060SOL    HW233144   8.278   3.839   0.822 -0.7364  0.7611  0.7443
 9061SOL     OW33145   7.889   9.774   7.008  0.2535  0.1722  0.0802
 9061SOL    HW133146   7.963   9.829   7.033  1.2126 -0.0009 -2.1650
 9061SOL    HW233147   7.870   9.799   6.918 -1.4186 -0.9146  0.0865
 9062SOL     OW33148   5.221   8.086   1.537  0.6158  0.9859  0.2662
 9062SOL    HW133149   5.290   8.027   1.507 -1.1899 -1.5933  0.8374
 9062SOL    HW233150   5.175   8.111   1.457  1.0610  1.2055  0.0739
 9063SOL     OW33151   8.786   2.958  10.735 -0.4473  0.1623 -0.6291
 9063SOL    HW133152   8.768   3.036  10.787 -1.0407  0.8517 -1.8232
 9063SOL    HW233153   8.826   2.991  10.654  0.2302 -0.8601 -0.7374
 9064SOL     OW33154  10.332   5.390   2.980 -0.1125 -0.2904  0.1462
 9064SOL    HW133155  10.421   5.358   2.967 -0.2564 -1.1233  1.0249
 9064SOL    HW233156  10.295   5.396   2.892  0.1308 -2.0230 -0.1229
 9065SOL     OW33157   8.751   1.621  10.271  0.0291  0.1959 -0.2979
 9065SOL    HW133158   8.694   1.554  10.232 -1.0541  1.7254 -1.4952
 9065SOL    HW233159   8.790   1.665  10.195  0.0003  1.4910  0.4210
 9066SOL     OW33160   5.725   8.162   6.733 -0.3691  0.3362 -0.1621
 9066SOL    HW133161   5.693   8.155   6.823 -1.9695 -2.2015 -0.8268
 9066SOL    HW233162   5.675   8.234   6.695 -0.5515  0.6421  0.6257
 9067SOL     OW33163   0.709   2.183  11.273 -0.6096  0.1117  0.4058
 9067SOL    HW133164   0.764   2.107  11.291  1.6920  1.5147 -0.3955
 9067SOL    HW233165   0.636   2.147  11.221  0.5275 -1.5232 -0.1458
 9068SOL     OW33166   9.381  10.824  10.943  0.2728  0.7583  0.2334
 9068SOL    HW133167   9.300  10.875  10.948 -0.3923 -0.2965  0.4684
 9068SOL    HW233168   9.362  10.754  10.881  1.0421  0.5651  0.2082
 9069SOL     OW33169   5.248   9.244   9.200 -0.0448 -0.0251 -0.0786
 9069SOL    HW133170   5.223   9.158   9.166 -1.9276 -0.0854  1.2960
 9069SOL    HW233171   5.300   9.225   9.278  1.4323  0.1215 -0.9877
 9070SOL     OW33172   7.526  11.288   9.338  0.6793 -0.7310  0.8178
 9070SOL    HW133173   7.573  11.256   9.415  1.4723  0.2436  0.7502
 9070SOL    HW233174   7.571  11.248   9.264  1.0470 -0.2648  0.7830
 9071SOL     OW33175   7.982   4.439  10.466 -0.0285  0.1154  0.7167
 9071SOL    HW133176   7.919   4.503  10.434  1.4085  0.6990 -1.1637
 9071SOL    HW233177   7.930   4.363  10.490 -1.4697  0.6578 -0.5361
 9072SOL     OW33178   1.343   2.830   7.705 -0.4137  0.2471  0.2674
 9072SOL    HW133179   1.364   2.777   7.783  2.5661 -0.3311 -0.8023
 9072SOL    HW233180   1.322   2.766   7.637  0.2242  0.5669 -0.2422
 9073SOL     OW33181   5.766   7.375  11.939 -0.1709 -0.5803  0.1103
 9073SOL    HW133182   5.744   7.290  11.976  0.2797 -1.0386 -0.6526
 9073SOL    HW233183   5.846   7.360  11.890  0.3138  0.4549  0.5591
 9074SOL     OW33184   6.322   0.364   5.989 -0.0224  0.0790 -0.0836
 9074SOL    HW133185   6.326   0.460   5.989  0.5405  0.1985  3.7345
 9074SOL    HW233186   6.285   0.342   6.074  1.7582 -3.1435 -0.0159
 9075SOL     OW33187   8.650   0.918   0.520  0.3934 -0.2871  0.0275
 9075SOL    HW133188   8.705   0.958   0.587  0.2984  2.0133 -1.1504
 9075SOL    HW233189   8.562   0.920   0.558  0.4918  0.0207  0.2450
 9076SOL     OW33190   6.990   3.007   2.984  0.1149 -0.2860 -0.7994
 9076SOL    HW133191   7.036   2.942   3.037  0.6010  0.9585  0.3441
 9076SOL    HW233192   6.898   2.978   2.985  0.3665 -1.1123 -0.5787
 9077SOL     OW33193   5.512  11.277   3.537 -0.0861 -0.8568  0.1275
 9077SOL    HW133194   5.493  11.243   3.450 -1.7626 -1.3182  0.6369
 9077SOL    HW233195   5.440  11.336   3.557  0.3560 -0.6321  1.1330
 9078SOL     OW33196   5.046   8.020  12.192 -0.6158  0.1589 -0.0889
 9078SOL    HW133197   5.011   8.086  12.132 -0.2075  0.0278 -0.4704
 9078SOL    HW233198   4.981   7.951  12.192  0.0738 -0.5418 -1.5657
 9079SOL     OW33199  12.281   2.110  12.223  0.1539 -0.7552  0.5120
 9079SOL    HW133200  12.297   2.051  12.297 -1.0009  0.3714  1.6971
 9079SOL    HW233201  12.211   2.067  12.173  1.5236 -1.9529 -0.4859
 9080SOL     OW33202   4.809   6.586  11.626 -0.2815  0.2446  0.8511
 9080SOL    HW133203   4.850   6.604  11.541 -0.6469 -1.0805  0.3633
 9080SOL    HW233204   4.717   6.609  11.613 -0.5127 -0.7686  0.5933
 9081SOL     OW33205   0.352  11.602   4.931 -0.3055  0.0619  0.0991
 9081SOL    HW133206   0.359  11.507   4.934  0.6547  0.1245  0.2131
 9081SOL    HW233207   0.359  11.629   5.023 -0.6801  0.2314  0.0763
 9082SOL     OW33208   3.580   4.106   6.629  0.7970 -0.2848 -0.1650
 9082SOL    HW133209   3.588   4.169   6.557 -1.4733  0.2864 -0.0052
 9082SOL    HW233210   3.649   4.042   6.613  2.0682  1.2930 -1.3164
 9083SOL     OW33211   4.380   2.727   5.905 -0.2282 -0.3295 -0.1992
 9083SOL    HW133212   4.345   2.652   5.858  0.7567 -1.8960  1.4302
 9083SOL    HW233213   4.312   2.750   5.968 -0.5381  0.1816 -0.7114
 9084SOL     OW33214   4.661   8.687   3.984  0.0695  0.1784 -0.3218
 9084SOL    HW133215   4.714   8.624   4.032  0.1454  0.1839 -0.3990
 9084SOL    HW233216   4.724   8.738   3.932 -0.0734 -0.2800 -0.9525
 9085SOL     OW33217   7.956  10.543   6.051 -0.3011  0.3374 -0.3142
 9085SOL    HW133218   7.948  10.634   6.025  0.8608  0.3200 -0.7688
 9085SOL    HW233219   8.037  10.513   6.011  0.8979 -0.0848  2.1940
 9086SOL     OW33220   2.432   5.178  12.492  0.4947  0.0726  0.1408
 9086SOL    HW133221   2.427   5.203  12.400 -0.2547  1.4379  0.5299
 9086SOL    HW233222   2.344   5.144  12.512  0.8514 -0.8593  0.1994
 9087SOL     OW33223  10.253   2.877  11.547 -0.2073  0.1285  0.1367
 9087SOL    HW133224  10.284   2.894  11.458 -0.7446  3.2643  0.4363
 9087SOL    HW233225  10.159   2.863  11.536 -0.6115  2.3128  0.2779
 9088SOL     OW33226   5.716  11.571   4.794 -0.5726  0.7718 -0.2600
 9088SOL    HW133227   5.624  11.558   4.770 -0.6678  1.5847 -0.3835
 9088SOL    HW233228   5.730  11.665   4.781 -0.4410  1.1690  2.2548
 9089SOL     OW33229  12.154  10.700   9.266 -0.4220  0.0805 -0.0757
 9089SOL    HW133230  12.213  10.759   9.220 -0.5430  0.8767  0.7644
 9089SOL    HW233231  12.190  10.613   9.251  0.7500  0.5164  0.1077
 9090SOL     OW33232   7.229  12.096   0.698 -0.0417 -0.4821 -0.6171
 9090SOL    HW133233   7.199  12.014   0.737 -0.3611 -0.2823 -0.4294
 9090SOL    HW233234   7.284  12.070   0.625  0.8132 -0.8705  0.1458
 9091SOL     OW33235   0.226   0.125   2.763  0.6790 -0.2451 -0.1865
 9091SOL    HW133236   0.131   0.123   2.768  0.4999  1.3193 -2.0486
 9091SOL    HW233237   0.252   0.033   2.753 -0.2414 -1.2352  4.1913
 9092SOL     OW33238  10.632   0.957  10.156  0.6927 -0.4111  0.0045
 9092SOL    HW133239  10.675   1.027  10.205 -0.5592 -0.2793  0.9619
 9092SOL    HW233240  10.608   0.997  10.073  0.4013  0.1716  0.3637
 9093SOL     OW33241  11.874   3.886   2.612 -0.2976  0.3097  0.2900
 9093SOL    HW133242  11.849   3.842   2.530 -0.6497 -0.0224  0.5695
 9093SOL    HW233243  11.931   3.823   2.656 -0.9669  0.0252  0.7853
 9094SOL     OW33244   2.625   6.763   5.213 -1.0673 -1.1630  0.0422
 9094SOL    HW133245   2.677   6.716   5.148 -0.8945 -1.6096  0.4965
 9094SOL    HW233246   2.535   6.736   5.196 -0.8890 -2.2931  0.8043
 9095SOL     OW33247   5.570   1.103   8.250 -0.4333 -0.3951  0.5929
 9095SOL    HW133248   5.574   1.103   8.154 -1.7404 -0.7126  0.5168
 9095SOL    HW233249   5.479   1.081   8.270 -0.5061  0.9063  1.8939
 9096SOL     OW33250   5.886   4.559   5.011 -0.2796 -0.1396  0.3815
 9096SOL    HW133251   5.975   4.530   5.031  0.4742  0.0860 -2.3174
 9096SOL    HW233252   5.895   4.650   4.984 -1.8502  0.9664  3.1236
 9097SOL     OW33253   9.709  11.420   2.841  0.2098 -0.3844 -0.1260
 9097SOL    HW133254   9.729  11.512   2.854 -0.0412 -0.4895  1.1458
 9097SOL    HW233255   9.634  11.419   2.782  0.5698  0.2006 -0.5957
 9098SOL     OW33256   5.141   4.088   8.731  0.0926  0.0299 -0.0385
 9098SOL    HW133257   5.165   3.999   8.706  0.4803  0.6423 -1.9735
 9098SOL    HW233258   5.113   4.130   8.650  0.3146  1.8105  0.7457
 9099SOL     OW33259   8.904  12.061  10.087 -0.1962  0.0679  0.3432
 9099SOL    HW133260   8.835  12.111  10.043 -0.8524 -0.3161  0.9191
 9099SOL    HW233261   8.895  11.972  10.053  1.1631  0.3707 -0.9090
 9100SOL     OW33262   2.903   2.700   8.246  0.7401 -0.1646 -0.2781
 9100SOL    HW133263   2.848   2.625   8.225  1.7148 -0.6567 -1.2015
 9100SOL    HW233264   2.973   2.664   8.302 -0.6645  0.7398  2.2186
 9101SOL     OW33265   5.886   8.152   5.252  0.2415 -0.0069 -0.4483
 9101SOL    HW133266   5.848   8.067   5.276  0.7404  0.1311  0.8921
 9101SOL    HW233267   5.858   8.165   5.162 -2.2629 -0.2716  0.2004
 9102SOL     OW33268   8.282  11.857  12.132 -0.4496  0.1773 -0.1206
 9102SOL    HW133269   8.339  11.933  12.139 -0.7556  0.3921  0.0635
 9102SOL    HW233270   8.195  11.893  12.117 -0.5903 -0.1354 -0.0682
 9103SOL     OW33271   3.685  10.394   5.609  0.0647 -0.5475 -0.2991
 9103SOL    HW133272   3.678  10.299   5.618 -1.2354 -0.6670 -2.0488
 9103SOL    HW233273   3.773  10.409   5.575 -0.1240 -1.2464 -1.1317
 9104SOL     OW33274   6.494  11.426   4.274  0.4594 -0.5369  0.6297
 9104SOL    HW133275   6.512  11.518   4.292  2.2384 -1.1077  2.0585
 9104SOL    HW233276   6.462  11.391   4.357  0.0249 -1.2764  0.1678
 9105SOL     OW33277  10.866  11.105   1.098  0.4517  0.4097 -0.2888
 9105SOL    HW133278  10.818  11.167   1.153  0.4070  0.5255 -0.4585
 9105SOL    HW233279  10.958  11.123   1.116  0.4369  0.1182  0.1138
 9106SOL     OW33280   2.071  10.038  10.979  0.4359 -0.4307  0.5066
 9106SOL    HW133281   2.077   9.962  11.037 -1.4962  0.3526  1.8260
 9106SOL    HW233282   2.057  10.001  10.892  0.7596 -1.5878  0.9346
 9107SOL     OW33283   2.040  10.607   9.818 -0.0722  0.1101  0.2312
 9107SOL    HW133284   2.086  10.531   9.783 -0.2938 -0.1228  0.4424
 9107SOL    HW233285   2.096  10.681   9.795 -0.0103 -0.0817 -0.2561
 9108SOL     OW33286  11.739   2.828   7.430 -0.2340  0.0895  0.3924
 9108SOL    HW133287  11.811   2.765   7.434 -1.4351 -1.2642  2.0453
 9108SOL    HW233288  11.667   2.781   7.390 -0.5510  1.1089 -0.2803
 9109SOL     OW33289   7.292  11.318   1.535 -0.0842  0.0823 -0.4430
 9109SOL    HW133290   7.284  11.405   1.497  2.3505 -0.0572 -1.4385
 9109SOL    HW233291   7.368  11.324   1.594  0.1576 -1.3726 -0.5795
 9110SOL     OW33292  11.822   2.404   2.105 -0.0499 -0.2568 -0.2267
 9110SOL    HW133293  11.822   2.309   2.095 -0.7366 -0.1981 -0.8035
 9110SOL    HW233294  11.812   2.418   2.199 -0.3228 -0.7470 -0.1812
 9111SOL     OW33295   8.398  11.752   7.798 -0.4934 -0.2588 -0.4336
 9111SOL    HW133296   8.366  11.842   7.795 -1.2370 -0.5085 -0.1320
 9111SOL    HW233297   8.489  11.758   7.770  0.0443  0.8534  1.3985
 9112SOL     OW33298  10.508   1.166   6.751  0.9124 -0.1119 -0.4468
 9112SOL    HW133299  10.534   1.219   6.826  1.3278 -0.6313 -0.2107
 9112SOL    HW233300  10.590   1.143   6.708  0.5762  2.0726 -2.4249
 9113SOL     OW33301   8.789   9.549   3.968  0.2842 -0.3162 -0.1097
 9113SOL    HW133302   8.738   9.469   3.978  0.3796 -0.2777  0.7348
 9113SOL    HW233303   8.879   9.519   3.952  0.3448 -0.3778  0.3414
 9114SOL     OW33304   3.169   1.471   8.581 -0.2291 -0.3359  0.1231
 9114SOL    HW133305   3.090   1.467   8.635 -0.7885  0.7393 -0.5900
 9114SOL    HW233306   3.155   1.407   8.512 -2.3013  2.5157 -2.3147
 9115SOL     OW33307   2.843  10.960   9.407 -0.1163 -0.4761  0.3379
 9115SOL    HW133308   2.937  10.950   9.423 -0.1186 -2.6051 -0.5756
 9115SOL    HW233309   2.815  10.874   9.376 -1.9349  0.7057 -1.6206
 9116SOL     OW33310   9.376   8.297   8.672 -0.3142  0.3505  0.3070
 9116SOL    HW133311   9.458   8.291   8.721 -0.3900  1.0508  0.5220
 9116SOL    HW233312   9.316   8.341   8.732 -1.0823 -0.8460  0.4418
 9117SOL     OW33313   3.471   8.372   6.906 -0.1943 -0.6570 -0.0509
 9117SOL    HW133314   3.454   8.452   6.858 -0.3425 -1.4734 -1.4109
 9117SOL    HW233315   3.524   8.319   6.847  0.9643 -1.0799  1.3028
 9118SOL     OW33316   5.679   8.576  10.225  0.2378 -0.0593  0.1882
 9118SOL    HW133317   5.720   8.492  10.204  0.8497  0.5444 -1.1134
 9118SOL    HW233318   5.617   8.555  10.296 -0.2333 -1.7649 -0.6744
 9119SOL     OW33319   9.065   4.801   7.732  0.5447  0.2114 -0.1372
 9119SOL    HW133320   9.148   4.826   7.772  0.6153  0.5730 -0.5054
 9119SOL    HW233321   9.040   4.876   7.678 -0.3553  0.3773  0.4885
 9120SOL     OW33322  11.915   1.185   7.631  0.5085  0.3944 -0.1319
 9120SOL    HW133323  12.008   1.198   7.647  0.4005 -0.0100  0.8505
 9120SOL    HW233324  11.872   1.243   7.694  0.0936  0.3317 -0.3571
 9121SOL     OW33325   2.304   3.739  11.402  0.5695  0.0387  0.1620
 9121SOL    HW133326   2.261   3.681  11.465  1.2796  0.3167  0.9323
 9121SOL    HW233327   2.302   3.825  11.443 -1.0912  0.7406 -1.2765
 9122SOL     OW33328   8.092  11.106   9.759 -0.0005  1.0872  0.4749
 9122SOL    HW133329   8.155  11.116   9.831  1.2049  4.3539 -0.8398
 9122SOL    HW233330   8.146  11.082   9.683 -0.8348  0.6447  0.0085
 9123SOL     OW33331   4.475   5.943  10.316  0.5403 -0.2165  0.5526
 9123SOL    HW133332   4.534   5.869  10.298 -1.0697 -0.7738 -3.2451
 9123SOL    HW233333   4.532   6.020  10.313  1.6582 -1.0046  0.8842
 9124SOL     OW33334   7.064  11.790   9.517  0.0762 -0.0282 -0.4561
 9124SOL    HW133335   7.144  11.842   9.512 -1.2968  2.1030 -2.0387
 9124SOL    HW233336   7.083  11.712   9.466  2.0049 -0.9382  1.4935
 9125SOL     OW33337   6.547   2.745  11.023 -0.0503  0.8923 -0.0721
 9125SOL    HW133338   6.600   2.788  10.955 -0.0565  0.2464 -0.4883
 9125SOL    HW233339   6.467   2.797  11.028  0.3798  1.5530  0.1777
 9126SOL     OW33340  10.161   1.851   6.941 -0.2176 -0.1222  0.2581
 9126SOL    HW133341  10.232   1.790   6.962 -0.1109 -0.7313 -1.6253
 9126SOL    HW233342  10.203   1.937   6.937 -0.0676 -0.1281  1.4519
 9127SOL     OW33343   9.628   1.993   1.568  0.0280  0.0776  0.0206
 9127SOL    HW133344   9.646   1.921   1.507  0.0343  0.2103 -0.1321
 9127SOL    HW233345   9.670   2.069   1.529 -1.1355  0.4746 -0.5129
 9128SOL     OW33346   5.912   9.794  11.171 -0.2018  0.5098 -0.0771
 9128SOL    HW133347   5.916   9.717  11.114  0.7376  0.7615 -0.3742
 9128SOL    HW233348   5.835   9.842  11.141  0.1675  0.5357 -1.0191
 9129SOL     OW33349  10.789   9.537   6.904  0.5163  0.5775 -0.1158
 9129SOL    HW133350  10.861   9.591   6.871 -0.0161  0.9109 -0.7520
 9129SOL    HW233351  10.719   9.600   6.922 -0.5712  0.0092 -2.0555
 9130SOL     OW33352  12.002   0.276   4.810  0.2154 -0.1091 -0.4168
 9130SOL    HW133353  11.954   0.342   4.761  0.8252  0.1286 -0.7091
 9130SOL    HW233354  12.094   0.302   4.801  0.3528 -0.1838  0.6678
 9131SOL     OW33355   3.933   6.328   2.516 -0.3180  0.1042  0.0690
 9131SOL    HW133356   3.958   6.391   2.449 -0.2482 -1.5813 -1.5616
 9131SOL    HW233357   4.003   6.263   2.515 -1.2213 -0.9054  0.4876
 9132SOL     OW33358   1.806   0.104   3.889  0.1244  0.0030 -0.1507
 9132SOL    HW133359   1.838   0.193   3.873 -1.0576  0.4830  0.0641
 9132SOL    HW233360   1.822   0.058   3.806 -0.9940  0.9636 -0.9359
 9133SOL     OW33361   3.853  11.877  10.771 -0.1153 -0.2302  0.3169
 9133SOL    HW133362   3.937  11.853  10.810 -0.5064 -0.0665  1.2945
 9133SOL    HW233363   3.866  11.966  10.737  0.5082 -0.7262 -0.8133
 9134SOL     OW33364   7.664  10.109  11.461  0.8037 -0.4212 -0.0242
 9134SOL    HW133365   7.574  10.106  11.430  0.5116 -0.4859  0.8116
 9134SOL    HW233366   7.674  10.030  11.513  1.8548 -1.2713 -1.4331
 9135SOL     OW33367   0.878  10.831   8.641  0.4285 -0.3586 -0.1416
 9135SOL    HW133368   0.796  10.871   8.614  0.5851  1.7376  2.1510
 9135SOL    HW233369   0.946  10.885   8.600  0.6484 -0.2329  0.3847
 9136SOL     OW33370   1.250   1.741   0.812 -0.6511 -0.6931  0.2252
 9136SOL    HW133371   1.297   1.714   0.733 -1.5740 -0.1757 -0.5240
 9136SOL    HW233372   1.319   1.767   0.873  0.0710  2.2606 -1.6507
 9137SOL     OW33373  11.998   2.606   9.548  1.0280 -0.2440  0.1460
 9137SOL    HW133374  11.992   2.515   9.520  0.7923 -0.1297 -0.1803
 9137SOL    HW233375  12.034   2.602   9.636  2.5050 -0.5674 -0.4576
 9138SOL     OW33376   2.098   8.049   1.837  0.0234  0.0784  0.2350
 9138SOL    HW133377   2.029   8.087   1.891  0.8301  0.5494  0.9656
 9138SOL    HW233378   2.173   8.108   1.849  0.6352 -0.5724 -0.3090
 9139SOL     OW33379   3.043   5.933   0.483 -0.1378 -0.0532  0.3642
 9139SOL    HW133380   2.964   5.910   0.533 -0.7020  0.2119 -0.3771
 9139SOL    HW233381   3.052   6.028   0.497 -0.8609  0.2088 -0.7794
 9140SOL     OW33382   8.448  11.808   9.545 -0.1287 -0.0190  0.2251
 9140SOL    HW133383   8.412  11.866   9.477 -1.0205 -1.2653 -0.3973
 9140SOL    HW233384   8.420  11.720   9.519 -0.3549 -0.5481  2.1305
 9141SOL     OW33385   7.529   0.977  12.228 -0.1779  0.2007 -0.1541
 9141SOL    HW133386   7.491   0.945  12.146  2.0397  1.3755 -1.7460
 9141SOL    HW233387   7.565   0.900  12.270 -1.3188 -0.4211 -0.2910
 9142SOL     OW33388   4.937   3.333   9.427 -0.2301 -0.2309  0.2304
 9142SOL    HW133389   4.928   3.398   9.497 -0.3904 -0.8728  0.8083
 9142SOL    HW233390   5.023   3.294   9.440 -0.9162 -1.5188  1.0918
 9143SOL     OW33391   1.798  10.431   8.797  0.6691 -0.0064 -0.2242
 9143SOL    HW133392   1.723  10.373   8.789 -0.7650  1.5056  1.4020
 9143SOL    HW233393   1.791  10.490   8.722 -2.6200  3.0850  2.1909
 9144SOL     OW33394   9.938   9.295  11.074  0.4676 -0.0397  0.2762
 9144SOL    HW133395   9.977   9.363  11.019  0.0668 -0.5396 -0.6600
 9144SOL    HW233396   9.978   9.307  11.160  2.0272  0.0113 -0.4239
 9145SOL     OW33397   5.113   6.132   2.105  0.3568  0.7836 -0.1731
 9145SOL    HW133398   5.128   6.183   2.026 -1.1635  2.1995  0.3839
 9145SOL    HW233399   5.030   6.087   2.089  1.3746 -1.1215 -0.4168
 9146SOL     OW33400   9.926  10.544   0.608 -0.0367 -0.4605 -0.4221
 9146SOL    HW133401   9.903  10.549   0.701 -1.0457 -0.7629 -0.6426
 9146SOL    HW233402   9.950  10.633   0.584 -0.8137 -0.1690 -0.1286
 9147SOL     OW33403   5.354   1.071   9.702 -0.1186  0.5731 -0.4512
 9147SOL    HW133404   5.423   1.010   9.678 -0.4847 -0.1738  0.3219
 9147SOL    HW233405   5.376   1.097   9.792 -0.7269  0.4712 -0.2665
 9148SOL     OW33406   4.508   9.947   7.310 -0.3358  0.0077  0.4310
 9148SOL    HW133407   4.524   9.930   7.402 -1.4956 -0.8456  0.4927
 9148SOL    HW233408   4.468   9.867   7.276  1.6704 -0.3621 -1.2508
 9149SOL     OW33409   2.475   8.183  12.095  0.6989  0.3024  0.7345
 9149SOL    HW133410   2.462   8.201  12.188  0.2616  0.0428  0.7219
 9149SOL    HW233411   2.388   8.193  12.056  0.9878  1.0397  0.2469
 9150SOL     OW33412   1.186   4.012  10.397  0.4736  0.1071 -0.3228
 9150SOL    HW133413   1.136   4.082  10.439  0.4277 -0.7016  1.0065
 9150SOL    HW233414   1.210   3.953  10.468  0.9068 -0.9972 -1.3505
 9151SOL     OW33415   5.783   9.922  10.409 -0.0253 -0.2881  0.6472
 9151SOL    HW133416   5.834   9.877  10.341  0.9918  0.7486  0.6904
 9151SOL    HW233417   5.832   9.905  10.490 -0.3818 -0.2165  0.8793
 9152SOL     OW33418   5.152   5.473   7.997  0.3365 -0.3747 -0.2050
 9152SOL    HW133419   5.248   5.477   7.990  0.2718  2.9878 -1.0723
 9152SOL    HW233420   5.126   5.562   8.022 -2.5426 -1.3759  0.7223
 9153SOL     OW33421   6.002   9.773   0.795 -0.0123 -0.2204  0.3691
 9153SOL    HW133422   5.983   9.775   0.889  1.6745  1.1413  0.7241
 9153SOL    HW233423   6.042   9.687   0.780  2.9551  0.8108  1.6550
 9154SOL     OW33424   5.809  11.574   9.827 -0.1468  0.2818 -0.1334
 9154SOL    HW133425   5.805  11.600   9.919 -0.2664 -0.2867  0.0210
 9154SOL    HW233426   5.747  11.633   9.783  0.9218  1.4769 -0.0739
 9155SOL     OW33427   9.205   9.386  10.912  0.4823 -0.2527  0.5588
 9155SOL    HW133428   9.234   9.331  10.985  1.9591 -0.5991 -0.2465
 9155SOL    HW233429   9.176   9.325  10.845  3.4860 -0.2506 -0.9166
 9156SOL     OW33430   0.501  11.509   3.515  0.4480  0.5409  0.1734
 9156SOL    HW133431   0.485  11.488   3.423 -0.6283  2.5729 -0.1658
 9156SOL    HW233432   0.558  11.439   3.546 -0.9135 -1.4146 -1.4295
 9157SOL     OW33433  11.579   1.909  11.051  0.0754  0.5575 -0.1811
 9157SOL    HW133434  11.486   1.930  11.052  0.0987  0.6523  0.1325
 9157SOL    HW233435  11.623   1.994  11.048  0.1582  0.5400  0.3140
 9158SOL     OW33436   9.811   6.912   2.507 -0.1751 -0.2226  0.2245
 9158SOL    HW133437   9.898   6.877   2.491  0.7838  1.2933  1.7585
 9158SOL    HW233438   9.781   6.941   2.420  1.7707  1.1466 -0.0704
 9159SOL     OW33439   5.471   3.614   5.222  0.6155  0.1193 -0.2102
 9159SOL    HW133440   5.538   3.621   5.290  1.3494 -1.1975 -0.7521
 9159SOL    HW233441   5.396   3.662   5.257  1.4921  0.7556  0.8570
 9160SOL     OW33442   5.939   5.089   1.039  0.3238 -0.3340  0.2821
 9160SOL    HW133443   5.881   5.155   1.002  0.8931 -0.0448 -0.1146
 9160SOL    HW233444   5.914   5.008   0.996  1.0732  0.0223 -0.8795
 9161SOL     OW33445   6.280   5.010   9.937 -0.2373 -0.0675 -0.0408
 9161SOL    HW133446   6.304   5.034  10.026 -1.3569  2.4006 -0.3151
 9161SOL    HW233447   6.187   4.987   9.941 -0.3115  0.1130 -0.5792
 9162SOL     OW33448   7.208  10.221   4.956 -0.7278  0.0687 -0.6492
 9162SOL    HW133449   7.182  10.154   5.019  1.0450  0.6082  0.7147
 9162SOL    HW233450   7.284  10.264   4.995 -0.0879  1.0155 -2.7603
 9163SOL     OW33451   2.626   9.066   1.814 -0.0331 -0.5620 -0.1192
 9163SOL    HW133452   2.674   9.021   1.745  0.4288  0.7594 -0.7034
 9163SOL    HW233453   2.536   9.035   1.805  0.1390 -0.8346 -0.9536
 9164SOL     OW33454  10.072   7.782   2.524  0.0099  0.2471  0.1307
 9164SOL    HW133455  10.070   7.704   2.468  0.7702 -0.1685  0.6701
 9164SOL    HW233456   9.980   7.797   2.546 -0.4633  1.1058 -2.1338
 9165SOL     OW33457   7.195   1.082  12.145 -0.5253  0.0346 -0.2808
 9165SOL    HW133458   7.185   1.138  12.222  0.8046 -0.5076  0.3245
 9165SOL    HW233459   7.289   1.075  12.133 -0.7023  0.9819 -2.6637
 9166SOL     OW33460   1.692   1.417   0.038  0.4139 -0.1788 -0.0557
 9166SOL    HW133461   1.604   1.380   0.041  0.6287 -0.8688 -1.4268
 9166SOL    HW233462   1.724   1.409   0.128 -0.6865 -0.4934  0.3253
 9167SOL     OW33463   4.585   7.463   4.227 -0.1028  0.1442  0.2528
 9167SOL    HW133464   4.665   7.466   4.280 -1.1634  3.8813  1.9892
 9167SOL    HW233465   4.616   7.465   4.136  1.7614 -0.0280  0.8448
 9168SOL     OW33466   3.640  12.209  10.874  0.3827  0.0306  0.5606
 9168SOL    HW133467   3.556  12.248  10.899  0.5711 -0.0224  1.3086
 9168SOL    HW233468   3.637  12.120  10.909  0.0030 -0.6165 -1.0318
 9169SOL     OW33469   5.388   9.222   7.856  0.5414 -0.4980 -0.0251
 9169SOL    HW133470   5.468   9.244   7.808  0.9823  1.1160  1.3359
 9169SOL    HW233471   5.407   9.248   7.947 -1.2279 -0.8726  0.4888
 9170SOL     OW33472   7.980   8.678   8.765  0.2570  0.0053 -0.2956
 9170SOL    HW133473   7.952   8.768   8.750 -1.3209 -0.2678  0.7959
 9170SOL    HW233474   8.018   8.680   8.853 -0.8502 -0.6190  0.2028
 9171SOL     OW33475   9.553  10.308   3.696 -0.0018  0.2571  0.6817
 9171SOL    HW133476   9.564  10.270   3.609 -2.0303  0.9439  0.0837
 9171SOL    HW233477   9.620  10.265   3.749  0.6026 -0.9312 -0.9624
 9172SOL     OW33478   0.609   8.668   1.902 -0.8463  0.3859 -0.0385
 9172SOL    HW133479   0.539   8.696   1.843 -0.8487 -2.5632 -1.5991
 9172SOL    HW233480   0.675   8.738   1.896 -0.5572 -0.0440 -4.1164
 9173SOL     OW33481   4.771  10.208  10.262 -0.3205 -0.0613  0.5720
 9173SOL    HW133482   4.823  10.282  10.231 -0.9230  0.0717 -0.1505
 9173SOL    HW233483   4.799  10.196  10.353  1.6823 -0.6117 -0.0481
 9174SOL     OW33484   9.317  10.809   6.232  0.3935 -0.3992 -0.3048
 9174SOL    HW133485   9.360  10.744   6.287 -0.0488  1.2332  2.1420
 9174SOL    HW233486   9.388  10.859   6.194  0.7186 -1.8686 -1.7227
 9175SOL     OW33487  11.445  12.191   4.207  0.2691  0.1685 -0.0539
 9175SOL    HW133488  11.472  12.100   4.214  0.3137  0.2661  1.2612
 9175SOL    HW233489  11.366  12.189   4.153  0.7232 -0.5438 -0.7205
 9176SOL     OW33490   2.681   3.532   7.760 -0.4406 -0.1042 -0.2983
 9176SOL    HW133491   2.726   3.564   7.839 -0.6832  1.9931 -0.9396
 9176SOL    HW233492   2.591   3.515   7.790  0.0306 -1.6015  0.3601
 9177SOL     OW33493   2.436  11.575   0.640  0.0927 -0.5397 -0.0255
 9177SOL    HW133494   2.350  11.598   0.675 -0.7442  0.7691 -2.6732
 9177SOL    HW233495   2.469  11.657   0.602  2.0329 -1.2809 -0.0598
 9178SOL     OW33496   2.755   2.867   2.847 -0.0890 -0.4786 -0.4591
 9178SOL    HW133497   2.825   2.808   2.875 -0.0671  0.1016  0.7454
 9178SOL    HW233498   2.729   2.833   2.761  0.9188 -1.3538 -0.4441
 9179SOL     OW33499   1.426   8.260   1.707  0.0995 -0.1877 -0.3943
 9179SOL    HW133500   1.518   8.288   1.712 -0.6197  2.1118  1.0541
 9179SOL    HW233501   1.376   8.341   1.697 -1.7106 -1.5176 -3.8116
 9180SOL     OW33502   8.892   3.238   0.578  0.6146 -0.4492  0.1085
 9180SOL    HW133503   8.947   3.307   0.614 -0.5127 -1.4148  4.1811
 9180SOL    HW233504   8.802   3.269   0.590  0.1582 -1.3881 -0.7416
 9181SOL     OW33505  10.220   0.045   1.744  0.2318 -0.1007  0.1964
 9181SOL    HW133506  10.165  -0.008   1.803 -0.8647  0.5583 -0.1978
 9181SOL    HW233507  10.255   0.113   1.801  0.0400 -0.0893  0.3045
 9182SOL     OW33508   6.376   8.369   0.625 -0.4908 -0.0542  0.3616
 9182SOL    HW133509   6.452   8.359   0.682  0.0213 -0.3183 -0.3477
 9182SOL    HW233510   6.301   8.366   0.684 -0.0084 -1.0479  0.9519
 9183SOL     OW33511   5.968   2.660   3.773 -0.5514 -0.0554  0.1454
 9183SOL    HW133512   5.879   2.623   3.771 -0.7079  0.0604  2.5079
 9183SOL    HW233513   5.982   2.684   3.865  1.8556  0.1378 -0.2165
 9184SOL     OW33514   9.695  12.476   1.884 -0.0597 -0.3079 -0.1392
 9184SOL    HW133515   9.675  12.506   1.796  3.1061 -0.4063 -1.0209
 9184SOL    HW233516   9.743  12.548   1.924  0.4390 -1.0766  0.6941
 9185SOL     OW33517   7.076   1.762   7.358 -0.0530  0.0528  0.0541
 9185SOL    HW133518   7.085   1.696   7.427 -0.6860  1.2738  1.3453
 9185SOL    HW233519   6.987   1.750   7.325  0.6145 -1.2607 -1.3613
 9186SOL     OW33520   3.979   8.311  10.094  0.0876 -0.1533 -0.0584
 9186SOL    HW133521   3.979   8.363  10.175 -0.7435 -0.6810  0.2915
 9186SOL    HW233522   4.041   8.357  10.037 -2.0812  2.4623 -0.5393
 9187SOL     OW33523   5.378   3.996   4.643 -0.0182  0.3353 -1.1857
 9187SOL    HW133524   5.389   4.077   4.694  0.2364 -0.3803 -0.0840
 9187SOL    HW233525   5.368   4.027   4.552  0.7602  1.5688 -0.8843
 9188SOL     OW33526  12.374  12.090   8.351  0.1145  0.5060 -0.4157
 9188SOL    HW133527  12.443  12.042   8.305 -0.1087  1.5785 -1.9597
 9188SOL    HW233528  12.314  12.117   8.282 -0.4547  1.8516  0.5680
 9189SOL     OW33529   6.222   8.298   9.529  0.2029  0.0618  0.2504
 9189SOL    HW133530   6.278   8.364   9.487 -0.0800  0.6935  0.8370
 9189SOL    HW233531   6.281   8.249   9.585  0.5764 -0.7606 -0.8169
 9190SOL     OW33532   0.469   5.281   8.642 -0.0474  0.1252 -0.2839
 9190SOL    HW133533   0.492   5.189   8.629 -1.9924 -0.5203  0.5719
 9190SOL    HW233534   0.429   5.308   8.560  0.0542  0.0668 -0.3532
 9191SOL     OW33535  11.411   9.381   0.760 -0.1728 -0.0969 -0.3314
 9191SOL    HW133536  11.499   9.371   0.724  1.2151  1.2098  2.4645
 9191SOL    HW233537  11.393   9.297   0.804  0.6603  0.4190  1.0313
 9192SOL     OW33538   0.279   9.524   5.868 -0.7260  0.0360  0.4334
 9192SOL    HW133539   0.294   9.463   5.940  0.2290  0.6712  0.7879
 9192SOL    HW233540   0.256   9.607   5.910 -1.0929  0.1728 -0.0227
 9193SOL     OW33541   9.134   6.305   7.423  0.1520  0.3239 -0.4109
 9193SOL    HW133542   9.177   6.374   7.475  0.3159  0.3254 -0.5483
 9193SOL    HW233543   9.192   6.230   7.431 -0.6603 -0.2136  0.8003
 9194SOL     OW33544  12.021   6.719   7.432  0.2625  0.5199 -0.4586
 9194SOL    HW133545  11.984   6.807   7.442  1.6530  0.8314  3.8506
 9194SOL    HW233546  11.996   6.673   7.512  4.7346 -0.8817  0.3937
 9195SOL     OW33547   2.149  10.951   4.856  0.0974  0.5393  0.1290
 9195SOL    HW133548   2.195  10.977   4.777 -1.6301  2.2306 -0.4133
 9195SOL    HW233549   2.134  11.033   4.903 -1.0983 -0.1030  0.9467
 9196SOL     OW33550   0.935   8.816   7.231  0.4807 -0.0670 -0.4847
 9196SOL    HW133551   0.907   8.806   7.140 -0.3469  2.0589 -0.5262
 9196SOL    HW233552   0.856   8.844   7.277  1.4579  1.4361  0.3565
 9197SOL     OW33553   3.013   1.315   4.856  0.4900 -0.6449  0.5077
 9197SOL    HW133554   3.007   1.252   4.785  0.7779 -0.0161 -0.0810
 9197SOL    HW233555   3.056   1.391   4.818 -1.9298  0.8440  0.5678
 9198SOL     OW33556   1.130   6.638  11.367  0.4643 -0.5504 -0.4084
 9198SOL    HW133557   1.082   6.718  11.343  2.1622  0.7249  0.2588
 9198SOL    HW233558   1.214   6.645  11.321  1.4313 -0.9446  1.2121
 9199SOL     OW33559   4.569  10.706   8.607  0.5708 -0.3626  0.3608
 9199SOL    HW133560   4.572  10.673   8.517  1.6979  0.6505 -0.0002
 9199SOL    HW233561   4.548  10.799   8.598  0.9138 -0.2040  1.1339
 9200SOL     OW33562  10.995   2.723   9.371  0.4782 -0.0448  0.0839
 9200SOL    HW133563  11.029   2.644   9.412 -1.9405 -0.2419  2.0114
 9200SOL    HW233564  10.995   2.788   9.441  1.0105  1.2437 -1.0583
 9201SOL     OW33565   4.019   0.963   1.598  0.0097 -0.0419  0.4666
 9201SOL    HW133566   4.113   0.960   1.614 -0.1555 -1.7649  1.2906
 9201SOL    HW233567   4.010   0.936   1.506  0.3019  0.0357  0.4115
 9202SOL     OW33568   6.128   7.012   6.535 -0.2706 -0.5392 -0.6362
 9202SOL    HW133569   6.071   6.997   6.611  0.1119  0.2558 -0.1846
 9202SOL    HW233570   6.069   7.005   6.460 -0.8448 -0.3618 -0.2098
 9203SOL     OW33571  10.357   4.401   6.419 -0.4652  0.3577 -0.3967
 9203SOL    HW133572  10.391   4.312   6.430  1.4028  1.1943  1.0651
 9203SOL    HW233573  10.431   4.458   6.437 -2.1489  2.2656  1.0145
 9204SOL     OW33574   4.737   7.263   0.524  0.8677  0.8956 -0.1991
 9204SOL    HW133575   4.821   7.250   0.568  1.2649 -0.1631 -1.1860
 9204SOL    HW233576   4.692   7.179   0.533  0.3942  1.0939 -0.6441
 9205SOL     OW33577   1.977   6.730  10.436 -0.0271 -0.1643  0.2473
 9205SOL    HW133578   1.948   6.781  10.361 -0.5408 -0.5679  0.1660
 9205SOL    HW233579   2.055   6.683  10.405 -0.4516 -0.6133 -0.1513
 9206SOL     OW33580   3.889   9.840   3.260  0.4328 -0.5509  0.5721
 9206SOL    HW133581   3.869   9.930   3.233  0.3660 -1.6168 -3.6401
 9206SOL    HW233582   3.804   9.796   3.262  0.2764 -0.3665  4.0480
 9207SOL     OW33583   6.423   5.172   1.951 -0.0447 -0.8182  0.4578
 9207SOL    HW133584   6.468   5.149   2.032 -0.5689 -1.4198  0.5789
 9207SOL    HW233585   6.337   5.132   1.958  0.0725 -1.3145 -0.6116
 9208SOL     OW33586  11.312   4.254   6.966  0.2664 -0.2343  0.2501
 9208SOL    HW133587  11.336   4.162   6.979  1.4372  0.3169  2.5502
 9208SOL    HW233588  11.338   4.273   6.876  2.3100 -1.5173  0.5031
 9209SOL     OW33589  10.031  11.727   4.000  0.2207 -0.6959 -0.1589
 9209SOL    HW133590  10.077  11.806   4.028  0.4828 -0.9517  0.1381
 9209SOL    HW233591   9.993  11.692   4.081  1.7505 -1.9432  0.0808
 9210SOL     OW33592   9.738   6.233   4.691 -0.5740 -0.8113 -0.5339
 9210SOL    HW133593   9.789   6.156   4.713  0.4869 -0.0850 -0.3623
 9210SOL    HW233594   9.688   6.252   4.771 -0.7616 -1.2555 -0.5444
 9211SOL     OW33595   6.061   5.579   5.770  0.4446  0.5378  0.5384
 9211SOL    HW133596   6.032   5.571   5.679  1.1245 -0.6496  0.3979
 9211SOL    HW233597   6.004   5.518   5.818  1.3530 -0.3068  0.5749
 9212SOL     OW33598  12.249   8.079   2.278 -0.4902 -0.3128 -0.3019
 9212SOL    HW133599  12.318   8.015   2.260  0.3964 -0.2710  2.4609
 9212SOL    HW233600  12.179   8.027   2.318 -0.3648  0.1812  0.5919
 9213SOL     OW33601   5.839   8.762   3.354  0.0966  0.4426  0.2909
 9213SOL    HW133602   5.801   8.850   3.348 -1.3471 -0.0639  1.4990
 9213SOL    HW233603   5.933   8.776   3.343 -0.0324  2.2291  1.0924
 9214SOL     OW33604   1.362   8.823   8.689  0.0202  0.4896 -0.1585
 9214SOL    HW133605   1.357   8.824   8.785  0.8411  0.4741 -0.1093
 9214SOL    HW233606   1.350   8.914   8.663  0.3677  0.5865  0.0016
 9215SOL     OW33607   8.224   2.708   6.599  0.2247 -0.4641  0.7459
 9215SOL    HW133608   8.198   2.670   6.683  1.2454 -2.1007  0.3747
 9215SOL    HW233609   8.317   2.687   6.591  0.2851  0.1849 -0.5352
 9216SOL     OW33610   4.912   8.732  10.525 -0.4173  0.6309 -0.3020
 9216SOL    HW133611   4.890   8.673  10.598 -1.6388  1.7464  0.2627
 9216SOL    HW233612   4.885   8.684  10.447 -0.9986  0.2596  0.1195
 9217SOL     OW33613   5.411   4.694   3.969  0.3340  0.0383 -0.7579
 9217SOL    HW133614   5.457   4.649   3.898  1.8093  0.1069  0.1143
 9217SOL    HW233615   5.480   4.739   4.018 -0.3229 -1.5295  1.8461
 9218SOL     OW33616   2.491  10.399   2.678  0.3738  0.0859  0.8039
 9218SOL    HW133617   2.475  10.448   2.758 -0.3151 -0.6867  1.1520
 9218SOL    HW233618   2.422  10.333   2.675  2.7872 -2.7556  1.8627
 9219SOL     OW33619   3.197   4.336   1.323  0.3512 -0.6807 -0.7564
 9219SOL    HW133620   3.287   4.304   1.327 -0.1573 -2.4726 -2.4360
 9219SOL    HW233621   3.190   4.378   1.237  0.8124  3.6906  1.0933
 9220SOL     OW33622   8.708   1.671   8.170 -0.1702  0.3563  0.6620
 9220SOL    HW133623   8.636   1.657   8.109 -0.4983  0.7749  0.9406
 9220SOL    HW233624   8.665   1.701   8.251  0.3351  0.8886  0.7420
 9221SOL     OW33625   3.655   1.994  12.174 -0.5974  0.3239  0.1068
 9221SOL    HW133626   3.568   1.966  12.203 -0.7916  1.3206  0.5221
 9221SOL    HW233627   3.715   1.961  12.241 -0.5008 -1.3256 -0.7439
 9222SOL     OW33628   1.680   0.366   6.603  0.1080  0.0007 -0.3828
 9222SOL    HW133629   1.714   0.418   6.530  1.0763  0.7458  0.5609
 9222SOL    HW233630   1.684   0.425   6.678  0.1603 -1.0833  0.4954
 9223SOL     OW33631   1.875  11.749   3.171  0.5722  0.0744  0.6229
 9223SOL    HW133632   1.863  11.778   3.261 -0.0758  0.6039  0.3781
 9223SOL    HW233633   1.940  11.809   3.134  0.2657  0.3480  0.5207
 9224SOL     OW33634   2.609   1.690   8.504 -0.3614 -0.3359 -0.3531
 9224SOL    HW133635   2.636   1.731   8.586 -1.3387 -0.2451 -0.0738
 9224SOL    HW233636   2.621   1.596   8.520  0.0233 -0.2847 -0.3219
 9225SOL     OW33637   7.432   6.786   9.546 -0.3492 -0.3155  0.0293
 9225SOL    HW133638   7.406   6.866   9.502  0.2113 -0.9500 -1.5399
 9225SOL    HW233639   7.496   6.814   9.612  0.5973  0.4537 -1.1682
 9226SOL     OW33640  10.410   6.069   8.071  0.8906 -0.2332  0.4707
 9226SOL    HW133641  10.421   5.975   8.081  2.2727  0.0646  2.2629
 9226SOL    HW233642  10.461   6.091   7.993  0.7708 -0.9220  0.1926
 9227SOL     OW33643  10.835   7.652   6.465 -0.4404  0.1235 -0.6941
 9227SOL    HW133644  10.770   7.630   6.398 -1.5889  1.1970  0.0208
 9227SOL    HW233645  10.827   7.747   6.476  0.3068  0.0793  0.3748
 9228SOL     OW33646   3.242   1.477   9.169 -0.0903 -0.0991  0.0830
 9228SOL    HW133647   3.202   1.517   9.092 -0.4437  0.7615  0.6911
 9228SOL    HW233648   3.304   1.542   9.201  0.3428 -0.6089  0.3030
 9229SOL     OW33649   4.857   4.328   7.589 -0.2614 -0.2649 -0.0084
 9229SOL    HW133650   4.932   4.285   7.629 -0.8069 -2.0122 -0.8067
 9229SOL    HW233651   4.872   4.422   7.606  1.3866 -0.6710  1.0080
 9230SOL     OW33652   7.865  10.583   1.086  0.0117 -0.0642 -0.9820
 9230SOL    HW133653   7.901  10.585   1.175 -3.1412  1.0498  0.3909
 9230SOL    HW233654   7.790  10.524   1.091  0.9141 -1.6047 -3.5108
 9231SOL     OW33655   1.998   5.346   6.155 -0.4327 -0.0436  0.0306
 9231SOL    HW133656   1.964   5.435   6.148  0.4968  0.2462 -1.1223
 9231SOL    HW233657   2.058   5.337   6.082 -0.9119 -1.8211 -0.2008
 9232SOL     OW33658   2.159   6.514  10.617  0.4511  0.0556 -0.2991
 9232SOL    HW133659   2.082   6.460  10.633 -0.5967  0.9339 -2.0620
 9232SOL    HW233660   2.160   6.577  10.689  1.1477 -1.6568  1.2472
 9233SOL     OW33661   9.176   3.620  10.742  0.6212  0.0553 -0.3446
 9233SOL    HW133662   9.237   3.687  10.714  1.7609 -0.5656  0.5732
 9233SOL    HW233663   9.227   3.539  10.740 -0.2862 -0.5401  0.0610
 9234SOL     OW33664   7.675  12.347  10.048 -0.1319 -0.0539 -0.0704
 9234SOL    HW133665   7.590  12.384  10.023 -1.6038 -1.1103  2.8500
 9234SOL    HW233666   7.653  12.270  10.101  2.6979 -1.0274 -0.1528
 9235SOL     OW33667   6.005  11.072   8.133  0.2098 -0.3833  0.2953
 9235SOL    HW133668   5.994  11.006   8.201  0.0566  1.1476  1.8229
 9235SOL    HW233669   5.963  11.150   8.168 -1.2111  0.0881 -2.2175
 9236SOL     OW33670   3.188   3.947   8.141 -0.4977 -0.3125  0.4632
 9236SOL    HW133671   3.152   3.989   8.063  1.1206 -1.1729 -0.7947
 9236SOL    HW233672   3.242   3.875   8.107 -0.3517 -1.1838  2.4070
 9237SOL     OW33673   7.534  11.955   6.759  0.4270 -0.3149  0.0925
 9237SOL    HW133674   7.555  11.945   6.666  0.1663 -0.1262  0.0100
 9237SOL    HW233675   7.448  11.998   6.759  0.8553  0.5540  0.4205
 9238SOL     OW33676   6.724   7.852   4.312 -0.4235 -0.0035  0.1351
 9238SOL    HW133677   6.796   7.907   4.284  0.2669 -1.0982 -0.3022
 9238SOL    HW233678   6.679   7.827   4.231  0.7618 -2.0584  0.0347
 9239SOL     OW33679   8.762   8.993  11.953  0.4021 -0.1541  0.6094
 9239SOL    HW133680   8.682   9.023  11.909  0.5620  0.4001  0.6931
 9239SOL    HW233681   8.741   8.904  11.982 -1.1187  0.8688  2.9296
 9240SOL     OW33682   2.882   9.284   7.083 -0.2231 -0.2057 -0.2136
 9240SOL    HW133683   2.808   9.315   7.134 -0.1032  2.0873 -1.3195
 9240SOL    HW233684   2.959   9.324   7.124  0.0687  0.0321 -0.9576
 9241SOL     OW33685  11.952   9.039   2.678  0.0913  0.3893 -0.2553
 9241SOL    HW133686  11.897   8.970   2.715  0.4234 -0.0256 -0.5182
 9241SOL    HW233687  11.931   9.117   2.729  0.9235 -0.2838  1.1872
 9242SOL     OW33688  10.137   0.514   7.663 -0.2328  0.4217 -0.6726
 9242SOL    HW133689  10.127   0.430   7.617  0.7551 -1.1370  1.7747
 9242SOL    HW233690  10.051   0.556   7.654 -1.7839 -2.2095  0.5116
 9243SOL     OW33691  11.168   7.801  10.582 -0.2848 -0.2244 -0.1793
 9243SOL    HW133692  11.155   7.874  10.522 -2.5084  0.1931  0.7168
 9243SOL    HW233693  11.201   7.730  10.526 -0.3913  0.7340 -1.5080
 9244SOL     OW33694  10.799   2.210   8.461  0.1405  0.1279 -0.4219
 9244SOL    HW133695  10.715   2.254   8.474 -0.2233 -0.6828  0.0736
 9244SOL    HW233696  10.853   2.239   8.534 -0.1925 -0.4460  0.0637
 9245SOL     OW33697  10.505   6.505   5.216  0.5005  0.0303  0.2986
 9245SOL    HW133698  10.438   6.439   5.234  0.0955  0.2570 -0.3279
 9245SOL    HW233699  10.469   6.586   5.252  0.5431  0.1048  0.1741
 9246SOL     OW33700   5.678   2.022   3.145 -0.4298 -0.2359 -0.5688
 9246SOL    HW133701   5.706   2.066   3.065 -1.5613  1.0138 -0.3120
 9246SOL    HW233702   5.708   2.080   3.215 -1.1662 -0.3010 -0.1879
 9247SOL     OW33703   3.071   0.735   7.021  0.1279 -0.1855  0.7397
 9247SOL    HW133704   2.976   0.728   7.028 -0.1761  2.3778  0.1789
 9247SOL    HW233705   3.100   0.647   6.999 -2.2490 -0.8029 -0.2654
 9248SOL     OW33706  12.139   9.732  12.230 -0.7005  0.5194 -0.0352
 9248SOL    HW133707  12.078   9.804  12.249  0.2825  0.9068  1.8809
 9248SOL    HW233708  12.197   9.729  12.306  1.0718 -0.4711 -1.3448
 9249SOL     OW33709   6.781  10.490   2.456  0.6354 -0.2644  0.0755
 9249SOL    HW133710   6.708  10.493   2.517  0.0343  4.0381 -0.5232
 9249SOL    HW233711   6.859  10.484   2.512 -0.0024 -1.6447  0.8755
 9250SOL     OW33712   3.981   5.435   5.680  0.1307 -0.6982 -0.1710
 9250SOL    HW133713   3.929   5.493   5.735  0.7357 -0.1817 -0.1346
 9250SOL    HW233714   4.069   5.472   5.682  0.8482 -2.3779  0.9469
 9251SOL     OW33715   2.007   1.181  10.826  0.1269 -0.5086  0.3178
 9251SOL    HW133716   2.082   1.126  10.803  0.3332  0.4296 -1.5539
 9251SOL    HW233717   2.038   1.236  10.898  1.1743 -0.3388 -0.2390
 9252SOL     OW33718   0.797   2.701   8.823  0.3155  0.2250  0.3686
 9252SOL    HW133719   0.736   2.737   8.888 -1.5610 -1.0706 -0.5651
 9252SOL    HW233720   0.753   2.716   8.739  2.3744  1.2774 -0.5844
 9253SOL     OW33721   6.057   9.329   2.252 -0.0663 -0.3464  0.1183
 9253SOL    HW133722   6.144   9.357   2.279  0.5650 -1.3448 -0.7751
 9253SOL    HW233723   6.015   9.408   2.219  0.7021  0.0377  0.0372
 9254SOL     OW33724   9.127   8.590  11.818  0.5583 -0.3587 -0.0862
 9254SOL    HW133725   9.104   8.681  11.801  0.4147 -0.2690  0.5484
 9254SOL    HW233726   9.043   8.546  11.831  0.6143 -0.6328 -0.6008
 9255SOL     OW33727   7.904  10.263   6.423  0.0277 -0.3682  0.3002
 9255SOL    HW133728   7.835  10.233   6.364  1.0659 -0.2449 -1.0291
 9255SOL    HW233729   7.972  10.298   6.365  0.9179  0.1443  1.5959
 9256SOL     OW33730   7.711  12.431   8.756 -0.6607  0.4663 -0.5256
 9256SOL    HW133731   7.762  12.475   8.688 -1.0714  1.0359 -0.4687
 9256SOL    HW233732   7.627  12.476   8.757 -1.2315 -0.5559 -0.7181
 9257SOL     OW33733   4.895   4.145   0.187 -0.5601  0.1912 -0.5908
 9257SOL    HW133734   4.941   4.126   0.269  0.8583  0.3987 -1.3176
 9257SOL    HW233735   4.812   4.098   0.195  0.7200 -2.1570 -0.2050
 9258SOL     OW33736   1.000   0.390   6.281  0.2168 -0.2716  0.2194
 9258SOL    HW133737   1.008   0.386   6.186 -0.6687 -0.0523  0.1292
 9258SOL    HW233738   0.912   0.357   6.299  0.2151  0.0993  0.9293
 9259SOL     OW33739   9.691   8.403   5.407  0.1340 -0.2253 -0.6474
 9259SOL    HW133740   9.763   8.341   5.418  1.5164  1.6291  1.5490
 9259SOL    HW233741   9.632   8.359   5.345  1.7810 -2.9897 -0.4540
 9260SOL     OW33742   5.324   6.244   1.635  0.3196  0.2627 -0.0250
 9260SOL    HW133743   5.239   6.267   1.673 -0.0834  0.8770 -1.2418
 9260SOL    HW233744   5.383   6.313   1.667  0.1413  0.3949  0.0241
 9261SOL     OW33745   1.443   2.903   3.527 -0.2606 -0.3855  1.1407
 9261SOL    HW133746   1.439   2.897   3.623 -2.9350 -0.8923  1.0659
 9261SOL    HW233747   1.419   2.815   3.497  1.9424 -0.6591 -0.0653
 9262SOL     OW33748   1.904   5.867   4.862 -0.7807 -0.4519  0.0669
 9262SOL    HW133749   1.824   5.819   4.885 -0.7587 -0.6845 -0.3448
 9262SOL    HW233750   1.935   5.902   4.946 -0.1902 -2.0867  0.5840
 9263SOL     OW33751  12.171   6.016   8.716  0.5295  0.5307  0.0281
 9263SOL    HW133752  12.154   5.922   8.720 -0.8166  0.5351 -2.8202
 9263SOL    HW233753  12.266   6.024   8.718  0.7426 -1.0832 -1.4541
 9264SOL     OW33754   3.287   0.003   3.602 -0.5899 -0.5720 -0.2866
 9264SOL    HW133755   3.291   0.081   3.547 -1.1576 -0.4261 -0.1253
 9264SOL    HW233756   3.337  -0.063   3.553  2.4215  0.6495  0.8669
 9265SOL     OW33757   8.678   9.886  11.697  0.4757  0.2851  0.1795
 9265SOL    HW133758   8.744   9.892  11.629  1.0907 -2.7316  0.3719
 9265SOL    HW233759   8.728   9.867  11.777 -0.4321  0.7736  0.8815
 9266SOL     OW33760   1.495   5.859   3.166  0.2369  0.1210 -0.2278
 9266SOL    HW133761   1.529   5.946   3.191 -0.5144  0.1252  0.8459
 9266SOL    HW233762   1.569   5.800   3.182  0.9735  0.6156 -1.5820
 9267SOL     OW33763   3.653   3.818  10.182  0.0244 -0.3093 -0.0123
 9267SOL    HW133764   3.701   3.782  10.107 -0.4168  1.2034 -1.0707
 9267SOL    HW233765   3.562   3.820  10.153 -0.1108  0.5505  0.4476
 9268SOL     OW33766   5.529   6.402   2.677  0.2225  0.3403 -0.1772
 9268SOL    HW133767   5.618   6.374   2.659  0.2026  0.6152 -0.7105
 9268SOL    HW233768   5.484   6.323   2.706  0.9758  0.4537  1.4136
 9269SOL     OW33769   2.205  12.273   7.307 -0.1081  0.2623  0.0508
 9269SOL    HW133770   2.247  12.272   7.222 -0.9804  0.1128 -0.3913
 9269SOL    HW233771   2.201  12.366   7.331  1.3967  0.2214  0.5927
 9270SOL     OW33772   0.094   5.296  11.870  0.2937 -0.1571 -0.1246
 9270SOL    HW133773   0.087   5.282  11.964 -0.8793 -0.6041 -0.2636
 9270SOL    HW233774   0.005   5.319  11.842 -0.0065 -2.6400 -1.5318
 9271SOL     OW33775   9.368   8.369   9.589 -0.2564  0.1443 -0.0846
 9271SOL    HW133776   9.455   8.354   9.625 -0.2314  1.3207  0.4048
 9271SOL    HW233777   9.312   8.380   9.665 -0.6982  0.0939 -0.3986
 9272SOL     OW33778   3.340   3.454  10.756  0.2006 -0.2133  0.2846
 9272SOL    HW133779   3.355   3.543  10.789  1.0384 -0.4212  0.4919
 9272SOL    HW233780   3.394   3.449  10.677  0.2485 -0.5696  0.3402
 9273SOL     OW33781   0.724   9.905   2.840 -0.4910 -0.5817  0.1030
 9273SOL    HW133782   0.643   9.862   2.868  0.1186 -0.9997  1.2717
 9273SOL    HW233783   0.790   9.836   2.845  0.3333  0.2596  1.1691
 9274SOL     OW33784   6.398  11.380   3.674 -0.3216  0.0834 -0.1914
 9274SOL    HW133785   6.473  11.439   3.666 -0.8473  0.6911 -0.7952
 9274SOL    HW233786   6.327  11.426   3.629 -1.9543  1.0380  3.0424
 9275SOL     OW33787  11.417   5.345  11.104 -0.6142  0.0486  0.0063
 9275SOL    HW133788  11.376   5.296  11.175 -0.9909  0.1731 -0.1196
 9275SOL    HW233789  11.424   5.283  11.032  0.3645 -0.2599  0.3579
 9276SOL     OW33790   8.158   6.863   5.380 -0.3606 -0.0686  0.1555
 9276SOL    HW133791   8.100   6.939   5.372 -0.8910 -0.6492 -2.3842
 9276SOL    HW233792   8.241   6.891   5.342 -0.9108 -1.0273 -1.8851
 9277SOL     OW33793   6.494  12.183   8.682  0.4020  0.5339 -0.1877
 9277SOL    HW133794   6.413  12.132   8.683  1.6176 -1.5897 -1.7523
 9277SOL    HW233795   6.483  12.245   8.609 -0.0442  0.7060  0.0228
 9278SOL     OW33796   9.164  10.628   8.054 -0.5127 -0.5094  0.6130
 9278SOL    HW133797   9.084  10.590   8.092 -0.3712 -1.6047 -0.1487
 9278SOL    HW233798   9.212  10.662   8.130 -0.3042 -2.5222  1.4645
 9279SOL     OW33799  10.471   4.989   6.451 -1.0364  0.5237  0.1302
 9279SOL    HW133800  10.524   5.007   6.373 -1.8354 -0.1268 -0.5771
 9279SOL    HW233801  10.467   4.894   6.455 -0.8822  0.5437  1.0705
 9280SOL     OW33802   5.175   2.023   6.414  0.1990 -0.2352  0.0925
 9280SOL    HW133803   5.100   1.968   6.391  0.8470 -0.2749 -2.1747
 9280SOL    HW233804   5.148   2.111   6.391  1.1984 -0.3917 -1.8641
 9281SOL     OW33805   4.248   8.716   1.715  0.2570 -0.2066  0.2837
 9281SOL    HW133806   4.223   8.637   1.667 -0.4599 -0.7698  1.5415
 9281SOL    HW233807   4.316   8.687   1.775 -1.3920 -0.3674  2.1743
 9282SOL     OW33808   3.542   4.821   3.988  0.5272 -0.0997  1.2552
 9282SOL    HW133809   3.631   4.835   4.020  0.2129  0.4679  1.9066
 9282SOL    HW233810   3.550   4.826   3.893  1.1286  0.3611  1.3220
 9283SOL     OW33811   7.639   1.892  11.636 -0.3804  0.5262  0.2437
 9283SOL    HW133812   7.723   1.874  11.594 -1.4584 -3.6477 -0.5657
 9283SOL    HW233813   7.593   1.949  11.575  0.9221  0.8398 -0.4838
 9284SOL     OW33814   5.793  11.202  12.112 -0.0537 -0.1388  0.2487
 9284SOL    HW133815   5.768  11.115  12.145 -0.1975 -0.5857 -0.9938
 9284SOL    HW233816   5.885  11.192  12.088 -0.1719 -0.0486 -0.2376
 9285SOL     OW33817  12.064   9.711   6.675  0.2636  0.0592 -0.5066
 9285SOL    HW133818  12.007   9.641   6.705  0.0443 -0.1740 -1.4279
 9285SOL    HW233819  12.013   9.791   6.689  0.6030  0.0725  0.7564
 9286SOL     OW33820   5.894   1.437   4.267 -0.3589 -0.0660  0.0003
 9286SOL    HW133821   5.926   1.453   4.356  3.2896  0.3981 -1.2302
 9286SOL    HW233822   5.937   1.356   4.241 -0.5848  0.3190 -1.6760
 9287SOL     OW33823   4.901   9.987   6.878  0.3030 -0.2716 -0.4722
 9287SOL    HW133824   4.871  10.078   6.885 -2.2330 -0.8342 -2.3539
 9287SOL    HW233825   4.952   9.984   6.797  0.0608 -0.5834 -0.6165
 9288SOL     OW33826   0.911   9.712   8.822 -0.2957  0.5993  0.4852
 9288SOL    HW133827   0.874   9.737   8.737  0.9753  1.1941  0.0771
 9288SOL    HW233828   0.945   9.793   8.859  1.3024 -0.0180  0.4575
 9289SOL     OW33829   4.258   4.114  11.007 -0.3273  0.5872  0.7956
 9289SOL    HW133830   4.162   4.110  11.012 -0.3293 -0.7136  0.0863
 9289SOL    HW233831   4.282   4.179  11.073 -1.5667 -0.6131  2.5314
 9290SOL     OW33832   1.694   1.960   4.995 -0.0333 -0.2292  0.2095
 9290SOL    HW133833   1.698   1.943   5.089  0.4480 -0.7280  0.1007
 9290SOL    HW233834   1.776   2.007   4.976  0.4820 -1.2638 -0.1809
 9291SOL     OW33835   1.761   5.169   3.563 -0.1506 -0.3644  0.0512
 9291SOL    HW133836   1.812   5.223   3.503 -1.1682  0.8131  0.1937
 9291SOL    HW233837   1.826   5.116   3.609  0.6711 -0.9793 -1.7614
 9292SOL     OW33838   0.403   7.849   5.894  0.2910 -0.2629  0.1523
 9292SOL    HW133839   0.450   7.770   5.868  0.5576 -0.2439  0.5648
 9292SOL    HW233840   0.328   7.818   5.943 -0.0021 -0.2844 -0.3078
 9293SOL     OW33841  11.899   6.729   5.884 -0.1410 -0.0610  0.2659
 9293SOL    HW133842  11.941   6.717   5.799  0.7279  1.1612  0.5044
 9293SOL    HW233843  11.918   6.819   5.908  2.0792 -1.1072  3.0286
 9294SOL     OW33844   9.878   1.646   5.175 -0.0467 -0.1372 -0.0802
 9294SOL    HW133845   9.899   1.739   5.165  1.8498 -0.5906 -0.7592
 9294SOL    HW233846   9.824   1.625   5.098  1.3104 -0.0507 -1.0866
 9295SOL     OW33847   3.230  12.338   1.722 -0.1301 -0.4910  0.3142
 9295SOL    HW133848   3.227  12.414   1.780 -0.1152 -1.0348  1.0400
 9295SOL    HW233849   3.144  12.296   1.732 -0.4828 -0.0735 -0.7803
 9296SOL     OW33850   1.018  11.622   5.729 -0.1831  0.4000 -0.1317
 9296SOL    HW133851   1.022  11.626   5.825  3.1835  1.7459 -0.1995
 9296SOL    HW233852   0.980  11.536   5.710  0.8559 -0.7136  2.4144
 9297SOL     OW33853   7.760  11.984   7.746  0.2763  0.3577  0.4285
 9297SOL    HW133854   7.787  12.075   7.760 -0.8210  0.7021  0.3705
 9297SOL    HW233855   7.841  11.938   7.725  0.8687  1.2871  0.6335
 9298SOL     OW33856   1.057   1.688  10.844  0.2825 -0.0788 -0.1186
 9298SOL    HW133857   1.149   1.711  10.831 -0.0581  0.9336 -0.8906
 9298SOL    HW233858   1.012   1.772  10.855 -0.2953 -0.6424  2.2804
 9299SOL     OW33859   9.740   3.873  10.046 -0.4287 -0.0786 -0.2210
 9299SOL    HW133860   9.727   3.804   9.982 -1.7900 -0.3037  0.2786
 9299SOL    HW233861   9.665   3.932  10.034  0.0786  0.6650  0.1706
 9300SOL     OW33862  11.768  12.294   3.530 -0.2142 -0.3045  0.4353
 9300SOL    HW133863  11.728  12.381   3.534  1.6610  0.5746  2.0066
 9300SOL    HW233864  11.696  12.234   3.549 -1.5357  0.8772 -0.5990
 9301SOL     OW33865   7.357   9.647   1.141 -0.7694  0.3637  0.0506
 9301SOL    HW133866   7.362   9.551   1.141  0.8571  0.4049 -1.2065
 9301SOL    HW233867   7.294   9.668   1.072  0.0504  0.1840 -0.7867
 9302SOL     OW33868   6.237   5.186  10.481 -0.2619  0.1250 -0.2927
 9302SOL    HW133869   6.291   5.115  10.447 -0.9730  0.0328 -1.2480
 9302SOL    HW233870   6.192   5.221  10.405  0.2711  1.7916  0.1123
 9303SOL     OW33871   5.561   4.592   2.070 -0.0792  0.2181 -0.5251
 9303SOL    HW133872   5.545   4.686   2.071 -1.2452  0.0425  1.1550
 9303SOL    HW233873   5.650   4.583   2.036  0.9340  2.0885  1.4122
 9304SOL     OW33874  11.860   3.645   9.862 -0.1054 -0.1372  0.0726
 9304SOL    HW133875  11.770   3.622   9.838  0.1930  0.5165 -1.8721
 9304SOL    HW233876  11.858   3.740   9.870  0.4374 -0.1073 -0.1504
 9305SOL     OW33877   0.084  11.409   3.599  0.1703  0.3904 -0.2065
 9305SOL    HW133878   0.154  11.346   3.614  1.0963  1.3047 -0.5570
 9305SOL    HW233879   0.129  11.494   3.592 -1.0675  1.1433  0.5644
 9306SOL     OW33880   1.473   0.262  10.309 -0.2246  0.8658 -0.0051
 9306SOL    HW133881   1.498   0.351  10.287 -0.4809  1.0149  0.2915
 9306SOL    HW233882   1.402   0.272  10.372 -1.2451  0.4701 -1.0476
 9307SOL     OW33883   8.771   4.502   6.999  0.0270 -0.3344 -0.6164
 9307SOL    HW133884   8.797   4.592   7.015  1.9470 -1.0561  0.6315
 9307SOL    HW233885   8.786   4.457   7.082  0.7768 -2.1500 -1.6673
 9308SOL     OW33886  12.066  10.588   5.771 -0.1001  0.3517  0.1030
 9308SOL    HW133887  12.035  10.503   5.741  0.9118  0.1612 -0.4570
 9308SOL    HW233888  12.094  10.573   5.861  0.9034 -0.1376 -0.2755
 9309SOL     OW33889   6.275   1.171   9.341 -0.1284  0.3937 -0.3110
 9309SOL    HW133890   6.294   1.134   9.427  1.2488  2.0323  0.1521
 9309SOL    HW233891   6.183   1.196   9.344  0.3833  2.3470  1.5052
 9310SOL     OW33892  10.770   4.907   5.269  0.6971 -0.5392 -0.1448
 9310SOL    HW133893  10.854   4.909   5.315  0.4886 -1.4814  0.3076
 9310SOL    HW233894  10.708   4.944   5.332  0.7299 -0.0826 -0.3813
 9311SOL     OW33895   4.924   0.416   3.265 -0.1854 -0.1218  0.1576
 9311SOL    HW133896   4.924   0.369   3.348  3.5813 -0.1811  0.2899
 9311SOL    HW233897   4.913   0.347   3.199  0.4443 -0.5657  0.5064
 9312SOL     OW33898   1.134  11.526   4.129 -0.1547  0.5624  0.1789
 9312SOL    HW133899   1.201  11.502   4.065 -0.6900 -0.3831 -0.0436
 9312SOL    HW233900   1.076  11.587   4.083  0.2062  0.9103  0.1834
 9313SOL     OW33901   7.466   7.426   1.675 -0.3756  0.0571 -0.6565
 9313SOL    HW133902   7.507   7.499   1.628  1.7118  0.0405  0.9494
 9313SOL    HW233903   7.453   7.459   1.764 -0.8306 -1.0454 -0.2927
 9314SOL     OW33904   3.570   2.542   1.465  0.1097 -0.1891  0.5665
 9314SOL    HW133905   3.497   2.496   1.425 -0.4081 -0.4795  1.7851
 9314SOL    HW233906   3.634   2.553   1.395 -1.5756  1.1266 -0.8237
 9315SOL     OW33907   5.074   8.037   4.056 -0.3028 -0.5532 -0.1353
 9315SOL    HW133908   5.099   8.103   3.992  0.3103 -0.0434  0.6130
 9315SOL    HW233909   5.021   7.974   4.007 -0.0586 -0.0338 -1.0734
 9316SOL     OW33910   7.866   2.733   6.106 -0.0092  0.3420 -0.1133
 9316SOL    HW133911   7.837   2.761   6.192 -0.2045 -2.4266  0.8303
 9316SOL    HW233912   7.957   2.704   6.119  0.3983  1.0882 -1.1424
 9317SOL     OW33913   4.557   3.821   2.474  0.0234  0.2205  0.0026
 9317SOL    HW133914   4.571   3.845   2.382  0.4232  0.6698  0.1730
 9317SOL    HW233915   4.561   3.904   2.521  3.1759 -0.2621  0.8300
 9318SOL     OW33916  10.430   9.039  11.124 -0.3653 -0.6602 -0.2539
 9318SOL    HW133917  10.454   8.982  11.050 -2.2246 -2.5771  0.4958
 9318SOL    HW233918  10.467   8.995  11.201 -1.6782 -0.8371  0.3175
 9319SOL     OW33919   0.604   9.255   0.032 -0.1130 -0.3481 -0.1101
 9319SOL    HW133920   0.538   9.224   0.094 -0.1833  1.5048  0.7924
 9319SOL    HW233921   0.555   9.302  -0.035  0.2988  2.3444  1.3550
 9320SOL     OW33922   1.000   5.217   3.874 -0.1849 -0.1437 -0.2495
 9320SOL    HW133923   1.060   5.205   3.948 -0.1941 -0.9807 -0.3635
 9320SOL    HW233924   0.984   5.128   3.842 -1.1142  0.1134 -0.5251
 9321SOL     OW33925   6.308   3.819   3.905 -0.4097 -0.0621 -0.1503
 9321SOL    HW133926   6.345   3.804   3.817  0.7857 -0.4871  0.4048
 9321SOL    HW233927   6.282   3.732   3.935  1.2351 -0.2816  0.7757
 9322SOL     OW33928   8.119   4.355   1.186 -0.0861  0.0185 -0.0188
 9322SOL    HW133929   8.045   4.395   1.140  0.3389  1.0711  0.1793
 9322SOL    HW233930   8.192   4.417   1.173  0.8714 -1.1728 -0.5375
 9323SOL     OW33931   6.636   9.502   8.109 -0.1109  0.4964 -0.6547
 9323SOL    HW133932   6.575   9.497   8.035  0.7062 -0.3413 -1.3034
 9323SOL    HW233933   6.658   9.410   8.127  1.5066  0.8011 -0.9233
 9324SOL     OW33934   2.971   6.627   9.851  0.3503 -0.9351 -0.0500
 9324SOL    HW133935   2.944   6.632   9.943  1.2875 -1.5759  0.2813
 9324SOL    HW233936   2.895   6.590   9.806  0.0975 -1.2039  0.5798
 9325SOL     OW33937   0.447  12.164   6.070  0.2514  0.3530 -0.0048
 9325SOL    HW133938   0.486  12.239   6.024  0.6696  0.3201  0.2930
 9325SOL    HW233939   0.353  12.176   6.059  0.3323 -0.6050 -2.4090
 9326SOL     OW33940   6.961   8.718   5.966  0.6806 -0.0392  0.5953
 9326SOL    HW133941   6.953   8.802   6.011 -3.1245 -0.9177  2.0200
 9326SOL    HW233942   6.896   8.722   5.896  0.7829 -1.5772  0.3697
 9327SOL     OW33943   1.233   0.821   4.888  0.0421  0.2894 -0.3383
 9327SOL    HW133944   1.256   0.911   4.862  1.6123 -0.2359 -0.8852
 9327SOL    HW233945   1.297   0.766   4.843 -0.4573 -1.0692  0.5487
 9328SOL     OW33946   2.712   0.503   8.595  0.1266 -0.2752 -0.2721
 9328SOL    HW133947   2.756   0.584   8.622 -1.1250  1.6387 -3.3309
 9328SOL    HW233948   2.643   0.490   8.659  1.8754 -0.4048  1.6725
 9329SOL     OW33949   8.752   8.403   6.028 -0.4448 -0.3878  0.4404
 9329SOL    HW133950   8.724   8.393   5.938  1.2845 -1.6084 -0.0255
 9329SOL    HW233951   8.766   8.313   6.059  0.4298  0.0556  1.4062
 9330SOL     OW33952  11.970   2.224   9.166  0.1325 -0.3568 -0.6318
 9330SOL    HW133953  11.949   2.313   9.193 -2.0523 -0.4934 -1.6497
 9330SOL    HW233954  12.029   2.235   9.092  3.5518  0.0629  1.9300
 9331SOL     OW33955  10.137   6.009  11.858 -0.3108 -0.0156 -0.0127
 9331SOL    HW133956  10.218   6.016  11.806  1.3402 -2.4139  1.9840
 9331SOL    HW233957  10.167   5.984  11.945 -3.2476 -1.5193  0.6823
 9332SOL     OW33958   3.921   9.634   2.284 -0.4048  0.5436  0.5226
 9332SOL    HW133959   3.943   9.713   2.333  0.3152 -0.8356  2.5603
 9332SOL    HW233960   3.998   9.617   2.229  0.0865  0.4297  1.2347
 9333SOL     OW33961   8.810   4.365   5.764 -0.2441 -0.6429 -0.0723
 9333SOL    HW133962   8.824   4.381   5.671 -1.5533  0.8041 -0.0571
 9333SOL    HW233963   8.826   4.271   5.775 -0.0943 -0.8462 -1.7421
 9334SOL     OW33964  11.583  10.513   0.991  0.3116  0.1609 -0.4281
 9334SOL    HW133965  11.640  10.584   1.021 -0.1004  0.1658  0.3791
 9334SOL    HW233966  11.503  10.523   1.043  0.0846 -0.6337 -0.6085
 9335SOL     OW33967   4.782   2.407  12.462  0.0185  0.3916  0.0801
 9335SOL    HW133968   4.771   2.490  12.417 -1.8596  0.3777  0.4561
 9335SOL    HW233969   4.698   2.390  12.504  0.8961 -0.8627  1.4491
 9336SOL     OW33970   1.670   9.980   0.470 -0.2432  0.0245  0.2666
 9336SOL    HW133971   1.600   9.999   0.532  0.0416  1.8793  0.0686
 9336SOL    HW233972   1.749  10.014   0.512  0.1647  0.0590 -0.5217
 9337SOL     OW33973   7.755   0.133   2.567 -0.2314  0.2739 -0.1008
 9337SOL    HW133974   7.693   0.200   2.595 -0.2373 -0.1139  0.8316
 9337SOL    HW233975   7.768   0.151   2.473 -0.4454  1.3941  0.0690
 9338SOL     OW33976   0.911   1.061   9.115  0.8481  0.7865  0.2269
 9338SOL    HW133977   0.860   1.085   9.192 -1.8463 -1.9560 -0.4791
 9338SOL    HW233978   0.992   1.024   9.150 -0.2502 -0.2521  1.8147
 9339SOL     OW33979   3.392   7.335   7.740  0.3028  0.3117 -0.1213
 9339SOL    HW133980   3.393   7.411   7.682  0.3346  0.3031 -0.1315
 9339SOL    HW233981   3.299   7.324   7.763  0.0203 -0.7901 -1.6338
 9340SOL     OW33982  11.385   4.821   3.648 -0.1956  0.1963 -0.1178
 9340SOL    HW133983  11.392   4.910   3.613  0.7499  0.1460 -0.0916
 9340SOL    HW233984  11.349   4.770   3.575  1.8915  0.0653 -1.1421
 9341SOL     OW33985   4.559   1.903   1.502 -0.0069  0.3735  0.2823
 9341SOL    HW133986   4.622   1.960   1.546  0.3283  0.6457 -0.5253
 9341SOL    HW233987   4.549   1.942   1.415 -0.8119 -0.0315  0.1874
 9342SOL     OW33988  12.221  12.069  10.865 -0.7100 -0.0417 -0.9180
 9342SOL    HW133989  12.158  12.111  10.806 -0.7853  0.8455 -0.2161
 9342SOL    HW233990  12.255  12.140  10.919 -0.3528 -0.7811 -0.1484
 9343SOL     OW33991   5.251   5.050   6.276  1.0385  0.0476  0.0068
 9343SOL    HW133992   5.336   5.090   6.254  1.6789 -0.6402  1.1524
 9343SOL    HW233993   5.192   5.079   6.206  2.7709 -1.3898 -2.2045
 9344SOL     OW33994   6.020   3.818   9.742 -0.5910  0.2525  0.5053
 9344SOL    HW133995   6.070   3.892   9.776  0.9458 -0.7407  0.4885
 9344SOL    HW233996   6.030   3.749   9.807 -2.7124  0.2698  0.9478
 9345SOL     OW33997   0.618   2.043   4.025 -0.2864 -0.0358 -0.3231
 9345SOL    HW133998   0.580   2.007   3.944 -0.0263  0.1787 -0.5415
 9345SOL    HW233999   0.618   1.969   4.086  0.5474 -0.5022 -0.8725
 9346SOL     OW34000  11.537   8.557   8.690 -0.4034  0.5937  0.0353
 9346SOL    HW134001  11.597   8.581   8.619  0.3380  0.7308  0.6997
 9346SOL    HW234002  11.539   8.461   8.690  0.5163  0.6071  0.6361
 9347SOL     OW34003   4.185   7.243   9.840 -0.2295 -0.1300  0.1038
 9347SOL    HW134004   4.094   7.243   9.810 -0.4226 -2.6275  0.4945
 9347SOL    HW234005   4.223   7.164   9.803  1.6278  0.5240  0.4810
 9348SOL     OW34006   9.433   5.563   1.500  0.1907 -0.0883 -0.0298
 9348SOL    HW134007   9.385   5.562   1.417 -0.5572  2.4023  0.2918
 9348SOL    HW234008   9.518   5.602   1.477  0.5736 -0.7986  0.1380
 9349SOL     OW34009   3.417   7.244  12.241  0.2999  0.4511 -0.0302
 9349SOL    HW134010   3.396   7.326  12.285 -1.7629  0.8040 -1.4792
 9349SOL    HW234011   3.406   7.177  12.309  0.9308  1.2693  0.8999
 9350SOL     OW34012  10.206  12.249  10.690 -0.6404  0.0480 -0.0753
 9350SOL    HW134013  10.250  12.166  10.673 -2.1814 -0.7414 -0.4201
 9350SOL    HW234014  10.202  12.254  10.786  0.1764  0.1309 -0.0403
 9351SOL     OW34015   2.875   8.491   2.621  0.5017  0.0542 -0.4607
 9351SOL    HW134016   2.812   8.522   2.686  0.9373  1.9342 -0.8785
 9351SOL    HW234017   2.912   8.411   2.659  2.4983  2.2863  2.7944
 9352SOL     OW34018   8.806   1.922   0.601 -0.1999 -0.0441 -0.5562
 9352SOL    HW134019   8.811   1.927   0.697  0.6334  1.9000 -0.6453
 9352SOL    HW234020   8.897   1.915   0.573 -0.4639 -0.9528 -1.2147
 9353SOL     OW34021   8.231  12.102   4.357  0.3341 -0.2564  0.0921
 9353SOL    HW134022   8.150  12.080   4.311  0.3707 -1.2260  0.4654
 9353SOL    HW234023   8.288  12.140   4.289 -0.6868  1.1566 -0.0178
 9354SOL     OW34024   5.450   3.666   6.247  0.4417  0.5955  0.1146
 9354SOL    HW134025   5.497   3.746   6.224 -0.3356  0.1445 -3.5419
 9354SOL    HW234026   5.380   3.658   6.182  0.5881 -3.1435  0.1662
 9355SOL     OW34027   7.713   2.845   8.669 -0.0732  0.4591 -0.4055
 9355SOL    HW134028   7.678   2.756   8.672  0.6966  0.1650  0.3667
 9355SOL    HW234029   7.806   2.834   8.648 -0.2160  1.1684 -1.5371
 9356SOL     OW34030   8.125   7.343   2.402  0.4089 -0.0110  0.4369
 9356SOL    HW134031   8.217   7.328   2.379  0.3572 -0.2572  0.3894
 9356SOL    HW234032   8.124   7.347   2.497  0.3165 -1.0163  0.4808
 9357SOL     OW34033   8.171   9.994   5.319  0.0501  0.3385  0.1652
 9357SOL    HW134034   8.088  10.008   5.274 -0.2381 -0.9158  0.2795
 9357SOL    HW234035   8.237  10.023   5.257 -0.4428  0.9977 -0.0706
 9358SOL     OW34036   2.666   9.696   5.249  0.0166 -0.8773  0.2509
 9358SOL    HW134037   2.625   9.611   5.268 -2.3739  0.1392  0.0693
 9358SOL    HW234038   2.596   9.746   5.207  1.6526  0.8821 -0.4873
 9359SOL     OW34039   9.693   6.970   6.847 -0.7292  0.9805 -0.2178
 9359SOL    HW134040   9.688   7.050   6.795 -2.6220 -0.0524 -1.7464
 9359SOL    HW234041   9.746   6.911   6.794 -1.0762  0.5458 -0.0841
 9360SOL     OW34042   4.456   4.392   4.354 -0.1894 -0.1831  0.6993
 9360SOL    HW134043   4.484   4.313   4.309 -3.2375 -1.4543  0.7914
 9360SOL    HW234044   4.380   4.365   4.406 -1.6127  2.8594  0.4437
 9361SOL     OW34045  11.623  10.562   6.653  0.7530 -0.1794  0.2976
 9361SOL    HW134046  11.680  10.580   6.727 -1.6779  2.5729  1.7143
 9361SOL    HW234047  11.607  10.648   6.614 -0.2983 -1.2135 -1.7165
 9362SOL     OW34048   3.120   1.375   4.111  0.1939  0.0921 -0.0087
 9362SOL    HW134049   3.092   1.310   4.175 -1.5051 -0.3895 -1.1657
 9362SOL    HW234050   3.108   1.459   4.156  1.6753 -0.3044  1.2241
 9363SOL     OW34051   6.265   0.734   9.359  0.0953 -0.2139 -0.3731
 9363SOL    HW134052   6.204   0.751   9.287  0.3184  1.3336 -0.2317
 9363SOL    HW234053   6.338   0.686   9.318 -0.0673  0.1037 -1.0402
 9364SOL     OW34054  11.528   5.999   1.569 -0.2782  0.2258  0.4419
 9364SOL    HW134055  11.510   5.918   1.617 -1.7532  0.0955 -0.2737
 9364SOL    HW234056  11.598   5.977   1.508 -1.7318 -0.9938 -0.8551
 9365SOL     OW34057  10.942   2.885   3.892  0.0934  0.4038  0.7897
 9365SOL    HW134058  10.905   2.843   3.970 -0.3291 -1.8960 -0.5558
 9365SOL    HW234059  10.892   2.848   3.819  1.1558  1.7025 -0.6584
 9366SOL     OW34060   5.788   6.742   7.733 -0.1284 -0.1503  0.2679
 9366SOL    HW134061   5.693   6.738   7.747 -0.1255  0.5152  0.5268
 9366SOL    HW234062   5.825   6.695   7.808 -0.1616  2.3711  1.9897
 9367SOL     OW34063   4.009   8.069   2.089 -0.0589  0.0134  0.3628
 9367SOL    HW134064   4.005   8.157   2.128  0.2583  0.1006  0.1928
 9367SOL    HW234065   4.072   8.022   2.143  1.1005  0.4180 -0.6180
 9368SOL     OW34066  10.874  11.888   8.818  0.0274  0.3360 -0.5586
 9368SOL    HW134067  10.783  11.859   8.814  0.5267 -1.3082 -0.9233
 9368SOL    HW234068  10.887  11.940   8.739 -0.8304  1.4117 -0.0208
 9369SOL     OW34069   6.168   1.522  12.465 -0.0480 -0.2829  0.0018
 9369SOL    HW134070   6.121   1.582  12.407  2.5308 -0.2281 -2.2469
 9369SOL    HW234071   6.100   1.465  12.502 -1.9189 -0.0371 -2.7723
 9370SOL     OW34072   4.899  12.016   8.867  0.4021  0.0567  0.0761
 9370SOL    HW134073   4.963  11.946   8.857  1.2660  1.1660 -3.4593
 9370SOL    HW234074   4.819  11.972   8.893  2.1314 -1.5105  3.5149
 9371SOL     OW34075   5.906   9.267   6.762  0.4006 -0.3320 -0.2548
 9371SOL    HW134076   5.943   9.351   6.734  1.7080 -1.0505 -0.7699
 9371SOL    HW234077   5.834   9.251   6.701 -0.8132  1.0676  0.7357
 9372SOL     OW34078   6.867   9.254   4.480  0.4670  0.1014  0.3345
 9372SOL    HW134079   6.872   9.159   4.482 -0.5065  0.0504  1.2151
 9372SOL    HW234080   6.958   9.283   4.475  0.7217 -0.8781 -1.3001
 9373SOL     OW34081   0.273   8.007   6.224 -0.3143  0.2491  0.4987
 9373SOL    HW134082   0.353   8.028   6.175 -1.1723  0.5127 -0.8292
 9373SOL    HW234083   0.278   7.913   6.240 -1.1036 -0.3189 -2.1896
 9374SOL     OW34084   0.244  11.192   1.984 -0.1739 -0.7108  0.3191
 9374SOL    HW134085   0.234  11.205   2.078 -2.0832 -1.7377  0.3004
 9374SOL    HW234086   0.213  11.273   1.945  0.0523 -0.5169  0.5336
 9375SOL     OW34087  11.173   3.022   2.951 -0.2983 -0.0548  0.1042
 9375SOL    HW134088  11.145   2.981   2.870  1.5728 -0.9547 -0.1492
 9375SOL    HW234089  11.218   2.952   2.999  0.1911  0.9117  1.1073
 9376SOL     OW34090   2.399  10.421   1.085  0.1024  0.2877  0.0024
 9376SOL    HW134091   2.423  10.440   1.176 -1.5291  2.7789  0.0123
 9376SOL    HW234092   2.401  10.507   1.042 -5.7847  0.5292 -0.6068
 9377SOL     OW34093   7.969   0.081   4.160  0.3305 -0.0810 -0.2056
 9377SOL    HW134094   7.885   0.122   4.141 -0.2247  0.5905  3.0004
 9377SOL    HW234095   8.033   0.134   4.113 -0.9910 -1.0249 -3.2840
 9378SOL     OW34096   5.065   8.218   6.336 -0.4971 -0.3432  0.3359
 9378SOL    HW134097   5.040   8.307   6.311 -4.5757 -1.2894  0.3348
 9378SOL    HW234098   5.138   8.196   6.278 -2.3834  1.3982 -3.0071
 9379SOL     OW34099  10.767   5.610   5.537 -0.1148 -0.8715  0.3154
 9379SOL    HW134100  10.846   5.590   5.588 -0.3922 -0.2933  0.9895
 9379SOL    HW234101  10.702   5.547   5.568  0.5424 -2.6012 -1.5405
 9380SOL     OW34102  12.287  12.031   5.114  0.6631 -0.5076  0.0764
 9380SOL    HW134103  12.249  11.966   5.172  1.8831 -0.1297  1.3590
 9380SOL    HW234104  12.215  12.058   5.057 -0.5922 -0.8836  1.4280
 9381SOL     OW34105   3.608   5.287   5.871 -0.0045  0.0499  0.7804
 9381SOL    HW134106   3.689   5.237   5.859 -0.7279 -1.3991  1.6222
 9381SOL    HW234107   3.538   5.223   5.860 -1.0700  1.3315 -0.1935
 9382SOL     OW34108   3.839   7.246   2.979  0.3083 -0.1461 -0.1077
 9382SOL    HW134109   3.850   7.197   3.061  1.4867  0.3288  0.0380
 9382SOL    HW234110   3.920   7.296   2.970 -1.0564  2.3223  0.1035
 9383SOL     OW34111   3.981   9.825   7.283 -0.1677  0.4770 -0.4694
 9383SOL    HW134112   3.942   9.738   7.287  0.3446  0.1478 -1.9951
 9383SOL    HW234113   3.919   9.877   7.232  0.3191  0.5401 -1.0114
 9384SOL     OW34114   5.516   2.666   8.281 -0.0942  0.2676  0.2712
 9384SOL    HW134115   5.564   2.588   8.309 -0.0204  0.5143  0.8463
 9384SOL    HW234116   5.535   2.674   8.188 -0.6158 -0.7649  0.0707
 9385SOL     OW34117   3.862   1.022  10.343 -0.0589  0.2915 -0.2004
 9385SOL    HW134118   3.768   1.035  10.335  0.2266  2.5672 -0.6057
 9385SOL    HW234119   3.898   1.051  10.259  0.9982 -0.8293 -0.1733
 9386SOL     OW34120   5.523   4.571   1.032 -0.6620  0.1215 -0.0539
 9386SOL    HW134121   5.474   4.520   0.968  0.3680  0.3615 -1.0640
 9386SOL    HW234122   5.583   4.508   1.071 -0.6674  0.1681  0.0289
 9387SOL     OW34123   7.818   7.531   3.096  0.2659 -0.4403 -0.5353
 9387SOL    HW134124   7.834   7.626   3.101  0.1578 -0.4772  0.7202
 9387SOL    HW234125   7.846   7.507   3.007  1.7141  0.5148 -0.3780
 9388SOL     OW34126   0.216   0.383   2.882  0.2794  0.1846  0.0619
 9388SOL    HW134127   0.231   0.313   2.819  2.4702 -0.2885  1.0038
 9388SOL    HW234128   0.222   0.464   2.830 -2.3725 -0.2447 -1.0472
 9389SOL     OW34129   1.238  11.299   5.233  0.0107 -0.1956 -0.3585
 9389SOL    HW134130   1.328  11.282   5.206 -0.0396 -2.5811  0.7735
 9389SOL    HW234131   1.200  11.213   5.250 -1.8408  0.8392  1.2332
 9390SOL     OW34132  11.752  10.540   1.250  0.1118  0.4434 -0.3833
 9390SOL    HW134133  11.774  10.451   1.219  0.8941  0.3459  0.4196
 9390SOL    HW234134  11.836  10.586   1.250 -0.1642  0.9478 -0.0345
 9391SOL     OW34135  10.095   1.394   0.931 -0.2660  0.0695 -0.1503
 9391SOL    HW134136  10.035   1.326   0.964  0.6221 -1.2155 -1.0910
 9391SOL    HW234137  10.179   1.349   0.921  0.4547  1.4263 -0.4231
 9392SOL     OW34138  12.474  11.180   8.396  0.2815  0.4061 -0.3139
 9392SOL    HW134139  12.494  11.097   8.353 -1.1070 -0.3611  0.4726
 9392SOL    HW234140  12.469  11.158   8.489  0.4754  1.4993 -0.0283
 9393SOL     OW34141  11.257   2.764   1.908  0.5808  0.3007 -0.4147
 9393SOL    HW134142  11.285   2.783   1.998  1.1120  0.8585 -0.6879
 9393SOL    HW234143  11.323   2.702   1.876 -1.6863 -3.0988  0.8139
 9394SOL     OW34144   2.103  10.052   2.748  0.5745 -0.8290  0.4011
 9394SOL    HW134145   2.041   9.988   2.712  0.0081 -1.0963  1.8164
 9394SOL    HW234146   2.084  10.054   2.842  1.2561  0.6931  0.5294
 9395SOL     OW34147   9.537   4.261  10.861  0.1602  0.8355  0.4578
 9395SOL    HW134148   9.607   4.225  10.807  0.1300  2.0068 -0.4058
 9395SOL    HW234149   9.457   4.248  10.810  0.2339  2.6715 -0.2216
 9396SOL     OW34150  10.500   9.088   8.656  0.0184 -0.1712 -0.3637
 9396SOL    HW134151  10.565   9.098   8.586  1.9783  0.9831  1.4769
 9396SOL    HW234152  10.436   9.157   8.638  0.6702  0.3284 -0.8445
 9397SOL     OW34153  11.741   9.598  10.104 -0.0907 -0.3188 -0.0755
 9397SOL    HW134154  11.822   9.564  10.143 -0.7510  1.0509  2.6990
 9397SOL    HW234155  11.765   9.617  10.013  1.7562 -2.9768 -0.2912
 9398SOL     OW34156   1.994   9.368   9.710 -0.0636 -0.5352 -0.6957
 9398SOL    HW134157   2.007   9.396   9.620 -0.2655  0.5278 -0.4062
 9398SOL    HW234158   1.965   9.447   9.756 -0.7806 -1.2456  0.1215
 9399SOL     OW34159  11.746   1.526  11.694  0.2505  0.2473  0.0023
 9399SOL    HW134160  11.704   1.601  11.738  0.3129  0.8139 -0.8700
 9399SOL    HW234161  11.818   1.565  11.644 -1.5641  0.1381 -3.0033
 9400SOL     OW34162   2.322   9.458   3.671  0.1184  0.3076  0.0179
 9400SOL    HW134163   2.356   9.499   3.751 -1.0770 -2.0514  1.8315
 9400SOL    HW234164   2.369   9.375   3.665 -1.2818 -0.4678 -0.5539
 9401SOL     OW34165   7.062   3.814   0.683 -0.1313 -0.1497  0.3559
 9401SOL    HW134166   7.118   3.884   0.716  1.6208  0.2086 -2.8876
 9401SOL    HW234167   6.976   3.855   0.672  0.0310  0.5287  1.4646
 9402SOL     OW34168  11.165   9.767   9.548 -0.2157 -0.3472  0.6065
 9402SOL    HW134169  11.237   9.829   9.542 -1.6257  1.2893 -0.4773
 9402SOL    HW234170  11.144   9.762   9.642  1.2606 -0.8528  0.9288
 9403SOL     OW34171  10.083   4.869   7.354  0.4415 -0.3949 -0.0844
 9403SOL    HW134172  10.063   4.962   7.357  0.2593 -0.4334 -0.0837
 9403SOL    HW234173  10.178   4.864   7.367  0.6933 -0.1206 -1.6880
 9404SOL     OW34174  10.990   8.944   3.352 -0.4285  0.1210 -0.9827
 9404SOL    HW134175  11.012   9.036   3.334  1.3048  0.2787  1.4544
 9404SOL    HW234176  11.071   8.906   3.385 -1.8547 -1.4871  0.9013
 9405SOL     OW34177   8.747   1.275   3.499  0.1426 -0.3211  0.7470
 9405SOL    HW134178   8.744   1.184   3.471  0.3904 -0.1576  0.1772
 9405SOL    HW234179   8.655   1.300   3.509 -0.0853  0.1301 -1.6992
 9406SOL     OW34180  10.857   4.345   4.072  0.1052 -0.3704 -0.1326
 9406SOL    HW134181  10.849   4.427   4.023  0.5134 -0.4985 -0.4150
 9406SOL    HW234182  10.802   4.358   4.149  0.6519  0.4053  0.1357
 9407SOL     OW34183   6.148   3.372   4.906 -0.2783  0.2610  0.5677
 9407SOL    HW134184   6.190   3.375   4.992 -0.8319 -1.2156  0.9152
 9407SOL    HW234185   6.061   3.336   4.923 -0.7273  0.8024 -0.4914
 9408SOL     OW34186  12.005   7.275   7.402 -0.1974 -0.1154 -0.5145
 9408SOL    HW134187  11.945   7.335   7.358 -2.9549 -1.0499  1.6344
 9408SOL    HW234188  12.023   7.316   7.486  0.0414 -1.0681 -0.0862
 9409SOL     OW34189   3.936   9.609   7.033  0.3452 -0.1785 -0.3603
 9409SOL    HW134190   3.909   9.591   7.123  0.4175 -2.9539 -0.8141
 9409SOL    HW234191   4.027   9.582   7.029  0.2083 -0.5559 -1.3724
 9410SOL     OW34192   1.760   9.585   7.757 -0.0029  0.4005  0.4493
 9410SOL    HW134193   1.744   9.544   7.672  2.3360  0.5355 -0.1325
 9410SOL    HW234194   1.674   9.590   7.798 -1.4583  1.5411 -2.4373
 9411SOL     OW34195   5.283   7.183   5.373 -0.0965  0.0630 -0.5927
 9411SOL    HW134196   5.268   7.278   5.379  1.1437  0.2130  0.3936
 9411SOL    HW234197   5.346   7.164   5.441  1.8573 -1.0196 -2.5729
 9412SOL     OW34198  12.474  11.810   6.240 -0.0118  0.0406 -0.3623
 9412SOL    HW134199  12.498  11.868   6.312  0.8113 -0.0555 -0.5522
 9412SOL    HW234200  12.451  11.868   6.168  2.5495  0.1779 -1.1375
 9413SOL     OW34201   2.675   3.568   3.252 -0.1188  0.1311 -0.0071
 9413SOL    HW134202   2.586   3.533   3.250 -1.2323  2.4681  2.5859
 9413SOL    HW234203   2.672   3.643   3.192  1.2024 -1.7784 -2.6394
 9414SOL     OW34204   5.057  10.328   4.918 -0.4715 -0.5395 -0.1114
 9414SOL    HW134205   5.078  10.422   4.916  1.1201 -0.8685 -1.6360
 9414SOL    HW234206   5.120  10.289   4.857 -2.2734 -2.3761 -0.8900
 9415SOL     OW34207   9.183   6.579   2.257  0.0759  0.0818  0.1657
 9415SOL    HW134208   9.162   6.508   2.318 -2.8300 -1.7310 -2.6304
 9415SOL    HW234209   9.107   6.638   2.262  0.5513  0.7653 -0.5015
 9416SOL     OW34210   2.519   0.500   9.224 -0.2666  0.4767  0.0435
 9416SOL    HW134211   2.571   0.420   9.226  0.4089  0.8851 -0.7867
 9416SOL    HW234212   2.526   0.535   9.313 -1.3744 -0.8611  0.7143
 9417SOL     OW34213  10.232   6.946   5.853 -0.1348  0.7429 -0.0862
 9417SOL    HW134214  10.310   6.931   5.800 -0.1341  0.0891  0.0936
 9417SOL    HW234215  10.266   6.981   5.936 -0.1730  2.3524 -0.6998
 9418SOL     OW34216   1.974   5.908  11.081  0.4083  0.6818 -1.1645
 9418SOL    HW134217   1.944   5.912  10.991  0.6349  0.4252 -1.2541
 9418SOL    HW234218   2.065   5.877  11.075  0.0530 -0.5046 -0.7776
 9419SOL     OW34219   5.132   2.533   0.255  0.4493 -0.0560 -0.5189
 9419SOL    HW134220   5.103   2.462   0.198  1.4212 -0.5866 -0.3602
 9419SOL    HW234221   5.212   2.501   0.296  1.1220  1.2624 -0.7316
 9420SOL     OW34222   0.022   1.128   7.128  0.2133  0.4274  0.5759
 9420SOL    HW134223   0.066   1.044   7.123 -0.0483  0.3080  0.2096
 9420SOL    HW234224   0.060   1.180   7.057 -1.8020 -0.4441 -1.2602
 9421SOL     OW34225  12.456   4.799   4.443 -0.5061 -0.0562  0.2156
 9421SOL    HW134226  12.505   4.785   4.524  1.1677 -1.1464 -0.9294
 9421SOL    HW234227  12.366   4.777   4.466 -0.6595  2.4793  2.5190
 9422SOL     OW34228   4.573   4.918   2.746  0.4533  0.1162  0.4392
 9422SOL    HW134229   4.561   4.831   2.783 -1.9492  0.3578  0.3528
 9422SOL    HW234230   4.619   4.967   2.815 -0.3921 -0.5508  1.5151
 9423SOL     OW34231   4.285   4.091   4.239  0.7443  0.1314  0.2565
 9423SOL    HW134232   4.320   4.049   4.161  1.1499  1.1884 -0.1401
 9423SOL    HW234233   4.356   4.086   4.303  0.3443 -0.9106  0.6486
 9424SOL     OW34234   1.884  10.377   0.493 -0.2322 -0.3074  0.4951
 9424SOL    HW134235   1.819  10.430   0.446 -0.7267  0.8244  2.3520
 9424SOL    HW234236   1.968  10.419   0.472 -0.5421  0.7681  1.2878
 9425SOL     OW34237   9.050   5.877   5.887  0.1831 -0.1707  0.2914
 9425SOL    HW134238   9.133   5.922   5.868  0.6859 -0.9471  0.5764
 9425SOL    HW234239   9.026   5.837   5.803  0.3066 -0.2748  0.3049
 9426SOL     OW34240   3.659   1.043   3.119 -0.9626  0.4121  0.6004
 9426SOL    HW134241   3.651   1.015   3.210 -3.0261 -3.0602 -0.4289
 9426SOL    HW234242   3.572   1.028   3.082  0.0223  0.9262 -2.1341
 9427SOL     OW34243   4.186   2.489   2.559  0.0504  0.1350 -0.1266
 9427SOL    HW134244   4.169   2.473   2.466  1.3011 -0.5421 -0.2580
 9427SOL    HW234245   4.107   2.459   2.604 -0.1346 -0.5267 -0.8891
 9428SOL     OW34246  10.797   1.517  11.146  0.3512 -0.4102 -0.3160
 9428SOL    HW134247  10.744   1.446  11.110 -0.1311  0.1101 -0.6371
 9428SOL    HW234248  10.738   1.564  11.204  0.5128  0.0599 -0.5337
 9429SOL     OW34249   6.042   0.252   8.386 -0.0765 -0.0023 -0.0486
 9429SOL    HW134250   6.046   0.283   8.296  0.6943  2.7147  0.8502
 9429SOL    HW234251   5.948   0.254   8.408 -0.0483  1.8659 -0.0003
 9430SOL     OW34252   2.586  11.881   7.786  0.4656  0.4404 -0.3385
 9430SOL    HW134253   2.603  11.974   7.796 -1.1922  0.8063 -0.5970
 9430SOL    HW234254   2.506  11.866   7.836 -0.8916 -0.2307 -2.5760
 9431SOL     OW34255   5.252  11.172   4.292  0.0604  0.0290 -0.4510
 9431SOL    HW134256   5.237  11.078   4.303  0.9156 -0.2486 -1.4615
 9431SOL    HW234257   5.222  11.191   4.203 -2.4332  1.2485  0.5590
 9432SOL     OW34258   7.529  11.725   2.878  0.0871 -0.1630  0.1476
 9432SOL    HW134259   7.523  11.757   2.788  1.9814 -1.1063 -0.3731
 9432SOL    HW234260   7.541  11.630   2.869 -1.4451 -0.5441  1.4928
 9433SOL     OW34261   0.102   7.070   3.915 -0.0420 -0.5390  0.0569
 9433SOL    HW134262   0.044   7.087   3.840  0.9997  0.3626 -0.5839
 9433SOL    HW234263   0.063   7.120   3.987  0.8270  1.4918 -0.8120
 9434SOL     OW34264  10.973   2.749  11.792  0.3804 -0.0669  0.3492
 9434SOL    HW134265  11.037   2.804  11.745  0.2576  2.3375  2.7495
 9434SOL    HW234266  11.024   2.709  11.863  0.1202 -1.8790 -0.4483
 9435SOL     OW34267   8.191  12.092   0.150  0.0033 -0.3538 -0.2281
 9435SOL    HW134268   8.172  12.092   0.057  1.3662 -0.1288 -0.5222
 9435SOL    HW234269   8.215  12.183   0.170 -1.4101 -0.1277  0.5998
 9436SOL     OW34270   4.715   5.246   1.352  0.3347  0.2249  0.0912
 9436SOL    HW134271   4.662   5.314   1.393 -1.3154 -1.3396  0.6318
 9436SOL    HW234272   4.715   5.269   1.259  0.8119  1.5913  0.3969
 9437SOL     OW34273  10.851   1.331   6.204 -0.4358  0.1345 -0.3093
 9437SOL    HW134274  10.941   1.362   6.214 -0.7336  0.9516 -0.0951
 9437SOL    HW234275  10.797   1.406   6.229 -1.1848  0.1901 -1.9617
 9438SOL     OW34276   1.674   9.335   1.967  0.0781 -0.5801  0.1811
 9438SOL    HW134277   1.710   9.372   1.887 -2.6243  1.3142 -0.2857
 9438SOL    HW234278   1.647   9.246   1.943 -0.5932 -0.0732 -0.9758
 9439SOL     OW34279   7.557   0.260   7.675  0.4610  0.4437  0.3722
 9439SOL    HW134280   7.578   0.228   7.587 -1.8496 -0.3646  0.0514
 9439SOL    HW234281   7.463   0.242   7.685  0.6166  0.7537  2.9140
 9440SOL     OW34282   2.884   1.659  10.467  0.1819 -0.5882 -0.0668
 9440SOL    HW134283   2.968   1.695  10.437 -0.1164  0.1592 -0.0307
 9440SOL    HW234284   2.905   1.570  10.496  0.9125 -0.5022 -0.3003
 9441SOL     OW34285  10.406   3.347   8.198  0.0761  0.2275 -0.2763
 9441SOL    HW134286  10.481   3.341   8.257 -0.4732 -2.6570  0.2776
 9441SOL    HW234287  10.329   3.337   8.254 -0.6611  0.9906 -1.0978
 9442SOL     OW34288   1.212   9.855   3.746  0.2347 -0.0771 -0.3727
 9442SOL    HW134289   1.282   9.791   3.737 -0.4748 -1.2001  1.6693
 9442SOL    HW234290   1.132   9.803   3.750 -0.3898  0.9280  0.9581
 9443SOL     OW34291   0.124  10.567   9.923 -0.1975  0.1649 -0.1246
 9443SOL    HW134292   0.154  10.510   9.993 -1.1033  0.1594  0.2739
 9443SOL    HW234293   0.144  10.656   9.954 -1.6053  0.2314  0.6656
 9444SOL     OW34294   8.492   7.428  10.967 -0.3535  0.1263 -0.0645
 9444SOL    HW134295   8.512   7.518  10.943 -1.2754  0.7760  1.4513
 9444SOL    HW234296   8.549   7.410  11.042  0.9046 -1.0968 -1.2633
 9445SOL     OW34297   2.612   0.207   2.811 -0.0820 -0.3316  0.0111
 9445SOL    HW134298   2.673   0.250   2.871  2.1092 -0.5617 -1.9191
 9445SOL    HW234299   2.625   0.252   2.728 -1.0110 -1.7876 -0.9642
 9446SOL     OW34300   4.439  12.323   6.184  0.2240 -0.4391 -0.4035
 9446SOL    HW134301   4.375  12.369   6.128 -1.0887 -1.8572 -0.1310
 9446SOL    HW234302   4.447  12.236   6.145  1.6234 -0.4648 -0.1129
 9447SOL     OW34303  11.638   5.230   4.602  0.2659  0.0190  0.2531
 9447SOL    HW134304  11.560   5.208   4.551 -0.4003 -0.5147  1.4722
 9447SOL    HW234305  11.629   5.323   4.622  0.4965  0.2147 -0.5250
 9448SOL     OW34306   3.915   3.807   8.470 -0.1443  0.6319  0.1873
 9448SOL    HW134307   3.925   3.739   8.403 -0.4271  0.4391  0.3330
 9448SOL    HW234308   3.829   3.846   8.451 -0.4216  0.2841  0.6895
 9449SOL     OW34309   2.840  10.731   4.007  0.1964  0.1922  0.0134
 9449SOL    HW134310   2.894  10.657   4.034  1.5637  1.1737  0.0398
 9449SOL    HW234311   2.888  10.771   3.934  0.6878  2.4019  1.4537
 9450SOL     OW34312   3.096   7.428   4.122  0.3513 -0.2119  0.8897
 9450SOL    HW134313   3.019   7.483   4.105 -0.5642 -1.2620  1.4933
 9450SOL    HW234314   3.160   7.487   4.162 -0.2907  0.5861  0.7610
 9451SOL     OW34315  10.233   9.384   0.657 -0.3784 -0.5228 -0.1011
 9451SOL    HW134316  10.241   9.305   0.712  0.1010 -0.9921 -0.8314
 9451SOL    HW234317  10.154   9.370   0.606 -0.1714 -0.6433 -0.3944
 9452SOL     OW34318  10.514   2.655   8.857  0.3864  0.1871 -0.4846
 9452SOL    HW134319  10.479   2.656   8.768 -0.2031  0.1791 -0.2590
 9452SOL    HW234320  10.609   2.656   8.846  0.3147  0.2715 -1.1107
 9453SOL     OW34321  10.957   4.955   0.659 -0.0920 -0.2965 -0.7173
 9453SOL    HW134322  10.925   4.883   0.605 -0.5156 -0.7532  0.1290
 9453SOL    HW234323  10.986   4.913   0.740 -1.2661  0.5629  0.1900
 9454SOL     OW34324   8.587  10.348  10.037 -0.3969 -0.0067 -0.0793
 9454SOL    HW134325   8.667  10.335   9.987 -0.0688  0.7769  0.2281
 9454SOL    HW234326   8.615  10.347  10.129 -0.6595  0.7574  0.0165
 9455SOL     OW34327   1.118   2.584   3.648  0.4415  0.3870 -0.0079
 9455SOL    HW134328   1.194   2.542   3.606  0.9669  0.2999  1.0140
 9455SOL    HW234329   1.103   2.534   3.727 -1.1507 -0.0273 -0.5473
 9456SOL     OW34330   3.147   3.072   0.883  0.1948  0.1001  0.2941
 9456SOL    HW134331   3.237   3.083   0.854  0.3011  0.1442  0.6348
 9456SOL    HW234332   3.138   2.979   0.902  0.2886  0.1562  0.6347
 9457SOL     OW34333   2.094   8.853   6.522  0.6736  0.4784 -0.1335
 9457SOL    HW134334   2.014   8.892   6.487  1.1077 -0.6356 -2.5733
 9457SOL    HW234335   2.162   8.918   6.503  0.5139  1.0156  1.0838
 9458SOL     OW34336   9.151  11.934   1.576 -0.1046 -0.2992  0.7684
 9458SOL    HW134337   9.180  11.870   1.641 -2.2371 -0.0438  2.0637
 9458SOL    HW234338   9.193  12.016   1.602  0.6789 -0.6303  0.5714
 9459SOL     OW34339   6.720   1.091   5.691  0.5094 -0.0421 -0.7448
 9459SOL    HW134340   6.757   1.006   5.667 -1.1727 -0.8352 -0.6207
 9459SOL    HW234341   6.771   1.118   5.768 -0.9860 -2.5039  1.2822
 9460SOL     OW34342  12.154   8.458   7.604 -0.0656  0.4167 -0.4513
 9460SOL    HW134343  12.233   8.486   7.650  0.1344 -0.2488 -0.3773
 9460SOL    HW234344  12.141   8.368   7.633 -0.8155  0.5002 -0.5185
 9461SOL     OW34345   1.527   6.884   5.282  0.5937 -0.5753 -0.3628
 9461SOL    HW134346   1.601   6.944   5.291 -0.4291  0.6338  0.2540
 9461SOL    HW234347   1.494   6.899   5.194  1.6568 -1.8373 -1.0091
 9462SOL     OW34348   2.368   2.234   3.799 -1.5169 -0.7030  0.4598
 9462SOL    HW134349   2.331   2.208   3.714 -2.1246 -1.2165  0.8697
 9462SOL    HW234350   2.461   2.244   3.782 -1.8587  1.0298 -0.7007
 9463SOL     OW34351   2.832   3.976   7.320 -0.1893  0.1721  0.1054
 9463SOL    HW134352   2.908   4.028   7.345 -1.3927  2.6187 -1.0000
 9463SOL    HW234353   2.835   3.973   7.225 -1.6262  0.6589  0.0090
 9464SOL     OW34354   4.041   4.119   6.495  0.4775 -0.3425 -0.3897
 9464SOL    HW134355   4.082   4.034   6.504  2.8998  0.8735  1.1426
 9464SOL    HW234356   4.065   4.166   6.575  0.6670  2.3218 -1.8902
 9465SOL     OW34357   4.945   0.089   5.263  0.3295 -0.0366  0.7618
 9465SOL    HW134358   5.005   0.019   5.288  0.1438  0.2848  2.1809
 9465SOL    HW234359   4.925   0.134   5.345 -0.9250  0.5918  0.1423
 9466SOL     OW34360  12.466   4.961   1.167 -0.8655  0.4511  0.1322
 9466SOL    HW134361  12.547   4.911   1.166 -0.6813  0.6946  1.4905
 9466SOL    HW234362  12.402   4.903   1.125 -0.2166 -0.1212 -0.0912
 9467SOL     OW34363   6.938   9.190   3.597  0.2486 -0.0038 -0.1651
 9467SOL    HW134364   7.024   9.163   3.628  0.1365 -0.1054  0.0608
 9467SOL    HW234365   6.885   9.110   3.602  0.6283 -0.4408 -2.1089
 9468SOL     OW34366  11.617   5.722   0.636 -0.8272 -0.6926  0.1342
 9468SOL    HW134367  11.702   5.764   0.651 -0.6550  0.4819 -3.2352
 9468SOL    HW234368  11.554   5.775   0.685  0.3333 -1.9567  3.2104
 9469SOL     OW34369   4.092   4.595   5.507 -0.4015 -0.0511  0.0060
 9469SOL    HW134370   4.153   4.654   5.551  0.3007  0.5340 -1.6724
 9469SOL    HW234371   4.065   4.642   5.429 -0.6601 -1.5231 -0.8276
 9470SOL     OW34372   6.419   9.573   3.128  0.6459  0.1559  0.2621
 9470SOL    HW134373   6.405   9.649   3.071  2.5734 -1.4514 -2.6631
 9470SOL    HW234374   6.491   9.600   3.186  1.0818  0.7034 -0.5076
 9471SOL     OW34375   5.452  12.366   1.507  0.5198  0.3406 -0.5390
 9471SOL    HW134376   5.440  12.305   1.434  1.2862 -0.0960 -0.3160
 9471SOL    HW234377   5.497  12.314   1.574 -0.6997  0.5683  0.4938
 9472SOL     OW34378   9.690   0.344   1.888  0.4297  0.1174 -0.1967
 9472SOL    HW134379   9.677   0.435   1.915  2.6260  0.4160  0.0313
 9472SOL    HW234380   9.601   0.308   1.882 -0.4595  2.0873  0.3019
 9473SOL     OW34381   9.653   0.455   4.979 -0.0608 -0.2681 -0.1605
 9473SOL    HW134382   9.654   0.363   5.006 -0.3807  0.4582  2.6169
 9473SOL    HW234383   9.569   0.466   4.934 -0.4278 -1.1171  0.2884
 9474SOL     OW34384   9.530   6.212   5.905  0.0588 -0.1416  0.4795
 9474SOL    HW134385   9.594   6.283   5.896 -0.1365  0.0136  0.2943
 9474SOL    HW234386   9.493   6.203   5.817 -0.8912  0.4470  0.8152
 9475SOL     OW34387   5.093   1.421  11.253  0.4503  0.0299 -0.4639
 9475SOL    HW134388   5.156   1.413  11.324  0.5305 -0.2790 -0.5704
 9475SOL    HW234389   5.086   1.516  11.239  0.7445  0.0746 -0.3224
 9476SOL     OW34390   9.774  11.269   3.044 -0.1553 -0.0885  0.3370
 9476SOL    HW134391   9.770  11.303   2.954 -2.5045 -0.7196  0.1574
 9476SOL    HW234392   9.693  11.298   3.084 -0.2801 -1.8993  1.4976
 9477SOL     OW34393   7.686   8.482   5.136 -0.1947 -0.2680 -0.0093
 9477SOL    HW134394   7.611   8.478   5.076  0.9086  0.3634 -1.4981
 9477SOL    HW234395   7.712   8.391   5.147 -0.3853 -0.3947 -0.5565
 9478SOL     OW34396   5.729   0.350   1.120  0.3955 -0.2368 -0.2187
 9478SOL    HW134397   5.700   0.364   1.030  0.2807 -0.2691 -0.1870
 9478SOL    HW234398   5.664   0.290   1.157 -0.4497  0.9691  0.3484
 9479SOL     OW34399   7.879  11.570   9.410  0.3576 -0.5449  0.3260
 9479SOL    HW134400   7.925  11.595   9.330 -1.2783 -1.0026 -0.8177
 9479SOL    HW234401   7.803  11.629   9.413  1.0501  0.3624  2.2886
 9480SOL     OW34402   2.485   6.023   4.836  0.2435  0.2355 -0.4716
 9480SOL    HW134403   2.537   5.947   4.864  1.4823  1.5919  1.1212
 9480SOL    HW234404   2.394   5.994   4.842  0.7048 -1.5651 -1.3556
 9481SOL     OW34405   4.745   1.833   4.826  0.3268 -0.8939  0.0492
 9481SOL    HW134406   4.730   1.769   4.756 -1.5347 -1.1672  0.6388
 9481SOL    HW234407   4.679   1.901   4.810  1.3607  0.1965  0.2509
 9482SOL     OW34408   3.776   6.788   1.404 -0.3517  0.2577 -0.0007
 9482SOL    HW134409   3.768   6.796   1.309 -0.6496  0.3855  0.0315
 9482SOL    HW234410   3.835   6.715   1.418 -0.4631  0.1128 -0.2864
 9483SOL     OW34411   1.630  10.664   7.858 -0.1738 -0.1975 -0.0460
 9483SOL    HW134412   1.614  10.569   7.866  1.8251 -0.5849 -0.2494
 9483SOL    HW234413   1.709  10.671   7.804  2.1000  1.3776  3.1629
 9484SOL     OW34414   7.179   3.824   3.704  0.4111 -0.4328 -0.5038
 9484SOL    HW134415   7.127   3.900   3.731 -0.0836 -0.3029 -1.7564
 9484SOL    HW234416   7.269   3.855   3.699  0.7571 -0.7821  2.1924
 9485SOL     OW34417   8.700   5.392   7.125  0.0992 -0.1548 -0.1735
 9485SOL    HW134418   8.610   5.410   7.100 -0.5157 -0.8107  1.4261
 9485SOL    HW234419   8.751   5.408   7.045 -1.3929  0.3940 -1.0561
 9486SOL     OW34420   8.114   9.612   9.463  0.2191 -0.2207  0.0601
 9486SOL    HW134421   8.138   9.688   9.517  0.5900 -0.4404  0.2100
 9486SOL    HW234422   8.145   9.537   9.514 -0.5570 -0.5001  0.1293
 9487SOL     OW34423   2.971  11.779  11.685 -0.2932 -0.0919 -0.3771
 9487SOL    HW134424   2.878  11.777  11.707 -0.0056 -2.2530  1.0419
 9487SOL    HW234425   3.015  11.787  11.770  0.8122 -0.0766 -0.9337
 9488SOL     OW34426   5.253   8.240   6.595  0.1001  0.1962 -0.2897
 9488SOL    HW134427   5.181   8.186   6.561 -2.0317  2.0696  0.9023
 9488SOL    HW234428   5.294   8.186   6.662 -1.0872 -0.4514 -0.0536
 9489SOL     OW34429  11.870   4.289   9.385  0.1332  0.1430 -0.6271
 9489SOL    HW134430  11.912   4.206   9.410  1.6039  0.5588 -1.5779
 9489SOL    HW234431  11.806   4.305   9.454  0.6007 -1.2231  0.1695
 9490SOL     OW34432  11.339   0.346   2.860  0.0007  0.5461 -0.5314
 9490SOL    HW134433  11.348   0.430   2.905 -0.9489  0.1067  0.5266
 9490SOL    HW234434  11.312   0.284   2.928  0.1796 -0.5158 -1.3879
 9491SOL     OW34435   4.071  10.003  10.231  0.2938 -0.0886 -0.1030
 9491SOL    HW134436   4.048  10.034  10.319 -1.0284 -0.1276 -0.4131
 9491SOL    HW234437   4.125   9.925  10.247  0.8310  0.4232  0.6712
 9492SOL     OW34438   8.120   5.948   5.356  0.4458  0.6020  0.2471
 9492SOL    HW134439   8.025   5.935   5.362  0.3814 -0.7779 -2.4737
 9492SOL    HW234440   8.154   5.913   5.439 -1.3190  0.2556  0.8653
 9493SOL     OW34441  11.292   5.231   5.557  0.0490  0.3344  0.3045
 9493SOL    HW134442  11.278   5.151   5.508 -1.2885  0.9406 -0.3513
 9493SOL    HW234443  11.205   5.257   5.588  0.5640  1.1037  1.1950
 9494SOL     OW34444   4.764   4.747  11.858 -0.2654  0.2334 -0.1152
 9494SOL    HW134445   4.839   4.690  11.874 -1.0423 -0.2724  1.9284
 9494SOL    HW234446   4.794   4.834  11.886  0.6616  0.7898 -2.5362
 9495SOL     OW34447   3.383  10.825   4.102  0.2176 -0.4352 -0.2151
 9495SOL    HW134448   3.431  10.894   4.148 -0.0775  0.9817 -1.9299
 9495SOL    HW234449   3.447  10.784   4.045 -0.1293  0.1294 -1.0386
 9496SOL     OW34450   9.134   1.289   4.593  0.1584 -0.2632 -0.4308
 9496SOL    HW134451   9.171   1.203   4.614  2.8042  1.0639  0.9341
 9496SOL    HW234452   9.103   1.323   4.676  0.4457  0.6418 -0.6820
 9497SOL     OW34453   2.486   2.275   6.869  0.2558 -0.3648  0.1506
 9497SOL    HW134454   2.441   2.275   6.953 -0.4983  1.0062 -0.2125
 9497SOL    HW234455   2.539   2.355   6.871 -0.5777  0.2522 -1.0516
 9498SOL     OW34456   9.014   4.620   9.260  0.1213  0.1897  0.4109
 9498SOL    HW134457   9.010   4.537   9.308  0.1661 -0.8631 -1.3071
 9498SOL    HW234458   8.976   4.684   9.320 -1.2555 -1.3287  1.2723
 9499SOL     OW34459   1.286  12.379   0.931  0.3410 -0.0908 -0.4252
 9499SOL    HW134460   1.278  12.374   1.026  2.0760 -1.9205 -0.3127
 9499SOL    HW234461   1.213  12.326   0.897 -0.8875  1.3793 -0.2103
 9500SOL     OW34462   8.338   1.804   4.665  0.0128  0.1334 -0.4211
 9500SOL    HW134463   8.316   1.712   4.681 -0.5946  0.3923  0.3088
 9500SOL    HW234464   8.433   1.805   4.657  0.2761 -0.2561  1.9232
 9501SOL     OW34465   2.852   0.444   6.331 -0.9080  0.3082  0.2801
 9501SOL    HW134466   2.791   0.512   6.361 -0.2605  0.3445  1.5607
 9501SOL    HW234467   2.878   0.398   6.411  0.4356  0.0292 -0.3005
 9502SOL     OW34468   3.645   6.421   5.533  0.0119  0.1951  0.1589
 9502SOL    HW134469   3.654   6.327   5.551 -1.6178 -0.0685 -0.2875
 9502SOL    HW234470   3.669   6.463   5.615  0.1452 -0.6436  0.5635
 9503SOL     OW34471  12.348   5.353   7.190  0.1956  0.2078  0.3210
 9503SOL    HW134472  12.296   5.357   7.110  0.9223 -2.4773 -0.3646
 9503SOL    HW234473  12.438   5.346   7.160  0.4160 -1.8763  1.2744
 9504SOL     OW34474   1.715   3.458  11.009 -0.3434  0.0922 -0.2645
 9504SOL    HW134475   1.668   3.540  11.026  2.4176  1.7035  0.3771
 9504SOL    HW234476   1.729   3.458  10.914  1.4720  1.5902 -0.0659
 9505SOL     OW34477   3.625   4.464  11.237 -0.1712 -0.0342 -0.2733
 9505SOL    HW134478   3.630   4.559  11.229 -2.1831  0.2175  0.7403
 9505SOL    HW234479   3.631   4.432  11.147 -3.5381  1.3843 -1.1705
 9506SOL     OW34480   1.651   9.005  10.414  0.2904  0.0778 -0.5559
 9506SOL    HW134481   1.653   8.928  10.472 -0.3984  0.8809  0.5646
 9506SOL    HW234482   1.624   8.970  10.329 -3.3121 -0.5295  0.6703
 9507SOL     OW34483  10.584   9.944   0.528 -0.3290 -0.5993  0.5296
 9507SOL    HW134484  10.633   9.906   0.455  0.8873 -2.4450  2.2108
 9507SOL    HW234485  10.591   9.880   0.598 -1.3939  1.1261  2.3294
 9508SOL     OW34486   4.828   5.441   4.639  0.0848 -0.4444  0.1019
 9508SOL    HW134487   4.908   5.487   4.662  1.1520 -1.5588 -1.2110
 9508SOL    HW234488   4.789   5.418   4.723  1.2438 -0.0655  0.7666
 9509SOL     OW34489   3.333  11.928   7.930 -0.1632 -0.3069  0.2255
 9509SOL    HW134490   3.357  11.836   7.929 -2.1996 -0.9207  1.8042
 9509SOL    HW234491   3.286  11.940   8.012  0.2176  2.2043  0.1453
 9510SOL     OW34492   0.161   1.368   7.040 -0.0476  0.1594 -0.1703
 9510SOL    HW134493   0.104   1.425   7.091  0.2687  0.3810 -0.0599
 9510SOL    HW234494   0.144   1.392   6.949 -0.4931 -0.1239 -0.1676
 9511SOL     OW34495   1.877   8.750  11.756 -0.4364 -0.7863 -0.0184
 9511SOL    HW134496   1.819   8.794  11.818 -1.7768 -0.8289 -1.1886
 9511SOL    HW234497   1.878   8.659  11.785  1.0369 -0.3450  1.4427
 9512SOL     OW34498  12.096   2.863  11.536 -0.0265  0.0143  0.3207
 9512SOL    HW134499  12.116   2.956  11.525  0.5121 -0.1376  0.0042
 9512SOL    HW234500  12.004   2.862  11.563 -1.3258  0.4916 -3.4226
 9513SOL     OW34501   3.808  11.321  12.014 -0.1760 -0.2048 -0.0554
 9513SOL    HW134502   3.807  11.254  12.082 -0.1540  0.8662  1.0311
 9513SOL    HW234503   3.728  11.372  12.029  0.5998  0.9959  0.1766
 9514SOL     OW34504   2.106   8.018  10.559 -0.0086  0.7767 -0.1520
 9514SOL    HW134505   2.171   7.969  10.509 -0.2372 -0.5302  0.7880
 9514SOL    HW234506   2.158   8.063  10.627  0.1408  1.4726 -0.7102
 9515SOL     OW34507   1.953  11.849   4.843  0.2403  0.3044 -0.4333
 9515SOL    HW134508   1.968  11.889   4.758  0.1612  0.5915 -0.3143
 9515SOL    HW234509   1.864  11.876   4.867 -0.0572 -0.4742 -0.6393
 9516SOL     OW34510   2.056   5.291  11.383  0.3223  0.4507 -0.5447
 9516SOL    HW134511   1.992   5.236  11.429  0.5426  0.8397  0.2622
 9516SOL    HW234512   2.140   5.271  11.427  0.6846  0.2515 -1.3138
 9517SOL     OW34513   0.653   1.384   4.468  0.2943 -0.3230  0.0887
 9517SOL    HW134514   0.690   1.374   4.381 -0.2380 -0.9990 -0.0718
 9517SOL    HW234515   0.631   1.295   4.496  0.3638 -0.1077  0.8700
 9518SOL     OW34516   7.308  12.185   5.979 -0.1013  0.1673  0.1303
 9518SOL    HW134517   7.300  12.267   6.027 -0.0926  0.5899 -0.5723
 9518SOL    HW234518   7.393  12.151   6.004 -1.4600 -1.4103  3.1282
 9519SOL     OW34519   3.122   5.624  10.175 -0.2117 -0.3579  0.1552
 9519SOL    HW134520   3.196   5.684  10.178 -0.0651 -0.5440  0.3126
 9519SOL    HW234521   3.118   5.595  10.084 -2.6040  2.7486 -0.9241
 9520SOL     OW34522   7.635   5.542   3.863  0.1593  0.2222  0.3309
 9520SOL    HW134523   7.679   5.566   3.945  1.3618 -1.7152  0.3135
 9520SOL    HW234524   7.566   5.481   3.890  0.1406  0.0868 -0.0180
 9521SOL     OW34525   8.111   7.353   2.679  0.0882 -0.1104  0.6795
 9521SOL    HW134526   8.163   7.286   2.723  0.0032 -0.2324  0.5929
 9521SOL    HW234527   8.160   7.434   2.692  1.8882 -0.6759 -2.0144
 9522SOL     OW34528   2.195   0.822   9.966  0.6620 -0.2880  0.4614
 9522SOL    HW134529   2.235   0.881   9.901 -2.9167  1.5379 -0.3362
 9522SOL    HW234530   2.186   0.739   9.920 -1.1859  0.7919 -1.3039
 9523SOL     OW34531   5.747   3.807   9.808  0.0217  1.1170 -0.3661
 9523SOL    HW134532   5.841   3.823   9.800  0.2058 -0.0398 -0.6053
 9523SOL    HW234533   5.707   3.864   9.742  0.7372 -0.2274 -2.0141
 9524SOL     OW34534   6.781   5.882  11.652  0.0075 -0.0175 -0.2716
 9524SOL    HW134535   6.807   5.906  11.564 -3.0381  0.9583 -1.0341
 9524SOL    HW234536   6.802   5.959  11.705  0.3416  0.0348 -0.4806
 9525SOL     OW34537   7.310   0.834   9.711 -0.6034 -0.2156 -0.0052
 9525SOL    HW134538   7.219   0.811   9.692 -1.2524 -0.1906  2.6548
 9525SOL    HW234539   7.314   0.929   9.697 -0.9634 -0.2301 -0.2118
 9526SOL     OW34540   9.617   9.885   8.707  0.1681 -0.1379 -0.5040
 9526SOL    HW134541   9.691   9.840   8.748 -0.8125 -1.3461  0.0128
 9526SOL    HW234542   9.623   9.975   8.738  1.9630  0.0385 -1.2472
 9527SOL     OW34543   5.223  10.173  10.888 -0.0591  0.1285 -0.5677
 9527SOL    HW134544   5.183  10.130  10.813  0.4075 -0.1591 -0.6528
 9527SOL    HW234545   5.289  10.111  10.920 -0.2730  0.2304  0.0980
 9528SOL     OW34546   9.511   7.723   0.976 -0.1403 -0.0141  0.8230
 9528SOL    HW134547   9.487   7.782   1.048  0.9012  1.1926  0.2288
 9528SOL    HW234548   9.484   7.637   1.006 -5.1488  1.0772  0.2538
 9529SOL     OW34549   3.753   4.559   8.475 -0.3858  0.6650 -0.0706
 9529SOL    HW134550   3.837   4.564   8.429 -0.5239  1.5229 -0.2451
 9529SOL    HW234551   3.774   4.581   8.566 -0.1318 -0.9223  0.2854
 9530SOL     OW34552   9.011   6.095   5.138  0.0444 -0.2054 -0.5207
 9530SOL    HW134553   8.965   6.043   5.072 -0.8013  0.0078 -0.0983
 9530SOL    HW234554   9.077   6.143   5.087  0.1206 -0.8611 -1.0613
 9531SOL     OW34555   4.207   0.180   3.950  0.0351  0.4267 -0.0004
 9531SOL    HW134556   4.124   0.227   3.936 -0.9436 -0.6028  1.9451
 9531SOL    HW234557   4.220   0.182   4.044  2.2198  0.4666 -0.2646
 9532SOL     OW34558   5.962   2.640   7.379 -0.1968 -0.0928 -0.3907
 9532SOL    HW134559   6.048   2.675   7.355  0.0715 -1.7540 -2.0529
 9532SOL    HW234560   5.900   2.692   7.329  0.0861 -0.8177 -1.5392
 9533SOL     OW34561   9.695   2.465   9.262  0.3146  0.2947  0.1560
 9533SOL    HW134562   9.771   2.425   9.304  0.1469  0.0586  0.2377
 9533SOL    HW234563   9.683   2.548   9.308  0.2047  0.0932  0.4984
 9534SOL     OW34564  11.352   2.840   2.143  0.2890  0.5609 -0.6739
 9534SOL    HW134565  11.409   2.897   2.194 -0.7617  1.0573 -0.0229
 9534SOL    HW234566  11.365   2.753   2.180  2.4032  0.1961 -2.1061
 9535SOL     OW34567   1.845   8.025   3.284 -0.6095 -0.3660  0.2655
 9535SOL    HW134568   1.889   8.111   3.289 -0.7381 -0.2509 -0.4592
 9535SOL    HW234569   1.887   7.982   3.210 -0.9050 -0.7292  0.3114
 9536SOL     OW34570  10.688  12.473   9.170 -0.1203  0.2400  0.3426
 9536SOL    HW134571  10.633  12.551   9.178 -1.5549 -0.7824  0.8143
 9536SOL    HW234572  10.699  12.461   9.076  0.8375  1.4702  0.2685
 9537SOL     OW34573   8.464   4.184   7.011  0.3862  0.0170  0.3639
 9537SOL    HW134574   8.435   4.255   7.069 -0.0779 -0.0988  0.2791
 9537SOL    HW234575   8.418   4.107   7.043  0.6558 -0.1826  0.2647
 9538SOL     OW34576   0.523   3.786   3.224  0.1040  0.0198 -0.3116
 9538SOL    HW134577   0.510   3.878   3.245 -1.2624  0.4460 -2.7063
 9538SOL    HW234578   0.437   3.746   3.237  0.7594 -1.0512  1.0504
 9539SOL     OW34579   9.624   5.067  11.195  0.5931 -0.0390  0.0042
 9539SOL    HW134580   9.530   5.080  11.213  0.8827 -1.3528  2.9720
 9539SOL    HW234581   9.626   5.001  11.126 -0.7433 -1.9335  1.6677
 9540SOL     OW34582   4.852   9.051   3.075  0.0291 -0.0762 -0.5371
 9540SOL    HW134583   4.909   9.042   3.151 -0.5700 -1.1373 -0.1873
 9540SOL    HW234584   4.909   9.036   3.000  0.1112 -1.9267 -0.1653
 9541SOL     OW34585   6.067   0.374  10.091  1.2946 -0.6168  0.0092
 9541SOL    HW134586   6.155   0.410  10.103  0.2792  1.4741  1.7727
 9541SOL    HW234587   6.009   0.450  10.099 -0.7467 -2.0891 -0.1556
 9542SOL     OW34588  10.328   8.973   8.374  0.3568 -0.1807  0.4687
 9542SOL    HW134589  10.418   9.007   8.375  0.3775 -0.0629 -1.2598
 9542SOL    HW234590  10.339   8.878   8.372  0.5679 -0.1698 -1.6374
 9543SOL     OW34591   8.065   3.599   5.513 -0.6774  0.0216  0.1095
 9543SOL    HW134592   8.129   3.530   5.531 -0.6739  0.2769  1.1057
 9543SOL    HW234593   7.982   3.552   5.504 -0.6655 -0.1228  0.7226
 9544SOL     OW34594   1.633   0.243   7.897 -0.2557 -0.4971  0.7656
 9544SOL    HW134595   1.539   0.239   7.913 -1.2367  2.8061 -2.7854
 9544SOL    HW234596   1.647   0.183   7.823  0.3360 -0.4600  0.8397
 9545SOL     OW34597   9.350  10.148   6.202  0.1797  0.3893 -0.0792
 9545SOL    HW134598   9.276  10.200   6.172  0.8902  1.2399 -0.4014
 9545SOL    HW234599   9.427  10.199   6.177  0.9554 -1.3866 -1.4737
 9546SOL     OW34600   9.827   5.097  11.621  0.1638  0.0550  0.0331
 9546SOL    HW134601   9.838   5.077  11.528  0.3164  1.1108 -0.1843
 9546SOL    HW234602   9.737   5.073  11.640  0.8012 -2.4808  0.2352
 9547SOL     OW34603   3.821  10.414   0.500  0.3638 -0.4065 -0.5437
 9547SOL    HW134604   3.898  10.373   0.538  2.0691  3.0297  0.1386
 9547SOL    HW234605   3.852  10.449   0.416 -0.2345  1.4555 -0.0350
 9548SOL     OW34606   8.237   8.490   6.453  0.4321  0.6079  0.2600
 9548SOL    HW134607   8.242   8.396   6.434 -2.3876  0.2478  0.7869
 9548SOL    HW234608   8.274   8.498   6.541  0.7546 -0.0118  0.1888
 9549SOL     OW34609   6.945   1.402   9.171  0.3442 -0.3441  0.5596
 9549SOL    HW134610   6.870   1.348   9.197  0.1346  0.0564  0.7988
 9549SOL    HW234611   6.984   1.429   9.254  1.9137 -2.1158  0.4629
 9550SOL     OW34612   4.413   2.644   2.238 -0.6095  0.4046 -0.2989
 9550SOL    HW134613   4.472   2.647   2.313  0.7206 -2.9925 -1.0100
 9550SOL    HW234614   4.465   2.678   2.165 -0.8733  0.9086 -0.2590
 9551SOL     OW34615   0.100   0.624   0.645  0.1136  0.8703 -0.5818
 9551SOL    HW134616   0.177   0.571   0.665  0.3304  1.3519 -0.1162
 9551SOL    HW234617   0.029   0.561   0.636  0.0693  0.5668  1.3835
 9552SOL     OW34618   6.278   8.577   5.786  0.3567 -0.1044  0.0020
 9552SOL    HW134619   6.239   8.664   5.786  0.8577  0.1234 -0.3996
 9552SOL    HW234620   6.208   8.520   5.754 -0.1773  0.0464  0.8750
 9553SOL     OW34621   3.678   5.248   8.566 -0.6429  0.9476 -0.6529
 9553SOL    HW134622   3.666   5.343   8.572 -0.0933  0.9125  2.8885
 9553SOL    HW234623   3.759   5.231   8.615 -0.9015 -1.4055 -0.9241
 9554SOL     OW34624  10.549   5.838  11.776 -0.1784  0.0988 -0.1070
 9554SOL    HW134625  10.627   5.789  11.802  0.6893  0.3356 -2.0721
 9554SOL    HW234626  10.480   5.773  11.773  0.5438 -0.6650 -0.8372
 9555SOL     OW34627  10.071   0.507   2.262  0.3160 -0.1880 -0.8486
 9555SOL    HW134628   9.984   0.468   2.254  0.7191 -1.2332 -0.4006
 9555SOL    HW234629  10.129   0.445   2.217  1.2046 -1.0394  1.2971
 9556SOL     OW34630   2.084   3.732   2.649  0.2421 -0.6394  0.1787
 9556SOL    HW134631   2.024   3.691   2.586  0.7649  1.2405 -1.6626
 9556SOL    HW234632   2.026   3.774   2.713 -0.6092  2.1841 -2.2354
 9557SOL     OW34633   3.554   4.854   7.732  0.2481 -0.1031  0.1300
 9557SOL    HW134634   3.578   4.929   7.787 -0.0196  0.0517  0.0389
 9557SOL    HW234635   3.549   4.891   7.644 -0.9736  0.0249  0.2292
 9558SOL     OW34636   7.761   9.257  11.356 -0.0756 -0.3755 -0.5321
 9558SOL    HW134637   7.785   9.348  11.373 -2.4521  0.2475 -0.1675
 9558SOL    HW234638   7.787   9.210  11.435 -0.7949  0.4042  0.1777
 9559SOL     OW34639  11.428   9.364   8.555  0.0733 -0.3895 -0.3617
 9559SOL    HW134640  11.370   9.305   8.604  0.1869  0.0334  0.2991
 9559SOL    HW234641  11.496   9.306   8.520 -0.0764 -0.7206 -0.1168
 9560SOL     OW34642   6.734   0.018   3.624 -0.4472  0.4330 -0.0556
 9560SOL    HW134643   6.734   0.036   3.530 -1.9533  1.4070  0.0911
 9560SOL    HW234644   6.816   0.055   3.656 -0.1566  0.5437 -0.9080
 9561SOL     OW34645   7.505   7.957   4.669 -0.2371  0.1315  0.8422
 9561SOL    HW134646   7.428   8.000   4.706  0.2349  1.0865  0.7386
 9561SOL    HW234647   7.578   8.013   4.696  0.4166 -0.7211  0.8783
 9562SOL     OW34648   2.305   4.963  11.762  0.0597 -0.2095 -0.1165
 9562SOL    HW134649   2.358   4.897  11.805  0.2112 -1.2610 -1.8194
 9562SOL    HW234650   2.352   5.045  11.776 -0.3652 -0.3224  2.4173
 9563SOL     OW34651   0.230   3.172   7.274 -0.5364 -0.3864 -0.1140
 9563SOL    HW134652   0.291   3.103   7.247  0.4008  0.4349 -0.1379
 9563SOL    HW234653   0.250   3.185   7.367 -0.3177  0.2422 -0.2482
 9564SOL     OW34654   6.490   3.713   8.049 -0.8810  0.2787 -0.1103
 9564SOL    HW134655   6.578   3.676   8.049 -1.1712 -0.7025  3.0747
 9564SOL    HW234656   6.503   3.807   8.037  0.4614 -0.0082 -1.0726
 9565SOL     OW34657   4.085   4.325   4.090 -0.5760 -0.4375  0.5843
 9565SOL    HW134658   4.115   4.308   4.180 -0.5869 -0.8882  0.5045
 9565SOL    HW234659   4.160   4.304   4.035  0.1561  1.8524  0.6012
 9566SOL     OW34660   5.639   6.445   8.992  0.3274 -0.5507  0.1861
 9566SOL    HW134661   5.639   6.351   8.973  0.1625 -1.1221  2.6340
 9566SOL    HW234662   5.648   6.450   9.087 -0.1062  1.9217  0.1645
 9567SOL     OW34663  10.211   6.379   0.728  0.4239 -0.8693 -0.0588
 9567SOL    HW134664  10.245   6.464   0.756 -0.4483 -0.3665 -0.4869
 9567SOL    HW234665  10.117   6.384   0.745  0.4581 -2.0185  0.5737
 9568SOL     OW34666   4.480   5.873  12.415 -0.1978  0.1258 -0.2498
 9568SOL    HW134667   4.529   5.924  12.351 -2.0079  0.8950 -1.1021
 9568SOL    HW234668   4.478   5.784  12.378 -0.7121  0.4296 -0.9851
 9569SOL     OW34669   0.583  10.230   1.546  0.2780  0.0558  0.3899
 9569SOL    HW134670   0.622  10.154   1.590 -0.4887  0.7837  2.4473
 9569SOL    HW234671   0.516  10.192   1.489 -0.2585 -0.8218  1.5692
 9570SOL     OW34672   3.894   7.063   8.149  0.0566 -0.0938  0.1896
 9570SOL    HW134673   3.895   7.159   8.142 -1.9056 -0.1651 -1.6867
 9570SOL    HW234674   3.906   7.032   8.060 -3.4588 -1.4920  0.0665
 9571SOL     OW34675  12.128   5.940   2.702 -0.1509 -0.2273  0.4245
 9571SOL    HW134676  12.199   5.907   2.757 -0.2383  0.3969  0.9231
 9571SOL    HW234677  12.121   5.877   2.631 -0.0116 -1.0341  1.1110
 9572SOL     OW34678  10.822   3.894   9.151  0.4283 -0.4014 -0.6791
 9572SOL    HW134679  10.917   3.907   9.159  0.2821 -0.1717  0.9415
 9572SOL    HW234680  10.794   3.965   9.093  1.0760  0.3179 -0.1406
 9573SOL     OW34681   6.556  10.420  11.933  0.2438  0.0044  0.2261
 9573SOL    HW134682   6.474  10.468  11.942  0.0083 -0.4734  0.6857
 9573SOL    HW234683   6.620  10.486  11.908  0.1430  0.7454  1.7878
 9574SOL     OW34684   8.729   0.655   5.949  0.7103 -0.4533  0.3211
 9574SOL    HW134685   8.686   0.640   6.033 -0.6399  0.2633 -0.2141
 9574SOL    HW234686   8.683   0.597   5.888  0.8284 -0.0355 -0.1733
 9575SOL     OW34687   1.737   8.270  11.378 -0.6144  0.4424  0.5567
 9575SOL    HW134688   1.801   8.281  11.449 -0.2651 -1.4776  0.5789
 9575SOL    HW234689   1.749   8.348  11.323  0.5863  0.9277  1.4647
 9576SOL     OW34690   9.955   0.521   1.940 -0.0725  0.1189 -0.3865
 9576SOL    HW134691   9.918   0.449   1.991 -0.1908  1.2486  1.2071
 9576SOL    HW234692   9.885   0.587   1.938  1.0099  1.3735  0.7589
 9577SOL     OW34693  10.985  10.110   7.923  0.3359 -0.0955 -0.0913
 9577SOL    HW134694  10.940  10.081   7.843  0.0889  0.5209 -0.1823
 9577SOL    HW234695  11.055  10.167   7.891  1.5663 -1.5084  0.0160
 9578SOL     OW34696   8.668   4.426   1.571  0.7838  0.3985 -0.3475
 9578SOL    HW134697   8.702   4.514   1.590  2.5945 -0.4734  0.7622
 9578SOL    HW234698   8.723   4.395   1.498  0.5859 -0.0544 -0.3049
 9579SOL     OW34699   5.224   3.863   1.300  0.2034  0.2682  0.4029
 9579SOL    HW134700   5.205   3.770   1.313 -0.1775  0.3199  0.2438
 9579SOL    HW234701   5.183   3.906   1.376 -1.0296  0.4586 -0.3339
 9580SOL     OW34702   6.508   4.459   6.014  0.0312  0.0502 -0.5359
 9580SOL    HW134703   6.494   4.372   6.051 -0.4285  0.5488  0.5047
 9580SOL    HW234704   6.421   4.489   5.989  0.2053  0.1570 -1.0189
 9581SOL     OW34705   7.179   8.316  10.085 -0.0852 -0.3708 -0.2547
 9581SOL    HW134706   7.238   8.247  10.058  1.0942  0.6715 -0.4119
 9581SOL    HW234707   7.235   8.392  10.102 -0.9777 -0.2263  2.7473
 9582SOL     OW34708   9.799   0.466   4.668 -0.4463  0.0411  0.2422
 9582SOL    HW134709   9.788   0.541   4.726 -1.3860 -0.3533  0.6032
 9582SOL    HW234710   9.739   0.483   4.595 -1.9050 -1.0911  1.1187
 9583SOL     OW34711   4.314   9.912   1.402 -0.4775 -0.7482  0.2978
 9583SOL    HW134712   4.288  10.004   1.410 -1.0847 -0.8966  0.0199
 9583SOL    HW234713   4.312   9.895   1.308  0.2927 -0.8625  0.2928
 9584SOL     OW34714   0.020  11.023   2.858  0.7081  0.0258  0.6648
 9584SOL    HW134715  -0.058  10.976   2.828  0.4471 -0.4377  1.9901
 9584SOL    HW234716   0.024  11.101   2.803 -0.5975 -0.0222  0.4667
 9585SOL     OW34717   9.161   0.056  11.832 -0.3965  0.3079  0.3442
 9585SOL    HW134718   9.103   0.087  11.902  1.1096  0.4617  1.5920
 9585SOL    HW234719   9.225   0.127  11.822 -0.9115  0.5439 -1.6289
 9586SOL     OW34720   5.644   0.048   9.316 -0.5227  0.2661  0.4397
 9586SOL    HW134721   5.634  -0.048   9.320 -1.1685  0.3291  0.3874
 9586SOL    HW234722   5.554   0.081   9.317 -0.3462  0.8284 -1.0206
 9587SOL     OW34723   5.917   0.012   6.486  0.0466  0.3623 -0.6309
 9587SOL    HW134724   5.861  -0.009   6.560  1.7265 -2.9365 -0.1262
 9587SOL    HW234725   5.974   0.082   6.518 -1.3897  1.2885  0.0026
 9588SOL     OW34726   1.871   6.216   2.476 -0.0255 -0.3082  0.0147
 9588SOL    HW134727   1.950   6.249   2.519 -0.9080  0.1911  1.3214
 9588SOL    HW234728   1.903   6.167   2.401  1.4725  0.7711 -0.0871
 9589SOL     OW34729   0.545   7.318  10.228 -0.2415  0.3049  0.6887
 9589SOL    HW134730   0.589   7.378  10.167  2.1954  0.3340  2.3326
 9589SOL    HW234731   0.508   7.376  10.295 -0.1379  0.1068  0.9158
 9590SOL     OW34732  10.230   5.228   4.983  0.2164 -0.4825 -0.1303
 9590SOL    HW134733  10.208   5.167   4.912  0.0886 -0.6995  0.0952
 9590SOL    HW234734  10.236   5.313   4.940  0.5603 -0.6788 -0.4766
 9591SOL     OW34735  12.210   1.598   6.152 -0.2868  0.3518 -0.0565
 9591SOL    HW134736  12.204   1.601   6.247 -0.0131 -3.2512  0.2210
 9591SOL    HW234737  12.260   1.519   6.133 -2.3061 -0.3977 -3.2088
 9592SOL     OW34738   6.240   3.395   5.171 -0.0322  0.6522 -0.5788
 9592SOL    HW134739   6.221   3.330   5.239  0.5988  1.4583  0.3941
 9592SOL    HW234740   6.335   3.392   5.160  0.0937  1.8316 -0.0442
 9593SOL     OW34741  10.966   9.531   9.062 -0.0906 -0.3146 -0.2900
 9593SOL    HW134742  11.000   9.467   9.125  1.6822  1.1059  0.2818
 9593SOL    HW234743  10.962   9.483   8.979  1.0907 -1.2147  0.1510
 9594SOL     OW34744   3.404   2.632   0.778 -0.9424  0.2524 -0.4855
 9594SOL    HW134745   3.491   2.599   0.797 -1.0881  1.2127  2.3068
 9594SOL    HW234746   3.415   2.682   0.697  1.8346  2.6721  1.1812
 9595SOL     OW34747   6.155   8.447  10.565 -0.4764 -0.4075 -0.8915
 9595SOL    HW134748   6.222   8.509  10.537  0.2780 -0.7129  0.1922
 9595SOL    HW234749   6.097   8.439  10.489  0.0881  0.6951 -1.4642
 9596SOL     OW34750   3.865  11.132   0.927  0.2877  0.0391 -0.4349
 9596SOL    HW134751   3.838  11.124   1.018  0.2752 -0.0053 -0.4424
 9596SOL    HW234752   3.817  11.209   0.894  0.1313 -0.0698 -0.4617
 9597SOL     OW34753   9.773  11.124   8.432 -0.5166 -0.1624 -0.3213
 9597SOL    HW134754   9.858  11.125   8.477 -0.4412  2.1815 -0.4287
 9597SOL    HW234755   9.709  11.111   8.503 -0.1833 -0.0692 -0.0017
 9598SOL     OW34756   3.997   9.932  12.467  0.0484  0.0762  0.0716
 9598SOL    HW134757   3.988  10.015  12.420 -1.3881 -0.1727 -0.1321
 9598SOL    HW234758   4.086   9.903  12.446  0.7842  1.8125  0.6001
 9599SOL     OW34759   9.273   4.234   7.385 -0.1912  0.6162 -0.3378
 9599SOL    HW134760   9.213   4.186   7.328  0.7726 -1.2879  0.1670
 9599SOL    HW234761   9.223   4.311   7.413 -3.0207 -1.6132  1.2804
 9600SOL     OW34762   2.286  11.625   0.258 -0.0595 -0.0227 -0.0113
 9600SOL    HW134763   2.352  11.694   0.247 -0.2870 -0.0701 -2.1883
 9600SOL    HW234764   2.241  11.648   0.339  2.1431  0.3910  1.1798
 9601SOL     OW34765  10.307  10.399   8.672  0.0820 -0.4054  0.9108
 9601SOL    HW134766  10.230  10.402   8.615 -0.1587 -1.7580  1.1290
 9601SOL    HW234767  10.321  10.306   8.688  2.9015 -0.3363 -0.6032
 9602SOL     OW34768   0.013   1.795   0.519  0.1568  0.3279 -0.3829
 9602SOL    HW134769   0.059   1.781   0.601  1.0902  2.1374 -0.5423
 9602SOL    HW234770  -0.039   1.715   0.506 -2.5232  1.1342  3.5411
 9603SOL     OW34771   3.550   1.338   8.753  0.5837 -0.1989 -0.7155
 9603SOL    HW134772   3.487   1.272   8.782  0.9652 -1.3649 -2.3628
 9603SOL    HW234773   3.496   1.411   8.722  0.1593  0.4046  1.2997
 9604SOL     OW34774   6.901  10.325  10.411  0.3184 -0.1955 -0.5909
 9604SOL    HW134775   6.895  10.414  10.446 -0.1324 -0.6821  0.6311
 9604SOL    HW234776   6.966  10.282  10.467 -0.3343 -0.9607 -0.4030
 9605SOL     OW34777   1.007   2.180   1.619 -0.1566 -0.0088  0.0999
 9605SOL    HW134778   0.938   2.236   1.655 -2.0903 -3.6117  2.6465
 9605SOL    HW234779   0.973   2.152   1.535  0.9537  2.5927 -1.3380
 9606SOL     OW34780   2.705  11.811   1.688  0.3135 -0.1180 -0.0427
 9606SOL    HW134781   2.627  11.861   1.710 -0.1045 -0.2051 -1.2685
 9606SOL    HW234782   2.729  11.767   1.770 -1.4981 -0.8931  0.1209
 9607SOL     OW34783  11.000  12.461   3.702 -0.1489  0.1140 -0.0449
 9607SOL    HW134784  10.913  12.497   3.687 -0.7533 -1.7890 -1.3658
 9607SOL    HW234785  10.987  12.389   3.764  0.8171  1.0821  1.3532
 9608SOL     OW34786   4.614   3.808   4.726  0.3148  0.2349  0.2335
 9608SOL    HW134787   4.638   3.789   4.635 -0.0045  0.7795  0.0334
 9608SOL    HW234788   4.587   3.724   4.762  0.1631  0.0702 -0.2608
 9609SOL     OW34789   8.775   2.327   1.165  0.0722  0.3404  0.3634
 9609SOL    HW134790   8.691   2.346   1.207  1.2811  0.5532  2.8000
 9609SOL    HW234791   8.804   2.411   1.131 -0.3460  0.3992  0.1399
 9610SOL     OW34792   8.207   2.460   1.605  0.1569  0.0866  0.4785
 9610SOL    HW134793   8.208   2.433   1.697 -0.3949 -0.3153  0.3660
 9610SOL    HW234794   8.201   2.379   1.555 -2.5962  0.3919  0.1651
 9611SOL     OW34795  10.709   1.601   3.982 -0.1303  0.4647 -0.4641
 9611SOL    HW134796  10.761   1.526   4.012  0.4389  1.4237  1.1173
 9611SOL    HW234797  10.773   1.673   3.976 -0.9007  1.1519 -0.5503
 9612SOL     OW34798   2.466   1.708   1.183  0.0285 -0.5452 -0.0290
 9612SOL    HW134799   2.481   1.672   1.271 -0.2396  2.6584  1.4859
 9612SOL    HW234800   2.542   1.763   1.166 -0.1614 -0.7321 -1.6205
 9613SOL     OW34801   1.806   0.827   8.035  0.4105  0.0643  0.1841
 9613SOL    HW134802   1.868   0.848   7.965  1.4917 -0.8510  0.8450
 9613SOL    HW234803   1.815   0.898   8.098 -1.2582  1.4125 -0.9889
 9614SOL     OW34804   5.665  12.051  10.595 -0.3891  0.2701  0.1307
 9614SOL    HW134805   5.593  12.111  10.615 -2.8564 -1.1565 -3.4677
 9614SOL    HW234806   5.665  11.988  10.667 -2.2667  0.7479  0.6045
 9615SOL     OW34807   4.591   0.831   4.769 -0.4304  1.0372  0.2262
 9615SOL    HW134808   4.625   0.777   4.698 -1.5606  0.7635 -0.1340
 9615SOL    HW234809   4.649   0.907   4.772  0.5677  0.2984  0.0664
 9616SOL     OW34810   3.978   2.428  10.086 -0.2919  0.6755  0.0478
 9616SOL    HW134811   4.033   2.477  10.147 -0.1534 -0.5970  0.9997
 9616SOL    HW234812   3.892   2.470  10.091 -0.5933 -0.0522  2.0090
 9617SOL     OW34813  12.467   1.046   6.219 -0.1124  0.2856 -0.5807
 9617SOL    HW134814  12.494   1.077   6.133  0.4921  0.4560 -0.3342
 9617SOL    HW234815  12.378   1.080   6.231 -0.1168  0.4396 -1.0441
 9618SOL     OW34816   9.559   4.907   8.090 -0.2281  0.6136 -0.0541
 9618SOL    HW134817   9.551   4.886   8.183  0.0263  1.1691  0.0933
 9618SOL    HW234818   9.554   4.822   8.046 -0.1534  0.3306  0.4789
 9619SOL     OW34819  11.837   0.604   2.088 -0.0800 -0.3093  0.1034
 9619SOL    HW134820  11.807   0.522   2.126 -0.0632 -2.2568 -3.6257
 9619SOL    HW234821  11.757   0.652   2.067 -0.1989 -0.5139  0.0891
 9620SOL     OW34822   0.114   4.767   2.424  0.5668  0.4896  0.0622
 9620SOL    HW134823   0.162   4.836   2.468 -0.1859  0.1213  1.5160
 9620SOL    HW234824   0.149   4.686   2.460  2.3988 -0.0494 -2.5887
 9621SOL     OW34825  10.355   9.279  11.219 -0.2359  0.0794 -0.1108
 9621SOL    HW134826  10.410   9.279  11.297 -3.1805 -0.6523  2.1751
 9621SOL    HW234827  10.374   9.196  11.175  0.5243 -0.1096  0.5511
 9622SOL     OW34828   9.057  12.034  12.435 -0.2333 -0.1407  0.3900
 9622SOL    HW134829   9.013  12.111  12.471  0.2993 -0.1839  1.1463
 9622SOL    HW234830   9.067  11.974  12.509  1.1410 -0.1035  0.2587
 9623SOL     OW34831   9.807   3.583   9.650  0.3316  0.1864 -0.3238
 9623SOL    HW134832   9.810   3.498   9.694 -0.1736  1.5069  2.5172
 9623SOL    HW234833   9.857   3.641   9.707 -2.2732  2.5551 -0.2068
 9624SOL     OW34834   7.238   6.152   2.691 -0.1743 -0.1082  0.1487
 9624SOL    HW134835   7.296   6.205   2.637  0.2273  1.2981  1.8670
 9624SOL    HW234836   7.254   6.062   2.663 -0.2733  0.5632 -2.2849
 9625SOL     OW34837   9.450   0.784   3.418 -0.0760 -0.2464 -0.3888
 9625SOL    HW134838   9.419   0.695   3.437  0.1031 -0.3597 -0.6159
 9625SOL    HW234839   9.528   0.794   3.472  1.6661 -1.3393 -2.5528
 9626SOL     OW34840   4.841  10.785   8.697 -0.1038  0.1395 -0.7056
 9626SOL    HW134841   4.856  10.873   8.730  0.5735 -0.4104  0.5124
 9626SOL    HW234842   4.747  10.782   8.677 -1.2861 -0.2751  3.7850
 9627SOL     OW34843   7.893   5.747   9.368  0.0837 -0.1576 -0.3642
 9627SOL    HW134844   7.819   5.692   9.340 -1.2121  1.0867  0.4922
 9627SOL    HW234845   7.854   5.833   9.385  2.0407  1.0222 -1.5570
 9628SOL     OW34846  10.464  10.516   4.048 -0.0458  0.3188  0.5438
 9628SOL    HW134847  10.423  10.507   4.135  0.5414 -0.0693  0.7860
 9628SOL    HW234848  10.445  10.433   4.004 -0.6556  0.6542  0.1555
 9629SOL     OW34849   2.708   7.746   7.542 -0.1823  0.1403 -0.1023
 9629SOL    HW134850   2.649   7.764   7.615 -0.5566  0.4520 -0.4758
 9629SOL    HW234851   2.679   7.661   7.508 -1.4226  0.9640 -1.2298
 9630SOL     OW34852   9.796  10.157   1.198  0.3511  0.6678 -0.4011
 9630SOL    HW134853   9.806  10.193   1.286  0.7513 -0.8321  0.1987
 9630SOL    HW234854   9.835  10.223   1.140  0.9637  1.2284  0.6250
 9631SOL     OW34855   3.572   3.858   8.003  0.1420 -0.2138  0.3652
 9631SOL    HW134856   3.546   3.939   7.961  2.1521 -0.1514 -0.8876
 9631SOL    HW234857   3.490   3.817   8.031 -0.9491  1.8067  0.2354
 9632SOL     OW34858   9.431   4.623   1.599  0.0995 -0.0286 -0.4860
 9632SOL    HW134859   9.459   4.607   1.509 -0.8278 -0.1229 -0.7642
 9632SOL    HW234860   9.512   4.619   1.650  0.4146 -1.6803 -1.0674
 9633SOL     OW34861  12.327   4.348   0.025 -0.0512 -0.1081  0.3416
 9633SOL    HW134862  12.344   4.323   0.115  1.8279 -3.7452 -0.8317
 9633SOL    HW234863  12.381   4.427   0.011  0.9676 -0.4890  1.9312
 9634SOL     OW34864   5.194   7.473   7.305 -0.3219 -0.3127 -0.7243
 9634SOL    HW134865   5.162   7.563   7.311  0.0771 -0.0765 -1.9874
 9634SOL    HW234866   5.222   7.452   7.394 -1.1169  0.5355 -0.2522
 9635SOL     OW34867   0.823   2.405   3.581  0.2757  0.0128  0.3780
 9635SOL    HW134868   0.851   2.328   3.532 -2.2471 -0.9783  0.3698
 9635SOL    HW234869   0.757   2.446   3.525  0.8790  1.6866  0.8173
 9636SOL     OW34870   9.514   1.056   7.595  0.1879  0.0380  0.0988
 9636SOL    HW134871   9.578   1.127   7.599  1.9467 -1.4809  0.3213
 9636SOL    HW234872   9.429   1.100   7.597  1.1560  2.0318  2.7286
 9637SOL     OW34873   8.415   2.847   1.392  0.4946  0.4852  0.2723
 9637SOL    HW134874   8.324   2.822   1.409  0.7109 -0.7354 -0.2400
 9637SOL    HW234875   8.437   2.908   1.463 -0.6195  0.5535  0.5785
 9638SOL     OW34876   7.426   4.672   4.028 -0.1821 -0.3759 -0.5169
 9638SOL    HW134877   7.360   4.603   4.029 -1.5326  0.8366 -1.3607
 9638SOL    HW234878   7.416   4.716   4.113 -1.2266  0.4643 -1.0551
 9639SOL     OW34879  10.743   6.313   5.397  0.2655 -0.0201  0.4322
 9639SOL    HW134880  10.811   6.247   5.410  0.8814  0.9554  2.8812
 9639SOL    HW234881  10.665   6.275   5.438  0.0279 -0.0796 -0.0652
 9640SOL     OW34882   0.389   3.330  12.224  0.1763  0.2906  0.0543
 9640SOL    HW134883   0.484   3.323  12.230  0.4318  0.9297 -2.2982
 9640SOL    HW234884   0.356   3.254  12.272  1.8389  0.2631  1.2166
 9641SOL     OW34885   6.311   2.163   6.569  0.2054 -0.2432  0.3381
 9641SOL    HW134886   6.295   2.136   6.478  1.4703  2.0805 -0.6420
 9641SOL    HW234887   6.381   2.105   6.599  2.6810  1.5378 -1.6227
 9642SOL     OW34888   6.736   3.771   6.562 -0.8957 -0.2007 -0.1010
 9642SOL    HW134889   6.742   3.846   6.502  0.0901 -0.6195 -0.5613
 9642SOL    HW234890   6.705   3.808   6.644 -1.5362  0.5173 -0.6528
 9643SOL     OW34891  10.250   9.378   8.996  0.5610 -0.3922  0.4201
 9643SOL    HW134892  10.172   9.428   8.971  0.5634 -1.2780 -1.5018
 9643SOL    HW234893  10.304   9.441   9.043 -1.1198  0.3476  1.4813
 9644SOL     OW34894  10.888   5.396  11.666  0.0745  0.5164  0.0763
 9644SOL    HW134895  10.960   5.423  11.609 -1.4539  1.4905 -1.4910
 9644SOL    HW234896  10.813   5.384  11.607 -1.1314 -0.2279  1.6628
 9645SOL     OW34897   5.215   1.418   1.105 -0.4679  0.2339 -0.4098
 9645SOL    HW134898   5.263   1.498   1.127  1.9957 -1.1679 -0.3595
 9645SOL    HW234899   5.264   1.379   1.032  0.6690 -3.0445  1.8691
 9646SOL     OW34900  11.565   1.056   8.253  0.4417  0.1338 -0.2154
 9646SOL    HW134901  11.482   1.082   8.212  1.2065  0.3032 -1.7164
 9646SOL    HW234902  11.631   1.074   8.186  1.7963  0.7579  1.2322
 9647SOL     OW34903   0.070   8.602   5.430  0.3300 -0.6596 -0.0959
 9647SOL    HW134904   0.144   8.617   5.489  0.3566 -1.8329  0.1965
 9647SOL    HW234905  -0.001   8.574   5.488 -0.7663  1.6572 -0.2172
 9648SOL     OW34906   1.027   8.685   2.559 -0.2328  0.3499  0.1380
 9648SOL    HW134907   0.947   8.644   2.590 -0.2971 -0.2323 -0.7621
 9648SOL    HW234908   1.061   8.624   2.493  1.0384  0.4990  0.6239
 9649SOL     OW34909   8.103   0.148   9.511 -0.3678 -0.7316 -0.1557
 9649SOL    HW134910   8.189   0.190   9.508 -0.4312 -0.5987 -0.1249
 9649SOL    HW234911   8.122   0.054   9.518 -0.1916 -0.9720 -2.8664
 9650SOL     OW34912  10.678   8.040   7.423  0.0440 -0.2054  0.0603
 9650SOL    HW134913  10.711   8.026   7.512  0.6294  1.2954  0.1184
 9650SOL    HW234914  10.583   8.035   7.432  0.1441 -1.5908  0.4676
 9651SOL     OW34915   5.015   2.504   2.148  0.0689 -0.6606 -0.4558
 9651SOL    HW134916   4.965   2.566   2.201 -0.9981 -2.0855  0.2681
 9651SOL    HW234917   5.082   2.557   2.106 -1.9004  1.3269 -1.3084
 9652SOL     OW34918   1.321   3.482   0.549  0.1626 -0.5010 -0.1374
 9652SOL    HW134919   1.330   3.564   0.598  1.4558 -0.9031  0.3378
 9652SOL    HW234920   1.384   3.489   0.478 -0.3669 -0.7182 -0.6383
 9653SOL     OW34921  11.386   7.694   7.004 -0.0300  0.6743  0.2756
 9653SOL    HW134922  11.392   7.779   7.049 -0.9624  0.5691  0.6229
 9653SOL    HW234923  11.356   7.716   6.915  0.6005  0.7797  0.0868
 9654SOL     OW34924   0.908   5.434   8.013  0.4912  0.2662  0.0971
 9654SOL    HW134925   0.917   5.490   7.937  0.5229 -0.9343 -0.8067
 9654SOL    HW234926   0.831   5.468   8.059 -1.0482 -0.4611 -1.7952
 9655SOL     OW34927   9.937   8.476  10.594 -0.0045 -0.3808 -0.3463
 9655SOL    HW134928   9.930   8.554  10.538 -1.2723 -0.5528 -0.4516
 9655SOL    HW234929  10.013   8.429  10.560 -1.1529 -0.8452 -2.4055
 9656SOL     OW34930   9.207   1.597   2.675 -0.4966  0.2050 -0.0596
 9656SOL    HW134931   9.233   1.518   2.629 -0.2411  0.6409 -0.6898
 9656SOL    HW234932   9.280   1.616   2.734  0.2552  0.9149 -1.1613
 9657SOL     OW34933   0.275   1.182  10.290 -0.4874 -0.1495 -0.8593
 9657SOL    HW134934   0.328   1.239  10.235 -0.7121  0.0430 -0.8790
 9657SOL    HW234935   0.288   1.216  10.379 -1.0364  0.2735 -0.9288
 9658SOL     OW34936  10.497   6.928  11.123  0.1342 -0.2368 -0.0597
 9658SOL    HW134937  10.592   6.921  11.131  0.2510  2.0023  1.5392
 9658SOL    HW234938  10.473   6.863  11.057  2.8861 -0.0941 -1.3251
 9659SOL     OW34939   4.521   1.061   1.993 -0.5731 -0.2195 -0.2026
 9659SOL    HW134940   4.535   1.133   1.932 -1.5376  0.2311  0.0930
 9659SOL    HW234941   4.523   0.982   1.938 -1.3271  0.1706 -0.8043
 9660SOL     OW34942   8.278  10.855   2.494  0.5595 -0.2075 -0.6353
 9660SOL    HW134943   8.297  10.849   2.401  1.1638  1.8403 -0.6961
 9660SOL    HW234944   8.202  10.913   2.500  1.1671  0.5311  0.1858
 9661SOL     OW34945   5.814   1.095   8.956 -0.6053  0.1796  0.0582
 9661SOL    HW134946   5.737   1.147   8.981 -1.1842  0.0701 -1.4152
 9661SOL    HW234947   5.847   1.138   8.878  0.0960 -0.5143 -0.0347
 9662SOL     OW34948   4.266  11.363   1.478 -0.6231  0.7430  0.0533
 9662SOL    HW134949   4.256  11.358   1.383 -0.0430  0.2529  0.0075
 9662SOL    HW234950   4.361  11.366   1.492 -0.6151 -1.0657  0.6849
 9663SOL     OW34951  12.035   1.005  11.909 -0.4638 -0.2646  0.0358
 9663SOL    HW134952  12.110   1.023  11.966 -0.8240 -0.0561  0.4477
 9663SOL    HW234953  11.964   0.982  11.969  0.1289 -3.9042 -0.4394
 9664SOL     OW34954   6.126   5.778   9.605  0.0681  0.2927  0.3365
 9664SOL    HW134955   6.132   5.781   9.510 -0.1495 -1.7139  0.2132
 9664SOL    HW234956   6.206   5.735   9.634  0.2045  1.0188  1.0869
 9665SOL     OW34957   0.144   9.140  12.319 -0.0566 -0.0840  0.1251
 9665SOL    HW134958   0.124   9.191  12.398  1.8157  0.3308  0.3964
 9665SOL    HW234959   0.141   9.205  12.248  3.7933  0.9205  0.6565
 9666SOL     OW34960   4.587  12.164   2.450 -0.2924 -0.0374  0.3631
 9666SOL    HW134961   4.601  12.226   2.522  0.0321 -0.5719  0.7746
 9666SOL    HW234962   4.611  12.212   2.371  0.1877  0.2897  0.7002
 9667SOL     OW34963   3.264   3.273  10.068  0.0241 -0.1109 -0.1830
 9667SOL    HW134964   3.262   3.367  10.055  0.0898 -0.2683 -1.5260
 9667SOL    HW234965   3.351   3.246  10.038 -1.1443 -0.9722 -3.1747
 9668SOL     OW34966   7.672   9.835  10.364  0.0619  0.4880  0.1840
 9668SOL    HW134967   7.727   9.858  10.439  1.7336  2.5119 -1.5221
 9668SOL    HW234968   7.683   9.908  10.303  0.9106 -2.1902 -3.1955
 9669SOL     OW34969  11.052   3.885   8.138  0.3847 -0.4770 -0.4370
 9669SOL    HW134970  11.135   3.880   8.091  1.8030  0.3776  1.7688
 9669SOL    HW234971  11.034   3.979   8.146 -1.3151 -0.6565 -1.6543
 9670SOL     OW34972  12.058   8.531   3.597 -0.1534  0.0023  0.2704
 9670SOL    HW134973  12.031   8.444   3.627 -2.0447 -0.3174 -2.0600
 9670SOL    HW234974  12.057   8.585   3.676 -1.5156 -1.5149  1.3593
 9671SOL     OW34975   0.133   6.149  11.539 -0.3470 -0.2277 -0.0242
 9671SOL    HW134976   0.101   6.070  11.581  0.1207  1.2439  3.4163
 9671SOL    HW234977   0.223   6.158  11.568 -1.1762  2.9310  2.1246
 9672SOL     OW34978   4.616   1.798   8.845 -0.2219  0.1775  0.5234
 9672SOL    HW134979   4.691   1.857   8.836  0.1555 -0.2315  0.9948
 9672SOL    HW234980   4.562   1.817   8.768 -0.8539  2.1879  1.4087
 9673SOL     OW34981   6.563   9.070  11.974 -0.1659  0.4813  0.4415
 9673SOL    HW134982   6.646   9.035  11.942  0.7482  2.2615  0.7536
 9673SOL    HW234983   6.506   8.993  11.982  1.6550 -0.8976  0.8924
 9674SOL     OW34984  10.596   0.928   0.200 -0.7251  0.2777 -0.1374
 9674SOL    HW134985  10.653   0.968   0.265 -0.6128  0.1748 -0.1720
 9674SOL    HW234986  10.507   0.950   0.228 -0.6402  1.8064 -0.9539
 9675SOL     OW34987  10.007   1.600   2.599 -0.1442 -0.1773  0.0553
 9675SOL    HW134988  10.026   1.692   2.582  1.7319 -0.4941  0.2074
 9675SOL    HW234989  10.087   1.554   2.574 -0.0862 -1.4816  2.3904
 9676SOL     OW34990   9.486   1.228   5.939 -0.3665 -0.2952 -0.0575
 9676SOL    HW134991   9.536   1.302   5.973 -1.7399  0.9371 -0.6218
 9676SOL    HW234992   9.484   1.241   5.845 -0.4727 -1.1584 -0.1810
 9677SOL     OW34993   5.638   4.995   5.868  0.3392 -0.4556  0.2575
 9677SOL    HW134994   5.544   4.981   5.857  0.1458 -0.0561  1.3461
 9677SOL    HW234995   5.646   5.084   5.903  1.1607 -0.2949 -0.2835
 9678SOL     OW34996  11.380   5.385  11.649 -0.3869 -0.1705 -0.2852
 9678SOL    HW134997  11.311   5.383  11.715 -0.1332  0.2264  0.0017
 9678SOL    HW234998  11.416   5.473  11.655  0.0936 -0.3484 -0.4838
 9679SOL     OW34999   9.662   7.864   9.431 -0.4884 -0.5923 -0.0061
 9679SOL    HW135000   9.710   7.883   9.351  1.6513 -1.6794  0.9276
 9679SOL    HW235001   9.589   7.809   9.403  0.5037 -1.3720 -1.1690
 9680SOL     OW35002   0.647   0.448   1.404 -0.0977  1.1255 -0.8887
 9680SOL    HW135003   0.561   0.441   1.362 -0.6846  0.0465  0.4279
 9680SOL    HW235004   0.640   0.394   1.482  3.1131 -2.5415 -2.8012
 9681SOL     OW35005   6.602   2.096   4.932  0.5718  0.0550  0.3986
 9681SOL    HW135006   6.565   2.175   4.891 -0.4149 -0.4064  0.3675
 9681SOL    HW235007   6.696   2.101   4.912  0.5022  1.1187  0.2325
 9682SOL     OW35008   9.074  10.704   3.575  0.3038 -0.0260 -0.6695
 9682SOL    HW135009   9.127  10.712   3.496 -0.0484 -0.4943 -0.9618
 9682SOL    HW235010   9.085  10.613   3.602 -1.4816 -0.5610 -1.5695
 9683SOL     OW35011   3.636  12.281   5.470  0.2580  0.4987  0.2084
 9683SOL    HW135012   3.676  12.309   5.388  0.5301 -0.8236 -0.1293
 9683SOL    HW235013   3.701  12.223   5.510 -1.0764 -1.3463 -0.1449
 9684SOL     OW35014   4.484   4.372   1.344 -0.0590  0.4934 -0.7657
 9684SOL    HW135015   4.516   4.297   1.395 -2.2306  0.5789  0.8483
 9684SOL    HW235016   4.457   4.334   1.260 -0.8130 -0.5022 -0.0933
 9685SOL     OW35017   1.049   6.536   6.117 -0.2016  0.0028 -0.4257
 9685SOL    HW135018   1.056   6.468   6.184  0.7030 -0.4663 -0.9696
 9685SOL    HW235019   1.123   6.519   6.058 -0.1135  1.3036 -0.7217
 9686SOL     OW35020   6.599   6.287   7.795  0.0089 -0.0501  0.0048
 9686SOL    HW135021   6.543   6.226   7.746  1.2910 -1.6922  0.4859
 9686SOL    HW235022   6.581   6.267   7.887  1.4594 -0.7193  0.1687
 9687SOL     OW35023   4.643   1.996  11.617  0.1721  0.0262  0.0163
 9687SOL    HW135024   4.629   2.042  11.533  0.7454  0.6027  0.2285
 9687SOL    HW235025   4.591   1.916  11.609 -0.6079  0.5620 -0.4906
 9688SOL     OW35026   5.717   7.576   0.692  0.0589  0.1646 -0.3796
 9688SOL    HW135027   5.764   7.645   0.738  2.6444 -1.5221 -0.2931
 9688SOL    HW235028   5.737   7.591   0.599 -0.3510  0.1968 -0.4665
 9689SOL     OW35029   5.356   5.621   5.702 -0.4189 -0.0523  0.4113
 9689SOL    HW135030   5.316   5.692   5.652  0.0758 -0.0530  0.0014
 9689SOL    HW235031   5.359   5.653   5.792  1.5956  1.2904 -0.0705
 9690SOL     OW35032  10.499   0.301   6.611 -0.3532  0.7255 -0.3290
 9690SOL    HW135033  10.491   0.359   6.535 -2.8924  3.2454  1.6641
 9690SOL    HW235034  10.417   0.252   6.612  0.6634 -1.0702 -0.4723
 9691SOL     OW35035   1.216   4.832   9.370 -0.0369 -0.4101  0.3435
 9691SOL    HW135036   1.151   4.765   9.350  0.9995 -0.9053 -1.6464
 9691SOL    HW235037   1.285   4.785   9.418 -1.4339  0.2901  3.2369
 9692SOL     OW35038   8.749   5.868   0.855  0.3159  0.1494  0.0831
 9692SOL    HW135039   8.831   5.821   0.845 -0.1854 -0.8561  0.5118
 9692SOL    HW235040   8.763   5.926   0.930  1.2348  1.3842 -1.0032
 9693SOL     OW35041   6.047   3.979   7.344  0.5756 -0.4173 -0.2504
 9693SOL    HW135042   5.951   3.972   7.348  0.6829 -2.0727  0.0349
 9693SOL    HW235043   6.074   3.991   7.435  0.8559 -4.3519  0.3487
 9694SOL     OW35044   3.788   6.726   0.593  0.4429  0.7898 -0.3759
 9694SOL    HW135045   3.757   6.817   0.598  1.6448  1.1484  1.8396
 9694SOL    HW235046   3.726   6.683   0.534 -2.6634  2.0633  1.7140
 9695SOL     OW35047   3.583   7.779   6.468  0.7510  0.8171 -0.0309
 9695SOL    HW135048   3.619   7.760   6.382 -1.8996 -1.7390 -0.7102
 9695SOL    HW235049   3.660   7.794   6.523  2.5671  0.9326 -2.4415
 9696SOL     OW35050  10.666  11.680   7.383  0.6853 -0.0643  0.2992
 9696SOL    HW135051  10.710  11.658   7.465  1.5061  0.4234  0.0017
 9696SOL    HW235052  10.649  11.595   7.342  0.4765 -0.3007  0.8695
 9697SOL     OW35053   7.127   6.947  12.306 -0.2350  0.4444  0.1208
 9697SOL    HW135054   7.046   6.960  12.257 -0.1885 -0.2235 -0.1512
 9697SOL    HW235055   7.101   6.895  12.382 -0.4446  2.1315  1.2551
 9698SOL     OW35056   2.430   3.099   6.308  0.1193  0.5085  0.2323
 9698SOL    HW135057   2.484   3.066   6.237  0.0905  0.8857  0.0342
 9698SOL    HW235058   2.464   3.187   6.325 -1.2375  1.2642 -0.7487
 9699SOL     OW35059   9.245  10.116   5.020 -0.2801  0.3672  0.3178
 9699SOL    HW135060   9.278  10.062   4.947 -1.5053 -1.9984  1.4088
 9699SOL    HW235061   9.324  10.152   5.060  0.5426  0.0671 -0.9736
 9700SOL     OW35062   4.968   1.025  11.387  0.6733 -0.4852 -0.2358
 9700SOL    HW135063   4.930   0.941  11.359 -1.3246  0.2005  0.2332
 9700SOL    HW235064   4.979   1.074  11.306  1.4917 -1.0449 -0.4748
 9701SOL     OW35065   3.260   6.703   7.870  0.1446  0.0865  0.5584
 9701SOL    HW135066   3.351   6.701   7.839 -0.7911 -1.1731 -2.3678
 9701SOL    HW235067   3.255   6.630   7.932  0.8486 -0.6132 -0.1785
 9702SOL     OW35068   2.348   7.180   5.854 -0.1225  0.3480 -0.7167
 9702SOL    HW135069   2.442   7.167   5.842 -0.1709 -0.9851  0.1799
 9702SOL    HW235070   2.333   7.271   5.828  1.3378  0.4456 -1.2839
 9703SOL     OW35071   6.748   3.990   2.476  0.1835 -0.5745 -0.0897
 9703SOL    HW135072   6.816   4.050   2.445 -1.1908  1.1180  0.0102
 9703SOL    HW235073   6.794   3.908   2.494  2.1858  0.5261  0.0214
 9704SOL     OW35074   7.238   8.374   4.634 -0.2400 -0.0222  0.4056
 9704SOL    HW135075   7.298   8.434   4.591 -1.5242  0.9067 -0.1763
 9704SOL    HW235076   7.168   8.430   4.668 -1.0162 -1.0946  0.6660
 9705SOL     OW35077   7.424  11.345   5.002  0.4093  0.1412 -0.7797
 9705SOL    HW135078   7.480  11.392   5.064  1.4227 -0.9959 -0.7907
 9705SOL    HW235079   7.344  11.326   5.051  1.6296 -1.7385  0.5992
 9706SOL     OW35080  12.449   1.510   9.008 -0.0084  0.3368  0.3705
 9706SOL    HW135081  12.402   1.484   9.087  0.8183  0.3681  0.8870
 9706SOL    HW235082  12.413   1.455   8.939 -1.2704  0.8279  0.6058
 9707SOL     OW35083   6.106  10.696   0.819  0.1972 -0.3918 -0.4085
 9707SOL    HW135084   6.133  10.620   0.767 -0.2103 -1.1622  0.4906
 9707SOL    HW235085   6.016  10.712   0.792  0.8081  0.8790 -1.8656
 9708SOL     OW35086   9.839   9.007   6.744  0.2710 -0.4773 -0.4388
 9708SOL    HW135087   9.765   8.974   6.695  0.0984 -0.3023 -0.2996
 9708SOL    HW235088   9.852   8.944   6.815  1.6770 -1.7386 -1.7482
 9709SOL     OW35089  10.060   4.496   0.005 -0.2968  0.0877  0.1737
 9709SOL    HW135090  10.135   4.505   0.064 -0.8380  0.4007  0.8282
 9709SOL    HW235091  10.000   4.439   0.051 -0.9292  0.7075  0.1288
 9710SOL     OW35092   2.184  10.281  11.103  0.4245 -0.6465 -0.0141
 9710SOL    HW135093   2.129  10.218  11.056 -1.7428  0.5759  0.7734
 9710SOL    HW235094   2.168  10.365  11.060 -0.5887  0.2539  1.9967
 9711SOL     OW35095   1.347   9.309   7.924  0.2669  0.4653  0.4323
 9711SOL    HW135096   1.343   9.213   7.922  0.3485  0.4698 -1.7055
 9711SOL    HW235097   1.256   9.337   7.934  0.3430  0.2029  2.2606
 9712SOL     OW35098  10.301   2.875  11.288 -0.1399  0.5119  0.3360
 9712SOL    HW135099  10.351   2.942  11.241 -1.6167  1.6171  0.2937
 9712SOL    HW235100  10.258   2.824  11.220  1.5791 -1.0211  0.3331
 9713SOL     OW35101   3.362   4.352   5.309 -0.4387 -0.2860  0.5109
 9713SOL    HW135102   3.378   4.335   5.402  0.7992  0.0427  0.3795
 9713SOL    HW235103   3.449   4.349   5.269 -0.4702  2.9162 -0.0742
 9714SOL     OW35104   3.393   2.559   7.873  0.0099 -0.2498 -0.1895
 9714SOL    HW135105   3.311   2.510   7.882  0.4683 -1.0304 -0.1017
 9714SOL    HW235106   3.439   2.515   7.801  0.5376 -0.1026  0.0527
 9715SOL     OW35107   4.377   4.221   8.609  0.5175 -0.0194 -0.3015
 9715SOL    HW135108   4.366   4.300   8.661 -0.3114 -0.5201  0.3068
 9715SOL    HW235109   4.304   4.221   8.549 -0.6509 -1.3024  1.0344
 9716SOL     OW35110   0.778   5.062   2.150  0.2359 -0.2319 -0.0612
 9716SOL    HW135111   0.826   5.128   2.100  1.6687  0.5097  2.1543
 9716SOL    HW235112   0.846   5.010   2.193 -0.8719 -0.0748  2.0350
 9717SOL     OW35113   2.445   3.392   9.618 -0.7496  0.2606 -0.3788
 9717SOL    HW135114   2.396   3.341   9.554 -1.6724  1.2367 -0.4747
 9717SOL    HW235115   2.490   3.459   9.566  1.2947 -1.0203 -0.3820
 9718SOL     OW35116   5.577  12.206   1.712  0.3265  0.2169  0.4203
 9718SOL    HW135117   5.621  12.287   1.737 -0.1806  0.7705 -0.4626
 9718SOL    HW235118   5.542  12.172   1.794  1.9867 -0.0061  1.0784
 9719SOL     OW35119   3.719   9.035   9.155 -0.0039 -0.1400  0.4867
 9719SOL    HW135120   3.633   8.996   9.175 -0.6818  0.7266 -0.6386
 9719SOL    HW235121   3.763   8.968   9.102  0.4682 -1.0306  1.9357
 9720SOL     OW35122   8.479   8.929   6.405  0.2566 -0.2705  0.1422
 9720SOL    HW135123   8.561   8.930   6.356 -0.1816 -3.6916 -0.9517
 9720SOL    HW235124   8.488   8.856   6.466 -2.0700 -1.0579 -0.3233
 9721SOL     OW35125   9.214  12.038   5.475  0.3768 -0.2290  0.0645
 9721SOL    HW135126   9.128  12.012   5.441 -1.0502  3.5500  0.3571
 9721SOL    HW235127   9.264  12.063   5.398 -0.0005  0.7241  0.1203
 9722SOL     OW35128   0.294  11.177  11.658 -0.1939 -0.4121  0.1297
 9722SOL    HW135129   0.349  11.153  11.733 -0.3888 -0.7250  0.1722
 9722SOL    HW235130   0.354  11.183  11.584 -0.0860 -0.6400  0.1992
 9723SOL     OW35131  10.258   8.981  12.390  0.1617  0.1206 -0.2000
 9723SOL    HW135132  10.293   8.894  12.406  0.8275  0.6312  1.2441
 9723SOL    HW235133  10.321   9.022  12.330  0.2665 -0.1178 -0.2519
 9724SOL     OW35134   6.811   8.716   9.405 -0.3702  0.1024 -0.2401
 9724SOL    HW135135   6.896   8.675   9.386 -0.8905 -0.6757 -0.9571
 9724SOL    HW235136   6.797   8.702   9.498 -0.1286 -0.5629 -0.3037
 9725SOL     OW35137   1.746  10.689   9.626 -0.2022 -0.3988  0.0322
 9725SOL    HW135138   1.761  10.783   9.616  0.5957 -0.2220  2.4371
 9725SOL    HW235139   1.661  10.674   9.586 -0.5876  1.4472  0.0882
 9726SOL     OW35140  11.128   6.835   3.011  0.3198 -0.3659  0.0638
 9726SOL    HW135141  11.129   6.801   2.921  1.1255 -1.5427  0.4940
 9726SOL    HW235142  11.137   6.929   3.001 -0.2366 -0.4179 -1.1172
 9727SOL     OW35143   7.058   3.155   3.429 -0.2964 -0.4287 -0.0864
 9727SOL    HW135144   6.967   3.126   3.417  0.0567 -1.4091 -0.5371
 9727SOL    HW235145   7.110   3.090   3.382  0.5302  1.2822 -1.7037
 9728SOL     OW35146   8.295   6.093   6.994 -0.6213 -0.1436 -0.0706
 9728SOL    HW135147   8.245   6.134   7.064 -1.4044 -0.1983 -0.5756
 9728SOL    HW235148   8.259   6.004   6.987 -1.0946  0.1083 -1.0445
 9729SOL     OW35149  10.185   8.907  11.224 -0.5116  0.2340 -0.1668
 9729SOL    HW135150  10.255   8.930  11.162  0.6207 -0.0862  0.9403
 9729SOL    HW235151  10.219   8.829  11.269 -2.5797 -1.3340 -1.1613
 9730SOL     OW35152   0.674   2.140   4.885 -0.2219  0.0676 -0.2542
 9730SOL    HW135153   0.598   2.167   4.832  0.5202  2.1176 -0.3675
 9730SOL    HW235154   0.746   2.193   4.851  0.8131 -0.3577  1.2106
 9731SOL     OW35155   1.233   7.073  11.550  0.2931  0.6252 -0.1605
 9731SOL    HW135156   1.278   6.989  11.551  0.8734  0.9276  0.6940
 9731SOL    HW235157   1.141   7.051  11.537  0.5575 -0.0652 -0.9381
 9732SOL     OW35158   7.283   2.416  10.489 -0.7932  0.1449 -0.0290
 9732SOL    HW135159   7.370   2.453  10.502 -0.4132 -1.0421  1.0269
 9732SOL    HW235160   7.224   2.490  10.501  0.0216  0.7820  0.1760
 9733SOL     OW35161  10.393   7.769   7.149 -0.3332 -0.0582 -0.0551
 9733SOL    HW135162  10.421   7.694   7.095 -1.0352  0.6287 -1.4291
 9733SOL    HW235163  10.322   7.809   7.099 -0.9745  0.6613  1.3803
 9734SOL     OW35164   6.691   9.401   6.281  0.0420  0.2707 -0.0577
 9734SOL    HW135165   6.666   9.458   6.208 -0.2944 -0.1772 -0.2985
 9734SOL    HW235166   6.663   9.314   6.254 -0.1856  0.1125  0.6520
 9735SOL     OW35167  10.583   2.022   2.537  0.2521  0.3015 -0.0541
 9735SOL    HW135168  10.525   1.960   2.491  0.9467 -2.5832  2.6168
 9735SOL    HW235169  10.669   2.007   2.497  0.6251 -1.3552  1.2504
 9736SOL     OW35170  10.413   0.698   2.541  0.4520 -0.0335 -0.3840
 9736SOL    HW135171  10.329   0.735   2.567  0.8627  0.0916  0.8167
 9736SOL    HW235172  10.398   0.604   2.535  0.4393 -0.1037  0.6964
 9737SOL     OW35173   5.536   4.350   3.376  0.4362 -0.7108 -0.5202
 9737SOL    HW135174   5.523   4.357   3.281 -1.0112 -0.7807 -0.3582
 9737SOL    HW235175   5.448   4.362   3.413  1.0099 -0.4641  0.8298
 9738SOL     OW35176  10.213  11.206  12.121 -0.1500  0.6063  0.4769
 9738SOL    HW135177  10.147  11.223  12.189 -0.1329  1.0462  0.3885
 9738SOL    HW235178  10.173  11.238  12.040  0.4028  1.4394  0.5170
 9739SOL     OW35179   3.965   9.900  12.104 -0.5163  0.2335  0.0843
 9739SOL    HW135180   4.034   9.893  12.039 -0.3820  1.5940  0.0418
 9739SOL    HW235181   3.895   9.843  12.072  0.5842 -1.1875  0.1604
 9740SOL     OW35182   0.948   7.697   0.951 -1.0093  0.3480 -0.0894
 9740SOL    HW135183   0.907   7.708   0.865  2.6740 -0.4698 -2.1339
 9740SOL    HW235184   0.970   7.604   0.955  0.0131  0.6262  1.2029
 9741SOL     OW35185   2.118   1.777   3.102 -0.1095 -0.3267  0.0011
 9741SOL    HW135186   2.179   1.823   3.160 -0.7759 -0.8186  1.1068
 9741SOL    HW235187   2.109   1.835   3.026 -1.5023  1.7754  1.6671
 9742SOL     OW35188   0.597   7.459   3.986 -0.4668  0.1335  0.3796
 9742SOL    HW135189   0.673   7.422   3.941 -1.2926  2.0744 -2.9606
 9742SOL    HW235190   0.527   7.396   3.971 -0.9958  1.2142 -2.2155
 9743SOL     OW35191   8.809   4.965  10.075 -0.1914  0.2304  0.3801
 9743SOL    HW135192   8.773   4.962   9.987  0.5784  0.5093  0.0475
 9743SOL    HW235193   8.903   4.973  10.062  0.1403 -1.8335  1.2205
 9744SOL     OW35194   3.346   6.951   1.451 -0.2133 -0.2171 -0.3997
 9744SOL    HW135195   3.292   7.030   1.439 -1.1226 -0.8244 -0.3725
 9744SOL    HW235196   3.288   6.888   1.493  1.1095 -0.2214  1.5482
 9745SOL     OW35197   4.384   9.495   2.926  0.3481  0.1703  0.7827
 9745SOL    HW135198   4.305   9.497   2.873  0.6590 -1.2820  0.2321
 9745SOL    HW235199   4.415   9.586   2.926 -0.0850  0.3481 -0.8544
 9746SOL     OW35200   1.390   0.661   1.612  0.2945 -0.2573 -0.0709
 9746SOL    HW135201   1.468   0.638   1.663 -0.4607  0.0020  1.2583
 9746SOL    HW235202   1.385   0.756   1.618 -0.1755 -0.2796 -0.0499
 9747SOL     OW35203   1.178   3.535  10.132  0.1261  0.0316  0.6916
 9747SOL    HW135204   1.258   3.572  10.170  0.7734 -1.7321  1.1557
 9747SOL    HW235205   1.203   3.512  10.042 -1.0974  3.2181 -0.5933
 9748SOL     OW35206   5.156   3.756   1.789 -0.0143 -0.0217  0.4202
 9748SOL    HW135207   5.134   3.848   1.771  0.0645 -0.0282  0.2867
 9748SOL    HW235208   5.182   3.755   1.881  1.0439  0.2943  0.1377
 9749SOL     OW35209   3.191   6.812   0.388  0.3427  0.1071  0.0954
 9749SOL    HW135210   3.171   6.845   0.301  0.8372 -2.7931 -1.2196
 9749SOL    HW235211   3.107   6.786   0.425  0.3577 -0.9882 -0.5903
 9750SOL     OW35212   9.355  11.566   2.187  0.1562 -0.0463  0.0350
 9750SOL    HW135213   9.431  11.515   2.212  0.7368  1.4519  1.5036
 9750SOL    HW235214   9.383  11.657   2.194 -1.6012  0.5418  0.1268
 9751SOL     OW35215   7.702  12.198  12.300  0.2000 -0.2726  0.0346
 9751SOL    HW135216   7.756  12.196  12.379 -0.1817 -0.9634  0.2790
 9751SOL    HW235217   7.763  12.176  12.229  0.7902  1.3786 -0.0316
 9752SOL     OW35218   4.851   7.300   3.874  0.0269  0.2440 -0.5012
 9752SOL    HW135219   4.893   7.235   3.817 -1.8511  0.3525 -2.1125
 9752SOL    HW235220   4.923   7.359   3.899  1.2237 -0.7746 -1.3932
 9753SOL     OW35221   8.289   3.981   0.028  0.0045  0.2230 -0.5088
 9753SOL    HW135222   8.369   3.947   0.067 -1.8238 -1.1306  2.4392
 9753SOL    HW235223   8.273   4.064   0.072 -0.4036  0.3175 -0.8198
 9754SOL     OW35224   0.391   6.601   3.964  0.1238 -0.2074  0.1721
 9754SOL    HW135225   0.377   6.695   3.950  1.1402 -0.1375 -0.4525
 9754SOL    HW235226   0.434   6.595   4.049  2.0299  0.0870 -0.7320
 9755SOL     OW35227   4.614   1.899  10.063 -0.0747  0.3461 -1.1093
 9755SOL    HW135228   4.618   1.902   9.967  2.8323 -0.2259 -1.0915
 9755SOL    HW235229   4.669   1.825  10.087 -1.5007 -0.1021  1.0220
 9756SOL     OW35230   2.391   0.297   1.634 -0.2188  0.7398 -0.6511
 9756SOL    HW135231   2.312   0.351   1.629 -0.7603  0.2207  1.2029
 9756SOL    HW235232   2.369   0.229   1.699  1.9113  0.8887  0.2996
 9757SOL     OW35233   8.829  11.834   0.828  0.0268  0.0536  0.1378
 9757SOL    HW135234   8.835  11.830   0.733  1.2715 -0.6809  0.2210
 9757SOL    HW235235   8.891  11.903   0.853 -1.5626  1.4795  0.3433
 9758SOL     OW35236   4.732   7.377   0.881 -0.4992  0.3957  0.0875
 9758SOL    HW135237   4.817   7.343   0.907 -1.1229 -2.2437 -1.0100
 9758SOL    HW235238   4.672   7.348   0.951 -0.7449  0.9696  0.1217
 9759SOL     OW35239  11.447   5.842   2.615  0.2834 -0.1552  0.5304
 9759SOL    HW135240  11.381   5.801   2.671 -0.1364  0.4919  0.5189
 9759SOL    HW235241  11.436   5.936   2.631 -0.5965  0.1256 -1.4493
 9760SOL     OW35242   0.012   7.780  11.604  0.1358  0.1128  0.0583
 9760SOL    HW135243   0.042   7.844  11.539  0.7976  2.1148  2.1820
 9760SOL    HW235244  -0.080   7.802  11.619  0.1442  0.0519  0.2006
 9761SOL     OW35245   9.847   7.891   7.247  0.3477 -0.6876 -0.1730
 9761SOL    HW135246   9.794   7.862   7.322 -1.1265  1.6275 -0.2090
 9761SOL    HW235247   9.826   7.828   7.178  0.5648 -1.9884  0.9022
 9762SOL     OW35248   9.505   6.738   3.516  0.5515  0.2641  0.3597
 9762SOL    HW135249   9.538   6.719   3.428  1.0539  0.6193  0.4629
 9762SOL    HW235250   9.546   6.672   3.572  0.5583  0.2907  0.3863
 9763SOL     OW35251   1.028   9.248   5.353  0.3232 -0.3687 -0.0885
 9763SOL    HW135252   0.981   9.164   5.355 -0.4704  0.0767  0.4913
 9763SOL    HW235253   1.101   9.233   5.293  1.1031 -1.9468  1.1705
 9764SOL     OW35254   8.325  11.935  11.412  0.6154  0.4938  0.0915
 9764SOL    HW135255   8.372  11.925  11.495  1.2062 -0.4629 -0.3427
 9764SOL    HW235256   8.290  11.848  11.393  0.9433  0.5697 -0.9283
 9765SOL     OW35257  11.911   5.336   3.559  0.0960  0.1880  0.6080
 9765SOL    HW135258  11.951   5.254   3.530  0.5695  1.3423 -2.3197
 9765SOL    HW235259  11.985   5.395   3.573 -0.3344  0.7872  0.4050
 9766SOL     OW35260   4.957   5.939   7.858  0.5595 -0.2351  0.1945
 9766SOL    HW135261   4.896   5.981   7.798 -1.7577 -0.4068  2.3027
 9766SOL    HW235262   5.024   5.900   7.800 -1.9540 -1.1000 -2.3488
 9767SOL     OW35263   7.343   4.812   4.662 -0.1826  0.3087 -0.1868
 9767SOL    HW135264   7.270   4.797   4.722  1.0746  0.0812  1.3640
 9767SOL    HW235265   7.387   4.727   4.656  1.0491  0.8760  0.4392
 9768SOL     OW35266   8.699   2.055   1.127 -0.3231 -0.6013 -0.1152
 9768SOL    HW135267   8.627   2.040   1.188  0.7353  0.5062  1.5000
 9768SOL    HW235268   8.724   2.146   1.142  1.8701 -1.1582 -0.0741
 9769SOL     OW35269   8.977  10.658   9.324  0.8015  0.3953 -0.4151
 9769SOL    HW135270   8.885  10.639   9.305  0.4293 -0.1423  1.6436
 9769SOL    HW235271   9.027  10.592   9.276  0.0608  0.0960 -0.7828
 9770SOL     OW35272   9.512   1.804   7.897  0.1319  0.4889  0.3025
 9770SOL    HW135273   9.575   1.774   7.963  0.3531 -0.4467 -0.3107
 9770SOL    HW235274   9.477   1.885   7.933  2.5631  1.7137  0.1368
 9771SOL     OW35275   1.544   1.299   7.155 -0.0414  0.4689  0.4002
 9771SOL    HW135276   1.488   1.341   7.090  0.2653 -0.1895 -0.2999
 9771SOL    HW235277   1.484   1.253   7.213 -0.2471 -0.2488 -0.3585
 9772SOL     OW35278   7.744   5.876  10.264 -0.7028  0.3251 -0.2210
 9772SOL    HW135279   7.694   5.921  10.196 -0.7965 -0.9406 -1.0239
 9772SOL    HW235280   7.696   5.795  10.280 -0.7794  0.6546  1.5028
 9773SOL     OW35281   7.243   0.500   1.644 -0.3573 -0.0599 -0.6750
 9773SOL    HW135282   7.212   0.427   1.697  0.8139 -0.8534 -1.0353
 9773SOL    HW235283   7.263   0.569   1.707 -2.8443  0.5167 -0.4432
 9774SOL     OW35284   7.368  10.929   5.836 -0.5159 -0.2254  0.5188
 9774SOL    HW135285   7.444  10.980   5.864 -0.3369 -0.2701  0.1167
 9774SOL    HW235286   7.293  10.986   5.854 -0.3144  0.1870  0.0722
 9775SOL     OW35287  10.088   4.394   1.353 -0.1792 -0.7637  0.2540
 9775SOL    HW135288  10.070   4.300   1.346 -1.3933 -0.4403 -2.0112
 9775SOL    HW235289  10.168   4.408   1.303 -0.6100 -0.4706 -0.3763
 9776SOL     OW35290   2.747   6.860   3.705  0.3663 -0.1447 -0.1947
 9776SOL    HW135291   2.813   6.929   3.716 -1.3882  2.0111 -2.0401
 9776SOL    HW235292   2.687   6.873   3.779  0.3225  0.0160 -0.2556
 9777SOL     OW35293   1.815   3.222  11.114 -0.0155 -0.0450 -0.1640
 9777SOL    HW135294   1.728   3.255  11.092 -1.0439 -0.9957  2.1308
 9777SOL    HW235295   1.875   3.276  11.063 -1.8328  2.1336 -0.1521
 9778SOL     OW35296  11.298  10.354   8.005 -0.0525 -0.2241  0.2592
 9778SOL    HW135297  11.347  10.295   7.949 -0.7761 -1.1071  0.5382
 9778SOL    HW235298  11.352  10.363   8.084  0.8481  0.8270 -0.4407
 9779SOL     OW35299   1.366   2.257   8.783 -0.4834  0.5884  0.0485
 9779SOL    HW135300   1.392   2.181   8.834 -0.5212 -0.0061 -0.8080
 9779SOL    HW235301   1.439   2.318   8.792 -0.2597  0.2760  0.3639
 9780SOL     OW35302   7.244   0.110   0.435  0.2858  0.1026 -0.1010
 9780SOL    HW135303   7.263   0.019   0.458 -1.5239 -0.1329  0.6070
 9780SOL    HW235304   7.223   0.107   0.342 -1.2469 -0.5150  0.2236
 9781SOL     OW35305   1.974   6.130   1.693 -0.2732 -0.2072  0.4134
 9781SOL    HW135306   1.994   6.223   1.698 -1.4839  0.0401  0.8969
 9781SOL    HW235307   1.952   6.115   1.601  1.0038 -0.2744  0.0897
 9782SOL     OW35308   2.053   8.547   2.462  0.0051  0.3947 -0.9342
 9782SOL    HW135309   2.021   8.498   2.538  1.6332 -1.4560 -1.3395
 9782SOL    HW235310   2.015   8.501   2.387  0.2080  0.8002 -1.2834
 9783SOL     OW35311   4.064  10.879  11.568 -0.1958 -0.2782 -0.3267
 9783SOL    HW135312   4.064  10.963  11.615 -0.2674 -0.3995 -0.1117
 9783SOL    HW235313   4.146  10.836  11.595  0.5727  0.3408 -1.5458
 9784SOL     OW35314   2.245  11.721  11.652 -1.1578  0.2590  0.7885
 9784SOL    HW135315   2.270  11.761  11.568 -0.1202 -0.4384  0.7461
 9784SOL    HW235316   2.211  11.635  11.628  1.3402 -0.9126  1.2125
 9785SOL     OW35317   9.489   9.185   8.315 -0.4619  0.5037 -0.5737
 9785SOL    HW135318   9.431   9.247   8.271 -0.7150  0.7017  0.0362
 9785SOL    HW235319   9.432   9.111   8.336 -0.6345  0.9446  0.5464
 9786SOL     OW35320  11.424   7.125   6.703  0.5548 -0.0446 -0.2238
 9786SOL    HW135321  11.421   7.034   6.733  0.0789 -0.0513 -0.2874
 9786SOL    HW235322  11.500   7.162   6.747  0.8879 -0.5365 -0.3752
 9787SOL     OW35323   2.443   0.675  10.217  0.0794  0.8724  0.0208
 9787SOL    HW135324   2.381   0.606  10.195  0.8894  0.2341 -0.3134
 9787SOL    HW235325   2.519   0.658  10.162  0.0266  2.4741 -0.6166
 9788SOL     OW35326   5.559   1.360  10.432  0.0224  0.5204  0.4391
 9788SOL    HW135327   5.594   1.271  10.429 -1.2322  0.0310  0.0472
 9788SOL    HW235328   5.595   1.397  10.512  0.4794 -0.3683  0.6524
 9789SOL     OW35329  10.064  11.727   5.441 -0.4644  0.1457  0.2767
 9789SOL    HW135330  10.106  11.728   5.354 -0.9811 -1.3115 -0.0157
 9789SOL    HW235331   9.971  11.710   5.422 -0.6547  0.2592  1.0951
 9790SOL     OW35332  10.212   5.203   6.756  0.1673 -0.0564 -0.1012
 9790SOL    HW135333  10.270   5.245   6.692  1.7424 -0.7895  0.7727
 9790SOL    HW235334  10.208   5.265   6.829  2.5227 -1.2565  1.2052
 9791SOL     OW35335   1.919   3.765   0.030  0.0104 -0.1972 -0.0111
 9791SOL    HW135336   1.981   3.830   0.061 -0.3525 -0.6207  1.7281
 9791SOL    HW235337   1.839   3.814   0.012  0.3901  0.1343 -0.8298
 9792SOL     OW35338  12.459   4.644   5.641  0.0437  0.1993  0.0199
 9792SOL    HW135339  12.542   4.653   5.594  0.2294 -0.5022  0.2001
 9792SOL    HW235340  12.477   4.674   5.730  0.7159 -1.9753  0.6775
 9793SOL     OW35341  11.619   7.726   5.782  0.2817 -0.6980 -0.3419
 9793SOL    HW135342  11.595   7.636   5.760  0.3549 -0.7057 -0.3896
 9793SOL    HW235343  11.618   7.772   5.698 -0.5704 -0.4648 -0.2057
 9794SOL     OW35344   4.154   4.968   5.255  0.2766  0.4827 -0.0212
 9794SOL    HW135345   4.194   4.919   5.183 -2.4557  0.3602 -1.5986
 9794SOL    HW235346   4.187   5.058   5.244  2.5028 -0.1722  0.7172
 9795SOL     OW35347  10.825   1.245   7.173  0.5594 -0.3080 -0.0902
 9795SOL    HW135348  10.853   1.319   7.119 -1.9423  0.4000 -0.5297
 9795SOL    HW235349  10.770   1.284   7.242  0.1242 -1.6344  0.3582
 9796SOL     OW35350   8.913   4.221   2.270 -0.0489  0.8506  1.1459
 9796SOL    HW135351   9.007   4.235   2.257 -0.1105  1.1177  0.9691
 9796SOL    HW235352   8.874   4.236   2.184  0.1244 -3.0924  0.2162
 9797SOL     OW35353   2.241   4.469   8.008  0.3386 -0.0532 -0.0759
 9797SOL    HW135354   2.155   4.440   8.039 -0.3657 -0.1954 -2.0174
 9797SOL    HW235355   2.255   4.420   7.927  0.6048  2.5884 -1.7258
 9798SOL     OW35356  10.044   0.362  11.591  0.4826 -0.5442 -0.3921
 9798SOL    HW135357  10.123   0.312  11.611  0.8423 -0.3642 -1.3206
 9798SOL    HW235358   9.988   0.349  11.667  0.9157 -1.6524 -0.2394
 9799SOL     OW35359   9.263   2.918  12.185 -0.2689  0.1387  0.2650
 9799SOL    HW135360   9.245   2.991  12.244  0.9622 -0.0848  0.9564
 9799SOL    HW235361   9.358   2.921  12.171 -0.0786 -1.7190  0.8689
 9800SOL     OW35362  11.227   5.542   7.432  0.3649 -0.1939  0.3210
 9800SOL    HW135363  11.153   5.532   7.372  0.1670 -1.8880  0.7775
 9800SOL    HW235364  11.205   5.484   7.506  1.7978 -0.1546  0.8049
 9801SOL     OW35365  11.804   6.337   3.437 -0.0274  0.1725 -0.1026
 9801SOL    HW135366  11.864   6.264   3.427  1.9154  1.3395  2.1052
 9801SOL    HW235367  11.793   6.371   3.348  4.6937  1.4151 -0.4873
 9802SOL     OW35368   3.215   9.919   8.235 -0.2373  0.1682  0.0323
 9802SOL    HW135369   3.131   9.939   8.276  0.4079 -0.0581  1.5244
 9802SOL    HW235370   3.261  10.003   8.230 -0.7617  0.3929 -1.3264
 9803SOL     OW35371   3.316   8.920  11.320 -0.1073  0.3484  0.3433
 9803SOL    HW135372   3.401   8.960  11.334 -1.4311  3.2985  0.7107
 9803SOL    HW235373   3.289   8.950  11.233 -0.6644 -0.7826  0.1022
 9804SOL     OW35374   9.564   1.838  11.955 -0.6199  0.1717 -0.1209
 9804SOL    HW135375   9.562   1.759  12.010 -2.4817 -0.2671 -0.7405
 9804SOL    HW235376   9.530   1.907  12.011  2.8761  1.1067  1.0968
 9805SOL     OW35377  10.494   5.195   2.177  0.2003  0.0679 -0.3855
 9805SOL    HW135378  10.508   5.279   2.133 -1.4059  0.8457  0.5049
 9805SOL    HW235379  10.540   5.131   2.123  0.5312  1.3618 -1.6802
 9806SOL     OW35380   4.192   0.487   0.481  0.0040  0.0144  0.1080
 9806SOL    HW135381   4.282   0.502   0.511 -0.0235 -0.3886  0.4064
 9806SOL    HW235382   4.161   0.573   0.453  0.3475  0.2299  0.3837
 9807SOL     OW35383   4.495   1.588   2.016 -0.0822  0.2706  0.0294
 9807SOL    HW135384   4.423   1.641   1.982 -0.7879  0.0364  1.1075
 9807SOL    HW235385   4.462   1.498   2.015  0.1870  0.1617  0.5581
 9808SOL     OW35386   3.546   9.043  10.697 -0.9060 -0.1725  0.1161
 9808SOL    HW135387   3.587   8.957  10.702  0.3386  0.3316 -1.0666
 9808SOL    HW235388   3.454   9.024  10.675 -0.3079 -1.1635 -1.6957
 9809SOL     OW35389   4.406   7.541  12.343  0.4701 -0.1665 -0.1168
 9809SOL    HW135390   4.472   7.516  12.279  0.6499 -0.3697  0.1454
 9809SOL    HW235391   4.446   7.522  12.428  0.9852  1.8600  0.1534
 9810SOL     OW35392   6.218   0.198   1.210 -0.0195 -0.0012  0.0855
 9810SOL    HW135393   6.277   0.254   1.161  3.3364 -1.5940  1.9102
 9810SOL    HW235394   6.178   0.140   1.145  0.1251  1.3715 -1.2526
 9811SOL     OW35395   5.020  11.092   4.545 -0.0082 -0.4129 -0.5582
 9811SOL    HW135396   4.928  11.120   4.553 -0.3007 -1.7468  1.4071
 9811SOL    HW235397   5.069  11.155   4.598 -0.1168 -1.0774  0.3490
 9812SOL     OW35398   3.144   9.313   8.897 -0.0696 -0.2119  0.0997
 9812SOL    HW135399   3.088   9.245   8.934  0.5858 -0.2181  1.1080
 9812SOL    HW235400   3.103   9.334   8.813 -0.3585 -1.7589 -0.1851
 9813SOL     OW35401   9.856  10.747   5.229 -0.4164  0.3512 -0.1191
 9813SOL    HW135402   9.832  10.690   5.156 -2.6174 -0.6774  1.3001
 9813SOL    HW235403   9.809  10.829   5.212  1.2068  1.1323 -1.1525
 9814SOL     OW35404   1.182   3.726   3.822  0.6050 -0.5164  0.1107
 9814SOL    HW135405   1.225   3.805   3.789 -0.3619 -0.2060 -0.4383
 9814SOL    HW235406   1.100   3.757   3.860  0.5669 -1.1723  0.5846
 9815SOL     OW35407   6.827  10.073   4.027 -0.0228  0.1752 -0.1027
 9815SOL    HW135408   6.834   9.982   4.056 -0.6350  0.7217  1.8918
 9815SOL    HW235409   6.862  10.125   4.100 -0.2355  1.5786 -0.9510
 9816SOL     OW35410   8.100  10.330  10.221 -0.4901 -0.1352 -0.1183
 9816SOL    HW135411   8.012  10.318  10.255 -0.1051  0.8902  1.3842
 9816SOL    HW235412   8.108  10.425  10.208  0.2184 -0.2703 -0.7495
 9817SOL     OW35413   7.019   1.964   9.765  0.2593  0.7976 -0.3362
 9817SOL    HW135414   6.974   2.005   9.839 -0.3309 -0.8232  0.2440
 9817SOL    HW235415   6.962   1.982   9.690  0.2926  1.4895 -0.2057
 9818SOL     OW35416  10.338   1.264   1.741 -0.5744  0.0588 -0.0217
 9818SOL    HW135417  10.339   1.333   1.675  2.4211  1.2067  1.0541
 9818SOL    HW235418  10.258   1.215   1.723 -1.4858  2.2103 -2.4736
 9819SOL     OW35419   4.731   6.280   1.895  0.1040  0.1456  0.1337
 9819SOL    HW135420   4.732   6.361   1.946  1.3705  0.7619 -0.8146
 9819SOL    HW235421   4.797   6.294   1.827 -0.7630 -1.0797 -1.0018
 9820SOL     OW35422   6.463   3.401   7.879  0.6078 -0.3186 -0.2088
 9820SOL    HW135423   6.429   3.386   7.967 -0.4182  0.9869 -0.3560
 9820SOL    HW235424   6.397   3.456   7.837  2.3147  1.2631 -0.9311
 9821SOL     OW35425  10.279   2.136   3.698  0.2828 -0.6325 -0.3871
 9821SOL    HW135426  10.333   2.078   3.752  0.1494  0.3816  0.8828
 9821SOL    HW235427  10.337   2.161   3.626  0.8847 -1.0387 -0.0584
 9822SOL     OW35428   4.419   0.799   3.152 -0.1351  0.1220  0.1588
 9822SOL    HW135429   4.329   0.807   3.119 -0.1430  0.4945  0.2666
 9822SOL    HW235430   4.472   0.791   3.073 -0.2106  0.4358  0.0770
 9823SOL     OW35431  10.206   5.998   1.361  0.1869  0.1252 -0.3302
 9823SOL    HW135432  10.233   5.966   1.275  0.3332  0.6208 -0.4771
 9823SOL    HW235433  10.240   6.088   1.364  1.1559 -0.2402  0.6767
 9824SOL     OW35434  10.419   6.364   3.654  0.2900  0.5307  0.9412
 9824SOL    HW135435  10.344   6.414   3.622  1.9717  2.9689  0.5396
 9824SOL    HW235436  10.433   6.396   3.743  0.0937 -0.8847  1.5107
 9825SOL     OW35437   8.428   8.526   0.597 -0.2400 -0.0863  0.0687
 9825SOL    HW135438   8.453   8.434   0.604 -0.7465 -0.1980  0.5864
 9825SOL    HW235439   8.417   8.554   0.688  1.9006  1.0793  0.0258
 9826SOL     OW35440  12.303  11.954   1.626 -0.3386  0.0525 -0.4233
 9826SOL    HW135441  12.238  11.937   1.558  0.7045 -0.9113 -1.2021
 9826SOL    HW235442  12.297  11.878   1.685  0.8909 -0.6649 -1.1744
 9827SOL     OW35443   8.594  11.921   9.091  0.3729  0.8281 -0.1852
 9827SOL    HW135444   8.507  11.942   9.056 -0.2416 -1.3470 -0.1493
 9827SOL    HW235445   8.655  11.951   9.024 -0.5164  1.0159 -0.9325
 9828SOL     OW35446   1.743  10.731  11.606  0.4109 -0.2698  0.6864
 9828SOL    HW135447   1.682  10.773  11.545  0.5572  0.1914  0.8532
 9828SOL    HW235448   1.730  10.777  11.689  1.7124  0.5435  0.4661
 9829SOL     OW35449  11.178   3.856   3.937 -0.2002 -0.0670 -0.6488
 9829SOL    HW135450  11.206   3.899   4.018  0.2607 -0.5809 -0.5276
 9829SOL    HW235451  11.086   3.834   3.953 -0.6337  1.4003 -0.9513
 9830SOL     OW35452   6.977   5.701   2.174  0.5360  0.0402 -0.0123
 9830SOL    HW135453   6.895   5.733   2.136  0.0044  0.0657  1.1169
 9830SOL    HW235454   7.010   5.775   2.225 -0.8048 -1.1350  2.7962
 9831SOL     OW35455  11.785   8.054   6.165  0.0328 -0.2325  0.3502
 9831SOL    HW135456  11.821   8.057   6.077 -1.0417 -2.5473 -0.2289
 9831SOL    HW235457  11.818   7.972   6.202 -1.3814 -0.4356  1.2449
 9832SOL     OW35458   3.485   0.476   5.915 -0.0274 -0.2440  0.0697
 9832SOL    HW135459   3.464   0.427   5.836 -0.6550  0.8652 -0.4734
 9832SOL    HW235460   3.404   0.521   5.938  0.5391  0.5935  0.5014
 9833SOL     OW35461  10.371   5.229   6.512  0.3271  0.2267 -0.4485
 9833SOL    HW135462  10.414   5.144   6.510 -0.0761  0.0194 -0.3395
 9833SOL    HW235463  10.299   5.221   6.449 -0.0190  0.3218 -0.0677
 9834SOL     OW35464   5.864   6.914   2.754  0.2728  1.1203 -0.2772
 9834SOL    HW135465   5.829   7.001   2.736  0.9017  1.3585 -0.3818
 9834SOL    HW235466   5.889   6.917   2.846  0.5753  1.1500 -0.3598
 9835SOL     OW35467  10.422   6.013   8.814  0.3230  0.0662 -0.4530
 9835SOL    HW135468  10.460   5.925   8.816  0.1388 -0.0007  1.0722
 9835SOL    HW235469  10.494   6.069   8.786  0.7950 -0.4126 -0.2314
 9836SOL     OW35470   0.629   2.852   6.635 -0.2499  0.4687  0.5402
 9836SOL    HW135471   0.629   2.756   6.641  0.5058  0.2669 -1.7396
 9836SOL    HW235472   0.617   2.870   6.541  0.8101  2.5750  0.7540
 9837SOL     OW35473   7.007   6.217   6.600 -0.2287 -0.1847  0.0162
 9837SOL    HW135474   7.000   6.159   6.676 -1.0032  1.6996  1.4708
 9837SOL    HW235475   7.021   6.158   6.526 -2.8756 -2.4133  1.1046
 9838SOL     OW35476   8.283   1.366  11.548  0.0896  0.0285  0.0489
 9838SOL    HW135477   8.221   1.400  11.484  0.8613 -1.5439 -1.6214
 9838SOL    HW235478   8.253   1.403  11.631 -2.0991  0.6151 -0.9077
 9839SOL     OW35479   3.962  10.124   4.022  0.6419 -0.6189 -0.1300
 9839SOL    HW135480   3.881  10.088   4.058  0.0020  0.1819 -0.7027
 9839SOL    HW235481   3.933  10.200   3.970  1.9206  0.8429  1.1796
 9840SOL     OW35482   4.084   8.126  12.092 -0.0992 -0.6163  0.1055
 9840SOL    HW135483   4.004   8.090  12.131  0.3949 -1.2125  0.5816
 9840SOL    HW235484   4.090   8.215  12.128 -1.1066 -0.1726 -0.7620
 9841SOL     OW35485   0.620   7.773   7.872 -0.3408 -0.3105  0.2086
 9841SOL    HW135486   0.654   7.862   7.863 -0.0511 -0.6088 -2.7188
 9841SOL    HW235487   0.660   7.739   7.952  0.0687  1.9439  1.0224
 9842SOL     OW35488   7.564  11.289   3.468  0.2821 -0.1451  0.4582
 9842SOL    HW135489   7.549  11.372   3.423  2.5673 -0.3297 -0.7692
 9842SOL    HW235490   7.635  11.308   3.530 -0.3664 -0.7972  1.4450
 9843SOL     OW35491   7.125   7.325   4.410 -0.4457 -0.6030 -0.0031
 9843SOL    HW135492   7.212   7.304   4.375 -0.0644  1.9505 -0.7678
 9843SOL    HW235493   7.070   7.335   4.332 -0.6059  0.9890  0.2835
 9844SOL     OW35494  12.376   8.333   8.029 -0.3120 -0.1297  0.4422
 9844SOL    HW135495  12.376   8.321   7.934  0.5249 -0.6089  0.4855
 9844SOL    HW235496  12.309   8.399   8.045 -0.4224  0.0055 -0.4885
 9845SOL     OW35497   5.302   6.093   6.920 -0.2446  0.0221 -0.0843
 9845SOL    HW135498   5.292   6.059   7.009  0.0622  1.4912  0.5489
 9845SOL    HW235499   5.241   6.167   6.916  2.5945  2.5802  0.3526
 9846SOL     OW35500   9.100   1.572   4.044  0.2932 -0.6248 -0.1341
 9846SOL    HW135501   9.060   1.645   4.091  2.0252  0.9541 -0.9881
 9846SOL    HW235502   9.158   1.613   3.980  1.3040 -2.7664 -0.6924
 9847SOL     OW35503  12.364   3.851   8.512  0.5908 -1.2448  0.3811
 9847SOL    HW135504  12.373   3.926   8.454  2.1105 -0.8769  1.0647
 9847SOL    HW235505  12.298   3.878   8.576  1.8440 -0.0680  1.2273
 9848SOL     OW35506   2.027   7.226   7.952 -0.2340  0.7748 -0.0426
 9848SOL    HW135507   1.983   7.168   8.014  1.8024 -1.2098 -0.3198
 9848SOL    HW235508   2.090   7.274   8.005  0.5647  0.0660 -0.3226
 9849SOL     OW35509   1.190   2.256   5.356 -0.1576  0.6562 -0.2140
 9849SOL    HW135510   1.245   2.247   5.278 -0.8396  1.2611 -0.7789
 9849SOL    HW235511   1.184   2.167   5.391  2.4650  0.7762  0.7815
 9850SOL     OW35512   9.060   3.426   0.671  0.1860 -0.6577 -0.0512
 9850SOL    HW135513   9.142   3.467   0.696  0.0931 -1.2581  1.3676
 9850SOL    HW235514   9.021   3.486   0.608  1.7272 -0.4054 -0.8043
 9851SOL     OW35515   7.029   8.570   3.918 -0.5886 -0.1463 -0.4910
 9851SOL    HW135516   6.982   8.601   3.840 -1.5649 -0.1103  0.1011
 9851SOL    HW235517   7.040   8.647   3.972 -3.9827 -0.8695  1.4887
 9852SOL     OW35518   3.813   2.250  10.295 -0.2839 -0.2313  0.0889
 9852SOL    HW135519   3.802   2.157  10.275 -1.3494  0.2152 -1.6861
 9852SOL    HW235520   3.876   2.282  10.229  0.7703  0.1464  1.2444
 9853SOL     OW35521   8.859   1.079   6.880  0.1509 -0.2427 -0.1912
 9853SOL    HW135522   8.790   1.089   6.814  0.9896  0.1083 -1.0419
 9853SOL    HW235523   8.823   1.017   6.944 -0.7294 -0.4903 -0.9089
 9854SOL     OW35524   9.197   8.642   2.675 -0.5579  0.0577  0.5850
 9854SOL    HW135525   9.186   8.665   2.583  0.3941  1.5762  0.8102
 9854SOL    HW235526   9.156   8.714   2.723 -1.1420 -0.7690  1.3699
 9855SOL     OW35527   2.465   6.817   2.915 -0.5693 -0.7486  0.5472
 9855SOL    HW135528   2.391   6.871   2.888  1.8954  2.0953 -1.2471
 9855SOL    HW235529   2.491   6.771   2.835  0.9383  0.1581  0.4632
 9856SOL     OW35530   5.707   3.826  11.475  0.3893 -0.2425  0.1338
 9856SOL    HW135531   5.652   3.754  11.446  0.6899  0.0889 -1.3835
 9856SOL    HW235532   5.671   3.903  11.431  0.4002  0.4564  1.2995
 9857SOL     OW35533   7.419   0.814   4.845  0.5656  0.8059  0.7705
 9857SOL    HW135534   7.366   0.869   4.902  0.0833  0.5581  0.5637
 9857SOL    HW235535   7.493   0.787   4.900 -0.4759 -0.3807  1.6658
 9858SOL     OW35536   1.040   0.926   2.686  0.4151  0.5158 -0.1600
 9858SOL    HW135537   1.040   0.842   2.640  0.0914  0.1893  0.4303
 9858SOL    HW235538   1.120   0.924   2.739 -1.1563 -0.8279  2.3508
 9859SOL     OW35539  11.042  11.111   2.970  0.3262 -0.5460  0.3008
 9859SOL    HW135540  10.986  11.179   3.008 -0.3431  0.3475 -2.0970
 9859SOL    HW235541  11.131  11.139   2.989  0.0370  0.6148  0.0167
 9860SOL     OW35542   2.759   9.177   1.000  0.2517  0.3617 -0.2196
 9860SOL    HW135543   2.813   9.101   1.022  1.7929  1.3207 -0.4715
 9860SOL    HW235544   2.813   9.226   0.938 -0.4904  1.8784  0.2921
 9861SOL     OW35545   3.524   3.213   9.935  0.1528 -0.1734  0.2165
 9861SOL    HW135546   3.587   3.140   9.927  2.0712  1.1254  2.1916
 9861SOL    HW235547   3.502   3.235   9.845  2.1663 -1.0314 -0.5555
 9862SOL     OW35548  10.892   3.804   5.279  0.0859  0.3611 -0.2427
 9862SOL    HW135549  10.894   3.855   5.359 -0.4427 -2.2389  1.5659
 9862SOL    HW235550  10.958   3.736   5.292  0.7217  0.4497 -2.4866
 9863SOL     OW35551   3.279   2.125   2.586  0.5180  0.0382 -0.0134
 9863SOL    HW135552   3.373   2.124   2.600  0.3517 -1.3039  1.2091
 9863SOL    HW235553   3.241   2.131   2.673 -0.5240 -0.5438 -0.3999
 9864SOL     OW35554  11.831   1.718   7.192  0.7089  0.4690  0.3763
 9864SOL    HW135555  11.742   1.691   7.171 -0.0880  0.9981  2.8017
 9864SOL    HW235556  11.884   1.641   7.173 -0.4411 -0.2952  0.1830
 9865SOL     OW35557  12.275  11.445   6.302  0.1303  0.5013 -0.3763
 9865SOL    HW135558  12.326  11.397   6.237 -0.3531 -0.9116  0.2433
 9865SOL    HW235559  12.302  11.536   6.291  1.3517  0.0550 -1.3585
 9866SOL     OW35560   7.071   7.902  11.736 -0.3807 -0.1057  0.1021
 9866SOL    HW135561   7.142   7.868  11.790  1.6982  1.6679 -1.3640
 9866SOL    HW235562   7.052   7.989  11.773 -1.8705 -0.5580  0.4867
 9867SOL     OW35563   7.528   5.829   0.307 -0.3759 -0.2777  0.1093
 9867SOL    HW135564   7.459   5.790   0.361 -0.9857 -0.7733 -1.0113
 9867SOL    HW235565   7.608   5.816   0.358 -0.6876 -2.1896  0.1954
 9868SOL     OW35566   2.071   2.441   7.408 -1.1626  0.5478 -0.0724
 9868SOL    HW135567   2.104   2.355   7.384 -0.2530  0.7767  0.3285
 9868SOL    HW235568   2.121   2.502   7.353 -1.5847  0.8478 -0.1333
 9869SOL     OW35569   4.105   3.571   2.674  0.0598 -0.3390 -0.4458
 9869SOL    HW135570   4.156   3.494   2.650  1.3705  0.3537 -0.0030
 9869SOL    HW235571   4.125   3.635   2.605  1.4966  0.6467  0.8214
 9870SOL     OW35572   6.619   8.308  11.890  0.0718 -0.4170 -0.1970
 9870SOL    HW135573   6.575   8.238  11.938  0.0379  1.2641  2.4030
 9870SOL    HW235574   6.581   8.388  11.926  0.9790  0.9847 -2.2191
 9871SOL     OW35575  12.026   7.418   9.867  0.0234  0.2188 -0.1465
 9871SOL    HW135576  11.954   7.375   9.913  0.0297 -0.5699 -0.8508
 9871SOL    HW235577  12.056   7.486   9.927 -1.9427  1.2277 -0.2043
 9872SOL     OW35578   7.907   8.002   3.645 -0.4982 -0.4435 -0.1105
 9872SOL    HW135579   7.951   8.068   3.590 -0.4870  0.0721  0.4973
 9872SOL    HW235580   7.963   7.925   3.638 -0.0116 -0.0994 -0.1162
 9873SOL     OW35581   4.535   0.137   4.281 -0.6374  0.1472 -0.2119
 9873SOL    HW135582   4.457   0.124   4.227  0.1182  0.1896 -1.3525
 9873SOL    HW235583   4.605   0.095   4.232  0.2718  1.1059  0.2230
 9874SOL     OW35584   4.537   8.153  10.506 -0.4375  0.2529 -0.0008
 9874SOL    HW135585   4.517   8.068  10.547 -2.5128  0.1949 -1.0077
 9874SOL    HW235586   4.542   8.214  10.579  1.2005 -0.7251  0.7563
 9875SOL     OW35587   0.505  11.633   1.113  0.1272 -0.0615  0.4871
 9875SOL    HW135588   0.501  11.661   1.022  0.6077 -1.3164  0.0580
 9875SOL    HW235589   0.444  11.691   1.159 -1.3310 -0.4288 -0.8981
 9876SOL     OW35590   3.078   5.953   2.165 -0.2853 -0.8270 -0.6497
 9876SOL    HW135591   2.994   5.914   2.187 -1.1322  0.8673 -0.7664
 9876SOL    HW235592   3.106   5.997   2.245  0.4683 -1.3247 -0.6309
 9877SOL     OW35593  10.154   0.148   7.213  0.0927  0.7524  0.0532
 9877SOL    HW135594  10.082   0.086   7.214  0.2668  0.5347 -0.4797
 9877SOL    HW235595  10.185   0.152   7.304 -0.7883  1.0901  0.3459
 9878SOL     OW35596   0.314   7.206  11.413  0.6397 -0.0934  0.0003
 9878SOL    HW135597   0.223   7.191  11.439  0.3486  0.4275 -0.7181
 9878SOL    HW235598   0.339   7.126  11.366  1.1818 -1.0620  1.8429
 9879SOL     OW35599   4.988  12.024  11.522 -0.4807 -0.2939  0.0105
 9879SOL    HW135600   4.978  11.929  11.524 -0.3917 -0.3394 -0.8916
 9879SOL    HW235601   5.067  12.042  11.574  0.1505 -0.8330 -0.7323
 9880SOL     OW35602   8.022  11.435   4.329  0.3015 -0.6290  0.1704
 9880SOL    HW135603   8.057  11.349   4.304  1.9884 -0.3199  1.3255
 9880SOL    HW235604   7.945  11.415   4.382  1.1454 -1.4577  1.1032
 9881SOL     OW35605   4.000   6.787   2.737  0.4729 -0.1801 -0.1562
 9881SOL    HW135606   4.010   6.882   2.746  0.6029  0.1605 -3.0498
 9881SOL    HW235607   4.078   6.759   2.688  0.0236 -1.6392 -0.0742
 9882SOL     OW35608  10.450   0.799   7.740  0.7560 -0.1409 -0.5365
 9882SOL    HW135609  10.495   0.794   7.825 -0.0341  0.0224 -0.0957
 9882SOL    HW235610  10.486   0.726   7.690 -0.8136 -2.0674  0.9779
 9883SOL     OW35611   8.886   6.771   1.009  0.1498  0.0837 -0.0278
 9883SOL    HW135612   8.839   6.692   0.982 -0.7577  0.7485 -0.4393
 9883SOL    HW235613   8.855   6.788   1.098  1.6591 -0.9840  0.7550
 9884SOL     OW35614  10.848  11.819   6.593 -0.7463 -0.3094 -0.5149
 9884SOL    HW135615  10.856  11.848   6.684 -1.4986 -0.8267 -0.2731
 9884SOL    HW235616  10.793  11.885   6.551  0.4618  0.4990 -0.8786
 9885SOL     OW35617   0.910   6.467   8.468  0.2165  0.1162  0.2563
 9885SOL    HW135618   0.997   6.458   8.506 -0.5145 -0.9015  1.7826
 9885SOL    HW235619   0.894   6.385   8.422 -1.7420 -1.9375  4.0835
 9886SOL     OW35620   4.007  10.074  10.492  0.0515  0.1244 -0.3344
 9886SOL    HW135621   4.081  10.068  10.552  2.1956  2.2299 -2.5138
 9886SOL    HW235622   3.971  10.162  10.506 -2.2916 -0.9381  0.8395
 9887SOL     OW35623   4.112   6.091   8.828  0.6761  0.0136  0.0341
 9887SOL    HW135624   4.171   6.016   8.834 -0.3368 -0.7105  1.9389
 9887SOL    HW235625   4.097   6.103   8.734  0.9847 -2.0771 -0.3314
 9888SOL     OW35626   7.766   2.320   5.554  0.2014 -0.3345  0.0967
 9888SOL    HW135627   7.679   2.314   5.593  0.3249  0.3754  0.5053
 9888SOL    HW235628   7.757   2.279   5.468 -0.3144 -1.0527  0.4815
 9889SOL     OW35629   9.867   4.813   2.533  0.0688  0.4214 -0.1872
 9889SOL    HW135630   9.883   4.830   2.626 -0.2987  0.1567 -0.0727
 9889SOL    HW235631   9.848   4.899   2.496  1.0445  0.6481 -0.1929
 9890SOL     OW35632   3.391   6.539   2.289 -0.0289 -0.4480  0.4833
 9890SOL    HW135633   3.436   6.568   2.368  1.7878  0.7317 -0.8851
 9890SOL    HW235634   3.299   6.560   2.305  0.5787  1.8029  1.4835
 9891SOL     OW35635   5.442   1.583   5.429  0.4174  0.2423  0.1875
 9891SOL    HW135636   5.532   1.584   5.397  0.3934  0.2144  0.1202
 9891SOL    HW235637   5.395   1.525   5.369  1.1472 -2.8555  2.4080
 9892SOL     OW35638   3.535   6.661   7.864  0.4958 -0.3104  0.0780
 9892SOL    HW135639   3.558   6.573   7.893 -0.6361 -1.0149 -1.0133
 9892SOL    HW235640   3.590   6.720   7.915  2.7605 -1.7414 -0.6085
 9893SOL     OW35641   7.465   5.414   9.566  0.6156  0.2906 -0.0720
 9893SOL    HW135642   7.426   5.379   9.646 -0.2831 -0.2497 -0.7236
 9893SOL    HW235643   7.452   5.508   9.572  1.0071  0.3024  0.6479
 9894SOL     OW35644   7.464   9.742   1.394  0.3915 -0.1410  0.5155
 9894SOL    HW135645   7.402   9.719   1.464 -0.2554  0.3181  0.1047
 9894SOL    HW235646   7.425   9.705   1.315  1.2367 -0.8627  0.4204
 9895SOL     OW35647   1.595   8.638   7.716  0.2297  0.1072 -0.2912
 9895SOL    HW135648   1.551   8.675   7.639  0.0582 -1.5943 -1.0418
 9895SOL    HW235649   1.530   8.582   7.757  0.5557  0.4457  0.7231
 9896SOL     OW35650  10.011   8.798   8.717  0.3604  0.1906 -0.3064
 9896SOL    HW135651   9.947   8.807   8.646  1.4160 -0.6818 -1.4173
 9896SOL    HW235652  10.085   8.852   8.690  0.3002  0.8228  0.7408
 9897SOL     OW35653   7.190   1.312  11.148 -0.1860 -0.7148 -0.2783
 9897SOL    HW135654   7.180   1.264  11.066  0.7669 -1.0860 -0.1943
 9897SOL    HW235655   7.126   1.383  11.143 -1.1064 -1.5526 -0.7366
 9898SOL     OW35656   0.177  11.433   1.938 -0.8612  0.1990  0.5967
 9898SOL    HW135657   0.134  11.478   2.010 -0.2350  2.7535 -0.5222
 9898SOL    HW235658   0.136  11.468   1.859  1.6063  1.0577 -0.4267
 9899SOL     OW35659   6.095   1.312   6.748  0.6337 -0.3881  0.2177
 9899SOL    HW135660   6.092   1.267   6.832  0.7060 -2.2769 -0.7477
 9899SOL    HW235661   6.188   1.318   6.727  0.5487 -2.5039 -1.0015
 9900SOL     OW35662   9.020   7.648   9.459  0.0810 -0.5307  0.1192
 9900SOL    HW135663   9.031   7.701   9.537 -0.7855 -1.0915  0.6375
 9900SOL    HW235664   8.983   7.566   9.491  0.1096 -0.9284 -0.8333
 9901SOL     OW35665   2.428   1.748   7.984 -0.1789 -0.1667 -0.0583
 9901SOL    HW135666   2.507   1.775   7.938  0.2097  1.0180  1.2161
 9901SOL    HW235667   2.389   1.682   7.928  2.2795 -1.5988 -0.2204
 9902SOL     OW35668  10.923   7.262  10.980 -1.0055 -0.1226  0.0543
 9902SOL    HW135669  11.002   7.316  10.986 -0.1071 -1.4377  0.4988
 9902SOL    HW235670  10.867   7.294  11.051 -0.5203  0.2728  0.2647
 9903SOL     OW35671   6.117   7.118   9.254 -0.5484  0.1795 -0.5804
 9903SOL    HW135672   6.196   7.065   9.262  0.1267  1.4372  1.5288
 9903SOL    HW235673   6.088   7.134   9.344 -1.4400  2.3376 -1.1792
 9904SOL     OW35674   9.140   2.893  10.031  0.2554 -0.4988 -0.6799
 9904SOL    HW135675   9.235   2.885  10.029  0.3461 -0.7019  1.5724
 9904SOL    HW235676   9.108   2.817   9.983  1.2328 -1.1374 -0.3478
 9905SOL     OW35677   1.880   4.235   4.723  0.4051  0.4388 -0.4492
 9905SOL    HW135678   1.823   4.163   4.694 -1.1339  0.8813  1.2565
 9905SOL    HW235679   1.969   4.202   4.710 -0.2058 -2.3891  1.4915
 9906SOL     OW35680   4.363   8.180   3.526  0.7494  0.2977  0.6559
 9906SOL    HW135681   4.298   8.190   3.456  0.3206 -1.5082  0.7574
 9906SOL    HW235682   4.334   8.240   3.595 -0.6310 -0.2231  0.5538
 9907SOL     OW35683   9.154  11.531   9.476 -0.2307  0.1713 -0.2285
 9907SOL    HW135684   9.144  11.618   9.516 -0.3219 -0.8698  2.1905
 9907SOL    HW235685   9.240  11.501   9.504 -0.4765 -0.7933 -0.4570
 9908SOL     OW35686   6.873   4.532  10.978 -0.3172 -0.2192  0.0500
 9908SOL    HW135687   6.940   4.531  11.046  1.9231 -3.0262 -1.9131
 9908SOL    HW235688   6.842   4.622  10.975 -0.7286  0.0554  4.7673
 9909SOL     OW35689   6.975   3.482   3.339 -0.0494 -0.7868 -0.0545
 9909SOL    HW135690   7.044   3.541   3.368 -0.2839 -1.9246  3.2502
 9909SOL    HW235691   7.017   3.426   3.274  1.2042  0.6023 -0.4806
 9910SOL     OW35692  11.079   2.407   7.608 -0.4528 -0.2231  0.2210
 9910SOL    HW135693  11.054   2.484   7.659  0.5162 -1.2986  2.4635
 9910SOL    HW235694  10.996   2.362   7.589 -0.9170  0.7543 -0.1174
 9911SOL     OW35695  10.690   8.674   7.696  0.0372 -0.2797  0.6418
 9911SOL    HW135696  10.657   8.620   7.624  0.9256 -0.9616  0.7209
 9911SOL    HW235697  10.697   8.762   7.659 -0.1644 -0.4861  0.1031
 9912SOL     OW35698   6.272   7.668   1.324 -0.3040  0.2021 -0.3639
 9912SOL    HW135699   6.315   7.584   1.306 -0.8972 -0.7867  2.4194
 9912SOL    HW235700   6.327   7.732   1.279  3.0771 -1.1864  1.4136
 9913SOL     OW35701   0.913  12.306   6.587  0.2485 -0.1579  0.0658
 9913SOL    HW135702   0.959  12.242   6.642 -1.7608  0.0903  2.2058
 9913SOL    HW235703   0.838  12.259   6.552 -0.3149  0.5526  0.2826
 9914SOL     OW35704   0.600   3.197  11.628  0.0336  0.3856  0.3269
 9914SOL    HW135705   0.680   3.224  11.582  0.2634  0.9467  1.0390
 9914SOL    HW235706   0.529   3.233  11.576  0.1519 -1.2750 -1.0900
 9915SOL     OW35707  10.282   3.029  10.479 -0.0495  0.2689 -0.6167
 9915SOL    HW135708  10.262   2.959  10.417 -1.1342  0.4856 -0.5336
 9915SOL    HW235709  10.278   3.109  10.426  0.4153  0.3385 -0.5519
 9916SOL     OW35710   4.460  11.867   0.069  0.3962 -0.3987  0.1292
 9916SOL    HW135711   4.525  11.857  -0.001  0.2732  0.3519 -0.1043
 9916SOL    HW235712   4.473  11.956   0.100 -0.2248 -0.3931  0.3839
 9917SOL     OW35713   1.499   1.011   5.370 -0.5727  0.4133 -0.2541
 9917SOL    HW135714   1.537   1.040   5.287 -1.1589  0.6563 -0.4349
 9917SOL    HW235715   1.556   1.050   5.437  0.6213 -0.7653 -0.5470
 9918SOL     OW35716   7.284   5.702   6.488  0.3564  0.0268 -0.2304
 9918SOL    HW135717   7.291   5.714   6.583  0.1544 -1.2621 -0.0360
 9918SOL    HW235718   7.198   5.739   6.466  0.5886  0.7330  0.0015
 9919SOL     OW35719   4.718   2.064   6.764 -0.4067 -0.1466  0.4055
 9919SOL    HW135720   4.771   2.143   6.765  1.7661 -1.5211  0.4662
 9919SOL    HW235721   4.733   2.026   6.677  0.2518 -1.5265  1.0991
 9920SOL     OW35722   5.976   2.358   1.947 -0.5521 -0.2012 -0.3274
 9920SOL    HW135723   6.058   2.395   1.978 -0.7945 -0.7790  1.0745
 9920SOL    HW235724   5.992   2.339   1.854  0.8157 -0.0961 -0.1307
 9921SOL     OW35725   7.888   4.242   4.471 -0.2893  0.4008  0.0466
 9921SOL    HW135726   7.853   4.163   4.430  2.4997 -0.4928 -0.8319
 9921SOL    HW235727   7.936   4.286   4.401  2.5296  0.1173  1.6386
 9922SOL     OW35728   9.815   1.603  11.618  0.0096 -0.0580 -0.4550
 9922SOL    HW135729   9.910   1.607  11.614  0.2427 -1.5337  1.6389
 9922SOL    HW235730   9.791   1.663  11.689 -0.4947 -0.5858 -0.1654
 9923SOL     OW35731   2.309   6.990   0.372  0.1337  0.2280 -0.4016
 9923SOL    HW135732   2.334   6.961   0.284  0.6336  0.4770 -0.3428
 9923SOL    HW235733   2.238   6.931   0.397 -1.7704  1.6774 -1.9801
 9924SOL     OW35734   2.375   6.873   8.266  0.3250  0.6756 -0.6222
 9924SOL    HW135735   2.430   6.944   8.233 -1.4787  1.4509 -2.1510
 9924SOL    HW235736   2.360   6.817   8.190  0.6018 -0.6276  0.2472
 9925SOL     OW35737   6.606   4.351   3.861 -0.0517  0.2399  0.1559
 9925SOL    HW135738   6.617   4.303   3.943 -0.0941 -0.7020 -0.3722
 9925SOL    HW235739   6.602   4.283   3.794  2.8153  1.0189 -0.9832
 9926SOL     OW35740   2.560   6.034  10.776 -0.5050 -0.0680  0.1096
 9926SOL    HW135741   2.568   6.129  10.783 -1.1823 -0.1449  3.5869
 9926SOL    HW235742   2.644   6.006  10.740 -0.6715  1.8234 -2.0491
 9927SOL     OW35743   2.810   1.890   7.118  0.1390  0.6999 -0.3542
 9927SOL    HW135744   2.724   1.913   7.154  0.5335  1.4764  0.1152
 9927SOL    HW235745   2.830   1.961   7.058  0.8754  1.0168  0.2570
 9928SOL     OW35746   6.088   4.754   3.666  1.2903 -0.6014  0.1923
 9928SOL    HW135747   6.026   4.695   3.709 -1.0323  0.6384 -1.3114
 9928SOL    HW235748   6.148   4.696   3.620 -0.2990 -1.8484 -0.3915
 9929SOL     OW35749   3.126  10.836   9.136 -0.6916 -0.2342  0.3133
 9929SOL    HW135750   3.156  10.918   9.175 -0.9820 -0.1026  0.2682
 9929SOL    HW235751   3.066  10.863   9.067  1.0443 -0.4041 -1.3479
 9930SOL     OW35752   0.982   4.099   9.705 -0.0844  0.0735  0.0551
 9930SOL    HW135753   0.996   4.026   9.644 -0.4799  0.0229  0.0180
 9930SOL    HW235754   0.916   4.153   9.662  0.5719  0.7302 -0.1503
 9931SOL     OW35755  11.547   9.051   6.077  0.1180 -0.5653 -0.7025
 9931SOL    HW135756  11.457   9.081   6.080  0.1996 -0.3498 -0.3810
 9931SOL    HW235757  11.554   8.986   6.147  0.5878  0.4685  0.2235
 9932SOL     OW35758   9.035   8.852   8.233  0.2427 -0.2955 -0.3314
 9932SOL    HW135759   8.981   8.851   8.311  0.4626  0.0974 -0.1707
 9932SOL    HW235760   9.096   8.778   8.245  0.3414 -0.1743 -0.0857
 9933SOL     OW35761   1.047   0.781   8.118 -0.3009 -0.2535 -0.6493
 9933SOL    HW135762   1.099   0.704   8.142 -0.8142 -0.6481 -0.7605
 9933SOL    HW235763   1.097   0.825   8.051  0.6556  0.2684  0.3749
 9934SOL     OW35764   6.732  12.389   3.969  0.2894  0.3760 -0.4025
 9934SOL    HW135765   6.649  12.433   3.949 -0.1439 -0.2529 -0.0302
 9934SOL    HW235766   6.743  12.326   3.898  1.3693  1.6701 -1.4357
 9935SOL     OW35767   9.558   8.140   0.550 -0.3915 -0.2472  0.4833
 9935SOL    HW135768   9.649   8.111   0.556  0.0561  0.8248 -0.7539
 9935SOL    HW235769   9.548   8.171   0.460 -1.1287  2.3019  1.3476
 9936SOL     OW35770   6.245   6.393   1.158  0.1797  0.4294 -0.2696
 9936SOL    HW135771   6.169   6.451   1.150 -0.5411 -0.1079  1.9473
 9936SOL    HW235772   6.313   6.435   1.105 -1.0264  2.0285 -0.6411
 9937SOL     OW35773   2.977   8.024   7.119 -0.1057 -0.3187 -0.2337
 9937SOL    HW135774   3.035   7.991   7.050  1.2149 -0.5652  0.9586
 9937SOL    HW235775   3.028   8.017   7.199 -2.0088 -1.1220  0.9777
 9938SOL     OW35776   4.482   0.771   7.814 -0.6110 -0.1601 -0.3762
 9938SOL    HW135777   4.496   0.857   7.774  0.0519 -0.4344 -0.7328
 9938SOL    HW235778   4.564   0.752   7.859 -1.4980  0.3711  1.5714
 9939SOL     OW35779   5.858  10.021  12.308  0.6504  0.2345 -0.4677
 9939SOL    HW135780   5.899  10.107  12.302 -0.9463  1.2046  1.4596
 9939SOL    HW235781   5.910   9.974  12.374 -0.8582  1.2963  1.6179
 9940SOL     OW35782   5.705   9.391   5.578 -0.0538 -0.5140 -0.1808
 9940SOL    HW135783   5.686   9.407   5.670  1.0022 -0.6979  0.0815
 9940SOL    HW235784   5.625   9.417   5.532 -0.2916  0.3731  0.7023
 9941SOL     OW35785  10.064  12.258  11.184  0.0446 -0.1510  0.0080
 9941SOL    HW135786  10.043  12.283  11.274 -0.9066 -0.0441 -0.2338
 9941SOL    HW235787  10.038  12.166  11.179 -0.3680 -0.0197 -0.2952
 9942SOL     OW35788   9.429   4.223   9.007 -0.2966  0.9662  0.2893
 9942SOL    HW135789   9.452   4.155   9.070 -0.9239  0.4836  0.0088
 9942SOL    HW235790   9.438   4.305   9.055 -1.1246  0.5837  1.1253
 9943SOL     OW35791   5.435   9.293   9.790 -0.0752 -0.5327  0.5610
 9943SOL    HW135792   5.429   9.250   9.875 -0.4935  0.4916  1.0668
 9943SOL    HW235793   5.515   9.345   9.794 -0.9162  0.8044  0.9781
 9944SOL     OW35794   5.534   3.046   8.026  0.0578  0.4920  0.6663
 9944SOL    HW135795   5.464   3.053   8.090 -0.4533  0.4304  0.1255
 9944SOL    HW235796   5.551   2.951   8.020 -0.2745  0.4528  0.3128
 9945SOL     OW35797   3.734   5.265   7.258  0.0776  0.1270  0.3661
 9945SOL    HW135798   3.785   5.240   7.181 -1.4997  0.1325 -0.7190
 9945SOL    HW235799   3.742   5.360   7.261 -0.7175  0.2248 -0.4257
 9946SOL     OW35800  12.340   0.931  11.387  0.1309  0.0729 -0.3813
 9946SOL    HW135801  12.301   0.936  11.475  2.1370  0.0026  0.5583
 9946SOL    HW235802  12.308   1.009  11.342 -0.8586  0.1585  0.4302
 9947SOL     OW35803   6.708   1.419   4.977  0.1139  0.0647 -0.5372
 9947SOL    HW135804   6.773   1.365   5.022  0.4983  0.1727 -0.9495
 9947SOL    HW235805   6.673   1.363   4.909 -0.6990 -0.2036  0.0846
 9948SOL     OW35806  12.415  11.139   4.640 -0.1440 -0.6165 -0.0707
 9948SOL    HW135807  12.345  11.101   4.588  0.2965  1.0773 -2.0196
 9948SOL    HW235808  12.370  11.179   4.715 -0.9838 -1.4749 -0.0954
 9949SOL     OW35809   0.588  10.241   0.676  0.2195  0.7495  0.2185
 9949SOL    HW135810   0.626  10.161   0.641  0.4516  0.9608 -0.0206
 9949SOL    HW235811   0.529  10.212   0.746  1.9480  0.4985  1.6295
 9950SOL     OW35812   1.772   1.836   2.437  0.4689  0.0553 -0.8670
 9950SOL    HW135813   1.854   1.787   2.445  0.1632 -0.3696 -0.2401
 9950SOL    HW235814   1.786   1.915   2.489  0.6314  0.1921 -1.1162
 9951SOL     OW35815   0.863   4.283   9.270  0.7387  0.3600 -0.8244
 9951SOL    HW135816   0.934   4.235   9.228 -0.5672 -3.3910  0.8217
 9951SOL    HW235817   0.868   4.259   9.362 -1.5826  1.3427 -0.3593
 9952SOL     OW35818   8.540  11.493  12.250  0.3880  0.8018 -0.2786
 9952SOL    HW135819   8.569  11.404  12.269  0.3254  0.1821 -2.7776
 9952SOL    HW235820   8.453  11.483  12.211  0.8283  1.8473 -1.6062
 9953SOL     OW35821   6.629   5.749   5.037  0.3633  0.3054  0.3081
 9953SOL    HW135822   6.663   5.745   4.947 -0.8648  0.5322 -0.1869
 9953SOL    HW235823   6.664   5.670   5.079  1.5404  0.5685 -0.1449
 9954SOL     OW35824   6.551   5.274   4.237  0.1967 -0.4532  0.4080
 9954SOL    HW135825   6.505   5.316   4.164  0.1485 -0.4883  0.4184
 9954SOL    HW235826   6.506   5.190   4.249  0.1496 -0.4118  0.5326
 9955SOL     OW35827   6.688  11.605   1.160  0.0708 -0.5831  0.0521
 9955SOL    HW135828   6.662  11.620   1.069  0.5165 -0.1920 -0.0187
 9955SOL    HW235829   6.681  11.692   1.201  2.0284 -0.2694 -0.1802
 9956SOL     OW35830   6.681   8.521   3.375 -0.0942 -1.0045  0.0386
 9956SOL    HW135831   6.588   8.517   3.398 -0.3553  0.1576 -0.7481
 9956SOL    HW235832   6.702   8.614   3.377  1.2217 -1.2915  0.7751
 9957SOL     OW35833   8.690  12.303   1.025  0.0287 -0.1094  0.3205
 9957SOL    HW135834   8.734  12.233   1.073 -3.6993 -1.0241  2.8511
 9957SOL    HW235835   8.680  12.268   0.936 -0.2700 -2.1144  1.0898
 9958SOL     OW35836   1.867   0.254   0.303  0.1625  0.0603  0.2521
 9958SOL    HW135837   1.859   0.160   0.288 -1.6084  0.3793 -1.2467
 9958SOL    HW235838   1.912   0.262   0.387  1.5069 -2.0893 -0.2097
 9959SOL     OW35839   3.896   9.730   9.651 -0.4363 -0.1981  0.2520
 9959SOL    HW135840   3.982   9.723   9.693 -0.5435  0.9541  0.7013
 9959SOL    HW235841   3.836   9.688   9.713 -0.6272  1.6888  1.4221
 9960SOL     OW35842   2.725   5.505   3.259  0.2348 -0.1207  0.2290
 9960SOL    HW135843   2.784   5.432   3.275  1.7937  0.3197 -2.9064
 9960SOL    HW235844   2.779   5.583   3.268 -1.0230  0.6423  1.8528
 9961SOL     OW35845  11.390  10.154   2.426  0.0862 -0.1829 -0.2438
 9961SOL    HW135846  11.326  10.105   2.477  0.5389  1.0043  1.5266
 9961SOL    HW235847  11.475  10.128   2.462  0.5417 -0.5170 -1.4807
 9962SOL     OW35848   4.149  11.707   2.509 -0.1175  0.2270  0.0108
 9962SOL    HW135849   4.064  11.686   2.469  0.3826  0.6666 -1.2992
 9962SOL    HW235850   4.154  11.648   2.585 -2.1242  1.0375  0.8467
 9963SOL     OW35851   1.280   7.317   1.650  0.1235 -0.6598 -0.0183
 9963SOL    HW135852   1.293   7.345   1.559  0.1209 -0.1058  0.1474
 9963SOL    HW235853   1.359   7.267   1.672 -0.6664 -2.4081 -0.9094
 9964SOL     OW35854  12.053   4.598   3.582 -0.1591  0.8040 -0.7087
 9964SOL    HW135855  11.998   4.651   3.641 -1.2815 -0.1132 -0.8765
 9964SOL    HW235856  12.027   4.508   3.602  0.2202  0.4280 -1.8635
 9965SOL     OW35857  10.316   2.797   2.802 -0.3424  0.4893  0.1064
 9965SOL    HW135858  10.255   2.760   2.738  0.0778  0.3256 -0.2013
 9965SOL    HW235859  10.261   2.854   2.857 -0.6194  1.0142 -0.6983
 9966SOL     OW35860   7.055   3.346  11.140 -0.6067 -0.1902  0.3516
 9966SOL    HW135861   7.071   3.296  11.220 -0.5546  0.3136  0.6601
 9966SOL    HW235862   7.126   3.320  11.081  1.2687  1.7539  1.5827
 9967SOL     OW35863   9.114  12.322   5.534  0.1051 -0.0952 -0.0309
 9967SOL    HW135864   9.048  12.260   5.500  0.9082 -0.6681 -0.5872
 9967SOL    HW235865   9.079  12.350   5.618 -2.4220  2.0548 -1.6274
 9968SOL     OW35866   6.580  10.565   3.927  0.2448 -0.0131  0.3636
 9968SOL    HW135867   6.547  10.529   4.009 -0.9664  0.3245  0.0406
 9968SOL    HW235868   6.580  10.660   3.942 -0.4616  0.0778 -0.1994
 9969SOL     OW35869   9.182   8.375   8.836  0.2303 -0.0651 -0.0518
 9969SOL    HW135870   9.114   8.309   8.827  0.1180 -0.0143  0.3867
 9969SOL    HW235871   9.135   8.459   8.834  0.3240 -0.0166 -0.1800
 9970SOL     OW35872  11.322   6.132   5.980 -0.2769  0.4019 -0.0562
 9970SOL    HW135873  11.280   6.209   5.943  1.6020  1.3275 -0.3837
 9970SOL    HW235874  11.364   6.163   6.060 -0.1627 -0.4575  0.2297
 9971SOL     OW35875   4.194   9.899   9.095  0.1460 -0.3024 -0.2839
 9971SOL    HW135876   4.217   9.858   9.179  0.1970  0.0149 -0.1435
 9971SOL    HW235877   4.277   9.926   9.057 -0.0262  2.7555  1.1880
 9972SOL     OW35878   8.448  10.148   8.123 -0.1058  0.0395 -0.0462
 9972SOL    HW135879   8.369  10.116   8.167  0.4140  0.3303  1.1404
 9972SOL    HW235880   8.486  10.209   8.186  0.2982  1.0018 -1.2073
 9973SOL     OW35881   6.437  12.316  10.371 -0.4405 -0.7374  0.0697
 9973SOL    HW135882   6.401  12.304  10.283  1.0617 -2.2528 -0.3979
 9973SOL    HW235883   6.402  12.400  10.400  0.7190  0.8985 -2.8470
 9974SOL     OW35884   7.583   6.258   3.123 -0.2499  0.1479 -0.0282
 9974SOL    HW135885   7.569   6.163   3.131 -0.5242  0.1906  0.0014
 9974SOL    HW235886   7.659   6.275   3.178 -0.3097 -0.0295  0.1109
 9975SOL     OW35887   9.348  10.550  12.207  0.5490 -0.3754 -0.1546
 9975SOL    HW135888   9.282  10.590  12.264  1.0008  0.6329 -0.3181
 9975SOL    HW235889   9.403  10.499  12.266  0.7643  0.3301  0.2670
 9976SOL     OW35890   0.522   0.763   3.144  0.3257 -0.3699 -0.4008
 9976SOL    HW135891   0.565   0.698   3.088  1.1311 -0.8081  0.6942
 9976SOL    HW235892   0.559   0.847   3.114  0.7398 -0.5952 -0.5383
 9977SOL     OW35893   3.310  12.422   7.691 -0.1642  0.2627 -0.0813
 9977SOL    HW135894   3.323  12.328   7.707 -0.7390  0.2022  0.0691
 9977SOL    HW235895   3.302  12.429   7.596 -1.2550 -0.0049 -0.0218
 9978SOL     OW35896   1.928  11.900   0.311 -0.2432 -0.1529 -0.1281
 9978SOL    HW135897   1.927  11.995   0.299  3.0686 -0.1414 -1.3783
 9978SOL    HW235898   1.924  11.888   0.406 -0.5034  1.2343  0.0547
 9979SOL     OW35899   7.466  10.696  11.570  0.1505  0.3255  0.1476
 9979SOL    HW135900   7.525  10.764  11.538 -0.4565  0.7925  0.0240
 9979SOL    HW235901   7.406  10.679  11.498  0.6754 -0.7936 -0.0592
 9980SOL     OW35902   1.187   6.730  10.944 -0.3849 -0.3475 -0.5883
 9980SOL    HW135903   1.216   6.756  10.857 -1.7737 -0.8506 -1.2246
 9980SOL    HW235904   1.170   6.813  10.989  0.5008 -0.0819 -0.7157
 9981SOL     OW35905   3.820   8.417   0.974 -0.2267 -0.2979  0.0717
 9981SOL    HW135906   3.875   8.487   0.939  1.3918 -1.4626  0.1229
 9981SOL    HW235907   3.744   8.415   0.917  0.3394  0.6276 -0.7464
 9982SOL     OW35908   2.701   5.273   9.138  0.3175  0.4366  0.3901
 9982SOL    HW135909   2.669   5.269   9.048 -0.3653 -0.6117  0.6662
 9982SOL    HW235910   2.765   5.345   9.137 -1.3987  2.0437 -0.3813
 9983SOL     OW35911   7.899   7.085   2.717 -0.4334  0.3778 -0.4067
 9983SOL    HW135912   7.952   7.150   2.669  0.9674 -1.0129 -0.8139
 9983SOL    HW235913   7.935   7.085   2.806  0.1817 -0.4428 -0.6387
 9984SOL     OW35914   8.350   7.222   5.177 -0.1110  0.9535  0.4260
 9984SOL    HW135915   8.311   7.296   5.225 -0.5872  1.6811 -1.0424
 9984SOL    HW235916   8.408   7.264   5.113  1.3368 -0.0428  1.0305
 9985SOL     OW35917   3.804   1.368   0.618 -0.1163 -0.3882  0.2771
 9985SOL    HW135918   3.888   1.323   0.632 -0.5861 -1.0840  0.9633
 9985SOL    HW235919   3.777   1.341   0.531  0.9126  0.7552 -0.4242
 9986SOL     OW35920   9.859   0.147  11.753 -0.5367  0.5383 -0.9914
 9986SOL    HW135921   9.895   0.207  11.819  0.4621 -0.7422 -0.3349
 9986SOL    HW235922   9.893   0.061  11.777 -2.4384 -0.4247 -1.5554
 9987SOL     OW35923   3.045   1.203   5.429 -0.4410 -0.3427 -0.8194
 9987SOL    HW135924   3.111   1.139   5.405  2.5304  1.2570  2.2649
 9987SOL    HW235925   3.062   1.278   5.372  0.5502  0.0911  0.0151
 9988SOL     OW35926   8.587   5.389   1.562 -0.4691  0.4217 -0.1178
 9988SOL    HW135927   8.673   5.397   1.520  0.5318 -2.1541  1.1967
 9988SOL    HW235928   8.596   5.435   1.645 -1.2460  2.3234 -1.0345
 9989SOL     OW35929   5.635  11.676   9.033  0.0857  0.4368 -0.6158
 9989SOL    HW135930   5.702  11.744   9.032  0.0489  0.6318  2.6277
 9989SOL    HW235931   5.676  11.601   8.989  0.7121  1.9231 -2.7305
 9990SOL     OW35932   3.570   5.293   0.497  0.0234  0.2664  0.5442
 9990SOL    HW135933   3.487   5.245   0.495  0.3293 -0.2526 -0.8346
 9990SOL    HW235934   3.563   5.349   0.574 -1.6361  0.2700  0.4382
 9991SOL     OW35935  10.848   4.601   6.252 -0.3083  0.0758  0.2698
 9991SOL    HW135936  10.794   4.579   6.177 -0.5183  1.1983  0.0755
 9991SOL    HW235937  10.885   4.518   6.281  3.4898 -0.0791 -3.8783
 9992SOL     OW35938   5.565   8.494   1.964  0.3052  0.2927 -0.5659
 9992SOL    HW135939   5.647   8.529   1.998  0.3088 -0.0775 -0.1809
 9992SOL    HW235940   5.558   8.408   2.005  0.6408 -0.4455 -2.0169
 9993SOL     OW35941   5.618  10.977   1.940 -0.1320  0.0770 -0.1284
 9993SOL    HW135942   5.638  10.922   1.864 -0.7470  0.2776 -0.4470
 9993SOL    HW235943   5.700  10.982   1.989  0.8873  1.6440 -1.8671
 9994SOL     OW35944  10.649   5.416   7.276 -0.1501  0.0789 -0.1640
 9994SOL    HW135945  10.589   5.456   7.213 -0.7796 -1.3677 -0.5297
 9994SOL    HW235946  10.685   5.490   7.325 -0.9534  1.1063 -1.0655
 9995SOL     OW35947   6.123   3.990   0.522  0.3451  0.3133 -0.0561
 9995SOL    HW135948   6.176   4.057   0.479  0.7151  0.3261  0.4088
 9995SOL    HW235949   6.059   3.964   0.456  0.9185  0.3087 -0.6309
 9996SOL     OW35950  12.460   7.331   7.681 -0.0674 -0.1273  0.2920
 9996SOL    HW135951  12.459   7.321   7.586  0.4886 -1.4555  0.4044
 9996SOL    HW235952  12.369   7.349   7.705 -0.1556  0.5272 -0.5110
 9997SOL     OW35953   4.859   6.469   6.726  0.1645 -0.3437  0.1633
 9997SOL    HW135954   4.833   6.447   6.815 -2.5183 -0.5968 -0.6063
 9997SOL    HW235955   4.843   6.564   6.719 -2.6649 -0.7907 -0.8609
 9998SOL     OW35956  10.786   3.247   1.821 -0.1891 -0.0172 -0.0052
 9998SOL    HW135957  10.829   3.169   1.787  1.8966  0.2738  1.7819
 9998SOL    HW235958  10.857   3.308   1.840 -1.7068  2.1363 -0.8023
 9999SOL     OW35959   2.102   1.012   2.488  0.1304  0.0304  0.1495
 9999SOL    HW135960   2.108   1.107   2.501  1.2592 -0.2635  2.1831
 9999SOL    HW235961   2.147   0.975   2.563 -1.4351 -2.1664  0.0938
10000SOL     OW35962   0.420   9.961   1.127  0.2270  0.3226  0.0595
10000SOL    HW135963   0.444   9.930   1.214  1.1694 -0.1914 -0.3685
10000SOL    HW235964   0.500   9.952   1.075 -0.1120  1.3173 -0.6770
10001SOL     OW35965   7.283   5.793   7.540  0.2988  0.1095 -0.0614
10001SOL    HW135966   7.277   5.714   7.486  0.0008 -0.3996  0.6872
10001SOL    HW235967   7.376   5.803   7.558  0.2328 -0.9607  1.0702
10002SOL     OW35968   0.569   3.998   3.890  0.1132 -0.3824 -0.1259
10002SOL    HW135969   0.662   3.975   3.891  0.4464  0.8897  0.5290
10002SOL    HW235970   0.527   3.927   3.841  1.6730 -0.0741 -2.0441
10003SOL     OW35971   5.834  10.382   8.768  0.4856 -0.0299  0.2709
10003SOL    HW135972   5.904  10.348   8.712 -0.1126 -0.5446 -0.1852
10003SOL    HW235973   5.778  10.306   8.785 -1.1355  0.7583 -1.1458
10004SOL     OW35974   8.846   7.070   2.888 -0.1992  0.0464  0.0089
10004SOL    HW135975   8.819   7.088   2.978 -0.4235 -0.1685 -0.0134
10004SOL    HW235976   8.895   6.988   2.895 -0.4271 -0.0986 -0.1010
10005SOL     OW35977  11.865   5.815   3.113  0.4835  0.1254  0.2662
10005SOL    HW135978  11.788   5.869   3.132 -0.6420 -1.7989  1.4750
10005SOL    HW235979  11.836   5.755   3.044  0.5689 -1.1566  1.2921
10006SOL     OW35980   7.068   1.634  11.993 -0.0121  0.0753 -0.4590
10006SOL    HW135981   7.041   1.589  12.073  0.9826 -2.1784 -1.3004
10006SOL    HW235982   7.073   1.726  12.018 -0.8973 -0.4001  1.7306
10007SOL     OW35983   0.457   4.691   0.962 -0.2924  0.3570  0.5220
10007SOL    HW135984   0.444   4.607   0.918 -0.5350  0.2102  0.8666
10007SOL    HW235985   0.522   4.736   0.909 -1.7921  0.8769 -0.9669
10008SOL     OW35986   4.023   5.657  11.545 -0.0189  0.2985 -0.3638
10008SOL    HW135987   4.064   5.636  11.629 -0.6083  0.6381  0.0152
10008SOL    HW235988   4.094   5.695  11.493  0.4624 -0.3353 -0.1873
10009SOL     OW35989   0.439   6.694   0.690  0.2112  0.6338  0.4621
10009SOL    HW135990   0.382   6.627   0.728  1.0669 -0.0911  0.4874
10009SOL    HW235991   0.465   6.749   0.764  1.8152 -0.7284  0.9723
10010SOL     OW35992   8.948   8.245  12.281  0.3231  0.3296 -0.0274
10010SOL    HW135993   9.016   8.309  12.260  1.0884 -0.3661  0.2998
10010SOL    HW235994   8.942   8.247  12.377  3.9727 -3.6068  0.5809
10011SOL     OW35995  11.869  11.390   4.992  0.1688  0.3508  0.4355
10011SOL    HW135996  11.906  11.450   4.928  0.7470 -0.7223 -0.2566
10011SOL    HW235997  11.880  11.435   5.076  0.4170  1.2820 -0.0777
10012SOL     OW35998   7.173  12.212   8.416 -0.0100 -0.7675  0.2871
10012SOL    HW135999   7.078  12.204   8.423 -0.1282 -0.5834 -0.8747
10012SOL    HW236000   7.191  12.200   8.322  1.0635 -0.3167  0.4216
10013SOL     OW36001   7.234   2.888   7.184 -0.1366  0.1564  0.1091
10013SOL    HW136002   7.317   2.922   7.219 -0.1798  0.4728 -0.0902
10013SOL    HW236003   7.169   2.908   7.251  0.2383 -1.7024  1.0971
10014SOL     OW36004  12.041   7.353   1.645 -0.1836 -0.2223 -0.2006
10014SOL    HW136005  12.070   7.265   1.668  0.1234  0.0654  0.5546
10014SOL    HW236006  12.122   7.401   1.627 -0.2523  0.2365  0.6474
10015SOL     OW36007   2.218   7.029  10.570  0.3485 -0.1738 -0.1894
10015SOL    HW136008   2.134   6.995  10.601  0.0696  0.2123 -0.5166
10015SOL    HW236009   2.213   7.024  10.475 -0.5186  2.5908 -0.3856
10016SOL     OW36010   4.897  12.151  12.475  0.2488  0.4085 -0.1598
10016SOL    HW136011   4.834  12.107  12.417  1.1297  2.1425 -2.6211
10016SOL    HW236012   4.844  12.216  12.522 -0.4793 -0.9973  1.0296
10017SOL     OW36013   9.066   4.063   6.360  0.3394 -0.1068  0.3942
10017SOL    HW136014   9.038   4.017   6.281  1.9375 -0.3559 -0.0618
10017SOL    HW236015   8.991   4.057   6.419 -0.1924 -1.6246 -0.3739
10018SOL     OW36016   2.179  12.420   3.337  0.3017 -0.2899 -0.8978
10018SOL    HW136017   2.196  12.360   3.411 -0.0478  0.5495 -0.1154
10018SOL    HW236018   2.260  12.418   3.286  1.4995  0.9042  0.8186
10019SOL     OW36019   2.725   4.739   1.271  0.0340 -0.3432 -0.4712
10019SOL    HW136020   2.740   4.646   1.289 -0.9634 -0.4193  0.0869
10019SOL    HW236021   2.703   4.742   1.178 -0.3659 -0.7393 -0.3989
10020SOL     OW36022   3.425   5.073   5.854  0.1385 -0.6342 -0.7934
10020SOL    HW136023   3.498   5.021   5.888  0.0538 -0.9906 -1.1489
10020SOL    HW236024   3.364   5.079   5.927  1.1327  0.8521 -0.0263
10021SOL     OW36025  12.443   9.762   4.229  0.8000 -0.6085  0.1564
10021SOL    HW136026  12.497   9.683   4.222 -1.0754 -1.8167 -1.7193
10021SOL    HW236027  12.452   9.805   4.144 -2.6431 -1.9371 -1.0288
10022SOL     OW36028   0.603   0.727   1.555  0.3755 -0.3110 -0.3062
10022SOL    HW136029   0.519   0.742   1.512 -0.3387 -2.8560  0.0038
10022SOL    HW236030   0.592   0.642   1.599  2.7085 -0.1254  0.7672
10023SOL     OW36031   4.327   2.506   5.747  0.5892 -0.2064 -0.6057
10023SOL    HW136032   4.339   2.455   5.827  0.0652  0.1872 -0.2650
10023SOL    HW236033   4.293   2.443   5.683 -3.2156  0.2618  0.7028
10024SOL     OW36034   8.573   3.911   0.137  0.2334 -0.3341  0.5033
10024SOL    HW136035   8.669   3.910   0.135  0.2479  0.5196  0.3055
10024SOL    HW236036   8.549   3.823   0.167  1.0529 -0.9083 -0.4179
10025SOL     OW36037   2.297   9.774   5.392  0.1545  0.3887 -0.4167
10025SOL    HW136038   2.322   9.795   5.482  0.5597 -2.3355  0.1985
10025SOL    HW236039   2.201   9.780   5.392  0.1099 -0.1471  0.3796
10026SOL     OW36040  12.217   6.813   8.077 -0.2688 -0.3573 -0.4760
10026SOL    HW136041  12.267   6.811   8.158  0.5539 -0.0821 -0.9671
10026SOL    HW236042  12.185   6.903   8.070  1.1016  0.0848 -1.3056
10027SOL     OW36043   5.807   1.347   1.248  0.3695 -0.7681 -0.3687
10027SOL    HW136044   5.829   1.264   1.291  0.6358 -0.5017  0.0194
10027SOL    HW236045   5.879   1.361   1.186  0.7280 -0.4557  0.1055
10028SOL     OW36046   1.068   2.622   4.831 -0.1780  0.3502 -0.4443
10028SOL    HW136047   1.142   2.630   4.891  0.0256 -2.2456 -0.2355
10028SOL    HW236048   1.105   2.585   4.752 -1.1509 -0.4359 -0.5555
10029SOL     OW36049   7.772   5.453   1.180 -0.1822  0.9620 -0.1662
10029SOL    HW136050   7.715   5.399   1.125 -1.2530  1.4036  0.4832
10029SOL    HW236051   7.772   5.539   1.139 -0.0590  0.9866 -0.1164
10030SOL     OW36052  12.262   9.782  12.454  0.5997 -0.1708  0.5330
10030SOL    HW136053  12.228   9.756  12.540  1.4973  1.8069  1.5345
10030SOL    HW236054  12.335   9.841  12.474  0.6000  0.6171 -1.5978
10031SOL     OW36055   5.793   0.627   6.498 -0.6918  0.1401  0.3868
10031SOL    HW136056   5.704   0.600   6.476 -0.9010  1.0585  0.0725
10031SOL    HW236057   5.783   0.709   6.545  0.0079  0.5433 -0.1342
10032SOL     OW36058   3.065   8.395   5.479 -0.4352 -0.3423 -0.1448
10032SOL    HW136059   3.097   8.392   5.569  0.7622 -0.2041 -0.5478
10032SOL    HW236060   3.057   8.303   5.454  0.2156 -0.3804 -0.2252
10033SOL     OW36061   6.926   0.031   9.940 -0.5836 -0.3567  0.4488
10033SOL    HW136062   6.859   0.088   9.903  1.5255  0.3699 -2.5604
10033SOL    HW236063   6.901  -0.057   9.911  0.5409  0.0999 -2.1780
10034SOL     OW36064   1.102   2.369  10.231  0.2045 -0.2633  0.0039
10034SOL    HW136065   1.067   2.400  10.315  0.6589 -1.0054  0.4846
10034SOL    HW236066   1.186   2.329  10.254  0.1748 -0.7741 -0.7556
10035SOL     OW36067   2.174   8.341   6.295  0.1359  0.1318 -0.4107
10035SOL    HW136068   2.101   8.306   6.345 -0.5617 -0.5112 -1.8298
10035SOL    HW236069   2.209   8.266   6.247  0.3089  0.8730 -1.4650
10036SOL     OW36070   2.618   7.251   2.576  0.2088  0.1355  0.2732
10036SOL    HW136071   2.577   7.239   2.662 -0.8466  1.8361  0.0501
10036SOL    HW236072   2.710   7.227   2.590  0.4049  1.7796  2.2922
10037SOL     OW36073  11.629   3.038   2.509  0.9203  0.3426 -0.2213
10037SOL    HW136074  11.701   3.053   2.570  1.7780 -0.3495 -1.0321
10037SOL    HW236075  11.607   2.945   2.519 -0.9071  0.8465  1.0939
10038SOL     OW36076   6.435   2.558   7.346  0.1394 -0.8921  0.7450
10038SOL    HW136077   6.495   2.541   7.418 -0.3317 -3.0004  0.6786
10038SOL    HW236078   6.486   2.539   7.267  0.6650  1.4370  0.4403
10039SOL     OW36079   8.870   5.348   7.425  0.1085 -0.2109 -0.0029
10039SOL    HW136080   8.810   5.288   7.381 -0.3465  0.6226 -0.5467
10039SOL    HW236081   8.824   5.376   7.504 -0.0035  0.0058 -0.1418
10040SOL     OW36082   8.056   4.075   4.248  0.2931 -0.3509 -0.2669
10040SOL    HW136083   8.061   4.171   4.244 -0.6450 -0.3264 -1.2818
10040SOL    HW236084   8.087   4.053   4.336  0.5887  0.8789 -0.0443
10041SOL     OW36085   3.000  11.372   8.447 -0.0797 -0.5707 -0.2123
10041SOL    HW136086   2.948  11.308   8.399 -1.2905  1.6367 -2.0627
10041SOL    HW236087   3.074  11.391   8.390 -1.9991  2.7478 -1.9617
10042SOL     OW36088   2.545   9.964  12.145 -0.2538 -0.2562 -0.2951
10042SOL    HW136089   2.529  10.056  12.125 -0.3848 -0.4706 -1.2636
10042SOL    HW236090   2.494   9.946  12.224 -3.0218 -0.3259 -1.9674
10043SOL     OW36091   9.665   7.474   7.385 -0.1053 -0.1938 -0.1612
10043SOL    HW136092   9.738   7.419   7.415  0.5082  0.8605  0.3598
10043SOL    HW236093   9.695   7.564   7.402 -0.8426  0.3289 -1.4992
10044SOL     OW36094  11.067   8.891   2.503 -0.5052 -0.3224  0.1309
10044SOL    HW136095  11.143   8.834   2.492 -0.6911 -0.4179 -0.7951
10044SOL    HW236096  11.081   8.936   2.586  0.0746 -1.0710  0.4484
10045SOL     OW36097   4.600   2.508   8.286 -0.3959  0.0357 -0.2777
10045SOL    HW136098   4.682   2.511   8.237 -0.1598  1.3157  0.1481
10045SOL    HW236099   4.543   2.451   8.234  0.5161 -0.2972 -0.9485
10046SOL     OW36100   1.699   0.246   9.481 -0.0148  0.0398 -0.3900
10046SOL    HW136101   1.698   0.333   9.440  0.4219 -0.6986 -2.0160
10046SOL    HW236102   1.614   0.208   9.459 -0.4309  0.2241  0.7856
10047SOL     OW36103   1.234   8.070   9.478  0.6858  0.3252  0.0081
10047SOL    HW136104   1.309   8.074   9.538  1.4620 -0.5415 -0.8896
10047SOL    HW236105   1.159   8.055   9.536  1.7394 -3.4028  0.6546
10048SOL     OW36106   4.240   2.334   4.362 -0.1471 -0.4384 -0.3609
10048SOL    HW136107   4.304   2.312   4.430 -0.2816 -2.2492 -0.7680
10048SOL    HW236108   4.158   2.296   4.394 -0.0698 -1.9303 -1.8105
10049SOL     OW36109   4.133  12.254  12.059 -0.0625  0.4636 -0.1448
10049SOL    HW136110   4.164  12.166  12.038  1.6195  1.6421 -3.3535
10049SOL    HW236111   4.212  12.301  12.086 -1.0014  0.9725  1.9350
10050SOL     OW36112  12.066   6.155   5.562 -0.3330  0.3045 -0.1717
10050SOL    HW136113  12.115   6.094   5.507 -1.2881  0.2661 -1.0196
10050SOL    HW236114  11.979   6.115   5.569 -0.8243  1.3326 -0.3369
10051SOL     OW36115   7.623   2.968   9.179 -0.2085 -0.1448  0.2659
10051SOL    HW136116   7.621   3.061   9.158  0.4460 -0.7058 -2.7440
10051SOL    HW236117   7.605   2.964   9.273  0.1670  3.0136  0.5728
10052SOL     OW36118   3.257   6.600   6.465  0.3298 -0.2400  0.3561
10052SOL    HW136119   3.340   6.614   6.420  0.2085 -0.7984 -0.0589
10052SOL    HW236120   3.276   6.532   6.530  0.2838 -0.1000  0.5170
10053SOL     OW36121  10.116   2.564   8.430 -0.6113 -0.1931  0.0731
10053SOL    HW136122  10.023   2.553   8.446 -0.7578 -0.0480 -0.6414
10053SOL    HW236123  10.137   2.499   8.363 -0.2325 -0.1252  0.1238
10054SOL     OW36124   1.188   2.271   0.411 -0.1962 -0.4394  0.2997
10054SOL    HW136125   1.217   2.226   0.491  0.0954  2.7402  2.1296
10054SOL    HW236126   1.108   2.316   0.437 -0.8355 -0.3570 -1.6364
10055SOL     OW36127   4.052   7.873  12.403 -0.1880  0.3072  0.2179
10055SOL    HW136128   4.118   7.936  12.374  0.2667  0.2629  1.1269
10055SOL    HW236129   4.049   7.883  12.498 -0.6067 -0.5517  0.3076
10056SOL     OW36130   1.806   5.595   4.453  0.6024  0.3005 -0.0199
10056SOL    HW136131   1.725   5.631   4.490  1.1759  1.8364 -0.1507
10056SOL    HW236132   1.874   5.656   4.483  1.3246  0.6233 -2.1815
10057SOL     OW36133   5.719   0.520   3.505 -0.4159  0.3435 -0.0291
10057SOL    HW136134   5.666   0.542   3.428 -0.5650 -1.0110 -0.3330
10057SOL    HW236135   5.800   0.570   3.493 -0.5956  0.4468 -0.8616
10058SOL     OW36136  11.120   8.146   2.820 -0.1394  0.0742  0.3326
10058SOL    HW136137  11.097   8.175   2.731  1.8758  0.4243 -0.1242
10058SOL    HW236138  11.060   8.194   2.877  1.4668  3.4681 -0.5603
10059SOL     OW36139   6.388  10.361   2.245  0.9319 -0.1617  0.0561
10059SOL    HW136140   6.453  10.425   2.218  2.5208 -2.2491 -1.3528
10059SOL    HW236141   6.435  10.299   2.300 -0.3729 -0.5411  0.7910
10060SOL     OW36142   1.879   9.889   3.983 -0.3944 -0.4582  0.5383
10060SOL    HW136143   1.869   9.984   3.980  0.0624 -0.4279 -0.7383
10060SOL    HW236144   1.948   9.874   4.049  0.2387  0.1767  0.0393
10061SOL     OW36145   0.312   8.382   7.598 -0.0449 -0.0642  0.4622
10061SOL    HW136146   0.344   8.434   7.525 -1.0575 -0.2445 -0.1332
10061SOL    HW236147   0.389   8.336   7.630  0.3718 -0.2150 -0.6907
10062SOL     OW36148   0.940   0.033   4.051  0.0320 -0.0321 -0.0018
10062SOL    HW136149   0.906  -0.028   3.986  0.1170  1.0555 -1.0971
10062SOL    HW236150   0.987  -0.022   4.114 -1.5557 -1.2959  0.1421
10063SOL     OW36151   2.661   4.229   2.671 -0.5586  0.4492 -0.4532
10063SOL    HW136152   2.739   4.259   2.623  0.4928 -2.3514 -0.6498
10063SOL    HW236153   2.600   4.303   2.666  1.8837  2.5967 -0.6663
10064SOL     OW36154  12.058  10.795   5.613  0.1647  0.4120  0.1072
10064SOL    HW136155  11.988  10.778   5.549 -1.7761  0.9330  1.9610
10064SOL    HW236156  12.063  10.714   5.664  0.2524  0.6967  0.5539
10065SOL     OW36157   1.433   4.008   5.058 -0.4457 -0.7452  0.2326
10065SOL    HW136158   1.498   3.945   5.087  1.1315  0.1129 -1.2482
10065SOL    HW236159   1.439   4.007   4.963 -2.1701 -0.1588  0.0747
10066SOL     OW36160   6.267   7.461   0.678  0.0872  0.0250  0.3769
10066SOL    HW136161   6.350   7.504   0.697 -0.5235  0.3027  2.8782
10066SOL    HW236162   6.224   7.517   0.614  0.7624  1.2885  0.9886
10067SOL     OW36163   5.560   0.148   0.079  0.1657 -0.1867 -0.1934
10067SOL    HW136164   5.514   0.167  -0.004 -0.9003 -0.9479  0.1934
10067SOL    HW236165   5.522   0.209   0.141  0.8772  0.2990 -0.2321
10068SOL     OW36166   9.548   1.462   6.109 -0.7698 -0.0534 -0.5080
10068SOL    HW136167   9.575   1.549   6.138 -0.3828 -0.1656 -0.5264
10068SOL    HW236168   9.482   1.434   6.172 -1.2408  0.4478 -0.7695
10069SOL     OW36169   6.181   7.203   3.898 -0.2179  0.6013 -0.1251
10069SOL    HW136170   6.183   7.185   3.992  1.7493  0.1517 -0.2005
10069SOL    HW236171   6.100   7.162   3.867  0.3328 -1.4467  0.9815
10070SOL     OW36172   2.907   2.199   6.504 -0.0077 -0.5793 -0.2545
10070SOL    HW136173   2.851   2.201   6.582  0.6742  1.3161  0.2394
10070SOL    HW236174   2.989   2.159   6.534  0.2876  0.2344  0.0471
10071SOL     OW36175   0.222   1.572   1.258  0.8444 -0.3943 -0.6428
10071SOL    HW136176   0.159   1.526   1.204  0.7016 -2.3758  1.0934
10071SOL    HW236177   0.182   1.575   1.345  1.5238  1.7080 -0.3322
10072SOL     OW36178   3.337   5.822  10.188  1.1026  0.0329  0.4689
10072SOL    HW136179   3.273   5.875  10.235 -0.1337  0.0297 -1.1247
10072SOL    HW236180   3.417   5.875  10.189  1.0825  0.0779  2.4102
10073SOL     OW36181   5.949   1.908  11.967  0.1193  0.8338 -0.4734
10073SOL    HW136182   5.956   1.931  12.059  1.0853  1.6405 -0.7346
10073SOL    HW236183   6.037   1.921  11.932  0.2443 -1.3371 -1.1077
10074SOL     OW36184   3.815   7.028   0.828 -0.8483  0.3068 -1.0205
10074SOL    HW136185   3.724   7.025   0.799 -0.6776 -0.3252 -1.5403
10074SOL    HW236186   3.817   7.094   0.897 -1.5827  0.7480 -1.4069
10075SOL     OW36187  11.564   0.396   4.322  0.1200 -0.3627 -0.6136
10075SOL    HW136188  11.585   0.369   4.232  1.7397  0.7438 -0.6115
10075SOL    HW236189  11.478   0.438   4.314  0.0728 -0.6085 -1.5886
10076SOL     OW36190   4.825   2.723   9.062  0.3917 -0.3078  0.2984
10076SOL    HW136191   4.780   2.734   8.978  3.1274 -0.8993 -1.4045
10076SOL    HW236192   4.873   2.805   9.073  0.5134 -0.4701  0.9862
10077SOL     OW36193   9.705   6.423   5.926 -0.5439 -0.7214 -0.1825
10077SOL    HW136194   9.653   6.464   5.996  0.3602 -2.1237  1.3964
10077SOL    HW236195   9.776   6.379   5.973  0.5608 -1.0418 -2.0860
10078SOL     OW36196  11.299   7.009   0.746 -0.2305 -0.2709 -0.0687
10078SOL    HW136197  11.219   7.017   0.695 -0.1394 -0.9208 -0.3271
10078SOL    HW236198  11.324   7.099   0.766 -0.6886 -0.0391 -0.5096
10079SOL     OW36199  10.468  11.885   9.636  0.0533 -0.1095  0.3779
10079SOL    HW136200  10.452  11.953   9.701 -1.9073  0.6472 -0.7886
10079SOL    HW236201  10.528  11.925   9.573 -1.0205  0.5730 -0.2546
10080SOL     OW36202  12.171  10.350   6.734  0.1786 -0.0733  0.7111
10080SOL    HW136203  12.127  10.363   6.650  0.0719  0.3734  0.8306
10080SOL    HW236204  12.237  10.283   6.717  0.3779  0.2513  0.1889
10081SOL     OW36205   4.975   6.102  10.520 -0.5034 -0.4806  0.2309
10081SOL    HW136206   4.947   6.169  10.457 -1.3041 -0.0881  0.9877
10081SOL    HW236207   5.060   6.073  10.487  0.6858  2.1028  0.7290
10082SOL     OW36208   6.277  11.055   7.025  0.7388 -0.1065  0.3091
10082SOL    HW136209   6.277  11.075   6.931 -0.0458 -0.6504  0.1746
10082SOL    HW236210   6.194  11.089   7.057  0.8030 -0.3259  0.7164
10083SOL     OW36211   7.632   0.775   9.941  0.0288 -0.5365  0.5335
10083SOL    HW136212   7.646   0.858   9.987 -0.7456  0.1355 -0.3998
10083SOL    HW236213   7.720   0.739   9.930  0.3012 -0.2424  1.6689
10084SOL     OW36214   7.294   6.215   0.181 -0.4291  0.2821 -0.3125
10084SOL    HW136215   7.207   6.196   0.146  0.2375  2.2102 -3.3873
10084SOL    HW236216   7.338   6.130   0.182 -1.5514 -0.3488 -1.1997
10085SOL     OW36217  12.213   0.538   1.783  0.1441  0.2100 -0.2127
10085SOL    HW136218  12.146   0.473   1.760  1.0811 -0.8569 -0.0315
10085SOL    HW236219  12.164   0.619   1.796 -1.0578 -0.4340 -0.5292
10086SOL     OW36220   5.001   4.522   5.813 -0.5664  0.3720  0.8883
10086SOL    HW136221   4.980   4.615   5.811 -0.0162  0.5251 -1.5712
10086SOL    HW236222   5.096   4.519   5.823 -0.7282 -0.0198  2.6200
10087SOL     OW36223  11.031   3.891   9.865 -0.2788  0.4838  0.0089
10087SOL    HW136224  11.025   3.966   9.925  0.1160  0.1698  0.4501
10087SOL    HW236225  11.071   3.928   9.786 -0.2867  0.7857  0.1409
10088SOL     OW36226   2.699  11.431   1.876  0.0990  0.9832  0.1304
10088SOL    HW136227   2.632  11.466   1.935 -0.9133  1.2105 -1.1061
10088SOL    HW236228   2.737  11.508   1.835 -0.2969  0.7825 -0.6444
10089SOL     OW36229   4.533  11.537   8.885 -0.4302  0.6149  0.1000
10089SOL    HW136230   4.538  11.442   8.889  1.0582  0.6153 -0.9773
10089SOL    HW236231   4.536  11.565   8.977 -2.0891 -0.3786  0.4936
10090SOL     OW36232   9.941   4.803   4.705  0.1640  0.1043 -0.8364
10090SOL    HW136233   9.910   4.780   4.618 -0.9083 -0.5776 -0.2892
10090SOL    HW236234  10.022   4.753   4.715 -0.6007 -1.1711 -0.7992
10091SOL     OW36235  11.288   9.223   7.207 -0.7964 -0.0993  0.3682
10091SOL    HW136236  11.329   9.137   7.212 -0.7824 -0.1858 -1.0240
10091SOL    HW236237  11.277   9.249   7.299 -0.6284 -1.4918  0.8103
10092SOL     OW36238   4.651   7.877   7.356  0.0712 -0.1228 -0.4701
10092SOL    HW136239   4.573   7.829   7.329 -1.3026  0.2383  2.4292
10092SOL    HW236240   4.712   7.810   7.387  1.3207 -0.4647 -3.3541
10093SOL     OW36241   1.460   6.895   4.975  0.7221  0.1458 -0.3236
10093SOL    HW136242   1.520   6.917   4.904 -1.6118  1.1203 -2.1444
10093SOL    HW236243   1.438   6.979   5.014  1.1468 -0.2844  0.8741
10094SOL     OW36244   5.781   4.170   1.207 -0.0551 -0.0563  0.4622
10094SOL    HW136245   5.740   4.086   1.187 -0.3364  0.3820 -0.9056
10094SOL    HW236246   5.869   4.146   1.238 -1.1666 -0.9898  3.2276
10095SOL     OW36247   9.131   6.311   2.469  0.3823  0.6318 -0.0460
10095SOL    HW136248   9.220   6.334   2.444 -0.2440  1.6654 -1.4694
10095SOL    HW236249   9.140   6.234   2.524  2.1352  0.6093 -0.3307
10096SOL     OW36250  10.113   2.346   3.735 -0.1858  0.6721 -0.5804
10096SOL    HW136251  10.171   2.270   3.733 -1.0006  0.0030  0.1688
10096SOL    HW236252  10.127   2.384   3.822  0.5904  1.7032 -1.1312
10097SOL     OW36253   3.272  10.785   8.432 -0.2169  0.6317 -0.2749
10097SOL    HW136254   3.296  10.775   8.524  0.6952  2.5892 -0.2623
10097SOL    HW236255   3.214  10.860   8.431 -0.0356  0.7638 -1.3335
10098SOL     OW36256   1.435   1.262   7.447  0.5651 -0.2170  0.5509
10098SOL    HW136257   1.459   1.317   7.522 -0.9614 -0.7460  1.4705
10098SOL    HW236258   1.343   1.282   7.431  0.8133 -0.2733 -1.0767
10099SOL     OW36259   0.324   9.872  11.521  0.0213 -0.0427 -0.4750
10099SOL    HW136260   0.237   9.832  11.519  0.5732 -1.3429 -3.0776
10099SOL    HW236261   0.360   9.846  11.606 -3.0327  2.9150  2.0174
10100SOL     OW36262   9.504   3.308   4.865 -0.3334 -0.1780  0.3719
10100SOL    HW136263   9.464   3.381   4.817 -0.2506  0.5470  1.3561
10100SOL    HW236264   9.567   3.351   4.923  1.7612 -1.2526 -0.9918
10101SOL     OW36265   4.058   0.769  10.881 -0.0875  0.5373 -0.4287
10101SOL    HW136266   4.003   0.847  10.872  2.8450  2.9418  0.9107
10101SOL    HW236267   4.116   0.771  10.805  1.5063  1.0280  0.7472
10102SOL     OW36268   0.424   9.177   0.216  0.9224 -0.3554  0.7180
10102SOL    HW136269   0.470   9.161   0.298  2.8992 -0.6531 -0.3897
10102SOL    HW236270   0.345   9.226   0.241  2.1390  0.7240  2.6495
10103SOL     OW36271   7.476   5.745   4.360  0.1987  0.2795  0.2688
10103SOL    HW136272   7.558   5.791   4.381  0.2532 -0.2537  1.2862
10103SOL    HW236273   7.416   5.814   4.331  1.2744  0.5713 -1.4136
10104SOL     OW36274   2.591   3.570   6.319 -0.0168  0.2529 -0.5321
10104SOL    HW136275   2.640   3.599   6.242  0.5040  1.1966  0.1335
10104SOL    HW236276   2.656   3.569   6.390 -0.9710  1.6861  0.4180
10105SOL     OW36277   8.333   2.026   2.996 -0.0418  0.8045  0.2760
10105SOL    HW136278   8.300   1.963   2.931 -0.4193  2.2964 -1.0382
10105SOL    HW236279   8.289   2.108   2.975  0.0791  1.4219  2.2580
10106SOL     OW36280   1.400  10.246   6.232  0.3235  0.5836  0.1911
10106SOL    HW136281   1.317  10.227   6.276  0.9213  0.0989  1.1368
10106SOL    HW236282   1.387  10.216   6.142  0.1070 -1.3375  0.8153
10107SOL     OW36283   3.640   3.588   8.647  0.4305 -0.0902  0.4036
10107SOL    HW136284   3.585   3.576   8.570 -1.1564  0.0352  1.4560
10107SOL    HW236285   3.661   3.682   8.647 -0.6203  0.1562  0.7757
10108SOL     OW36286   8.334   9.790   2.444 -0.5066  0.1139 -0.0643
10108SOL    HW136287   8.405   9.780   2.381 -0.7401  1.1229 -0.5072
10108SOL    HW236288   8.376   9.818   2.525  0.0473 -3.1013  0.9107
10109SOL     OW36289   4.215   7.103   0.694  0.0717  0.0044  0.2982
10109SOL    HW136290   4.216   7.196   0.670 -0.7238 -0.4462 -1.6504
10109SOL    HW236291   4.138   7.068   0.649  0.4556 -1.6396  0.8717
10110SOL     OW36292  11.527   3.234   7.543  0.5192  0.4060  0.2191
10110SOL    HW136293  11.600   3.172   7.548  0.1764 -0.0021  0.2321
10110SOL    HW236294  11.564   3.318   7.570  1.0059  0.2197  0.1318
10111SOL     OW36295   4.173   0.514   9.329 -0.4216 -0.6087  0.5006
10111SOL    HW136296   4.249   0.467   9.293 -0.8031 -1.7161  1.0949
10111SOL    HW236297   4.190   0.519   9.423 -0.2768  0.6990  0.4302
10112SOL     OW36298   8.078   4.674   6.053  0.1773  0.2682  0.2344
10112SOL    HW136299   8.162   4.690   6.096  0.0762  1.0987  0.1424
10112SOL    HW236300   8.089   4.708   5.965 -0.4637  1.0207  0.4305
10113SOL     OW36301  10.467   5.436  11.614 -0.5997  0.7887 -0.3496
10113SOL    HW136302  10.400   5.370  11.630  1.0870 -0.9277 -0.1371
10113SOL    HW236303  10.477   5.482  11.697  0.7126 -1.1035  0.5908
10114SOL     OW36304  11.092   6.874   1.699 -0.0141  0.4240 -0.1828
10114SOL    HW136305  11.016   6.817   1.698 -0.4708  1.0035  0.4495
10114SOL    HW236306  11.163   6.821   1.735 -0.3165  0.1257 -0.0308
10115SOL     OW36307   0.960  10.425   1.574  0.4753 -0.4133 -0.5663
10115SOL    HW136308   0.911  10.404   1.494 -1.7824 -0.4973  0.7428
10115SOL    HW236309   1.052  10.420   1.548 -0.0974 -2.9766 -2.5269
10116SOL     OW36310   9.436   3.318   2.680  0.4213  0.0491  0.4054
10116SOL    HW136311   9.432   3.370   2.760  0.0136 -0.1829  0.5391
10116SOL    HW236312   9.521   3.339   2.642 -0.2333  1.7861 -0.1960
10117SOL     OW36313   2.983   5.958   9.925 -0.1362  0.0857 -0.3601
10117SOL    HW136314   2.918   5.940   9.857 -0.9943  0.0526  0.4510
10117SOL    HW236315   2.961   5.897   9.996  0.2218  0.6958  0.2875
10118SOL     OW36316   4.093  11.066   4.077 -0.3745 -0.1349  0.1574
10118SOL    HW136317   4.124  10.997   4.018  0.6295  0.4049  0.0322
10118SOL    HW236318   4.172  11.097   4.121 -1.1645 -0.9113  2.2213
10119SOL     OW36319   9.333   8.282   2.048 -0.5527 -0.2404  0.4899
10119SOL    HW136320   9.291   8.266   1.963 -0.4954 -1.2213  0.6334
10119SOL    HW236321   9.316   8.374   2.066  0.4644  0.3330 -1.1578
10120SOL     OW36322  10.208   4.440   0.956  0.5077  0.3589 -0.0837
10120SOL    HW136323  10.116   4.448   0.982  0.3274  0.8051 -0.8471
10120SOL    HW236324  10.205   4.408   0.866  1.1462 -1.9553  0.6469
10121SOL     OW36325   1.958   1.199   5.918  0.3897 -0.3816 -0.4397
10121SOL    HW136326   1.949   1.169   6.008 -0.4411  0.3611 -0.2585
10121SOL    HW236327   1.903   1.139   5.867 -1.6689  1.0152 -0.0140
10122SOL     OW36328   7.337   5.378   6.177 -0.0633 -0.0211  0.0593
10122SOL    HW136329   7.410   5.378   6.115 -1.3039 -0.4417 -1.4804
10122SOL    HW236330   7.376   5.401   6.261  2.0352 -1.3668 -0.4714
10123SOL     OW36331   9.546   1.741   1.206  0.1236 -0.0970 -0.1834
10123SOL    HW136332   9.596   1.769   1.282  0.2486 -0.5237 -0.1025
10123SOL    HW236333   9.460   1.717   1.241 -0.0996  0.5086 -0.3026
10124SOL     OW36334   9.687   7.902   2.217 -0.5244  0.4303  0.7336
10124SOL    HW136335   9.765   7.947   2.184 -1.4246  0.0435 -2.1908
10124SOL    HW236336   9.686   7.923   2.310  1.5173  2.7901  0.3552
10125SOL     OW36337   6.938   5.706  12.057  0.3191 -0.1476 -0.4200
10125SOL    HW136338   7.032   5.722  12.046  0.0725  1.2350 -0.6895
10125SOL    HW236339   6.908   5.679  11.970  0.5331 -1.0414 -0.2287
10126SOL     OW36340   4.550  10.547   6.362  0.4986  0.0591  0.4371
10126SOL    HW136341   4.634  10.521   6.398  0.8215  1.4368  0.7215
10126SOL    HW236342   4.550  10.643   6.365 -1.0765  0.0931  0.4521
10127SOL     OW36343  11.748   5.142  11.759  0.1335  0.0882 -0.7160
10127SOL    HW136344  11.694   5.063  11.763 -1.6779  1.3500  1.1382
10127SOL    HW236345  11.701   5.201  11.700  0.7237  0.3468 -0.9428
10128SOL     OW36346   7.071  11.115   3.606  0.3786 -0.1097  0.1069
10128SOL    HW136347   6.985  11.156   3.607  0.0750 -0.6872 -0.8277
10128SOL    HW236348   7.060  11.035   3.657  0.7598  0.5564  1.2494
10129SOL     OW36349   2.752   6.895   9.876  0.2265  0.0897  0.2014
10129SOL    HW136350   2.812   6.912   9.803  0.3359  0.9556  0.4763
10129SOL    HW236351   2.795   6.936   9.951  0.3464 -1.2080  0.8543
10130SOL     OW36352  10.717   5.755   2.754  0.2304 -0.0497  0.2225
10130SOL    HW136353  10.667   5.781   2.677  1.0954  1.1580  0.0345
10130SOL    HW236354  10.654   5.711   2.811 -0.3255 -1.4228 -1.3587
10131SOL     OW36355   3.649   5.781   3.489 -0.3829  0.4811  0.3737
10131SOL    HW136356   3.685   5.696   3.514 -0.0444  0.1659 -1.0892
10131SOL    HW236357   3.568   5.788   3.538 -0.7729 -1.0136 -0.0037
10132SOL     OW36358   9.509  10.530   3.573  0.3438 -0.1033  0.1856
10132SOL    HW136359   9.526  10.489   3.489 -1.5637 -0.8544  0.1117
10132SOL    HW236360   9.551  10.472   3.637 -0.9214 -1.3281 -0.0442
10133SOL     OW36361   0.840   3.882   0.128  0.0625  0.2069  0.4739
10133SOL    HW136362   0.897   3.926   0.065 -0.7056  0.5411  0.0035
10133SOL    HW236363   0.797   3.813   0.078 -0.8287  0.7090  0.5234
10134SOL     OW36364   0.437  10.342   1.844  0.1789 -0.0320  0.4051
10134SOL    HW136365   0.494  10.419   1.843  1.7972 -1.1639 -1.3912
10134SOL    HW236366   0.385  10.350   1.764  0.5625 -0.9460  0.0620
10135SOL     OW36367   8.504   6.674   4.970 -0.1332 -0.0668  0.3785
10135SOL    HW136368   8.444   6.600   4.969  0.2469 -0.3735  0.0138
10135SOL    HW236369   8.460   6.742   4.918  0.2610 -0.6337 -0.7193
10136SOL     OW36370   1.774   6.578  10.744 -0.5300  0.0699  0.5468
10136SOL    HW136371   1.837   6.506  10.738 -1.2782 -0.7181  1.6355
10136SOL    HW236372   1.761   6.590  10.838 -0.2613  1.7996  0.3933
10137SOL     OW36373  11.835   3.038   8.014 -0.9817  0.1540 -0.0676
10137SOL    HW136374  11.876   2.967   8.064  0.7630  0.9783 -0.2587
10137SOL    HW236375  11.825   3.109   8.077  1.1143  1.1547 -0.7702
10138SOL     OW36376  11.202   5.115  10.544  0.2235  0.1392  0.0226
10138SOL    HW136377  11.251   5.190  10.578 -1.3160  1.5925 -0.7896
10138SOL    HW236378  11.268   5.060  10.502  1.5101  0.5895  1.3624
10139SOL     OW36379   8.844   0.297   1.665  0.2292 -0.2018 -0.1740
10139SOL    HW136380   8.793   0.296   1.584 -1.7496 -1.8366  0.9672
10139SOL    HW236381   8.923   0.248   1.645 -0.2152 -0.5491 -1.1446
10140SOL     OW36382   5.368   1.146   6.618 -0.3655 -0.3198  0.4297
10140SOL    HW136383   5.298   1.105   6.669 -0.3624  1.5706  2.0907
10140SOL    HW236384   5.347   1.240   6.619  0.8836  0.0272 -1.1412
10141SOL     OW36385   6.254  10.593  11.438  0.5105  0.2563 -0.1635
10141SOL    HW136386   6.335  10.576  11.486  1.4963  2.0407 -1.0907
10141SOL    HW236387   6.188  10.539  11.482  2.3995 -2.1780 -0.1122
10142SOL     OW36388   2.590   1.449   9.778 -0.0604 -0.0825  0.2165
10142SOL    HW136389   2.557   1.380   9.721  2.0209 -1.5361  0.6618
10142SOL    HW236390   2.614   1.405   9.859  1.1818  1.1706  0.5818
10143SOL     OW36391   6.946   4.031   5.900 -0.0244 -0.0710 -0.1430
10143SOL    HW136392   7.039   4.045   5.918  0.0825 -0.2382 -0.5704
10143SOL    HW236393   6.921   4.104   5.844  0.0030 -0.3636 -0.5434
10144SOL     OW36394   7.600   3.377   2.957 -0.5763 -0.3503 -0.2379
10144SOL    HW136395   7.579   3.454   2.903  1.1054 -0.7533 -1.5645
10144SOL    HW236396   7.677   3.338   2.914  0.4933 -1.0408  2.1397
10145SOL     OW36397  10.447   5.692   7.832 -0.3151  0.2918  0.4728
10145SOL    HW136398  10.426   5.719   7.922  1.1786  1.0617  0.6294
10145SOL    HW236399  10.393   5.614   7.817 -2.4003  1.5391  1.1453
10146SOL     OW36400  11.887   2.490   6.113 -0.1186 -0.7364  0.4386
10146SOL    HW136401  11.891   2.565   6.053  0.9354 -0.8266  0.3784
10146SOL    HW236402  11.794   2.469   6.118 -0.3430  0.0220 -0.2376
10147SOL     OW36403   7.025   9.551   1.405  0.3663  0.1028 -0.1728
10147SOL    HW136404   6.961   9.549   1.476  0.9983 -2.3819  0.4348
10147SOL    HW236405   7.088   9.617   1.431 -0.2872  0.3745  0.7744
10148SOL     OW36406   3.363   5.383   2.690  0.0994 -0.1709 -0.3881
10148SOL    HW136407   3.433   5.340   2.640  0.3618  1.4996 -1.5329
10148SOL    HW236408   3.284   5.333   2.669  0.9883 -2.5745  1.5238
10149SOL     OW36409  11.916   6.017   9.766 -0.0381 -0.1306  0.1036
10149SOL    HW136410  11.987   5.954   9.750 -0.6621 -1.0970  1.0499
10149SOL    HW236411  11.836   5.968   9.749 -0.5388  0.4128  0.8447
10150SOL     OW36412   0.890   8.194   6.453 -0.8905  0.4250  0.3519
10150SOL    HW136413   0.835   8.265   6.418 -0.7079  1.3104  1.7530
10150SOL    HW236414   0.975   8.236   6.469 -0.3581 -0.4746 -0.0975
10151SOL     OW36415  12.297   5.269   1.963 -0.1925 -0.3984 -0.1821
10151SOL    HW136416  12.304   5.223   2.047  2.7842 -0.3352 -0.3159
10151SOL    HW236417  12.351   5.218   1.903 -0.0392  1.0923 -1.3604
10152SOL     OW36418   3.554   6.165  10.435  0.2263 -0.4525 -0.2208
10152SOL    HW136419   3.525   6.157  10.526  1.3686  0.3912  0.2381
10152SOL    HW236420   3.649   6.150  10.438  0.3713  0.1712 -1.1894
10153SOL     OW36421   1.471  12.039   6.661  0.1229  0.2670  0.8866
10153SOL    HW136422   1.504  12.062   6.574 -0.0366  0.4700  0.8796
10153SOL    HW236423   1.419  11.960   6.647  1.2772 -0.5311  1.0267
10154SOL     OW36424   8.179   4.413   8.829 -0.1460  0.3309 -0.5258
10154SOL    HW136425   8.160   4.333   8.878  1.3680 -0.4603 -1.1835
10154SOL    HW236426   8.229   4.466   8.891  2.2404 -0.8964 -1.3124
10155SOL     OW36427   8.519   8.572   5.271 -0.3344  0.0549 -0.3770
10155SOL    HW136428   8.423   8.565   5.268 -0.2463 -1.2869 -0.3694
10155SOL    HW236429   8.545   8.515   5.343  0.5653 -0.6076 -1.2093
10156SOL     OW36430   9.259   6.249   8.488 -0.2511  0.0771  0.8118
10156SOL    HW136431   9.213   6.174   8.450  1.2725 -0.9063  0.8008
10156SOL    HW236432   9.219   6.261   8.574 -1.3137  0.0309  0.3399
10157SOL     OW36433  11.245   2.380  10.003 -0.3986 -0.0881 -0.4360
10157SOL    HW136434  11.253   2.461  10.054  0.6253 -0.3990 -0.0813
10157SOL    HW236435  11.267   2.310  10.065 -3.3252 -0.8722 -0.1270
10158SOL     OW36436   8.253   0.022   4.405  0.6935 -0.1558 -0.8341
10158SOL    HW136437   8.282   0.021   4.314  0.1414  1.1316 -1.0329
10158SOL    HW236438   8.333   0.034   4.456  1.0682 -1.3524 -1.0935
10159SOL     OW36439   6.610  10.356   1.340  0.3188  0.1434 -0.0193
10159SOL    HW136440   6.680  10.307   1.381 -0.3971  0.0622  1.1624
10159SOL    HW236441   6.643  10.378   1.253  2.2594  1.0661  0.8780
10160SOL     OW36442   4.510   9.190  12.287 -0.1571  0.1200 -0.1405
10160SOL    HW136443   4.562   9.124  12.332 -1.0217  0.1800  0.9805
10160SOL    HW236444   4.522   9.170  12.194  1.4865 -0.1308  0.1048
10161SOL     OW36445   4.393   3.284  11.062  0.2526 -0.1633 -0.1777
10161SOL    HW136446   4.429   3.279  11.151 -0.1243  0.6709  0.0357
10161SOL    HW236447   4.327   3.354  11.067  0.9035  0.5682 -1.3468
10162SOL     OW36448   6.921   3.722   8.078 -0.9605 -0.1512 -0.2221
10162SOL    HW136449   6.880   3.642   8.044  1.1635 -0.8162 -1.3842
10162SOL    HW236450   7.002   3.692   8.119 -0.5719  1.3231  0.1469
10163SOL     OW36451   8.986   0.528   1.778 -0.6041  0.2256  0.0714
10163SOL    HW136452   8.937   0.587   1.721 -0.2932  0.2287 -0.1978
10163SOL    HW236453   8.973   0.441   1.740  0.9627  0.4160 -1.0151
10164SOL     OW36454   3.699   3.379   4.367 -0.3079 -0.5934 -0.1385
10164SOL    HW136455   3.789   3.389   4.335 -0.2770 -0.7021 -0.0847
10164SOL    HW236456   3.686   3.455   4.424 -0.1536 -0.7309  0.0783
10165SOL     OW36457  11.211  11.397   2.440 -0.1106  0.8133 -0.1751
10165SOL    HW136458  11.243  11.436   2.521 -0.5604  0.2751  0.2625
10165SOL    HW236459  11.275  11.329   2.418  1.0541  2.2014 -1.3059
10166SOL     OW36460  11.911  12.085   8.384 -0.0617  0.4656  0.0054
10166SOL    HW136461  11.927  12.180   8.379  0.9694  0.2496 -1.5595
10166SOL    HW236462  11.826  12.073   8.343 -0.6479  0.7933  1.0849
10167SOL     OW36463  11.346   5.628   2.441  0.0580 -0.4668  0.1277
10167SOL    HW136464  11.382   5.716   2.453 -0.5683 -0.1217 -0.4680
10167SOL    HW236465  11.285   5.617   2.513  0.0957 -0.3935  0.1715
10168SOL     OW36466   8.272   7.165   1.973  0.1534  0.3804  0.2786
10168SOL    HW136467   8.201   7.112   2.010 -0.0085  1.3928  1.4763
10168SOL    HW236468   8.244   7.255   1.987  1.4455  0.7945  0.3164
10169SOL     OW36469   0.598   8.584   4.928 -0.2939 -0.4580 -0.1295
10169SOL    HW136470   0.596   8.650   4.858 -0.3034  0.3204  0.5974
10169SOL    HW236471   0.628   8.631   5.005 -2.4313 -0.7858  0.9627
10170SOL     OW36472   4.130   6.629  12.387 -0.1019  0.1113  0.3722
10170SOL    HW136473   4.162   6.585  12.308  0.2220  1.0008 -0.0069
10170SOL    HW236474   4.097   6.713  12.356 -0.3248  0.3154  1.1405
10171SOL     OW36475   6.593  11.395   8.150 -0.4066 -0.3102  0.2054
10171SOL    HW136476   6.561  11.423   8.236 -2.3868  0.9029 -0.8562
10171SOL    HW236477   6.651  11.466   8.122  0.3313 -0.7599  0.5570
10172SOL     OW36478   8.829   2.520   4.385 -1.3004  0.5864  0.7813
10172SOL    HW136479   8.843   2.557   4.471 -0.2214  0.3423  0.7174
10172SOL    HW236480   8.865   2.432   4.390 -1.0013  0.6524  0.0178
10173SOL     OW36481   2.026   6.402   3.065 -0.3764  0.0695 -0.1963
10173SOL    HW136482   2.096   6.467   3.061  0.0455 -0.4236 -1.0782
10173SOL    HW236483   2.032   6.366   3.154  1.0684 -0.5958 -0.5367
10174SOL     OW36484   7.987   7.150   2.969  0.1806  0.1280  0.6775
10174SOL    HW136485   7.944   7.145   3.055 -0.0964  0.7744  0.5823
10174SOL    HW236486   8.073   7.188   2.988  0.1637  0.1636  0.6829
10175SOL     OW36487   5.914   4.325   0.226  0.0316  0.1932  0.3281
10175SOL    HW136488   5.927   4.392   0.294 -0.8867 -0.2099  0.9319
10175SOL    HW236489   5.939   4.243   0.269  0.8918  0.1045 -0.3224
10176SOL     OW36490  10.975   3.504   2.494  0.1859 -0.2071  0.2685
10176SOL    HW136491  10.989   3.541   2.407  0.6724 -1.5662 -0.2634
10176SOL    HW236492  10.887   3.466   2.490  0.0288  0.1232  0.5285
10177SOL     OW36493   0.953   1.190   6.019 -0.0916  0.5018 -0.1539
10177SOL    HW136494   0.964   1.098   6.042  1.1782  0.4527 -0.8998
10177SOL    HW236495   1.040   1.228   6.029 -0.5594  1.5808 -0.0618
10178SOL     OW36496   8.850   2.786   7.086 -0.3713  0.3074  0.3126
10178SOL    HW136497   8.875   2.696   7.108  0.7289  0.0955 -1.6116
10178SOL    HW236498   8.864   2.835   7.168  1.1962 -0.8703  0.8027
10179SOL     OW36499   7.898  11.115  12.188  0.3126 -0.4384  0.6933
10179SOL    HW136500   7.945  11.176  12.132 -0.4300 -0.0262  0.5060
10179SOL    HW236501   7.958  11.042  12.200  1.4749  0.5989  1.4538
10180SOL     OW36502   4.657   2.767   4.944 -0.2193 -0.4020 -0.1019
10180SOL    HW136503   4.677   2.748   5.035 -0.0922 -1.9603 -0.4309
10180SOL    HW236504   4.690   2.691   4.895 -2.0791 -0.5529 -1.2222
10181SOL     OW36505   4.270   7.726   1.266 -0.0437 -0.0671 -0.0121
10181SOL    HW136506   4.247   7.779   1.189  0.6621 -1.6723 -1.4101
10181SOL    HW236507   4.317   7.651   1.229  1.7225 -0.1198  2.1345
10182SOL     OW36508   2.791  12.364   6.933  0.3596 -0.1976  0.7086
10182SOL    HW136509   2.721  12.311   6.896  0.4800 -0.9204  1.4742
10182SOL    HW236510   2.832  12.307   6.998  0.6746  0.7427  1.3563
10183SOL     OW36511   6.528   3.517   1.346 -0.0869  0.3749  0.3714
10183SOL    HW136512   6.463   3.528   1.278 -1.3319  1.0444  1.6276
10183SOL    HW236513   6.479   3.484   1.422  1.8230 -4.5560 -0.1464
10184SOL     OW36514   9.349  11.407   3.977 -0.4873 -0.0167 -0.1121
10184SOL    HW136515   9.398  11.396   4.058 -0.2902  2.4519  0.1940
10184SOL    HW236516   9.405  11.369   3.910  1.1548  1.2464  0.4590
10185SOL     OW36517   0.776   0.525   3.302 -0.1460 -0.1104 -0.2786
10185SOL    HW136518   0.752   0.439   3.337  1.5182 -0.5144 -0.0346
10185SOL    HW236519   0.859   0.546   3.344  1.4839 -0.1770 -3.2008
10186SOL     OW36520   8.597  10.748   7.332  0.4349  0.3796 -0.5149
10186SOL    HW136521   8.638  10.663   7.351  1.5477  0.6063 -1.7491
10186SOL    HW236522   8.565  10.778   7.417 -1.0491 -1.7876 -0.2216
10187SOL     OW36523  10.380  10.583   7.526 -0.4146  0.3960 -0.0337
10187SOL    HW136524  10.444  10.539   7.581 -1.6634 -0.7665  0.5474
10187SOL    HW236525  10.365  10.667   7.570  0.6907  0.6834 -0.1838
10188SOL     OW36526  11.031   2.150   5.950  0.4347 -0.5871  0.0902
10188SOL    HW136527  10.999   2.233   5.916 -1.3814 -1.1740  0.2679
10188SOL    HW236528  11.074   2.109   5.876 -1.0372 -0.6421 -0.7772
10189SOL     OW36529   0.120   9.778   4.719 -0.1548 -0.4116  0.1109
10189SOL    HW136530   0.132   9.841   4.648  0.1776  0.5183  0.9632
10189SOL    HW236531   0.026   9.775   4.733 -0.4014 -1.9158 -1.4871
10190SOL     OW36532   6.458  12.141   9.340 -0.0725 -0.2403 -0.1545
10190SOL    HW136533   6.505  12.198   9.279 -0.5537  1.4012  0.9351
10190SOL    HW236534   6.464  12.186   9.424  1.1320 -2.7420  1.2094
10191SOL     OW36535   6.208   5.848   0.862  0.5399 -0.1866 -0.1897
10191SOL    HW136536   6.303   5.859   0.859  0.6537 -0.6838  0.8977
10191SOL    HW236537   6.174   5.937   0.860  1.1464  0.1494  1.7202
10192SOL     OW36538  10.158   6.812  12.440 -0.4177 -0.2482  0.1454
10192SOL    HW136539  10.121   6.874  12.377  2.0459  0.8004 -0.4015
10192SOL    HW236540  10.227   6.861  12.484  0.3713 -2.0582  1.0265
10193SOL     OW36541   6.457   5.601   8.535 -0.2021 -0.2632  0.4773
10193SOL    HW136542   6.478   5.516   8.496 -1.0388  0.1882 -1.0627
10193SOL    HW236543   6.542   5.639   8.557  0.3105 -0.6181 -0.8103
10194SOL     OW36544   1.831   4.660   7.247  0.3409 -0.3336  0.2338
10194SOL    HW136545   1.903   4.722   7.260 -0.6464  0.2340  4.8842
10194SOL    HW236546   1.860   4.581   7.294 -1.8818 -0.1154  2.1563
10195SOL     OW36547  10.991   4.191   3.889  0.3362 -0.6095 -0.8573
10195SOL    HW136548  10.958   4.238   3.965 -0.9430 -2.6077 -0.1087
10195SOL    HW236549  11.057   4.250   3.851  1.0075  0.4405  1.7552
10196SOL     OW36550  10.186   7.898   8.566 -0.1482 -0.2951  0.6415
10196SOL    HW136551  10.244   7.956   8.615 -0.4210 -1.7554  2.8399
10196SOL    HW236552  10.099   7.939   8.574  0.2188  0.9867 -1.2016
10197SOL     OW36553   1.544   5.881   1.936 -0.1136  0.1460 -0.0727
10197SOL    HW136554   1.554   5.807   1.995  1.9544  1.1732  0.9665
10197SOL    HW236555   1.546   5.842   1.848 -0.1639 -1.1128  0.4596
10198SOL     OW36556   2.784  10.751  10.337 -1.0762 -0.2874  0.1810
10198SOL    HW136557   2.819  10.716  10.255  0.1886  0.0235  0.5509
10198SOL    HW236558   2.858  10.744  10.398 -1.3749  1.2905  0.7557
10199SOL     OW36559   6.520   4.132   4.443  0.1641 -0.2104  0.5022
10199SOL    HW136560   6.594   4.127   4.504  1.1024  1.0507 -0.4819
10199SOL    HW236561   6.531   4.216   4.398 -0.2319 -1.2762 -1.7394
10200SOL     OW36562   6.969   7.857   7.843 -0.2756 -0.0948 -0.4689
10200SOL    HW136563   6.931   7.806   7.915 -0.1148  1.1408  0.5249
10200SOL    HW236564   6.904   7.851   7.773 -0.4428 -1.3165 -0.2356
10201SOL     OW36565   4.464   1.932   0.003 -0.0072  0.2361 -0.2645
10201SOL    HW136566   4.471   1.842   0.035  1.1434  0.6358  0.6883
10201SOL    HW236567   4.369   1.949   0.000 -0.2321 -0.9965 -0.4740
10202SOL     OW36568  12.000   9.778  10.952 -0.0762  0.1055  0.0522
10202SOL    HW136569  11.999   9.858  10.899 -0.7522  1.0012  1.3290
10202SOL    HW236570  11.907   9.754  10.958  0.0426 -0.2595  0.4081
10203SOL     OW36571   0.387   3.207   7.518 -0.4127  0.2552  0.3025
10203SOL    HW136572   0.313   3.179   7.572 -0.9222  0.4806 -0.2692
10203SOL    HW236573   0.408   3.295   7.548 -0.0036 -0.0210  0.8476
10204SOL     OW36574  10.776   8.233   1.136  0.4841  0.2686 -0.3996
10204SOL    HW136575  10.757   8.157   1.080 -1.3324 -0.5147  1.1805
10204SOL    HW236576  10.869   8.252   1.120  0.4233 -0.8823 -2.4789
10205SOL     OW36577  10.170   0.764   8.852 -0.3673  0.2796 -0.0157
10205SOL    HW136578  10.204   0.676   8.869  0.3506  0.6751  0.6699
10205SOL    HW236579  10.207   0.788   8.767 -2.6707 -1.0766 -1.4985
10206SOL     OW36580   6.561   0.808  11.082 -0.3257  0.2008 -0.2453
10206SOL    HW136581   6.608   0.725  11.073  1.3986  1.1575 -0.4974
10206SOL    HW236582   6.575   0.833  11.174  0.0320  0.7073 -0.4367
10207SOL     OW36583   3.344   5.907   7.409  0.8808 -0.0032 -0.0743
10207SOL    HW136584   3.422   5.879   7.361  1.1565  0.0627  0.3302
10207SOL    HW236585   3.275   5.910   7.343  1.2387  0.0133 -0.4519
10208SOL     OW36586   4.621   9.309   2.891 -0.2951  0.4554 -0.4001
10208SOL    HW136587   4.546   9.364   2.915 -0.9216 -1.4501  2.4644
10208SOL    HW236588   4.687   9.327   2.958 -0.6977 -2.4646  0.9237
10209SOL     OW36589   1.953  11.340  12.167 -0.2826 -0.0058 -0.0086
10209SOL    HW136590   1.869  11.365  12.206 -0.7882 -1.3613 -0.1767
10209SOL    HW236591   1.945  11.246  12.151  0.8820  0.0414 -1.0123
10210SOL     OW36592  10.384  10.557   0.719 -0.3355 -0.4601  0.1777
10210SOL    HW136593  10.357  10.576   0.809 -0.5702  0.6415 -0.1137
10210SOL    HW236594  10.360  10.635   0.669 -0.3412 -1.1146 -0.8755
10211SOL     OW36595  11.980  10.550  12.261 -0.0919  0.2492  0.0525
10211SOL    HW136596  12.003  10.529  12.171  1.0581 -1.2779  0.6668
10211SOL    HW236597  11.905  10.495  12.280  0.7746 -0.8104  0.5560
10212SOL     OW36598   7.760  10.054   8.913 -0.5694 -0.0253  0.6628
10212SOL    HW136599   7.709  10.131   8.886  0.4406  0.0315 -1.2459
10212SOL    HW236600   7.826  10.044   8.845  0.6424 -1.3751  1.9588
10213SOL     OW36601   6.801   5.657   4.491 -0.1004 -0.7754  0.5391
10213SOL    HW136602   6.843   5.743   4.488 -1.8360  0.0789 -0.8466
10213SOL    HW236603   6.813   5.622   4.403 -2.5164 -0.3448 -0.0227
10214SOL     OW36604  12.490   5.996   7.226  0.2770 -0.1213 -0.8898
10214SOL    HW136605  12.572   6.029   7.192 -0.1567 -0.1980 -2.0410
10214SOL    HW236606  12.472   5.917   7.174  0.0802 -0.8072  0.1725
10215SOL     OW36607  10.850  10.881  12.159  0.0532 -0.2959 -0.1488
10215SOL    HW136608  10.808  10.825  12.224  0.5655  0.4241  0.8284
10215SOL    HW236609  10.785  10.891  12.089 -1.1996  0.3519  1.0737
10216SOL     OW36610   9.845   5.035   8.576  0.2176 -0.1170  0.5434
10216SOL    HW136611   9.916   5.006   8.634  0.4039 -2.2231 -0.6520
10216SOL    HW236612   9.775   5.063   8.636  1.3624  0.2738  1.7411
10217SOL     OW36613   0.218   2.412   6.283  0.5202 -0.6739 -0.0289
10217SOL    HW136614   0.219   2.505   6.258  1.3594 -1.0426 -1.5012
10217SOL    HW236615   0.218   2.413   6.379 -1.5147  0.8379  0.0461
10218SOL     OW36616   9.047  11.963   5.051 -0.2577 -0.0947 -0.0952
10218SOL    HW136617   9.061  11.878   5.093 -0.2042 -0.6476 -1.1932
10218SOL    HW236618   8.953  11.980   5.063 -0.7609 -1.3954 -1.7643
10219SOL     OW36619  10.985  11.516   2.647  1.0755  0.1750 -0.6627
10219SOL    HW136620  11.031  11.549   2.724 -0.2565  1.3077 -0.2999
10219SOL    HW236621  10.986  11.421   2.656  1.7307  0.2665  0.2802
10220SOL     OW36622   8.860   8.082   2.264 -0.3057  0.5092  0.3941
10220SOL    HW136623   8.872   8.176   2.279  2.2540  0.1891  0.8698
10220SOL    HW236624   8.904   8.065   2.181  0.4508 -0.4477  0.9623
10221SOL     OW36625   2.263   1.179   8.657 -0.1760  0.3745  0.3278
10221SOL    HW136626   2.172   1.151   8.646  0.2522 -0.9546 -0.1157
10221SOL    HW236627   2.287   1.219   8.573 -0.3505  0.7158  0.4414
10222SOL     OW36628   6.421   0.991   8.413 -0.0973 -0.2891 -0.8743
10222SOL    HW136629   6.457   0.971   8.500  1.4800 -1.0759 -1.6666
10222SOL    HW236630   6.344   1.044   8.431  1.9935  2.3966  0.9133
10223SOL     OW36631   4.329  12.338   5.404  0.6166  0.2877 -0.0315
10223SOL    HW136632   4.330  12.388   5.323 -0.4837  1.0700  0.4158
10223SOL    HW236633   4.301  12.401   5.471 -1.1757 -0.9793  0.4800
10224SOL     OW36634   3.551   7.584  10.754  0.0868 -0.2957 -0.1752
10224SOL    HW136635   3.614   7.583  10.826  1.0665  1.7830 -0.9413
10224SOL    HW236636   3.469   7.555  10.794  0.9402 -0.6368  1.4230
10225SOL     OW36637   9.563  12.335   0.715  0.1467 -0.7668 -0.0358
10225SOL    HW136638   9.508  12.318   0.639  1.1501 -2.0038 -0.5186
10225SOL    HW236639   9.516  12.296   0.788  0.2636 -1.6298 -0.4091
10226SOL     OW36640   8.105   8.676   1.589 -0.4625 -0.1070 -0.2727
10226SOL    HW136641   8.033   8.728   1.626 -0.5339 -2.2709  3.0604
10226SOL    HW236642   8.063   8.596   1.558  0.2799 -0.5464 -0.1556
10227SOL     OW36643  10.255   1.744  10.708  0.4895 -0.6682  0.2990
10227SOL    HW136644  10.236   1.811  10.773 -0.1736 -0.8734  0.3252
10227SOL    HW236645  10.196   1.764  10.635  1.1034 -0.5428 -0.1739
10228SOL     OW36646  10.990  10.396  12.011 -0.3080 -0.2362 -0.0243
10228SOL    HW136647  11.003  10.457  12.083  0.2328 -0.2424 -0.1113
10228SOL    HW236648  10.908  10.424  11.969  0.0928  0.6063 -0.2495
10229SOL     OW36649   1.748   8.062   4.820 -0.4904 -0.0568 -0.1052
10229SOL    HW136650   1.787   8.042   4.735 -0.1146 -0.7784  0.2292
10229SOL    HW236651   1.800   8.135   4.854 -0.2503 -0.1725 -0.2244
10230SOL     OW36652  11.679  10.535   8.729  0.1599 -0.2833 -0.6736
10230SOL    HW136653  11.768  10.567   8.743 -0.8036  2.4705 -0.1920
10230SOL    HW236654  11.635  10.553   8.812 -0.8540 -1.5899 -0.9121
10231SOL     OW36655   3.190   8.842  12.229  0.6556  0.3553 -0.3699
10231SOL    HW136656   3.189   8.927  12.273  0.5468  0.4463 -0.5463
10231SOL    HW236657   3.113   8.796  12.263  1.4588 -0.1941  0.7406
10232SOL     OW36658   8.817   0.114   9.118  0.2567 -0.0466  0.1682
10232SOL    HW136659   8.733   0.159   9.114  0.9111  1.2292  0.2806
10232SOL    HW236660   8.820   0.077   9.206 -0.2271 -0.2054  0.1234
10233SOL     OW36661   7.891   1.889   3.151 -0.2203  0.3639  0.6254
10233SOL    HW136662   7.933   1.808   3.123  3.0857  2.1467 -0.0425
10233SOL    HW236663   7.843   1.865   3.230  0.3861 -2.3026  0.2586
10234SOL     OW36664   2.745   8.457   4.763 -0.4616  0.1367 -0.5000
10234SOL    HW136665   2.763   8.363   4.763  0.3031  0.2753 -0.8038
10234SOL    HW236666   2.721   8.476   4.854  1.4578  0.0113  0.0798
10235SOL     OW36667   8.342   4.889   6.120 -0.1948  0.4754  0.3888
10235SOL    HW136668   8.349   4.812   6.177  2.9721 -0.1974 -0.6663
10235SOL    HW236669   8.385   4.959   6.170  1.2138  0.2658 -0.4593
10236SOL     OW36670   2.451   7.785   3.094  0.2974  0.1190  0.7777
10236SOL    HW136671   2.463   7.879   3.108 -0.4811  0.0922  1.7849
10236SOL    HW236672   2.427   7.777   3.002 -0.9966  1.0722  1.0003
10237SOL     OW36673   5.844  11.353   4.958 -0.5749 -0.2661 -0.1255
10237SOL    HW136674   5.829  11.259   4.963  0.2300 -0.3612  0.9446
10237SOL    HW236675   5.815  11.378   4.870  0.1259 -1.6835 -0.7942
10238SOL     OW36676   2.595   3.097   0.793 -0.7972 -0.1729  0.5092
10238SOL    HW136677   2.616   3.008   0.821 -1.0117 -0.0997  0.9085
10238SOL    HW236678   2.676   3.147   0.809  0.0252 -0.7175 -1.6442
10239SOL     OW36679   2.632   3.506   0.458  0.5800 -0.2236 -0.0979
10239SOL    HW136680   2.606   3.424   0.500 -2.4451  0.3302 -0.6437
10239SOL    HW236681   2.643   3.568   0.530 -1.3987 -0.0867  0.1371
10240SOL     OW36682   4.312   6.118   2.839 -0.3159  0.2519 -0.0781
10240SOL    HW136683   4.268   6.061   2.902  0.4084 -0.3091 -0.0698
10240SOL    HW236684   4.341   6.060   2.769 -0.8874  0.8349 -0.8181
10241SOL     OW36685  12.035   2.575   6.328 -0.1404  0.0358 -0.1645
10241SOL    HW136686  12.004   2.551   6.240 -0.6300  1.2098 -0.3349
10241SOL    HW236687  12.109   2.634   6.312 -1.1959  1.4978  0.1664
10242SOL     OW36688   4.121   0.625   3.885  0.3683 -0.4540 -0.1538
10242SOL    HW136689   4.203   0.577   3.871  0.5330  0.5685 -3.9889
10242SOL    HW236690   4.150   0.714   3.907  0.2798 -0.3892 -0.2966
10243SOL     OW36691   9.938   9.978  12.287 -0.3647  0.0341 -0.1045
10243SOL    HW136692   9.904   9.966  12.199 -0.7434  0.6177 -0.0414
10243SOL    HW236693   9.910  10.066  12.312 -0.7592 -0.3421  0.8186
10244SOL     OW36694   5.665   8.817   2.213 -0.0254 -0.3379 -1.0601
10244SOL    HW136695   5.741   8.829   2.271 -1.0470 -2.1856  0.8198
10244SOL    HW236696   5.693   8.751   2.150 -0.3291 -1.8318  0.2969
10245SOL     OW36697   6.598   7.224   7.174 -0.7270  0.0166  0.2420
10245SOL    HW136698   6.635   7.149   7.222  0.5655  1.1065  0.9965
10245SOL    HW236699   6.534   7.261   7.235  0.1753  0.7841  0.7487
10246SOL     OW36700   6.415   6.092   9.709  0.4574  0.0852 -0.2577
10246SOL    HW136701   6.424   5.997   9.707  2.2719  0.1540  1.4864
10246SOL    HW236702   6.464   6.123   9.632 -1.5926 -0.3972 -1.8400
10247SOL     OW36703   1.863   3.774  11.308  0.3954  0.1619 -0.3208
10247SOL    HW136704   1.936   3.815  11.355 -0.0478  0.2575  0.2973
10247SOL    HW236705   1.791   3.836  11.316  0.2436  0.0703 -0.9305
10248SOL     OW36706   8.639   2.193   6.190 -0.2207 -0.5138  0.2994
10248SOL    HW136707   8.674   2.109   6.219  2.4245  0.9514  1.7411
10248SOL    HW236708   8.567   2.210   6.250 -1.2710 -2.0351 -0.4695
10249SOL     OW36709   7.208   6.096   2.087  0.2406 -0.5075  0.1901
10249SOL    HW136710   7.239   6.067   2.001 -0.2085  1.3551 -0.6682
10249SOL    HW236711   7.115   6.075   2.087 -0.3945  1.8906 -0.9831
10250SOL     OW36712   5.441   3.319   5.276  0.4135  0.0760  0.1485
10250SOL    HW136713   5.433   3.409   5.245 -1.4701 -0.1564 -0.2077
10250SOL    HW236714   5.409   3.266   5.204  1.7014 -0.9170  0.2774
10251SOL     OW36715   8.878  11.773  11.877  0.2978 -0.0854 -0.1663
10251SOL    HW136716   8.868  11.733  11.963 -0.8311 -0.2538 -0.3655
10251SOL    HW236717   8.898  11.865  11.895  1.6742 -0.4392  0.2756
10252SOL     OW36718   0.019   0.180   6.786  0.4251 -0.1160  0.1004
10252SOL    HW136719  -0.062   0.152   6.830  0.8058 -1.1239  0.1714
10252SOL    HW236720   0.066   0.229   6.854  1.0123 -1.6741  0.8472
10253SOL     OW36721   4.850   2.756   2.174 -0.1902  0.4480  0.1999
10253SOL    HW136722   4.932   2.804   2.165  0.8535 -1.2673  0.1470
10253SOL    HW236723   4.809   2.793   2.252  1.9893 -0.4978  1.8844
10254SOL     OW36724  11.302   7.452  10.059 -0.0771  0.2312 -0.1890
10254SOL    HW136725  11.208   7.466  10.047 -0.3443  0.6728  2.0008
10254SOL    HW236726  11.335   7.434   9.971 -2.4720 -1.6732 -0.8060
10255SOL     OW36727   4.867   0.834  11.228 -0.0972  0.4113  0.1007
10255SOL    HW136728   4.948   0.789  11.206 -1.5397 -2.8362  0.7743
10255SOL    HW236729   4.820   0.841  11.145  0.6526  2.0075 -0.2343
10256SOL     OW36730   8.972   5.165   0.736  0.2111 -0.1781 -0.5420
10256SOL    HW136731   8.966   5.224   0.661 -0.8520 -0.0890 -0.3967
10256SOL    HW236732   8.961   5.223   0.812  0.9792 -0.3136 -0.3122
10257SOL     OW36733  11.321   9.153   9.776 -0.7568 -0.2447 -0.0655
10257SOL    HW136734  11.347   9.135   9.866  2.1934 -1.2888 -0.9945
10257SOL    HW236735  11.401   9.186   9.734 -1.5678 -1.3501 -2.6816
10258SOL     OW36736   1.956   3.298   1.979 -0.4171 -0.1538  0.2513
10258SOL    HW136737   1.881   3.239   1.979 -0.7402  0.2187 -1.3668
10258SOL    HW236738   2.029   3.244   1.949 -0.9443  0.4616 -2.3785
10259SOL     OW36739   6.675   8.686   2.530 -0.0539  0.3489 -0.6821
10259SOL    HW136740   6.667   8.749   2.602 -1.1420 -2.1552  1.5951
10259SOL    HW236741   6.769   8.671   2.522  0.1812  1.7431 -0.8330
10260SOL     OW36742  10.245   7.379   1.130  0.2038  0.0524  0.0553
10260SOL    HW136743  10.200   7.444   1.076  0.3217 -0.2824 -0.4443
10260SOL    HW236744  10.175   7.319   1.159  0.2408 -0.1511 -0.2722
10261SOL     OW36745   7.953   0.518   8.552  0.5025  0.1315 -0.4680
10261SOL    HW136746   7.920   0.604   8.529 -0.0974  0.0706  0.1213
10261SOL    HW236747   7.986   0.482   8.470  0.8207  0.9423 -0.7040
10262SOL     OW36748   0.528  11.618   4.443 -0.0933 -0.3757  0.1052
10262SOL    HW136749   0.496  11.706   4.463  0.2918 -0.1950 -0.0636
10262SOL    HW236750   0.479  11.561   4.501 -2.7917 -0.4373 -2.0669
10263SOL     OW36751   0.253   0.513   6.132 -0.6551 -0.2242 -0.3706
10263SOL    HW136752   0.346   0.505   6.151 -0.5238  0.5208 -0.6933
10263SOL    HW236753   0.236   0.446   6.065 -0.3886 -0.4584 -0.2046
10264SOL     OW36754   2.867   1.479  11.274  0.6276  0.5139 -0.6850
10264SOL    HW136755   2.791   1.467  11.217 -0.0603  1.5320 -0.0066
10264SOL    HW236756   2.914   1.553  11.236  0.8844  0.3655 -0.6645
10265SOL     OW36757   0.160  11.084   1.452  0.2561 -0.1671  0.0330
10265SOL    HW136758   0.070  11.105   1.479  0.2078  0.3165 -0.4766
10265SOL    HW236759   0.215  11.141   1.505  0.2081  0.1884 -0.2947
10266SOL     OW36760   9.829   4.152   5.317 -0.5043  0.2665  0.1020
10266SOL    HW136761   9.784   4.158   5.233  0.6340  0.0733 -0.5414
10266SOL    HW236762   9.883   4.231   5.322  1.9184 -1.2205 -0.8744
10267SOL     OW36763   6.864  10.607   2.990 -0.5675 -0.0316  0.1296
10267SOL    HW136764   6.948  10.566   3.012  0.8781  0.7623 -3.2542
10267SOL    HW236765   6.865  10.690   3.038  1.0809  0.4025 -0.5825
10268SOL     OW36766  12.025   1.576   4.482 -0.1557 -0.2383 -0.0329
10268SOL    HW136767  12.084   1.507   4.450 -0.1370  0.0501 -0.6264
10268SOL    HW236768  12.008   1.630   4.405 -2.3994 -1.1678 -0.2760
10269SOL     OW36769   2.453   9.388   5.966  0.1289  0.5828 -0.3357
10269SOL    HW136770   2.395   9.434   6.027  0.3140  0.9510 -0.4361
10269SOL    HW236771   2.483   9.311   6.014 -0.2929  0.4927 -0.2151
10270SOL     OW36772   1.307   2.128  11.312 -0.0338 -0.2835 -0.3189
10270SOL    HW136773   1.248   2.093  11.245 -2.0897 -0.6898  1.5672
10270SOL    HW236774   1.274   2.217  11.329  0.3331 -0.2546  0.2751
10271SOL     OW36775   1.616   3.672   3.434  0.8928  0.7218 -0.5460
10271SOL    HW136776   1.559   3.727   3.488  0.1252 -0.7996  0.2686
10271SOL    HW236777   1.557   3.628   3.373  1.7349  2.3191 -2.6520
10272SOL     OW36778   8.075   2.705   7.023  0.3629 -0.0056  0.0031
10272SOL    HW136779   8.073   2.767   7.096 -0.5526  0.0550 -0.0587
10272SOL    HW236780   8.020   2.745   6.955 -1.2764 -1.4076  0.4229
10273SOL     OW36781   8.521   2.034   7.519  0.0025 -0.0280  0.1929
10273SOL    HW136782   8.542   1.987   7.439 -0.2616  0.1539  0.0146
10273SOL    HW236783   8.588   2.103   7.524 -1.8262  2.0448 -1.6167
10274SOL     OW36784   2.561  10.856   9.978  0.5823  0.2310 -0.4648
10274SOL    HW136785   2.557  10.775   9.927 -0.3090  0.1106 -0.2194
10274SOL    HW236786   2.469  10.883   9.988  0.8899  1.5145 -0.9256
10275SOL     OW36787  12.427  11.239   6.213 -0.3583  0.0481 -0.0162
10275SOL    HW136788  12.354  11.235   6.152  0.1455 -1.9044 -0.5444
10275SOL    HW236789  12.396  11.192   6.291 -0.7701  1.9795  1.0641
10276SOL     OW36790   3.865   3.240   2.955  0.7345 -0.2364  0.2762
10276SOL    HW136791   3.796   3.290   2.912  2.2505  1.2567 -0.5874
10276SOL    HW236792   3.824   3.158   2.982 -1.4443  0.7842  0.2183
10277SOL     OW36793   9.219   9.662   6.259 -0.3571  0.4097  0.3249
10277SOL    HW136794   9.248   9.591   6.317 -0.0481  0.9850  0.8866
10277SOL    HW236795   9.288   9.728   6.266 -1.0637  1.1458  0.4955
10278SOL     OW36796   3.172   9.965   5.897 -0.0652  0.5754  0.4424
10278SOL    HW136797   3.208  10.031   5.837 -0.3336  0.1206 -0.2350
10278SOL    HW236798   3.248   9.913   5.923 -0.1362 -0.1447 -0.6841
10279SOL     OW36799   8.309   0.079   6.706  0.3146 -0.4263  0.4006
10279SOL    HW136800   8.288   0.126   6.626 -1.5742 -1.5621  0.1656
10279SOL    HW236801   8.368   0.137   6.754 -1.2188  1.7818 -0.2514
10280SOL     OW36802  11.752   3.616   1.567  0.1303  0.6429  0.0568
10280SOL    HW136803  11.690   3.644   1.634  0.5659  1.8906 -0.0304
10280SOL    HW236804  11.778   3.697   1.523  0.2629 -0.0837 -1.2699
10281SOL     OW36805  10.231   2.415  11.806  0.4810 -0.6162  0.3120
10281SOL    HW136806  10.306   2.437  11.861 -0.6367  0.0188  1.6487
10281SOL    HW236807  10.189   2.499  11.788  0.0428 -0.9729 -0.3650
10282SOL     OW36808  10.090   5.319   8.202  0.7495  0.4367 -0.7106
10282SOL    HW136809  10.041   5.255   8.150  1.1658 -0.3948 -0.1091
10282SOL    HW236810  10.063   5.404   8.168 -0.3766 -0.0346 -1.0360
10283SOL     OW36811   2.560   4.500   1.352  0.1549  0.0590 -0.2465
10283SOL    HW136812   2.627   4.436   1.373  0.5409 -1.3309 -4.7071
10283SOL    HW236813   2.551   4.496   1.257 -3.8085  2.6854 -0.2503
10284SOL     OW36814   7.310  11.359  10.971 -0.4007  0.4007  0.0436
10284SOL    HW136815   7.302  11.282  10.914  1.5559  0.6146 -0.5921
10284SOL    HW236816   7.404  11.366  10.990 -0.9573  0.4008  3.2773
10285SOL     OW36817  11.607   6.110   7.144 -0.3817  0.0346 -0.1950
10285SOL    HW136818  11.574   6.028   7.182 -1.3789  1.0740  1.3077
10285SOL    HW236819  11.542   6.176   7.169 -0.5417  1.0239 -2.8999
10286SOL     OW36820   8.472   0.426   9.507  0.6120  0.1363  0.1626
10286SOL    HW136821   8.565   0.423   9.529  0.4592  0.5638  0.8755
10286SOL    HW236822   8.428   0.447   9.589 -0.1706 -0.5971 -0.0550
10287SOL     OW36823   9.249   7.328  11.990  0.1787 -0.2279  0.2075
10287SOL    HW136824   9.271   7.248  11.941 -0.8569 -0.6930  0.4687
10287SOL    HW236825   9.315   7.392  11.963  2.0004 -1.6003  1.1462
10288SOL     OW36826   0.167   1.427   4.996 -0.5487  0.7851  0.2920
10288SOL    HW136827   0.112   1.440   4.919  1.6552 -0.4131 -1.6167
10288SOL    HW236828   0.164   1.333   5.012 -0.8955  1.0036  1.6678
10289SOL     OW36829   6.156   3.767   6.164 -0.7310  0.5481  1.1650
10289SOL    HW136830   6.146   3.844   6.108  0.3382  0.0981  0.3408
10289SOL    HW236831   6.231   3.788   6.220  1.1423 -0.8120 -0.6938
10290SOL     OW36832   9.610   4.302   5.488  0.6745 -0.2764  0.3793
10290SOL    HW136833   9.571   4.353   5.559  1.5286  0.0466  0.6244
10290SOL    HW236834   9.589   4.211   5.509 -1.7033 -0.0253 -0.5590
10291SOL     OW36835   9.466  10.665   9.436 -0.3100 -0.7669 -0.0537
10291SOL    HW136836   9.487  10.685   9.344 -0.2729  1.8286  0.4302
10291SOL    HW236837   9.388  10.719   9.454  0.0311 -0.7815  1.6004
10292SOL     OW36838   0.419   5.491   2.348 -0.6591 -0.3662  0.4415
10292SOL    HW136839   0.513   5.472   2.355 -0.4198  1.1162  1.9313
10292SOL    HW236840   0.408   5.528   2.261  0.7987  2.4738  1.3569
10293SOL     OW36841   5.928   9.572   2.163 -0.3460  0.7521 -0.1008
10293SOL    HW136842   5.977   9.595   2.242 -0.9059  0.8188  0.2278
10293SOL    HW236843   5.842   9.544   2.195 -1.2117  2.4823 -0.8037
10294SOL     OW36844   3.454   5.783   9.693  0.3883 -0.2001 -0.1770
10294SOL    HW136845   3.507   5.776   9.772 -0.3312 -0.6169  0.2752
10294SOL    HW236846   3.372   5.822   9.722 -0.5869 -2.0069 -0.3607
10295SOL     OW36847  10.452   5.121   9.270 -0.4852 -0.1957  0.1155
10295SOL    HW136848  10.501   5.064   9.211 -0.9185 -1.5736  1.0271
10295SOL    HW236849  10.514   5.143   9.339 -0.6039 -0.3920  0.2865
10296SOL     OW36850   1.784   3.655   8.448  0.0082 -0.2726  0.0817
10296SOL    HW136851   1.772   3.652   8.543 -2.1919  0.0755 -0.1330
10296SOL    HW236852   1.695   3.649   8.413  0.8329 -1.2321 -1.9911
10297SOL     OW36853   2.614   2.326   8.861 -0.6169 -0.1388 -0.3637
10297SOL    HW136854   2.554   2.252   8.871 -0.7273 -0.0010  0.0299
10297SOL    HW236855   2.586   2.388   8.928 -2.0766  1.3007 -2.1687
10298SOL     OW36856   9.620   3.803   8.165  0.1919  0.2062  0.5928
10298SOL    HW136857   9.613   3.836   8.075  1.4520 -1.7739 -0.2930
10298SOL    HW236858   9.560   3.859   8.215 -3.2124 -0.7175 -2.0151
10299SOL     OW36859  10.598   6.712   8.414  0.4332  0.2229  0.5422
10299SOL    HW136860  10.570   6.634   8.462 -0.2142 -0.5592 -1.0248
10299SOL    HW236861  10.520   6.767   8.409  0.8403  0.9167  1.4859
10300SOL     OW36862   0.090   9.023   3.054 -0.5185 -0.3495  0.3515
10300SOL    HW136863  -0.000   9.004   3.029 -0.7320  1.1152 -0.0747
10300SOL    HW236864   0.111   9.105   3.010  1.1246 -0.7889  0.2330
10301SOL     OW36865   8.092   9.398   1.389  0.3228  0.0604 -0.6755
10301SOL    HW136866   8.128   9.468   1.444  0.4211 -1.5373  1.4399
10301SOL    HW236867   8.023   9.359   1.442 -0.9613 -0.3196 -2.5469
10302SOL     OW36868   1.027  11.459  10.028  0.2775  0.5036 -0.1042
10302SOL    HW136869   0.985  11.375  10.008 -1.4117  0.3761  3.2471
10302SOL    HW236870   0.985  11.522   9.971 -0.3454 -0.5354 -0.8205
10303SOL     OW36871  11.881   0.288   8.393  0.6031  0.2120  0.7408
10303SOL    HW136872  11.910   0.212   8.444  0.6749  0.6849  1.4117
10303SOL    HW236873  11.822   0.335   8.452 -1.8240 -0.8652 -0.6526
10304SOL     OW36874   0.145   2.184   9.343  0.5326  0.7193 -0.5697
10304SOL    HW136875   0.150   2.164   9.437  0.3714  1.5553 -0.3798
10304SOL    HW236876   0.231   2.220   9.321  0.0226  2.1099 -0.3585
10305SOL     OW36877   6.162   8.466   7.961  0.4854 -0.0216 -0.4674
10305SOL    HW136878   6.224   8.502   7.898  0.5235 -0.7792 -0.8773
10305SOL    HW236879   6.106   8.408   7.909  0.3165 -0.4072  0.1375
10306SOL     OW36880   4.083   5.166  12.152 -0.1642 -0.3244  0.0857
10306SOL    HW136881   4.018   5.115  12.103 -0.7926  0.5678 -0.0551
10306SOL    HW236882   4.093   5.247  12.101 -0.8273  0.6276  1.3964
10307SOL     OW36883   1.347   8.030   4.334  0.3792  0.3460 -0.8627
10307SOL    HW136884   1.282   7.961   4.320  1.1838 -0.6508  0.1386
10307SOL    HW236885   1.301   8.097   4.385 -0.7649  1.1737 -2.8479
10308SOL     OW36886   7.342   7.059  11.952  0.1398 -0.3907  0.4588
10308SOL    HW136887   7.327   7.148  11.920 -2.0306 -0.2794  1.6025
10308SOL    HW236888   7.345   7.068  12.047  0.9942 -1.4249  0.5542
10309SOL     OW36889  11.693   0.613   0.614 -0.0718 -0.6524 -0.1162
10309SOL    HW136890  11.643   0.676   0.667 -0.2784 -0.5482 -0.4305
10309SOL    HW236891  11.784   0.630   0.636 -0.1391 -0.3924 -0.0296
10310SOL     OW36892   2.887   0.226   2.601 -0.5565  0.0964  0.2486
10310SOL    HW136893   2.959   0.201   2.658 -0.6557 -1.1701 -0.1418
10310SOL    HW236894   2.854   0.143   2.567 -0.0403  0.8233 -2.2140
10311SOL     OW36895   5.268  10.642   4.600 -0.4978  0.3955 -0.3251
10311SOL    HW136896   5.302  10.673   4.684 -1.6051  0.5230  0.0841
10311SOL    HW236897   5.197  10.702   4.579  0.0598  0.6428 -1.5866
10312SOL     OW36898   2.278   7.761   4.430 -0.4182  0.1543  0.2152
10312SOL    HW136899   2.303   7.768   4.338 -1.1061  0.0817  0.0143
10312SOL    HW236900   2.347   7.707   4.469 -0.5586 -0.5220 -0.4409
10313SOL     OW36901   4.511   5.183   6.075  0.2467  0.2923 -0.3680
10313SOL    HW136902   4.558   5.102   6.054  0.2182 -0.0068  0.6826
10313SOL    HW236903   4.447   5.158   6.142  0.8959  1.3513  0.7018
10314SOL     OW36904   2.762  10.519  11.106  0.1132 -0.2410  0.6086
10314SOL    HW136905   2.818  10.538  11.181  0.9114 -0.6738  0.1354
10314SOL    HW236906   2.716  10.439  11.130 -2.0730  1.2855  1.9477
10315SOL     OW36907   9.431   9.520   1.657  0.3930  0.0181  0.3201
10315SOL    HW136908   9.342   9.534   1.688  0.6359  1.6918  0.3562
10315SOL    HW236909   9.479   9.597   1.686  1.7451 -0.6190 -0.1303
10316SOL     OW36910   3.786   6.556   1.956  0.3010 -0.0115  0.6976
10316SOL    HW136911   3.812   6.554   1.863  0.1194 -0.5234  0.6534
10316SOL    HW236912   3.768   6.464   1.977 -1.5140  0.3053  0.7149
10317SOL     OW36913   1.659   7.616  11.767 -0.1024  0.2852 -0.4438
10317SOL    HW136914   1.595   7.644  11.702  0.2020  1.4390 -0.2667
10317SOL    HW236915   1.694   7.534  11.731 -1.7764 -0.4693 -0.4502
10318SOL     OW36916   5.487  10.376   4.542  0.6418 -0.2949  0.5081
10318SOL    HW136917   5.573  10.352   4.507  0.0937  0.9935 -1.9993
10318SOL    HW236918   5.425  10.346   4.475 -0.6716  0.6369  1.2659
10319SOL     OW36919   3.398   4.738   7.017  0.2968 -0.1620 -0.4641
10319SOL    HW136920   3.464   4.760   6.951  1.4972  1.6002  1.2285
10319SOL    HW236921   3.419   4.647   7.041 -0.1632 -0.8529 -2.4049
10320SOL     OW36922   9.636   1.874   8.628  0.8358  0.2345 -0.4231
10320SOL    HW136923   9.640   1.807   8.560 -0.8580 -0.6394  0.2890
10320SOL    HW236924   9.543   1.896   8.636  1.0145  0.5032  1.4009
10321SOL     OW36925   7.237   3.485   8.195 -0.0734 -0.1170  0.3755
10321SOL    HW136926   7.250   3.439   8.277  3.9257  0.3079  0.2124
10321SOL    HW236927   7.275   3.572   8.211 -0.9460  0.6333 -1.3841
10322SOL     OW36928   0.011   5.145   6.764 -0.2398 -0.2818  0.3390
10322SOL    HW136929  -0.007   5.116   6.854  0.9902 -0.9719  0.3755
10322SOL    HW236930   0.066   5.076   6.727  2.2685  1.6705  0.2114
10323SOL     OW36931   4.887   3.867   7.704  0.4963 -0.5272  0.3625
10323SOL    HW136932   4.971   3.895   7.738  0.0460 -1.0100  1.9974
10323SOL    HW236933   4.879   3.776   7.732 -1.0021 -0.1828  1.1673
10324SOL     OW36934   3.325   9.624  10.932 -0.5651  0.2710 -0.6733
10324SOL    HW136935   3.388   9.689  10.902  0.1549  0.7182  1.5904
10324SOL    HW236936   3.379   9.559  10.978 -1.7026  0.9637  1.8181
10325SOL     OW36937   1.056   6.353   2.162  0.1975  0.0715  0.4278
10325SOL    HW136938   1.063   6.435   2.113  2.1582  0.3638  1.1271
10325SOL    HW236939   1.082   6.376   2.251  2.6918 -1.6395  0.2351
10326SOL     OW36940   9.184   3.651   8.466  0.5338 -0.4331  0.0296
10326SOL    HW136941   9.202   3.740   8.497  0.6700  0.1801 -1.6654
10326SOL    HW236942   9.137   3.609   8.538  0.4378  1.0273  0.8535
10327SOL     OW36943   3.474  10.130   5.935  0.3452 -0.2985 -0.1050
10327SOL    HW136944   3.545  10.102   5.878 -0.4585 -0.7581 -0.9094
10327SOL    HW236945   3.407  10.164   5.876 -0.7858 -1.4192  0.4758
10328SOL     OW36946   6.125   9.578  10.390 -0.7397 -0.1122  0.6440
10328SOL    HW136947   6.176   9.643  10.341 -1.5273  1.3144  1.6228
10328SOL    HW236948   6.163   9.580  10.478 -0.0671 -1.8128  0.4163
10329SOL     OW36949   3.029   6.142  10.832 -0.0978  0.1067  0.0719
10329SOL    HW136950   2.962   6.184  10.887 -0.1411 -0.5317  0.5146
10329SOL    HW236951   3.050   6.208  10.766 -1.2913  0.2595 -0.1871
10330SOL     OW36952   7.133   9.712  10.506  0.3603  0.2642  1.2824
10330SOL    HW136953   7.193   9.743  10.438 -2.2795  0.6192 -1.0598
10330SOL    HW236954   7.152   9.618  10.513  0.9599  0.3078  0.3728
10331SOL     OW36955  12.299   0.114   4.732  0.4131 -0.1215 -0.0893
10331SOL    HW136956  12.282   0.157   4.815  0.6712 -2.2102  1.1243
10331SOL    HW236957  12.343   0.180   4.679 -1.5004  1.8770  0.6745
10332SOL     OW36958   1.226   8.423   7.431 -0.5032  0.0073 -0.3747
10332SOL    HW136959   1.135   8.404   7.454 -0.8715 -0.3534 -1.9999
10332SOL    HW236960   1.221   8.460   7.343  0.8940  0.4500 -0.2889
10333SOL     OW36961  10.502   9.708   5.236  0.3953  0.4112  0.4347
10333SOL    HW136962  10.439   9.745   5.175  1.2918  0.7879 -0.2797
10333SOL    HW236963  10.587   9.719   5.193  0.8620 -0.9029  0.9762
10334SOL     OW36964   5.768   9.133   3.559  0.2576  0.2749 -0.2593
10334SOL    HW136965   5.686   9.091   3.585 -1.5776  2.9647 -1.2173
10334SOL    HW236966   5.800   9.080   3.486 -0.3457 -1.0870  0.4379
10335SOL     OW36967   7.319   4.632   5.948  0.5016  0.3858  0.0343
10335SOL    HW136968   7.305   4.661   6.037 -1.0814  0.1288 -0.1104
10335SOL    HW236969   7.312   4.537   5.952  1.9354  0.2425 -0.1337
10336SOL     OW36970   4.322   6.436   0.237  0.3260 -0.5551 -0.1824
10336SOL    HW136971   4.255   6.417   0.303  1.0826 -1.3372  0.3821
10336SOL    HW236972   4.404   6.438   0.286  0.5151  3.5025 -0.2757
10337SOL     OW36973   2.765   1.681   6.942  0.7237 -0.1849  0.0542
10337SOL    HW136974   2.766   1.764   6.991  1.7680  1.1000 -1.9846
10337SOL    HW236975   2.774   1.708   6.850 -1.1905 -2.4818 -0.8845
10338SOL     OW36976   5.086   3.710   8.451  0.0419 -0.1855 -0.1784
10338SOL    HW136977   4.991   3.707   8.437 -0.1227  2.5772 -0.2429
10338SOL    HW236978   5.124   3.687   8.367 -0.4733 -2.4694  0.1399
10339SOL     OW36979   4.377   1.839   3.559  0.5124 -0.1189 -0.3599
10339SOL    HW136980   4.350   1.808   3.473 -0.2821  1.7212 -0.8236
10339SOL    HW236981   4.442   1.907   3.541  1.2402 -0.5607  0.5426
10340SOL     OW36982   9.700  11.620  11.877 -0.2792  0.2633  0.2212
10340SOL    HW136983   9.640  11.675  11.929 -2.3685  0.4741 -2.2166
10340SOL    HW236984   9.746  11.681  11.820  0.5871 -0.1295  0.4942
10341SOL     OW36985   1.204   8.642  11.873 -0.4767 -0.4175  0.2691
10341SOL    HW136986   1.243   8.566  11.830  1.4158  2.3443 -3.4209
10341SOL    HW236987   1.113   8.643  11.842 -0.1504 -0.5029 -0.7200
10342SOL     OW36988   5.409   7.114   2.574  1.0113 -0.2190  0.0469
10342SOL    HW136989   5.367   7.186   2.526  0.9886 -0.3477 -0.1267
10342SOL    HW236990   5.364   7.114   2.659  0.2248 -0.7468 -0.3566
10343SOL     OW36991  12.078   2.033   1.426  0.2322  0.2515 -0.2129
10343SOL    HW136992  12.141   1.992   1.485  0.4606  1.2142  0.2455
10343SOL    HW236993  12.023   2.086   1.485 -0.2038  0.4080 -0.7548
10344SOL     OW36994  11.436  11.130  11.312 -0.0429  0.6621  0.2914
10344SOL    HW136995  11.404  11.130  11.402 -0.6406  0.5063  0.0845
10344SOL    HW236996  11.366  11.171  11.262  0.3876  0.9606 -0.0738
10345SOL     OW36997  11.765   2.544   4.618  0.0625 -0.6737 -0.5336
10345SOL    HW136998  11.769   2.562   4.525 -0.5024 -1.2263 -0.6728
10345SOL    HW236999  11.854   2.516   4.641  1.2748  3.0323 -0.1036
10346SOL     OW37000   5.933  10.878   5.983  0.8363 -0.4523  0.4450
10346SOL    HW137001   5.843  10.902   6.004  1.2311  1.3518  0.2719
10346SOL    HW237002   5.969  10.844   6.064  0.0441 -1.0546  0.5508
10347SOL     OW37003  11.498   7.153   7.367 -0.3422  0.1661  0.1912
10347SOL    HW137004  11.521   7.243   7.387 -3.2933  0.6168  2.1685
10347SOL    HW237005  11.466   7.156   7.277 -2.3098  1.6230  0.8510
10348SOL     OW37006   4.239   5.144   8.401  0.2334 -0.0481  0.3636
10348SOL    HW137007   4.179   5.091   8.454 -0.1386  0.1220  0.1187
10348SOL    HW237008   4.321   5.146   8.451  0.5595 -1.6400 -0.0699
10349SOL     OW37009   1.279   7.398   3.084 -0.4724  0.9090 -0.3909
10349SOL    HW137010   1.227   7.338   3.031 -0.2127  0.2634  0.0646
10349SOL    HW237011   1.363   7.353   3.094 -0.2046  1.4437 -0.2046
10350SOL     OW37012   2.764   3.695   1.880 -0.1626 -0.1683  0.8293
10350SOL    HW137013   2.738   3.767   1.938 -0.2588  0.2643  0.2490
10350SOL    HW237014   2.860   3.697   1.880 -0.1573 -0.2911  1.1168
10351SOL     OW37015   6.523  10.003   6.647  0.0097  0.0585 -0.7785
10351SOL    HW137016   6.523  10.039   6.558 -1.6480  1.9751 -0.0540
10351SOL    HW237017   6.505   9.910   6.634 -0.5734  0.3656 -2.4361
10352SOL     OW37018   2.685   5.459   6.237  0.3248 -0.3943 -0.2768
10352SOL    HW137019   2.684   5.466   6.332 -0.4835 -1.5929 -0.1753
10352SOL    HW237020   2.757   5.516   6.209 -0.1246  0.8369  0.9607
10353SOL     OW37021   3.394   8.327   0.159 -0.5340  0.1036 -0.2733
10353SOL    HW137022   3.447   8.257   0.122 -0.9525 -0.2235 -0.2587
10353SOL    HW237023   3.329   8.282   0.213 -0.7837  0.5025 -0.2376
10354SOL     OW37024   1.013   5.158   9.178 -0.4959  0.3837 -0.0828
10354SOL    HW137025   1.051   5.074   9.151 -0.3349  1.0331 -2.0335
10354SOL    HW237026   1.087   5.207   9.214 -0.3358  0.1135 -0.0441
10355SOL     OW37027   3.777   9.731  12.484 -0.1375 -0.5233 -0.4364
10355SOL    HW137028   3.719   9.734  12.560  0.9748 -2.2741  0.5451
10355SOL    HW237029   3.845   9.796  12.502 -1.1963  0.8413 -1.1447
10356SOL     OW37030   9.078   4.028   4.602  0.3761  0.3265  0.3721
10356SOL    HW137031   9.134   3.952   4.619 -1.3109 -0.7295  1.3898
10356SOL    HW237032   9.066   4.069   4.688 -1.9549 -0.6106  0.5685
10357SOL     OW37033  10.403   5.563   5.517  0.1682 -0.1399  0.4861
10357SOL    HW137034  10.408   5.545   5.611  1.1270  1.0035  0.6778
10357SOL    HW237035  10.328   5.623   5.509 -0.8417 -1.3771  0.3004
10358SOL     OW37036  12.200   6.070  12.095  0.1227 -0.4914 -0.0621
10358SOL    HW137037  12.293   6.085  12.113 -0.3152  2.4432  0.1899
10358SOL    HW237038  12.183   6.117  12.013 -1.6851  1.5160  1.3533
10359SOL     OW37039   4.565   9.649  11.683 -0.5843 -0.1432  0.3497
10359SOL    HW137040   4.610   9.689  11.609  1.1373 -2.8857 -0.2380
10359SOL    HW237041   4.509   9.583  11.644 -2.8305  1.0739  1.3218
10360SOL     OW37042  10.115   0.421  11.154  0.2102 -0.1028  0.5242
10360SOL    HW137043  10.076   0.353  11.099  0.9473  0.7475 -1.1131
10360SOL    HW237044  10.042   0.480  11.175 -0.1351 -0.5955  0.7164
10361SOL     OW37045   9.053   4.896   7.164 -0.0464 -0.1366 -0.5272
10361SOL    HW137046   9.042   4.988   7.144  0.4644 -0.4245 -2.2997
10361SOL    HW237047   8.967   4.868   7.197  0.3408  1.3737  2.0176
10362SOL     OW37048   3.240   3.524  11.664  0.6942  0.8333  0.0965
10362SOL    HW137049   3.235   3.447  11.607 -0.5360 -0.1707  1.5165
10362SOL    HW237050   3.319   3.570  11.634  1.6837 -1.1640 -0.5528
10363SOL     OW37051   0.848   9.694   2.735  0.6088  0.4296  0.2903
10363SOL    HW137052   0.879   9.754   2.668 -1.4544  0.4201 -0.7433
10363SOL    HW237053   0.927   9.647   2.764  1.7900  1.5662 -0.9484
10364SOL     OW37054   4.512   8.129   3.292 -0.4979 -0.1402 -0.1836
10364SOL    HW137055   4.457   8.066   3.245 -0.3396 -0.4933  0.0952
10364SOL    HW237056   4.476   8.130   3.381  0.0765 -0.5494  0.0646
10365SOL     OW37057  12.229   8.562   8.129  0.1082 -0.1665  0.6488
10365SOL    HW137058  12.153   8.504   8.116  0.5679 -0.5692 -0.3258
10365SOL    HW237059  12.218   8.596   8.218 -0.8753 -0.7186  0.7533
10366SOL     OW37060  11.462   2.519   5.533 -0.1831  0.2943 -0.0304
10366SOL    HW137061  11.524   2.578   5.575 -0.1457  1.2980 -1.4325
10366SOL    HW237062  11.505   2.491   5.453 -0.3668 -1.3615  0.4082
10367SOL     OW37063   4.429   4.407   5.200 -0.4268 -0.2010 -0.3084
10367SOL    HW137064   4.505   4.387   5.145 -0.4382  0.3373 -0.5294
10367SOL    HW237065   4.356   4.417   5.139 -0.2259  1.4770 -0.3242
10368SOL     OW37066  11.999  11.058   0.712 -0.0725  0.1195  0.2491
10368SOL    HW137067  11.991  11.126   0.646  0.4476  0.4225  0.4892
10368SOL    HW237068  12.070  11.002   0.680 -1.0851 -0.8516 -0.4067
10369SOL     OW37069   8.677   4.684   2.891 -0.3592  0.2198 -0.3110
10369SOL    HW137070   8.743   4.616   2.900 -0.6127 -0.2548 -1.8258
10369SOL    HW237071   8.727   4.765   2.882 -0.0331  0.7078  3.8403
10370SOL     OW37072   5.493   5.684   8.173  0.5645 -0.0279  0.1180
10370SOL    HW137073   5.519   5.639   8.252  1.1158 -0.1179 -0.1113
10370SOL    HW237074   5.538   5.769   8.177  1.7502 -0.5799 -0.7687
10371SOL     OW37075  10.223   3.591   9.880 -0.1134  0.1115  0.4258
10371SOL    HW137076  10.233   3.532   9.954  0.1456  0.4404  0.6593
10371SOL    HW237077  10.312   3.607   9.850 -0.1429  0.7234  0.6423
10372SOL     OW37078   8.073   4.051   6.766 -0.0020 -0.3228  0.2110
10372SOL    HW137079   8.038   4.140   6.767  1.2529  0.1851  0.1952
10372SOL    HW237080   8.032   4.011   6.690 -1.7260 -0.2581  1.0523
10373SOL     OW37081   8.958   6.590   4.053 -0.1557  0.0581 -0.1069
10373SOL    HW137082   8.997   6.512   4.013 -0.4001  0.2544 -0.7459
10373SOL    HW237083   9.030   6.652   4.059 -0.1930  0.1535 -0.5870
10374SOL     OW37084   7.438   4.448   9.849 -0.3046  0.0975 -0.4270
10374SOL    HW137085   7.453   4.485   9.936 -1.2060  0.4397 -0.4050
10374SOL    HW237086   7.417   4.524   9.794  1.2825  0.0124 -1.1961
10375SOL     OW37087   9.499   8.893   2.264  0.3958 -0.3433 -0.2401
10375SOL    HW137088   9.439   8.959   2.230 -0.7204 -1.0701  0.2742
10375SOL    HW237089   9.475   8.812   2.219  0.2978 -0.8556  0.6934
10376SOL     OW37090   6.373   4.811   9.235 -0.7902  0.0321 -0.4597
10376SOL    HW137091   6.456   4.818   9.188 -0.8349 -0.0315 -0.5466
10376SOL    HW237092   6.394   4.839   9.324 -1.1360  2.0904 -0.9753
10377SOL     OW37093  11.083   0.076   9.134 -0.1347  0.3003  0.4529
10377SOL    HW137094  11.150   0.145   9.133 -0.2569  0.4147  0.0969
10377SOL    HW237095  11.035   0.088   9.053  0.0314 -0.3907  0.2439
10378SOL     OW37096  10.058   7.145   3.249 -0.5907 -0.4536  0.9586
10378SOL    HW137097  10.108   7.208   3.301 -0.3264 -0.3781  0.6142
10378SOL    HW237098  10.124   7.092   3.204 -0.8123 -0.9551  1.2127
10379SOL     OW37099   8.835   8.255   3.673  0.2517 -0.5715  0.8372
10379SOL    HW137100   8.762   8.258   3.611  1.2301 -0.8464 -0.3513
10379SOL    HW237101   8.816   8.179   3.728  0.0304 -1.1070  0.0417
10380SOL     OW37102   5.154   8.394  10.050 -0.0819 -0.0395 -0.6774
10380SOL    HW137103   5.237   8.364  10.086 -0.5581 -0.3232  0.2176
10380SOL    HW237104   5.090   8.373  10.118 -1.0975 -1.0903 -1.9313
10381SOL     OW37105   2.233   6.871   9.774 -0.0147  0.1491 -0.4020
10381SOL    HW137106   2.327   6.884   9.759 -0.1947 -0.1068 -1.9457
10381SOL    HW237107   2.213   6.789   9.728 -1.2870  1.0333 -1.4723
10382SOL     OW37108   1.678  10.680   6.507 -0.2075  0.1009 -0.2561
10382SOL    HW137109   1.694  10.729   6.426  0.6516  1.2634  0.5786
10382SOL    HW237110   1.591  10.708   6.535 -1.7579 -2.3903 -2.1518
10383SOL     OW37111   1.998   0.175   6.727  0.2187  0.1298  0.0816
10383SOL    HW137112   1.932   0.133   6.782 -1.9708  2.0235 -0.9556
10383SOL    HW237113   2.054   0.223   6.788  0.1669 -0.8237  0.9096
10384SOL     OW37114   5.412   2.517   5.836 -0.0722  0.4557  0.5330
10384SOL    HW137115   5.452   2.431   5.838 -0.4183  0.3071  2.0944
10384SOL    HW237116   5.349   2.513   5.763 -1.3452 -1.2096  1.6565
10385SOL     OW37117   7.032  10.697   4.484 -0.2074 -0.1251 -0.2179
10385SOL    HW137118   6.955  10.695   4.429  0.2375  1.9861 -1.0421
10385SOL    HW237119   6.999  10.721   4.571 -0.4454  1.5104 -0.7309
10386SOL     OW37120   1.603   3.626   2.427  0.1847 -0.2296 -0.5632
10386SOL    HW137121   1.529   3.570   2.449 -0.4586  1.0949  0.7762
10386SOL    HW237122   1.672   3.600   2.489 -0.2994  0.7935  0.4354
10387SOL     OW37123   1.143   9.710   8.271 -0.7104 -0.4041  0.9235
10387SOL    HW137124   1.071   9.753   8.225 -0.1569  1.2740  1.5425
10387SOL    HW237125   1.138   9.743   8.360  1.4906  0.7156  0.7081
10388SOL     OW37126   9.641  12.020   5.756  0.1504 -0.1447  0.5059
10388SOL    HW137127   9.603  12.088   5.701 -0.1195  0.0690  0.9528
10388SOL    HW237128   9.566  11.965   5.781  0.3005 -0.3529  0.4995
10389SOL     OW37129   5.642   9.592   7.947  0.0197  0.4304 -0.4368
10389SOL    HW137130   5.713   9.655   7.941 -1.5531  2.1546 -3.3073
10389SOL    HW237131   5.569   9.641   7.985 -0.3730 -0.5737  0.1434
10390SOL     OW37132   6.869   4.431   6.049  0.2710 -0.6167 -0.2527
10390SOL    HW137133   6.925   4.465   6.119  1.6679  0.9651 -2.0222
10390SOL    HW237134   6.839   4.346   6.081  2.0291 -0.6006  1.6360
10391SOL     OW37135   4.113  10.353   4.964 -0.0467  0.2146  0.1892
10391SOL    HW137136   4.116  10.276   4.908 -0.5760 -1.2286  2.0530
10391SOL    HW237137   4.054  10.413   4.919  0.5375 -0.3514 -1.3986
10392SOL     OW37138   1.031   2.404   5.544  0.5306  0.3839  0.0273
10392SOL    HW137139   1.104   2.396   5.482 -0.3950  0.6664 -1.1384
10392SOL    HW237140   0.954   2.376   5.494  0.0121 -1.2738  1.6507
10393SOL     OW37141   4.796   9.952  11.923 -0.0644 -0.4427 -0.2128
10393SOL    HW137142   4.736   9.889  11.962  0.0436  0.9162  2.3600
10393SOL    HW237143   4.878   9.939  11.969  0.1557  1.0673 -0.1274
10394SOL     OW37144   2.645   7.695   4.067 -0.2767 -0.1736  0.0466
10394SOL    HW137145   2.673   7.642   4.141  2.3458  0.8292 -0.1114
10394SOL    HW237146   2.691   7.657   3.992 -0.7949  0.4579 -0.6047
10395SOL     OW37147   4.498   5.437   8.312 -0.1635  0.0088 -0.0869
10395SOL    HW137148   4.460   5.353   8.338  0.0554 -0.4852 -1.3035
10395SOL    HW237149   4.499   5.435   8.216 -0.7794  1.6908 -0.1676
10396SOL     OW37150   4.157   1.500   9.224  0.4119  0.1819 -0.1624
10396SOL    HW137151   4.185   1.591   9.235 -0.5553  0.3990  0.6598
10396SOL    HW237152   4.089   1.488   9.290 -0.0470 -0.8980 -0.8091
10397SOL     OW37153   7.956   3.852  10.722  0.3005 -0.4412 -0.6146
10397SOL    HW137154   8.032   3.869  10.667 -1.9225  0.7492 -3.6062
10397SOL    HW237155   7.884   3.841  10.660 -2.2053 -0.2839  2.0666
10398SOL     OW37156   9.401  11.493   4.397  0.4664  0.6870 -0.1618
10398SOL    HW137157   9.461  11.453   4.461  0.0953  0.7140  0.2037
10398SOL    HW237158   9.315  11.459   4.420  0.2287  1.2564 -0.2041
10399SOL     OW37159   0.869   6.144   9.081  0.0811 -0.1329 -0.2833
10399SOL    HW137160   0.899   6.121   8.993  0.8382  0.9021 -0.3149
10399SOL    HW237161   0.930   6.101   9.140  1.3751  1.5326 -0.3396
10400SOL     OW37162   4.929   4.636   7.064 -0.4955  0.3344  0.0335
10400SOL    HW137163   4.997   4.658   7.128  0.1917  1.4184 -1.0212
10400SOL    HW237164   4.864   4.705   7.074  0.6632  1.8027 -1.8655
10401SOL     OW37165   8.379   6.388   6.247  0.1878 -0.5530 -0.3723
10401SOL    HW137166   8.297   6.345   6.226  0.5959 -0.7326 -1.6262
10401SOL    HW237167   8.352   6.469   6.292 -0.7535  0.1451 -2.0938
10402SOL     OW37168   6.741   2.490  11.380  0.2120 -0.2267  0.1312
10402SOL    HW137169   6.785   2.491  11.295 -1.0508 -0.9202 -0.5640
10402SOL    HW237170   6.784   2.560  11.430  1.1386  0.0401 -0.9839
10403SOL     OW37171   5.562   6.441   4.299  0.3986  0.3070 -0.3817
10403SOL    HW137172   5.483   6.438   4.245  1.4582 -0.0552 -1.9942
10403SOL    HW237173   5.533   6.482   4.381 -1.1498  1.5529 -1.4662
10404SOL     OW37174   2.007   3.843   6.099  0.3366 -0.1894 -0.0795
10404SOL    HW137175   1.941   3.911   6.106  0.7741  0.1987  0.3100
10404SOL    HW237176   1.959   3.766   6.068 -0.1603  0.2877 -0.5142
10405SOL     OW37177   1.685   0.570  11.415 -1.0771  0.5994  0.4998
10405SOL    HW137178   1.747   0.639  11.393  1.2888 -1.1686  1.2181
10405SOL    HW237179   1.626   0.610  11.479  0.4855  1.8542  1.2180
10406SOL     OW37180   9.274   5.402   4.553 -0.3957  0.1333  0.2614
10406SOL    HW137181   9.254   5.482   4.601 -1.2741 -0.0155  0.1646
10406SOL    HW237182   9.329   5.351   4.612  1.2087  1.3127 -0.1349
10407SOL     OW37183  11.292  11.239   3.043 -0.0386 -0.6110 -0.0103
10407SOL    HW137184  11.382  11.222   3.074  0.0217  1.0870  0.9007
10407SOL    HW237185  11.303  11.305   2.974 -0.6470  0.9217  1.2837
10408SOL     OW37186   8.552  11.868   6.736  0.2353 -0.6412 -0.5269
10408SOL    HW137187   8.576  11.789   6.687  1.7296 -0.6299  0.1383
10408SOL    HW237188   8.635  11.901   6.771 -0.3561  1.2266 -0.7764
10409SOL     OW37189  12.155   1.626   7.402  0.4738  0.0891  0.4826
10409SOL    HW137190  12.221   1.587   7.344 -0.4376  0.1639 -0.6391
10409SOL    HW237191  12.202   1.697   7.447  0.9901  0.6168 -0.8333
10410SOL     OW37192   1.520   9.805   7.843  0.1200  0.0085  0.1058
10410SOL    HW137193   1.597   9.842   7.800  0.3359 -0.5023  0.0480
10410SOL    HW237194   1.451   9.807   7.777  0.3036 -0.2757 -0.0959
10411SOL     OW37195   7.638   9.877   1.592  0.5093 -0.2836 -0.2852
10411SOL    HW137196   7.578   9.885   1.518  0.8178 -1.1275 -0.6309
10411SOL    HW237197   7.593   9.922   1.664 -0.2100 -0.2852 -0.7228
10412SOL     OW37198   4.870   9.322  12.201  0.0900  0.6267 -0.2908
10412SOL    HW137199   4.942   9.266  12.228 -0.3829  0.1674  0.0388
10412SOL    HW237200   4.889   9.343  12.109 -0.5184 -1.3763 -0.9387
10413SOL     OW37201   6.532   9.303  11.809 -0.0924 -0.5113  0.2303
10413SOL    HW137202   6.524   9.242  11.735  0.8347  0.7612 -0.9633
10413SOL    HW237203   6.546   9.246  11.885  0.8930 -1.7972 -0.8637
10414SOL     OW37204   8.129   4.452  11.104 -0.4395  0.1714  0.5795
10414SOL    HW137205   8.167   4.422  11.021 -0.6229 -0.8384  0.8457
10414SOL    HW237206   8.073   4.526  11.080  0.0297  0.3144 -0.1017
10415SOL     OW37207   0.885  11.572   1.752 -0.0207  0.3392 -0.4187
10415SOL    HW137208   0.855  11.641   1.694  0.3065 -0.3969 -1.5032
10415SOL    HW237209   0.923  11.506   1.694 -1.6734 -1.4714  0.4294
10416SOL     OW37210   4.220   0.371   2.397  0.0623 -0.3910 -0.6903
10416SOL    HW137211   4.265   0.455   2.393 -0.0596 -0.3680 -1.6683
10416SOL    HW237212   4.257   0.320   2.325  0.0728 -1.1490 -0.1661
10417SOL     OW37213   7.093   1.374  11.453  0.4033  0.3065 -0.5178
10417SOL    HW137214   7.120   1.288  11.420  1.4590  0.3996  0.0704
10417SOL    HW237215   7.172   1.428  11.447  0.0328  0.9347  0.1330
10418SOL     OW37216   2.634   4.275   0.079  0.0937 -0.8916 -0.2272
10418SOL    HW137217   2.669   4.187   0.061  0.3832 -0.8926  0.3172
10418SOL    HW237218   2.678   4.332   0.017 -0.9370 -1.2888 -1.3728
10419SOL     OW37219   4.402   4.909   7.271 -0.0006 -0.3252  0.8678
10419SOL    HW137220   4.338   4.901   7.201 -0.9669  1.8850  1.4170
10419SOL    HW237221   4.409   4.820   7.307 -1.1989 -1.0287 -0.5280
10420SOL     OW37222  12.133   2.231   0.349  0.1437  0.2167 -0.0230
10420SOL    HW137223  12.179   2.315   0.354 -0.2788  0.4398  0.2546
10420SOL    HW237224  12.049   2.252   0.308  1.0503 -0.5311 -2.4264
10421SOL     OW37225  10.919   9.761   6.821  0.4270  0.0456  0.6447
10421SOL    HW137226  10.869   9.830   6.777  0.7061 -0.9449 -1.3554
10421SOL    HW237227  10.988   9.807   6.868  0.6817  1.1429 -0.7338
10422SOL     OW37228   1.005  10.732   3.630 -0.0713 -0.4980  0.6130
10422SOL    HW137229   0.946  10.723   3.555  0.0676  0.2898  0.3974
10422SOL    HW237230   0.969  10.674   3.697 -1.8393  0.9001  0.9505
10423SOL     OW37231   4.218   7.117   3.039 -0.1966 -0.3354  0.0879
10423SOL    HW137232   4.138   7.065   3.049 -0.1566 -0.2960  0.6443
10423SOL    HW237233   4.288   7.053   3.027 -0.1471 -0.4167  0.7729
10424SOL     OW37234   8.012   5.116   8.640 -0.3565  0.1223  0.4703
10424SOL    HW137235   7.999   5.177   8.568 -0.0194  1.6349  1.6232
10424SOL    HW237236   7.924   5.102   8.676 -0.4523 -0.1877  0.1166
10425SOL     OW37237   7.829  10.029   0.515 -0.3222  0.4106  0.1905
10425SOL    HW137238   7.806  10.013   0.606 -0.0078 -1.6768 -0.0476
10425SOL    HW237239   7.757  10.081   0.480 -0.6446  0.8776  1.5153
10426SOL     OW37240   1.697  11.100   4.003 -0.6753 -0.0392  0.2127
10426SOL    HW137241   1.676  11.193   4.000 -1.9979 -0.3510 -1.3260
10426SOL    HW237242   1.684  11.076   4.095  2.3735  1.7994  1.3085
10427SOL     OW37243   6.103   4.346   1.455 -0.2844  0.0657  0.8427
10427SOL    HW137244   6.147   4.375   1.375 -2.4320  0.0563 -0.4074
10427SOL    HW237245   6.086   4.253   1.440  0.8335 -0.3850  2.1049
10428SOL     OW37246   4.344  12.346   9.932  0.3314  0.1564  0.2018
10428SOL    HW137247   4.403  12.333  10.006 -0.1046  2.0225  0.9264
10428SOL    HW237248   4.258  12.356   9.972  0.4730  4.5314 -0.1222
10429SOL     OW37249  11.732   9.913   6.636  0.0433  0.2758  0.7459
10429SOL    HW137250  11.815   9.932   6.678 -0.1829  0.1879  1.2451
10429SOL    HW237251  11.692   9.999   6.622  0.8856  0.4385 -0.9289
10430SOL     OW37252   4.939  10.270   3.210 -0.5093 -0.2799 -0.1024
10430SOL    HW137253   4.876  10.216   3.258  0.6462 -0.9809  0.6852
10430SOL    HW237254   4.948  10.350   3.262  0.5744 -0.9464  0.8011
10431SOL     OW37255   2.556   8.073   8.264  0.1648  0.5681 -0.3435
10431SOL    HW137256   2.596   8.014   8.200 -0.8300 -0.5805  0.0600
10431SOL    HW237257   2.567   8.029   8.348 -0.4705  1.0299 -0.0059
10432SOL     OW37258   7.915   1.232   8.305 -0.8884  0.2607  0.2609
10432SOL    HW137259   7.868   1.275   8.234 -0.6320 -1.3530 -0.9431
10432SOL    HW237260   8.006   1.259   8.294 -0.4780 -1.5348 -1.3390
10433SOL     OW37261   9.077   6.863  12.327  0.6823 -0.1934  0.0979
10433SOL    HW137262   9.156   6.812  12.309  1.1709  0.1845  1.0909
10433SOL    HW237263   9.016   6.800  12.365  0.5263 -0.4689 -0.5973
10434SOL     OW37264   9.343   8.461   0.308  0.4158  0.1071 -0.3149
10434SOL    HW137265   9.254   8.492   0.291 -0.2786 -1.8582 -0.4221
10434SOL    HW237266   9.380   8.528   0.365 -0.9641  1.1848 -0.6131
10435SOL     OW37267   7.753   5.793   0.459  0.0828  0.2642  0.2480
10435SOL    HW137268   7.746   5.830   0.548 -0.2316  0.0827  0.2992
10435SOL    HW237269   7.703   5.712   0.463  1.6567 -0.7262  0.4216
10436SOL     OW37270  12.124   5.609   1.153  0.7659 -0.4864 -0.1530
10436SOL    HW137271  12.096   5.657   1.075  0.6380  0.4470  0.4430
10436SOL    HW237272  12.094   5.663   1.226 -0.7474 -2.2203  0.6060
10437SOL     OW37273   8.342   9.056   9.694 -0.7367 -0.6935 -0.6132
10437SOL    HW137274   8.285   9.098   9.758  0.1248 -1.7161  0.8837
10437SOL    HW237275   8.351   9.121   9.624 -2.1487  0.2397  0.0104
10438SOL     OW37276   4.975   2.642  11.773 -0.0549 -0.2127  0.1755
10438SOL    HW137277   5.020   2.596  11.845 -1.4495 -0.0425  1.2003
10438SOL    HW237278   4.901   2.586  11.751 -0.2967  0.3087 -0.3503
10439SOL     OW37279   2.822   6.267  10.272  0.0535 -0.4657 -0.0112
10439SOL    HW137280   2.798   6.300  10.185 -0.5643 -1.1015 -0.0968
10439SOL    HW237281   2.757   6.307  10.330 -1.0689 -1.9136 -0.1926
10440SOL     OW37282   9.475   9.072   0.596 -0.0546 -0.2374 -0.3240
10440SOL    HW137283   9.529   9.070   0.516 -0.3835 -1.8316 -0.5352
10440SOL    HW237284   9.499   8.992   0.642 -1.9181 -0.7615 -0.2084
10441SOL     OW37285   0.481   6.088   0.091 -0.1115  0.0057 -0.9065
10441SOL    HW137286   0.568   6.056   0.067 -0.2847 -1.7144  0.5591
10441SOL    HW237287   0.451   6.136   0.014  2.5648  1.6345 -1.0457
10442SOL     OW37288   9.477   6.142   0.491  0.2910  0.2741 -0.3819
10442SOL    HW137289   9.405   6.112   0.547  0.7836  0.0334  0.1329
10442SOL    HW237290   9.435   6.163   0.407 -0.3800  0.1624 -0.0816
10443SOL     OW37291   5.966   8.679   7.895  0.4780  0.4791 -0.5894
10443SOL    HW137292   6.031   8.611   7.913 -0.1987 -0.3181 -1.1190
10443SOL    HW237293   5.893   8.659   7.953  1.4933  2.6436  1.6413
10444SOL     OW37294   1.925   5.049   0.547 -0.4219  0.0090  0.3079
10444SOL    HW137295   1.836   5.084   0.551 -0.3517  0.2481 -0.1654
10444SOL    HW237296   1.963   5.089   0.469  0.1589  0.0465  0.6026
10445SOL     OW37297   4.243   0.595   3.433 -0.0697  0.0493 -0.1739
10445SOL    HW137298   4.215   0.586   3.342  0.4216 -0.2042 -0.3053
10445SOL    HW237299   4.206   0.519   3.477 -0.0953  0.0368 -0.2163
10446SOL     OW37300   1.460   6.421   4.747  0.5718 -0.2657 -0.1800
10446SOL    HW137301   1.398   6.446   4.816  1.6083 -0.1552  0.7399
10446SOL    HW237302   1.411   6.360   4.692 -1.5610  2.4920 -1.6250
10447SOL     OW37303   9.246  10.813   3.361  0.1703 -0.1352  0.1160
10447SOL    HW137304   9.220  10.883   3.301 -0.9917 -0.0815  0.6537
10447SOL    HW237305   9.303  10.856   3.424  0.1201  0.1532 -0.0312
10448SOL     OW37306  12.029   5.170   4.314  0.2241  0.0949 -0.1491
10448SOL    HW137307  12.115   5.175   4.356 -1.0777  0.6186  2.7124
10448SOL    HW237308  12.033   5.236   4.245  2.9707 -1.8181 -2.0215
10449SOL     OW37309  10.137   1.210   2.201 -0.2296 -0.1824  0.0055
10449SOL    HW137310  10.199   1.275   2.169  0.8407 -1.2836 -0.2420
10449SOL    HW237311  10.187   1.158   2.264 -0.8856 -1.1101 -0.2105
10450SOL     OW37312   3.988   9.917   7.918  0.3069  0.0367  0.5592
10450SOL    HW137313   3.962   9.888   7.831  2.2663  0.1139 -0.0998
10450SOL    HW237314   3.998  10.012   7.910 -1.4049  0.3259  1.4258
10451SOL     OW37315   7.406  10.060   9.861 -0.7987 -0.0707 -0.3117
10451SOL    HW137316   7.326  10.008   9.869 -0.3050 -1.0539 -1.4112
10451SOL    HW237317   7.406  10.116   9.938 -2.2805 -0.4150 -0.0257
10452SOL     OW37318   4.956   4.299  10.217 -0.2106 -0.0193  0.0433
10452SOL    HW137319   4.914   4.316  10.132  1.7879 -0.2012 -1.0547
10452SOL    HW237320   4.935   4.376  10.270  0.8682  1.4895 -1.6136
10453SOL     OW37321  11.302   8.091   9.681 -0.3325  0.4963  0.1864
10453SOL    HW137322  11.258   8.042   9.611 -0.8710  0.1482  0.7624
10453SOL    HW237323  11.390   8.108   9.647 -0.7539  0.7903 -0.7916
10454SOL     OW37324   1.407  12.195   1.878 -0.0164  0.1431 -0.6273
10454SOL    HW137325   1.404  12.141   1.957 -0.6676 -0.5371 -1.1110
10454SOL    HW237326   1.406  12.285   1.911  0.3171 -0.1310  0.1555
10455SOL     OW37327   1.852   5.174  11.523  0.1011 -0.5020 -0.4283
10455SOL    HW137328   1.891   5.224  11.595 -0.8116  0.7911 -0.8074
10455SOL    HW237329   1.759   5.174  11.543 -0.1893  0.0756 -1.7277
10456SOL     OW37330   0.717   0.822   1.098  0.3682 -0.0210  0.1315
10456SOL    HW137331   0.674   0.746   1.058  2.1923  0.0990 -2.3029
10456SOL    HW237332   0.752   0.790   1.180 -0.0762 -1.4424 -0.2119
10457SOL     OW37333   5.667   7.430   2.379 -0.2042  0.2907 -0.0470
10457SOL    HW137334   5.627   7.475   2.304 -1.3510 -3.1510 -1.6930
10457SOL    HW237335   5.705   7.501   2.431 -1.0322  3.0399 -2.8445
10458SOL     OW37336   7.074   8.198   1.198  0.0995  0.4514  0.4180
10458SOL    HW137337   7.063   8.207   1.293 -2.8858 -1.3058  0.3567
10458SOL    HW237338   7.127   8.119   1.188 -1.7723 -0.8890  0.6668
10459SOL     OW37339   7.941   4.700   6.619  0.6530  0.0912  0.2215
10459SOL    HW137340   7.900   4.784   6.639  0.2799 -0.2385  0.8862
10459SOL    HW237341   7.985   4.674   6.700  0.0785 -0.7247  0.2937
10460SOL     OW37342  12.160   9.665   1.216 -0.5616 -0.4846 -0.0190
10460SOL    HW137343  12.214   9.723   1.269  0.6545 -1.0884 -0.5701
10460SOL    HW237344  12.075   9.709   1.212  0.1322  0.9277  0.1291
10461SOL     OW37345   2.903   5.160   9.349  0.0433  0.0253 -0.1715
10461SOL    HW137346   2.854   5.093   9.397 -1.0271 -0.3699 -1.7284
10461SOL    HW237347   2.909   5.125   9.260  3.3251 -0.0010 -0.0608
10462SOL     OW37348  11.441   8.709   4.654  0.3168 -0.1647 -0.7871
10462SOL    HW137349  11.390   8.675   4.582  0.1670 -0.6087 -0.4754
10462SOL    HW237350  11.519   8.653   4.658 -0.1345 -0.7655 -0.0041
10463SOL     OW37351   7.323   5.507   0.506 -0.5750  0.0709  0.5078
10463SOL    HW137352   7.346   5.502   0.413  2.2381  1.5272  0.9863
10463SOL    HW237353   7.351   5.423   0.542 -1.2936 -0.3421  0.1094
10464SOL     OW37354   9.800   7.760  11.972  0.1862 -0.1664 -0.3455
10464SOL    HW137355   9.720   7.803  11.942 -1.2661 -2.5356 -0.0916
10464SOL    HW237356   9.795   7.764  12.068  0.8443  0.4162 -0.3199
10465SOL     OW37357   0.003   5.856   8.905 -0.0159 -0.3735  0.4141
10465SOL    HW137358  -0.013   5.797   8.979  0.4597 -0.4200  0.4839
10465SOL    HW237359   0.071   5.812   8.854  0.7069  0.3525  0.7395
10466SOL     OW37360   0.506   2.093  11.651 -0.8688  0.0109 -0.6426
10466SOL    HW137361   0.574   2.098  11.719  0.2009 -0.0590 -1.6814
10466SOL    HW237362   0.423   2.095  11.700 -0.1434 -2.3045  0.8251
10467SOL     OW37363   4.415   8.205   2.065  0.1996  0.2541 -0.3878
10467SOL    HW137364   4.356   8.166   2.001 -0.5100  0.0017  0.3987
10467SOL    HW237365   4.365   8.277   2.103  0.6558  0.4764 -0.1991
10468SOL     OW37366   8.655   2.262   8.364  0.1256  0.2672 -0.1557
10468SOL    HW137367   8.586   2.206   8.329 -2.1610  2.0214  1.2382
10468SOL    HW237368   8.700   2.295   8.287 -2.5211  1.3040 -1.4085
10469SOL     OW37369   7.195   0.525   3.459 -0.0129 -0.5507 -0.2873
10469SOL    HW137370   7.286   0.494   3.459 -0.1224 -1.0366  1.8683
10469SOL    HW237371   7.143   0.446   3.479 -1.0301 -0.4754 -2.3966
10470SOL     OW37372   5.886   4.260   6.624 -0.2458  0.1346 -0.2325
10470SOL    HW137373   5.968   4.302   6.599  0.1574 -0.0479  0.7129
10470SOL    HW237374   5.840   4.244   6.542  0.0784  1.4334 -0.6863
10471SOL     OW37375   6.039   9.161   3.276 -0.0694 -0.0661 -0.1319
10471SOL    HW137376   6.044   9.199   3.364  0.4298  0.8257 -0.5350
10471SOL    HW237377   6.076   9.228   3.219 -1.0359 -0.3485 -1.1194
10472SOL     OW37378   4.950   3.679  12.253  0.0622  0.3092 -0.0140
10472SOL    HW137379   4.952   3.763  12.298  0.7211 -0.0970  0.7377
10472SOL    HW237380   4.969   3.700  12.162 -0.7707  1.0816 -0.0302
10473SOL     OW37381  11.339   1.010   5.643 -0.5969 -0.4962 -0.2693
10473SOL    HW137382  11.410   0.952   5.669 -1.2696 -1.1410  0.1468
10473SOL    HW237383  11.361   1.094   5.683 -0.5148 -0.9183  0.5908
10474SOL     OW37384   9.651  11.518  10.306  0.1246 -0.1868 -0.3190
10474SOL    HW137385   9.658  11.432  10.265  1.3501 -0.6899  0.8559
10474SOL    HW237386   9.577  11.560  10.263  0.0220 -1.5154 -1.4838
10475SOL     OW37387   3.735  10.713   4.637 -0.5547  0.0379 -0.2516
10475SOL    HW137388   3.805  10.658   4.603 -0.6011  0.9247 -1.8367
10475SOL    HW237389   3.774  10.799   4.648 -0.4065 -0.2844  2.4772
10476SOL     OW37390   3.223  11.335   0.723  0.3817  0.3449 -0.0656
10476SOL    HW137391   3.292  11.401   0.723 -0.0726  0.8588 -1.5885
10476SOL    HW237392   3.148  11.379   0.765  0.9661 -0.2674  1.7411
10477SOL     OW37393   1.047  10.903   0.066 -0.3187 -0.1745  0.3315
10477SOL    HW137394   0.963  10.880   0.107 -0.4343  1.6866  1.2647
10477SOL    HW237395   1.104  10.925   0.140  0.4373  0.2776 -0.3718
10478SOL     OW37396  10.570   6.894   6.175 -0.5359 -0.6315 -0.2420
10478SOL    HW137397  10.635   6.894   6.105 -1.4511  0.8329 -1.1430
10478SOL    HW237398  10.606   6.952   6.241 -2.0352  2.5139 -1.9541
10479SOL     OW37399   4.986   4.819   7.948 -0.5242 -0.4329 -0.0899
10479SOL    HW137400   5.023   4.894   7.994  3.5902 -1.6051 -1.1527
10479SOL    HW237401   4.947   4.856   7.868  0.4568  0.6732 -0.0662
10480SOL     OW37402  11.331   3.090   8.374  0.7399  0.0895  0.0073
10480SOL    HW137403  11.277   3.025   8.328 -0.6773  1.9550 -1.1092
10480SOL    HW237404  11.397   3.116   8.310 -0.8151  2.1841 -0.8805
10481SOL     OW37405   8.102   9.670   3.386 -0.3138  0.0299 -0.1367
10481SOL    HW137406   8.062   9.739   3.440  0.5682  0.1027  0.4306
10481SOL    HW237407   8.175   9.638   3.438  0.2346 -0.2606 -1.0701
10482SOL     OW37408  12.001   5.139   0.792 -0.3505 -0.3939 -1.0302
10482SOL    HW137409  12.069   5.205   0.783 -0.8059  0.0073 -1.6102
10482SOL    HW237410  12.046   5.064   0.831 -0.1054  0.6583  0.7958
10483SOL     OW37411   8.562   9.653   8.298  0.4130  0.3320 -0.0585
10483SOL    HW137412   8.525   9.613   8.219  1.1116  1.1762 -0.8358
10483SOL    HW237413   8.614   9.727   8.265 -0.1354  1.3454  1.2670
10484SOL     OW37414   4.528   3.896   5.901  0.2523 -0.4161  0.1147
10484SOL    HW137415   4.545   3.803   5.917  0.3814 -0.4447 -0.1686
10484SOL    HW237416   4.450   3.897   5.846  0.5539 -0.3884 -0.3263
10485SOL     OW37417  12.483   9.283   1.073  0.4046 -0.3314  0.0405
10485SOL    HW137418  12.533   9.336   1.010 -3.8316  0.3709 -3.1508
10485SOL    HW237419  12.501   9.193   1.047 -1.0431 -0.0593 -2.1468
10486SOL     OW37420  10.955  11.144   8.178  0.0034  0.3069  0.3391
10486SOL    HW137421  10.863  11.142   8.206 -0.0501 -0.9367  0.1285
10486SOL    HW237422  10.957  11.208   8.108 -0.2196  2.1303  1.9122
10487SOL     OW37423  11.832  11.631  11.227 -0.0626 -0.2074 -0.3049
10487SOL    HW137424  11.806  11.551  11.180 -0.7905 -0.5696  0.6733
10487SOL    HW237425  11.778  11.700  11.188 -1.3818 -0.6764  0.6048
10488SOL     OW37426  10.992   8.474   6.816 -0.2736  0.0957 -0.6425
10488SOL    HW137427  11.012   8.384   6.840  2.3053  0.7635  0.0619
10488SOL    HW237428  10.987   8.473   6.720 -2.0183 -1.0433 -0.5855
10489SOL     OW37429   5.052   2.755   3.449 -0.2452 -0.1195 -0.1268
10489SOL    HW137430   5.061   2.771   3.543  0.1545 -0.9465 -0.0179
10489SOL    HW237431   5.125   2.697   3.427 -0.9913 -0.8490 -0.7320
10490SOL     OW37432   1.106   9.577   2.819  0.1441  0.3503 -0.9265
10490SOL    HW137433   1.128   9.620   2.902  0.9182  0.7459 -1.3308
10490SOL    HW237434   1.182   9.523   2.800  0.0605  0.4330 -1.4980
10491SOL     OW37435  11.823   7.263   8.822 -0.4243  0.2875 -0.0090
10491SOL    HW137436  11.796   7.189   8.766  0.3174  0.6311 -0.8506
10491SOL    HW237437  11.810   7.340   8.767  0.4573  0.6240  0.2441
10492SOL     OW37438   6.493   1.054   4.011  0.8369 -0.0995 -0.1493
10492SOL    HW137439   6.523   1.145   4.009  0.8651 -0.0381 -3.8289
10492SOL    HW237440   6.409   1.057   4.056  0.3756  1.9482 -1.0191
10493SOL     OW37441  11.390   4.039   9.125  0.2242  0.6522 -0.0601
10493SOL    HW137442  11.483   4.026   9.108  0.7149  2.0871  1.2991
10493SOL    HW237443  11.363   4.107   9.063 -0.2074 -0.4990 -1.1742
10494SOL     OW37444   1.660   6.003   1.598 -0.1746  0.0790 -0.0882
10494SOL    HW137445   1.650   5.915   1.635  0.3995  0.4204  0.9112
10494SOL    HW237446   1.754   6.020   1.601 -0.4702  2.1633  3.3305
10495SOL     OW37447   9.341  11.498   3.320  0.1435  0.4448 -0.2759
10495SOL    HW137448   9.277  11.563   3.291  0.7895  0.3925 -1.9718
10495SOL    HW237449   9.385  11.538   3.394 -0.6691  1.2034 -0.1890
10496SOL     OW37450   3.386  11.369   7.299  0.9309 -0.3278  0.9453
10496SOL    HW137451   3.311  11.338   7.248  0.7267  0.5465  0.6967
10496SOL    HW237452   3.429  11.433   7.243  1.3713 -0.1931  1.4232
10497SOL     OW37453  11.141   8.700   5.158 -0.3253 -0.1090  0.2769
10497SOL    HW137454  11.236   8.693   5.172 -0.4908  0.9983  2.2273
10497SOL    HW237455  11.127   8.657   5.073  1.9656  0.0654 -0.2680
10498SOL     OW37456   7.788   2.591  12.428  0.0980  0.3415  0.0093
10498SOL    HW137457   7.716   2.654  12.437  0.6545  0.8539  1.0382
10498SOL    HW237458   7.861   2.631  12.475  1.4621  0.3977 -2.0374
10499SOL     OW37459   6.722  12.289   7.083 -0.3671  0.1679 -0.0071
10499SOL    HW137460   6.808  12.259   7.113  0.9551  0.3791 -3.2223
10499SOL    HW237461   6.703  12.235   7.006 -0.6206  3.5309 -2.4899
10500SOL     OW37462   8.820   0.400  11.894  0.5839  0.1228  0.3553
10500SOL    HW137463   8.885   0.397  11.824  0.5776  0.4991  0.3328
10500SOL    HW237464   8.763   0.473  11.872 -0.0066 -0.3675  0.2384
10501SOL     OW37465   5.379   3.353   2.251  0.0428  0.2608 -0.2104
10501SOL    HW137466   5.379   3.447   2.232 -1.5418 -0.1306 -2.5338
10501SOL    HW237467   5.463   3.321   2.216  0.0174  0.6095 -0.5957
10502SOL     OW37468   1.861   7.635   1.682  0.1085  0.0029  0.3106
10502SOL    HW137469   1.797   7.701   1.708 -0.0631  1.0235 -2.3858
10502SOL    HW237470   1.944   7.682   1.679  0.0805  0.0049 -1.0713
10503SOL     OW37471  11.828   1.410   5.789 -0.1397 -0.0595  0.4499
10503SOL    HW137472  11.759   1.420   5.855  0.5013 -0.2060  1.1397
10503SOL    HW237473  11.910   1.417   5.837  0.3569 -1.8702 -0.0632
10504SOL     OW37474   3.611   4.954   9.939  0.3623 -0.2223  0.5576
10504SOL    HW137475   3.596   5.048   9.951  1.6100 -0.0551  0.9671
10504SOL    HW237476   3.529   4.921   9.903  0.2821  1.2157 -0.6692
10505SOL     OW37477   7.990   3.937   9.343 -0.1497 -0.3328 -0.3102
10505SOL    HW137478   7.993   4.022   9.299 -1.3535 -0.7586 -1.2612
10505SOL    HW237479   8.066   3.938   9.402 -0.5317  1.6689  0.2122
10506SOL     OW37480   1.963   4.140   0.520  0.6883 -0.3267  0.0985
10506SOL    HW137481   1.871   4.116   0.528 -0.0892  2.0537 -0.8279
10506SOL    HW237482   1.971   4.177   0.432  2.2538  0.5229  0.5501
10507SOL     OW37483   9.237   2.187  12.404 -0.0382  0.0880 -0.2337
10507SOL    HW137484   9.304   2.210  12.340  1.1156  0.0214  0.9149
10507SOL    HW237485   9.285   2.148  12.476 -1.2978  0.2107  0.7068
10508SOL     OW37486   3.341   0.653   2.720  0.2829  0.3804 -0.1451
10508SOL    HW137487   3.391   0.595   2.663  1.4829  0.9321  0.3155
10508SOL    HW237488   3.378   0.740   2.704 -0.1841  0.7239  0.5932
10509SOL     OW37489  11.781   0.955   2.355  0.1189 -0.1935 -0.4060
10509SOL    HW137490  11.793   1.050   2.345  1.3432 -0.5048 -2.7378
10509SOL    HW237491  11.688   0.940   2.335  0.4492  0.3266 -2.6559
10510SOL     OW37492   9.082   2.119   5.959 -0.2601  0.4120 -0.6325
10510SOL    HW137493   8.986   2.112   5.963 -0.2505  0.7737  1.8812
10510SOL    HW237494   9.113   2.041   6.004  0.6930 -0.1298 -2.1704
10511SOL     OW37495   9.472   8.774   1.196 -0.3433 -0.5178  0.1936
10511SOL    HW137496   9.526   8.731   1.261  1.6255  0.2399 -0.8679
10511SOL    HW237497   9.478   8.867   1.217  1.3994 -0.1207 -1.7412
10512SOL     OW37498   2.962  10.912  10.678 -0.0491 -0.5679  0.0610
10512SOL    HW137499   2.901  10.985  10.687  0.0332 -0.6407  1.6278
10512SOL    HW237500   2.930  10.847  10.740  2.8241  0.2910  2.7171
10513SOL     OW37501   4.458   2.448   4.991  0.1037  0.2476  0.0363
10513SOL    HW137502   4.537   2.483   5.032 -0.6929  1.4193  0.6363
10513SOL    HW237503   4.399   2.523   4.986 -0.8512 -0.5312 -0.7103
10514SOL     OW37504   5.799   0.193   3.717 -0.0999  0.3417  0.9519
10514SOL    HW137505   5.847   0.256   3.771  0.6904  0.8583 -0.3173
10514SOL    HW237506   5.728   0.243   3.678  0.3943  0.4135  0.1192
10515SOL     OW37507   0.769  11.435   7.575 -0.2305  0.3017  0.0716
10515SOL    HW137508   0.772  11.518   7.526 -2.2250  0.3919  0.0497
10515SOL    HW237509   0.789  11.368   7.509  0.0705  0.6488 -0.1998
10516SOL     OW37510   8.961   3.105  11.552  0.9935 -0.0731 -0.1942
10516SOL    HW137511   9.046   3.085  11.512  1.0581  1.8483 -1.1332
10516SOL    HW237512   8.966   3.198  11.574 -1.3895  0.5001 -1.7146
10517SOL     OW37513   2.032   7.307   7.686  0.0259  0.5979 -0.0018
10517SOL    HW137514   2.033   7.216   7.655  1.6671  0.8810 -0.8908
10517SOL    HW237515   2.039   7.299   7.781  1.3042 -0.2222 -0.1384
10518SOL     OW37516   2.490   3.756   7.190  0.4674  0.0494  0.0801
10518SOL    HW137517   2.509   3.843   7.224  1.0048  0.4802 -1.2297
10518SOL    HW237518   2.422   3.721   7.248 -0.4753  1.7389  0.0459
10519SOL     OW37519   2.129   7.062   2.890  0.1281 -0.4845 -0.4688
10519SOL    HW137520   2.173   7.086   2.971 -1.3141  1.9409 -0.3155
10519SOL    HW237521   2.062   6.999   2.917  0.3188 -0.4635  0.0625
10520SOL     OW37522   7.145   1.328   4.855 -0.3723  0.2154  0.1525
10520SOL    HW137523   7.138   1.310   4.762 -1.6261  1.1426  0.0425
10520SOL    HW237524   7.127   1.243   4.897 -0.0470 -0.1498 -0.4286
10521SOL     OW37525   1.807   4.770   3.118  0.0280  0.4804  0.0763
10521SOL    HW137526   1.800   4.703   3.185  1.6535  0.5360  0.3433
10521SOL    HW237527   1.718   4.783   3.087 -0.3549 -1.6329  0.1728
10522SOL     OW37528   5.307   5.511   1.938  0.0147  0.3594  0.2247
10522SOL    HW137529   5.345   5.426   1.961 -0.2509 -0.0986 -0.9236
10522SOL    HW237530   5.219   5.509   1.976  0.2254  0.3852  0.7268
10523SOL     OW37531   3.284   6.434   8.706 -0.1594 -0.3851  0.4486
10523SOL    HW137532   3.355   6.468   8.760  1.1521 -0.2501 -1.3065
10523SOL    HW237533   3.308   6.343   8.688 -0.4670 -0.3609 -0.0983
10524SOL     OW37534   7.408   1.609   6.426 -0.5748 -0.5928  0.7529
10524SOL    HW137535   7.359   1.587   6.505 -4.2098  0.9837 -0.8322
10524SOL    HW237536   7.427   1.702   6.435 -0.7300 -0.4727 -0.0622
10525SOL     OW37537  10.735   9.087   7.258 -0.0010  0.3313 -0.1486
10525SOL    HW137538  10.802   9.131   7.206  1.3260 -0.7916  0.5493
10525SOL    HW237539  10.747   8.994   7.240 -1.0772  0.0712  0.3486
10526SOL     OW37540  12.221  11.189  12.265  0.0848  0.2965  0.1678
10526SOL    HW137541  12.243  11.282  12.275  0.6324 -0.0400  2.9320
10526SOL    HW237542  12.223  11.154  12.354 -0.9322 -2.2148 -0.6934
10527SOL     OW37543   7.387   0.377   8.234 -0.2163  0.4321 -0.5354
10527SOL    HW137544   7.479   0.397   8.252 -0.3092  1.3397 -0.9770
10527SOL    HW237545   7.388   0.289   8.196  0.3312 -0.0652  0.5824
10528SOL     OW37546   9.856  10.125   7.713 -0.0966 -0.1784  1.4322
10528SOL    HW137547   9.826  10.179   7.640 -2.1675  0.0999  2.4300
10528SOL    HW237548   9.914  10.061   7.673 -0.0266  0.8769 -0.2302
10529SOL     OW37549   3.426   1.004   8.109 -0.1629 -0.0878 -0.0453
10529SOL    HW137550   3.498   1.063   8.130  1.2408 -1.1797 -1.5814
10529SOL    HW237551   3.356   1.063   8.079  0.4345  0.9195  0.4585
10530SOL     OW37552   8.121   5.486   4.927  0.2588  0.2624  0.3556
10530SOL    HW137553   8.048   5.510   4.870  2.5443 -0.1928 -2.9963
10530SOL    HW237554   8.132   5.392   4.913  1.7211  0.4002  0.5130
10531SOL     OW37555  10.001   2.359   6.992  0.2431 -0.2588  0.3624
10531SOL    HW137556   9.934   2.294   6.969 -0.2506 -0.7706  2.9357
10531SOL    HW237557  10.084   2.313   6.982  0.0441 -0.4913 -0.2275
10532SOL     OW37558  12.290   9.603   6.548 -0.6015 -0.6560 -0.0904
10532SOL    HW137559  12.209   9.642   6.583 -1.4403 -1.0750 -1.4839
10532SOL    HW237560  12.358   9.632   6.608 -1.8391 -0.5913  1.3465
10533SOL     OW37561   5.767  11.872   8.247 -0.0205 -0.3102 -0.2886
10533SOL    HW137562   5.698  11.923   8.204  1.0542 -0.2235 -1.9844
10533SOL    HW237563   5.722  11.826   8.318 -1.4785  1.0889 -0.2424
10534SOL     OW37564   4.657   9.153   8.946  0.2713  0.2160  0.2462
10534SOL    HW137565   4.594   9.117   8.883 -1.3921  1.3252  1.2008
10534SOL    HW237566   4.670   9.084   9.011 -0.1336  0.0581  0.1579
10535SOL     OW37567   6.300   7.548   2.592  0.1550 -0.6363 -0.2042
10535SOL    HW137568   6.334   7.592   2.514  1.6760 -0.1703  0.6990
10535SOL    HW237569   6.214   7.589   2.607 -1.1082 -2.0997 -2.7286
10536SOL     OW37570   0.858   7.186   0.853  0.3658  0.0060  0.6513
10536SOL    HW137571   0.883   7.120   0.918  0.2542 -1.0229 -0.3002
10536SOL    HW237572   0.870   7.141   0.769  0.2975  1.2217 -0.0265
10537SOL     OW37573   3.476   5.729   0.171  0.0866  0.1050 -0.7597
10537SOL    HW137574   3.407   5.782   0.211  0.3860  1.1183 -1.5495
10537SOL    HW237575   3.543   5.722   0.238  0.3484  1.3339 -0.8689
10538SOL     OW37576  11.525   0.134   1.696  0.3090  0.2394 -0.4465
10538SOL    HW137577  11.575   0.094   1.766 -0.5869  3.0770  2.0618
10538SOL    HW237578  11.591   0.170   1.637  1.2622  1.2357  1.1371
10539SOL     OW37579   2.948   5.031   8.778 -0.6964  0.3902 -0.0369
10539SOL    HW137580   2.951   4.955   8.720 -0.3331  1.0469 -0.8852
10539SOL    HW237581   2.869   5.078   8.751 -0.1422  1.0762 -0.4972
10540SOL     OW37582   9.277   7.568  10.100 -0.4799 -0.3035 -0.5603
10540SOL    HW137583   9.248   7.659  10.103  0.5284  0.0819 -1.7234
10540SOL    HW237584   9.354   7.565  10.156 -1.7873 -0.9822  1.2940
10541SOL     OW37585   0.390   9.868   7.063  0.2082 -0.2693  0.6292
10541SOL    HW137586   0.330   9.800   7.094 -0.1757 -0.1992  0.0526
10541SOL    HW237587   0.334   9.930   7.016  0.9501 -1.1240 -1.4916
10542SOL     OW37588   5.391   6.211   4.587 -0.1437 -0.2315  0.2874
10542SOL    HW137589   5.387   6.141   4.653 -0.1934 -1.0967 -0.6169
10542SOL    HW237590   5.335   6.180   4.516  1.2219 -0.0966 -0.8931
10543SOL     OW37591   5.445   4.081   4.377  0.2945  0.7905 -0.8071
10543SOL    HW137592   5.413   4.169   4.359  0.1327  0.4881 -2.1422
10543SOL    HW237593   5.527   4.075   4.328 -1.0852 -0.7019 -3.1584
10544SOL     OW37594   6.041   8.686   1.669  0.2104  0.4838 -0.2411
10544SOL    HW137595   6.092   8.656   1.744  0.7234 -1.2175 -1.2168
10544SOL    HW237596   6.101   8.677   1.595 -0.5907  1.2239 -0.9946
10545SOL     OW37597  10.232   7.205   0.154  0.0400 -0.0998  0.0065
10545SOL    HW137598  10.177   7.282   0.142  0.2067 -0.0395 -0.3723
10545SOL    HW237599  10.174   7.139   0.192 -0.5689 -0.3866 -1.3606
10546SOL     OW37600   1.184   8.616   8.792 -0.4809  0.5900 -0.0083
10546SOL    HW137601   1.179   8.628   8.887 -1.2622  0.6006 -0.0436
10546SOL    HW237602   1.119   8.676   8.756  0.3928  1.1901 -0.6115
10547SOL     OW37603   3.843   2.325   9.074 -0.1004 -0.2752  0.1204
10547SOL    HW137604   3.934   2.335   9.101  0.0010 -0.6413 -0.0742
10547SOL    HW237605   3.817   2.240   9.110 -0.3961 -0.1283  0.2587
10548SOL     OW37606   5.612   8.526   1.321 -0.6064  0.1867  0.0798
10548SOL    HW137607   5.663   8.453   1.288 -1.9359 -1.2016  0.9770
10548SOL    HW237608   5.554   8.550   1.249  0.2714  0.8217 -0.4380
10549SOL     OW37609   4.038   0.382   4.028 -0.1055  0.2037 -0.2443
10549SOL    HW137610   4.008   0.391   4.118  0.3596  0.9481 -0.1573
10549SOL    HW237611   3.982   0.441   3.977  0.4834  0.7793 -0.2398
10550SOL     OW37612   1.494   9.261   7.292  1.1402  0.4001  0.7651
10550SOL    HW137613   1.401   9.252   7.314  1.2102  1.7098  1.7283
10550SOL    HW237614   1.538   9.193   7.342  0.4413 -2.6726 -2.3826
10551SOL     OW37615   9.938   6.697   9.142  0.2498 -0.2094 -0.3916
10551SOL    HW137616   9.930   6.689   9.238  2.3037 -0.7600 -0.2093
10551SOL    HW237617   9.946   6.791   9.126  2.0335 -0.1957  0.2639
10552SOL     OW37618   5.542  10.502   9.415 -0.0811 -0.1098 -0.2625
10552SOL    HW137619   5.508  10.417   9.442 -0.2113 -0.1112 -0.4264
10552SOL    HW237620   5.637  10.493   9.420 -0.1007 -0.1876 -0.0473
10553SOL     OW37621   0.954  11.236   7.186  0.0266 -0.3666 -0.2337
10553SOL    HW137622   0.986  11.294   7.256  0.7588 -1.4024  0.3035
10553SOL    HW237623   0.876  11.195   7.224  0.7036 -1.2988  0.1745
10554SOL     OW37624   3.296  11.158   4.570  0.2393 -0.7190  0.0834
10554SOL    HW137625   3.381  11.160   4.526  1.0484 -1.4158  1.5242
10554SOL    HW237626   3.300  11.079   4.624  0.2733  1.2103  3.1413
10555SOL     OW37627   4.510   2.766   7.913  0.3730  0.1419  0.3164
10555SOL    HW137628   4.583   2.806   7.865 -0.1661  0.1008 -0.5485
10555SOL    HW237629   4.463   2.715   7.847 -0.8446  0.7158  0.7125
10556SOL     OW37630  11.621   9.961   0.216 -0.8279 -0.0172  0.2171
10556SOL    HW137631  11.697  10.016   0.197  0.6706 -1.6149  1.2675
10556SOL    HW237632  11.576   9.953   0.132  0.7635  0.1062 -0.6907
10557SOL     OW37633   2.619   6.525  11.431  0.4253 -0.2481  0.2322
10557SOL    HW137634   2.671   6.603  11.410  0.6877  0.6550  3.5892
10557SOL    HW237635   2.684   6.455  11.442  0.7041  0.1555  1.4002
10558SOL     OW37636   5.206   5.644  11.118  0.0868  0.2929 -0.2002
10558SOL    HW137637   5.184   5.611  11.031 -0.1526 -0.6888  0.2136
10558SOL    HW237638   5.298   5.670  11.112  0.3717 -0.7546 -0.4744
10559SOL     OW37639  11.227   2.639  10.086  0.2704 -0.2780 -0.4231
10559SOL    HW137640  11.246   2.725  10.123  0.6284 -0.4460 -0.2058
10559SOL    HW237641  11.171   2.656  10.011  1.7466  0.2976 -1.4477
10560SOL     OW37642   0.817   3.434  10.833  0.1017  0.0614 -0.0756
10560SOL    HW137643   0.903   3.456  10.795 -0.1378  1.5102  0.1517
10560SOL    HW237644   0.762   3.509  10.810 -0.8935 -0.5016  0.4582
10561SOL     OW37645  10.328  10.962   1.079 -1.1753  0.3241  0.0918
10561SOL    HW137646  10.289  10.909   1.009  0.1860  0.8821 -1.1491
10561SOL    HW237647  10.407  10.915   1.105 -0.7991  0.9419  0.0864
10562SOL     OW37648   8.968   9.958   1.311 -0.0688  0.4162  0.6406
10562SOL    HW137649   8.987   9.953   1.405  1.1689 -0.3030  0.3711
10562SOL    HW237650   8.874   9.943   1.305  0.1580 -1.7900  1.6268
10563SOL     OW37651   7.014   0.283  11.346  0.2811  0.0384 -0.0140
10563SOL    HW137652   7.098   0.328  11.353 -0.1559  1.2144 -1.6488
10563SOL    HW237653   6.958   0.326  11.411  0.1962  1.1691 -0.7889
10564SOL     OW37654   9.185   8.582   9.169 -0.0691  0.2724 -0.5645
10564SOL    HW137655   9.206   8.510   9.230  0.1988 -0.5446 -1.5942
10564SOL    HW237656   9.269   8.617   9.143 -0.2103  1.3225  0.3148
10565SOL     OW37657   7.246   6.181   9.073 -0.6168 -0.0296 -0.3924
10565SOL    HW137658   7.335   6.147   9.080 -1.0347 -1.3654 -1.0987
10565SOL    HW237659   7.246   6.261   9.125  0.2266 -1.5625  2.1229
10566SOL     OW37660  11.222   3.053   9.459  0.3383  0.1724  0.4806
10566SOL    HW137661  11.271   3.135   9.456  0.5803  0.0036 -0.6172
10566SOL    HW237662  11.163   3.058   9.383  0.4913 -0.7442  0.2869
10567SOL     OW37663   7.091   3.748   9.975  0.1342 -0.1215  0.9842
10567SOL    HW137664   7.033   3.824   9.988 -0.5961 -0.8289  2.0491
10567SOL    HW237665   7.031   3.675   9.960  0.7233 -0.8867  2.2067
10568SOL     OW37666   4.656   8.661   0.781  0.5462  0.5719 -0.3291
10568SOL    HW137667   4.659   8.736   0.722  0.6203  1.8842  1.2694
10568SOL    HW237668   4.744   8.654   0.817  0.9705 -1.2706 -1.5631
10569SOL     OW37669  12.072   9.520   2.430  0.1209  0.0509  0.5070
10569SOL    HW137670  12.106   9.610   2.430  1.9895 -0.5745 -1.5252
10569SOL    HW237671  11.985   9.528   2.392  0.1695  1.0194  0.5541
10570SOL     OW37672   0.834  10.037   1.440 -0.1688 -0.2610  0.0134
10570SOL    HW137673   0.908  10.021   1.499 -1.2947 -0.7091  1.3677
10570SOL    HW237674   0.822  10.132   1.442 -0.6709 -0.3310  1.1520
10571SOL     OW37675  12.174   2.119   3.389 -0.6335 -0.0929 -0.6443
10571SOL    HW137676  12.213   2.032   3.383  0.8618  0.5927 -1.9340
10571SOL    HW237677  12.120   2.127   3.310  1.5492  1.1112 -2.1408
10572SOL     OW37678   8.835   0.684   9.061  0.2417  0.3850 -0.1552
10572SOL    HW137679   8.792   0.600   9.040  0.8586  0.0818 -0.2215
10572SOL    HW237680   8.767   0.735   9.105  0.4852 -1.0314  2.0384
10573SOL     OW37681   0.003   9.032   2.652  0.1645 -0.1930  0.0814
10573SOL    HW137682  -0.090   9.032   2.674 -0.2700  0.7998 -1.5807
10573SOL    HW237683   0.006   9.012   2.559  1.4065  2.0845 -0.4480
10574SOL     OW37684   2.124   4.604  10.398  0.0132  0.5564 -1.0094
10574SOL    HW137685   2.046   4.636  10.444  0.0890  0.1350 -0.5759
10574SOL    HW237686   2.128   4.656  10.318  1.3407  3.1840  0.6178
10575SOL     OW37687  10.427   6.149   3.053 -0.6201  0.0886 -0.1599
10575SOL    HW137688  10.342   6.180   3.083 -0.5999 -1.8680  2.2050
10575SOL    HW237689  10.482   6.146   3.131  0.1195 -3.2105 -0.6251
10576SOL     OW37690   5.430   2.695  10.593 -0.1866  0.4110  0.1654
10576SOL    HW137691   5.520   2.722  10.609  0.0186 -1.1618  2.0179
10576SOL    HW237692   5.436   2.632  10.521  0.1020  0.7436 -0.1071
10577SOL     OW37693   4.485   0.030   8.753  0.1371 -0.2384 -0.3081
10577SOL    HW137694   4.417   0.052   8.689  0.3240 -0.2421 -0.5073
10577SOL    HW237695   4.436  -0.001   8.830 -0.0510 -1.7949 -1.0274
10578SOL     OW37696  11.986  12.081   8.034 -0.3624  0.4179 -0.1544
10578SOL    HW137697  11.936  12.158   8.060  0.2913  1.5862 -2.1405
10578SOL    HW237698  11.929  12.034   7.973  0.2378  0.8200 -1.0582
10579SOL     OW37699   7.491   6.697   7.216  0.0403 -0.0856  0.1981
10579SOL    HW137700   7.446   6.718   7.134 -0.2689  1.3740  0.7141
10579SOL    HW237701   7.583   6.718   7.199  0.0195 -0.0293  0.1555
10580SOL     OW37702   9.526   0.855  11.589  0.1394  0.0767  0.2290
10580SOL    HW137703   9.479   0.773  11.570  0.2157 -0.0363  0.5219
10580SOL    HW237704   9.460   0.923  11.578  0.1330 -0.0056 -0.2405
10581SOL     OW37705   7.341  11.442   8.878  0.3821 -0.0281 -0.0521
10581SOL    HW137706   7.427  11.449   8.836  1.2715 -0.2553  1.6541
10581SOL    HW237707   7.332  11.350   8.899  0.2418  0.1667  0.7907
10582SOL     OW37708   9.043   9.098   1.250 -0.1338  0.3740 -0.1552
10582SOL    HW137709   9.000   9.067   1.330 -1.4557  0.1011 -0.9403
10582SOL    HW237710   8.975   9.149   1.205  0.9280  1.4495 -0.5822
10583SOL     OW37711  12.137   3.105  11.161 -0.1448  0.0807  0.5163
10583SOL    HW137712  12.226   3.073  11.145  0.6890  1.7436  1.5571
10583SOL    HW237713  12.087   3.026  11.183  1.4407 -0.7342  1.4387
10584SOL     OW37714   5.669   0.945   5.519  0.2746 -0.6488  0.5613
10584SOL    HW137715   5.699   1.004   5.589  0.3536 -1.0104  0.8351
10584SOL    HW237716   5.576   0.966   5.508  0.6449  0.6205 -0.4311
10585SOL     OW37717  11.283   3.600   0.213  0.3175  0.1244  0.3757
10585SOL    HW137718  11.375   3.587   0.234  0.5526 -0.1173 -0.7471
10585SOL    HW237719  11.281   3.677   0.157 -0.1041 -0.1169  0.0473
10586SOL     OW37720   1.748   0.174   8.129  0.0711 -0.0326 -0.1639
10586SOL    HW137721   1.673   0.150   8.183  1.6415  1.1240  2.7587
10586SOL    HW237722   1.709   0.215   8.051 -2.3563  1.1318  1.5278
10587SOL     OW37723   3.135   9.807  12.029 -0.3497  0.0248  0.7936
10587SOL    HW137724   3.134   9.719  12.066 -0.4494 -0.1775  0.3156
10587SOL    HW237725   3.140   9.794  11.934 -2.4861  0.4778  0.5638
10588SOL     OW37726   9.090   0.618   9.033 -0.1241  0.0253  0.1216
10588SOL    HW137727   9.086   0.526   9.007 -1.1691 -0.6555  2.4398
10588SOL    HW237728   8.998   0.645   9.037  0.0756  0.5958  1.2476
10589SOL     OW37729   4.474   9.577   4.187  0.5686 -0.2156 -0.2193
10589SOL    HW137730   4.473   9.551   4.279  1.9023  1.4603  0.3186
10589SOL    HW237731   4.534   9.651   4.183  1.5365 -1.0131 -2.6667
10590SOL     OW37732   9.916   0.611   9.349  0.5995  0.3902 -0.3965
10590SOL    HW137733   9.945   0.634   9.260 -0.7413  1.1479 -0.6587
10590SOL    HW237734   9.905   0.516   9.346  1.3803  0.2976 -0.7796
10591SOL     OW37735  12.150   7.692   0.218 -0.1915  0.0093  0.2488
10591SOL    HW137736  12.237   7.726   0.241 -0.5222  0.0823  1.4659
10591SOL    HW237737  12.091   7.765   0.237 -0.6530 -0.4646  0.6750
10592SOL     OW37738   5.485   2.355   3.458 -0.1585  0.1933  0.3142
10592SOL    HW137739   5.560   2.410   3.435  0.7733 -1.2336 -0.2194
10592SOL    HW237740   5.477   2.365   3.553  0.7589  0.3084  0.3906
10593SOL     OW37741  10.655   4.749   3.249 -0.6183 -0.3094  0.0699
10593SOL    HW137742  10.584   4.684   3.241  0.0607 -0.9116 -1.5107
10593SOL    HW237743  10.688   4.759   3.160  1.6592 -0.4669  0.8367
10594SOL     OW37744   9.001   9.535   9.232 -0.7371  0.3962 -0.1407
10594SOL    HW137745   9.058   9.613   9.236 -1.3189  0.8362 -0.2923
10594SOL    HW237746   9.032   9.480   9.304  0.7117  0.0480 -1.0023
10595SOL     OW37747   1.990   0.975   3.110 -0.0437  0.0384 -0.5160
10595SOL    HW137748   1.966   1.000   3.021  0.0937 -0.4450 -0.6992
10595SOL    HW237749   2.086   0.985   3.112 -0.1502  1.0261 -0.0988
10596SOL     OW37750  10.326   4.898   5.268 -0.0761 -0.0637  0.5482
10596SOL    HW137751  10.283   4.983   5.265 -0.3513 -0.1108  2.2150
10596SOL    HW237752  10.389   4.905   5.340  0.3906 -1.0386  0.2494
10597SOL     OW37753  11.526   4.338   3.298 -0.0741  0.5922 -0.3958
10597SOL    HW137754  11.491   4.427   3.292  2.1477  1.4353 -3.6681
10597SOL    HW237755  11.605   4.347   3.352 -0.2083  0.4754 -0.1802
10598SOL     OW37756   9.625  12.032  11.822 -0.3495 -0.0072 -0.6540
10598SOL    HW137757   9.648  12.082  11.901 -2.0908  0.8169 -0.6246
10598SOL    HW237758   9.663  11.945  11.837  0.9103  0.6536  0.2543
10599SOL     OW37759   6.295   7.279   3.628 -0.4730  0.1975  0.2757
10599SOL    HW137760   6.245   7.241   3.701  0.0650 -2.2119 -0.5441
10599SOL    HW237761   6.352   7.209   3.598  0.1097  1.4746 -1.8054
10600SOL     OW37762  11.439   9.791   3.309  0.3249 -0.0957  0.2190
10600SOL    HW137763  11.411   9.882   3.303  1.7196  0.3797  0.4777
10600SOL    HW237764  11.522   9.789   3.262 -0.1710 -1.4675 -0.6390
10601SOL     OW37765   8.126   9.882   6.877  0.2561 -0.0078  0.3589
10601SOL    HW137766   8.161   9.796   6.899 -0.8726 -1.1132 -1.8725
10601SOL    HW237767   8.183   9.914   6.807  0.1008  0.6544  0.5265
10602SOL     OW37768   7.865   8.093   7.065 -0.4266  0.3939  0.1056
10602SOL    HW137769   7.867   8.188   7.073 -0.4957  0.5309 -1.2400
10602SOL    HW237770   7.954   8.069   7.039  0.2398 -0.1803  2.6524
10603SOL     OW37771   0.222   5.432   4.470  0.0293 -0.5469  0.5180
10603SOL    HW137772   0.315   5.410   4.459  0.2105  0.4045  0.0902
10603SOL    HW237773   0.213   5.519   4.431 -1.4570 -1.4353 -1.2805
10604SOL     OW37774   1.381   3.625   6.578  0.1203  0.4481  0.5423
10604SOL    HW137775   1.367   3.719   6.593  0.3814  0.4396  0.8484
10604SOL    HW237776   1.326   3.582   6.643 -3.2141  0.2782 -2.0987
10605SOL     OW37777  11.030   1.598   5.801  0.3256 -0.0228  0.3510
10605SOL    HW137778  11.058   1.544   5.874  1.1270 -1.0674 -0.6892
10605SOL    HW237779  11.030   1.687   5.835 -0.2891 -0.5775  1.8895
10606SOL     OW37780   6.570   8.610   2.293  0.7304 -0.0115 -0.1302
10606SOL    HW137781   6.638   8.611   2.360  0.1728  0.5198  0.4397
10606SOL    HW237782   6.524   8.527   2.306  0.9508 -0.1429 -0.1904
10607SOL     OW37783   3.817   1.379  12.088  0.2920 -0.6827  0.7675
10607SOL    HW137784   3.824   1.295  12.043  2.1195 -0.7875  1.1829
10607SOL    HW237785   3.834   1.445  12.021 -0.4137 -0.6611  0.5998
10608SOL     OW37786  11.214   2.500  12.319 -0.0589 -0.1853 -0.2610
10608SOL    HW137787  11.305   2.502  12.291 -0.0332 -0.0673 -0.1704
10608SOL    HW237788  11.189   2.593  12.326 -0.2926 -0.2196 -0.6290
10609SOL     OW37789   1.635  12.354   0.446  0.3205  0.1757  0.5267
10609SOL    HW137790   1.577  12.279   0.445 -0.7942  0.9088  2.7437
10609SOL    HW237791   1.577  12.430   0.436  0.9373  0.8832  1.9404
10610SOL     OW37792  10.126   6.091   0.325 -0.0695 -0.2087  0.0019
10610SOL    HW137793  10.105   6.182   0.302  0.4859 -0.5392 -1.9529
10610SOL    HW237794  10.182   6.099   0.403  1.1836  1.2174 -0.9937
10611SOL     OW37795  10.583   8.203   2.003 -0.0922 -1.0593 -0.5240
10611SOL    HW137796  10.600   8.109   2.002  1.6222 -0.7876 -1.5648
10611SOL    HW237797  10.572   8.227   1.911 -0.4815 -0.2377 -0.2747
10612SOL     OW37798   5.146  10.224   4.112 -0.0896 -0.3131  0.2832
10612SOL    HW137799   5.206  10.280   4.161 -1.6342  0.9643  0.8100
10612SOL    HW237800   5.189  10.210   4.028  1.0506  0.3538  0.7373
10613SOL     OW37801   9.305   1.041   4.616  0.4499  0.2123 -0.1362
10613SOL    HW137802   9.345   1.021   4.700 -0.0069  0.2496  0.0931
10613SOL    HW237803   9.379   1.050   4.556  0.7722  0.0709  0.2339
10614SOL     OW37804   7.228  10.445   0.839 -0.0549 -0.0766  0.0293
10614SOL    HW137805   7.280  10.490   0.905  1.1124 -1.0802 -0.1701
10614SOL    HW237806   7.263  10.475   0.755  0.9085 -1.4720 -0.1074
10615SOL     OW37807   0.955  10.292   8.985  0.0253 -0.0798 -0.6099
10615SOL    HW137808   0.955  10.207   8.941  1.6331 -0.8607  0.7911
10615SOL    HW237809   0.937  10.272   9.077  1.4467  0.9443 -0.0741
10616SOL     OW37810   3.045  10.342   3.142  0.3396  0.5172  0.6560
10616SOL    HW137811   3.018  10.275   3.079 -2.2297 -0.6075  2.7558
10616SOL    HW237812   3.122  10.304   3.186  0.6009  0.2000 -0.0609
10617SOL     OW37813  11.274  10.281   5.110 -0.2551 -0.2708 -0.2953
10617SOL    HW137814  11.228  10.365   5.121  0.2656 -0.1065  0.6931
10617SOL    HW237815  11.364  10.299   5.137 -0.5332 -1.5693  1.7124
10618SOL     OW37816   2.925   0.577   2.922  0.4175  0.5812 -0.6953
10618SOL    HW137817   2.931   0.584   2.827 -0.5360 -0.6102 -0.8747
10618SOL    HW237818   2.920   0.483   2.939  0.5799  0.7697  0.5411
10619SOL     OW37819   6.301   0.642   2.914 -0.3198  0.0570 -0.7118
10619SOL    HW137820   6.252   0.708   2.962 -1.5621 -1.2467 -0.1138
10619SOL    HW237821   6.306   0.567   2.974 -0.7038 -1.1144 -2.0932
10620SOL     OW37822  10.297   7.299   9.474  0.0159  0.1554 -0.4834
10620SOL    HW137823  10.242   7.295   9.552 -0.1496  0.2290 -0.5979
10620SOL    HW237824  10.257   7.238   9.412  2.1811 -2.7815  0.7794
10621SOL     OW37825   1.879  12.193   2.080 -0.1300  0.2911  0.3574
10621SOL    HW137826   1.872  12.164   1.989 -0.3017 -1.2549  0.8322
10621SOL    HW237827   1.789  12.192   2.113 -0.0085  0.3345  0.6927
10622SOL     OW37828   6.049   4.873  10.753 -0.2249 -0.1721  0.0096
10622SOL    HW137829   6.046   4.835  10.840 -1.1405 -0.6250 -0.2056
10622SOL    HW237830   6.124   4.933  10.755 -0.9890  0.8093  1.5126
10623SOL     OW37831   5.358   3.630   2.558  0.2627  0.0431  0.1631
10623SOL    HW137832   5.336   3.549   2.603  1.1639  0.5071  1.5164
10623SOL    HW237833   5.297   3.635   2.485 -1.6431 -0.4843  1.6461
10624SOL     OW37834   1.947   1.783   2.056 -0.4958  0.0264 -0.0091
10624SOL    HW137835   2.006   1.819   2.122  1.4897  0.2603 -1.8308
10624SOL    HW237836   1.980   1.816   1.973 -2.4497 -0.8987 -1.2302
10625SOL     OW37837   2.737  12.291   9.897 -0.8080 -0.2569  0.1651
10625SOL    HW137838   2.722  12.243   9.979 -1.2705  0.2108  0.3553
10625SOL    HW237839   2.787  12.230   9.843 -0.0461 -0.3828  0.9858
10626SOL     OW37840   6.461  12.291   3.007 -0.2207 -0.2412  0.0399
10626SOL    HW137841   6.548  12.263   3.036 -0.1742 -0.5284 -0.3575
10626SOL    HW237842   6.479  12.364   2.947 -0.2524 -0.3081 -0.0513
10627SOL     OW37843  11.609  11.740   7.515 -0.0180 -0.6071  0.0761
10627SOL    HW137844  11.683  11.687   7.487  0.0946 -1.2172  1.4248
10627SOL    HW237845  11.564  11.685   7.580 -0.1443  0.7589  1.1968
10628SOL     OW37846   4.656   7.444   3.983  0.1191  0.4028 -0.4408
10628SOL    HW137847   4.728   7.383   3.964 -0.4732  0.2071 -2.2202
10628SOL    HW237848   4.649   7.497   3.904 -1.4272  0.7056 -0.1161
10629SOL     OW37849   5.229   1.135   0.551  0.4124 -0.2924 -0.2801
10629SOL    HW137850   5.225   1.041   0.534  0.2734 -0.4207  0.4523
10629SOL    HW237851   5.320   1.151   0.576  0.0649 -0.5154  1.1854
10630SOL     OW37852  10.873  10.276   6.644 -0.3638 -0.4166 -0.2908
10630SOL    HW137853  10.933  10.225   6.590  1.5322  1.4684 -0.0728
10630SOL    HW237854  10.837  10.342   6.584  0.0688  0.3069  0.2321
10631SOL     OW37855  10.525   0.301   7.494  0.1245  0.0058  0.2513
10631SOL    HW137856  10.528   0.392   7.525  0.0279 -0.4216  1.5746
10631SOL    HW237857  10.570   0.303   7.409 -0.9531  1.5051 -0.3216
10632SOL     OW37858   1.524   7.904   8.566 -0.3285 -0.7638  0.1198
10632SOL    HW137859   1.538   7.845   8.640  0.1602 -0.5297  0.2192
10632SOL    HW237860   1.435   7.886   8.538 -1.4776  0.8875  2.3537
10633SOL     OW37861   7.787   3.939   0.999  0.0865 -0.5459  0.2773
10633SOL    HW137862   7.790   3.977   1.087 -0.5715  3.4148 -1.2100
10633SOL    HW237863   7.872   3.896   0.988  2.1228  2.8634  1.3341
10634SOL     OW37864   6.958   9.990   5.856 -0.1192  0.6986 -0.2959
10634SOL    HW137865   7.006   9.913   5.885  1.1738  1.3186 -0.6952
10634SOL    HW237866   6.867   9.962   5.854  0.3483 -0.9151 -0.7298
10635SOL     OW37867   0.778   8.981   8.990  0.1612 -0.0549  0.1714
10635SOL    HW137868   0.842   8.979   9.061 -0.6508 -0.0421  0.9200
10635SOL    HW237869   0.809   9.050   8.932  1.6507 -1.0571 -0.2871
10636SOL     OW37870   7.312  10.963   9.354 -0.0366 -0.4217 -0.5572
10636SOL    HW137871   7.365  10.992   9.429  0.3304  1.2357 -1.3933
10636SOL    HW237872   7.249  11.034   9.340  0.0902 -0.5477 -1.9715
10637SOL     OW37873   5.219   0.183   2.348 -0.5175 -0.2311  0.0667
10637SOL    HW137874   5.260   0.182   2.434  1.7166  0.4732 -0.9217
10637SOL    HW237875   5.235   0.095   2.313 -2.3820 -0.8916  0.7177
10638SOL     OW37876   0.904   5.080  11.134 -0.1138  0.4411 -0.7853
10638SOL    HW137877   0.951   5.050  11.211 -0.9536  0.2708 -0.3248
10638SOL    HW237878   0.951   5.041  11.060 -0.0793 -0.4957 -0.2867
10639SOL     OW37879   3.358   2.331   1.924 -0.6162 -0.3763 -0.0665
10639SOL    HW137880   3.417   2.386   1.974  1.0992 -1.8303 -0.3875
10639SOL    HW237881   3.270   2.362   1.947  0.2124  0.9655  1.4568
10640SOL     OW37882  11.374   5.085   2.253 -0.2818  0.2306  0.3490
10640SOL    HW137883  11.316   5.015   2.223  0.7081 -0.5313  0.1639
10640SOL    HW237884  11.316   5.146   2.299 -1.5666  0.5456 -1.5505
10641SOL     OW37885   1.188   7.635  11.733  0.0438 -0.5510 -0.1783
10641SOL    HW137886   1.098   7.604  11.744 -1.0409  2.7125  1.4874
10641SOL    HW237887   1.240   7.582  11.793 -1.5582  0.1228  1.9519
10642SOL     OW37888  10.311   0.289  11.617 -0.1000 -0.0301 -0.1162
10642SOL    HW137889  10.323   0.347  11.542 -1.3479  0.5334  0.0978
10642SOL    HW237890  10.381   0.314  11.678 -1.0196  1.7551  0.2669
10643SOL     OW37891  11.559   1.850   3.951  0.2670  0.2472 -0.1824
10643SOL    HW137892  11.557   1.946   3.944 -1.2721  0.4412  1.7848
10643SOL    HW237893  11.478   1.829   3.998  1.3568 -1.8746  0.8747
10644SOL     OW37894   1.445   1.591  11.062  0.1721 -0.5548  0.1825
10644SOL    HW137895   1.441   1.569  10.969 -0.5404 -0.5438  0.2023
10644SOL    HW237896   1.503   1.666  11.067  0.8872 -1.0758 -0.1492
10645SOL     OW37897  11.425   8.641   6.358 -0.1754  0.4335  0.7548
10645SOL    HW137898  11.498   8.606   6.408 -0.5560  0.9246  1.6766
10645SOL    HW237899  11.357   8.573   6.363 -0.6885  1.0117  2.0252
10646SOL     OW37900   6.185   2.221  12.441  0.1186  0.0915  0.5319
10646SOL    HW137901   6.091   2.217  12.424 -0.0299 -1.5388  1.5951
10646SOL    HW237902   6.206   2.138  12.484  2.1509  0.1803 -0.1631
10647SOL     OW37903  10.857   8.038   6.668  0.0488 -0.0808  0.3329
10647SOL    HW137904  10.810   8.104   6.720 -0.8855  0.0452 -0.6166
10647SOL    HW237905  10.859   7.960   6.723  0.1432  0.3964  1.0177
10648SOL     OW37906   4.048   9.319   3.072  0.0244  0.9829  0.2702
10648SOL    HW137907   4.122   9.271   3.035  0.6381  1.6345  0.6433
10648SOL    HW237908   3.996   9.251   3.116  0.3532  0.5159 -0.0465
10649SOL     OW37909   9.002   8.034   3.551 -0.0958 -0.5302 -0.8678
10649SOL    HW137910   8.930   8.095   3.566  0.4097 -0.0630 -0.3209
10649SOL    HW237911   8.990   7.966   3.616  0.7815  0.3103  0.2136
10650SOL     OW37912   7.390   4.510   7.001 -0.3101 -0.0374  0.1401
10650SOL    HW137913   7.374   4.513   7.095  2.8513  1.7734  0.7730
10650SOL    HW237914   7.366   4.422   6.975 -2.0655 -0.3228  2.4487
10651SOL     OW37915   5.313   0.286  11.211  0.6319  0.3919  0.2407
10651SOL    HW137916   5.348   0.343  11.280  1.3637  1.1185 -0.7007
10651SOL    HW237917   5.220   0.279  11.230  0.8431  0.4743  1.3715
10652SOL     OW37918   2.924   5.297  11.553  0.5814 -0.8257 -0.2021
10652SOL    HW137919   2.931   5.388  11.582  0.9634 -0.3043 -1.8145
10652SOL    HW237920   2.998   5.253  11.594  0.3797 -0.4210  0.6099
10653SOL     OW37921   0.354  10.265   1.045 -0.4953  0.0508 -0.1938
10653SOL    HW137922   0.364  10.176   1.077  0.7418 -0.9295 -3.0250
10653SOL    HW237923   0.417  10.316   1.095  1.2200 -1.3627 -0.8435
10654SOL     OW37924   1.784   6.273   4.684 -0.0773 -0.7654 -0.0891
10654SOL    HW137925   1.869   6.317   4.673 -0.0170 -1.1461 -1.2671
10654SOL    HW237926   1.720   6.344   4.676  0.0311 -0.8078 -1.7763
10655SOL     OW37927  12.267   6.391   4.845 -0.7156  0.5568 -0.5107
10655SOL    HW137928  12.295   6.456   4.909 -1.0364  0.0811  0.1220
10655SOL    HW237929  12.342   6.381   4.786  0.2166 -0.1932  0.7525
10656SOL     OW37930   8.914   1.057   3.694 -0.4367  0.3671  0.2241
10656SOL    HW137931   8.937   1.150   3.696  0.0432  0.2821 -0.6388
10656SOL    HW237932   8.819   1.056   3.698 -0.4071  0.8274  1.5610
10657SOL     OW37933  11.754   0.921   2.615  0.5443  0.9565 -0.6049
10657SOL    HW137934  11.773   0.930   2.522 -0.6903  2.2226 -0.7661
10657SOL    HW237935  11.713   1.004   2.640 -2.5516 -0.6402  0.1888
10658SOL     OW37936   7.538   5.337   1.095 -0.3165 -0.5226 -0.0827
10658SOL    HW137937   7.578   5.298   1.017 -0.5088  0.7592 -0.8397
10658SOL    HW237938   7.465   5.388   1.061  0.3473  1.0673  0.7932
10659SOL     OW37939   9.250   9.832   5.796 -0.4711 -0.4133 -0.7786
10659SOL    HW137940   9.271   9.758   5.854  1.2196 -0.7407 -1.7246
10659SOL    HW237941   9.155   9.840   5.801 -0.5921 -1.9196  0.2364
10660SOL     OW37942   8.042   9.222   7.640  0.0825 -0.1471  0.0128
10660SOL    HW137943   7.981   9.235   7.713 -1.2682  1.7440 -1.3330
10660SOL    HW237944   8.116   9.280   7.659 -0.1280  0.1116  0.0532
10661SOL     OW37945   0.147   0.942  11.922 -0.2075 -0.2469  0.1779
10661SOL    HW137946   0.078   0.952  11.857 -1.3250 -1.8790  1.0562
10661SOL    HW237947   0.108   0.972  12.004  0.3907 -0.4370  0.5416
10662SOL     OW37948   6.112  11.266   2.873  0.2551 -0.1698  0.3567
10662SOL    HW137949   6.030  11.310   2.896  0.7652  1.9004 -1.4846
10662SOL    HW237950   6.102  11.245   2.780  2.1768  1.0789 -0.1754
10663SOL     OW37951   0.062   0.739   4.672 -0.7234  0.3173 -0.3169
10663SOL    HW137952  -0.012   0.774   4.623 -1.0800  0.8525  0.5808
10663SOL    HW237953   0.081   0.655   4.630 -1.0520  0.7238 -1.3220
10664SOL     OW37954   9.388   3.434  11.493  0.5110  0.7207  0.1342
10664SOL    HW137955   9.367   3.527  11.481 -1.2910  0.3128 -0.0952
10664SOL    HW237956   9.423   3.407  11.407  1.0312  1.1727  0.1984
10665SOL     OW37957   6.644   8.174   5.798  0.4634  0.0321  0.4651
10665SOL    HW137958   6.726   8.191   5.752  0.2880  0.2025  0.2089
10665SOL    HW237959   6.656   8.211   5.885  1.6265 -2.2541  1.3426
10666SOL     OW37960   2.321   9.972   6.410  0.4558  0.2446 -0.1640
10666SOL    HW137961   2.254  10.028   6.372  1.0163  1.5196  0.6354
10666SOL    HW237962   2.283   9.942   6.493  0.5194  0.2484 -0.1327
10667SOL     OW37963   4.887   9.135   1.567  0.6354 -0.2940  0.1954
10667SOL    HW137964   4.970   9.167   1.601  0.9038 -1.2069  0.4237
10667SOL    HW237965   4.911   9.072   1.499  0.1314 -0.2434 -0.0336
10668SOL     OW37966   0.894   0.674   6.113  0.1804 -0.5004  0.1251
10668SOL    HW137967   0.821   0.659   6.053  0.1297  0.2517 -0.0101
10668SOL    HW237968   0.953   0.600   6.097  0.2581 -0.2190 -0.9889
10669SOL     OW37969   7.464   2.558   4.350  0.2319 -0.4979  0.7742
10669SOL    HW137970   7.507   2.535   4.268  0.1873  0.1830  0.5580
10669SOL    HW237971   7.370   2.556   4.329  0.2551  1.7782  0.2145
10670SOL     OW37972   5.840   8.922   2.928 -0.8891  0.0918 -0.7000
10670SOL    HW137973   5.855   9.001   2.876 -0.8056 -0.4963 -1.6144
10670SOL    HW237974   5.906   8.925   2.997 -0.9558  0.8674 -0.6682
10671SOL     OW37975  11.487   1.922   1.889 -0.2884 -0.0021  0.4088
10671SOL    HW137976  11.522   2.006   1.919  0.1177  0.0120 -0.1028
10671SOL    HW237977  11.435   1.944   1.811 -1.7159  0.0259  1.3288
10672SOL     OW37978   3.596   5.616   9.541  0.4215 -0.2348 -0.0353
10672SOL    HW137979   3.554   5.684   9.595  1.8050  0.2452  0.4901
10672SOL    HW237980   3.552   5.535   9.566  0.1605  0.1711  0.8843
10673SOL     OW37981   0.040   1.683   9.730  0.0385 -0.7486  0.4522
10673SOL    HW137982   0.065   1.729   9.650 -0.3372 -2.5881 -0.7659
10673SOL    HW237983   0.028   1.753   9.795  2.1080  0.6424 -0.5836
10674SOL     OW37984   1.320  10.365   9.664  0.1432  0.5148 -0.3195
10674SOL    HW137985   1.307  10.456   9.638  0.7141  0.8874  0.6761
10674SOL    HW237986   1.415  10.354   9.665  0.0761 -0.1396 -0.5670
10675SOL     OW37987   3.201   9.897   1.479 -0.2100 -0.1015 -0.2201
10675SOL    HW137988   3.165   9.972   1.431 -0.6199 -0.0736  0.1334
10675SOL    HW237989   3.292   9.922   1.496  0.1072 -0.3450 -1.4692
10676SOL     OW37990  12.269   2.183   2.106  0.2950 -0.2511  0.6484
10676SOL    HW137991  12.353   2.186   2.151  1.5835 -2.0422 -1.4146
10676SOL    HW237992  12.209   2.144   2.170  1.0422  0.8084  2.0627
10677SOL     OW37993   0.503   3.731   7.185 -0.4918  0.0816  0.3838
10677SOL    HW137994   0.588   3.688   7.181 -0.2101  0.7480 -1.7124
10677SOL    HW237995   0.510   3.793   7.258  1.4315  1.3488 -0.8100
10678SOL     OW37996   3.946   5.462   8.500 -0.3820  0.2553 -0.3128
10678SOL    HW137997   4.010   5.465   8.571 -1.9646 -1.1278  1.2316
10678SOL    HW237998   3.994   5.424   8.426  1.1046  1.1185  0.1702
10679SOL     OW37999   9.079   8.954   7.405 -0.0160 -0.1699 -0.4318
10679SOL    HW138000   9.091   9.035   7.454 -0.3850  0.7238 -1.7438
10679SOL    HW238001   8.984   8.944   7.397  0.0129 -1.0143  0.1379
10680SOL     OW38002   2.091   9.279  10.055 -0.3909  0.1847  0.2842
10680SOL    HW138003   2.142   9.259  10.133 -0.3622  0.9037  0.4566
10680SOL    HW238004   2.107   9.372  10.039 -2.0502  0.5635  0.6412
10681SOL     OW38005   1.019   1.506   3.614 -0.9797 -0.1711 -0.3791
10681SOL    HW138006   0.929   1.524   3.587 -1.4989 -0.1300  1.2457
10681SOL    HW238007   1.013   1.492   3.709  0.8794  0.8927 -0.0634
10682SOL     OW38008   3.800   6.897  10.022  0.5568 -0.1000  0.1356
10682SOL    HW138009   3.745   6.819  10.030  0.5773 -0.1029  0.2397
10682SOL    HW238010   3.827   6.917  10.111 -0.2661  0.6213  0.2399
10683SOL     OW38011   6.254   9.622   8.094 -0.5929 -0.1622 -0.4362
10683SOL    HW138012   6.194   9.570   8.041 -0.1084 -0.5605 -0.5995
10683SOL    HW238013   6.263   9.574   8.176 -0.5941 -0.0387 -0.3626
10684SOL     OW38014   9.918  10.628   7.433 -0.3947 -0.2461  0.6663
10684SOL    HW138015   9.856  10.675   7.488 -1.8778 -1.1038 -0.2276
10684SOL    HW238016   9.943  10.551   7.484 -1.9348 -1.1559  0.0930
10685SOL     OW38017   7.822   2.524   9.592  0.1502  0.4187  0.1313
10685SOL    HW138018   7.811   2.524   9.687 -2.9850  1.4403 -0.0915
10685SOL    HW238019   7.817   2.616   9.567  2.5759  0.3243 -0.9634
10686SOL     OW38020   4.105   1.048   0.074 -0.3992  0.0768 -0.0151
10686SOL    HW138021   4.174   1.099   0.031  1.4291 -1.4975  0.9148
10686SOL    HW238022   4.024   1.081   0.035  0.6932  3.1799  0.0536
10687SOL     OW38023  11.180  10.612   7.012 -0.2570  0.3839  0.2364
10687SOL    HW138024  11.177  10.665   6.933 -1.6053 -2.0954 -1.5195
10687SOL    HW238025  11.215  10.527   6.984  1.3446  0.0701  2.7959
10688SOL     OW38026   2.523   4.421   3.278  0.7378  0.2096 -0.1717
10688SOL    HW138027   2.557   4.482   3.213  2.1636  0.3889  0.7037
10688SOL    HW238028   2.536   4.465   3.362  0.6043 -0.7580  0.3748
10689SOL     OW38029  11.792   7.456  12.359  0.3003 -0.2444 -0.0671
10689SOL    HW138030  11.834   7.520  12.302 -0.5009 -0.2833 -0.7100
10689SOL    HW238031  11.770   7.505  12.438 -0.7242  0.4176 -0.7330
10690SOL     OW38032   5.772   0.155   2.091  0.2632 -0.7618 -0.0301
10690SOL    HW138033   5.693   0.204   2.067  1.5817  0.6617 -1.6816
10690SOL    HW238034   5.772   0.080   2.032 -0.3942 -1.3702  0.7208
10691SOL     OW38035   7.116   7.138   5.743  0.0214  0.5894 -0.0933
10691SOL    HW138036   7.091   7.047   5.761  1.6219  0.1104 -0.0549
10691SOL    HW238037   7.045   7.173   5.690 -1.1036 -0.3681  0.7158
10692SOL     OW38038   6.796  10.979   5.376 -0.0270 -0.4163  0.2569
10692SOL    HW138039   6.707  10.944   5.375  0.6308 -2.2002 -0.6802
10692SOL    HW238040   6.819  10.990   5.283  0.7086  0.0509  0.4851
10693SOL     OW38041   3.411  12.150   1.748  0.2826  0.1617 -0.2226
10693SOL    HW138042   3.337  12.208   1.729 -0.3663 -0.5972 -0.1152
10693SOL    HW238043   3.388  12.068   1.704  0.9516 -0.1628  0.0219
10694SOL     OW38044   7.275   8.208   1.774 -0.0798  0.3113 -0.3288
10694SOL    HW138045   7.360   8.253   1.777  0.6928 -1.1196 -0.1968
10694SOL    HW238046   7.238   8.220   1.861 -0.6451  2.0611 -0.7620
10695SOL     OW38047  11.375   0.963   6.076  0.5670 -0.2062  0.4994
10695SOL    HW138048  11.470   0.978   6.082  0.5134  0.1056  0.6348
10695SOL    HW238049  11.342   0.990   6.162  0.3603 -0.3470  0.4636
10696SOL     OW38050   9.444   8.634   9.099 -0.3184  0.1704  0.5286
10696SOL    HW138051   9.519   8.668   9.147  0.3527  1.3623 -1.2438
10696SOL    HW238052   9.422   8.704   9.036 -2.8026 -0.2148  0.8626
10697SOL     OW38053   8.837   6.762   0.126  0.0818  0.4011  0.6800
10697SOL    HW138054   8.758   6.727   0.166  0.4641 -1.4064 -0.0674
10697SOL    HW238055   8.806   6.835   0.072 -1.4974 -1.7242 -1.4777
10698SOL     OW38056  10.647   8.082   4.374 -0.1154  0.6163  0.9164
10698SOL    HW138057  10.586   8.044   4.310  1.4200 -1.4207  0.5963
10698SOL    HW238058  10.704   8.138   4.322  0.2249  0.0984  0.7321
10699SOL     OW38059   7.048   4.498  12.003 -0.2460 -0.3560  0.3355
10699SOL    HW138060   7.071   4.549  12.081  0.2613 -0.7321  0.4348
10699SOL    HW238061   7.081   4.550  11.930  2.0817 -1.4419  0.5220
10700SOL     OW38062   4.367   3.943   4.560  0.3462 -0.1468  0.0108
10700SOL    HW138063   4.402   3.864   4.602  0.4095  0.6145  1.4521
10700SOL    HW238064   4.289   3.913   4.514  0.4572 -1.0792  0.4063
10701SOL     OW38065  11.948   7.822   5.743 -0.2343  0.3156  0.1523
10701SOL    HW138066  11.973   7.777   5.662  0.6119  1.1209 -0.0441
10701SOL    HW238067  11.957   7.756   5.812 -2.5700 -0.8978 -0.5729
10702SOL     OW38068   4.589   2.404   2.846  0.2359  0.3965 -0.1154
10702SOL    HW138069   4.614   2.313   2.826  0.1050  0.6938 -1.8039
10702SOL    HW238070   4.514   2.421   2.788  0.0341  1.4836  0.4421
10703SOL     OW38071   9.842   6.433   7.841 -0.2566 -0.5358  0.2513
10703SOL    HW138072   9.923   6.424   7.891  0.2016  0.8301 -0.1862
10703SOL    HW238073   9.773   6.435   7.908  0.2325  0.0002  0.7599
10704SOL     OW38074   9.777   2.098  10.631 -0.2538  0.1146 -0.4985
10704SOL    HW138075   9.738   2.085  10.718  1.0995  1.3135  0.3472
10704SOL    HW238076   9.738   2.180  10.600  0.6363  0.6820 -0.1686
10705SOL     OW38077   7.802   0.134  10.588 -0.2133 -0.1731  0.0305
10705SOL    HW138078   7.763   0.063  10.640 -1.4250  0.2909 -0.1968
10705SOL    HW238079   7.851   0.186  10.652 -1.3262  0.1398  0.6598
10706SOL     OW38080   9.174   7.281   2.563 -0.1843  0.3058  0.4676
10706SOL    HW138081   9.255   7.326   2.540  0.1242  0.2573  1.3844
10706SOL    HW238082   9.193   7.240   2.648 -0.9481 -0.2809  0.3699
10707SOL     OW38083   5.090   5.913   3.131 -0.3758 -0.5398  0.3920
10707SOL    HW138084   5.023   5.981   3.134 -1.2273 -1.3511 -0.0248
10707SOL    HW238085   5.101   5.886   3.222 -3.0175 -2.6913  0.1741
10708SOL     OW38086   6.560   7.218  10.572  0.1525 -0.2820 -0.1977
10708SOL    HW138087   6.638   7.264  10.543  0.2970 -2.0927 -3.0506
10708SOL    HW238088   6.593   7.141  10.617 -0.0839  0.8493  2.0382
10709SOL     OW38089  10.280  10.330   0.573 -0.3216 -0.3811  0.2387
10709SOL    HW138090  10.361  10.293   0.539 -0.0978  1.1729 -1.0073
10709SOL    HW238091  10.309  10.401   0.631 -0.7927 -0.5752  0.7252
10710SOL     OW38092   5.065  10.259   1.332  0.1471 -0.2267 -0.0508
10710SOL    HW138093   4.975  10.289   1.315 -0.1346 -0.0666  1.6147
10710SOL    HW238094   5.066  10.235   1.424  1.7095 -0.6611 -0.1519
10711SOL     OW38095   2.769   8.750   3.946  0.1426 -0.1675  0.8017
10711SOL    HW138096   2.693   8.806   3.965  0.8161  0.7420  0.8731
10711SOL    HW238097   2.776   8.694   4.024 -0.3672 -0.1641  0.8574
10712SOL     OW38098   3.696   9.345   1.435 -0.3409 -0.0726 -0.0299
10712SOL    HW138099   3.665   9.324   1.523 -1.7796  2.5221  0.1644
10712SOL    HW238100   3.618   9.337   1.380  0.5732 -1.8050 -1.1506
10713SOL     OW38101   4.393   4.069   0.654  0.3173 -0.1046 -0.5025
10713SOL    HW138102   4.401   3.976   0.630 -1.3507 -1.0572  2.1411
10713SOL    HW238103   4.333   4.106   0.589  0.4873 -1.0416 -1.2141
10714SOL     OW38104   9.672  12.041   6.086 -0.5605 -0.3530 -0.2100
10714SOL    HW138105   9.625  11.975   6.035 -2.5281 -0.2090  1.2882
10714SOL    HW238106   9.628  12.042   6.171  1.6640  0.4194  1.0435
10715SOL     OW38107  11.426   1.933  12.115 -0.5286 -0.2659 -0.0812
10715SOL    HW138108  11.514   1.903  12.094  0.5476  1.3690  1.7652
10715SOL    HW238109  11.384   1.946  12.030  1.8744  1.2412 -1.1300
10716SOL     OW38110   6.736   4.946   5.158 -0.2253 -0.7142 -0.6174
10716SOL    HW138111   6.818   4.971   5.202 -0.5744  0.9577 -0.8545
10716SOL    HW238112   6.762   4.933   5.066 -0.3722  0.9510 -0.9366
10717SOL     OW38113  10.082   4.331  12.052 -0.3086 -0.5057  0.0364
10717SOL    HW138114  10.172   4.331  12.018  0.6392 -1.0912  2.3806
10717SOL    HW238115  10.030   4.368  11.981  1.4678 -1.9244 -2.1405
10718SOL     OW38116   5.920   5.259   3.895 -0.8131 -0.3146 -0.0853
10718SOL    HW138117   5.831   5.239   3.922 -1.1141 -1.5256 -1.8111
10718SOL    HW238118   5.952   5.179   3.853  2.1527 -0.9583  2.9260
10719SOL     OW38119  11.488   4.439   5.599  0.1066  0.7127 -0.6712
10719SOL    HW138120  11.414   4.482   5.642  0.7464  0.2266  0.9550
10719SOL    HW238121  11.557   4.438   5.664  0.3731 -2.0766 -0.8965
10720SOL     OW38122   3.113   8.376   5.741 -0.0057  0.1668  0.7401
10720SOL    HW138123   3.176   8.331   5.798 -1.1024 -1.3368  0.8192
10720SOL    HW238124   3.033   8.379   5.792 -1.2849 -2.0254 -0.9892
10721SOL     OW38125   7.504  12.038  12.430  0.3938  0.0747 -0.1988
10721SOL    HW138126   7.583  12.082  12.399  1.5332 -1.1453  0.8054
10721SOL    HW238127   7.443  12.042  12.357  1.4423  0.9137 -1.0590
10722SOL     OW38128   3.269   7.394   3.408  0.4592  0.3048  0.1314
10722SOL    HW138129   3.251   7.461   3.474 -0.5214  0.3402 -0.1658
10722SOL    HW238130   3.200   7.404   3.343  1.6369  0.5388 -1.1267
10723SOL     OW38131   1.190  12.353   3.052  0.5411 -0.1061 -0.2108
10723SOL    HW138132   1.120  12.302   3.012  0.5450  0.4697 -0.9640
10723SOL    HW238133   1.146  12.420   3.103  0.5449 -0.1893 -0.0967
10724SOL     OW38134  10.466   1.926  10.667 -0.4366 -0.6844  0.3479
10724SOL    HW138135  10.399   1.858  10.666 -1.8074  0.5765 -1.7932
10724SOL    HW238136  10.422   2.003  10.631  1.3588  1.0552  1.6626
10725SOL     OW38137   9.048  10.090   3.968 -1.0337 -0.0581 -0.4035
10725SOL    HW138138   9.080  10.012   4.014 -0.2917  0.7022  0.4073
10725SOL    HW238139   8.974  10.058   3.917 -0.2903 -1.4464 -0.6758
10726SOL     OW38140   2.900   3.537   5.563 -0.1280 -0.8798 -0.2995
10726SOL    HW138141   2.891   3.472   5.493  0.0466  0.0039 -1.1639
10726SOL    HW238142   2.824   3.523   5.619 -1.0636 -0.6428 -1.4796
10727SOL     OW38143   5.908   0.540   9.821 -0.2592  0.1476  0.3526
10727SOL    HW138144   5.886   0.512   9.732  0.6699  1.7531 -0.4328
10727SOL    HW238145   5.975   0.607   9.809 -1.4920  1.8156  2.1471
10728SOL     OW38146   8.880   9.059  10.475 -0.7201  0.2954  0.1923
10728SOL    HW138147   8.816   9.130  10.469 -0.2304  1.0942  3.0740
10728SOL    HW238148   8.831   8.985  10.510 -0.8777 -0.3740 -1.3475
10729SOL     OW38149   6.946  11.868   0.377 -0.0857 -0.2775 -0.3562
10729SOL    HW138150   6.898  11.825   0.448  0.9843  0.4127  0.8354
10729SOL    HW238151   6.882  11.927   0.337 -0.2445  0.7139  1.2700
10730SOL     OW38152   8.200   3.855   8.999  0.0184  0.2890  0.2601
10730SOL    HW138153   8.260   3.831   9.070 -1.1880  2.3270  2.0868
10730SOL    HW238154   8.257   3.866   8.923  1.2327 -3.0390  0.5092
10731SOL     OW38155   2.155   0.105   8.699  0.5867 -0.2761 -0.3347
10731SOL    HW138156   2.193   0.020   8.724  0.4335 -0.4328 -0.6283
10731SOL    HW238157   2.090   0.083   8.632 -1.3774 -0.2417  1.4300
10732SOL     OW38158   6.265   4.157   4.208  0.1639  0.0244  0.4385
10732SOL    HW138159   6.298   4.137   4.120  1.4492  0.6358  0.7589
10732SOL    HW238160   6.318   4.101   4.266  0.1034  0.4459  0.9035
10733SOL     OW38161   3.455   1.263   4.783  0.6323  0.1545  0.1097
10733SOL    HW138162   3.364   1.271   4.811  1.0384 -2.1371  2.5007
10733SOL    HW238163   3.506   1.297   4.857  1.7605  0.9175 -0.9729
10734SOL     OW38164   0.245   7.313   6.119 -0.3647 -0.2745  0.2919
10734SOL    HW138165   0.179   7.285   6.183 -0.5247 -0.0730  0.2168
10734SOL    HW238166   0.274   7.232   6.078 -0.9672 -0.3185 -0.0589
10735SOL     OW38167   0.286  10.211  10.936 -0.1244 -0.5701 -0.2184
10735SOL    HW138168   0.317  10.252  11.016  0.4926 -0.0730 -0.7083
10735SOL    HW238169   0.221  10.272  10.901  1.0084  0.1731 -1.1026
10736SOL     OW38170  10.380   6.639   2.938  0.2853 -0.2666 -0.1364
10736SOL    HW138171  10.358   6.719   2.889 -0.0246 -0.5438 -0.4541
10736SOL    HW238172  10.317   6.638   3.010  1.2353  0.5562  0.7481
10737SOL     OW38173  10.469   8.839   6.198  0.5737 -0.1126  0.0375
10737SOL    HW138174  10.484   8.745   6.188 -0.9075 -0.2338 -1.3509
10737SOL    HW238175  10.405   8.845   6.269  1.7967 -0.0284  1.1663
10738SOL     OW38176   1.766   9.073   9.332  0.2858 -0.0591  0.5483
10738SOL    HW138177   1.861   9.065   9.336  0.5751  0.6849 -2.4422
10738SOL    HW238178   1.733   8.988   9.359  1.8685 -0.8040  0.2194
10739SOL     OW38179  11.790   0.586   7.065 -0.1077 -0.1188 -0.3431
10739SOL    HW138180  11.764   0.526   7.135 -1.6677  0.1322 -0.6847
10739SOL    HW238181  11.844   0.532   7.007 -0.2536 -0.7869  0.1213
10740SOL     OW38182   3.992   3.757   5.076 -0.3658  0.1190  0.3766
10740SOL    HW138183   3.941   3.677   5.081 -1.3531  0.6859 -0.2139
10740SOL    HW238184   4.062   3.746   5.140 -1.0545 -0.8109  0.9831
10741SOL     OW38185  10.701   7.123  10.073  0.6052  0.2214  0.0600
10741SOL    HW138186  10.710   7.029  10.089 -0.2696  0.2005  0.4875
10741SOL    HW238187  10.675   7.159  10.158 -2.0930  0.4007 -0.7329
10742SOL     OW38188   1.843   6.823  11.344  0.5516  0.2631 -0.5626
10742SOL    HW138189   1.751   6.816  11.320  0.0938  1.1410  0.8006
10742SOL    HW238190   1.885   6.750  11.299 -1.4032 -2.4071  1.5738
10743SOL     OW38191   5.441   8.814   7.216  0.4084 -0.2052  0.1019
10743SOL    HW138192   5.536   8.807   7.231  0.2593 -0.0900  1.1374
10743SOL    HW238193   5.401   8.761   7.284 -0.3144  0.8191  0.5066
10744SOL     OW38194   3.919   9.262   7.003  0.2603  0.0937 -0.6400
10744SOL    HW138195   3.829   9.247   6.975  0.6112 -0.1940 -1.6619
10744SOL    HW238196   3.928   9.357   7.010 -0.3891  0.0920  0.4246
10745SOL     OW38197  11.192  10.232   1.048 -0.4740  0.2750 -0.8483
10745SOL    HW138198  11.214  10.270   0.962  1.3261  1.4443  0.0713
10745SOL    HW238199  11.247  10.154   1.053  0.3000  0.8304 -0.3343
10746SOL     OW38200   6.837  10.889   7.984  0.3999 -0.3004 -0.3382
10746SOL    HW138201   6.845  10.807   7.936  0.0775  0.3152 -1.4787
10746SOL    HW238202   6.750  10.922   7.961 -0.0695 -0.3439  1.2693
10747SOL     OW38203   3.833   4.604  10.836  0.6434  0.0228  0.0181
10747SOL    HW138204   3.759   4.549  10.810 -0.8798  1.3946  1.2914
10747SOL    HW238205   3.903   4.542  10.857 -1.0761 -1.4772  1.6357
10748SOL     OW38206   4.234   3.662  10.333 -0.0556  0.1581  0.2367
10748SOL    HW138207   4.227   3.573  10.299 -1.1032  0.6169 -0.8073
10748SOL    HW238208   4.257   3.651  10.426  0.8997 -1.1614 -0.1288
10749SOL     OW38209   8.125  10.172   5.533  0.4573  0.0389 -0.8416
10749SOL    HW138210   8.122  10.107   5.463  1.3429  1.1213 -1.9458
10749SOL    HW238211   8.060  10.238   5.508 -1.6464 -1.1564  1.1226
10750SOL     OW38212   7.322   3.871  10.725 -0.2913 -0.1876 -0.0343
10750SOL    HW138213   7.301   3.902  10.813 -0.3580 -0.9446  0.2264
10750SOL    HW238214   7.319   3.775  10.732 -2.3958 -0.2720 -1.3663
10751SOL     OW38215   2.384   5.222   1.763 -0.1482 -0.1454  0.0806
10751SOL    HW138216   2.400   5.200   1.672  0.7176  0.1539  0.1523
10751SOL    HW238217   2.471   5.224   1.803 -0.5377 -0.6033  0.9894
10752SOL     OW38218   4.606   2.485   0.710  0.2724 -0.0511 -0.0799
10752SOL    HW138219   4.690   2.473   0.665  0.2887 -1.3617  0.2780
10752SOL    HW238220   4.625   2.550   0.778  0.5699  0.9299 -1.0605
10753SOL     OW38221  11.951  11.001   2.075 -0.5778 -0.0164 -0.0984
10753SOL    HW138222  11.913  10.967   1.994  0.0698  0.0767 -0.4437
10753SOL    HW238223  12.003  10.928   2.110 -2.2396 -0.6656  1.1624
10754SOL     OW38224   7.391  12.091   0.480 -0.1213 -0.3212 -0.0217
10754SOL    HW138225   7.367  12.105   0.389  0.3834  0.7302 -0.0114
10754SOL    HW238226   7.436  12.006   0.481  0.6956  0.0800 -0.9198
10755SOL     OW38227   7.866   2.856   6.360 -0.4325  0.6555  0.3509
10755SOL    HW138228   7.912   2.937   6.384  0.3096  0.2650  0.2585
10755SOL    HW238229   7.783   2.886   6.323 -0.2923  1.3646  0.5982
10756SOL     OW38230   2.555   8.737   2.625 -0.2384  0.9378  0.2113
10756SOL    HW138231   2.585   8.656   2.665 -0.5034  1.0568  0.6495
10756SOL    HW238232   2.475   8.712   2.578 -0.3825  0.9697  0.4401
10757SOL     OW38233   2.716   7.336   5.582  0.4536 -0.1392  0.6852
10757SOL    HW138234   2.728   7.254   5.629  1.3573  0.5172  1.6709
10757SOL    HW238235   2.740   7.403   5.646 -0.1594  0.8841 -0.1304
10758SOL     OW38236   9.929  12.096  12.119  0.5864  0.1327  0.3517
10758SOL    HW138237   9.978  12.112  12.200  0.4530 -2.1040  0.9517
10758SOL    HW238238   9.994  12.064  12.057  0.3632 -0.1336  0.2498
10759SOL     OW38239   3.021  11.264   9.426 -0.5797 -0.4511 -0.4753
10759SOL    HW138240   2.976  11.255   9.342 -3.3301 -2.1622  1.0671
10759SOL    HW238241   3.091  11.199   9.423 -0.3187 -0.1452 -1.5801
10760SOL     OW38242   0.523   4.006   0.336 -0.2209  0.2573  0.5652
10760SOL    HW138243   0.519   3.991   0.241 -0.2302  0.9564  0.4452
10760SOL    HW238244   0.578   4.084   0.345 -0.8316  0.6361  1.0834
10761SOL     OW38245   9.820   7.456   9.335 -0.0836 -0.3534 -0.9491
10761SOL    HW138246   9.759   7.422   9.400  1.3137  0.5975  0.9560
10761SOL    HW238247   9.771   7.525   9.290 -1.0878 -1.0696 -0.9813
10762SOL     OW38248   2.486   0.972   9.627 -0.1344 -1.1525 -0.0514
10762SOL    HW138249   2.541   0.932   9.560  0.3873 -1.0283  0.2873
10762SOL    HW238250   2.494   0.913   9.702 -0.6926 -1.2791 -0.0891
10763SOL     OW38251   8.665  12.481   5.485  0.2188  0.2513 -0.0727
10763SOL    HW138252   8.618  12.554   5.524  0.1007  0.4882 -0.6463
10763SOL    HW238253   8.599  12.412   5.475  0.3766 -0.0105  0.6558
10764SOL     OW38254   1.148   4.222   6.415 -0.1878 -0.7217  0.0969
10764SOL    HW138255   1.176   4.192   6.501 -0.1280 -1.5664 -0.2137
10764SOL    HW238256   1.055   4.240   6.425  0.2625  1.5489  0.9784
10765SOL     OW38257   5.200  12.057   8.115  0.2262  0.4152  0.2415
10765SOL    HW138258   5.207  12.093   8.204 -1.2841  1.3890  0.0153
10765SOL    HW238259   5.276  12.094   8.069  1.3593 -0.5758  1.2497
10766SOL     OW38260   2.335   8.307  11.510  0.0173  0.3511  0.0566
10766SOL    HW138261   2.350   8.238  11.445  0.6083 -0.7876  1.3539
10766SOL    HW238262   2.274   8.367  11.467 -0.2548 -0.7912 -1.2404
10767SOL     OW38263   0.819   0.533   8.656 -0.3265 -0.4870  0.6299
10767SOL    HW138264   0.751   0.488   8.706 -0.0677  2.2728  3.7484
10767SOL    HW238265   0.776   0.612   8.622  0.9084  0.5142  1.3281
10768SOL     OW38266   8.309   5.415   8.634 -0.3346 -0.1116 -0.0502
10768SOL    HW138267   8.272   5.327   8.625  0.0892 -0.2954  0.0020
10768SOL    HW238268   8.297   5.437   8.726 -1.8585  0.5242 -0.3623
10769SOL     OW38269  10.750   8.814   3.295 -0.1270  0.5051 -0.0183
10769SOL    HW138270  10.834   8.857   3.312  0.3421 -0.1706 -0.5385
10769SOL    HW238271  10.714   8.860   3.219 -1.3990  2.3808  1.6357
10770SOL     OW38272   8.328  10.501   6.291  0.3354 -0.2733  0.7661
10770SOL    HW138273   8.384  10.446   6.237  1.6968  2.9609 -1.4519
10770SOL    HW238274   8.242  10.498   6.248  0.7927  0.4131 -0.2376
10771SOL     OW38275   3.279   8.332  11.340  0.4578  0.4621  0.9901
10771SOL    HW138276   3.259   8.283  11.420 -1.8907 -0.2587  0.0673
10771SOL    HW238277   3.320   8.268  11.282  1.2528  0.7293  1.2430
10772SOL     OW38278   2.043   5.368  11.140  0.3442 -0.1340  0.0252
10772SOL    HW138279   2.111   5.435  11.135  2.4061 -2.1570 -1.7790
10772SOL    HW238280   2.055   5.328  11.226  0.2238  0.6987  0.4359
10773SOL     OW38281   9.682  10.092  10.626  0.4589  0.1186 -0.0638
10773SOL    HW138282   9.777  10.091  10.617  0.3322  0.7833 -1.8561
10773SOL    HW238283   9.656  10.001  10.607  0.6675  0.2073 -0.8264
10774SOL     OW38284   4.678   0.475   9.419  0.1945 -0.2357 -0.1155
10774SOL    HW138285   4.711   0.386   9.427  1.6716  0.2675 -0.2491
10774SOL    HW238286   4.697   0.500   9.329 -0.1654  0.2290 -0.0672
10775SOL     OW38287   4.851   1.610   2.367 -0.3131 -0.1926  0.0083
10775SOL    HW138288   4.829   1.688   2.317  1.0463 -0.0989 -0.4722
10775SOL    HW238289   4.798   1.617   2.447  0.6289  1.8107  0.5165
10776SOL     OW38290   5.079  11.998   2.807 -0.2049 -0.0174 -0.6069
10776SOL    HW138291   5.064  11.955   2.722 -0.1527  1.5264 -1.4349
10776SOL    HW238292   5.148  12.061   2.790  0.0658  0.0653  0.7056
10777SOL     OW38293  12.193  10.254  12.045 -0.3386 -0.0993 -0.2717
10777SOL    HW138294  12.196  10.159  12.032  0.5904 -0.2570  0.9574
10777SOL    HW238295  12.233  10.268  12.130  0.1223  1.4586 -0.7106
10778SOL     OW38296   1.283  10.330   9.036 -0.5147 -0.2214  0.5045
10778SOL    HW138297   1.262  10.415   8.997 -2.5036 -0.7883  0.2371
10778SOL    HW238298   1.228  10.268   8.990  1.2767 -1.7826  0.3510
10779SOL     OW38299   7.354   8.211   5.468  0.4210  0.2416  0.0909
10779SOL    HW138300   7.343   8.284   5.528  1.8642 -0.3583  1.1396
10779SOL    HW238301   7.368   8.251   5.382  2.9975  1.3270  0.9270
10780SOL     OW38302   1.618   0.265   2.874  0.4271  0.3820 -0.2082
10780SOL    HW138303   1.550   0.235   2.814  0.6460  0.0005 -0.2656
10780SOL    HW238304   1.678   0.191   2.882  0.4369  0.4531  0.4323
10781SOL     OW38305   8.372   5.054   7.938  0.0639 -0.6207 -0.0783
10781SOL    HW138306   8.409   4.990   7.999 -0.7088  0.1602  1.2461
10781SOL    HW238307   8.446   5.079   7.882  1.2868  0.0075  1.7229
10782SOL     OW38308  11.843   5.548   6.582 -0.1437  0.5597  0.0325
10782SOL    HW138309  11.893   5.549   6.500  0.0545 -1.0530  0.0971
10782SOL    HW238310  11.801   5.462   6.583 -1.0522  0.9888  1.1062
10783SOL     OW38311   6.720  12.105   6.836 -0.1116 -0.9746  0.0634
10783SOL    HW138312   6.754  12.020   6.809 -0.4976 -0.7114 -1.2973
10783SOL    HW238313   6.626  12.101   6.817 -0.1491 -0.2748  0.0572
10784SOL     OW38314   6.328   4.293  10.767  0.0316  0.0018 -0.2133
10784SOL    HW138315   6.278   4.353  10.821  0.3307 -0.5894  0.7511
10784SOL    HW238316   6.323   4.330  10.678 -0.4981  0.9641  0.2031
10785SOL     OW38317   7.418   7.707   4.060 -0.2364  0.2716  0.0290
10785SOL    HW138318   7.499   7.657   4.073  0.0855  0.4648 -1.1348
10785SOL    HW238319   7.350   7.641   4.049  0.1645  0.0727 -1.3780
10786SOL     OW38320   9.075   4.895   8.226 -0.4375  0.5535 -0.0722
10786SOL    HW138321   9.126   4.873   8.148 -2.0827  0.3936 -1.1490
10786SOL    HW238322   9.109   4.981   8.253  1.4283 -0.2144  0.1923
10787SOL     OW38323  12.333   4.059   3.516  0.1312 -0.0734 -0.3792
10787SOL    HW138324  12.322   3.974   3.474  0.4371 -0.2343 -0.1416
10787SOL    HW238325  12.404   4.102   3.467 -1.2040  0.7820 -1.6319
10788SOL     OW38326   2.961  11.246   8.074  0.2136  0.1516  1.0244
10788SOL    HW138327   3.055  11.257   8.057 -0.0012 -0.3644 -0.6669
10788SOL    HW238328   2.920  11.253   7.988 -1.5042  1.9914  1.9130
10789SOL     OW38329  12.209   6.131   9.696 -0.4164 -0.0697 -0.1611
10789SOL    HW138330  12.215   6.149   9.603  2.8855  0.8618  0.1068
10789SOL    HW238331  12.175   6.041   9.701  1.0831 -0.8486 -2.3606
10790SOL     OW38332   9.624   0.713  11.297  0.9202  0.5138  0.6854
10790SOL    HW138333   9.621   0.640  11.236  0.9701  0.8358  0.2974
10790SOL    HW238334   9.707   0.756  11.280  0.6531  0.9826  0.5360
10791SOL     OW38335  10.111   1.988  10.003 -0.1109  0.3925  0.0438
10791SOL    HW138336  10.176   1.955  10.066 -0.8917 -1.1802  0.0775
10791SOL    HW238337  10.155   2.062   9.961  1.4302 -0.1557  0.5874
10792SOL     OW38338  11.350   6.635   7.618  0.1087 -0.5672 -0.1064
10792SOL    HW138339  11.369   6.601   7.705  1.6697  1.4269  0.4213
10792SOL    HW238340  11.274   6.692   7.631 -0.2622 -1.0244 -0.2570
10793SOL     OW38341   2.414   6.878  11.975  0.1336  0.4129  0.0709
10793SOL    HW138342   2.451   6.794  12.002  0.2100  0.6251  0.6323
10793SOL    HW238343   2.434   6.883  11.881  1.7568  0.6305  0.4033
10794SOL     OW38344  11.776   9.006   7.003 -0.2866  0.3692 -0.6433
10794SOL    HW138345  11.803   9.088   7.044 -0.1472 -0.2159  0.4960
10794SOL    HW238346  11.856   8.970   6.965  0.4231 -0.8122  1.7497
10795SOL     OW38347   5.962   6.698  11.441 -0.1841 -0.2039  0.6802
10795SOL    HW138348   5.968   6.763  11.371  0.7195 -0.6716  0.3166
10795SOL    HW238349   5.907   6.629  11.404 -0.6058  0.0385  0.8363
10796SOL     OW38350   5.719  10.467   3.438  0.0609  0.0416  0.1767
10796SOL    HW138351   5.634  10.442   3.473 -0.6099  1.4272 -0.3855
10796SOL    HW238352   5.703  10.488   3.346  1.0642  0.0283 -0.0178
10797SOL     OW38353   8.202   7.200  11.456  0.1080 -0.5926  0.1003
10797SOL    HW138354   8.127   7.258  11.441  0.8874  0.3484 -0.3061
10797SOL    HW238355   8.178   7.150  11.534 -0.3203  0.7500  0.8646
10798SOL     OW38356   0.773  11.115   8.653  0.1987 -0.0744  0.5002
10798SOL    HW138357   0.837  11.153   8.714  0.3555 -1.8956  1.5207
10798SOL    HW238358   0.700  11.088   8.708 -0.0252 -0.9814 -0.2189
10799SOL     OW38359  10.374   8.605   2.315  0.6359  0.9925 -1.1447
10799SOL    HW138360  10.376   8.516   2.280  0.6311  0.0009  1.1872
10799SOL    HW238361  10.462   8.619   2.351  0.1767  1.2842 -0.0787
10800SOL     OW38362  10.016   3.296   3.893 -0.2685 -0.2313  0.4159
10800SOL    HW138363   9.926   3.278   3.866 -0.3853 -0.4747  0.9648
10800SOL    HW238364  10.032   3.386   3.863 -1.0517  0.2000  1.2389
10801SOL     OW38365   5.098  10.177   0.885  0.0717 -0.1799 -0.6730
10801SOL    HW138366   5.152  10.125   0.944 -0.6737 -1.1706 -0.8342
10801SOL    HW238367   5.103  10.266   0.919 -0.1632 -0.6931  0.7644
10802SOL     OW38368  10.582  10.058   3.532  0.0413  0.1250  0.4234
10802SOL    HW138369  10.585  10.096   3.445  1.0394  1.2306  0.9077
10802SOL    HW238370  10.672  10.030   3.549 -0.0987  0.1008  1.1588
10803SOL     OW38371   0.135  12.316   5.152 -0.2682  0.1166 -0.2828
10803SOL    HW138372   0.154  12.283   5.064  3.7375  0.6279  0.2035
10803SOL    HW238373   0.143  12.239   5.209  3.8955  0.7084  0.2403
10804SOL     OW38374   9.163   8.048   3.130  0.2710  0.4740  0.5418
10804SOL    HW138375   9.193   8.111   3.064  0.7128  1.5683  1.7372
10804SOL    HW238376   9.209   7.967   3.109 -1.2033  0.1265 -1.7548
10805SOL     OW38377  11.886   0.918  10.844 -0.2458 -0.0527 -0.3060
10805SOL    HW138378  11.791   0.911  10.842 -0.2021 -0.8278 -0.2014
10805SOL    HW238379  11.914   0.847  10.902  0.4250 -0.2405 -0.8392
10806SOL     OW38380   7.454   4.721   2.168  0.0637  0.0418  0.3344
10806SOL    HW138381   7.512   4.719   2.092 -0.0301 -0.1010  0.2685
10806SOL    HW238382   7.492   4.657   2.229 -1.0190 -1.3668 -0.4202
10807SOL     OW38383   8.174   3.397   6.979 -0.2166 -0.0074  0.1598
10807SOL    HW138384   8.120   3.382   6.901  0.1982  0.3519 -0.2034
10807SOL    HW238385   8.221   3.479   6.960  0.4067 -0.2799  0.4898
10808SOL     OW38386   2.129   9.215   6.396 -0.7495 -0.4005  0.0536
10808SOL    HW138387   2.037   9.229   6.374 -0.8857  0.3883  1.1035
10808SOL    HW238388   2.173   9.210   6.311 -1.3547  1.9548 -0.4496
10809SOL     OW38389  11.349  12.027   1.832 -0.2532 -0.5478 -0.3161
10809SOL    HW138390  11.294  12.105   1.835  2.4631  1.4726  2.0496
10809SOL    HW238391  11.311  11.969   1.898 -0.2254  0.3304  0.4973
10810SOL     OW38392   4.063   8.026   2.487 -0.3606 -0.0581  0.4126
10810SOL    HW138393   4.112   8.101   2.521 -0.7796  0.6281 -0.4570
10810SOL    HW238394   3.973   8.056   2.481 -0.0323  0.8180 -3.5923
10811SOL     OW38395   1.952   1.333   2.204 -0.0143 -0.3570 -0.2217
10811SOL    HW138396   1.969   1.345   2.111 -0.3756 -1.6787 -0.4730
10811SOL    HW238397   1.873   1.385   2.221  0.0546 -0.1155 -0.6380
10812SOL     OW38398   0.193   2.128  11.357 -0.3660  0.3580 -0.2548
10812SOL    HW138399   0.250   2.196  11.392  0.4469 -0.1048 -0.6459
10812SOL    HW238400   0.107   2.169  11.351  0.1056  1.3401 -0.4612
10813SOL     OW38401   4.342  12.014   9.954  0.4656  0.1406 -0.6097
10813SOL    HW138402   4.344  12.091  10.011  4.1275 -0.5338  0.4298
10813SOL    HW238403   4.385  11.945  10.005  2.4432 -0.9502 -3.4627
10814SOL     OW38404   1.936   1.385   9.982 -0.9692  0.2376 -0.1444
10814SOL    HW138405   2.030   1.381   9.996 -0.7655  1.1940 -1.1300
10814SOL    HW238406   1.907   1.294   9.987  0.1519 -0.1692 -0.8353
10815SOL     OW38407  11.626   4.021   4.099  0.4108 -0.2450 -0.0498
10815SOL    HW138408  11.551   4.074   4.075  0.8273  0.5287  0.3298
10815SOL    HW238409  11.589   3.941   4.137 -0.2131 -0.0412 -0.2272
10816SOL     OW38410   6.201  12.234  11.821 -0.0018 -0.3528  0.2239
10816SOL    HW138411   6.167  12.247  11.733  1.2843 -1.2125 -0.4276
10816SOL    HW238412   6.144  12.287  11.877 -0.7955  0.2555 -1.1193
10817SOL     OW38413   9.254  12.179   7.608  0.0570 -0.1069  0.3703
10817SOL    HW138414   9.270  12.179   7.703  0.1515 -1.1191  0.3601
10817SOL    HW238415   9.257  12.272   7.584  0.7772  0.1144  1.2373
10818SOL     OW38416   9.160   8.209   3.897  0.1090 -0.1672 -0.1923
10818SOL    HW138417   9.182   8.142   3.833  0.8970 -0.0811 -0.0217
10818SOL    HW238418   9.240   8.220   3.949 -0.7579 -0.8018  1.3205
10819SOL     OW38419  10.981  10.002   3.402  0.1066  0.3908 -0.1130
10819SOL    HW138420  11.035  10.080   3.392 -0.2059  0.4733 -1.3489
10819SOL    HW238421  11.036   9.941   3.450  1.2558  0.5230 -1.1957
10820SOL     OW38422   0.079   4.656   3.912  0.8510 -0.2292 -0.4766
10820SOL    HW138423   0.059   4.745   3.940  0.7067 -1.1759  2.8816
10820SOL    HW238424   0.163   4.663   3.866  0.9277  1.6191 -0.1065
10821SOL     OW38425   5.732   7.871  10.685 -0.1148  0.8014  0.2099
10821SOL    HW138426   5.695   7.947  10.730 -0.4962 -0.1491  1.5746
10821SOL    HW238427   5.753   7.809  10.755  0.8107 -0.0932 -0.8108
10822SOL     OW38428  12.011   2.378   4.702 -0.2388  0.4355  0.0977
10822SOL    HW138429  12.068   2.433   4.756 -0.3527  0.3321  0.3243
10822SOL    HW238430  12.054   2.293   4.700 -0.9332  0.0370  1.1845
10823SOL     OW38431   6.620   2.108   9.491  0.1532  0.4187  0.1616
10823SOL    HW138432   6.550   2.092   9.427  1.8194  0.5091 -1.7835
10823SOL    HW238433   6.620   2.203   9.503 -1.3014  0.2678  1.7268
10824SOL     OW38434   9.088   1.895  10.108 -0.0310 -0.0162  0.6038
10824SOL    HW138435   9.102   1.836  10.183  0.5463  0.4500  0.8760
10824SOL    HW238436   9.177   1.919  10.080 -0.2526  0.2622  0.1326
10825SOL     OW38437   1.373   4.480   9.378 -0.3094  0.4758  0.1118
10825SOL    HW138438   1.449   4.474   9.319 -0.5063  1.3726 -0.2561
10825SOL    HW238439   1.302   4.508   9.321 -0.2295  2.5824  0.9676
10826SOL     OW38440   6.273   6.255  12.160  0.3607 -0.1717 -0.0854
10826SOL    HW138441   6.208   6.222  12.223  2.0818 -0.2176  1.7539
10826SOL    HW238442   6.286   6.346  12.185  0.8863 -0.1075 -0.5741
10827SOL     OW38443   5.021  10.918   6.527  0.1459  0.2713 -0.4129
10827SOL    HW138444   5.100  10.941   6.577 -0.9471 -0.2579  1.6734
10827SOL    HW238445   4.959  10.988   6.545 -0.7341 -0.6142  0.1334
10828SOL     OW38446  12.329  11.628  10.138 -0.6740 -0.2654  0.6652
10828SOL    HW138447  12.284  11.712  10.128  0.3533  0.0315 -3.7930
10828SOL    HW238448  12.277  11.567  10.085 -0.1676 -1.9401  2.0114
10829SOL     OW38449   7.522   6.080   9.261 -0.4100  0.1662 -0.4072
10829SOL    HW138450   7.572   6.005   9.294  1.0411  0.3466 -2.0666
10829SOL    HW238451   7.579   6.155   9.277 -1.2961  0.7569  0.0457
10830SOL     OW38452   2.111   6.065   3.219  0.4415 -0.4728 -0.5192
10830SOL    HW138453   2.098   6.119   3.141  0.4409 -1.6655 -1.3737
10830SOL    HW238454   2.023   6.053   3.255  0.3788 -0.3458 -0.6304
10831SOL     OW38455   9.896  10.710   8.536  0.3538 -0.5053 -0.0263
10831SOL    HW138456   9.946  10.629   8.545  0.3227 -0.7334 -1.5554
10831SOL    HW238457   9.896  10.727   8.441 -0.3282  0.8424  0.1966
10832SOL     OW38458   6.477   1.386   8.584 -0.3604  0.7474  0.9714
10832SOL    HW138459   6.437   1.438   8.654  0.5238 -0.1191  2.1693
10832SOL    HW238460   6.569   1.379   8.609 -0.3257 -0.8107  0.5068
10833SOL     OW38461   4.482   9.234   1.979 -0.4715 -0.1383 -0.0018
10833SOL    HW138462   4.465   9.178   1.902 -1.1419  1.0469 -0.7445
10833SOL    HW238463   4.568   9.271   1.964 -0.9625  0.7850 -0.6505
10834SOL     OW38464   8.298   8.906   1.171  0.0936 -0.4245  0.2475
10834SOL    HW138465   8.310   8.942   1.083  0.0907 -1.7981 -0.3354
10834SOL    HW238466   8.211   8.936   1.197  0.4290  0.6924  0.1473
10835SOL     OW38467   8.066  10.821   0.671 -0.2876 -0.5407  0.3536
10835SOL    HW138468   8.121  10.768   0.729 -0.2419 -1.0735 -0.1673
10835SOL    HW238469   8.011  10.872   0.730  1.9225  1.2963  0.9720
10836SOL     OW38470   2.598   9.642   6.685  0.1101 -0.2429  0.2690
10836SOL    HW138471   2.666   9.677   6.628  0.1876  1.4583  1.3470
10836SOL    HW238472   2.520   9.639   6.631 -0.5992  4.2153  0.7235
10837SOL     OW38473   3.009   8.740   8.823  0.1530 -0.0467 -0.0118
10837SOL    HW138474   3.041   8.651   8.803  1.4852  0.0864  1.3029
10837SOL    HW238475   3.080   8.797   8.795  0.2388  0.4225  1.1015
10838SOL     OW38476   5.880   7.852   6.823  0.0550  0.2769 -0.1366
10838SOL    HW138477   5.844   7.879   6.738  0.6050 -0.1192 -0.5049
10838SOL    HW238478   5.890   7.933   6.872 -0.5446  0.4771 -0.3447
10839SOL     OW38479   1.944   7.294  12.336 -0.3142 -0.3283  0.5764
10839SOL    HW138480   1.862   7.340  12.317 -1.3650 -2.1438  0.5272
10839SOL    HW238481   2.012   7.359  12.319 -1.7251  1.1887  0.4831
10840SOL     OW38482   1.607   9.101  11.443 -0.1393 -0.5910 -0.4591
10840SOL    HW138483   1.580   9.191  11.465 -0.5570 -0.3937 -1.6679
10840SOL    HW238484   1.528   9.049  11.455 -0.2992 -0.5265 -1.2147
10841SOL     OW38485   1.766  10.050   5.672 -0.1559  0.4095  0.3659
10841SOL    HW138486   1.794   9.961   5.694 -1.1954  0.1438  0.6777
10841SOL    HW238487   1.687  10.063   5.725 -0.9073  0.9344 -0.8568
10842SOL     OW38488   4.687   0.586  10.799  0.0764 -0.8723 -0.2582
10842SOL    HW138489   4.644   0.669  10.818 -0.7350 -1.1990 -0.6459
10842SOL    HW238490   4.697   0.585  10.704 -0.6962 -1.5938 -0.3400
10843SOL     OW38491   3.516   3.953   2.819  0.0322  0.1315 -0.0836
10843SOL    HW138492   3.500   3.938   2.912 -0.0037  2.7620  0.4201
10843SOL    HW238493   3.451   3.900   2.774 -1.5505  0.6645  1.4915
10844SOL     OW38494   8.325   7.901   2.020 -0.2024 -0.1006  0.1670
10844SOL    HW138495   8.398   7.938   2.070 -1.4730 -0.5155  2.4381
10844SOL    HW238496   8.297   7.973   1.963  1.4428  0.3055 -0.1998
10845SOL     OW38497  11.818   4.493   6.850  0.3559 -0.0486 -0.2116
10845SOL    HW138498  11.863   4.511   6.933 -0.3620 -0.8745  0.3703
10845SOL    HW238499  11.825   4.575   6.801  0.6413  0.5037  0.7260
10846SOL     OW38500   7.942   3.803   7.353  0.2429 -0.3546 -0.2500
10846SOL    HW138501   7.868   3.856   7.324  0.1920 -0.1011  0.3479
10846SOL    HW238502   7.925   3.716   7.317 -1.2656 -0.7652  1.3580
10847SOL     OW38503   9.309   9.918   8.003 -0.2579 -0.1411  0.3675
10847SOL    HW138504   9.262   9.889   8.081 -1.7433 -1.6760 -0.9914
10847SOL    HW238505   9.372   9.848   7.985  0.5053  0.4914  0.4946
10848SOL     OW38506   4.180   0.551   1.115 -0.1435 -0.4287  0.3869
10848SOL    HW138507   4.225   0.593   1.188  1.8584  1.8698 -1.9615
10848SOL    HW238508   4.150   0.624   1.061 -4.9548 -1.8776  0.6057
10849SOL     OW38509   0.069  12.020  11.899  0.0282 -0.3571 -0.6652
10849SOL    HW138510   0.091  11.979  11.983 -1.1740 -1.3155 -0.7802
10849SOL    HW238511   0.008  11.959  11.858  0.4699  0.1732 -2.1817
10850SOL     OW38512   5.118   3.484   3.052  0.2282  0.5180  0.2027
10850SOL    HW138513   5.067   3.431   3.113 -2.1300  0.2139 -1.8438
10850SOL    HW238514   5.074   3.570   3.052  0.1823  0.5196 -0.9736
10851SOL     OW38515   9.485   9.312   5.555 -0.0022  0.1483  0.1112
10851SOL    HW138516   9.420   9.382   5.547  0.2053  0.2950 -0.2997
10851SOL    HW238517   9.488   9.293   5.649  0.0810  0.8206  0.2495
10852SOL     OW38518   6.232   7.916  10.481 -0.2872  0.0409  0.1098
10852SOL    HW138519   6.264   7.997  10.441 -0.6377  0.3519  0.4429
10852SOL    HW238520   6.148   7.900  10.439 -2.0262  1.8842  2.5548
10853SOL     OW38521   7.017   3.497   4.948  0.5012 -0.2067  0.0892
10853SOL    HW138522   6.933   3.495   4.903  0.5550 -1.2283  0.0160
10853SOL    HW238523   7.006   3.437   5.022  0.4466  1.3534  1.4083
10854SOL     OW38524   9.999  10.822   8.758  0.4529 -0.0587  0.2494
10854SOL    HW138525   9.996  10.793   8.667 -2.6092  2.0583 -0.4507
10854SOL    HW238526  10.084  10.865   8.766  1.2159 -1.1809 -1.2602
10855SOL     OW38527   4.446  10.406   0.879 -0.0509  0.2524  0.0414
10855SOL    HW138528   4.462  10.424   0.787  0.1468  0.8791  0.1919
10855SOL    HW238529   4.533  10.389   0.916 -0.1537 -0.2302  0.0657
10856SOL     OW38530  12.202   3.824  11.456  0.2821  0.2633  0.0516
10856SOL    HW138531  12.119   3.805  11.412  0.0752  0.3674  0.3887
10856SOL    HW238532  12.269   3.789  11.398  0.0496  0.9797 -0.6634
10857SOL     OW38533   2.033   8.904   8.005 -0.7077  0.1645  0.4355
10857SOL    HW138534   2.044   8.980   8.062 -2.3915 -0.6178  1.9178
10857SOL    HW238535   2.053   8.829   8.062  0.0669 -0.5489 -0.7419
10858SOL     OW38536   7.112   5.103  10.468 -0.0074 -0.0921  0.2083
10858SOL    HW138537   7.126   5.031  10.529  3.0175  0.4190  0.2665
10858SOL    HW238538   7.096   5.179  10.524  0.9251  0.0343  0.3087
10859SOL     OW38539   5.419  10.614   3.659 -0.5627 -0.3639 -0.0909
10859SOL    HW138540   5.363  10.544   3.694 -0.4633 -0.8732 -0.9194
10859SOL    HW238541   5.501  10.605   3.708 -0.6403 -0.6718 -0.0118
10860SOL     OW38542  10.672   2.390  11.093  0.4925  0.0884  0.0292
10860SOL    HW138543  10.728   2.468  11.102 -0.3496  0.8141 -0.8505
10860SOL    HW238544  10.660   2.380  10.999  0.3273 -0.9322  0.1496
10861SOL     OW38545  11.009   1.990   7.369 -0.2454 -0.0636 -0.1768
10861SOL    HW138546  11.051   1.971   7.285  1.1539 -0.2169  0.5213
10861SOL    HW238547  10.936   2.048   7.348 -0.2462 -0.5381 -1.5507
10862SOL     OW38548  12.107   9.798   2.434  0.1707 -0.0269 -0.0541
10862SOL    HW138549  12.192   9.841   2.428 -0.4545  1.2285 -0.1297
10862SOL    HW238550  12.060   9.847   2.502 -1.1657  0.4933 -1.3003
10863SOL     OW38551   9.612   7.340   8.603  0.6806 -0.3298  0.0026
10863SOL    HW138552   9.545   7.347   8.534 -0.6826  0.5369  1.3644
10863SOL    HW238553   9.643   7.430   8.615  0.6889 -0.4261  0.7174
10864SOL     OW38554   8.191   0.783   3.514 -0.0502  0.1731 -0.1727
10864SOL    HW138555   8.224   0.751   3.599  0.9862 -0.4171 -0.7726
10864SOL    HW238556   8.253   0.748   3.450 -1.3768 -0.2177 -1.2888
10865SOL     OW38557   4.663   5.617   6.403  0.5760 -0.2970 -0.0950
10865SOL    HW138558   4.623   5.680   6.344  0.2623 -1.7933 -1.5644
10865SOL    HW238559   4.618   5.535   6.384  1.0721 -1.0189  1.6385
10866SOL     OW38560  10.886  11.738   5.304 -0.1498  0.1205  0.1643
10866SOL    HW138561  10.899  11.671   5.371  0.3891  0.1527  0.0942
10866SOL    HW238562  10.793  11.760   5.310 -0.5359 -1.2530 -0.3884
10867SOL     OW38563   7.676   1.173   4.951 -0.0772  0.4734 -0.2114
10867SOL    HW138564   7.599   1.164   4.895 -0.1372  1.0449 -0.2333
10867SOL    HW238565   7.653   1.126   5.031 -0.5431  0.8196 -0.1324
10868SOL     OW38566   4.412   0.109   2.579 -0.8301 -0.2034  0.7182
10868SOL    HW138567   4.471   0.096   2.653  2.1564  0.7287 -1.2658
10868SOL    HW238568   4.355   0.181   2.606  1.0975  1.0495  1.6776
10869SOL     OW38569   4.707   1.443  10.670 -0.0305 -0.0559  0.0755
10869SOL    HW138570   4.680   1.430  10.762 -0.1279  0.4276  0.1186
10869SOL    HW238571   4.681   1.533  10.651  1.7204  0.4951  0.1607
10870SOL     OW38572   4.691   8.137   4.416  0.1142  0.3189  0.8718
10870SOL    HW138573   4.715   8.095   4.498 -1.3970 -0.1636  1.0865
10870SOL    HW238574   4.734   8.223   4.420  1.1516 -0.2102  1.5462
10871SOL     OW38575   2.650   7.194   9.832  0.1249  0.3438  0.4629
10871SOL    HW138576   2.641   7.102   9.808  0.0054  0.5160 -0.1695
10871SOL    HW238577   2.629   7.242   9.752  2.1593  0.8767  0.1827
10872SOL     OW38578   2.239  11.019   6.439 -0.0578  0.4417 -0.1571
10872SOL    HW138579   2.313  10.963   6.415  1.3229  1.7128  0.8632
10872SOL    HW238580   2.189  11.030   6.358 -0.3887 -2.1812 -0.3916
10873SOL     OW38581  11.019   3.081   8.871  0.2992 -0.3333  0.4949
10873SOL    HW138582  11.035   3.016   8.803 -0.3413  2.2960 -2.4137
10873SOL    HW238583  10.926   3.103   8.864  0.4662  0.8358  1.4139
10874SOL     OW38584   5.979   8.335   2.897 -0.2927  0.3289 -0.2381
10874SOL    HW138585   5.947   8.423   2.877  1.3329  1.0703  0.3130
10874SOL    HW238586   5.977   8.289   2.813 -1.6759  0.6903 -0.4334
10875SOL     OW38587   9.387   2.553   6.304 -0.7167  0.4063  0.5576
10875SOL    HW138588   9.451   2.525   6.238 -2.0959 -0.7504 -0.3775
10875SOL    HW238589   9.343   2.629   6.264 -0.0892  1.0725  1.1095
10876SOL     OW38590   1.844   5.969   2.704 -0.3138 -0.4550  0.2995
10876SOL    HW138591   1.756   5.985   2.670 -1.1142  3.0712  3.3350
10876SOL    HW238592   1.830   5.917   2.783  0.6830 -1.9272 -0.4394
10877SOL     OW38593   1.646   7.325   2.480 -0.0036 -0.2898  0.2253
10877SOL    HW138594   1.648   7.391   2.550  0.8423 -1.4737  1.3560
10877SOL    HW238595   1.656   7.376   2.399  2.3364  0.8730  1.1501
10878SOL     OW38596   2.957  10.536   1.601 -0.3384  0.4787  0.1407
10878SOL    HW138597   3.040  10.566   1.637 -0.4909  0.4131  0.5515
10878SOL    HW238598   2.967  10.546   1.506  1.1638 -2.0972 -0.0743
10879SOL     OW38599   0.980   2.250  11.353  0.4607 -0.7533  0.3153
10879SOL    HW138600   1.004   2.165  11.390  1.4891 -1.2936 -1.4921
10879SOL    HW238601   1.040   2.312  11.395 -0.9380 -0.6792  2.3871
10880SOL     OW38602  11.466   1.700   4.992 -0.1510 -0.3995  0.3534
10880SOL    HW138603  11.393   1.641   5.013  0.2060 -0.1200  2.6891
10880SOL    HW238604  11.506   1.720   5.077  0.2394  2.5773 -0.3933
10881SOL     OW38605  12.288   5.238   3.913  0.0725 -0.0329  0.1093
10881SOL    HW138606  12.310   5.216   4.003 -0.4171  0.6574  0.4133
10881SOL    HW238607  12.366   5.283   3.879 -0.0705  0.5121  0.4872
10882SOL     OW38608   6.782   1.983  10.721 -0.0826 -0.0652  0.3075
10882SOL    HW138609   6.737   2.060  10.686 -0.0653 -0.5836 -0.9204
10882SOL    HW238610   6.874   2.008  10.723 -0.2775  0.6240  1.8090
10883SOL     OW38611   9.156   3.236   9.120 -0.5937  0.2133  0.1794
10883SOL    HW138612   9.062   3.251   9.107 -0.5264  0.3999 -0.1112
10883SOL    HW238613   9.177   3.286   9.199 -0.7840 -0.0087  0.3691
10884SOL     OW38614   5.499  10.445   1.383 -0.3776  0.1074 -0.4583
10884SOL    HW138615   5.490  10.431   1.289 -1.5052 -0.0613 -0.3398
10884SOL    HW238616   5.460  10.367   1.423 -1.2729  0.8550  0.1576
10885SOL     OW38617   1.428   8.646   7.145  0.2728 -0.4836  0.3090
10885SOL    HW138618   1.450   8.556   7.169 -1.4599 -0.5971  1.7357
10885SOL    HW238619   1.497   8.700   7.185 -0.0953 -1.0284  1.7619
10886SOL     OW38620   4.788   3.298   1.193  0.0820  0.0552 -0.3621
10886SOL    HW138621   4.706   3.311   1.145  0.5912  0.0126 -1.2688
10886SOL    HW238622   4.836   3.234   1.141  0.5150 -0.2384  0.3919
10887SOL     OW38623   3.068   5.066   1.276  0.0868 -0.3549  0.2073
10887SOL    HW138624   3.065   4.998   1.343 -2.1148  0.4208  0.9759
10887SOL    HW238625   3.079   5.018   1.194 -0.2628 -1.5510  0.8370
10888SOL     OW38626   2.387   6.571  11.584  0.6775  0.6694 -0.6893
10888SOL    HW138627   2.471   6.548  11.544  0.5284 -0.0050 -0.6264
10888SOL    HW238628   2.335   6.608  11.513  0.5789 -0.0924 -1.0227
10889SOL     OW38629   5.043   7.947  10.739 -0.4235 -0.3356  0.0658
10889SOL    HW138630   5.134   7.933  10.715  0.0002  1.7224  0.2707
10889SOL    HW238631   4.994   7.886  10.684  0.8811  0.6263 -2.3570
10890SOL     OW38632  11.609   4.258  10.231  0.1232  0.3307 -0.6849
10890SOL    HW138633  11.599   4.180  10.177 -0.1157 -0.0163 -0.1476
10890SOL    HW238634  11.588   4.330  10.173  0.1244 -0.0232 -1.1257
10891SOL     OW38635   8.882  11.347   5.489  0.5481  0.0186 -0.2817
10891SOL    HW138636   8.902  11.257   5.516  1.8842  0.2547 -0.4181
10891SOL    HW238637   8.961  11.397   5.511  0.1953  0.9672 -1.1059
10892SOL     OW38638   3.654   3.127   4.276  0.0358  0.2424  0.7285
10892SOL    HW138639   3.620   3.130   4.187  2.1620 -0.6171 -0.1927
10892SOL    HW238640   3.677   3.218   4.296 -0.1758  0.3998  0.2715
10893SOL     OW38641   0.567   4.834  11.744 -0.4769 -0.3533  0.0034
10893SOL    HW138642   0.626   4.872  11.809  0.4932 -2.3571  0.3931
10893SOL    HW238643   0.480   4.867  11.768  0.2182  1.0852  0.6370
10894SOL     OW38644  10.081  10.632   0.004  0.6700 -0.3475  0.0685
10894SOL    HW138645  10.005  10.577   0.024  0.8737 -0.5415  0.3333
10894SOL    HW238646  10.082  10.697   0.074  2.8836 -2.5850  2.3323
10895SOL     OW38647   7.529   4.062   8.331  0.1465 -0.6689 -0.3290
10895SOL    HW138648   7.484   4.046   8.414  1.4132  2.6545  1.1806
10895SOL    HW238649   7.462   4.049   8.264 -2.0689  0.4940  1.5219
10896SOL     OW38650   7.232   2.475   5.815  0.7954  0.3737 -0.1264
10896SOL    HW138651   7.230   2.388   5.775  0.7402  1.4268 -2.6047
10896SOL    HW238652   7.325   2.494   5.828  0.9696  0.7842 -1.7138
10897SOL     OW38653   2.725   2.745   2.612  0.3091 -0.2185 -0.2461
10897SOL    HW138654   2.666   2.706   2.677 -0.2413 -0.1601 -0.6989
10897SOL    HW238655   2.757   2.671   2.561  0.4805 -0.2315 -0.1196
10898SOL     OW38656   0.486   6.249  10.872 -0.2341  0.3155  0.4622
10898SOL    HW138657   0.409   6.241  10.816 -0.1746  1.4795  0.1752
10898SOL    HW238658   0.560   6.251  10.811  0.1982 -2.2906  0.8011
10899SOL     OW38659   5.545   7.772  11.083 -0.0499 -0.0898  0.4599
10899SOL    HW138660   5.606   7.792  11.154  1.2899 -1.4634 -0.2473
10899SOL    HW238661   5.487   7.705  11.119 -1.0618  1.0593  1.0598
10900SOL     OW38662   5.374   2.630   7.705  0.1369  0.0101 -0.4054
10900SOL    HW138663   5.451   2.652   7.653 -0.9029 -0.2948 -2.1556
10900SOL    HW238664   5.371   2.534   7.705  1.7075 -0.1582  2.7306
10901SOL     OW38665  11.012   9.480   5.385  0.6649  0.0208  0.0273
10901SOL    HW138666  11.026   9.497   5.478  0.9285 -0.5361  0.0973
10901SOL    HW238667  11.097   9.449   5.354  0.3736 -0.5345 -0.2220
10902SOL     OW38668  10.144  11.977   4.068 -0.5488 -0.1766 -0.2121
10902SOL    HW138669  10.219  11.968   4.009 -0.2472 -1.5491  0.3480
10902SOL    HW238670  10.122  12.071   4.064  0.0660 -0.0589 -1.7302
10903SOL     OW38671   2.448  10.600   1.614 -0.1805 -0.6680  0.2617
10903SOL    HW138672   2.431  10.652   1.693  2.0542  2.7942 -1.3086
10903SOL    HW238673   2.512  10.535   1.642 -0.7421 -0.6701  1.6441
10904SOL     OW38674  10.676   9.276   4.238  0.0317 -0.0295  0.0386
10904SOL    HW138675  10.587   9.301   4.215 -0.1475  0.4376  1.1786
10904SOL    HW238676  10.732   9.334   4.187 -0.2489 -1.4665 -2.0079
10905SOL     OW38677   0.716   5.049   3.163  0.5929  0.0453 -0.2035
10905SOL    HW138678   0.717   5.013   3.075  1.0885  0.4093 -0.3505
10905SOL    HW238679   0.641   5.007   3.205 -1.0137  1.5144 -1.4653
10906SOL     OW38680   0.653   3.652  10.324  0.3747 -0.5022  0.0293
10906SOL    HW138681   0.603   3.716  10.374 -1.7349 -0.7747 -1.6152
10906SOL    HW238682   0.740   3.691  10.316  0.0105  0.7273  1.6149
10907SOL     OW38683   1.334   3.575   7.065  0.1693  0.0086 -0.0455
10907SOL    HW138684   1.297   3.522   7.136  0.9388 -0.3305  0.1076
10907SOL    HW238685   1.341   3.663   7.102  0.1176 -0.0651  0.1392
10908SOL     OW38686   3.358   2.067  11.484 -0.5058 -0.2063  0.3143
10908SOL    HW138687   3.412   2.035  11.412 -0.8811  0.0585 -0.0954
10908SOL    HW238688   3.391   2.022  11.561 -0.3779 -0.8252 -0.0934
10909SOL     OW38689   3.305   1.286  10.540  0.2267  0.3895 -0.1714
10909SOL    HW138690   3.401   1.297  10.537  0.2984 -0.1361  0.1035
10909SOL    HW238691   3.280   1.275  10.448  0.7595 -2.0434 -0.1039
10910SOL     OW38692  11.918   5.595  11.359 -0.5921  0.1805 -0.7971
10910SOL    HW138693  11.896   5.585  11.452 -1.5965 -0.4055 -1.0808
10910SOL    HW238694  11.906   5.508  11.322  1.8531 -0.1092 -1.1077
10911SOL     OW38695   8.057   1.673   3.103 -0.0004  0.5700 -0.0763
10911SOL    HW138696   8.091   1.602   3.047 -2.8256  1.6263 -3.5184
10911SOL    HW238697   8.133   1.700   3.155  2.5742 -1.5032 -2.3857
10912SOL     OW38698   5.108   0.634   5.616 -0.1367 -0.6749  0.1811
10912SOL    HW138699   5.053   0.572   5.566  0.2140 -2.6327  2.0833
10912SOL    HW238700   5.163   0.578   5.670  2.2918  1.2988 -0.1070
10913SOL     OW38701   0.597   7.902   9.409  0.1039 -0.4235 -0.3258
10913SOL    HW138702   0.539   7.829   9.429  0.3432 -0.4359  0.3479
10913SOL    HW238703   0.540   7.967   9.367 -1.4168  1.2020  3.6597
10914SOL     OW38704   6.936   7.666   8.058  0.1750  0.6183  0.6480
10914SOL    HW138705   6.950   7.652   8.151  0.6784  0.1897  0.5156
10914SOL    HW238706   6.976   7.589   8.016  0.2904  0.9917  0.0602
10915SOL     OW38707   5.212   1.007   0.849 -0.1634  0.1949 -0.2111
10915SOL    HW138708   5.215   1.084   0.791 -0.0699  1.1413  1.0082
10915SOL    HW238709   5.283   0.951   0.819 -0.2381  0.5774 -1.1315
10916SOL     OW38710   4.104   1.279   3.429 -0.0964 -0.6055 -0.1812
10916SOL    HW138711   4.126   1.249   3.517 -0.9371 -0.1900  0.1762
10916SOL    HW238712   4.058   1.362   3.442 -0.5544 -0.7229 -0.9848
10917SOL     OW38713   1.312   4.764   3.468 -0.0519  0.1053  0.1037
10917SOL    HW138714   1.261   4.702   3.415  1.4233 -1.1383  0.0852
10917SOL    HW238715   1.285   4.746   3.558  0.5533 -0.7888  0.1249
10918SOL     OW38716   4.832  10.938   7.829  1.0900  0.3391  0.2376
10918SOL    HW138717   4.926  10.923   7.834  0.8255 -1.2856  1.1014
10918SOL    HW238718   4.799  10.920   7.917 -0.2501 -1.0996 -0.4860
10919SOL     OW38719   8.837   7.790   0.913  0.0640  0.0238  0.1778
10919SOL    HW138720   8.902   7.837   0.964  0.3929 -0.7025  0.4440
10919SOL    HW238721   8.753   7.822   0.946  0.2690 -0.3952  1.1499
10920SOL     OW38722   9.640   1.915  11.240  0.0319  0.2318  0.0915
10920SOL    HW138723   9.730   1.917  11.207 -0.1950 -0.5477 -0.6205
10920SOL    HW238724   9.642   1.849  11.309  0.4025  1.5350  1.3620
10921SOL     OW38725  11.545   0.753   2.569  0.4426 -0.0543 -0.3585
10921SOL    HW138726  11.578   0.668   2.598 -2.2016 -0.5327  1.6445
10921SOL    HW238727  11.615   0.815   2.593  2.3343 -1.5264 -1.6890
10922SOL     OW38728   0.410   4.435  11.627  0.5680 -0.0322  0.2193
10922SOL    HW138729   0.442   4.462  11.541 -0.3025  0.9055  0.1729
10922SOL    HW238730   0.463   4.484  11.689 -0.3459  1.0978  0.1504
10923SOL     OW38731   9.009   7.470  11.364 -0.0969 -0.1161 -0.4552
10923SOL    HW138732   9.096   7.467  11.404  0.1289 -0.1448 -0.9466
10923SOL    HW238733   9.020   7.427  11.280 -0.5937 -0.1305 -0.5134
10924SOL     OW38734   2.022   0.585   2.076  0.0005  0.6000 -0.4856
10924SOL    HW138735   2.078   0.551   2.006 -0.4103  1.1086 -1.0692
10924SOL    HW238736   2.078   0.647   2.124  0.2598  0.3067 -0.4099
10925SOL     OW38737   8.836   6.983   3.986 -0.4222  0.2358  0.0944
10925SOL    HW138738   8.890   6.954   4.059 -0.7478  0.3668  0.3905
10925SOL    HW238739   8.795   6.903   3.954  0.9682 -0.0816 -0.9946
10926SOL     OW38740   6.990   4.580   9.762 -0.1149  0.0483  0.1821
10926SOL    HW138741   6.973   4.524   9.838  0.6160 -0.9221 -0.3526
10926SOL    HW238742   6.973   4.525   9.686 -2.1063  1.3864 -0.4304
10927SOL     OW38743   9.154   9.521   2.534  0.1229  0.4218  0.1298
10927SOL    HW138744   9.178   9.452   2.472 -0.2442  1.0853 -0.7779
10927SOL    HW238745   9.206   9.502   2.612  0.9871 -0.1405 -0.5635
10928SOL     OW38746   0.409   2.816   0.998 -0.3028  0.4092 -0.0018
10928SOL    HW138747   0.365   2.863   0.927  1.0264 -1.2877 -2.1217
10928SOL    HW238748   0.458   2.882   1.045 -0.6320  1.5241 -1.1702
10929SOL     OW38749  10.624   7.377  11.497  0.0119 -0.5997 -0.9030
10929SOL    HW138750  10.564   7.311  11.532 -0.8018  0.6652  0.1150
10929SOL    HW238751  10.691   7.386  11.564 -1.1233  1.2457  0.0601
10930SOL     OW38752  12.397   3.509   7.342  0.2741  0.2560 -0.6239
10930SOL    HW138753  12.459   3.451   7.296 -0.5302 -3.0223  1.9790
10930SOL    HW238754  12.311   3.480   7.313 -0.1983  2.3684 -1.5345
10931SOL     OW38755  10.124   9.146   5.007  0.1213 -0.0831 -0.4779
10931SOL    HW138756  10.088   9.235   5.007  0.6201  0.1224 -0.9466
10931SOL    HW238757  10.192   9.148   4.940 -0.3645 -1.0321 -1.0183
10932SOL     OW38758   1.457   9.122   8.326 -0.5553 -0.2030 -0.3774
10932SOL    HW138759   1.540   9.094   8.365  0.5160  2.1978 -0.7399
10932SOL    HW238760   1.481   9.191   8.265 -2.9131  1.1876  0.1390
10933SOL     OW38761  10.870  10.928   7.591 -0.6776  0.4607 -0.7479
10933SOL    HW138762  10.811  10.853   7.578 -0.8350  0.7513 -1.7965
10933SOL    HW238763  10.928  10.926   7.514 -0.0310  0.8238 -0.2738
10934SOL     OW38764   2.020   8.686   2.074  0.3981 -0.0107  0.3864
10934SOL    HW138765   1.970   8.739   2.137 -0.5732  1.9569 -1.8652
10934SOL    HW238766   1.964   8.612   2.054  0.6529 -0.5761  1.6514
10935SOL     OW38767   9.771  10.584   9.226  0.3188  0.1828  0.2460
10935SOL    HW138768   9.694  10.617   9.179  1.1862  1.8695 -0.0628
10935SOL    HW238769   9.742  10.500   9.263 -1.2051  0.0813 -1.0652
10936SOL     OW38770   3.854  12.143   5.262 -0.8787  0.1463 -0.6768
10936SOL    HW138771   3.916  12.208   5.231 -0.3598 -0.5069 -1.0281
10936SOL    HW238772   3.861  12.147   5.357 -1.7483  1.4518 -0.6413
10937SOL     OW38773   0.556   9.221   3.589 -0.0448 -0.1958 -0.4669
10937SOL    HW138774   0.624   9.153   3.585 -0.2418 -0.3935 -0.5049
10937SOL    HW238775   0.481   9.177   3.627  0.4529  0.5450  1.4553
10938SOL     OW38776   2.123  10.385   2.919  0.6879  0.4730 -0.3393
10938SOL    HW138777   2.035  10.382   2.957 -0.2351  0.9034 -2.3445
10938SOL    HW238778   2.123  10.317   2.852  1.1342  1.8728 -1.8098
10939SOL     OW38779   9.643   8.706   7.138  0.0464  0.3698 -0.1436
10939SOL    HW138780   9.660   8.615   7.117 -2.0231 -0.7923  2.5401
10939SOL    HW238781   9.691   8.722   7.219 -1.2630  0.9949  0.5382
10940SOL     OW38782   3.930   2.225   8.084 -0.5067  0.5279 -0.2494
10940SOL    HW138783   3.928   2.257   8.174  0.4739  0.2279 -0.1023
10940SOL    HW238784   3.919   2.130   8.092  0.3396  0.4088 -0.3701
10941SOL     OW38785  10.258   1.216   6.854  0.0747  0.0513 -0.3796
10941SOL    HW138786  10.340   1.180   6.822 -0.1762 -1.8553  0.9447
10941SOL    HW238787  10.212   1.141   6.892 -0.8131  1.6281  1.8931
10942SOL     OW38788   8.529   7.081   2.277 -0.7063 -0.2566 -0.6961
10942SOL    HW138789   8.508   7.034   2.196 -0.1933 -0.5806 -0.6471
10942SOL    HW238790   8.567   7.014   2.334 -0.1633  0.1721 -0.5467
10943SOL     OW38791   2.217   6.809   3.187 -0.3850  0.5935 -0.8683
10943SOL    HW138792   2.220   6.739   3.252 -1.4013  1.2579 -0.0707
10943SOL    HW238793   2.211   6.763   3.103 -0.0000 -0.2733 -0.4332
10944SOL     OW38794   7.380   0.045   7.419  0.2425  0.4713  0.0314
10944SOL    HW138795   7.435   0.118   7.390  1.7381 -0.0596  1.3742
10944SOL    HW238796   7.307   0.086   7.464 -0.3336  1.1868 -1.4957
10945SOL     OW38797  11.585   9.040   2.320  0.0092  0.3474 -0.4748
10945SOL    HW138798  11.615   9.126   2.289  0.6342 -0.1897 -1.4236
10945SOL    HW238799  11.579   8.987   2.241  0.7121 -0.7977  0.2112
10946SOL     OW38800   0.197   9.907   1.696  0.3932 -0.0632 -0.0266
10946SOL    HW138801   0.140   9.878   1.625 -0.7725  1.2889  0.3183
10946SOL    HW238802   0.278   9.934   1.652 -0.7073  1.8199 -1.0205
10947SOL     OW38803   2.642   1.903   0.568  0.4778  0.0312 -0.0062
10947SOL    HW138804   2.577   1.912   0.638  0.1652  0.3627 -0.3361
10947SOL    HW238805   2.726   1.900   0.614  0.1990 -0.9865  0.4609
10948SOL     OW38806  10.940  10.300   0.916  0.1088 -0.2244 -0.1974
10948SOL    HW138807  10.946  10.388   0.878  1.0575 -0.4844 -0.6649
10948SOL    HW238808  11.030  10.276   0.936 -0.3352 -0.0456  2.3911
10949SOL     OW38809  10.703   5.649  12.414 -0.0440 -0.3239 -0.4590
10949SOL    HW138810  10.714   5.668  12.320 -0.1095 -1.9145 -0.8151
10949SOL    HW238811  10.787   5.675  12.453 -0.5535  1.8301 -0.6558
10950SOL     OW38812  12.299   1.959   6.848 -0.6273  0.2603  0.0350
10950SOL    HW138813  12.209   1.937   6.822 -1.1519 -0.9231  2.6118
10950SOL    HW238814  12.296   1.965   6.943  1.9030  0.9133  0.1326
10951SOL     OW38815   7.562   8.624   4.334  0.5359  0.0747 -0.4416
10951SOL    HW138816   7.626   8.695   4.325  1.4983 -0.9637 -2.2627
10951SOL    HW238817   7.614   8.544   4.327 -0.6363 -0.8439  0.7903
10952SOL     OW38818   1.510   4.836   0.288 -0.1170 -0.0058  0.3973
10952SOL    HW138819   1.450   4.834   0.213 -2.8273 -0.4783  2.4261
10952SOL    HW238820   1.503   4.748   0.326  0.0015  0.6510  2.0276
10953SOL     OW38821   1.578   3.183   3.764 -0.5244  0.3908 -0.1119
10953SOL    HW138822   1.663   3.139   3.767 -0.7950 -0.1022  0.6267
10953SOL    HW238823   1.546   3.180   3.855 -2.1439 -1.0942 -0.6582
10954SOL     OW38824   6.842  10.491   3.537 -0.3720  0.1169 -0.8403
10954SOL    HW138825   6.937  10.498   3.541 -0.5073  3.0192 -0.2706
10954SOL    HW238826   6.817  10.454   3.622  0.1234  3.3208  0.8575
10955SOL     OW38827   8.060   3.648   7.955 -0.2575  0.0821 -0.1835
10955SOL    HW138828   8.119   3.612   8.021 -0.9492  0.7325  0.8253
10955SOL    HW238829   7.974   3.611   7.978 -0.7787  1.5010  0.2218
10956SOL     OW38830   6.445   1.221  11.650 -0.4668  0.6022  0.5692
10956SOL    HW138831   6.508   1.155  11.620 -2.0792 -1.5962  1.6914
10956SOL    HW238832   6.465   1.232  11.742 -1.0528  0.6572  0.6908
10957SOL     OW38833  10.511   9.670  11.458  0.0907  0.1752 -0.2929
10957SOL    HW138834  10.518   9.695  11.366 -0.9676  0.0589 -0.4128
10957SOL    HW238835  10.475   9.581  11.457 -0.4183  0.3695  0.2421
10958SOL     OW38836   3.255   3.653   0.904 -0.6775 -0.0244 -0.3625
10958SOL    HW138837   3.248   3.573   0.852 -0.7217 -0.2272 -0.0426
10958SOL    HW238838   3.171   3.697   0.891 -0.0578  0.7971 -1.8800
10959SOL     OW38839   9.734   8.605  10.251  0.5553 -0.1458 -0.2717
10959SOL    HW138840   9.795   8.536  10.274  0.8088  0.0762 -0.2717
10959SOL    HW238841   9.670   8.563  10.194 -1.5738 -1.3724  2.7742
10960SOL     OW38842   7.776   9.556   2.972  0.1109 -0.1607 -0.5117
10960SOL    HW138843   7.830   9.560   3.051 -0.3305 -2.0056 -0.0580
10960SOL    HW238844   7.715   9.629   2.981 -0.4340 -0.7887  1.2786
10961SOL     OW38845   6.363   6.923   6.811 -0.0261  0.4531  0.0274
10961SOL    HW138846   6.332   6.920   6.901 -1.4562 -1.2241 -0.4721
10961SOL    HW238847   6.458   6.917   6.818 -0.2291 -2.3390  1.3763
10962SOL     OW38848   9.381  10.638   2.538  0.4864  0.1284 -0.1277
10962SOL    HW138849   9.349  10.624   2.448  0.5638  0.1942 -0.1659
10962SOL    HW238850   9.337  10.571   2.590  0.7475 -0.1668 -0.2844
10963SOL     OW38851   7.025   0.320   4.878  0.4564  0.4069 -0.2264
10963SOL    HW138852   7.097   0.376   4.851  0.3459  0.0078 -1.4157
10963SOL    HW238853   7.035   0.241   4.825  0.2366 -0.4461  0.9508
10964SOL     OW38854   9.108   8.914   9.421  0.3228 -0.0659 -0.6728
10964SOL    HW138855   9.018   8.892   9.443  0.3941  0.2093 -0.0793
10964SOL    HW238856   9.159   8.839   9.451  0.6500  1.0756  2.0016
10965SOL     OW38857   0.184   1.166   7.523  0.0969 -0.0461  0.2321
10965SOL    HW138858   0.242   1.153   7.598 -2.4125 -0.3408  2.2744
10965SOL    HW238859   0.184   1.082   7.478  0.4991 -0.3475  0.7776
10966SOL     OW38860   9.820   6.294   4.441  0.2707  0.0328 -0.1641
10966SOL    HW138861   9.821   6.266   4.533  3.2682 -0.7387 -0.3377
10966SOL    HW238862   9.902   6.342   4.429  0.8876 -1.5083 -2.8668
10967SOL     OW38863   3.046   6.406   1.718 -0.4479 -0.3616  0.2826
10967SOL    HW138864   3.019   6.497   1.735  1.4764  0.6868 -1.7211
10967SOL    HW238865   3.073   6.372   1.803 -3.6713 -0.0356  1.5750
10968SOL     OW38866   1.514  12.411   9.920  0.4640 -0.0980  0.3796
10968SOL    HW138867   1.590  12.371   9.878 -1.3730 -1.1611 -2.1918
10968SOL    HW238868   1.440  12.390   9.862 -1.3685  3.2863  1.2170
10969SOL     OW38869   2.947   1.638   3.700  0.2896 -0.2178  0.2083
10969SOL    HW138870   3.008   1.709   3.722  0.9742 -0.5478 -0.5829
10969SOL    HW238871   2.908   1.613   3.784  1.8813 -0.5839  0.8701
10970SOL     OW38872  10.488  10.390   5.044  0.0860  0.1275  0.1331
10970SOL    HW138873  10.527  10.304   5.028 -1.6761 -0.8507  0.7857
10970SOL    HW238874  10.403  10.386   5.000  0.7230  2.2705 -1.4540
10971SOL     OW38875   3.009  10.487   9.909 -0.0936  0.6136 -0.0287
10971SOL    HW138876   3.005  10.393   9.921  0.0770  0.5771 -0.2619
10971SOL    HW238877   3.068  10.500   9.834  0.8475  0.9590  0.7542
10972SOL     OW38878   3.764   1.809   1.506  0.2294  0.3953  0.3647
10972SOL    HW138879   3.673   1.830   1.486 -0.2422  0.0660  2.0116
10972SOL    HW238880   3.767   1.802   1.602  2.0031  0.4670  0.3510
10973SOL     OW38881   2.208   5.537   9.811  0.3933 -0.6353 -0.1430
10973SOL    HW138882   2.253   5.621   9.819 -0.4778 -0.2997  1.5510
10973SOL    HW238883   2.115   5.557   9.825  0.2664 -1.9791  1.1838
10974SOL     OW38884   0.233   2.417  11.222  0.0792 -0.9731 -0.4864
10974SOL    HW138885   0.279   2.389  11.301 -3.0538 -1.5110  1.3054
10974SOL    HW238886   0.243   2.512  11.222 -0.4724 -0.8842  1.0040
10975SOL     OW38887   0.602   9.426   5.035  0.2195  0.0351 -0.3261
10975SOL    HW138888   0.680   9.396   5.081 -0.0833  0.7118  0.6552
10975SOL    HW238889   0.600   9.520   5.050 -0.2105  0.1864 -1.2533
10976SOL     OW38890  11.913   3.653  10.834 -0.7685 -0.4176 -0.5065
10976SOL    HW138891  12.006   3.673  10.821 -0.5390 -1.2616 -0.2353
10976SOL    HW238892  11.883   3.623  10.749 -1.6997  3.0906 -1.5799
10977SOL     OW38893   1.602   2.135   5.843 -0.1377 -0.6713  0.0276
10977SOL    HW138894   1.574   2.168   5.757  1.1207  0.5722  0.0635
10977SOL    HW238895   1.561   2.194   5.906  0.0952 -0.7057  0.2134
10978SOL     OW38896   9.810   4.748   4.475 -0.0099 -0.1189 -0.4875
10978SOL    HW138897   9.746   4.685   4.510  0.6217 -1.6402 -1.9272
10978SOL    HW238898   9.768   4.784   4.397  0.7118 -0.9055 -1.2729
10979SOL     OW38899   0.548   5.918   9.023  0.1044 -0.3517  0.9210
10979SOL    HW138900   0.622   5.901   9.081 -0.2732 -1.4132  1.1189
10979SOL    HW238901   0.471   5.891   9.074 -0.1610 -2.3885 -0.4453
10980SOL     OW38902   9.816  11.829   6.302  0.0550  0.2748 -0.2073
10980SOL    HW138903   9.865  11.902   6.265  2.8430 -0.9621  0.7154
10980SOL    HW238904   9.816  11.845   6.396 -1.2566  0.1585 -0.1702
10981SOL     OW38905  12.470  11.495   6.551 -0.3039  0.5014 -0.3183
10981SOL    HW138906  12.427  11.572   6.588 -1.9136 -0.2733 -0.5059
10981SOL    HW238907  12.405  11.425   6.557  0.3181 -0.3083 -2.1842
10982SOL     OW38908   6.227   1.526   1.710  0.5824 -0.3875 -0.4146
10982SOL    HW138909   6.313   1.507   1.672  0.7331  0.6011 -0.5966
10982SOL    HW238910   6.236   1.613   1.748  0.1717 -1.0038  1.1498
10983SOL     OW38911   5.900   6.987  11.618  0.1345  0.1383  0.0215
10983SOL    HW138912   5.931   6.897  11.607 -1.0106 -0.6116  2.2467
10983SOL    HW238913   5.980   7.039  11.621  0.7951 -0.5224 -2.7141
10984SOL     OW38914   6.572   2.443   2.231 -0.5989  0.1633 -0.3650
10984SOL    HW138915   6.522   2.479   2.304  0.0593  0.8513 -0.2409
10984SOL    HW238916   6.582   2.516   2.170  0.6482  0.1853 -0.1724
10985SOL     OW38917   2.814   4.930  12.221 -0.2097 -0.2859 -0.3057
10985SOL    HW138918   2.807   5.019  12.256 -0.1441 -0.0361 -0.9027
10985SOL    HW238919   2.801   4.941  12.127  1.4347 -0.6821 -0.6077
10986SOL     OW38920   0.848   0.338   0.587  0.2170 -0.4730  0.1834
10986SOL    HW138921   0.845   0.261   0.644 -0.4777 -0.8671 -0.3669
10986SOL    HW238922   0.756   0.362   0.573  0.2688 -1.2802 -1.9304
10987SOL     OW38923   1.718   3.432  10.751 -0.3786  0.8970 -0.2641
10987SOL    HW138924   1.797   3.474  10.715  2.1626 -0.0482  3.6180
10987SOL    HW238925   1.725   3.340  10.725 -0.3443  0.8548 -0.1033
10988SOL     OW38926   4.854   2.976   3.777  0.0620  0.4014 -0.5113
10988SOL    HW138927   4.928   3.037   3.779  0.3865  0.0122  0.8448
10988SOL    HW238928   4.813   2.989   3.692  0.0048  2.6305 -0.1850
10989SOL     OW38929  10.745   0.814   3.423 -0.3186  0.8375  0.2107
10989SOL    HW138930  10.823   0.759   3.414 -0.6707  0.1478  1.1562
10989SOL    HW238931  10.701   0.808   3.338 -1.0329 -1.4439  0.6767
10990SOL     OW38932   3.495   0.888  11.303  0.1872 -0.2330  0.3434
10990SOL    HW138933   3.508   0.877  11.397 -2.3875 -1.2939  0.6396
10990SOL    HW238934   3.406   0.857  11.287  0.8354 -0.8549 -2.5910
10991SOL     OW38935  10.379   5.503   3.343  0.1699 -0.3177  0.1520
10991SOL    HW138936  10.320   5.534   3.413 -0.1127  1.9221 -0.9811
10991SOL    HW238937  10.321   5.464   3.279 -0.1295  1.5369 -0.7812
10992SOL     OW38938   0.308   1.951   1.981  0.1782 -0.5344  0.0580
10992SOL    HW138939   0.355   1.934   2.063  1.2341  0.5660 -0.2969
10992SOL    HW238940   0.247   2.022   2.004  0.3465 -0.3505 -0.0657
10993SOL     OW38941   6.924   8.574  10.180 -0.0760 -0.4350 -0.0587
10993SOL    HW138942   6.949   8.498  10.233 -1.7274 -0.8154  0.2400
10993SOL    HW238943   6.853   8.542  10.124 -0.2289  0.6803 -0.5366
10994SOL     OW38944   1.047  11.367   1.627 -0.1323  0.3626  0.3603
10994SOL    HW138945   1.124  11.379   1.683  0.8454  0.8417 -1.0520
10994SOL    HW238946   1.041  11.272   1.615  0.4246  0.3406  0.2316
10995SOL     OW38947   6.240   7.941   3.103 -0.1951  0.3149  0.6426
10995SOL    HW138948   6.173   7.934   3.035 -1.1294  2.1663  1.2780
10995SOL    HW238949   6.295   8.014   3.075  0.6941 -0.2511  0.8653
10996SOL     OW38950   2.471  11.435   0.205  0.1184  0.6279 -0.1437
10996SOL    HW138951   2.454  11.391   0.121 -0.1230 -3.0528  1.6123
10996SOL    HW238952   2.386  11.469   0.232 -0.3696 -0.4812 -0.2346
10997SOL     OW38953   7.260   6.665   7.603  0.3784 -0.3146 -0.2506
10997SOL    HW138954   7.221   6.589   7.560  1.3181  0.1451 -1.9837
10997SOL    HW238955   7.354   6.652   7.593  0.6569 -0.1810  1.7250
10998SOL     OW38956   1.470   9.581   3.112 -0.1013 -0.0766 -0.3173
10998SOL    HW138957   1.490   9.651   3.173 -1.2422 -0.1772  0.2092
10998SOL    HW238958   1.493   9.501   3.158  0.8462 -0.0824 -0.7742
10999SOL     OW38959   5.321  10.926   0.146  0.4978  0.3396 -0.2869
10999SOL    HW138960   5.249  10.967   0.195  1.2608 -0.0654  1.2332
10999SOL    HW238961   5.277  10.870   0.082 -0.5407  0.9400 -0.1256
11000SOL     OW38962  10.083   5.785  10.334  0.4481 -0.3601 -0.2789
11000SOL    HW138963  10.094   5.718  10.402  0.1241  1.2188  1.3986
11000SOL    HW238964  10.122   5.864  10.371 -3.0513  1.5434 -0.2716
11001SOL     OW38965   9.597   8.130  10.819 -0.5798 -0.3126  0.4522
11001SOL    HW138966   9.517   8.100  10.863  0.0977  0.3127  2.2186
11001SOL    HW238967   9.660   8.143  10.891  0.6720  0.5528 -0.7511
11002SOL     OW38968   7.305   8.487   9.810  0.3601  0.2350 -0.0529
11002SOL    HW138969   7.374   8.439   9.764  1.5999  1.5763  0.3385
11002SOL    HW238970   7.284   8.560   9.751  0.7248  0.9720  0.7177
11003SOL     OW38971  10.210   7.693   4.972 -0.3760  0.7097 -0.1621
11003SOL    HW138972  10.161   7.758   4.921  1.3643  0.1814 -2.7324
11003SOL    HW238973  10.173   7.609   4.944  0.8780  0.3889 -0.9320
11004SOL     OW38974   3.485   4.668   3.072  0.6073  0.2585  0.9174
11004SOL    HW138975   3.522   4.601   3.128 -0.8286 -0.5083  0.9878
11004SOL    HW238976   3.444   4.731   3.132  0.6155  0.3765  0.8010
11005SOL     OW38977   6.879   3.667   1.886 -0.2045  0.2450  0.0135
11005SOL    HW138978   6.845   3.594   1.833 -2.1511  1.5052 -0.6112
11005SOL    HW238979   6.892   3.630   1.973  1.1081 -1.3920 -0.8343
11006SOL     OW38980   5.007   0.193   1.857  0.0760 -0.1665 -0.1714
11006SOL    HW138981   4.955   0.130   1.807  1.1018  0.1739 -1.7572
11006SOL    HW238982   5.070   0.227   1.793  1.6782  0.0537  1.4554
11007SOL     OW38983   1.319  11.014   8.341 -0.1340  0.1816  0.3602
11007SOL    HW138984   1.294  11.099   8.378  0.2821 -0.0544  1.2178
11007SOL    HW238985   1.330  11.031   8.247 -2.7500  0.4413  0.0298
11008SOL     OW38986   3.844   5.132   8.782 -0.3531  0.0054  0.0938
11008SOL    HW138987   3.808   5.060   8.731  1.4513 -1.0073  0.1434
11008SOL    HW238988   3.850   5.097   8.872 -1.3842  0.9740  0.5666
11009SOL     OW38989   9.396   3.709   1.899  0.3732 -0.0638 -0.5541
11009SOL    HW138990   9.473   3.719   1.955  0.2146  0.9769 -0.5042
11009SOL    HW238991   9.406   3.776   1.831 -1.9965  2.3496  1.2523
11010SOL     OW38992   3.921   6.696  11.569 -0.0066 -0.5677 -0.2159
11010SOL    HW138993   3.931   6.608  11.533  0.8964 -0.2518 -0.7967
11010SOL    HW238994   4.011   6.723  11.591 -0.3427 -0.0403  0.5694
11011SOL     OW38995   3.734  11.272   1.741  0.3534  0.2076  0.1986
11011SOL    HW138996   3.801  11.239   1.801  0.5025  0.3644  0.1167
11011SOL    HW238997   3.776  11.343   1.694  0.2089  0.1394 -0.0348
11012SOL     OW38998   9.990   5.651   9.695 -0.1713 -0.4052  0.5911
11012SOL    HW138999   9.922   5.614   9.751  1.1781 -0.2198  2.4279
11012SOL    HW239000  10.072   5.620   9.732  0.8118  0.1481 -1.0040
11013SOL     OW39001   0.649   9.088  10.722  0.4654  0.2888 -0.1401
11013SOL    HW139002   0.725   9.083  10.780 -0.5486 -3.3743  1.1030
11013SOL    HW239003   0.671   9.032  10.648 -1.8518 -3.1335  1.5245
11014SOL     OW39004   5.354   0.714   5.359 -0.4492 -0.1435 -0.3356
11014SOL    HW139005   5.396   0.678   5.437 -1.7765 -0.4618  0.2585
11014SOL    HW239006   5.277   0.760   5.392 -1.1209 -0.4183 -1.4720
11015SOL     OW39007   9.450   4.395   0.166 -0.3834  0.5148 -0.5921
11015SOL    HW139008   9.529   4.412   0.217 -0.8310 -0.8617  0.6274
11015SOL    HW239009   9.386   4.459   0.199 -0.0704  0.9892 -0.8961
11016SOL     OW39010   5.569   7.599   3.085  0.6676  0.5593  0.0548
11016SOL    HW139011   5.535   7.544   3.015  1.8802  0.5051 -0.5199
11016SOL    HW239012   5.589   7.682   3.043 -1.0492  1.4582  0.8932
11017SOL     OW39013   6.857   7.815   1.304  0.0607 -0.1952  0.2194
11017SOL    HW139014   6.932   7.789   1.250 -1.5728 -0.8237 -1.9266
11017SOL    HW239015   6.828   7.734   1.345 -0.9268 -0.4934 -1.0048
11018SOL     OW39016   0.767   3.567   0.084  0.2825  0.3018 -0.0457
11018SOL    HW139017   0.771   3.545  -0.010 -0.1104 -1.5738  0.3275
11018SOL    HW239018   0.771   3.482   0.128 -1.7180  0.9719  1.5797
11019SOL     OW39019   6.352   0.093   5.098  0.9569  0.1561  0.6727
11019SOL    HW139020   6.324   0.003   5.082  0.7799  0.3047  0.0927
11019SOL    HW239021   6.440   0.085   5.134  0.5682 -0.2815  1.5387
11020SOL     OW39022   4.418   8.544   7.651  0.0064 -0.2687  0.5826
11020SOL    HW139023   4.459   8.592   7.578  0.3791  0.1656  1.0670
11020SOL    HW239024   4.423   8.605   7.724 -1.1597 -0.3653  0.7564
11021SOL     OW39025   9.586   8.318  12.105 -0.2068  0.1746  0.3804
11021SOL    HW139026   9.510   8.375  12.115  0.3903  0.6586  2.6878
11021SOL    HW239027   9.652   8.354  12.164  1.7356 -0.4258 -1.3026
11022SOL     OW39028   3.712   1.615   0.063  0.1889 -0.0890 -0.0154
11022SOL    HW139029   3.757   1.580   0.140  0.9857  1.4925  0.2758
11022SOL    HW239030   3.628   1.648   0.096  0.0147 -0.4903 -0.0512
11023SOL     OW39031   6.059  12.216   9.102 -0.0183 -0.7218  0.1593
11023SOL    HW139032   6.022  12.234   9.016 -0.9471  1.6762  0.9756
11023SOL    HW239033   6.137  12.270   9.108  0.3573 -1.3005  0.6089
11024SOL     OW39034  12.053   7.416   3.131 -0.3653  0.4232  0.3729
11024SOL    HW139035  11.975   7.405   3.077 -0.3722  1.9459  0.0249
11024SOL    HW239036  12.105   7.482   3.085 -0.3979  1.8248  2.2511
11025SOL     OW39037   1.428   0.921   3.353  0.1497 -0.1756  0.6023
11025SOL    HW139038   1.349   0.867   3.357  1.0256 -1.5658  0.2922
11025SOL    HW239039   1.497   0.864   3.388  1.0725  0.8692  0.5373
11026SOL     OW39040  11.783   9.644  10.571 -0.1978 -0.0821  0.1297
11026SOL    HW139041  11.869   9.605  10.554 -0.9350 -1.5101 -0.4908
11026SOL    HW239042  11.722   9.591  10.519 -1.3058  1.7297 -0.5171
11027SOL     OW39043   4.368   1.783   4.421 -0.1761  0.0751 -0.1032
11027SOL    HW139044   4.368   1.688   4.419 -0.9849  0.0869 -1.7177
11027SOL    HW239045   4.374   1.805   4.514  0.1358 -1.5364  0.2789
11028SOL     OW39046   8.033   1.955  11.964  1.1407 -0.2191  0.1992
11028SOL    HW139047   8.006   1.871  11.926 -1.3311  1.1309 -1.2767
11028SOL    HW239048   8.109   1.981  11.911  0.8173 -0.7059 -0.5168
11029SOL     OW39049   1.310   1.708   4.995  0.0970  0.1040 -0.7635
11029SOL    HW139050   1.292   1.615   5.010 -1.7968  0.4626 -0.6071
11029SOL    HW239051   1.279   1.752   5.074 -0.5498  1.0315 -1.5217
11030SOL     OW39052   6.376   2.285   9.634 -0.1346  0.5044 -0.4272
11030SOL    HW139053   6.357   2.279   9.540  1.1588 -1.9343 -0.6071
11030SOL    HW239054   6.334   2.367   9.661 -0.9760  1.0368 -3.0081
11031SOL     OW39055   2.546   0.403   7.033  0.2108  0.1815 -0.5262
11031SOL    HW139056   2.570   0.350   7.108 -0.5457  1.5588  0.7387
11031SOL    HW239057   2.484   0.348   6.983  1.5371 -1.1503 -0.7675
11032SOL     OW39058   2.083   0.431   2.808 -1.1059  0.6870 -0.0816
11032SOL    HW139059   2.119   0.348   2.775  1.5931  1.3965  0.7585
11032SOL    HW239060   2.077   0.418   2.902  1.8798  2.1548  0.4406
11033SOL     OW39061   5.077   3.544   0.958 -0.1068  0.8382  0.9998
11033SOL    HW139062   4.999   3.598   0.944  0.0373  0.9387  0.5781
11033SOL    HW239063   5.043   3.459   0.986 -0.5486 -0.1073 -2.0628
11034SOL     OW39064  12.259   0.725   7.710  0.1478  0.0537 -0.5738
11034SOL    HW139065  12.169   0.746   7.683  0.1575 -1.7666 -2.2927
11034SOL    HW239066  12.314   0.757   7.639  0.9716  1.7016  0.7535
11035SOL     OW39067   5.115   4.145   6.423 -0.3451  0.1812  0.0382
11035SOL    HW139068   5.194   4.102   6.457 -0.3726  0.2294  0.1644
11035SOL    HW239069   5.043   4.093   6.459 -0.3538 -0.3310 -0.7131
11036SOL     OW39070  12.304  10.244  11.008  0.2503  0.1135 -0.3037
11036SOL    HW139071  12.227  10.285  11.049 -0.9327  0.8090 -3.0066
11036SOL    HW239072  12.270  10.164  10.969  0.8254  0.5208 -1.6978
11037SOL     OW39073   7.223   1.313   8.159 -0.4866 -0.2072 -0.2029
11037SOL    HW139074   7.234   1.239   8.100 -1.1097 -1.8313  1.6218
11037SOL    HW239075   7.217   1.274   8.246  0.9457  2.1170  1.0361
11038SOL     OW39076   8.434  11.628   4.707 -0.0141  0.3711 -0.1417
11038SOL    HW139077   8.460  11.639   4.798  2.7009 -0.4532 -0.7122
11038SOL    HW239078   8.442  11.715   4.669  2.9406  0.0511 -0.4527
11039SOL     OW39079   0.082   4.731   6.540 -0.5113 -0.1518  0.0707
11039SOL    HW139080   0.156   4.694   6.589  0.9104  0.0277 -1.7993
11039SOL    HW239081   0.042   4.656   6.496 -0.6125 -0.0743  0.0312
11040SOL     OW39082   0.760   4.565   8.990  0.3822  0.0428 -0.2446
11040SOL    HW139083   0.682   4.607   8.954  0.4474  0.6879  0.3665
11040SOL    HW239084   0.728   4.483   9.027 -0.0889  0.5302  0.4378
11041SOL     OW39085   7.380   8.378  10.347  0.4883 -0.2495  0.2871
11041SOL    HW139086   7.303   8.348  10.396  0.4786  0.6990  0.8928
11041SOL    HW239087   7.435   8.300  10.339 -0.1458 -0.7436  0.6036
11042SOL     OW39088   2.477   5.531   7.858  0.1961 -0.2223  0.3517
11042SOL    HW139089   2.431   5.485   7.788 -0.2169  1.4950 -0.5592
11042SOL    HW239090   2.409   5.583   7.901  0.9279  0.9300  0.1631
11043SOL     OW39091  11.001   1.901   0.790 -0.1163  0.3246 -1.0380
11043SOL    HW139092  10.947   1.830   0.824 -1.3888  0.4649 -2.6321
11043SOL    HW239093  10.999   1.889   0.695  1.0768  1.4889 -1.2445
11044SOL     OW39094   3.863   1.983   3.333 -0.4469  0.1997  0.4844
11044SOL    HW139095   3.873   1.944   3.419 -0.7613 -0.7012  0.1159
11044SOL    HW239096   3.871   1.910   3.272 -1.0467  0.7043 -0.2134
11045SOL     OW39097   9.853  10.449   0.022  0.6045  0.0296 -0.8544
11045SOL    HW139098   9.771  10.496   0.036  1.1601  0.5441  0.9678
11045SOL    HW239099   9.835  10.360   0.053  0.6393  0.0568 -0.7545
11046SOL     OW39100   0.743   2.338   6.899 -0.2614 -0.4860  0.2220
11046SOL    HW139101   0.665   2.383   6.868 -0.4526 -1.6536 -1.0453
11046SOL    HW239102   0.750   2.364   6.991 -0.5043  1.8998 -0.3571
11047SOL     OW39103   9.959   4.177   2.745 -0.1113 -0.7584 -0.2041
11047SOL    HW139104   9.935   4.120   2.672  2.2318 -0.8194 -1.0358
11047SOL    HW239105   9.965   4.117   2.820  1.2204 -1.4609 -0.8283
11048SOL     OW39106   7.842  12.173   3.932  0.0191  0.4481  0.2106
11048SOL    HW139107   7.905  12.195   4.000  1.0085  0.4076 -0.6618
11048SOL    HW239108   7.893  12.122   3.869 -0.8473  0.5627 -0.5946
11049SOL     OW39109   2.131  10.804   7.496  0.6500 -0.1872 -0.2170
11049SOL    HW139110   2.057  10.745   7.484  0.5249 -0.0555 -0.0951
11049SOL    HW239111   2.208  10.747   7.487  0.5213 -0.4627  0.3693
11050SOL     OW39112   0.741   5.131   4.394  0.1801  0.6562 -0.0136
11050SOL    HW139113   0.742   5.190   4.469  0.3651  0.8309 -0.1535
11050SOL    HW239114   0.792   5.055   4.422 -1.1467 -0.0237  0.6421
11051SOL     OW39115  11.962   7.821   6.474  0.4065 -0.5924  0.4293
11051SOL    HW139116  12.010   7.836   6.556  0.3249  0.2528  0.3333
11051SOL    HW239117  11.903   7.896   6.467 -0.4813 -1.3076  0.2232
11052SOL     OW39118   8.345   3.041   8.920  0.0221 -0.3263 -0.1562
11052SOL    HW139119   8.367   3.076   8.834 -0.9893  0.5544 -0.0820
11052SOL    HW239120   8.255   3.011   8.911  0.5878 -2.2183  0.0205
11053SOL     OW39121  12.253   8.079   1.000 -0.3233 -0.1922 -0.5374
11053SOL    HW139122  12.347   8.060   0.990 -0.1028  0.4712  0.1543
11053SOL    HW239123  12.243   8.168   0.965 -0.4813  0.1606  0.3701
11054SOL     OW39124   7.471   2.480   8.866  0.2780  0.2090  0.0543
11054SOL    HW139125   7.482   2.391   8.900  0.9882  0.0646 -0.5435
11054SOL    HW239126   7.377   2.496   8.874 -0.0416 -1.0248 -0.8740
11055SOL     OW39127   1.567   2.567   9.805 -0.3684  0.4727  0.1169
11055SOL    HW139128   1.506   2.523   9.746  1.5471 -1.8952 -0.2969
11055SOL    HW239129   1.641   2.590   9.748  0.8979 -0.5596  1.2856
11056SOL     OW39130   1.996   0.514   1.673 -0.2582  0.1229 -0.1464
11056SOL    HW139131   1.955   0.584   1.622 -3.2066 -1.4934 -0.2191
11056SOL    HW239132   1.978   0.434   1.623  2.3928 -0.8316  0.2799
11057SOL     OW39133   4.088  10.187   7.933 -0.2632 -0.2506 -0.3561
11057SOL    HW139134   4.040  10.245   7.874  0.8071 -0.8767 -1.8963
11057SOL    HW239135   4.103  10.240   8.011 -1.3313  0.7476 -0.7879
11058SOL     OW39136  10.829   7.579  10.862  0.0641 -0.4157  0.5444
11058SOL    HW139137  10.880   7.645  10.815  1.2492 -0.4857  1.6941
11058SOL    HW239138  10.884   7.553  10.935 -0.5039 -2.4705  0.3032
11059SOL     OW39139   1.706  11.627   4.088  0.0155 -0.3865  0.4157
11059SOL    HW139140   1.664  11.713   4.087  0.0333 -0.3623 -1.0907
11059SOL    HW239141   1.684  11.591   4.174 -2.0630  0.1272  0.1597
11060SOL     OW39142   5.393   0.946   3.889 -0.1867 -0.3069  0.9741
11060SOL    HW139143   5.430   0.949   3.977  0.0324  1.9313  0.8461
11060SOL    HW239144   5.299   0.958   3.902  0.0098  1.6440  0.8514
11061SOL     OW39145   9.256   4.895   6.663  0.3701 -0.6643 -0.0170
11061SOL    HW139146   9.230   4.833   6.595 -1.4746 -2.6514  2.3043
11061SOL    HW239147   9.188   4.963   6.660  2.0569  1.1148 -2.1460
11062SOL     OW39148   1.108   4.141   2.286 -0.5438  0.3880  0.0224
11062SOL    HW139149   1.176   4.196   2.247 -1.5211  0.3918 -1.7635
11062SOL    HW239150   1.078   4.191   2.363  1.3803  0.4032  0.8082
11063SOL     OW39151  10.688  10.367  10.542  0.0783  0.1741 -0.2154
11063SOL    HW139152  10.762  10.423  10.519  0.7158 -0.6458 -0.2320
11063SOL    HW239153  10.704  10.342  10.633 -1.3567  1.7581  0.5170
11064SOL     OW39154   8.142   9.016   4.320  0.8232 -0.1340  0.1341
11064SOL    HW139155   8.125   9.042   4.229 -1.1403  1.1609  0.8210
11064SOL    HW239156   8.225   8.970   4.316  1.1157  0.4729 -2.2258
11065SOL     OW39157   2.767   5.461   1.449  0.3047 -0.1560 -0.1487
11065SOL    HW139158   2.834   5.448   1.516  0.6540 -1.8727 -0.7647
11065SOL    HW239159   2.781   5.550   1.418  0.2742  0.5838  1.8684
11066SOL     OW39160   9.761   0.823   1.234  0.0066 -0.1400  0.0343
11066SOL    HW139161   9.844   0.778   1.250 -0.6331 -0.6586  2.2985
11066SOL    HW239162   9.755   0.830   1.139  3.1214  0.8798 -0.2013
11067SOL     OW39163   4.207   2.961  11.683 -0.9933 -0.3690  0.0806
11067SOL    HW139164   4.133   3.006  11.724 -1.9853 -3.1032  1.5411
11067SOL    HW239165   4.269   2.946  11.754  1.4780  2.4593 -1.2361
11068SOL     OW39166   0.147  11.711   0.896  0.1584 -0.2249  0.5569
11068SOL    HW139167   0.237  11.742   0.883 -0.4193  0.8387 -1.1986
11068SOL    HW239168   0.093  11.789   0.888 -1.1060 -1.1730 -0.9088
11069SOL     OW39169   4.148   7.142   1.725  0.3522 -0.6739 -0.1008
11069SOL    HW139170   4.052   7.142   1.734  0.2081  1.6774 -1.1258
11069SOL    HW239171   4.179   7.191   1.800  0.4451  1.7389 -1.6186
11070SOL     OW39172  10.526   7.554   0.993 -0.5380 -0.3665 -0.2358
11070SOL    HW139173  10.434   7.533   1.004 -0.2566 -2.4970 -1.4750
11070SOL    HW239174  10.527   7.647   0.971 -2.4470 -0.4622 -0.8927
11071SOL     OW39175   2.730   8.125   6.486 -0.4188 -0.0781 -0.1397
11071SOL    HW139176   2.729   8.170   6.571  0.5212  0.4296 -0.3861
11071SOL    HW239177   2.658   8.164   6.437  0.8748  1.8077 -0.6505
11072SOL     OW39178   6.444  11.017   5.598  0.6137  0.2599 -0.4090
11072SOL    HW139179   6.442  11.044   5.506  2.3639  0.6509 -0.3615
11072SOL    HW239180   6.493  11.087   5.642 -0.4463  0.2244  0.8916
11073SOL     OW39181  10.530   6.451  10.500  0.0644  1.1677 -0.3919
11073SOL    HW139182  10.568   6.536  10.522  1.7864  0.2700  0.3049
11073SOL    HW239183  10.456   6.442  10.560  1.4889  1.0556  1.4279
11074SOL     OW39184   4.102  11.828   5.141  0.2533  0.0786  0.5208
11074SOL    HW139185   4.119  11.817   5.234  1.0004 -0.0137  0.3847
11074SOL    HW239186   4.124  11.920   5.123  0.8400 -0.0957  0.3010
11075SOL     OW39187  10.306   3.508   7.470 -0.2465  0.1746  0.0255
11075SOL    HW139188  10.242   3.558   7.419 -0.8480 -0.3254  0.2781
11075SOL    HW239189  10.371   3.481   7.405 -1.0059 -0.4620 -0.4992
11076SOL     OW39190   7.026   3.364  10.764  0.1474  0.0493 -0.4123
11076SOL    HW139191   7.097   3.302  10.748  1.4330  1.6247 -1.0710
11076SOL    HW239192   7.070   3.449  10.776 -1.5542  0.8950  0.2571
11077SOL     OW39193   2.045   6.631   2.682  0.3432  0.3006 -0.3053
11077SOL    HW139194   2.002   6.712   2.710  0.7571  0.4775 -0.1853
11077SOL    HW239195   1.974   6.579   2.643  0.1928  0.9859 -0.9722
11078SOL     OW39196   3.761   4.968   3.598 -0.0239 -0.6071  0.6045
11078SOL    HW139197   3.688   4.962   3.659  0.2333 -1.5245  0.8489
11078SOL    HW239198   3.726   5.013   3.522 -0.9172 -1.2714  0.6129
11079SOL     OW39199   5.908  12.041   9.250 -0.0345  0.2620 -0.3761
11079SOL    HW139200   5.970  12.013   9.317 -1.9224  0.2677  1.4853
11079SOL    HW239201   5.955  12.109   9.202  2.1655 -1.2655 -0.5448
11080SOL     OW39202   3.913   7.123   2.045  0.6684 -0.4301 -0.4577
11080SOL    HW139203   3.876   7.129   1.957 -0.4658 -0.0272  0.0325
11080SOL    HW239204   3.977   7.193   2.049 -1.6158  1.7807  0.0979
11081SOL     OW39205   6.248   1.206   8.642 -0.2812 -0.3853 -0.0790
11081SOL    HW139206   6.335   1.233   8.670 -0.5293 -1.5827  2.0604
11081SOL    HW239207   6.191   1.279   8.669 -0.1978 -0.4883  0.3884
11082SOL     OW39208  11.910   8.501   7.096  0.4282  0.0795 -0.1626
11082SOL    HW139209  11.837   8.447   7.126  0.3842  0.3799  0.2632
11082SOL    HW239210  11.880   8.537   7.012  1.2209 -2.1621 -1.4993
11083SOL     OW39211   2.333   9.613   9.713 -0.0245 -0.0016  0.3416
11083SOL    HW139212   2.399   9.571   9.768  1.3171  0.3373 -0.9269
11083SOL    HW239213   2.256   9.557   9.720  1.5937 -2.6474 -1.0780
11084SOL     OW39214  10.076   9.403  11.310 -0.5206 -0.0157 -0.4529
11084SOL    HW139215  10.119   9.437  11.231  0.0204 -0.0586 -0.1870
11084SOL    HW239216  10.031   9.479  11.347 -1.4275 -0.1636 -1.2072
11085SOL     OW39217  11.773   0.911   4.812 -0.2565 -0.1510 -0.5871
11085SOL    HW139218  11.819   0.955   4.740  2.7467 -1.9172  0.0782
11085SOL    HW239219  11.761   0.821   4.782 -0.8680 -0.3936  0.3341
11086SOL     OW39220   4.482  11.780   1.734  0.0685 -0.0114  0.5194
11086SOL    HW139221   4.487  11.745   1.645  0.2089  1.3225 -0.0253
11086SOL    HW239222   4.540  11.724   1.785  0.3479 -0.5123 -0.3234
11087SOL     OW39223  11.333   3.936   4.828  0.2986 -0.4211 -0.5446
11087SOL    HW139224  11.350   3.954   4.736 -0.6457  0.8935 -0.4962
11087SOL    HW239225  11.368   4.012   4.874 -3.3570  1.3092 -0.2562
11088SOL     OW39226   1.599  10.414   4.689 -0.0123 -0.4137  0.4142
11088SOL    HW139227   1.679  10.367   4.716  1.3449  1.9416  0.7901
11088SOL    HW239228   1.542  10.410   4.765  1.0491  0.4781  1.2919
11089SOL     OW39229  11.452   0.873   7.656  0.1746  0.1333  0.2700
11089SOL    HW139230  11.367   0.865   7.612 -0.4423  0.3480  1.3792
11089SOL    HW239231  11.458   0.965   7.680  0.2407 -0.0821  1.1152
11090SOL     OW39232   8.497   3.984   5.573 -0.2846 -0.3821 -0.5074
11090SOL    HW139233   8.548   3.991   5.654 -0.7955 -0.5701 -0.1613
11090SOL    HW239234   8.443   3.906   5.585  0.8728 -1.4063 -1.7550
11091SOL     OW39235   0.949  10.990  11.343 -0.4128  0.4708 -0.4057
11091SOL    HW139236   0.951  11.013  11.436  3.3736 -0.8904  0.0072
11091SOL    HW239237   0.909  10.904  11.340 -0.8137  0.6446 -0.0860
11092SOL     OW39238  11.430   1.399  10.554 -0.0152 -0.0850  0.2157
11092SOL    HW139239  11.464   1.420  10.641 -1.0361 -1.9667  1.1497
11092SOL    HW239240  11.357   1.460  10.541  0.1030  0.1676  0.7154
11093SOL     OW39241   9.052   9.934   7.469  0.4513  0.2839  0.3420
11093SOL    HW139242   9.123   9.992   7.496  2.3526 -1.6295 -0.2297
11093SOL    HW239243   8.985   9.993   7.435  2.2242  2.1575 -0.1710
11094SOL     OW39244   1.687   7.989   9.596  0.1074  0.1789 -0.7225
11094SOL    HW139245   1.764   7.938   9.572  1.5741  0.7252  2.3247
11094SOL    HW239246   1.630   7.983   9.520  2.9734 -0.5409 -2.9976
11095SOL     OW39247   1.489   3.043   3.997 -0.3191  0.5072  0.2446
11095SOL    HW139248   1.423   3.113   4.004 -1.2358 -0.3121  0.0344
11095SOL    HW239249   1.478   2.992   4.077 -2.3051 -1.5943 -1.2050
11096SOL     OW39250   7.294   4.601  10.584 -0.3064  0.2601 -0.2309
11096SOL    HW139251   7.220   4.595  10.524  0.4285  0.8590 -1.2493
11096SOL    HW239252   7.348   4.672  10.548  0.4019  0.3158  0.8818
11097SOL     OW39253   9.900   9.513   7.716  0.0660  0.4121 -0.0294
11097SOL    HW139254   9.938   9.598   7.692  0.5107 -0.3741 -2.4058
11097SOL    HW239255   9.812   9.516   7.679 -0.4048  0.3044  1.0474
11098SOL     OW39256  12.071   5.035   2.430  0.2867  0.2646  0.0707
11098SOL    HW139257  12.050   4.951   2.471  1.0603 -0.7454 -1.5156
11098SOL    HW239258  12.121   5.082   2.496 -1.7132  0.2672  1.6695
11099SOL     OW39259   3.255   9.747   0.784  0.6406 -0.0415  0.0394
11099SOL    HW139260   3.336   9.797   0.796 -0.7070  2.1646  0.4630
11099SOL    HW239261   3.237   9.709   0.869  1.6486 -1.2987 -0.2720
11100SOL     OW39262   1.239   7.545  11.469 -0.1779 -0.1205 -0.8267
11100SOL    HW139263   1.214   7.635  11.449 -1.0167 -0.0307  0.4854
11100SOL    HW239264   1.262   7.547  11.562 -1.5380 -1.5016 -0.4132
11101SOL     OW39265   9.908   7.962   1.907  0.5962 -0.3912 -0.0850
11101SOL    HW139266   9.959   7.881   1.901  1.4632  0.0982  0.5106
11101SOL    HW239267   9.823   7.939   1.870  1.9615 -0.5689 -3.5631
11102SOL     OW39268   3.276   4.776  10.061 -0.0708  0.2633 -0.0440
11102SOL    HW139269   3.185   4.757  10.038 -0.1677 -1.0591  1.2750
11102SOL    HW239270   3.325   4.766   9.979 -0.8499 -0.9269 -0.3860
11103SOL     OW39271   5.719   6.477   9.240  0.3614  0.0624 -0.0030
11103SOL    HW139272   5.790   6.535   9.266 -0.8015  1.2626  0.6128
11103SOL    HW239273   5.677   6.452   9.322 -2.8932  3.2888 -0.4287
11104SOL     OW39274   5.180   9.755   0.806 -0.6045 -0.0165  0.1626
11104SOL    HW139275   5.160   9.724   0.718 -1.8017  0.5171  0.2199
11104SOL    HW239276   5.243   9.692   0.840  0.0357 -0.1075 -1.1437
11105SOL     OW39277   3.537   5.723  11.313 -0.0074  0.2681  0.0145
11105SOL    HW139278   3.556   5.661  11.243  1.7685  0.4591  0.2801
11105SOL    HW239279   3.559   5.808  11.276 -1.1434  0.6176  0.1042
11106SOL     OW39280   4.382  12.345  12.246 -0.1868  0.6968  0.3155
11106SOL    HW139281   4.478  12.338  12.250 -0.1927  1.0933  1.5950
11106SOL    HW239282   4.365  12.439  12.248 -0.6225  0.6122  1.0820
11107SOL     OW39283   9.160  11.663  11.685 -0.0341 -0.4825  0.3435
11107SOL    HW139284   9.148  11.639  11.593 -1.2037  1.3383 -0.0142
11107SOL    HW239285   9.155  11.758  11.687  1.2383 -0.3870  2.1507
11108SOL     OW39286   9.908   0.150   1.954  0.1540  0.0931  0.2660
11108SOL    HW139287   9.936   0.194   1.874 -0.5752 -1.4596 -0.9094
11108SOL    HW239288   9.846   0.211   1.995  2.1598  1.8507  0.8678
11109SOL     OW39289   6.872   2.103   4.896 -0.1344 -0.2335 -0.5938
11109SOL    HW139290   6.945   2.110   4.958  0.2564  1.0409 -1.1563
11109SOL    HW239291   6.902   2.037   4.832 -0.7572 -1.9404  0.7925
11110SOL     OW39292   3.497   5.438   1.497 -0.0047 -0.4139  0.0028
11110SOL    HW139293   3.471   5.391   1.577 -0.1989  0.9576  0.7837
11110SOL    HW239294   3.579   5.397   1.470  1.0008  0.2037  1.9274
11111SOL     OW39295   8.148   9.328   3.210 -0.7346  0.2483  0.6473
11111SOL    HW139296   8.055   9.304   3.204 -0.9506  1.0792  0.5415
11111SOL    HW239297   8.148   9.424   3.209 -0.1089  0.3878  3.4456
11112SOL     OW39298   0.810   2.155   3.437 -0.1113  0.1518  0.1645
11112SOL    HW139299   0.797   2.108   3.355  0.9395  0.1091  0.0117
11112SOL    HW239300   0.811   2.087   3.504 -0.4474  0.1390  0.1584
11113SOL     OW39301   3.952   8.424   7.747 -0.7877 -0.2718  0.3188
11113SOL    HW139302   4.022   8.489   7.753  0.0935 -1.3141  3.1393
11113SOL    HW239303   3.983   8.361   7.683 -0.8057  1.0774 -1.0616
11114SOL     OW39304   7.569   2.277   9.218 -0.8516  0.2304 -0.1120
11114SOL    HW139305   7.488   2.307   9.258 -1.5197  1.3788 -2.1391
11114SOL    HW239306   7.563   2.182   9.219 -0.9189  0.2121  2.2022
11115SOL     OW39307  10.220   1.355   3.240 -0.4929  0.0388  0.1883
11115SOL    HW139308  10.183   1.398   3.163  1.5072  1.7501  0.1021
11115SOL    HW239309  10.314   1.368   3.232 -0.0742 -1.4461  1.9536
11116SOL     OW39310   4.198   5.340   2.669  0.0132 -0.1903  0.6388
11116SOL    HW139311   4.122   5.345   2.726  0.8658  0.4045  1.7550
11116SOL    HW239312   4.262   5.287   2.717 -0.7437 -3.4296 -1.5892
11117SOL     OW39313   6.364   7.542  11.193  0.0042  0.4527 -0.0010
11117SOL    HW139314   6.301   7.552  11.122  1.6007  0.5221 -1.4668
11117SOL    HW239315   6.369   7.628  11.234 -0.2003  0.6719 -0.4390
11118SOL     OW39316   9.293   0.969   7.202 -0.1733  0.1112 -0.0339
11118SOL    HW139317   9.320   0.944   7.114 -2.5983  0.7673 -1.0594
11118SOL    HW239318   9.199   0.952   7.204 -0.3838  1.1575  2.0579
11119SOL     OW39319   0.302  11.586  11.806 -0.4354  0.1033 -0.0003
11119SOL    HW139320   0.238  11.528  11.764  0.4533  0.5161 -2.0384
11119SOL    HW239321   0.387  11.547  11.785  0.1574  1.7912 -0.9455
11120SOL     OW39322   6.068   6.758   0.077  0.0063 -0.6626 -0.1948
11120SOL    HW139323   6.073   6.822   0.006  1.6100 -0.2761  0.2315
11120SOL    HW239324   6.143   6.700   0.062 -1.4174 -2.4902 -0.5851
11121SOL     OW39325   2.080  10.295  10.463 -0.1467 -0.1130 -0.2896
11121SOL    HW139326   2.164  10.312  10.420  0.6457  0.4795  1.3945
11121SOL    HW239327   2.061  10.376  10.510 -0.8869 -0.7828  0.5915
11122SOL     OW39328   7.687  11.741   6.821  0.9135  0.3160  0.0345
11122SOL    HW139329   7.773  11.761   6.785 -0.1342  1.7718 -1.8405
11122SOL    HW239330   7.634  11.819   6.804 -1.1434 -1.0203 -0.1032
11123SOL     OW39331   0.771  10.645   7.034 -0.1948 -0.5370  0.0156
11123SOL    HW139332   0.789  10.706   7.105  0.2180  1.3542 -1.6198
11123SOL    HW239333   0.676  10.634   7.035 -0.5010  1.6166 -0.7521
11124SOL     OW39334  11.450  12.378   7.234 -0.7248 -0.0628  0.4256
11124SOL    HW139335  11.380  12.423   7.187  0.4231  0.3646 -0.9535
11124SOL    HW239336  11.466  12.299   7.182  0.1744  0.1151  0.4313
11125SOL     OW39337   9.272   3.582   0.433  0.1397  0.0015 -0.1267
11125SOL    HW139338   9.230   3.565   0.349  1.9553  0.3537 -1.1644
11125SOL    HW239339   9.306   3.496   0.460 -0.1845 -0.0543  0.1113
11126SOL     OW39340   2.135   8.267  12.260 -0.4850  0.3250  0.5331
11126SOL    HW139341   2.172   8.259  12.172  0.6668  0.1235  1.0090
11126SOL    HW239342   2.210   8.288  12.315 -0.5894 -2.6684  1.9674
11127SOL     OW39343   0.403   0.250   7.396  0.7757  0.1071 -0.3083
11127SOL    HW139344   0.406   0.270   7.490  1.7481  0.7154 -0.4532
11127SOL    HW239345   0.487   0.282   7.362 -0.0259  0.9425 -1.5917
11128SOL     OW39346   1.007  12.485  10.290  0.4145 -0.1935 -0.0358
11128SOL    HW139347   0.964  12.539  10.356  1.3823  0.8052 -0.1899
11128SOL    HW239348   1.034  12.547  10.222 -3.6675 -1.5047 -3.2835
11129SOL     OW39349   1.511   3.601  11.330 -0.3445 -0.0225  0.0080
11129SOL    HW139350   1.539   3.519  11.370  0.9901 -0.2767 -1.3427
11129SOL    HW239351   1.541   3.669  11.390  1.3226 -0.4015 -0.3482
11130SOL     OW39352   5.210   8.614   3.279 -0.7316 -0.2559 -0.4178
11130SOL    HW139353   5.303   8.634   3.268 -0.8489  0.0716 -0.8438
11130SOL    HW239354   5.194   8.542   3.218 -1.3213  1.3776 -2.2611
11131SOL     OW39355   8.223   5.089   2.496  0.4943  0.0717  0.1283
11131SOL    HW139356   8.143   5.090   2.443  0.0606  0.3262  0.7629
11131SOL    HW239357   8.292   5.121   2.438  0.1630 -0.2985 -0.4724
11132SOL     OW39358   9.322  12.324  11.761  0.1133  0.4396 -0.3592
11132SOL    HW139359   9.344  12.288  11.847 -0.4842 -2.4619 -1.3089
11132SOL    HW239360   9.261  12.395  11.780  0.3329  0.1624  1.6382
11133SOL     OW39361   8.019  10.566   8.184  0.5147 -0.2410  0.4036
11133SOL    HW139362   7.999  10.495   8.246  0.9614 -1.1389 -0.4568
11133SOL    HW239363   7.955  10.634   8.205  0.2899 -0.7453  1.4803
11134SOL     OW39364   2.585   8.574  11.867 -0.2637  0.0701  0.2810
11134SOL    HW139365   2.576   8.665  11.897 -2.0756  0.2001 -0.5255
11134SOL    HW239366   2.593   8.581  11.772 -1.4787 -0.6385  0.1042
11135SOL     OW39367   4.330   2.480   5.428  0.6445  0.1012  0.2468
11135SOL    HW139368   4.373   2.537   5.492  1.4432  0.0335 -0.2274
11135SOL    HW239369   4.252   2.528   5.402 -0.0857 -0.1751  1.7993
11136SOL     OW39370   9.580   9.465  12.325  0.0026 -0.4802  0.3710
11136SOL    HW139371   9.503   9.425  12.284 -0.2814 -1.0533  1.4266
11136SOL    HW239372   9.554   9.555  12.342  0.1274 -0.2340 -0.6872
11137SOL     OW39373  10.699   7.663   2.844 -0.1124  0.5412 -0.0576
11137SOL    HW139374  10.663   7.664   2.933 -0.2123 -0.3346 -0.0778
11137SOL    HW239375  10.778   7.610   2.852  0.4408  1.3116 -0.2913
11138SOL     OW39376   0.716   5.583   6.681 -0.3813  0.3017 -0.3261
11138SOL    HW139377   0.676   5.610   6.598 -0.9908  1.4744  0.3271
11138SOL    HW239378   0.643   5.579   6.743  0.0788 -0.4899  0.1824
11139SOL     OW39379   9.153  11.086   2.659  0.0566  0.1938  0.3858
11139SOL    HW139380   9.058  11.082   2.650 -0.0193  0.1911  1.1409
11139SOL    HW239381   9.173  11.021   2.726  0.8217 -1.4015 -1.3269
11140SOL     OW39382   0.181   4.649   5.479 -0.3250 -0.3757  0.2841
11140SOL    HW139383   0.137   4.714   5.424  2.3226  0.5807 -0.8543
11140SOL    HW239384   0.180   4.568   5.427  0.7822  0.1113 -0.5153
11141SOL     OW39385  11.520   7.738   9.055  0.8819 -0.8794 -0.4072
11141SOL    HW139386  11.580   7.795   9.007  1.5790 -0.4505  0.9265
11141SOL    HW239387  11.545   7.649   9.029  1.1009 -0.6545 -0.9884
11142SOL     OW39388  11.404   1.672  12.207 -0.1580 -0.1053 -0.1744
11142SOL    HW139389  11.371   1.740  12.150 -3.1301 -0.3272  1.1151
11142SOL    HW239390  11.409   1.594  12.152  1.9844  0.7534 -1.3127
11143SOL     OW39391   3.190   9.795   6.583 -0.3935  0.0696  0.0374
11143SOL    HW139392   3.158   9.743   6.510  0.2697 -2.5027  1.4501
11143SOL    HW239393   3.231   9.731   6.642 -0.5160  2.0572  2.4470
11144SOL     OW39394  11.148   5.041   9.096 -0.2421  0.5111  0.0187
11144SOL    HW139395  11.110   5.116   9.050 -4.9677 -1.8405 -0.4895
11144SOL    HW239396  11.199   4.996   9.028  0.1138  1.6134 -0.4754
11145SOL     OW39397   5.174   2.797   6.730  0.0033 -0.3035  0.1179
11145SOL    HW139398   5.139   2.766   6.646 -0.2518  2.0855 -0.7264
11145SOL    HW239399   5.098   2.800   6.787 -0.1290 -0.3442 -0.0536
11146SOL     OW39400   7.785   4.445  10.089  0.4999  0.2119 -0.4875
11146SOL    HW139401   7.848   4.514  10.068  1.1235 -0.6659 -1.5829
11146SOL    HW239402   7.802   4.376  10.025  0.3675 -1.2726  1.0132
11147SOL     OW39403   5.423   9.222  11.560  0.0404  0.0023 -0.7451
11147SOL    HW139404   5.383   9.212  11.474 -1.2777 -1.9366  0.0198
11147SOL    HW239405   5.460   9.135  11.579 -0.7126  0.0455  1.0980
11148SOL     OW39406   1.588   9.416   6.442  0.2928 -0.4306  0.0904
11148SOL    HW139407   1.541   9.388   6.363 -0.7025  0.4806  0.3327
11148SOL    HW239408   1.562   9.352   6.509 -1.6177  0.7087  0.5245
11149SOL     OW39409   5.630   4.827   4.075 -0.1907 -0.3221 -0.3850
11149SOL    HW139410   5.699   4.835   4.009  0.9085  1.8728  0.9263
11149SOL    HW239411   5.670   4.774   4.144 -0.5693 -0.7755 -0.5076
11150SOL     OW39412   3.231   2.351   8.370 -0.3898 -0.0753  0.0005
11150SOL    HW139413   3.234   2.313   8.457 -1.0189  1.8630  0.9278
11150SOL    HW239414   3.272   2.285   8.313 -1.2143 -1.9707  1.4991
11151SOL     OW39415   2.154   7.370   1.700 -0.3515  0.0122 -0.2716
11151SOL    HW139416   2.175   7.452   1.744  0.5674  0.1964 -1.0039
11151SOL    HW239417   2.200   7.303   1.751 -1.1034 -0.0640  0.3268
11152SOL     OW39418  10.805   0.477   9.045  0.5397  0.0081 -0.0878
11152SOL    HW139419  10.743   0.520   9.105 -0.5033  1.6964 -2.2236
11152SOL    HW239420  10.754   0.407   9.004  0.2324  0.9294 -1.3159
11153SOL     OW39421   3.664   4.898   3.134  0.0655 -0.3459  0.3524
11153SOL    HW139422   3.654   4.811   3.095  0.3034 -0.4975  0.6271
11153SOL    HW239423   3.661   4.958   3.060 -4.3227 -0.1972  0.3638
11154SOL     OW39424   8.547   2.960   7.592 -0.0074 -0.2956  0.2754
11154SOL    HW139425   8.597   3.033   7.629  1.4570 -0.9493 -0.3164
11154SOL    HW239426   8.613   2.893   7.576 -1.0752 -1.1387 -0.7041
11155SOL     OW39427   6.165  10.091   7.806 -0.4204 -0.0958 -0.2484
11155SOL    HW139428   6.191  10.005   7.840 -0.4892  0.3611  1.0159
11155SOL    HW239429   6.246  10.128   7.771 -0.2320 -0.3682 -0.1043
11156SOL     OW39430   6.008   0.799  11.493 -0.0920 -0.7037  0.3203
11156SOL    HW139431   5.968   0.780  11.408 -1.2451  0.6216  0.5369
11156SOL    HW239432   5.964   0.740  11.554 -1.1198  0.1192  0.4037
11157SOL     OW39433   6.127   3.268   5.445  0.0221 -0.3382  0.0806
11157SOL    HW139434   6.051   3.318   5.416  0.2685 -0.8487 -1.5588
11157SOL    HW239435   6.146   3.301   5.532 -1.0112  1.0349 -0.1863
11158SOL     OW39436   3.478   2.379  10.929 -0.3269 -0.0559 -0.5295
11158SOL    HW139437   3.533   2.403  10.854  0.1352 -0.5659 -0.3639
11158SOL    HW239438   3.529   2.407  11.005  0.9420 -2.7705 -0.2473
11159SOL     OW39439   0.313   6.897  11.323 -0.0589 -0.5782  0.0041
11159SOL    HW139440   0.336   6.824  11.266 -1.3200  0.5303 -2.0434
11159SOL    HW239441   0.226   6.924  11.294 -0.7138  0.1464  2.4082
11160SOL     OW39442   9.358   4.355   9.967 -0.1314 -0.2120 -0.3137
11160SOL    HW139443   9.268   4.333   9.990  0.0260  0.9391  1.6176
11160SOL    HW239444   9.357   4.450   9.954  0.9320 -0.0779  0.4573
11161SOL     OW39445   3.519  11.410   1.189 -0.0757  0.5531 -0.2502
11161SOL    HW139446   3.508  11.322   1.153  0.8015 -0.3839  1.6783
11161SOL    HW239447   3.444  11.423   1.246 -0.9840  1.6908 -1.6099
11162SOL     OW39448   5.538   1.401  10.101 -0.0538 -0.0705  0.5638
11162SOL    HW139449   5.499   1.374  10.184  0.2429 -0.5425  0.5536
11162SOL    HW239450   5.619   1.350  10.096  0.6007  0.9483  0.6254
11163SOL     OW39451   9.353   6.099   3.522 -0.1417  0.5539  0.4047
11163SOL    HW139452   9.257   6.107   3.523 -0.0642  1.7447 -0.1901
11163SOL    HW239453   9.369   6.006   3.537 -1.3789  0.4028  0.9887
11164SOL     OW39454   3.760   1.167   5.466 -0.0622 -0.2531  0.1661
11164SOL    HW139455   3.814   1.088   5.470 -0.2404 -0.4157 -0.5553
11164SOL    HW239456   3.691   1.152   5.531 -1.1488 -1.4954 -1.2259
11165SOL     OW39457  11.961   9.778  11.910  0.3864  0.2182  0.3645
11165SOL    HW139458  12.008   9.704  11.872  1.2069  0.5263  0.7461
11165SOL    HW239459  11.876   9.776  11.868  0.2725 -1.1355  0.6001
11166SOL     OW39460  10.319   5.882   3.799 -0.0567 -0.2153  0.1702
11166SOL    HW139461  10.239   5.859   3.752 -0.4388  0.2527  0.5855
11166SOL    HW239462  10.367   5.939   3.739  0.1716 -0.8305 -0.2464
11167SOL     OW39463   2.793   3.670   2.407  0.2155 -0.2327 -0.4269
11167SOL    HW139464   2.829   3.582   2.422 -0.7831 -0.5021  0.5580
11167SOL    HW239465   2.699   3.661   2.425  0.2125  1.1909  0.4409
11168SOL     OW39466   6.273   8.675   6.538 -0.2601  0.4240  0.6911
11168SOL    HW139467   6.333   8.619   6.489 -1.2657  0.3967 -0.5577
11168SOL    HW239468   6.329   8.718   6.603  0.6675 -1.4385  1.2108
11169SOL     OW39469  10.925   5.446   9.091  0.0851 -0.7848 -0.0838
11169SOL    HW139470  10.850   5.490   9.050  0.4493  0.0178  0.0769
11169SOL    HW239471  10.977   5.518   9.128  0.6857 -1.3648  0.2179
11170SOL     OW39472   0.044   5.375   9.027  0.1871  0.0397 -0.4360
11170SOL    HW139473   0.139   5.363   9.035  0.0603 -0.4380  0.4097
11170SOL    HW239474   0.029   5.463   9.063  0.2451 -0.1043 -0.0528
11171SOL     OW39475   4.644   7.410   8.225 -0.2645 -0.7784  0.3835
11171SOL    HW139476   4.561   7.457   8.217 -0.5704 -1.5509 -1.5789
11171SOL    HW239477   4.690   7.428   8.143  2.1120  0.6194  1.8895
11172SOL     OW39478   5.395   0.351   9.079 -0.1989  0.0786  0.3596
11172SOL    HW139479   5.355   0.435   9.055 -0.5119 -0.3343 -0.6200
11172SOL    HW239480   5.489   0.371   9.084 -0.2864  0.5284  0.2905
11173SOL     OW39481   1.919   7.057   0.323 -0.0946 -0.1851  0.2603
11173SOL    HW139482   1.984   7.049   0.253 -1.0951 -0.0207 -0.6988
11173SOL    HW239483   1.903   7.151   0.330 -0.8392 -0.2831 -0.0792
11174SOL     OW39484   7.657   1.781   3.708 -0.3394 -0.3800 -0.5485
11174SOL    HW139485   7.707   1.822   3.778  0.6637  0.2917 -1.6397
11174SOL    HW239486   7.710   1.706   3.680 -1.0257 -1.0136 -0.1983
11175SOL     OW39487   9.472   4.098   7.758  0.0699  0.1377  0.0747
11175SOL    HW139488   9.492   4.005   7.754 -0.7538 -0.1628  1.9251
11175SOL    HW239489   9.387   4.103   7.802 -0.1339  1.7417 -0.4191
11176SOL     OW39490   0.689  11.450  10.007 -0.1303 -0.4215  0.4285
11176SOL    HW139491   0.702  11.363  10.045 -0.1958 -0.3543  0.6069
11176SOL    HW239492   0.629  11.494  10.067 -0.6337 -0.4844 -0.0212
11177SOL     OW39493  10.310  10.672   8.511  0.8087  0.7090 -0.0036
11177SOL    HW139494  10.369  10.601   8.485 -1.3111 -1.1983  0.1191
11177SOL    HW239495  10.355  10.716   8.583  0.8225 -2.6958  2.2780
11178SOL     OW39496   9.606   8.385   8.332 -0.1062  0.2879 -0.2034
11178SOL    HW139497   9.653   8.467   8.317  0.3527  0.0537 -0.0748
11178SOL    HW239498   9.675   8.320   8.347 -0.4556 -0.1683 -0.5284
11179SOL     OW39499   6.154   1.122   2.588  0.4223  0.2197  0.2474
11179SOL    HW139500   6.180   1.208   2.621  0.5215  0.3379 -0.1287
11179SOL    HW239501   6.173   1.126   2.494  1.5040 -0.5960  0.3994
11180SOL     OW39502   2.181   3.558   3.723 -0.4139  0.4616 -0.4427
11180SOL    HW139503   2.180   3.610   3.803 -0.8348 -2.0004  1.2574
11180SOL    HW239504   2.092   3.524   3.716 -0.6329  1.3163 -2.4948
11181SOL     OW39505  10.686   9.628   9.749  0.5485 -0.5332 -0.3056
11181SOL    HW139506  10.670   9.534   9.740 -1.1872 -0.3109  0.1474
11181SOL    HW239507  10.646   9.666   9.671  0.2805 -0.0892  0.0440
11182SOL     OW39508   1.861   1.336  11.303  0.2281 -0.4648  0.3208
11182SOL    HW139509   1.929   1.268  11.299  0.7878  0.1150 -0.1694
11182SOL    HW239510   1.783   1.293  11.268  1.1284 -0.2215 -2.1922
11183SOL     OW39511   7.791  10.135   3.148  0.1163  0.0924  0.0751
11183SOL    HW139512   7.792  10.204   3.215 -1.9551  0.8381 -0.5872
11183SOL    HW239513   7.710  10.087   3.164  1.7573 -2.6565  0.8663
11184SOL     OW39514   1.740   9.948   8.611 -0.1695  0.4658  0.2224
11184SOL    HW139515   1.674  10.004   8.569 -0.5450  2.3433  3.0454
11184SOL    HW239516   1.691   9.900   8.678  0.9051 -0.0976  0.6304
11185SOL     OW39517   0.718   7.569   3.041  0.0965  0.0864 -0.3499
11185SOL    HW139518   0.789   7.510   3.016  0.8359  1.2590 -1.1098
11185SOL    HW239519   0.722   7.640   2.977 -0.7155  1.0059  0.5849
11186SOL     OW39520   1.593  12.046   9.232 -0.1258 -0.0070 -0.1330
11186SOL    HW139521   1.545  12.020   9.310  0.1287  1.1673  0.4426
11186SOL    HW239522   1.537  12.111   9.190  0.2433  0.1957 -0.3146
11187SOL     OW39523   1.070   5.223   4.174  0.1007  0.5275  0.3717
11187SOL    HW139524   1.132   5.183   4.236 -0.0558 -1.2247 -0.5526
11187SOL    HW239525   1.113   5.304   4.147  2.0511 -0.6522 -0.2613
11188SOL     OW39526   9.179   9.472   8.637  0.2138  0.5199 -0.7446
11188SOL    HW139527   9.098   9.514   8.607  0.1002  1.1895  0.4526
11188SOL    HW239528   9.236   9.475   8.561 -0.7070  0.5007 -1.4576
11189SOL     OW39529   6.768   5.488   0.307  0.6969  0.2309 -0.1058
11189SOL    HW139530   6.858   5.483   0.337  0.6585  1.9558  0.3546
11189SOL    HW239531   6.768   5.439   0.224  1.4854 -1.8304  1.0418
11190SOL     OW39532   6.423  11.914   0.887  0.0036  0.4491  0.5740
11190SOL    HW139533   6.390  11.997   0.851 -2.2813 -0.7607 -0.3151
11190SOL    HW239534   6.391  11.847   0.826  1.1503 -1.1739  1.6707
11191SOL     OW39535   9.165   8.910   8.588 -0.1491  0.1892  0.4124
11191SOL    HW139536   9.080   8.941   8.558 -0.8087 -1.1528  0.8121
11191SOL    HW239537   9.167   8.932   8.681 -0.5082 -0.6899  0.6369
11192SOL     OW39538  11.066   0.770  10.760 -0.1868 -0.2200  0.0002
11192SOL    HW139539  11.006   0.758  10.686  0.7067 -1.1331 -0.5844
11192SOL    HW239540  11.008   0.793  10.833 -1.1758 -0.2985 -0.7347
11193SOL     OW39541   3.083  10.892   0.903 -0.2132  0.2464  0.2053
11193SOL    HW139542   3.106  10.812   0.856 -1.0188  0.4426 -0.5439
11193SOL    HW239543   3.100  10.872   0.995  1.9976  0.0637 -0.1916
11194SOL     OW39544   3.565   4.880   1.920  0.6100  0.2291  0.5686
11194SOL    HW139545   3.600   4.961   1.957  1.4424  0.6379 -0.9951
11194SOL    HW239546   3.603   4.877   1.832  0.4734 -1.7941  0.5469
11195SOL     OW39547   6.602   7.519  10.999  0.2571  0.2724  0.3117
11195SOL    HW139548   6.685   7.505  10.955 -0.4912  0.7198 -1.3009
11195SOL    HW239549   6.585   7.613  10.989 -1.5464 -0.1803 -1.5027
11196SOL     OW39550  11.553   0.801   6.359  0.1528  0.2620 -0.2587
11196SOL    HW139551  11.457   0.796   6.367  0.1689 -1.6400 -0.8319
11196SOL    HW239552  11.585   0.782   6.447  0.0141 -0.7238 -0.4115
11197SOL     OW39553   0.748   3.968   9.519  0.3591 -0.6023 -0.3785
11197SOL    HW139554   0.703   3.900   9.469 -2.3202  0.1509  0.7890
11197SOL    HW239555   0.708   3.963   9.606 -1.8935  3.9279 -0.8233
11198SOL     OW39556   1.121   2.056   2.459 -0.0097  0.1097 -0.2957
11198SOL    HW139557   1.102   2.142   2.496  1.9207  0.9241 -1.0797
11198SOL    HW239558   1.090   2.062   2.368  1.0585  0.3429 -0.6488
11199SOL     OW39559   4.364   8.219   9.441 -0.1130 -0.3119  0.2099
11199SOL    HW139560   4.343   8.143   9.387  1.7579 -0.9346  0.2880
11199SOL    HW239561   4.439   8.192   9.493  1.9254  2.1628 -1.1794
11200SOL     OW39562   4.870   4.919   6.700  0.0287  0.3596 -0.3137
11200SOL    HW139563   4.876   4.946   6.791  0.6510  0.6116 -0.4237
11200SOL    HW239564   4.843   4.998   6.653  0.1685  0.3511 -0.4099
11201SOL     OW39565   7.987   0.051  11.298  0.1117  0.2468 -0.4242
11201SOL    HW139566   7.912   0.100  11.263  0.2918  1.2990  0.6094
11201SOL    HW239567   8.052   0.055  11.228  0.2308  1.7693 -0.2586
11202SOL     OW39568   8.422  10.657   0.098  0.5433  0.7529 -0.0120
11202SOL    HW139569   8.458  10.647   0.187 -0.3393  1.2365  0.4183
11202SOL    HW239570   8.369  10.737   0.103 -1.5464 -0.5394 -0.2519
11203SOL     OW39571  11.632   7.772   6.799 -0.2900 -0.4366 -0.0816
11203SOL    HW139572  11.636   7.716   6.876  2.0343 -0.3451 -0.0678
11203SOL    HW239573  11.720   7.808   6.791 -1.3977  2.4232 -0.6874
11204SOL     OW39574  10.292   1.837   9.482  0.0664  0.3685 -0.6777
11204SOL    HW139575  10.224   1.859   9.418 -0.4007 -1.1093 -0.7423
11204SOL    HW239576  10.248   1.841   9.567 -0.4079 -1.4821 -0.7860
11205SOL     OW39577   0.350   8.684   6.339 -0.4419 -0.1783 -0.2147
11205SOL    HW139578   0.415   8.750   6.363 -1.9372  0.6243  1.9783
11205SOL    HW239579   0.313   8.716   6.256  1.9936 -0.7834 -1.6385
11206SOL     OW39580   1.349   6.942   6.410  0.7413 -0.3629 -0.1130
11206SOL    HW139581   1.438   6.920   6.384  1.4119  1.0944  0.8508
11206SOL    HW239582   1.348   6.933   6.505 -0.1142 -0.2651 -0.1052
11207SOL     OW39583   5.962  12.273   7.855  0.3191 -0.2248 -0.0591
11207SOL    HW139584   5.952  12.327   7.777 -0.2944  0.7734  0.7015
11207SOL    HW239585   6.051  12.290   7.885  0.3769 -0.2117 -0.2385
11208SOL     OW39586  11.077  12.491   2.661  0.3010 -0.0770  0.5108
11208SOL    HW139587  11.137  12.563   2.646 -1.1450  1.4927  1.8658
11208SOL    HW239588  11.041  12.471   2.574 -2.3507  3.7343  0.4666
11209SOL     OW39589   1.741  11.734  11.216 -0.6112 -0.3848 -0.2202
11209SOL    HW139590   1.670  11.798  11.211 -0.8254 -0.6224 -0.2429
11209SOL    HW239591   1.704  11.655  11.178 -0.0481 -0.2555 -1.0684
11210SOL     OW39592   5.257  10.633   5.991  0.2259  0.1952 -0.0704
11210SOL    HW139593   5.191  10.616   6.058 -0.0457  0.1664 -0.3389
11210SOL    HW239594   5.271  10.548   5.949  0.9870  0.0483  0.4757
11211SOL     OW39595   2.468  11.216   6.426  0.2888 -0.2895  0.0263
11211SOL    HW139596   2.444  11.138   6.476  1.5294 -1.5001 -1.1500
11211SOL    HW239597   2.534  11.185   6.364 -0.1803  1.4186 -1.4250
11212SOL     OW39598   1.325   1.084   0.056  0.5582  0.2102 -0.4100
11212SOL    HW139599   1.327   1.173   0.021  1.0465  0.4459  0.2009
11212SOL    HW239600   1.407   1.076   0.105  0.2495 -0.3726  0.0159
11213SOL     OW39601   9.430   3.888   7.445  0.1131 -0.1526 -0.1970
11213SOL    HW139602   9.472   3.809   7.480  2.2252  1.3935  0.9607
11213SOL    HW239603   9.371   3.917   7.515 -1.2569 -1.0506 -0.9229
11214SOL     OW39604   2.695  10.487   7.205 -0.1277 -0.6519  0.1367
11214SOL    HW139605   2.785  10.498   7.234 -0.5185  3.4839  0.4402
11214SOL    HW239606   2.699  10.501   7.110 -0.4423 -0.3214  0.1701
11215SOL     OW39607  11.258   1.148  11.587 -0.4128  0.3601  0.1349
11215SOL    HW139608  11.223   1.136  11.675  1.1898  0.9553  0.8933
11215SOL    HW239609  11.193   1.109  11.529 -1.6659  0.2749  1.5542
11216SOL     OW39610  11.053  10.990   5.044  0.4294  0.6092 -0.0060
11216SOL    HW139611  10.981  10.968   4.984  0.4139  0.6648 -0.0080
11216SOL    HW239612  11.054  10.919   5.108 -0.0310  0.9277  0.3585
11217SOL     OW39613   7.233  10.738   6.002 -0.8615  0.6342 -0.1639
11217SOL    HW139614   7.269  10.710   6.087  0.2270  0.1783 -0.7534
11217SOL    HW239615   7.288  10.812   5.976 -1.2986  0.8811 -0.4072
11218SOL     OW39616   9.190   2.774   1.445  0.0856 -0.0534  0.1311
11218SOL    HW139617   9.121   2.780   1.512  1.7215  0.4707  1.8468
11218SOL    HW239618   9.255   2.715   1.482  2.0288  1.8655 -0.0182
11219SOL     OW39619   2.955   4.628  10.265  0.4559  0.2264 -0.0315
11219SOL    HW139620   3.021   4.579  10.314  0.3201  0.3628  0.2918
11219SOL    HW239621   2.871   4.587  10.290  0.3651  0.4567  0.0417
11220SOL     OW39622   4.978   9.936   0.221 -0.1843 -0.4474  0.3588
11220SOL    HW139623   4.896   9.977   0.248  0.0408  0.9519 -0.9591
11220SOL    HW239624   5.028  10.007   0.181  1.9345 -1.1392  1.6660
11221SOL     OW39625   2.440   7.355   4.784 -0.5288 -0.2294  0.9406
11221SOL    HW139626   2.460   7.363   4.877  2.6966  0.0335  0.3392
11221SOL    HW239627   2.442   7.445   4.752  2.6776 -0.5228 -0.0252
11222SOL     OW39628  12.182   4.663  12.361 -0.6068 -0.3053 -0.2543
11222SOL    HW139629  12.130   4.582  12.361  0.6472 -1.1517  0.2975
11222SOL    HW239630  12.257   4.643  12.418 -0.1987  1.2113 -0.2192
11223SOL     OW39631   5.578  11.383   5.035  0.0779  0.2458 -0.5694
11223SOL    HW139632   5.633  11.390   4.957  0.1749  0.7253 -0.4604
11223SOL    HW239633   5.488  11.378   5.002  0.1596 -0.1187 -0.7327
11224SOL     OW39634   7.863   9.413   1.970  0.0309  0.3342 -0.4804
11224SOL    HW139635   7.781   9.439   2.013  0.1303  1.1905 -0.7949
11224SOL    HW239636   7.924   9.400   2.042 -0.0970  0.7228 -0.2968
11225SOL     OW39637   0.699   3.329   8.638 -0.3053 -0.3430  0.2724
11225SOL    HW139638   0.732   3.311   8.550 -0.6558 -1.2444  0.3129
11225SOL    HW239639   0.667   3.244   8.669 -0.7740  0.0999  1.0218
11226SOL     OW39640   7.614  11.686   1.016 -0.1082  0.2125  0.0875
11226SOL    HW139641   7.564  11.688   0.935  0.1458  0.7427 -0.0599
11226SOL    HW239642   7.567  11.744   1.075  0.6772  1.2327 -0.2648
11227SOL     OW39643   9.383   9.924   2.127 -0.3810 -0.3136 -0.0098
11227SOL    HW139644   9.371   9.866   2.052  0.5623 -0.8222  0.2169
11227SOL    HW239645   9.450   9.881   2.179  1.6574  1.8415 -0.7122
11228SOL     OW39646  12.417   5.534   6.882 -0.1297  0.6562  0.1778
11228SOL    HW139647  12.501   5.496   6.908 -0.2431 -0.3334 -0.8054
11228SOL    HW239648  12.352   5.480   6.927 -0.2982 -0.5255 -1.3963
11229SOL     OW39649   7.675  11.323  11.899 -0.8402  0.2918  0.3677
11229SOL    HW139650   7.593  11.302  11.853  0.1264 -2.0423 -0.4196
11229SOL    HW239651   7.665  11.281  11.985 -0.3627 -0.2306  0.1687
11230SOL     OW39652   8.664   5.570  11.476 -0.1405 -0.1613  0.1408
11230SOL    HW139653   8.623   5.521  11.404  0.7602  0.0721 -0.5498
11230SOL    HW239654   8.591   5.595  11.532 -0.6776 -1.8619  0.2523
11231SOL     OW39655   4.695   5.877   3.125 -0.3135 -0.2461  0.4080
11231SOL    HW139656   4.632   5.895   3.195 -0.3007  0.3838  0.2695
11231SOL    HW239657   4.705   5.961   3.080  2.2380  0.2432  1.7325
11232SOL     OW39658   8.507  10.827   5.539  0.1761  0.2893  0.7236
11232SOL    HW139659   8.417  10.795   5.534  0.3534 -0.7125  2.8434
11232SOL    HW239660   8.559  10.749   5.560  1.2993  1.1565  1.2749
11233SOL     OW39661   2.049   7.371   4.737 -0.5746  0.3829 -0.3263
11233SOL    HW139662   2.121   7.314   4.710  0.6119  1.3020  0.7593
11233SOL    HW239663   1.977   7.311   4.757  0.3793 -0.6797  0.0063
11234SOL     OW39664   3.995   2.991   9.360  0.4395  1.0008 -0.3420
11234SOL    HW139665   4.046   3.001   9.279 -0.6039 -1.1425 -1.3194
11234SOL    HW239666   3.911   2.956   9.332 -0.3301  1.1601  1.6028
11235SOL     OW39667   8.258   1.426   7.776  0.1669 -0.0469  0.1475
11235SOL    HW139668   8.330   1.479   7.812 -0.2310  1.6057 -1.3405
11235SOL    HW239669   8.293   1.391   7.694 -0.1076 -0.8090  0.3526
11236SOL     OW39670   7.042   8.217   6.206  0.1319  0.1515  0.3341
11236SOL    HW139671   7.093   8.240   6.283  0.1066 -0.4977  0.5579
11236SOL    HW239672   7.105   8.213   6.135 -0.0160  1.8386  0.0815
11237SOL     OW39673   2.184   0.419  12.114 -0.2789 -0.2087  0.2761
11237SOL    HW139674   2.263   0.416  12.060 -0.7981  2.8659 -0.8082
11237SOL    HW239675   2.216   0.406  12.204  0.6827 -4.6685 -0.4508
11238SOL     OW39676  11.557   8.810   8.280 -0.3472  0.2449  0.3121
11238SOL    HW139677  11.604   8.879   8.233  0.0240 -1.0932 -1.4106
11238SOL    HW239678  11.467   8.842   8.286 -0.3606  0.5637 -1.1973
11239SOL     OW39679   1.430   0.890  10.089  0.0232 -0.0234 -0.7348
11239SOL    HW139680   1.381   0.960  10.131  0.0201 -0.2548 -0.3501
11239SOL    HW239681   1.514   0.929  10.065 -0.4995  0.4942 -1.7811
11240SOL     OW39682   2.314   3.017   7.553  0.2085 -0.3136  0.2358
11240SOL    HW139683   2.236   2.966   7.532  0.0713 -0.3262  0.7610
11240SOL    HW239684   2.302   3.099   7.507 -1.6541  0.9722  2.7496
11241SOL     OW39685   0.511   8.598   3.625 -0.4505  0.4401 -0.2199
11241SOL    HW139686   0.448   8.549   3.572  0.9182 -1.3543 -0.2828
11241SOL    HW239687   0.570   8.638   3.562 -0.5172  0.7265 -0.1060
11242SOL     OW39688  10.773   9.988  12.239  0.7792  0.3349  0.3129
11242SOL    HW139689  10.831  10.043  12.187  1.1248  0.4826  0.8517
11242SOL    HW239690  10.715   9.947  12.175 -1.5528  3.6467  0.0851
11243SOL     OW39691  10.048   9.730   0.666 -0.1689 -0.1675 -0.3270
11243SOL    HW139692  10.059   9.745   0.572 -0.4703 -3.4650 -1.0225
11243SOL    HW239693   9.954   9.718   0.678 -0.2048  0.8327  0.5380
11244SOL     OW39694  10.624  12.230  10.832  0.1980  0.5810  0.4157
11244SOL    HW139695  10.635  12.215  10.925 -1.6708  1.0725  0.7539
11244SOL    HW239696  10.545  12.182  10.809  1.2914 -0.5720 -1.2163
11245SOL     OW39697   1.747   5.707   5.000  0.0777 -0.2181 -0.1740
11245SOL    HW139698   1.751   5.613   4.982  3.3172 -0.1900 -0.1631
11245SOL    HW239699   1.772   5.715   5.091  3.1233  0.7655 -1.0012
11246SOL     OW39700   0.669   6.655   9.925 -0.2062  0.0421 -0.4494
11246SOL    HW139701   0.714   6.715   9.985  1.0782 -0.6520 -0.6941
11246SOL    HW239702   0.604   6.611   9.980 -0.0647  0.4969  0.0943
11247SOL     OW39703   7.747   0.972  10.104 -0.4274 -0.7726 -0.2774
11247SOL    HW139704   7.755   1.057  10.059  2.0012 -0.8587 -0.1359
11247SOL    HW239705   7.823   0.923  10.075  1.0621 -1.0163  3.5016
11248SOL     OW39706   2.837   1.845   5.609 -0.1969  0.4080  0.5686
11248SOL    HW139707   2.758   1.837   5.662 -0.6457 -1.0097 -0.2752
11248SOL    HW239708   2.838   1.767   5.554  0.8991  1.2333 -0.6552
11249SOL     OW39709  12.173  12.401   8.685  0.5060 -0.3389 -0.1529
11249SOL    HW139710  12.156  12.462   8.756  0.8273  0.1729 -0.5162
11249SOL    HW239711  12.192  12.318   8.729  2.0779  0.2844  0.4177
11250SOL     OW39712   6.419   6.539   9.563 -0.5014 -0.4833 -0.1571
11250SOL    HW139713   6.443   6.594   9.489  0.2585 -0.8580 -0.1900
11250SOL    HW239714   6.444   6.590   9.640 -2.6412  0.5612 -0.0786
11251SOL     OW39715   0.762  11.842   9.302  0.9087  0.0139 -0.1415
11251SOL    HW139716   0.726  11.918   9.348 -0.1167 -0.4002 -0.2433
11251SOL    HW239717   0.700  11.825   9.231  1.2988 -0.7268 -0.3095
11252SOL     OW39718   7.977   8.899   7.050 -0.1192  0.2358  0.1109
11252SOL    HW139719   8.019   8.859   7.127  0.9076 -1.6846 -1.3477
11252SOL    HW239720   8.049   8.946   7.007 -0.3153 -0.0493 -0.5207
11253SOL     OW39721   7.146   0.218   6.293 -0.1123 -0.1128 -0.2752
11253SOL    HW139722   7.179   0.148   6.348  0.4980  0.6127  0.2960
11253SOL    HW239723   7.082   0.263   6.348 -2.1580 -1.5028 -1.3592
11254SOL     OW39724   0.547   1.993   6.677 -0.0842  0.4886  0.0525
11254SOL    HW139725   0.525   1.947   6.596 -1.0634  0.4446  0.3271
11254SOL    HW239726   0.462   2.017   6.715  0.3789  1.3531  0.5820
11255SOL     OW39727   2.045   3.855   2.001  0.5482 -0.6046 -0.2924
11255SOL    HW139728   2.078   3.840   1.913  0.0846 -0.6611 -0.4628
11255SOL    HW239729   2.037   3.768   2.040 -0.2475 -0.6650 -0.5733
11256SOL     OW39730  12.169  11.061  12.488 -0.3946  0.1039  0.1100
11256SOL    HW139731  12.086  11.015  12.475 -0.3295  0.1130 -0.3529
11256SOL    HW239732  12.161  11.101  12.574 -0.7352 -0.1827  0.2129
11257SOL     OW39733   5.756   9.528   4.591 -0.3736 -0.2344  0.1323
11257SOL    HW139734   5.765   9.623   4.583  1.5171 -0.3484  0.3504
11257SOL    HW239735   5.809   9.494   4.519  0.9080 -1.1242  1.4518
11258SOL     OW39736   9.854   1.556   5.668  0.0292  0.4227 -0.5732
11258SOL    HW139737   9.818   1.564   5.580  0.6021 -1.5335 -1.0383
11258SOL    HW239738   9.777   1.556   5.725 -0.3560  1.5084 -1.0731
11259SOL     OW39739   2.671  10.968  12.339  0.3629  0.1833  0.4410
11259SOL    HW139740   2.682  10.957  12.433  1.3559 -2.5181  0.0996
11259SOL    HW239741   2.580  10.944  12.322  0.6453 -1.0061  0.5423
11260SOL     OW39742  10.025  10.302  12.332  0.0815 -0.0731  0.7054
11260SOL    HW139743   9.936  10.268  12.323  0.7965 -1.7426 -0.6508
11260SOL    HW239744  10.019  10.369  12.400 -1.7509 -1.7727  2.3286
11261SOL     OW39745   4.531   0.565   1.403 -0.3492  0.1906  0.4934
11261SOL    HW139746   4.480   0.642   1.376 -0.7815  0.0559  0.9016
11261SOL    HW239747   4.466   0.495   1.408  0.1734 -0.3970 -0.6244
11262SOL     OW39748   2.513  10.045  11.159  0.3452 -0.1822 -0.6274
11262SOL    HW139749   2.462   9.967  11.137  0.8294 -0.7370  0.1715
11262SOL    HW239750   2.446  10.114  11.170 -0.3776 -1.1249  1.3856
11263SOL     OW39751   3.422   3.531  12.406  0.0542  0.4979  0.3270
11263SOL    HW139752   3.362   3.537  12.331 -1.2135 -1.4453  1.0949
11263SOL    HW239753   3.375   3.573  12.478  0.1384  0.0566  0.6414
11264SOL     OW39754   3.281  10.150   5.748 -0.4748 -0.6003  0.3104
11264SOL    HW139755   3.222  10.221   5.722 -0.4363  0.1307  2.1057
11264SOL    HW239756   3.332  10.132   5.669 -0.9840  0.8745 -0.3994
11265SOL     OW39757  11.583   0.493   1.435  0.5284  0.4583  0.7783
11265SOL    HW139758  11.498   0.461   1.464  1.3590 -1.1768  1.5900
11265SOL    HW239759  11.598   0.572   1.487 -0.9373  1.4193 -0.1812
11266SOL     OW39760   9.067  11.592   8.273  0.2769 -0.0871  0.1830
11266SOL    HW139761   9.032  11.663   8.327 -0.3417 -0.1301 -0.1589
11266SOL    HW239762   9.061  11.515   8.329  0.3219  0.0038  0.3150
11267SOL     OW39763   8.416   2.846  12.477  0.3100 -0.7010 -0.3742
11267SOL    HW139764   8.336   2.834  12.426  2.0499 -2.1262 -3.0305
11267SOL    HW239765   8.445   2.935  12.456  0.6626 -1.0454 -1.4562
11268SOL     OW39766   6.211   6.480   8.981 -0.3621  0.3058 -0.8664
11268SOL    HW139767   6.129   6.528   8.972 -1.1444 -0.8674 -0.3123
11268SOL    HW239768   6.190   6.391   8.951  0.9199  0.1831 -1.4670
11269SOL     OW39769   5.075   3.122   3.683 -0.9423  0.2563  0.5577
11269SOL    HW139770   5.160   3.151   3.714 -1.2444  0.5104  1.1701
11269SOL    HW239771   5.050   3.185   3.615  0.8339 -1.6768 -2.1127
11270SOL     OW39772   2.454  12.290   6.500 -0.2579  0.3067  0.1138
11270SOL    HW139773   2.493  12.262   6.583  0.5812 -0.9258 -0.6736
11270SOL    HW239774   2.371  12.242   6.495 -0.0917  0.0260  0.0301
11271SOL     OW39775   8.746  11.881   6.433  0.1428 -0.3228  0.2676
11271SOL    HW139776   8.751  11.801   6.485  1.1003 -0.9273 -0.7147
11271SOL    HW239777   8.659  11.878   6.392  0.7798 -1.7501 -1.1008
11272SOL     OW39778  11.746   9.156   5.329 -0.0253  0.3088  0.3761
11272SOL    HW139779  11.795   9.224   5.376  0.0094  1.0510 -0.7049
11272SOL    HW239780  11.807   9.126   5.261 -1.4294  2.0875 -1.7777
11273SOL     OW39781   0.939   0.566  11.003 -0.3066 -0.0999 -0.0053
11273SOL    HW139782   1.032   0.558  11.027 -0.7769  1.1052  2.6169
11273SOL    HW239783   0.937   0.547  10.909  2.2449 -2.4032  0.2669
11274SOL     OW39784   3.055   4.575   9.787 -0.2554 -0.1474 -0.1340
11274SOL    HW139785   3.072   4.485   9.816 -1.3978 -1.1134 -2.2085
11274SOL    HW239786   3.019   4.619   9.864 -2.2157 -2.2599  0.2682
11275SOL     OW39787   0.335   3.285   6.640  0.2568  0.2457 -0.0502
11275SOL    HW139788   0.266   3.296   6.575  0.2398  1.8612  0.2012
11275SOL    HW239789   0.366   3.374   6.658  1.9426 -0.3727  0.3412
11276SOL     OW39790  10.482   5.455   6.604 -0.4168  0.0751  0.2657
11276SOL    HW139791  10.449   5.369   6.578 -0.9112  0.3941 -0.1864
11276SOL    HW239792  10.421   5.517   6.564  0.7474  0.6841 -0.6663
11277SOL     OW39793   9.853  11.382   5.253  0.2392 -0.3557 -0.2658
11277SOL    HW139794   9.778  11.325   5.272 -0.4380  0.8887  1.0317
11277SOL    HW239795   9.914  11.367   5.325 -0.5914  1.5305  0.9234
11278SOL     OW39796   6.788   4.345   0.633 -0.5953 -0.1103  0.0001
11278SOL    HW139797   6.855   4.395   0.679 -0.2598 -0.9535  0.4572
11278SOL    HW239798   6.825   4.328   0.547 -0.9308  0.8687 -0.3432
11279SOL     OW39799   5.969   8.101   3.064 -0.0563  0.2198  0.1431
11279SOL    HW139800   6.009   8.175   3.018  2.6326  0.0050  1.9522
11279SOL    HW239801   5.953   8.036   2.996  1.3060  0.9324 -0.9039
11280SOL     OW39802   3.286   1.223   5.162  0.0323  0.1507  0.2448
11280SOL    HW139803   3.297   1.179   5.078 -0.7708  2.8573 -1.4308
11280SOL    HW239804   3.192   1.241   5.167  0.0599 -0.0089  1.7844
11281SOL     OW39805   8.315   7.064   1.576  0.1912  0.1008 -0.6471
11281SOL    HW139806   8.396   7.064   1.525  0.1452  1.3212 -0.7616
11281SOL    HW239807   8.289   7.156   1.579 -1.2892 -0.2872 -0.7662
11282SOL     OW39808   3.045   2.022   3.189  0.2280 -0.6579  0.0919
11282SOL    HW139809   2.976   2.088   3.192 -0.5045 -1.2953 -1.4584
11282SOL    HW239810   3.051   1.989   3.278  1.3988  2.2281  1.2290
11283SOL     OW39811  11.296   6.514   1.088 -0.5657 -0.6670 -0.2031
11283SOL    HW139812  11.389   6.521   1.064 -0.9208  1.5434 -1.1066
11283SOL    HW239813  11.295   6.531   1.182 -0.1454  0.4978 -0.3891
11284SOL     OW39814   3.829   0.120   1.769 -0.1437  0.1386 -0.1659
11284SOL    HW139815   3.833   0.072   1.851  1.0116  0.2300 -0.1538
11284SOL    HW239816   3.846   0.053   1.702 -1.9209 -0.1012 -0.4124
11285SOL     OW39817  10.213   4.936   6.140  0.2795 -0.2765  0.3209
11285SOL    HW139818  10.208   4.853   6.188  1.5228 -0.2293  0.5496
11285SOL    HW239819  10.242   5.000   6.205  1.0608 -0.0252 -0.2611
11286SOL     OW39820   0.148   8.541   7.733  0.1176  0.3812 -0.1927
11286SOL    HW139821   0.185   8.575   7.815  2.7674  1.0832 -1.5974
11286SOL    HW239822   0.219   8.492   7.693 -0.6110  1.3259 -2.8147
11287SOL     OW39823   4.988   7.309   7.141  0.5481 -0.3240 -0.7649
11287SOL    HW139824   5.033   7.360   7.208 -1.4464  1.0476 -0.3944
11287SOL    HW239825   5.031   7.333   7.059  0.9353  0.4304 -0.3437
11288SOL     OW39826   7.840   2.501   5.081  0.3856 -0.1862 -0.2235
11288SOL    HW139827   7.927   2.534   5.056 -0.0556  0.9754 -0.3160
11288SOL    HW239828   7.779   2.556   5.031 -0.4044 -0.9109 -0.0703
11289SOL     OW39829   8.903   0.738   9.362 -0.3000 -0.3387 -0.2675
11289SOL    HW139830   8.936   0.701   9.280 -1.6019  1.6858 -1.8149
11289SOL    HW239831   8.844   0.808   9.334 -1.1110  0.1564  2.4310
11290SOL     OW39832   5.041   4.096   0.418 -0.0869  0.1372 -0.0917
11290SOL    HW139833   5.025   4.008   0.451 -0.3994 -0.4475 -1.7097
11290SOL    HW239834   5.018   4.153   0.491  0.0437 -1.1038  0.9672
11291SOL     OW39835   8.161   1.893   6.959  0.5300  0.2609  0.4434
11291SOL    HW139836   8.066   1.907   6.964  0.4559  0.6207 -1.2888
11291SOL    HW239837   8.197   1.946   7.031 -0.5518  0.3069  0.9717
11292SOL     OW39838   4.988  10.465   8.380 -0.1669 -0.2737 -0.2920
11292SOL    HW139839   5.017  10.379   8.349 -0.3878  0.1438 -1.7083
11292SOL    HW239840   4.961  10.511   8.301 -0.5081  0.9352  0.5090
11293SOL     OW39841   2.516   1.788   1.861  0.1138  0.4293  0.4559
11293SOL    HW139842   2.600   1.833   1.851  0.7950 -0.5319  1.6853
11293SOL    HW239843   2.473   1.799   1.776  2.9842 -2.0516 -1.5368
11294SOL     OW39844  10.513   4.408   8.607 -0.5507  0.0233 -0.4449
11294SOL    HW139845  10.469   4.450   8.532  0.6295  1.0312 -0.5998
11294SOL    HW239846  10.597   4.452   8.613 -0.2624 -0.6713  0.9396
11295SOL     OW39847   3.248   4.500   1.099 -0.5072 -0.0189  0.0804
11295SOL    HW139848   3.159   4.513   1.131  0.0997  1.4485  1.2831
11295SOL    HW239849   3.291   4.584   1.112  1.1945 -0.8303 -0.0327
11296SOL     OW39850   4.269   2.913   4.817  0.2834  0.4813 -0.0540
11296SOL    HW139851   4.239   2.975   4.884 -1.2309  0.3593 -0.5938
11296SOL    HW239852   4.250   2.957   4.734 -0.5977 -0.5927 -0.4404
11297SOL     OW39853   6.674  11.827   1.323  0.3233 -0.3180 -0.0164
11297SOL    HW139854   6.713  11.905   1.285 -1.0833  0.9556  1.0176
11297SOL    HW239855   6.733  11.802   1.394  0.1998  0.5225  0.3943
11298SOL     OW39856   6.055   8.420   9.871  0.4205 -0.3429 -0.1194
11298SOL    HW139857   6.045   8.338   9.918  0.9913 -1.1033 -1.2763
11298SOL    HW239858   5.973   8.430   9.822  0.6482 -0.6311 -0.5717
11299SOL     OW39859   3.501   2.932   9.801  0.1413 -0.6655  0.3853
11299SOL    HW139860   3.445   2.855   9.789  1.6983 -2.0095  1.3597
11299SOL    HW239861   3.558   2.933   9.724  0.9313 -1.2162  0.9528
11300SOL     OW39862  11.970   0.681   0.662  0.1352 -0.1593  0.6262
11300SOL    HW139863  12.037   0.745   0.642 -0.0119 -0.5985 -1.5751
11300SOL    HW239864  12.016   0.612   0.711  0.4708  1.1413  2.2414
11301SOL     OW39865   5.654   7.668   7.578 -0.3626 -0.3933  0.4233
11301SOL    HW139866   5.595   7.610   7.530 -2.2979  0.6667  1.4334
11301SOL    HW239867   5.677   7.619   7.657 -0.4597 -0.5270  0.3696
11302SOL     OW39868   2.308  11.976   9.084  0.0495  0.0852  0.3399
11302SOL    HW139869   2.350  11.890   9.073  1.1337  0.6910 -0.3919
11302SOL    HW239870   2.331  12.002   9.173  0.0043 -0.2411  0.4483
11303SOL     OW39871   3.357  10.467   3.151 -0.7226 -0.6416  0.4481
11303SOL    HW139872   3.435  10.520   3.135 -1.0782  0.8092  2.9825
11303SOL    HW239873   3.287  10.509   3.102 -0.7021  0.4379  1.3189
11304SOL     OW39874   2.210   5.158   8.744 -0.0043  0.1626  0.0812
11304SOL    HW139875   2.169   5.092   8.687  2.0590 -0.6809 -0.5437
11304SOL    HW239876   2.217   5.114   8.829 -0.0026  0.1490  0.0742
11305SOL     OW39877   1.781   6.221  12.287  0.1464  0.3319 -0.0094
11305SOL    HW139878   1.704   6.221  12.343 -0.7585 -0.7790 -1.1913
11305SOL    HW239879   1.838   6.154  12.326 -0.3890 -0.2947 -0.2825
11306SOL     OW39880   1.107   1.923   3.175  0.0615 -0.1756 -0.0469
11306SOL    HW139881   1.195   1.916   3.213 -0.1067 -1.3090  0.1555
11306SOL    HW239882   1.103   1.853   3.110 -1.0495 -0.8165  0.6806
11307SOL     OW39883  11.985   6.887   7.124 -1.0185 -0.2069 -0.4608
11307SOL    HW139884  11.985   6.962   7.064 -1.3209  0.0410 -0.1575
11307SOL    HW239885  11.914   6.906   7.186 -1.1100 -0.7572 -0.3957
11308SOL     OW39886   0.291  10.612  11.912  0.2383 -0.2363 -0.1449
11308SOL    HW139887   0.287  10.624  11.817  1.0156 -0.2336 -0.1823
11308SOL    HW239888   0.353  10.541  11.925  0.5156  0.0917  0.3809
11309SOL     OW39889   2.030   2.090  11.488 -0.8369  0.1883  0.6296
11309SOL    HW139890   1.981   2.101  11.407  0.3143 -1.0934 -0.2871
11309SOL    HW239891   1.963   2.070  11.553 -1.5862 -1.5221 -0.5895
11310SOL     OW39892   7.030   4.326   3.190 -0.0421  0.4571 -0.4265
11310SOL    HW139893   6.942   4.353   3.164 -0.3460 -0.3246 -0.2652
11310SOL    HW239894   7.075   4.306   3.108 -0.9112 -1.7495 -0.4430
11311SOL     OW39895   0.274   5.970   4.575  0.4494  0.6722  0.2041
11311SOL    HW139896   0.359   5.929   4.563  0.2750  0.2904  0.2708
11311SOL    HW239897   0.241   5.933   4.657  0.1027  0.6176  0.0407
11312SOL     OW39898   3.218  10.635   1.686  0.4415 -0.3961 -0.2416
11312SOL    HW139899   3.227  10.697   1.758  1.0557  0.1950 -0.8120
11312SOL    HW239900   3.235  10.687   1.607  0.3184 -1.1510 -0.7795
11313SOL     OW39901   4.036   1.213   5.687  0.2128  0.2713 -0.4429
11313SOL    HW139902   4.117   1.163   5.702  0.3627  0.7809  0.5174
11313SOL    HW239903   3.967   1.147   5.685  0.6907 -0.2325 -1.8415
11314SOL     OW39904  10.844   9.337   2.232  0.3942  0.0019  0.1101
11314SOL    HW139905  10.805   9.360   2.148 -0.9850  0.6688  0.9073
11314SOL    HW239906  10.886   9.417   2.263  0.3719 -0.0769  0.3483
11315SOL     OW39907   2.953  12.009   3.463 -0.0828  0.2543  0.3339
11315SOL    HW139908   2.889  11.978   3.398  0.1193 -1.2221  0.8134
11315SOL    HW239909   3.038  12.000   3.420  0.2967 -2.9637  1.5184
11316SOL     OW39910  10.566  11.109  10.198 -0.3316  0.0238 -0.5708
11316SOL    HW139911  10.606  11.194  10.214  0.3719 -0.5592  1.0241
11316SOL    HW239912  10.479  11.115  10.238 -0.3019  0.0154 -0.5044
11317SOL     OW39913   0.420   9.304   2.956  0.3040  0.0680 -0.4210
11317SOL    HW139914   0.459   9.242   3.018  0.8854 -0.7592 -1.5904
11317SOL    HW239915   0.446   9.272   2.870  1.8032  2.7062 -1.0476
11318SOL     OW39916   8.425   0.641   4.918  0.1240  0.2440 -0.1482
11318SOL    HW139917   8.451   0.647   5.010 -1.4849 -1.6878  0.4988
11318SOL    HW239918   8.499   0.678   4.870  0.4376  2.6152  1.9472
11319SOL     OW39919  12.245   9.247  11.777 -0.1433 -0.2073  0.6154
11319SOL    HW139920  12.197   9.185  11.722 -1.8258 -0.4653  2.3007
11319SOL    HW239921  12.189   9.324  11.782  0.4783  0.2260  1.1157
11320SOL     OW39922  10.281   4.986  11.529 -0.7833 -0.2880  0.7420
11320SOL    HW139923  10.241   5.060  11.575 -2.4296 -0.3291 -0.5260
11320SOL    HW239924  10.374   5.008  11.523 -1.2841  1.8178  0.1413
11321SOL     OW39925   9.303   0.469   5.866 -0.1065 -0.6899 -0.0409
11321SOL    HW139926   9.372   0.418   5.824 -0.6695 -0.6673 -1.0184
11321SOL    HW239927   9.329   0.561   5.852  0.8345 -0.6673  1.5979
11322SOL     OW39928   1.965  11.285  11.698 -0.1139 -0.0264 -0.3173
11322SOL    HW139929   1.925  11.318  11.618 -2.1176  0.2687  0.7367
11322SOL    HW239930   1.911  11.322  11.768  1.1701 -0.8193  1.1433
11323SOL     OW39931   7.161   4.695   0.500  0.0746 -0.2186  0.2767
11323SOL    HW139932   7.125   4.704   0.588  0.8148  0.1621  0.5507
11323SOL    HW239933   7.092   4.727   0.442  0.2054  1.1345  0.8284
11324SOL     OW39934  11.757   3.523  11.909  0.4878 -0.3719 -0.2209
11324SOL    HW139935  11.815   3.517  11.833  1.1686  0.7615  0.1894
11324SOL    HW239936  11.670   3.505  11.874  0.8528 -0.3280 -1.1806
11325SOL     OW39937  12.042   1.415   0.101 -0.1497 -0.1174  0.5892
11325SOL    HW139938  12.080   1.503   0.097 -0.7394  0.2455  2.1967
11325SOL    HW239939  12.043   1.384   0.010 -0.3053  1.7114 -0.0735
11326SOL     OW39940  12.238   4.954  10.013  0.2288  0.1048 -0.0296
11326SOL    HW139941  12.210   4.882  10.069 -1.9849  0.6974 -0.2771
11326SOL    HW239942  12.305   5.001  10.064 -1.7813  0.6949  2.2153
11327SOL     OW39943   2.981   8.693  12.377  0.4257 -0.5812  0.0232
11327SOL    HW139944   2.924   8.665  12.305  0.2637  0.0554 -0.1060
11327SOL    HW239945   2.943   8.654  12.455 -0.3430  0.0386 -0.0298
11328SOL     OW39946   0.309   8.881  11.466 -0.0068 -0.5747  0.1473
11328SOL    HW139947   0.377   8.926  11.516  0.6565 -0.8578 -0.4878
11328SOL    HW239948   0.267   8.951  11.416 -0.6221 -0.3019  1.0108
11329SOL     OW39949   0.813   8.364   1.453  0.0042  0.1663  0.4062
11329SOL    HW139950   0.783   8.301   1.519  0.9368  0.2700  0.9375
11329SOL    HW239951   0.904   8.382   1.476  0.7889 -0.8231 -1.7158
11330SOL     OW39952   2.968   7.383  10.435 -0.1081 -0.0093 -0.2748
11330SOL    HW139953   2.959   7.327  10.512  0.8575 -2.5227 -1.8608
11330SOL    HW239954   2.906   7.454  10.450 -1.4962 -1.5274  1.8285
11331SOL     OW39955   1.978   9.838  11.446  0.0133  0.0190  0.0955
11331SOL    HW139956   2.059   9.854  11.398  0.6727  1.2643  1.5466
11331SOL    HW239957   1.997   9.762  11.501 -0.2556 -0.5031 -0.5232
11332SOL     OW39958  10.520  10.287  11.965  1.2043  0.2849 -0.3478
11332SOL    HW139959  10.519  10.313  12.057  1.7003  0.9924 -0.5351
11332SOL    HW239960  10.587  10.343  11.925  0.1387  0.8532 -1.3900
11333SOL     OW39961  11.323   3.919  10.753  0.3329  0.1092  0.2730
11333SOL    HW139962  11.267   3.853  10.712  2.4920 -1.0725 -0.9532
11333SOL    HW239963  11.343   3.882  10.839  0.2309 -0.0320  0.2369
11334SOL     OW39964   8.415   3.914   4.791 -0.0812 -0.0304  0.4352
11334SOL    HW139965   8.485   3.969   4.757  0.1600 -0.4591  0.2437
11334SOL    HW239966   8.393   3.855   4.719  0.7228 -1.2252  1.1454
11335SOL     OW39967  10.361   1.912   0.885  0.2316  0.2539  0.1127
11335SOL    HW139968  10.452   1.885   0.886  0.9179  2.3738  0.1543
11335SOL    HW239969  10.318   1.853   0.823  1.6654 -0.5968 -0.1033
11336SOL     OW39970   9.654   6.592   2.240 -0.8234 -0.3369 -0.2514
11336SOL    HW139971   9.671   6.506   2.202  1.1890  0.0994 -0.4663
11336SOL    HW239972   9.673   6.582   2.333 -3.0421 -0.7147  0.1993
11337SOL     OW39973   3.952   9.244   9.574  0.1046 -0.2520  0.1741
11337SOL    HW139974   3.997   9.184   9.514  0.8606 -0.6463  1.1016
11337SOL    HW239975   4.021   9.277   9.631  0.1474  3.2756 -1.6644
11338SOL     OW39976   3.584   9.261   8.016  0.6603  0.4014  0.1977
11338SOL    HW139977   3.583   9.356   8.033 -0.4572  0.3542  0.4686
11338SOL    HW239978   3.672   9.244   7.983  1.4328  1.2696  1.6730
11339SOL     OW39979   1.827   2.502   7.102 -0.1883 -0.7092  0.0463
11339SOL    HW139980   1.788   2.545   7.026 -0.7294 -1.7830 -0.3082
11339SOL    HW239981   1.905   2.458   7.068  1.4463  1.4700  0.7614
11340SOL     OW39982   4.575   1.159   7.484 -0.0633 -0.0335 -0.2842
11340SOL    HW139983   4.575   1.247   7.521 -2.1199 -0.8434  1.9115
11340SOL    HW239984   4.507   1.160   7.418 -0.6374 -0.1369  0.2917
11341SOL     OW39985   7.011   0.404   6.493  0.5065  0.1501 -0.3906
11341SOL    HW139986   6.921   0.434   6.503  0.5430  0.2892 -0.4734
11341SOL    HW239987   7.062   0.484   6.484  0.8471  0.1382  1.2256
11342SOL     OW39988   7.698   6.282   9.232 -0.7415 -0.8219 -0.0821
11342SOL    HW139989   7.761   6.216   9.259 -1.7670 -1.2045  1.5377
11342SOL    HW239990   7.698   6.346   9.303 -0.3498  0.5351 -1.2544
11343SOL     OW39991   2.668   1.376   4.415  0.3264 -0.1017 -0.0922
11343SOL    HW139992   2.588   1.397   4.366  0.7727  0.6716 -0.4908
11343SOL    HW239993   2.640   1.309   4.478  0.0436 -2.2651 -2.3802
11344SOL     OW39994   5.516   2.506  10.401 -0.2462  0.0463  0.2010
11344SOL    HW139995   5.443   2.455  10.367 -0.3421  0.4827 -0.2599
11344SOL    HW239996   5.563   2.537  10.324  2.3129 -2.8077  0.4464
11345SOL     OW39997   3.939   1.834   7.302  0.3783  0.1864  0.1411
11345SOL    HW139998   3.962   1.761   7.245 -1.3263 -0.1972 -0.1231
11345SOL    HW239999   3.965   1.912   7.254  0.1610 -0.1868 -0.5966
11346SOL     OW40000   1.197   6.357   3.701 -0.0652  0.7920 -0.0046
11346SOL    HW140001   1.165   6.316   3.781  1.5840 -2.1093 -0.6909
11346SOL    HW240002   1.258   6.425   3.731  1.3263 -0.9311  1.2946
11347SOL     OW40003   0.819   3.999  11.047 -0.1347 -0.0976 -0.1023
11347SOL    HW140004   0.740   3.963  11.008 -0.3396  1.2848 -1.0291
11347SOL    HW240005   0.887   3.985  10.982  0.6259 -2.0618  1.0429
11348SOL     OW40006   3.465   5.916   8.692 -0.1405 -0.4637 -0.2020
11348SOL    HW140007   3.551   5.936   8.728 -0.9174  1.2471  0.7904
11348SOL    HW240008   3.437   5.838   8.740 -0.3016  0.6102  1.5282
11349SOL     OW40009   6.611   8.901  11.542  0.2675  0.1483 -0.3947
11349SOL    HW140010   6.559   8.849  11.603 -1.1703 -1.0563 -2.5155
11349SOL    HW240011   6.700   8.868  11.552 -0.5400 -2.6481 -1.4618
11350SOL     OW40012   5.499   3.374   9.675 -0.1238 -0.1278 -0.3339
11350SOL    HW140013   5.513   3.463   9.642  2.0957 -0.0738  0.6057
11350SOL    HW240014   5.514   3.380   9.769  1.3886 -1.7279 -0.4281
11351SOL     OW40015   1.740   2.621   0.046  0.6141  0.3967  0.0835
11351SOL    HW140016   1.650   2.592   0.031  0.6843  0.7276 -1.0516
11351SOL    HW240017   1.784   2.545   0.083 -0.0105  0.0918  0.2163
11352SOL     OW40018   3.786   7.593   0.550 -0.5068  0.0662 -0.3029
11352SOL    HW140019   3.849   7.581   0.621 -1.1953 -1.9842  0.0211
11352SOL    HW240020   3.834   7.568   0.471 -0.4023  0.2145 -0.2875
11353SOL     OW40021   8.639   4.395  10.636 -0.4876  0.5890 -0.4791
11353SOL    HW140022   8.557   4.347  10.650 -0.0997  0.1237  0.2345
11353SOL    HW240023   8.707   4.329  10.641 -0.0511  0.9873 -0.9907
11354SOL     OW40024  10.983   4.591   1.341  0.2178  0.6795  0.2323
11354SOL    HW140025  10.938   4.673   1.322 -1.1705  0.2154  1.3239
11354SOL    HW240026  11.068   4.618   1.376 -0.4838  1.6766  1.2288
11355SOL     OW40027   5.215   5.133   5.064 -0.1274  0.2301  0.0702
11355SOL    HW140028   5.292   5.095   5.021  0.2004  2.1388 -1.1137
11355SOL    HW240029   5.237   5.225   5.076 -1.6416  0.4915  1.1451
11356SOL     OW40030   9.732   5.570   0.575  0.0611 -0.0725  0.1489
11356SOL    HW140031   9.642   5.595   0.596  0.1863  0.2967  0.2491
11356SOL    HW240032   9.729   5.474   0.569 -0.4490 -0.0282 -0.3746
11357SOL     OW40033   0.852   9.501   8.343 -0.0840  0.4835  0.8015
11357SOL    HW140034   0.786   9.504   8.273  2.0914  0.3156 -1.3842
11357SOL    HW240035   0.841   9.584   8.389 -2.1977  0.2009  0.9113
11358SOL     OW40036  12.041   1.577   3.130 -0.1112 -0.4324 -0.0951
11358SOL    HW140037  11.977   1.607   3.194  0.0047  0.1907 -0.2713
11358SOL    HW240038  12.019   1.484   3.116  2.0667 -1.7199  3.5650
11359SOL     OW40039  10.266   6.367   5.285  0.2582  0.6609  0.4735
11359SOL    HW140040  10.201   6.407   5.227  0.7756  2.2585  0.9347
11359SOL    HW240041  10.242   6.275   5.288 -1.8640  1.1614  0.4889
11360SOL     OW40042   5.124  10.993   1.904 -0.5422 -0.1657 -0.2998
11360SOL    HW140043   5.043  10.943   1.920 -0.2830 -0.1787  1.1044
11360SOL    HW240044   5.103  11.081   1.935  0.3793 -0.4921  1.4058
11361SOL     OW40045   9.059  11.302   7.457 -0.0143 -0.2404 -0.1266
11361SOL    HW140046   8.966  11.305   7.436 -0.0521 -2.2539 -0.3899
11361SOL    HW240047   9.063  11.316   7.552 -0.5144  0.4794 -0.2040
11362SOL     OW40048  12.258   7.431   4.504  0.1382 -0.1745  0.1833
11362SOL    HW140049  12.207   7.512   4.505  1.8965  0.9989  0.6928
11362SOL    HW240050  12.299   7.430   4.417  0.1651 -0.4997  0.1985
11363SOL     OW40051   2.403   1.536   7.499  0.1048 -0.0494  0.2661
11363SOL    HW140052   2.414   1.441   7.502  0.7708  0.0331  0.5741
11363SOL    HW240053   2.378   1.559   7.589  1.3212  0.2196  0.5546
11364SOL     OW40054   6.019  11.992   5.918  0.2343 -0.0924  0.1006
11364SOL    HW140055   6.104  12.036   5.921  0.9377 -1.1737 -1.9596
11364SOL    HW240056   6.025  11.924   5.985  0.3729  0.8178  1.0351
11365SOL     OW40057   2.757   2.427   7.279 -0.6138 -0.2093  0.0606
11365SOL    HW140058   2.811   2.360   7.321 -1.0075  0.5972  1.9584
11365SOL    HW240059   2.746   2.494   7.346 -3.4515 -0.0579 -0.4427
11366SOL     OW40060   5.050   8.052  10.431 -0.3577 -0.0078  0.1786
11366SOL    HW140061   4.970   8.081  10.387 -1.4547 -1.5118  1.1023
11366SOL    HW240062   5.021   7.983  10.490  1.4959  0.0814  1.2504
11367SOL     OW40063   5.111  11.994   0.092  0.2662 -0.2745 -0.0410
11367SOL    HW140064   5.121  11.977   0.186 -1.5666 -0.2903  0.1854
11367SOL    HW240065   5.030  12.044   0.085  0.2210 -0.5198 -1.6459
11368SOL     OW40066   7.273   2.272   9.554 -0.0004 -0.0788  0.2422
11368SOL    HW140067   7.304   2.302   9.468 -3.2609  0.5385 -0.8343
11368SOL    HW240068   7.331   2.316   9.616  2.8308 -0.9786 -1.5610
11369SOL     OW40069   3.343   1.047   8.601  0.1951  0.4683 -0.3722
11369SOL    HW140070   3.314   0.985   8.668  2.5151 -1.2334 -0.7963
11369SOL    HW240071   3.262   1.083   8.565 -1.1746 -0.4182  1.6389
11370SOL     OW40072   9.829   5.464   3.212  0.6650 -0.1919 -0.0633
11370SOL    HW140073   9.906   5.411   3.192  0.4151 -0.3543 -0.6013
11370SOL    HW240074   9.863   5.552   3.225  0.8404 -0.0807 -1.2057
11371SOL     OW40075  11.550  10.277   0.143 -0.2142  0.2945  0.1675
11371SOL    HW140076  11.490  10.227   0.089  0.1797  0.8914 -0.8549
11371SOL    HW240077  11.499  10.352   0.173 -0.1482  0.4899 -0.2103
11372SOL     OW40078   0.470   2.918  11.359  0.0133  0.0419  0.6733
11372SOL    HW140079   0.421   2.998  11.381  0.7901  0.7078  0.0555
11372SOL    HW240080   0.506   2.936  11.272 -1.4211 -1.7664 -0.3585
11373SOL     OW40081   9.982   6.238   5.823  0.4605 -1.0116 -0.4057
11373SOL    HW140082   9.969   6.314   5.766 -0.6916 -1.9024 -1.3813
11373SOL    HW240083   9.932   6.258   5.901  0.6999 -0.4944 -0.3797
11374SOL     OW40084   5.601  11.080   7.376  0.4781  0.0094  0.4481
11374SOL    HW140085   5.629  11.034   7.455 -0.1216 -2.0423 -0.4714
11374SOL    HW240086   5.664  11.054   7.309 -0.1226  0.1923 -0.1998
11375SOL     OW40087  10.697  11.393   9.572  0.6922  0.0751 -0.1664
11375SOL    HW140088  10.672  11.472   9.620 -0.8020 -0.9183  0.7710
11375SOL    HW240089  10.770  11.358   9.622  0.3860  0.0722  0.2900
11376SOL     OW40090   2.785   8.857  12.193  0.3828 -1.0776  0.0330
11376SOL    HW140091   2.793   8.918  12.267 -1.3433  2.0216 -2.1081
11376SOL    HW240092   2.692   8.860  12.170  0.7884 -2.3056 -1.9513
11377SOL     OW40093   8.782  12.271   4.805  0.1493  0.0229  0.0111
11377SOL    HW140094   8.739  12.349   4.840  0.0713  0.7815 -1.6942
11377SOL    HW240095   8.711  12.218   4.769  0.3479 -0.1200 -0.1762
11378SOL     OW40096  12.114   1.366   0.531 -0.8616 -0.5502 -0.0367
11378SOL    HW140097  12.199   1.408   0.520 -0.1912 -1.7857  0.1622
11378SOL    HW240098  12.125   1.279   0.492 -1.1657 -1.7313  2.3249
11379SOL     OW40099   2.111   4.448   6.062 -0.9475  0.2559  0.0169
11379SOL    HW140100   2.070   4.433   5.977 -1.0574 -1.1353  0.2948
11379SOL    HW240101   2.162   4.528   6.050 -1.0875  0.1700 -1.3043
11380SOL     OW40102  11.009   2.677   4.691  0.1387  0.1145  0.2189
11380SOL    HW140103  11.002   2.730   4.771 -0.3780  2.2855 -1.1789
11380SOL    HW240104  10.919   2.647   4.676 -0.1549  1.2926 -0.5210
11381SOL     OW40105   5.855   9.235   0.333  0.3988  0.0967 -0.3720
11381SOL    HW140106   5.818   9.322   0.315 -0.4281 -0.0698  0.4083
11381SOL    HW240107   5.910   9.248   0.410  0.0717 -0.1073 -0.0976
11382SOL     OW40108  12.403   3.227   7.005 -0.0574  0.3527 -0.4159
11382SOL    HW140109  12.399   3.229   7.100  1.9326  3.7611 -0.2480
11382SOL    HW240110  12.314   3.208   6.977 -1.5040  2.6511  2.1919
11383SOL     OW40111  10.872   3.464   7.878  0.2053 -0.3545 -0.2844
11383SOL    HW140112  10.791   3.450   7.830 -0.8345  2.1191  0.5408
11383SOL    HW240113  10.930   3.508   7.816 -0.0526  0.1924 -0.1438
11384SOL     OW40114  12.454  10.818   6.375  0.4408  0.1433 -0.3535
11384SOL    HW140115  12.469  10.840   6.283  1.4039 -0.5023 -0.3632
11384SOL    HW240116  12.527  10.760   6.398 -0.9382 -1.4167  0.2230
11385SOL     OW40117  11.667   6.896   6.192  0.4499 -0.0586 -0.3789
11385SOL    HW140118  11.677   6.945   6.110 -2.0807 -0.6080 -1.1044
11385SOL    HW240119  11.638   6.961   6.255 -1.0406 -0.2300 -0.8557
11386SOL     OW40120   1.499  10.149  11.137  0.2663 -0.1415 -0.0548
11386SOL    HW140121   1.591  10.148  11.164  0.0691  0.2187  0.6431
11386SOL    HW240122   1.473  10.241  11.144 -0.3085 -0.3283  0.2989
11387SOL     OW40123   2.781  10.420   3.866  0.1781  0.2165 -0.2465
11387SOL    HW140124   2.848  10.365   3.825 -1.2435 -1.3513 -0.5804
11387SOL    HW240125   2.816  10.440   3.953  0.2807 -2.2467  0.3410
11388SOL     OW40126   3.865   0.584   3.964  0.5376 -0.5511  0.0869
11388SOL    HW140127   3.845   0.631   4.045  0.0821  0.0016 -0.3383
11388SOL    HW240128   3.952   0.614   3.940 -0.0613  0.7350 -0.6121
11389SOL     OW40129   5.299   0.305   4.458  0.0388 -0.0105 -0.0971
11389SOL    HW140130   5.299   0.396   4.429 -0.8566  0.6492  1.8583
11389SOL    HW240131   5.313   0.255   4.377  3.6052  1.8918 -0.8659
11390SOL     OW40132   6.959  11.169   3.033 -0.0095  0.1353  0.2178
11390SOL    HW140133   6.986  11.118   3.110 -0.0689 -0.0438  0.1221
11390SOL    HW240134   7.022  11.144   2.965  0.6095  0.9863  0.4612
11391SOL     OW40135   5.878   6.678   2.439  0.1247 -0.0598  0.4414
11391SOL    HW140136   5.882   6.620   2.363 -1.3211  1.0985 -0.6011
11391SOL    HW240137   5.905   6.763   2.405 -0.1543  0.3856  1.3180
11392SOL     OW40138   2.527  12.476   9.648 -0.1855  0.3524 -0.3040
11392SOL    HW140139   2.470  12.495   9.574 -1.0874 -1.2365 -0.0628
11392SOL    HW240140   2.581  12.403   9.619  1.5813  1.6388 -0.4176
11393SOL     OW40141   0.183  10.446   8.324 -0.3454  0.2294 -0.2346
11393SOL    HW140142   0.205  10.455   8.231  0.3355 -0.5405 -0.1652
11393SOL    HW240143   0.238  10.510   8.368 -1.0983  1.0122 -0.4001
11394SOL     OW40144   9.182   9.389   8.892 -0.3202  0.4881  0.4169
11394SOL    HW140145   9.174   9.423   8.803  0.4399  1.8833  0.8514
11394SOL    HW240146   9.275   9.400   8.914  0.1059 -2.4160  0.4078
11395SOL     OW40147   7.488   8.099   6.324  0.4009 -0.0563  0.4356
11395SOL    HW140148   7.570   8.108   6.275 -0.2833  0.0468 -0.7203
11395SOL    HW240149   7.492   8.169   6.390  1.5545 -0.5175  0.8861
11396SOL     OW40150   0.294   7.152   9.450  0.0823  0.3821  0.1702
11396SOL    HW140151   0.269   7.166   9.541  0.5287 -1.2545  0.5722
11396SOL    HW240152   0.211   7.140   9.404 -0.1099  0.4945  0.4881
11397SOL     OW40153  11.250   9.175   2.794  0.0909  0.0035 -0.5337
11397SOL    HW140154  11.290   9.236   2.732  1.5850  1.4332  1.6862
11397SOL    HW240155  11.206   9.110   2.739 -0.7936  2.5184 -3.0593
11398SOL     OW40156  11.268  10.709   7.488 -0.7257 -0.0010 -0.1483
11398SOL    HW140157  11.219  10.790   7.501  0.7911  0.8311  0.5448
11398SOL    HW240158  11.220  10.663   7.419 -3.7943 -0.2909  1.9261
11399SOL     OW40159   5.516   2.284   5.906  0.3669 -0.2850  0.5334
11399SOL    HW140160   5.518   2.189   5.909 -0.0851 -0.2979  0.4288
11399SOL    HW240161   5.553   2.311   5.990 -0.8978 -0.5675  1.2011
11400SOL     OW40162  10.648   3.302   3.000  0.3196  0.2458 -0.2167
11400SOL    HW140163  10.589   3.242   2.955 -1.2719  2.2791 -0.9907
11400SOL    HW240164  10.668   3.370   2.936 -0.6958  2.3549  1.5331
11401SOL     OW40165   2.062  10.761   0.057  0.5387 -0.2224 -0.3150
11401SOL    HW140166   2.089  10.671   0.073  1.3638  0.1120  0.2236
11401SOL    HW240167   2.087  10.778  -0.034  0.9606 -0.3346 -0.2216
11402SOL     OW40168   2.376  12.449   0.114 -0.0045 -0.2610  0.0505
11402SOL    HW140169   2.441  12.519   0.114 -0.2588 -0.0142  0.6794
11402SOL    HW240170   2.425  12.371   0.090  0.4223  0.0080  0.0327
11403SOL     OW40171  11.422   6.314  10.793 -0.1278 -0.1575 -0.7466
11403SOL    HW140172  11.365   6.247  10.755  0.2287 -1.0139  0.1897
11403SOL    HW240173  11.454   6.363  10.717 -0.2008 -1.1933 -1.4824
11404SOL     OW40174  10.357   4.833  10.566 -0.1921  0.1572 -0.1923
11404SOL    HW140175  10.369   4.854  10.659 -2.3502  0.5271  0.0637
11404SOL    HW240176  10.360   4.737  10.563  1.6798  0.1670 -0.0804
11405SOL     OW40177  10.843   7.593   1.492 -0.2241  0.0205  0.1350
11405SOL    HW140178  10.923   7.626   1.534  0.4709 -2.0564  0.5618
11405SOL    HW240179  10.777   7.594   1.561 -0.4777  1.3423 -0.1055
11406SOL     OW40180   2.565   8.162   5.695  0.1009  0.2911 -0.0112
11406SOL    HW140181   2.559   8.127   5.606 -0.6530  2.1340 -0.7263
11406SOL    HW240182   2.643   8.120   5.732 -1.0426 -2.5288 -0.5748
11407SOL     OW40183   3.020   9.289   1.154  0.0662  0.0397 -0.1054
11407SOL    HW140184   2.940   9.325   1.192  0.1093 -1.0365  1.0440
11407SOL    HW240185   2.998   9.277   1.061 -1.2711 -0.6555  0.2722
11408SOL     OW40186  10.150   7.885   9.291 -0.7117 -0.2270  0.1515
11408SOL    HW140187  10.102   7.852   9.367  0.3865 -1.5125  0.3404
11408SOL    HW240188  10.139   7.817   9.225 -1.3050  0.6861 -0.7051
11409SOL     OW40189   8.981   7.659   2.178 -0.5566  0.0132  0.5926
11409SOL    HW140190   8.963   7.629   2.088  2.4701 -0.3153 -0.0089
11409SOL    HW240191   8.993   7.579   2.228  0.3950  0.1939  0.6614
11410SOL     OW40192   8.366   5.809   7.580  0.4960 -0.4095  0.4614
11410SOL    HW140193   8.409   5.892   7.599 -0.2489  0.1397 -0.2073
11410SOL    HW240194   8.274   5.824   7.600  0.3049 -0.9797  0.0469
11411SOL     OW40195   4.946  12.371   1.470 -0.1453  0.1878  0.3625
11411SOL    HW140196   4.901  12.412   1.543 -0.5649 -1.4944  1.1103
11411SOL    HW240197   4.903  12.286   1.460  1.0194 -0.3171 -0.7438
11412SOL     OW40198   0.850   2.726   6.319  0.5419  0.4491  0.2956
11412SOL    HW140199   0.758   2.745   6.298  0.0955  0.6122  2.2229
11412SOL    HW240200   0.895   2.733   6.235 -1.1952  0.3816 -0.7034
11413SOL     OW40201   5.674   9.298   2.603  0.1056  0.1802  0.1201
11413SOL    HW140202   5.739   9.230   2.625 -0.7301 -0.0615  2.0466
11413SOL    HW240203   5.726   9.368   2.565  1.3827 -0.4288  0.6541
11414SOL     OW40204   8.860   2.175   7.919 -0.1450 -0.3716 -0.0835
11414SOL    HW140205   8.773   2.163   7.881 -0.0594  1.3818 -0.9205
11414SOL    HW240206   8.912   2.213   7.848  1.0901 -0.6142  0.6610
11415SOL     OW40207   2.311   0.500   2.341  0.2003  0.4678  0.4552
11415SOL    HW140208   2.226   0.542   2.357 -0.2830 -1.0192  2.0702
11415SOL    HW240209   2.362   0.517   2.420  0.7914 -0.0584  0.1980
11416SOL     OW40210   7.492   3.523   3.754  0.1592 -0.4960  0.3404
11416SOL    HW140211   7.529   3.449   3.705  0.1431 -0.2625 -0.0268
11416SOL    HW240212   7.530   3.515   3.842 -1.7063 -2.3620  1.0510
11417SOL     OW40213  12.141   9.057   4.565 -0.1158  0.2054  0.1384
11417SOL    HW140214  12.129   9.151   4.552  0.2822  0.6611  2.5441
11417SOL    HW240215  12.054   9.025   4.590 -0.2433 -0.0626 -0.6407
11418SOL     OW40216   4.901   6.124   3.199  0.0699  0.1277 -0.2225
11418SOL    HW140217   4.914   6.218   3.189 -2.1722  0.3191 -2.1516
11418SOL    HW240218   4.834   6.102   3.135  0.4451 -2.7904  0.2499
11419SOL     OW40219   3.556   6.659   4.939 -0.6175  0.1564  0.2082
11419SOL    HW140220   3.527   6.581   4.986  0.6559  0.2051  1.1390
11419SOL    HW240221   3.591   6.627   4.857 -3.3011  0.1059 -1.0293
11420SOL     OW40222   6.722   5.510   5.820 -0.4172  0.1107 -0.0167
11420SOL    HW140223   6.637   5.469   5.837 -1.0775  0.8153 -1.4219
11420SOL    HW240224   6.701   5.589   5.769  1.0768  0.3410 -0.3335
11421SOL     OW40225  11.323  11.435   3.759 -0.6508  0.0158  0.5344
11421SOL    HW140226  11.373  11.434   3.841 -1.8896  0.4566  1.3253
11421SOL    HW240227  11.232  11.424   3.786 -1.1592  0.8565 -0.7245
11422SOL     OW40228   9.556   8.459   5.064  0.4103 -0.2750 -0.2706
11422SOL    HW140229   9.612   8.416   4.998 -0.1224 -1.5256  0.0590
11422SOL    HW240230   9.517   8.386   5.112  0.9412  0.6129  1.5802
11423SOL     OW40231   6.208   2.950   4.865 -0.0369  0.4092 -0.0743
11423SOL    HW140232   6.261   3.023   4.896 -1.3375  1.0690  0.6875
11423SOL    HW240233   6.123   2.962   4.907 -0.7080 -0.7869 -1.0064
11424SOL     OW40234   7.661   8.992   8.179 -0.4037 -0.2230  0.9236
11424SOL    HW140235   7.752   8.984   8.149 -0.4884  1.2117  0.2384
11424SOL    HW240236   7.625   8.904   8.167  0.2046 -0.2456 -1.1300
11425SOL     OW40237   3.384   1.883   5.762 -0.4172 -0.9591  0.4971
11425SOL    HW140238   3.472   1.847   5.769  0.5206  0.7409 -1.5300
11425SOL    HW240239   3.372   1.900   5.669 -1.9280  1.1025  0.9942
11426SOL     OW40240   0.132   5.217   4.325 -0.7403  0.9767  0.5715
11426SOL    HW140241   0.190   5.161   4.376 -0.9156  0.0335 -0.2306
11426SOL    HW240242   0.135   5.301   4.370  1.9609  1.2541  0.0508
11427SOL     OW40243  10.577   2.626   9.578 -0.5560  0.3034 -0.2702
11427SOL    HW140244  10.619   2.540   9.574  1.5476  0.9471  3.3585
11427SOL    HW240245  10.647   2.685   9.606 -2.5768  2.6837  0.0368
11428SOL     OW40246   1.170   6.547  12.126 -0.1523  0.2555 -0.4687
11428SOL    HW140247   1.219   6.629  12.130  1.3213 -0.5696 -1.1012
11428SOL    HW240248   1.117   6.554  12.047  0.3587  0.4017 -0.8032
11429SOL     OW40249  10.870   1.449  11.397 -0.5471 -0.1290 -0.0049
11429SOL    HW140250  10.882   1.447  11.302  3.1430  0.7436  0.2828
11429SOL    HW240251  10.818   1.528  11.413  0.0686  0.5524 -1.2511
11430SOL     OW40252   0.391  12.364   9.944 -0.0986  0.0415 -0.0294
11430SOL    HW140253   0.470  12.401   9.905 -0.6295  0.0144 -1.1811
11430SOL    HW240254   0.330  12.438   9.949 -0.6020 -0.2931 -0.8343
11431SOL     OW40255   3.308   2.366   1.430 -0.1965 -0.2814 -0.2681
11431SOL    HW140256   3.300   2.397   1.340 -0.5724 -0.6142 -0.3523
11431SOL    HW240257   3.222   2.331   1.451  0.3019 -1.5790 -0.3008
11432SOL     OW40258  10.865   7.602   4.527  0.1690  0.2214 -0.0332
11432SOL    HW140259  10.899   7.692   4.532 -0.3984  0.4544 -0.2763
11432SOL    HW240260  10.812   7.593   4.606 -0.9491  0.5998 -0.7297
11433SOL     OW40261  10.179   8.611   0.743  0.2801 -0.0131  0.2372
11433SOL    HW140262  10.135   8.687   0.782  1.8186  0.9850  0.0971
11433SOL    HW240263  10.244   8.585   0.809 -0.0022 -1.0007  0.1330
11434SOL     OW40264  11.785   2.572   1.456 -1.0660 -0.1489 -0.0086
11434SOL    HW140265  11.860   2.562   1.516 -1.0668 -0.9630 -0.1338
11434SOL    HW240266  11.804   2.652   1.407  0.1178 -0.7550 -0.5806
11435SOL     OW40267   4.557   5.097  11.103  0.3845  0.3902 -0.3013
11435SOL    HW140268   4.488   5.142  11.054  0.2590  0.8469  0.2742
11435SOL    HW240269   4.513   5.064  11.182  1.2146  2.7153  1.2649
11436SOL     OW40270  11.723   6.507   6.022 -0.3176 -0.3586 -0.3885
11436SOL    HW140271  11.774   6.586   6.002  1.1794 -1.0669  0.4578
11436SOL    HW240272  11.694   6.520   6.112  1.1725 -1.3612  0.2777
11437SOL     OW40273   6.552   0.733   8.246  0.5015 -0.2103 -0.4626
11437SOL    HW140274   6.622   0.732   8.311 -0.1321 -0.1063  0.2344
11437SOL    HW240275   6.487   0.794   8.281 -0.3836 -1.0329 -0.6104
11438SOL     OW40276   7.207   9.304  11.179 -0.0274 -0.3592  0.8836
11438SOL    HW140277   7.286   9.249  11.180  1.3425  1.4935  0.5616
11438SOL    HW240278   7.190   9.323  11.271  1.2435  0.9604  0.8927
11439SOL     OW40279  10.995  11.065  11.960  0.1012  0.2751  0.0310
11439SOL    HW140280  10.906  11.060  11.924 -0.7575 -0.9187  2.1134
11439SOL    HW240281  11.007  10.982  12.005  1.6822  1.0529  1.1400
11440SOL     OW40282  12.059  10.018   4.767 -0.6205 -0.2783  0.1305
11440SOL    HW140283  12.031   9.945   4.712  0.6293 -1.6172  1.1753
11440SOL    HW240284  12.136  10.053   4.722 -0.4084 -0.5051  0.3084
11441SOL     OW40285   6.499   7.290   0.074  0.4419 -0.3406 -0.3004
11441SOL    HW140286   6.493   7.280  -0.021  0.1457 -1.3411 -0.1863
11441SOL    HW240287   6.578   7.342   0.088 -0.3604  1.1665 -1.1635
11442SOL     OW40288   6.076   4.255   3.831 -0.3711 -0.1301 -0.0179
11442SOL    HW140289   6.085   4.329   3.891 -1.5669  1.0126 -1.1913
11442SOL    HW240290   5.987   4.223   3.844 -0.1767 -0.7554 -0.1907
11443SOL     OW40291   8.602   8.027   1.409  0.3867  0.0197  0.1555
11443SOL    HW140292   8.692   8.032   1.377  0.6244 -2.2572  0.3116
11443SOL    HW240293   8.607   8.056   1.500  1.1196 -0.7016  0.3652
11444SOL     OW40294   5.900   0.376   0.134 -0.1391 -0.0453  0.4072
11444SOL    HW140295   5.911   0.297   0.187 -1.9976 -0.3853  0.3650
11444SOL    HW240296   5.960   0.439   0.173 -0.2818 -0.7782  1.9294
11445SOL     OW40297   1.827   2.885   6.438  0.1982 -0.6516 -0.2419
11445SOL    HW140298   1.840   2.971   6.398  0.9054 -0.5520  0.1726
11445SOL    HW240299   1.904   2.873   6.493 -0.4264 -1.0700  0.5662
11446SOL     OW40300   1.334   6.332  10.163 -0.3165 -0.7494  0.3783
11446SOL    HW140301   1.364   6.423  10.160  0.4455 -0.9553  1.1567
11446SOL    HW240302   1.245   6.335  10.129 -1.0253  0.5930  2.1750
11447SOL     OW40303   4.254   9.756   1.824  0.4311 -0.1763  0.4372
11447SOL    HW140304   4.328   9.792   1.776  0.1297  2.2678  1.6573
11447SOL    HW240305   4.274   9.662   1.833  4.2703  0.6176  2.1550
11448SOL     OW40306   1.738   4.121   9.318  0.5406  0.3257 -0.1612
11448SOL    HW140307   1.707   4.177   9.389 -0.1029 -0.1937 -0.0201
11448SOL    HW240308   1.677   4.047   9.317  1.2385 -0.2677 -0.4794
11449SOL     OW40309   1.255   8.456   2.128 -0.2000 -0.5485  0.1058
11449SOL    HW140310   1.263   8.475   2.221 -0.7065 -0.3758  0.1177
11449SOL    HW240311   1.240   8.541   2.086  1.0224 -0.5004 -0.2555
11450SOL     OW40312   3.845  10.305  10.628 -0.2364 -0.3634 -0.4512
11450SOL    HW140313   3.779  10.252  10.672 -0.6571  0.1280 -0.4772
11450SOL    HW240314   3.795  10.375  10.585  0.3772  0.6742  0.4710
11451SOL     OW40315   5.297   2.376   0.390  0.3525 -0.7567  0.5526
11451SOL    HW140316   5.254   2.295   0.417  1.4498 -1.6831 -0.3764
11451SOL    HW240317   5.344   2.405   0.468  0.5922 -1.4599  0.6802
11452SOL     OW40318  10.019   7.394   3.925  0.0941  0.0988 -0.0418
11452SOL    HW140319  10.077   7.359   3.993 -0.9116  0.1800  0.8762
11452SOL    HW240320   9.985   7.317   3.880  0.6943  0.0424 -0.4133
11453SOL     OW40321   2.692   2.991   0.086  0.4948  0.0715 -0.2533
11453SOL    HW140322   2.688   2.969  -0.007  0.0712 -1.6621  0.1449
11453SOL    HW240323   2.675   3.085   0.089 -1.0157 -0.1016 -1.8028
11454SOL     OW40324   8.811   5.848   0.430  0.1243  0.2002 -0.4962
11454SOL    HW140325   8.752   5.860   0.356 -0.3444 -2.5089 -0.6666
11454SOL    HW240326   8.772   5.900   0.500 -0.2118  1.6604 -1.7059
11455SOL     OW40327   1.986   6.840   8.675 -0.7498 -0.1009  0.1746
11455SOL    HW140328   1.899   6.840   8.715  0.7499 -0.6939  3.7696
11455SOL    HW240329   2.009   6.747   8.670 -0.2963  0.0527 -0.7298
11456SOL     OW40330   2.269   4.519   2.150 -0.2764 -0.1293 -0.1730
11456SOL    HW140331   2.192   4.463   2.155  0.0561 -0.5510  0.3329
11456SOL    HW240332   2.241   4.602   2.189 -0.7822  0.0879 -0.9697
11457SOL     OW40333   6.583   4.183   9.358 -0.2475 -0.1702 -0.4918
11457SOL    HW140334   6.670   4.219   9.376 -0.6024 -0.0742  1.1962
11457SOL    HW240335   6.590   4.090   9.383 -0.7787 -0.0213  0.2499
11458SOL     OW40336  12.011   4.694   4.817 -0.2756 -0.3728 -0.1956
11458SOL    HW140337  11.955   4.769   4.838  1.3696  0.4750  1.4850
11458SOL    HW240338  11.952   4.619   4.818 -1.5324  0.5770  0.7115
11459SOL     OW40339   6.565   7.739   3.800 -0.5810 -0.0848  0.3202
11459SOL    HW140340   6.559   7.811   3.738  1.1669 -0.2953 -0.1457
11459SOL    HW240341   6.481   7.693   3.793 -1.4455  1.4724  0.1250
11460SOL     OW40342   8.370   6.401  10.754  0.0179 -0.5686 -0.2397
11460SOL    HW140343   8.281   6.371  10.776  0.1824 -2.4396 -1.8785
11460SOL    HW240344   8.424   6.367  10.825 -0.5551  0.7846  0.9006
11461SOL     OW40345   7.686   4.749   7.434 -0.4690  0.4103 -0.1790
11461SOL    HW140346   7.613   4.705   7.476 -2.1228 -0.4181 -3.5822
11461SOL    HW240347   7.646   4.808   7.371  1.7600  0.4311 -1.7131
11462SOL     OW40348   1.424   7.122   0.131 -0.1193 -0.7053  0.0777
11462SOL    HW140349   1.376   7.196   0.167  2.7391  0.5614  1.5793
11462SOL    HW240350   1.459   7.155   0.048 -0.2618 -0.9820 -0.0948
11463SOL     OW40351   1.759   2.419   2.751 -0.3053  0.1825  0.3187
11463SOL    HW140352   1.764   2.513   2.767  0.3162  0.0274  1.1173
11463SOL    HW240353   1.775   2.409   2.657  2.4609  0.6981  0.6579
11464SOL     OW40354   3.110   0.871   5.226 -0.2876  0.4186  0.1059
11464SOL    HW140355   3.175   0.892   5.292 -0.3968  0.3587  0.2327
11464SOL    HW240356   3.040   0.935   5.240  0.4244  1.4939 -1.0257
11465SOL     OW40357   8.574   7.662   5.390  0.0445  0.0069  0.1481
11465SOL    HW140358   8.524   7.633   5.466  0.9407 -1.2981  0.2669
11465SOL    HW240359   8.614   7.582   5.355 -0.0615  0.6299 -1.4936
11466SOL     OW40360  10.632   2.727   0.720  0.4564 -0.4791 -0.3972
11466SOL    HW140361  10.633   2.823   0.726 -2.1867 -0.4335  0.3088
11466SOL    HW240362  10.723   2.704   0.704  1.2846  2.1096  0.0537
11467SOL     OW40363   0.288   6.268   2.963  0.5793 -0.1791 -0.0597
11467SOL    HW140364   0.246   6.265   2.877 -0.9532  0.3374  0.6298
11467SOL    HW240365   0.259   6.188   3.007 -1.4179  1.1049  1.1425
11468SOL     OW40366   2.788   9.309  12.215  0.5553 -0.7540  0.1948
11468SOL    HW140367   2.804   9.398  12.183 -1.9429 -0.0316  0.6790
11468SOL    HW240368   2.776   9.320  12.309 -0.0805 -1.5467  0.2141
11469SOL     OW40369   4.436   1.473   2.636 -0.0337 -0.1877 -0.1266
11469SOL    HW140370   4.436   1.382   2.606  0.9602 -0.4050  0.4591
11469SOL    HW240371   4.393   1.471   2.721 -0.1813 -0.0739 -0.1976
11470SOL     OW40372  10.518   0.086   2.110  0.1611  0.6065 -0.2153
11470SOL    HW140373  10.483   0.018   2.167 -0.9188 -0.6296 -2.2660
11470SOL    HW240374  10.606   0.055   2.088  0.2790  0.6887  0.1330
11471SOL     OW40375  11.279   5.548   3.296  0.3833 -0.3718  0.4143
11471SOL    HW140376  11.204   5.527   3.352 -0.3000 -0.2507 -0.4433
11471SOL    HW240377  11.346   5.580   3.357 -0.6235  0.5350  1.0846
11472SOL     OW40378   3.910  12.162  10.693  0.2665 -0.2006 -0.2984
11472SOL    HW140379   3.845  12.216  10.647  0.1431 -0.3284 -0.2765
11472SOL    HW240380   3.993  12.181  10.649  0.0661 -0.7228 -0.9292
11473SOL     OW40381   9.390   5.111   5.873  0.1421 -0.2303  0.0008
11473SOL    HW140382   9.333   5.036   5.891 -0.6779  0.7995  2.1168
11473SOL    HW240383   9.371   5.172   5.944  2.1286  1.2120 -0.6233
11474SOL     OW40384   8.175   2.032   9.674  0.0441  0.1921  0.1779
11474SOL    HW140385   8.148   2.088   9.747  0.4395  0.3217  0.2265
11474SOL    HW240386   8.270   2.025   9.683  0.0283 -0.2548  0.0024
11475SOL     OW40387   3.241   1.096   1.518  0.0361  0.3964  0.5636
11475SOL    HW140388   3.251   1.001   1.523 -1.4894  0.2213  0.6452
11475SOL    HW240389   3.154   1.110   1.481  0.1037  1.7730  0.8438
11476SOL     OW40390   9.698   4.310   7.240 -0.2671 -0.4145  0.3760
11476SOL    HW140391   9.688   4.237   7.180  1.3251  0.1585 -0.6383
11476SOL    HW240392   9.651   4.382   7.198  0.0842 -0.2494  0.2698
11477SOL     OW40393   0.098  10.935  12.210  0.1815  0.6060 -0.2591
11477SOL    HW140394   0.062  10.847  12.214  0.8506  0.3723  2.3169
11477SOL    HW240395   0.165  10.930  12.142 -1.1179 -0.2905 -1.5277
11478SOL     OW40396   4.774   7.391   8.457  0.6421  0.6218  0.0268
11478SOL    HW140397   4.791   7.298   8.441  1.1852  0.7130  0.0593
11478SOL    HW240398   4.726   7.420   8.380 -0.8788 -0.0321  0.6829
11479SOL     OW40399   4.743  12.456  10.499 -0.2836 -0.5106 -0.2313
11479SOL    HW140400   4.788  12.487  10.421 -0.3548 -0.9996 -0.4690
11479SOL    HW240401   4.664  12.510  10.504  0.1721  0.1474  0.0242
11480SOL     OW40402   9.052   6.608   2.799 -0.4775 -0.1371  0.7201
11480SOL    HW140403   8.997   6.616   2.877  0.6507  1.4239  1.4030
11480SOL    HW240404   9.019   6.674   2.739  0.4973  0.6875  1.0662
11481SOL     OW40405   5.263   7.233   1.702  0.1545 -0.7062  0.1084
11481SOL    HW140406   5.268   7.200   1.791 -0.4935 -1.0756  0.0126
11481SOL    HW240407   5.184   7.288   1.701  1.0416  0.6109  0.1838
11482SOL     OW40408   5.374   1.735   6.745  0.1216  0.5256  0.1951
11482SOL    HW140409   5.390   1.823   6.778  0.6011 -0.4378  2.8042
11482SOL    HW240410   5.279   1.728   6.739  0.0609  1.0307  0.5374
11483SOL     OW40411  11.039   7.436   5.827  0.1141 -0.3653  0.0754
11483SOL    HW140412  10.948   7.410   5.813  0.2656 -1.2918  0.7079
11483SOL    HW240413  11.056   7.502   5.760 -0.7803 -0.7639 -0.5630
11484SOL     OW40414   6.313   9.382   2.315 -0.6518 -0.8369  0.2555
11484SOL    HW140415   6.351   9.456   2.267 -0.6665 -0.9942 -0.0015
11484SOL    HW240416   6.377   9.363   2.384  0.3964 -1.9053 -0.9332
11485SOL     OW40417   3.150  10.448   3.586 -0.3334 -0.0017  0.1314
11485SOL    HW140418   3.067  10.485   3.557 -0.1421  0.5871  0.3066
11485SOL    HW240419   3.153  10.468   3.680  0.6052  1.2120 -0.1181
11486SOL     OW40420   3.414  12.100   8.558  0.5494 -0.2178  0.1474
11486SOL    HW140421   3.335  12.048   8.572  0.4142  0.4272  2.0505
11486SOL    HW240422   3.475  12.040   8.515 -0.1586 -1.4712  0.8354
11487SOL     OW40423  10.613   1.815   0.855 -0.1528  0.2805  0.5296
11487SOL    HW140424  10.635   1.867   0.777 -1.0206  0.1991  0.2136
11487SOL    HW240425  10.696   1.781   0.886  0.3971  1.6082  0.5594
11488SOL     OW40426   7.455   3.435   7.589 -0.4017 -0.0320 -0.4459
11488SOL    HW140427   7.440   3.509   7.529 -0.5744 -0.3921 -0.8478
11488SOL    HW240428   7.403   3.456   7.667  0.4153  0.8078 -0.1008
11489SOL     OW40429  10.912   7.027   3.469  0.4787  0.0642 -0.0667
11489SOL    HW140430  10.868   7.014   3.553  0.7047  0.7059  0.1572
11489SOL    HW240431  10.999   6.989   3.481  0.0109 -1.2071 -0.5104
11490SOL     OW40432   1.372   0.282   8.022 -0.3992 -0.5921 -0.3339
11490SOL    HW140433   1.398   0.245   8.106 -3.5017 -1.2387  0.4602
11490SOL    HW240434   1.282   0.313   8.035 -0.5137  0.5588 -3.0466
11491SOL     OW40435   5.513   6.782   3.119  0.2763  0.3860 -0.3843
11491SOL    HW140436   5.505   6.744   3.206  0.7424  0.1070 -0.4570
11491SOL    HW240437   5.544   6.872   3.134 -1.4631  0.9903 -0.1790
11492SOL     OW40438   9.446   7.089   6.568 -0.1220  0.1548  0.7052
11492SOL    HW140439   9.352   7.091   6.584 -0.5282  0.3414 -1.3849
11492SOL    HW240440   9.465   6.999   6.543 -0.5146  0.8068 -2.4281
11493SOL     OW40441   0.146   5.458   4.727 -0.1177  0.0832 -0.0673
11493SOL    HW140442   0.168   5.445   4.635 -1.0768 -0.1219 -0.2785
11493SOL    HW240443   0.107   5.545   4.731  0.5575  0.3820  0.2769
11494SOL     OW40444   5.484   9.367   8.094  0.2391  0.6622  0.1934
11494SOL    HW140445   5.441   9.442   8.135 -1.9846  0.5855 -1.7359
11494SOL    HW240446   5.549   9.406   8.036  0.4101  0.9846  0.5967
11495SOL     OW40447   2.916   1.794   9.555  0.4000  0.1513 -0.0750
11495SOL    HW140448   2.958   1.746   9.483 -0.1227 -1.4212  0.6172
11495SOL    HW240449   2.848   1.735   9.586 -0.4116  1.4588  0.7185
11496SOL     OW40450   2.515   6.853  10.236  0.2236  0.0725  0.2891
11496SOL    HW140451   2.503   6.778  10.294 -0.3478  1.3857  1.9445
11496SOL    HW240452   2.543   6.815  10.152 -0.1208 -1.9629  1.0569
11497SOL     OW40453   7.437   1.075   4.356  0.1333  0.4525 -0.0083
11497SOL    HW140454   7.461   1.166   4.377  0.5361  0.6144 -1.0982
11497SOL    HW240455   7.443   1.029   4.440 -0.8354  1.5861  0.7205
11498SOL     OW40456   1.335   6.672   8.679 -0.1297 -0.2433  0.0213
11498SOL    HW140457   1.364   6.673   8.770 -0.9986  0.9967  0.3084
11498SOL    HW240458   1.260   6.732   8.677 -1.0294 -1.3381 -1.2195
11499SOL     OW40459  11.229   3.501   3.850 -0.2738 -0.4438 -0.2031
11499SOL    HW140460  11.258   3.475   3.763 -0.2505  0.7564 -0.5638
11499SOL    HW240461  11.133   3.504   3.844 -0.2785 -0.4869 -0.1557
11500SOL     OW40462   7.692  10.902   6.172 -0.1278  0.5652 -0.5849
11500SOL    HW140463   7.739  10.827   6.208  1.7334  1.5764 -0.7531
11500SOL    HW240464   7.760  10.969   6.162 -2.0262  2.9597  1.4047
11501SOL     OW40465   2.068   2.474   0.533 -0.3205 -0.0677 -0.8410
11501SOL    HW140466   2.150   2.480   0.484 -0.5764 -0.6338 -1.3507
11501SOL    HW240467   2.027   2.393   0.501 -0.8200 -0.0777 -0.1972
11502SOL     OW40468  12.058  11.937   0.036 -0.2715  0.2108  0.2586
11502SOL    HW140469  12.055  11.933   0.131 -0.8834 -0.0392  0.2369
11502SOL    HW240470  12.050  11.846   0.007 -2.4494  0.4321 -0.0498
11503SOL     OW40471   8.866   5.241   9.086  0.2194  0.0651 -0.1973
11503SOL    HW140472   8.835   5.165   9.134  0.3531 -0.8138 -1.4436
11503SOL    HW240473   8.856   5.217   8.994  1.4860  1.0353 -0.6290
11504SOL     OW40474   4.651  11.807   6.823 -0.2291 -0.2412 -0.1306
11504SOL    HW140475   4.569  11.766   6.795 -0.2593 -1.1497  1.1669
11504SOL    HW240476   4.662  11.778   6.914  0.8654  0.9291  0.1388
11505SOL     OW40477   1.522  11.278   6.389  0.2540 -0.0219  0.0883
11505SOL    HW140478   1.469  11.329   6.451 -0.5693 -0.0861 -0.5485
11505SOL    HW240479   1.573  11.219   6.444  2.2872  2.3796  0.9712
11506SOL     OW40480   7.682   2.142   4.311 -0.3824  0.0110  0.6116
11506SOL    HW140481   7.773   2.136   4.339 -0.2236  2.4685  0.8067
11506SOL    HW240482   7.640   2.198   4.376 -1.2328  1.5866 -1.1998
11507SOL     OW40483   2.755   8.174   4.252  0.2331  0.0395 -0.3946
11507SOL    HW140484   2.834   8.148   4.300 -0.4002 -1.1503  0.0296
11507SOL    HW240485   2.747   8.109   4.183 -0.7987 -0.2939  0.0316
11508SOL     OW40486   5.209   9.010   3.431 -0.2282  0.2954  0.3214
11508SOL    HW140487   5.228   8.979   3.519 -0.4512 -1.1559 -0.1073
11508SOL    HW240488   5.146   8.947   3.397  0.5153  0.3086 -1.1771
11509SOL     OW40489   4.206   7.539  11.621  0.3024  0.1035 -0.1817
11509SOL    HW140490   4.294   7.521  11.654  0.5940  1.0819 -0.3797
11509SOL    HW240491   4.196   7.479  11.547  1.7702  1.5671 -1.6797
11510SOL     OW40492   9.341  12.098  10.609  0.1823  0.6979  0.1728
11510SOL    HW140493   9.369  12.030  10.547 -0.3338  0.2127  0.4560
11510SOL    HW240494   9.399  12.172  10.592 -0.1746  0.7044 -1.1266
11511SOL     OW40495   1.938   7.224   6.677  0.3405 -0.2277  0.3125
11511SOL    HW140496   2.023   7.197   6.711  1.0212  2.0622  0.6143
11511SOL    HW240497   1.907   7.290   6.739 -0.0807  1.3849 -1.5069
11512SOL     OW40498   9.252  11.425   3.643  0.2707  0.5753 -0.1145
11512SOL    HW140499   9.335  11.385   3.668 -0.0520  0.5891  1.0351
11512SOL    HW240500   9.205  11.355   3.597 -0.2624 -0.4020  1.8177
11513SOL     OW40501  12.152   8.018   2.818 -0.1260  0.4378  0.1351
11513SOL    HW140502  12.163   8.096   2.762 -1.3673  0.0826 -0.6406
11513SOL    HW240503  12.082   8.042   2.878 -1.1437 -0.3805 -0.6956
11514SOL     OW40504   3.982   7.467   9.478 -0.2305 -0.3363  0.4281
11514SOL    HW140505   3.935   7.438   9.557 -0.0636 -1.7426  0.0422
11514SOL    HW240506   4.028   7.388   9.447  1.6181  0.7480  0.2458
11515SOL     OW40507   8.167   7.799   1.373 -0.1071  0.0438 -0.8550
11515SOL    HW140508   8.244   7.765   1.326  0.4821 -0.5834  0.5138
11515SOL    HW240509   8.112   7.721   1.387 -0.3972  0.2719 -0.7176
11516SOL     OW40510   8.223  10.616   4.633 -0.2742 -0.3645 -0.2638
11516SOL    HW140511   8.131  10.629   4.657 -1.0840  3.3726 -4.1067
11516SOL    HW240512   8.219  10.578   4.545  1.7692  0.6540 -0.8598
11517SOL     OW40513  12.212  12.163   8.154  0.0344  0.0002  0.3520
11517SOL    HW140514  12.231  12.253   8.127 -1.0772  0.0199 -0.4358
11517SOL    HW240515  12.140  12.136   8.097  0.9934 -1.7340 -0.0894
11518SOL     OW40516  10.431   8.392  10.074  0.1097  0.5127 -0.1501
11518SOL    HW140517  10.445   8.452  10.147  2.9592  1.0217 -0.9594
11518SOL    HW240518  10.430   8.448   9.996  0.6908 -0.2912 -0.7538
11519SOL     OW40519   8.086   6.149   2.026  0.4388  0.1811  0.1279
11519SOL    HW140520   8.066   6.240   2.006  2.0928  0.0993 -2.3549
11519SOL    HW240521   8.174   6.152   2.065 -0.1323 -0.2755  1.5390
11520SOL     OW40522   2.737   0.330  10.954 -0.1653  0.6600 -0.3629
11520SOL    HW140523   2.805   0.356  10.892  1.3056  2.0446  1.6898
11520SOL    HW240524   2.785   0.285  11.024 -1.5623  0.3975  0.4512
11521SOL     OW40525   7.637   6.782   6.826 -0.4648 -0.1718  0.0800
11521SOL    HW140526   7.544   6.767   6.845 -0.8692 -0.1637 -1.7549
11521SOL    HW240527   7.644   6.877   6.818 -0.1588 -0.1272  0.8092
11522SOL     OW40528  11.627   6.314  11.202 -0.4590 -1.0704  0.0959
11522SOL    HW140529  11.715   6.348  11.214 -0.5381 -1.1760  1.0625
11522SOL    HW240530  11.624   6.285  11.110  0.5679 -1.2484  0.1130
11523SOL     OW40531   3.282   0.473   1.544 -0.3635 -0.0208 -0.4967
11523SOL    HW140532   3.235   0.393   1.519  2.1213 -1.2689 -1.5880
11523SOL    HW240533   3.338   0.446   1.616 -0.1120  0.9727 -0.3042
11524SOL     OW40534   4.822   2.132   7.986 -0.0268  0.0252 -0.2811
11524SOL    HW140535   4.904   2.106   8.027  0.5286  2.3973  0.2889
11524SOL    HW240536   4.754   2.088   8.037  0.8360 -1.6879 -0.5455
11525SOL     OW40537  11.568   4.997   4.221 -0.2227 -0.0854 -0.0616
11525SOL    HW140538  11.497   5.003   4.285  0.7769  1.5093  0.9818
11525SOL    HW240539  11.634   4.941   4.264 -0.0960 -0.0761 -0.2434
11526SOL     OW40540   2.597   7.758  10.772 -0.4969 -0.0430 -0.3735
11526SOL    HW140541   2.614   7.665  10.756  0.9588  0.3878 -1.4957
11526SOL    HW240542   2.660   7.783  10.840 -0.1538  0.3624 -0.8340
11527SOL     OW40543   6.546   3.330   5.117  0.2437  0.2715  0.0807
11527SOL    HW140544   6.570   3.409   5.165 -0.5533  0.5550  0.0165
11527SOL    HW240545   6.549   3.355   5.025  0.5428  0.0694  0.0329
11528SOL     OW40546   1.314   1.707   3.876 -0.0238 -0.0131 -0.0090
11528SOL    HW140547   1.349   1.642   3.937  0.1408 -0.6666 -0.7712
11528SOL    HW240548   1.391   1.750   3.840 -0.1202  0.3788  0.2542
11529SOL     OW40549  10.693   4.062   7.070  0.3395 -0.0812 -0.2035
11529SOL    HW140550  10.747   4.035   6.996 -0.1537  0.2791 -0.7024
11529SOL    HW240551  10.631   4.125   7.033  0.3108  0.3685  0.5838
11530SOL     OW40552   0.862  10.084   1.158 -0.2344 -0.3098  0.0409
11530SOL    HW140553   0.930  10.143   1.191  2.0265 -1.2891 -2.4773
11530SOL    HW240554   0.878  10.002   1.205 -0.4485 -0.2103  0.2903
11531SOL     OW40555   7.990   7.591   5.171 -0.3904 -0.5108 -0.0691
11531SOL    HW140556   8.018   7.608   5.081 -1.1873 -1.9647 -0.6288
11531SOL    HW240557   7.899   7.619   5.174  0.0604  0.9520  0.7473
11532SOL     OW40558  10.594   7.559   9.050 -0.1434  0.2472 -0.3494
11532SOL    HW140559  10.635   7.491   9.102  1.8633 -0.3660 -2.5772
11532SOL    HW240560  10.527   7.596   9.108 -0.0047 -2.2712  1.5935
11533SOL     OW40561   7.603   3.635   9.151  0.5247  0.1224 -0.3545
11533SOL    HW140562   7.615   3.720   9.109 -0.1661 -0.1480 -1.1239
11533SOL    HW240563   7.686   3.620   9.197  0.7747  1.0617 -0.4644
11534SOL     OW40564   4.898   3.467  12.464 -0.1526  0.0513 -0.5061
11534SOL    HW140565   4.932   3.529  12.399  0.7832  1.0841  0.9209
11534SOL    HW240566   4.851   3.522  12.527  1.3936 -0.5336  1.2447
11535SOL     OW40567   8.961   9.225   6.669 -0.0238  0.4382 -0.0487
11535SOL    HW140568   8.980   9.181   6.751 -0.5546  1.3968  0.6040
11535SOL    HW240569   8.947   9.316   6.693  2.7535  1.3793 -1.5427
11536SOL     OW40570   2.329   7.512  10.614  0.2944  0.2291 -0.1407
11536SOL    HW140571   2.336   7.417  10.618  1.7742  0.3136 -0.1179
11536SOL    HW240572   2.374   7.542  10.693  1.1665  0.9926 -0.9190
11537SOL     OW40573   9.746   0.224   0.186  0.3935  0.3764 -0.1729
11537SOL    HW140574   9.830   0.180   0.170 -0.6349 -1.4537 -0.8111
11537SOL    HW240575   9.764   0.316   0.168  2.0088 -0.1157 -1.3390
11538SOL     OW40576  11.240   5.601   8.155  0.0279 -0.4391  0.4086
11538SOL    HW140577  11.147   5.578   8.150 -0.7591  1.9593  2.2459
11538SOL    HW240578  11.277   5.536   8.215 -0.9067 -0.3160  1.1509
11539SOL     OW40579   7.087   4.297   3.472  0.3295  0.2783 -0.5681
11539SOL    HW140580   7.049   4.296   3.384 -0.1672  2.3666 -0.4153
11539SOL    HW240581   7.048   4.374   3.514  0.3648 -0.8080  1.5791
11540SOL     OW40582   5.550   4.208   3.108  0.0561 -0.4023 -0.3667
11540SOL    HW140583   5.609   4.147   3.152  2.3237  0.6636 -1.7654
11540SOL    HW240584   5.599   4.289   3.102 -1.3752  0.4075 -2.0579
11541SOL     OW40585   0.574   5.316   4.752  0.2150  0.4352 -0.1915
11541SOL    HW140586   0.572   5.234   4.801  2.6127 -0.3241 -1.2634
11541SOL    HW240587   0.513   5.373   4.800 -0.2635 -1.4059  1.5320
11542SOL     OW40588   9.879   6.700   5.960  0.8040  0.0710 -0.6837
11542SOL    HW140589   9.859   6.658   6.044 -0.5779  1.3268 -0.3473
11542SOL    HW240590   9.798   6.692   5.910  1.1354  0.6563 -1.3276
11543SOL     OW40591  11.384   2.473   6.524 -0.1290  0.2496  0.0726
11543SOL    HW140592  11.442   2.398   6.536 -1.2030 -0.2890  2.5979
11543SOL    HW240593  11.443   2.547   6.510  0.9733 -0.8851 -1.5043
11544SOL     OW40594   3.895   7.776   7.385  0.1891  0.5001  0.0681
11544SOL    HW140595   3.985   7.752   7.407 -0.3649 -0.3810  1.6127
11544SOL    HW240596   3.902   7.858   7.338  1.7629  0.8610  0.8623
11545SOL     OW40597   5.405  10.565  10.709 -0.3957  0.1290 -0.0264
11545SOL    HW140598   5.389  10.656  10.733 -0.9262  0.2771 -0.8647
11545SOL    HW240599   5.389  10.515  10.789  0.4312  0.8110  0.5765
11546SOL     OW40600   2.314   3.502   4.258  0.3008  0.0378  0.4030
11546SOL    HW140601   2.275   3.492   4.171  1.2970 -0.2320 -0.0237
11546SOL    HW240602   2.397   3.455   4.252 -0.0494 -0.8236  1.8027
11547SOL     OW40603   9.029   5.944   9.152  0.1480  0.1479  0.2824
11547SOL    HW140604   9.117   5.933   9.187 -0.5353  0.3796  2.1936
11547SOL    HW240605   9.004   6.033   9.177 -0.7024  0.0151 -0.0642
11548SOL     OW40606   6.697   6.351   8.614  0.4882  0.4969 -0.3672
11548SOL    HW140607   6.687   6.305   8.697  0.7152  1.1086  0.0059
11548SOL    HW240608   6.624   6.320   8.561 -0.7244  1.4291  0.6867
11549SOL     OW40609  11.641   2.132   3.959  0.2603 -0.2164 -0.0838
11549SOL    HW140610  11.659   2.216   3.917 -0.3079  0.5449  1.1471
11549SOL    HW240611  11.708   2.126   4.028 -0.9197  0.1980  1.1396
11550SOL     OW40612  11.560   1.068  11.613 -0.0531  0.3084 -0.4340
11550SOL    HW140613  11.467   1.088  11.606  0.1142  1.0244 -0.7118
11550SOL    HW240614  11.567   1.016  11.693 -0.4675  1.8132  0.6332
11551SOL     OW40615   9.717   9.301   1.572 -0.3550 -0.1709  0.1296
11551SOL    HW140616   9.798   9.309   1.523 -0.6141 -0.9674 -0.4440
11551SOL    HW240617   9.652   9.347   1.519 -0.4839 -0.3942  0.0917
11552SOL     OW40618   6.772  12.034   1.184 -0.2683  0.2483 -0.0380
11552SOL    HW140619   6.790  12.016   1.092 -1.1894 -0.2460 -0.1307
11552SOL    HW240620   6.711  12.108   1.182 -0.5981 -0.0169  0.1574
11553SOL     OW40621   2.916   9.017   5.591  0.0052 -0.2005  0.1737
11553SOL    HW140622   2.884   8.971   5.514  3.0648 -0.3625 -1.1699
11553SOL    HW240623   2.921   9.109   5.564  1.3618 -0.2971 -0.0038
11554SOL     OW40624   2.604   9.118   3.417 -0.1383  0.1559  0.0625
11554SOL    HW140625   2.620   9.026   3.435 -0.0568  0.3642  1.1345
11554SOL    HW240626   2.609   9.126   3.322 -0.3747 -0.9801 -0.0519
11555SOL     OW40627  12.141   4.349  11.107  0.3538  0.1487 -0.2102
11555SOL    HW140628  12.059   4.314  11.142  0.2309 -0.7345 -1.3167
11555SOL    HW240629  12.175   4.404  11.177 -0.6385 -0.3280  0.6844
11556SOL     OW40630   8.157   2.972  10.578 -0.3480 -0.0700 -0.0821
11556SOL    HW140631   8.194   3.057  10.600  0.6620 -0.3183 -0.7829
11556SOL    HW240632   8.226   2.926  10.530 -0.8935 -1.2681  0.2244
11557SOL     OW40633   4.784   6.536  12.257  0.0461 -0.1110  0.3093
11557SOL    HW140634   4.786   6.631  12.260 -0.4468 -0.1043  0.3539
11557SOL    HW240635   4.703   6.511  12.301 -0.2652 -0.5143 -0.4674
11558SOL     OW40636   4.792   1.011   8.300 -0.2800 -0.0850  0.2372
11558SOL    HW140637   4.750   1.037   8.382 -0.4351 -0.4736  0.2846
11558SOL    HW240638   4.719   0.987   8.243 -0.2353  1.0636 -0.3340
11559SOL     OW40639   7.422   5.307   5.100 -0.1083 -0.0681 -0.1217
11559SOL    HW140640   7.343   5.264   5.070 -0.8027 -0.8216  2.4976
11559SOL    HW240641   7.394   5.396   5.121 -0.0496 -0.0677 -0.0447
11560SOL     OW40642   2.445   0.194   1.361 -0.1117 -0.1638 -0.3245
11560SOL    HW140643   2.437   0.223   1.452 -0.0508  1.2412 -0.7433
11560SOL    HW240644   2.389   0.116   1.355 -1.0595  0.4275  0.6187
11561SOL     OW40645  10.645   0.310  12.308  0.7250  0.2010  0.2988
11561SOL    HW140646  10.586   0.277  12.375  0.6334 -0.2615 -0.0044
11561SOL    HW240647  10.705   0.237  12.289  0.9189  0.4136  0.0699
11562SOL     OW40648   2.975   9.988   8.333 -0.0510  0.1509 -0.3442
11562SOL    HW140649   3.012   9.964   8.418 -0.9634 -0.2418 -0.0441
11562SOL    HW240650   2.890   9.945   8.331  0.1259 -0.1804 -1.6305
11563SOL     OW40651   8.227   4.090   0.878 -0.6308 -0.1169  0.2310
11563SOL    HW140652   8.222   4.021   0.945  1.0551 -1.0714 -0.5644
11563SOL    HW240653   8.136   4.119   0.868 -1.1745 -1.1679  1.6703
11564SOL     OW40654   2.514   6.453   7.184  0.3884 -0.1604 -0.1041
11564SOL    HW140655   2.438   6.439   7.127  2.3862 -1.4429 -2.6588
11564SOL    HW240656   2.512   6.378   7.244 -0.1505 -0.3687 -0.3697
11565SOL     OW40657   7.728   8.185   3.828 -0.2176  0.5965 -0.3148
11565SOL    HW140658   7.795   8.144   3.773  0.0757 -0.0160  0.4757
11565SOL    HW240659   7.752   8.160   3.917  0.4932  3.1946  0.3174
11566SOL     OW40660   0.062  11.488   1.200 -0.1895  0.1466 -0.2220
11566SOL    HW140661   0.103  11.459   1.281 -0.8232 -0.1538 -0.0044
11566SOL    HW240662   0.125  11.464   1.131  0.7119  1.1240  0.2383
11567SOL     OW40663  12.329   5.362   1.325 -0.3231 -0.3756  0.0092
11567SOL    HW140664  12.357   5.430   1.264 -0.1613 -0.6641 -0.2440
11567SOL    HW240665  12.236   5.349   1.305  0.3515 -2.5303 -2.2519
11568SOL     OW40666   5.427   5.398   3.674  0.2119 -0.5559 -0.0601
11568SOL    HW140667   5.390   5.348   3.747 -0.5529 -1.8559 -1.3001
11568SOL    HW240668   5.422   5.339   3.599  0.1318  1.0581 -1.3783
11569SOL     OW40669   3.925  10.377   2.232 -0.1699 -0.6858 -0.5160
11569SOL    HW140670   3.912  10.316   2.305 -1.6200  1.8376  1.5275
11569SOL    HW240671   4.003  10.426   2.255 -1.7084  1.4516  0.4842
11570SOL     OW40672   7.406  12.236   5.615 -0.4459  0.4446 -0.1406
11570SOL    HW140673   7.374  12.325   5.632 -1.1739  0.0799  0.4470
11570SOL    HW240674   7.474  12.248   5.549  0.2650  1.5837  0.7341
11571SOL     OW40675   7.048   2.164   6.940 -0.0218 -0.5947  0.0059
11571SOL    HW140676   7.125   2.205   6.980  0.4174 -0.7498 -0.6637
11571SOL    HW240677   7.076   2.074   6.923  0.2848 -0.1856 -1.8749
11572SOL     OW40678   6.991   3.531   2.763  0.0103 -0.3847  0.6333
11572SOL    HW140679   6.912   3.477   2.773 -0.3280 -0.1975 -0.9000
11572SOL    HW240680   7.052   3.476   2.714  0.5846 -0.2565  1.1880
11573SOL     OW40681   2.909   3.863   6.242 -0.1363  0.4933  0.2182
11573SOL    HW140682   2.882   3.940   6.191  0.0710  0.8968  0.6993
11573SOL    HW240683   2.899   3.891   6.333  0.2967  0.0746  0.3980
11574SOL     OW40684   2.856  11.150   5.448 -0.3277  0.4238  0.0495
11574SOL    HW140685   2.804  11.159   5.368 -0.6811 -1.7911 -0.0146
11574SOL    HW240686   2.791  11.151   5.519 -0.2805 -0.3997  0.1067
11575SOL     OW40687   0.031   3.303   9.894 -0.4672  0.5372 -0.1536
11575SOL    HW140688   0.003   3.250   9.969  0.4467  0.8567  0.4390
11575SOL    HW240689   0.077   3.377   9.934  0.4537  0.4617 -1.0421
11576SOL     OW40690   7.175   4.692   7.350  0.6361  0.0374 -0.3838
11576SOL    HW140691   7.221   4.627   7.404  0.5642  0.0666 -0.2871
11576SOL    HW240692   7.082   4.671   7.362  0.6448 -0.5512 -1.2375
11577SOL     OW40693   8.624   3.706  10.283  0.4156 -0.3073  0.1813
11577SOL    HW140694   8.606   3.795  10.313  1.0119  0.4470 -1.5427
11577SOL    HW240695   8.695   3.676  10.338  0.3506  0.3720  0.6503
11578SOL     OW40696   4.101   1.983   7.724  0.2450 -0.4778 -0.0832
11578SOL    HW140697   4.115   1.932   7.644  0.8975 -1.3935  0.5921
11578SOL    HW240698   4.068   1.919   7.787 -0.7095  0.3245  0.2655
11579SOL     OW40699   0.060   2.341   0.934  0.2596 -0.5369 -0.2092
11579SOL    HW140700   0.107   2.411   0.979  0.5259 -1.1145  0.4289
11579SOL    HW240701   0.118   2.265   0.941 -1.4388 -1.7634  2.1253
11580SOL     OW40702   5.852  12.257   6.391  0.2547  0.1667 -0.4650
11580SOL    HW140703   5.759  12.263   6.413  0.5442  1.5699  0.4692
11580SOL    HW240704   5.891  12.336   6.428  1.3975  0.9162 -3.0917
11581SOL     OW40705   0.886  12.359  11.613 -0.0798  0.2058  0.1323
11581SOL    HW140706   0.817  12.359  11.547  0.2444  0.2015 -0.2097
11581SOL    HW240707   0.948  12.426  11.583  1.4639 -1.6567 -1.0237
11582SOL     OW40708  11.456   6.805   4.608  0.7657  0.5145 -0.8518
11582SOL    HW140709  11.435   6.831   4.518  0.2922  2.2753 -0.2657
11582SOL    HW240710  11.503   6.880   4.645  0.6699 -0.0540  0.4801
11583SOL     OW40711   8.205   8.258   3.768  0.0514  0.0948 -0.4744
11583SOL    HW140712   8.169   8.330   3.820 -0.8350  0.6473 -1.8051
11583SOL    HW240713   8.135   8.192   3.770  1.3225 -1.3114  1.7507
11584SOL     OW40714   2.291   1.961   9.797  0.4456  0.2133 -0.3942
11584SOL    HW140715   2.245   1.898   9.852  0.1939  1.2293  0.6109
11584SOL    HW240716   2.223   2.021   9.766  0.7689  0.3878 -0.7793
11585SOL     OW40717   2.991   1.609   6.104  0.1768 -0.0494  0.2399
11585SOL    HW140718   3.060   1.623   6.168  1.5686 -0.6686 -1.0818
11585SOL    HW240719   2.984   1.514   6.095  0.0977  0.0284 -0.6267
11586SOL     OW40720   9.189   2.261  10.098  0.4719 -0.0079  0.2398
11586SOL    HW140721   9.103   2.268  10.055  0.3940  1.9101  0.6199
11586SOL    HW240722   9.175   2.198  10.168 -0.0123 -1.4016 -1.0534
11587SOL     OW40723   1.948   4.184   9.146  0.3773 -0.4149 -0.1221
11587SOL    HW140724   1.941   4.123   9.072 -1.7068  0.7768 -0.9851
11587SOL    HW240725   1.883   4.154   9.209  0.1065  0.2628 -0.0686
11588SOL     OW40726   0.736   5.303  10.726  0.2671 -0.0327  0.6759
11588SOL    HW140727   0.762   5.393  10.747 -1.2446  0.5726  0.1079
11588SOL    HW240728   0.777   5.286  10.641  1.1699 -0.1764  1.1251
11589SOL     OW40729   7.137   4.277  10.443  0.1190 -0.3789 -0.0808
11589SOL    HW140730   7.198   4.325  10.387  0.0231  0.6912  0.7049
11589SOL    HW240731   7.105   4.343  10.505 -2.7956 -0.5478 -1.2361
11590SOL     OW40732   4.209   3.451   0.672  0.2512 -0.0170  0.5115
11590SOL    HW140733   4.123   3.466   0.712 -0.4557  0.4125 -1.0885
11590SOL    HW240734   4.240   3.539   0.649 -0.3086 -0.3279 -1.6931
11591SOL     OW40735   2.341   2.635   7.365 -0.1160  0.4485 -0.1564
11591SOL    HW140736   2.396   2.711   7.345 -1.5392  1.7744  0.7923
11591SOL    HW240737   2.289   2.622   7.285  1.0746 -0.4186 -0.8229
11592SOL     OW40738   0.489   9.456   3.486 -0.4190  0.0860  0.3742
11592SOL    HW140739   0.575   9.481   3.452 -0.4303  0.3762  0.5553
11592SOL    HW240740   0.502   9.367   3.520 -0.9349 -1.1597 -2.3746
11593SOL     OW40741  10.320   2.716   2.082  0.3079 -0.1477  0.3329
11593SOL    HW140742  10.325   2.714   2.177  1.3701  0.6059  0.3125
11593SOL    HW240743  10.364   2.636   2.054 -2.6014 -1.9732  0.4764
11594SOL     OW40744  11.482   2.181  10.771  0.0175 -0.3295  0.1996
11594SOL    HW140745  11.469   2.088  10.786 -0.9047 -0.2188  0.1202
11594SOL    HW240746  11.575   2.195  10.789  0.0973 -1.2018  0.5154
11595SOL     OW40747   9.239   1.785   7.749 -0.2722 -0.3635 -0.0896
11595SOL    HW140748   9.279   1.699   7.762  0.2500 -0.3955 -1.6708
11595SOL    HW240749   9.314   1.844   7.737 -0.5941  0.4837  1.7182
11596SOL     OW40750   1.164   4.434   2.225 -0.2924 -0.7077 -0.2365
11596SOL    HW140751   1.167   4.530   2.224  0.9520 -0.6533 -3.2951
11596SOL    HW240752   1.251   4.408   2.253  0.2811 -0.8338 -2.0188
11597SOL     OW40753   6.886   1.482  11.885  0.1532  0.1512 -0.0231
11597SOL    HW140754   6.967   1.517  11.921 -0.1952 -0.8033  1.8051
11597SOL    HW240755   6.900   1.388  11.879 -1.4570 -0.3388  2.3676
11598SOL     OW40756   6.060   9.077   5.788  0.9310  0.1703 -0.1517
11598SOL    HW140757   6.047   9.117   5.702  0.7592  2.6470  0.9314
11598SOL    HW240758   6.147   9.107   5.815 -0.4187  2.6003  1.9985
11599SOL     OW40759   4.426   9.164   6.385  0.3129 -0.0510  0.1563
11599SOL    HW140760   4.482   9.234   6.420 -0.3220  0.2346  0.6260
11599SOL    HW240761   4.484   9.114   6.327  1.1274  0.0668  0.8381
11600SOL     OW40762   7.841   9.978   5.440  0.1847  0.5104  0.1225
11600SOL    HW140763   7.755  10.019   5.438 -0.5658 -0.7720  2.5480
11600SOL    HW240764   7.875   9.989   5.351 -2.2730  1.4364 -0.7806
11601SOL     OW40765   0.558  10.340   9.211  0.1616 -0.2042 -0.2528
11601SOL    HW140766   0.570  10.435   9.209  1.3115 -0.3396 -0.6086
11601SOL    HW240767   0.477  10.327   9.260 -0.5106  1.0002 -0.9820
11602SOL     OW40768   7.985   5.804   5.896 -0.1988 -0.0385 -0.3699
11602SOL    HW140769   7.927   5.755   5.954  0.0878  2.1254  1.8665
11602SOL    HW240770   7.929   5.867   5.853  0.0283  0.1198 -0.4351
11603SOL     OW40771   8.717  12.070  11.613 -0.4715  0.3066 -0.2871
11603SOL    HW140772   8.737  11.978  11.592 -0.0824  0.2789  0.1841
11603SOL    HW240773   8.685  12.107  11.531 -0.5007 -0.2169 -0.5157
11604SOL     OW40774  12.316   6.272   5.905  0.1091  0.2785 -0.6151
11604SOL    HW140775  12.253   6.203   5.926  0.4422  0.0227 -0.4568
11604SOL    HW240776  12.320   6.272   5.810 -0.9817  1.0604 -0.6839
11605SOL     OW40777   8.431   1.205   3.204 -0.1647 -0.2856  0.0089
11605SOL    HW140778   8.344   1.246   3.199  0.1267  0.3079 -0.1574
11605SOL    HW240779   8.412   1.111   3.215 -0.8362 -0.4502 -2.1089
11606SOL     OW40780  10.131  11.768   3.085  0.0064  0.2514 -0.1252
11606SOL    HW140781  10.218  11.730   3.093  0.8047  1.9002 -0.5614
11606SOL    HW240782  10.073  11.693   3.072  1.4381 -0.8359 -0.4625
11607SOL     OW40783   0.828   8.388   5.486 -0.0432 -0.7854  0.0720
11607SOL    HW140784   0.892   8.357   5.549  3.1991  2.1837 -1.4429
11607SOL    HW240785   0.792   8.468   5.526  1.7906  0.9311 -1.4950
11608SOL     OW40786   0.888   6.876  11.802  0.3953  0.4956 -0.0406
11608SOL    HW140787   0.798   6.886  11.834  0.8222 -1.3202  1.9082
11608SOL    HW240788   0.878   6.821  11.723 -0.0764 -2.1175  1.7146
11609SOL     OW40789   9.750   3.465   5.564 -0.4133 -0.8978  0.4035
11609SOL    HW140790   9.818   3.410   5.604  0.4380  0.2379  0.5749
11609SOL    HW240791   9.765   3.456   5.470 -0.5682 -1.2914  0.4112
11610SOL     OW40792   7.068   4.249   2.413 -0.3581  0.5599  0.3239
11610SOL    HW140793   7.060   4.154   2.416  0.9310  0.4443  1.7271
11610SOL    HW240794   7.155   4.265   2.376 -0.0469  1.1390  1.2656
11611SOL     OW40795  11.240  11.389   7.839  0.3965 -0.3233  0.0158
11611SOL    HW140796  11.317  11.442   7.860  1.4570 -2.0517  0.7078
11611SOL    HW240797  11.272  11.323   7.778 -1.6649  1.8553 -3.7681
11612SOL     OW40798   3.630   5.120  12.489  0.8573 -0.5113 -0.0454
11612SOL    HW140799   3.650   5.179  12.562  1.0592 -1.9052  1.0752
11612SOL    HW240800   3.658   5.033  12.520 -1.1450 -1.5201 -0.8675
11613SOL     OW40801   3.788   9.486   3.897 -0.4323  0.8565  0.5612
11613SOL    HW140802   3.706   9.444   3.922 -0.0753  1.6707  3.4522
11613SOL    HW240803   3.835   9.498   3.979  1.0234  3.6665 -0.5305
11614SOL     OW40804   4.397   5.604  10.216 -0.1522  0.4753 -0.2802
11614SOL    HW140805   4.330   5.536  10.206 -0.5638  1.2304 -3.3246
11614SOL    HW240806   4.477   5.554  10.234 -0.6131 -0.7928 -1.5246
11615SOL     OW40807   4.546   6.416   6.869  0.0798  0.4698 -0.2728
11615SOL    HW140808   4.636   6.393   6.892  0.0626 -0.9683 -1.4765
11615SOL    HW240809   4.493   6.353   6.919 -0.0949 -0.5184 -1.6437
11616SOL     OW40810   4.016   1.677   7.092  0.2297  0.4601  0.2011
11616SOL    HW140811   4.024   1.590   7.054 -2.1971  0.8045 -1.3183
11616SOL    HW240812   4.097   1.722   7.065  0.3247 -0.5187 -1.2850
11617SOL     OW40813   7.675   6.275   8.333  0.0989  0.2737  0.2100
11617SOL    HW140814   7.754   6.296   8.283 -0.7157  2.6648 -0.2495
11617SOL    HW240815   7.665   6.348   8.394 -0.4598 -1.2089  1.9832
11618SOL     OW40816  10.490   0.441   6.851  0.0609  0.3718 -0.3694
11618SOL    HW140817  10.453   0.525   6.827 -1.4448 -0.6140 -1.7386
11618SOL    HW240818  10.494   0.392   6.769 -0.3393 -1.3195  0.5697
11619SOL     OW40819  10.527   4.816   9.397  0.9455 -0.0986  0.1785
11619SOL    HW140820  10.556   4.744   9.453 -0.0656  0.1523  1.0624
11619SOL    HW240821  10.598   4.880   9.403  0.1776  0.6635  2.6012
11620SOL     OW40822   1.211   5.811   9.723 -0.7123  0.6271 -0.3810
11620SOL    HW140823   1.271   5.784   9.793 -0.8155 -0.6820 -0.7641
11620SOL    HW240824   1.245   5.896   9.693  0.2531  0.4619  0.2065
11621SOL     OW40825   2.972   6.078   1.916  0.4003  0.4275 -0.6348
11621SOL    HW140826   2.999   6.168   1.932  0.0180  0.2774  1.0302
11621SOL    HW240827   2.889   6.086   1.869  0.2290  0.9594 -0.2557
11622SOL     OW40828   1.119   1.551   8.806  0.0965  0.2973  0.4711
11622SOL    HW140829   1.194   1.502   8.773  0.8206  1.1770  0.7380
11622SOL    HW240830   1.080   1.494   8.872  1.2800  0.2957  1.2109
11623SOL     OW40831   8.688  12.198  10.010 -0.2028  0.2822  0.4241
11623SOL    HW140832   8.682  12.276  10.065 -0.4056 -0.1207  0.9863
11623SOL    HW240833   8.649  12.223   9.927 -1.6415  0.3387  1.0946
11624SOL     OW40834   6.982   0.069   7.200 -0.7439 -0.0995 -0.0777
11624SOL    HW140835   7.006  -0.023   7.212 -0.8437  0.0103  1.0616
11624SOL    HW240836   6.918   0.086   7.269 -1.6668  0.4950 -1.0514
11625SOL     OW40837   7.939  11.862  12.349 -0.5008  0.0894  0.1238
11625SOL    HW140838   7.864  11.862  12.289 -1.2018  0.6219  0.9787
11625SOL    HW240839   7.945  11.771  12.379 -1.6808  0.2982  1.0861
11626SOL     OW40840   7.017   8.961   6.811  0.2024 -0.2000  0.1812
11626SOL    HW140841   7.053   9.034   6.760 -0.6250  0.3317  0.3494
11626SOL    HW240842   7.024   8.886   6.752 -0.0815  0.2628 -0.4534
11627SOL     OW40843  12.153  10.611   3.076  0.0709  0.6418 -0.3521
11627SOL    HW140844  12.151  10.568   3.161 -1.3407  2.2090  0.4561
11627SOL    HW240845  12.063  10.605   3.044  0.2032  1.6146 -0.9308
11628SOL     OW40846   4.558   0.343   6.044  0.7022  0.2431  0.5987
11628SOL    HW140847   4.565   0.438   6.049  1.0375  0.1394  2.9291
11628SOL    HW240848   4.618   0.318   5.974 -0.8689  1.8373 -1.4530
11629SOL     OW40849   5.108   8.558  11.404  0.6209  0.2598  0.6224
11629SOL    HW140850   5.202   8.567  11.419  0.6886  1.3129 -0.3559
11629SOL    HW240851   5.076   8.510  11.481  1.7564  0.9392  1.5408
11630SOL     OW40852  12.058   0.507   6.308 -0.8554 -0.6615 -0.1297
11630SOL    HW140853  12.150   0.524   6.328 -1.4069  1.7215  0.7018
11630SOL    HW240854  12.054   0.413   6.294  1.7657 -0.8002 -0.5405
11631SOL     OW40855  12.277   8.585   9.631  0.0590 -0.1489  0.1280
11631SOL    HW140856  12.227   8.512   9.595 -0.5633  0.7347 -0.8447
11631SOL    HW240857  12.214   8.658   9.635  1.0950  0.8213 -0.5735
11632SOL     OW40858   1.774   6.808   8.833  0.2833  0.6781 -0.0454
11632SOL    HW140859   1.688   6.828   8.868  0.3492  0.8464  0.0211
11632SOL    HW240860   1.817   6.756   8.901  0.5066  1.2248  0.2323
11633SOL     OW40861   8.661  12.436   8.759 -0.2384 -0.5789 -0.4648
11633SOL    HW140862   8.729  12.471   8.701 -0.0804 -1.6571 -0.9493
11633SOL    HW240863   8.693  12.455   8.848  1.2811 -2.0660 -0.6446
11634SOL     OW40864   6.992   2.085   2.958  0.1426  0.4732 -0.3581
11634SOL    HW140865   6.912   2.035   2.941 -0.2864 -0.1443  2.9081
11634SOL    HW240866   6.962   2.161   3.007  1.6225 -1.0466  3.2558
11635SOL     OW40867   0.634   4.045  11.566 -0.3755  0.2109  0.3736
11635SOL    HW140868   0.699   4.008  11.625  1.1106 -1.0588 -1.9263
11635SOL    HW240869   0.673   4.126  11.533 -0.4488  0.0535 -0.1188
11636SOL     OW40870   3.488   1.245  12.182  0.3123  0.1476  0.0625
11636SOL    HW140871   3.558   1.285  12.233  0.3697 -1.4249  1.2949
11636SOL    HW240872   3.525   1.161  12.153 -0.5662 -0.0552 -0.4977
11637SOL     OW40873  12.180  11.819   8.565  0.7698 -0.3227 -0.3950
11637SOL    HW140874  12.180  11.860   8.479  0.9179  0.6375  0.0549
11637SOL    HW240875  12.136  11.735   8.551  1.0860 -0.3232 -1.4652
11638SOL     OW40876   8.329   9.526   9.656 -0.1184  0.1048  0.4938
11638SOL    HW140877   8.375   9.604   9.623 -1.6218  0.4912 -0.7742
11638SOL    HW240878   8.286   9.557   9.736  1.3773 -0.1402  1.4385
11639SOL     OW40879  11.714   7.807   4.957 -0.5501 -0.1808  0.1952
11639SOL    HW140880  11.710   7.732   4.898 -0.1909 -0.3636  0.3992
11639SOL    HW240881  11.633   7.802   5.008 -1.3902  0.6013 -1.0147
11640SOL     OW40882   5.231   9.227   8.131 -0.7378 -0.9825 -0.5521
11640SOL    HW140883   5.301   9.284   8.099 -2.2024 -0.4941 -3.1175
11640SOL    HW240884   5.240   9.231   8.226  0.2065  2.2981 -0.6411
11641SOL     OW40885   6.410  12.070   6.267  0.9933  0.5133 -0.0678
11641SOL    HW140886   6.402  11.974   6.268 -0.1043  0.5557  2.2885
11641SOL    HW240887   6.427  12.092   6.176 -1.7883 -1.6903 -1.2575
11642SOL     OW40888  10.231   2.215   6.973 -0.4147  0.3906  0.3765
11642SOL    HW140889  10.261   2.234   6.884 -0.5636 -0.2742  0.1810
11642SOL    HW240890  10.311   2.217   7.026 -0.0007 -1.3373 -0.1399
11643SOL     OW40891  12.448   1.187   1.047 -0.1209 -0.0380 -0.0121
11643SOL    HW140892  12.516   1.141   1.096  0.9202 -0.0044 -1.3479
11643SOL    HW240893  12.366   1.151   1.080  0.5846 -0.8741  0.8848
11644SOL     OW40894   8.118  10.940   6.714  0.3284  0.3986  0.3379
11644SOL    HW140895   8.208  10.959   6.689  0.0935  0.1308 -0.7547
11644SOL    HW240896   8.121  10.852   6.750  0.3917  0.1225 -0.3379
11645SOL     OW40897   5.655   9.140  11.778 -0.3067 -0.0537  0.1086
11645SOL    HW140898   5.568   9.154  11.741 -0.3446  0.4423  0.3869
11645SOL    HW240899   5.665   9.208  11.845 -0.3125 -1.0494  1.1503
11646SOL     OW40900   8.083   4.351   4.300  0.2413 -0.0468  0.0956
11646SOL    HW140901   8.083   4.425   4.239  0.4806 -1.0258 -1.1098
11646SOL    HW240902   8.154   4.371   4.362  0.6306  0.4913 -0.5126
11647SOL     OW40903   1.946   2.782  11.064  0.3571  0.1503  0.0171
11647SOL    HW140904   1.970   2.873  11.051 -1.3755  1.1337  2.7992
11647SOL    HW240905   1.851   2.780  11.049  0.1159 -0.8101  1.4771
11648SOL     OW40906  12.304   3.422   0.173  0.0672 -0.0984  0.0283
11648SOL    HW140907  12.261   3.481   0.235 -0.8478 -0.4005 -0.3027
11648SOL    HW240908  12.260   3.437   0.090 -0.5361 -1.5810  0.0372
11649SOL     OW40909   0.350   1.219   3.788 -0.1559  0.4144  0.4634
11649SOL    HW140910   0.353   1.314   3.801  1.9446  0.2347  1.6872
11649SOL    HW240911   0.411   1.204   3.715 -0.8369  0.0424 -0.0325
11650SOL     OW40912   6.164  11.478   0.858  0.1928  0.1110  0.4920
11650SOL    HW140913   6.241  11.426   0.883 -0.8961 -2.3205 -0.8230
11650SOL    HW240914   6.200  11.560   0.827  2.3050 -1.0077 -0.2567
11651SOL     OW40915   3.174   5.570   4.459  0.1389  0.1746  0.2625
11651SOL    HW140916   3.241   5.577   4.527 -0.8218 -0.0600  1.2571
11651SOL    HW240917   3.113   5.504   4.492 -1.1302  1.1151 -0.1195
11652SOL     OW40918   2.405  12.098   3.823 -0.0971 -0.4414  0.5923
11652SOL    HW140919   2.445  12.185   3.833  0.6641 -0.7717  0.4861
11652SOL    HW240920   2.415  12.079   3.730  0.2587 -0.8894  0.7212
11653SOL     OW40921   9.041   1.094   0.409  0.2595 -0.3375  0.3080
11653SOL    HW140922   9.062   1.185   0.389 -0.6649 -0.1549  0.1162
11653SOL    HW240923   8.996   1.098   0.494  1.1666 -0.7420  0.8274
11654SOL     OW40924   1.223  11.349   0.145 -0.5169  0.1627  0.1537
11654SOL    HW140925   1.306  11.361   0.193 -0.5008  0.5684  0.0347
11654SOL    HW240926   1.166  11.417   0.180 -0.4101  0.6623 -0.6025
11655SOL     OW40927   4.165   7.743   7.146  0.9204 -0.1350 -0.1705
11655SOL    HW140928   4.188   7.814   7.087  1.3492 -0.6633 -0.6488
11655SOL    HW240929   4.153   7.667   7.090  0.5177 -0.4593  0.3392
11656SOL     OW40930   0.095   5.298   3.881 -0.1881 -0.1472  0.3469
11656SOL    HW140931   0.112   5.226   3.941 -0.1344  0.3823  0.9801
11656SOL    HW240932   0.131   5.269   3.798 -0.8018 -1.1358  0.4193
11657SOL     OW40933   5.021   2.338   3.550  0.5409  0.5342  0.3804
11657SOL    HW140934   5.087   2.389   3.503  1.5206  2.1759  3.2634
11657SOL    HW240935   5.051   2.338   3.641 -1.8103 -1.4324  1.2693
11658SOL     OW40936   7.207   6.126   0.708  0.2795 -0.1482  1.0673
11658SOL    HW140937   7.199   6.172   0.625 -1.3666 -1.1546  0.6235
11658SOL    HW240938   7.185   6.035   0.688 -0.5133 -0.3518  2.6597
11659SOL     OW40939   3.537   2.848   6.381 -0.4780  0.5049 -0.3656
11659SOL    HW140940   3.462   2.792   6.398  0.6040 -0.2171  2.5459
11659SOL    HW240941   3.501   2.936   6.379 -1.4854  0.1388  0.5603
11660SOL     OW40942   1.263   6.222   4.558  0.3153  0.0984 -0.2083
11660SOL    HW140943   1.208   6.283   4.607 -0.7492 -0.0264 -1.1909
11660SOL    HW240944   1.245   6.136   4.597  2.8883  0.5006  2.1268
11661SOL     OW40945   5.297   4.502   6.442 -0.0811 -0.0580 -0.0525
11661SOL    HW140946   5.354   4.570   6.478 -1.0411 -0.0619  1.5951
11661SOL    HW240947   5.234   4.550   6.389 -0.9980  0.4507  1.4186
11662SOL     OW40948   9.887   9.048  12.244 -0.0827  0.2481  0.4720
11662SOL    HW140949   9.911   8.987  12.313 -1.4528  0.2973  1.0207
11662SOL    HW240950   9.828   9.110  12.286 -1.1780  0.1132 -0.7749
11663SOL     OW40951   7.766   9.130   3.882 -0.7949 -0.5961 -0.5595
11663SOL    HW140952   7.723   9.049   3.853 -1.2309 -0.5886  0.0504
11663SOL    HW240953   7.695   9.194   3.885 -0.1729  0.3033 -2.7647
11664SOL     OW40954   3.912   6.558   2.994 -0.6847 -0.0258  0.2967
11664SOL    HW140955   3.950   6.478   2.959 -0.7555 -0.3834  1.0060
11664SOL    HW240956   3.823   6.561   2.958 -1.7310 -1.8078  2.4800
11665SOL     OW40957   3.316   9.077   3.338 -0.2520 -0.5634 -0.3495
11665SOL    HW140958   3.317   9.027   3.420  1.2193  0.4883  0.3116
11665SOL    HW240959   3.277   9.161   3.362 -1.3397 -0.8251 -1.1259
11666SOL     OW40960   3.468   8.737  10.597  0.0182  0.4060 -0.4647
11666SOL    HW140961   3.562   8.750  10.591  0.1008  0.2131  0.3317
11666SOL    HW240962   3.448   8.748  10.690 -0.8332  1.0248 -0.7063
11667SOL     OW40963   4.895   3.994   3.304  0.2433 -0.5146  0.1902
11667SOL    HW140964   4.937   4.072   3.340  0.9318 -0.8911  0.2291
11667SOL    HW240965   4.837   3.963   3.373 -0.2737  0.1350  0.0570
11668SOL     OW40966   6.278   1.506   1.150  0.8400 -0.1487  0.1659
11668SOL    HW140967   6.331   1.470   1.221  0.4187  0.3172  0.7299
11668SOL    HW240968   6.289   1.601   1.158  0.5813 -0.0828 -0.2250
11669SOL     OW40969   5.989  10.437   3.319  0.5643 -0.7105  0.1154
11669SOL    HW140970   6.048  10.416   3.391  0.7537 -3.0191 -0.6250
11669SOL    HW240971   5.912  10.383   3.334 -0.2206  0.2352 -0.3876
11670SOL     OW40972   0.439  10.792   9.001 -1.1923  0.3407  0.5702
11670SOL    HW140973   0.447  10.696   8.996 -0.3117  0.4399 -0.5362
11670SOL    HW240974   0.345  10.809   8.997 -1.3610 -0.4893  0.8677
11671SOL     OW40975  11.170   5.962   9.987 -0.4259  0.2657  0.1646
11671SOL    HW140976  11.188   6.055   9.988 -1.3626  0.4566  0.4446
11671SOL    HW240977  11.091   5.953   9.933  1.2643 -0.6825 -2.3157
11672SOL     OW40978   7.310   6.234  10.773 -0.9839 -0.3679  0.7142
11672SOL    HW140979   7.385   6.255  10.829  0.5635 -0.7079 -1.1265
11672SOL    HW240980   7.320   6.141  10.753 -0.9273 -0.0495 -0.8691
11673SOL     OW40981   7.993   8.237   8.903  0.1051 -0.3927  0.5629
11673SOL    HW140982   8.071   8.284   8.875  0.3830 -0.1161  1.7595
11673SOL    HW240983   8.021   8.187   8.979 -0.8139 -0.4984  0.8444
11674SOL     OW40984   2.472   7.467   9.924  0.3847  0.4406  0.1468
11674SOL    HW140985   2.434   7.391   9.880  1.9067 -0.1326 -0.2333
11674SOL    HW240986   2.487   7.437  10.014 -1.9493  1.3481  0.9309
11675SOL     OW40987   4.713   8.146  12.240 -0.5918 -0.1737  0.3131
11675SOL    HW140988   4.623   8.172  12.262 -0.0409  1.2604  1.0182
11675SOL    HW240989   4.764   8.227  12.249  0.7815 -0.9618 -0.0769
11676SOL     OW40990   8.780   3.779   8.268  0.0418  0.0689  0.3153
11676SOL    HW140991   8.794   3.819   8.182 -0.4384 -1.0544 -0.3007
11676SOL    HW240992   8.815   3.691   8.260  0.8764  0.2487  1.5939
11677SOL     OW40993  11.014   0.880  11.350 -0.8812 -0.1693 -0.0963
11677SOL    HW140994  11.080   0.810  11.347 -0.0270  0.5992  0.3495
11677SOL    HW240995  10.983   0.880  11.440 -0.7441  0.1533 -0.0503
11678SOL     OW40996   2.066   2.198   3.232  0.7737  0.3904 -0.4043
11678SOL    HW140997   2.029   2.242   3.156 -0.0846  0.7423  0.2059
11678SOL    HW240998   2.004   2.215   3.303  0.8728 -1.0546  0.0638
11679SOL     OW40999   4.855   5.270   3.366  0.5024 -0.6801  0.2725
11679SOL    HW141000   4.860   5.181   3.401  0.8615 -1.2484 -1.1717
11679SOL    HW241001   4.946   5.296   3.353  0.4261  0.1594  1.2447
11680SOL     OW41002   1.191   7.379   6.335  0.6078 -0.1272 -0.2334
11680SOL    HW141003   1.110   7.334   6.311  1.3142 -1.1193 -0.8184
11680SOL    HW241004   1.233   7.320   6.398  1.2198  0.0260 -0.4911
11681SOL     OW41005   3.026   2.628  11.634 -0.4938 -0.4847  0.2923
11681SOL    HW141006   2.978   2.688  11.577  1.8252  1.3351  0.1419
11681SOL    HW241007   3.016   2.543  11.592  1.9870  0.9057 -3.6235
11682SOL     OW41008   8.530   5.664   2.106  0.2179 -0.2143  0.6613
11682SOL    HW141009   8.616   5.707   2.113 -0.4680  1.1427  1.0660
11682SOL    HW241010   8.503   5.680   2.015 -1.5243  3.3175  1.6150
11683SOL     OW41011  10.207   3.700   2.672  0.2584  0.6219 -0.0057
11683SOL    HW141012  10.298   3.686   2.646  1.1306  1.7194  2.1985
11683SOL    HW241013  10.184   3.621   2.720 -0.0926  0.2062 -0.8345
11684SOL     OW41014   2.018   3.856   2.892  0.0149  0.0475 -0.1018
11684SOL    HW141015   1.941   3.903   2.926 -1.4719 -0.3588 -2.6002
11684SOL    HW241016   2.092   3.896   2.937 -1.5442  1.5230  1.3187
11685SOL     OW41017   6.965   9.348   1.832 -0.0074  0.2345  0.3161
11685SOL    HW141018   6.944   9.359   1.739 -0.2523 -0.1681  0.3194
11685SOL    HW241019   7.052   9.309   1.833  0.1916  0.6724  0.2684
11686SOL     OW41020   0.450   7.578  10.821  0.1711 -0.0945 -0.6508
11686SOL    HW141021   0.474   7.497  10.776  0.4498  0.4294 -1.4623
11686SOL    HW241022   0.487   7.568  10.909 -0.5292 -1.2020 -0.4575
11687SOL     OW41023   9.776   5.025  10.801 -1.0429 -0.1846 -0.1563
11687SOL    HW141024   9.872   5.030  10.792 -0.8402 -0.3549  1.5828
11687SOL    HW241025   9.746   5.114  10.784 -0.3132  0.4445  1.6064
11688SOL     OW41026   6.993   1.227  11.853 -0.4481 -0.3032  0.5503
11688SOL    HW141027   6.953   1.199  11.770  0.7284 -0.5802  0.0605
11688SOL    HW241028   7.084   1.202  11.845 -0.3129 -0.2919  1.9337
11689SOL     OW41029   7.920   8.817   5.028 -0.0294  0.9566  0.2212
11689SOL    HW141030   7.891   8.847   4.942  0.6073  1.0729  0.0438
11689SOL    HW241031   8.005   8.776   5.012 -1.1768 -1.6670  0.3264
11690SOL     OW41032   6.824  10.291   0.202 -0.6395  0.0415 -0.2173
11690SOL    HW141033   6.855  10.228   0.138 -0.6986  0.7302 -0.9507
11690SOL    HW241034   6.729  10.283   0.199 -0.8662  2.1050 -2.4647
11691SOL     OW41035   1.051  11.670   6.031 -0.0116  0.1735 -0.3091
11691SOL    HW141036   1.004  11.592   6.061  0.7449 -0.5708 -1.0094
11691SOL    HW241037   1.128  11.675   6.088 -0.1536  0.5289 -0.1434
11692SOL     OW41038   9.539   0.278   2.815  0.4645  0.1418  0.3804
11692SOL    HW141039   9.610   0.322   2.861 -0.8244  1.0015  1.6576
11692SOL    HW241040   9.501   0.218   2.880  1.1463 -1.7003 -0.8373
11693SOL     OW41041   1.310   2.281   3.213  0.1782 -0.2591  0.3786
11693SOL    HW141042   1.345   2.315   3.295  1.6515 -0.2686 -0.2277
11693SOL    HW241043   1.373   2.309   3.146 -0.8931 -0.4121 -0.7321
11694SOL     OW41044   3.035   5.678   5.925 -0.3436 -0.3058 -0.4944
11694SOL    HW141045   3.049   5.735   5.850  0.5095 -0.1489 -0.2298
11694SOL    HW241046   3.079   5.722   5.998 -1.6163 -0.1930  0.2306
11695SOL     OW41047   2.506   4.863   7.235  1.1137  0.0575  0.2336
11695SOL    HW141048   2.596   4.894   7.225  1.2354  0.1688  1.5451
11695SOL    HW241049   2.458   4.937   7.272  0.0533  0.5826 -1.9538
11696SOL     OW41050   6.062   5.633   1.708 -0.5161  0.8661 -0.4968
11696SOL    HW141051   6.123   5.705   1.694 -0.8862  1.3333  0.2631
11696SOL    HW241052   5.984   5.674   1.745 -0.2354 -0.0832  1.2158
11697SOL     OW41053  11.724   2.040   4.791 -0.2291  0.3210  0.4600
11697SOL    HW141054  11.649   1.996   4.752 -1.0458  0.4462  1.8238
11697SOL    HW241055  11.712   2.028   4.885  1.2210  0.7426  0.7204
11698SOL     OW41056   8.402   4.699   1.900 -0.7396  0.2515  0.1226
11698SOL    HW141057   8.413   4.605   1.895 -0.5192  0.1825  1.5496
11698SOL    HW241058   8.402   4.719   1.993  2.0953  1.9816 -0.1032
11699SOL     OW41059   1.845   2.730   2.434 -0.0023  0.1382  0.1612
11699SOL    HW141060   1.940   2.728   2.443  0.2962 -0.0276 -2.3802
11699SOL    HW241061   1.820   2.818   2.463  1.2916  1.1818 -1.7126
11700SOL     OW41062   2.893   0.519   3.282 -0.6842  0.3694  0.1165
11700SOL    HW141063   2.942   0.542   3.361 -0.5620  0.4455  0.0209
11700SOL    HW241064   2.939   0.443   3.246 -1.5245 -0.4866  0.8225
11701SOL     OW41065  10.797  11.039   2.258 -0.3934 -0.2323 -0.0629
11701SOL    HW141066  10.854  11.114   2.276 -1.0560  0.4927 -0.9088
11701SOL    HW241067  10.845  10.988   2.193  1.0745 -1.7738  2.0962
11702SOL     OW41068   0.270   2.237   6.081  0.0476 -0.1950 -0.2422
11702SOL    HW141069   0.357   2.264   6.052 -0.3786  1.5175 -0.0443
11702SOL    HW241070   0.257   2.281   6.165 -1.4629  0.6445 -0.8497
11703SOL     OW41071   4.327   3.272   7.354 -0.6607 -0.1922 -0.1532
11703SOL    HW141072   4.331   3.248   7.446 -1.1469  1.2098  0.2647
11703SOL    HW241073   4.398   3.223   7.313 -0.1750 -0.5147  1.0366
11704SOL     OW41074   6.184   5.108   4.698  0.4676  0.1349  0.0951
11704SOL    HW141075   6.140   5.076   4.777 -1.9714  1.4095 -0.6260
11704SOL    HW241076   6.173   5.037   4.634 -0.7939  0.4985 -0.1266
11705SOL     OW41077   7.099   0.731   6.522 -0.2796  0.2746 -0.5476
11705SOL    HW141078   7.029   0.791   6.498  0.8586  1.6651 -0.5341
11705SOL    HW241079   7.105   0.738   6.618  0.7155  1.1777 -0.6556
11706SOL     OW41080  11.012   3.786   6.217 -0.6407 -0.8903  0.1673
11706SOL    HW141081  11.056   3.828   6.143 -0.2817 -1.9042 -0.2098
11706SOL    HW241082  11.070   3.713   6.241 -1.1289 -1.0262  0.9628
11707SOL     OW41083  12.087   0.429   5.515 -0.5936  0.0099 -0.4014
11707SOL    HW141084  12.016   0.458   5.458 -0.6425 -0.0635 -0.3779
11707SOL    HW241085  12.084   0.333   5.510 -0.7406 -0.0015 -0.1038
11708SOL     OW41086   5.356   9.586   4.560  0.4229  0.2474  0.3028
11708SOL    HW141087   5.430   9.576   4.619  2.2666  0.7384 -1.8091
11708SOL    HW241088   5.373   9.525   4.489 -0.7984  0.9293 -0.6212
11709SOL     OW41089  11.899   1.786   3.012  0.6207  0.5901 -0.4579
11709SOL    HW141090  11.955   1.715   3.043  0.9947  1.3797  0.7307
11709SOL    HW241091  11.847   1.746   2.942  1.8926 -0.4380 -0.8593
11710SOL     OW41092   9.316   0.280   5.197 -0.0461  0.2151  0.0774
11710SOL    HW141093   9.345   0.192   5.170 -1.5157 -0.3638  0.2731
11710SOL    HW241094   9.349   0.290   5.286  0.8458  0.2140 -0.2462
11711SOL     OW41095   3.318   0.357  10.443  0.0804 -0.0384 -0.0759
11711SOL    HW141096   3.389   0.377  10.504  0.3521  0.7324 -0.6285
11711SOL    HW241097   3.256   0.429  10.454  0.0480  0.0137 -0.5824
11712SOL     OW41098   0.239   3.376   3.790 -0.1203 -0.5363  0.1319
11712SOL    HW141099   0.272   3.464   3.768  0.9195 -1.0574 -0.4797
11712SOL    HW241100   0.209   3.384   3.880  1.9612 -0.0486  0.8487
11713SOL     OW41101  11.734   6.350   0.818 -0.1445 -0.1239  0.0997
11713SOL    HW141102  11.776   6.429   0.851  1.6943 -0.5587 -1.0426
11713SOL    HW241103  11.640   6.363   0.834  0.1950  1.9395  0.5856
11714SOL     OW41104   6.207   9.577   2.658  0.4836 -0.2335  0.1875
11714SOL    HW141105   6.196   9.487   2.688 -1.7923 -0.3647 -0.8736
11714SOL    HW241106   6.164   9.631   2.725 -0.4164 -0.1624 -0.4315
11715SOL     OW41107   1.172  10.212   3.044  0.7234  0.1713 -0.3125
11715SOL    HW141108   1.167  10.177   3.133  1.7247 -1.8637 -0.9826
11715SOL    HW241109   1.176  10.307   3.055  2.2215 -0.0769  1.8973
11716SOL     OW41110   4.734   6.368  10.870  0.1234 -0.0633 -0.2175
11716SOL    HW141111   4.811   6.415  10.901 -1.4785  2.1597  0.7221
11716SOL    HW241112   4.670   6.379  10.940 -1.8918  0.4713 -2.0116
11717SOL     OW41113   0.858   6.791   8.210 -0.1663 -0.1786 -0.1273
11717SOL    HW141114   0.931   6.787   8.148 -2.4780 -1.3030 -3.0219
11717SOL    HW241115   0.820   6.877   8.196 -0.1787 -0.0956  0.4072
11718SOL     OW41116  10.756   8.992   2.227  0.0083  0.3292  0.1745
11718SOL    HW141117  10.834   9.026   2.183 -0.2263  0.5862 -0.0533
11718SOL    HW241118  10.684   9.014   2.167 -0.1926 -0.2403  0.2032
11719SOL     OW41119   4.351   2.870   1.520 -0.5366 -0.0964 -0.1153
11719SOL    HW141120   4.442   2.895   1.506 -0.8398  0.9759 -0.2895
11719SOL    HW241121   4.316   2.938   1.577 -1.0370 -0.9033  0.5644
11720SOL     OW41122   9.366   3.189  11.961  0.1155 -0.1076  0.6368
11720SOL    HW141123   9.284   3.207  12.007 -0.5396  0.9200 -0.8712
11720SOL    HW241124   9.402   3.276  11.942  1.0729 -0.5398  0.4378
11721SOL     OW41125  10.922   8.122  11.114 -0.3650  0.3684 -0.5655
11721SOL    HW141126  10.884   8.139  11.200 -0.5759  0.9143 -0.7664
11721SOL    HW241127  11.009   8.086  11.134 -0.1072  1.1939 -0.1198
11722SOL     OW41128   4.915   0.651   3.442 -0.5123 -0.3492  0.1898
11722SOL    HW141129   4.992   0.612   3.483  0.8448  0.8947 -1.1020
11722SOL    HW241130   4.880   0.582   3.386  1.3876 -0.0654 -1.4454
11723SOL     OW41131  10.568   7.487  10.917 -0.2027 -0.4462 -0.3312
11723SOL    HW141132  10.655   7.522  10.930 -0.0137 -0.9412 -0.2259
11723SOL    HW241133  10.537   7.527  10.836  0.4585 -0.9150 -0.8208
11724SOL     OW41134   1.638   9.406  12.163  0.4076  0.2391 -0.3622
11724SOL    HW141135   1.605   9.373  12.246  0.8157  1.5544  0.3677
11724SOL    HW241136   1.586   9.362  12.096 -0.7395  0.0350  0.6363
11725SOL     OW41137   6.786   2.328   9.050  0.1633  0.3994 -0.3448
11725SOL    HW141138   6.759   2.242   9.083  3.2428 -0.3193  0.5419
11725SOL    HW241139   6.842   2.309   8.975  2.1946  1.4726  0.8079
11726SOL     OW41140   9.704  11.350   6.243 -0.0288 -0.4365  0.4929
11726SOL    HW141141   9.621  11.338   6.288  0.3698  0.1541  1.4168
11726SOL    HW241142   9.745  11.425   6.287  0.1260  0.5348 -1.2276
11727SOL     OW41143   6.539  10.070   3.264 -0.3816  0.8267 -0.5656
11727SOL    HW141144   6.598  10.133   3.305  0.4733 -0.0550 -0.4105
11727SOL    HW241145   6.464  10.122   3.236 -1.0150  1.4931  2.0847
11728SOL     OW41146   4.969   4.654   8.422 -0.3704  0.0818  0.4464
11728SOL    HW141147   5.031   4.619   8.358 -1.4149 -0.0329 -0.5166
11728SOL    HW241148   5.015   4.644   8.506  0.9883  0.1634 -0.2466
11729SOL     OW41149   7.569   5.986   2.794 -0.2597 -0.5598 -0.7341
11729SOL    HW141150   7.644   5.937   2.760  0.0482  0.0639 -0.9691
11729SOL    HW241151   7.554   6.054   2.729  0.5049  0.8379  0.5153
11730SOL     OW41152   1.216  10.075  12.013 -0.0102 -0.1298  0.6172
11730SOL    HW141153   1.280  10.006  12.034 -0.2405 -1.2022 -1.9195
11730SOL    HW241154   1.131  10.033  12.025 -0.1544 -0.1979 -0.5412
11731SOL     OW41155   1.925  10.205  11.974 -0.0559 -0.0678 -0.1800
11731SOL    HW141156   1.840  10.216  11.931 -0.4008 -1.0448  0.2120
11731SOL    HW241157   1.924  10.114  12.005  0.4515  0.4059  1.3086
11732SOL     OW41158   7.214  10.749   4.750 -0.1003 -0.0804 -0.0101
11732SOL    HW141159   7.135  10.799   4.730  0.2368 -0.4809 -2.8384
11732SOL    HW241160   7.283  10.815   4.756 -0.1858  0.0569 -0.4775
11733SOL     OW41161   3.471   9.879   5.557  0.7585  0.3257  0.1853
11733SOL    HW141162   3.514   9.886   5.471  0.6601 -1.5820 -0.0642
11733SOL    HW241163   3.522   9.937   5.614  0.6711  1.8433 -1.1920
11734SOL     OW41164   0.037   8.377   9.085 -0.4790  0.3664 -0.5025
11734SOL    HW141165   0.059   8.470   9.077  1.0305 -0.0330 -1.3618
11734SOL    HW241166  -0.036   8.375   9.147  0.3580  1.9998  0.6051
11735SOL     OW41167  11.804   2.496  10.986  0.2724 -0.1014  0.2787
11735SOL    HW141168  11.844   2.518  11.070 -0.0130  0.0194  0.3802
11735SOL    HW241169  11.716   2.466  11.007  0.3300 -0.4351  0.0577
11736SOL     OW41170  11.229   7.053  10.078 -0.1134 -0.2243  0.4779
11736SOL    HW141171  11.138   7.079  10.061 -0.2852 -0.6724  0.6950
11736SOL    HW241172  11.269   7.130  10.118  0.5130  1.1677 -2.5515
11737SOL     OW41173   3.914   7.850   9.968  0.4139  0.5687 -0.0081
11737SOL    HW141174   3.948   7.812  10.049  1.6093 -0.3376 -0.8980
11737SOL    HW241175   3.974   7.921   9.947  0.5715  0.2908 -0.5131
11738SOL     OW41176   4.048   8.100  11.014 -0.2995  0.3458  0.3679
11738SOL    HW141177   4.043   8.148  11.097  0.4708 -0.8583  1.1393
11738SOL    HW241178   4.140   8.075  11.006 -0.5922 -0.5804 -0.2368
11739SOL     OW41179   5.500  12.095   9.681 -0.0646  0.0239  0.4800
11739SOL    HW141180   5.509  12.072   9.773  1.9188  1.4798  0.7254
11739SOL    HW241181   5.573  12.052   9.637 -0.3082  0.2943 -0.2164
11740SOL     OW41182   8.893   8.713   7.608 -0.2444 -0.6352  0.2112
11740SOL    HW141183   8.848   8.662   7.675  0.8930 -1.1120  0.6340
11740SOL    HW241184   8.852   8.686   7.526 -0.4216 -1.3849  0.5369
11741SOL     OW41185   6.065   8.031   4.021 -0.5653 -0.2119 -0.1694
11741SOL    HW141186   6.085   7.941   3.994  0.4126 -0.1564  0.3254
11741SOL    HW241187   6.062   8.027   4.116 -0.4357  0.2893 -0.1415
11742SOL     OW41188   2.616   0.493   4.963  0.0408  0.3068 -0.0676
11742SOL    HW141189   2.616   0.398   4.961  0.5958  0.3102 -0.4030
11742SOL    HW241190   2.636   0.515   5.054  2.3136  0.0836 -0.4615
11743SOL     OW41191  12.172   8.757   0.880 -0.4391  0.0449 -0.6248
11743SOL    HW141192  12.234   8.790   0.945 -1.0678  1.6415 -0.7781
11743SOL    HW241193  12.096   8.730   0.931 -0.2679 -0.3391 -0.5692
11744SOL     OW41194   9.547   2.890  10.893  0.9129  0.0902 -0.0884
11744SOL    HW141195   9.639   2.873  10.873  0.8521  0.8011 -1.0379
11744SOL    HW241196   9.536   2.984  10.880 -0.0911 -0.0825 -0.6091
11745SOL     OW41197   3.217   5.374   9.761  0.1594 -0.8646 -0.0869
11745SOL    HW141198   3.137   5.342   9.718 -0.1873  0.6520 -0.6436
11745SOL    HW241199   3.279   5.385   9.690 -0.0876  0.6978 -0.0870
11746SOL     OW41200   4.606   7.772   0.176 -0.4581  0.1602  0.1420
11746SOL    HW141201   4.650   7.729   0.102  1.2359  0.6602  0.8155
11746SOL    HW241202   4.615   7.865   0.157  0.8230  0.3297  1.3899
11747SOL     OW41203   2.326   8.151   9.549 -0.5205  0.2090  0.7903
11747SOL    HW141204   2.312   8.216   9.481 -1.7555 -0.4770  0.3601
11747SOL    HW241205   2.301   8.195   9.630 -1.0969  0.3650  0.5329
11748SOL     OW41206   1.338   6.813   6.956  0.4883  0.7102 -0.4259
11748SOL    HW141207   1.406   6.747   6.967 -1.5586 -1.2751  1.0833
11748SOL    HW241208   1.260   6.764   6.930 -0.7006  2.7621 -0.9849
11749SOL     OW41209   0.901   7.945   6.353  0.6782  0.0675  0.2559
11749SOL    HW141210   0.948   7.966   6.272 -0.6735 -1.2434 -0.9351
11749SOL    HW241211   0.898   8.028   6.401  1.9014  0.7687 -0.8151
11750SOL     OW41212   9.808   2.890   4.810  0.1577  0.1271 -0.5331
11750SOL    HW141213   9.745   2.961   4.801  0.2317  0.2362 -0.2014
11750SOL    HW241214   9.867   2.899   4.735  1.7538  2.0059  0.8297
11751SOL     OW41215   4.824   2.609  10.187 -0.5483  0.1101 -0.1181
11751SOL    HW141216   4.841   2.563  10.269  1.2556  1.4698  0.3346
11751SOL    HW241217   4.737   2.647  10.198 -0.4702 -0.0209  1.0299
11752SOL     OW41218   4.030   4.536   8.413 -0.3239 -0.4689 -0.2077
11752SOL    HW141219   4.021   4.497   8.327  1.1045 -1.6289  0.1306
11752SOL    HW241220   4.124   4.546   8.426 -0.5496  3.0944 -0.2200
11753SOL     OW41221   3.971  10.990   7.652 -0.2788  0.0439  0.1003
11753SOL    HW141222   4.010  11.050   7.589 -0.5530  1.6104  1.3777
11753SOL    HW241223   3.880  11.019   7.660 -0.4929 -0.7166  0.5476
11754SOL     OW41224   5.573   6.049  12.283 -0.2128  0.0352 -0.1132
11754SOL    HW141225   5.606   6.129  12.241 -0.6518  1.1542  1.5727
11754SOL    HW241226   5.519   6.007  12.216  0.7214  0.6883 -1.3142
11755SOL     OW41227   9.467   9.297   6.037 -0.1346 -0.0323  0.6098
11755SOL    HW141228   9.533   9.366   6.028  0.3469 -0.6189 -0.7194
11755SOL    HW241229   9.498   9.244   6.110  0.1089  0.5029  0.9013
11756SOL     OW41230   3.993   5.061   3.051 -0.1455 -0.4554 -0.9166
11756SOL    HW141231   4.034   5.147   3.058 -0.3137 -0.4962  2.5551
11756SOL    HW241232   3.903   5.078   3.027 -0.5919  0.5837  1.2390
11757SOL     OW41233   3.405   6.968  10.596  0.5299 -0.7863  0.3536
11757SOL    HW141234   3.358   6.955  10.679 -1.6988  0.4397 -0.6355
11757SOL    HW241235   3.339   7.002  10.536  2.4893  0.0498 -1.4569
11758SOL     OW41236   6.877   3.822   3.156  0.6508 -0.0117  0.0683
11758SOL    HW141237   6.923   3.752   3.108 -1.2163 -1.3713  0.1404
11758SOL    HW241238   6.847   3.780   3.236 -1.0901  0.6746 -0.1837
11759SOL     OW41239   5.750   8.626  11.769 -0.5107 -0.1605  0.5803
11759SOL    HW141240   5.665   8.591  11.742 -1.4220  2.0886  0.3245
11759SOL    HW241241   5.813   8.580  11.715 -1.7891 -0.1282 -1.0268
11760SOL     OW41242   1.762   5.318   2.317  0.4217 -0.6972  0.3469
11760SOL    HW141243   1.725   5.388   2.372  1.0789 -0.6363  0.7290
11760SOL    HW241244   1.704   5.313   2.242 -0.8719 -1.2112  1.3400
11761SOL     OW41245   9.507   1.916   9.113  0.0502  0.3078 -0.4447
11761SOL    HW141246   9.576   1.856   9.084  0.2409  0.2642  0.0987
11761SOL    HW241247   9.553   1.993   9.146 -0.1985  0.7493 -1.1196
11762SOL     OW41248  12.360   1.002   5.162  0.4893 -0.1824 -0.1494
11762SOL    HW141249  12.415   1.060   5.216  0.0285  0.7002 -0.5953
11762SOL    HW241250  12.278   1.051   5.153  0.2018 -0.7877 -0.7946
11763SOL     OW41251   5.400   7.586   4.799  0.3507  0.4288  0.0651
11763SOL    HW141252   5.445   7.562   4.718  2.2407  2.1566  0.5421
11763SOL    HW241253   5.330   7.645   4.771  1.0999  1.1514 -0.2974
11764SOL     OW41254   7.903  10.321   6.908 -0.1939 -0.9835 -1.3924
11764SOL    HW141255   7.933  10.390   6.968 -1.6335 -1.5486  0.0361
11764SOL    HW241256   7.857  10.259   6.964 -0.0988 -2.4347 -2.8585
11765SOL     OW41257   1.778   6.020   7.800  0.0674  0.4649 -0.3516
11765SOL    HW141258   1.765   6.104   7.756 -0.3850  0.1403 -0.8543
11765SOL    HW241259   1.768   5.955   7.730  0.8878  0.0177 -0.0614
11766SOL     OW41260   9.163   9.697   1.991 -0.0751 -0.1335 -0.0141
11766SOL    HW141261   9.223   9.699   2.065 -1.8122  4.6504  1.6781
11766SOL    HW241262   9.217   9.722   1.916  1.0368 -1.6405  0.2264
11767SOL     OW41263   7.501   9.402  12.213  0.1935 -0.0258 -0.2763
11767SOL    HW141264   7.524   9.376  12.124  0.9919 -0.2198 -0.0193
11767SOL    HW241265   7.524   9.327  12.268  2.4528  1.0900  0.4662
11768SOL     OW41266   7.152   0.488   4.457 -0.1894  0.0502  0.3032
11768SOL    HW141267   7.078   0.539   4.425  0.0838  0.8679  0.9426
11768SOL    HW241268   7.225   0.550   4.460  0.4446 -0.6639  0.0026
11769SOL     OW41269   8.959   9.755   2.449  0.2953  0.0822 -0.4076
11769SOL    HW141270   9.009   9.831   2.421  1.6821 -0.1973  1.1416
11769SOL    HW241271   9.024   9.695   2.485 -1.0843 -0.4144  1.4691
11770SOL     OW41272   7.110   3.558   0.618 -0.7814 -0.3545 -0.9089
11770SOL    HW141273   7.127   3.564   0.524 -1.2850  0.7552 -0.9426
11770SOL    HW241274   7.108   3.648   0.648 -0.1211 -0.7118  0.2746
11771SOL     OW41275   1.590   1.458   2.243  0.6445 -0.0789  0.0222
11771SOL    HW141276   1.666   1.513   2.225  0.1649  0.7227  0.4022
11771SOL    HW241277   1.570   1.473   2.336 -0.5755  0.4882 -0.3146
11772SOL     OW41278   9.692  11.084   1.811 -0.6326 -0.3350  0.1648
11772SOL    HW141279   9.651  11.155   1.861  0.3388  0.6253 -0.3420
11772SOL    HW241280   9.767  11.126   1.769  1.4699 -2.2054  1.8146
11773SOL     OW41281   5.103   8.195   5.232  0.3763 -0.0716  0.1148
11773SOL    HW141282   5.074   8.147   5.310  0.8168 -0.8434 -0.1862
11773SOL    HW241283   5.083   8.136   5.160  1.4278 -0.0298 -0.2206
11774SOL     OW41284   4.002   5.307  12.395  0.0932  0.1490  0.3019
11774SOL    HW141285   4.073   5.329  12.454 -0.2646 -3.2522  2.2349
11774SOL    HW241286   4.045   5.269  12.318  0.4090  0.1808  0.4627
11775SOL     OW41287   2.142  11.559   9.937  0.0518  0.1279  0.0195
11775SOL    HW141288   2.203  11.535  10.007 -0.6439 -0.8895  0.3106
11775SOL    HW241289   2.188  11.535   9.856 -0.1248 -1.0737  0.2567
11776SOL     OW41290   6.290   0.100   8.172  0.3434  0.2708 -0.0479
11776SOL    HW141291   6.282   0.037   8.100  2.3139 -0.4435  0.3022
11776SOL    HW241292   6.200   0.130   8.187 -0.3694 -0.9364 -1.5692
11777SOL     OW41293   9.569   3.881   4.497  0.3381 -0.2014  0.0925
11777SOL    HW141294   9.591   3.879   4.403  1.5968 -0.6279  0.3834
11777SOL    HW241295   9.643   3.925   4.538 -0.0311 -0.3581  0.9378
11778SOL     OW41296  12.183   6.413   3.276  0.2697  0.0324  0.2001
11778SOL    HW141297  12.200   6.426   3.369  0.1996  0.4307  0.1562
11778SOL    HW241298  12.176   6.501   3.240  0.7508 -0.1193 -0.2698
11779SOL     OW41299   1.319  11.789   1.054 -0.0874  0.3800 -0.4218
11779SOL    HW141300   1.413  11.771   1.050 -0.1421 -0.9610  1.9899
11779SOL    HW241301   1.314  11.881   1.080  0.4941  0.8853 -2.0063
11780SOL     OW41302   4.212   0.633  10.103 -0.0402  0.9324  0.2172
11780SOL    HW141303   4.224   0.721  10.137 -1.4568  1.1165  0.2846
11780SOL    HW241304   4.209   0.644  10.008 -2.1901  1.2538  0.2839
11781SOL     OW41305   2.389   0.966   4.669  0.2700 -0.0538 -0.0495
11781SOL    HW141306   2.349   0.928   4.747  0.9956 -1.7982 -0.4952
11781SOL    HW241307   2.381   0.898   4.602  1.3772  0.6754 -0.9600
11782SOL     OW41308   6.920   4.684   8.839  0.2569 -0.0287  0.4305
11782SOL    HW141309   6.849   4.624   8.817  0.3436 -0.3064  0.9102
11782SOL    HW241310   6.877   4.763   8.872  0.1964 -0.5297  1.5569
11783SOL     OW41311   0.371   8.542   8.825  0.1042  0.4033 -0.2538
11783SOL    HW141312   0.379   8.550   8.730 -0.6493 -1.2764 -0.4830
11783SOL    HW241313   0.279   8.558   8.844 -0.3749 -2.0440 -0.1760
11784SOL     OW41314   9.667   0.641   5.776  0.7955 -0.1790  0.2259
11784SOL    HW141315   9.616   0.713   5.739  0.9671 -0.8441 -1.3655
11784SOL    HW241316   9.697   0.674   5.861 -2.0746  0.3085  1.1604
11785SOL     OW41317   2.068   1.053  12.071  0.3373  0.3849 -0.1955
11785SOL    HW141318   2.136   1.008  12.122 -1.2518 -0.1851  1.5161
11785SOL    HW241319   2.022   1.108  12.134 -2.5239 -1.3059 -0.6142
11786SOL     OW41320   7.305   2.677   0.026  0.1856 -0.1813 -0.4241
11786SOL    HW141321   7.347   2.604  -0.019  0.4141 -1.3222  1.4943
11786SOL    HW241322   7.245   2.635   0.088 -0.2113  1.2778  0.2209
11787SOL     OW41323   5.341   1.553   5.697  0.5311 -0.4666  0.2511
11787SOL    HW141324   5.246   1.567   5.702  0.4857 -0.7467  0.2130
11787SOL    HW241325   5.360   1.546   5.604  0.6891  0.2275  0.2274
11788SOL     OW41326   9.655   3.549   3.138 -0.6693 -0.4188 -0.9827
11788SOL    HW141327   9.654   3.463   3.095 -2.4436 -0.3050 -1.2775
11788SOL    HW241328   9.580   3.546   3.197 -0.7720  0.9358 -1.0243
11789SOL     OW41329  11.146  12.196   7.789  0.2775 -0.3414 -0.9964
11789SOL    HW141330  11.141  12.104   7.814  1.4031 -0.3862 -0.8433
11789SOL    HW241331  11.186  12.239   7.864  1.7209 -0.1133 -1.8509
11790SOL     OW41332   7.469   3.056  11.531  0.7351  0.2589 -0.0300
11790SOL    HW141333   7.421   3.064  11.614  3.3738  2.0396  1.4749
11790SOL    HW241334   7.475   3.146  11.499 -2.5430 -0.5694 -3.7730
11791SOL     OW41335   9.240   3.079  10.506 -0.0499  0.8640 -0.5189
11791SOL    HW141336   9.173   3.113  10.447 -1.0546  2.5105  1.4555
11791SOL    HW241337   9.194   3.014  10.560  0.4202  0.6391 -0.3811
11792SOL     OW41338  10.941   3.877  12.323 -0.4287  0.1317 -0.0764
11792SOL    HW141339  10.987   3.961  12.330 -0.0857 -0.0353 -0.3287
11792SOL    HW241340  10.959   3.833  12.406 -0.7270  0.3652  0.1146
11793SOL     OW41341  10.501   1.712   8.867  0.0135  0.8846 -0.0187
11793SOL    HW141342  10.577   1.730   8.923 -0.2954  1.0384  0.3549
11793SOL    HW241343  10.534   1.649   8.803  1.2211  3.0081 -1.6194
11794SOL     OW41344   0.134   5.623   0.984 -0.1801 -0.2464 -0.1266
11794SOL    HW141345   0.091   5.549   1.027 -0.3740 -1.0641 -1.6446
11794SOL    HW241346   0.131   5.694   1.049  0.1621 -1.5987  1.4310
11795SOL     OW41347  10.715   7.955   1.606 -0.1733 -0.6969 -0.3570
11795SOL    HW141348  10.675   7.868   1.610  0.4016 -0.9729 -0.4026
11795SOL    HW241349  10.743   7.964   1.515 -1.1088 -0.0498 -0.5906
11796SOL     OW41350  10.525   1.357   5.896 -0.6289  0.5971 -0.2857
11796SOL    HW141351  10.518   1.303   5.818  1.3238  0.5207 -0.4771
11796SOL    HW241352  10.451   1.417   5.892 -1.5426 -0.5708 -1.2492
11797SOL     OW41353   1.753   6.369  11.018 -0.0924  0.1089  0.7054
11797SOL    HW141354   1.796   6.303  11.073  1.6647 -0.4125 -1.1756
11797SOL    HW241355   1.746   6.328  10.932 -2.1570  1.1460  0.3142
11798SOL     OW41356   4.399   2.166  11.936 -0.7600 -0.3986 -0.3698
11798SOL    HW141357   4.307   2.158  11.913 -0.9699 -1.4696  0.7092
11798SOL    HW241358   4.413   2.260  11.948 -1.6095 -0.1962 -0.8799
11799SOL     OW41359   8.121  11.895   5.020  0.0269 -0.8963  0.0919
11799SOL    HW141360   8.123  11.988   5.045  1.3927 -0.6152 -0.9701
11799SOL    HW241361   8.068  11.854   5.088  0.0337  0.5332  1.0152
11800SOL     OW41362   3.620  11.633   4.960 -0.1366 -0.1596 -0.6863
11800SOL    HW141363   3.565  11.556   4.971 -0.1248 -0.0605  0.0756
11800SOL    HW241364   3.558  11.706   4.955 -0.0763 -0.0266  0.3598
11801SOL     OW41365   5.696   2.599  10.158 -0.4051  0.1207 -0.9444
11801SOL    HW141366   5.768   2.613  10.097  0.4652 -0.4666 -0.1000
11801SOL    HW241367   5.705   2.670  10.222 -1.0139  0.4565 -1.2318
11802SOL     OW41368   5.529   3.796   0.636  0.8562 -0.1171 -0.1643
11802SOL    HW141369   5.588   3.863   0.672  0.4297 -0.6510  1.6322
11802SOL    HW241370   5.587   3.726   0.607  1.1840 -0.2814  0.8305
11803SOL     OW41371   8.425   9.189   4.482  0.2978 -0.0911 -0.0558
11803SOL    HW141372   8.520   9.179   4.491  0.3420  1.4223  1.6015
11803SOL    HW241373   8.389   9.137   4.554 -0.1973 -1.2346 -1.0975
11804SOL     OW41374  10.929   1.147   0.072  0.1336  0.3780  0.0228
11804SOL    HW141375  10.905   1.223   0.020  1.0226  1.6885  1.4616
11804SOL    HW241376  10.997   1.103   0.021 -0.4614  0.4815 -0.8684
11805SOL     OW41377  10.830   0.560   6.020 -0.1735  0.2639 -0.4711
11805SOL    HW141378  10.740   0.527   6.018 -0.2080  0.2819  0.3892
11805SOL    HW241379  10.836   0.610   6.102  0.6259  0.2341 -0.4982
11806SOL     OW41380   9.447   8.838  11.748  0.1258  0.2671  0.7301
11806SOL    HW141381   9.533   8.878  11.740 -0.4169  1.2793 -0.3794
11806SOL    HW241382   9.424   8.812  11.658 -0.2500 -1.0463  1.1757
11807SOL     OW41383   1.534   7.247   5.851 -0.4320  0.7719  0.1125
11807SOL    HW141384   1.533   7.342   5.835  2.2723  1.1233  1.3601
11807SOL    HW241385   1.627   7.226   5.861 -1.0470 -1.7856  1.2167
11808SOL     OW41386   5.492   3.620   2.195  0.0915  0.0439  0.2463
11808SOL    HW141387   5.513   3.694   2.138 -0.2954 -0.8913 -1.1605
11808SOL    HW241388   5.576   3.577   2.211  0.2805  0.6139  0.8617
11809SOL     OW41389   9.143   9.105  10.559  0.0405  0.8549  0.2182
11809SOL    HW141390   9.175   9.180  10.509  0.2440  0.6188 -0.0096
11809SOL    HW241391   9.053   9.094  10.528  0.3783  0.2966 -0.5952
11810SOL     OW41392   1.207   6.557   5.852 -0.1110  0.0890  0.2403
11810SOL    HW141393   1.127   6.584   5.806 -1.4396 -2.7276  0.6673
11810SOL    HW241394   1.232   6.634   5.903  0.2079  2.6512 -3.3734
11811SOL     OW41395   1.296   7.705   4.979  0.3315 -0.8803  0.1958
11811SOL    HW141396   1.361   7.646   4.941  1.5467  0.7076 -0.3394
11811SOL    HW241397   1.234   7.722   4.908  0.3059 -1.0565  0.1757
11812SOL     OW41398   5.638   6.500  11.474 -0.0169  0.1212 -0.6245
11812SOL    HW141399   5.600   6.415  11.452  1.2904 -0.5299 -0.4468
11812SOL    HW241400   5.574   6.563  11.442 -0.6022 -0.9008 -1.5523
11813SOL     OW41401  10.730   0.448   5.603  0.4119 -0.0673  0.4512
11813SOL    HW141402  10.745   0.394   5.525 -0.1940 -0.9873  0.9607
11813SOL    HW241403  10.647   0.492   5.586 -0.1178 -0.8726  0.8988
11814SOL     OW41404   9.097   2.824  11.989  0.3719 -0.8945  0.4828
11814SOL    HW141405   9.147   2.860  12.062  1.2376  0.8770 -0.9266
11814SOL    HW241406   9.029   2.889  11.971  1.1364 -0.5415 -1.2690
11815SOL     OW41407   5.249  11.205   3.033 -0.0004  0.3669 -0.0982
11815SOL    HW141408   5.291  11.151   2.965  1.6112  2.7121 -1.1056
11815SOL    HW241409   5.180  11.252   2.987 -2.3616 -1.7106  1.0729
11816SOL     OW41410   6.629   5.994  11.248  0.3016 -0.7261 -0.0310
11816SOL    HW141411   6.648   6.012  11.157 -2.4756 -0.5174 -0.6636
11816SOL    HW241412   6.536   6.017  11.259  0.3061 -1.5398  2.6192
11817SOL     OW41413   9.527   1.358   7.193 -0.2662 -0.0005 -0.4352
11817SOL    HW141414   9.432   1.349   7.201 -0.0526 -1.3497  1.2615
11817SOL    HW241415   9.553   1.408   7.270  0.6408 -2.0192  0.6360
11818SOL     OW41416   5.158   6.359   2.979 -0.7963 -0.0151  0.1186
11818SOL    HW141417   5.143   6.278   2.930 -0.7137  0.0911 -0.0844
11818SOL    HW241418   5.084   6.365   3.039 -1.8393  0.7554 -1.2040
11819SOL     OW41419   4.937   8.556   2.121 -0.4416  0.3161 -0.1492
11819SOL    HW141420   4.879   8.559   2.045  1.1752  2.8091 -1.4061
11819SOL    HW241421   5.006   8.495   2.097 -0.4808  0.3147 -0.2555
11820SOL     OW41422   8.955   3.719   8.787  0.4729 -0.4814 -0.1264
11820SOL    HW141423   8.950   3.741   8.880  0.0951 -0.0612 -0.2459
11820SOL    HW241424   9.042   3.750   8.760 -0.4297  1.8782 -0.5353
11821SOL     OW41425  12.363   5.737  12.078 -0.1567  0.3838  0.0012
11821SOL    HW141426  12.411   5.774  12.152  0.8175 -1.1781  0.1857
11821SOL    HW241427  12.399   5.782  12.001  0.9689 -0.1264  0.2186
11822SOL     OW41428   0.737   7.152   5.814 -0.0183 -0.4557  0.2454
11822SOL    HW141429   0.741   7.122   5.723 -0.3677 -0.5689  0.2671
11822SOL    HW241430   0.755   7.246   5.810 -2.3507  0.0318 -0.2087
11823SOL     OW41431  10.418   7.656   2.221  0.5412  0.1725  0.0406
11823SOL    HW141432  10.494   7.711   2.239  0.3050  0.6704 -0.4517
11823SOL    HW241433  10.343   7.715   2.229  0.2825 -0.0767 -0.4841
11824SOL     OW41434   8.663   0.610  11.921 -0.2271  0.0182  0.1221
11824SOL    HW141435   8.743   0.658  11.900  0.0430 -0.7076 -0.5570
11824SOL    HW241436   8.637   0.642  12.007  0.2654  0.9514 -0.0654
11825SOL     OW41437   0.807   8.120  11.857 -0.0886  0.3796  0.0507
11825SOL    HW141438   0.873   8.185  11.834 -1.2513  1.3758 -0.5438
11825SOL    HW241439   0.732   8.171  11.886 -1.6012 -0.5933 -1.9197
11826SOL     OW41440   2.273   6.301  12.225 -0.3960  0.2135 -0.6142
11826SOL    HW141441   2.337   6.236  12.194  0.4389  0.8666 -0.2893
11826SOL    HW241442   2.222   6.254  12.290 -1.1128 -0.7027 -1.7818
11827SOL     OW41443   1.816   3.125   1.734  0.3162 -0.3230  0.1117
11827SOL    HW141444   1.887   3.145   1.672  0.4780 -0.3712  0.2802
11827SOL    HW241445   1.812   3.030   1.736  0.0051 -0.3174 -0.1688
11828SOL     OW41446   2.666   2.069   8.482 -0.1116 -0.1524  0.4303
11828SOL    HW141447   2.667   2.158   8.516  2.9355  0.4866 -0.9706
11828SOL    HW241448   2.709   2.017   8.550 -1.6198 -0.5414  1.1166
11829SOL     OW41449   9.970   2.098  11.571  0.7709  0.2334  0.3269
11829SOL    HW141450   9.921   2.077  11.491 -0.8447 -0.3057  1.4210
11829SOL    HW241451  10.053   2.134  11.539  0.6799 -1.1285 -1.5941
11830SOL     OW41452   3.000   8.472   4.630  0.0258  0.9876  0.2430
11830SOL    HW141453   2.916   8.481   4.676 -0.3327 -2.0885  0.4048
11830SOL    HW241454   2.979   8.487   4.538 -0.7458  0.1982  0.2740
11831SOL     OW41455   3.039  10.223   0.747  0.7220  0.2697 -0.1313
11831SOL    HW141456   3.093  10.155   0.788 -0.3267  0.4299  1.6114
11831SOL    HW241457   3.068  10.305   0.787  0.8172  0.6584 -0.9740
11832SOL     OW41458   2.562  10.241  11.802  0.2795 -0.5527 -0.3559
11832SOL    HW141459   2.472  10.258  11.776 -0.4435 -0.7350  1.8724
11832SOL    HW241460   2.612  10.315  11.765 -0.8200 -0.2721 -1.3188
11833SOL     OW41461   5.224   3.354   8.187 -0.4124  0.3269  0.4281
11833SOL    HW141462   5.141   3.392   8.215 -0.7496  0.2693 -0.4683
11833SOL    HW241463   5.203   3.304   8.108  0.4061  0.0120  0.3957
11834SOL     OW41464  10.570  11.579   8.025 -0.0485 -0.4665  0.4116
11834SOL    HW141465  10.506  11.538   8.083  0.7811 -1.7314  0.4612
11834SOL    HW241466  10.640  11.515   8.016  0.4935  0.2558 -0.9043
11835SOL     OW41467  11.873   6.674  10.367  0.0069 -0.6558  0.0061
11835SOL    HW141468  11.922   6.756  10.382 -1.9555  0.4527  0.6715
11835SOL    HW241469  11.937   6.616  10.326  1.4863  1.1986 -0.4768
11836SOL     OW41470   5.856   7.927   0.567  0.6443  0.1464 -0.6529
11836SOL    HW141471   5.923   7.879   0.616  0.1097 -1.2429 -1.2344
11836SOL    HW241472   5.801   7.967   0.634  2.2798  1.6965 -0.1612
11837SOL     OW41473   2.340   4.449   6.893  0.0587  0.4146  0.0275
11837SOL    HW141474   2.301   4.381   6.949  0.4661 -1.1632 -1.5072
11837SOL    HW241475   2.292   4.528   6.916 -1.3155 -0.6363  1.0105
11838SOL     OW41476  12.460   3.022   9.650 -0.3990  0.3691  0.2831
11838SOL    HW141477  12.384   2.985   9.605 -0.4360  0.5604  0.1874
11838SOL    HW241478  12.441   3.011   9.743 -0.6126  0.5479  0.2630
11839SOL     OW41479  12.444   3.679   0.469  0.5643 -0.1512 -0.4608
11839SOL    HW141480  12.483   3.736   0.535 -0.1315 -0.4850  0.2524
11839SOL    HW241481  12.496   3.599   0.472  1.0676  0.1484 -0.9331
11840SOL     OW41482  11.231   8.231   9.214  0.7155 -0.6085 -0.0885
11840SOL    HW141483  11.164   8.275   9.162 -0.0303 -0.5128  0.9263
11840SOL    HW241484  11.284   8.302   9.251  1.3181 -0.6791 -0.7790
11841SOL     OW41485   8.741   3.631   0.710  0.3256 -0.2125  0.0057
11841SOL    HW141486   8.805   3.691   0.748  0.5762 -1.8849  2.4764
11841SOL    HW241487   8.773   3.616   0.621  0.9859  2.1964 -0.2404
11842SOL     OW41488   7.098   0.137   4.696 -0.0074  0.3674 -0.0410
11842SOL    HW141489   7.062   0.115   4.610  0.6321 -0.3055 -0.1504
11842SOL    HW241490   7.155   0.063   4.717  0.1622  0.7236  0.7780
11843SOL     OW41491   7.580   1.325   0.209  0.0311 -0.1672  0.4313
11843SOL    HW141492   7.495   1.292   0.182  0.0961 -1.0543  1.2449
11843SOL    HW241493   7.561   1.376   0.289  0.2504 -0.2970  0.5666
11844SOL     OW41494   8.522   4.734   7.585 -0.2373 -0.4079  0.7372
11844SOL    HW141495   8.484   4.818   7.613 -0.7201 -0.4682  0.2795
11844SOL    HW241496   8.462   4.702   7.517  0.5619 -0.5627  0.0855
11845SOL     OW41497   1.215   4.332   1.773 -0.0604 -0.4149  0.1617
11845SOL    HW141498   1.241   4.404   1.829  1.1645 -0.3101 -0.5035
11845SOL    HW241499   1.247   4.357   1.686 -1.8087 -0.6214 -0.5732
11846SOL     OW41500   1.852   5.372   0.536  0.2673  0.7007 -0.1284
11846SOL    HW141501   1.944   5.385   0.555  0.4087 -0.5256  0.1401
11846SOL    HW241502   1.850   5.350   0.443  0.5234 -1.3043  0.2800
11847SOL     OW41503   8.013   6.570   4.266 -0.0682  0.0945  0.1630
11847SOL    HW141504   8.027   6.511   4.340 -2.9890 -2.4906 -1.1612
11847SOL    HW241505   8.081   6.546   4.203  1.2701  1.0461  1.1731
11848SOL     OW41506   5.496   3.851   5.486  0.5270  0.5101  0.1392
11848SOL    HW141507   5.437   3.913   5.529  0.9596  2.3890 -1.7680
11848SOL    HW241508   5.566   3.836   5.549 -0.0939  1.2220  1.0181
11849SOL     OW41509   3.026   4.435   0.499 -0.7855 -0.0643  0.5253
11849SOL    HW141510   3.058   4.471   0.416 -0.7721 -0.0998  0.5151
11849SOL    HW241511   2.943   4.480   0.515 -1.8601 -1.5649 -0.5758
11850SOL     OW41512   8.538   2.454   2.972 -0.2493 -0.2707  0.6224
11850SOL    HW141513   8.612   2.395   2.956  0.2901  0.7478 -0.8116
11850SOL    HW241514   8.549   2.483   3.062  0.7035 -0.6684  0.6402
11851SOL     OW41515   9.906   0.619   3.653  0.5358 -0.3418  0.3834
11851SOL    HW141516   9.889   0.668   3.734  1.3212 -0.1443  0.4375
11851SOL    HW241517   9.898   0.527   3.678  2.0164 -0.3264  0.9972
11852SOL     OW41518   5.301   1.658   9.142  0.0749 -0.0337  0.0645
11852SOL    HW141519   5.360   1.637   9.214  0.0878  0.5291  0.2201
11852SOL    HW241520   5.359   1.678   9.068  0.0647 -0.2724 -0.0098
11853SOL     OW41521   3.240   2.150   2.172  0.2907  0.2726  0.2645
11853SOL    HW141522   3.172   2.166   2.238 -0.0668 -1.5295  0.4012
11853SOL    HW241523   3.192   2.126   2.093  0.7454  0.1031  0.0340
11854SOL     OW41524   8.559   1.740   6.857 -0.3440  0.4669 -0.6550
11854SOL    HW141525   8.492   1.688   6.812 -0.4735  1.9394 -2.2414
11854SOL    HW241526   8.571   1.817   6.802  2.0043  0.6929  0.0804
11855SOL     OW41527   0.001   1.114   2.879 -0.1796  0.3588  0.1117
11855SOL    HW141528   0.059   1.134   2.953 -0.1208 -0.2570  0.2346
11855SOL    HW241529   0.020   1.023   2.857 -0.8773  0.2456 -0.0467
11856SOL     OW41530  11.817   3.563   6.487 -0.1722  0.5433  0.2142
11856SOL    HW141531  11.893   3.508   6.503 -0.0208  0.3976 -0.8986
11856SOL    HW241532  11.746   3.522   6.537  0.3298  0.3109  0.7378
11857SOL     OW41533   3.561  10.866   8.356  0.1096 -0.0901  0.6595
11857SOL    HW141534   3.594  10.918   8.429 -0.2000 -3.5278  3.5034
11857SOL    HW241535   3.470  10.893   8.347  0.7736  2.0980 -0.2440
11858SOL     OW41536   4.502   1.094   0.831 -0.8808  0.8196 -0.2590
11858SOL    HW141537   4.533   1.003   0.827 -0.5027  0.9791 -1.2873
11858SOL    HW241538   4.411   1.088   0.859 -1.0169  0.0810 -0.8343
11859SOL     OW41539  10.106   7.019   4.197  0.4090  0.7800  0.2217
11859SOL    HW141540  10.026   7.008   4.249 -0.0575 -0.7434 -0.7643
11859SOL    HW241541  10.177   7.008   4.260 -0.1385 -1.2512  0.5523
11860SOL     OW41542  11.546   1.182   1.201  0.2991  0.4670  0.1791
11860SOL    HW141543  11.590   1.128   1.266 -1.0513 -2.1035 -0.8831
11860SOL    HW241544  11.460   1.199   1.239 -0.0493  0.0097 -0.3888
11861SOL     OW41545   8.393  10.938   6.700 -0.0352 -0.3157  0.1486
11861SOL    HW141546   8.432  10.966   6.618 -1.4325  2.4517  0.3317
11861SOL    HW241547   8.465  10.897   6.748  1.5344  0.6680 -1.2635
11862SOL     OW41548   8.728   0.863   8.482 -0.4110 -0.2008  0.2478
11862SOL    HW141549   8.663   0.866   8.553 -1.1590 -0.4742 -0.4072
11862SOL    HW241550   8.797   0.923   8.510 -0.4327 -0.7160  1.4510
11863SOL     OW41551   1.863   0.345   7.310  0.0912  0.1328  0.0648
11863SOL    HW141552   1.940   0.356   7.367  0.3739  1.0074 -0.4722
11863SOL    HW241553   1.811   0.424   7.325  0.2864  0.4907 -1.0626
11864SOL     OW41554   2.648   5.698   2.851 -0.0952  0.2547  0.0044
11864SOL    HW141555   2.731   5.660   2.821  0.5380  0.9424  0.8224
11864SOL    HW241556   2.584   5.628   2.841  0.8945 -0.7981  0.7685
11865SOL     OW41557   6.666   3.177   7.492  0.2092  0.2299 -0.3320
11865SOL    HW141558   6.594   3.170   7.554 -1.2328  0.2275 -1.9246
11865SOL    HW241559   6.734   3.224   7.540 -0.7706  0.0978  1.2788
11866SOL     OW41560   2.703   4.855   4.047  0.5265  0.3237 -0.2438
11866SOL    HW141561   2.662   4.770   4.034  0.4761  0.0442  1.4932
11866SOL    HW241562   2.795   4.841   4.025  0.3823  0.0133 -0.6525
11867SOL     OW41563  11.390  11.230  11.889  0.0920  0.4847  1.0052
11867SOL    HW141564  11.416  11.287  11.962  1.0324 -0.5177  1.4706
11867SOL    HW241565  11.303  11.262  11.865  0.3538  1.7609  1.6148
11868SOL     OW41566   3.608   2.891   3.422 -0.3779 -0.4159  0.2062
11868SOL    HW141567   3.667   2.965   3.407 -0.6568 -0.3964 -0.9421
11868SOL    HW241568   3.648   2.841   3.492 -1.0510  1.7449  2.2525
11869SOL     OW41569   0.963   7.048   0.629 -0.1688 -0.3276  0.0311
11869SOL    HW141570   1.005   7.041   0.543 -0.4334  0.6075 -0.1855
11869SOL    HW241571   1.033   7.029   0.691  0.0714 -0.8230 -0.3792
11870SOL     OW41572   6.277  11.849   0.443  0.0480  0.1140  0.4294
11870SOL    HW141573   6.299  11.809   0.527 -0.1208  0.2168  0.5219
11870SOL    HW241574   6.261  11.941   0.464 -0.7074 -0.0042  0.3989
11871SOL     OW41575   9.569   0.098   9.978  0.4668 -0.2144 -0.4247
11871SOL    HW141576   9.531   0.043   9.909 -2.1929  2.9718 -1.7674
11871SOL    HW241577   9.510   0.087  10.052  0.7688 -0.2544 -0.1875
11872SOL     OW41578   1.286  11.565   0.919  0.5601 -0.2442  0.4724
11872SOL    HW141579   1.332  11.498   0.970  0.6463 -1.0926 -0.6976
11872SOL    HW241580   1.292  11.644   0.973 -0.8328 -1.4962  2.6102
11873SOL     OW41581   1.130   8.082   5.705  0.7061  0.3613  0.2185
11873SOL    HW141582   1.188   8.007   5.696 -0.1237 -0.6423  2.4620
11873SOL    HW241583   1.043   8.044   5.720  0.2342  1.7423  1.2582
11874SOL     OW41584   7.368   3.722   8.258 -0.3586 -0.1321 -0.5204
11874SOL    HW141585   7.345   3.814   8.242 -3.2206 -0.0851  2.6425
11874SOL    HW241586   7.393   3.720   8.350  1.1906 -2.3335 -0.9246
11875SOL     OW41587   1.272   5.374  10.478  0.0354  0.5902 -0.2167
11875SOL    HW141588   1.326   5.375  10.398  1.4723 -0.2848  0.6945
11875SOL    HW241589   1.242   5.283  10.485 -0.7053  0.8362 -0.1513
11876SOL     OW41590   7.435   2.410   7.879 -0.0057 -0.4456  0.3480
11876SOL    HW141591   7.346   2.407   7.913 -0.3665  0.4177 -0.4633
11876SOL    HW241592   7.425   2.436   7.787  1.0916 -0.0527  0.3237
11877SOL     OW41593   0.703   0.350   6.352 -0.2521 -0.0796 -0.0238
11877SOL    HW141594   0.667   0.280   6.406  0.6289  0.5309  1.4393
11877SOL    HW241595   0.702   0.427   6.410  0.8284  0.5796 -0.8352
11878SOL     OW41596   7.289   6.294   8.636 -0.7744 -0.2985 -0.3848
11878SOL    HW141597   7.353   6.223   8.641 -1.4871 -0.9509 -0.1922
11878SOL    HW241598   7.234   6.272   8.560  0.0672  0.9923 -1.4078
11879SOL     OW41599   6.772   8.284   3.289  0.1064 -0.5562 -0.1387
11879SOL    HW141600   6.832   8.342   3.242 -0.3008 -0.3000 -0.3506
11879SOL    HW241601   6.703   8.343   3.320 -1.7618 -1.2942 -2.6558
11880SOL     OW41602   5.725  11.990   2.927  0.1114  0.1596 -0.0899
11880SOL    HW141603   5.764  12.046   2.859 -0.1843 -0.0179 -0.4104
11880SOL    HW241604   5.760  11.903   2.909 -0.0709  0.0873 -0.0957
11881SOL     OW41605   8.638   8.565  10.189  0.0305  0.1438 -0.2822
11881SOL    HW141606   8.594   8.635  10.141  0.5461  0.3498 -0.4605
11881SOL    HW241607   8.642   8.492  10.128 -1.2240 -0.3333  0.1654
11882SOL     OW41608   8.838   4.951   1.019  0.3795  0.3136 -0.4593
11882SOL    HW141609   8.831   4.952   0.923 -2.0998  0.8379 -0.3358
11882SOL    HW241610   8.782   4.878   1.046 -2.2746  2.5723  0.6788
11883SOL     OW41611   0.337  11.785   9.252 -0.2775  0.2187 -0.1188
11883SOL    HW141612   0.261  11.783   9.194  0.2756 -1.3134 -0.8424
11883SOL    HW241613   0.308  11.739   9.331  0.1412 -1.1442 -0.7404
11884SOL     OW41614   8.052   7.426   1.326  0.0899 -0.5777  0.0993
11884SOL    HW141615   8.072   7.407   1.235 -1.1137 -0.0465 -0.2942
11884SOL    HW241616   8.005   7.510   1.324 -0.7058 -0.9651  1.1043
11885SOL     OW41617   7.952   2.663   6.533  0.1804 -1.1399 -0.2867
11885SOL    HW141618   7.911   2.739   6.492 -0.2324 -0.3747  1.4450
11885SOL    HW241619   8.046   2.678   6.525  0.1105 -1.1979 -1.2656
11886SOL     OW41620   9.090   3.930   0.625 -0.1017 -0.0688  0.1920
11886SOL    HW141621   9.157   3.990   0.658  0.6342 -0.9449  0.3296
11886SOL    HW241622   9.091   3.942   0.530  0.3696 -0.1866  0.1770
11887SOL     OW41623   8.409   5.868   9.121 -0.1135 -0.4896 -0.3021
11887SOL    HW141624   8.326   5.880   9.075 -0.2101  2.6843  0.4840
11887SOL    HW241625   8.476   5.879   9.053 -0.3081 -0.0552 -0.4263
11888SOL     OW41626  10.142  12.114   1.479  0.6887  0.1258 -0.3594
11888SOL    HW141627  10.170  12.195   1.438  0.2463 -0.3701 -1.7147
11888SOL    HW241628  10.221  12.076   1.516  1.0520  0.7313 -0.5098
11889SOL     OW41629  12.027   8.465  10.276  0.1086 -0.2427 -0.2716
11889SOL    HW141630  12.010   8.491  10.366 -0.6449  0.1638 -0.5220
11889SOL    HW241631  11.943   8.474  10.232 -0.1763 -2.9487 -0.4440
11890SOL     OW41632   8.706  11.022   3.974 -0.3424 -0.1110  0.2437
11890SOL    HW141633   8.653  11.071   3.912 -0.3149  1.0969  1.1496
11890SOL    HW241634   8.643  10.975   4.028 -0.5152  1.1426  1.1708
11891SOL     OW41635   7.336   0.137   9.605 -0.6200  0.2827  0.3859
11891SOL    HW141636   7.386   0.081   9.546 -1.0925 -0.1125  0.3588
11891SOL    HW241637   7.392   0.214   9.617  0.8470 -0.9190  1.8128
11892SOL     OW41638   9.550   6.548   6.135 -0.3483  0.5519  0.3515
11892SOL    HW141639   9.497   6.565   6.058 -1.5704  1.1507  1.2846
11892SOL    HW241640   9.527   6.459   6.161 -1.1302  0.9112  0.9167
11893SOL     OW41641   0.575   9.587   7.042 -0.1982 -0.3256 -0.4762
11893SOL    HW141642   0.647   9.649   7.028 -0.2123 -0.3410 -0.6082
11893SOL    HW241643   0.501   9.642   7.066  0.3226 -0.4132  1.5498
11894SOL     OW41644   3.230  12.282   4.950  0.2389  0.5040  0.5802
11894SOL    HW141645   3.264  12.216   5.011 -1.2658 -0.9877 -0.0985
11894SOL    HW241646   3.275  12.264   4.867 -2.3124 -1.8579 -0.4865
11895SOL     OW41647   9.551   9.400   0.354  0.1304 -0.4316 -0.0834
11895SOL    HW141648   9.574   9.426   0.265 -0.1340 -1.7101 -0.5433
11895SOL    HW241649   9.591   9.314   0.366  1.7370  0.4934  1.7217
11896SOL     OW41650   1.168   6.557   2.703 -0.3104  0.2296 -0.5956
11896SOL    HW141651   1.249   6.507   2.702  0.3782  1.3064 -0.8645
11896SOL    HW241652   1.103   6.498   2.742  0.1946 -1.2454 -1.8709
11897SOL     OW41653   2.907   9.166   9.259 -0.0694 -0.3880  0.3035
11897SOL    HW141654   2.946   9.252   9.276 -2.0531  1.5060 -3.4986
11897SOL    HW241655   2.822   9.169   9.303  0.0314 -0.6099  0.5185
11898SOL     OW41656   6.486   1.865   0.734  0.1166  0.6396 -0.1974
11898SOL    HW141657   6.421   1.859   0.664 -1.0048  0.3494  0.8166
11898SOL    HW241658   6.491   1.777   0.770 -0.6433  1.1347  1.1953
11899SOL     OW41659   2.151   1.959   7.784 -0.2406 -0.4725  0.1632
11899SOL    HW141660   2.080   1.992   7.729 -0.4445  1.1193  1.3027
11899SOL    HW241661   2.229   2.004   7.751 -0.4383  0.8491  1.4067
11900SOL     OW41662   0.069  10.734  11.273 -0.5981  0.0991  0.5227
11900SOL    HW141663   0.149  10.778  11.246 -1.0102  1.2708  1.1143
11900SOL    HW241664   0.049  10.772  11.359 -1.3575 -0.7472  0.7327
11901SOL     OW41665   9.630   5.943   1.978 -0.5270  0.1587  0.5355
11901SOL    HW141666   9.558   5.907   1.925  0.7837  0.0035 -1.2531
11901SOL    HW241667   9.688   5.868   1.993 -0.4501  0.3999  1.4742
11902SOL     OW41668   4.913   0.783  11.895 -0.2478  0.3126  0.2259
11902SOL    HW141669   4.947   0.823  11.815  0.5949 -1.1675 -0.1815
11902SOL    HW241670   4.835   0.736  11.867  0.3173 -0.6091  0.1646
11903SOL     OW41671   1.500   8.622  12.459  0.2508 -0.0057 -0.2134
11903SOL    HW141672   1.482   8.716  12.468  0.1285 -0.0682  0.2004
11903SOL    HW241673   1.539   8.614  12.372  1.1979  0.5713  0.1411
11904SOL     OW41674   5.948  10.016   3.486 -0.3494  0.4180  0.5031
11904SOL    HW141675   5.961   9.965   3.566 -0.9167  1.0227  0.9926
11904SOL    HW241676   5.971  10.106   3.511  0.8126  0.3850 -0.3933
11905SOL     OW41677   3.831   6.185  11.349 -0.4752  0.0587 -0.2386
11905SOL    HW141678   3.811   6.178  11.443 -0.1501  1.0343 -0.0873
11905SOL    HW241679   3.912   6.134  11.339 -0.9775 -0.7726 -0.1602
11906SOL     OW41680   0.576   9.729   9.574  0.4567  0.2541  0.3627
11906SOL    HW141681   0.619   9.739   9.489  0.5778 -1.1871  0.2336
11906SOL    HW241682   0.596   9.639   9.600 -2.9913 -0.7767 -0.0132
11907SOL     OW41683  10.222   5.732   1.801  0.1466 -0.3307 -0.3855
11907SOL    HW141684  10.223   5.762   1.710 -1.6364 -0.4333 -0.4653
11907SOL    HW241685  10.131   5.738   1.827  0.7321  0.3017  1.6225
11908SOL     OW41686   1.353  10.013   3.368  0.2411 -0.3339  0.0581
11908SOL    HW141687   1.420  10.052   3.312  0.6855 -0.1719  0.6912
11908SOL    HW241688   1.343   9.924   3.335 -1.4359  0.5076 -1.9868
11909SOL     OW41689   0.269   3.217  11.691  0.9295  0.0799 -0.4375
11909SOL    HW141690   0.284   3.230  11.784 -0.7424  0.5550 -0.2171
11909SOL    HW241691   0.229   3.131  11.684  0.0357  0.5013 -0.5949
11910SOL     OW41692   9.923   5.238   2.708 -0.4210 -0.0747  0.3474
11910SOL    HW141693   9.925   5.208   2.799  0.8445 -0.8943  0.0769
11910SOL    HW241694   9.874   5.320   2.711 -0.4959 -0.1420  1.7422
11911SOL     OW41695   3.938   5.054   7.392  0.0187  0.7429  0.3372
11911SOL    HW141696   3.987   4.977   7.362  1.6174  1.8100  0.0897
11911SOL    HW241697   3.875   5.071   7.322 -1.3546 -1.1549  1.0372
11912SOL     OW41698   2.934   7.631   7.279  1.0894 -0.1881 -0.6269
11912SOL    HW141699   2.896   7.711   7.242 -0.7189 -0.2508  0.9748
11912SOL    HW241700   2.880   7.560   7.244 -2.9932 -0.0808  4.3334
11913SOL     OW41701   5.644  11.798   0.986  0.7179 -0.1258 -0.4363
11913SOL    HW141702   5.716  11.754   0.942  0.7145  0.7240 -1.3155
11913SOL    HW241703   5.664  11.790   1.079  1.1766 -1.1778 -0.6195
11914SOL     OW41704   0.624   6.979   8.938  0.0751 -0.1593  0.1564
11914SOL    HW141705   0.676   6.914   8.984 -0.3703 -0.1922  0.6275
11914SOL    HW241706   0.644   6.965   8.845  1.3194  0.2057  0.3592
11915SOL     OW41707  12.116  12.192   1.565  0.0369 -0.0029 -0.8106
11915SOL    HW141708  12.101  12.168   1.474 -2.0418  0.2770 -0.6023
11915SOL    HW241709  12.047  12.147   1.614  0.6708  0.4190  0.5371
11916SOL     OW41710   1.826   8.541   5.081 -0.0477  0.1553  0.2627
11916SOL    HW141711   1.759   8.608   5.070  0.3615  0.4043 -0.8845
11916SOL    HW241712   1.907   8.591   5.097 -0.4318 -0.1609  3.9556
11917SOL     OW41713   3.357   0.808   0.190 -0.2168 -0.3134 -0.0637
11917SOL    HW141714   3.359   0.898   0.221 -1.5503 -0.9011  1.9320
11917SOL    HW241715   3.311   0.812   0.106 -0.2813  0.8635  0.0149
11918SOL     OW41716   4.316   8.017  10.893  0.1441 -0.0459 -0.3816
11918SOL    HW141717   4.328   7.942  10.951 -1.0365  0.1860  0.2007
11918SOL    HW241718   4.342   7.984  10.807  1.4944 -0.5280  0.1765
11919SOL     OW41719   1.192   7.598   0.203  0.2173 -0.3752  0.1507
11919SOL    HW141720   1.141   7.675   0.177  0.6598  0.2326  1.0262
11919SOL    HW241721   1.131   7.525   0.196 -0.5404  0.2188  0.3920
11920SOL     OW41722   8.290   6.818   1.836 -0.8646 -0.3336  0.1931
11920SOL    HW141723   8.328   6.798   1.750 -1.8136 -1.0052 -0.0925
11920SOL    HW241724   8.247   6.902   1.824 -2.6003 -1.2858 -0.5570
11921SOL     OW41725   3.050   0.201   6.400  0.0780 -0.2015 -0.6952
11921SOL    HW141726   3.071   0.107   6.397 -1.1116 -0.4959 -0.5286
11921SOL    HW241727   3.073   0.233   6.313  0.7623 -0.5893 -0.6645
11922SOL     OW41728   0.177  11.381   4.431  0.0476  0.4353  0.2699
11922SOL    HW141729   0.178  11.474   4.408  0.0316  0.3395 -0.1224
11922SOL    HW241730   0.266  11.364   4.461  0.8791 -0.0311 -2.1914
11923SOL     OW41731   0.544   9.446   3.963  0.2325  0.6311  0.1934
11923SOL    HW141732   0.571   9.439   4.055 -0.2810  1.8217  0.4527
11923SOL    HW241733   0.494   9.366   3.947  1.7764 -0.4205  0.4252
11924SOL     OW41734   4.001   6.594  11.229  0.2676 -0.3482  0.1372
11924SOL    HW141735   3.998   6.683  11.193 -0.6514  0.1305  1.3175
11924SOL    HW241736   4.093   6.570  11.224  0.2968 -0.0360 -1.7986
11925SOL     OW41737   3.872  10.146   7.617 -0.3879 -0.0082  0.2959
11925SOL    HW141738   3.914  10.065   7.645 -1.0671 -0.1664  0.8755
11925SOL    HW241739   3.915  10.215   7.668  0.9463  0.1475 -0.9743
11926SOL     OW41740   0.043   7.846   9.061 -0.2851  0.1904 -0.4283
11926SOL    HW141741   0.089   7.861   9.144 -1.3251  0.3170  0.1485
11926SOL    HW241742  -0.041   7.808   9.088 -1.2134  1.5242 -1.3176
11927SOL     OW41743   9.564   1.722   2.339  0.3231  0.0340  0.3592
11927SOL    HW141744   9.596   1.634   2.317 -1.4462 -0.3180 -1.1142
11927SOL    HW241745   9.477   1.726   2.299  0.8809  2.9421 -0.8239
11928SOL     OW41746   3.756  10.475   1.560  0.9120 -0.0106 -0.2544
11928SOL    HW141747   3.680  10.500   1.507 -0.5993 -0.7901  1.4251
11928SOL    HW241748   3.811  10.553   1.562 -0.4434  0.9882 -0.5359
11929SOL     OW41749   7.555   6.017  11.728  0.3905  0.2427 -0.4461
11929SOL    HW141750   7.570   6.075  11.653  1.1107 -0.8604 -1.1872
11929SOL    HW241751   7.635   5.965  11.734 -0.1124 -0.4552  0.3893
11930SOL     OW41752   9.972  10.122   2.647  0.3714  0.3057 -0.4344
11930SOL    HW141753   9.966  10.213   2.620 -0.9748  0.0373 -1.1277
11930SOL    HW241754   9.930  10.073   2.576  1.6703 -0.9272 -0.4024
11931SOL     OW41755   4.676   5.992  11.312  0.4670 -0.2218  0.0412
11931SOL    HW141756   4.611   6.051  11.350  1.0638  0.8359 -0.5190
11931SOL    HW241757   4.677   6.014  11.219 -0.5728 -2.3867 -0.5557
11932SOL     OW41758   9.330   5.236   6.439  0.4142  0.2710 -0.4178
11932SOL    HW141759   9.394   5.306   6.425  0.5936  0.2364  0.1903
11932SOL    HW241760   9.337   5.216   6.533 -1.2437  1.0233 -0.0967
11933SOL     OW41761  10.428   8.722   8.389 -0.0403 -0.3415  0.9830
11933SOL    HW141762  10.463   8.739   8.476 -0.4936 -1.5921  1.4388
11933SOL    HW241763  10.382   8.638   8.398  0.3636 -0.7642 -0.5843
11934SOL     OW41764   9.549   9.226   4.468 -0.3947  0.2427 -0.0459
11934SOL    HW141765   9.597   9.273   4.536  0.5027  0.3232 -0.7168
11934SOL    HW241766   9.617   9.183   4.415 -0.9512  1.3700 -1.7744
11935SOL     OW41767  10.125   5.874   2.221 -0.0115  0.2216 -0.0415
11935SOL    HW141768  10.146   5.781   2.228  0.1328  0.2940  0.6322
11935SOL    HW241769  10.109   5.889   2.128  2.3900  0.0336 -0.5398
11936SOL     OW41770  11.200   8.723   7.744 -0.7190 -0.3491  0.0681
11936SOL    HW141771  11.290   8.708   7.715  0.0297 -0.3674  2.2507
11936SOL    HW241772  11.147   8.670   7.684  0.5848  0.4445 -1.8931
11937SOL     OW41773   5.842   1.960   4.904  0.4245  0.0997 -0.2453
11937SOL    HW141774   5.915   1.931   4.850  0.1598 -1.5203  0.1933
11937SOL    HW241775   5.768   1.967   4.843  0.5477  0.0499 -0.4013
11938SOL     OW41776   6.965  10.759   8.351  0.1232  0.0937 -0.7130
11938SOL    HW141777   6.976  10.715   8.267 -2.1838  1.4927 -1.8496
11938SOL    HW241778   6.879  10.730   8.382  0.1923  0.9175  0.3164
11939SOL     OW41779  11.086   1.415   5.991  0.8545  0.0684 -0.1933
11939SOL    HW141780  11.073   1.415   6.086 -0.9194 -0.9770 -0.3921
11939SOL    HW241781  11.122   1.329   5.972  0.7626  0.1022 -0.5213
11940SOL     OW41782   5.298  10.478   2.271  0.6395 -0.1238  0.3880
11940SOL    HW141783   5.366  10.416   2.295  0.9756  0.6287  1.4252
11940SOL    HW241784   5.220  10.424   2.258  1.2938 -0.9309 -0.2879
11941SOL     OW41785   8.022   3.520   9.996 -0.4422 -0.1051  0.3568
11941SOL    HW141786   7.998   3.444   9.943  0.6081 -0.1868 -0.0334
11941SOL    HW241787   7.981   3.504  10.081  2.7664 -3.0896  1.5977
11942SOL     OW41788   4.781   5.806   4.611 -0.2823 -0.0826 -0.1126
11942SOL    HW141789   4.706   5.783   4.667  0.0965 -0.8418  0.0931
11942SOL    HW241790   4.818   5.721   4.585  0.3515  0.2854 -0.4184
11943SOL     OW41791   2.443   1.063   0.970 -0.3836  0.6391  0.5186
11943SOL    HW141792   2.520   1.007   0.963 -0.8090 -0.0819  1.4752
11943SOL    HW241793   2.472   1.148   0.936  0.4898  0.0633 -0.2139
11944SOL     OW41794  10.399  10.891   9.149 -1.0285 -0.2916  0.6309
11944SOL    HW141795  10.458  10.940   9.208 -0.5017  0.7216 -0.6986
11944SOL    HW241796  10.379  10.952   9.079  0.4056 -2.2187 -1.6201
11945SOL     OW41797   0.924   6.045   8.098 -0.8353 -0.3816  0.0807
11945SOL    HW141798   0.866   5.971   8.080  0.1647 -1.1626 -0.0053
11945SOL    HW241799   1.009   6.005   8.115 -0.0569  0.8021 -0.8730
11946SOL     OW41800   1.491   8.867   6.910 -0.3154  0.1874 -0.6478
11946SOL    HW141801   1.471   8.838   6.999 -0.5544 -0.3300 -0.8623
11946SOL    HW241802   1.449   8.801   6.854  1.8224 -0.8253 -1.1353
11947SOL     OW41803  11.996   4.833  10.691 -0.9320 -0.1967 -0.5740
11947SOL    HW141804  12.008   4.917  10.735  0.6668  1.6369 -4.0785
11947SOL    HW241805  11.940   4.853  10.616 -1.2429 -2.4934 -1.0184
11948SOL     OW41806   3.802   2.132   5.781 -0.1277  0.2952 -0.4603
11948SOL    HW141807   3.804   2.172   5.694 -0.9734  1.6692  0.1250
11948SOL    HW241808   3.747   2.190   5.833  1.8103  0.4780  1.4848
11949SOL     OW41809   0.643   1.043   9.691 -0.2481  0.0901 -0.4153
11949SOL    HW141810   0.720   1.012   9.738  0.4495  1.2945 -0.7452
11949SOL    HW241811   0.570   0.997   9.732  0.6559 -1.2991 -0.2961
11950SOL     OW41812  10.751   3.749   2.415 -0.2337 -0.3248 -0.4676
11950SOL    HW141813  10.825   3.728   2.358 -0.5900 -0.3618 -0.9223
11950SOL    HW241814  10.773   3.836   2.450  0.7183 -0.9612  0.5700
11951SOL     OW41815   1.248   4.879   3.770 -0.7465 -0.3999  1.2302
11951SOL    HW141816   1.194   4.863   3.848 -0.7351  2.4512  1.9376
11951SOL    HW241817   1.338   4.869   3.801 -0.7773 -0.5528  1.2679
11952SOL     OW41818   9.331   0.867   2.992 -0.1411  0.6945  0.2654
11952SOL    HW141819   9.237   0.880   2.998 -0.3091 -0.3400  0.0067
11952SOL    HW241820   9.342   0.774   2.970  0.9531  0.6438  0.9329
11953SOL     OW41821   8.964   7.957  12.260 -0.4226  0.1275  0.2997
11953SOL    HW141822   8.935   7.971  12.350  0.2664  0.2246  0.5141
11953SOL    HW241823   8.939   8.037  12.214  0.6641  0.7726  0.7872
11954SOL     OW41824   6.617   9.799   6.875  0.1324  0.3915 -0.5906
11954SOL    HW141825   6.661   9.823   6.794  1.4725  0.6275  0.1884
11954SOL    HW241826   6.621   9.704   6.878  1.8844  0.4553  0.1462
11955SOL     OW41827   8.430   2.758  11.190 -0.5214  0.4328 -0.2790
11955SOL    HW141828   8.437   2.783  11.282 -0.7604 -1.3396  0.2526
11955SOL    HW241829   8.482   2.679  11.182 -2.1884 -0.6345 -1.1849
11956SOL     OW41830  11.420   5.746   1.067  0.7149  0.8446 -0.8220
11956SOL    HW141831  11.391   5.743   0.976 -0.7562  0.5964 -0.3663
11956SOL    HW241832  11.513   5.725   1.063  0.5959  0.4918 -2.2346
11957SOL     OW41833   7.325  11.916   9.615 -0.0402  0.5720  0.3250
11957SOL    HW141834   7.266  11.987   9.640 -0.2210  0.8316 -0.7971
11957SOL    HW241835   7.382  11.954   9.548  0.2521 -0.1630  0.1429
11958SOL     OW41836   0.557   1.106   5.862 -0.6609 -1.0111  0.1062
11958SOL    HW141837   0.493   1.173   5.838  0.5885 -0.3064 -1.4149
11958SOL    HW241838   0.536   1.032   5.806 -0.6400 -1.0704  0.1762
11959SOL     OW41839  10.491   8.509   3.467  0.1661  0.1668 -0.4034
11959SOL    HW141840  10.570   8.473   3.508  0.2974 -1.1893 -1.7921
11959SOL    HW241841  10.500   8.604   3.479  1.0414 -0.0717  1.1332
11960SOL     OW41842   2.434   0.915   2.687 -0.0234 -0.0699 -0.3096
11960SOL    HW141843   2.415   1.001   2.649  0.9628 -0.0210 -0.7136
11960SOL    HW241844   2.347   0.877   2.704 -0.4903  1.5843  1.2557
11961SOL     OW41845   4.941   9.469   8.104  0.8718  0.0613 -0.4237
11961SOL    HW141846   4.876   9.434   8.165  2.0450 -0.5296  0.5467
11961SOL    HW241847   4.890   9.511   8.035 -0.5175 -0.1621  0.4330
11962SOL     OW41848   5.055  11.597   4.924  0.0319  0.1115  0.7977
11962SOL    HW141849   5.053  11.614   4.830  1.0109  1.6922  1.0141
11962SOL    HW241850   5.132  11.542   4.936  1.9561  2.6114  0.9525
11963SOL     OW41851  10.664   0.575   8.091 -0.3573 -0.7662  0.4148
11963SOL    HW141852  10.714   0.501   8.057  1.0245  0.4170 -0.2532
11963SOL    HW241853  10.654   0.634   8.017  0.8981  0.9213  1.5082
11964SOL     OW41854   7.895  10.286  10.412  0.2865 -0.5520  0.3868
11964SOL    HW141855   7.823  10.349  10.409 -1.4088 -2.4244 -0.2354
11964SOL    HW241856   7.935  10.300  10.498 -1.9380 -0.6039  1.5003
11965SOL     OW41857  11.665   3.467   7.584 -0.3426 -0.2075  0.5140
11965SOL    HW141858  11.651   3.478   7.489 -0.3820 -0.5999  0.4723
11965SOL    HW241859  11.683   3.555   7.616 -2.3845  0.2777  0.4686
11966SOL     OW41860   6.440  11.732   4.955 -0.2685  0.2009 -0.4698
11966SOL    HW141861   6.465  11.765   4.869 -0.9699 -0.3338 -0.8891
11966SOL    HW241862   6.394  11.650   4.936 -0.5538  0.1548  0.4051
11967SOL     OW41863   2.905   8.298  12.002  0.2752  0.3323 -0.4106
11967SOL    HW141864   2.929   8.227  11.942  2.9252  1.3365 -0.6599
11967SOL    HW241865   2.811   8.310  11.988  0.2793 -1.3481 -2.2997
11968SOL     OW41866   1.793   6.483   1.561  0.1371 -0.4362  1.0378
11968SOL    HW141867   1.755   6.559   1.518 -0.9400 -1.1880  0.6139
11968SOL    HW241868   1.877   6.470   1.518 -0.1413 -0.1149  0.3907
11969SOL     OW41869  12.154   6.964  10.144  0.3794 -0.2104 -0.0653
11969SOL    HW141870  12.199   7.042  10.177 -0.8389 -0.4972  2.4522
11969SOL    HW241871  12.223   6.900  10.131  1.5070  1.3510 -2.7969
11970SOL     OW41872  11.162   2.843   2.737  0.5042  0.1855  0.2040
11970SOL    HW141873  11.078   2.802   2.756  1.3049 -1.5062  0.1922
11970SOL    HW241874  11.226   2.773   2.745  1.7843  1.1597 -0.9915
11971SOL     OW41875   1.089   2.937   9.267 -0.0232  0.3585  0.3507
11971SOL    HW141876   1.120   2.868   9.209  0.1102 -0.6026  1.5305
11971SOL    HW241877   1.082   3.014   9.210  0.7711 -0.3617 -0.7757
11972SOL     OW41878   7.557   2.150   7.899  0.3696  0.7061 -0.6199
11972SOL    HW141879   7.641   2.176   7.935 -0.7432 -0.6878  3.5742
11972SOL    HW241880   7.499   2.225   7.914 -0.1106  0.1065  0.6778
11973SOL     OW41881   4.998   8.131   4.573 -0.2561 -0.2470  0.1090
11973SOL    HW141882   5.001   8.115   4.479 -1.3812 -1.2643  0.2273
11973SOL    HW241883   4.913   8.097   4.601 -0.2985  0.8101  1.3655
11974SOL     OW41884   7.503   6.122   8.618  0.5217  0.5157 -0.1293
11974SOL    HW141885   7.504   6.096   8.711 -0.0793  1.0863  0.0414
11974SOL    HW241886   7.583   6.174   8.608  0.7565  0.1839 -0.0125
11975SOL     OW41887   2.914   2.182   2.070  0.2527  0.2849 -0.2088
11975SOL    HW141888   2.881   2.155   2.155  2.5037  1.3992  1.1142
11975SOL    HW241889   2.983   2.119   2.049  2.0388  1.9215  0.4814
11976SOL     OW41890   1.817  12.267  10.008  0.2233  0.2460 -0.0579
11976SOL    HW141891   1.799  12.288   9.916 -1.5204  1.8131  0.5708
11976SOL    HW241892   1.835  12.173  10.008  0.3771  0.2357 -2.0113
11977SOL     OW41893  11.361   1.596   1.027 -1.1785 -0.0629  0.2311
11977SOL    HW141894  11.403   1.665   1.078 -0.6871  0.2960 -0.6371
11977SOL    HW241895  11.418   1.584   0.950 -1.7234 -0.8144 -0.0760
11978SOL     OW41896   3.662   4.337   2.840 -0.0532  0.2944 -0.0119
11978SOL    HW141897   3.577   4.358   2.879 -0.1933 -0.6885  0.2468
11978SOL    HW241898   3.689   4.256   2.883  0.6983  0.2278 -0.5787
11979SOL     OW41899  11.050  10.101   5.930  0.5260  0.2058  0.1805
11979SOL    HW141900  10.969  10.130   5.973 -0.4928 -1.8397 -0.2812
11979SOL    HW241901  11.105  10.068   6.002  0.0667 -0.4178  0.2419
11980SOL     OW41902   4.387   0.030   9.126 -0.0781  0.3215  0.0002
11980SOL    HW141903   4.341  -0.037   9.075 -0.6248  1.7209 -1.4146
11980SOL    HW241904   4.473  -0.009   9.144 -0.5472 -0.9411 -0.3955
11981SOL     OW41905   0.449  11.844  11.870 -0.2706  0.1129 -0.0027
11981SOL    HW141906   0.498  11.909  11.921 -0.7223 -0.0071  0.5843
11981SOL    HW241907   0.495  11.841  11.786  0.1099  0.7602  0.1741
11982SOL     OW41908  11.880   2.256   5.679  0.0533 -0.5041  0.4326
11982SOL    HW141909  11.899   2.337   5.726  0.0610  0.0210 -0.4584
11982SOL    HW241910  11.962   2.234   5.635 -0.2442 -0.4133 -0.1777
11983SOL     OW41911   6.179   1.979   3.965 -0.0214  0.2208 -0.3501
11983SOL    HW141912   6.249   1.993   4.029  0.2265  1.0016 -0.7866
11983SOL    HW241913   6.225   1.954   3.884 -0.3103 -0.3427 -0.3502
11984SOL     OW41914   1.145  11.962   3.821 -0.1796 -0.0812  0.2793
11984SOL    HW141915   1.189  11.881   3.796  0.1861 -0.0518  0.8289
11984SOL    HW241916   1.052  11.939   3.823 -0.0390 -0.6167  0.9165
11985SOL     OW41917  12.260   6.539   3.720 -0.3447 -0.0545  0.0207
11985SOL    HW141918  12.284   6.590   3.642 -1.6243  1.9295  0.8409
11985SOL    HW241919  12.343   6.527   3.767  0.2053  0.0286 -0.9152
11986SOL     OW41920  10.878   4.228   9.445 -0.5583 -0.0585 -0.0549
11986SOL    HW141921  10.834   4.201   9.364  2.0051 -0.4415 -1.4187
11986SOL    HW241922  10.876   4.149   9.500  0.8398 -1.0137 -1.2715
11987SOL     OW41923  10.154  12.138   3.597 -0.1135  0.0115  0.0329
11987SOL    HW141924  10.080  12.080   3.578 -0.3350  0.1963  0.3072
11987SOL    HW241925  10.202  12.144   3.515 -2.4303  2.7736 -1.2840
11988SOL     OW41926   0.149   2.907   2.115 -0.4991  0.3008  0.4462
11988SOL    HW141927   0.168   2.982   2.172 -0.3128  0.7958 -0.2571
11988SOL    HW241928   0.225   2.901   2.058  0.4221 -1.6732  1.7910
11989SOL     OW41929   4.961   1.300   9.412  0.1559  0.2652 -0.0848
11989SOL    HW141930   5.047   1.263   9.393 -0.3565 -1.2627  0.3936
11989SOL    HW241931   4.928   1.330   9.327  1.1145  0.7859 -0.2793
11990SOL     OW41932  10.090   5.603   3.806  0.1095  0.0791  0.3426
11990SOL    HW141933  10.014   5.548   3.826  0.1975  0.1410  0.8519
11990SOL    HW241934  10.060   5.692   3.823 -0.1101  0.2253 -0.7205
11991SOL     OW41935   1.696   0.816   3.724 -0.2926 -0.4655  0.0030
11991SOL    HW141936   1.754   0.879   3.682 -0.4694 -0.2731  0.0440
11991SOL    HW241937   1.692   0.844   3.816 -1.7713  0.5441 -0.3277
11992SOL     OW41938  11.923   6.437   5.217  0.6701 -0.3579 -0.2306
11992SOL    HW141939  11.863   6.399   5.153  1.5876 -0.9610 -0.7561
11992SOL    HW241940  11.953   6.518   5.176 -0.2642  0.2815  0.3150
11993SOL     OW41941   6.958   5.685   5.073  0.1473 -0.0919  0.1464
11993SOL    HW141942   7.025   5.737   5.118 -0.0333  0.4972 -0.2560
11993SOL    HW241943   6.986   5.684   4.982  0.2440 -0.8647  0.1735
11994SOL     OW41944  10.958   3.514   1.512  0.3195  0.2781  0.3607
11994SOL    HW141945  10.876   3.476   1.545  0.6760  0.6694  1.7615
11994SOL    HW241946  10.929   3.587   1.456 -0.2949  0.3171  0.7183
11995SOL     OW41947   1.202   2.729   1.361 -0.2667 -0.0792 -0.4023
11995SOL    HW141948   1.112   2.736   1.394  0.1790 -2.2727  1.5490
11995SOL    HW241949   1.197   2.663   1.292 -0.3763  0.8710 -1.3127
11996SOL     OW41950   4.478   7.310   2.005 -0.2520  0.6962  0.4141
11996SOL    HW141951   4.385   7.317   1.984 -0.1367 -0.7786 -0.7386
11996SOL    HW241952   4.481   7.250   2.080 -0.0932 -2.1733 -1.7251
11997SOL     OW41953   4.505   8.691   7.414  0.3697 -0.1861  0.4278
11997SOL    HW141954   4.478   8.779   7.440 -0.1932 -0.0182 -0.6885
11997SOL    HW241955   4.513   8.695   7.319 -1.2688 -1.7534  0.1825
11998SOL     OW41956  10.105   4.381   8.049  0.3823  0.1431  0.4556
11998SOL    HW141957  10.196   4.375   8.020  0.3412 -1.6651  0.6086
11998SOL    HW241958  10.061   4.432   7.980  1.6968  2.0845  0.9601
11999SOL     OW41959   8.016   6.126   4.605 -0.1930 -0.7476 -0.8916
11999SOL    HW141960   8.015   6.035   4.635 -1.3472 -1.1965 -2.2015
11999SOL    HW241961   7.924   6.150   4.595  0.1087  0.2780 -1.4154
12000SOL     OW41962  11.196   8.280   2.245  0.4482 -0.0704 -0.3380
12000SOL    HW141963  11.207   8.285   2.150 -1.3082  0.9027 -0.5327
12000SOL    HW241964  11.104   8.300   2.259  0.9624  1.1899  1.6725
12001SOL     OW41965   6.496   0.319   4.651 -0.3650  0.3738  0.0245
12001SOL    HW141966   6.571   0.260   4.650 -0.4127  0.3187 -0.5912
12001SOL    HW241967   6.448   0.295   4.730 -0.0487  0.0127  0.1104
12002SOL     OW41968   1.609  11.653   0.777  0.0435 -0.0468  0.0137
12002SOL    HW141969   1.703  11.642   0.761 -0.3536 -0.5589 -2.3408
12002SOL    HW241970   1.599  11.641   0.871  2.0628 -2.1022  0.0490
12003SOL     OW41971   4.475   1.660   5.545  0.2847  0.0329  0.1233
12003SOL    HW141972   4.518   1.670   5.631 -0.3963 -0.6273  0.5493
12003SOL    HW241973   4.413   1.732   5.541  2.8510  2.3811 -1.4339
12004SOL     OW41974  11.057   4.985  12.132 -0.4021  0.2785  0.4730
12004SOL    HW141975  11.131   5.041  12.157 -0.9781  1.5277 -0.4810
12004SOL    HW241976  11.097   4.901  12.110  0.8402  1.1531 -0.7644
12005SOL     OW41977   5.747  12.164   6.010 -0.2263 -0.2759  0.5135
12005SOL    HW141978   5.813  12.099   5.985 -0.1755  0.0998 -0.3838
12005SOL    HW241979   5.723  12.206   5.927 -0.1089  0.9851  1.0996
12006SOL     OW41980   2.232   7.501   1.276  0.1487  0.2201  0.4906
12006SOL    HW141981   2.316   7.546   1.266  0.7407  0.1104  3.8301
12006SOL    HW241982   2.168   7.572   1.290 -0.3395  0.2859 -1.7278
12007SOL     OW41983   9.171   7.798   0.549 -0.1951 -0.7185  0.4727
12007SOL    HW141984   9.115   7.875   0.533  1.2447  0.2876  0.0581
12007SOL    HW241985   9.188   7.763   0.462  1.3856  0.1650  0.3903
12008SOL     OW41986  10.904   6.958   9.769  0.1343  0.4776 -0.1012
12008SOL    HW141987  10.918   7.053   9.776  0.5645  0.3502  0.9511
12008SOL    HW241988  10.812   6.946   9.792  0.7696  0.3859  2.6524
12009SOL     OW41989   4.095   3.025   4.586  0.2264  0.6262 -0.2687
12009SOL    HW141990   4.003   3.006   4.605  0.3358  1.4465  1.1720
12009SOL    HW241991   4.091   3.087   4.513 -0.2693 -0.7297 -1.4601
12010SOL     OW41992   5.312   2.784   5.562 -0.0928 -0.2285 -0.1548
12010SOL    HW141993   5.283   2.837   5.636  1.8123 -1.9581  1.9767
12010SOL    HW241994   5.245   2.716   5.553  1.0825 -1.8142  2.0917
12011SOL     OW41995  12.154   5.439  12.330 -0.1907 -0.0985 -0.3843
12011SOL    HW141996  12.241   5.421  12.294  1.0572  1.8218  1.4218
12011SOL    HW241997  12.101   5.461  12.254  1.4835  0.7572 -1.3815
12012SOL     OW41998   9.909   9.374   0.709 -0.5901  0.0986  0.1817
12012SOL    HW141999   9.873   9.437   0.771 -4.4902  0.1613 -1.8533
12012SOL    HW242000   9.930   9.426   0.631 -0.3120 -0.6048 -0.2273
12013SOL     OW42001  11.471  10.587  10.484 -0.4219 -0.0282  0.1416
12013SOL    HW142002  11.404  10.585  10.553  0.2176 -0.4323  0.7644
12013SOL    HW242003  11.513  10.501  10.489 -1.2665 -0.5755 -1.6686
12014SOL     OW42004   5.627   1.350   3.138 -0.4003  0.2211 -0.3600
12014SOL    HW142005   5.718   1.360   3.110  0.3291  0.7152  1.9612
12014SOL    HW242006   5.592   1.282   3.081  1.6295 -0.4850 -0.8726
12015SOL     OW42007  11.902   7.901   3.997 -0.1711  0.6107  0.2666
12015SOL    HW142008  11.818   7.886   4.041  0.5229 -2.0425  0.9159
12015SOL    HW242009  11.884   7.884   3.905 -1.2390  4.4695 -0.4003
12016SOL     OW42010   3.532   3.065  11.906 -0.2642  0.3200  0.0615
12016SOL    HW142011   3.453   3.117  11.922 -0.6159 -0.1819  0.0016
12016SOL    HW242012   3.604   3.121  11.933 -0.5397  1.3199 -1.1487
12017SOL     OW42013   9.413   9.083  10.859 -0.3657 -0.1727  0.0502
12017SOL    HW142014   9.420   9.087  10.954  0.9074 -2.4377  0.1179
12017SOL    HW242015   9.325   9.050  10.842  0.1412 -1.8966  0.5859
12018SOL     OW42016   8.101  10.637   5.828 -0.1059  0.6039  0.0820
12018SOL    HW142017   8.031  10.644   5.762  0.0549  0.5380 -0.0975
12018SOL    HW242018   8.178  10.608   5.778  0.2814  1.5415  0.1211
12019SOL     OW42019   4.800  11.627   1.960 -0.7019  0.3010 -0.3176
12019SOL    HW142020   4.718  11.591   1.925 -0.4446  0.9443 -1.6250
12019SOL    HW242021   4.775  11.712   1.996 -1.2648 -0.9453  2.5727
12020SOL     OW42022   1.987   8.235   6.444  0.0134  0.7996 -0.7081
12020SOL    HW142023   1.958   8.145   6.450 -0.1754  0.6246 -3.2681
12020SOL    HW242024   1.972   8.271   6.532  0.2330 -1.6435  0.4179
12021SOL     OW42025   6.723   2.100   1.435 -0.0585  0.1764 -0.3564
12021SOL    HW142026   6.794   2.056   1.390  2.0992  3.0479 -0.0530
12021SOL    HW242027   6.703   2.045   1.510  3.1074  0.0718  0.5234
12022SOL     OW42028  12.168  10.290   9.033  0.5616  0.4338  0.4710
12022SOL    HW142029  12.098  10.348   9.062  0.3201  0.7044 -0.5868
12022SOL    HW242030  12.187  10.235   9.109 -0.7875  0.3577  0.7841
12023SOL     OW42031   4.177   6.769   6.847  0.1553  0.4956  0.2811
12023SOL    HW142032   4.086   6.754   6.821 -0.2777  2.9473  0.1467
12023SOL    HW242033   4.225   6.778   6.765  0.4948 -0.5031  0.3544
12024SOL     OW42034   5.360   8.546   2.292 -0.3478  0.3825 -0.3230
12024SOL    HW142035   5.293   8.507   2.349 -0.9834  1.6988 -0.1360
12024SOL    HW242036   5.413   8.600   2.351  0.2923  0.1025 -0.6346
12025SOL     OW42037   6.646  10.305   3.369  0.0646 -0.1908 -0.1104
12025SOL    HW142038   6.569  10.361   3.354 -0.2367 -0.3956  0.6331
12025SOL    HW242039   6.712  10.365   3.404  0.5546  0.1603 -1.5457
12026SOL     OW42040   1.903   4.023   1.536  0.2406  0.1611  0.4019
12026SOL    HW142041   1.868   4.042   1.449 -1.5273 -2.1003  0.5500
12026SOL    HW242042   1.995   4.002   1.520  0.4481  1.6368 -0.6103
12027SOL     OW42043   0.798   3.120   1.934  0.9884 -0.3044  0.1984
12027SOL    HW142044   0.874   3.109   1.992  0.3252 -2.5882  0.6999
12027SOL    HW242045   0.822   3.074   1.854 -0.2476 -1.9824  0.7571
12028SOL     OW42046   8.299   1.473   8.805  0.2456  0.0767  0.7058
12028SOL    HW142047   8.252   1.502   8.883 -1.7749 -0.8321 -0.1094
12028SOL    HW242048   8.231   1.437   8.748  1.9181 -1.0663 -0.6633
12029SOL     OW42049  10.488   7.143   0.804  0.5061  0.3786 -0.3858
12029SOL    HW142050  10.544   7.152   0.727 -0.4401  1.7505 -0.9603
12029SOL    HW242051  10.400   7.163   0.771 -0.2025 -0.9245  0.6616
12030SOL     OW42052   2.466   5.425   3.257 -0.4185  0.0691 -0.3693
12030SOL    HW142053   2.458   5.370   3.179  1.1026  0.8594 -1.1208
12030SOL    HW242054   2.560   5.441   3.265 -0.6702  0.9987  0.9408
12031SOL     OW42055   8.665  10.486   7.391  0.9190 -0.3215  0.5907
12031SOL    HW142056   8.727  10.427   7.347 -0.2138 -0.0235 -1.5461
12031SOL    HW242057   8.646  10.442   7.474  1.2921 -2.2184 -0.2627
12032SOL     OW42058  10.497   4.964   5.482  0.0482  0.1847  0.3947
12032SOL    HW142059  10.507   4.898   5.550 -0.8556 -0.8626 -0.4586
12032SOL    HW242060  10.437   5.028   5.520 -0.9946 -0.7463  0.3568
12033SOL     OW42061   7.724   2.465   3.140 -0.3029 -0.3025 -0.2585
12033SOL    HW142062   7.770   2.497   3.062 -1.2124  2.7678  0.3266
12033SOL    HW242063   7.791   2.459   3.207  0.0233 -0.2895 -0.5816
12034SOL     OW42064  11.952   2.248   3.512  0.2731 -0.0589 -0.0986
12034SOL    HW142065  12.013   2.198   3.458 -0.9308 -0.1840 -1.4090
12034SOL    HW242066  11.961   2.210   3.600  0.3891 -1.6598 -0.7651
12035SOL     OW42067   3.722   7.385   7.863  0.1640  0.4682  0.1666
12035SOL    HW142068   3.777   7.382   7.941  0.1907  1.4089  0.1980
12035SOL    HW242069   3.717   7.478   7.840  0.4527  0.1819 -1.1721
12036SOL     OW42070   4.358   6.254  10.257 -0.0758  0.4167 -0.0076
12036SOL    HW142071   4.319   6.170  10.231  0.5242 -0.1397  0.8326
12036SOL    HW242072   4.378   6.243  10.350 -0.7440  1.7895  0.3320
12037SOL     OW42073   6.611   3.487   6.153 -0.0726  0.4463  0.6164
12037SOL    HW142074   6.637   3.546   6.082 -0.0728  0.5406  0.6937
12037SOL    HW242075   6.689   3.480   6.208  0.2028 -0.3229  0.1366
12038SOL     OW42076   8.221  11.508   9.068  0.4887  0.3893 -0.6907
12038SOL    HW142077   8.273  11.581   9.034 -0.6762  1.4593 -0.2449
12038SOL    HW242078   8.169  11.547   9.139  0.4540 -1.0620  0.1077
12039SOL     OW42079   1.027  11.595   7.223  0.4232 -0.0327 -0.2076
12039SOL    HW142080   1.069  11.680   7.209 -0.6167  0.7507  1.2272
12039SOL    HW242081   0.966  11.586   7.150 -1.6917  1.9244  1.1933
12040SOL     OW42082   4.855   1.718   6.541  0.3328 -0.0208  0.4861
12040SOL    HW142083   4.927   1.718   6.604 -0.0022  0.8332  0.8990
12040SOL    HW242084   4.827   1.810   6.537  0.1798 -0.1036 -0.7317
12041SOL     OW42085  10.202   7.132   1.342 -0.1592 -0.0626  0.0711
12041SOL    HW142086  10.166   7.075   1.410 -1.9463  1.7089  0.7143
12041SOL    HW242087  10.178   7.090   1.260  0.8691 -1.5549  0.5008
12042SOL     OW42088   2.383   5.765   9.368  0.0717 -0.6193 -0.3986
12042SOL    HW142089   2.462   5.766   9.315 -1.2467  1.1505 -2.4989
12042SOL    HW242090   2.407   5.813   9.447  1.5933 -1.8382 -0.0613
12043SOL     OW42091   6.034   0.811   7.798 -0.5218  1.0329  0.7404
12043SOL    HW142092   5.959   0.774   7.751  1.1076  0.0243 -1.2066
12043SOL    HW242093   6.029   0.905   7.782 -0.6670  0.8294 -0.4610
12044SOL     OW42094   3.713   1.248   7.477 -0.2017  0.0090  0.0263
12044SOL    HW142095   3.703   1.337   7.512 -2.2034  0.8373 -2.4312
12044SOL    HW242096   3.806   1.242   7.455  0.4735  0.5633  2.3429
12045SOL     OW42097   2.730   6.083  11.293  0.2824  0.5799 -0.1313
12045SOL    HW142098   2.694   6.059  11.378  0.5665  1.3613  0.2223
12045SOL    HW242099   2.735   6.001  11.245 -3.7009  0.5913 -0.9115
12046SOL     OW42100   1.379   5.880  10.627  0.7934  0.0200 -0.3950
12046SOL    HW142101   1.318   5.806  10.620  0.6862  0.2453 -2.5634
12046SOL    HW242102   1.327   5.951  10.664  0.5047 -0.5841  0.3737
12047SOL     OW42103   1.418   8.432   5.254 -0.0968 -0.6163  0.5179
12047SOL    HW142104   1.402   8.395   5.167  2.1972  0.7520 -0.5822
12047SOL    HW242105   1.391   8.524   5.246 -1.2707 -0.8260  1.7498
12048SOL     OW42106   1.219   9.470   3.983 -0.2452 -0.1855 -0.1099
12048SOL    HW142107   1.189   9.386   4.019  0.2715 -0.9108 -1.3161
12048SOL    HW242108   1.278   9.504   4.049  2.2700 -2.4365 -1.0053
12049SOL     OW42109   4.908  11.514  10.906 -0.0011 -0.2654 -0.2239
12049SOL    HW142110   4.893  11.609  10.912  0.2607 -0.0977 -1.8112
12049SOL    HW242111   4.988  11.499  10.956  0.0881  0.3930 -0.1593
12050SOL     OW42112  10.653   0.327  11.299  0.8551 -0.2069 -0.2425
12050SOL    HW142113  10.685   0.242  11.330 -0.2905 -0.0764  1.4545
12050SOL    HW242114  10.732   0.372  11.267  2.4991  0.0153  3.4980
12051SOL     OW42115  10.212   9.955   5.092  0.2347  0.6353 -0.2329
12051SOL    HW142116  10.283   9.923   5.036  0.4290 -0.2565  0.4966
12051SOL    HW242117  10.138   9.897   5.072  0.7793 -0.7611  1.5693
12052SOL     OW42118   2.889  10.407  10.610  0.1658  0.2420  0.4567
12052SOL    HW142119   2.888  10.500  10.589  2.3617  0.0441 -0.7980
12052SOL    HW242120   2.967  10.395  10.664 -0.3479 -0.8150  0.9917
12053SOL     OW42121  12.425   5.762   7.038 -0.1449 -0.1525  0.5289
12053SOL    HW142122  12.514   5.774   7.004  0.1565 -1.0741  0.9520
12053SOL    HW242123  12.386   5.697   6.979 -0.0455 -0.8129  1.1775
12054SOL     OW42124   7.775   3.401   2.152 -0.0598  0.4728 -0.1208
12054SOL    HW142125   7.754   3.397   2.059 -0.5719 -0.8251  0.0376
12054SOL    HW242126   7.802   3.492   2.166  1.4818  0.3474 -1.8462
12055SOL     OW42127  11.154   7.371   7.396 -0.0393 -0.0650 -0.0056
12055SOL    HW142128  11.069   7.402   7.428 -0.0005  0.0119  0.0255
12055SOL    HW242129  11.145   7.276   7.391 -0.0579 -0.0754  0.2000
12056SOL     OW42130   9.338   5.675   3.913  0.0219 -0.4844  0.9672
12056SOL    HW142131   9.371   5.588   3.936 -0.0368 -0.7063  0.2338
12056SOL    HW242132   9.415   5.721   3.878  0.1174 -0.1364  1.6142
12057SOL     OW42133  11.451   6.212  11.385  0.3263  0.3018 -0.1456
12057SOL    HW142134  11.384   6.249  11.328 -0.9680  0.9950  1.7255
12057SOL    HW242135  11.533   6.248  11.352 -0.5212  1.8442 -0.6914
12058SOL     OW42136  11.970   5.443  12.144  0.6191  0.3429  0.1534
12058SOL    HW142137  11.881   5.479  12.138  0.3773  0.0563  1.5808
12058SOL    HW242138  11.964   5.357  12.100 -0.0795 -0.1115  1.1070
12059SOL     OW42139  10.448   6.738  10.955  0.9888 -0.4663 -0.2127
12059SOL    HW142140  10.361   6.777  10.945  0.8206 -0.8497 -0.2734
12059SOL    HW242141  10.433   6.644  10.945  1.6774 -0.4252 -2.0980
12060SOL     OW42142   5.318   5.360   2.501 -0.5470 -0.1738  0.5340
12060SOL    HW142143   5.359   5.411   2.431 -0.3374 -0.6689  0.2908
12060SOL    HW242144   5.376   5.285   2.512 -1.2880 -0.7802  0.3215
12061SOL     OW42145   4.352  11.737  11.428 -0.5803  0.0626 -0.1685
12061SOL    HW142146   4.318  11.702  11.346  0.5528  2.4031 -1.7370
12061SOL    HW242147   4.283  11.794  11.460 -0.5962 -0.0171 -0.0600
12062SOL     OW42148   8.633   0.396   5.482 -0.3217  0.5153 -0.7306
12062SOL    HW142149   8.622   0.365   5.392 -2.2147  1.1231 -0.7677
12062SOL    HW242150   8.605   0.321   5.536  1.1667  0.0189 -0.5978
12063SOL     OW42151   1.086   4.065   4.270  0.0408 -0.1377  0.0702
12063SOL    HW142152   1.100   3.980   4.313  0.1744 -0.2663 -0.2272
12063SOL    HW242153   0.993   4.065   4.247  0.0106 -0.1477  0.1905
12064SOL     OW42154   6.081   1.851   6.452 -0.0118 -0.3687  0.0835
12064SOL    HW142155   6.176   1.860   6.439  0.1347 -0.4134  1.0581
12064SOL    HW242156   6.046   1.842   6.363  0.6739  1.5582 -0.4298
12065SOL     OW42157  11.924   6.488   6.321  0.6007  0.0598 -0.2595
12065SOL    HW142158  11.953   6.487   6.229  0.4894  1.0368 -0.3175
12065SOL    HW242159  12.002   6.510   6.371  0.1988  1.8429 -0.3420
12066SOL     OW42160   8.988   4.370  10.482 -0.6350  0.1607 -0.2372
12066SOL    HW142161   8.970   4.441  10.543 -0.3203 -0.6615  0.8549
12066SOL    HW242162   9.058   4.402  10.427  0.1986  0.3523  0.8980
12067SOL     OW42163   4.485   2.594   2.634 -0.4364 -0.5151 -0.7975
12067SOL    HW142164   4.414   2.539   2.600 -0.1916 -1.4709  0.1711
12067SOL    HW242165   4.546   2.603   2.561 -1.1698 -0.3333 -1.4011
12068SOL     OW42166   2.846  11.459   3.569 -0.6992  0.1624 -0.3140
12068SOL    HW142167   2.779  11.526   3.556 -0.4387  0.6526  0.7464
12068SOL    HW242168   2.799  11.384   3.604 -0.5832  0.8529  1.3999
12069SOL     OW42169   4.945   5.783   0.363 -0.2419  0.0691  0.1929
12069SOL    HW142170   5.001   5.720   0.319  0.1615  1.1692 -0.9222
12069SOL    HW242171   4.857   5.747   0.355  0.2501 -1.7537  2.0947
12070SOL     OW42172   1.536   9.362  11.510 -0.3893 -0.1630  0.0270
12070SOL    HW142173   1.443   9.372  11.532 -0.4912  1.9307 -1.1642
12070SOL    HW242174   1.542   9.383  11.417  1.5417  1.8282  0.5107
12071SOL     OW42175   7.892   6.126   8.147  0.0270  0.4975  0.1228
12071SOL    HW142176   7.981   6.107   8.118 -1.4966 -1.2065 -4.3481
12071SOL    HW242177   7.877   6.069   8.222  1.5318 -2.2934 -1.5383
12072SOL     OW42178   3.912   1.735   2.896 -0.9220 -0.0839 -0.2554
12072SOL    HW142179   3.833   1.684   2.915 -0.4245 -0.5522  0.6327
12072SOL    HW242180   3.963   1.680   2.837 -1.2210  0.1909 -0.7773
12073SOL     OW42181   2.789   5.949   4.033  0.5388  0.7221 -0.5389
12073SOL    HW142182   2.872   5.908   4.058  0.1528 -0.5180 -1.2048
12073SOL    HW242183   2.722   5.889   4.065 -0.0641  1.0127 -1.2307
12074SOL     OW42184   4.573   5.261   2.477  0.0298  0.1067  0.7574
12074SOL    HW142185   4.637   5.332   2.480  1.3899 -1.0856  1.7210
12074SOL    HW242186   4.490   5.304   2.459  0.9692  1.8118  0.2662
12075SOL     OW42187   0.437   2.020  10.228  0.1074 -0.0954  0.4545
12075SOL    HW142188   0.356   2.059  10.198  0.8801  2.9898  1.9490
12075SOL    HW242189   0.410   1.940  10.274 -1.8055 -0.2849 -0.9021
12076SOL     OW42190  10.766   1.555   2.738  0.1890  0.7434 -0.2860
12076SOL    HW142191  10.719   1.638   2.733 -0.6030  0.2875 -0.5034
12076SOL    HW242192  10.715   1.494   2.685  1.3298  0.3724 -1.0038
12077SOL     OW42193   1.244  11.929   1.559  0.2445  0.2226 -0.1684
12077SOL    HW142194   1.331  11.966   1.544  0.7205  0.1083  2.0381
12077SOL    HW242195   1.247  11.895   1.648 -2.6229  1.8209  0.6635
12078SOL     OW42196   7.384   0.637   5.161 -0.6035  0.3915 -0.0325
12078SOL    HW142197   7.386   0.728   5.191  0.4372  0.1167  0.8357
12078SOL    HW242198   7.458   0.631   5.101  0.1968 -0.1986  0.9820
12079SOL     OW42199   1.492  10.528   6.736  0.1095  0.2139 -0.1488
12079SOL    HW142200   1.447  10.610   6.759 -0.4322 -0.5933  1.7890
12079SOL    HW242201   1.577  10.534   6.780  0.2688 -0.0560 -0.4174
12080SOL     OW42202   1.302   1.092   4.194 -0.0462  0.1657  0.0760
12080SOL    HW142203   1.229   1.062   4.139  0.4410  1.6116 -1.4380
12080SOL    HW242204   1.263   1.105   4.280 -1.9911  2.3729 -1.0445
12081SOL     OW42205   4.555   0.971   7.170  0.5387  0.0088  0.1665
12081SOL    HW142206   4.557   0.933   7.083  1.0081  0.4158 -0.0064
12081SOL    HW242207   4.628   0.929   7.216  0.2641 -0.2402  0.3841
12082SOL     OW42208   3.915   1.646   0.594 -0.4002  0.2208 -0.0768
12082SOL    HW142209   4.009   1.644   0.574 -0.8839  0.7832 -2.9576
12082SOL    HW242210   3.901   1.572   0.652  1.6993 -0.3855 -0.2427
12083SOL     OW42211   2.352  11.459  10.082  0.2959 -0.3390  0.1767
12083SOL    HW142212   2.425  11.501  10.037 -0.7479 -0.9247 -2.2503
12083SOL    HW242213   2.366  11.365  10.068 -0.4061 -0.5070  0.5388
12084SOL     OW42214  11.796   8.389  11.199  0.0584 -0.0979  0.6744
12084SOL    HW142215  11.702   8.407  11.187  0.6486  1.7001 -2.1297
12084SOL    HW242216  11.812   8.312  11.144  0.7239  1.5407 -1.5858
12085SOL     OW42217   1.394   2.162   7.204 -0.4975  0.2204  0.5252
12085SOL    HW142218   1.466   2.222   7.190 -0.4903 -0.1101 -0.9767
12085SOL    HW242219   1.378   2.122   7.119 -2.1082 -0.1070  0.9339
12086SOL     OW42220   6.727  10.553  11.730 -0.3913 -0.1823  0.2289
12086SOL    HW142221   6.795  10.596  11.782 -1.5548  1.0712  0.7567
12086SOL    HW242222   6.722  10.605  11.649 -0.2975 -0.6410 -0.0755
12087SOL     OW42223   0.346   0.931   6.722  0.5141 -0.1731 -0.1638
12087SOL    HW142224   0.262   0.941   6.767  0.3766  0.5968 -0.5856
12087SOL    HW242225   0.403   0.890   6.787 -0.5691 -2.0350 -0.3271
12088SOL     OW42226   5.481   7.795  11.557 -0.0984 -0.1541 -0.3252
12088SOL    HW142227   5.428   7.720  11.532 -1.6000  0.3832  1.0174
12088SOL    HW242228   5.538   7.763  11.627  0.3190 -0.3900 -0.7731
12089SOL     OW42229   7.810   0.281  12.406 -0.2659  0.7907 -0.3552
12089SOL    HW142230   7.775   0.357  12.452 -0.1210  0.7588 -0.1895
12089SOL    HW242231   7.733   0.234  12.375 -0.3839  0.4847  0.3837
12090SOL     OW42232   9.542   4.029   6.502  0.1137 -0.1494  0.9223
12090SOL    HW142233   9.495   4.086   6.441  0.7938  0.1729  0.6887
12090SOL    HW242234   9.478   4.010   6.571 -0.1684  0.7862  0.9351
12091SOL     OW42235  10.616   6.994   3.590 -0.1839 -0.6419  0.0398
12091SOL    HW142236  10.663   7.049   3.653 -0.6860 -1.5074  1.1998
12091SOL    HW242237  10.543   7.048   3.561  0.6357  0.1526 -0.6323
12092SOL     OW42238   4.949   8.007   4.304 -0.3686 -0.5789 -0.4548
12092SOL    HW142239   4.879   7.941   4.303 -1.6684  0.7414 -0.8593
12092SOL    HW242240   4.964   8.027   4.212 -0.0830 -0.1972 -0.3254
12093SOL     OW42241   6.589   2.677   6.671  0.4369 -0.0368  0.2250
12093SOL    HW142242   6.509   2.728   6.658  0.0975 -0.8390 -1.0344
12093SOL    HW242243   6.654   2.742   6.698  0.1267  1.2068 -1.7939
12094SOL     OW42244   2.453  11.796   3.662  0.0470  0.4626 -0.1538
12094SOL    HW142245   2.430  11.765   3.750 -0.5921  0.8492 -0.1764
12094SOL    HW242246   2.483  11.718   3.616 -0.4807  0.0785  0.1338
12095SOL     OW42247   1.308   9.598   5.319 -0.5433  0.2702 -0.0299
12095SOL    HW142248   1.390   9.585   5.270  0.1006  1.4235  0.6961
12095SOL    HW242249   1.284   9.510   5.349 -1.4716 -0.6591 -3.1373
12096SOL     OW42250   9.807  11.638   6.608  0.0440  0.2066  0.0039
12096SOL    HW142251   9.868  11.608   6.675 -2.3096  0.1720  2.2575
12096SOL    HW242252   9.841  11.724   6.582  1.1751  0.0963  1.0108
12097SOL     OW42253   6.527  11.182   3.520  0.7070 -0.0291  0.0225
12097SOL    HW142254   6.477  11.254   3.558  1.7309  0.8205 -0.1924
12097SOL    HW242255   6.488  11.168   3.434  1.9074  1.8636 -0.9221
12098SOL     OW42256   0.669   4.203   3.675 -0.3181 -0.4847  0.1307
12098SOL    HW142257   0.615   4.279   3.697  1.2389  0.2859  1.4938
12098SOL    HW242258   0.657   4.143   3.750 -1.0673 -1.3548 -0.6552
12099SOL     OW42259   1.981   1.626   5.948 -1.2341 -0.4111  0.5822
12099SOL    HW142260   1.950   1.571   5.876  1.1749 -1.5338  0.3122
12099SOL    HW242261   2.053   1.676   5.911 -1.3348  0.5973  1.6820
12100SOL     OW42262   5.931   4.826   9.279  0.1010  0.2914 -0.1140
12100SOL    HW142263   5.863   4.759   9.272  0.4973  0.0050 -1.4600
12100SOL    HW242264   5.889   4.906   9.247  0.5705 -0.0434 -1.6769
12101SOL     OW42265  10.344   9.069  10.759 -0.2240  0.6367  0.6036
12101SOL    HW142266  10.325   9.156  10.793  2.5513  1.1120  1.2163
12101SOL    HW242267  10.359   9.083  10.665 -1.0355  0.5857  0.4652
12102SOL     OW42268   3.097   2.843   3.788 -0.0369  0.2558  0.8634
12102SOL    HW142269   3.031   2.816   3.853 -0.4056  0.4819  0.5874
12102SOL    HW242270   3.100   2.938   3.796 -2.8612  0.7630 -2.0253
12103SOL     OW42271   3.944  10.830   2.165 -0.3296 -0.1790  0.3790
12103SOL    HW142272   3.966  10.784   2.084 -0.8735  2.5292 -1.4551
12103SOL    HW242273   3.849  10.823   2.171 -0.3985  0.4861  0.1798
12104SOL     OW42274   4.188   7.784   7.414 -0.2418  0.3315 -0.1196
12104SOL    HW142275   4.189   7.765   7.320 -0.4379  1.4291 -0.3463
12104SOL    HW242276   4.280   7.776   7.441 -0.1864  0.0061 -0.3972
12105SOL     OW42277   4.443   8.692   6.532 -0.5817  0.2757 -0.5574
12105SOL    HW142278   4.387   8.702   6.455  0.4067  0.8588 -1.2191
12105SOL    HW242279   4.402   8.749   6.598 -0.2457  1.4883 -1.3546
12106SOL     OW42280   8.161   8.349   4.025 -0.1425  0.3338  0.6858
12106SOL    HW142281   8.119   8.352   4.111 -1.8754 -1.8078  0.0163
12106SOL    HW242282   8.155   8.257   4.000  0.9168  0.8050 -1.4564
12107SOL     OW42283   9.268   0.061  10.768 -0.4319 -0.0211  0.1473
12107SOL    HW142284   9.288  -0.006  10.833 -1.6068 -0.9621 -0.4198
12107SOL    HW242285   9.346   0.117  10.766  0.8884 -1.7856  0.1015
12108SOL     OW42286   7.532   6.774   8.329 -0.1301 -0.5038  0.4778
12108SOL    HW142287   7.509   6.682   8.340 -0.6187 -0.3800  0.5286
12108SOL    HW242288   7.627   6.777   8.342  0.5421 -1.5950 -3.1721
12109SOL     OW42289   9.537   4.506   7.751  0.5338 -0.6818  0.1228
12109SOL    HW142290   9.564   4.550   7.671 -1.1403  1.1872  0.5289
12109SOL    HW242291   9.561   4.414   7.736  2.1693 -0.0546 -1.6210
12110SOL     OW42292   0.674  12.484   5.622 -0.6619  0.3710 -0.6275
12110SOL    HW142293   0.752  12.437   5.592 -0.9554 -0.6873  0.2011
12110SOL    HW242294   0.602  12.423   5.607 -1.0997  0.6700  0.2233
12111SOL     OW42295   3.580   7.246   4.580 -0.3538 -0.2720  0.2855
12111SOL    HW142296   3.505   7.303   4.598 -0.8038 -0.5103 -0.7555
12111SOL    HW242297   3.543   7.158   4.577 -0.5524 -0.1780 -2.7205
12112SOL     OW42298   5.454   4.341   6.293  0.0465  0.2784  0.2408
12112SOL    HW142299   5.419   4.254   6.313 -1.5858  0.7954 -0.2334
12112SOL    HW242300   5.398   4.401   6.342  1.0197  1.0875  0.3895
12113SOL     OW42301   3.741   3.747   2.780  0.1661  0.2752  0.0309
12113SOL    HW142302   3.746   3.693   2.701 -0.8304 -1.3096  0.9821
12113SOL    HW242303   3.673   3.811   2.760 -0.6596 -0.6269 -0.1302
12114SOL     OW42304   1.508  11.900  11.168 -0.2522 -0.5488  0.1393
12114SOL    HW142305   1.554  11.982  11.152 -0.2004 -0.6251 -0.1127
12114SOL    HW242306   1.419  11.916  11.136 -0.5501 -0.2318  1.0963
12115SOL     OW42307   9.832   5.769   2.120 -0.2556 -0.3711  0.5733
12115SOL    HW142308   9.855   5.681   2.148  0.0633 -0.6573 -0.5692
12115SOL    HW242309   9.878   5.782   2.038 -4.4342 -1.2314 -2.2399
12116SOL     OW42310   6.010   6.169   4.794  1.1362  0.2016  0.5081
12116SOL    HW142311   5.995   6.081   4.828 -0.8294  1.1789  2.4220
12116SOL    HW242312   6.059   6.214   4.863 -1.5341  1.7703  1.5121
12117SOL     OW42313  11.442  12.094   7.524 -0.0956  0.0403  0.4539
12117SOL    HW142314  11.468  12.184   7.501 -3.0894  0.2419 -2.9494
12117SOL    HW242315  11.461  12.043   7.446 -0.2249 -1.9382  1.6582
12118SOL     OW42316   2.059  11.715  11.862 -0.5285 -0.0056  0.0448
12118SOL    HW142317   2.135  11.730  11.806  0.6387  0.2647  1.6337
12118SOL    HW242318   2.000  11.788  11.843  0.6094  1.0294  0.3956
12119SOL     OW42319   9.915   1.208   2.655  0.4485 -0.1108 -0.3058
12119SOL    HW142320  10.007   1.224   2.633  0.9576  1.4037  2.4194
12119SOL    HW242321   9.917   1.126   2.706  0.5599  0.6712  0.9895
12120SOL     OW42322  11.424   5.973   6.213  0.1148 -0.7775  0.4005
12120SOL    HW142323  11.489   6.010   6.272 -1.0487 -0.1073  1.2928
12120SOL    HW242324  11.341   5.986   6.257 -0.9303  0.5973 -1.7734
12121SOL     OW42325   5.090   2.615  10.038 -0.3232 -0.5201 -0.8234
12121SOL    HW142326   5.017   2.596  10.096 -1.3555 -1.4299 -2.3687
12121SOL    HW242327   5.094   2.711  10.036  0.8767 -0.3799  2.0332
12122SOL     OW42328   2.572   1.943   4.472 -0.0176 -0.2111  0.3326
12122SOL    HW142329   2.490   1.910   4.435  0.0269 -0.7515  0.7095
12122SOL    HW242330   2.562   2.039   4.471 -0.8785 -0.2889  0.8804
12123SOL     OW42331   1.074   9.541   7.687 -0.9697  1.0507  0.4252
12123SOL    HW142332   1.087   9.617   7.743 -0.2308  1.9048 -0.8593
12123SOL    HW242333   1.108   9.568   7.601  0.8616 -1.2429  0.3086
12124SOL     OW42334  11.056  11.655   6.320 -1.2203 -0.5571  0.6100
12124SOL    HW142335  11.135  11.601   6.316  0.7416  2.0995  0.1795
12124SOL    HW242336  10.998  11.618   6.254  0.2614 -1.7833 -0.0712
12125SOL     OW42337   8.512   9.266   8.869  0.1095 -0.0467 -0.0136
12125SOL    HW142338   8.433   9.286   8.919 -0.0804 -2.6972  0.9018
12125SOL    HW242339   8.584   9.301   8.922 -0.3295  0.9234 -0.0392
12126SOL     OW42340  10.363   3.398   1.591 -0.3951 -0.8433  0.5832
12126SOL    HW142341  10.309   3.319   1.599  0.6685 -1.6117  0.3451
12126SOL    HW242342  10.420   3.396   1.668 -2.3785  1.3311  2.2553
12127SOL     OW42343   2.704   3.786   3.110  0.2207  0.0180 -0.2296
12127SOL    HW142344   2.639   3.849   3.077  1.5634  1.8846  0.4918
12127SOL    HW242345   2.788   3.823   3.084  1.1333 -0.5519  1.7129
12128SOL     OW42346   8.361  11.509   7.301  0.1816  0.2752 -0.0142
12128SOL    HW142347   8.273  11.482   7.324  0.5268 -2.4212 -1.4229
12128SOL    HW242348   8.353  11.601   7.276 -2.0114  0.3596  0.8499
12129SOL     OW42349   4.089  11.504   2.006  0.1262  0.3956 -0.2419
12129SOL    HW142350   4.029  11.554   2.062  1.3188  0.4904  0.9889
12129SOL    HW242351   4.034  11.436   1.967 -1.1934  1.6656 -0.7125
12130SOL     OW42352   4.789  12.293   2.291 -0.2832 -0.0813 -0.8016
12130SOL    HW142353   4.787  12.377   2.338 -1.1471  0.7919 -2.2950
12130SOL    HW242354   4.812  12.317   2.201  0.4162 -1.5840 -1.0488
12131SOL     OW42355   4.271   8.775   6.330  0.4853 -0.5138 -0.7246
12131SOL    HW142356   4.342   8.729   6.285  0.6135 -0.4421 -0.5971
12131SOL    HW242357   4.225   8.822   6.260  0.2853 -0.9196 -0.8714
12132SOL     OW42358   9.870   7.912   6.011 -0.0195  0.4465 -0.0546
12132SOL    HW142359   9.828   7.995   6.031  0.3187  0.3557  1.1130
12132SOL    HW242360   9.800   7.848   6.013 -0.7077  0.9223 -3.1245
12133SOL     OW42361   4.063   8.519   1.246  0.6395  0.2068 -0.4348
12133SOL    HW142362   4.125   8.510   1.319  1.0241 -1.4773 -0.9225
12133SOL    HW242363   3.998   8.452   1.263  0.8919 -0.4046 -1.7818
12134SOL     OW42364   6.226   4.688   9.652  0.3822 -0.1259  0.1149
12134SOL    HW142365   6.168   4.634   9.599 -0.6240  1.6301 -0.6472
12134SOL    HW242366   6.218   4.776   9.615  2.0065  0.5618  1.2674
12135SOL     OW42367   5.231   6.854   0.304  0.2262  0.2436  0.7213
12135SOL    HW142368   5.279   6.914   0.246  2.0640 -0.7055  1.2018
12135SOL    HW242369   5.236   6.895   0.390 -0.9759  0.7659  0.5667
12136SOL     OW42370   0.710   4.939  11.246 -0.4710 -0.4557  0.2189
12136SOL    HW142371   0.781   4.989  11.205  0.1370  0.1162  1.9064
12136SOL    HW242372   0.753   4.886  11.313 -1.6389  0.1763  1.5239
12137SOL     OW42373   7.029  12.358   6.549 -0.4556 -0.2330 -0.1796
12137SOL    HW142374   7.024  12.453   6.558 -1.1612 -0.1949 -0.8860
12137SOL    HW242375   7.123  12.339   6.551 -0.2020  0.6571 -1.6972
12138SOL     OW42376  10.670   7.229   2.829 -0.0101  0.3000  0.1447
12138SOL    HW142377  10.741   7.226   2.893 -0.5995  1.9613  0.9269
12138SOL    HW242378  10.655   7.322   2.814 -0.6779 -0.0524 -1.5493
12139SOL     OW42379  11.242   2.900   3.523 -0.0896 -0.1613  0.6032
12139SOL    HW142380  11.236   2.804   3.529  1.3816 -0.2936  0.3760
12139SOL    HW242381  11.288   2.926   3.602  0.4937  0.2446  0.1364
12140SOL     OW42382   6.176  12.028   4.431 -0.4302 -0.7608  0.0404
12140SOL    HW142383   6.180  11.957   4.366  0.8233  0.2389 -1.0127
12140SOL    HW242384   6.178  12.108   4.380  1.3321  0.0828  1.3168
12141SOL     OW42385   0.186   3.594  11.961  0.5956  0.0559  0.1928
12141SOL    HW142386   0.277   3.618  11.945 -0.0764  0.8350 -3.0833
12141SOL    HW242387   0.149   3.669  12.007  1.2941  0.2586  0.4417
12142SOL     OW42388   6.031  10.136   9.915 -0.2743  0.0082  0.3623
12142SOL    HW142389   6.061  10.162  10.002  0.5182 -0.4368  0.2347
12142SOL    HW242390   5.954  10.082   9.931  0.6935 -1.2814  0.8932
12143SOL     OW42391   0.630  10.863  11.096  0.1449 -0.2544 -0.0759
12143SOL    HW142392   0.634  10.822  11.183  1.8637  0.4428  0.2067
12143SOL    HW242393   0.674  10.800  11.038  1.7249  0.6010  0.1435
12144SOL     OW42394  11.291   2.644   1.401  0.1611  0.7403 -0.1069
12144SOL    HW142395  11.253   2.702   1.468 -0.4860 -1.9879  2.0717
12144SOL    HW242396  11.369   2.607   1.442 -1.7819 -3.2215  0.5603
12145SOL     OW42397   0.422   0.900   5.223  0.4635  0.7730  0.1209
12145SOL    HW142398   0.478   0.936   5.292 -0.0496  1.6340  0.0926
12145SOL    HW242399   0.365   0.972   5.198 -0.1663  0.1161 -0.3669
12146SOL     OW42400   0.883   3.269   1.535 -0.3251 -0.2357  0.2985
12146SOL    HW142401   0.964   3.246   1.489 -0.1785  1.5076 -0.3593
12146SOL    HW242402   0.875   3.201   1.603  0.3375 -1.8917 -1.1921
12147SOL     OW42403  12.084   5.195   5.290 -0.2602 -0.3215  0.1694
12147SOL    HW142404  12.051   5.245   5.364 -2.0744 -0.3085 -0.5734
12147SOL    HW242405  12.179   5.194   5.300 -0.4171  0.4811  1.9506
12148SOL     OW42406   6.233  11.547   4.892 -0.5106 -0.1366 -0.1185
12148SOL    HW142407   6.163  11.541   4.957  0.4763 -0.9182  0.9341
12148SOL    HW242408   6.208  11.620   4.836 -1.3587  0.6353  1.2036
12149SOL     OW42409   4.288   4.570  12.269 -0.8182 -0.3736 -0.4879
12149SOL    HW142410   4.364   4.618  12.236 -1.1751 -0.1552 -0.9936
12149SOL    HW242411   4.283   4.492  12.214 -3.6190  1.7353 -3.5826
12150SOL     OW42412   0.266   7.234   8.430 -0.2624  0.3733  0.4497
12150SOL    HW142413   0.205   7.301   8.402 -0.5502 -0.3031 -0.6016
12150SOL    HW242414   0.217   7.152   8.422  0.1577  0.0020  1.4753
12151SOL     OW42415  11.273   0.287   7.783  0.2130 -0.7344  0.0147
12151SOL    HW142416  11.245   0.356   7.722 -2.7400 -1.0474  0.8706
12151SOL    HW242417  11.224   0.209   7.756 -2.2155 -0.5935  3.3664
12152SOL     OW42418   9.835   5.906   9.756 -0.0965  0.0351  0.7603
12152SOL    HW142419   9.780   5.877   9.828 -0.9058  2.2632  1.1123
12152SOL    HW242420   9.894   5.832   9.739 -1.8698 -1.6700  1.6673
12153SOL     OW42421   7.488   8.777   6.168  0.2363 -0.5449  0.0810
12153SOL    HW142422   7.460   8.747   6.082  1.5514  0.6618 -0.8185
12153SOL    HW242423   7.577   8.744   6.178  0.6069  0.4830  0.3516
12154SOL     OW42424  12.196   6.556   6.482  0.1151 -0.1005  0.0021
12154SOL    HW142425  12.179   6.600   6.566 -1.6968 -0.2895 -0.2282
12154SOL    HW242426  12.257   6.486   6.504  0.8631  0.7747  0.8725
12155SOL     OW42427   2.729   2.630   5.995  0.3278 -0.0112 -0.4134
12155SOL    HW142428   2.771   2.587   6.069  0.4185 -1.0958 -1.0654
12155SOL    HW242429   2.635   2.626   6.015  0.3473 -0.3754 -0.3763
12156SOL     OW42430   8.901   2.162   2.369  0.4584 -0.3402  0.0364
12156SOL    HW142431   8.847   2.163   2.449 -0.5430 -0.9907 -0.6120
12156SOL    HW242432   8.990   2.180   2.400 -0.2747  2.1371  1.0146
12157SOL     OW42433   1.551   3.948   3.930  0.6440  0.2215  0.1493
12157SOL    HW142434   1.465   3.967   3.894  0.1969 -0.3212  0.9015
12157SOL    HW242435   1.553   3.853   3.941  2.2042 -0.0569 -1.9721
12158SOL     OW42436   7.267   0.370   2.374  0.1817 -0.1132 -0.1543
12158SOL    HW142437   7.282   0.277   2.391 -1.4643 -0.5040 -0.6295
12158SOL    HW242438   7.275   0.411   2.460  1.8331 -0.5323 -0.0793
12159SOL     OW42439   1.472   2.810   0.264  0.3473  0.5252 -0.2207
12159SOL    HW142440   1.469   2.882   0.201 -0.5363  0.7856  0.1018
12159SOL    HW242441   1.427   2.844   0.342  1.6702  0.3132  0.6722
12160SOL     OW42442   0.182   2.691   2.259  0.2070  0.7048 -0.0081
12160SOL    HW142443   0.178   2.774   2.212 -0.3094  1.5927  1.5388
12160SOL    HW242444   0.271   2.659   2.243  0.3630  1.4704 -0.7571
12161SOL     OW42445   1.846   8.988   5.056  1.3285 -0.2994  0.4406
12161SOL    HW142446   1.859   8.927   5.128  0.4274 -1.4254 -0.3097
12161SOL    HW242447   1.765   9.034   5.078  0.5550 -1.2770 -0.2320
12162SOL     OW42448   5.906   1.688   7.488 -0.3313  0.1711 -0.5318
12162SOL    HW142449   5.993   1.686   7.529  0.7509  1.7241 -2.5516
12162SOL    HW242450   5.872   1.599   7.500  1.3756 -0.3807  0.6271
12163SOL     OW42451   5.367   6.026   1.980  0.0420 -0.1357  0.0209
12163SOL    HW142452   5.289   5.977   1.955 -0.6275 -0.7294  2.8932
12163SOL    HW242453   5.440   5.969   1.958 -0.4522 -0.4542 -0.8146
12164SOL     OW42454  11.965   5.237   4.797 -0.8622  0.9372  0.2975
12164SOL    HW142455  12.045   5.290   4.806 -2.0050  2.5315  1.7872
12164SOL    HW242456  11.965   5.209   4.705  1.9010  0.0196  0.5026
12165SOL     OW42457   9.745   0.325   8.191  0.0293  0.0053  0.7526
12165SOL    HW142458   9.717   0.270   8.118  0.4092  0.8957 -0.0792
12165SOL    HW242459   9.694   0.293   8.265  1.1483 -2.3282  0.6190
12166SOL     OW42460   7.141   4.225   5.694 -0.0780  0.1881  0.0441
12166SOL    HW142461   7.046   4.226   5.696 -0.0836  1.7990  1.1072
12166SOL    HW242462   7.167   4.266   5.777  1.5174  0.4467 -0.5396
12167SOL     OW42463   2.806   1.426  10.037 -0.1864  0.5619  0.0892
12167SOL    HW142464   2.863   1.449   9.964  2.1054  0.0245  1.5965
12167SOL    HW242465   2.799   1.330  10.033 -1.5792  0.6649 -0.4625
12168SOL     OW42466  11.691  10.306   0.764  0.0287  0.2806  0.1423
12168SOL    HW142467  11.622  10.326   0.701  0.7355 -0.4056 -0.8828
12168SOL    HW242468  11.665  10.223   0.803 -2.0982  2.2134  3.2472
12169SOL     OW42469   7.430   1.222   9.314  0.0525  0.0549  0.3603
12169SOL    HW142470   7.518   1.192   9.290  0.2969 -0.8568  2.2164
12169SOL    HW242471   7.445   1.301   9.365 -0.4769  2.1170 -2.4447
12170SOL     OW42472   8.568   9.568   0.290  0.4909 -0.4955 -0.0987
12170SOL    HW142473   8.558   9.563   0.195 -1.7510 -1.9116  0.1346
12170SOL    HW242474   8.524   9.649   0.315  0.6693 -0.3580 -0.2350
12171SOL     OW42475   1.409   4.176   6.554  0.0965  0.3074 -0.6925
12171SOL    HW142476   1.384   4.089   6.523 -0.9448 -0.1620  1.3691
12171SOL    HW242477   1.489   4.161   6.604 -0.2125  0.5002 -0.1404
12172SOL     OW42478   3.705   3.236   3.919  0.4333  0.4282 -0.4726
12172SOL    HW142479   3.618   3.244   3.958  1.2581 -2.4337  2.3009
12172SOL    HW242480   3.752   3.314   3.948 -0.8059  1.4325 -1.0581
12173SOL     OW42481  10.983   9.413   7.682  0.3755 -0.1031  0.0909
12173SOL    HW142482  11.021   9.445   7.600  2.0556  0.2467  0.9691
12173SOL    HW242483  11.042   9.443   7.750 -0.1186 -1.7280  1.3185
12174SOL     OW42484   4.399   7.438   6.932 -0.6176 -0.1442 -0.1891
12174SOL    HW142485   4.421   7.354   6.892 -0.2849 -0.1095 -0.0751
12174SOL    HW242486   4.443   7.436   7.017  1.6764  1.2787 -1.2627
12175SOL     OW42487   9.661   8.648   3.258 -0.1782  0.0128  0.3458
12175SOL    HW142488   9.605   8.601   3.196  0.3532 -1.0924  0.6792
12175SOL    HW242489   9.673   8.734   3.219 -1.2113 -0.1006 -0.2659
12176SOL     OW42490   5.070  10.874   7.629 -1.0613  0.1267  0.1249
12176SOL    HW142491   5.106  10.950   7.584  0.0984 -0.4389  0.0508
12176SOL    HW242492   5.095  10.886   7.720  0.1830 -0.7155 -0.0721
12177SOL     OW42493   0.350   0.501   0.691 -0.2005  0.0556 -0.0018
12177SOL    HW142494   0.374   0.410   0.676 -1.4726  0.0414 -2.3577
12177SOL    HW242495   0.434   0.547   0.697  0.4455 -1.1473  0.4464
12178SOL     OW42496  11.991   5.019   9.424 -0.1328  0.4476  0.0088
12178SOL    HW142497  11.955   5.108   9.422 -0.5857  0.2814 -2.1003
12178SOL    HW242498  12.078   5.029   9.464 -0.5310  1.6742  0.6258
12179SOL     OW42499   5.774   9.601   4.049  0.0159  0.4281 -0.1151
12179SOL    HW142500   5.762   9.696   4.045  0.7104  0.6582  2.1109
12179SOL    HW242501   5.700   9.569   4.100 -0.2063 -0.2448 -0.8376
12180SOL     OW42502   9.579   7.125   9.785 -0.0573  0.0423  0.5740
12180SOL    HW142503   9.487   7.143   9.805  0.3214  1.4206  1.1970
12180SOL    HW242504   9.593   7.036   9.818 -1.0218  0.0292  1.0006
12181SOL     OW42505  11.277   6.110  12.304 -0.4367 -0.1241 -0.1149
12181SOL    HW142506  11.275   6.158  12.387 -1.4991 -1.2763  0.5553
12181SOL    HW242507  11.244   6.023  12.325  0.1891 -0.7590 -1.5674
12182SOL     OW42508   4.969  10.462   1.621 -0.1902  0.3202  0.3133
12182SOL    HW142509   5.013  10.480   1.537 -0.7174  0.8248  0.1339
12182SOL    HW242510   5.014  10.518   1.684  1.6994 -1.6689  0.8652
12183SOL     OW42511   4.075   7.119   4.185 -0.1286  0.2343 -0.0044
12183SOL    HW142512   4.171   7.129   4.185 -0.1082  0.0422  0.7070
12183SOL    HW242513   4.048   7.146   4.273 -0.4221 -2.6917  0.8950
12184SOL     OW42514   0.534   4.543   2.968 -0.4008  0.5033 -0.0867
12184SOL    HW142515   0.460   4.580   2.920 -0.8555  0.6404  0.7098
12184SOL    HW242516   0.611   4.573   2.920 -0.7546  2.4131  0.4760
12185SOL     OW42517   5.583   8.362   9.486 -0.0814 -0.3186 -0.6278
12185SOL    HW142518   5.536   8.442   9.465  1.5036  0.5214 -1.1404
12185SOL    HW242519   5.542   8.330   9.566 -0.6111  1.1073 -0.3054
12186SOL     OW42520   7.270   6.917   7.655 -0.3977 -0.5578  0.3889
12186SOL    HW142521   7.324   6.920   7.576  1.9142 -1.1563  1.8451
12186SOL    HW242522   7.213   6.841   7.642 -0.7131 -0.0942 -1.0768
12187SOL     OW42523   7.173   9.592  10.232 -0.1925 -0.1152 -0.3363
12187SOL    HW142524   7.234   9.575  10.161  1.3135  0.5363  0.7301
12187SOL    HW242525   7.156   9.507  10.272 -0.0310 -0.3085 -0.6842
12188SOL     OW42526   1.458   7.606   8.354 -0.3580  0.2060 -0.5247
12188SOL    HW142527   1.473   7.676   8.290 -1.5741  1.2717  0.3092
12188SOL    HW242528   1.365   7.583   8.343  0.0331 -1.3591 -0.8383
12189SOL     OW42529   5.930   5.769   4.647  0.0234 -0.2757  0.3371
12189SOL    HW142530   5.912   5.812   4.731  1.3731  0.8617  0.0898
12189SOL    HW242531   5.995   5.826   4.605  0.5906 -1.6802 -0.7640
12190SOL     OW42532   6.240   6.014   8.820 -0.7142  0.4244 -0.7137
12190SOL    HW142533   6.305   5.954   8.857 -0.2137  2.3132  1.7122
12190SOL    HW242534   6.207   5.968   8.742  1.3004 -1.9209 -0.3191
12191SOL     OW42535   9.717   3.285   4.235  0.1755 -0.3202  0.2454
12191SOL    HW142536   9.788   3.238   4.280 -0.1991 -0.8177  0.3232
12191SOL    HW242537   9.718   3.372   4.275 -0.2560 -0.7956  1.3507
12192SOL     OW42538   0.989   6.816  12.198 -0.3708 -1.0935 -0.0633
12192SOL    HW142539   1.025   6.771  12.121 -0.6573 -0.1494 -0.7715
12192SOL    HW242540   1.058   6.810  12.264  1.1951  0.7118 -1.4036
12193SOL     OW42541   9.615   2.145   0.872  0.6080  0.4453 -0.2209
12193SOL    HW142542   9.673   2.202   0.821  0.2155 -0.6099 -1.9185
12193SOL    HW242543   9.662   2.062   0.878 -0.1553 -0.0223 -0.5159
12194SOL     OW42544   3.001   4.036   4.545 -0.4568 -0.6191  0.0265
12194SOL    HW142545   3.088   3.999   4.530 -0.3663 -0.4128  0.0501
12194SOL    HW242546   3.010   4.129   4.526 -0.6346 -0.5690  0.1833
12195SOL     OW42547  10.890   9.341   2.688 -0.1668  1.0594  0.3798
12195SOL    HW142548  10.809   9.386   2.663 -0.5597  0.1284 -0.0676
12195SOL    HW242549  10.946   9.348   2.610  0.8499  3.0893  1.2079
12196SOL     OW42550   9.585   0.503   2.243  0.4575  0.1810  0.0575
12196SOL    HW142551   9.518   0.450   2.199 -0.0006  1.4658 -0.8643
12196SOL    HW242552   9.575   0.483   2.336 -0.1399 -0.8303 -0.2051
12197SOL     OW42553   9.454   1.597   8.523  0.1958 -0.1614  0.0312
12197SOL    HW142554   9.390   1.631   8.586 -0.2541 -0.1413 -0.4339
12197SOL    HW242555   9.402   1.577   8.445  0.7519 -0.2003 -0.3284
12198SOL     OW42556   2.788   8.544   9.977 -0.2198 -0.4023 -0.4540
12198SOL    HW142557   2.717   8.607   9.990  1.3003  0.9608  1.9189
12198SOL    HW242558   2.842   8.581   9.908 -1.3259 -1.0602 -1.7196
12199SOL     OW42559  11.147   2.782   0.286 -1.0141  0.5220  0.1831
12199SOL    HW142560  11.128   2.838   0.211  1.1644  0.9225 -0.1263
12199SOL    HW242561  11.086   2.812   0.354 -0.0986  3.1519 -0.0391
12200SOL     OW42562   5.737   2.453   0.912 -0.0854 -0.3293 -0.6210
12200SOL    HW142563   5.663   2.458   0.973  0.2559  0.3946 -0.2664
12200SOL    HW242564   5.756   2.359   0.907  0.4113 -0.3511  1.0314
12201SOL     OW42565  11.706   3.733   7.638  0.0992  0.1231  0.3524
12201SOL    HW142566  11.695   3.809   7.580 -1.4449 -0.4520 -0.1461
12201SOL    HW242567  11.675   3.763   7.723 -1.3396 -0.1727 -0.0416
12202SOL     OW42568   6.137   7.099   4.127  0.7008  0.3971 -0.2359
12202SOL    HW142569   6.093   7.087   4.211  0.6336 -0.6976 -0.4067
12202SOL    HW242570   6.225   7.063   4.141  0.5198 -0.2697 -0.7701
12203SOL     OW42571   3.531   8.587   5.459 -0.6757 -0.2919  0.2452
12203SOL    HW142572   3.607   8.539   5.492 -0.7782 -0.4232  0.2891
12203SOL    HW242573   3.456   8.536   5.489 -0.7615 -0.7336 -0.7015
12204SOL     OW42574   1.865   1.794  11.524  0.1863 -0.0007 -0.3984
12204SOL    HW142575   1.810   1.870  11.544  0.9365  0.7088 -0.9499
12204SOL    HW242576   1.857   1.738  11.601 -1.0896  0.2068 -0.3661
12205SOL     OW42577  11.995   5.605   3.592 -0.0761  0.0654 -0.5592
12205SOL    HW142578  11.981   5.671   3.659 -0.6987 -0.1005 -0.5217
12205SOL    HW242579  12.001   5.655   3.510 -1.1390  0.1267 -0.6074
12206SOL     OW42580   8.072  10.617  11.233 -0.2359 -0.0608 -0.2493
12206SOL    HW142581   8.009  10.645  11.166  1.2845  0.7079 -1.4106
12206SOL    HW242582   8.103  10.532  11.202 -0.6579 -0.4234  0.3042
12207SOL     OW42583  11.130  11.175   6.747 -0.3269  1.0345 -0.2683
12207SOL    HW142584  11.210  11.123   6.744 -1.3303 -1.0370  3.2425
12207SOL    HW242585  11.068  11.128   6.690  0.2976  1.5025 -1.3677
12208SOL     OW42586   7.068   7.415   8.694  0.1894 -0.4963  0.1804
12208SOL    HW142587   7.018   7.478   8.642 -0.9072 -0.7832  0.8654
12208SOL    HW242588   7.115   7.469   8.758 -1.4589 -0.3947  1.3683
12209SOL     OW42589   7.091   3.332   3.143  0.1720 -0.2400  0.1386
12209SOL    HW142590   7.026   3.267   3.116  0.1773 -0.3281  0.3387
12209SOL    HW242591   7.175   3.294   3.118  0.1082  0.1913 -0.7847
12210SOL     OW42592  10.205   4.739   9.731 -0.1425 -0.4999 -0.4285
12210SOL    HW142593  10.211   4.790   9.650  1.4706  0.5412  0.3028
12210SOL    HW242594  10.181   4.803   9.798  2.3518 -0.5316  0.5860
12211SOL     OW42595   6.887  10.685   3.311  0.2283 -0.2638  0.0060
12211SOL    HW142596   6.829  10.757   3.286 -0.1533 -0.4751  0.2913
12211SOL    HW242597   6.832  10.625   3.361  0.7673 -0.2957  0.5792
12212SOL     OW42598   6.033   1.911  11.162  0.3248  0.3960  0.2442
12212SOL    HW142599   5.949   1.864  11.161  1.4731 -1.7516  0.1137
12212SOL    HW242600   6.057   1.916  11.254 -1.2073  3.5302  0.5876
12213SOL     OW42601   4.152   7.026  12.058  0.4418 -0.1130 -0.2396
12213SOL    HW142602   4.084   6.961  12.079 -0.6156  0.2863 -2.1485
12213SOL    HW242603   4.153   7.085  12.134  1.1941 -2.1195  1.3917
12214SOL     OW42604   8.977   6.332  10.824  0.4525 -0.1746  0.1281
12214SOL    HW142605   8.978   6.302  10.733  1.6601 -0.0045  0.0679
12214SOL    HW242606   8.955   6.254  10.875 -0.6039 -0.1861 -0.3273
12215SOL     OW42607   2.266   0.575   1.619 -0.5360  0.0160  0.2039
12215SOL    HW142608   2.176   0.544   1.616 -0.6359  0.1973  1.0420
12215SOL    HW242609   2.260   0.670   1.606 -0.6759  0.3293  2.2780
12216SOL     OW42610   5.809   7.976   6.571  0.0667 -0.5889  0.1243
12216SOL    HW142611   5.846   8.003   6.487  0.2896 -1.1603  0.0328
12216SOL    HW242612   5.802   8.057   6.622  2.5551 -0.5885  0.5933
12217SOL     OW42613   3.336   0.322   7.128  0.1239  0.2021 -0.3685
12217SOL    HW142614   3.291   0.309   7.212 -0.0081  0.7220 -0.3555
12217SOL    HW242615   3.270   0.363   7.072 -0.2252 -1.3691 -1.1608
12218SOL     OW42616   3.905   4.347  10.139 -0.1276 -0.3954  0.1908
12218SOL    HW142617   3.835   4.404  10.171 -0.5052 -0.7031 -0.0877
12218SOL    HW242618   3.986   4.393  10.165 -0.3928 -0.9394  2.1878
12219SOL     OW42619   0.128   7.203   8.689 -0.3302  0.6447  0.0386
12219SOL    HW142620   0.183   7.279   8.671  1.6360 -1.0830 -1.8634
12219SOL    HW242621   0.162   7.167   8.771 -1.7145  2.1002  1.3178
12220SOL     OW42622  11.870   3.537  10.610  0.3196 -0.2889  0.3843
12220SOL    HW142623  11.877   3.442  10.624  0.4966 -0.1744  1.1092
12220SOL    HW242624  11.930   3.555  10.538  0.9593 -0.6055  0.8254
12221SOL     OW42625   3.725  11.639   6.484  0.0717  0.4672 -0.3607
12221SOL    HW142626   3.744  11.715   6.429  0.5044  1.1089  0.6382
12221SOL    HW242627   3.789  11.644   6.555 -1.0859  0.2403  0.7486
12222SOL     OW42628   8.837  10.249   1.373 -0.3107 -0.1517 -0.1286
12222SOL    HW142629   8.790  10.196   1.437  0.4166 -1.6008 -0.7558
12222SOL    HW242630   8.772  10.271   1.307 -0.1851 -2.0345 -0.9278
12223SOL     OW42631   2.722   0.829   5.643 -0.6097 -0.8382 -0.3454
12223SOL    HW142632   2.812   0.844   5.674 -0.8324 -0.5732  0.1917
12223SOL    HW242633   2.681   0.777   5.713 -0.9737 -0.6726 -0.4325
12224SOL     OW42634  11.865   4.683   6.669  0.0936 -0.1513 -0.6948
12224SOL    HW142635  11.881   4.615   6.604 -0.4002 -1.3798  0.4283
12224SOL    HW242636  11.830   4.757   6.618  0.4195 -0.8068 -1.9103
12225SOL     OW42637   8.957   0.985  12.423 -0.3125 -0.2894  0.0936
12225SOL    HW142638   8.926   0.972  12.333 -0.5677  1.0586 -0.0281
12225SOL    HW242639   8.933   1.075  12.445 -1.7841 -1.1060  2.1325
12226SOL     OW42640   8.854   4.137   6.124 -0.2684  0.3194 -0.5678
12226SOL    HW142641   8.920   4.078   6.088  0.2608  0.9091 -0.5626
12226SOL    HW242642   8.892   4.224   6.117 -0.6096  0.5657  0.3982
12227SOL     OW42643   4.352   5.819  10.516 -0.4413 -0.1825 -0.1153
12227SOL    HW142644   4.392   5.865  10.442 -0.1680  1.0666  0.7650
12227SOL    HW242645   4.426   5.791  10.569 -0.6515 -0.0853  0.2371
12228SOL     OW42646   3.442   6.276  11.884 -0.1435 -0.8644  0.1798
12228SOL    HW142647   3.509   6.273  11.953 -1.3241  0.6393  1.4911
12228SOL    HW242648   3.360   6.290  11.931 -1.0346  0.0007 -1.5249
12229SOL     OW42649   7.575   1.017  10.307 -0.5878  0.6034  0.4455
12229SOL    HW142650   7.624   1.005  10.225 -0.9555 -1.5205  0.4643
12229SOL    HW242651   7.524   0.936  10.316 -0.3179  0.6319  2.9395
12230SOL     OW42652  10.959  12.392  11.764 -0.3862  0.2457  0.1329
12230SOL    HW142653  11.054  12.392  11.750 -0.0804  1.0435  1.9489
12230SOL    HW242654  10.927  12.323  11.706  1.0965  0.9697 -1.6982
12231SOL     OW42655   7.149   8.895   3.641 -0.2954  0.3904 -0.2385
12231SOL    HW142656   7.176   8.942   3.720 -0.2789 -0.5585  0.3335
12231SOL    HW242657   7.230   8.858   3.606 -0.3701  0.4210 -0.4466
12232SOL     OW42658   8.785   2.457   6.676 -0.1700 -0.4772  0.0038
12232SOL    HW142659   8.817   2.388   6.733  2.1231  0.0283 -0.5630
12232SOL    HW242660   8.864   2.506   6.651 -1.3118  0.4278 -2.1065
12233SOL     OW42661  11.570   5.910   7.786  0.0721 -0.5303  0.0037
12233SOL    HW142662  11.639   5.866   7.835 -0.0562  1.2765  1.9488
12233SOL    HW242663  11.613   5.987   7.748 -0.2984 -0.8092 -1.0017
12234SOL     OW42664   0.556   4.886   7.259  0.6778  0.3163  0.3595
12234SOL    HW142665   0.469   4.906   7.291  0.7759 -0.4324  1.1085
12234SOL    HW242666   0.543   4.860   7.167  0.1610  0.5105  0.3777
12235SOL     OW42667   8.384  11.307   9.618 -0.9202 -0.2243 -0.2538
12235SOL    HW142668   8.437  11.228   9.604 -0.0841  0.2622  0.1185
12235SOL    HW242669   8.365  11.307   9.712  1.9111  1.7220  0.4369
12236SOL     OW42670   6.894   6.565   1.047 -0.0154 -0.3623  0.3865
12236SOL    HW142671   6.990   6.567   1.049  0.0889 -0.5990 -2.0724
12236SOL    HW242672   6.870   6.511   1.122  1.8344 -1.4837  0.2274
12237SOL     OW42673  11.283   9.176   6.376  0.3125 -0.1502  0.4313
12237SOL    HW142674  11.232   9.150   6.453  0.3723  1.4827  1.0653
12237SOL    HW242675  11.361   9.121   6.380 -0.3020 -1.0174  0.7810
12238SOL     OW42676   6.063   5.452   8.232 -0.3348 -0.8982  0.2554
12238SOL    HW142677   5.973   5.473   8.257  0.2151  1.5845  0.4203
12238SOL    HW242678   6.054   5.401   8.151 -1.8827 -1.5265  0.7859
12239SOL     OW42679   8.163   1.887  11.425 -0.2156 -0.0220  0.4974
12239SOL    HW142680   8.145   1.980  11.410 -3.4536 -0.0476  3.1022
12239SOL    HW242681   8.225   1.886  11.498 -0.1586  0.1117  0.4491
12240SOL     OW42682   8.319   2.321   3.128  0.0450 -0.5896 -0.9257
12240SOL    HW142683   8.397   2.359   3.088  0.6888 -0.7945  0.0867
12240SOL    HW242684   8.331   2.337   3.222 -1.2563 -0.3977 -0.7760
12241SOL     OW42685   7.503   3.980  11.612 -0.4229 -0.1086  0.2584
12241SOL    HW142686   7.564   3.952  11.680 -0.6456  1.0609  0.9761
12241SOL    HW242687   7.546   4.055  11.570 -0.8651  0.0143  0.0202
12242SOL     OW42688   3.678   8.716   2.815 -0.1291  0.0134 -0.4084
12242SOL    HW142689   3.711   8.802   2.791 -0.5600 -0.2664 -2.1176
12242SOL    HW242690   3.757   8.665   2.835  0.3740 -0.0249 -2.3187
12243SOL     OW42691   4.419   2.204   5.049  0.2428  0.1881 -0.2936
12243SOL    HW142692   4.433   2.289   5.007 -1.8230  2.0863  2.4654
12243SOL    HW242693   4.431   2.221   5.143 -0.3581 -2.5487  0.3889
12244SOL     OW42694   1.627   6.276  10.729 -0.0960 -0.1263 -0.0473
12244SOL    HW142695   1.577   6.226  10.793  1.1516  0.7150  1.6801
12244SOL    HW242696   1.646   6.214  10.659 -2.8742 -0.6649 -0.4629
12245SOL     OW42697   8.812   6.078   1.020 -0.3157  0.0309  0.1201
12245SOL    HW142698   8.867   6.046   1.091 -1.2858 -0.3918  0.7076
12245SOL    HW242699   8.737   6.119   1.064 -1.3513 -0.9721 -0.6270
12246SOL     OW42700  10.919  11.202   8.800  0.0751  0.2967  0.0401
12246SOL    HW142701  10.991  11.208   8.863 -1.1489 -2.6865  1.9690
12246SOL    HW242702  10.840  11.214   8.853 -0.9437 -0.0434 -1.3436
12247SOL     OW42703   3.240   9.414   4.782  0.1398  0.6236 -0.3079
12247SOL    HW142704   3.192   9.335   4.810  0.7106 -0.0277 -1.1301
12247SOL    HW242705   3.329   9.401   4.815 -0.0612  1.5420  0.6709
12248SOL     OW42706   4.398  10.887   0.539  0.2890 -0.4058  0.1963
12248SOL    HW142707   4.336  10.843   0.481 -0.6001  0.7760  0.2189
12248SOL    HW242708   4.352  10.895   0.623 -0.0917  1.6958 -0.1690
12249SOL     OW42709   8.843   0.170   6.342 -0.2480 -0.5398 -0.0179
12249SOL    HW142710   8.864   0.108   6.272 -0.2120 -1.8437  1.1244
12249SOL    HW242711   8.897   0.144   6.416  0.5621  1.5190  0.2005
12250SOL     OW42712   7.209   4.500   9.419 -0.2538  0.0697  0.2834
12250SOL    HW142713   7.226   4.439   9.490  1.7051  0.7785  0.5079
12250SOL    HW242714   7.122   4.535   9.436 -0.9844 -1.8437  0.7198
12251SOL     OW42715   9.136  10.485   0.322  0.0026 -0.1974  0.2144
12251SOL    HW142716   9.101  10.561   0.276  1.0290 -2.2175 -4.4601
12251SOL    HW242717   9.059  10.433   0.344 -0.4784  0.2068 -0.4856
12252SOL     OW42718   5.085   2.234   5.388  0.0228 -0.0439  0.3740
12252SOL    HW142719   5.051   2.200   5.305 -1.5279  0.9016  0.5739
12252SOL    HW242720   5.179   2.215   5.385 -0.2495 -1.3801 -0.9195
12253SOL     OW42721   0.413  11.068   6.991  0.2413 -0.8683 -0.0042
12253SOL    HW142722   0.498  11.041   7.026  0.3801 -0.2782  0.1221
12253SOL    HW242723   0.359  10.989   6.996  0.8989 -1.3612 -0.4656
12254SOL     OW42724   7.121   2.065   0.927  0.1153 -0.0335 -0.1073
12254SOL    HW142725   7.040   2.017   0.937  0.4744 -0.4535  0.8688
12254SOL    HW242726   7.096   2.147   0.884 -0.4585 -1.1935 -2.1130
12255SOL     OW42727   8.766   4.874   3.605 -0.3601  0.0057  0.4109
12255SOL    HW142728   8.758   4.965   3.576 -2.0463 -0.8639 -2.2129
12255SOL    HW242729   8.859   4.854   3.594 -0.1889  1.0593 -0.2632
12256SOL     OW42730   1.325   0.424   2.067  0.4263 -0.2449 -0.1459
12256SOL    HW142731   1.382   0.496   2.091 -0.6629 -0.0737  2.1385
12256SOL    HW242732   1.380   0.346   2.076  0.7518  0.0457  0.4411
12257SOL     OW42733   8.032   0.325  11.413  0.3552 -0.2738  0.0935
12257SOL    HW142734   7.947   0.312  11.456 -0.1573 -2.0721 -1.3376
12257SOL    HW242735   8.095   0.283  11.471 -0.2216 -1.9664 -0.4441
12258SOL     OW42736   0.037   6.120   7.764  0.3950 -0.2223 -0.3345
12258SOL    HW142737   0.062   6.207   7.796 -0.6257 -0.8263  2.2987
12258SOL    HW242738   0.116   6.086   7.722  1.6324  0.9195  0.9689
12259SOL     OW42739   7.907   8.145   1.987  0.2864  0.5415 -0.0266
12259SOL    HW142740   7.840   8.154   2.055  0.2836  1.0822 -0.0949
12259SOL    HW242741   7.973   8.211   2.009  0.0701  1.0307 -0.7943
12260SOL     OW42742   9.621  10.916   4.647  0.5227  0.2096  0.5034
12260SOL    HW142743   9.665  10.838   4.613  1.7839  0.5040  1.3755
12260SOL    HW242744   9.569  10.884   4.720  2.6653  0.4019  2.2213
12261SOL     OW42745   1.366  11.702   7.571 -0.1891  0.2658  0.6438
12261SOL    HW142746   1.282  11.749   7.569 -0.1999  0.2343 -0.2526
12261SOL    HW242747   1.427  11.764   7.612  0.2422  1.9031 -2.1953
12262SOL     OW42748   8.425   6.262  10.981  0.4915  0.0423 -0.4540
12262SOL    HW142749   8.398   6.272  11.072 -0.0396  1.2978 -0.7325
12262SOL    HW242750   8.502   6.206  10.985 -0.6058 -1.5102  0.5989
12263SOL     OW42751   1.273   3.255  11.755 -0.0217 -0.3021 -0.6306
12263SOL    HW142752   1.343   3.243  11.819 -1.6468  0.6909  1.4580
12263SOL    HW242753   1.203   3.300  11.804 -1.3531  0.5282 -3.1256
12264SOL     OW42754   9.680   6.660   5.101  0.1159 -0.0182  0.1341
12264SOL    HW142755   9.689   6.703   5.017 -0.1826  0.2635  0.2455
12264SOL    HW242756   9.593   6.686   5.133 -0.7300 -1.9297 -0.4878
12265SOL     OW42757   8.025   6.169   0.907 -0.0557 -0.2244 -0.1724
12265SOL    HW142758   7.980   6.113   0.970  3.5047 -1.2686  1.7117
12265SOL    HW242759   8.017   6.123   0.823  0.2867 -2.0777  0.7672
12266SOL     OW42760   8.845   2.477   4.979 -0.1926 -0.3237  0.5462
12266SOL    HW142761   8.788   2.401   4.980 -0.3039 -0.2832 -0.9127
12266SOL    HW242762   8.789   2.549   5.009 -0.0035 -0.8374  2.2271
12267SOL     OW42763   1.889   8.284  11.994 -0.4834 -0.8245  0.0521
12267SOL    HW142764   1.881   8.223  11.920  0.2143 -0.2422 -0.5130
12267SOL    HW242765   1.842   8.241  12.066 -0.6375 -1.6809 -0.5527
12268SOL     OW42766   4.406   4.582   2.201  0.1502  0.2540 -0.0305
12268SOL    HW142767   4.417   4.642   2.127  0.1532 -0.6146 -0.7424
12268SOL    HW242768   4.488   4.533   2.205  0.0878  0.1827  0.4579
12269SOL     OW42769  10.287   6.970   3.532  0.1987  0.2249 -0.0038
12269SOL    HW142770  10.346   6.932   3.466 -0.7076  0.6686 -1.1088
12269SOL    HW242771  10.203   6.926   3.516 -0.0563  0.3961  0.8194
12270SOL     OW42772   6.268   3.500  10.563 -0.7970 -0.2627  0.0424
12270SOL    HW142773   6.247   3.442  10.636 -0.9265 -1.6970 -1.0921
12270SOL    HW242774   6.197   3.486  10.500 -0.9102  1.2581 -0.2074
12271SOL     OW42775   9.541  10.830   4.053  0.2342 -0.0846  0.0092
12271SOL    HW142776   9.536  10.765   3.983  0.9842  0.6364 -0.7442
12271SOL    HW242777   9.478  10.800   4.119 -0.9855 -0.4226 -1.2673
12272SOL     OW42778  10.245   5.792   1.541 -0.4549  0.3564 -0.4615
12272SOL    HW142779  10.290   5.738   1.476  1.8262  2.0936 -0.4546
12272SOL    HW242780  10.196   5.856   1.489 -1.2386 -0.2000 -0.4393
12273SOL     OW42781   9.450  12.221   3.736  0.3255  0.5225 -0.1277
12273SOL    HW142782   9.450  12.188   3.646 -0.5086 -0.8780  0.3401
12273SOL    HW242783   9.430  12.314   3.727 -0.3762  0.2859 -1.3670
12274SOL     OW42784   7.860   0.099  11.853 -0.3461 -0.0646 -0.1015
12274SOL    HW142785   7.773   0.139  11.844  0.1208  0.8440 -0.8353
12274SOL    HW242786   7.892   0.091  11.763  1.0980  1.4085  0.2175
12275SOL     OW42787   5.542   9.109  10.324 -0.0511  0.2762  0.0553
12275SOL    HW142788   5.453   9.107  10.289  1.0991 -1.5563 -3.2194
12275SOL    HW242789   5.540   9.179  10.390 -4.2775 -0.8424  1.4864
12276SOL     OW42790  11.041   7.531   5.091  0.6166 -0.5567  0.0683
12276SOL    HW142791  11.058   7.525   5.185 -0.7664 -0.3101  0.3555
12276SOL    HW242792  11.095   7.604   5.062  0.2190  0.0831  0.8939
12277SOL     OW42793   1.724  10.942  10.925 -0.5653 -0.1508  0.2864
12277SOL    HW142794   1.633  10.936  10.895  0.0026 -1.3300 -1.3176
12277SOL    HW242795   1.763  11.009  10.868  0.3844 -2.0188 -1.3509
12278SOL     OW42796  11.558  12.485   7.954 -0.1166  0.2110  0.1038
12278SOL    HW142797  11.571  12.430   8.031  0.7826  0.3734  0.0827
12278SOL    HW242798  11.514  12.428   7.890 -0.6412  0.0051  0.6445
12279SOL     OW42799   0.897   1.316   2.834 -0.1916 -0.4971 -0.4287
12279SOL    HW142800   0.876   1.403   2.868  1.5943  0.0419 -0.6230
12279SOL    HW242801   0.812   1.272   2.828 -0.8503  0.1491  2.5554
12280SOL     OW42802   8.504   8.584   2.323  0.0096  0.6641 -0.6093
12280SOL    HW142803   8.477   8.675   2.313  0.1249  0.5963 -1.7565
12280SOL    HW242804   8.528   8.576   2.415  2.9352  2.6302 -1.0663
12281SOL     OW42805   2.095   3.050   8.811  0.0435 -0.2919  0.1236
12281SOL    HW142806   2.108   2.958   8.787 -1.5370 -1.2757  2.6426
12281SOL    HW242807   2.010   3.073   8.774  1.1834  0.7958 -1.9962
12282SOL     OW42808   0.720   0.132   0.731  0.9352 -0.5285 -0.3049
12282SOL    HW142809   0.814   0.133   0.749  1.1668  0.1311 -1.4362
12282SOL    HW242810   0.679   0.144   0.817  1.8807 -0.5420  0.1638
12283SOL     OW42811   2.526   7.790   0.975 -0.0008 -0.3142 -0.8143
12283SOL    HW142812   2.608   7.741   0.967 -0.4754 -1.0578 -1.3205
12283SOL    HW242813   2.491   7.791   0.886 -0.5834 -0.0897 -0.5827
12284SOL     OW42814   0.558  11.123   0.981 -0.1212 -0.2219 -0.4734
12284SOL    HW142815   0.495  11.195   0.985 -0.5498 -0.5716 -0.7849
12284SOL    HW242816   0.633  11.159   0.933  0.0963  0.3254  0.2583
12285SOL     OW42817   8.701   2.822   2.088  0.1913 -0.0546 -0.4439
12285SOL    HW142818   8.788   2.847   2.122 -0.2937  1.1439 -0.0163
12285SOL    HW242819   8.665   2.904   2.054 -2.0967  0.2235  2.3202
12286SOL     OW42820   4.256   6.585  10.689  0.2274  0.3321 -0.2559
12286SOL    HW142821   4.177   6.578  10.636 -0.0490 -1.5516  0.3388
12286SOL    HW242822   4.322   6.620  10.629 -0.4763 -0.2607 -1.4107
12287SOL     OW42823  12.320   4.114   7.604  0.3681 -0.1094  0.0991
12287SOL    HW142824  12.308   4.042   7.666  0.0585 -2.0318 -2.0796
12287SOL    HW242825  12.410   4.103   7.571  0.3396  0.5418 -0.2234
12288SOL     OW42826   7.848   4.072   9.585  0.1503  0.3095 -0.1212
12288SOL    HW142827   7.789   4.136   9.544 -0.2901 -0.2938 -0.4564
12288SOL    HW242828   7.815   4.063   9.674 -0.6080 -0.4186 -0.4636
12289SOL     OW42829   0.833   2.754  12.392 -0.1466 -0.9057  0.2764
12289SOL    HW142830   0.775   2.715  12.458 -0.2735 -0.0188  0.7057
12289SOL    HW242831   0.847   2.685  12.328 -0.7751 -1.4877  0.7574
12290SOL     OW42832   4.548  11.114   0.798 -0.0863 -0.2242 -0.4181
12290SOL    HW142833   4.461  11.081   0.819 -0.5730  0.7362 -0.8625
12290SOL    HW242834   4.534  11.174   0.724  1.1196 -0.9888 -1.3009
12291SOL     OW42835  11.698   8.368   8.934 -0.3461 -0.3465  0.0223
12291SOL    HW142836  11.629   8.434   8.946  0.1264  0.0370  0.6244
12291SOL    HW242837  11.652   8.294   8.892 -1.0665  0.0064  0.1660
12292SOL     OW42838   7.880   2.035   8.533  0.3382  0.0055 -0.2958
12292SOL    HW142839   7.943   1.987   8.480  0.5066 -0.9118  0.7018
12292SOL    HW242840   7.795   2.016   8.493  0.5415  0.0687 -0.7686
12293SOL     OW42841   1.206   9.855   1.449 -0.2497  0.0615  0.0369
12293SOL    HW142842   1.130   9.814   1.491 -1.4357 -0.7466 -2.7078
12293SOL    HW242843   1.204   9.945   1.480 -0.7679 -0.5789  2.0228
12294SOL     OW42844   6.341   5.872   5.679  0.7375 -0.1977 -0.0079
12294SOL    HW142845   6.328   5.868   5.584 -1.4810  1.5154  0.1323
12294SOL    HW242846   6.278   5.810   5.715  0.4973  0.2734  0.3943
12295SOL     OW42847   3.702   2.897  12.110  0.0177 -0.1745  0.1005
12295SOL    HW142848   3.765   2.963  12.140 -0.7588  1.1223 -1.0394
12295SOL    HW242849   3.745   2.814  12.130  0.9568  0.6352  1.7254
12296SOL     OW42850   1.095   4.595  11.061  0.1518 -0.6630 -0.1081
12296SOL    HW142851   1.100   4.602  11.156 -0.1124 -1.7355 -0.0072
12296SOL    HW242852   1.163   4.532  11.037  1.0049  0.4500 -0.7650
12297SOL     OW42853  12.159  11.924  10.612  0.1467  0.3396  0.0884
12297SOL    HW142854  12.249  11.893  10.602 -0.2224 -0.7913  0.0907
12297SOL    HW242855  12.158  11.968  10.697  0.7564  0.5866 -0.0279
12298SOL     OW42856   9.825   0.962   6.726  0.0904  0.4017 -0.8172
12298SOL    HW142857   9.872   1.045   6.738 -1.5499  1.2537  0.1828
12298SOL    HW242858   9.795   0.939   6.814  1.3382 -1.8191 -0.9163
12299SOL     OW42859   0.757   2.941   7.175 -0.7404  0.4538 -0.2497
12299SOL    HW142860   0.766   3.006   7.245  0.6900  0.1115 -0.0972
12299SOL    HW242861   0.734   2.993   7.097 -0.8132  1.0039  0.1336
12300SOL     OW42862   3.335  12.030   4.658 -0.0313 -0.0201  0.4698
12300SOL    HW142863   3.380  11.961   4.609 -0.4257  0.0083  0.0559
12300SOL    HW242864   3.390  12.046   4.734  0.2567 -0.5266  0.3688
12301SOL     OW42865   6.534   9.118   9.427 -0.1833 -0.3864  0.2454
12301SOL    HW142866   6.483   9.119   9.508 -1.1182 -1.5073 -0.2904
12301SOL    HW242867   6.503   9.039   9.381  0.6642 -0.0275 -0.9803
12302SOL     OW42868   3.108  12.427   0.692 -0.3308  0.1602  0.1392
12302SOL    HW142869   3.194  12.424   0.650 -0.5008 -0.8482 -0.1630
12302SOL    HW242870   3.124  12.404   0.783 -0.5126 -2.0202 -0.3384
12303SOL     OW42871   9.440  10.743   1.703 -0.1984  0.3195  0.0091
12303SOL    HW142872   9.476  10.816   1.653 -0.0923  0.1150 -0.2114
12303SOL    HW242873   9.487  10.745   1.786  2.0151 -1.3401 -1.0981
12304SOL     OW42874   8.989   1.062  11.352  0.6636 -0.4546 -0.0772
12304SOL    HW142875   8.964   1.096  11.438 -1.1429 -1.3035 -0.2180
12304SOL    HW242876   8.959   0.972  11.352  2.1345 -0.9851 -1.0231
12305SOL     OW42877   5.016   3.045   7.036 -0.2236  0.2659 -0.5454
12305SOL    HW142878   4.966   3.123   7.060  0.4397  0.4211  0.4210
12305SOL    HW242879   5.031   3.054   6.942 -2.0472  0.1623 -0.8736
12306SOL     OW42880   2.753   4.160   2.908  0.2623 -0.0796 -0.4985
12306SOL    HW142881   2.680   4.163   2.970  0.9599  0.9514  0.3248
12306SOL    HW242882   2.714   4.181   2.823 -0.4329  0.2771 -0.1003
12307SOL     OW42883  10.862   9.004  11.066 -0.7293 -0.6274  0.3035
12307SOL    HW142884  10.780   8.983  11.023 -1.1046  0.5688  0.3920
12307SOL    HW242885  10.900   8.919  11.089 -0.3030 -1.3671 -2.7172
12308SOL     OW42886   8.307   7.076  10.950  0.5070  0.0371  0.0184
12308SOL    HW142887   8.336   7.031  11.030 -0.2339 -0.5289 -0.0243
12308SOL    HW242888   8.365   7.043  10.882  0.3372 -0.4211  0.0950
12309SOL     OW42889   3.802   1.488   7.890 -0.1470 -0.0178  0.2728
12309SOL    HW142890   3.711   1.458   7.890 -0.1747  0.0687  0.6466
12309SOL    HW242891   3.811   1.539   7.970 -0.2452  1.4488 -0.6195
12310SOL     OW42892  11.950   7.929   4.990 -0.6163  0.3274  0.1083
12310SOL    HW142893  11.950   7.983   4.911 -1.5427  0.2887  0.0784
12310SOL    HW242894  11.873   7.873   4.981 -0.2905 -0.2274  0.6720
12311SOL     OW42895  10.355   6.952   0.089  0.0996 -0.1656  0.3181
12311SOL    HW142896  10.441   6.924   0.119 -0.4859 -1.4793  0.8591
12311SOL    HW242897  10.343   7.039   0.127  0.4049 -0.7726  1.8485
12312SOL     OW42898  11.974   6.953  11.460 -0.1261  0.1790 -0.2785
12312SOL    HW142899  11.888   6.974  11.424 -0.4790  0.3693  0.6570
12312SOL    HW242900  12.026   6.928  11.384 -1.5640 -1.8413 -0.6809
12313SOL     OW42901   3.393   1.296   1.431  0.2532  0.4063  0.0781
12313SOL    HW142902   3.334   1.244   1.485 -0.1191  1.9933  1.2909
12313SOL    HW242903   3.334   1.344   1.372  0.5954 -0.5611 -1.0828
12314SOL     OW42904  10.126   2.918   3.652 -0.8841  0.1892  0.1708
12314SOL    HW142905  10.051   2.863   3.674  0.3832 -0.9203  1.9439
12314SOL    HW242906  10.190   2.902   3.722 -0.3953  3.8991  0.7824
12315SOL     OW42907   2.155   8.173   4.903 -0.2827 -0.6833  0.3234
12315SOL    HW142908   2.126   8.081   4.902  0.2586 -0.8621 -0.5555
12315SOL    HW242909   2.097   8.216   4.965  0.4348 -1.9314  1.9470
12316SOL     OW42910   5.467  10.027   0.873  0.5057 -0.2039  0.1142
12316SOL    HW142911   5.490   9.944   0.915  0.5688 -0.5000 -0.4845
12316SOL    HW242912   5.463  10.090   0.944  2.0077 -0.3904  0.4113
12317SOL     OW42913  10.062  11.560   9.614  0.3164 -0.3373  0.8658
12317SOL    HW142914  10.154  11.566   9.586 -0.5720  1.3240 -2.1352
12317SOL    HW242915  10.033  11.475   9.582  0.5895 -0.5306  1.1245
12318SOL     OW42916   5.248   8.717   5.133 -0.2535  0.2695  0.3186
12318SOL    HW142917   5.221   8.629   5.159  1.9872 -0.4554  0.3401
12318SOL    HW242918   5.188   8.775   5.180 -1.2715 -1.1966  0.9101
12319SOL     OW42919   8.926  11.938   0.189 -0.2684 -0.3205  0.0405
12319SOL    HW142920   8.970  11.869   0.240 -0.0480  0.7108  1.2916
12319SOL    HW242921   8.836  11.937   0.221  0.1137  1.0139  1.2289
12320SOL     OW42922   1.394   0.077  11.590  0.5399  0.3016  0.1399
12320SOL    HW142923   1.320   0.016  11.590  1.2264 -0.5905 -1.1745
12320SOL    HW242924   1.356   0.161  11.564 -0.2419  0.2163  0.9443
12321SOL     OW42925   9.661   9.889   4.926  0.7853 -0.1771  0.1751
12321SOL    HW142926   9.614   9.946   4.865  1.0957 -0.4162 -0.2967
12321SOL    HW242927   9.673   9.807   4.877 -1.5265 -1.4546  1.5438
12322SOL     OW42928   5.696   3.889   8.225 -0.0881 -0.6142  0.2686
12322SOL    HW142929   5.760   3.932   8.281  0.9605  0.8827 -1.9319
12322SOL    HW242930   5.729   3.799   8.214  1.2556 -0.0871 -0.1969
12323SOL     OW42931  10.044   6.696   1.141 -0.1459 -0.6133  0.5590
12323SOL    HW142932  10.052   6.630   1.210 -0.4106 -0.5723  0.6309
12323SOL    HW242933  10.071   6.777   1.182  2.7344 -1.0642 -0.2255
12324SOL     OW42934   5.569   1.591   1.724 -0.3718  0.1608 -0.1377
12324SOL    HW142935   5.657   1.555   1.726 -0.4957 -0.1282  0.7658
12324SOL    HW242936   5.517   1.530   1.777 -1.1667  0.1881 -0.8645
12325SOL     OW42937   9.424   5.566  10.512  0.1412 -0.6495 -0.0058
12325SOL    HW142938   9.442   5.571  10.606  0.5012  0.9209 -0.1264
12325SOL    HW242939   9.509   5.578  10.470 -0.0007 -1.4363 -0.5526
12326SOL     OW42940   5.070   6.343   1.550  0.5425 -0.6124  0.3763
12326SOL    HW142941   5.110   6.310   1.470 -0.0219 -0.2521 -0.0564
12326SOL    HW242942   4.983   6.371   1.524  0.2281 -0.8097  1.1872
12327SOL     OW42943   9.375  10.482   1.297 -0.1773  0.9853 -0.4227
12327SOL    HW142944   9.396  10.475   1.204 -0.5516  1.2031 -0.5256
12327SOL    HW242945   9.321  10.405   1.316  2.3453 -0.7161  0.3179
12328SOL     OW42946   9.564   7.497   9.850  0.1472 -0.1413  0.0186
12328SOL    HW142947   9.593   7.451   9.771 -0.8323  0.6616 -0.8332
12328SOL    HW242948   9.499   7.439   9.890  1.6350 -1.1793  1.0218
12329SOL     OW42949   1.233   7.507   6.754 -0.3301  0.2620  0.3283
12329SOL    HW142950   1.310   7.459   6.724 -0.2021  1.4993 -1.4466
12329SOL    HW242951   1.160   7.448   6.737  0.1235 -0.6666  1.4418
12330SOL     OW42952   4.963   9.365   2.462  0.3809 -0.4490 -0.5652
12330SOL    HW142953   4.912   9.285   2.475 -1.8001  0.9925  0.4640
12330SOL    HW242954   5.048   9.347   2.502 -0.3556 -1.9656  0.3879
12331SOL     OW42955   5.025   4.194   5.509 -0.0687  0.0185  0.1480
12331SOL    HW142956   5.037   4.199   5.414 -0.6747 -1.9412 -0.0786
12331SOL    HW242957   4.977   4.274   5.531 -1.0310 -0.0854 -1.4049
12332SOL     OW42958   3.445   4.326   1.095  0.1944  0.2001  0.9678
12332SOL    HW142959   3.374   4.390   1.091 -0.1852 -0.2738 -0.2891
12332SOL    HW242960   3.438   4.277   1.013 -0.0210 -1.9834  2.2189
12333SOL     OW42961   1.172   4.088  10.126  0.2621 -0.2702 -0.2467
12333SOL    HW142962   1.160   4.046  10.211 -0.4985  1.1401  0.3952
12333SOL    HW242963   1.133   4.027  10.063 -2.2072  0.0726  0.8153
12334SOL     OW42964   5.688   9.131   6.318 -0.5475  0.3811 -0.0121
12334SOL    HW142965   5.733   9.143   6.234 -1.5151  1.8111 -0.3586
12334SOL    HW242966   5.668   9.038   6.321  0.2738  0.1529 -0.9588
12335SOL     OW42967  12.175   0.263   4.426  0.1515 -0.4169 -0.1469
12335SOL    HW142968  12.159   0.171   4.402 -0.0733  0.1618 -2.3696
12335SOL    HW242969  12.088   0.302   4.427  0.3528  0.0389 -0.4021
12336SOL     OW42970   3.045   8.613   0.221  0.5194 -0.1083  0.2079
12336SOL    HW142971   2.967   8.562   0.196 -1.0627  2.2885 -0.0707
12336SOL    HW242972   3.026   8.643   0.310  2.7205 -2.2746  1.5098
12337SOL     OW42973  11.109  10.752   2.386  0.0929 -0.6108 -0.4173
12337SOL    HW142974  11.043  10.819   2.366  1.1391  0.4864 -0.3223
12337SOL    HW242975  11.059  10.680   2.424 -1.0902  0.0408 -0.6706
12338SOL     OW42976   9.126   0.409   4.456 -0.4555  0.6851  0.2042
12338SOL    HW142977   9.063   0.410   4.528  0.1759  1.5910  0.7719
12338SOL    HW242978   9.100   0.482   4.400  0.3783  1.4030  0.7238
12339SOL     OW42979  12.286   6.756   7.507 -0.1011 -0.2658  0.7918
12339SOL    HW142980  12.357   6.694   7.491  0.4928  0.2785  1.2752
12339SOL    HW242981  12.236   6.757   7.426  0.7636 -0.2404  0.2489
12340SOL     OW42982   0.839  10.826  10.630  0.2585 -0.4722  0.0127
12340SOL    HW142983   0.934  10.834  10.619 -0.0559  0.3697 -3.1530
12340SOL    HW242984   0.814  10.906  10.677  0.9207  0.6029 -1.3646
12341SOL     OW42985   6.549  10.930  11.552 -0.6885  0.3646  0.3346
12341SOL    HW142986   6.623  10.874  11.531 -0.5717  0.0622  1.5284
12341SOL    HW242987   6.476  10.892  11.502 -0.4356 -0.3764  0.5194
12342SOL     OW42988   7.463   9.853   4.285  0.6015  0.0066  0.2870
12342SOL    HW142989   7.485   9.856   4.192 -0.1301  0.7987  0.1287
12342SOL    HW242990   7.481   9.942   4.317  0.6351 -0.1997  0.8499
12343SOL     OW42991   0.638   7.316   2.845 -0.1305 -0.8026  0.4164
12343SOL    HW142992   0.613   7.245   2.786  1.2357 -1.1303  0.2123
12343SOL    HW242993   0.724   7.343   2.815  0.3522 -0.6034  1.9151
12344SOL     OW42994   6.376  10.281   6.252 -0.5898 -0.2134 -0.1781
12344SOL    HW142995   6.344  10.256   6.166  2.1861 -0.6758 -1.1870
12344SOL    HW242996   6.300  10.318   6.297 -2.2028 -0.3119 -2.6647
12345SOL     OW42997   1.353   0.340  11.523 -0.2831 -0.2418  0.5888
12345SOL    HW142998   1.279   0.400  11.529 -0.0623  0.0547  0.3866
12345SOL    HW242999   1.416   0.373  11.588  0.0070 -0.0125  0.1938
12346SOL     OW43000  10.873   8.551   1.248  0.1634 -0.0146  0.4295
12346SOL    HW143001  10.806   8.518   1.189 -0.3420 -0.0899  1.0373
12346SOL    HW243002  10.946   8.489   1.239 -0.6422 -1.1108  1.2970
12347SOL     OW43003   7.376   8.550  10.593  0.1100 -0.2325  0.4945
12347SOL    HW143004   7.300   8.501  10.561  0.7592 -1.7137  1.1367
12347SOL    HW243005   7.448   8.522  10.537  0.6767 -0.7159  1.4506
12348SOL     OW43006   3.119   4.890  11.211  0.3857  0.2010 -0.0596
12348SOL    HW143007   3.072   4.944  11.275 -0.9834 -0.6819 -0.2867
12348SOL    HW243008   3.191   4.947  11.180  1.8995  0.2245  3.1270
12349SOL     OW43009  11.578  10.111   8.434 -0.0523  0.3796  0.3985
12349SOL    HW143010  11.631  10.177   8.390 -0.9078  0.6821 -0.2022
12349SOL    HW243011  11.562  10.148   8.521  1.9000 -0.3580  1.1322
12350SOL     OW43012   0.843  11.931   3.851  0.0305 -0.0398  0.1114
12350SOL    HW143013   0.817  12.005   3.797 -2.2365  0.1764  1.3644
12350SOL    HW243014   0.775  11.866   3.836  0.5572 -0.8238  1.0410
12351SOL     OW43015   1.369   0.605   1.248 -0.4556  0.2968 -0.0074
12351SOL    HW143016   1.385   0.570   1.160  1.1530 -0.4895  0.5540
12351SOL    HW243017   1.448   0.581   1.298 -0.9079  1.5786  1.3906
12352SOL     OW43018   1.824  10.900   5.542  0.0058  0.6301  0.2103
12352SOL    HW143019   1.767  10.835   5.584  1.1032 -0.9744 -0.6980
12352SOL    HW243020   1.787  10.912   5.455  0.2070  0.7197  0.1366
12353SOL     OW43021   2.620  10.789  11.415 -0.2023  0.3383 -0.4277
12353SOL    HW143022   2.602  10.695  11.417 -1.6009  0.3896 -3.6207
12353SOL    HW243023   2.590  10.821  11.499  1.5858 -2.2018  1.3289
12354SOL     OW43024   3.110   2.021  10.949 -0.2851 -0.0452  0.6269
12354SOL    HW143025   3.024   1.987  10.924  0.3978 -1.8387  0.5361
12354SOL    HW243026   3.165   2.006  10.873  0.3482  0.1581  1.0343
12355SOL     OW43027   8.004   7.077   2.028  0.6961  0.6942  0.9653
12355SOL    HW143028   7.976   7.096   2.117 -1.0572  3.7982 -0.0977
12355SOL    HW243029   7.956   7.139   1.973  2.2142 -0.5904 -2.1102
12356SOL     OW43030   5.373  10.688   2.095 -0.3117 -0.2044 -0.1060
12356SOL    HW143031   5.318  10.619   2.131  0.5194 -0.9662 -0.2484
12356SOL    HW243032   5.456  10.680   2.143 -0.0552  0.4017 -0.4382
12357SOL     OW43033  12.403   4.604   1.422 -0.3717  1.1324 -0.3194
12357SOL    HW143034  12.439   4.633   1.506 -0.4659  0.1954  0.0561
12357SOL    HW243035  12.479   4.572   1.373 -0.5391 -0.0247  0.1334
12358SOL     OW43036   4.128   5.183  10.963 -0.3762  0.0631  0.4373
12358SOL    HW143037   4.116   5.164  11.056 -0.0839  1.3765  0.7702
12358SOL    HW243038   4.205   5.240  10.961  1.0266 -1.7840 -0.8444
12359SOL     OW43039  12.324  10.131   9.874 -0.6414  0.2698 -0.6908
12359SOL    HW143040  12.332  10.143   9.779  0.0287  0.5977 -0.5945
12359SOL    HW243041  12.335  10.218   9.911  1.1662 -0.1243 -0.1873
12360SOL     OW43042   7.908   0.291   2.032  0.0018  0.1821 -0.5414
12360SOL    HW143043   7.974   0.291   2.102 -1.5970 -2.5725  1.1661
12360SOL    HW243044   7.948   0.242   1.961  0.2125 -0.5775  0.0827
12361SOL     OW43045   5.872  11.865   3.248  0.9458  0.1487  0.0550
12361SOL    HW143046   5.951  11.822   3.215  0.7190 -0.5328  0.3772
12361SOL    HW243047   5.894  11.958   3.249  0.6831  0.3326 -2.7786
12362SOL     OW43048   2.761   0.548   1.802 -0.1889 -0.0035  0.1194
12362SOL    HW143049   2.843   0.501   1.790 -1.2390 -1.5695 -1.5362
12362SOL    HW243050   2.752   0.600   1.722 -1.2712 -0.6583 -0.2037
12363SOL     OW43051   7.105   8.777   3.172  0.2474 -0.2943 -0.3277
12363SOL    HW143052   7.045   8.788   3.246  0.7095 -0.1816  0.0348
12363SOL    HW243053   7.146   8.692   3.188  1.8772  0.6315  0.6768
12364SOL     OW43054   5.704   6.369   3.148  0.3155  0.3954  0.5499
12364SOL    HW143055   5.624   6.419   3.163  0.3375  0.3315  0.8858
12364SOL    HW243056   5.737   6.402   3.064  1.4399  2.4462  1.7234
12365SOL     OW43057   2.290   9.541   1.496  0.2601 -0.4780  0.7584
12365SOL    HW143058   2.245   9.500   1.422 -1.3619 -1.9023  2.4278
12365SOL    HW243059   2.275   9.481   1.569 -0.1568  1.9427  2.8032
12366SOL     OW43060   6.858   5.692  11.113 -0.6262  0.2735  0.2427
12366SOL    HW143061   6.828   5.727  11.029 -0.7389 -0.6629 -0.1205
12366SOL    HW243062   6.828   5.601  11.113  3.1259 -1.1614 -0.6915
12367SOL     OW43063   0.505   1.707   3.777 -0.0593  0.4923  0.0711
12367SOL    HW143064   0.434   1.682   3.836  0.2865 -2.1462 -0.5033
12367SOL    HW243065   0.578   1.732   3.835 -0.5298  0.4334  0.6927
12368SOL     OW43066   0.489  11.663   8.334  0.2013 -0.2582 -0.4516
12368SOL    HW143067   0.536  11.747   8.327  2.3241 -1.3668 -0.1428
12368SOL    HW243068   0.518  11.613   8.257 -1.0555 -0.7483 -0.6383
12369SOL     OW43069   4.172  11.364   7.963  0.2981  0.6129  0.7313
12369SOL    HW143070   4.233  11.290   7.965 -0.3154  0.1066  0.8419
12369SOL    HW243071   4.223  11.435   7.925  0.1964 -0.4998 -1.6510
12370SOL     OW43072   0.748  10.612   0.820  0.1823  0.4485  0.4989
12370SOL    HW143073   0.722  10.582   0.733  1.4158  0.5424  0.0701
12370SOL    HW243074   0.769  10.705   0.807 -1.7235  1.0491  1.3893
12371SOL     OW43075   2.208   0.993   5.250  0.6963  0.1079  0.1259
12371SOL    HW143076   2.272   1.057   5.221  0.4718 -0.2458 -1.2163
12371SOL    HW243077   2.137   0.999   5.186 -0.2932  0.0051  1.1867
12372SOL     OW43078   5.828   3.437   0.303 -0.6820 -0.0138 -0.3737
12372SOL    HW143079   5.905   3.404   0.349 -0.1685  1.8333  0.1912
12372SOL    HW243080   5.775   3.359   0.284 -0.5770 -0.9551  2.7019
12373SOL     OW43081   1.995   1.197  11.824  0.0538 -0.5300 -0.1079
12373SOL    HW143082   1.999   1.134  11.897  0.4391  1.1237  1.3635
12373SOL    HW243083   2.085   1.229  11.816 -0.5464  1.5420  0.7875
12374SOL     OW43084   4.526   6.720  11.588 -0.6192 -0.1979  0.0396
12374SOL    HW143085   4.525   6.701  11.494  0.2190 -0.9950  0.1771
12374SOL    HW243086   4.525   6.816  11.593 -0.1842 -0.1386 -0.7936
12375SOL     OW43087  12.482  10.471   4.772 -0.1610 -0.6278  0.1737
12375SOL    HW143088  12.548  10.535   4.744  0.2994 -0.7477  0.9670
12375SOL    HW243089  12.420  10.521   4.824  0.1167 -0.7931  0.6686
12376SOL     OW43090   3.736   9.722   5.658 -0.1273 -0.0333 -0.2749
12376SOL    HW143091   3.758   9.797   5.603 -0.5980  0.3849  0.0983
12376SOL    HW243092   3.750   9.753   5.747  1.4451 -0.9651 -0.1620
12377SOL     OW43093   0.515   0.089   1.810 -0.4859 -0.5772  0.2264
12377SOL    HW143094   0.440   0.094   1.870 -1.2035 -0.1802 -0.6942
12377SOL    HW243095   0.511  -0.000   1.775 -1.6703  0.0060 -1.2395
12378SOL     OW43096   7.695   7.876  12.047 -0.6674  0.4525  0.1157
12378SOL    HW143097   7.781   7.835  12.048  0.5218  2.7375 -0.9799
12378SOL    HW243098   7.637   7.810  12.009  1.0151 -0.4290 -1.0529
12379SOL     OW43099   2.581   8.856   4.306 -0.2160  0.1108  0.0764
12379SOL    HW143100   2.620   8.923   4.250 -0.7730  0.8728  0.5703
12379SOL    HW243101   2.507   8.823   4.255 -0.7090  0.7871  0.3390
12380SOL     OW43102  11.936   7.207   1.986  0.1095 -0.0104  0.4062
12380SOL    HW143103  11.862   7.157   1.953 -0.1176 -0.3814  1.4449
12380SOL    HW243104  11.898   7.274   2.042  0.4387  1.1113 -0.6797
12381SOL     OW43105   6.683   7.556   0.440 -0.4974 -0.7745 -0.3436
12381SOL    HW143106   6.622   7.563   0.513 -0.2144  0.1536 -0.1840
12381SOL    HW243107   6.635   7.590   0.364 -0.0495  0.4240 -0.1224
12382SOL     OW43108  10.116   6.066   2.708  0.4298  0.3352 -0.0932
12382SOL    HW143109  10.184   6.010   2.745 -0.0106  0.1824  0.5226
12382SOL    HW243110  10.088   6.021   2.628  0.0173 -0.3853  0.4412
12383SOL     OW43111  10.100   2.259   7.265  0.0411  0.0895 -0.6517
12383SOL    HW143112  10.161   2.331   7.251 -0.8804  1.2193  0.9248
12383SOL    HW243113  10.092   2.218   7.178  1.7393  0.9083 -1.2438
12384SOL     OW43114   8.752   7.094  11.447  0.1728 -0.6112 -0.2146
12384SOL    HW143115   8.725   7.022  11.504  0.4424 -0.0785  0.6071
12384SOL    HW243116   8.723   7.173  11.493 -0.0197 -0.1833 -1.0493
12385SOL     OW43117   0.922   7.343   9.209  0.2785  0.2288 -0.1076
12385SOL    HW143118   0.858   7.294   9.156  0.4681 -0.2248  0.0812
12385SOL    HW243119   0.873   7.420   9.239  0.3159  0.7916 -1.3861
12386SOL     OW43120   2.736   9.151   8.779  0.5095 -0.0213  0.1312
12386SOL    HW143121   2.665   9.184   8.834  0.3248 -1.3952  0.7621
12386SOL    HW243122   2.698   9.148   8.691  0.8696  2.3713 -0.1772
12387SOL     OW43123   8.636  11.099  11.773  0.6852 -0.2047 -0.0625
12387SOL    HW143124   8.728  11.071  11.776  0.8901  0.4750  0.1481
12387SOL    HW243125   8.636  11.174  11.714  0.2628 -0.1963 -0.0531
12388SOL     OW43126   3.502   4.185   9.655 -0.3517  0.4810 -0.2147
12388SOL    HW143127   3.558   4.240   9.601  1.3732 -0.4964  0.4936
12388SOL    HW243128   3.525   4.208   9.745 -0.8086 -0.2109  0.0912
12389SOL     OW43129   6.029   0.009   9.432  0.1142 -0.1567  0.3369
12389SOL    HW143130   5.996   0.040   9.348 -0.9451  0.9075  1.1085
12389SOL    HW243131   6.006  -0.084   9.435 -0.7620  0.0315 -0.1304
12390SOL     OW43132   4.656   5.960  10.799  0.0314  0.1129 -0.5679
12390SOL    HW143133   4.653   6.050  10.765 -3.0707  0.0284 -0.8510
12390SOL    HW243134   4.729   5.919  10.753 -0.1550  1.7435 -2.4796
12391SOL     OW43135   2.571   6.107   6.288  0.0376  0.2782 -0.3265
12391SOL    HW143136   2.601   6.095   6.197 -0.0205 -0.7604 -0.2169
12391SOL    HW243137   2.532   6.023   6.312  2.3592 -0.3744  1.5301
12392SOL     OW43138   4.834   3.836  12.458  0.4950  0.5178 -0.1950
12392SOL    HW143139   4.805   3.924  12.481 -0.8384  0.6972 -2.3422
12392SOL    HW243140   4.915   3.824  12.508 -1.1272  1.5329  2.9657
12393SOL     OW43141   7.855   9.583   9.753 -0.4873  0.2035 -0.6835
12393SOL    HW143142   7.910   9.599   9.829  1.1012 -0.3613 -1.6588
12393SOL    HW243143   7.815   9.668   9.733  1.4958  1.0959 -1.0350
12394SOL     OW43144   3.904   5.288   4.614 -0.6866 -0.5685 -0.2073
12394SOL    HW143145   3.970   5.332   4.561  0.0625 -0.8216  0.4968
12394SOL    HW243146   3.841   5.253   4.551  0.5262 -1.4368 -0.9732
12395SOL     OW43147   8.783   0.068   1.245 -0.3474  0.3835  0.0007
12395SOL    HW143148   8.806  -0.015   1.287  0.2612  0.1223 -0.8217
12395SOL    HW243149   8.727   0.042   1.171 -2.2729  0.9127  1.2027
12396SOL     OW43150   4.979   9.534   9.874  0.6060  0.7609  0.5450
12396SOL    HW143151   5.004   9.469   9.808  0.3192  1.8624 -0.6960
12396SOL    HW243152   5.061   9.578   9.897  0.6626  0.5668  0.7180
12397SOL     OW43153   3.574   4.315  10.347 -0.2731 -0.1641 -0.1722
12397SOL    HW143154   3.569   4.252  10.274 -0.4286  0.5907 -0.8243
12397SOL    HW243155   3.597   4.398  10.306 -1.8507  0.6104  0.4280
12398SOL     OW43156   5.994   0.028   2.650 -0.1082 -0.7187 -0.2379
12398SOL    HW143157   5.922   0.067   2.699 -0.5040  0.7152 -1.8420
12398SOL    HW243158   5.952  -0.034   2.591  0.2332 -1.5488  0.3750
12399SOL     OW43159   3.034   8.815  10.554  0.3989 -0.3815  0.2625
12399SOL    HW143160   3.120   8.790  10.521  0.9823 -0.0486  1.4768
12399SOL    HW243161   2.972   8.778  10.490  1.4559  0.2111 -1.1619
12400SOL     OW43162   5.981   5.770   8.188 -0.1204  0.0154  0.2184
12400SOL    HW143163   5.957   5.862   8.173  0.6374  0.2535  0.3940
12400SOL    HW243164   6.061   5.775   8.240 -1.0306 -0.7690  1.7473
12401SOL     OW43165   7.997   3.881  11.667  0.4072 -0.1688 -0.2236
12401SOL    HW143166   8.033   3.959  11.626 -0.9021  0.9132  0.6157
12401SOL    HW243167   7.979   3.822  11.594 -0.2951  1.0477 -1.0667
12402SOL     OW43168   4.938   4.735   2.119 -0.0108 -0.3323  0.5867
12402SOL    HW143169   4.987   4.695   2.191  2.3416  1.2477 -0.0127
12402SOL    HW243170   4.971   4.691   2.041 -0.8880 -0.4697  0.2880
12403SOL     OW43171   9.987   2.040   0.724  0.4152 -0.0078  0.2887
12403SOL    HW143172  10.074   2.026   0.761  1.6907  1.8170 -1.7984
12403SOL    HW243173   9.930   2.050   0.800  2.1083 -0.6990  1.7078
12404SOL     OW43174   3.258  12.101   1.419  0.1730 -0.3741 -0.0413
12404SOL    HW143175   3.305  12.183   1.435 -1.4577  0.3605  1.2658
12404SOL    HW243176   3.323  12.032   1.435  0.9230  0.6129  1.3066
12405SOL     OW43177   1.338   7.040  10.868 -0.3668  0.4422  1.0181
12405SOL    HW143178   1.336   6.979  10.794 -2.0576  0.8632  0.6684
12405SOL    HW243179   1.431   7.058  10.882  0.0191  1.5262 -2.0096
12406SOL     OW43180  10.041   2.480  11.218  0.1541 -1.2007 -0.4712
12406SOL    HW143181  10.100   2.462  11.291 -0.9674 -2.7683  0.1111
12406SOL    HW243182   9.975   2.539  11.254 -0.5170 -2.1379 -0.1122
12407SOL     OW43183  12.182   1.452   5.796 -0.0399  0.1105 -0.2995
12407SOL    HW143184  12.262   1.402   5.813  0.3128  0.2173 -1.5484
12407SOL    HW243185  12.127   1.436   5.872  0.8644 -0.5794  0.2292
12408SOL     OW43186   1.490  10.190  10.185 -1.0980 -0.3211  0.0469
12408SOL    HW143187   1.540  10.191  10.266  0.3299  3.1332 -0.6746
12408SOL    HW243188   1.411  10.242  10.204 -1.5608 -0.8650 -0.3488
12409SOL     OW43189   2.867   8.770   7.967  0.3146 -0.2848 -0.4794
12409SOL    HW143190   2.853   8.720   7.886 -2.2078  0.1686 -0.4060
12409SOL    HW243191   2.848   8.860   7.942 -1.3888 -0.2566  0.7618
12410SOL     OW43192   6.870   3.714   3.985  0.0287  0.1470  0.2081
12410SOL    HW143193   6.867   3.728   4.079  3.1912  2.0521  0.1731
12410SOL    HW243194   6.880   3.802   3.948 -0.1986 -0.6313 -1.8633
12411SOL     OW43195  11.941   9.141  12.029  0.3001 -0.1558 -0.0593
12411SOL    HW143196  11.971   9.206  12.093  0.2861  0.2522 -0.4596
12411SOL    HW243197  11.895   9.193  11.963  2.3580 -0.2545 -1.6663
12412SOL     OW43198  11.593   0.739   7.192  0.3443 -0.1442 -0.6444
12412SOL    HW143199  11.536   0.667   7.164 -1.0036  1.3116 -1.9575
12412SOL    HW243200  11.679   0.718   7.155 -0.6314  0.1011 -3.3129
12413SOL     OW43201   5.372   8.929   1.778  0.2221  0.2999  0.3544
12413SOL    HW143202   5.396   8.975   1.698 -0.4141  2.8196  1.5093
12413SOL    HW243203   5.449   8.875   1.799  0.5246 -0.1757 -1.7030
12414SOL     OW43204   4.167   9.705   8.630 -0.6202  0.3374  0.3465
12414SOL    HW143205   4.262   9.716   8.622 -0.3868 -1.7017 -0.2395
12414SOL    HW243206   4.147   9.734   8.719  0.7793 -0.4575  0.9521
12415SOL     OW43207   4.349   6.666   9.153 -0.7440  0.2558 -0.3250
12415SOL    HW143208   4.359   6.742   9.211 -1.2756 -0.0099  0.1179
12415SOL    HW243209   4.297   6.604   9.203  1.4861 -1.3254  0.2194
12416SOL     OW43210  10.907   8.876   6.627  0.3924 -0.6684 -0.3472
12416SOL    HW143211  10.858   8.911   6.701  1.1069  0.5917 -0.4438
12416SOL    HW243212  10.900   8.944   6.559 -0.0866 -1.7100 -1.3831
12417SOL     OW43213   3.805   5.119   3.957  0.6009 -0.1411  0.2474
12417SOL    HW143214   3.807   5.028   3.928 -1.6245 -0.5163  1.0190
12417SOL    HW243215   3.834   5.169   3.882 -1.5403 -1.3072 -1.4671
12418SOL     OW43216   1.033   0.441   0.046 -0.3856  0.1174 -0.1671
12418SOL    HW143217   1.124   0.436   0.074 -0.6429  1.0448  0.9126
12418SOL    HW243218   0.984   0.392   0.112 -0.7935  0.6465 -0.0679
12419SOL     OW43219   0.683   3.497   3.718 -0.0279  0.5634  0.2630
12419SOL    HW143220   0.651   3.410   3.744 -1.3174  0.4902 -1.3918
12419SOL    HW243221   0.774   3.498   3.746 -0.0581 -1.2241  0.5626
12420SOL     OW43222   4.124   7.244   5.048 -0.5708 -0.1228 -0.9089
12420SOL    HW143223   4.084   7.160   5.030  0.2116 -0.1933 -2.4232
12420SOL    HW243224   4.091   7.302   4.979 -0.0836  0.4745 -0.6510
12421SOL     OW43225   0.322   0.276   5.619  0.2626 -0.4727 -0.1382
12421SOL    HW143226   0.316   0.348   5.556 -0.6693  0.2855  0.7687
12421SOL    HW243227   0.298   0.198   5.569  0.5317 -0.0418 -0.9549
12422SOL     OW43228   7.441   6.781  11.948 -0.3742 -0.0100 -0.5156
12422SOL    HW143229   7.491   6.778  11.867  0.4728  1.9457 -0.1332
12422SOL    HW243230   7.407   6.871  11.952 -0.2683 -0.0159  1.3504
12423SOL     OW43231  10.024   4.127   7.873 -0.6625 -0.0518 -0.4523
12423SOL    HW143232  10.105   4.083   7.898 -0.4446  0.8959  0.5851
12423SOL    HW243233  10.024   4.126   7.777  0.3858 -0.3886 -0.4536
12424SOL     OW43234  11.030  11.750   8.066  0.1998 -0.0648  0.4778
12424SOL    HW143235  11.108  11.695   8.078  0.6784  0.4189 -0.2772
12424SOL    HW243236  10.958  11.697   8.099  1.0262  0.0994  2.7220
12425SOL     OW43237   6.767   7.876   8.379 -0.6519 -0.0914 -0.4114
12425SOL    HW143238   6.831   7.928   8.330 -0.9846 -0.2695 -1.0560
12425SOL    HW243239   6.683   7.898   8.337 -0.7100 -1.7140 -1.2114
12426SOL     OW43240   6.837   3.135  10.571 -0.3804  0.2168  0.2927
12426SOL    HW143241   6.793   3.052  10.555  0.7673 -0.7843  2.0336
12426SOL    HW243242   6.844   3.176  10.485  0.4377 -2.1781 -0.8536
12427SOL     OW43243   4.177   6.294  10.988  0.2999 -0.0692  0.6157
12427SOL    HW143244   4.181   6.246  11.070  0.4516 -0.1662  0.5508
12427SOL    HW243245   4.254   6.350  10.988  0.1363  0.1597  0.6800
12428SOL     OW43246   6.810  10.782  10.148 -0.2448  0.9506  0.6526
12428SOL    HW143247   6.811  10.752  10.057  0.3019  1.1294  0.5940
12428SOL    HW243248   6.724  10.756  10.181  0.3091 -0.9749  0.6998
12429SOL     OW43249   8.070   3.853   5.669  0.0664 -0.0294  0.0025
12429SOL    HW143250   8.158   3.872   5.703  0.2109 -0.0313 -0.3653
12429SOL    HW243251   8.076   3.764   5.635  0.1943  0.3116 -0.8918
12430SOL     OW43252   4.426   5.402   7.690  0.7646 -0.2457  0.4247
12430SOL    HW143253   4.438   5.469   7.623  0.9782 -1.0609 -0.3693
12430SOL    HW243254   4.458   5.443   7.771 -0.8074  1.2634  0.3399
12431SOL     OW43255   9.727   7.181  12.153 -0.2972  0.6705 -0.2156
12431SOL    HW143256   9.749   7.230  12.232 -0.9907 -0.5703  0.7981
12431SOL    HW243257   9.654   7.230  12.114 -1.4149  0.1520  1.1342
12432SOL     OW43258   4.407   2.754   7.458  0.2934  0.4444  0.2265
12432SOL    HW143259   4.356   2.807   7.398  0.3535  0.2263 -0.0180
12432SOL    HW243260   4.442   2.684   7.404 -0.6949 -0.4851  0.7479
12433SOL     OW43261   7.152   5.829   8.130 -0.4164 -0.3459  0.0649
12433SOL    HW143262   7.240   5.804   8.100 -0.0382 -0.2194  1.0444
12433SOL    HW243263   7.110   5.746   8.152 -0.4130 -0.3812 -0.0627
12434SOL     OW43264   2.406   4.384   2.972 -0.2030 -0.5826  0.4094
12434SOL    HW143265   2.427   4.317   2.906 -0.7570  0.4392 -0.8442
12434SOL    HW243266   2.473   4.451   2.960 -1.1000  0.2498 -0.0694
12435SOL     OW43267   6.345   5.489   0.937  0.5892 -0.2848  0.1165
12435SOL    HW143268   6.363   5.515   0.847 -0.8237  1.3961  0.2766
12435SOL    HW243269   6.266   5.435   0.931  0.5086 -0.1913  0.3556
12436SOL     OW43270   1.366   4.862   5.266  0.5013 -0.1694  0.1685
12436SOL    HW143271   1.347   4.902   5.182  0.4901 -1.0320 -0.2492
12436SOL    HW243272   1.323   4.919   5.330  0.5094  0.4885 -0.4014
12437SOL     OW43273   6.222  10.017   0.637 -0.0152 -0.0487 -0.1021
12437SOL    HW143274   6.277   9.953   0.683 -1.1103 -1.1667 -0.2873
12437SOL    HW243275   6.167   9.964   0.580 -2.0257  0.9224  0.8525
12438SOL     OW43276   1.864  12.292   1.577 -0.4779  0.0606 -0.2580
12438SOL    HW143277   1.772  12.297   1.602 -0.6329  0.4029 -0.8794
12438SOL    HW243278   1.862  12.275   1.483  0.0977  0.0707 -0.2739
12439SOL     OW43279   0.470   7.363   1.669  0.3402  0.2163 -1.1617
12439SOL    HW143280   0.384   7.400   1.648  1.0514  1.0711 -2.7593
12439SOL    HW243281   0.466   7.274   1.633 -0.5783 -0.5474  0.6796
12440SOL     OW43282  12.422   2.925   8.888 -0.3278 -0.6739 -0.1741
12440SOL    HW143283  12.333   2.910   8.857 -0.6940  0.1930  0.4262
12440SOL    HW243284  12.413   2.990   8.958  0.9070  0.4736 -1.0186
12441SOL     OW43285  10.517   8.148   1.621  0.5189  0.4682 -0.2912
12441SOL    HW143286  10.514   8.192   1.536 -0.8125 -1.4378 -1.3117
12441SOL    HW243287  10.587   8.084   1.613  2.0997  1.9182  1.0047
12442SOL     OW43288   0.041   1.237   0.763  0.0061 -0.0085  0.2587
12442SOL    HW143289   0.130   1.260   0.792  0.0589 -0.9940  0.9136
12442SOL    HW243290  -0.010   1.232   0.844  0.0274 -2.2872  0.1967
12443SOL     OW43291   6.716  10.874   4.522  0.1925  0.2515  0.4682
12443SOL    HW143292   6.793  10.919   4.486  1.0129  0.9651  2.9155
12443SOL    HW243293   6.641  10.926   4.491  0.4932 -0.9440 -2.6664
12444SOL     OW43294  12.311   4.378   5.715  0.0134  0.4197 -0.2052
12444SOL    HW143295  12.349   4.455   5.673  0.0798  0.4629 -0.0650
12444SOL    HW243296  12.346   4.304   5.665  2.0961  0.3126  1.2791
12445SOL     OW43297  11.180   0.006  11.259 -0.0935  0.0892  0.2230
12445SOL    HW143298  11.118  -0.008  11.330  0.5792  2.3704  1.3596
12445SOL    HW243299  11.126   0.022  11.182 -0.9441  1.1195  1.0077
12446SOL     OW43300  12.305   0.751   8.537  0.2488  0.3138  0.0809
12446SOL    HW143301  12.280   0.737   8.446  3.1794  1.5219 -1.0071
12446SOL    HW243302  12.267   0.836   8.560  1.9816  1.4609 -1.0779
12447SOL     OW43303   0.304   5.739   3.317 -0.4055 -0.8244  0.2758
12447SOL    HW143304   0.257   5.670   3.365 -0.0581 -2.0297 -1.0530
12447SOL    HW243305   0.363   5.692   3.259  0.8275  0.6423  0.2805
12448SOL     OW43306   5.450   4.083   0.520 -0.0337 -0.0036 -0.2332
12448SOL    HW143307   5.396   4.100   0.443 -1.5801  0.0882  0.8177
12448SOL    HW243308   5.484   3.995   0.506 -1.0309 -0.3462 -0.6307
12449SOL     OW43309   2.689   3.088   4.453  0.3596  0.2950 -0.2918
12449SOL    HW143310   2.633   3.019   4.417 -0.9729  1.9484 -1.5536
12449SOL    HW243311   2.632   3.138   4.511  1.4331  0.0823  0.9926
12450SOL     OW43312   1.706  11.364  12.244  0.3003  0.0778 -0.7098
12450SOL    HW143313   1.706  11.280  12.289 -2.5349 -0.0361 -0.7817
12450SOL    HW243314   1.707  11.429  12.314  0.7106 -0.0133 -0.6265
12451SOL     OW43315   7.541  11.497   9.496 -0.0463  0.1092 -0.3203
12451SOL    HW143316   7.550  11.422   9.437 -0.4550 -0.2483  0.0554
12451SOL    HW243317   7.448  11.499   9.517  0.0213  0.5153 -0.0601
12452SOL     OW43318   3.082   0.711   7.549 -0.0404  0.7697  0.6090
12452SOL    HW143319   3.083   0.649   7.477  4.3590  2.2288 -0.8793
12452SOL    HW243320   3.077   0.656   7.628  1.7667 -1.4366 -0.6895
12453SOL     OW43321   8.190   1.665   0.337  0.3761  0.3899 -0.0786
12453SOL    HW143322   8.220   1.756   0.341  0.3686  0.3528  1.5521
12453SOL    HW243323   8.267   1.615   0.310  0.1920  0.9248 -1.7513
12454SOL     OW43324   8.274  12.072   2.468  0.0932  0.2685 -0.2056
12454SOL    HW143325   8.187  12.109   2.483  0.1250  1.0579 -1.7700
12454SOL    HW243326   8.331  12.117   2.529 -0.2561  1.2425 -0.5838
12455SOL     OW43327   0.439  11.723   5.194 -0.2175  0.8557  0.1755
12455SOL    HW143328   0.423  11.815   5.216 -2.3022  0.9727 -1.4747
12455SOL    HW243329   0.530  11.708   5.218  0.8311  3.9174 -1.3719
12456SOL     OW43330   6.836   0.962  10.447  0.1085 -0.4431 -0.2894
12456SOL    HW143331   6.777   0.962  10.372 -0.7064  0.3081  0.3273
12456SOL    HW243332   6.918   0.926  10.413 -0.5409 -1.0509 -1.2877
12457SOL     OW43333  11.899   2.683   5.899 -0.0635  0.1426 -0.3234
12457SOL    HW143334  11.822   2.668   5.846 -0.5054 -1.7494  0.7678
12457SOL    HW243335  11.910   2.778   5.899 -1.4071  0.3357 -1.8184
12458SOL     OW43336   0.017  11.610   5.840  0.1052  0.0619  0.6837
12458SOL    HW143337   0.091  11.579   5.788  1.6650  2.0972  1.5113
12458SOL    HW243338  -0.026  11.675   5.785 -0.8891 -0.8534  0.3476
12459SOL     OW43339   0.403   8.540   7.307  0.0647  0.8026  0.3783
12459SOL    HW143340   0.346   8.578   7.240  0.8093  0.0755 -0.7228
12459SOL    HW243341   0.454   8.614   7.340  2.3189  0.7548 -2.5512
12460SOL     OW43342   7.856   0.140   7.028 -0.2142 -0.7770  0.4345
12460SOL    HW143343   7.813   0.224   7.047 -0.4875 -0.9981  0.8162
12460SOL    HW243344   7.894   0.152   6.941 -2.1753 -0.9980 -0.5215
12461SOL     OW43345  10.756   5.488  10.721  0.0345 -0.0014  0.4395
12461SOL    HW143346  10.712   5.526  10.797 -0.4835 -0.9209  0.6187
12461SOL    HW243347  10.698   5.418  10.692  1.3583 -1.2452  0.6665
12462SOL     OW43348  10.008   3.805   2.225  0.1430  0.4520  0.4585
12462SOL    HW143349  10.039   3.879   2.276 -1.3353  1.0981  0.4850
12462SOL    HW243350  10.066   3.801   2.149  0.2281  1.6587  0.4548
12463SOL     OW43351   0.868  10.135   8.316  1.2235 -0.4932 -0.2399
12463SOL    HW143352   0.876  10.172   8.404 -1.3174 -1.1993  0.3675
12463SOL    HW243353   0.884  10.208   8.257  1.6921  0.2885  0.8304
12464SOL     OW43354  12.481   9.958   5.956 -0.3058 -0.3307  0.2652
12464SOL    HW143355  12.401  10.003   5.929 -0.3678 -0.5323  0.1059
12464SOL    HW243356  12.520  10.015   6.021 -1.1172 -0.7119  1.1162
12465SOL     OW43357   6.141  11.361   0.377  0.1356 -0.6167  0.1232
12465SOL    HW143358   6.087  11.421   0.428  0.9078  2.0524 -1.9751
12465SOL    HW243359   6.078  11.313   0.323 -0.3137  1.2318 -1.0657
12466SOL     OW43360   9.412   3.449   1.797  0.3195 -0.3383 -0.2813
12466SOL    HW143361   9.417   3.536   1.836  2.1811  0.7409 -2.6716
12466SOL    HW243362   9.501   3.414   1.807 -0.5684 -2.3652  1.3045
12467SOL     OW43363   1.600   3.301  11.713 -0.1669  0.0205 -0.3783
12467SOL    HW143364   1.613   3.391  11.742 -0.1866 -0.0037 -0.2936
12467SOL    HW243365   1.549   3.260  11.784 -0.1106 -0.0717 -0.3911
12468SOL     OW43366  10.181   9.601   4.161  0.2724 -0.7881 -0.0860
12468SOL    HW143367  10.098   9.559   4.183  0.3946 -1.0790 -0.1757
12468SOL    HW243368  10.198   9.661   4.234 -0.0145 -0.7274 -0.0685
12469SOL     OW43369  10.211  10.896   0.790  1.0077  0.0486 -0.7557
12469SOL    HW143370  10.260  10.976   0.773 -1.4367  1.9778  0.7580
12469SOL    HW243371  10.208  10.852   0.705  0.2188  2.8624 -2.3005
12470SOL     OW43372   0.942   4.931  12.207  0.3527  0.0521 -0.0741
12470SOL    HW143373   1.011   4.865  12.218 -0.3636 -0.5991  0.6628
12470SOL    HW243374   0.971   4.983  12.132  0.6874 -1.4503 -1.0511
12471SOL     OW43375   4.495   7.245  10.628  0.0666  0.0582 -0.5552
12471SOL    HW143376   4.411   7.224  10.588 -1.4992  2.7146  1.0039
12471SOL    HW243377   4.507   7.339  10.609  0.5328  0.7853  2.7839
12472SOL     OW43378  11.719   4.512   8.993  0.4063 -0.4592 -0.3645
12472SOL    HW143379  11.633   4.504   8.952 -0.3026 -0.2660  1.0111
12472SOL    HW243380  11.730   4.606   9.008  0.4981 -0.5471  0.1596
12473SOL     OW43381   3.550   0.873   1.515  0.1363 -0.3727 -0.2976
12473SOL    HW143382   3.454   0.875   1.514  0.1292  1.4299  0.0926
12473SOL    HW243383   3.574   0.920   1.596  1.3340  1.8267 -1.8148
12474SOL     OW43384   2.382   5.156   5.915  0.4883  0.4114  0.4961
12474SOL    HW143385   2.363   5.092   5.983 -0.9211  0.1088 -0.1482
12474SOL    HW243386   2.365   5.109   5.833 -0.2710  1.5009  0.0041
12475SOL     OW43387   9.876   8.389  10.842  0.4500  0.1515 -0.2332
12475SOL    HW143388   9.886   8.461  10.780 -0.2454 -0.5585 -1.2176
12475SOL    HW243389   9.911   8.313  10.795 -0.3086 -0.4463  0.1447
12476SOL     OW43390   9.165   1.104   0.088 -0.0833  1.2375 -0.3132
12476SOL    HW143391   9.104   1.063   0.027  1.1477  1.1018 -1.5294
12476SOL    HW243392   9.236   1.040   0.097 -0.2944  1.2010  1.4157
12477SOL     OW43393   0.876   2.199   9.213  0.1144 -0.2080  0.2195
12477SOL    HW143394   0.875   2.115   9.258  1.0707  0.0992  0.8426
12477SOL    HW243395   0.932   2.255   9.267  2.4477 -0.1982 -1.9914
12478SOL     OW43396   9.361   4.468   2.527 -0.2551 -0.5951  0.2620
12478SOL    HW143397   9.322   4.381   2.522 -0.7812 -0.3612  0.2505
12478SOL    HW243398   9.303   4.517   2.585 -0.5714  0.0687 -0.5996
12479SOL     OW43399   7.177   7.809   4.192  0.7198  0.0511 -0.1942
12479SOL    HW143400   7.271   7.790   4.184  1.1787  1.2399  1.6769
12479SOL    HW243401   7.154   7.849   4.108  1.4591 -1.7405 -1.3108
12480SOL     OW43402   9.966   2.329   6.589 -0.1514 -0.2426  0.5977
12480SOL    HW143403   9.955   2.365   6.500 -1.8223 -2.0675 -0.0290
12480SOL    HW243404   9.928   2.395   6.646  2.4002  1.7075  0.2034
12481SOL     OW43405   3.770   4.539   5.674  0.5952  0.2864 -0.6170
12481SOL    HW143406   3.721   4.458   5.659  0.4109  0.1787  0.4604
12481SOL    HW243407   3.781   4.578   5.587  0.0807 -0.5444 -1.0610
12482SOL     OW43408   4.116   4.243   6.760  0.0782  0.4540 -0.6078
12482SOL    HW143409   4.128   4.164   6.813 -1.2343  0.0975 -0.8189
12482SOL    HW243410   4.043   4.288   6.801  0.3608  1.2102 -0.9205
12483SOL     OW43411  12.452   0.528   1.625  0.6751 -0.3245  0.3842
12483SOL    HW143412  12.420   0.488   1.544  1.9543  1.8617 -1.3285
12483SOL    HW243413  12.373   0.543   1.677 -0.1073 -2.3569 -0.1250
12484SOL     OW43414   4.764   6.778   1.504  0.1953 -0.0583 -0.1583
12484SOL    HW143415   4.669   6.787   1.515  0.2396  1.0798 -0.5804
12484SOL    HW243416   4.801   6.837   1.571  0.6060 -0.4483 -0.0369
12485SOL     OW43417   1.100   3.188   6.683  0.4120 -0.1453 -0.0660
12485SOL    HW143418   1.040   3.262   6.689 -0.4106 -0.7877 -0.1413
12485SOL    HW243419   1.187   3.228   6.680  0.1184  0.7487  1.9222
12486SOL     OW43420   7.500   3.310   7.973 -0.3640 -0.4107 -0.0580
12486SOL    HW143421   7.463   3.297   7.885  1.7607  0.8787 -1.2294
12486SOL    HW243422   7.467   3.396   8.000  0.5049  0.0714 -0.4721
12487SOL     OW43423   3.913   9.033   1.127  0.6155  0.2890 -0.7356
12487SOL    HW143424   3.942   8.948   1.159  0.2521  0.8089  1.1045
12487SOL    HW243425   3.858   9.068   1.197  0.3776  1.8534 -1.6388
12488SOL     OW43426   1.144   7.169   9.275  0.1944  0.6583 -0.2603
12488SOL    HW143427   1.226   7.209   9.248 -0.2615  2.1584  0.4741
12488SOL    HW243428   1.082   7.241   9.280 -0.5058  0.0064  1.7834
12489SOL     OW43429  10.647   3.124   4.690 -0.2939  0.0935 -0.3313
12489SOL    HW143430  10.656   3.028   4.689 -0.4292  0.0659  0.5239
12489SOL    HW243431  10.647   3.148   4.598 -0.7178 -0.7835 -0.5783
12490SOL     OW43432   4.683   3.059   5.506  0.9462 -0.2105  0.2349
12490SOL    HW143433   4.607   3.117   5.513  1.7285  0.7456  1.1083
12490SOL    HW243434   4.716   3.075   5.417 -0.3754 -1.3151 -0.4918
12491SOL     OW43435   7.076   9.950  12.167 -0.3545  0.0240  0.6926
12491SOL    HW143436   7.062  10.033  12.214 -1.0942 -1.4548  3.2473
12491SOL    HW243437   6.988   9.912  12.159  0.0263 -0.7154 -0.0859
12492SOL     OW43438  11.938   6.565   0.345 -0.1145  0.1297 -0.0899
12492SOL    HW143439  11.967   6.511   0.418  3.5812  1.6550 -0.1727
12492SOL    HW243440  11.925   6.652   0.384 -2.3301  0.0858 -0.5930
12493SOL     OW43441   8.134  11.122   7.385 -0.4967 -0.0140  0.2577
12493SOL    HW143442   8.161  11.067   7.458  1.9290  0.7029 -0.0027
12493SOL    HW243443   8.146  11.068   7.307  0.5092  0.3705  0.1242
12494SOL     OW43444   7.235   1.097   7.433 -0.3989  0.1477 -0.4339
12494SOL    HW143445   7.175   1.042   7.484 -0.9703  0.4247 -0.7894
12494SOL    HW243446   7.187   1.114   7.352  1.1325 -1.6618 -1.8224
12495SOL     OW43447  12.487  12.476   2.291 -0.3854  0.2121  0.6325
12495SOL    HW143448  12.464  12.565   2.261 -2.1314 -0.2042  0.6107
12495SOL    HW243449  12.458  12.419   2.220  0.6459 -0.4071  0.6896
12496SOL     OW43450  10.028  10.353   7.546 -0.1248 -0.3858  0.6783
12496SOL    HW143451  10.032  10.264   7.513 -0.2521  0.0191 -0.4638
12496SOL    HW243452  10.095  10.400   7.497 -1.3111  0.5634 -0.0833
12497SOL     OW43453  10.150   4.900   7.828 -0.5662  0.0732  0.1788
12497SOL    HW143454  10.077   4.936   7.778 -1.4857  0.0927  1.4881
12497SOL    HW243455  10.110   4.838   7.889  0.5758 -0.3392  0.5482
12498SOL     OW43456  10.325   6.719   2.197  0.0585 -0.1118 -0.4824
12498SOL    HW143457  10.414   6.698   2.168  0.1052  1.2933 -1.4902
12498SOL    HW243458  10.274   6.641   2.178  1.2654 -1.3926  1.1889
12499SOL     OW43459   3.011  12.083   2.811  0.4711 -0.3448 -0.2007
12499SOL    HW143460   3.038  12.098   2.720  0.2676  1.0718 -0.0526
12499SOL    HW243461   2.936  12.024   2.804 -1.3673  1.9356 -1.2145
12500SOL     OW43462   5.036   5.531   1.958  0.0113 -0.5066 -0.4800
12500SOL    HW143463   4.987   5.566   1.884 -1.9468 -0.0577  0.9487
12500SOL    HW243464   5.020   5.437   1.956 -2.1128 -0.2327  0.7125
12501SOL     OW43465   0.032   1.311   7.362 -0.4689 -0.4036 -0.8016
12501SOL    HW143466   0.055   1.250   7.432  2.7497  0.2406 -1.1291
12501SOL    HW243467   0.021   1.256   7.285  1.1739 -0.7179 -0.8370
12502SOL     OW43468   7.574   9.473   2.385 -0.1968 -0.6943 -0.5503
12502SOL    HW143469   7.577   9.447   2.477  0.2036  2.2147  0.3419
12502SOL    HW243470   7.659   9.446   2.350  1.2547  1.5265  1.0174
12503SOL     OW43471  11.877   8.200   5.456  0.1601  0.0519  0.4315
12503SOL    HW143472  11.862   8.155   5.373 -0.9404  0.2620  0.4996
12503SOL    HW243473  11.929   8.139   5.507 -1.5051 -1.2884  0.6143
12504SOL     OW43474   3.877   5.719   9.982  0.3376 -0.4467 -0.8947
12504SOL    HW143475   3.961   5.764   9.995 -0.1331 -0.0615  1.2077
12504SOL    HW243476   3.867   5.664  10.061 -0.8034 -1.4575 -1.7056
12505SOL     OW43477  11.726   9.269   2.252 -0.5248  0.5361 -0.5523
12505SOL    HW143478  11.795   9.248   2.189  0.0299  4.1970 -1.3391
12505SOL    HW243479  11.772   9.297   2.331 -1.2335 -0.9369  0.4477
12506SOL     OW43480   3.991  10.925   9.642  0.4787  0.0817  0.1813
12506SOL    HW143481   3.938  11.001   9.618  0.3574 -0.1063 -0.1492
12506SOL    HW243482   3.959  10.854   9.585  1.0685 -0.0390 -0.0032
12507SOL     OW43483   1.312   2.523   4.374 -0.5503 -0.4724 -0.1033
12507SOL    HW143484   1.270   2.440   4.352 -0.1612 -0.3212 -1.4911
12507SOL    HW243485   1.269   2.588   4.318 -1.5711  0.4782  1.6944
12508SOL     OW43486   9.350   5.558   6.173 -0.2697 -0.2509 -0.5972
12508SOL    HW143487   9.274   5.599   6.133 -0.0868 -0.3199 -1.0214
12508SOL    HW243488   9.424   5.613   6.147 -0.1194 -0.4200 -0.5360
12509SOL     OW43489  10.638   4.616   5.243  0.7660 -1.1646 -0.7306
12509SOL    HW143490  10.565   4.567   5.206 -1.4199  0.8714  0.5536
12509SOL    HW243491  10.605   4.706   5.250  3.4866 -0.1008 -0.2255
12510SOL     OW43492   8.162   5.018  10.445  0.0014 -0.4181 -0.1169
12510SOL    HW143493   8.152   5.043  10.353 -0.2387 -0.1780 -0.0272
12510SOL    HW243494   8.253   4.987  10.451  0.1223 -0.1291 -0.3653
12511SOL     OW43495   3.935   2.391   2.681 -0.5352  0.2938 -0.2296
12511SOL    HW143496   3.933   2.311   2.628  1.3415  1.5884 -2.4734
12511SOL    HW243497   3.944   2.361   2.771  1.0322 -2.0333 -1.0789
12512SOL     OW43498   1.394   7.996   3.762 -0.0925  0.2861 -0.1485
12512SOL    HW143499   1.313   7.985   3.712 -1.6048 -1.6006  2.4339
12512SOL    HW243500   1.442   7.914   3.750  1.8923  1.6212 -2.1740
12513SOL     OW43501   4.885   7.361   9.336 -0.2200 -0.0086 -0.2165
12513SOL    HW143502   4.791   7.343   9.335  0.1383 -2.2692  1.0854
12513SOL    HW243503   4.925   7.278   9.310  1.4217  1.3132 -2.1682
12514SOL     OW43504  11.160   9.796   9.807 -0.3231 -0.1189 -0.0802
12514SOL    HW143505  11.092   9.848   9.849 -0.2228 -1.3690  1.7431
12514SOL    HW243506  11.123   9.708   9.802 -0.4096 -0.0074 -2.9040
12515SOL     OW43507   2.669  12.289   2.659 -0.2040  0.0543  0.1297
12515SOL    HW143508   2.703  12.233   2.730  2.8076  0.3129 -0.9572
12515SOL    HW243509   2.636  12.227   2.594  0.7612 -0.3771  0.0334
12516SOL     OW43510  11.747   3.016   0.068 -0.4814  0.4167  0.2365
12516SOL    HW143511  11.833   3.058   0.063 -1.1528  1.8003 -0.0468
12516SOL    HW243512  11.758   2.949   0.136  1.0493 -0.0242 -0.3878
12517SOL     OW43513  11.237   6.315  11.907 -0.5137 -0.1885 -0.1176
12517SOL    HW143514  11.258   6.406  11.888  0.9404 -0.2175  1.0995
12517SOL    HW243515  11.181   6.287  11.835 -2.1707  2.0622  0.2057
12518SOL     OW43516   2.171   2.370   1.530  0.3099  0.4761 -0.1476
12518SOL    HW143517   2.226   2.350   1.606  0.7025 -1.6561 -0.9342
12518SOL    HW243518   2.082   2.360   1.563  0.4752 -0.3887  0.0718
12519SOL     OW43519   3.443   9.351  11.968 -0.5518  0.2593  0.0795
12519SOL    HW143520   3.532   9.377  11.989 -0.4957  0.6753 -0.6489
12519SOL    HW243521   3.452   9.291  11.893 -0.9388  1.0565 -0.6238
12520SOL     OW43522   8.604   0.296   2.499  0.1821 -0.0803  0.0627
12520SOL    HW143523   8.595   0.221   2.440  0.4429  1.8571 -2.6377
12520SOL    HW243524   8.567   0.370   2.451  0.6427  1.7089  2.2577
12521SOL     OW43525   8.110   2.354  12.004  0.4176  0.0182  0.2116
12521SOL    HW143526   8.061   2.413  12.061  0.4333 -0.2648  0.5227
12521SOL    HW243527   8.144   2.286  12.063  0.1347 -0.4759 -0.1892
12522SOL     OW43528   2.940   1.064   5.659 -0.0201  0.1115  0.0635
12522SOL    HW143529   2.869   1.118   5.692 -0.4952 -0.6401  0.2832
12522SOL    HW243530   2.953   1.093   5.568  0.7703  1.6408  0.6394
12523SOL     OW43531  10.488   6.713   6.332  0.1384 -0.1289 -0.1791
12523SOL    HW143532  10.503   6.787   6.273 -1.2173  0.5763  0.3136
12523SOL    HW243533  10.516   6.636   6.282  2.0511  0.7216 -0.5289
12524SOL     OW43534   1.837   2.698   7.271 -0.5300  0.0321  0.2271
12524SOL    HW143535   1.842   2.649   7.353  1.5392  2.7089  1.8702
12524SOL    HW243536   1.828   2.631   7.204 -1.1163 -2.3644  2.5158
12525SOL     OW43537   9.348  11.832   2.189  0.3074 -0.1694  0.0584
12525SOL    HW143538   9.412  11.848   2.258  0.0365  1.0403  0.0433
12525SOL    HW243539   9.268  11.876   2.219 -0.0671 -0.3614 -0.6375
12526SOL     OW43540  12.189   7.601  11.363  0.2605 -0.3668 -0.3725
12526SOL    HW143541  12.253   7.605  11.292 -0.9233  0.8400 -1.4122
12526SOL    HW243542  12.147   7.515  11.353  1.6191 -1.1636  0.3023
12527SOL     OW43543   9.745  11.388  11.745  0.2541  0.1284 -0.0893
12527SOL    HW143544   9.751  11.451  11.817  0.9426 -1.0006  0.8587
12527SOL    HW243545   9.662  11.410  11.702  0.1525  1.2391  0.6287
12528SOL     OW43546  11.858   3.802   8.401  0.0299  0.7861  0.7126
12528SOL    HW143547  11.764   3.812   8.416 -0.1942 -0.7490  0.5255
12528SOL    HW243548  11.887   3.743   8.470  0.4066 -0.5056 -0.4956
12529SOL     OW43549   7.957   9.904   3.116  0.1223 -0.6016 -0.4216
12529SOL    HW143550   8.000   9.945   3.041  1.1425  0.5052  0.7193
12529SOL    HW243551   7.968   9.967   3.188  0.4313 -2.2171  1.0236
12530SOL     OW43552   1.064   1.575   9.572  0.7879  0.3564 -0.0725
12530SOL    HW143553   1.101   1.601   9.487 -1.3207 -1.7346 -1.7675
12530SOL    HW243554   1.086   1.482   9.580  0.7656  0.4679  1.6288
12531SOL     OW43555  10.619   3.288  11.399  0.2463  0.6348 -0.5057
12531SOL    HW143556  10.656   3.303  11.487  0.1637 -0.3570 -0.2901
12531SOL    HW243557  10.582   3.200  11.404  1.2322  0.1162 -1.8783
12532SOL     OW43558   4.951   8.373  10.922  0.0417 -0.0006  0.1550
12532SOL    HW143559   4.890   8.300  10.925 -0.8339  0.6999  0.0194
12532SOL    HW243560   5.028   8.339  10.879 -1.1178 -0.3236 -1.7878
12533SOL     OW43561   1.846  12.378   7.845 -0.0905  0.3128  0.0701
12533SOL    HW143562   1.775  12.345   7.901  0.2432  1.4532  1.2194
12533SOL    HW243563   1.881  12.453   7.893  2.9425 -1.1191  0.3127
12534SOL     OW43564   3.130  12.060   9.600  0.2234  0.3998  0.0018
12534SOL    HW143565   3.136  12.123   9.527 -2.1685  0.5423 -0.1495
12534SOL    HW243566   3.213  12.012   9.596  0.7862  1.3921 -1.8931
12535SOL     OW43567   3.467   9.948   4.785  0.0532  0.4986  0.3284
12535SOL    HW143568   3.483  10.016   4.719  0.7088 -1.9052 -2.1674
12535SOL    HW243569   3.388   9.904   4.754  0.2319 -0.5491  1.3104
12536SOL     OW43570  10.179   4.807   8.986  0.0105  0.1472 -0.3063
12536SOL    HW143571  10.265   4.807   9.027 -0.8080  1.2346  1.5204
12536SOL    HW243572  10.142   4.721   9.006  0.0578  0.2621  0.2854
12537SOL     OW43573   4.218   0.861   3.969  0.1153  0.0934 -0.1614
12537SOL    HW143574   4.182   0.948   3.950  0.7943  0.3942 -0.0685
12537SOL    HW243575   4.296   0.878   4.021  1.3793 -0.4501 -1.7877
12538SOL     OW43576  11.266   6.313   1.461 -0.2561  0.4042  0.0656
12538SOL    HW143577  11.189   6.255   1.462  0.5074 -0.7434 -1.8194
12538SOL    HW243578  11.314   6.289   1.540 -0.3394 -1.0567 -0.2873
12539SOL     OW43579   5.742   2.670   6.678  0.1047 -0.1093 -0.2754
12539SOL    HW143580   5.772   2.666   6.587  1.1423  0.7154  0.0237
12539SOL    HW243581   5.754   2.581   6.711  0.9030 -0.1124 -0.5712
12540SOL     OW43582   1.324   3.520   8.535  0.6154 -0.4059 -0.6484
12540SOL    HW143583   1.300   3.427   8.533  0.3863 -0.3408 -1.0267
12540SOL    HW243584   1.241   3.566   8.534  0.6040 -0.1877  2.3054
12541SOL     OW43585   7.354   0.365   4.692  0.1558 -0.4859  0.4220
12541SOL    HW143586   7.304   0.330   4.619  0.8010  1.0485 -0.8336
12541SOL    HW243587   7.298   0.432   4.731  0.8737  0.7029 -0.5108
12542SOL     OW43588   5.848   8.904   9.065 -0.6102  0.3598 -0.2116
12542SOL    HW143589   5.865   8.850   9.142  1.0698  0.3139 -0.5838
12542SOL    HW243590   5.800   8.980   9.098 -0.7536 -0.1279  0.7101
12543SOL     OW43591   5.443  10.195   1.482 -0.2653 -0.4248  0.0818
12543SOL    HW143592   5.361  10.147   1.487  0.6441 -2.2478 -1.3076
12543SOL    HW243593   5.480  10.188   1.570 -1.1193 -0.4817  0.4398
12544SOL     OW43594  11.190   8.469   2.680 -0.0948 -0.0713 -0.6435
12544SOL    HW143595  11.154   8.389   2.640 -1.5832 -0.5222  1.4151
12544SOL    HW243596  11.217   8.442   2.768  1.0858  1.3183 -0.5437
12545SOL     OW43597   4.746   1.544   5.120  0.6803 -0.4629  0.5820
12545SOL    HW143598   4.777   1.620   5.168  0.8921  0.1253 -0.4466
12545SOL    HW243599   4.824   1.511   5.075  0.3122 -0.4472 -0.0772
12546SOL     OW43600   8.934  11.596   5.124  0.3093  0.3366 -0.6207
12546SOL    HW143601   8.858  11.542   5.145  1.8871 -1.1114  1.9384
12546SOL    HW243602   8.939  11.594   5.028 -2.2344 -0.3434 -0.8099
12547SOL     OW43603   1.054   9.277   8.552  0.0360  0.6887  0.4330
12547SOL    HW143604   0.963   9.265   8.527 -0.3348  1.5205  1.3060
12547SOL    HW243605   1.104   9.244   8.478 -0.9465 -1.2230  0.5725
12548SOL     OW43606  10.654  10.718   6.917 -0.1942 -0.4295 -0.2537
12548SOL    HW143607  10.704  10.743   6.839  0.7559 -0.5455  0.3015
12548SOL    HW243608  10.703  10.645   6.955 -1.7385 -1.7303 -0.6316
12549SOL     OW43609   0.065   1.564   4.119 -0.1295  0.2941  0.2512
12549SOL    HW143610   0.022   1.489   4.077 -1.5613  1.5384 -0.5735
12549SOL    HW243611   0.085   1.624   4.048  3.1951 -0.2709  0.5852
12550SOL     OW43612   4.259  10.879   0.762 -0.4677  0.3627  0.0035
12550SOL    HW143613   4.248  10.939   0.836  0.1074 -0.2564  0.6075
12550SOL    HW243614   4.233  10.793   0.797 -0.2128  0.0706 -0.5217
12551SOL     OW43615   8.635   9.804   2.632 -0.5755 -0.1146  0.0595
12551SOL    HW143616   8.673   9.812   2.545 -1.1089 -0.5440 -0.2219
12551SOL    HW243617   8.682   9.868   2.685 -1.7514  1.7495 -1.0411
12552SOL     OW43618   6.134   7.580   1.829  0.8077 -0.1890  0.3630
12552SOL    HW143619   6.204   7.580   1.895  2.0338 -0.5843 -0.8761
12552SOL    HW243620   6.180   7.596   1.746 -0.9101  2.5996 -0.1999
12553SOL     OW43621   9.562   6.952   1.916  0.3648 -0.0565 -0.3199
12553SOL    HW143622   9.557   7.025   1.977 -1.1725 -0.6801  0.3622
12553SOL    HW243623   9.549   6.992   1.830 -0.3855  0.4913  0.0345
12554SOL     OW43624   3.569   0.298   3.674 -0.0402 -0.2710  0.0597
12554SOL    HW143625   3.615   0.214   3.674  0.6933  0.0662 -1.8515
12554SOL    HW243626   3.598   0.343   3.753  1.4170 -0.8729 -0.1099
12555SOL     OW43627   1.614  10.682   1.056 -0.3975 -0.0375 -0.1183
12555SOL    HW143628   1.702  10.674   1.094 -0.3374  1.0223 -0.0158
12555SOL    HW243629   1.581  10.592   1.054  0.3273 -0.3403  0.7072
12556SOL     OW43630   2.234   6.626   3.396  0.4348 -0.0692  0.0433
12556SOL    HW143631   2.147   6.634   3.435  1.2131  0.7008  1.6913
12556SOL    HW243632   2.274   6.551   3.440  0.3796 -0.8807 -1.2280
12557SOL     OW43633   7.536   2.339   0.957 -0.3017 -0.1598  0.2815
12557SOL    HW143634   7.537   2.344   0.861 -2.3435 -0.0781  0.2359
12557SOL    HW243635   7.576   2.255   0.977  3.0815  1.0817 -0.4322
12558SOL     OW43636   4.882   7.707   7.782 -0.1664 -0.1788  0.1190
12558SOL    HW143637   4.818   7.722   7.852 -1.2502  0.5329 -0.9955
12558SOL    HW243638   4.953   7.659   7.825 -0.8747  0.1007  1.6678
12559SOL     OW43639   6.846   4.905   0.645 -0.2171  0.1495 -0.1854
12559SOL    HW143640   6.847   5.001   0.647 -0.5513  0.1892 -1.3357
12559SOL    HW243641   6.827   4.883   0.554  0.7863 -1.0271 -0.1324
12560SOL     OW43642   2.339   2.715   1.631 -0.0224 -0.1051  0.0466
12560SOL    HW143643   2.355   2.657   1.557 -0.0732  0.8350 -0.7212
12560SOL    HW243644   2.425   2.729   1.670  0.0874 -0.1574 -0.1746
12561SOL     OW43645   1.367   0.732   4.443  0.2603 -0.1381 -0.4215
12561SOL    HW143646   1.380   0.676   4.366  2.6540 -0.1875 -0.0613
12561SOL    HW243647   1.402   0.817   4.416 -1.8720  0.7969 -0.4238
12562SOL     OW43648   7.297  12.339   6.558  0.2533  0.1200  0.2394
12562SOL    HW143649   7.371  12.346   6.618  2.4853 -1.1311 -2.1528
12562SOL    HW243650   7.332  12.370   6.474 -2.1380  0.0392 -0.8545
12563SOL     OW43651   7.335   1.474   5.182 -0.1595  0.3564  0.5636
12563SOL    HW143652   7.383   1.534   5.239  1.1933 -0.2745  0.1493
12563SOL    HW243653   7.308   1.402   5.239  0.0255  0.3756  0.6760
12564SOL     OW43654   3.356  11.138   2.748  0.3770 -0.1082 -0.1805
12564SOL    HW143655   3.439  11.095   2.771  0.2742 -0.1445  0.1260
12564SOL    HW243656   3.325  11.176   2.830 -0.1155 -0.4496 -0.2026
12565SOL     OW43657   6.461  12.260  10.954  0.3825  0.2463  1.2678
12565SOL    HW143658   6.417  12.202  11.016 -0.3185  1.6365  2.1345
12565SOL    HW243659   6.406  12.257  10.875  1.2879 -1.5450  0.6621
12566SOL     OW43660   9.798   2.869   7.657 -0.2788 -0.1694  0.2982
12566SOL    HW143661   9.846   2.789   7.680  0.6194  0.7055  1.6006
12566SOL    HW243662   9.791   2.916   7.740 -1.2444  0.8776 -0.3611
12567SOL     OW43663   1.728   4.858   0.877 -0.1817  0.1929  0.4025
12567SOL    HW143664   1.656   4.797   0.863 -0.1074  0.3670 -0.8764
12567SOL    HW243665   1.740   4.860   0.972 -1.5150 -0.2273  0.6010
12568SOL     OW43666   1.681   5.867   3.411 -0.4481  0.1846 -0.4467
12568SOL    HW143667   1.612   5.817   3.456  0.9481 -0.2468  1.3602
12568SOL    HW243668   1.760   5.815   3.425  0.8759  2.3434  0.5597
12569SOL     OW43669   1.694   5.980   6.158 -0.1596 -0.0728  0.4852
12569SOL    HW143670   1.621   5.925   6.187 -2.2880  1.7672 -1.0175
12569SOL    HW243671   1.695   5.970   6.063  0.7890  0.8434  0.3811
12570SOL     OW43672   6.616   6.089  10.192  0.0672 -0.2130 -0.1932
12570SOL    HW143673   6.546   6.098  10.128 -0.0633 -0.0309 -0.0232
12570SOL    HW243674   6.697   6.093  10.140 -0.0253  0.4003 -0.2978
12571SOL     OW43675   7.445   0.015   8.836 -0.3411  0.1385 -0.1213
12571SOL    HW143676   7.404  -0.028   8.760 -0.3223 -0.8779  0.4317
12571SOL    HW243677   7.479  -0.057   8.889 -0.1058  0.8570  0.7216
12572SOL     OW43678   4.486   4.929   8.403  0.1649  0.1977 -0.3077
12572SOL    HW143679   4.422   4.900   8.338  1.1119 -1.2725 -0.6276
12572SOL    HW243680   4.563   4.953   8.353  1.0049 -1.2167  0.2311
12573SOL     OW43681   6.869   1.590   5.545 -0.2651 -0.8404  0.1649
12573SOL    HW143682   6.829   1.672   5.516 -0.9900 -1.2358  0.0287
12573SOL    HW243683   6.943   1.577   5.485 -1.1717 -1.1526 -0.9015
12574SOL     OW43684   3.194  10.627   5.669 -0.0748 -0.1924 -0.2944
12574SOL    HW143685   3.288  10.646   5.675 -0.3138  0.8219  0.8670
12574SOL    HW243686   3.160  10.694   5.610 -0.3962  0.9449  1.1219
12575SOL     OW43687   0.043  10.839   4.941 -0.3872  0.1950 -0.2777
12575SOL    HW143688   0.067  10.783   5.015 -0.8867  0.7014  0.2742
12575SOL    HW243689   0.056  10.928   4.973 -1.8947  0.4602 -0.3230
12576SOL     OW43690   0.794  10.857   9.293  0.1173 -0.0710  0.0160
12576SOL    HW143691   0.728  10.840   9.360 -1.6165  1.0724 -1.3004
12576SOL    HW243692   0.769  10.800   9.220  0.8686  0.0592 -0.3541
12577SOL     OW43693   8.528   9.619   4.409 -0.3509 -0.1695  0.2841
12577SOL    HW143694   8.448   9.641   4.361 -1.1495 -1.2486  1.0342
12577SOL    HW243695   8.577   9.701   4.414 -2.5092  1.1400  1.8057
12578SOL     OW43696   0.715   3.509   8.094 -0.0218  0.1002  0.2452
12578SOL    HW143697   0.809   3.523   8.083 -0.5258  3.1352 -1.2053
12578SOL    HW243698   0.691   3.448   8.024  0.6118  0.5454 -0.3674
12579SOL     OW43699  10.053   8.345  11.293 -0.5066  0.1200 -0.3202
12579SOL    HW143700  10.077   8.329  11.202 -0.3034 -1.7373  0.0136
12579SOL    HW243701   9.969   8.301  11.304  0.5172 -1.6874  0.9162
12580SOL     OW43702   4.194   1.895  12.109  0.1423 -0.3060 -0.4911
12580SOL    HW143703   4.281   1.857  12.123  0.6323  1.0588  0.2663
12580SOL    HW243704   4.208   1.989  12.110 -1.0446 -0.0516 -2.3876
12581SOL     OW43705   9.822   6.104  11.809  0.1056 -0.1781  0.0237
12581SOL    HW143706   9.917   6.100  11.800  0.0282 -0.4815 -0.7076
12581SOL    HW243707   9.792   6.014  11.792 -0.4634  0.2997 -1.7559
12582SOL     OW43708   1.550   9.810   9.155  0.0595 -0.3281  0.2520
12582SOL    HW143709   1.523   9.730   9.200 -2.5236  1.1076  1.4875
12582SOL    HW243710   1.586   9.866   9.223 -1.1334  0.7310  0.0713
12583SOL     OW43711   7.644   9.734  12.352  0.0124 -0.4743 -0.3003
12583SOL    HW143712   7.643   9.828  12.333  2.3912 -0.5946 -1.3786
12583SOL    HW243713   7.716   9.700  12.299  1.2691 -2.3854  2.4444
12584SOL     OW43714   4.914  11.329   7.274 -0.3096 -0.1249  0.4172
12584SOL    HW143715   4.884  11.416   7.302 -0.2379  0.1118 -0.2172
12584SOL    HW243716   5.004  11.325   7.304 -0.4982 -0.2290  0.9875
12585SOL     OW43717   9.079   1.162   8.715  0.5343  0.2581 -0.1863
12585SOL    HW143718   9.171   1.153   8.742  1.6962  0.8957 -3.4796
12585SOL    HW243719   9.075   1.248   8.674 -1.9059  0.7290  0.8575
12586SOL     OW43720   7.417   8.878  12.156 -0.2893 -0.4854 -0.7201
12586SOL    HW143721   7.483   8.840  12.214 -0.5017 -0.8314 -0.6975
12586SOL    HW243722   7.372   8.943  12.210  0.6144  0.3953 -0.9997
12587SOL     OW43723  11.841   3.317   7.714  0.5911  0.2561  0.1128
12587SOL    HW143724  11.767   3.366   7.678  1.1649  1.2019  0.1778
12587SOL    HW243725  11.872   3.371   7.787  1.7549  0.2332 -0.3315
12588SOL     OW43726   0.957   5.103   3.576  0.1181 -0.0208 -0.2025
12588SOL    HW143727   0.929   5.171   3.515 -0.6504  0.9736  1.2226
12588SOL    HW243728   1.047   5.128   3.599  0.8395 -1.0346 -1.7528
12589SOL     OW43729   1.174   3.653   0.316 -0.0186 -0.0951 -0.0114
12589SOL    HW143730   1.163   3.564   0.349  0.2694 -0.4951 -0.9636
12589SOL    HW243731   1.097   3.700   0.349 -0.4338 -0.8223  0.0856
12590SOL     OW43732   2.366   7.137   7.841 -0.2890  0.1064  0.4090
12590SOL    HW143733   2.299   7.090   7.891 -0.6711 -0.2319 -0.3968
12590SOL    HW243734   2.351   7.110   7.750  0.3297  0.7765  0.0986
12591SOL     OW43735   3.133   3.607   5.637 -0.9403  0.2626  0.3241
12591SOL    HW143736   3.041   3.598   5.612 -0.4004 -2.2822 -1.0815
12591SOL    HW243737   3.171   3.520   5.623  1.6521  1.1658  1.0808
12592SOL     OW43738   1.894  10.824   3.569  0.2783  0.0275  0.0071
12592SOL    HW143739   1.847  10.753   3.525  0.9418 -0.0411 -0.6186
12592SOL    HW243740   1.839  10.901   3.558  0.4155  0.0029 -0.9328
12593SOL     OW43741   1.517   0.222  12.354  0.1713 -0.4776  0.3695
12593SOL    HW143742   1.579   0.230  12.282  2.1218 -1.8284  1.7888
12593SOL    HW243743   1.432   0.247  12.317  1.4479  0.8225 -1.8083
12594SOL     OW43744   0.273   8.555   3.891 -0.3163  0.0817  0.3954
12594SOL    HW143745   0.215   8.519   3.958  0.8949 -3.0116 -0.0493
12594SOL    HW243746   0.360   8.554   3.932  0.1429 -0.0539 -0.5565
12595SOL     OW43747   2.442  11.221   9.290  0.1786 -0.3897  0.0659
12595SOL    HW143748   2.533  11.196   9.274  0.1020 -0.3119 -0.5223
12595SOL    HW243749   2.406  11.150   9.343  0.7777 -0.0679  0.9168
12596SOL     OW43750   9.311   7.574  10.649  0.0377 -0.1568 -0.5325
12596SOL    HW143751   9.225   7.604  10.678  0.1462  1.4442 -1.6992
12596SOL    HW243752   9.373   7.619  10.706  0.3385  4.2896 -3.7697
12597SOL     OW43753   9.807  11.080  10.132  0.1728 -0.5515  0.4008
12597SOL    HW143754   9.768  10.993  10.129  2.2115 -1.5657  1.5009
12597SOL    HW243755   9.893  11.070  10.091  0.9655  0.5993  1.6749
12598SOL     OW43756   9.952   2.624   4.099  0.8713  0.1495 -0.7851
12598SOL    HW143757   9.887   2.555   4.098 -0.0652  0.9933  0.0489
12598SOL    HW243758   9.993   2.620   4.012  0.5514 -1.1616 -0.8911
12599SOL     OW43759   7.571   6.277   2.220  0.4345  0.6051 -0.0046
12599SOL    HW143760   7.504   6.262   2.286  0.7221  1.1148  0.4062
12599SOL    HW243761   7.603   6.366   2.237  1.0296  0.4673 -0.3621
12600SOL     OW43762   4.851  12.085   8.423 -0.1312 -0.4343  0.5385
12600SOL    HW143763   4.892  12.011   8.378  2.2928  1.3722 -0.4189
12600SOL    HW243764   4.907  12.102   8.498 -0.0724  1.0283  0.1891
12601SOL     OW43765  12.064   1.393   2.138 -0.4507  0.3329 -0.0995
12601SOL    HW143766  12.137   1.376   2.078 -1.5234 -1.7898 -0.9296
12601SOL    HW243767  11.986   1.376   2.085 -1.4740 -0.4326  1.5895
12602SOL     OW43768   8.302   7.282   7.456  0.1266  0.7017  0.0504
12602SOL    HW143769   8.396   7.287   7.472  0.1287 -0.3423  0.4428
12602SOL    HW243770   8.262   7.290   7.543 -0.1487  0.9898 -0.0965
12603SOL     OW43771  10.113   0.780   2.438 -0.5442  0.2241 -0.2836
12603SOL    HW143772  10.021   0.793   2.460 -0.6536 -0.4345 -0.3326
12603SOL    HW243773  10.117   0.691   2.403  0.2264 -0.0128  0.3870
12604SOL     OW43774  10.518  11.326  11.012 -0.0652  0.2779 -0.4251
12604SOL    HW143775  10.490  11.234  11.022  0.9443 -0.0403 -0.4179
12604SOL    HW243776  10.436  11.374  11.000 -0.7642 -0.4146  1.1441
12605SOL     OW43777   6.057   5.504  10.691  0.6475 -0.3683 -0.1124
12605SOL    HW143778   6.092   5.559  10.760 -2.1705 -1.2211  2.1706
12605SOL    HW243779   6.043   5.419  10.733  0.2038 -1.3663 -2.1504
12606SOL     OW43780   4.962   8.286   4.211 -0.5803  0.2461  0.1004
12606SOL    HW143781   5.041   8.321   4.170 -0.3086  0.8363  1.0771
12606SOL    HW243782   4.966   8.318   4.302 -1.1072 -1.0873  0.6122
12607SOL     OW43783   3.522  11.268  12.234 -0.1049  0.6221  0.2782
12607SOL    HW143784   3.483  11.313  12.308 -2.7531  0.1653 -0.7309
12607SOL    HW243785   3.532  11.335  12.166 -0.1469  0.5226  0.1728
12608SOL     OW43786   8.884   1.117   2.369  0.4465  0.2606  0.3449
12608SOL    HW143787   8.845   1.073   2.294  1.0972 -0.0586  0.1901
12608SOL    HW243788   8.902   1.047   2.432 -0.1782  0.5337  0.8523
12609SOL     OW43789   1.018   4.992  11.949  0.4047 -0.5833 -0.4671
12609SOL    HW143790   1.102   5.036  11.966 -0.0669  0.0675  0.1981
12609SOL    HW243791   0.977   5.045  11.881 -0.0055 -0.1992  0.0780
12610SOL     OW43792  11.572   7.608  10.410  0.1945  0.0743 -0.3670
12610SOL    HW143793  11.548   7.647  10.494 -1.2173 -0.5271 -0.4612
12610SOL    HW243794  11.561   7.514  10.423  0.1502 -0.0422 -1.1767
12611SOL     OW43795   6.796  10.901   1.517  0.5075 -0.0944  0.0071
12611SOL    HW143796   6.861  10.960   1.479 -0.5459  0.1313 -1.5499
12611SOL    HW243797   6.824  10.813   1.489  0.0209  0.0270 -0.9145
12612SOL     OW43798   2.694   9.608  10.960 -0.3678  0.8612 -0.0442
12612SOL    HW143799   2.696   9.589  11.054 -0.7994  0.1935 -0.1716
12612SOL    HW243800   2.604   9.593  10.934 -0.1379  0.5530 -0.6719
12613SOL     OW43801   1.592  10.042   1.475  0.6197 -0.0566  0.3255
12613SOL    HW143802   1.636  10.114   1.430  2.1638 -1.3940 -0.3957
12613SOL    HW243803   1.651  10.018   1.546  1.2343 -1.9864 -0.7470
12614SOL     OW43804   4.130   4.514   2.258  0.1770 -0.4121 -0.1851
12614SOL    HW143805   4.215   4.556   2.263 -1.2054  2.5403  1.1433
12614SOL    HW243806   4.075   4.577   2.211 -2.0532 -0.5443  2.0118
12615SOL     OW43807  11.545  11.923   4.117  0.1384  0.2109  0.2409
12615SOL    HW143808  11.602  11.949   4.189  0.5724  0.5294 -0.2056
12615SOL    HW243809  11.571  11.833   4.097  1.6463  0.8698 -1.0153
12616SOL     OW43810  11.159   5.090  11.244 -0.5794  0.1589 -0.0432
12616SOL    HW143811  11.090   5.062  11.184  1.5610  1.7765 -3.6103
12616SOL    HW243812  11.222   5.018  11.242 -0.4543  0.2617  0.2095
12617SOL     OW43813   8.067   9.928   0.269  0.6517  0.5691  0.0018
12617SOL    HW143814   8.087   9.905   0.360 -0.2790 -1.2226 -0.1959
12617SOL    HW243815   8.121   9.868   0.218 -0.2217  0.2841 -0.5973
12618SOL     OW43816   8.597  11.294   4.145  0.0333 -0.2372 -0.2167
12618SOL    HW143817   8.595  11.209   4.189 -1.3479 -0.7764 -1.2468
12618SOL    HW243818   8.553  11.353   4.206 -0.7700 -0.7115 -0.3162
12619SOL     OW43819   7.177   8.294   6.918  0.1061  0.4349  0.5821
12619SOL    HW143820   7.211   8.258   6.836 -2.8239 -0.6069 -0.3087
12619SOL    HW243821   7.111   8.358   6.891  0.4527  1.5316  2.1783
12620SOL     OW43822   2.610  12.384   5.853  0.2422  0.2927  0.1009
12620SOL    HW143823   2.701  12.360   5.866  0.3786  0.9785  0.4910
12620SOL    HW243824   2.585  12.343   5.770  0.8605 -0.0102  0.0617
12621SOL     OW43825   3.139   8.774   4.959 -0.4262 -1.0074 -0.0038
12621SOL    HW143826   3.151   8.816   5.044  0.0184 -0.4199 -0.3549
12621SOL    HW243827   3.053   8.731   4.966 -1.4854  0.9810 -0.0638
12622SOL     OW43828  12.375  10.533   4.313  0.0916  0.2176  0.0991
12622SOL    HW143829  12.293  10.521   4.361 -1.6194  3.7706 -1.5516
12622SOL    HW243830  12.355  10.503   4.225  1.2017 -0.5404  0.0867
12623SOL     OW43831   8.620  11.283   8.301  0.0330 -0.4216 -0.4286
12623SOL    HW143832   8.692  11.221   8.291  0.8347  0.6816 -1.9104
12623SOL    HW243833   8.661  11.369   8.293 -1.2113  0.2989  0.4524
12624SOL     OW43834  10.986   3.331   2.871  0.2524  0.1648 -0.3707
12624SOL    HW143835  10.921   3.263   2.857  1.2973 -1.2544  1.2641
12624SOL    HW243836  11.069   3.292   2.845  1.0923  0.1900  2.0194
12625SOL     OW43837   7.323   1.462   7.723  0.3728 -0.6039 -0.4682
12625SOL    HW143838   7.380   1.525   7.679 -1.0607  1.1366  0.0361
12625SOL    HW243839   7.310   1.498   7.811 -1.5130 -0.9028 -0.5752
12626SOL     OW43840   2.593   8.966   5.230  0.2794  0.0412  0.7568
12626SOL    HW143841   2.669   8.944   5.176  0.9922  0.4706  1.5655
12626SOL    HW243842   2.526   8.992   5.167  1.1551  0.7258  0.0843
12627SOL     OW43843  10.719   3.609   5.690  0.0522 -0.1001  0.4688
12627SOL    HW143844  10.746   3.699   5.673  0.3614 -0.5516 -1.7218
12627SOL    HW243845  10.643   3.596   5.633  1.2738 -1.8203 -0.8489
12628SOL     OW43846   6.137   1.696   8.214 -0.0209  0.5671 -0.2852
12628SOL    HW143847   6.198   1.769   8.209  0.2126  1.0066  4.5277
12628SOL    HW243848   6.183   1.623   8.171  2.2885  1.7992 -0.0376
12629SOL     OW43849  11.383   6.206   1.677 -0.4862  0.0214 -0.1580
12629SOL    HW143850  11.385   6.176   1.767 -1.3131  1.6643  0.4520
12629SOL    HW243851  11.435   6.142   1.629  1.1330 -0.1495  1.6921
12630SOL     OW43852   5.938   4.912   3.526 -0.9204  0.0470 -0.1149
12630SOL    HW143853   5.989   4.992   3.518 -2.5615  1.0089 -2.1100
12630SOL    HW243854   5.999   4.847   3.560  0.9860  1.6613 -0.2875
12631SOL     OW43855   5.774  11.197   7.032 -0.1396 -0.1240  0.4627
12631SOL    HW143856   5.765  11.136   7.105  1.3387  2.2928  2.8131
12631SOL    HW243857   5.868  11.215   7.027 -0.4930  1.7098 -0.3250
12632SOL     OW43858   6.892   6.738  12.005  0.2338  0.4719  0.3306
12632SOL    HW143859   6.976   6.744  11.960 -0.1622  0.5325 -0.4350
12632SOL    HW243860   6.893   6.808  12.070  0.6359  0.6984  0.0819
12633SOL     OW43861   8.817   8.769   1.765 -0.0855 -0.1201  0.2142
12633SOL    HW143862   8.745   8.712   1.737  0.4541 -0.5392 -0.3639
12633SOL    HW243863   8.781   8.821   1.837 -1.4017  0.6675 -0.9595
12634SOL     OW43864   6.508   0.868   0.104 -0.2230 -0.1749 -0.1757
12634SOL    HW143865   6.454   0.934   0.061  0.1702  0.6901  0.6167
12634SOL    HW243866   6.589   0.915   0.127  0.3368 -1.1097 -0.1918
12635SOL     OW43867   8.714   5.027   9.168  0.4918 -0.2172 -0.3109
12635SOL    HW143868   8.775   4.957   9.146 -0.0875 -1.3118  1.4410
12635SOL    HW243869   8.627   4.990   9.152  0.1725  0.0273  0.7886
12636SOL     OW43870  11.516  12.139   3.320  0.3576  0.8710  0.2945
12636SOL    HW143871  11.482  12.208   3.376 -1.0270 -0.0850  0.6892
12636SOL    HW243872  11.444  12.117   3.261  0.1536 -1.3117  1.2437
12637SOL     OW43873   3.408   3.180   5.023 -0.4213 -0.2250  0.3735
12637SOL    HW143874   3.463   3.221   5.090 -0.7740  0.1405  0.4448
12637SOL    HW243875   3.333   3.145   5.071 -1.1151  0.8107  0.0752
12638SOL     OW43876   4.162   1.225   1.487  0.4052  0.3651  0.4660
12638SOL    HW143877   4.112   1.151   1.521 -0.1384  0.7773  0.5964
12638SOL    HW243878   4.254   1.203   1.503  0.1686  0.9256  3.1261
12639SOL     OW43879   9.370   8.030   4.467 -0.6178  0.2053  0.3620
12639SOL    HW143880   9.452   8.032   4.516 -0.9190 -2.4268  1.1329
12639SOL    HW243881   9.376   7.951   4.413 -3.6003 -1.5804  2.3683
12640SOL     OW43882   2.888   4.823   5.522  0.3868  0.2712 -0.7149
12640SOL    HW143883   2.884   4.869   5.438  1.1375 -1.3780 -1.7105
12640SOL    HW243884   2.797   4.825   5.554  0.1221  1.0805 -1.4622
12641SOL     OW43885   6.622  11.022  10.437 -0.9897  0.2372  0.0322
12641SOL    HW143886   6.678  11.021  10.515 -0.0010 -2.4967 -0.5919
12641SOL    HW243887   6.682  11.036  10.364 -1.9074  2.7967 -0.3443
12642SOL     OW43888   8.289  12.249   1.546 -0.1048  0.2431  0.3356
12642SOL    HW143889   8.327  12.325   1.589  1.7002 -1.0294  1.1409
12642SOL    HW243890   8.198  12.248   1.576  0.2051  1.3043  1.4244
12643SOL     OW43891   7.724   9.755   7.233  0.1742 -0.2318  0.3820
12643SOL    HW143892   7.785   9.750   7.159 -0.6301 -1.1333 -0.2554
12643SOL    HW243893   7.769   9.809   7.298  0.5614  1.3005 -1.0932
12644SOL     OW43894   8.826   7.363   3.459 -0.9968 -0.2072 -0.4584
12644SOL    HW143895   8.860   7.292   3.514 -2.0815 -0.1870  0.2689
12644SOL    HW243896   8.783   7.318   3.386 -0.7290 -0.2660 -0.5816
12645SOL     OW43897  11.929   5.063   7.023 -0.2231  0.0532  0.4539
12645SOL    HW143898  11.902   5.130   7.086 -0.1054 -0.5050  1.1123
12645SOL    HW243899  11.879   4.986   7.047 -1.5372  0.2936 -1.2770
12646SOL     OW43900   7.951  10.304   1.484 -0.6564  0.0539  0.5306
12646SOL    HW143901   7.913  10.244   1.548 -0.5324 -0.2717  0.3031
12646SOL    HW243902   7.885  10.372   1.474 -0.5136  0.3122  1.2849
12647SOL     OW43903   1.189   5.925   4.630  0.2504 -0.0858  0.0232
12647SOL    HW143904   1.283   5.923   4.651 -0.0894 -2.1822  1.7547
12647SOL    HW243905   1.183   5.882   4.545  0.8410 -0.2899  0.0782
12648SOL     OW43906   6.308   2.712   4.956 -0.1459 -0.1583 -0.7699
12648SOL    HW143907   6.394   2.745   4.983 -1.4716  1.2655  2.2451
12648SOL    HW243908   6.259   2.790   4.929 -1.0525 -0.6780 -0.6797
12649SOL     OW43909   4.299  11.537   7.306  0.8887 -0.4045 -0.2519
12649SOL    HW143910   4.231  11.528   7.240  0.1884 -2.5131  0.6638
12649SOL    HW243911   4.361  11.467   7.287  1.6842  0.1450  0.2194
12650SOL     OW43912   2.079   0.246  11.906 -0.1622 -0.4489 -0.0142
12650SOL    HW143913   2.083   0.306  11.981 -1.6122  0.6812 -0.7987
12650SOL    HW243914   2.146   0.181  11.925 -1.0487 -0.7219  2.7170
12651SOL     OW43915   3.582   0.477   9.054  0.1452  0.7314 -0.6879
12651SOL    HW143916   3.648   0.514   9.114  0.7952  0.4919 -1.2512
12651SOL    HW243917   3.625   0.402   9.014 -0.9192 -0.2155 -0.1134
12652SOL     OW43918   8.145   1.702   8.216  0.4082 -0.4178 -0.1414
12652SOL    HW143919   8.108   1.648   8.146  0.3374 -0.4245 -0.0983
12652SOL    HW243920   8.177   1.780   8.171 -0.2760 -0.0968 -0.0939
12653SOL     OW43921   9.724   1.114   2.504  0.1054 -0.2974 -0.2322
12653SOL    HW143922   9.672   1.194   2.495 -0.8540 -0.6918  1.2967
12653SOL    HW243923   9.799   1.140   2.558  0.4981 -0.1529 -0.8383
12654SOL     OW43924   8.849  11.483   8.793 -0.3444 -0.3993 -0.0883
12654SOL    HW143925   8.866  11.427   8.717 -2.7796 -0.3626 -0.7509
12654SOL    HW243926   8.892  11.438   8.866  0.3994 -1.4764 -1.1468
12655SOL     OW43927  11.057   1.530   0.791  0.8306 -0.5064 -0.2879
12655SOL    HW143928  11.088   1.443   0.817  0.9517 -0.2133  0.5861
12655SOL    HW243929  11.045   1.524   0.696 -2.3915 -2.5176  0.0692
12656SOL     OW43930   0.539   2.612   0.283  0.6552 -0.0808 -0.3293
12656SOL    HW143931   0.492   2.544   0.236 -1.5947  0.0543  1.5549
12656SOL    HW243932   0.529   2.690   0.228  0.7704 -0.5875 -1.0893
12657SOL     OW43933   1.547   7.923   3.382  0.2391 -0.9305  0.0896
12657SOL    HW143934   1.621   7.938   3.441 -0.6141 -1.1447  1.2444
12657SOL    HW243935   1.585   7.929   3.294  1.6080 -0.9709  0.6524
12658SOL     OW43936   3.197   1.931   9.146 -0.0809  0.6925 -0.2985
12658SOL    HW143937   3.281   1.890   9.169  0.2418  1.4762 -0.0511
12658SOL    HW243938   3.159   1.872   9.080  0.9144  0.6114 -0.8251
12659SOL     OW43939   6.027  10.649   7.443  0.4894 -0.1092  0.2372
12659SOL    HW143940   6.016  10.741   7.418  0.8801 -0.1593 -0.1296
12659SOL    HW243941   6.119  10.631   7.427 -0.3211 -1.7058 -3.6285
12660SOL     OW43942   6.123  10.512   2.945  0.6992  0.5110  0.2422
12660SOL    HW143943   6.216  10.494   2.956  0.5906  0.1200  0.5539
12660SOL    HW243944   6.092  10.444   2.886  0.8647  1.3996 -0.8977
12661SOL     OW43945   0.333   4.767  11.108  0.4927 -0.1418 -0.0301
12661SOL    HW143946   0.274   4.693  11.124  1.0881 -0.6682 -0.1889
12661SOL    HW243947   0.421   4.730  11.120  1.0234 -0.5072 -3.8894
12662SOL     OW43948   3.058  10.956   9.599  1.2594  0.7210 -0.2773
12662SOL    HW143949   3.098  10.869   9.604  1.5081  0.8606  0.2037
12662SOL    HW243950   3.114  11.005   9.539 -0.0651 -0.0687 -2.2882
12663SOL     OW43951   9.678   0.008   5.771 -0.0601 -0.6156  0.3217
12663SOL    HW143952   9.662  -0.086   5.762 -0.0430 -0.5387 -0.5743
12663SOL    HW243953   9.687   0.040   5.681  1.1277  0.0405  0.6472
12664SOL     OW43954   5.686  11.115   8.277 -0.6500 -0.1496  0.0869
12664SOL    HW143955   5.648  11.084   8.360  0.2068 -1.7365 -0.0707
12664SOL    HW243956   5.625  11.084   8.210  0.0383 -1.2609 -0.0471
12665SOL     OW43957   6.509  10.149   5.135 -0.0573 -0.2469  0.0542
12665SOL    HW143958   6.472  10.235   5.112 -0.2615  0.4058  2.5375
12665SOL    HW243959   6.576  10.169   5.200 -1.1949 -2.0355  1.8870
12666SOL     OW43960   2.431   3.921   3.759 -0.5171  0.2112 -0.2163
12666SOL    HW143961   2.369   3.987   3.790  0.0753 -0.0322  1.6160
12666SOL    HW243962   2.398   3.895   3.674 -0.2080  3.6324 -1.5380
12667SOL     OW43963   6.614   9.193   1.503  0.0934 -0.5191  0.2878
12667SOL    HW143964   6.685   9.182   1.440  1.1404 -0.1021  1.3517
12667SOL    HW243965   6.563   9.267   1.469 -1.0619 -2.0655 -1.5407
12668SOL     OW43966   4.316   2.652   1.912  0.5137 -0.1127  0.3522
12668SOL    HW143967   4.251   2.695   1.968 -0.5748 -0.5214 -0.5552
12668SOL    HW243968   4.400   2.677   1.950 -0.1448  0.9635  1.1834
12669SOL     OW43969   9.346   7.215   1.850 -0.2381  0.7115 -0.1328
12669SOL    HW143970   9.424   7.173   1.886  0.5576  2.9593  0.9777
12669SOL    HW243971   9.273   7.175   1.898  0.1829 -1.2330 -1.0042
12670SOL     OW43972   3.854   5.508   7.273  0.2347 -0.4231  0.3620
12670SOL    HW143973   3.926   5.493   7.212 -0.9631 -0.8666 -0.9901
12670SOL    HW243974   3.856   5.602   7.289 -0.3802 -0.0202 -1.6380
12671SOL     OW43975   6.794   1.033   9.429 -0.2271 -0.3965 -0.2401
12671SOL    HW143976   6.843   0.989   9.359  0.4001  1.3485 -0.9468
12671SOL    HW243977   6.856   1.095   9.467 -1.4906  0.9883 -0.3306
12672SOL     OW43978   2.240  10.500  10.811 -0.0665 -0.2736 -0.2453
12672SOL    HW143979   2.284  10.423  10.773  0.7177 -0.4933  1.0512
12672SOL    HW243980   2.153  10.469  10.834 -0.3551 -0.2919 -1.2973
12673SOL     OW43981   2.096   3.804   2.360  0.7177  0.3592 -0.5535
12673SOL    HW143982   2.103   3.872   2.427  0.8672  0.4844 -0.6948
12673SOL    HW243983   2.172   3.819   2.304  0.4533  0.4160 -0.8972
12674SOL     OW43984   5.514   8.995   5.399 -0.2537  0.0481  0.0831
12674SOL    HW143985   5.426   9.020   5.426 -0.3291 -0.5610  0.4153
12674SOL    HW243986   5.517   9.014   5.305 -1.5108 -1.9809 -0.4425
12675SOL     OW43987   4.510   8.818   3.670  0.2377  0.0951  0.3437
12675SOL    HW143988   4.416   8.815   3.649  0.1616 -0.0160  0.6957
12675SOL    HW243989   4.542   8.730   3.649 -0.2128 -0.6228  2.3830
12676SOL     OW43990   2.935   2.260   7.383  0.6980 -0.4260 -0.2415
12676SOL    HW143991   2.932   2.169   7.412  1.2523 -0.7493 -1.1741
12676SOL    HW243992   3.024   2.272   7.350  0.5026  0.3299 -0.5143
12677SOL     OW43993  12.387   4.019  10.157  0.1225 -0.6294  0.0589
12677SOL    HW143994  12.394   3.970  10.075 -0.1051  0.0462 -0.3808
12677SOL    HW243995  12.374   4.110  10.129  0.4253 -0.3335  0.8488
12678SOL     OW43996   3.964   0.358   2.197  0.4003  0.3584 -0.2695
12678SOL    HW143997   3.909   0.284   2.219  1.7794 -0.4500  0.6263
12678SOL    HW243998   4.043   0.319   2.158  1.4501  1.2684  0.8556
12679SOL     OW43999   0.005   8.271   5.145 -0.1701 -0.3629  0.2094
12679SOL    HW144000  -0.031   8.338   5.087 -0.8279 -0.8800  0.0169
12679SOL    HW244001   0.099   8.270   5.124  0.0480  1.2137  0.9468
12680SOL     OW44002   3.176  10.787   2.529 -0.0259  0.2198 -0.4966
12680SOL    HW144003   3.166  10.744   2.615  0.1565 -0.3422 -0.7484
12680SOL    HW244004   3.243  10.854   2.543 -1.8199  1.9123  0.4388
12681SOL     OW44005   1.854  10.654   1.519 -0.2473  0.1091  0.7086
12681SOL    HW144006   1.940  10.649   1.477 -0.5195 -2.1242  0.2539
12681SOL    HW244007   1.810  10.726   1.476 -0.0423 -1.2836 -2.0498
12682SOL     OW44008   3.936   3.004   8.863 -0.2280  0.0736 -0.0582
12682SOL    HW144009   3.873   3.061   8.907 -0.1655  0.6122 -0.6503
12682SOL    HW244010   3.894   2.983   8.779 -0.6413 -1.4776  0.4986
12683SOL     OW44011   9.330   5.014   9.548 -0.3081  0.0625  0.1026
12683SOL    HW144012   9.302   4.940   9.495  0.0747  1.2886 -1.8998
12683SOL    HW244013   9.357   5.081   9.485  2.0127  0.9246  1.8398
12684SOL     OW44014   3.325  10.547   8.819 -0.4254 -0.3778  0.3796
12684SOL    HW144015   3.255  10.503   8.771  0.4259  0.2034 -1.5193
12684SOL    HW244016   3.315  10.639   8.795  0.4951 -0.1814  0.7148
12685SOL     OW44017  11.542   0.219   7.799 -0.1532  0.1435  0.9244
12685SOL    HW144018  11.557   0.153   7.867 -0.0477 -1.6764 -0.7768
12685SOL    HW244019  11.452   0.248   7.813  0.5198  1.3993  3.1030
12686SOL     OW44020   4.237   7.881   1.049  0.5805 -0.0770  0.4632
12686SOL    HW144021   4.307   7.894   0.986  2.7514 -1.4985  2.4207
12686SOL    HW244022   4.166   7.843   0.998  1.5498  0.5154 -1.4257
12687SOL     OW44023   4.656   4.955   8.937 -0.5311 -0.3119  0.6368
12687SOL    HW144024   4.677   5.048   8.923 -1.0403 -0.1152  1.1386
12687SOL    HW244025   4.561   4.953   8.948 -0.5784 -0.9632  0.1344
12688SOL     OW44026   6.510   1.618   7.948  0.2880  0.2679  0.1057
12688SOL    HW144027   6.557   1.584   7.872 -0.5317 -0.4163 -0.1112
12688SOL    HW244028   6.512   1.713   7.937 -1.3037  0.1562 -1.7169
12689SOL     OW44029   8.346   1.217   2.843 -0.0279 -0.0314  0.1234
12689SOL    HW144030   8.256   1.204   2.874 -0.6643 -1.0015 -1.9168
12689SOL    HW244031   8.368   1.306   2.870 -2.4801  1.0863 -1.1826
12690SOL     OW44032   5.030  11.070   1.592 -0.6350  0.0973 -0.1763
12690SOL    HW144033   5.098  11.031   1.538 -1.1064 -0.6170 -0.2592
12690SOL    HW244034   5.001  11.000   1.650 -0.9897  0.5165  0.1667
12691SOL     OW44035   9.519  10.397  12.371 -0.0438  0.5189 -0.2642
12691SOL    HW144036   9.450  10.340  12.406 -0.2544  1.4118  0.8441
12691SOL    HW244037   9.570  10.422  12.448 -0.6786  2.7868 -0.5123
12692SOL     OW44038   5.101   7.200   5.734  0.7074 -0.2859 -0.3174
12692SOL    HW144039   5.185   7.204   5.781 -0.1083 -0.4972  1.2080
12692SOL    HW244040   5.106   7.119   5.684  0.8700 -1.0621  0.9020
12693SOL     OW44041   3.279   8.916   7.356 -0.5138  0.3523  0.3454
12693SOL    HW144042   3.362   8.869   7.350 -0.6312  0.2100 -0.2945
12693SOL    HW244043   3.214   8.847   7.369 -0.5596  0.4396  0.5824
12694SOL     OW44044   2.678   9.434   9.002 -0.2295 -0.2418  0.2294
12694SOL    HW144045   2.611   9.488   8.960 -0.4400  0.2930  1.2325
12694SOL    HW244046   2.637   9.347   9.010 -0.2707 -0.2948 -0.4275
12695SOL     OW44047   1.995  10.950   7.696 -0.0632 -0.1442  0.1019
12695SOL    HW144048   1.907  10.931   7.661  0.2232 -2.2686  0.4216
12695SOL    HW244049   2.055  10.907   7.635  0.6018 -1.1078  1.3881
12696SOL     OW44050   4.063   0.846   3.272  1.0331 -0.7100 -0.3265
12696SOL    HW144051   4.149   0.847   3.314  0.3914 -0.8637  1.0585
12696SOL    HW244052   4.015   0.776   3.317  0.2764 -0.8341 -1.2907
12697SOL     OW44053   3.850  11.972   6.097 -0.2839  0.7398 -0.3840
12697SOL    HW144054   3.820  12.026   6.023  0.0338 -0.4359 -1.4008
12697SOL    HW244055   3.773  11.962   6.152 -1.6060 -1.3517 -2.4189
12698SOL     OW44056   7.518   5.145  10.901 -0.0349  0.1077 -0.0167
12698SOL    HW144057   7.595   5.141  10.957  0.4840  0.8438 -0.6497
12698SOL    HW244058   7.444   5.123  10.958  0.7226 -1.4988  0.3977
12699SOL     OW44059   4.576  11.524   4.300  0.0858  0.0038 -0.0531
12699SOL    HW144060   4.609  11.514   4.210 -0.4419  0.5503 -0.3068
12699SOL    HW244061   4.656  11.528   4.354  0.4060 -0.3047 -0.4933
12700SOL     OW44062   9.355   6.210  10.502  0.3865 -0.3751  0.1797
12700SOL    HW144063   9.302   6.223  10.424 -0.3298  0.9804  0.8500
12700SOL    HW244064   9.352   6.116  10.518  0.7897 -0.7219 -1.5616
12701SOL     OW44065   1.283   9.910  11.144  0.2747  0.1887  0.2373
12701SOL    HW144066   1.239   9.966  11.209  2.1586  1.8112  0.2163
12701SOL    HW244067   1.375   9.913  11.169  0.9381  0.2326 -2.0558
12702SOL     OW44068  11.228  11.394   5.071  0.6383  0.0073 -0.2318
12702SOL    HW144069  11.286  11.373   5.145 -0.0281 -0.2464  0.2311
12702SOL    HW244070  11.182  11.473   5.098 -1.1179 -1.2228  0.5407
12703SOL     OW44071   0.223   8.656   7.971  0.2123  0.4230 -0.4271
12703SOL    HW144072   0.135   8.634   8.003 -0.2160  0.1876 -1.7024
12703SOL    HW244073   0.218   8.747   7.945 -0.2163 -0.0711 -2.2115
12704SOL     OW44074   5.864   6.391  10.091 -0.4069 -0.2984 -0.3698
12704SOL    HW144075   5.951   6.392  10.049 -0.7985  1.5263 -1.1975
12704SOL    HW244076   5.837   6.299  10.086  0.3427 -0.4526 -2.5196
12705SOL     OW44077   7.733   8.413   4.018 -0.6632  0.0546  0.4886
12705SOL    HW144078   7.754   8.419   4.111 -2.3502  0.0492  0.8836
12705SOL    HW244079   7.694   8.327   4.007  2.5338 -1.3914 -0.9100
12706SOL     OW44080  10.932  11.473   1.906 -0.6259 -0.7416  0.5513
12706SOL    HW144081  11.005  11.488   1.846 -1.1752 -0.0564  0.0354
12706SOL    HW244082  10.934  11.379   1.923 -1.5220 -1.2967 -1.9890
12707SOL     OW44083   3.280   4.169   2.404  0.5331  0.2236  0.1930
12707SOL    HW144084   3.237   4.117   2.471 -0.2363  0.2141 -0.3061
12707SOL    HW244085   3.358   4.118   2.381  0.2270 -0.2964  0.3005
12708SOL     OW44086   4.740   2.170   6.249 -0.0763 -0.0506  0.0518
12708SOL    HW144087   4.814   2.158   6.189  1.0437  0.7067  1.2273
12708SOL    HW244088   4.699   2.084   6.254  0.1789 -0.2648 -1.3228
12709SOL     OW44089   8.118   9.056   0.010 -0.6473  0.2369 -0.0403
12709SOL    HW144090   8.115   8.971   0.054 -1.1153 -0.8506 -2.0589
12709SOL    HW244091   8.035   9.098   0.035 -0.6181 -0.0771  0.6059
12710SOL     OW44092   6.128   7.026   2.311 -0.1855 -0.2317 -0.2085
12710SOL    HW144093   6.217   6.998   2.291  0.1318  1.3956 -1.2666
12710SOL    HW244094   6.138   7.087   2.384 -0.2654  0.8481 -1.0756
12711SOL     OW44095   9.999   8.771  11.448 -0.4054  0.3273 -0.4582
12711SOL    HW144096  10.084   8.811  11.432 -0.6159  0.3514 -1.5872
12711SOL    HW244097   9.939   8.846  11.457 -0.5300  0.2887 -0.9760
12712SOL     OW44098  10.373   4.469   6.092 -0.3694 -0.1356 -0.5578
12712SOL    HW144099  10.351   4.508   6.176  0.9717  0.1092 -0.3104
12712SOL    HW244100  10.383   4.376   6.110 -0.7739 -0.1918 -0.5991
12713SOL     OW44101   0.327   6.764   2.597 -0.0702 -0.4256  0.3271
12713SOL    HW144102   0.399   6.701   2.601 -0.6579 -1.1912 -0.7667
12713SOL    HW244103   0.271   6.742   2.671  1.0723  0.5372  1.5319
12714SOL     OW44104   1.810   6.557  12.024  0.7148 -0.0244 -0.2076
12714SOL    HW144105   1.817   6.588  12.114 -1.7675 -1.4682  0.5604
12714SOL    HW244106   1.818   6.462  12.030  0.9119 -0.1172 -1.5693
12715SOL     OW44107  10.003   9.482   0.461  0.1400  0.6289 -0.6987
12715SOL    HW144108  10.072   9.460   0.398  0.8880 -0.5306  0.4778
12715SOL    HW244109  10.016   9.575   0.479  0.9582  0.5807 -1.0162
12716SOL     OW44110  11.092   2.953  11.377  0.2489  0.2647 -0.3072
12716SOL    HW144111  11.066   2.896  11.305 -0.5230  1.0977 -0.7091
12716SOL    HW244112  11.045   3.035  11.361  1.3750  1.0422  0.2147
12717SOL     OW44113   3.379   0.745   9.670 -0.0294  0.7577  0.6557
12717SOL    HW144114   3.308   0.764   9.732  1.1105 -1.9291  2.9798
12717SOL    HW244115   3.362   0.656   9.640  2.2661  0.0646  1.2316
12718SOL     OW44116   8.486   1.050   2.335 -0.1352 -0.3220 -0.3176
12718SOL    HW144117   8.425   1.087   2.270  0.8831  1.4504 -0.3459
12718SOL    HW244118   8.551   1.119   2.347  0.9276 -1.5076  0.9644
12719SOL     OW44119  11.211  10.718   9.025  0.6152 -0.1714  0.2803
12719SOL    HW144120  11.205  10.802   9.071  0.3362  0.4383 -0.8336
12719SOL    HW244121  11.150  10.661   9.071  2.0956 -0.3369  2.1752
12720SOL     OW44122   0.646   7.947   6.350 -0.2100  0.3071 -0.7245
12720SOL    HW144123   0.627   8.039   6.369  0.4223  0.2765  0.0956
12720SOL    HW244124   0.742   7.942   6.349 -0.2254 -0.4999  0.0961
12721SOL     OW44125   4.832   6.620  11.272 -0.0588 -0.3483  0.6579
12721SOL    HW144126   4.912   6.624  11.325  0.5481  0.8590 -0.2772
12721SOL    HW244127   4.863   6.598  11.184 -0.4812  1.8307 -0.1187
12722SOL     OW44128   3.458   6.544   7.173 -0.8539  0.5987 -0.4319
12722SOL    HW144129   3.503   6.571   7.252  1.2338 -1.6502 -0.7197
12722SOL    HW244130   3.528   6.530   7.109 -2.3305  0.6636 -2.1402
12723SOL     OW44131   1.227  10.660   2.281 -0.4672 -0.1173 -0.0012
12723SOL    HW144132   1.132  10.656   2.277 -0.6608 -0.8461  3.0298
12723SOL    HW244133   1.248  10.753   2.275 -1.2192 -0.0168 -1.7644
12724SOL     OW44134   2.985   9.249   7.471 -0.0234 -0.5336 -0.0283
12724SOL    HW144135   2.948   9.251   7.559  1.0697 -1.4279  0.4699
12724SOL    HW244136   3.046   9.322   7.469 -0.6012 -0.0409 -0.3228
12725SOL     OW44137   6.454   2.408  10.277 -0.7908 -0.4867 -0.1884
12725SOL    HW144138   6.532   2.361  10.307  1.0718  0.3671 -3.2204
12725SOL    HW244139   6.383   2.375  10.332  1.4529 -2.2581  1.8673
12726SOL     OW44140   8.196   6.980  11.317  0.4709 -0.0252  0.2484
12726SOL    HW144141   8.108   7.007  11.292 -0.9866 -1.5716  3.1789
12726SOL    HW244142   8.224   7.046  11.380  0.0650 -1.1319  1.6380
12727SOL     OW44143   1.821  10.928   2.382  0.1880 -0.0503 -0.1805
12727SOL    HW144144   1.810  10.999   2.446 -0.5636 -1.4475  1.3246
12727SOL    HW244145   1.737  10.923   2.337  0.8593  1.2266 -1.6738
12728SOL     OW44146  11.751   5.469   2.556 -0.3573  0.1801 -0.9793
12728SOL    HW144147  11.804   5.390   2.543  1.8314  1.1068  1.4035
12728SOL    HW244148  11.809   5.541   2.533 -0.2477  1.2536  2.1700
12729SOL     OW44149   6.004   9.807   8.805  0.1994 -0.2060  0.4308
12729SOL    HW144150   5.946   9.853   8.866 -0.5540  2.6886 -2.1717
12729SOL    HW244151   5.944   9.769   8.740  1.0945 -0.1021 -0.4723
12730SOL     OW44152   5.360   4.429  10.314  0.0421  0.1039 -0.0616
12730SOL    HW144153   5.285   4.388  10.359 -0.5685  1.9118  0.6356
12730SOL    HW244154   5.323   4.467  10.235  0.6240 -0.6998 -0.7396
12731SOL     OW44155  10.395   4.119   0.587 -0.0905 -0.3427 -0.2982
12731SOL    HW144156  10.381   4.158   0.673 -0.3683  0.1138 -0.5475
12731SOL    HW244157  10.479   4.073   0.594  1.0427  1.5955 -0.4544
12732SOL     OW44158   4.854   5.685   2.848  0.0516 -0.2498 -0.4281
12732SOL    HW144159   4.814   5.748   2.788 -0.0246 -0.2964 -0.4269
12732SOL    HW244160   4.780   5.650   2.898  0.2431  0.7528  0.6161
12733SOL     OW44161   1.650   8.908   6.144 -0.1185 -0.1162 -0.1842
12733SOL    HW144162   1.665   8.825   6.189  1.8530  1.8991  3.3171
12733SOL    HW244163   1.580   8.951   6.194 -0.0283  0.9645 -0.9372
12734SOL     OW44164   8.038   3.693   1.890 -0.0442 -0.0868  0.1369
12734SOL    HW144165   8.052   3.648   1.973 -0.3935 -1.6232 -0.5907
12734SOL    HW244166   8.001   3.778   1.914 -0.6875 -0.7306  1.5237
12735SOL     OW44167   0.231   9.211   4.902 -0.2150 -0.2439 -0.3978
12735SOL    HW144168   0.296   9.274   4.871 -1.3975  0.2931 -1.9441
12735SOL    HW244169   0.183   9.259   4.970  0.1562 -0.1705 -0.1887
12736SOL     OW44170   7.380   5.489   3.206 -0.0820  0.0471  0.0146
12736SOL    HW144171   7.469   5.454   3.196 -0.0656 -0.3925  1.5194
12736SOL    HW244172   7.386   5.578   3.170  0.0220 -1.1622 -3.3376
12737SOL     OW44173   7.382   8.892   4.232  0.3151 -0.3109 -0.3219
12737SOL    HW144174   7.356   8.889   4.324  1.0581  1.3629 -0.0288
12737SOL    HW244175   7.471   8.927   4.233 -0.0965  0.8805 -1.7326
12738SOL     OW44176  11.079   4.800  11.413 -0.7407 -0.8747 -0.0873
12738SOL    HW144177  11.094   4.841  11.498 -0.4794 -2.0496  0.4386
12738SOL    HW244178  11.141   4.728  11.409 -0.3606 -0.4911 -1.5241
12739SOL     OW44179  10.714   7.419   9.835 -0.2249  0.0775  0.1234
12739SOL    HW144180  10.803   7.451   9.849 -0.2230 -0.6630  2.2074
12739SOL    HW244181  10.693   7.444   9.745  1.6645  1.2499 -0.0451
12740SOL     OW44182   3.207  10.016   0.359  0.8029 -0.1527 -0.3533
12740SOL    HW144183   3.287  10.065   0.338 -0.1852  0.7205 -2.3145
12740SOL    HW244184   3.142  10.048   0.297 -1.0254 -1.0512  0.9992
12741SOL     OW44185  10.761   7.370   9.172  0.4679  0.1597  0.0046
12741SOL    HW144186  10.800   7.284   9.190  0.8614  0.3425  0.0367
12741SOL    HW244187  10.824   7.412   9.113  0.7720  0.8093  0.7717
12742SOL     OW44188  10.716   4.532   5.812  0.3394 -0.3254 -0.3265
12742SOL    HW144189  10.703   4.552   5.719  0.1548  0.3565 -0.1610
12742SOL    HW244190  10.657   4.459   5.829  0.4408 -0.5149 -0.7658
12743SOL     OW44191   6.183   6.325   7.192 -0.6280  0.0560  0.7403
12743SOL    HW144192   6.121   6.284   7.131 -1.4765  1.0015  0.9402
12743SOL    HW244193   6.146   6.411   7.209  1.4083  1.1784 -0.1308
12744SOL     OW44194   5.023  10.314   7.134 -0.1508 -0.3725 -0.0329
12744SOL    HW144195   5.046  10.407   7.131  0.7219 -0.5893 -0.3025
12744SOL    HW244196   5.105  10.268   7.114 -0.3982 -1.2199  0.8161
12745SOL     OW44197   3.606  12.038  11.497 -0.2839 -0.1171 -0.2872
12745SOL    HW144198   3.536  11.972  11.500  0.6010 -1.0723  0.0684
12745SOL    HW244199   3.661  12.018  11.573  1.0229 -0.1255 -1.2102
12746SOL     OW44200  10.527  10.700   7.757 -0.5589  0.1723 -0.0190
12746SOL    HW144201  10.499  10.717   7.847  0.9154 -0.1697  0.5438
12746SOL    HW244202  10.542  10.605   7.755 -0.1680  0.2403 -0.4949
12747SOL     OW44203   5.777   9.729   3.793 -0.0660 -0.1262 -0.0847
12747SOL    HW144204   5.797   9.747   3.885 -0.6515 -0.7987  0.1808
12747SOL    HW244205   5.860   9.741   3.747  0.4890 -0.8882  0.6967
12748SOL     OW44206   5.431   5.778   7.564 -0.1356  0.0554 -1.1639
12748SOL    HW144207   5.393   5.707   7.616  1.2413 -0.7225 -1.1645
12748SOL    HW244208   5.525   5.757   7.560  0.1713  1.4559 -1.8401
12749SOL     OW44209   4.926  12.200   5.601 -0.7244  0.5876  0.3830
12749SOL    HW144210   4.878  12.118   5.598  1.1232 -0.5247 -1.4510
12749SOL    HW244211   4.973  12.197   5.685  1.7784 -1.8187 -0.9562
12750SOL     OW44212   8.524   5.235   0.613  0.0830  0.1521  0.0533
12750SOL    HW144213   8.583   5.310   0.602  0.2704  0.3551  2.0937
12750SOL    HW244214   8.544   5.179   0.538  0.8199  1.5450 -0.8583
12751SOL     OW44215   7.013   6.574   6.910 -0.1511  0.3030 -0.3406
12751SOL    HW144216   7.055   6.612   6.988  0.8648 -1.3821 -0.0223
12751SOL    HW244217   6.931   6.537   6.943  0.3668 -0.5791  0.0123
12752SOL     OW44218   2.151   8.553  10.418  0.1677  0.0966  0.5621
12752SOL    HW144219   2.213   8.494  10.375  1.2897  1.2256  0.5435
12752SOL    HW244220   2.108   8.499  10.484 -0.1162 -1.1590 -0.6096
12753SOL     OW44221   3.713   6.843  11.691  0.4623 -0.1759 -0.3203
12753SOL    HW144222   3.767   6.915  11.723 -1.3283  1.1669 -0.1724
12753SOL    HW244223   3.775   6.772  11.674  2.0864  0.8289  1.1043
12754SOL     OW44224  12.129  12.383   7.583 -0.2974  0.3723  0.1129
12754SOL    HW144225  12.164  12.300   7.551 -0.5625 -0.1912  1.2431
12754SOL    HW244226  12.176  12.399   7.665 -0.3069  1.3024 -0.0481
12755SOL     OW44227  11.630   9.348   9.613 -0.1817 -0.4382 -0.4186
12755SOL    HW144228  11.559   9.410   9.599  0.2408 -0.0749 -0.9900
12755SOL    HW244229  11.612   9.276   9.554  0.2874 -0.0244 -1.0868
12756SOL     OW44230  12.159  10.834   1.896  0.1386  0.6068 -0.7287
12756SOL    HW144231  12.097  10.796   1.834  0.3088 -0.4889 -0.2465
12756SOL    HW244232  12.168  10.769   1.965 -1.8907  2.7591  1.7797
12757SOL     OW44233   4.501   4.121   3.715  0.3994 -0.3525 -0.1456
12757SOL    HW144234   4.514   4.215   3.729 -3.0163 -0.0991  2.5505
12757SOL    HW244235   4.487   4.113   3.621  0.1396  1.9389 -0.3708
12758SOL     OW44236   7.042   1.735   3.498 -0.0201 -0.4008 -0.3622
12758SOL    HW144237   7.133   1.712   3.514 -0.5088 -1.1940  1.5022
12758SOL    HW244238   7.045   1.823   3.461  1.4235  0.3005  1.3227
12759SOL     OW44239  11.062  11.192   4.629  0.6490  0.3224 -0.4887
12759SOL    HW144240  11.069  11.262   4.565  2.8893 -0.4422 -1.2026
12759SOL    HW244241  11.065  11.236   4.714 -0.2977  1.2118 -0.9027
12760SOL     OW44242   5.557   1.979  11.728  0.2531  0.1707 -0.5392
12760SOL    HW144243   5.612   1.910  11.763 -0.6297 -0.6018 -0.6462
12760SOL    HW244244   5.618   2.040  11.686  0.9222 -1.4307 -1.9958
12761SOL     OW44245   3.319   6.281   6.335 -0.7362  0.6627 -0.6110
12761SOL    HW144246   3.281   6.363   6.305 -1.0610  0.5252 -0.5769
12761SOL    HW244247   3.318   6.286   6.430  1.2565  1.5468 -0.5830
12762SOL     OW44248   4.879   2.209   4.136  0.4673  0.3144  0.0822
12762SOL    HW144249   4.789   2.243   4.138  0.6757  0.9187 -0.5241
12762SOL    HW244250   4.870   2.122   4.096 -0.1288 -0.6063  2.0722
12763SOL     OW44251   3.895  11.078  10.792 -0.6861  0.6995 -0.1988
12763SOL    HW144252   3.882  11.172  10.786  1.5870  0.9695 -2.7785
12763SOL    HW244253   3.824  11.047  10.848 -2.3182  3.7340 -0.4193
12764SOL     OW44254   8.534   4.606   8.662  0.3969  0.1376  0.4454
12764SOL    HW144255   8.601   4.670   8.686 -1.2163  2.7296 -1.4794
12764SOL    HW244256   8.455   4.657   8.648 -1.1385 -2.3692 -0.8021
12765SOL     OW44257   9.337   1.895   9.359  0.3955  0.2880 -0.3351
12765SOL    HW144258   9.376   1.919   9.275  1.2780  1.8536  0.4592
12765SOL    HW244259   9.315   1.979   9.399  0.3719 -0.4049  1.1673
12766SOL     OW44260   3.037   9.801   1.964  0.6296  0.5955  0.2430
12766SOL    HW144261   3.070   9.891   1.960  1.1716  0.4312  0.8706
12766SOL    HW244262   3.075   9.765   2.045  1.1898 -0.4931 -0.4751
12767SOL     OW44263   1.556   8.493  10.687 -0.2901  0.3260 -0.2738
12767SOL    HW144264   1.598   8.411  10.660  0.9450  0.8774 -0.0787
12767SOL    HW244265   1.513   8.525  10.608 -3.9031 -2.2339  0.3635
12768SOL     OW44266   7.760   2.164   5.803 -0.6804 -0.0173 -0.7528
12768SOL    HW144267   7.670   2.188   5.822 -0.1843  2.3110 -0.9280
12768SOL    HW244268   7.783   2.218   5.727  1.0899  0.0712 -0.2002
12769SOL     OW44269   7.877  11.342   8.664 -0.7407  0.5557  0.1528
12769SOL    HW144270   7.901  11.273   8.726 -1.5520 -1.2106 -1.3791
12769SOL    HW244271   7.959  11.368   8.623 -0.5525 -0.3491 -0.0624
12770SOL     OW44272   9.387   2.275   5.627  0.3071 -0.4201 -0.3080
12770SOL    HW144273   9.482   2.261   5.631  0.4333  0.2170 -0.9462
12770SOL    HW244274   9.374   2.326   5.548 -0.3706  1.1649  0.7820
12771SOL     OW44275   8.807  12.450   6.133  0.0114 -0.3787 -0.2970
12771SOL    HW144276   8.758  12.406   6.063  0.3919 -1.5973  0.1916
12771SOL    HW244277   8.751  12.442   6.210 -0.1145  0.3960 -0.2983
12772SOL     OW44278   1.691   5.175   9.728 -0.0310  0.1908 -0.2439
12772SOL    HW144279   1.659   5.097   9.683 -1.1234  0.6508 -0.2966
12772SOL    HW244280   1.759   5.143   9.787 -1.8030 -1.1075  1.1907
12773SOL     OW44281   5.753   3.975   3.153  0.2749 -0.7389 -1.0431
12773SOL    HW144282   5.691   3.978   3.226  0.7295 -1.7726 -0.5990
12773SOL    HW244283   5.827   4.027   3.182  0.0280 -0.3071 -1.1821
12774SOL     OW44284   5.622   6.150   3.922  0.2316  0.2231 -0.8741
12774SOL    HW144285   5.583   6.092   3.987 -0.3271  1.0402 -0.4636
12774SOL    HW244286   5.681   6.094   3.872 -1.0820 -0.9270 -1.1908
12775SOL     OW44287   6.706   0.065  10.515  0.0784 -0.1461 -0.1265
12775SOL    HW144288   6.751   0.031  10.438 -1.3040  0.0525 -1.0648
12775SOL    HW244289   6.677   0.152  10.489 -0.6728 -0.1977  0.4956
12776SOL     OW44290  10.528   5.306   0.383 -0.0844  0.1607 -0.5603
12776SOL    HW144291  10.556   5.359   0.458 -0.1674 -1.3704  0.6099
12776SOL    HW244292  10.482   5.367   0.326 -2.3767  0.9140  1.9159
12777SOL     OW44293   7.710   6.219   1.022 -0.6193 -0.2684  0.1004
12777SOL    HW144294   7.639   6.162   1.053  0.2401 -1.1341  0.5298
12777SOL    HW244295   7.689   6.305   1.059  0.5422 -1.3004  3.5879
12778SOL     OW44296   0.374   7.509  12.104  0.1611  0.3994  0.6136
12778SOL    HW144297   0.410   7.422  12.126 -1.7475 -0.4916  0.3948
12778SOL    HW244298   0.452   7.563  12.090  1.4220 -1.2416  0.8363
12779SOL     OW44299   0.257   2.733   9.788 -0.0660 -0.0874 -0.0542
12779SOL    HW144300   0.249   2.815   9.739 -0.1948 -0.1461 -0.1309
12779SOL    HW244301   0.176   2.727   9.838  0.1933  0.1214  0.3944
12780SOL     OW44302   6.098  12.252   0.808  0.3395  0.6532 -0.0107
12780SOL    HW144303   6.127  12.206   0.886  0.0824  0.0318 -0.2702
12780SOL    HW244304   6.013  12.213   0.788  1.0985 -0.3356 -1.5020
12781SOL     OW44305   6.529  10.873   1.582  0.4615  0.5365 -0.2497
12781SOL    HW144306   6.534  10.779   1.600  0.5866  0.1702 -2.0627
12781SOL    HW244307   6.620  10.902   1.579  0.4702  0.4372 -1.0245
12782SOL     OW44308   5.460   2.160   0.737  0.1681  0.3307  0.0951
12782SOL    HW144309   5.550   2.146   0.707  0.2152 -0.4033  0.5455
12782SOL    HW244310   5.446   2.093   0.803 -0.3549  1.1231  0.8098
12783SOL     OW44311   5.135   3.716   5.738 -0.0578 -0.2024  0.2749
12783SOL    HW144312   5.090   3.734   5.656  1.0496 -1.6287 -0.7238
12783SOL    HW244313   5.066   3.714   5.805 -0.8068  2.4000 -0.3276
12784SOL     OW44314   3.380   7.403  11.591 -0.7982  0.1844 -0.0386
12784SOL    HW144315   3.463   7.356  11.601 -0.1733  1.3634  0.4993
12784SOL    HW244316   3.335   7.390  11.674 -1.1584 -0.4573 -0.3318
12785SOL     OW44317   8.030   6.016   8.518 -0.0478 -0.2190 -0.8026
12785SOL    HW144318   8.086   6.093   8.508 -0.6705  0.1123 -1.9077
12785SOL    HW244319   8.075   5.962   8.583 -0.3866  1.7864  1.2280
12786SOL     OW44320   3.276  10.361   0.176  0.2399 -0.1072  0.0041
12786SOL    HW144321   3.189  10.373   0.138 -0.2195  1.3095  1.3859
12786SOL    HW244322   3.324  10.440   0.151  2.0299 -1.9152 -2.8347
12787SOL     OW44323  12.488   8.639   4.697 -0.1719 -0.3397 -0.4357
12787SOL    HW144324  12.565   8.660   4.644  0.9978 -1.0775  0.8776
12787SOL    HW244325  12.454   8.723   4.726  2.6471  0.0613  2.3085
12788SOL     OW44326   6.929   8.665   2.444  0.2915  0.3445  0.6656
12788SOL    HW144327   6.966   8.577   2.447  0.6864  0.5236  1.1266
12788SOL    HW244328   6.962   8.703   2.363  0.1129  0.0676  0.4627
12789SOL     OW44329   1.778   6.908   6.984  0.2535  0.1115 -0.7274
12789SOL    HW144330   1.782   6.973   7.054  0.6930 -1.7611  1.1014
12789SOL    HW244331   1.853   6.927   6.928  0.0855  1.4471 -0.5211
12790SOL     OW44332  10.460  10.332  10.349 -0.1129  0.2854  0.4363
12790SOL    HW144333  10.418  10.318  10.434 -0.5716 -0.7452  0.0639
12790SOL    HW244334  10.545  10.371  10.370  1.1280 -2.7656  1.6355
12791SOL     OW44335   6.965  12.117   9.275  0.6210  0.1196  0.4527
12791SOL    HW144336   6.936  12.192   9.327 -0.3580 -0.4246  0.7267
12791SOL    HW244337   6.984  12.049   9.340  0.4553 -0.2134  0.1562
12792SOL     OW44338  10.645  12.433   8.655  0.6016 -0.2404 -0.2236
12792SOL    HW144339  10.557  12.398   8.650  0.9421 -1.1870  0.2280
12792SOL    HW244340  10.634  12.528   8.651 -0.3987 -0.3650 -0.5456
12793SOL     OW44341   7.188   2.386   6.814 -0.2573  0.1215  0.0106
12793SOL    HW144342   7.093   2.377   6.816 -0.3629  1.0306 -0.2866
12793SOL    HW244343   7.216   2.333   6.739 -0.1223 -3.1284  2.1747
12794SOL     OW44344   8.827   7.568   5.675  0.6700  0.2108 -0.1133
12794SOL    HW144345   8.779   7.488   5.654 -2.2658  2.0635 -1.1180
12794SOL    HW244346   8.805   7.586   5.766  1.4006 -0.1836  0.1386
12795SOL     OW44347   3.204   6.435   1.462  0.3374  0.3405 -1.0892
12795SOL    HW144348   3.139   6.403   1.524 -0.0823  0.3659 -1.5184
12795SOL    HW244349   3.263   6.490   1.515 -0.4513  0.9693 -0.8519
12796SOL     OW44350  11.494   7.419   6.125  0.4425  0.4391 -0.4590
12796SOL    HW144351  11.413   7.449   6.083  0.9402  1.4593 -0.7237
12796SOL    HW244352  11.471   7.335   6.165 -0.3954  0.0822 -1.6455
12797SOL     OW44353   8.319   2.541   5.997 -0.2233  0.4025 -0.6695
12797SOL    HW144354   8.351   2.535   5.907  1.8433  0.7055  0.0070
12797SOL    HW244355   8.329   2.633   6.021 -0.1890  0.2197  0.0628
12798SOL     OW44356   3.563  11.103   3.477 -0.0186  0.5706  0.1670
12798SOL    HW144357   3.602  11.174   3.427 -0.4248 -0.7425 -2.1414
12798SOL    HW244358   3.493  11.145   3.527  0.5407  1.9710 -0.1807
12799SOL     OW44359   7.319   0.083  10.211 -0.3825  0.1066  0.4118
12799SOL    HW144360   7.230   0.058  10.187 -0.1957 -0.0956 -0.0807
12799SOL    HW244361   7.364  -0.001  10.224  0.0691  0.1871 -0.5825
12800SOL     OW44362   8.141   0.701   2.071  0.1272 -0.2868 -0.3553
12800SOL    HW144363   8.047   0.690   2.053  0.0223 -1.1101  0.6077
12800SOL    HW244364   8.153   0.662   2.158  1.7068 -1.8842 -1.2512
12801SOL     OW44365   8.053   2.606   8.971  0.6400  0.4365 -0.4254
12801SOL    HW144366   7.961   2.609   8.946  1.2086  1.8470 -2.6147
12801SOL    HW244367   8.078   2.514   8.962 -0.7390 -0.1479  1.1539
12802SOL     OW44368   5.163  11.051  11.616  0.3973 -0.3517 -0.1135
12802SOL    HW144369   5.255  11.025  11.612  0.9627  1.5580 -3.4198
12802SOL    HW244370   5.161  11.119  11.684  0.9848 -1.7019  1.3019
12803SOL     OW44371   9.206   2.263   3.947  0.0285  0.2648  0.1001
12803SOL    HW144372   9.272   2.216   3.998  0.0148  1.2728  1.0976
12803SOL    HW244373   9.232   2.355   3.953 -0.2315  0.4669 -1.3720
12804SOL     OW44374   3.948   3.876   2.577 -0.7550 -0.2836  0.1932
12804SOL    HW144375   3.911   3.795   2.612  1.3743 -0.6926  1.6636
12804SOL    HW244376   4.034   3.883   2.618 -0.0518  1.6951 -1.4596
12805SOL     OW44377   1.392   0.999  10.803  0.1978  0.5875 -0.5387
12805SOL    HW144378   1.439   0.926  10.843 -0.8945  1.1890  2.0429
12805SOL    HW244379   1.457   1.069  10.795  1.2173 -0.5492 -2.9060
12806SOL     OW44380   2.565  12.148   4.960 -0.4992  0.2023 -0.0456
12806SOL    HW144381   2.652  12.186   4.947 -0.7016  0.4191 -0.8325
12806SOL    HW244382   2.565  12.070   4.904 -0.4046 -0.4642  0.8591
12807SOL     OW44383   2.425   8.026   3.880 -0.2457 -0.4086 -0.1933
12807SOL    HW144384   2.440   8.120   3.883 -0.7086 -0.3542  1.0420
12807SOL    HW244385   2.421   8.005   3.787  0.7954  0.6297 -0.4938
12808SOL     OW44386   6.215  12.231   2.422 -0.2638 -0.1967 -0.0122
12808SOL    HW144387   6.170  12.255   2.341  0.3481 -0.1342 -0.3332
12808SOL    HW244388   6.254  12.313   2.453 -3.2037  0.5978  2.1202
12809SOL     OW44389   9.540   3.370   6.207  0.2089 -0.1434 -0.3048
12809SOL    HW144390   9.546   3.464   6.192 -1.2456  0.2526  1.2903
12809SOL    HW244391   9.446   3.354   6.221  0.6625 -1.4778  1.4655
12810SOL     OW44392   3.267   1.400   2.727 -0.1728  0.1883 -0.0506
12810SOL    HW144393   3.283   1.333   2.793  1.0105 -1.7340 -2.1118
12810SOL    HW244394   3.213   1.356   2.661  1.2784  0.9314 -1.8478
12811SOL     OW44395   9.623  10.011   7.805  0.3512 -0.4971 -0.0038
12811SOL    HW144396   9.541  10.000   7.758 -0.6168  0.7950  1.2699
12811SOL    HW244397   9.676  10.068   7.749  0.5489 -1.6115 -0.9879
12812SOL     OW44398   6.188   6.116   9.220  0.3142 -0.1815 -0.1810
12812SOL    HW144399   6.113   6.092   9.274  0.5149  0.3168  0.3247
12812SOL    HW244400   6.238   6.034   9.210  1.0928  0.0216  1.6868
12813SOL     OW44401   0.337   9.999  11.802  0.2430 -0.1017  0.3358
12813SOL    HW144402   0.350  10.058  11.877  0.9347 -0.6029  0.6270
12813SOL    HW244403   0.253  10.026  11.764 -0.8444 -0.7663  2.1483
12814SOL     OW44404   2.153   4.934  12.267  0.0904  0.4455 -0.2439
12814SOL    HW144405   2.096   4.871  12.223  0.2440  0.7512 -0.9031
12814SOL    HW244406   2.239   4.917  12.230  0.2959  0.4401  0.2435
12815SOL     OW44407  11.000  11.290  11.370  0.0247 -0.1495  0.1918
12815SOL    HW144408  11.089  11.323  11.364  0.2957 -0.8997  0.0162
12815SOL    HW244409  10.960  11.311  11.286 -0.5892  1.9093  0.9349
12816SOL     OW44410   6.315   7.975   9.164 -0.2005 -0.1348 -0.8589
12816SOL    HW144411   6.407   7.987   9.190 -0.1251  0.0230 -1.1861
12816SOL    HW244412   6.268   7.964   9.246  0.2354 -1.0948 -0.7194
12817SOL     OW44413   9.076   8.875   2.770  0.5082  0.0914 -0.7746
12817SOL    HW144414   8.992   8.846   2.805  0.9333 -0.4116 -0.1403
12817SOL    HW244415   9.091   8.960   2.810  1.0437 -0.5290  0.3883
12818SOL     OW44416   6.022   4.844   6.373 -0.1490  0.1697 -0.6336
12818SOL    HW144417   5.973   4.768   6.405 -0.9994  1.0126  0.1075
12818SOL    HW244418   6.020   4.835   6.277 -0.3564 -0.6719 -0.5582
12819SOL     OW44419   2.577  10.402   8.405  0.1694  0.6721 -0.2990
12819SOL    HW144420   2.502  10.344   8.416  0.8351  0.2382  2.7485
12819SOL    HW244421   2.548  10.468   8.342 -1.3217 -1.7205 -2.2597
12820SOL     OW44422   4.383  11.812   6.742 -0.5932 -0.3487 -0.2081
12820SOL    HW144423   4.374  11.883   6.678 -0.4851  0.2674  0.4432
12820SOL    HW244424   4.389  11.857   6.826  0.2393 -1.1079  0.1470
12821SOL     OW44425   9.005  10.654   2.954  0.2276 -0.3472  0.1076
12821SOL    HW144426   9.090  10.617   2.932  1.5463  2.7358 -0.4847
12821SOL    HW244427   9.010  10.673   3.047  0.0558 -0.4751  0.1433
12822SOL     OW44428  10.668   6.936  11.601  0.1795  0.2837  0.7737
12822SOL    HW144429  10.656   6.842  11.612 -0.3702  0.2137 -0.2542
12822SOL    HW244430  10.756   6.954  11.634  1.0380 -0.9123 -0.7616
12823SOL     OW44431   2.141   0.860  11.371 -0.2100  0.2602 -0.3582
12823SOL    HW144432   2.230   0.864  11.336 -0.4379 -2.9646 -1.6386
12823SOL    HW244433   2.140   0.780  11.423 -2.5661 -0.2268 -1.0631
12824SOL     OW44434   8.747   1.160  11.195 -0.3294  0.2241 -0.0236
12824SOL    HW144435   8.815   1.176  11.260 -0.9312 -0.5046  0.8100
12824SOL    HW244436   8.720   1.247  11.166  1.3258  0.5156 -0.7885
12825SOL     OW44437  11.112   5.306   0.826  0.1078 -0.5638  0.1317
12825SOL    HW144438  11.185   5.355   0.863 -1.4283  0.8813  1.4033
12825SOL    HW244439  11.148   5.264   0.748  2.4245 -0.4060  1.0431
12826SOL     OW44440   9.854   6.735   0.963  0.4170 -0.0673  0.0125
12826SOL    HW144441   9.827   6.643   0.953  0.8482 -0.0116 -2.2739
12826SOL    HW244442   9.927   6.732   1.025  0.8119 -1.3703 -0.4743
12827SOL     OW44443   7.043   0.552  11.946  0.6484  0.0666  0.2859
12827SOL    HW144444   7.065   0.466  11.983 -1.1758 -1.0537 -1.0157
12827SOL    HW244445   7.124   0.584  11.908  1.1712 -1.5300 -0.0104
12828SOL     OW44446  10.556  12.008   3.447 -0.3227 -0.7689 -0.3854
12828SOL    HW144447  10.480  12.019   3.389 -0.0523  1.9026 -0.3446
12828SOL    HW244448  10.631  12.013   3.388 -0.0254  2.3374  0.0635
12829SOL     OW44449   1.259   7.601  10.127 -0.1461  0.0264 -0.0215
12829SOL    HW144450   1.350   7.577  10.146 -0.1410 -0.1740 -0.2824
12829SOL    HW244451   1.214   7.594  10.211 -0.2255 -1.3099 -0.1471
12830SOL     OW44452   0.325   4.527   1.866 -0.3251 -0.8409  0.1087
12830SOL    HW144453   0.379   4.499   1.791  1.5557 -2.7465  2.0291
12830SOL    HW244454   0.329   4.622   1.864  0.2252 -0.8526 -1.8025
12831SOL     OW44455   4.091   6.532   1.210  0.0614 -0.3816  0.2029
12831SOL    HW144456   4.014   6.497   1.165  0.0455 -0.2178  0.1006
12831SOL    HW244457   4.057   6.605   1.261  0.0372 -0.7126  0.6716
12832SOL     OW44458   7.892   0.381  12.000 -0.1664  0.0450  0.4464
12832SOL    HW144459   7.874   0.292  11.970  0.3650 -0.2540  0.9970
12832SOL    HW244460   7.822   0.400  12.063  0.1476 -0.2707  0.8956
12833SOL     OW44461   3.868   3.681   5.522  0.4197 -0.0203 -0.3392
12833SOL    HW144462   3.927   3.756   5.510  1.8453 -1.2220 -1.1992
12833SOL    HW244463   3.913   3.609   5.478 -0.3216 -1.6793  1.4968
12834SOL     OW44464   0.346  10.778   6.954  0.1219 -0.4581  0.1168
12834SOL    HW144465   0.416  10.718   6.981  0.1572 -0.4211  0.1081
12834SOL    HW244466   0.303  10.734   6.881 -1.5340 -1.6868  1.7390
12835SOL     OW44467   4.701  12.414   6.237 -0.0678 -0.2809 -0.4205
12835SOL    HW144468   4.742  12.435   6.153  1.3590 -0.4020  0.2044
12835SOL    HW244469   4.622  12.366   6.214  1.0898 -1.6866 -1.6991
12836SOL     OW44470  11.847   2.774   6.423  0.1038 -0.7615  0.4043
12836SOL    HW144471  11.858   2.839   6.354  0.8739 -0.8867  0.4019
12836SOL    HW244472  11.895   2.697   6.392 -0.2587 -1.1120  0.6935
12837SOL     OW44473   8.702   7.080   1.077  0.3842  0.2056  0.5201
12837SOL    HW144474   8.733   7.054   0.990  0.4359  0.9012  0.3268
12837SOL    HW244475   8.770   7.047   1.136  0.3518 -0.2676  0.3049
12838SOL     OW44476  11.447   4.153   4.947 -0.7789 -0.1997 -0.0685
12838SOL    HW144477  11.470   4.242   4.922  1.3616 -0.7648 -0.3646
12838SOL    HW244478  11.498   4.137   5.027  1.8575 -2.2792 -1.9462
12839SOL     OW44479   0.862   8.847   5.003  0.1299 -0.2286 -0.2190
12839SOL    HW144480   0.817   8.765   5.023 -1.5293  0.7230  0.0595
12839SOL    HW244481   0.824   8.911   5.063  2.5809  0.4461  0.7536
12840SOL     OW44482   9.998   3.298  10.181 -0.2538 -0.3098  0.4400
12840SOL    HW144483  10.089   3.269  10.176 -0.1995 -0.1945  0.7472
12840SOL    HW244484   9.955   3.255  10.107  0.2367  0.3214 -0.2135
12841SOL     OW44485   1.478   8.826   7.947  0.2687 -0.1199  0.2464
12841SOL    HW144486   1.496   8.733   7.961 -1.0552 -0.4773 -0.2214
12841SOL    HW244487   1.554   8.871   7.982  0.9357 -1.3828  0.4819
12842SOL     OW44488  11.073   5.830   9.716  0.1718 -0.3250  0.2708
12842SOL    HW144489  11.058   5.824   9.622  0.4216 -0.9221  0.2686
12842SOL    HW244490  11.056   5.922   9.737  0.5687 -0.0846 -0.4343
12843SOL     OW44491  11.893   6.910   9.373  0.5384 -0.3569 -0.2979
12843SOL    HW144492  11.898   6.942   9.283  0.8165  1.2942  0.2766
12843SOL    HW244493  11.917   6.985   9.427 -2.2027 -0.5132  1.3031
12844SOL     OW44494   0.522   2.955   8.113 -0.5191 -0.3145  0.7273
12844SOL    HW144495   0.494   2.992   8.029 -1.2359 -0.7000  0.7842
12844SOL    HW244496   0.495   2.863   8.109 -2.3296  0.0940  2.1171
12845SOL     OW44497  12.348  10.283   8.823  0.5412 -0.5545 -0.3289
12845SOL    HW144498  12.309  10.292   8.910  0.9334  0.8243 -0.2708
12845SOL    HW244499  12.436  10.317   8.833  0.4465  0.0223 -1.3614
12846SOL     OW44500   8.716   4.662   1.686 -0.0653  0.2873  0.2155
12846SOL    HW144501   8.644   4.723   1.669  0.3009  0.4140 -0.9893
12846SOL    HW244502   8.793   4.718   1.700  0.1161  0.1306 -0.1239
12847SOL     OW44503   5.192   2.856   9.174 -0.0441 -0.4259 -0.3636
12847SOL    HW144504   5.098   2.875   9.168  0.0684  0.0103 -0.8164
12847SOL    HW244505   5.200   2.800   9.251 -0.5117  0.6497  0.5069
12848SOL     OW44506   7.707   0.436   1.674  0.3098  0.1217  0.0977
12848SOL    HW144507   7.772   0.493   1.716  0.8788  0.2690 -0.9441
12848SOL    HW244508   7.739   0.425   1.584  0.8379 -2.7486  0.5215
12849SOL     OW44509   8.268   0.593   6.249 -0.3372 -0.1404  0.3955
12849SOL    HW144510   8.241   0.535   6.321 -0.0398  0.5644  1.0885
12849SOL    HW244511   8.186   0.626   6.213 -0.4968  1.2260  1.8628
12850SOL     OW44512   0.705   8.484   9.180  0.1805  0.3411  0.0844
12850SOL    HW144513   0.672   8.437   9.256 -2.4717  2.2761  0.2580
12850SOL    HW244514   0.662   8.444   9.105  2.4580 -1.2685 -0.4955
12851SOL     OW44515   7.148  11.114   0.086  0.0504 -0.1040  0.3635
12851SOL    HW144516   7.215  11.046   0.093 -0.4653 -0.7878 -1.0785
12851SOL    HW244517   7.121  11.130   0.177  0.5923 -1.4122  0.7773
12852SOL     OW44518   7.551   7.606   0.315  0.3351 -0.7134  0.4105
12852SOL    HW144519   7.519   7.595   0.226 -0.0930 -0.1442  0.4911
12852SOL    HW244520   7.632   7.657   0.305 -1.7147  2.9122  0.5740
12853SOL     OW44521  10.041   1.327  11.070  0.1318 -0.7315  0.4896
12853SOL    HW144522   9.994   1.244  11.066 -0.4922 -0.4049  0.8553
12853SOL    HW244523  10.027   1.358  11.160 -1.7160  0.9203 -0.2883
12854SOL     OW44524   7.297   7.572  11.907  0.4827 -0.1142 -0.6400
12854SOL    HW144525   7.299   7.665  11.928  0.8591 -0.4081  0.7484
12854SOL    HW244526   7.228   7.537  11.963  0.9968 -0.8218 -0.4404
12855SOL     OW44527   5.359   8.048   0.721 -0.3724 -0.2561  0.3101
12855SOL    HW144528   5.414   8.067   0.798  0.8416  0.1635 -0.6313
12855SOL    HW244529   5.314   8.131   0.703  0.5037  0.0943 -0.3240
12856SOL     OW44530  10.817   4.175   8.186 -0.9747 -0.5247 -0.1573
12856SOL    HW144531  10.842   4.206   8.099 -0.9723 -1.7026 -0.5962
12856SOL    HW244532  10.724   4.199   8.193 -1.0259 -0.5814 -0.5647
12857SOL     OW44533   5.948   6.073  11.611 -0.2691 -0.2740 -0.0162
12857SOL    HW144534   5.987   6.049  11.527 -0.8241 -1.0620 -0.0619
12857SOL    HW244535   5.857   6.042  11.605 -0.8009  1.1468  0.2377
12858SOL     OW44536   9.449   6.446   1.862 -0.1169 -0.0205  0.1541
12858SOL    HW144537   9.487   6.534   1.856 -0.9689  0.4829  1.6167
12858SOL    HW244538   9.366   6.458   1.908 -0.6169 -1.5082 -0.2768
12859SOL     OW44539   3.951   4.188   3.615  0.1109  0.5176  0.0468
12859SOL    HW144540   3.974   4.241   3.538  1.2462 -0.3050 -0.2031
12859SOL    HW244541   3.869   4.145   3.591 -0.1772  1.2096 -0.2259
12860SOL     OW44542   8.619   4.028   6.445 -0.2257 -0.2373  0.7592
12860SOL    HW144543   8.604   4.027   6.540 -1.0892  1.4331  0.6728
12860SOL    HW244544   8.706   3.989   6.435 -0.1995 -0.6287  2.2192
12861SOL     OW44545   8.018   5.139   9.742  0.0423  0.4491 -0.0384
12861SOL    HW144546   8.015   5.142   9.647  0.7356  0.7939 -0.0553
12861SOL    HW244547   8.088   5.200   9.766  1.9174 -1.7903  0.5433
12862SOL     OW44548   7.535   9.902   0.781  0.1098 -0.3273 -0.0866
12862SOL    HW144549   7.462   9.938   0.731 -0.2642 -0.2483  0.5079
12862SOL    HW244550   7.552   9.817   0.741 -2.0210 -1.5146  1.3837
12863SOL     OW44551   4.100  11.459   0.823 -0.6858 -0.4392 -0.4068
12863SOL    HW144552   4.032  11.429   0.762  1.0844 -1.1986 -2.1398
12863SOL    HW244553   4.068  11.433   0.909 -1.8051 -2.4069 -1.3355
12864SOL     OW44554   8.454   7.989   2.376 -0.1122  0.5234  0.1071
12864SOL    HW144555   8.370   7.975   2.419 -0.5173  1.7463 -0.2367
12864SOL    HW244556   8.513   8.018   2.446  0.1349 -0.6684  0.4108
12865SOL     OW44557   4.010  11.173   0.577  0.3325  0.4916  0.2763
12865SOL    HW144558   4.082  11.112   0.560 -0.3176 -0.4536  0.8020
12865SOL    HW244559   3.932  11.127   0.547 -0.0817  1.4324 -0.1286
12866SOL     OW44560   9.357   5.771   4.986 -0.2947 -0.5235  0.1412
12866SOL    HW144561   9.407   5.801   4.910 -1.7499  0.6994 -0.3620
12866SOL    HW244562   9.337   5.679   4.966 -0.4188 -0.2993 -0.8384
12867SOL     OW44563   8.672   7.021   9.642 -0.2255 -0.0947  0.1354
12867SOL    HW144564   8.654   7.113   9.623 -1.6979  0.0206  1.7705
12867SOL    HW244565   8.586   6.981   9.649  0.3481 -2.2842 -3.1433
12868SOL     OW44566   6.002   6.104   1.978  0.6550  0.0389 -0.0289
12868SOL    HW144567   5.946   6.114   1.900  1.0137 -1.3557 -0.4993
12868SOL    HW244568   6.090   6.121   1.947  0.5727  1.7400  0.6047
12869SOL     OW44569   4.288  10.762   8.747 -1.1103 -0.1475 -0.0993
12869SOL    HW144570   4.371  10.792   8.783 -1.3873  0.5775 -0.0529
12869SOL    HW244571   4.296  10.776   8.652 -0.5800 -1.5713 -0.2914
12870SOL     OW44572  12.311   6.455   9.516 -0.0085 -0.2293  0.1976
12870SOL    HW144573  12.256   6.475   9.440 -0.0095 -0.2785  0.1851
12870SOL    HW244574  12.251   6.419   9.580 -0.4965  2.2200  1.2163
12871SOL     OW44575   8.546   7.768   6.462 -0.1245 -0.1658 -0.3594
12871SOL    HW144576   8.457   7.749   6.492 -0.1390 -2.9083 -1.8352
12871SOL    HW244577   8.603   7.724   6.526  0.0223 -0.8376 -0.9260
12872SOL     OW44578   3.665   5.344   9.105 -0.0473  0.4840  0.0832
12872SOL    HW144579   3.694   5.386   9.186  0.3006 -0.8210  0.6544
12872SOL    HW244580   3.685   5.251   9.117 -0.2994  0.2152 -1.3643
12873SOL     OW44581   0.903  12.420   6.906  0.4673 -0.1938 -0.3821
12873SOL    HW144582   0.945  12.442   6.989  0.0691  1.2863 -0.5346
12873SOL    HW244583   0.812  12.399   6.929  0.1982  0.8067 -0.4855
12874SOL     OW44584   8.351   5.832   2.233  0.6657  0.0918  0.3023
12874SOL    HW144585   8.402   5.913   2.233 -0.8679  1.1847 -2.1997
12874SOL    HW244586   8.404   5.771   2.181  0.8091  0.2030  0.3164
12875SOL     OW44587   6.091   0.711   3.151  0.7886  0.0095  0.3757
12875SOL    HW144588   6.149   0.688   3.223  2.1382  1.3277 -0.2550
12875SOL    HW244589   6.039   0.632   3.136  1.3828 -0.7098  1.9175
12876SOL     OW44590  11.589   1.651  10.184 -0.1599 -0.0525 -0.0859
12876SOL    HW144591  11.581   1.740  10.219  0.3010 -0.0172 -0.0754
12876SOL    HW244592  11.612   1.597  10.260 -2.2926 -0.5124  0.3190
12877SOL     OW44593  11.471  10.850   7.864 -0.0612 -0.0355 -1.0061
12877SOL    HW144594  11.527  10.904   7.808  1.9687 -1.7278 -0.7478
12877SOL    HW244595  11.415  10.912   7.909  0.9018  1.6837 -2.0631
12878SOL     OW44596  11.398   1.933   8.299 -0.2828  0.2580 -0.5911
12878SOL    HW144597  11.353   1.852   8.277  0.4912  0.3115 -2.6121
12878SOL    HW244598  11.448   1.955   8.220  0.1203  2.3030  0.1651
12879SOL     OW44599   7.071   1.954   3.860 -0.4023 -0.0457  0.4181
12879SOL    HW144600   7.067   1.863   3.830  1.5947  0.1206 -0.4885
12879SOL    HW244601   7.088   1.947   3.954 -0.6254 -0.5896  0.4267
12880SOL     OW44602   1.840  11.058   5.866 -0.2909 -0.3075  0.3080
12880SOL    HW144603   1.765  11.115   5.881 -1.1623 -1.7359  1.6602
12880SOL    HW244604   1.863  11.072   5.775 -0.0159  2.6931  0.7402
12881SOL     OW44605  11.018   4.723   4.024  0.2681  0.0945  0.4381
12881SOL    HW144606  11.104   4.736   3.985  0.6748 -1.5932  0.6695
12881SOL    HW244607  10.975   4.658   3.968 -0.5663  0.3618  0.7453
12882SOL     OW44608  12.196   3.547   1.151 -0.2415 -0.2039  0.4798
12882SOL    HW144609  12.252   3.617   1.118 -0.4752  0.2504  1.0281
12882SOL    HW244610  12.242   3.515   1.229  0.0765 -0.9532 -0.0083
12883SOL     OW44611   9.295   3.697   1.538  0.4819  0.2957  0.0265
12883SOL    HW144612   9.326   3.768   1.483  1.1200 -0.6090 -0.8082
12883SOL    HW244613   9.371   3.672   1.591  0.2644  0.2191  0.3079
12884SOL     OW44614  10.794   8.627  10.950 -0.4406  0.1301 -0.8864
12884SOL    HW144615  10.826   8.540  10.972  2.1014  1.3842  0.7703
12884SOL    HW244616  10.798   8.631  10.854  0.5610 -1.1685 -0.9121
12885SOL     OW44617   6.243  11.569   4.439 -0.0556 -0.3012  0.3121
12885SOL    HW144618   6.198  11.579   4.523  1.1270 -0.2541  0.9463
12885SOL    HW244619   6.302  11.643   4.433 -0.8446  0.2589 -1.0470
12886SOL     OW44620   2.474   3.314   1.140  0.3678  0.8568 -0.4449
12886SOL    HW144621   2.421   3.390   1.118 -0.5029  0.3383 -0.1745
12886SOL    HW244622   2.448   3.291   1.229  3.9842  3.0775  1.4382
12887SOL     OW44623   5.285   6.105   6.583  0.4348  0.3158  0.5753
12887SOL    HW144624   5.256   6.187   6.543  0.1740  0.1636  0.4511
12887SOL    HW244625   5.279   6.121   6.678  1.4226  0.8087  0.5718
12888SOL     OW44626   2.585   6.760   5.488  0.8221 -0.2340  0.4336
12888SOL    HW144627   2.680   6.755   5.501  1.4560  0.8557 -2.7701
12888SOL    HW244628   2.575   6.791   5.398 -2.6172 -0.9695  0.4241
12889SOL     OW44629   0.475   8.532   5.492  0.0086 -0.2668  0.0110
12889SOL    HW144630   0.450   8.469   5.424 -0.9523  2.0225 -1.9272
12889SOL    HW244631   0.405   8.598   5.489  1.0537  0.9774  1.8073
12890SOL     OW44632   1.576  10.698   9.920 -0.1808 -0.4545  1.0238
12890SOL    HW144633   1.619  10.633   9.864  0.6500  1.2702 -0.4275
12890SOL    HW244634   1.618  10.781   9.897 -2.0731  0.8165  1.9138
12891SOL     OW44635   2.249   7.643  11.891  0.6466  0.1722 -0.0420
12891SOL    HW144636   2.291   7.728  11.904  0.4986  0.2189  0.1367
12891SOL    HW244637   2.280   7.614  11.806 -1.6075  1.7380 -1.5060
12892SOL     OW44638  11.079   6.649   1.053  0.3750 -0.4294 -0.1308
12892SOL    HW144639  11.111   6.739   1.044 -1.3104  0.2862  0.7227
12892SOL    HW244640  11.159   6.597   1.064  1.4997  0.7046 -2.2515
12893SOL     OW44641   3.883  11.261  10.512  0.1283 -0.3903  0.0280
12893SOL    HW144642   3.870  11.314  10.433  0.8240 -0.2261  0.0214
12893SOL    HW244643   3.841  11.311  10.582  1.6586  0.6946  0.2160
12894SOL     OW44644  11.431   8.599   1.557 -0.0810 -0.4633 -0.3507
12894SOL    HW144645  11.347   8.565   1.585 -0.3378  2.3961  3.0469
12894SOL    HW244646  11.496   8.551   1.608  0.0393 -0.0648 -0.1237
12895SOL     OW44647   3.528   4.213   8.260 -0.1738  0.6377  0.0504
12895SOL    HW144648   3.544   4.261   8.341  0.0919 -0.0687  0.4305
12895SOL    HW244649   3.444   4.244   8.229 -0.0116  1.3339  0.2962
12896SOL     OW44650   3.723   5.677   2.616 -0.0127 -0.1817 -0.0962
12896SOL    HW144651   3.725   5.602   2.556  0.9065  2.1399 -3.2254
12896SOL    HW244652   3.636   5.715   2.603  0.9618  1.6245 -1.8370
12897SOL     OW44653   9.270   7.442   5.913  0.7190  0.0248  0.0031
12897SOL    HW144654   9.236   7.531   5.923  1.7953  0.5161 -0.5339
12897SOL    HW244655   9.229   7.393   5.984  0.2819  0.9962  0.4464
12898SOL     OW44656   1.749  12.043   3.616  0.2060 -0.1505 -0.1743
12898SOL    HW144657   1.702  12.101   3.677  1.0789  1.4178 -0.9381
12898SOL    HW244658   1.701  12.052   3.533  1.0890  0.4999 -0.6304
12899SOL     OW44659  10.971   3.210  10.462  0.1507 -0.2008 -0.1689
12899SOL    HW144660  10.953   3.199  10.555  0.1851  1.1341  0.0071
12899SOL    HW244661  11.047   3.268  10.458 -1.3536  1.8416 -1.0083
12900SOL     OW44662   2.265   7.766   6.447  0.3924  0.1727 -0.1392
12900SOL    HW144663   2.261   7.859   6.429  0.6819  0.2649  0.2493
12900SOL    HW244664   2.263   7.724   6.361  5.0647  0.6931 -0.7699
12901SOL     OW44665   0.476  11.670  10.868  0.4086  0.3535 -0.4845
12901SOL    HW144666   0.425  11.751  10.865  0.0698  0.2165  0.9435
12901SOL    HW244667   0.530  11.673  10.789 -1.6313  0.5886 -1.9400
12902SOL     OW44668   7.415   3.131   4.725 -0.2224 -0.0970  0.0656
12902SOL    HW144669   7.353   3.142   4.797  0.1936 -0.8780  0.5603
12902SOL    HW244670   7.495   3.100   4.768  0.7485  1.5628 -0.4703
12903SOL     OW44671  10.776  10.615   5.520 -0.1590 -0.3062  0.5266
12903SOL    HW144672  10.709  10.573   5.574 -1.7038  2.8145  1.2308
12903SOL    HW244673  10.809  10.686   5.574 -0.0336  1.4628 -1.7339
12904SOL     OW44674  11.631   3.391   4.360 -0.7272  0.2730 -0.0804
12904SOL    HW144675  11.581   3.373   4.440  0.4026 -2.8776  0.0271
12904SOL    HW244676  11.574   3.361   4.290  0.7109 -3.1781  0.0331
12905SOL     OW44677  12.371   3.429   7.975 -0.0482 -0.4231  0.3225
12905SOL    HW144678  12.332   3.515   7.959 -0.3551 -0.4193  1.0613
12905SOL    HW244679  12.465   3.443   7.962 -0.3437 -0.9446 -3.7897
12906SOL     OW44680  10.442  10.075   4.714 -0.3574  0.2120  0.4036
12906SOL    HW144681  10.355  10.049   4.744 -0.3482  1.1398  1.2976
12906SOL    HW244682  10.471  10.140   4.778  0.3795  1.0181 -0.6996
12907SOL     OW44683   5.656   4.678  11.344 -0.0676  0.3284 -0.4354
12907SOL    HW144684   5.713   4.669  11.420 -0.5768 -2.8455 -0.2988
12907SOL    HW244685   5.715   4.668  11.269 -0.2417 -2.9163 -0.2949
12908SOL     OW44686   7.128   0.767   7.734 -0.1972 -0.3654  0.2800
12908SOL    HW144687   7.141   0.794   7.825  0.5848 -0.2933  0.1554
12908SOL    HW244688   7.109   0.849   7.688 -0.7255 -0.4190  0.3961
12909SOL     OW44689  11.237  11.268   1.288  0.6098 -0.0820 -0.5850
12909SOL    HW144690  11.292  11.328   1.237  0.3578 -0.5509 -1.4201
12909SOL    HW244691  11.223  11.193   1.230  0.6972 -0.8359  0.3458
12910SOL     OW44692  11.873   8.883   0.018 -0.4528  0.2673  0.5479
12910SOL    HW144693  11.964   8.852   0.011 -0.7139 -0.3228 -0.3205
12910SOL    HW244694  11.867   8.954  -0.045 -1.3367 -1.5212 -1.4743
12911SOL     OW44695   2.837   1.194   3.354 -0.7804 -0.3772  0.0104
12911SOL    HW144696   2.798   1.239   3.279 -2.4074 -3.1257 -0.9428
12911SOL    HW244697   2.880   1.117   3.316 -0.6633 -1.2489  1.7740
12912SOL     OW44698   5.924   1.798   6.849  0.2581 -0.6032 -0.2495
12912SOL    HW144699   5.954   1.711   6.877  0.5529 -0.6937 -0.8347
12912SOL    HW244700   5.831   1.800   6.870 -0.0487 -1.5571 -1.4515
12913SOL     OW44701   6.357   9.508   9.935 -0.2168 -0.5116  0.2342
12913SOL    HW144702   6.281   9.478   9.986  0.6581 -1.6097  0.9244
12913SOL    HW244703   6.325   9.509   9.844 -1.0920 -0.8582  0.5211
12914SOL     OW44704  10.265  11.287   4.128 -0.0457  0.0933  0.0657
12914SOL    HW144705  10.297  11.304   4.040 -0.3039 -1.2717 -0.3049
12914SOL    HW244706  10.196  11.222   4.117  0.0145 -0.2045  1.2780
12915SOL     OW44707  10.182   1.212   2.586  0.3095  0.1926  0.2666
12915SOL    HW144708  10.209   1.163   2.509  1.4471  0.4071  0.5128
12915SOL    HW244709  10.223   1.165   2.659 -0.9522 -0.1585  0.7837
12916SOL     OW44710   5.752   4.031   7.475  0.2125 -0.5769  0.3795
12916SOL    HW144711   5.756   4.097   7.544 -0.4051 -0.5302  0.3751
12916SOL    HW244712   5.740   3.948   7.522 -0.6945 -0.4885  0.3087
12917SOL     OW44713  11.052   1.639  11.762 -0.5193 -0.0402 -0.2077
12917SOL    HW144714  11.027   1.550  11.739 -1.4136  0.8520 -3.0438
12917SOL    HW244715  10.977   1.693  11.735  0.6404  1.7332 -0.0359
12918SOL     OW44716   0.166   9.887   2.934 -0.3906  0.3314  0.1903
12918SOL    HW144717   0.147   9.826   3.005  1.1480 -0.7268 -0.2655
12918SOL    HW244718   0.223   9.953   2.975  0.2760 -0.1315  0.0344
12919SOL     OW44719   1.203   0.610   6.250 -0.0748 -0.1331  0.3628
12919SOL    HW144720   1.206   0.579   6.160  0.1893  1.1597 -0.0984
12919SOL    HW244721   1.138   0.555   6.293  0.8732 -1.7652 -0.2053
12920SOL     OW44722   8.408   2.138   0.960  0.3814  0.0204  0.5833
12920SOL    HW144723   8.459   2.179   0.890  1.9160  0.2796  1.8066
12920SOL    HW244724   8.467   2.073   0.998 -0.6758 -0.6088  1.1985
12921SOL     OW44725  10.763   0.190   9.547  0.5007 -0.1286 -0.1464
12921SOL    HW144726  10.776   0.267   9.602 -0.2196 -0.6728  0.7978
12921SOL    HW244727  10.810   0.120   9.592  3.1769  0.1922 -2.1781
12922SOL     OW44728   7.608   2.827   3.628 -0.6186  0.3657 -0.1332
12922SOL    HW144729   7.680   2.880   3.662 -0.9238  0.4867  0.3448
12922SOL    HW244730   7.579   2.873   3.549  0.3034 -0.0860 -0.7503
12923SOL     OW44731  12.327   1.838   5.761 -0.1100  0.4891  0.2550
12923SOL    HW144732  12.240   1.875   5.745 -0.1164  0.7837  0.9116
12923SOL    HW244733  12.338   1.843   5.856  0.7186  0.6747  0.1644
12924SOL     OW44734   4.364   7.960   0.215 -0.3046 -0.0421 -0.4765
12924SOL    HW144735   4.270   7.962   0.196 -0.5113  2.3667  0.4626
12924SOL    HW244736   4.402   8.023   0.153  0.1925  1.3801  1.1973
12925SOL     OW44737   0.671   0.091   9.534 -1.2098  0.4063  0.2802
12925SOL    HW144738   0.671   0.171   9.587 -1.6896 -0.1915  1.1993
12925SOL    HW244739   0.584   0.054   9.546 -1.2348  0.1177 -0.7219
12926SOL     OW44740   9.027   9.377   7.232 -0.1639 -0.4910 -0.2331
12926SOL    HW144741   9.046   9.285   7.247 -1.7368 -1.5366 -3.7488
12926SOL    HW244742   9.081   9.401   7.157 -0.2434  1.3097  0.2438
12927SOL     OW44743   4.041   0.847   3.728  0.0746  0.1345 -0.4009
12927SOL    HW144744   4.062   0.754   3.727 -1.1648 -0.2377  1.7424
12927SOL    HW244745   4.061   0.875   3.817 -1.9539  1.2828 -0.2540
12928SOL     OW44746   7.218   5.870   8.437  0.1022 -0.4477  0.0864
12928SOL    HW144747   7.180   5.876   8.349  2.2354  1.9133 -0.7909
12928SOL    HW244748   7.187   5.948   8.482 -2.5586 -2.5566  2.2826
12929SOL     OW44749   8.109  10.172   5.830 -0.5783 -0.2509  0.1943
12929SOL    HW144750   8.121  10.164   5.736 -1.0950 -1.1039  0.1902
12929SOL    HW244751   8.170  10.108   5.868  0.3417  0.7663  0.4965
12930SOL     OW44752   3.350   8.948  10.067 -0.2409 -0.1942  0.2242
12930SOL    HW144753   3.273   8.958  10.010  0.4576  0.1858 -0.6802
12930SOL    HW244754   3.424   8.966  10.009  0.4807  0.5220  1.3377
12931SOL     OW44755   0.116   4.790   4.673  0.1917 -0.6790  0.0015
12931SOL    HW144756   0.056   4.715   4.680  0.3395 -0.9533 -1.5091
12931SOL    HW244757   0.181   4.775   4.742  0.0734 -1.8216 -0.1229
12932SOL     OW44758  11.636   3.193  11.503 -0.0062 -0.6748 -0.3026
12932SOL    HW144759  11.546   3.199  11.536  0.2531 -0.6728  0.4380
12932SOL    HW244760  11.662   3.285  11.489 -0.5186 -0.7218 -1.6794
12933SOL     OW44761   1.359   0.192   6.471  0.4138 -0.4757 -0.2595
12933SOL    HW144762   1.392   0.197   6.382  1.4957 -0.2727  0.1438
12933SOL    HW244763   1.426   0.235   6.525 -1.1407  1.2641  0.4241
12934SOL     OW44764   8.928   0.543   5.203  0.3245 -0.1278  0.2651
12934SOL    HW144765   8.840   0.525   5.170  0.9175 -1.0678 -0.8726
12934SOL    HW244766   8.966   0.456   5.219  0.8339  0.2776  1.3456
12935SOL     OW44767   4.507   8.900   3.941 -0.0109 -0.6287 -0.0341
12935SOL    HW144768   4.565   8.831   3.973  0.1111 -1.3247 -1.6651
12935SOL    HW244769   4.507   8.890   3.846  1.8028  3.0792 -0.6051
12936SOL     OW44770   1.760   4.602   0.603  0.1046 -0.4060 -0.6280
12936SOL    HW144771   1.805   4.661   0.543  0.7328  0.2175  0.4116
12936SOL    HW244772   1.682   4.650   0.631 -0.2252 -0.7230 -0.9864
12937SOL     OW44773   0.188   9.052   0.978 -0.4343  0.5883 -0.4929
12937SOL    HW144774   0.144   9.049   0.893 -0.8321  1.5053 -0.3292
12937SOL    HW244775   0.269   9.099   0.962 -0.7533  1.2248 -0.2650
12938SOL     OW44776   4.295  11.656  12.390  0.1289  0.1417  0.1780
12938SOL    HW144777   4.247  11.656  12.473 -1.3254 -0.7426 -0.6167
12938SOL    HW244778   4.258  11.730  12.341  0.1178 -0.0698 -0.1375
12939SOL     OW44779   0.290   4.572   6.625 -0.8235  0.1293  0.0575
12939SOL    HW144780   0.365   4.537   6.576  2.4559  3.4142  2.2416
12939SOL    HW244781   0.275   4.507   6.694 -1.6270 -1.6366 -1.6503
12940SOL     OW44782   5.450   6.620  10.588 -0.2995  0.0678  0.4691
12940SOL    HW144783   5.437   6.534  10.547 -1.9546 -0.4140  1.8839
12940SOL    HW244784   5.436   6.682  10.517  1.1178 -0.7971 -0.6308
12941SOL     OW44785  10.069   0.557   9.750  0.3147 -0.4741 -0.2002
12941SOL    HW144786  10.113   0.478   9.780 -0.1392 -0.6477 -0.0044
12941SOL    HW244787   9.978   0.546   9.774  0.1235 -0.1858 -0.7630
12942SOL     OW44788   3.193  12.372   0.254  0.1152  0.7757 -0.5052
12942SOL    HW144789   3.260  12.322   0.301  2.2055  1.1610 -2.8132
12942SOL    HW244790   3.220  12.463   0.265  0.8550  0.8672 -2.5295
12943SOL     OW44791   0.986   7.479  12.431 -0.5646 -0.1463  0.5150
12943SOL    HW144792   1.012   7.390  12.410  1.8983  0.6004  0.1282
12943SOL    HW244793   0.965   7.476  12.525 -0.4396 -1.1031  0.5202
12944SOL     OW44794   7.224   3.222   5.233 -0.4126  0.0142 -0.3050
12944SOL    HW144795   7.219   3.318   5.236  1.5312  0.1391  1.7023
12944SOL    HW244796   7.134   3.193   5.242 -1.1273  1.6178 -1.6256
12945SOL     OW44797   2.281   7.026   3.561  0.5876 -0.3752 -0.2333
12945SOL    HW144798   2.247   6.960   3.621  0.4816 -0.9035 -0.8578
12945SOL    HW244799   2.218   7.028   3.489  0.4760  0.5706 -0.1181
12946SOL     OW44800  10.821  11.333  11.754  0.2334  0.5402 -0.2935
12946SOL    HW144801  10.764  11.303  11.825  0.4353  0.0327 -0.3393
12946SOL    HW244802  10.876  11.400  11.794  1.5311 -0.9251  0.5115
12947SOL     OW44803   1.606   5.682   2.111  0.0417 -0.0804  0.3095
12947SOL    HW144804   1.637   5.748   2.174  3.7482 -2.2757  1.1305
12947SOL    HW244805   1.537   5.635   2.158 -0.5350  1.2462  0.8604
12948SOL     OW44806   2.018   0.232   4.122  0.5934  0.2315 -0.0382
12948SOL    HW144807   1.954   0.300   4.143  0.5600  0.3355 -0.4811
12948SOL    HW244808   2.009   0.218   4.028  1.7535  0.7979 -0.2479
12949SOL     OW44809   2.533   1.525   6.221  0.2055 -0.7987  0.3806
12949SOL    HW144810   2.525   1.481   6.136  0.4701 -0.8096  0.3614
12949SOL    HW244811   2.455   1.498   6.269 -0.5789  0.1446 -0.2933
12950SOL     OW44812   9.673   2.379  10.159 -0.1486  0.3046  0.2146
12950SOL    HW144813   9.705   2.293  10.132 -0.9506  0.0421  0.0818
12950SOL    HW244814   9.634   2.364  10.245  0.2234  0.6579  0.4516
12951SOL     OW44815   1.769   5.101   5.482  0.2950  0.3553  0.1711
12951SOL    HW144816   1.804   5.016   5.511 -1.3316 -0.2166  0.5730
12951SOL    HW244817   1.834   5.134   5.420  0.1906 -1.9795 -1.3219
12952SOL     OW44818   1.538   1.047   2.250  0.2569 -0.1013 -0.6411
12952SOL    HW144819   1.457   1.097   2.257  0.0548 -0.4612 -0.4135
12952SOL    HW244820   1.522   0.967   2.299  0.7024 -0.2382 -0.7114
12953SOL     OW44821   8.384   0.490  12.132  0.4345 -0.1695  0.3329
12953SOL    HW144822   8.334   0.490  12.050 -1.3847 -0.2396  1.3713
12953SOL    HW244823   8.399   0.397  12.150  0.1552 -0.1957  0.4461
12954SOL     OW44824   0.926   1.093   8.392  0.2646  0.5546  0.0780
12954SOL    HW144825   0.879   1.171   8.363 -0.1196 -0.2031 -1.4400
12954SOL    HW244826   0.958   1.115   8.479 -1.1831  1.8252  0.3247
12955SOL     OW44827   6.833   6.065   3.791 -0.3395 -0.2407  0.0268
12955SOL    HW144828   6.911   6.115   3.815 -1.5448  2.4628 -1.2008
12955SOL    HW244829   6.781   6.061   3.871 -0.6648  1.4824 -0.0531
12956SOL     OW44830   6.672   4.076   7.098 -0.5768  0.3200 -0.2197
12956SOL    HW144831   6.719   4.000   7.134 -1.2346 -0.3531 -0.7692
12956SOL    HW244832   6.580   4.053   7.106 -0.7526  0.0788 -2.4395
12957SOL     OW44833   3.446   8.684   9.535 -0.5691  0.6810 -0.1722
12957SOL    HW144834   3.407   8.678   9.447 -1.4307  1.1477  0.1670
12957SOL    HW244835   3.386   8.741   9.584  0.2901  1.0081  0.5142
12958SOL     OW44836   2.451  10.895   3.468  0.2252 -0.1642 -0.1113
12958SOL    HW144837   2.359  10.918   3.483  0.3589 -0.1212  0.6605
12958SOL    HW244838   2.447  10.816   3.414 -0.2764 -0.5033  0.4069
12959SOL     OW44839   9.607   8.608   5.562  0.5645 -0.4823 -0.1152
12959SOL    HW144840   9.670   8.557   5.512  0.3788  0.8197 -1.7545
12959SOL    HW244841   9.650   8.692   5.576  0.7245 -0.8901  2.2307
12960SOL     OW44842   2.450   8.121   0.897 -0.4561 -0.4412 -0.6507
12960SOL    HW144843   2.411   8.118   0.985 -0.9244  1.1669 -0.7814
12960SOL    HW244844   2.536   8.161   0.911 -1.0306  1.0011 -1.0559
12961SOL     OW44845   0.203   1.811   2.624  0.4909  0.0544 -0.1384
12961SOL    HW144846   0.251   1.847   2.698 -1.2329 -0.2772  1.1804
12961SOL    HW244847   0.131   1.871   2.609  1.5824  0.9135 -2.5415
12962SOL     OW44848   0.887   0.932  10.921  0.4135 -0.2463  0.2001
12962SOL    HW144849   0.905   1.023  10.941  1.5152 -0.0238 -1.5779
12962SOL    HW244850   0.921   0.884  10.997 -1.4282  0.8236  1.8084
12963SOL     OW44851   4.811   2.151   3.525 -0.1205  0.0284  0.0003
12963SOL    HW144852   4.858   2.209   3.585 -1.8471  0.9603  0.5212
12963SOL    HW244853   4.767   2.210   3.464  1.7802 -0.8975 -2.4254
12964SOL     OW44854   0.804   3.943   0.869  0.1404 -0.5121  0.0012
12964SOL    HW144855   0.858   4.018   0.846  0.1762  0.3581  2.5780
12964SOL    HW244856   0.775   3.961   0.959 -2.4545 -2.0949 -0.4173
12965SOL     OW44857  10.076   1.866   5.619 -0.4279  0.0780  0.1178
12965SOL    HW144858  10.066   1.875   5.525 -1.9850 -0.6734  0.1786
12965SOL    HW244859   9.992   1.829   5.649  0.2006 -0.1381  1.7254
12966SOL     OW44860   8.098   8.062  11.217  0.5697  0.4330  0.3075
12966SOL    HW144861   8.117   8.030  11.305  0.8774 -1.0532 -0.2584
12966SOL    HW244862   8.009   8.029  11.199 -0.1042  2.0113  0.5990
12967SOL     OW44863  10.039  11.875   1.030  0.3551 -0.3396 -0.0969
12967SOL    HW144864   9.969  11.893   1.093  2.7813  1.3257  2.4332
12967SOL    HW244865  10.036  11.949   0.969 -0.3073 -0.4505 -0.1973
12968SOL     OW44866   1.444   7.149  10.065 -0.6389  0.8800 -0.0690
12968SOL    HW144867   1.387   7.223  10.043 -1.0664  0.6512  0.2574
12968SOL    HW244868   1.392   7.096  10.125 -0.8319 -0.3703 -1.2978
12969SOL     OW44869   5.781  11.689  10.105 -0.3302  0.3594  0.1083
12969SOL    HW144870   5.859  11.735  10.135 -0.4924  0.1028  0.9369
12969SOL    HW244871   5.708  11.742  10.135 -0.5923 -1.3323  2.7425
12970SOL     OW44872   1.836   6.332   8.297 -0.2186  0.2130 -0.1458
12970SOL    HW144873   1.813   6.418   8.332  1.2620  0.5107  0.1586
12970SOL    HW244874   1.751   6.288   8.283 -0.9437  0.7932  1.9968
12971SOL     OW44875   1.558   3.510   3.184  0.0874  0.0199 -0.0868
12971SOL    HW144876   1.528   3.470   3.266 -0.8759  0.5303 -0.1758
12971SOL    HW244877   1.497   3.479   3.118 -0.0048  0.7341 -0.3532
12972SOL     OW44878   1.323  12.283   6.092 -0.0146  0.3884  0.8162
12972SOL    HW144879   1.278  12.325   6.019 -1.6840 -1.5222  0.6758
12972SOL    HW244880   1.393  12.233   6.052 -0.7131 -0.3800  0.5296
12973SOL     OW44881   5.697   1.245   9.254  0.0163  0.1731 -0.6240
12973SOL    HW144882   5.664   1.325   9.293 -0.2392 -0.1764 -0.1075
12973SOL    HW244883   5.627   1.216   9.195  0.3693  0.6587 -1.2927
12974SOL     OW44884   9.308  10.821   5.730 -0.2350 -0.1113  0.5420
12974SOL    HW144885   9.385  10.859   5.771 -0.4239 -0.9238  1.6990
12974SOL    HW244886   9.343  10.763   5.662  0.1250  0.2867  0.3859
12975SOL     OW44887   2.500   0.782  11.029 -0.2917  0.2147 -0.1973
12975SOL    HW144888   2.568   0.717  11.049 -1.2022 -0.9885 -0.8444
12975SOL    HW244889   2.474   0.762  10.939 -1.1618  0.9601 -0.1207
12976SOL     OW44890   9.541  10.946  12.448  0.2960  0.2876 -0.1930
12976SOL    HW144891   9.490  11.016  12.490 -1.1053  0.2147 -1.6960
12976SOL    HW244892   9.476  10.885  12.415  1.4726 -1.1847  0.1031
12977SOL     OW44893   1.961   0.205   9.393  0.1579  0.5328 -0.1335
12977SOL    HW144894   1.946   0.126   9.342 -2.3959 -0.7598  2.2771
12977SOL    HW244895   1.876   0.222   9.434  1.6456  2.2207  2.5228
12978SOL     OW44896   9.962   6.583   0.655  0.2077 -0.1960 -0.1627
12978SOL    HW144897   9.876   6.618   0.633  0.5480 -0.6138 -2.4063
12978SOL    HW244898   9.948   6.490   0.670  0.2001 -0.1837 -0.0943
12979SOL     OW44899   6.291  11.114  11.427  0.3616 -0.3157 -0.2825
12979SOL    HW144900   6.300  11.187  11.487  1.7868 -0.2371 -0.5674
12979SOL    HW244901   6.279  11.038  11.483  1.5720 -0.2287  0.1182
12980SOL     OW44902   5.913   3.906   0.932 -0.1766 -0.0518  0.2149
12980SOL    HW144903   5.957   3.886   1.014 -0.6748 -0.0040  0.5006
12980SOL    HW244904   5.889   3.821   0.896 -0.8754 -0.0355  0.6350
12981SOL     OW44905   6.495   4.974   8.038  0.0048  0.2657  0.1757
12981SOL    HW144906   6.512   4.916   8.112  0.8933  0.0066 -0.2166
12981SOL    HW244907   6.552   5.049   8.052 -1.2106  1.1255  0.7302
12982SOL     OW44908   1.251  10.370   8.210  0.1784 -0.3513  0.0852
12982SOL    HW144909   1.257  10.463   8.185 -0.9502  0.2822  1.9312
12982SOL    HW244910   1.287  10.367   8.299  0.6230 -1.7934 -0.1211
12983SOL     OW44911   3.610   5.878   6.979  0.6705 -0.4083 -0.1923
12983SOL    HW144912   3.561   5.854   6.900 -0.5563  0.3380  0.3221
12983SOL    HW244913   3.670   5.947   6.950  0.7237 -0.6231 -0.6099
12984SOL     OW44914   0.148   1.930   7.454 -0.4035 -0.4439  0.1071
12984SOL    HW144915   0.158   1.836   7.439  0.3352 -0.2176 -0.9423
12984SOL    HW244916   0.222   1.953   7.511 -0.7659 -0.5496  0.6246
12985SOL     OW44917   9.609   4.694   0.814 -0.3372  0.3008  0.5360
12985SOL    HW144918   9.641   4.729   0.897 -0.3022 -2.2069  1.6423
12985SOL    HW244919   9.677   4.634   0.784 -0.8352  0.3395 -0.7682
12986SOL     OW44920   3.226  10.215   8.490  0.2504 -0.3116 -0.1498
12986SOL    HW144921   3.271  10.222   8.575 -1.6543 -1.3511  1.0046
12986SOL    HW244922   3.133  10.220   8.511 -0.3860 -2.6424 -1.9157
12987SOL     OW44923  12.166   9.520  11.103  0.3100 -0.5398  0.1055
12987SOL    HW144924  12.178   9.429  11.131  2.1799 -0.5239 -0.4973
12987SOL    HW244925  12.242   9.566  11.136  0.6981  0.2531 -1.7490
12988SOL     OW44926   5.293   4.722   6.012 -0.7962  0.1587  0.1939
12988SOL    HW144927   5.294   4.778   5.935 -1.6570 -0.3803 -0.2230
12988SOL    HW244928   5.280   4.634   5.978 -2.4765  0.0424  0.9951
12989SOL     OW44929   6.405   2.359   4.550 -0.1905 -0.1666  0.1900
12989SOL    HW144930   6.328   2.411   4.527  0.6360  0.0773 -2.2480
12989SOL    HW244931   6.480   2.411   4.522  0.8746 -0.8056  1.6755
12990SOL     OW44932   0.539  10.441   9.620 -0.5490 -0.2367  0.1921
12990SOL    HW144933   0.581  10.378   9.679 -4.6216 -2.1300  1.4585
12990SOL    HW244934   0.526  10.519   9.674 -0.5854 -0.4659  0.5193
12991SOL     OW44935  11.467  11.669   4.353 -0.0384  0.1054 -0.2192
12991SOL    HW144936  11.512  11.641   4.433  0.4804 -0.0569 -0.5659
12991SOL    HW244937  11.417  11.747   4.380 -0.0403 -0.0744  0.3114
12992SOL     OW44938   6.293   9.469   8.314  0.4064 -0.3803 -0.3615
12992SOL    HW144939   6.283   9.376   8.334  1.5839 -0.9901 -2.2949
12992SOL    HW244940   6.388   9.481   8.303  0.2798  1.0706 -0.1193
12993SOL     OW44941  12.272   1.750  11.654  0.5329 -0.2988  0.4827
12993SOL    HW144942  12.345   1.796  11.694  0.6675  0.1470 -0.2541
12993SOL    HW244943  12.296   1.744  11.561 -0.0176 -0.8217  0.3676
12994SOL     OW44944   4.040  11.568  10.229  0.1169 -0.4304  0.3072
12994SOL    HW144945   3.962  11.560  10.285 -0.8051  0.4686 -0.8034
12994SOL    HW244946   4.014  11.629  10.160  1.2554 -1.3958 -1.0423
12995SOL     OW44947   3.704   4.918   8.685  0.0244  0.5279  0.0470
12995SOL    HW144948   3.696   4.834   8.731  0.7225  0.8348  0.7380
12995SOL    HW244949   3.722   4.894   8.594 -0.4997 -0.0751  0.0972
12996SOL     OW44950   6.482   6.544   5.287  0.1850  1.2101  0.8427
12996SOL    HW144951   6.420   6.579   5.223  0.7523 -0.6033 -0.8151
12996SOL    HW244952   6.528   6.621   5.320 -1.6402  2.4167  0.7495
12997SOL     OW44953   4.829   0.005   1.701 -0.1094  0.0377  0.0843
12997SOL    HW144954   4.768  -0.047   1.752  0.4416  0.5095  1.2618
12997SOL    HW244955   4.783   0.088   1.685 -0.9710 -0.7515 -1.7575
12998SOL     OW44956   2.304   1.256   8.402  0.2529  0.4836 -0.3895
12998SOL    HW144957   2.241   1.229   8.336  1.0060 -2.0107 -0.1740
12998SOL    HW244958   2.329   1.345   8.376 -1.6674  0.6950 -1.7202
12999SOL     OW44959   2.715   6.498   0.493 -0.2484  0.1103 -0.4977
12999SOL    HW144960   2.657   6.571   0.515 -0.4033 -0.1926  0.1084
12999SOL    HW244961   2.720   6.500   0.397 -0.0014  1.1130 -0.4777
13000SOL     OW44962   2.185   4.545   7.552 -0.1757 -0.2951  0.2351
13000SOL    HW144963   2.238   4.604   7.500  0.5015  1.3348  2.5898
13000SOL    HW244964   2.099   4.587   7.556 -0.7947 -1.3691 -1.0405
13001SOL     OW44965   1.649   8.056  11.015 -0.1133  0.2749 -0.3443
13001SOL    HW144966   1.714   7.989  10.992 -0.4194  0.9027 -3.5679
13001SOL    HW244967   1.568   8.007  11.028  0.0684 -0.1704 -0.8165
13002SOL     OW44968   2.821   0.754   8.690  0.9349 -0.5383  0.6930
13002SOL    HW144969   2.773   0.800   8.758  2.1942  0.3307  1.0365
13002SOL    HW244970   2.812   0.809   8.612 -1.4505 -2.0761 -0.2511
13003SOL     OW44971  10.634   9.319   8.956  0.3853 -0.0769 -0.1103
13003SOL    HW144972  10.611   9.236   8.913  1.8759 -1.2128  1.1768
13003SOL    HW244973  10.694   9.294   9.026  0.5215  2.0673  0.6066
13004SOL     OW44974   6.054   1.426   9.469  0.5264  0.1020 -0.2706
13004SOL    HW144975   6.067   1.331   9.476 -0.1325 -0.0975 -1.5443
13004SOL    HW244976   6.034   1.441   9.377  0.3569  1.4589 -0.0319
13005SOL     OW44977   8.618   8.623   7.529 -0.2202 -0.2201  0.0830
13005SOL    HW144978   8.632   8.712   7.496 -1.9378 -0.5865 -1.8424
13005SOL    HW244979   8.555   8.633   7.600  0.7794  0.2266  0.9300
13006SOL     OW44980   3.134   8.315   7.227  0.0419 -0.7808 -0.0720
13006SOL    HW144981   3.153   8.329   7.134 -0.6854  0.8071 -0.0165
13006SOL    HW244982   3.183   8.236   7.250  0.5739 -0.9578 -1.6970
13007SOL     OW44983  11.523  12.345  11.416  0.0143 -0.4406  0.1808
13007SOL    HW144984  11.548  12.411  11.351 -0.9042  0.2147  0.4754
13007SOL    HW244985  11.520  12.263  11.367 -3.0186  0.3860 -1.2372
13008SOL     OW44986  12.489   6.312   3.833  0.3496 -0.2642  0.3939
13008SOL    HW144987  12.493   6.314   3.737  1.6739 -1.3872  0.3957
13008SOL    HW244988  12.429   6.241   3.852  0.6909 -0.5530  0.3951
13009SOL     OW44989   8.834   9.976   9.048 -0.4689  0.2376 -0.0335
13009SOL    HW144990   8.908   9.915   9.052  0.5605  1.4683  0.5348
13009SOL    HW244991   8.807   9.986   9.139 -0.9983  0.2063 -0.1861
13010SOL     OW44992  12.245   6.146   4.930  0.4833  0.0833 -0.1442
13010SOL    HW144993  12.292   6.090   4.868  1.5487 -1.2562  1.7769
13010SOL    HW244994  12.257   6.235   4.895 -0.3960 -0.7183 -2.7102
13011SOL     OW44995   3.102  10.440  12.468  0.2399 -0.4852  0.0815
13011SOL    HW144996   3.077  10.423  12.377  1.3171  0.9824 -0.5409
13011SOL    HW244997   3.024  10.478  12.508 -0.1063 -0.7203 -0.3626
13012SOL     OW44998   2.495   8.410  10.944  0.0196  0.2965 -0.3440
13012SOL    HW144999   2.534   8.457  11.018 -1.5287  1.0711  0.0119
13012SOL    HW245000   2.454   8.334  10.984  1.1724 -0.5735 -0.7343
13013SOL     OW45001   1.809   7.515   8.304 -0.3191 -0.5760 -0.4066
13013SOL    HW145002   1.831   7.570   8.229 -0.3022  0.7734  0.5387
13013SOL    HW245003   1.741   7.456   8.273  1.4657 -1.8005 -2.1759
13014SOL     OW45004   5.902   0.047   3.150 -0.2525 -0.1638 -0.5115
13014SOL    HW145005   5.861   0.038   3.236 -1.2498 -1.8844 -1.1063
13014SOL    HW245006   5.829   0.052   3.089  0.4022 -0.9841 -1.4086
13015SOL     OW45007  10.620  12.294   0.157  0.4594  0.3732 -0.2136
13015SOL    HW145008  10.575  12.322   0.078 -1.3614  0.3866  0.7714
13015SOL    HW245009  10.574  12.215   0.184  2.1733 -0.6465 -0.0869
13016SOL     OW45010   9.511   5.913   0.774 -0.1876  0.3677  0.0304
13016SOL    HW145011   9.420   5.891   0.753 -0.6489  1.8859  0.3176
13016SOL    HW245012   9.512   6.009   0.775  2.1790  0.5582 -3.4066
13017SOL     OW45013   6.846   6.152   0.059  0.6722  0.3860 -0.2379
13017SOL    HW145014   6.892   6.069   0.052  0.2835 -0.0447  1.8270
13017SOL    HW245015   6.915   6.218   0.063  1.2481 -0.2650  3.0770
13018SOL     OW45016   4.764   4.019  12.187 -0.2324 -1.0393 -0.4688
13018SOL    HW145017   4.779   4.088  12.123  1.9020 -0.5839  0.4467
13018SOL    HW245018   4.771   3.938  12.138  0.4154 -0.6746 -0.9847
13019SOL     OW45019   4.888   0.438   0.090 -0.0183 -0.4364 -0.5093
13019SOL    HW145020   4.804   0.457   0.047 -1.1611 -0.4002  1.5681
13019SOL    HW245021   4.863   0.397   0.173  2.0046  0.1837  0.4692
13020SOL     OW45022   4.670   9.036  12.430  0.0229  0.3339 -0.0010
13020SOL    HW145023   4.735   9.071  12.490 -0.4983 -0.7678  1.2636
13020SOL    HW245024   4.685   8.941  12.431 -1.2737  0.1109 -0.0747
13021SOL     OW45025   5.642   1.807   7.367  0.2158  0.4538 -0.1654
13021SOL    HW145026   5.566   1.749   7.368  1.1427 -1.0358 -2.9952
13021SOL    HW245027   5.711   1.757   7.412  0.2380  0.6378  0.0061
13022SOL     OW45028   5.679   5.009   3.430 -0.4170  0.5686  0.3374
13022SOL    HW145029   5.772   5.001   3.449 -0.2534  0.7507 -0.3637
13022SOL    HW245030   5.640   4.930   3.466  0.1411  0.0581 -0.1533
13023SOL     OW45031   1.697  10.606   3.524  0.1139  0.2753 -0.0497
13023SOL    HW145032   1.687  10.587   3.618  0.4451 -1.4414 -0.3300
13023SOL    HW245033   1.608  10.595   3.489  0.2490 -0.5909 -0.1589
13024SOL     OW45034   3.366   4.364  11.521 -0.0197 -0.0818  0.4900
13024SOL    HW145035   3.340   4.287  11.470 -0.1577  0.8701 -0.9206
13024SOL    HW245036   3.323   4.351  11.606 -0.0119 -1.5658  0.2979
13025SOL     OW45037   8.375  11.562   9.478 -0.2497 -0.3261  0.4953
13025SOL    HW145038   8.440  11.541   9.412  0.3976 -0.3817  1.1406
13025SOL    HW245039   8.387  11.496   9.546 -0.8598 -0.2350  0.6985
13026SOL     OW45040   7.988   6.958   1.373  0.1791 -0.7727 -0.3570
13026SOL    HW145041   8.016   6.872   1.405  0.7706 -0.4091  0.1106
13026SOL    HW245042   8.062   6.988   1.320 -0.1709 -0.6972 -0.8111
13027SOL     OW45043   5.543   5.323   6.900  0.3201  0.5506 -0.2156
13027SOL    HW145044   5.635   5.339   6.882  0.3631  0.2667 -0.2413
13027SOL    HW245045   5.499   5.404   6.872  0.4017  0.1947 -1.4381
13028SOL     OW45046   2.808   1.616   3.353  0.1119 -0.1021 -0.3779
13028SOL    HW145047   2.867   1.675   3.400 -1.8692  0.1723  1.9525
13028SOL    HW245048   2.866   1.551   3.313  2.0373  0.0042  1.9899
13029SOL     OW45049   8.224   3.238  10.669 -0.3715  0.3304  0.4119
13029SOL    HW145050   8.313   3.270  10.683 -0.2774  0.5123 -0.5526
13029SOL    HW245051   8.168   3.313  10.690 -0.2967  0.2544  0.8947
13030SOL     OW45052  12.116   8.355   5.330  0.6317  0.5143 -0.0872
13030SOL    HW145053  12.035   8.356   5.381 -1.0038  2.6517 -2.4945
13030SOL    HW245054  12.088   8.348   5.239  3.1126  1.4599 -1.0132
13031SOL     OW45055   7.982  10.319  12.187 -0.2190 -0.4336  0.2885
13031SOL    HW145056   8.049  10.254  12.205  0.3270  0.0892  0.1650
13031SOL    HW245057   8.030  10.401  12.175 -1.0434  0.8965  4.3577
13032SOL     OW45058  10.703   5.616   6.094  0.5587  0.4134 -0.2024
13032SOL    HW145059  10.739   5.655   6.015  2.0236  1.6601  1.0357
13032SOL    HW245060  10.637   5.678   6.124  2.3804  1.6720  1.3685
13033SOL     OW45061   1.692   7.581  11.235  0.5523  0.1006 -0.1843
13033SOL    HW145062   1.674   7.569  11.142  0.6616 -1.5043 -0.0292
13033SOL    HW245063   1.759   7.649  11.238  2.5577 -1.7067 -1.4936
13034SOL     OW45064   2.330   7.499   3.882  0.2476 -0.1925 -0.3129
13034SOL    HW145065   2.316   7.587   3.917 -2.2418 -0.9729  0.8792
13034SOL    HW245066   2.270   7.493   3.807  0.1341 -0.9961 -0.1643
13035SOL     OW45067   3.160   2.155   1.588 -0.4406 -0.1044  0.5295
13035SOL    HW145068   3.086   2.205   1.623 -0.3770 -0.3619  1.0313
13035SOL    HW245069   3.217   2.140   1.663 -0.3775 -0.7938  0.3468
13036SOL     OW45070   8.646   6.146   2.966 -0.1536  0.0040  0.4156
13036SOL    HW145071   8.555   6.117   2.971  0.0479 -0.5661  0.8500
13036SOL    HW245072   8.646   6.233   3.006 -0.5403  0.0969  0.2193
13037SOL     OW45073   3.101   2.716  12.439  0.0596  0.0515 -0.0349
13037SOL    HW145074   3.055   2.679  12.515 -0.9431  0.8515 -0.2257
13037SOL    HW245075   3.067   2.805  12.432  1.1997  0.4623 -0.5739
13038SOL     OW45076   5.084   7.607   2.299 -0.4291  0.6954  0.0863
13038SOL    HW145077   5.063   7.690   2.257  0.3676  0.0333 -1.7540
13038SOL    HW245078   5.141   7.630   2.372  0.1901  1.7409 -0.7044
13039SOL     OW45079   4.750  11.364   9.254  0.4456  0.3232 -0.5517
13039SOL    HW145080   4.692  11.380   9.329  1.3567  0.8760  0.0559
13039SOL    HW245081   4.836  11.350   9.293  0.5668 -1.4380 -1.3811
13040SOL     OW45082   0.650   0.339   1.902 -0.1473  0.6658  0.0531
13040SOL    HW145083   0.650   0.327   1.997 -0.1260  0.1780 -0.0026
13040SOL    HW245084   0.589   0.272   1.869 -0.9790  1.5296 -0.2037
13041SOL     OW45085   2.066   0.613   4.411 -0.1559  0.4970 -0.1792
13041SOL    HW145086   2.039   0.522   4.401 -1.0936  0.8519 -0.9559
13041SOL    HW245087   2.013   0.662   4.349  0.9191  1.4818 -0.3705
13042SOL     OW45088   4.164  10.166   5.910 -0.2543 -0.0883  0.5626
13042SOL    HW145089   4.206  10.178   5.825 -1.9483  0.8568 -0.1836
13042SOL    HW245090   4.191  10.241   5.962 -0.0030 -0.1520  0.5230
13043SOL     OW45091   8.659  11.060   0.565 -0.8431  0.9301  0.2847
13043SOL    HW145092   8.724  10.993   0.585 -0.1592  2.1892  2.6664
13043SOL    HW245093   8.627  11.037   0.478 -0.1529 -2.0465  0.7057
13044SOL     OW45094   6.738   1.775   6.573 -0.3101  0.0660 -0.1175
13044SOL    HW145095   6.654   1.730   6.564  0.7386 -2.0800  0.1597
13044SOL    HW245096   6.769   1.750   6.660 -0.0019  2.0317  0.4032
13045SOL     OW45097  11.059   4.260   6.465  0.2739 -0.0415 -0.6016
13045SOL    HW145098  11.081   4.307   6.385  0.1717  0.6129 -0.2537
13045SOL    HW245099  11.074   4.324   6.535 -3.0115  0.6049 -0.3306
13046SOL     OW45100  10.954   4.437   9.200 -0.3556  0.4780 -0.2345
13046SOL    HW145101  10.988   4.374   9.137 -1.4321 -0.0821 -0.2744
13046SOL    HW245102  11.013   4.512   9.194  1.0221 -0.5686 -0.0856
13047SOL     OW45103   0.549   8.398   8.980 -0.0655 -0.4501  0.6550
13047SOL    HW145104   0.470   8.424   8.933  0.4218 -1.3106 -0.7077
13047SOL    HW245105   0.583   8.324   8.930  2.7596  1.1966 -0.0433
13048SOL     OW45106  11.474   2.347  11.723  0.1628  0.7595 -0.1765
13048SOL    HW145107  11.516   2.264  11.746 -0.8235  0.4119  0.4483
13048SOL    HW245108  11.542   2.397  11.678  1.2272  0.2207  0.7812
13049SOL     OW45109   7.347   1.684   4.700 -0.7279 -0.2358 -0.4851
13049SOL    HW145110   7.277   1.638   4.653 -0.6992 -0.1819 -0.5800
13049SOL    HW245111   7.355   1.768   4.655 -1.3247  0.1863  0.1765
13050SOL     OW45112   2.429   6.041   4.471 -0.3343 -0.0261 -0.4124
13050SOL    HW145113   2.357   6.103   4.483  0.6253  0.7951  1.5328
13050SOL    HW245114   2.430   6.023   4.377 -1.6148  1.7214 -0.8091
13051SOL     OW45115   9.025   2.800  11.308 -0.3019 -0.1941 -0.5274
13051SOL    HW145116   9.071   2.726  11.347 -1.0067 -0.3021  0.1246
13051SOL    HW245117   8.933   2.774  11.309 -0.6401  0.9605  0.3589
13052SOL     OW45118   7.664   3.900   1.373  0.0155  0.0893  0.0257
13052SOL    HW145119   7.575   3.908   1.406  1.0680  2.3698  2.7647
13052SOL    HW245120   7.682   3.985   1.333  1.9364  0.9826  2.5245
13053SOL     OW45121   8.180   6.504  11.693  0.3447  0.1954  0.2129
13053SOL    HW145122   8.099   6.525  11.740 -0.0352 -0.1536 -0.2706
13053SOL    HW245123   8.241   6.574  11.718 -0.3364  0.8771  0.0216
13054SOL     OW45124   3.044  11.327   1.123 -0.3030 -0.2170  0.4646
13054SOL    HW145125   3.070  11.235   1.117 -0.9749 -0.4735  1.2533
13054SOL    HW245126   2.961  11.331   1.074 -0.1830  0.0035  0.2801
13055SOL     OW45127   0.131   6.637   2.011 -0.5293  0.4633  0.2203
13055SOL    HW145128   0.088   6.650   2.095  0.3194 -0.7762  0.8811
13055SOL    HW245129   0.225   6.639   2.032 -0.3200 -1.1713 -0.4583
13056SOL     OW45130   6.823   7.846   9.299 -0.4311 -0.0453 -0.5279
13056SOL    HW145131   6.886   7.776   9.316 -0.0620  0.2956 -0.4830
13056SOL    HW245132   6.867   7.903   9.236 -0.1472  0.9210  0.5166
13057SOL     OW45133   4.735   5.711  11.791  0.4965  0.7889  0.1750
13057SOL    HW145134   4.779   5.793  11.771  0.0731  1.2189  0.9312
13057SOL    HW245135   4.725   5.667  11.707  0.0441  1.8725 -0.3564
13058SOL     OW45136   4.713   9.311   5.717  0.1506 -0.1681  0.0970
13058SOL    HW145137   4.661   9.240   5.754 -0.0047  0.5720  1.3659
13058SOL    HW245138   4.804   9.285   5.735  0.1718 -0.7595 -0.8110
13059SOL     OW45139  10.025   7.346  10.127  0.0767 -0.3686  0.1136
13059SOL    HW145140  10.094   7.354  10.061 -2.3117  2.3193 -2.3011
13059SOL    HW245141   9.953   7.302  10.082 -0.7338 -0.8139  1.7773
13060SOL     OW45142   5.153   1.963  10.228  0.0235 -0.2586  0.3879
13060SOL    HW145143   5.111   1.888  10.187 -0.2057  0.4649 -0.7594
13060SOL    HW245144   5.226   1.926  10.278 -0.8330 -1.3494  0.8702
13061SOL     OW45145   0.118   6.877   4.559 -0.2653 -0.0980 -0.0820
13061SOL    HW145146   0.178   6.877   4.634  0.8902 -1.2227 -0.9656
13061SOL    HW245147   0.031   6.869   4.598  0.3029 -0.5843  1.1351
13062SOL     OW45148   1.025   4.904   2.724 -0.0060 -0.3758 -0.2395
13062SOL    HW145149   0.987   4.894   2.637 -0.2166 -1.2671 -0.0564
13062SOL    HW245150   1.076   4.824   2.737 -1.5970 -1.2237  1.2528
13063SOL     OW45151   7.536   4.258   6.249  0.9100 -0.0928 -0.2768
13063SOL    HW145152   7.616   4.311   6.247  0.7873  0.3225  2.4565
13063SOL    HW245153   7.468   4.319   6.276 -0.0798 -0.7945 -1.1016
13064SOL     OW45154   7.969   5.273   4.788  0.3509  0.6143  0.3014
13064SOL    HW145155   7.897   5.321   4.747  0.6031  0.8708  0.1605
13064SOL    HW245156   7.970   5.188   4.743 -0.4151  0.2783  0.8915
13065SOL     OW45157   3.975   5.162   1.408  0.0098  0.0969  0.0113
13065SOL    HW145158   4.054   5.166   1.354 -0.0024 -0.4725 -0.0533
13065SOL    HW245159   3.944   5.072   1.399 -0.8891  0.4251 -0.3044
13066SOL     OW45160   1.656   6.778   9.935 -0.4350 -0.4296  0.0983
13066SOL    HW145161   1.732   6.742   9.889  0.1020 -0.2491  0.8193
13066SOL    HW245162   1.619   6.704   9.983 -1.2586 -0.7191 -0.9320
13067SOL     OW45163   9.632  11.162  10.326  0.0704  0.5963  0.3617
13067SOL    HW145164   9.689  11.129  10.257  0.6290 -1.9060  1.9003
13067SOL    HW245165   9.554  11.192  10.280  1.0843  0.5656 -1.4691
13068SOL     OW45166   6.070   9.326   5.360 -0.1434  0.2229  0.1133
13068SOL    HW145167   6.102   9.372   5.282 -1.9910  1.4719  0.0176
13068SOL    HW245168   6.088   9.234   5.343 -0.9309  0.4107 -2.0724
13069SOL     OW45169   9.244   1.214  10.407  0.0869 -0.4412 -0.1535
13069SOL    HW145170   9.327   1.223  10.361  0.1824 -0.3075  0.0443
13069SOL    HW245171   9.183   1.182  10.340 -0.3631  2.0113 -1.0147
13070SOL     OW45172   6.925   3.937   1.984 -0.4139 -0.2004  0.3813
13070SOL    HW145173   6.935   3.924   2.078  2.1085  0.3867  0.2691
13070SOL    HW245174   6.906   3.850   1.949 -0.5387 -0.5671  1.3407
13071SOL     OW45175   6.348   3.103   6.708  0.1176 -0.7993 -0.4576
13071SOL    HW145176   6.410   3.122   6.778  1.7801  0.1720 -2.0871
13071SOL    HW245177   6.329   3.010   6.718  1.6019 -1.0552  0.3439
13072SOL     OW45178   4.211   3.326   2.577 -0.6092 -0.1251 -0.4246
13072SOL    HW145179   4.182   3.249   2.526  1.0554 -0.8026 -0.3899
13072SOL    HW245180   4.305   3.315   2.586 -0.8413 -0.3588  3.3527
13073SOL     OW45181   1.006  12.370   9.314 -0.2639  0.1538  0.5739
13073SOL    HW145182   0.976  12.284   9.344  0.9540 -1.1692 -1.7200
13073SOL    HW245183   0.991  12.369   9.220  2.3701  1.2992  0.0445
13074SOL     OW45184   0.464   2.923   7.336 -0.2047  0.2878 -0.4201
13074SOL    HW145185   0.458   2.879   7.252  1.6619  1.1272 -1.0573
13074SOL    HW245186   0.530   2.992   7.323  0.0281  0.5515  1.6706
13075SOL     OW45187   6.171   3.698  11.780  0.4218  0.2670  0.2167
13075SOL    HW145188   6.111   3.735  11.714  2.2355  0.4674 -1.4115
13075SOL    HW245189   6.117   3.689  11.858 -1.5211  1.2005 -0.9221
13076SOL     OW45190   6.413   7.327   2.704 -0.3493  0.1142 -0.0407
13076SOL    HW145191   6.381   7.403   2.655  0.3286  1.6820  1.8104
13076SOL    HW245192   6.508   7.330   2.694 -0.0051  1.5073  2.5996
13077SOL     OW45193   6.438   2.804   6.941 -0.0957  0.1694  0.1884
13077SOL    HW145194   6.354   2.851   6.945 -0.2115 -0.1156  1.2856
13077SOL    HW245195   6.415   2.717   6.907 -0.5161 -0.4494  1.9469
13078SOL     OW45196   2.252  10.103   7.969 -0.4231 -0.1315  0.1850
13078SOL    HW145197   2.244  10.198   7.967 -1.1825 -0.1632  0.9608
13078SOL    HW245198   2.298  10.085   8.052 -1.3971 -0.4955  0.6584
13079SOL     OW45199   5.531   2.107   7.249  0.2011  0.3826 -0.2225
13079SOL    HW145200   5.451   2.067   7.216  0.5534  0.5251 -1.2853
13079SOL    HW245201   5.510   2.132   7.339 -0.8427  0.1432 -0.3859
13080SOL     OW45202   2.887   9.109  10.783  0.3569  0.0350 -0.4262
13080SOL    HW145203   2.951   9.167  10.825 -0.1446  0.5448 -0.3587
13080SOL    HW245204   2.811   9.110  10.841  0.4684 -0.9713 -0.2467
13081SOL     OW45205   1.145   1.013   2.452 -0.4932 -0.1939  0.0743
13081SOL    HW145206   1.129   1.013   2.547 -0.1561 -1.8698  0.1550
13081SOL    HW245207   1.078   1.071   2.417 -0.9706  0.0237  1.2845
13082SOL     OW45208   4.374  12.334   5.683 -0.4686 -0.1168  0.2446
13082SOL    HW145209   4.461  12.348   5.722 -0.6207 -1.0103  0.9417
13082SOL    HW245210   4.351  12.418   5.645  0.1173  0.5129  1.2507
13083SOL     OW45211   0.421   5.047   0.089 -0.5480 -0.2508  0.1983
13083SOL    HW145212   0.401   5.118   0.150 -0.0054 -0.5198  0.7063
13083SOL    HW245213   0.478   5.087   0.023 -1.3255  0.0977 -0.2759
13084SOL     OW45214  11.051   5.133   1.386  0.0674 -0.0414  0.0473
13084SOL    HW145215  11.012   5.207   1.432  0.8179  0.0454  0.5603
13084SOL    HW245216  10.981   5.068   1.382 -0.1491  0.1217  0.9261
13085SOL     OW45217  11.150   6.802  11.764  0.0858  0.6287 -0.0906
13085SOL    HW145218  11.178   6.884  11.805 -0.2111  1.0739 -0.7750
13085SOL    HW245219  11.091   6.828  11.694 -1.2387 -0.2514  0.6538
13086SOL     OW45220   1.853   8.568   3.481 -0.4313  0.4016 -0.0482
13086SOL    HW145221   1.930   8.608   3.522 -1.0215  1.3194  0.1956
13086SOL    HW245222   1.853   8.601   3.391  0.0583 -0.4771 -0.3901
13087SOL     OW45223   0.498   1.584   1.735  0.4047 -0.2782 -0.1952
13087SOL    HW145224   0.448   1.639   1.795  1.7106 -0.6458  1.2922
13087SOL    HW245225   0.448   1.502   1.730  0.7242 -0.5756  1.1289
13088SOL     OW45226   9.209   7.644   0.755  0.8695  0.1845  0.3876
13088SOL    HW145227   9.299   7.674   0.759 -0.0537  3.1015  1.5130
13088SOL    HW245228   9.171   7.689   0.680  0.3812 -1.2239 -0.2459
13089SOL     OW45229   1.719   2.112   8.853  0.1012 -0.3666 -0.1494
13089SOL    HW145230   1.760   2.080   8.933  0.0233  0.3229  0.1748
13089SOL    HW245231   1.639   2.061   8.845 -0.4530  0.3112  0.8255
13090SOL     OW45232   3.902  12.282   7.412  0.2054 -0.4552 -0.5762
13090SOL    HW145233   3.837  12.321   7.354 -0.7413 -2.6396 -1.1160
13090SOL    HW245234   3.944  12.214   7.359  0.1453 -1.7105  0.8893
13091SOL     OW45235   1.412  12.212  10.851 -0.5065  0.2481  0.3567
13091SOL    HW145236   1.486  12.249  10.802 -0.4724  1.2627  1.1337
13091SOL    HW245237   1.361  12.288  10.878 -2.6104 -0.4696 -1.2822
13092SOL     OW45238   2.945   3.070   7.938 -0.2817 -0.0378  0.3421
13092SOL    HW145239   3.034   3.096   7.914 -0.9494  1.0572 -1.1206
13092SOL    HW245240   2.951   2.977   7.957  1.0317 -0.1545 -0.5314
13093SOL     OW45241   6.040   5.768   7.204 -0.2612  0.5139  0.4996
13093SOL    HW145242   6.105   5.828   7.240 -0.2736  0.3663  0.7706
13093SOL    HW245243   6.043   5.692   7.261  0.3105 -0.0775 -0.3121
13094SOL     OW45244   3.746  12.159   5.878 -0.4000 -0.0773 -0.1269
13094SOL    HW145245   3.756  12.255   5.876 -0.6341 -0.0620 -1.9349
13094SOL    HW245246   3.777  12.130   5.793 -1.5283 -1.4909 -0.0930
13095SOL     OW45247   9.082   1.832   7.492 -0.0978 -0.0862  0.9472
13095SOL    HW145248   9.138   1.839   7.569  0.8563  1.0654  0.1808
13095SOL    HW245249   9.102   1.909   7.439  0.0403 -1.3281 -0.9488
13096SOL     OW45250   7.773   8.743   5.892 -0.0140  0.4470 -0.0447
13096SOL    HW145251   7.864   8.774   5.892  0.3908 -0.6372  1.4232
13096SOL    HW245252   7.762   8.700   5.977 -1.6570 -0.1644 -0.5248
13097SOL     OW45253   9.946   2.570   1.140  0.3921  0.2024 -0.5514
13097SOL    HW145254   9.986   2.654   1.164  0.8475  0.3315 -1.6800
13097SOL    HW245255  10.003   2.535   1.072 -0.3413 -0.5638 -0.7929
13098SOL     OW45256   6.536   5.158   1.701  0.3484 -0.1002 -0.5000
13098SOL    HW145257   6.493   5.117   1.776 -0.2992 -1.3992 -1.5552
13098SOL    HW245258   6.471   5.154   1.631  0.1965  2.8153 -0.6828
13099SOL     OW45259   6.254   3.326  10.767  0.0105  0.1561 -0.2522
13099SOL    HW145260   6.336   3.286  10.797 -1.0388 -0.7552  1.5424
13099SOL    HW245261   6.223   3.376  10.842 -1.9068 -0.8694 -0.3064
13100SOL     OW45262   0.910  11.151  10.893  0.0816  0.1776 -0.1433
13100SOL    HW145263   0.913  11.173  10.800 -1.0305  0.3797 -0.1463
13100SOL    HW245264   0.867  11.066  10.897  0.3040  0.0739  0.1851
13101SOL     OW45265   4.981   3.039  12.267  0.3656  0.0681 -0.0856
13101SOL    HW145266   4.926   3.022  12.344  0.0787  2.5976  0.3677
13101SOL    HW245267   4.920   3.069  12.200  0.8457 -0.1429 -0.6260
13102SOL     OW45268   4.796   0.056  10.965  0.5696 -0.1199  0.1123
13102SOL    HW145269   4.875   0.035  10.916  1.5549 -1.0605  1.9945
13102SOL    HW245270   4.811   0.019  11.052 -2.3282 -1.1123  0.2831
13103SOL     OW45271   0.204   2.075   5.377 -0.4907  0.2940 -0.1735
13103SOL    HW145272   0.257   2.027   5.441  1.5764  0.3366 -1.7406
13103SOL    HW245273   0.128   2.019   5.361 -1.9639  0.9893  3.4160
13104SOL     OW45274   4.540   9.565  10.104  0.4976  0.0864 -0.0627
13104SOL    HW145275   4.562   9.655  10.080  0.6290 -0.1662 -0.9506
13104SOL    HW245276   4.614   9.513  10.070  0.3753 -0.3663  0.3535
13105SOL     OW45277   4.844   6.968   5.239  0.1223 -0.4278  0.4377
13105SOL    HW145278   4.798   7.038   5.286 -1.4610 -1.6002  0.7413
13105SOL    HW245279   4.936   6.988   5.250 -0.2641  0.7804  1.8047
13106SOL     OW45280  10.924   4.528   3.851 -0.2404  0.0258 -0.2092
13106SOL    HW145281  10.837   4.538   3.811  0.1031  0.6150 -0.8418
13106SOL    HW245282  10.985   4.555   3.782  0.3941  0.6420  0.5679
13107SOL     OW45283  11.366  10.130   7.670 -0.7666 -0.7230 -0.1108
13107SOL    HW145284  11.282  10.147   7.628 -0.4232 -0.5907 -0.7415
13107SOL    HW245285  11.414  10.075   7.608  0.8706  1.7956 -1.2443
13108SOL     OW45286   8.929   2.926   6.884  0.1989 -0.2473 -0.7721
13108SOL    HW145287   9.024   2.913   6.886  0.4344  1.3426  0.4202
13108SOL    HW245288   8.896   2.872   6.955  0.3087 -0.1198 -0.6245
13109SOL     OW45289   9.804   2.066   6.160  0.1430  0.2982  0.3863
13109SOL    HW145290   9.864   1.997   6.130 -0.3094 -0.5047  1.2777
13109SOL    HW245291   9.726   2.055   6.107  0.2029  0.3488  0.2876
13110SOL     OW45292   7.023   3.144   4.001  0.5786 -0.1724 -0.1020
13110SOL    HW145293   7.023   3.054   3.967 -1.5022 -0.4119  0.3653
13110SOL    HW245294   7.045   3.198   3.925  0.5715 -1.0053 -0.7144
13111SOL     OW45295   4.385   0.426   9.677  0.5261 -0.5285  0.1641
13111SOL    HW145296   4.410   0.365   9.608 -1.4413  1.1798 -2.2829
13111SOL    HW245297   4.302   0.391   9.710 -0.9783  1.0283 -1.7426
13112SOL     OW45298   3.872   0.663   0.535  0.3515 -0.4281 -0.3640
13112SOL    HW145299   3.819   0.706   0.601  1.4143 -0.2598  0.3942
13112SOL    HW245300   3.816   0.662   0.457 -0.7878 -0.3326  0.4244
13113SOL     OW45301   4.886   2.123  11.062  0.3309 -0.1637 -0.1057
13113SOL    HW145302   4.918   2.153  11.147  0.4338  0.0174 -0.2088
13113SOL    HW245303   4.921   2.186  11.000 -1.2027  0.7352 -0.0999
13114SOL     OW45304  11.628   1.120   6.510 -0.0596  0.5691 -0.8468
13114SOL    HW145305  11.632   1.085   6.599 -0.4005  0.0231 -1.0352
13114SOL    HW245306  11.718   1.117   6.479  0.4257  2.7333  0.1957
13115SOL     OW45307   1.607   6.723   7.419  0.8850 -0.2192  0.0056
13115SOL    HW145308   1.621   6.709   7.513  2.1004 -0.1307 -0.1474
13115SOL    HW245309   1.689   6.759   7.388  0.1119  0.8083 -0.9041
13116SOL     OW45310  10.755   5.512   6.588 -0.3470  0.1276 -0.2100
13116SOL    HW145311  10.773   5.448   6.519  0.1677  1.4664 -1.3598
13116SOL    HW245312  10.659   5.514   6.594 -0.4659  0.8872 -1.8017
13117SOL     OW45313   2.988   0.022   0.112  0.2263  0.0429 -0.3041
13117SOL    HW145314   3.061  -0.024   0.153 -0.3529 -1.0466 -0.4611
13117SOL    HW245315   2.927   0.040   0.184  0.7385  1.1794 -0.1280
13118SOL     OW45316  10.237   8.917   7.362  0.0785  0.1315 -0.1086
13118SOL    HW145317  10.174   8.845   7.356 -0.1492  0.3079  0.1829
13118SOL    HW245318  10.196   8.981   7.420  0.2809  0.4994 -0.3656
13119SOL     OW45319   5.110   6.806   5.174  0.0338 -0.1662 -0.4910
13119SOL    HW145320   5.133   6.769   5.259  0.3981  0.0393 -0.5001
13119SOL    HW245321   5.112   6.901   5.187 -0.1923 -0.1389 -0.6532
13120SOL     OW45322   0.752   2.025   8.433 -0.4447 -0.5721 -0.4975
13120SOL    HW145323   0.666   2.003   8.469 -0.8968 -0.3414 -1.4027
13120SOL    HW245324   0.750   1.990   8.344  1.2495 -2.6257  0.1763
13121SOL     OW45325   3.657   9.187   3.021  0.1981  0.7800  0.6531
13121SOL    HW145326   3.598   9.112   3.021  2.5081 -1.1740  1.5436
13121SOL    HW245327   3.700   9.184   2.935 -0.1689  1.5019  0.4380
13122SOL     OW45328  10.508  11.227   5.523  0.2037 -0.1962  0.0237
13122SOL    HW145329  10.545  11.194   5.441  0.2344 -0.8082  0.2783
13122SOL    HW245330  10.416  11.200   5.521 -0.2585  1.3159 -0.6047
13123SOL     OW45331   3.786   3.346  12.335 -0.0814  0.3231 -0.2513
13123SOL    HW145332   3.752   3.289  12.405  1.5517  1.1021  1.2868
13123SOL    HW245333   3.878   3.320  12.327 -0.1741  0.4214 -1.9961
13124SOL     OW45334  10.811   0.619  12.141  0.0140  0.3238  0.2191
13124SOL    HW145335  10.834   0.526  12.138  1.1878  0.6284 -1.0715
13124SOL    HW245336  10.725   0.620  12.183  0.1702 -1.2991  0.6716
13125SOL     OW45337   9.634   4.667   1.808 -0.1502 -0.2112 -0.6826
13125SOL    HW145338   9.582   4.647   1.886  1.1442  0.0401  0.2923
13125SOL    HW245339   9.681   4.585   1.790  0.6674  0.1585 -0.2844
13126SOL     OW45340   5.703  12.149  10.972  0.1476 -0.5273  0.4387
13126SOL    HW145341   5.722  12.140  11.065 -0.3520  0.1930  0.6116
13126SOL    HW245342   5.609  12.160  10.967  0.1425 -0.7659 -0.1771
13127SOL     OW45343   0.638   5.075   7.484 -0.0815 -0.3751  0.0084
13127SOL    HW145344   0.699   5.022   7.535  0.3183  1.2520  1.2860
13127SOL    HW245345   0.635   5.032   7.398  3.3193 -0.1858 -0.3268
13128SOL     OW45346  11.552   4.472   8.226  0.4959 -0.1188 -0.4075
13128SOL    HW145347  11.616   4.441   8.291  1.8853  0.3116 -1.5233
13128SOL    HW245348  11.493   4.529   8.276  0.9202 -0.5946  0.6698
13129SOL     OW45349  10.390   9.316   4.408  0.1907  0.2654 -0.2603
13129SOL    HW145350  10.372   9.254   4.337  0.0443 -0.5930  0.5081
13129SOL    HW245351  10.460   9.274   4.459 -1.4805 -0.4202  1.6148
13130SOL     OW45352   9.606   6.251   4.921 -0.1130  0.2377  0.3244
13130SOL    HW145353   9.680   6.240   4.981  0.3794  0.2999 -0.2681
13130SOL    HW245354   9.541   6.188   4.953  0.2731  0.0297  0.7190
13131SOL     OW45355   6.809   6.345   0.895 -0.3993  0.1368 -0.3184
13131SOL    HW145356   6.747   6.373   0.828 -2.4934  0.0682  1.4874
13131SOL    HW245357   6.828   6.424   0.945  0.1624 -0.0570 -0.2162
13132SOL     OW45358   5.656   0.382   8.256 -0.7101 -0.2192 -0.1711
13132SOL    HW145359   5.625   0.297   8.224  0.0420 -0.4080 -0.4112
13132SOL    HW245360   5.705   0.362   8.335 -1.5194  0.1249  0.4420
13133SOL     OW45361   7.398   2.947   0.179  0.0550 -0.5301  0.2826
13133SOL    HW145362   7.364   2.860   0.200 -1.9295  0.1527  0.1239
13133SOL    HW245363   7.350   3.006   0.238  1.3846  0.4738  0.4115
13134SOL     OW45364   9.466   5.682   6.847 -0.2097  0.0738 -0.3013
13134SOL    HW145365   9.468   5.673   6.752  0.5164  3.0382 -0.6585
13134SOL    HW245366   9.387   5.734   6.865  0.3578  0.6742  0.5529
13135SOL     OW45367   8.429  12.264   8.169  0.5389 -0.3456  0.1677
13135SOL    HW145368   8.427  12.236   8.078  0.4781  0.7123 -0.1757
13135SOL    HW245369   8.407  12.186   8.220  0.3897 -0.8966 -0.7369
13136SOL     OW45370   6.698   0.259   6.472 -0.3983 -0.0529 -0.2773
13136SOL    HW145371   6.721   0.345   6.509 -0.1795 -0.2127 -0.0362
13136SOL    HW245372   6.783   0.220   6.451 -0.3027 -1.2822  2.0388
13137SOL     OW45373   0.186   7.016   8.231 -0.2241 -0.4223 -0.2662
13137SOL    HW145374   0.261   6.988   8.283 -0.6912 -1.4060 -0.0899
13137SOL    HW245375   0.111   6.976   8.274 -0.8921  0.7627 -0.2841
13138SOL     OW45376   2.645   8.347  11.985 -0.0199  0.1288  0.2456
13138SOL    HW145377   2.609   8.431  11.957  0.5008  0.1921 -0.2539
13138SOL    HW245378   2.573   8.304  12.031 -0.6637  0.3389 -0.5575
13139SOL     OW45379   5.275   8.363   9.241 -0.4265  0.0229 -0.2317
13139SOL    HW145380   5.213   8.424   9.282 -0.8473 -0.9413  0.6018
13139SOL    HW245381   5.240   8.276   9.261  1.3435 -0.5581  0.5449
13140SOL     OW45382   8.220  11.457   0.244  0.0066  0.0742  0.4396
13140SOL    HW145383   8.265  11.479   0.325 -0.6171  0.6843  0.6346
13140SOL    HW245384   8.175  11.538   0.219 -1.9277 -0.7899  0.8766
13141SOL     OW45385   8.009   7.569   3.846  0.3597  0.8359 -0.0170
13141SOL    HW145386   8.033   7.612   3.928  0.1510  0.3686  0.2945
13141SOL    HW245387   8.018   7.638   3.779  2.8407  0.6279  0.0013
13142SOL     OW45388   9.033   0.523  10.752 -0.2938  0.4049 -0.5243
13142SOL    HW145389   8.958   0.471  10.724  0.1192  0.2787 -1.4512
13142SOL    HW245390   9.071   0.474  10.825 -0.8547  0.2543 -0.3299
13143SOL     OW45391   6.986  10.582  12.370  0.3793 -0.4029 -0.5770
13143SOL    HW145392   7.021  10.670  12.383  0.0961  0.0404 -2.4564
13143SOL    HW245393   6.967  10.550  12.458  0.9802  1.2094  0.1735
13144SOL     OW45394   0.747   1.692   6.999  0.0071  0.3105 -0.9418
13144SOL    HW145395   0.685   1.762   6.981 -0.1957  0.7557  1.1870
13144SOL    HW245396   0.833   1.732   6.986 -0.1243  0.7654 -0.4803
13145SOL     OW45397   9.952   8.961   1.688  0.2920  0.4518 -0.0820
13145SOL    HW145398   9.985   8.872   1.697  2.0213  0.8781 -1.7346
13145SOL    HW245399  10.015   9.005   1.631 -2.4791  1.6661 -2.4779
13146SOL     OW45400   1.994   0.308   9.136 -0.3684  0.9370 -0.9309
13146SOL    HW145401   1.977   0.277   9.225 -2.8224 -0.3510 -1.7625
13146SOL    HW245402   2.090   0.312   9.131 -0.1444  1.2640  1.7901
13147SOL     OW45403  10.692   8.933   9.498 -0.2170  0.1739 -0.5168
13147SOL    HW145404  10.665   8.916   9.408 -2.7975  0.9965  0.0186
13147SOL    HW245405  10.669   8.852   9.545 -0.1797  0.2555 -0.3574
13148SOL     OW45406   5.822   1.152   1.444 -0.3296 -0.4986 -0.3393
13148SOL    HW145407   5.748   1.209   1.469 -1.1390 -1.1047 -1.2745
13148SOL    HW245408   5.853   1.116   1.527 -1.0993 -0.2377  0.0777
13149SOL     OW45409  10.020   9.549   7.968 -0.1365 -0.0203 -0.2544
13149SOL    HW145410  10.001   9.488   8.039 -2.0605  1.7685  0.8936
13149SOL    HW245411   9.979   9.510   7.891  1.5889 -1.7624 -0.3633
13150SOL     OW45412   0.780  10.322   1.747  0.5721  0.1778  0.5447
13150SOL    HW145413   0.833  10.380   1.692 -0.6090 -0.4188 -1.3154
13150SOL    HW245414   0.692  10.326   1.709 -0.2361 -0.5173  2.2353
13151SOL     OW45415   9.987  11.641   2.343 -0.4096  0.2109  0.2485
13151SOL    HW145416   9.938  11.584   2.403 -0.1440 -0.2114  0.0677
13151SOL    HW245417  10.075  11.645   2.381 -0.1653 -0.2724 -0.2466
13152SOL     OW45418  11.240   9.648   2.474  0.1315 -0.0012  0.4566
13152SOL    HW145419  11.161   9.646   2.420 -0.7588  0.5127  1.6769
13152SOL    HW245420  11.298   9.583   2.435 -0.9826 -0.5598 -0.3288
13153SOL     OW45421  11.893   1.795  10.333  0.5705 -0.2641 -0.9556
13153SOL    HW145422  11.925   1.749  10.410 -0.6420 -0.5441 -0.6039
13153SOL    HW245423  11.928   1.745  10.259 -0.3873 -1.5380 -0.5810
13154SOL     OW45424   8.641  10.215   4.355  0.1562  0.5965  0.2756
13154SOL    HW145425   8.593  10.133   4.355  1.4414 -0.2004 -1.3380
13154SOL    HW245426   8.698  10.209   4.432  0.0486  0.0862  0.3184
13155SOL     OW45427  10.781  10.867   3.940  0.1732  0.2078 -0.3998
13155SOL    HW145428  10.754  10.836   4.026  1.7999  0.6582  0.3011
13155SOL    HW245429  10.825  10.792   3.900 -2.2492 -0.6349 -1.6792
13156SOL     OW45430   9.550   7.304   7.168 -0.0029  0.3823  0.6625
13156SOL    HW145431   9.617   7.298   7.100 -0.1506 -2.3667  0.6546
13156SOL    HW245432   9.588   7.364   7.233  1.9781 -0.1955  0.1286
13157SOL     OW45433   7.124   2.550   4.286  0.3705  0.4233  0.2047
13157SOL    HW145434   7.173   2.593   4.216 -0.7914  0.5040 -0.5924
13157SOL    HW245435   7.083   2.474   4.244 -1.0786  0.9805  0.5455
13158SOL     OW45436   9.039   8.852   3.626  0.3303  0.3199  0.2784
13158SOL    HW145437   9.129   8.841   3.594  0.2571  1.2584 -0.2898
13158SOL    HW245438   9.030   8.946   3.638 -0.4531  0.1926  0.7295
13159SOL     OW45439   1.400   7.996   5.553  0.0010 -0.1629  0.0699
13159SOL    HW145440   1.416   7.976   5.460 -1.1907  0.1646 -0.2227
13159SOL    HW245441   1.409   8.091   5.559 -2.9477  0.2504 -0.4096
13160SOL     OW45442  10.176   4.870   0.979 -0.3565 -0.6937 -0.2051
13160SOL    HW145443  10.236   4.814   1.028  1.2117 -0.1073 -1.3842
13160SOL    HW245444  10.115   4.808   0.937  1.2165 -1.5606 -1.3159
13161SOL     OW45445   8.739   1.857   5.821  0.1335 -0.0020  0.0248
13161SOL    HW145446   8.738   1.943   5.863  0.4109 -0.4390  0.9676
13161SOL    HW245447   8.823   1.854   5.775  1.5643 -0.8682  2.4774
13162SOL     OW45448  12.385   1.405  11.900  0.4370 -0.3258  0.2657
13162SOL    HW145449  12.305   1.379  11.854  0.0526  0.4145  0.4962
13162SOL    HW245450  12.442   1.442  11.833  0.5333 -0.7317  0.1231
13163SOL     OW45451   3.972  11.161   3.348  0.4617 -0.2037  0.3448
13163SOL    HW145452   3.975  11.109   3.429  0.3712 -1.0237 -0.1662
13163SOL    HW245453   3.904  11.226   3.364  1.0050  0.1670  1.2306
13164SOL     OW45454   3.543   0.367   2.872 -0.3806 -0.2780  0.7875
13164SOL    HW145455   3.491   0.299   2.828 -0.5692 -0.3642  1.1383
13164SOL    HW245456   3.582   0.322   2.947  0.1533 -0.1964  0.5594
13165SOL     OW45457   6.626   2.935  11.872 -0.2795 -0.4488  0.3440
13165SOL    HW145458   6.709   2.960  11.913  0.3483  0.8950 -1.6072
13165SOL    HW245459   6.577   2.892  11.942  2.2446 -1.7726  1.4561
13166SOL     OW45460  11.196   4.841   8.498 -1.0157  0.0408 -0.4405
13166SOL    HW145461  11.167   4.765   8.447 -0.2334 -0.1284 -0.6444
13166SOL    HW245462  11.167   4.823   8.587  0.3837 -1.1911 -0.1860
13167SOL     OW45463  11.252  10.130  10.112  0.3545  0.1240 -0.1168
13167SOL    HW145464  11.342  10.127  10.144  0.2194 -1.0585  0.2126
13167SOL    HW245465  11.241  10.047  10.065 -0.3781  0.5282 -0.6927
13168SOL     OW45466   6.128   5.141  12.077 -0.2447 -0.0582 -0.3599
13168SOL    HW145467   6.205   5.119  12.129 -1.0422  1.3389  1.5029
13168SOL    HW245468   6.106   5.059  12.031  1.3723 -0.9135  0.3129
13169SOL     OW45469   5.852  10.629   3.604 -0.6787 -0.0194 -0.2074
13169SOL    HW145470   5.821  10.556   3.550 -0.7171 -1.5791  1.8046
13169SOL    HW245471   5.947  10.618   3.607 -0.6609  0.1567 -0.0810
13170SOL     OW45472   7.742   0.356   8.672  0.1145 -0.2391  0.1684
13170SOL    HW145473   7.743   0.331   8.765 -1.6207  1.1731  0.6153
13170SOL    HW245474   7.797   0.433   8.667 -0.6890  0.3525  0.2581
13171SOL     OW45475   9.727   4.809   9.512  0.1739  0.6849 -0.7397
13171SOL    HW145476   9.682   4.854   9.583  0.0122 -1.4159  0.5685
13171SOL    HW245477   9.820   4.830   9.525  0.1518  0.2644  0.1526
13172SOL     OW45478   5.101   5.376   3.356 -0.2265  0.0491  0.3900
13172SOL    HW145479   5.154   5.358   3.278  0.0513  0.1758  0.5482
13172SOL    HW245480   5.101   5.472   3.363  0.0708  0.0249  0.7636
13173SOL     OW45481   1.081   1.497   4.128 -0.5210 -0.1578 -0.2617
13173SOL    HW145482   1.170   1.529   4.147 -0.6187  0.1919 -0.3803
13173SOL    HW245483   1.029   1.527   4.202 -0.3274 -1.3258  0.3696
13174SOL     OW45484   3.330   3.309   8.427 -0.2019 -0.6407 -0.5435
13174SOL    HW145485   3.390   3.269   8.364  0.5686  0.4000 -0.4783
13174SOL    HW245486   3.276   3.367   8.375  1.5925  1.5797 -0.0692
13175SOL     OW45487  10.548   2.351   6.868  0.1018  0.7011 -0.4115
13175SOL    HW145488  10.473   2.315   6.820 -0.1657 -1.0365  1.2134
13175SOL    HW245489  10.508   2.413   6.930  0.1435  0.7735 -0.4579
13176SOL     OW45490   7.295   0.990   9.258  0.0118  0.4896  0.0295
13176SOL    HW145491   7.321   1.072   9.301 -0.2699 -0.7470  2.7068
13176SOL    HW245492   7.378   0.948   9.236  0.1813  0.6095  0.4209
13177SOL     OW45493   1.533   3.671  12.300 -0.6573  0.6613  0.0920
13177SOL    HW145494   1.571   3.679  12.213  0.0269  2.4672  0.5169
13177SOL    HW245495   1.517   3.577  12.311  0.5082  0.2490 -1.4370
13178SOL     OW45496  10.120   2.979  11.817  0.1725  0.3826 -0.1378
13178SOL    HW145497  10.031   2.976  11.781 -0.3655  0.3523  1.1210
13178SOL    HW245498  10.176   2.945  11.747 -0.7521  0.7379 -1.0886
13179SOL     OW45499   1.682   5.767   9.241 -0.3333 -0.0814 -0.9249
13179SOL    HW145500   1.602   5.718   9.261 -0.0669  0.4571  1.9184
13179SOL    HW245501   1.753   5.707   9.265  0.0809  0.1024 -1.6881
13180SOL     OW45502   4.606   7.008   0.628 -0.5886 -0.2477 -0.0847
13180SOL    HW145503   4.673   7.051   0.682 -2.0890  1.1542  0.7261
13180SOL    HW245504   4.569   6.940   0.686 -2.0027  1.0699  0.6237
13181SOL     OW45505   3.638   8.786  11.109 -0.0127  0.3395  0.5321
13181SOL    HW145506   3.725   8.779  11.148 -0.2249  1.3817  1.2402
13181SOL    HW245507   3.597   8.859  11.156 -1.3436 -0.2729  0.3638
13182SOL     OW45508   3.105  11.306  11.369  0.0683  0.1399  0.4584
13182SOL    HW145509   3.099  11.283  11.461 -0.2215  1.1388  0.7031
13182SOL    HW245510   3.021  11.345  11.348 -0.3977 -1.3585 -0.6222
13183SOL     OW45511   6.453   5.155  11.262 -0.2269  0.2362  0.1466
13183SOL    HW145512   6.390   5.146  11.333  1.2922 -0.0441  1.5296
13183SOL    HW245513   6.440   5.078  11.207 -0.2569 -0.4466  1.1063
13184SOL     OW45514  10.431  12.305   6.605  0.0461 -0.1300  0.0426
13184SOL    HW145515  10.434  12.212   6.629 -1.2987 -0.0107  0.8083
13184SOL    HW245516  10.491  12.347   6.667  0.0212 -0.3945  0.2514
13185SOL     OW45517   0.248  10.451   0.885 -0.2150  0.4985  0.2918
13185SOL    HW145518   0.288  10.448   0.798 -1.4189  1.7818 -0.3625
13185SOL    HW245519   0.288  10.379   0.933 -0.0751 -0.7354 -1.5667
13186SOL     OW45520   4.385   7.030  10.067  0.4489  0.6296  0.4493
13186SOL    HW145521   4.373   7.103  10.127 -0.5305  0.3797  0.5775
13186SOL    HW245522   4.388   6.953  10.124  2.5250  0.6302  0.4084
13187SOL     OW45523   2.189   5.410   7.900 -0.3109 -0.1213  0.3281
13187SOL    HW145524   2.220   5.323   7.874  0.2073 -0.6802  2.5858
13187SOL    HW245525   2.255   5.470   7.864 -1.1251 -0.5290 -1.9755
13188SOL     OW45526   9.297   1.026   4.893  0.3218 -0.2807  0.1356
13188SOL    HW145527   9.206   1.041   4.864  0.3491 -2.1369 -1.0882
13188SOL    HW245528   9.307   1.084   4.969 -0.9039  2.2260 -1.4485
13189SOL     OW45529   4.491   5.928  11.661  0.1306 -0.1796  0.0518
13189SOL    HW145530   4.579   5.948  11.691  0.1615  1.5710 -1.0358
13189SOL    HW245531   4.439   5.919  11.741  1.4834 -2.4239  0.7471
13190SOL     OW45532   2.336   1.428   1.552 -0.0170  0.0553 -0.0685
13190SOL    HW145533   2.427   1.406   1.573  0.1485 -0.1054 -0.9137
13190SOL    HW245534   2.304   1.354   1.500 -0.4521  0.3634 -0.2510
13191SOL     OW45535   5.197   1.161   1.174 -0.5460  0.0685 -0.1801
13191SOL    HW145536   5.128   1.159   1.107  0.2065  2.6733 -1.1700
13191SOL    HW245537   5.240   1.246   1.161  1.9651 -0.8790  1.3104
13192SOL     OW45538   3.935   7.579   2.793  0.0251 -0.5560  0.1395
13192SOL    HW145539   3.872   7.566   2.722 -1.8355  1.7104  1.2325
13192SOL    HW245540   3.883   7.613   2.865  2.4362  1.0523  1.2617
13193SOL     OW45541   5.490   5.153   2.908 -0.5884 -0.6131 -0.2439
13193SOL    HW145542   5.502   5.094   2.833  0.0818 -0.2524 -0.4291
13193SOL    HW245543   5.524   5.103   2.983 -1.2045 -0.9501 -0.1785
13194SOL     OW45544   9.129  10.067   8.211  0.0738 -0.1865  0.3152
13194SOL    HW145545   9.064  10.111   8.266  0.7676 -0.0135  1.0070
13194SOL    HW245546   9.198  10.132   8.199  0.1987 -0.4225 -0.2856
13195SOL     OW45547   1.931   1.855   5.241  0.6609 -0.3524  0.2609
13195SOL    HW145548   2.021   1.876   5.216  0.2150  2.0563  0.4291
13195SOL    HW245549   1.894   1.815   5.163  1.9555 -1.7182  0.3034
13196SOL     OW45550   6.131   9.331   1.860  0.4713  0.3023 -0.4278
13196SOL    HW145551   6.114   9.380   1.780 -0.4398  2.3470  0.9407
13196SOL    HW245552   6.206   9.374   1.900  0.3149 -0.0669  0.2917
13197SOL     OW45553   6.799   1.440   2.103  0.6569 -0.3268  0.2334
13197SOL    HW145554   6.846   1.421   2.184  1.9264 -0.1744 -0.4442
13197SOL    HW245555   6.730   1.374   2.099  0.5590 -0.3201  1.4395
13198SOL     OW45556   0.940   7.335  11.158  0.1222  0.3372 -0.6671
13198SOL    HW145557   0.848   7.324  11.183  0.0994  1.0228 -0.4189
13198SOL    HW245558   0.988   7.328  11.241  0.1490  1.4747 -0.5682
13199SOL     OW45559   1.085   1.311  10.147 -0.1323  0.6110  0.3940
13199SOL    HW145560   1.078   1.225  10.188  0.1995  0.4811  0.1891
13199SOL    HW245561   1.180   1.327  10.144 -0.2201  1.4532  1.3962
13200SOL     OW45562   1.770  11.440   6.066 -0.0890 -0.1422 -0.0809
13200SOL    HW145563   1.681  11.413   6.090 -0.0870 -0.3286 -0.2799
13200SOL    HW245564   1.827  11.373   6.105 -0.0538 -0.1719 -0.1831
13201SOL     OW45565   6.485  12.251   6.712  0.0795  0.1824 -0.3449
13201SOL    HW145566   6.457  12.201   6.635 -0.5984  2.5490 -1.7475
13201SOL    HW245567   6.527  12.329   6.676 -1.1598  1.8730  1.6226
13202SOL     OW45568   7.170   1.442   4.309  0.2693 -0.1235 -0.5306
13202SOL    HW145569   7.124   1.466   4.389 -0.8062  0.5619 -1.3094
13202SOL    HW245570   7.205   1.525   4.276  0.2988 -0.3125 -0.9930
13203SOL     OW45571   5.078   0.562   2.279  0.5535 -0.0684  0.5930
13203SOL    HW145572   5.113   0.479   2.248  2.0058  0.2924  1.1806
13203SOL    HW245573   4.995   0.539   2.321 -1.0092 -0.6973 -2.5607
13204SOL     OW45574   5.872   8.135   6.299  0.0638  0.0413 -0.1437
13204SOL    HW145575   5.920   8.169   6.223 -1.5311  0.6120 -0.9519
13204SOL    HW245576   5.870   8.208   6.361  1.2162 -0.3682  0.4108
13205SOL     OW45577  11.049   3.754  10.117  0.3898  0.2053 -0.4841
13205SOL    HW145578  11.020   3.801  10.039 -1.5051 -1.7632 -1.0590
13205SOL    HW245579  11.068   3.824  10.181  2.4087  1.8821 -2.7319
13206SOL     OW45580   1.279   4.423   3.586  0.6071  0.2794  0.1921
13206SOL    HW145581   1.314   4.489   3.646 -2.4463  0.7363  1.6782
13206SOL    HW245582   1.255   4.350   3.642 -1.5294  0.3648 -0.5092
13207SOL     OW45583   5.237   4.356   1.392  0.3467 -0.2258 -0.4318
13207SOL    HW145584   5.179   4.428   1.413 -0.5589 -0.7645 -1.0144
13207SOL    HW245585   5.246   4.360   1.296  1.3840 -0.0661 -0.3384
13208SOL     OW45586   6.361   8.387  11.723 -0.8052 -0.1524  0.1947
13208SOL    HW145587   6.448   8.355  11.746 -1.3870 -2.2265 -0.2118
13208SOL    HW245588   6.349   8.466  11.775  1.3712  0.2585  0.1282
13209SOL     OW45589   0.115   4.876   5.283 -0.7384  0.5068 -0.2784
13209SOL    HW145590   0.152   4.957   5.249  0.3597 -0.5583 -1.7444
13209SOL    HW245591   0.143   4.809   5.221  0.9977 -1.5279  2.4424
13210SOL     OW45592  10.567   9.378   9.653 -0.1928  0.2932  0.0857
13210SOL    HW145593  10.638   9.333   9.609  0.6021  2.8708 -1.5371
13210SOL    HW245594  10.505   9.399   9.583 -2.0605 -0.9320  1.2848
13211SOL     OW45595   5.538  10.590   6.944  0.2211 -0.3581 -0.1844
13211SOL    HW145596   5.615  10.602   7.000  0.5419 -0.5493 -0.5788
13211SOL    HW245597   5.503  10.678   6.933  0.0184 -0.3485  0.5067
13212SOL     OW45598   3.569  11.430  10.307  0.1772  0.2694  0.1066
13212SOL    HW145599   3.532  11.502  10.255  0.4052  1.4044  1.4727
13212SOL    HW245600   3.533  11.351  10.266 -0.4029  1.1564 -1.1810
13213SOL     OW45601   1.855   6.680   9.076  0.3728 -0.0772 -0.0706
13213SOL    HW145602   1.848   6.658   9.169  1.8514  1.7525  0.5390
13213SOL    HW245603   1.783   6.633   9.035 -1.2520  0.2430  2.2294
13214SOL     OW45604  10.693  11.113   0.334 -0.8620 -0.3810 -0.3836
13214SOL    HW145605  10.763  11.111   0.269 -0.8593 -1.5435 -0.3665
13214SOL    HW245606  10.738  11.098   0.418 -1.2206 -2.4247 -0.4953
13215SOL     OW45607   3.640  11.602  11.712 -0.1172 -0.0641  0.5136
13215SOL    HW145608   3.683  11.625  11.794 -0.6914  0.1020  0.7742
13215SOL    HW245609   3.691  11.528  11.678  0.9546  0.7415  0.3177
13216SOL     OW45610   0.844   2.998  12.087  0.1879 -0.1007  0.2367
13216SOL    HW145611   0.831   3.053  12.010 -2.2828 -0.1089  0.5397
13216SOL    HW245612   0.894   2.923  12.056  0.6518  0.6731 -0.9571
13217SOL     OW45613   5.788   4.253   2.560  0.3433  0.3859  0.0576
13217SOL    HW145614   5.694   4.271   2.568  0.2596 -0.6461  2.0114
13217SOL    HW245615   5.795   4.193   2.487 -0.5710  0.1634  0.1365
13218SOL     OW45616   8.294   7.655   1.665  0.0005 -0.4116  0.1017
13218SOL    HW145617   8.203   7.647   1.636  0.6605  0.3988 -2.3960
13218SOL    HW245618   8.326   7.735   1.624  1.3819  0.3009  2.3700
13219SOL     OW45619   7.445  11.167  11.295 -0.2276  0.0073  0.3953
13219SOL    HW145620   7.384  11.240  11.282  0.3583  0.2679 -1.1155
13219SOL    HW245621   7.531  11.204  11.276 -0.0531 -1.4076 -2.0283
13220SOL     OW45622   0.474   1.234   0.524 -0.0858 -0.1033 -0.2509
13220SOL    HW145623   0.536   1.162   0.511 -0.7702 -0.8887  0.6063
13220SOL    HW245624   0.421   1.205   0.599 -0.8455  0.9800 -0.3579
13221SOL     OW45625   8.370   3.875   9.308  0.4724  0.0527  0.4052
13221SOL    HW145626   8.453   3.872   9.261  1.3043  0.9376  1.7274
13221SOL    HW245627   8.342   3.967   9.300  0.6949  0.2471  1.6875
13222SOL     OW45628   0.281  11.169   3.404 -0.3722  0.0415  0.0018
13222SOL    HW145629   0.200  11.140   3.363 -1.6748  0.6779  2.0011
13222SOL    HW245630   0.326  11.218   3.335 -0.7724 -1.8644 -1.6912
13223SOL     OW45631  10.243   1.436   6.055  0.0716 -0.2463  0.3124
13223SOL    HW145632  10.324   1.404   6.094  0.3460  1.0572  0.8725
13223SOL    HW245633  10.261   1.440   5.961  0.5447 -0.2524  0.4022
13224SOL     OW45634   2.434   7.680   1.216  0.4269  0.5684 -0.3076
13224SOL    HW145635   2.432   7.757   1.273 -1.7944  1.0138 -0.8726
13224SOL    HW245636   2.445   7.715   1.128 -1.7936  0.4357 -0.7073
13225SOL     OW45637   9.753   4.207  10.171 -0.2263  0.3474  0.4242
13225SOL    HW145638   9.679   4.151  10.151 -0.0130  0.2858 -0.2177
13225SOL    HW245639   9.792   4.227  10.086  1.0175 -0.3448  0.8071
13226SOL     OW45640   2.853   1.359   1.291  0.5744 -0.3914 -0.0304
13226SOL    HW145641   2.855   1.378   1.197 -0.0648  1.3733  0.2812
13226SOL    HW245642   2.760   1.348   1.310  0.2927  2.9084  1.0196
13227SOL     OW45643   3.345  11.902   1.667 -0.0893  0.2861  0.0452
13227SOL    HW145644   3.391  11.888   1.584 -0.3240  0.2426 -0.0784
13227SOL    HW245645   3.323  11.814   1.697 -2.5559  0.3377 -1.2866
13228SOL     OW45646  10.384  11.040   2.448  0.6116 -0.2875  0.0922
13228SOL    HW145647  10.292  11.059   2.429  0.5066 -1.5024 -0.7297
13228SOL    HW245648  10.433  11.089   2.382  0.4146 -1.4175 -0.9545
13229SOL     OW45649  11.490   7.369   1.790 -0.0135  0.2355  0.3929
13229SOL    HW145650  11.536   7.353   1.872 -0.3179 -0.5106  0.4252
13229SOL    HW245651  11.452   7.284   1.766  0.3139  0.3731 -0.6681
13230SOL     OW45652   3.881   2.143   3.981  0.0226  0.2253 -0.0014
13230SOL    HW145653   3.931   2.133   3.900  0.3402 -0.7772  0.3017
13230SOL    HW245654   3.800   2.187   3.954 -0.6155 -1.5647 -1.1901
13231SOL     OW45655   6.092   4.139   6.238  0.6116  0.1849  0.0959
13231SOL    HW145656   6.050   4.068   6.286 -0.2885  1.2479  0.9526
13231SOL    HW245657   6.091   4.111   6.147 -0.0566 -0.7371  0.3706
13232SOL     OW45658   4.475   5.780  11.245 -0.1007 -0.2517 -0.0701
13232SOL    HW145659   4.477   5.795  11.150 -0.4333  1.1985  0.1188
13232SOL    HW245660   4.544   5.838  11.279 -0.8764  0.2639  0.6713
13233SOL     OW45661   0.110   8.660   7.483 -0.0518 -0.0869  0.3129
13233SOL    HW145662   0.072   8.748   7.491  0.8732  0.3041  0.5177
13233SOL    HW245663   0.127   8.633   7.573 -0.5110 -0.5743  0.2641
13234SOL     OW45664  10.727   3.266  11.872  0.3175  0.3342 -0.4121
13234SOL    HW145665  10.669   3.310  11.810 -2.4466 -0.3520  1.4817
13234SOL    HW245666  10.750   3.183  11.829 -2.0139 -0.3910 -0.3850
13235SOL     OW45667   4.906   2.251   3.822  0.4260  0.2654 -0.4461
13235SOL    HW145668   4.871   2.180   3.876  0.3303  1.2846  0.8592
13235SOL    HW245669   4.852   2.327   3.843  1.5266  1.1246 -0.6281
13236SOL     OW45670   1.403   4.137   7.070 -0.0739  0.1242 -0.8305
13236SOL    HW145671   1.430   4.146   6.978  2.5839 -1.0730 -0.2658
13236SOL    HW245672   1.352   4.216   7.088 -0.6423  0.4224 -3.2937
13237SOL     OW45673   9.544   0.332   4.202  0.0886 -0.3110 -0.2698
13237SOL    HW145674   9.528   0.285   4.120  1.3686  0.9342 -1.2840
13237SOL    HW245675   9.503   0.418   4.190  0.8993  0.1429  0.1006
13238SOL     OW45676   2.543   0.564   1.964 -0.1874 -0.0150  0.0018
13238SOL    HW145677   2.606   0.543   1.895  2.3706  2.2600  1.4437
13238SOL    HW245678   2.576   0.646   2.002 -2.1350 -0.5200  3.1247
13239SOL     OW45679   0.456  11.259   0.097 -0.5120 -0.6770 -0.0149
13239SOL    HW145680   0.482  11.298   0.014 -0.9577 -0.0610  0.1240
13239SOL    HW245681   0.397  11.188   0.074  0.5860 -1.5316 -0.2897
13240SOL     OW45682   9.953  10.359   3.832 -0.6901  0.2290  0.3673
13240SOL    HW145683   9.886  10.292   3.846 -1.1176  0.7276  0.7299
13240SOL    HW245684  10.029  10.327   3.880 -1.0825  0.2923  1.0410
13241SOL     OW45685   5.671   2.888  11.844 -0.2465 -0.1669  0.1120
13241SOL    HW145686   5.764   2.871  11.839 -0.1357  0.7077 -1.6402
13241SOL    HW245687   5.662   2.951  11.915  0.6926  0.7658 -0.5672
13242SOL     OW45688   0.228   5.857   6.948 -0.7586 -0.7051  0.2078
13242SOL    HW145689   0.191   5.944   6.930  1.2215  0.2701  0.5570
13242SOL    HW245690   0.282   5.838   6.871 -1.0755 -1.5900  0.1936
13243SOL     OW45691  11.355  12.375   4.412  0.1090  0.3225  0.0152
13243SOL    HW145692  11.422  12.372   4.480  1.4810 -0.1783 -1.3031
13243SOL    HW245693  11.383  12.310   4.347 -1.3152  0.5597 -0.8796
13244SOL     OW45694  11.846   3.507   0.141  0.1663 -0.3061  0.0965
13244SOL    HW145695  11.806   3.423   0.164  2.2617 -2.0271 -2.0955
13244SOL    HW245696  11.846   3.509   0.046  0.1103  2.2624  0.0878
13245SOL     OW45697   8.625  11.524   7.464  0.0108 -0.3256 -0.0905
13245SOL    HW145698   8.555  11.506   7.401 -0.3134  1.0015 -0.1336
13245SOL    HW245699   8.676  11.443   7.466 -1.2740 -1.1743 -0.3719
13246SOL     OW45700   6.026   5.850   0.248 -0.0976 -0.6027 -0.7982
13246SOL    HW145701   5.954   5.876   0.192  0.1040 -0.6672 -1.0896
13246SOL    HW245702   6.103   5.894   0.211  0.1622 -1.2240 -1.0171
13247SOL     OW45703   9.246   9.664   4.279  0.1646 -0.0559 -0.5141
13247SOL    HW145704   9.337   9.636   4.273 -0.0013 -0.8403  0.4363
13247SOL    HW245705   9.202   9.595   4.330 -0.7567  0.7500 -0.1732
13248SOL     OW45706   0.071   6.222   5.291 -0.3783 -0.1179 -0.2173
13248SOL    HW145707   0.088   6.314   5.312 -0.7493  0.0619 -0.7057
13248SOL    HW245708   0.000   6.224   5.227  0.5881 -0.6627 -1.3459
13249SOL     OW45709   9.915   8.889   6.986  0.0364 -0.0180  0.1150
13249SOL    HW145710   9.955   8.959   7.037 -0.5784  0.7773 -0.4539
13249SOL    HW245711   9.881   8.828   7.051  1.9813 -0.6308  0.6090
13250SOL     OW45712   1.966  11.287   6.192 -0.1841  0.0852  0.3133
13250SOL    HW145713   2.022  11.209   6.183 -1.6224 -0.8587 -1.0315
13250SOL    HW245714   1.930  11.281   6.280  0.5971 -0.1622  0.6204
13251SOL     OW45715  11.670   2.320  11.201  0.3624 -0.5982 -0.2142
13251SOL    HW145716  11.683   2.411  11.228 -1.0085 -0.1629 -0.9278
13251SOL    HW245717  11.609   2.285  11.265  0.6366 -0.9265 -0.1303
13252SOL     OW45718   2.871   1.537   3.939  0.3945 -0.3755  0.3870
13252SOL    HW145719   2.955   1.499   3.915  0.4317 -0.9140  1.3310
13252SOL    HW245720   2.854   1.504   4.027 -0.7991 -0.2687  0.2149
13253SOL     OW45721   6.027   7.421  11.863 -0.9487 -0.1170 -0.0607
13253SOL    HW145722   6.053   7.386  11.949  3.2198  1.2847 -0.5786
13253SOL    HW245723   6.027   7.516  11.874  0.1322  0.1046 -1.7137
13254SOL     OW45724   6.571   2.066   2.779  0.1226  0.2719  0.2244
13254SOL    HW145725   6.648   2.108   2.740  0.7889 -1.3649 -0.2835
13254SOL    HW245726   6.518   2.039   2.705  0.1865 -0.6436  0.4994
13255SOL     OW45727  11.069  11.029  11.315  0.3104  0.3271  0.3951
13255SOL    HW145728  11.117  11.111  11.301  0.4298  0.1349 -0.3548
13255SOL    HW245729  10.986  11.056  11.353 -0.8113  1.0714 -2.3696
13256SOL     OW45730   7.659   2.590   1.201  0.4776 -0.0624 -0.1841
13256SOL    HW145731   7.569   2.558   1.189  0.2629  0.2466  0.5233
13256SOL    HW245732   7.659   2.628   1.288  1.6422 -1.2093  0.3575
13257SOL     OW45733   2.439   7.283  12.049 -0.6452  0.0659  0.2530
13257SOL    HW145734   2.408   7.249  11.966  1.2716 -0.4945 -0.2759
13257SOL    HW245735   2.520   7.329  12.028 -0.1948  0.0509  1.7855
13258SOL     OW45736   1.755   8.279  10.626  0.0479  0.0374  0.5843
13258SOL    HW145737   1.775   8.205  10.684 -0.2028  1.7647  2.9988
13258SOL    HW245738   1.839   8.322  10.613 -0.1839  0.7126  1.2410
13259SOL     OW45739   8.924   5.096   2.258  0.7242 -0.1963 -0.3505
13259SOL    HW145740   8.933   5.136   2.344  1.8314  0.2829 -0.6625
13259SOL    HW245741   8.916   5.170   2.198 -3.1362 -0.4919 -0.4680
13260SOL     OW45742  11.697   2.521   1.038 -0.8249  0.2114  0.3754
13260SOL    HW145743  11.655   2.597   1.078 -0.7210  0.0665  0.7624
13260SOL    HW245744  11.747   2.558   0.965 -0.7473  0.5182  0.5793
13261SOL     OW45745   7.660  11.724   5.864 -0.6634 -0.0456  0.5265
13261SOL    HW145746   7.678  11.818   5.857  0.5488  0.0615  3.6997
13261SOL    HW245747   7.711  11.685   5.793  0.2035  1.5317  0.2265
13262SOL     OW45748   3.382  12.169   8.864  0.2081  0.5246 -0.2009
13262SOL    HW145749   3.362  12.257   8.835 -1.5769  0.2291  0.0196
13262SOL    HW245750   3.311  12.115   8.829  0.1834 -0.4893  1.3118
13263SOL     OW45751   6.101  10.618   3.675  0.4792 -0.0794  0.0354
13263SOL    HW145752   6.097  10.703   3.717  1.6334  0.4823 -0.9231
13263SOL    HW245753   6.194  10.604   3.657 -0.0142  0.6083 -3.9870
13264SOL     OW45754   9.031   7.080   9.264  0.7659  0.0410  0.3432
13264SOL    HW145755   9.004   7.014   9.200  0.9965  0.4559 -0.1881
13264SOL    HW245756   8.955   7.138   9.273  0.7557  0.0182  0.4080
13265SOL     OW45757  11.749   1.360   5.530  0.0393 -0.6229 -0.0804
13265SOL    HW145758  11.823   1.381   5.474 -0.2337  0.5456 -0.0371
13265SOL    HW245759  11.776   1.389   5.618 -0.7368  0.5411 -0.2028
13266SOL     OW45760   0.552   6.164  10.326  0.6131 -0.3022  0.1088
13266SOL    HW145761   0.603   6.243  10.309 -0.3598  0.5073  0.8002
13266SOL    HW245762   0.574   6.140  10.416  0.8012 -0.7601 -0.0525
13267SOL     OW45763   9.326   9.364   8.217  0.0065 -0.6495 -0.6168
13267SOL    HW145764   9.257   9.419   8.253  0.6947 -0.2733  0.1571
13267SOL    HW245765   9.324   9.381   8.123  0.8781  1.5111 -0.3008
13268SOL     OW45766   9.688   2.472   0.325 -0.5014 -0.3911  0.9078
13268SOL    HW145767   9.773   2.469   0.281 -0.3096 -1.1556  1.3131
13268SOL    HW245768   9.694   2.546   0.385 -0.5499  0.2840  0.0953
13269SOL     OW45769   5.624  11.396   4.017 -0.2104  0.6164 -0.1618
13269SOL    HW145770   5.654  11.317   3.974 -1.4980 -0.1716  0.3092
13269SOL    HW245771   5.695  11.421   4.076  0.1981 -0.1891 -0.3069
13270SOL     OW45772  11.576   5.566   5.315 -0.5979  0.8271  0.4464
13270SOL    HW145773  11.551   5.601   5.229  0.1052  0.1561 -0.0460
13270SOL    HW245774  11.522   5.488   5.327  1.3302 -0.7897 -0.7477
13271SOL     OW45775   1.471   1.055   0.326  0.2739 -0.2688  0.0966
13271SOL    HW145776   1.439   1.142   0.304  0.1629 -0.2228  0.4284
13271SOL    HW245777   1.561   1.069   0.356  0.1497 -0.2277  0.4522
13272SOL     OW45778   0.474   8.864   8.467 -0.3795 -0.5490  0.2466
13272SOL    HW145779   0.506   8.829   8.550  0.2369  1.1404  0.7579
13272SOL    HW245780   0.433   8.947   8.490 -0.2014 -0.0528 -1.1472
13273SOL     OW45781  11.795   9.073   3.617 -0.1130  0.2160  0.3638
13273SOL    HW145782  11.731   9.006   3.641  0.0498 -0.0262  0.1410
13273SOL    HW245783  11.802   9.066   3.521  3.4013 -2.8174  0.5913
13274SOL     OW45784   1.498   7.081   0.866  0.0276  0.7791  0.0178
13274SOL    HW145785   1.469   7.172   0.875 -1.7749  0.2935 -0.5029
13274SOL    HW245786   1.449   7.047   0.791  0.9526 -0.5246 -0.0297
13275SOL     OW45787   4.456   1.440  11.778  0.1015  0.3356 -0.8408
13275SOL    HW145788   4.475   1.364  11.723 -0.6442  0.6662 -1.5852
13275SOL    HW245789   4.376   1.477  11.740 -0.6407  0.3693  0.7056
13276SOL     OW45790   9.056   1.091   7.573  0.5315 -0.0372 -0.7723
13276SOL    HW145791   9.126   1.026   7.581 -0.8029 -1.3185  2.6460
13276SOL    HW245792   8.981   1.050   7.616 -1.6723  2.1772 -2.2543
13277SOL     OW45793   0.150   6.460   2.395 -0.1440  0.0031 -0.0492
13277SOL    HW145794   0.070   6.409   2.409 -0.4727  0.1210 -1.3564
13277SOL    HW245795   0.175   6.491   2.483 -0.3972 -1.6907  0.6630
13278SOL     OW45796   0.513   3.386   4.536  0.0074  0.8496 -0.1586
13278SOL    HW145797   0.477   3.329   4.604  0.0331  2.2505  1.1036
13278SOL    HW245798   0.488   3.474   4.563  0.1176  1.4725 -1.9442
13279SOL     OW45799   0.705   0.961   6.049  0.2122  0.4527  0.4001
13279SOL    HW145800   0.643   1.017   6.002 -0.3560  0.0564  0.6686
13279SOL    HW245801   0.734   0.898   5.983  0.7239  0.9559  0.1411
13280SOL     OW45802  10.223   7.113   9.277 -0.0316  0.4786  0.1039
13280SOL    HW145803  10.248   7.022   9.263  0.0236  0.1532  2.0496
13280SOL    HW245804  10.287   7.163   9.226  2.4750 -0.4540  2.1221
13281SOL     OW45805   4.720  11.094   1.534  0.1793 -0.4529 -0.4424
13281SOL    HW145806   4.628  11.121   1.540  0.7443  1.3305  1.2910
13281SOL    HW245807   4.748  11.086   1.625  2.1208  0.4456 -0.9141
13282SOL     OW45808   4.294   8.031   4.494 -0.1324  0.3732 -0.1172
13282SOL    HW145809   4.238   8.106   4.516 -0.3062 -0.0999  1.1327
13282SOL    HW245810   4.233   7.961   4.472 -0.0262  0.0149  0.7123
13283SOL     OW45811  11.478  10.883   8.216 -0.4396 -0.3943  0.3642
13283SOL    HW145812  11.547  10.889   8.282  1.9199  0.8735 -1.9977
13283SOL    HW245813  11.467  10.973   8.185 -1.4699 -0.9372 -0.9497
13284SOL     OW45814   8.298   3.526   1.412 -0.1311 -0.6890  0.2834
13284SOL    HW145815   8.203   3.536   1.422  0.0236  1.6337  0.0805
13284SOL    HW245816   8.320   3.582   1.338  1.4805 -0.6894  0.7229
13285SOL     OW45817   0.163   0.192   8.070 -0.0660  0.2225  0.5174
13285SOL    HW145818   0.094   0.228   8.125  0.4211  1.3715  0.3999
13285SOL    HW245819   0.154   0.237   7.986  0.1419 -0.4174  0.1399
13286SOL     OW45820   2.840   1.347  10.881 -1.0629 -0.2979  0.1174
13286SOL    HW145821   2.826   1.420  10.942  3.5515 -1.5949  3.2766
13286SOL    HW245822   2.825   1.384  10.794 -1.7326  3.5511  1.7025
13287SOL     OW45823  11.239  12.402  10.443  0.0912 -0.2278 -0.0778
13287SOL    HW145824  11.244  12.318  10.395  1.2075 -0.1651 -0.1040
13287SOL    HW245825  11.209  12.378  10.530 -2.3352 -0.3055 -0.8728
13288SOL     OW45826   7.296   9.850  12.282 -0.2617  0.2540  0.3771
13288SOL    HW145827   7.203   9.862  12.265 -0.2718 -1.2763 -0.8853
13288SOL    HW245828   7.299   9.805  12.367 -0.7885 -1.0355 -0.2592
13289SOL     OW45829   7.676  12.112   1.614 -0.2157  0.0660  0.3182
13289SOL    HW145830   7.701  12.159   1.694 -3.3677  2.1201  0.2644
13289SOL    HW245831   7.613  12.170   1.570  0.2787 -1.6200 -2.9590
13290SOL     OW45832   0.329   3.306   8.101  0.1508  0.0303 -0.3505
13290SOL    HW145833   0.410   3.273   8.139  0.3528  0.9439  0.0477
13290SOL    HW245834   0.296   3.369   8.165 -0.3117  0.4585 -0.9925
13291SOL     OW45835   2.819  11.426   3.053  0.2204 -0.2546 -0.3268
13291SOL    HW145836   2.911  11.427   3.080  0.5649  0.1932 -1.4456
13291SOL    HW245837   2.822  11.430   2.957 -0.9421 -2.1366 -0.4926
13292SOL     OW45838   1.381   4.606  10.788 -0.4050 -0.1395  0.3890
13292SOL    HW145839   1.310   4.547  10.812  0.0810 -1.7128 -1.7798
13292SOL    HW245840   1.450   4.588  10.852 -0.0156 -2.4812 -0.6135
13293SOL     OW45841   7.410   6.635   1.242 -0.1707 -0.6294 -0.0423
13293SOL    HW145842   7.396   6.727   1.223  0.9834 -0.3701  0.3022
13293SOL    HW245843   7.325   6.594   1.226 -0.6977  0.4885 -0.1846
13294SOL     OW45844   6.956   4.139  11.600  0.4033 -0.0288 -0.1412
13294SOL    HW145845   6.981   4.072  11.537 -0.5504  0.1107 -0.6941
13294SOL    HW245846   6.891   4.096  11.656  1.2621 -0.1635  0.7940
13295SOL     OW45847  11.387  11.123   6.370  0.0037  0.3106  0.3783
13295SOL    HW145848  11.470  11.116   6.323 -1.0251  0.7728 -1.6117
13295SOL    HW245849  11.398  11.198   6.428  1.1540  0.0313  0.5301
13296SOL     OW45850   0.209  11.456  12.373  0.4462  0.5959 -0.1079
13296SOL    HW145851   0.239  11.374  12.334 -0.3342 -0.4774  1.4331
13296SOL    HW245852   0.208  11.439  12.467  0.9384  2.6235  0.3104
13297SOL     OW45853   8.414   5.479  10.607  0.4200  0.1447  0.1402
13297SOL    HW145854   8.492   5.520  10.644  0.2292 -0.8551  1.7350
13297SOL    HW245855   8.383   5.421  10.676 -1.4936  0.1983 -0.6315
13298SOL     OW45856   8.285   6.315   0.977 -0.3498  0.4948 -0.4238
13298SOL    HW145857   8.239   6.319   1.061 -0.7322  1.2328 -0.6650
13298SOL    HW245858   8.242   6.380   0.922  1.4760  1.7823 -0.4182
13299SOL     OW45859  10.000   0.615   8.509 -0.0760  0.0486  0.5226
13299SOL    HW145860  10.006   0.637   8.416  0.7138 -0.3144  0.4779
13299SOL    HW245861  10.091   0.616   8.540 -0.2382 -0.8048  1.0590
13300SOL     OW45862   7.744   1.072  11.002  0.1911  0.4902  0.6302
13300SOL    HW145863   7.709   1.045  11.087  0.2902 -2.1226 -0.0510
13300SOL    HW245864   7.827   1.025  10.995  0.1056  0.5213 -0.9423
13301SOL     OW45865   2.866   5.451   5.371  0.4858 -1.0255  1.1480
13301SOL    HW145866   2.898   5.361   5.376  0.0027 -1.4964 -1.9156
13301SOL    HW245867   2.794   5.448   5.307  0.6273  1.5518  0.7206
13302SOL     OW45868   1.857   6.777   4.664 -0.6287 -0.0377  0.3528
13302SOL    HW145869   1.853   6.762   4.569 -0.0410 -0.1967  0.3443
13302SOL    HW245870   1.772   6.750   4.697 -0.7183 -0.3046 -0.0886
13303SOL     OW45871   8.802   6.025   2.344  0.5493  0.0195 -0.8257
13303SOL    HW145872   8.756   6.101   2.378  0.6483 -0.1702 -0.2653
13303SOL    HW245873   8.889   6.057   2.323  1.5862 -0.5503  2.1796
13304SOL     OW45874  12.371   7.587   9.371  0.3650 -0.3711 -0.2254
13304SOL    HW145875  12.452   7.580   9.421  0.2218  1.1083  0.2739
13304SOL    HW245876  12.303   7.553   9.429  0.6170 -1.6295 -0.6510
13305SOL     OW45877   7.365   6.884   7.401 -0.3158 -0.0536  0.3497
13305SOL    HW145878   7.392   6.820   7.335 -0.4072 -0.4602  0.7044
13305SOL    HW245879   7.435   6.950   7.400  1.2325 -1.5672  1.9180
13306SOL     OW45880   5.271   1.577   3.307 -0.2419  0.8726  0.8617
13306SOL    HW145881   5.201   1.534   3.356 -1.5183  0.6131 -1.0499
13306SOL    HW245882   5.340   1.512   3.300 -1.7831 -0.6741 -1.2239
13307SOL     OW45883  11.964   7.594   1.307 -0.6453 -0.4608 -0.8627
13307SOL    HW145884  11.964   7.682   1.269 -0.1807  0.8563  1.9330
13307SOL    HW245885  11.897   7.598   1.376  1.5968 -1.2217  1.4961
13308SOL     OW45886   4.260   3.617  10.611 -0.0549 -0.0685  0.0482
13308SOL    HW145887   4.325   3.558  10.649 -0.6129  0.1627  1.4092
13308SOL    HW245888   4.295   3.705  10.627  0.9036  0.0453 -2.1935
13309SOL     OW45889   2.823   2.529   8.475  0.0877 -0.1002  0.3256
13309SOL    HW145890   2.752   2.525   8.412  0.1963 -1.0724  0.2474
13309SOL    HW245891   2.781   2.558   8.556 -0.3090 -0.2072  0.1624
13310SOL     OW45892   9.948   5.140   7.423 -0.1057  0.3274 -0.0037
13310SOL    HW145893  10.022   5.194   7.394  0.0272 -0.9412 -2.2927
13310SOL    HW245894   9.893   5.199   7.474  1.4549  1.8422  0.0225
13311SOL     OW45895  11.646   3.361   4.882 -0.0795 -0.4308  0.1431
13311SOL    HW145896  11.606   3.274   4.894 -0.6743 -0.0119  1.4462
13311SOL    HW245897  11.585   3.408   4.826  0.1049 -0.7580 -0.3372
13312SOL     OW45898   5.600   1.271   7.582 -0.1366  0.4606 -0.0506
13312SOL    HW145899   5.638   1.185   7.598  0.3867  0.9871  1.7693
13312SOL    HW245900   5.542   1.258   7.507 -0.5067 -1.6136  0.5279
13313SOL     OW45901   5.274   7.730   7.086  0.0345  0.2825 -0.0479
13313SOL    HW145902   5.207   7.688   7.140  1.0337  0.3529  1.2866
13313SOL    HW245903   5.295   7.665   7.019  1.6564 -1.4745  2.0507
13314SOL     OW45904   4.660   6.787   3.627  1.5451 -0.6237 -0.4955
13314SOL    HW145905   4.573   6.822   3.606  0.6670 -2.4129 -0.0969
13314SOL    HW245906   4.715   6.811   3.553  0.5789  0.1487 -0.9764
13315SOL     OW45907   6.219  10.916   0.151 -0.4011 -0.3252  0.2417
13315SOL    HW145908   6.266  10.995   0.124 -0.9202  0.4367  1.5083
13315SOL    HW245909   6.213  10.863   0.071  0.5658  0.5976 -0.4591
13316SOL     OW45910   5.390   9.719   1.290  0.1625 -0.7756  0.0456
13316SOL    HW145911   5.437   9.740   1.370 -0.8727 -1.1806  0.7753
13316SOL    HW245912   5.353   9.802   1.261 -0.0135 -0.7462  0.3528
13317SOL     OW45913   8.083  12.170   7.686  0.0281  0.7411 -0.1415
13317SOL    HW145914   8.015  12.191   7.750  2.2268  1.8135  2.0317
13317SOL    HW245915   8.066  12.228   7.612 -1.3144  1.0743  0.4105
13318SOL     OW45916  10.605   2.240   9.261  0.2172 -0.0676  0.2803
13318SOL    HW145917  10.580   2.229   9.169 -1.9766 -1.0987  0.9319
13318SOL    HW245918  10.559   2.170   9.307  0.8932  0.7158  2.2485
13319SOL     OW45919   9.624   3.683   6.166  0.3998 -0.3868  0.4786
13319SOL    HW145920   9.715   3.675   6.196  1.4369 -0.0200 -2.2948
13319SOL    HW245921   9.605   3.777   6.174 -0.4179 -0.6709  2.6510
13320SOL     OW45922   7.988   2.637   1.293  0.0224  0.0553 -0.5731
13320SOL    HW145923   7.999   2.545   1.315 -1.2475  0.5540  2.6757
13320SOL    HW245924   7.903   2.661   1.331  0.0751  2.4366 -1.7852
13321SOL     OW45925   3.210  10.016   1.988  0.0658 -0.0907 -0.8087
13321SOL    HW145926   3.164  10.061   2.059 -1.4929 -1.9625 -0.5498
13321SOL    HW245927   3.300  10.049   1.994 -0.5837  1.6653  0.4147
13322SOL     OW45928   2.780   3.974   5.453 -0.2574 -0.4549  0.2038
13322SOL    HW145929   2.755   3.952   5.543  1.9979 -0.8459  0.7997
13322SOL    HW245930   2.870   4.005   5.461  0.8157 -2.6706 -2.1848
13323SOL     OW45931   8.734  11.334   7.059 -0.2561 -0.5187 -0.2363
13323SOL    HW145932   8.821  11.366   7.084  0.1620  0.1179 -2.2995
13323SOL    HW245933   8.751  11.251   7.015 -0.6508 -0.2547 -0.8973
13324SOL     OW45934   3.221   3.330   3.968 -0.2076 -0.7250  0.0462
13324SOL    HW145935   3.126   3.332   3.982 -0.0305  1.9954  1.5515
13324SOL    HW245936   3.246   3.422   3.958  2.2254 -1.4097 -0.9244
13325SOL     OW45937   9.181   0.290   1.289  0.3342 -0.1594  0.6508
13325SOL    HW145938   9.103   0.345   1.295  1.1441  1.1578 -0.4882
13325SOL    HW245939   9.159   0.224   1.223  0.4229  0.6443 -0.1927
13326SOL     OW45940  10.732   5.308   0.136 -0.2615 -0.1603 -0.2980
13326SOL    HW145941  10.787   5.248   0.086 -0.6418 -0.4532 -0.3688
13326SOL    HW245942  10.684   5.251   0.196  0.9355  0.2770  1.1292
13327SOL     OW45943   0.461  11.076   3.144  0.5303 -0.3260  0.1640
13327SOL    HW145944   0.495  11.165   3.154  2.5595 -1.1401  0.9032
13327SOL    HW245945   0.503  11.042   3.065 -0.1769 -0.6703 -0.0764
13328SOL     OW45946   4.038   9.872   1.412 -0.2462  0.1546  0.3050
13328SOL    HW145947   4.133   9.862   1.413 -0.2208  0.3824  0.3027
13328SOL    HW245948   4.018   9.918   1.493 -0.5202 -1.2851  1.0910
13329SOL     OW45949   9.989  10.774   1.057  0.4140 -0.2880 -0.1030
13329SOL    HW145950  10.003  10.843   1.122 -1.4241  0.1331 -0.1097
13329SOL    HW245951   9.901  10.743   1.073  1.3670 -3.0623  0.2299
13330SOL     OW45952   7.678   5.842   8.022  0.4184 -0.4342 -0.2596
13330SOL    HW145953   7.658   5.803   8.107  0.1908 -0.7328 -0.4483
13330SOL    HW245954   7.774   5.835   8.015  0.5057  0.1731  0.2445
13331SOL     OW45955   6.852   3.854   4.212  0.1339  0.1661  0.0257
13331SOL    HW145956   6.798   3.846   4.291 -0.0386  0.1181 -0.0979
13331SOL    HW245957   6.933   3.895   4.243  0.4737 -0.7675  0.4158
13332SOL     OW45958   2.079  11.917   2.754 -0.0556 -0.1224 -0.1624
13332SOL    HW145959   2.071  11.852   2.683 -0.7430  0.0775 -0.2716
13332SOL    HW245960   2.014  11.984   2.733 -3.4305 -2.0905  2.8533
13333SOL     OW45961   1.936   8.943   7.086  0.0995 -0.1800  0.0555
13333SOL    HW145962   2.024   8.966   7.054  0.0050  0.8225  0.4747
13333SOL    HW245963   1.884   9.022   7.071 -0.6409 -0.6357  0.1712
13334SOL     OW45964   1.758   7.421   6.413 -0.3582  0.6456 -0.1720
13334SOL    HW145965   1.669   7.397   6.388 -0.2408 -0.9481  0.7831
13334SOL    HW245966   1.805   7.338   6.414  0.6508  1.1997  1.2205
13335SOL     OW45967   0.260  11.395   1.376  0.2780  0.2945  0.2677
13335SOL    HW145968   0.298  11.418   1.461 -0.7900  2.8465  0.1514
13335SOL    HW245969   0.335  11.396   1.316  0.6481  1.3267  0.7189
13336SOL     OW45970   9.578   0.351   9.888  0.0814 -0.2467  0.0030
13336SOL    HW145971   9.562   0.259   9.907 -0.1641 -0.1777  0.1246
13336SOL    HW245972   9.554   0.398   9.968 -1.0547  0.0506 -0.4865
13337SOL     OW45973   0.416   1.316   5.368 -0.0771  0.4928  0.5957
13337SOL    HW145974   0.478   1.359   5.308 -1.1431  0.9259 -0.2476
13337SOL    HW245975   0.434   1.355   5.453  0.9903  0.4019  0.4255
13338SOL     OW45976   1.854   4.776   2.832 -0.1978  0.6805  0.8601
13338SOL    HW145977   1.847   4.820   2.747  0.9853 -0.7661 -0.0294
13338SOL    HW245978   1.766   4.742   2.848 -0.1913  0.0502 -0.3127
13339SOL     OW45979   3.609   6.252   9.134  0.0834  0.3757  0.3968
13339SOL    HW145980   3.548   6.281   9.201 -0.2989  0.3929  0.0429
13339SOL    HW245981   3.674   6.322   9.128  0.8142 -0.1703  1.6065
13340SOL     OW45982   2.413   3.098  10.875  0.1432 -0.0417 -0.4770
13340SOL    HW145983   2.376   3.185  10.891  1.9500  1.1480 -2.1713
13340SOL    HW245984   2.415   3.090  10.779  2.4260 -0.7732 -0.4371
13341SOL     OW45985   1.362   7.656   3.055  0.1993 -0.0833  0.2225
13341SOL    HW145986   1.327   7.568   3.073  0.8096 -0.2795  0.4729
13341SOL    HW245987   1.310   7.714   3.110  1.6253 -0.6020  2.2273
13342SOL     OW45988   9.423   4.605   6.191 -0.0875  0.1311  0.1028
13342SOL    HW145989   9.439   4.662   6.116  0.1515  0.9756  0.7903
13342SOL    HW245990   9.508   4.595   6.233  0.2577 -2.1523 -0.9596
13343SOL     OW45991   7.775  10.480   0.080 -0.5183 -0.1574  0.1207
13343SOL    HW145992   7.799  10.455   0.169 -0.7605 -0.8117  0.0073
13343SOL    HW245993   7.766  10.575   0.084 -0.1829 -0.1401  0.7074
13344SOL     OW45994   3.711   3.439   6.831 -0.3518  0.5442 -0.0383
13344SOL    HW145995   3.647   3.369   6.844  0.4099 -0.1419  0.1767
13344SOL    HW245996   3.660   3.520   6.830 -1.1720  0.0417  0.4599
13345SOL     OW45997   3.064   0.288   5.158 -0.6809  0.1837 -0.1223
13345SOL    HW145998   3.074   0.304   5.064 -0.0140  0.5318  0.0062
13345SOL    HW245999   3.018   0.204   5.163  0.0289 -0.2559 -0.7566
13346SOL     OW46000   2.352   7.882   3.636 -0.2507  0.3604 -0.6579
13346SOL    HW146001   2.368   7.940   3.562  2.7620 -0.2469 -0.6017
13346SOL    HW246002   2.421   7.816   3.631 -0.6893 -0.4262  1.9915
13347SOL     OW46003  10.529   5.486  10.214 -0.7681  0.1797  0.2852
13347SOL    HW146004  10.578   5.435  10.150  0.4477  0.7075  0.7656
13347SOL    HW246005  10.462   5.531  10.163  1.4411  2.2211 -1.0109
13348SOL     OW46006   9.165  12.147   4.882  0.8597  0.3592  0.1702
13348SOL    HW146007   9.151  12.116   4.793  0.0803 -0.1723  0.4596
13348SOL    HW246008   9.144  12.071   4.937  1.9853  0.4668  0.7817
13349SOL     OW46009   0.910   3.121   4.586 -0.5117  0.1521  0.1975
13349SOL    HW146010   0.948   3.116   4.673  1.0108  0.0892 -0.4429
13349SOL    HW246011   0.880   3.032   4.567 -0.5017  0.0825  0.5055
13350SOL     OW46012   6.372   2.796   9.921  0.4655 -0.0183 -0.2054
13350SOL    HW146013   6.435   2.825   9.855  0.7223 -1.3567 -0.5662
13350SOL    HW246014   6.419   2.730   9.972 -0.9008 -1.7592 -1.0888
13351SOL     OW46015   3.234   5.597   8.409 -0.2615 -0.2789  0.5886
13351SOL    HW146016   3.258   5.505   8.416 -0.8502 -0.3082  3.1683
13351SOL    HW246017   3.317   5.643   8.397  0.0638 -1.0894 -0.4252
13352SOL     OW46018   3.768   7.621   1.790 -0.1692 -0.2295  0.2036
13352SOL    HW146019   3.804   7.707   1.769  0.8149 -0.4882  0.7347
13352SOL    HW246020   3.687   7.640   1.838 -0.8734  0.3664 -1.1858
13353SOL     OW46021  10.995  11.322   7.955 -0.2720 -0.2488  0.0365
13353SOL    HW146022  11.078  11.353   7.918  0.1184 -0.1087  1.0180
13353SOL    HW246023  10.961  11.261   7.889  0.1917  0.3277 -0.7551
13354SOL     OW46024   0.168   9.600   0.563 -0.2444 -0.1575 -0.3205
13354SOL    HW146025   0.186   9.685   0.521 -1.1814  0.4123  0.4043
13354SOL    HW246026   0.141   9.622   0.652  0.4247 -1.2814  0.1846
13355SOL     OW46027   3.858  11.493   1.583  0.4217  0.0457 -0.0487
13355SOL    HW146028   3.927  11.503   1.518  0.9282  0.4811  0.5431
13355SOL    HW246029   3.789  11.554   1.554 -0.0009 -0.8479 -0.9846
13356SOL     OW46030   5.854  11.035   2.090 -0.6426 -0.2686  0.0464
13356SOL    HW146031   5.891  11.019   2.003 -1.8144  2.4490 -1.0512
13356SOL    HW246032   5.931  11.045   2.147  0.2793  1.3371 -1.4006
13357SOL     OW46033   2.336   8.585  11.182 -0.2778  0.1040 -0.2686
13357SOL    HW146034   2.246   8.562  11.157 -0.9727  1.6773  0.6665
13357SOL    HW246035   2.331   8.604  11.275  1.2300 -0.5974 -0.0109
13358SOL     OW46036   1.069   9.090  11.871 -0.3111  1.0420 -0.2731
13358SOL    HW146037   1.006   9.020  11.859  2.0318 -1.3983  0.7206
13358SOL    HW246038   1.041   9.135  11.951 -2.0754  1.5916 -1.1591
13359SOL     OW46039   3.296   8.042   9.376 -0.2342  0.0410 -0.5551
13359SOL    HW146040   3.240   7.989   9.319 -0.1392 -0.9159  0.2138
13359SOL    HW246041   3.371   7.986   9.395  0.8177  1.1797 -1.2736
13360SOL     OW46042   9.519  10.225   5.145 -0.4553 -0.5685  0.3784
13360SOL    HW146043   9.606  10.185   5.146  0.0293  0.4317 -0.0421
13360SOL    HW246044   9.524  10.291   5.076 -1.3778 -0.1269  0.7174
13361SOL     OW46045   6.300   3.728   2.229 -0.2867  0.6606 -0.0216
13361SOL    HW146046   6.361   3.742   2.157  0.4663 -0.7058  0.3166
13361SOL    HW246047   6.347   3.758   2.307 -0.1334 -0.1226  0.2000
13362SOL     OW46048   8.860   1.832   8.653 -0.1448 -0.0265  0.0650
13362SOL    HW146049   8.864   1.740   8.679 -0.7714 -0.1717 -0.3244
13362SOL    HW246050   8.907   1.835   8.569  1.4365  0.3492  0.9241
13363SOL     OW46051   9.508  11.485   7.115  0.5787 -0.1320  0.6509
13363SOL    HW146052   9.586  11.454   7.070 -0.9177 -3.6595  0.2097
13363SOL    HW246053   9.519  11.457   7.206  0.9358  1.7655  1.2525
13364SOL     OW46054  10.816  12.017   9.812 -0.0648  0.1078  0.1177
13364SOL    HW146055  10.774  11.931   9.810  1.5769 -0.7207 -1.4685
13364SOL    HW246056  10.890  12.009   9.753  1.3278  2.0315  1.4686
13365SOL     OW46057   6.931   6.046   2.056  0.0944  0.3548  0.2244
13365SOL    HW146058   6.880   5.974   2.094  1.8010 -1.3893 -0.6568
13365SOL    HW246059   6.923   6.035   1.962  3.8534 -1.4337 -0.0558
13366SOL     OW46060   1.407  11.133   4.779 -0.2783  0.3727 -0.0200
13366SOL    HW146061   1.360  11.177   4.708 -1.6639 -0.2213  0.4962
13366SOL    HW246062   1.454  11.062   4.735 -0.0122  0.8501 -0.5205
13367SOL     OW46063   0.029   7.383   7.983 -0.1356 -0.1968  0.6173
13367SOL    HW146064  -0.065   7.373   7.996  0.0313 -0.5089  1.6610
13367SOL    HW246065   0.047   7.331   7.905 -0.6585 -1.0609  1.0508
13368SOL     OW46066   8.761   9.784  10.680 -0.5498 -0.1592  0.2781
13368SOL    HW146067   8.747   9.870  10.721 -0.7350 -0.4565  0.8490
13368SOL    HW246068   8.850   9.788  10.646 -0.0752 -0.1956  1.4607
13369SOL     OW46069   4.940   2.216   9.333 -0.2503 -0.1671 -0.0947
13369SOL    HW146070   4.973   2.212   9.243  0.0012 -0.3440  0.0054
13369SOL    HW246071   4.994   2.283   9.375 -0.1125 -0.3554  0.0300
13370SOL     OW46072   3.647   2.947  11.209 -0.0818  0.1081 -0.0427
13370SOL    HW146073   3.728   2.898  11.197  0.0118  0.5462 -1.4240
13370SOL    HW246074   3.626   2.936  11.302  1.3278 -0.3492  0.2555
13371SOL     OW46075   8.605   4.784  11.036 -0.0544 -0.3244  0.3382
13371SOL    HW146076   8.511   4.777  11.016  0.0739 -0.4433 -0.2433
13371SOL    HW246077   8.628   4.699  11.073 -0.0198 -0.5530 -0.2033
13372SOL     OW46078   0.936   7.375   1.974  0.0624  0.1969 -0.2886
13372SOL    HW146079   0.945   7.424   2.056 -0.8529  1.9482 -1.1661
13372SOL    HW246080   0.861   7.318   1.988  1.3472 -1.3088  0.8714
13373SOL     OW46081  12.037   1.997   2.271  0.3574 -0.1555 -0.3721
13373SOL    HW146082  11.990   1.992   2.354 -1.3579  0.8613 -1.2275
13373SOL    HW246083  12.083   1.914   2.265 -1.4880 -1.3138  0.4439
13374SOL     OW46084   0.375   6.289   1.361  0.3509  0.8079 -0.2276
13374SOL    HW146085   0.337   6.259   1.444  0.3411  2.0626  0.2479
13374SOL    HW246086   0.422   6.212   1.327  0.5791  0.3402  1.0679
13375SOL     OW46087   0.772  10.297   0.272 -0.4142 -0.1573 -0.5030
13375SOL    HW146088   0.813  10.383   0.260 -0.1894 -0.1364  0.3850
13375SOL    HW246089   0.838  10.244   0.315 -0.8397 -0.5270 -0.2978
13376SOL     OW46090   6.688   3.539   0.063 -0.6220 -0.3859  0.4367
13376SOL    HW146091   6.714   3.591  -0.014 -1.9898  0.9354  0.8057
13376SOL    HW246092   6.769   3.528   0.113 -0.1673  0.8782  0.0265
13377SOL     OW46093   0.950   2.499   4.261 -0.4797 -0.4588  0.1290
13377SOL    HW146094   1.033   2.529   4.224 -1.2116  0.4791 -0.8175
13377SOL    HW246095   0.933   2.415   4.220  0.7860 -1.4518  1.5583
13378SOL     OW46096   8.941   7.108   4.271  0.4836 -0.1734 -0.3056
13378SOL    HW146097   8.887   7.135   4.346  1.7596  0.1539  0.5160
13378SOL    HW246098   9.005   7.178   4.261  0.4599 -0.3179 -1.5947
13379SOL     OW46099   3.458   3.483   5.883 -0.4128 -0.0625 -0.4430
13379SOL    HW146100   3.540   3.437   5.899 -0.1670  0.9406  1.5121
13379SOL    HW246101   3.473   3.531   5.802 -0.0911 -2.0119 -1.6160
13380SOL     OW46102   3.144   2.110   6.594  0.7710  0.6154 -0.0433
13380SOL    HW146103   3.143   2.024   6.554 -0.1895  1.0428 -0.9738
13380SOL    HW246104   3.143   2.092   6.688 -0.1276 -0.3915 -0.2214
13381SOL     OW46105   8.904  12.408   8.957  0.4905  0.1332  0.2613
13381SOL    HW146106   8.872  12.467   9.025  0.0992  0.5162 -0.2385
13381SOL    HW246107   8.998  12.423   8.954  0.5288  0.0139  0.8091
13382SOL     OW46108   0.446   0.857   9.767  0.1237  0.1577 -0.2119
13382SOL    HW146109   0.375   0.919   9.748  1.9435  3.1866  1.9046
13382SOL    HW246110   0.419   0.814   9.848  1.1556  2.3962  1.4365
13383SOL     OW46111   0.618  10.535   4.056  0.8925  0.3817 -0.2898
13383SOL    HW146112   0.695  10.478   4.055  0.7581  0.1895  0.0216
13383SOL    HW246113   0.597  10.545   4.149  0.0542 -0.2267 -0.4071
13384SOL     OW46114   3.238   1.671  12.466  0.0033 -0.3589 -0.2152
13384SOL    HW146115   3.209   1.701  12.552 -1.2158 -2.0941  0.0145
13384SOL    HW246116   3.176   1.711  12.405  0.1021 -0.1578 -0.1881
13385SOL     OW46117   5.307   9.206   3.294 -0.0448 -0.6116 -0.3179
13385SOL    HW146118   5.273   9.129   3.340  0.4204  0.1392  1.3566
13385SOL    HW246119   5.246   9.220   3.222  1.8192 -4.7032 -3.0617
13386SOL     OW46120   6.226   6.583   6.195  0.5130  0.3165 -0.0400
13386SOL    HW146121   6.296   6.629   6.148  0.9454  2.9878  2.9261
13386SOL    HW246122   6.271   6.534   6.264 -0.4273  1.4097  1.3962
13387SOL     OW46123  10.791   8.858   3.643 -0.6150 -0.8788 -0.1759
13387SOL    HW146124  10.805   8.941   3.690 -0.1207 -0.7155 -0.6060
13387SOL    HW246125  10.878   8.820   3.635 -0.9705 -2.0324  1.0612
13388SOL     OW46126   8.020  11.752   7.169  0.8547 -0.7150 -0.2735
13388SOL    HW146127   8.033  11.766   7.076 -0.5694 -2.7437 -0.8340
13388SOL    HW246128   7.968  11.672   7.175  0.4583 -0.3611  2.2437
13389SOL     OW46129   4.766   0.186   0.493 -0.0187 -0.1900 -0.1204
13389SOL    HW146130   4.806   0.257   0.542  1.8129 -1.3727  0.1871
13389SOL    HW246131   4.672   0.205   0.496  0.3296  1.6035  0.8665
13390SOL     OW46132   0.546  12.407   0.896  0.2749 -0.3289  0.6410
13390SOL    HW146133   0.472  12.366   0.939 -0.4132  0.1134 -0.0972
13390SOL    HW246134   0.546  12.497   0.928  1.3752 -0.6872  1.7403
13391SOL     OW46135   2.351  10.565   8.238 -0.1219  0.2632  0.7489
13391SOL    HW146136   2.311  10.545   8.322 -2.0244  0.8534  0.0324
13391SOL    HW246137   2.338  10.659   8.226  1.5053  0.4890  0.4509
13392SOL     OW46138  11.556   8.163   1.687 -0.1823  0.6268  0.0296
13392SOL    HW146139  11.482   8.107   1.712  0.7805 -0.0557  1.4891
13392SOL    HW246140  11.558   8.231   1.754  1.1649 -0.0070  0.6685
13393SOL     OW46141   5.975   6.192   6.227 -0.1316  0.2403 -0.5995
13393SOL    HW146142   6.019   6.208   6.144  1.4980 -1.7359 -0.1933
13393SOL    HW246143   5.980   6.097   6.239 -0.0394  0.4962  1.8896
13394SOL     OW46144   0.340   6.428   8.329 -0.3971  0.1303  0.1555
13394SOL    HW146145   0.325   6.423   8.234  0.9827 -0.6686 -0.0373
13394SOL    HW246146   0.277   6.366   8.366 -0.8673  0.3646 -0.2422
13395SOL     OW46147  10.485   0.165  12.037  0.2008  0.0998 -0.0743
13395SOL    HW146148  10.465   0.202  11.951 -0.8323 -0.5026 -0.1104
13395SOL    HW246149  10.562   0.109  12.022 -0.2792 -0.3952 -0.7139
13396SOL     OW46150   0.530   2.293   2.133  0.0065 -0.1368  0.3780
13396SOL    HW146151   0.457   2.263   2.187 -1.6205 -1.0193 -2.1799
13396SOL    HW246152   0.576   2.213   2.108 -0.6169  0.0296 -1.3709
13397SOL     OW46153   9.245  10.482   6.349 -0.3973 -0.4832 -0.5075
13397SOL    HW146154   9.185  10.435   6.407  1.8696 -1.0612  1.5456
13397SOL    HW246155   9.332  10.453   6.376  0.8806  0.9380 -2.7682
13398SOL     OW46156   7.013   9.590   8.270 -0.4497 -0.4246 -0.5127
13398SOL    HW146157   6.926   9.628   8.257  0.3088  0.6279 -3.1495
13398SOL    HW246158   6.998   9.495   8.264 -1.5154 -0.3049 -0.0324
13399SOL     OW46159   9.293   2.390   6.520 -0.0817 -0.6355  0.1234
13399SOL    HW146160   9.341   2.438   6.452 -1.5537  0.0540 -0.4746
13399SOL    HW246161   9.333   2.303   6.522  1.6517  0.1281  0.1662
13400SOL     OW46162   7.075   8.258   8.072  0.3347  0.1435 -0.2242
13400SOL    HW146163   6.997   8.235   8.123 -0.4675  1.6628 -0.6806
13400SOL    HW246164   7.147   8.211   8.114 -0.3266  1.1177  2.1763
13401SOL     OW46165   1.679   6.307  12.041  0.3613 -0.2743  0.2882
13401SOL    HW146166   1.590   6.339  12.055  0.8681  0.7828  1.1499
13401SOL    HW246167   1.704   6.268  12.124  0.7090 -0.5689  0.0485
13402SOL     OW46168  11.687   4.803  10.256  0.0335 -0.6746  0.3481
13402SOL    HW146169  11.771   4.762  10.275  0.8194  0.9798  0.6207
13402SOL    HW246170  11.709   4.885  10.212 -1.5107 -1.0757 -1.3412
13403SOL     OW46171  10.958   1.645   5.286  0.1128 -0.5208  0.2883
13403SOL    HW146172  10.876   1.599   5.303 -1.7937  2.6197  0.3660
13403SOL    HW246173  11.014   1.622   5.360 -2.5789  1.0889  3.0771
13404SOL     OW46174   3.940   4.511   6.149 -0.8086 -0.1063  0.5062
13404SOL    HW146175   3.990   4.431   6.167  0.6332  0.7126  0.3363
13404SOL    HW246176   3.857   4.480   6.113  0.4255 -1.5174 -1.3284
13405SOL     OW46177  11.469   1.608   1.399  0.3095  0.2262  0.1545
13405SOL    HW146178  11.375   1.604   1.381  0.7970 -0.8042 -2.6775
13405SOL    HW246179  11.489   1.702   1.401 -0.9140  0.5047  2.0640
13406SOL     OW46180   5.752   2.513   7.994 -0.2838  0.1362  0.2145
13406SOL    HW146181   5.760   2.450   8.066 -1.1803  0.4846  0.6277
13406SOL    HW246182   5.753   2.459   7.915  1.3480 -0.2047  0.4240
13407SOL     OW46183   2.392   1.424   3.021  0.1558  0.4743 -0.5129
13407SOL    HW146184   2.451   1.477   2.968 -1.5360  2.3061 -0.6616
13407SOL    HW246185   2.407   1.455   3.111 -1.2419  1.6962 -0.6650
13408SOL     OW46186   4.630  10.754   5.048 -0.0782 -0.0425 -0.3773
13408SOL    HW146187   4.536  10.758   5.064  0.1510  0.0720  1.0885
13408SOL    HW246188   4.639  10.767   4.954 -1.5893 -1.2370 -0.7179
13409SOL     OW46189  11.743   7.203  11.127  0.0801  0.0530  0.6105
13409SOL    HW146190  11.707   7.122  11.090 -1.0444  0.8792 -0.1986
13409SOL    HW246191  11.773   7.179  11.214  0.4504 -1.3938  0.1106
13410SOL     OW46192   6.244   2.651   9.351  0.3469  0.3921 -0.1325
13410SOL    HW146193   6.172   2.591   9.370  0.3388  0.7128  0.9259
13410SOL    HW246194   6.323   2.598   9.359  0.2190 -0.2225 -2.3507
13411SOL     OW46195   9.505  12.305   4.793  0.0344  0.6531  0.0074
13411SOL    HW146196   9.497  12.400   4.795 -2.1860  0.6772 -2.9704
13411SOL    HW246197   9.438  12.273   4.853 -1.1623  1.0289 -1.0786
13412SOL     OW46198   1.379  12.410   3.271 -0.2527 -0.3947 -0.2865
13412SOL    HW146199   1.318  12.478   3.242 -0.1118 -0.1409  0.0144
13412SOL    HW246200   1.355  12.333   3.219 -1.2642 -0.4824  0.2850
13413SOL     OW46201   2.492   7.082   1.777 -0.1898  0.1368 -0.4024
13413SOL    HW146202   2.478   7.012   1.841  0.1262  0.0798 -0.3932
13413SOL    HW246203   2.504   7.036   1.694  1.6830  0.0643 -0.1370
13414SOL     OW46204   1.310  12.170   9.148  0.0825  0.5984 -0.1791
13414SOL    HW146205   1.303  12.265   9.141 -1.7500  0.4789 -0.6569
13414SOL    HW246206   1.347  12.142   9.064  0.6167  0.8864 -0.0398
13415SOL     OW46207  11.192  12.257   6.263 -0.0515 -0.7653  0.1222
13415SOL    HW146208  11.202  12.208   6.181 -1.7202 -0.1472 -0.4851
13415SOL    HW246209  11.131  12.204   6.315 -0.2315 -0.3746  0.3133
13416SOL     OW46210   0.690   0.597   6.722 -0.3543 -0.5003  0.7053
13416SOL    HW146211   0.714   0.510   6.692  1.7043  0.1005  0.4407
13416SOL    HW246212   0.677   0.587   6.817 -0.6653 -1.1954  0.5917
13417SOL     OW46213   6.271   4.532   1.825  0.0517  0.4757 -0.2630
13417SOL    HW146214   6.263   4.566   1.914  1.0071 -0.6372  0.2819
13417SOL    HW246215   6.215   4.589   1.772  1.0759  2.4983  0.6878
13418SOL     OW46216  12.158   8.448  11.998 -0.2215 -0.7161  1.0180
13418SOL    HW146217  12.211   8.482  12.071 -1.0572  0.1495  1.2384
13418SOL    HW246218  12.068   8.449  12.032 -0.6501 -0.0639 -0.1114
13419SOL     OW46219   5.283   0.021   9.985 -0.1970  0.1352  0.0464
13419SOL    HW146220   5.355   0.005   9.924 -0.2854  0.9794 -0.2932
13419SOL    HW246221   5.246  -0.066  10.002  0.1445 -0.1666 -0.7149
13420SOL     OW46222   3.628   6.277  12.069  0.3998 -0.3342 -0.1901
13420SOL    HW146223   3.607   6.282  12.162 -1.6219  0.7211 -0.6445
13420SOL    HW246224   3.722   6.295  12.065  0.7161 -1.3489  1.7016
13421SOL     OW46225   6.149   1.556   0.709  0.0080 -0.0616 -0.3947
13421SOL    HW146226   6.127   1.600   0.627 -1.0724  0.8338  0.3524
13421SOL    HW246227   6.135   1.622   0.777  0.4087 -0.9270  0.5705
13422SOL     OW46228  10.721  12.376   3.759  0.2150  0.1409 -0.2155
13422SOL    HW146229  10.674  12.296   3.784  0.4088  0.0837 -0.0293
13422SOL    HW246230  10.655  12.430   3.716  0.1231 -0.1890 -0.4921
13423SOL     OW46231   0.113   7.854   9.370  0.7904  0.9631  0.4895
13423SOL    HW146232   0.053   7.779   9.376 -0.1162  1.2824 -2.7417
13423SOL    HW246233   0.074   7.919   9.429  0.5058 -0.3605  1.8441
13424SOL     OW46234   9.823   3.672   3.474 -0.0079 -0.5644 -0.4670
13424SOL    HW146235   9.758   3.612   3.508  0.0935 -0.2022  0.3858
13424SOL    HW246236   9.907   3.641   3.509  0.3129 -1.1077 -1.6635
13425SOL     OW46237   6.289   2.383   5.641 -0.4575 -0.1408 -0.0834
13425SOL    HW146238   6.375   2.425   5.647 -0.6298  0.1228  0.6902
13425SOL    HW246239   6.241   2.415   5.717 -0.7152 -1.4721  0.3446
13426SOL     OW46240   4.120   6.950   3.846  0.0569 -0.2235  0.3154
13426SOL    HW146241   4.076   7.000   3.777 -0.8088  2.1490  2.4528
13426SOL    HW246242   4.202   6.997   3.861 -0.2232 -0.0844  1.5496
13427SOL     OW46243  11.457  10.409  11.209  0.4893  0.1409  0.0659
13427SOL    HW146244  11.524  10.467  11.245  1.3490 -0.3423 -0.7192
13427SOL    HW246245  11.471  10.325  11.253  0.2121  0.1048  0.0927
13428SOL     OW46246   1.791   1.412   0.294  0.0239  0.1543 -0.3732
13428SOL    HW146247   1.885   1.422   0.281 -0.3169  1.3645 -2.3569
13428SOL    HW246248   1.776   1.318   0.297  1.2159 -0.0533 -0.6954
13429SOL     OW46249   5.600   4.238  10.607  0.5362 -0.0920 -0.3774
13429SOL    HW146250   5.561   4.303  10.665 -0.4547 -1.3403  0.4050
13429SOL    HW246251   5.650   4.290  10.543 -0.7818  1.4657 -0.2168
13430SOL     OW46252   4.513   6.612   7.649  0.1956  0.7865  0.4597
13430SOL    HW146253   4.560   6.653   7.576  1.0121  0.5141  0.8144
13430SOL    HW246254   4.540   6.521   7.646 -2.0703  0.0855 -0.6778
13431SOL     OW46255   8.410   2.232   4.921 -0.4359  0.2287  0.3620
13431SOL    HW146256   8.332   2.277   4.954 -0.4258  0.2125  0.4092
13431SOL    HW246257   8.383   2.196   4.836  0.5069  3.1084 -1.2957
13432SOL     OW46258   1.866  10.584   1.822 -0.5798  0.3571 -0.4456
13432SOL    HW146259   1.794  10.522   1.826  0.4055 -0.8241 -0.4359
13432SOL    HW246260   1.868  10.615   1.732 -1.7984  1.2945 -0.1801
13433SOL     OW46261   2.590   1.602  10.763 -0.3834 -0.1737 -0.1718
13433SOL    HW146262   2.673   1.649  10.758 -0.7789  0.4904 -0.5662
13433SOL    HW246263   2.529   1.653  10.709 -0.9786 -0.8025 -0.1175
13434SOL     OW46264   7.239   7.855   7.916 -0.7375  0.0199 -0.1318
13434SOL    HW146265   7.261   7.818   8.002  0.9581  1.4759  0.1180
13434SOL    HW246266   7.143   7.854   7.914 -0.7856 -1.3624  1.1789
13435SOL     OW46267   9.049   0.883   2.945 -0.0659  0.3009 -0.7352
13435SOL    HW146268   9.007   0.833   3.015 -0.1824 -1.2708 -1.8857
13435SOL    HW246269   8.979   0.934   2.907  0.0889  1.5623  0.5724
13436SOL     OW46270   9.121   8.854   7.660 -0.3030 -0.2859 -0.0764
13436SOL    HW146271   9.182   8.860   7.586  1.4779 -0.0147  1.3693
13436SOL    HW246272   9.048   8.801   7.626 -0.1458  0.8160 -2.3955
13437SOL     OW46273   0.174   6.368   7.790  0.0662  0.2145 -0.7398
13437SOL    HW146274   0.168   6.463   7.801  1.3525  0.0955  1.5540
13437SOL    HW246275   0.266   6.352   7.770 -0.0703 -0.5814 -0.7341
13438SOL     OW46276  11.754   4.967   6.755 -0.0064  0.0298  0.2807
13438SOL    HW146277  11.787   5.049   6.793  1.3598  0.0627 -0.9266
13438SOL    HW246278  11.759   4.904   6.827  1.7929  0.2847  0.4203
13439SOL     OW46279   0.756   9.387   0.300  0.2858  0.2211 -0.2456
13439SOL    HW146280   0.825   9.347   0.355  2.1216  1.5453 -1.4688
13439SOL    HW246281   0.758   9.336   0.219  1.9453  2.0600 -1.4261
13440SOL     OW46282   8.492   8.538   9.214  0.1633  0.1403 -0.6005
13440SOL    HW146283   8.500   8.513   9.122 -0.6120  0.5104 -0.7710
13440SOL    HW246284   8.433   8.613   9.214  0.6596  0.5455  0.1406
13441SOL     OW46285  11.256   4.718  11.098  0.2100 -0.6626  0.1816
13441SOL    HW146286  11.346   4.711  11.131  0.3894 -1.4638 -0.4365
13441SOL    HW246287  11.267   4.727  11.003 -0.3447  0.0720  0.1819
13442SOL     OW46288  11.564  10.804   1.166 -0.1889  0.2528 -0.1650
13442SOL    HW146289  11.506  10.732   1.192 -1.1187  1.5147  1.4579
13442SOL    HW246290  11.645  10.789   1.215  0.2294 -0.5520 -1.0800
13443SOL     OW46291   8.582   6.715   7.940 -0.3731 -0.5111 -0.2947
13443SOL    HW146292   8.543   6.699   8.026  3.3558 -1.6249  1.4181
13443SOL    HW246293   8.616   6.804   7.946 -1.0730 -0.1760 -1.1077
13444SOL     OW46294   7.848   6.042   7.301  0.7243  0.3918  0.1517
13444SOL    HW146295   7.822   6.131   7.279  1.0806  0.5450  0.3403
13444SOL    HW246296   7.904   6.014   7.228  0.5602  0.2975  0.0610
13445SOL     OW46297   1.066   8.597  11.084  0.1104  0.0963  0.0349
13445SOL    HW146298   1.133   8.624  11.021  1.0768 -0.2238  0.8881
13445SOL    HW246299   0.987   8.587  11.032  1.1007 -1.1769 -1.3515
13446SOL     OW46300   2.032  10.741   0.750  0.3179 -0.5011  0.3846
13446SOL    HW146301   2.114  10.715   0.710  0.2336  0.4185 -0.4352
13446SOL    HW246302   1.966  10.682   0.713  0.1125  0.8485 -1.5118
13447SOL     OW46303   7.952  11.118   6.248 -0.1169 -0.3754 -0.1964
13447SOL    HW146304   7.952  11.060   6.325 -1.5865  0.4852  0.5032
13447SOL    HW246305   8.025  11.177   6.262 -0.3585 -0.2444  0.5357
13448SOL     OW46306   9.168   0.760  11.955  0.0539  0.5337 -0.0007
13448SOL    HW146307   9.159   0.670  11.987 -1.6774  0.6029 -0.2452
13448SOL    HW246308   9.215   0.805  12.026  1.4309 -0.6602 -0.1071
13449SOL     OW46309   2.919   0.749   4.102  0.0377 -0.6223 -0.3079
13449SOL    HW146310   2.976   0.771   4.177  1.6817 -1.4489 -1.2560
13449SOL    HW246311   2.923   0.654   4.096  1.5639 -0.5046 -2.5864
13450SOL     OW46312   8.260   4.928  12.283  0.2513  0.5807  0.3770
13450SOL    HW146313   8.332   4.876  12.317 -0.0140  1.2031  1.9703
13450SOL    HW246314   8.193   4.924  12.351 -1.4097 -0.3040 -1.2199
13451SOL     OW46315   0.316   6.594   6.871 -0.5502  0.4724 -0.2429
13451SOL    HW146316   0.357   6.513   6.838  1.4166  1.5240 -0.5174
13451SOL    HW246317   0.271   6.630   6.795 -0.8754 -0.0185 -0.2892
13452SOL     OW46318   8.435   0.759  11.647  0.2818  0.2589 -0.7674
13452SOL    HW146319   8.497   0.808  11.700 -1.8792 -0.2718  2.5746
13452SOL    HW246320   8.350   0.799  11.667 -0.9859 -1.8814 -1.5586
13453SOL     OW46321  10.243   5.563   8.458 -0.1958 -0.1576 -0.7311
13453SOL    HW146322  10.191   5.573   8.538 -0.9499 -1.2854 -1.0619
13453SOL    HW246323  10.209   5.631   8.399  1.5575  1.8548  0.4767
13454SOL     OW46324   8.448   4.770   3.993 -0.4580  0.3384  0.2287
13454SOL    HW146325   8.467   4.795   4.083 -0.6942 -0.3618  0.4792
13454SOL    HW246326   8.358   4.799   3.978 -0.6705 -0.1778  0.4618
13455SOL     OW46327  11.376   4.873   4.897 -0.4389  0.3184 -0.1424
13455SOL    HW146328  11.287   4.845   4.918 -1.2669  1.9036 -1.3510
13455SOL    HW246329  11.378   4.965   4.923  1.0533  0.1530  0.4015
13456SOL     OW46330   4.972  12.095   9.477  0.5403 -0.1656 -0.5736
13456SOL    HW146331   5.054  12.136   9.505  1.0961 -0.4263 -1.7790
13456SOL    HW246332   4.944  12.145   9.401 -1.0621  0.6614  0.5120
13457SOL     OW46333   1.603   3.284   8.858 -0.3345 -0.0815  0.3383
13457SOL    HW146334   1.526   3.329   8.893  0.0663  0.8799 -0.0038
13457SOL    HW246335   1.580   3.263   8.768 -0.1321  0.3623  0.1830
13458SOL     OW46336   4.062  11.691   4.031 -0.2587 -0.3254 -0.0491
13458SOL    HW146337   4.126  11.735   3.974 -0.2445 -1.2392 -0.7509
13458SOL    HW246338   4.051  11.751   4.105  2.3083 -0.6549  0.6932
13459SOL     OW46339   3.807   6.096   6.173 -0.5377 -0.5076  0.8768
13459SOL    HW146340   3.726   6.107   6.222 -0.1375  1.5312  1.1863
13459SOL    HW246341   3.870   6.063   6.237 -0.7774 -0.7420  0.9892
13460SOL     OW46342   0.604   4.853   0.800 -0.5374 -0.4583  0.2069
13460SOL    HW146343   0.530   4.873   0.744  0.3797  0.8819 -0.5896
13460SOL    HW246344   0.616   4.933   0.853  0.1131 -0.7828  0.5620
13461SOL     OW46345   4.634   6.014  12.236 -0.6340 -0.5877  0.0565
13461SOL    HW146346   4.581   6.091  12.218  0.5061  0.0417 -0.7446
13461SOL    HW246347   4.724   6.044  12.224 -0.0277 -1.4111  2.0951
13462SOL     OW46348   9.179   5.613   7.101  0.4591  0.3478  0.1953
13462SOL    HW146349   9.192   5.705   7.079  1.1090  0.2552  0.1830
13462SOL    HW246350   9.088   5.609   7.131  0.4496  1.0091  0.2860
13463SOL     OW46351   1.583  10.318   3.970 -0.6302  0.3285 -0.2201
13463SOL    HW146352   1.653  10.374   4.004 -1.0663  0.6489  0.1480
13463SOL    HW246353   1.617  10.286   3.886  0.0930  0.2242  0.1040
13464SOL     OW46354  11.279   0.977   4.521  0.3141  0.5448  1.0263
13464SOL    HW146355  11.270   1.072   4.518 -1.3422  0.3918  0.1601
13464SOL    HW246356  11.234   0.946   4.443  1.0536 -0.9486  1.1611
13465SOL     OW46357  12.037  10.119  11.049 -0.2526  0.3054  0.0230
13465SOL    HW146358  12.087  10.085  10.975 -1.9555 -0.2607 -0.9330
13465SOL    HW246359  11.995  10.198  11.014 -3.0300 -1.2634 -0.5105
13466SOL     OW46360   6.024  11.029   6.508 -0.5407 -0.5285  0.2214
13466SOL    HW146361   5.944  10.976   6.499 -1.2496  0.5833 -0.2840
13466SOL    HW246362   6.089  10.982   6.457 -0.6785 -1.7889  1.1520
13467SOL     OW46363   4.086   5.446  12.073 -0.4931 -0.5207  0.5006
13467SOL    HW146364   4.043   5.522  12.114 -0.0980 -0.4973  0.8875
13467SOL    HW246365   4.049   5.442  11.985 -0.9951 -0.2666  0.6906
13468SOL     OW46366   4.791   1.786  10.295 -0.2187  0.9805  0.1401
13468SOL    HW146367   4.839   1.732  10.232 -1.4607 -1.6995  1.3356
13468SOL    HW246368   4.828   1.761  10.380 -1.5988  1.1917  0.8203
13469SOL     OW46369   2.315   8.657   6.520  0.5292 -0.6825  0.3229
13469SOL    HW146370   2.388   8.717   6.506  0.8639 -1.2629 -0.5244
13469SOL    HW246371   2.237   8.712   6.513  0.7854 -0.4933 -1.5360
13470SOL     OW46372   3.360   7.423   4.695 -0.5235  0.8702  0.1588
13470SOL    HW146373   3.272   7.412   4.659 -1.3131 -1.3169  2.5105
13470SOL    HW246374   3.366   7.517   4.715 -2.3993  1.0169  0.1669
13471SOL     OW46375   3.524   0.582   0.892 -0.0535 -0.2150  0.1535
13471SOL    HW146376   3.431   0.602   0.884 -0.0519 -0.5700 -0.8720
13471SOL    HW246377   3.567   0.637   0.827  0.4895  0.1172  0.7745
13472SOL     OW46378   8.897   6.178   8.194  0.3670 -0.3108  0.4746
13472SOL    HW146379   8.842   6.243   8.150  1.4172  0.6610  0.5671
13472SOL    HW246380   8.880   6.096   8.147  0.0041  0.2980 -0.4848
13473SOL     OW46381   0.288   3.888   4.190  0.3092 -0.1254  0.1408
13473SOL    HW146382   0.268   3.949   4.261 -1.4546  1.0024 -1.2319
13473SOL    HW246383   0.226   3.911   4.121  1.6996 -1.4416 -1.6309
13474SOL     OW46384   0.424  11.796   0.901  0.5751  0.4732 -0.5998
13474SOL    HW146385   0.412  11.830   0.812  3.1184  2.2006 -0.3940
13474SOL    HW246386   0.432  11.875   0.955 -0.5698 -0.5485  1.1509
13475SOL     OW46387   5.251   1.877   8.871 -0.2839 -0.2975 -0.3012
13475SOL    HW146388   5.245   1.788   8.836  3.2497 -0.9863  0.3809
13475SOL    HW246389   5.214   1.933   8.802  0.4040 -2.0860 -2.2416
13476SOL     OW46390   0.233  10.191   7.843 -0.4861 -0.6441  0.4441
13476SOL    HW146391   0.137  10.194   7.847 -0.4415 -0.2496  1.5701
13476SOL    HW246392   0.261  10.272   7.884  0.3446 -0.0395 -1.2302
13477SOL     OW46393   0.604  10.902   0.654 -0.6457  0.3167  0.1103
13477SOL    HW146394   0.618  10.997   0.660  3.0371 -0.1000  0.5118
13477SOL    HW246395   0.619  10.881   0.562  1.8094 -0.1514  0.5456
13478SOL     OW46396  10.544  10.219   0.542  0.5238 -0.2207  0.4040
13478SOL    HW146397  10.573  10.133   0.572  2.5151  0.4847  0.6713
13478SOL    HW246398  10.614  10.278   0.569 -0.5059  1.3953 -0.3274
13479SOL     OW46399   7.601   7.693   1.366  0.9531 -0.5076 -0.3449
13479SOL    HW146400   7.508   7.672   1.374  0.7993  0.7611  1.9055
13479SOL    HW246401   7.643   7.607   1.354 -0.3018 -1.3618  0.9732
13480SOL     OW46402   4.941   3.241   5.372  0.0047 -0.0715  0.1619
13480SOL    HW146403   5.033   3.260   5.390 -0.3793  2.0826  0.1314
13480SOL    HW246404   4.938   3.146   5.359  2.5224 -0.0053 -1.6861
13481SOL     OW46405   2.627   0.552   2.874 -0.6330  0.4081  0.3170
13481SOL    HW146406   2.699   0.497   2.905 -1.0796 -0.7407 -0.5974
13481SOL    HW246407   2.604   0.606   2.950  0.1832 -0.2922  1.0882
13482SOL     OW46408  10.664  10.621   3.645  0.1636 -0.9063  0.3021
13482SOL    HW146409  10.570  10.640   3.643  0.3302  0.2121 -2.7539
13482SOL    HW246410  10.705  10.703   3.671  0.3700 -0.3809 -1.5322
13483SOL     OW46411   2.865   9.298   5.466 -0.2013  0.2820  0.8414
13483SOL    HW146412   2.781   9.260   5.443 -0.3569  0.7702  0.5772
13483SOL    HW246413   2.900   9.331   5.383 -0.3578  1.2614  1.1448
13484SOL     OW46414   1.516   0.617   6.485 -0.0712  0.3473  0.0271
13484SOL    HW146415   1.452   0.686   6.505  0.2315  0.6228  0.0590
13484SOL    HW246416   1.562   0.602   6.568  0.2393  0.5006 -0.1163
13485SOL     OW46417   4.741   8.877   2.057 -0.1557 -0.8240  0.3953
13485SOL    HW146418   4.739   8.823   1.978  0.0869 -0.0973 -0.1173
13485SOL    HW246419   4.779   8.960   2.028  3.0443 -1.6064  1.9131
13486SOL     OW46420   2.131   9.981  10.077 -0.3255 -0.1660  0.3888
13486SOL    HW146421   2.195  10.052  10.075 -0.1776 -0.2635  1.3498
13486SOL    HW246422   2.070  10.002  10.006  1.3130 -0.6056 -1.2412
13487SOL     OW46423   9.159   0.974   6.137  0.2216  0.4595 -0.4285
13487SOL    HW146424   9.231   0.916   6.163 -0.0986  0.0026 -0.5461
13487SOL    HW246425   9.123   0.933   6.058  0.0725  0.8897 -0.5836
13488SOL     OW46426   4.091  12.106  11.324 -0.7114  0.0397  0.4003
13488SOL    HW146427   3.997  12.088  11.320 -0.8039  0.6696 -0.7183
13488SOL    HW246428   4.099  12.185  11.376 -0.5656 -1.3429  2.6030
13489SOL     OW46429   8.439   8.671   1.152  0.0379  0.2703 -0.3669
13489SOL    HW146430   8.399   8.757   1.158  0.3593  0.4500 -0.7903
13489SOL    HW246431   8.533   8.687   1.164  0.2121  0.1020 -1.4048
13490SOL     OW46432   9.602   3.986  12.272 -0.3772 -0.1205  0.0969
13490SOL    HW146433   9.589   3.915  12.334 -2.0257 -0.2928 -0.4102
13490SOL    HW246434   9.692   3.974  12.241  0.0857 -0.6883  1.5892
13491SOL     OW46435   2.571   9.055   9.721 -0.7681  0.6999  0.0317
13491SOL    HW146436   2.547   9.147   9.725 -0.5279  0.7396  0.8667
13491SOL    HW246437   2.627   9.042   9.798 -3.2568 -0.8110  1.7560
13492SOL     OW46438   9.814   4.714   8.220  0.1136  0.0528  0.7278
13492SOL    HW146439   9.746   4.778   8.239  0.3441  0.4578  0.2081
13492SOL    HW246440   9.768   4.635   8.192 -0.1251  0.4511  0.0019
13493SOL     OW46441   1.497   7.560   0.218  0.1763  0.0115 -0.3670
13493SOL    HW146442   1.410   7.547   0.257  0.8847 -0.4286  1.1588
13493SOL    HW246443   1.536   7.472   0.219  1.6076  0.6083  1.4595
13494SOL     OW46444   5.509   7.180  11.807 -0.5791 -0.4682 -0.2713
13494SOL    HW146445   5.601   7.160  11.826 -0.8518 -0.2324  1.4990
13494SOL    HW246446   5.512   7.251  11.743  0.4874 -0.0408  0.2281
13495SOL     OW46447   2.060   4.523   3.374 -0.2200  0.0297  0.6574
13495SOL    HW146448   1.968   4.548   3.366 -0.3445 -0.5232  0.3356
13495SOL    HW246449   2.097   4.539   3.288 -0.1086 -0.1224  0.6771
13496SOL     OW46450   8.873   4.508   4.895 -0.0799  0.2317  0.1417
13496SOL    HW146451   8.800   4.450   4.875  0.2444 -0.7496  1.6981
13496SOL    HW246452   8.914   4.525   4.810 -0.7206 -1.0759 -0.4516
13497SOL     OW46453   0.507   3.380  10.224  0.5514  0.3325 -0.4518
13497SOL    HW146454   0.576   3.436  10.261  0.3077  1.0324 -1.0226
13497SOL    HW246455   0.554   3.315  10.172  0.8241  0.2909 -0.1546
13498SOL     OW46456   1.615   7.535   5.486  0.3368 -0.4732 -0.1065
13498SOL    HW146457   1.530   7.556   5.448  1.1101  1.0302 -1.1304
13498SOL    HW246458   1.643   7.456   5.441  0.0180 -0.2668 -0.6716
13499SOL     OW46459  12.024   1.927   9.142  0.1866 -0.4340 -0.1201
13499SOL    HW146460  12.046   2.017   9.118 -0.5759  0.1583  1.2953
13499SOL    HW246461  11.968   1.896   9.071 -1.4439  1.0190  0.4756
13500SOL     OW46462  12.167   3.326   0.925  0.1879  0.3709  0.2093
13500SOL    HW146463  12.171   3.378   1.005 -0.5084  1.5333 -0.4924
13500SOL    HW246464  12.246   3.272   0.928 -0.8125 -1.1427  2.6714
13501SOL     OW46465   9.173   4.932   2.444 -0.5250  0.8869 -0.2311
13501SOL    HW146466   9.144   4.904   2.357  1.1081 -0.9177 -0.2427
13501SOL    HW246467   9.232   5.005   2.427  0.7351 -0.2237 -0.7696
13502SOL     OW46468   0.624   3.374   3.444 -0.3149 -0.0046 -0.0776
13502SOL    HW146469   0.661   3.429   3.375 -0.9040 -0.9137 -1.1512
13502SOL    HW246470   0.639   3.423   3.525  2.1598  0.2193 -0.5886
13503SOL     OW46471   0.074   0.817   3.237 -0.5082  0.7248 -0.2530
13503SOL    HW146472   0.091   0.726   3.211  1.0988  1.1538 -0.7897
13503SOL    HW246473   0.004   0.810   3.303  0.8958 -1.0771  1.1664
13504SOL     OW46474   0.219  12.464   3.525 -0.2471  0.0375 -0.0432
13504SOL    HW146475   0.258  12.523   3.590  1.3845  0.3305 -1.2382
13504SOL    HW246476   0.255  12.492   3.441 -0.5301 -1.7614 -0.8231
13505SOL     OW46477   2.246   9.636  11.417 -0.2517  0.2072  0.2284
13505SOL    HW146478   2.162   9.634  11.464 -0.4963 -1.3631 -0.2223
13505SOL    HW246479   2.311   9.652  11.486 -0.9804  2.8478  0.4067
13506SOL     OW46480  10.630   3.722  10.323  0.4141 -0.2246 -0.0606
13506SOL    HW146481  10.692   3.795  10.328  2.1838 -1.7223  2.0888
13506SOL    HW246482  10.684   3.645  10.340 -1.5684 -1.9529 -1.1893
13507SOL     OW46483   7.421  12.323   7.176 -0.3745  0.7415  0.2434
13507SOL    HW146484   7.412  12.404   7.226  0.1597  0.0663  1.4548
13507SOL    HW246485   7.514  12.302   7.181 -0.4787  0.1517 -0.2444
13508SOL     OW46486   2.056  10.268   1.433 -0.1400 -0.1378  0.6233
13508SOL    HW146487   2.115  10.321   1.487  0.8045  0.2938 -0.7641
13508SOL    HW246488   2.044  10.319   1.353  1.7950 -2.4277 -1.3099
13509SOL     OW46489  11.910   4.012   6.722 -0.1555  0.1592  0.3160
13509SOL    HW146490  11.870   3.981   6.803 -1.3226  1.3853  0.2546
13509SOL    HW246491  11.935   4.103   6.740  0.2353  0.2217 -0.4725
13510SOL     OW46492   5.705   4.491   1.497 -0.1160  0.0994  0.8001
13510SOL    HW146493   5.773   4.499   1.429  1.2564 -0.1045  2.1050
13510SOL    HW246494   5.664   4.406   1.480  0.1892  0.0654  0.2104
13511SOL     OW46495   4.762   6.857   0.328  0.2150  0.5941  0.2738
13511SOL    HW146496   4.791   6.833   0.416  1.5984 -1.8435 -0.7277
13511SOL    HW246497   4.826   6.922   0.299  0.5449  0.4247  0.6029
13512SOL     OW46498  11.938  11.016   6.939  0.1836  0.1706  0.0755
13512SOL    HW146499  11.942  11.077   6.866 -0.4044 -0.8957 -0.8792
13512SOL    HW246500  12.027  10.982   6.947  0.4216  0.8409  0.3569
13513SOL     OW46501   9.794   8.127   4.784  0.1729 -0.3292  0.5230
13513SOL    HW146502   9.710   8.158   4.750 -0.8297 -1.9578  1.4146
13513SOL    HW246503   9.855   8.140   4.711 -1.3200 -1.1851 -0.9437
13514SOL     OW46504   3.686   7.394   1.628  0.3438  0.3006  0.0660
13514SOL    HW146505   3.688   7.450   1.550  1.5033 -0.5166 -0.5136
13514SOL    HW246506   3.711   7.452   1.699  2.1605  0.4303 -0.6239
13515SOL     OW46507   1.187   8.598   6.435 -0.4543  0.3438  0.3270
13515SOL    HW146508   1.119   8.577   6.371  0.4287 -0.2597 -0.4473
13515SOL    HW246509   1.139   8.617   6.515 -1.6939  2.5660 -0.8361
13516SOL     OW46510   1.162  11.926   2.680  0.0303  0.6938  0.1392
13516SOL    HW146511   1.200  11.839   2.694 -1.8099 -0.0976  0.4839
13516SOL    HW246512   1.132  11.925   2.589  0.4065  1.1367  0.0078
13517SOL     OW46513   2.952   2.526   9.843  0.1933  0.0711 -0.5432
13517SOL    HW146514   2.945   2.616   9.813  2.0624  0.1324 -0.8542
13517SOL    HW246515   2.900   2.524   9.924  2.1757  2.1030  0.8840
13518SOL     OW46516   6.055  11.534   5.706 -0.1053 -0.1962  0.0178
13518SOL    HW146517   6.041  11.527   5.611  2.6396  0.9965 -0.5910
13518SOL    HW246518   6.144  11.500   5.719 -0.7908 -1.2561  2.3491
13519SOL     OW46519   3.013  11.931   6.076 -0.0366 -0.2133  0.3871
13519SOL    HW146520   2.983  12.014   6.114  0.6984 -0.0470  0.6127
13519SOL    HW246521   3.070  11.957   6.004 -1.9277 -0.5152 -1.3184
13520SOL     OW46522  10.211   7.177   0.726  0.0545 -0.5597  0.2017
13520SOL    HW146523  10.177   7.144   0.643  0.6817 -0.0185 -0.2808
13520SOL    HW246524  10.143   7.234   0.760  0.2163  0.0347 -0.4539
13521SOL     OW46525   9.226   4.387   3.176  0.2802  0.1841 -0.0706
13521SOL    HW146526   9.213   4.474   3.214 -1.2561  0.3881 -0.9960
13521SOL    HW246527   9.260   4.403   3.089 -4.4857  0.2415 -2.2241
13522SOL     OW46528   1.747   1.140  12.131 -0.2615 -0.1986  0.0191
13522SOL    HW146529   1.778   1.071  12.072  0.6578 -1.1740  1.6040
13522SOL    HW246530   1.707   1.204  12.072 -0.9367 -1.9387 -1.5316
13523SOL     OW46531   3.392   7.185   0.665 -0.1220  0.0381 -0.2901
13523SOL    HW146532   3.488   7.182   0.665 -0.0175 -2.8407  2.4955
13523SOL    HW246533   3.369   7.234   0.743 -0.8793 -0.5093 -0.1573
13524SOL     OW46534   6.917   4.232   1.365  0.3815  0.0044  0.0543
13524SOL    HW146535   6.860   4.268   1.433 -0.4489  0.1722 -0.7242
13524SOL    HW246536   6.966   4.162   1.409  1.1390  1.2473  1.2770
13525SOL     OW46537   7.178   2.271  11.605  0.1201  0.2375 -0.0279
13525SOL    HW146538   7.146   2.234  11.523 -0.2482 -1.9942  1.0625
13525SOL    HW246539   7.270   2.247  11.608  0.1937  0.5339  0.1161
13526SOL     OW46540  10.359   8.869   7.734  0.0633 -0.0367  0.7706
13526SOL    HW146541  10.400   8.903   7.814 -0.5953 -0.2675  1.2112
13526SOL    HW246542  10.278   8.828   7.764  0.0974 -0.6451  0.0551
13527SOL     OW46543  10.167   6.725  11.037 -0.3252 -0.3431  0.2994
13527SOL    HW146544  10.170   6.634  11.068 -1.2642 -0.3921  0.2853
13527SOL    HW246545  10.153   6.776  11.117  1.7281 -0.0418  0.5244
13528SOL     OW46546   7.901   8.500  11.463 -0.1881 -0.0231  0.2015
13528SOL    HW146547   7.986   8.545  11.466 -0.9214  1.3580  1.9790
13528SOL    HW246548   7.921   8.415  11.422  1.5898  1.1500 -1.5639
13529SOL     OW46549   8.586  11.146   1.639 -0.4471  0.1330  0.0098
13529SOL    HW146550   8.598  11.197   1.558 -1.7894 -1.7895 -1.5000
13529SOL    HW246551   8.491  11.144   1.651 -0.4835 -2.3967 -0.2963
13530SOL     OW46552   2.485   5.141   5.123 -0.2443 -0.2603 -0.0288
13530SOL    HW146553   2.463   5.060   5.169 -0.6367  0.2392  0.6954
13530SOL    HW246554   2.405   5.163   5.075 -0.4198  0.1173  0.4253
13531SOL     OW46555   5.649   5.809   6.243  0.1953 -0.4314  0.2089
13531SOL    HW146556   5.554   5.803   6.246  0.2381 -1.1545  0.1275
13531SOL    HW246557   5.667   5.857   6.162 -0.0877 -0.6343  0.0227
13532SOL     OW46558   6.172   6.592   2.899  0.0050 -0.5884 -0.2231
13532SOL    HW146559   6.127   6.624   2.821 -0.5746 -3.5982 -1.2860
13532SOL    HW246560   6.264   6.616   2.885 -0.2679 -0.1056 -1.2948
13533SOL     OW46561   5.861   1.133   7.000 -0.4356 -0.5185  0.0044
13533SOL    HW146562   5.932   1.191   7.027  0.1398 -0.5619 -1.3171
13533SOL    HW246563   5.782   1.185   7.010 -0.0444  0.0902 -0.0335
13534SOL     OW46564   2.603   3.572   9.013 -0.0486  0.0996 -1.0202
13534SOL    HW146565   2.631   3.572   8.922 -0.8840 -1.5174 -1.3016
13534SOL    HW246566   2.508   3.558   9.010  0.2693 -2.9361  0.1341
13535SOL     OW46567   2.803   8.549   3.468 -0.1087  0.3757  0.1690
13535SOL    HW146568   2.892   8.523   3.442  0.0325  1.3555 -0.3594
13535SOL    HW246569   2.786   8.499   3.548  0.4719 -0.6896 -0.3484
13536SOL     OW46570   7.033   4.884   6.831  0.4905 -0.8491  0.1013
13536SOL    HW146571   7.014   4.961   6.885 -0.7133 -0.5718 -0.6966
13536SOL    HW246572   7.027   4.915   6.741  2.1917 -1.3796 -0.2292
13537SOL     OW46573  10.995  11.208   2.311  0.3210 -0.7054  0.0178
13537SOL    HW146574  10.987  11.251   2.396 -0.0996 -1.0579  0.1594
13537SOL    HW246575  11.084  11.229   2.282  0.3899 -0.3981  0.4391
13538SOL     OW46576   0.220   0.467   9.341  0.0424  0.4077 -0.3114
13538SOL    HW146577   0.140   0.424   9.372 -0.0082  1.7861  1.6524
13538SOL    HW246578   0.291   0.416   9.379  0.1207 -0.2549 -1.2889
13539SOL     OW46579   4.290   0.090   4.195 -0.0635 -0.0856  0.2628
13539SOL    HW146580   4.207   0.117   4.235  0.0263  0.9432 -0.2206
13539SOL    HW246581   4.285  -0.006   4.193  0.4343 -0.3238  3.8096
13540SOL     OW46582   9.682   1.420   3.313 -0.2101  0.3637 -0.0582
13540SOL    HW146583   9.593   1.436   3.343 -0.7675 -1.2953 -0.7434
13540SOL    HW246584   9.711   1.505   3.280 -1.2705  1.0855  0.7966
13541SOL     OW46585   3.050   9.816  11.300 -0.2507 -0.6283 -0.1329
13541SOL    HW146586   3.121   9.865  11.340 -0.0591 -0.5893 -0.5122
13541SOL    HW246587   2.985   9.806  11.369 -1.5012  2.4523 -0.7014
13542SOL     OW46588   1.222   4.826   7.779  0.3841 -0.0888  0.5717
13542SOL    HW146589   1.300   4.882   7.787 -0.1047  0.6954  0.0034
13542SOL    HW246590   1.193   4.813   7.869  0.6747  0.3526  0.7327
13543SOL     OW46591   8.286   7.308   6.022  0.1687 -0.7251  0.0093
13543SOL    HW146592   8.271   7.215   6.008 -0.8189 -0.5579 -0.1033
13543SOL    HW246593   8.302   7.316   6.116 -0.7191 -0.8920  0.1835
13544SOL     OW46594   5.979   2.694  10.248 -0.0291  0.0500  0.7489
13544SOL    HW146595   5.947   2.605  10.264  0.3833 -0.2923 -0.2541
13544SOL    HW246596   6.074   2.687  10.255  0.2446 -0.2593 -2.2356
13545SOL     OW46597   8.650   3.201   7.012  0.2750 -0.6375 -0.7555
13545SOL    HW146598   8.691   3.203   7.099 -0.4627 -1.7586 -0.3665
13545SOL    HW246599   8.572   3.255   7.022  0.7838  0.1799 -1.0585
13546SOL     OW46600  11.246   1.185   5.913  0.0848 -0.3588  0.4989
13546SOL    HW146601  11.321   1.243   5.926 -0.1891  0.0755  0.1583
13546SOL    HW246602  11.272   1.103   5.955  0.5860 -0.0810  0.7408
13547SOL     OW46603  10.752   7.435   1.289  0.5651  0.0059 -0.3348
13547SOL    HW146604  10.729   7.358   1.341  2.2825 -0.6952 -0.5476
13547SOL    HW246605  10.763   7.505   1.352  2.0054 -0.6845  0.2138
13548SOL     OW46606   7.337   2.315   3.322 -0.1744  0.1417 -0.5356
13548SOL    HW146607   7.322   2.226   3.353  0.9775  0.5261  1.2676
13548SOL    HW246608   7.382   2.305   3.238 -1.3143 -0.9416 -1.0453
13549SOL     OW46609   6.423  11.276   2.729  0.1399 -0.3282 -0.0000
13549SOL    HW146610   6.455  11.336   2.796  1.7705 -2.5695  1.3780
13549SOL    HW246611   6.330  11.263   2.751  0.3030  0.0459  0.9737
13550SOL     OW46612   6.777   5.441   1.524 -0.5042  0.2543 -0.0383
13550SOL    HW146613   6.819   5.504   1.583 -0.9725 -0.4871  1.1241
13550SOL    HW246614   6.721   5.495   1.468 -1.8758  0.8253  1.7663
13551SOL     OW46615   5.685  10.372   2.844  0.0315  0.2673  0.0089
13551SOL    HW146616   5.597  10.337   2.851 -0.0176  0.4249  0.1963
13551SOL    HW246617   5.685  10.423   2.763  0.0056  0.1104 -0.0889
13552SOL     OW46618   3.529   1.099   4.548  0.0780  0.3740 -0.6625
13552SOL    HW146619   3.472   1.171   4.576 -3.0486 -1.9521 -0.4836
13552SOL    HW246620   3.587   1.083   4.622  2.4300  3.9121 -1.4620
13553SOL     OW46621   1.906   5.609   3.204 -0.6837 -0.4900  0.7792
13553SOL    HW146622   1.983   5.666   3.198 -0.2776 -1.1628 -0.8999
13553SOL    HW246623   1.873   5.623   3.293 -0.4512  2.1490  0.5400
13554SOL     OW46624   3.501   6.966   3.303 -0.3282  0.0109  0.0671
13554SOL    HW146625   3.515   6.937   3.393  0.0421 -0.8637 -0.2603
13554SOL    HW246626   3.505   6.886   3.251 -0.2442  0.5422 -0.7639
13555SOL     OW46627   1.851   3.808   9.750  0.3556  0.0065 -0.5309
13555SOL    HW146628   1.943   3.797   9.723  0.0513 -0.9085 -1.2582
13555SOL    HW246629   1.854   3.810   9.846  1.3991  2.6677 -0.5425
13556SOL     OW46630  10.230   9.746   8.174  0.3302  0.6803  0.0240
13556SOL    HW146631  10.214   9.666   8.223  1.4538 -0.5744 -1.5575
13556SOL    HW246632  10.233   9.718   8.082  0.0848  2.6488 -0.6392
13557SOL     OW46633   7.690   7.284   0.788  0.2073 -0.2485 -0.3550
13557SOL    HW146634   7.635   7.207   0.799  0.0746 -0.4004 -1.8898
13557SOL    HW246635   7.740   7.267   0.708  0.8346  0.8706 -0.2247
13558SOL     OW46636   8.270   9.226  11.884 -0.1070 -0.1151 -0.4360
13558SOL    HW146637   8.355   9.193  11.855 -1.0021 -3.1273  0.0268
13558SOL    HW246638   8.264   9.201  11.976 -0.2180  3.0385  0.5340
13559SOL     OW46639  11.469   0.068   8.389  0.0985 -0.1797  0.2632
13559SOL    HW146640  11.487   0.048   8.481  1.1507  1.9247  0.5891
13559SOL    HW246641  11.494   0.160   8.380 -2.3336  0.4007 -1.5329
13560SOL     OW46642  10.923   6.932   5.222  0.5710  0.9821 -0.9578
13560SOL    HW146643  10.901   7.017   5.183 -1.0684  0.8910 -0.2908
13560SOL    HW246644  10.891   6.867   5.160 -2.4240  0.8308  0.5988
13561SOL     OW46645   1.778  12.417   0.080 -0.8332  0.4911 -0.2829
13561SOL    HW146646   1.698  12.382   0.119 -1.4917  0.6846 -1.4394
13561SOL    HW246647   1.765  12.409  -0.014  1.7511 -2.2750 -0.5636
13562SOL     OW46648  11.096   4.213   5.973 -0.3932  0.1051  0.3207
13562SOL    HW146649  11.165   4.148   5.959 -0.3225 -0.0972  1.4771
13562SOL    HW246650  11.058   4.227   5.886  1.0809  0.2092 -0.3413
13563SOL     OW46651  11.576  10.888  11.250  0.1606  0.3530  0.0883
13563SOL    HW146652  11.663  10.914  11.281 -0.2791  0.0547  1.6665
13563SOL    HW246653  11.519  10.962  11.271 -0.2096  0.0223  0.2662
13564SOL     OW46654   2.857   2.621   4.648 -0.1796 -0.2938 -0.1171
13564SOL    HW146655   2.862   2.671   4.729  0.9911 -1.6970  0.7151
13564SOL    HW246656   2.771   2.579   4.651 -1.7158  2.4738 -1.3994
13565SOL     OW46657   2.999   5.831   5.688 -0.0017  0.6127 -0.7481
13565SOL    HW146658   2.959   5.777   5.620 -0.3384  0.5986 -0.5411
13565SOL    HW246659   3.059   5.889   5.641 -1.5928  1.8875 -1.2663
13566SOL     OW46660   5.229   8.809   4.121 -0.0415  0.1283  0.1497
13566SOL    HW146661   5.167   8.769   4.182 -1.2625  2.3399  0.4618
13566SOL    HW246662   5.271   8.879   4.172  0.6583  0.4877 -0.8744
13567SOL     OW46663   3.316   8.779   1.200  0.4331 -0.5349 -0.4405
13567SOL    HW146664   3.299   8.831   1.121  2.3154 -0.7998 -1.0660
13567SOL    HW246665   3.363   8.839   1.258 -0.2477 -0.5865  0.1769
13568SOL     OW46666   2.093   1.492   7.417  0.2960 -0.8084  0.2519
13568SOL    HW146667   2.101   1.452   7.330  0.0050 -1.5409  0.5580
13568SOL    HW246668   2.151   1.568   7.413  1.4392 -1.6702 -0.0974
13569SOL     OW46669   6.824   5.410  10.374 -0.3270 -0.0244 -0.4442
13569SOL    HW146670   6.826   5.491  10.323  0.4495  1.3477  1.6374
13569SOL    HW246671   6.743   5.416  10.425 -0.1451 -0.4693 -0.0999
13570SOL     OW46672   6.076   8.093   8.117  0.2482 -0.3194  0.0986
13570SOL    HW146673   5.987   8.072   8.087 -0.1205  2.0196 -0.6174
13570SOL    HW246674   6.102   8.016   8.168 -2.2571 -0.9880  0.5205
13571SOL     OW46675  10.881  11.540   8.129  0.4660  0.9946  0.3456
13571SOL    HW146676  10.836  11.517   8.210  2.2669  1.9981  1.7014
13571SOL    HW246677  10.914  11.457   8.095 -0.0028  0.6032  0.8371
13572SOL     OW46678   8.771   5.688   6.359  0.0046 -0.1563 -0.3864
13572SOL    HW146679   8.775   5.597   6.329  1.7268 -0.5377  0.7856
13572SOL    HW246680   8.691   5.723   6.321 -0.0094 -1.7580 -1.9867
13573SOL     OW46681   1.357   0.555   3.244 -0.3398 -0.1371  0.1385
13573SOL    HW146682   1.420   0.587   3.308 -0.8381 -1.4109  1.3093
13573SOL    HW246683   1.411   0.518   3.174  0.2110  0.5941  0.1684
13574SOL     OW46684   1.928  11.208   6.677 -0.4077 -0.1104  0.5367
13574SOL    HW146685   1.897  11.122   6.705  0.0368 -0.5877 -0.3811
13574SOL    HW246686   1.855  11.267   6.695 -0.4604 -0.5385  1.8347
13575SOL     OW46687   3.366   9.440   8.987 -0.0040  0.0483 -0.2848
13575SOL    HW146688   3.289   9.416   8.936  0.3850  2.2569 -2.0410
13575SOL    HW246689   3.393   9.358   9.028 -3.1497 -0.8257  0.2896
13576SOL     OW46690   9.154   3.646   7.852  0.2816  0.4408  0.4807
13576SOL    HW146691   9.092   3.690   7.910  0.9669 -1.2091  2.6302
13576SOL    HW246692   9.240   3.679   7.881  0.6021  0.0764 -0.0423
13577SOL     OW46693  12.100   9.054   6.761  0.0447 -0.0555  0.2478
13577SOL    HW146694  12.158   9.050   6.685 -1.5656 -0.0030 -1.0360
13577SOL    HW246695  12.152   9.016   6.833  0.4877 -3.2734 -1.5784
13578SOL     OW46696   5.827   9.301   8.027  0.2131  0.3196 -0.0459
13578SOL    HW146697   5.895   9.342   7.974  0.6843  0.0665  0.3551
13578SOL    HW246698   5.810   9.363   8.098 -0.9022  0.9685 -0.8462
13579SOL     OW46699   4.727   5.983   4.442 -0.0458 -0.3127  0.2214
13579SOL    HW146700   4.765   5.917   4.499  0.0557  0.8000  1.5071
13579SOL    HW246701   4.633   5.967   4.447 -0.2300  0.9496  2.3520
13580SOL     OW46702   4.459   9.490   7.792  0.2987  0.1471  0.6132
13580SOL    HW146703   4.407   9.421   7.832  0.8469 -0.7738 -0.1998
13580SOL    HW246704   4.422   9.501   7.704  0.9860 -0.0074  0.2904
13581SOL     OW46705  11.370   9.228   5.686  0.3149 -0.5120  0.1252
13581SOL    HW146706  11.441   9.164   5.694 -0.6065 -1.6317 -0.3627
13581SOL    HW246707  11.346   9.226   5.593  0.1379  0.4044  0.1415
13582SOL     OW46708   0.831   6.601   9.682  0.5738 -0.2025 -0.4301
13582SOL    HW146709   0.853   6.608   9.775  2.2849 -1.7958 -0.6486
13582SOL    HW246710   0.736   6.598   9.680  0.5150 -0.5154  1.3087
13583SOL     OW46711   3.123   1.041   1.945 -0.0730 -0.3272  0.1635
13583SOL    HW146712   3.121   0.982   1.869  0.7570  0.2047 -0.2846
13583SOL    HW246713   3.188   1.107   1.922  1.1975 -0.9093  1.9075
13584SOL     OW46714   4.638  11.540   5.039  0.3885 -0.1990 -0.1618
13584SOL    HW146715   4.674  11.628   5.043  0.6174 -0.2639 -0.7200
13584SOL    HW246716   4.703  11.485   5.083  0.5709 -0.1899 -0.4176
13585SOL     OW46717  11.246   2.598   1.144 -0.1217 -0.0629  0.0702
13585SOL    HW146718  11.191   2.520   1.142  1.7845 -1.5038  0.6972
13585SOL    HW246719  11.257   2.617   1.237 -0.0401  0.5815 -0.0652
13586SOL     OW46720  11.631   3.236   8.440  0.4027  0.3232  0.0993
13586SOL    HW146721  11.582   3.188   8.507  0.5573  0.6822  0.4718
13586SOL    HW246722  11.587   3.321   8.435  1.1247  0.7389  0.6112
13587SOL     OW46723   1.162   6.888   8.535  0.2532  1.0001  0.1675
13587SOL    HW146724   1.074   6.852   8.533  0.2340  0.7156  2.6490
13587SOL    HW246725   1.168   6.944   8.458 -2.6703  2.3429  0.8175
13588SOL     OW46726   4.944   6.981  11.425 -0.2122  0.1360  0.3600
13588SOL    HW146727   4.891   6.928  11.484 -0.8786 -1.2895 -1.4469
13588SOL    HW246728   4.931   7.071  11.456 -0.6534 -0.5246  2.2516
13589SOL     OW46729   3.576   4.558   1.358  0.3044 -0.1272 -0.1169
13589SOL    HW146730   3.594   4.634   1.302  0.5804 -1.0473 -1.3204
13589SOL    HW246731   3.659   4.511   1.361  0.7693  0.7226  2.4327
13590SOL     OW46732   3.669   4.015   1.899 -0.2934 -0.1477 -0.8180
13590SOL    HW146733   3.621   4.087   1.940  0.1174 -0.8425  0.9434
13590SOL    HW246734   3.759   4.048   1.891 -0.1546 -0.3659 -0.2161
13591SOL     OW46735  10.847  12.224  11.554 -0.2179 -0.7017 -0.1195
13591SOL    HW146736  10.833  12.216  11.460  0.5564 -0.9635 -0.2154
13591SOL    HW246737  10.811  12.143  11.590 -0.6253 -0.5478 -0.1704
13592SOL     OW46738  11.273   6.920   0.035 -0.0402 -0.1352  0.2890
13592SOL    HW146739  11.309   6.832   0.047  2.1269 -0.0821 -3.9770
13592SOL    HW246740  11.350   6.978   0.039 -0.7193  0.9610 -1.5253
13593SOL     OW46741   3.730  10.640   4.200 -0.5826  0.1139  0.5063
13593SOL    HW146742   3.678  10.703   4.250 -1.0938  0.0907  0.0180
13593SOL    HW246743   3.670  10.566   4.185 -0.3745  0.0316  0.0528
13594SOL     OW46744   3.453  10.325  10.052  0.3859  0.0062 -0.1343
13594SOL    HW146745   3.463  10.406  10.001  0.8654  0.4263  0.6141
13594SOL    HW246746   3.474  10.255   9.990  2.3250  0.5749 -0.1846
13595SOL     OW46747   3.279   8.295   4.918  0.2799 -0.3501 -0.2179
13595SOL    HW146748   3.349   8.343   4.964 -0.1174 -0.3324  0.3860
13595SOL    HW246749   3.294   8.203   4.940  0.4851 -0.4112 -0.6066
13596SOL     OW46750   1.468  10.088  11.872 -0.0119  1.1955  0.3458
13596SOL    HW146751   1.375  10.107  11.880 -0.0684  0.6845  0.9458
13596SOL    HW246752   1.503  10.098  11.961 -0.2539 -2.4534  0.9910
13597SOL     OW46753   3.622   1.140   1.371 -0.5597 -0.0147 -0.8568
13597SOL    HW146754   3.551   1.204   1.376 -2.0266 -1.6619  1.0029
13597SOL    HW246755   3.578   1.055   1.378  1.6105 -1.0854  0.9646
13598SOL     OW46756  11.045   1.256  11.453 -0.1948 -0.0211 -0.3346
13598SOL    HW146757  11.021   1.212  11.372  1.2511 -0.2654 -0.6481
13598SOL    HW246758  10.981   1.327  11.461 -3.6049 -2.9038  0.9617
13599SOL     OW46759   3.329   1.575   2.099  0.6532 -0.2753 -0.1832
13599SOL    HW146760   3.420   1.584   2.072  1.1215  1.8160  1.7289
13599SOL    HW246761   3.309   1.658   2.144 -1.8431 -1.1094  0.4322
13600SOL     OW46762   1.859   4.253   1.887  0.0564  0.1194 -0.3717
13600SOL    HW146763   1.835   4.244   1.979 -1.3560  0.9158 -0.6367
13600SOL    HW246764   1.911   4.334   1.884  0.7006 -0.2747 -0.1902
13601SOL     OW46765  12.240  11.307  10.976  0.0475  0.4983 -0.3039
13601SOL    HW146766  12.314  11.315  10.916 -0.8343 -0.7141 -1.6232
13601SOL    HW246767  12.256  11.225  11.023 -0.8895 -0.2986 -1.3012
13602SOL     OW46768  10.577   9.867  11.845 -0.2232  0.2555  0.1959
13602SOL    HW146769  10.523   9.853  11.768  0.6840 -0.4025 -0.3417
13602SOL    HW246770  10.525   9.924  11.901 -1.1087  0.3242 -0.6744
13603SOL     OW46771  12.061   4.620   5.698  0.0749  0.1011 -0.5629
13603SOL    HW146772  12.132   4.578   5.746 -1.1553 -1.0846  0.3299
13603SOL    HW246773  11.983   4.569   5.723 -1.2013  1.8113 -0.8977
13604SOL     OW46774   5.370   6.438   5.053 -0.2609 -0.0146 -0.2677
13604SOL    HW146775   5.370   6.344   5.066 -0.2470 -0.2977 -2.0737
13604SOL    HW246776   5.367   6.450   4.958  0.8564  1.8022 -0.1363
13605SOL     OW46777   8.567   5.515   6.257  0.2280  0.7825  0.0612
13605SOL    HW146778   8.519   5.434   6.242  0.2850  0.8496 -0.5081
13605SOL    HW246779   8.531   5.549   6.340  2.0476 -1.1342  1.7473
13606SOL     OW46780   5.917   8.419  12.222 -0.3703 -0.3285  0.5956
13606SOL    HW146781   5.866   8.435  12.301 -2.3290 -0.2502 -0.6387
13606SOL    HW246782   5.893   8.490  12.162 -0.8147 -1.7113 -0.9472
13607SOL     OW46783   3.219  11.292  12.279  0.0660 -0.6249  0.0652
13607SOL    HW146784   3.216  11.218  12.218  0.7578 -0.7804  0.2165
13607SOL    HW246785   3.229  11.252  12.365  0.1938 -0.3683  0.1712
13608SOL     OW46786  10.686   2.764   3.392 -0.0823 -0.0228 -0.5606
13608SOL    HW146787  10.682   2.778   3.297 -0.6337 -0.0687 -0.5485
13608SOL    HW246788  10.654   2.846   3.429  2.2779  0.8719 -0.3467
13609SOL     OW46789   8.470  10.161  12.418  0.0490 -0.1091 -0.0501
13609SOL    HW146790   8.518  10.103  12.477  0.5497  1.4754  1.1654
13609SOL    HW246791   8.378  10.147  12.440  0.2512  0.9536  1.6552
13610SOL     OW46792  10.054   0.347   4.583  0.4087  0.2029 -0.4167
13610SOL    HW146793  10.129   0.403   4.602 -0.2375  0.5289  1.3090
13610SOL    HW246794   9.979   0.407   4.582  0.1970  0.0353 -2.9870
13611SOL     OW46795   7.760   6.039  12.361 -0.0653 -0.0521 -0.1393
13611SOL    HW146796   7.699   5.991  12.417  0.8559  0.0249  0.9645
13611SOL    HW246797   7.784   5.977  12.293  1.8925 -1.6131  1.8241
13612SOL     OW46798   0.996   9.043   9.153  0.2465 -0.3005  0.0457
13612SOL    HW146799   1.011   8.995   9.235 -0.7046  0.0106  0.4221
13612SOL    HW246800   1.075   9.029   9.102  0.4129 -1.4017  0.5809
13613SOL     OW46801   7.890  12.452   2.268 -0.5679 -0.1142  0.0008
13613SOL    HW146802   7.982  12.477   2.271  0.4858 -3.3624 -0.7282
13613SOL    HW246803   7.877  12.400   2.347 -1.4588 -0.5869 -0.4428
13614SOL     OW46804   8.071   9.741   1.893  0.3000  0.2528 -0.0392
13614SOL    HW146805   8.134   9.668   1.889 -0.1143 -0.2305  1.5653
13614SOL    HW246806   8.073   9.778   1.805  3.5663  0.8774  0.1533
13615SOL     OW46807  11.316   3.884  11.578 -0.5148  0.1203  0.1251
13615SOL    HW146808  11.324   3.964  11.629  0.8467 -0.3907  0.7677
13615SOL    HW246809  11.406   3.854  11.566 -0.7143  0.4184 -2.9595
13616SOL     OW46810   4.788   0.418   6.312 -0.1606  0.2620 -0.0797
13616SOL    HW146811   4.763   0.330   6.336 -0.4313 -0.2015 -1.9077
13616SOL    HW246812   4.864   0.406   6.253 -0.2649  1.2227 -0.4314
13617SOL     OW46813  11.662   5.225   5.381  0.4198  0.2895  0.9590
13617SOL    HW146814  11.704   5.283   5.317 -1.8407  0.0398 -0.8702
13617SOL    HW246815  11.698   5.138   5.362 -0.0301  0.2641  0.1620
13618SOL     OW46816   9.070   3.023   1.628 -0.1597  0.7380  0.1626
13618SOL    HW146817   9.123   3.077   1.569 -2.0875  2.5632 -0.0606
13618SOL    HW246818   9.028   2.959   1.570 -0.4565  1.2009 -0.1456
13619SOL     OW46819   4.322   9.504   1.591 -0.1658 -0.1212  0.1208
13619SOL    HW146820   4.335   9.456   1.509  0.3605  0.8975 -0.4010
13619SOL    HW246821   4.383   9.577   1.587  0.4444 -0.4784  1.7746
13620SOL     OW46822  11.268   2.518   6.919  0.2850 -0.0113 -0.0792
13620SOL    HW146823  11.216   2.539   6.841  0.2683  0.3888  0.0373
13620SOL    HW246824  11.348   2.479   6.885 -0.4044 -1.3388 -0.2402
13621SOL     OW46825   3.799   7.179  12.124  0.5820  0.2175 -0.1587
13621SOL    HW146826   3.744   7.132  12.186  1.5810 -2.8186 -1.4037
13621SOL    HW246827   3.841   7.248  12.177 -1.1067 -0.1243  1.7258
13622SOL     OW46828   4.482   1.920   9.768  0.1744 -0.4127 -0.3679
13622SOL    HW146829   4.410   1.982   9.773  0.2586 -0.2479 -1.2037
13622SOL    HW246830   4.450   1.849   9.712  0.4396 -0.6417 -0.2373
13623SOL     OW46831   6.193   8.629  11.908 -0.8375  0.4143 -0.2557
13623SOL    HW146832   6.139   8.599  11.981 -0.0302  3.0959  1.5688
13623SOL    HW246833   6.282   8.603  11.932 -0.7054  0.2238 -0.9226
13624SOL     OW46834   2.152   8.957   5.566  0.3501  0.2695 -0.9489
13624SOL    HW146835   2.226   9.010   5.596  0.7775 -0.8059 -0.0021
13624SOL    HW246836   2.077   8.994   5.612  0.7853 -0.4622  0.4299
13625SOL     OW46837  12.021   9.903   7.854  0.5877  0.1147  0.3287
13625SOL    HW146838  11.972   9.821   7.847  1.6437 -0.6281  1.3447
13625SOL    HW246839  11.999   9.938   7.940  2.7957 -0.9374  1.4251
13626SOL     OW46840   7.575   4.676   0.829 -0.3918  0.5842  0.2123
13626SOL    HW146841   7.638   4.654   0.760  0.3513  0.2908  0.9657
13626SOL    HW246842   7.494   4.635   0.800 -0.0576  0.3422 -0.4226
13627SOL     OW46843   7.360  12.102   0.185  0.7653 -0.1404 -0.2371
13627SOL    HW146844   7.414  12.091   0.107  0.9902  0.1530 -0.1268
13627SOL    HW246845   7.295  12.032   0.180  0.3050  0.3166 -1.0801
13628SOL     OW46846   9.274   6.095   9.199 -0.2088  0.5911 -0.3579
13628SOL    HW146847   9.286   6.178   9.153 -2.1458  0.8970 -0.4233
13628SOL    HW246848   9.270   6.119   9.291 -0.6207  0.5595 -0.3656
13629SOL     OW46849   3.212  11.423   7.051 -0.3295 -0.0965 -0.1661
13629SOL    HW146850   3.152  11.484   7.094 -1.6285 -1.3324 -0.1763
13629SOL    HW246851   3.265  11.479   6.994  2.0019  1.7664  3.4142
13630SOL     OW46852   1.169   5.889   8.088  0.1352  0.1079  0.4166
13630SOL    HW146853   1.239   5.855   8.033 -1.5330 -0.0197 -1.7713
13630SOL    HW246854   1.124   5.810   8.120  1.2034  0.1742  2.2114
13631SOL     OW46855   1.271  12.037   7.433  0.4706  0.0981 -0.0742
13631SOL    HW146856   1.300  12.101   7.498 -2.7046  1.0219  0.6002
13631SOL    HW246857   1.217  11.975   7.482  0.5862 -1.0609 -1.3369
13632SOL     OW46858  10.132   4.249   8.840 -0.0447  0.4878  0.1851
13632SOL    HW146859  10.200   4.316   8.844 -0.8568  1.4044 -0.6144
13632SOL    HW246860  10.112   4.241   8.747 -1.9804  1.2683  0.4802
13633SOL     OW46861   7.687   9.769   8.964 -0.3156 -0.4672 -0.0667
13633SOL    HW146862   7.690   9.864   8.947 -0.5065 -0.5070 -0.3405
13633SOL    HW246863   7.615   9.758   9.026 -0.3756 -0.4454 -0.1317
13634SOL     OW46864   9.652   9.121   0.303 -0.0119  0.1129  0.5993
13634SOL    HW146865   9.737   9.141   0.340 -0.0013 -0.9814  1.2028
13634SOL    HW246866   9.667   9.042   0.249 -0.3515  0.7516 -0.4660
13635SOL     OW46867   7.665   5.583   0.124 -0.6336 -0.1743  0.2511
13635SOL    HW146868   7.684   5.646   0.194  0.5992 -0.3811  0.1161
13635SOL    HW246869   7.726   5.512   0.138  0.5315  0.3451 -1.7608
13636SOL     OW46870   9.299   1.901   0.756 -0.0831  0.1433  0.1538
13636SOL    HW146871   9.210   1.933   0.742 -0.0747  0.0697 -0.0736
13636SOL    HW246872   9.355   1.966   0.713  0.1208  1.3643  2.1565
13637SOL     OW46873   3.371   1.946  11.764 -0.0603  0.0506 -0.1695
13637SOL    HW146874   3.362   1.860  11.805  1.7171 -0.3837 -0.6061
13637SOL    HW246875   3.417   1.999  11.829  1.7650 -0.3153 -1.1040
13638SOL     OW46876  10.803   7.399   5.269  0.4498 -0.0648  0.4414
13638SOL    HW146877  10.831   7.489   5.255  1.1689 -0.2272  0.8055
13638SOL    HW246878  10.867   7.363   5.331 -1.4439  0.0254  2.5912
13639SOL     OW46879   4.922   2.740  12.368  0.1443 -0.0047  0.0963
13639SOL    HW146880   5.007   2.711  12.400 -0.0361  0.4587  1.0366
13639SOL    HW246881   4.929   2.737  12.273  0.4857 -2.1203  0.1306
13640SOL     OW46882  11.976   3.599   4.496 -0.0507 -0.2331 -0.1220
13640SOL    HW146883  11.947   3.689   4.481  0.5155 -0.3006 -1.7763
13640SOL    HW246884  12.069   3.601   4.473 -0.3764 -1.5750 -1.6612
13641SOL     OW46885   7.402   0.472   5.512  0.0691  0.5943  0.6867
13641SOL    HW146886   7.421   0.494   5.421 -0.2428  0.9323  0.7010
13641SOL    HW246887   7.310   0.493   5.524  0.1076  0.5624  1.0849
13642SOL     OW46888   2.389   6.006  11.175 -0.2763 -0.3409 -0.0662
13642SOL    HW146889   2.411   6.098  11.162 -0.3612 -0.1481  1.0502
13642SOL    HW246890   2.391   5.994  11.270 -0.6213 -1.4036 -0.1797
13643SOL     OW46891   9.647   3.299   9.405 -0.3540 -0.6411  0.6276
13643SOL    HW146892   9.687   3.386   9.411  1.6016 -1.4008 -0.5170
13643SOL    HW246893   9.553   3.316   9.408 -0.0446  1.2552  3.3940
13644SOL     OW46894   6.822   1.256   4.562 -0.2362  0.1973 -0.4105
13644SOL    HW146895   6.751   1.284   4.620 -1.0890 -3.2279  0.4747
13644SOL    HW246896   6.779   1.195   4.501  1.3721  0.7065 -2.1230
13645SOL     OW46897   4.347   0.690   9.595  0.3896  0.0474 -0.4631
13645SOL    HW146898   4.366   0.604   9.632 -0.6787  0.3714  0.9188
13645SOL    HW246899   4.432   0.734   9.594  0.6628 -0.4347  0.4360
13646SOL     OW46900   5.333  12.474   8.233 -0.2412  0.6577 -0.3961
13646SOL    HW146901   5.268  12.514   8.290 -1.5006 -0.1479 -1.2232
13646SOL    HW246902   5.288  12.462   8.150  1.2028  0.7499 -1.2215
13647SOL     OW46903   3.860   4.999   0.448 -0.6535  0.0724  0.0203
13647SOL    HW146904   3.948   5.028   0.423  0.0560 -2.2149 -0.3185
13647SOL    HW246905   3.814   4.987   0.364 -0.8205 -0.1199  0.1379
13648SOL     OW46906   9.598   4.649   9.301 -0.5504  0.0972 -0.6471
13648SOL    HW146907   9.635   4.726   9.345 -0.5195  0.7107 -1.7162
13648SOL    HW246908   9.561   4.683   9.220 -0.2291 -1.0738 -1.3105
13649SOL     OW46909   3.937   5.808   7.821  0.1539  0.2729 -0.0653
13649SOL    HW146910   4.029   5.783   7.831  0.7936  2.2317 -0.5876
13649SOL    HW246911   3.888   5.728   7.842  2.0049 -1.2551 -1.1977
13650SOL     OW46912  10.709   8.806   1.826 -0.0026 -0.1754 -0.0196
13650SOL    HW146913  10.785   8.851   1.861  0.2470 -0.5141 -0.1133
13650SOL    HW246914  10.709   8.721   1.871 -0.7736  0.1139  0.5550
13651SOL     OW46915   7.291   5.672   1.538  0.0374  0.2546  0.2624
13651SOL    HW146916   7.352   5.624   1.483 -0.2480 -0.2718  0.4003
13651SOL    HW246917   7.317   5.652   1.628 -1.1904 -1.1249  0.3492
13652SOL     OW46918   6.464   2.687  10.452  0.0451 -0.2589  0.0739
13652SOL    HW146919   6.480   2.611  10.397  3.3943 -0.9441  1.7623
13652SOL    HW246920   6.425   2.651  10.532  1.2448 -0.1806  0.7085
13653SOL     OW46921   8.062   7.011  11.613  0.1432 -0.3111 -0.1961
13653SOL    HW146922   8.098   6.941  11.667  2.1077  1.2592  0.6683
13653SOL    HW246923   7.976   7.029  11.652  0.7798 -0.4050  1.3382
13654SOL     OW46924   6.179  10.290   6.961  1.0096 -0.7815  0.2980
13654SOL    HW146925   6.229  10.371   6.958  0.7868 -0.6624 -0.4298
13654SOL    HW246926   6.123  10.293   6.883  0.4668 -1.2915  0.6562
13655SOL     OW46927   1.805   6.584  11.739  0.6306 -0.4639  0.2733
13655SOL    HW146928   1.817   6.586  11.834  2.0021 -1.7591  0.1659
13655SOL    HW246929   1.852   6.661  11.708 -0.7519  0.5884  0.6977
13656SOL     OW46930   3.659  10.878  12.478 -0.2196  0.0579  0.0757
13656SOL    HW146931   3.716  10.942  12.520  1.3657 -1.9721  1.1709
13656SOL    HW246932   3.577  10.925  12.463 -0.0783  1.5867  3.3187
13657SOL     OW46933   1.513   9.482   4.882  0.7664 -0.0976 -0.0957
13657SOL    HW146934   1.541   9.523   4.800  0.0357  1.2359  0.2865
13657SOL    HW246935   1.419   9.469   4.871  0.9673 -1.6213 -0.1652
13658SOL     OW46936   2.583   6.088  12.384  0.5407  0.2295 -0.5967
13658SOL    HW146937   2.545   6.000  12.387  0.0307  0.4208 -1.2259
13658SOL    HW246938   2.612   6.105  12.474  1.5248 -0.9608 -0.6563
13659SOL     OW46939  11.907  12.360   5.743 -0.2111  0.1217 -0.5060
13659SOL    HW146940  11.969  12.297   5.780  0.0112  0.1734 -0.7881
13659SOL    HW246941  11.931  12.444   5.781 -0.3306  0.0832 -0.3452
13660SOL     OW46942   9.294   5.925  10.901  0.1668  0.3106  0.1962
13660SOL    HW146943   9.300   5.961  10.990 -2.9596 -0.7421  0.9627
13660SOL    HW246944   9.307   6.001  10.844  0.7030  1.2942  1.5561
13661SOL     OW46945   7.607   6.884   2.332  0.4966  0.3308  0.2757
13661SOL    HW146946   7.575   6.896   2.421  0.1372  0.4645  0.1325
13661SOL    HW246947   7.699   6.861   2.342  0.5223  0.5964  0.6707
13662SOL     OW46948   4.338   5.102   8.130 -0.0326 -0.6367  0.9377
13662SOL    HW146949   4.254   5.102   8.083 -0.2006  0.0898  1.2268
13662SOL    HW246950   4.317   5.135   8.217  0.6693  0.2244  0.7972
13663SOL     OW46951   5.541   1.749  11.425 -0.3513 -0.7982  0.3015
13663SOL    HW146952   5.611   1.793  11.473 -0.9452  1.9445 -1.1461
13663SOL    HW246953   5.467   1.750  11.485 -0.5462  0.8665  0.0684
13664SOL     OW46954   7.633   3.684   1.928  0.1929  0.1079  0.0500
13664SOL    HW146955   7.652   3.778   1.932  0.4026  0.0348  1.6369
13664SOL    HW246956   7.550   3.675   1.974  2.2028 -0.8991  3.9478
13665SOL     OW46957   1.489   8.910   3.557 -0.0343  0.0698 -0.0688
13665SOL    HW146958   1.434   8.936   3.483 -1.5620 -5.3133 -1.3233
13665SOL    HW246959   1.429   8.913   3.632 -0.4485 -0.5556 -0.3629
13666SOL     OW46960   8.318   5.483   1.429  0.3128 -0.2415 -0.4114
13666SOL    HW146961   8.316   5.432   1.348 -0.3051 -2.5594  0.9743
13666SOL    HW246962   8.410   5.484   1.454  1.0058  2.9505 -2.4849
13667SOL     OW46963   6.646   2.963  11.577  0.5812 -0.2109 -0.2196
13667SOL    HW146964   6.659   2.871  11.553 -0.4675 -0.8341  1.4563
13667SOL    HW246965   6.629   2.961  11.671 -0.6741  1.5834 -0.3657
13668SOL     OW46966   6.239   1.968   5.596 -0.1055 -0.3715 -0.0923
13668SOL    HW146967   6.204   1.904   5.535 -0.6799 -0.0865 -0.0715
13668SOL    HW246968   6.178   2.042   5.591 -0.0528 -0.2673  0.6814
13669SOL     OW46969   7.540   8.698   2.870  0.4226 -0.8248 -0.3842
13669SOL    HW146970   7.590   8.650   2.805  0.6296  0.6796 -1.3998
13669SOL    HW246971   7.528   8.637   2.942  0.7351 -2.3285 -1.5684
13670SOL     OW46972   6.365   5.093   7.203 -0.4490 -0.9682  0.0367
13670SOL    HW146973   6.424   5.037   7.252  0.5943 -0.7637 -0.9493
13670SOL    HW246974   6.331   5.037   7.133 -1.2201 -1.0067  0.4319
13671SOL     OW46975  10.646  11.408   7.312  0.2865 -0.3440 -0.3880
13671SOL    HW146976  10.723  11.385   7.364  0.8519 -0.7810 -1.3972
13671SOL    HW246977  10.659  11.363   7.228 -1.4226 -1.0210 -0.3297
13672SOL     OW46978  11.407   4.044  11.111  0.0291  0.1681 -0.2271
13672SOL    HW146979  11.325   4.067  11.067  1.1965 -0.5787 -3.0821
13672SOL    HW246980  11.386   3.967  11.163 -1.2317  0.4442 -0.3109
13673SOL     OW46981   8.256  11.675  11.405 -0.0020 -0.1201  0.2903
13673SOL    HW146982   8.171  11.648  11.440  0.9617 -2.3010  1.1237
13673SOL    HW246983   8.320  11.639  11.467  1.6352 -0.7546 -1.6557
13674SOL     OW46984   8.984   5.750   5.624 -0.1031  0.2442  0.0033
13674SOL    HW146985   8.952   5.786   5.541  0.9713 -1.5689 -1.3030
13674SOL    HW246986   9.047   5.682   5.597  2.0967  1.1979  2.3446
13675SOL     OW46987   0.151  11.204   7.522 -0.6393  0.2788  0.3250
13675SOL    HW146988   0.070  11.161   7.494 -1.4954  1.2229  1.2588
13675SOL    HW246989   0.133  11.297   7.516  0.5326  0.5124  0.1532
13676SOL     OW46990   9.015   1.309   9.803  0.3225  0.4841 -0.0968
13676SOL    HW146991   9.013   1.264   9.719  2.9136  1.8513 -1.0199
13676SOL    HW246992   8.947   1.376   9.796 -0.3004 -0.1912 -0.6139
13677SOL     OW46993   0.553  10.800  10.619 -0.0345  0.1274  0.0197
13677SOL    HW146994   0.647  10.788  10.635 -0.0962  1.6696  1.9329
13677SOL    HW246995   0.511  10.732  10.671 -0.0350  1.6089  2.0669
13678SOL     OW46996   3.773   3.326   8.591  0.7669 -0.5710  0.7816
13678SOL    HW146997   3.702   3.389   8.603  0.1855 -0.6512 -1.6043
13678SOL    HW246998   3.832   3.341   8.664 -0.5657  1.0786  1.5812
13679SOL     OW46999   6.398   0.778   3.594 -0.2731 -0.5278 -0.0100
13679SOL    HW147000   6.473   0.830   3.565 -0.7494  0.4707  0.4646
13679SOL    HW247001   6.340   0.842   3.636 -1.4675 -1.2440 -0.5037
13680SOL     OW47002  10.905   2.208   6.196 -0.4361 -0.5940  0.3312
13680SOL    HW147003  10.996   2.199   6.225 -0.2732  2.2912  1.0358
13680SOL    HW247004  10.906   2.178   6.105  1.6573  0.8832 -0.2145
13681SOL     OW47005   1.214   4.656   7.469  0.2815 -0.3034  0.0889
13681SOL    HW147006   1.282   4.686   7.409  2.0080 -2.9639  0.5232
13681SOL    HW247007   1.243   4.686   7.555 -0.7539  1.1739 -0.0547
13682SOL     OW47008   0.811   6.405  11.427  0.0583  0.7714 -0.8519
13682SOL    HW147009   0.767   6.353  11.359  0.0500  1.3621 -1.3009
13682SOL    HW247010   0.763   6.488  11.429 -0.1925  0.6201  0.1596
13683SOL     OW47011   7.183  12.410   2.612 -0.6850 -0.5245  0.2807
13683SOL    HW147012   7.195  12.335   2.670  0.8513 -1.6983 -1.4285
13683SOL    HW247013   7.089  12.412   2.594 -0.7233 -2.3336  0.0659
13684SOL     OW47014   8.637   8.597   5.020 -0.3109  0.0859 -0.3865
13684SOL    HW147015   8.592   8.594   5.104  0.8808  2.2276  0.3984
13684SOL    HW247016   8.570   8.626   4.958 -0.8966 -0.2992  0.0559
13685SOL     OW47017   2.330   3.367   1.654 -0.4768 -0.8568 -0.0080
13685SOL    HW147018   2.333   3.446   1.707 -1.6228 -1.2408  0.6624
13685SOL    HW247019   2.341   3.295   1.717 -1.7365 -1.3151 -0.2727
13686SOL     OW47020  11.836   4.075   9.585 -0.1418  0.2936  0.1261
13686SOL    HW147021  11.922   4.075   9.628  0.3680 -1.2443 -0.8177
13686SOL    HW247022  11.808   3.984   9.588 -1.5464  0.7016 -0.0056
13687SOL     OW47023   7.855   2.747   8.072 -0.1506  0.3755  0.5103
13687SOL    HW147024   7.849   2.654   8.050 -2.5356  0.0540  2.1257
13687SOL    HW247025   7.922   2.781   8.013  1.5918 -2.5622  0.6065
13688SOL     OW47026   0.650   6.237  11.605 -0.1223  0.1893 -0.1069
13688SOL    HW147027   0.745   6.228  11.605  0.0554  1.4448  1.8916
13688SOL    HW247028   0.632   6.308  11.667 -2.4051 -0.5047  0.1276
13689SOL     OW47029   0.053  12.400  11.627 -0.4231  0.2278  0.5208
13689SOL    HW147030   0.120  12.446  11.678  1.7638  0.9589 -2.7346
13689SOL    HW247031   0.050  12.446  11.544 -3.2748 -1.3180 -0.3592
13690SOL     OW47032   6.473  12.200  11.541  0.5345  0.0763 -0.0888
13690SOL    HW147033   6.467  12.259  11.465 -1.1010  1.1021  0.7808
13690SOL    HW247034   6.441  12.116  11.509  1.2814  0.0880 -0.9060
13691SOL     OW47035   5.574   0.018   2.495  0.3191 -0.1933 -0.3961
13691SOL    HW147036   5.577   0.114   2.505 -0.9063 -0.1269 -0.4334
13691SOL    HW247037   5.492  -0.007   2.538  0.6714 -1.2431 -0.3217
13692SOL     OW47038  10.029  11.058   3.541  0.1157 -0.5628 -0.6223
13692SOL    HW147039  10.018  11.112   3.463  0.0344 -0.9885 -0.9107
13692SOL    HW247040  10.020  11.119   3.615 -3.0056 -0.6214 -0.8244
13693SOL     OW47041   9.716  11.628   9.645 -0.3379 -0.1222  0.4367
13693SOL    HW147042   9.798  11.667   9.676 -0.8847  0.2988  1.4127
13693SOL    HW247043   9.693  11.563   9.712 -0.8494 -0.1763  0.2181
13694SOL     OW47044   3.431   8.741   8.226 -0.2295 -0.0095 -0.0769
13694SOL    HW147045   3.508   8.794   8.247 -1.5204  1.6099  0.7806
13694SOL    HW247046   3.425   8.746   8.130 -1.0736  2.5968  0.0458
13695SOL     OW47047   0.821  12.393   4.370 -0.4437  0.3270  0.2236
13695SOL    HW147048   0.730  12.397   4.340 -0.7699  1.3272  1.2619
13695SOL    HW247049   0.842  12.300   4.369 -0.1533  0.2671 -3.7227
13696SOL     OW47050   4.828   0.498   1.686  0.4720 -0.3119 -0.0421
13696SOL    HW147051   4.879   0.572   1.652 -0.7337  0.6720  0.2410
13696SOL    HW247052   4.814   0.519   1.778 -0.0402 -0.8054 -0.0047
13697SOL     OW47053  11.721   7.207   6.149 -0.1300 -0.1431 -0.1663
13697SOL    HW147054  11.713   7.298   6.121  1.9192  0.6972  1.6901
13697SOL    HW247055  11.815   7.188   6.145 -0.3171 -1.6027  1.0976
13698SOL     OW47056   9.259   3.316  11.083 -0.3674 -0.2499  0.5609
13698SOL    HW147057   9.242   3.264  11.004  1.1017  0.2868 -0.1345
13698SOL    HW247058   9.200   3.391  11.074 -1.4779 -1.0453  0.8771
13699SOL     OW47059   3.806   2.079   7.675  0.9670  0.0726  0.9590
13699SOL    HW147060   3.791   1.988   7.652 -0.5732  0.2367  1.1834
13699SOL    HW247061   3.878   2.107   7.618 -0.1762 -0.6012 -0.9229
13700SOL     OW47062  11.122   4.649   8.017  0.1849 -0.4246 -0.0618
13700SOL    HW147063  11.178   4.657   8.094  0.6768  2.7259 -0.5874
13700SOL    HW247064  11.056   4.717   8.029 -1.7108 -2.0345 -0.9226
13701SOL     OW47065  10.769   7.461   2.084 -0.1633 -0.8535  0.2400
13701SOL    HW147066  10.677   7.442   2.068 -0.3049 -0.0297  0.0358
13701SOL    HW247067  10.801   7.385   2.133 -1.7260  0.2394  3.1428
13702SOL     OW47068   5.020   0.894   3.870  0.5396 -0.3622  1.1014
13702SOL    HW147069   5.073   0.897   3.949  3.6214 -0.5445 -0.8056
13702SOL    HW247070   5.022   0.984   3.836  1.5558 -0.8076 -0.1109
13703SOL     OW47071   9.842   9.500  10.761 -0.5395  0.5904 -0.5852
13703SOL    HW147072   9.933   9.493  10.792 -0.8925  2.4482  1.0528
13703SOL    HW247073   9.794   9.536  10.836 -2.8938 -1.3714 -1.0162
13704SOL     OW47074   6.241   5.976  10.751 -0.8600  0.0934 -0.3601
13704SOL    HW147075   6.223   6.000  10.660  2.3078 -0.9341 -1.3864
13704SOL    HW247076   6.231   6.058  10.799 -5.3947  0.1576 -0.9589
13705SOL     OW47077   4.381   1.627  10.116  0.2534  0.3206 -0.5799
13705SOL    HW147078   4.409   1.638  10.207  0.4627  0.2027 -0.6293
13705SOL    HW247079   4.457   1.590  10.072 -0.8434 -2.9399 -0.0703
13706SOL     OW47080   2.422   5.645   5.448 -0.6244 -0.2887  0.4970
13706SOL    HW147081   2.480   5.718   5.427  1.9821 -2.7163 -1.5704
13706SOL    HW247082   2.444   5.622   5.538 -0.0441  0.2700  0.5054
13707SOL     OW47083   0.502   1.040   5.449 -0.0404  1.2080  0.2271
13707SOL    HW147084   0.474   1.132   5.441  0.4863  1.3442 -0.1368
13707SOL    HW247085   0.462   1.009   5.530 -3.1055  0.7318 -1.3162
13708SOL     OW47086   9.116   0.859   8.706 -0.1744  0.3193 -1.0637
13708SOL    HW147087   9.165   0.849   8.788  0.7446 -0.8268 -1.7258
13708SOL    HW247088   9.104   0.953   8.697  0.3485  0.5088  0.0225
13709SOL     OW47089   9.612  10.634   9.981 -0.4034 -0.5126  0.0212
13709SOL    HW147090   9.690  10.608   9.932  1.0072  0.4665  1.6159
13709SOL    HW247091   9.542  10.578   9.947  0.5519 -0.1797 -2.7357
13710SOL     OW47092   2.367   8.340   0.738  0.2138 -0.8466 -0.3053
13710SOL    HW147093   2.382   8.270   0.802 -0.8895 -1.6720 -0.9150
13710SOL    HW247094   2.345   8.294   0.657 -1.6932  0.1876 -0.4269
13711SOL     OW47095  10.693  10.725   6.435  0.4444  0.1717  0.2587
13711SOL    HW147096  10.668  10.702   6.346  0.1665 -0.5765  0.5215
13711SOL    HW247097  10.782  10.691   6.444  0.4507  0.1953  0.2825
13712SOL     OW47098  10.501   6.706   9.258  0.5312 -0.4335  0.4290
13712SOL    HW147099  10.486   6.661   9.341 -0.5590 -0.3376  0.2977
13712SOL    HW247100  10.440   6.779   9.258  2.1290  0.9691  0.5430
13713SOL     OW47101  10.462   0.921   2.395  0.4154  0.1947  0.2570
13713SOL    HW147102  10.526   0.980   2.433 -2.4963  2.7454  1.6029
13713SOL    HW247103  10.454   0.850   2.459  2.2323 -0.4942 -0.2264
13714SOL     OW47104  12.201   9.087  12.021 -0.5931  0.4835  0.5242
13714SOL    HW147105  12.113   9.112  12.048 -0.6908  0.5247  0.1716
13714SOL    HW247106  12.227   9.154  11.958 -0.6870 -0.0568 -0.1032
13715SOL     OW47107   1.244   0.086   9.366  0.0176  0.5194  0.8090
13715SOL    HW147108   1.281   0.036   9.293  0.6907  0.6060  1.0898
13715SOL    HW247109   1.151   0.096   9.344  0.5407  2.0562 -0.8835
13716SOL     OW47110   9.785   2.291   8.066  0.0049 -0.0151  0.5298
13716SOL    HW147111   9.690   2.283   8.061  0.0956 -0.3413 -2.1902
13716SOL    HW247112   9.818   2.225   8.005  1.8498  1.7727 -0.5433
13717SOL     OW47113   3.193  11.770   1.131  0.3120  0.5110 -0.0404
13717SOL    HW147114   3.101  11.793   1.121  0.5226  2.3458  1.4971
13717SOL    HW247115   3.193  11.682   1.169 -0.8904  1.0061  1.1985
13718SOL     OW47116   6.493  12.403   4.827  0.0222 -0.0706  0.4199
13718SOL    HW147117   6.428  12.440   4.768  0.1370  0.7375  0.7778
13718SOL    HW247118   6.446  12.338   4.878 -0.2414 -0.2678 -0.0718
13719SOL     OW47119   7.613   5.016   4.125  0.3992  0.8076 -0.0105
13719SOL    HW147120   7.691   5.067   4.101  1.3820  0.1622  1.6581
13719SOL    HW247121   7.647   4.943   4.176 -1.3322  0.5739  0.8728
13720SOL     OW47122   2.875  10.068   1.952  0.7641  0.1116 -0.2932
13720SOL    HW147123   2.859  10.064   2.046 -1.1743 -1.1205 -0.6153
13720SOL    HW247124   2.894  10.160   1.934 -0.1620  0.6066  1.1295
13721SOL     OW47125  11.942   1.941   0.572  0.2535 -0.1408 -0.1917
13721SOL    HW147126  11.849   1.953   0.553  0.0938  0.2001  0.7677
13721SOL    HW247127  11.967   2.019   0.621  0.8982 -0.5167  0.0974
13722SOL     OW47128   5.128   6.237   8.811  0.3396  0.3150 -0.0780
13722SOL    HW147129   5.144   6.330   8.795  0.6804  0.0639 -1.3056
13722SOL    HW247130   5.167   6.193   8.736  0.3251 -0.8393  0.5696
13723SOL     OW47131   8.166   7.362   4.976  0.4490 -0.3647 -0.7287
13723SOL    HW147132   8.125   7.317   5.050  1.9841 -2.1610 -0.9018
13723SOL    HW247133   8.117   7.444   4.968 -0.1827 -0.3915  1.8669
13724SOL     OW47134   5.458   9.135   1.576 -0.0739  0.1754  0.1274
13724SOL    HW147135   5.403   9.166   1.504  0.4163 -0.0490 -0.3593
13724SOL    HW247136   5.521   9.205   1.591 -0.7240  0.5973  0.9485
13725SOL     OW47137   8.831   1.410   2.918  0.4344  0.6159 -0.5296
13725SOL    HW147138   8.754   1.361   2.946  0.7429 -0.0844 -0.8973
13725SOL    HW247139   8.899   1.388   2.981  0.1140  1.9205  0.3203
13726SOL     OW47140   2.513   7.712   0.097  0.3413  0.2335  0.2834
13726SOL    HW147141   2.579   7.726   0.029 -0.7782  0.3013 -0.8120
13726SOL    HW247142   2.454   7.647   0.060 -0.4822  0.5254  1.0585
13727SOL     OW47143   2.874   2.192   8.847  0.0768  0.3778 -0.4342
13727SOL    HW147144   2.902   2.223   8.760 -0.2200  1.3824 -0.1877
13727SOL    HW247145   2.798   2.246   8.867 -0.6076 -0.7096 -0.0784
13728SOL     OW47146   4.380   1.034   9.866  0.1373 -0.3348 -0.5001
13728SOL    HW147147   4.448   0.966   9.862  1.5275  0.9437  0.3205
13728SOL    HW247148   4.388   1.081   9.783  1.5546  0.9323  0.2836
13729SOL     OW47149  11.550   4.903   1.027 -0.1798  0.2090  0.3760
13729SOL    HW147150  11.645   4.910   1.021 -0.2041 -0.7427 -3.2374
13729SOL    HW247151  11.534   4.814   1.056  0.0744 -0.1883 -0.6633
13730SOL     OW47152   5.176  12.261   2.123 -0.9305  0.2114 -0.0264
13730SOL    HW147153   5.150  12.170   2.137  1.4084 -0.6236 -0.7292
13730SOL    HW247154   5.137  12.284   2.039  0.1370 -0.8451 -0.8352
13731SOL     OW47155  10.100   9.838   7.082  0.3473  0.6789 -0.0363
13731SOL    HW147156  10.152   9.849   7.002 -0.9480  0.2386 -0.9699
13731SOL    HW247157  10.145   9.768   7.130  0.2331 -0.1977 -1.1688
13732SOL     OW47158  12.287  12.098  11.588 -0.1792  0.3626 -0.0277
13732SOL    HW147159  12.277  12.188  11.618 -0.7959  0.2744  0.0449
13732SOL    HW247160  12.215  12.051  11.630  2.5158 -1.0730  3.4463
13733SOL     OW47161  11.939   6.553   9.613 -0.0018  0.3772  0.6863
13733SOL    HW147162  12.004   6.495   9.652  0.1034  0.3947  0.5359
13733SOL    HW247163  11.986   6.599   9.544 -0.1556  0.4374  0.6216
13734SOL     OW47164   3.517   0.731   3.448 -0.2152 -0.3257 -0.7022
13734SOL    HW147165   3.426   0.716   3.473 -0.5244 -1.1142 -2.1464
13734SOL    HW247166   3.527   0.681   3.366  1.7289 -0.9110 -0.1561
13735SOL     OW47167  11.087   9.598   1.157 -0.8475 -0.2873 -0.2312
13735SOL    HW147168  11.083   9.553   1.242  0.0999  1.3700  0.7311
13735SOL    HW247169  11.149   9.670   1.170 -3.2652  2.1762 -1.2530
13736SOL     OW47170  12.447  10.323  10.588 -0.0176 -0.2895 -0.3023
13736SOL    HW147171  12.499  10.299  10.511 -1.2209 -0.0224 -1.2281
13736SOL    HW247172  12.359  10.337  10.554 -0.3937  0.6954  1.0003
13737SOL     OW47173   9.360   5.404   1.723 -0.2036  0.3707 -0.6444
13737SOL    HW147174   9.352   5.433   1.632 -1.8778  1.1070 -0.3007
13737SOL    HW247175   9.270   5.406   1.756  0.3023 -0.4691  0.8596
13738SOL     OW47176   9.480  10.804  11.897 -0.0709 -0.3482 -0.4344
13738SOL    HW147177   9.547  10.758  11.847  1.1872  1.0494 -0.1188
13738SOL    HW247178   9.487  10.895  11.868 -1.3506 -0.0446  0.1381
13739SOL     OW47179   1.166   3.591   2.562 -1.3236  0.2885  0.3271
13739SOL    HW147180   1.098   3.525   2.572 -3.0422  1.9049 -0.1488
13739SOL    HW247181   1.139   3.642   2.486  1.7436 -0.4745 -1.4422
13740SOL     OW47182   4.106   9.104   7.133 -0.0103  0.0366 -0.1931
13740SOL    HW147183   4.162   9.104   7.055  1.2207 -0.4209  0.6662
13740SOL    HW247184   4.027   9.150   7.105 -0.1100 -1.1586 -2.0618
13741SOL     OW47185   0.920   3.184  12.291  0.5484 -0.4921  1.0514
13741SOL    HW147186   0.862   3.121  12.249 -0.5928  0.3612  1.2943
13741SOL    HW247187   0.861   3.251  12.327  1.7150  2.1727 -1.5054
13742SOL     OW47188   2.307   9.374   9.053  0.2541 -0.0896  0.0029
13742SOL    HW147189   2.248   9.345   8.984  0.7945 -1.7096  0.1961
13742SOL    HW247190   2.385   9.405   9.007 -0.3266  1.1573 -0.2003
13743SOL     OW47191  12.010   0.968   9.435 -0.6479 -0.0459 -0.5724
13743SOL    HW147192  11.982   1.037   9.496  1.6015 -0.5927  1.2333
13743SOL    HW247193  12.106   0.973   9.435 -0.3967 -2.9332 -0.6093
13744SOL     OW47194   4.687   5.018   3.218 -0.2055 -0.2325  0.5196
13744SOL    HW147195   4.676   4.937   3.268 -0.3079 -0.1674  0.6022
13744SOL    HW247196   4.601   5.059   3.219  0.0836  0.3854  1.3459
13745SOL     OW47197   0.008   3.513   8.589  0.1586 -0.0637  0.0842
13745SOL    HW147198   0.016   3.426   8.629  0.0329 -0.3985 -0.6109
13745SOL    HW247199   0.066   3.569   8.642  1.1548 -0.8192 -0.1784
13746SOL     OW47200   7.312   1.704   3.257  0.7977 -0.3307  0.1869
13746SOL    HW147201   7.401   1.690   3.224  1.4087  0.2137  1.5204
13746SOL    HW247202   7.276   1.772   3.201  2.4013  1.7876  1.5843
13747SOL     OW47203   8.124   4.652   0.631 -0.2538 -0.1817 -0.5904
13747SOL    HW147204   8.137   4.627   0.722  0.2632 -1.8979 -1.0808
13747SOL    HW247205   8.073   4.579   0.594 -0.9690  0.7687 -1.5449
13748SOL     OW47206   0.796  10.311   1.395 -0.1030  0.7262 -0.2397
13748SOL    HW147207   0.709  10.276   1.416  0.7312 -1.9954 -0.8741
13748SOL    HW247208   0.801  10.307   1.300  0.3485  1.8614 -0.2723
13749SOL     OW47209   3.175   4.830   7.713 -0.3392  0.2264 -0.2681
13749SOL    HW147210   3.227   4.908   7.694  0.2349 -0.4267 -1.4883
13749SOL    HW247211   3.239   4.763   7.737 -0.5709 -0.6099 -1.8674
13750SOL     OW47212   8.021  12.138   5.851  0.8668  0.1694  0.8576
13750SOL    HW147213   8.028  12.196   5.776 -1.1839  0.1347  0.5900
13750SOL    HW247214   8.036  12.194   5.927 -1.2031  1.1306  0.6101
13751SOL     OW47215   2.959  11.541  11.553  0.9314  0.3811 -0.5541
13751SOL    HW147216   2.872  11.504  11.537  0.6201 -0.7968  2.9884
13751SOL    HW247217   2.942  11.623  11.600  1.6965  0.2893 -0.0887
13752SOL     OW47218   3.375   1.828   4.892  0.4247  0.6272 -0.2006
13752SOL    HW147219   3.289   1.871   4.885  0.4658  0.7193 -0.1443
13752SOL    HW247220   3.392   1.796   4.803  0.6891  1.2997 -0.4014
13753SOL     OW47221   7.220   2.625   9.692  0.6422 -0.3449  0.1484
13753SOL    HW147222   7.290   2.586   9.639  2.8784  0.6293  2.1828
13753SOL    HW247223   7.151   2.647   9.629  2.7092 -0.1385 -2.1980
13754SOL     OW47224   9.493  11.268   5.013  0.4344 -0.5638 -0.1297
13754SOL    HW147225   9.523  11.336   5.073 -0.2160 -0.4089  0.0254
13754SOL    HW247226   9.433  11.215   5.066 -1.6896  0.7103 -1.1385
13755SOL     OW47227   5.604  10.624   4.580  0.0577  0.2613 -0.3940
13755SOL    HW147228   5.666  10.620   4.507 -0.0298  2.6883 -0.6538
13755SOL    HW247229   5.537  10.560   4.557  1.1119 -0.5474 -1.3847
13756SOL     OW47230   7.607   0.308   4.581  0.4044 -0.5858 -0.0393
13756SOL    HW147231   7.522   0.327   4.620  0.6542  2.8053 -0.8395
13756SOL    HW247232   7.617   0.373   4.512  3.3312 -1.3314 -0.4608
13757SOL     OW47233   3.200   0.020   6.803 -0.3256 -0.2083  0.9433
13757SOL    HW147234   3.270   0.047   6.864  0.7792 -0.1708 -0.2946
13757SOL    HW247235   3.124   0.070   6.831  0.1743 -0.1134  2.2285
13758SOL     OW47236   2.690   8.663   3.073  0.3993  0.2764 -0.5133
13758SOL    HW147237   2.633   8.698   3.004  0.7655  1.0068 -0.4485
13758SOL    HW247238   2.690   8.730   3.141  0.3366 -0.2768  0.0483
13759SOL     OW47239   9.750   1.917   9.538  0.1792 -0.0449  0.4828
13759SOL    HW147240   9.726   1.967   9.460 -0.4720  0.3222  0.9064
13759SOL    HW247241   9.806   1.846   9.506  2.8814  2.1065  0.1054
13760SOL     OW47242   3.901  11.747   2.782  0.3218 -0.4938 -0.5907
13760SOL    HW147243   3.917  11.815   2.847 -0.8951  0.3554 -1.1557
13760SOL    HW247244   3.986  11.703   2.773  0.9680  0.5344  0.2379
13761SOL     OW47245   0.306   2.748   1.665  0.0973 -0.1134  0.0886
13761SOL    HW147246   0.260   2.788   1.591  2.0464  0.8164 -0.6908
13761SOL    HW247247   0.365   2.684   1.625  0.2698 -0.5273  0.9705
13762SOL     OW47248  10.048   7.656   0.503 -0.0370 -0.5778  0.3669
13762SOL    HW147249  10.079   7.725   0.445 -1.2793 -0.6130 -0.3720
13762SOL    HW247250  10.127   7.609   0.529  0.8227  1.0826  0.8559
13763SOL     OW47251  11.929   6.032   6.814 -0.5916  0.2389  0.0434
13763SOL    HW147252  11.909   5.967   6.746 -1.2303  0.2917  0.1753
13763SOL    HW247253  11.940   6.114   6.766  0.4750 -0.0046 -0.1525
13764SOL     OW47254   1.174   9.000   8.923  0.9298  0.0791 -0.0725
13764SOL    HW147255   1.247   8.937   8.923 -0.3096 -1.5738 -3.0108
13764SOL    HW247256   1.134   8.990   8.836 -0.7224  3.4185  0.1429
13765SOL     OW47257   6.712   9.582   4.101  0.5608  0.0604  0.4982
13765SOL    HW147258   6.769   9.657   4.084  0.0528  0.6253  1.2348
13765SOL    HW247259   6.731   9.557   4.191  2.6578 -2.4079 -0.4684
13766SOL     OW47260  11.928   6.041  11.727  0.3783 -0.3296 -0.1667
13766SOL    HW147261  11.934   6.103  11.799  0.9331  0.7636 -1.1212
13766SOL    HW247262  11.955   5.957  11.766  0.4161  0.1740  0.9420
13767SOL     OW47263   8.822   9.766   1.011 -0.4085 -0.3445  0.1588
13767SOL    HW147264   8.802   9.816   1.090  0.6929 -0.1568  0.3398
13767SOL    HW247265   8.775   9.812   0.942  1.3644  1.6265  0.1511
13768SOL     OW47266  12.349  10.387   3.030 -0.3643  0.2610 -0.1363
13768SOL    HW147267  12.297  10.338   2.966 -1.4489  1.1239  0.0553
13768SOL    HW247268  12.384  10.462   2.981  0.3156 -0.0488 -0.1437
13769SOL     OW47269   0.306   5.390   4.107 -0.2109 -0.3567 -0.1860
13769SOL    HW147270   0.278   5.340   4.183  0.1076 -0.1318  0.0861
13769SOL    HW247271   0.264   5.348   4.032 -3.1916  1.3455  0.3831
13770SOL     OW47272   1.405   1.305   2.754 -0.1928 -0.0044  0.1673
13770SOL    HW147273   1.432   1.396   2.766 -0.9840  0.2439  0.1339
13770SOL    HW247274   1.328   1.295   2.810 -0.7692 -0.3321 -0.6619
13771SOL     OW47275   3.899   1.864   8.452 -0.0189  0.4994 -0.7629
13771SOL    HW147276   3.982   1.868   8.500 -0.6487  2.2816  0.3053
13771SOL    HW247277   3.841   1.813   8.509 -0.3999  1.5406 -0.1874
13772SOL     OW47278   6.753   7.146   3.228 -0.3223 -0.1698 -0.1385
13772SOL    HW147279   6.674   7.190   3.259  0.0864 -0.6309  1.6829
13772SOL    HW247280   6.793   7.209   3.169 -1.5738  0.4393 -0.3795
13773SOL     OW47281   2.624  11.975   8.845  0.0422  0.0822  0.3879
13773SOL    HW147282   2.659  12.056   8.883  0.0971  0.2664 -0.0516
13773SOL    HW247283   2.556  11.947   8.906 -0.5109  0.8753  0.1426
13774SOL     OW47284  11.865  10.497  10.000  0.4509 -0.1732 -0.3259
13774SOL    HW147285  11.881  10.587   9.970 -0.1608  0.1034  0.1437
13774SOL    HW247286  11.783  10.472   9.958 -0.2447  0.1014  0.8302
13775SOL     OW47287   8.112   1.117   7.960 -0.1431  0.6004  0.5339
13775SOL    HW147288   8.168   1.048   7.994 -0.8683 -0.6141 -0.6770
13775SOL    HW247289   8.087   1.088   7.872  0.6159  3.0302 -0.5708
13776SOL     OW47290   4.602  11.534   5.381 -0.4071 -0.1212 -0.6319
13776SOL    HW147291   4.576  11.623   5.358 -0.9530  0.1356  0.8722
13776SOL    HW247292   4.521  11.483   5.372 -0.1671 -0.4200 -1.1708
13777SOL     OW47293   3.284   9.248   6.997 -0.3928  0.1139 -0.4774
13777SOL    HW147294   3.295   9.219   6.906 -0.2070 -0.3267 -0.3191
13777SOL    HW247295   3.320   9.176   7.049  3.1645  1.9459 -0.0983
13778SOL     OW47296   8.945   2.016   3.742 -0.7932 -0.2182  0.6210
13778SOL    HW147297   8.855   2.046   3.726 -0.9207 -1.6523 -1.9630
13778SOL    HW247298   9.000   2.083   3.703 -0.9300 -0.9289 -0.9038
13779SOL     OW47299   7.218   1.342   0.376 -0.3181  0.7444 -0.0272
13779SOL    HW147300   7.278   1.314   0.307 -3.0750 -0.2848 -2.2010
13779SOL    HW247301   7.260   1.419   0.415  1.8623  0.7446 -2.1587
13780SOL     OW47302   6.670  10.183   4.285 -0.1030  0.9706 -0.1197
13780SOL    HW147303   6.662  10.244   4.358  1.2066 -1.4863  2.2039
13780SOL    HW247304   6.764  10.170   4.274 -0.3166 -1.8577  0.6469
13781SOL     OW47305   6.198   7.722   3.271  0.7444  0.0764 -0.2964
13781SOL    HW147306   6.242   7.787   3.216 -0.7042  0.7012 -0.7399
13781SOL    HW247307   6.108   7.721   3.240 -0.1767  0.5856  2.1840
13782SOL     OW47308  11.616   5.272  12.269 -0.1790 -0.8682  0.2720
13782SOL    HW147309  11.642   5.207  12.334 -0.1228 -0.3755  0.7545
13782SOL    HW247310  11.668   5.251  12.191 -0.4555 -1.6381  0.2869
13783SOL     OW47311   9.553   1.060   0.971  0.3062  0.4750 -0.3131
13783SOL    HW147312   9.576   1.150   0.947  0.4880  0.5289  0.0619
13783SOL    HW247313   9.458   1.057   0.966  0.1615  1.1753  1.3285
13784SOL     OW47314   8.410   1.486   2.838  0.0849 -0.7342  0.0406
13784SOL    HW147315   8.470   1.531   2.896 -0.5246 -2.2649  1.9388
13784SOL    HW247316   8.326   1.533   2.849  0.1274 -0.6042 -0.1643
13785SOL     OW47317   8.665  12.387   7.313  0.1981 -0.6418  0.0537
13785SOL    HW147318   8.645  12.438   7.391 -0.8940 -3.2911  1.6570
13785SOL    HW247319   8.593  12.404   7.253 -0.9744 -1.4241  1.1985
13786SOL     OW47320   0.494   2.491   3.818 -0.5871  0.1320 -0.0599
13786SOL    HW147321   0.532   2.501   3.906 -1.6640 -0.6765  0.5164
13786SOL    HW247322   0.507   2.577   3.777  2.5494 -0.2887 -0.2088
13787SOL     OW47323  12.218   2.350   7.289  0.1635 -0.6922 -0.1669
13787SOL    HW147324  12.169   2.323   7.211 -0.8612 -0.2208  0.2904
13787SOL    HW247325  12.299   2.299   7.286  0.6850  0.1697 -2.1617
13788SOL     OW47326   4.294  11.133   5.975 -0.2742  0.2318 -0.0753
13788SOL    HW147327   4.268  11.222   5.955  0.2881  0.5059  0.4017
13788SOL    HW247328   4.296  11.089   5.890  0.1938  0.8736 -0.4001
13789SOL     OW47329   7.563   7.416   3.167 -0.5209 -0.4493 -0.3692
13789SOL    HW147330   7.588   7.437   3.257 -2.9838 -0.8686  0.4794
13789SOL    HW247331   7.628   7.461   3.113  0.1478  1.0680  1.5830
13790SOL     OW47332   5.232  10.365   1.906  0.8337 -0.0390  0.1707
13790SOL    HW147333   5.314  10.334   1.943 -0.1668 -2.4124  0.5631
13790SOL    HW247334   5.164  10.321   1.956 -0.7001  1.2350 -0.6651
13791SOL     OW47335   6.499   7.381   3.410 -0.2381 -0.2565 -0.0424
13791SOL    HW147336   6.512   7.310   3.473 -0.8477 -1.8811 -1.6377
13791SOL    HW247337   6.405   7.401   3.415 -0.1257  0.2292  0.1775
13792SOL     OW47338   7.603   6.804   5.849 -0.2930 -0.7707 -0.1162
13792SOL    HW147339   7.562   6.884   5.818  0.4286 -0.0954  0.6050
13792SOL    HW247340   7.661   6.777   5.778  0.8735  0.4067  0.3526
13793SOL     OW47341   4.448  10.685   3.336 -0.5381  0.2134 -0.0456
13793SOL    HW147342   4.390  10.756   3.309  0.3995  0.8666 -0.3962
13793SOL    HW247343   4.395  10.606   3.325 -1.4394  0.8051 -0.1161
13794SOL     OW47344   5.938  11.124   3.988  0.1709  0.0240  0.5188
13794SOL    HW147345   6.010  11.066   4.012  0.1215 -0.3976 -0.3035
13794SOL    HW247346   5.978  11.210   3.981  0.0292  0.3691  2.9269
13795SOL     OW47347   1.908   1.973   3.427 -0.0260  0.1540 -0.1813
13795SOL    HW147348   1.971   1.987   3.498  0.3356  1.8075 -0.7855
13795SOL    HW247349   1.856   2.053   3.425 -0.4816 -0.1502 -1.3480
13796SOL     OW47350   2.412   3.218  11.806 -0.2790  0.4082  0.1863
13796SOL    HW147351   2.384   3.286  11.744 -0.7369 -1.4058 -1.7006
13796SOL    HW247352   2.331   3.174  11.832  0.2156 -1.3017 -0.9762
13797SOL     OW47353   5.082   1.938   3.457 -0.9077  0.2110 -0.7875
13797SOL    HW147354   5.000   1.900   3.489 -0.4349  1.1229  1.7205
13797SOL    HW247355   5.073   2.032   3.475 -0.1317  0.6194 -2.4085
13798SOL     OW47356   5.378  11.300   9.545 -0.2050  0.2117 -0.4778
13798SOL    HW147357   5.386  11.328   9.637  1.6458 -0.0676 -0.5115
13798SOL    HW247358   5.347  11.377   9.499 -0.5106  0.5551  0.2828
13799SOL     OW47359   6.773   8.714   9.682 -0.2998  0.0631  0.2781
13799SOL    HW147360   6.735   8.626   9.686  1.7402 -0.8593  0.4297
13799SOL    HW247361   6.713   8.768   9.733 -1.2404 -1.3689  0.7536
13800SOL     OW47362   1.825  12.336   0.927 -0.2041  0.3097 -0.4721
13800SOL    HW147363   1.788  12.405   0.981 -3.1021 -0.7872 -0.8502
13800SOL    HW247364   1.780  12.256   0.955  3.0019 -1.5266 -0.0345
13801SOL     OW47365   5.917   3.494   5.101 -0.0395 -0.1634 -0.5134
13801SOL    HW147366   5.923   3.409   5.057  0.6514 -0.7430  0.6599
13801SOL    HW247367   6.007   3.524   5.106  0.1031 -0.7782  1.7185
13802SOL     OW47368   9.818   5.330   1.854 -0.3485 -0.4111  0.3978
13802SOL    HW147369   9.793   5.245   1.891 -0.6054 -0.8170 -0.6708
13802SOL    HW247370   9.863   5.308   1.773 -0.6648  0.4810 -0.0259
13803SOL     OW47371   9.233  12.024   0.340  0.1800 -0.1760  0.0176
13803SOL    HW147372   9.292  12.044   0.268 -0.8721 -0.7437 -1.0378
13803SOL    HW247373   9.257  11.935   0.366 -0.5318 -0.6191 -0.7777
13804SOL     OW47374   9.193   7.472   8.176 -0.2606 -0.3186  0.2071
13804SOL    HW147375   9.137   7.494   8.101  0.4485  2.4456  0.3788
13804SOL    HW247376   9.191   7.550   8.232  1.4425 -1.2410  1.6783
13805SOL     OW47377   6.449   8.110  11.931 -0.3749 -0.0559 -0.3928
13805SOL    HW147378   6.375   8.100  11.990 -0.2436  0.3391 -0.1629
13805SOL    HW247379   6.415   8.085  11.845 -0.2644 -1.7621  0.0246
13806SOL     OW47380   1.839   5.705   1.485 -0.0504 -0.3866  0.3275
13806SOL    HW147381   1.914   5.654   1.454 -0.5881  1.1583 -4.2346
13806SOL    HW247382   1.762   5.662   1.448 -0.9244  0.9780  0.4553
13807SOL     OW47383   6.614   6.752   5.411 -0.0852  0.2492  0.2693
13807SOL    HW147384   6.667   6.790   5.481 -1.0538  0.0313  1.1343
13807SOL    HW247385   6.543   6.814   5.398  0.3063  0.4897 -0.8181
13808SOL     OW47386  11.068   2.071  12.275 -0.0480 -0.0470 -0.1690
13808SOL    HW147387  11.116   2.141  12.319 -1.1143  0.6418 -0.0636
13808SOL    HW247388  11.017   2.116  12.207 -2.5874 -0.3374  1.4193
13809SOL     OW47389   3.729   0.778   8.840  0.2151  0.0856  0.3672
13809SOL    HW147390   3.700   0.825   8.918 -1.5964 -0.9170  0.3477
13809SOL    HW247391   3.815   0.743   8.865  0.2719  0.9043  1.4178
13810SOL     OW47392   6.711   5.236  11.283  0.0987 -0.2532  0.3742
13810SOL    HW147393   6.711   5.192  11.369 -0.7164  0.0626  0.5471
13810SOL    HW247394   6.625   5.214  11.246 -0.9421  2.3071  1.0600
13811SOL     OW47395   3.612   6.957   0.631 -0.4385  0.0235  0.2081
13811SOL    HW147396   3.681   6.994   0.577 -0.1379  1.1412  1.3093
13811SOL    HW247397   3.533   6.961   0.576 -0.2889  1.7981  0.0802
13812SOL     OW47398   5.896   9.782   1.478  0.6117  0.0859 -0.1307
13812SOL    HW147399   5.957   9.761   1.549  0.0147 -0.5322  0.2060
13812SOL    HW247400   5.919   9.872   1.452  0.2890  0.6427  1.4082
13813SOL     OW47401   9.180   3.008  11.422 -0.1393  0.0275  0.2801
13813SOL    HW147402   9.242   3.042  11.358 -1.1270  0.8754 -0.2440
13813SOL    HW247403   9.133   2.939  11.376 -0.9981  0.7838  0.0093
13814SOL     OW47404   5.225   7.993   5.884  0.1598  0.1842  0.3957
13814SOL    HW147405   5.216   7.905   5.921  0.5271 -0.1627 -0.3228
13814SOL    HW247406   5.320   8.007   5.880  0.2220 -0.5430 -2.1333
13815SOL     OW47407   2.767   6.939   4.930  0.2012  0.1069  0.0876
13815SOL    HW147408   2.719   6.914   5.009 -0.7288 -0.3340 -0.6053
13815SOL    HW247409   2.751   6.867   4.868  0.6495  0.5970 -0.6128
13816SOL     OW47410  11.265   5.836  12.062  0.5545  0.0847 -0.3189
13816SOL    HW147411  11.275   5.917  12.013  0.8157 -0.0931 -0.5693
13816SOL    HW247412  11.246   5.864  12.152  0.0161  0.4122 -0.5291
13817SOL     OW47413   4.706   1.384   5.828  0.3793  0.1775  0.2245
13817SOL    HW147414   4.659   1.370   5.746 -0.7260  0.4866  0.7821
13817SOL    HW247415   4.778   1.442   5.805  1.2843 -1.3205 -0.8978
13818SOL     OW47416  11.590  12.191   9.835 -0.5449 -0.3751  0.3064
13818SOL    HW147417  11.548  12.107   9.854 -0.5778 -0.3840  0.1972
13818SOL    HW247418  11.522  12.256   9.850 -0.6010 -0.3901  0.1240
13819SOL     OW47419   5.357   7.507  11.428 -0.1187  0.3202  0.1854
13819SOL    HW147420   5.373   7.514  11.334 -0.7943 -0.6452 -0.0168
13819SOL    HW247421   5.267   7.538  11.439  0.0399  0.6612  0.5543
13820SOL     OW47422   0.536   6.866  10.327  0.6176  0.3290  0.3529
13820SOL    HW147423   0.597   6.917  10.381  0.3401 -0.5600  1.5405
13820SOL    HW247424   0.500   6.930  10.265  1.8659  1.1107  0.3960
13821SOL     OW47425   5.144   7.152   2.198 -0.6564  0.2418 -0.2791
13821SOL    HW147426   5.071   7.105   2.157  0.5877 -1.8092 -0.2825
13821SOL    HW247427   5.121   7.155   2.291  0.6494 -3.5010  0.3514
13822SOL     OW47428   4.848   4.929   4.031  0.0255  0.1372 -0.2696
13822SOL    HW147429   4.817   4.866   3.966  0.7215 -0.6363  0.1370
13822SOL    HW247430   4.934   4.956   3.999  0.1526  0.1388  0.0740
13823SOL     OW47431  10.498   7.124  12.312  0.4605 -0.1010 -0.3155
13823SOL    HW147432  10.491   7.142  12.219  0.5617  0.8821 -0.1504
13823SOL    HW247433  10.413   7.151  12.348 -0.2812 -2.1801 -0.3474
13824SOL     OW47434   1.900   9.293   4.213  0.3694  0.6026 -0.1422
13824SOL    HW147435   1.842   9.361   4.177  1.1324  1.1527 -0.3510
13824SOL    HW247436   1.911   9.231   4.141 -1.3844 -0.4745  0.4519
13825SOL     OW47437   0.019   6.603   7.426 -0.2565 -0.7748  0.1246
13825SOL    HW147438   0.094   6.593   7.367  2.4060  0.3285  3.0039
13825SOL    HW247439   0.058   6.626   7.511 -3.8485 -1.1824  2.1096
13826SOL     OW47440   2.887   7.176   9.120 -0.2847 -0.2303 -0.2030
13826SOL    HW147441   2.957   7.191   9.056 -1.2196 -0.5789 -1.3318
13826SOL    HW247442   2.852   7.090   9.098 -1.8304  0.4176 -0.3919
13827SOL     OW47443  10.007   6.428   2.671 -0.4178 -0.1136  0.2189
13827SOL    HW147444  10.026   6.353   2.728 -0.9978 -1.2534 -1.0406
13827SOL    HW247445  10.039   6.504   2.720  1.5085 -1.3058  0.9207
13828SOL     OW47446   1.394   5.284   9.526 -0.0461 -0.3860 -0.0579
13828SOL    HW147447   1.438   5.210   9.485  2.3781  0.3416  1.0758
13828SOL    HW247448   1.426   5.361   9.480  0.8287  0.2542  1.5284
13829SOL     OW47449  12.063   5.686   0.894 -0.2019  0.5757  0.4465
13829SOL    HW147450  12.105   5.767   0.865 -0.1412  0.5119  0.3536
13829SOL    HW247451  12.064   5.630   0.816 -0.5063  0.5921  0.4305
13830SOL     OW47452  10.355   8.417  12.111  0.0554  0.4660  0.0416
13830SOL    HW147453  10.329   8.338  12.062 -0.5652  0.8817 -0.3206
13830SOL    HW247454  10.430   8.451  12.063  1.4090 -0.8052  1.1574
13831SOL     OW47455   1.087   7.721   6.270  0.5437  0.0708 -0.1586
13831SOL    HW147456   1.102   7.643   6.218 -0.6583  0.2209 -0.7792
13831SOL    HW247457   1.062   7.788   6.205  0.3404  0.6220  0.4801
13832SOL     OW47458   8.107   0.544   5.629 -0.3018 -0.6145 -0.1524
13832SOL    HW147459   8.072   0.497   5.554 -0.6049 -0.8487  0.1315
13832SOL    HW247460   8.201   0.551   5.611 -0.0919 -2.0895  0.1789
13833SOL     OW47461  10.801   5.592  10.086 -0.3030  0.3566  0.2362
13833SOL    HW147462  10.788   5.625   9.997  3.1388  0.6133 -0.3228
13833SOL    HW247463  10.812   5.498  10.076  0.5651  0.4409  0.2699
13834SOL     OW47464   6.336   7.575   8.482 -0.3119  0.3516 -0.4017
13834SOL    HW147465   6.372   7.556   8.568 -0.8287  0.9830 -0.0377
13834SOL    HW247466   6.372   7.661   8.460 -0.1915  0.1990 -0.8143
13835SOL     OW47467  10.470   3.420  10.519 -0.6478 -0.5867 -0.3071
13835SOL    HW147468  10.459   3.513  10.538 -1.5483 -0.6500 -0.4501
13835SOL    HW247469  10.530   3.389  10.587 -0.9396 -0.0544  0.2050
13836SOL     OW47470   5.367   0.263  11.625  0.9988 -0.4247 -0.6964
13836SOL    HW147471   5.279   0.251  11.659  1.1773 -0.5176 -0.2531
13836SOL    HW247472   5.361   0.339  11.568  0.3555 -1.2009 -1.6939
13837SOL     OW47473   5.835   4.438  11.432  0.1334  0.1019  0.1843
13837SOL    HW147474   5.743   4.420  11.412 -0.1426 -1.7357  2.6140
13837SOL    HW247475   5.833   4.516  11.487 -0.0523 -0.2424  0.6742
13838SOL     OW47476  10.431   1.307  11.231  0.3601 -0.0543 -0.0381
13838SOL    HW147477  10.354   1.266  11.270  0.1578 -1.2607 -1.6254
13838SOL    HW247478  10.505   1.263  11.272  0.2359  0.8042  1.1684
13839SOL     OW47479   6.668  12.110   9.602 -0.1624  0.1962 -0.4353
13839SOL    HW147480   6.745  12.147   9.646 -0.6691 -0.0545  0.7072
13839SOL    HW247481   6.647  12.032   9.652 -0.1652 -0.6885 -1.7648
13840SOL     OW47482  10.231   7.369   2.498  0.5732 -0.0453 -0.0095
13840SOL    HW147483  10.162   7.416   2.451  1.5230 -0.4001 -1.8762
13840SOL    HW247484  10.233   7.408   2.585 -0.4007  1.5667 -0.6710
13841SOL     OW47485  11.899   1.530   8.415 -0.1713 -0.5369  0.3737
13841SOL    HW147486  11.926   1.606   8.466 -2.8636  0.5996  0.2490
13841SOL    HW247487  11.876   1.567   8.329 -1.1434 -1.5390  0.1908
13842SOL     OW47488   1.259  11.744   9.089 -0.3564 -0.6529  0.1023
13842SOL    HW147489   1.257  11.788   9.173 -0.1382 -0.9321  0.2537
13842SOL    HW247490   1.256  11.651   9.110 -0.5342 -0.7187 -0.2058
13843SOL     OW47491   7.273   6.745  11.535 -0.0552  0.4386 -0.4816
13843SOL    HW147492   7.360   6.704  11.539 -0.4901 -0.6143 -1.2786
13843SOL    HW247493   7.289   6.836  11.559  0.8127 -0.3318  2.2304
13844SOL     OW47494   0.344   5.263   9.658  0.1089  0.4102  0.3026
13844SOL    HW147495   0.433   5.258   9.692  0.1510 -1.3510  0.0472
13844SOL    HW247496   0.289   5.275   9.735  0.3750 -1.3140  0.8025
13845SOL     OW47497   9.744   2.034   7.739 -0.0461  0.0315 -0.5735
13845SOL    HW147498   9.664   2.032   7.791  0.2631  0.7276 -0.0521
13845SOL    HW247499   9.814   2.041   7.803  0.4879 -1.1915 -0.9930
13846SOL     OW47500   0.978   5.140   7.640 -0.1311 -0.0210  0.4120
13846SOL    HW147501   1.067   5.158   7.672 -0.7587  2.1859  1.1038
13846SOL    HW247502   0.991   5.081   7.566  1.9685  0.6906  0.1442
13847SOL     OW47503   7.150   4.088  11.215  0.2672 -0.2428  0.6363
13847SOL    HW147504   7.161   4.182  11.200  2.2060 -0.6803 -1.2275
13847SOL    HW247505   7.076   4.082  11.276 -2.5454  2.2828 -2.1664
13848SOL     OW47506   3.591   1.623   8.358  0.2199  0.2094  0.2886
13848SOL    HW147507   3.591   1.528   8.370  0.6989  0.1654 -0.0422
13848SOL    HW247508   3.589   1.658   8.447 -0.4115 -0.1029  0.4089
13849SOL     OW47509   4.354   4.992   6.219 -0.2739  0.1184  0.0985
13849SOL    HW147510   4.408   4.968   6.295  0.5805 -0.3180 -0.6214
13849SOL    HW247511   4.375   4.926   6.153  0.6057  1.6727 -1.2578
13850SOL     OW47512   3.558   2.453   1.725 -0.1787  0.3340  0.1307
13850SOL    HW147513   3.543   2.461   1.631  0.8514 -2.4437 -0.3532
13850SOL    HW247514   3.629   2.390   1.733 -1.1126 -0.5179  2.8017
13851SOL     OW47515   8.487  12.464   0.566 -0.1476 -0.1710  0.3610
13851SOL    HW147516   8.510  12.537   0.623 -2.4620 -0.1522  1.3800
13851SOL    HW247517   8.571  12.428   0.537  1.0922  2.9408 -0.3182
13852SOL     OW47518   1.342   4.015   0.531  0.0593 -0.0904 -0.5842
13852SOL    HW147519   1.254   4.042   0.505 -0.2204 -0.7452 -0.3537
13852SOL    HW247520   1.353   4.053   0.619 -0.2979 -0.6265 -0.2974
13853SOL     OW47521   0.741   2.329  10.954 -0.5090  0.2884 -0.1257
13853SOL    HW147522   0.650   2.340  10.980 -0.1031  1.8029  0.7585
13853SOL    HW247523   0.791   2.385  11.014  1.1269 -1.3380  0.1303
13854SOL     OW47524   3.955   5.427   9.718  0.2348 -0.0527  0.2050
13854SOL    HW147525   3.920   5.378   9.792  0.9498 -0.4455  0.2940
13854SOL    HW247526   3.980   5.361   9.653 -1.0009  0.3217 -0.6804
13855SOL     OW47527   3.670   4.452  12.200  1.0770 -0.2797  0.5685
13855SOL    HW147528   3.738   4.510  12.232  1.7435 -0.9295  0.3591
13855SOL    HW247529   3.680   4.452  12.105 -0.0777  0.6533  0.4320
13856SOL     OW47530   5.753   6.347   4.087 -0.5244 -0.0229  0.2738
13856SOL    HW147531   5.704   6.400   4.149  0.8892 -0.6408  1.9967
13856SOL    HW247532   5.687   6.291   4.045 -1.5198  0.4818  1.1333
13857SOL     OW47533   6.040  10.003   4.330 -0.4895 -0.3365  0.7723
13857SOL    HW147534   6.061   9.971   4.242  0.8577  2.7169 -0.1624
13857SOL    HW247535   5.958  10.051   4.318  0.3127  1.0962  0.8780
13858SOL     OW47536   1.405  12.002   5.338  0.0079 -0.2915 -0.0368
13858SOL    HW147537   1.474  11.963   5.285  0.9760 -0.0165  0.9849
13858SOL    HW247538   1.409  12.096   5.317 -1.5938 -0.5294 -1.6718
13859SOL     OW47539   8.637   0.324  11.555 -0.0862  0.3757  0.1568
13859SOL    HW147540   8.593   0.383  11.616 -1.8001 -0.9913  0.3101
13859SOL    HW247541   8.599   0.344  11.470 -0.2680 -0.1007  0.1205
13860SOL     OW47542   2.032   9.218   8.085  0.0390 -0.2835  0.2646
13860SOL    HW147543   2.004   9.214   7.994 -1.2606  0.2416  0.6068
13860SOL    HW247544   2.127   9.207   8.082  0.1452  0.7278 -1.2383
13861SOL     OW47545   7.480  12.194   8.826 -0.0640  0.0260 -0.0586
13861SOL    HW147546   7.544  12.181   8.756 -0.2282  0.0893 -0.2240
13861SOL    HW247547   7.395  12.185   8.782 -0.1653 -0.7741  0.2948
13862SOL     OW47548   1.622   2.074   7.430  0.0140 -0.2189 -0.3462
13862SOL    HW147549   1.537   2.078   7.385  0.4677 -0.1652 -1.2067
13862SOL    HW247550   1.656   2.163   7.425  1.0504 -0.6549 -1.8586
13863SOL     OW47551   5.840   7.886  11.864  0.3088  0.1534  0.1125
13863SOL    HW147552   5.815   7.889  11.956  1.7884  0.2053  0.5300
13863SOL    HW247553   5.884   7.969  11.849 -0.1684  0.2672 -0.7328
13864SOL     OW47554   3.378   6.774   4.697  0.2876 -0.4848 -0.2351
13864SOL    HW147555   3.370   6.679   4.700  0.0779 -0.5261 -1.4342
13864SOL    HW247556   3.363   6.803   4.787 -0.7115 -1.5120 -0.0512
13865SOL     OW47557  11.317   4.168   4.007  0.0120  0.1630 -0.2313
13865SOL    HW147558  11.260   4.194   3.934  1.2124 -0.5216 -1.4701
13865SOL    HW247559  11.258   4.125   4.069 -0.9424  0.1785 -1.0989
13866SOL     OW47560   3.763   9.493   5.825  0.5402  0.2736  0.3136
13866SOL    HW147561   3.764   9.568   5.767  1.7296 -0.7703 -1.0799
13866SOL    HW247562   3.737   9.529   5.910  0.9271  2.2100 -0.3373
13867SOL     OW47563  10.596   1.083   6.309  0.1238 -0.1476 -0.2641
13867SOL    HW147564  10.540   1.027   6.255  0.8738 -0.9726 -0.1990
13867SOL    HW247565  10.582   1.053   6.398 -1.7711  1.7788  0.1654
13868SOL     OW47566  11.588   5.559   1.751 -0.1751 -0.2453 -0.4452
13868SOL    HW147567  11.510   5.503   1.756 -0.5378  0.2661 -0.3898
13868SOL    HW247568  11.637   5.523   1.677 -0.2164 -0.8808 -0.1762
13869SOL     OW47569   4.896   1.700   0.713 -1.1075 -0.0472 -0.2017
13869SOL    HW147570   4.951   1.707   0.791  0.6685 -1.3943 -1.2438
13869SOL    HW247571   4.816   1.747   0.735 -0.6015 -0.2602  2.3623
13870SOL     OW47572   8.846   0.476   7.374  0.6466  0.0800  0.0673
13870SOL    HW147573   8.783   0.418   7.331  1.1732 -0.7978  0.4444
13870SOL    HW247574   8.886   0.421   7.442  2.4203  0.3265 -0.7091
13871SOL     OW47575  10.263   7.599   9.589  0.1465 -0.5489  0.0038
13871SOL    HW147576  10.265   7.534   9.518 -0.3075  0.8368 -1.3369
13871SOL    HW247577  10.213   7.557   9.658  1.1893 -2.2091 -0.2015
13872SOL     OW47578   7.757   7.263   6.638  0.4004  0.3789 -0.2152
13872SOL    HW147579   7.730   7.330   6.701  1.1333 -1.0291  1.6678
13872SOL    HW247580   7.786   7.313   6.561 -0.4116  2.1426  0.5735
13873SOL     OW47581   0.204   3.122   1.128 -0.3101 -0.6120 -0.5157
13873SOL    HW147582   0.185   3.210   1.095 -0.7975 -0.4721  0.1107
13873SOL    HW247583   0.296   3.107   1.104  0.2222  0.6417  0.5908
13874SOL     OW47584   7.557  10.137   0.503  0.1790  0.0011 -0.6088
13874SOL    HW147585   7.481  10.150   0.446  1.6629  2.3256 -2.2119
13874SOL    HW247586   7.537  10.187   0.582 -1.2931 -2.1191  0.4664
13875SOL     OW47587   8.546   2.062  11.209  0.0741  0.0096  0.1067
13875SOL    HW147588   8.518   2.079  11.119 -2.5269 -1.3965  0.5605
13875SOL    HW247589   8.591   2.142  11.235 -2.8451  2.2129 -1.0825
13876SOL     OW47590   5.193   4.881   8.267 -0.1585 -0.3424 -0.3522
13876SOL    HW147591   5.181   4.873   8.173  2.3020  1.9565 -0.9771
13876SOL    HW247592   5.171   4.972   8.287 -0.8534 -0.8433  1.3800
13877SOL     OW47593   4.320   1.748   3.287  0.3693 -0.2123  0.0224
13877SOL    HW147594   4.273   1.832   3.294  0.0839 -0.4369  0.9568
13877SOL    HW247595   4.265   1.694   3.231  0.3285  0.0817 -0.2187
13878SOL     OW47596   1.407   3.995   1.405  0.1147 -0.0324 -0.0544
13878SOL    HW147597   1.356   4.065   1.364 -0.8261 -0.2177  0.7767
13878SOL    HW247598   1.469   3.967   1.336 -0.0550  1.0405 -0.6573
13879SOL     OW47599  11.176   1.141  11.883 -0.1071 -0.0933 -0.2387
13879SOL    HW147600  11.090   1.106  11.907 -1.6651  2.5590 -1.5142
13879SOL    HW247601  11.203   1.192  11.959  0.6391 -1.3511  0.3674
13880SOL     OW47602  12.024   4.191  12.355 -0.4764 -0.2952  0.6337
13880SOL    HW147603  11.965   4.119  12.333 -0.7288 -0.0772  0.6090
13880SOL    HW247604  12.104   4.147  12.385  0.8949 -0.6840 -3.1004
13881SOL     OW47605   7.481   8.662   9.513 -0.2478 -0.6749  0.0868
13881SOL    HW147606   7.435   8.603   9.454  1.8088 -2.1190 -0.1761
13881SOL    HW247607   7.531   8.604   9.570 -0.2415  0.7698  1.6248
13882SOL     OW47608   9.717   1.158   3.247 -0.3545  0.2582  0.2149
13882SOL    HW147609   9.793   1.165   3.189 -0.2897 -1.8953 -0.0442
13882SOL    HW247610   9.711   1.243   3.289  2.4580  0.3984  0.5245
13883SOL     OW47611   5.947   3.082   1.028  0.4789  0.1559 -0.0852
13883SOL    HW147612   6.024   3.139   1.035 -1.7234  3.5710 -1.2736
13883SOL    HW247613   5.939   3.063   0.934  0.6444 -1.4438  0.1941
13884SOL     OW47614   7.282   6.264   9.532 -0.3366 -0.1817 -0.1320
13884SOL    HW147615   7.284   6.170   9.514 -3.2932 -0.2250 -0.6546
13884SOL    HW247616   7.216   6.274   9.600 -0.0902  1.5427 -0.1050
13885SOL     OW47617   0.082   2.024  12.094  0.1622  0.6939 -0.1048
13885SOL    HW147618  -0.005   2.054  12.068  0.0700 -0.6780 -1.6221
13885SOL    HW247619   0.109   1.965  12.022  0.9273 -1.5456  1.8799
13886SOL     OW47620   8.639  10.098  11.316 -0.3582  0.8927 -0.2685
13886SOL    HW147621   8.652  10.004  11.324 -0.6801  0.9181  0.6725
13886SOL    HW247622   8.726  10.133  11.295 -0.0034  0.5069  0.5462
13887SOL     OW47623   5.256   6.389   2.035 -0.0947 -0.4245 -0.3972
13887SOL    HW147624   5.343   6.428   2.037  0.0416 -0.7377 -0.2312
13887SOL    HW247625   5.226   6.392   2.126  0.0641 -1.0401 -0.3239
13888SOL     OW47626   5.354   8.511  11.092  0.4289  0.5208  0.4439
13888SOL    HW147627   5.442   8.484  11.118  1.0900  1.7942 -0.3510
13888SOL    HW247628   5.296   8.444  11.128  1.9191 -1.7445 -1.1439
13889SOL     OW47629   2.699   6.415   0.222  0.0991  0.3377  0.3802
13889SOL    HW147630   2.691   6.495   0.170 -0.4647  0.1924  0.2346
13889SOL    HW247631   2.610   6.381   0.226  0.5014 -0.8670 -0.4712
13890SOL     OW47632   6.224   8.966  12.202 -0.3339  0.9837 -0.3824
13890SOL    HW147633   6.281   8.917  12.142 -1.2475  0.8770 -1.1917
13890SOL    HW247634   6.231   9.057  12.174 -1.1175  0.8747 -0.9791
13891SOL     OW47635   5.911   3.703   5.457  0.5109  0.8348  0.1807
13891SOL    HW147636   5.838   3.705   5.518  0.6150  0.1257  0.3347
13891SOL    HW247637   5.913   3.614   5.424  0.3895  1.2349 -0.9541
13892SOL     OW47638   5.619   4.720   9.673 -0.2648  0.4124 -0.4676
13892SOL    HW147639   5.706   4.681   9.685 -1.4868 -2.8527 -1.3140
13892SOL    HW247640   5.611   4.783   9.746  2.8810  1.1477 -0.5910
13893SOL     OW47641   0.865   2.691   9.147 -0.1192  0.0667 -0.0389
13893SOL    HW147642   0.823   2.754   9.089 -1.3206 -1.0620 -0.4422
13893SOL    HW247643   0.794   2.636   9.179  0.9677 -1.6157 -0.3519
13894SOL     OW47644  11.192  12.239   7.379  0.0405 -0.5558 -0.3381
13894SOL    HW147645  11.163  12.330   7.387 -0.5182 -0.7893  0.3542
13894SOL    HW247646  11.265  12.231   7.440  0.2921 -0.4951 -0.6270
13895SOL     OW47647   8.096  11.509   2.524 -0.1496 -0.0542  0.2171
13895SOL    HW147648   8.044  11.570   2.471  1.0978  0.4009 -0.5373
13895SOL    HW247649   8.177  11.496   2.473  0.4190 -0.8373  1.2807
13896SOL     OW47650   4.126   7.183   3.436 -1.1282 -0.4895  0.3495
13896SOL    HW147651   4.107   7.187   3.342 -0.5181 -0.2775  0.2263
13896SOL    HW247652   4.066   7.245   3.476 -0.3332  0.6021 -0.0944
13897SOL     OW47653   2.260  11.164   0.962 -0.2332  0.1513  0.1418
13897SOL    HW147654   2.230  11.216   1.036  0.6025 -0.0579  0.6465
13897SOL    HW247655   2.236  11.216   0.885  0.9472  1.5201  0.6416
13898SOL     OW47656   3.271   8.372  11.696  0.0613  0.0721  0.0810
13898SOL    HW147657   3.245   8.464  11.691 -0.3759 -0.1157 -2.0716
13898SOL    HW247658   3.190   8.323  11.680  0.7319 -0.6134 -1.4333
13899SOL     OW47659  11.486   8.548   8.968  0.3011  0.0411 -0.1090
13899SOL    HW147660  11.472   8.565   8.875 -0.6601  0.9719  0.1863
13899SOL    HW247661  11.404   8.508   8.998  0.9536 -1.1361  0.1468
13900SOL     OW47662   8.259   3.785   4.269  0.2853 -0.1324 -0.1902
13900SOL    HW147663   8.232   3.711   4.214  0.4969 -1.4047  1.3455
13900SOL    HW247664   8.271   3.857   4.207 -0.7933 -1.1221 -1.6431
13901SOL     OW47665  10.774  11.732   5.608 -0.0337 -0.1989 -0.1249
13901SOL    HW147666  10.823  11.814   5.609 -1.1420  0.4938  1.9378
13901SOL    HW247667  10.782  11.698   5.697  1.9942 -3.3886 -1.3248
13902SOL     OW47668   4.928   4.523   7.767 -0.1443 -0.2436 -0.3460
13902SOL    HW147669   4.904   4.539   7.858  0.9977  2.2426 -0.4146
13902SOL    HW247670   5.011   4.475   7.773 -0.7523 -1.2888 -0.1075
13903SOL     OW47671   8.037   1.016   3.983  0.1039 -0.6602 -0.0474
13903SOL    HW147672   8.087   1.053   4.056  1.0016 -1.5136 -0.2091
13903SOL    HW247673   8.101   0.966   3.933 -0.4690  0.0375 -1.5362
13904SOL     OW47674   2.965   9.183   2.347  0.3201  0.0655 -0.3742
13904SOL    HW147675   2.951   9.114   2.282  1.2789  0.4383 -0.9995
13904SOL    HW247676   2.909   9.255   2.318  0.0078 -0.1099 -0.2242
13905SOL     OW47677   8.416  10.524   2.942  0.2222 -0.1803  0.1932
13905SOL    HW147678   8.380  10.505   2.855  1.4452 -0.1150 -0.3491
13905SOL    HW247679   8.511  10.516   2.931  0.5265  1.5948  1.0619
13906SOL     OW47680   2.351   3.850  10.449  0.0304 -0.2974 -0.1272
13906SOL    HW147681   2.266   3.837  10.407 -0.7231 -0.7334  1.4466
13906SOL    HW247682   2.390   3.762  10.451  0.0514 -0.2840  0.0807
13907SOL     OW47683   7.041   2.092  11.128  0.0733 -0.5833 -0.1598
13907SOL    HW147684   6.950   2.121  11.125 -0.1550 -1.2277  0.1680
13907SOL    HW247685   7.065   2.100  11.220  0.7644  0.7723 -0.4310
13908SOL     OW47686   1.286   4.506   7.991  0.5043 -0.0173  0.6348
13908SOL    HW147687   1.349   4.436   8.006  0.4098 -0.0956  0.6728
13908SOL    HW247688   1.254   4.530   8.078 -1.0751 -1.4324  0.5038
13909SOL     OW47689   8.400   0.588   5.653  0.0202 -0.3785 -0.1612
13909SOL    HW147690   8.389   0.656   5.719 -0.3763 -1.8970  1.4008
13909SOL    HW247691   8.487   0.551   5.671 -0.4617 -1.3972  0.0950
13910SOL     OW47692   0.288   9.995   5.116  0.5487  0.8793 -0.1434
13910SOL    HW147693   0.277  10.089   5.133 -0.3317  1.0369 -1.4081
13910SOL    HW247694   0.205   9.956   5.143  0.6622  0.5572 -0.2536
13911SOL     OW47695   3.458  11.665  10.233 -0.5321  0.1415  0.1318
13911SOL    HW147696   3.367  11.651  10.208 -0.7499  0.0133  0.9779
13911SOL    HW247697   3.506  11.663  10.150 -1.5763  2.6643 -0.6433
13912SOL     OW47698  11.820   4.947   9.244 -0.3019 -0.0854 -0.0710
13912SOL    HW147699  11.891   4.986   9.295 -0.7435 -0.4094  0.8010
13912SOL    HW247700  11.743   4.999   9.267 -0.1303  1.1780 -2.0728
13913SOL     OW47701   6.752   8.400   1.352 -0.2846  0.1749  0.9289
13913SOL    HW147702   6.710   8.376   1.435 -0.4427 -1.3855  0.4363
13913SOL    HW247703   6.785   8.488   1.367  1.7056 -0.8527  3.4609
13914SOL     OW47704   1.482   3.423   7.352  0.1974  0.0594 -0.2858
13914SOL    HW147705   1.527   3.407   7.268 -1.0000 -0.1908 -0.8969
13914SOL    HW247706   1.553   3.433   7.415  1.1048 -1.6576 -0.9774
13915SOL     OW47707   1.279   6.183   1.486 -0.4058 -0.3107  0.1283
13915SOL    HW147708   1.332   6.228   1.552  0.4432 -1.2782  0.1318
13915SOL    HW247709   1.194   6.171   1.528  0.1990 -1.1549  1.1906
13916SOL     OW47710   8.452   0.815   9.191 -0.0310 -0.5377  0.1208
13916SOL    HW147711   8.385   0.873   9.227  1.9042  0.7890  1.8581
13916SOL    HW247712   8.409   0.769   9.119 -2.4551  0.9983  0.4905
13917SOL     OW47713   9.679   9.271   8.521  0.2248  0.4390  0.2431
13917SOL    HW147714   9.758   9.326   8.517  0.2276  0.4454  0.3666
13917SOL    HW247715   9.617   9.313   8.461 -0.7368  2.1132  2.2652
13918SOL     OW47716  10.071   4.874   8.720  0.1018  0.1398 -0.4617
13918SOL    HW147717  10.111   4.840   8.800  0.8563  1.2973 -0.3281
13918SOL    HW247718  10.121   4.834   8.649 -0.8700 -1.2585 -0.3949
13919SOL     OW47719   2.130  12.103   5.097 -0.3382 -0.1116  0.2592
13919SOL    HW147720   2.065  12.164   5.062 -1.4798 -0.8482  1.0383
13919SOL    HW247721   2.084  12.055   5.166  1.6855  0.9687  2.5217
13920SOL     OW47722  10.679   0.971   8.933  0.2834  0.1563 -0.2648
13920SOL    HW147723  10.644   1.009   9.014 -1.8294  1.0851 -1.5327
13920SOL    HW247724  10.746   1.033   8.904 -1.3537  1.6757 -0.9739
13921SOL     OW47725   1.739   2.013   4.149 -0.1685  0.4752  0.0504
13921SOL    HW147726   1.739   2.101   4.113  1.2062  0.2150 -0.6532
13921SOL    HW247727   1.694   2.021   4.233 -1.9341  1.4160 -0.9315
13922SOL     OW47728   6.983   1.541   5.176  0.4663  0.3986 -0.6967
13922SOL    HW147729   6.903   1.591   5.192  0.8050  0.8852 -0.5047
13922SOL    HW247730   6.959   1.451   5.200 -0.2642  0.3839 -1.4350
13923SOL     OW47731   5.985  11.378   3.651  0.3377 -0.3066 -0.7352
13923SOL    HW147732   6.045  11.449   3.628  0.8752 -0.5024  0.0451
13923SOL    HW247733   5.903  11.423   3.674  0.9208  0.1351  0.5740
13924SOL     OW47734   0.954  11.455  11.873  0.7236 -0.0373  0.7817
13924SOL    HW147735   1.015  11.529  11.873  0.8083  0.0091 -2.5224
13924SOL    HW247736   1.010  11.379  11.888  1.3046  0.1828 -0.2008
13925SOL     OW47737   4.938   9.416   0.467 -0.1701  0.7993 -0.4350
13925SOL    HW147738   4.874   9.476   0.505 -1.1781 -0.0536 -0.7469
13925SOL    HW247739   4.922   9.332   0.510  0.4504  0.4707 -0.8279
13926SOL     OW47740   3.777   5.104   9.289  0.4136  0.1234  0.3098
13926SOL    HW147741   3.830   5.025   9.273 -0.3564 -0.1893 -0.8867
13926SOL    HW247742   3.767   5.107   9.384  0.4793 -1.2278  0.3911
13927SOL     OW47743  10.516  10.135   6.742  0.0768 -0.2612  0.0083
13927SOL    HW147744  10.522  10.138   6.647 -1.9252  1.2204 -0.1586
13927SOL    HW247745  10.560  10.215   6.771 -2.1893  1.0709  0.0153
13928SOL     OW47746   5.603   0.649   9.300  0.0349  0.2554  0.3514
13928SOL    HW147747   5.687   0.693   9.313  0.1705 -0.5018  2.5253
13928SOL    HW247748   5.585   0.607   9.385 -2.2181 -0.1490 -0.2611
13929SOL     OW47749   6.482  12.288  11.827  0.0719  0.4932  0.2551
13929SOL    HW147750   6.396  12.251  11.809 -0.1807  0.6674  1.0590
13929SOL    HW247751   6.514  12.315  11.741 -0.2770 -0.4047 -0.1799
13930SOL     OW47752   9.090   9.220   6.411  0.1570 -0.2444 -0.3815
13930SOL    HW147753   9.067   9.218   6.503  1.6334 -0.9127  0.0155
13930SOL    HW247754   9.048   9.298   6.377 -0.6600 -0.1558  0.7882
13931SOL     OW47755   3.740   5.998   3.342  0.4144 -0.2559 -0.0530
13931SOL    HW147756   3.701   5.926   3.389 -1.8309 -0.0933 -1.5061
13931SOL    HW247757   3.748   6.068   3.407  1.3724 -1.3356  1.0397
13932SOL     OW47758   6.266   7.690   6.514  0.6721  0.3221 -0.3117
13932SOL    HW147759   6.181   7.663   6.548  0.9292  1.4828  1.4186
13932SOL    HW247760   6.280   7.635   6.437 -0.3261 -1.9818  1.0250
13933SOL     OW47761  10.823   1.973   2.412 -0.0037  0.0899  0.0311
13933SOL    HW147762  10.872   2.054   2.422 -0.3506  0.5578 -1.7287
13933SOL    HW247763  10.820   1.958   2.317 -3.4923  0.2542 -0.0040
13934SOL     OW47764   0.589   3.148   6.704  0.0053 -0.5749  0.7340
13934SOL    HW147765   0.495   3.159   6.691 -0.2113 -1.4117  1.4685
13934SOL    HW247766   0.605   3.056   6.683  0.8214 -0.2110 -0.2683
13935SOL     OW47767   2.770   1.041   4.992 -0.0611 -0.1060 -0.5066
13935SOL    HW147768   2.774   0.966   4.934  1.2252 -1.2092  0.9147
13935SOL    HW247769   2.680   1.074   4.984  0.0382 -0.3076 -2.9273
13936SOL     OW47770   3.548   9.022   4.316 -0.3901  0.2806 -0.0720
13936SOL    HW147771   3.505   8.937   4.317 -1.6373  0.8798 -0.2624
13936SOL    HW247772   3.615   9.015   4.248  0.4263 -0.9471  0.8142
13937SOL     OW47773   9.300  10.724  10.607  0.2076  0.4309  0.1766
13937SOL    HW147774   9.316  10.630  10.595  0.0814  0.1866  1.7492
13937SOL    HW247775   9.378  10.767  10.573  0.4296 -0.2665 -0.2028
13938SOL     OW47776   8.219  11.928   6.516  0.2934  0.4970 -0.2527
13938SOL    HW147777   8.156  12.000   6.510  0.4528  0.6190 -0.4905
13938SOL    HW247778   8.188  11.874   6.589 -0.9974 -0.3222 -1.3591
13939SOL     OW47779   0.761   1.927   2.429  0.5649  0.0295 -0.1830
13939SOL    HW147780   0.832   1.925   2.493  1.1206 -2.9703 -0.7415
13939SOL    HW247781   0.699   1.860   2.460 -1.5922  1.8354 -0.2811
13940SOL     OW47782   6.884   4.278  12.171  0.4676  0.4337  0.5604
13940SOL    HW147783   6.964   4.244  12.130 -0.1390  0.9128 -1.1207
13940SOL    HW247784   6.827   4.202  12.178  0.1838  0.5243 -0.5270
13941SOL     OW47785   4.967   9.770   6.642  0.2388 -0.4207 -0.1928
13941SOL    HW147786   5.012   9.705   6.587  1.3633 -0.0515  0.2605
13941SOL    HW247787   4.878   9.737   6.650  0.4772 -1.2887 -0.9585
13942SOL     OW47788   0.656   3.834   4.877  0.2165 -0.8513 -0.0187
13942SOL    HW147789   0.685   3.803   4.791  3.5392 -0.0473  0.6933
13942SOL    HW247790   0.647   3.754   4.929  1.2665 -1.1404 -0.2671
13943SOL     OW47791   8.670  11.742   2.210  0.1406 -0.3996  0.0892
13943SOL    HW147792   8.619  11.805   2.262 -0.8957 -2.1680  1.3098
13943SOL    HW247793   8.635  11.657   2.234  0.3773 -1.3988 -2.7754
13944SOL     OW47794   4.409   3.317  11.341 -0.2598  0.3275  0.2325
13944SOL    HW147795   4.444   3.229  11.352  0.0962  0.1358 -2.0246
13944SOL    HW247796   4.317   3.310  11.369  0.0332 -0.4802  1.0413
13945SOL     OW47797   7.857   0.792   2.440  0.0165  0.1747  0.3124
13945SOL    HW147798   7.949   0.819   2.433 -0.3823  2.0476  1.4236
13945SOL    HW247799   7.840   0.792   2.534 -1.1165 -0.1626  0.1172
13946SOL     OW47800   0.923   1.636   2.353 -0.4774 -0.0250 -0.6354
13946SOL    HW147801   0.921   1.695   2.428  2.8310 -0.0244 -0.4038
13946SOL    HW247802   0.891   1.553   2.387 -1.4214  0.6255  0.0893
13947SOL     OW47803   8.817   0.030   2.261  0.2721 -0.0470  0.4511
13947SOL    HW147804   8.905   0.017   2.225  0.0997  0.1310 -0.0514
13947SOL    HW247805   8.815  -0.022   2.341  1.0732  0.5303  0.8519
13948SOL     OW47806   8.872   8.772   0.260  0.1935 -0.4368 -0.4575
13948SOL    HW147807   8.883   8.862   0.230  1.0598  0.3733  2.0047
13948SOL    HW247808   8.778   8.761   0.272  0.0630  0.0444 -1.0188
13949SOL     OW47809   2.826   9.037  10.363 -0.6907  0.0480  0.0870
13949SOL    HW147810   2.765   9.019  10.435  1.0204  0.4642  1.7374
13949SOL    HW247811   2.831   8.954  10.315  0.4332 -1.2900  2.3305
13950SOL     OW47812  10.631  11.366   1.877  0.4311 -0.2345 -0.5557
13950SOL    HW147813  10.641  11.380   1.783 -0.0067  0.1620 -0.5456
13950SOL    HW247814  10.720  11.349   1.908  0.8689  1.4211 -0.7647
13951SOL     OW47815   3.395  12.018   2.377  0.6174  0.1637  0.0159
13951SOL    HW147816   3.465  11.959   2.406  0.4254  1.0134  2.4112
13951SOL    HW247817   3.412  12.100   2.423 -1.0310  0.9055 -0.6344
13952SOL     OW47818   7.269   2.573  11.395  0.2270 -0.6317  0.2016
13952SOL    HW147819   7.252   2.640  11.461 -0.2426  0.6829 -1.2003
13952SOL    HW247820   7.345   2.605  11.347 -1.3077  0.0895 -1.9083
13953SOL     OW47821   2.137   3.202   0.883 -0.0022  0.3050 -0.2384
13953SOL    HW147822   2.221   3.226   0.845 -0.1501 -2.0436 -2.3007
13953SOL    HW247823   2.107   3.128   0.831 -2.2160 -0.5220  1.9850
13954SOL     OW47824   7.329   8.560   2.303  0.4668  0.2735 -0.2864
13954SOL    HW147825   7.270   8.485   2.311  0.3194  0.3055 -1.0101
13954SOL    HW247826   7.417   8.524   2.316  0.6106 -0.4702 -2.8280
13955SOL     OW47827  11.823   0.754  12.422  0.1807  1.0255  0.0770
13955SOL    HW147828  11.892   0.751  12.489  1.0896  0.6443 -0.8395
13955SOL    HW247829  11.826   0.843  12.389  0.2035  1.0269  0.0821
13956SOL     OW47830   2.076   3.966   6.848  0.6992 -0.1313 -0.4016
13956SOL    HW147831   2.159   3.920   6.839 -0.0576 -1.3832 -1.3634
13956SOL    HW247832   2.013   3.912   6.800 -0.6161  0.9373  0.0413
13957SOL     OW47833  12.394   7.166   0.247  0.1197  0.3355  0.1710
13957SOL    HW147834  12.438   7.245   0.278  1.0201 -0.2819  0.5165
13957SOL    HW247835  12.449   7.094   0.279 -0.7355 -0.4341 -0.0513
13958SOL     OW47836  12.133   4.688  11.836 -0.5985  0.0341  0.4189
13958SOL    HW147837  12.228   4.683  11.837 -0.4659  1.9739  0.7366
13958SOL    HW247838  12.107   4.656  11.923 -0.2776 -0.8098  0.2127
13959SOL     OW47839   3.932   4.222   7.000  0.0952 -0.2930  1.1126
13959SOL    HW147840   3.986   4.144   7.013  2.1805  0.8064 -0.3985
13959SOL    HW247841   3.979   4.292   7.046 -0.8225  0.4268  0.9930
13960SOL     OW47842   2.960   2.922   7.067 -0.7743 -0.6303  0.0271
13960SOL    HW147843   2.979   2.841   7.114 -0.1129 -0.1110  0.6714
13960SOL    HW247844   3.034   2.979   7.087 -2.6742  1.2879  2.2277
13961SOL     OW47845  11.415   1.436   9.842  0.5204  0.0845  1.0094
13961SOL    HW147846  11.499   1.470   9.810  0.4136 -0.0330  0.6116
13961SOL    HW247847  11.350   1.466   9.779 -0.1649  2.5199  2.7070
13962SOL     OW47848   9.982  10.036   3.324 -0.2861 -0.6739  0.1692
13962SOL    HW147849   9.915  10.024   3.257 -1.3926  1.1157  0.8876
13962SOL    HW247850   9.948   9.990   3.400 -0.1145 -0.7952  0.1721
13963SOL     OW47851   7.792   5.540   7.004 -0.0546 -0.3008 -0.0385
13963SOL    HW147852   7.716   5.537   7.063 -0.7153 -0.1002 -0.8601
13963SOL    HW247853   7.865   5.565   7.061 -0.8840  1.0191  0.5084
13964SOL     OW47854   4.907   8.691  11.259 -0.3529 -0.2836  0.1925
13964SOL    HW147855   4.969   8.653  11.320  1.3180  0.3735 -1.0047
13964SOL    HW247856   4.953   8.692  11.175 -2.0642  0.0577 -0.8001
13965SOL     OW47857  11.216   2.232  12.432 -0.5360  0.0277  0.1127
13965SOL    HW147858  11.208   2.307  12.373  0.5749  0.7184  0.7816
13965SOL    HW247859  11.220   2.271  12.520  3.1937 -0.4279  0.3438
13966SOL     OW47860   6.845   6.197   3.256  0.5828 -0.3920  0.2238
13966SOL    HW147861   6.841   6.248   3.175  2.8921 -1.7183 -0.8057
13966SOL    HW247862   6.917   6.237   3.306  3.1188 -3.0277 -1.0308
13967SOL     OW47863   0.579   6.776   2.342  0.7349 -0.4400  0.0100
13967SOL    HW147864   0.619   6.774   2.429  0.5308  0.7109  0.1432
13967SOL    HW247865   0.614   6.855   2.302  1.2307 -1.2248 -1.1675
13968SOL     OW47866   6.958   9.875   8.641  0.6136 -0.7885  0.0731
13968SOL    HW147867   6.985   9.814   8.709  0.5268 -0.7105  0.1788
13968SOL    HW247868   6.974   9.962   8.679 -1.4748 -0.6803  0.8786
13969SOL     OW47869   6.394   8.473   6.377 -0.3751  0.0194 -0.1641
13969SOL    HW147870   6.482   8.436   6.385  0.4082  1.5633 -1.0368
13969SOL    HW247871   6.348   8.414   6.317  0.3697 -0.3098 -0.4252
13970SOL     OW47872   5.825   3.639   3.312  0.0319  0.1026 -0.2480
13970SOL    HW147873   5.782   3.657   3.395  1.4541 -0.7177  0.7097
13970SOL    HW247874   5.757   3.654   3.246 -1.7484 -1.2352  1.1799
13971SOL     OW47875  11.215   5.166   5.014 -0.3127 -0.0505  0.7054
13971SOL    HW147876  11.261   5.121   5.085 -1.6660 -0.0487  1.6016
13971SOL    HW247877  11.170   5.239   5.056  0.7235  1.3592 -0.5207
13972SOL     OW47878   0.841   7.304   8.308  0.5458 -0.2710  0.0932
13972SOL    HW147879   0.890   7.386   8.309  0.8414 -0.4110 -1.1628
13972SOL    HW247880   0.798   7.301   8.393  1.3617  0.6772  0.5612
13973SOL     OW47881   5.814  12.406  10.863 -0.5533  0.3441  0.3638
13973SOL    HW147882   5.856  12.433  10.945  0.2508  0.5335 -0.0999
13973SOL    HW247883   5.782  12.318  10.880  0.4101  0.0323  0.6015
13974SOL     OW47884   8.191   0.972  10.740 -0.3156  0.2953 -0.4372
13974SOL    HW147885   8.241   0.893  10.759 -0.6786  0.4276  1.2916
13974SOL    HW247886   8.256   1.033  10.705  0.7816  0.4324  1.6548
13975SOL     OW47887   3.841   4.528   7.402  0.2641  0.5916  0.1065
13975SOL    HW147888   3.872   4.463   7.465 -0.1556  0.0701 -0.2139
13975SOL    HW247889   3.811   4.601   7.456 -0.2498  0.0796  0.5232
13976SOL     OW47890  11.830   1.573   6.450  0.6158  0.0927  0.2694
13976SOL    HW147891  11.870   1.528   6.524 -1.7847 -2.6456  0.1039
13976SOL    HW247892  11.894   1.639   6.424  2.5217 -0.3713  3.2985
13977SOL     OW47893   6.384   0.899   2.065 -0.1091 -0.1004 -0.2075
13977SOL    HW147894   6.470   0.902   2.023 -0.0298 -1.9661 -0.2414
13977SOL    HW247895   6.396   0.840   2.140 -1.1132  0.4513  0.4064
13978SOL     OW47896   7.121  11.999   5.097  0.3164  0.0282 -0.0281
13978SOL    HW147897   7.117  11.910   5.063 -1.2787  0.3595 -0.8369
13978SOL    HW247898   7.156  11.990   5.186  1.4887 -1.2259 -0.5928
13979SOL     OW47899   1.775   6.608   1.202  0.0013  0.0621 -0.0687
13979SOL    HW147900   1.709   6.538   1.201  0.4767 -0.4543 -2.4544
13979SOL    HW247901   1.727   6.685   1.231 -1.0424 -0.8017  0.6148
13980SOL     OW47902   2.690  12.323  12.466  1.2950 -0.6199  0.3938
13980SOL    HW147903   2.684  12.369  12.382 -2.6982  0.0389  0.8204
13980SOL    HW247904   2.629  12.250  12.458  1.3714 -0.9800  2.4760
13981SOL     OW47905   2.961   3.019  10.595 -0.1114  0.0360 -0.3515
13981SOL    HW147906   2.995   3.071  10.668  0.7287 -0.4022 -0.4155
13981SOL    HW247907   2.894   2.963  10.635  1.0699 -0.9623  0.3271
13982SOL     OW47908   9.665  12.346   6.323  0.3300  0.0624 -0.4024
13982SOL    HW147909   9.704  12.264   6.353 -1.2345 -0.0791  1.4361
13982SOL    HW247910   9.722  12.415   6.357  1.3472 -0.2122 -1.4906
13983SOL     OW47911  11.338   6.248  11.639  0.3840 -0.2893 -0.0734
13983SOL    HW147912  11.397   6.240  11.564 -0.5705  1.0424 -1.0016
13983SOL    HW247913  11.345   6.340  11.665 -0.8995 -0.2329  0.1194
13984SOL     OW47914  11.932   0.878   3.482  0.2615  0.3215  0.2382
13984SOL    HW147915  11.956   0.875   3.575  0.3242  0.8917  0.2432
13984SOL    HW247916  11.842   0.847   3.480 -1.0985  3.7757  0.9906
13985SOL     OW47917   4.754   1.908   0.612  0.1448  0.4609 -0.4228
13985SOL    HW147918   4.683   1.854   0.577  0.8674 -1.3032  0.7022
13985SOL    HW247919   4.715   1.995   0.621 -2.8900 -0.9814  2.8841
13986SOL     OW47920   9.226   0.160   3.969 -0.2215  0.6884 -0.5646
13986SOL    HW147921   9.239   0.116   4.053  1.6597  0.6286 -0.8512
13986SOL    HW247922   9.311   0.199   3.949 -1.1603  2.3131 -1.5524
13987SOL     OW47923   2.589   8.361   1.801 -0.0068  0.1937  0.5223
13987SOL    HW147924   2.653   8.291   1.784 -0.1774  0.2121 -0.2146
13987SOL    HW247925   2.552   8.381   1.715 -0.1134  1.0489  0.7606
13988SOL     OW47926   0.972   6.473  11.154 -0.1061  0.9545  0.5626
13988SOL    HW147927   0.926   6.477  11.238 -0.3452 -1.6309  0.6246
13988SOL    HW247928   1.048   6.417  11.171 -0.1388  0.4081 -0.9524
13989SOL     OW47929   2.913   4.371   1.090  0.2950  0.5844  0.0786
13989SOL    HW147930   2.928   4.452   1.138  1.2137  0.3728  0.1698
13989SOL    HW247931   2.880   4.309   1.156 -1.6504  1.2186 -0.2379
13990SOL     OW47932   5.118   9.764  11.928  0.7112 -0.0898 -0.0829
13990SOL    HW147933   5.038   9.766  11.980  0.5962  0.2255 -0.2740
13990SOL    HW247934   5.182   9.815  11.979  0.1732  1.5075 -0.9520
13991SOL     OW47935   8.328   9.246   1.445 -0.4043 -0.4390 -0.3973
13991SOL    HW147936   8.308   9.174   1.505  0.0206 -0.2632 -0.0371
13991SOL    HW247937   8.251   9.303   1.450  0.0576  0.1380  0.8391
13992SOL     OW47938   3.020   8.722   8.172 -0.0013  0.2039 -0.0330
13992SOL    HW147939   2.976   8.730   8.087  0.9487  1.7040 -0.4398
13992SOL    HW247940   2.999   8.804   8.217  2.1770  0.9119 -0.1881
13993SOL     OW47941   2.358   6.434  10.867 -0.0534  0.1768 -0.0867
13993SOL    HW147942   2.311   6.418  10.785  0.4859  0.0138 -0.3660
13993SOL    HW247943   2.332   6.523  10.892  1.9596  1.3686 -1.9293
13994SOL     OW47944   1.842  11.413  11.204 -0.1510 -0.1882 -0.5721
13994SOL    HW147945   1.840  11.334  11.150 -0.0870 -1.5604  1.3301
13994SOL    HW247946   1.751  11.444  11.204 -0.4287 -0.9785 -0.3494
13995SOL     OW47947   7.354   1.115   8.005 -0.9376 -0.2499 -0.3208
13995SOL    HW147948   7.446   1.128   7.984 -0.8193  0.2447  0.4433
13995SOL    HW247949   7.338   1.023   7.987  0.3996 -1.0078  2.0002
13996SOL     OW47950   5.253   9.843   4.616 -0.0333 -0.4717  0.0272
13996SOL    HW147951   5.331   9.884   4.655  0.4893  0.1946 -1.6080
13996SOL    HW247952   5.278   9.752   4.601  0.6248 -0.1637 -0.8727
13997SOL     OW47953   0.280   9.645   9.120  0.3387  0.5258  0.1088
13997SOL    HW147954   0.254   9.579   9.055 -0.6979  1.3820 -0.3811
13997SOL    HW247955   0.280   9.598   9.204 -0.5846 -0.0659 -0.2075
13998SOL     OW47956   7.837  11.467   2.238 -0.6124 -0.6116 -0.1210
13998SOL    HW147957   7.912  11.410   2.217  0.4521  0.0025  1.7817
13998SOL    HW247958   7.841  11.537   2.172  0.0092 -1.0043 -0.5171
13999SOL     OW47959   6.174   3.353   5.710  0.3024 -0.6387 -0.2277
13999SOL    HW147960   6.222   3.292   5.766 -1.4336 -0.1030  2.0052
13999SOL    HW247961   6.162   3.431   5.764 -2.3043 -0.4519 -0.9209
14000SOL     OW47962   6.555   8.941   1.231  0.5228  0.6925 -0.4606
14000SOL    HW147963   6.543   8.939   1.326  0.0124 -0.3984 -0.5247
14000SOL    HW247964   6.494   9.008   1.200  1.0815  1.4347  0.0192
14001SOL     OW47965   5.285   6.328   0.869 -0.5529 -0.5184 -1.4016
14001SOL    HW147966   5.348   6.319   0.798  0.9094 -1.3119 -0.0681
14001SOL    HW247967   5.227   6.252   0.858 -1.0426 -0.0327 -2.3628
14002SOL     OW47968   8.503   8.824   9.667  0.1218 -0.6089  0.1902
14002SOL    HW147969   8.483   8.752   9.607 -0.4444  1.6571 -2.5028
14002SOL    HW247970   8.435   8.889   9.650  1.7753  1.4539  1.0026
14003SOL     OW47971   6.036  10.440   5.202  0.0334  0.2622  0.5043
14003SOL    HW147972   5.992  10.477   5.125  1.7519  2.1538  0.3520
14003SOL    HW247973   5.969  10.384   5.243 -1.7115  1.1336 -0.9827
14004SOL     OW47974   0.919   0.934   4.946  0.3980  0.8496  0.3060
14004SOL    HW147975   1.012   0.916   4.930 -0.1326 -2.3530  0.2329
14004SOL    HW247976   0.874   0.892   4.874 -1.2019  0.3865  1.5239
14005SOL     OW47977  11.687   6.844  10.236 -0.4075  0.3723 -0.1362
14005SOL    HW147978  11.728   6.927  10.259 -1.4995  0.7278  0.5971
14005SOL    HW247979  11.726   6.781  10.296 -0.5122  0.6023  0.1765
14006SOL     OW47980   3.962   4.732   0.436  0.0339  0.7715 -0.0847
14006SOL    HW147981   4.052   4.742   0.468 -0.3390  2.3449  0.5645
14006SOL    HW247982   3.935   4.820   0.413 -1.0372  0.1863 -1.2022
14007SOL     OW47983  10.862   3.221   2.252  0.2198  0.3092  0.2406
14007SOL    HW147984  10.883   3.304   2.209 -0.0196 -0.5554 -1.6034
14007SOL    HW247985  10.925   3.158   2.216 -0.6006 -0.6437  0.4380
14008SOL     OW47986   9.829   8.606   8.518 -0.6413  0.5269 -0.3518
14008SOL    HW147987   9.895   8.565   8.573 -2.0885 -0.7178  0.5397
14008SOL    HW247988   9.746   8.574   8.552 -1.6617  0.8582 -2.3607
14009SOL     OW47989   4.424   7.276   3.960  0.5677 -0.3028  0.1216
14009SOL    HW147990   4.385   7.292   4.047 -0.2251 -0.3550 -0.2168
14009SOL    HW247991   4.516   7.299   3.971  0.1946  1.1058  0.6063
14010SOL     OW47992   1.332  10.454   6.545  0.0449 -0.2568  0.4128
14010SOL    HW147993   1.404  10.457   6.608  0.9374 -0.4744 -0.5702
14010SOL    HW247994   1.343  10.371   6.499 -0.0128  0.3157 -0.6781
14011SOL     OW47995   7.147   4.527   8.317  0.0819 -0.1312 -0.1241
14011SOL    HW147996   7.072   4.510   8.374  1.4775 -0.7526  1.6213
14011SOL    HW247997   7.154   4.449   8.262 -0.9267  0.2261 -0.7961
14012SOL     OW47998   9.297   5.218   1.306  0.4211 -0.1823  0.2763
14012SOL    HW147999   9.339   5.228   1.220  1.2734 -1.9197  0.4593
14012SOL    HW248000   9.369   5.226   1.369  0.3690 -2.1556  0.6412
14013SOL     OW48001  12.029   1.993   6.050  0.0271  0.1326 -0.7527
14013SOL    HW148002  11.967   1.980   6.122  2.5662 -0.3575  1.5316
14013SOL    HW248003  12.042   2.088   6.046  1.0439  0.0833  0.6053
14014SOL     OW48004   9.372   6.320   2.343 -0.3822  0.2189  0.2368
14014SOL    HW148005   9.436   6.359   2.402 -0.5260  1.7489 -0.5704
14014SOL    HW248006   9.414   6.240   2.310  0.9549  0.9892  0.0201
14015SOL     OW48007   9.946   6.510   9.809  0.7102 -0.0396 -0.2117
14015SOL    HW148008   9.891   6.434   9.830  1.2479 -0.2056  0.6635
14015SOL    HW248009   9.987   6.489   9.726 -0.9958  0.3420 -1.1974
14016SOL     OW48010   8.860   2.948   3.991 -0.1740  0.3044 -0.2311
14016SOL    HW148011   8.941   2.899   4.007 -0.5357 -0.4831 -0.7464
14016SOL    HW248012   8.888   3.027   3.946  0.2010 -0.5375 -1.5053
14017SOL     OW48013   0.838   4.393   4.864  0.2395 -0.3021 -0.0518
14017SOL    HW148014   0.799   4.309   4.838  0.2256 -0.2991 -0.0397
14017SOL    HW248015   0.878   4.375   4.949 -2.2458  0.4616  1.3479
14018SOL     OW48016   7.507   9.784   9.894 -0.2417 -0.6171 -0.2367
14018SOL    HW148017   7.560   9.764   9.817 -1.2710 -0.7649 -0.9287
14018SOL    HW248018   7.479   9.874   9.881 -1.7630 -1.1351 -0.9011
14019SOL     OW48019  11.403   5.450   9.161  0.0001 -0.1024  0.3126
14019SOL    HW148020  11.408   5.536   9.204  2.8813 -0.2528  0.4759
14019SOL    HW248021  11.358   5.467   9.078  0.5477  1.5969  0.3284
14020SOL     OW48022   2.569   4.485   6.242 -0.1791 -0.3639  0.3482
14020SOL    HW148023   2.598   4.561   6.192  1.6499  0.1332  2.0160
14020SOL    HW248024   2.514   4.521   6.311 -0.9966 -0.8192 -0.0459
14021SOL     OW48025   0.710   4.110  11.287  0.3933 -0.1313  0.2742
14021SOL    HW148026   0.693   4.040  11.351 -1.5266  1.2530  1.3765
14021SOL    HW248027   0.690   4.070  11.202 -1.1982 -0.8027  0.9219
14022SOL     OW48028   0.701   3.785   3.025  0.5434 -0.4252 -0.3403
14022SOL    HW148029   0.635   3.770   3.093 -2.5836  0.2101 -3.0005
14022SOL    HW248030   0.731   3.875   3.039 -0.1197 -0.2794  0.1437
14023SOL     OW48031   2.510   0.509   1.506 -0.0039  0.0212 -0.0613
14023SOL    HW148032   2.433   0.554   1.540  0.9804  0.8586  1.1320
14023SOL    HW248033   2.497   0.418   1.532 -0.6237  0.1308  0.0463
14024SOL     OW48034   0.963   5.979   8.866  0.2039 -0.7051 -0.6522
14024SOL    HW148035   0.968   6.033   8.787 -0.7813 -0.2733 -0.4350
14024SOL    HW248036   0.906   5.907   8.841 -0.5738 -0.2659 -0.1785
14025SOL     OW48037   7.250   5.888  10.086 -0.1288  0.2162  0.1667
14025SOL    HW148038   7.335   5.856  10.054 -0.3127  0.0178 -0.1351
14025SOL    HW248039   7.263   5.899  10.180 -0.3307 -1.7036  0.4641
14026SOL     OW48040   3.051   4.009   5.465  0.0499 -0.2029  0.7503
14026SOL    HW148041   3.099   4.038   5.543 -1.2287  0.6055  1.2627
14026SOL    HW248042   3.090   4.059   5.394 -0.2652  0.7407  1.2200
14027SOL     OW48043   2.696  11.265   3.679  0.1738 -0.1537 -0.0982
14027SOL    HW148044   2.646  11.184   3.671 -0.3764  0.1086  0.5556
14027SOL    HW248045   2.747  11.253   3.759  1.1069 -0.3864 -0.7198
14028SOL     OW48046  11.518   9.732   6.631 -0.0114 -0.1931  0.1789
14028SOL    HW148047  11.538   9.669   6.700 -1.8881  0.6280  1.5478
14028SOL    HW248048  11.589   9.796   6.636 -0.7353  0.5284  2.2362
14029SOL     OW48049   1.458  10.696  12.156  0.2800 -0.1024  0.5874
14029SOL    HW148050   1.430  10.677  12.066 -0.5721  0.3200  0.7553
14029SOL    HW248051   1.491  10.612  12.189 -0.9340 -0.6624  0.4188
14030SOL     OW48052   2.486   3.445   0.246 -0.4064 -0.6679  0.2437
14030SOL    HW148053   2.424   3.433   0.318  0.9742 -4.5275  1.0017
14030SOL    HW248054   2.552   3.506   0.281 -2.3518  1.5349  0.2922
14031SOL     OW48055  10.683  11.468   8.752 -0.0969  0.0435 -0.0609
14031SOL    HW148056  10.606  11.509   8.713  0.8651 -0.1983 -2.3256
14031SOL    HW248057  10.757  11.518   8.718  0.8346 -0.4424  1.1586
14032SOL     OW48058  12.467   7.670   4.599  0.4018 -0.0208  0.4595
14032SOL    HW148059  12.404   7.653   4.529  0.7007  1.2176 -0.1344
14032SOL    HW248060  12.428   7.629   4.677  0.0475 -1.3816 -0.4027
14033SOL     OW48061   7.525  10.462   9.917 -0.3547  0.5691 -1.0525
14033SOL    HW148062   7.573  10.516   9.979  0.1951  0.8322 -1.6900
14033SOL    HW248063   7.570  10.377   9.919 -0.1086  0.6915 -1.3555
14034SOL     OW48064  10.518  11.235   7.495  0.4088 -0.3859 -0.1834
14034SOL    HW148065  10.548  11.266   7.410  1.4431 -0.4077  0.1517
14034SOL    HW248066  10.478  11.150   7.477 -0.7860  0.3075 -0.8507
14035SOL     OW48067   2.069   5.364   8.620  0.5637 -0.1588 -0.6767
14035SOL    HW148068   2.125   5.315   8.681  0.5064 -0.1843 -0.6449
14035SOL    HW248069   2.105   5.344   8.534  0.4582 -0.3669 -0.6742
14036SOL     OW48070   0.983   0.150  11.359  0.1930 -0.6275  0.0294
14036SOL    HW148071   0.960   0.241  11.338 -0.7726 -0.6745  0.8081
14036SOL    HW248072   1.008   0.112  11.275 -2.0777 -0.4084 -0.8185
14037SOL     OW48073   8.670   5.261  11.429  0.5418  0.2678 -0.2483
14037SOL    HW148074   8.585   5.304  11.423  1.6343  2.5153 -0.4481
14037SOL    HW248075   8.653   5.180  11.478 -1.7732  0.3888 -0.7595
14038SOL     OW48076   0.553   5.962   7.498  0.4684  0.4015 -0.4396
14038SOL    HW148077   0.605   5.898   7.547 -3.3030 -1.8316  1.0549
14038SOL    HW248078   0.593   6.046   7.519  2.4691 -0.9730  1.8689
14039SOL     OW48079   7.664   8.116   9.066 -0.3322 -0.3139 -0.0391
14039SOL    HW148080   7.743   8.130   9.013  0.0122  0.7547  0.7118
14039SOL    HW248081   7.620   8.042   9.025  0.0543  0.3111 -1.6453
14040SOL     OW48082   2.982  11.717   8.352 -0.1228 -0.2347 -0.6362
14040SOL    HW148083   3.077  11.711   8.364 -0.3217 -1.3816  0.6339
14040SOL    HW248084   2.946  11.653   8.413 -1.8622  2.3915  1.3606
14041SOL     OW48085   5.091   8.485   2.734 -0.0635  0.4940  0.4529
14041SOL    HW148086   4.999   8.491   2.759  0.2113  0.2432  1.5725
14041SOL    HW248087   5.139   8.511   2.813  0.8377 -0.7465  0.3418
14042SOL     OW48088   8.140   4.502   5.319  0.0979 -0.1629 -0.3779
14042SOL    HW148089   8.107   4.444   5.388  0.2569  0.0219 -0.1440
14042SOL    HW248090   8.214   4.455   5.282  1.5823  0.7953  1.2467
14043SOL     OW48091   9.519   7.887  10.391  0.2418 -0.2572  0.4749
14043SOL    HW148092   9.555   7.975  10.380 -1.9970  0.6773 -0.0200
14043SOL    HW248093   9.458   7.896  10.464 -2.0072 -0.6757 -1.2582
14044SOL     OW48094   7.596   0.984   3.489 -0.2506  0.1540  0.4014
14044SOL    HW148095   7.543   0.963   3.412 -0.0700 -0.8011  0.5241
14044SOL    HW248096   7.637   1.068   3.468  0.2507 -0.3678 -0.8008
14045SOL     OW48097   1.824   5.057   4.912  0.4446 -0.7346 -0.8708
14045SOL    HW148098   1.837   5.122   4.981  0.6972  1.1342 -2.5853
14045SOL    HW248099   1.904   5.005   4.913  1.8523  1.2998 -1.7547
14046SOL     OW48100   7.951   0.101  11.575 -0.0136  0.1720  0.5294
14046SOL    HW148101   7.974   0.106  11.483 -1.1601 -1.3561  0.1061
14046SOL    HW248102   8.031   0.074  11.619  0.4351  0.5082 -0.0753
14047SOL     OW48103  11.975   1.018   3.259 -0.5785 -0.1733  0.0689
14047SOL    HW148104  11.954   0.947   3.320  0.1078 -1.3587 -1.0158
14047SOL    HW248105  12.071   1.016   3.253 -0.6402 -0.0426 -1.0175
14048SOL     OW48106   8.403   9.574  10.135  0.1325  0.5303 -0.8654
14048SOL    HW148107   8.360   9.588  10.051  0.3999  0.9579 -0.9339
14048SOL    HW248108   8.392   9.657  10.182 -1.3839 -0.1953  0.1593
14049SOL     OW48109   4.453   7.464  11.728  0.2858 -0.5392 -0.2469
14049SOL    HW148110   4.528   7.495  11.678 -0.9960  1.1980 -1.1715
14049SOL    HW248111   4.464   7.502  11.815 -0.4608  1.3505 -0.9278
14050SOL     OW48112   8.970   2.756   7.379 -0.0978  0.4885  0.1860
14050SOL    HW148113   8.939   2.843   7.353  0.2576  0.7890  0.7419
14050SOL    HW248114   9.050   2.774   7.429 -0.2839 -0.1262  0.7172
14051SOL     OW48115   6.489   5.002   9.747 -0.0826  0.5280  0.2695
14051SOL    HW148116   6.412   5.001   9.805 -0.5801 -1.0097 -0.3719
14051SOL    HW248117   6.554   4.951   9.795 -0.8587 -1.7229 -0.9093
14052SOL     OW48118   6.754   2.904   1.580  0.2715  0.1588  0.7471
14052SOL    HW148119   6.678   2.860   1.541  1.1723 -0.9320  0.1600
14052SOL    HW248120   6.808   2.833   1.615  1.1751  0.8897  0.8715
14053SOL     OW48121  11.830   3.179   3.199 -0.2174 -0.2852  0.9278
14053SOL    HW148122  11.857   3.087   3.201 -0.0947 -0.2586  0.6398
14053SOL    HW248123  11.852   3.213   3.285  2.5548  0.2640  0.0841
14054SOL     OW48124   6.526   6.322   1.002  0.0264  0.3890  0.5176
14054SOL    HW148125   6.473   6.279   1.069 -2.2892 -0.5750 -1.7278
14054SOL    HW248126   6.606   6.269   0.996  0.4182  0.6776  2.6247
14055SOL     OW48127   3.462   8.137   2.259 -0.3201 -0.4311  0.5956
14055SOL    HW148128   3.504   8.183   2.186 -3.4602  1.1190 -0.4401
14055SOL    HW248129   3.506   8.169   2.337  0.5100  0.9548 -0.4053
14056SOL     OW48130  11.264   4.434   7.927 -0.2325  0.0574 -0.3294
14056SOL    HW148131  11.198   4.501   7.940 -0.9961 -0.5956 -0.7551
14056SOL    HW248132  11.304   4.456   7.843 -0.8919 -0.3457 -0.7582
14057SOL     OW48133   3.449   9.940   1.525 -0.5727  0.3522  0.1043
14057SOL    HW148134   3.468   9.998   1.599  0.6030  0.3166 -0.1598
14057SOL    HW248135   3.535   9.915   1.491 -1.0904  0.2487 -1.1897
14058SOL     OW48136   1.471   5.534   0.973  0.5844  0.1178 -0.1581
14058SOL    HW148137   1.409   5.546   0.901  1.3240  0.7526 -0.7149
14058SOL    HW248138   1.504   5.445   0.963 -0.2213 -0.2191  0.1363
14059SOL     OW48139  10.371  10.683  10.243 -0.0601 -0.2847  0.0048
14059SOL    HW148140  10.444  10.683  10.304  0.9148 -1.4519 -1.1012
14059SOL    HW248141  10.411  10.674  10.157 -1.3939  1.3875 -0.8509
14060SOL     OW48142  11.816   5.457   4.319 -0.6190 -0.3431 -0.2017
14060SOL    HW148143  11.764   5.463   4.238 -1.9805 -2.5897  0.4219
14060SOL    HW248144  11.902   5.429   4.290 -0.7690 -0.0382 -0.9675
14061SOL     OW48145   9.570   1.520   7.411 -0.3872  0.1579 -0.5877
14061SOL    HW148146   9.584   1.528   7.506  0.8700  1.2820 -0.8425
14061SOL    HW248147   9.493   1.574   7.393 -0.8296 -0.3255 -0.1694
14062SOL     OW48148   1.663   8.091   4.297  0.5428 -0.1446  0.0197
14062SOL    HW148149   1.735   8.151   4.314  1.9755 -1.9562  0.6469
14062SOL    HW248150   1.647   8.048   4.382  0.2691 -1.3740 -0.6249
14063SOL     OW48151  12.439   2.179  11.747 -0.1970  0.3237 -0.2113
14063SOL    HW148152  12.441   2.233  11.826 -0.4335  0.7344 -0.4807
14063SOL    HW248153  12.522   2.197  11.703  1.3964 -2.2467  1.4497
14064SOL     OW48154   0.562   5.162  12.049  0.5327  0.0567 -0.5046
14064SOL    HW148155   0.576   5.248  12.088  1.3241 -0.2200 -0.1596
14064SOL    HW248156   0.494   5.122  12.104  1.1052 -0.0416  0.1404
14065SOL     OW48157   8.858  12.045  11.976 -0.4215 -0.1431  0.2196
14065SOL    HW148158   8.911  12.096  12.038  1.1426 -1.7674  0.2952
14065SOL    HW248159   8.788  12.105  11.950 -0.0852  1.1982  2.1545
14066SOL     OW48160   5.615  10.009   9.181 -0.5951 -0.2953  0.8719
14066SOL    HW148161   5.619   9.986   9.274  0.6606 -1.2342  0.6205
14066SOL    HW248162   5.678  10.080   9.171 -2.2746  1.3006  1.0871
14067SOL     OW48163   1.748   4.830   4.552 -0.5845 -0.2768 -0.2747
14067SOL    HW148164   1.814   4.781   4.503  1.0891  0.9389  0.6928
14067SOL    HW248165   1.690   4.762   4.587  0.7056 -1.4469 -0.3297
14068SOL     OW48166  10.654  10.528  12.086  0.0641  0.0503  0.1674
14068SOL    HW148167  10.586  10.519  12.153 -1.4593 -0.5577 -1.3860
14068SOL    HW248168  10.609  10.568  12.012  2.3227  3.2202  0.3337
14069SOL     OW48169   2.999   0.100   5.358 -0.2038 -0.3771  0.2098
14069SOL    HW148170   3.050   0.024   5.329  2.2163  0.6591  1.5534
14069SOL    HW248171   2.910   0.081   5.327  0.7950 -2.5741 -1.6556
14070SOL     OW48172   3.595  12.266  11.865 -0.6221  0.0672  0.4697
14070SOL    HW148173   3.620  12.308  11.783  1.0720 -1.7067 -0.0021
14070SOL    HW248174   3.574  12.176  11.841 -0.4643 -0.3835  1.9161
14071SOL     OW48175   3.060  10.991   5.820 -0.2822  0.0914  0.3423
14071SOL    HW148176   3.093  11.062   5.876 -1.3004  0.9173 -0.0915
14071SOL    HW248177   3.100  11.007   5.735 -0.7250  0.2949  0.1739
14072SOL     OW48178   1.093   6.769   1.173  0.4974 -0.7570 -0.4462
14072SOL    HW148179   1.105   6.691   1.120 -3.3522 -0.4541 -2.0701
14072SOL    HW248180   1.051   6.738   1.253  3.7218 -0.8326  1.4104
14073SOL     OW48181   8.199   5.200   1.423 -0.3830 -0.1226  0.5896
14073SOL    HW148182   8.219   5.267   1.357 -2.6939  0.7157  0.6353
14073SOL    HW248183   8.123   5.154   1.388 -0.9448 -0.4279  2.1459
14074SOL     OW48184   3.432   3.267   4.538  0.4588 -0.0662  0.3828
14074SOL    HW148185   3.461   3.179   4.513 -0.0227 -0.4259  1.0767
14074SOL    HW248186   3.345   3.255   4.575  0.0238  0.8200 -0.3004
14075SOL     OW48187  10.042  11.792   8.484  0.5639 -0.0498 -0.0766
14075SOL    HW148188   9.954  11.773   8.453  0.5668  0.3488 -0.3367
14075SOL    HW248189  10.069  11.713   8.530  0.1568 -0.2552 -0.1875
14076SOL     OW48190   7.466   8.433   8.974  0.5050  0.2044 -0.0970
14076SOL    HW148191   7.481   8.390   8.890 -0.3831 -0.4100  0.0377
14076SOL    HW248192   7.538   8.495   8.983  0.7525  0.0975 -1.1911
14077SOL     OW48193  10.804   9.180   0.568  0.1932 -0.1098 -0.2817
14077SOL    HW148194  10.753   9.212   0.643 -0.9147  0.2934 -1.1862
14077SOL    HW248195  10.802   9.084   0.577 -0.0560 -0.0682  0.1186
14078SOL     OW48196   6.040   7.783   6.375  0.2519 -0.0490 -0.0324
14078SOL    HW148197   6.130   7.757   6.355  0.9363 -0.5039  3.1289
14078SOL    HW248198   6.028   7.757   6.466 -2.2099  2.4272  0.4564
14079SOL     OW48199   6.533  10.997   8.104  0.5207  0.3432 -0.5684
14079SOL    HW148200   6.502  11.077   8.060 -0.3938  0.0318 -0.5081
14079SOL    HW248201   6.490  10.926   8.057 -0.1953 -0.0152  0.5746
14080SOL     OW48202   7.050   6.310   0.064  0.0551 -0.0420 -0.0399
14080SOL    HW148203   7.098   6.342  -0.013  0.0228 -0.4247 -0.2173
14080SOL    HW248204   7.004   6.388   0.096 -2.0500 -0.3907 -1.9320
14081SOL     OW48205   4.357   5.338  10.974 -0.1637  0.2923 -0.0316
14081SOL    HW148206   4.424   5.345  10.906  0.2027 -2.0482  0.0305
14081SOL    HW248207   4.391   5.393  11.045 -1.3175  4.1428 -2.1428
14082SOL     OW48208   1.029   4.522  11.644 -0.5832  0.4468 -0.0611
14082SOL    HW148209   0.991   4.564  11.721 -1.9952 -0.0060 -0.4748
14082SOL    HW248210   1.110   4.483  11.675 -1.9818 -1.2810  1.6816
14083SOL     OW48211   8.399   7.893  10.510  0.1799  0.3594  0.1737
14083SOL    HW148212   8.467   7.948  10.549 -0.5356  0.9479  0.6293
14083SOL    HW248213   8.328   7.894  10.574 -0.4427  0.1371 -0.5000
14084SOL     OW48214   1.478   2.128   2.334  0.1986 -0.5345  0.2074
14084SOL    HW148215   1.526   2.080   2.267  1.2083 -0.1886  0.6699
14084SOL    HW248216   1.510   2.092   2.417  0.0926  0.1086  0.5360
14085SOL     OW48217  11.645   4.934   3.497 -0.4806  0.2807  0.4144
14085SOL    HW148218  11.553   4.960   3.486 -0.6031 -0.7389 -1.4172
14085SOL    HW248219  11.648   4.845   3.463  1.0756  0.0510  1.0901
14086SOL     OW48220   9.004   3.069   2.823  0.2931 -0.1440  0.1367
14086SOL    HW148221   8.919   3.110   2.840  0.4770 -0.0323  0.8254
14086SOL    HW248222   9.007   2.995   2.884  1.2982  0.7296  1.1902
14087SOL     OW48223   2.034   8.902   0.776  0.0164  0.1809 -0.1812
14087SOL    HW148224   2.070   8.897   0.688 -0.8208 -0.3146 -0.4987
14087SOL    HW248225   1.987   8.986   0.778 -0.6485 -0.1781 -0.4752
14088SOL     OW48226   5.331   8.582   4.726  0.1448 -0.4388  0.0837
14088SOL    HW148227   5.386   8.556   4.651  0.9811 -0.7346  0.7750
14088SOL    HW248228   5.330   8.504   4.782  0.2552  0.0614  0.7864
14089SOL     OW48229   1.739   4.246   8.580  0.0987  0.2901 -0.8823
14089SOL    HW148230   1.823   4.265   8.538  0.6205  1.6095  0.6720
14089SOL    HW248231   1.731   4.311   8.650 -2.2433  0.2228 -0.9948
14090SOL     OW48232   0.304   4.855  10.717 -0.1715 -0.0346 -0.0008
14090SOL    HW148233   0.325   4.782  10.660  0.9757  0.4675 -0.2506
14090SOL    HW248234   0.389   4.885  10.750 -0.7702 -0.1097  1.7208
14091SOL     OW48235   7.151   2.525   3.491 -0.1249  0.1103 -0.1033
14091SOL    HW148236   7.090   2.467   3.444 -1.6537  1.8455 -0.4001
14091SOL    HW248237   7.187   2.471   3.561 -2.5162 -0.8721  0.4821
14092SOL     OW48238   4.028   2.246   8.549  0.2293 -0.2000 -0.4509
14092SOL    HW148239   4.102   2.213   8.499 -0.1313 -2.8653  0.5699
14092SOL    HW248240   4.063   2.317   8.602  1.9366 -1.0377 -0.4072
14093SOL     OW48241   7.987   3.678  10.974 -0.0417 -0.1212  0.1419
14093SOL    HW148242   7.984   3.689  10.879  0.4378 -0.7102  0.0539
14093SOL    HW248243   7.917   3.614  10.993 -0.9293  0.8809  0.3295
14094SOL     OW48244   0.572   7.947   7.203 -0.2249  0.3034 -0.5138
14094SOL    HW148245   0.508   7.939   7.131 -0.0443  0.6479 -0.7168
14094SOL    HW248246   0.648   7.988   7.162  0.0370  0.1150 -0.2162
14095SOL     OW48247  11.388   2.207   7.350  0.3311 -0.2480 -0.3626
14095SOL    HW148248  11.318   2.145   7.368 -0.9271  1.2494  0.1617
14095SOL    HW248249  11.461   2.177   7.404 -0.0845 -1.4912 -0.4511
14096SOL     OW48250   3.785   5.456   2.176 -0.2895 -0.9076  0.2407
14096SOL    HW148251   3.837   5.445   2.096 -0.0503  0.2278  0.2282
14096SOL    HW248252   3.759   5.548   2.176 -2.0046 -1.3672  0.4447
14097SOL     OW48253   1.555  12.374   9.344  0.1387 -0.0757 -0.1354
14097SOL    HW148254   1.636  12.423   9.333 -0.3344  0.7510 -0.1050
14097SOL    HW248255   1.490  12.426   9.295 -1.0041  0.9770  2.3015
14098SOL     OW48256   2.194   1.779   9.991 -0.4313  0.4696  0.3960
14098SOL    HW148257   2.257   1.720  10.033  1.2041  1.5493 -0.4413
14098SOL    HW248258   2.156   1.828  10.064  0.5458  0.6048  0.8307
14099SOL     OW48259   7.000   7.635   9.821  0.4356 -0.2989 -0.2028
14099SOL    HW148260   6.996   7.708   9.759 -2.6287  0.3702  0.6244
14099SOL    HW248261   6.970   7.559   9.771 -0.7167 -0.0325  0.0511
14100SOL     OW48262  11.725  11.286   5.660  0.3880  0.0389  0.5624
14100SOL    HW148263  11.714  11.362   5.602 -0.2033  0.8442  1.6971
14100SOL    HW248264  11.814  11.256   5.644  0.7458  1.1794  0.3484
14101SOL     OW48265   8.873   8.347   2.196  0.5476 -0.1365 -0.1489
14101SOL    HW148266   8.920   8.411   2.141 -0.3383  2.2362  1.6912
14101SOL    HW248267   8.782   8.352   2.165  0.1144  0.9481  1.2129
14102SOL     OW48268   9.472   7.164   5.872 -0.3020  0.4885 -0.1753
14102SOL    HW148269   9.533   7.236   5.887  0.1851 -0.1624  1.2424
14102SOL    HW248270   9.420   7.160   5.953 -1.1787  0.0533 -0.7471
14103SOL     OW48271   1.835  10.273  11.515  0.2344 -0.0786 -0.0733
14103SOL    HW148272   1.786  10.298  11.593 -0.9566 -1.3818 -0.3793
14103SOL    HW248273   1.898  10.207  11.546  1.3166  1.0177  0.1661
14104SOL     OW48274   2.254   0.647  11.096  0.3900 -0.2737  0.1120
14104SOL    HW148275   2.304   0.724  11.122 -0.3724  1.1049 -2.1971
14104SOL    HW248276   2.195   0.630  11.169  0.6082  1.3232  0.6917
14105SOL     OW48277   3.541   5.823   7.243  0.0646  0.8820 -0.2746
14105SOL    HW148278   3.490   5.746   7.219 -0.3156  1.0544 -0.0216
14105SOL    HW248279   3.574   5.857   7.159  1.5672 -0.4653 -0.2736
14106SOL     OW48280   8.381   0.255   4.647  0.9531 -0.1372 -0.2687
14106SOL    HW148281   8.342   0.316   4.585  0.4460  1.8248  1.8301
14106SOL    HW248282   8.334   0.271   4.729  1.9897 -2.1693  0.8136
14107SOL     OW48283   6.347   0.539   8.193  0.4051 -0.4080 -0.4681
14107SOL    HW148284   6.404   0.612   8.216  0.3805 -0.5710  0.1356
14107SOL    HW248285   6.317   0.558   8.104  1.9708 -0.6818 -1.0875
14108SOL     OW48286   6.772  10.276  11.417 -0.0229 -0.2361 -0.0996
14108SOL    HW148287   6.747  10.309  11.331 -0.3447 -2.8622 -1.1079
14108SOL    HW248288   6.690  10.257  11.461  0.0696 -2.5117 -0.7816
14109SOL     OW48289  11.414   8.146  10.084  0.5859 -0.7109  0.1835
14109SOL    HW148290  11.424   8.236  10.052 -0.8352 -0.3303  0.7287
14109SOL    HW248291  11.467   8.143  10.164  1.7801 -0.7997 -0.5896
14110SOL     OW48292   5.261  12.140  11.168  0.1061  0.1705  0.1137
14110SOL    HW148293   5.202  12.080  11.213  0.2643 -0.1344 -0.0863
14110SOL    HW248294   5.249  12.224  11.214  0.5106 -0.2075  0.9438
14111SOL     OW48295  11.693   7.073   4.404 -0.3541 -0.2543 -0.4375
14111SOL    HW148296  11.782   7.063   4.372 -0.7719 -0.2409 -1.6252
14111SOL    HW248297  11.642   7.010   4.355 -1.0020 -0.3178  0.2931
14112SOL     OW48298   1.602   9.094   2.262 -0.2204  0.1648 -0.5238
14112SOL    HW148299   1.642   9.174   2.227 -0.6731 -0.0777 -1.6567
14112SOL    HW248300   1.528   9.077   2.202 -0.5942 -0.6706  0.1613
14113SOL     OW48301   9.680   1.091   5.070 -0.1623  0.7974  0.1358
14113SOL    HW148302   9.745   1.152   5.105 -0.2698  0.4812  0.9012
14113SOL    HW248303   9.627   1.066   5.146 -0.6352  0.3859 -0.3234
14114SOL     OW48304  10.949   1.087   1.028 -0.2281  0.4200  0.0869
14114SOL    HW148305  10.858   1.103   1.055 -0.9128 -0.4197 -1.5696
14114SOL    HW248306  10.989   1.044   1.103 -1.5216 -0.1791  0.4655
14115SOL     OW48307  11.971   8.968   9.790 -0.0902  0.2199  0.1724
14115SOL    HW148308  11.951   8.960   9.883 -1.4097 -0.2292 -0.1352
14115SOL    HW248309  11.926   9.049   9.763 -1.3674 -0.6714 -0.4721
14116SOL     OW48310   0.032   0.425   2.398  0.0077  0.1041  0.5450
14116SOL    HW148311   0.048   0.508   2.354 -0.5419  0.3502  0.8048
14116SOL    HW248312  -0.021   0.375   2.337 -0.4784  0.3201  0.7843
14117SOL     OW48313   7.036  10.866   3.718  0.0155  0.6954 -0.5818
14117SOL    HW148314   7.115  10.832   3.676 -0.0872 -0.5947  0.2229
14117SOL    HW248315   7.004  10.794   3.772 -0.4383  1.9642  0.9071
14118SOL     OW48316   3.761   2.965   5.168  0.0388 -0.4449  0.1991
14118SOL    HW148317   3.757   2.897   5.101  1.2702  1.7576 -2.2787
14118SOL    HW248318   3.678   3.011   5.161 -1.5032 -2.4406  2.9777
14119SOL     OW48319  10.649   8.856   4.757  0.7206  0.5594 -1.0156
14119SOL    HW148320  10.666   8.930   4.815 -1.9445  0.3771  0.1108
14119SOL    HW248321  10.594   8.892   4.688 -1.8464 -0.5591  0.3272
14120SOL     OW48322   8.456   6.174   4.468 -0.0020  0.0980  0.2847
14120SOL    HW148323   8.534   6.156   4.520 -0.1550  0.6019  0.6884
14120SOL    HW248324   8.467   6.264   4.439  0.2487 -0.2797 -0.8541
14121SOL     OW48325  10.066   0.440  10.836 -0.5037  0.0798 -0.2156
14121SOL    HW148326  10.044   0.358  10.792  0.9927  0.2294 -1.3062
14121SOL    HW248327  10.129   0.414  10.903  0.5595  0.4069 -1.0632
14122SOL     OW48328   6.669   5.258   2.574  0.1419  0.1502  0.3496
14122SOL    HW148329   6.628   5.340   2.601 -0.7726 -0.2097  0.0681
14122SOL    HW248330   6.690   5.270   2.482 -2.4831 -0.8746 -0.4707
14123SOL     OW48331   9.033   2.885  10.915 -0.0298  0.3676 -0.8149
14123SOL    HW148332   9.101   2.823  10.942  1.4765  1.8491 -1.0071
14123SOL    HW248333   9.002   2.923  10.997 -1.0507 -0.6748 -0.6861
14124SOL     OW48334   6.945  11.762   0.949 -0.3214  0.0817 -0.4261
14124SOL    HW148335   6.855  11.785   0.926 -0.8021 -2.5480 -1.4913
14124SOL    HW248336   6.936  11.686   1.006  1.2376  0.6068  0.5903
14125SOL     OW48337  11.371  11.959   8.453 -0.2050 -0.1059  0.1898
14125SOL    HW148338  11.302  11.892   8.445 -0.3413  0.1717 -1.1930
14125SOL    HW248339  11.364  12.010   8.373  0.5540  0.9648  0.7821
14126SOL     OW48340   3.963   5.857   2.180 -0.1719 -0.1768 -0.1361
14126SOL    HW148341   3.945   5.794   2.110 -1.3455  0.4703 -0.4369
14126SOL    HW248342   4.057   5.848   2.196  0.7119  1.4472 -3.5742
14127SOL     OW48343   1.610   9.585  10.619  0.0477  0.5279 -0.0559
14127SOL    HW148344   1.664   9.550  10.548  0.1971 -0.6730  0.6218
14127SOL    HW248345   1.665   9.577  10.697 -0.4872  0.8873  0.3665
14128SOL     OW48346  11.354  11.613  12.236  0.0070  0.4479  0.1254
14128SOL    HW148347  11.352  11.677  12.166  0.1477  1.9572  1.4556
14128SOL    HW248348  11.300  11.651  12.305 -0.4540 -1.1762  0.7118
14129SOL     OW48349   5.018   0.969   8.117  0.8007 -0.4597  0.1565
14129SOL    HW148350   4.951   0.992   8.182  1.1861  2.6789 -0.3978
14129SOL    HW248351   5.008   0.875   8.105 -0.5394 -0.8534  3.3472
14130SOL     OW48352   2.786  12.222   7.700 -0.0845  0.0448 -0.0477
14130SOL    HW148353   2.841  12.164   7.752 -1.1227 -0.4850  0.4891
14130SOL    HW248354   2.703  12.226   7.748 -1.3605 -1.0847 -2.0364
14131SOL     OW48355  11.789   8.462   6.168 -0.0991 -0.1579 -0.6195
14131SOL    HW148356  11.736   8.537   6.140  0.6799  0.3204 -0.8411
14131SOL    HW248357  11.879   8.487   6.147  0.2022 -1.0367 -0.4213
14132SOL     OW48358   3.794  12.336   8.242  0.5309 -0.0632 -0.0041
14132SOL    HW148359   3.727  12.278   8.206  0.9518 -0.6743  0.1832
14132SOL    HW248360   3.868  12.279   8.260  3.0679  1.1672 -4.7151
14133SOL     OW48361   8.981   5.995  11.771 -0.0008  0.0807 -0.0901
14133SOL    HW148362   8.924   5.942  11.715 -3.1341  0.8300  2.1484
14133SOL    HW248363   9.010   6.066  11.714  1.5361 -2.0670 -2.2023
14134SOL     OW48364   7.549   6.655   2.992 -0.2081  0.2178  0.0026
14134SOL    HW148365   7.600   6.605   3.055  1.3657 -0.5151 -1.7675
14134SOL    HW248366   7.459   6.624   3.005  0.0016  0.2776  1.9982
14135SOL     OW48367   6.747   9.898   3.419 -0.3679  0.3504 -0.1833
14135SOL    HW148368   6.733   9.906   3.513  0.9540 -2.6425  0.3852
14135SOL    HW248369   6.706   9.815   3.396  0.2898  0.4994 -2.0301
14136SOL     OW48370   4.912   4.666  12.250 -0.1372 -0.2526 -0.7994
14136SOL    HW148371   4.972   4.602  12.213 -2.0147 -1.1911 -2.4312
14136SOL    HW248372   4.901   4.731  12.180 -1.5234 -0.5006 -0.8523
14137SOL     OW48373  10.169   5.493   4.868  0.0138  0.5610  0.4359
14137SOL    HW148374  10.120   5.571   4.893 -1.6599 -0.2680 -0.0992
14137SOL    HW248375  10.136   5.472   4.780  0.7308 -0.5177  0.4113
14138SOL     OW48376   5.033   5.019   0.341 -0.2666  0.2001  0.4534
14138SOL    HW148377   5.040   5.114   0.339  0.7956  0.2014  2.3624
14138SOL    HW248378   4.985   4.999   0.421 -0.3011 -0.8996  0.1870
14139SOL     OW48379   9.774   2.173   4.849  0.0673 -0.5120  0.2904
14139SOL    HW148380   9.727   2.101   4.806  1.1061 -0.9356 -0.1921
14139SOL    HW248381   9.736   2.252   4.812 -0.1681 -0.8466 -0.1964
14140SOL     OW48382   4.560   6.996  11.642  0.3277  0.1942  0.9255
14140SOL    HW148383   4.493   7.055  11.676 -1.1450 -0.2015 -1.0877
14140SOL    HW248384   4.565   7.017  11.548  1.4299 -1.2967  0.6087
14141SOL     OW48385   1.791   6.493  12.469 -0.0670  0.5003  0.5778
14141SOL    HW148386   1.716   6.506  12.411  0.2324  0.7143  0.2323
14141SOL    HW248387   1.769   6.415  12.519 -0.4416  0.4572  0.3519
14142SOL     OW48388   7.267   0.941   5.030 -0.0429  0.0978 -0.6526
14142SOL    HW148389   7.271   0.928   5.125 -0.0466  1.0001 -0.5211
14142SOL    HW248390   7.296   1.031   5.017 -3.4764  1.2942 -1.1491
14143SOL     OW48391   8.704  10.840   5.280  0.0858 -0.6975 -0.0253
14143SOL    HW148392   8.648  10.790   5.220 -2.2942 -1.4691  2.6155
14143SOL    HW248393   8.699  10.792   5.362  2.7640  0.6036  1.0011
14144SOL     OW48394   7.494   1.491   0.413  0.6668  0.4357  0.0161
14144SOL    HW148395   7.437   1.564   0.436 -0.1612  0.2666 -1.3664
14144SOL    HW248396   7.569   1.500   0.471  0.0757  1.7336  0.6263
14145SOL     OW48397  11.974   7.658   2.186  0.2272  0.8335  0.0568
14145SOL    HW148398  11.936   7.724   2.245 -0.4613 -0.5159  1.1750
14145SOL    HW248399  12.062   7.690   2.168 -0.1013  2.0782  0.5276
14146SOL     OW48400   2.656   2.599   8.669 -0.1416  0.4637 -0.4547
14146SOL    HW148401   2.626   2.514   8.699 -0.1577 -0.5498 -3.0709
14146SOL    HW248402   2.585   2.660   8.690 -1.9847 -0.9739 -2.1852
14147SOL     OW48403  11.323  11.707   9.432  0.0969 -0.3209  0.0946
14147SOL    HW148404  11.229  11.725   9.422  0.1332 -0.7058 -1.0468
14147SOL    HW248405  11.337  11.624   9.387  0.8544 -0.6580  0.9245
14148SOL     OW48406   0.419   2.090   1.749  0.3154  0.2508 -0.1295
14148SOL    HW148407   0.501   2.040   1.749 -0.7337 -1.5625 -0.2703
14148SOL    HW248408   0.358   2.036   1.800 -1.2236  0.7677 -1.3518
14149SOL     OW48409   9.819   0.842  11.161 -0.4068 -0.0872  0.1565
14149SOL    HW148410   9.831   0.923  11.210 -2.4584 -1.7225  3.8659
14149SOL    HW248411   9.742   0.858  11.107 -1.8441  0.0726  2.1239
14150SOL     OW48412  12.274   7.293   8.694 -0.3933  0.0118 -0.6902
14150SOL    HW148413  12.204   7.278   8.757  1.0728 -0.7098  0.8578
14150SOL    HW248414  12.334   7.353   8.738  0.8367 -0.7614 -1.2423
14151SOL     OW48415  12.408   9.888   8.759 -0.1099  0.2370 -0.0419
14151SOL    HW148416  12.454   9.966   8.730 -1.6685  1.6735  1.1610
14151SOL    HW248417  12.366   9.913   8.841  0.1180 -2.1682  0.9105
14152SOL     OW48418  10.734   9.236   1.112  0.0223  0.2188 -0.6865
14152SOL    HW148419  10.751   9.329   1.096 -0.7019  0.4675 -0.0770
14152SOL    HW248420  10.643   9.223   1.084 -0.4666  0.1100  0.8457
14153SOL     OW48421  10.148   9.800  10.911  0.1435  0.1447 -0.2841
14153SOL    HW148422  10.213   9.800  10.980 -0.4384 -2.5049  0.3701
14153SOL    HW248423  10.074   9.848  10.947  0.2357 -0.3294  0.5500
14154SOL     OW48424   9.750   0.537   7.042 -0.5935 -0.3512 -0.3178
14154SOL    HW148425   9.763   0.443   7.058 -1.8665 -0.4128  0.5457
14154SOL    HW248426   9.740   0.575   7.129 -0.2068  0.5858 -0.6650
14155SOL     OW48427   9.997  10.762   1.380  0.3218 -0.1181 -0.6534
14155SOL    HW148428  10.024  10.853   1.386 -0.7029  0.1912 -0.5450
14155SOL    HW248429   9.957  10.742   1.464  0.5525 -0.6755 -0.6684
14156SOL     OW48430  11.121   5.350   7.639  0.3602  0.3078  0.0888
14156SOL    HW148431  11.141   5.372   7.730 -0.0727 -0.7752  0.4520
14156SOL    HW248432  11.172   5.271   7.621  0.8668  0.8064 -0.7960
14157SOL     OW48433   0.998   5.749   2.064  0.2581  0.2165 -0.5803
14157SOL    HW148434   0.982   5.717   2.153  1.2107  0.3155 -0.3708
14157SOL    HW248435   1.049   5.680   2.023  0.6755  0.6150 -0.7348
14158SOL     OW48436   2.849   6.975  10.126 -0.4659 -0.0226 -0.6704
14158SOL    HW148437   2.885   6.897  10.167  0.0274 -0.4655 -1.8959
14158SOL    HW248438   2.887   7.048  10.175 -2.3082 -0.4993  1.6579
14159SOL     OW48439   6.199   4.731   5.227 -0.5880 -0.5511 -0.1905
14159SOL    HW148440   6.170   4.649   5.187  0.5338 -0.8810 -0.3530
14159SOL    HW248441   6.261   4.767   5.164 -1.3691  0.6379 -0.3091
14160SOL     OW48442  10.184  11.986   8.329  0.5316 -0.2920 -0.5249
14160SOL    HW148443  10.150  11.937   8.403 -3.4313  0.5991 -1.5433
14160SOL    HW248444  10.199  11.921   8.261  1.0373 -0.7074 -0.0297
14161SOL     OW48445   5.123   4.047   5.970  0.1926 -0.2847  0.0625
14161SOL    HW148446   5.068   4.099   6.028 -0.2065 -1.5792  0.8621
14161SOL    HW248447   5.065   4.021   5.898  0.2175 -0.1960  0.0097
14162SOL     OW48448   0.536   8.175   1.888  0.4706  0.5284  0.1046
14162SOL    HW148449   0.600   8.104   1.889 -1.2270 -1.1784 -1.6556
14162SOL    HW248450   0.510   8.186   1.979  0.0191 -1.9293  0.3315
14163SOL     OW48451   2.712  10.351   2.536 -0.5373  0.9435 -0.1411
14163SOL    HW148452   2.728  10.443   2.558 -0.1172  0.8232  0.0822
14163SOL    HW248453   2.624  10.334   2.567 -0.4001  1.1130  0.3520
14164SOL     OW48454  10.578   1.934  11.797  0.4675  0.3919  0.1949
14164SOL    HW148455  10.521   1.993  11.846 -0.6088 -1.1058  0.8374
14164SOL    HW248456  10.525   1.854  11.785  0.3271  0.8555 -4.0737
14165SOL     OW48457  11.453  11.989   5.098  0.4042 -0.3164  0.2231
14165SOL    HW148458  11.360  12.012   5.094  0.3764 -0.0290  1.9243
14165SOL    HW248459  11.462  11.937   5.177  1.6871 -0.4183  0.0344
14166SOL     OW48460   4.833   2.295   5.881  0.5274  0.1391  0.4412
14166SOL    HW148461   4.803   2.385   5.869  0.1581 -0.1112 -0.6064
14166SOL    HW248462   4.901   2.284   5.814 -0.2285 -0.7096 -0.2064
14167SOL     OW48463   3.877  10.187   6.251  0.4045 -0.2565  0.3870
14167SOL    HW148464   3.880  10.092   6.238 -0.3117 -0.4770  1.7460
14167SOL    HW248465   3.819  10.219   6.181 -0.2728 -0.9494  0.6214
14168SOL     OW48466   0.775  11.886   1.311  0.0501  0.4605 -0.2204
14168SOL    HW148467   0.751  11.947   1.241 -1.1059 -0.1631 -0.3907
14168SOL    HW248468   0.866  11.908   1.332  0.6332  0.2449 -2.3411
14169SOL     OW48469   2.773   4.910   8.021  0.0293 -0.1552  0.1560
14169SOL    HW148470   2.824   4.883   7.945  1.4407  0.6864  0.7518
14169SOL    HW248471   2.800   5.001   8.037 -0.3411 -0.2623  1.5566
14170SOL     OW48472   0.975   6.543   5.704 -0.1862 -0.0786  0.4767
14170SOL    HW148473   0.971   6.508   5.615 -1.1691  1.4481 -0.1277
14170SOL    HW248474   0.891   6.589   5.715  0.9541  1.9244  1.2397
14171SOL     OW48475   5.727   3.433   1.143  0.4525  0.1202 -0.0344
14171SOL    HW148476   5.816   3.459   1.169  0.2887  2.1780 -1.2630
14171SOL    HW248477   5.673   3.452   1.219  0.6139  1.9543 -0.3353
14172SOL     OW48478  10.084   1.817   1.554  0.0498 -0.1574 -0.2153
14172SOL    HW148479  10.096   1.904   1.515  0.6959 -0.8384 -1.5810
14172SOL    HW248480  10.048   1.764   1.484  2.3298 -1.7323 -0.2948
14173SOL     OW48481   4.362  10.507   1.834 -0.5043  0.2704  0.1712
14173SOL    HW148482   4.404  10.459   1.762 -0.8146  1.1536 -0.6124
14173SOL    HW248483   4.268  10.495   1.819 -0.5712  0.6208  0.3113
14174SOL     OW48484  10.463  12.262  11.849  0.0353  0.4886 -0.7122
14174SOL    HW148485  10.471  12.336  11.910 -1.5051  0.5043 -0.4945
14174SOL    HW248486  10.490  12.299  11.764  1.1890  0.7471 -0.2450
14175SOL     OW48487   5.935   3.496   6.420  0.5804  0.1715 -0.3854
14175SOL    HW148488   5.844   3.523   6.404  0.4599  0.6925  1.0583
14175SOL    HW248489   5.986   3.575   6.402  0.7918 -0.2016 -1.4765
14176SOL     OW48490   0.856  12.321   8.220 -0.5958 -0.0851 -0.4351
14176SOL    HW148491   0.808  12.343   8.300  0.8662  0.8045  0.2349
14176SOL    HW248492   0.943  12.296   8.250  0.9588  3.0641 -1.8255
14177SOL     OW48493   2.855   7.729   0.678  0.0690 -0.6615 -0.2767
14177SOL    HW148494   2.832   7.690   0.762  0.7186 -0.7888 -0.1514
14177SOL    HW248495   2.848   7.657   0.615 -1.2140 -0.3809 -0.4825
14178SOL     OW48496   0.160   4.032   4.411  0.0007 -0.2540 -0.1740
14178SOL    HW148497   0.142   4.089   4.486 -0.3297 -0.1155 -0.3578
14178SOL    HW248498   0.207   3.958   4.449  2.4130  1.1176 -0.2238
14179SOL     OW48499  11.171   2.262   3.444 -0.4303 -0.1899  0.7222
14179SOL    HW148500  11.149   2.224   3.529  0.5869  1.4993  1.8000
14179SOL    HW248501  11.099   2.322   3.425 -0.9041 -0.9246  0.1125
14180SOL     OW48502   8.055   5.113  10.954  0.8423  0.5278 -0.0020
14180SOL    HW148503   8.065   5.092  10.861 -0.3355  2.0699 -0.5141
14180SOL    HW248504   8.096   5.199  10.964  1.5025  0.1128  1.0485
14181SOL     OW48505   7.054   0.740   5.680  0.3100 -0.5606 -0.3188
14181SOL    HW148506   7.147   0.763   5.689  0.6448 -1.6871 -0.8122
14181SOL    HW248507   7.039   0.671   5.745 -0.5328  0.5246  0.6921
14182SOL     OW48508   4.011   1.159   6.796 -0.2470 -0.2308  0.0164
14182SOL    HW148509   3.970   1.128   6.877 -0.4595  0.1865  0.0722
14182SOL    HW248510   4.101   1.128   6.802 -0.4604 -0.8583  0.0536
14183SOL     OW48511   0.152   6.245   2.707  0.1003 -0.4403  0.2652
14183SOL    HW148512   0.099   6.312   2.663 -0.9544 -0.4249  1.5022
14183SOL    HW248513   0.112   6.162   2.680 -1.7287 -0.3846  2.5286
14184SOL     OW48514  12.183   9.989   8.523  0.3024 -0.0498  0.2888
14184SOL    HW148515  12.095   9.951   8.518  0.4029 -0.2283 -0.1407
14184SOL    HW248516  12.176  10.056   8.590 -0.1529 -0.0957  0.2894
14185SOL     OW48517   0.221   7.182   9.718 -0.0356 -0.1047  0.0462
14185SOL    HW148518   0.142   7.228   9.689  0.7574  2.0214  1.0083
14185SOL    HW248519   0.193   7.130   9.792 -0.7020 -0.0355 -0.1478
14186SOL     OW48520   2.037   9.122   8.807  0.0169  0.6962  0.3175
14186SOL    HW148521   2.130   9.101   8.806 -0.3005 -1.6135 -3.6181
14186SOL    HW248522   2.019   9.156   8.719 -3.3399 -2.2974 -0.4241
14187SOL     OW48523   7.899   1.638   3.809 -0.4691  0.3685 -0.0295
14187SOL    HW148524   7.886   1.658   3.716 -1.0525 -0.6469 -0.1777
14187SOL    HW248525   7.992   1.656   3.825 -0.1102 -0.4854 -1.0742
14188SOL     OW48526   6.501   3.414   3.749  0.3702 -0.9050 -0.3135
14188SOL    HW148527   6.502   3.328   3.793  3.1173 -1.0163 -0.4615
14188SOL    HW248528   6.555   3.470   3.804 -1.5281  0.8669 -0.1317
14189SOL     OW48529   4.869  10.820   3.105  0.5065  0.5911 -0.3353
14189SOL    HW148530   4.811  10.895   3.113  0.6448  0.6814 -0.1427
14189SOL    HW248531   4.813  10.744   3.122  0.1459  0.5733 -1.5582
14190SOL     OW48532   1.179  12.366   8.298 -0.1671  0.2260 -0.4780
14190SOL    HW148533   1.141  12.431   8.357  1.5276  0.0359  0.9067
14190SOL    HW248534   1.262  12.403   8.271  0.6779 -1.1789  0.0662
14191SOL     OW48535   8.375   3.243   4.967 -0.0754  0.2739 -0.3191
14191SOL    HW148536   8.351   3.335   4.976 -2.5833 -0.3914  0.7046
14191SOL    HW248537   8.364   3.207   5.055  4.0730 -0.4359  0.1185
14192SOL     OW48538   7.841  10.268   1.202 -0.6974 -0.5368 -0.1833
14192SOL    HW148539   7.863  10.255   1.295  1.7795 -1.2762 -0.7910
14192SOL    HW248540   7.814  10.181   1.171  0.2721 -0.7114 -0.5616
14193SOL     OW48541  10.251   3.664   3.762  0.0529 -0.2233 -0.4670
14193SOL    HW148542  10.308   3.734   3.795 -0.9271  0.7032 -0.6917
14193SOL    HW248543  10.310   3.606   3.713  0.6623  1.2045 -1.4851
14194SOL     OW48544   4.808   3.529   4.489  0.1743 -0.5035 -0.7264
14194SOL    HW148545   4.762   3.455   4.449 -1.5159 -0.6936  1.3459
14194SOL    HW248546   4.749   3.604   4.477 -0.4579 -0.5914  1.3298
14195SOL     OW48547   9.593   9.797   6.944  0.5993  0.1746  0.1409
14195SOL    HW148548   9.555   9.735   6.882  0.1255 -0.8204  1.3589
14195SOL    HW248549   9.683   9.810   6.915  1.0089 -1.8527  0.3673
14196SOL     OW48550  12.335   0.425  11.293  0.1684 -0.0561  0.1838
14196SOL    HW148551  12.312   0.428  11.386 -2.0694  0.4791 -0.3323
14196SOL    HW248552  12.338   0.516  11.266  3.9530  0.0079  0.3386
14197SOL     OW48553   4.874   2.164   2.228 -0.0847  0.3629  0.0005
14197SOL    HW148554   4.955   2.117   2.253  0.0291  0.9089  0.6905
14197SOL    HW248555   4.851   2.214   2.306 -0.8484  0.5624 -0.3493
14198SOL     OW48556   5.307  11.281   5.248  0.4353 -0.1559  0.1144
14198SOL    HW148557   5.288  11.295   5.155 -2.0144 -0.4905  0.5156
14198SOL    HW248558   5.387  11.228   5.248  0.1354 -0.6950 -1.8312
14199SOL     OW48559  11.764   8.206  10.974 -0.4053  0.0979 -0.0566
14199SOL    HW148560  11.757   8.136  10.909 -1.5622 -0.0578  0.2143
14199SOL    HW248561  11.857   8.209  10.996 -0.3647 -1.5696  0.1394
14200SOL     OW48562   6.042   9.500  11.328  0.2236 -0.0436  0.3732
14200SOL    HW148563   6.084   9.434  11.383  0.3179 -1.0876 -0.8894
14200SOL    HW248564   6.113   9.560  11.304  0.5241 -0.4994  0.1085
14201SOL     OW48565   6.444   6.594   6.042 -0.3468  0.3534  0.4993
14201SOL    HW148566   6.491   6.613   5.961 -1.7258  1.4824 -0.0684
14201SOL    HW248567   6.509   6.606   6.111  0.8243 -0.5516 -0.4036
14202SOL     OW48568   8.252   7.838   9.668  0.3211 -0.3807  0.0445
14202SOL    HW148569   8.337   7.882   9.673  1.1004 -1.7298 -0.6130
14202SOL    HW248570   8.268   7.752   9.707 -0.7900 -0.5922  0.0490
14203SOL     OW48571   4.400   5.428   0.670 -0.1165 -0.5592 -0.1538
14203SOL    HW148572   4.375   5.451   0.580  0.0839 -0.4569 -0.1829
14203SOL    HW248573   4.351   5.489   0.725 -0.5016 -0.8399 -0.1745
14204SOL     OW48574   3.006  12.029  10.071 -0.8307 -0.3249  0.0958
14204SOL    HW148575   2.966  12.108  10.106  0.9837  1.6832 -2.0349
14204SOL    HW248576   3.079  12.010  10.130  0.1050  0.9926 -0.5902
14205SOL     OW48577  11.057   9.771   4.182 -0.4047 -0.1897 -0.1769
14205SOL    HW148578  11.099   9.849   4.146 -0.8391 -0.9589 -2.5026
14205SOL    HW248579  10.966   9.776   4.151 -0.8901 -0.7710  1.0835
14206SOL     OW48580  10.206  10.011   8.509  0.1582 -0.1367 -0.3521
14206SOL    HW148581  10.249  10.089   8.546  1.9039 -1.0000 -0.4351
14206SOL    HW248582  10.215  10.022   8.414  0.8827 -0.6577 -0.3549
14207SOL     OW48583  12.353   8.955   1.006  0.0654 -0.0823  0.0426
14207SOL    HW148584  12.323   8.987   1.091  0.9095  2.8966 -0.6433
14207SOL    HW248585  12.446   8.935   1.020 -0.2429 -1.4465  0.2399
14208SOL     OW48586  10.281   1.119   5.073  0.2244 -0.0745 -0.4446
14208SOL    HW148587  10.215   1.063   5.112 -1.7039  2.0919 -0.4117
14208SOL    HW248588  10.355   1.115   5.134 -0.7258 -0.7914  0.7005
14209SOL     OW48589   6.588   8.296   6.507 -0.2580  0.3050  0.2197
14209SOL    HW148590   6.664   8.257   6.464  0.3017 -0.6792  1.9605
14209SOL    HW248591   6.621   8.378   6.544 -0.0890 -0.0191  0.7947
14210SOL     OW48592   7.148   7.369   3.341 -0.0404  0.2039 -0.1587
14210SOL    HW148593   7.129   7.324   3.424  1.7710  2.0501  1.3621
14210SOL    HW248594   7.236   7.340   3.317  0.8724  2.2342  0.4765
14211SOL     OW48595   2.043   9.776   0.480 -0.1991 -0.1281 -0.2794
14211SOL    HW148596   1.999   9.744   0.560  0.9609  1.4697  1.0603
14211SOL    HW248597   2.119   9.824   0.512 -0.0845  1.1775 -2.3459
14212SOL     OW48598   4.853   8.144  10.827 -0.4488 -0.3260 -0.1328
14212SOL    HW148599   4.935   8.110  10.792 -0.2411  0.5132 -0.4848
14212SOL    HW248600   4.796   8.067  10.832 -0.3595 -0.5652 -1.9381
14213SOL     OW48601   3.006   0.665   2.003  0.1574  0.2015 -0.3502
14213SOL    HW148602   2.980   0.581   1.967 -1.5920  1.1595 -1.4806
14213SOL    HW248603   3.099   0.673   1.983  0.1133 -1.0150 -1.1013
14214SOL     OW48604   3.253   5.474   7.331 -0.8211  0.1118  0.2231
14214SOL    HW148605   3.181   5.427   7.288 -0.8746  1.0661 -0.7535
14214SOL    HW248606   3.280   5.541   7.268  0.5764  0.1235  0.7933
14215SOL     OW48607  10.320   0.817   4.281 -0.0994 -0.6658  0.0694
14215SOL    HW148608  10.405   0.862   4.286 -0.4771  0.0441  0.2773
14215SOL    HW248609  10.333   0.748   4.216  0.7576 -0.8289  0.4009
14216SOL     OW48610   1.759   6.738   5.655  0.7644  0.0358  0.1890
14216SOL    HW148611   1.674   6.755   5.696  0.9510 -0.0935  0.6325
14216SOL    HW248612   1.739   6.729   5.561  0.3211  0.2212  0.2636
14217SOL     OW48613   6.049   9.576   0.100  0.3331 -0.1437  0.0507
14217SOL    HW148614   6.071   9.490   0.136  0.5060  0.2573  0.9264
14217SOL    HW248615   5.954   9.582   0.107  0.3412 -0.1781  0.1889
14218SOL     OW48616   0.157   1.212   6.447  0.3594 -0.7866  0.0781
14218SOL    HW148617   0.100   1.183   6.376 -0.4816  2.1594 -0.5882
14218SOL    HW248618   0.216   1.138   6.462  1.1540 -1.3118 -4.2788
14219SOL     OW48619   0.469   0.396  11.910 -0.6234  0.3617  0.1383
14219SOL    HW148620   0.527   0.368  11.838 -1.2262  3.7691 -1.9480
14219SOL    HW248621   0.382   0.397  11.871 -1.3788 -0.1232  1.7624
14220SOL     OW48622   4.479   7.811   9.568  0.1069 -0.3921 -0.2158
14220SOL    HW148623   4.475   7.876   9.637  1.1105  0.2898 -0.7686
14220SOL    HW248624   4.447   7.730   9.608 -0.3950  0.2479  0.7024
14221SOL     OW48625  10.200   5.085   4.777  0.1413 -0.4350  0.2659
14221SOL    HW148626  10.227   4.993   4.784  0.9509 -0.6104 -3.1134
14221SOL    HW248627  10.229   5.111   4.689 -1.2326  2.6870  0.6131
14222SOL     OW48628  12.474   1.346   2.727 -0.0097 -0.2826  0.2035
14222SOL    HW148629  12.381   1.329   2.713 -1.7668  3.2941  4.9465
14222SOL    HW248630  12.499   1.287   2.798  0.8508 -0.0475  0.1128
14223SOL     OW48631   7.765  11.002   3.273 -0.7277 -0.1186 -0.4075
14223SOL    HW148632   7.752  11.049   3.191 -0.6769  1.2335  0.3198
14223SOL    HW248633   7.679  10.967   3.295 -1.0270  0.5820 -0.4312
14224SOL     OW48634   8.563   8.952   9.907 -0.1075 -0.3460 -0.2378
14224SOL    HW148635   8.540   8.895   9.833 -0.0174  0.7884 -1.1759
14224SOL    HW248636   8.530   9.039   9.881  0.9600  0.3087  0.5405
14225SOL     OW48637   9.187   2.428   0.045  0.1603 -0.0944  0.0711
14225SOL    HW148638   9.184   2.367  -0.029 -1.1345 -0.4280  0.3694
14225SOL    HW248639   9.280   2.434   0.067  0.3334 -2.1469  0.1472
14226SOL     OW48640  12.319   6.785   2.057  0.2382  0.0447 -0.0310
14226SOL    HW148641  12.365   6.728   2.119 -0.8877 -0.3777  0.4455
14226SOL    HW248642  12.349   6.873   2.079 -0.2636 -0.0878  1.2247
14227SOL     OW48643   8.751   5.258   3.783  0.4120 -1.2069 -0.0124
14227SOL    HW148644   8.819   5.324   3.767 -0.1306 -0.5991  0.1272
14227SOL    HW248645   8.755   5.200   3.707 -0.0783 -0.1476 -0.8767
14228SOL     OW48646   4.249   3.578   2.169  0.6524  0.1829 -0.3810
14228SOL    HW148647   4.333   3.541   2.142  0.9852  1.0440 -0.5768
14228SOL    HW248648   4.185   3.511   2.146  1.2394 -0.3123 -0.6212
14229SOL     OW48649   3.169   3.259   1.913 -0.3231  0.0245 -0.1087
14229SOL    HW148650   3.171   3.200   1.837  1.4053 -0.5662  0.3485
14229SOL    HW248651   3.136   3.205   1.984 -1.2811  0.3856 -0.2633
14230SOL     OW48652   7.845   4.936   1.499  0.3917 -0.3278  0.0689
14230SOL    HW148653   7.886   5.012   1.457 -1.0431  1.0424  1.0321
14230SOL    HW248654   7.769   4.917   1.444  1.3253 -1.8435 -0.7972
14231SOL     OW48655   9.046   7.314   2.948  0.2538  0.0892  0.2998
14231SOL    HW148656   9.025   7.338   3.038  2.9510 -3.8500  2.3269
14231SOL    HW248657   8.986   7.242   2.928  1.3742 -0.8290  0.1032
14232SOL     OW48658   7.653  10.234  10.576 -0.0499 -0.2888  0.9108
14232SOL    HW148659   7.744  10.225  10.604  0.8247  0.6518 -1.3803
14232SOL    HW248660   7.657  10.241  10.481 -2.5209 -0.0367  0.7465
14233SOL     OW48661   6.219   3.557   0.507  0.0337  0.0932 -0.6304
14233SOL    HW148662   6.162   3.614   0.456  2.1883  1.6927 -1.4046
14233SOL    HW248663   6.232   3.481   0.452 -1.4568 -0.3961 -0.3538
14234SOL     OW48664   5.580   1.542   5.803 -0.0690 -0.1802  0.2816
14234SOL    HW148665   5.619   1.456   5.785 -0.5016 -0.3191  0.0036
14234SOL    HW248666   5.495   1.539   5.761 -0.7099 -0.1479  1.5345
14235SOL     OW48667   2.568   0.092   0.250 -0.2772 -0.1539  0.0573
14235SOL    HW148668   2.662   0.081   0.266 -0.3131  0.3806  0.6553
14235SOL    HW248669   2.539   0.154   0.317 -1.5674 -2.2624  1.5970
14236SOL     OW48670   8.922   5.508   3.105  0.2185 -0.3843 -0.5481
14236SOL    HW148671   8.992   5.570   3.086  0.6660 -0.6385  0.2578
14236SOL    HW248672   8.922   5.498   3.200 -1.0760 -0.1973 -0.5077
14237SOL     OW48673   2.875   8.254   6.028  0.1564  0.1354 -0.3560
14237SOL    HW148674   2.796   8.240   6.079 -1.1225 -3.1274 -2.8747
14237SOL    HW248675   2.847   8.247   5.937  3.1235  0.2224 -1.4081
14238SOL     OW48676   1.733  12.332  12.051  0.5340 -0.1232  0.1964
14238SOL    HW148677   1.716  12.383  11.972  0.7537  0.6160  0.6239
14238SOL    HW248678   1.654  12.278  12.062  1.0086 -1.1814 -1.2256
14239SOL     OW48679  10.380   8.493   9.828 -0.1784  0.5168  0.3769
14239SOL    HW148680  10.323   8.478   9.752  0.6422 -2.3597  0.2101
14239SOL    HW248681  10.462   8.523   9.790 -0.4033  1.0721  0.3172
14240SOL     OW48682   6.851   4.239   5.746  0.6358 -0.5773  0.0388
14240SOL    HW148683   6.778   4.300   5.749 -0.5360 -1.9573  2.1408
14240SOL    HW248684   6.855   4.211   5.654 -1.8685 -0.8592 -0.0598
14241SOL     OW48685   4.955   5.857   3.809  0.4334 -0.2260  0.0137
14241SOL    HW148686   5.009   5.839   3.886  0.8127 -0.3958 -0.2862
14241SOL    HW248687   5.010   5.913   3.754  0.0904  0.0569 -0.0472
14242SOL     OW48688  11.291   8.410   5.475  0.0550 -0.4388  0.0334
14242SOL    HW148689  11.334   8.410   5.389  1.7068  0.3203  0.8139
14242SOL    HW248690  11.324   8.332   5.519  1.0220  0.3725  0.7979
14243SOL     OW48691   2.540  11.601   1.623  0.6992  0.6792 -0.3325
14243SOL    HW148692   2.573  11.686   1.651  0.2748  0.4840  0.7874
14243SOL    HW248693   2.614  11.561   1.575  0.5284  2.1196 -1.8788
14244SOL     OW48694   6.816   2.481  10.325 -0.0948 -0.3155 -0.2483
14244SOL    HW148695   6.897   2.433  10.304  0.1775  0.1110 -0.1959
14244SOL    HW248696   6.756   2.460  10.253  0.0283 -0.7143 -0.2371
14245SOL     OW48697   5.409   3.224   8.363 -0.0510 -0.3834  0.4651
14245SOL    HW148698   5.432   3.133   8.347 -0.6386 -0.2146 -1.4781
14245SOL    HW248699   5.339   3.244   8.301  0.5333  1.5929  0.3604
14246SOL     OW48700  10.374  12.006   6.654  0.2676 -0.4165  0.2630
14246SOL    HW148701  10.294  11.956   6.644  0.5510 -0.8819  0.3103
14246SOL    HW248702  10.382  12.021   6.748 -1.5023  2.5106  0.0973
14247SOL     OW48703   3.192  11.506   4.159  0.4219 -0.4518 -0.5676
14247SOL    HW148704   3.276  11.544   4.187 -0.2125 -0.8111  2.0961
14247SOL    HW248705   3.133  11.581   4.155  0.6982 -0.2901 -1.7922
14248SOL     OW48706   3.534  11.048  11.829  0.2948  0.4407 -0.7824
14248SOL    HW148707   3.522  11.089  11.914  0.5285  0.5328 -0.7935
14248SOL    HW248708   3.548  10.955  11.848  1.9843  0.7124 -0.6041
14249SOL     OW48709   7.538   4.743  11.371 -0.4427 -0.1079 -0.6936
14249SOL    HW148710   7.494   4.675  11.421 -0.2118 -0.0097 -0.3521
14249SOL    HW248711   7.522   4.720  11.279 -1.2651 -0.0258 -0.5806
14250SOL     OW48712   9.293   5.500   2.037  0.4313 -0.2033  0.4152
14250SOL    HW148713   9.263   5.524   1.949 -1.3793  2.8263  1.6986
14250SOL    HW248714   9.386   5.478   2.025  0.4517  0.8792 -2.1409
14251SOL     OW48715   5.407   7.569   0.033 -0.0146 -0.1113 -0.3400
14251SOL    HW148716   5.398   7.655   0.073 -0.5700 -0.4219  0.2235
14251SOL    HW248717   5.427   7.587  -0.059  0.7989  0.6122 -0.0375
14252SOL     OW48718   7.910   2.703   7.737  0.2842 -0.1476  0.7864
14252SOL    HW148719   7.973   2.638   7.767  0.8514  0.1717  0.3195
14252SOL    HW248720   7.825   2.668   7.762  0.5474 -1.2843  0.1771
14253SOL     OW48721   8.318   5.525   1.718 -0.1544  0.1761  0.2829
14253SOL    HW148722   8.303   5.517   1.624 -0.5505  0.2974  0.3344
14253SOL    HW248723   8.314   5.435   1.751  0.7633  0.0506  0.0719
14254SOL     OW48724  12.071   3.213   9.758  0.4673  0.6272 -0.1696
14254SOL    HW148725  12.086   3.183   9.847  0.7984  0.9177 -0.1257
14254SOL    HW248726  11.987   3.175   9.733  0.3305  0.6261  0.3001
14255SOL     OW48727   4.491  11.290  11.180  0.7568  0.0385  0.5297
14255SOL    HW148728   4.543  11.291  11.261 -1.1967  0.5879  1.8345
14255SOL    HW248729   4.401  11.282  11.209  0.0346 -0.5165 -1.6597
14256SOL     OW48730   4.277   2.553   9.086  0.1692  0.2557 -0.4332
14256SOL    HW148731   4.319   2.636   9.066 -1.4524  1.0945 -0.5623
14256SOL    HW248732   4.344   2.502   9.130  0.3239  2.9344  2.8709
14257SOL     OW48733   4.253   1.948  10.506  0.6611  0.0007  0.4969
14257SOL    HW148734   4.281   1.857  10.521  0.5438  0.0236  0.8668
14257SOL    HW248735   4.179   1.960  10.566  2.4673  1.2625  2.6213
14258SOL     OW48736   4.630   2.061   9.309 -0.2321 -0.2866 -0.0812
14258SOL    HW148737   4.672   2.146   9.295  2.2655 -0.9526  2.5209
14258SOL    HW248738   4.537   2.081   9.317  0.3114  2.2294  0.6704
14259SOL     OW48739   8.773  10.618  10.973 -0.8321 -0.2177  0.1576
14259SOL    HW148740   8.727  10.650  10.895  0.8497  1.0750 -0.3754
14259SOL    HW248741   8.797  10.698  11.021  1.1902 -0.7740  0.1748
14260SOL     OW48742   8.126   9.337   0.398 -0.0498 -0.1093 -0.3558
14260SOL    HW148743   8.160   9.394   0.329  0.5148 -0.7683 -0.6392
14260SOL    HW248744   8.201   9.284   0.425 -0.4732 -0.4620  0.1468
14261SOL     OW48745   9.912   8.141   2.453  0.5855 -0.6522  0.5290
14261SOL    HW148746   9.945   8.074   2.514  0.9834 -0.3645  0.6348
14261SOL    HW248747   9.906   8.096   2.369 -0.7092 -1.2722  0.9269
14262SOL     OW48748  11.069  10.197  10.740  0.1211 -0.3593 -0.1159
14262SOL    HW148749  11.150  10.149  10.757  1.5500  2.3161  1.3224
14262SOL    HW248750  11.098  10.278  10.699 -1.5482  1.5912  2.2956
14263SOL     OW48751   0.467   5.018  11.180  0.2402 -0.1609 -0.0821
14263SOL    HW148752   0.557   5.002  11.209  0.5477  1.1557 -0.2598
14263SOL    HW248753   0.435   4.932  11.153  1.6860 -0.5320 -0.6891
14264SOL     OW48754  10.002   0.655   7.370  0.9324  0.1381 -0.1002
14264SOL    HW148755  10.042   0.568   7.362  0.5800  0.0796 -1.6044
14264SOL    HW248756  10.057   0.711   7.314  0.3548  0.5744 -0.2376
14265SOL     OW48757   9.694   4.111  11.204 -0.1159 -0.3070 -0.5067
14265SOL    HW148758   9.648   4.078  11.281  0.7753  1.6307  0.9338
14265SOL    HW248759   9.644   4.187  11.176  1.6147  1.3372  0.5865
14266SOL     OW48760   1.536   4.052   8.405 -0.4891  1.0422 -0.0555
14266SOL    HW148761   1.457   4.105   8.418 -0.2691  1.1406  0.9087
14266SOL    HW248762   1.538   3.993   8.481 -0.8399 -0.5041 -1.1866
14267SOL     OW48763   2.346   0.827   6.658  0.0370  0.2921  0.7402
14267SOL    HW148764   2.326   0.744   6.616 -0.3607  0.9219 -0.3556
14267SOL    HW248765   2.441   0.827   6.669  0.5411  1.1681 -2.5958
14268SOL     OW48766   6.422   3.994   1.694 -0.3870 -0.0187  0.2137
14268SOL    HW148767   6.476   3.940   1.751 -0.3167 -0.9550 -0.7109
14268SOL    HW248768   6.483   4.060   1.659 -0.2171 -0.0539  0.4391
14269SOL     OW48769   9.834   3.756   1.616  0.5943  0.1170  0.1652
14269SOL    HW148770   9.801   3.693   1.680  0.1766 -0.6557 -0.7871
14269SOL    HW248771   9.905   3.709   1.572 -0.8210 -0.3361 -1.7163
14270SOL     OW48772   9.395   9.891  10.911 -0.4490  0.2852 -0.4521
14270SOL    HW148773   9.322   9.908  10.970 -0.2892  3.0043 -0.9304
14270SOL    HW248774   9.463   9.855  10.969 -1.3425 -0.0407  0.4306
14271SOL     OW48775   9.639   0.929   7.377 -0.1288 -0.0825  0.1569
14271SOL    HW148776   9.604   0.974   7.453 -0.6249  0.6751 -0.4961
14271SOL    HW248777   9.627   0.991   7.305  3.2185  0.5803 -0.0093
14272SOL     OW48778   4.062   1.088   8.708 -0.3345  0.9699  0.4386
14272SOL    HW148779   3.970   1.065   8.696 -0.1824 -0.0838  1.1222
14272SOL    HW248780   4.092   1.028   8.776  1.3579 -0.1118 -1.1535
14273SOL     OW48781   3.325   2.819   8.014 -0.7555  0.1503  0.1482
14273SOL    HW148782   3.233   2.832   8.040 -1.1244  0.6592 -1.2900
14273SOL    HW248783   3.322   2.748   7.950 -0.3970  1.1760 -1.0660
14274SOL     OW48784   0.342   7.588  12.381  0.0542  0.4881  0.3466
14274SOL    HW148785   0.353   7.526  12.309 -0.1321 -1.5731  2.0106
14274SOL    HW248786   0.269   7.644  12.354 -0.3988 -0.6196 -0.8103
14275SOL     OW48787  11.803  12.008  11.311 -0.4122 -0.3228  0.4172
14275SOL    HW148788  11.839  12.003  11.399 -1.9763  0.0563  1.1267
14275SOL    HW248789  11.879  12.011  11.253  0.6367 -1.5277  1.6826
14276SOL     OW48790   4.416   6.899   4.513 -0.4453  0.7218 -0.1200
14276SOL    HW148791   4.468   6.979   4.510 -0.8028  0.9604 -0.0029
14276SOL    HW248792   4.479   6.830   4.537  0.0222  0.8233 -1.0045
14277SOL     OW48793   4.458   5.027   9.489 -0.4722  0.1300  0.2599
14277SOL    HW148794   4.496   4.972   9.421  1.8643  0.5624  1.1060
14277SOL    HW248795   4.423   4.966   9.553  0.3792 -0.3589  0.2767
14278SOL     OW48796   7.234   0.658  10.063  0.1565  0.6109 -0.1214
14278SOL    HW148797   7.306   0.636  10.004  0.4358  0.8115  0.1478
14278SOL    HW248798   7.166   0.692  10.005  0.5583  1.1291 -0.2984
14279SOL     OW48799   2.279   5.901   5.372 -0.3964  0.2916  0.0650
14279SOL    HW148800   2.231   5.860   5.444 -1.5313  0.0640 -0.7872
14279SOL    HW248801   2.370   5.903   5.402 -0.7698 -0.2026  1.3128
14280SOL     OW48802  12.043   9.751   2.165  0.5907 -0.1990 -0.4060
14280SOL    HW148803  12.027   9.792   2.250  0.7252  0.4522 -0.6852
14280SOL    HW248804  12.057   9.659   2.184  3.5083  0.3604  0.6029
14281SOL     OW48805  10.619   9.587   8.904 -0.2272 -0.2454 -0.3362
14281SOL    HW148806  10.687   9.597   8.970  2.2322  0.1473 -2.7486
14281SOL    HW248807  10.583   9.500   8.919  0.3416 -0.2185  1.3924
14282SOL     OW48808  10.158   0.413  10.320 -0.2420  0.2598  0.3892
14282SOL    HW148809  10.143   0.420  10.225  1.2032 -2.7082 -0.1905
14282SOL    HW248810  10.246   0.446  10.333 -0.4162  0.6054  0.6968
14283SOL     OW48811   4.946   7.572   2.616  0.3955 -0.3678  0.2009
14283SOL    HW148812   5.031   7.609   2.591 -0.0674 -0.0337 -0.9179
14283SOL    HW248813   4.882   7.632   2.579 -0.3471 -1.5687 -0.5108
14284SOL     OW48814   9.133  11.946  11.675  0.7248 -0.0230 -0.0711
14284SOL    HW148815   9.123  12.035  11.641 -0.5028 -0.1760 -0.1535
14284SOL    HW248816   9.197  11.955  11.746  1.6203  0.6767 -0.9402
14285SOL     OW48817   9.114   6.013  10.407  0.0114 -0.2372 -0.4821
14285SOL    HW148818   9.151   5.984  10.324 -0.1744 -1.0495 -0.2853
14285SOL    HW248819   9.109   5.934  10.461 -0.6312  0.1260  0.0115
14286SOL     OW48820   4.935   3.456   6.033  0.1916 -0.6698 -0.2517
14286SOL    HW148821   4.942   3.445   5.939  2.5059 -0.1324 -0.1995
14286SOL    HW248822   4.948   3.368   6.068 -0.4171 -0.8258 -0.3958
14287SOL     OW48823  10.495   1.703   0.266 -0.6152  0.1929  0.3912
14287SOL    HW148824  10.532   1.680   0.181 -2.6316  1.3879 -0.8923
14287SOL    HW248825  10.455   1.623   0.298  0.8191 -0.4622  0.6285
14288SOL     OW48826   4.026   1.672   5.475 -0.3981 -0.0922  0.9374
14288SOL    HW148827   4.063   1.601   5.527 -0.2392 -1.5762 -1.0855
14288SOL    HW248828   3.943   1.638   5.441  0.2804  0.1408 -1.1160
14289SOL     OW48829   4.258   3.438   0.343  0.0772  0.3238 -0.3792
14289SOL    HW148830   4.238   3.353   0.384 -1.6769  0.6294 -0.5471
14289SOL    HW248831   4.325   3.476   0.399 -0.9142 -0.1060  1.1560
14290SOL     OW48832   6.702   2.186  10.195 -0.4844 -0.1892  0.0308
14290SOL    HW148833   6.636   2.142  10.249  0.3461 -2.2218 -0.5211
14290SOL    HW248834   6.781   2.185  10.249  0.4100 -2.4253 -1.2108
14291SOL     OW48835   1.535   8.495   2.708 -0.2679  0.0119 -0.2143
14291SOL    HW148836   1.495   8.573   2.746  1.9617  0.9904  0.2577
14291SOL    HW248837   1.498   8.422   2.758 -2.3119  0.7203 -0.5930
14292SOL     OW48838   2.962   9.048   1.806 -0.3958 -0.1036 -0.5748
14292SOL    HW148839   2.959   8.954   1.786 -0.3207 -0.0551 -0.8161
14292SOL    HW248840   2.916   9.089   1.734 -0.9508  0.0031 -0.1682
14293SOL     OW48841   2.088   4.481   1.758 -0.0838  0.1614  0.1605
14293SOL    HW148842   2.105   4.544   1.688  0.5046 -1.6694 -1.4376
14293SOL    HW248843   2.091   4.533   1.839  0.6517  2.0945 -1.0450
14294SOL     OW48844   1.402   7.747   2.783  0.3730 -0.1644 -0.3274
14294SOL    HW148845   1.404   7.739   2.879  1.5458  0.4567 -0.2844
14294SOL    HW248846   1.442   7.667   2.751 -0.8855 -0.8079 -0.3441
14295SOL     OW48847   8.920   1.335   7.964  0.1610 -0.6472  0.0484
14295SOL    HW148848   8.887   1.248   7.987 -0.7989  0.0619  1.5238
14295SOL    HW248849   8.925   1.334   7.869  0.2570 -2.3486  0.0413
14296SOL     OW48850  11.879   1.027  12.325  1.0167  0.6133 -0.0725
14296SOL    HW148851  11.883   0.973  12.247  0.8922  1.2861 -0.5524
14296SOL    HW248852  11.907   1.114  12.296  0.6562  0.9497  0.5538
14297SOL     OW48853   4.625   4.489  11.275  0.3843  0.1370  0.2409
14297SOL    HW148854   4.697   4.481  11.338  1.1154 -0.3258 -0.6214
14297SOL    HW248855   4.625   4.581  11.250  0.3219  0.2485  0.6417
14298SOL     OW48856   8.613   8.164   7.661  0.5220  0.3034 -0.1135
14298SOL    HW148857   8.632   8.091   7.720 -0.2235 -1.2876 -1.7579
14298SOL    HW248858   8.689   8.221   7.668  0.4063  0.2745  2.4545
14299SOL     OW48859   5.845   3.854   0.538 -0.5596 -0.1799  0.2363
14299SOL    HW148860   5.794   3.773   0.534 -2.4045  0.9709 -1.1377
14299SOL    HW248861   5.834   3.886   0.627  0.1608 -1.3791  0.7815
14300SOL     OW48862  12.464   4.313   5.487 -0.3177  0.0121  0.1297
14300SOL    HW148863  12.406   4.326   5.413 -0.4038 -0.0163  0.1922
14300SOL    HW248864  12.468   4.218   5.499 -1.3427  0.0573  0.9860
14301SOL     OW48865  10.621   6.521   4.055  0.2701  0.0244 -0.3737
14301SOL    HW148866  10.644   6.569   4.134  0.4521 -0.3558 -0.1922
14301SOL    HW248867  10.656   6.433   4.070 -2.5530 -1.0582  0.5634
14302SOL     OW48868  12.093   3.916   0.353  0.1998 -0.4270  0.3917
14302SOL    HW148869  12.036   3.982   0.390 -1.0343 -1.0184 -0.3625
14302SOL    HW248870  12.151   3.964   0.294 -1.3038 -0.0804 -0.8756
14303SOL     OW48871   2.884   8.942   1.118  0.3440 -0.3851  0.4619
14303SOL    HW148872   2.924   8.903   1.196  1.3202 -1.0996 -0.3696
14303SOL    HW248873   2.790   8.926   1.129  0.1393  1.7506  2.6860
14304SOL     OW48874  11.628   7.414   0.136  0.7724 -0.5434  0.0705
14304SOL    HW148875  11.684   7.478   0.179 -1.4071  1.6780 -0.1969
14304SOL    HW248876  11.579   7.464   0.071  1.7798 -3.2268 -3.0185
14305SOL     OW48877   0.237  11.510   9.333  0.1551  0.8287 -0.5057
14305SOL    HW148878   0.148  11.477   9.324  0.3690  0.6436 -2.3484
14305SOL    HW248879   0.231  11.581   9.397 -1.0735 -0.0042  0.3229
14306SOL     OW48880   5.404   2.455   9.384  0.7058 -0.2684 -0.1330
14306SOL    HW148881   5.382   2.363   9.379 -0.1537 -0.1307  0.7792
14306SOL    HW248882   5.463   2.462   9.459  1.3285 -0.1647 -0.6194
14307SOL     OW48883  11.326   0.512   4.388 -0.5741  0.0583 -0.0225
14307SOL    HW148884  11.265   0.573   4.430  0.5190  0.2921  1.3177
14307SOL    HW248885  11.332   0.439   4.449  0.6961  0.1803  0.0284
14308SOL     OW48886   5.627   6.083   4.941 -0.5789  0.2633 -0.4788
14308SOL    HW148887   5.655   6.161   4.892  0.3889 -0.6198 -1.3856
14308SOL    HW248888   5.700   6.066   5.001 -0.9673  0.2816 -0.0009
14309SOL     OW48889   4.966   2.184   2.880 -0.1881  0.4825  0.1178
14309SOL    HW148890   5.010   2.215   2.960 -0.1056 -1.0555  0.6968
14309SOL    HW248891   5.014   2.227   2.809 -0.3921  2.0402  0.8685
14310SOL     OW48892   4.756   3.988  11.823  0.5295  0.1296 -0.3491
14310SOL    HW148893   4.665   4.013  11.838  0.4775  0.1418 -0.6868
14310SOL    HW248894   4.769   3.910  11.876 -0.5602 -1.7132 -2.6539
14311SOL     OW48895   8.065   4.245   9.402 -0.0181  0.0275  0.5110
14311SOL    HW148896   8.115   4.319   9.438  1.1892 -1.6569  2.5073
14311SOL    HW248897   7.977   4.282   9.388  1.0130  2.3373 -0.5013
14312SOL     OW48898   6.788   8.581   7.858 -0.5828  0.1114  0.6092
14312SOL    HW148899   6.823   8.650   7.914  1.7807  1.0788 -1.8204
14312SOL    HW248900   6.845   8.506   7.875  1.4372  0.9732 -1.6216
14313SOL     OW48901   8.611   0.771  10.718  0.2928  0.4626 -0.1455
14313SOL    HW148902   8.518   0.749  10.727 -0.2606  1.7578 -2.1006
14313SOL    HW248903   8.653   0.686  10.700 -0.9803  0.1700 -2.1005
14314SOL     OW48904   0.247   6.230   1.590  0.2586  0.7786  0.8913
14314SOL    HW148905   0.283   6.154   1.636  0.1836  0.0811 -0.1649
14314SOL    HW248906   0.156   6.235   1.620 -0.0766 -0.2780  0.0923
14315SOL     OW48907  11.981   7.146   3.461 -0.6583 -0.4074  0.3269
14315SOL    HW148908  12.012   7.181   3.545  1.0546  0.9298 -0.7843
14315SOL    HW248909  11.955   7.223   3.411 -1.1141 -1.1336 -0.5870
14316SOL     OW48910   5.727   5.561   7.028  0.3200  0.1207 -0.4748
14316SOL    HW148911   5.686   5.535   6.945  0.8600 -0.9043 -0.4428
14316SOL    HW248912   5.780   5.638   7.006  1.2689 -0.7345 -1.3401
14317SOL     OW48913   9.991   2.381   7.478  0.7193  0.0121 -0.2245
14317SOL    HW148914  10.036   2.323   7.417 -0.5706  0.4389 -1.6501
14317SOL    HW248915   9.994   2.335   7.562 -0.0088 -2.0143 -1.2389
14318SOL     OW48916   3.855   1.941   1.934 -0.5277 -0.3851 -0.2162
14318SOL    HW148917   3.912   1.874   1.896 -1.6288 -2.0375  0.9109
14318SOL    HW248918   3.887   1.952   2.024  1.1506  2.4368 -1.0296
14319SOL     OW48919   4.347   6.370   2.316 -0.7317  0.0463  0.0931
14319SOL    HW148920   4.412   6.377   2.246 -0.0468 -0.7179  0.6220
14319SOL    HW248921   4.303   6.287   2.300 -1.4771  0.4876 -0.1678
14320SOL     OW48922   8.343   0.337  12.487 -0.2791  0.8281 -0.3939
14320SOL    HW148923   8.428   0.377  12.472  0.3270 -0.7132 -1.3448
14320SOL    HW248924   8.351   0.295  12.573 -1.1786  3.2659  0.9743
14321SOL     OW48925   2.408   6.620   1.489  0.1841  0.3853 -0.0059
14321SOL    HW148926   2.401   6.569   1.408 -2.3512  0.5721  0.0017
14321SOL    HW248927   2.467   6.570   1.544  0.9332 -0.4307 -1.4816
14322SOL     OW48928   1.676   9.688   6.941 -0.0641 -0.2875  0.3731
14322SOL    HW148929   1.602   9.702   7.000 -0.7749 -0.3228 -0.4832
14322SOL    HW248930   1.635   9.676   6.855  0.9788  0.4816 -0.2474
14323SOL     OW48931   2.102   8.866   6.811 -0.5431 -0.0162 -0.2778
14323SOL    HW148932   2.156   8.918   6.870 -2.7566  1.6363  0.4045
14323SOL    HW248933   2.109   8.911   6.727 -0.1508 -0.3675 -0.4426
14324SOL     OW48934   1.795   6.910   8.348  0.3908 -0.2627 -0.0077
14324SOL    HW148935   1.747   6.982   8.308 -1.3080 -1.4249 -0.1687
14324SOL    HW248936   1.784   6.923   8.442  0.8171  0.1417 -0.0097
14325SOL     OW48937   6.774   1.757   5.814  0.1058 -0.7352 -0.0534
14325SOL    HW148938   6.738   1.780   5.729  0.2650  0.8017  0.2610
14325SOL    HW248939   6.802   1.841   5.852  2.3955 -1.6383  0.4423
14326SOL     OW48940   7.508  10.657   4.987 -0.4010  0.1163  0.5385
14326SOL    HW148941   7.519  10.752   4.980  1.9650 -0.0604  1.1639
14326SOL    HW248942   7.492  10.628   4.897  0.0753  0.9885  0.1592
14327SOL     OW48943   6.970  12.070   4.301  0.5858  0.1002 -0.4486
14327SOL    HW148944   7.056  12.088   4.339 -0.0982  1.3280  0.5968
14327SOL    HW248945   6.948  11.982   4.333  0.9139  0.2856  0.3149
14328SOL     OW48946   9.040   5.488   2.131  0.0634  0.3321 -0.6617
14328SOL    HW148947   9.037   5.400   2.094  1.2322 -0.8604  1.7959
14328SOL    HW248948   9.133   5.510   2.132 -0.3007  2.1581 -2.3323
14329SOL     OW48949   1.039   7.353   6.669 -0.6093 -0.2713  0.3232
14329SOL    HW148950   1.016   7.426   6.612  0.3509 -0.5664 -0.4905
14329SOL    HW248951   1.026   7.275   6.614  2.5047 -0.4422 -0.3519
14330SOL     OW48952   6.477   6.798  10.647  0.1236  0.3419  0.4574
14330SOL    HW148953   6.420   6.837  10.580  1.4088  0.0345 -0.8548
14330SOL    HW248954   6.553   6.857  10.651  0.1052  0.3132  1.6168
14331SOL     OW48955   6.145   1.825   4.282 -0.1204 -0.1873 -0.3079
14331SOL    HW148956   6.207   1.763   4.320  1.3629  0.0281 -2.2047
14331SOL    HW248957   6.179   1.911   4.307  0.8256 -0.0460 -1.9244
14332SOL     OW48958   0.006  12.091   6.260  0.5778  0.0209 -0.1220
14332SOL    HW148959   0.091  12.135   6.250 -0.7584  2.9298  0.3325
14332SOL    HW248960  -0.028  12.083   6.171  0.9412 -0.3592 -0.2294
14333SOL     OW48961   9.517   2.357   8.506 -0.4948  0.2130 -0.1500
14333SOL    HW148962   9.549   2.351   8.596 -0.2790 -1.6670 -0.3122
14333SOL    HW248963   9.454   2.285   8.498 -0.7075  0.5206 -1.4167
14334SOL     OW48964   8.382   8.740   7.117 -0.2380 -0.1018  0.1775
14334SOL    HW148965   8.403   8.833   7.109  0.5461 -0.3423 -0.7323
14334SOL    HW248966   8.333   8.720   7.037 -1.2863 -0.2648  0.8347
14335SOL     OW48967   1.353  10.798  10.350  0.2728  0.4214 -0.7160
14335SOL    HW148968   1.334  10.800  10.257  0.8970  0.7287 -0.8380
14335SOL    HW248969   1.396  10.882  10.368  0.0708  0.4099 -0.1329
14336SOL     OW48970   9.060   9.194   7.527  0.1570 -0.0515  0.0286
14336SOL    HW148971   9.148   9.201   7.564  0.6187 -0.8723 -0.8853
14336SOL    HW248972   9.021   9.280   7.542  0.3292 -0.3073  2.3744
14337SOL     OW48973   0.262   7.591   3.165  0.0059  0.2928  0.3581
14337SOL    HW148974   0.355   7.573   3.180  0.1041 -1.1776 -1.6563
14337SOL    HW248975   0.219   7.562   3.245  1.1410 -0.4499  0.7230
14338SOL     OW48976   4.698   4.382  10.557 -0.0571 -0.2892  0.0817
14338SOL    HW148977   4.655   4.298  10.572 -1.0781  0.2943  0.5498
14338SOL    HW248978   4.637   4.430  10.500 -0.1901  0.6800  1.0176
14339SOL     OW48979   2.699   5.941   9.025 -0.2597 -0.2691 -0.4151
14339SOL    HW148980   2.665   6.021   8.985  0.8323  0.0817 -0.6858
14339SOL    HW248981   2.776   5.970   9.074  0.2776 -1.1769 -0.6905
14340SOL     OW48982   9.597  10.476   0.701  0.0223 -0.1400  0.0738
14340SOL    HW148983   9.640  10.460   0.617  1.5551  0.9900  0.5698
14340SOL    HW248984   9.601  10.572   0.711 -0.0276 -0.2641  1.4609
14341SOL     OW48985   7.305  12.103   2.628 -0.2855 -0.1409 -0.1776
14341SOL    HW148986   7.271  12.145   2.708  0.7147 -0.3134  0.3529
14341SOL    HW248987   7.226  12.078   2.579 -0.9600 -1.0170  1.2700
14342SOL     OW48988  11.782   3.963   0.916 -0.0155 -0.3553 -0.2416
14342SOL    HW148989  11.738   3.960   1.002  0.2455 -1.4681 -0.1367
14342SOL    HW248990  11.787   4.056   0.896 -1.3187 -0.1363  0.3168
14343SOL     OW48991   2.954  12.481   1.841 -0.1499 -0.2068  0.3911
14343SOL    HW148992   2.936  12.400   1.794 -2.2645  1.0352 -1.0849
14343SOL    HW248993   2.868  12.522   1.852  0.8907  2.0203  0.7409
14344SOL     OW48994  10.042   2.951   7.215  0.3023 -0.5245  0.0036
14344SOL    HW148995   9.987   3.008   7.163  0.2524 -0.9994 -0.4717
14344SOL    HW248996  10.106   3.009   7.256 -0.4367  0.0077  0.4274
14345SOL     OW48997   2.442   2.858   0.157  0.2774  0.4643  0.0364
14345SOL    HW148998   2.365   2.885   0.107 -1.1077 -0.1360  1.7652
14345SOL    HW248999   2.507   2.926   0.139 -1.0909  1.6987 -0.4541
14346SOL     OW49000   3.990   5.046   7.669 -0.0532  0.1815  0.3650
14346SOL    HW149001   4.006   4.952   7.683 -0.1814  0.1043  0.0105
14346SOL    HW249002   3.969   5.053   7.576 -2.9684  0.1537  0.9444
14347SOL     OW49003   5.119   4.023   9.901  0.0593 -0.4599 -0.7872
14347SOL    HW149004   5.166   3.949   9.939 -1.4938 -1.5499 -0.9249
14347SOL    HW249005   5.042   4.034   9.955  0.1190  0.9101 -0.9378
14348SOL     OW49006   1.686  12.000   7.606 -0.2260 -0.0069 -0.2188
14348SOL    HW149007   1.654  12.090   7.598  0.7693  0.3948  0.1145
14348SOL    HW249008   1.652  11.969   7.690 -0.8039 -0.0395 -0.4657
14349SOL     OW49009   9.287   1.816   2.224  0.5301 -0.1355 -0.2958
14349SOL    HW149010   9.250   1.771   2.300  0.8696  1.1896  0.6927
14349SOL    HW249011   9.210   1.852   2.178  0.4396  1.4366  0.9953
14350SOL     OW49012   2.215   2.050   5.746  0.8669 -0.1540  0.4565
14350SOL    HW149013   2.202   2.061   5.840  0.3756 -0.0970  0.3857
14350SOL    HW249014   2.306   2.077   5.731  0.6826  0.6929  0.7809
14351SOL     OW49015   0.513   9.572   8.291  0.7280  0.3534 -0.2308
14351SOL    HW149016   0.468   9.645   8.249  1.2476  0.5977 -0.3654
14351SOL    HW249017   0.542   9.516   8.219  0.9034  0.3517 -0.1601
14352SOL     OW49018  10.271   4.619   7.264  1.0716 -0.0629  0.2262
14352SOL    HW149019  10.184   4.614   7.303  1.2164  0.5375  0.6417
14352SOL    HW249020  10.255   4.653   7.175  0.9510  0.9316  0.6150
14353SOL     OW49021   3.550  11.552   0.784  0.7977 -0.1125  0.4628
14353SOL    HW149022   3.524  11.461   0.768 -1.0413  0.5499 -0.6085
14353SOL    HW249023   3.492  11.581   0.854  0.1340  0.7469 -0.4273
14354SOL     OW49024   2.358   0.950   0.702 -0.8492  0.2498 -0.1922
14354SOL    HW149025   2.442   0.967   0.659 -0.5847  2.9600  1.2027
14354SOL    HW249026   2.381   0.922   0.790 -1.4272 -0.1285 -0.1556
14355SOL     OW49027   2.624   5.488   4.818 -0.2621  0.3904 -0.0045
14355SOL    HW149028   2.552   5.439   4.779 -1.0582  1.4824  0.0512
14355SOL    HW249029   2.621   5.573   4.776  1.3854  0.2859 -0.4287
14356SOL     OW49030   9.228  11.578  12.304  0.0807 -0.0153 -0.2118
14356SOL    HW149031   9.238  11.666  12.268 -2.3235 -0.0746 -1.1432
14356SOL    HW249032   9.188  11.527  12.234  0.8463 -1.7264  0.5290
14357SOL     OW49033   9.870  11.009   9.465 -0.0225 -0.4794 -0.0477
14357SOL    HW149034   9.777  11.012   9.487  0.0264 -0.8985  0.2231
14357SOL    HW249035   9.875  10.951   9.388  0.2804 -2.5532  1.4448
14358SOL     OW49036   5.682   1.240  11.826  0.0615 -0.4773  0.3174
14358SOL    HW149037   5.670   1.237  11.731 -0.2413  0.4665  0.3073
14358SOL    HW249038   5.743   1.312  11.840 -1.7277  1.0050  0.9546
14359SOL     OW49039  11.266   9.019   5.442  0.5771 -0.0707 -0.0222
14359SOL    HW149040  11.337   8.973   5.486  0.4498 -0.0563  0.2027
14359SOL    HW249041  11.309   9.079   5.381  0.7458 -0.4762 -0.3077
14360SOL     OW49042   6.504   9.312   7.703 -0.0729 -0.3675 -0.0529
14360SOL    HW149043   6.518   9.266   7.620  0.5681 -0.6378  0.1959
14360SOL    HW249044   6.539   9.252   7.769 -0.5377 -0.1344  0.4096
14361SOL     OW49045   1.659   7.049   7.578  0.1238 -0.4243  0.9625
14361SOL    HW149046   1.602   6.973   7.568 -0.2070  0.0414 -1.5077
14361SOL    HW249047   1.631   7.090   7.659 -3.4750  0.0294 -0.3288
14362SOL     OW49048   7.786  11.396   4.739 -0.4864 -0.0368 -0.3707
14362SOL    HW149049   7.852  11.460   4.765 -1.0743  0.6180 -0.4745
14362SOL    HW249050   7.703  11.443   4.743 -0.9108 -0.7423 -0.6191
14363SOL     OW49051  11.464   4.096   6.756 -0.5252  0.3237 -0.4206
14363SOL    HW149052  11.474   4.031   6.826  0.2872 -1.7134 -2.3232
14363SOL    HW249053  11.545   4.147   6.760 -0.4028  0.1079 -0.0003
14364SOL     OW49054   0.367   0.315   3.491  0.2600  0.6015  0.3073
14364SOL    HW149055   0.449   0.319   3.540  1.0525  0.7809 -0.9958
14364SOL    HW249056   0.367   0.229   3.451  1.1283  1.5242 -1.8324
14365SOL     OW49057   6.820   8.132   3.049  0.4566  0.0503 -0.1253
14365SOL    HW149058   6.878   8.193   3.093 -1.0160 -0.1465  2.2286
14365SOL    HW249059   6.752   8.186   3.011  1.3855  0.1615 -1.7391
14366SOL     OW49060  11.967   5.123  11.500  0.7481  0.4420 -0.2792
14366SOL    HW149061  11.901   5.160  11.559 -1.0629 -0.1853 -1.8175
14366SOL    HW249062  11.967   5.030  11.520 -1.5915 -0.2088 -2.6733
14367SOL     OW49063   1.665   7.650   9.544 -0.1960  0.8038  0.6344
14367SOL    HW149064   1.691   7.723   9.487  1.4309  1.2725  1.8606
14367SOL    HW249065   1.650   7.577   9.485 -2.4292  2.2356 -0.6895
14368SOL     OW49066   7.143   1.372   2.519  0.4649 -0.0876 -0.7510
14368SOL    HW149067   7.172   1.317   2.446 -0.8040 -0.3402 -1.0861
14368SOL    HW249068   7.214   1.366   2.583  0.9515 -1.0267 -1.3491
14369SOL     OW49069   4.118   1.564   1.041  0.2460 -0.2530  0.2184
14369SOL    HW149070   4.137   1.470   1.045  1.6194 -0.0680 -0.9364
14369SOL    HW249071   4.129   1.595   1.131 -1.3332 -1.3586  0.8271
14370SOL     OW49072   0.181   5.595   4.254  0.2228 -0.5989  0.2853
14370SOL    HW149073   0.180   5.681   4.214  0.9297 -0.2014  1.0960
14370SOL    HW249074   0.213   5.536   4.186 -1.5375 -0.4723 -0.7121
14371SOL     OW49075  10.450  10.568   7.100  0.0541 -0.2186  0.8180
14371SOL    HW149076  10.478  10.570   7.009  1.6203  1.3479  1.2879
14371SOL    HW249077  10.431  10.476   7.117 -2.2657 -0.3079 -1.6177
14372SOL     OW49078   0.095  10.032   9.284  0.4206  0.1564 -0.3256
14372SOL    HW149079   0.179  10.063   9.315  0.3450  0.4154 -0.3769
14372SOL    HW249080   0.068   9.966   9.348 -0.7462  2.1974  1.4110
14373SOL     OW49081   0.887   8.147   5.096  0.2684 -0.0982 -0.9390
14373SOL    HW149082   0.801   8.173   5.062  0.2890  0.0234 -0.9013
14373SOL    HW249083   0.924   8.229   5.131  0.5902 -0.0590 -1.3635
14374SOL     OW49084   0.213  10.469  11.431  0.3004  0.3228  0.1296
14374SOL    HW149085   0.124  10.448  11.457  0.4598 -1.2565 -0.4567
14374SOL    HW249086   0.239  10.543  11.487 -1.0272  0.1755  0.9643
14375SOL     OW49087  11.441   9.902   7.521  0.0195  0.1099 -0.0107
14375SOL    HW149088  11.447   9.881   7.615  0.0526  0.0515 -0.0265
14375SOL    HW249089  11.356   9.867   7.495 -0.9715  1.9669  0.4841
14376SOL     OW49090   2.770   9.822  10.149  0.2861 -0.4635  0.1912
14376SOL    HW149091   2.801   9.769  10.223 -0.0617  1.6578  1.9843
14376SOL    HW249092   2.833   9.894  10.143 -1.0428  0.7344  0.0809
14377SOL     OW49093  11.546   0.656   0.846  0.2570 -0.5176  0.0602
14377SOL    HW149094  11.555   0.563   0.824 -1.6212 -0.4942 -0.9836
14377SOL    HW249095  11.466   0.684   0.802  0.4617  1.4722  0.8364
14378SOL     OW49096   7.352   2.397   7.047  0.5177  0.0419  0.3608
14378SOL    HW149097   7.308   2.376   6.965 -0.4265 -0.7341  1.0468
14378SOL    HW249098   7.375   2.312   7.085  0.0570  0.3423  1.3668
14379SOL     OW49099   4.545  11.203   3.445 -0.5074  1.0292 -0.1778
14379SOL    HW149100   4.526  11.297   3.451 -0.1305  1.0984 -0.0181
14379SOL    HW249101   4.462  11.160   3.466 -0.4810  1.3209  0.5730
14380SOL     OW49102  12.028   4.248   3.288 -0.2497  0.0630 -0.0437
14380SOL    HW149103  11.941   4.236   3.251 -0.1658 -1.8461  0.2823
14380SOL    HW249104  12.085   4.194   3.233  0.8078  1.5140 -0.4359
14381SOL     OW49105   0.903   2.308   4.852  0.2062  0.4657 -0.6402
14381SOL    HW149106   0.920   2.402   4.851  1.6590  0.2264 -0.1174
14381SOL    HW249107   0.988   2.267   4.868 -0.6187 -0.8668  0.7199
14382SOL     OW49108   8.208   4.466  11.551 -0.0735 -0.0337  0.1828
14382SOL    HW149109   8.253   4.382  11.540  0.0544 -0.1627  1.5131
14382SOL    HW249110   8.116   4.446  11.538 -0.0687 -0.4403  0.7319
14383SOL     OW49111   9.263   6.934   8.987 -0.1754  0.0891  0.6183
14383SOL    HW149112   9.234   6.999   8.923 -1.1000  0.0621  0.9960
14383SOL    HW249113   9.298   6.985   9.059  0.8548  0.1203  0.1073
14384SOL     OW49114   1.654   6.320   6.095 -0.0550  0.2593 -0.2679
14384SOL    HW149115   1.691   6.322   6.007 -0.6071 -0.7630 -0.5472
14384SOL    HW249116   1.721   6.276   6.148 -0.0978  0.0689 -0.3712
14385SOL     OW49117   2.969  10.210   9.840  0.1419 -0.6624 -0.2355
14385SOL    HW149118   2.913  10.231   9.765 -0.7982 -3.1756 -0.3500
14385SOL    HW249119   3.049  10.175   9.802  0.5912  0.1535 -0.0549
14386SOL     OW49120   6.443  11.291   4.550  0.1954  0.1367  0.4516
14386SOL    HW149121   6.436  11.313   4.643  0.6191  0.6753  0.3638
14386SOL    HW249122   6.395  11.209   4.540  0.3350 -0.0364  1.1910
14387SOL     OW49123   7.578   0.802   1.555  0.0196  0.0376 -0.1778
14387SOL    HW149124   7.638   0.816   1.482  0.1121 -1.4175 -0.3994
14387SOL    HW249125   7.535   0.719   1.535  0.1881 -0.4869  1.5347
14388SOL     OW49126   4.808   3.708   1.497  0.2641  0.3615  0.1796
14388SOL    HW149127   4.715   3.688   1.494  0.4696 -0.9961  1.4748
14388SOL    HW249128   4.831   3.701   1.589  1.5138  1.3886 -0.0279
14389SOL     OW49129   2.270   3.900   7.707 -0.1126  0.5657 -0.1076
14389SOL    HW149130   2.230   3.962   7.768 -2.0953 -0.1709 -0.5912
14389SOL    HW249131   2.308   3.956   7.638 -0.2672  1.2949  0.3885
14390SOL     OW49132   2.153   2.426   7.821  0.0992 -0.5066 -0.3323
14390SOL    HW149133   2.146   2.509   7.773 -0.4208 -0.7501 -0.6774
14390SOL    HW249134   2.167   2.360   7.753  3.0396 -0.4417  0.0660
14391SOL     OW49135   8.481   3.047   2.724 -0.3969  0.2397 -0.0627
14391SOL    HW149136   8.459   3.054   2.631 -0.1139 -0.6304 -0.2031
14391SOL    HW249137   8.421   2.979   2.757  0.2396 -0.2283  0.1433
14392SOL     OW49138  10.563   3.052  11.903 -0.0837 -0.4526 -0.2184
14392SOL    HW149139  10.598   3.133  11.939 -2.3932 -0.2730  1.8883
14392SOL    HW249140  10.633   2.988  11.915  1.1463  0.8211 -0.3633
14393SOL     OW49141   7.185   4.064   1.908  0.0088  0.1359 -0.6213
14393SOL    HW149142   7.250   3.995   1.924 -0.4454 -0.2632 -0.4751
14393SOL    HW249143   7.102   4.026   1.938 -0.3839  0.4380 -1.3096
14394SOL     OW49144   8.975   7.552   1.935 -0.0203  0.3565 -0.1097
14394SOL    HW149145   8.888   7.548   1.895 -0.0117 -0.2969 -0.0690
14394SOL    HW249146   9.031   7.503   1.874  0.1090 -0.1298  0.3948
14395SOL     OW49147   0.278   2.323   3.841 -0.1129 -0.3094 -0.0055
14395SOL    HW149148   0.346   2.378   3.802  0.5504 -1.6987 -0.8866
14395SOL    HW249149   0.312   2.300   3.928 -0.6149  1.0282  0.5678
14396SOL     OW49150  10.132   1.766   1.953 -0.2778 -0.1776 -0.6345
14396SOL    HW149151  10.147   1.714   1.875 -0.2826 -0.4579 -0.4514
14396SOL    HW249152  10.048   1.811   1.937 -0.3290 -0.3147 -0.7451
14397SOL     OW49153   5.908  10.557   9.134 -0.5229  0.4124  0.6923
14397SOL    HW149154   5.934  10.625   9.071 -1.2833 -1.2169 -1.5260
14397SOL    HW249155   5.990  10.527   9.173  0.2661  0.0177 -1.1511
14398SOL     OW49156   7.934   7.963  10.591 -0.0193 -0.5578 -0.0226
14398SOL    HW149157   7.888   7.882  10.566  1.7913 -1.4940 -0.4982
14398SOL    HW249158   7.974   7.993  10.510  0.2135  0.2251  0.3795
14399SOL     OW49159   0.780   3.885  12.293  0.1345  0.3429  0.0908
14399SOL    HW149160   0.869   3.915  12.275 -0.4131  0.4679 -2.9576
14399SOL    HW249161   0.748   3.946  12.359  1.3744  2.2097 -0.9238
14400SOL     OW49162   3.733   9.868  10.175 -0.1827 -0.0007 -0.1706
14400SOL    HW149163   3.663   9.934  10.172 -0.5817 -0.4234 -3.4483
14400SOL    HW249164   3.800   9.901  10.115  2.2633  0.0740  2.4008
14401SOL     OW49165   5.179   4.350   2.735 -0.3612 -0.5126  0.0223
14401SOL    HW149166   5.219   4.338   2.649 -0.9327 -1.9998 -0.0681
14401SOL    HW249167   5.223   4.286   2.791 -2.0557 -1.6730  0.0910
14402SOL     OW49168   8.654  10.236   9.343  0.2691  0.2215 -0.0477
14402SOL    HW149169   8.572  10.196   9.317 -0.1931 -1.0419  2.9543
14402SOL    HW249170   8.647  10.327   9.315 -2.9408  0.5967  1.5147
14403SOL     OW49171  11.334   9.311   3.433 -0.1222  0.0016  0.7261
14403SOL    HW149172  11.277   9.286   3.360  1.7754 -0.4996 -0.6520
14403SOL    HW249173  11.275   9.352   3.497 -1.8055  0.6853 -1.1783
14404SOL     OW49174   6.970   2.764   3.853  0.0468 -0.2097  0.0946
14404SOL    HW149175   6.876   2.756   3.865 -0.1953 -0.8876 -1.9958
14404SOL    HW249176   6.984   2.758   3.759  2.3262 -1.6981  0.4467
14405SOL     OW49177  11.409   5.028   7.078  0.5007 -0.0961 -0.0615
14405SOL    HW149178  11.474   5.046   7.146 -0.9580  0.0824  1.3643
14405SOL    HW249179  11.375   4.942   7.100 -1.4263  0.7975  0.7159
14406SOL     OW49180   0.674   5.128   0.672  0.4747 -0.0329 -0.4477
14406SOL    HW149181   0.585   5.105   0.648  1.3724 -2.5389 -1.7747
14406SOL    HW249182   0.691   5.077   0.752  1.0242 -0.4072 -0.7938
14407SOL     OW49183   7.867   6.683   4.603  0.1208 -0.6969  0.1315
14407SOL    HW149184   7.871   6.711   4.694 -0.3186  2.1439 -0.6246
14407SOL    HW249185   7.958   6.668   4.578  0.7761  2.8026 -0.0613
14408SOL     OW49186   1.945   9.383  12.024  0.0919  0.4361  0.3335
14408SOL    HW149187   1.853   9.391  12.047  0.2132 -0.1822  1.0927
14408SOL    HW249188   1.949   9.306  11.966  0.0099  1.0067 -0.4349
14409SOL     OW49189  12.001  12.339   6.069  0.6842  0.2713  0.2210
14409SOL    HW149190  11.918  12.384   6.085 -0.1958 -0.7603 -1.2509
14409SOL    HW249191  12.067  12.406   6.086 -0.3746  0.9137  2.1630
14410SOL     OW49192   6.486   4.656   0.863  0.6377  0.0259 -0.4865
14410SOL    HW149193   6.536   4.633   0.942  0.7622  1.5842 -0.0718
14410SOL    HW249194   6.412   4.708   0.896 -0.4495 -1.0033 -1.2325
14411SOL     OW49195   7.425   3.093   7.325  0.4400  0.2627 -0.0254
14411SOL    HW149196   7.502   3.120   7.374  0.0562 -0.8782  1.2955
14411SOL    HW249197   7.362   3.067   7.393 -0.5200 -0.3183 -1.1054
14412SOL     OW49198   4.808   6.134   7.348 -0.3291 -0.2372  0.3157
14412SOL    HW149199   4.771   6.217   7.316 -0.2885 -0.2221  0.3066
14412SOL    HW249200   4.765   6.067   7.295 -1.4404 -0.3340  1.3122
14413SOL     OW49201   0.068   7.940   4.619  0.2799  0.2405  0.0691
14413SOL    HW149202   0.160   7.939   4.592  0.4550  0.8544  0.6401
14413SOL    HW249203   0.041   7.847   4.616  0.5657  0.1734 -1.2461
14414SOL     OW49204   7.372   7.039   0.344 -1.1009  0.0685 -1.0051
14414SOL    HW149205   7.393   6.958   0.391 -0.2680 -0.6285 -2.5020
14414SOL    HW249206   7.279   7.052   0.359 -1.0510 -0.6443  0.0366
14415SOL     OW49207   3.563   1.988   9.378  0.6101 -0.0419 -0.1141
14415SOL    HW149208   3.507   1.923   9.335  0.7300 -1.4464  1.7170
14415SOL    HW249209   3.505   2.062   9.394 -0.5364 -1.1118  0.9148
14416SOL     OW49210   7.877   5.092  12.103 -0.6802 -0.6808  0.3787
14416SOL    HW149211   7.969   5.101  12.080 -0.5024 -1.9089  0.5100
14416SOL    HW249212   7.830   5.104  12.021 -0.1567 -3.3876 -0.4223
14417SOL     OW49213   8.692  11.400   0.155  0.0522  0.6319 -0.1795
14417SOL    HW149214   8.623  11.386   0.220  0.3800  1.5920  0.3919
14417SOL    HW249215   8.668  11.483   0.112 -0.1931 -0.0195 -1.3328
14418SOL     OW49216   0.647   4.300   4.351  0.1080  0.4844 -0.7440
14418SOL    HW149217   0.693   4.383   4.361  2.9093 -0.9431 -0.9940
14418SOL    HW249218   0.674   4.266   4.266  0.0508 -1.2521 -0.1206
14419SOL     OW49219   1.691   8.697   3.064  0.2001  0.5588 -0.3211
14419SOL    HW149220   1.699   8.614   3.017  0.3967 -1.2406  2.6473
14419SOL    HW249221   1.597   8.715   3.067  0.1176  0.1613 -0.5021
14420SOL     OW49222  10.667   0.726   2.632 -0.3225  0.3694 -0.2339
14420SOL    HW149223  10.575   0.730   2.606 -0.5765  0.7921  0.6873
14420SOL    HW249224  10.666   0.676   2.714  0.1411  1.2388  0.3132
14421SOL     OW49225   2.002   2.906   0.860 -0.9948 -0.1838  0.0413
14421SOL    HW149226   2.036   2.937   0.776 -1.5356  0.3290  0.0066
14421SOL    HW249227   2.045   2.822   0.873  0.3562  0.4826  0.0424
14422SOL     OW49228  11.227   2.859   6.462 -0.1916 -0.5607 -0.0488
14422SOL    HW149229  11.244   2.942   6.416 -0.1496  0.2264  1.3277
14422SOL    HW249230  11.274   2.793   6.411 -1.1794  0.0527 -1.8364
14423SOL     OW49231   2.731  12.437   6.610  0.2600  0.4132 -0.5998
14423SOL    HW149232   2.728  12.349   6.646  1.2733  0.9807  0.9776
14423SOL    HW249233   2.799  12.433   6.542 -0.8513 -0.3790 -1.7204
14424SOL     OW49234   6.497   2.580   1.316  0.0885  0.3965 -0.5943
14424SOL    HW149235   6.545   2.498   1.322 -2.8233 -1.6191 -2.2933
14424SOL    HW249236   6.506   2.606   1.224 -0.0682  1.2664 -0.3686
14425SOL     OW49237   9.141   4.552   2.916  0.1715  0.3591 -0.1581
14425SOL    HW149238   9.210   4.487   2.902  0.2528  0.4148 -0.0123
14425SOL    HW249239   9.179   4.615   2.977 -0.2669  0.0019  0.4912
14426SOL     OW49240   7.518   4.475   3.264  0.4750  0.3653  0.7361
14426SOL    HW149241   7.527   4.448   3.173  0.4893  0.7286  0.6258
14426SOL    HW249242   7.432   4.444   3.290  0.3022  0.6102  0.4703
14427SOL     OW49243   6.584  10.206   7.933 -0.1671  0.3108  0.0815
14427SOL    HW149244   6.581  10.228   8.026 -0.5532 -3.2888  1.0987
14427SOL    HW249245   6.502  10.238   7.898  0.4511  2.7073  0.6449
14428SOL     OW49246  11.838   9.820   3.406  0.4972  0.0358 -0.0463
14428SOL    HW149247  11.887   9.840   3.486 -1.7008 -0.2083  1.4717
14428SOL    HW249248  11.875   9.737   3.376  0.7751 -0.3448  1.2605
14429SOL     OW49249   3.505  10.027  10.135  0.2165  0.2143  0.1096
14429SOL    HW149250   3.416  10.052  10.160  0.9406  1.4541  1.6680
14429SOL    HW249251   3.505  10.032  10.040 -1.5466 -0.4566  0.0369
14430SOL     OW49252   1.804   1.080   2.222  0.1340 -0.1051  0.2254
14430SOL    HW149253   1.711   1.057   2.229  0.1229 -0.5988 -1.1511
14430SOL    HW249254   1.804   1.175   2.211 -0.1691 -0.0438  0.7238
14431SOL     OW49255   4.018   8.383   2.634 -0.0732  0.0182 -0.3273
14431SOL    HW149256   4.035   8.370   2.540 -1.1237  0.7680 -0.6488
14431SOL    HW249257   4.041   8.300   2.675  1.3707  0.0035 -1.1055
14432SOL     OW49258   3.814   7.622   8.487  0.1691  0.3406 -0.0805
14432SOL    HW149259   3.882   7.631   8.421  0.0739  0.9503 -0.1024
14432SOL    HW249260   3.810   7.528   8.506 -0.6901 -0.0239 -1.8732
14433SOL     OW49261   5.121   5.886   1.587 -0.4831 -0.7731 -0.3894
14433SOL    HW149262   5.106   5.797   1.618 -0.4128 -0.6455  0.0120
14433SOL    HW249263   5.052   5.938   1.627  0.2490 -0.4118  0.4407
14434SOL     OW49264   3.455   6.221   8.391 -0.1807 -0.6083 -0.4046
14434SOL    HW149265   3.511   6.184   8.459  1.4602 -1.5973 -2.1882
14434SOL    HW249266   3.431   6.146   8.336 -1.1313  0.2062 -1.1322
14435SOL     OW49267   3.333  12.192   3.770 -0.3293 -0.0618 -0.0053
14435SOL    HW149268   3.393  12.206   3.843 -0.9959  0.3295  0.4792
14435SOL    HW249269   3.277  12.269   3.771 -1.1847 -0.6744 -0.1176
14436SOL     OW49270   1.475   9.999   6.944 -0.6911  0.0811  0.1553
14436SOL    HW149271   1.530  10.075   6.964  1.1199 -1.7949  3.0432
14436SOL    HW249272   1.389  10.021   6.981  0.0755  0.3851  1.8321
14437SOL     OW49273  10.175   7.491   7.213 -0.0479  0.5494 -0.3868
14437SOL    HW149274  10.102   7.444   7.173  1.3540 -1.3670 -0.8553
14437SOL    HW249275  10.238   7.501   7.142  0.8271  0.6999  0.3958
14438SOL     OW49276   8.604   3.790  10.834 -0.7043 -0.2111 -0.0550
14438SOL    HW149277   8.584   3.883  10.847 -1.2046 -0.3677  0.3142
14438SOL    HW249278   8.606   3.779  10.739 -1.1796  0.0641 -0.0999
14439SOL     OW49279   3.464   6.347   4.071 -0.3110  0.0497 -0.3151
14439SOL    HW149280   3.400   6.381   4.008 -0.7346  0.1283  0.1465
14439SOL    HW249281   3.503   6.425   4.109 -0.6145  0.0138  0.0749
14440SOL     OW49282   6.491   4.937  10.858  0.1480 -0.7833 -0.5489
14440SOL    HW149283   6.566   4.878  10.845 -1.1722 -2.0771 -2.9844
14440SOL    HW249284   6.509   5.012  10.801 -0.0128 -0.6906 -0.4769
14441SOL     OW49285  10.861   2.814  10.101 -0.5509 -0.7225  0.2485
14441SOL    HW149286  10.923   2.885  10.084 -1.4329 -0.0468 -0.1936
14441SOL    HW249287  10.811   2.806  10.020 -0.1854 -2.1393  0.1411
14442SOL     OW49288   6.689   0.831   1.914  0.2042 -0.3043  0.1310
14442SOL    HW149289   6.707   0.925   1.917  0.7723 -0.4342  0.9886
14442SOL    HW249290   6.774   0.791   1.893 -0.0203 -0.6400 -0.1589
14443SOL     OW49291   2.768   0.810   9.960  0.3745 -0.2223 -0.1101
14443SOL    HW149292   2.677   0.787   9.942  0.9444 -2.1073 -0.8111
14443SOL    HW249293   2.791   0.760  10.038  0.0230  2.4868  1.8890
14444SOL     OW49294   2.465   8.972  12.163  0.4314  0.3706  0.6673
14444SOL    HW149295   2.497   9.062  12.155  1.2840 -0.0665 -2.3396
14444SOL    HW249296   2.381   8.980  12.207 -1.5670  3.2680 -3.0814
14445SOL     OW49297   2.698   7.176   8.862 -0.6646  0.1719  0.1557
14445SOL    HW149298   2.652   7.129   8.932 -1.8937  0.2408 -0.5659
14445SOL    HW249299   2.738   7.251   8.906 -0.3250 -0.4786  0.9906
14446SOL     OW49300  10.249   2.919   5.882 -0.0031  0.0304 -0.9806
14446SOL    HW149301  10.192   2.988   5.849  0.2789  1.0812  0.6325
14446SOL    HW249302  10.200   2.877   5.952  0.2702 -0.6976 -1.2040
14447SOL     OW49303   5.816   0.862   5.277  0.0317  0.3392  0.1893
14447SOL    HW149304   5.795   0.911   5.357 -0.2494  0.5322  0.0008
14447SOL    HW249305   5.731   0.832   5.245 -0.0015  1.3246 -0.7074
14448SOL     OW49306  11.215   5.430   3.559 -0.0885 -0.0170  0.4916
14448SOL    HW149307  11.176   5.349   3.526 -1.7011  0.5846  0.8111
14448SOL    HW249308  11.159   5.456   3.632 -1.1796  2.6649 -1.1327
14449SOL     OW49309  12.319   9.656   5.595 -0.0844 -0.3575  0.2010
14449SOL    HW149310  12.304   9.642   5.501 -0.9230  2.9733 -0.2793
14449SOL    HW249311  12.407   9.622   5.610  0.9305  0.8728 -2.3083
14450SOL     OW49312   4.021   4.895   1.725  0.1199 -0.1192 -0.0879
14450SOL    HW149313   4.049   4.834   1.793  1.8547  1.3683  0.6222
14450SOL    HW249314   3.928   4.912   1.745  0.4183 -0.2256  1.5275
14451SOL     OW49315  10.465   2.385   2.709 -0.3426 -0.1658 -0.3704
14451SOL    HW149316  10.490   2.447   2.778  1.7176 -0.4608 -0.7730
14451SOL    HW249317  10.393   2.335   2.746  0.9841 -0.6065  1.7793
14452SOL     OW49318  11.528   3.901   5.968 -0.1336  0.5731  0.1162
14452SOL    HW149319  11.618   3.934   5.970  0.0110  0.7155 -3.1044
14452SOL    HW249320  11.536   3.809   5.991  0.9344  0.4990 -0.4471
14453SOL     OW49321   1.403   6.436  10.700 -0.6626 -0.3182  0.0058
14453SOL    HW149322   1.370   6.426  10.611 -2.5954  0.3984  0.5635
14453SOL    HW249323   1.486   6.389  10.702  0.5403  1.4358 -2.7401
14454SOL     OW49324   9.701   9.505   7.518 -0.4704  0.0686  0.3651
14454SOL    HW149325   9.624   9.511   7.574 -1.6137  1.8843 -1.2828
14454SOL    HW249326   9.690   9.423   7.470 -1.1280  0.0713  0.4997
14455SOL     OW49327   4.145   5.104   2.201 -0.4747 -0.2137 -0.0728
14455SOL    HW149328   4.184   5.121   2.115  0.9945  0.9514  0.7767
14455SOL    HW249329   4.099   5.185   2.224 -1.1831 -0.6507  0.0922
14456SOL     OW49330   6.850  10.900   6.125 -0.3285 -0.4626 -0.5065
14456SOL    HW149331   6.863  10.978   6.071 -1.8771  0.1579 -0.0584
14456SOL    HW249332   6.938  10.866   6.140  0.4626  1.5523 -0.2136
14457SOL     OW49333   9.019   1.689   3.226  0.3309 -0.5663  0.4424
14457SOL    HW149334   8.995   1.726   3.311 -0.8845  0.1411 -0.1903
14457SOL    HW249335   8.971   1.606   3.222  0.8455 -0.8793  0.6819
14458SOL     OW49336   0.924   9.332   2.831 -0.2282 -0.1301  0.2293
14458SOL    HW149337   0.973   9.407   2.867 -1.4644 -0.0307  1.8460
14458SOL    HW249338   0.875   9.368   2.758  0.3298  0.2894  0.0514
14459SOL     OW49339   7.247  11.650  11.298  0.1944 -0.1112 -0.9355
14459SOL    HW149340   7.263  11.710  11.371  0.8638 -0.1190 -1.0735
14459SOL    HW249341   7.273  11.699  11.220  3.2013 -1.3882 -0.8729
14460SOL     OW49342   2.844  11.758   3.520 -0.0242 -0.0014 -0.1443
14460SOL    HW149343   2.897  11.838   3.521 -0.9450  0.6238 -0.3695
14460SOL    HW249344   2.817  11.747   3.611  0.2950 -0.1913 -0.0711
14461SOL     OW49345   4.429   0.207   9.524 -0.1292  0.1514  0.7551
14461SOL    HW149346   4.333   0.213   9.520 -0.0718  0.7266 -0.0001
14461SOL    HW249347   4.446   0.114   9.540 -0.7975 -0.1463 -0.1579
14462SOL     OW49348   6.709   4.949   9.907 -0.2742 -0.2462  0.3853
14462SOL    HW149349   6.743   5.039   9.903 -1.8660  0.3679 -0.2488
14462SOL    HW249350   6.748   4.906   9.831  0.7564 -0.2138  0.8738
14463SOL     OW49351   8.855   0.076   8.609 -0.1731 -0.4344  0.5083
14463SOL    HW149352   8.895   0.130   8.541  0.1453 -1.3995 -0.0853
14463SOL    HW249353   8.928   0.055   8.668  0.6878 -3.4733 -1.3894
14464SOL     OW49354  10.562  11.720   1.151 -0.2573  0.2764  0.3220
14464SOL    HW149355  10.558  11.721   1.247  2.6651 -1.6616  0.5633
14464SOL    HW249356  10.483  11.672   1.125 -1.3152  1.1873  1.6928
14465SOL     OW49357  11.937   3.453   2.086  0.1334  0.5061  0.2774
14465SOL    HW149358  11.877   3.403   2.031  0.5328 -2.4991  2.2903
14465SOL    HW249359  12.012   3.395   2.097  2.5918  3.3298 -0.5167
14466SOL     OW49360  12.490   2.715   5.058 -0.0225  0.4534  0.5789
14466SOL    HW149361  12.455   2.626   5.052 -1.1302  0.9633 -1.4241
14466SOL    HW249362  12.544   2.725   4.980  2.2214  0.7387  2.0766
14467SOL     OW49363   6.078   8.443   3.345  0.1761  0.2046  0.1987
14467SOL    HW149364   6.172   8.437   3.363  0.0987  0.6539  0.8135
14467SOL    HW249365   6.045   8.499   3.415 -0.2784  1.4271 -0.9547
14468SOL     OW49366   3.885   5.589   4.658 -0.0408 -0.3596 -0.2017
14468SOL    HW149367   3.980   5.586   4.672 -0.2234 -0.1768  1.2796
14468SOL    HW249368   3.850   5.522   4.718 -0.7466 -1.7153 -2.0388
14469SOL     OW49369   2.504  10.223   4.562  0.0728 -0.1993  0.9624
14469SOL    HW149370   2.585  10.174   4.555  0.7550  0.9653  0.4228
14469SOL    HW249371   2.521  10.305   4.516 -2.0823 -0.7587 -1.0503
14470SOL     OW49372   6.905   1.408   1.801 -0.1615  0.2981 -0.2081
14470SOL    HW149373   6.855   1.462   1.862 -1.3818  0.5535 -1.3887
14470SOL    HW249374   6.846   1.335   1.780  1.1332 -1.0807  0.6885
14471SOL     OW49375   8.803   8.685   9.817 -0.1333 -0.0097  0.1801
14471SOL    HW149376   8.737   8.632   9.861 -1.0344  1.4193  0.6258
14471SOL    HW249377   8.753   8.746   9.764  0.6324  2.7072  2.3293
14472SOL     OW49378  10.809   7.215  11.942  0.6788 -0.2252  0.7120
14472SOL    HW149379  10.749   7.160  11.993  0.5083  0.2419  1.0230
14472SOL    HW249380  10.845   7.276  12.006  0.3039  0.5110  0.2373
14473SOL     OW49381   9.891   5.215   2.172 -0.2712 -0.4576 -0.1673
14473SOL    HW149382   9.887   5.166   2.254 -3.4655 -0.6633 -0.3184
14473SOL    HW249383   9.875   5.149   2.104  2.6346 -0.3475 -1.0995
14474SOL     OW49384  12.086   6.463  10.309  0.1629 -0.4729 -0.1563
14474SOL    HW149385  12.161   6.439  10.363  0.9674  0.8215 -0.6441
14474SOL    HW249386  12.123   6.476  10.222 -0.8131 -0.7958 -0.6303
14475SOL     OW49387  10.972  11.938  11.520  0.8393  0.0004  0.0590
14475SOL    HW149388  11.001  11.978  11.601  1.5808 -0.7759  0.1881
14475SOL    HW249389  11.051  11.931  11.466  0.4602  0.0097 -0.5141
14476SOL     OW49390   8.866  11.289   3.379  0.1637  0.2999 -0.1467
14476SOL    HW149391   8.854  11.321   3.468 -1.2548 -2.3277  0.7066
14476SOL    HW249392   8.901  11.201   3.389  0.7443  0.2216 -2.2375
14477SOL     OW49393   4.040  10.363   6.667  0.2619  0.0945 -0.1756
14477SOL    HW149394   4.059  10.441   6.720 -0.4578  0.1939 -0.0509
14477SOL    HW249395   4.126  10.324   6.650  0.5572  0.3880  0.5712
14478SOL     OW49396  10.817   5.457   0.826  0.1049 -0.1862  0.3251
14478SOL    HW149397  10.810   5.500   0.741  1.1684  0.4032  0.5259
14478SOL    HW249398  10.742   5.491   0.875  0.3458  0.6551  0.1294
14479SOL     OW49399   1.217   1.429  10.574 -0.0010 -0.3287 -0.7472
14479SOL    HW149400   1.235   1.469  10.489  1.6259  1.5215  0.3689
14479SOL    HW249401   1.291   1.455  10.629 -1.7803 -0.0800  1.7055
14480SOL     OW49402   5.324   7.040   3.486 -0.3474 -0.3686 -0.3543
14480SOL    HW149403   5.406   6.992   3.491 -1.2003 -1.7980  0.8037
14480SOL    HW249404   5.349   7.129   3.460  1.3109 -1.3630 -2.4625
14481SOL     OW49405   5.343   4.137   8.319 -0.0063 -0.5116  0.1220
14481SOL    HW149406   5.255   4.114   8.345  0.3042 -0.6159  1.1096
14481SOL    HW249407   5.343   4.127   8.223 -1.2744  0.2539  0.0178
14482SOL     OW49408  10.407  10.108  10.203  0.6031  0.3150 -0.4320
14482SOL    HW149409  10.432  10.169  10.273  0.1451  0.5025 -0.4279
14482SOL    HW249410  10.356  10.162  10.142 -1.1410 -0.3768  0.3440
14483SOL     OW49411   8.780   3.884   3.627  0.2215 -0.1104  0.1720
14483SOL    HW149412   8.723   3.841   3.564  0.1399 -1.0111  0.8494
14483SOL    HW249413   8.767   3.978   3.610  0.3316 -0.3251 -1.2514
14484SOL     OW49414   0.393   2.767   7.129  0.0918 -0.0112 -0.3732
14484SOL    HW149415   0.327   2.797   7.067  1.6609  0.0077 -2.1344
14484SOL    HW249416   0.462   2.730   7.074  0.5405 -2.1520  1.4868
14485SOL     OW49417   3.593   3.901   1.638 -0.0312 -0.0374  0.7564
14485SOL    HW149418   3.638   3.976   1.599  0.5852 -0.2436  1.0683
14485SOL    HW249419   3.615   3.905   1.731  0.6640 -1.0556  0.6498
14486SOL     OW49420   4.683   7.156  10.302 -0.5025 -0.2600  0.1252
14486SOL    HW149421   4.594   7.149  10.267 -0.8970  0.0119  1.0458
14486SOL    HW249422   4.725   7.074  10.278 -2.1360 -2.0088  2.7320
14487SOL     OW49423   5.612   3.769   8.594 -0.1693  0.0988  0.2791
14487SOL    HW149424   5.556   3.841   8.566  1.3209  0.8139 -1.0008
14487SOL    HW249425   5.592   3.697   8.535 -0.7765 -0.1506  0.7747
14488SOL     OW49426   2.978   3.213   7.567  0.4535 -0.3692  0.1719
14488SOL    HW149427   2.946   3.299   7.541 -0.7699 -0.5923  0.8680
14488SOL    HW249428   2.980   3.163   7.485  1.4465  0.3678 -0.2867
14489SOL     OW49429  11.407   7.150   3.313  0.1795 -0.0887  0.4530
14489SOL    HW149430  11.488   7.122   3.354  1.0902 -0.1588 -1.2985
14489SOL    HW249431  11.338   7.119   3.372  1.3931 -0.2312  1.8558
14490SOL     OW49432   6.352   3.443   2.300  0.9220 -0.1674  0.3544
14490SOL    HW149433   6.331   3.525   2.256  0.7407  0.3420  1.3584
14490SOL    HW249434   6.433   3.460   2.348  2.2247 -1.3131 -1.3170
14491SOL     OW49435  12.314   6.702  11.526 -0.2502  0.3849 -0.0394
14491SOL    HW149436  12.320   6.747  11.442  1.4907  0.0886 -0.1256
14491SOL    HW249437  12.271   6.619  11.506 -1.1542  0.9240 -0.3557
14492SOL     OW49438  10.405   4.557   3.793 -0.7418 -0.0693 -0.0000
14492SOL    HW149439  10.325   4.503   3.791  0.1658 -1.4671 -0.1845
14492SOL    HW249440  10.391   4.624   3.726 -1.7812 -0.2574  0.0085
14493SOL     OW49441   1.042   4.996   1.989  0.5112  0.6845  0.0564
14493SOL    HW149442   0.994   5.069   1.951  1.8811  0.1914 -2.9093
14493SOL    HW249443   1.131   5.030   2.000  0.4908  0.3279  1.5515
14494SOL     OW49444   6.377  10.526  10.178  0.0636  0.3398  0.2397
14494SOL    HW149445   6.415  10.486  10.099 -1.8177  0.6644 -0.8846
14494SOL    HW249446   6.387  10.620  10.164 -1.2262  0.4362 -0.1465
14495SOL     OW49447  11.767  11.796   2.500 -0.0651 -0.7217 -0.2407
14495SOL    HW149448  11.711  11.735   2.548 -0.8407  0.1305 -0.0295
14495SOL    HW249449  11.822  11.837   2.567 -2.0554  1.4330  0.1900
14496SOL     OW49450   9.752  10.269   4.527 -0.3477  1.1514  0.1883
14496SOL    HW149451   9.832  10.260   4.474 -0.3358 -0.4883  0.4198
14496SOL    HW249452   9.693  10.320   4.473 -1.0076 -1.9315 -2.3202
14497SOL     OW49453   5.825   1.230  10.156  0.3576  0.0003  0.5308
14497SOL    HW149454   5.853   1.312  10.115  0.2867 -0.8431 -1.3276
14497SOL    HW249455   5.881   1.163  10.117 -1.4308 -1.1810 -0.1615
14498SOL     OW49456   4.499  10.380   8.187 -0.3251  0.1141  0.2779
14498SOL    HW149457   4.579  10.347   8.228 -1.7451 -0.4199  2.8764
14498SOL    HW249458   4.474  10.311   8.125  1.5353  0.6190 -1.1231
14499SOL     OW49459   0.480   4.562   9.155  0.1344  0.6009 -0.5754
14499SOL    HW149460   0.542   4.538   9.224 -0.1714  0.3348 -0.3889
14499SOL    HW249461   0.510   4.647   9.124  0.5548  0.5038 -0.4430
14500SOL     OW49462   3.633  11.643   1.542 -0.3728  0.2475 -0.3452
14500SOL    HW149463   3.570  11.572   1.557 -0.7293  0.3192 -1.3864
14500SOL    HW249464   3.601  11.715   1.595 -0.3043 -0.2057  0.3204
14501SOL     OW49465   1.425   1.453   6.946 -0.0208  0.3003  0.2001
14501SOL    HW149466   1.355   1.503   6.988 -2.2010 -1.0455 -1.5729
14501SOL    HW249467   1.418   1.477   6.853  0.7225 -1.1591 -0.2602
14502SOL     OW49468   0.468   3.327   3.189  0.0183  0.4536 -0.1367
14502SOL    HW149469   0.516   3.333   3.272 -0.7791  0.4132  0.3369
14502SOL    HW249470   0.490   3.240   3.156 -0.2890  0.1562  0.4289
14503SOL     OW49471   0.608   1.822   2.977 -0.5396 -0.0689 -0.3095
14503SOL    HW149472   0.594   1.831   3.071 -1.8657  0.5921 -0.5414
14503SOL    HW249473   0.606   1.727   2.962 -1.2791 -0.1484  0.2090
14504SOL     OW49474   8.619   2.086  11.654  0.2009  0.6896 -0.2797
14504SOL    HW149475   8.598   2.000  11.618  0.3089  0.2501  0.6696
14504SOL    HW249476   8.699   2.073  11.704 -0.4940  1.0169  0.9936
14505SOL     OW49477   5.359   4.675  11.977  0.5894 -0.4192 -0.0570
14505SOL    HW149478   5.356   4.754  11.922 -1.1510 -0.7960 -0.5689
14505SOL    HW249479   5.452   4.649  11.977  1.0660  1.1698 -0.5162
14506SOL     OW49480   3.453  11.736   1.046 -0.1652 -0.2296  0.1514
14506SOL    HW149481   3.460  11.642   1.035 -0.9924 -0.2513 -0.2690
14506SOL    HW249482   3.360  11.751   1.066 -0.4064  0.6387 -1.4382
14507SOL     OW49483   7.972   3.370   5.221  0.3162 -0.5265  0.2220
14507SOL    HW149484   7.918   3.368   5.300 -1.1062  0.4916 -0.6665
14507SOL    HW249485   7.908   3.364   5.149  1.2388  1.9475 -0.9047
14508SOL     OW49486   2.053   3.491   8.366  0.4957  0.1949 -0.2252
14508SOL    HW149487   1.969   3.535   8.354 -0.4227 -1.5106 -0.2877
14508SOL    HW249488   2.082   3.468   8.278  0.9851  0.6668 -0.1958
14509SOL     OW49489   9.598   8.687   3.531 -0.7675 -0.3105 -0.0683
14509SOL    HW149490   9.610   8.678   3.437 -1.7037  1.4379 -0.4164
14509SOL    HW249491   9.598   8.598   3.565  1.3983 -0.8992 -1.4576
14510SOL     OW49492  11.142   3.422   4.530  0.1260 -0.1824  0.5747
14510SOL    HW149493  11.051   3.403   4.555 -0.1654 -0.0301 -0.3441
14510SOL    HW249494  11.193   3.353   4.573 -0.4533 -0.4450  0.8549
14511SOL     OW49495  12.459  10.482   9.130 -0.3163 -0.0734 -0.2621
14511SOL    HW149496  12.462  10.517   9.218  1.2434  2.4866 -1.2379
14511SOL    HW249497  12.380  10.427   9.129 -2.1665  2.3028  1.8168
14512SOL     OW49498   1.974   5.377   4.517  0.5633 -0.0543  0.3696
14512SOL    HW149499   1.926   5.458   4.536 -1.3748 -1.0388 -0.1262
14512SOL    HW249500   1.906   5.312   4.499  2.0646 -1.8100  0.7236
14513SOL     OW49501  10.024   5.853   3.865  0.5997  0.2069  0.4328
14513SOL    HW149502   9.980   5.839   3.949 -0.9420 -2.0496 -0.6615
14513SOL    HW249503  10.000   5.942   3.840 -0.3446  0.3002  1.5828
14514SOL     OW49504   1.386  11.601   4.982 -0.1918  0.3149  0.4134
14514SOL    HW149505   1.428  11.525   5.022 -1.3356 -0.9755 -0.7544
14514SOL    HW249506   1.446  11.627   4.912 -1.4525 -1.8391 -1.5902
14515SOL     OW49507   5.808   9.137   0.749 -0.0792  0.2777 -0.2941
14515SOL    HW149508   5.774   9.205   0.807 -1.6597 -1.4287  0.9307
14515SOL    HW249509   5.795   9.170   0.661 -1.5658  1.2288  0.2561
14516SOL     OW49510  12.329   8.100   5.011  0.1815  0.2122 -0.0980
14516SOL    HW149511  12.392   8.131   5.076 -0.5468  1.2962  0.1347
14516SOL    HW249512  12.301   8.014   5.043 -0.0723  0.6759  0.9880
14517SOL     OW49513  11.259   7.704   2.054  0.0773 -0.4468  0.1691
14517SOL    HW149514  11.169   7.674   2.064 -0.6426  1.5397 -0.0026
14517SOL    HW249515  11.312   7.630   2.086 -1.5621 -1.8272 -0.1608
14518SOL     OW49516   6.433   7.909   5.283 -0.1178 -0.0146  0.2717
14518SOL    HW149517   6.379   7.925   5.361  1.1161  1.0868  0.9410
14518SOL    HW249518   6.466   7.995   5.259  0.3969 -0.5060 -0.8438
14519SOL     OW49519   7.186   2.286   0.352 -0.8214 -0.6699 -0.1443
14519SOL    HW149520   7.279   2.262   0.352 -0.6590 -0.0626  0.0277
14519SOL    HW249521   7.156   2.267   0.441 -1.0798 -1.6639 -0.4368
14520SOL     OW49522   1.570   7.968  11.660  0.7446 -0.3075 -0.4257
14520SOL    HW149523   1.604   8.058  11.657 -0.8775  0.4358  1.1191
14520SOL    HW249524   1.479   7.979  11.689  1.4004 -2.6305  2.9753
14521SOL     OW49525   2.257   0.029  11.935  0.3777 -0.1148  0.0528
14521SOL    HW149526   2.269  -0.048  11.990 -0.3347 -0.9642 -0.9503
14521SOL    HW249527   2.346   0.056  11.912  0.6489 -0.3048  0.8309
14522SOL     OW49528   6.271   7.525   7.984  0.7495 -0.1192  0.4884
14522SOL    HW149529   6.221   7.531   7.903  0.6293  1.1540  0.6303
14522SOL    HW249530   6.238   7.447   8.028 -2.0520  1.3336  1.1809
14523SOL     OW49531   3.089   3.208   0.656 -0.5074  0.3739 -0.2321
14523SOL    HW149532   3.110   3.155   0.733 -0.9225  1.8972  0.9984
14523SOL    HW249533   3.121   3.157   0.582  2.1905 -0.0890  1.1037
14524SOL     OW49534   0.065   9.376   3.335 -0.4176  0.4550  0.1417
14524SOL    HW149535   0.002   9.304   3.342  0.0066  0.0500 -0.1482
14524SOL    HW249536   0.149   9.334   3.316 -0.2970  1.0588 -0.7779
14525SOL     OW49537   2.668   4.862   8.946 -0.1291 -0.7887 -0.5582
14525SOL    HW149538   2.691   4.931   9.008  1.7414 -0.1038 -1.9632
14525SOL    HW249539   2.663   4.783   9.000 -0.8554  0.1568  0.8240
14526SOL     OW49540   0.793  10.345   2.023 -0.1779  0.4733 -0.5853
14526SOL    HW149541   0.803  10.285   1.948  1.6314  1.7302 -1.4425
14526SOL    HW249542   0.751  10.422   1.986  0.4670  0.9930 -0.2484
14527SOL     OW49543   4.032   6.991   1.461  0.2379  0.1070  0.2504
14527SOL    HW149544   3.966   7.060   1.455  2.3344  2.1345 -0.7393
14527SOL    HW249545   4.016   6.936   1.383  0.0575  0.8811 -0.2658
14528SOL     OW49546  11.704   7.669   7.914 -0.0582 -0.7913  0.0902
14528SOL    HW149547  11.743   7.718   7.987  0.6182 -2.5575  0.9895
14528SOL    HW249548  11.611   7.686   7.921  0.1411  0.1882  0.4990
14529SOL     OW49549   8.218   3.776   2.359 -0.1905 -0.7834  0.2759
14529SOL    HW149550   8.273   3.700   2.374  0.7231 -0.1630  0.1550
14529SOL    HW249551   8.278   3.843   2.326 -1.4276 -0.9579 -2.7132
14530SOL     OW49552   2.893   6.041   4.842  0.3004  0.0181  0.0452
14530SOL    HW149553   2.886   5.964   4.786 -2.2090  0.8289 -0.8810
14530SOL    HW249554   2.922   6.111   4.784 -0.2856  0.3994  0.2003
14531SOL     OW49555   0.887   9.434   2.268 -0.5967  0.1841 -0.1956
14531SOL    HW149556   0.950   9.500   2.238 -0.3513 -0.2097 -0.5705
14531SOL    HW249557   0.920   9.352   2.231 -1.0989 -0.0905 -0.0382
14532SOL     OW49558   6.614   9.251   0.862 -0.1477  0.1766  0.3203
14532SOL    HW149559   6.698   9.292   0.842 -0.3114  0.1286 -0.5158
14532SOL    HW249560   6.592   9.202   0.783 -0.8748  0.0410  0.5977
14533SOL     OW49561   6.611   0.421   5.020  0.3316  0.1564 -0.3081
14533SOL    HW149562   6.583   0.513   5.022 -0.4164 -0.0700  0.1199
14533SOL    HW249563   6.701   0.423   5.051  0.9738  0.9510 -2.0603
14534SOL     OW49564   8.211   1.830   2.821  0.0938  0.2371  0.1644
14534SOL    HW149565   8.131   1.880   2.810 -0.1327  0.3055  1.9325
14534SOL    HW249566   8.195   1.748   2.774  0.1707  1.4199 -2.0679
14535SOL     OW49567  10.841   1.420   5.221 -0.2130 -1.2808 -0.5352
14535SOL    HW149568  10.813   1.328   5.217  1.5731 -1.8308 -2.2471
14535SOL    HW249569  10.935   1.416   5.202  0.0171  0.8739 -0.0233
14536SOL     OW49570   7.816   6.135   8.684  0.0788  0.1314 -0.4627
14536SOL    HW149571   7.873   6.172   8.616  1.3843 -0.6488  0.1804
14536SOL    HW249572   7.847   6.175   8.765  0.4677 -1.1538  0.0358
14537SOL     OW49573   5.681   0.226   3.072 -0.6908  0.0276  0.9200
14537SOL    HW149574   5.687   0.256   3.163 -3.7280  1.6832  0.7022
14537SOL    HW249575   5.677   0.307   3.021  1.0094 -0.8750 -0.7700
14538SOL     OW49576   7.189   7.333   0.107 -0.6130  0.9724 -0.1090
14538SOL    HW149577   7.165   7.241   0.121 -2.7471  1.5791  0.5893
14538SOL    HW249578   7.255   7.330   0.038 -0.9674 -1.0521 -0.4364
14539SOL     OW49579   3.461   8.153   7.758 -0.2119  0.9731 -0.1784
14539SOL    HW149580   3.441   8.235   7.713 -1.3327 -0.7036 -3.0266
14539SOL    HW249581   3.557   8.145   7.752 -0.2419  1.3113 -1.3848
14540SOL     OW49582   8.748   1.266   2.088  0.2888 -0.1248 -0.4447
14540SOL    HW149583   8.733   1.293   2.179  0.3874  1.2957 -0.8266
14540SOL    HW249584   8.663   1.280   2.045  0.1514 -1.0986 -0.5195
14541SOL     OW49585   1.294   5.680   4.862  0.4467  0.1354 -0.2384
14541SOL    HW149586   1.369   5.738   4.873 -0.0779  0.6124  0.9055
14541SOL    HW249587   1.223   5.722   4.910  0.0007 -1.3552  0.4525
14542SOL     OW49588   6.576   4.999   4.538  0.6893 -0.1163 -0.2726
14542SOL    HW149589   6.481   4.987   4.531  0.4477  0.6272  1.1906
14542SOL    HW249590   6.587   5.092   4.558  1.6077 -0.4883  1.1044
14543SOL     OW49591   0.640  10.831   5.487 -0.2800  0.0759 -0.6893
14543SOL    HW149592   0.707  10.887   5.528 -0.9228 -0.1388  0.6717
14543SOL    HW249593   0.685  10.794   5.410  1.5180 -0.8621  0.7316
14544SOL     OW49594   3.274  10.078   3.686 -0.3631 -0.4285 -0.7706
14544SOL    HW149595   3.258  10.096   3.593 -2.0248  1.2412 -0.2355
14544SOL    HW249596   3.332  10.148   3.714  1.0574 -1.5649 -0.7427
14545SOL     OW49597  12.259   3.795   4.474  0.7844 -0.3408  0.1222
14545SOL    HW149598  12.246   3.770   4.566  0.2322 -1.0801 -0.1406
14545SOL    HW249599  12.297   3.717   4.433  2.1285  0.3686 -0.0479
14546SOL     OW49600   6.910  10.652  10.790 -0.0016  0.3724 -0.0703
14546SOL    HW149601   6.882  10.677  10.879  1.2951 -1.2865  0.8547
14546SOL    HW249602   7.003  10.674  10.788  0.6518 -2.1518  0.0036
14547SOL     OW49603   2.079   9.546   8.853  0.3745  0.2789  0.4161
14547SOL    HW149604   2.098   9.636   8.879 -0.7577  0.8086 -0.5073
14547SOL    HW249605   2.077   9.548   8.758 -0.3165 -0.5685  0.3926
14548SOL     OW49606   8.471   3.548  10.515  0.1968 -0.5079  0.6610
14548SOL    HW149607   8.483   3.643  10.515  0.0209 -0.4854  0.7123
14548SOL    HW249608   8.469   3.525  10.422  0.3146 -0.4718  0.6490
14549SOL     OW49609   1.833   0.815   2.039 -0.1275  0.0546  0.7424
14549SOL    HW149610   1.897   0.744   2.046 -0.4238 -0.2384  0.4968
14549SOL    HW249611   1.880   0.892   2.072 -0.0498 -0.4032  1.7468
14550SOL     OW49612   5.175   8.695  10.790 -0.8845 -0.0988 -1.0763
14550SOL    HW149613   5.263   8.661  10.808 -1.6725 -2.0906 -0.7242
14550SOL    HW249614   5.189   8.787  10.769  1.1021  0.0761  0.6909
14551SOL     OW49615   7.771   6.677   3.450  0.7580  0.0435  0.2108
14551SOL    HW149616   7.848   6.727   3.474  0.5649 -0.1783  1.3588
14551SOL    HW249617   7.698   6.736   3.467  0.6085 -0.1580  0.2757
14552SOL     OW49618   8.053   1.692   2.431  0.3520 -0.0201 -0.2530
14552SOL    HW149619   8.014   1.678   2.345  1.8780 -0.6537 -0.8836
14552SOL    HW249620   8.018   1.776   2.461 -2.6529 -1.2289 -0.0595
14553SOL     OW49621   2.269  10.649   6.243  0.0057  0.4371  0.0681
14553SOL    HW149622   2.182  10.685   6.226  0.2570  1.1455  0.2205
14553SOL    HW249623   2.310  10.714   6.300 -0.6078 -1.5171  2.9471
14554SOL     OW49624   5.576   6.114   2.432  0.4310  0.4467  0.0708
14554SOL    HW149625   5.571   6.101   2.527 -0.0562 -1.2669 -0.1604
14554SOL    HW249626   5.502   6.064   2.397  1.5985 -0.3632 -1.3356
14555SOL     OW49627   5.205   9.197   0.903 -0.5640  0.1993 -0.0375
14555SOL    HW149628   5.268   9.207   0.973 -0.7034  1.4491 -0.0768
14555SOL    HW249629   5.258   9.174   0.826 -0.2216  0.6851  0.0531
14556SOL     OW49630   5.032   8.851   3.334  0.1191 -0.4410  0.3476
14556SOL    HW149631   4.939   8.859   3.315 -0.1114 -0.4586  1.4347
14556SOL    HW249632   5.054   8.760   3.310  0.4876  0.2784 -2.4301
14557SOL     OW49633   3.445   6.191   3.299 -0.1589 -0.8459 -0.1721
14557SOL    HW149634   3.510   6.183   3.369 -0.7467  0.9840  0.6291
14557SOL    HW249635   3.363   6.208   3.344 -0.4274  1.0748 -1.3028
14558SOL     OW49636   0.837   1.474   4.664 -0.3474 -0.1237 -0.2458
14558SOL    HW149637   0.853   1.422   4.742 -0.1425 -0.4207 -0.4845
14558SOL    HW249638   0.781   1.419   4.609 -0.0575 -0.1297 -0.5377
14559SOL     OW49639  11.831   5.815   6.651  0.2130 -0.3630 -0.3214
14559SOL    HW149640  11.842   5.857   6.565 -1.6254  0.3989 -0.2344
14559SOL    HW249641  11.831   5.721   6.632  2.7264 -0.3499 -0.7407
14560SOL     OW49642   5.094   8.660   4.642 -0.4410  0.1710  0.0691
14560SOL    HW149643   5.189   8.658   4.636 -0.4861 -0.7543 -0.4937
14560SOL    HW249644   5.075   8.644   4.734 -0.0737 -1.1218 -0.0654
14561SOL     OW49645  10.083   3.185   4.784 -0.1637 -0.0537  0.0603
14561SOL    HW149646  10.037   3.174   4.701 -0.5978 -1.1846  0.4216
14561SOL    HW249647  10.022   3.234   4.839  1.0820  2.8745 -1.0115
14562SOL     OW49648  11.839   9.256   2.810 -0.0879  0.4419 -0.1590
14562SOL    HW149649  11.768   9.224   2.754 -0.1021  2.5109 -1.3981
14562SOL    HW249650  11.806   9.338   2.848  0.5252 -0.1005  1.6968
14563SOL     OW49651  10.138   4.018   7.388 -0.5875  0.1865 -0.3300
14563SOL    HW149652  10.153   3.962   7.312  3.6099  0.4536  0.0636
14563SOL    HW249653  10.126   4.106   7.351  0.1236  0.1089 -0.7577
14564SOL     OW49654   6.579   8.396   0.791 -0.1115  0.4846  0.3302
14564SOL    HW149655   6.651   8.459   0.794  0.4449  0.0617 -2.0812
14564SOL    HW249656   6.620   8.312   0.815 -0.2373  0.5487  0.7847
14565SOL     OW49657   2.365   6.490  10.454  0.2379  0.1537 -0.4724
14565SOL    HW149658   2.291   6.505  10.512  0.4056 -1.5568  0.2463
14565SOL    HW249659   2.326   6.484  10.367 -0.4371 -0.3187 -0.1509
14566SOL     OW49660   2.477   0.877   5.264  0.5192  0.0801 -0.5997
14566SOL    HW149661   2.561   0.832   5.275  0.6688  0.6561  0.8095
14566SOL    HW249662   2.438   0.877   5.351 -0.0494  1.5472 -0.8159
14567SOL     OW49663   9.698   3.110  12.402 -0.2978  0.2024  0.0045
14567SOL    HW149664   9.766   3.090  12.337 -0.0645 -0.1112  0.3404
14567SOL    HW249665   9.655   3.188  12.369  0.7371  0.8546  0.1708
14568SOL     OW49666  10.226   7.190   2.855  0.1907  0.4252 -0.4292
14568SOL    HW149667  10.279   7.143   2.920 -0.6776  0.8658  0.6430
14568SOL    HW249668  10.225   7.132   2.779 -0.0504 -0.8804  0.5150
14569SOL     OW49669   0.234  12.072   3.395 -0.1006 -0.1372 -0.6856
14569SOL    HW149670   0.323  12.095   3.422 -0.3393 -0.6553  0.6098
14569SOL    HW249671   0.246  12.003   3.330  0.4557  0.2819 -1.0416
14570SOL     OW49672  10.251   3.764   6.148 -0.3115 -0.0652 -0.0959
14570SOL    HW149673  10.232   3.835   6.209 -0.8089  0.0496 -0.3800
14570SOL    HW249674  10.305   3.805   6.079 -1.7122  0.3799 -0.9775
14571SOL     OW49675   6.928   8.288  10.242 -0.5587 -0.3325 -0.3698
14571SOL    HW149676   7.001   8.269  10.184  1.6617  0.1338  2.0974
14571SOL    HW249677   6.874   8.209  10.240  1.3166 -1.6562 -0.4550
14572SOL     OW49678   9.448   2.578   7.682  0.7542  0.1333 -0.0331
14572SOL    HW149679   9.416   2.569   7.771 -2.0239  0.3291 -0.9171
14572SOL    HW249680   9.468   2.671   7.672 -3.4742  1.1623 -0.8534
14573SOL     OW49681   8.281  10.515   1.476 -0.2967 -0.3271 -0.4584
14573SOL    HW149682   8.334  10.448   1.518  1.1189  0.3531 -1.0878
14573SOL    HW249683   8.344  10.568   1.427 -1.4932  0.8793 -0.7532
14574SOL     OW49684  10.551  11.664   9.213 -0.1197  0.3250 -0.6018
14574SOL    HW149685  10.576  11.745   9.255  0.4450  0.3797 -1.0337
14574SOL    HW249686  10.624  11.643   9.154  0.1897 -0.9932  0.2028
14575SOL     OW49687   8.323  10.930   9.074 -0.1451 -0.4318 -0.5565
14575SOL    HW149688   8.366  10.907   8.992 -0.2707  0.6991 -0.9455
14575SOL    HW249689   8.312  11.025   9.071  0.2279 -0.3138  0.9565
14576SOL     OW49690   2.223   3.073   8.526  0.1342 -0.0311  0.0745
14576SOL    HW149691   2.298   3.019   8.501 -1.0702 -0.9452 -1.7947
14576SOL    HW249692   2.146   3.019   8.505 -1.1100  1.9946 -0.9007
14577SOL     OW49693   8.209   1.758   0.898  0.5726 -0.4221  0.2842
14577SOL    HW149694   8.165   1.821   0.955  0.9864  0.8959 -0.8084
14577SOL    HW249695   8.287   1.803   0.867 -0.6944 -0.2108 -3.0144
14578SOL     OW49696   8.297   9.195   7.890  0.1445 -0.4985  0.0201
14578SOL    HW149697   8.289   9.274   7.837  1.0357  0.9297  1.8820
14578SOL    HW249698   8.387   9.164   7.875 -0.2141 -1.2049 -0.7344
14579SOL     OW49699   3.817   1.241   2.255  0.3532  0.0011  0.1961
14579SOL    HW149700   3.838   1.246   2.348  1.2456  0.7253 -0.0228
14579SOL    HW249701   3.871   1.310   2.215 -1.2673  0.8588 -0.6358
14580SOL     OW49702   6.031   7.679  11.862  0.0550  0.2321 -0.1276
14580SOL    HW149703   5.945   7.719  11.873 -0.0721 -0.5278  2.2952
14580SOL    HW249704   6.071   7.727  11.791 -0.1684  4.6137  2.3755
14581SOL     OW49705   7.064   5.249   6.195 -0.2785 -0.1423 -0.3578
14581SOL    HW149706   7.066   5.206   6.109  2.1916 -1.7663  0.4146
14581SOL    HW249707   7.145   5.300   6.198  1.1891 -2.3716  1.9989
14582SOL     OW49708   4.313   2.108   0.229  0.2296  0.4165 -0.4104
14582SOL    HW149709   4.285   2.120   0.320 -0.5216 -0.2317 -0.5485
14582SOL    HW249710   4.265   2.174   0.180 -0.8007 -0.4306 -0.5878
14583SOL     OW49711  11.634   7.876   9.558  0.2397  0.3319  0.2618
14583SOL    HW149712  11.661   7.850   9.470 -2.4826 -0.5292 -0.4180
14583SOL    HW249713  11.711   7.862   9.612  1.2016 -1.8100 -1.5058
14584SOL     OW49714  10.215   6.492   2.412  0.4475 -0.4681  0.1130
14584SOL    HW149715  10.247   6.432   2.479 -3.4668 -2.4914  0.4736
14584SOL    HW249716  10.189   6.571   2.461  1.4762 -0.2325  0.3000
14585SOL     OW49717   7.155   9.674   6.371 -0.0375  0.6108 -0.2453
14585SOL    HW149718   7.104   9.754   6.387 -3.6974 -1.0058 -2.4972
14585SOL    HW249719   7.190   9.650   6.457 -0.0479  3.7888  0.7584
14586SOL     OW49720  11.737   9.715   3.181  0.0610 -0.2405  0.3861
14586SOL    HW149721  11.789   9.635   3.172 -1.5500 -1.1993 -1.1275
14586SOL    HW249722  11.762   9.751   3.266  0.9131 -2.3128  1.0841
14587SOL     OW49723   4.279   9.407   1.343  0.0354 -0.2889  0.4094
14587SOL    HW149724   4.211   9.361   1.293 -0.8100  1.9271 -0.6131
14587SOL    HW249725   4.352   9.417   1.282  0.3671 -0.5976  0.7509
14588SOL     OW49726   8.032   0.196   1.799  0.1283 -0.6360 -0.6881
14588SOL    HW149727   8.077   0.128   1.849 -0.7980 -0.0855  0.9595
14588SOL    HW249728   7.943   0.162   1.786  0.0418 -0.2933 -1.0188
14589SOL     OW49729  11.865   7.102   8.618 -0.4068 -0.7373 -0.1422
14589SOL    HW149730  11.841   7.146   8.536  0.4522  1.7163  0.8232
14589SOL    HW249731  11.958   7.081   8.608 -0.9363 -3.0392 -0.8240
14590SOL     OW49732   4.518   5.737   8.917  0.5825 -0.1390 -0.0467
14590SOL    HW149733   4.499   5.741   8.823  1.1176  0.4466 -0.1405
14590SOL    HW249734   4.584   5.669   8.925 -0.8873 -1.6047  0.1779
14591SOL     OW49735  10.067   9.312   3.615 -0.3760  0.4527 -0.2291
14591SOL    HW149736  10.030   9.356   3.692 -1.1047  0.0822 -0.3618
14591SOL    HW249737   9.991   9.294   3.559  0.0445 -0.0551 -0.6412
14592SOL     OW49738   5.835  12.381   2.494  0.2294 -0.6059  0.3370
14592SOL    HW149739   5.881  12.371   2.411 -0.3122 -1.5020  0.1346
14592SOL    HW249740   5.749  12.417   2.470  0.7951  1.0815  0.7114
14593SOL     OW49741   2.886   0.311   1.314 -0.3734 -0.0078  0.2882
14593SOL    HW149742   2.833   0.242   1.274 -1.0798  0.4249  0.4668
14593SOL    HW249743   2.854   0.317   1.404  0.3478 -0.1028  0.5572
14594SOL     OW49744   8.755   8.391   4.205 -0.6383 -0.3255  0.1933
14594SOL    HW149745   8.812   8.359   4.136 -2.4751 -0.8045 -1.1511
14594SOL    HW249746   8.769   8.486   4.206  3.0727 -0.6716  2.6239
14595SOL     OW49747   9.352   4.997  11.374 -0.7387  0.0408 -0.3613
14595SOL    HW149748   9.257   4.982  11.383 -0.9396  0.3525 -1.7812
14595SOL    HW249749   9.390   4.909  11.376 -0.8528 -0.0231  1.8809
14596SOL     OW49750   6.088  10.182   5.319 -0.1035  0.1721  0.3514
14596SOL    HW149751   6.098  10.097   5.276  1.0345  0.0554  0.8078
14596SOL    HW249752   6.170  10.193   5.368 -0.8839  0.8276  1.5415
14597SOL     OW49753   1.381   2.507   1.449 -0.1616 -0.4981 -0.1451
14597SOL    HW149754   1.289   2.494   1.469 -0.6101 -0.3539 -1.9483
14597SOL    HW249755   1.385   2.592   1.405  1.0751  0.2153  1.2469
14598SOL     OW49756   6.136   5.265   8.413 -0.2638 -0.0535 -0.3937
14598SOL    HW149757   6.161   5.262   8.505 -0.9387 -0.2899 -0.2135
14598SOL    HW249758   6.133   5.358   8.391  1.5144 -0.0182 -0.6377
14599SOL     OW49759   7.314  10.600   0.614  0.0703 -0.3202  0.2804
14599SOL    HW149760   7.271  10.611   0.529  1.0777 -0.4196 -0.2628
14599SOL    HW249761   7.338  10.689   0.641  0.7745 -0.3819 -0.1067
14600SOL     OW49762   5.240   4.047   3.578  0.6388  0.2335  0.3339
14600SOL    HW149763   5.275   3.960   3.556  1.4268  0.1998  1.6230
14600SOL    HW249764   5.254   4.055   3.673  1.1109  2.0022  0.1452
14601SOL     OW49765  11.406   0.049   3.240 -0.0646  0.3379 -0.1487
14601SOL    HW149766  11.431  -0.015   3.307 -0.5408 -1.3886 -1.5415
14601SOL    HW249767  11.485   0.059   3.186 -0.1157  0.6184 -0.1734
14602SOL     OW49768   6.786  11.844   9.957  0.8395  0.0747  0.7594
14602SOL    HW149769   6.841  11.803   9.889 -0.7542 -2.1299  0.6954
14602SOL    HW249770   6.836  11.834  10.037  0.2474 -2.8352  0.8823
14603SOL     OW49771  10.015   9.086   2.937  0.0918 -0.4450  0.1341
14603SOL    HW149772  10.020   9.158   3.000 -0.1762 -0.9548  0.7441
14603SOL    HW249773  10.105   9.075   2.907  0.0977  0.3182 -0.1804
14604SOL     OW49774   4.996   3.844   0.529  0.0289 -0.2326  0.1254
14604SOL    HW149775   5.074   3.835   0.584 -0.4583 -0.4605  0.7909
14604SOL    HW249776   4.994   3.764   0.477  0.2949 -0.1796  0.0311
14605SOL     OW49777  11.380   2.002   0.093 -0.0016  0.0145  0.0705
14605SOL    HW149778  11.326   1.978   0.018  0.9662 -0.8918 -0.3602
14605SOL    HW249779  11.323   2.057   0.147 -0.9221  0.1461 -0.9972
14606SOL     OW49780   3.330   3.291   8.121  0.2992  0.4877 -0.2306
14606SOL    HW149781   3.389   3.227   8.081  1.6148  2.0843 -0.9307
14606SOL    HW249782   3.258   3.300   8.059  0.5133  0.2900 -0.5099
14607SOL     OW49783   6.761   7.742  12.121 -0.0822 -0.0347 -0.0472
14607SOL    HW149784   6.705   7.820  12.125 -0.4542 -0.3437  1.4908
14607SOL    HW249785   6.848   7.776  12.103  0.0940  0.9629  2.3343
14608SOL     OW49786  11.592   8.985  11.424 -0.5236 -0.0675  0.0311
14608SOL    HW149787  11.554   8.898  11.437 -1.1907  0.4147  1.6511
14608SOL    HW249788  11.664   8.971  11.364 -0.8339 -1.6877 -0.0179
14609SOL     OW49789   1.018   8.423   7.947 -0.9079 -0.6332 -0.3432
14609SOL    HW149790   1.097   8.459   7.988 -1.3568 -0.4391  0.3763
14609SOL    HW249791   0.956   8.412   8.019 -1.0480 -2.1613 -0.6638
14610SOL     OW49792   6.332  11.398   4.063  0.0993  0.0592 -0.0478
14610SOL    HW149793   6.328  11.480   4.013 -1.3322  0.2839  0.3927
14610SOL    HW249794   6.407  11.410   4.122  1.3892  0.0607 -1.6195
14611SOL     OW49795   3.032   2.484   9.294 -0.1305 -0.2087 -0.4827
14611SOL    HW149796   3.020   2.544   9.367 -0.5470 -1.0116  0.1293
14611SOL    HW249797   3.020   2.397   9.333 -0.1787 -0.6558 -1.4725
14612SOL     OW49798   6.657  12.129   8.166  0.3733  0.3881  0.3114
14612SOL    HW149799   6.708  12.175   8.100 -1.0523 -0.2184 -1.2824
14612SOL    HW249800   6.649  12.040   8.132 -0.8999  0.2217  0.9918
14613SOL     OW49801   6.576  10.159   0.204 -0.8216 -0.4010  0.0840
14613SOL    HW149802   6.503  10.218   0.184 -1.0380 -0.3854  0.8971
14613SOL    HW249803   6.542  10.071   0.183 -1.1065 -0.4016  0.5411
14614SOL     OW49804   0.952   3.122   5.803 -0.2256  0.3132 -0.4005
14614SOL    HW149805   0.908   3.118   5.718  0.4097  0.3137 -0.7306
14614SOL    HW249806   0.993   3.208   5.804 -0.3537  0.3688 -0.0314
14615SOL     OW49807   4.252   8.805   5.904  0.1689  0.1566 -0.1802
14615SOL    HW149808   4.196   8.772   5.833  0.2267 -1.9355  0.6707
14615SOL    HW249809   4.196   8.867   5.952 -0.5663 -0.0040 -0.8105
14616SOL     OW49810   8.076   9.159   8.061 -0.2129  0.3239 -0.5445
14616SOL    HW149811   8.147   9.180   8.000 -0.0744  0.8903 -0.1960
14616SOL    HW249812   8.118   9.111   8.132 -0.4192 -0.5655 -1.0130
14617SOL     OW49813   0.641   8.033   3.322  0.5269 -0.5266 -0.2515
14617SOL    HW149814   0.546   8.021   3.328  0.6613 -1.1952  0.8529
14617SOL    HW249815   0.664   8.001   3.235 -0.6229  2.4244 -1.7732
14618SOL     OW49816   9.771   7.193   9.601  0.2765 -0.2682 -0.0999
14618SOL    HW149817   9.805   7.133   9.534 -0.1176 -1.1651  0.4798
14618SOL    HW249818   9.701   7.144   9.644 -0.1093  0.6490  0.3468
14619SOL     OW49819  11.575   4.051   1.095 -0.2986  0.2744  0.8242
14619SOL    HW149820  11.540   4.131   1.057 -0.7350  0.3269  1.3308
14619SOL    HW249821  11.504   3.987   1.087  0.5466 -0.5002 -0.9224
14620SOL     OW49822  11.251   1.581  11.187 -0.0449 -0.2137  0.0931
14620SOL    HW149823  11.342   1.599  11.162  0.3397  1.4547  2.3876
14620SOL    HW249824  11.256   1.499  11.236 -0.1136 -1.0999 -1.3196
14621SOL     OW49825   2.618   7.068   5.869 -0.3706  0.3518  0.3775
14621SOL    HW149826   2.693   7.082   5.811 -0.5735  0.3926  0.1194
14621SOL    HW249827   2.563   7.005   5.822 -0.3262  0.0525  0.7251
14622SOL     OW49828   4.250   1.966   2.214 -0.0072  0.2031 -0.2156
14622SOL    HW149829   4.269   1.980   2.121  1.1919 -2.1917 -0.4046
14622SOL    HW249830   4.337   1.962   2.255 -0.5243  1.2742  1.0376
14623SOL     OW49831   9.537   9.324   2.776 -0.0909 -0.3112  0.5526
14623SOL    HW149832   9.476   9.286   2.713  0.0480  0.6238 -0.1590
14623SOL    HW249833   9.621   9.281   2.758  0.4098  1.2559 -1.1970
14624SOL     OW49834   5.177   0.845   0.484  0.5732 -0.1886 -0.3253
14624SOL    HW149835   5.192   0.762   0.438  3.5679 -2.0899  3.5035
14624SOL    HW249836   5.101   0.829   0.539  0.3496  0.1070 -0.5441
14625SOL     OW49837   5.117  11.602   6.778 -0.1889 -0.2342  0.7306
14625SOL    HW149838   5.063  11.676   6.750 -1.3119 -0.7437  1.4881
14625SOL    HW249839   5.200  11.642   6.805 -0.0982  0.5444 -0.6003
14626SOL     OW49840   5.356   9.049   8.857 -0.2306 -0.4737  0.2681
14626SOL    HW149841   5.448   9.023   8.861 -0.4358 -1.0325  2.6054
14626SOL    HW249842   5.325   9.041   8.947 -2.1638  1.2138 -0.1783
14627SOL     OW49843  12.462   6.248   1.658 -0.0379  0.0123  0.2536
14627SOL    HW149844  12.488   6.292   1.739 -0.8651  0.9665  0.0224
14627SOL    HW249845  12.366   6.249   1.659 -0.0933  0.9814 -1.1950
14628SOL     OW49846   1.333   2.202   5.988 -0.4795  0.4323  0.1616
14628SOL    HW149847   1.299   2.272   6.044  0.1335  0.9372 -0.0773
14628SOL    HW249848   1.315   2.232   5.899  1.1334  1.0390 -0.0062
14629SOL     OW49849   5.761   4.058   6.766 -0.0866 -0.0574 -0.1488
14629SOL    HW149850   5.778   4.089   6.855  0.3036 -0.2997 -0.1339
14629SOL    HW249851   5.806   4.121   6.710 -0.2318  0.0279 -0.1702
14630SOL     OW49852   2.792   4.395   5.642 -0.3393  0.3166 -0.0373
14630SOL    HW149853   2.877   4.409   5.683  1.0989 -1.5004 -2.2034
14630SOL    HW249854   2.746   4.337   5.703 -0.5197  2.1628  1.6707
14631SOL     OW49855   6.011   3.815   8.938  0.3836  0.1452 -0.4885
14631SOL    HW149856   6.016   3.910   8.949 -0.0755  0.3303 -1.6917
14631SOL    HW249857   5.917   3.797   8.935  0.4676 -0.2394 -0.9960
14632SOL     OW49858  10.582   1.321   6.940 -0.3451  0.0090  0.2949
14632SOL    HW149859  10.647   1.378   6.981 -0.6717  1.6025 -1.2668
14632SOL    HW249860  10.536   1.281   7.013  0.6029  0.9409  1.4480
14633SOL     OW49861   9.609  10.048   4.715 -0.6832 -0.2543  0.2845
14633SOL    HW149862   9.675   9.997   4.668  0.7231  0.2287  1.6467
14633SOL    HW249863   9.615  10.136   4.677  1.6532  0.5977  2.3385
14634SOL     OW49864   3.363   8.198   5.290  0.0985  0.5260 -0.1183
14634SOL    HW149865   3.428   8.201   5.220 -0.7932  0.1646 -0.9802
14634SOL    HW249866   3.373   8.111   5.329 -0.1271  0.3317 -0.4965
14635SOL     OW49867   2.288   1.103   7.567 -0.4683 -0.2994 -0.2177
14635SOL    HW149868   2.257   1.116   7.477 -1.3981  2.7258  0.4212
14635SOL    HW249869   2.211   1.123   7.622  0.7658  0.5435  1.2785
14636SOL     OW49870  11.701   3.757   0.729  0.2996  0.0618 -0.3347
14636SOL    HW149871  11.737   3.824   0.788 -0.5306 -1.3238  1.8874
14636SOL    HW249872  11.736   3.674   0.763  0.0473 -0.7699 -2.0295
14637SOL     OW49873   2.563   6.597  12.338 -0.5960 -1.1898 -0.1649
14637SOL    HW149874   2.479   6.643  12.331 -0.1917 -0.4516 -0.2703
14637SOL    HW249875   2.546   6.511  12.301 -1.3745 -1.1383  0.0480
14638SOL     OW49876  11.096   1.616   4.320  0.3661 -0.0098 -0.0515
14638SOL    HW149877  11.006   1.600   4.348  0.2625 -3.5516 -1.8637
14638SOL    HW249878  11.100   1.710   4.304 -3.2264  0.1943 -0.5252
14639SOL     OW49879   6.082   2.881   4.280 -0.3959  0.4078 -0.2273
14639SOL    HW149880   5.995   2.874   4.320 -1.4567  0.9869 -2.2956
14639SOL    HW249881   6.126   2.949   4.332 -0.6963 -0.6903  1.5724
14640SOL     OW49882   8.150   3.843   4.831  0.6106  0.9652 -0.6427
14640SOL    HW149883   8.091   3.858   4.904 -0.0524 -2.3442 -0.3454
14640SOL    HW249884   8.235   3.874   4.862  0.2569  0.0148  1.4568
14641SOL     OW49885   3.518   3.085   0.492  0.1619  0.2338 -0.0243
14641SOL    HW149886   3.580   3.023   0.531  0.1088  1.9224  3.0899
14641SOL    HW249887   3.543   3.170   0.528 -1.1461  1.7380 -2.3648
14642SOL     OW49888  11.583   0.900   4.380  0.5916 -0.3312  0.0600
14642SOL    HW149889  11.517   0.915   4.447  1.7609  1.2782  0.9166
14642SOL    HW249890  11.585   0.981   4.329  1.2035 -0.7331 -0.5904
14643SOL     OW49891   0.921  11.676   9.139 -0.2935  0.9628 -0.4928
14643SOL    HW149892   0.950  11.598   9.091  0.2348  0.6659  0.2627
14643SOL    HW249893   0.843  11.706   9.094 -0.2020  0.2908 -1.1083
14644SOL     OW49894  10.145   1.826   6.427  0.0750 -0.1586 -0.5026
14644SOL    HW149895  10.196   1.904   6.451 -1.1254  0.6251 -0.4040
14644SOL    HW249896  10.148   1.770   6.504 -0.0306  0.3265 -0.1457
14645SOL     OW49897   6.856   8.621   3.702  0.1913 -0.0974 -0.6711
14645SOL    HW149898   6.769   8.582   3.705 -0.3026  0.8851 -1.4251
14645SOL    HW249899   6.874   8.633   3.609  0.2244  1.6428 -0.4687
14646SOL     OW49900   8.487   6.044   7.643 -0.0551 -0.6261 -0.3239
14646SOL    HW149901   8.413   6.085   7.688 -0.1082 -1.7203  0.6397
14646SOL    HW249902   8.561   6.103   7.658 -0.4626 -0.1139 -0.2961
14647SOL     OW49903   0.272   7.939   1.622  0.0168 -0.1498 -0.9175
14647SOL    HW149904   0.359   7.906   1.601  0.7615  0.7799  0.5256
14647SOL    HW249905   0.287   8.004   1.691 -2.1000 -2.4644  1.9701
14648SOL     OW49906   3.070   9.969   4.729 -0.0154  0.3371  0.1362
14648SOL    HW149907   3.131   9.994   4.661 -1.7039  0.1348 -1.5270
14648SOL    HW249908   3.089   9.876   4.744 -0.1606  0.1729 -0.6499
14649SOL     OW49909   8.912   0.655  12.165  0.0877 -0.2309 -0.3658
14649SOL    HW149910   8.831   0.607  12.180  0.7615 -1.5031 -0.6633
14649SOL    HW249911   8.886   0.732  12.115 -1.2870  0.7360  1.7445
14650SOL     OW49912   4.404   8.378   4.103 -0.3104  0.4657  0.9582
14650SOL    HW149913   4.418   8.305   4.163 -0.4076  0.6656  1.2285
14650SOL    HW249914   4.469   8.444   4.129  0.8514 -0.1400 -0.3116
14651SOL     OW49915  12.134  10.224   8.660  0.3459  0.4343 -0.2048
14651SOL    HW149916  12.184  10.250   8.738 -1.7120  1.3547  0.8851
14651SOL    HW249917  12.189  10.250   8.586  1.2674  1.8650  0.9338
14652SOL     OW49918   6.454   6.867   3.551  0.0622 -0.3681 -0.0147
14652SOL    HW149919   6.439   6.815   3.472  1.5688  0.7821 -1.1084
14652SOL    HW249920   6.367   6.900   3.574 -0.7173 -2.3187 -0.0176
14653SOL     OW49921   6.705   2.279   8.714  0.0873  0.3013 -0.3400
14653SOL    HW149922   6.670   2.190   8.716  1.7345 -0.4979 -2.8033
14653SOL    HW249923   6.630   2.335   8.736 -1.7677 -1.5174 -1.6791
14654SOL     OW49924   4.428   1.155   1.463  0.0835  0.1702 -0.0775
14654SOL    HW149925   4.480   1.223   1.507 -0.2416 -0.2707  1.0420
14654SOL    HW249926   4.441   1.171   1.370  1.8306  0.3815  0.1716
14655SOL     OW49927   5.016   8.436  11.916  0.1754  0.0166 -0.2421
14655SOL    HW149928   5.008   8.492  11.994 -0.5207 -0.3364 -0.0554
14655SOL    HW249929   5.002   8.496  11.843  1.9082  0.5677 -0.1611
14656SOL     OW49930   6.803   8.877   6.981  0.1952  0.0614 -0.1254
14656SOL    HW149931   6.765   8.828   6.907  1.8432 -0.5500 -0.6234
14656SOL    HW249932   6.897   8.882   6.960  1.0204 -1.5801  2.6950
14657SOL     OW49933   2.319  12.180   7.055 -0.5070 -0.1423 -0.0999
14657SOL    HW149934   2.285  12.174   6.966 -2.8560  0.0749  0.7037
14657SOL    HW249935   2.316  12.091   7.088  0.6513 -0.2722 -0.3079
14658SOL     OW49936  12.246   6.900   5.312  0.5817 -0.4556  0.1656
14658SOL    HW149937  12.337   6.922   5.332  0.9748  0.4452 -2.2813
14658SOL    HW249938  12.215   6.853   5.389  2.3269  1.3959  2.1375
14659SOL     OW49939  11.670   4.268   6.791 -0.1827  0.1445 -0.8799
14659SOL    HW149940  11.646   4.316   6.871 -0.9626 -1.3429 -0.1688
14659SOL    HW249941  11.717   4.332   6.738  1.1542  0.9632  1.1445
14660SOL     OW49942  10.141   6.840  11.268 -0.6528  0.5877 -0.4230
14660SOL    HW149943  10.186   6.817  11.349 -0.2350 -0.3045 -0.8963
14660SOL    HW249944  10.185   6.919  11.237 -1.0529  1.1394  0.4013
14661SOL     OW49945   2.982   2.669   2.898  0.4035  0.3203 -0.4141
14661SOL    HW149946   3.064   2.640   2.860  1.2028 -1.2488  2.2419
14661SOL    HW249947   2.925   2.592   2.894  0.1415  0.4508  0.4867
14662SOL     OW49948   2.305   9.219   4.644 -0.2786  0.8399  0.0057
14662SOL    HW149949   2.399   9.224   4.662 -0.1266  0.9160 -0.7713
14662SOL    HW249950   2.264   9.245   4.727  0.3721  0.4862  0.4549
14663SOL     OW49951   1.026   0.787   3.701  0.3918 -0.0685 -0.2117
14663SOL    HW149952   0.931   0.792   3.705  0.1867 -0.8682 -2.5330
14663SOL    HW249953   1.046   0.696   3.721  0.3632 -0.6507 -2.4942
14664SOL     OW49954   1.827   2.108   5.996 -0.5428  0.2229  0.1608
14664SOL    HW149955   1.844   2.034   5.937 -2.2861 -0.3875  0.3485
14664SOL    HW249956   1.732   2.121   5.990 -0.4277  1.6712  1.0637
14665SOL     OW49957   8.108  11.783   4.619 -0.0654  0.0603 -0.1785
14665SOL    HW149958   8.161  11.862   4.623 -0.4690  0.4859 -2.1104
14665SOL    HW249959   8.035  11.800   4.680  0.3201  0.7892  0.0908
14666SOL     OW49960   8.703   2.039   5.220 -0.1768  0.1748  0.7987
14666SOL    HW149961   8.705   2.121   5.171  1.5856 -0.6822 -0.6976
14666SOL    HW249962   8.720   2.064   5.311 -0.3444  1.5055  0.4873
14667SOL     OW49963   0.702   1.710   4.535  0.5437 -0.1939  0.5471
14667SOL    HW149964   0.613   1.726   4.568  0.8878  0.4744  1.1481
14667SOL    HW249965   0.701   1.617   4.511 -0.5053 -0.0593 -0.0377
14668SOL     OW49966   5.169   1.148   9.255 -0.1702  0.1652 -0.0926
14668SOL    HW149967   5.139   1.060   9.236 -0.4144  0.4436 -1.0561
14668SOL    HW249968   5.209   1.142   9.342 -0.8481 -0.7224  0.1677
14669SOL     OW49969   0.474  10.738   3.342  0.0038 -0.1639 -0.1624
14669SOL    HW149970   0.474  10.684   3.421  1.5401 -0.0903 -0.0777
14669SOL    HW249971   0.482  10.828   3.374  0.4151 -0.1182 -0.3786
14670SOL     OW49972   3.791   3.169  10.946  0.5449 -0.3977  0.2936
14670SOL    HW149973   3.707   3.172  10.899  1.2428 -2.1313 -1.1683
14670SOL    HW249974   3.795   3.253  10.992 -1.5033  0.1695 -0.4288
14671SOL     OW49975   3.307   5.220   7.667 -0.5594  0.1270  0.3140
14671SOL    HW149976   3.378   5.238   7.605  0.3479 -0.6264  1.1167
14671SOL    HW249977   3.250   5.159   7.620 -0.5911  0.5888 -0.2641
14672SOL     OW49978   5.038   7.034   9.763 -0.1006  0.6541 -0.4279
14672SOL    HW149979   4.999   7.026   9.850 -1.1264 -0.2246 -0.9492
14672SOL    HW249980   5.071   6.947   9.742  2.7968  1.4935  0.2447
14673SOL     OW49981   6.677  12.299   0.998  0.7475 -0.1197 -0.5110
14673SOL    HW149982   6.716  12.386   0.989  0.8055 -0.1004 -0.0937
14673SOL    HW249983   6.750  12.238   0.989  1.0205 -0.0599  1.0132
14674SOL     OW49984   8.093   3.859   1.311  0.7476 -0.0361  0.4042
14674SOL    HW149985   8.071   3.806   1.234 -0.1137 -0.0680  0.6550
14674SOL    HW249986   8.098   3.949   1.278  0.3828 -0.0495  0.3036
14675SOL     OW49987   9.202   3.979   7.564 -0.0776  0.3346 -0.1771
14675SOL    HW149988   9.154   4.062   7.559 -0.0710  0.2619 -1.9176
14675SOL    HW249989   9.134   3.912   7.569 -0.0871  0.4007  0.8064
14676SOL     OW49990   9.844   8.541   8.235 -0.5939 -0.0768 -0.0151
14676SOL    HW149991   9.825   8.573   8.147  1.2246 -0.6890 -0.6820
14676SOL    HW249992   9.838   8.618   8.291 -0.5584  0.5637 -0.8810
14677SOL     OW49993   7.339   3.144   5.724  0.6837 -0.5566  0.2116
14677SOL    HW149994   7.350   3.223   5.671 -2.4678 -0.8767 -1.1480
14677SOL    HW249995   7.330   3.073   5.661 -0.8177 -1.3148  1.2033
14678SOL     OW49996  10.699  12.280   6.332 -0.5234  0.0340  0.0244
14678SOL    HW149997  10.695  12.206   6.393  0.0890 -1.3286 -1.4817
14678SOL    HW249998  10.663  12.354   6.380  1.3943 -0.5527  2.5838
14679SOL     OW49999   9.803  10.462   2.243  0.6742  0.6323  0.5170
14679SOL    HW150000   9.881  10.518   2.245  0.8809  0.3633  0.0061
14679SOL    HW250001   9.740  10.510   2.190  0.4534  0.8899  1.0006
14680SOL     OW50002   6.532   5.584  10.638  0.0843  0.0924 -0.6237
14680SOL    HW150003   6.498   5.665  10.676  2.1968  1.5363 -1.5850
14680SOL    HW250004   6.455   5.528  10.627 -1.1990  1.2679  1.6718
14681SOL     OW50005   8.772   1.939  10.722 -0.3599 -0.0202  0.6436
14681SOL    HW150006   8.693   1.909  10.677  0.2477 -1.5682  0.5476
14681SOL    HW250007   8.835   1.868  10.709  0.4325  0.3313  2.3456
14682SOL     OW50008   8.736   6.791   6.679 -0.2077 -0.0085 -0.4616
14682SOL    HW150009   8.648   6.806   6.713 -0.2563 -1.3785  0.0578
14682SOL    HW250010   8.722   6.747   6.595 -0.0276 -1.6909  0.3546
14683SOL     OW50011   1.687   5.066   2.003 -0.7389  0.9950 -0.0097
14683SOL    HW150012   1.716   5.008   2.075 -0.8784 -0.2493 -0.9269
14683SOL    HW250013   1.766   5.115   1.980 -0.5841  1.1022  0.6965
14684SOL     OW50014   9.569  11.506   6.532  0.3103 -0.0097 -0.3826
14684SOL    HW150015   9.654  11.534   6.565  0.1326 -1.5227  1.5071
14684SOL    HW250016   9.506  11.546   6.592 -0.0009 -3.1555  1.6110
14685SOL     OW50017  10.915   1.012   8.756 -0.4004  0.1432  0.2268
14685SOL    HW150018  10.987   1.022   8.694  1.7214  1.1004  2.6649
14685SOL    HW250019  10.949   1.048   8.838 -3.5927  0.3749  1.5869
14686SOL     OW50020   1.242   4.207   5.437 -0.3046 -0.2892  0.1388
14686SOL    HW150021   1.227   4.159   5.356  0.8081 -0.3198 -0.0595
14686SOL    HW250022   1.159   4.252   5.453 -0.3755  0.1598 -1.3164
14687SOL     OW50023   8.458   9.193   1.138  0.4326  0.0022 -0.9418
14687SOL    HW150024   8.512   9.129   1.183 -1.7378 -3.6686 -3.0628
14687SOL    HW250025   8.373   9.189   1.182  0.5322  2.4558 -0.3700
14688SOL     OW50026   8.330  11.745   1.120  0.2940 -0.2891  0.0528
14688SOL    HW150027   8.337  11.786   1.034 -2.3173  2.1209  0.8218
14688SOL    HW250028   8.273  11.669   1.106  0.5953 -0.4186 -0.4797
14689SOL     OW50029   0.836   7.400  11.544 -0.4439 -0.3741  0.8048
14689SOL    HW150030   0.804   7.377  11.631  0.6526  0.3233  1.4063
14689SOL    HW250031   0.899   7.332  11.522 -2.9267 -2.3207 -0.8096
14690SOL     OW50032  10.860  10.386   7.643  0.0851  0.4751 -0.1408
14690SOL    HW150033  10.910  10.337   7.709 -0.2359  0.3131 -0.0137
14690SOL    HW250034  10.925  10.439   7.599  0.0968  1.8190  1.3979
14691SOL     OW50035   2.653   2.216   9.729 -0.0221 -0.0978  1.1135
14691SOL    HW150036   2.729   2.241   9.677 -2.5003  3.0024 -1.4413
14691SOL    HW250037   2.655   2.120   9.729  2.4323 -0.1571 -1.0942
14692SOL     OW50038   6.963   5.986  11.460  0.0670  0.9363 -0.1142
14692SOL    HW150039   6.950   6.061  11.402  1.3079  1.0033 -0.3436
14692SOL    HW250040   6.991   5.915  11.401 -0.8003  0.3672  0.1394
14693SOL     OW50041   1.187   9.838   7.192  0.3589 -0.3079  0.0577
14693SOL    HW150042   1.125   9.768   7.213  0.5844 -0.6288 -0.3139
14693SOL    HW250043   1.173   9.904   7.259 -2.2666  0.8552 -1.4815
14694SOL     OW50044   5.531   0.600   6.495 -0.4223 -0.7559  0.0468
14694SOL    HW150045   5.450   0.553   6.473 -0.3124 -2.1167  2.2910
14694SOL    HW250046   5.518   0.630   6.585  0.4306  1.6697 -0.5570
14695SOL     OW50047   3.976  12.124   3.578 -0.8144  0.6596  0.6810
14695SOL    HW150048   3.958  12.184   3.506  2.5331  1.0877  0.0633
14695SOL    HW250049   4.009  12.045   3.535  0.4521  0.6184  1.6724
14696SOL     OW50050   7.653   0.724   9.400 -0.2597 -0.3574 -0.0553
14696SOL    HW150051   7.708   0.651   9.371 -1.2146 -0.3691 -1.9799
14696SOL    HW250052   7.648   0.714   9.495  0.7926 -1.9503 -0.1274
14697SOL     OW50053   9.442   5.375   0.274  0.2903  0.0737 -0.4930
14697SOL    HW150054   9.361   5.345   0.232  0.5000 -0.4225 -0.5458
14697SOL    HW250055   9.499   5.400   0.201  0.3324  0.0458 -0.4693
14698SOL     OW50056  10.310   4.048   7.916 -0.2131 -0.8094 -0.2517
14698SOL    HW150057  10.383   4.002   7.957 -0.4290  1.0004  2.3910
14698SOL    HW250058  10.336   4.057   7.824  2.1265 -1.6318  0.2622
14699SOL     OW50059  12.061   0.599   2.330 -0.0087 -0.1072  0.1871
14699SOL    HW150060  12.035   0.685   2.298 -0.1733 -0.9133 -2.0289
14699SOL    HW250061  11.981   0.562   2.368  0.3697  1.1619  2.3552
14700SOL     OW50062  11.515   5.554   6.169 -0.3305  0.4397  0.2541
14700SOL    HW150063  11.456   5.495   6.121  0.9420 -0.6157 -0.0499
14700SOL    HW250064  11.583   5.576   6.106 -0.4057  1.6851  0.5909
14701SOL     OW50065   3.163   4.128   2.733  0.2105 -0.5333  0.3348
14701SOL    HW150066   3.115   4.204   2.764  0.2870  0.2641 -1.3743
14701SOL    HW250067   3.177   4.075   2.811  1.6604  2.0134  1.9510
14702SOL     OW50068  11.108   7.537   6.448  0.9977 -0.8219  0.1461
14702SOL    HW150069  11.019   7.556   6.477  1.4054  1.5881 -0.0034
14702SOL    HW250070  11.135   7.615   6.401  2.8276 -1.9427 -0.7764
14703SOL     OW50071   3.167  10.495   5.237  0.4594  0.2328  0.3193
14703SOL    HW150072   3.096  10.501   5.301  2.1230  0.0613  2.2845
14703SOL    HW250073   3.230  10.561   5.265  0.0535  2.1935 -2.8758
14704SOL     OW50074   5.569   3.633   9.184 -0.6755 -0.5328  0.6565
14704SOL    HW150075   5.654   3.593   9.205 -0.4947 -1.1316 -1.0419
14704SOL    HW250076   5.592   3.719   9.146 -0.8489 -0.4901  0.6464
14705SOL     OW50077  11.917   0.826   9.239  0.3561  0.7437  0.6753
14705SOL    HW150078  11.948   0.877   9.313 -1.1847  1.6721  0.7258
14705SOL    HW250079  11.844   0.877   9.203  0.9220  0.2166 -1.3478
14706SOL     OW50080   9.249   6.818   0.146  0.3102 -0.4252 -0.1758
14706SOL    HW150081   9.186   6.875   0.192  1.1675  0.3242  0.1182
14706SOL    HW250082   9.197   6.744   0.116 -0.7921  0.3652 -0.2955
14707SOL     OW50083   6.243   5.860   1.665 -0.1925  0.4301 -0.2062
14707SOL    HW150084   6.336   5.869   1.645  0.2423 -0.7677  1.1499
14707SOL    HW250085   6.199   5.911   1.597  1.4592  1.3556 -0.6406
14708SOL     OW50086   7.150  10.125   2.623  0.4619  0.0548  0.0863
14708SOL    HW150087   7.111  10.046   2.662 -0.4432  0.8784  0.9064
14708SOL    HW250088   7.175  10.098   2.535  0.8250 -1.3460  0.5946
14709SOL     OW50089   0.745   3.220   5.416 -0.3063 -0.1271  0.1574
14709SOL    HW150090   0.760   3.154   5.484 -0.6103 -0.7806 -0.3902
14709SOL    HW250091   0.653   3.209   5.392  0.0084 -0.4875 -0.9457
14710SOL     OW50092   2.806  11.872  12.369 -0.9396  0.6953 -0.2920
14710SOL    HW150093   2.750  11.834  12.436  0.6064 -2.0157 -0.3775
14710SOL    HW250094   2.802  11.810  12.296  0.4631  1.5260 -1.1293
14711SOL     OW50095  10.601   2.745   7.509  0.0087  0.5877  0.6332
14711SOL    HW150096  10.553   2.701   7.580 -1.0721 -0.8916 -0.9288
14711SOL    HW250097  10.644   2.819   7.552  1.3673 -1.5716  3.3069
14712SOL     OW50098   2.737  11.683  10.065 -0.4403  0.2382 -0.3311
14712SOL    HW150099   2.673  11.615  10.043 -0.7811  0.1963  0.7133
14712SOL    HW250100   2.695  11.733  10.135  1.1847 -0.6084  1.3190
14713SOL     OW50101   8.669  11.277  10.047  0.1436  0.6254 -0.2374
14713SOL    HW150102   8.750  11.234  10.074  0.0918 -0.6341 -1.9241
14713SOL    HW250103   8.679  11.368  10.077  1.5327  0.1442  0.8527
14714SOL     OW50104   4.879  11.313   4.833 -1.0355 -0.1219  0.4984
14714SOL    HW150105   4.797  11.318   4.784 -0.5178 -1.2333 -0.5227
14714SOL    HW250106   4.942  11.360   4.779 -0.1643 -2.4246 -0.6277
14715SOL     OW50107   6.628  10.511   1.091  0.4144  0.6450  0.0498
14715SOL    HW150108   6.548  10.558   1.111  0.5295  0.6864  0.4254
14715SOL    HW250109   6.605  10.453   1.018 -0.6350 -1.1496  1.7145
14716SOL     OW50110   0.184   9.374   7.885  0.2369  0.3401 -0.0567
14716SOL    HW150111   0.109   9.367   7.825  0.6232  0.0912 -0.5119
14716SOL    HW250112   0.153   9.431   7.955 -1.5607 -2.3135  1.5098
14717SOL     OW50113  11.790   6.152   4.032 -0.5980  0.2424  0.0762
14717SOL    HW150114  11.731   6.086   3.995 -0.9631  0.0333  1.0048
14717SOL    HW250115  11.835   6.189   3.956  1.1785 -2.5388 -0.3696
14718SOL     OW50116   9.964   6.439  12.187  0.1860 -0.0933  0.1802
14718SOL    HW150117   9.872   6.457  12.206 -0.1568 -0.2966 -1.1607
14718SOL    HW250118   9.964   6.410  12.096  1.7624  1.2768 -0.2995
14719SOL     OW50119  11.759   9.922   9.017 -0.7904 -0.0428 -0.2134
14719SOL    HW150120  11.813   9.880   8.951  1.1288  2.5417 -0.4110
14719SOL    HW250121  11.694   9.972   8.968 -0.8884 -0.0111 -0.0559
14720SOL     OW50122   0.631   4.017   1.118 -0.1493 -0.9808  0.3848
14720SOL    HW150123   0.697   4.019   1.187 -1.4483  0.1440  1.6904
14720SOL    HW250124   0.547   4.019   1.166 -1.1047  0.7884 -1.2100
14721SOL     OW50125  10.115   3.753   0.123 -0.7581  0.1550  0.2536
14721SOL    HW150126  10.058   3.702   0.066 -0.3262  0.3479 -0.3653
14721SOL    HW250127  10.191   3.773   0.069 -1.1880  2.0054  0.2428
14722SOL     OW50128  12.052  10.311   3.142 -0.6872 -0.2156 -0.0774
14722SOL    HW150129  12.116  10.297   3.072  1.8466  3.1306  1.3052
14722SOL    HW250130  11.968  10.289   3.102  1.1064 -4.6411 -2.0977
14723SOL     OW50131   2.514   2.966   6.702 -0.0687  0.4792 -0.2922
14723SOL    HW150132   2.606   2.975   6.724  0.4518 -0.4576 -1.9248
14723SOL    HW250133   2.493   3.045   6.653  0.5808 -0.3810 -2.0556
14724SOL     OW50134  10.260  11.856   6.366 -0.3593  0.1666  0.3818
14724SOL    HW150135  10.324  11.809   6.420  0.0719  0.8703  0.4957
14724SOL    HW250136  10.209  11.787   6.324  2.8639 -0.6193 -2.7426
14725SOL     OW50137   6.213   7.737   0.985  0.0051  0.3891 -0.2369
14725SOL    HW150138   6.206   7.641   0.977 -0.0702  0.4045 -0.3479
14725SOL    HW250139   6.139   7.761   1.042 -0.1091  0.4076 -0.3935
14726SOL     OW50140  11.407  11.111   7.434 -0.3963  0.3155 -0.1123
14726SOL    HW150141  11.343  11.047   7.403 -0.9812  0.8589 -0.0451
14726SOL    HW250142  11.479  11.105   7.371 -0.4194 -0.4462 -0.0737
14727SOL     OW50143   4.482   5.852   9.983 -0.2021  0.1597  0.0449
14727SOL    HW150144   4.497   5.758   9.973  2.1985  0.4490  0.2785
14727SOL    HW250145   4.390   5.859  10.007 -0.9319 -1.9787 -1.7543
14728SOL     OW50146  10.495   6.766   5.618 -0.1999  0.7260 -0.3377
14728SOL    HW150147  10.539   6.740   5.699 -2.5641 -1.0175  0.5075
14728SOL    HW250148  10.552   6.732   5.548 -0.3443 -1.9549  0.7103
14729SOL     OW50149   2.550   1.949  10.142  0.1096 -0.3061  0.6312
14729SOL    HW150150   2.630   1.899  10.161 -0.0639 -0.0330  2.1697
14729SOL    HW250151   2.582   2.035  10.115  0.3594 -0.6688 -0.2681
14730SOL     OW50152   4.473   0.865   3.646 -0.1653 -0.0792  0.4495
14730SOL    HW150153   4.463   0.935   3.582  0.7639 -1.3884 -1.2137
14730SOL    HW250154   4.463   0.908   3.731 -1.0699  1.7851 -0.5372
14731SOL     OW50155   5.517   6.493   2.028 -0.6154 -0.1940 -0.4283
14731SOL    HW150156   5.565   6.419   1.989 -2.0979 -0.7613 -1.2766
14731SOL    HW250157   5.521   6.477   2.122  1.1950  0.0101 -0.4486
14732SOL     OW50158  10.680  11.477   2.699 -0.5270  0.0660  0.2492
14732SOL    HW150159  10.749  11.510   2.641  1.1166 -1.3937  1.2803
14732SOL    HW250160  10.646  11.400   2.654  0.2137 -0.6138  0.8200
14733SOL     OW50161   9.633   3.047   1.811 -0.4799 -0.2046  0.2664
14733SOL    HW150162   9.550   3.021   1.770 -0.9643 -2.0957  2.2279
14733SOL    HW250163   9.688   2.969   1.803  0.3689  0.3283  0.7930
14734SOL     OW50164   5.047   2.183   7.077 -0.2986  0.0613  0.3373
14734SOL    HW150165   4.982   2.121   7.109  0.9858 -1.4315  0.1414
14734SOL    HW250166   4.995   2.255   7.040 -1.8147 -0.7799  0.7644
14735SOL     OW50167  10.417   8.870   9.813  0.3561 -0.1413 -0.1295
14735SOL    HW150168  10.446   8.942   9.756 -1.1812  1.3445  0.8686
14735SOL    HW250169  10.446   8.791   9.768  1.5480  1.0627 -1.6055
14736SOL     OW50170   4.807   5.904  12.492  0.1857 -0.3775  0.1348
14736SOL    HW150171   4.747   5.883  12.419 -1.3996  1.3357  0.8566
14736SOL    HW250172   4.796   5.831  12.553  0.1965 -0.9506 -0.5183
14737SOL     OW50173  10.932   7.942   0.343 -0.0461  0.0420 -0.2685
14737SOL    HW150174  10.951   7.869   0.403 -1.3154  0.2292  0.3953
14737SOL    HW250175  10.871   7.905   0.279  0.4152  0.1526 -0.7787
14738SOL     OW50176   9.973   1.249   1.304  0.2528 -0.0408 -0.2491
14738SOL    HW150177  10.041   1.316   1.304 -1.1883  1.4658 -0.2255
14738SOL    HW250178   9.891   1.297   1.306 -0.8495 -1.8086 -0.5666
14739SOL     OW50179   0.341  10.526   9.465 -0.0683 -0.1933  0.0695
14739SOL    HW150180   0.417  10.496   9.515  0.0468 -0.8902 -0.5220
14739SOL    HW250181   0.266  10.506   9.522  0.0117 -1.5459 -0.2792
14740SOL     OW50182   0.496   1.956  12.100  0.3488 -0.5648 -0.3906
14740SOL    HW150183   0.564   2.023  12.093  0.1584 -0.3038  0.1637
14740SOL    HW250184   0.495   1.914  12.014  1.0940 -0.4637 -0.4620
14741SOL     OW50185   4.774   5.300   5.457 -0.1147  0.5609 -0.0012
14741SOL    HW150186   4.753   5.277   5.366 -1.2672 -0.6152  0.5267
14741SOL    HW250187   4.824   5.225   5.489 -0.2662  0.6824  0.5233
14742SOL     OW50188   3.952   1.656  10.194 -0.0297 -0.2844  0.4054
14742SOL    HW150189   3.913   1.663  10.107  0.6529  0.1684  0.1246
14742SOL    HW250190   3.932   1.739  10.237  1.5370  0.4155 -0.1443
14743SOL     OW50191   2.413   5.934   0.367  0.0584 -0.1061 -0.2611
14743SOL    HW150192   2.502   5.903   0.353 -0.2482 -1.5773  0.7304
14743SOL    HW250193   2.394   5.912   0.459 -0.9577  1.1620 -0.1345
14744SOL     OW50194   6.315  11.978   1.670  0.6320 -0.7606 -0.0016
14744SOL    HW150195   6.372  11.941   1.603  1.7990 -0.6930  0.9135
14744SOL    HW250196   6.375  12.005   1.739 -0.5566 -1.1408  1.2178
14745SOL     OW50197   9.106   7.941  11.406 -0.2611  0.5829 -0.0074
14745SOL    HW150198   9.073   8.030  11.391 -2.6086 -0.2231 -0.0781
14745SOL    HW250199   9.037   7.899  11.458  0.5609 -1.3514 -0.4114
14746SOL     OW50200   3.213   4.122   6.363 -0.4522 -0.1985  0.0561
14746SOL    HW150201   3.141   4.066   6.391  1.2423 -1.2585  2.6346
14746SOL    HW250202   3.268   4.064   6.309  0.6035 -0.6905  1.6083
14747SOL     OW50203   4.835   1.390   1.916  0.9057 -0.5997  0.0243
14747SOL    HW150204   4.793   1.473   1.894 -0.4391 -1.1530  0.3861
14747SOL    HW250205   4.852   1.397   2.010  2.1431 -0.1723 -0.2154
14748SOL     OW50206   7.871   5.980   2.015 -0.4350 -0.2300  0.3513
14748SOL    HW150207   7.936   5.915   2.041 -0.4576 -0.4024 -0.0225
14748SOL    HW250208   7.918   6.063   2.016 -0.3501 -0.2790  0.6109
14749SOL     OW50209   6.415   8.867  10.717 -0.8196 -0.8775 -0.1520
14749SOL    HW150210   6.428   8.931  10.646 -1.9700 -0.0924  0.3052
14749SOL    HW250211   6.454   8.909  10.794 -1.8617 -0.5514  0.2195
14750SOL     OW50212   3.077   2.413   3.448 -0.0970  0.8311 -0.1451
14750SOL    HW150213   3.040   2.478   3.389 -2.3878  0.5386  0.8491
14750SOL    HW250214   3.065   2.451   3.535  0.2089 -0.1338  0.3298
14751SOL     OW50215   7.532   6.169  12.215 -0.5270 -0.1486  0.1126
14751SOL    HW150216   7.561   6.247  12.167 -2.1599  1.0318  0.9318
14751SOL    HW250217   7.608   6.142  12.266  0.3566  0.3065 -0.9174
14752SOL     OW50218   2.046   0.986   1.354 -0.1999 -0.4318 -0.2735
14752SOL    HW150219   1.970   1.045   1.355 -0.3503 -0.5480 -1.7268
14752SOL    HW250220   2.099   1.018   1.281  1.7343  0.3288  1.3925
14753SOL     OW50221   9.440   7.377   4.362  0.0207 -0.2183  0.0844
14753SOL    HW150222   9.406   7.376   4.451 -0.1952 -2.3980  0.0320
14753SOL    HW250223   9.508   7.445   4.363 -1.1933  1.0438  1.3925
14754SOL     OW50224   5.699   6.423  12.388 -0.8566 -0.1650 -0.1387
14754SOL    HW150225   5.700   6.360  12.316  2.2091 -1.0360  0.4845
14754SOL    HW250226   5.708   6.368  12.467 -1.9693  0.8804  0.7457
14755SOL     OW50227   5.893   5.475   8.872  0.7374  0.1245  0.2336
14755SOL    HW150228   5.930   5.561   8.852 -1.4687  0.7543 -1.6161
14755SOL    HW250229   5.856   5.485   8.960  2.6097  0.2670  1.0387
14756SOL     OW50230  12.111  10.925  10.212 -0.2453 -0.0106  0.1461
14756SOL    HW150231  12.099  10.987  10.284  0.1715 -0.4513  0.6062
14756SOL    HW250232  12.074  10.843  10.245  1.2645 -0.6044  0.4371
14757SOL     OW50233   6.192   4.988   9.105  0.2947 -0.5320  0.0148
14757SOL    HW150234   6.174   5.067   9.156  2.6296 -0.6690  1.1831
14757SOL    HW250235   6.244   4.933   9.164  2.0405 -1.2499 -2.0664
14758SOL     OW50236   0.543   4.909   0.348 -0.0732 -0.7566 -0.1062
14758SOL    HW150237   0.621   4.893   0.296  1.6579  2.4165  1.2549
14758SOL    HW250238   0.501   4.984   0.307 -1.2484 -1.0810  0.4479
14759SOL     OW50239   5.299   0.167   7.300  0.2572  0.1976  0.1367
14759SOL    HW150240   5.368   0.228   7.326  0.1651  0.3805 -0.0432
14759SOL    HW250241   5.338   0.080   7.310  0.5038  0.2993  0.0577
14760SOL     OW50242  12.287   3.087   8.016 -0.0080  0.0789 -0.0401
14760SOL    HW150243  12.357   3.132   8.065  0.9276  0.0134 -1.2862
14760SOL    HW250244  12.287   2.998   8.051  0.3931  0.1356  0.1165
14761SOL     OW50245  11.001   5.633   3.372 -0.9971 -0.1547 -0.4514
14761SOL    HW150246  10.958   5.686   3.305 -1.4175 -0.9914 -0.8474
14761SOL    HW250247  11.015   5.694   3.445 -1.6124  0.4604 -0.8372
14762SOL     OW50248   9.830   6.934   2.032 -0.3040 -0.6629  0.5713
14762SOL    HW150249   9.748   6.910   1.987  0.9433 -2.4649 -0.9402
14762SOL    HW250250   9.809   6.930   2.125 -1.8381 -1.4907  0.2208
14763SOL     OW50251   9.616   2.250   6.331 -0.0387 -0.1170 -0.2653
14763SOL    HW150252   9.557   2.252   6.256 -2.0248  1.0747  1.1872
14763SOL    HW250253   9.680   2.319   6.314  0.4647 -0.8714 -1.5098
14764SOL     OW50254   9.577   3.513   5.172 -0.1552 -0.2960 -0.3993
14764SOL    HW150255   9.663   3.478   5.194 -0.5926 -1.7917 -0.9844
14764SOL    HW250256   9.590   3.608   5.167  0.9075 -0.2471  1.9525
14765SOL     OW50257   4.610   3.245   8.365  0.7387 -0.2524  0.5728
14765SOL    HW150258   4.602   3.162   8.413  1.7623 -0.2052  0.8473
14765SOL    HW250259   4.690   3.285   8.399  0.6627  0.5001 -0.0997
14766SOL     OW50260   5.135   6.268   6.717  0.2123  0.0252  0.2198
14766SOL    HW150261   5.040   6.259   6.720  0.2425 -0.1271  2.7278
14766SOL    HW250262   5.153   6.348   6.766  1.3927  0.2309 -0.4944
14767SOL     OW50263   6.912   6.761   1.650  0.1822  0.0637 -0.7530
14767SOL    HW150264   6.978   6.694   1.665  0.0139 -0.2442 -1.3523
14767SOL    HW250265   6.830   6.712   1.644 -0.1798  0.4874  0.4840
14768SOL     OW50266   4.811   7.653   8.549  0.1360  0.0398 -0.4945
14768SOL    HW150267   4.829   7.569   8.506  0.3808 -0.0902 -0.1388
14768SOL    HW250268   4.721   7.644   8.581 -0.3432  0.4389 -1.6779
14769SOL     OW50269   3.950   5.377   1.950 -0.0376  0.2649 -0.6291
14769SOL    HW150270   3.961   5.403   1.858  3.8534 -0.1099 -0.4120
14769SOL    HW250271   3.958   5.282   1.949 -0.3797  0.2253  0.0654
14770SOL     OW50272  12.141  11.525   8.712  0.4353 -0.6530  0.3858
14770SOL    HW150273  12.141  11.437   8.748  0.3577 -0.5077  0.7451
14770SOL    HW250274  12.048  11.547   8.702  0.3479 -1.8645 -2.8180
14771SOL     OW50275   0.522   1.377   9.517 -0.8059  0.2692 -0.1374
14771SOL    HW150276   0.476   1.461   9.515 -0.0824  0.6679 -0.8786
14771SOL    HW250277   0.542   1.359   9.425  1.4248  0.6536  0.2175
14772SOL     OW50278   1.906   8.253   2.629 -0.2501  0.2462 -0.4129
14772SOL    HW150279   1.974   8.188   2.610 -0.7938 -0.4976  0.1186
14772SOL    HW250280   1.951   8.322   2.677 -0.0227 -0.6468  0.6861
14773SOL     OW50281   0.421   1.755   1.528 -0.2283 -0.0700 -0.0931
14773SOL    HW150282   0.459   1.679   1.573  0.1168  0.3121  0.2707
14773SOL    HW250283   0.362   1.794   1.592  1.1442  1.1611  0.4939
14774SOL     OW50284   5.995  10.599   2.648 -0.0925  0.4778 -0.0408
14774SOL    HW150285   5.960  10.678   2.691 -0.5713  0.3281 -0.1504
14774SOL    HW250286   6.071  10.630   2.600 -1.7536  1.4302 -2.2591
14775SOL     OW50287  12.262   4.721  10.186 -0.1083  0.1974  0.3233
14775SOL    HW150288  12.270   4.771  10.267 -0.1017 -0.2816  0.6201
14775SOL    HW250289  12.350   4.726  10.147 -0.1538  0.5582  0.2644
14776SOL     OW50290   1.463   9.186   3.989  0.0812  0.1237  0.0894
14776SOL    HW150291   1.531   9.163   3.926  0.4715  1.3923  0.0147
14776SOL    HW250292   1.437   9.103   4.028  1.1578 -0.4639 -0.4029
14777SOL     OW50293   7.404   5.109   0.166  0.1798 -0.2742 -0.3762
14777SOL    HW150294   7.477   5.147   0.116 -0.2298  0.6641 -0.2876
14777SOL    HW250295   7.446   5.065   0.240  0.7100 -0.5106 -0.8144
14778SOL     OW50296   1.182   7.030   3.941  0.4411  0.1105 -0.1686
14778SOL    HW150297   1.241   7.025   4.017 -0.4499  1.8855  0.6930
14778SOL    HW250298   1.131   7.109   3.955 -1.3247 -0.7130 -1.5176
14779SOL     OW50299   0.563   1.920   1.371  0.0297  0.0522  0.0642
14779SOL    HW150300   0.639   1.889   1.420  0.7967 -1.0833 -1.7422
14779SOL    HW250301   0.489   1.877   1.414  0.6181 -0.5006  0.5553
14780SOL     OW50302   4.690   5.277   5.830  0.2397  0.0875  0.0006
14780SOL    HW150303   4.655   5.335   5.762 -0.8219 -1.1111 -0.5182
14780SOL    HW250304   4.621   5.273   5.896  1.0212  0.7643  0.8912
14781SOL     OW50305   1.073   8.008  10.330  0.5794 -0.1889 -0.3268
14781SOL    HW150306   1.077   8.094  10.288 -0.2866 -0.4094 -0.9070
14781SOL    HW250307   0.987   7.974  10.306 -0.5579  0.2263  2.7887
14782SOL     OW50308   1.275   8.221   4.511  0.3458  0.1345  1.1712
14782SOL    HW150309   1.344   8.192   4.571  1.5551  0.8301  0.1709
14782SOL    HW250310   1.218   8.276   4.566  1.3044  0.5838  1.7531
14783SOL     OW50311   0.684   9.164   0.700 -0.1946  0.6227 -0.5845
14783SOL    HW150312   0.669   9.251   0.737 -0.7339  0.6930 -0.9675
14783SOL    HW250313   0.760   9.131   0.748 -1.2012  0.4957  0.9850
14784SOL     OW50314   5.004   5.916  11.085  0.3477 -0.2192 -0.5388
14784SOL    HW150315   4.959   5.838  11.116 -0.9262  0.3510 -0.8967
14784SOL    HW250316   4.994   5.980  11.155  0.5639 -0.0667 -0.6423
14785SOL     OW50317   8.455   6.264   3.750 -0.6839 -0.0568  0.2123
14785SOL    HW150318   8.462   6.352   3.715 -1.0165  1.1030  2.7971
14785SOL    HW250319   8.536   6.250   3.799 -1.8967  0.1447  2.4358
14786SOL     OW50320   0.616  10.638  10.930  0.2630 -0.2465  0.2395
14786SOL    HW150321   0.530  10.598  10.916  0.7046 -0.8211 -0.9581
14786SOL    HW250322   0.672  10.599  10.863  1.4516  0.1742  0.9543
14787SOL     OW50323   0.980   6.447   6.644  0.1593  0.4067 -0.5025
14787SOL    HW150324   0.997   6.354   6.627 -1.3588 -0.0466  0.2743
14787SOL    HW250325   0.899   6.448   6.695  0.1461  2.1701 -0.4841
14788SOL     OW50326  10.478   4.469  10.923  0.0192 -0.0203  0.2359
14788SOL    HW150327  10.525   4.529  10.865 -1.7274  2.7764  1.5246
14788SOL    HW250328  10.392   4.458  10.882 -0.0775 -0.7595  0.6165
14789SOL     OW50329   8.464   5.968   1.735  0.0640  0.1999 -0.0285
14789SOL    HW150330   8.371   5.979   1.753 -0.0309  0.6629 -0.7848
14789SOL    HW250331   8.503   6.053   1.753  0.6006 -0.3665  1.7128
14790SOL     OW50332   4.838   9.053   0.148 -0.1956 -0.0168  0.5638
14790SOL    HW150333   4.800   9.127   0.195 -0.6761 -0.6824  1.2577
14790SOL    HW250334   4.895   9.010   0.213  1.3777  0.6729 -0.3096
14791SOL     OW50335   5.076   5.645   7.334 -0.1049 -0.1602 -0.5503
14791SOL    HW150336   5.034   5.705   7.273  0.8613  1.7461  0.5507
14791SOL    HW250337   5.156   5.617   7.289 -1.1443 -1.6973 -1.5651
14792SOL     OW50338   9.881   4.252   9.926 -0.3745 -0.3072  0.5967
14792SOL    HW150339   9.917   4.308   9.856  0.3328  1.4631  2.2738
14792SOL    HW250340   9.915   4.165   9.907  1.2829  0.4801 -0.3033
14793SOL     OW50341   2.918   3.119   6.588  0.0940 -0.1207 -0.3966
14793SOL    HW150342   2.893   3.099   6.498 -0.5240 -1.2226 -0.0064
14793SOL    HW250343   3.012   3.137   6.584  0.1128 -0.3873 -1.2235
14794SOL     OW50344   2.021   8.792   1.030 -0.0965  0.1909  0.2962
14794SOL    HW150345   2.062   8.829   0.952  0.0784  1.0393  0.7793
14794SOL    HW250346   2.039   8.698   1.024 -0.4982  0.1775 -0.9161
14795SOL     OW50347   5.422   0.109   7.850  0.2964 -0.1550 -0.0443
14795SOL    HW150348   5.438   0.154   7.767 -0.0925 -0.7179 -0.4258
14795SOL    HW250349   5.443   0.174   7.917 -0.9864  0.8588 -0.5895
14796SOL     OW50350   7.779   3.966   1.865 -0.5153  0.5152 -0.2941
14796SOL    HW150351   7.858   3.943   1.816 -0.3404 -0.8401  0.5714
14796SOL    HW250352   7.726   4.016   1.803  0.6207  0.6876 -1.1690
14797SOL     OW50353   0.388   3.800   0.667  0.5334 -0.3497  0.1815
14797SOL    HW150354   0.381   3.882   0.618  1.9073 -0.4398 -0.1970
14797SOL    HW250355   0.417   3.826   0.754 -1.7426 -0.2068  0.9599
14798SOL     OW50356  10.473  11.744   4.077 -0.3681  0.1815 -0.4740
14798SOL    HW150357  10.544  11.682   4.059 -0.0610  0.8892 -1.8446
14798SOL    HW250358  10.395  11.689   4.085  0.1449 -0.5105 -0.0085
14799SOL     OW50359   9.785   7.356   1.125  0.4978  0.0001  0.1310
14799SOL    HW150360   9.841   7.287   1.162  0.8383 -0.5972 -1.4122
14799SOL    HW250361   9.847   7.419   1.088  0.1623 -0.0465 -0.5190
14800SOL     OW50362   1.135   6.474   9.009  0.6506 -0.9184  0.3294
14800SOL    HW150363   1.194   6.405   9.042 -0.7383 -2.3857 -0.1534
14800SOL    HW250364   1.114   6.447   8.920  1.2104  0.9343 -0.4113
14801SOL     OW50365   9.566   1.025   2.878  0.2162 -0.4155 -0.2249
14801SOL    HW150366   9.501   0.958   2.861  0.4120 -0.7235  0.1979
14801SOL    HW250367   9.552   1.091   2.810 -1.8164  0.4952  0.9880
14802SOL     OW50368   8.035  11.697   4.357  0.2581  0.7323  0.3277
14802SOL    HW150369   8.032  11.601   4.348 -2.6215  0.8500 -1.0695
14802SOL    HW250370   8.028  11.712   4.451 -0.4068 -0.4485  0.4950
14803SOL     OW50371   6.480  10.056   6.392  0.2355 -0.2618 -0.2991
14803SOL    HW150372   6.483   9.973   6.344 -0.6596 -0.0259 -0.7892
14803SOL    HW250373   6.469  10.122   6.324  1.3869  0.3122  0.0493
14804SOL     OW50374   8.816   1.459  10.790  0.1288 -0.2419 -0.4873
14804SOL    HW150375   8.822   1.486  10.698 -1.5095 -0.0595 -0.5748
14804SOL    HW250376   8.726   1.481  10.815  0.3744 -0.8319  0.9918
14805SOL     OW50377   3.738  10.503   7.376  0.1017 -0.0587 -0.4591
14805SOL    HW150378   3.797  10.430   7.357  0.2983 -0.0866  0.2497
14805SOL    HW250379   3.700  10.481   7.462  1.8862  1.7764  0.8855
14806SOL     OW50380   4.166   4.481  11.473  0.2988  0.2033  0.1090
14806SOL    HW150381   4.098   4.414  11.472  1.3659 -0.9232  0.8592
14806SOL    HW250382   4.195   4.486  11.382  0.1212 -0.2479  0.0258
14807SOL     OW50383   2.265   4.348   4.742  0.0846  0.1824 -0.3928
14807SOL    HW150384   2.333   4.307   4.689 -1.1944 -0.4709 -1.6018
14807SOL    HW250385   2.279   4.315   4.830  1.8891  0.8060 -0.4184
14808SOL     OW50386   5.569   2.453   4.611 -0.2144  0.0843 -0.2673
14808SOL    HW150387   5.627   2.506   4.557 -0.6974  1.9710  0.9586
14808SOL    HW250388   5.623   2.381   4.642  1.0224  0.9066 -0.4510
14809SOL     OW50389   4.334  10.008   9.830 -0.1334  0.1277  0.2465
14809SOL    HW150390   4.364  10.095   9.804  1.6058 -0.5439 -0.1195
14809SOL    HW250391   4.393   9.983   9.902 -1.8289  0.0078  1.6591
14810SOL     OW50392   3.758   9.004   2.781 -0.4091  0.2365 -0.2508
14810SOL    HW150393   3.821   9.075   2.773  1.3356 -1.3378 -1.6290
14810SOL    HW250394   3.725   8.991   2.692 -1.4271 -0.0632  0.1528
14811SOL     OW50395   8.850  11.924   0.572  0.0422  0.2983  0.0252
14811SOL    HW150396   8.769  11.939   0.523  0.7450  1.3735 -0.8533
14811SOL    HW250397   8.889  12.011   0.581  0.3104  0.0440  1.8926
14812SOL     OW50398   9.041   8.948   5.133 -0.6594 -0.0272  0.1483
14812SOL    HW150399   9.069   9.030   5.094 -0.6931  0.0411  0.2700
14812SOL    HW250400   9.076   8.881   5.074 -0.1646  0.0558  0.3517
14813SOL     OW50401   9.550   5.832   9.299  0.2092  0.1653  0.1471
14813SOL    HW150402   9.628   5.841   9.354  1.2124  0.8584 -1.3455
14813SOL    HW250403   9.479   5.864   9.354  0.8601 -0.8803  1.7041
14814SOL     OW50404   5.761   1.194  10.761 -0.0522  0.8415  1.2100
14814SOL    HW150405   5.759   1.248  10.841 -0.7591  2.7792 -0.0397
14814SOL    HW250406   5.849   1.207  10.726  0.0159  0.5909  1.2889
14815SOL     OW50407  10.804   9.758   4.071  0.2815  0.7253 -0.1188
14815SOL    HW150408  10.826   9.723   3.985  1.1245  1.0730 -0.0460
14815SOL    HW250409  10.713   9.732   4.084 -0.1031  1.3075 -1.4373
14816SOL     OW50410   5.827   9.879   4.008  0.4093  0.3136 -0.1302
14816SOL    HW150411   5.767   9.912   4.075  1.0085 -0.5292  0.8333
14816SOL    HW250412   5.902   9.939   4.011  0.2886  0.4793 -0.3079
14817SOL     OW50413   7.334   5.957   4.980 -0.0108  0.3300 -0.0883
14817SOL    HW150414   7.286   5.937   5.060  0.9499  0.2021  0.4620
14817SOL    HW250415   7.316   5.883   4.922  0.4636 -0.2955  0.5509
14818SOL     OW50416   5.813   4.558  11.125  0.2923 -0.1745  0.3851
14818SOL    HW150417   5.907   4.575  11.135 -0.1081  1.8784  1.2394
14818SOL    HW250418   5.805   4.520  11.037  1.9334 -0.6690  0.4046
14819SOL     OW50419   7.719   4.320   2.685 -0.3326  0.0970  0.5640
14819SOL    HW150420   7.630   4.347   2.661 -0.5534 -0.3784  0.8360
14819SOL    HW250421   7.718   4.225   2.680  0.1333  0.0825  0.6694
14820SOL     OW50422   8.456   1.886   9.144  0.2809  0.1175  0.0751
14820SOL    HW150423   8.397   1.850   9.077  0.3260  1.1086 -0.5017
14820SOL    HW250424   8.535   1.831   9.137  0.3207  0.2588 -0.7442
14821SOL     OW50425   7.340   3.245   3.491  0.0123  0.1307  0.4245
14821SOL    HW150426   7.245   3.251   3.497  0.1666  2.6634  3.6773
14821SOL    HW250427   7.366   3.325   3.446  0.6496 -0.2051  0.1850
14822SOL     OW50428  11.197   1.854   2.661  0.3980  0.3121 -0.0380
14822SOL    HW150429  11.148   1.824   2.737  1.0350  2.0059  1.0982
14822SOL    HW250430  11.139   1.839   2.587 -0.4957 -0.7662  0.8593
14823SOL     OW50431   6.546   8.253   9.591 -0.5775  0.0204  0.2381
14823SOL    HW150432   6.470   8.222   9.640  0.1091  0.0599  1.3490
14823SOL    HW250433   6.617   8.194   9.615 -0.2099  0.0695 -0.6763
14824SOL     OW50434   4.116  11.725  10.477 -0.2172 -0.7612 -0.3435
14824SOL    HW150435   4.104  11.773  10.395 -0.2568 -0.7256 -0.3174
14824SOL    HW250436   4.100  11.634  10.454  1.2080 -0.9414 -0.6946
14825SOL     OW50437   2.916   6.694   0.743  0.1706 -0.2228 -0.3546
14825SOL    HW150438   2.912   6.789   0.733 -1.4028 -0.1410  0.7169
14825SOL    HW250439   2.947   6.662   0.658 -2.1726  1.0661 -1.7883
14826SOL     OW50440   3.780   9.082   7.338 -0.1358 -0.1502  0.2095
14826SOL    HW150441   3.712   9.066   7.404 -0.3220  0.8053  0.2606
14826SOL    HW250442   3.837   9.148   7.378 -0.3068  0.5199 -0.6108
14827SOL     OW50443   5.722   3.095  10.104  0.0312  0.4394 -0.3189
14827SOL    HW150444   5.789   3.050  10.155 -0.1019  0.4666 -0.1174
14827SOL    HW250445   5.770   3.154  10.046  0.2383 -0.4280 -1.0477
14828SOL     OW50446   4.316   9.050   9.589 -0.3170  0.1319 -0.1670
14828SOL    HW150447   4.294   9.137   9.621 -2.7414 -0.8611  1.0795
14828SOL    HW250448   4.236   9.018   9.547 -0.3575 -2.4076  1.6018
14829SOL     OW50449   8.575   9.502   4.668 -0.6052 -0.3299 -0.0554
14829SOL    HW150450   8.597   9.587   4.706 -1.3265  0.5631 -1.5157
14829SOL    HW250451   8.579   9.517   4.573  1.6045 -2.5831 -0.3899
14830SOL     OW50452   4.351   1.446   4.373  0.4802  0.0737  0.0327
14830SOL    HW150453   4.437   1.473   4.406  0.7199 -0.5788 -0.0370
14830SOL    HW250454   4.370   1.373   4.315 -0.1304 -0.0972  0.0401
14831SOL     OW50455   6.366  11.966   2.468  0.3054  0.2996 -0.2223
14831SOL    HW150456   6.317  12.047   2.453 -2.8595 -1.0803  1.6918
14831SOL    HW250457   6.409  11.979   2.553 -1.2643 -0.4068  0.7207
14832SOL     OW50458  12.417   2.431   3.021  0.1801 -0.0880  0.0361
14832SOL    HW150459  12.493   2.400   3.069  0.8448 -0.7266 -1.3652
14832SOL    HW250460  12.345   2.428   3.084  1.2663  0.3530  1.3297
14833SOL     OW50461   6.278   9.421   7.593  0.1594  0.0180 -0.0265
14833SOL    HW150462   6.260   9.368   7.516 -1.9746  0.2159  0.2711
14833SOL    HW250463   6.352   9.378   7.635 -0.2367 -1.5601 -0.8498
14834SOL     OW50464  11.389   0.706   4.689  0.1032  0.1317 -0.5326
14834SOL    HW150465  11.313   0.733   4.636 -0.3767 -0.0020  0.0762
14834SOL    HW250466  11.448   0.664   4.626  0.0195  0.9078 -1.1539
14835SOL     OW50467   4.951  11.005  11.387 -0.2498  0.4495  0.0722
14835SOL    HW150468   5.016  11.063  11.427 -2.1913  1.7239  1.5651
14835SOL    HW250469   4.877  11.063  11.368 -2.2883 -1.5145  1.6243
14836SOL     OW50470   6.522   1.097   8.165 -0.4232  0.7587 -0.2099
14836SOL    HW150471   6.614   1.092   8.191 -0.3765 -1.2078 -0.6290
14836SOL    HW250472   6.474   1.101   8.248  0.0066  0.7563  0.0395
14837SOL     OW50473   7.282   2.869   5.054  0.7183  0.1698  0.4257
14837SOL    HW150474   7.262   2.779   5.029  1.7537 -0.6039  2.2014
14837SOL    HW250475   7.223   2.922   5.001  0.7089 -1.4775 -1.3402
14838SOL     OW50476   6.472   9.052   4.594 -0.0086  0.4007  0.0364
14838SOL    HW150477   6.409   8.990   4.556 -0.9864  0.4019  1.5510
14838SOL    HW250478   6.555   9.032   4.550 -0.3619 -1.7666  0.2297
14839SOL     OW50479   5.758   4.861   1.402 -0.2092  0.1248 -0.1315
14839SOL    HW150480   5.729   4.772   1.418  0.6116 -0.4885 -1.8458
14839SOL    HW250481   5.850   4.862   1.431  0.0132  0.1928 -0.8364
14840SOL     OW50482   6.103   6.339   2.275  0.4643 -0.8339  0.4071
14840SOL    HW150483   6.184   6.292   2.253  1.4224  0.9674 -0.0855
14840SOL    HW250484   6.133   6.423   2.309 -1.2185  0.0740 -0.2439
14841SOL     OW50485   5.810   5.585  11.772 -0.6802 -0.4690  0.5564
14841SOL    HW150486   5.811   5.628  11.686 -1.3208 -0.6078  0.4772
14841SOL    HW250487   5.881   5.521  11.767  1.2505  1.4893  1.1629
14842SOL     OW50488   8.912   9.063   9.805 -0.0841  0.4900  0.0633
14842SOL    HW150489   8.960   8.994   9.850 -1.8563  1.4400  3.7556
14842SOL    HW250490   8.829   9.023   9.782  0.2634  0.4343 -1.1857
14843SOL     OW50491  11.513  10.836   6.854  0.6738 -0.3153 -1.0658
14843SOL    HW150492  11.578  10.793   6.910  0.4495  1.3715  0.6151
14843SOL    HW250493  11.522  10.929   6.875 -1.5621  0.0728 -1.5974
14844SOL     OW50494   8.046   8.066   1.286  0.1347  0.7597  0.4020
14844SOL    HW150495   7.951   8.057   1.279 -0.0327 -0.9727  3.3756
14844SOL    HW250496   8.077   7.979   1.309  2.8879  0.5879 -3.1570
14845SOL     OW50497   4.731   2.358   4.657  0.0003  0.3839 -0.5346
14845SOL    HW150498   4.637   2.353   4.635 -0.7341 -1.8030  2.4439
14845SOL    HW250499   4.773   2.300   4.593 -1.1402 -0.9085 -0.1736
14846SOL     OW50500   2.578   7.917   4.463  0.3912  0.1696 -0.2014
14846SOL    HW150501   2.660   7.876   4.436 -0.0936 -0.7478 -0.3521
14846SOL    HW250502   2.526   7.844   4.498  0.0971  0.9368  1.0078
14847SOL     OW50503   2.019   9.321  10.423  0.5492 -0.3290  0.0562
14847SOL    HW150504   1.956   9.315  10.495 -1.0271  0.3709 -1.2069
14847SOL    HW250505   2.050   9.411  10.426  1.3632 -0.6191  0.5531
14848SOL     OW50506   8.821   7.407   8.029  0.6521  0.9433 -0.1655
14848SOL    HW150507   8.893   7.445   7.978  2.1457  1.4624  2.2056
14848SOL    HW250508   8.754   7.476   8.030  1.7377  2.0244  0.8113
14849SOL     OW50509  11.550   6.631  11.606  0.2351  0.0331 -0.2800
14849SOL    HW150510  11.636   6.653  11.571  0.4720 -0.4029  0.0094
14849SOL    HW250511  11.553   6.662  11.697 -0.4453  1.3423 -0.6797
14850SOL     OW50512   3.434   3.959   8.247 -0.3607 -0.3269 -1.3109
14850SOL    HW150513   3.480   4.041   8.228 -1.6474  1.0507  1.0662
14850SOL    HW250514   3.342   3.980   8.233 -0.7559 -1.1883 -0.1218
14851SOL     OW50515   8.368   8.707   8.527  0.1175 -0.5048  0.0915
14851SOL    HW150516   8.371   8.797   8.493 -0.0241 -1.1733 -1.7889
14851SOL    HW250517   8.423   8.710   8.606  0.7176  1.0555 -0.3419
14852SOL     OW50518   0.154   6.730   8.921  0.3625  0.6581 -0.1730
14852SOL    HW150519   0.211   6.654   8.930  0.9036  0.9659 -0.9339
14852SOL    HW250520   0.067   6.697   8.942  0.5882 -0.1794 -0.5335
14853SOL     OW50521   9.620   9.454   1.068  0.0540  0.9441 -0.0645
14853SOL    HW150522   9.611   9.528   1.128  1.8961  1.1611 -0.0162
14853SOL    HW250523   9.530   9.423   1.055 -0.8632  3.6247 -0.6812
14854SOL     OW50524   3.507   0.823  11.595  0.2187  0.3038 -0.1130
14854SOL    HW150525   3.491   0.905  11.642  1.6401 -0.5827  2.0872
14854SOL    HW250526   3.458   0.757  11.644 -1.3696 -0.1603 -2.1819
14855SOL     OW50527   8.768   4.488   1.896  0.5251  0.2438 -0.1758
14855SOL    HW150528   8.747   4.537   1.816  1.8104  0.5871 -0.3283
14855SOL    HW250529   8.794   4.555   1.959  1.8039 -0.1765 -0.2255
14856SOL     OW50530   4.972   3.091   6.777 -0.0304 -0.1464  0.3799
14856SOL    HW150531   4.942   3.182   6.773 -0.2354 -0.2378 -0.7195
14856SOL    HW250532   5.021   3.079   6.695  0.9412 -0.7140  1.0181
14857SOL     OW50533   7.511   2.517   5.848 -0.0851  0.1037  0.2438
14857SOL    HW150534   7.549   2.432   5.824  1.6581  1.5367 -2.6314
14857SOL    HW250535   7.549   2.536   5.934 -1.1461 -2.2937  1.3411
14858SOL     OW50536   8.227   6.557   5.371 -0.0446 -0.0384  0.0264
14858SOL    HW150537   8.211   6.651   5.384 -0.2049 -0.0559 -0.0415
14858SOL    HW250538   8.320   6.546   5.392 -0.4192 -0.1608  1.7314
14859SOL     OW50539   7.496   7.580   7.422  0.8240 -0.1527  0.0112
14859SOL    HW150540   7.516   7.672   7.402  0.5427  0.0367  0.5789
14859SOL    HW250541   7.505   7.574   7.517  0.1158 -0.5333  0.0584
14860SOL     OW50542   1.692   6.654   1.921 -0.2832 -0.0210  0.0956
14860SOL    HW150543   1.670   6.669   2.013  0.4141 -1.2715  0.4988
14860SOL    HW250544   1.608   6.654   1.875 -0.7235 -0.2770  0.8808
14861SOL     OW50545   7.597   5.227  10.601  0.4271  0.4530  0.3166
14861SOL    HW150546   7.521   5.179  10.567  0.2573  0.3243  0.8720
14861SOL    HW250547   7.583   5.231  10.696  0.1705  2.0649  0.2407
14862SOL     OW50548   2.950   4.508   9.129  0.2383 -0.8661  0.4815
14862SOL    HW150549   3.016   4.542   9.068  0.5304 -1.7995  0.2559
14862SOL    HW250550   2.997   4.499   9.212  0.0592 -0.3624  0.6383
14863SOL     OW50551   7.767   2.513   6.957 -0.3954 -0.6235 -0.3561
14863SOL    HW150552   7.816   2.592   6.933 -0.9126  0.0406  0.6736
14863SOL    HW250553   7.728   2.483   6.875  1.5800 -1.0901 -1.1792
14864SOL     OW50554   1.853  11.023   7.275  0.7224 -0.0600  0.2777
14864SOL    HW150555   1.774  10.974   7.251  0.7441 -0.0430  0.1715
14864SOL    HW250556   1.830  11.067   7.357  1.2846 -1.6486  1.3324
14865SOL     OW50557   3.432   4.600   4.268 -0.5364  0.3572  0.2049
14865SOL    HW150558   3.424   4.694   4.248  1.9130  0.5115 -0.2681
14865SOL    HW250559   3.348   4.578   4.308 -1.6839  2.4371 -0.8627
14866SOL     OW50560   5.474  11.965   2.261  0.1685  0.0049  0.1153
14866SOL    HW150561   5.499  11.918   2.340  0.5762 -0.1192 -0.0855
14866SOL    HW250562   5.550  11.957   2.203 -1.2960 -2.6575 -1.5883
14867SOL     OW50563   8.419  10.089   0.299 -0.1750 -0.0274  0.6468
14867SOL    HW150564   8.456  10.036   0.229  0.9009 -0.1948  1.3119
14867SOL    HW250565   8.335  10.118   0.266  1.2703  1.8462 -1.6782
14868SOL     OW50566   0.401  10.149   4.320  0.2232  0.1044 -0.1148
14868SOL    HW150567   0.314  10.147   4.359  0.8392 -2.4937  1.3780
14868SOL    HW250568   0.389  10.195   4.237 -2.4982  0.0460  0.1508
14869SOL     OW50569   3.066   0.226   4.120 -0.6334 -0.0274 -0.0100
14869SOL    HW150570   3.070   0.186   4.207 -2.1803 -1.2303 -0.4467
14869SOL    HW250571   3.054   0.152   4.061 -0.5324  0.8629 -1.1686
14870SOL     OW50572   8.066   0.246   7.592  0.0701 -0.4117 -0.1548
14870SOL    HW150573   8.109   0.169   7.555 -1.0365 -0.1611 -2.1044
14870SOL    HW250574   8.107   0.320   7.548 -1.1951 -0.0979 -0.8661
14871SOL     OW50575   4.376   4.438   8.799  0.3448  0.2809 -0.2729
14871SOL    HW150576   4.384   4.533   8.800 -1.4333  0.4669 -0.5928
14871SOL    HW250577   4.419   4.409   8.880  1.3236  1.2989 -0.4146
14872SOL     OW50578   0.922   0.901  11.537 -0.4530  0.3218  0.0340
14872SOL    HW150579   0.898   0.916  11.445  1.4150  1.4901 -0.3178
14872SOL    HW250580   0.879   0.972  11.584  0.6249  1.2398 -0.3194
14873SOL     OW50581   9.703  10.340  10.203  0.3621  0.1057  0.3322
14873SOL    HW150582   9.688  10.382  10.288  1.3058 -0.7497  0.9374
14873SOL    HW250583   9.798  10.342  10.192  0.5323 -2.6072  0.7805
14874SOL     OW50584   7.541   0.667   3.077  0.1445 -0.2931  0.1644
14874SOL    HW150585   7.454   0.626   3.081 -0.3151  0.7037  0.6902
14874SOL    HW250586   7.525   0.755   3.043  1.0712 -0.3986 -0.5874
14875SOL     OW50587   5.096   9.458  10.481 -0.3723 -0.4766 -0.0617
14875SOL    HW150588   5.087   9.390  10.415  0.0441 -0.2916 -0.3119
14875SOL    HW250589   5.010   9.500  10.485  0.1978  1.0347 -2.1716
14876SOL     OW50590   6.119   5.877   3.945 -0.2206  0.7954  0.2599
14876SOL    HW150591   6.136   5.932   3.869  2.5683  0.5242  0.5817
14876SOL    HW250592   6.179   5.803   3.935  0.1092  0.6594  2.6228
14877SOL     OW50593   9.949  10.704  11.108 -0.2265  0.2775  0.0856
14877SOL    HW150594   9.987  10.722  11.194  1.7547 -1.7517 -0.2528
14877SOL    HW250595   9.958  10.786  11.059  0.2895  0.9268  1.2421
14878SOL     OW50596   4.822   1.026   6.782 -0.3504 -0.2071 -0.3267
14878SOL    HW150597   4.810   1.038   6.687  0.0616 -0.6178 -0.4347
14878SOL    HW250598   4.870   1.104   6.810 -1.8609  0.7005 -0.1606
14879SOL     OW50599  11.476   6.708   2.997  0.6146  0.1939 -0.0337
14879SOL    HW150600  11.418   6.704   2.921  1.3747  1.4383 -0.7149
14879SOL    HW250601  11.476   6.801   3.022  1.6930  0.0841  0.4268
14880SOL     OW50602   4.286   6.845   0.667 -0.3614  0.3999 -0.3038
14880SOL    HW150603   4.265   6.938   0.671  0.9718  0.7264 -0.6570
14880SOL    HW250604   4.348   6.831   0.739 -0.8281 -0.3104 -0.0142
14881SOL     OW50605   0.300   0.677   7.827 -0.2570 -0.7754  0.0685
14881SOL    HW150606   0.211   0.681   7.793  0.0305  0.2226 -0.6214
14881SOL    HW250607   0.298   0.607   7.892 -1.7784 -0.1296  0.7591
14882SOL     OW50608   6.526   5.089   0.048  0.1682 -0.6399  0.0197
14882SOL    HW150609   6.455   5.138   0.091  2.1151  2.1428  0.2898
14882SOL    HW250610   6.539   5.134  -0.036  1.9235 -0.7405  0.1995
14883SOL     OW50611   7.268   6.280   3.487  0.2384 -0.6633  0.3812
14883SOL    HW150612   7.341   6.316   3.438  0.4500 -2.7245 -0.9244
14883SOL    HW250613   7.281   6.314   3.576  0.6847  1.9365 -0.5645
14884SOL     OW50614  11.955   9.302   3.609  0.0985  0.4880  0.4562
14884SOL    HW150615  11.889   9.363   3.576  0.7186  0.7503 -0.3168
14884SOL    HW250616  11.904   9.227   3.639 -0.6907  1.4354  1.5762
14885SOL     OW50617   7.095   9.258  11.684 -0.1096 -0.3761 -0.1252
14885SOL    HW150618   7.110   9.219  11.770 -1.5988  0.5028  0.5698
14885SOL    HW250619   7.180   9.254  11.640  1.5373  2.0158  2.5443
14886SOL     OW50620   1.698   9.532   1.061  0.1076  0.0313 -0.5106
14886SOL    HW150621   1.780   9.571   1.033  0.8612 -0.7017  0.6055
14886SOL    HW250622   1.685   9.458   1.002 -0.2922  0.7357 -1.3326
14887SOL     OW50623  12.125   4.678   8.788 -0.0880  0.2545 -0.5138
14887SOL    HW150624  12.169   4.611   8.736 -0.2733  0.2603 -0.6792
14887SOL    HW250625  12.113   4.638   8.874 -0.2061  0.0724 -0.6150
14888SOL     OW50626   4.629   7.065   4.523  0.0290 -0.3659  0.2689
14888SOL    HW150627   4.703   7.035   4.575 -1.3232 -0.8753  1.9771
14888SOL    HW250628   4.640   7.160   4.518  1.0151 -0.4756  0.1147
14889SOL     OW50629  10.918   0.104   8.921 -0.1529 -0.4879 -0.5847
14889SOL    HW150630  10.862   0.179   8.902  1.1206  1.3931  2.4249
14889SOL    HW250631  10.858   0.036   8.952 -1.1830 -0.2526 -1.9852
14890SOL     OW50632   9.191  11.071   6.479 -0.7731 -0.3933 -0.0638
14890SOL    HW150633   9.228  10.983   6.486 -0.5057 -0.2186  0.8915
14890SOL    HW250634   9.105  11.063   6.520 -1.2910 -0.5028 -1.1450
14891SOL     OW50635  10.346  10.521   9.674  0.0222 -0.1584  0.1565
14891SOL    HW150636  10.377  10.437   9.638  0.6704 -0.3881  1.1891
14891SOL    HW250637  10.329  10.575   9.598  0.2880 -0.9938 -0.5162
14892SOL     OW50638   2.928   0.108   0.574 -0.0068 -0.8717  0.2671
14892SOL    HW150639   2.987   0.049   0.622  0.7202  0.3815  0.9650
14892SOL    HW250640   2.935   0.192   0.620 -0.9934 -0.2159 -0.7204
14893SOL     OW50641  10.779   5.889  10.464 -0.2521  0.2702 -0.2937
14893SOL    HW150642  10.759   5.796  10.450  0.7315 -0.0979  0.5553
14893SOL    HW250643  10.848   5.908  10.400  0.4435  0.0497  0.3701
14894SOL     OW50644  11.083   9.868   0.901 -0.4172  0.0711 -0.7954
14894SOL    HW150645  11.159   9.900   0.950 -0.7285  0.4430 -0.5520
14894SOL    HW250646  11.120   9.823   0.825  0.0452  0.2466 -0.6725
14895SOL     OW50647   2.042   8.921   9.792 -0.1635 -0.4918 -0.5530
14895SOL    HW150648   2.064   9.000   9.742 -0.0267 -0.9464 -1.2260
14895SOL    HW250649   2.088   8.932   9.875 -0.4265  0.2944 -0.5007
14896SOL     OW50650   3.369   2.151  10.366  0.0402 -0.2690 -0.0299
14896SOL    HW150651   3.375   2.114  10.278  0.0691  0.2046 -0.2316
14896SOL    HW250652   3.451   2.199  10.377 -0.3921  0.5273 -0.1488
14897SOL     OW50653   2.425   6.499   0.639 -0.4020  0.1375 -0.7337
14897SOL    HW150654   2.334   6.474   0.625 -0.2998 -0.8967  0.2735
14897SOL    HW250655   2.472   6.415   0.641  0.7080  0.6862 -2.0358
14898SOL     OW50656  10.032   9.187  10.266  0.2470 -0.5973  0.0424
14898SOL    HW150657  10.039   9.190  10.361  0.3519 -1.5031  0.0796
14898SOL    HW250658  10.065   9.271  10.236 -2.4560  0.8871  0.9289
14899SOL     OW50659   3.514   6.670   3.515  0.0009  0.2314 -0.3907
14899SOL    HW150660   3.451   6.634   3.452  0.0494 -0.3402 -0.1150
14899SOL    HW250661   3.550   6.593   3.559 -0.1203  0.6361  0.4267
14900SOL     OW50662   9.816   4.197   8.031 -0.0218  0.2944 -0.1486
14900SOL    HW150663   9.889   4.145   7.997  3.1514  1.7573  3.6798
14900SOL    HW250664   9.819   4.183   8.126 -1.5127  4.3554  0.6737
14901SOL     OW50665   0.651   6.636   3.785 -0.2091 -0.0854  0.6003
14901SOL    HW150666   0.659   6.568   3.718 -0.2465  0.8434 -0.3701
14901SOL    HW250667   0.585   6.601   3.846 -1.7359 -0.0951 -0.9554
14902SOL     OW50668   6.378   6.325  10.227 -0.2633  0.1610  0.0916
14902SOL    HW150669   6.337   6.242  10.202 -0.7005  0.0167  1.2274
14902SOL    HW250670   6.328   6.355  10.302  0.2991  1.1380  0.0896
14903SOL     OW50671  10.792   2.772   8.365 -0.0136 -0.0014  0.3933
14903SOL    HW150672  10.768   2.777   8.273 -2.1010  1.4395  0.9344
14903SOL    HW250673  10.851   2.846   8.379 -0.4389  0.3469  0.3803
14904SOL     OW50674   5.766   0.871   6.658 -0.2789 -0.6820 -0.6411
14904SOL    HW150675   5.804   0.877   6.746  2.2548 -3.0405 -1.4275
14904SOL    HW250676   5.796   0.950   6.613 -0.4022 -0.1637  0.1717
14905SOL     OW50677   9.905   7.475  10.547  0.1543  0.2435 -0.2009
14905SOL    HW150678   9.971   7.525  10.595 -0.1650 -0.0660  0.5792
14905SOL    HW250679   9.939   7.470  10.458  2.0540 -1.3957  0.5449
14906SOL     OW50680   0.482   2.719   9.336  0.1117  0.1966  0.5134
14906SOL    HW150681   0.418   2.789   9.319  0.4655  0.4174  0.0710
14906SOL    HW250682   0.429   2.646   9.368 -0.1377  1.0501  2.1810
14907SOL     OW50683   5.210   8.217   4.363  0.3768  0.7252 -0.3864
14907SOL    HW150684   5.247   8.169   4.437 -0.8004  1.0634  0.4417
14907SOL    HW250685   5.174   8.149   4.306  0.7075  0.5025 -0.3328
14908SOL     OW50686   8.797   1.807   1.148 -0.6746 -0.1747  0.5887
14908SOL    HW150687   8.750   1.890   1.138 -0.1120 -0.0370 -1.1643
14908SOL    HW250688   8.792   1.789   1.242 -1.9873  1.1367  0.8122
14909SOL     OW50689  10.415   6.093   3.624 -0.0081  0.4955  0.4633
14909SOL    HW150690  10.395   6.183   3.652  0.5362  0.7352  0.0917
14909SOL    HW250691  10.510   6.085   3.636 -0.2079 -0.4325  1.6319
14910SOL     OW50692   0.232   4.353   1.594  0.0869  0.4946  0.5555
14910SOL    HW150693   0.326   4.369   1.592  0.3409 -0.9754 -0.1786
14910SOL    HW250694   0.193   4.440   1.586  1.3872  0.8800 -3.6119
14911SOL     OW50695   5.980   0.404   0.897  0.2128  0.6743 -0.4540
14911SOL    HW150696   5.930   0.485   0.902 -1.3240 -0.0899 -2.1203
14911SOL    HW250697   6.071   0.431   0.905 -0.3499  2.3345  0.7902
14912SOL     OW50698   0.033   2.926   5.743 -0.2907 -0.0003 -0.3888
14912SOL    HW150699  -0.060   2.937   5.727 -0.7579 -2.3418  0.3729
14912SOL    HW250700   0.065   2.877   5.666 -0.1256 -0.9232  0.2476
14913SOL     OW50701   1.782   7.698   1.251  0.1268  0.6506 -0.0402
14913SOL    HW150702   1.830   7.692   1.168 -1.2139  0.2441 -0.8253
14913SOL    HW250703   1.712   7.760   1.234 -2.2692 -1.9643 -0.3775
14914SOL     OW50704   2.935   7.386   8.873  0.2023 -0.2162 -0.2864
14914SOL    HW150705   2.937   7.475   8.906  0.0144 -0.2761 -0.1072
14914SOL    HW250706   3.005   7.341   8.921  0.3219 -0.1552 -0.4045
14915SOL     OW50707   1.624  11.265   8.070 -0.0603  0.4005 -0.2415
14915SOL    HW150708   1.614  11.183   8.022  0.6122  0.1698 -0.0075
14915SOL    HW250709   1.670  11.323   8.009  0.5926  0.1813  0.0319
14916SOL     OW50710   9.867  12.258   9.014  0.1993 -0.4165  0.3468
14916SOL    HW150711   9.925  12.189   8.982  0.9020  0.3586 -0.0884
14916SOL    HW250712   9.850  12.313   8.937 -0.9420 -0.4966  0.5144
14917SOL     OW50713   4.537   9.871   5.328 -0.0931  0.0404  0.2277
14917SOL    HW150714   4.467   9.823   5.284  1.1142 -2.2988  0.6720
14917SOL    HW250715   4.555   9.944   5.269 -2.6538  0.5554 -0.0324
14918SOL     OW50716   5.279  10.012   2.423  0.1149 -0.0057  0.0673
14918SOL    HW150717   5.325   9.986   2.503  0.9260  0.0286 -0.3689
14918SOL    HW250718   5.227   9.936   2.399  1.3444 -0.7409 -0.3967
14919SOL     OW50719   5.046   4.072  11.842 -0.0249 -0.1901  0.3704
14919SOL    HW150720   4.976   4.007  11.842 -0.3998  0.1678 -1.0527
14919SOL    HW250721   5.073   4.079  11.933  0.5019 -2.8419  0.5038
14920SOL     OW50722   1.206  10.832   3.945 -0.1460 -0.0760 -0.2479
14920SOL    HW150723   1.113  10.810   3.938 -0.6720  2.1344 -0.6774
14920SOL    HW250724   1.237  10.780   4.020 -1.5417 -1.3163 -0.4865
14921SOL     OW50725   1.225   1.053   4.693 -0.1241  0.7638 -0.0296
14921SOL    HW150726   1.209   1.116   4.764 -0.3048  0.2202  0.4236
14921SOL    HW250727   1.138   1.023   4.669  0.0381 -0.5323  0.8972
14922SOL     OW50728   6.523   0.065   3.893  0.2165 -0.1068  0.0378
14922SOL    HW150729   6.473   0.023   3.823 -2.1076 -0.2895  1.6673
14922SOL    HW250730   6.513   0.159   3.876  1.2746 -0.1571 -0.9066
14923SOL     OW50731  10.319   5.989   9.865 -0.8064 -0.5883 -0.7430
14923SOL    HW150732  10.394   6.040   9.836 -0.7453 -0.7218 -0.8232
14923SOL    HW250733  10.280   6.041   9.935 -0.0593 -0.9769 -0.0208
14924SOL     OW50734   0.308   3.864   4.608 -0.3259  0.2904  0.3152
14924SOL    HW150735   0.353   3.801   4.552  0.9387  2.0354 -0.7354
14924SOL    HW250736   0.223   3.824   4.627  0.0755 -1.2972 -1.0452
14925SOL     OW50737   9.420   1.563   0.226  0.0078 -0.7159  0.1998
14925SOL    HW150738   9.348   1.603   0.176 -0.8891 -1.4331  0.8814
14925SOL    HW250739   9.496   1.571   0.168 -0.1922  1.6268  0.1628
14926SOL     OW50740   1.229   8.362   3.938 -0.0378  0.1244 -0.1887
14926SOL    HW150741   1.188   8.431   3.886 -0.4280 -0.8948 -1.2876
14926SOL    HW250742   1.169   8.349   4.011 -0.0015  0.8901 -0.0150
14927SOL     OW50743   9.537   4.676   4.612  0.1650  0.6155 -0.6274
14927SOL    HW150744   9.504   4.760   4.579 -1.1139  0.4354  0.1111
14927SOL    HW250745   9.500   4.611   4.553  2.0738  0.6165 -1.8764
14928SOL     OW50746   7.061   9.052   0.364 -0.0928 -0.0991 -0.2676
14928SOL    HW150747   6.977   9.012   0.341 -0.1373  0.0118 -0.3006
14928SOL    HW250748   7.054   9.070   0.458 -0.3977  0.5866 -0.4105
14929SOL     OW50749   1.806   5.026   6.766  0.3818 -0.2803  0.3272
14929SOL    HW150750   1.851   5.092   6.713 -2.7683  0.6147 -1.4848
14929SOL    HW250751   1.781   5.073   6.846 -0.3208  0.2303 -0.1860
14930SOL     OW50752   9.126   1.925   8.776  0.3247 -0.2492 -0.7209
14930SOL    HW150753   9.071   1.960   8.705 -1.5483 -0.3345  0.6187
14930SOL    HW250754   9.132   1.997   8.839  0.1387 -0.8748  0.0291
14931SOL     OW50755  10.580   3.906   2.219 -0.5625  0.1592 -0.3337
14931SOL    HW150756  10.636   3.842   2.263  1.0660  2.7051  1.5735
14931SOL    HW250757  10.603   3.898   2.126  0.4127 -1.2189 -0.0078
14932SOL     OW50758  12.415   7.555  12.363  0.9180  0.5318  0.0219
14932SOL    HW150759  12.379   7.643  12.365 -1.2673 -0.3292  1.9729
14932SOL    HW250760  12.458   7.544  12.448 -0.6319 -0.9319  0.6666
14933SOL     OW50761  12.083   5.146   7.301  0.7975  1.1242 -0.1797
14933SOL    HW150762  12.033   5.097   7.366  0.1003  1.6692 -0.2968
14933SOL    HW250763  12.135   5.208   7.353  0.3047  1.5022 -0.1355
14934SOL     OW50764   3.707   5.697   2.196  0.1334 -0.4550  0.4919
14934SOL    HW150765   3.760   5.762   2.242  0.9470 -0.5815 -0.2420
14934SOL    HW250766   3.654   5.749   2.136  2.6946 -0.5328 -2.0581
14935SOL     OW50767   6.769   1.565   9.370 -0.3221  0.3447 -0.7921
14935SOL    HW150768   6.758   1.637   9.432  4.0148  2.2257 -1.7497
14935SOL    HW250769   6.709   1.586   9.298 -1.3475  1.2920  0.3026
14936SOL     OW50770   9.249   4.812  10.203 -0.3148  0.3965 -0.1943
14936SOL    HW150771   9.280   4.814  10.293 -0.1317  1.5894 -0.2624
14936SOL    HW250772   9.217   4.901  10.186  3.3954  1.5444 -2.5416
14937SOL     OW50773  10.671   0.774   9.602 -0.2275 -0.3991  0.1394
14937SOL    HW150774  10.606   0.706   9.623 -0.4797 -0.4305 -0.7340
14937SOL    HW250775  10.742   0.758   9.664 -0.4278 -1.2545  0.1701
14938SOL     OW50776   5.092  10.524  11.824 -0.9101  0.1521 -0.3665
14938SOL    HW150777   5.049  10.593  11.774  0.9094  0.9960 -0.8469
14938SOL    HW250778   5.091  10.448  11.766 -0.4529  0.5968 -0.9706
14939SOL     OW50779   3.035   5.153   6.492  0.1957  0.0707 -0.2535
14939SOL    HW150780   3.112   5.135   6.546 -0.0965 -2.7938 -0.6407
14939SOL    HW250781   3.032   5.081   6.429 -1.7692  1.1205 -1.4770
14940SOL     OW50782   0.609   2.638   2.437  0.8487  0.0679 -0.4991
14940SOL    HW150783   0.554   2.663   2.363  0.7474  1.2258 -0.0680
14940SOL    HW250784   0.606   2.543   2.439 -1.7886  0.0761 -0.0142
14941SOL     OW50785   4.816   3.655   2.167 -0.2001 -0.2226 -0.1759
14941SOL    HW150786   4.857   3.633   2.083 -1.6967 -0.6418 -0.8411
14941SOL    HW250787   4.852   3.593   2.229  2.0859  1.0485 -0.1297
14942SOL     OW50788   8.559   8.238  12.206 -0.0816  0.1640  0.3927
14942SOL    HW150789   8.585   8.320  12.249 -1.0701  0.7702 -0.1593
14942SOL    HW250790   8.507   8.264  12.131  0.6811 -0.9343 -0.5669
14943SOL     OW50791   0.354   2.766   5.951  0.0701  0.1395  0.0545
14943SOL    HW150792   0.424   2.831   5.951 -0.8026  1.1171  0.9578
14943SOL    HW250793   0.362   2.721   5.867  2.5231 -0.6105  0.6246
14944SOL     OW50794   4.305   0.990   9.279 -0.2302 -0.1127 -0.0051
14944SOL    HW150795   4.362   0.955   9.346  0.6437  0.3996 -0.4636
14944SOL    HW250796   4.258   1.062   9.322 -1.2451 -1.1210  0.6322
14945SOL     OW50797   7.989   9.909   3.510  0.5677 -0.1267 -0.5096
14945SOL    HW150798   8.044   9.986   3.496  1.1956 -0.4051  0.3556
14945SOL    HW250799   7.900   9.941   3.497  0.7926  0.8390  0.2148
14946SOL     OW50800   2.664   1.574   5.003 -0.2268 -0.2224 -0.8638
14946SOL    HW150801   2.689   1.664   4.984  0.2044 -0.0437  0.4398
14946SOL    HW250802   2.572   1.568   4.977 -0.1448  0.4638 -1.3260
14947SOL     OW50803   2.832   3.143   2.285 -0.2237 -0.2705  0.3715
14947SOL    HW150804   2.799   3.126   2.373  0.2201  0.7323  0.7515
14947SOL    HW250805   2.853   3.057   2.250  1.1235 -0.6136  1.8683
14948SOL     OW50806   0.831   5.914   1.936  0.2220  0.0270 -0.4749
14948SOL    HW150807   0.896   5.855   1.973  0.8515  0.3390 -1.0796
14948SOL    HW250808   0.864   6.002   1.955 -0.8849  0.2277  0.7364
14949SOL     OW50809   1.573  10.971   5.155 -0.0403 -0.4061 -0.0347
14949SOL    HW150810   1.540  11.052   5.118 -1.8851 -0.9967  0.2126
14949SOL    HW250811   1.611  10.924   5.081  0.0521  0.1980 -0.3722
14950SOL     OW50812  11.417  11.724  11.049 -0.3833 -0.6443  0.5373
14950SOL    HW150813  11.335  11.764  11.076 -0.4299 -0.8457  0.7050
14950SOL    HW250814  11.485  11.782  11.084 -0.4523  0.3856 -0.9598
14951SOL     OW50815   3.883   3.027   2.355 -0.2994  0.0945  0.5164
14951SOL    HW150816   3.838   3.063   2.279 -0.9983  0.7200  1.2061
14951SOL    HW250817   3.815   2.983   2.405 -0.2220  1.2072  1.6674
14952SOL     OW50818   7.861   6.773   9.661 -0.2641  0.2767 -0.5616
14952SOL    HW150819   7.845   6.695   9.607 -0.4108  0.2123 -0.4265
14952SOL    HW250820   7.775   6.798   9.693 -0.0387 -0.4728  0.7164
14953SOL     OW50821   8.864   2.389   0.670 -0.0460  0.2499 -0.2049
14953SOL    HW150822   8.844   2.315   0.613 -1.4027  0.4838 -0.0729
14953SOL    HW250823   8.897   2.349   0.751 -1.7168 -0.3132  0.2511
14954SOL     OW50824   4.506   0.650   3.364 -0.0224 -0.4931  0.2440
14954SOL    HW150825   4.464   0.698   3.292  0.8672 -0.5576 -0.3265
14954SOL    HW250826   4.433   0.627   3.422 -0.6298  0.4589 -0.0997
14955SOL     OW50827   8.375  11.789   5.567  0.0571  0.3258  0.3580
14955SOL    HW150828   8.421  11.747   5.640 -0.4984 -1.2835 -0.1755
14955SOL    HW250829   8.424  11.761   5.489  0.8245  2.2601  0.0760
14956SOL     OW50830  10.905   0.774  12.474 -0.2613  1.0614 -0.1702
14956SOL    HW150831  10.898   0.767  12.569  3.7125 -0.6826  0.1850
14956SOL    HW250832  10.861   0.695  12.441 -0.0611  0.7377  0.3329
14957SOL     OW50833   1.328   2.296   2.020 -0.7934 -0.5041  0.3553
14957SOL    HW150834   1.321   2.303   1.925  0.6325  2.0279  0.3659
14957SOL    HW250835   1.320   2.202   2.037 -1.8261 -0.9543 -2.1708
14958SOL     OW50836   8.281   4.609   3.776  0.3961 -0.0085  0.2175
14958SOL    HW150837   8.185   4.619   3.771  0.1049 -2.0707  0.5037
14958SOL    HW250838   8.315   4.694   3.749 -1.5043  0.2969 -1.5294
14959SOL     OW50839   6.582   0.303   5.808 -0.1585 -0.6714  0.1224
14959SOL    HW150840   6.534   0.304   5.891  1.4160  1.8155  1.0802
14959SOL    HW250841   6.519   0.338   5.745 -0.0055  1.7143  1.1900
14960SOL     OW50842   7.641   0.749   3.612 -0.6283  0.4901 -0.0596
14960SOL    HW150843   7.731   0.731   3.585 -1.1012  1.1098 -2.2848
14960SOL    HW250844   7.626   0.840   3.586 -1.8299  0.4503  0.4390
14961SOL     OW50845   0.780   0.731   1.363  1.0178  0.0609  0.3960
14961SOL    HW150846   0.715   0.718   1.433  0.4801 -0.7258 -0.2160
14961SOL    HW250847   0.843   0.792   1.399  0.6125 -0.1365  1.4801
14962SOL     OW50848   4.277  10.337   6.849  0.2508  0.0247  0.0760
14962SOL    HW150849   4.216  10.410   6.840 -0.7207 -0.9510 -1.5212
14962SOL    HW250850   4.343  10.353   6.782  1.2561  0.5378  1.1404
14963SOL     OW50851   9.265  11.171   8.731  0.0353  0.1729  0.0049
14963SOL    HW150852   9.301  11.082   8.727  0.7028  0.4223  0.3107
14963SOL    HW250853   9.332  11.222   8.778 -1.7438  0.1447  2.8104
14964SOL     OW50854  11.806   5.851   6.187 -0.6443  0.0602  0.1977
14964SOL    HW150855  11.867   5.799   6.135 -0.4980  0.3279  0.1013
14964SOL    HW250856  11.842   5.939   6.185 -1.3524  0.3406 -0.3466
14965SOL     OW50857   6.349   8.082  10.778  0.2050 -0.4606  0.7403
14965SOL    HW150858   6.366   7.999  10.733  1.1433 -0.0038  0.1953
14965SOL    HW250859   6.268   8.114  10.739  1.3751  0.2767 -1.2402
14966SOL     OW50860   0.586   4.806   9.049 -0.0058  0.1070 -0.0091
14966SOL    HW150861   0.672   4.848   9.046 -0.2146  0.6281  0.8893
14966SOL    HW250862   0.527   4.868   9.006  0.0123 -0.1292 -0.3821
14967SOL     OW50863   5.802   7.183  12.305  0.1711  0.2027 -0.3945
14967SOL    HW150864   5.861   7.118  12.268 -1.7883 -0.8670 -1.8487
14967SOL    HW250865   5.740   7.132  12.358  1.3420  1.4348  2.3650
14968SOL     OW50866   5.618   3.617   4.570  0.2308  0.1070 -0.1109
14968SOL    HW150867   5.638   3.621   4.664 -0.6910 -0.6043  0.1414
14968SOL    HW250868   5.638   3.526   4.546 -2.3184 -0.6010  0.1186
14969SOL     OW50869   1.194   7.519  10.395 -0.0358 -0.1482  0.4791
14969SOL    HW150870   1.207   7.426  10.415  1.3434  0.1483  1.1029
14969SOL    HW250871   1.245   7.565  10.462  0.8091  1.0116 -0.9027
14970SOL     OW50872  10.728  10.579   0.960  0.0791 -0.1963  0.2904
14970SOL    HW150873  10.756  10.526   1.034 -0.1377 -0.7028  0.0119
14970SOL    HW250874  10.654  10.631   0.994  0.3661  0.0174  0.5937
14971SOL     OW50875   6.248   5.842   1.973  0.3590 -0.2903  0.0252
14971SOL    HW150876   6.207   5.836   1.887  0.4510  0.2515 -0.0605
14971SOL    HW250877   6.285   5.931   1.976  0.7081 -0.4470  0.4628
14972SOL     OW50878  10.140   4.280   2.390  0.0935  0.1255  0.5923
14972SOL    HW150879  10.141   4.350   2.324  0.7532 -0.4013  0.0287
14972SOL    HW250880  10.144   4.327   2.473 -0.9627  0.8058  0.2783
14973SOL     OW50881   1.165   3.296   1.367  0.6745  0.8934  0.3054
14973SOL    HW150882   1.186   3.357   1.438  0.3567  1.1742  0.1605
14973SOL    HW250883   1.221   3.324   1.294  1.8945 -0.1390  0.8012
14974SOL     OW50884   0.797   0.652  11.560 -0.4782 -0.0930  0.0032
14974SOL    HW150885   0.770   0.670  11.650 -3.6283  2.8444 -1.3391
14974SOL    HW250886   0.836   0.734  11.529  1.1801 -1.2574 -1.1756
14975SOL     OW50887   9.089   3.662   7.576  0.1533 -0.4022  0.1224
14975SOL    HW150888   9.164   3.629   7.526  0.6528 -0.4192  0.8637
14975SOL    HW250889   9.121   3.667   7.667 -0.7613 -0.4509  0.4536
14976SOL     OW50890   9.988   4.633   0.274 -0.2822 -0.4748  0.1010
14976SOL    HW150891  10.014   4.662   0.361  1.0930 -1.7235  0.1514
14976SOL    HW250892  10.041   4.685   0.214  0.7854 -1.4950  0.1284
14977SOL     OW50893   5.801   1.666   3.389  0.2740  0.2129  0.1913
14977SOL    HW150894   5.713   1.684   3.358  0.4988 -1.1814 -1.4118
14977SOL    HW250895   5.855   1.737   3.353 -0.0360  0.5708  0.4247
14978SOL     OW50896   4.261  11.901   5.677 -1.2571  0.2689  0.1645
14978SOL    HW150897   4.174  11.887   5.716 -1.6855  0.9736 -0.5097
14978SOL    HW250898   4.243  11.949   5.596 -0.2747 -0.0574 -0.2527
14979SOL     OW50899   5.738   2.054   3.991  0.1310 -0.1843 -0.0862
14979SOL    HW150900   5.817   2.055   4.047  0.1364  0.3853 -0.0962
14979SOL    HW250901   5.678   1.994   4.036  0.3863 -0.2409  0.1867
14980SOL     OW50902   0.907   5.168   7.903  0.7143 -0.6716  0.2784
14980SOL    HW150903   0.913   5.261   7.927 -1.2466 -0.0340 -1.4325
14980SOL    HW250904   0.915   5.167   7.808  0.6255 -2.2664  0.2647
14981SOL     OW50905   2.762   6.914   7.908  0.2253  0.2667 -0.0146
14981SOL    HW150906   2.723   6.845   7.961  1.1879  0.9009  1.6127
14981SOL    HW250907   2.716   6.910   7.824 -0.9426 -1.1751  0.6593
14982SOL     OW50908   6.979   3.719   7.381  0.0206 -0.0404 -0.4519
14982SOL    HW150909   7.015   3.720   7.470  1.7964 -0.8982 -1.1024
14982SOL    HW250910   7.054   3.739   7.325 -0.9498 -0.0228 -1.7970
14983SOL     OW50911   3.414   5.455   8.752 -0.3013  0.9035  0.8504
14983SOL    HW150912   3.473   5.385   8.780  2.1002  2.0817 -0.9620
14983SOL    HW250913   3.354   5.412   8.690  0.8605  0.3264  0.0915
14984SOL     OW50914  10.600  10.544  11.139 -0.2112  0.0288  0.0182
14984SOL    HW150915  10.678  10.599  11.149 -0.7628  0.6477  1.1134
14984SOL    HW250916  10.588  10.504  11.225  0.0163 -1.6383 -0.6805
14985SOL     OW50917   5.014   0.354   3.763  0.7945 -0.4637  0.0337
14985SOL    HW150918   5.094   0.394   3.730  1.8129 -2.0281  0.5118
14985SOL    HW250919   4.968   0.425   3.808  1.6087  0.5922 -0.7590
14986SOL     OW50920   9.302  10.420  11.556 -0.1012  0.6434 -0.1567
14986SOL    HW150921   9.321  10.494  11.614  1.3083  1.0129 -1.0324
14986SOL    HW250922   9.352  10.439  11.476  1.4068 -1.9233  0.0868
14987SOL     OW50923   0.899   2.273   7.334  0.4160 -0.1677 -0.0601
14987SOL    HW150924   0.935   2.206   7.276 -0.6658  1.3300 -2.6001
14987SOL    HW250925   0.973   2.332   7.350  0.3568  0.2150 -1.1588
14988SOL     OW50926  11.180   1.832   1.479 -0.4605 -0.4010  0.2439
14988SOL    HW150927  11.133   1.901   1.528 -0.7684 -0.5640  0.1796
14988SOL    HW250928  11.191   1.869   1.392  0.2966 -0.0142  0.4931
14989SOL     OW50929  11.091   4.499  10.990  0.3816 -0.7941  0.7885
14989SOL    HW150930  11.008   4.452  11.001  0.2206 -0.5128  0.7735
14989SOL    HW250931  11.078   4.583  11.034  0.0486 -0.0332 -0.6887
14990SOL     OW50932  10.584  11.950   9.278  0.1262  0.0927 -0.2828
14990SOL    HW150933  10.598  11.955   9.184  0.2823  0.5291 -0.2394
14990SOL    HW250934  10.604  12.038   9.310  2.5280 -0.6729  0.4890
14991SOL     OW50935   9.132   9.930   8.824 -0.4509  0.3012 -0.2641
14991SOL    HW150936   9.086   9.856   8.865  2.4726 -0.8647  1.2240
14991SOL    HW250937   9.132   9.998   8.892  1.1936 -0.2559  0.3355
14992SOL     OW50938   4.458   9.052   1.470 -0.0871  0.0743  0.4771
14992SOL    HW150939   4.529   8.994   1.443  0.2352  0.3323  0.7514
14992SOL    HW250940   4.401   9.059   1.393 -0.7618 -1.5168  0.7897
14993SOL     OW50941   5.303   4.668   3.086  0.2487 -0.2009 -0.0812
14993SOL    HW150942   5.231   4.607   3.072 -0.8329  1.0233 -0.1239
14993SOL    HW250943   5.373   4.615   3.124 -0.7176 -1.4051  0.0841
14994SOL     OW50944   9.109   7.061   3.167 -0.2255  0.2969 -0.4351
14994SOL    HW150945   9.021   7.093   3.148 -0.5071  0.4104  0.9862
14994SOL    HW250946   9.123   6.990   3.104 -1.0851  0.6785 -1.0733
14995SOL     OW50947  10.359  10.442   4.288  0.2072 -0.0074 -0.1711
14995SOL    HW150948  10.382  10.351   4.272  0.6261 -0.2541  1.6637
14995SOL    HW250949  10.408  10.466   4.367 -1.8653  1.0350  0.8638
14996SOL     OW50950   5.046   3.774  11.807 -0.1493 -0.4682  0.3372
14996SOL    HW150951   5.113   3.842  11.794 -0.7517  0.0441 -0.1387
14996SOL    HW250952   5.035   3.735  11.720 -0.7086 -0.3194  0.3378
14997SOL     OW50953   3.636  10.306  10.856 -0.4703 -0.6511 -0.2851
14997SOL    HW150954   3.603  10.393  10.833  0.0615 -0.7637 -1.5783
14997SOL    HW250955   3.671  10.316  10.944 -0.8495  0.3285 -0.2369
14998SOL     OW50956   1.160  10.097   4.521 -0.0732  0.3081 -0.3613
14998SOL    HW150957   1.076  10.078   4.480 -0.1397 -0.1499 -0.0222
14998SOL    HW250958   1.225  10.077   4.454 -0.1800 -0.4568 -0.2449
14999SOL     OW50959   1.025  10.822   1.400 -0.4069 -0.5242  0.5634
14999SOL    HW150960   0.995  10.753   1.341  0.6609  0.8398 -1.7184
14999SOL    HW250961   0.961  10.892   1.390  1.0424  0.6877 -1.0116
15000SOL     OW50962   7.984  11.664   1.779 -0.1149  0.2645  0.3018
15000SOL    HW150963   7.991  11.731   1.711  1.8426  0.4713  0.6472
15000SOL    HW250964   7.913  11.606   1.749 -0.4681  1.3325 -1.0108
15001SOL     OW50965   5.425  11.520   6.591  0.4225 -0.0691 -0.0346
15001SOL    HW150966   5.473  11.450   6.635 -1.3090 -1.9086 -0.8975
15001SOL    HW250967   5.416  11.588   6.657  0.7017 -1.3725  1.4188
15002SOL     OW50968   0.869   4.148   7.470  0.0400  0.2255  0.1187
15002SOL    HW150969   0.785   4.136   7.426  0.0970  1.3625 -0.3195
15002SOL    HW250970   0.848   4.151   7.563 -0.5488  1.6086 -0.0402
15003SOL     OW50971   1.435   2.073   8.264  0.6365  0.0125  0.1318
15003SOL    HW150972   1.442   2.001   8.201  1.4761 -2.2844  2.6416
15003SOL    HW250973   1.524   2.082   8.299  0.0453  0.6041  1.5463
15004SOL     OW50974   6.328   9.160  10.120 -0.0076 -0.3574 -0.0491
15004SOL    HW150975   6.306   9.235  10.176 -0.7612 -0.0405 -0.7429
15004SOL    HW250976   6.289   9.085  10.165  1.9391 -0.5804  1.3735
15005SOL     OW50977   0.650   6.909   9.786  0.3131 -0.3208  0.5268
15005SOL    HW150978   0.656   6.823   9.828 -0.1640 -1.3257 -1.3171
15005SOL    HW250979   0.741   6.933   9.767  0.3975 -0.8411  0.2577
15006SOL     OW50980  10.403  11.555   7.284 -0.2505 -0.1388  0.5428
15006SOL    HW150981  10.337  11.489   7.262 -1.0417  0.1148  2.0225
15006SOL    HW250982  10.484  11.505   7.294 -0.6473 -0.7641  0.7138
15007SOL     OW50983  12.241   8.788  10.524  0.4397 -0.5854 -0.4022
15007SOL    HW150984  12.246   8.793  10.620 -0.2343  0.1432 -0.3899
15007SOL    HW250985  12.182   8.715  10.507 -2.1019  1.2771 -0.1460
15008SOL     OW50986   8.923   6.451   2.641 -0.2306  0.1859 -0.5508
15008SOL    HW150987   8.977   6.496   2.706  0.1055  0.3830 -0.9634
15008SOL    HW250988   8.986   6.402   2.588 -0.6437 -1.8267  0.6637
15009SOL     OW50989   4.550   1.624   0.772 -0.2462 -1.0001 -0.0811
15009SOL    HW150990   4.496   1.553   0.807  0.0534 -1.2600 -0.1443
15009SOL    HW250991   4.623   1.580   0.729  0.3295 -0.6398  0.5091
15010SOL     OW50992   8.183  12.096   3.677  0.0171 -0.5597 -0.0581
15010SOL    HW150993   8.142  12.063   3.597 -0.6137 -1.4167  0.5979
15010SOL    HW250994   8.149  12.185   3.686 -1.6572 -1.2221  0.4228
15011SOL     OW50995   2.026   6.134   4.352  0.1357 -0.0570  0.0616
15011SOL    HW150996   2.003   6.078   4.427 -1.2193  0.9227  0.3978
15011SOL    HW250997   2.109   6.175   4.378  0.8944 -1.4876  0.0176
15012SOL     OW50998   2.842   3.030   4.667 -0.0272  0.1339  0.5197
15012SOL    HW150999   2.792   3.053   4.589 -0.0039 -0.5270  0.2974
15012SOL    HW251000   2.926   2.997   4.632 -0.0823 -0.3267  0.8099
15013SOL     OW51001   7.107   4.909   9.784 -0.0433 -0.1146  0.1554
15013SOL    HW151002   7.158   4.835   9.817  0.8956  0.1022 -0.7400
15013SOL    HW251003   7.032   4.869   9.740 -0.9900 -0.4203  1.9658
15014SOL     OW51004  11.226   2.600   3.285  0.2852  0.3385 -1.1552
15014SOL    HW151005  11.133   2.618   3.297  0.5985  1.2524  0.0952
15014SOL    HW251006  11.263   2.605   3.374  1.1619 -2.2942 -1.2623
15015SOL     OW51007   3.778   1.095  11.109  0.4993 -0.1675  0.0220
15015SOL    HW151008   3.687   1.082  11.084  0.5329  0.0429 -0.2204
15015SOL    HW251009   3.788   1.190  11.118  0.8399 -0.1424 -0.5443
15016SOL     OW51010   7.890   4.240   0.234  0.2199 -0.5104 -0.7775
15016SOL    HW151011   7.890   4.149   0.263 -0.7524 -0.3742 -0.2830
15016SOL    HW251012   7.841   4.239   0.152 -2.0529 -0.1235  0.4760
15017SOL     OW51013   8.608   3.067   1.190 -0.0782  0.0510  0.1759
15017SOL    HW151014   8.649   2.990   1.229 -0.5210  1.2301  3.2518
15017SOL    HW251015   8.517   3.042   1.176 -0.9261  0.6343  3.6724
15018SOL     OW51016   2.516   8.795   2.917 -0.1698 -0.5116  0.1406
15018SOL    HW151017   2.501   8.765   2.828 -0.1563  1.4861 -0.5716
15018SOL    HW251018   2.429   8.794   2.958 -0.1706 -1.4503  0.1375
15019SOL     OW51019   0.493   1.699   8.025 -0.1075 -0.1812  0.0280
15019SOL    HW151020   0.551   1.626   8.003  0.1485 -0.0845  0.3680
15019SOL    HW251021   0.413   1.682   7.976  0.0813 -0.5020 -0.1717
15020SOL     OW51022   0.635   6.920   7.203  0.3174  0.4515 -0.0029
15020SOL    HW151023   0.611   6.934   7.295 -1.6226 -1.1255 -0.2260
15020SOL    HW251024   0.646   7.009   7.168 -4.2337  1.4547  0.4591
15021SOL     OW51025  10.220   9.962   4.090 -0.4823 -0.0362  0.6380
15021SOL    HW151026  10.220   9.950   4.185  0.5911  1.1135  0.8252
15021SOL    HW251027  10.134   9.999   4.070  0.0185  1.7126  1.5005
15022SOL     OW51028   4.115   3.101  10.981 -0.6779  0.1336 -0.3910
15022SOL    HW151029   4.115   3.186  11.024  0.4909  0.8821 -1.8261
15022SOL    HW251030   4.074   3.042  11.046  1.1668  1.1502  1.8413
15023SOL     OW51031   5.190   3.130  12.388  0.4006 -0.3355 -0.4672
15023SOL    HW151032   5.234   3.167  12.311 -0.6965 -0.2868 -1.1004
15023SOL    HW251033   5.109   3.092  12.352  0.2170 -0.9452  0.5675
15024SOL     OW51034  12.048   0.940   2.785 -0.7214 -0.3031  0.1274
15024SOL    HW151035  12.104   1.011   2.815 -1.9556  0.3680  0.9453
15024SOL    HW251036  12.082   0.917   2.698 -0.8038  1.8934 -0.5435
15025SOL     OW51037  12.267   9.341   6.666 -0.9660 -0.1835 -0.9515
15025SOL    HW151038  12.278   9.280   6.594 -0.1962  0.3962 -1.3504
15025SOL    HW251039  12.265   9.427   6.624  0.4461  0.2354 -0.2405
15026SOL     OW51040   6.384  10.162   7.414 -0.6323 -0.2314 -0.0313
15026SOL    HW151041   6.349  10.232   7.360  0.1180 -0.6958 -1.1450
15026SOL    HW251042   6.357  10.081   7.371  1.1133 -0.6017 -0.5012
15027SOL     OW51043   2.541   4.142   1.050  0.2476  0.3939 -0.0426
15027SOL    HW151044   2.456   4.130   1.008 -0.1028  0.2386  0.6873
15027SOL    HW251045   2.605   4.119   0.983 -0.2885  0.3292 -0.5406
15028SOL     OW51046   2.939   6.762   3.420 -0.1005  0.5494 -0.2670
15028SOL    HW151047   2.897   6.761   3.335  0.0553  0.0605 -0.3389
15028SOL    HW251048   2.951   6.855   3.439 -0.9559  0.6868 -0.3635
15029SOL     OW51049   9.395   5.040   4.862 -0.2649 -0.6484  0.3169
15029SOL    HW151050   9.344   5.033   4.781  0.8972 -0.7150 -0.4316
15029SOL    HW251051   9.391   4.952   4.900 -0.1108 -0.8438 -0.1117
15030SOL     OW51052   0.639   3.629  10.046  0.0930  0.4944  0.0015
15030SOL    HW151053   0.633   3.617  10.141 -0.2501  0.9400  0.0384
15030SOL    HW251054   0.721   3.586  10.021  0.7287  1.3111  0.6505
15031SOL     OW51055   7.661   7.823  10.177 -0.4471 -0.0634 -0.1695
15031SOL    HW151056   7.678   7.729  10.164  0.0625 -0.1856  1.2087
15031SOL    HW251057   7.608   7.848  10.102 -0.8076 -1.5215 -0.4353
15032SOL     OW51058   0.237   1.693   6.755  0.2881 -0.4765  0.3355
15032SOL    HW151059   0.253   1.671   6.664 -0.3245  0.3474  0.0170
15032SOL    HW251060   0.269   1.782   6.765 -1.9199  0.3816  0.2538
15033SOL     OW51061   2.676   7.030   9.318  0.0204 -0.2746 -0.1410
15033SOL    HW151062   2.741   7.062   9.380 -0.1667 -0.9072  0.3875
15033SOL    HW251063   2.636   7.109   9.282  0.2235  0.0960  0.4453
15034SOL     OW51064   0.570   1.228   0.236 -0.1412 -0.0856 -0.3987
15034SOL    HW151065   0.521   1.218   0.155 -1.9852  1.9688  0.3636
15034SOL    HW251066   0.503   1.244   0.303  1.3516 -0.9998  1.4382
15035SOL     OW51067   1.215   0.036  12.337 -0.5127  0.3572 -0.0160
15035SOL    HW151068   1.244  -0.055  12.335 -0.6691  0.3118 -0.3741
15035SOL    HW251069   1.147   0.040  12.269  0.5082  1.0829 -1.0193
15036SOL     OW51070   3.990  12.140   3.969  0.0294  0.4691 -0.1574
15036SOL    HW151071   4.080  12.119   3.993 -0.0806  1.1424  0.9195
15036SOL    HW251072   3.998  12.204   3.898  0.4335  1.5467  0.8331
15037SOL     OW51073   5.384   4.834   8.455 -0.3083 -0.3094  0.3904
15037SOL    HW151074   5.374   4.746   8.492 -1.9170 -0.6678 -0.8095
15037SOL    HW251075   5.328   4.835   8.378  0.7733  1.3332 -0.4500
15038SOL     OW51076  11.367   5.168  10.905  0.1956  0.2087 -0.0719
15038SOL    HW151077  11.386   5.074  10.896 -0.4120  0.1103 -0.4241
15038SOL    HW251078  11.276   5.176  10.876 -0.1552  0.7252  1.1308
15039SOL     OW51079   4.615   8.346   0.288 -0.4646 -0.4320 -0.4817
15039SOL    HW151080   4.607   8.375   0.379 -2.1004 -1.1918 -0.3554
15039SOL    HW251081   4.710   8.340   0.274 -0.0599  2.5261  0.2222
15040SOL     OW51082   5.494   3.759  10.704  0.2834  0.6862  0.2552
15040SOL    HW151083   5.582   3.734  10.731  0.3783 -1.2028 -1.5279
15040SOL    HW251084   5.507   3.817  10.629 -0.0063  1.8188  1.0587
15041SOL     OW51085   3.065   6.118   3.080  0.3565 -1.1564  0.5878
15041SOL    HW151086   3.042   6.210   3.094 -1.4001 -1.3274 -0.8238
15041SOL    HW251087   3.160   6.117   3.080  0.4106  0.5307  1.4149
15042SOL     OW51088  10.065   2.518   2.097  0.0200 -0.1099 -0.0921
15042SOL    HW151089  10.114   2.585   2.050 -0.1404 -0.6747 -1.0907
15042SOL    HW251090  10.001   2.566   2.148 -0.5646  0.4724 -1.3334
15043SOL     OW51091   3.268   7.676   1.950 -0.7784 -0.7997 -0.4890
15043SOL    HW151092   3.253   7.593   1.995 -0.5865 -1.4069 -1.5194
15043SOL    HW251093   3.239   7.661   1.860  1.3323 -0.4708 -1.2823
15044SOL     OW51094  11.729   2.195   4.275  0.0799 -0.6624 -0.4035
15044SOL    HW151095  11.762   2.188   4.365 -1.1615  0.1537  0.1439
15044SOL    HW251096  11.808   2.200   4.221  0.8493 -1.9516  0.5539
15045SOL     OW51097  12.201   0.232   3.275 -0.5105  0.5495  0.1280
15045SOL    HW151098  12.146   0.309   3.288 -2.4255 -0.9216  1.2415
15045SOL    HW251099  12.254   0.226   3.355  0.8340  1.5830 -0.6542
15046SOL     OW51100   6.805   9.345   0.126 -0.2032  0.8788 -0.4548
15046SOL    HW151101   6.808   9.418   0.064 -0.0305  0.8431 -0.4891
15046SOL    HW251102   6.792   9.268   0.072  1.4488  0.6650 -0.5985
15047SOL     OW51103   8.003   8.771   9.029  0.7096 -0.3277 -0.2694
15047SOL    HW151104   8.075   8.793   9.088  0.6092 -0.1341 -0.2170
15047SOL    HW251105   7.958   8.854   9.014 -1.8787 -0.9627  2.8573
15048SOL     OW51106   2.805   4.469   3.899 -0.0855 -0.6468 -0.3156
15048SOL    HW151107   2.811   4.382   3.939  0.9022  0.2441  1.5435
15048SOL    HW251108   2.845   4.457   3.812  1.2175 -1.7817  0.3960
15049SOL     OW51109   2.520  11.826   0.571 -0.4184 -0.0908 -0.2974
15049SOL    HW151110   2.511  11.921   0.564 -0.5623 -0.2450 -3.4650
15049SOL    HW251111   2.588  11.813   0.637  0.2620  2.2325 -0.4705
15050SOL     OW51112   3.856  12.434  11.235  0.1577 -0.6865  0.4580
15050SOL    HW151113   3.800  12.458  11.161  0.1025  2.3216  1.3362
15050SOL    HW251114   3.873  12.341  11.223 -1.4932 -0.7517 -2.2063
15051SOL     OW51115   7.583   5.946   7.383  0.2206  0.3165 -0.4631
15051SOL    HW151116   7.582   5.881   7.453  0.8891  0.4182 -0.3538
15051SOL    HW251117   7.673   5.945   7.351  0.2551  1.2420 -0.4156
15052SOL     OW51118   2.213   9.008  10.640 -0.3019 -0.6834  0.4265
15052SOL    HW151119   2.138   9.047  10.596  0.8420  0.2506 -0.8104
15052SOL    HW251120   2.243   8.939  10.580  0.7752  0.0354  0.1013
15053SOL     OW51121   8.786   8.336   5.389 -0.5208  0.2797  0.5653
15053SOL    HW151122   8.819   8.253   5.421 -0.8396  0.1490  0.5552
15053SOL    HW251123   8.816   8.341   5.298  2.0349  1.5034  1.3628
15054SOL     OW51124   3.646   3.372   7.323  0.4712 -0.5174  0.1287
15054SOL    HW151125   3.618   3.462   7.343 -0.2360 -0.9844  1.4271
15054SOL    HW251126   3.738   3.380   7.298  0.8060  0.4483  1.5156
15055SOL     OW51127   0.455   0.670   3.682  0.5589  0.1330  0.1219
15055SOL    HW151128   0.423   0.687   3.771 -0.6247  0.9633 -0.4308
15055SOL    HW251129   0.377   0.673   3.627  1.1554 -1.1855 -0.8637
15056SOL     OW51130   4.429   1.335  12.013  0.5885 -0.1385 -0.0152
15056SOL    HW151131   4.399   1.387  11.939 -1.7735 -0.2322  0.7841
15056SOL    HW251132   4.517   1.305  11.988  0.0576  0.2100 -2.5561
15057SOL     OW51133  10.826   7.637   4.811  0.1816  0.8065  0.3328
15057SOL    HW151134  10.846   7.716   4.861  1.1914 -1.2698  3.5301
15057SOL    HW251135  10.900   7.579   4.830 -0.5398 -0.9576 -1.8863
15058SOL     OW51136   4.028  11.963   0.586  0.2539  0.8151 -0.0882
15058SOL    HW151137   4.106  11.940   0.536  0.6042  0.8225  0.4575
15058SOL    HW251138   4.018  11.894   0.651 -2.7226 -1.7087 -2.8718
15059SOL     OW51139   2.007   2.701   6.958 -0.2385  0.3984  0.1027
15059SOL    HW151140   2.049   2.623   6.921  0.4759 -0.1709  1.9896
15059SOL    HW251141   1.914   2.681   6.956 -0.0227 -1.0564  1.5704
15060SOL     OW51142  10.786   8.042   5.616 -0.0388 -0.3768  0.2054
15060SOL    HW151143  10.710   7.996   5.579  0.4887 -0.7156 -0.4775
15060SOL    HW251144  10.786   8.127   5.571  1.0504 -1.0741 -1.2096
15061SOL     OW51145   3.254   3.798   0.272 -0.3079  0.2836  0.4135
15061SOL    HW151146   3.169   3.837   0.296 -0.4012 -0.0442  0.6191
15061SOL    HW251147   3.306   3.873   0.243 -0.6383  0.5019  0.3688
15062SOL     OW51148   0.765   6.908   2.612  0.0108  0.3073  0.0591
15062SOL    HW151149   0.779   6.854   2.690  2.2269 -1.8193 -1.6362
15062SOL    HW251150   0.853   6.918   2.573 -1.0959  0.3808 -2.6843
15063SOL     OW51151   1.699   2.783  11.921 -0.1735  0.7932 -0.6698
15063SOL    HW151152   1.626   2.821  11.968  0.5372 -0.0479  1.2121
15063SOL    HW251153   1.769   2.776  11.986  1.2257  0.5493 -2.1200
15064SOL     OW51154   6.506   1.330   4.079 -0.4353  0.6412 -0.2043
15064SOL    HW151155   6.481   1.404   4.022 -1.2373  1.6503  1.3764
15064SOL    HW251156   6.436   1.326   4.144  0.4042 -0.5560  0.6502
15065SOL     OW51157  11.059  12.285   5.194 -0.7608 -0.2335  0.1727
15065SOL    HW151158  11.031  12.193   5.193  0.9281 -0.7889 -0.5383
15065SOL    HW251159  11.112  12.293   5.274  1.6317 -0.7784 -1.2431
15066SOL     OW51160   9.986   1.306   3.631 -0.2196  0.0008  0.1002
15066SOL    HW151161  10.007   1.321   3.723  0.9002 -4.3526  0.7494
15066SOL    HW251162   9.891   1.297   3.630 -0.2199 -0.1651  0.8729
15067SOL     OW51163   1.744  10.170   9.200 -0.3879  0.0336  0.5514
15067SOL    HW151164   1.672  10.205   9.147 -0.3569  0.6654  0.9181
15067SOL    HW251165   1.793  10.247   9.228  1.6742 -0.4646 -1.3921
15068SOL     OW51166   3.009  11.416   9.936 -0.2017  0.1967 -0.0014
15068SOL    HW151167   2.981  11.365   9.859  1.3021  0.0922 -0.5137
15068SOL    HW251168   3.045  11.497   9.899 -0.1639  0.4748  0.6409
15069SOL     OW51169  12.094   9.978   2.057  0.3175  0.2584  0.4080
15069SOL    HW151170  12.098   9.888   2.088 -2.3341 -0.3010 -0.5482
15069SOL    HW251171  12.132  10.030   2.127  1.6436 -1.5650  1.1024
15070SOL     OW51172   7.588  10.596   3.897  0.0493 -0.1776  0.4598
15070SOL    HW151173   7.516  10.533   3.907 -0.3023  0.2055  0.3994
15070SOL    HW251174   7.667  10.544   3.907 -0.2263 -0.7257 -0.1493
15071SOL     OW51175   8.996   2.121  11.430 -0.6692 -0.2744  0.3539
15071SOL    HW151176   9.071   2.116  11.370 -0.4061  0.6344  0.5813
15071SOL    HW251177   8.934   2.056  11.397 -0.9600  0.8549 -1.5076
15072SOL     OW51178   0.355  11.487   8.009  0.3616  0.3044  0.2526
15072SOL    HW151179   0.393  11.461   7.925 -0.6209 -2.4281  0.5479
15072SOL    HW251180   0.430  11.504   8.066  1.1650 -2.0429 -0.0047
15073SOL     OW51181  12.297   7.500   8.243 -0.5039  0.4935 -0.2525
15073SOL    HW151182  12.287   7.472   8.334 -0.7232 -0.5995 -0.5959
15073SOL    HW251183  12.295   7.595   8.247 -2.6101  0.4562  0.6669
15074SOL     OW51184   9.844   3.007  12.186  0.0911 -0.5030  0.1048
15074SOL    HW151185   9.935   3.009  12.213  0.8242  0.2482 -2.1895
15074SOL    HW251186   9.829   2.916  12.160  0.3504 -0.5055 -0.0373
15075SOL     OW51187   9.144   3.462   1.745 -0.1442  0.5191 -0.0174
15075SOL    HW151188   9.238   3.468   1.724 -0.1968  0.3184 -0.3099
15075SOL    HW251189   9.139   3.400   1.818 -0.2219 -0.8668 -1.1737
15076SOL     OW51190  11.013   2.070  11.764 -0.4841 -0.6445 -0.1516
15076SOL    HW151191  11.045   2.117  11.841  0.2634 -0.8239 -0.3423
15076SOL    HW251192  10.924   2.104  11.751 -0.3491 -0.0687  0.3457
15077SOL     OW51193  10.127   2.123   4.633 -0.2225  0.7201  0.8664
15077SOL    HW151194  10.080   2.047   4.666 -1.0951 -0.4867 -2.7796
15077SOL    HW251195  10.189   2.088   4.569  0.0508  2.9603 -0.2250
15078SOL     OW51196   2.950   6.800   1.718  0.1751 -0.2936  0.3884
15078SOL    HW151197   2.889   6.750   1.772  0.8848 -0.5854  0.9356
15078SOL    HW251198   2.938   6.891   1.746  0.5577 -0.4453  1.0639
15079SOL     OW51199   1.549  11.550   5.310 -0.0252 -0.6464  0.0767
15079SOL    HW151200   1.622  11.540   5.248 -0.5598 -1.7551 -0.3968
15079SOL    HW251201   1.585  11.605   5.380  0.9783 -0.4086 -0.5998
15080SOL     OW51202   5.394   0.134   5.426 -0.6334 -0.3436  0.1468
15080SOL    HW151203   5.336   0.100   5.494  2.5263 -1.9223  2.3180
15080SOL    HW251204   5.371   0.084   5.347 -0.1293 -3.4291  1.7918
15081SOL     OW51205  12.136   7.021   8.571 -0.0985  0.3218 -0.6014
15081SOL    HW151206  12.159   7.020   8.664 -1.7849 -1.2907 -0.1436
15081SOL    HW251207  12.216   7.050   8.527  0.4887  1.9161  1.3880
15082SOL     OW51208  11.108   8.343   0.749  0.1423  0.1547  0.2412
15082SOL    HW151209  11.155   8.264   0.775 -1.6913 -0.9452  0.3997
15082SOL    HW251210  11.148   8.368   0.665  1.8898  0.0898  1.0131
15083SOL     OW51211   4.115   8.172  11.434  0.6234 -0.6809  0.0612
15083SOL    HW151212   4.153   8.247  11.388 -0.2692 -1.0333 -1.3286
15083SOL    HW251213   4.191   8.123  11.467  1.3192 -0.3440 -0.9591
15084SOL     OW51214  11.617  11.227   8.276 -0.4352 -0.2096 -0.7968
15084SOL    HW151215  11.630  11.178   8.356  0.1734  3.0240  1.2682
15084SOL    HW251216  11.521  11.233   8.267 -0.5151  0.0684  0.1581
15085SOL     OW51217   9.878   6.701  12.453 -0.0126 -0.8058 -0.4372
15085SOL    HW151218   9.941   6.742  12.394  0.0974 -1.1756 -0.5754
15085SOL    HW251219   9.822   6.647  12.397  0.4851 -1.6494 -0.1379
15086SOL     OW51220  10.329  12.390   9.130  0.1315 -0.4638 -0.0812
15086SOL    HW151221  10.304  12.379   9.222 -0.8248 -0.5629 -0.3532
15086SOL    HW251222  10.262  12.344   9.080 -1.1888  2.2961 -1.0130
15087SOL     OW51223  10.223   6.714   5.576 -0.6950  0.5401  0.3044
15087SOL    HW151224  10.166   6.791   5.572 -1.1188  0.1823 -0.7496
15087SOL    HW251225  10.308   6.749   5.604 -1.1632  1.2176  0.9326
15088SOL     OW51226   1.227  12.113   9.562  0.0011  0.0369 -0.8353
15088SOL    HW151227   1.317  12.109   9.530 -0.0506 -2.4202 -0.8468
15088SOL    HW251228   1.210  12.207   9.574  2.6840  0.5563 -0.4414
15089SOL     OW51229  10.856   9.065  10.733 -0.0149 -0.2504 -0.5499
15089SOL    HW151230  10.825   9.017  10.809  1.4039  1.8650  1.4890
15089SOL    HW251231  10.793   9.137  10.722  1.2148  1.0371  0.4065
15090SOL     OW51232   0.792  11.738   1.572  0.5724  1.1316  0.6977
15090SOL    HW151233   0.727  11.685   1.525 -0.9710  2.2352  1.4743
15090SOL    HW251234   0.862  11.752   1.509  1.0955 -1.8344  0.4813
15091SOL     OW51235   5.047   4.764   2.703  0.0716 -0.1093 -0.0156
15091SOL    HW151236   5.012   4.751   2.615  2.2820 -0.0046 -0.9750
15091SOL    HW251237   4.991   4.832   2.741 -0.1503  0.7754 -1.8284
15092SOL     OW51238   6.120   8.638   2.757 -0.3743 -0.0084 -0.1690
15092SOL    HW151239   6.156   8.644   2.668 -0.5465 -1.6084 -0.3834
15092SOL    HW251240   6.143   8.550   2.786  3.0828  1.6848  2.9464
15093SOL     OW51241   2.101  11.439  10.729 -0.1524 -0.6282 -0.2390
15093SOL    HW151242   2.066  11.369  10.784  1.2234 -1.2942 -0.1737
15093SOL    HW251243   2.132  11.395  10.650  2.9041 -0.5092  0.7847
15094SOL     OW51244  11.915   4.651  10.305 -0.2469  0.0151 -0.3100
15094SOL    HW151245  11.999   4.652  10.350  0.1655  2.3524 -1.0092
15094SOL    HW251246  11.935   4.617  10.218 -0.4144 -1.2437  0.1232
15095SOL     OW51247   5.483   0.588   8.140  0.3735 -0.0086 -0.0696
15095SOL    HW151248   5.537   0.543   8.205  0.0200 -1.3499 -0.6728
15095SOL    HW251249   5.422   0.640   8.191 -0.2860 -1.4953  0.7091
15096SOL     OW51250   9.628   0.702   6.057 -0.2920 -0.0715  0.1161
15096SOL    HW151251   9.693   0.757   6.101 -1.6170  1.0675  0.7329
15096SOL    HW251252   9.614   0.629   6.117  1.4566 -1.1253 -0.6920
15097SOL     OW51253   4.220   8.699   8.708  0.0828 -0.6231  0.1264
15097SOL    HW151254   4.244   8.721   8.618 -2.4506 -0.7063 -0.6428
15097SOL    HW251255   4.302   8.672   8.749  1.6020  1.0099 -1.6506
15098SOL     OW51256   5.234   5.137  12.452  0.3222 -0.3432  0.0753
15098SOL    HW151257   5.216   5.189  12.374 -1.9732 -0.5850  0.3691
15098SOL    HW251258   5.163   5.071  12.454  1.0623 -1.1578  1.6561
15099SOL     OW51259   3.321   2.996   1.722  0.0626  0.0207  0.2247
15099SOL    HW151260   3.322   2.977   1.816  2.0798  0.1168  0.2523
15099SOL    HW251261   3.377   2.928   1.684 -0.5200  0.1498 -0.8898
15100SOL     OW51262   7.542   6.721   1.776  0.3105 -0.5641  0.1251
15100SOL    HW151263   7.634   6.737   1.754 -0.0222  2.4035  0.4832
15100SOL    HW251264   7.544   6.641   1.829  2.5356 -1.1285 -0.6684
15101SOL     OW51265   1.124   6.429   9.774  0.1837  0.3635  0.4290
15101SOL    HW151266   1.116   6.333   9.780 -1.3216  0.5029  0.9345
15101SOL    HW251267   1.137   6.457   9.864 -0.8887  0.7518  0.4687
15102SOL     OW51268  11.218   9.644   6.292 -0.2012 -0.3187 -0.2205
15102SOL    HW151269  11.259   9.652   6.378 -2.2249  0.3118  0.7446
15102SOL    HW251270  11.131   9.608   6.310 -0.4565 -0.7146 -2.0735
15103SOL     OW51271   2.831   6.461   5.598 -0.5320 -0.0043  0.5209
15103SOL    HW151272   2.744   6.421   5.596 -0.3269 -0.5397  1.6693
15103SOL    HW251273   2.855   6.462   5.691  0.7404  0.0225  0.2106
15104SOL     OW51274   0.839   4.547   5.635 -0.7270  0.8065  0.1869
15104SOL    HW151275   0.903   4.498   5.583 -0.9342  1.4250 -0.6628
15104SOL    HW251276   0.886   4.570   5.715 -0.1641  0.4968 -0.0466
15105SOL     OW51277   9.274  12.256   2.657  0.0618  0.6123 -1.1012
15105SOL    HW151278   9.321  12.319   2.711  1.9289  0.3585 -2.3423
15105SOL    HW251279   9.339  12.189   2.636 -1.8789 -1.9137  0.3299
15106SOL     OW51280   1.817   9.339  10.167 -0.0164 -0.2809 -0.6751
15106SOL    HW151281   1.808   9.402  10.095  0.1813  0.3693 -0.1405
15106SOL    HW251282   1.909   9.315  10.168  0.0736  0.0632 -0.3552
15107SOL     OW51283   0.264   0.783   3.012 -0.1824  0.2172 -0.2903
15107SOL    HW151284   0.223   0.814   3.093 -0.8276 -0.3835 -0.3800
15107SOL    HW251285   0.357   0.798   3.026 -0.4231  1.8546 -0.1832
15108SOL     OW51286   7.673  10.903  10.297  0.3482  0.2471  0.4742
15108SOL    HW151287   7.746  10.865  10.346 -0.2403 -1.2423  0.2709
15108SOL    HW251288   7.634  10.966  10.357  0.7272 -0.2364  1.2497
15109SOL     OW51289   9.686   4.854  11.020 -0.2446 -0.1592  0.8717
15109SOL    HW151290   9.748   4.864  10.948 -2.2571 -3.0065 -1.5097
15109SOL    HW251291   9.732   4.802  11.085  0.8591  0.4510  0.5982
15110SOL     OW51292   9.164   7.258  10.810 -0.1115 -0.2037  0.1522
15110SOL    HW151293   9.136   7.213  10.889 -0.9922  3.0667  1.8831
15110SOL    HW251294   9.259   7.259  10.815 -0.0662 -1.7466  0.0728
15111SOL     OW51295   3.657   7.039   9.806  0.5414  0.0050 -0.4044
15111SOL    HW151296   3.699   7.000   9.883  0.4826  2.5288  1.0001
15111SOL    HW251297   3.729   7.080   9.758  0.3147  0.1222 -0.6430
15112SOL     OW51298   1.351   1.974   0.610  0.2439  0.1922  0.2715
15112SOL    HW151299   1.283   2.006   0.670 -0.0424  0.3801 -0.1432
15112SOL    HW251300   1.311   1.897   0.569  0.5325 -0.0816  0.5025
15113SOL     OW51301   7.420   6.501   4.216  0.3470  0.4618  0.4226
15113SOL    HW151302   7.477   6.566   4.176 -0.3781  0.5817 -0.4455
15113SOL    HW251303   7.338   6.508   4.168  0.0131 -0.5894  0.8102
15114SOL     OW51304   5.308   9.564   7.859  0.2336 -0.3793 -0.5482
15114SOL    HW151305   5.290   9.639   7.915  0.6789 -1.6647  1.4097
15114SOL    HW251306   5.383   9.591   7.805  0.4417  0.5362  0.1821
15115SOL     OW51307   1.320   7.251  12.041 -0.0902  0.0742 -0.0955
15115SOL    HW151308   1.409   7.286  12.042  0.8600 -2.0567 -1.8461
15115SOL    HW251309   1.310   7.212  11.954 -2.4105 -0.5932  0.3846
15116SOL     OW51310   3.713   3.502   4.715 -0.1106 -0.1822 -0.3098
15116SOL    HW151311   3.676   3.423   4.752 -2.2085  0.0293 -1.7850
15116SOL    HW251312   3.677   3.573   4.769  1.3636 -0.1405  0.6930
15117SOL     OW51313   2.478   3.780  11.205 -0.3499 -0.0406  0.2337
15117SOL    HW151314   2.523   3.864  11.218  0.8711 -0.6802  0.2161
15117SOL    HW251315   2.452   3.753  11.293  1.1367 -0.6500  0.5167
15118SOL     OW51316   4.596   3.133   4.654 -0.1738 -0.2121  0.2823
15118SOL    HW151317   4.680   3.163   4.689 -0.5694  0.2725  0.8198
15118SOL    HW251318   4.620   3.066   4.590  0.7610  1.6276 -1.4016
15119SOL     OW51319   5.057   1.596   9.459  0.1007  0.2500 -0.0062
15119SOL    HW151320   4.964   1.615   9.470 -0.1089  0.1967 -1.4703
15119SOL    HW251321   5.059   1.516   9.406  0.9550  1.0452 -1.2301
15120SOL     OW51322   3.781   8.923   3.048 -0.0913  0.4751  0.5923
15120SOL    HW151323   3.876   8.924   3.037 -0.2046 -1.5922 -1.2231
15120SOL    HW251324   3.746   8.936   2.960 -1.5235  1.1900  1.2234
15121SOL     OW51325   0.340   7.856  12.014  0.5532  0.1817  0.0754
15121SOL    HW151326   0.283   7.892  11.946 -0.7078 -2.6321 -0.5399
15121SOL    HW251327   0.392   7.790  11.968  1.7689  0.2201  1.3357
15122SOL     OW51328  10.273   7.008   3.137 -0.0282  0.0560 -0.1388
15122SOL    HW151329  10.361   6.998   3.103 -0.0042 -0.1295 -0.0273
15122SOL    HW251330  10.279   6.978   3.228 -0.2270 -0.0540 -0.1612
15123SOL     OW51331   6.214  10.752   2.815  0.9176 -0.8964 -0.4395
15123SOL    HW151332   6.154  10.678   2.804  0.4296 -0.6361  0.3935
15123SOL    HW251333   6.283  10.718   2.873  0.6110 -0.6648  0.0705
15124SOL     OW51334   6.238  10.074  11.441 -0.1179  0.2957 -0.1154
15124SOL    HW151335   6.234  10.014  11.367  1.8127 -0.2143  0.1475
15124SOL    HW251336   6.229  10.161  11.401 -1.4803 -0.0483 -0.6454
15125SOL     OW51337  10.121   6.747   8.112 -0.6718  0.5728  0.1594
15125SOL    HW151338  10.214   6.734   8.093  0.0848 -0.2369  3.7314
15125SOL    HW251339  10.084   6.776   8.029  2.3103 -1.2357 -1.9993
15126SOL     OW51340   2.070   2.019   1.353  0.4063 -0.1030 -0.1649
15126SOL    HW151341   2.112   1.983   1.275  1.5942  0.8230  0.0224
15126SOL    HW251342   2.028   2.100   1.324 -0.6660 -0.6464 -0.1934
15127SOL     OW51343   3.439   1.068   0.072 -0.6329  0.1555  0.1073
15127SOL    HW151344   3.520   1.114   0.097 -0.0666 -1.5834  1.7636
15127SOL    HW251345   3.466   1.009   0.002  0.0688 -1.7310  1.8487
15128SOL     OW51346   1.652   8.787   8.264  0.1865  0.6752 -0.2374
15128SOL    HW151347   1.674   8.819   8.351  0.2424  1.3510 -0.4908
15128SOL    HW251348   1.702   8.843   8.205  0.6807 -0.2209 -0.6846
15129SOL     OW51349   4.675   1.120   8.535 -0.1224 -0.1980 -0.1189
15129SOL    HW151350   4.679   1.112   8.630  1.1051 -0.6566 -0.1988
15129SOL    HW251351   4.591   1.081   8.512 -0.7911  0.6212  0.8329
15130SOL     OW51352  10.049   7.585   2.038 -0.4728  0.6551  0.0969
15130SOL    HW151353   9.977   7.603   1.978  1.8466  0.9021 -2.8190
15130SOL    HW251354  10.106   7.661   2.031  1.0539 -0.3752  0.8181
15131SOL     OW51355   6.813  12.030  11.608  0.0704 -0.2250  0.1448
15131SOL    HW151356   6.744  11.976  11.646 -1.2769  0.9617 -0.5283
15131SOL    HW251357   6.773  12.116  11.595  2.0774  0.8996  0.9419
15132SOL     OW51358   6.967   2.539  12.383 -0.0460  0.4745 -0.5285
15132SOL    HW151359   6.920   2.570  12.460  0.4820  0.5420 -0.2297
15132SOL    HW251360   7.006   2.618  12.346 -0.1852  0.4224 -0.7908
15133SOL     OW51361   5.475   6.553   1.403  0.8608 -0.5236  0.6743
15133SOL    HW151362   5.394   6.550   1.454  0.5658 -2.7344  0.1641
15133SOL    HW251363   5.499   6.461   1.390  2.4202  0.0442 -0.8170
15134SOL     OW51364   7.528  10.635   7.430 -0.4178  0.1430  0.3053
15134SOL    HW151365   7.538  10.655   7.523 -1.3228 -1.3375  0.7511
15134SOL    HW251366   7.497  10.545   7.428 -1.1518  0.3996 -1.4166
15135SOL     OW51367  10.417   9.619   2.919  0.2140  0.4970  0.1670
15135SOL    HW151368  10.465   9.629   2.837 -1.6103 -1.8091 -1.3150
15135SOL    HW251369  10.327   9.602   2.892 -0.4129 -0.5200  2.6355
15136SOL     OW51370   7.859   4.855   3.728 -0.1848 -0.3632  0.0701
15136SOL    HW151371   7.839   4.941   3.690  0.7025  0.2947  1.0088
15136SOL    HW251372   7.775   4.824   3.761 -0.2784  0.8885  1.1222
15137SOL     OW51373   0.097   4.919   7.869  0.6754 -0.6152  0.2385
15137SOL    HW151374   0.042   4.843   7.891 -1.1192  1.1824  2.4431
15137SOL    HW251375   0.171   4.914   7.930  0.6196 -0.6427  0.3033
15138SOL     OW51376   9.206   1.023   5.199  0.3908  0.0326  1.0427
15138SOL    HW151377   9.146   1.044   5.127  0.2698 -2.0257  0.4722
15138SOL    HW251378   9.155   0.967   5.257  1.1892 -0.2246  1.5147
15139SOL     OW51379  10.042   8.181   4.609 -0.2385 -0.0584 -0.3374
15139SOL    HW151380  10.104   8.162   4.679  0.5324  0.2095 -0.9310
15139SOL    HW251381  10.084   8.147   4.530  0.4934  2.6160 -1.2061
15140SOL     OW51382  12.059   8.009   5.220 -0.2604  0.2086 -0.0983
15140SOL    HW151383  12.016   7.977   5.140 -0.2350  1.0346 -0.4478
15140SOL    HW251384  12.144   7.965   5.220 -0.4538 -0.1716 -0.2722
15141SOL     OW51385   6.831   3.770   7.649  0.0739 -0.3371 -0.1059
15141SOL    HW151386   6.785   3.696   7.609 -1.0656  0.6693 -0.7209
15141SOL    HW251387   6.922   3.758   7.623 -0.1222 -1.4147 -0.3522
15142SOL     OW51388   2.628  12.129  11.198  0.3519 -0.4702 -0.5899
15142SOL    HW151389   2.557  12.180  11.158 -0.5511 -0.4494  0.9383
15142SOL    HW251390   2.586  12.048  11.226 -0.0096  0.8364  3.3241
15143SOL     OW51391   5.900   3.789   1.862  0.0737  0.2459 -0.1058
15143SOL    HW151392   5.858   3.861   1.908 -0.0369 -0.1118  0.3569
15143SOL    HW251393   5.977   3.768   1.916 -1.3740 -1.8074  1.3035
15144SOL     OW51394   5.871   7.689   5.417  0.2352  0.4724 -0.8539
15144SOL    HW151395   5.879   7.774   5.460 -0.0056  0.5434 -0.9440
15144SOL    HW251396   5.886   7.707   5.325 -4.7420  1.4067 -1.7761
15145SOL     OW51397   6.442   5.646  10.131  0.0510 -0.6494 -0.0955
15145SOL    HW151398   6.518   5.686  10.090 -0.2016 -0.4188 -0.3388
15145SOL    HW251399   6.400   5.596  10.060 -0.1852 -0.5379 -0.0366
15146SOL     OW51400  12.367   7.079   5.523  0.2140 -0.2486  0.2995
15146SOL    HW151401  12.461   7.098   5.522  0.7403 -2.4746 -0.8224
15146SOL    HW251402  12.350   7.046   5.611  0.9434 -1.5927 -0.0303
15147SOL     OW51403   4.277   1.075   6.908 -0.6384  0.2708  0.5637
15147SOL    HW151404   4.260   1.045   6.997  1.5404 -0.6764  0.7305
15147SOL    HW251405   4.371   1.061   6.895 -0.9099  0.2124 -1.9469
15148SOL     OW51406   6.144   6.128   0.847  0.0998  0.4387 -0.7596
15148SOL    HW151407   6.075   6.140   0.782  0.9786  0.7626 -1.6626
15148SOL    HW251408   6.189   6.212   0.852 -0.2075  0.5510  0.5946
15149SOL     OW51409   1.833  11.001   1.118 -0.0400 -0.1987  0.2869
15149SOL    HW151410   1.770  10.994   1.190  0.0728 -0.3859  0.3677
15149SOL    HW251411   1.880  10.917   1.119  0.3514  0.0215  0.3586
15150SOL     OW51412  10.643   8.759  10.394  0.2218 -0.4224 -0.3032
15150SOL    HW151413  10.645   8.749  10.490 -0.6067  2.6087  0.1459
15150SOL    HW251414  10.730   8.794  10.373 -0.2208  0.6889 -0.3500
15151SOL     OW51415   8.287   0.774  11.162 -0.5308 -0.5192  0.4131
15151SOL    HW151416   8.352   0.821  11.108 -1.6438 -0.2021 -0.6972
15151SOL    HW251417   8.336   0.748  11.240  0.2931  2.0686  0.8743
15152SOL     OW51418  12.248   0.832   3.216  0.7516  0.4301  0.1028
15152SOL    HW151419  12.302   0.791   3.148 -1.1868 -0.2622 -1.1225
15152SOL    HW251420  12.264   0.925   3.206  0.7300  0.3236 -1.1630
15153SOL     OW51421   2.613   6.131   0.180 -0.0574 -0.1027 -0.7708
15153SOL    HW151422   2.592   6.206   0.237  0.1012  0.1213 -1.0079
15153SOL    HW251423   2.693   6.094   0.217  0.3641  0.3859 -1.1796
15154SOL     OW51424   7.639  12.104   4.808 -0.0063 -0.2244  0.8363
15154SOL    HW151425   7.645  12.112   4.713 -0.1144  1.7438  0.9542
15154SOL    HW251426   7.554  12.062   4.824  0.0224 -0.5775  0.0773
15155SOL     OW51427   1.375   4.853   5.787 -0.0813 -0.2442 -0.1457
15155SOL    HW151428   1.467   4.848   5.812 -0.0570 -0.9154 -0.3481
15155SOL    HW251429   1.360   4.946   5.769 -0.1383  0.3432  2.4682
15156SOL     OW51430   5.208   2.289   5.968 -0.0257  0.1657  0.2133
15156SOL    HW151431   5.188   2.252   5.882  1.7286 -0.2526 -0.0602
15156SOL    HW251432   5.302   2.273   5.980  0.0707  1.4649  1.6008
15157SOL     OW51433   2.968   0.097  10.354 -0.2419 -0.3585 -0.2565
15157SOL    HW151434   2.879   0.073  10.328 -0.5245 -1.5157  1.6037
15157SOL    HW251435   2.958   0.135  10.441  0.9308  1.0522 -0.6964
15158SOL     OW51436  11.740   2.935   2.740 -0.5697  0.5472 -0.1117
15158SOL    HW151437  11.780   2.950   2.826 -0.0309  1.8498 -0.5603
15158SOL    HW251438  11.796   2.869   2.699  0.3399  1.3452 -0.1968
15159SOL     OW51439   7.322   4.994   5.112 -0.7477  0.1467 -0.1391
15159SOL    HW151440   7.367   4.994   5.027 -1.4082 -0.6757 -0.4983
15159SOL    HW251441   7.258   5.065   5.105  0.9814  1.8778  0.6699
15160SOL     OW51442   8.265   2.463   0.023  0.2737  0.0659 -0.4134
15160SOL    HW151443   8.227   2.384   0.060  0.7328  0.3440  0.7027
15160SOL    HW251444   8.358   2.442   0.010 -0.1372 -0.5244 -2.8750
15161SOL     OW51445   4.178   6.297  11.439  0.0763 -0.4600  0.0254
15161SOL    HW151446   4.161   6.217  11.389 -0.8014 -1.0491  1.2224
15161SOL    HW251447   4.273   6.296  11.454  0.1443 -0.9994 -0.4031
15162SOL     OW51448   5.176   2.886   6.173  0.3221  0.0065  0.3281
15162SOL    HW151449   5.090   2.853   6.201  0.6065  0.2521  1.5841
15162SOL    HW251450   5.229   2.807   6.161  0.2812 -0.1083  0.8449
15163SOL     OW51451   5.210   0.131   5.736 -0.2187 -0.2526  0.0080
15163SOL    HW151452   5.220   0.046   5.694 -1.4841 -0.1672 -0.4832
15163SOL    HW251453   5.121   0.132   5.771 -0.9119  1.5721 -1.6325
15164SOL     OW51454  10.622   2.980   2.646  0.3342  0.2894  0.2349
15164SOL    HW151455  10.685   3.042   2.610  0.3735 -0.4482 -1.0414
15164SOL    HW251456  10.653   2.894   2.616 -0.6397 -0.1910  0.5495
15165SOL     OW51457   6.126   7.175  12.490 -0.1030  0.3174  0.3284
15165SOL    HW151458   6.166   7.243  12.436 -0.9236  0.0279 -0.6558
15165SOL    HW251459   6.201   7.127  12.527  0.4635  0.6346 -0.3885
15166SOL     OW51460   9.849   3.483   0.704  0.6286 -0.0492 -0.3504
15166SOL    HW151461   9.837   3.391   0.725 -0.4722  0.2449  0.3767
15166SOL    HW251462   9.761   3.516   0.689  0.9240  1.1024  0.3281
15167SOL     OW51463   9.036   3.968   3.442 -0.4124  0.1016 -0.4602
15167SOL    HW151464   9.075   4.010   3.365  0.3314 -2.0798 -1.3571
15167SOL    HW251465   8.989   3.893   3.407  1.7999 -2.2868  1.3202
15168SOL     OW51466   2.991   0.951   7.619 -0.0349 -0.1314  0.4098
15168SOL    HW151467   3.031   0.867   7.596 -1.7136 -0.8571  0.0129
15168SOL    HW251468   3.048   1.016   7.578 -0.4144 -1.2097 -2.0589
15169SOL     OW51469   3.186   3.730   6.009  0.3434  0.0170 -0.0563
15169SOL    HW151470   3.237   3.769   5.938  1.2623  1.3826  1.2893
15169SOL    HW251471   3.096   3.730   5.978  0.8184 -0.0508 -1.4813
15170SOL     OW51472   2.430   3.755   4.086 -0.2474  0.2605 -0.4294
15170SOL    HW151473   2.461   3.845   4.077  0.0026  0.2073 -0.1150
15170SOL    HW251474   2.419   3.742   4.181  0.1953 -0.1964 -0.4343
15171SOL     OW51475   6.651   9.181   7.886 -0.2967 -0.4670 -0.7666
15171SOL    HW151476   6.581   9.121   7.913 -1.0168  0.5313 -0.3120
15171SOL    HW251477   6.728   9.151   7.935 -1.3513  0.7457  1.8552
15172SOL     OW51478   4.009   2.887   0.204  0.4864 -0.2202 -1.0735
15172SOL    HW151479   4.078   2.893   0.138  0.1311  1.0143 -1.3650
15172SOL    HW251480   3.954   2.964   0.188 -1.1429 -1.3245 -1.0630
15173SOL     OW51481   7.654   9.586   2.141  0.7364  0.1796 -0.6662
15173SOL    HW151482   7.586   9.575   2.208 -2.4297 -0.7928 -3.7009
15173SOL    HW251483   7.724   9.633   2.185 -1.1630 -0.2402  3.2156
15174SOL     OW51484   0.001  12.132   4.304 -0.0314  0.1138 -0.0556
15174SOL    HW151485  -0.019  12.192   4.375  0.8145 -0.8139  1.0176
15174SOL    HW251486  -0.005  12.184   4.225 -0.8432  1.2166  0.7153
15175SOL     OW51487   6.601   3.061   3.867 -0.2331  0.3802  0.1216
15175SOL    HW151488   6.603   3.107   3.951  1.9180 -1.1452  1.0033
15175SOL    HW251489   6.548   2.983   3.884 -0.9845  0.7690 -0.3782
15176SOL     OW51490   1.078   3.825   1.638  0.0332  0.8291 -0.0856
15176SOL    HW151491   1.172   3.811   1.650 -0.3010 -0.7647  0.9375
15176SOL    HW251492   1.045   3.842   1.726 -0.5966  1.7689 -0.4923
15177SOL     OW51493  10.015   5.027  12.116  0.2327  0.2340 -0.1419
15177SOL    HW151494  10.007   4.937  12.083 -0.3933 -0.3824  1.5828
15177SOL    HW251495  10.089   5.023  12.177 -0.6800  0.5358  1.0008
15178SOL     OW51496   7.429   0.610   1.197 -0.6583  0.4437  0.1746
15178SOL    HW151497   7.445   0.702   1.220 -0.9718  0.6741 -0.5055
15178SOL    HW251498   7.469   0.560   1.269  1.7384  1.0292 -0.6491
15179SOL     OW51499   4.997   0.156   8.215  0.4261  0.2722  0.7933
15179SOL    HW151500   4.954   0.078   8.250  0.2370  0.0383  0.0453
15179SOL    HW251501   5.033   0.200   8.293  0.5005 -0.5301  1.2230
15180SOL     OW51502   3.546   0.436  11.992 -0.1936 -0.1294  0.1206
15180SOL    HW151503   3.590   0.451  11.908 -1.9814 -1.0831 -1.0542
15180SOL    HW251504   3.499   0.354  11.980 -0.1247 -0.5484  2.2632
15181SOL     OW51505  11.613   9.394   7.492 -0.0087  0.1718  0.1062
15181SOL    HW151506  11.659   9.453   7.432 -0.2361  0.8666  0.5976
15181SOL    HW251507  11.634   9.307   7.460  3.1558  0.3259  1.3029
15182SOL     OW51508   8.496  11.863   3.184  0.7441 -0.3154  0.0366
15182SOL    HW151509   8.488  11.958   3.193 -2.8642 -0.4668 -0.0476
15182SOL    HW251510   8.454  11.843   3.101  2.5199 -1.9510 -0.5384
15183SOL     OW51511   9.476   9.155   6.898 -0.3935 -0.0001  0.5474
15183SOL    HW151512   9.385   9.142   6.873 -0.9181  0.6947  1.9866
15183SOL    HW251513   9.524   9.085   6.852 -1.7675 -0.9650  0.5196
15184SOL     OW51514   6.530   8.204   5.284 -0.1354  0.4018 -0.1469
15184SOL    HW151515   6.613   8.175   5.246 -1.3635 -1.1652 -1.8884
15184SOL    HW251516   6.554   8.249   5.364  2.5635  2.4770 -1.9517
15185SOL     OW51517   7.947   2.348   3.259  0.4707 -0.4112  0.4403
15185SOL    HW151518   7.942   2.264   3.213  0.4086 -0.6600  0.8905
15185SOL    HW251519   7.998   2.405   3.201 -0.5182 -0.3763 -0.4407
15186SOL     OW51520   5.622   6.928   6.702 -0.0575  0.5204 -0.2702
15186SOL    HW151521   5.538   6.880   6.700  0.1177  0.2206 -0.5744
15186SOL    HW251522   5.627   6.970   6.616 -0.5970  1.7779  0.2898
15187SOL     OW51523   8.272   9.825  11.774 -0.2339 -0.4812 -0.1629
15187SOL    HW151524   8.232   9.765  11.837 -1.8704  0.8724  0.1495
15187SOL    HW251525   8.223   9.810  11.693  1.3236 -1.6291 -0.9582
15188SOL     OW51526  11.213   3.159   4.455 -0.0135  0.0587  0.0279
15188SOL    HW151527  11.135   3.159   4.400  0.3959 -0.7032 -0.5686
15188SOL    HW251528  11.256   3.076   4.436  1.6410  1.0328 -0.6672
15189SOL     OW51529   9.093   6.027   3.562 -0.0068 -0.5247 -0.2802
15189SOL    HW151530   9.000   6.026   3.540 -0.1448 -0.3414  0.2692
15189SOL    HW251531   9.128   5.948   3.521 -1.0167 -2.2437  1.9487
15190SOL     OW51532   2.919   6.836   2.842  0.3724  0.1560  0.7120
15190SOL    HW151533   2.923   6.874   2.755 -0.9443  0.3058  0.7012
15190SOL    HW251534   2.920   6.742   2.828 -1.2367  0.1577  0.4241
15191SOL     OW51535   3.081   3.190   8.403 -0.3214  0.0946  0.0333
15191SOL    HW151536   3.089   3.155   8.315  1.5708  2.7962 -1.0073
15191SOL    HW251537   3.168   3.222   8.424 -1.4728  2.5816  1.4713
15192SOL     OW51538  11.581   4.144   0.456 -0.1026  0.3760 -0.0695
15192SOL    HW151539  11.651   4.079   0.442  0.1387  0.9305 -1.5642
15192SOL    HW251540  11.540   4.116   0.538  0.4273 -1.2782 -0.3152
15193SOL     OW51541  11.988   3.853   3.146 -0.2167 -0.7305 -0.8715
15193SOL    HW151542  11.901   3.877   3.176 -0.1708 -0.4127 -0.9863
15193SOL    HW251543  11.997   3.761   3.171  0.0339 -0.3408  0.5544
15194SOL     OW51544   0.032   6.904   8.418 -0.2653 -0.9287  0.2329
15194SOL    HW151545   0.069   6.859   8.493  2.0401  0.3506 -0.0478
15194SOL    HW251546  -0.010   6.981   8.454  0.2908 -0.6461  0.2894
15195SOL     OW51547  11.139   4.311  10.062 -0.1251  0.3014  0.0344
15195SOL    HW151548  11.180   4.384  10.108  1.4893 -0.1541 -0.5994
15195SOL    HW251549  11.179   4.312   9.975  1.0844 -2.2183  0.4821
15196SOL     OW51550  11.408  11.468  10.355 -0.7075 -0.4519  0.0338
15196SOL    HW151551  11.475  11.442  10.418 -0.4061  0.3030  0.0260
15196SOL    HW251552  11.433  11.423  10.274  0.7773  1.1444 -0.4503
15197SOL     OW51553   2.292   6.383   9.499 -0.6672  0.1627 -0.3709
15197SOL    HW151554   2.366   6.362   9.556  1.4283 -2.4243 -3.6908
15197SOL    HW251555   2.218   6.397   9.559  1.7041 -0.5569  2.9552
15198SOL     OW51556  12.136   1.497   6.426 -0.8544  0.4982  0.5290
15198SOL    HW151557  12.159   1.413   6.385  1.4130  1.3185 -0.0234
15198SOL    HW251558  12.079   1.473   6.499  0.8189 -1.6992  1.2346
15199SOL     OW51559   3.953   7.959   4.207 -0.0189 -0.4448  0.1283
15199SOL    HW151560   3.929   8.035   4.155  1.3319  0.0905  0.2430
15199SOL    HW251561   3.904   7.886   4.168 -0.1090  0.1978 -0.9828
15200SOL     OW51562   4.361   0.386   5.679  0.1429  0.2387 -0.1842
15200SOL    HW151563   4.393   0.454   5.738 -0.6774 -0.1560  0.7566
15200SOL    HW251564   4.303   0.433   5.619 -0.2341  0.4187  0.3096
15201SOL     OW51565   5.506   4.946  11.733 -0.7643 -0.4696  0.1794
15201SOL    HW151566   5.549   5.004  11.796  1.4786 -1.6777 -0.1241
15201SOL    HW251567   5.573   4.931  11.666 -1.8759 -2.0059 -0.6313
15202SOL     OW51568   5.267   7.352   2.443 -0.1797  0.0697 -0.4156
15202SOL    HW151569   5.303   7.433   2.480  0.9308 -0.6415  0.0950
15202SOL    HW251570   5.296   7.352   2.352 -0.3454  0.3328 -0.4704
15203SOL     OW51571   3.820   9.398   8.236  0.2445 -0.1592 -0.2144
15203SOL    HW151572   3.897   9.385   8.180  1.2756  1.7147  0.6619
15203SOL    HW251573   3.768   9.464   8.190 -0.1909 -0.4691 -0.1722
15204SOL     OW51574   8.815   2.287  10.466  0.1758  0.0008 -0.1632
15204SOL    HW151575   8.803   2.311  10.558 -0.4054 -0.2922 -0.1591
15204SOL    HW251576   8.901   2.322  10.444  0.0064  0.7361  0.2765
15205SOL     OW51577   0.314   8.804   9.595 -0.3322  0.0700 -0.7114
15205SOL    HW151578   0.331   8.779   9.504 -0.2908  0.7475 -0.8960
15205SOL    HW251579   0.315   8.899   9.594  0.1304  0.0819  0.0981
15206SOL     OW51580   0.433   6.758   7.114 -0.1716 -0.2613  0.5747
15206SOL    HW151581   0.507   6.816   7.133 -0.9993  0.8533  0.4798
15206SOL    HW251582   0.472   6.686   7.064  0.6005  1.1823 -1.0145
15207SOL     OW51583  12.021  10.633   9.677  0.5777  0.1283 -0.4999
15207SOL    HW151584  12.074  10.706   9.710 -0.6095  0.2965  1.1448
15207SOL    HW251585  12.046  10.559   9.732  1.2210 -0.5516 -1.6679
15208SOL     OW51586  11.421   7.343   0.413  0.5451  0.2657 -0.1609
15208SOL    HW151587  11.436   7.395   0.492  1.9885  1.7012 -1.3241
15208SOL    HW251588  11.439   7.402   0.340 -0.2463 -1.1574 -1.5907
15209SOL     OW51589   5.710  11.835   6.121  0.0407 -0.2139 -0.1376
15209SOL    HW151590   5.773  11.848   6.191 -0.7670 -0.2992  0.6197
15209SOL    HW251591   5.625  11.832   6.165 -0.5833  0.7633 -1.2201
15210SOL     OW51592   0.244   8.362  12.247 -0.4780 -0.4581  0.0433
15210SOL    HW151593   0.240   8.456  12.228 -0.2810 -0.6858 -1.1947
15210SOL    HW251594   0.208   8.320  12.169  2.5002 -1.5492 -0.8859
15211SOL     OW51595   3.692   4.641   1.969  0.4828 -0.0623  0.1353
15211SOL    HW151596   3.674   4.637   2.063  1.2745 -0.0176  0.2950
15211SOL    HW251597   3.664   4.729   1.943  1.4233  0.3794  0.5856
15212SOL     OW51598  12.268  10.162   5.077  0.1734  0.0460  0.2954
15212SOL    HW151599  12.320  10.173   4.997 -0.0772  0.4674  0.1872
15212SOL    HW251600  12.255  10.067   5.084 -1.0061  0.0831 -0.9486
15213SOL     OW51601   0.790   1.194   8.084  0.1257 -0.0166 -0.1087
15213SOL    HW151602   0.871   1.160   8.047 -0.0123 -1.3411  0.7742
15213SOL    HW251603   0.814   1.281   8.117  0.5949  0.5998 -1.9162
15214SOL     OW51604   4.796  10.649   1.143  0.3736 -0.6272  0.0392
15214SOL    HW151605   4.704  10.630   1.157 -0.1577 -0.6600 -2.9126
15214SOL    HW251606   4.801  10.744   1.137  0.5915 -0.6103  0.4095
15215SOL     OW51607   1.684   8.731  10.494 -0.4705 -0.5146  0.7386
15215SOL    HW151608   1.761   8.726  10.438 -1.5012 -0.0945 -0.7830
15215SOL    HW251609   1.624   8.666  10.458 -1.5099  0.3956  0.7830
15216SOL     OW51610   0.747  11.664   9.842  0.1377 -0.2854  0.3059
15216SOL    HW151611   0.842  11.675   9.840  0.5715 -3.2603 -0.0671
15216SOL    HW251612   0.733  11.579   9.883 -2.4084  0.1251  0.4706
15217SOL     OW51613   9.480   5.171   2.158 -0.0604 -0.1552  0.2631
15217SOL    HW151614   9.436   5.088   2.174 -0.9533  0.4831  1.3126
15217SOL    HW251615   9.483   5.213   2.244 -2.0082  2.0221 -0.5921
15218SOL     OW51616   6.389  10.213   7.694 -0.3716  1.2181 -0.3225
15218SOL    HW151617   6.384  10.215   7.598  1.8416 -0.2957 -0.5629
15218SOL    HW251618   6.386  10.305   7.720 -3.0363  1.5803 -1.6385
15219SOL     OW51619   4.705   2.767   6.358  0.1789 -0.1473 -0.5965
15219SOL    HW151620   4.676   2.677   6.343 -1.3404  0.2172  0.0254
15219SOL    HW251621   4.629   2.821   6.339  0.5127  0.8792  0.7743
15220SOL     OW51622   3.083   1.490  11.459 -0.5652 -0.3948 -0.3141
15220SOL    HW151623   3.016   1.478  11.392 -0.0520 -0.5386 -0.8105
15220SOL    HW251624   3.040   1.465  11.540 -1.5476  0.8219 -0.4108
15221SOL     OW51625   1.769   4.177   9.821 -0.7358  0.0899 -0.0348
15221SOL    HW151626   1.684   4.153   9.858 -0.3584  0.1681  0.9051
15221SOL    HW251627   1.811   4.229   9.890  0.6739 -1.1818  0.1051
15222SOL     OW51628   3.828   7.914   4.446  0.3888 -0.1556 -0.2624
15222SOL    HW151629   3.781   7.997   4.461  2.0932  0.9395 -0.6462
15222SOL    HW251630   3.895   7.936   4.381  1.8861 -1.4493  0.7623
15223SOL     OW51631  10.045   5.074   7.089  0.0431  0.0748 -0.1739
15223SOL    HW151632  10.124   5.044   7.043 -0.5862 -0.2661 -1.0680
15223SOL    HW251633  10.040   5.167   7.070  0.6555  0.2573  0.5427
15224SOL     OW51634   5.498   1.378   3.369 -0.1043  0.5650 -0.0596
15224SOL    HW151635   5.559   1.312   3.400  0.5713  0.6382 -1.1749
15224SOL    HW251636   5.510   1.379   3.274 -2.4787 -0.0468 -0.4231
15225SOL     OW51637   4.126  12.175   0.365  0.2206 -0.6433  0.2086
15225SOL    HW151638   4.105  12.131   0.283  1.1491 -0.2818 -0.2393
15225SOL    HW251639   4.043  12.177   0.413 -0.0437 -2.0345 -0.1509
15226SOL     OW51640   8.149   9.208  10.185  0.4051  0.0153 -0.4230
15226SOL    HW151641   8.134   9.252  10.268 -0.9374  0.1004 -0.6877
15226SOL    HW251642   8.123   9.271  10.119 -0.8629 -0.8935 -0.8296
15227SOL     OW51643  12.014   5.932   0.456 -0.0728 -0.6720 -0.4528
15227SOL    HW151644  11.997   6.019   0.421 -1.1078 -0.7013 -0.0759
15227SOL    HW251645  12.019   5.875   0.379 -1.4473 -0.5972 -0.6162
15228SOL     OW51646   6.513   9.309   0.088 -0.2340  0.3461 -0.5062
15228SOL    HW151647   6.580   9.244   0.064  0.8932  1.6717 -1.0704
15228SOL    HW251648   6.473   9.334   0.005 -1.1176 -0.0750 -0.2195
15229SOL     OW51649   4.859   3.788  11.994  0.7845  0.2550 -0.3359
15229SOL    HW151650   4.821   3.701  11.979  0.1763  0.7913 -2.2827
15229SOL    HW251651   4.944   3.785  11.952  2.7710 -0.6733  3.3178
15230SOL     OW51652   8.410   4.846  11.627  0.0007  0.0352  0.6142
15230SOL    HW151653   8.452   4.876  11.547 -1.0191 -0.7664 -0.2348
15230SOL    HW251654   8.480   4.802  11.676  0.9697  1.7136  0.8469
15231SOL     OW51655   0.934  12.348   5.681  0.2776 -0.2263  0.3542
15231SOL    HW151656   0.957  12.404   5.756 -0.6180  2.0528 -0.9970
15231SOL    HW251657   0.959  12.260   5.710  2.3895  0.8848  2.3436
15232SOL     OW51658  12.467   4.526   6.326 -0.1779  0.2278  0.7206
15232SOL    HW151659  12.487   4.540   6.233  0.6626  0.3850  0.9205
15232SOL    HW251660  12.483   4.432   6.339 -1.1539  0.0222  0.5068
15233SOL     OW51661   2.466   3.882   2.950  0.4689  0.0731  0.3664
15233SOL    HW151662   2.441   3.809   3.007 -1.4698 -0.2158 -0.7884
15233SOL    HW251663   2.449   3.850   2.862 -0.3753  1.9081 -0.1746
15234SOL     OW51664   1.931   6.629   0.498 -0.2378  0.1487 -0.1594
15234SOL    HW151665   1.886   6.583   0.427  0.7727  0.3055 -0.9215
15234SOL    HW251666   1.998   6.567   0.527 -0.7693  0.0028  0.8244
15235SOL     OW51667  10.497   8.993   3.360 -0.1922  0.6404  0.3878
15235SOL    HW151668  10.569   8.931   3.357  0.9281  1.9206 -1.6409
15235SOL    HW251669  10.536   9.075   3.391 -0.7443  1.3210 -0.6282
15236SOL     OW51670  12.392  11.582   6.081 -0.1409  0.3918  0.1810
15236SOL    HW151671  12.425  11.585   5.991  0.2280  0.8325  0.3228
15236SOL    HW251672  12.446  11.646   6.128 -1.1122  1.0332  0.4564
15237SOL     OW51673   1.824  11.470   5.271  0.7928  0.2337  0.1223
15237SOL    HW151674   1.896  11.417   5.238  0.2614 -1.0844  1.0215
15237SOL    HW251675   1.785  11.419   5.341 -1.1020  0.8400 -0.3992
15238SOL     OW51676  10.671   7.544   8.794  0.1219  0.2973  0.2319
15238SOL    HW151677  10.736   7.474   8.787  0.0627  0.3246 -0.6932
15238SOL    HW251678  10.633   7.533   8.882  0.9595 -0.0757  0.5498
15239SOL     OW51679   7.669   5.363   3.390 -0.3641 -0.4666  0.2174
15239SOL    HW151680   7.630   5.420   3.456  0.6511 -0.1623  0.5858
15239SOL    HW251681   7.689   5.422   3.317  0.1078 -0.4599  0.3465
15240SOL     OW51682   6.826   9.665   7.594  0.0180 -0.7112 -0.5881
15240SOL    HW151683   6.739   9.627   7.581  0.8006 -2.6901 -0.2201
15240SOL    HW251684   6.869   9.607   7.656  1.7931 -0.0249 -1.1283
15241SOL     OW51685   2.396   1.639   0.936  0.2734  0.1412  0.1568
15241SOL    HW151686   2.421   1.669   1.024 -0.7707 -2.0509  1.2803
15241SOL    HW251687   2.308   1.602   0.948 -0.2944  0.6101 -2.0433
15242SOL     OW51688   4.960   9.039  10.545  0.1436 -0.0890 -0.5014
15242SOL    HW151689   5.051   9.043  10.575 -0.5695 -0.4746  1.9124
15242SOL    HW251690   4.944   8.947  10.528 -0.1287 -0.1886  0.2635
15243SOL     OW51691   2.734   8.490   9.093 -0.2167 -0.2240 -0.6291
15243SOL    HW151692   2.736   8.542   9.013  0.4076  1.0731  0.1946
15243SOL    HW251693   2.647   8.504   9.129 -0.5518 -0.9311 -1.1400
15244SOL     OW51694   3.107   7.525   6.700  0.5709  0.6991 -0.4015
15244SOL    HW151695   3.101   7.431   6.681  0.4688  1.0961 -2.6876
15244SOL    HW251696   3.182   7.555   6.648  0.6902  1.8594  0.4072
15245SOL     OW51697   9.277   2.666   2.404 -0.2583 -0.0307  0.5695
15245SOL    HW151698   9.327   2.585   2.414  1.3432  0.9116  0.5450
15245SOL    HW251699   9.283   2.709   2.490  2.2851  1.8544 -0.4020
15246SOL     OW51700   0.196   6.692  10.606 -0.2254 -0.1128  0.0627
15246SOL    HW151701   0.207   6.609  10.560 -0.4988  0.7866 -1.6829
15246SOL    HW251702   0.198   6.759  10.538  1.8933  1.5138  1.5739
15247SOL     OW51703   1.848   2.966   2.718  0.4525  0.2954  0.1328
15247SOL    HW151704   1.897   2.994   2.641 -0.4099 -0.2397 -0.6349
15247SOL    HW251705   1.760   2.949   2.685  0.2055 -0.4542  1.1294
15248SOL     OW51706   0.273   6.813   8.043  0.6650 -0.4979 -0.0445
15248SOL    HW151707   0.203   6.752   8.065  0.9332 -0.2419  1.6796
15248SOL    HW251708   0.236   6.900   8.061  0.9395 -0.2743 -0.5477
15249SOL     OW51709   4.220   6.564  11.493 -0.1015 -0.3903 -0.3770
15249SOL    HW151710   4.195   6.475  11.517  0.6967 -0.7397 -0.8201
15249SOL    HW251711   4.190   6.574  11.403  1.5385 -0.9186 -1.0240
15250SOL     OW51712   4.979   4.517   6.144 -0.8890 -0.0434 -0.3033
15250SOL    HW151713   4.999   4.423   6.139 -2.4074 -0.4650  0.7620
15250SOL    HW251714   5.050   4.554   6.198 -0.6766 -0.7050 -0.1188
15251SOL     OW51715   1.796   8.066   5.857  0.0084 -0.0587 -0.2213
15251SOL    HW151716   1.714   8.026   5.885  0.3151 -1.0015 -0.6136
15251SOL    HW251717   1.820   8.017   5.778  0.7747  0.4256 -0.2928
15252SOL     OW51718   4.557   8.284   6.953 -0.3462  0.1831 -0.0387
15252SOL    HW151719   4.636   8.235   6.978 -0.3254 -0.5785 -1.5205
15252SOL    HW251720   4.511   8.298   7.035  0.9905  0.0481  0.7755
15253SOL     OW51721  11.933   6.432   8.815  0.3433 -0.5879 -0.3858
15253SOL    HW151722  11.931   6.407   8.722 -3.3833 -2.1084 -0.0699
15253SOL    HW251723  11.905   6.354   8.861 -1.5265  1.1613  1.6607
15254SOL     OW51724   2.197   9.520  10.053 -0.5170  0.7902 -0.0026
15254SOL    HW151725   2.156   9.603  10.076 -0.9154  0.2118  1.5569
15254SOL    HW251726   2.290   9.538  10.051 -0.3512  0.8289  2.8715
15255SOL     OW51727   3.683   4.362   0.969  0.3018 -0.1662 -0.0244
15255SOL    HW151728   3.652   4.425   0.903 -0.5676 -0.7736 -0.2029
15255SOL    HW251729   3.626   4.377   1.045  1.2398  0.4666  0.5727
15256SOL     OW51730   5.570   0.719   0.113 -0.0714 -0.8088  0.1395
15256SOL    HW151731   5.479   0.725   0.086  0.1062 -1.0074 -0.5158
15256SOL    HW251732   5.596   0.629   0.092  0.4141 -0.6070 -0.1313
15257SOL     OW51733   8.647   0.838   4.541  0.0018 -0.2871  0.1149
15257SOL    HW151734   8.661   0.933   4.536  0.0597 -0.3017 -4.2719
15257SOL    HW251735   8.552   0.828   4.536  0.0396 -0.4199 -0.4544
15258SOL     OW51736   9.102   2.441   6.275 -0.3129 -0.5020 -0.2506
15258SOL    HW151737   9.195   2.460   6.286  0.3700 -2.9363 -1.2001
15258SOL    HW251738   9.076   2.492   6.198  0.0174  0.7476  0.4406
15259SOL     OW51739   1.000   9.332   9.105 -0.0520 -0.0197 -0.2260
15259SOL    HW151740   0.994   9.237   9.109 -0.1088  0.0192  1.2418
15259SOL    HW251741   0.940   9.357   9.035 -2.5696 -0.8979  1.4494
15260SOL     OW51742   4.879  10.057   8.283 -0.2369 -0.0082  0.5666
15260SOL    HW151743   4.839  10.143   8.298 -0.2322 -0.0618  0.8991
15260SOL    HW251744   4.828  10.018   8.212  0.7264  0.9082 -0.6833
15261SOL     OW51745   3.515   8.614   2.599  0.0296 -0.7883 -0.1910
15261SOL    HW151746   3.553   8.679   2.658 -0.9276  0.2053 -0.6343
15261SOL    HW251747   3.446   8.572   2.651 -2.8390  2.0766 -1.3030
15262SOL     OW51748   7.390   7.637   0.033 -0.5205 -0.3351 -0.1114
15262SOL    HW151749   7.342   7.560   0.005 -0.2435 -0.5175 -0.0901
15262SOL    HW251750   7.324   7.706   0.039 -0.6971 -0.4634 -0.5387
15263SOL     OW51751   3.746   4.079   3.229  0.2560 -0.2310 -0.2155
15263SOL    HW151752   3.665   4.045   3.268  0.0644  1.1380  0.6388
15263SOL    HW251753   3.815   4.050   3.289  0.5770 -2.2755 -1.4763
15264SOL     OW51754   7.629   0.138   1.577  0.1689 -0.1262  0.4064
15264SOL    HW151755   7.674   0.152   1.660  0.0996 -3.3829  1.1292
15264SOL    HW251756   7.538   0.163   1.594  1.0893  5.0699 -0.6434
15265SOL     OW51757   2.014   9.825   1.545  0.1694  0.0617  0.0475
15265SOL    HW151758   2.054   9.746   1.583  2.1693  0.3703 -1.2359
15265SOL    HW251759   1.974   9.794   1.464 -0.5380  0.0869  0.3856
15266SOL     OW51760   9.348   3.489   4.076 -0.0210  0.0902  0.1250
15266SOL    HW151761   9.335   3.520   4.166 -0.0807  1.1825 -0.2441
15266SOL    HW251762   9.428   3.534   4.047 -0.1034 -0.1167 -0.4279
15267SOL     OW51763   7.628   6.737   8.021  0.2317  0.7852  0.2786
15267SOL    HW151764   7.607   6.657   8.070  1.3666  0.6917  0.6561
15267SOL    HW251765   7.719   6.756   8.045  0.8189  0.7872 -1.7303
15268SOL     OW51766   8.719   7.830   5.585  0.1142  0.0539  0.1618
15268SOL    HW151767   8.641   7.790   5.547  1.0923 -1.0604 -0.7398
15268SOL    HW251768   8.787   7.763   5.578  0.9813  0.7140  1.6314
15269SOL     OW51769   4.978  10.924   9.741 -0.0675  0.1794 -0.3842
15269SOL    HW151770   5.020  10.904   9.657  2.6931 -0.0755  0.9752
15269SOL    HW251771   4.966  11.019   9.740 -0.2690  0.1567 -1.1283
15270SOL     OW51772   8.483   9.837  10.571  0.3203  0.5092  0.1416
15270SOL    HW151773   8.467   9.825  10.665 -0.3318 -1.6233 -0.1865
15270SOL    HW251774   8.576   9.815  10.560  0.1674 -0.1626  0.1640
15271SOL     OW51775   4.211   5.455   3.816 -0.2543  0.0119 -0.2938
15271SOL    HW151776   4.243   5.394   3.749 -2.1476 -0.5090 -0.7766
15271SOL    HW251777   4.289   5.478   3.867  1.2099  0.2484 -2.5175
15272SOL     OW51778   4.010  10.083   1.087  0.0562 -0.6216 -0.7388
15272SOL    HW151779   4.060  10.007   1.117  1.2042  0.5138  0.4114
15272SOL    HW251780   3.975  10.122   1.167 -1.9421 -0.8600 -1.4605
15273SOL     OW51781   7.964  10.455  11.452  0.2442  0.4363  0.4184
15273SOL    HW151782   7.905  10.431  11.381  1.1973 -3.3934  0.6654
15273SOL    HW251783   8.048  10.471  11.409 -0.1666  2.8453  0.3626
15274SOL     OW51784  10.650   0.573   2.863  0.4012  0.0113 -0.1570
15274SOL    HW151785  10.575   0.519   2.836  0.3947  0.6035 -1.3924
15274SOL    HW251786  10.702   0.515   2.919 -1.5469 -0.0616  1.6809
15275SOL     OW51787   0.011  10.250   0.322  0.3594 -0.4620 -0.0739
15275SOL    HW151788   0.080  10.199   0.279  0.9019  0.0620  0.1574
15275SOL    HW251789   0.014  10.223   0.414  1.5708  0.9219  0.3439
15276SOL     OW51790   2.139  12.142  10.016  0.3882 -0.3408 -0.3893
15276SOL    HW151791   2.103  12.156   9.928  0.3852 -1.0534 -0.5043
15276SOL    HW251792   2.063  12.135  10.072  0.3396 -1.5163 -0.5822
15277SOL     OW51793   9.875   3.634  12.175  0.2031  0.5196  0.3240
15277SOL    HW151794   9.866   3.672  12.088  0.9113  0.8505  0.3925
15277SOL    HW251795   9.785   3.619  12.204 -0.0388 -0.1549 -0.7070
15278SOL     OW51796   9.209   5.335   8.020  0.4934  0.3909  0.0833
15278SOL    HW151797   9.211   5.385   7.939 -2.1132  1.5984  0.6328
15278SOL    HW251798   9.162   5.255   7.998  3.4219 -1.3211 -0.4593
15279SOL     OW51799   6.477   3.800   7.531 -0.0399 -0.2879 -0.1289
15279SOL    HW151800   6.495   3.748   7.609  0.5172 -1.6519 -1.1210
15279SOL    HW251801   6.422   3.744   7.476  2.6480 -0.9734 -2.3479
15280SOL     OW51802   3.449   0.300   7.543  0.7266 -0.7045  0.2494
15280SOL    HW151803   3.365   0.279   7.500  1.0939 -1.1887 -0.2506
15280SOL    HW251804   3.436   0.276   7.634  0.4196 -1.0815  0.1114
15281SOL     OW51805  11.586   2.284   1.056  0.5564 -0.0805 -0.2070
15281SOL    HW151806  11.637   2.365   1.063 -1.6004  1.3219  0.1067
15281SOL    HW251807  11.546   2.289   0.969  2.4368 -2.1608 -1.3029
15282SOL     OW51808   2.992   8.958   8.292 -0.4839 -0.6805 -0.0524
15282SOL    HW151809   3.023   8.940   8.381 -0.4586 -0.7810 -0.0817
15282SOL    HW251810   2.968   9.051   8.294  2.8659  0.3334 -0.9347
15283SOL     OW51811   3.480   5.240   3.988 -0.4229 -0.2066  0.1228
15283SOL    HW151812   3.570   5.261   4.012 -0.4448 -0.8224  0.7913
15283SOL    HW251813   3.463   5.290   3.909 -0.8071  3.0766  2.1117
15284SOL     OW51814   8.859   7.990   1.251 -0.1368  0.6938 -0.3043
15284SOL    HW151815   8.915   7.954   1.320 -0.6312  1.5850  0.5857
15284SOL    HW251816   8.909   7.977   1.170  1.0908  0.9303  0.3929
15285SOL     OW51817   3.319   6.784  10.160 -0.4449  0.0083 -0.5212
15285SOL    HW151818   3.298   6.778  10.253  0.9702  0.1853 -0.1658
15285SOL    HW251819   3.287   6.702  10.123 -1.3141  0.0737  0.0488
15286SOL     OW51820   8.502   2.731  10.203 -0.1700  0.6253  0.0520
15286SOL    HW151821   8.483   2.779  10.284 -0.6173 -0.2891  0.4959
15286SOL    HW251822   8.593   2.754  10.183  0.3642 -0.0852  1.4909
15287SOL     OW51823   6.167   0.242   9.542  0.0112  0.3095 -0.1620
15287SOL    HW151824   6.119   0.285   9.612 -2.7327 -0.0419 -1.6877
15287SOL    HW251825   6.125   0.156   9.533  1.5337 -0.3859 -0.9970
15288SOL     OW51826   2.792   9.351   3.358 -0.5686 -0.1463  0.0266
15288SOL    HW151827   2.874   9.352   3.408 -1.1178  0.0633  0.9412
15288SOL    HW251828   2.768   9.259   3.353  0.5107 -0.3698 -1.5846
15289SOL     OW51829   0.627   5.044   2.684  0.4088 -0.6867 -0.2520
15289SOL    HW151830   0.661   5.133   2.671  0.2397 -0.3558  1.3514
15289SOL    HW251831   0.664   5.016   2.767 -0.5733 -1.6183 -0.1029
15290SOL     OW51832   8.326   9.840   8.845 -0.1615  0.8675  0.1775
15290SOL    HW151833   8.397   9.775   8.853 -1.8998 -1.0973  0.4478
15290SOL    HW251834   8.356   9.900   8.777  1.0238 -0.8991 -0.9349
15291SOL     OW51835   2.424   4.479   0.478  0.0997  0.1777  0.7546
15291SOL    HW151836   2.351   4.440   0.431 -0.1949  1.3500  0.2083
15291SOL    HW251837   2.394   4.566   0.503  1.5754  1.0086 -0.2100
15292SOL     OW51838   9.577   7.844   8.060 -0.0052  0.9161  0.4439
15292SOL    HW151839   9.586   7.884   7.974  1.7965 -0.1365  0.0724
15292SOL    HW251840   9.599   7.915   8.122  0.4859  1.2217 -0.0659
15293SOL     OW51841  11.835  10.877   2.636  0.4487  0.0761  0.1678
15293SOL    HW151842  11.801  10.837   2.716  0.4248 -1.3802 -0.5580
15293SOL    HW251843  11.816  10.970   2.647 -1.3016 -0.3441  0.9971
15294SOL     OW51844  12.400   6.114   6.387  0.4912 -0.5514 -0.1922
15294SOL    HW151845  12.403   6.198   6.434  1.3653 -1.3522  1.2609
15294SOL    HW251846  12.462   6.125   6.315  0.0922  0.2668 -0.4253
15295SOL     OW51847   8.513   4.112   2.518 -0.1073  0.2225 -0.3097
15295SOL    HW151848   8.540   4.203   2.506  0.2592  0.4337  1.7838
15295SOL    HW251849   8.494   4.081   2.429 -0.1249  2.2868 -1.0803
15296SOL     OW51850   8.674  11.312   3.886 -0.5482 -0.1002 -0.3603
15296SOL    HW151851   8.724  11.240   3.848  2.3595  0.1767  2.5101
15296SOL    HW251852   8.656  11.285   3.976  1.2437  2.8648  1.0591
15297SOL     OW51853   7.402   2.992   3.179 -0.5048 -0.4639 -0.0383
15297SOL    HW151854   7.313   2.963   3.161 -0.4172 -1.4594  1.0190
15297SOL    HW251855   7.458   2.927   3.137 -0.1636  1.4535 -2.8628
15298SOL     OW51856   7.472   6.483   8.374 -0.4941 -0.2981 -0.1046
15298SOL    HW151857   7.518   6.455   8.454 -0.2908  0.8980  0.2212
15298SOL    HW251858   7.380   6.483   8.398 -0.3639  1.2254  0.5591
15299SOL     OW51859   0.546   8.318   5.688 -0.5191  0.0510  0.4506
15299SOL    HW151860   0.568   8.394   5.633 -0.9414 -0.0401  0.1466
15299SOL    HW251861   0.539   8.245   5.627  1.5782 -0.6171  0.9424
15300SOL     OW51862   2.856   3.648  11.115  0.0494 -0.1005 -0.1640
15300SOL    HW151863   2.817   3.592  11.182 -0.8098 -0.0550 -0.6131
15300SOL    HW251864   2.903   3.715  11.165 -1.2562  0.4221  0.4407
15301SOL     OW51865   8.300   6.693   8.066 -0.6450 -0.0559 -0.1084
15301SOL    HW151866   8.243   6.640   8.011 -1.9256  1.8874 -0.7420
15301SOL    HW251867   8.328   6.765   8.010  0.7561  0.1680  0.8272
15302SOL     OW51868   9.369  12.023   8.873 -0.1514  0.0584 -0.2977
15302SOL    HW151869   9.326  12.002   8.956 -0.8487 -2.0329 -1.1299
15302SOL    HW251870   9.430  12.093   8.896 -0.6274 -0.1464  1.8895
15303SOL     OW51871   0.047   4.861  12.416  0.5285  0.1394  0.4642
15303SOL    HW151872   0.136   4.896  12.422  0.4355  0.4869 -0.1150
15303SOL    HW251873  -0.009   4.939  12.418  0.2373 -0.0832  0.8805
15304SOL     OW51874   6.772   1.421   8.309  0.2427 -0.2202 -0.1511
15304SOL    HW151875   6.777   1.483   8.382 -1.0770  2.1010 -1.9098
15304SOL    HW251876   6.681   1.428   8.278  1.0175 -0.3560 -2.6393
15305SOL     OW51877  11.483   4.205   3.584 -0.4046  0.4282 -0.0981
15305SOL    HW151878  11.536   4.282   3.604  0.7978 -0.5817  0.7395
15305SOL    HW251879  11.524   4.167   3.507 -0.0853 -0.1653  0.3505
15306SOL     OW51880  11.442   2.264  11.032  0.5982 -0.2124  0.6155
15306SOL    HW151881  11.423   2.177  11.068 -0.4677 -0.5125 -0.5922
15306SOL    HW251882  11.450   2.250  10.938  0.0696  1.0477  0.3603
15307SOL     OW51883   2.923   2.156  10.157 -0.1829 -0.5615 -0.0705
15307SOL    HW151884   2.888   2.226  10.102 -0.0481 -1.6865 -1.6550
15307SOL    HW251885   2.886   2.172  10.243  0.0112  1.5751 -0.3286
15308SOL     OW51886   0.075   8.653  10.751  0.1004  0.3566 -0.0430
15308SOL    HW151887   0.073   8.558  10.763  1.0036  0.4592  0.9753
15308SOL    HW251888   0.134   8.666  10.677 -1.3578  0.0553 -1.3332
15309SOL     OW51889   5.978   9.484  12.134 -0.6563  0.1741 -0.3805
15309SOL    HW151890   5.922   9.503  12.208  0.7426 -0.7839  0.9876
15309SOL    HW251891   6.060   9.529  12.153 -0.7864  1.3035 -2.1914
15310SOL     OW51892   1.087  10.655   4.369 -0.0351  0.4080 -0.1604
15310SOL    HW151893   1.107  10.716   4.440  3.0439 -0.7270  0.0938
15310SOL    HW251894   1.157  10.670   4.305  0.2805 -2.1382 -0.5215
15311SOL     OW51895   3.014  11.942   3.724 -0.0737  0.1293 -0.5700
15311SOL    HW151896   2.951  11.973   3.789  0.3712  2.8896 -1.3379
15311SOL    HW251897   2.982  11.979   3.641  2.1031  0.9912 -1.0772
15312SOL     OW51898   3.710  10.171  12.476 -0.3997  0.9013  0.0658
15312SOL    HW151899   3.764  10.133  12.406  1.0949  2.0683  0.5103
15312SOL    HW251900   3.644  10.222  12.430 -1.0532 -0.4083 -0.4998
15313SOL     OW51901  11.787   5.545   7.950  0.2369 -0.6490 -0.3284
15313SOL    HW151902  11.874   5.527   7.913 -0.0186 -0.8742 -0.8342
15313SOL    HW251903  11.727   5.528   7.877 -0.1559  0.4992 -0.2870
15314SOL     OW51904  11.379   7.452   6.446  0.1978  0.6121 -0.0381
15314SOL    HW151905  11.377   7.420   6.356 -0.5464 -0.4374  0.3323
15314SOL    HW251906  11.290   7.483   6.463 -0.2549 -1.0710  0.9541
15315SOL     OW51907  11.217   5.968   2.888  0.4989 -0.2935  0.1861
15315SOL    HW151908  11.203   5.898   2.952 -0.4034 -0.2988 -0.0054
15315SOL    HW251909  11.145   6.029   2.902 -0.6373 -1.0514 -1.7989
15316SOL     OW51910   3.206   4.745   7.354 -0.7987 -0.0545 -0.0764
15316SOL    HW151911   3.294   4.753   7.389 -0.9741  0.6748  0.2017
15316SOL    HW251912   3.178   4.657   7.380  0.1185 -0.5722 -0.8111
15317SOL     OW51913   3.398   3.992   5.145  0.6586  0.1589 -0.5227
15317SOL    HW151914   3.485   4.023   5.123  1.4747  0.2170  2.3936
15317SOL    HW251915   3.413   3.909   5.190 -0.8086  0.0405 -0.1976
15318SOL     OW51916   6.984   7.869  12.063  0.1466 -0.6162 -0.6179
15318SOL    HW151917   6.957   7.933  11.997  0.7481  0.5146  0.1872
15318SOL    HW251918   7.076   7.851  12.043  0.3262 -0.2833 -0.1176
15319SOL     OW51919   9.746   7.793   6.759 -0.5155  0.5769 -0.3994
15319SOL    HW151920   9.697   7.865   6.797 -0.1104  0.6714 -0.0471
15319SOL    HW251921   9.837   7.823   6.758 -0.4143  0.2759 -0.7400
15320SOL     OW51922   0.361   8.592   5.216  0.0953 -0.2783 -0.0260
15320SOL    HW151923   0.319   8.506   5.211  1.2319 -0.9636  1.5418
15320SOL    HW251924   0.294   8.653   5.184 -0.6320 -1.7422 -1.4437
15321SOL     OW51925   8.831  10.872   4.940 -0.3361  0.3718 -0.0079
15321SOL    HW151926   8.806  10.846   4.851 -0.3756  0.3939 -0.0031
15321SOL    HW251927   8.825  10.792   4.991  1.1271  0.0192 -0.3369
15322SOL     OW51928   3.292   7.200   9.226 -0.3056  0.3140 -0.1655
15322SOL    HW151929   3.223   7.166   9.282 -0.2280  0.0320 -0.2408
15322SOL    HW251930   3.352   7.126   9.214  0.6608  0.8837  0.9180
15323SOL     OW51931   8.012  11.410   8.941  0.5184  0.2768 -0.0912
15323SOL    HW151932   8.097  11.437   8.977  0.3419  1.5253 -0.5580
15323SOL    HW251933   7.950  11.475   8.975 -0.2302 -0.5490  0.1353
15324SOL     OW51934   0.797   2.076   8.946 -0.3178  0.3667 -0.3393
15324SOL    HW151935   0.826   2.105   9.032  0.8588  0.0577 -0.6114
15324SOL    HW251936   0.878   2.050   8.901 -1.0487 -0.8199 -1.0302
15325SOL     OW51937   9.417   7.397   6.722  0.0354  0.4067 -0.7767
15325SOL    HW151938   9.425   7.397   6.627  1.4032  1.0917 -0.7011
15325SOL    HW251939   9.335   7.352   6.740 -0.6388  0.9453 -2.3093
15326SOL     OW51940  10.650   9.769   3.451  0.6408 -0.3815  0.8358
15326SOL    HW151941  10.567   9.812   3.430  1.1016  0.9831  1.6899
15326SOL    HW251942  10.707   9.788   3.375 -0.5517 -3.6200 -1.0791
15327SOL     OW51943   9.608   5.000   0.831 -0.2531  0.1831 -0.2122
15327SOL    HW151944   9.574   4.944   0.901  1.4822 -0.0915  0.4683
15327SOL    HW251945   9.571   5.086   0.849 -0.0600  0.0481  0.8761
15328SOL     OW51946   9.701   8.863   5.622  0.3775 -0.6233 -0.0936
15328SOL    HW151947   9.616   8.866   5.667  0.6967 -0.7382  0.5215
15328SOL    HW251948   9.729   8.954   5.617  1.1665 -0.7445  1.5457
15329SOL     OW51949   3.850   7.034  11.871 -0.3554  0.1668  0.0890
15329SOL    HW151950   3.810   7.078  11.946  0.2562  0.5989  0.1703
15329SOL    HW251951   3.933   7.001  11.905 -1.4380 -2.3975  0.4431
15330SOL     OW51952  12.195   3.289   8.418 -0.9272  0.1379 -0.6536
15330SOL    HW151953  12.274   3.295   8.365  0.0151 -0.8523  0.5619
15330SOL    HW251954  12.135   3.234   8.368  0.2361 -1.4245 -0.4026
15331SOL     OW51955   8.490   2.582   9.258 -0.1409 -0.0175 -0.0068
15331SOL    HW151956   8.494   2.541   9.344  0.1604 -1.2143 -0.5810
15331SOL    HW251957   8.434   2.525   9.206  0.5054  0.1307 -0.8974
15332SOL     OW51958   7.828  11.583   5.659  0.3606 -0.4853 -0.4833
15332SOL    HW151959   7.902  11.624   5.615  1.7332 -1.8300  0.4609
15332SOL    HW251960   7.867  11.541   5.736 -1.2791 -1.8080 -0.3282
15333SOL     OW51961   7.755   2.860  11.691  0.1128 -0.3783  0.1355
15333SOL    HW151962   7.752   2.812  11.773 -0.1828  1.2739  1.1354
15333SOL    HW251963   7.787   2.947  11.715 -1.0391  0.4987 -1.3202
15334SOL     OW51964   3.739   4.117   2.960 -0.2866 -0.1475  0.1728
15334SOL    HW151965   3.742   4.084   3.049  0.6969 -1.8709 -0.4615
15334SOL    HW251966   3.812   4.075   2.915 -0.0226  1.5886 -1.1679
15335SOL     OW51967   1.323   3.707   3.568 -0.7141  0.5169  0.3199
15335SOL    HW151968   1.367   3.635   3.614 -1.4912  0.5747  1.2044
15335SOL    HW251969   1.233   3.705   3.602 -0.9331  1.4637 -0.1720
15336SOL     OW51970   8.716  11.391  11.694 -0.5780 -0.0874 -0.5861
15336SOL    HW151971   8.756  11.420  11.612  1.9720 -1.0227  0.2557
15336SOL    HW251972   8.784  11.402  11.760 -1.7395 -1.6884  0.9787
15337SOL     OW51973   8.330   6.064   0.048  0.1197  0.0517  0.1827
15337SOL    HW151974   8.309   5.971   0.056 -1.4193  0.1727 -1.7901
15337SOL    HW251975   8.281   6.106   0.118 -1.1447 -0.3971 -0.4036
15338SOL     OW51976   8.704  10.791  12.045 -0.5278  0.6818 -0.3607
15338SOL    HW151977   8.762  10.795  11.969  0.5943  0.5944  0.4632
15338SOL    HW251978   8.623  10.832  12.015  0.0111  0.9696 -1.4978
15339SOL     OW51979  10.695   8.637   8.254 -0.3299  0.4108  0.3007
15339SOL    HW151980  10.709   8.543   8.253 -0.8092  0.3377 -0.5812
15339SOL    HW251981  10.601   8.648   8.268 -0.1189  0.8008  1.6051
15340SOL     OW51982   8.826   1.028   7.713 -0.3855 -0.4953  0.1513
15340SOL    HW151983   8.758   1.034   7.646  0.3936  1.0048 -0.5666
15340SOL    HW251984   8.815   0.942   7.751 -0.4843 -1.6793 -2.3551
15341SOL     OW51985   2.601   7.975   8.529  0.2902  0.1860 -0.4313
15341SOL    HW151986   2.562   7.894   8.563  0.8672 -0.0888 -0.4066
15341SOL    HW251987   2.594   8.037   8.602 -0.9471  0.4378 -0.7451
15342SOL     OW51988   7.131   6.387   9.209 -0.5092  0.3127 -0.3258
15342SOL    HW151989   7.189   6.440   9.264  0.9357 -1.2636 -0.2227
15342SOL    HW251990   7.049   6.384   9.257  0.2850  0.1285  1.0747
15343SOL     OW51991   1.481   1.268   8.958  0.4189 -0.0336 -0.5780
15343SOL    HW151992   1.497   1.192   9.013  1.1806 -2.7137 -4.1197
15343SOL    HW251993   1.549   1.263   8.890 -0.7401  2.6703 -2.0963
15344SOL     OW51994   6.862   0.593   8.182 -0.2544  0.2279 -0.4363
15344SOL    HW151995   6.864   0.650   8.259 -0.0893 -1.0160  0.5260
15344SOL    HW251996   6.789   0.533   8.200  0.1403 -0.4216 -0.9906
15345SOL     OW51997   9.702   5.324   1.560  0.4338  0.2306 -0.1253
15345SOL    HW151998   9.795   5.313   1.582  0.3499  0.3042  0.2731
15345SOL    HW251999   9.675   5.402   1.609  0.1070  0.0831 -0.0736
15346SOL     OW52000  10.627   0.048   0.395 -0.2884 -0.3386  0.0618
15346SOL    HW152001  10.672  -0.034   0.376  0.0541  0.1732 -1.4581
15346SOL    HW252002  10.546   0.044   0.344  0.4995  0.9399 -1.3673
15347SOL     OW52003   1.042   7.075   3.630 -0.0021  0.3776 -0.4968
15347SOL    HW152004   1.067   7.123   3.710  1.3569 -0.2223 -0.5407
15347SOL    HW252005   1.055   6.983   3.652  0.1818  0.1959 -1.3382
15348SOL     OW52006   2.309   2.659   3.817 -0.6411 -0.0059 -0.0892
15348SOL    HW152007   2.321   2.754   3.815  0.3529 -0.1197 -0.1406
15348SOL    HW252008   2.364   2.627   3.745 -1.0378 -0.6148 -0.1262
15349SOL     OW52009  11.293   1.254   8.683 -0.1058  0.0521  0.4517
15349SOL    HW152010  11.327   1.302   8.607  1.4988  1.8323  2.2026
15349SOL    HW252011  11.254   1.321   8.738 -0.6840 -1.1267  1.5233
15350SOL     OW52012   3.079   4.740   9.417 -0.2665  0.1952  0.2803
15350SOL    HW152013   3.019   4.785   9.357  2.1384  1.5237 -1.2770
15350SOL    HW252014   3.111   4.664   9.368  0.0689  0.0507  0.7144
15351SOL     OW52015   3.388  12.382   7.425 -0.2264 -0.1552 -0.1829
15351SOL    HW152016   3.303  12.365   7.384  0.6295 -0.8032 -1.7632
15351SOL    HW252017   3.410  12.471   7.398 -1.3618  0.9148  2.0823
15352SOL     OW52018  11.241  10.426   8.280  0.3666  0.3914 -0.0911
15352SOL    HW152019  11.298  10.467   8.345  1.5768 -0.3281 -0.6646
15352SOL    HW252020  11.237  10.334   8.306 -0.5437  0.4270 -0.0696
15353SOL     OW52021   4.644   3.932   7.878  0.1202  0.1211  0.0980
15353SOL    HW152022   4.673   4.014   7.838  0.8520  0.2993  0.9550
15353SOL    HW252023   4.653   3.867   7.809 -1.5475  0.9317 -0.9616
15354SOL     OW52024   8.552   9.148   7.793  0.3847  0.3365  0.1331
15354SOL    HW152025   8.523   9.092   7.720  3.9164  1.3033 -2.2879
15354SOL    HW252026   8.615   9.094   7.841 -1.2968  0.0085  2.1014
15355SOL     OW52027   5.915  11.744  11.832 -0.0201 -0.1067  0.1079
15355SOL    HW152028   6.005  11.757  11.861 -0.7614 -0.2180  2.7552
15355SOL    HW252029   5.906  11.648  11.827 -0.1556 -0.1127  0.4573
15356SOL     OW52030   4.096   7.279   2.326  0.0429 -0.6646  0.2010
15356SOL    HW152031   4.013   7.319   2.350 -0.7276 -1.4356 -1.0590
15356SOL    HW252032   4.162   7.346   2.347 -0.8929  0.0132  1.0719
15357SOL     OW52033   8.870  12.203   4.193 -0.0994  0.1996 -0.1598
15357SOL    HW152034   8.782  12.206   4.230  0.1031  0.4479  0.3164
15357SOL    HW252035   8.858  12.166   4.105 -0.7691  0.8826 -0.3689
15358SOL     OW52036   4.066   2.077   5.435  0.0327 -0.6009 -0.8093
15358SOL    HW152037   3.998   2.134   5.399 -0.0801  0.4741  0.9581
15358SOL    HW252038   4.137   2.137   5.460  0.8885 -1.5051 -1.0000
15359SOL     OW52039  10.235   2.850   8.874  0.1305  0.1375 -0.0964
15359SOL    HW152040  10.204   2.795   8.802  0.6423  0.3729 -0.5017
15359SOL    HW252041  10.320   2.882   8.845 -0.6435  2.0788 -0.3536
15360SOL     OW52042   3.126   3.387   9.180  0.7800  0.3339 -0.1993
15360SOL    HW152043   3.074   3.466   9.168  1.4336  0.6543 -1.0047
15360SOL    HW252044   3.151   3.360   9.092 -0.3241 -1.4119 -0.0229
15361SOL     OW52045   3.401   0.517   6.771 -0.2814 -0.0755  0.3136
15361SOL    HW152046   3.357   0.463   6.706 -0.9634  0.6094  0.1939
15361SOL    HW252047   3.479   0.467   6.795 -1.2440 -1.4503  0.7318
15362SOL     OW52048   5.748   9.677  11.985  0.2231 -0.1569 -0.4069
15362SOL    HW152049   5.840   9.684  11.960  0.8106 -0.6663  1.4262
15362SOL    HW252050   5.725   9.587  11.962  0.8937 -0.7706  1.1575
15363SOL     OW52051   5.547   1.571   8.668 -0.0573  0.5694 -0.3397
15363SOL    HW152052   5.600   1.596   8.744 -1.3809  2.5612  0.0266
15363SOL    HW252053   5.586   1.619   8.595  1.8052 -2.0814 -1.2264
15364SOL     OW52054  10.366   2.194   0.493 -0.2244 -0.0085 -0.2534
15364SOL    HW152055  10.381   2.184   0.587 -1.5261  2.3567  0.2545
15364SOL    HW252056  10.426   2.130   0.453  1.3354 -0.1343  2.1010
15365SOL     OW52057   7.595   6.521   4.749  0.3545 -0.2371  0.2029
15365SOL    HW152058   7.520   6.476   4.788 -0.1184 -1.5186 -2.0183
15365SOL    HW252059   7.584   6.613   4.775 -2.9763 -0.0295 -1.3662
15366SOL     OW52060   9.217   7.736   3.634 -0.1874 -0.4249 -0.4355
15366SOL    HW152061   9.312   7.742   3.627 -0.2651  2.0214 -0.4356
15366SOL    HW252062   9.190   7.687   3.556  1.0185 -0.3034 -0.9575
15367SOL     OW52063   2.910   3.599   0.780 -0.1410 -0.5519 -0.2618
15367SOL    HW152064   2.914   3.517   0.831  2.0795 -0.7980 -0.7155
15367SOL    HW252065   2.933   3.667   0.844 -2.0495 -0.2318  0.1299
15368SOL     OW52066   3.499  11.287   0.776  1.1465  0.1117 -0.0853
15368SOL    HW152067   3.515  11.253   0.864 -0.6249 -0.7823 -0.0783
15368SOL    HW252068   3.505  11.210   0.719  2.8727  0.7614 -0.8861
15369SOL     OW52069   5.174   7.358   4.664  0.2130  0.6350 -0.5768
15369SOL    HW152070   5.228   7.437   4.675 -0.4143  1.4100 -2.4739
15369SOL    HW252071   5.185   7.336   4.571  0.0244 -1.2814 -0.1660
15370SOL     OW52072   1.014   0.765   0.713  0.7871 -0.0505 -0.7687
15370SOL    HW152073   1.062   0.727   0.639 -0.0871  1.5860 -2.2691
15370SOL    HW252074   1.076   0.825   0.753  0.9759 -0.2453 -0.7677
15371SOL     OW52075  11.388   8.598  12.376  0.2742 -0.0227 -0.3553
15371SOL    HW152076  11.446   8.588  12.301  1.0526 -1.7779  0.4250
15371SOL    HW252077  11.353   8.510  12.391 -0.6371  0.4947  0.7369
15372SOL     OW52078   8.789   9.383   6.043 -0.2343 -0.4394  0.5103
15372SOL    HW152079   8.771   9.477   6.032 -0.4778 -0.6360 -1.0236
15372SOL    HW252080   8.725   9.354   6.107  0.0860  0.5074  1.2902
15373SOL     OW52081  11.851   0.017  10.387  0.0412  0.2118  0.2623
15373SOL    HW152082  11.922   0.001  10.449 -1.6618 -0.5079  2.1542
15373SOL    HW252083  11.867   0.105  10.354  1.9338 -0.0328  0.4159
15374SOL     OW52084  12.348   3.617   1.985  0.4362  0.2662  0.0840
15374SOL    HW152085  12.304   3.625   2.069  2.2944  1.8318  0.9908
15374SOL    HW252086  12.420   3.680   1.989  2.5768 -1.9173 -1.4151
15375SOL     OW52087   7.644   0.722   9.669  0.1131  0.1584  0.5202
15375SOL    HW152088   7.628   0.767   9.752  0.7079  2.4231 -0.5116
15375SOL    HW252089   7.734   0.692   9.675  0.8704  2.1690 -0.0430
15376SOL     OW52090   2.577   3.928  10.216  0.2539  0.5783  0.6647
15376SOL    HW152091   2.576   4.023  10.203  2.0863  0.4349 -1.0287
15376SOL    HW252092   2.657   3.912  10.267  0.8966 -0.1611 -0.5335
15377SOL     OW52093   7.299   0.217   7.672 -0.3341  0.5192 -0.0606
15377SOL    HW152094   7.219   0.227   7.621 -1.4604  0.5128  1.6249
15377SOL    HW252095   7.272   0.234   7.763  1.1263 -1.4817  0.8280
15378SOL     OW52096   9.632   0.505   3.908 -0.0507  0.0419  0.2154
15378SOL    HW152097   9.722   0.481   3.890  0.3846  1.6309  0.1419
15378SOL    HW252098   9.625   0.596   3.880 -1.7893 -0.1644 -0.1586
15379SOL     OW52099   6.908  10.285   1.133  0.2483 -0.8706  0.6968
15379SOL    HW152100   6.920  10.306   1.225  0.1807 -1.0987  0.7588
15379SOL    HW252101   6.917  10.369   1.088  0.3450 -0.7683  0.9038
15380SOL     OW52102   9.930   6.374   7.231  0.0084  0.4505  0.5273
15380SOL    HW152103   9.927   6.279   7.227  0.5189  0.4554 -0.1295
15380SOL    HW252104   9.843   6.403   7.203 -0.0698  0.1839  0.4987
15381SOL     OW52105   4.044   5.386  10.353 -0.2824 -0.0197 -0.0640
15381SOL    HW152106   3.997   5.467  10.373 -0.4243 -0.1564  0.1639
15381SOL    HW252107   4.071   5.353  10.439  0.8070  0.3982 -0.2295
15382SOL     OW52108   8.462   0.250   6.867 -0.1085 -0.6084  0.2099
15382SOL    HW152109   8.483   0.310   6.939  1.0025 -1.6736  0.8146
15382SOL    HW252110   8.538   0.254   6.809  0.2197 -1.7616  0.5165
15383SOL     OW52111   3.916   4.363   5.441 -0.2520  0.4073 -0.1981
15383SOL    HW152112   3.968   4.440   5.464 -0.9369  0.6090  0.7216
15383SOL    HW252113   3.840   4.399   5.394 -0.6024  0.3114  0.2846
15384SOL     OW52114  11.769   8.546  10.149  0.1790 -0.0695 -0.2071
15384SOL    HW152115  11.744   8.618  10.208 -0.3133  0.7204 -1.3548
15384SOL    HW252116  11.748   8.578  10.062 -2.3027 -2.4620 -0.6362
15385SOL     OW52117  11.731   5.707   9.108 -0.2578 -0.2920  0.2579
15385SOL    HW152118  11.710   5.665   9.025 -3.0450 -0.3374  0.8729
15385SOL    HW252119  11.792   5.778   9.084 -0.6534 -0.5569 -1.7521
15386SOL     OW52120   1.793   5.741  11.235 -0.1355 -0.2675  0.6443
15386SOL    HW152121   1.853   5.774  11.168 -2.8284  0.6835 -1.4560
15386SOL    HW252122   1.841   5.669  11.276  1.4145 -1.4685 -2.8561
15387SOL     OW52123   8.698   9.011   5.769  0.1141  0.5193 -0.0779
15387SOL    HW152124   8.746   8.928   5.766  0.6494  0.8374 -2.7886
15387SOL    HW252125   8.765   9.077   5.786  0.0290  0.6058 -0.0792
15388SOL     OW52126   8.771  10.347  10.251 -0.1238  0.2174  0.2953
15388SOL    HW152127   8.779  10.442  10.262 -1.2253  0.3191  0.2706
15388SOL    HW252128   8.860  10.314  10.267 -0.3690  0.9064  3.7824
15389SOL     OW52129   3.291  10.704   4.996  0.2382 -0.0426 -0.2665
15389SOL    HW152130   3.361  10.723   4.934 -0.4450  2.0625 -0.4635
15389SOL    HW252131   3.332  10.713   5.082  0.0499  2.0234 -0.3668
15390SOL     OW52132   0.564   0.844   7.795 -0.4056 -0.2825 -0.0919
15390SOL    HW152133   0.560   0.936   7.819  0.4551 -0.4211  0.6881
15390SOL    HW252134   0.491   0.804   7.842 -0.6518 -0.0322 -0.2604
15391SOL     OW52135   6.632   1.065   1.044 -0.0257  0.2533 -0.5839
15391SOL    HW152136   6.581   0.993   1.009 -0.6980  0.6295 -0.3879
15391SOL    HW252137   6.677   1.102   0.968  0.1519 -0.2342 -0.7169
15392SOL     OW52138   6.493   4.770   8.232 -0.2089  0.3532 -0.2437
15392SOL    HW152139   6.515   4.704   8.167  0.7325 -0.2179  0.6266
15392SOL    HW252140   6.424   4.731   8.285  0.1710  0.1509  0.1120
15393SOL     OW52141   0.824   9.963   8.671  0.6334 -0.0518  0.5479
15393SOL    HW152142   0.754  10.027   8.683  0.7208  0.8003 -2.5737
15393SOL    HW252143   0.900  10.015   8.645  1.9946 -1.1151  2.2418
15394SOL     OW52144   8.007  10.583   5.121 -0.1807  0.1978 -0.5492
15394SOL    HW152145   7.940  10.528   5.163 -0.2813  0.2787 -0.6037
15394SOL    HW252146   7.957  10.646   5.070 -0.1334  1.5094  0.9690
15395SOL     OW52147   8.314  11.688   1.504  0.4896  0.7661 -0.5796
15395SOL    HW152148   8.254  11.748   1.548  0.2099 -0.1341  0.2986
15395SOL    HW252149   8.361  11.644   1.575  0.4893 -0.2507 -1.1791
15396SOL     OW52150   4.852   9.730   9.019 -0.6910 -0.1849  0.0464
15396SOL    HW152151   4.794   9.783   8.963  0.9453 -2.2256 -4.0471
15396SOL    HW252152   4.793   9.666   9.061 -1.8650  0.3967 -0.6494
15397SOL     OW52153  10.437  10.110  10.802 -0.6072  0.5615 -0.1798
15397SOL    HW152154  10.348  10.090  10.773 -1.0515  0.1776  1.3663
15397SOL    HW252155  10.490  10.106  10.722 -2.0126  1.0871 -1.1652
15398SOL     OW52156   4.934  10.445   9.964 -0.0524 -0.0035 -0.0070
15398SOL    HW152157   4.857  10.483  10.008  1.0063 -0.2277  2.1940
15398SOL    HW252158   5.009  10.484  10.008  1.2026  1.0634 -2.8569
15399SOL     OW52159   3.658   4.519  10.207  0.0123 -0.2541  0.0059
15399SOL    HW152160   3.615   4.495  10.125 -0.6842 -0.9822  0.5679
15399SOL    HW252161   3.662   4.615  10.205 -1.1819 -0.1938 -0.3065
15400SOL     OW52162   8.062  11.993   4.164 -0.5612  0.3940 -0.6133
15400SOL    HW152163   8.137  12.011   4.106 -0.8927 -0.7783 -1.4340
15400SOL    HW252164   8.052  11.898   4.161 -1.9174  0.5153 -0.2993
15401SOL     OW52165   6.608   6.319   5.251 -0.4233  0.6950 -0.2423
15401SOL    HW152166   6.633   6.294   5.340 -0.8968 -1.5921 -0.6647
15401SOL    HW252167   6.557   6.399   5.262  0.0952  0.8419  1.4673
15402SOL     OW52168  12.275  11.314  10.058 -0.4162 -0.3292  0.4459
15402SOL    HW152169  12.246  11.348   9.974  0.6021 -0.5623 -0.0128
15402SOL    HW252170  12.278  11.219  10.046 -0.9506 -0.4188  0.9737
15403SOL     OW52171   3.952   5.712   9.272  0.8222  0.1545  0.1970
15403SOL    HW152172   3.934   5.639   9.212  2.9610 -0.9856  0.8492
15403SOL    HW252173   3.998   5.776   9.219  1.8412 -0.4270  0.3514
15404SOL     OW52174   7.421   7.196   9.655  0.5389 -0.3690  0.2742
15404SOL    HW152175   7.358   7.141   9.609  1.3248 -0.7109 -0.4121
15404SOL    HW252176   7.478   7.230   9.586  0.9448  0.1437  0.8547
15405SOL     OW52177   9.432   9.480  11.844  0.5917 -0.1378  0.3391
15405SOL    HW152178   9.361   9.418  11.829  0.6286 -0.2440  0.6119
15405SOL    HW252179   9.446   9.479  11.939 -0.8654  1.8668  0.6411
15406SOL     OW52180  12.407   7.067   3.693  0.0581 -0.0829  0.0026
15406SOL    HW152181  12.335   7.128   3.708 -0.2299  0.1355 -2.0889
15406SOL    HW252182  12.370   7.001   3.634  1.3463 -0.3889 -0.4769
15407SOL     OW52183   9.181   8.121   5.825 -0.7482 -0.0557  0.4232
15407SOL    HW152184   9.156   8.211   5.802  0.7211  0.4833  0.8656
15407SOL    HW252185   9.242   8.095   5.756 -0.7542 -0.5196  0.5895
15408SOL     OW52186   4.636  11.749   5.743 -0.1291 -0.1777  0.4918
15408SOL    HW152187   4.565  11.738   5.679 -0.4505 -0.6763  0.9337
15408SOL    HW252188   4.654  11.661   5.774  0.4034  0.0011  0.6930
15409SOL     OW52189   2.818   9.307   3.642 -0.4362  0.1867 -0.1576
15409SOL    HW152190   2.889   9.363   3.673 -1.5506  1.1792  0.7736
15409SOL    HW252191   2.850   9.218   3.652  0.6829  0.6176  0.1894
15410SOL     OW52192   1.809   4.604   3.322  0.1060 -0.4089 -0.0856
15410SOL    HW152193   1.786   4.539   3.255  0.6344 -1.1641  0.4441
15410SOL    HW252194   1.767   4.572   3.402  0.9120 -0.4720  0.3267
15411SOL     OW52195   7.487   6.365  11.337 -0.1915  0.3252  0.6561
15411SOL    HW152196   7.473   6.439  11.397 -0.9031 -0.8526  2.0066
15411SOL    HW252197   7.411   6.368  11.278 -0.8767 -0.0283  1.4922
15412SOL     OW52198   0.748   1.443   6.597  0.6100 -0.0767  0.0626
15412SOL    HW152199   0.739   1.374   6.532  1.2046  0.3900 -0.5358
15412SOL    HW252200   0.726   1.402   6.680 -3.2533  0.0074 -0.7097
15413SOL     OW52201  11.328   2.668   2.836 -1.1043 -0.4822  0.0895
15413SOL    HW152202  11.294   2.580   2.853  1.7986 -1.7197 -0.0406
15413SOL    HW252203  11.408   2.653   2.786 -1.0220  2.3195 -0.7665
15414SOL     OW52204  11.511   1.651   2.316 -0.3375 -0.1462 -0.1313
15414SOL    HW152205  11.441   1.627   2.377 -0.9804 -0.3168 -0.9160
15414SOL    HW252206  11.535   1.740   2.342 -0.1948 -0.4271  0.7359
15415SOL     OW52207   2.936   6.647  10.102  0.4038  0.0944  0.0429
15415SOL    HW152208   2.974   6.729  10.134  1.8359 -0.3127 -0.5190
15415SOL    HW252209   2.883   6.615  10.176  0.9386  0.8339  0.7725
15416SOL     OW52210   2.409   5.415   8.569  0.2362 -0.3761 -0.2816
15416SOL    HW152211   2.498   5.433   8.539  1.1964 -0.3371  2.3006
15416SOL    HW252212   2.381   5.496   8.611 -0.6710 -0.6958 -0.2474
15417SOL     OW52213   7.960   0.888   8.175 -0.5015 -0.2039  0.2335
15417SOL    HW152214   7.948   0.807   8.125  0.4675  0.8547 -1.8646
15417SOL    HW252215   7.884   0.942   8.154 -1.0938 -0.5005  1.5390
15418SOL     OW52216   0.802   8.965  10.329 -0.0362 -0.4254  0.1593
15418SOL    HW152217   0.884   8.953  10.282  0.4951 -0.2777  1.0202
15418SOL    HW252218   0.820   9.037  10.390 -0.3009 -1.4189  1.4509
15419SOL     OW52219   8.627   9.398   0.498  0.2802 -0.5395 -0.5773
15419SOL    HW152220   8.704   9.343   0.486  0.0601 -0.8022 -0.7755
15419SOL    HW252221   8.632   9.462   0.427  1.2130  0.4965  0.3739
15420SOL     OW52222  11.850   8.733   5.390 -0.2804  0.7429  0.1606
15420SOL    HW152223  11.882   8.656   5.437 -1.1056  0.6512  0.5948
15420SOL    HW252224  11.885   8.807   5.438  0.6274  0.6568 -0.3338
15421SOL     OW52225  10.596   8.937   5.480 -0.0382  0.2445  0.1477
15421SOL    HW152226  10.638   8.938   5.566  1.3284 -0.3254 -0.4877
15421SOL    HW252227  10.668   8.950   5.417 -1.1965  2.3681 -0.8742
15422SOL     OW52228   7.918   7.968   2.663 -0.4339 -0.1573  0.6286
15422SOL    HW152229   7.905   7.895   2.723 -2.3236 -0.5371 -0.1815
15422SOL    HW252230   7.987   7.937   2.603 -1.2936 -1.3590  0.2170
15423SOL     OW52231   0.701   0.073  10.151  0.2328  0.6839 -0.8914
15423SOL    HW152232   0.762   0.135  10.190  0.3661 -0.4283  0.7939
15423SOL    HW252233   0.625   0.075  10.209 -0.2678  0.1931 -1.5247
15424SOL     OW52234   7.526   4.409   4.470  0.3442 -0.1675  0.5401
15424SOL    HW152235   7.585   4.428   4.397 -0.2341 -0.3981  0.0035
15424SOL    HW252236   7.575   4.347   4.524  0.0488 -1.5028 -0.6676
15425SOL     OW52237   7.573   3.262   9.066 -0.5511  0.1642 -0.4882
15425SOL    HW152238   7.610   3.326   9.006 -0.6979  2.7178  1.9267
15425SOL    HW252239   7.484   3.248   9.035 -0.1159  0.1069 -1.7776
15426SOL     OW52240   7.866   4.364   2.479 -0.0159  0.1795 -0.2556
15426SOL    HW152241   7.817   4.353   2.560 -2.3619 -0.9669 -1.7463
15426SOL    HW252242   7.920   4.285   2.472 -0.1652  0.0612 -0.0543
15427SOL     OW52243   0.977   6.463   4.610 -0.1347 -0.0834 -0.2085
15427SOL    HW152244   0.968   6.406   4.534 -0.6282 -0.3974  0.0783
15427SOL    HW252245   0.949   6.409   4.684 -2.8712  1.1966 -0.1905
15428SOL     OW52246  11.183   4.078   5.438  0.1769  0.3657  0.4103
15428SOL    HW152247  11.272   4.104   5.461  0.7566  0.5101 -1.7401
15428SOL    HW252248  11.145   4.155   5.395 -0.8029  0.1261  0.8178
15429SOL     OW52249  11.461   9.938   4.606 -0.6963 -0.6745  0.1532
15429SOL    HW152250  11.415   9.960   4.526 -1.1608 -3.4374 -0.4416
15429SOL    HW252251  11.393   9.938   4.674 -0.5785  0.1806  0.2879
15430SOL     OW52252   9.810   8.196   8.390  0.1554  0.1846  0.0010
15430SOL    HW152253   9.782   8.131   8.326  0.3321  0.8345 -0.7533
15430SOL    HW252254   9.898   8.169   8.415  0.1224 -0.0160 -0.1032
15431SOL     OW52255   1.210   4.102   5.190  0.0624  0.0396  0.3611
15431SOL    HW152256   1.156   4.032   5.152  0.2021  0.0826  0.0803
15431SOL    HW252257   1.297   4.088   5.154  0.1564  0.1912  0.5255
15432SOL     OW52258   2.788   9.663   3.484  0.0777 -0.0897  0.3319
15432SOL    HW152259   2.749   9.684   3.399 -2.3613 -1.6019  0.9628
15432SOL    HW252260   2.807   9.748   3.524  1.8587  0.6444 -1.8967
15433SOL     OW52261  10.769   8.390   9.578  0.0677 -0.3819  0.1534
15433SOL    HW152262  10.711   8.351   9.513  1.2891 -0.8345 -0.6972
15433SOL    HW252263  10.721   8.467   9.609 -0.2933  0.2261 -1.7593
15434SOL     OW52264   7.619   5.561   8.251 -0.3514 -0.4968  0.3542
15434SOL    HW152265   7.628   5.654   8.275 -0.1175 -0.2201 -0.7663
15434SOL    HW252266   7.668   5.515   8.320  1.7057  0.3956 -0.4017
15435SOL     OW52267   1.449   2.531   9.317 -0.3819 -0.1790 -0.2338
15435SOL    HW152268   1.527   2.541   9.262 -0.0191 -0.7107  0.1765
15435SOL    HW252269   1.420   2.621   9.333  0.4488  0.0553  0.0296
15436SOL     OW52270   1.923   3.822  10.060 -0.2088 -0.3562 -0.4641
15436SOL    HW152271   1.994   3.772  10.020 -0.4926 -0.9189 -0.2841
15436SOL    HW252272   1.866   3.755  10.098 -0.2101  0.1437  0.4373
15437SOL     OW52273   5.043   0.917   3.339 -0.1976 -0.2110 -0.4459
15437SOL    HW152274   5.054   0.851   3.409  1.2072  0.4371 -0.0156
15437SOL    HW252275   4.977   0.879   3.281  0.9675 -2.2852 -0.5232
15438SOL     OW52276   4.583   4.532  10.297  0.3616  0.2846 -0.1510
15438SOL    HW152277   4.593   4.599  10.365  0.1670 -0.6191  0.7953
15438SOL    HW252278   4.610   4.575  10.216  2.2377  0.8886  0.7470
15439SOL     OW52279   4.920   8.598   0.453  0.2645 -0.5899 -0.1136
15439SOL    HW152280   4.929   8.565   0.364 -1.5113  1.7728 -1.2637
15439SOL    HW252281   4.866   8.533   0.497  0.5992 -1.4471 -0.9327
15440SOL     OW52282  11.245  12.444   9.334  0.5901 -0.0072 -0.1881
15440SOL    HW152283  11.200  12.478   9.257  0.1858  0.4766  0.2477
15440SOL    HW252284  11.299  12.373   9.301 -1.0286 -1.0956 -0.6297
15441SOL     OW52285  12.000   9.112  11.384  0.6770 -0.9566  0.2134
15441SOL    HW152286  11.928   9.078  11.331 -0.2837 -0.3788  1.1129
15441SOL    HW252287  11.985   9.075  11.471  1.2030 -0.4593  0.5224
15442SOL     OW52288  12.241   2.052   8.864 -0.6334 -0.2367 -0.0298
15442SOL    HW152289  12.251   2.052   8.769 -0.9561 -2.1484 -0.1149
15442SOL    HW252290  12.255   1.960   8.889 -0.2728  0.2788  1.8022
15443SOL     OW52291  10.200   0.641   3.590  0.1701  0.0734 -0.2446
15443SOL    HW152292  10.203   0.728   3.551 -0.4721  0.1424 -0.1474
15443SOL    HW252293  10.106   0.620   3.596  0.3173 -0.6139 -0.2490
15444SOL     OW52294  11.503   0.325   4.970 -0.3724  0.0073  0.5068
15444SOL    HW152295  11.424   0.276   4.949  0.2353 -1.6901  1.9110
15444SOL    HW252296  11.482   0.415   4.946 -1.9758 -0.7098 -1.0552
15445SOL     OW52297   7.014   2.615   2.398  0.4460  0.2495  0.4197
15445SOL    HW152298   7.047   2.696   2.360 -1.1312  0.2698 -1.0709
15445SOL    HW252299   6.946   2.643   2.459 -1.4440  0.0783 -1.4944
15446SOL     OW52300  11.447   0.130   1.076  0.1466  0.3853  0.0012
15446SOL    HW152301  11.430   0.222   1.056  2.0581  0.4264 -1.8236
15446SOL    HW252302  11.539   0.128   1.101  0.2390 -1.0850 -0.3768
15447SOL     OW52303   8.038   9.544   6.864 -0.0036 -0.2487 -0.5013
15447SOL    HW152304   7.995   9.613   6.914  1.1239 -0.0298  0.1976
15447SOL    HW252305   8.066   9.480   6.930  1.5916  0.0912 -0.8104
15448SOL     OW52306   8.905   7.983   7.685  0.6981  0.0351 -0.0592
15448SOL    HW152307   8.887   8.060   7.739 -1.0045 -1.3487  1.4562
15448SOL    HW252308   8.878   8.008   7.597  0.2886  1.1939  0.3822
15449SOL     OW52309   7.739   7.653   4.063 -0.0913 -0.5262  0.0219
15449SOL    HW152310   7.758   7.662   4.157  0.1650  0.6830 -0.1294
15449SOL    HW252311   7.731   7.743   4.032 -0.7705 -0.9301 -1.0073
15450SOL     OW52312  12.409   4.528   9.039 -0.6148 -0.4858 -0.6963
15450SOL    HW152313  12.398   4.607   9.091  0.9553 -0.1148 -0.8934
15450SOL    HW252314  12.372   4.458   9.093  2.3583 -0.3920  1.7424
15451SOL     OW52315  11.860   8.186   1.475 -0.3641  0.1134  0.0068
15451SOL    HW152316  11.830   8.109   1.427  1.1539 -0.5328  0.0115
15451SOL    HW252317  11.885   8.151   1.561  0.7481  0.5012 -0.1377
15452SOL     OW52318  12.278   4.340   6.751 -0.3451 -0.4845  0.0764
15452SOL    HW152319  12.269   4.405   6.681  1.6363  0.4730  0.6529
15452SOL    HW252320  12.306   4.390   6.827  1.0700 -1.9685  0.5985
15453SOL     OW52321   8.046   3.449   0.060  0.0603  0.0050  0.7074
15453SOL    HW152322   8.070   3.519   0.000 -1.7070  1.1313  1.2391
15453SOL    HW252323   8.105   3.460   0.135  1.6805 -0.8681 -0.3928
15454SOL     OW52324   6.211   8.562   0.093 -0.5929 -0.4855 -0.0702
15454SOL    HW152325   6.229   8.473   0.123  0.2768 -0.7233 -1.2295
15454SOL    HW252326   6.297   8.605   0.092 -1.0050  0.3819  0.4886
15455SOL     OW52327  10.407   7.684  10.335 -1.0900 -0.0592  0.0617
15455SOL    HW152328  10.420   7.762  10.388 -1.0631 -0.3591  0.5026
15455SOL    HW252329  10.313   7.664  10.343 -0.4713 -2.6189  3.6460
15456SOL     OW52330   8.446   6.863  11.801  0.1957  0.2578  0.2861
15456SOL    HW152331   8.356   6.832  11.809  0.2969  0.1426  1.0206
15456SOL    HW252332   8.462   6.911  11.882  1.3128 -1.0347  0.8704
15457SOL     OW52333   7.021  10.168   7.487 -0.4175  0.5828  0.0077
15457SOL    HW152334   6.988  10.083   7.514  0.2522  0.5842  0.8527
15457SOL    HW252335   7.002  10.226   7.560 -1.5225  1.3421 -0.8479
15458SOL     OW52336   4.067   9.673   6.248  0.0548  0.3981 -0.2363
15458SOL    HW152337   4.140   9.637   6.298  2.3239 -0.2650 -3.7126
15458SOL    HW252338   4.051   9.759   6.287  0.9694 -0.4550  2.1752
15459SOL     OW52339   3.063   0.062  12.331  0.0941 -0.1249 -0.0523
15459SOL    HW152340   3.006   0.033  12.402  0.5278 -3.6651 -0.9999
15459SOL    HW252341   3.140   0.098  12.376 -0.8810  0.4722  1.2204
15460SOL     OW52342   7.530   6.923  11.365  0.5360 -0.0983 -0.3212
15460SOL    HW152343   7.488   6.918  11.280  2.2606 -1.5572 -1.1419
15460SOL    HW252344   7.460   6.950  11.425 -0.8471  0.3609 -2.0633
15461SOL     OW52345   7.906   7.575   6.040  0.2786 -0.8405  0.4508
15461SOL    HW152346   7.910   7.534   5.954  0.2342  0.1018 -0.0147
15461SOL    HW252347   7.965   7.524   6.094  2.5898  0.2724 -0.8909
15462SOL     OW52348   2.769   0.401   6.074 -0.4352 -0.3076  0.4115
15462SOL    HW152349   2.805   0.417   6.161  0.3781 -0.0120  0.0307
15462SOL    HW252350   2.846   0.390   6.018 -0.9481 -0.2723 -0.3133
15463SOL     OW52351   4.868   9.936  11.651 -0.4865 -0.1487 -0.1445
15463SOL    HW152352   4.949   9.886  11.656 -0.9459 -0.9187 -0.3577
15463SOL    HW252353   4.834   9.936  11.741  0.0773  0.7550  0.0885
15464SOL     OW52354   7.800   0.240   3.113 -0.3080 -0.1389 -0.6355
15464SOL    HW152355   7.793   0.335   3.123 -0.2505 -0.1837 -0.1569
15464SOL    HW252356   7.869   0.228   3.048  0.9575  0.1174  0.6143
15465SOL     OW52357   0.384   6.859   3.595 -0.0169 -0.8307  0.1992
15465SOL    HW152358   0.380   6.787   3.533 -0.0079  0.1162 -0.9437
15465SOL    HW252359   0.402   6.818   3.679  0.1562 -2.1326 -0.4534
15466SOL     OW52360   7.447   1.938   4.601 -0.8923 -0.3114 -0.4408
15466SOL    HW152361   7.390   2.002   4.558  1.3041  1.9816 -0.1660
15466SOL    HW252362   7.526   1.938   4.547  0.1894 -0.7614  1.1067
15467SOL     OW52363  10.347   8.323   3.319 -0.3338  0.8343 -0.1594
15467SOL    HW152364  10.398   8.337   3.239  2.0949 -1.7069  0.7923
15467SOL    HW252365  10.387   8.381   3.384 -1.7574  2.2583 -0.4819
15468SOL     OW52366   0.700  12.195   4.997  0.1681 -0.3228 -0.6740
15468SOL    HW152367   0.676  12.123   5.055 -4.8639  1.6560  0.1903
15468SOL    HW252368   0.730  12.264   5.056 -0.4039  0.1285 -0.9077
15469SOL     OW52369  10.686   6.637   7.120  0.3709 -0.3976 -0.1581
15469SOL    HW152370  10.637   6.576   7.175 -1.2628  2.5737  1.9399
15469SOL    HW252371  10.634   6.644   7.040  0.8079 -1.9863 -0.6188
15470SOL     OW52372   6.811   4.341   2.356  0.2573  0.1126  0.2580
15470SOL    HW152373   6.903   4.316   2.359 -0.5224 -3.9871 -2.1091
15470SOL    HW252374   6.773   4.302   2.435  0.0318 -1.2913 -0.5157
15471SOL     OW52375   9.712   7.672   8.215 -0.1297 -0.9435  0.1444
15471SOL    HW152376   9.684   7.717   8.136 -2.5421 -1.7323  0.4660
15471SOL    HW252377   9.632   7.659   8.266  1.1117 -1.8034  2.0304
15472SOL     OW52378   5.250   2.727  11.442  0.2619 -0.1104  0.1762
15472SOL    HW152379   5.207   2.647  11.412  0.6503 -0.1803 -0.2130
15472SOL    HW252380   5.243   2.724  11.538  1.4374 -1.2916  0.2530
15473SOL     OW52381   9.437   0.809   4.172  0.3404 -0.0203 -0.6896
15473SOL    HW152382   9.487   0.868   4.116 -0.9799  1.3378 -0.5061
15473SOL    HW252383   9.376   0.765   4.113 -0.3213  0.6192 -0.4996
15474SOL     OW52384   2.445   9.239   0.566 -0.4027 -0.2563 -0.0660
15474SOL    HW152385   2.494   9.315   0.534 -0.3396  0.3565  1.4243
15474SOL    HW252386   2.456   9.241   0.661 -2.2191 -0.8640  0.2064
15475SOL     OW52387  10.511  12.274   0.511  0.5706 -0.1072 -0.2999
15475SOL    HW152388  10.598  12.285   0.473  0.6282  2.5721  0.3659
15475SOL    HW252389  10.527  12.260   0.605  0.3095 -2.8117 -0.5810
15476SOL     OW52390   1.338   4.002  11.721 -0.5130  0.6257 -0.0840
15476SOL    HW152391   1.303   3.917  11.749 -0.1651  0.5963  0.2857
15476SOL    HW252392   1.320   4.061  11.794 -1.2088  1.0012 -0.5502
15477SOL     OW52393   9.198  12.417   7.487 -0.3890  0.6147 -0.8543
15477SOL    HW152394   9.189  12.495   7.540 -1.8995  1.5581 -2.3959
15477SOL    HW252395   9.110  12.382   7.480 -0.1677  0.2882 -2.3561
15478SOL     OW52396   1.596   9.536  11.719  0.4258  0.4805 -0.4180
15478SOL    HW152397   1.607   9.477  11.793  0.1397  0.3146 -0.5054
15478SOL    HW252398   1.554   9.482  11.652  1.2556  0.4494 -0.9252
15479SOL     OW52399  12.440   3.354   5.015 -0.1101 -0.1872  0.0431
15479SOL    HW152400  12.507   3.295   4.979  0.1672  0.0150  0.2193
15479SOL    HW252401  12.476   3.381   5.100 -1.4169 -1.8155  1.1586
15480SOL     OW52402   4.311   2.548   4.171  0.0639  0.3587 -0.6543
15480SOL    HW152403   4.290   2.495   4.248  0.0890  0.1337 -0.8000
15480SOL    HW252404   4.265   2.504   4.099 -0.9887  1.2792 -0.5665
15481SOL     OW52405   2.946   6.486  11.789  0.2207 -0.3689  0.8023
15481SOL    HW152406   3.036   6.509  11.767  0.0243  0.4737  0.8705
15481SOL    HW252407   2.915   6.558  11.844 -1.0384  0.1692 -0.5658
15482SOL     OW52408   0.262  12.040  10.541 -0.0308  0.7761  0.2011
15482SOL    HW152409   0.169  12.041  10.519  0.3525 -0.3648 -1.7725
15482SOL    HW252410   0.306  12.027  10.456  1.7121 -2.5410  1.4364
15483SOL     OW52411  11.416   2.727  12.481  0.0820 -0.0074 -0.2821
15483SOL    HW152412  11.418   2.640  12.522  2.1149 -1.3551 -2.8957
15483SOL    HW252413  11.433   2.788  12.553  1.3170 -2.0155  1.2423
15484SOL     OW52414   1.231   7.454   2.675  0.3580 -0.0665 -0.0406
15484SOL    HW152415   1.192   7.509   2.743 -0.8914  0.5599 -1.2068
15484SOL    HW252416   1.284   7.514   2.622 -0.9108  0.0507 -1.2441
15485SOL     OW52417   1.489  12.269   2.593 -0.2890  0.2828 -0.2427
15485SOL    HW152418   1.456  12.235   2.510  1.4365 -0.5881 -0.6195
15485SOL    HW252419   1.425  12.240   2.658 -1.4570  0.6381 -1.2042
15486SOL     OW52420   5.557   2.947   8.323  0.3767  0.4794 -0.0714
15486SOL    HW152421   5.493   2.876   8.326  0.6800  0.1259 -1.2799
15486SOL    HW252422   5.583   2.960   8.414 -1.8305  1.0446  0.5296
15487SOL     OW52423   9.167   0.187  10.533 -0.4664  0.2444  0.4525
15487SOL    HW152424   9.212   0.160  10.613  0.9120  0.0661 -0.3478
15487SOL    HW252425   9.233   0.235  10.483 -1.0290 -0.3770 -0.9592
15488SOL     OW52426   8.522   6.744   5.724 -0.0420  0.1314  0.3013
15488SOL    HW152427   8.483   6.675   5.779 -0.0488  0.8436  1.2257
15488SOL    HW252428   8.451   6.774   5.669 -0.6479  0.9140  1.4629
15489SOL     OW52429   4.711   5.700   7.014 -0.4860  0.0893 -1.3744
15489SOL    HW152430   4.751   5.616   6.992  1.3920  0.4806  0.2766
15489SOL    HW252431   4.628   5.677   7.057 -0.2210 -0.8912 -1.3697
15490SOL     OW52432   3.398   0.972   7.761  0.0280 -0.0692  0.1918
15490SOL    HW152433   3.389   1.049   7.816 -0.9999  0.3690 -0.5557
15490SOL    HW252434   3.368   0.900   7.815 -0.9102  0.3447  0.2339
15491SOL     OW52435  12.406   8.649   0.284 -0.1146  0.3309  0.4964
15491SOL    HW152436  12.477   8.683   0.230  0.0514  0.8954  1.0674
15491SOL    HW252437  12.398   8.557   0.257 -0.0796  0.6161 -0.5290
15492SOL     OW52438   4.575   9.752   1.165 -0.3359 -0.3260 -0.0756
15492SOL    HW152439   4.499   9.811   1.164  1.0458  1.6810  2.0138
15492SOL    HW252440   4.641   9.798   1.113  0.4810 -0.3975  0.8640
15493SOL     OW52441  12.364  11.394   7.506  0.2244 -0.1819  0.2196
15493SOL    HW152442  12.311  11.462   7.465 -0.1300  0.1889  1.2477
15493SOL    HW252443  12.314  11.314   7.496  0.0351 -0.0517  0.1227
15494SOL     OW52444   2.583   5.706   9.200  0.0148 -0.2953 -0.0974
15494SOL    HW152445   2.647   5.655   9.249 -0.1196 -2.0974 -1.7011
15494SOL    HW252446   2.633   5.748   9.130 -0.2473 -0.1198 -0.1807
15495SOL     OW52447   5.542   2.410   1.819 -0.1051 -0.4179 -0.4130
15495SOL    HW152448   5.544   2.327   1.867 -0.4206 -0.1714  0.0441
15495SOL    HW252449   5.504   2.472   1.882 -3.5970 -0.7456 -2.0050
15496SOL     OW52450   0.074   0.659   7.686 -0.1414 -0.5070  0.3872
15496SOL    HW152451   0.074   0.745   7.644 -0.9744 -0.4650  0.4526
15496SOL    HW252452  -0.015   0.626   7.672  0.6070 -2.0443 -1.0042
15497SOL     OW52453   6.546   3.517   8.711  0.0365 -0.0208  0.1908
15497SOL    HW152454   6.481   3.525   8.781 -1.4769 -0.5593 -1.0815
15497SOL    HW252455   6.620   3.570   8.741 -0.8356  0.3227  1.8684
15498SOL     OW52456   0.403   8.837   9.910 -0.1552 -0.0341 -0.5998
15498SOL    HW152457   0.350   8.830   9.831  0.3741  0.6895 -1.0371
15498SOL    HW252458   0.447   8.753   9.918 -0.9734 -0.4617 -0.5106
15499SOL     OW52459   9.805   7.369   2.232 -1.1503  0.6277  0.2856
15499SOL    HW152460   9.873   7.352   2.167 -0.4167  1.1598  0.8947
15499SOL    HW252461   9.723   7.345   2.189 -0.7865  1.8888 -1.1873
15500SOL     OW52462   1.960  10.733   6.717 -0.3993 -0.2459 -0.2473
15500SOL    HW152463   1.981  10.763   6.628  1.3699 -1.4598 -0.2820
15500SOL    HW252464   2.019  10.783   6.773  1.9641 -2.8202 -0.2294
15501SOL     OW52465   7.827   2.331   8.267 -0.0414 -0.0614  0.4513
15501SOL    HW152466   7.761   2.393   8.234 -2.2665 -2.9691 -1.0895
15501SOL    HW252467   7.883   2.383   8.324 -0.0517  3.9531 -2.7358
15502SOL     OW52468  10.531   7.064   4.368 -0.2440 -0.0860 -0.5232
15502SOL    HW152469  10.445   7.037   4.400  0.5264 -1.1836  0.6982
15502SOL    HW252470  10.588   7.057   4.444  1.1237 -0.3088 -1.5409
15503SOL     OW52471   6.912   0.622   7.280 -0.3201 -0.2546 -0.0226
15503SOL    HW152472   6.928   0.528   7.285  0.9469 -0.0520  0.1757
15503SOL    HW252473   6.829   0.636   7.326 -0.0505 -1.1598  0.7582
15504SOL     OW52474   4.907   8.585  10.769  0.2226  0.3431  0.5819
15504SOL    HW152475   4.911   8.512  10.832 -2.6127  2.1047  3.0642
15504SOL    HW252476   4.980   8.641  10.793  1.3834 -0.7613 -0.2207
15505SOL     OW52477  10.155   4.422   2.106  0.5372  1.1447 -0.0116
15505SOL    HW152478  10.062   4.429   2.088  0.3466 -1.2245 -0.2098
15505SOL    HW252479  10.197   4.427   2.020  0.2914 -1.2428 -0.3191
15506SOL     OW52480   2.038   9.503   6.182  0.3426 -0.2238  0.0298
15506SOL    HW152481   2.015   9.536   6.269  2.0615  0.5632  0.2209
15506SOL    HW252482   1.960   9.520   6.128 -0.8257 -0.8924  1.4231
15507SOL     OW52483   4.305   9.953   4.138 -0.3886 -0.9636  0.6399
15507SOL    HW152484   4.354   9.998   4.208  0.2188  0.4290 -0.6083
15507SOL    HW252485   4.356   9.971   4.059 -1.8416 -1.2294 -0.3945
15508SOL     OW52486  10.364   3.783   8.178 -0.2826  0.3865  0.0078
15508SOL    HW152487  10.276   3.787   8.141 -0.5458 -0.5364  0.5021
15508SOL    HW252488  10.375   3.867   8.222 -0.6765  0.7532 -0.5856
15509SOL     OW52489   8.148  10.682   6.868  0.4562  0.1652  0.0525
15509SOL    HW152490   8.100  10.639   6.939  0.1628 -0.3808 -0.4680
15509SOL    HW252491   8.240  10.663   6.887  0.6357  2.3458  1.8093
15510SOL     OW52492   9.150   2.470   8.725  0.1618 -0.0752  0.4445
15510SOL    HW152493   9.223   2.426   8.768 -0.6239 -1.0326  0.8295
15510SOL    HW252494   9.130   2.545   8.781  1.5167  0.8305 -0.2233
15511SOL     OW52495   9.985   3.191  11.520  0.1610 -0.3595  0.4111
15511SOL    HW152496   9.943   3.202  11.605  1.0731 -1.4842  1.0425
15511SOL    HW252497   9.987   3.279  11.482 -0.9926  0.0235  1.1845
15512SOL     OW52498   4.376   3.101   6.551 -0.4071 -0.0888 -0.1653
15512SOL    HW152499   4.386   3.006   6.557  0.0537 -0.0148  0.3177
15512SOL    HW252500   4.344   3.126   6.638  0.0458  0.2693 -0.1015
15513SOL     OW52501   8.227   8.652   5.754  0.1257  0.0870 -0.3128
15513SOL    HW152502   8.238   8.590   5.826  0.7849  1.1358  0.5203
15513SOL    HW252503   8.226   8.597   5.676  2.4346 -0.8654  0.2462
15514SOL     OW52504   2.813   2.572   1.344 -0.3644 -0.5945  0.3848
15514SOL    HW152505   2.755   2.648   1.351 -0.8646 -0.7222 -1.7205
15514SOL    HW252506   2.754   2.497   1.347 -0.1286 -0.7950  0.0405
15515SOL     OW52507   1.732   0.728   6.348 -0.1229 -0.0194 -0.4348
15515SOL    HW152508   1.810   0.706   6.400 -0.2537  0.6463  0.0446
15515SOL    HW252509   1.663   0.672   6.385 -0.2881  0.6656  0.3230
15516SOL     OW52510   4.963   3.338   0.414 -0.0064 -0.4121 -0.2037
15516SOL    HW152511   4.926   3.250   0.410  0.3585 -0.6035  0.4500
15516SOL    HW252512   4.930   3.382   0.335 -0.1338 -1.1532 -0.5729
15517SOL     OW52513  12.349   3.013   0.273 -0.4144 -0.2435 -0.3575
15517SOL    HW152514  12.271   3.067   0.271  0.6283  1.3099 -0.8251
15517SOL    HW252515  12.403   3.045   0.200 -0.1191 -2.5075 -1.2114
15518SOL     OW52516   7.042   6.402   1.352 -0.0444  0.5123  0.1091
15518SOL    HW152517   7.109   6.403   1.419 -0.1621 -0.4601  0.2526
15518SOL    HW252518   7.086   6.434   1.273 -0.0708  2.3056  0.7676
15519SOL     OW52519  10.447   9.891   7.432  0.2944  0.6084  0.3466
15519SOL    HW152520  10.474   9.866   7.520 -1.1800  0.7961  0.8822
15519SOL    HW252521  10.507   9.844   7.374  0.4320 -0.5895  1.4190
15520SOL     OW52522  10.504   3.632   9.900  0.2960 -0.5787  0.0752
15520SOL    HW152523  10.581   3.585   9.931  1.9621  1.5649 -0.5781
15520SOL    HW252524  10.492   3.703   9.963 -1.5142 -1.1483  0.4477
15521SOL     OW52525   5.182   4.112   4.131  0.3319  0.4919 -0.1115
15521SOL    HW152526   5.093   4.084   4.151  0.0361  1.1232 -0.5201
15521SOL    HW252527   5.235   4.032   4.139 -0.5528 -0.2956 -1.7280
15522SOL     OW52528  11.948   3.926   4.083  0.1243 -0.4420 -0.3216
15522SOL    HW152529  11.890   3.857   4.050  0.5174 -1.0139  0.1825
15522SOL    HW252530  11.932   4.000   4.024 -1.8650 -0.2443  0.3843
15523SOL     OW52531   7.348   9.037   1.257  0.4932 -0.7642  0.0650
15523SOL    HW152532   7.285   9.012   1.190  0.9256 -1.5517 -0.0635
15523SOL    HW252533   7.387   8.954   1.286  1.3254 -0.3144  0.2863
15524SOL     OW52534  12.042   8.761   2.184 -0.7608  0.3721 -0.5570
15524SOL    HW152535  11.983   8.833   2.209 -1.4638  0.1414 -1.5112
15524SOL    HW252536  12.047   8.766   2.089 -0.8552 -0.8661 -0.6401
15525SOL     OW52537   6.336   1.263   0.994 -0.0597  0.2860  0.0291
15525SOL    HW152538   6.351   1.333   1.058  1.9159 -0.1773  0.1217
15525SOL    HW252539   6.360   1.302   0.910 -0.4661  0.1980 -0.1274
15526SOL     OW52540   3.626   3.366   0.170 -0.0577  1.4810 -0.7704
15526SOL    HW152541   3.535   3.398   0.172 -0.4428  0.4720 -1.2725
15526SOL    HW252542   3.678   3.444   0.150 -0.8773  1.9532 -1.1351
15527SOL     OW52543   7.549   2.580  12.249  0.4458 -0.0808  0.1118
15527SOL    HW152544   7.633   2.539  12.227  0.6146  0.0613  0.4838
15527SOL    HW252545   7.572   2.654  12.305  0.0533 -0.2079  0.4483
15528SOL     OW52546   1.640   2.282   6.821  0.3849 -0.0932  0.0452
15528SOL    HW152547   1.557   2.273   6.868  0.8037 -0.1817  0.7823
15528SOL    HW252548   1.636   2.369   6.780  1.1201  1.1774  2.4986
15529SOL     OW52549   1.728   9.520   3.825 -0.0209 -0.3511  0.0759
15529SOL    HW152550   1.693   9.496   3.739  0.9115  0.9416 -0.7012
15529SOL    HW252551   1.791   9.451   3.845  1.6459  0.6053 -1.5128
15530SOL     OW52552  12.471   5.274   9.630 -0.4113  0.7107  0.0308
15530SOL    HW152553  12.544   5.331   9.605 -0.4289  0.3777 -0.8190
15530SOL    HW252554  12.396   5.333   9.637 -0.0930  1.0349  0.7848
15531SOL     OW52555   8.470   8.624   4.816  0.4262 -0.1836 -0.4410
15531SOL    HW152556   8.475   8.583   4.729 -3.7196  0.8742 -1.3841
15531SOL    HW252557   8.387   8.592   4.853 -0.1281  2.8105  1.2255
15532SOL     OW52558   7.701   4.645   0.564 -0.0001 -0.3700 -0.4181
15532SOL    HW152559   7.677   4.587   0.491  0.2544 -0.2494 -0.5988
15532SOL    HW252560   7.766   4.704   0.527  0.0305 -0.2210 -0.1263
15533SOL     OW52561   9.514   3.856   4.095 -0.5624 -0.2530  0.2059
15533SOL    HW152562   9.467   3.906   4.029  1.0273 -0.5323 -1.2035
15533SOL    HW252563   9.606   3.858   4.067  0.0087 -1.3122  1.8082
15534SOL     OW52564   1.251   5.222   8.976 -0.4483  0.4680 -0.3232
15534SOL    HW152565   1.266   5.144   9.030  0.7932 -1.3416 -3.0773
15534SOL    HW252566   1.288   5.294   9.027  0.0336 -1.0009  1.5180
15535SOL     OW52567   4.719   1.743   0.947 -0.6120  0.4633 -0.2510
15535SOL    HW152568   4.668   1.686   0.889  1.3173 -1.8771  0.2050
15535SOL    HW252569   4.728   1.693   1.028  0.5988  1.7203  0.4282
15536SOL     OW52570  10.491   0.150   1.456  0.4120  0.1479 -0.2555
15536SOL    HW152571  10.461   0.209   1.387  0.8007 -0.0442 -0.5900
15536SOL    HW252572  10.446   0.180   1.535  1.3889  1.5698 -0.1968
15537SOL     OW52573   4.542   0.044   2.817  0.0143  0.0423 -0.3628
15537SOL    HW152574   4.586   0.091   2.888 -0.5994  0.5363 -0.3071
15537SOL    HW252575   4.593  -0.037   2.808  1.8756  1.2551 -1.3183
15538SOL     OW52576   1.226   6.926  11.965 -0.0930 -0.4373 -0.2733
15538SOL    HW152577   1.136   6.916  11.932  0.0404  0.0046 -0.7922
15538SOL    HW252578   1.279   6.941  11.886  0.2884  0.2847  0.1118
15539SOL     OW52579   6.185   4.845  10.149  0.4524  0.1202  0.0361
15539SOL    HW152580   6.225   4.777  10.095  0.5741 -1.5827  2.1809
15539SOL    HW252581   6.124   4.889  10.089 -1.4847 -3.4368 -0.9020
15540SOL     OW52582  11.260   2.205   6.986  0.3825 -0.1481  0.1958
15540SOL    HW152583  11.341   2.193   6.937  0.8227  1.0959  0.5829
15540SOL    HW252584  11.282   2.270   7.053 -0.7428 -0.3338  0.7694
15541SOL     OW52585   6.590   0.550   2.333 -0.1536  0.3275 -0.3293
15541SOL    HW152586   6.522   0.616   2.320  1.0791  1.6706 -0.2146
15541SOL    HW252587   6.640   0.550   2.252  1.5229  1.5695  0.6267
15542SOL     OW52588  11.513   2.417   3.602  0.3414  0.1276 -1.2737
15542SOL    HW152589  11.475   2.347   3.655  2.2436  0.0040  0.0208
15542SOL    HW252590  11.605   2.391   3.590  1.3259  2.7274 -0.0859
15543SOL     OW52591   3.351   0.698   0.549 -0.1919  0.4290 -0.0999
15543SOL    HW152592   3.429   0.679   0.497 -0.5152  1.0639 -0.8481
15543SOL    HW252593   3.286   0.633   0.520  0.5686 -1.2728  1.8130
15544SOL     OW52594   0.186  10.196   6.420  0.2446 -0.0347 -0.1081
15544SOL    HW152595   0.261  10.255   6.418 -0.1657  0.6700  2.1392
15544SOL    HW252596   0.190  10.155   6.506 -2.2087  0.4241  0.3130
15545SOL     OW52597   1.300   0.760   8.942 -0.0140  0.2611  0.3341
15545SOL    HW152598   1.378   0.798   8.902  1.8062 -2.6438  0.7904
15545SOL    HW252599   1.314   0.772   9.036 -0.8625  0.9991  0.3725
15546SOL     OW52600   4.960   5.635   1.679  0.0375 -0.2608 -0.0153
15546SOL    HW152601   4.877   5.623   1.633  1.0811  1.3301 -2.5171
15546SOL    HW252602   5.009   5.555   1.662 -0.5208 -0.7216  0.4976
15547SOL     OW52603   6.873   3.018   7.946  0.4919 -0.3919 -0.5688
15547SOL    HW152604   6.940   2.950   7.936  0.2814 -0.6088 -0.5216
15547SOL    HW252605   6.841   3.033   7.857 -0.5655 -1.4904 -0.4012
15548SOL     OW52606   5.556  12.344   0.058 -0.1175  0.1968  0.5644
15548SOL    HW152607   5.552  12.439   0.055  0.1630  0.3058  2.5959
15548SOL    HW252608   5.629  12.325   0.118 -0.5288 -1.2921  0.6279
15549SOL     OW52609   1.966   5.830   9.516  0.1855  0.3421 -0.5038
15549SOL    HW152610   2.006   5.783   9.443 -2.0050 -1.0432 -0.9033
15549SOL    HW252611   1.966   5.767   9.588 -0.2898  0.6743 -0.2048
15550SOL     OW52612   6.106   0.145   4.567 -0.2132 -0.0032 -0.0439
15550SOL    HW152613   6.051   0.188   4.633  1.2896  0.4249  0.9907
15550SOL    HW252614   6.058   0.066   4.543 -0.3547 -0.7170  2.3409
15551SOL     OW52615   1.569   8.267   8.806 -0.2735  0.2540 -0.2621
15551SOL    HW152616   1.662   8.244   8.803  0.0606  1.4952  0.0278
15551SOL    HW252617   1.538   8.235   8.891  0.3585  1.4396  0.4443
15552SOL     OW52618  11.062   4.189   5.145  0.0111  0.3404  0.5408
15552SOL    HW152619  11.043   4.277   5.111 -1.6550  0.4209  1.5634
15552SOL    HW252620  10.982   4.139   5.128  0.7610 -0.8477  0.4285
15553SOL     OW52621  10.793  11.208   3.286 -0.0757  0.3429  0.4792
15553SOL    HW152622  10.745  11.272   3.338  0.8046  1.3509  0.1024
15553SOL    HW252623  10.856  11.260   3.236  1.5817 -0.9193  1.1269
15554SOL     OW52624   7.790  10.664   2.271 -0.2850  0.0637 -0.1995
15554SOL    HW152625   7.880  10.635   2.258 -0.7257 -1.0073 -1.0721
15554SOL    HW252626   7.779  10.667   2.366 -0.1523 -2.6437 -0.0119
15555SOL     OW52627  10.746   4.608  12.404 -1.1382 -0.2777 -0.3426
15555SOL    HW152628  10.774   4.517  12.408  0.4501  0.2421  1.9921
15555SOL    HW252629  10.813   4.651  12.350 -0.7755 -0.1496  0.2012
15556SOL     OW52630   0.752  10.933   7.409 -0.0915  0.4498 -0.4470
15556SOL    HW152631   0.847  10.926   7.398  0.0382  0.9885  0.2240
15556SOL    HW252632   0.740  10.945   7.503 -0.8621 -0.1022 -0.4711
15557SOL     OW52633   6.539   1.173   3.273 -0.8693 -0.4330 -0.1640
15557SOL    HW152634   6.489   1.092   3.262 -0.1573 -1.0672  0.9574
15557SOL    HW252635   6.481   1.230   3.323 -0.3133 -1.4210  1.7539
15558SOL     OW52636   5.875   5.164   4.830  0.3407 -0.6786 -0.6886
15558SOL    HW152637   5.881   5.080   4.783 -1.4253 -1.0033 -0.4002
15558SOL    HW252638   5.853   5.139   4.919 -1.7979  0.1009 -0.9350
15559SOL     OW52639   0.779   7.501   7.682 -0.4339  1.0451  0.3324
15559SOL    HW152640   0.820   7.548   7.610 -0.1197  0.5380  0.1750
15559SOL    HW252641   0.685   7.512   7.668 -0.3784  0.8390 -0.2344
15560SOL     OW52642  12.285   7.972   9.385 -0.0429 -1.1009 -0.0235
15560SOL    HW152643  12.259   8.031   9.313  0.8110  0.9170  1.2413
15560SOL    HW252644  12.205   7.922   9.404 -1.1018  0.3066 -0.5621
15561SOL     OW52645  10.028   4.618  11.408  0.1599 -0.3076  0.2810
15561SOL    HW152646   9.957   4.588  11.466  1.0798 -0.5395  1.3333
15561SOL    HW252647   9.983   4.659  11.334 -1.1085 -2.1273 -0.0217
15562SOL     OW52648   7.314   2.881   2.595  0.3663 -0.0606  0.2736
15562SOL    HW152649   7.268   2.900   2.513 -0.1512  0.8450  0.7606
15562SOL    HW252650   7.377   2.812   2.572  0.7655  0.7186 -1.0574
15563SOL     OW52651   3.915   3.019   9.852  0.2659  0.0891  0.5406
15563SOL    HW152652   3.929   3.105   9.812  1.1266  0.2282  1.1234
15563SOL    HW252653   3.951   2.957   9.789 -0.3607  0.1415  0.1151
15564SOL     OW52654   5.104   2.463   1.081  0.0101 -0.8285  0.3159
15564SOL    HW152655   5.155   2.408   1.141  1.8051  1.6803  1.2319
15564SOL    HW252656   5.053   2.520   1.138 -1.9176 -1.5526 -0.6154
15565SOL     OW52657   8.267  11.102   9.995  0.4224 -0.0103  0.8217
15565SOL    HW152658   8.311  11.019  10.013  0.2937 -0.4991 -0.9226
15565SOL    HW252659   8.338  11.166   9.985  0.7328 -0.5920 -0.9939
15566SOL     OW52660   3.896   4.049   5.152 -0.8662  0.0731 -0.2381
15566SOL    HW152661   3.968   4.098   5.192  1.5082 -2.2059 -1.3720
15566SOL    HW252662   3.931   3.961   5.142 -3.6227 -0.9679 -1.5435
15567SOL     OW52663   9.588   4.851  10.492  0.1894 -0.0277 -0.2589
15567SOL    HW152664   9.578   4.917  10.423 -0.1238 -1.5540 -1.7459
15567SOL    HW252665   9.682   4.828  10.489  0.1870 -0.0493 -0.1509
15568SOL     OW52666  11.631  10.825   6.559  0.4911  0.0897  0.5580
15568SOL    HW152667  11.667  10.893   6.616  0.6926 -0.6252  1.2961
15568SOL    HW252668  11.538  10.847   6.551  0.8573  1.3322 -0.4849
15569SOL     OW52669   6.811   4.270  11.211 -0.2402  0.3130  0.3294
15569SOL    HW152670   6.859   4.353  11.206  1.6536 -0.7930 -1.7596
15569SOL    HW252671   6.758   4.268  11.131  1.2198 -1.2818 -0.6498
15570SOL     OW52672   0.246  11.960  12.133  0.0081  0.0909  0.2445
15570SOL    HW152673   0.298  11.997  12.062 -1.3763  2.3794  0.3209
15570SOL    HW252674   0.289  11.990  12.213 -0.6060  0.8584  0.3077
15571SOL     OW52675   4.914  11.159  11.078  0.3750  0.4993 -0.3906
15571SOL    HW152676   4.826  11.167  11.042  0.3135  1.8147 -0.0053
15571SOL    HW252677   4.903  11.173  11.172  0.9077 -0.0575 -0.2369
15572SOL     OW52678   9.213   5.666  10.048  0.0300  0.6173  0.2704
15572SOL    HW152679   9.240   5.660  10.140  0.6931  0.1661  0.0596
15572SOL    HW252680   9.143   5.731  10.047 -2.5941 -1.9697  1.6586
15573SOL     OW52681   5.169   4.088   1.466  0.5807 -0.1962  0.0151
15573SOL    HW152682   5.187   4.181   1.482  0.6164 -0.0146 -0.9682
15573SOL    HW252683   5.100   4.088   1.399 -1.3066 -0.8953  1.8656
15574SOL     OW52684   2.063  10.996   8.626 -0.5314 -0.0141  0.3673
15574SOL    HW152685   2.152  11.004   8.661 -0.1673  0.9683 -0.7260
15574SOL    HW252686   2.076  10.967   8.535 -1.3841 -0.9806  0.5415
15575SOL     OW52687  10.925   4.978  11.704 -0.8451  0.4773  0.0875
15575SOL    HW152688  10.903   5.029  11.782 -0.5883 -0.4480  0.7948
15575SOL    HW252689  10.850   4.920  11.691 -0.5352  0.0616  0.1381
15576SOL     OW52690   7.740   1.444   6.465  0.0144  0.4994  0.1912
15576SOL    HW152691   7.764   1.437   6.558  1.1258  2.0796  0.0712
15576SOL    HW252692   7.809   1.396   6.419 -0.9432 -0.9332  0.1820
15577SOL     OW52693   2.951  12.196  12.463  0.2684 -0.2569 -0.4888
15577SOL    HW152694   2.881  12.261  12.452 -1.3932 -1.8666  0.0978
15577SOL    HW252695   2.921  12.120  12.412 -0.6783 -2.6412  3.2092
15578SOL     OW52696   6.741   7.785  11.831 -0.0320 -0.5742 -0.0710
15578SOL    HW152697   6.744   7.773  11.926  0.6644  0.6815  0.0840
15578SOL    HW252698   6.753   7.879  11.818 -0.8894 -0.6162 -1.3798
15579SOL     OW52699   9.315   4.353   2.067 -0.2083  0.1212  0.0173
15579SOL    HW152700   9.274   4.302   2.138  0.0498 -0.9702 -0.5883
15579SOL    HW252701   9.358   4.287   2.013  0.1665  1.0107 -0.7893
15580SOL     OW52702   0.783   4.346   6.984 -0.5902  0.4546 -0.0356
15580SOL    HW152703   0.790   4.253   6.961 -1.7759  0.6580 -1.3599
15580SOL    HW252704   0.836   4.355   7.063 -0.3121 -1.3110  0.0259
15581SOL     OW52705  10.370   5.156  10.529  0.0552  0.1730 -0.3815
15581SOL    HW152706  10.341   5.247  10.521  0.1988  0.2902  0.3609
15581SOL    HW252707  10.409   5.151  10.617 -0.3609 -0.7154 -0.2388
15582SOL     OW52708   9.941   8.613   9.522  0.0819  0.1295  0.0338
15582SOL    HW152709   9.870   8.580   9.577 -1.7602  1.4890 -1.3936
15582SOL    HW252710   9.927   8.707   9.519  1.6280  0.3667 -0.7944
15583SOL     OW52711   0.069   7.307   0.829  0.6030  0.3207 -0.9835
15583SOL    HW152712   0.091   7.267   0.745  1.0597  1.3375 -1.3551
15583SOL    HW252713  -0.027   7.303   0.832  0.6336 -0.8134 -0.9964
15584SOL     OW52714   6.899  11.723   1.832  0.2337  0.3723 -0.5445
15584SOL    HW152715   6.977  11.757   1.789  0.9394 -1.3044 -0.6707
15584SOL    HW252716   6.840  11.798   1.838  1.5738  1.5097 -1.0747
15585SOL     OW52717  11.989  10.473  12.008 -0.0436 -0.3445  0.0058
15585SOL    HW152718  12.053  10.403  11.998 -0.3237 -0.2734 -3.0516
15585SOL    HW252719  11.905  10.428  12.016 -0.1535 -0.4002 -1.3233
15586SOL     OW52720   0.751   5.528   6.001 -0.2074 -0.1602 -0.5474
15586SOL    HW152721   0.754   5.562   5.912 -0.3566 -1.7956 -1.2199
15586SOL    HW252722   0.790   5.441   5.994  1.3422  0.3294  1.3166
15587SOL     OW52723   9.699   4.364   6.481  0.5494  0.3348 -0.3871
15587SOL    HW152724   9.603   4.371   6.481  0.4713 -0.4034 -1.4878
15587SOL    HW252725   9.724   4.377   6.572 -0.8691 -2.4462  0.5116
15588SOL     OW52726   2.800  11.906   2.685 -0.1027 -0.1619  0.3927
15588SOL    HW152727   2.882  11.855   2.679 -0.3970 -0.4501 -3.4195
15588SOL    HW252728   2.747  11.857   2.749  2.6511  0.1883  3.2159
15589SOL     OW52729   2.656   4.743   1.013 -0.2341 -0.5573  0.0057
15589SOL    HW152730   2.589   4.809   1.028  0.2149 -0.2739  0.8410
15589SOL    HW252731   2.618   4.684   0.948 -0.1196  1.2693 -1.7963
15590SOL     OW52732   7.855   1.592   1.574  0.0230  0.7193 -0.0031
15590SOL    HW152733   7.916   1.626   1.640  1.4441  0.6442 -1.2089
15590SOL    HW252734   7.772   1.582   1.620  1.2241 -0.3821  2.0720
15591SOL     OW52735   8.452   1.326   4.515  0.4969 -0.3275  0.3131
15591SOL    HW152736   8.508   1.386   4.467 -0.0297  0.6206  0.8418
15591SOL    HW252737   8.416   1.379   4.586 -1.6107 -0.6891 -0.4037
15592SOL     OW52738  12.340   7.110   6.501 -0.1433 -0.0613  0.5018
15592SOL    HW152739  12.262   7.142   6.547  0.3438 -0.4179  1.6108
15592SOL    HW252740  12.317   7.115   6.409 -1.2337  0.4817  0.7871
15593SOL     OW52741   6.111   2.914   0.188 -0.1257  0.6267 -0.0675
15593SOL    HW152742   6.080   2.847   0.249  0.9805  1.6126  1.6658
15593SOL    HW252743   6.036   2.931   0.131  0.1884 -3.6726 -2.1933
15594SOL     OW52744   8.476   1.157   6.850  0.0498 -0.1562  0.5545
15594SOL    HW152745   8.408   1.110   6.802 -0.0910 -1.4213  1.9298
15594SOL    HW252746   8.428   1.227   6.895 -0.1102 -0.1727  0.4127
15595SOL     OW52747   7.349  10.433  11.340 -0.5403 -0.1287  0.0402
15595SOL    HW152748   7.314  10.421  11.428 -1.9629  0.4349 -0.4159
15595SOL    HW252749   7.281  10.399  11.282 -1.1232  2.4594 -0.9349
15596SOL     OW52750  10.015  11.574   6.757 -0.2612  0.3564  0.1694
15596SOL    HW152751  10.014  11.583   6.853 -0.8205 -1.8072  0.4366
15596SOL    HW252752  10.103  11.544   6.737  0.4918  2.7083 -0.2748
15597SOL     OW52753  11.336   5.876   7.899  0.0804 -0.2600 -0.0341
15597SOL    HW152754  11.423   5.887   7.860  0.1103  0.0193  0.1029
15597SOL    HW252755  11.279   5.931   7.846 -0.2297 -1.3167 -0.8209
15598SOL     OW52756   7.085   2.918  11.082 -0.2478 -0.1099  0.1233
15598SOL    HW152757   6.991   2.914  11.063  0.1858  0.1352 -2.3506
15598SOL    HW252758   7.114   2.827  11.075 -0.4792 -0.4271  2.3640
15599SOL     OW52759   0.497   5.611   3.154 -0.0456  0.3657  0.3431
15599SOL    HW152760   0.515   5.612   3.060 -1.6341  0.6083  0.0257
15599SOL    HW252761   0.580   5.637   3.195  0.8008 -0.2117 -0.9504
15600SOL     OW52762   7.074   8.901  10.544 -0.0493 -0.2679  0.1190
15600SOL    HW152763   7.162   8.891  10.508  0.1684 -0.5662  0.7221
15600SOL    HW252764   7.065   8.996  10.559 -1.2458  0.3291 -3.4118
15601SOL     OW52765   4.201  11.413   6.081  0.0336  0.5578  0.3474
15601SOL    HW152766   4.114  11.374   6.092 -0.2296  1.4731  1.9865
15601SOL    HW252767   4.202  11.445   5.991 -0.3662 -1.6294 -0.4948
15602SOL     OW52768   0.703  10.278  11.524 -0.3615 -0.7247 -0.0166
15602SOL    HW152769   0.777  10.290  11.583  0.0936 -0.8451 -0.5524
15602SOL    HW252770   0.671  10.190  11.543 -0.1486 -0.8042 -0.0197
15603SOL     OW52771   8.421  10.085   1.441  0.5389  0.1151 -0.0879
15603SOL    HW152772   8.368  10.041   1.508  0.6621  0.1759  0.0518
15603SOL    HW252773   8.420  10.026   1.366 -0.2581  0.4071 -0.3180
15604SOL     OW52774   5.661   2.394   7.726  0.0599 -0.1896 -0.0289
15604SOL    HW152775   5.728   2.404   7.658 -1.0554 -1.2209 -1.3369
15604SOL    HW252776   5.594   2.459   7.703  0.4099  0.6075  1.0813
15605SOL     OW52777   4.442   0.020   2.104  0.1050 -0.7684  0.5463
15605SOL    HW152778   4.457   0.060   2.018  1.4483  1.2331  1.6129
15605SOL    HW252779   4.503  -0.053   2.107  1.1663  0.0719  0.3153
15606SOL     OW52780   9.690   3.941  11.571  0.2786 -0.5070 -0.5035
15606SOL    HW152781   9.750   3.945  11.497  0.1311 -0.2363 -0.6092
15606SOL    HW252782   9.747   3.930  11.648  0.4206 -0.9602 -0.6738
15607SOL     OW52783   3.844   5.941   0.063 -0.9620  0.5859  0.0162
15607SOL    HW152784   3.929   5.980   0.086 -0.9931 -0.2231  1.6520
15607SOL    HW252785   3.784   6.015   0.055 -0.4363  1.0525  0.3823
15608SOL     OW52786   2.357   7.709   6.807 -0.5524 -0.2245  0.1091
15608SOL    HW152787   2.286   7.645   6.812 -0.0492 -0.8205 -0.3344
15608SOL    HW252788   2.414   7.676   6.738 -0.1532  0.5708  0.0569
15609SOL     OW52789  11.937   1.843   7.515  0.2645 -0.5048  0.1839
15609SOL    HW152790  11.980   1.760   7.539 -0.2831 -0.3277  1.9501
15609SOL    HW252791  11.848   1.817   7.491  0.7617 -0.6601 -1.5992
15610SOL     OW52792   6.534   5.966   9.215  0.6131 -0.0538  0.2674
15610SOL    HW152793   6.576   5.933   9.294  1.0093  0.7130  0.3876
15610SOL    HW252794   6.447   5.926   9.215 -1.1224  3.1733  3.4014
15611SOL     OW52795   1.650   1.137   1.821  0.2363  0.0618 -0.0289
15611SOL    HW152796   1.686   1.185   1.896  1.0466 -1.5117  0.6300
15611SOL    HW252797   1.631   1.205   1.757  1.0278  1.3041  0.9891
15612SOL     OW52798  11.211   5.872  11.158 -0.2980 -0.2850 -0.1600
15612SOL    HW152799  11.211   5.790  11.206  0.7855  0.7972  1.8290
15612SOL    HW252800  11.282   5.923  11.197 -0.0823  1.1036 -2.2146
15613SOL     OW52801   2.256   6.030   9.178  0.2211  0.4653 -0.0356
15613SOL    HW152802   2.197   6.055   9.107  1.4891  0.0848 -1.2768
15613SOL    HW252803   2.314   5.965   9.138  0.4689 -0.3440  1.5869
15614SOL     OW52804  10.570  10.957  10.863  0.4114 -0.0423 -0.1959
15614SOL    HW152805  10.529  10.940  10.948  1.2385 -3.7203 -0.3773
15614SOL    HW252806  10.496  10.977  10.805 -0.3094  0.9050  0.9793
15615SOL     OW52807   3.303   0.233   2.725  0.0387 -0.0980 -0.5529
15615SOL    HW152808   3.366   0.206   2.658 -1.5603 -0.9810 -1.7722
15615SOL    HW252809   3.316   0.172   2.797  1.0273  0.1650 -0.4996
15616SOL     OW52810   2.303   1.618   7.777 -0.2312 -0.2093 -0.1929
15616SOL    HW152811   2.241   1.675   7.731  0.8089  1.2377  0.1278
15616SOL    HW252812   2.266   1.530   7.768 -1.4812  0.4019 -1.3842
15617SOL     OW52813   1.013   7.932  11.828  0.1029  0.3887 -0.2375
15617SOL    HW152814   0.989   7.845  11.859  1.2956  0.6131  1.4721
15617SOL    HW252815   0.940   7.988  11.854  0.0329  0.1541  0.0727
15618SOL     OW52816   4.196   5.296   8.876 -0.1827 -0.3533  0.0498
15618SOL    HW152817   4.180   5.220   8.820  0.1598 -1.1186  0.9680
15618SOL    HW252818   4.192   5.262   8.965 -2.2377  1.1140  0.5977
15619SOL     OW52819   0.871   5.310  11.285  0.5174 -0.0367 -0.0515
15619SOL    HW152820   0.858   5.224  11.246  1.9035  0.5274 -1.9180
15619SOL    HW252821   0.791   5.359  11.265 -0.3154 -0.8758  1.0996
15620SOL     OW52822   1.241   1.355   0.677 -0.1849  0.3513  0.1032
15620SOL    HW152823   1.202   1.426   0.728  0.2074 -0.1786  1.1873
15620SOL    HW252824   1.168   1.297   0.656 -0.2072  0.0653  0.9389
15621SOL     OW52825   6.451   9.986  12.084 -0.0765 -0.1684  0.3019
15621SOL    HW152826   6.484   9.940  12.161  0.7089  0.3954  0.3098
15621SOL    HW252827   6.480  10.076  12.095 -0.9522  0.1754 -0.0906
15622SOL     OW52828   0.703   1.467   3.912  0.4675 -0.1446 -0.5561
15622SOL    HW152829   0.678   1.377   3.889 -1.4741 -0.2204  1.5191
15622SOL    HW252830   0.649   1.522   3.855  0.7249 -0.2839 -0.9396
15623SOL     OW52831   4.584  11.456   6.973  0.0385  0.3162 -0.3559
15623SOL    HW152832   4.581  11.362   6.994 -2.9701  0.4065  0.1134
15623SOL    HW252833   4.535  11.463   6.890 -2.8028  1.7258  1.2973
15624SOL     OW52834  11.087   5.147  11.558 -0.8995 -0.1692  0.3816
15624SOL    HW152835  11.011   5.099  11.591 -1.0587  0.0678  0.3579
15624SOL    HW252836  11.160   5.116  11.612 -0.9363 -0.7068  0.1268
15625SOL     OW52837   5.368   5.202  10.434 -0.3165  0.0038  0.7843
15625SOL    HW152838   5.449   5.239  10.468  0.3125  1.0245 -1.6363
15625SOL    HW252839   5.395   5.118  10.394 -0.0661  1.0358 -1.3770
15626SOL     OW52840   8.296   6.059  11.293  0.0608  0.3123  0.1999
15626SOL    HW152841   8.342   6.135  11.257  0.6683 -0.5520 -0.9311
15626SOL    HW252842   8.321   6.057  11.385 -0.1345  1.5971  0.2912
15627SOL     OW52843   7.640   5.701   2.582 -0.7879  0.6122  0.2973
15627SOL    HW152844   7.670   5.620   2.542  1.8230  1.3767  0.5752
15627SOL    HW252845   7.568   5.673   2.640 -2.1669 -0.9948 -2.0050
15628SOL     OW52846   1.413   3.466   2.543  1.1995  0.2500 -0.4838
15628SOL    HW152847   1.337   3.524   2.534  0.2535 -0.7635  0.6976
15628SOL    HW252848   1.376   3.378   2.554  2.4116 -0.0320  2.2607
15629SOL     OW52849   7.203  10.895   4.219 -0.2109  0.4298 -0.8931
15629SOL    HW152850   7.185  10.978   4.176 -0.3501  0.9836  0.1952
15629SOL    HW252851   7.281  10.911   4.273 -0.0755 -0.2196 -0.8779
15630SOL     OW52852   3.579   3.250  10.801 -0.5960  0.3826  0.5196
15630SOL    HW152853   3.564   3.167  10.756  1.0245  1.1547 -1.6126
15630SOL    HW252854   3.507   3.306  10.773 -1.5085 -0.1464  1.7040
15631SOL     OW52855  11.450   6.523  12.100  0.7351  0.2649  0.1880
15631SOL    HW152856  11.389   6.458  12.067  0.6667 -0.7642  2.2084
15631SOL    HW252857  11.536   6.481  12.096  0.7654  0.2278  0.9767
15632SOL     OW52858  11.183   8.019   0.273  0.1613 -0.1495  0.1172
15632SOL    HW152859  11.092   7.999   0.293  0.4641 -0.9780  0.7557
15632SOL    HW252860  11.204   8.093   0.331  0.0615 -0.3348  0.3922
15633SOL     OW52861   2.048   0.126   5.523  0.4672  0.3173  0.6082
15633SOL    HW152862   1.981   0.175   5.475  1.4092  0.5800 -0.4798
15633SOL    HW252863   2.126   0.181   5.518  1.7923 -1.5615 -1.3150
15634SOL     OW52864   2.177  11.531   2.473  0.0255 -0.1965 -0.2513
15634SOL    HW152865   2.189  11.624   2.488  0.6599 -0.3269  0.1073
15634SOL    HW252866   2.162  11.522   2.379  1.0967  0.1618 -0.4678
15635SOL     OW52867   8.988   6.286   9.879  0.1367  0.6380  0.1305
15635SOL    HW152868   8.908   6.336   9.896 -0.5146 -0.8387  1.6435
15635SOL    HW252869   8.973   6.244   9.795 -0.5352  0.6489  0.2391
15636SOL     OW52870  10.832   8.344   0.706  0.0539 -0.6226 -0.0346
15636SOL    HW152871  10.781   8.278   0.754 -2.3038  1.4227  0.4537
15636SOL    HW252872  10.923   8.320   0.724 -0.5558 -0.3323  5.2659
15637SOL     OW52873  10.046   8.486   3.451  0.5576 -0.4699 -0.0888
15637SOL    HW152874   9.959   8.449   3.433 -0.4181  0.7437  1.7946
15637SOL    HW252875  10.089   8.487   3.366 -2.1986  1.1694 -1.6072
15638SOL     OW52876   9.833   3.054   7.863 -0.1818  0.4206 -0.0903
15638SOL    HW152877   9.927   3.062   7.882 -0.3369  0.2526  0.8318
15638SOL    HW252878   9.805   3.143   7.841 -0.0175  0.6996  0.7538
15639SOL     OW52879   6.643  10.835   8.738  0.8635  0.0370 -0.0969
15639SOL    HW152880   6.616  10.794   8.656  0.2546  1.7554 -0.8020
15639SOL    HW252881   6.733  10.805   8.752  0.8376 -0.5904 -1.1881
15640SOL     OW52882   5.986   1.608   4.493  0.6918  0.7989 -0.1065
15640SOL    HW152883   6.081   1.613   4.483  0.5595  0.6337 -1.6933
15640SOL    HW252884   5.956   1.698   4.484  0.7183  0.9195  0.8841
15641SOL     OW52885   4.030   8.207   8.605  0.5465  0.2291  0.2590
15641SOL    HW152886   4.116   8.215   8.646  0.8633  1.7819 -0.6404
15641SOL    HW252887   4.046   8.156   8.526  1.0726  2.1542 -0.9496
15642SOL     OW52888   6.675  11.573   1.711  0.1837  0.0929  0.1351
15642SOL    HW152889   6.731  11.603   1.783  0.5503  2.1211 -0.9294
15642SOL    HW252890   6.735  11.530   1.650  0.0125 -0.8026  0.5785
15643SOL     OW52891   1.424   0.942  11.160  0.3483  1.0581  0.2911
15643SOL    HW152892   1.488   0.922  11.228 -1.0917  0.4526  1.5439
15643SOL    HW252893   1.446   0.883  11.088 -0.9944 -1.9838  2.1447
15644SOL     OW52894   8.074   4.698   5.529 -0.1901 -0.3960  0.6650
15644SOL    HW152895   8.008   4.755   5.489  1.5303  0.6341 -0.8817
15644SOL    HW252896   8.091   4.630   5.464  0.3843 -0.5553  0.9712
15645SOL     OW52897   0.448   2.907   8.514  0.0458 -0.3139 -0.4982
15645SOL    HW152898   0.382   2.963   8.475  1.5204  0.5802 -1.8253
15645SOL    HW252899   0.518   2.967   8.542  0.4756 -1.2499  0.5342
15646SOL     OW52900   9.611   4.528   0.520 -0.0622 -0.6887  0.1113
15646SOL    HW152901   9.566   4.605   0.485 -0.5580 -0.6058  0.8854
15646SOL    HW252902   9.640   4.479   0.443 -1.3458 -0.6604 -0.4149
15647SOL     OW52903   9.647   6.627   8.627  0.1888  0.2750 -0.4915
15647SOL    HW152904   9.592   6.630   8.705  0.2480  1.8059 -0.4828
15647SOL    HW252905   9.641   6.536   8.597 -0.6060 -0.1012  0.7330
15648SOL     OW52906   4.149   6.030   4.069 -0.2130  0.1298  0.3922
15648SOL    HW152907   4.140   5.942   4.032 -2.1590  0.4365  0.0266
15648SOL    HW252908   4.061   6.067   4.064  0.8932  2.8112 -1.1776
15649SOL     OW52909   8.863   4.988   4.806  0.0148 -0.1392  0.2723
15649SOL    HW152910   8.787   5.043   4.784  0.0654 -0.4142 -0.6160
15649SOL    HW252911   8.916   5.043   4.864 -0.2798  0.4839 -0.0414
15650SOL     OW52912  12.331   1.048   0.193  0.0722 -0.4132  0.7274
15650SOL    HW152913  12.392   1.095   0.251  1.0803 -1.5914  0.6551
15650SOL    HW252914  12.326   0.960   0.230 -1.3229 -0.4463  0.5126
15651SOL     OW52915  12.487   9.262   9.337  0.4389 -0.3254 -0.0227
15651SOL    HW152916  12.446   9.184   9.375  0.2233  0.0883  0.6171
15651SOL    HW252917  12.580   9.252   9.357  0.5120 -0.7491 -0.5492
15652SOL     OW52918  10.057   5.587   8.667 -0.0810 -0.7134  0.2800
15652SOL    HW152919  10.019   5.499   8.670  0.6800 -1.1755 -1.7683
15652SOL    HW252920   9.982   5.646   8.673 -0.6464 -1.4952  1.1091
15653SOL     OW52921   7.195   6.131   9.810 -0.3577  0.1106  0.1188
15653SOL    HW152922   7.140   6.203   9.779 -0.9478 -0.7208 -0.8208
15653SOL    HW252923   7.247   6.170   9.881  0.7216  1.9621 -1.5786
15654SOL     OW52924   8.050   4.590   3.119 -0.6890 -0.1746  0.2790
15654SOL    HW152925   8.131   4.544   3.141  0.5956  1.8131 -0.0298
15654SOL    HW252926   8.048   4.664   3.180 -1.7810  0.3265 -0.3426
15655SOL     OW52927   5.852   4.518   2.526  0.2456  0.4777 -0.0438
15655SOL    HW152928   5.842   4.423   2.532 -0.2861  0.5001 -0.4850
15655SOL    HW252929   5.806   4.552   2.603  0.5433  0.3723  0.1805
15656SOL     OW52930   7.818   7.295  11.028 -0.6002 -0.1869  0.2202
15656SOL    HW152931   7.817   7.217  10.974 -0.1847 -0.3631  0.4594
15656SOL    HW252932   7.906   7.297  11.066 -1.0918 -0.4290  1.4098
15657SOL     OW52933  10.636   5.745   4.228  0.3577  0.0829  0.2552
15657SOL    HW152934  10.552   5.769   4.188  0.0406 -0.5674  0.5132
15657SOL    HW252935  10.628   5.651   4.246  1.2104 -0.0302  0.1225
15658SOL     OW52936  12.412   8.921   1.531  0.0553  0.0914  0.2832
15658SOL    HW152937  12.439   8.994   1.586 -1.9429  1.9091 -0.9632
15658SOL    HW252938  12.338   8.882   1.577 -0.4401  0.4435 -0.1949
15659SOL     OW52939   0.742  11.105  11.566 -0.2379 -0.3519 -0.5378
15659SOL    HW152940   0.664  11.121  11.513 -0.9300 -0.4573  0.4147
15659SOL    HW252941   0.744  11.010  11.579  0.6053 -0.4652 -1.3514
15660SOL     OW52942   8.038   5.342   1.106  0.1042  0.0599 -0.5546
15660SOL    HW152943   7.969   5.359   1.170  0.3276 -0.2717 -0.2170
15660SOL    HW252944   8.036   5.247   1.094  0.6692  0.0207 -0.3512
15661SOL     OW52945   2.161   4.529  10.864  0.4356 -0.4754 -0.1888
15661SOL    HW152946   2.170   4.581  10.785 -0.3132 -2.4926 -1.7028
15661SOL    HW252947   2.214   4.451  10.848  0.1577 -0.9987  1.2500
15662SOL     OW52948   3.587   7.896   7.238  0.0901  0.8350 -0.5881
15662SOL    HW152949   3.537   7.915   7.317  0.2761 -0.3447 -0.1679
15662SOL    HW252950   3.642   7.974   7.224  1.1386  0.4814  1.2958
15663SOL     OW52951  12.449   9.470   0.421  0.0869  0.5361  0.4085
15663SOL    HW152952  12.526   9.519   0.448  0.6415 -0.0017 -0.1903
15663SOL    HW252953  12.436   9.405   0.490  0.2552  0.5305  0.4344
15664SOL     OW52954   2.069   0.002  11.662 -0.8749  0.0606  0.3432
15664SOL    HW152955   2.035   0.088  11.688  0.3545  0.3519  1.1022
15664SOL    HW252956   2.099  -0.038  11.744 -0.0310 -0.4437 -0.1926
15665SOL     OW52957  12.245   1.933  11.189  0.6500 -0.1022 -0.8823
15665SOL    HW152958  12.168   1.919  11.243  0.3110 -1.6360 -1.7048
15665SOL    HW252959  12.312   1.875  11.227  1.2062  0.7086 -0.5876
15666SOL     OW52960   7.782   7.148   0.139  1.0140 -0.4092 -0.0921
15666SOL    HW152961   7.778   7.053   0.125  2.2725 -0.4874 -0.0556
15666SOL    HW252962   7.691   7.177   0.136  0.7832 -1.1857 -3.0228
15667SOL     OW52963   9.949  11.082   3.104 -0.4453 -0.4593  0.3120
15667SOL    HW152964   9.887  11.155   3.108  0.3035  0.2000  0.1560
15667SOL    HW252965  10.035  11.123   3.106  0.0077 -1.4137  1.4035
15668SOL     OW52966   7.777  10.889   2.798 -0.1219 -0.0434  0.0363
15668SOL    HW152967   7.749  10.970   2.755  0.9478  0.3313  0.0137
15668SOL    HW252968   7.869  10.905   2.820 -0.4048 -0.5375  1.7225
15669SOL     OW52969  12.264   9.817  11.087 -0.1799  0.1730 -0.1533
15669SOL    HW152970  12.238   9.891  11.142  1.1574  0.2936  0.3589
15669SOL    HW252971  12.185   9.764  11.080 -0.4367  0.2023  1.8304
15670SOL     OW52972   2.473   2.686  11.998 -1.3983  0.3669  0.0334
15670SOL    HW152973   2.563   2.653  11.998 -0.5591  2.5147  0.1507
15670SOL    HW252974   2.475   2.761  12.057 -3.0099  1.1140 -0.8052
15671SOL     OW52975   3.407   6.124   9.863  0.1076 -0.0420  0.4935
15671SOL    HW152976   3.360   6.041   9.863 -0.4828  0.2887  0.3390
15671SOL    HW252977   3.438   6.135   9.773  0.4431 -0.2407  0.5850
15672SOL     OW52978   3.472   9.000   3.956 -0.2351 -0.7832 -0.4196
15672SOL    HW152979   3.509   8.994   3.868  0.2807 -0.8254 -0.2048
15672SOL    HW252980   3.509   9.080   3.993 -2.0777  0.3855 -0.9702
15673SOL     OW52981   4.213   4.811   1.483  0.3183 -0.3487  0.1131
15673SOL    HW152982   4.193   4.725   1.520 -1.8744  0.2531  0.5174
15673SOL    HW252983   4.210   4.870   1.558 -0.0450  0.3301 -0.4228
15674SOL     OW52984   3.149   3.794   9.742 -0.6051  0.1180  0.1767
15674SOL    HW152985   3.234   3.828   9.713 -1.1336  2.0183  0.7375
15674SOL    HW252986   3.118   3.742   9.669  0.6599  0.0875 -0.3691
15675SOL     OW52987   8.876  10.821   9.957 -0.0561 -0.1100  0.3627
15675SOL    HW152988   8.880  10.874   9.877  0.1788  1.6005  1.4514
15675SOL    HW252989   8.918  10.875  10.024  2.6497 -2.7400  1.0293
15676SOL     OW52990  11.239   7.748   0.303 -0.2028  0.9658  0.1839
15676SOL    HW152991  11.208   7.835   0.281 -0.7946  0.4155 -1.3288
15676SOL    HW252992  11.316   7.735   0.247  0.8307  1.0801  1.5286
15677SOL     OW52993   2.675   4.232   5.832 -0.4268  0.1145  0.0195
15677SOL    HW152994   2.717   4.207   5.915  0.8151 -0.5165 -0.7618
15677SOL    HW252995   2.591   4.268   5.858 -0.7411 -1.5043  1.4732
15678SOL     OW52996   4.932   0.585   9.948  0.4890  0.5467 -0.4655
15678SOL    HW152997   4.905   0.617   9.862  0.1701  0.0811 -0.5393
15678SOL    HW252998   4.926   0.490   9.941  0.8381  0.4920 -0.0512
15679SOL     OW52999   6.896  10.966   2.228  0.4297 -0.2987 -0.4090
15679SOL    HW153000   6.940  10.908   2.167 -0.2526 -1.5093  0.2201
15679SOL    HW253001   6.844  10.908   2.284  0.0855  0.8745  0.5336
15680SOL     OW53002   9.893   9.405   1.384 -0.2037  0.8107 -0.3508
15680SOL    HW153003   9.944   9.486   1.387 -0.0366  0.8488 -2.4904
15680SOL    HW253004   9.932   9.355   1.313 -1.7750 -0.1228 -0.6137
15681SOL     OW53005   0.643   9.952   7.685 -0.3169  0.4880  0.0524
15681SOL    HW153006   0.553   9.985   7.689 -0.1244  1.2406 -1.2122
15681SOL    HW253007   0.650   9.911   7.598  0.2858 -0.4070  0.5066
15682SOL     OW53008   3.010  10.502   8.393 -0.3099 -0.3534  0.5940
15682SOL    HW153009   3.075  10.539   8.332 -2.0163  1.0146 -0.5194
15682SOL    HW253010   2.979  10.423   8.350 -0.1571 -0.4160  0.5994
15683SOL     OW53011   2.960   1.166   7.961  0.1034 -0.2283 -0.1601
15683SOL    HW153012   2.880   1.175   7.908 -0.0352  0.7095  0.1934
15683SOL    HW253013   2.939   1.099   8.026 -0.9981  1.1641  0.9856
15684SOL     OW53014   1.634   8.977   2.735 -0.2250 -0.4036 -0.0189
15684SOL    HW153015   1.589   9.052   2.772  2.1164 -0.0541  2.4151
15684SOL    HW253016   1.607   8.903   2.789 -2.3998 -1.4348 -2.3039
15685SOL     OW53017   0.202   5.758   0.378 -0.1885  0.3210 -0.1326
15685SOL    HW153018   0.149   5.767   0.457  0.2654  1.8352  0.0360
15685SOL    HW253019   0.201   5.845   0.339 -0.3033 -0.3703 -1.7427
15686SOL     OW53020   2.458   5.147   8.630  0.4090  0.1555  0.3993
15686SOL    HW153021   2.456   5.241   8.614 -1.3977 -0.2957 -2.8790
15686SOL    HW253022   2.368   5.123   8.651  0.1010 -1.2099 -2.0981
15687SOL     OW53023   0.138   2.018   0.336  0.6144 -0.4501  0.2294
15687SOL    HW153024   0.083   1.941   0.342  0.8350 -0.6600 -0.4067
15687SOL    HW253025   0.157   2.041   0.427 -1.1739  0.1145  0.5125
15688SOL     OW53026  11.372   4.010  10.479 -0.2223  0.0516 -0.4710
15688SOL    HW153027  11.317   4.087  10.464 -0.8691  0.0527  1.6055
15688SOL    HW253028  11.380   4.004  10.574 -0.1593 -2.4262 -0.5660
15689SOL     OW53029   6.419   8.704  12.482  0.6107 -0.3719  0.2870
15689SOL    HW153030   6.508   8.694  12.514  0.9617 -2.1495 -1.0733
15689SOL    HW253031   6.413   8.643  12.408 -1.2620  0.8266 -0.6304
15690SOL     OW53032   9.293   0.716   6.593  0.2618  0.0472 -0.0497
15690SOL    HW153033   9.368   0.743   6.541  0.4591  0.3085  0.3701
15690SOL    HW253034   9.285   0.622   6.577  0.8496 -0.0328  0.1285
15691SOL     OW53035   2.778   4.321   6.824 -0.6120 -0.9550 -0.1672
15691SOL    HW153036   2.769   4.319   6.919 -1.8469 -1.2885 -0.2730
15691SOL    HW253037   2.807   4.233   6.800  1.3917 -0.3889  0.0221
15692SOL     OW53038  11.645   5.266  11.315 -0.1787 -0.2230  0.9389
15692SOL    HW153039  11.662   5.273  11.409 -0.1421  0.7860  0.8764
15692SOL    HW253040  11.717   5.314  11.274 -0.7157  0.1829  0.4491
15693SOL     OW53041   9.429   1.726   4.124  0.9525 -0.3202  0.1145
15693SOL    HW153042   9.504   1.672   4.097  1.8575  0.5714  0.8029
15693SOL    HW253043   9.390   1.677   4.197  0.7667 -0.8510 -0.3293
15694SOL     OW53044   8.956   5.177  10.441  0.2999 -0.0233  0.0970
15694SOL    HW153045   9.034   5.170  10.385  2.7603  1.6615  3.0155
15694SOL    HW253046   8.909   5.253  10.407  0.4655 -0.4059 -1.0399
15695SOL     OW53047   8.945  11.103   5.585 -0.3483 -0.3930  0.1117
15695SOL    HW153048   8.850  11.095   5.585 -0.2977 -2.2079  2.6119
15695SOL    HW253049   8.973  11.061   5.667  2.5508  0.8284 -0.1134
15696SOL     OW53050   0.219   3.220   1.402  0.8216  0.2587 -0.3321
15696SOL    HW153051   0.225   3.182   1.314 -0.5628 -1.7866  0.3740
15696SOL    HW253052   0.300   3.194   1.445  0.9551  0.1844 -0.6291
15697SOL     OW53053   4.805   2.482   8.771 -0.2536 -0.5322  0.0358
15697SOL    HW153054   4.759   2.419   8.826  0.2262  1.3213  2.7805
15697SOL    HW253055   4.897   2.458   8.779 -0.3344 -1.7938 -2.1585
15698SOL     OW53056  10.668   3.224   7.501  0.2292  0.0429  0.1359
15698SOL    HW153057  10.713   3.177   7.431  0.7203  0.5871  0.0781
15698SOL    HW253058  10.634   3.155   7.558 -0.9562 -0.4486 -1.0988
15699SOL     OW53059   8.041   1.836   4.658 -0.6702 -0.0762 -0.2965
15699SOL    HW153060   8.137   1.838   4.659 -0.6745  0.1479 -0.4080
15699SOL    HW253061   8.020   1.757   4.609 -0.5389 -0.7766  0.7367
15700SOL     OW53062   0.594   7.094   6.038 -0.7189  0.4264  0.5244
15700SOL    HW153063   0.661   7.109   6.104 -0.2512  0.9704 -0.0643
15700SOL    HW253064   0.637   7.111   5.954 -1.4437  0.2641  0.0998
15701SOL     OW53065   2.404   1.924   2.520  0.2028  0.2903 -0.3078
15701SOL    HW153066   2.341   1.984   2.481 -0.8590  0.0215  0.9310
15701SOL    HW253067   2.444   1.879   2.445 -0.0925  1.4104 -1.1687
15702SOL     OW53068   0.428   2.005   9.312 -0.7540  0.4656  0.1778
15702SOL    HW153069   0.496   1.942   9.288 -1.2262  0.5847 -1.5409
15702SOL    HW253070   0.348   1.971   9.274 -1.3870  1.1398  0.8580
15703SOL     OW53071   0.703   1.473  10.380  0.0497  0.0131 -0.0939
15703SOL    HW153072   0.797   1.493  10.380  0.3076 -1.0407  1.6660
15703SOL    HW253073   0.670   1.516  10.301  1.6656  2.0123  0.2221
15704SOL     OW53074   5.909   4.151   5.917 -0.2486 -0.2829 -0.0324
15704SOL    HW153075   5.872   4.133   5.830 -0.9228  1.3675 -0.1243
15704SOL    HW253076   5.989   4.200   5.898 -1.0155  1.1420  0.2622
15705SOL     OW53077  10.479   8.950   1.804 -0.3515  0.2824  0.8212
15705SOL    HW153078  10.454   8.891   1.733 -1.0046 -0.1434  1.3821
15705SOL    HW253079  10.548   8.903   1.851 -0.3575  0.2866  0.8340
15706SOL     OW53080   1.665   5.256   9.196 -0.1609 -0.7221  0.1699
15706SOL    HW153081   1.741   5.232   9.143  1.0709  1.0585  1.0003
15706SOL    HW253082   1.608   5.305   9.136  0.1244 -0.6843 -0.0708
15707SOL     OW53083   1.613   8.781   4.137  0.0139  0.4252  0.3223
15707SOL    HW153084   1.689   8.814   4.185 -0.5258  0.4401  1.1668
15707SOL    HW253085   1.641   8.783   4.045  1.1569  0.1123  0.6449
15708SOL     OW53086  10.880   9.077   4.559 -0.5128  0.0497  0.4321
15708SOL    HW153087  10.913   9.065   4.648  1.0107  0.7829 -0.0043
15708SOL    HW253088  10.911   9.164   4.534 -0.8101 -0.2069 -0.8655
15709SOL     OW53089   7.538  11.942   8.226  0.0292 -0.5598 -0.0359
15709SOL    HW153090   7.582  11.869   8.271  0.9474 -0.5426 -0.8757
15709SOL    HW253091   7.606  11.980   8.170 -0.7862  0.1482 -0.5621
15710SOL     OW53092   6.061   7.610   8.820 -0.6854  0.3253  0.4116
15710SOL    HW153093   5.990   7.547   8.810 -0.7849  0.2814  1.2651
15710SOL    HW253094   6.127   7.562   8.870  0.5103 -0.0594 -1.4284
15711SOL     OW53095   7.557  12.367   6.713  0.1625  0.1645  0.1214
15711SOL    HW153096   7.650  12.344   6.716 -0.0107 -0.4414  1.5867
15711SOL    HW253097   7.556  12.463   6.714  0.7863  0.2367  2.7924
15712SOL     OW53098   3.735  11.064   0.524 -0.1294  0.1674  0.1898
15712SOL    HW153099   3.679  11.072   0.601 -0.5375  0.3466 -0.1216
15712SOL    HW253100   3.694  10.995   0.471 -1.4901  1.9348 -1.2151
15713SOL     OW53101   4.796   1.622   5.741  0.7370  0.2122 -0.4720
15713SOL    HW153102   4.712   1.667   5.749  0.2745 -0.8111  0.9105
15713SOL    HW253103   4.804   1.601   5.648 -1.6620 -1.6921 -0.3462
15714SOL     OW53104  10.988   6.639  11.965  0.2778 -0.2971 -0.5732
15714SOL    HW153105  10.959   6.666  12.052  0.1624  1.3526 -1.0964
15714SOL    HW253106  11.035   6.715  11.930  1.3178 -1.3230 -1.5190
15715SOL     OW53107   0.048   6.069  10.059 -0.1162 -0.1235 -0.1303
15715SOL    HW153108  -0.038   6.105  10.037 -0.8734 -1.6752  0.1859
15715SOL    HW253109   0.107   6.144  10.051 -1.0992  0.4978 -2.6531
15716SOL     OW53110   2.152   5.374   6.395 -0.0125  0.2918  0.5269
15716SOL    HW153111   2.086   5.374   6.326 -0.9951  1.9167  1.3918
15716SOL    HW253112   2.194   5.289   6.388 -0.6486  0.0797 -1.5086
15717SOL     OW53113   4.161   1.671   1.559  0.3072  0.0841  0.0249
15717SOL    HW153114   4.106   1.740   1.595  0.4627  0.4295 -0.4017
15717SOL    HW253115   4.128   1.591   1.599 -2.0367 -0.0306 -1.9465
15718SOL     OW53116   1.250  11.256  10.013 -0.3576 -0.1305 -0.2572
15718SOL    HW153117   1.275  11.348  10.026 -0.7372 -0.1496  0.7504
15718SOL    HW253118   1.154  11.258  10.015 -0.3735 -0.7352  1.4427
15719SOL     OW53119   5.238   0.922   2.725 -0.2234  0.3303 -0.0507
15719SOL    HW153120   5.202   1.009   2.740 -0.5307  0.2117 -0.1105
15719SOL    HW253121   5.209   0.870   2.799 -0.2189  0.2207 -0.1253
15720SOL     OW53122   4.305   1.087   5.763 -0.0327  0.5074 -0.0142
15720SOL    HW153123   4.300   1.018   5.828 -0.8566 -1.0097 -1.5964
15720SOL    HW253124   4.341   1.162   5.810  1.3111 -1.0976  1.6780
15721SOL     OW53125  11.478   8.758  11.698 -0.1441  0.1868 -0.0121
15721SOL    HW153126  11.443   8.701  11.629 -0.0975 -0.0010  0.1206
15721SOL    HW253127  11.541   8.704  11.745 -0.3745  0.2329  0.3536
15722SOL     OW53128   9.097  10.785  10.449  0.1719  0.3357  0.0917
15722SOL    HW153129   9.074  10.704  10.403  1.2654  1.0875 -1.9274
15722SOL    HW253130   9.174  10.762  10.501  0.7684  0.1286 -0.8400
15723SOL     OW53131   6.806   7.596   0.932 -0.0536  0.1414  0.1094
15723SOL    HW153132   6.794   7.561   1.020  0.8213 -1.2930 -0.3214
15723SOL    HW253133   6.895   7.571   0.908 -0.1192  0.9092 -1.0210
15724SOL     OW53134  10.712   0.397   3.343 -0.1461  0.3090 -0.5262
15724SOL    HW153135  10.694   0.422   3.433  0.2122 -0.8438 -0.1117
15724SOL    HW253136  10.712   0.479   3.294 -1.0850  0.8668  0.3882
15725SOL     OW53137   4.618  11.440   8.345  0.1950  0.0789 -0.4844
15725SOL    HW153138   4.654  11.361   8.385 -1.0186  0.0667  0.6316
15725SOL    HW253139   4.550  11.469   8.406 -0.8674  0.7523 -1.9315
15726SOL     OW53140   3.145   5.560   9.923 -0.0569  0.0472  0.4512
15726SOL    HW153141   3.159   5.493   9.857  2.0348  1.9818 -1.2145
15726SOL    HW253142   3.066   5.606   9.895  0.3758  0.3575 -0.2602
15727SOL     OW53143   5.796  10.920  11.379  0.1741  0.3719 -0.6610
15727SOL    HW153144   5.756  10.987  11.323 -0.8520 -0.2178 -0.6593
15727SOL    HW253145   5.728  10.899  11.443  0.8323  0.0115 -0.0701
15728SOL     OW53146  11.818   7.833   2.324  0.3136  0.7167 -0.2196
15728SOL    HW153147  11.782   7.871   2.404 -0.7492  1.3588 -0.9779
15728SOL    HW253148  11.742   7.823   2.267  0.6414 -1.9678 -0.3078
15729SOL     OW53149   3.173   7.462   9.301 -0.0861  0.2753  0.6403
15729SOL    HW153150   3.103   7.398   9.287  1.4514 -1.1914 -0.8607
15729SOL    HW253151   3.240   7.439   9.236  0.9200  2.9136  0.5968
15730SOL     OW53152   7.449   0.137   7.000 -0.1490  0.3481  0.4262
15730SOL    HW153153   7.511   0.194   7.045 -1.3252  0.7941  1.5410
15730SOL    HW253154   7.367   0.146   7.049 -1.2764  0.2225 -1.3131
15731SOL     OW53155  12.217   3.950  12.454  0.2386  0.3394 -0.0438
15731SOL    HW153156  12.285   3.970  12.389 -0.9443  3.1148 -0.6042
15731SOL    HW253157  12.225   4.020  12.519 -1.4573  0.2031  0.3677
15732SOL     OW53158   6.893   6.716   9.504 -0.0817  0.2676 -0.6029
15732SOL    HW153159   6.893   6.723   9.409  1.1783 -1.0980 -0.7328
15732SOL    HW253160   6.873   6.624   9.522  1.2937  0.1365  0.3903
15733SOL     OW53161   5.305  10.384   3.762  0.4092 -0.3345 -0.5234
15733SOL    HW153162   5.302  10.300   3.808  0.6110 -0.8466 -1.4029
15733SOL    HW253163   5.219  10.424   3.779  0.4173 -0.5864  0.1338
15734SOL     OW53164   3.196  11.417   8.217  0.1475 -0.1847  0.4871
15734SOL    HW153165   3.267  11.481   8.202  0.1428  0.0732  1.4796
15734SOL    HW253166   3.239  11.332   8.210  0.3302 -0.0544 -0.0084
15735SOL     OW53167   3.906   2.647  11.391 -0.3237  0.3154  0.0667
15735SOL    HW153168   3.822   2.649  11.346 -0.9498 -2.6850  0.8716
15735SOL    HW253169   3.971   2.640  11.321 -0.6877  2.2005 -0.5370
15736SOL     OW53170   8.983   1.830  12.313 -0.3074  0.2430  0.3204
15736SOL    HW153171   8.994   1.843  12.407  0.0728  1.6713  0.1056
15736SOL    HW253172   8.909   1.886  12.290 -0.0460  0.3365 -0.3128
15737SOL     OW53173  11.609   6.173   0.217  0.7003  0.2331 -0.2202
15737SOL    HW153174  11.671   6.100   0.209  0.8846  0.0753  2.0386
15737SOL    HW253175  11.663   6.250   0.201  1.7951  0.1577  2.5200
15738SOL     OW53176   3.590   6.530   6.945  0.6188 -0.2361 -0.0543
15738SOL    HW153177   3.512   6.569   6.906  1.0080  0.4028 -0.2099
15738SOL    HW253178   3.602   6.448   6.897  0.1052 -0.2854 -0.1022
15739SOL     OW53179   9.597   1.054   5.500  0.1698 -0.1019  0.2557
15739SOL    HW153180   9.688   1.080   5.514 -0.0879  1.6855 -1.0852
15739SOL    HW253181   9.548   1.102   5.567 -0.1573  1.9104 -1.3639
15740SOL     OW53182   8.806  11.532   4.647  0.3903 -0.4190  0.5515
15740SOL    HW153183   8.821  11.626   4.636 -1.8915 -0.0507  0.2165
15740SOL    HW253184   8.842  11.512   4.734  0.8366  0.7751  0.6574
15741SOL     OW53185   0.387   8.350  10.921 -0.1267  0.2829 -0.9084
15741SOL    HW153186   0.457   8.288  10.941  0.6533  0.7646 -2.0534
15741SOL    HW253187   0.325   8.300  10.867  0.0019  0.2178 -0.9975
15742SOL     OW53188   0.388   7.734   9.407  0.0370 -0.7443  0.1908
15742SOL    HW153189   0.411   7.642   9.391  0.8563 -0.3105 -1.3609
15742SOL    HW253190   0.301   7.744   9.367  0.5263 -0.5417 -0.8567
15743SOL     OW53191   0.187   8.276   7.325 -0.3774  0.5991 -0.2568
15743SOL    HW153192   0.110   8.236   7.365  0.6301 -1.6002 -0.3274
15743SOL    HW253193   0.253   8.278   7.394  0.5769 -0.8874 -1.0552
15744SOL     OW53194   2.953   3.474  11.530  0.0440 -0.1442 -0.4383
15744SOL    HW153195   3.034   3.431  11.561 -1.0276 -2.1372 -0.2150
15744SOL    HW253196   2.951   3.557  11.577  1.0996 -0.8135  0.8928
15745SOL     OW53197   9.446   5.455   8.381  0.0590 -0.6640  0.2133
15745SOL    HW153198   9.524   5.401   8.365  0.4751  0.0905 -0.3678
15745SOL    HW253199   9.477   5.527   8.436 -0.2671 -0.4553  0.1278
15746SOL     OW53200   4.218  12.418   0.545  0.0240 -0.3398  0.3484
15746SOL    HW153201   4.176  12.351   0.491 -1.3839  0.7898 -0.0018
15746SOL    HW253202   4.146  12.458   0.594  0.6365  1.7941 -0.4189
15747SOL     OW53203   2.945  12.073   5.537  0.3551 -0.3284  0.2004
15747SOL    HW153204   2.868  12.025   5.567  0.1297 -0.1336 -0.0608
15747SOL    HW253205   2.934  12.161   5.574  0.6053 -0.3842  0.4125
15748SOL     OW53206  10.012   8.844   9.960  0.2084  0.3606 -0.0237
15748SOL    HW153207  10.084   8.783   9.976  0.0279 -0.0610 -0.8023
15748SOL    HW253208   9.943   8.816  10.020 -0.5922 -1.4391 -1.7035
15749SOL     OW53209   7.863   4.854   4.130  0.1883  0.2406 -0.3925
15749SOL    HW153210   7.850   4.893   4.217  0.3684 -0.1272 -0.1970
15749SOL    HW253211   7.906   4.923   4.079  2.5609 -0.4356  0.6032
15750SOL     OW53212   8.883   1.380   6.872 -0.0057  0.8675  0.2405
15750SOL    HW153213   8.884   1.285   6.880 -0.0497  0.9483  1.2263
15750SOL    HW253214   8.904   1.396   6.780  0.6080 -0.0756  0.2078
15751SOL     OW53215   0.781   9.293   9.611  0.3402 -0.2275  0.5635
15751SOL    HW153216   0.844   9.303   9.682  0.0108  0.1986  0.8046
15751SOL    HW253217   0.832   9.304   9.531  1.0683 -2.5817  0.6446
15752SOL     OW53218   2.602   6.896   7.708  0.8361 -0.0499 -0.6235
15752SOL    HW153219   2.603   6.826   7.642 -1.2610 -1.7146  0.9666
15752SOL    HW253220   2.520   6.883   7.755  2.0370  1.3035  2.0545
15753SOL     OW53221   6.708   5.120   8.169  0.6150  0.2129 -0.3991
15753SOL    HW153222   6.702   5.158   8.257 -2.6340 -0.1711 -0.3446
15753SOL    HW253223   6.726   5.195   8.112 -0.7416  1.0790  0.2599
15754SOL     OW53224   5.856   1.583   6.036 -0.3012  0.0803  0.0890
15754SOL    HW153225   5.875   1.532   5.957  1.2924 -1.3714  1.3341
15754SOL    HW253226   5.768   1.619   6.021  0.9777  2.2076 -3.5085
15755SOL     OW53227   9.053   6.486   8.992 -0.5446 -0.3030 -0.0929
15755SOL    HW153228   8.961   6.474   9.016 -1.5317  0.7789 -2.9178
15755SOL    HW253229   9.074   6.575   9.020 -1.1328  0.3014 -1.4845
15756SOL     OW53230   3.786   6.592  10.022 -0.4521 -0.0738  0.6996
15756SOL    HW153231   3.696   6.570   9.997 -0.3424  0.1544  0.0710
15756SOL    HW253232   3.836   6.514   9.999 -0.1337  0.6193 -1.1154
15757SOL     OW53233  11.713  10.079   3.680 -0.0782  0.5562  0.0250
15757SOL    HW153234  11.740  10.081   3.588 -2.4830 -0.3018 -0.7671
15757SOL    HW253235  11.623  10.047   3.678 -0.4074  1.1043  2.6504
15758SOL     OW53236   4.529   6.147  10.034  0.2292 -0.0967  0.2775
15758SOL    HW153237   4.582   6.151  10.113  1.0580 -0.6179 -0.2256
15758SOL    HW253238   4.508   6.054  10.024  0.4330 -0.0893 -0.2904
15759SOL     OW53239   3.719  12.061   4.085 -0.7540  1.0768  0.0795
15759SOL    HW153240   3.727  11.966   4.086 -2.1819  0.9346  1.5954
15759SOL    HW253241   3.808  12.093   4.067 -0.4886 -0.5223 -1.8046
15760SOL     OW53242  10.398   8.847  10.887  0.1209  0.1374  0.2438
15760SOL    HW153243  10.365   8.768  10.844  0.4904  0.1174 -0.0090
15760SOL    HW253244  10.369   8.918  10.830  0.8651  0.0902 -0.2078
15761SOL     OW53245  10.880  10.325   3.755  0.1929  0.2598 -0.1255
15761SOL    HW153246  10.894  10.233   3.776 -0.0626  0.2099 -0.1739
15761SOL    HW253247  10.797  10.347   3.798  0.2424  0.4614 -0.1321
15762SOL     OW53248  11.757   4.503   0.889 -0.0313  0.4014  0.5328
15762SOL    HW153249  11.770   4.437   0.821 -0.5825 -0.1225  0.9261
15762SOL    HW253250  11.712   4.575   0.844  0.3049  0.3877  0.1687
15763SOL     OW53251   5.009   0.099   3.897  0.2809  0.4097  0.6773
15763SOL    HW153252   4.994   0.163   3.966  0.4665  1.5958 -0.3381
15763SOL    HW253253   5.049   0.150   3.826 -2.9781  0.0054 -1.6593
15764SOL     OW53254  11.352   7.461   7.204  0.2728 -0.1440 -0.6139
15764SOL    HW153255  11.323   7.522   7.136  0.7499 -0.0085 -0.7045
15764SOL    HW253256  11.278   7.453   7.262 -0.4970 -1.0208 -1.6817
15765SOL     OW53257   7.735  11.050   0.120 -0.0353 -0.2389 -0.1181
15765SOL    HW153258   7.696  11.137   0.114  1.8160  0.6183 -0.3907
15765SOL    HW253259   7.735  11.030   0.214 -2.1548 -0.7868 -0.1987
15766SOL     OW53260   3.678   0.068   4.999  0.2778 -0.1862 -0.5768
15766SOL    HW153261   3.711   0.157   5.015 -0.3812  0.1553 -1.0514
15766SOL    HW253262   3.726   0.038   4.922  0.3866 -0.1832 -0.5105
15767SOL     OW53263   9.091   1.332   1.681  0.2340  0.0716  0.2262
15767SOL    HW153264   9.026   1.312   1.613  0.8596 -1.0118 -0.0894
15767SOL    HW253265   9.040   1.343   1.761 -0.6179  2.3325 -0.5504
15768SOL     OW53266  11.731   6.866   7.651 -0.3485  0.4947 -0.2632
15768SOL    HW153267  11.739   6.961   7.642 -0.5120  0.3610 -2.3758
15768SOL    HW253268  11.674   6.854   7.726 -1.0849  2.1089 -0.5228
15769SOL     OW53269   6.895   2.683   2.045 -0.2361  0.4306  0.0714
15769SOL    HW153270   6.807   2.687   2.083 -0.8446 -1.4912 -1.0311
15769SOL    HW253271   6.882   2.647   1.958  1.7187 -0.5132  0.1159
15770SOL     OW53272   0.379   3.602  11.307  0.0981 -0.4575  0.0995
15770SOL    HW153273   0.436   3.664  11.353 -0.2656 -0.1333  0.1154
15770SOL    HW253274   0.320   3.657  11.256 -0.5679 -0.7681  0.5142
15771SOL     OW53275   2.217  10.148  12.376 -0.0663  0.1329  0.3747
15771SOL    HW153276   2.185  10.166  12.287 -0.5720  1.2781  0.7603
15771SOL    HW253277   2.312  10.141  12.366  0.1736  2.6737  0.0374
15772SOL     OW53278  10.043   4.583  10.176 -0.1773 -0.1372 -0.0728
15772SOL    HW153279  10.000   4.512  10.224 -0.6442 -0.8855 -1.5296
15772SOL    HW253280   9.972   4.626  10.129  0.5170 -1.0141 -2.0409
15773SOL     OW53281   4.071   1.207  10.498  0.0902  0.5770  0.2972
15773SOL    HW153282   4.142   1.184  10.438  0.4295  1.7062  0.2453
15773SOL    HW253283   4.009   1.257  10.444  0.3122  1.4531  0.8242
15774SOL     OW53284   7.788  10.421   3.976 -0.2567 -0.9230  0.0301
15774SOL    HW153285   7.768  10.429   4.069 -0.7277 -2.1195  0.0510
15774SOL    HW253286   7.716  10.368   3.941 -0.4395  0.0731 -1.1484
15775SOL     OW53287   7.529   7.973  12.269 -0.3573  0.0464 -0.0099
15775SOL    HW153288   7.468   8.031  12.223  0.3369  0.7718 -0.0426
15775SOL    HW253289   7.542   7.900  12.209 -0.7160  0.1880 -0.2656
15776SOL     OW53290  10.599  12.136   6.098 -1.1474  0.2588  0.4406
15776SOL    HW153291  10.525  12.105   6.150 -0.2571 -0.2759  1.4142
15776SOL    HW253292  10.646  12.195   6.157 -0.4272  0.0641  0.0665
15777SOL     OW53293   7.936   9.554  11.200 -0.6923 -0.3918  0.3753
15777SOL    HW153294   7.987   9.484  11.240 -0.1169  0.3393  0.9426
15777SOL    HW253295   7.954   9.631  11.253 -0.7398  0.3642 -0.6603
15778SOL     OW53296   1.767   2.626   7.991  0.4593  0.3797  0.1130
15778SOL    HW153297   1.860   2.602   7.999  0.2127 -0.4855  0.5029
15778SOL    HW253298   1.738   2.639   8.082  0.4486  1.6414 -0.0658
15779SOL     OW53299   9.549   2.296   3.101 -0.0083  0.3789 -0.0996
15779SOL    HW153300   9.468   2.249   3.120 -0.0568  0.7582  0.6624
15779SOL    HW253301   9.618   2.230   3.111 -0.3713 -1.0045 -4.3798
15780SOL     OW53302   9.369   0.309  10.400  0.1395 -0.3628 -0.1172
15780SOL    HW153303   9.461   0.288  10.412  0.0774 -0.0157  1.0280
15780SOL    HW253304   9.356   0.308  10.305  1.7485  1.3947 -0.4165
15781SOL     OW53305   9.284   2.852   2.145 -1.0518  0.3237 -0.1046
15781SOL    HW153306   9.247   2.925   2.195 -0.6510  0.2710  0.2755
15781SOL    HW253307   9.298   2.783   2.209  0.5554  0.6614 -0.0396
15782SOL     OW53308   2.047   2.176   5.226  0.0245  0.4230 -0.3198
15782SOL    HW153309   2.071   2.157   5.316 -1.3181  1.5668  0.3179
15782SOL    HW253310   2.014   2.094   5.191  0.0065  0.1161  0.4132
15783SOL     OW53311   4.054  12.403  10.050  0.3131  0.4147 -0.1273
15783SOL    HW153312   4.018  12.318  10.075 -0.2808  0.7909  0.3141
15783SOL    HW253313   3.989  12.466  10.080  0.5547  1.0009 -0.8178
15784SOL     OW53314   6.115   1.348   5.633  0.2876 -0.4726  0.4080
15784SOL    HW153315   6.064   1.424   5.663  0.8650  1.3161 -2.7484
15784SOL    HW253316   6.205   1.379   5.628  0.3936 -0.9624 -1.9206
15785SOL     OW53317  11.490  12.031   0.003  0.0195 -0.4682 -0.0101
15785SOL    HW153318  11.437  12.111  -0.009  0.2316  0.3165  3.3211
15785SOL    HW253319  11.426  11.965   0.030  0.0745 -1.0363 -1.2059
15786SOL     OW53320   4.947   5.444  12.102 -0.0355 -0.0710 -0.2547
15786SOL    HW153321   4.885   5.433  12.174  0.3415 -1.3859 -0.1097
15786SOL    HW253322   4.891   5.464  12.026 -0.6205 -0.9292 -0.0614
15787SOL     OW53323   8.495   3.302   1.075 -0.5163 -0.6293  0.6808
15787SOL    HW153324   8.418   3.298   1.132 -2.1668 -2.8433 -1.4660
15787SOL    HW253325   8.553   3.235   1.111 -0.8875 -0.9669  0.6720
15788SOL     OW53326   9.665   8.805   2.448  0.4359 -0.3515 -0.0304
15788SOL    HW153327   9.609   8.847   2.383 -0.1039 -0.6290  0.2493
15788SOL    HW253328   9.667   8.713   2.421  1.1662 -0.2525 -0.3266
15789SOL     OW53329   7.473   1.701   7.645  0.5547 -0.0844 -0.2025
15789SOL    HW153330   7.566   1.716   7.656  0.4667 -0.0330  0.5000
15789SOL    HW253331   7.448   1.760   7.574  0.9267  0.4016  0.0630
15790SOL     OW53332   0.955   7.203   8.829  0.1398  0.1263 -0.2750
15790SOL    HW153333   1.028   7.249   8.871  0.0085 -0.0361  0.1377
15790SOL    HW253334   0.980   7.197   8.737  0.4756  0.4056 -0.2045
15791SOL     OW53335   7.679   0.055   1.215 -0.0607  0.1961  0.2058
15791SOL    HW153336   7.745   0.034   1.281 -0.7796 -0.2102  0.7950
15791SOL    HW253337   7.728   0.057   1.133  0.5787 -0.7179  0.5505
15792SOL     OW53338   0.003   9.472  11.685 -0.2827 -0.2767  0.1753
15792SOL    HW153339   0.029   9.486  11.776 -1.1962  1.1554  0.2662
15792SOL    HW253340  -0.084   9.433  11.691 -0.6340  0.4456 -0.0563
15793SOL     OW53341   4.763   7.919   8.312  0.0548  0.5928 -0.2134
15793SOL    HW153342   4.731   7.850   8.371  0.4244  0.9202  0.3757
15793SOL    HW253343   4.822   7.874   8.252  2.1619  0.7447  1.6346
15794SOL     OW53344   7.870   4.009   2.542  0.3404  0.3422  0.3177
15794SOL    HW153345   7.901   3.923   2.514  1.0661  0.6121  0.2791
15794SOL    HW253346   7.829   3.993   2.627 -0.1200 -0.1467  0.0116
15795SOL     OW53347   6.261   1.381  11.979  0.3578 -0.2139 -0.8489
15795SOL    HW153348   6.352   1.375  11.952  0.5905 -0.3785 -0.0561
15795SOL    HW253349   6.226   1.455  11.929  1.4557  1.1169  0.2540
15796SOL     OW53350   9.630  11.925   9.091 -0.6133  0.2231 -0.3936
15796SOL    HW153351   9.552  11.971   9.124 -1.7669 -0.7905 -1.5752
15796SOL    HW253352   9.622  11.932   8.995  0.7665  0.1001 -0.5316
15797SOL     OW53353   4.048   2.269   2.031 -0.3361  0.3470 -0.0976
15797SOL    HW153354   4.052   2.289   1.937  0.0268  0.1334 -0.1286
15797SOL    HW253355   4.139   2.270   2.060 -0.4643  0.6575  0.3087
15798SOL     OW53356   9.332   3.778  10.610 -0.2781  0.1666 -0.2540
15798SOL    HW153357   9.336   3.725  10.530  0.3958  0.9731 -0.7835
15798SOL    HW253358   9.368   3.863  10.583  0.3860  0.3087  1.0251
15799SOL     OW53359   5.861   8.547   3.189  0.3587  0.1073  0.1746
15799SOL    HW153360   5.951   8.517   3.181  0.4904  0.9160 -2.2560
15799SOL    HW253361   5.863   8.613   3.257  1.8973  1.0224 -0.7170
15800SOL     OW53362   1.237   3.014   1.076  0.3953 -0.7134  0.9563
15800SOL    HW153363   1.217   2.930   1.033 -1.2384 -1.0881  2.3454
15800SOL    HW253364   1.314   2.995   1.129  0.4997 -1.1277  0.6675
15801SOL     OW53365   2.910   1.465   9.302  0.0192  0.1065 -0.1613
15801SOL    HW153366   2.951   1.398   9.357 -0.7400 -2.1089 -2.1443
15801SOL    HW253367   2.975   1.534   9.295  1.3140 -0.9407  0.9908
15802SOL     OW53368   8.866  10.517   5.971  0.5265 -0.2246 -0.2740
15802SOL    HW153369   8.812  10.550   5.899  0.3466  1.4883  0.5886
15802SOL    HW253370   8.950  10.561   5.960  1.2455 -1.6409 -0.6715
15803SOL     OW53371   9.709   0.512  10.291  0.0733  0.3120  0.1832
15803SOL    HW153372   9.780   0.570  10.319 -0.8591  1.7559 -0.3407
15803SOL    HW253373   9.750   0.455  10.225  1.0435  0.2474  0.8098
15804SOL     OW53374   7.422  10.004   4.897 -0.4175  0.0771 -0.0114
15804SOL    HW153375   7.470   9.985   4.978 -0.3154  1.6000  0.3067
15804SOL    HW253376   7.331  10.011   4.925 -0.1323  3.0771  0.4953
15805SOL     OW53377   2.693   0.947   4.676 -0.6357 -0.2902 -0.1580
15805SOL    HW153378   2.723   1.012   4.612  1.3599 -0.0935  0.9082
15805SOL    HW253379   2.603   0.973   4.696 -0.0104  1.9848 -0.0160
15806SOL     OW53380  10.619   8.238   9.936  0.5070  0.4555 -0.3621
15806SOL    HW153381  10.545   8.280   9.980  0.6690  1.7933 -1.2766
15806SOL    HW253382  10.660   8.184  10.003 -0.5889  0.6319  0.4820
15807SOL     OW53383   0.133   8.596   9.369 -0.1331 -0.3069 -0.9934
15807SOL    HW153384   0.076   8.638   9.433 -1.3840 -2.5788 -0.4909
15807SOL    HW253385   0.092   8.617   9.284 -0.9584 -0.7894 -0.7279
15808SOL     OW53386   1.489   5.837   2.485  0.3358  0.0474 -0.1988
15808SOL    HW153387   1.454   5.916   2.443 -0.2229  0.3220  0.7726
15808SOL    HW253388   1.436   5.766   2.451 -1.8393  0.5452  1.9179
15809SOL     OW53389   9.456   1.155   3.115  0.4358 -0.1397  0.2374
15809SOL    HW153390   9.455   1.098   3.038 -0.0645 -0.4784  0.4898
15809SOL    HW253391   9.546   1.150   3.147  0.5844 -0.1897 -0.1814
15810SOL     OW53392   1.375   6.862   0.088 -0.1510 -0.1229 -0.8120
15810SOL    HW153393   1.383   6.955   0.110 -2.0751 -0.0623 -0.2176
15810SOL    HW253394   1.314   6.860   0.015 -1.4776 -1.0116  0.2748
15811SOL     OW53395   5.029   1.678   6.955 -0.3301 -0.5389  0.4257
15811SOL    HW153396   5.072   1.594   6.972  1.0096  0.0183 -0.0728
15811SOL    HW253397   5.050   1.732   7.031  0.6583  0.0349 -0.2404
15812SOL     OW53398  11.138   5.074   4.287 -0.4387  0.1601  0.5036
15812SOL    HW153399  11.114   5.073   4.380  0.0993  0.7313  0.6573
15812SOL    HW253400  11.056   5.083   4.240 -0.5929  1.4965  0.9899
15813SOL     OW53401   3.831  11.513  10.410 -0.4622 -0.1285  0.5744
15813SOL    HW153402   3.805  11.574  10.479 -0.3561  1.9776 -1.1424
15813SOL    HW253403   3.750  11.493  10.363 -0.5857 -1.7850  1.4396
15814SOL     OW53404  12.146  12.315  11.280  0.6587 -0.1076 -0.0870
15814SOL    HW153405  12.184  12.228  11.288  0.7297  0.0106  0.9342
15814SOL    HW253406  12.213  12.374  11.314  0.4124  0.3051 -0.3005
15815SOL     OW53407   1.676   7.953   0.344 -0.1312  0.4384 -0.1636
15815SOL    HW153408   1.758   7.904   0.347 -1.4626 -1.9447  0.3937
15815SOL    HW253409   1.617   7.897   0.292 -2.2266  0.6450  1.8500
15816SOL     OW53410   8.364   2.552   3.867  0.3897 -0.7182  0.3166
15816SOL    HW153411   8.395   2.545   3.957  0.6724 -2.4088  0.1315
15816SOL    HW253412   8.294   2.487   3.860 -0.0048 -0.2300 -0.5413
15817SOL     OW53413   8.503   8.263   1.879  0.0322  0.0757 -0.1687
15817SOL    HW153414   8.423   8.314   1.867 -0.7230 -1.1640 -0.6364
15817SOL    HW253415   8.487   8.212   1.958 -0.0525 -0.8831 -0.7882
15818SOL     OW53416  11.000   6.719   6.364 -0.6435  0.4086 -0.0544
15818SOL    HW153417  10.923   6.775   6.377  0.5630  2.1522  0.0068
15818SOL    HW253418  11.035   6.747   6.279 -0.3565 -0.7122 -0.3103
15819SOL     OW53419   2.688   5.720   8.849 -0.0823  0.3278  0.0955
15819SOL    HW153420   2.709   5.794   8.907  0.3952 -1.1211  1.8887
15819SOL    HW253421   2.597   5.699   8.869 -0.1537  0.2967 -0.2581
15820SOL     OW53422   9.046   9.077   6.136 -0.0536  0.0352 -0.2018
15820SOL    HW153423   9.032   9.107   6.226 -0.4687  1.4318 -0.7020
15820SOL    HW253424   9.029   8.983   6.139 -1.3071  0.2734  0.9303
15821SOL     OW53425   9.806   3.901   4.682  0.4129 -1.0366  0.0182
15821SOL    HW153426   9.753   3.825   4.706 -0.4919 -0.6867 -0.7777
15821SOL    HW253427   9.879   3.864   4.631 -0.2549 -1.3583 -0.7401
15822SOL     OW53428   9.190  11.291   0.274 -0.4698 -0.0366  0.1030
15822SOL    HW153429   9.205  11.376   0.315 -1.2047 -0.1244  0.5693
15822SOL    HW253430   9.127  11.309   0.204  0.1253 -0.0372 -0.4473
15823SOL     OW53431   1.688   5.449   9.779  0.2825 -0.4147  0.2763
15823SOL    HW153432   1.679   5.483   9.690  0.8783  0.6388  0.6099
15823SOL    HW253433   1.669   5.355   9.770 -1.7130  0.0155 -0.6062
15824SOL     OW53434   8.511   3.920   7.674 -0.3754 -0.4667 -0.0533
15824SOL    HW153435   8.498   3.841   7.622  0.3432 -1.1216  0.7367
15824SOL    HW253436   8.446   3.982   7.641 -0.6337 -1.2273 -0.9958
15825SOL     OW53437   8.795   2.706   5.257  0.1795 -0.0431  0.4393
15825SOL    HW153438   8.793   2.789   5.305 -0.1909 -1.4032  2.9287
15825SOL    HW253439   8.782   2.731   5.166 -0.9691  2.5397  1.2162
15826SOL     OW53440   7.257   7.069  10.717 -0.4205 -0.1722 -0.0522
15826SOL    HW153441   7.314   7.116  10.778 -0.7864  0.6324 -0.3142
15826SOL    HW253442   7.223   7.137  10.659 -2.8974 -0.3409  1.0534
15827SOL     OW53443   9.312   5.669   0.708  0.0912  0.0523 -0.1446
15827SOL    HW153444   9.329   5.613   0.784 -0.7852  0.7737  0.6126
15827SOL    HW253445   9.217   5.680   0.707  0.1961  1.0170 -0.6380
15828SOL     OW53446   2.753   4.116  11.725 -0.4400  0.1670  0.3357
15828SOL    HW153447   2.838   4.125  11.682  0.2850  0.7896  1.8440
15828SOL    HW253448   2.702   4.191  11.695  0.2029  0.8195  0.8572
15829SOL     OW53449  11.264   3.419  10.950 -0.3670 -0.8429  0.1065
15829SOL    HW153450  11.296   3.383  11.033  0.3170 -0.2903  0.0915
15829SOL    HW253451  11.343   3.429  10.897 -0.5301  0.6837  0.1118
15830SOL     OW53452   4.597   9.647  12.462  0.0184  0.3039  0.1458
15830SOL    HW153453   4.601   9.571  12.404 -1.5229  0.2195  0.1194
15830SOL    HW253454   4.596   9.611  12.550 -1.0784  0.2583  0.1250
15831SOL     OW53455   9.608  12.303   2.456  0.1471  0.2533 -0.0951
15831SOL    HW153456   9.531  12.356   2.434 -0.4214 -0.0654  1.0517
15831SOL    HW253457   9.652  12.289   2.372 -0.5954  1.1343 -0.6509
15832SOL     OW53458  10.312   0.147   7.435 -0.1933 -0.5350  0.4027
15832SOL    HW153459  10.368   0.223   7.454 -0.4542 -0.0281 -0.7748
15832SOL    HW253460  10.372   0.083   7.396 -0.4472  0.0892 -1.0575
15833SOL     OW53461   1.266   5.018   1.406 -0.3050  0.0164 -0.1864
15833SOL    HW153462   1.261   4.978   1.319 -1.2030 -0.6497  0.1615
15833SOL    HW253463   1.331   5.088   1.396  0.0826 -0.4713 -1.2228
15834SOL     OW53464   1.991   5.040   1.692 -0.6921  0.2952 -0.0287
15834SOL    HW153465   1.902   5.069   1.675 -0.4308  0.3863 -1.3702
15834SOL    HW253466   2.013   4.985   1.617  0.6387  0.8676 -0.0888
15835SOL     OW53467   1.922   3.293   2.637 -0.0226 -0.2885 -0.0426
15835SOL    HW153468   1.855   3.306   2.704 -0.9067 -0.1194 -0.9394
15835SOL    HW253469   1.929   3.198   2.629  0.4474 -0.3168  0.6307
15836SOL     OW53470   0.718   7.905  11.339 -0.1562  0.1397 -0.3945
15836SOL    HW153471   0.731   7.852  11.418  0.2123  1.0828  0.1894
15836SOL    HW253472   0.805   7.909  11.299 -0.6038 -1.5662 -1.6873
15837SOL     OW53473   4.919   8.681   0.873  0.2854  0.3018  1.2710
15837SOL    HW153474   5.009   8.675   0.840  0.3683  0.7621  1.4179
15837SOL    HW253475   4.921   8.750   0.938 -0.3168  0.7615  0.8157
15838SOL     OW53476   2.376   1.592   5.801  0.4805  0.0450  0.4396
15838SOL    HW153477   2.368   1.633   5.887 -0.5416  0.5332  0.1253
15838SOL    HW253478   2.444   1.526   5.813 -1.2197 -1.5201  2.2792
15839SOL     OW53479   1.404  10.253   4.902  0.5828 -0.2774 -0.1458
15839SOL    HW153480   1.421  10.192   4.830  0.6240 -1.7248  1.0411
15839SOL    HW253481   1.483  10.249   4.957  1.3091  2.1484 -0.8704
15840SOL     OW53482  10.560  12.062   8.081  0.4473  0.0048 -0.2834
15840SOL    HW153483  10.582  11.986   8.136  1.0104  0.9097  0.7716
15840SOL    HW253484  10.488  12.105   8.128  0.3172  0.2921 -0.7435
15841SOL     OW53485   2.771   8.631   1.066  0.2966 -0.7749 -0.2185
15841SOL    HW153486   2.860   8.611   1.037  1.3672  1.0591  1.5518
15841SOL    HW253487   2.742   8.701   1.007  0.9713  0.2238  0.5810
15842SOL     OW53488   8.680   6.581   0.956  0.0829 -0.1601 -0.0013
15842SOL    HW153489   8.698   6.494   0.920  0.8445  0.1909 -0.5058
15842SOL    HW253490   8.656   6.565   1.047  0.0258 -0.9108 -0.1411
15843SOL     OW53491  11.304   5.197   0.364  0.2567  1.1958  0.1542
15843SOL    HW153492  11.399   5.207   0.357  0.3978 -0.5183 -0.7227
15843SOL    HW253493  11.269   5.266   0.307  1.0097  0.9024 -0.6924
15844SOL     OW53494   6.154  10.535   5.418 -0.2691 -0.4369  0.0898
15844SOL    HW153495   6.248  10.518   5.411 -0.2672 -0.9824  1.3139
15844SOL    HW253496   6.121  10.519   5.329  0.8852  0.4397 -0.5207
15845SOL     OW53497   7.738   7.347   3.443 -0.1522 -0.0873  0.5431
15845SOL    HW153498   7.810   7.329   3.382 -0.8938 -2.6361  0.2757
15845SOL    HW253499   7.711   7.436   3.423  3.6371  1.4859  1.4936
15846SOL     OW53500   0.700   4.296   3.242  0.3484 -0.5456  0.6810
15846SOL    HW153501   0.767   4.328   3.303 -0.8657  4.3122 -0.1696
15846SOL    HW253502   0.623   4.281   3.296  0.2125  0.5670  0.8179
15847SOL     OW53503  11.520   9.445  11.081  0.0069  0.3901 -0.2047
15847SOL    HW153504  11.544   9.357  11.108 -0.0486 -0.3599 -2.4031
15847SOL    HW253505  11.603   9.493  11.077  0.5068 -0.5403 -2.1555
15848SOL     OW53506   5.521   4.948   2.711  0.7001  0.3448  0.4150
15848SOL    HW153507   5.453   4.880   2.714  0.7804  0.3001  1.5389
15848SOL    HW253508   5.599   4.902   2.681  0.2292  0.4235 -1.0312
15849SOL     OW53509   3.480   2.506   6.634  0.0565 -0.0201  0.4464
15849SOL    HW153510   3.568   2.516   6.668 -0.2048 -1.5331  1.6450
15849SOL    HW253511   3.488   2.524   6.540  1.6776 -0.3825  0.4975
15850SOL     OW53512   9.376   3.773   7.986  0.5666  0.1768 -0.2347
15850SOL    HW153513   9.437   3.788   7.914 -0.2478  0.5375 -0.8669
15850SOL    HW253514   9.414   3.701   8.035  1.6690  0.6176 -0.4224
15851SOL     OW53515   2.501   2.361  10.814 -0.1358 -0.4552 -0.6838
15851SOL    HW153516   2.553   2.440  10.831 -0.9298 -0.1986  0.6775
15851SOL    HW253517   2.416   2.394  10.784 -0.8844 -0.7277  1.0608
15852SOL     OW53518   4.965  11.315   3.878  0.1908  0.0527 -0.0301
15852SOL    HW153519   4.877  11.281   3.861  0.2613  0.3901 -1.1507
15852SOL    HW253520   4.959  11.408   3.858  0.8835  0.0110 -0.4805
15853SOL     OW53521  10.292   3.195  12.453 -0.4892 -0.2860 -0.1848
15853SOL    HW153522  10.274   3.289  12.460 -1.7511 -0.4388 -1.0400
15853SOL    HW253523  10.305   3.166  12.544  0.5384  0.8109  0.0354
15854SOL     OW53524  12.133   3.846   6.662  0.2241 -0.0245 -0.0724
15854SOL    HW153525  12.053   3.899   6.671 -1.0036 -1.4489 -1.9445
15854SOL    HW253526  12.105   3.757   6.681  1.8341 -0.3121  1.1340
15855SOL     OW53527   2.865  11.860   3.214  0.2768  0.2766  0.0250
15855SOL    HW153528   2.886  11.777   3.256  0.8695  0.3900 -0.0360
15855SOL    HW253529   2.920  11.862   3.136 -1.4224 -0.3259 -1.2728
15856SOL     OW53530  10.199  12.066   0.328 -0.9799 -0.0811  0.5163
15856SOL    HW153531  10.228  12.010   0.400  0.3018  1.4526  1.2681
15856SOL    HW253532  10.116  12.028   0.299  0.2287 -2.8562  0.3753
15857SOL     OW53533  12.094   8.508   3.277 -0.3062 -0.3457  0.1805
15857SOL    HW153534  12.022   8.445   3.279 -1.0434  0.3400 -1.6221
15857SOL    HW253535  12.059   8.581   3.226  1.2184  0.6139  0.4585
15858SOL     OW53536   2.359  12.299  12.117  0.3212  0.5368 -0.4955
15858SOL    HW153537   2.332  12.249  12.195  0.9716 -0.5250 -0.9325
15858SOL    HW253538   2.398  12.233  12.059  1.7897  1.6612 -0.8315
15859SOL     OW53539   4.442  10.384   1.551 -0.2663 -0.1520  0.6362
15859SOL    HW153540   4.486  10.459   1.511 -1.8021  0.2427 -0.4234
15859SOL    HW253541   4.465  10.310   1.495 -2.3851  0.3936 -1.1009
15860SOL     OW53542   9.179   0.031   9.440 -0.4438  0.1443 -0.4829
15860SOL    HW153543   9.160   0.072   9.356 -1.8445 -0.5782 -0.5545
15860SOL    HW253544   9.178  -0.063   9.421 -1.5736 -0.0573  0.4835
15861SOL     OW53545   4.545   7.588   8.533  0.5682  0.1458  0.7188
15861SOL    HW153546   4.507   7.551   8.454 -2.0490  0.9852  1.4754
15861SOL    HW253547   4.527   7.523   8.601 -0.7603  1.1119  1.3383
15862SOL     OW53548   5.517   5.971   5.815 -0.9127  0.3441  0.4085
15862SOL    HW153549   5.439   5.995   5.765 -0.3881  0.2706 -0.4901
15862SOL    HW253550   5.495   5.887   5.856 -1.0683 -0.0463 -0.4368
15863SOL     OW53551   3.550   7.673   1.923  0.3121  0.2263  0.7429
15863SOL    HW153552   3.496   7.597   1.902  0.2140 -0.0532  1.9224
15863SOL    HW253553   3.494   7.749   1.905  1.3246  0.2557 -3.2264
15864SOL     OW53554  10.151   7.831   8.311 -0.1641 -0.5703  0.0017
15864SOL    HW153555  10.155   7.860   8.402  2.1226  1.3987 -0.6331
15864SOL    HW253556  10.198   7.748   8.311  1.4560  0.3035  0.3772
15865SOL     OW53557   7.995   0.852  11.803  0.1549  0.3089  0.5639
15865SOL    HW153558   8.007   0.781  11.866 -1.0113  0.6720  1.2343
15865SOL    HW253559   7.965   0.926  11.856 -3.6714 -0.1644 -0.6465
15866SOL     OW53560   7.446   5.358  11.876  0.1802 -0.3025 -0.5898
15866SOL    HW153561   7.472   5.430  11.817 -0.7415 -1.1882 -2.1396
15866SOL    HW253562   7.385   5.399  11.938  2.2331  0.9603  0.7239
15867SOL     OW53563   5.965  12.208   0.442  0.3149  0.1768 -0.1254
15867SOL    HW153564   5.883  12.193   0.489 -0.4369  0.3615 -1.3223
15867SOL    HW253565   5.999  12.120   0.424 -0.2538  0.0564 -0.6577
15868SOL     OW53566   8.482   9.715   9.510 -0.7362  0.2191 -1.0806
15868SOL    HW153567   8.445   9.750   9.428  1.8501  2.3307 -1.4892
15868SOL    HW253568   8.555   9.660   9.481  0.8364  1.7947 -0.2387
15869SOL     OW53569   4.197   5.386   0.074 -0.3353  0.3725  0.5738
15869SOL    HW153570   4.143   5.383   0.153 -0.8069 -0.3012  0.2363
15869SOL    HW253571   4.268   5.323   0.091 -0.0748  0.7013  0.7142
15870SOL     OW53572   3.903   4.705   2.588 -0.6833 -0.3146 -0.4878
15870SOL    HW153573   3.997   4.710   2.574 -0.7092 -2.6182 -1.9256
15870SOL    HW253574   3.892   4.639   2.657 -1.2659 -0.8996 -1.1261
15871SOL     OW53575  11.671   8.168   5.856  0.3030  0.0866  0.5255
15871SOL    HW153576  11.657   8.248   5.908 -0.2111 -0.3896  1.1363
15871SOL    HW253577  11.667   8.198   5.765 -1.2563  0.5659  0.7156
15872SOL     OW53578  11.516   6.475   1.589 -0.5825 -0.3232  0.7177
15872SOL    HW153579  11.534   6.389   1.552  1.3070  0.1059  0.5525
15872SOL    HW253580  11.562   6.475   1.673  0.8204  1.0582 -0.0041
15873SOL     OW53581   8.822   0.369   0.722 -0.5958 -0.5391  0.1385
15873SOL    HW153582   8.807   0.409   0.637 -0.1350 -1.4237 -0.3769
15873SOL    HW253583   8.842   0.442   0.781 -0.8398  0.0659 -0.5289
15874SOL     OW53584  12.437   4.576   4.608 -0.4855  0.2682 -0.2723
15874SOL    HW153585  12.346   4.605   4.613 -0.2353  0.9337  0.9914
15874SOL    HW253586  12.453   4.562   4.515 -2.5701 -2.2059 -0.3944
15875SOL     OW53587  11.094   0.467   1.718  0.0912 -0.4140  0.0233
15875SOL    HW153588  11.032   0.416   1.770  1.2727 -1.6626  0.2771
15875SOL    HW253589  11.175   0.415   1.720  1.6040  1.7916  0.9163
15876SOL     OW53590   7.037  10.120   3.042  0.1115 -0.5209  0.3309
15876SOL    HW153591   6.983  10.068   2.983  1.6110 -0.5988 -1.0386
15876SOL    HW253592   6.989  10.119   3.125 -0.4648 -3.1053  0.0433
15877SOL     OW53593   9.665   4.305  12.384  0.0419  0.2784  0.1693
15877SOL    HW153594   9.577   4.281  12.356  0.9545 -0.5934 -2.1598
15877SOL    HW253595   9.723   4.267  12.318  2.2933 -0.3511  2.3538
15878SOL     OW53596   0.164   9.105   2.370 -0.1393 -0.1065  0.5382
15878SOL    HW153597   0.229   9.055   2.322 -0.0190  1.7363 -1.3312
15878SOL    HW253598   0.214   9.160   2.430 -0.0441  0.1460  0.2330
15879SOL     OW53599   9.417   6.434  10.098 -0.5488  0.2595  0.6859
15879SOL    HW153600   9.382   6.490  10.167 -1.8418  1.2809 -0.7280
15879SOL    HW253601   9.352   6.439  10.028 -0.2171 -2.2192  0.0886
15880SOL     OW53602  11.803   0.623  11.610  0.5527  0.6307 -0.2939
15880SOL    HW153603  11.741   0.555  11.584 -1.6907  2.6596 -0.6646
15880SOL    HW253604  11.775   0.649  11.698  4.1478 -1.8151  1.8373
15881SOL     OW53605   8.632   3.129  12.074  0.5921 -0.4492 -0.8309
15881SOL    HW153606   8.537   3.140  12.068  0.4544 -1.5862 -0.8354
15881SOL    HW253607   8.654   3.158  12.162  0.6257  2.3317 -1.6551
15882SOL     OW53608   5.225  10.919   1.501 -0.0938 -0.2478 -0.0313
15882SOL    HW153609   5.265  10.940   1.585  0.9353 -0.8457 -0.3535
15882SOL    HW253610   5.279  10.848   1.466 -0.1984  0.3307 -1.4234
15883SOL     OW53611   7.495   6.132   5.525  0.2544  0.3775  0.1236
15883SOL    HW153612   7.587   6.131   5.552  0.1204  0.0773  0.5898
15883SOL    HW253613   7.482   6.047   5.482  0.4302  0.7980 -0.7837
15884SOL     OW53614   9.414   1.647   2.833 -0.7232 -0.0985  0.1098
15884SOL    HW153615   9.419   1.714   2.901 -1.6306 -1.5088  1.6706
15884SOL    HW253616   9.430   1.565   2.881  0.9462 -0.9758 -1.8116
15885SOL     OW53617   3.547   9.116   5.309 -0.0943 -0.7124 -0.6142
15885SOL    HW153618   3.620   9.107   5.372 -0.8244  0.6881  0.4802
15885SOL    HW253619   3.590   9.129   5.225  0.9270 -0.3308 -0.0536
15886SOL     OW53620  10.718   9.353  11.243 -0.2864 -0.5628  0.4778
15886SOL    HW153621  10.749   9.434  11.284  2.6892 -1.4669  0.1828
15886SOL    HW253622  10.683   9.382  11.158  0.8264  0.4196  0.3270
15887SOL     OW53623   0.297   8.581   3.446 -0.0100 -0.2158 -0.2042
15887SOL    HW153624   0.235   8.511   3.428 -0.8826  0.5101 -0.0881
15887SOL    HW253625   0.331   8.606   3.360  2.1541 -2.3870 -0.0687
15888SOL     OW53626   2.949   9.740   2.731  0.4225  0.4281 -0.3351
15888SOL    HW153627   2.908   9.811   2.683  2.0982  2.9525  1.7070
15888SOL    HW253628   2.892   9.726   2.807  0.2426 -0.2470 -0.5861
15889SOL     OW53629   2.877   4.405   3.645  0.1800  0.4321  0.3539
15889SOL    HW153630   2.891   4.489   3.601 -0.5803  0.1590 -0.4239
15889SOL    HW253631   2.823   4.355   3.584 -0.9324  0.0606  1.6032
15890SOL     OW53632   8.971   3.470   3.661  0.1097 -0.1026  0.7948
15890SOL    HW153633   9.050   3.501   3.617  0.2734 -0.8250  0.5736
15890SOL    HW253634   8.924   3.550   3.685 -0.7539  0.3490 -2.0408
15891SOL     OW53635   7.176   4.560   6.451  0.5622  0.4306 -0.6795
15891SOL    HW153636   7.165   4.654   6.437 -1.8613  0.2317 -0.5286
15891SOL    HW253637   7.187   4.551   6.545 -0.9951  0.4580 -0.4782
15892SOL     OW53638   7.177   0.092   0.163 -0.1055 -0.3350  0.7021
15892SOL    HW153639   7.088   0.057   0.171  0.7503 -2.7588  0.3684
15892SOL    HW253640   7.165   0.186   0.153 -2.7937 -0.7986 -1.6966
15893SOL     OW53641   7.378   3.806  11.246 -0.1062 -0.1182  0.5487
15893SOL    HW153642   7.342   3.722  11.276  1.7830 -0.9926  0.5060
15893SOL    HW253643   7.462   3.813  11.292  1.2532  0.1943 -1.8391
15894SOL     OW53644   0.096  11.639   2.974  0.6593 -0.2339 -0.4232
15894SOL    HW153645   0.078  11.673   3.061  3.9555 -1.0260  0.7167
15894SOL    HW253646   0.094  11.717   2.917  0.6505  0.6600  0.7632
15895SOL     OW53647   0.021   9.521   8.457  0.4937 -0.4970 -0.1337
15895SOL    HW153648   0.105   9.566   8.441 -0.2463  0.6312 -1.0444
15895SOL    HW253649  -0.041   9.566   8.399 -0.6318 -1.6719  0.1275
15896SOL     OW53650   0.932   7.485  10.426  0.0200 -0.2416 -0.2710
15896SOL    HW153651   0.897   7.572  10.411  0.1533 -0.0347  0.5557
15896SOL    HW253652   1.027   7.498  10.430 -0.0476  0.1492  2.9643
15897SOL     OW53653  10.620   8.165   3.712 -0.1993 -0.1753 -0.3095
15897SOL    HW153654  10.545   8.224   3.703  0.9772  1.9461  2.3435
15897SOL    HW253655  10.690   8.220   3.746  1.5537 -2.7472  0.5907
15898SOL     OW53656   5.122   9.724   7.698 -0.5448  0.4537  0.6583
15898SOL    HW153657   5.172   9.645   7.717 -0.8459  0.2612  0.6473
15898SOL    HW253658   5.140   9.743   7.606  0.0981  0.8066  0.8501
15899SOL     OW53659   6.398   7.772  11.616  0.2180  0.5210 -0.1504
15899SOL    HW153660   6.428   7.805  11.531  1.1401 -0.8297 -0.3794
15899SOL    HW253661   6.453   7.696  11.633 -0.6323  0.1743  1.2012
15900SOL     OW53662  11.897   8.973   5.172 -0.3837 -0.7522  0.0027
15900SOL    HW153663  11.990   8.960   5.187 -0.2191  0.3686  0.0023
15900SOL    HW253664  11.889   8.983   5.077 -0.2708  0.7718  0.1312
15901SOL     OW53665   3.807   7.105   5.020 -0.0972  0.7427 -0.1227
15901SOL    HW153666   3.740   7.083   4.955 -1.0157  1.0424  0.7107
15901SOL    HW253667   3.806   7.032   5.082  1.4569 -0.0218 -0.9343
15902SOL     OW53668   1.830   1.329   4.587 -0.3596 -0.3331  0.3511
15902SOL    HW153669   1.896   1.375   4.535 -1.4328 -1.0876 -1.7892
15902SOL    HW253670   1.880   1.271   4.644  0.8725  0.6003  0.2673
15903SOL     OW53671   3.460   3.704   8.374  0.3898 -0.3306 -0.3872
15903SOL    HW153672   3.532   3.676   8.317 -0.1480 -0.3032 -1.0964
15903SOL    HW253673   3.437   3.791   8.341 -0.1218 -0.4373 -0.3233
15904SOL     OW53674   0.693   0.636   9.111 -0.5082 -0.5967 -0.3603
15904SOL    HW153675   0.703   0.544   9.137  0.3480 -0.7833 -1.2981
15904SOL    HW253676   0.782   0.669   9.103 -0.7784  1.0304  2.2204
15905SOL     OW53677   3.428   1.399   3.277  0.1774 -0.0719 -0.1347
15905SOL    HW153678   3.399   1.425   3.190  0.5773 -0.0866 -0.2769
15905SOL    HW253679   3.349   1.369   3.321 -0.2008  0.8675 -0.1537
15906SOL     OW53680   8.676   8.971   4.205 -0.9306 -0.1052  0.0147
15906SOL    HW153681   8.682   8.879   4.178 -2.3133 -0.3659  0.5034
15906SOL    HW253682   8.760   9.009   4.179 -0.3067 -1.5146 -0.1594
15907SOL     OW53683   6.443   5.836  12.329 -0.5540  0.2650 -0.2879
15907SOL    HW153684   6.436   5.900  12.258  0.7287  1.2988  0.4964
15907SOL    HW253685   6.510   5.870  12.387 -2.1360 -0.1231  1.9158
15908SOL     OW53686   6.399   5.890   7.889 -0.4507 -0.1309  0.5778
15908SOL    HW153687   6.331   5.881   7.956  0.2097 -1.5169  1.1026
15908SOL    HW253688   6.481   5.873   7.936 -0.0134 -1.5658 -0.6445
15909SOL     OW53689  12.188   7.593  12.100  0.8185 -0.4870 -0.4256
15909SOL    HW153690  12.147   7.618  12.183  0.8395  1.6384 -1.0152
15909SOL    HW253691  12.116   7.593  12.037  1.0142 -0.9269 -0.6538
15910SOL     OW53692   8.657   1.533   0.682  0.3520 -0.4544 -0.2560
15910SOL    HW153693   8.655   1.438   0.688  0.7160 -0.4725 -0.3854
15910SOL    HW253694   8.657   1.563   0.773  1.0087 -0.6031 -0.1978
15911SOL     OW53695  11.009   6.311   8.811 -0.2179  0.4428  0.1262
15911SOL    HW153696  10.933   6.351   8.853 -0.5835  1.0203 -1.0258
15911SOL    HW253697  10.999   6.218   8.828 -0.2263  0.6650  1.4855
15912SOL     OW53698   6.019   5.320   6.282 -0.0791 -0.2690  0.4861
15912SOL    HW153699   6.102   5.284   6.251 -0.1656 -0.8633  0.9250
15912SOL    HW253700   5.952   5.263   6.245 -0.2896  0.1513  0.2126
15913SOL     OW53701   2.205   5.323   5.191  0.0620 -0.2158  0.3223
15913SOL    HW153702   2.285   5.370   5.215 -0.0179  1.0607 -1.7271
15913SOL    HW253703   2.226   5.280   5.108 -0.8617 -1.2733  0.6164
15914SOL     OW53704   8.123   2.640   5.435 -0.5467 -0.2339 -1.1529
15914SOL    HW153705   8.061   2.708   5.407  0.2619  2.5235  2.8146
15914SOL    HW253706   8.081   2.598   5.510  1.1407 -0.3445 -0.2144
15915SOL     OW53707   7.238   1.892  11.391  0.0078 -0.5291 -0.3032
15915SOL    HW153708   7.306   1.958  11.403 -2.6730  2.3329  0.3115
15915SOL    HW253709   7.224   1.857  11.479 -1.4279  1.2326  0.2269
15916SOL     OW53710   8.788  11.799   1.246 -0.1092  0.2681 -0.0469
15916SOL    HW153711   8.731  11.850   1.303  2.0382  1.9358  0.7483
15916SOL    HW253712   8.739  11.791   1.164 -1.1053  2.4799  0.2637
15917SOL     OW53713   9.984   4.854  11.674  0.1805 -0.7361  0.0997
15917SOL    HW153714   9.937   4.787  11.625 -1.5925  0.4056  0.1766
15917SOL    HW253715   9.942   4.936  11.650  0.6705  0.0840  1.8737
15918SOL     OW53716   5.153   6.764   4.877  0.2375  0.1469  0.4490
15918SOL    HW153717   5.161   6.854   4.845  1.3801 -0.0935 -0.0017
15918SOL    HW253718   5.118   6.773   4.966  0.3210  1.0325  0.4037
15919SOL     OW53719   5.237   6.815  11.592 -0.1096 -0.2851  0.0757
15919SOL    HW153720   5.316   6.769  11.620 -1.4134 -1.6010  1.8496
15919SOL    HW253721   5.266   6.871  11.521  2.2494 -1.3233  0.1176
15920SOL     OW53722   6.461   5.851   3.866  0.1444 -0.2188 -0.0665
15920SOL    HW153723   6.462   5.765   3.825  3.1978 -0.1990 -0.2896
15920SOL    HW253724   6.464   5.913   3.792  0.0364  0.0068  0.1151
15921SOL     OW53725  11.043   1.899   0.495 -0.1574  0.2190  0.2211
15921SOL    HW153726  10.995   1.925   0.416 -1.0192  1.1935  1.0353
15921SOL    HW253727  11.119   1.957   0.498  0.0385 -0.0212 -0.0434
15922SOL     OW53728   5.246   3.770   9.994 -0.4685 -0.2443  0.3825
15922SOL    HW153729   5.342   3.775   9.998 -0.4846 -0.4642  1.1550
15922SOL    HW253730   5.228   3.694   9.939 -0.2071  0.5141 -0.7780
15923SOL     OW53731   9.810  11.050  11.845 -0.6590 -0.0228  0.2095
15923SOL    HW153732   9.804  11.075  11.937 -0.2472 -1.2065  0.5849
15923SOL    HW253733   9.826  10.955  11.847 -0.5793 -0.0608 -1.0771
15924SOL     OW53734   5.827   7.200  11.397  0.5814  0.3800  0.6411
15924SOL    HW153735   5.880   7.272  11.432  0.0375  0.6697  0.8757
15924SOL    HW253736   5.834   7.131  11.463  2.7459 -0.5836 -0.4906
15925SOL     OW53737   7.789   0.859   7.429 -0.2488 -0.0437  0.0115
15925SOL    HW153738   7.797   0.787   7.491 -1.3405  0.3894  0.6747
15925SOL    HW253739   7.718   0.913   7.463 -0.1928  0.7543 -1.0731
15926SOL     OW53740   4.741  10.138   0.686  0.0082 -0.2635 -0.4548
15926SOL    HW153741   4.816  10.094   0.726 -0.3919  0.8154  1.6041
15926SOL    HW253742   4.767  10.230   0.681 -0.5175 -0.1551 -1.3669
15927SOL     OW53743   3.572   1.113  10.291 -0.1813 -0.2645  0.1388
15927SOL    HW153744   3.546   1.204  10.280  0.3935 -0.1663 -0.4869
15927SOL    HW253745   3.581   1.080  10.201  0.3808 -0.7077  0.3506
15928SOL     OW53746  12.071  12.490   4.565  0.3058  0.4562 -0.6694
15928SOL    HW153747  12.150  12.497   4.619 -0.2313 -0.9756  0.3625
15928SOL    HW253748  12.104  12.486   4.475  1.4626 -0.5445 -0.2307
15929SOL     OW53749   2.987   0.996   3.232 -0.2021  0.0563 -0.2439
15929SOL    HW153750   3.076   0.984   3.265 -1.3791 -1.6358  2.6778
15929SOL    HW253751   2.984   0.942   3.153  1.1629 -0.4318  0.0038
15930SOL     OW53752   5.223   7.055   8.222 -0.0541 -0.1647 -0.3196
15930SOL    HW153753   5.198   7.032   8.311  0.4873 -0.9281 -0.3571
15930SOL    HW253754   5.307   7.011   8.209  0.1665  0.4392 -0.9951
15931SOL     OW53755  11.570   0.354  11.433  0.3363 -0.0331 -0.4812
15931SOL    HW153756  11.537   0.381  11.519 -1.9746 -1.4517 -0.8537
15931SOL    HW253757  11.584   0.436  11.386  0.8805  0.7344  0.9520
15932SOL     OW53758   1.015   5.298  10.070  0.2148  0.0942 -0.0252
15932SOL    HW153759   0.945   5.342  10.118  0.1826  0.3439 -0.3006
15932SOL    HW253760   1.092   5.354  10.085  0.5177 -0.5250  0.8245
15933SOL     OW53761   5.433   9.870   9.839  0.1004 -0.1878 -0.4712
15933SOL    HW153762   5.394   9.791   9.875  0.1915 -0.6615 -1.3774
15933SOL    HW253763   5.519   9.877   9.880  0.4274 -1.0209 -1.0054
15934SOL     OW53764   6.979   4.505  11.231  0.2109  0.3269 -0.1485
15934SOL    HW153765   7.030   4.470  11.305 -1.0894 -1.2263  0.0636
15934SOL    HW253766   6.955   4.594  11.259  0.4439  0.0611  0.9459
15935SOL     OW53767   0.499   3.770   7.945  0.4735 -0.4775 -0.6233
15935SOL    HW153768   0.589   3.743   7.961  1.0617  1.2091 -0.8677
15935SOL    HW253769   0.483   3.841   8.007 -1.3326 -1.9053  0.6784
15936SOL     OW53770   2.964   2.846   7.485 -0.3063  0.3587  0.1886
15936SOL    HW153771   2.898   2.914   7.472  0.9475  1.8611  1.3173
15936SOL    HW253772   3.044   2.882   7.448  0.2525 -0.7890  0.2228
15937SOL     OW53773   3.660  10.827   5.763  0.0200  0.1359 -0.2090
15937SOL    HW153774   3.692  10.806   5.675 -0.9030 -0.2972 -0.4551
15937SOL    HW253775   3.735  10.814   5.820  0.1479 -1.4548 -0.6905
15938SOL     OW53776   2.622   5.899   7.378 -0.4964 -0.1397  0.5423
15938SOL    HW153777   2.628   5.955   7.455 -1.8633  1.2204 -0.2701
15938SOL    HW253778   2.578   5.954   7.312 -0.2034 -1.5603 -0.8998
15939SOL     OW53779   9.307   9.475  10.461 -0.3609 -0.0699  0.4585
15939SOL    HW153780   9.304   9.557  10.412 -0.4182  0.0941  0.7367
15939SOL    HW253781   9.221   9.435  10.448  0.2475 -0.9880 -1.2029
15940SOL     OW53782   1.263   8.011  10.700 -0.0331 -0.0308 -0.3826
15940SOL    HW153783   1.303   7.991  10.615 -0.7064 -2.0096 -0.2889
15940SOL    HW253784   1.321   8.076  10.739  0.8303  0.1846 -1.9422
15941SOL     OW53785   6.960  11.941   5.711 -0.1191  0.1667 -0.4330
15941SOL    HW153786   7.027  12.004   5.737  1.5753 -0.7868 -2.2085
15941SOL    HW253787   6.885  11.994   5.684  0.8872  1.3817 -0.9042
15942SOL     OW53788   8.811   4.949   8.656 -0.4305  0.6139 -0.0953
15942SOL    HW153789   8.859   5.032   8.657  1.5231 -0.3760 -2.3883
15942SOL    HW253790   8.859   4.894   8.594 -1.9393 -2.0937  0.9650
15943SOL     OW53791   6.121   6.691   3.500  0.0690  0.2809 -0.1632
15943SOL    HW153792   6.088   6.780   3.485 -2.4029 -0.5140  0.0211
15943SOL    HW253793   6.174   6.671   3.423 -1.2055  1.1336 -1.3108
15944SOL     OW53794   2.689   1.900   8.721 -0.1428 -0.1912  0.1409
15944SOL    HW153795   2.783   1.890   8.737 -0.2668 -3.2207 -0.4177
15944SOL    HW253796   2.648   1.836   8.779 -1.7587  0.2580 -0.4592
15945SOL     OW53797   3.974   3.900  10.342 -0.8392 -0.3238 -0.1645
15945SOL    HW153798   4.025   3.923  10.419  0.2691 -0.0881 -0.9518
15945SOL    HW253799   3.981   3.976  10.284 -0.8642 -0.8614 -0.8942
15946SOL     OW53800  11.738  10.832   6.320 -0.5668  0.4908  0.2389
15946SOL    HW153801  11.704  10.817   6.408 -0.3580  0.2121  0.2737
15946SOL    HW253802  11.801  10.762   6.306  0.2000  1.1623  0.2720
15947SOL     OW53803   5.902   2.483   1.465 -0.1655 -0.2166 -0.0504
15947SOL    HW153804   5.851   2.482   1.385 -1.3603  1.3188  0.6624
15947SOL    HW253805   5.956   2.562   1.459 -0.1181 -0.1961  0.5830
15948SOL     OW53806  12.420  11.829   9.395 -0.6524 -0.4292  0.3616
15948SOL    HW153807  12.411  11.871   9.309 -0.7636 -0.0737  0.5445
15948SOL    HW253808  12.352  11.870   9.449 -0.9415 -1.0368  0.4718
15949SOL     OW53809  11.056   2.534   3.637 -0.2028 -0.0266 -0.1138
15949SOL    HW153810  11.025   2.622   3.659 -0.2986 -0.4657  1.7058
15949SOL    HW253811  10.998   2.504   3.568  0.2743  1.5926 -1.2664
15950SOL     OW53812   9.940   3.523   4.872 -0.4862  0.2773  0.2971
15950SOL    HW153813   9.857   3.515   4.826  0.4984 -1.5196 -1.2945
15950SOL    HW253814  10.007   3.522   4.803  0.9897 -1.0486  1.6517
15951SOL     OW53815   1.023   7.970   8.019 -0.5213  0.1107 -0.7355
15951SOL    HW153816   1.007   7.899   7.957  0.6924 -1.2177  0.3850
15951SOL    HW253817   0.980   7.942   8.100 -3.0564  2.3251 -1.1587
15952SOL     OW53818   2.737   0.222  11.504 -0.3501 -0.2042  0.1587
15952SOL    HW153819   2.784   0.144  11.475 -0.0298  0.1029 -0.1513
15952SOL    HW253820   2.654   0.218  11.457 -0.2825 -0.2915  0.0467
15953SOL     OW53821   5.674   7.815  11.335 -0.3660  0.0002  0.0034
15953SOL    HW153822   5.748   7.851  11.384  1.4198 -1.3573 -1.5499
15953SOL    HW253823   5.598   7.832  11.391  1.0723  1.5232  1.6290
15954SOL     OW53824   0.733   8.170   6.813  0.2696 -0.1183  0.2992
15954SOL    HW153825   0.813   8.216   6.786  0.6106 -0.7523  0.2262
15954SOL    HW253826   0.674   8.179   6.738  0.8140 -0.9204 -0.2413
15955SOL     OW53827   1.734   4.093   4.940  0.2830 -0.4327  0.4184
15955SOL    HW153828   1.776   4.018   4.897 -1.1544 -0.8528 -0.2972
15955SOL    HW253829   1.781   4.169   4.906 -0.1346 -0.8312 -1.1140
15956SOL     OW53830   1.182   6.884   3.110  0.2197  0.3021  0.0778
15956SOL    HW153831   1.193   6.950   3.179  0.4036  0.2447  0.1036
15956SOL    HW253832   1.229   6.807   3.143  0.1528  0.2142 -0.0312
15957SOL     OW53833   3.447   5.213   8.982 -0.4634 -0.2553  0.2110
15957SOL    HW153834   3.491   5.131   9.006  1.1789  0.3448 -0.6074
15957SOL    HW253835   3.505   5.281   9.015  0.7565  0.5998 -3.2679
15958SOL     OW53836  10.372  10.308   7.114 -0.0798  0.2551 -0.4534
15958SOL    HW153837  10.338  10.244   7.177 -0.9526  1.1751  0.0463
15958SOL    HW253838  10.295  10.333   7.062 -0.3499  2.7123  0.9802
15959SOL     OW53839   7.173   4.933   0.281 -0.1926  0.4725  0.1642
15959SOL    HW153840   7.246   4.971   0.232  0.0754 -0.6638 -0.3618
15959SOL    HW253841   7.162   4.989   0.357  2.3342 -0.2681  1.1446
15960SOL     OW53842   1.078  12.123  11.788  0.2989 -0.3720 -0.1802
15960SOL    HW153843   1.109  12.192  11.730  3.3143 -1.4126  0.0335
15960SOL    HW253844   1.076  12.045  11.734  0.4207 -0.8068  0.4276
15961SOL     OW53845   8.868   0.476  10.427 -0.2745 -0.3436 -0.1620
15961SOL    HW153846   8.831   0.452  10.343 -1.1797  1.3599 -0.2791
15961SOL    HW253847   8.932   0.545  10.407  0.1434 -0.5416  0.4457
15962SOL     OW53848   4.805   3.209  10.416 -0.4248 -0.5277  0.3618
15962SOL    HW153849   4.803   3.115  10.432 -2.5299 -0.5906  0.0520
15962SOL    HW253850   4.714   3.237  10.427 -0.1600  1.1755 -1.2803
15963SOL     OW53851  10.283   5.466   0.507 -0.3240 -0.1797  0.2658
15963SOL    HW153852  10.345   5.464   0.581  0.2639  0.4038 -0.1932
15963SOL    HW253853  10.202   5.499   0.545  0.4432  1.7726  0.3697
15964SOL     OW53854   9.576  11.398   7.403 -0.0527 -0.6244 -0.1242
15964SOL    HW153855   9.604  11.366   7.488  1.1085  2.8499  0.9711
15964SOL    HW253856   9.483  11.421   7.415 -0.1023 -0.8546 -0.0621
15965SOL     OW53857   9.278   8.800   6.054  0.0561  0.1960 -0.0542
15965SOL    HW153858   9.194   8.774   6.093 -0.4704  2.7384  0.7298
15965SOL    HW253859   9.323   8.847   6.125  2.0095 -0.7599 -0.5873
15966SOL     OW53860   5.087   8.485   4.901 -0.1823 -0.0852 -0.4452
15966SOL    HW153861   5.023   8.427   4.861 -1.9635  0.6751  1.1253
15966SOL    HW253862   5.037   8.533   4.967  1.7043  1.6413 -0.1819
15967SOL     OW53863   0.706   2.908  10.748 -0.2792 -0.5371  0.1570
15967SOL    HW153864   0.734   2.992  10.786 -0.9079  0.1017 -0.7406
15967SOL    HW253865   0.692   2.851  10.823 -1.5554  0.7111  0.9117
15968SOL     OW53866   6.369  10.681   0.577 -0.4928  0.2001  0.2569
15968SOL    HW153867   6.347  10.669   0.484  3.7230  1.5972 -1.1516
15968SOL    HW253868   6.354  10.774   0.593 -2.6201 -0.2934  1.5581
15969SOL     OW53869   9.228   8.357   1.624  0.2277 -0.2356 -0.2088
15969SOL    HW153870   9.279   8.295   1.573 -3.8442 -1.5262 -3.2990
15969SOL    HW253871   9.189   8.304   1.694  1.6655  0.3782  1.1125
15970SOL     OW53872   6.895   3.566  11.068  0.2183 -0.2695 -0.3161
15970SOL    HW153873   6.943   3.489  11.100 -0.6489 -0.3370  0.8977
15970SOL    HW253874   6.924   3.577  10.978  2.5505 -0.2775  0.3708
15971SOL     OW53875   2.527   3.490   0.802 -0.0689  0.1169  0.6254
15971SOL    HW153876   2.595   3.449   0.855  0.6189  1.7628  1.1062
15971SOL    HW253877   2.576   3.539   0.735 -0.8926 -1.0549 -0.8916
15972SOL     OW53878   4.151  10.993   0.387 -0.1116  0.2058  0.4923
15972SOL    HW153879   4.157  11.018   0.294  2.7705 -0.4610  0.4156
15972SOL    HW253880   4.165  10.898   0.387  0.9304  0.3344  1.6477
15973SOL     OW53881  12.310   0.066   6.918  0.3386  0.1500  0.0544
15973SOL    HW153882  12.293  -0.010   6.974  1.7734 -0.3003 -0.0899
15973SOL    HW253883  12.262   0.137   6.961 -3.3224 -1.2857 -1.2678
15974SOL     OW53884   1.620   3.993   7.200 -0.5065 -0.0074  0.2196
15974SOL    HW153885   1.537   4.031   7.172 -0.2559 -0.5213 -1.3693
15974SOL    HW253886   1.608   3.899   7.192  0.1675 -0.0944  0.1310
15975SOL     OW53887  10.216   1.654   4.921 -0.6982  0.1478  0.1097
15975SOL    HW153888  10.234   1.705   4.842  0.8917 -0.6456 -0.0958
15975SOL    HW253889  10.165   1.580   4.891 -2.4921  1.2510  0.3111
15976SOL     OW53890  10.904   4.724   0.542  0.3808 -0.1720 -0.0423
15976SOL    HW153891  10.844   4.660   0.579 -0.5877 -0.5565 -2.1401
15976SOL    HW253892  10.875   4.735   0.451  1.7323  1.7795 -0.3020
15977SOL     OW53893   8.858   8.614   6.591  0.0693 -0.0759 -0.0843
15977SOL    HW153894   8.855   8.692   6.646  0.2895 -0.7903  0.9692
15977SOL    HW253895   8.935   8.627   6.535 -0.4704  0.9051 -0.6396
15978SOL     OW53896  11.612   7.073   3.455 -0.6148  0.2299 -0.6349
15978SOL    HW153897  11.594   7.014   3.528 -0.3726  0.8245 -0.0809
15978SOL    HW253898  11.680   7.030   3.404 -0.1152  0.2352  0.0192
15979SOL     OW53899   1.068   3.380   5.263  0.1376  0.0471  0.0025
15979SOL    HW153900   0.995   3.399   5.204  0.7385  1.0192 -0.4554
15979SOL    HW253901   1.145   3.413   5.217  0.7341 -0.0008  0.9438
15980SOL     OW53902   1.111  10.037  10.551  0.4027 -0.0649  0.2561
15980SOL    HW153903   1.042  10.070  10.494  0.2370 -0.4455  0.2276
15980SOL    HW253904   1.171  10.111  10.563 -0.5648  0.5995  1.1366
15981SOL     OW53905   7.913   7.832   0.087 -0.2142  0.2811  0.1633
15981SOL    HW153906   7.851   7.891   0.131 -1.9065 -1.5497  0.3942
15981SOL    HW253907   7.864   7.797   0.012  0.7257 -0.7972  0.0257
15982SOL     OW53908   8.517   4.414   3.805  0.0336  0.1489 -0.1351
15982SOL    HW153909   8.547   4.471   3.735 -1.2807  0.9052 -0.1267
15982SOL    HW253910   8.458   4.469   3.857 -0.7238 -1.0038  0.2751
15983SOL     OW53911  11.014   8.309   9.511 -0.3649  0.5516 -0.4285
15983SOL    HW153912  10.951   8.352   9.569 -0.5953  0.8265 -0.8761
15983SOL    HW253913  10.973   8.226   9.487 -0.6258  0.7963 -0.8373
15984SOL     OW53914   0.321   3.063   2.771 -0.5135  0.0434 -0.1177
15984SOL    HW153915   0.318   2.981   2.721 -0.1518  0.0105 -0.0865
15984SOL    HW253916   0.407   3.064   2.811 -0.9144 -0.0872  0.7782
15985SOL     OW53917   0.143   5.216   7.548  0.3125  0.2763 -0.3614
15985SOL    HW153918   0.221   5.185   7.595 -0.6684 -1.3677  0.2794
15985SOL    HW253919   0.082   5.242   7.617 -0.9869 -1.7707 -0.6270
15986SOL     OW53920  10.453  12.334   1.521  0.1236  0.9592 -0.0293
15986SOL    HW153921  10.472  12.360   1.431 -1.9144  0.7220 -0.5774
15986SOL    HW253922  10.360  12.353   1.533 -0.2113 -1.1559  1.2561
15987SOL     OW53923   4.004   0.020  12.054  0.5625 -0.0096 -0.2433
15987SOL    HW153924   3.967  -0.026  12.130  2.5232 -1.6430 -0.1739
15987SOL    HW253925   3.968   0.109  12.060  1.2492  0.1952  3.0995
15988SOL     OW53926   5.775   4.934   6.516 -0.0365  0.6708 -0.0241
15988SOL    HW153927   5.865   4.950   6.544 -0.1908  0.9212  0.3374
15988SOL    HW253928   5.748   4.857   6.566  0.7096 -0.7883 -1.7702
15989SOL     OW53929  12.075   2.955  10.289 -0.1560  0.5198  0.2823
15989SOL    HW153930  12.162   2.955  10.330  0.7409 -0.1868 -1.4861
15989SOL    HW253931  12.033   2.875  10.321  0.2844  0.2981  0.3204
15990SOL     OW53932  10.852   1.363  12.428 -0.6150  0.6511  0.1025
15990SOL    HW153933  10.911   1.346  12.355  1.6752 -1.2232  2.2515
15990SOL    HW253934  10.783   1.418  12.390  1.8539  2.0321 -2.8205
15991SOL     OW53935   4.738   9.477   7.712 -0.0778  0.6662  0.3106
15991SOL    HW153936   4.644   9.490   7.720 -0.5618 -1.5483 -0.8655
15991SOL    HW253937   4.767   9.547   7.654 -1.2699  0.6131 -0.3961
15992SOL     OW53938   3.243   7.956   8.565 -0.0720  0.2497 -0.0724
15992SOL    HW153939   3.277   7.882   8.615 -1.7093 -0.3023  0.2903
15992SOL    HW253940   3.235   7.924   8.476  0.5858  0.4740 -0.2201
15993SOL     OW53941   3.537   0.248   3.122 -0.1068 -0.4044 -0.0928
15993SOL    HW153942   3.545   0.154   3.141  1.1782 -0.4050 -0.5347
15993SOL    HW253943   3.563   0.291   3.203  0.6640 -0.4397 -0.3084
15994SOL     OW53944  10.043  10.654   6.291 -0.2399  0.3084 -0.3447
15994SOL    HW153945  10.026  10.711   6.216  0.6666  0.7694 -0.2263
15994SOL    HW253946  10.134  10.673   6.315  0.3222 -1.7035 -0.7222
15995SOL     OW53947  10.429  10.334   9.478 -0.5916 -0.4360 -0.6572
15995SOL    HW153948  10.474  10.266   9.426 -1.1464 -1.1132 -0.2649
15995SOL    HW253949  10.439  10.414   9.426  1.0135 -0.5690 -0.6121
15996SOL     OW53950   0.691   5.172   1.650  0.5201  0.4662 -0.3203
15996SOL    HW153951   0.638   5.161   1.571  1.6964 -0.5104 -1.0310
15996SOL    HW253952   0.753   5.242   1.627  0.6241  0.4361 -0.1295
15997SOL     OW53953   4.050   3.969   7.016  0.1410  0.1792  0.5270
15997SOL    HW153954   4.103   3.908   6.965 -0.0842  1.1750 -0.9787
15997SOL    HW253955   4.064   3.944   7.107  2.5592 -0.0768  0.1301
15998SOL     OW53956   0.773   0.648   0.600 -0.5995 -0.0605 -0.2323
15998SOL    HW153957   0.773   0.559   0.565 -1.1539 -0.7400  1.3822
15998SOL    HW253958   0.840   0.646   0.668 -2.4841 -0.0960  1.7330
15999SOL     OW53959   7.591   5.315   2.004 -0.0828 -0.1290 -0.1766
15999SOL    HW153960   7.496   5.321   1.990 -0.0986 -1.0531 -0.5377
15999SOL    HW253961   7.627   5.392   1.960 -0.6684  0.2645  0.0224
16000SOL     OW53962  10.039   9.496  10.009 -0.1263 -0.0149  0.1273
16000SOL    HW153963  10.027   9.566   9.945 -0.6386 -0.3485 -0.1551
16000SOL    HW253964   9.966   9.436   9.992 -0.0492 -0.2986  0.7751
16001SOL     OW53965   2.551  12.486   8.846  0.0351 -0.3466 -0.2682
16001SOL    HW153966   2.456  12.493   8.850 -0.0103 -0.6891 -0.6932
16001SOL    HW253967   2.582  12.534   8.923 -0.4595  0.1507 -0.3763
16002SOL     OW53968  11.786   6.638   4.241  0.6176 -0.1513 -0.3657
16002SOL    HW153969  11.695   6.609   4.240  0.5148  0.1328 -1.8893
16002SOL    HW253970  11.817   6.622   4.152  1.3698  1.8404 -0.5233
16003SOL     OW53971   7.391   6.056  11.295 -0.3336  0.2750 -0.0462
16003SOL    HW153972   7.362   6.059  11.204  2.6099  0.4597 -1.0802
16003SOL    HW253973   7.415   5.964  11.310 -1.1601  0.1651  0.7092
16004SOL     OW53974  11.532   7.389   8.645 -0.5133 -0.3284 -0.6278
16004SOL    HW153975  11.619   7.429   8.638 -0.1141 -1.2641 -1.3080
16004SOL    HW253976  11.498   7.392   8.555 -1.3723  0.4008 -0.2951
16005SOL     OW53977   5.452   8.446   5.473 -0.1828  0.2056  0.8501
16005SOL    HW153978   5.531   8.395   5.491  1.1004  1.6195 -0.4881
16005SOL    HW253979   5.484   8.535   5.457 -2.0789  0.8785  0.5378
16006SOL     OW53980   1.942   4.824   3.423 -0.0269  0.2877  0.5954
16006SOL    HW153981   1.986   4.768   3.487  1.1405  0.2918 -0.1806
16006SOL    HW253982   1.882   4.765   3.376  1.2035 -0.3524 -0.2280
16007SOL     OW53983   2.531   8.770   6.054  0.2229 -0.1450 -0.0273
16007SOL    HW153984   2.622   8.768   6.083  1.0418 -0.7306 -2.3339
16007SOL    HW253985   2.485   8.709   6.111  0.9981  0.9522  1.8553
16008SOL     OW53986   3.768   3.952   5.831  0.1417  0.4018 -0.4464
16008SOL    HW153987   3.847   4.000   5.803  1.4640 -1.2123  0.3400
16008SOL    HW253988   3.705   3.968   5.761  1.0220  2.0549 -0.9293
16009SOL     OW53989   9.745   2.606  12.392  0.8377  0.4241 -0.3687
16009SOL    HW153990   9.827   2.572  12.428  1.3477  2.5788  0.6447
16009SOL    HW253991   9.694   2.630  12.469  0.4704  1.7905 -1.0163
16010SOL     OW53992  10.201   3.712  10.306  0.2796  0.0469 -0.0750
16010SOL    HW153993  10.252   3.631  10.308  1.9166  0.8567 -2.8735
16010SOL    HW253994  10.233   3.762  10.381  1.2726 -0.7684  0.0718
16011SOL     OW53995   6.245   4.693   6.473 -0.5820 -0.0329  0.1796
16011SOL    HW153996   6.191   4.758   6.428  0.8348  1.2158  0.2042
16011SOL    HW253997   6.272   4.736   6.554 -1.0455 -1.3350  1.0674
16012SOL     OW53998  12.300   8.504   8.522  0.2787 -0.4880  0.0321
16012SOL    HW153999  12.338   8.421   8.495 -0.9974 -0.7463 -1.0982
16012SOL    HW254000  12.230   8.480   8.582  0.3275 -0.1920  0.2064
16013SOL     OW54001   9.350   9.361   5.289  0.2346 -0.0334  0.2866
16013SOL    HW154002   9.401   9.340   5.367  1.0488  1.0916  0.0867
16013SOL    HW254003   9.321   9.451   5.302 -0.4871 -0.1768 -0.2523
16014SOL     OW54004  12.471   2.621   4.567  0.0056  0.6522  0.0046
16014SOL    HW154005  12.430   2.653   4.487  1.2515  0.2405 -0.8296
16014SOL    HW254006  12.565   2.631   4.552  0.2975 -0.2287  1.0700
16015SOL     OW54007   4.560   3.893   8.762 -0.3922  0.5804 -0.8186
16015SOL    HW154008   4.490   3.843   8.719 -0.4335  0.9326 -1.1667
16015SOL    HW254009   4.596   3.833   8.827  0.5645 -0.4472 -2.2413
16016SOL     OW54010  12.426  10.945   3.242  0.4910 -0.4291 -0.3950
16016SOL    HW154011  12.466  10.932   3.328  0.6971 -3.6501 -0.8570
16016SOL    HW254012  12.332  10.954   3.260  0.8175  2.5077  0.3315
16017SOL     OW54013   7.921   8.015   2.385 -0.2506  0.3497  0.1194
16017SOL    HW154014   7.933   7.927   2.349 -2.8647  0.0772 -0.2884
16017SOL    HW254015   7.863   8.002   2.460 -0.1330  1.6698  0.4609
16018SOL     OW54016   0.444   4.631   2.348 -0.4436 -0.3835 -0.2159
16018SOL    HW154017   0.456   4.688   2.424 -0.1568  1.2090 -1.3779
16018SOL    HW254018   0.485   4.680   2.276 -1.4162 -1.4540 -1.5465
16019SOL     OW54019   9.631   6.366  10.902 -0.4130  0.4292  0.3068
16019SOL    HW154020   9.711   6.368  10.956 -0.2226  2.3669  0.0075
16019SOL    HW254021   9.646   6.432  10.834 -2.5993  1.4681  0.7424
16020SOL     OW54022  11.591   2.829   5.598  0.0938  0.4765 -0.3889
16020SOL    HW154023  11.652   2.871   5.537 -0.1673  1.5061  0.0411
16020SOL    HW254024  11.507   2.829   5.551  0.2560 -0.2563 -0.6846
16021SOL     OW54025  12.132   3.380   7.700 -0.2808  0.0799 -0.0606
16021SOL    HW154026  12.069   3.451   7.700  0.2027  0.5138 -0.4695
16021SOL    HW254027  12.123   3.340   7.787 -2.0312 -0.7118 -0.5694
16022SOL     OW54028   5.693   0.700   9.572 -0.0720  0.0632  0.2869
16022SOL    HW154029   5.710   0.614   9.610 -0.3840  0.0257  0.3416
16022SOL    HW254030   5.758   0.708   9.502  2.6362  1.4212  2.7612
16023SOL     OW54031  10.219   3.720   7.901 -0.1425  0.2639  0.1281
16023SOL    HW154032  10.195   3.812   7.909 -0.9877 -0.0099  0.9493
16023SOL    HW254033  10.173   3.690   7.823  2.0631  1.0972 -1.5777
16024SOL     OW54034   9.729   3.485   6.418 -0.4557  0.6902 -0.0525
16024SOL    HW154035   9.729   3.578   6.396 -0.6769  0.7766  0.2963
16024SOL    HW254036   9.654   3.475   6.477 -1.9673 -0.1687 -1.9967
16025SOL     OW54037   4.804   3.730   2.568  0.2792 -0.0784 -0.3884
16025SOL    HW154038   4.733   3.761   2.512  0.9132  1.5633 -0.3515
16025SOL    HW254039   4.776   3.752   2.657 -0.4669 -2.1551 -0.0483
16026SOL     OW54040   7.944   7.081  11.257 -0.1627 -0.0958  0.1186
16026SOL    HW154041   7.869   7.095  11.314  0.2259 -0.9204  0.8610
16026SOL    HW254042   7.908   7.042  11.178 -0.5664 -0.0505  0.2788
16027SOL     OW54043   7.068   6.502  11.502  0.2395  0.3494 -0.6352
16027SOL    HW154044   7.051   6.421  11.551 -0.3305  0.3523 -0.8183
16027SOL    HW254045   7.101   6.563  11.568  1.5347 -0.3001 -0.6654
16028SOL     OW54046  12.290  11.448  12.451  0.0816  0.2502 -0.0598
16028SOL    HW154047  12.341  11.477  12.527  1.4637  1.0523 -1.2226
16028SOL    HW254048  12.350  11.459  12.377 -1.6109  0.6701 -1.4364
16029SOL     OW54049   4.389   2.492   6.905  0.1973  0.0719  0.8807
16029SOL    HW154050   4.447   2.532   6.840  0.6929  0.2497  1.4280
16029SOL    HW254051   4.372   2.405   6.870 -1.4611  0.9448 -0.6912
16030SOL     OW54052   8.945   5.655  10.763  0.1105  0.1018 -0.0663
16030SOL    HW154053   8.899   5.735  10.789  2.6360  2.3169 -1.8749
16030SOL    HW254054   9.024   5.654  10.817  1.3524  0.2894 -1.8016
16031SOL     OW54055  10.407  11.633   3.039 -0.0086  0.2514  0.4127
16031SOL    HW154056  10.460  11.685   3.099 -0.2572  0.5524  0.3774
16031SOL    HW254057  10.444  11.651   2.953  1.7247 -1.8428  0.6529
16032SOL     OW54058  12.488   6.470  10.063  0.3029  0.2355  0.3097
16032SOL    HW154059  12.509   6.551  10.017  0.4128  0.5278  0.8688
16032SOL    HW254060  12.395   6.454  10.043  0.1721  0.7141  0.5226
16033SOL     OW54061  10.740  12.396   1.551 -0.4706 -0.6616 -0.6856
16033SOL    HW154062  10.645  12.385   1.557 -0.3817 -0.6122  1.8870
16033SOL    HW254063  10.757  12.479   1.595  0.8550 -1.2231 -0.0862
16034SOL     OW54064   2.072   6.145   4.752 -0.2510  0.2815 -0.0861
16034SOL    HW154065   2.009   6.116   4.686  0.2303 -0.2956 -0.2931
16034SOL    HW254066   2.078   6.240   4.739 -0.4329  0.2222 -0.6297
16035SOL     OW54067   4.601  11.080   2.586 -0.3695  0.3447  0.0348
16035SOL    HW154068   4.677  11.033   2.621 -0.2672  0.7275  0.3329
16035SOL    HW254069   4.584  11.149   2.650  0.5670  1.8424 -1.2625
16036SOL     OW54070   9.599   9.581   0.570  0.1427 -0.0268 -0.3141
16036SOL    HW154071   9.587   9.503   0.516 -2.5471 -0.3137  0.5722
16036SOL    HW254072   9.558   9.652   0.520 -1.3954 -0.0875  0.7950
16037SOL     OW54073   8.548   2.750  10.785 -0.1110  0.5769  0.1161
16037SOL    HW154074   8.513   2.666  10.756 -0.5651  0.3153  1.3706
16037SOL    HW254075   8.483   2.784  10.846 -0.2702  2.1773 -0.8617
16038SOL     OW54076  12.350   3.525   3.706  0.3009 -0.5076 -0.0277
16038SOL    HW154077  12.265   3.562   3.682 -0.8160 -2.7482  0.2255
16038SOL    HW254078  12.393   3.594   3.755 -0.5259  1.4075 -1.8377
16039SOL     OW54079   8.030  11.174   0.069  0.5811  0.4127 -0.7429
16039SOL    HW154080   8.008  11.093   0.025 -0.4911  1.8887 -3.1242
16039SOL    HW254081   8.125  11.182   0.060  0.9773 -1.3511  1.1069
16040SOL     OW54082   7.281  11.852  10.594 -0.5131 -0.2123  0.0318
16040SOL    HW154083   7.218  11.859  10.665 -1.1343 -1.1825 -0.4064
16040SOL    HW254084   7.242  11.789  10.533  1.2710 -1.5181  0.1686
16041SOL     OW54085   7.212   6.683  10.881  0.0565  0.1567  0.3158
16041SOL    HW154086   7.119   6.689  10.903 -0.0330 -1.5673  0.5182
16041SOL    HW254087   7.258   6.712  10.959 -0.2726  2.4820 -0.2812
16042SOL     OW54088   5.852   5.138   6.156  0.2722 -0.0094 -0.6189
16042SOL    HW154089   5.833   5.060   6.207  0.4888 -0.4312 -1.1736
16042SOL    HW254090   5.776   5.149   6.098 -0.6847  1.3399  0.8158
16043SOL     OW54091  12.256   6.930   5.766  0.2994  0.0364 -0.1015
16043SOL    HW154092  12.327   6.978   5.808 -0.7712  0.8969  0.7684
16043SOL    HW254093  12.176   6.974   5.795 -0.5825 -0.5960 -1.4516
16044SOL     OW54094  10.267   5.623   2.255  0.0046  0.0178  0.7601
16044SOL    HW154095  10.310   5.603   2.338  1.3135 -1.3994 -0.2075
16044SOL    HW254096  10.190   5.565   2.253 -0.4499  0.5921  1.2922
16045SOL     OW54097   0.088   2.045   9.631  0.0196 -0.3316 -0.4290
16045SOL    HW154098   0.094   2.021   9.723  0.1982 -0.9848 -0.6006
16045SOL    HW254099   0.107   1.963   9.584 -1.1885 -0.2890 -1.0406
16046SOL     OW54100   7.971   9.036   2.272  0.4256 -0.0398  0.8587
16046SOL    HW154101   7.938   9.126   2.263  1.5572  0.3457  0.4437
16046SOL    HW254102   7.956   8.996   2.187 -0.1519 -0.2763  1.0683
16047SOL     OW54103   1.132   5.881   9.038 -0.6590 -0.3012  0.3459
16047SOL    HW154104   1.115   5.932   8.959 -3.0088 -0.2832  0.7977
16047SOL    HW254105   1.082   5.926   9.107 -2.6916 -3.0203  0.8129
16048SOL     OW54106   9.082   9.155   0.271  0.3609 -0.4837  0.0855
16048SOL    HW154107   9.108   9.153   0.363  2.2167 -1.3420 -0.4234
16048SOL    HW254108   9.163   9.171   0.223 -0.9185  2.7841 -1.3128
16049SOL     OW54109   0.573   2.659   3.010  0.2636 -0.2070 -0.2967
16049SOL    HW154110   0.581   2.567   2.984  0.2803  0.1712 -1.6798
16049SOL    HW254111   0.482   2.681   2.992  0.1927 -0.0035  0.2675
16050SOL     OW54112  10.999   4.400   4.384 -0.3738 -0.3493 -0.0824
16050SOL    HW154113  11.073   4.403   4.323  0.0364  1.0833  0.4354
16050SOL    HW254114  10.949   4.479   4.365  0.7333  1.1117  2.5383
16051SOL     OW54115   1.606  11.339   3.660  0.6853 -0.2118  0.0878
16051SOL    HW154116   1.545  11.280   3.616  1.0830 -1.7868  1.5274
16051SOL    HW254117   1.580  11.335   3.752  0.1187  2.6612  0.1438
16052SOL     OW54118   5.664   4.091   2.280  0.1388 -0.0941  0.1660
16052SOL    HW154119   5.739   4.047   2.319  1.4254  0.7032 -1.3153
16052SOL    HW254120   5.696   4.124   2.197 -2.2931 -1.0994 -1.2870
16053SOL     OW54121   0.175   3.900  11.833  0.3642  0.3767  0.4288
16053SOL    HW154122   0.233   3.941  11.769 -0.1740  0.6722  0.1177
16053SOL    HW254123   0.152   3.816  11.794 -0.6221  0.8995 -0.1795
16054SOL     OW54124   3.365  11.023   7.423  1.1045 -0.2097  0.1085
16054SOL    HW154125   3.324  11.044   7.506  0.3861  1.1929 -0.5624
16054SOL    HW254126   3.443  11.079   7.420  1.0263 -0.1139 -0.2228
16055SOL     OW54127   6.922   1.164   2.986 -0.6099  0.5134 -0.0895
16055SOL    HW154128   6.916   1.141   3.079 -0.2099 -1.1155 -0.4351
16055SOL    HW254129   6.894   1.255   2.982 -1.3989  0.3726  1.5219
16056SOL     OW54130   9.184   9.508   0.408  0.1515  0.4928  0.1886
16056SOL    HW154131   9.218   9.424   0.438  0.3392 -0.4267 -2.3748
16056SOL    HW254132   9.089   9.496   0.403  0.2914 -0.1017 -1.5596
16057SOL     OW54133   6.922   0.308   2.874  0.1746  0.1482 -0.1827
16057SOL    HW154134   6.874   0.269   2.801 -1.4431  0.6676  0.5403
16057SOL    HW254135   7.012   0.281   2.861 -0.1978 -0.3893 -1.9560
16058SOL     OW54136  12.144  10.563   1.983 -0.9837  0.3295 -0.1860
16058SOL    HW154137  12.187  10.484   2.014 -0.6223  0.1396 -1.1207
16058SOL    HW254138  12.112  10.540   1.895  0.5504  1.7002 -1.1632
16059SOL     OW54139   2.334   3.822   2.670  0.4631  0.5981 -0.2932
16059SOL    HW154140   2.250   3.776   2.664  0.7486  0.1265 -0.8341
16059SOL    HW254141   2.322   3.900   2.615  0.9912 -0.4659 -2.0056
16060SOL     OW54142   7.505   5.503   1.532 -0.5739  0.3125  0.2867
16060SOL    HW154143   7.518   5.422   1.581 -1.9877 -0.7407 -0.9498
16060SOL    HW254144   7.575   5.561   1.561  1.2632 -1.7836  0.3349
16061SOL     OW54145  10.080   7.743  11.470  0.5614  0.6261  0.5359
16061SOL    HW154146  10.106   7.713  11.558 -0.4639  0.8357  0.9159
16061SOL    HW254147  10.054   7.834  11.483 -0.5674  0.3536  0.2072
16062SOL     OW54148   0.947   3.733   0.740 -0.3342 -0.4790 -0.1434
16062SOL    HW154149   0.894   3.801   0.782  0.1469 -0.0324 -0.2514
16062SOL    HW254150   0.935   3.748   0.646  0.1644 -0.2387 -0.1670
16063SOL     OW54151   4.264   3.092   8.875  0.6598  0.0624 -0.1565
16063SOL    HW154152   4.221   3.012   8.844  0.4672  0.2055 -0.2645
16063SOL    HW254153   4.202   3.162   8.853 -0.0637  0.0371  1.6480
16064SOL     OW54154   9.958   9.619  11.415  0.3675 -0.5733 -0.3052
16064SOL    HW154155   9.865   9.613  11.434 -0.6263 -1.6415 -4.3980
16064SOL    HW254156   9.981   9.709  11.438 -1.8868 -0.0318  0.0863
16065SOL     OW54157   8.650   3.817   3.869  0.0373 -0.0709  0.2626
16065SOL    HW154158   8.691   3.841   3.786 -0.0686 -0.5754  0.0627
16065SOL    HW254159   8.687   3.732   3.890 -0.2732 -0.1453  0.5083
16066SOL     OW54160   0.870   2.161   1.033 -0.4581  0.0490  0.3204
16066SOL    HW154161   0.873   2.236   0.973  0.7167 -0.8783 -0.8304
16066SOL    HW254162   0.955   2.160   1.076 -0.0005 -1.2969 -0.5595
16067SOL     OW54163   9.352   7.229   5.089 -0.1420  0.5506  0.5416
16067SOL    HW154164   9.362   7.136   5.107 -1.1053  0.9538  4.0031
16067SOL    HW254165   9.427   7.270   5.133  1.2570  1.3909 -2.4098
16068SOL     OW54166   6.859   8.363   6.613 -0.3262  0.2490  0.4136
16068SOL    HW154167   6.898   8.407   6.688  0.5228 -1.0984  0.8130
16068SOL    HW254168   6.919   8.380   6.541 -0.6933  0.8339  0.2436
16069SOL     OW54169   4.503   2.013   6.964  0.1623 -0.3834 -0.1331
16069SOL    HW154170   4.491   1.919   6.954  0.8330 -0.5581  0.6060
16069SOL    HW254171   4.553   2.039   6.887 -1.9914 -0.1965 -1.5652
16070SOL     OW54172  12.392  11.797  10.604  0.4357  0.2262  0.9008
16070SOL    HW154173  12.428  11.849  10.532  0.5209  2.2289  2.3013
16070SOL    HW254174  12.466  11.748  10.638  1.0083  1.2714  1.2242
16071SOL     OW54175   6.137   4.186  12.311  0.2892  0.0144 -0.0445
16071SOL    HW154176   6.219   4.179  12.261  2.0837  0.5927  2.5641
16071SOL    HW254177   6.150   4.262  12.367 -1.3837 -0.8138  1.5694
16072SOL     OW54178  11.900   5.193   6.795  0.1425  0.1449 -0.2708
16072SOL    HW154179  11.912   5.187   6.890  2.9060  1.2703 -0.4606
16072SOL    HW254180  11.891   5.287   6.778  2.7321  0.3017 -1.3061
16073SOL     OW54181  12.372  12.342   5.555  0.3238  0.0551 -0.2935
16073SOL    HW154182  12.355  12.294   5.636  1.2554  0.8313  0.4003
16073SOL    HW254183  12.358  12.279   5.485  0.1200 -0.8072  0.5100
16074SOL     OW54184   3.175   7.563   8.622 -0.3169 -0.3010  0.3602
16074SOL    HW154185   3.211   7.481   8.656 -0.6171 -0.2764  0.7514
16074SOL    HW254186   3.155   7.545   8.530  1.8649  0.0633 -0.2266
16075SOL     OW54187   1.039   7.450   3.212  0.1196  0.8060 -0.2561
16075SOL    HW154188   0.973   7.410   3.155  0.0429 -0.2297  0.5193
16075SOL    HW254189   1.116   7.461   3.157  0.4396 -1.2729 -0.3239
16076SOL     OW54190   9.725   1.690   1.989  0.1348 -0.0664 -0.1463
16076SOL    HW154191   9.639   1.731   1.998  0.2245 -0.3589  3.6044
16076SOL    HW254192   9.712   1.601   2.021  2.0454  0.3636  2.1383
16077SOL     OW54193   3.330   0.742   6.334  0.5216 -0.2510 -0.1590
16077SOL    HW154194   3.399   0.712   6.393 -0.0040 -1.7319 -0.2504
16077SOL    HW254195   3.269   0.669   6.329 -1.3391  1.1839  0.2999
16078SOL     OW54196   0.763   3.640   1.126  0.1661  0.0347 -0.0108
16078SOL    HW154197   0.783   3.568   1.066  0.3854  0.6028 -0.6261
16078SOL    HW254198   0.704   3.697   1.076  0.2724  0.4608  0.3489
16079SOL     OW54199   6.797  12.234   2.047 -1.0339  0.7300  0.3248
16079SOL    HW154200   6.734  12.203   1.982 -1.4064  0.8140  0.6488
16079SOL    HW254201   6.749  12.238   2.129 -0.6342  0.8837  0.5581
16080SOL     OW54202   7.956   2.680   0.153 -0.4355 -0.5048 -0.3195
16080SOL    HW154203   7.969   2.609   0.216  2.2443  0.1289 -0.0015
16080SOL    HW254204   7.976   2.759   0.202 -0.8120  0.2369 -1.3260
16081SOL     OW54205  11.244  10.614   0.886 -0.2077  0.5708  0.0308
16081SOL    HW154206  11.161  10.575   0.857 -0.1233 -1.7263  2.4374
16081SOL    HW254207  11.219  10.671   0.959  0.2919 -0.1672  0.7959
16082SOL     OW54208   7.437   5.612   2.727 -0.1634 -0.8349 -0.0641
16082SOL    HW154209   7.398   5.672   2.790  1.0191  0.5652 -0.6135
16082SOL    HW254210   7.364   5.583   2.673 -0.6254  1.1286 -0.5833
16083SOL     OW54211   9.233   6.338   3.370 -0.2212 -0.1800 -0.5213
16083SOL    HW154212   9.181   6.284   3.310  0.5591 -0.6676 -0.7750
16083SOL    HW254213   9.222   6.428   3.338 -1.3441 -0.2032 -0.2370
16084SOL     OW54214   2.631   0.127   4.773  0.1778  0.1815  0.0711
16084SOL    HW154215   2.660   0.038   4.752 -1.0464  0.0610 -1.2379
16084SOL    HW254216   2.657   0.139   4.864  0.7756 -1.3428  0.1407
16085SOL     OW54217   3.890   0.758   4.765 -0.8788 -0.5727 -0.1859
16085SOL    HW154218   3.935   0.688   4.812  1.1246  1.1935  0.7045
16085SOL    HW254219   3.952   0.786   4.697 -1.2681  0.8394 -0.0069
16086SOL     OW54220   5.528   3.782   7.860  0.2169 -0.2798  0.0471
16086SOL    HW154221   5.482   3.768   7.943 -1.3616 -1.0873 -0.9000
16086SOL    HW254222   5.617   3.807   7.885 -0.1083 -0.8901  1.9658
16087SOL     OW54223  10.957   7.785   9.597  0.1684 -0.0360 -0.6006
16087SOL    HW154224  10.888   7.780   9.664 -1.2123 -0.1049 -1.9782
16087SOL    HW254225  10.966   7.695   9.565  0.1947  0.1436 -1.1064
16088SOL     OW54226   8.607   0.278   5.895 -0.2716 -0.4581 -0.2196
16088SOL    HW154227   8.681   0.293   5.953  0.0565  1.6924 -1.0829
16088SOL    HW254228   8.537   0.245   5.952  0.8038 -0.8406  0.9094
16089SOL     OW54229   1.894   4.265   1.044 -0.0581  1.2784 -0.5234
16089SOL    HW154230   1.862   4.354   1.031  0.0326  1.2475 -0.9878
16089SOL    HW254231   1.983   4.276   1.078 -0.9428  1.3763  1.9614
16090SOL     OW54232   9.496   2.545   5.835  0.3980  0.0382  0.4226
16090SOL    HW154233   9.521   2.617   5.778  0.5829 -0.0531  0.3861
16090SOL    HW254234   9.503   2.467   5.779 -1.4935  0.1532 -0.0545
16091SOL     OW54235  10.902   3.030   0.632 -0.3612 -0.3144  0.3346
16091SOL    HW154236  10.967   3.098   0.613  0.2501 -0.6044  1.2906
16091SOL    HW254237  10.917   2.963   0.566  0.2727 -0.3517  0.5155
16092SOL     OW54238   7.516   6.714   5.147 -0.1865 -0.2849 -0.4636
16092SOL    HW154239   7.514   6.618   5.144 -2.0526 -0.3197  0.5920
16092SOL    HW254240   7.547   6.735   5.235  1.7235  0.1331 -1.1945
16093SOL     OW54241   6.321  11.796   6.133  0.6428  0.3237 -0.1223
16093SOL    HW154242   6.335  11.705   6.108  1.7532  1.0698 -2.5362
16093SOL    HW254243   6.230  11.814   6.110 -0.0297 -0.4778  1.6684
16094SOL     OW54244  10.803   4.149   2.296 -0.2769  0.6408 -0.2474
16094SOL    HW154245  10.765   4.111   2.217  0.2766  0.6492 -0.5232
16094SOL    HW254246  10.892   4.114   2.299 -0.1447  0.9962  0.1248
16095SOL     OW54247   2.134   1.823   3.700 -0.1115  0.0609 -0.0144
16095SOL    HW154248   2.108   1.908   3.664  0.7024  0.8553  1.1757
16095SOL    HW254249   2.070   1.805   3.768  0.2702  0.1857  0.3782
16096SOL     OW54250   8.939   6.320   8.422  0.0923  0.5143 -0.0478
16096SOL    HW154251   8.914   6.265   8.348  1.5635 -0.3966  0.0896
16096SOL    HW254252   8.998   6.385   8.384  2.0252 -0.8339  0.4917
16097SOL     OW54253   5.717  11.341   0.100 -0.3452  0.0170  0.7798
16097SOL    HW154254   5.774  11.293   0.039  0.6263  1.0548  0.8477
16097SOL    HW254255   5.679  11.273   0.155  0.8941 -0.6990  0.7838
16098SOL     OW54256   5.819  11.841   7.516 -0.2976 -0.3231 -0.7490
16098SOL    HW154257   5.751  11.774   7.514 -1.8353  1.1595 -0.4086
16098SOL    HW254258   5.772  11.922   7.535  1.5205  0.8347 -0.9717
16099SOL     OW54259   7.634   2.171   8.351  0.0031  0.1015 -0.4021
16099SOL    HW154260   7.704   2.207   8.296 -1.1379 -1.1095 -2.8089
16099SOL    HW254261   7.569   2.241   8.355  0.8286  0.8184  0.8925
16100SOL     OW54262  10.855   6.060   6.317 -0.2755 -0.1365  0.2770
16100SOL    HW154263  10.861   6.151   6.346 -2.5857  0.3171 -0.4533
16100SOL    HW254264  10.912   6.056   6.240  0.0515  0.6207  0.4651
16101SOL     OW54265   4.406   2.387   2.167  0.3919 -0.4593  0.0513
16101SOL    HW154266   4.502   2.380   2.172  0.3839 -0.5917 -0.0042
16101SOL    HW254267   4.384   2.452   2.234  0.6596  0.6949 -0.9462
16102SOL     OW54268  10.890   2.682   7.052  0.0288  0.3496  0.3939
16102SOL    HW154269  10.944   2.756   7.023  1.3209 -0.5379  0.4557
16102SOL    HW254270  10.844   2.654   6.973 -0.8942  1.5382  0.4842
16103SOL     OW54271  11.329   6.617   1.321 -0.5301 -0.3413 -0.1884
16103SOL    HW154272  11.316   6.712   1.328 -2.0194 -0.5348 -0.1103
16103SOL    HW254273  11.277   6.581   1.392 -0.2891 -1.2576 -0.4689
16104SOL     OW54274   7.970   4.629   0.358 -0.1522  0.4375  0.4411
16104SOL    HW154275   7.952   4.622   0.265 -0.5659  0.6393  0.5014
16104SOL    HW254276   8.003   4.542   0.383  0.6269  0.5944 -0.0231
16105SOL     OW54277  12.198   3.975   7.234 -0.3546  0.0490  0.4885
16105SOL    HW154278  12.162   4.045   7.180  0.2599  0.9667  1.2351
16105SOL    HW254279  12.279   3.950   7.191 -0.8465 -0.6118 -0.0830
16106SOL     OW54280   9.505   5.173   5.086  0.3368  0.2751 -0.5189
16106SOL    HW154281   9.484   5.149   4.996 -0.3621 -2.2377  0.2342
16106SOL    HW254282   9.557   5.100   5.119  0.8413  1.2866  1.0588
16107SOL     OW54283   6.552  12.403   2.494 -0.0682  0.4363  0.7224
16107SOL    HW154284   6.596  12.459   2.430  0.4170  0.8079  1.3588
16107SOL    HW254285   6.463  12.438   2.500 -1.2452 -1.6767 -2.2141
16108SOL     OW54286   7.911   6.268   4.203  0.1613 -0.3605  0.0442
16108SOL    HW154287   7.837   6.318   4.238  1.5343  1.7174  0.1393
16108SOL    HW254288   7.970   6.334   4.168  2.0257 -1.9463  0.0291
16109SOL     OW54289   9.765   8.649   5.130  0.2560 -0.6477 -0.2949
16109SOL    HW154290   9.692   8.588   5.119  0.1235 -0.3409 -1.2375
16109SOL    HW254291   9.729   8.721   5.181 -0.0603 -0.5833 -0.6002
16110SOL     OW54292   6.503   8.452  10.597  0.2515  0.6095  0.8178
16110SOL    HW154293   6.455   8.479  10.675  1.4967  0.5477  1.6332
16110SOL    HW254294   6.488   8.522  10.534  0.7262  1.5808  1.7577
16111SOL     OW54295   6.891  11.784   3.305  0.0477 -0.1200  0.1934
16111SOL    HW154296   6.934  11.817   3.226  0.6295 -0.8691  0.1812
16111SOL    HW254297   6.798  11.782   3.283  0.2886 -1.2081 -0.8250
16112SOL     OW54298   5.204   7.648   3.813 -0.1653 -0.1626  0.3698
16112SOL    HW154299   5.273   7.714   3.812  0.9161 -1.2635  0.0623
16112SOL    HW254300   5.163   7.656   3.727 -0.3332  0.3903  0.4940
16113SOL     OW54301   8.781   5.658  10.249 -0.8668 -0.0158 -0.4285
16113SOL    HW154302   8.773   5.636  10.156 -3.4047  0.2136 -0.3380
16113SOL    HW254303   8.704   5.712  10.267 -0.7657 -0.5673  1.9451
16114SOL     OW54304   1.387   2.618   7.384 -0.0424  0.3784  0.7593
16114SOL    HW154305   1.456   2.647   7.444 -0.4087  0.9680  0.9104
16114SOL    HW254306   1.305   2.641   7.429 -0.3579 -0.9359  0.8908
16115SOL     OW54307   7.480   9.986  11.854 -0.0133  0.2423 -0.4635
16115SOL    HW154308   7.452  10.058  11.911  0.7655  0.0737  0.1448
16115SOL    HW254309   7.423   9.913  11.877  1.2677 -0.2917  1.2156
16116SOL     OW54310   6.083   1.987   3.086 -0.3856 -0.5248 -0.1019
16116SOL    HW154311   6.142   2.019   3.018 -0.6327 -0.9379 -0.5187
16116SOL    HW254312   6.004   1.960   3.039 -0.7585 -0.3380  0.4045
16117SOL     OW54313   3.176   6.732   2.681 -0.1958 -0.1954 -0.1049
16117SOL    HW154314   3.262   6.745   2.722  0.4832  0.5658 -1.7035
16117SOL    HW254315   3.124   6.690   2.750  0.9939  0.6854  1.4097
16118SOL     OW54316  11.445  11.953   3.843 -0.2695 -0.6161  0.0278
16118SOL    HW154317  11.508  11.971   3.913  0.2842 -0.3280 -0.5349
16118SOL    HW254318  11.449  11.858   3.833  0.9923 -0.5039 -0.8157
16119SOL     OW54319   3.129   0.255   1.447 -0.2297  0.4825 -0.3900
16119SOL    HW154320   3.059   0.290   1.392 -1.3782  0.0231  0.7285
16119SOL    HW254321   3.158   0.175   1.403  0.9461  1.6449 -1.8444
16120SOL     OW54322   7.007   0.902   1.008 -0.5993  0.5077 -0.2987
16120SOL    HW154323   6.964   0.866   1.086 -1.9355  0.7935 -0.8806
16120SOL    HW254324   7.030   0.992   1.031 -0.9518  0.5766 -0.2197
16121SOL     OW54325   9.473   1.282   9.838  0.9133 -0.1776  0.1483
16121SOL    HW154326   9.419   1.216   9.793 -2.4909  2.5652 -0.2003
16121SOL    HW254327   9.528   1.319   9.769  0.0893 -0.0832 -0.4747
16122SOL     OW54328   6.531   4.654   2.042 -0.3562 -0.2290  0.4546
16122SOL    HW154329   6.573   4.621   2.122  2.0633  3.8816  1.1567
16122SOL    HW254330   6.571   4.604   1.971 -2.7887 -4.2235  1.5253
16123SOL     OW54331   9.693  12.087   1.907  0.0833 -0.3810  0.1446
16123SOL    HW154332   9.748  12.159   1.875  0.6381 -1.4322 -1.3802
16123SOL    HW254333   9.630  12.072   1.837 -2.4191  0.9467  1.9393
16124SOL     OW54334   2.864   7.805   4.624  0.1670 -0.1762  0.5765
16124SOL    HW154335   2.795   7.740   4.631 -1.2293  1.2802  0.9644
16124SOL    HW254336   2.869   7.826   4.531 -0.1249 -0.0586  0.5887
16125SOL     OW54337   3.063   2.639  10.327 -0.7194  0.5790  0.3435
16125SOL    HW154338   3.112   2.560  10.306  1.3300  1.6658  0.7809
16125SOL    HW254339   3.008   2.615  10.401  0.3677 -0.2650  0.8906
16126SOL     OW54340  12.289   1.827   7.528 -0.0342 -0.5941 -0.4928
16126SOL    HW154341  12.349   1.752   7.535  2.6135  1.5192  2.7842
16126SOL    HW254342  12.347   1.902   7.511 -2.3673  1.0326 -1.8169
16127SOL     OW54343   1.192   5.817   3.063  0.0261 -0.0130 -0.0939
16127SOL    HW154344   1.263   5.802   3.001  0.6172  1.8357  0.0605
16127SOL    HW254345   1.236   5.832   3.147 -0.6048  0.0114  0.2415
16128SOL     OW54346   7.540   2.670   2.473 -0.1761  0.0842  0.0163
16128SOL    HW154347   7.580   2.629   2.550  1.5047 -0.9498 -1.3204
16128SOL    HW254348   7.573   2.619   2.399  0.6472  2.8141 -1.6367
16129SOL     OW54349   8.109   8.619  10.921 -0.5735 -0.0835 -0.0979
16129SOL    HW154350   8.187   8.661  10.958 -0.7114  0.7494 -0.7094
16129SOL    HW254351   8.144   8.555  10.859 -0.3523  0.6656 -0.7765
16130SOL     OW54352   4.947  12.048   9.175 -0.5616  0.2488 -0.3252
16130SOL    HW154353   4.881  11.992   9.217 -1.6779  0.6083 -1.5293
16130SOL    HW254354   4.949  12.018   9.084  0.0254  1.0907 -0.5997
16131SOL     OW54355   3.880   5.414   6.622  0.0675 -0.2962  0.3660
16131SOL    HW154356   3.975   5.422   6.618  0.1472 -1.6247 -1.8485
16131SOL    HW254357   3.854   5.389   6.533 -2.4372  0.7587  0.7103
16132SOL     OW54358   0.416   5.858   2.270 -1.1354 -0.5075  0.0909
16132SOL    HW154359   0.487   5.801   2.241  0.4013  0.7096  1.2990
16132SOL    HW254360   0.355   5.799   2.314 -0.1008 -1.3903  0.3948
16133SOL     OW54361   9.809   7.682   1.415 -0.2940 -0.2446  0.5352
16133SOL    HW154362   9.872   7.740   1.459  0.5441 -1.3142  0.7806
16133SOL    HW254363   9.845   7.669   1.327  1.3457 -2.9804  1.4775
16134SOL     OW54364   1.754   7.371  11.667 -0.3525  0.2306  0.2684
16134SOL    HW154365   1.801   7.389  11.586 -0.5001 -0.2655  0.0652
16134SOL    HW254366   1.733   7.277  11.662 -1.1432  0.3877  0.4689
16135SOL     OW54367   6.172   1.052   7.188  0.0396 -0.2493  0.4510
16135SOL    HW154368   6.237   1.029   7.121  1.6697  0.0768  1.8461
16135SOL    HW254369   6.130   0.969   7.210  0.1067 -0.5021 -0.3351
16136SOL     OW54370   0.420   1.414  11.632 -0.2828 -0.0589 -0.0731
16136SOL    HW154371   0.423   1.319  11.643  0.4685  0.0895  1.2183
16136SOL    HW254372   0.449   1.430  11.542 -0.9003 -1.0610 -0.4680
16137SOL     OW54373   8.220  11.605  12.084 -0.0888  0.1783 -0.5117
16137SOL    HW154374   8.262  11.687  12.109  2.3887 -1.0311 -0.3878
16137SOL    HW254375   8.128  11.616  12.109 -0.0992  3.2714 -1.4630
16138SOL     OW54376   5.278   1.394  10.290  0.0580 -0.3614  0.3706
16138SOL    HW154377   5.291   1.311  10.336  0.5247 -0.6092 -0.1954
16138SOL    HW254378   5.237   1.369  10.207  2.3948 -0.3003 -0.8601
16139SOL     OW54379   9.446  10.534   3.994  0.3262  0.0758 -0.1818
16139SOL    HW154380   9.418  10.589   4.068 -1.1276 -0.0048 -0.6456
16139SOL    HW254381   9.401  10.451   4.007 -0.2818  0.2044 -1.3835
16140SOL     OW54382  11.179  10.940   7.097  0.1175  0.2374  0.1245
16140SOL    HW154383  11.091  10.939   7.135  0.2061  0.3185  0.3287
16140SOL    HW254384  11.169  10.892   7.015  0.1527 -0.8374  0.7297
16141SOL     OW54385  10.801  10.757   8.630  0.2435  0.0346 -0.1882
16141SOL    HW154386  10.834  10.778   8.717 -2.1802  1.3101  0.5259
16141SOL    HW254387  10.861  10.691   8.596  0.9563 -0.9069  2.6651
16142SOL     OW54388   2.425  10.067  11.466  0.1212  0.1146 -0.5293
16142SOL    HW154389   2.352  10.034  11.414 -1.8431 -0.3896  2.3838
16142SOL    HW254390   2.418  10.162  11.458 -0.9252  0.0723 -0.1890
16143SOL     OW54391   9.970  11.292   3.331 -0.4544  0.0812 -0.1830
16143SOL    HW154392   9.947  11.380   3.302  0.9577  0.7255  0.5864
16143SOL    HW254393  10.058  11.300   3.367 -0.7129 -1.4199  0.9097
16144SOL     OW54394   5.734   2.464  11.667  0.0606 -0.1105  0.4778
16144SOL    HW154395   5.641   2.469  11.644  0.0704  2.8760  0.7367
16144SOL    HW254396   5.779   2.467  11.583 -0.0309 -1.0284  0.3819
16145SOL     OW54397   5.506   1.318   7.314 -0.1466  0.0075 -0.4371
16145SOL    HW154398   5.416   1.292   7.293 -0.5259  1.0346 -0.1538
16145SOL    HW254399   5.545   1.339   7.230 -1.2372  2.7751 -0.3833
16146SOL     OW54400   4.470   1.756   6.907 -0.2626  0.3571  0.4299
16146SOL    HW154401   4.447   1.680   6.854 -3.0788 -0.4451  2.5824
16146SOL    HW254402   4.561   1.741   6.933  0.0366 -0.9705 -1.2311
16147SOL     OW54403   4.725   6.842  10.660 -0.6295  0.1133 -0.4204
16147SOL    HW154404   4.714   6.936  10.674 -0.3579  0.3558 -1.6657
16147SOL    HW254405   4.729   6.805  10.748  0.0086  1.3532  0.1055
16148SOL     OW54406  11.366   5.003  12.437  0.7330  0.1971  0.1894
16148SOL    HW154407  11.450   5.017  12.482  1.0401 -1.1390  0.0695
16148SOL    HW254408  11.331   4.924  12.477 -0.5647  0.8327  0.3463
16149SOL     OW54409   8.303   0.045  10.656 -0.1598 -0.7132 -0.1754
16149SOL    HW154410   8.374   0.108  10.646  0.0813 -0.9541  0.0192
16149SOL    HW254411   8.343  -0.030  10.700 -0.3821 -1.1178 -0.6519
16150SOL     OW54412   6.247   3.163   9.867 -0.3848 -0.2831  0.2686
16150SOL    HW154413   6.173   3.122   9.821 -0.9811  0.7277  0.2870
16150SOL    HW254414   6.294   3.212   9.799  0.9439 -1.7953  0.0398
16151SOL     OW54415   0.134   6.395   6.597  0.1708  0.0524 -0.0650
16151SOL    HW154416   0.064   6.402   6.661 -0.4594  0.9274 -0.8123
16151SOL    HW254417   0.153   6.302   6.592 -1.2451 -0.2577 -0.1531
16152SOL     OW54418   5.402   3.944   9.271  0.2876  0.1011 -0.3496
16152SOL    HW154419   5.389   4.028   9.226 -0.4569 -0.7163 -1.7370
16152SOL    HW254420   5.477   3.904   9.226  0.5533 -0.0392  0.2119
16153SOL     OW54421   6.273   9.804   5.674  0.4254  0.1445 -0.1105
16153SOL    HW154422   6.178   9.815   5.670  0.1872 -1.3350  0.6921
16153SOL    HW254423   6.300   9.857   5.749 -0.2960 -2.1185  1.8821
16154SOL     OW54424   4.665   7.921  10.865 -0.0049 -0.5477  0.2245
16154SOL    HW154425   4.613   7.922  10.785 -1.7636  1.1185  1.3289
16154SOL    HW254426   4.636   7.843  10.912 -0.2453 -0.5604  0.0520
16155SOL     OW54427   2.672  10.078   3.378 -0.1208  0.5753  0.3158
16155SOL    HW154428   2.596  10.131   3.353 -0.4981  1.1234  2.4186
16155SOL    HW254429   2.702  10.117   3.460  1.2436 -0.8379  0.5295
16156SOL     OW54430  11.967   7.847   1.230 -0.2091 -0.4333 -0.1860
16156SOL    HW154431  11.995   7.819   1.143  2.2917 -0.9802  0.7198
16156SOL    HW254432  12.003   7.934   1.240 -0.9443 -0.1579  0.1342
16157SOL     OW54433   9.877   6.185   2.351 -0.1869  0.1084  0.0319
16157SOL    HW154434   9.877   6.278   2.377 -2.4728  1.1660 -3.0764
16157SOL    HW254435   9.804   6.178   2.289  1.4746 -3.2214 -1.8003
16158SOL     OW54436   4.996   7.137  11.777  0.3516 -0.5230 -0.1330
16158SOL    HW154437   5.015   7.052  11.817 -1.9326 -1.0399 -0.0340
16158SOL    HW254438   4.912   7.163  11.814  0.4793  1.2686 -1.0006
16159SOL     OW54439  11.374   9.346   2.623 -0.0105  0.1527  0.4168
16159SOL    HW154440  11.426   9.386   2.553 -1.5141  4.1813  1.3545
16159SOL    HW254441  11.286   9.337   2.585  0.6618 -5.1860 -0.6539
16160SOL     OW54442   0.220  11.756   0.461  0.1162  0.0513 -0.1028
16160SOL    HW154443   0.158  11.695   0.502 -0.0194  0.6962  0.6676
16160SOL    HW254444   0.282  11.699   0.415 -0.5966 -0.6318 -0.2561
16161SOL     OW54445   0.961  11.508  11.565  0.2382  0.3995  0.5622
16161SOL    HW154446   0.972  11.475  11.655  2.3861 -0.1015  0.1727
16161SOL    HW254447   0.965  11.430  11.510  2.3728  0.9749 -0.1696
16162SOL     OW54448  11.047   0.970   8.484 -0.3961  0.2920 -0.2699
16162SOL    HW154449  11.012   0.906   8.422  1.0363 -1.6472  0.8161
16162SOL    HW254450  11.087   0.917   8.553  0.1712  2.3839  1.0931
16163SOL     OW54451   8.613   4.659   3.668  0.7909  0.1513  0.2213
16163SOL    HW154452   8.653   4.729   3.616  0.0581  1.2128  1.0296
16163SOL    HW254453   8.656   4.666   3.753 -0.7315  1.0304  0.9716
16164SOL     OW54454   2.982   7.415   0.334  0.7144 -0.4711 -0.9193
16164SOL    HW154455   2.913   7.469   0.372  0.7047 -0.8826 -0.3409
16164SOL    HW254456   2.991   7.342   0.395  0.9263 -0.9709 -1.5383
16165SOL     OW54457   1.213   4.004  11.227 -0.0055 -0.1793  0.5762
16165SOL    HW154458   1.296   4.026  11.183  0.5400  0.4185  1.8601
16165SOL    HW254459   1.153   3.985  11.155  0.9677  0.3647 -0.4241
16166SOL     OW54460   6.602  10.784   5.462 -0.2535 -0.3470 -0.2789
16166SOL    HW154461   6.629  10.716   5.524  0.5568  1.9700  2.1152
16166SOL    HW254462   6.536  10.834   5.509 -0.5275  0.7738 -1.7816
16167SOL     OW54463   1.621   3.281   0.041  0.7744  0.1491  0.5930
16167SOL    HW154464   1.687   3.224   0.001  0.3725 -0.8618  1.3252
16167SOL    HW254465   1.655   3.370   0.030  0.5440 -0.0432 -2.2249
16168SOL     OW54466   0.210   8.741   5.025  0.1675  0.2885 -0.4781
16168SOL    HW154467   0.264   8.746   4.946  0.4157  0.3080 -0.3084
16168SOL    HW254468   0.155   8.819   5.022 -0.2341 -0.0008 -0.9235
16169SOL     OW54469  10.432   2.732   8.569  0.4967 -0.0815  0.0148
16169SOL    HW154470  10.348   2.777   8.575  0.2628 -0.3077 -1.2723
16169SOL    HW254471  10.447   2.721   8.475  1.2974 -1.2796  0.2543
16170SOL     OW54472   6.571   6.349   1.432 -0.0757  0.5462 -0.3836
16170SOL    HW154473   6.589   6.278   1.494 -0.1748 -1.2314 -2.2715
16170SOL    HW254474   6.484   6.381   1.455 -0.7571 -1.1336 -0.5133
16171SOL     OW54475   8.639   0.345   6.632  0.0899 -0.7477  0.2530
16171SOL    HW154476   8.624   0.376   6.543  2.8938 -0.1366 -0.0846
16171SOL    HW254477   8.685   0.262   6.622  1.9838  0.1477  1.0581
16172SOL     OW54478   7.466  10.381   3.537 -0.8521  0.7390  0.2201
16172SOL    HW154479   7.449  10.391   3.630 -0.8507  1.6140  0.1426
16172SOL    HW254480   7.537  10.443   3.518 -0.1776 -0.1417 -0.1792
16173SOL     OW54481   9.847  11.563   6.353  0.1827 -0.4876 -0.1444
16173SOL    HW154482   9.860  11.567   6.448  1.8806 -0.9842 -0.3203
16173SOL    HW254483   9.828  11.653   6.328 -1.4314 -0.5349  0.7891
16174SOL     OW54484   5.133  11.788   3.166  0.3757  0.0687 -0.5809
16174SOL    HW154485   5.102  11.725   3.101  0.8532 -0.3882 -0.3677
16174SOL    HW254486   5.218  11.816   3.134  0.3231  0.3338 -0.4884
16175SOL     OW54487   7.826   5.435   9.004 -0.1732 -0.2139 -0.3629
16175SOL    HW154488   7.760   5.395   8.946 -0.2153  0.1669 -0.5751
16175SOL    HW254489   7.839   5.523   8.969 -0.9383  0.3849  0.7955
16176SOL     OW54490   7.449   7.442   0.527 -0.4241  0.2799 -0.1208
16176SOL    HW154491   7.476   7.521   0.480 -1.0894  0.0480 -0.9162
16176SOL    HW254492   7.386   7.473   0.592 -0.4210  0.4490 -0.1964
16177SOL     OW54493   0.294  11.646   4.660  0.0212 -0.1628  0.1063
16177SOL    HW154494   0.200  11.647   4.642 -0.1677  1.7691  0.9523
16177SOL    HW254495   0.301  11.606   4.747  0.0793 -1.0508 -0.2956
16178SOL     OW54496   9.944  11.578   9.905  0.5060  0.1742 -0.1914
16178SOL    HW154497  10.002  11.570   9.830 -0.4948  0.0058 -0.9739
16178SOL    HW254498   9.979  11.517   9.969  2.0743  1.1796 -0.0278
16179SOL     OW54499   5.211   4.293   6.736  0.0366 -0.6438  0.3480
16179SOL    HW154500   5.197   4.353   6.662 -0.0201 -0.5049  0.4716
16179SOL    HW254501   5.305   4.300   6.754 -0.2911  0.9312  1.6543
16180SOL     OW54502  11.668   0.032   1.896  0.3561  0.7144  0.1919
16180SOL    HW154503  11.629   0.005   1.980  2.6487 -2.3074  0.4664
16180SOL    HW254504  11.727   0.104   1.919 -1.2014  1.9307  0.5875
16181SOL     OW54505  12.002   4.588   9.684 -0.1913 -0.3376 -0.1466
16181SOL    HW154506  11.923   4.552   9.644 -0.0111 -0.0151 -0.8178
16181SOL    HW254507  11.981   4.680   9.700 -0.8761 -0.8341  2.1564
16182SOL     OW54508   9.427   6.442   9.227  0.3091  0.2660  0.0826
16182SOL    HW154509   9.356   6.495   9.262  1.0673 -0.2906  2.6619
16182SOL    HW254510   9.384   6.383   9.164 -1.6848 -0.5821  2.1139
16183SOL     OW54511   0.548  11.190   6.574 -0.5340  0.3325  0.0535
16183SOL    HW154512   0.553  11.120   6.638  0.0879 -0.4788 -0.8496
16183SOL    HW254513   0.628  11.181   6.522 -1.0184  0.9512 -0.8372
16184SOL     OW54514   2.281   7.849   5.454  0.0601 -0.1109  0.2352
16184SOL    HW154515   2.226   7.816   5.525  2.0140 -1.9220  1.0383
16184SOL    HW254516   2.268   7.786   5.383  2.5921 -1.9065  1.2046
16185SOL     OW54517   0.435   7.595   5.207  0.5795 -0.2334  0.4007
16185SOL    HW154518   0.360   7.563   5.157  0.5709 -0.8555  0.8075
16185SOL    HW254519   0.511   7.554   5.166  0.7244  0.5578 -0.1412
16186SOL     OW54520   0.311  11.786   8.887 -0.4162 -0.1035  0.1302
16186SOL    HW154521   0.323  11.727   8.812 -0.0455 -3.1872  2.3994
16186SOL    HW254522   0.351  11.868   8.859  1.3717 -1.6715 -2.3948
16187SOL     OW54523   6.659   0.272   8.990  0.0722  0.2020  0.2473
16187SOL    HW154524   6.585   0.212   8.995 -1.0545  1.4802 -0.5619
16187SOL    HW254525   6.642   0.325   8.912  2.1598  0.1237 -0.3325
16188SOL     OW54526   5.310   4.027   8.061  0.5485 -0.0544  0.2567
16188SOL    HW154527   5.218   4.008   8.044  0.6282  0.0528 -0.3214
16188SOL    HW254528   5.348   3.942   8.085  0.1532  0.0283  1.2221
16189SOL     OW54529   0.544  11.395   7.788 -0.3055  0.0546 -0.2678
16189SOL    HW154530   0.605  11.408   7.715 -0.3550 -1.1559 -0.5482
16189SOL    HW254531   0.458  11.405   7.748 -0.3295  1.4338  0.0631
16190SOL     OW54532   7.515   9.191   3.325 -0.4056 -0.2729  0.5492
16190SOL    HW154533   7.448   9.123   3.324 -0.8790  0.1694 -0.9883
16190SOL    HW254534   7.467   9.273   3.327  0.0630  0.0489 -0.5165
16191SOL     OW54535   1.534  10.323   2.576 -0.0401 -0.5769  0.4998
16191SOL    HW154536   1.566  10.242   2.536  0.8732 -0.4362  0.9206
16191SOL    HW254537   1.579  10.393   2.529 -0.4280 -0.3297  0.4899
16192SOL     OW54538   4.330   5.214   3.645  0.3204  0.3550  0.0224
16192SOL    HW154539   4.362   5.161   3.572 -1.5245 -0.7615 -0.0579
16192SOL    HW254540   4.351   5.162   3.723  1.0956  0.9071  0.1868
16193SOL     OW54541   0.696   4.385   0.525 -0.4374  0.3254  0.6104
16193SOL    HW154542   0.675   4.392   0.618 -0.2867  1.2241  0.5922
16193SOL    HW254543   0.783   4.424   0.518 -0.1888 -0.2915  0.1800
16194SOL     OW54544  10.821   1.417   8.468  0.5245  0.1790 -0.2452
16194SOL    HW154545  10.752   1.366   8.510 -0.8453  1.6170 -0.6491
16194SOL    HW254546  10.830   1.379   8.381  1.6673 -1.2642  0.4691
16195SOL     OW54547  12.372   7.679   2.867 -0.4953 -0.0579  0.0566
16195SOL    HW154548  12.404   7.754   2.917  1.2097  0.9690 -2.3823
16195SOL    HW254549  12.448   7.622   2.857 -1.0039 -0.6334 -0.6398
16196SOL     OW54550   0.970   1.851   2.569 -0.2705 -0.3308 -0.0692
16196SOL    HW154551   1.047   1.908   2.560  1.4803 -2.6212 -0.5109
16196SOL    HW254552   0.953   1.851   2.663  1.7436 -1.5160  0.3630
16197SOL     OW54553  10.015   7.560  11.837  0.5390 -0.3113 -0.5777
16197SOL    HW154554  10.086   7.536  11.897  2.6796  0.8738 -2.4671
16197SOL    HW254555   9.994   7.478  11.792  0.7443 -0.6714 -0.0317
16198SOL     OW54556   0.226   4.816   7.667 -0.0054 -0.0308 -0.7994
16198SOL    HW154557   0.170   4.860   7.731  1.1067 -0.5538  0.5690
16198SOL    HW254558   0.311   4.859   7.674  0.2028 -0.2481 -1.7656
16199SOL     OW54559   8.004   9.718   5.323 -0.5201  0.3592 -0.4832
16199SOL    HW154560   8.015   9.716   5.418 -1.5787 -0.4330 -0.3555
16199SOL    HW254561   7.984   9.809   5.302 -2.1846  0.2018  0.3058
16200SOL     OW54562  11.223   4.847   2.235 -0.8562  0.3913 -0.3483
16200SOL    HW154563  11.169   4.865   2.312 -0.4059  0.0973  0.0424
16200SOL    HW254564  11.163   4.854   2.161 -0.9140  2.5929 -0.1569
16201SOL     OW54565  10.146   8.160   4.056 -0.3310 -0.8801 -0.3558
16201SOL    HW154566  10.061   8.135   4.093 -0.4649 -0.4833 -0.3979
16201SOL    HW254567  10.132   8.160   3.961 -0.8503  1.1640 -0.3215
16202SOL     OW54568   0.034   6.453   0.772  0.1049 -0.1875  0.2539
16202SOL    HW154569   0.101   6.425   0.709  0.6405  1.5158 -0.0054
16202SOL    HW254570   0.024   6.547   0.754  0.0291  0.2651  2.4766
16203SOL     OW54571   0.527   0.736   0.682 -0.4422  0.0419 -0.3449
16203SOL    HW154572   0.618   0.712   0.666 -0.1288  0.5430  0.6692
16203SOL    HW254573   0.517   0.821   0.640 -0.4340  0.0046 -0.4230
16204SOL     OW54574  11.849   7.712   4.277 -0.0179  0.0464  0.3097
16204SOL    HW154575  11.826   7.635   4.225 -0.8891  1.1429 -1.0165
16204SOL    HW254576  11.801   7.784   4.236  1.4127  1.4628  0.9791
16205SOL     OW54577   6.969   8.382   2.457  0.2203  0.7214 -0.1546
16205SOL    HW154578   6.917   8.319   2.407 -0.6265  0.8422  0.5524
16205SOL    HW254579   6.960   8.354   2.548  1.0800  0.9808  0.0236
16206SOL     OW54580   0.096   1.955   7.062  0.9395 -0.4365  0.5119
16206SOL    HW154581   0.018   1.916   7.101  1.1967 -0.5477  0.9178
16206SOL    HW254582   0.130   2.013   7.130 -0.1254  1.4703 -0.5083
16207SOL     OW54583   1.133   0.505  11.550 -0.1332 -0.2822 -0.2157
16207SOL    HW154584   1.091   0.526  11.633  0.0371 -0.1521 -0.1633
16207SOL    HW254585   1.061   0.491  11.489 -0.2507  1.0625 -0.4105
16208SOL     OW54586   8.496   7.394   8.459 -0.2385 -0.0086  0.2100
16208SOL    HW154587   8.458   7.325   8.514 -0.2533  0.6309  1.0406
16208SOL    HW254588   8.463   7.376   8.371  2.0742 -2.7391 -0.2290
16209SOL     OW54589   2.689   5.443  11.524 -0.2936  0.4533  0.0396
16209SOL    HW154590   2.660   5.437  11.615  0.1549  2.2160  0.3512
16209SOL    HW254591   2.730   5.359  11.506  0.2876  0.3231  1.7363
16210SOL     OW54592   1.253  12.424   4.382 -0.2112 -0.2336 -0.1505
16210SOL    HW154593   1.167  12.466   4.380 -0.0564  0.0725 -0.3939
16210SOL    HW254594   1.314  12.492   4.355  0.1157 -0.4376  0.0641
16211SOL     OW54595   3.114   1.817   3.800  0.2388  0.1211  0.0866
16211SOL    HW154596   3.132   1.904   3.764  0.5760 -0.6109 -1.6260
16211SOL    HW254597   3.085   1.833   3.889 -0.2822  2.0319 -0.3858
16212SOL     OW54598   9.295  12.263  10.130  0.6982 -0.1670 -0.3472
16212SOL    HW154599   9.214  12.255  10.180  1.0489  0.1062  0.2729
16212SOL    HW254600   9.305  12.357  10.115  0.1283 -0.2942 -1.7360
16213SOL     OW54601   0.968   6.023   4.817  0.2817 -0.1173  0.2583
16213SOL    HW154602   0.956   5.962   4.890 -1.8211 -1.9956 -1.5102
16213SOL    HW254603   1.045   5.990   4.770  0.0984 -0.4736  0.2024
16214SOL     OW54604  11.725   1.486   1.585  0.3103 -0.1983 -0.1791
16214SOL    HW154605  11.752   1.496   1.493 -0.3728 -2.4589 -0.6755
16214SOL    HW254606  11.786   1.421   1.621  1.1619  1.3283  1.2809
16215SOL     OW54607   1.226   6.005   7.546 -0.0058  0.4319 -0.5960
16215SOL    HW154608   1.225   6.023   7.640 -1.1171  1.4584 -0.7859
16215SOL    HW254609   1.274   6.078   7.507  1.0869 -0.3549 -0.7827
16216SOL     OW54610   2.534  11.122  12.120  0.4157  0.3382  0.3721
16216SOL    HW154611   2.447  11.153  12.145  0.4699 -0.1242  1.1620
16216SOL    HW254612   2.584  11.121  12.202  0.9027 -0.2366  0.0791
16217SOL     OW54613   2.349   0.244   7.558  0.4822 -0.2968 -0.6703
16217SOL    HW154614   2.385   0.156   7.544  0.5396 -0.2617 -0.7435
16217SOL    HW254615   2.424   0.303   7.550  0.4356 -0.2370 -0.6697
16218SOL     OW54616  12.019   3.028   3.611 -0.2293  0.2380  0.2653
16218SOL    HW154617  12.099   3.071   3.641  0.9669  1.5899 -4.1981
16218SOL    HW254618  11.959   3.100   3.591 -0.5129 -0.4506 -1.5254
16219SOL     OW54619   1.671   2.900   6.804  0.1127  0.5210  0.7432
16219SOL    HW154620   1.699   2.981   6.847  0.5222 -0.0173  1.5004
16219SOL    HW254621   1.642   2.929   6.717  0.5355  1.4431  0.8917
16220SOL     OW54622   7.487   1.791   5.823  0.1279 -0.7058  0.3973
16220SOL    HW154623   7.569   1.828   5.790  0.1798 -1.0405  0.1485
16220SOL    HW254624   7.507   1.761   5.911 -0.4131  1.6772  1.4373
16221SOL     OW54625   0.870   0.113  10.514  0.5448 -0.0287 -0.1901
16221SOL    HW154626   0.864   0.196  10.467 -0.1005 -0.1257 -0.2848
16221SOL    HW254627   0.795   0.113  10.573  1.7896  0.4430  1.4430
16222SOL     OW54628   1.782   4.327   8.836  0.0611 -0.4596 -0.2496
16222SOL    HW154629   1.822   4.393   8.892 -2.0242 -0.5720  1.5126
16222SOL    HW254630   1.851   4.262   8.822  0.6318 -0.5512  2.4433
16223SOL     OW54631   9.229   0.864  10.317 -0.5285  0.5445  0.3867
16223SOL    HW154632   9.283   0.933  10.355 -1.8567  2.4994 -1.0802
16223SOL    HW254633   9.141   0.880  10.351 -0.5521 -1.6739  1.5666
16224SOL     OW54634  10.155  11.466   0.316 -0.3179  0.0457  0.0423
16224SOL    HW154635  10.244  11.498   0.300 -0.3407 -0.4846 -1.1977
16224SOL    HW254636  10.165  11.372   0.333 -0.7936 -0.4045 -1.9477
16225SOL     OW54637  10.631   9.042   4.043 -0.1000 -0.0995  0.1385
16225SOL    HW154638  10.706   9.100   4.054 -2.5480  3.2402  0.8323
16225SOL    HW254639  10.644   8.973   4.108  1.6829  1.1524  1.2002
16226SOL     OW54640   0.044   8.950  10.665 -0.0491 -0.3549  0.5483
16226SOL    HW154641  -0.016   8.878  10.684  0.9797 -1.5247 -0.5030
16226SOL    HW254642   0.063   8.942  10.572  1.1423  0.4559  0.6961
16227SOL     OW54643   3.098   2.954   5.827  0.5979 -0.0645 -0.2645
16227SOL    HW154644   3.155   3.015   5.875  0.6578  0.1581 -0.6122
16227SOL    HW254645   3.037   2.922   5.893  0.9779 -0.1275  0.0657
16228SOL     OW54646   6.577   2.468   5.041  0.3393  0.0523 -0.3794
16228SOL    HW154647   6.555   2.562   5.043  0.5674  0.0886  0.9164
16228SOL    HW254648   6.537   2.437   4.960  0.1983  1.2558 -0.8026
16229SOL     OW54649  11.351   1.151   0.435  0.0116  0.3295  0.4630
16229SOL    HW154650  11.416   1.207   0.394  0.1656  0.8056  1.3153
16229SOL    HW254651  11.397   1.070   0.454  0.1612  0.4002  0.4030
16230SOL     OW54652   0.395  10.546   0.356  0.2873  0.0133 -0.1924
16230SOL    HW154653   0.354  10.566   0.272 -0.6738 -0.9909  0.0077
16230SOL    HW254654   0.446  10.466   0.339 -1.0107 -1.0011  0.4568
16231SOL     OW54655   4.480   4.072   7.572 -0.3278 -0.3679 -0.5115
16231SOL    HW154656   4.456   4.101   7.660 -2.5144 -1.3792 -0.7015
16231SOL    HW254657   4.472   4.150   7.518  0.3803  0.1112  0.0468
16232SOL     OW54658   9.328  12.417   0.006 -0.7562 -0.6669 -0.7138
16232SOL    HW154659   9.389  12.470  -0.044  1.2072 -0.7920  1.3857
16232SOL    HW254660   9.376  12.337   0.027 -1.9319 -1.1555  0.2815
16233SOL     OW54661  10.232   4.734  10.262 -0.3475 -0.1592 -0.0572
16233SOL    HW154662  10.272   4.663  10.313  0.1912  0.5565  0.5483
16233SOL    HW254663  10.148   4.699  10.232 -0.3481 -0.8390  0.7239
16234SOL     OW54664   7.596   7.594   9.458 -0.4324  0.0638  0.3158
16234SOL    HW154665   7.689   7.607   9.443 -0.0095 -0.3262  2.2871
16234SOL    HW254666   7.557   7.594   9.370  1.3563  0.5381 -0.5277
16235SOL     OW54667   8.498   8.921   4.853 -0.0764 -0.0064 -0.1772
16235SOL    HW154668   8.472   8.837   4.817  1.0514  0.8724 -3.3649
16235SOL    HW254669   8.594   8.920   4.848 -0.0365  1.3596 -0.0552
16236SOL     OW54670   0.141   9.101   7.263 -0.3329  0.6005  0.3548
16236SOL    HW154671   0.108   9.178   7.309  0.5121  0.3623  1.4140
16236SOL    HW254672   0.201   9.137   7.197  0.2889  0.8557  1.0396
16237SOL     OW54673   3.500   3.708   6.597  0.2071  0.2444  0.2887
16237SOL    HW154674   3.429   3.751   6.549  0.6660  1.2706  0.5047
16237SOL    HW254675   3.466   3.698   6.686 -0.8194 -2.0684 -0.2759
16238SOL     OW54676   8.770   3.455   8.775  0.5774 -0.1152 -0.3929
16238SOL    HW154677   8.821   3.536   8.768 -1.7036  1.2859 -2.4477
16238SOL    HW254678   8.686   3.483   8.813 -0.1773 -1.5277 -0.9606
16239SOL     OW54679   0.860  10.105   0.047  0.1560 -0.3880  0.3616
16239SOL    HW154680   0.953  10.124   0.059  0.0425 -0.9055  2.3012
16239SOL    HW254681   0.815  10.178   0.089 -0.3054 -0.9376  0.8309
16240SOL     OW54682  12.057   2.352  11.900 -0.5439 -0.2022 -0.5757
16240SOL    HW154683  12.077   2.370  11.991 -0.6332  0.6322 -0.7151
16240SOL    HW254684  12.103   2.270  11.881 -0.0377 -0.0659  0.0437
16241SOL     OW54685   5.742   5.527   2.624  0.1208 -0.1354  0.5141
16241SOL    HW154686   5.827   5.536   2.666  0.3835 -1.9711  0.4431
16241SOL    HW254687   5.701   5.613   2.635  2.8556  1.6228 -1.4680
16242SOL     OW54688   7.878   5.908  10.896 -0.2852 -0.1366  0.1629
16242SOL    HW154689   7.861   5.954  10.978 -2.0656 -0.8650  0.2517
16242SOL    HW254690   7.941   5.840  10.919 -1.8590 -1.2700  1.2897
16243SOL     OW54691   3.651   7.694   7.494  0.2541  0.2606  0.4939
16243SOL    HW154692   3.591   7.769   7.486 -0.1346  0.1281  1.8716
16243SOL    HW254693   3.736   7.729   7.468 -0.4411  0.3600 -1.8813
16244SOL     OW54694   4.810   6.899  11.904 -0.4354 -0.2760  0.4150
16244SOL    HW154695   4.808   6.886  11.809 -1.1519 -0.7015  0.4819
16244SOL    HW254696   4.733   6.952  11.923  0.5734  1.2040  0.5806
16245SOL     OW54697   2.789   6.852   6.549 -0.1246 -0.7176  0.0175
16245SOL    HW154698   2.868   6.800   6.560 -0.4710 -1.6714 -1.5901
16245SOL    HW254699   2.814   6.920   6.486 -0.6651 -1.2651 -0.8057
16246SOL     OW54700  10.544   1.857   7.385 -0.5699 -0.1287 -0.2143
16246SOL    HW154701  10.577   1.788   7.443 -0.5816  0.0194 -0.0323
16246SOL    HW254702  10.567   1.939   7.429  0.2091  0.0008 -0.8563
16247SOL     OW54703   6.032  11.127   5.951 -0.3031 -0.3204 -0.2974
16247SOL    HW154704   6.003  11.036   5.948  0.0954 -0.4183 -1.6338
16247SOL    HW254705   6.078  11.141   5.868  0.7769  0.7224  0.4324
16248SOL     OW54706  11.766   1.907   3.755  0.3177 -0.2264  0.3174
16248SOL    HW154707  11.710   1.947   3.689  0.1551 -2.0063 -0.6970
16248SOL    HW254708  11.709   1.892   3.829 -0.2987 -1.0367 -0.3071
16249SOL     OW54709  10.389   5.835   4.090  0.1047 -0.3120 -0.2091
16249SOL    HW154710  10.325   5.901   4.115 -0.4321 -1.4235  1.5110
16249SOL    HW254711  10.389   5.835   3.994 -1.9666  0.1847 -0.2336
16250SOL     OW54712   5.386   3.582   3.036 -0.1014 -0.1923 -0.1367
16250SOL    HW154713   5.366   3.648   2.970  1.2782  2.2676  1.7284
16250SOL    HW254714   5.301   3.540   3.054 -0.8497  0.4227 -2.0303
16251SOL     OW54715   6.919   7.474   3.206 -0.6612  0.5064  0.0098
16251SOL    HW154716   6.992   7.415   3.224 -1.1193 -0.3622 -0.8695
16251SOL    HW254717   6.867   7.474   3.286  0.8271  1.9620  1.0297
16252SOL     OW54718   8.336   1.083   3.657 -0.4421 -0.2055 -0.3542
16252SOL    HW154719   8.321   1.014   3.591  0.7415 -1.4117  0.5849
16252SOL    HW254720   8.398   1.143   3.615  3.4444 -2.9921  0.8262
16253SOL     OW54721   9.686   6.649  10.117 -0.1124  0.2773  0.1892
16253SOL    HW154722   9.645   6.627  10.201  1.8633  1.4208  1.5125
16253SOL    HW254723   9.774   6.611  10.122  0.6721  1.8896 -0.5942
16254SOL     OW54724   6.434   7.989   4.125 -0.1970 -0.2857 -0.3432
16254SOL    HW154725   6.501   8.044   4.165  1.2442 -1.8307 -0.5293
16254SOL    HW254726   6.364   8.050   4.101  0.9015  1.3038  0.3303
16255SOL     OW54727  10.261   3.945   3.874 -0.2958 -0.0964 -0.3467
16255SOL    HW154728  10.329   3.970   3.937 -1.9038 -0.4865  1.6472
16255SOL    HW254729  10.308   3.932   3.792  1.6797  2.1232  0.2984
16256SOL     OW54730   4.557   0.408   4.254  0.1800  0.4517 -0.2735
16256SOL    HW154731   4.486   0.447   4.203 -0.1156  1.3056  0.7469
16256SOL    HW254732   4.547   0.314   4.243  0.0842  0.6113 -1.7098
16257SOL     OW54733   9.279   2.653   7.250 -0.0083 -0.0443  0.1204
16257SOL    HW154734   9.260   2.605   7.169 -2.1795  0.2874  0.3688
16257SOL    HW254735   9.289   2.585   7.316 -0.1066 -0.2613 -0.0861
16258SOL     OW54736   3.487   6.380   0.781  0.4101  0.0703 -0.5993
16258SOL    HW154737   3.442   6.339   0.707 -1.2653 -0.0273  0.4156
16258SOL    HW254738   3.547   6.312   0.813 -0.7838 -0.8753 -0.2584
16259SOL     OW54739   1.783   8.389   1.197 -0.5059  0.8577  0.3284
16259SOL    HW154740   1.711   8.327   1.206 -1.3665  1.7507 -0.2325
16259SOL    HW254741   1.825   8.365   1.114 -0.2757  0.4768  0.5492
16260SOL     OW54742  10.035   3.303  12.340 -0.0897 -0.3938  0.0152
16260SOL    HW154743  10.025   3.209  12.355  0.8897 -0.5457 -0.2415
16260SOL    HW254744  10.122   3.312  12.302  0.4194  0.7694  1.3758
16261SOL     OW54745   3.995   8.950   6.632 -0.0702 -0.1797 -0.1159
16261SOL    HW154746   4.078   8.997   6.623  0.0174 -0.4722 -0.9476
16261SOL    HW254747   3.990   8.926   6.724 -0.4248  2.0169  0.5008
16262SOL     OW54748   0.274   9.949  10.788  0.0254  0.4772  0.5283
16262SOL    HW154749   0.348   9.920  10.843  0.9938  1.5394 -0.1663
16262SOL    HW254750   0.313  10.013  10.728 -1.2464  0.2009 -0.6313
16263SOL     OW54751   4.765   5.200  11.258 -0.0821  0.2467 -0.4836
16263SOL    HW154752   4.730   5.186  11.346 -2.9026  2.2320 -1.1390
16263SOL    HW254753   4.696   5.167  11.200  1.1942  0.0748 -1.9647
16264SOL     OW54754  10.913   8.164   8.181 -0.2467  0.7398  0.0792
16264SOL    HW154755  10.937   8.256   8.165 -0.0033  0.4232 -1.6030
16264SOL    HW254756  10.881   8.133   8.096 -0.0022 -0.8432  0.5371
16265SOL     OW54757   2.325   4.871   9.147  0.1838  0.1910 -0.0633
16265SOL    HW154758   2.281   4.802   9.196  0.0233  0.8246  0.7105
16265SOL    HW254759   2.417   4.861   9.168  0.0607  0.8044  0.8492
16266SOL     OW54760   6.706   1.286   6.178  0.5591 -0.6124  1.2731
16266SOL    HW154761   6.673   1.373   6.203 -0.0131 -0.3595 -0.2734
16266SOL    HW254762   6.632   1.227   6.193  0.2038 -0.4554  0.2231
16267SOL     OW54763   0.970  11.289  11.336 -0.8025 -0.0621  0.1106
16267SOL    HW154764   0.931  11.313  11.253 -2.0881 -1.7131  0.1912
16267SOL    HW254765   1.035  11.222  11.314  0.7724  1.3758  0.1821
16268SOL     OW54766   1.465   3.264   5.705  0.1710  0.0835 -0.6403
16268SOL    HW154767   1.378   3.273   5.666 -0.5954 -0.9056  0.7341
16268SOL    HW254768   1.509   3.346   5.685 -1.7280  1.3621  0.1677
16269SOL     OW54769   0.703   6.394   0.143  0.1666  0.1823  0.3659
16269SOL    HW154770   0.791   6.361   0.127  0.2675  0.4956  0.2610
16269SOL    HW254771   0.645   6.335   0.096  0.2556 -0.5441  1.1498
16270SOL     OW54772   8.764  12.075   3.134  0.1551  0.6690  0.0187
16270SOL    HW154773   8.797  12.164   3.119  1.8586  0.1757  0.5730
16270SOL    HW254774   8.818  12.041   3.206 -0.2264 -0.9414 -0.4079
16271SOL     OW54775   3.805   9.980   7.162  0.4031 -0.4754 -0.2907
16271SOL    HW154776   3.815  10.052   7.099  0.3360 -0.4283 -0.2475
16271SOL    HW254777   3.758  10.019   7.235 -1.6037 -1.0797 -1.1844
16272SOL     OW54778   7.322   9.073   0.487  0.3228 -0.0126  0.2210
16272SOL    HW154779   7.233   9.061   0.452  0.4337 -1.0231  0.2420
16272SOL    HW254780   7.364   9.134   0.426  0.0594 -0.6382 -0.6147
16273SOL     OW54781   8.693   4.976  11.613  0.1508 -0.0692 -0.4657
16273SOL    HW154782   8.672   5.038  11.683  0.2313  0.9520 -1.3201
16273SOL    HW254783   8.681   4.890  11.653  0.5712  0.4839  0.9123
16274SOL     OW54784   3.794   0.399   4.570 -0.1134  0.0882 -0.1208
16274SOL    HW154785   3.881   0.413   4.606 -0.7610 -1.9726  2.5691
16274SOL    HW254786   3.751   0.484   4.577  1.0157  0.6226  0.5611
16275SOL     OW54787   3.953   4.876   9.310  0.0895 -0.1783  0.1034
16275SOL    HW154788   3.969   4.819   9.235 -2.3297  0.2943 -0.8636
16275SOL    HW254789   3.910   4.819   9.375 -0.8527  0.1328 -0.2268
16276SOL     OW54790  10.614   1.950  10.042 -0.5935  0.2887  0.0791
16276SOL    HW154791  10.547   1.945   9.974 -0.2983 -1.5151 -0.1120
16276SOL    HW254792  10.566   1.973  10.121 -1.2687  0.1398 -0.2762
16277SOL     OW54793   1.090   2.890   5.504 -0.2201 -0.1872 -0.3717
16277SOL    HW154794   1.151   2.913   5.573 -1.5064  0.0415  0.7211
16277SOL    HW254795   1.056   2.973   5.472  0.2213 -0.2992 -1.1638
16278SOL     OW54796   1.852  10.196   1.945  0.5400 -0.5511  0.2287
16278SOL    HW154797   1.920  10.193   1.878 -0.4183  0.5128 -0.8239
16278SOL    HW254798   1.802  10.275   1.925 -1.1901 -1.4568  0.8154
16279SOL     OW54799   1.578   5.084   5.902  0.9080 -0.5792 -0.1087
16279SOL    HW154800   1.550   5.029   5.975 -0.0793 -0.2020 -0.1808
16279SOL    HW254801   1.668   5.107   5.922  1.3746 -2.3006 -0.1392
16280SOL     OW54802  10.370   9.773   2.149  0.2926 -0.0587 -0.5973
16280SOL    HW154803  10.297   9.822   2.109  0.7246  0.4535 -0.7641
16280SOL    HW254804  10.335   9.685   2.161  0.1194 -0.2166 -2.0463
16281SOL     OW54805   7.685   5.770   5.831  0.0082  0.4282 -0.1256
16281SOL    HW154806   7.760   5.734   5.880 -0.0955 -0.6388 -0.7318
16281SOL    HW254807   7.678   5.714   5.754 -0.4575  1.4874 -0.8609
16282SOL     OW54808   3.389   6.561   1.641 -0.4558 -0.4227  0.4865
16282SOL    HW154809   3.443   6.513   1.703  1.3039 -0.6969 -1.1722
16282SOL    HW254810   3.438   6.641   1.622 -0.1039 -1.0873 -1.7389
16283SOL     OW54811   6.131   7.965   5.221 -0.3290  0.6182 -0.0261
16283SOL    HW154812   6.171   7.907   5.286 -0.3362  0.4429 -0.1759
16283SOL    HW254813   6.128   8.050   5.264  0.7411  0.7680 -0.2363
16284SOL     OW54814   5.187   7.715  12.272 -0.3739 -0.2670 -0.1097
16284SOL    HW154815   5.279   7.690  12.279 -0.1169 -0.1585 -2.5069
16284SOL    HW254816   5.179   7.757  12.187 -2.1696  1.9909  1.0458
16285SOL     OW54817   5.512   1.146   0.575  0.5578  0.0113  0.5453
16285SOL    HW154818   5.555   1.062   0.593  0.4292  0.1975  1.8850
16285SOL    HW254819   5.579   1.200   0.535  1.0854 -0.2550  1.0483
16286SOL     OW54820   9.763   9.765  11.718  0.2073 -0.3126  0.7765
16286SOL    HW154821   9.708   9.725  11.651 -0.0597  0.5257  0.4870
16286SOL    HW254822   9.815   9.830  11.671 -0.2940  0.5831  1.4481
16287SOL     OW54823   7.925   5.162   6.616  0.3771  0.4655 -0.4330
16287SOL    HW154824   7.902   5.111   6.538  1.1272 -1.7882  0.7560
16287SOL    HW254825   7.865   5.132   6.684  1.4274  0.4943  0.5368
16288SOL     OW54826   5.237   2.112   4.876 -0.3758  0.5936  0.7691
16288SOL    HW154827   5.156   2.089   4.831  0.3572 -0.1460 -0.2292
16288SOL    HW254828   5.247   2.044   4.944 -0.9652  1.1230  1.3921
16289SOL     OW54829   9.602   0.344   1.360  0.6915 -0.5601  0.0129
16289SOL    HW154830   9.678   0.299   1.396  0.0581 -1.5195  0.1883
16289SOL    HW254831   9.592   0.309   1.272  0.0174 -0.9915  0.2548
16290SOL     OW54832   4.570   3.275   7.208  0.1401  0.2222  0.1415
16290SOL    HW154833   4.646   3.276   7.265 -0.0555  1.9108  0.4269
16290SOL    HW254834   4.570   3.361   7.166 -1.0107 -0.1413 -0.6649
16291SOL     OW54835   8.400   2.451   3.397  0.5509  0.1919 -0.2622
16291SOL    HW154836   8.443   2.394   3.461  0.0253  0.2696  0.1678
16291SOL    HW254837   8.347   2.511   3.450 -1.0603 -0.6823 -0.8050
16292SOL     OW54838   9.295   2.859   3.380  0.3032  0.6999  0.2876
16292SOL    HW154839   9.292   2.851   3.285  0.0723  0.4475  0.3141
16292SOL    HW254840   9.355   2.789   3.408  1.5143  1.6719  0.2301
16293SOL     OW54841   2.724   3.036   3.865  0.0441 -0.1118  0.1319
16293SOL    HW154842   2.631   3.057   3.867 -0.3218 -1.3786 -1.3659
16293SOL    HW254843   2.752   3.060   3.777  1.2966  0.7624  0.7347
16294SOL     OW54844  11.430   7.286   5.263  0.6188  0.8376 -0.2689
16294SOL    HW154845  11.431   7.326   5.350 -2.2738  1.0408 -0.2370
16294SOL    HW254846  11.440   7.360   5.203 -0.3487  1.0954 -0.1308
16295SOL     OW54847   7.710  10.209   9.948  0.6595  0.0137  0.3639
16295SOL    HW154848   7.729  10.166  10.032  2.0650  0.1875  0.1599
16295SOL    HW254849   7.785  10.268   9.934 -0.5944  1.5728  0.0066
16296SOL     OW54850   7.379   3.955   9.289 -0.1673  0.1114 -0.0667
16296SOL    HW154851   7.341   3.896   9.355 -0.5651  1.0427  0.5551
16296SOL    HW254852   7.469   3.923   9.279  0.9153  1.6909  3.1746
16297SOL     OW54853   0.924   2.879   7.578 -0.1471 -0.1342 -0.0766
16297SOL    HW154854   0.876   2.823   7.517  0.2760 -0.9114  0.2821
16297SOL    HW254855   0.899   2.848   7.664 -0.5726  0.8180  0.1583
16298SOL     OW54856   2.920   5.582   6.192  0.4482  0.8271  0.9168
16298SOL    HW154857   2.986   5.585   6.122  0.1239  0.4821  0.5914
16298SOL    HW254858   2.971   5.579   6.273  0.8513 -0.3814  0.6325
16299SOL     OW54859   5.486   9.652  10.018  0.5017  0.2097 -0.4213
16299SOL    HW154860   5.494   9.580  10.080 -0.1755  0.6484  0.1906
16299SOL    HW254861   5.564   9.644   9.962  1.4479  0.1925  0.8667
16300SOL     OW54862   6.806   5.827   8.338 -0.1158  0.1205  0.1007
16300SOL    HW154863   6.856   5.792   8.264  1.0373  3.2008 -0.7138
16300SOL    HW254864   6.716   5.831   8.305 -0.0933 -1.0505 -0.1390
16301SOL     OW54865  11.287   3.104  10.540 -0.3536  0.5433  0.9378
16301SOL    HW154866  11.251   3.185  10.504  0.7817  1.6387  2.1812
16301SOL    HW254867  11.250   3.098  10.628  0.1565  0.0889  1.1282
16302SOL     OW54868  11.414   4.280   8.097  0.2685 -0.5076 -0.1871
16302SOL    HW154869  11.466   4.335   8.155  0.1993  0.2718 -0.8566
16302SOL    HW254870  11.364   4.341   8.043 -0.1588 -1.2272 -0.6337
16303SOL     OW54871   5.737   8.150   5.913 -0.4553  0.8292  0.5788
16303SOL    HW154872   5.818   8.173   5.958 -0.8193  0.9806  1.1548
16303SOL    HW254873   5.742   8.196   5.829  0.0374  0.8628  0.6252
16304SOL     OW54874  11.626  11.452   8.436  0.1283  0.5431 -0.0894
16304SOL    HW154875  11.715  11.472   8.464  0.5764  0.1161 -1.1552
16304SOL    HW254876  11.636  11.381   8.372 -0.8083  1.5437 -1.4241
16305SOL     OW54877   8.619   8.930   8.234 -0.3172  0.3892 -0.0319
16305SOL    HW154878   8.681   8.964   8.299 -0.5011  0.0529  0.3163
16305SOL    HW254879   8.533   8.941   8.274 -0.4293  0.1421 -0.2022
16306SOL     OW54880  11.773   2.033   6.672  0.3253  0.0821  0.3320
16306SOL    HW154881  11.718   2.028   6.594  0.3482 -0.8793  0.3589
16306SOL    HW254882  11.716   2.071   6.739  0.1821  0.5396 -0.0395
16307SOL     OW54883   3.778   8.481   0.479  0.3531  0.2674 -0.3204
16307SOL    HW154884   3.731   8.421   0.421  1.0117  0.2290 -0.8273
16307SOL    HW254885   3.870   8.470   0.456  0.6457  0.1747  0.8201
16308SOL     OW54886   4.930   7.297   8.188 -0.1924  0.4632 -0.1058
16308SOL    HW154887   4.940   7.223   8.129  0.7844  0.4996  0.0011
16308SOL    HW254888   4.909   7.257   8.273  0.3954  0.2982 -0.0345
16309SOL     OW54889  11.176   9.598   8.198  0.1886 -0.3124  0.1740
16309SOL    HW154890  11.130   9.568   8.119 -0.2438  0.2547  0.2044
16309SOL    HW254891  11.254   9.543   8.202  1.5847  1.3297 -2.1076
16310SOL     OW54892   6.032   2.582   6.729  0.0736 -0.4610  0.0309
16310SOL    HW154893   6.006   2.626   6.810 -4.0588  0.7435 -1.7049
16310SOL    HW254894   5.968   2.512   6.718 -1.2152  1.0019 -3.3134
16311SOL     OW54895   3.106   0.538   5.685  0.2246  0.0492  0.0793
16311SOL    HW154896   3.096   0.632   5.668  1.1459  0.2112  0.3475
16311SOL    HW254897   3.077   0.496   5.604  0.0742  0.5776 -0.1475
16312SOL     OW54898   1.350   7.899  10.239  0.0961 -0.6419  0.5999
16312SOL    HW154899   1.357   7.905  10.144  0.3939 -1.4567  0.5628
16312SOL    HW254900   1.261   7.929  10.259  0.1060 -0.2581  0.0913
16313SOL     OW54901  10.086   1.208   1.573  0.4285 -0.2396  0.0603
16313SOL    HW154902  10.078   1.235   1.481 -0.1427  0.9970  0.4575
16313SOL    HW254903  10.102   1.114   1.568  0.3605 -0.2084 -1.3051
16314SOL     OW54904   2.590  10.075  10.125  0.3888  0.3321 -0.7860
16314SOL    HW154905   2.532  10.018  10.073  0.2233  0.2520 -0.5156
16314SOL    HW254906   2.674  10.029  10.126  0.5270  0.5699 -1.3887
16315SOL     OW54907   7.752   1.154   7.485 -0.2831 -0.6329 -0.4013
16315SOL    HW154908   7.831   1.180   7.534  0.3872  0.4752 -1.9743
16315SOL    HW254909   7.768   1.185   7.396 -2.7684  0.1453 -0.6429
16316SOL     OW54910   5.081   1.237   5.306 -0.4888 -0.1541 -0.5663
16316SOL    HW154911   5.047   1.205   5.223 -0.7419  1.0327 -0.9378
16316SOL    HW254912   5.004   1.251   5.360 -0.2446 -2.8121  0.6427
16317SOL     OW54913   7.581   7.243   5.202 -0.5173  0.1301 -0.0529
16317SOL    HW154914   7.540   7.299   5.137 -1.6191  0.4888  0.9171
16317SOL    HW254915   7.574   7.155   5.166  0.6495  0.5063 -1.2922
16318SOL     OW54916   5.529   4.520   9.256 -0.1157  0.2763  0.2874
16318SOL    HW154917   5.489   4.513   9.343 -1.9498  1.8597 -0.3721
16318SOL    HW254918   5.457   4.512   9.195  0.9404  0.6610 -1.0603
16319SOL     OW54919   1.727   0.009   2.926 -0.0796 -0.0282 -0.0229
16319SOL    HW154920   1.717  -0.054   2.997  2.0364 -1.5356 -0.9435
16319SOL    HW254921   1.687  -0.034   2.850 -2.1806  1.4915  0.1525
16320SOL     OW54922   2.077   3.419   4.442  0.5369 -0.1068  0.1116
16320SOL    HW154923   2.135   3.465   4.382  0.6358  1.1681  1.1318
16320SOL    HW254924   2.089   3.464   4.526 -1.0423 -0.5755  0.6247
16321SOL     OW54925   7.749   3.341   1.114  0.4328 -0.3597  0.3912
16321SOL    HW154926   7.721   3.332   1.205  0.5568 -1.0841  0.3680
16321SOL    HW254927   7.669   3.367   1.067 -0.2459 -2.3026  0.3437
16322SOL     OW54928  11.577   0.789   8.409  0.3057  0.1090  0.5703
16322SOL    HW154929  11.580   0.878   8.373 -0.3040  1.2058  3.0200
16322SOL    HW254930  11.651   0.785   8.470 -0.1726 -0.7500  1.1143
16323SOL     OW54931  10.537   6.250   7.863 -0.2446 -0.3627  0.4970
16323SOL    HW154932  10.482   6.323   7.891  1.1728  0.8145  0.2999
16323SOL    HW254933  10.522   6.245   7.768  1.3512  1.2048  0.1064
16324SOL     OW54934   3.241   2.652  10.048  0.3106  0.7521 -0.2482
16324SOL    HW154935   3.247   2.628  10.140  0.2896  0.1264 -0.4090
16324SOL    HW254936   3.160   2.703  10.042 -0.9946 -1.2396 -0.3559
16325SOL     OW54937   2.273   0.701   0.142 -0.2597 -0.7550  0.1212
16325SOL    HW154938   2.310   0.771   0.196  1.4146 -0.7375 -1.0049
16325SOL    HW254939   2.214   0.747   0.082 -0.0686 -0.4511  0.1604
16326SOL     OW54940  10.252   3.218  11.459  0.2228  0.4184 -0.5028
16326SOL    HW154941  10.290   3.217  11.546 -0.0872 -1.6286 -0.3448
16326SOL    HW254942  10.157   3.227  11.474 -0.0555 -2.0193 -0.4573
16327SOL     OW54943   8.343   7.282  10.744 -0.8084 -0.4470  0.0575
16327SOL    HW154944   8.400   7.358  10.757  1.1197 -1.3573 -2.2457
16327SOL    HW254945   8.331   7.245  10.831 -0.9230  1.8606  1.0825
16328SOL     OW54946   6.723  11.251   1.043  0.5071 -0.0778  0.2381
16328SOL    HW154947   6.743  11.333   0.998 -0.8935  0.5487  0.7351
16328SOL    HW254948   6.651  11.213   0.993  1.3272 -1.1791 -0.1592
16329SOL     OW54949   8.633   7.971   0.691  0.3531 -0.3569  0.1717
16329SOL    HW154950   8.695   7.935   0.754  2.4798  0.9910 -1.0459
16329SOL    HW254951   8.592   8.044   0.737  0.3006 -0.6987  0.6854
16330SOL     OW54952   5.792  12.445   3.854  0.5483 -0.4144 -0.0995
16330SOL    HW154953   5.801  12.517   3.792  0.7390  0.3185  0.7533
16330SOL    HW254954   5.869  12.453   3.911 -0.4825  0.0165  1.3105
16331SOL     OW54955   3.436   5.800  10.805  0.1270  0.5758  0.3539
16331SOL    HW154956   3.509   5.820  10.863  0.4504 -0.6332  0.3892
16331SOL    HW254957   3.367   5.861  10.832  1.2560  2.0588 -0.0038
16332SOL     OW54958   2.699   4.939   2.285 -0.3559 -0.1321  0.1524
16332SOL    HW154959   2.655   4.929   2.200  0.9553 -0.9634 -0.4590
16332SOL    HW254960   2.764   5.007   2.270 -0.5507  0.1667  0.6737
16333SOL     OW54961   8.780  10.670   8.472 -0.5518  0.6342  0.0456
16333SOL    HW154962   8.759  10.758   8.503 -1.8665  0.9832 -1.7081
16333SOL    HW254963   8.789  10.618   8.552  1.5159  2.5814  1.1950
16334SOL     OW54964   0.982   2.480   1.745 -0.2434 -0.1937 -0.5725
16334SOL    HW154965   1.023   2.497   1.660 -1.0650 -1.5587 -1.2657
16334SOL    HW254966   1.015   2.394   1.771 -3.4366 -1.9424 -1.7333
16335SOL     OW54967   9.786   1.211  10.482  0.0577  0.1681  0.1925
16335SOL    HW154968   9.736   1.191  10.403 -1.8099  1.3676  0.9900
16335SOL    HW254969   9.812   1.125  10.516 -0.9157 -0.4724 -0.6160
16336SOL     OW54970   3.819   3.628   6.280 -0.7055  0.3993  0.1943
16336SOL    HW154971   3.798   3.576   6.357 -2.4507  0.0508 -0.4845
16336SOL    HW254972   3.741   3.680   6.263 -0.3445  0.5115 -1.2951
16337SOL     OW54973   8.942   3.168   6.606 -0.4815  0.1758 -0.1038
16337SOL    HW154974   8.870   3.210   6.559 -1.2783 -1.2606 -0.2085
16337SOL    HW254975   8.920   3.179   6.699 -0.1888  0.8144 -0.1040
16338SOL     OW54976   8.391   9.448   1.960 -0.3867 -0.4364  0.0226
16338SOL    HW154977   8.366   9.509   2.030 -0.9829 -2.1867  1.3930
16338SOL    HW254978   8.450   9.386   2.002  0.1951 -0.8421 -1.3443
16339SOL     OW54979   8.246  10.236   6.943 -0.4341 -0.0764 -0.4673
16339SOL    HW154980   8.188  10.286   7.001  2.3888  3.6777 -0.5243
16339SOL    HW254981   8.306  10.192   7.002 -0.4602 -0.1057 -0.4625
16340SOL     OW54982   4.435   5.960   0.165 -0.4930  0.4508 -0.4058
16340SOL    HW154983   4.465   5.941   0.077 -2.3048 -0.7062 -0.8153
16340SOL    HW254984   4.392   6.046   0.158  1.3205  1.4475 -0.1059
16341SOL     OW54985   0.254   9.740   6.056 -0.4454 -0.0685  0.2739
16341SOL    HW154986   0.270   9.800   6.129  0.0389 -0.4050  0.4505
16341SOL    HW254987   0.160   9.724   6.058 -0.7607  1.4933 -0.4126
16342SOL     OW54988   2.201   4.721   8.262 -0.0645 -0.1596  0.8679
16342SOL    HW154989   2.232   4.734   8.172 -3.3529 -0.8166 -0.4730
16342SOL    HW254990   2.207   4.808   8.302 -0.5399  0.6251 -0.6852
16343SOL     OW54991  11.621   3.973  10.373  0.3743  0.7941  0.1224
16343SOL    HW154992  11.605   3.940  10.285  1.8035  1.6879 -0.5091
16343SOL    HW254993  11.534   3.994  10.407 -0.2484 -0.1269 -0.8243
16344SOL     OW54994   9.118   6.202   5.971  0.3316 -0.6954  0.3130
16344SOL    HW154995   9.038   6.156   5.946  0.3403 -1.1336  1.0756
16344SOL    HW254996   9.088   6.276   6.023  0.2277  0.9170 -1.8868
16345SOL     OW54997   8.987   2.219  11.036 -0.4570 -0.0289  0.2536
16345SOL    HW154998   9.073   2.178  11.023 -0.0702  1.5031 -3.0435
16345SOL    HW254999   8.924   2.149  11.018  0.2021  0.2801 -4.6124
16346SOL     OW55000  10.274   7.652   0.733  0.7942  0.5507  0.0263
16346SOL    HW155001  10.285   7.563   0.699  1.0307  0.1622  1.0913
16346SOL    HW255002  10.364   7.685   0.743  0.6981  1.1078 -0.8489
16347SOL     OW55003   3.766   6.835  11.285 -0.3289  0.7452 -0.1355
16347SOL    HW155004   3.833   6.835  11.217  0.4518  0.7724  0.6045
16347SOL    HW255005   3.771   6.922  11.324 -0.0781  0.4160  0.5899
16348SOL     OW55006   5.049   7.910   1.722 -0.1795  0.5369  0.5310
16348SOL    HW155007   5.102   7.969   1.669  1.7911 -1.0616  0.6111
16348SOL    HW255008   5.096   7.903   1.805 -1.7414  0.8037  1.4833
16349SOL     OW55009   6.129   1.427   2.371 -0.3107  0.6006 -0.5528
16349SOL    HW155010   6.140   1.515   2.334  0.4499  0.6012 -0.3455
16349SOL    HW255011   6.149   1.437   2.464  2.1729 -0.1906 -0.9056
16350SOL     OW55012   1.682   1.959  10.784  0.2367 -0.0106  0.1356
16350SOL    HW155013   1.679   1.990  10.874  1.5449  0.7151 -0.0367
16350SOL    HW255014   1.774   1.971  10.758  0.3635 -2.1156 -0.6338
16351SOL     OW55015  12.157   5.912   0.709 -0.1905  0.3067  0.4563
16351SOL    HW155016  12.129   5.915   0.618 -1.6856  1.6625  0.9155
16351SOL    HW255017  12.248   5.884   0.706 -1.1002 -3.0791 -1.2412
16352SOL     OW55018   7.223   4.324   9.982 -0.5680 -0.3937 -0.5934
16352SOL    HW155019   7.264   4.410   9.995 -1.9320  0.7404 -2.9885
16352SOL    HW255020   7.269   4.286   9.907 -0.9009 -1.1314 -0.4308
16353SOL     OW55021   4.872  12.014   0.341 -0.3364  0.1213  0.6914
16353SOL    HW155022   4.872  11.939   0.281  2.5183  0.3038  0.3092
16353SOL    HW255023   4.886  11.975   0.427  0.3291  0.1310  0.5953
16354SOL     OW55024   8.075   4.915   6.832  0.5659 -0.2984 -0.2878
16354SOL    HW155025   8.099   4.969   6.757  1.9689 -0.4755  0.0096
16354SOL    HW255026   8.153   4.863   6.850 -0.0550 -0.9071  0.7402
16355SOL     OW55027   4.093   3.373   8.591  0.1032  0.0759  0.1585
16355SOL    HW155028   4.184   3.360   8.621  0.4733  0.2748 -0.8534
16355SOL    HW255029   4.073   3.296   8.539 -0.4570 -0.1537  0.7068
16356SOL     OW55030   4.426   3.027   2.164 -0.6490 -0.3047 -0.0315
16356SOL    HW155031   4.335   3.058   2.157  0.0442  2.1617  0.8801
16356SOL    HW255032   4.473   3.100   2.204  1.7316 -1.5863 -0.3320
16357SOL     OW55033   3.141   9.154   4.833 -0.3173  0.3755 -0.9254
16357SOL    HW155034   3.133   9.091   4.762 -1.5321 -1.7608  0.9726
16357SOL    HW255035   3.053   9.159   4.871 -0.4604  3.7847 -1.3463
16358SOL     OW55036   3.495   3.045   5.342  0.1879 -0.0272  0.3728
16358SOL    HW155037   3.564   3.043   5.408  0.2189  1.2308  0.4007
16358SOL    HW255038   3.488   3.137   5.317 -0.5765 -0.3268 -0.5862
16359SOL     OW55039   9.213   8.157   8.495  0.0921  0.0035 -0.2080
16359SOL    HW155040   9.262   8.215   8.553  0.0791 -0.4953  0.3099
16359SOL    HW255041   9.281   8.114   8.442  0.3947 -1.8930  1.6106
16360SOL     OW55042  10.848  10.115   4.334 -0.5036  0.4360  0.0236
16360SOL    HW155043  10.881  10.054   4.401  0.1561 -0.6927 -1.2614
16360SOL    HW255044  10.794  10.060   4.277  0.6300  0.8632 -1.5445
16361SOL     OW55045  10.926   7.524   2.891 -0.8637 -0.2907  0.1428
16361SOL    HW155046  10.930   7.501   2.984 -3.4259 -0.4612  0.2911
16361SOL    HW255047  10.978   7.457   2.847  0.0531 -0.4352  1.3869
16362SOL     OW55048   4.325   5.347   9.300 -0.4387 -0.8853 -0.4576
16362SOL    HW155049   4.250   5.400   9.274 -0.1530 -0.4745 -0.4555
16362SOL    HW255050   4.319   5.341   9.395 -0.7073 -1.2117 -0.4958
16363SOL     OW55051   8.150   5.819  11.265  0.2059 -0.7116  0.4154
16363SOL    HW155052   8.181   5.906  11.239 -2.0294  0.3119  0.9108
16363SOL    HW255053   8.129   5.828  11.358  1.4805 -2.3005  0.9030
16364SOL     OW55054  11.141   9.764   7.020  1.1055  0.3000 -0.0300
16364SOL    HW155055  11.132   9.670   7.040 -0.1830  0.4472  0.1425
16364SOL    HW255056  11.099   9.808   7.094  2.8740  1.0829  0.5782
16365SOL     OW55057  10.503  12.311  11.592 -0.0465 -0.0439 -0.2282
16365SOL    HW155058  10.474  12.249  11.526 -0.5717 -2.8409  2.4346
16365SOL    HW255059  10.425  12.361  11.614 -0.5243 -0.9161  0.0982
16366SOL     OW55060  11.375   6.248   5.066  0.4560 -0.3648 -0.0798
16366SOL    HW155061  11.313   6.300   5.014  0.1512 -0.0317  0.6126
16366SOL    HW255062  11.461   6.270   5.030  0.3753  0.9915  0.5068
16367SOL     OW55063   9.814   2.204   0.506 -0.6036  0.4692 -0.3748
16367SOL    HW155064   9.851   2.175   0.589 -0.7343 -2.0119 -1.1123
16367SOL    HW255065   9.890   2.227   0.452 -0.5094  1.8112  0.2755
16368SOL     OW55066   1.794   1.686   5.646  0.1343 -0.6170 -0.5293
16368SOL    HW155067   1.774   1.625   5.716  1.7155 -0.2476  0.3005
16368SOL    HW255068   1.710   1.703   5.603 -0.4670 -2.7069 -0.2682
16369SOL     OW55069   7.657   2.825   6.766 -0.1771 -0.2827 -0.0144
16369SOL    HW155070   7.577   2.819   6.818 -1.5077 -0.8882 -2.0116
16369SOL    HW255071   7.716   2.761   6.806 -0.6984  0.0785  1.4146
16370SOL     OW55072   9.264   6.684   6.986  0.0840 -0.6820 -0.3630
16370SOL    HW155073   9.298   6.709   7.072  1.3156 -1.2234 -0.6750
16370SOL    HW255074   9.266   6.765   6.935  2.6625 -1.0043 -0.9177
16371SOL     OW55075  10.462   1.146   9.760 -0.0224 -0.0636 -0.3805
16371SOL    HW155076  10.379   1.099   9.749 -0.4789  0.8819 -1.2553
16371SOL    HW255077  10.523   1.080   9.793 -1.1556 -0.7446  0.4301
16372SOL     OW55078   7.827   4.319   0.981  0.2048 -0.1747 -0.4782
16372SOL    HW155079   7.778   4.310   0.899  0.9011 -0.4166 -0.8740
16372SOL    HW255080   7.816   4.235   1.025  0.6148 -0.3834 -0.7675
16373SOL     OW55081   8.596   2.247   0.783  0.4315  0.2207  0.4593
16373SOL    HW155082   8.680   2.238   0.738 -0.3925  1.3142 -1.3840
16373SOL    HW255083   8.570   2.337   0.768 -1.5885 -0.3892  0.0194
16374SOL     OW55084   7.591  10.077   6.682  0.1866  0.6504 -0.5546
16374SOL    HW155085   7.648  10.154   6.679 -0.3228  1.0576 -0.0193
16374SOL    HW255086   7.603  10.034   6.598  0.6472  1.1953 -0.7689
16375SOL     OW55087   2.537   3.194   0.511 -0.5424  0.3917 -0.6941
16375SOL    HW155088   2.446   3.223   0.500 -1.1554 -0.9268  0.5329
16375SOL    HW255089   2.546   3.180   0.605  1.1454  1.0820 -0.7244
16376SOL     OW55090   4.964   7.357   5.500 -0.1619 -0.3487 -0.4391
16376SOL    HW155091   5.013   7.334   5.579 -0.1098 -0.8266 -0.6070
16376SOL    HW255092   4.908   7.281   5.484  0.0223 -0.3687 -1.0109
16377SOL     OW55093   0.067  10.188   2.459 -0.9736  0.3887 -0.0876
16377SOL    HW155094   0.158  10.210   2.479 -0.6070  0.2345 -1.5271
16377SOL    HW255095   0.030  10.164   2.544  0.0497  1.3824  0.6766
16378SOL     OW55096  11.180   1.039  10.737 -0.6612 -0.7213 -0.2010
16378SOL    HW155097  11.105   1.098  10.735 -0.9312 -0.9929  1.1012
16378SOL    HW255098  11.143   0.954  10.758 -0.0585 -0.9680 -0.1215
16379SOL     OW55099  10.884   8.553   7.378 -0.5496  0.1061 -0.1399
16379SOL    HW155100  10.914   8.560   7.287  2.1607 -0.4644  0.6017
16379SOL    HW255101  10.839   8.468   7.382  0.3916 -0.4437 -0.7111
16380SOL     OW55102   2.376  11.169  10.380  0.0651  0.4703 -0.3137
16380SOL    HW155103   2.419  11.096  10.423 -1.3521 -0.8088 -0.9773
16380SOL    HW255104   2.393  11.157  10.287 -0.4771  0.7809 -0.4605
16381SOL     OW55105  10.133   6.079   8.075 -0.0491 -0.3299  0.6251
16381SOL    HW155106  10.227   6.080   8.093 -0.3944  0.7270  2.5720
16381SOL    HW255107  10.112   6.169   8.052 -0.5112 -0.6839 -0.4216
16382SOL     OW55108   7.548   1.704  11.214  0.2854 -0.5132 -0.7875
16382SOL    HW155109   7.498   1.786  11.210  0.2070 -0.4984  0.1374
16382SOL    HW255110   7.525   1.658  11.134  0.7791  0.6203 -1.6133
16383SOL     OW55111   7.561  10.271  10.293 -0.4519  0.0308 -0.3522
16383SOL    HW155112   7.515  10.353  10.307  1.6649  1.6188 -2.0990
16383SOL    HW255113   7.500  10.216  10.244 -0.9251  1.6273 -1.6033
16384SOL     OW55114   0.987   5.789   3.386 -0.1117 -0.2730  0.2682
16384SOL    HW155115   1.005   5.835   3.467  0.9480 -0.2276  0.0308
16384SOL    HW255116   1.072   5.785   3.341 -0.9411  1.1168 -1.5781
16385SOL     OW55117   2.209   3.458   9.922 -0.0590  0.4912  0.2946
16385SOL    HW155118   2.239   3.434   9.835  1.1351 -0.2160  0.8763
16385SOL    HW255119   2.120   3.422   9.927 -0.5355  1.4160 -0.9581
16386SOL     OW55120   4.031   0.861   5.716  0.2916  0.0495  0.1666
16386SOL    HW155121   4.108   0.832   5.667  0.2190  1.0862 -0.5969
16386SOL    HW255122   3.958   0.849   5.655  0.0944  0.6545  0.2781
16387SOL     OW55123   3.758   4.521   5.085 -0.1903 -0.1700  0.0611
16387SOL    HW155124   3.727   4.590   5.026 -0.2429 -0.0245  0.2596
16387SOL    HW255125   3.854   4.530   5.084 -0.2286  0.3235  0.5917
16388SOL     OW55126   6.618   2.826   3.618  0.1940 -0.2890 -0.5072
16388SOL    HW155127   6.675   2.892   3.580  0.8975 -0.1771  0.6850
16388SOL    HW255128   6.530   2.849   3.588  0.6173  0.2733 -1.3438
16389SOL     OW55129  10.592   4.882  12.054  0.4051  0.1740 -0.1136
16389SOL    HW155130  10.559   4.866  12.142  1.2366 -0.5433  0.0787
16389SOL    HW255131  10.516   4.868  11.997  0.7494 -3.5174  0.1355
16390SOL     OW55132   2.732   3.807   4.316  0.2828  0.2206 -0.0420
16390SOL    HW155133   2.804   3.743   4.320  0.8614  0.8282 -0.5664
16390SOL    HW255134   2.757   3.874   4.379 -0.3019 -0.0423  0.4715
16391SOL     OW55135  11.428   1.800   4.584 -0.1116  0.4242 -0.2302
16391SOL    HW155136  11.367   1.729   4.564  1.1192 -0.4479 -1.0706
16391SOL    HW255137  11.410   1.822   4.676 -1.6426  0.1783 -0.4476
16392SOL     OW55138   5.916   6.939   9.452  0.8555 -0.1646  0.7799
16392SOL    HW155139   5.997   6.960   9.406  1.2591  0.6837  1.8311
16392SOL    HW255140   5.917   6.996   9.529  0.3011 -1.6498  1.9375
16393SOL     OW55141   9.454   8.395   8.975 -0.6885 -0.1337 -0.4769
16393SOL    HW155142   9.491   8.474   9.014  0.4452 -0.6013 -0.5730
16393SOL    HW255143   9.368   8.422   8.942  0.6697  1.7405 -2.7900
16394SOL     OW55144   4.659   4.361   0.172 -0.3664  0.0842 -0.1681
16394SOL    HW155145   4.749   4.349   0.143 -0.2870  0.1551  0.0461
16394SOL    HW255146   4.606   4.325   0.101 -0.1582 -0.4767 -0.0481
16395SOL     OW55147  10.366  12.061   2.764 -0.4353 -0.0655 -0.2457
16395SOL    HW155148  10.314  12.141   2.771  0.2955  0.3908  0.0585
16395SOL    HW255149  10.455  12.091   2.745 -0.1810 -0.8121 -0.2761
16396SOL     OW55150   9.569  11.868   6.669  0.2527  0.3729  0.0375
16396SOL    HW155151   9.567  11.799   6.735 -0.6833  0.6581  0.3345
16396SOL    HW255152   9.537  11.946   6.715 -1.3594  0.3566 -0.9673
16397SOL     OW55153   5.903   2.288   5.227  0.1075  0.1399  0.3564
16397SOL    HW155154   5.813   2.257   5.232 -0.0071 -1.0115 -4.2694
16397SOL    HW255155   5.953   2.211   5.199  1.7963  1.6204 -0.9707
16398SOL     OW55156   8.365   8.637  10.269  0.3259 -0.2502  0.1589
16398SOL    HW155157   8.432   8.575  10.298  1.1466 -0.7379 -2.4895
16398SOL    HW255158   8.401   8.676  10.190 -2.4717 -0.4393 -1.3393
16399SOL     OW55159   8.883   2.593   4.686 -0.1529 -0.2969 -0.1515
16399SOL    HW155160   8.928   2.536   4.748 -0.5214  0.3699  0.7512
16399SOL    HW255161   8.794   2.600   4.719 -1.2048 -2.2058 -2.3185
16400SOL     OW55162   5.377   4.528   9.013  0.4597 -0.5009  0.5331
16400SOL    HW155163   5.281   4.529   9.017  0.5174 -0.0786  2.6299
16400SOL    HW255164   5.397   4.475   8.935 -1.4647 -1.6958  0.7915
16401SOL     OW55165   7.942   0.463  10.622  0.2441 -0.0406 -0.1247
16401SOL    HW155166   7.855   0.447  10.585  0.2109 -0.4900  0.1380
16401SOL    HW255167   7.983   0.376  10.625  1.7087  0.4805 -2.7005
16402SOL     OW55168   4.744   8.910   3.308  0.2915  0.2950  1.0181
16402SOL    HW155169   4.743   8.980   3.244 -1.2213 -0.1944  0.4634
16402SOL    HW255170   4.675   8.850   3.279 -1.3159  0.6587  3.7284
16403SOL     OW55171   0.942   8.803  11.312 -0.1013  0.8413  0.1197
16403SOL    HW155172   0.969   8.757  11.232  0.2994  0.6808  0.3388
16403SOL    HW255173   0.855   8.837  11.293 -0.0330  0.7498 -0.3634
16404SOL     OW55174   0.215   9.680   0.217 -0.0316  0.2401 -0.0245
16404SOL    HW155175   0.256   9.603   0.179 -1.0091  0.2684 -1.1886
16404SOL    HW255176   0.262   9.694   0.300  0.5776 -1.2125 -0.1002
16405SOL     OW55177   8.444   0.556   9.283 -0.2112 -0.3030  0.7765
16405SOL    HW155178   8.454   0.517   9.370 -4.4527  1.3126  2.2245
16405SOL    HW255179   8.475   0.646   9.293  0.9913 -0.6124  0.0284
16406SOL     OW55180   0.886   9.952  10.976  0.1832  0.3134 -0.5717
16406SOL    HW155181   0.851   9.872  11.016  0.3166  0.8140  0.5702
16406SOL    HW255182   0.980   9.938  10.972  0.4545  1.1829  1.4931
16407SOL     OW55183   2.330  12.050   4.088 -0.2441 -0.3769 -0.0162
16407SOL    HW155184   2.390  12.059   4.014  0.8058 -1.1349  0.7144
16407SOL    HW255185   2.261  11.992   4.056 -0.7389  0.6948 -0.9434
16408SOL     OW55186  10.458   9.864   5.670  0.4911 -0.3162 -0.2491
16408SOL    HW155187  10.457   9.956   5.644  0.4252 -0.6347 -1.4499
16408SOL    HW255188  10.406   9.820   5.603  1.2830 -1.3529 -0.2109
16409SOL     OW55189   1.682  11.355   9.424  0.2520 -0.6701 -0.3192
16409SOL    HW155190   1.716  11.279   9.376  1.8397 -0.1766 -0.0326
16409SOL    HW255191   1.672  11.423   9.358  0.5596 -0.5881 -0.2827
16410SOL     OW55192   1.802   5.042  11.059 -0.2384  0.0591  0.5283
16410SOL    HW155193   1.760   5.039  11.145 -1.6265 -0.1783 -0.1373
16410SOL    HW255194   1.731   5.060  10.998  0.4269 -1.4819 -0.7763
16411SOL     OW55195   9.407   8.685   4.260  0.0756  0.0367  0.1699
16411SOL    HW155196   9.493   8.720   4.282  0.0038 -0.0260  0.5565
16411SOL    HW255197   9.346   8.753   4.286 -0.1977 -0.9967  2.5185
16412SOL     OW55198  10.187   1.081  11.583 -0.2731 -0.1099 -0.1803
16412SOL    HW155199  10.278   1.068  11.610 -0.1247  0.5987 -0.3106
16412SOL    HW255200  10.192   1.142  11.509 -0.7606 -1.1261 -1.0677
16413SOL     OW55201   9.334   2.962   5.231 -0.2849  0.3902  0.2434
16413SOL    HW155202   9.418   2.925   5.258 -1.6457 -0.7457  3.4344
16413SOL    HW255203   9.279   2.886   5.213 -1.6302  0.9424  1.7869
16414SOL     OW55204   8.456   0.117   7.246  0.0463  0.0050 -0.6235
16414SOL    HW155205   8.390   0.183   7.224 -0.1955 -0.5704 -1.7213
16414SOL    HW255206   8.532   0.166   7.275 -1.2683  0.6832  1.9956
16415SOL     OW55207   3.194   0.302   8.774  0.0138  0.1407  0.2951
16415SOL    HW155208   3.170   0.327   8.863  0.9207 -0.0333  0.5934
16415SOL    HW255209   3.149   0.366   8.718 -0.0932  0.6005  0.9031
16416SOL     OW55210   2.712  11.715  11.777 -0.4628  0.2646 -0.1827
16416SOL    HW155211   2.772  11.647  11.807 -0.1095  0.6468 -0.0226
16416SOL    HW255212   2.625  11.677  11.790 -0.3228  0.3598  1.2474
16417SOL     OW55213   3.473   0.991  10.887 -0.6069 -0.3682  0.4708
16417SOL    HW155214   3.401   1.037  10.844 -1.2490 -0.0196  1.8585
16417SOL    HW255215   3.473   1.025  10.977  1.2372 -0.4246  0.5393
16418SOL     OW55216   3.167   0.535   6.378  0.1650  0.1695  0.3539
16418SOL    HW155217   3.085   0.573   6.409 -0.3670 -0.2140 -0.5399
16418SOL    HW255218   3.140   0.452   6.337  0.9130  0.3750 -0.5700
16419SOL     OW55219   1.739   7.322   7.553  0.1820  0.2543 -0.0745
16419SOL    HW155220   1.659   7.339   7.504 -0.9298  0.6589  1.7785
16419SOL    HW255221   1.719   7.244   7.605  1.6752 -0.7588 -0.9669
16420SOL     OW55222   7.353   3.360   4.598  0.0303 -0.2950 -0.0980
16420SOL    HW155223   7.378   3.273   4.629  0.7507  0.1491  0.5991
16420SOL    HW255224   7.283   3.388   4.657 -0.6080 -0.6219 -0.6781
16421SOL     OW55225   6.083   6.409   3.067  0.6781 -0.0420  0.0774
16421SOL    HW155226   6.065   6.461   3.145  2.0452 -0.0962  0.4687
16421SOL    HW255227   6.092   6.473   2.997 -1.1729 -0.0373 -0.1864
16422SOL     OW55228   0.927   2.837   8.107 -0.4436  0.3948 -0.0198
16422SOL    HW155229   0.897   2.796   8.025  0.6101 -2.1918  0.7994
16422SOL    HW255230   0.989   2.904   8.078 -0.5852 -0.0104 -1.3652
16423SOL     OW55231  11.845  11.391   5.887  0.3519  0.3144 -0.2309
16423SOL    HW155232  11.925  11.383   5.836 -0.0427 -2.6888 -0.5922
16423SOL    HW255233  11.775  11.398   5.821  0.0729 -0.6380 -0.0509
16424SOL     OW55234   5.570   0.899   6.088  0.0262 -0.0149 -0.2451
16424SOL    HW155235   5.600   0.922   6.176 -1.0524  1.8993 -0.3230
16424SOL    HW255236   5.636   0.837   6.056  0.7402 -0.3424  1.6799
16425SOL     OW55237  11.146   8.106  10.148  0.6935 -0.2530  0.0280
16425SOL    HW155238  11.234   8.144  10.141 -0.2396  2.0199 -0.0302
16425SOL    HW255239  11.136   8.055  10.067  1.2992  0.9532 -0.8429
16426SOL     OW55240  10.610   2.321   0.879 -0.3072  0.3742 -0.5710
16426SOL    HW155241  10.670   2.248   0.863 -1.2665 -0.4802 -0.3335
16426SOL    HW255242  10.646   2.392   0.826  1.4258  0.1722  0.2423
16427SOL     OW55243   8.954   9.443   7.677 -0.8859 -0.0893  0.3610
16427SOL    HW155244   8.925   9.369   7.730  1.1313 -0.1727  1.4011
16427SOL    HW255245   8.956   9.517   7.737 -0.7397  0.3257 -0.1450
16428SOL     OW55246  11.208  10.143  11.014  0.4535  0.4878 -0.3669
16428SOL    HW155247  11.157  10.223  11.019 -2.3405 -0.8861 -3.5200
16428SOL    HW255248  11.252  10.146  10.929  0.3613 -1.2559 -0.5278
16429SOL     OW55249  11.007   6.418   7.798  0.4654 -0.3435 -0.2876
16429SOL    HW155250  10.994   6.453   7.710 -2.3634 -0.8441 -0.1525
16429SOL    HW255251  10.919   6.400   7.830  1.5065 -2.0013  1.9227
16430SOL     OW55252   8.307   6.020   4.086  0.1485  0.0111  0.1052
16430SOL    HW155253   8.287   5.947   4.144  1.5539 -0.5886 -0.1136
16430SOL    HW255254   8.245   6.012   4.014 -1.2441  0.4338  1.2152
16431SOL     OW55255   8.882   5.701   4.465 -0.2714 -0.0729  0.4652
16431SOL    HW155256   8.834   5.619   4.460  1.3738 -1.0793  0.3344
16431SOL    HW255257   8.956   5.689   4.405  3.4164 -0.8794  4.7136
16432SOL     OW55258   8.272   0.224   5.475 -0.1540 -0.2593  0.7085
16432SOL    HW155259   8.211   0.226   5.549  0.6488  1.1445  1.3589
16432SOL    HW255260   8.216   0.225   5.398 -0.9829 -0.6373  1.2889
16433SOL     OW55261   8.410   6.581   4.620 -0.8426 -0.1056  0.1768
16433SOL    HW155262   8.468   6.605   4.548  0.5327  0.4808  1.4379
16433SOL    HW255263   8.464   6.528   4.678 -1.2540  1.2327  1.8598
16434SOL     OW55264   2.357   1.751   8.245  0.4246  0.2460  0.3199
16434SOL    HW155265   2.396   1.734   8.160  0.6315 -2.0748  0.8100
16434SOL    HW255266   2.413   1.817   8.285  0.1839  1.5398 -1.3990
16435SOL     OW55267   2.598   1.950   9.708 -1.2504  0.4255 -0.1392
16435SOL    HW155268   2.505   1.951   9.729 -0.7737 -0.4347  2.4945
16435SOL    HW255269   2.632   1.874   9.756  1.1358  1.9982  0.8676
16436SOL     OW55270  10.460   1.233   4.389 -0.5750  0.2978 -0.0948
16436SOL    HW155271  10.398   1.185   4.334 -1.4475 -0.0977  1.1776
16436SOL    HW255272  10.410   1.306   4.424  0.3676  1.3818 -0.9082
16437SOL     OW55273   3.207   6.266   7.991 -0.1751 -0.4005  0.5896
16437SOL    HW155274   3.115   6.293   7.993 -0.1345 -0.1469 -0.6133
16437SOL    HW255275   3.204   6.171   7.986 -0.4956 -0.3371 -2.9463
16438SOL     OW55276   0.618   1.698   0.041  0.6451  0.1238 -0.0813
16438SOL    HW155277   0.567   1.658   0.112  0.3848 -0.5664 -0.6525
16438SOL    HW255278   0.644   1.625  -0.015 -0.0790  0.7581 -1.2949
16439SOL     OW55279   3.649   4.753  11.186 -0.1197  0.5257  0.7039
16439SOL    HW155280   3.582   4.791  11.129 -0.3544 -0.5719  0.2324
16439SOL    HW255281   3.731   4.796  11.158 -0.4402  1.0274  0.5159
16440SOL     OW55282   8.765   2.867   9.816 -0.6113  0.6261 -0.0502
16440SOL    HW155283   8.811   2.863   9.732  1.0174  1.8350  0.7133
16440SOL    HW255284   8.680   2.827   9.799  0.5090 -1.2704 -1.6857
16441SOL     OW55285   8.601   5.914  10.314 -0.0073  0.2360  0.4370
16441SOL    HW155286   8.658   5.914  10.391  0.8386  1.6953 -0.1534
16441SOL    HW255287   8.652   5.958  10.246 -0.0740 -2.4756 -1.5050
16442SOL     OW55288   5.375   7.216   6.305 -0.0988  0.2994 -0.2052
16442SOL    HW155289   5.386   7.308   6.280  2.6726  0.0702 -0.0880
16442SOL    HW255290   5.454   7.194   6.353 -1.9701 -1.4041  2.3342
16443SOL     OW55291   8.420  12.044   7.992 -0.1615 -0.4428 -0.0068
16443SOL    HW155292   8.369  12.031   7.912 -1.2589 -1.4046  0.8073
16443SOL    HW255293   8.408  11.962   8.041 -1.2099  0.8657  2.0667
16444SOL     OW55294   7.929  11.947   2.613 -0.1745 -0.2101 -0.0910
16444SOL    HW155295   7.968  11.997   2.541  1.0089 -1.1068 -0.0995
16444SOL    HW255296   7.903  11.864   2.573 -0.3820 -0.3452  0.3220
16445SOL     OW55297   4.667  11.963   2.999 -0.3577  0.2066  0.4899
16445SOL    HW155298   4.760  11.985   2.992 -0.5068  0.9932  0.8865
16445SOL    HW255299   4.623  12.022   2.938 -0.4305 -1.5166 -1.2288
16446SOL     OW55300   3.473   0.911   4.821 -0.4939 -0.2061 -0.7304
16446SOL    HW155301   3.542   0.967   4.786 -0.2197 -0.8555 -1.2366
16446SOL    HW255302   3.475   0.832   4.767 -1.3775 -0.3965 -0.5068
16447SOL     OW55303   6.038  10.038   4.031 -0.7988  0.3367  0.4465
16447SOL    HW155304   6.124  10.038   4.074  1.0145 -0.9608 -2.8050
16447SOL    HW255305   5.996  10.119   4.062  2.2438  1.8643  0.9973
16448SOL     OW55306  11.409   1.001  11.895 -0.1132 -0.2491 -0.2828
16448SOL    HW155307  11.338   1.056  11.863 -0.3131 -0.3937 -0.0894
16448SOL    HW255308  11.414   0.928  11.833 -0.4675 -0.5032 -0.0140
16449SOL     OW55309   3.976  12.073  12.459 -0.4941 -0.2047  0.1190
16449SOL    HW155310   3.915  12.130  12.505 -0.9015 -0.2707 -0.3347
16449SOL    HW255311   3.933  11.988  12.457  0.2468 -0.6235  1.0729
16450SOL     OW55312   2.686   6.080   6.664  0.1724 -0.0805 -0.3667
16450SOL    HW155313   2.654   6.163   6.628 -1.3205  0.1112  1.2354
16450SOL    HW255314   2.753   6.105   6.727 -0.6328 -0.0116  0.4891
16451SOL     OW55315   3.220  11.022  10.550 -0.5543  0.6762 -0.1290
16451SOL    HW155316   3.137  11.014  10.597 -0.1251  2.0462  0.9538
16451SOL    HW255317   3.196  11.018  10.457 -1.5472 -1.1181  0.1722
16452SOL     OW55318   0.358   9.792   7.494  0.1182  0.1458  0.0645
16452SOL    HW155319   0.345   9.833   7.579 -1.0793 -0.2426  0.0885
16452SOL    HW255320   0.452   9.775   7.489  0.0001 -1.4070  2.0595
16453SOL     OW55321   0.727   5.367   8.512  0.4823 -0.2482  0.1003
16453SOL    HW155322   0.748   5.285   8.468 -0.6016 -1.0258  1.0027
16453SOL    HW255323   0.648   5.349   8.563 -0.3232  1.5984 -0.3893
16454SOL     OW55324   4.093   4.630   6.986 -0.2414 -0.0469  0.1349
16454SOL    HW155325   4.054   4.552   7.025 -0.4283  0.3806  0.8176
16454SOL    HW255326   4.186   4.610   6.978 -0.1893 -0.1146  0.8809
16455SOL     OW55327  10.787   8.163   0.243  0.8754  0.0942  0.0015
16455SOL    HW155328  10.852   8.133   0.307  1.7182  1.2649 -0.2785
16455SOL    HW255329  10.768   8.253   0.270  0.6920  0.3494 -0.9721
16456SOL     OW55330   3.464   3.320   2.171  0.0164 -0.0217 -0.5037
16456SOL    HW155331   3.394   3.266   2.207 -1.0644  0.4653 -1.8097
16456SOL    HW255332   3.423   3.369   2.100  1.1180  1.9846  0.1565
16457SOL     OW55333   2.048   5.079   8.426 -0.1734 -0.0578 -0.2386
16457SOL    HW155334   2.104   5.003   8.431 -0.6019 -0.6373 -2.8840
16457SOL    HW255335   2.108   5.153   8.415  0.1878 -0.1180  1.1470
16458SOL     OW55336   5.668   6.544  11.057 -0.1303 -0.0335 -0.1746
16458SOL    HW155337   5.663   6.505  10.970 -0.4753  1.3969 -0.8194
16458SOL    HW255338   5.688   6.636  11.041 -0.4111  0.2956  1.2466
16459SOL     OW55339   6.396   6.385   9.144  0.3509  0.5902 -0.4912
16459SOL    HW155340   6.356   6.305   9.177  0.0338  0.7417 -0.5006
16459SOL    HW255341   6.328   6.425   9.090  0.7152  0.5603 -0.9806
16460SOL     OW55342   2.836   3.345   5.843 -0.3682  0.1628  0.0759
16460SOL    HW155343   2.922   3.336   5.884 -1.6306  0.6097  3.1488
16460SOL    HW255344   2.821   3.262   5.798  2.2732  0.6995 -2.0323
16461SOL     OW55345   7.293   2.215   2.488  0.4396 -0.0498  0.1239
16461SOL    HW155346   7.254   2.302   2.492  2.0852  0.7012  0.6018
16461SOL    HW255347   7.279   2.178   2.575 -1.1894 -0.7343 -0.3814
16462SOL     OW55348   1.498   8.226   1.399 -0.1510 -0.3019 -0.1094
16462SOL    HW155349   1.585   8.186   1.392 -0.4690 -1.1173  0.4375
16462SOL    HW255350   1.496   8.262   1.487 -0.1899  0.1610 -0.2980
16463SOL     OW55351   6.892   4.941  10.136 -0.6715 -0.4220 -0.4554
16463SOL    HW155352   6.904   4.987  10.052  2.9558  0.1668  0.2025
16463SOL    HW255353   6.856   5.007  10.195  1.5511  0.8068 -0.3441
16464SOL     OW55354   2.228  11.243   2.881 -0.2820 -0.2407  0.6311
16464SOL    HW155355   2.239  11.311   2.948 -0.4137 -0.1255  0.5331
16464SOL    HW255356   2.204  11.290   2.802  3.2225  0.0313 -0.4436
16465SOL     OW55357   0.261   0.969   8.177  0.2297 -0.3522 -0.5154
16465SOL    HW155358   0.315   0.943   8.251  0.4567  0.3039 -0.4483
16465SOL    HW255359   0.324   0.982   8.105  0.1412  0.2431 -0.4836
16466SOL     OW55360   4.293  12.305   3.577 -0.2939  0.7397 -0.1164
16466SOL    HW155361   4.339  12.237   3.527  1.2008  1.9742 -0.4761
16466SOL    HW255362   4.233  12.345   3.514 -2.2923 -1.1229  0.4455
16467SOL     OW55363   2.815   0.456   0.164  0.7359 -0.1546 -0.3289
16467SOL    HW155364   2.744   0.425   0.108 -0.2867  1.9237 -0.2817
16467SOL    HW255365   2.874   0.502   0.105  1.5122 -0.9464 -0.1961
16468SOL     OW55366   8.861   3.905   5.390 -0.7963 -0.4584  0.5701
16468SOL    HW155367   8.853   3.816   5.355  0.0825 -0.2401 -0.2452
16468SOL    HW255368   8.949   3.932   5.365 -1.2199  0.8158  0.3944
16469SOL     OW55369   3.922   8.289  11.852  0.2572  0.5924 -0.6190
16469SOL    HW155370   4.010   8.250  11.849  0.7915  1.8155 -1.2783
16469SOL    HW255371   3.899   8.287  11.945  1.8832  2.1726 -0.1295
16470SOL     OW55372  11.699  10.214   2.372  1.0863  0.3125  0.4625
16470SOL    HW155373  11.624  10.261   2.336  0.6501  0.6664  1.7936
16470SOL    HW255374  11.756  10.282   2.408  1.7094 -0.0080  0.1019
16471SOL     OW55375   0.736   6.899   0.281  0.0602  0.3583 -0.3536
16471SOL    HW155376   0.741   6.926   0.372 -0.7564 -0.4158 -0.0688
16471SOL    HW255377   0.737   6.804   0.283  2.7712  0.2731 -1.3408
16472SOL     OW55378   1.117   0.048   7.730  0.2177  0.4818 -0.4493
16472SOL    HW155379   1.142   0.140   7.742  4.0115 -0.4675  0.5304
16472SOL    HW255380   1.108   0.014   7.819 -0.2832 -0.2729 -0.7832
16473SOL     OW55381   2.461   5.268   5.480  0.3252  0.2779  0.2170
16473SOL    HW155382   2.539   5.218   5.457 -0.9349 -1.0181 -1.5103
16473SOL    HW255383   2.438   5.315   5.400 -0.7364  0.5306  0.6521
16474SOL     OW55384   9.640   6.617  10.773  0.2817 -0.3107  0.1278
16474SOL    HW155385   9.545   6.624  10.773  0.2886 -0.1159 -0.3548
16474SOL    HW255386   9.670   6.703  10.743  0.5926 -0.5225 -0.1803
16475SOL     OW55387   8.972   7.167   8.491  0.3580 -0.3148  0.2802
16475SOL    HW155388   8.942   7.227   8.560  2.4161 -0.2238  1.1823
16475SOL    HW255389   8.969   7.081   8.532 -0.3724 -0.5489 -0.2418
16476SOL     OW55390   2.007   1.364   2.864 -0.3829  0.2661 -0.2473
16476SOL    HW155391   2.040   1.407   2.943 -0.6880  0.6212 -0.3095
16476SOL    HW255392   1.916   1.393   2.857 -1.0457 -1.4777  0.4691
16477SOL     OW55393   5.625   9.655   9.385  0.0112 -0.0548  0.2472
16477SOL    HW155394   5.683   9.596   9.432  1.5922  0.3378 -1.1274
16477SOL    HW255395   5.676   9.735   9.374 -1.5663  1.0912  0.8280
16478SOL     OW55396   3.360   4.176   7.409  0.3392  0.1235 -0.8295
16478SOL    HW155397   3.337   4.229   7.485  0.2192  0.9071 -1.3956
16478SOL    HW255398   3.277   4.158   7.366  0.4492  0.0842 -1.0263
16479SOL     OW55399  12.317   8.973   9.848  0.0452 -1.1232 -0.3404
16479SOL    HW155400  12.358   9.056   9.822 -0.8006 -0.4426  0.4503
16479SOL    HW255401  12.254   8.954   9.778  0.2183 -1.0849 -0.5063
16480SOL     OW55402  11.903   3.414   2.732  0.2895 -0.0802 -0.1866
16480SOL    HW155403  11.934   3.337   2.684 -0.1374  0.7043 -1.8023
16480SOL    HW255404  11.808   3.400   2.740  0.4673 -0.6413  1.3111
16481SOL     OW55405   1.984   4.320   8.251 -0.2268  0.3456  0.6865
16481SOL    HW155406   2.075   4.303   8.278 -0.1627  1.0205  0.9271
16481SOL    HW255407   1.962   4.247   8.193 -0.6428 -1.6570  3.1597
16482SOL     OW55408   9.127   0.380   9.474 -0.6393 -0.2184 -0.3062
16482SOL    HW155409   9.131   0.476   9.476  2.0412 -0.2385  2.1451
16482SOL    HW255410   9.121   0.354   9.566  2.0288 -2.3976 -0.6292
16483SOL     OW55411   7.201   4.966  11.309  0.0855  0.1179 -0.1661
16483SOL    HW155412   7.289   4.965  11.273 -0.5050 -1.0902 -1.6894
16483SOL    HW255413   7.157   5.038  11.264  0.2757  0.7120  0.5827
16484SOL     OW55414  12.320   1.039   8.261  0.1571  0.4834  0.9253
16484SOL    HW155415  12.249   1.051   8.198  0.0205  1.3307  1.2321
16484SOL    HW255416  12.393   1.088   8.224  1.3404 -2.1624 -0.5186
16485SOL     OW55417   4.010   3.101   0.391 -0.0784 -0.1607 -0.2147
16485SOL    HW155418   4.024   3.007   0.382  2.7758  0.2760 -1.2612
16485SOL    HW255419   4.088   3.133   0.436 -0.7179  1.7933 -0.3855
16486SOL     OW55420   2.422  12.217  10.262 -0.0915  0.1148  0.5793
16486SOL    HW155421   2.358  12.183  10.199 -1.2481  2.5095  0.3122
16486SOL    HW255422   2.477  12.143  10.283 -0.6946 -1.1973 -2.0039
16487SOL     OW55423   3.990   7.485   6.585  0.6985 -0.0958  0.3277
16487SOL    HW155424   3.977   7.424   6.658  2.0627 -0.9293 -0.0887
16487SOL    HW255425   3.979   7.571   6.624  0.2584 -0.5620  1.2690
16488SOL     OW55426   0.766   6.124   7.330 -0.2459  0.3013  0.0695
16488SOL    HW155427   0.792   6.043   7.286 -0.8600 -0.3838  0.9352
16488SOL    HW255428   0.727   6.177   7.261  0.9957  0.2566 -0.7024
16489SOL     OW55429   7.496   1.324   6.382  0.5772  0.4789  0.6327
16489SOL    HW155430   7.479   1.409   6.341  1.6887  1.3298  1.8760
16489SOL    HW255431   7.555   1.343   6.455  3.1483 -1.6668 -0.6836
16490SOL     OW55432   7.062  10.141   0.100  0.0263 -0.0768  1.3258
16490SOL    HW155433   7.088  10.133   0.192  1.2549 -0.3918  0.9753
16490SOL    HW255434   7.116  10.212   0.066 -2.0284  1.5956  1.3648
16491SOL     OW55435   0.263   7.385   2.443  0.8848  0.0222  0.1819
16491SOL    HW155436   0.339   7.327   2.449  0.5423 -0.3670  0.8916
16491SOL    HW255437   0.287   7.461   2.496  0.7032 -0.1903  0.5715
16492SOL     OW55438   2.962  10.005  12.370 -0.4048 -0.5542  0.1063
16492SOL    HW155439   2.972   9.912  12.392 -0.0025 -0.4827  0.2414
16492SOL    HW255440   3.010  10.015  12.288  1.2597 -0.0749  1.0802
16493SOL     OW55441  10.900   7.179   1.970  0.4208 -0.6825 -0.4512
16493SOL    HW155442  10.860   7.201   2.054  0.0263  0.3408 -0.8965
16493SOL    HW255443  10.993   7.170   1.990  0.6899  1.7701 -0.2617
16494SOL     OW55444  11.983   4.190   0.144 -0.5008  0.5154 -0.0689
16494SOL    HW155445  11.900   4.144   0.157 -0.0695  0.5431  3.6807
16494SOL    HW255446  11.985   4.208   0.050 -4.3827 -0.1088 -0.4446
16495SOL     OW55447  11.742   4.058   0.084 -0.8498 -0.1203 -0.4067
16495SOL    HW155448  11.708   3.976   0.121  1.2416 -1.1911 -0.7147
16495SOL    HW255449  11.736   4.045  -0.011  1.6111 -0.9888 -0.5331
16496SOL     OW55450   2.720   7.116   4.322  0.3417 -0.5933 -0.2693
16496SOL    HW155451   2.639   7.145   4.280  0.1118 -0.4670  0.2589
16496SOL    HW255452   2.733   7.178   4.394  1.4362  0.0096 -0.9478
16497SOL     OW55453  10.420   9.701  11.075  0.1623  0.1219  0.0783
16497SOL    HW155454  10.463   9.766  11.130  0.0376  1.2235 -1.0720
16497SOL    HW255455  10.483   9.682  11.006 -0.7325  0.9676 -1.0240
16498SOL     OW55456   5.361   7.291  12.451 -0.3693  0.0418  0.3334
16498SOL    HW155457   5.381   7.360  12.514  0.4117 -1.2064  1.4968
16498SOL    HW255458   5.439   7.286  12.395  0.2482 -0.9337  1.2464
16499SOL     OW55459  10.193   1.527   0.310 -0.0194 -0.4367 -0.2433
16499SOL    HW155460  10.250   1.546   0.235  0.2840 -1.3254 -0.2490
16499SOL    HW255461  10.249   1.479   0.371 -0.7116 -1.1450 -0.1568
16500SOL     OW55462   1.435   1.384   0.499  0.2342 -0.1052  0.1133
16500SOL    HW155463   1.509   1.339   0.539 -0.8225 -1.3220  0.7556
16500SOL    HW255464   1.362   1.371   0.559 -0.8587 -0.1262 -1.1562
16501SOL     OW55465   9.826   0.174   5.908 -0.1536  0.0757  0.0201
16501SOL    HW155466   9.772   0.104   5.872 -0.0600  0.3879 -0.7402
16501SOL    HW255467   9.811   0.170   6.002 -3.0786  1.4426 -0.2946
16502SOL     OW55468   4.364   3.319   6.251 -0.0713  0.6186 -0.0312
16502SOL    HW155469   4.409   3.388   6.203  2.3782  0.4928  1.8845
16502SOL    HW255470   4.342   3.358   6.335 -1.5861 -0.0287 -0.0908
16503SOL     OW55471   5.739   1.864   1.334  0.0431  0.0955  0.5233
16503SOL    HW155472   5.782   1.815   1.404  0.1334  1.0274  1.1332
16503SOL    HW255473   5.661   1.902   1.374  1.0115  2.1001  0.6366
16504SOL     OW55474  11.279   1.112   1.022  0.3742 -0.5578  0.3918
16504SOL    HW155475  11.329   1.171   0.966  0.1039 -0.5110  0.1945
16504SOL    HW255476  11.245   1.046   0.961  0.2277 -0.6088  0.5288
16505SOL     OW55477   5.714  11.850   5.368  0.1641  0.3050 -0.6047
16505SOL    HW155478   5.707  11.763   5.328 -0.4869 -0.5488  1.2399
16505SOL    HW255479   5.776  11.838   5.441 -0.4163  1.2296  0.0636
16506SOL     OW55480   1.371   8.688   2.329 -0.1784 -0.0232  0.7445
16506SOL    HW155481   1.332   8.613   2.375  0.8302 -1.0848 -0.0701
16506SOL    HW255482   1.459   8.695   2.367 -0.3015  0.8354  0.8862
16507SOL     OW55483   0.697   6.644  11.334  0.2218  0.1719  0.3836
16507SOL    HW155484   0.606   6.617  11.321  0.4355 -0.2412 -0.2599
16507SOL    HW255485   0.712   6.713  11.269  1.2927 -1.9114 -1.7340
16508SOL     OW55486   1.668   1.986   9.556  0.3262 -0.3704 -0.2463
16508SOL    HW155487   1.666   1.942   9.641 -0.8454  1.3355  0.6756
16508SOL    HW255488   1.586   1.958   9.513  0.5958 -0.7059 -0.5514
16509SOL     OW55489   5.955   3.924  12.316  0.4096 -0.4971  0.5963
16509SOL    HW155490   5.996   3.845  12.282  1.5548 -0.4493  1.7829
16509SOL    HW255491   6.003   3.996  12.275 -0.3383 -0.4130 -0.1437
16510SOL     OW55492   7.545   8.865   5.830  0.0116  0.3382 -0.9383
16510SOL    HW155493   7.630   8.824   5.848  0.0958  0.9014  0.0426
16510SOL    HW255494   7.481   8.801   5.861  0.1377  0.7835  0.3177
16511SOL     OW55495   7.050  12.353  11.779  0.4602 -0.1638 -0.3946
16511SOL    HW155496   7.012  12.434  11.813  0.9180  0.2564 -0.8712
16511SOL    HW255497   7.065  12.371  11.686  1.5682 -0.4203 -0.2724
16512SOL     OW55498   7.763   1.659   8.734 -0.3653 -0.3141 -0.0704
16512SOL    HW155499   7.697   1.706   8.683 -0.2215  3.2740  2.6347
16512SOL    HW255500   7.720   1.579   8.763 -2.4040  0.3790 -1.0370
16513SOL     OW55501   3.390   2.140   1.757 -0.0895  0.2724 -0.0599
16513SOL    HW155502   3.373   2.203   1.827 -2.2586 -0.9721  0.6550
16513SOL    HW255503   3.441   2.071   1.798 -1.7146 -0.6605  0.4815
16514SOL     OW55504  11.222   0.244   3.084  0.4293  0.6638  0.3505
16514SOL    HW155505  11.190   0.306   3.150 -0.1585  1.7947 -0.9623
16514SOL    HW255506  11.256   0.171   3.136 -1.1744  0.9322  1.8950
16515SOL     OW55507  10.684   5.240   0.985 -0.3562 -0.1309  0.4231
16515SOL    HW155508  10.628   5.193   0.922 -0.1849  0.2662 -0.0362
16515SOL    HW255509  10.661   5.333   0.972  0.7051  0.0761 -0.0710
16516SOL     OW55510  10.060   7.105   0.421 -0.6584  0.3185  0.2232
16516SOL    HW155511   9.977   7.058   0.419 -1.7039  2.0708 -0.0583
16516SOL    HW255512  10.036   7.194   0.448  0.6508  1.7641 -2.8916
16517SOL     OW55513  11.148  10.321   9.488  0.0069 -0.0740 -0.1210
16517SOL    HW155514  11.135  10.332   9.394 -0.0386  0.0786 -0.0962
16517SOL    HW255515  11.160  10.409   9.522 -3.0861  0.2221  0.4769
16518SOL     OW55516   0.433  10.443   9.949  0.6608  0.5960  0.6933
16518SOL    HW155517   0.397  10.379   9.888  0.9990  1.5250 -0.5065
16518SOL    HW255518   0.378  10.436  10.027 -0.2836 -0.0425 -0.0234
16519SOL     OW55519   5.141   7.150   0.391  0.4042  0.1656  0.1501
16519SOL    HW155520   5.208   7.134   0.325  0.7387 -2.0379  0.9365
16519SOL    HW255521   5.058   7.148   0.343  0.6559 -1.2027 -0.2540
16520SOL     OW55522   9.071  11.410  12.103  0.3514 -0.5654  0.1889
16520SOL    HW155523   9.040  11.429  12.014  1.3065  0.6397  0.0852
16520SOL    HW255524   9.059  11.316  12.112  0.3086 -0.7348 -1.2566
16521SOL     OW55525   7.158   0.073   1.190 -0.0810 -0.4932  0.5406
16521SOL    HW155526   7.243   0.055   1.228 -0.8156 -0.1670  2.4472
16521SOL    HW255527   7.105   0.107   1.263 -1.9179 -0.9306 -0.5114
16522SOL     OW55528   0.847   8.759   7.751  0.2105 -0.3087 -0.3355
16522SOL    HW155529   0.910   8.754   7.823  0.1988  0.1823 -0.2830
16522SOL    HW255530   0.765   8.725   7.788 -0.4040  2.0071  0.6140
16523SOL     OW55531   1.428   0.530  10.343  0.1679  0.4507  0.4513
16523SOL    HW155532   1.344   0.495  10.371  0.4164 -0.8450 -0.3261
16523SOL    HW255533   1.480   0.535  10.423 -0.1930 -0.0758  0.7242
16524SOL     OW55534   4.374   1.223   6.372 -0.2239 -0.1949 -0.1596
16524SOL    HW155535   4.326   1.152   6.415 -0.4574  0.0728  0.0237
16524SOL    HW255536   4.323   1.302   6.392 -0.9283 -0.1937 -1.8073
16525SOL     OW55537   7.275   8.601   1.717  0.1497  0.2707  0.5578
16525SOL    HW155538   7.190   8.569   1.686 -0.0444  0.8701  0.4668
16525SOL    HW255539   7.272   8.585   1.812 -0.8456  2.0027  0.8612
16526SOL     OW55540   7.807   8.790   7.622 -1.1033  0.0661  0.5382
16526SOL    HW155541   7.766   8.763   7.704 -0.4785 -2.0179  0.2192
16526SOL    HW255542   7.895   8.751   7.625 -1.2269 -0.4416 -1.3063
16527SOL     OW55543   8.969  10.369   2.537 -0.1432  0.2434 -0.0488
16527SOL    HW155544   9.059  10.337   2.547 -0.4860 -0.7302  0.1124
16527SOL    HW255545   8.961  10.440   2.601 -0.3760 -1.6554  2.1706
16528SOL     OW55546  11.807   0.318   2.902 -0.2341 -0.1062 -0.4573
16528SOL    HW155547  11.867   0.290   2.971 -0.8179 -3.3851 -1.1020
16528SOL    HW255548  11.753   0.385   2.944  1.0170 -0.2217  1.4770
16529SOL     OW55549   0.381   6.742  11.957 -0.5825 -1.0384 -0.2961
16529SOL    HW155550   0.323   6.718  12.029 -0.0182 -0.0554  0.5142
16529SOL    HW255551   0.323   6.747  11.880 -1.8061  0.8474  0.6662
16530SOL     OW55552   8.833   4.004   7.784  0.1382 -0.3315  0.1330
16530SOL    HW155553   8.892   4.036   7.853 -0.0882  0.3602  0.0188
16530SOL    HW255554   8.873   4.034   7.703 -1.0800  1.4197  0.1153
16531SOL     OW55555  11.224   7.539   7.626  0.3597  0.0958  0.5160
16531SOL    HW155556  11.224   7.506   7.536  0.0034  0.8654  0.2175
16531SOL    HW255557  11.198   7.464   7.679 -3.2355  0.4840 -0.4221
16532SOL     OW55558   3.574   1.626   1.186 -0.3874  0.0263 -0.0927
16532SOL    HW155559   3.663   1.592   1.173 -0.6561 -1.1093  0.8545
16532SOL    HW255560   3.533   1.620   1.100 -0.3508 -1.9180 -0.0200
16533SOL     OW55561   6.989   9.677   8.817 -0.0730  0.1986 -0.2921
16533SOL    HW155562   6.959   9.605   8.761 -1.7682 -1.6794  2.7169
16533SOL    HW255563   6.934   9.670   8.896  1.2467  3.4521  1.0896
16534SOL     OW55564   1.681   5.575   9.533  0.1489  0.2126 -0.6213
16534SOL    HW155565   1.599   5.568   9.484 -0.2002  0.7373 -0.1323
16534SOL    HW255566   1.749   5.561   9.468 -0.3310 -0.1405 -1.0522
16535SOL     OW55567  10.352   3.253   2.083  0.1132 -0.5581  0.7206
16535SOL    HW155568  10.297   3.218   2.153 -0.1811 -0.2513  0.6457
16535SOL    HW255569  10.419   3.304   2.128 -0.6008  0.3768  0.7450
16536SOL     OW55570   2.806   6.362  11.588  0.7295 -0.1200  0.3374
16536SOL    HW155571   2.848   6.431  11.640  0.6491  0.2840 -0.1286
16536SOL    HW255572   2.779   6.297  11.652  0.4733  0.4552  0.8179
16537SOL     OW55573   4.132   6.152   2.524  0.1039  0.3854  0.0214
16537SOL    HW155574   4.194   6.094   2.480  0.3498  0.4680  0.2580
16537SOL    HW255575   4.082   6.095   2.582  0.1682  0.3674  0.0595
16538SOL     OW55576   2.697   7.894  11.404  0.6792  0.5445 -0.3909
16538SOL    HW155577   2.694   7.799  11.392 -0.6400  0.6710 -1.4005
16538SOL    HW255578   2.612   7.924  11.373  1.1413  2.0882 -0.2495
16539SOL     OW55579  10.971   5.321   1.124  0.9802  0.3035  0.3237
16539SOL    HW155580  11.047   5.368   1.090  1.1593 -0.5970 -0.5548
16539SOL    HW255581  11.006   5.265   1.193  0.9562  0.5970  0.5739
16540SOL     OW55582   7.613   8.502   0.137 -0.0354  1.0284  0.6480
16540SOL    HW155583   7.689   8.444   0.136  0.9999  2.3449 -0.3170
16540SOL    HW255584   7.617   8.545   0.222 -0.0677  0.6528  0.8435
16541SOL     OW55585   7.133  12.491   1.539 -0.0666 -0.2071 -0.4008
16541SOL    HW155586   7.060  12.485   1.601  0.8275  0.9340  0.8288
16541SOL    HW255587   7.098  12.540   1.465 -0.4608  0.7177  0.3723
16542SOL     OW55588   7.548   2.948   0.436 -0.1682  0.3009  0.5327
16542SOL    HW155589   7.570   2.874   0.380  0.0028  0.8425 -0.1240
16542SOL    HW255590   7.467   2.983   0.401 -0.6336 -0.0043  1.2777
16543SOL     OW55591   5.555  11.289  10.458  0.1955  0.1653 -0.5897
16543SOL    HW155592   5.583  11.373  10.421 -2.8077  1.4837 -0.1382
16543SOL    HW255593   5.549  11.305  10.552 -0.9100 -0.3669 -0.5555
16544SOL     OW55594   7.288   6.705   3.206 -0.8311 -0.3212  0.2207
16544SOL    HW155595   7.212   6.733   3.256  0.2069  1.5433  0.8606
16544SOL    HW255596   7.281   6.610   3.202 -2.3279 -0.3117  1.6485
16545SOL     OW55597   7.117   6.477  10.482  0.5628 -0.6306  0.3668
16545SOL    HW155598   7.127   6.476  10.577 -0.1108 -2.8868  0.4682
16545SOL    HW255599   7.073   6.560  10.464  2.7676  0.9420  1.7277
16546SOL     OW55600   9.291   4.414   1.258  0.5108  0.2722  0.1856
16546SOL    HW155601   9.263   4.392   1.169  1.3310 -0.3076  0.0660
16546SOL    HW255602   9.267   4.338   1.311  2.7498 -0.7151 -0.1089
16547SOL     OW55603   4.209  10.631   0.851 -0.3979 -0.4813  0.0725
16547SOL    HW155604   4.271  10.566   0.883 -1.7065 -0.9243  1.8173
16547SOL    HW255605   4.158  10.656   0.927 -0.0361  2.5466 -0.5420
16548SOL     OW55606   8.636   3.768  11.952  0.5092 -0.0158 -0.2068
16548SOL    HW155607   8.722   3.808  11.943  0.5354 -0.1303 -0.4666
16548SOL    HW255608   8.575   3.834  11.919  0.5264 -0.0710 -0.3478
16549SOL     OW55609  10.402  10.901   4.982 -0.2974 -0.2746 -0.0710
16549SOL    HW155610  10.452  10.820   4.974  0.2967  0.0986 -0.1659
16549SOL    HW255611  10.362  10.912   4.895  0.2039 -0.0892 -0.2797
16550SOL     OW55612   1.818  11.807   2.654  0.3415  0.0811  0.0328
16550SOL    HW155613   1.807  11.729   2.707 -1.9661 -0.4031 -1.0147
16550SOL    HW255614   1.741  11.861   2.674  0.7182  1.0371 -0.9415
16551SOL     OW55615   5.321   7.314   4.933  0.7358  0.5255  0.3799
16551SOL    HW155616   5.381   7.241   4.918  0.4457  0.3812 -0.0749
16551SOL    HW255617   5.347   7.381   4.870 -0.3833 -0.0227 -0.6905
16552SOL     OW55618   6.767   7.572   1.399  0.3000 -0.1347 -0.2417
16552SOL    HW155619   6.702   7.535   1.459 -0.3405 -0.1484 -0.9303
16552SOL    HW255620   6.734   7.550   1.312  0.0267  1.8202 -0.6862
16553SOL     OW55621   9.753   8.508   9.709  0.5176 -0.3197 -0.0508
16553SOL    HW155622   9.710   8.527   9.792  1.2819  0.3148  0.2123
16553SOL    HW255623   9.745   8.414   9.698  1.3528 -0.5684  1.2693
16554SOL     OW55624   1.532   1.451   9.257 -0.2909  0.0067 -0.2230
16554SOL    HW155625   1.457   1.440   9.199 -1.4064  1.7329  0.8288
16554SOL    HW255626   1.608   1.456   9.198 -1.1508 -0.2554 -1.3759
16555SOL     OW55627  11.279   2.991   5.847 -0.5855  0.8963 -0.2958
16555SOL    HW155628  11.241   2.952   5.926  0.0140  0.6943 -0.1029
16555SOL    HW255629  11.204   3.031   5.802 -1.6396 -2.1241 -1.5009
16556SOL     OW55630   4.197   2.787   7.063  0.5820  0.3026 -0.4638
16556SOL    HW155631   4.154   2.808   6.981  0.4380  0.0455 -0.4529
16556SOL    HW255632   4.199   2.692   7.066  0.1822  0.3040  0.0393
16557SOL     OW55633   2.638  10.731   0.025  0.1416 -0.3370  0.0420
16557SOL    HW155634   2.606  10.735   0.115 -0.1548 -1.1587 -0.0199
16557SOL    HW255635   2.647  10.638   0.007 -0.7597 -0.2223 -1.1068
16558SOL     OW55636   6.842  10.150   9.882 -0.7455  0.6783  0.3440
16558SOL    HW155637   6.908  10.180   9.820 -0.2737 -0.7573  0.0983
16558SOL    HW255638   6.867  10.190   9.965 -0.0576  0.8265  0.0765
16559SOL     OW55639   9.792   6.918   8.831 -0.4508 -0.1628  0.3544
16559SOL    HW155640   9.838   6.916   8.747 -0.7360  0.8805  0.1595
16559SOL    HW255641   9.726   6.986   8.821  0.6195  1.1977  1.9839
16560SOL     OW55642   7.893   3.362   3.370  0.4541 -0.4397 -0.1141
16560SOL    HW155643   7.957   3.306   3.327 -1.0714 -1.4329 -1.1875
16560SOL    HW255644   7.814   3.354   3.317 -0.6511  0.5500  1.2924
16561SOL     OW55645  11.585   6.081   8.404 -0.4197  0.0210 -0.1567
16561SOL    HW155646  11.563   6.062   8.495  1.1234  0.4900  0.3570
16561SOL    HW255647  11.543   6.165   8.385 -1.9050 -0.7325 -0.3611
16562SOL     OW55648   8.094  10.040   0.875  0.4832  0.3377  0.2456
16562SOL    HW155649   8.090  10.083   0.790 -0.3338  0.3396  0.2752
16562SOL    HW255650   8.068  10.108   0.938  1.5436  0.4691  0.5498
16563SOL     OW55651   6.750   9.499  10.651 -0.1808 -0.0766 -0.0593
16563SOL    HW155652   6.715   9.528  10.735  1.1621  0.9093  0.1716
16563SOL    HW255653   6.799   9.419  10.672  0.7685  0.5725  0.2277
16564SOL     OW55654   1.088  11.547   3.562 -0.0972 -0.5417  0.5171
16564SOL    HW155655   1.068  11.456   3.580  0.2775 -0.6380  0.4542
16564SOL    HW255656   1.124  11.547   3.473 -2.1747 -0.0425 -0.3964
16565SOL     OW55657  10.251   8.812   4.694 -0.1545  0.2860  0.0160
16565SOL    HW155658  10.319   8.875   4.716  0.6675 -0.5347 -0.1282
16565SOL    HW255659  10.175   8.866   4.671  0.7226  1.2299 -0.7466
16566SOL     OW55660  11.496   5.106   2.862 -0.5574  0.5985  0.0095
16566SOL    HW155661  11.469   5.177   2.803 -0.1261  0.8038  0.0593
16566SOL    HW255662  11.540   5.151   2.934 -0.9640  0.3370  0.4233
16567SOL     OW55663  12.031   7.272   4.308 -0.5175 -0.7172  0.2374
16567SOL    HW155664  12.088   7.279   4.384 -1.5812  1.9258  0.9151
16567SOL    HW255665  12.060   7.342   4.249 -2.4446  0.1824  0.2543
16568SOL     OW55666   6.523   8.133   7.989 -0.2500 -0.0239 -0.4120
16568SOL    HW155667   6.463   8.172   8.053 -1.7621 -0.5647 -1.4297
16568SOL    HW255668   6.602   8.113   8.039 -1.2318 -0.0658  1.1990
16569SOL     OW55669   3.220   8.894   8.745  0.6407  0.0188  0.1132
16569SOL    HW155670   3.270   8.820   8.712  1.6631 -1.0168  3.5770
16569SOL    HW255671   3.286   8.962   8.760  0.6795 -0.4772  2.3930
16570SOL     OW55672   1.691  11.009   3.615  0.0681 -0.3268 -0.2451
16570SOL    HW155673   1.699  11.066   3.538  1.0112 -0.8890 -0.5750
16570SOL    HW255674   1.598  10.988   3.619 -0.1780  0.6314 -0.5570
16571SOL     OW55675   9.979   4.805   6.123 -0.2435 -0.0610  0.2656
16571SOL    HW155676  10.052   4.863   6.100 -0.3292  0.1689  0.5642
16571SOL    HW255677   9.907   4.865   6.145 -0.4557 -0.2845  0.1865
16572SOL     OW55678   9.734   4.416   8.554 -0.2658 -0.0625  0.4058
16572SOL    HW155679   9.669   4.470   8.509 -0.7255 -1.4697 -0.6931
16572SOL    HW255680   9.800   4.478   8.584  0.0582  0.9616 -2.2071
16573SOL     OW55681   6.624   2.322   1.271 -0.2479 -0.0571 -0.5762
16573SOL    HW155682   6.640   2.260   1.343 -1.8232  0.8188  0.5808
16573SOL    HW255683   6.605   2.266   1.196 -1.7850 -1.0317  0.4700
16574SOL     OW55684   1.452  11.226   3.085  0.2746  0.1206  0.3763
16574SOL    HW155685   1.400  11.153   3.119  2.1298 -1.5815 -0.2308
16574SOL    HW255686   1.469  11.281   3.161  1.9602 -2.1181  1.7490
16575SOL     OW55687   1.856   8.751   7.349 -0.1870  0.5331  0.1135
16575SOL    HW155688   1.906   8.777   7.426  3.4406 -1.2090 -1.3963
16575SOL    HW255689   1.849   8.831   7.297  0.8191  0.9098  0.5201
16576SOL     OW55690   4.151  10.477   6.375 -0.7483 -0.1238 -0.1518
16576SOL    HW155691   4.207  10.485   6.452 -0.5226 -0.9929 -0.2132
16576SOL    HW255692   4.168  10.389   6.342  1.0905  1.0236 -2.6873
16577SOL     OW55693   0.494   6.901   7.896 -0.4407 -0.2217  0.4570
16577SOL    HW155694   0.408   6.866   7.919 -0.3449 -0.0220  1.1509
16577SOL    HW255695   0.482   6.996   7.893 -0.5660 -0.2645 -0.8440
16578SOL     OW55696   9.005   5.705   0.154  0.4616  0.3665 -0.4571
16578SOL    HW155697   9.030   5.798   0.152  0.2436  0.4086 -1.5658
16578SOL    HW255698   9.075   5.663   0.204  0.9782  1.0038 -0.6195
16579SOL     OW55699   5.513  11.023   8.501 -0.2928  0.3806 -0.6030
16579SOL    HW155700   5.456  11.090   8.539 -0.7742 -0.3313 -0.0407
16579SOL    HW255701   5.474  10.940   8.528  3.1230 -0.3128  3.2676
16580SOL     OW55702   2.709   9.916   4.167  0.0093 -0.1111  0.6385
16580SOL    HW155703   2.708  10.011   4.178 -0.6248 -0.2382  1.8006
16580SOL    HW255704   2.801   9.893   4.158  0.1643  0.6132  0.3378
16581SOL     OW55705  10.280   8.923   2.898  0.1801 -0.1274 -0.2685
16581SOL    HW155706  10.370   8.915   2.866  0.1698  0.6458 -0.5184
16581SOL    HW255707  10.287   8.972   2.979 -0.1539  1.4649 -1.1620
16582SOL     OW55708   6.621   3.360  10.025  0.3773 -0.2841 -0.2299
16582SOL    HW155709   6.532   3.342   9.993 -0.7516  0.9438  1.9983
16582SOL    HW255710   6.614   3.355  10.120  2.1426  2.0636  0.1034
16583SOL     OW55711   8.156   0.031   2.251 -0.4358  0.5693 -0.8650
16583SOL    HW155712   8.213  -0.046   2.258  0.6224  1.1245 -2.6716
16583SOL    HW255713   8.140   0.040   2.157 -0.9241  2.2908 -0.6463
16584SOL     OW55714   9.550   5.449   5.089 -1.0969  0.4591  0.0815
16584SOL    HW155715   9.476   5.477   5.144 -0.9726  0.5743  0.1926
16584SOL    HW255716   9.537   5.355   5.078 -1.5468  0.5648 -0.3332
16585SOL     OW55717  11.100   7.117   3.168 -0.6412 -0.4253 -0.0883
16585SOL    HW155718  11.083   7.137   3.260 -0.4419 -1.7196  0.2489
16585SOL    HW255719  11.172   7.054   3.170  0.0413  0.2859 -1.1902
16586SOL     OW55720   1.064   6.265   5.803 -0.2595  0.0749 -0.4890
16586SOL    HW155721   1.035   6.231   5.718 -0.9030 -0.6798  0.0213
16586SOL    HW255722   1.045   6.359   5.798 -0.4458  0.0127 -1.1174
16587SOL     OW55723   3.600   5.562  10.409 -0.5666 -0.4629  0.3689
16587SOL    HW155724   3.621   5.488  10.466 -0.0804 -0.5669  0.0654
16587SOL    HW255725   3.520   5.599  10.445  1.0596  1.0676  2.7061
16588SOL     OW55726   6.128   4.292   5.369 -0.6198  0.4008 -0.5051
16588SOL    HW155727   6.174   4.212   5.393  2.2659  2.2269  0.7508
16588SOL    HW255728   6.042   4.284   5.410 -0.2037 -1.7869  0.0589
16589SOL     OW55729   8.406   6.068   8.425 -0.1650  0.1478 -0.0917
16589SOL    HW155730   8.382   5.984   8.384 -0.5739 -0.6721  1.7336
16589SOL    HW255731   8.472   6.105   8.366 -0.8689 -0.8598 -1.5801
16590SOL     OW55732   2.861   6.185   9.953  0.3231 -0.3415 -0.3455
16590SOL    HW155733   2.782   6.131   9.962  0.1024 -0.0550 -0.5504
16590SOL    HW255734   2.933   6.122   9.952  0.0880 -0.6127 -0.2820
16591SOL     OW55735   9.103   3.274   7.344  0.0260 -0.0084  0.5454
16591SOL    HW155736   9.125   3.274   7.437 -0.7903  0.9080  0.7538
16591SOL    HW255737   9.182   3.303   7.300  0.5523 -0.8570  0.9157
16592SOL     OW55738   0.904   5.227   7.057 -0.2296 -0.2483 -0.3612
16592SOL    HW155739   0.937   5.139   7.074 -1.3236 -0.6557 -0.2958
16592SOL    HW255740   0.973   5.285   7.089  1.2874 -1.0659 -1.9964
16593SOL     OW55741   6.455  12.395   7.616  0.2462 -0.1515 -0.0633
16593SOL    HW155742   6.427  12.304   7.625  0.3897 -0.0447  1.8698
16593SOL    HW255743   6.382  12.439   7.573  0.7751 -1.4156 -2.4675
16594SOL     OW55744   5.921   9.059   5.091 -0.0167  0.5776  0.1082
16594SOL    HW155745   5.908   8.980   5.038  0.9127  0.4340  0.0755
16594SOL    HW255746   5.879   9.039   5.174  0.3026  0.0022  0.1356
16595SOL     OW55747   0.630   4.857   7.975  0.2743  0.0966  0.0845
16595SOL    HW155748   0.595   4.791   7.915 -0.9204  1.1388 -0.3905
16595SOL    HW255749   0.616   4.820   8.062 -2.6294  0.7069 -0.0386
16596SOL     OW55750   2.644   2.218   3.765  0.4121 -0.1252  0.1165
16596SOL    HW155751   2.688   2.290   3.721  1.9268 -0.5807  0.8307
16596SOL    HW255752   2.674   2.139   3.720  1.0113 -0.4983  1.1199
16597SOL     OW55753  12.462  12.256  11.979 -0.2756 -0.1175  0.5409
16597SOL    HW155754  12.520  12.183  11.957 -0.0707  0.5510 -1.4355
16597SOL    HW255755  12.415  12.274  11.897  1.2938  3.3191  0.2111
16598SOL     OW55756   4.414  10.770  12.074  0.7320  0.1200 -0.1597
16598SOL    HW155757   4.398  10.704  12.007  2.1008  0.1484 -0.5493
16598SOL    HW255758   4.364  10.740  12.150 -0.1121 -0.3921 -0.8950
16599SOL     OW55759   0.296  10.882   8.701 -0.9263  0.1375 -0.3443
16599SOL    HW155760   0.246  10.826   8.642  1.2451 -2.7431  0.3220
16599SOL    HW255761   0.288  10.840   8.787  1.1215  0.5803  0.1192
16600SOL     OW55762   1.947   8.092   0.842  1.0250  0.1906  0.2439
16600SOL    HW155763   1.916   8.140   0.765  0.9254  0.3228  0.3656
16600SOL    HW255764   1.996   8.018   0.806 -1.8071 -1.7023 -0.0669
16601SOL     OW55765   4.667   3.564   1.158  0.7746  0.0328 -1.0345
16601SOL    HW155766   4.584   3.606   1.133  1.6153  3.4111  1.1428
16601SOL    HW255767   4.649   3.526   1.244  0.7714 -1.9443 -1.8515
16602SOL     OW55768  12.234   4.060  11.548  0.2785 -0.4665 -0.3673
16602SOL    HW155769  12.218   3.972  11.516  1.0901 -1.1595  1.0363
16602SOL    HW255770  12.302   4.095  11.490  0.0721 -0.8180 -0.8288
16603SOL     OW55771   5.043   5.623   2.194 -0.0846  1.1975 -0.1153
16603SOL    HW155772   5.095   5.703   2.189  1.5969  0.1570  0.1822
16603SOL    HW255773   5.040   5.591   2.103  0.8136  0.6487  0.0378
16604SOL     OW55774   4.482   0.554  10.417 -0.5953 -0.0163  0.2521
16604SOL    HW155775   4.541   0.617  10.377  0.1122 -0.0543  1.1868
16604SOL    HW255776   4.418   0.608  10.464  0.1978  0.0504  1.3195
16605SOL     OW55777  11.979   9.062   6.370  0.0431 -0.5936  0.0535
16605SOL    HW155778  11.892   9.023   6.371 -0.4325  0.4377  0.3161
16605SOL    HW255779  11.964   9.155   6.386  1.1208 -0.2554 -0.7574
16606SOL     OW55780   6.609   6.659   2.973 -0.3729 -0.2693 -0.3115
16606SOL    HW155781   6.629   6.577   2.927  0.5558 -1.0312  1.3895
16606SOL    HW255782   6.556   6.709   2.910 -0.0140 -1.6894 -1.8030
16607SOL     OW55783   0.512  12.118   0.742  0.3958 -0.0471 -0.2860
16607SOL    HW155784   0.421  12.112   0.773 -0.0345  0.7190 -1.3105
16607SOL    HW255785   0.504  12.123   0.647  1.2494  3.1887 -0.3147
16608SOL     OW55786   6.058   1.216   5.074  0.1376 -0.1333 -0.1754
16608SOL    HW155787   5.994   1.169   5.022 -1.0216  0.0014  1.0730
16608SOL    HW255788   6.141   1.205   5.027 -0.5553 -1.3792 -1.1454
16609SOL     OW55789   4.201   0.065   1.099  0.0990 -0.2053  0.2012
16609SOL    HW155790   4.281   0.016   1.082 -0.3298 -0.5949 -0.7850
16609SOL    HW255791   4.208   0.143   1.043  0.1697  0.1919  0.7532
16610SOL     OW55792   1.618  11.513   9.189  0.0368 -0.1531 -0.0869
16610SOL    HW155793   1.556  11.567   9.141  0.0372  1.0584  1.2160
16610SOL    HW255794   1.689  11.496   9.127 -0.9055 -0.3359 -1.1280
16611SOL     OW55795   3.522   2.917   8.302 -0.2130 -0.2148 -0.7925
16611SOL    HW155796   3.601   2.891   8.256  0.5028  0.7371 -0.1422
16611SOL    HW255797   3.553   2.970   8.375 -1.2471 -2.4337  1.3870
16612SOL     OW55798   5.987  12.031   8.158  0.1363 -0.0162 -0.0648
16612SOL    HW155799   5.940  12.031   8.075  0.1257 -0.9435 -0.0656
16612SOL    HW255800   5.922  12.006   8.223  0.5269 -0.9371 -0.0143
16613SOL     OW55801   6.567   5.566   9.247 -0.1489 -0.9088  0.4961
16613SOL    HW155802   6.635   5.560   9.181 -0.2265 -0.3123  0.3566
16613SOL    HW255803   6.503   5.499   9.223  0.0020 -0.9361  0.1764
16614SOL     OW55804   1.767   5.799   8.007  0.1716 -0.0767  0.2622
16614SOL    HW155805   1.763   5.775   7.914  1.8880 -2.5446  0.7249
16614SOL    HW255806   1.850   5.844   8.016  2.6578 -4.2996  1.3001
16615SOL     OW55807   0.699   6.277   7.585 -0.1329  0.0398 -0.2771
16615SOL    HW155808   0.688   6.288   7.490  0.5395  1.8376 -0.1971
16615SOL    HW255809   0.759   6.348   7.610 -1.5382  0.5991  1.7295
16616SOL     OW55810   4.854   7.080  10.951 -0.7106  0.2897  0.0848
16616SOL    HW155811   4.798   7.149  10.916 -0.8669 -0.0692 -0.3903
16616SOL    HW255812   4.796   7.005  10.963 -0.2713 -0.2309 -0.8349
16617SOL     OW55813   9.949   4.876   1.154 -0.1414  0.6277  0.1235
16617SOL    HW155814  10.010   4.870   1.081  1.5709 -0.9444  1.5476
16617SOL    HW255815   9.945   4.786   1.189 -1.8382  1.0771  1.2370
16618SOL     OW55816   4.239  11.763   4.907 -0.3520  0.1855 -0.0956
16618SOL    HW155817   4.188  11.757   4.988 -0.3818  0.2780 -0.1076
16618SOL    HW255818   4.174  11.781   4.839 -0.0970  2.2897  0.1641
16619SOL     OW55819   9.156   3.150   4.051 -0.4765 -0.1299  0.2682
16619SOL    HW155820   9.218   3.109   4.111  0.7036  0.6539 -0.4048
16619SOL    HW255821   9.096   3.199   4.108 -0.1952 -0.4843  0.8806
16620SOL     OW55822  11.257   0.740   8.279  0.4491  0.0232 -0.0076
16620SOL    HW155823  11.254   0.818   8.223 -0.1078  0.9521  1.2656
16620SOL    HW255824  11.309   0.767   8.355  0.3869 -0.9035  0.3755
16621SOL     OW55825   7.643   3.925  10.891  0.8338 -0.1646 -0.5231
16621SOL    HW155826   7.697   3.994  10.851  0.4814  0.9937  0.9034
16621SOL    HW255827   7.570   3.913  10.831  1.1257  0.4243 -1.0039
16622SOL     OW55828   3.069   8.843  11.848  0.0340  0.5102 -0.0671
16622SOL    HW155829   3.055   8.784  11.922 -1.3653 -0.4543 -1.0685
16622SOL    HW255830   2.996   8.905  11.853  1.4239  2.1895  0.9160
16623SOL     OW55831   8.229   9.250   3.457  0.2094 -0.3051 -0.2321
16623SOL    HW155832   8.201   9.296   3.378 -0.6437  0.3835  0.4452
16623SOL    HW255833   8.219   9.157   3.437 -3.2143 -0.1464  0.1362
16624SOL     OW55834   4.110   0.191   8.983  0.5359 -0.6031  0.0382
16624SOL    HW155835   4.199   0.198   9.018  0.5228  1.4419 -0.2071
16624SOL    HW255836   4.054   0.186   9.061  0.6851  1.3974  0.3293
16625SOL     OW55837  10.899   0.822   6.649  0.7852  0.1249  0.3531
16625SOL    HW155838  10.905   0.727   6.645 -1.3298 -0.2149  2.5677
16625SOL    HW255839  10.990   0.852   6.651  1.4988 -1.8052 -0.5313
16626SOL     OW55840   9.498   2.345   0.533 -0.6629  0.2343 -0.3517
16626SOL    HW155841   9.478   2.433   0.567  0.5920  0.3657  0.1144
16626SOL    HW255842   9.578   2.358   0.481 -1.3470 -0.3668 -1.5857
16627SOL     OW55843   8.953   5.074   6.124  0.0381  0.3031  0.2640
16627SOL    HW155844   8.939   5.163   6.092  2.1053  0.8361  0.7077
16627SOL    HW255845   8.988   5.086   6.212 -0.5163 -0.9915  0.6748
16628SOL     OW55846  10.256   9.959  12.431  0.2127  0.6512 -0.0578
16628SOL    HW155847  10.309  10.024  12.386  0.9421  0.4968  0.5500
16628SOL    HW255848  10.319   9.898  12.469 -0.4100  0.2595  0.3878
16629SOL     OW55849   4.797   0.265   5.101 -0.3075  0.6342  0.4833
16629SOL    HW155850   4.848   0.213   5.163 -0.7218  0.1771  0.4436
16629SOL    HW255851   4.849   0.265   5.021  0.8133  2.2081  1.1463
16630SOL     OW55852  10.781  11.672   7.667  0.5083  0.0137 -0.2007
16630SOL    HW155853  10.707  11.713   7.712  0.1371  0.2236 -0.9764
16630SOL    HW255854  10.788  11.585   7.707 -0.0049  0.0831  0.0527
16631SOL     OW55855   4.515   2.433   7.864 -0.0439  0.3437  0.0576
16631SOL    HW155856   4.461   2.496   7.816  0.0533  1.1935  1.0369
16631SOL    HW255857   4.455   2.362   7.886 -0.1541  0.0742 -1.0590
16632SOL     OW55858  12.018  11.004   6.483 -0.5579  0.5155  0.3904
16632SOL    HW155859  12.035  10.919   6.523 -0.2299  0.9038  1.1035
16632SOL    HW255860  11.972  11.054   6.551  1.3042  1.6901  0.8888
16633SOL     OW55861   0.286  10.908  11.971 -0.6480 -0.3114  0.3500
16633SOL    HW155862   0.267  10.815  11.953 -1.0884 -0.5338  1.8308
16633SOL    HW255863   0.363  10.927  11.918 -0.6019 -1.4984 -0.0551
16634SOL     OW55864   9.065   9.144   4.966 -0.0430 -0.5792  0.3663
16634SOL    HW155865   8.981   9.141   4.919 -1.6882 -0.8143  3.1395
16634SOL    HW255866   9.124   9.190   4.906 -1.8108 -1.3592 -2.1343
16635SOL     OW55867   8.158   0.195   0.607 -0.1691 -0.1690  0.4834
16635SOL    HW155868   8.134   0.154   0.524  0.2095 -0.8660  0.7140
16635SOL    HW255869   8.080   0.186   0.662  0.4062 -1.9795  1.0570
16636SOL     OW55870   4.099  11.264   3.641  0.1303  1.0974  0.4060
16636SOL    HW155871   4.011  11.239   3.669 -0.2942  2.5239  0.4496
16636SOL    HW255872   4.084  11.326   3.569  1.1453 -0.3135 -1.1054
16637SOL     OW55873   3.249   0.543   3.408 -0.6202  0.2115 -0.1677
16637SOL    HW155874   3.163   0.511   3.434 -0.9617  0.0596 -1.4300
16637SOL    HW255875   3.234   0.591   3.327  0.5070  0.0042 -0.5273
16638SOL     OW55876   7.426  10.744   9.271  0.3298 -0.0616 -0.0066
16638SOL    HW155877   7.521  10.756   9.269  0.2454  0.5551 -1.4773
16638SOL    HW255878   7.393  10.824   9.313  0.3315  0.8972 -1.7503
16639SOL     OW55879  11.622  11.298   9.137 -0.5497  0.1216 -0.0844
16639SOL    HW155880  11.657  11.373   9.089  0.7047  0.0099  0.5872
16639SOL    HW255881  11.697  11.266   9.187 -1.2292 -1.1950  0.1239
16640SOL     OW55882   5.984  10.119   8.003  0.0211  0.7849  0.3858
16640SOL    HW155883   6.062  10.108   7.949 -0.9485 -0.7550 -0.7831
16640SOL    HW255884   5.924  10.051   7.972 -0.7501  0.1046  3.1532
16641SOL     OW55885   5.435   1.916   2.999 -0.2107  0.1810  0.1242
16641SOL    HW155886   5.497   1.844   2.991  2.4396  2.4528 -2.0859
16641SOL    HW255887   5.406   1.913   3.090  3.5619 -0.7849  1.4817
16642SOL     OW55888   8.706   0.233   7.535 -0.1629  0.0617  0.0661
16642SOL    HW155889   8.698   0.138   7.541 -0.1682 -0.0369 -1.1351
16642SOL    HW255890   8.799   0.251   7.550  0.0767 -0.2686 -0.9331
16643SOL     OW55891   3.720   1.581   2.223 -0.0444 -0.0858  0.0539
16643SOL    HW155892   3.686   1.633   2.150 -3.3972  0.5979  1.8795
16643SOL    HW255893   3.781   1.639   2.268  0.0485  0.4195 -0.7045
16644SOL     OW55894   0.745   5.864   7.951 -0.4033 -0.1021 -0.1207
16644SOL    HW155895   0.772   5.781   7.912 -1.2645 -0.1136 -0.7383
16644SOL    HW255896   0.752   5.927   7.880  2.0651  0.7864  0.8256
16645SOL     OW55897  12.154   0.338   5.807 -0.2997  0.7147  0.2891
16645SOL    HW155898  12.100   0.411   5.777 -0.6003  0.8181  1.0605
16645SOL    HW255899  12.235   0.379   5.837 -0.8354  0.8479  1.6098
16646SOL     OW55900   6.921   5.433   8.069  0.1837 -0.3187  0.3158
16646SOL    HW155901   6.918   5.337   8.067 -1.8398 -0.2908 -0.6518
16646SOL    HW255902   6.922   5.458   7.976  0.4813  0.6114  0.5609
16647SOL     OW55903   4.192   8.034   7.511  0.0567 -0.4630  0.4823
16647SOL    HW155904   4.253   8.069   7.447 -1.7100  0.4246 -0.7997
16647SOL    HW255905   4.168   7.948   7.478 -0.9153  0.0270 -0.1245
16648SOL     OW55906  11.662   5.397   8.630  0.1856 -0.1777  0.0433
16648SOL    HW155907  11.584   5.447   8.653  0.3778  0.1006  0.0963
16648SOL    HW255908  11.646   5.365   8.541  0.4950  0.8432 -0.3949
16649SOL     OW55909  10.777   3.622   9.030  0.5746  0.1102  0.1346
16649SOL    HW155910  10.681   3.625   9.038  0.4223 -1.4886 -0.8092
16649SOL    HW255911  10.804   3.713   9.044 -1.0514  0.5600  0.6433
16650SOL     OW55912   8.861   2.187  12.047 -0.3658  0.7284 -0.2345
16650SOL    HW155913   8.793   2.250  12.073 -0.0174  0.6053  1.0151
16650SOL    HW255914   8.913   2.173  12.126 -0.6995 -1.4728 -0.3423
16651SOL     OW55915   7.601   0.530   3.344 -0.1064  0.5438  0.3788
16651SOL    HW155916   7.582   0.521   3.438 -0.1631  0.3181  0.3474
16651SOL    HW255917   7.551   0.606   3.316 -1.9171 -0.7098  0.0477
16652SOL     OW55918   9.850   6.362  11.946  0.0612  0.4521 -0.1579
16652SOL    HW155919   9.880   6.312  11.870  0.9557  0.4879  0.1593
16652SOL    HW255920   9.806   6.298  12.002  4.3396 -0.9564  2.0243
16653SOL     OW55921   9.844   8.080   4.043 -0.1427  0.1157  0.1330
16653SOL    HW155922   9.849   7.988   4.015 -1.0334  0.1972 -0.3432
16653SOL    HW255923   9.861   8.130   3.964 -0.8954  0.3515  0.1112
16654SOL     OW55924   5.695   5.734   8.687 -0.0057 -0.4113  0.0251
16654SOL    HW155925   5.641   5.791   8.632  0.8579  1.1526  0.7400
16654SOL    HW255926   5.767   5.707   8.630 -1.4329 -2.4598 -0.9155
16655SOL     OW55927   4.108   9.406   7.471  0.1351  0.2456 -0.4791
16655SOL    HW155928   4.032   9.456   7.502 -0.1228 -1.0068  1.0934
16655SOL    HW255929   4.183   9.463   7.488 -0.2243  0.4490  0.5060
16656SOL     OW55930   6.315   0.593  12.438 -0.4764  0.3730  0.1242
16656SOL    HW155931   6.298   0.504  12.468 -0.1178 -0.6170 -2.3691
16656SOL    HW255932   6.250   0.646  12.484 -0.8720 -1.1831  1.4831
16657SOL     OW55933   7.445   8.062   3.486  0.5085 -0.2649 -0.3381
16657SOL    HW155934   7.413   8.000   3.551  0.2641  0.3308  0.1193
16657SOL    HW255935   7.366   8.108   3.456  0.9143  1.5389  1.1281
16658SOL     OW55936   8.637   7.360  10.343  0.6887 -0.3767 -0.1927
16658SOL    HW155937   8.665   7.330  10.430 -0.0857  0.0801  0.2298
16658SOL    HW255938   8.713   7.345  10.287  0.9889 -1.2698  0.4274
16659SOL     OW55939  12.374   0.235   5.233 -0.0682 -0.4028  0.5085
16659SOL    HW155940  12.378   0.143   5.256 -4.3676 -0.9642 -0.1921
16659SOL    HW255941  12.351   0.280   5.315  0.0609 -0.2478  0.4606
16660SOL     OW55942   8.328   7.405   8.204  0.1497 -0.0818 -0.0993
16660SOL    HW155943   8.359   7.323   8.167  0.4944 -0.9996  2.0760
16660SOL    HW255944   8.239   7.386   8.234 -0.7820  1.1359 -1.9116
16661SOL     OW55945   4.809   6.663   0.601 -0.7135 -0.2562 -0.0348
16661SOL    HW155946   4.816   6.639   0.508  0.1789 -0.9758  0.2092
16661SOL    HW255947   4.856   6.594   0.647  1.7974  1.8285  0.7315
16662SOL     OW55948   4.092  11.496   7.129  0.3795  0.5244  0.0727
16662SOL    HW155949   4.051  11.574   7.092  1.0030 -0.0347 -1.8813
16662SOL    HW255950   4.033  11.424   7.105  1.2349  0.0351 -0.6053
16663SOL     OW55951   0.311   1.304   6.126 -0.0183  0.4487  0.1993
16663SOL    HW155952   0.302   1.256   6.044  0.5415  0.2986  0.2201
16663SOL    HW255953   0.239   1.366   6.125 -0.7408 -0.3764  0.1626
16664SOL     OW55954   4.527  10.267   0.271  0.2330 -0.6386  0.2791
16664SOL    HW155955   4.457  10.319   0.311  0.7925 -0.5091  1.1113
16664SOL    HW255956   4.500  10.258   0.179 -0.2795  0.4194  0.3061
16665SOL     OW55957   6.524   9.917  12.355 -0.4140  0.0903  0.4464
16665SOL    HW155958   6.466   9.929  12.431 -1.1205 -1.4147  0.1837
16665SOL    HW255959   6.575   9.839  12.376 -0.5822 -0.3164 -0.5969
16666SOL     OW55960   9.785   7.727   7.057 -0.0444 -0.3168  0.2709
16666SOL    HW155961   9.863   7.739   7.003  1.0487 -0.6138  1.7294
16666SOL    HW255962   9.717   7.703   6.995  0.7702  0.8897 -1.1709
16667SOL     OW55963   5.519  10.111   4.432 -0.7168  0.3321  0.3581
16667SOL    HW155964   5.532  10.144   4.343 -0.3635  2.0864  1.0127
16667SOL    HW255965   5.424  10.113   4.444 -0.9098 -1.5240 -0.5129
16668SOL     OW55966  11.515   0.034   2.769 -0.5913  0.8295  0.1542
16668SOL    HW155967  11.429  -0.000   2.795 -1.3226  2.0283 -0.6027
16668SOL    HW255968  11.503   0.065   2.679  0.8494  0.3317 -0.2412
16669SOL     OW55969   6.715   7.165   3.689  0.2700 -0.5474 -0.4240
16669SOL    HW155970   6.675   7.197   3.770 -0.2297  0.8888 -1.2021
16669SOL    HW255971   6.759   7.084   3.715 -3.2183 -2.3546  0.4634
16670SOL     OW55972  11.688   7.841   4.500  0.2665 -0.3396 -0.7581
16670SOL    HW155973  11.650   7.888   4.426 -0.9839 -1.2441 -0.7269
16670SOL    HW255974  11.650   7.754   4.495 -1.1232  0.0090  1.8325
16671SOL     OW55975   9.739   9.131   0.937  0.2120  0.2411 -0.5134
16671SOL    HW155976   9.737   9.108   1.030 -0.9614  2.1039 -0.0140
16671SOL    HW255977   9.739   9.227   0.936 -0.2342  0.2643 -2.4490
16672SOL     OW55978   8.809   0.554   4.110 -0.2129  0.5166 -0.6338
16672SOL    HW155979   8.808   0.624   4.175 -0.1869  0.2767 -0.3727
16672SOL    HW255980   8.754   0.586   4.039  1.9516  1.9613 -1.7444
16673SOL     OW55981   7.729  10.352  11.652 -0.0482  0.0211 -0.0779
16673SOL    HW155982   7.752  10.315  11.738 -1.7234 -1.2622 -0.1102
16673SOL    HW255983   7.749  10.282  11.590 -0.4778  0.2687 -0.5049
16674SOL     OW55984   0.780   7.308  12.008 -0.0544 -0.2531 -0.3923
16674SOL    HW155985   0.868   7.273  12.022 -0.1726 -0.9841 -1.3971
16674SOL    HW255986   0.764   7.296  11.915 -1.8705 -1.6861  0.0557
16675SOL     OW55987  11.191   3.857   2.226 -0.2168  0.0317 -0.0001
16675SOL    HW155988  11.252   3.859   2.152 -0.9885  0.5400 -0.6374
16675SOL    HW255989  11.225   3.923   2.286 -1.2626  1.8243 -1.2953
16676SOL     OW55990   3.921  11.825   1.383 -0.6292  0.6100  0.4729
16676SOL    HW155991   3.911  11.730   1.376 -0.6355  0.6757 -0.7461
16676SOL    HW255992   4.014  11.837   1.403 -0.4020  0.3535 -0.3494
16677SOL     OW55993   7.448   5.604   5.913 -0.5614 -0.3983  0.0608
16677SOL    HW155994   7.514   5.671   5.930  0.3733 -1.5448  1.1817
16677SOL    HW255995   7.446   5.595   5.818 -1.1628  1.6220 -0.1648
16678SOL     OW55996  10.445   2.599  11.909  0.0748  0.1203  0.0231
16678SOL    HW155997  10.488   2.548  11.841  1.7358  0.4521  0.7759
16678SOL    HW255998  10.430   2.685  11.870  1.6180  0.5191  0.2373
16679SOL     OW55999  11.078   2.767  12.390  0.1614  0.3741 -0.1896
16679SOL    HW156000  11.057   2.822  12.466 -0.8136  1.2747 -1.0948
16679SOL    HW256001  11.143   2.817  12.341  0.0421  0.2441 -0.4829
16680SOL     OW56002  10.455   5.998   2.362  0.4304 -0.2844 -0.1416
16680SOL    HW156003  10.502   6.081   2.359  2.0096 -1.1526 -0.9238
16680SOL    HW256004  10.363   6.021   2.351  0.7803  1.3941  0.2753
16681SOL     OW56005   5.410   9.304  11.077 -0.6796  0.7327 -0.4305
16681SOL    HW156006   5.407   9.214  11.044  0.2434 -0.1113  1.6445
16681SOL    HW256007   5.349   9.352  11.021 -0.2664 -0.8880 -2.4001
16682SOL     OW56008   2.643   2.323   0.766  0.2858  0.0664  0.4529
16682SOL    HW156009   2.616   2.373   0.689  2.2681  0.4296 -0.0831
16682SOL    HW256010   2.561   2.295   0.808 -0.8433  1.2856 -0.8487
16683SOL     OW56011   6.131   1.850   7.746 -0.1923 -0.1282 -0.0228
16683SOL    HW156012   6.151   1.803   7.665  0.5612  0.3508 -0.1264
16683SOL    HW256013   6.146   1.786   7.815 -0.9452 -0.5735 -0.2581
16684SOL     OW56014   6.856   9.959   7.935  0.5089  0.1022  0.0687
16684SOL    HW156015   6.796   9.941   7.863  0.6543 -1.6051  0.3335
16684SOL    HW256016   6.800   9.964   8.013  0.3592  1.8781 -0.1188
16685SOL     OW56017   4.113   5.096   4.678 -0.1132  0.0306  0.1202
16685SOL    HW156018   4.025   5.134   4.678 -0.7747 -1.3554 -1.2566
16685SOL    HW256019   4.163   5.151   4.617  0.3037  1.3875  1.6043
16686SOL     OW56020  11.111   5.120  10.260  0.0535 -0.1361 -0.4606
16686SOL    HW156021  11.110   5.106  10.355 -0.2874  1.7714 -0.1568
16686SOL    HW256022  11.084   5.211  10.248  3.2238  0.7456 -2.1846
16687SOL     OW56023   0.517   5.716   5.497  0.4620 -0.3474  0.3634
16687SOL    HW156024   0.518   5.672   5.582  1.8951 -2.5698 -0.7104
16687SOL    HW256025   0.609   5.716   5.469  0.4870  3.1127  0.1111
16688SOL     OW56026   2.298   1.482  11.678 -0.3119 -0.0495 -0.0733
16688SOL    HW156027   2.296   1.451  11.587 -2.2007 -0.3299  0.0237
16688SOL    HW256028   2.275   1.405  11.730  2.3145 -0.3159  0.8374
16689SOL     OW56029   0.934   3.471  11.979  0.1258  0.1983  0.0297
16689SOL    HW156030   0.895   3.478  12.067 -1.0017 -0.2990 -0.4112
16689SOL    HW256031   0.897   3.546  11.931 -0.5397 -0.4462 -0.4797
16690SOL     OW56032   9.508   0.390   0.301 -0.2940  0.2827  0.5957
16690SOL    HW156033   9.575   0.334   0.262  0.7249  1.3053  0.8535
16690SOL    HW256034   9.527   0.387   0.395 -1.0502  0.0271  0.7493
16691SOL     OW56035   4.084  10.983   7.923  0.0840  0.0332  0.1627
16691SOL    HW156036   4.054  10.972   7.832  0.2877  0.3677  0.0530
16691SOL    HW256037   4.036  10.917   7.972 -1.6125  1.2200  0.1657
16692SOL     OW56038   4.175   5.057   7.923  0.3560  0.0864 -0.3090
16692SOL    HW156039   4.114   5.066   7.851 -2.8173  0.8958  2.2586
16692SOL    HW256040   4.261   5.077   7.885 -1.3238  2.0437 -3.4578
16693SOL     OW56041   6.509   6.411   2.146 -0.4162 -0.1522 -0.5208
16693SOL    HW156042   6.500   6.469   2.222 -0.2508 -0.0662 -0.5665
16693SOL    HW256043   6.601   6.420   2.121 -0.4095 -0.3775 -0.5737
16694SOL     OW56044   4.081   3.245   3.781 -0.1202 -0.2225 -0.1220
16694SOL    HW156045   4.129   3.164   3.798 -0.7373 -0.8417 -1.2283
16694SOL    HW256046   3.989   3.221   3.788 -0.3329  0.8121  1.3377
16695SOL     OW56047   9.706   6.923   6.288  0.3890  0.0005 -0.2001
16695SOL    HW156048   9.679   6.925   6.197  0.3224  2.8520 -0.1976
16695SOL    HW256049   9.796   6.892   6.286 -0.6552 -3.3958 -0.8015
16696SOL     OW56050   4.349  11.800   2.053 -0.1199 -0.6640 -0.0604
16696SOL    HW156051   4.344  11.791   1.957  0.4623  0.0537 -0.1677
16696SOL    HW256052   4.268  11.845   2.077  0.2979  0.2895 -0.3777
16697SOL     OW56053   0.280  12.095   0.094  0.0864  0.1612 -0.3791
16697SOL    HW156054   0.256  12.109   0.185 -1.5103  0.4832 -0.8306
16697SOL    HW256055   0.336  12.017   0.096 -0.7657 -0.4555  0.7627
16698SOL     OW56056   1.892   9.304   3.832  0.0153  0.5298 -0.2522
16698SOL    HW156057   1.941   9.225   3.856 -0.2253  0.6133  0.5188
16698SOL    HW256058   1.893   9.358   3.910 -2.1609  0.1171  0.1234
16699SOL     OW56059  11.545   5.261   6.137 -0.2014  0.0398 -0.9122
16699SOL    HW156060  11.512   5.326   6.075  0.8218  0.1040 -1.4091
16699SOL    HW256061  11.639   5.277   6.142 -0.1840 -0.3234  0.2510
16700SOL     OW56062  11.536   7.652  11.221 -0.0880  0.2251 -0.2491
16700SOL    HW156063  11.513   7.578  11.165 -2.2263  0.7290 -0.1073
16700SOL    HW256064  11.621   7.682  11.187 -0.1651 -0.9969 -1.6306
16701SOL     OW56065   7.996   9.848   4.535 -0.0162  0.0585  0.4198
16701SOL    HW156066   7.942   9.911   4.583  0.2341  0.8165 -0.2726
16701SOL    HW256067   8.022   9.785   4.601  0.9334  1.4852  1.4730
16702SOL     OW56068   5.508   1.711  12.346  0.2928 -0.0529  0.0765
16702SOL    HW156069   5.439   1.776  12.334  0.8079  0.7769  1.4344
16702SOL    HW256070   5.461   1.630  12.366 -0.3667 -0.2600 -1.9755
16703SOL     OW56071   4.238   4.974   5.839 -0.0708 -0.4456 -0.2797
16703SOL    HW156072   4.156   4.960   5.886 -0.0803  0.0206 -0.1481
16703SOL    HW256073   4.212   5.012   5.755  0.0439  0.4053  0.0555
16704SOL     OW56074   2.967  11.349   1.970 -0.2198 -0.6597 -0.1017
16704SOL    HW156075   2.886  11.394   1.949  0.3418  0.5187  0.1599
16704SOL    HW256076   2.945  11.293   2.044 -0.9780 -0.9415 -0.5347
16705SOL     OW56077  11.532   4.454   5.307  0.3782 -0.1170 -0.0815
16705SOL    HW156078  11.618   4.431   5.342  0.0488 -1.6353 -0.1863
16705SOL    HW256079  11.481   4.480   5.383  0.1563 -1.8188  0.3978
16706SOL     OW56080   6.185   8.690   5.346  0.2963 -0.0281  0.1597
16706SOL    HW156081   6.124   8.716   5.415  0.1365 -1.4605  0.5821
16706SOL    HW256082   6.226   8.610   5.379  0.4935 -0.5302 -1.2482
16707SOL     OW56083  10.833   0.131  11.340  0.3337 -0.3267  0.3704
16707SOL    HW156084  10.882   0.211  11.317  0.2982 -0.4867 -0.2943
16707SOL    HW256085  10.895   0.079  11.391  1.1143 -0.8136 -1.0095
16708SOL     OW56086   4.809   6.285  11.413  0.3790 -0.1544  0.1011
16708SOL    HW156087   4.749   6.355  11.385  0.1523  0.0187  0.9922
16708SOL    HW256088   4.814   6.227  11.337  0.6927  0.9015 -0.7155
16709SOL     OW56089   1.919   5.891   8.960  0.8970  0.0926  0.3336
16709SOL    HW156090   1.868   5.925   9.034  1.5082  2.4415 -0.2324
16709SOL    HW256091   1.896   5.798   8.956 -1.2324  0.4771  1.7631
16710SOL     OW56092  12.214   3.947   1.136 -0.3315 -0.4407  0.1814
16710SOL    HW156093  12.130   3.920   1.098  0.7361 -1.5728 -1.4884
16710SOL    HW256094  12.192   3.975   1.225 -2.5626 -0.0980 -0.4252
16711SOL     OW56095   7.430  10.034  11.092 -0.1643 -0.1027  0.1732
16711SOL    HW156096   7.423  10.128  11.075 -0.5372  0.0978  1.3481
16711SOL    HW256097   7.523  10.019  11.109  0.3184 -0.4034 -2.3792
16712SOL     OW56098   7.653  11.267   3.780 -0.5410  0.2264  0.5224
16712SOL    HW156099   7.707  11.328   3.730  1.2984 -2.6769 -1.3012
16712SOL    HW256100   7.603  11.323   3.840  1.5987  3.3896 -0.4062
16713SOL     OW56101   2.379   7.258   2.247  0.2028 -0.4618 -0.7771
16713SOL    HW156102   2.470   7.258   2.277  0.1468 -0.7135 -0.5951
16713SOL    HW256103   2.360   7.165   2.231 -0.3980 -0.5641  0.3697
16714SOL     OW56104   6.543   5.336  12.025 -0.0305 -0.2834 -0.2888
16714SOL    HW156105   6.582   5.282  11.956 -0.8790 -0.8976 -0.2990
16714SOL    HW256106   6.596   5.317  12.103 -0.5134 -1.4025 -0.2135
16715SOL     OW56107   0.577   5.109   1.433 -0.2426  0.3867  0.3901
16715SOL    HW156108   0.597   5.017   1.417 -0.5077  0.1257  1.5081
16715SOL    HW256109   0.590   5.151   1.348  3.2911 -0.0517  0.5320
16716SOL     OW56110   2.215   4.333   7.386  0.3521 -0.0679  0.4085
16716SOL    HW156111   2.197   4.386   7.463  0.6244  0.3223  0.2069
16716SOL    HW256112   2.165   4.252   7.400 -0.0972  0.2564  0.6915
16717SOL     OW56113   5.829   5.305  11.339 -1.0263  0.0875  0.0328
16717SOL    HW156114   5.781   5.343  11.267 -0.1705 -1.7745 -1.6184
16717SOL    HW256115   5.891   5.244  11.298 -0.2813 -0.8246  2.3038
16718SOL     OW56116   9.474   0.197   4.439 -0.6607  0.3825 -0.5113
16718SOL    HW156117   9.492   0.248   4.360  2.4833 -0.3818 -0.4349
16718SOL    HW256118   9.521   0.243   4.509  0.4691 -1.3832 -0.0426
16719SOL     OW56119   0.537  10.596   0.970 -0.2728 -0.2643  0.3279
16719SOL    HW156120   0.489  10.635   0.896 -0.1179  0.3242  0.5365
16719SOL    HW256121   0.628  10.592   0.941  0.2348  2.1826  1.3384
16720SOL     OW56122   8.814   9.962   7.974 -0.1462  0.2150  0.3600
16720SOL    HW156123   8.757   9.944   7.900  0.3729  0.6561 -0.1635
16720SOL    HW256124   8.896   9.992   7.934 -0.4374  2.1746  1.1114
16721SOL     OW56125  11.225   9.897   0.151 -0.2440  0.2611 -0.0970
16721SOL    HW156126  11.232   9.802   0.147 -0.0185  0.1251  2.1521
16721SOL    HW256127  11.291   9.929   0.089  0.1249 -1.0283 -0.3974
16722SOL     OW56128   2.595  11.678   7.480  0.4585  0.1881 -0.0057
16722SOL    HW156129   2.553  11.742   7.423  1.2548 -1.4810 -2.6396
16722SOL    HW256130   2.527  11.613   7.497  0.9037 -0.6024 -1.1796
16723SOL     OW56131   3.778   1.630  11.543 -0.0640 -0.0313  0.8595
16723SOL    HW156132   3.709   1.693  11.565  0.6429  0.6306  1.1991
16723SOL    HW256133   3.848   1.682  11.505 -0.6380 -0.9706 -1.6464
16724SOL     OW56134   1.860   7.688   7.846  0.6699  0.3466 -0.1216
16724SOL    HW156135   1.917   7.656   7.776 -1.9694 -0.4053 -2.0977
16724SOL    HW256136   1.860   7.783   7.835 -1.4665  0.1452 -2.7803
16725SOL     OW56137   2.373   7.725   4.155 -0.1133  0.3518 -0.3755
16725SOL    HW156138   2.466   7.739   4.134 -0.4234  1.4119 -1.0890
16725SOL    HW256139   2.328   7.731   4.071 -1.0097  1.3814  0.1541
16726SOL     OW56140   7.070   0.081   2.946  0.5360  0.1889  0.4346
16726SOL    HW156141   6.993   0.030   2.919  0.6125 -0.3146  1.1390
16726SOL    HW256142   7.115   0.025   3.009  1.6824  0.3345 -0.2352
16727SOL     OW56143  12.469   3.098   4.834 -0.9939  0.6578  0.0472
16727SOL    HW156144  12.547   3.082   4.887 -1.9380  1.4752  1.7863
16727SOL    HW256145  12.409   3.028   4.858 -1.8726  1.7010  1.0072
16728SOL     OW56146   1.220  11.749  10.085 -0.1231 -0.2641  0.5551
16728SOL    HW156147   1.266  11.785  10.009  3.8077 -2.2918  1.7479
16728SOL    HW256148   1.256  11.797  10.160 -0.5602 -1.3536  1.4939
16729SOL     OW56149   5.538   4.586   6.659 -0.2608  0.5094  0.4369
16729SOL    HW156150   5.479   4.657   6.685 -0.7521  0.6333 -0.9324
16729SOL    HW256151   5.563   4.607   6.569  1.5410  0.2225  0.8395
16730SOL     OW56152   1.016   7.190  12.037 -0.3801  0.3934  0.0453
16730SOL    HW156153   1.103   7.150  12.038 -0.8054 -0.6847 -1.7755
16730SOL    HW256154   0.957   7.120  12.067 -0.5736  1.3679  2.0758
16731SOL     OW56155   6.230   5.586   2.125  0.2238 -0.5899  0.0387
16731SOL    HW156156   6.148   5.609   2.079  0.8121 -2.5975 -2.2290
16731SOL    HW256157   6.294   5.649   2.091 -0.2647  0.8529  1.6626
16732SOL     OW56158   3.870   0.526   7.250  0.1391 -0.5167  0.5738
16732SOL    HW156159   3.870   0.621   7.248 -0.1510 -0.4792  1.6985
16732SOL    HW256160   3.781   0.502   7.278  0.0920 -1.1356 -0.0556
16733SOL     OW56161  10.211   5.643  10.586  0.3006  0.0130  0.5979
16733SOL    HW156162  10.213   5.548  10.571 -0.6487  0.1697 -0.7879
16733SOL    HW256163  10.292   5.675  10.545 -0.8530  0.0939 -1.7878
16734SOL     OW56164   5.367   4.564   5.481 -0.2254  0.5278  0.2739
16734SOL    HW156165   5.290   4.620   5.489 -0.7866  0.0952 -1.7364
16734SOL    HW256166   5.342   4.483   5.526 -0.4186  0.8745  0.8057
16735SOL     OW56167  11.391   9.125   3.838 -0.6029 -0.1752 -0.2892
16735SOL    HW156168  11.360   9.154   3.924  0.2257  1.3398 -0.4701
16735SOL    HW256169  11.326   9.158   3.776  0.4306  1.5940 -0.5122
16736SOL     OW56170  11.025   4.399   2.951  0.0441  0.3701 -0.2236
16736SOL    HW156171  11.046   4.310   2.979  3.0422  1.4341  1.2510
16736SOL    HW256172  11.027   4.394   2.855  0.9811 -0.9655 -0.1622
16737SOL     OW56173   0.978   2.410   0.502  1.0965  0.0068 -0.1639
16737SOL    HW156174   0.925   2.452   0.434 -0.0624 -2.5154 -0.9424
16737SOL    HW256175   0.918   2.351   0.546  2.6107 -0.8082  0.8942
16738SOL     OW56176  11.804  10.483   7.935 -0.4765 -0.0784  0.5789
16738SOL    HW156177  11.763  10.556   7.982  0.4325  0.7876  0.0695
16738SOL    HW256178  11.748  10.469   7.859 -0.8353 -0.1321  0.8525
16739SOL     OW56179   5.245   9.517   2.356  0.1590  0.4748  0.1124
16739SOL    HW156180   5.187   9.468   2.414 -1.4537  1.3929 -0.6535
16739SOL    HW256181   5.322   9.537   2.409 -0.7719  0.2868  1.5669
16740SOL     OW56182  11.016   1.420   6.806  0.4271 -0.4820 -0.1331
16740SOL    HW156183  10.938   1.474   6.811 -1.3638 -2.8997 -0.0516
16740SOL    HW256184  11.037   1.416   6.713  0.8185  0.6216 -0.1022
16741SOL     OW56185   6.158   0.725  10.721  0.2508 -0.1131 -0.3465
16741SOL    HW156186   6.156   0.808  10.674 -0.4702  0.3111  0.4058
16741SOL    HW256187   6.082   0.676  10.687 -0.2436  0.1749  0.3139
16742SOL     OW56188  11.418   1.364   7.096 -0.4481  0.5584  0.5556
16742SOL    HW156189  11.361   1.417   7.041 -0.7300 -0.0238  0.2749
16742SOL    HW256190  11.493   1.343   7.040 -0.2697  0.7785  0.7117
16743SOL     OW56191   0.105   8.187  11.175 -0.1462 -0.2440  0.0646
16743SOL    HW156192   0.165   8.114  11.191  2.4714  1.0586 -2.8223
16743SOL    HW256193   0.144   8.260  11.224 -1.3107 -0.1169  0.8387
16744SOL     OW56194   7.878   5.848   8.705  0.2818 -0.1252 -0.3369
16744SOL    HW156195   7.970   5.861   8.727 -0.2454 -0.0993  2.1100
16744SOL    HW256196   7.845   5.935   8.685  0.6975 -0.0933 -0.9047
16745SOL     OW56197   0.358   1.099  11.382  0.4488  0.2274 -0.9059
16745SOL    HW156198   0.386   1.038  11.449  1.4835  0.8063 -0.7953
16745SOL    HW256199   0.262   1.099  11.388  0.4604 -0.9117 -0.5110
16746SOL     OW56200   9.689   7.505  11.941  0.5071  0.7464  0.5188
16746SOL    HW156201   9.749   7.579  11.934  0.4832  0.8289  1.1458
16746SOL    HW256202   9.691   7.481  12.033 -1.5034  1.6640  0.8465
16747SOL     OW56203  12.142   9.541   0.300  0.1056 -0.2081  0.3453
16747SOL    HW156204  12.090   9.610   0.259 -1.3053 -1.6113 -0.3175
16747SOL    HW256205  12.226   9.544   0.254 -0.2833  0.4046 -0.3503
16748SOL     OW56206   7.952   7.245   7.704  0.1420 -0.6121 -0.1099
16748SOL    HW156207   7.906   7.322   7.737 -0.1282 -0.5077 -0.7134
16748SOL    HW256208   8.015   7.223   7.773 -1.2379 -1.1591  1.0354
16749SOL     OW56209  10.605   9.235   3.440  0.4445  0.3054  0.1078
16749SOL    HW156210  10.611   9.310   3.380  0.7388  0.4727  0.3415
16749SOL    HW256211  10.603   9.275   3.527  0.5705  0.0423  0.2305
16750SOL     OW56212   1.522   9.582   4.584  0.2211  0.1581  0.5736
16750SOL    HW156213   1.440   9.620   4.615  1.0300  1.4913  1.1739
16750SOL    HW256214   1.566   9.654   4.538  0.4925 -0.8904 -0.8854
16751SOL     OW56215   4.565   3.724   7.316  0.0356 -0.1957 -0.0012
16751SOL    HW156216   4.652   3.729   7.276 -0.2494 -0.1469 -0.6283
16751SOL    HW256217   4.578   3.754   7.406  1.1102 -2.4032  0.6552
16752SOL     OW56218  10.547   0.626  10.557 -0.0756 -0.2075 -0.7371
16752SOL    HW156219  10.519   0.713  10.530  0.2095 -0.5067 -2.0717
16752SOL    HW256220  10.640   0.622  10.535 -0.2335 -1.0643 -1.3312
16753SOL     OW56221  10.109   0.430  10.065  0.4456  0.0979  0.4676
16753SOL    HW156222  10.145   0.397   9.982 -0.7455  0.0394 -0.0460
16753SOL    HW256223  10.122   0.524  10.061  1.5171 -0.0135  0.7900
16754SOL     OW56224   3.821  10.750   3.939  0.1200 -0.6001 -0.3066
16754SOL    HW156225   3.870  10.761   3.857  2.0220  0.6098  0.9072
16754SOL    HW256226   3.858  10.671   3.978 -0.6715 -1.0851 -0.5279
16755SOL     OW56227  12.450   0.546   2.646  0.6156  0.1005  0.1833
16755SOL    HW156228  12.441   0.506   2.560 -1.8150  1.2362 -0.1842
16755SOL    HW256229  12.427   0.476   2.707  0.3052 -0.1489 -0.2141
16756SOL     OW56230  11.349   9.272  11.397  0.1463 -0.3138  0.1194
16756SOL    HW156231  11.330   9.224  11.316  0.2168 -1.1834  0.6118
16756SOL    HW256232  11.445   9.276  11.400  0.1969 -1.6669  0.9440
16757SOL     OW56233   0.202   2.965   3.510 -0.2748  0.4688  0.2406
16757SOL    HW156234   0.206   2.995   3.419  1.8548 -0.2157  0.0592
16757SOL    HW256235   0.223   3.043   3.561  0.6533  0.3816  0.0107
16758SOL     OW56236  10.136   5.245   6.052  0.2137  0.5320 -0.7172
16758SOL    HW156237  10.053   5.269   6.009 -0.4736 -0.7505 -0.1681
16758SOL    HW256238  10.148   5.152   6.029  0.3036  0.0705  1.1026
16759SOL     OW56239   2.311   6.984  11.672  0.0175 -0.3138  0.2943
16759SOL    HW156240   2.225   6.979  11.714 -0.2203 -1.6219 -0.2826
16759SOL    HW256241   2.292   7.012  11.582  0.3816  1.1006  0.6432
16760SOL     OW56242  10.967   5.983   1.817  0.4394  0.1829 -0.3799
16760SOL    HW156243  10.924   5.909   1.774 -1.5310  1.7861 -1.3424
16760SOL    HW256244  10.901   6.019   1.875  0.7517  2.1924 -1.2022
16761SOL     OW56245   2.185   1.222   1.725  0.0924 -0.0546  0.0362
16761SOL    HW156246   2.139   1.303   1.747 -2.2425 -1.5477  1.0516
16761SOL    HW256247   2.197   1.226   1.630 -2.4111  0.3543 -0.3337
16762SOL     OW56248   0.818   3.764  11.240  0.1584 -0.3222  0.3388
16762SOL    HW156249   0.880   3.837  11.236 -0.3696  0.1475  0.5927
16762SOL    HW256250   0.748   3.787  11.179  0.3247 -0.9477 -0.1036
16763SOL     OW56251   7.131  11.267   2.124 -0.2963  0.2538 -0.5261
16763SOL    HW156252   7.059  11.205   2.112 -1.0504  0.9780  0.1368
16763SOL    HW256253   7.108  11.315   2.203  1.5973 -0.4213  0.5076
16764SOL     OW56254   8.626   6.859   3.315  0.2712  0.2643  0.1200
16764SOL    HW156255   8.599   6.939   3.360  2.9741  0.9869  0.6523
16764SOL    HW256256   8.699   6.826   3.366 -0.1940 -2.1033 -0.5988
16765SOL     OW56257   9.647  10.740   8.939  0.1474 -0.0055  0.1155
16765SOL    HW156258   9.734  10.715   8.969 -0.7733 -0.6905  2.4408
16765SOL    HW256259   9.647  10.720   8.845  2.3781 -0.2360  0.1134
16766SOL     OW56260   8.824   8.150  10.149  0.0895 -0.1070 -0.4378
16766SOL    HW156261   8.796   8.211  10.216  1.5227  1.0471 -0.8357
16766SOL    HW256262   8.778   8.177  10.070 -0.7184 -0.7485 -0.1994
16767SOL     OW56263   7.429   5.429   7.500 -0.0499  0.1822  0.0282
16767SOL    HW156264   7.511   5.452   7.545  1.2304 -0.0690 -2.0663
16767SOL    HW256265   7.453   5.358   7.441 -2.0260 -0.5706  0.0439
16768SOL     OW56266   5.631   2.104   0.019 -0.1245 -0.0481 -0.0945
16768SOL    HW156267   5.549   2.114  -0.028  0.5897  0.8070 -1.2348
16768SOL    HW256268   5.616   2.145   0.104 -1.2858 -1.1589  0.2604
16769SOL     OW56269   3.393   8.803   5.550 -0.3926  0.5830 -0.1405
16769SOL    HW156270   3.298   8.804   5.532 -0.1887  2.5968 -1.5144
16769SOL    HW256271   3.429   8.743   5.484 -0.7496 -0.7736  0.8616
16770SOL     OW56272   2.966   4.808   0.554  0.2161 -0.5756 -0.0606
16770SOL    HW156273   2.886   4.756   0.543 -0.8343  1.1895 -1.2006
16770SOL    HW256274   3.031   4.762   0.500 -0.4812 -1.1553 -0.4278
16771SOL     OW56275   9.364   6.129   0.022  0.1412 -0.2700  0.1195
16771SOL    HW156276   9.456   6.126  -0.004  0.0975 -1.3669  0.0147
16771SOL    HW256277   9.317   6.093  -0.053 -0.4292  0.7083 -0.0103
16772SOL     OW56278  11.542   6.803   5.847  0.4509 -0.4945  0.0131
16772SOL    HW156279  11.550   6.807   5.752  0.3688  1.8878  0.0382
16772SOL    HW256280  11.613   6.859   5.880 -0.5968  0.1726  1.2564
16773SOL     OW56281  11.608  11.927   4.877  0.1259 -0.1750 -0.2775
16773SOL    HW156282  11.562  11.954   4.957  2.4114 -2.1287  1.8863
16773SOL    HW256283  11.542  11.880   4.826 -1.9126  2.7552 -0.6207
16774SOL     OW56284   3.156   4.785   2.720  0.5074  0.0736 -0.0199
16774SOL    HW156285   3.214   4.710   2.708  0.7038  0.2061  0.0999
16774SOL    HW256286   3.169   4.812   2.811  0.3602  0.1898 -0.0321
16775SOL     OW56287   0.433   7.055   4.320 -0.2535 -0.3014 -0.2720
16775SOL    HW156288   0.459   7.098   4.401 -0.6749 -0.6198  0.0405
16775SOL    HW256289   0.505   6.995   4.300 -0.3177 -0.4946  0.0735
16776SOL     OW56290   0.087   1.227   0.027 -0.0972 -0.1592 -0.4757
16776SOL    HW156291   0.017   1.275  -0.017 -0.9031 -1.8002 -1.0693
16776SOL    HW256292   0.098   1.272   0.111  0.2243  1.9330 -1.5797
16777SOL     OW56293   9.910   6.865  10.247  0.1126  0.0262  0.4581
16777SOL    HW156294   9.954   6.946  10.271  0.1101  0.0728  0.3082
16777SOL    HW256295   9.981   6.801  10.241  0.6738  0.7720 -2.9065
16778SOL     OW56296  12.095   1.913  10.042  0.2624  0.0006  0.1421
16778SOL    HW156297  12.049   1.972  10.102 -0.3142  0.7920 -1.0297
16778SOL    HW256298  12.043   1.833  10.043  0.1229  0.0922  0.5041
16779SOL     OW56299   8.268  11.269   4.440  0.2451  0.3088  0.2474
16779SOL    HW156300   8.219  11.322   4.502 -0.0900  1.4599 -0.9771
16779SOL    HW256301   8.312  11.332   4.383  1.3580 -0.7174 -0.0697
16780SOL     OW56302   6.399   6.677   2.802 -0.6018  0.0295  0.2802
16780SOL    HW156303   6.340   6.739   2.761  0.7565  0.3114 -1.3549
16780SOL    HW256304   6.421   6.615   2.732  1.0831  0.0030  0.7821
16781SOL     OW56305   5.501  10.039   0.073  0.3149 -0.3062 -0.0616
16781SOL    HW156306   5.527  10.105   0.138  0.2051 -0.9805  0.6737
16781SOL    HW256307   5.423  10.076   0.032  0.1039 -0.0871  0.5237
16782SOL     OW56308   2.385   3.254   0.792  0.0812  0.3390  0.1147
16782SOL    HW156309   2.431   3.338   0.780  0.5700 -0.0242 -0.5965
16782SOL    HW256310   2.455   3.192   0.812  0.0321 -0.4014 -1.8482
16783SOL     OW56311   5.156  11.999   7.514 -0.3231 -0.6755  0.1228
16783SOL    HW156312   5.215  11.926   7.497  1.0824  0.1421  1.2518
16783SOL    HW256313   5.191  12.071   7.460  0.2282  0.0331  1.3654
16784SOL     OW56314   4.363   2.815   6.686  0.0992 -0.8487  0.2543
16784SOL    HW156315   4.414   2.871   6.745 -0.8733  0.0639  0.2679
16784SOL    HW256316   4.412   2.734   6.681  2.8622  0.7795 -1.6151
16785SOL     OW56317   3.403   3.891   2.187  0.2399 -0.0127  0.7508
16785SOL    HW156318   3.472   3.957   2.186  0.2492  0.0461 -1.6988
16785SOL    HW256319   3.338   3.924   2.124 -0.5290 -1.5590  0.6763
16786SOL     OW56320   7.188   2.078   4.566  0.0190 -1.0845  0.4947
16786SOL    HW156321   7.099   2.073   4.534  1.3538 -1.8316 -3.6802
16786SOL    HW256322   7.208   2.172   4.567 -0.3186 -0.9959 -0.2446
16787SOL     OW56323   7.166   6.738   1.840  0.1527 -0.0151 -0.1434
16787SOL    HW156324   7.169   6.712   1.932 -2.7376 -1.4119 -0.3302
16787SOL    HW256325   7.078   6.775   1.828  0.5002  0.2601 -2.3339
16788SOL     OW56326  10.787   7.815  12.283  0.4514  0.2676 -0.0942
16788SOL    HW156327  10.761   7.769  12.363 -0.2973 -0.6776 -0.8692
16788SOL    HW256328  10.712   7.871  12.262  0.8595  0.9247  0.1400
16789SOL     OW56329   1.358  11.996   9.927 -0.2179 -0.1809  0.0079
16789SOL    HW156330   1.277  12.042   9.905 -0.3953  0.1517  1.2860
16789SOL    HW256331   1.363  11.924   9.863 -1.5724 -0.2755 -0.0136
16790SOL     OW56332   5.230   8.376   9.786 -0.4016  0.1054 -0.3164
16790SOL    HW156333   5.202   8.285   9.785 -0.9949  0.2832 -0.5251
16790SOL    HW256334   5.208   8.407   9.875  1.4781 -0.4453  0.3838
16791SOL     OW56335   4.028   3.324  10.659 -0.0814 -0.2748  0.2774
16791SOL    HW156336   3.936   3.318  10.634 -0.8018 -0.3248  2.7628
16791SOL    HW256337   4.037   3.412  10.696  0.6227 -0.6262  0.9596
16792SOL     OW56338   6.910  10.246   6.000 -0.0586  0.7199 -0.2786
16792SOL    HW156339   6.882  10.214   6.086  0.1500 -2.1476 -1.1977
16792SOL    HW256340   6.915  10.168   5.945  1.0631  2.2998 -2.5821
16793SOL     OW56341   5.946  10.923   1.879 -0.3359 -0.4289  0.3870
16793SOL    HW156342   5.969  10.891   1.791 -1.5406 -0.2057 -0.0278
16793SOL    HW256343   5.939  10.845   1.933 -3.6501 -1.0479 -0.7043
16794SOL     OW56344  10.832   5.942   1.092 -0.0349 -0.0244 -0.3188
16794SOL    HW156345  10.809   5.850   1.100 -2.6356  0.6790  1.8864
16794SOL    HW256346  10.914   5.950   1.141 -0.4661 -0.9868  0.6090
16795SOL     OW56347   1.894   3.542   1.770 -0.4757 -0.9197  0.4254
16795SOL    HW156348   1.874   3.554   1.677 -0.4853  1.1983  0.6583
16795SOL    HW256349   1.978   3.497   1.771 -0.4707 -0.9555 -0.5946
16796SOL     OW56350   3.999   7.044   8.421 -0.3987 -0.0937  0.3310
16796SOL    HW156351   3.962   7.067   8.336  0.1105 -0.2671  0.0608
16796SOL    HW256352   3.923   7.028   8.476 -0.7932  1.8382  0.4369
16797SOL     OW56353   9.665   6.381  11.508 -0.0579 -0.4883 -1.0091
16797SOL    HW156354   9.749   6.417  11.537 -1.5899  3.8709 -1.2494
16797SOL    HW256355   9.668   6.389  11.413 -0.9212  0.2471 -0.9844
16798SOL     OW56356   6.953   9.210   5.331  0.0799 -0.8520  0.0188
16798SOL    HW156357   6.927   9.185   5.242 -2.3989  0.9616  0.1481
16798SOL    HW256358   6.882   9.178   5.386  1.4541 -1.6894  1.3835
16799SOL     OW56359   2.472   7.226   4.229  0.0932  0.5774  0.2307
16799SOL    HW156360   2.471   7.213   4.134  1.0304  0.6364  0.2043
16799SOL    HW256361   2.400   7.287   4.245 -0.2238  0.3851 -0.4113
16800SOL     OW56362   2.216   0.981   3.862  0.5396  0.0491 -0.3875
16800SOL    HW156363   2.261   1.005   3.781  0.3840  1.5773 -0.0507
16800SOL    HW256364   2.248   1.043   3.927 -0.3416 -0.2933  0.4086
16801SOL     OW56365   4.570  12.101   0.146 -0.7791 -0.0182 -0.2500
16801SOL    HW156366   4.635  12.153   0.193  1.0654 -1.9908 -0.4684
16801SOL    HW256367   4.537  12.160   0.078  1.1650  0.9426 -0.4450
16802SOL     OW56368   7.465   2.420   9.676  0.2590  0.3610 -0.1389
16802SOL    HW156369   7.512   2.357   9.621 -0.5718 -0.7773  0.3974
16802SOL    HW256370   7.533   2.472   9.718  0.9822 -0.2461 -0.5358
16803SOL     OW56371  11.770   5.680   0.175 -0.5009 -0.1805 -0.4709
16803SOL    HW156372  11.807   5.609   0.124  0.5398 -0.7675  1.0351
16803SOL    HW256373  11.738   5.742   0.110  1.3654 -0.5749 -1.8531
16804SOL     OW56374   1.633   1.160   2.927 -0.7209 -0.2950  0.0201
16804SOL    HW156375   1.553   1.198   2.889 -1.3662 -1.1386  0.5125
16804SOL    HW256376   1.601   1.098   2.993  0.3611  0.7251  1.5704
16805SOL     OW56377   6.702   3.191   2.040 -0.0395 -0.3490 -0.3610
16805SOL    HW156378   6.674   3.134   1.969  0.6121  0.3332 -1.1961
16805SOL    HW256379   6.719   3.275   1.997  2.0820 -0.3919  0.2758
16806SOL     OW56380  11.643   2.128   2.430 -0.1265 -0.4492  0.4344
16806SOL    HW156381  11.700   2.052   2.438  1.6189  0.8317  0.6350
16806SOL    HW256382  11.699   2.203   2.448 -1.5957  0.9731 -0.5908
16807SOL     OW56383   8.065   4.335   1.718  0.6820  0.2407  0.0422
16807SOL    HW156384   8.133   4.332   1.650 -0.1549 -2.0190 -0.7755
16807SOL    HW256385   7.988   4.295   1.677 -0.6586  1.2151  1.5027
16808SOL     OW56386  11.551   3.986   0.733  0.6222  0.6433  0.0003
16808SOL    HW156387  11.468   3.962   0.774  0.2710 -0.1171 -1.1049
16808SOL    HW256388  11.593   3.902   0.712 -0.4662  0.8106 -3.6216
16809SOL     OW56389   8.682   7.252   0.748 -0.7202  0.2834 -0.3331
16809SOL    HW156390   8.746   7.182   0.762  0.2739  0.8138 -2.0134
16809SOL    HW256391   8.636   7.259   0.832 -0.2028 -1.7188  0.1660
16810SOL     OW56392   8.151   2.942   5.479  0.0070  0.1141  0.2579
16810SOL    HW156393   8.129   3.026   5.520  1.3412  1.3075 -1.3509
16810SOL    HW256394   8.066   2.904   5.457 -0.7161 -0.0042  2.8645
16811SOL     OW56395   2.025   9.871  10.770 -0.3487  0.0577 -0.5002
16811SOL    HW156396   1.976   9.799  10.810  1.1909 -0.9102 -0.2602
16811SOL    HW256397   2.034   9.845  10.678  1.8518 -1.0832 -0.0339
16812SOL     OW56398   6.282  12.299   2.793  0.3991  0.1880 -0.1273
16812SOL    HW156399   6.312  12.289   2.883  0.9721 -0.2691 -0.3650
16812SOL    HW256400   6.353  12.264   2.739 -0.8128 -1.5994 -0.6871
16813SOL     OW56401  12.059   3.556  10.415  0.3504  0.0600  0.0616
16813SOL    HW156402  12.147   3.592  10.421  0.2499  0.3895 -0.4370
16813SOL    HW256403  12.051   3.524  10.325  0.1834 -0.5532  0.2864
16814SOL     OW56404   7.916   6.978   6.064 -0.6788 -0.6850  0.5222
16814SOL    HW156405   7.901   6.886   6.082 -3.0374 -0.5622 -0.4313
16814SOL    HW256406   7.886   7.024   6.143 -2.0682 -0.6333 -0.0094
16815SOL     OW56407   6.532   1.228   3.648 -0.1827  0.3219 -0.8870
16815SOL    HW156408   6.588   1.217   3.725  0.6183  1.2565 -1.3065
16815SOL    HW256409   6.446   1.250   3.683  0.3497  1.4719 -0.2362
16816SOL     OW56410   3.309   0.242   3.406  0.6507  0.3579  0.6880
16816SOL    HW156411   3.258   0.288   3.473  0.7418  0.0289  0.9832
16816SOL    HW256412   3.376   0.306   3.379 -1.0231  1.4996 -1.0559
16817SOL     OW56413  12.454   5.158   1.779  0.3693 -0.0077 -0.5118
16817SOL    HW156414  12.502   5.144   1.698  1.9812 -0.2441  0.4493
16817SOL    HW256415  12.520   5.186   1.842 -0.9287  0.6743  0.6061
16818SOL     OW56416   5.435   5.247   7.150 -0.5241 -0.1313 -0.2990
16818SOL    HW156417   5.488   5.262   7.071  0.6538  0.2524  0.5417
16818SOL    HW256418   5.469   5.165   7.186 -0.1612  0.3758  0.5187
16819SOL     OW56419   7.513   7.697   4.408 -0.3236 -0.2613 -0.0899
16819SOL    HW156420   7.467   7.779   4.390  0.1421  0.4812  1.8109
16819SOL    HW256421   7.605   7.721   4.412 -0.0222 -1.1941 -1.0244
16820SOL     OW56422   2.358   8.987   6.395 -0.2729  0.9134  0.1360
16820SOL    HW156423   2.275   8.968   6.350 -0.5743 -0.6037  1.2433
16820SOL    HW256424   2.390   9.067   6.354 -1.4108  0.5627 -1.5337
16821SOL     OW56425   9.750  11.900   0.140 -0.5476  0.1486 -0.0734
16821SOL    HW156426   9.762  11.980   0.090  0.9267 -0.0210 -0.0620
16821SOL    HW256427   9.725  11.834   0.075  1.7634 -0.1669 -0.7309
16822SOL     OW56428  10.893  11.001   3.514  0.4295  0.0135  0.6109
16822SOL    HW156429  10.957  10.962   3.455  0.9098  1.3706  0.2168
16822SOL    HW256430  10.878  11.089   3.480 -0.7541  0.1354  1.3867
16823SOL     OW56431   2.693   0.417  11.806  0.3489 -0.5887 -0.5283
16823SOL    HW156432   2.740   0.450  11.883  1.4988  1.6176 -2.0506
16823SOL    HW256433   2.699   0.322  11.814  2.0529 -0.4233  1.1627
16824SOL     OW56434   5.203   2.985  10.718  0.6660  0.1630  0.5730
16824SOL    HW156435   5.172   3.074  10.733 -0.3980 -0.0016 -0.4770
16824SOL    HW256436   5.200   2.975  10.623 -0.6524 -1.4648  0.7482
16825SOL     OW56437   4.148  12.469   8.804 -0.8426 -0.1359  1.1493
16825SOL    HW156438   4.098  12.452   8.724 -0.7134 -0.7144  1.1881
16825SOL    HW256439   4.096  12.534   8.852 -0.1637  1.3835 -0.1109
16826SOL     OW56440   7.891   7.420   2.080  0.0290  0.2762  0.5242
16826SOL    HW156441   7.857   7.509   2.087 -1.3844  0.0970 -2.5020
16826SOL    HW256442   7.825   7.366   2.124  1.2701  0.6862  3.0598
16827SOL     OW56443   6.871   7.113   2.522  0.3093 -0.0010  0.3439
16827SOL    HW156444   6.861   7.068   2.438  3.1828  0.3989 -0.3158
16827SOL    HW256445   6.942   7.066   2.566 -1.6850 -0.7563  3.0407
16828SOL     OW56446   3.479   4.677   5.293  0.4581  0.3264  0.1372
16828SOL    HW156447   3.416   4.700   5.225  1.3501  0.5725 -0.6353
16828SOL    HW256448   3.524   4.600   5.259 -1.2116 -1.5048  1.8660
16829SOL     OW56449  11.786  12.101   9.988 -0.3696  0.2722 -0.1257
16829SOL    HW156450  11.723  12.128   9.921 -0.4518  0.9367  0.2112
16829SOL    HW256451  11.758  12.147  10.067 -0.3502 -0.6067  0.4044
16830SOL     OW56452   7.101   0.794   4.115  0.1241  0.6046  0.3085
16830SOL    HW156453   7.185   0.752   4.095  0.0412  0.5820  0.0039
16830SOL    HW256454   7.125   0.883   4.142  0.1304  1.2535 -1.6855
16831SOL     OW56455   9.083   5.440   8.721 -0.6154  0.5153  0.3219
16831SOL    HW156456   9.041   5.464   8.638 -0.5384  3.0284  0.9164
16831SOL    HW256457   9.177   5.450   8.704 -0.5780  0.6621  0.6001
16832SOL     OW56458  11.021   8.267   2.603 -0.4684 -0.1384  0.1723
16832SOL    HW156459  10.948   8.219   2.641 -0.0418 -1.1328 -0.2223
16832SOL    HW256460  11.007   8.262   2.509  0.6811 -1.3403  0.0288
16833SOL     OW56461   6.550  11.016   2.690  0.5001  0.5628  0.3470
16833SOL    HW156462   6.563  11.095   2.743  0.8758  1.7184 -1.3566
16833SOL    HW256463   6.638  10.985   2.669  0.4548  1.4153 -1.3364
16834SOL     OW56464   1.584   4.810   3.550  0.1827 -0.3351  0.2078
16834SOL    HW156465   1.602   4.880   3.487 -0.0280 -0.4712 -0.0039
16834SOL    HW256466   1.492   4.787   3.535  0.7227 -1.8814 -0.9479
16835SOL     OW56467   7.081   4.851  11.891 -0.5244 -1.1037  0.3429
16835SOL    HW156468   7.100   4.888  11.977 -0.5451  0.2626 -0.2001
16835SOL    HW256469   7.159   4.870  11.839 -2.4358  3.3342 -1.5134
16836SOL     OW56470  12.283   4.439   3.160 -0.3180 -0.0695 -0.2841
16836SOL    HW156471  12.222   4.473   3.095 -0.2869 -0.5369 -0.5581
16836SOL    HW256472  12.228   4.415   3.234 -0.4640 -0.4551 -0.5165
16837SOL     OW56473  10.184   0.934   4.706 -0.2602 -0.5364  0.1268
16837SOL    HW156474  10.253   0.995   4.679 -1.2975  0.5236 -0.2340
16837SOL    HW256475  10.165   0.958   4.797 -0.7490 -0.2242 -0.0520
16838SOL     OW56476  12.429   7.663   0.460 -0.1480  0.9163  0.2965
16838SOL    HW156477  12.461   7.730   0.520  2.0635  0.1505  0.0670
16838SOL    HW256478  12.481   7.675   0.380  0.1409 -0.8810  0.1648
16839SOL     OW56479   3.793   0.047   6.798 -0.1363  0.1178 -0.2370
16839SOL    HW156480   3.804   0.141   6.814  1.2883 -0.0161 -0.3081
16839SOL    HW256481   3.772   0.010   6.884 -1.0369  0.5340 -0.2687
16840SOL     OW56482   0.928   4.057   7.841  0.0300  0.0977  0.2942
16840SOL    HW156483   0.928   4.147   7.808 -0.2830  0.6858  1.8123
16840SOL    HW256484   0.845   4.048   7.888  0.3710 -0.7483  0.7642
16841SOL     OW56485   9.382   6.756   2.276 -0.0983 -0.3148 -0.0276
16841SOL    HW156486   9.331   6.675   2.278  0.5335 -0.7201  0.0274
16841SOL    HW256487   9.403   6.772   2.368 -2.3656  1.3249  0.2954
16842SOL     OW56488   7.050   2.356   3.303 -0.2806 -0.0602  0.1549
16842SOL    HW156489   7.010   2.269   3.307 -0.2696 -0.0498  0.5899
16842SOL    HW256490   7.143   2.340   3.290 -0.1465 -0.1495  1.1114
16843SOL     OW56491   3.012   3.685  10.890  0.1918 -0.2909 -0.3772
16843SOL    HW156492   3.004   3.776  10.861  1.3694 -0.3455 -0.9607
16843SOL    HW256493   2.948   3.676  10.961 -0.4375  0.7856 -0.7823
16844SOL     OW56494  10.534  11.232   4.564 -0.1816 -0.3051  0.2657
16844SOL    HW156495  10.572  11.212   4.649 -0.2495  0.5154  0.4954
16844SOL    HW256496  10.455  11.282   4.583  0.0242  0.2534 -0.2746
16845SOL     OW56497   6.763   2.463  10.736  0.2230  0.5845 -0.1553
16845SOL    HW156498   6.844   2.421  10.763 -0.3413 -1.4667 -1.4014
16845SOL    HW256499   6.790   2.529  10.672  0.9764  0.4231 -0.0118
16846SOL     OW56500   9.661  10.427   8.905 -0.1854  0.2368  0.9931
16846SOL    HW156501   9.597  10.438   8.834  1.1838 -0.7839 -0.4761
16846SOL    HW256502   9.698  10.514   8.917  1.7023 -0.0495 -1.7578
16847SOL     OW56503   8.730   3.682   4.563 -0.4290  0.0689 -0.0062
16847SOL    HW156504   8.787   3.640   4.500 -0.7844  1.5076 -1.3516
16847SOL    HW256505   8.641   3.655   4.538 -0.5160 -0.0538  0.4267
16848SOL     OW56506   2.314   0.133   9.078  0.5395 -0.1512 -0.6203
16848SOL    HW156507   2.349   0.190   9.146  1.0766  0.2043 -1.1758
16848SOL    HW256508   2.267   0.193   9.019  0.2483 -0.4230 -0.6666
16849SOL     OW56509   1.167   9.996   0.976 -0.3181 -0.6080  0.0813
16849SOL    HW156510   1.144   9.944   1.053  1.0473 -1.4434 -0.0393
16849SOL    HW256511   1.128  10.082   0.993 -0.4686 -0.9238  1.4783
16850SOL     OW56512  12.039  10.470  10.213 -0.7090  0.1387 -0.5419
16850SOL    HW156513  11.953  10.483  10.173 -0.3722  0.6417 -1.1012
16850SOL    HW256514  12.099  10.523  10.161  0.4118 -2.1977 -1.7799
16851SOL     OW56515   3.769   2.598  10.156  0.1376 -0.5409  0.1758
16851SOL    HW156516   3.817   2.678  10.133  1.6607 -1.1770  1.0303
16851SOL    HW256517   3.694   2.598  10.097  0.6051  1.0458 -0.4753
16852SOL     OW56518   4.198  11.232   3.219  0.0355 -0.3516  0.1871
16852SOL    HW156519   4.115  11.191   3.246  0.0460 -0.9531 -0.6419
16852SOL    HW256520   4.249  11.239   3.300 -0.4814 -0.7867  0.5602
16853SOL     OW56521   0.193   6.741  11.767 -0.0511 -0.8506  0.2518
16853SOL    HW156522   0.110   6.694  11.774 -0.6263 -0.1830 -1.4109
16853SOL    HW256523   0.170   6.833  11.781  0.0387 -0.4392 -1.9213
16854SOL     OW56524   1.777   3.453  12.237  0.0958  0.4202 -0.0218
16854SOL    HW156525   1.847   3.456  12.172  0.0942  1.5587  0.0174
16854SOL    HW256526   1.808   3.507  12.310  0.1423 -0.9139  0.9976
16855SOL     OW56527   5.469   0.067   1.787  0.5572 -0.1517  0.5486
16855SOL    HW156528   5.430   0.102   1.867  0.6818 -1.2308  1.0925
16855SOL    HW256529   5.557   0.040   1.812  0.5641 -0.5936  0.0705
16856SOL     OW56530   6.630   4.121   3.637 -0.1523  0.3190 -0.1648
16856SOL    HW156531   6.723   4.145   3.641  0.4907 -1.8232 -1.2170
16856SOL    HW256532   6.617   4.064   3.713 -0.7159  0.8737  0.1642
16857SOL     OW56533   8.060   4.418   0.526 -0.1749  0.7970 -0.0256
16857SOL    HW156534   7.995   4.349   0.541 -0.5931  1.4706  1.5082
16857SOL    HW256535   8.139   4.371   0.501 -1.0311 -0.0889 -1.1757
16858SOL     OW56536   7.111   6.359   5.322 -0.4933 -0.0592  0.5492
16858SOL    HW156537   7.023   6.356   5.286 -0.9779 -0.6958  1.7226
16858SOL    HW256538   7.139   6.450   5.310 -1.6773  0.3876  0.9919
16859SOL     OW56539   3.245   7.894   0.641 -0.4968  0.0961 -0.1180
16859SOL    HW156540   3.161   7.926   0.674  1.0618  3.7910  0.7427
16859SOL    HW256541   3.222   7.843   0.563 -3.5094  0.7364  0.2042
16860SOL     OW56542  12.079   3.882   2.220  0.1895  0.0029 -0.6711
16860SOL    HW156543  12.111   3.804   2.265  1.2716  0.7652 -0.0536
16860SOL    HW256544  12.089   3.862   2.127 -1.6343 -1.4126 -0.6044
16861SOL     OW56545  11.052   9.198  11.652  0.6463 -0.0787 -0.2835
16861SOL    HW156546  10.971   9.234  11.617 -0.6660 -2.1996  0.3783
16861SOL    HW256547  11.058   9.110  11.613  1.7048 -0.6019  0.9800
16862SOL     OW56548   3.540   8.796   7.296 -0.0680 -0.1807  0.2046
16862SOL    HW156549   3.522   8.703   7.305  0.9892 -0.4634 -0.3718
16862SOL    HW256550   3.591   8.803   7.215 -0.2267  0.9131  0.1755
16863SOL     OW56551   5.899   5.941   0.043  0.1619 -0.4346  0.3967
16863SOL    HW156552   5.870   5.867  -0.010 -2.1942  0.7672 -0.0980
16863SOL    HW256553   5.955   5.992  -0.016 -1.2911  0.1401 -0.5533
16864SOL     OW56554   1.573  10.966   4.231 -0.3327 -0.8371 -0.2562
16864SOL    HW156555   1.478  10.955   4.235 -0.5194  0.1231 -1.4563
16864SOL    HW256556   1.608  10.877   4.236 -1.2754 -1.1820  0.4909
16865SOL     OW56557   6.123   7.779  11.618  0.1678  0.4168 -0.0609
16865SOL    HW156558   6.219   7.772  11.613  0.0955 -0.6690 -0.0738
16865SOL    HW256559   6.097   7.813  11.532  0.5508  0.9443  0.0227
16866SOL     OW56560   0.345   9.308   1.255  0.5536  0.3490 -0.3836
16866SOL    HW156561   0.392   9.277   1.178  1.0751  1.3144 -0.4536
16866SOL    HW256562   0.305   9.390   1.228  0.7705  0.7150  0.3807
16867SOL     OW56563  11.232  12.337  11.813  0.3059 -0.1215  0.2458
16867SOL    HW156564  11.286  12.378  11.746 -2.6901  1.4855 -1.4360
16867SOL    HW256565  11.243  12.392  11.890 -0.2989  1.2990 -0.6461
16868SOL     OW56566   8.765   1.456  11.595 -0.4983 -0.0283 -0.5351
16868SOL    HW156567   8.791   1.547  11.608  0.4671 -0.4238  0.4544
16868SOL    HW256568   8.730   1.429  11.680  0.0949 -0.8505 -0.5424
16869SOL     OW56569   9.556   6.046   9.114 -0.5885 -0.0108  0.0677
16869SOL    HW156570   9.466   6.071   9.094 -0.6646 -0.3598 -0.0305
16869SOL    HW256571   9.548   5.988   9.189 -0.5089 -0.6365 -0.4065
16870SOL     OW56572  11.621   2.889   3.088 -0.2263  0.2593  0.2125
16870SOL    HW156573  11.621   2.957   3.155 -1.4024  0.1180  0.3912
16870SOL    HW256574  11.530   2.857   3.087 -0.5435  1.0185 -2.2339
16871SOL     OW56575  12.433   4.715   9.246  0.0302 -0.1946 -0.0074
16871SOL    HW156576  12.413   4.784   9.184 -0.6837  0.8803  1.3750
16871SOL    HW256577  12.359   4.715   9.307  0.1476 -1.9986  0.1888
16872SOL     OW56578   1.320   7.554   6.164 -0.0994 -0.2407  0.4634
16872SOL    HW156579   1.270   7.514   6.235 -0.1996  0.1057  0.5889
16872SOL    HW256580   1.326   7.485   6.098 -0.0780 -0.5376  0.7701
16873SOL     OW56581   7.052   3.589   1.670 -0.0713 -0.3141 -0.2570
16873SOL    HW156582   7.012   3.623   1.750 -1.0804 -1.4851 -0.2439
16873SOL    HW256583   7.129   3.540   1.701  0.9404  1.2166 -0.2214
16874SOL     OW56584  10.877   5.149   4.211 -0.1137  0.5099  0.0036
16874SOL    HW156585  10.789   5.125   4.241 -1.0246  0.5976 -2.3472
16874SOL    HW256586  10.861   5.204   4.134  2.0219  0.0295 -0.8421
16875SOL     OW56587   7.168   4.117   9.096 -0.0323 -0.0423 -0.0002
16875SOL    HW156588   7.160   4.161   9.011  2.0906 -0.3900 -0.4461
16875SOL    HW256589   7.126   4.032   9.084  0.3379 -0.1283 -0.7480
16876SOL     OW56590   7.901   3.456   0.907 -0.9571 -0.8927 -0.0025
16876SOL    HW156591   7.910   3.408   0.989  1.8626  0.2570  0.4749
16876SOL    HW256592   7.946   3.402   0.842 -2.1146 -1.2155 -0.5563
16877SOL     OW56593   9.875   7.159   6.283 -0.1916 -0.8943  0.1745
16877SOL    HW156594   9.881   7.117   6.369  0.0010 -0.9310  0.1425
16877SOL    HW256595   9.923   7.241   6.292 -1.5584 -0.1077  0.5831
16878SOL     OW56596   9.695   5.417   2.218  0.0227  0.5421  0.2487
16878SOL    HW156597   9.721   5.446   2.305 -0.9537 -1.8145  1.4247
16878SOL    HW256598   9.762   5.353   2.193  0.5419  1.5223 -0.9684
16879SOL     OW56599  10.757   6.658   2.431 -0.2928  0.1569  0.3445
16879SOL    HW156600  10.832   6.616   2.388 -0.2965 -0.1093  0.5963
16879SOL    HW256601  10.769   6.752   2.413  1.5879  0.4657  2.6139
16880SOL     OW56602   7.978   8.243   3.281 -0.2117  0.1902  0.0256
16880SOL    HW156603   7.897   8.195   3.296 -1.0859  1.7196  0.4900
16880SOL    HW256604   8.033   8.183   3.231 -1.4509 -1.0511  0.0870
16881SOL     OW56605   1.503   8.329  11.532 -0.1331  0.0727 -0.3529
16881SOL    HW156606   1.552   8.304  11.611 -0.8485 -0.2705 -0.0165
16881SOL    HW256607   1.568   8.322  11.462  0.3750 -0.1284  0.1229
16882SOL     OW56608  12.446   3.117   3.973  0.2364 -0.2434 -0.5946
16882SOL    HW156609  12.471   3.141   4.062  1.3325 -2.5193 -0.2128
16882SOL    HW256610  12.375   3.177   3.950  0.4835  0.9116  1.4978
16883SOL     OW56611   3.956   4.534   1.523  0.3685  0.1464  0.0814
16883SOL    HW156612   3.898   4.475   1.571 -0.5509  0.4725 -0.5989
16883SOL    HW256613   4.044   4.503   1.544 -0.0789 -1.4436 -0.2278
16884SOL     OW56614  12.356   0.465  11.569 -0.5393  0.3673 -0.0987
16884SOL    HW156615  12.409   0.544  11.563 -0.9702  0.6017 -0.8304
16884SOL    HW256616  12.372   0.433  11.658  1.2854  0.1045 -0.4825
16885SOL     OW56617  10.209  11.009   8.189 -0.1979 -0.1726 -0.1575
16885SOL    HW156618  10.223  11.069   8.262 -1.2174  0.3390 -0.3747
16885SOL    HW256619  10.173  10.930   8.230 -3.8123  1.1927 -0.3287
16886SOL     OW56620   8.780   8.720   3.599 -0.0198  0.6165 -0.0406
16886SOL    HW156621   8.853   8.777   3.620  0.9025 -1.1385  1.7745
16886SOL    HW256622   8.714   8.738   3.666  0.0171  0.0353  0.1618
16887SOL     OW56623  10.827   5.895   4.713 -0.0589  0.3692 -0.3021
16887SOL    HW156624  10.813   5.871   4.622  3.7392 -0.7505 -0.7271
16887SOL    HW256625  10.833   5.990   4.713 -1.0636  0.4468 -0.9976
16888SOL     OW56626  11.866   0.927   1.980 -0.4286 -0.1719 -0.2224
16888SOL    HW156627  11.827   1.014   1.992 -2.2254 -0.9209 -0.2649
16888SOL    HW256628  11.792   0.867   1.988  0.8136 -1.7243  0.0500
16889SOL     OW56629   7.278   8.922   6.914  0.3451 -0.4859 -0.2074
16889SOL    HW156630   7.241   8.844   6.956  1.0433 -0.8969 -0.3312
16889SOL    HW256631   7.203   8.978   6.896  0.0279 -0.2863  1.6186
16890SOL     OW56632   4.307  12.034   9.104  0.0736 -0.0138  0.2161
16890SOL    HW156633   4.213  12.037   9.120  0.2956 -1.2757  2.1181
16890SOL    HW256634   4.317  12.057   9.012 -1.9516  1.7002  0.3545
16891SOL     OW56635   7.013   0.189   5.505  0.1651  0.1006 -0.1570
16891SOL    HW156636   7.062   0.113   5.537  1.9017  1.7227  1.2538
16891SOL    HW256637   7.003   0.173   5.411  0.8762 -1.6547  0.0369
16892SOL     OW56638   3.284   4.680   1.411 -0.6363  0.1188 -0.0363
16892SOL    HW156639   3.256   4.597   1.373  0.8379  0.2599 -1.5230
16892SOL    HW256640   3.326   4.727   1.339 -1.6657  2.2971  0.6895
16893SOL     OW56641   4.536  10.115  11.887 -0.3892 -0.6097 -0.2080
16893SOL    HW156642   4.499  10.203  11.889 -1.8241 -1.1556 -1.1757
16893SOL    HW256643   4.563  10.098  11.977 -0.6602  0.5845  0.1155
16894SOL     OW56644  11.323  10.617   4.768  0.0847  0.1790  0.4229
16894SOL    HW156645  11.228  10.631   4.760 -0.0243 -0.3916  0.6460
16894SOL    HW256646  11.331  10.528   4.802  0.7193  0.0629 -0.0134
16895SOL     OW56647  11.959   2.319   7.931  0.8137  0.3039 -0.1945
16895SOL    HW156648  12.054   2.305   7.938  0.9800 -1.2531 -3.6192
16895SOL    HW256649  11.950   2.411   7.905  1.3249  0.5715  0.5370
16896SOL     OW56650   2.423   8.956  10.249  0.6213 -0.1003 -0.7622
16896SOL    HW156651   2.403   9.025  10.186  1.1798  0.4813 -0.3163
16896SOL    HW256652   2.514   8.972  10.275  0.3907 -0.2979  0.2273
16897SOL     OW56653   7.638   5.024   0.667 -0.3071  0.2388  0.2614
16897SOL    HW156654   7.549   5.029   0.633 -0.6467 -0.8719  0.9558
16897SOL    HW256655   7.663   4.932   0.658  1.0623  0.6508 -0.6070
16898SOL     OW56656   0.401   7.037   6.200  0.2081 -0.0286  0.3405
16898SOL    HW156657   0.459   7.055   6.126 -0.7647  0.9557 -0.2071
16898SOL    HW256658   0.446   7.076   6.275  0.3960  0.5004 -0.0378
16899SOL     OW56659   7.199   6.909   6.177 -0.2071 -0.2694  0.5519
16899SOL    HW156660   7.167   6.823   6.203 -0.1724  0.1607  2.1139
16899SOL    HW256661   7.279   6.921   6.227  0.5121  0.1293 -0.6659
16900SOL     OW56662  11.582   1.450   1.999 -0.2264 -0.0467  0.2306
16900SOL    HW156663  11.578   1.440   1.904 -1.4666 -0.2085  0.2888
16900SOL    HW256664  11.500   1.492   2.022  0.0182 -0.1079  1.2476
16901SOL     OW56665   0.746   3.487   3.091  0.2921  0.6904 -0.6218
16901SOL    HW156666   0.812   3.428   3.055 -0.3069  0.6647 -1.6931
16901SOL    HW256667   0.684   3.501   3.020 -0.7681  0.8622  0.3104
16902SOL     OW56668  11.471   5.814   4.407  0.2301  0.1526  0.4030
16902SOL    HW156669  11.557   5.811   4.450  0.7157  0.8383 -0.4672
16902SOL    HW256670  11.476   5.891   4.350 -0.5240 -0.4887 -0.5670
16903SOL     OW56671   8.067   0.911   0.611 -0.0700  0.0770  0.6155
16903SOL    HW156672   8.025   0.924   0.526  0.5554 -0.5992  0.1860
16903SOL    HW256673   8.072   0.999   0.649  0.0789  0.4604 -0.2644
16904SOL     OW56674   0.575   4.929  10.258  0.1342  0.1598  0.9824
16904SOL    HW156675   0.555   4.952  10.349  0.2356 -0.8875  1.2844
16904SOL    HW256676   0.613   4.841  10.264  0.4678  0.2280 -0.0416
16905SOL     OW56677   1.039   8.015   9.665 -0.2438 -0.3867  0.3692
16905SOL    HW156678   0.978   7.953   9.625 -0.5630  0.0320  0.1892
16905SOL    HW256679   0.983   8.080   9.708  0.0921 -1.0429  1.8659
16906SOL     OW56680   0.403  10.875   5.611  0.0479  0.2934  0.3382
16906SOL    HW156681   0.430  10.901   5.699 -0.8088 -0.7012  0.9194
16906SOL    HW256682   0.485  10.872   5.560  0.4906  1.3566  0.9480
16907SOL     OW56683   4.631  10.480   0.014 -0.4756 -0.2795  0.7737
16907SOL    HW156684   4.680  10.553   0.053 -0.8374  0.2450  0.2510
16907SOL    HW256685   4.696  10.410   0.006  0.0780  0.2448  0.5463
16908SOL     OW56686   1.500   5.772   9.652  0.5072 -0.5680 -0.2756
16908SOL    HW156687   1.589   5.747   9.631  0.8020 -0.6556  0.9963
16908SOL    HW256688   1.453   5.767   9.569  2.2567  2.1299 -1.5923
16909SOL     OW56689   1.367   2.304   4.688 -0.1907  0.1350 -0.2525
16909SOL    HW156690   1.337   2.241   4.622 -1.6564  1.5283 -0.9762
16909SOL    HW256691   1.301   2.374   4.686  0.4787  0.8763  1.7254
16910SOL     OW56692   6.778   9.254  12.225 -0.3100 -0.0109 -0.1962
16910SOL    HW156693   6.692   9.212  12.226 -0.8126  1.0000 -0.2791
16910SOL    HW256694   6.767   9.334  12.275 -0.4295  2.0257 -3.1934
16911SOL     OW56695   4.447   1.565   5.972  0.2226  0.0301 -0.0982
16911SOL    HW156696   4.370   1.592   6.023  1.0187  2.4718 -0.0576
16911SOL    HW256697   4.476   1.484   6.014 -1.9713 -0.6532  0.2353
16912SOL     OW56698   4.262  12.381   1.876 -0.1087 -0.1956  0.6777
16912SOL    HW156699   4.226  12.404   1.791  1.4216  0.8281  0.2706
16912SOL    HW256700   4.201  12.418   1.939 -0.2080  0.8113  0.0063
16913SOL     OW56701   8.790   1.274   1.523  0.2902  0.2242  0.1341
16913SOL    HW156702   8.816   1.258   1.613 -1.0221  0.1236  0.5193
16913SOL    HW256703   8.697   1.251   1.521  0.0219  1.3205 -0.9598
16914SOL     OW56704   6.336  10.302   9.807  0.0005 -0.3915 -0.1291
16914SOL    HW156705   6.332  10.291   9.902  2.2967  0.1309  0.0836
16914SOL    HW256706   6.358  10.215   9.774 -0.6479 -0.5381 -0.1987
16915SOL     OW56707   3.109   4.464   5.212  0.1817 -0.0117  0.6412
16915SOL    HW156708   3.087   4.512   5.292 -1.0500 -2.3524  1.7952
16915SOL    HW256709   3.204   4.452   5.217  0.0515 -0.6717  2.1189
16916SOL     OW56710   0.982   3.847   6.313 -0.1298  0.0203  0.7534
16916SOL    HW156711   0.971   3.767   6.365 -0.0865 -0.7635 -0.4141
16916SOL    HW256712   0.901   3.896   6.329 -1.1340 -1.2481 -0.1481
16917SOL     OW56713  11.281   6.590   1.617 -0.0672  0.3203  0.3492
16917SOL    HW156714  11.304   6.652   1.686  0.4466  1.2185 -0.6069
16917SOL    HW256715  11.364   6.546   1.596  0.6126  2.4715 -2.0255
16918SOL     OW56716  11.747   1.720   9.090 -0.0423  0.2078  0.1761
16918SOL    HW156717  11.796   1.738   9.009 -1.6325  1.2637 -0.6044
16918SOL    HW256718  11.777   1.633   9.117 -1.2165 -1.3513 -2.9468
16919SOL     OW56719   8.094  11.408   7.339 -0.0192 -0.3078  0.5876
16919SOL    HW156720   8.056  11.394   7.252 -1.5882  2.1636  0.7686
16919SOL    HW256721   8.115  11.320   7.371  0.0328 -1.3258 -2.0167
16920SOL     OW56722   1.634   7.387   8.079  0.1345  0.1902  0.2391
16920SOL    HW156723   1.548   7.353   8.054  0.0840  0.4989 -0.0068
16920SOL    HW256724   1.681   7.398   7.997  0.2712  0.3907  0.3432
16921SOL     OW56725  11.179   5.032   3.347 -0.0537  0.4447  0.5326
16921SOL    HW156726  11.147   5.086   3.419 -0.1448  2.9332 -1.2314
16921SOL    HW256727  11.100   5.009   3.297  0.2932  1.7089 -0.6512
16922SOL     OW56728   9.667   8.217   2.550  0.0887 -0.1101  0.1266
16922SOL    HW156729   9.754   8.202   2.513  0.2867  0.7848  0.2126
16922SOL    HW256730   9.626   8.278   2.490 -0.9015 -1.3551 -0.5067
16923SOL     OW56731   7.431  10.379   0.297 -0.1606  0.1162  0.2176
16923SOL    HW156732   7.451  10.364   0.204 -0.9316 -0.3237  0.1122
16923SOL    HW256733   7.348  10.333   0.311  0.4128 -0.6214  1.3633
16924SOL     OW56734   7.061   0.775   4.943 -0.0305  0.0927  0.0034
16924SOL    HW156735   7.138   0.824   4.969  0.7172 -0.6849 -0.6774
16924SOL    HW256736   6.999   0.841   4.912  0.7695  0.6426 -0.4479
16925SOL     OW56737   8.435   0.077   8.708  0.5371  0.1497  0.3217
16925SOL    HW156738   8.511   0.027   8.736  2.1286  2.4052  0.2837
16925SOL    HW256739   8.439   0.076   8.613 -1.2900 -2.2511  0.1879
16926SOL     OW56740  12.343   8.480   1.383  0.8953  0.3142 -0.2735
16926SOL    HW156741  12.304   8.511   1.465 -1.8543 -1.0119 -0.9418
16926SOL    HW256742  12.410   8.418   1.410 -1.1834 -1.4867  1.0732
16927SOL     OW56743  10.267   4.416   0.589 -0.5976 -0.0320  0.1947
16927SOL    HW156744  10.184   4.372   0.573 -1.2821  1.4154 -0.4093
16927SOL    HW256745  10.315   4.357   0.648 -0.9792 -2.0969 -1.4321
16928SOL     OW56746   4.879   8.468   2.373  0.1573  0.0631  0.8038
16928SOL    HW156747   4.790   8.482   2.407 -0.9951  1.2110 -2.3109
16928SOL    HW256748   4.876   8.503   2.284  2.9470 -2.4775 -0.4641
16929SOL     OW56749   0.269   1.075   9.753 -0.3829 -0.8726  0.7380
16929SOL    HW156750   0.194   1.023   9.727 -0.3703  0.2505 -1.9818
16929SOL    HW256751   0.298   1.117   9.671  2.2891 -0.1194  1.9522
16930SOL     OW56752   8.622   0.677   7.447  0.2718 -0.3538  0.1289
16930SOL    HW156753   8.709   0.667   7.409  0.3737 -2.3686  0.8016
16930SOL    HW256754   8.563   0.671   7.372  0.6506  0.0444 -0.2102
16931SOL     OW56755   7.884   8.092   4.318  0.4500 -0.3090  0.4536
16931SOL    HW156756   7.953   8.090   4.383  0.6364 -0.6418  0.2483
16931SOL    HW256757   7.838   8.175   4.333  1.2106  0.1546  0.2551
16932SOL     OW56758   5.936  11.724   7.982 -0.1288 -0.0468  1.0854
16932SOL    HW156759   5.935  11.812   7.945 -1.5215 -0.3655  0.2974
16932SOL    HW256760   5.902  11.735   8.071 -1.8087  0.0419  0.4728
16933SOL     OW56761  10.374   2.556   6.629  0.0899  0.1159 -0.0267
16933SOL    HW156762  10.320   2.479   6.646 -0.2493  0.4713  0.5411
16933SOL    HW256763  10.419   2.536   6.547 -0.5504 -0.3796 -0.2675
16934SOL     OW56764   1.143   2.958   6.555 -0.5826  0.1459 -1.0220
16934SOL    HW156765   1.065   2.918   6.517 -0.0982  0.2675 -2.1814
16934SOL    HW256766   1.112   3.040   6.594 -1.1977 -0.2919 -0.5762
16935SOL     OW56767   0.455   5.282   4.485 -0.0743 -0.2585  0.1272
16935SOL    HW156768   0.481   5.308   4.574 -3.2078 -0.1004  1.1349
16935SOL    HW256769   0.423   5.193   4.495 -0.7230 -0.1297 -0.7840
16936SOL     OW56770   7.393   1.974   4.012 -0.5553 -0.2682  0.3498
16936SOL    HW156771   7.408   1.959   4.105  3.1674 -0.0676 -0.0622
16936SOL    HW256772   7.398   1.887   3.973 -1.3940 -0.2761  0.2579
16937SOL     OW56773   2.503   1.507  11.023  0.3070  0.0960  0.1029
16937SOL    HW156774   2.481   1.576  11.086 -1.1039 -0.3358  0.1157
16937SOL    HW256775   2.504   1.552  10.938 -1.8233 -0.0301 -0.0506
16938SOL     OW56776   8.895   8.222   1.686 -0.4818 -0.2899  0.1560
16938SOL    HW156777   8.933   8.228   1.598 -1.8720  1.2147 -0.3881
16938SOL    HW256778   8.862   8.132   1.691  0.3766 -0.6601 -0.5265
16939SOL     OW56779   7.745   6.445   4.527  0.3431 -0.3637  0.9249
16939SOL    HW156780   7.672   6.459   4.587 -0.3868  2.0053 -0.3802
16939SOL    HW256781   7.806   6.517   4.546 -0.2011  0.8261 -1.5018
16940SOL     OW56782   5.345   3.896   6.940 -0.1169 -0.0909 -0.8663
16940SOL    HW156783   5.394   3.970   6.906 -1.3777  1.1547 -0.0638
16940SOL    HW256784   5.323   3.844   6.862  0.3491  0.6468 -1.5015
16941SOL     OW56785   1.133   7.520   1.783 -0.7027  0.1934 -1.0897
16941SOL    HW156786   1.054   7.482   1.820  1.2231 -2.4577  0.6337
16941SOL    HW256787   1.184   7.445   1.750  1.7272  1.6034 -0.8083
16942SOL     OW56788   4.363   4.220   1.853 -0.7757  0.1240 -0.0853
16942SOL    HW156789   4.438   4.173   1.890  0.7380  3.6360  1.7991
16942SOL    HW256790   4.328   4.271   1.926 -1.6078  2.6179 -2.0860
16943SOL     OW56791   1.297  11.693   0.269  0.3421  0.1291  0.3279
16943SOL    HW156792   1.286  11.673   0.362 -0.5800  0.2458  0.2517
16943SOL    HW256793   1.378  11.745   0.265  0.2532  0.3394  1.0915
16944SOL     OW56794   7.641   2.689   9.420 -0.3513  0.0079  0.0430
16944SOL    HW156795   7.715   2.662   9.367  0.5823 -2.4695  2.3814
16944SOL    HW256796   7.566   2.683   9.361  0.6009 -2.6774 -1.0518
16945SOL     OW56797   2.881   4.340   7.811 -0.1542  0.1272  0.2545
16945SOL    HW156798   2.888   4.343   7.715 -0.6874  1.9868  0.2323
16945SOL    HW256799   2.812   4.276   7.828 -1.0086  0.7825 -0.6743
16946SOL     OW56800   6.127   3.550   0.023  0.0045 -0.2904 -0.4598
16946SOL    HW156801   6.184   3.620   0.055  0.8829 -0.6093 -1.3025
16946SOL    HW256802   6.186   3.479  -0.001 -0.7881 -0.8640 -0.7582
16947SOL     OW56803   6.561   5.102   9.393 -0.0943 -0.0535 -0.4367
16947SOL    HW156804   6.509   5.031   9.431  1.1323 -0.9325 -0.3539
16947SOL    HW256805   6.625   5.124   9.459  1.0934 -0.5578 -1.3824
16948SOL     OW56806  11.609   7.915   3.360 -0.1129  0.1568 -0.0436
16948SOL    HW156807  11.685   7.856   3.370 -0.2041  0.1175  0.4576
16948SOL    HW256808  11.635   7.976   3.291 -0.8710 -1.8121 -2.2044
16949SOL     OW56809   5.196   5.788  12.440 -0.1700  0.1547  0.0441
16949SOL    HW156810   5.199   5.883  12.450 -1.3247  0.2685 -0.4956
16949SOL    HW256811   5.252   5.770  12.364 -1.4862  0.6309 -1.0768
16950SOL     OW56812   5.684   2.735   3.655  0.4417  0.4479  0.6639
16950SOL    HW156813   5.671   2.735   3.560  1.6568  1.4619  0.4690
16950SOL    HW256814   5.735   2.814   3.672 -0.9769  1.0450  2.3669
16951SOL     OW56815   4.807  11.738   2.303  0.4688  0.1989 -0.0428
16951SOL    HW156816   4.856  11.810   2.262  1.4025 -0.4980 -0.1713
16951SOL    HW256817   4.848  11.727   2.389  0.0145  0.1240  0.1707
16952SOL     OW56818   8.224  11.264   9.407  0.6117 -0.0033  0.0248
16952SOL    HW156819   8.220  11.172   9.432  0.9659 -0.1816 -0.5461
16952SOL    HW256820   8.298  11.299   9.458  1.0884 -0.2724 -0.4663
16953SOL     OW56821  11.724   7.152   7.619  0.0175 -0.2207  0.3131
16953SOL    HW156822  11.632   7.176   7.624  0.2002  0.3019  1.2710
16953SOL    HW256823  11.759   7.209   7.550 -0.7300 -1.6618 -1.3334
16954SOL     OW56824   4.751   3.412   8.146 -0.3627 -0.0742  0.0358
16954SOL    HW156825   4.706   3.381   8.068 -0.3677  0.7005 -0.2711
16954SOL    HW256826   4.707   3.366   8.218 -1.2006  0.1630 -0.3122
16955SOL     OW56827   8.845  11.745   4.873 -0.3600  0.0356 -0.3583
16955SOL    HW156828   8.851  11.835   4.841  2.0473  0.5470  1.3322
16955SOL    HW256829   8.921  11.700   4.834 -1.9624 -1.5821 -1.8565
16956SOL     OW56830   4.653   3.085   6.661  0.1715 -0.4668  0.8148
16956SOL    HW156831   4.627   3.073   6.570  1.3583  0.4391  0.3470
16956SOL    HW256832   4.701   3.168   6.663  0.3700 -0.5805  2.2208
16957SOL     OW56833   6.368   3.085   5.043  0.2765 -0.7106  0.2577
16957SOL    HW156834   6.286   3.092   5.091 -0.9158 -0.5159 -1.7118
16957SOL    HW256835   6.412   3.169   5.057  0.1947 -0.8329  1.3576
16958SOL     OW56836   1.479   7.429   3.818  0.5169 -0.2287 -0.9503
16958SOL    HW156837   1.446   7.377   3.744 -0.3491 -0.0378 -0.7162
16958SOL    HW256838   1.409   7.493   3.834  2.3190  2.2706 -2.4509
16959SOL     OW56839   3.330  11.184  11.310 -0.4476 -0.7524  0.3660
16959SOL    HW156840   3.267  11.255  11.323  2.5050  1.7570  2.6516
16959SOL    HW256841   3.359  11.161  11.398  2.0014 -1.4930 -0.5381
16960SOL     OW56842   9.725   4.647   4.837  0.2424 -0.0084  0.6781
16960SOL    HW156843   9.648   4.659   4.781  0.8206 -1.4294 -0.5186
16960SOL    HW256844   9.799   4.670   4.780  0.7568  0.1157  1.3949
16961SOL     OW56845  11.437   7.013   3.876  1.1400 -0.0361 -0.3447
16961SOL    HW156846  11.383   7.085   3.909  2.0788  0.6395 -0.2188
16961SOL    HW256847  11.466   6.967   3.955 -1.6222 -2.2757 -0.4734
16962SOL     OW56848  10.874   4.554   3.108 -0.1413 -0.5147 -0.6892
16962SOL    HW156849  10.940   4.617   3.138 -0.8013 -0.2481  0.2617
16962SOL    HW256850  10.925   4.484   3.067  0.7149 -0.1492 -0.2814
16963SOL     OW56851   5.137   6.992   0.935 -0.1265 -0.3497  0.8933
16963SOL    HW156852   5.099   6.907   0.911 -1.6350  0.0711  1.6825
16963SOL    HW256853   5.138   6.991   1.030 -2.1747  1.3298  0.9979
16964SOL     OW56854   2.130   7.554  12.116  0.1873 -0.2578  0.2833
16964SOL    HW156855   2.040   7.570  12.088  0.7663  1.3298 -0.8045
16964SOL    HW256856   2.183   7.581  12.042  1.6683  1.4329  1.8366
16965SOL     OW56857   6.883   1.244   7.646  0.2654 -0.2231  0.1390
16965SOL    HW156858   6.826   1.195   7.705 -0.8334 -1.5569 -1.8938
16965SOL    HW256859   6.963   1.259   7.696 -0.4973 -1.5023  1.8428
16966SOL     OW56860  11.524  10.225   1.753 -0.5665 -0.1320  0.4409
16966SOL    HW156861  11.478  10.242   1.836  0.2682  0.3021  0.8310
16966SOL    HW256862  11.559  10.310   1.728  1.0864 -0.6696  0.8127
16967SOL     OW56863   8.073   1.461   6.840 -0.3351 -0.2034 -0.4204
16967SOL    HW156864   8.086   1.399   6.912  0.4488 -0.2383 -0.5850
16967SOL    HW256865   8.073   1.547   6.881  2.4288 -0.0270 -0.5779
16968SOL     OW56866   2.765   6.178  11.822 -0.1437  0.5538 -0.8222
16968SOL    HW156867   2.694   6.219  11.871 -0.5793 -0.7314 -0.3625
16968SOL    HW256868   2.843   6.193  11.875 -0.1520  1.4824 -1.0560
16969SOL     OW56869   0.579   7.448   1.912 -0.6239 -0.0389 -0.1001
16969SOL    HW156870   0.557   7.428   1.821  0.7214 -0.8012 -0.2957
16969SOL    HW256871   0.531   7.528   1.932 -1.7594 -0.4395 -1.1398
16970SOL     OW56872   0.809   8.570  10.575  0.1060 -0.4893  0.1519
16970SOL    HW156873   0.863   8.504  10.532  1.3522  0.5782  0.0304
16970SOL    HW256874   0.871   8.625  10.623 -0.7006  1.5606 -1.0189
16971SOL     OW56875  11.592   0.619   4.527 -0.1871  0.1535 -0.2745
16971SOL    HW156876  11.646   0.682   4.481 -0.6948  0.4048 -0.5380
16971SOL    HW256877  11.591   0.541   4.471 -2.3353  1.1000 -1.6763
16972SOL     OW56878   6.875   2.737   5.806 -0.1972 -0.1688  0.5059
16972SOL    HW156879   6.899   2.812   5.751  1.1571  0.8638  2.3824
16972SOL    HW256880   6.782   2.724   5.791 -0.3237  1.5150 -0.3177
16973SOL     OW56881   7.970   6.282  11.041 -0.3868 -0.0732 -0.4664
16973SOL    HW156882   8.003   6.265  11.129 -0.9858  0.6801 -0.0931
16973SOL    HW256883   7.918   6.362  11.049 -1.4611 -0.6646 -1.2461
16974SOL     OW56884  11.088   8.581   7.533 -0.3593 -0.1452 -0.2715
16974SOL    HW156885  11.011   8.582   7.476 -0.6450  0.4199  0.1142
16974SOL    HW256886  11.162   8.571   7.474 -0.5646  1.5675 -0.8511
16975SOL     OW56887   2.173  10.609   9.315  0.0245  0.5027  1.0907
16975SOL    HW156888   2.126  10.680   9.358 -0.4047 -0.6196  2.5503
16975SOL    HW256889   2.259  10.608   9.357  1.1453  2.0231 -1.0010
16976SOL     OW56890   9.543   6.651   9.891  0.3958  0.1746  0.6004
16976SOL    HW156891   9.578   6.629   9.977 -1.1940 -0.1518  1.2116
16976SOL    HW256892   9.531   6.746   9.893  2.2219  0.4518 -0.0340
16977SOL     OW56893   3.300   9.809   6.982 -0.5696 -0.4873  0.1453
16977SOL    HW156894   3.273   9.869   6.913 -1.2028 -2.2427 -1.1915
16977SOL    HW256895   3.220   9.793   7.032 -1.0796 -2.2955 -1.1712
16978SOL     OW56896   4.991  10.793   0.723 -0.5953 -0.0761 -0.3025
16978SOL    HW156897   4.896  10.799   0.724 -0.7290 -1.6113 -0.7745
16978SOL    HW256898   5.011  10.748   0.641  0.5542  0.4928 -0.3473
16979SOL     OW56899   0.139   2.144   8.887  0.3773  0.4135  0.1906
16979SOL    HW156900   0.068   2.114   8.830 -0.7734 -0.9268  2.1521
16979SOL    HW256901   0.120   2.237   8.901 -1.2250  0.0320  0.8799
16980SOL     OW56902   5.445   9.248   7.533  0.0602 -0.6926  0.1581
16980SOL    HW156903   5.453   9.186   7.461 -0.5653  1.1734 -1.6268
16980SOL    HW256904   5.531   9.245   7.577  0.8524 -1.0770 -1.3588
16981SOL     OW56905  12.338   4.279   2.791  0.5829 -0.6835  0.0737
16981SOL    HW156906  12.397   4.269   2.865 -0.5416 -1.2600  0.9380
16981SOL    HW256907  12.364   4.361   2.750  1.1615 -0.2849  1.1837
16982SOL     OW56908   1.389   6.213   2.479  0.1980 -0.1766 -0.3347
16982SOL    HW156909   1.427   6.139   2.430 -0.6084 -0.3445 -0.7220
16982SOL    HW256910   1.312   6.237   2.428 -0.9557 -0.6890  1.1245
16983SOL     OW56911   4.428   7.649  11.342 -0.0254  0.6651  0.3801
16983SOL    HW156912   4.375   7.728  11.342  0.5305  1.1107 -1.7742
16983SOL    HW256913   4.468   7.647  11.255  2.8923 -0.0563  1.6055
16984SOL     OW56914   2.174  10.475   1.588 -0.2168  0.0288 -0.2398
16984SOL    HW156915   2.268  10.494   1.593 -0.0993 -0.3313 -0.9992
16984SOL    HW256916   2.150  10.450   1.677  0.5225 -0.4196 -0.1584
16985SOL     OW56917   6.074   7.875   1.793  0.3100  0.4307 -0.4306
16985SOL    HW156918   6.149   7.929   1.814 -0.0735  1.0755 -0.6954
16985SOL    HW256919   6.104   7.785   1.809  1.1000  0.6825 -0.4542
16986SOL     OW56920   4.687  10.903   4.418  0.0498  0.4612 -0.4424
16986SOL    HW156921   4.626  10.900   4.344  0.9258  0.7776 -1.1922
16986SOL    HW256922   4.773  10.914   4.378  0.5466  0.5892  0.6291
16987SOL     OW56923  11.292   5.290   4.274 -0.0339 -0.1684  0.1636
16987SOL    HW156924  11.239   5.342   4.214  0.9815  1.3107  0.4961
16987SOL    HW256925  11.244   5.207   4.284 -0.1936 -0.5003 -2.7015
16988SOL     OW56926   7.938  10.927   1.891 -0.1735  0.0383 -0.5043
16988SOL    HW156927   7.967  10.837   1.905 -0.9848 -0.0175  1.0783
16988SOL    HW256928   8.017  10.980   1.899  0.4414 -0.5655 -2.2104
16989SOL     OW56929  10.203  10.201  10.399 -0.3639  0.0696  0.0403
16989SOL    HW156930  10.225  10.289  10.428 -1.4113  0.1963  0.4834
16989SOL    HW256931  10.167  10.158  10.477  0.7733 -0.9944  0.0257
16990SOL     OW56932   5.298   0.674   5.099  0.4513  0.1038  0.2125
16990SOL    HW156933   5.209   0.641   5.091  0.0629  1.2338 -0.2360
16990SOL    HW256934   5.313   0.678   5.194 -0.6510  1.6257  0.3574
16991SOL     OW56935  11.209   3.979   5.788 -0.7070  0.2269  0.0205
16991SOL    HW156936  11.147   4.009   5.722 -2.2591 -0.6322  1.0313
16991SOL    HW256937  11.230   3.889   5.763 -0.7946  0.1193  0.3297
16992SOL     OW56938   0.424   1.179   3.474 -0.1729  0.3101 -0.0771
16992SOL    HW156939   0.442   1.106   3.532  0.2549  0.1463 -0.4128
16992SOL    HW256940   0.339   1.158   3.435  0.3399 -0.4381 -0.8212
16993SOL     OW56941   5.363   2.352  11.934 -0.2357 -0.5561 -0.4680
16993SOL    HW156942   5.314   2.271  11.922  0.3876 -0.6096 -3.4881
16993SOL    HW256943   5.446   2.323  11.973 -0.3467 -1.2823 -0.7408
16994SOL     OW56944   5.933  10.934  11.927  0.1815 -0.4452 -0.0884
16994SOL    HW156945   5.957  11.015  11.882  0.6736  0.1206  1.1450
16994SOL    HW256946   5.977  10.940  12.012 -0.6175 -1.5327  0.4250
16995SOL     OW56947   7.335   1.116   0.993 -0.1496 -0.0847 -0.5224
16995SOL    HW156948   7.343   1.175   1.068  0.4626 -0.1435 -0.5379
16995SOL    HW256949   7.253   1.068   1.009  1.0973 -1.7690  1.3458
16996SOL     OW56950  12.300   1.996   4.802  0.0385  0.4868 -0.4238
16996SOL    HW156951  12.357   2.035   4.735 -1.3300 -2.0552 -3.3194
16996SOL    HW256952  12.211   2.017   4.774 -0.5977  1.1006  1.8473
16997SOL     OW56953   8.241  10.946   5.100  0.4760 -0.3201  0.0399
16997SOL    HW156954   8.333  10.973   5.104  0.2825  0.2974  0.5529
16997SOL    HW256955   8.242  10.855   5.128  0.7482  0.1690  1.7430
16998SOL     OW56956   1.257  10.679   4.168 -0.5193 -0.4638 -0.1116
16998SOL    HW156957   1.305  10.669   4.250 -0.6526 -0.4029 -0.0266
16998SOL    HW256958   1.261  10.593   4.127 -0.2977 -0.4480 -0.1264
16999SOL     OW56959   5.556   2.963   3.814  0.4642  0.3913 -0.3234
16999SOL    HW156960   5.554   2.871   3.785 -1.5576  0.3751 -0.2708
16999SOL    HW256961   5.645   2.992   3.795  1.6717 -2.0350  1.0918
17000SOL     OW56962   5.601   0.913   0.950 -0.1291  0.0782 -0.4020
17000SOL    HW156963   5.543   0.976   0.992  0.1794  0.3696 -0.4102
17000SOL    HW256964   5.679   0.912   1.006  0.4768  0.8095 -1.2006
17001SOL     OW56965   6.926   6.890   1.873 -0.2261  0.3112  0.3392
17001SOL    HW156966   6.922   6.860   1.782  0.6963  1.3288 -0.0571
17001SOL    HW256967   6.836   6.885   1.904 -0.7169  0.8298 -0.9299
17002SOL     OW56968   7.379   4.514   5.074 -0.0401  0.2870 -0.4597
17002SOL    HW156969   7.331   4.490   5.154  1.7241  0.3292  0.6707
17002SOL    HW256970   7.407   4.431   5.036  1.2730  0.3008  0.3933
17003SOL     OW56971  10.455   9.885   4.306 -0.3067 -0.2255 -0.0735
17003SOL    HW156972  10.420   9.797   4.316  0.5061 -0.4710  0.7345
17003SOL    HW256973  10.515   9.896   4.380  0.2542  0.6853 -0.6411
17004SOL     OW56974   6.230   6.973   8.458  0.3731 -0.8041 -0.2678
17004SOL    HW156975   6.201   6.929   8.538 -1.6189  3.6690  1.8339
17004SOL    HW256976   6.324   6.986   8.470  0.2107 -0.7741  1.0702
17005SOL     OW56977   8.850   8.307   7.665 -0.1407  0.3559 -0.2161
17005SOL    HW156978   8.895   8.308   7.581 -1.7688 -1.3095 -1.1981
17005SOL    HW256979   8.841   8.399   7.690 -1.3932  1.0527 -2.8927
17006SOL     OW56980   7.374   4.547  11.882  0.1582 -0.5136 -0.5679
17006SOL    HW156981   7.442   4.592  11.832 -0.0897  0.0981 -0.3608
17006SOL    HW256982   7.392   4.570  11.973 -1.9079  1.8888 -0.6867
17007SOL     OW56983   4.126   1.639   2.174  0.1783 -0.6265  0.2216
17007SOL    HW156984   4.181   1.699   2.225 -2.4402  1.1958  1.1003
17007SOL    HW256985   4.153   1.552   2.203  0.0991  0.2739  3.4537
17008SOL     OW56986   5.766   1.005   4.414  0.1207 -0.0856  0.2588
17008SOL    HW156987   5.768   0.979   4.506 -2.2678  1.2994  0.7603
17008SOL    HW256988   5.676   0.989   4.386  0.1703  1.7989 -1.1445
17009SOL     OW56989  11.733   5.384   9.205  0.7706  0.4055 -0.1032
17009SOL    HW156990  11.777   5.396   9.121 -0.3912 -1.8362 -1.1034
17009SOL    HW256991  11.658   5.444   9.202  2.2590  2.4339  0.6072
17010SOL     OW56992   8.467   6.757  12.428  0.2148 -0.3140  0.0179
17010SOL    HW156993   8.420   6.689  12.477 -0.6565 -0.5123 -1.0672
17010SOL    HW256994   8.552   6.764  12.473 -0.3361 -0.8942  1.1877
17011SOL     OW56995  11.858   0.252   0.026 -0.3262  0.4271 -0.5579
17011SOL    HW156996  11.803   0.241   0.103 -1.0862  0.1463 -1.1303
17011SOL    HW256997  11.808   0.212  -0.045  0.3213  0.7629 -1.2137
17012SOL     OW56998   1.446   8.240   2.115 -0.1730  0.2401 -0.3351
17012SOL    HW156999   1.379   8.308   2.111 -0.5427  0.1155  2.0139
17012SOL    HW257000   1.397   8.158   2.122  0.1710  0.1368  1.2339
17013SOL     OW57001   8.160   0.655   1.254 -0.1818  0.2191 -0.4190
17013SOL    HW157002   8.226   0.720   1.231 -0.9640  1.4461  0.6463
17013SOL    HW257003   8.128   0.621   1.170  1.9723 -0.6348 -0.9465
17014SOL     OW57004   0.700  10.139  10.584 -0.0529 -0.6822 -0.2443
17014SOL    HW157005   0.635  10.155  10.652  2.9070  0.2108  2.6322
17014SOL    HW257006   0.732  10.050  10.602 -0.3218 -1.0764 -1.5735
17015SOL     OW57007   7.378   1.121   3.028  0.2642  0.5303  0.3653
17015SOL    HW157008   7.303   1.069   3.000 -0.2883  1.3654  0.2813
17015SOL    HW257009   7.345   1.210   3.034  0.9616  0.7346  1.4461
17016SOL     OW57010   5.686   8.933   1.166 -0.0910 -0.1771  0.2104
17016SOL    HW157011   5.744   8.870   1.208 -0.1034  0.4346  1.1567
17016SOL    HW257012   5.717   9.018   1.195 -0.7324  0.2130 -0.2139
17017SOL     OW57013   9.754  11.710  12.427  0.6499 -0.5680 -0.1035
17017SOL    HW157014   9.736  11.655  12.504  1.4597 -1.1457 -0.3087
17017SOL    HW257015   9.815  11.658  12.375  0.5690  0.0744 -0.8518
17018SOL     OW57016  10.766   0.873   5.089  0.3726  0.0967  0.2434
17018SOL    HW157017  10.696   0.813   5.064 -0.7158  2.0347 -1.7801
17018SOL    HW257018  10.823   0.822   5.146 -0.5570 -2.7455 -1.2046
17019SOL     OW57019   9.865   9.953   5.074  0.8896 -0.0878 -0.4296
17019SOL    HW157020   9.917   9.874   5.058 -0.2770 -0.5577 -2.1674
17019SOL    HW257021   9.779   9.933   5.038 -0.8766  0.3245  3.0975
17020SOL     OW57022   5.034   6.471  10.247 -0.0925 -0.0545 -0.7231
17020SOL    HW157023   5.101   6.501  10.309  0.4233 -0.1368 -1.2355
17020SOL    HW257024   5.050   6.377  10.237  1.2424  0.3134 -2.6408
17021SOL     OW57025  10.088   7.399   3.027  0.5889  0.7597 -0.5766
17021SOL    HW157026  10.143   7.351   2.966 -0.7159 -1.0554 -0.4087
17021SOL    HW257027  10.005   7.350   3.029 -1.1845  3.4900 -1.0481
17022SOL     OW57028   8.124  10.588  10.246  0.0465 -0.1216 -0.4188
17022SOL    HW157029   8.189  10.575  10.315 -0.7629 -0.3395  0.3168
17022SOL    HW257030   8.133  10.680  10.221  1.2864 -0.3786 -1.0098
17023SOL     OW57031   4.736   1.713   6.983  0.4775  0.4969  0.2289
17023SOL    HW157032   4.816   1.717   6.929 -1.0215 -4.3082 -3.0103
17023SOL    HW257033   4.733   1.623   7.014 -3.9077  0.2024 -0.3998
17024SOL     OW57034   3.811   6.691   0.283  0.4281 -0.2374 -0.3640
17024SOL    HW157035   3.808   6.711   0.190 -0.3211 -1.1542 -0.5461
17024SOL    HW257036   3.833   6.775   0.325  2.3941 -0.1573 -1.4615
17025SOL     OW57037  12.401   1.145   0.548  0.1094 -0.5678  0.3396
17025SOL    HW157038  12.334   1.079   0.566 -2.1509  1.3778 -0.5769
17025SOL    HW257039  12.443   1.160   0.633 -0.0996 -2.2901  0.7879
17026SOL     OW57040   3.417  10.355   5.480  0.0404 -0.3644 -0.4501
17026SOL    HW157041   3.494  10.351   5.536  0.9440  0.9527 -1.5171
17026SOL    HW257042   3.451  10.385   5.395 -1.2830 -2.1589 -1.6863
17027SOL     OW57043   2.102   2.046  12.203 -0.3654 -0.0973  0.2598
17027SOL    HW157044   2.197   2.039  12.207 -0.1537  2.4422  1.5080
17027SOL    HW257045   2.072   1.956  12.186  2.2895 -0.5458 -2.9774
17028SOL     OW57046  10.494   5.617   9.486  0.0716 -0.2859  0.3516
17028SOL    HW157047  10.449   5.532   9.486  0.5823 -0.5617  0.4315
17028SOL    HW257048  10.437   5.675   9.536 -0.0639 -0.7040  0.6825
17029SOL     OW57049   8.767  12.470   1.605 -0.2006 -0.3184  0.3068
17029SOL    HW157050   8.793  12.403   1.541 -0.4711 -2.0513  1.9118
17029SOL    HW257051   8.777  12.427   1.690  0.5664  2.0423  1.4936
17030SOL     OW57052   8.344  10.365   0.239  0.1016  0.1507 -0.5360
17030SOL    HW157053   8.278  10.313   0.285 -0.3539  0.2511 -1.0681
17030SOL    HW257054   8.293  10.425   0.184  0.5984  1.3670  0.2810
17031SOL     OW57055   9.865   9.893  10.228 -0.2029  0.7231 -0.4098
17031SOL    HW157056   9.776   9.928  10.218 -0.4655  1.4288  3.0384
17031SOL    HW257057   9.921   9.963  10.195 -0.8852  0.8362 -1.3751
17032SOL     OW57058   5.584   0.473  10.462 -0.6878  0.1516  0.0243
17032SOL    HW157059   5.498   0.509  10.485 -0.8666 -0.4167  0.2989
17032SOL    HW257060   5.619   0.532  10.396 -1.2613  0.4329 -0.0352
17033SOL     OW57061   2.709   9.743   9.882 -0.3175  0.3666 -0.0354
17033SOL    HW157062   2.626   9.696   9.881 -0.5138  0.6800 -1.4713
17033SOL    HW257063   2.718   9.775   9.971 -1.4385 -0.2004  0.2953
17034SOL     OW57064   5.869   6.670   9.326 -0.2280 -0.6216  0.0153
17034SOL    HW157065   5.939   6.617   9.366 -0.1759 -1.0889 -0.6828
17034SOL    HW257066   5.867   6.751   9.378 -0.4508 -1.3827  1.2457
17035SOL     OW57067   3.794   3.384  11.434 -0.5541 -0.1768 -0.1011
17035SOL    HW157068   3.731   3.447  11.401 -0.5588  0.8902  1.7973
17035SOL    HW257069   3.806   3.321  11.362 -0.6297  1.8881 -2.0166
17036SOL     OW57070  12.345   8.171  10.619 -0.6544  0.0728  0.3415
17036SOL    HW157071  12.367   8.214  10.702  1.9307  0.6401 -0.5337
17036SOL    HW257072  12.392   8.088  10.622  0.5897  0.6923 -1.0604
17037SOL     OW57073   4.639   3.440   5.850  0.0081 -0.2533  0.1092
17037SOL    HW157074   4.722   3.475   5.819  0.9002  0.0769  2.6402
17037SOL    HW257075   4.647   3.345   5.838  1.7146 -0.4518  2.2897
17038SOL     OW57076   1.800   4.001  12.361 -0.4242 -0.2926 -0.0966
17038SOL    HW157077   1.890   4.028  12.382 -0.6783 -0.3521  1.1333
17038SOL    HW257078   1.753   4.082  12.347 -0.1923 -0.2604 -0.7375
17039SOL     OW57079  11.926   3.953   7.310  0.4503  0.2902 -0.5542
17039SOL    HW157080  11.972   4.020   7.259  0.0013 -0.3170 -1.7859
17039SOL    HW257081  11.964   3.870   7.282  0.7543 -0.0061  0.7009
17040SOL     OW57082   4.259  11.458   6.880  0.3793 -0.3400  0.1374
17040SOL    HW157083   4.220  11.531   6.928  0.7619 -0.4668  0.6618
17040SOL    HW257084   4.279  11.493   6.794 -1.1779 -0.3676 -0.2567
17041SOL     OW57085  11.847   2.068  12.348 -0.4868 -0.0298 -0.0050
17041SOL    HW157086  11.920   2.006  12.342 -1.1369 -0.8382  0.2517
17041SOL    HW257087  11.781   2.022  12.400 -1.6559  0.2160 -1.2128
17042SOL     OW57088   0.812  11.730  12.454  0.1898 -0.0851  0.5552
17042SOL    HW157089   0.875  11.681  12.402 -0.8737 -0.2913 -0.5863
17042SOL    HW257090   0.861  11.758  12.532  1.6387 -0.3193 -0.2417
17043SOL     OW57091   5.651   9.613   2.890 -0.1568  0.4097  0.6391
17043SOL    HW157092   5.649   9.574   2.978 -0.3954  1.3113  1.0402
17043SOL    HW257093   5.560   9.617   2.863 -0.0154 -0.9108 -0.1451
17044SOL     OW57094   6.911   6.727  11.573  0.0876 -0.3338 -0.3790
17044SOL    HW157095   6.871   6.751  11.490 -0.2816 -0.5320 -0.2573
17044SOL    HW257096   6.961   6.647  11.554  0.1740 -0.2603 -0.4591
17045SOL     OW57097   6.058   2.143   9.111  0.7143  0.0510 -0.4398
17045SOL    HW157098   6.078   2.173   9.022  0.4869  0.0783 -0.4839
17045SOL    HW257099   5.967   2.171   9.125  0.9607  0.6304  0.0467
17046SOL     OW57100  12.280  10.633   2.355  0.2825  0.2966  0.2273
17046SOL    HW157101  12.303  10.663   2.267  0.4257 -2.8597 -0.9387
17046SOL    HW257102  12.314  10.544   2.360  0.4379  0.3915  3.6017
17047SOL     OW57103   9.113   9.797   7.731  0.3606 -0.3653  0.0396
17047SOL    HW157104   9.152   9.731   7.674  0.4025  0.2214 -0.6323
17047SOL    HW257105   9.063   9.747   7.795 -0.0613 -1.0474 -0.7903
17048SOL     OW57106   2.104   4.941   8.915  0.4588 -0.3818 -0.2059
17048SOL    HW157107   2.049   4.864   8.932 -0.2447  0.3472  0.9783
17048SOL    HW257108   2.159   4.949   8.993 -0.5009  1.1336  0.3594
17049SOL     OW57109   6.469  10.140  11.160 -0.2747  0.4395  0.3347
17049SOL    HW157110   6.391  10.147  11.215 -0.2782 -0.2270  0.4310
17049SOL    HW257111   6.457  10.056  11.114  0.5186  0.1923  0.5659
17050SOL     OW57112   8.876  11.021   2.631  0.0896 -0.1765  0.1954
17050SOL    HW157113   8.819  11.017   2.708  0.7966 -1.2362  0.6876
17050SOL    HW257114   8.883  10.930   2.601 -0.1501  0.2046 -1.1260
17051SOL     OW57115   7.509  11.787  10.759  0.1847  0.5120  0.0153
17051SOL    HW157116   7.550  11.871  10.782 -0.9195  0.6527  1.6764
17051SOL    HW257117   7.422  11.812  10.726 -0.0019  0.0612  0.1563
17052SOL     OW57118   0.005  10.477  10.279  0.0447 -0.0378 -0.0821
17052SOL    HW157119  -0.032  10.560  10.247  2.0359  0.4938 -1.1612
17052SOL    HW257120   0.036  10.497  10.367  2.0044  0.9169 -0.9213
17053SOL     OW57121   4.190   1.677   0.563  0.3527  0.0083  0.2659
17053SOL    HW157122   4.193   1.723   0.479  0.3681 -0.6842 -0.1225
17053SOL    HW257123   4.231   1.737   0.625  1.5230 -0.0058 -0.4730
17054SOL     OW57124   3.645   1.104   6.449  0.0266  0.0397  0.4810
17054SOL    HW157125   3.703   1.165   6.494 -1.0615  0.2732  1.6227
17054SOL    HW257126   3.574   1.088   6.511 -0.5992 -1.0458 -0.4727
17055SOL     OW57127   3.999  10.356   7.720  0.0612 -0.9553 -0.4136
17055SOL    HW157128   3.954  10.440   7.721 -2.1365 -2.0827  0.7031
17055SOL    HW257129   4.049  10.357   7.638 -1.4965  0.6138 -1.4122
17056SOL     OW57130   0.279   5.061   1.930 -0.6317  0.0945  0.3934
17056SOL    HW157131   0.328   5.089   1.853 -2.7127 -0.3163 -1.1495
17056SOL    HW257132   0.338   5.002   1.976  1.5502  2.1729  0.4598
17057SOL     OW57133  11.797   4.771   9.031 -0.3151 -0.7659  0.5976
17057SOL    HW157134  11.811   4.831   9.104 -0.0639 -1.7381  1.3714
17057SOL    HW257135  11.778   4.828   8.956  2.1565  0.4214  0.7636
17058SOL     OW57136   2.725   2.059  12.156  0.0531 -0.0857  0.4028
17058SOL    HW157137   2.790   2.078  12.089 -1.0868  1.5849 -0.3180
17058SOL    HW257138   2.662   2.001  12.113  1.0968 -1.8386  1.1509
17059SOL     OW57139   0.259   2.066  11.745  0.2257  0.3905  0.0188
17059SOL    HW157140   0.259   2.157  11.775 -1.9872  0.7889 -0.9971
17059SOL    HW257141   0.266   2.015  11.826 -0.9226  1.4744  0.8546
17060SOL     OW57142   4.603   2.141   0.138 -0.2252 -0.7360  0.1470
17060SOL    HW157143   4.567   2.220   0.099  1.9665  0.3923  0.2511
17060SOL    HW257144   4.547   2.071   0.107 -0.4119  0.4760 -2.5036
17061SOL     OW57145   9.495   6.835   6.473  0.2200  0.2441 -0.4314
17061SOL    HW157146   9.412   6.829   6.427 -0.4592  0.7071  0.7044
17061SOL    HW257147   9.561   6.840   6.403 -0.7558  0.6406 -1.3468
17062SOL     OW57148   9.494   3.624   5.557  0.2444  0.5749 -0.3779
17062SOL    HW157149   9.484   3.690   5.626 -0.4000  0.1322 -0.0409
17062SOL    HW257150   9.552   3.558   5.595 -1.0088 -0.2360  0.1772
17063SOL     OW57151   3.252   9.594   9.285 -0.4463  0.0742 -0.3632
17063SOL    HW157152   3.224   9.632   9.368  0.6219 -1.6537  0.8423
17063SOL    HW257153   3.300   9.515   9.309  1.8672  0.6855 -2.4986
17064SOL     OW57154   0.503  10.585   3.551  0.2995  0.2149  0.1122
17064SOL    HW157155   0.486  10.501   3.594  2.2658 -0.2319  0.1435
17064SOL    HW257156   0.568  10.628   3.607  1.5428  0.4266 -1.4123
17065SOL     OW57157  11.611   9.027   1.744 -0.2307  0.0022 -0.1813
17065SOL    HW157158  11.646   9.106   1.787 -1.3348  0.8998 -0.8678
17065SOL    HW257159  11.612   9.049   1.651  1.2078 -1.5409 -0.5633
17066SOL     OW57160   7.776   7.153   4.324  0.3809 -0.4345  0.4065
17066SOL    HW157161   7.724   7.184   4.250  1.4131 -1.0110 -0.5927
17066SOL    HW257162   7.724   7.176   4.401 -0.0978  1.3871 -0.4048
17067SOL     OW57163  10.788   9.787   8.256  0.0111 -0.2419 -0.4072
17067SOL    HW157164  10.862   9.736   8.289 -0.7498 -0.0579  1.7195
17067SOL    HW257165  10.772   9.751   8.169  1.4888 -1.4677 -0.2223
17068SOL     OW57166   1.308   0.519   2.637 -0.3969  0.1243  0.2366
17068SOL    HW157167   1.333   0.605   2.671 -0.0810  0.2565 -0.3202
17068SOL    HW257168   1.391   0.472   2.628 -0.4070  0.2858 -0.8695
17069SOL     OW57169  10.107   4.468   1.636 -0.7500 -0.0781 -0.5908
17069SOL    HW157170  10.054   4.546   1.650 -1.9688 -1.0748  0.6229
17069SOL    HW257171  10.096   4.448   1.543 -2.8143 -0.4378 -0.3136
17070SOL     OW57172  11.661   7.374   9.503  0.1228  0.5222  0.3272
17070SOL    HW157173  11.754   7.375   9.480  1.3353 -0.4530  4.3599
17070SOL    HW257174  11.627   7.456   9.467  1.8699 -0.0948 -3.1713
17071SOL     OW57175   9.562   9.078   1.958 -0.2429 -0.0674 -0.4295
17071SOL    HW157176   9.626   9.069   2.029 -1.2820  1.2344  0.7562
17071SOL    HW257177   9.600   9.032   1.884  2.4842  1.3732 -0.0541
17072SOL     OW57178   2.609   1.369   1.519  0.3236 -0.1638  0.0954
17072SOL    HW157179   2.642   1.289   1.477  1.1431 -0.0131  0.4287
17072SOL    HW257180   2.608   1.348   1.612  1.0856  0.3884  0.2395
17073SOL     OW57181   8.355   5.398   7.779 -0.2593  0.2846  0.0755
17073SOL    HW157182   8.272   5.389   7.731 -1.6441  1.3704  2.0709
17073SOL    HW257183   8.405   5.321   7.755 -2.5307 -1.2785 -0.0112
17074SOL     OW57184   1.069   3.073   7.225 -0.1059 -0.4543  0.1078
17074SOL    HW157185   1.075   3.000   7.164  1.8983  0.4407 -0.8393
17074SOL    HW257186   1.154   3.076   7.268 -1.1060 -0.3854  2.2221
17075SOL     OW57187   1.893   7.373   1.605 -0.1202 -0.0000  0.9468
17075SOL    HW157188   1.878   7.465   1.627  0.7496  0.1798  0.7894
17075SOL    HW257189   1.987   7.366   1.594 -0.2607 -0.7309  0.1318
17076SOL     OW57190   4.132   4.638  12.482 -0.5731  0.4800 -0.1158
17076SOL    HW157191   4.044   4.630  12.445 -0.0223  1.3499 -1.6972
17076SOL    HW257192   4.190   4.606  12.413  0.4963  2.1606 -0.0445
17077SOL     OW57193   0.507   5.709  12.401  0.3639  0.0831  0.2683
17077SOL    HW157194   0.504   5.729  12.308 -2.2774 -1.1580  0.0096
17077SOL    HW257195   0.593   5.670  12.415  0.3635 -0.7987 -1.8870
17078SOL     OW57196   2.461   6.940   1.497  0.2635  0.0593 -0.0451
17078SOL    HW157197   2.416   7.023   1.480  1.8842  1.1524  0.7988
17078SOL    HW257198   2.553   6.959   1.483  0.6668 -1.6325  0.1152
17079SOL     OW57199   4.240   2.043   9.760  0.0672  0.4358 -0.0514
17079SOL    HW157200   4.172   2.079   9.817  1.2891  0.3012  1.5622
17079SOL    HW257201   4.204   2.050   9.671 -1.3613  1.8780  0.6053
17080SOL     OW57202   9.627   5.940   5.747  0.1299 -0.3266  0.1521
17080SOL    HW157203   9.556   5.939   5.811 -1.5247  1.3009 -1.5158
17080SOL    HW257204   9.602   5.873   5.683  0.5394 -0.3107 -0.0311
17081SOL     OW57205  10.140  11.276  10.223 -0.1198  0.5726 -0.7567
17081SOL    HW157206  10.074  11.245  10.285  0.4697 -0.5945 -0.6886
17081SOL    HW257207  10.188  11.197  10.198  1.5958  1.4775 -0.4224
17082SOL     OW57208   8.509  10.722   5.085 -0.2310  0.3996 -0.2665
17082SOL    HW157209   8.548  10.650   5.035 -0.8449 -0.8011  0.9130
17082SOL    HW257210   8.414  10.709   5.076 -0.3608  0.0945  1.2251
17083SOL     OW57211  11.827   7.448  11.011 -0.5235 -0.4091  0.1593
17083SOL    HW157212  11.916   7.437  10.975 -0.7987  0.2895 -0.7808
17083SOL    HW257213  11.812   7.368  11.061  1.1231  0.0019  1.4181
17084SOL     OW57214  11.550   0.017   9.414  0.2349  0.1015  0.0736
17084SOL    HW157215  11.613   0.046   9.480  0.4125  1.7608 -0.7839
17084SOL    HW257216  11.528   0.096   9.365 -0.7413 -0.8866 -1.1558
17085SOL     OW57217  10.301  12.011   9.342 -0.1652 -0.0233 -0.0788
17085SOL    HW157218  10.361  11.942   9.313  1.0836  0.9650  0.0685
17085SOL    HW257219  10.358  12.082   9.372 -1.4059  0.2037  1.9373
17086SOL     OW57220   9.157   7.965   6.052 -0.0992  0.4482 -0.1984
17086SOL    HW157221   9.163   8.030   6.122  1.7584 -0.2117  0.3235
17086SOL    HW257222   9.165   8.016   5.971  1.4307  0.9092  0.2027
17087SOL     OW57223   9.279   0.672   5.230 -0.2539 -0.5613  0.1773
17087SOL    HW157224   9.289   0.764   5.205 -1.7221 -0.2234  0.7370
17087SOL    HW257225   9.298   0.623   5.150  1.6672  0.1455  0.1630
17088SOL     OW57226   2.330  12.239   0.450  0.0663  0.0801  0.6920
17088SOL    HW157227   2.340  12.323   0.403  2.2198 -1.5816 -2.1993
17088SOL    HW257228   2.400  12.240   0.515  0.6803  0.1711  0.0420
17089SOL     OW57229   4.495  12.452   0.613  0.2472  0.1157  0.1432
17089SOL    HW157230   4.471  12.522   0.552 -1.1638  0.5851  1.1941
17089SOL    HW257231   4.418  12.396   0.617  0.3222  0.0699  1.4443
17090SOL     OW57232   2.129   0.575   7.534 -0.0747 -0.6725  0.1032
17090SOL    HW157233   2.080   0.657   7.532 -0.9606 -1.1934  0.0016
17090SOL    HW257234   2.219   0.600   7.514 -0.0076  0.4952  1.6338
17091SOL     OW57235  12.423  11.693  11.746  0.1042  0.2005  0.1078
17091SOL    HW157236  12.432  11.638  11.668 -0.5167  0.6452 -0.2884
17091SOL    HW257237  12.336  11.671  11.781  0.9296 -1.0326  1.5097
17092SOL     OW57238   0.731   4.670   3.576  0.0336 -0.7167 -0.1803
17092SOL    HW157239   0.728   4.663   3.480  1.4247  0.0171 -0.2915
17092SOL    HW257240   0.742   4.764   3.593  0.9569 -0.9636  0.6520
17093SOL     OW57241   9.035   9.452   3.930 -0.7513 -0.5235  0.1073
17093SOL    HW157242   9.127   9.472   3.913 -1.5467  2.1781 -1.7991
17093SOL    HW257243   9.023   9.363   3.896  0.6983 -0.0932 -1.6970
17094SOL     OW57244   7.437   2.008   4.281 -0.1004  0.7520  0.0446
17094SOL    HW157245   7.521   2.051   4.267  0.3784 -0.8606 -3.0132
17094SOL    HW257246   7.372   2.078   4.267  0.7002  1.0990 -2.5820
17095SOL     OW57247   7.606   5.100   5.178  0.2747 -0.1472 -0.1492
17095SOL    HW157248   7.560   5.184   5.184  1.8154  0.6991  0.5210
17095SOL    HW257249   7.542   5.040   5.143 -0.7174  1.4464 -1.2030
17096SOL     OW57250   2.813   5.977   9.362 -0.4836 -0.4318 -0.0349
17096SOL    HW157251   2.727   6.002   9.328 -0.0935  2.4606  0.8417
17096SOL    HW257252   2.804   5.981   9.457  0.6827  0.3310  0.0715
17097SOL     OW57253   8.114   6.442   5.701  0.2951 -0.3698 -0.7267
17097SOL    HW157254   8.119   6.382   5.626 -0.1412  0.8793 -1.8045
17097SOL    HW257255   8.159   6.396   5.772 -0.6857 -2.2689 -1.2823
17098SOL     OW57256  10.892   6.210   1.600  0.5766  0.2661  0.2677
17098SOL    HW157257  10.931   6.126   1.621 -0.3265 -0.6967 -1.7035
17098SOL    HW257258  10.797   6.194   1.600  0.4308  0.9276 -1.3902
17099SOL     OW57259   7.263   0.949   0.396 -0.0498 -0.1020 -0.0831
17099SOL    HW157260   7.186   0.998   0.368  1.2551  1.7082 -0.7192
17099SOL    HW257261   7.335   1.011   0.387  1.3878 -1.4949  1.2018
17100SOL     OW57262   5.528  11.794   4.159 -0.2582  0.0563 -0.7958
17100SOL    HW157263   5.511  11.785   4.253 -1.2183 -1.8170 -1.1010
17100SOL    HW257264   5.471  11.729   4.118 -2.6007  3.2064 -3.0136
17101SOL     OW57265   4.347   3.415   9.180  0.7868 -0.1627 -0.1436
17101SOL    HW157266   4.393   3.423   9.097 -0.2593  1.5631 -0.5959
17101SOL    HW257267   4.255   3.403   9.157  0.5865 -0.5392  0.7698
17102SOL     OW57268   4.332   2.066   6.212 -0.2918 -0.2130 -0.3376
17102SOL    HW157269   4.355   1.973   6.218  0.4549 -0.1500 -1.8427
17102SOL    HW257270   4.259   2.076   6.274 -0.6993 -1.8940 -0.4928
17103SOL     OW57271   0.716   9.024   3.721  0.2515 -0.1279  0.3240
17103SOL    HW157272   0.637   8.972   3.737  0.3945 -0.6103 -0.4625
17103SOL    HW257273   0.787   8.960   3.721  0.4238  0.0376 -0.6882
17104SOL     OW57274   3.102   2.004   4.877 -0.0192 -0.3859  0.1217
17104SOL    HW157275   3.103   2.100   4.879 -0.8604 -0.3760  0.6257
17104SOL    HW257276   3.100   1.978   4.969  0.7655 -0.9064 -0.0046
17105SOL     OW57277   5.718  11.928   0.160 -0.1007 -0.1997 -0.2103
17105SOL    HW157278   5.797  11.962   0.119  0.6914 -1.3179  0.3111
17105SOL    HW257279   5.749  11.855   0.214 -1.3768 -0.1090  0.7035
17106SOL     OW57280   3.639   7.809   9.977  0.4572 -0.1933 -0.3270
17106SOL    HW157281   3.607   7.803   9.887  0.3665 -0.1108 -0.3004
17106SOL    HW257282   3.734   7.815   9.968  0.3373  2.4514 -0.5578
17107SOL     OW57283   3.372   3.305  11.522  0.2601 -0.2293  0.0831
17107SOL    HW157284   3.417   3.359  11.457 -0.0228 -0.2878 -0.1635
17107SOL    HW257285   3.437   3.242  11.551  0.3888 -0.1953 -0.1354
17108SOL     OW57286   4.655  11.483   3.138 -0.3295 -0.4483  0.3302
17108SOL    HW157287   4.580  11.436   3.100 -1.3761  1.4032 -0.0201
17108SOL    HW257288   4.664  11.562   3.085  3.3047 -1.5823 -0.9997
17109SOL     OW57289   3.972   7.064  10.598  0.6182  0.2704 -0.4379
17109SOL    HW157290   3.953   7.060  10.692  1.5122 -0.2977 -0.2675
17109SOL    HW257291   3.888   7.084  10.557 -0.0768 -0.8190  0.3872
17110SOL     OW57292   7.961   9.946   9.724  0.7472  0.2992 -0.0286
17110SOL    HW157293   7.940  10.027   9.678 -0.4339 -0.1507 -0.3192
17110SOL    HW257294   7.980   9.974   9.814  4.0166  1.2916 -0.9143
17111SOL     OW57295   5.300  10.985   2.862  0.3273  0.2467 -0.2199
17111SOL    HW157296   5.366  10.932   2.907 -1.1064 -0.8934  0.5924
17111SOL    HW257297   5.310  10.963   2.770  0.3635 -0.7338  0.0121
17112SOL     OW57298   8.721   3.850  10.049 -0.0955 -0.5344  0.1668
17112SOL    HW157299   8.755   3.786   9.986 -1.1422 -0.1796 -0.7877
17112SOL    HW257300   8.715   3.802  10.131  3.4853 -0.4156  0.6677
17113SOL     OW57301   0.178   4.832   7.105  0.1781  0.2403 -0.1859
17113SOL    HW157302   0.105   4.770   7.108  1.2359 -1.0314  0.4916
17113SOL    HW257303   0.245   4.788   7.053  1.7862 -0.2169  2.0806
17114SOL     OW57304   6.682   4.887   4.050  0.1496 -0.2253  0.0295
17114SOL    HW157305   6.707   4.940   3.974  0.9923  1.7476  1.5835
17114SOL    HW257306   6.759   4.833   4.066 -0.1327 -0.8476 -0.6500
17115SOL     OW57307   4.546   6.153   7.062  0.4446 -0.0023 -0.4151
17115SOL    HW157308   4.467   6.144   7.116  0.8470  0.1848  0.2144
17115SOL    HW257309   4.595   6.072   7.078 -0.2811 -0.7608 -1.9079
17116SOL     OW57310  10.832  12.246  10.664 -0.1717 -0.6754 -0.4532
17116SOL    HW157311  10.759  12.240  10.726  0.8640 -1.3532  0.7408
17116SOL    HW257312  10.795  12.221  10.580 -1.8309  1.1109 -0.3315
17117SOL     OW57313   2.039  11.707  10.796  0.4549  0.2310  0.0748
17117SOL    HW157314   2.050  11.613  10.786  1.9149  0.5788 -2.5960
17117SOL    HW257315   2.101  11.732  10.864  1.6564 -0.5002 -0.7199
17118SOL     OW57316   4.621   2.986   7.214  0.0746  0.5003  0.5668
17118SOL    HW157317   4.526   2.974   7.221 -0.0473  1.6432  1.1490
17118SOL    HW257318   4.633   3.081   7.208  1.1596  0.3437 -0.0291
17119SOL     OW57319   8.780   9.587   9.089  0.9203 -0.2555 -0.5764
17119SOL    HW157320   8.777   9.511   9.030 -0.1600 -0.6941  0.0138
17119SOL    HW257321   8.854   9.569   9.147  0.2694 -1.2067 -0.0129
17120SOL     OW57322  11.883   2.038   5.318  0.3757 -0.2938  0.5105
17120SOL    HW157323  11.891   1.990   5.400  0.3768  0.2671  0.8453
17120SOL    HW257324  11.936   2.117   5.332 -1.2054  0.7664  0.6938
17121SOL     OW57325   0.780  12.086   8.967 -0.3393 -0.1450  0.3614
17121SOL    HW157326   0.844  12.033   9.015  0.8205 -1.0851 -2.0628
17121SOL    HW257327   0.710  12.025   8.945 -0.1672 -0.0842 -0.3670
17122SOL     OW57328   0.891   0.544   1.552  0.1623  0.3630 -0.0131
17122SOL    HW157329   0.953   0.592   1.608 -0.6544  1.1326  0.2772
17122SOL    HW257330   0.809   0.547   1.602  0.3652 -2.5545  0.6618
17123SOL     OW57331   6.136  10.120   9.628 -0.4361 -0.3913 -0.0831
17123SOL    HW157332   6.104  10.158   9.710 -1.1341 -2.0120  0.4418
17123SOL    HW257333   6.229  10.106   9.643 -0.5249 -0.5099  0.3780
17124SOL     OW57334   5.473   3.050  10.329  0.1685 -0.5477 -0.1495
17124SOL    HW157335   5.387   3.043  10.371  0.7412  0.3926  1.2255
17124SOL    HW257336   5.455   3.088  10.243 -0.7357  0.2706  0.3832
17125SOL     OW57337   5.391   3.152   0.819  0.1620  0.1546  0.3846
17125SOL    HW157338   5.418   3.120   0.905 -1.3981 -0.2026  0.7743
17125SOL    HW257339   5.424   3.087   0.757  1.5079  0.5379  0.6656
17126SOL     OW57340  10.554  11.455  11.311  0.1960  0.7036  0.1645
17126SOL    HW157341  10.546  11.395  11.237 -2.3949  1.2714 -0.1159
17126SOL    HW257342  10.604  11.407  11.376  1.5713 -0.2414 -1.5081
17127SOL     OW57343   5.592   5.745   3.426 -0.1161  0.1137  0.7374
17127SOL    HW157344   5.651   5.801   3.476 -0.4259  0.2956  0.9024
17127SOL    HW257345   5.588   5.786   3.340  1.3852 -0.8770  0.1545
17128SOL     OW57346   7.729   0.914  11.742 -0.1396  0.3146  0.2147
17128SOL    HW157347   7.707   0.991  11.794  0.7593 -0.2107  1.4195
17128SOL    HW257348   7.824   0.918  11.732 -0.0195 -0.8661  0.6966
17129SOL     OW57349  11.177   2.068   1.925  0.3610 -0.0276 -0.2646
17129SOL    HW157350  11.260   2.070   1.973  0.3132  0.3819 -0.1948
17129SOL    HW257351  11.148   2.159   1.924  0.3531 -0.0359 -1.0684
17130SOL     OW57352  10.137   4.999   8.323 -0.2362 -0.1853 -0.4845
17130SOL    HW157353  10.160   5.010   8.231  2.5156 -1.1582 -0.0359
17130SOL    HW257354  10.079   4.923   8.325 -0.0471 -0.3683 -1.3971
17131SOL     OW57355   4.860   8.577   3.167 -0.2410  0.6596  0.8991
17131SOL    HW157356   4.785   8.636   3.173 -2.3535 -1.6737 -0.4416
17131SOL    HW257357   4.930   8.630   3.130 -1.2242  2.9153  2.1166
17132SOL     OW57358  11.480   4.054   1.629 -0.6201  0.3462 -0.1479
17132SOL    HW157359  11.574   4.067   1.637 -0.2038 -1.6031 -1.2731
17132SOL    HW257360  11.454   4.110   1.556 -0.0855 -0.0370 -0.6419
17133SOL     OW57361  10.491   7.958   5.913 -0.3482 -0.6665  0.2017
17133SOL    HW157362  10.456   7.869   5.923 -0.3770 -0.5468  1.1767
17133SOL    HW257363  10.414   8.013   5.901 -0.3469 -0.7237 -0.0918
17134SOL     OW57364   2.731   8.944   1.593 -0.0332 -0.0152 -0.8820
17134SOL    HW157365   2.700   8.917   1.507 -0.5961 -1.6504 -0.2003
17134SOL    HW257366   2.789   8.873   1.621 -0.2313  0.2646  0.2784
17135SOL     OW57367  12.061  10.830   7.460 -0.3419 -0.2950  0.0383
17135SOL    HW157368  12.022  10.804   7.543  2.0613  0.3018  1.4543
17135SOL    HW257369  12.147  10.787   7.459  0.6862  1.6578 -0.9894
17136SOL     OW57370  10.420   3.065  10.718 -0.2556  0.3509 -0.0505
17136SOL    HW157371  10.345   3.045  10.774 -0.4886  1.9763  0.2752
17136SOL    HW257372  10.389   3.049  10.629 -0.9432  0.8285  0.0943
17137SOL     OW57373   7.905   1.679   7.791  0.5269 -0.3209 -0.6164
17137SOL    HW157374   7.888   1.752   7.733 -1.1212  0.1680  0.4002
17137SOL    HW257375   7.948   1.614   7.736 -0.1323  0.4775 -2.1424
17138SOL     OW57376   6.028   9.761   9.850 -0.5088  0.0087 -0.8390
17138SOL    HW157377   6.100   9.810   9.889  0.4325 -1.9487 -0.0362
17138SOL    HW257378   5.949   9.802   9.888  0.1663  1.6055 -1.0666
17139SOL     OW57379   4.678   9.120   4.082 -0.4707 -0.2606 -0.0187
17139SOL    HW157380   4.642   9.208   4.070  1.1735  0.3667 -0.5466
17139SOL    HW257381   4.648   9.071   4.006 -0.5120  0.1486 -0.2656
17140SOL     OW57382   4.885  10.447   5.148  0.6790  0.1993  0.5717
17140SOL    HW157383   4.875  10.543   5.147 -0.4248  0.0959 -0.3907
17140SOL    HW257384   4.935  10.427   5.069 -0.8416 -0.1561 -0.3396
17141SOL     OW57385   8.680   6.454  12.450 -0.3817  0.2943 -0.4651
17141SOL    HW157386   8.642   6.443  12.538 -0.8469 -0.7640 -0.7828
17141SOL    HW257387   8.772   6.430  12.461 -0.0778  1.6088  0.0343
17142SOL     OW57388   6.105   7.803   4.381 -0.0869 -0.0284  0.1539
17142SOL    HW157389   6.019   7.764   4.397 -0.0593 -0.0973  0.1328
17142SOL    HW257390   6.085   7.894   4.358 -0.0519  0.4332  1.8360
17143SOL     OW57391   0.275   9.429   2.350 -0.6971 -0.5557 -0.6446
17143SOL    HW157392   0.275   9.513   2.396 -0.3401 -0.7255 -0.3258
17143SOL    HW257393   0.299   9.451   2.260 -0.6025 -0.3137 -0.5614
17144SOL     OW57394  11.204   9.066   9.364  0.1276  0.2639  0.2913
17144SOL    HW157395  11.233   9.147   9.406 -0.9638  0.1930  1.2457
17144SOL    HW257396  11.113   9.056   9.393 -0.0575 -0.7905 -0.6001
17145SOL     OW57397  10.825   5.129  12.340 -0.1641 -0.9963 -0.2010
17145SOL    HW157398  10.881   5.118  12.417  0.3746  1.9537 -0.0457
17145SOL    HW257399  10.886   5.142  12.268 -0.6325 -0.3548 -0.4936
17146SOL     OW57400   3.296   9.430   1.519 -0.0221  0.1411  0.5130
17146SOL    HW157401   3.258   9.392   1.599 -1.6542  0.2567 -0.1706
17146SOL    HW257402   3.259   9.517   1.514 -2.2085 -0.8066 -1.7901
17147SOL     OW57403   5.821   9.162   6.076 -0.3159 -0.0318  0.2951
17147SOL    HW157404   5.817   9.084   6.020  0.7871  0.9339 -1.2145
17147SOL    HW257405   5.843   9.233   6.016  2.4152  0.8632  2.1766
17148SOL     OW57406  10.542   0.060   8.204  0.7091  0.3804  0.2606
17148SOL    HW157407  10.519   0.054   8.111 -0.6278  1.5953  0.4760
17148SOL    HW257408  10.588   0.143   8.212 -0.0261  0.7462  0.8195
17149SOL     OW57409   3.141   8.414   3.086  0.1492 -0.8414  0.2992
17149SOL    HW157410   3.060   8.457   3.116  0.5550  0.7558 -0.7299
17149SOL    HW257411   3.173   8.471   3.016  1.5533 -2.0790 -0.1145
17150SOL     OW57412   6.656   0.027   6.163  0.5875 -0.9914  0.5151
17150SOL    HW157413   6.579   0.062   6.210  0.9180 -1.2194  1.2419
17150SOL    HW257414   6.624   0.009   6.075 -0.1932 -1.0499  0.8014
17151SOL     OW57415   2.715   5.154  10.905  0.5299  0.3526  0.2792
17151SOL    HW157416   2.793   5.130  10.955  0.6848  0.3946  0.0593
17151SOL    HW257417   2.744   5.152  10.813  0.0798 -0.3712  0.1450
17152SOL     OW57418   3.343   2.302   3.933 -0.0739 -0.2041  0.4992
17152SOL    HW157419   3.417   2.246   3.908 -0.5544 -0.6483  0.0424
17152SOL    HW257420   3.275   2.241   3.961 -0.2895  0.1983  0.8724
17153SOL     OW57421   6.467   7.008   9.101  0.0496  0.3137  0.2583
17153SOL    HW157422   6.440   7.016   9.009 -1.6927 -2.7257  0.3807
17153SOL    HW257423   6.560   6.985   9.097  0.9332  3.4486 -0.4884
17154SOL     OW57424   3.024   0.076   3.407 -0.9992  0.6271  0.1410
17154SOL    HW157425   2.974   0.144   3.362  1.5717  1.4363 -1.7399
17154SOL    HW257426   3.115   0.091   3.381  0.2441 -1.0378  2.9531
17155SOL     OW57427   5.687   2.186   4.401 -0.1045  0.0079  0.3613
17155SOL    HW157428   5.643   2.165   4.483  0.2397  0.6567  0.7144
17155SOL    HW257429   5.622   2.165   4.333 -0.0907 -1.3545  0.7311
17156SOL     OW57430   7.007   4.933   5.295 -0.4778  0.1102 -0.4756
17156SOL    HW157431   6.999   5.017   5.340 -0.0615  0.1238 -0.4242
17156SOL    HW257432   7.027   4.870   5.365  3.1199  0.5686 -0.8767
17157SOL     OW57433   6.026   5.345   3.277  0.1132 -0.6379  0.2570
17157SOL    HW157434   6.084   5.421   3.281 -1.1213  0.4607 -1.2502
17157SOL    HW257435   5.939   5.381   3.294 -0.3439 -1.9524  0.7978
17158SOL     OW57436   9.291   4.921  10.988 -0.2079  0.2433  0.0861
17158SOL    HW157437   9.328   5.005  11.014  1.6102 -1.3535  3.2190
17158SOL    HW257438   9.257   4.884  11.069 -0.5558 -2.2501 -1.1029
17159SOL     OW57439   2.296   1.899   0.180  0.5738 -0.0800 -0.3368
17159SOL    HW157440   2.341   1.884   0.263 -1.1623 -0.9534  0.4865
17159SOL    HW257441   2.217   1.946   0.203  0.8845  1.2028 -1.7346
17160SOL     OW57442   7.583   1.632   9.622 -0.1654 -0.1096 -0.3015
17160SOL    HW157443   7.581   1.624   9.718 -1.1189  0.7930 -0.2219
17160SOL    HW257444   7.669   1.668   9.603  0.6614 -1.8127  0.0641
17161SOL     OW57445  10.810   2.164   0.625  0.1395 -0.3322  0.2061
17161SOL    HW157446  10.807   2.119   0.709 -2.3091  0.2399  0.5090
17161SOL    HW257447  10.763   2.106   0.565  0.1689  0.1415 -0.2800
17162SOL     OW57448   4.335   4.367   6.651  0.0286  0.1077  0.3611
17162SOL    HW157449   4.253   4.324   6.673 -0.6797  1.1093 -0.2259
17162SOL    HW257450   4.313   4.460   6.643  0.7306  0.1562 -1.9167
17163SOL     OW57451   8.523   6.572   2.429 -0.0273  0.1589 -0.4878
17163SOL    HW157452   8.483   6.642   2.376  0.7178  0.3182 -0.8552
17163SOL    HW257453   8.556   6.616   2.507  0.3732  0.2082 -0.6830
17164SOL     OW57454  11.816   2.085  11.358 -0.0260 -0.1283 -0.5075
17164SOL    HW157455  11.761   2.096  11.280  0.0845  0.6212 -0.4842
17164SOL    HW257456  11.823   1.990  11.369  0.3746 -0.2601 -1.7179
17165SOL     OW57457  12.253   1.365   1.664  0.1941  0.2219 -0.2292
17165SOL    HW157458  12.234   1.313   1.586 -0.3023 -1.3751  0.8801
17165SOL    HW257459  12.275   1.452   1.631  1.7110 -0.8292 -2.2544
17166SOL     OW57460   8.055  11.678   0.256  0.1629  0.2360  0.5893
17166SOL    HW157461   8.022  11.639   0.337 -0.9515  0.6715  0.3572
17166SOL    HW257462   7.982  11.672   0.194  0.8049  0.4314 -0.2117
17167SOL     OW57463   6.465   5.740   9.461 -0.3916  0.1352  0.3268
17167SOL    HW157464   6.477   5.659   9.412 -2.6686 -0.0672 -0.0225
17167SOL    HW257465   6.436   5.712   9.548 -0.4838  0.5539  0.4333
17168SOL     OW57466   0.274   1.361   7.808 -0.0363 -0.1160  0.0400
17168SOL    HW157467   0.293   1.375   7.901  2.8737  1.2947 -0.6623
17168SOL    HW257468   0.296   1.269   7.793  0.5134 -0.0756  0.5514
17169SOL     OW57469   8.101   7.929   9.879 -0.1823 -0.4708  0.2187
17169SOL    HW157470   8.103   7.860   9.946  0.5034  0.6786  1.4369
17169SOL    HW257471   8.156   7.894   9.808 -0.0239 -1.2574  0.7127
17170SOL     OW57472   5.607   3.526   4.847  0.2739  0.9117  0.4126
17170SOL    HW157473   5.554   3.448   4.863  0.2529  0.5919 -1.1196
17170SOL    HW257474   5.604   3.574   4.930 -1.4130  0.3012  0.7427
17171SOL     OW57475  10.399   9.534   9.423  0.1328  0.1752  0.0089
17171SOL    HW157476  10.304   9.539   9.419 -0.0117 -1.8433 -0.3317
17171SOL    HW257477  10.426   9.515   9.333  0.8934  0.9772  0.0547
17172SOL     OW57478   2.843  11.839  11.298  0.1636  0.8106  0.0777
17172SOL    HW157479   2.750  11.816  11.288  0.0083  1.0076  1.0186
17172SOL    HW257480   2.890  11.760  11.272 -0.3082  0.1730  1.1081
17173SOL     OW57481   3.519   6.884   8.631 -0.5235 -0.0301 -0.5578
17173SOL    HW157482   3.484   6.850   8.548 -0.8126 -0.4965 -0.2464
17173SOL    HW257483   3.516   6.810   8.690  2.3414 -0.5177 -0.9024
17174SOL     OW57484   4.721  11.314   7.971  0.0633  0.2375  0.1769
17174SOL    HW157485   4.816  11.323   7.964  0.2234  2.3878  3.1063
17174SOL    HW257486   4.691  11.400   7.999 -2.6876 -0.6392  0.2407
17175SOL     OW57487   1.566   6.649   2.857  0.2230 -0.4024 -0.4360
17175SOL    HW157488   1.563   6.589   2.932 -1.1131  0.0377 -0.0967
17175SOL    HW257489   1.609   6.599   2.788  2.4709 -0.4515  0.9074
17176SOL     OW57490   4.983  11.415   5.765  0.0527 -0.2078  0.0736
17176SOL    HW157491   4.896  11.416   5.726  0.4752  0.1171 -0.8940
17176SOL    HW257492   5.019  11.502   5.745  0.4736 -0.2141  0.7677
17177SOL     OW57493   9.306   3.261   9.606  0.7325  1.1686 -0.5834
17177SOL    HW157494   9.245   3.287   9.675  2.7594  0.6287  1.5319
17177SOL    HW257495   9.329   3.171   9.627  3.3325  1.8047 -0.4320
17178SOL     OW57496  10.255  12.452   1.096 -0.2126 -0.3113  0.1342
17178SOL    HW157497  10.236  12.485   1.008  1.2827  1.4999  0.4248
17178SOL    HW257498  10.222  12.362   1.095  0.4483 -0.6331 -2.5461
17179SOL     OW57499   2.652   5.265   1.899 -0.1432  0.1277 -0.3029
17179SOL    HW157500   2.725   5.315   1.861  0.2607 -0.5323 -0.4100
17179SOL    HW257501   2.647   5.296   1.989 -0.5838  1.1225 -0.6575
17180SOL     OW57502   5.906   0.462   0.504  0.3003 -0.0050 -0.0823
17180SOL    HW157503   5.925   0.421   0.588 -1.7089  1.3823  1.1242
17180SOL    HW257504   5.826   0.420   0.474  0.7457 -0.1599 -1.0949
17181SOL     OW57505   3.403   2.290   9.673  0.0366 -0.1660 -0.1104
17181SOL    HW157506   3.349   2.369   9.682 -0.3451 -0.3748 -0.5163
17181SOL    HW257507   3.493   2.321   9.678 -0.1036  0.3447 -0.6863
17182SOL     OW57508   8.366  11.096  10.645 -0.1025 -0.3759  0.1395
17182SOL    HW157509   8.448  11.066  10.684  0.8172  0.3562 -1.1319
17182SOL    HW257510   8.360  11.048  10.563 -1.4163 -1.0688  0.6271
17183SOL     OW57511  12.099   0.224  11.082  0.2535  0.2111 -0.2432
17183SOL    HW157512  12.126   0.247  10.993  1.5914  2.1746  0.5983
17183SOL    HW257513  12.067   0.305  11.120  0.3500 -0.4197  1.2798
17184SOL     OW57514   4.290   3.939  10.342 -0.4579 -0.1655 -0.2583
17184SOL    HW157515   4.311   3.976  10.256  2.9725  0.9256  0.8578
17184SOL    HW257516   4.279   3.845  10.326  0.0483  0.0161 -1.9043
17185SOL     OW57517   8.034   0.174  12.172 -0.0520  0.0310 -0.4518
17185SOL    HW157518   8.050   0.268  12.182 -2.0447  0.3560  0.0140
17185SOL    HW257519   8.083   0.151  12.093  0.5216  1.4347 -0.5504
17186SOL     OW57520   0.828  11.729  11.741 -0.1779  0.8114 -0.5181
17186SOL    HW157521   0.789  11.645  11.764  0.4334  0.8985  0.9847
17186SOL    HW257522   0.756  11.781  11.705 -1.9745  1.4918  3.4789
17187SOL     OW57523  10.957   5.915  10.242 -0.4734  0.0505 -0.7822
17187SOL    HW157524  10.920   5.947  10.160 -0.7587 -0.2813 -0.7845
17187SOL    HW257525  11.044   5.883  10.218 -0.2317  0.7026 -0.8020
17188SOL     OW57526   5.967   6.530   7.214  0.5179  0.2485  0.4436
17188SOL    HW157527   5.929   6.547   7.300  0.0439 -1.2997  0.5672
17188SOL    HW257528   5.898   6.551   7.152  0.7077  0.9276  0.4541
17189SOL     OW57529  11.057   0.373   3.400 -0.4514 -0.1432  0.7250
17189SOL    HW157530  11.008   0.455   3.390  0.7004  0.3226 -2.8125
17189SOL    HW257531  11.148   0.401   3.408 -0.1510 -1.0564  0.5799
17190SOL     OW57532  10.443   4.945   5.994 -0.0980 -0.6167  0.3812
17190SOL    HW157533  10.360   4.956   6.040 -1.3833  2.5818 -2.2882
17190SOL    HW257534  10.434   4.861   5.947 -1.6708 -0.5150  0.4654
17191SOL     OW57535  10.885  11.295   9.770  0.5118  0.0277 -0.1468
17191SOL    HW157536  10.930  11.358   9.826  1.0553  0.3517 -0.9290
17191SOL    HW257537  10.820  11.253   9.827  1.5121 -0.1370  0.8867
17192SOL     OW57538  11.043   8.120   5.593  0.1672  0.1965  0.5403
17192SOL    HW157539  11.056   8.106   5.499 -2.3172  1.0663 -0.0108
17192SOL    HW257540  10.948   8.122   5.604  0.3954  0.8906  2.9747
17193SOL     OW57541  10.924   1.759   1.596  0.1008  0.3226  0.0589
17193SOL    HW157542  11.007   1.742   1.550  1.0603  1.6554  1.2087
17193SOL    HW257543  10.936   1.720   1.683  0.0687  1.6715  0.6928
17194SOL     OW57544   9.879   5.442   3.884 -0.1973  0.2266  0.0046
17194SOL    HW157545   9.832   5.381   3.827  0.1388 -0.5834  0.5605
17194SOL    HW257546   9.821   5.517   3.893 -2.6554 -1.7749  2.7378
17195SOL     OW57547   4.985   3.190   6.097 -0.1394  0.4102  0.3358
17195SOL    HW157548   5.074   3.164   6.118  0.5843  1.7496 -0.9450
17195SOL    HW257549   4.945   3.113   6.058  0.9070  0.2026 -0.3509
17196SOL     OW57550   8.248   5.582   6.122  0.0356  0.3051  0.2345
17196SOL    HW157551   8.335   5.591   6.081  0.4543  0.8172  1.2014
17196SOL    HW257552   8.210   5.505   6.081  0.9809  0.0342 -0.1561
17197SOL     OW57553   6.385   7.687   4.574  0.4600  0.1167  0.1142
17197SOL    HW157554   6.354   7.673   4.664  0.0881  0.2627  0.0121
17197SOL    HW257555   6.345   7.771   4.548  1.1562  0.4439  0.0706
17198SOL     OW57556   9.282   3.447  12.363  0.5889 -0.0878 -0.2837
17198SOL    HW157557   9.300   3.526  12.313  0.5013  0.1231  0.0187
17198SOL    HW257558   9.190   3.455  12.388  0.6793 -0.1072  0.0611
17199SOL     OW57559   5.460   0.181   8.480 -0.1272  0.0319 -0.3521
17199SOL    HW157560   5.519   0.204   8.553  1.2725  3.1847 -2.2494
17199SOL    HW257561   5.519   0.154   8.410 -1.3060 -1.0745 -0.9393
17200SOL     OW57562   7.404   1.434   7.054  0.7783  0.6210 -0.1285
17200SOL    HW157563   7.333   1.480   7.099  0.7151  0.2101  0.1895
17200SOL    HW257564   7.374   1.343   7.048  0.7208  0.6984 -1.1293
17201SOL     OW57565   0.116   1.839   4.673  0.3016 -0.0870 -0.1175
17201SOL    HW157566   0.158   1.923   4.656 -0.3416  0.2462 -0.1191
17201SOL    HW257567   0.183   1.774   4.655  0.6334  0.4051 -0.6936
17202SOL     OW57568   6.316   5.451  10.620 -0.5161  0.1890  0.0154
17202SOL    HW157569   6.230   5.487  10.643 -0.8739 -0.4354 -0.3038
17202SOL    HW257570   6.298   5.360  10.596  0.5604 -0.6439  2.1332
17203SOL     OW57571   2.897   4.781   0.137  0.4920 -0.3373  0.4829
17203SOL    HW157572   2.904   4.778   0.041  0.6328 -2.0212  0.5308
17203SOL    HW257573   2.899   4.875   0.157  0.8202  0.0393 -1.1282
17204SOL     OW57574   1.667   6.419   2.178 -0.0520  0.1673 -0.4379
17204SOL    HW157575   1.650   6.364   2.255  1.6392 -0.7781 -0.6763
17204SOL    HW257576   1.615   6.498   2.193  0.5073  0.1797  1.8758
17205SOL     OW57577   8.044  10.605   2.238 -1.0105 -0.0734 -0.0574
17205SOL    HW157578   8.059  10.525   2.287  1.2339 -1.0346 -2.1039
17205SOL    HW257579   8.128  10.651   2.239 -1.1628  0.3756 -2.0015
17206SOL     OW57580   8.296  12.010   7.743  0.0665  0.5554 -0.0425
17206SOL    HW157581   8.349  12.033   7.666 -0.0600  0.6659 -0.0984
17206SOL    HW257582   8.213  12.057   7.729 -0.9903 -1.5230 -1.1583
17207SOL     OW57583   2.966   7.818   1.385  0.1755 -0.0307  0.1835
17207SOL    HW157584   2.975   7.899   1.335 -0.1138 -0.1472 -0.0589
17207SOL    HW257585   2.882   7.825   1.429 -0.1377 -0.4633 -0.3276
17208SOL     OW57586   7.760   4.995  10.570 -0.0849  0.2506 -0.1531
17208SOL    HW157587   7.699   5.066  10.589  0.7334  1.2887 -1.3107
17208SOL    HW257588   7.777   5.000  10.476  1.4913 -0.2436  0.0631
17209SOL     OW57589   0.575   3.020   0.501  0.9109 -0.7334 -0.1977
17209SOL    HW157590   0.499   2.967   0.476  1.1571 -0.8707 -0.6684
17209SOL    HW257591   0.651   2.969   0.472  1.1229  0.4679 -1.8796
17210SOL     OW57592   7.277  11.460   9.590 -0.5347 -0.2041 -0.0721
17210SOL    HW157593   7.254  11.537   9.642 -0.2896 -0.2330  0.0833
17210SOL    HW257594   7.212  11.458   9.519 -0.3704  0.3082 -0.2399
17211SOL     OW57595   3.227   2.461   8.061 -0.7257  0.3300 -0.0814
17211SOL    HW157596   3.159   2.437   8.125 -0.5274  0.4813  0.1911
17211SOL    HW257597   3.285   2.384   8.058 -1.6171 -0.3083 -1.2791
17212SOL     OW57598   2.697  10.221   2.986  0.3076  0.2675  0.3104
17212SOL    HW157599   2.767  10.178   3.037  0.3433  0.7714  0.7007
17212SOL    HW257600   2.743  10.280   2.927  0.4400 -2.2749 -2.2975
17213SOL     OW57601  11.967   8.862   2.478 -0.2113  0.2885  0.4232
17213SOL    HW157602  11.962   8.908   2.394 -1.0396  0.8736  0.7780
17213SOL    HW257603  11.959   8.931   2.543  0.0815 -0.2009  0.9770
17214SOL     OW57604   5.825   2.457   4.063  0.4096 -0.0362 -0.2261
17214SOL    HW157605   5.787   2.462   3.975  0.5428 -0.7402 -0.3324
17214SOL    HW257606   5.811   2.544   4.100 -0.1563  0.1011 -0.7351
17215SOL     OW57607   5.233   7.270  11.454 -0.5099  0.1802  0.4376
17215SOL    HW157608   5.266   7.351  11.493 -2.0238  1.8816 -1.5741
17215SOL    HW257609   5.303   7.242  11.394 -0.1906  0.2847  0.7606
17216SOL     OW57610   1.530   2.647   5.310  0.6194 -0.1288  0.2348
17216SOL    HW157611   1.448   2.688   5.336  1.6068  1.9383  0.2258
17216SOL    HW257612   1.596   2.715   5.320  1.4741  0.3888 -5.6249
17217SOL     OW57613   9.629   0.272   1.107 -0.1605  0.2476 -0.9967
17217SOL    HW157614   9.612   0.178   1.103  1.0588 -0.1911  1.7292
17217SOL    HW257615   9.723   0.281   1.096 -0.4028  1.3132 -2.4866
17218SOL     OW57616   3.489   2.682   4.586 -0.2792 -0.0539 -0.0816
17218SOL    HW157617   3.543   2.622   4.534 -0.1040  1.3125 -1.5685
17218SOL    HW257618   3.399   2.657   4.565 -0.2247 -0.8590  0.6129
17219SOL     OW57619   0.703   6.367  10.225 -0.2046 -0.2383  0.2066
17219SOL    HW157620   0.745   6.389  10.141 -1.0101  1.5369  0.2184
17219SOL    HW257621   0.659   6.448  10.251 -0.2705 -0.8710  2.1842
17220SOL     OW57622  10.554   9.650   4.024 -0.0145 -0.4356  0.0660
17220SOL    HW157623  10.511   9.566   4.042 -1.3369  0.0449 -0.7442
17220SOL    HW257624  10.483   9.708   3.996  0.8639  1.0046  0.7348
17221SOL     OW57625   5.751   6.343   1.547 -0.1097  0.1938  0.5934
17221SOL    HW157626   5.843   6.335   1.520  0.3397 -0.0585  2.0611
17221SOL    HW257627   5.746   6.429   1.588 -0.1474 -0.3622  1.8039
17222SOL     OW57628   4.519   6.513   9.819 -0.5414 -0.4742 -0.1144
17222SOL    HW157629   4.451   6.573   9.788 -0.8909 -0.6133  0.3813
17222SOL    HW257630   4.473   6.433   9.842 -0.0690 -0.9498 -0.8001
17223SOL     OW57631   9.105  10.771   2.572 -0.0129  0.3188  0.6281
17223SOL    HW157632   9.099  10.761   2.477  0.1773  0.1254  0.6357
17223SOL    HW257633   9.188  10.730   2.595 -0.5297 -0.5653  0.9978
17224SOL     OW57634   9.732   1.360   6.339  0.0661 -0.2180 -0.1955
17224SOL    HW157635   9.804   1.402   6.293  0.3469  0.4482  0.8014
17224SOL    HW257636   9.659   1.363   6.278  1.2432 -2.2818 -1.8296
17225SOL     OW57637  10.157   0.983   7.065  0.6108  0.1926  0.3908
17225SOL    HW157638  10.152   0.890   7.086  1.1360  0.0702 -0.0179
17225SOL    HW257639  10.081   1.021   7.109 -0.2819 -0.6110 -0.4352
17226SOL     OW57640   9.636   7.283   7.763 -0.1462  0.2312 -0.1219
17226SOL    HW157641   9.676   7.363   7.730 -1.9338  1.4771  0.5469
17226SOL    HW257642   9.610   7.304   7.853 -1.6057 -0.6952 -0.2840
17227SOL     OW57643   8.390   1.855   3.968 -0.0965  0.3405 -0.2585
17227SOL    HW157644   8.429   1.791   4.027 -0.5315 -0.0634 -0.4022
17227SOL    HW257645   8.452   1.929   3.968 -0.6877  0.9055  1.6989
17228SOL     OW57646   9.510  12.430   1.434 -0.4453  0.0999 -0.1148
17228SOL    HW157647   9.546  12.473   1.356 -0.4692  1.0750  0.4009
17228SOL    HW257648   9.420  12.408   1.410 -0.2371 -0.2463 -0.6013
17229SOL     OW57649   4.375   7.696   2.227 -0.5819  0.3021  0.4150
17229SOL    HW157650   4.423   7.659   2.302  0.8016 -0.9471 -1.0042
17229SOL    HW257651   4.438   7.753   2.184 -0.8217 -0.2409 -0.6873
17230SOL     OW57652   1.119   4.432   4.810 -0.7464 -0.1537  0.0399
17230SOL    HW157653   1.159   4.345   4.802 -0.8258 -0.2526  0.6480
17230SOL    HW257654   1.025   4.416   4.799 -0.7114 -0.0613 -0.4130
17231SOL     OW57655   8.892   7.633   6.316  0.1270 -0.4001 -0.0109
17231SOL    HW157656   8.882   7.711   6.371  0.1783  0.0042 -0.5679
17231SOL    HW257657   8.893   7.667   6.226 -0.0059 -1.0587 -0.2650
17232SOL     OW57658   5.568   9.451   4.152  0.0048  0.1227  0.0703
17232SOL    HW157659   5.618   9.448   4.234 -1.1481  3.1570  1.0276
17232SOL    HW257660   5.486   9.406   4.172 -0.1649  0.6210  0.5045
17233SOL     OW57661   9.951   5.181   0.948 -0.0342  0.0743  0.3684
17233SOL    HW157662   9.991   5.224   0.872 -1.1368  1.1593  0.3622
17233SOL    HW257663   9.896   5.112   0.911  0.5847 -0.3699  0.2771
17234SOL     OW57664   7.718   8.905   1.581 -0.1535  0.3411  0.4878
17234SOL    HW157665   7.728   8.813   1.558  0.9680  0.2000  1.4695
17234SOL    HW257666   7.625   8.915   1.602 -0.5450 -0.2587 -0.8304
17235SOL     OW57667   6.898  10.711  11.059  0.4358 -0.2086 -0.4288
17235SOL    HW157668   6.818  10.745  11.101 -0.4607 -1.9788 -0.5937
17235SOL    HW257669   6.969  10.743  11.114 -0.3296  1.8626 -0.5652
17236SOL     OW57670   4.362   5.923  11.916 -0.1573  0.1648  0.3063
17236SOL    HW157671   4.378   6.007  11.959  0.7465 -0.3705  1.0512
17236SOL    HW257672   4.433   5.866  11.947  0.8840 -0.0885 -2.3552
17237SOL     OW57673  10.815  10.942   4.911  0.1408 -0.0676 -0.2950
17237SOL    HW157674  10.749  11.002   4.945 -0.4454 -1.2224  0.6644
17237SOL    HW257675  10.790  10.856   4.945  0.3568 -1.0668 -2.4952
17238SOL     OW57676   0.540   6.941   0.005  0.7343 -0.0515  0.2241
17238SOL    HW157677   0.532   6.898   0.091  1.2533  0.9429  0.7858
17238SOL    HW257678   0.483   6.890  -0.052 -0.1457 -0.3251  1.3122
17239SOL     OW57679   9.339  11.120   6.706  0.5484 -0.2684 -0.4081
17239SOL    HW157680   9.308  11.086   6.622  0.1428 -2.4958  0.5755
17239SOL    HW257681   9.270  11.097   6.768  0.8077  1.3903  0.5685
17240SOL     OW57682   1.829   9.368   7.262 -0.3586  0.4925 -0.2489
17240SOL    HW157683   1.884   9.432   7.306 -0.6012  0.6337 -0.1509
17240SOL    HW257684   1.755   9.419   7.227  0.2659  0.5315 -1.5714
17241SOL     OW57685   2.782   1.559   9.596  0.1450 -0.1044 -0.0282
17241SOL    HW157686   2.828   1.491   9.546 -0.8282  1.0111 -2.6640
17241SOL    HW257687   2.689   1.535   9.590 -0.1288  0.9293 -0.2186
17242SOL     OW57688   2.079   0.441   7.774 -0.3731 -0.0130 -0.0552
17242SOL    HW157689   2.115   0.502   7.710 -1.0545  1.0911  0.5845
17242SOL    HW257690   1.984   0.446   7.762 -0.4411 -2.2984 -1.1899
17243SOL     OW57691   2.254   5.019   0.314 -0.6186 -0.8876 -0.1889
17243SOL    HW157692   2.178   5.075   0.330 -0.5786 -1.0558  0.6154
17243SOL    HW257693   2.269   4.974   0.397  0.5968 -0.5660 -0.2041
17244SOL     OW57694   3.081   1.692   9.374 -0.7030 -0.0227  0.3695
17244SOL    HW157695   3.057   1.731   9.291  0.4080 -0.2812 -0.0940
17244SOL    HW257696   3.159   1.740   9.402 -0.7982 -0.2380  1.0357
17245SOL     OW57697  10.530   9.364   3.691  0.6065  0.4638  0.0383
17245SOL    HW157698  10.456   9.352   3.750 -0.9383  0.3362 -1.8185
17245SOL    HW257699  10.545   9.459   3.692  0.1908  0.5333  0.1866
17246SOL     OW57700   1.279  11.453   1.743  0.0304 -0.0333  0.3131
17246SOL    HW157701   1.319  11.527   1.789  2.0589 -0.6444 -0.3535
17246SOL    HW257702   1.353  11.406   1.704 -1.3740 -1.2431 -1.0313
17247SOL     OW57703   7.656   1.681   5.372 -0.6766  0.7466 -0.6601
17247SOL    HW157704   7.648   1.638   5.286  1.5726  0.2322 -0.6720
17247SOL    HW257705   7.700   1.764   5.353 -1.2115  1.1582 -0.1180
17248SOL     OW57706   4.352   0.337   1.262  0.3961 -0.2065 -0.4396
17248SOL    HW157707   4.289   0.301   1.325  0.5662  0.1505 -0.0618
17248SOL    HW257708   4.317   0.312   1.176  0.4238 -1.1223 -0.1970
17249SOL     OW57709   2.392   6.738   8.710 -0.0837  0.6908 -0.0634
17249SOL    HW157710   2.405   6.828   8.741  0.8943  0.7740 -0.6810
17249SOL    HW257711   2.344   6.695   8.781  1.1308  1.1775  1.0954
17250SOL     OW57712   0.357   1.123   3.003 -0.1076  0.3609 -0.3700
17250SOL    HW157713   0.357   1.094   2.912 -1.4284 -1.7785  0.2303
17250SOL    HW257714   0.446   1.106   3.034 -0.1956 -0.8265 -0.7315
17251SOL     OW57715   2.951   3.577   4.541 -0.0450 -0.4561 -0.2827
17251SOL    HW157716   2.981   3.487   4.522 -0.0353 -0.3308 -0.8933
17251SOL    HW257717   2.973   3.626   4.462 -2.3475 -0.4652 -0.9811
17252SOL     OW57718   1.437   0.498  11.229 -0.3801 -0.2564  0.0282
17252SOL    HW157719   1.480   0.524  11.311  0.3400 -0.9433 -0.1162
17252SOL    HW257720   1.353   0.543  11.230 -0.2109  0.0514  0.9634
17253SOL     OW57721   3.032   8.724   0.460  0.3416 -0.1709 -0.0222
17253SOL    HW157722   3.113   8.775   0.456  0.4261 -0.3046 -0.0293
17253SOL    HW257723   2.990   8.752   0.541 -0.6154  1.4229 -1.0119
17254SOL     OW57724   5.596   5.755   1.229 -0.6999  0.3785  0.1416
17254SOL    HW157725   5.572   5.799   1.311  0.5798  2.6959 -0.6238
17254SOL    HW257726   5.571   5.664   1.243 -1.5420  0.8933  2.6787
17255SOL     OW57727   9.119   3.284   5.539 -0.1917  0.1654  0.0383
17255SOL    HW157728   9.176   3.359   5.560  1.4837 -0.8451 -0.6820
17255SOL    HW257729   9.087   3.255   5.625  1.0232  0.2889  0.5613
17256SOL     OW57730   3.418  10.440   2.036 -0.4719  0.0237  0.2609
17256SOL    HW157731   3.480  10.509   2.014 -1.7396  1.2837  0.4510
17256SOL    HW257732   3.434  10.421   2.128 -0.5504  0.5675  0.3922
17257SOL     OW57733   0.899  11.272   3.927 -0.4349 -0.1524  0.2040
17257SOL    HW157734   0.988  11.276   3.962 -0.1485 -1.3151 -0.3431
17257SOL    HW257735   0.885  11.179   3.908 -1.7423  0.0264  0.2066
17258SOL     OW57736   8.687   2.170  10.049  0.9927 -0.7301 -0.0648
17258SOL    HW157737   8.695   2.207   9.961 -0.0935 -0.2550  0.0103
17258SOL    HW257738   8.691   2.246  10.107  2.5624 -1.1200  0.3713
17259SOL     OW57739   6.005   1.903   4.546  0.3076  0.7858  0.6168
17259SOL    HW157740   6.036   1.895   4.636  1.5150 -0.8094  0.1107
17259SOL    HW257741   6.038   1.988   4.517  0.9165  0.7983  1.3182
17260SOL     OW57742   3.248   3.453   0.697 -0.3529 -0.3282  0.1634
17260SOL    HW157743   3.193   3.390   0.649  1.6166 -0.7303 -1.6899
17260SOL    HW257744   3.337   3.424   0.680  0.5113  0.9703  2.1773
17261SOL     OW57745   1.635  10.872   7.217  0.1281 -0.0298 -0.3475
17261SOL    HW157746   1.549  10.875   7.259 -0.2796  1.1530 -1.2048
17261SOL    HW257747   1.627  10.803   7.151 -1.3790  2.3407 -2.8244
17262SOL     OW57748   0.742  11.345   1.568 -0.4202 -0.5379 -0.0704
17262SOL    HW157749   0.836  11.326   1.571 -0.7356 -1.9716  1.4730
17262SOL    HW257750   0.704  11.293   1.638 -2.5861 -1.1055 -1.5592
17263SOL     OW57751   9.657  12.169  12.098  0.1008  0.3237  0.5428
17263SOL    HW157752   9.642  12.248  12.150  1.1408  1.6122 -1.0026
17263SOL    HW257753   9.751  12.153  12.106 -0.2509 -1.3855  1.6348
17264SOL     OW57754   7.705   3.931   5.730 -0.3430 -0.1611  0.6281
17264SOL    HW157755   7.625   3.955   5.777 -0.8264 -0.9815  0.2506
17264SOL    HW257756   7.776   3.971   5.781 -0.8559 -0.9785  2.0416
17265SOL     OW57757  11.342   1.481   6.421  0.1208  0.3550 -0.2047
17265SOL    HW157758  11.362   1.542   6.492 -0.1193  0.4345 -0.2027
17265SOL    HW257759  11.425   1.465   6.378  1.1251 -2.7296  2.4729
17266SOL     OW57760  11.258   0.761   9.004  0.2011 -0.0084  0.1460
17266SOL    HW157761  11.181   0.713   8.974 -0.3441  0.6818  0.4138
17266SOL    HW257762  11.233   0.796   9.090  0.9448 -0.0889  0.4039
17267SOL     OW57763  10.897   2.028  11.343  0.0035 -0.0447  0.2619
17267SOL    HW157764  10.984   2.069  11.337 -0.0008  0.2074  1.5963
17267SOL    HW257765  10.915   1.940  11.378 -0.2553 -0.0574  0.3618
17268SOL     OW57766   7.849   2.455   4.496 -0.1401 -0.0580 -0.1553
17268SOL    HW157767   7.781   2.391   4.476  0.0093  0.2871 -1.9300
17268SOL    HW257768   7.834   2.478   4.588 -1.0553 -1.5857  0.1085
17269SOL     OW57769   0.237   2.400   8.435  0.0097 -0.2403 -0.0312
17269SOL    HW157770   0.288   2.416   8.515 -0.7821  0.8584  0.2907
17269SOL    HW257771   0.173   2.333   8.460  0.1443 -0.3225  0.0896
17270SOL     OW57772   1.778  11.771   8.682  0.4097  0.0562 -0.2505
17270SOL    HW157773   1.824  11.792   8.763  2.2511 -1.0303 -0.9422
17270SOL    HW257774   1.761  11.677   8.688  2.6771 -0.5681 -2.0349
17271SOL     OW57775   7.128   8.502  12.458  0.2670  0.0913  0.4433
17271SOL    HW157776   7.222   8.495  12.478  0.7031 -1.5384 -1.7438
17271SOL    HW257777   7.126   8.520  12.364 -1.6095 -0.6826  0.3000
17272SOL     OW57778  10.234  11.890   4.607 -0.4530  0.1580 -0.0685
17272SOL    HW157779  10.265  11.801   4.590  0.0380  0.2245  0.4317
17272SOL    HW257780  10.222  11.928   4.520  0.1644 -0.1213 -0.2873
17273SOL     OW57781   7.986   3.117  10.790  0.0499 -0.2670 -0.3253
17273SOL    HW157782   8.079   3.130  10.771  0.1622 -1.4692 -0.6637
17273SOL    HW257783   7.983   3.045  10.852 -0.6161  0.4318  0.4821
17274SOL     OW57784   0.915   2.546   6.535 -0.2208 -0.0375  0.1025
17274SOL    HW157785   0.898   2.611   6.467  0.2683  0.0071  0.0218
17274SOL    HW257786   0.829   2.531   6.576 -0.6103 -0.4278 -0.8329
17275SOL     OW57787  12.139   5.168   5.592  0.4486 -0.1421 -0.4970
17275SOL    HW157788  12.105   5.167   5.681 -0.0403  1.6837 -0.6247
17275SOL    HW257789  12.231   5.195   5.601  0.5650 -0.5310 -0.5052
17276SOL     OW57790   7.496  10.554   1.719  0.4379  0.4125 -0.2163
17276SOL    HW157791   7.534  10.468   1.738  2.1560  1.1642 -0.0304
17276SOL    HW257792   7.503  10.602   1.802 -1.4485  0.4386 -0.0267
17277SOL     OW57793   7.369   2.863   1.627 -0.3846  0.4054 -0.2218
17277SOL    HW157794   7.318   2.934   1.666  0.7946  1.2835 -0.2208
17277SOL    HW257795   7.323   2.843   1.545 -1.1356  0.6594  0.1240
17278SOL     OW57796   0.608   2.580   3.503  0.0815  0.0343 -0.6015
17278SOL    HW157797   0.581   2.666   3.472  0.9068 -0.1365 -1.8569
17278SOL    HW257798   0.543   2.520   3.466 -0.1267  0.0456 -0.2576
17279SOL     OW57799   7.921   5.879   9.723  0.2522 -0.5821 -0.1302
17279SOL    HW157800   7.946   5.969   9.741 -1.1521 -0.0226 -0.8503
17279SOL    HW257801   8.002   5.836   9.697  1.5056 -0.2612  2.8068
17280SOL     OW57802  10.999   8.163   1.979 -0.2657  0.4474 -0.5791
17280SOL    HW157803  11.071   8.105   2.004  0.5595  1.3412 -0.8153
17280SOL    HW257804  10.971   8.130   1.894 -0.5255 -0.2515 -0.2337
17281SOL     OW57805  12.365  12.440   9.518 -0.4864  0.4047 -0.2001
17281SOL    HW157806  12.416  12.402   9.446  0.4305  1.1394  0.0460
17281SOL    HW257807  12.274  12.436   9.488 -0.2967 -0.8826 -0.6707
17282SOL     OW57808   8.289   4.692  12.002  0.2186 -0.8113 -0.3892
17282SOL    HW157809   8.345   4.769  12.009 -0.1264 -0.1881 -3.3775
17282SOL    HW257810   8.239   4.692  12.084  1.5963  0.9953  0.5246
17283SOL     OW57811  11.152   7.770   2.553  0.2276 -0.2775  0.0715
17283SOL    HW157812  11.123   7.848   2.506  0.6563 -1.0681 -1.5770
17283SOL    HW257813  11.132   7.789   2.645 -1.8602  0.7988 -0.5322
17284SOL     OW57814  12.283  10.968   0.986 -0.2322  0.3551 -0.4113
17284SOL    HW157815  12.281  11.007   1.073  0.4528  0.3480 -0.3843
17284SOL    HW257816  12.234  10.886   0.996 -1.2295  0.9511 -0.3468
17285SOL     OW57817  10.605   7.675   0.398 -0.0627 -0.2202 -0.2545
17285SOL    HW157818  10.674   7.673   0.464  1.3281  1.5699 -1.5465
17285SOL    HW257819  10.613   7.592   0.352  0.8439 -0.2742 -0.0100
17286SOL     OW57820   1.731   5.732  11.872 -0.0870  0.4453  0.0037
17286SOL    HW157821   1.708   5.812  11.825  0.2602  1.0075  0.7675
17286SOL    HW257822   1.657   5.714  11.929  0.0260  0.4692  0.1578
17287SOL     OW57823   9.229   7.856  10.008  0.0116  0.1215 -0.2245
17287SOL    HW157824   9.158   7.906  10.047 -0.1836  0.8156 -1.4058
17287SOL    HW257825   9.218   7.868   9.913  1.9180  0.5506 -0.4424
17288SOL     OW57826  10.812   6.046   6.668  0.6938  0.0574  0.1660
17288SOL    HW157827  10.843   6.003   6.748 -4.1901  0.3340  2.5701
17288SOL    HW257828  10.827   5.982   6.599  1.2122 -2.0508  2.0964
17289SOL     OW57829   0.873   7.520   9.941  0.0687  0.3245  0.3151
17289SOL    HW157830   0.864   7.453   9.874  1.1326  2.7586 -2.5141
17289SOL    HW257831   0.789   7.566   9.940  0.5368  1.2047 -0.4160
17290SOL     OW57832   8.355   8.648   0.033  0.2625  0.1414 -0.0746
17290SOL    HW157833   8.396   8.643  -0.054  0.4022 -0.1816  0.0066
17290SOL    HW257834   8.394   8.575   0.081  0.4709  0.5551  0.3837
17291SOL     OW57835   5.001   9.361   1.787  0.6179 -0.1995  0.5145
17291SOL    HW157836   5.056   9.435   1.815 -0.1388  0.6832 -0.2516
17291SOL    HW257837   5.063   9.290   1.773  1.3635  0.2497  1.3598
17292SOL     OW57838   9.041   0.700   2.738 -0.2922  0.7552  0.3553
17292SOL    HW157839   9.068   0.609   2.749  1.4577  1.3953  1.9562
17292SOL    HW257840   9.065   0.743   2.820  0.4582  2.9951 -0.9332
17293SOL     OW57841   6.440   1.752   8.835  0.6533  0.0473 -0.1458
17293SOL    HW157842   6.471   1.819   8.897  0.0133  0.5309 -0.3466
17293SOL    HW257843   6.345   1.763   8.834  0.6019 -0.4585 -0.6488
17294SOL     OW57844   0.650   8.210  10.650 -0.6903  0.5705  0.1152
17294SOL    HW157845   0.607   8.166  10.724  0.6276  1.4170  1.4370
17294SOL    HW257846   0.654   8.302  10.676  1.5696  0.5887 -0.0889
17295SOL     OW57847  10.948   4.553   2.254  0.4439 -0.4296 -0.4401
17295SOL    HW157848  11.029   4.605   2.253  0.8043 -0.8887  1.3433
17295SOL    HW257849  10.950   4.504   2.172  1.9791 -0.4090 -0.4496
17296SOL     OW57850   2.222   7.843   9.902 -0.0312  0.1693 -0.0006
17296SOL    HW157851   2.276   7.799   9.967 -1.5970 -0.5761  0.8324
17296SOL    HW257852   2.168   7.774   9.864 -1.3858  1.0915  0.1835
17297SOL     OW57853  10.614   0.971   4.716 -0.1206 -0.2155 -0.0569
17297SOL    HW157854  10.614   1.024   4.796  0.5489  0.7143 -0.6422
17297SOL    HW257855  10.555   1.018   4.657  0.5668 -0.0431 -0.6210
17298SOL     OW57856   3.817  10.563  10.458  0.5781  0.4244 -0.2623
17298SOL    HW157857   3.747  10.566  10.393  1.1659  0.2518 -0.9214
17298SOL    HW257858   3.897  10.581  10.408  1.2563 -1.4204  0.0912
17299SOL     OW57859   2.580   1.702   7.681  0.0861 -0.5704  0.0949
17299SOL    HW157860   2.485   1.711   7.681 -0.0860 -1.7130 -2.2893
17299SOL    HW257861   2.612   1.788   7.655 -0.2375 -0.1049  1.1607
17300SOL     OW57862   7.497   6.195   7.275 -0.0593 -0.2374  0.6985
17300SOL    HW157863   7.517   6.201   7.182 -0.4054  1.4986  0.7022
17300SOL    HW257864   7.441   6.118   7.283 -2.6669  1.3328 -1.0718
17301SOL     OW57865   1.779   2.102  11.637 -0.5386 -0.4738  0.1531
17301SOL    HW157866   1.783   2.053  11.719 -0.6435 -2.8558 -1.1763
17301SOL    HW257867   1.693   2.081  11.601  0.7539 -2.2797 -2.1423
17302SOL     OW57868   0.300   6.834   9.958 -0.5102 -0.2415 -0.1688
17302SOL    HW157869   0.355   6.910   9.939 -0.1401 -0.5199 -0.2214
17302SOL    HW257870   0.315   6.775   9.884  0.6339 -1.1667  0.7606
17303SOL     OW57871   0.690   0.151   8.488  0.5819  0.1360 -0.1686
17303SOL    HW157872   0.631   0.225   8.501 -0.2307 -0.6333  0.7363
17303SOL    HW257873   0.777   0.190   8.484  0.0104  1.3389 -1.9478
17304SOL     OW57874   2.579  11.987   9.816 -0.2424 -0.1425  0.0940
17304SOL    HW157875   2.530  12.069   9.808 -0.8312 -0.6130 -1.3097
17304SOL    HW257876   2.667  12.015   9.840 -0.1217  1.0069 -1.4906
17305SOL     OW57877   1.913   8.676  10.702  0.4370 -0.4405 -0.1951
17305SOL    HW157878   1.965   8.754  10.720 -1.2098  0.6251  0.2133
17305SOL    HW257879   1.843   8.707  10.645 -0.7167 -1.4270  0.6370
17306SOL     OW57880   6.151   8.073   7.177 -0.2102 -0.3191  0.3225
17306SOL    HW157881   6.156   8.020   7.257  1.3154  0.5269  0.8459
17306SOL    HW257882   6.225   8.134   7.185 -0.4886  0.2870 -1.3864
17307SOL     OW57883  10.885   9.110  10.428 -0.5661 -0.4410  0.2164
17307SOL    HW157884  10.868   9.087  10.519 -0.5134  2.5053  1.0521
17307SOL    HW257885  10.972   9.076  10.410 -0.4341 -0.7418  1.3683
17308SOL     OW57886   9.284   1.237   7.575  0.0275  0.2926  0.0608
17308SOL    HW157887   9.299   1.248   7.481 -0.3718  0.4093  0.0093
17308SOL    HW257888   9.197   1.198   7.580 -0.5256  1.5164  0.4299
17309SOL     OW57889   1.262   5.109   4.328 -0.8795 -0.0852  0.0207
17309SOL    HW157890   1.214   5.128   4.409 -1.4674 -1.9975  0.1686
17309SOL    HW257891   1.353   5.103   4.356 -0.9624  0.1853  0.3663
17310SOL     OW57892   5.363   0.728   9.729 -0.2463 -0.6261  0.5911
17310SOL    HW157893   5.374   0.661   9.797  0.5022 -0.3948  0.7155
17310SOL    HW257894   5.453   0.749   9.702 -0.3543  1.3401  1.5687
17311SOL     OW57895   7.390   7.489   7.980  0.3689 -0.0805 -0.3667
17311SOL    HW157896   7.332   7.488   8.056  0.8187  0.1614 -0.0181
17311SOL    HW257897   7.367   7.570   7.934 -0.3762 -0.5632 -0.8624
17312SOL     OW57898   5.954  10.268  12.303 -0.1867 -0.1501  0.3007
17312SOL    HW157899   6.024  10.266  12.368  1.4412 -2.4308 -1.3414
17312SOL    HW257900   5.967  10.350  12.256  1.1379 -0.3418  0.3005
17313SOL     OW57901   0.642   1.108   4.453 -0.2713 -0.1309  0.2201
17313SOL    HW157902   0.651   1.096   4.548 -3.6156 -1.4891  0.4962
17313SOL    HW257903   0.654   1.020   4.417 -0.3564  0.1348 -0.4712
17314SOL     OW57904   7.927   8.489   1.525 -0.7719  0.8731 -0.0352
17314SOL    HW157905   7.944   8.456   1.437 -2.2655 -1.4839  0.4706
17314SOL    HW257906   7.832   8.484   1.534 -0.9210  3.7030  0.7988
17315SOL     OW57907   1.011   1.662   9.168  0.1712  0.2875 -0.1208
17315SOL    HW157908   1.003   1.589   9.228 -1.6359  0.4214 -0.1546
17315SOL    HW257909   1.096   1.649   9.125  0.8839 -0.5370  1.4638
17316SOL     OW57910   4.789   0.735   7.863  0.1226  0.5591  0.3338
17316SOL    HW157911   4.881   0.752   7.842  0.2283 -1.4569 -1.1349
17316SOL    HW257912   4.772   0.647   7.828 -2.2323  0.6726  1.0159
17317SOL     OW57913   3.371   1.094   6.589 -0.0597 -0.2443  0.3766
17317SOL    HW157914   3.396   1.182   6.617 -2.0026  0.6533 -0.6020
17317SOL    HW257915   3.350   1.049   6.671  0.4829  0.3188  0.8444
17318SOL     OW57916  10.883  11.053   1.677  0.6079 -0.0587  0.5036
17318SOL    HW157917  10.957  11.045   1.617  0.5847 -1.1688  0.6042
17318SOL    HW257918  10.835  10.971   1.668 -1.0178  0.8957 -0.0596
17319SOL     OW57919   2.008   1.819   7.023  0.4024  0.2624  0.3048
17319SOL    HW157920   1.930   1.836   6.972  0.9814 -1.0965 -1.1036
17319SOL    HW257921   2.007   1.887   7.091 -1.7039  0.5754  0.0314
17320SOL     OW57922   0.979   8.288   9.315  0.0835  0.0355 -0.6864
17320SOL    HW157923   0.961   8.368   9.265  1.2097  0.7492  0.0038
17320SOL    HW257924   1.046   8.242   9.264 -1.3924 -1.1149 -1.7011
17321SOL     OW57925   2.162   7.767   4.696 -0.7052  0.4240  0.1593
17321SOL    HW157926   2.205   7.793   4.615  0.5357 -1.5443  0.0903
17321SOL    HW257927   2.234   7.757   4.759 -1.3035 -0.7375  0.7051
17322SOL     OW57928   0.416  12.184   9.540 -0.3859  0.0250 -0.3082
17322SOL    HW157929   0.452  12.265   9.574 -0.5071  0.2047 -0.6031
17322SOL    HW257930   0.321  12.194   9.547 -0.4892  0.6933 -2.0695
17323SOL     OW57931   3.274   8.795  10.420 -0.7380  0.8755 -0.3407
17323SOL    HW157932   3.331   8.756  10.487 -1.7308 -3.0242 -1.4940
17323SOL    HW257933   3.304   8.885  10.412  1.1374  0.7841  3.4425
17324SOL     OW57934  12.258  10.192   2.202 -0.3106 -0.1873  0.0943
17324SOL    HW157935  12.177  10.240   2.182  0.8413  0.9740 -2.1184
17324SOL    HW257936  12.313  10.254   2.249 -0.0263 -0.4095  0.0584
17325SOL     OW57937   1.934   7.711   6.004 -0.3746  0.4533  0.0786
17325SOL    HW157938   1.842   7.722   5.978 -0.0692  0.2705 -1.1724
17325SOL    HW257939   1.936   7.732   6.097 -1.9337 -0.8895  0.4436
17326SOL     OW57940   4.274   8.488   7.320 -0.2012  0.0339  0.3506
17326SOL    HW157941   4.309   8.412   7.366 -0.3351  0.4228  1.1064
17326SOL    HW257942   4.302   8.563   7.372  2.4032  0.7754 -1.8532
17327SOL     OW57943  11.552   6.848   7.378 -0.0104 -0.5875  0.2508
17327SOL    HW157944  11.608   6.852   7.455  0.3610 -0.3902 -0.0250
17327SOL    HW257945  11.475   6.900   7.400 -0.3610 -1.3410  0.8519
17328SOL     OW57946  11.046   5.624   6.826  0.1842  0.3132 -0.0924
17328SOL    HW157947  11.003   5.650   6.908  1.4879  0.6383  0.5033
17328SOL    HW257948  11.072   5.706   6.786  1.2605  0.0856  0.1164
17329SOL     OW57949   1.890   9.107  11.583  0.6873  0.0781  0.3750
17329SOL    HW157950   1.894   9.198  11.552  0.5321 -0.6519 -1.9539
17329SOL    HW257951   1.802   9.077  11.558  0.3621 -0.4546  2.0237
17330SOL     OW57952   3.293   6.079   1.087 -0.2319 -0.1314  0.3952
17330SOL    HW157953   3.294   6.173   1.068 -2.9740  0.1475  1.2072
17330SOL    HW257954   3.230   6.043   1.025  2.2777 -1.8826 -1.3187
17331SOL     OW57955   1.842   3.930   5.225 -0.0028 -0.4133 -0.7644
17331SOL    HW157956   1.878   3.989   5.158  1.3381 -1.3559 -0.9188
17331SOL    HW257957   1.918   3.880   5.255 -0.0456  1.4415  3.0607
17332SOL     OW57958   6.656  10.673   9.238 -0.5239 -0.2225 -0.0291
17332SOL    HW157959   6.660  10.592   9.289 -0.7535 -1.0815 -1.3294
17332SOL    HW257960   6.587  10.724   9.280 -1.5129 -1.4121 -0.1577
17333SOL     OW57961   0.577   2.304   8.135  0.4184 -0.0216 -0.1270
17333SOL    HW157962   0.621   2.286   8.052 -0.7293 -0.7304 -0.6169
17333SOL    HW257963   0.611   2.388   8.163  1.2361 -0.0297 -1.0431
17334SOL     OW57964   2.681   0.296  10.467  0.8127 -0.0677 -0.2500
17334SOL    HW157965   2.774   0.273  10.455  0.4728 -0.6206 -2.2781
17334SOL    HW257966   2.683   0.382  10.509  2.3079  0.7668 -1.8716
17335SOL     OW57967   0.255   6.033   0.968 -0.0516  0.0818 -0.2172
17335SOL    HW157968   0.290   5.974   0.901  1.7422  1.2142 -0.3709
17335SOL    HW257969   0.177   6.072   0.928 -1.7233 -2.6575  0.1788
17336SOL     OW57970   0.006   6.517   2.691 -0.0412  0.6269 -0.4366
17336SOL    HW157971   0.008   6.536   2.785 -0.5928 -0.5546 -0.1715
17336SOL    HW257972  -0.057   6.580   2.655  0.9055  1.7419 -0.1865
17337SOL     OW57973   1.258   9.607  10.484 -0.4828 -0.3364 -0.0484
17337SOL    HW157974   1.203   9.663  10.429 -2.2931 -2.5399 -0.6595
17337SOL    HW257975   1.205   9.592  10.562  1.3339  1.3231  1.5967
17338SOL     OW57976   2.107   7.012   3.353  0.2152  0.4869 -0.4581
17338SOL    HW157977   2.146   6.954   3.288 -0.4424  0.2726 -0.6650
17338SOL    HW257978   2.103   7.097   3.310  0.3877  0.4912 -0.4642
17339SOL     OW57979   9.190   5.830   4.099 -1.0188  0.5530  0.6433
17339SOL    HW157980   9.269   5.847   4.149 -0.8041 -1.5482  1.1134
17339SOL    HW257981   9.220   5.782   4.021 -1.5209  2.4479 -0.7912
17340SOL     OW57982   1.366   8.786   2.076  0.3107  0.5196 -0.3982
17340SOL    HW157983   1.315   8.866   2.086 -0.1654  0.2144 -0.3894
17340SOL    HW257984   1.374   8.752   2.165 -0.6486 -0.1578 -0.5537
17341SOL     OW57985   0.951  10.702   2.290  0.5993  0.2440 -0.3923
17341SOL    HW157986   0.971  10.762   2.218  0.9609  1.9279  1.0487
17341SOL    HW257987   0.865  10.730   2.322 -0.9031 -2.2909 -1.8836
17342SOL     OW57988   7.674   6.731   8.700 -0.5752  0.5529  0.3321
17342SOL    HW157989   7.598   6.709   8.753 -0.0129  1.4323  1.5292
17342SOL    HW257990   7.657   6.820   8.669 -0.8409  0.0983 -0.8867
17343SOL     OW57991   5.357   0.589  11.051 -0.2084  0.8357  0.3059
17343SOL    HW157992   5.299   0.603  10.976  0.0400  1.7178  0.2691
17343SOL    HW257993   5.427   0.534  11.018 -0.1508  1.1434 -0.0820
17344SOL     OW57994   4.615   2.210   5.565  0.2338  0.0702  0.3213
17344SOL    HW157995   4.587   2.216   5.474 -0.8740 -1.7419  0.5054
17344SOL    HW257996   4.629   2.301   5.591  1.7581  0.5737 -1.9712
17345SOL     OW57997  10.534   1.424   2.636  0.8761 -0.7072  0.2550
17345SOL    HW157998  10.585   1.420   2.555 -0.1804 -0.0319 -0.4644
17345SOL    HW257999  10.583   1.368   2.697  2.5954  0.0942 -0.3164
17346SOL     OW58000   2.635   5.009   6.502 -0.3204  0.3783  0.0593
17346SOL    HW158001   2.703   4.955   6.543 -0.7833  0.3275  0.7782
17346SOL    HW258002   2.648   5.096   6.541 -0.1010  0.5984 -0.4837
17347SOL     OW58003   3.566  10.456  11.841  0.2998 -0.5985 -0.0095
17347SOL    HW158004   3.512  10.419  11.771  1.0333 -0.8146 -0.4744
17347SOL    HW258005   3.514  10.443  11.921 -0.8914  0.3362 -0.5939
17348SOL     OW58006  11.537  11.314   1.397 -0.0543  0.1657 -0.1842
17348SOL    HW158007  11.597  11.383   1.369 -1.9069  1.1595 -2.0522
17348SOL    HW258008  11.544  11.247   1.329 -0.9509  0.2623 -0.3932
17349SOL     OW58009   9.117   9.969   2.446 -0.4379  0.0440 -0.1158
17349SOL    HW158010   9.091   9.966   2.538 -1.8360 -0.6516 -0.4943
17349SOL    HW258011   9.200   9.922   2.442 -0.4142 -0.0005  0.7756
17350SOL     OW58012   5.682   9.407   6.203 -0.1725  0.3145 -0.1954
17350SOL    HW158013   5.618   9.359   6.254  0.9602 -0.0223  0.9565
17350SOL    HW258014   5.710   9.345   6.135  0.9716 -0.5837  1.0254
17351SOL     OW58015  11.413   3.345   1.418  0.7693 -0.4028  0.6788
17351SOL    HW158016  11.446   3.418   1.366 -1.1508  1.9122  2.4559
17351SOL    HW258017  11.319   3.344   1.400  0.9044 -3.5328 -0.4469
17352SOL     OW58018  11.746   6.465   6.878 -0.2753 -0.2025  0.0481
17352SOL    HW158019  11.818   6.475   6.940 -0.6311  0.7833  0.3186
17352SOL    HW258020  11.739   6.371   6.865  0.5535 -0.3566  0.6144
17353SOL     OW58021   5.977   0.761   4.708 -0.0783 -0.5401  0.8229
17353SOL    HW158022   5.974   0.690   4.773 -1.1994 -1.0495  0.2408
17353SOL    HW258023   5.890   0.762   4.669  0.4118  0.1051 -0.3163
17354SOL     OW58024   3.165   6.628  11.436  0.3957  0.6092 -0.1121
17354SOL    HW158025   3.082   6.593  11.402  1.1917 -1.6224  0.1138
17354SOL    HW258026   3.138   6.687  11.506 -1.0313 -0.1855  0.0606
17355SOL     OW58027   2.699  10.378   0.793  0.1993 -0.0539 -0.3523
17355SOL    HW158028   2.702  10.429   0.875  0.7100  0.6612 -0.8061
17355SOL    HW258029   2.777  10.405   0.745 -0.7738  0.5350 -1.6590
17356SOL     OW58030  11.254   4.492   0.136 -0.2869  0.7601 -0.0537
17356SOL    HW158031  11.260   4.568   0.078 -2.3608  1.0214 -0.0003
17356SOL    HW258032  11.344   4.463   0.146  0.2004  0.4682 -3.7096
17357SOL     OW58033   4.196   0.515   6.281 -0.0574 -0.8078  0.2538
17357SOL    HW158034   4.115   0.472   6.308  0.3027 -0.9418  1.1710
17357SOL    HW258035   4.181   0.540   6.190 -0.5106 -2.3259 -0.1207
17358SOL     OW58036   7.844   7.235   8.719 -0.1995 -0.3596  0.0372
17358SOL    HW158037   7.792   7.307   8.756 -1.1781 -1.0669  0.0671
17358SOL    HW258038   7.832   7.163   8.780 -1.4705 -1.4036 -1.3527
17359SOL     OW58039   6.837   5.556   0.658  0.2748  0.4545 -0.1223
17359SOL    HW158040   6.859   5.629   0.716 -0.5986  1.6741 -1.2628
17359SOL    HW258041   6.810   5.486   0.717 -1.5509  1.9893  0.9720
17360SOL     OW58042   9.374  11.109   8.192 -0.0716 -0.0279  0.3889
17360SOL    HW158043   9.334  11.163   8.260 -0.5817  2.4659 -1.7221
17360SOL    HW258044   9.468  11.123   8.201 -0.1032 -0.1129  0.8605
17361SOL     OW58045  11.304  12.313   2.229 -0.5687 -0.4280 -0.0029
17361SOL    HW158046  11.312  12.218   2.234 -1.4195 -0.4886  0.3209
17361SOL    HW258047  11.212  12.329   2.209 -0.3082  0.3157 -0.6522
17362SOL     OW58048   7.079   8.600  10.460  0.1944 -0.8287  0.1486
17362SOL    HW158049   7.048   8.652  10.533  2.7642  0.0353  0.7211
17362SOL    HW258050   7.036   8.515  10.471 -3.0184  0.6316 -0.0335
17363SOL     OW58051   3.524   9.267   4.633 -0.6136 -0.1575 -0.0393
17363SOL    HW158052   3.549   9.226   4.716  0.1762 -1.0091 -0.6867
17363SOL    HW258053   3.488   9.195   4.581  0.6815 -0.0399 -1.1445
17364SOL     OW58054  12.100  11.111   9.858  0.2453 -0.4766 -0.2936
17364SOL    HW158055  12.170  11.107   9.923 -0.2991  1.2556  0.4534
17364SOL    HW258056  12.097  11.203   9.831 -3.0132 -0.0061  1.1870
17365SOL     OW58057   8.416  11.578  11.597 -0.2934  0.2844  0.7171
17365SOL    HW158058   8.456  11.614  11.677 -0.1700 -2.4536  2.0009
17365SOL    HW258059   8.409  11.484  11.614 -0.5170 -0.3739 -2.4280
17366SOL     OW58060  12.129   0.125  10.357 -0.0079 -0.0329  0.3854
17366SOL    HW158061  12.088   0.196  10.406  0.6775  1.8096 -1.5407
17366SOL    HW258062  12.217   0.118  10.393  0.0263  0.3338  0.3788
17367SOL     OW58063   7.121   1.615   5.400  0.3043 -0.1603 -0.6964
17367SOL    HW158064   7.202   1.658   5.373 -0.6046  0.5367 -2.5008
17367SOL    HW258065   7.088   1.574   5.321 -0.2267 -1.9840  0.4150
17368SOL     OW58066  10.110   9.234   6.581  0.3541 -0.0087 -0.6304
17368SOL    HW158067  10.131   9.179   6.657 -0.6112 -1.7562 -1.5849
17368SOL    HW258068  10.019   9.260   6.595  0.3895  0.2344 -0.8587
17369SOL     OW58069   9.106   0.401   2.989  0.7559  0.3089  0.1014
17369SOL    HW158070   9.091   0.481   3.039 -0.0585 -0.7720  1.6594
17369SOL    HW258071   9.103   0.331   3.054  0.9801 -1.0455 -1.2913
17370SOL     OW58072   0.820   5.825   6.758  0.1851  0.3846 -0.1363
17370SOL    HW158073   0.773   5.752   6.717  0.3488  1.0464 -1.5622
17370SOL    HW258074   0.875   5.860   6.688  0.8626  1.2513  0.8032
17371SOL     OW58075  10.147   2.147   6.056 -0.2445 -0.1922 -0.4987
17371SOL    HW158076  10.156   2.071   5.998 -0.4111 -0.2418 -0.4574
17371SOL    HW258077  10.228   2.197   6.041 -0.1024 -0.4112 -0.4754
17372SOL     OW58078  11.115   9.864   7.558 -0.3988 -0.0615 -0.2065
17372SOL    HW158079  11.140   9.954   7.536  2.1222 -1.2411 -2.7791
17372SOL    HW258080  11.020   9.862   7.545 -0.4043  2.0338 -0.8172
17373SOL     OW58081   4.085   9.086   5.787 -0.1079 -0.1203 -0.0017
17373SOL    HW158082   4.038   9.153   5.835  0.0376  1.3045 -1.7421
17373SOL    HW258083   4.173   9.088   5.823 -0.7040 -1.1392  1.6310
17374SOL     OW58084   7.333   7.859   3.656 -0.2724  0.1971 -0.5289
17374SOL    HW158085   7.349   7.766   3.666 -0.4702  0.3043  0.9215
17374SOL    HW258086   7.337   7.895   3.745 -0.7090  1.4886 -0.9982
17375SOL     OW58087   2.934   6.101   4.325 -0.2477  0.0709  0.4486
17375SOL    HW158088   2.954   6.129   4.235  0.2058  0.3695  0.6388
17375SOL    HW258089   3.012   6.054   4.353  0.0328  0.8565  1.0406
17376SOL     OW58090  10.722   3.282   1.454 -0.2169 -0.4790 -0.2885
17376SOL    HW158091  10.652   3.222   1.482  0.2693 -0.1826  1.6828
17376SOL    HW258092  10.712   3.359   1.510  1.4994 -0.3078 -0.1733
17377SOL     OW58093  12.121   1.039   4.346 -0.2826  0.5463 -0.0615
17377SOL    HW158094  12.041   1.040   4.293 -0.6705  0.3540  0.5137
17377SOL    HW258095  12.090   1.046   4.436  0.4503  2.9104  0.0862
17378SOL     OW58096  11.323   6.783   1.792 -0.4938 -0.2300 -0.1378
17378SOL    HW158097  11.333   6.809   1.884 -1.7354  1.9871 -0.5570
17378SOL    HW258098  11.400   6.821   1.749  0.0785 -1.2549 -0.0732
17379SOL     OW58099   2.063  11.713   2.295  0.1300  0.4244  0.3976
17379SOL    HW158100   2.053  11.667   2.212 -1.5915  1.4747 -0.0425
17379SOL    HW258101   2.127  11.781   2.278 -0.0718  0.5104 -0.0187
17380SOL     OW58102   9.389   6.273   7.247 -0.3135 -0.4965  0.0199
17380SOL    HW158103   9.351   6.215   7.312 -2.4089 -0.1595 -0.8253
17380SOL    HW258104   9.338   6.257   7.167 -0.9377  2.3979 -0.2829
17381SOL     OW58105   0.265  10.636   5.818 -0.4802 -0.0351 -0.1525
17381SOL    HW158106   0.332  10.628   5.750 -0.1633 -1.0887  0.2508
17381SOL    HW258107   0.301  10.700   5.880 -0.1628 -0.0762 -0.2939
17382SOL     OW58108   3.234   5.881   4.136 -0.6898 -0.3560  0.1732
17382SOL    HW158109   3.329   5.889   4.130 -0.7909  1.2743  0.2572
17382SOL    HW258110   3.217   5.855   4.226 -0.3845  1.4433  0.7961
17383SOL     OW58111   4.266  10.055   0.264  0.6838 -0.5194 -0.0158
17383SOL    HW158112   4.303  10.114   0.198  0.1380 -0.7885 -0.5709
17383SOL    HW258113   4.310   9.972   0.248 -0.1776 -0.8593 -0.7226
17384SOL     OW58114  10.047  12.183  11.528  0.1747  0.6596 -0.2939
17384SOL    HW158115  10.042  12.274  11.499 -1.6098  0.7526  0.1749
17384SOL    HW258116   9.958  12.162  11.557  0.9084 -0.7285  1.1301
17385SOL     OW58117   2.196  12.200   3.577  0.3235  0.1839 -0.1780
17385SOL    HW158118   2.270  12.140   3.584  1.2125  1.3941  1.9749
17385SOL    HW258119   2.128  12.161   3.631  0.8049  0.9032  0.9964
17386SOL     OW58120   0.622  11.464   8.541  0.1109  0.0928 -0.3942
17386SOL    HW158121   0.711  11.429   8.538 -0.0249 -0.4960  1.4556
17386SOL    HW258122   0.600  11.480   8.449  2.1921  0.4677 -0.8912
17387SOL     OW58123   4.786   5.889   6.781 -0.2970 -0.2716  0.5981
17387SOL    HW158124   4.711   5.845   6.741  0.0372 -0.1656 -0.1627
17387SOL    HW258125   4.813   5.830   6.852  0.1099 -1.2900 -0.3738
17388SOL     OW58126   2.898   0.490   8.863  0.5650 -0.1011 -0.0857
17388SOL    HW158127   2.938   0.444   8.936 -0.8974 -1.4044 -0.0528
17388SOL    HW258128   2.806   0.501   8.889  0.4473  1.1186 -0.9242
17389SOL     OW58129   7.662   2.309  12.470  0.3008  0.3282 -0.5182
17389SOL    HW158130   7.642   2.265  12.388  1.8146  0.0602 -0.7720
17389SOL    HW258131   7.705   2.390  12.444 -0.1670  0.7481 -0.0055
17390SOL     OW58132   8.916   7.178  12.350  0.0182  0.0829  0.0829
17390SOL    HW158133   8.965   7.148  12.426 -0.2201  0.8077  0.5376
17390SOL    HW258134   8.978   7.230  12.300  0.9438 -2.4449 -1.6081
17391SOL     OW58135  10.951   4.539   7.326 -0.1543 -0.5326  0.3014
17391SOL    HW158136  10.908   4.552   7.241 -0.5075 -0.2609  0.5230
17391SOL    HW258137  11.015   4.470   7.309 -2.0796 -2.4479  0.4466
17392SOL     OW58138   0.690  11.786   5.928 -0.4449 -0.3949  0.7562
17392SOL    HW158139   0.766  11.843   5.914 -0.6647 -0.3076 -0.1516
17392SOL    HW258140   0.651  11.777   5.841 -1.1467 -0.9045  1.1180
17393SOL     OW58141   1.656   9.450   2.933  0.4721 -0.4791  0.8968
17393SOL    HW158142   1.598   9.489   2.999  0.5858 -0.6296  1.0878
17393SOL    HW258143   1.728   9.512   2.924 -1.1585  1.2312 -1.5447
17394SOL     OW58144   6.244   9.979   2.415  0.1414  0.9742 -0.7124
17394SOL    HW158145   6.240  10.072   2.436  2.0755  1.2269 -1.2996
17394SOL    HW258146   6.315   9.945   2.469  0.0391  0.0343 -1.1453
17395SOL     OW58147   1.003   3.317  10.629  0.2009 -0.0965  0.1302
17395SOL    HW158148   1.076   3.376  10.612  0.0004  0.0316 -0.2926
17395SOL    HW258149   0.953   3.316  10.548  1.0317 -2.0429 -0.4033
17396SOL     OW58150   6.586   8.179   2.783 -0.5817 -0.3569 -0.0189
17396SOL    HW158151   6.664   8.180   2.727  0.1123 -1.6291  0.8671
17396SOL    HW258152   6.525   8.121   2.737 -0.3093 -0.7880  0.1583
17397SOL     OW58153   2.935   4.004   7.032 -0.2019 -0.1032  0.2168
17397SOL    HW158154   2.948   4.060   6.955 -2.6705 -1.4784 -1.3127
17397SOL    HW258155   2.909   3.919   6.997  0.3256 -1.3312  2.5617
17398SOL     OW58156   3.841   6.059  11.028  0.3890  0.7582  0.1142
17398SOL    HW158157   3.894   6.099  11.096  0.6940 -0.4899  0.6327
17398SOL    HW258158   3.900   5.997  10.984 -0.4385 -0.2009  0.3036
17399SOL     OW58159   5.638   0.068   4.394  0.0403 -0.2149  0.1213
17399SOL    HW158160   5.732   0.085   4.392  0.0817 -0.4181  0.2971
17399SOL    HW258161   5.622   0.016   4.315 -0.3171  1.7585 -1.1830
17400SOL     OW58162   2.836   0.408  12.062 -0.1510  0.3301 -0.0754
17400SOL    HW158163   2.892   0.330  12.058  0.9252  1.0870 -0.2725
17400SOL    HW258164   2.793   0.402  12.147 -0.6192 -0.8255 -0.3744
17401SOL     OW58165   4.482   0.167   6.567 -0.5433 -0.2992 -0.1612
17401SOL    HW158166   4.527   0.089   6.535  0.5896 -0.2304  1.1883
17401SOL    HW258167   4.551   0.221   6.605 -1.6504  0.1825  1.2528
17402SOL     OW58168   0.795   3.277   8.363 -1.0919 -0.2062 -0.1219
17402SOL    HW158169   0.883   3.297   8.330 -1.6334  0.9886 -0.9154
17402SOL    HW258170   0.775   3.191   8.327 -0.1050 -0.6631  0.3869
17403SOL     OW58171  10.889   3.598  10.279 -0.5714  0.4254  0.0953
17403SOL    HW158172  10.913   3.638  10.363  2.1634 -0.9618  0.0917
17403SOL    HW258173  10.953   3.633  10.217 -0.0095 -1.5653 -0.5200
17404SOL     OW58174   2.252   7.687   7.858 -0.2017  0.4217  0.0409
17404SOL    HW158175   2.206   7.629   7.798  0.2118  0.2048 -0.0739
17404SOL    HW258176   2.272   7.632   7.934 -1.4999  0.9225  0.7775
17405SOL     OW58177   6.217   4.857   2.264  0.5715 -0.1854  0.0981
17405SOL    HW158178   6.310   4.874   2.283  0.1873  0.8228  1.2443
17405SOL    HW258179   6.179   4.838   2.350  0.0452 -2.5200 -0.5723
17406SOL     OW58180  11.437   5.471  10.322  0.1969  0.1979  0.7351
17406SOL    HW158181  11.366   5.491  10.384  0.8519 -0.2440  1.6566
17406SOL    HW258182  11.394   5.424  10.251 -0.5114  0.3481  1.0523
17407SOL     OW58183  12.255   2.184   0.770 -0.3186 -0.2349  0.1960
17407SOL    HW158184  12.258   2.221   0.858  2.4022  1.4553 -0.4901
17407SOL    HW258185  12.338   2.137   0.760 -1.7906 -2.9282 -0.5475
17408SOL     OW58186   6.513   5.969   4.284  0.0723 -0.4267  0.0554
17408SOL    HW158187   6.492   5.914   4.209  0.5473 -0.2912 -0.1830
17408SOL    HW258188   6.432   5.972   4.336  0.0028 -1.2269 -0.0036
17409SOL     OW58189   6.343   3.025  10.098  0.5056 -0.3050 -0.0131
17409SOL    HW158190   6.350   2.938  10.059  0.6879 -0.8191  1.1328
17409SOL    HW258191   6.323   3.083  10.024  0.5587 -1.2854 -0.8139
17410SOL     OW58192   3.833   9.327   2.355 -0.3247  0.5485 -0.1771
17410SOL    HW158193   3.872   9.292   2.274 -0.5157  1.5619 -0.7227
17410SOL    HW258194   3.759   9.380   2.325 -1.5393 -0.5314  0.7815
17411SOL     OW58195   1.447   1.396   3.910  0.1133 -0.2405 -0.2368
17411SOL    HW158196   1.457   1.420   4.002  0.0016  1.5608 -0.6558
17411SOL    HW258197   1.371   1.338   3.908 -0.2816  0.2316  0.7257
17412SOL     OW58198  10.806  10.786  11.379  0.2843 -0.3887  0.5692
17412SOL    HW158199  10.793  10.878  11.401 -0.0017 -0.3971  0.4395
17412SOL    HW258200  10.829  10.745  11.462 -0.6189 -0.3889  0.8328
17413SOL     OW58201   2.817   3.098   3.246  0.1107 -0.5053 -0.3356
17413SOL    HW158202   2.722   3.110   3.250  0.1193 -0.7566  1.6916
17413SOL    HW258203   2.831   3.010   3.282  1.1080 -0.5461 -0.7959
17414SOL     OW58204   0.972   9.507  11.283 -0.5608 -0.7761  0.5398
17414SOL    HW158205   1.051   9.552  11.254 -0.4300 -0.7383  0.9532
17414SOL    HW258206   1.001   9.419  11.306 -0.8391 -1.1281 -0.4034
17415SOL     OW58207  11.223   0.843   8.667  0.9306 -0.2744  0.0485
17415SOL    HW158208  11.293   0.827   8.731  0.1714  0.1438  1.0014
17415SOL    HW258209  11.154   0.783   8.692  0.7320 -0.3127 -0.5716
17416SOL     OW58210  10.204  10.450   5.329 -0.6037 -0.4748  0.5071
17416SOL    HW158211  10.287  10.404   5.329  0.1802  0.8810  1.3930
17416SOL    HW258212  10.219  10.528   5.275 -1.3034 -0.2220  0.6573
17417SOL     OW58213   7.504   6.443   3.853  0.2894  0.2799  0.5917
17417SOL    HW158214   7.517   6.383   3.926  1.7900  0.5918  0.6206
17417SOL    HW258215   7.409   6.445   3.840  0.1664 -1.7265  0.8716
17418SOL     OW58216  10.852   8.236   4.167 -0.4382 -0.2821 -0.3245
17418SOL    HW158217  10.889   8.228   4.255 -0.8784 -1.1671 -0.2034
17418SOL    HW258218  10.928   8.235   4.109 -0.2059 -1.3281 -0.0340
17419SOL     OW58219  12.314   0.356  12.486  0.5880 -0.2921 -0.0633
17419SOL    HW158220  12.281   0.440  12.454  0.8118 -0.2273 -0.1218
17419SOL    HW258221  12.379   0.379  12.552  1.1763 -0.4116 -0.5943
17420SOL     OW58222   6.221   2.634   3.728  0.0685  0.2761 -0.2626
17420SOL    HW158223   6.132   2.658   3.753  0.0706  0.2112 -0.1925
17420SOL    HW258224   6.209   2.570   3.657  0.0118 -1.2747  1.0747
17421SOL     OW58225   3.616   4.909   5.957  0.2806  0.0108 -0.4538
17421SOL    HW158226   3.566   4.828   5.959  1.3929 -0.7082  1.3280
17421SOL    HW258227   3.695   4.887   5.907  0.6967 -0.1050  0.2377
17422SOL     OW58228  11.300   6.879   6.024 -0.1387 -0.3048  0.0001
17422SOL    HW158229  11.330   6.927   5.946  0.2868 -0.5003  0.0422
17422SOL    HW258230  11.338   6.792   6.015 -0.8980 -0.6322 -0.0628
17423SOL     OW58231   5.231   2.097   4.138 -0.3274  0.2530  0.5818
17423SOL    HW158232   5.251   2.167   4.077  1.5969  0.0132  0.8868
17423SOL    HW258233   5.208   2.022   4.083  0.6254  0.2617  0.1526
17424SOL     OW58234   4.387   4.658   5.338 -0.1848 -0.2965  0.3153
17424SOL    HW158235   4.321   4.589   5.341  0.9529 -1.4394 -0.3305
17424SOL    HW258236   4.379   4.702   5.423  1.5517 -3.5987  2.3704
17425SOL     OW58237   3.814   8.967  12.011 -0.3396  0.0426 -0.5301
17425SOL    HW158238   3.730   8.948  12.053 -1.0040  1.6245 -1.0605
17425SOL    HW258239   3.880   8.943  12.076 -1.2887  0.7532  0.7412
17426SOL     OW58240  10.882   1.848  11.707 -0.2568 -0.9166  0.5751
17426SOL    HW158241  10.798   1.875  11.744 -0.3975  1.5482 -1.2389
17426SOL    HW258242  10.944   1.916  11.734  0.2948 -0.7076 -1.0685
17427SOL     OW58243  12.160  11.138   4.855  0.5398 -0.0705 -0.7794
17427SOL    HW158244  12.233  11.078   4.846  0.0814 -0.6384 -0.7577
17427SOL    HW258245  12.083  11.087   4.830  0.1918  0.6367 -1.2128
17428SOL     OW58246   1.838  11.317   6.433  0.1647  0.7740  0.7255
17428SOL    HW158247   1.781  11.242   6.415  1.6923 -0.5799  1.3155
17428SOL    HW258248   1.876  11.298   6.519 -1.4289  3.5521  2.1790
17429SOL     OW58249   5.595   4.113   8.407  0.0760 -0.0704 -0.0628
17429SOL    HW158250   5.522   4.140   8.351 -0.4729 -3.0447 -0.9374
17429SOL    HW258251   5.553   4.087   8.490  0.3105 -0.5155 -0.0859
17430SOL     OW58252   8.374   4.549   1.542 -0.3165  0.0948  0.3337
17430SOL    HW158253   8.307   4.489   1.511 -1.4581  1.6508 -0.3201
17430SOL    HW258254   8.443   4.492   1.576 -1.1195 -1.5758 -0.7107
17431SOL     OW58255   7.045   7.469   0.861 -0.0883  0.2369  0.0621
17431SOL    HW158256   7.028   7.404   0.792  0.4626  0.6301 -0.4609
17431SOL    HW258257   7.140   7.464   0.875 -0.0385  0.9642 -0.0185
17432SOL     OW58258   2.823  11.236   0.959  0.0393  0.4281  0.2426
17432SOL    HW158259   2.829  11.147   0.922 -0.8680  0.5448 -0.2159
17432SOL    HW258260   2.876  11.290   0.901 -1.2953  0.5902 -0.8908
17433SOL     OW58261   4.291   6.967   9.571 -0.3134  0.2142 -0.2013
17433SOL    HW158262   4.258   6.885   9.534  1.2822 -0.7816  0.5009
17433SOL    HW258263   4.286   6.955   9.665 -2.1258  1.8265 -0.0233
17434SOL     OW58264   1.963   2.618   8.639  0.1493 -0.4316  0.4094
17434SOL    HW158265   1.908   2.661   8.575 -0.8532  0.4073  1.7853
17434SOL    HW258266   2.014   2.555   8.588 -0.6570  0.1438 -1.1761
17435SOL     OW58267   6.162   9.127   2.527 -0.1329 -0.3583 -0.2936
17435SOL    HW158268   6.176   9.155   2.436 -0.9545 -0.8461 -0.5737
17435SOL    HW258269   6.141   9.034   2.521 -0.0635 -0.4270  0.4162
17436SOL     OW58270   6.942  10.578   9.777 -0.2340 -0.6921  0.5513
17436SOL    HW158271   7.033  10.607   9.785 -0.1330 -1.3731  2.0852
17436SOL    HW258272   6.894  10.657   9.752  0.8849 -0.5322 -1.3535
17437SOL     OW58273   9.023  10.876   0.019 -0.4225 -0.4517  0.0448
17437SOL    HW158274   9.052  10.905   0.106  0.2493 -0.7673 -0.0702
17437SOL    HW258275   8.934  10.844   0.033 -0.0142 -1.2806  0.7803
17438SOL     OW58276   5.120   9.517  12.395  0.1528  0.3761 -0.6216
17438SOL    HW158277   5.070   9.534  12.315  0.8578 -0.3465 -1.2357
17438SOL    HW258278   5.054   9.498  12.461 -0.4219  0.5013 -1.1453
17439SOL     OW58279   2.799   5.218  10.271 -0.1279 -0.0586  0.4312
17439SOL    HW158280   2.795   5.195  10.178 -0.6675 -2.3467  0.9558
17439SOL    HW258281   2.881   5.267  10.280  0.7313 -1.1405 -1.0108
17440SOL     OW58282   6.568   2.466  10.952  0.3351  0.0908  0.1854
17440SOL    HW158283   6.580   2.559  10.970  0.3691  0.0734  0.2515
17440SOL    HW258284   6.637   2.445  10.889 -0.0846  0.2640 -0.3440
17441SOL     OW58285   7.496   7.040   9.891  0.0973  0.1966 -0.3893
17441SOL    HW158286   7.488   7.114   9.831 -0.2714  0.5516  0.0877
17441SOL    HW258287   7.406   7.023   9.921  0.1090 -0.7437 -0.8377
17442SOL     OW58288   4.594   2.019  10.315  0.0138 -0.3166  0.0072
17442SOL    HW158289   4.651   1.993  10.243 -0.2838 -2.6543  0.5356
17442SOL    HW258290   4.520   1.958  10.310 -1.6738  1.5798  0.3246
17443SOL     OW58291   6.054  11.219   7.062  0.0457  0.6802  0.7077
17443SOL    HW158292   6.003  11.281   7.114  1.0379  0.5670  1.8568
17443SOL    HW258293   6.084  11.270   6.987 -0.7282  1.0652  0.6500
17444SOL     OW58294   1.645   2.237   9.848  0.0301 -0.2379 -0.1877
17444SOL    HW158295   1.685   2.163   9.802  1.5032 -1.1840  2.4430
17444SOL    HW258296   1.714   2.303   9.851 -0.7447  0.6476 -1.0818
17445SOL     OW58297  10.048   4.108  11.813 -0.1616  0.0251 -0.5525
17445SOL    HW158298  10.130   4.081  11.772 -0.6639  0.2348 -1.7223
17445SOL    HW258299  10.052   4.203  11.814 -0.6060  0.0523 -1.0714
17446SOL     OW58300  10.454   3.535   6.183  0.3500 -0.3050 -0.1695
17446SOL    HW158301  10.498   3.572   6.259  0.9436 -0.2707 -0.5177
17446SOL    HW258302  10.386   3.598   6.161  0.3298 -0.2027  0.1926
17447SOL     OW58303   4.668  11.181   5.033 -0.2921 -0.0634  0.1512
17447SOL    HW158304   4.703  11.149   4.950 -0.4515  1.1542 -0.4046
17447SOL    HW258305   4.745  11.190   5.089  0.0245  0.5361 -0.3611
17448SOL     OW58306   5.494   4.261   1.454  0.0981  0.4090 -0.5079
17448SOL    HW158307   5.472   4.169   1.444  2.1588 -0.1529 -0.3523
17448SOL    HW258308   5.429   4.307   1.401 -0.3868 -1.1972 -1.3813
17449SOL     OW58309   5.770   7.969   4.182  0.2362  0.5076  0.4329
17449SOL    HW158310   5.790   8.031   4.253  0.7918  0.8139  0.0159
17449SOL    HW258311   5.772   7.883   4.224  2.2838  0.5182  0.4831
17450SOL     OW58312   1.855   8.596   7.823  0.2401 -0.3477 -0.6507
17450SOL    HW158313   1.789   8.630   7.763 -1.0956 -1.7478 -0.0506
17450SOL    HW258314   1.807   8.532   7.877  1.6980 -0.1281  0.9800
17451SOL     OW58315   7.975  11.283   2.088  0.4843  0.4192  0.4863
17451SOL    HW158316   8.022  11.211   2.045  0.2676  0.4781  0.1466
17451SOL    HW258317   7.911  11.312   2.023  0.5416  0.8911  0.6359
17452SOL     OW58318   1.218   9.225   7.659 -0.1027 -0.3511 -0.2726
17452SOL    HW158319   1.145   9.277   7.692  1.1749  1.1268  0.3674
17452SOL    HW258320   1.233   9.159   7.727 -0.6711 -0.4951 -0.2852
17453SOL     OW58321   3.081   6.192   0.918 -0.0459 -0.0373  0.1974
17453SOL    HW158322   3.024   6.166   0.846 -0.6588  1.1042  0.2374
17453SOL    HW258323   3.089   6.287   0.909  1.3778 -0.0947  0.5602
17454SOL     OW58324  11.981   6.060  12.285 -0.0423  0.0859 -0.4693
17454SOL    HW158325  12.069   6.056  12.248 -0.0366 -0.9592 -0.3766
17454SOL    HW258326  11.978   5.988  12.348 -0.5040  0.9746  0.5682
17455SOL     OW58327   3.094   9.191   2.019 -0.1074  0.1860  0.1585
17455SOL    HW158328   3.018   9.176   1.963 -0.9749  0.3449  1.2760
17455SOL    HW258329   3.080   9.134   2.095  1.2102 -0.2599  0.1018
17456SOL     OW58330   7.855   0.901   0.125 -0.5674  0.4742  0.2107
17456SOL    HW158331   7.815   0.895   0.212  0.0886  2.9280  0.7403
17456SOL    HW258332   7.813   0.977   0.085  0.8024  0.7677 -0.7139
17457SOL     OW58333   6.174   2.499   3.186  0.5001 -0.4906 -0.7774
17457SOL    HW158334   6.137   2.417   3.219  0.6644 -0.2747 -0.0311
17457SOL    HW258335   6.268   2.481   3.180  0.7050  0.0013  0.5471
17458SOL     OW58336   0.700   1.487   8.566 -0.8549 -0.8147  0.4505
17458SOL    HW158337   0.780   1.465   8.518 -1.4980 -1.5798 -0.3002
17458SOL    HW258338   0.651   1.542   8.506 -1.1128 -0.7465  0.7217
17459SOL     OW58339   8.434   0.038  10.981 -0.7496  0.2005 -0.4396
17459SOL    HW158340   8.500   0.025  10.912  0.4305  1.0340  0.4975
17459SOL    HW258341   8.354  -0.002  10.945 -0.2165  0.7288 -2.3568
17460SOL     OW58342  10.689   7.350   3.171 -0.6793 -0.6338 -0.0564
17460SOL    HW158343  10.746   7.291   3.120 -1.1809  0.1284 -1.5563
17460SOL    HW258344  10.745   7.381   3.242  0.5833 -0.4483 -1.0847
17461SOL     OW58345   4.046   9.336   0.504  0.0014  0.4694  0.2085
17461SOL    HW158346   4.053   9.403   0.436  1.1884 -1.5823 -1.8384
17461SOL    HW258347   4.119   9.355   0.563 -0.6178  1.8688  0.5672
17462SOL     OW58348   7.081   0.994   6.340  0.0733  0.5084 -0.2742
17462SOL    HW158349   7.001   0.944   6.359  0.3981 -0.3796 -1.1917
17462SOL    HW258350   7.076   1.013   6.246  1.3047 -0.2136 -0.5046
17463SOL     OW58351   6.498   5.724   2.057 -0.0442 -0.2697  0.3722
17463SOL    HW158352   6.428   5.775   2.016 -1.0686 -2.3756 -0.6600
17463SOL    HW258353   6.482   5.732   2.151 -0.1851  1.2348  0.2461
17464SOL     OW58354   7.337   8.123  12.150 -0.3166 -0.4151 -0.1228
17464SOL    HW158355   7.314   8.043  12.103 -2.6090 -0.0293  0.1842
17464SOL    HW258356   7.252   8.165  12.168  0.7395  1.4764  0.7779
17465SOL     OW58357   3.341   8.478   1.642  0.6234  0.3500  0.3282
17465SOL    HW158358   3.253   8.511   1.625  0.3735 -0.1679  0.5955
17465SOL    HW258359   3.399   8.548   1.611  0.1667  0.0989 -1.1947
17466SOL     OW58360   2.531   3.260   5.328  0.0330 -0.1159 -0.4011
17466SOL    HW158361   2.454   3.267   5.385 -0.6835  0.7330 -1.4535
17466SOL    HW258362   2.558   3.350   5.312 -0.4123 -0.2801 -2.2419
17467SOL     OW58363   3.068   8.077   6.156 -0.3023  0.5642 -0.1346
17467SOL    HW158364   3.000   8.117   6.100 -0.2018 -0.0175 -0.6873
17467SOL    HW258365   3.114   8.018   6.097 -1.0169 -1.0472  0.8729
17468SOL     OW58366   1.219   9.452   3.730 -0.4275 -0.0814  0.0742
17468SOL    HW158367   1.219   9.447   3.826 -3.0485  1.0897  0.2034
17468SOL    HW258368   1.290   9.512   3.710 -0.0368 -0.0956  1.2969
17469SOL     OW58369   2.373  12.282   0.793  0.4075 -0.4216  0.3738
17469SOL    HW158370   2.451  12.315   0.836 -1.1346  1.2377  2.0672
17469SOL    HW258371   2.338  12.357   0.744 -1.0862 -0.5435  1.1667
17470SOL     OW58372   6.180   0.647   0.939 -0.0403  0.2483 -0.4714
17470SOL    HW158373   6.109   0.709   0.918  0.1121  1.8507  3.0102
17470SOL    HW258374   6.251   0.673   0.881 -1.4648  0.1981 -2.3512
17471SOL     OW58375   9.700  12.224   8.467  0.0717 -0.8601 -0.2577
17471SOL    HW158376   9.716  12.158   8.399  0.8709 -0.5827 -0.3558
17471SOL    HW258377   9.778  12.220   8.523  1.0372  1.2407 -1.3138
17472SOL     OW58378  11.528   3.762  11.704 -0.2700 -0.0073 -0.0940
17472SOL    HW158379  11.588   3.806  11.764 -1.0463 -0.9406  1.4305
17472SOL    HW258380  11.577   3.754  11.622  1.8500 -1.1351  1.2012
17473SOL     OW58381   9.677   4.863   4.248  1.1118 -0.5377  0.7641
17473SOL    HW158382   9.613   4.923   4.286  1.5171  1.9767 -2.1187
17473SOL    HW258383   9.625   4.805   4.192  1.1677  1.3651 -1.4077
17474SOL     OW58384  11.350   4.878   0.822 -0.0015 -0.6191 -0.5845
17474SOL    HW158385  11.407   4.871   0.898 -0.1235  0.2967 -0.3955
17474SOL    HW258386  11.261   4.877   0.859 -0.0560  0.0960 -0.6777
17475SOL     OW58387   8.840   9.520   2.544  0.2341  0.1848 -0.0584
17475SOL    HW158388   8.848   9.605   2.501  0.0291 -0.5632 -1.6356
17475SOL    HW258389   8.819   9.541   2.635 -3.0170  1.8017 -1.0471
17476SOL     OW58390   9.988   5.277  11.989 -0.4042 -0.4770  0.5955
17476SOL    HW158391  10.013   5.193  12.026  1.6286 -0.2004 -0.0127
17476SOL    HW258392  10.000   5.267  11.895 -0.4345  0.4032  0.4879
17477SOL     OW58393   2.437   1.361   0.357 -0.1487  0.0927  0.2002
17477SOL    HW158394   2.514   1.338   0.409  0.8283  1.3209 -0.6322
17477SOL    HW258395   2.452   1.319   0.272 -0.3068  0.4463 -0.0068
17478SOL     OW58396   4.197   1.220   5.036  1.0775 -0.0355 -0.2519
17478SOL    HW158397   4.201   1.149   4.971  1.7269  1.8307 -2.3675
17478SOL    HW258398   4.116   1.205   5.083  0.4795 -1.3755 -1.6222
17479SOL     OW58399  10.644   4.535   4.780  0.4686  0.1649 -0.0768
17479SOL    HW158400  10.637   4.468   4.712 -0.0897  0.8627 -0.7288
17479SOL    HW258401  10.622   4.489   4.861 -2.1730  0.0112 -0.7885
17480SOL     OW58402  12.323   5.112   2.204  0.2090 -0.3087  0.3061
17480SOL    HW158403  12.244   5.064   2.182  0.9525 -0.7022 -1.6668
17480SOL    HW258404  12.393   5.068   2.156  1.7015 -0.1225  2.1819
17481SOL     OW58405  11.556   4.623   6.233 -0.6680 -0.6623 -0.6553
17481SOL    HW158406  11.494   4.645   6.164  1.0073  1.8114 -1.4716
17481SOL    HW258407  11.515   4.656   6.313 -1.4080 -1.1200 -0.8346
17482SOL     OW58408   3.294   1.910   4.064 -0.2890  0.9624  0.2208
17482SOL    HW158409   3.326   1.848   4.130  1.2971 -0.6966 -1.9611
17482SOL    HW258410   3.371   1.929   4.009 -1.9018  0.7316 -2.2861
17483SOL     OW58411   2.450   5.178  11.744 -0.7181  0.2798 -0.1564
17483SOL    HW158412   2.536   5.135  11.737 -0.7615  0.1939 -0.1659
17483SOL    HW258413   2.469   5.265  11.778 -0.4526  0.8428 -1.6575
17484SOL     OW58414   8.016   6.492  12.177 -0.0501  0.1918 -0.4209
17484SOL    HW158415   7.925   6.472  12.157 -0.3251 -0.6192  1.4597
17484SOL    HW258416   8.040   6.429  12.245  2.9769 -1.9249 -3.1200
17485SOL     OW58417   4.158   0.827   6.326  0.1214 -0.1969  0.2859
17485SOL    HW158418   4.185   0.873   6.406 -0.9412 -0.3039  0.7233
17485SOL    HW258419   4.167   0.735   6.347 -1.0112 -0.2462  0.6073
17486SOL     OW58420   9.534   4.030   5.565 -0.5487  0.8261 -0.0503
17486SOL    HW158421   9.520   3.982   5.647 -2.1348  0.0700 -0.7267
17486SOL    HW258422   9.496   3.974   5.498 -1.1495  2.3849 -1.0536
17487SOL     OW58423   3.371   2.442   9.223  0.5743 -0.0147  0.0341
17487SOL    HW158424   3.417   2.472   9.145  0.0146  1.7312  0.3213
17487SOL    HW258425   3.279   2.465   9.207  0.2105 -1.0180  0.5802
17488SOL     OW58426  12.103   5.417   5.475 -0.5719  0.3085 -0.1575
17488SOL    HW158427  12.061   5.351   5.530 -1.7054 -1.8326 -3.3476
17488SOL    HW258428  12.196   5.397   5.480 -0.6658  0.0660  0.8133
17489SOL     OW58429  11.015   8.951   7.363  0.2229 -0.2453  0.4986
17489SOL    HW158430  11.022   9.005   7.285 -0.2539 -2.4711 -1.1921
17489SOL    HW258431  11.098   8.964   7.408  0.7827  0.6095 -0.7134
17490SOL     OW58432  11.157   3.322   7.488  0.1506  0.0819 -0.0048
17490SOL    HW158433  11.238   3.355   7.528  0.7334 -0.0442 -1.0301
17490SOL    HW258434  11.152   3.368   7.404 -1.5321  1.0382  0.5679
17491SOL     OW58435   2.772   1.796  10.669 -0.1161 -0.4336  0.1015
17491SOL    HW158436   2.804   1.756  10.588 -0.3097  0.7063 -0.5732
17491SOL    HW258437   2.826   1.874  10.679  0.0462 -0.6786  1.2053
17492SOL     OW58438   7.807   4.517   5.810 -0.2358 -0.5651 -0.4220
17492SOL    HW158439   7.762   4.582   5.756  0.1413  0.4611  0.4432
17492SOL    HW258440   7.804   4.554   5.899  0.9240 -1.2250 -0.0808
17493SOL     OW58441   6.034   0.514   5.972  0.1655 -0.0389 -0.3816
17493SOL    HW158442   6.026   0.422   5.998 -0.6153  0.1991  0.2568
17493SOL    HW258443   6.024   0.563   6.054 -2.8861  0.7612 -1.1088
17494SOL     OW58444   9.102   7.076  10.568 -0.1538 -0.5462  0.2718
17494SOL    HW158445   9.091   7.098  10.661 -0.8361  1.1256 -0.1667
17494SOL    HW258446   9.013   7.059  10.537  0.0645 -1.0498 -0.0852
17495SOL     OW58447  10.279   7.676  12.288  0.1859 -0.1003  0.3708
17495SOL    HW158448  10.189   7.707  12.280  0.8169  2.1114  1.1163
17495SOL    HW258449  10.312   7.677  12.198 -0.4128 -0.5975  0.1341
17496SOL     OW58450  12.367   2.923   6.196  0.5282 -0.3718  0.3701
17496SOL    HW158451  12.415   2.994   6.154  0.6407  0.7973  2.3642
17496SOL    HW258452  12.348   2.955   6.284 -0.5746 -2.3111  0.9031
17497SOL     OW58453   9.861   3.373   9.829 -0.0838 -0.7345  0.0499
17497SOL    HW158454   9.891   3.317   9.757 -1.1194 -0.5800 -0.5144
17497SOL    HW258455   9.868   3.317   9.906 -0.1166 -1.3116 -0.3530
17498SOL     OW58456   2.410   5.233   0.413 -0.1779  0.2622  0.3888
17498SOL    HW158457   2.403   5.183   0.494  1.8829 -0.8564 -0.0343
17498SOL    HW258458   2.371   5.177   0.346  0.0665  0.2258  0.2749
17499SOL     OW58459   0.272   2.901   1.373 -0.1919 -0.3792 -0.4601
17499SOL    HW158460   0.299   2.982   1.416 -0.0311 -1.3716  1.4139
17499SOL    HW258461   0.185   2.920   1.340  0.8437  1.3819 -2.4780
17500SOL     OW58462  11.595   4.248   2.532 -0.1644  0.7240 -0.6624
17500SOL    HW158463  11.594   4.160   2.493  1.8129  0.8941 -1.1781
17500SOL    HW258464  11.683   4.281   2.516 -1.1087  3.1987 -1.3149
17501SOL     OW58465  10.574   4.267   1.940  0.4182  0.1418  0.2361
17501SOL    HW158466  10.626   4.303   1.869  0.8847  1.3639  1.1600
17501SOL    HW258467  10.621   4.188   1.967 -0.0841 -0.6679 -1.1700
17502SOL     OW58468   3.959   8.117   1.820 -0.0232  0.0744 -0.1868
17502SOL    HW158469   3.944   8.112   1.915 -0.8986  0.6545 -0.2819
17502SOL    HW258470   4.016   8.193   1.809  1.0736 -0.7030 -0.0339
17503SOL     OW58471  12.073  11.072   9.128  0.2180 -0.0818 -0.5407
17503SOL    HW158472  12.014  11.138   9.091 -0.4949  0.3362  1.2263
17503SOL    HW258473  12.052  11.070   9.221  1.1118 -1.9267 -0.3250
17504SOL     OW58474   0.717   7.257   8.526 -0.5341  0.1078 -0.1455
17504SOL    HW158475   0.657   7.211   8.468 -1.4043 -1.0369  1.6062
17504SOL    HW258476   0.663   7.320   8.573 -0.3110 -0.5380  1.0357
17505SOL     OW58477   8.842   5.424   4.700 -0.0650 -0.3838  0.3501
17505SOL    HW158478   8.793   5.505   4.712 -1.8935 -1.4814  0.6287
17505SOL    HW258479   8.924   5.439   4.747 -0.4019  1.2630  0.4626
17506SOL     OW58480   2.108   4.307  10.293 -0.1866  0.0003  0.0463
17506SOL    HW158481   2.124   4.363  10.369 -2.9578 -0.7952  1.3668
17506SOL    HW258482   2.164   4.231  10.307 -0.3283  0.0744  1.0640
17507SOL     OW58483   7.863  10.935  10.890 -0.6392 -0.3084 -0.2843
17507SOL    HW158484   7.886  10.845  10.914 -0.1334 -0.2498 -0.5447
17507SOL    HW258485   7.937  10.966  10.839  0.0468  0.8938  1.3610
17508SOL     OW58486   3.556  10.600  10.836  0.3083  0.2304  0.0216
17508SOL    HW158487   3.499  10.603  10.914  0.4894 -1.2495  0.2403
17508SOL    HW258488   3.524  10.672  10.781 -0.8683  0.3060  0.7532
17509SOL     OW58489   8.993   5.820   6.285 -0.1334 -0.4249 -0.3386
17509SOL    HW158490   8.920   5.769   6.320  1.9950 -2.1888  1.9445
17509SOL    HW258491   8.996   5.898   6.341  0.7210 -1.2026  0.7415
17510SOL     OW58492   8.010  12.004   9.676 -0.4546 -0.0734 -0.2659
17510SOL    HW158493   8.011  12.093   9.640 -1.3210  0.1041  0.1262
17510SOL    HW258494   7.939  12.004   9.740  2.2608  0.2582  3.0677
17511SOL     OW58495   8.087   4.510   4.071  0.2656 -0.0592 -0.1457
17511SOL    HW158496   7.991   4.519   4.075  0.4521  1.6632  2.2458
17511SOL    HW258497   8.113   4.565   3.998 -0.5485 -0.8130 -1.0434
17512SOL     OW58498  11.930   8.145   2.503 -0.5222  0.5666 -0.2214
17512SOL    HW158499  12.001   8.083   2.487  0.7116  1.4561  1.4304
17512SOL    HW258500  11.858   8.090   2.535 -0.0770 -0.2012 -0.4981
17513SOL     OW58501   0.640   1.984   1.728 -0.2828 -0.2434 -0.3277
17513SOL    HW158502   0.703   1.990   1.799  0.0591 -0.5114 -0.6056
17513SOL    HW258503   0.652   1.897   1.691 -2.2087 -1.1042  0.8956
17514SOL     OW58504   9.058   7.395  11.107 -0.5712  0.2489  0.7483
17514SOL    HW158505   9.118   7.448  11.055  0.4962 -2.5277 -1.1048
17514SOL    HW258506   8.976   7.395  11.056 -0.6968  0.4271  0.9496
17515SOL     OW58507   2.867   0.064   8.455  0.3201  0.0781 -0.5113
17515SOL    HW158508   2.789   0.099   8.412 -1.0981 -2.0002  0.2218
17515SOL    HW258509   2.867  -0.029   8.434  1.2919 -0.4308  1.4402
17516SOL     OW58510   3.058   4.179   8.631  0.0947  0.0901  0.0900
17516SOL    HW158511   3.105   4.138   8.558 -0.2403 -2.4762  1.1806
17516SOL    HW258512   3.127   4.215   8.687  0.5512 -0.4952 -0.0805
17517SOL     OW58513   5.722   0.735   8.740  0.1096 -0.2767 -0.6747
17517SOL    HW158514   5.788   0.677   8.780 -0.1896  0.3261  0.7395
17517SOL    HW258515   5.646   0.678   8.727 -1.2337  0.2566  3.3622
17518SOL     OW58516  10.573   7.432   9.370 -0.0175  0.3597 -0.3476
17518SOL    HW158517  10.649   7.387   9.333 -0.7795 -0.6380 -0.7532
17518SOL    HW258518  10.503   7.367   9.367 -0.6109  0.9036  1.0457
17519SOL     OW58519  10.021   0.724  12.047  0.8902  0.4958  0.1759
17519SOL    HW158520  10.099   0.678  12.015  0.6927 -0.2798  0.7859
17519SOL    HW258521   9.983   0.764  11.968  2.6851  2.1437  0.0553
17520SOL     OW58522   9.060   6.156   5.595 -0.2810  0.3666  0.0258
17520SOL    HW158523   9.134   6.096   5.603  1.3744  2.3575  0.3493
17520SOL    HW258524   9.058   6.181   5.503 -0.8748 -0.0238 -0.0784
17521SOL     OW58525   1.492  11.835   3.954  0.6330 -0.2173  0.7636
17521SOL    HW158526   1.522  11.882   4.031  0.1693 -0.7481  1.2807
17521SOL    HW258527   1.563  11.844   3.890  0.6270  1.0050  0.9161
17522SOL     OW58528   3.160  11.862   0.829  0.3382  0.0229 -0.5682
17522SOL    HW158529   3.100  11.899   0.764 -0.8609  0.6765  0.8690
17522SOL    HW258530   3.120  11.779   0.854 -0.2271  0.6524  0.6994
17523SOL     OW58531   7.320   6.398   1.875  0.2893  0.2231 -0.1308
17523SOL    HW158532   7.325   6.448   1.793 -0.8266  0.3157 -0.1651
17523SOL    HW258533   7.406   6.410   1.916  0.7664  0.4010 -1.1546
17524SOL     OW58534   0.754   9.088   2.911 -0.3090  0.6245  0.3313
17524SOL    HW158535   0.819   9.136   2.860 -2.6705  1.5635 -2.0724
17524SOL    HW258536   0.764   9.121   3.000  3.7173 -0.7582  0.5945
17525SOL     OW58537  11.755   2.582  10.496 -0.4879 -0.5498 -0.3052
17525SOL    HW158538  11.790   2.494  10.508 -2.5336 -1.4731 -0.6085
17525SOL    HW258539  11.716   2.580  10.408 -0.5674  0.6708 -0.3141
17526SOL     OW58540   6.849   2.950   9.454 -0.1325 -0.1934  0.1540
17526SOL    HW158541   6.829   2.970   9.546 -1.2851 -0.5304 -0.0008
17526SOL    HW258542   6.811   3.023   9.405 -3.5060 -2.0816 -0.3381
17527SOL     OW58543   8.453  12.272   8.717  0.1673 -0.1909 -0.0828
17527SOL    HW158544   8.532  12.321   8.739  0.1134  0.8231 -1.9303
17527SOL    HW258545   8.485  12.183   8.700  1.0967  0.3809 -1.6049
17528SOL     OW58546   7.284   2.590   4.063 -0.3349  0.0996 -0.0537
17528SOL    HW158547   7.283   2.656   3.993  0.1625 -1.5553 -1.7014
17528SOL    HW258548   7.375   2.562   4.068 -0.8793 -2.1301 -1.1181
17529SOL     OW58549   1.026  12.049  11.027 -0.0720  0.6628  0.3345
17529SOL    HW158550   1.106  12.012  11.065 -0.9069 -0.3533  1.1660
17529SOL    HW258551   0.963  12.049  11.099 -0.9223  1.1599 -0.3841
17530SOL     OW58552   1.870   9.341   6.373  0.2439  0.1478  0.8340
17530SOL    HW158553   1.836   9.332   6.284  0.8686 -0.7603  0.6674
17530SOL    HW258554   1.816   9.409   6.413 -1.6154 -1.0751  0.5298
17531SOL     OW58555   6.993   1.134   0.517 -0.2536 -0.2155 -0.1648
17531SOL    HW158556   6.913   1.108   0.564 -0.2228  0.0393  0.0310
17531SOL    HW258557   6.963   1.158   0.429 -0.6303  1.4009  0.3642
17532SOL     OW58558  10.783   1.343   4.188  0.0063  0.0989  0.2394
17532SOL    HW158559  10.811   1.322   4.099  0.6972 -2.0966  0.9155
17532SOL    HW258560  10.774   1.258   4.232  0.7261  1.1335  2.5774
17533SOL     OW58561   0.328   6.308   2.220  0.3202 -0.5751  0.0447
17533SOL    HW158562   0.397   6.276   2.278 -0.5291 -1.5128  0.5520
17533SOL    HW258563   0.261   6.344   2.278 -0.4814 -1.4170 -0.3310
17534SOL     OW58564  12.327   3.592  10.186 -0.2316 -0.0652 -0.0621
17534SOL    HW158565  12.266   3.605  10.114  0.9808  1.8343 -0.8134
17534SOL    HW258566  12.323   3.498  10.203 -2.8743 -0.1044 -0.4556
17535SOL     OW58567  10.926   4.108   4.305  0.1909  0.0776 -0.0268
17535SOL    HW158568  10.954   4.197   4.323  0.6532 -0.0059 -0.3184
17535SOL    HW258569  10.921   4.066   4.391 -1.7338  0.8571  0.3140
17536SOL     OW58570  10.502  12.306   0.812 -0.1215  0.0205  0.9342
17536SOL    HW158571  10.577  12.335   0.864  0.0863  0.4788  0.4011
17536SOL    HW258572  10.487  12.216   0.839  0.7587 -0.1433  0.8999
17537SOL     OW58573   1.851  11.687   6.551  0.7811  0.2987 -0.1536
17537SOL    HW158574   1.942  11.661   6.569  0.5473 -0.3113  0.1531
17537SOL    HW258575   1.804  11.667   6.631  0.1357 -0.5157 -0.7291
17538SOL     OW58576   0.338  11.759  10.593  0.0077 -0.0020  0.2320
17538SOL    HW158577   0.248  11.739  10.616  0.1252 -1.9290 -0.7719
17538SOL    HW258578   0.338  11.853  10.576 -1.8770 -0.0041 -0.0191
17539SOL     OW58579   3.114   2.455   0.877  0.2187 -0.1046  0.1437
17539SOL    HW158580   3.115   2.517   0.950  1.7100 -0.0223  0.0804
17539SOL    HW258581   3.186   2.484   0.820  0.0823 -1.1034 -0.5606
17540SOL     OW58582   5.112   2.090   2.334 -0.0645 -0.1287  0.5657
17540SOL    HW158583   5.103   2.051   2.421  3.3147 -1.7140  0.3641
17540SOL    HW258584   5.155   2.173   2.349 -0.8925  0.3301  0.4721
17541SOL     OW58585   9.118   8.028   8.198 -0.4108 -0.0439  0.2926
17541SOL    HW158586   9.116   8.112   8.152 -0.9833  0.7999  1.7823
17541SOL    HW258587   9.176   8.042   8.272 -0.2158 -1.0932  0.3608
17542SOL     OW58588   9.520   8.919  12.152 -0.3701  0.0485 -0.3417
17542SOL    HW158589   9.467   8.851  12.195 -3.0656  1.7416 -0.7672
17542SOL    HW258590   9.593   8.933  12.212  0.1646 -2.9846 -0.1205
17543SOL     OW58591   7.172   9.528   0.541 -0.2987 -0.1268 -0.2099
17543SOL    HW158592   7.097   9.584   0.565 -1.9664 -1.6166 -1.6655
17543SOL    HW258593   7.208   9.569   0.462 -0.5165 -0.2247 -0.3609
17544SOL     OW58594  10.996  10.232   9.886  0.2090  0.4317 -0.0256
17544SOL    HW158595  11.049  10.191   9.818  0.6393 -0.5679  0.8807
17544SOL    HW258596  10.961  10.158   9.936 -1.0579  1.1128  0.1337
17545SOL     OW58597  12.124  10.404   5.073  0.3814 -0.0184 -0.0167
17545SOL    HW158598  12.188  10.335   5.090 -0.0750 -0.3397  0.4075
17545SOL    HW258599  12.064  10.367   5.010  0.7132  0.3508 -0.5563
17546SOL     OW58600   8.251   9.045   1.635 -0.4023 -0.4463  0.1481
17546SOL    HW158601   8.317   8.994   1.589 -0.0376 -1.4948  1.7511
17546SOL    HW258602   8.167   9.010   1.605 -0.3150  0.9969 -2.0138
17547SOL     OW58603   4.582   3.585  10.248  0.0021  0.1256 -0.3532
17547SOL    HW158604   4.674   3.605  10.261  0.1046  0.5787 -1.6717
17547SOL    HW258605   4.536   3.645  10.307  0.5657 -1.5478  1.9301
17548SOL     OW58606  12.428   0.026   0.777  0.1695 -0.2514  0.2973
17548SOL    HW158607  12.365   0.059   0.712 -1.6399  0.5305  2.2804
17548SOL    HW258608  12.411  -0.068   0.782  0.8637 -0.4520 -0.8687
17549SOL     OW58609   1.607  11.876   1.224  0.0047 -0.3465 -0.6353
17549SOL    HW158610   1.657  11.822   1.285 -1.5743  0.1126  1.1948
17549SOL    HW258611   1.552  11.930   1.281 -0.7713  0.8992 -2.4831
17550SOL     OW58612  12.138  11.127   3.972  0.2295  0.1738  0.0124
17550SOL    HW158613  12.128  11.218   3.998  1.3908  0.2203  0.3667
17550SOL    HW258614  12.222  11.124   3.927  0.5350 -0.8457  0.6087
17551SOL     OW58615   4.223  10.641  10.581  0.1629  0.0822  0.4854
17551SOL    HW158616   4.181  10.556  10.591  2.0999 -0.7273  3.1798
17551SOL    HW258617   4.268  10.636  10.497 -1.8004 -0.5189 -0.5802
17552SOL     OW58618   9.457   8.080   6.914  0.3503 -0.1118  0.1375
17552SOL    HW158619   9.491   8.017   6.977  0.7333 -0.0196  0.0262
17552SOL    HW258620   9.369   8.099   6.944 -1.0059 -3.0457 -1.5161
17553SOL     OW58621  10.625  11.009   7.171 -0.2614  0.0028 -0.2234
17553SOL    HW158622  10.573  10.980   7.096 -0.5731 -1.1501  0.4176
17553SOL    HW258623  10.566  11.000   7.246  0.7836 -1.1549  0.4925
17554SOL     OW58624   6.525  10.254  11.537  0.0339 -0.1450  0.4751
17554SOL    HW158625   6.572  10.230  11.617 -1.0352  1.1410  1.5321
17554SOL    HW258626   6.477  10.334  11.560 -0.9213 -0.1815 -1.2218
17555SOL     OW58627   5.470   6.780   2.115 -0.2365  0.1877 -0.1859
17555SOL    HW158628   5.490   6.834   2.037 -1.2535 -0.3813 -0.8682
17555SOL    HW258629   5.531   6.707   2.110 -0.5158 -0.0231 -0.6545
17556SOL     OW58630   1.967  10.106   1.680  0.6441  0.1841  0.2217
17556SOL    HW158631   1.892  10.047   1.670  0.2537  0.2380  2.2969
17556SOL    HW258632   1.978  10.146   1.594 -1.1656 -0.4750 -0.3634
17557SOL     OW58633   2.691   7.887   1.508  0.1604  0.2246  0.8745
17557SOL    HW158634   2.681   7.809   1.563  0.5561 -1.2917 -1.1120
17557SOL    HW258635   2.606   7.898   1.466  0.4972  0.0176  0.1166
17558SOL     OW58636   1.379   9.111   9.209 -0.0734 -0.2651 -0.7725
17558SOL    HW158637   1.323   9.034   9.197  0.7728 -0.7356 -1.9816
17558SOL    HW258638   1.433   9.090   9.284 -0.2317 -0.6188 -0.7535
17559SOL     OW58639   8.445   3.602  12.492 -0.2748 -0.0058  0.1240
17559SOL    HW158640   8.507   3.585  12.563 -0.0781  3.5275  0.9793
17559SOL    HW258641   8.360   3.610  12.535 -0.6326 -0.5897 -0.4540
17560SOL     OW58642   6.888   0.313   5.996 -0.4784 -0.2418  0.1560
17560SOL    HW158643   6.881   0.258   5.918 -2.1746 -0.0688  0.1432
17560SOL    HW258644   6.981   0.330   6.005 -0.1887 -0.7452 -1.5041
17561SOL     OW58645   6.626   6.939   6.888  0.3266  0.3807  0.0776
17561SOL    HW158646   6.666   7.026   6.880 -0.3984  0.9206  1.8678
17561SOL    HW258647   6.649   6.910   6.976  0.2490 -1.1041 -0.3701
17562SOL     OW58648  12.426   0.696  11.807 -0.0770 -0.0955  0.2353
17562SOL    HW158649  12.339   0.717  11.840 -0.2393  1.2903 -0.9788
17562SOL    HW258650  12.417   0.607  11.771 -0.9763  0.0039  0.1880
17563SOL     OW58651   7.946   4.591   0.076  0.0577  0.1312  0.0781
17563SOL    HW158652   7.865   4.555   0.041 -0.4683  1.6033 -0.2796
17563SOL    HW258653   8.008   4.519   0.071 -0.4129 -0.1808 -2.4514
17564SOL     OW58654  12.143  11.145   3.440  0.3343 -0.9409 -0.2010
17564SOL    HW158655  12.082  11.218   3.448  1.4640 -0.0747  0.8962
17564SOL    HW258656  12.229  11.183   3.459  0.9961 -2.4687 -0.0076
17565SOL     OW58657   8.754   9.660   7.785 -0.5393  0.7041 -0.3097
17565SOL    HW158658   8.783   9.694   7.701 -1.3592  0.2385 -0.7963
17565SOL    HW258659   8.663   9.689   7.792 -1.0302 -0.7568 -0.4080
17566SOL     OW58660  11.418   4.215  11.988  0.5369  0.0237 -0.1599
17566SOL    HW158661  11.507   4.244  11.967  0.0359  0.4084 -1.9883
17566SOL    HW258662  11.386   4.278  12.052  1.5398 -0.0558  0.4342
17567SOL     OW58663   8.937   1.778   8.077 -0.2028 -0.1437  0.1741
17567SOL    HW158664   8.976   1.692   8.060 -0.7582 -0.8207  1.9866
17567SOL    HW258665   8.845   1.758   8.096 -0.3570  0.8613  0.5064
17568SOL     OW58666   2.477   2.868   4.055 -0.4519 -0.3207  0.2530
17568SOL    HW158667   2.485   2.881   4.149 -1.1997  0.9012  0.1668
17568SOL    HW258668   2.477   2.772   4.044 -1.1773 -0.4944  1.5690
17569SOL     OW58669   2.585  10.174   5.347 -0.1163  0.4916 -0.4468
17569SOL    HW158670   2.679  10.188   5.339 -0.0298  0.2290  0.0532
17569SOL    HW258671   2.577  10.091   5.394 -0.6066  0.1302 -1.1567
17570SOL     OW58672   1.839   0.202   8.935 -0.2473 -0.6542 -1.1145
17570SOL    HW158673   1.911   0.218   8.996 -0.7220 -1.6420 -0.2623
17570SOL    HW258674   1.842   0.107   8.920 -2.0959 -0.9255 -0.1140
17571SOL     OW58675  10.223   7.834   2.067  0.5411 -0.8579 -0.1615
17571SOL    HW158676  10.213   7.909   2.126  1.3359 -1.2830  0.5438
17571SOL    HW258677  10.316   7.836   2.043 -0.0758  0.3455 -2.8536
17572SOL     OW58678   3.531   2.656   5.204  0.1091 -0.1569 -0.2365
17572SOL    HW158679   3.457   2.608   5.242 -0.6681  0.2141 -1.2235
17572SOL    HW258680   3.565   2.598   5.136  0.4293 -0.1298 -0.0996
17573SOL     OW58681   9.091   6.330   1.370 -0.7190  0.1863  0.2834
17573SOL    HW158682   9.112   6.367   1.456 -0.9989 -0.3012  0.5667
17573SOL    HW258683   8.996   6.323   1.370 -0.6107 -3.6728  1.6271
17574SOL     OW58684   5.147  10.912   3.687  0.2525  0.7234 -0.2828
17574SOL    HW158685   5.068  10.905   3.633 -0.4060  3.1651  0.2280
17574SOL    HW258686   5.182  10.999   3.667  2.3698  0.0251  0.1329
17575SOL     OW58687   7.800   3.755   6.176  0.1309  0.2309 -0.6243
17575SOL    HW158688   7.783   3.848   6.192 -1.5826  0.2749 -2.3269
17575SOL    HW258689   7.811   3.749   6.081  0.6874 -1.2584 -0.4878
17576SOL     OW58690   1.481   6.522   9.938 -0.3527 -0.5242 -0.0804
17576SOL    HW158691   1.513   6.536  10.027 -0.2782 -0.3437 -0.1349
17576SOL    HW258692   1.536   6.453   9.903  1.8776  1.6368 -1.1316
17577SOL     OW58693   6.804  10.348   6.613  0.1447 -0.1927  0.3911
17577SOL    HW158694   6.770  10.348   6.524  0.6212 -0.2385  0.2041
17577SOL    HW258695   6.730  10.322   6.668  0.1703 -1.4016 -0.1204
17578SOL     OW58696   5.769   7.507   3.833 -0.5331 -0.2316 -0.4457
17578SOL    HW158697   5.713   7.429   3.841 -0.5131 -0.1094  1.4891
17578SOL    HW258698   5.857   7.475   3.853 -0.5015  0.2406  0.2012
17579SOL     OW58699   8.411   6.722   4.079  0.4258  0.2280  0.1730
17579SOL    HW158700   8.426   6.632   4.106 -0.6363 -0.4439 -1.3374
17579SOL    HW258701   8.345   6.755   4.139  1.0713  0.1316  0.9482
17580SOL     OW58702   7.191   1.343   3.810 -0.4675  0.1632  0.7194
17580SOL    HW158703   7.148   1.268   3.769  0.8151 -0.2128  0.0230
17580SOL    HW258704   7.142   1.419   3.779 -2.1085 -0.3725  1.8310
17581SOL     OW58705   8.962   2.729   1.595  0.4784  0.5678 -0.0629
17581SOL    HW158706   8.977   2.635   1.585  0.2947  0.6543 -1.3507
17581SOL    HW258707   8.884   2.746   1.542  1.3568  1.6859 -1.0463
17582SOL     OW58708   1.289   4.972  10.247  0.3161  0.2418 -0.0933
17582SOL    HW158709   1.263   5.018  10.327 -1.2441 -1.8653  0.6934
17582SOL    HW258710   1.217   4.989  10.186 -1.0833 -2.2365  0.7148
17583SOL     OW58711   3.549  11.645   8.525  0.6891  0.2305 -0.3436
17583SOL    HW158712   3.475  11.586   8.534  0.0941  1.0995  0.7277
17583SOL    HW258713   3.622  11.600   8.568 -0.0048  0.6695  1.3593
17584SOL     OW58714   7.475   0.782   5.624 -0.7339 -0.0682  0.1264
17584SOL    HW158715   7.415   0.854   5.603  0.5849  0.8323 -0.7161
17584SOL    HW258716   7.502   0.799   5.714  0.6357  1.3329 -0.5065
17585SOL     OW58717   6.506  11.563   9.777 -0.1949  0.1986  0.1415
17585SOL    HW158718   6.584  11.595   9.731 -0.1717 -0.4507 -0.2771
17585SOL    HW258719   6.466  11.500   9.717 -1.4748  1.0816  0.0276
17586SOL     OW58720   7.326   3.450  10.782 -0.1297  0.0584  0.1104
17586SOL    HW158721   7.313   3.483  10.693  1.5574 -1.3693 -0.7304
17586SOL    HW258722   7.338   3.529  10.835 -2.2886  0.9817 -0.6713
17587SOL     OW58723   2.310   8.996  11.024  0.4992  0.4573  0.0435
17587SOL    HW158724   2.388   8.942  11.041 -0.0425 -0.6211 -0.7843
17587SOL    HW258725   2.238   8.948  11.066  0.3914  1.9112  1.5852
17588SOL     OW58726   8.636   2.073   1.626 -0.0953 -0.3911  0.0710
17588SOL    HW158727   8.664   2.086   1.717  0.3616 -0.3375 -0.0746
17588SOL    HW258728   8.653   1.980   1.609 -0.6250 -0.5151  0.1847
17589SOL     OW58729  11.972   9.991   0.220  0.1881  0.2590 -0.0937
17589SOL    HW158730  11.905  10.053   0.191 -0.5756 -0.0208  0.9862
17589SOL    HW258731  12.054  10.041   0.216 -0.2484  0.9804 -0.3226
17590SOL     OW58732   9.080   4.294   5.990  0.1064 -0.1491  0.4957
17590SOL    HW158733   8.992   4.327   6.007 -0.0332 -0.3769  0.2193
17590SOL    HW258734   9.132   4.327   6.063 -0.1173  0.3324  0.4436
17591SOL     OW58735   7.153   5.262   7.032 -0.0892 -0.0447 -0.0354
17591SOL    HW158736   7.155   5.332   6.967  1.2021 -1.1267 -1.2437
17591SOL    HW258737   7.092   5.197   6.995  0.4158 -0.5320 -0.0235
17592SOL     OW58738  10.102   7.049   3.900 -0.4064 -0.3368  0.3993
17592SOL    HW158739  10.094   7.066   3.994 -1.6685 -0.9135  0.4176
17592SOL    HW258740  10.034   7.104   3.860  1.5184  1.5703 -0.4138
17593SOL     OW58741  10.742   1.909   5.505  0.6396 -0.2193  0.4114
17593SOL    HW158742  10.770   1.876   5.590 -0.5260 -0.8206  0.5864
17593SOL    HW258743  10.706   1.996   5.523 -0.8752 -0.8801  0.8078
17594SOL     OW58744  11.814  11.131   7.141 -0.4596  0.6836 -0.2799
17594SOL    HW158745  11.849  11.105   7.056  0.2841  1.7227 -0.3020
17594SOL    HW258746  11.852  11.217   7.158 -1.1328  0.7897  0.7981
17595SOL     OW58747   0.179   4.052  10.733 -0.0802 -0.1207  0.3086
17595SOL    HW158748   0.218   4.036  10.819  0.7720 -1.2903 -0.2592
17595SOL    HW258749   0.237   4.006  10.672 -0.0477  1.5863 -1.0197
17596SOL     OW58750  10.643   2.777   3.108  0.3779 -0.1898  0.2368
17596SOL    HW158751  10.608   2.739   3.028  1.8869 -3.6363  0.9919
17596SOL    HW258752  10.724   2.820   3.082 -0.1419  0.4691 -0.3215
17597SOL     OW58753   4.517   6.675   6.800 -0.1283  0.0323 -0.0088
17597SOL    HW158754   4.547   6.724   6.877  0.2179  1.1080 -0.8080
17597SOL    HW258755   4.525   6.583   6.825  3.0058  0.2687  0.1504
17598SOL     OW58756   1.188   0.860   7.053  0.0862  0.0040  0.0002
17598SOL    HW158757   1.235   0.797   7.108 -0.9298 -0.2478  0.5979
17598SOL    HW258758   1.250   0.932   7.041  1.2132 -1.0151 -0.5577
17599SOL     OW58759   1.768  10.761   4.211  0.1303 -0.0100  0.0046
17599SOL    HW158760   1.813  10.755   4.295  0.1628  0.0021 -0.0118
17599SOL    HW258761   1.838  10.778   4.147 -0.0600  1.5690  0.1761
17600SOL     OW58762   1.643   0.415   5.313 -0.2130 -0.3595  0.4681
17600SOL    HW158763   1.603   0.396   5.228 -0.0820 -1.5754  0.6600
17600SOL    HW258764   1.600   0.495   5.342 -0.5000 -0.1113 -0.5847
17601SOL     OW58765  12.033   7.776   0.985  0.5750  0.0970  0.1675
17601SOL    HW158766  12.084   7.702   1.019 -1.6263 -1.8109 -0.4391
17601SOL    HW258767  12.054   7.779   0.892  1.5206  1.0366  0.3837
17602SOL     OW58768  12.152   5.973   1.293  0.2072 -0.3615 -0.2041
17602SOL    HW158769  12.199   5.932   1.221  0.2638 -1.1332  0.2637
17602SOL    HW258770  12.102   5.902   1.333  0.1695  0.0558  0.5159
17603SOL     OW58771   4.458  10.646   5.432  0.4005 -0.4437 -0.7217
17603SOL    HW158772   4.433  10.709   5.365 -0.5626  0.1056  0.1417
17603SOL    HW258773   4.383  10.587   5.438 -0.3594  0.6398  1.1936
17604SOL     OW58774   0.076   0.773   8.110 -0.1381  0.4954  0.7935
17604SOL    HW158775   0.142   0.707   8.132 -0.1086  0.0473 -0.5185
17604SOL    HW258776   0.124   0.855   8.102  0.1577  0.2906  0.4632
17605SOL     OW58777   2.881   5.374   4.800 -0.1267  0.3637  0.1227
17605SOL    HW158778   2.790   5.401   4.808  0.1433  1.2625  0.2847
17605SOL    HW258779   2.905   5.341   4.887 -0.5655 -0.7994 -0.1736
17606SOL     OW58780  12.191   8.409   8.961  0.1386  0.0760  0.0920
17606SOL    HW158781  12.112   8.367   8.994 -0.5534 -0.6668 -2.3084
17606SOL    HW258782  12.252   8.337   8.946 -0.1832  0.1623 -1.7872
17607SOL     OW58783   5.442   8.071   8.029 -0.3252  0.1271  0.2513
17607SOL    HW158784   5.461   8.164   8.044 -1.8057  0.4880  0.0035
17607SOL    HW258785   5.418   8.066   7.936 -1.1546 -0.3316  0.4799
17608SOL     OW58786   9.682   7.429   4.077  0.1760 -0.2998 -0.4813
17608SOL    HW158787   9.659   7.437   3.985  1.4091  0.3940 -0.7478
17608SOL    HW258788   9.734   7.349   4.083  0.8282  0.1164 -0.5468
17609SOL     OW58789   5.903   7.497   1.359 -0.1539 -0.2379  0.1931
17609SOL    HW158790   5.864   7.455   1.283  0.7234 -0.6219 -0.0557
17609SOL    HW258791   5.980   7.445   1.379  1.1047  1.3517 -0.2759
17610SOL     OW58792  11.666   3.400   6.694 -0.0070  0.5553  0.3132
17610SOL    HW158793  11.578   3.365   6.676  1.0113 -1.9413 -0.3000
17610SOL    HW258794  11.669   3.410   6.789 -0.0428 -2.2573  0.6961
17611SOL     OW58795   4.574   1.753   5.781  0.4904 -0.2752  0.8452
17611SOL    HW158796   4.516   1.720   5.850 -1.5444 -1.6660 -1.3578
17611SOL    HW258797   4.565   1.848   5.785 -1.8221 -0.4340  0.7506
17612SOL     OW58798   9.926   7.614   8.393 -0.2503 -0.5418  0.4394
17612SOL    HW158799   9.994   7.677   8.373 -0.2164 -1.2074 -1.8259
17612SOL    HW258800   9.856   7.633   8.331 -0.2036 -2.7415 -0.3760
17613SOL     OW58801   1.789   9.718   9.776  0.3704  0.3731 -0.1276
17613SOL    HW158802   1.836   9.791   9.736  2.9790 -0.8630  0.4687
17613SOL    HW258803   1.786   9.739   9.869 -0.1155  0.3640 -0.1398
17614SOL     OW58804   2.858   9.840  10.942 -0.0010  0.3634 -0.1570
17614SOL    HW158805   2.786   9.787  10.975 -1.3349  2.0335 -0.2564
17614SOL    HW258806   2.918   9.846  11.017 -1.8402  2.1127  1.3006
17615SOL     OW58807  10.399   2.339   8.718 -0.1722 -0.1485 -0.1288
17615SOL    HW158808  10.485   2.343   8.675 -0.2095 -0.6628 -0.2503
17615SOL    HW258809  10.337   2.359   8.648 -0.3332 -2.2649 -0.6614
17616SOL     OW58810   2.367   2.625   3.346 -0.1228  0.3157  0.2300
17616SOL    HW158811   2.425   2.627   3.270  0.1599 -0.6252  0.4130
17616SOL    HW258812   2.281   2.606   3.310  0.1667 -1.0442  0.2217
17617SOL     OW58813   3.042  11.598   3.697  0.0509 -0.1447 -0.3366
17617SOL    HW158814   2.968  11.558   3.652 -1.6375  2.1217  0.2499
17617SOL    HW258815   3.009  11.682   3.728  2.7094  0.6892  0.5142
17618SOL     OW58816   7.127   6.755   1.315 -0.0415 -0.0049  0.6409
17618SOL    HW158817   7.040   6.723   1.337 -0.0212 -0.5470 -0.0168
17618SOL    HW258818   7.154   6.808   1.390 -0.9004  0.0961  0.8815
17619SOL     OW58819   5.801   3.592   3.740 -0.3580  0.0471  0.2734
17619SOL    HW158820   5.892   3.618   3.725 -0.4881  0.3077 -0.0702
17619SOL    HW258821   5.800   3.498   3.724 -0.0558 -0.0372  0.7172
17620SOL     OW58822  11.401   4.866   2.793 -0.0630 -0.1484 -0.7276
17620SOL    HW158823  11.325   4.870   2.850  1.4896 -3.5206  1.9733
17620SOL    HW258824  11.450   4.946   2.812 -0.4810 -0.3595  1.4256
17621SOL     OW58825  10.222   3.566  11.706 -0.1943 -0.4007 -0.3622
17621SOL    HW158826  10.134   3.574  11.744 -0.7513 -1.2618 -1.3848
17621SOL    HW258827  10.234   3.648  11.658 -1.3469 -1.0911 -1.9333
17622SOL     OW58828  11.531   7.893   0.405  0.1302  0.3104 -0.0890
17622SOL    HW158829  11.539   7.806   0.365  1.6987 -0.1040  1.0101
17622SOL    HW258830  11.528   7.953   0.331 -1.2804 -0.6729 -0.8807
17623SOL     OW58831   8.914   4.471   1.105 -0.0255  0.2539 -0.5815
17623SOL    HW158832   8.976   4.405   1.073  1.0813  1.3859 -0.8799
17623SOL    HW258833   8.929   4.547   1.048 -1.4832  0.6750 -0.4513
17624SOL     OW58834   1.622   1.623   3.369  0.0400  0.0148  0.1968
17624SOL    HW158835   1.530   1.631   3.347 -0.1526 -1.9244  0.1384
17624SOL    HW258836   1.625   1.629   3.465 -0.4375 -1.8157  0.3729
17625SOL     OW58837   3.773   0.466  10.688  0.0070 -0.7114  0.0074
17625SOL    HW158838   3.783   0.449  10.594 -0.6059  1.2751 -0.4745
17625SOL    HW258839   3.805   0.556  10.699 -2.1060 -0.0349  1.2587
17626SOL     OW58840   8.704   1.560  12.024  0.3108  0.9711 -0.4591
17626SOL    HW158841   8.626   1.547  12.077  0.7247  0.4955  0.0495
17626SOL    HW258842   8.685   1.514  11.942  0.6250 -0.4412  0.2294
17627SOL     OW58843   3.971   4.772   2.875 -0.0765  0.0396  0.5637
17627SOL    HW158844   3.904   4.840   2.876  0.1951  0.3696  3.2016
17627SOL    HW258845   4.046   4.814   2.833 -1.2417 -0.1377 -1.8659
17628SOL     OW58846   5.491   4.257   9.442 -0.3511 -0.1076  0.6683
17628SOL    HW158847   5.431   4.195   9.484 -1.2702  0.9530  0.9760
17628SOL    HW258848   5.463   4.342   9.474  0.5360  0.5229 -0.1784
17629SOL     OW58849   6.685  11.836   0.068  0.2607 -0.4880 -0.2228
17629SOL    HW158850   6.664  11.878  -0.015  1.3047  1.8529  0.6060
17629SOL    HW258851   6.600  11.815   0.106 -0.2320 -1.7874 -1.9205
17630SOL     OW58852   6.712   1.336  10.002  0.2297 -0.5912 -0.6208
17630SOL    HW158853   6.777   1.278  10.042  0.8241  0.2510 -0.3546
17630SOL    HW258854   6.671   1.382  10.076  1.1779  0.8043 -0.9284
17631SOL     OW58855   6.079   9.905   8.219  0.2016  0.0775 -0.5502
17631SOL    HW158856   6.004   9.896   8.161 -0.3899 -0.4929  0.2882
17631SOL    HW258857   6.153   9.923   8.160 -0.9803  3.1932 -1.2274
17632SOL     OW58858   0.295  11.418   7.672  0.0479  0.0340  0.7205
17632SOL    HW158859   0.203  11.399   7.691  0.1863 -0.5400  0.8449
17632SOL    HW258860   0.294  11.465   7.589 -0.3348 -0.2560  0.5581
17633SOL     OW58861  11.356   8.984  10.734  0.1806 -0.7114 -0.3785
17633SOL    HW158862  11.377   8.948  10.819  1.4021 -0.8134 -0.7071
17633SOL    HW258863  11.290   9.051  10.752  0.8110 -0.3525  0.7230
17634SOL     OW58864   7.223   1.698  10.029  0.9429 -0.2511 -0.5035
17634SOL    HW158865   7.313   1.685  10.060  0.6064 -0.7725  0.2996
17634SOL    HW258866   7.232   1.728   9.939  1.9010 -2.0915 -1.0709
17635SOL     OW58867  12.200   1.870   4.021  0.0025  0.1372 -0.3739
17635SOL    HW158868  12.189   1.886   4.115  0.1827 -0.0003 -0.3289
17635SOL    HW258869  12.174   1.778   4.010  1.3876 -0.3018 -0.2123
17636SOL     OW58870  11.646   0.628   3.218 -0.2986 -0.2585 -0.2169
17636SOL    HW158871  11.561   0.667   3.198 -0.7405 -1.2291 -0.3281
17636SOL    HW258872  11.679   0.677   3.293  0.1442  1.6841 -1.5876
17637SOL     OW58873   4.744   1.528   1.098 -0.3807  0.0023 -0.0664
17637SOL    HW158874   4.709   1.534   1.187 -0.6171 -1.5600 -0.0262
17637SOL    HW258875   4.757   1.434   1.084  1.6276  0.3627 -0.9233
17638SOL     OW58876   5.974   8.880  12.189 -0.5274  0.1757  0.5844
17638SOL    HW158877   5.984   8.812  12.254 -0.0856 -0.4483 -0.1211
17638SOL    HW258878   6.059   8.925  12.187  0.4240 -1.5267 -1.4227
17639SOL     OW58879   9.931   5.193   6.520 -0.6106  0.2943  0.8678
17639SOL    HW158880   9.865   5.257   6.494  1.4465  0.5516 -5.5594
17639SOL    HW258881   9.892   5.108   6.498 -0.2081  0.1300  0.7787
17640SOL     OW58882   1.775   5.870   0.370 -0.6494  0.3668  0.4688
17640SOL    HW158883   1.715   5.797   0.353  0.4082 -0.3758 -0.2694
17640SOL    HW258884   1.822   5.845   0.450  1.1664 -0.8354 -0.8655
17641SOL     OW58885   8.480   2.454  10.827  0.1036 -0.1550  0.5868
17641SOL    HW158886   8.536   2.397  10.879 -0.3240  0.2931  1.5488
17641SOL    HW258887   8.492   2.423  10.737  0.3855 -1.3222  1.0144
17642SOL     OW58888   5.344   7.482   5.667  0.0114 -0.4728 -0.1353
17642SOL    HW158889   5.353   7.449   5.578  0.6107 -1.2332  0.2039
17642SOL    HW258890   5.253   7.464   5.690 -0.6245  1.2128 -1.1661
17643SOL     OW58891   3.262   2.819   8.378  0.5469  0.2036  0.8904
17643SOL    HW158892   3.212   2.752   8.331 -0.8812  0.9634  1.2710
17643SOL    HW258893   3.337   2.837   8.321 -0.4842  0.2053 -0.5210
17644SOL     OW58894   6.528   9.596  10.228 -0.4039  0.4762 -0.0231
17644SOL    HW158895   6.598   9.660  10.242 -0.6418  1.5549 -3.0493
17644SOL    HW258896   6.447   9.646  10.237 -0.6425  0.1704 -0.4023
17645SOL     OW58897   7.719   0.633   1.068 -0.2183  0.0389 -0.1157
17645SOL    HW158898   7.651   0.687   1.027 -0.5901 -0.8455 -0.6991
17645SOL    HW258899   7.790   0.632   1.004 -0.1231  0.0116 -0.0100
17646SOL     OW58900   3.051   3.333   4.542 -0.0621 -0.1778  0.2826
17646SOL    HW158901   3.119   3.330   4.609  0.6660  1.3645 -0.3218
17646SOL    HW258902   3.092   3.297   4.464  1.6133  4.2811 -1.2214
17647SOL     OW58903   4.996   3.679   4.709 -0.9499  0.4922  0.1379
17647SOL    HW158904   4.914   3.663   4.664 -0.4270  1.6333 -1.3259
17647SOL    HW258905   5.007   3.605   4.768 -2.4149 -0.2893 -0.5351
17648SOL     OW58906   0.460   6.616   8.023 -0.6944 -0.2719 -0.0600
17648SOL    HW158907   0.407   6.693   8.041 -1.5884 -0.5731 -1.2844
17648SOL    HW258908   0.502   6.635   7.939 -0.0800 -0.6882  0.1435
17649SOL     OW58909   3.406   3.181  10.354  0.4585  0.0665 -0.0579
17649SOL    HW158910   3.402   3.273  10.380  0.6422  0.2294 -0.5894
17649SOL    HW258911   3.372   3.179  10.265  0.0726 -0.4451  0.0912
17650SOL     OW58912   0.352   1.980   5.160  0.0150 -0.6105  0.7311
17650SOL    HW158913   0.297   1.951   5.087  0.8159  1.4702 -0.7919
17650SOL    HW258914   0.290   2.002   5.229 -0.8718 -1.1110  0.1138
17651SOL     OW58915  11.359  10.255   4.283  0.3236  0.0021 -0.2301
17651SOL    HW158916  11.424  10.288   4.345 -2.3047  1.5909  1.8522
17651SOL    HW258917  11.323  10.333   4.241 -1.2958 -0.7001 -0.2204
17652SOL     OW58918  11.275  10.124   4.051  0.1557  0.1482  0.3458
17652SOL    HW158919  11.317  10.172   4.122  0.8143  0.2177 -0.0805
17652SOL    HW258920  11.311  10.035   4.058 -0.2175  0.0062  0.4539
17653SOL     OW58921  10.140   4.711   5.400 -0.7744  0.0097 -0.0646
17653SOL    HW158922  10.184   4.791   5.371  1.5943 -1.6821 -1.5689
17653SOL    HW258923  10.048   4.725   5.378 -0.4365  2.2617 -0.3451
17654SOL     OW58924   1.628   7.013   4.781  0.2059  0.7809  0.5000
17654SOL    HW158925   1.604   7.105   4.796  1.7846  1.6070 -1.5227
17654SOL    HW258926   1.724   7.014   4.778  0.2182 -0.7730 -0.4126
17655SOL     OW58927   7.833   3.167   6.083  0.3663 -0.3777 -0.1186
17655SOL    HW158928   7.864   3.247   6.124 -0.2169  0.1137 -0.6091
17655SOL    HW258929   7.769   3.197   6.018  0.3630 -1.2189 -0.5150
17656SOL     OW58930   5.172   0.918   4.096  0.3807  0.6568  0.5952
17656SOL    HW158931   5.173   0.825   4.117 -0.9796  0.6655  0.8211
17656SOL    HW258932   5.131   0.959   4.173  0.5404  1.3750  0.3063
17657SOL     OW58933   8.767   5.232   2.627  0.2398 -0.1448  0.6958
17657SOL    HW158934   8.695   5.187   2.582  0.2443 -0.0472  0.5922
17657SOL    HW258935   8.826   5.260   2.557  0.4112 -0.2784  0.7833
17658SOL     OW58936   1.859   8.767   6.747 -0.0055 -0.0436  0.7062
17658SOL    HW158937   1.950   8.785   6.769 -0.4713  3.0161  0.6396
17658SOL    HW258938   1.809   8.828   6.802 -2.0035 -1.4131  0.5066
17659SOL     OW58939   0.857   3.107   3.142 -0.4791 -0.9438  0.5142
17659SOL    HW158940   0.831   3.171   3.075  0.1181 -0.4200  0.7722
17659SOL    HW258941   0.774   3.070   3.173 -0.7966 -0.7653 -0.0961
17660SOL     OW58942   0.983   4.548   5.901  0.1208  0.2569  0.0637
17660SOL    HW158943   1.019   4.464   5.930  0.2901 -0.8050 -2.8783
17660SOL    HW258944   1.056   4.609   5.908 -0.1273  0.3676  2.6733
17661SOL     OW58945  11.390   9.531   5.494  0.2932  0.1162 -0.5947
17661SOL    HW158946  11.373   9.554   5.586  0.7085  1.5050 -0.8350
17661SOL    HW258947  11.477   9.492   5.495  1.0628  1.7452 -0.5925
17662SOL     OW58948   0.281   4.178  10.084  0.7708 -0.7908 -0.0549
17662SOL    HW158949   0.210   4.242  10.084  2.3447  1.0626 -0.4469
17662SOL    HW258950   0.272   4.133  10.168 -0.5327 -0.2298  0.1402
17663SOL     OW58951  11.710   8.407   0.494  0.8902  0.2745 -0.0050
17663SOL    HW158952  11.683   8.470   0.428  0.6468  0.4162  0.2262
17663SOL    HW258953  11.697   8.322   0.452 -1.2499  0.2769  0.5614
17664SOL     OW58954   4.378  10.575   4.129  0.5351 -0.2105  0.1358
17664SOL    HW158955   4.331  10.494   4.149  1.0056 -1.0154 -1.8552
17664SOL    HW258956   4.309  10.642   4.126 -0.0759 -0.8166  0.2403
17665SOL     OW58957   2.235   9.930  11.934 -0.3254  0.4302  0.3422
17665SOL    HW158958   2.160   9.914  11.877 -0.0309  2.1437 -0.5915
17665SOL    HW258959   2.214   9.884  12.015 -2.4862  1.0527  0.1833
17666SOL     OW58960   1.079   2.814   1.922  0.3776 -0.6900  0.1225
17666SOL    HW158961   1.140   2.741   1.911  0.7882 -0.4961  1.0474
17666SOL    HW258962   1.008   2.795   1.862  0.7539 -1.5598 -0.0594
17667SOL     OW58963  12.401   4.751  11.815  0.2940 -0.2770  0.1147
17667SOL    HW158964  12.455   4.673  11.824  0.2842 -0.4211 -0.9225
17667SOL    HW258965  12.422   4.785  11.728 -1.8071 -0.7571 -0.6312
17668SOL     OW58966   8.417   3.619   6.621  0.0538 -0.1843 -0.0869
17668SOL    HW158967   8.422   3.533   6.579 -1.2199  0.4747 -1.7189
17668SOL    HW258968   8.423   3.681   6.548  1.6824  1.1627  1.1221
17669SOL     OW58969  12.137   1.776   9.621 -0.0119 -0.2218 -0.3213
17669SOL    HW158970  12.150   1.685   9.645  0.5082  0.4057  2.0596
17669SOL    HW258971  12.078   1.774   9.546  0.1072 -2.4868 -0.4006
17670SOL     OW58972  11.517   2.538   4.047  0.4269 -0.2972 -0.1104
17670SOL    HW158973  11.599   2.532   3.999  0.4572  3.6519 -0.8471
17670SOL    HW258974  11.541   2.524   4.138  1.4209 -1.6555 -0.5452
17671SOL     OW58975   4.648   9.865   0.322 -0.3664 -0.3347 -0.0351
17671SOL    HW158976   4.662   9.860   0.417 -1.0788 -3.1650  0.0236
17671SOL    HW258977   4.701   9.940   0.294  0.8502 -0.1551  2.4260
17672SOL     OW58978   7.121   8.461   8.450  0.4670  1.1675 -0.3144
17672SOL    HW158979   7.206   8.499   8.429  0.9399  0.2121 -0.1740
17672SOL    HW258980   7.134   8.418   8.534 -0.1489  0.9733 -0.3122
17673SOL     OW58981  10.255   8.539   1.642  0.2384  0.0152  0.8886
17673SOL    HW158982  10.241   8.492   1.560  2.3676  1.3394 -0.3298
17673SOL    HW258983  10.298   8.475   1.699 -1.1556 -0.8856  0.9559
17674SOL     OW58984   3.652   7.091  11.380 -0.3610 -0.2849  0.2108
17674SOL    HW158985   3.658   7.165  11.440 -0.0115  0.0445 -0.2287
17674SOL    HW258986   3.562   7.058  11.392 -0.3533 -0.1122  0.7755
17675SOL     OW58987   4.582  10.061  12.158  0.0339  0.5196  0.3228
17675SOL    HW158988   4.654  10.100  12.206 -0.4037 -0.8432  2.1872
17675SOL    HW258989   4.582   9.968  12.183 -2.2544  0.4344  0.2837
17676SOL     OW58990   6.017   2.218   4.786 -0.5354  0.1983  0.6941
17676SOL    HW158991   6.068   2.293   4.816  0.2204 -0.0878  0.1653
17676SOL    HW258992   6.079   2.145   4.783 -1.6374 -0.9511  2.9535
17677SOL     OW58993   0.811   0.649   4.606  0.3294 -0.1458 -0.2398
17677SOL    HW158994   0.879   0.660   4.672 -0.0347 -0.0545  0.1275
17677SOL    HW258995   0.802   0.554   4.596 -0.5824 -0.2052  0.8816
17678SOL     OW58996   8.687   1.098   9.745  0.0831 -0.1243  0.0220
17678SOL    HW158997   8.739   1.057   9.815  0.4686  1.3862  0.6462
17678SOL    HW258998   8.655   1.179   9.783 -0.1048  0.5001 -1.4041
17679SOL     OW58999   9.131   0.173   0.030 -0.4347  0.1703  0.0072
17679SOL    HW159000   9.216   0.175  -0.015 -0.0624 -1.7110  0.5189
17679SOL    HW259001   9.109   0.265   0.043  1.5905  0.7304 -0.0616
17680SOL     OW59002   7.404   1.217   3.350  0.8437 -0.1778 -0.2353
17680SOL    HW159003   7.472   1.276   3.381 -0.1297  1.2531 -0.6957
17680SOL    HW259004   7.377   1.253   3.265  0.2002 -1.2845 -0.5317
17681SOL     OW59005   6.964   2.010   0.244 -0.4029 -0.0412  0.1328
17681SOL    HW159006   7.008   2.090   0.215  0.8920 -0.2676  1.3572
17681SOL    HW259007   7.012   1.983   0.322 -1.5209 -1.4095  0.3945
17682SOL     OW59008   4.618   5.686   4.798 -0.0122  0.1704 -0.4863
17682SOL    HW159009   4.526   5.699   4.820 -0.0521  0.3323 -0.7422
17682SOL    HW259010   4.651   5.627   4.866 -0.1267  0.6780  0.0265
17683SOL     OW59011   7.873   0.360   5.634  0.4215  0.2400  0.4427
17683SOL    HW159012   7.810   0.425   5.605  0.8598 -0.2131 -1.7052
17683SOL    HW259013   7.918   0.401   5.708  0.1308  2.0292 -0.3266
17684SOL     OW59014   6.837   0.763   0.551 -0.1831  0.1175 -0.1772
17684SOL    HW159015   6.909   0.700   0.561  0.5513  0.6863 -1.5391
17684SOL    HW259016   6.855   0.830   0.617  0.6975  0.3710 -0.6500
17685SOL     OW59017   4.295   9.382   5.562  0.3826 -0.4239 -0.8513
17685SOL    HW159018   4.261   9.468   5.541  1.4899  0.1134 -0.5184
17685SOL    HW259019   4.371   9.399   5.619  1.2194 -1.5605 -1.5812
17686SOL     OW59020  11.040   9.444   1.356 -0.0600  0.1521  0.1475
17686SOL    HW159021  11.002   9.358   1.375 -3.5882  1.1960 -1.3707
17686SOL    HW259022  11.029   9.493   1.438 -0.1196 -0.1933  0.3493
17687SOL     OW59023  10.353   6.457  11.576 -0.3735 -0.2754  0.7130
17687SOL    HW159024  10.394   6.473  11.661 -1.9179  2.5711  1.0279
17687SOL    HW259025  10.415   6.495  11.513  1.6602 -3.9374  0.1988
17688SOL     OW59026   5.001  11.032   0.072  0.2427 -0.4148 -0.0300
17688SOL    HW159027   4.977  11.118   0.104 -1.6505  0.0736 -2.4710
17688SOL    HW259028   5.067  11.048   0.005 -0.3787 -0.8067 -0.7505
17689SOL     OW59029   9.443   9.954   7.344 -0.3303 -0.4599 -0.3779
17689SOL    HW159030   9.449  10.047   7.364  1.8713  0.1362 -3.1305
17689SOL    HW259031   9.515   9.914   7.393 -0.5488 -0.5054 -0.0963
17690SOL     OW59032  11.946   8.098   0.361  0.0541 -0.1636 -0.5902
17690SOL    HW159033  11.989   8.153   0.296 -1.8416  3.5537  1.0168
17690SOL    HW259034  12.005   8.099   0.436 -0.4418  0.5701 -0.2035
17691SOL     OW59035   5.751   1.394  12.419  0.0908 -0.0471  0.1488
17691SOL    HW159036   5.701   1.356  12.347 -0.1010 -1.1939  0.8652
17691SOL    HW259037   5.829   1.339  12.426  1.1817  1.3434 -0.5501
17692SOL     OW59038   7.822   5.440  10.825  0.6120 -0.0594  0.2571
17692SOL    HW159039   7.738   5.446  10.870  1.2253 -2.1446  1.8781
17692SOL    HW259040   7.853   5.530  10.819 -1.2529  0.6497  0.5523
17693SOL     OW59041  11.230   6.044   4.960  0.2451  0.3341 -0.2724
17693SOL    HW159042  11.160   6.080   5.014 -0.0878 -0.7870  0.0474
17693SOL    HW259043  11.310   6.080   4.999 -0.0068 -0.2043  0.7926
17694SOL     OW59044   4.822   0.729  10.172 -0.0485  0.3169 -0.0542
17694SOL    HW159045   4.820   0.655  10.112  0.8770 -0.3789  0.7292
17694SOL    HW259046   4.891   0.706  10.235 -0.5098  1.3353  0.8489
17695SOL     OW59047   2.983   2.082   9.592  0.1545 -0.4448 -0.5866
17695SOL    HW159048   2.964   1.988   9.591 -0.9994 -0.3447  2.4894
17695SOL    HW259049   3.060   2.092   9.536  0.1858 -3.1721 -1.1458
17696SOL     OW59050  10.910   5.046   3.239  0.2739  0.1830 -0.1463
17696SOL    HW159051  10.921   5.141   3.232 -0.0652  0.1569 -1.2954
17696SOL    HW259052  10.898   5.017   3.148  1.4556 -1.1016  0.0805
17697SOL     OW59053  10.740   8.283   5.492  0.3070  0.4563  0.4262
17697SOL    HW159054  10.728   8.275   5.397  2.2666 -1.7278  0.2594
17697SOL    HW259055  10.652   8.294   5.526 -0.5102  0.7761 -1.6070
17698SOL     OW59056   0.717  12.405   3.016  0.9727 -0.1366  0.2781
17698SOL    HW159057   0.773  12.481   3.003  1.0169 -0.1603  0.3280
17698SOL    HW259058   0.644  12.418   2.955  1.2001 -0.2738 -0.0234
17699SOL     OW59059   4.154   2.565   3.952  0.1116 -0.4062  0.3952
17699SOL    HW159060   4.111   2.495   3.905  0.6058 -0.0200 -0.6682
17699SOL    HW259061   4.098   2.641   3.940 -0.3580 -0.5702  1.4368
17700SOL     OW59062   7.723   1.524   5.650 -0.0978  0.0121  1.0217
17700SOL    HW159063   7.816   1.504   5.640 -0.6600 -2.3471 -0.2878
17700SOL    HW259064   7.706   1.595   5.588  0.6988  0.0458  0.8384
17701SOL     OW59065   7.419   0.441   7.260  0.2310 -0.7699 -0.3730
17701SOL    HW159066   7.378   0.454   7.174 -0.8138 -0.1654  0.1921
17701SOL    HW259067   7.385   0.513   7.313 -0.2652 -1.9366  0.9469
17702SOL     OW59068  10.216   4.394   9.180 -0.2348  0.0924 -0.2038
17702SOL    HW159069  10.149   4.405   9.112  0.6761  0.6810 -1.0450
17702SOL    HW259070  10.280   4.334   9.140 -0.3300 -0.6051  0.6525
17703SOL     OW59071   2.888   4.266   2.526 -0.2275  0.0722 -0.3565
17703SOL    HW159072   2.855   4.269   2.436 -1.0055  0.9594 -0.0495
17703SOL    HW259073   2.953   4.195   2.525 -1.1234 -0.7688 -1.3152
17704SOL     OW59074   5.379   6.083   5.359  0.1739  0.1585  0.1104
17704SOL    HW159075   5.469   6.080   5.393  0.2555 -0.5899 -0.1528
17704SOL    HW259076   5.359   5.992   5.336 -1.4160 -0.1003  2.1477
17705SOL     OW59077   1.093   6.094   9.256  0.0881  0.5630 -0.0099
17705SOL    HW159078   1.060   6.180   9.284 -0.0522 -0.2793  2.7240
17705SOL    HW259079   1.181   6.089   9.295 -1.1260 -1.7389  2.8594
17706SOL     OW59080   6.950   2.277   8.813 -0.1403  0.0540  0.0146
17706SOL    HW159081   6.863   2.274   8.772  0.1799 -1.7405 -0.6385
17706SOL    HW259082   6.998   2.205   8.771  0.3301 -1.7707  3.3010
17707SOL     OW59083  12.041   8.524   6.123  0.2186  0.0185 -0.6191
17707SOL    HW159084  12.062   8.483   6.039 -0.0424  0.3499 -0.8496
17707SOL    HW259085  12.090   8.606   6.122  0.3794 -0.0758 -0.3569
17708SOL     OW59086  11.269   4.771  10.407 -0.2144  0.2327  0.0078
17708SOL    HW159087  11.297   4.812  10.325  0.2141 -2.2271 -1.1527
17708SOL    HW259088  11.319   4.818  10.475  1.3290  0.6796 -1.3642
17709SOL     OW59089   7.501   6.307  10.192 -0.1143 -0.4689 -0.3033
17709SOL    HW159090   7.481   6.396  10.221 -2.0840 -0.7830 -0.5594
17709SOL    HW259091   7.595   6.310  10.170 -0.3551  1.8503 -1.4044
17710SOL     OW59092   8.286   1.807   8.916 -0.5677  0.0484 -0.2032
17710SOL    HW159093   8.230   1.729   8.911 -0.7280  0.2489 -2.8111
17710SOL    HW259094   8.226   1.877   8.942 -0.3662 -0.6526  2.4797
17711SOL     OW59095   2.982  10.531   4.529 -0.0148  0.4162 -0.3723
17711SOL    HW159096   2.936  10.581   4.461  2.9934  2.0743 -1.3920
17711SOL    HW259097   2.926  10.539   4.606 -1.9131  1.3622 -1.7502
17712SOL     OW59098  10.263  10.486  11.706 -0.4097 -0.3750 -0.1674
17712SOL    HW159099  10.292  10.488  11.615 -1.5259 -0.0401 -0.5341
17712SOL    HW259100  10.211  10.566  11.717  0.0688 -0.1884  0.8970
17713SOL     OW59101  10.435   7.179   1.105 -0.2669 -0.2379  0.0917
17713SOL    HW159102  10.378   7.256   1.102  2.7427  2.3157  1.7455
17713SOL    HW259103  10.461   7.164   1.015  1.3341  2.7049 -0.0673
17714SOL     OW59104   4.848   0.380  12.043 -0.2873  0.3200  0.3506
17714SOL    HW159105   4.937   0.394  12.077  0.3410  1.0126 -1.4505
17714SOL    HW259106   4.834   0.453  11.983 -0.2210 -2.1723 -2.9878
17715SOL     OW59107   7.125  11.989   4.612 -0.7886  0.9020 -0.8772
17715SOL    HW159108   7.050  11.973   4.555  0.1425  2.0874 -2.5240
17715SOL    HW259109   7.087  12.016   4.696 -2.1815  0.1332 -1.2335
17716SOL     OW59110   5.992   9.719  11.865 -0.0586  0.2991  0.0719
17716SOL    HW159111   6.074   9.685  11.900  0.0525 -0.0130 -0.4837
17716SOL    HW259112   6.000   9.709  11.770 -1.5236 -1.5512  0.0890
17717SOL     OW59113   9.897   2.045   7.983  0.1393 -0.5835  0.5108
17717SOL    HW159114   9.903   1.953   7.959  2.0564  0.2315 -2.7289
17717SOL    HW259115   9.981   2.065   8.025 -0.1619 -0.2405  0.9613
17718SOL     OW59116  11.030   6.655   9.381 -1.2086  0.0096  0.4651
17718SOL    HW159117  11.034   6.731   9.440 -1.5075  0.9931 -0.7308
17718SOL    HW259118  11.036   6.693   9.293 -1.8146 -1.3253 -0.1763
17719SOL     OW59119   3.613   4.876  12.257  0.1285  0.2104 -0.0361
17719SOL    HW159120   3.555   4.821  12.205  0.4617 -0.2989  0.1218
17719SOL    HW259121   3.584   4.863  12.347 -0.9068  1.6349 -0.1335
17720SOL     OW59122   7.344   2.351   7.398 -0.2822 -0.2054  0.2025
17720SOL    HW159123   7.383   2.331   7.313  0.8004  0.9767  0.3850
17720SOL    HW259124   7.358   2.272   7.450  0.6532 -0.3209 -0.1915
17721SOL     OW59125   3.836  11.923  11.090 -0.5697 -0.4216 -0.0014
17721SOL    HW159126   3.925  11.888  11.092 -0.3747 -0.1030 -1.7298
17721SOL    HW259127   3.834  11.981  11.014 -2.4347 -0.9130 -0.3855
17722SOL     OW59128   6.612   0.889   8.917 -0.3841  0.6202 -0.2401
17722SOL    HW159129   6.614   0.970   8.968 -0.4254  1.2428 -1.1981
17722SOL    HW259130   6.703   0.877   8.888 -0.1129 -0.3695  0.9226
17723SOL     OW59131   4.784   7.948   6.535 -0.0681 -0.0965 -0.2065
17723SOL    HW159132   4.785   7.876   6.598 -1.2557 -1.3701 -1.5682
17723SOL    HW259133   4.696   7.985   6.543  0.2986  0.7482 -0.0257
17724SOL     OW59134   4.004   2.453   1.516  0.1722  0.3705 -0.0003
17724SOL    HW159135   4.069   2.522   1.504 -0.4038  0.7571 -0.9509
17724SOL    HW259136   4.022   2.391   1.445 -0.7882  0.7149 -0.5502
17725SOL     OW59137  11.324   9.136   2.310 -0.0174 -0.1486  0.4904
17725SOL    HW159138  11.360   9.222   2.331 -0.5234 -0.3308  2.2896
17725SOL    HW259139  11.400   9.078   2.312  0.1167  0.0274  0.7925
17726SOL     OW59140   2.703   4.641   9.089 -0.1166  0.0674 -0.5471
17726SOL    HW159141   2.774   4.599   9.138 -0.1169  1.0842  0.3672
17726SOL    HW259142   2.641   4.571   9.073 -0.3168 -0.2425  1.3126
17727SOL     OW59143   7.482   2.559   3.272 -0.0788 -0.4744 -0.3276
17727SOL    HW159144   7.540   2.510   3.214  0.0166 -0.7516 -0.0012
17727SOL    HW259145   7.422   2.493   3.306  1.9442 -1.0418  2.5271
17728SOL     OW59146  10.510   7.150  11.632 -0.0474 -0.0983  0.2967
17728SOL    HW159147  10.421   7.114  11.642  0.0748 -0.5206 -0.0939
17728SOL    HW259148  10.557   7.083  11.583  1.1756 -0.9923  2.5458
17729SOL     OW59149   9.880   0.910  11.852 -0.3271 -0.6450 -0.5569
17729SOL    HW159150   9.869   0.915  11.757 -1.5299 -1.0505 -0.4589
17729SOL    HW259151   9.884   1.001  11.881  3.4388 -0.4211 -1.2906
17730SOL     OW59152   0.926   3.663   2.199 -0.8048  0.1700 -0.6066
17730SOL    HW159153   0.849   3.720   2.201 -1.2877 -0.4137 -1.5647
17730SOL    HW259154   0.900   3.590   2.142 -0.0784 -0.8270  0.3094
17731SOL     OW59155  11.974   8.534   1.585  0.0614 -0.0544 -0.0558
17731SOL    HW159156  12.055   8.484   1.598 -0.9927 -1.5920  1.0339
17731SOL    HW259157  11.908   8.467   1.562 -0.8543  1.1847 -1.1738
17732SOL     OW59158   2.350   1.104   3.429  0.6091 -0.5855 -0.0033
17732SOL    HW159159   2.356   1.200   3.422  0.1748 -0.6686 -2.7549
17732SOL    HW259160   2.437   1.076   3.455  0.9420  0.5242  0.1297
17733SOL     OW59161   4.774   5.873   5.141 -0.2664  0.1373 -0.4615
17733SOL    HW159162   4.816   5.833   5.065 -0.7936  0.6466 -1.0355
17733SOL    HW259163   4.843   5.926   5.181  0.4077 -1.2375  0.2463
17734SOL     OW59164   0.617   9.675   5.132 -0.1267 -0.5033  0.6269
17734SOL    HW159165   0.609   9.770   5.147  0.6581 -0.2387 -0.4729
17734SOL    HW259166   0.683   9.668   5.063 -2.1268 -1.6811 -1.2884
17735SOL     OW59167  12.189   7.836   3.402 -0.1934  0.1566 -0.2226
17735SOL    HW159168  12.151   7.924   3.409  1.4609  1.0444 -1.5278
17735SOL    HW259169  12.282   7.849   3.420 -0.2230 -1.7448  1.7486
17736SOL     OW59170   1.834   3.158   6.391  0.4154 -0.1951 -0.4423
17736SOL    HW159171   1.794   3.137   6.307  3.2857  1.3326 -2.3338
17736SOL    HW259172   1.875   3.243   6.378  0.9427  0.1257  2.5621
17737SOL     OW59173   7.014   5.013   4.461  0.0053 -0.3219  0.2915
17737SOL    HW159174   6.996   5.085   4.522  2.6847  0.9358 -0.2256
17737SOL    HW259175   6.934   5.004   4.409 -1.0812  0.9524  1.6713
17738SOL     OW59176  10.840   2.005   2.139  0.1708 -0.2303  0.3906
17738SOL    HW159177  10.750   2.002   2.172  1.0492  0.1341  2.9746
17738SOL    HW259178  10.830   2.041   2.051 -2.2147 -0.2793  0.5512
17739SOL     OW59179   6.536  11.494  11.867  0.1163 -0.5943  0.3652
17739SOL    HW159180   6.617  11.445  11.851  0.0544 -0.3321 -0.8461
17739SOL    HW259181   6.560  11.558  11.934  1.5417  0.9564 -1.5240
17740SOL     OW59182   1.033   1.658   5.402 -0.4690  0.4846 -0.1660
17740SOL    HW159183   0.979   1.662   5.323 -1.1211 -0.3112  0.2187
17740SOL    HW259184   0.973   1.682   5.473 -0.4699 -0.8694  0.3252
17741SOL     OW59185   7.719   3.431  12.118  0.5506 -0.1259 -0.2337
17741SOL    HW159186   7.636   3.429  12.165  1.1068 -1.3683  0.7536
17741SOL    HW259187   7.704   3.492  12.046 -0.7356  0.8316  0.7888
17742SOL     OW59188   5.438   7.623   3.630 -0.4608 -0.1190  0.0091
17742SOL    HW159189   5.353   7.659   3.604 -0.3264  0.2216  0.0278
17742SOL    HW259190   5.497   7.647   3.558 -0.1965  0.3894  0.3831
17743SOL     OW59191   1.560  11.438  11.509 -0.0963 -0.2457  0.0131
17743SOL    HW159192   1.483  11.452  11.453  0.2719  0.9418 -0.2151
17743SOL    HW259193   1.530  11.376  11.576 -0.6571 -1.3926 -1.2584
17744SOL     OW59194   5.853   3.080   5.899 -0.4753 -0.6168  0.1372
17744SOL    HW159195   5.790   3.131   5.949 -1.7764 -2.4777  0.4672
17744SOL    HW259196   5.922   3.058   5.963  1.0375  2.0718 -0.4027
17745SOL     OW59197  11.542   0.949  12.132 -0.3437 -0.0852  0.3567
17745SOL    HW159198  11.462   0.942  12.185  0.2046 -0.7309  1.1391
17745SOL    HW259199  11.511   0.964  12.043 -1.3272  0.0222  0.7027
17746SOL     OW59200   1.977   1.682   9.810 -0.2081 -0.0647 -0.2742
17746SOL    HW159201   2.043   1.693   9.879 -1.2851  1.2813  0.5838
17746SOL    HW259202   2.022   1.706   9.729  0.0560  2.0870  0.4504
17747SOL     OW59203   6.626   2.362   0.094  0.3075  0.3788 -0.2284
17747SOL    HW159204   6.659   2.274   0.074  0.7649  0.4568  0.1585
17747SOL    HW259205   6.539   2.365   0.054  0.2352 -0.2946 -0.1268
17748SOL     OW59206   1.102   5.410   6.179  0.2536 -0.2228  0.3481
17748SOL    HW159207   1.045   5.360   6.121  1.5605 -0.4842 -0.7793
17748SOL    HW259208   1.181   5.426   6.126  1.1127  0.3467  1.7480
17749SOL     OW59209   9.427  11.182   5.629 -0.0449 -0.0804 -0.6469
17749SOL    HW159210   9.493  11.124   5.592  0.3003 -1.0895  1.4193
17749SOL    HW259211   9.442  11.266   5.586  3.1001 -0.0656  0.2995
17750SOL     OW59212   2.665  10.153   8.656  0.1131  0.3124 -0.2805
17750SOL    HW159213   2.646  10.083   8.718 -2.7360  1.1503 -0.0520
17750SOL    HW259214   2.648  10.114   8.570 -1.0510  0.5322 -0.1751
17751SOL     OW59215   3.654  10.412   4.529 -0.0417 -0.2794 -0.5124
17751SOL    HW159216   3.667  10.480   4.596  0.9236 -1.2850  0.3571
17751SOL    HW259217   3.732  10.420   4.474 -0.8472  0.5664 -1.5781
17752SOL     OW59218  11.780  12.020  10.915  0.1149  0.3413  0.8373
17752SOL    HW159219  11.832  12.098  10.934 -0.2837  0.5043  1.2718
17752SOL    HW259220  11.844  11.951  10.899  0.5216  1.1145 -1.1602
17753SOL     OW59221   5.741   1.105   0.815  0.5042  0.5407 -0.3613
17753SOL    HW159222   5.794   1.066   0.745  0.7401 -0.2241  0.2368
17753SOL    HW259223   5.681   1.035   0.841  2.2700 -0.1726  2.1260
17754SOL     OW59224   7.989  11.583   4.858 -0.7721 -0.3002 -0.0173
17754SOL    HW159225   7.982  11.678   4.872 -2.3140 -0.4334  0.3001
17754SOL    HW259226   8.046  11.552   4.928  1.4339  0.6285 -1.3024
17755SOL     OW59227   1.875   1.902   5.816 -0.0805  0.7754  0.6309
17755SOL    HW159228   1.847   1.840   5.749 -1.9932  0.7009  1.4192
17755SOL    HW259229   1.964   1.877   5.837 -0.6810 -1.5055  0.6647
17756SOL     OW59230   7.214   3.795   2.882 -0.3134 -0.4422  0.4292
17756SOL    HW159231   7.164   3.734   2.936  0.9936 -1.2422  0.7697
17756SOL    HW259232   7.305   3.781   2.908  0.1074  0.9173 -0.2377
17757SOL     OW59233  11.909   9.576  12.100 -0.0132  0.3018  0.0471
17757SOL    HW159234  11.935   9.546  12.013 -0.2486 -1.2648  0.4867
17757SOL    HW259235  11.952   9.661  12.110  1.8246 -0.4810 -0.7286
17758SOL     OW59236  11.230  10.653   3.465 -0.4284 -0.5054  0.4474
17758SOL    HW159237  11.279  10.724   3.424  0.8836 -2.2812 -1.2369
17758SOL    HW259238  11.288  10.621   3.534 -1.4273  0.6323  1.8553
17759SOL     OW59239   0.488   6.227   7.295 -0.1925  0.4135  0.2928
17759SOL    HW159240   0.418   6.257   7.352 -0.7474  0.7615 -0.5498
17759SOL    HW259241   0.444   6.176   7.227  0.2182  1.5857 -0.8961
17760SOL     OW59242   5.796   9.483   1.929 -0.0840  0.3934 -0.4032
17760SOL    HW159243   5.860   9.485   2.000 -1.6701  2.0076  1.1033
17760SOL    HW259244   5.743   9.405   1.947  0.1734  0.2151 -0.4220
17761SOL     OW59245   3.601   1.358   2.077  0.1933  0.3226 -0.2970
17761SOL    HW159246   3.612   1.262   2.079  0.3864  0.3585  0.4286
17761SOL    HW259247   3.624   1.387   2.165 -0.7478  0.9489 -0.2425
17762SOL     OW59248   5.427   6.766   7.414 -0.3302  0.2639 -0.1320
17762SOL    HW159249   5.517   6.762   7.381 -0.3668  0.5242 -0.2670
17762SOL    HW259250   5.393   6.849   7.381 -0.7095  0.0402 -0.3036
17763SOL     OW59251   3.835   6.733  12.491 -0.1485  0.3152 -0.2233
17763SOL    HW159252   3.798   6.815  12.458 -1.6432 -1.3576 -3.1216
17763SOL    HW259253   3.929   6.750  12.496 -0.3473  2.0569 -1.3828
17764SOL     OW59254   1.960   4.866   1.436 -0.3894 -0.3981  0.5166
17764SOL    HW159255   1.985   4.800   1.371 -1.6033 -2.4647  2.0088
17764SOL    HW259256   1.920   4.936   1.385 -1.1097 -1.8446 -1.0197
17765SOL     OW59257   7.413   2.308   6.237 -0.4843 -0.7086 -0.1050
17765SOL    HW159258   7.351   2.369   6.277 -1.3663 -0.7217 -1.3518
17765SOL    HW259259   7.483   2.364   6.203 -0.2195 -0.6085  0.5959
17766SOL     OW59260   9.211   6.704  11.246 -0.3442 -0.1044  0.4928
17766SOL    HW159261   9.188   6.727  11.156  0.1066 -1.7930 -0.0810
17766SOL    HW259262   9.131   6.666  11.282 -0.1814 -0.5216  0.4160
17767SOL     OW59263   8.049   7.701   7.092  0.4685  0.4631  0.5077
17767SOL    HW159264   8.093   7.775   7.135  1.4280 -1.3772  2.9492
17767SOL    HW259265   7.980   7.675   7.153  2.2528 -2.6293  1.4416
17768SOL     OW59266   9.163   8.554   8.205 -0.2978 -0.2767 -0.3994
17768SOL    HW159267   9.206   8.469   8.210 -0.9786 -0.6363 -0.5760
17768SOL    HW259268   9.231   8.613   8.172  0.0804 -0.8224 -0.6198
17769SOL     OW59269   4.371   5.028   4.350  0.0583  0.0919  0.4717
17769SOL    HW159270   4.447   4.970   4.346 -0.8562 -1.1737  0.7803
17769SOL    HW259271   4.302   4.981   4.303 -0.1262  1.9386 -1.2328
17770SOL     OW59272   4.287   6.192   0.095  0.5542  0.3121  0.0423
17770SOL    HW159273   4.206   6.141   0.095  0.9775 -0.4385 -1.4558
17770SOL    HW259274   4.259   6.281   0.115 -1.2022  0.7582 -3.5477
17771SOL     OW59275  10.226   5.653   5.142  0.5033  0.0080  0.3960
17771SOL    HW159276  10.198   5.651   5.051 -1.0705 -1.8228  0.8578
17771SOL    HW259277  10.304   5.598   5.145 -0.6772 -1.7198  0.4796
17772SOL     OW59278   5.600   5.485   3.470 -0.1073  0.3557 -0.1510
17772SOL    HW159279   5.550   5.469   3.550  0.6455 -0.7069  0.1359
17772SOL    HW259280   5.596   5.580   3.458 -2.2296  0.3270 -0.1877
17773SOL     OW59281  10.794   4.068   4.049  0.0238 -0.0113  0.1483
17773SOL    HW159282  10.786   4.148   3.996 -0.1676 -0.7056 -0.8953
17773SOL    HW259283  10.824   4.099   4.135  0.2472  1.1468 -0.3327
17774SOL     OW59284   8.588   3.771   3.436  0.2786  0.2412  0.6671
17774SOL    HW159285   8.628   3.691   3.472  0.3315 -0.4190 -0.7816
17774SOL    HW259286   8.531   3.739   3.366  0.1043  1.4654  0.2361
17775SOL     OW59287   8.666   9.955   5.156  0.1121  0.3881  0.3568
17775SOL    HW159288   8.663  10.039   5.111 -0.5985  0.7517  1.0435
17775SOL    HW259289   8.735   9.906   5.112 -0.7854  0.5868 -1.3472
17776SOL     OW59290   9.367   2.455   9.876 -0.2350  0.1334  0.0719
17776SOL    HW159291   9.393   2.527   9.933 -0.4771  0.6183 -0.4255
17776SOL    HW259292   9.446   2.433   9.826 -0.1331 -0.0177  0.2972
17777SOL     OW59293   3.442  12.296   3.487  0.5191 -0.3442  0.4369
17777SOL    HW159294   3.419  12.264   3.574 -0.0492 -2.4652 -0.4317
17777SOL    HW259295   3.452  12.216   3.434 -1.8737  0.8952 -2.1277
17778SOL     OW59296   4.971  10.874  11.924 -0.4825 -0.5704 -0.1199
17778SOL    HW159297   4.947  10.825  12.003 -1.1420  0.7434  0.5189
17778SOL    HW259298   4.897  10.861  11.865  0.2382 -1.9810 -0.7614
17779SOL     OW59299   6.763   4.769  11.373 -0.1459 -0.1365 -0.0656
17779SOL    HW159300   6.759   4.690  11.426  0.2017  0.7449  1.3113
17779SOL    HW259301   6.677   4.774  11.331 -0.7923 -0.3402  1.1863
17780SOL     OW59302  11.171   1.091   7.907 -0.0255 -0.0287  0.1199
17780SOL    HW159303  11.194   0.999   7.892 -0.6590 -0.0119 -1.0891
17780SOL    HW259304  11.076   1.091   7.918 -0.1549  0.5804 -0.8636
17781SOL     OW59305   8.235   2.497  10.437 -0.3394  0.0542  0.4443
17781SOL    HW159306   8.252   2.583  10.473  1.0371  0.1723 -0.4184
17781SOL    HW259307   8.239   2.509  10.342  0.3790 -1.0422  0.3139
17782SOL     OW59308   4.234   1.594  11.927  0.1042  0.4634 -0.3208
17782SOL    HW159309   4.262   1.649  11.854  0.7739  0.0481 -0.3901
17782SOL    HW259310   4.142   1.616  11.940  0.3357  1.5124 -0.4149
17783SOL     OW59311   8.241   4.292   4.027 -0.0446 -0.0615  0.4026
17783SOL    HW159312   8.191   4.368   4.057  2.3088  1.3956  0.8903
17783SOL    HW259313   8.298   4.270   4.101  0.1704 -1.5593 -0.1783
17784SOL     OW59314   8.774  12.374  10.344  0.0454  0.1602  0.5314
17784SOL    HW159315   8.845  12.429  10.310  1.1856 -1.3098  0.4523
17784SOL    HW259316   8.814  12.323  10.414 -0.7829 -1.0842  0.1302
17785SOL     OW59317  11.866   5.737  12.335 -0.7299  0.3257  0.4848
17785SOL    HW159318  11.891   5.650  12.364 -4.1681 -0.7229  0.7568
17785SOL    HW259319  11.947   5.776  12.303  0.5263 -4.0755 -2.6044
17786SOL     OW59320   9.130   3.264   1.998  0.5669 -0.0038 -0.4791
17786SOL    HW159321   9.177   3.269   2.081 -0.1675  1.9890 -0.1461
17786SOL    HW259322   9.038   3.256   2.022  0.4577 -0.9987 -1.1335
17787SOL     OW59323   9.605   9.744   7.746  0.1035  0.5183  0.0808
17787SOL    HW159324   9.526   9.730   7.695 -0.0052  0.0515  0.3757
17787SOL    HW259325   9.633   9.833   7.723 -0.8759  0.9404  0.4902
17788SOL     OW59326   7.451  11.296   6.178 -0.3344 -0.1423  0.1506
17788SOL    HW159327   7.499  11.378   6.164 -1.5215  0.2554 -2.0315
17788SOL    HW259328   7.519  11.231   6.197  0.7736  0.9916  0.1936
17789SOL     OW59329   2.742   3.347   1.715 -0.1732  0.2038  0.3250
17789SOL    HW159330   2.678   3.378   1.779 -0.6924 -0.4824  0.1543
17789SOL    HW259331   2.824   3.390   1.740 -0.3492 -0.1078  1.5057
17790SOL     OW59332   9.375   4.833   6.951  0.0929  0.7533 -0.1200
17790SOL    HW159333   9.317   4.817   6.876 -0.7349  0.3357  0.5905
17790SOL    HW259334   9.409   4.747   6.974  1.2385  1.0298 -0.6939
17791SOL     OW59335   8.871   6.962   9.071  0.3111 -0.1082  0.0384
17791SOL    HW159336   8.837   6.876   9.097 -0.0816 -0.4701 -1.5291
17791SOL    HW259337   8.853   6.967   8.977 -1.7753  2.6437  0.4603
17792SOL     OW59338  11.765   0.152   0.492 -0.3977 -0.1297 -0.5138
17792SOL    HW159339  11.694   0.182   0.434  0.5033  1.7075 -0.7587
17792SOL    HW259340  11.748   0.196   0.575  0.8120  0.9091 -0.7898
17793SOL     OW59341   2.679   0.933  10.666  0.2120 -0.5845  0.4480
17793SOL    HW159342   2.647   0.993  10.733  0.8733  0.1042  0.1585
17793SOL    HW259343   2.723   0.863  10.715 -1.2296 -1.2714  0.8276
17794SOL     OW59344   7.529   7.912   9.567  0.1829 -0.3759  0.6219
17794SOL    HW159345   7.473   7.873   9.634 -1.4722  0.7252 -0.0558
17794SOL    HW259346   7.512   7.860   9.488 -1.2018  0.9639 -0.0050
17795SOL     OW59347  11.923   9.969  10.764  0.2389  0.4628 -0.1022
17795SOL    HW159348  11.918  10.058  10.799  0.7073  0.5462 -0.2351
17795SOL    HW259349  11.832   9.945  10.746 -0.0146  0.4558  1.0787
17796SOL     OW59350   4.416   2.028   5.345  0.6988 -0.6086  0.1027
17796SOL    HW159351   4.412   2.016   5.250  1.0223  0.1032 -0.0100
17796SOL    HW259352   4.462   2.111   5.356  3.0218 -1.9188  0.9407
17797SOL     OW59353   7.387   8.011  11.277  0.0696 -0.3317 -0.3710
17797SOL    HW159354   7.359   7.977  11.362 -1.4321  0.1573 -0.6345
17797SOL    HW259355   7.315   7.988  11.217  0.4610  0.5435 -1.2120
17798SOL     OW59356   8.285  10.649   5.492  0.2159  0.0075 -0.0093
17798SOL    HW159357   8.306  10.628   5.582 -0.3166  1.9064  0.6109
17798SOL    HW259358   8.205  10.702   5.497  0.4344  0.5578 -1.5360
17799SOL     OW59359   2.088  10.142   5.899 -0.1346 -0.1156  0.3951
17799SOL    HW159360   2.038  10.185   5.969  1.4096  0.9594  0.9037
17799SOL    HW259361   2.050  10.054   5.893 -0.6287 -0.0788  2.2788
17800SOL     OW59362  11.711  12.187   6.209  0.3500  0.3679  0.6180
17800SOL    HW159363  11.694  12.100   6.246  0.8231  0.2307  0.5194
17800SOL    HW259364  11.792  12.216   6.250  0.3591  0.6310  0.4193
17801SOL     OW59365   5.772   8.372   2.593 -0.0509  0.8715 -0.5141
17801SOL    HW159366   5.864   8.361   2.568  0.5077  2.1516  0.8212
17801SOL    HW259367   5.775   8.409   2.681 -1.8843 -0.6220  0.2359
17802SOL     OW59368   7.981   2.905  10.964 -0.0707  0.1014  0.2374
17802SOL    HW159369   7.992   2.934  11.055 -0.7742 -0.1471  0.4081
17802SOL    HW259370   7.913   2.838  10.969  0.2047 -0.2303 -0.4165
17803SOL     OW59371   3.866   4.634   8.727  0.0052 -0.1956 -0.3190
17803SOL    HW159372   3.944   4.682   8.700 -0.2347  0.1338 -0.4398
17803SOL    HW259373   3.897   4.545   8.744  0.6511  0.2501  0.9399
17804SOL     OW59374   0.885  10.441   5.423  0.9556  0.6111  0.6228
17804SOL    HW159375   0.900  10.373   5.489  0.4960  1.1947  1.3500
17804SOL    HW259376   0.830  10.400   5.357 -2.3157  1.1716  2.7572
17805SOL     OW59377   2.047   8.187   0.015  0.1188  0.1837  0.0867
17805SOL    HW159378   2.114   8.223   0.073 -0.3125  0.6887  0.2698
17805SOL    HW259379   2.081   8.204  -0.073  0.0010  0.8973  0.1706
17806SOL     OW59380  10.828   6.900   2.364 -0.9360 -0.0533  0.0874
17806SOL    HW159381  10.903   6.928   2.311 -1.1207 -1.0023 -0.7169
17806SOL    HW259382  10.770   6.976   2.366 -0.9223  0.0110 -1.0937
17807SOL     OW59383   3.516   0.246   0.101  0.2594 -0.0086  0.4888
17807SOL    HW159384   3.549   0.254   0.012 -1.7252  0.4852 -0.2631
17807SOL    HW259385   3.581   0.291   0.155  0.6021  1.3133 -0.9460
17808SOL     OW59386   1.729   0.834   6.985 -0.1547 -0.0301  0.7257
17808SOL    HW159387   1.802   0.894   6.969  0.7059 -1.2171  0.1113
17808SOL    HW259388   1.737   0.811   7.077  0.3655 -0.3210  0.6066
17809SOL     OW59389   3.020   2.902   4.158  0.5522 -0.1592  0.1154
17809SOL    HW159390   2.971   2.874   4.235 -0.4085  1.2036  0.0414
17809SOL    HW259391   2.988   2.846   4.088  1.0523 -1.0549  0.5956
17810SOL     OW59392   2.127   5.004   8.093 -0.0512  0.4066  0.3312
17810SOL    HW159393   2.051   5.013   8.035  0.5761  0.6706 -0.4890
17810SOL    HW259394   2.177   4.932   8.055 -0.2903 -0.2980  1.3393
17811SOL     OW59395   4.984   8.701   1.680  0.4990 -0.1487 -0.1278
17811SOL    HW159396   5.018   8.767   1.740  0.9682  2.2004 -2.7377
17811SOL    HW259397   4.891   8.694   1.701  0.4695  1.2981  0.3270
17812SOL     OW59398  11.837  12.426   2.705  0.3330 -0.0973  0.3538
17812SOL    HW159399  11.821  12.434   2.611  1.0262  1.1978  0.3158
17812SOL    HW259400  11.790  12.499   2.744 -0.1253 -0.7500  1.0570
17813SOL     OW59401  11.358   4.558   9.627 -0.3573  0.2309  0.3339
17813SOL    HW159402  11.326   4.501   9.697 -0.5415 -0.6907 -0.4771
17813SOL    HW259403  11.404   4.499   9.567  0.4953  1.1263  0.0792
17814SOL     OW59404   3.699   7.539   1.106  0.2923  0.4183  0.0899
17814SOL    HW159405   3.693   7.544   1.202  0.6504  0.1185  0.1339
17814SOL    HW259406   3.609   7.539   1.076  0.1744  2.4350  0.3134
17815SOL     OW59407  12.107  12.264   0.228  0.0369 -0.2548 -0.1229
17815SOL    HW159408  12.179  12.325   0.245 -1.8031  1.5095  1.9171
17815SOL    HW259409  12.125  12.230   0.140  3.1737  0.2808  0.1862
17816SOL     OW59410   9.484  11.367   8.822  0.7561 -0.6691  0.6547
17816SOL    HW159411   9.418  11.404   8.881  2.6391  1.7151  1.4504
17816SOL    HW259412   9.551  11.332   8.881  1.8902  0.2568 -0.0482
17817SOL     OW59413   3.368   2.929   9.535 -0.2839  0.1125  0.1271
17817SOL    HW159414   3.305   2.914   9.465 -2.2689  2.6192  1.2400
17817SOL    HW259415   3.329   2.888   9.612  0.8944 -0.8051  0.2756
17818SOL     OW59416   2.305   7.617   1.543  0.4523 -0.6347 -0.4413
17818SOL    HW159417   2.247   7.627   1.618  0.8203  1.5957 -0.3696
17818SOL    HW259418   2.248   7.630   1.467  0.7147  1.0878 -0.3839
17819SOL     OW59419  11.841   7.834   8.099 -0.0228 -0.0014 -0.4011
17819SOL    HW159420  11.929   7.845   8.066 -0.0480 -0.5446 -0.6683
17819SOL    HW259421  11.836   7.891   8.176  0.3147  0.5935 -0.8219
17820SOL     OW59422   0.862   0.397   4.864  1.2373  0.4532 -0.2933
17820SOL    HW159423   0.945   0.415   4.907  1.9448  0.8617 -1.7543
17820SOL    HW259424   0.814   0.343   4.927  2.7905 -0.1899  0.4144
17821SOL     OW59425   1.830   3.113   0.211  0.1905 -0.2985 -0.2609
17821SOL    HW159426   1.800   3.188   0.262  1.1690 -0.7373  1.0158
17821SOL    HW259427   1.802   3.037   0.262 -0.1607 -0.7983 -1.1784
17822SOL     OW59428  11.748   7.242   3.993  0.3571  0.2445 -0.7412
17822SOL    HW159429  11.718   7.227   3.903  1.4780  0.4268 -1.1674
17822SOL    HW259430  11.844   7.237   3.987  0.4140 -0.8638  0.6599
17823SOL     OW59431   6.248   0.515   2.471 -0.2447  0.1693  0.3871
17823SOL    HW159432   6.308   0.461   2.523  0.9537 -0.2318 -1.3268
17823SOL    HW259433   6.177   0.455   2.447  0.8136 -0.5609 -1.0652
17824SOL     OW59434   6.807   8.871   1.987 -0.5020  0.1200  0.1728
17824SOL    HW159435   6.814   8.792   1.932  1.1533  0.2064  0.1925
17824SOL    HW259436   6.770   8.937   1.929  0.7672  0.0764 -0.7310
17825SOL     OW59437   0.394  12.388   0.486  0.8283 -0.1344 -0.0270
17825SOL    HW159438   0.306  12.382   0.523  0.7071  0.7032 -0.1582
17825SOL    HW259439   0.406  12.481   0.467  1.3058 -0.3923 -1.0775
17826SOL     OW59440   3.380   8.219   0.667 -0.0953 -0.0343  0.6795
17826SOL    HW159441   3.338   8.149   0.616  0.0820  0.8389 -0.7390
17826SOL    HW259442   3.411   8.176   0.746 -0.7455 -1.3833  0.2355
17827SOL     OW59443  11.061   6.331   5.980  0.5444  0.4622  0.3783
17827SOL    HW159444  11.093   6.324   6.070 -0.9233 -2.0573  0.7767
17827SOL    HW259445  10.979   6.379   5.987  0.0206 -0.4389  0.5164
17828SOL     OW59446  11.117   1.829  11.219  0.1584 -0.1229 -0.7736
17828SOL    HW159447  11.148   1.740  11.235 -0.0568  0.1991  1.7682
17828SOL    HW259448  11.196   1.882  11.220  0.0908 -0.0291 -0.1345
17829SOL     OW59449  10.629   7.067   1.247  0.6039  0.4508 -0.1425
17829SOL    HW159450  10.639   7.108   1.333  0.8405  0.7230 -0.3000
17829SOL    HW259451  10.549   7.106   1.211  0.7785  0.7062 -0.2544
17830SOL     OW59452   2.110   9.302   0.167 -0.0318 -0.0931  0.6197
17830SOL    HW159453   2.097   9.323   0.075  0.1402  1.3689  0.9018
17830SOL    HW259454   2.198   9.333   0.187 -0.7448  1.4017  1.7102
17831SOL     OW59455   4.225   9.204   6.189 -0.8409  0.1777  0.6194
17831SOL    HW159456   4.287   9.275   6.200  2.1907 -2.4963  2.4211
17831SOL    HW259457   4.165   9.213   6.263 -0.5131  0.8526  0.8075
17832SOL     OW59458   9.892   4.784   5.289  0.1950 -0.2921  0.3787
17832SOL    HW159459   9.863   4.768   5.199  0.6353  1.2560 -0.0526
17832SOL    HW259460   9.839   4.724   5.341  0.3356 -1.6426 -0.9463
17833SOL     OW59461   4.712   6.530   2.057 -0.1002 -0.7212 -0.1733
17833SOL    HW159462   4.622   6.497   2.060  0.2545 -1.7047  0.0588
17833SOL    HW259463   4.718   6.573   1.971 -0.4965 -1.5473 -0.6314
17834SOL     OW59464  11.724   9.257   1.811  0.4852  0.4914 -0.1696
17834SOL    HW159465  11.683   9.330   1.857  0.6424  0.5970 -0.1971
17834SOL    HW259466  11.744   9.292   1.724  3.2738  1.3504  0.7349
17835SOL     OW59467   0.401   1.012   7.265  0.1623 -0.5695  0.3519
17835SOL    HW159468   0.384   1.106   7.274 -1.5080 -0.8337  0.2721
17835SOL    HW259469   0.495   1.006   7.249  0.5003  1.0047  1.5046
17836SOL     OW59470   8.602   7.284   1.600 -0.1844 -0.2741 -0.0642
17836SOL    HW159471   8.686   7.328   1.589 -0.2591  0.1580  1.0023
17836SOL    HW259472   8.582   7.293   1.693 -1.0257 -1.0805 -0.1511
17837SOL     OW59473   9.174  10.101   0.508  0.3524  0.1275  0.5354
17837SOL    HW159474   9.259  10.096   0.551  0.6339  0.5675  0.0541
17837SOL    HW259475   9.128  10.172   0.554 -0.1772 -0.8226  1.4969
17838SOL     OW59476   3.831   5.785   8.245  0.2819  0.0689  0.3652
17838SOL    HW159477   3.792   5.738   8.319  0.2918 -0.6723 -0.0883
17838SOL    HW259478   3.876   5.716   8.195  0.6192  0.6279 -0.1067
17839SOL     OW59479  12.412   2.236  10.276 -0.1429  0.2475  0.2310
17839SOL    HW159480  12.479   2.291  10.236 -0.4041  0.4867  0.1208
17839SOL    HW259481  12.460   2.158  10.305 -0.1761 -0.6704 -1.9746
17840SOL     OW59482   1.100  12.233   0.230  0.6169  0.3262 -0.1727
17840SOL    HW159483   1.034  12.217   0.298 -0.0680 -1.3721 -1.1696
17840SOL    HW259484   1.092  12.158   0.171  0.8109  1.9850 -2.4485
17841SOL     OW59485  11.652   2.798   4.767 -0.0834 -0.0593  0.0273
17841SOL    HW159486  11.722   2.857   4.739  0.9214 -0.7704  0.9467
17841SOL    HW259487  11.682   2.711   4.743 -0.9343 -0.3380 -0.0899
17842SOL     OW59488   9.336   6.273   1.077  0.1598 -0.3605 -0.0137
17842SOL    HW159489   9.349   6.269   1.171  1.5565  1.0301 -0.1137
17842SOL    HW259490   9.274   6.344   1.063  1.2275  0.5594 -0.2130
17843SOL     OW59491   9.882   5.707  11.324  0.4657  0.5082 -0.2989
17843SOL    HW159492   9.817   5.773  11.298 -0.8030 -0.6979 -0.3120
17843SOL    HW259493   9.921   5.742  11.404  0.0172  1.4018 -0.4555
17844SOL     OW59494   7.588   2.420   1.753 -0.2891 -0.2166 -0.0987
17844SOL    HW159495   7.540   2.498   1.726 -0.3400 -0.6214 -1.2545
17844SOL    HW259496   7.666   2.454   1.798 -0.7076  0.4770  0.1108
17845SOL     OW59497   3.949   5.221   0.825 -0.3956  0.3564  0.5668
17845SOL    HW159498   4.021   5.215   0.762 -1.4748 -1.7972 -0.5374
17845SOL    HW259499   3.871   5.237   0.772 -1.0492  0.5826  1.5652
17846SOL     OW59500   3.311   1.736   2.329 -0.2625  0.0091 -0.7586
17846SOL    HW159501   3.241   1.767   2.386  0.7512  0.8691  0.0709
17846SOL    HW259502   3.341   1.654   2.369  0.2726  0.4768 -0.1848
17847SOL     OW59503  10.749   7.989   4.077 -0.4029  0.3002 -0.1073
17847SOL    HW159504  10.781   8.078   4.091 -1.4903  0.9510 -1.5577
17847SOL    HW259505  10.657   7.999   4.054 -0.3245 -1.1236 -1.1959
17848SOL     OW59506  12.439   6.056   8.677  0.3327 -0.2633 -0.1810
17848SOL    HW159507  12.485   6.006   8.745  0.7587  0.3745  0.0123
17848SOL    HW259508  12.497   6.052   8.602 -0.4071 -1.4661 -0.7224
17849SOL     OW59509   6.923   1.116  11.606 -0.5639 -0.1670  0.4452
17849SOL    HW159510   6.876   1.146  11.529 -0.9965 -0.6914  0.4983
17849SOL    HW259511   6.970   1.037  11.577  1.7526  1.2978 -0.0938
17850SOL     OW59512   4.898   1.129   1.248 -1.2472  0.4134  0.4774
17850SOL    HW159513   4.804   1.113   1.253 -1.6570  1.3890 -2.3162
17850SOL    HW259514   4.920   1.111   1.156  0.6666  3.1554  0.2907
17851SOL     OW59515   9.763  10.101   7.162 -0.0691 -0.2449 -0.2814
17851SOL    HW159516   9.769  10.162   7.089  0.3343 -0.2916 -0.2875
17851SOL    HW259517   9.672  10.070   7.160 -0.1500  0.0130 -0.5523
17852SOL     OW59518   6.270   8.863   9.199  0.4784 -0.0787 -0.2167
17852SOL    HW159519   6.287   8.860   9.105  0.0007  0.2547 -0.3162
17852SOL    HW259520   6.352   8.834   9.239  0.7445 -0.0424 -0.7291
17853SOL     OW59521   9.772   8.189   0.819  0.1941  0.1339 -1.1878
17853SOL    HW159522   9.829   8.250   0.771  0.3783  0.4499 -0.5817
17853SOL    HW259523   9.817   8.105   0.813  1.2712  0.5751  0.1322
17854SOL     OW59524   0.228   8.864   0.609 -0.0433  0.3908 -0.2256
17854SOL    HW159525   0.263   8.775   0.604 -0.4590  0.0302  2.1692
17854SOL    HW259526   0.303   8.919   0.631 -0.2868  0.1213  1.4337
17855SOL     OW59527  12.490  12.214   7.282  0.5400  0.1697  0.2593
17855SOL    HW159528  12.555  12.226   7.352  0.4882 -0.1196  0.3604
17855SOL    HW259529  12.530  12.150   7.223  0.5614  0.3766  0.0496
17856SOL     OW59530   7.522  10.992  11.851 -0.3646 -0.6364  0.0430
17856SOL    HW159531   7.606  10.983  11.896 -0.5632  1.2569  0.8511
17856SOL    HW259532   7.544  10.979  11.758  0.5732 -1.4647  0.3578
17857SOL     OW59533  10.673   4.807   4.786 -0.0914  0.6068 -0.1659
17857SOL    HW159534  10.643   4.718   4.803 -1.6276  1.1877  0.3979
17857SOL    HW259535  10.750   4.797   4.730 -0.0449 -1.0708  0.1466
17858SOL     OW59536   0.615  11.725  10.646  0.0563 -0.1625 -0.6323
17858SOL    HW159537   0.673  11.801  10.644 -0.5341  0.5102  2.2367
17858SOL    HW259538   0.529  11.760  10.623 -0.3538  0.2819  1.3809
17859SOL     OW59539   0.597   8.960   2.101  0.7239  0.0835 -0.1745
17859SOL    HW159540   0.581   9.041   2.052  0.2284  0.2525  0.2501
17859SOL    HW259541   0.649   8.906   2.042  1.4074  0.8687 -0.3191
17860SOL     OW59542   5.837   1.930   2.381 -0.1248  0.1084  0.5295
17860SOL    HW159543   5.768   1.953   2.318  0.2951  0.5167  0.2093
17860SOL    HW259544   5.896   1.873   2.332  0.4990  0.8678  0.3774
17861SOL     OW59545   3.836   6.004   7.624  0.2815  0.0173 -0.2683
17861SOL    HW159546   3.912   5.947   7.631  0.0254 -0.2217  0.8185
17861SOL    HW259547   3.807   6.016   7.714 -0.5875  0.6296 -0.6125
17862SOL     OW59548   4.110   6.875  10.473  0.0540 -0.0107  0.0803
17862SOL    HW159549   4.072   6.943  10.528 -0.4563  0.1578 -0.4780
17862SOL    HW259550   4.194   6.854  10.515 -1.0290 -1.0307  1.8581
17863SOL     OW59551   8.339   2.452   2.777 -0.4541  0.2582  0.2213
17863SOL    HW159552   8.271   2.389   2.802 -0.9660  0.9921  0.6919
17863SOL    HW259553   8.403   2.447   2.848 -0.0042 -0.4272 -0.2182
17864SOL     OW59554   3.610  11.730   2.742  0.4513  0.4270  0.0202
17864SOL    HW159555   3.588  11.729   2.649 -0.1600  1.1966  0.1412
17864SOL    HW259556   3.704  11.715   2.746  0.2111 -1.3679 -0.6179
17865SOL     OW59557   7.436  10.797   3.241  0.6607 -0.4650 -0.2646
17865SOL    HW159558   7.341  10.789   3.255  0.6621  1.7716  1.7504
17865SOL    HW259559   7.446  10.877   3.190  1.4890 -0.0462  0.5295
17866SOL     OW59560   3.060   4.595   0.254  0.7075 -0.0198 -0.0914
17866SOL    HW159561   3.120   4.639   0.315 -0.3358 -1.8994  2.4518
17866SOL    HW259562   2.989   4.658   0.241  0.3634 -0.0262  1.6173
17867SOL     OW59563   6.657   4.060  10.298  0.1659 -0.1331 -0.6043
17867SOL    HW159564   6.670   3.966  10.290 -3.1556 -0.6463 -1.4792
17867SOL    HW259565   6.655   4.077  10.392 -1.4311 -1.3769 -0.3742
17868SOL     OW59566   3.132   5.935   1.717  0.0588 -0.1359 -0.0073
17868SOL    HW159567   3.160   5.864   1.775  3.2351  1.8565  1.1701
17868SOL    HW259568   3.085   5.995   1.774 -1.5947 -0.6678 -0.7549
17869SOL     OW59569   2.230   1.007  10.767 -0.0957  0.0069  0.1045
17869SOL    HW159570   2.317   1.026  10.803 -0.6369  1.2439  0.8172
17869SOL    HW259571   2.248   0.950  10.692  1.3842  0.6681 -0.0852
17870SOL     OW59572   1.039   1.991   2.803  0.4631  0.3135  0.2116
17870SOL    HW159573   0.971   2.051   2.835 -0.1177  1.2916 -2.5169
17870SOL    HW259574   1.121   2.031   2.830  0.0188  1.2761  0.1904
17871SOL     OW59575   1.504  12.348   5.505 -0.0739 -0.0964  0.1898
17871SOL    HW159576   1.589  12.389   5.485  0.4512 -0.3146  1.7967
17871SOL    HW259577   1.524  12.284   5.574 -1.7718  1.0371  1.8474
17872SOL     OW59578   7.175   2.128  10.202 -0.0404 -0.2750 -0.8573
17872SOL    HW159579   7.211   2.134  10.114 -0.2832 -0.2492 -0.9546
17872SOL    HW259580   7.126   2.046  10.202  0.8888 -0.8493 -0.4080
17873SOL     OW59581   5.773   8.776   4.519 -0.1873  0.6980 -0.2574
17873SOL    HW159582   5.720   8.761   4.598  2.3995 -0.8395  1.3138
17873SOL    HW259583   5.720   8.740   4.448 -0.2086 -3.5765  1.6081
17874SOL     OW59584   1.857   3.283  11.418 -0.4728  0.1406  0.3328
17874SOL    HW159585   1.861   3.378  11.429 -2.0913  0.0794  1.9370
17874SOL    HW259586   1.838   3.270  11.325  0.8350  1.3165 -0.1277
17875SOL     OW59587   3.056   5.170   0.825  0.1968  0.4354  0.3140
17875SOL    HW159588   3.074   5.252   0.778 -1.1130  0.1090 -0.8087
17875SOL    HW259589   3.120   5.108   0.790  0.2655  0.6035  0.1387
17876SOL     OW59590   1.772   7.650   0.083  0.3267 -0.0632  0.2401
17876SOL    HW159591   1.694   7.668   0.137  0.0738  1.1528 -0.5113
17876SOL    HW259592   1.832   7.722   0.103  0.3033  0.3007 -0.9549
17877SOL     OW59593  11.446   3.726   7.805  0.1388  0.0516 -0.1101
17877SOL    HW159594  11.520   3.774   7.840  0.7177  0.6653 -2.0666
17877SOL    HW259595  11.456   3.637   7.840  0.7503  0.5670  1.0807
17878SOL     OW59596   1.083   2.026   3.683 -0.1933 -0.2245  0.4026
17878SOL    HW159597   1.078   1.945   3.733  2.2273 -0.6039  0.1904
17878SOL    HW259598   0.998   2.068   3.696 -0.4280 -1.3005  3.0556
17879SOL     OW59599  10.764   1.149   6.034 -0.5123  0.1950 -0.5298
17879SOL    HW159600  10.778   1.219   6.096 -0.2029 -0.2288 -0.1147
17879SOL    HW259601  10.850   1.108   6.024 -0.6309  0.0466 -0.9758
17880SOL     OW59602  12.426   5.887  10.997 -0.1210 -0.2457 -0.3768
17880SOL    HW159603  12.512   5.913  11.031  1.0339 -2.5659 -1.3281
17880SOL    HW259604  12.429   5.792  10.997 -2.4290 -0.3521 -1.1924
17881SOL     OW59605   0.297   1.801  12.201 -0.0421 -0.6944 -0.0822
17881SOL    HW159606   0.346   1.874  12.164  0.8688 -1.3475 -0.1989
17881SOL    HW259607   0.278   1.829  12.291 -0.3043 -0.0392 -0.3328
17882SOL     OW59608   0.380   6.809   5.011  0.3447  0.2119  0.4951
17882SOL    HW159609   0.459   6.863   5.009  0.4277  0.0799  0.1283
17882SOL    HW259610   0.336   6.835   5.092  0.4167  0.7801  0.3601
17883SOL     OW59611   1.773   2.430   2.181  0.1337 -0.7788 -0.1302
17883SOL    HW159612   1.707   2.497   2.197 -0.3608 -0.9151 -1.5554
17883SOL    HW259613   1.756   2.364   2.248  1.2794  0.9105  1.9949
17884SOL     OW59614   9.283  12.262   9.726 -0.2429  0.2794  0.3039
17884SOL    HW159615   9.258  12.353   9.746  0.0772  0.2598  0.8281
17884SOL    HW259616   9.358  12.245   9.783 -0.9545 -0.6643  0.9838
17885SOL     OW59617   6.669   7.411   4.543 -0.2967  0.2281 -0.5099
17885SOL    HW159618   6.591   7.421   4.489 -0.5321  1.4269  0.0194
17885SOL    HW259619   6.738   7.458   4.495  0.2355 -1.1992 -1.1968
17886SOL     OW59620  10.109   9.096   9.317 -0.1346 -0.2924 -0.6695
17886SOL    HW159621  10.121   9.105   9.223  1.4338 -0.2402 -0.5027
17886SOL    HW259622  10.198   9.098   9.352 -0.6951 -0.2385  0.8185
17887SOL     OW59623   3.425   6.713   0.530 -0.2719 -0.3781 -0.2862
17887SOL    HW159624   3.395   6.753   0.448 -0.3560 -1.3015 -0.7189
17887SOL    HW259625   3.358   6.737   0.594 -0.9491 -0.8274 -0.8153
17888SOL     OW59626   6.260   2.358  11.396 -0.0459  0.3871  0.3585
17888SOL    HW159627   6.312   2.328  11.471 -0.5150  0.0509  0.5561
17888SOL    HW259628   6.313   2.426  11.355  0.2296  0.5526  0.9803
17889SOL     OW59629   0.715   0.091   6.215  0.2765  0.3468  0.2454
17889SOL    HW159630   0.804   0.069   6.189  0.9871  1.8202  1.3228
17889SOL    HW259631   0.704   0.183   6.189 -1.3352 -0.1162 -0.8807
17890SOL     OW59632   2.173   4.692   8.621 -0.2010  0.0358 -0.3990
17890SOL    HW159633   2.111   4.765   8.622  0.5322  0.6772  1.1086
17890SOL    HW259634   2.253   4.728   8.585  0.2544  0.0814  0.6154
17891SOL     OW59635   7.346  12.023  12.222 -0.1807  0.2651  0.2178
17891SOL    HW159636   7.300  12.087  12.275  0.4924  0.0557  1.0787
17891SOL    HW259637   7.280  11.956  12.202 -0.1168 -0.3955  2.0330
17892SOL     OW59638   6.474   2.506  11.293 -0.1667 -0.7900 -0.0983
17892SOL    HW159639   6.556   2.463  11.316 -0.1904 -0.7936 -0.0209
17892SOL    HW259640   6.494   2.553  11.212  0.3493  0.5081  0.7509
17893SOL     OW59641  11.388   7.265   6.962  0.5344  0.6818 -0.3938
17893SOL    HW159642  11.439   7.328   7.014  0.3600  1.5073 -1.2028
17893SOL    HW259643  11.397   7.296   6.872 -1.5585  0.9752 -0.5421
17894SOL     OW59644   2.040   0.384   9.712  0.0822  0.1686 -0.2447
17894SOL    HW159645   1.977   0.422   9.773  1.1454 -0.9414  1.6618
17894SOL    HW259646   2.036   0.289   9.729 -1.0026 -0.4418 -3.3535
17895SOL     OW59647   4.936   0.095   1.055  0.5591  0.5212  0.1120
17895SOL    HW159648   5.007   0.041   1.092  0.2675  0.3113  0.3651
17895SOL    HW259649   4.913   0.050   0.973  0.8566  0.7050 -0.0768
17896SOL     OW59650   8.114   0.600   7.180 -0.1967 -0.3474 -0.6431
17896SOL    HW159651   8.078   0.607   7.092 -0.4280 -0.5663 -0.5682
17896SOL    HW259652   8.084   0.679   7.225 -0.2562 -0.3382 -0.6987
17897SOL     OW59653   4.445   1.378   9.709 -0.0118 -0.4826  0.0984
17897SOL    HW159654   4.396   1.428   9.774  3.2833  1.2389  1.5054
17897SOL    HW259655   4.389   1.303   9.689 -2.5893  0.6479  2.4093
17898SOL     OW59656   1.458   7.523   2.048  0.3087 -0.3871  0.0534
17898SOL    HW159657   1.421   7.583   1.983  2.5127  1.1180  0.0870
17898SOL    HW259658   1.447   7.436   2.009 -1.7345  0.1101 -0.6160
17899SOL     OW59659   4.919   0.857   5.761  0.1351 -0.1319 -0.3187
17899SOL    HW159660   4.878   0.943   5.773  1.3188  0.4087 -0.0004
17899SOL    HW259661   4.877   0.821   5.683 -0.1721  0.8615 -0.6278
17900SOL     OW59662  11.789   9.364   6.146 -0.4300  0.1474  0.1919
17900SOL    HW159663  11.788   9.328   6.057  0.0788  0.3752  0.0905
17900SOL    HW259664  11.723   9.313   6.193 -2.6566  1.7679 -0.9915
17901SOL     OW59665  10.670   8.887   5.780 -0.4326  0.3167 -0.1909
17901SOL    HW159666  10.631   8.953   5.839 -0.5058  1.2133 -1.2063
17901SOL    HW259667  10.765   8.902   5.788 -0.3850 -0.3680  0.5936
17902SOL     OW59668  10.042   3.628   6.499 -0.1204 -0.2627  0.3793
17902SOL    HW159669  10.090   3.664   6.573 -0.0527 -0.1185  0.2660
17902SOL    HW259670  10.026   3.536   6.523  0.8060 -0.4986  0.1191
17903SOL     OW59671   6.287   2.342  10.091  0.3972 -0.0363 -0.1585
17903SOL    HW159672   6.349   2.397  10.139 -0.5492  0.3842  0.6141
17903SOL    HW259673   6.342   2.279  10.044  1.4441  0.8373 -0.1513
17904SOL     OW59674   2.383  11.810   5.449 -0.1048  0.4415  0.2939
17904SOL    HW159675   2.396  11.893   5.402 -0.4797  0.0206 -0.5677
17904SOL    HW259676   2.468  11.766   5.444 -0.2424  0.2419 -0.3001
17905SOL     OW59677   9.530   4.586   1.361  0.0066  0.0538  0.7342
17905SOL    HW159678   9.474   4.541   1.299  0.0895  1.2426 -0.2463
17905SOL    HW259679   9.546   4.672   1.321 -0.9683  1.3607  2.9757
17906SOL     OW59680   5.711   8.723   8.274  0.3626 -0.1550 -0.5405
17906SOL    HW159681   5.669   8.653   8.324 -0.4867  0.6991 -0.0057
17906SOL    HW259682   5.649   8.742   8.203 -0.4129  1.4013  0.4946
17907SOL     OW59683   2.977   7.264   6.523 -0.6510  0.1891  0.3827
17907SOL    HW159684   3.036   7.300   6.457 -2.9463  1.9281 -0.8508
17907SOL    HW259685   3.034   7.246   6.598  1.4265  1.8235 -0.6764
17908SOL     OW59686   1.562  11.314   9.800  0.2523  0.0826  0.2963
17908SOL    HW159687   1.652  11.288   9.779 -0.1516 -0.7671 -0.4639
17908SOL    HW259688   1.541  11.264   9.878  0.0448 -0.6501 -0.2152
17909SOL     OW59689   2.472  11.783  10.458 -0.1007  0.3279 -0.1238
17909SOL    HW159690   2.521  11.730  10.521  0.3043  1.1698  0.2954
17909SOL    HW259691   2.429  11.720  10.401  2.1798 -0.4822 -1.0637
17910SOL     OW59692   0.730   9.777   5.562 -0.3990  0.2404  0.2727
17910SOL    HW159693   0.819   9.760   5.592  0.2389  0.1903 -1.5556
17910SOL    HW259694   0.701   9.694   5.524 -0.3741  0.8488 -1.1469
17911SOL     OW59695   8.645   5.433   3.964  0.0601 -0.0092 -0.2283
17911SOL    HW159696   8.665   5.349   3.924  0.4522  0.0207 -0.1001
17911SOL    HW259697   8.549   5.434   3.971 -0.1217  0.5126 -2.2943
17912SOL     OW59698  11.279   0.869   0.322  0.5016  0.4001  0.3425
17912SOL    HW159699  11.367   0.891   0.353  0.1404  1.5205  0.6286
17912SOL    HW259700  11.223   0.940   0.355 -0.7387 -0.9243  1.2346
17913SOL     OW59701   6.245  10.130   9.369 -0.3379 -0.0960  0.5137
17913SOL    HW159702   6.211  10.157   9.454  1.5094 -2.0363  1.9985
17913SOL    HW259703   6.340  10.129   9.381  0.1127  1.3879 -2.2131
17914SOL     OW59704  10.542   0.801   3.223 -0.5141  0.0734 -0.0722
17914SOL    HW159705  10.531   0.800   3.128  0.5372  0.3178 -0.2082
17914SOL    HW259706  10.454   0.815   3.257 -1.0338 -0.8741 -0.9732
17915SOL     OW59707   0.890   1.017   8.851 -0.5674  0.7242 -0.1584
17915SOL    HW159708   0.912   1.026   8.944 -1.5618  0.1132  0.1454
17915SOL    HW259709   0.929   0.934   8.824 -2.2753 -0.2858  0.3431
17916SOL     OW59710   8.523   8.614  12.298  0.1989  0.0284  0.6730
17916SOL    HW159711   8.614   8.598  12.273  0.2801 -0.5709  1.3552
17916SOL    HW259712   8.478   8.630  12.214  0.7412 -0.6005  0.2532
17917SOL     OW59713   2.386   6.076   1.221 -0.1841  0.4002 -0.0712
17917SOL    HW159714   2.467   6.125   1.237 -1.5885  2.2347  2.1644
17917SOL    HW259715   2.335   6.133   1.163 -0.6790  0.2284  0.1893
17918SOL     OW59716   1.399   9.599   0.931  0.1961 -0.2741 -0.5422
17918SOL    HW159717   1.329   9.548   0.973 -0.2485  0.2191 -0.6712
17918SOL    HW259718   1.439   9.648   1.004 -1.0882  1.1904 -0.7518
17919SOL     OW59719  10.976   4.827   6.287  0.0157  0.7887  0.1898
17919SOL    HW159720  10.919   4.751   6.279 -0.6530  1.0800  1.7205
17919SOL    HW259721  10.954   4.881   6.211  1.9635 -1.3922 -2.0646
17920SOL     OW59722   5.457   6.661   3.345 -0.2700  0.7767  1.1982
17920SOL    HW159723   5.413   6.665   3.430 -0.8005 -1.5035  1.1081
17920SOL    HW259724   5.514   6.584   3.352 -1.4516 -0.3858 -0.9900
17921SOL     OW59725   7.055   6.146   5.107  0.3437 -0.4009  0.2360
17921SOL    HW159726   7.080   6.204   5.179  0.2994 -2.2267  1.8234
17921SOL    HW259727   7.078   6.058   5.138  0.4188 -1.2526 -2.0576
17922SOL     OW59728  12.027  12.214  10.736  0.7071 -0.3869  0.1717
17922SOL    HW159729  11.941  12.212  10.693  0.2732 -0.5683  1.0382
17922SOL    HW259730  12.051  12.307  10.736 -0.2459 -0.1225  1.3877
17923SOL     OW59731   9.720   3.582   1.809 -0.5772 -0.4020  0.1734
17923SOL    HW159732   9.710   3.488   1.793  1.4116 -0.5881 -0.1772
17923SOL    HW259733   9.782   3.588   1.882  0.5491  0.6358 -0.8313
17924SOL     OW59734  12.491  11.646   4.547 -0.8181  0.0769 -0.8346
17924SOL    HW159735  12.528  11.635   4.460  0.0391  0.9355 -0.5967
17924SOL    HW259736  12.468  11.739   4.551 -0.2350  0.1963  0.0766
17925SOL     OW59737  12.396   3.667  11.298 -0.2356  0.3008 -0.5818
17925SOL    HW159738  12.343   3.617  11.236  1.1498 -2.1689  0.0775
17925SOL    HW259739  12.481   3.677  11.255  0.5263 -0.8440  0.5743
17926SOL     OW59740   6.823  10.371  12.142 -0.4381  0.6487  0.5996
17926SOL    HW159741   6.792  10.456  12.109  1.1477  1.2820  0.6522
17926SOL    HW259742   6.793  10.368  12.232  0.7704  1.8816  1.0828
17927SOL     OW59743   3.263  11.571   9.441  1.0246  0.1087 -0.7825
17927SOL    HW159744   3.323  11.583   9.368 -0.7934  2.7162 -1.9660
17927SOL    HW259745   3.177  11.559   9.401  0.3305 -1.0823  0.9100
17928SOL     OW59746   4.560  10.468   2.775 -0.3822 -1.0989  0.0937
17928SOL    HW159747   4.580  10.396   2.715  1.2885 -0.3187 -0.3371
17928SOL    HW259748   4.617  10.452   2.850 -0.3368 -0.4729  0.1933
17929SOL     OW59749   2.807   0.748   7.094 -0.6622  0.4474 -0.4107
17929SOL    HW159750   2.798   0.664   7.139  1.0335 -0.6452 -1.9856
17929SOL    HW259751   2.718   0.769   7.066 -1.0750 -1.0076 -0.2925
17930SOL     OW59752   8.127  11.641   3.156 -0.2133 -0.0503 -0.3375
17930SOL    HW159753   8.078  11.721   3.177  0.2160  0.0783  0.1945
17930SOL    HW259754   8.064  11.570   3.169 -1.1391  0.2747 -2.4905
17931SOL     OW59755   1.371   4.444   6.000 -0.5472 -0.0518  0.7734
17931SOL    HW159756   1.454   4.454   6.047 -0.0052  0.5888 -0.2627
17931SOL    HW259757   1.304   4.450   6.068  0.2413 -0.3365  1.6001
17932SOL     OW59758   9.627   4.355   1.466  0.3101  0.2209  0.2675
17932SOL    HW159759   9.661   4.292   1.403 -0.6167  0.3552 -0.3828
17932SOL    HW259760   9.597   4.429   1.413 -1.0880  0.0661  0.7891
17933SOL     OW59761   6.720   9.559   2.732  0.1133 -0.0389 -0.0067
17933SOL    HW159762   6.803   9.512   2.744  1.0981  1.3228 -1.1547
17933SOL    HW259763   6.653   9.494   2.752  1.4498 -1.2938  0.5887
17934SOL     OW59764   6.626   4.410   5.764  0.2863 -0.0490 -0.5707
17934SOL    HW159765   6.616   4.414   5.859  0.1089 -0.0929 -0.5871
17934SOL    HW259766   6.581   4.488   5.732 -0.1102 -0.3088 -0.6546
17935SOL     OW59767   5.726   5.208   2.235  0.8107 -0.4414 -0.2779
17935SOL    HW159768   5.814   5.231   2.263  0.9525  1.4015 -2.0297
17935SOL    HW259769   5.695   5.284   2.186 -2.6268 -0.1159  2.0919
17936SOL     OW59770   6.620  10.264   9.764 -0.1341  0.2309  0.2161
17936SOL    HW159771   6.570  10.192   9.724 -3.0158  1.1266  1.9020
17936SOL    HW259772   6.680  10.220   9.824 -2.0053 -0.9052  1.3963
17937SOL     OW59773   8.440   3.668   0.286  0.0798 -0.3608 -0.6918
17937SOL    HW159774   8.452   3.669   0.381  0.5788  2.1159 -0.7036
17937SOL    HW259775   8.520   3.629   0.252  0.1212 -0.7898 -0.1115
17938SOL     OW59776   0.165   6.550   4.658 -0.1260 -0.4279  0.1785
17938SOL    HW159777   0.163   6.565   4.752 -0.2581  1.1215 -0.0514
17938SOL    HW259778   0.079   6.511   4.638 -0.4178 -0.0033  0.5846
17939SOL     OW59779  11.198   0.362   6.860  0.1616  0.2422 -0.1778
17939SOL    HW159780  11.203   0.448   6.816 -1.7022  0.0754 -0.8032
17939SOL    HW259781  11.186   0.383   6.952  2.0576  0.6044  0.0355
17940SOL     OW59782  11.399   9.870   4.111  0.0213 -0.4208 -0.0528
17940SOL    HW159783  11.435   9.795   4.158 -0.1476 -0.4199  0.0784
17940SOL    HW259784  11.473   9.905   4.061 -0.0272 -1.0077 -0.5431
17941SOL     OW59785   1.836   3.144  11.667  0.1618 -0.0315  0.3858
17941SOL    HW159786   1.852   3.186  11.582 -0.9959 -0.5410 -0.1050
17941SOL    HW259787   1.760   3.189  11.702 -0.1222 -0.6555  0.5766
17942SOL     OW59788   9.304   3.118   3.656 -0.9961  0.0197  0.3112
17942SOL    HW159789   9.316   3.037   3.605 -0.5134 -0.0803  0.5744
17942SOL    HW259790   9.253   3.175   3.598  1.8465  0.9709 -1.5018
17943SOL     OW59791  10.393   5.285   3.714 -0.2760 -0.2062 -0.1644
17943SOL    HW159792  10.330   5.226   3.757  0.4014 -0.3876  0.5999
17943SOL    HW259793  10.387   5.263   3.622  0.6594 -2.1929  0.1945
17944SOL     OW59794   8.025  12.476   7.185 -0.5134 -0.1354 -0.5849
17944SOL    HW159795   7.953  12.524   7.144 -0.7285 -1.2009 -1.5068
17944SOL    HW259796   8.041  12.402   7.127  1.1871 -0.0497 -0.2736
17945SOL     OW59797   9.037   2.286   0.245 -0.4287 -0.3297  0.5836
17945SOL    HW159798   9.029   2.345   0.170 -0.3432 -3.0874 -1.7670
17945SOL    HW259799   9.110   2.322   0.296  0.5355  0.8345 -1.4759
17946SOL     OW59800   0.716   0.381  10.771  0.4419  0.4232 -0.0771
17946SOL    HW159801   0.683   0.347  10.688  2.6240 -0.6280 -0.5882
17946SOL    HW259802   0.787   0.440  10.746  0.8018  0.4816  1.0345
17947SOL     OW59803   2.474   7.337  10.154  1.0493  0.4386 -0.0933
17947SOL    HW159804   2.390   7.340  10.201  0.7220  1.0561 -0.7008
17947SOL    HW259805   2.524   7.269  10.198  0.4925  0.5504  0.7279
17948SOL     OW59806   7.135  12.103   5.787  0.4428  0.0519 -0.0576
17948SOL    HW159807   7.199  12.121   5.855 -0.7404  0.2306  1.0374
17948SOL    HW259808   7.094  12.188   5.768  0.3354 -0.1018 -0.5460
17949SOL     OW59809   7.280   3.514   2.761  0.2062  0.6930 -0.2789
17949SOL    HW159810   7.303   3.589   2.706 -1.7724  1.5766 -0.0155
17949SOL    HW259811   7.259   3.553   2.846 -0.7604 -0.1615 -0.1120
17950SOL     OW59812   9.116   1.094   2.095 -0.5750 -0.0153  0.2117
17950SOL    HW159813   9.041   1.097   2.036 -0.4631  0.6936  0.0879
17950SOL    HW259814   9.191   1.078   2.039 -0.7946 -2.4021  0.5204
17951SOL     OW59815   0.799   7.134   4.224 -0.3504  0.1345 -0.3549
17951SOL    HW159816   0.851   7.060   4.256  1.9708  1.4424 -0.9627
17951SOL    HW259817   0.709   7.111   4.250  0.5525 -1.8703  1.3727
17952SOL     OW59818  10.371   3.316   7.817 -0.3703  0.0832  0.0436
17952SOL    HW159819  10.306   3.353   7.876  1.9677 -0.4317  3.2282
17952SOL    HW259820  10.444   3.379   7.820  0.4402 -0.7675 -1.0494
17953SOL     OW59821   8.698  10.962   2.827 -0.4729  0.2744 -0.0014
17953SOL    HW159822   8.720  10.918   2.909  2.3011  1.3208 -0.0909
17953SOL    HW259823   8.673  11.050   2.854  1.5647  0.9881 -0.2663
17954SOL     OW59824  12.013   8.616   9.876 -0.8591 -0.2154 -0.5361
17954SOL    HW159825  12.066   8.672   9.820  0.8081 -2.2244 -1.1177
17954SOL    HW259826  12.036   8.527   9.849  0.0739 -1.3410  3.3512
17955SOL     OW59827   1.501   7.146   1.670 -0.1717 -0.5004  0.6628
17955SOL    HW159828   1.473   7.060   1.640  1.0129 -0.1094 -1.8425
17955SOL    HW259829   1.586   7.159   1.628  0.5382  1.1513  2.4688
17956SOL     OW59830   4.662   5.285  10.477 -0.1377 -0.2972  0.1776
17956SOL    HW159831   4.707   5.225  10.537 -1.1849  0.2949  1.6151
17956SOL    HW259832   4.577   5.243  10.461 -0.4791  0.2954  0.3900
17957SOL     OW59833   7.782   2.472   0.971  0.0870  0.1268 -0.9141
17957SOL    HW159834   7.698   2.427   0.966 -0.2638  0.7660 -0.9678
17957SOL    HW259835   7.789   2.500   1.063  0.4106 -0.2385 -0.8260
17958SOL     OW59836   0.827   8.732   5.411  0.1508 -0.4744  0.7161
17958SOL    HW159837   0.821   8.687   5.495 -0.5089 -0.3609  0.7395
17958SOL    HW259838   0.919   8.727   5.387  0.5901  0.5137  2.0211
17959SOL     OW59839   7.690   8.943   6.302  0.1730  0.7389 -0.6714
17959SOL    HW159840   7.759   8.885   6.268  0.2404  0.5842 -0.2739
17959SOL    HW259841   7.608   8.899   6.278  0.2255  0.3838 -0.2126
17960SOL     OW59842  11.413  11.462   4.003 -0.0320  0.8871  0.8309
17960SOL    HW159843  11.340  11.462   4.064  0.1253  0.4014  1.0300
17960SOL    HW259844  11.481  11.411   4.048 -0.3800 -0.6217 -0.2988
17961SOL     OW59845  11.554   0.290   5.996  0.1095 -0.5481  0.4235
17961SOL    HW159846  11.608   0.311   5.920  0.8708  1.2939  1.4094
17961SOL    HW259847  11.610   0.311   6.072 -2.2370  2.5324  1.5141
17962SOL     OW59848   6.929   0.047  11.258  0.1280  0.1663  0.6385
17962SOL    HW159849   6.936  -0.023  11.322  0.5358 -1.2380 -0.8860
17962SOL    HW259850   6.950   0.127  11.307  2.2327 -1.0603  1.8559
17963SOL     OW59851   0.340   3.394   2.505 -0.7832  0.2245  0.3103
17963SOL    HW159852   0.427   3.432   2.509 -1.3750  1.5169  2.1088
17963SOL    HW259853   0.318   3.392   2.412  0.2550  2.0280 -0.0045
17964SOL     OW59854   7.939   4.805   4.786  0.4509  0.2673 -0.1253
17964SOL    HW159855   7.871   4.753   4.744 -0.1373  1.7246 -1.0612
17964SOL    HW259856   8.009   4.742   4.807 -0.7700 -1.0913  0.0052
17965SOL     OW59857   1.771   4.693   3.704 -0.6133 -0.3359 -0.3266
17965SOL    HW159858   1.710   4.734   3.642 -0.2210 -0.4234 -0.7717
17965SOL    HW259859   1.734   4.606   3.719 -0.5592 -0.4174 -0.6573
17966SOL     OW59860   6.804   8.592   8.558  0.1903 -0.2061  0.2833
17966SOL    HW159861   6.823   8.613   8.650 -0.4006  1.3879  0.0842
17966SOL    HW259862   6.881   8.546   8.527  1.3039  1.0656  1.0342
17967SOL     OW59863   2.218   9.954  11.282  0.0847 -0.2243 -0.1092
17967SOL    HW159864   2.213  10.029  11.224  0.5980 -0.2987 -0.2580
17967SOL    HW259865   2.247   9.882  11.226  1.5330 -0.0771  0.4086
17968SOL     OW59866   9.767   1.412   9.726 -0.9113 -0.1794 -0.1248
17968SOL    HW159867   9.836   1.392   9.789  0.0833  2.3195 -0.3291
17968SOL    HW259868   9.724   1.490   9.761 -0.2751  1.3321 -2.5374
17969SOL     OW59869  11.972   4.969   7.512 -0.6424  0.5976 -0.1336
17969SOL    HW159870  12.008   5.025   7.580  0.8444 -0.4438 -0.0251
17969SOL    HW259871  11.997   4.880   7.538 -3.6952 -0.2789  0.1910
17970SOL     OW59872   2.795   8.469   6.407 -0.2901 -0.1171  0.0899
17970SOL    HW159873   2.724   8.409   6.386 -1.1147  0.5046  0.9802
17970SOL    HW259874   2.791   8.536   6.339  0.8299 -1.2070 -1.0809
17971SOL     OW59875   1.671   0.905   4.096  0.6186 -0.0899 -0.0853
17971SOL    HW159876   1.765   0.889   4.092  1.1864  2.5726  0.5217
17971SOL    HW259877   1.632   0.818   4.105  3.0261 -1.2406 -0.0453
17972SOL     OW59878  11.038   4.790   1.644  0.1730 -0.1813  0.3427
17972SOL    HW159879  10.946   4.803   1.668  0.0827 -0.5832  0.2211
17972SOL    HW259880  11.086   4.833   1.715 -0.1008 -1.0671  1.0957
17973SOL     OW59881  11.932   9.813   1.206 -0.8101  0.3997 -0.2528
17973SOL    HW159882  11.974   9.889   1.165 -1.9079  0.7537 -0.7600
17973SOL    HW259883  11.840   9.839   1.217 -1.2596 -0.9452 -0.6600
17974SOL     OW59884   5.092   7.996  11.293  0.6305  0.1564  0.4174
17974SOL    HW159885   5.110   7.989  11.387  1.6820  0.6834  0.2656
17974SOL    HW259886   5.001   7.968  11.285  0.7162 -0.5352  1.5095
17975SOL     OW59887   4.155   3.923   8.763  0.0062 -0.3001 -0.3155
17975SOL    HW159888   4.196   3.892   8.845  0.3497  0.7490 -0.0790
17975SOL    HW259889   4.070   3.956   8.790  1.1339  2.5363  0.1214
17976SOL     OW59890   0.077   6.388   9.254  0.1219  0.3085 -0.4327
17976SOL    HW159891   0.011   6.393   9.184 -0.8265 -1.6196  0.2430
17976SOL    HW259892   0.146   6.332   9.218 -0.8054 -1.4632  0.4454
17977SOL     OW59893   9.179   6.245   9.430 -0.2913  0.1210 -0.3708
17977SOL    HW159894   9.263   6.225   9.472 -0.4648 -0.6166 -0.3510
17977SOL    HW259895   9.176   6.340   9.425  0.0997  0.1945  0.5492
17978SOL     OW59896  11.339  12.371   6.522 -0.3403 -0.6526 -0.3558
17978SOL    HW159897  11.352  12.412   6.436  0.1547  0.2507  0.1334
17978SOL    HW259898  11.426  12.344   6.550 -0.4180 -0.4347  0.1089
17979SOL     OW59899   1.048   8.105   0.868 -0.0406 -0.2982 -0.0987
17979SOL    HW159900   1.109   8.123   0.939  1.3895  0.4754 -1.4429
17979SOL    HW259901   1.091   8.141   0.790 -0.7933 -2.5220 -1.6441
17980SOL     OW59902   6.703   6.462  10.602 -0.4832 -0.2239  0.2386
17980SOL    HW159903   6.702   6.371  10.634  0.0432 -0.3389 -0.0551
17980SOL    HW259904   6.777   6.464  10.541 -1.6982 -0.1241 -1.2860
17981SOL     OW59905   7.788   7.425   7.485 -0.3074  0.9892  0.2380
17981SOL    HW159906   7.859   7.484   7.512 -0.8014  1.1027  1.3551
17981SOL    HW259907   7.709   7.465   7.520 -0.8675  0.5774 -0.5365
17982SOL     OW59908  11.004   8.707   9.006 -0.5088 -0.5734  0.1445
17982SOL    HW159909  10.916   8.685   9.037 -0.5120  0.6818  1.0822
17982SOL    HW259910  11.052   8.731   9.085 -0.1314  1.4464 -0.6431
17983SOL     OW59911   2.696  11.124  10.682 -0.4805  0.6095 -0.0641
17983SOL    HW159912   2.611  11.166  10.666 -0.2011  1.1730 -0.0875
17983SOL    HW259913   2.676  11.054  10.744 -1.0540  0.3865 -0.4878
17984SOL     OW59914   7.228  12.185  11.929 -0.1808 -0.1288  0.4273
17984SOL    HW159915   7.192  12.197  12.016  0.8227  1.1762  0.6807
17984SOL    HW259916   7.184  12.250  11.875  0.7488  0.5314  0.4413
17985SOL     OW59917  11.049   1.909   9.132  0.1268 -0.0473 -0.4014
17985SOL    HW159918  10.970   1.963   9.127  0.4406  0.7848  2.2711
17985SOL    HW259919  11.118   1.970   9.156  0.7960 -1.3523  1.1566
17986SOL     OW59920   5.258   9.520   8.657  0.2720  0.1849 -0.1879
17986SOL    HW159921   5.192   9.526   8.587  0.2982  0.9304 -0.1567
17986SOL    HW259922   5.341   9.539   8.613  0.5868 -1.4812 -0.3753
17987SOL     OW59923  10.166   2.437   5.711  0.2341  0.5798  0.1217
17987SOL    HW159924  10.095   2.488   5.674 -0.4721 -1.7717 -2.0558
17987SOL    HW259925  10.126   2.385   5.780  0.4250  1.0880  0.6275
17988SOL     OW59926   3.185   9.278   3.852 -0.9584 -0.5202 -0.4599
17988SOL    HW159927   3.123   9.205   3.844  0.9690 -2.2938 -0.1903
17988SOL    HW259928   3.144   9.350   3.804 -2.5909 -2.0298 -1.4673
17989SOL     OW59929   9.903   9.282   2.022 -0.3180  1.2436 -0.4304
17989SOL    HW159930   9.989   9.296   2.062 -0.2373  0.9476 -0.5011
17989SOL    HW259931   9.907   9.193   1.986 -0.5592  1.3302 -0.6718
17990SOL     OW59932   9.447   6.678  11.384  0.6606  0.4317 -0.3089
17990SOL    HW159933   9.417   6.593  11.417  0.8080  0.0933 -1.0316
17990SOL    HW259934   9.370   6.716  11.341 -0.7532  2.6185  3.6180
17991SOL     OW59935   8.446   8.393   3.816 -0.0653 -0.2879 -0.5462
17991SOL    HW159936   8.371   8.377   3.759 -2.4234  0.9766  1.9309
17991SOL    HW259937   8.474   8.305   3.844 -1.0377 -0.7830 -1.0636
17992SOL     OW59938   1.547   5.391   0.542  0.0440 -0.5041 -0.2312
17992SOL    HW159939   1.629   5.359   0.506 -0.6135 -1.0874 -1.2792
17992SOL    HW259940   1.548   5.485   0.527 -0.7482 -0.8438 -3.0812
17993SOL     OW59941  11.497   3.700  10.316 -0.4289  0.3292 -0.2619
17993SOL    HW159942  11.533   3.729  10.232  0.4493  2.0547  0.6437
17993SOL    HW259943  11.559   3.633  10.346 -0.1980  0.4172 -0.5365
17994SOL     OW59944  10.084   9.112   9.951  0.1778  0.3967 -0.3071
17994SOL    HW159945  10.064   9.140  10.040  2.5001  1.2108  0.0284
17994SOL    HW259946  10.076   9.017   9.953 -0.5169  0.4625  0.5568
17995SOL     OW59947  12.102  10.523   6.035 -0.3916  0.3442 -0.5874
17995SOL    HW159948  12.041  10.462   6.076  1.6531 -2.0245 -0.8189
17995SOL    HW259949  12.185  10.508   6.081  1.1159  0.1470 -3.1731
17996SOL     OW59950   1.210   0.459   1.512 -0.2482 -0.1183 -0.1625
17996SOL    HW159951   1.252   0.406   1.444 -0.7550 -0.8611  0.0909
17996SOL    HW259952   1.281   0.513   1.548  0.0649  0.1496 -1.1445
17997SOL     OW59953  10.931   2.991   9.813  0.1790 -0.4407  0.3476
17997SOL    HW159954  10.871   2.930   9.854 -0.6347  1.0771  1.5179
17997SOL    HW259955  10.957   3.051   9.883 -0.3047  1.5063 -1.0507
17998SOL     OW59956   1.810  12.161   6.904  0.3023 -0.3030 -0.3845
17998SOL    HW159957   1.878  12.222   6.931  0.1500  0.3186 -1.3343
17998SOL    HW259958   1.809  12.167   6.808 -1.5387  0.2392 -0.3739
17999SOL     OW59959  11.874   0.078   5.940 -0.0944 -0.4619 -0.1424
17999SOL    HW159960  11.801   0.066   6.001 -0.5781  0.3749 -0.5289
17999SOL    HW259961  11.853   0.160   5.895  1.5465  0.2610  0.3614
18000SOL     OW59962   4.833   6.261   1.201  0.1860  0.2571 -0.2426
18000SOL    HW159963   4.761   6.265   1.139 -0.6389 -1.6102  0.5181
18000SOL    HW259964   4.901   6.318   1.164 -1.6632  2.1227 -0.9396
18001SOL     OW59965   5.584   5.017   4.277  0.2475 -0.0128  0.0091
18001SOL    HW159966   5.597   4.964   4.198 -0.8742 -1.9136  1.0257
18001SOL    HW259967   5.670   5.020   4.319  0.4565 -0.4948 -0.3817
18002SOL     OW59968   4.722   3.331   6.553  0.1180  0.0330 -0.5617
18002SOL    HW159969   4.682   3.408   6.514  1.9244  1.0091 -0.6177
18002SOL    HW259970   4.794   3.366   6.605  0.5719 -1.5764 -0.0599
18003SOL     OW59971   5.641   1.656   4.138 -0.2721  0.2735 -0.0750
18003SOL    HW159972   5.676   1.595   4.073  1.3763  2.0468 -0.9368
18003SOL    HW259973   5.718   1.689   4.183 -1.2205  0.9539  1.0894
18004SOL     OW59974   8.683   8.013   3.426 -0.5828  0.4729  0.2943
18004SOL    HW159975   8.623   7.953   3.470 -1.5488  0.3703 -1.0987
18004SOL    HW259976   8.655   8.100   3.453 -0.5212  0.3842  0.6553
18005SOL     OW59977   5.568   2.441   6.117  0.0333 -0.2123  0.3002
18005SOL    HW159978   5.656   2.421   6.151  0.2177 -1.3741 -0.7872
18005SOL    HW259979   5.582   2.511   6.054 -0.2288  1.5212  2.0554
18006SOL     OW59980   1.821   2.956   9.380 -0.2811  0.8034  0.1461
18006SOL    HW159981   1.895   2.926   9.434 -1.3781  0.7902  1.7090
18006SOL    HW259982   1.794   2.879   9.330 -1.1763 -0.0724  1.8962
18007SOL     OW59983   7.766   5.905  11.544  0.1134 -0.1671 -0.2261
18007SOL    HW159984   7.856   5.878  11.523  0.5938  0.9222  0.3514
18007SOL    HW259985   7.753   5.984  11.491 -0.3144 -0.0300  0.0821
18008SOL     OW59986   2.869   8.320   1.393  0.6463 -1.3768 -0.0963
18008SOL    HW159987   2.952   8.305   1.349  0.1685 -1.0519 -1.1247
18008SOL    HW259988   2.807   8.259   1.352  0.0168 -0.5376 -0.4214
18009SOL     OW59989   8.302   6.232   9.166  0.6728  0.7370 -0.3338
18009SOL    HW159990   8.347   6.172   9.226 -1.3592  0.5113  1.0787
18009SOL    HW259991   8.260   6.175   9.102 -2.7379  0.2592  2.0102
18010SOL     OW59992   9.918  11.329   9.607 -0.0356 -0.2910 -0.4823
18010SOL    HW159993   9.827  11.302   9.614 -0.1246 -0.0828 -0.7902
18010SOL    HW259994   9.953  11.320   9.695  0.1648 -2.1891 -0.6978
18011SOL     OW59995   9.313   7.310   7.271  0.0988  0.0307  0.1923
18011SOL    HW159996   9.252   7.248   7.231  1.8590 -1.2533 -0.6452
18011SOL    HW259997   9.397   7.293   7.228  0.8596  2.4487  0.5477
18012SOL     OW59998  11.659   7.282   2.379 -0.0779  0.2188  0.5675
18012SOL    HW159999  11.677   7.258   2.470 -0.3180  0.5450  0.7017
18012SOL    HW260000  11.589   7.347   2.384 -1.5667 -1.2626  0.0446
18013SOL     OW60001  12.035   6.914  11.189  0.0281  0.2274 -0.5287
18013SOL    HW160002  11.984   6.834  11.179 -1.1300  1.1128 -2.3006
18013SOL    HW260003  12.033   6.955  11.103  2.0122  1.3528 -0.1103
18014SOL     OW60004  10.873   7.054   1.738  0.3025 -0.3883 -0.0813
18014SOL    HW160005  10.883   7.109   1.816  0.7671 -0.2094 -0.2672
18014SOL    HW260006  10.961   7.024   1.718  0.2355 -0.1478 -0.7481
18015SOL     OW60007   5.218   9.308   2.909  0.3927 -0.1665 -0.5390
18015SOL    HW160008   5.172   9.225   2.902  0.3529 -0.0281 -2.5128
18015SOL    HW260009   5.293   9.299   2.850 -0.1323  1.5073 -1.5226
18016SOL     OW60010   4.602   8.290   3.821  0.1159  0.1646  0.3791
18016SOL    HW160011   4.553   8.373   3.817 -0.6818 -0.1428  2.3931
18016SOL    HW260012   4.666   8.305   3.890  0.0942 -0.8306  0.6194
18017SOL     OW60013  11.438   8.299   3.373  0.3827 -0.4036 -0.2257
18017SOL    HW160014  11.351   8.309   3.410 -0.9077 -0.8000 -2.9445
18017SOL    HW260015  11.473   8.388   3.368  0.2691 -0.2740  1.1043
18018SOL     OW60016   1.168   7.912  12.148 -0.3193  0.1562  0.1478
18018SOL    HW160017   1.147   7.821  12.167  0.4843  0.2857  1.8434
18018SOL    HW260018   1.083   7.955  12.139 -0.7043 -0.7512 -0.8114
18019SOL     OW60019   9.079   2.257   3.710  0.1372  0.2559 -0.2385
18019SOL    HW160020   9.079   2.345   3.674  2.3856  0.0331 -0.9220
18019SOL    HW260021   9.110   2.268   3.800  1.4009  0.0984 -0.6339
18020SOL     OW60022  11.386  10.855   1.607 -0.4843  0.3729  0.2628
18020SOL    HW160023  11.466  10.880   1.561 -1.0588 -0.2850 -1.1448
18020SOL    HW260024  11.415  10.796   1.677  0.2327 -0.0346 -0.3710
18021SOL     OW60025   1.198   6.020   4.134  0.0370  0.0885 -0.3315
18021SOL    HW160026   1.282   6.066   4.125  0.9087 -0.4513  3.3696
18021SOL    HW260027   1.219   5.940   4.182 -2.6984  0.6253  2.0695
18022SOL     OW60028  11.873   6.555   4.615  0.1926 -0.4648  0.2922
18022SOL    HW160029  11.894   6.504   4.693  0.7626 -0.2394  0.2854
18022SOL    HW260030  11.950   6.547   4.559 -0.1947 -0.5858 -0.2334
18023SOL     OW60031  12.108   9.277   5.951  0.0436  0.2677 -0.1564
18023SOL    HW160032  12.146   9.228   6.024  1.5320  0.5614 -0.7041
18023SOL    HW260033  12.103   9.367   5.983  1.6700  0.5972 -0.7290
18024SOL     OW60034   2.796   3.243   7.760 -0.9172 -0.6561  0.6317
18024SOL    HW160035   2.859   3.214   7.693 -1.7575  0.2677 -0.6112
18024SOL    HW260036   2.778   3.334   7.737 -0.2459  0.1185  2.9381
18025SOL     OW60037   3.546   7.772  11.225  0.0743 -0.1689 -0.3672
18025SOL    HW160038   3.507   7.717  11.293  2.0386 -0.8659  0.2510
18025SOL    HW260039   3.619   7.816  11.269 -0.4294  1.6950 -1.2820
18026SOL     OW60040   2.033   6.096   8.339 -0.8752 -0.8600  0.0149
18026SOL    HW160041   1.997   6.084   8.427  0.8446  0.0611  0.9015
18026SOL    HW260042   1.983   6.168   8.301 -0.9712 -0.6071  0.6250
18027SOL     OW60043   7.728   4.039   6.114 -0.0675  0.4128  0.1096
18027SOL    HW160044   7.777   4.064   6.192  0.3576  0.4567 -0.1633
18027SOL    HW260045   7.717   4.120   6.065  3.4308 -0.1261 -1.9673
18028SOL     OW60046  11.863   9.459   3.052  0.0350 -0.1960  0.4799
18028SOL    HW160047  11.948   9.425   3.025 -1.1280 -2.6558 -0.4460
18028SOL    HW260048  11.834   9.398   3.120 -0.9911  0.6199  0.8004
18029SOL     OW60049   2.670  12.356  12.186  0.1272  0.5357  0.4042
18029SOL    HW160050   2.577  12.368  12.165 -0.4621 -0.9152  1.9374
18029SOL    HW260051   2.706  12.309  12.111 -1.7179 -3.7729  1.8951
18030SOL     OW60052   9.458   4.660  11.099  0.8112  0.0202  0.3185
18030SOL    HW160053   9.406   4.740  11.101  0.8284  0.0136  1.6663
18030SOL    HW260054   9.520   4.674  11.028 -0.3774  0.4291 -0.6705
18031SOL     OW60055   2.153   3.835   3.216  0.3317 -0.0257  0.0260
18031SOL    HW160056   2.133   3.919   3.175 -2.3094  0.2648  1.6355
18031SOL    HW260057   2.144   3.852   3.310  3.3072 -1.3245  0.6592
18032SOL     OW60058   6.796   5.206   1.764  0.2220 -0.2940 -0.4208
18032SOL    HW160059   6.702   5.195   1.754  0.1289  0.4514 -0.4342
18032SOL    HW260060   6.829   5.216   1.675  0.0766  1.1438 -0.3401
18033SOL     OW60061   5.683   9.219  10.867  0.3247  0.2614  0.5985
18033SOL    HW160062   5.697   9.145  10.926  3.5202 -0.5500 -0.9994
18033SOL    HW260063   5.617   9.187  10.804  1.5877 -1.2561 -0.0167
18034SOL     OW60064   8.555   5.968   4.300  0.2993 -0.2199  0.3551
18034SOL    HW160065   8.524   6.051   4.337 -1.0688 -0.9566  0.9598
18034SOL    HW260066   8.562   5.985   4.206 -1.8893  0.0578  0.1905
18035SOL     OW60067   5.814   1.122   3.964  0.3426  0.3255  0.0019
18035SOL    HW160068   5.799   1.031   3.940 -1.1988 -0.5225  3.6459
18035SOL    HW260069   5.755   1.172   3.907  0.6486 -0.9294 -1.4986
18036SOL     OW60070   3.901   3.492   7.327  0.1399 -0.0485  0.0408
18036SOL    HW160071   3.892   3.579   7.287 -0.1526 -0.5196 -0.9450
18036SOL    HW260072   3.987   3.461   7.298  0.4249  0.0683  0.7307
18037SOL     OW60073   4.329   7.680   6.629  0.6072  0.1367  0.3996
18037SOL    HW160074   4.285   7.720   6.553  0.1708  1.4647  1.3189
18037SOL    HW260075   4.329   7.586   6.609 -1.8440  0.1573 -0.0934
18038SOL     OW60076  10.022  10.639  10.372  0.0422 -0.1750  0.6625
18038SOL    HW160077   9.965  10.671  10.302 -0.1323  0.6421  1.1661
18038SOL    HW260078  10.078  10.574  10.329 -1.2539 -1.0018  0.1548
18039SOL     OW60079  12.016  10.825   9.458  0.2520  0.1370 -0.4025
18039SOL    HW160080  11.995  10.759   9.524 -1.1839 -0.3541 -1.2979
18039SOL    HW260081  12.078  10.782   9.399 -0.3940 -0.2833 -0.7755
18040SOL     OW60082   1.425   6.373  12.097  0.5068  0.3110 -0.5146
18040SOL    HW160083   1.355   6.432  12.123  1.2413  0.1199  2.3066
18040SOL    HW260084   1.391   6.285  12.116  0.8806  0.1154 -0.7391
18041SOL     OW60085   7.947   3.849  12.359 -0.3440  0.0478  0.4881
18041SOL    HW160086   7.864   3.815  12.326 -0.0896  1.0344 -1.3143
18041SOL    HW260087   7.926   3.939  12.385 -0.0883 -0.0753  1.1129
18042SOL     OW60088   7.100   7.149   0.262  0.9144 -0.1500  0.4979
18042SOL    HW160089   7.100   7.058   0.234  1.3019  0.4355 -1.5977
18042SOL    HW260090   7.012   7.181   0.242  2.0437  1.1380 -3.5274
18043SOL     OW60091  10.612  12.327   8.323 -0.1787  0.1785 -0.0688
18043SOL    HW160092  10.582  12.412   8.292 -0.3662 -0.9015 -3.2631
18043SOL    HW260093  10.535  12.271   8.319  0.3686 -0.6051  0.0425
18044SOL     OW60094   6.291   3.338   0.300  0.1810 -0.0528  0.2927
18044SOL    HW160095   6.312   3.279   0.227  0.9761 -2.1701  2.1058
18044SOL    HW260096   6.369   3.393   0.310 -0.8932  2.0778 -1.9637
18045SOL     OW60097   9.882   6.203   3.963  0.6218  0.1272  0.1284
18045SOL    HW160098   9.978   6.201   3.969  0.5667 -0.3430  1.0159
18045SOL    HW260099   9.861   6.296   3.955  1.0921  0.3676  1.3628
18046SOL     OW60100  11.064   9.544   5.649 -0.4756  0.6266  0.1138
18046SOL    HW160101  11.098   9.463   5.686 -0.3188 -0.1566 -1.6223
18046SOL    HW260102  11.134   9.608   5.662  0.0764  0.0507  0.0309
18047SOL     OW60103   5.546   9.123   5.134  0.0348 -0.0419  0.2933
18047SOL    HW160104   5.633   9.148   5.102  0.4744 -0.6588  0.9771
18047SOL    HW260105   5.486   9.183   5.090  0.8982  1.0497  0.5598
18048SOL     OW60106   3.950   6.603   1.485 -0.1093  0.1767 -0.0866
18048SOL    HW160107   3.892   6.571   1.555  0.0532 -0.9317 -0.4516
18048SOL    HW260108   4.027   6.547   1.489  0.1038  0.4001 -0.8607
18049SOL     OW60109   7.454   9.872   0.448 -0.6667  0.4657 -0.0859
18049SOL    HW160110   7.518   9.943   0.451 -1.2433  0.9917  0.1402
18049SOL    HW260111   7.501   9.795   0.480  0.0080  0.7127 -0.4670
18050SOL     OW60112   5.784   4.787   7.669  0.4406  0.4657  0.0248
18050SOL    HW160113   5.725   4.742   7.609  1.4467  0.4828 -1.0252
18050SOL    HW260114   5.827   4.853   7.615 -0.8832  2.6486  1.4961
18051SOL     OW60115   8.902   8.880   8.471  0.3542  0.3099  0.0909
18051SOL    HW160116   8.857   8.814   8.524  1.6785 -0.8232 -0.1366
18051SOL    HW260117   8.846   8.958   8.477 -0.8128 -0.5600  1.0667
18052SOL     OW60118   2.683   5.312   2.159 -0.6174 -0.4147 -0.2460
18052SOL    HW160119   2.736   5.233   2.166 -0.7621 -0.5297 -0.4623
18052SOL    HW260120   2.726   5.375   2.218  0.6049 -0.0400 -1.4816
18053SOL     OW60121  11.037  10.298   6.900 -0.0420  0.0749  0.3909
18053SOL    HW160122  10.979  10.319   6.827  0.3066 -1.1812 -0.2701
18053SOL    HW260123  11.120  10.340   6.878 -0.9387  2.9098  1.9110
18054SOL     OW60124   2.672   7.427   0.179  0.1160  0.3335  0.2085
18054SOL    HW160125   2.764   7.422   0.153 -0.1018  0.1607 -0.5622
18054SOL    HW260126   2.635   7.343   0.151 -1.0428  1.6468 -2.6695
18055SOL     OW60127   2.671  12.453  11.147  0.0310 -0.0431  0.3546
18055SOL    HW160128   2.658  12.458  11.242  1.7464 -0.1222  0.6204
18055SOL    HW260129   2.592  12.493  11.110 -1.3426 -1.3036  1.7660
18056SOL     OW60130   6.773  11.370  11.820 -0.0341  0.1930  0.2222
18056SOL    HW160131   6.766  11.318  11.740  0.7116 -0.7541  0.7510
18056SOL    HW260132   6.842  11.326  11.871 -0.7362  0.5792  1.5403
18057SOL     OW60133   7.365   3.062   8.347  0.0057 -0.6752 -0.2462
18057SOL    HW160134   7.333   3.079   8.259 -1.3111  0.5135  0.4263
18057SOL    HW260135   7.452   3.101   8.350 -0.2432 -0.0714 -0.7992
18058SOL     OW60136   5.018   0.084  10.819  0.3953 -0.1164  0.5881
18058SOL    HW160137   4.989   0.094  10.728 -1.0392  2.0284  1.1895
18058SOL    HW260138   5.092   0.024  10.814 -0.4169 -1.0499 -1.8253
18059SOL     OW60139   4.045   6.588   8.328  0.0492 -0.4343 -0.5205
18059SOL    HW160140   3.955   6.608   8.353  0.0920  0.0242 -0.7077
18059SOL    HW260141   4.081   6.672   8.299  0.5535 -0.6003 -0.4000
18060SOL     OW60142  10.262   4.787   3.701 -0.4988  0.6140  0.7524
18060SOL    HW160143  10.326   4.839   3.750 -1.0316 -0.0000  2.1832
18060SOL    HW260144  10.194   4.849   3.676  0.2601  1.1190 -0.0645
18061SOL     OW60145   4.953  10.287  10.765  0.0875  0.4162  0.6154
18061SOL    HW160146   4.923  10.223  10.829 -1.5233 -0.4451 -0.9310
18061SOL    HW260147   5.043  10.306  10.791 -0.1985 -0.6237  2.5399
18062SOL     OW60148   2.141   1.385  11.328  0.0231 -0.0750 -0.0308
18062SOL    HW160149   2.055   1.427  11.332  0.5689  1.3899 -2.0855
18062SOL    HW260150   2.123   1.292  11.346 -1.9762  0.1952 -0.3868
18063SOL     OW60151   6.714   8.817   7.222  0.0818 -0.0062  0.1848
18063SOL    HW160152   6.706   8.723   7.205 -1.4944  0.4136 -1.7988
18063SOL    HW260153   6.766   8.850   7.149 -2.5836  1.1303 -1.3876
18064SOL     OW60154   6.168   3.744   1.365  0.2183 -0.1853 -0.0711
18064SOL    HW160155   6.254   3.768   1.399 -0.4023  0.3531  1.1677
18064SOL    HW260156   6.108   3.760   1.437 -0.6579 -2.7220 -0.1611
18065SOL     OW60157   9.255   3.398   5.054  0.5806  0.2926 -0.3965
18065SOL    HW160158   9.334   3.349   5.078  0.8622  1.0162  0.1778
18065SOL    HW260159   9.203   3.400   5.134  0.0058 -0.1145 -0.7532
18066SOL     OW60160   3.232   0.864  10.181 -0.6871 -0.0918  0.5994
18066SOL    HW160161   3.266   0.855  10.270 -0.5407 -0.4821  0.5054
18066SOL    HW260162   3.220   0.958  10.169  0.0747  0.0291  0.7445
18067SOL     OW60163   4.631   5.767   7.842 -0.1040  0.0739  0.1123
18067SOL    HW160164   4.558   5.820   7.873 -1.4246 -2.2108  1.1499
18067SOL    HW260165   4.706   5.797   7.893 -0.4027  2.0107 -0.5023
18068SOL     OW60166   8.024   5.356   8.487  0.4007 -0.1959 -0.7071
18068SOL    HW160167   8.024   5.419   8.415 -0.3965  0.6533  0.0054
18068SOL    HW260168   8.036   5.409   8.565  1.7949 -1.1591 -0.2251
18069SOL     OW60169   6.523   1.319  11.926  0.7941  0.2917  0.1195
18069SOL    HW160170   6.554   1.235  11.960 -0.8510  0.2487  1.6691
18069SOL    HW260171   6.582   1.384  11.967 -1.3056  0.2693  3.6007
18070SOL     OW60172   5.059   9.234  10.339  0.3731  0.5237 -0.2704
18070SOL    HW160173   5.023   9.311  10.295  0.1525  0.3719 -0.3579
18070SOL    HW260174   4.982   9.185  10.369  0.4859 -0.1214 -1.0073
18071SOL     OW60175  11.308   7.839   8.164 -0.0809 -0.6934  0.1282
18071SOL    HW160176  11.249   7.784   8.112  1.3741 -1.4713 -0.7562
18071SOL    HW260177  11.249   7.893   8.217 -1.6122 -0.5270 -1.6268
18072SOL     OW60178   2.335  11.096   8.642 -0.3985 -0.5216 -0.1333
18072SOL    HW160179   2.397  11.054   8.701  0.4206  1.3063  0.3876
18072SOL    HW260180   2.363  11.069   8.555  0.2563 -0.8354  0.1651
18073SOL     OW60181   6.771   3.561   7.905 -0.4798  0.3237 -0.8178
18073SOL    HW160182   6.772   3.465   7.902 -0.4736  0.3281 -0.9969
18073SOL    HW260183   6.728   3.586   7.823  0.5753  0.4973 -1.3389
18074SOL     OW60184   1.922   9.558   2.943 -0.1948  0.3671  0.4687
18074SOL    HW160185   1.917   9.654   2.948  0.3371  0.3478  1.5805
18074SOL    HW260186   1.970   9.540   2.862  0.7137  1.0779  0.8365
18075SOL     OW60187   7.356  10.853   9.816  0.0331 -0.0686  0.6756
18075SOL    HW160188   7.326  10.925   9.871 -0.4372 -2.1803  3.4164
18075SOL    HW260189   7.279  10.798   9.802  0.1653  0.2827 -2.1154
18076SOL     OW60190   1.074   9.694   9.615 -0.1347  0.0645  0.2268
18076SOL    HW160191   1.015   9.684   9.540  0.0499  1.1197 -0.0855
18076SOL    HW260192   1.161   9.701   9.576  0.1065 -0.6727  0.6319
18077SOL     OW60193   5.207   0.600   0.346 -0.8510 -0.4955 -0.3177
18077SOL    HW160194   5.200   0.514   0.305 -2.7413 -2.2818  3.3373
18077SOL    HW260195   5.260   0.586   0.424 -2.3089  1.2820  1.0947
18078SOL     OW60196  10.709   2.782   7.251  0.3463 -0.4264 -0.2527
18078SOL    HW160197  10.709   2.779   7.347  1.9952  0.8767 -0.1593
18078SOL    HW260198  10.784   2.728   7.225  0.6479  0.2091 -0.7336
18079SOL     OW60199   4.942   5.842   4.926  0.4400  0.1521  0.4982
18079SOL    HW160200   5.005   5.903   4.887  1.0546 -0.3383  0.7043
18079SOL    HW260201   4.993   5.763   4.943 -0.4353 -0.5625 -0.1254
18080SOL     OW60202   9.301   4.354   6.185  0.6116  0.2877  0.0668
18080SOL    HW160203   9.340   4.435   6.151  3.1801  0.1331  2.3099
18080SOL    HW260204   9.222   4.383   6.230  0.1393  1.1608 -1.2330
18081SOL     OW60205   1.088   9.046   0.522 -0.5590  0.3179  0.5706
18081SOL    HW160206   1.013   9.104   0.509 -0.0189  0.7760 -0.5985
18081SOL    HW260207   1.112   9.059   0.614 -1.9278  0.1209  0.9788
18082SOL     OW60208   4.449   7.191   9.578 -0.0642  0.0084 -0.5377
18082SOL    HW160209   4.389   7.117   9.581  2.1850 -1.9386 -0.2993
18082SOL    HW260210   4.497   7.186   9.661  0.6333  1.3433 -0.8215
18083SOL     OW60211   7.244   5.427  10.858  0.2642 -0.1719 -0.0306
18083SOL    HW160212   7.228   5.350  10.913 -0.4666 -0.6481 -0.8916
18083SOL    HW260213   7.157   5.459  10.835  0.4761 -1.2125 -2.5993
18084SOL     OW60214   9.489   4.344   3.690  0.5263 -0.1106 -0.1249
18084SOL    HW160215   9.475   4.397   3.768  0.6000  0.8771 -0.7647
18084SOL    HW260216   9.401   4.323   3.659  0.4938 -0.0377 -0.0828
18085SOL     OW60217   2.039   3.212   5.402 -0.0820 -0.3181  0.4362
18085SOL    HW160218   2.001   3.195   5.488 -3.1525  2.7291 -0.0823
18085SOL    HW260219   2.055   3.307   5.402 -0.8956 -0.0814 -2.5236
18086SOL     OW60220   0.651   6.670   5.396  0.2827  0.2134 -0.0540
18086SOL    HW160221   0.695   6.591   5.427  0.8994  1.2110  1.7958
18086SOL    HW260222   0.711   6.741   5.418 -2.0144  1.6087  2.2217
18087SOL     OW60223   2.922   8.606   4.992 -0.1920 -0.1501  0.3151
18087SOL    HW160224   2.832   8.638   4.980 -0.0503 -0.1819 -0.9651
18087SOL    HW260225   2.912   8.519   5.029 -0.6799 -0.1189  0.2584
18088SOL     OW60226   3.410   0.664   7.626  0.0281  0.3811  0.3031
18088SOL    HW160227   3.383   0.640   7.714 -2.8696  2.0714  0.0050
18088SOL    HW260228   3.360   0.606   7.569 -1.3400  2.0071 -0.2386
18089SOL     OW60229   6.948   7.018   9.963  0.2280 -0.1791  0.2938
18089SOL    HW160230   6.949   6.968   9.881  0.6112 -2.2693  1.4828
18089SOL    HW260231   6.861   7.001  10.000 -0.5812  2.1165 -0.3919
18090SOL     OW60232   6.867   6.465  12.009 -0.0314 -0.4247 -0.2794
18090SOL    HW160233   6.833   6.554  12.008  0.2276 -0.2749  1.5797
18090SOL    HW260234   6.844   6.430  11.923 -0.2429  1.3811 -1.0052
18091SOL     OW60235   3.320  10.334   3.376 -0.0352 -0.1419  0.1055
18091SOL    HW160236   3.347  10.378   3.295 -1.3303 -0.0608 -0.2935
18091SOL    HW260237   3.267  10.399   3.423 -0.1059 -0.5220  0.5652
18092SOL     OW60238   4.900  10.290   6.438  0.1500 -0.1876  0.4677
18092SOL    HW160239   4.838  10.217   6.439 -1.6393  1.2202 -1.0278
18092SOL    HW260240   4.866  10.350   6.505 -0.0312  0.5284 -0.2566
18093SOL     OW60241   4.749   5.296   9.875 -0.2582  0.2819 -0.5028
18093SOL    HW160242   4.704   5.377   9.898 -1.0513 -0.1906 -0.3927
18093SOL    HW260243   4.719   5.231   9.938 -0.5699 -0.4072 -1.3317
18094SOL     OW60244   7.010   0.591   0.649 -1.2178 -0.1088  0.3052
18094SOL    HW160245   6.982   0.601   0.740 -1.1143 -0.8967  0.4361
18094SOL    HW260246   7.051   0.504   0.646  1.3839  1.0126  0.1633
18095SOL     OW60247   8.086   2.573   2.597  0.1410 -0.0711  0.2264
18095SOL    HW160248   8.015   2.624   2.558  0.2747 -1.0800 -1.4423
18095SOL    HW260249   8.121   2.629   2.666 -1.3980  0.9915  0.1911
18096SOL     OW60250   7.087   9.649  11.311 -0.3632 -0.7979  0.1015
18096SOL    HW160251   7.113   9.716  11.373  0.5000  0.0907 -1.1848
18096SOL    HW260252   7.075   9.695  11.228  0.3063 -2.2090 -0.8332
18097SOL     OW60253   1.639   1.328   7.920  0.0345 -0.1815  0.3533
18097SOL    HW160254   1.615   1.237   7.936 -0.4452 -0.0747  0.2579
18097SOL    HW260255   1.715   1.343   7.977  3.2908 -2.0283 -3.0666
18098SOL     OW60256   5.672  11.141   2.382  0.0985 -0.1413  0.0885
18098SOL    HW160257   5.606  11.072   2.389  0.9473 -1.0287 -0.4837
18098SOL    HW260258   5.723  11.119   2.304 -0.3362  1.7812 -0.8219
18099SOL     OW60259   6.960   2.702   8.440 -0.1857 -0.0611  0.0775
18099SOL    HW160260   6.941   2.617   8.399 -1.6093  0.1037  0.3542
18099SOL    HW260261   6.937   2.690   8.532  1.5284  0.0470  0.5719
18100SOL     OW60262   0.057   3.999  11.177  0.8388 -0.1754 -0.0445
18100SOL    HW160263   0.052   4.015  11.271 -2.2499  0.1157 -0.1533
18100SOL    HW260264  -0.029   4.026  11.144  0.9222 -2.5903 -2.5710
18101SOL     OW60265   5.635   9.924   8.575  0.0890  0.4095  0.5661
18101SOL    HW160266   5.725   9.902   8.552 -0.4125  0.2059 -1.4023
18101SOL    HW260267   5.609   9.856   8.638  1.1804  0.2550  0.8690
18102SOL     OW60268   2.797   2.188  11.687 -0.0172 -0.0515 -0.2984
18102SOL    HW160269   2.853   2.263  11.666  0.7456 -0.2666  0.8739
18102SOL    HW260270   2.811   2.126  11.615 -1.2416  1.1982 -1.6941
18103SOL     OW60271   3.964   8.197   0.169 -0.1482 -0.0915 -0.3382
18103SOL    HW160272   3.897   8.244   0.120 -0.0431  0.9872  0.5081
18103SOL    HW260273   4.043   8.250   0.160  0.8575 -1.7526 -2.0015
18104SOL     OW60274  11.957   4.108  10.140 -0.1661  0.8745  0.2809
18104SOL    HW160275  11.903   4.134  10.214 -0.6929  1.4362 -0.2879
18104SOL    HW260276  11.995   4.190  10.108 -0.1289  0.6674 -0.2156
18105SOL     OW60277   4.127   7.957   4.793 -0.3087  0.0600 -0.1370
18105SOL    HW160278   4.122   7.863   4.772  0.2689 -0.1337  0.5439
18105SOL    HW260279   4.087   8.000   4.718 -0.4872 -0.7305 -0.5119
18106SOL     OW60280   8.096   4.907   6.328  0.1153 -0.0470 -0.1677
18106SOL    HW160281   8.069   4.954   6.249 -0.9882 -0.9852 -0.3783
18106SOL    HW260282   8.178   4.864   6.303  0.3806  0.5897 -0.4230
18107SOL     OW60283   9.035   8.382  10.918 -0.2091  0.6524 -0.5057
18107SOL    HW160284   8.999   8.302  10.957 -0.0325  0.3115 -1.0405
18107SOL    HW260285   9.027   8.369  10.824  1.1565  0.6383 -0.6370
18108SOL     OW60286   4.054   3.454   3.059 -0.2985 -0.1286 -0.2291
18108SOL    HW160287   4.068   3.373   3.107  0.1985 -0.6933 -1.2783
18108SOL    HW260288   3.972   3.439   3.011 -1.5898  0.9851  1.4965
18109SOL     OW60289  11.876   4.454   8.224  0.4568  0.1237  0.6845
18109SOL    HW160290  11.880   4.401   8.304 -2.6370 -3.7218 -1.3576
18109SOL    HW260291  11.927   4.403   8.160 -0.2539  1.1299 -0.7251
18110SOL     OW60292   9.472   5.513   9.604 -0.4102 -0.5091 -0.1931
18110SOL    HW160293   9.444   5.598   9.638 -1.9467 -0.2444 -1.9500
18110SOL    HW260294   9.391   5.463   9.596  0.2093 -1.3903 -1.1697
18111SOL     OW60295   1.341   3.491   0.859 -0.5911  0.1461  0.1672
18111SOL    HW160296   1.375   3.501   0.948 -2.4758 -1.1303  1.0968
18111SOL    HW260297   1.281   3.564   0.848  0.1577  0.6977 -0.3447
18112SOL     OW60298   5.002  11.843   5.510  0.0262 -0.0079  0.0579
18112SOL    HW160299   4.943  11.912   5.542 -0.1093  0.9693 -2.1474
18112SOL    HW260300   5.067  11.889   5.458  0.7269 -1.4381 -0.3808
18113SOL     OW60301  10.443   6.532   1.912 -0.5083  0.2685 -0.0131
18113SOL    HW160302  10.376   6.465   1.900  0.1360 -0.7187  1.5914
18113SOL    HW260303  10.481   6.544   1.825 -3.0063  1.2106 -1.0953
18114SOL     OW60304   8.515   0.911  11.027 -0.6474 -0.0122 -0.1441
18114SOL    HW160305   8.609   0.895  11.040 -0.0658  0.4974 -2.9096
18114SOL    HW260306   8.493   0.978  11.091  0.6804 -0.6436  1.0418
18115SOL     OW60307   1.878  11.544   0.797 -0.3173 -0.2399  0.1301
18115SOL    HW160308   1.878  11.472   0.733  0.3802 -0.2197  0.1025
18115SOL    HW260309   1.836  11.506   0.874  1.2864 -1.1325  0.6007
18116SOL     OW60310   8.962   8.223   8.461 -0.1530 -0.2871 -0.5393
18116SOL    HW160311   9.052   8.190   8.463  0.1781  0.4755  2.5677
18116SOL    HW260312   8.908   8.144   8.463  0.5184 -0.7436  0.5483
18117SOL     OW60313   2.528  11.389   4.076  0.3782  0.4788 -0.2510
18117SOL    HW160314   2.558  11.464   4.126  0.6479 -0.1395  0.5284
18117SOL    HW260315   2.607  11.338   4.059  0.1612  0.2408 -0.5459
18118SOL     OW60316   1.336  10.945  11.500 -0.2247  0.0087  0.1580
18118SOL    HW160317   1.340  11.036  11.529 -0.4812 -0.3881  1.5548
18118SOL    HW260318   1.354  10.948  11.407 -1.8428  1.6778 -0.1645
18119SOL     OW60319   2.579  12.329   3.893  0.3232 -0.1827  0.1800
18119SOL    HW160320   2.545  12.419   3.887  1.7224  0.4264  0.9388
18119SOL    HW260321   2.631  12.329   3.973 -0.1064 -1.8469  0.4922
18120SOL     OW60322   2.066   6.392   1.559 -0.0143 -0.4587 -0.5651
18120SOL    HW160323   2.036   6.418   1.472 -1.0836  2.7158  0.6175
18120SOL    HW260324   2.156   6.361   1.545 -0.3494 -0.5634 -2.8509
18121SOL     OW60325   1.487   0.330   6.880 -0.3497 -0.0097  0.9927
18121SOL    HW160326   1.470   0.277   6.801 -1.8648  2.7620 -0.7206
18121SOL    HW260327   1.578   0.357   6.872 -0.3764 -0.0784  0.4058
18122SOL     OW60328   0.938   9.875   5.321 -0.1402  0.5788 -0.2389
18122SOL    HW160329   1.028   9.851   5.299  0.2907 -0.5287  2.3814
18122SOL    HW260330   0.900   9.795   5.356 -2.4364  0.8279 -1.9506
18123SOL     OW60331   3.754   7.221   7.628 -0.1556  0.4098 -0.2660
18123SOL    HW160332   3.745   7.269   7.710 -0.7762  0.3204 -0.2809
18123SOL    HW260333   3.709   7.275   7.563 -3.2474 -1.4311  0.2063
18124SOL     OW60334   5.798   6.004   5.147 -0.1887  0.4351  0.1887
18124SOL    HW160335   5.863   5.938   5.173 -0.3348  0.5898  0.9753
18124SOL    HW260336   5.726   5.992   5.209 -1.0804  0.0352 -0.8886
18125SOL     OW60337   0.052  12.012   5.008  0.8506 -0.2815  0.2331
18125SOL    HW160338  -0.028  12.022   5.058  0.3807 -0.1257 -0.5359
18125SOL    HW260339   0.038  11.934   4.955  0.8960  0.1682 -0.4569
18126SOL     OW60340   3.246   7.326  10.752  0.2496  0.1236 -0.1694
18126SOL    HW160341   3.283   7.324  10.840 -0.4627 -1.0019  0.1239
18126SOL    HW260342   3.322   7.333  10.694  0.7156  1.0653  0.5238
18127SOL     OW60343   2.968   3.472   0.532  0.3097 -0.3179 -0.4243
18127SOL    HW160344   2.932   3.493   0.618 -0.1319 -1.1178 -0.4049
18127SOL    HW260345   2.976   3.376   0.531  0.0020 -0.3516 -1.3905
18128SOL     OW60346   8.657  11.560  11.994  0.6110 -0.3715 -0.0241
18128SOL    HW160347   8.701  11.483  11.958 -0.9224 -0.8237 -1.0455
18128SOL    HW260348   8.663  11.548  12.089  1.8132 -0.8949 -0.1431
18129SOL     OW60349   5.613   3.580   3.926  0.7193 -0.1343  0.4956
18129SOL    HW160350   5.678   3.595   3.857 -0.5345 -1.3527 -0.9964
18129SOL    HW260351   5.600   3.667   3.965 -1.3547  1.5312 -3.3793
18130SOL     OW60352   7.024  11.061   1.450 -0.3614  0.0935  0.6403
18130SOL    HW160353   7.004  11.054   1.356  0.1459  1.5727  0.3879
18130SOL    HW260354   7.117  11.040   1.456 -0.4777 -0.3535  0.8633
18131SOL     OW60355   3.627   7.301  10.740 -0.4102  0.5086 -0.5059
18131SOL    HW160356   3.555   7.313  10.802 -0.1796  1.6933 -0.4440
18131SOL    HW260357   3.696   7.261  10.792 -0.6027  0.4837 -0.2654
18132SOL     OW60358   5.683   0.602   2.444 -0.4152  0.1220  0.2281
18132SOL    HW160359   5.697   0.696   2.450 -1.1209  0.2392  0.1177
18132SOL    HW260360   5.638   0.579   2.526 -0.2406 -0.1169  0.2582
18133SOL     OW60361   9.160   3.950   0.328 -0.2165 -0.2209  0.0288
18133SOL    HW160362   9.154   4.045   0.325  0.5782 -0.1316  0.8488
18133SOL    HW260363   9.253   3.933   0.344 -0.3815 -1.1287  0.0638
18134SOL     OW60364   5.169   8.965   4.542 -0.2016 -0.2786 -0.4362
18134SOL    HW160365   5.165   9.057   4.569 -1.0705 -0.4163 -0.0592
18134SOL    HW260366   5.227   8.923   4.606  0.7700  0.1307 -1.0203
18135SOL     OW60367   0.701  11.906   7.659 -0.0725 -0.1261  0.0858
18135SOL    HW160368   0.648  11.835   7.623  0.3907 -0.5286  0.1896
18135SOL    HW260369   0.699  11.892   7.753  1.8929 -1.3820 -0.0050
18136SOL     OW60370   4.007   1.026   8.016  0.5129 -0.0116  0.1882
18136SOL    HW160371   4.087   1.014   7.965  0.1325  0.5295 -0.5591
18136SOL    HW260372   3.938   1.032   7.951  0.2169  2.5581  0.6158
18137SOL     OW60373   1.941   2.136  12.423  0.2588 -0.7325  0.5417
18137SOL    HW160374   1.994   2.112  12.347  0.3939 -0.6047  0.5971
18137SOL    HW260375   1.916   2.052  12.462 -3.7482 -1.1675 -2.3205
18138SOL     OW60376   3.558   8.563   7.746  0.0743 -0.3487  0.1962
18138SOL    HW160377   3.588   8.492   7.804  1.1016  1.0914  1.5198
18138SOL    HW260378   3.639   8.600   7.710 -0.4779 -0.1587 -0.8629
18139SOL     OW60379   4.480  10.015   3.940 -0.1546 -0.1921  0.1062
18139SOL    HW160380   4.522  10.029   3.855  0.6129 -1.6365  0.2177
18139SOL    HW260381   4.548   9.972   3.993 -1.6694 -2.4010  0.3648
18140SOL     OW60382   4.025   6.084   0.238  0.2318 -0.0262 -0.3441
18140SOL    HW160383   3.946   6.061   0.287 -0.7499  0.1267 -1.7651
18140SOL    HW260384   4.064   6.156   0.286  0.4678 -1.2209  1.3257
18141SOL     OW60385   4.453   5.665   8.430  0.0278  0.5793  0.3454
18141SOL    HW160386   4.505   5.676   8.510 -1.2866  1.5171  1.1280
18141SOL    HW260387   4.470   5.576   8.401  1.0383  0.4445  1.3145
18142SOL     OW60388   0.407   4.006   1.317 -0.3058  0.4093 -0.3195
18142SOL    HW160389   0.348   4.030   1.389 -1.0789 -0.9038 -0.4686
18142SOL    HW260390   0.368   4.047   1.240  0.2656  1.4371 -0.0703
18143SOL     OW60391   7.459   1.763   8.876 -0.2153 -0.1182  0.1703
18143SOL    HW160392   7.387   1.825   8.888  0.0296  0.2345 -0.1630
18143SOL    HW260393   7.422   1.678   8.900 -1.4144 -0.3010 -2.0720
18144SOL     OW60394   8.457  12.346   6.824 -0.5268 -0.3982 -0.0611
18144SOL    HW160395   8.434  12.273   6.766  0.4999 -0.1994 -0.7469
18144SOL    HW260396   8.408  12.420   6.789 -0.9403 -0.5750  0.1404
18145SOL     OW60397   0.820   7.972   2.415 -0.5154 -0.1881 -0.0148
18145SOL    HW160398   0.764   7.896   2.427 -3.2060  1.7030  0.3599
18145SOL    HW260399   0.872   7.977   2.496  1.1188 -2.5648 -0.8065
18146SOL     OW60400  10.830  10.966   2.888  0.1789  0.1206  0.5347
18146SOL    HW160401  10.774  10.946   2.963 -0.5502  0.4980  0.1001
18146SOL    HW260402  10.858  11.057   2.903 -0.1093  0.2553  0.2645
18147SOL     OW60403  10.207   2.362   3.983 -0.1627  0.2189  0.1204
18147SOL    HW160404  10.197   2.354   4.078  1.4418 -0.5363  0.2579
18147SOL    HW260405  10.288   2.314   3.963 -1.0084 -0.5471 -1.7621
18148SOL     OW60406  11.152   2.543   2.574 -0.2927  0.3211 -0.2116
18148SOL    HW160407  11.202   2.528   2.494 -0.9083 -2.4546 -0.1732
18148SOL    HW260408  11.210   2.516   2.645  0.0144  2.1438  0.2686
18149SOL     OW60409  10.337  12.165   5.319  0.2495 -0.2399  0.0839
18149SOL    HW160410  10.368  12.143   5.407  0.7121 -0.0199 -0.0209
18149SOL    HW260411  10.351  12.085   5.268 -1.1192 -0.7684  0.4776
18150SOL     OW60412   7.888   7.456   2.835 -0.3763  0.0342  0.0302
18150SOL    HW160413   7.811   7.415   2.795 -0.5619  0.9543 -0.5945
18150SOL    HW260414   7.959   7.394   2.821 -0.9491 -0.7451  0.4433
18151SOL     OW60415   9.608   8.030  12.140  0.4140  0.4067  0.1263
18151SOL    HW160416   9.703   8.037  12.148  0.3113  0.1927  2.5110
18151SOL    HW260417   9.578   8.120  12.134  0.7015  0.6220  1.4404
18152SOL     OW60418  11.755  11.501   8.006  0.3393 -0.4435  0.0821
18152SOL    HW160419  11.666  11.519   8.036  0.4827 -0.6326  0.6436
18152SOL    HW260420  11.765  11.554   7.928 -0.1848 -0.2350  0.1482
18153SOL     OW60421   0.976  10.629   2.913 -0.6012  0.1776 -0.1495
18153SOL    HW160422   0.995  10.719   2.886 -0.3701  0.0609 -0.3885
18153SOL    HW260423   0.980  10.579   2.832 -0.8030 -0.0377 -0.0280
18154SOL     OW60424   1.476   8.420   1.154  0.0626  0.0344 -0.4037
18154SOL    HW160425   1.513   8.397   1.069 -0.0251  0.8315 -0.6654
18154SOL    HW260426   1.494   8.344   1.209  0.9657 -0.1075 -0.8736
18155SOL     OW60427   1.510   4.676   5.438 -0.6138 -0.2605  0.1958
18155SOL    HW160428   1.423   4.652   5.469 -0.7584 -0.1525 -0.1250
18155SOL    HW260429   1.495   4.750   5.379 -0.3921 -0.7430 -0.4746
18156SOL     OW60430   4.712  12.218  10.661 -0.1852 -0.2066  0.5408
18156SOL    HW160431   4.660  12.249  10.735 -2.2579  0.7025 -1.2065
18156SOL    HW260432   4.741  12.297  10.616 -0.0316 -0.7500 -0.3528
18157SOL     OW60433  10.088  12.193   9.314  0.0129  0.4218 -0.3075
18157SOL    HW160434  10.172  12.147   9.318  0.4836  1.0888 -1.6364
18157SOL    HW260435  10.022  12.124   9.318  0.5989 -0.0970  0.9890
18158SOL     OW60436   2.371  10.152   8.657 -0.2443  0.2601 -0.2741
18158SOL    HW160437   2.328  10.216   8.714  0.7715  1.9029 -1.2799
18158SOL    HW260438   2.465  10.167   8.672  0.0228 -1.0060 -0.5566
18159SOL     OW60439   9.136   5.626   3.013 -0.6193 -0.1218  0.1378
18159SOL    HW160440   9.081   5.657   2.942 -1.1082 -0.1380  0.5043
18159SOL    HW260441   9.165   5.706   3.057  0.7290 -0.0400 -0.8317
18160SOL     OW60442   1.421  10.889   7.384  0.5159 -0.0621 -0.5293
18160SOL    HW160443   1.440  10.976   7.418 -0.1756  0.6096 -1.7735
18160SOL    HW260444   1.380  10.842   7.457  2.4279  0.0581  0.6768
18161SOL     OW60445   3.795   7.232   1.018  0.1834 -0.4812 -0.0185
18161SOL    HW160446   3.733   7.241   1.090  0.0899  1.8135 -0.3107
18161SOL    HW260447   3.876   7.201   1.059  0.0975  0.6806  1.0887
18162SOL     OW60448  12.105   4.328  10.847 -0.4819  0.1262 -0.0406
18162SOL    HW160449  12.052   4.396  10.804  0.8525  1.0341 -0.2982
18162SOL    HW260450  12.117   4.361  10.936 -2.7537 -1.4749  0.9514
18163SOL     OW60451   9.054  12.064   4.378  0.3995  0.0505  0.2248
18163SOL    HW160452   9.085  11.983   4.339  0.9247 -0.6413  1.9886
18163SOL    HW260453   8.991  12.099   4.314  2.1153 -0.3417 -1.7782
18164SOL     OW60454   2.433   1.009   9.215 -0.4910  0.0156 -0.5915
18164SOL    HW160455   2.371   0.955   9.264 -0.8128 -0.5838 -1.6249
18164SOL    HW260456   2.451   0.959   9.136  1.2197  0.2374 -0.3912
18165SOL     OW60457   2.692  10.523   3.112  0.1040  0.2510  0.1989
18165SOL    HW160458   2.618  10.580   3.094 -0.1463  0.0022  0.4320
18165SOL    HW260459   2.664  10.470   3.187  0.6602  0.4154  0.5261
18166SOL     OW60460  10.916   9.559   4.310 -0.2036  0.1787  0.0937
18166SOL    HW160461  10.899   9.514   4.227 -1.5915 -0.1244  0.5133
18166SOL    HW260462  10.983   9.624   4.289  0.7667 -1.0791 -0.8556
18167SOL     OW60463   1.465   8.391   9.561 -0.2015 -0.0566 -0.0013
18167SOL    HW160464   1.473   8.297   9.577 -1.3085 -0.3650 -1.0647
18167SOL    HW260465   1.551   8.418   9.529  0.1852 -0.6539  0.5069
18168SOL     OW60466   6.625  10.520   9.660 -0.1757  0.2540  0.5081
18168SOL    HW160467   6.631  10.428   9.687 -0.0334 -0.1145 -0.7319
18168SOL    HW260468   6.659  10.569   9.735  0.0751 -0.7270  1.0533
18169SOL     OW60469   0.981   6.430   3.488 -0.1717 -0.2656  0.2904
18169SOL    HW160470   1.056   6.428   3.548  0.3118 -0.4444 -0.3073
18169SOL    HW260471   0.927   6.355   3.515 -0.5588  0.3404  1.2407
18170SOL     OW60472   6.206   1.925   9.060 -0.0927  0.8387  0.2299
18170SOL    HW160473   6.156   2.003   9.083 -0.5247  0.5794  0.1926
18170SOL    HW260474   6.280   1.958   9.009  0.3525  1.3293  1.1607
18171SOL     OW60475  10.661   8.415  10.430  0.2940  0.0189 -0.0372
18171SOL    HW160476  10.720   8.413  10.355 -1.4348 -0.3539 -1.4684
18171SOL    HW260477  10.651   8.323  10.454 -0.1428  0.0245 -0.1891
18172SOL     OW60478   6.248   4.864   2.526  0.0209 -0.3161  0.4024
18172SOL    HW160479   6.207   4.872   2.612  0.6296 -1.6374  0.8505
18172SOL    HW260480   6.332   4.910   2.536  0.8417 -1.8762  1.0796
18173SOL     OW60481   0.134  12.215   4.856 -0.2122 -0.2278  0.0274
18173SOL    HW160482   0.226  12.189   4.845 -0.3538 -1.4888  1.4321
18173SOL    HW260483   0.096  12.145   4.909 -1.7647  0.7427  0.2603
18174SOL     OW60484   6.375   9.437   1.943 -0.0647 -0.1573  0.6893
18174SOL    HW160485   6.365   9.461   2.035  1.2604 -1.9175  1.3505
18174SOL    HW260486   6.469   9.444   1.926 -0.5039  2.6969 -1.3646
18175SOL     OW60487   3.977   8.276   6.572  0.1887 -0.0189 -0.1720
18175SOL    HW160488   3.925   8.292   6.493 -0.3255 -1.5067 -0.1674
18175SOL    HW260489   3.976   8.359   6.618  1.2399  1.1490 -2.1349
18176SOL     OW60490   4.295   5.732   1.591 -0.2039  0.5706  0.1345
18176SOL    HW160491   4.281   5.661   1.653  2.1404  0.2450  0.3685
18176SOL    HW260492   4.227   5.796   1.612 -0.6626 -0.3902  1.7200
18177SOL     OW60493   1.494   4.292   3.412  0.0237  0.3219 -0.6391
18177SOL    HW160494   1.409   4.306   3.454 -0.2423 -1.9800 -0.2484
18177SOL    HW260495   1.483   4.325   3.323 -0.2259  2.9099  0.2655
18178SOL     OW60496   1.383   4.013   7.598 -0.6435 -0.1839  0.4894
18178SOL    HW160497   1.424   4.054   7.675  3.0241 -2.2801 -0.1575
18178SOL    HW260498   1.385   4.082   7.531 -0.4627  0.5159  1.1913
18179SOL     OW60499   3.177   1.647   9.692  0.1168  0.3266 -0.2614
18179SOL    HW160500   3.208   1.720   9.745 -0.1977  0.1371  0.1936
18179SOL    HW260501   3.238   1.642   9.619  1.5184 -0.4253  0.9197
18180SOL     OW60502   6.898   4.261   7.391  0.7608  0.3132 -0.1458
18180SOL    HW160503   6.856   4.287   7.309 -0.3342 -0.0216  0.2920
18180SOL    HW260504   6.855   4.313   7.459  1.1861  0.1029  0.2955
18181SOL     OW60505   5.988   8.151   9.602 -0.4597  0.6807 -0.0086
18181SOL    HW160506   5.998   8.111   9.688  0.6606 -1.0474 -0.8872
18181SOL    HW260507   6.076   8.183   9.581 -0.4568  0.0762 -0.9624
18182SOL     OW60508   7.475   1.923   8.429  0.0499  0.0385 -0.3575
18182SOL    HW160509   7.525   2.005   8.417  0.5549 -0.4120 -1.5493
18182SOL    HW260510   7.398   1.934   8.374  0.4930 -0.5697 -1.1223
18183SOL     OW60511   8.729   7.957   2.863 -0.9673 -0.2122 -0.2913
18183SOL    HW160512   8.735   7.868   2.899  0.3572 -0.4145 -0.9602
18183SOL    HW260513   8.800   7.962   2.799 -1.8375  0.9010 -1.2141
18184SOL     OW60514   2.599   6.340  12.254 -0.8058 -0.1415 -0.1453
18184SOL    HW160515   2.519   6.298  12.222 -0.4156 -0.5001 -0.6691
18184SOL    HW260516   2.641   6.273  12.308 -1.8439  0.7171  1.7985
18185SOL     OW60517   6.208   8.863   2.448  0.2243 -0.8539 -0.1519
18185SOL    HW160518   6.241   8.787   2.400  3.7727  0.2882  0.1412
18185SOL    HW260519   6.163   8.915   2.382  0.1805 -1.8923 -0.9723
18186SOL     OW60520   4.568   5.779   0.790 -0.1455  0.0899  0.4578
18186SOL    HW160521   4.480   5.745   0.778 -0.3987  1.1577 -0.9141
18186SOL    HW260522   4.557   5.858   0.843  0.0166  0.0900  0.4939
18187SOL     OW60523  11.519   5.195   4.919  0.2464  0.4688  0.2068
18187SOL    HW160524  11.480   5.211   4.833  0.0256  0.5957  0.3280
18187SOL    HW260525  11.611   5.221   4.909  0.1268  0.8756  0.1209
18188SOL     OW60526   0.283   5.255   8.011  0.2280 -0.0076  0.1957
18188SOL    HW160527   0.244   5.182   8.058  1.6094 -0.4433  0.7089
18188SOL    HW260528   0.356   5.217   7.963  0.0400  0.7784 -0.7596
18189SOL     OW60529   2.594   2.120   2.713 -0.0150  0.1800 -0.2290
18189SOL    HW160530   2.645   2.061   2.768 -1.2494 -1.4423 -0.7502
18189SOL    HW260531   2.519   2.143   2.767  0.8589  2.0179  0.2859
18190SOL     OW60532  11.113   2.466   9.459 -0.1670 -0.1337  0.0599
18190SOL    HW160533  11.166   2.463   9.539  0.3587  0.9626 -0.2265
18190SOL    HW260534  11.036   2.412   9.479  1.1694 -2.0281  0.3772
18191SOL     OW60535   5.916   0.609  10.656  0.1525 -0.6602  0.3947
18191SOL    HW160536   5.879   0.532  10.612  1.0452 -0.8762  0.0061
18191SOL    HW260537   5.853   0.628  10.726  1.1924 -3.4307  2.2794
18192SOL     OW60538   2.470   5.995   4.195  0.0034 -0.4558 -0.3153
18192SOL    HW160539   2.492   5.906   4.166  0.8732 -0.0917 -0.8193
18192SOL    HW260540   2.428   6.035   4.119  0.2443 -0.2211 -0.3264
18193SOL     OW60541   4.726   2.966   6.904  0.8079 -0.1300 -0.1988
18193SOL    HW160542   4.693   3.017   6.831  2.4676 -2.6000 -2.8955
18193SOL    HW260543   4.807   2.926   6.871  0.9480 -2.4344  2.5261
18194SOL     OW60544   5.995   6.824  10.458  0.2815  0.4419  0.4919
18194SOL    HW160545   5.942   6.901  10.481 -0.8379 -0.2906  0.4611
18194SOL    HW260546   5.934   6.767  10.411  1.4031  0.0214 -0.4815
18195SOL     OW60547   4.149   9.520   2.748  0.1822 -0.5301 -0.2486
18195SOL    HW160548   4.079   9.536   2.810  0.5040 -1.4582  0.3648
18195SOL    HW260549   4.105   9.513   2.663 -0.5874 -2.0250  0.2473
18196SOL     OW60550  10.311   2.190  10.878 -0.8019 -0.2288 -0.7766
18196SOL    HW160551  10.388   2.230  10.836  0.5902 -1.2723  0.6642
18196SOL    HW260552  10.248   2.262  10.886  1.1812  1.4548  0.6751
18197SOL     OW60553   0.632   4.039   8.921  0.1478  0.1580  0.1852
18197SOL    HW160554   0.556   4.097   8.922 -0.3821 -0.5001  2.2499
18197SOL    HW260555   0.595   3.950   8.917  0.8735 -0.1209 -0.6514
18198SOL     OW60556   1.981  11.140   1.362 -0.0359  0.0582 -0.3535
18198SOL    HW160557   2.051  11.108   1.304 -0.9506 -1.1796 -0.8313
18198SOL    HW260558   1.968  11.231   1.336  0.3646 -0.1416 -1.3052
18199SOL     OW60559   2.705  10.346   2.200 -0.0340  0.7989 -0.3442
18199SOL    HW160560   2.638  10.401   2.241  0.5205  2.0275 -1.0263
18199SOL    HW260561   2.658  10.297   2.132 -0.2632  1.6165 -0.7882
18200SOL     OW60562   9.649  11.676   7.389  0.2418  0.5797 -0.3565
18200SOL    HW160563   9.649  11.581   7.374  0.1930  0.3081  1.1547
18200SOL    HW260564   9.739  11.695   7.417 -0.1246  0.6876  0.8183
18201SOL     OW60565   1.037   4.455   7.480  0.4380  0.4226 -0.1758
18201SOL    HW160566   0.953   4.485   7.443  1.3612  2.7619 -0.5126
18201SOL    HW260567   1.096   4.529   7.468  2.6048 -1.1998 -0.0056
18202SOL     OW60568  10.172   7.209  12.315 -0.8089  0.2173 -0.2577
18202SOL    HW160569  10.110   7.163  12.372  1.5052 -2.2227  0.4687
18202SOL    HW260570  10.154   7.176  12.227 -1.3638  0.5388 -0.2738
18203SOL     OW60571   7.088   4.228   7.199  0.6268 -0.1167 -0.0734
18203SOL    HW160572   7.039   4.260   7.275  0.5363  0.4338 -0.3575
18203SOL    HW260573   7.157   4.293   7.186  0.8293 -0.3700 -0.2725
18204SOL     OW60574   3.206   6.938  11.826 -0.6123  0.3016 -0.2525
18204SOL    HW160575   3.226   7.025  11.862  0.4970 -0.3631  0.8017
18204SOL    HW260576   3.195   6.883  11.903 -0.4743 -0.6824 -0.9245
18205SOL     OW60577   0.249   7.953   9.968  0.6550  0.9793 -0.2841
18205SOL    HW160578   0.266   7.989   9.881 -0.1205  1.1657 -0.3683
18205SOL    HW260579   0.160   7.982   9.988  0.5628  0.3266  0.2635
18206SOL     OW60580   7.739   5.487   1.849 -0.0263 -0.3265 -0.6428
18206SOL    HW160581   7.677   5.559   1.842 -0.7783 -0.9380 -0.3349
18206SOL    HW260582   7.787   5.489   1.766 -0.6767 -0.0501 -1.0196
18207SOL     OW60583   8.115  12.017   9.043 -0.2536 -0.6160  0.7448
18207SOL    HW160584   8.130  12.060   9.127  2.3901  0.0812  0.0062
18207SOL    HW260585   8.083  11.929   9.066 -2.3235  0.4666  2.3463
18208SOL     OW60586   8.553  11.060   3.699  0.2972 -0.0886 -0.0972
18208SOL    HW160587   8.558  11.046   3.604  1.0329 -1.0702  0.0829
18208SOL    HW260588   8.489  10.996   3.729 -0.4895  0.7126 -0.0079
18209SOL     OW60589   4.886  12.366   3.849 -0.0481  0.1156  0.6310
18209SOL    HW160590   4.955  12.307   3.821  0.4055  0.8306  0.2094
18209SOL    HW260591   4.930  12.450   3.862 -1.0442  0.9751 -1.0789
18210SOL     OW60592   2.331  12.190   9.597 -0.3791 -0.5961  0.1936
18210SOL    HW160593   2.277  12.113   9.611  0.6176 -1.1714  1.0519
18210SOL    HW260594   2.269  12.263   9.595 -1.4533 -1.4883 -1.8115
18211SOL     OW60595   1.239   8.793   7.315  0.0891  0.6352  0.3343
18211SOL    HW160596   1.152   8.760   7.295 -0.1047  0.5117  1.3510
18211SOL    HW260597   1.296   8.749   7.252 -0.4452 -0.0652  0.3234
18212SOL     OW60598   1.338   8.168   8.244 -0.3844  0.7273 -0.1454
18212SOL    HW160599   1.266   8.228   8.265 -0.1136  0.8456  0.4781
18212SOL    HW260600   1.400   8.180   8.316 -0.1182  0.0267 -0.2548
18213SOL     OW60601  10.455  11.622   3.726  0.0678  0.0248 -0.0654
18213SOL    HW160602  10.368  11.661   3.733  0.0059  0.0002 -0.6251
18213SOL    HW260603  10.515  11.697   3.728  0.0534  0.0201  0.6205
18214SOL     OW60604   0.898   9.483   4.912  0.3503  0.1961  0.6095
18214SOL    HW160605   0.870   9.459   4.823  1.7871  0.4784  0.0510
18214SOL    HW260606   0.956   9.558   4.899  0.0733  0.6420  1.8574
18215SOL     OW60607  12.309   8.205   6.068  0.8190 -0.2125 -0.6189
18215SOL    HW160608  12.246   8.155   6.018  1.7617 -1.2014 -0.8515
18215SOL    HW260609  12.366   8.245   6.003  0.1121  1.1714 -0.4394
18216SOL     OW60610  10.418  11.048  11.289 -0.0776  0.5746  0.2170
18216SOL    HW160611  10.400  11.052  11.196 -0.7340 -1.8122  0.1956
18216SOL    HW260612  10.342  11.089  11.330  0.4924  2.1909 -0.2688
18217SOL     OW60613  11.800  10.691   0.943 -0.0499 -0.4036  0.0456
18217SOL    HW160614  11.811  10.786   0.951 -3.5772  0.0714  0.5593
18217SOL    HW260615  11.823  10.672   0.852 -1.8001  1.4174 -0.8532
18218SOL     OW60616   8.232   6.193   5.416 -0.5018  0.2772 -0.3493
18218SOL    HW160617   8.241   6.115   5.361  0.9355  0.6481 -0.6852
18218SOL    HW260618   8.139   6.212   5.416 -1.1828 -2.4888  1.2056
18219SOL     OW60619   1.879   5.188   8.996  0.1753  0.3673 -0.4117
18219SOL    HW160620   1.869   5.178   8.902 -0.3354 -0.3319 -0.2945
18219SOL    HW260621   1.970   5.164   9.014  0.0074 -0.4263 -0.6097
18220SOL     OW60622   5.706   4.411   3.008 -0.0609  0.0281  0.4009
18220SOL    HW160623   5.785   4.459   2.982 -1.7767  2.4119 -0.8396
18220SOL    HW260624   5.704   4.335   2.951  0.6011  0.6954 -0.5452
18221SOL     OW60625  12.235   1.796  12.232 -0.8346  0.7995 -0.4311
18221SOL    HW160626  12.302   1.824  12.294 -2.1814  3.8862 -0.2136
18221SOL    HW260627  12.279   1.729  12.179  0.5846 -1.5085  3.2514
18222SOL     OW60628  10.410   5.545  11.859  0.1978 -0.4335  0.1816
18222SOL    HW160629  10.436   5.533  11.951 -0.1937 -1.5265  0.1661
18222SOL    HW260630  10.314   5.545  11.861  0.1838 -0.9113 -0.2714
18223SOL     OW60631   0.234   5.971   0.163  0.4965  0.3272  0.6371
18223SOL    HW160632   0.164   6.036   0.165 -0.5024 -0.5616 -1.6797
18223SOL    HW260633   0.314   6.024   0.159 -0.1659  1.3900  0.8483
18224SOL     OW60634   4.894   0.620   9.173 -0.3058 -0.0999 -0.3706
18224SOL    HW160635   4.811   0.574   9.163 -0.9926  0.5176  1.8446
18224SOL    HW260636   4.895   0.683   9.101 -1.3383 -0.7117 -0.9494
18225SOL     OW60637   8.334  12.336   5.383  0.0671 -0.1019 -0.0673
18225SOL    HW160638   8.317  12.379   5.467  1.1099 -0.3882  0.2985
18225SOL    HW260639   8.371  12.251   5.406  0.4747 -0.1322 -0.8195
18226SOL     OW60640  11.658   3.251  11.950 -0.0188  0.1650 -0.2384
18226SOL    HW160641  11.574   3.283  11.983 -0.0811  0.1682 -0.4035
18226SOL    HW260642  11.720   3.321  11.970 -0.1090  0.2846 -0.3755
18227SOL     OW60643   7.320   3.332   4.026 -0.4768  0.3086 -0.4701
18227SOL    HW160644   7.225   3.333   4.036 -0.4362  1.7959  0.0701
18227SOL    HW260645   7.336   3.271   3.955 -1.8649  0.2893 -0.7997
18228SOL     OW60646   3.514   3.477   8.052  0.4170  0.2464  0.1470
18228SOL    HW160647   3.473   3.392   8.068  1.6067 -0.8811 -2.3109
18228SOL    HW260648   3.573   3.490   8.126  1.1869 -1.7031 -0.0929
18229SOL     OW60649   1.842  11.184   1.596 -0.2795 -0.3234 -0.4493
18229SOL    HW160650   1.797  11.100   1.595 -0.2498 -0.3527  0.3042
18229SOL    HW260651   1.898  11.182   1.518 -0.5011 -0.8728 -0.6004
18230SOL     OW60652   1.252   9.394   9.358 -0.6713 -0.3299  0.3715
18230SOL    HW160653   1.302   9.425   9.433 -2.4564  0.0113  1.4722
18230SOL    HW260654   1.272   9.301   9.353 -0.9662 -0.4856  1.6622
18231SOL     OW60655   7.670   9.590   1.166 -0.1768  0.1122 -0.1751
18231SOL    HW160656   7.654   9.534   1.090  0.2085 -2.2811  1.4323
18231SOL    HW260657   7.648   9.536   1.242  1.1881  1.7948  1.5206
18232SOL     OW60658  11.766   7.741   0.954  0.4815  0.1964  0.4750
18232SOL    HW160659  11.738   7.795   0.880  2.0485  1.2564  0.6149
18232SOL    HW260660  11.856   7.768   0.971  1.0209 -1.8419  1.1482
18233SOL     OW60661  10.450  11.424   7.671  0.2145 -0.0816  0.6346
18233SOL    HW160662  10.458  11.356   7.604 -1.3167 -1.4412  1.7488
18233SOL    HW260663  10.537  11.431   7.709  0.8460 -0.0372 -0.7666
18234SOL     OW60664   1.521  11.576   2.699  0.0150 -0.1440 -0.0948
18234SOL    HW160665   1.566  11.621   2.770 -0.6614 -0.5287  0.5825
18234SOL    HW260666   1.571  11.495   2.686  1.0318  0.5905 -1.0909
18235SOL     OW60667   0.976   3.204   0.582  0.6821 -0.2694  0.2923
18235SOL    HW160668   1.055   3.227   0.631  0.1109 -0.8228  1.5264
18235SOL    HW260669   0.919   3.281   0.591 -0.0818 -0.9730  1.9737
18236SOL     OW60670   7.653   6.930   1.069  0.2792  0.2482  0.4209
18236SOL    HW160671   7.653   6.856   1.008 -1.0868  1.0526 -0.6382
18236SOL    HW260672   7.735   6.976   1.052 -0.3142  0.7641 -1.2627
18237SOL     OW60673  10.002   2.784   4.614  0.0259  0.5204 -0.2196
18237SOL    HW160674   9.982   2.779   4.520  0.9798  1.3586 -0.4819
18237SOL    HW260675  10.002   2.693   4.643 -3.7354  0.3631 -0.2420
18238SOL     OW60676   0.497   3.906   0.096  0.3299  0.3705 -0.0983
18238SOL    HW160677   0.490   3.811   0.110  0.4612  0.2174 -1.0089
18238SOL    HW260678   0.449   3.921   0.014  1.5715  0.8744 -0.7545
18239SOL     OW60679   3.019   1.744   4.744  0.1570 -0.4187 -0.2784
18239SOL    HW160680   2.939   1.703   4.779 -0.7017 -0.5298 -2.2255
18239SOL    HW260681   3.030   1.823   4.796 -1.7124  0.0159 -0.4599
18240SOL     OW60682   5.903   3.630   5.996  0.0129  0.0921 -0.2715
18240SOL    HW160683   5.866   3.561   5.940  1.1867 -0.1558 -0.7720
18240SOL    HW260684   5.857   3.620   6.080 -0.7708 -0.4341 -0.7499
18241SOL     OW60685   9.787  12.207  10.377 -0.4128 -0.0830  0.3913
18241SOL    HW160686   9.846  12.220  10.303 -0.0728 -1.5057  0.3906
18241SOL    HW260687   9.773  12.296  10.412 -0.5965  0.6091 -1.3487
18242SOL     OW60688   2.359   1.368   3.754 -0.2947  0.1507  0.0629
18242SOL    HW160689   2.391   1.279   3.739 -0.1153  0.3677 -0.8985
18242SOL    HW260690   2.265   1.358   3.767 -0.1141 -0.2955  1.0739
18243SOL     OW60691   0.192   0.670  10.584 -0.9571 -0.3520  0.3096
18243SOL    HW160692   0.250   0.608  10.629 -0.5230 -1.2014 -1.3462
18243SOL    HW260693   0.247   0.707  10.514 -1.8505  0.2777 -0.0694
18244SOL     OW60694   1.675  11.488   7.552 -0.1920  0.2972 -0.0118
18244SOL    HW160695   1.752  11.521   7.599 -1.2235  0.8897  1.3490
18244SOL    HW260696   1.649  11.561   7.495 -1.1862  1.0842  1.3869
18245SOL     OW60697   0.450   0.558   1.715  0.0438  0.1529  0.3845
18245SOL    HW160698   0.384   0.551   1.646  1.0156  2.5076 -0.8886
18245SOL    HW260699   0.459   0.469   1.749 -3.2378 -0.3758  0.1508
18246SOL     OW60700   9.584   0.090   4.844  0.4062 -0.4583 -0.0882
18246SOL    HW160701   9.570   0.107   4.937  1.3822  0.1675 -0.0471
18246SOL    HW260702   9.671   0.125   4.825  0.3752 -0.9026 -1.1590
18247SOL     OW60703   8.339   2.130   9.232  0.5241 -0.4137 -0.0485
18247SOL    HW160704   8.382   2.049   9.205  1.0595 -0.2090  0.1707
18247SOL    HW260705   8.263   2.137   9.174 -1.2327 -2.5608  1.8106
18248SOL     OW60706   1.256   9.394   4.889  0.3984 -0.4802 -0.2775
18248SOL    HW160707   1.212   9.333   4.830 -1.9236  0.2396  0.6151
18248SOL    HW260708   1.268   9.344   4.971  1.6022 -0.7652 -0.5982
18249SOL     OW60709   9.973   5.687   4.958  0.0644 -0.2209  0.2028
18249SOL    HW160710   9.919   5.763   4.939 -0.2614 -0.6700 -0.7275
18249SOL    HW260711   9.918   5.632   5.014  0.5810  0.5512  1.5140
18250SOL     OW60712  10.626  10.829   9.917  0.4095 -0.4728  0.1179
18250SOL    HW160713  10.623  10.799   9.826 -2.6830  1.5744 -0.5935
18250SOL    HW260714  10.539  10.865   9.934  0.1735 -2.4209  4.5362
18251SOL     OW60715   2.590  11.825   9.283 -0.3102  0.1128  0.0302
18251SOL    HW160716   2.603  11.900   9.340  1.0566 -0.7940  0.9793
18251SOL    HW260717   2.673  11.815   9.236 -0.7695 -0.3031 -0.7237
18252SOL     OW60718   6.954   8.064   2.701 -0.2257  0.4615  0.1764
18252SOL    HW160719   6.957   7.978   2.657  0.9974  0.0369  1.0422
18252SOL    HW260720   6.865   8.096   2.684 -0.8516 -1.1683  0.1825
18253SOL     OW60721   4.725   9.667  11.919  0.4037 -0.1019  0.3378
18253SOL    HW160722   4.790   9.597  11.909  2.8731  2.0144  0.3655
18253SOL    HW260723   4.683   9.673  11.834  0.2538 -1.4986  0.2964
18254SOL     OW60724   0.398   9.516  11.488  0.2054 -0.5358  0.5283
18254SOL    HW160725   0.410   9.545  11.579 -1.0044  0.0727  0.5137
18254SOL    HW260726   0.451   9.437  11.481  1.8584  0.4569  1.2036
18255SOL     OW60727   0.315   5.221   6.454  0.1350 -0.0531 -0.5749
18255SOL    HW160728   0.282   5.150   6.509 -0.8285 -0.2787 -1.4194
18255SOL    HW260729   0.351   5.284   6.516 -0.3193 -0.6086  0.2717
18256SOL     OW60730   2.244   6.018   0.702  0.9389  0.7145  0.5051
18256SOL    HW160731   2.168   6.044   0.753 -0.4967 -1.8236 -0.1369
18256SOL    HW260732   2.318   6.027   0.763 -0.4393 -0.4483  2.4910
18257SOL     OW60733   2.120   8.982  10.044  0.0830 -0.5692  0.0133
18257SOL    HW160734   2.056   8.955  10.109  0.0885  0.1981  0.3472
18257SOL    HW260735   2.116   9.078  10.044 -1.8503 -0.4941 -3.0059
18258SOL     OW60736  11.744   8.280   8.495 -0.3191 -0.1473 -0.2163
18258SOL    HW160737  11.823   8.237   8.462  0.0054  0.9169 -0.8700
18258SOL    HW260738  11.682   8.276   8.423 -0.4843 -0.0303 -0.0815
18259SOL     OW60739   6.738   2.427  11.929 -0.8150  0.4245  0.1577
18259SOL    HW160740   6.817   2.398  11.882 -0.8089 -0.7794  0.9008
18259SOL    HW260741   6.673   2.359  11.912 -1.2120  0.6257  0.8560
18260SOL     OW60742   0.253   6.939   7.020  0.0200  0.7421 -0.0559
18260SOL    HW160743   0.292   6.858   7.054 -0.7797 -0.0094 -0.8522
18260SOL    HW260744   0.320   7.006   7.033  1.0832 -0.2563 -0.2512
18261SOL     OW60745  10.229   0.778   9.794  0.0641 -0.3686  0.5185
18261SOL    HW160746  10.134   0.783   9.784  0.1242  0.3620  0.2608
18261SOL    HW260747  10.247   0.685   9.809 -0.5971 -0.6605 -0.4111
18262SOL     OW60748   3.616   7.415  12.024  0.5520  0.5242 -0.1770
18262SOL    HW160749   3.619   7.466  12.104 -0.4646  0.0173  0.2023
18262SOL    HW260750   3.665   7.335  12.044 -1.5811 -0.6235  0.7234
18263SOL     OW60751  11.804   5.488  10.602  0.0137 -0.2459  0.1106
18263SOL    HW160752  11.800   5.578  10.568 -1.4912  0.3469  1.7507
18263SOL    HW260753  11.887   5.485  10.650 -0.1265  0.4000  0.4035
18264SOL     OW60754   3.645   4.118   2.635 -0.4427  0.2019  0.3914
18264SOL    HW160755   3.630   4.044   2.694 -0.6352 -0.4694 -0.4601
18264SOL    HW260756   3.657   4.193   2.692  0.0834 -0.5454  1.3025
18265SOL     OW60757   7.065   7.837  10.394  0.6362 -0.2615 -0.1618
18265SOL    HW160758   7.019   7.809  10.315 -1.0111 -0.6324  0.8787
18265SOL    HW260759   6.996   7.873  10.450  1.6605 -0.6129  1.3795
18266SOL     OW60760   2.421   4.795   1.341  0.2504 -0.2659 -0.5981
18266SOL    HW160761   2.499   4.744   1.322 -0.7063 -0.7161 -3.9037
18266SOL    HW260762   2.399   4.772   1.431  3.5935 -0.4349  0.3104
18267SOL     OW60763   1.357   3.509   5.190  0.0553  0.2034 -0.3473
18267SOL    HW160764   1.378   3.592   5.148 -0.0070  0.2144 -0.3582
18267SOL    HW260765   1.373   3.524   5.283  0.6433  0.0367 -0.4179
18268SOL     OW60766   3.497   3.196   6.463 -0.0913 -0.3244  0.5004
18268SOL    HW160767   3.495   3.274   6.517  0.1895  0.2548 -0.3062
18268SOL    HW260768   3.586   3.193   6.428 -0.8201  0.4623 -1.5504
18269SOL     OW60769   1.994   8.905  12.346  0.3668 -0.0599 -0.4371
18269SOL    HW160770   1.925   8.840  12.329  0.4904 -0.4477  0.4794
18269SOL    HW260771   2.000   8.909  12.442  1.0253  0.6041 -0.4997
18270SOL     OW60772   7.838   3.122   3.472 -0.2583  0.7877 -0.1336
18270SOL    HW160773   7.843   3.212   3.440  0.0780  0.6801 -0.3915
18270SOL    HW260774   7.751   3.092   3.445  0.4893  0.2615 -2.1563
18271SOL     OW60775  10.614   0.716   6.401 -0.4382  0.0710  0.4168
18271SOL    HW160776  10.582   0.772   6.472 -1.7937 -1.6248  1.2272
18271SOL    HW260777  10.534   0.681   6.361  0.3533 -1.2221 -0.0918
18272SOL     OW60778   0.238   4.990   5.902  0.3708 -0.1552 -0.0443
18272SOL    HW160779   0.177   4.922   5.873  1.3593 -0.6091 -1.1142
18272SOL    HW260780   0.186   5.044   5.962 -0.8091 -1.0783 -0.1985
18273SOL     OW60781  11.650   4.641   0.651  0.5112 -0.2919  0.0918
18273SOL    HW160782  11.659   4.634   0.555  0.6567 -0.1010  0.0903
18273SOL    HW260783  11.613   4.728   0.665  2.0480  0.3621  0.2905
18274SOL     OW60784  11.947  11.735   5.101 -0.3246  0.2780 -0.0939
18274SOL    HW160785  11.935  11.758   5.009 -1.0911 -0.2135 -0.1273
18274SOL    HW260786  11.892  11.797   5.149  1.7976  2.0200  0.2334
18275SOL     OW60787  11.392   3.061   9.751  0.1961  0.1969 -0.1193
18275SOL    HW160788  11.443   3.061   9.670  0.6532 -1.4502  0.1311
18275SOL    HW260789  11.415   2.978   9.794 -1.4509  0.1707  0.7949
18276SOL     OW60790   2.288   8.962   0.122 -0.1205  0.1923  0.2131
18276SOL    HW160791   2.221   9.015   0.166 -0.6158 -0.4859  0.2885
18276SOL    HW260792   2.368   8.979   0.172 -0.7980 -1.0505  1.8066
18277SOL     OW60793   4.890   5.625   5.717 -0.0790  0.0322 -0.7289
18277SOL    HW160794   4.796   5.648   5.717  0.1492  1.2913  1.4422
18277SOL    HW260795   4.902   5.575   5.637 -2.9567 -1.6000 -0.2957
18278SOL     OW60796   2.235   9.636  11.823  0.7141  0.4359  0.2441
18278SOL    HW160797   2.234   9.601  11.912 -0.6559 -2.1648 -0.7009
18278SOL    HW260798   2.297   9.709  11.827  1.9559 -0.6347  2.9213
18279SOL     OW60799  11.957   6.485  12.127  0.2804 -0.1412  0.3120
18279SOL    HW160800  11.910   6.411  12.166  0.4776 -0.0998  0.6388
18279SOL    HW260801  11.889   6.549  12.108 -0.0892 -0.9769 -1.3492
18280SOL     OW60802   2.458   5.069   1.509 -0.0658  0.0317  0.1427
18280SOL    HW160803   2.535   5.090   1.456 -1.4018  0.8553 -1.5476
18280SOL    HW260804   2.448   4.974   1.501 -0.0368  0.1003 -0.7888
18281SOL     OW60805   7.409   3.638   1.226  0.0527 -0.1143 -0.0537
18281SOL    HW160806   7.336   3.623   1.286  0.0348  1.3560  0.3143
18281SOL    HW260807   7.393   3.725   1.190  1.7614  0.3560  0.2295
18282SOL     OW60808  11.965   8.804  10.063  0.3978  0.0649  0.3180
18282SOL    HW160809  12.054   8.832  10.082  1.1198 -0.9876 -1.3462
18282SOL    HW260810  11.975   8.730  10.003 -1.5628 -0.7695  0.9371
18283SOL     OW60811  11.054  12.371   4.236  0.0022  0.2379 -0.2349
18283SOL    HW160812  11.060  12.458   4.197  0.0389  0.1866 -0.3447
18283SOL    HW260813  10.960  12.356   4.248 -0.1735 -0.6394 -2.3422
18284SOL     OW60814   5.005  10.469   0.854 -0.6997  0.2350 -0.4189
18284SOL    HW160815   5.072  10.512   0.801 -0.6116  1.2079  0.4520
18284SOL    HW260816   5.009  10.513   0.939 -1.9630 -0.1750 -0.1227
18285SOL     OW60817  12.080   8.632   2.594  0.0774  0.4460 -0.3650
18285SOL    HW160818  12.046   8.555   2.549  1.4995 -0.3271 -0.1919
18285SOL    HW260819  12.039   8.706   2.550 -1.0711 -0.3928 -0.7478
18286SOL     OW60820   6.716   1.775   9.577 -0.0345  0.9069 -0.2280
18286SOL    HW160821   6.769   1.854   9.574 -0.9041  1.4880 -0.7131
18286SOL    HW260822   6.738   1.734   9.661  0.9992  1.2449 -0.3272
18287SOL     OW60823   4.332  10.727   7.806  0.3538  0.5223  0.0687
18287SOL    HW160824   4.358  10.664   7.873  1.4386  0.2317 -0.5896
18287SOL    HW260825   4.375  10.809   7.832  1.4103  0.2209 -0.6390
18288SOL     OW60826   1.058   0.301   9.518 -0.7427  0.3659  0.4334
18288SOL    HW160827   1.080   0.235   9.584 -0.7453  0.0949  0.1653
18288SOL    HW260828   1.010   0.253   9.451 -0.4685  0.5755  0.0810
18289SOL     OW60829  11.471   6.967   3.063 -0.1864 -0.4997  0.2716
18289SOL    HW160830  11.491   7.026   2.990 -1.3494  0.2318  0.5249
18289SOL    HW260831  11.476   7.022   3.141 -1.8190 -0.5674  0.4605
18290SOL     OW60832   8.525   7.499   0.389 -0.1851 -0.0060  0.4924
18290SOL    HW160833   8.612   7.498   0.430  0.3748  0.7134 -0.6356
18290SOL    HW260834   8.465   7.515   0.461  0.7761  1.2236  1.0491
18291SOL     OW60835   9.413   9.805   8.974  0.6704  0.1383 -0.1540
18291SOL    HW160836   9.352   9.868   9.014 -0.6439 -0.6458 -0.8650
18291SOL    HW260837   9.465   9.858   8.913  0.0994  0.6691 -0.1940
18292SOL     OW60838   9.655   5.052   6.944 -0.3585 -0.5291 -0.1147
18292SOL    HW160839   9.618   4.970   6.976  0.8581 -0.6904  0.9677
18292SOL    HW260840   9.669   5.104   7.023 -2.6606  1.4619 -0.8828
18293SOL     OW60841   0.060  12.040   9.165 -0.2614 -0.5098  0.2598
18293SOL    HW160842   0.041  12.051   9.072  0.9810  0.7205  0.1174
18293SOL    HW260843   0.047  11.946   9.181  1.1964 -1.0840 -1.5799
18294SOL     OW60844   9.197   4.106   4.946  0.2304  0.5758 -0.2576
18294SOL    HW160845   9.107   4.127   4.970  0.1706  0.1817 -0.1302
18294SOL    HW260846   9.234   4.064   5.024  0.2294 -0.1359 -0.6279
18295SOL     OW60847  10.145   2.201   0.124 -0.0018 -0.1862 -0.1641
18295SOL    HW160848  10.235   2.234   0.126 -0.4192  0.9933  1.3298
18295SOL    HW260849  10.110   2.225   0.210 -1.3297 -1.8329 -0.2052
18296SOL     OW60850   5.508   5.062   4.641  0.5878  0.9159  0.9195
18296SOL    HW160851   5.588   5.052   4.591  0.7589  0.9289  1.1875
18296SOL    HW260852   5.438   5.040   4.580  0.8094  0.6788  0.7505
18297SOL     OW60853   6.093   3.195   4.615  0.2985 -0.7139 -0.1814
18297SOL    HW160854   6.055   3.268   4.664  0.1792 -0.9086  0.0186
18297SOL    HW260855   6.079   3.218   4.523  1.1764  0.0030 -0.1550
18298SOL     OW60856   3.801   9.081   3.910  0.3115 -0.3510  0.0841
18298SOL    HW160857   3.887   9.096   3.950 -0.9570 -0.9320  3.3572
18298SOL    HW260858   3.748   9.156   3.938 -1.3580 -2.0882  1.9478
18299SOL     OW60859   6.346   6.527  10.020 -0.1937  0.2596 -0.5000
18299SOL    HW160860   6.361   6.460  10.088 -2.5064 -1.2232 -1.3561
18299SOL    HW260861   6.429   6.530   9.972  0.0614 -1.9160 -0.3272
18300SOL     OW60862   0.449   7.312   9.790  0.0230 -0.1295  0.3174
18300SOL    HW160863   0.360   7.290   9.764 -0.1584  0.6281  0.2677
18300SOL    HW260864   0.478   7.375   9.724  0.6606 -0.5025  0.2336
18301SOL     OW60865   2.824  10.999   4.106  0.1000 -0.3538 -0.4498
18301SOL    HW160866   2.821  10.949   4.025 -2.0530 -0.9317 -0.0693
18301SOL    HW260867   2.901  10.964   4.153 -1.0830 -3.0994 -0.3635
18302SOL     OW60868   8.592   9.832  12.189 -0.1698 -0.9239 -0.1282
18302SOL    HW160869   8.675   9.878  12.205 -1.3842  1.1707  0.4780
18302SOL    HW260870   8.616   9.759  12.131  2.2545 -1.0445  0.8948
18303SOL     OW60871   5.450  10.583   0.212  0.2513  0.3137  0.2641
18303SOL    HW160872   5.508  10.570   0.287 -2.0072 -1.3530  1.8545
18303SOL    HW260873   5.394  10.656   0.237  1.0030  1.3399 -0.8916
18304SOL     OW60874   1.494  11.205  10.757 -0.2273  0.0876 -1.0029
18304SOL    HW160875   1.436  11.241  10.825  0.9772 -0.3200  0.3045
18304SOL    HW260876   1.474  11.111  10.757  0.1642  0.0029 -0.8075
18305SOL     OW60877   1.339  12.310   9.741 -0.2441 -0.3207  0.3403
18305SOL    HW160878   1.282  12.276   9.810  0.1718 -0.4595  0.6209
18305SOL    HW260879   1.279  12.351   9.679 -0.5745  0.6025  1.2222
18306SOL     OW60880   4.046   6.157   1.826 -0.0203 -0.4286 -0.2008
18306SOL    HW160881   4.047   6.211   1.905 -0.3691  1.1481 -1.2315
18306SOL    HW260882   4.052   6.219   1.754  0.3684 -1.8352 -1.4338
18307SOL     OW60883   7.633   7.561  10.016  0.3338 -0.1729 -0.3675
18307SOL    HW160884   7.667   7.530  10.101  0.6078  2.3823  0.5385
18307SOL    HW260885   7.543   7.527  10.013  0.4896 -0.7465  0.7123
18308SOL     OW60886   1.586  10.444   5.363 -0.1317  0.1983 -0.2781
18308SOL    HW160887   1.546  10.434   5.449 -0.0181 -0.0844 -0.2599
18308SOL    HW260888   1.519  10.490   5.312 -0.0999  0.5947  0.0315
18309SOL     OW60889   8.131  11.501   6.436 -0.0911  0.0366 -0.0532
18309SOL    HW160890   8.123  11.426   6.377 -0.1471  0.4240 -0.5516
18309SOL    HW260891   8.095  11.471   6.519 -0.1656 -0.4675 -0.2642
18310SOL     OW60892  11.177   2.393   9.170 -0.7484  0.1235  0.2836
18310SOL    HW160893  11.083   2.398   9.151 -0.6522  1.5174  0.0879
18310SOL    HW260894  11.192   2.462   9.235  0.0506 -0.4426  0.7172
18311SOL     OW60895   9.644   7.908   2.746  0.7997 -0.6196 -0.3322
18311SOL    HW160896   9.557   7.907   2.784  0.4711  0.9285 -0.9750
18311SOL    HW260897   9.682   7.991   2.773  2.0531 -1.2124 -0.1539
18312SOL     OW60898   5.148   2.478   6.611  0.6762 -0.1798 -0.1765
18312SOL    HW160899   5.219   2.539   6.624 -0.5331  1.2920 -0.1792
18312SOL    HW260900   5.132   2.479   6.516  0.7787 -0.6659 -0.2039
18313SOL     OW60901   2.128   2.162   0.187  0.2613  0.0020  0.7006
18313SOL    HW160902   2.111   2.256   0.199  0.6700  0.2236 -0.3447
18313SOL    HW260903   2.173   2.156   0.103  1.3855 -1.0091  1.3371
18314SOL     OW60904   9.557   7.034   4.070  0.3303  0.2862 -0.6709
18314SOL    HW160905   9.613   7.042   4.147 -0.5216  2.0238 -0.1622
18314SOL    HW260906   9.522   6.945   4.074  0.4868  0.2648  0.8418
18315SOL     OW60907  10.601  12.141   3.812 -0.4575 -0.1105  0.0466
18315SOL    HW160908  10.598  12.075   3.743  1.2911  0.8241 -0.9971
18315SOL    HW260909  10.510  12.163   3.829 -0.9572 -1.1435 -1.2087
18316SOL     OW60910  11.912   4.498  11.530  0.0508  0.0334  0.3984
18316SOL    HW160911  11.967   4.423  11.548 -1.9916 -1.0722  2.5640
18316SOL    HW260912  11.876   4.482  11.442  1.4159 -0.2711 -0.1340
18317SOL     OW60913  11.370   7.401   3.543 -0.1782 -0.5082 -0.6675
18317SOL    HW160914  11.360   7.309   3.569  0.8614 -0.6687 -0.7912
18317SOL    HW260915  11.447   7.401   3.486  0.6210  0.6488  0.3786
18318SOL     OW60916   2.984  11.968  11.489 -0.0657 -0.2261  0.9224
18318SOL    HW160917   2.936  11.911  11.428 -2.0184  1.3203  0.9184
18318SOL    HW260918   2.993  11.915  11.568  0.5073 -1.4538  0.0726
18319SOL     OW60919  12.111  12.384   9.474 -0.0855 -0.3967 -0.0884
18319SOL    HW160920  12.052  12.338   9.415  0.6237 -3.2114  1.2531
18319SOL    HW260921  12.111  12.332   9.554  2.1437  0.9930  0.9160
18320SOL     OW60922   5.466  11.112   4.952 -0.3336 -0.7535  0.0698
18320SOL    HW160923   5.413  11.190   4.937  0.3124 -0.2919  0.1588
18320SOL    HW260924   5.473  11.072   4.865  3.0681  1.7104 -1.0184
18321SOL     OW60925   3.680   6.405   2.892 -0.2998 -0.4133 -0.8117
18321SOL    HW160926   3.628   6.484   2.875 -1.0120 -0.4540  1.0193
18321SOL    HW260927   3.698   6.407   2.986 -0.2268 -2.3606 -0.7385
18322SOL     OW60928  11.082   4.877   9.319 -0.0238 -0.4170 -0.0594
18322SOL    HW160929  11.110   4.946   9.259 -1.7937  0.8543  0.4795
18322SOL    HW260930  11.140   4.887   9.395  0.9079 -0.7319 -0.7078
18323SOL     OW60931   7.424  10.646   1.356  0.0662  0.4084 -0.1173
18323SOL    HW160932   7.501  10.637   1.413 -0.0438 -0.2805 -0.0605
18323SOL    HW260933   7.418  10.739   1.337  1.1960  0.4141 -0.5098
18324SOL     OW60934   5.715   1.820  11.866 -0.6288 -0.1676 -0.3583
18324SOL    HW160935   5.652   1.815  11.938 -0.2683  1.0241  0.0667
18324SOL    HW260936   5.800   1.830  11.909 -0.2578 -0.7162 -0.9398
18325SOL     OW60937   9.946   1.336   8.367 -0.5960  0.3527  0.0624
18325SOL    HW160938   9.887   1.362   8.438  0.8599  0.2557  1.3879
18325SOL    HW260939   9.997   1.415   8.349 -1.4424  0.5950 -1.4454
18326SOL     OW60940   5.146   5.532  10.887 -0.1936  0.0659 -0.1501
18326SOL    HW160941   5.229   5.487  10.870 -0.7579 -1.2034  0.3290
18326SOL    HW260942   5.080   5.471  10.855 -1.0241  0.1636  1.3065
18327SOL     OW60943   1.364   8.468   4.861 -0.6667 -0.3725  0.5499
18327SOL    HW160944   1.443   8.414   4.865  0.2585  0.9444  0.9932
18327SOL    HW260945   1.312   8.430   4.791  0.7007 -0.8561 -0.2332
18328SOL     OW60946   3.182   7.657   7.737 -0.6369  0.1406 -0.7015
18328SOL    HW160947   3.122   7.642   7.665 -0.1085  1.1139 -1.3673
18328SOL    HW260948   3.269   7.661   7.697 -0.3137  0.5163  0.0027
18329SOL     OW60949  10.015   2.727   2.926 -0.4309  0.1292 -0.5854
18329SOL    HW160950   9.998   2.647   2.877  0.8727 -0.5918  0.0821
18329SOL    HW260951   9.931   2.772   2.929 -0.8779 -0.5546 -2.1268
18330SOL     OW60952   7.589   3.869  10.367  0.0163  0.7273  0.2509
18330SOL    HW160953   7.540   3.932  10.420  0.9652  0.9674  0.8680
18330SOL    HW260954   7.592   3.790  10.422 -0.2172  0.5112 -0.0485
18331SOL     OW60955   6.170   1.150   6.315 -0.0426  0.0500 -0.0245
18331SOL    HW160956   6.173   1.243   6.335  0.9838 -0.4147  2.2378
18331SOL    HW260957   6.131   1.146   6.228 -2.7516  2.4222  0.9255
18332SOL     OW60958  10.379   7.608   6.452  0.1472 -0.2348  0.1781
18332SOL    HW160959  10.310   7.671   6.429  0.4864  0.0636 -0.0196
18332SOL    HW260960  10.336   7.548   6.514 -0.3336 -0.1415 -0.0564
18333SOL     OW60961   0.335   7.760   8.249 -0.4247 -0.0526  0.1803
18333SOL    HW160962   0.260   7.805   8.210  0.8538 -0.3219 -2.8703
18333SOL    HW260963   0.310   7.668   8.251 -0.1395 -0.1593 -0.9594
18334SOL     OW60964  10.320   4.091  11.655 -0.1556  0.6920 -0.0250
18334SOL    HW160965  10.373   4.147  11.712  0.6704  0.0014 -0.1039
18334SOL    HW260966  10.383   4.038  11.607 -0.8726  0.6872 -1.0090
18335SOL     OW60967   3.139   6.644   8.467  0.0863  0.3791  0.0295
18335SOL    HW160968   3.134   6.673   8.558  0.2889  1.1283 -0.1934
18335SOL    HW260969   3.221   6.595   8.462  0.4804  1.0319  0.0574
18336SOL     OW60970   0.095   2.934   7.840 -0.4516 -0.3653 -0.5176
18336SOL    HW160971   0.121   2.988   7.914  0.8829  0.7480 -1.7557
18336SOL    HW260972   0.001   2.952   7.829 -0.5345 -0.1214  0.5442
18337SOL     OW60973   4.652   4.643   2.050  0.5097  0.0560  0.5079
18337SOL    HW160974   4.643   4.548   2.051  0.6927  0.0401  0.9875
18337SOL    HW260975   4.746   4.659   2.060  0.4552  0.2921  0.6459
18338SOL     OW60976   3.059  10.072   0.144  0.4065  0.1158 -0.4316
18338SOL    HW160977   2.982  10.020   0.121 -1.5194  1.7763  1.7816
18338SOL    HW260978   3.084  10.115   0.063 -2.0172  0.7406 -0.9276
18339SOL     OW60979   4.558  11.961   0.386 -0.0235 -0.3226 -0.0544
18339SOL    HW160980   4.640  11.987   0.429  0.2824  1.5915 -1.6927
18339SOL    HW260981   4.578  11.964   0.292 -2.2157  1.0921 -0.5286
18340SOL     OW60982   4.539   9.993   0.831 -0.4508  0.9363  0.1696
18340SOL    HW160983   4.580  10.042   0.760 -0.2739 -0.0637 -0.4315
18340SOL    HW260984   4.503  10.061   0.889  1.6431  1.8432  0.4973
18341SOL     OW60985   7.759  10.175   6.221 -0.0144 -0.4561 -0.4014
18341SOL    HW160986   7.806  10.191   6.139  1.4776  0.2036  0.5353
18341SOL    HW260987   7.693  10.110   6.198 -0.1349  0.2620 -2.2849
18342SOL     OW60988  10.450  11.572   1.774 -0.0171 -0.0166  0.2135
18342SOL    HW160989  10.501  11.528   1.842  0.8090  0.5120 -0.0580
18342SOL    HW260990  10.480  11.662   1.776 -0.4602  0.1493 -0.4131
18343SOL     OW60991   9.211   4.351   7.062  0.5115 -0.1783  0.2712
18343SOL    HW160992   9.191   4.392   6.978  0.5154 -1.5018 -0.4101
18343SOL    HW260993   9.127   4.346   7.108  0.2164 -0.8596 -0.3244
18344SOL     OW60994   1.874   3.440   4.804  0.0034 -0.6082 -0.0261
18344SOL    HW160995   1.860   3.347   4.823  1.6937 -0.9278 -0.2238
18344SOL    HW260996   1.849   3.485   4.885 -2.1712 -1.0710 -0.3786
18345SOL     OW60997   3.597   3.929   4.847 -0.0496  0.1421  0.4241
18345SOL    HW160998   3.505   3.937   4.821  0.5310 -1.1538 -2.4349
18345SOL    HW260999   3.643   3.997   4.797  1.0714 -2.1788 -1.9398
18346SOL     OW61000   7.323   7.283   4.221  0.0938  0.0983 -0.0411
18346SOL    HW161001   7.363   7.209   4.175 -0.0782 -0.3447  0.5147
18346SOL    HW261002   7.398   7.333   4.256  0.2078  0.1689 -0.3815
18347SOL     OW61003   5.873   3.011   7.079  0.5954  0.1187  0.0939
18347SOL    HW161004   5.884   3.053   7.164 -2.3317 -1.1931  1.2832
18347SOL    HW261005   5.881   2.917   7.097  0.4007 -0.1661 -1.1716
18348SOL     OW61006   3.225   6.983   7.753  0.0430  0.4641 -0.0535
18348SOL    HW161007   3.261   6.939   7.676  0.5101  0.7043  0.0226
18348SOL    HW261008   3.238   6.919   7.824 -1.8849 -0.4361 -0.4565
18349SOL     OW61009   5.245   0.776  10.132  0.3555 -0.4183  0.3678
18349SOL    HW161010   5.181   0.815  10.072  0.7396  1.2896  1.0389
18349SOL    HW261011   5.324   0.765  10.078  0.3406  0.0285  0.2480
18350SOL     OW61012   9.529   7.524   6.476  0.2832 -0.3467  0.1670
18350SOL    HW161013   9.551   7.502   6.385  2.6731  0.4600  0.4728
18350SOL    HW261014   9.607   7.499   6.526 -2.3429 -4.6793  2.7761
18351SOL     OW61015   3.910  11.033   3.584 -0.5697  0.5058 -0.1636
18351SOL    HW161016   3.854  10.960   3.558  0.0845 -0.0281 -0.1147
18351SOL    HW261017   3.855  11.088   3.640 -0.4907 -1.0713  1.5850
18352SOL     OW61018   2.604   6.869   3.949  0.2061  0.0269 -0.0541
18352SOL    HW161019   2.596   6.964   3.945  1.6757  0.1395 -0.7903
18352SOL    HW261020   2.671   6.853   4.015  1.5301 -0.3611 -1.4143
18353SOL     OW61021  11.200   4.545   8.762  0.2009 -0.1127  0.3174
18353SOL    HW161022  11.190   4.475   8.698  0.3949 -1.9262  2.1841
18353SOL    HW261023  11.139   4.613   8.733  0.2958 -0.8423 -1.7648
18354SOL     OW61024  10.523   0.731   8.909  0.3168 -0.2049  0.0088
18354SOL    HW161025  10.572   0.813   8.921 -1.9410  1.1505  0.6450
18354SOL    HW261026  10.555   0.695   8.827  0.6528  1.8778 -0.8262
18355SOL     OW61027   5.054  10.345  11.603 -0.5983 -0.2723 -0.4298
18355SOL    HW161028   5.004  10.389  11.534  1.1733 -0.2546 -1.7664
18355SOL    HW261029   5.050  10.252  11.579  0.0024 -0.2673 -0.5529
18356SOL     OW61030   1.080  11.675   7.767  0.4018 -0.0204  0.1395
18356SOL    HW161031   1.168  11.649   7.791  0.8817 -0.5611 -2.0047
18356SOL    HW261032   1.025  11.601   7.793  0.9422 -0.7141 -0.6412
18357SOL     OW61033  10.115  12.431  11.792 -0.4895 -0.1137 -0.2568
18357SOL    HW161034  10.141  12.474  11.710 -1.1878  0.9726  0.0674
18357SOL    HW261035  10.167  12.351  11.795  0.1827  0.2637 -1.3332
18358SOL     OW61036   7.822   1.890   0.794  0.0278 -0.2019 -0.1203
18358SOL    HW161037   7.867   1.924   0.871  0.6424 -0.9587 -0.1387
18358SOL    HW261038   7.890   1.847   0.743 -0.7217 -1.5434 -0.0516
18359SOL     OW61039   0.397  10.451   0.649  0.2374 -0.5117  0.3655
18359SOL    HW161040   0.388  10.492   0.563 -1.3396 -1.6080 -0.0333
18359SOL    HW261041   0.452  10.374   0.632  1.3693  0.2082  0.6918
18360SOL     OW61042   3.676   7.979  11.540  0.0111  0.5541  0.1069
18360SOL    HW161043   3.755   8.017  11.579  0.7488 -0.0195 -0.7942
18360SOL    HW261044   3.684   7.885  11.556 -1.2075  0.6217  1.2558
18361SOL     OW61045   7.870   9.132   9.176  0.0184 -0.1533 -0.2505
18361SOL    HW161046   7.918   9.155   9.256  0.8274  1.2791 -1.1116
18361SOL    HW261047   7.778   9.140   9.200  0.2600  0.7524  0.4210
18362SOL     OW61048   7.930   2.536   5.593  0.1900  0.0680  0.1815
18362SOL    HW161049   7.959   2.507   5.679 -0.0570 -1.7312 -0.3118
18362SOL    HW261050   7.854   2.481   5.573 -0.1902  0.9418 -0.8971
18363SOL     OW61051   1.213   9.649  11.190  0.7362 -0.1251 -0.2321
18363SOL    HW161052   1.210   9.744  11.175  0.2870 -0.1191 -0.1193
18363SOL    HW261053   1.237   9.612  11.105  2.4719  0.1832  0.0911
18364SOL     OW61054   5.399   3.376   6.066  0.0637 -0.0848  0.1600
18364SOL    HW161055   5.446   3.352   5.986 -0.1159 -2.3432  0.6672
18364SOL    HW261056   5.352   3.297   6.091 -0.6770  0.8637  1.9676
18365SOL     OW61057   3.560   4.295   9.972 -0.3979 -0.4400 -0.1520
18365SOL    HW161058   3.528   4.227  10.032  0.7768  0.2471  1.3001
18365SOL    HW261059   3.646   4.263   9.944  0.0077  0.2686  0.2625
18366SOL     OW61060   7.654   1.834   1.582 -0.3033  0.6673 -0.4872
18366SOL    HW161061   7.744   1.865   1.590 -0.7056  1.8604 -0.2870
18366SOL    HW261062   7.655   1.745   1.617  1.0576  0.1661 -1.7459
18367SOL     OW61063   4.029   3.592   6.583 -0.4898 -0.0385 -0.2966
18367SOL    HW161064   4.107   3.555   6.624 -1.1637 -0.7315  0.3813
18367SOL    HW261065   4.064   3.651   6.516  0.6145 -0.4747 -0.1364
18368SOL     OW61066   6.539   4.878   8.709 -0.1394 -0.4217 -0.1033
18368SOL    HW161067   6.545   4.917   8.622 -2.3503 -2.0735 -1.0917
18368SOL    HW261068   6.476   4.933   8.756  0.1029 -0.2566  0.0301
18369SOL     OW61069  11.755   4.407   1.758  0.5110  0.3025 -0.8438
18369SOL    HW161070  11.827   4.441   1.811 -0.8198 -0.7538  1.8067
18369SOL    HW261071  11.793   4.396   1.671  3.1125  1.1676  0.0828
18370SOL     OW61072   5.692  12.448   3.385  0.3860  0.0441  0.7672
18370SOL    HW161073   5.692  12.352   3.390 -1.9610 -0.1060 -0.5789
18370SOL    HW261074   5.660  12.477   3.470 -1.2604 -0.5284  0.3751
18371SOL     OW61075   9.136   7.546   7.648  0.1326 -0.0662 -0.9620
18371SOL    HW161076   9.096   7.487   7.584 -0.0083 -1.1273  0.0579
18371SOL    HW261077   9.229   7.548   7.624  0.0969 -0.5273 -1.1656
18372SOL     OW61078   0.512   0.776   0.255  0.0540  0.6622  0.2146
18372SOL    HW161079   0.600   0.761   0.221 -0.7148 -0.2868 -1.4943
18372SOL    HW261080   0.468   0.828   0.187 -1.1769 -0.2377  0.2896
18373SOL     OW61081   1.182   6.534   0.860 -0.0246  0.5531  0.2534
18373SOL    HW161082   1.268   6.506   0.828  0.3176  1.9073 -0.0813
18373SOL    HW261083   1.181   6.507   0.952 -0.0601 -1.2401 -0.2252
18374SOL     OW61084   2.434   0.812  11.676  0.4871  0.0477  0.2735
18374SOL    HW161085   2.460   0.889  11.725 -0.8318  0.5818  0.1708
18374SOL    HW261086   2.495   0.809  11.601  0.4090  1.1070  0.1628
18375SOL     OW61087  11.054   6.649  10.112  0.3582  0.4469  0.3742
18375SOL    HW161088  11.129   6.708  10.107  0.8298  0.2169  3.2016
18375SOL    HW261089  11.003   6.681  10.187 -0.3811 -1.5930  0.8073
18376SOL     OW61090   5.124   1.004   5.888  0.0932 -0.1868  0.2004
18376SOL    HW161091   5.081   0.926   5.852 -1.7576  0.6184  0.5793
18376SOL    HW261092   5.059   1.074   5.880  1.7709  1.4060 -0.3207
18377SOL     OW61093  11.493  11.366   6.178 -0.3033 -0.3249 -0.2636
18377SOL    HW161094  11.493  11.457   6.149  1.1933 -0.6393 -1.3706
18377SOL    HW261095  11.563  11.361   6.243 -0.1040 -0.7696 -0.5066
18378SOL     OW61096   5.881   1.196   2.730 -0.2149 -0.9672  0.1465
18378SOL    HW161097   5.831   1.212   2.810 -2.7311 -1.6182 -1.1963
18378SOL    HW261098   5.899   1.102   2.731  0.0095 -0.9254  0.0855
18379SOL     OW61099   6.570   0.045  11.495  0.7352  0.2317  0.0940
18379SOL    HW161100   6.544  -0.037  11.452 -3.2467  0.9803  0.6953
18379SOL    HW261101   6.588   0.105  11.422 -2.4371  0.4819 -0.6012
18380SOL     OW61102   0.915   4.311   3.450  0.0037 -0.0701 -0.2664
18380SOL    HW161103   0.927   4.225   3.491  0.5810  0.1986  0.1535
18380SOL    HW261104   0.916   4.373   3.523 -0.6012  0.2773 -0.5501
18381SOL     OW61105   8.310   2.738   8.094  0.3006 -0.1149  0.1944
18381SOL    HW161106   8.352   2.814   8.054 -0.2363 -0.4855 -1.1492
18381SOL    HW261107   8.352   2.729   8.179  2.9140 -0.4541 -1.0471
18382SOL     OW61108   7.566   2.600   8.629 -0.2391  0.2595  0.2382
18382SOL    HW161109   7.615   2.538   8.575  1.5499  1.2221  0.6668
18382SOL    HW261110   7.559   2.559   8.715  1.6017  0.9143  0.7352
18383SOL     OW61111  10.615   3.635   5.032 -0.0920  0.3597 -0.1843
18383SOL    HW161112  10.639   3.545   5.013  1.1434  0.7386 -0.5155
18383SOL    HW261113  10.639   3.683   4.953 -0.4865  1.0184  0.0889
18384SOL     OW61114  11.034   7.250   0.394  0.0692  0.3117 -0.4327
18384SOL    HW161115  11.088   7.207   0.328 -1.0656  1.3185 -2.0990
18384SOL    HW261116  11.023   7.339   0.361  0.6882  1.3330  1.8998
18385SOL     OW61117   9.994   2.339  10.923 -0.1266  0.8201 -0.2740
18385SOL    HW161118   9.939   2.268  10.958 -0.6096  1.1175 -0.4321
18385SOL    HW261119  10.011   2.395  10.998  0.0370  0.6799 -0.2064
18386SOL     OW61120   3.793   8.851  10.367  0.3659  0.0913 -0.3145
18386SOL    HW161121   3.792   8.771  10.315  2.3486  0.4993 -1.0919
18386SOL    HW261122   3.746   8.915  10.314 -0.9474 -0.4496  0.1667
18387SOL     OW61123   1.215   5.259   2.535  0.3621  0.3298  0.4239
18387SOL    HW161124   1.272   5.266   2.458  1.4061  1.4262  1.2613
18387SOL    HW261125   1.193   5.349   2.558  1.9869  0.2214  2.7624
18388SOL     OW61126   5.836   9.504   8.914 -0.0579 -0.8395  0.2615
18388SOL    HW161127   5.883   9.532   8.992 -1.7060 -1.7396  1.6269
18388SOL    HW261128   5.775   9.575   8.895  0.3748 -0.5967 -0.2794
18389SOL     OW61129   3.659   7.908   6.913  0.1314 -0.1080  0.4641
18389SOL    HW161130   3.728   7.849   6.943  0.1515  0.3328  1.3221
18389SOL    HW261131   3.578   7.859   6.928  0.2747 -2.1444 -3.8686
18390SOL     OW61132   1.974   4.437   9.028  0.2405 -0.4434 -0.6389
18390SOL    HW161133   1.961   4.364   9.089  0.2554 -0.0454 -0.1554
18390SOL    HW261134   2.042   4.406   8.968  2.8033  0.4020  1.6298
18391SOL     OW61135  11.293   8.882   8.368 -0.3911  0.2718 -0.1197
18391SOL    HW161136  11.307   8.973   8.395  2.3328 -0.0606 -0.1380
18391SOL    HW261137  11.225   8.886   8.301 -0.1307  2.3345 -0.3062
18392SOL     OW61138   8.274   4.121   9.304 -0.2001 -0.3481  0.2249
18392SOL    HW161139   8.208   4.162   9.360 -0.2071  1.1902 -0.8597
18392SOL    HW261140   8.227   4.101   9.223  0.5343  0.3201 -0.3761
18393SOL     OW61141   3.633   5.886   0.694  0.4067  0.1762 -0.1673
18393SOL    HW161142   3.666   5.965   0.739  2.3687 -1.0661  0.7194
18393SOL    HW261143   3.605   5.829   0.766 -0.7304 -0.0732 -0.7938
18394SOL     OW61144   7.663   2.714   0.323 -0.4514  0.3661  0.2847
18394SOL    HW161145   7.627   2.645   0.268  0.8370 -1.0492  1.1594
18394SOL    HW261146   7.755   2.718   0.300 -0.1343  0.5263  1.5427
18395SOL     OW61147   9.819   5.491   9.872 -0.6548 -0.3708 -0.3037
18395SOL    HW161148   9.728   5.490   9.841 -1.7996  0.8764  2.5820
18395SOL    HW261149   9.817   5.436   9.950  1.0736 -0.2455 -0.1504
18396SOL     OW61150  10.556   8.263   1.363 -0.0611  0.0262 -0.6116
18396SOL    HW161151  10.617   8.207   1.316 -0.0325 -0.4689 -0.0088
18396SOL    HW261152  10.477   8.264   1.309 -0.1804 -0.8854 -0.4598
18397SOL     OW61153   7.596   1.768   6.079 -0.1924 -0.1491 -0.4018
18397SOL    HW161154   7.562   1.833   6.141  0.5022  0.5037 -0.6820
18397SOL    HW261155   7.691   1.785   6.077  0.0111 -1.2657 -0.3907
18398SOL     OW61156   6.236   7.678   5.444 -0.2623  1.0830  0.4942
18398SOL    HW161157   6.259   7.764   5.479 -0.9536  0.0830  3.7401
18398SOL    HW261158   6.299   7.618   5.484 -0.5818 -0.0996 -0.7076
18399SOL     OW61159   6.236   9.531   6.179 -0.2094 -0.1646 -0.1054
18399SOL    HW161160   6.215   9.593   6.248  0.2569  0.2325 -0.3161
18399SOL    HW261161   6.252   9.585   6.102  0.1364 -0.5530 -0.3085
18400SOL     OW61162   8.509   2.059   1.305  0.3124 -0.3098 -0.1604
18400SOL    HW161163   8.420   2.082   1.278  0.3554  0.7523  0.5276
18400SOL    HW261164   8.498   2.004   1.382  0.2475  0.4012  0.3479
18401SOL     OW61165  11.782   4.894   4.352  0.1817 -0.0010  0.0746
18401SOL    HW161166  11.874   4.884   4.329 -0.1261 -2.3904 -0.3794
18401SOL    HW261167  11.783   4.951   4.429  2.0584 -0.1960  0.2468
18402SOL     OW61168   2.325   3.381   6.467  0.1139  0.5020  0.0414
18402SOL    HW161169   2.306   3.361   6.376  1.1656 -0.1818 -0.0530
18402SOL    HW261170   2.240   3.376   6.512 -0.1723 -0.7938 -0.6105
18403SOL     OW61171  10.354   7.728   1.448  0.0827  0.5377 -0.0647
18403SOL    HW161172  10.278   7.711   1.504  0.4378  0.7016  0.4772
18403SOL    HW261173  10.319   7.728   1.359 -0.5664  0.7212  0.1871
18404SOL     OW61174   0.890   0.875  10.647  0.0017 -0.1481  0.4541
18404SOL    HW161175   0.904   0.881  10.741 -0.9821  1.0462  0.5395
18404SOL    HW261176   0.843   0.792  10.635  0.2105 -0.3482  0.9922
18405SOL     OW61177   5.252   7.599  10.480  0.1271  0.7592  0.3562
18405SOL    HW161178   5.162   7.571  10.494  0.2465 -0.3496 -0.9574
18405SOL    HW261179   5.286   7.616  10.568 -0.6136 -1.2122  1.0609
18406SOL     OW61180   0.615   8.356   7.905 -0.0011 -0.0651 -0.1476
18406SOL    HW161181   0.613   8.318   7.817  0.2824 -0.7971  0.1545
18406SOL    HW261182   0.668   8.295   7.956  0.9332  1.0197  0.2301
18407SOL     OW61183   4.865   6.476   1.742  0.6238  0.3317  0.5231
18407SOL    HW161184   4.793   6.535   1.766  0.4391  0.9885 -1.4797
18407SOL    HW261185   4.848   6.454   1.650  1.6354 -1.4996  0.7361
18408SOL     OW61186   4.643   9.599   6.955  0.3775  0.0402 -0.4669
18408SOL    HW161187   4.665   9.692   6.945  2.8256 -0.5394 -1.3668
18408SOL    HW261188   4.659   9.561   6.868 -1.4552 -1.0970 -0.3529
18409SOL     OW61189  11.500   3.516   7.947  0.0850 -0.0596 -0.0042
18409SOL    HW161190  11.594   3.516   7.967 -0.0874 -0.5512  0.8917
18409SOL    HW261191  11.469   3.431   7.981 -0.3266 -0.7912 -2.0629
18410SOL     OW61192  10.630   2.723  10.394  0.4182  0.1801  0.6963
18410SOL    HW161193  10.707   2.679  10.358  0.7934 -0.7658  2.5067
18410SOL    HW261194  10.661   2.809  10.421 -0.2015  1.4828 -2.4052
18411SOL     OW61195   5.374   7.067   2.848  0.1804 -0.3912  0.3538
18411SOL    HW161196   5.306   7.119   2.891 -0.8468 -0.6447 -0.8940
18411SOL    HW261197   5.429   7.036   2.919  0.3486  1.7111  1.2133
18412SOL     OW61198   7.069   5.904   2.922 -0.6418 -0.3797 -0.4362
18412SOL    HW161199   7.107   5.819   2.941 -1.9685 -0.4955  2.0701
18412SOL    HW261200   7.028   5.932   3.004 -2.3379  1.5692 -1.8196
18413SOL     OW61201   9.429  10.423  10.802 -0.4373 -0.5140 -1.0365
18413SOL    HW161202   9.353  10.463  10.843  1.9101  0.8879  2.4244
18413SOL    HW261203   9.429  10.333  10.835 -0.5552 -0.4886 -0.9642
18414SOL     OW61204   4.866   1.350   5.437  0.0516 -0.0079 -0.0919
18414SOL    HW161205   4.789   1.358   5.382 -0.0979  0.4842  0.1837
18414SOL    HW261206   4.880   1.438   5.473 -0.0146 -0.3716  0.8643
18415SOL     OW61207  11.442   6.131   3.382 -0.1262  0.3747 -0.6910
18415SOL    HW161208  11.501   6.064   3.348 -0.9502  0.0209 -1.4696
18415SOL    HW261209  11.379   6.146   3.311 -2.3729 -0.9374  0.8854
18416SOL     OW61210  10.526   5.184  10.834  0.0138 -0.4738 -0.9691
18416SOL    HW161211  10.468   5.108  10.838 -0.4164 -0.0899  0.9700
18416SOL    HW261212  10.467   5.259  10.845  0.4663  0.1655 -2.5513
18417SOL     OW61213  12.215  11.706  11.977 -0.5803  0.0283  0.2525
18417SOL    HW161214  12.287  11.706  12.039 -1.1964 -0.4843  0.9897
18417SOL    HW261215  12.187  11.615  11.972 -0.9333  0.1591 -0.3203
18418SOL     OW61216   1.883   2.152   1.767  0.0806 -0.0358 -0.1548
18418SOL    HW161217   1.880   2.248   1.772 -0.2106 -0.0902  1.1957
18418SOL    HW261218   1.828   2.130   1.692 -2.4690  0.7458  1.3591
18419SOL     OW61219   0.087   0.559   6.359 -0.7802 -0.1317  0.0810
18419SOL    HW161220   0.158   0.545   6.296 -1.1542  0.5294 -0.4913
18419SOL    HW261221   0.099   0.649   6.389 -0.1457 -0.6747  1.5486
18420SOL     OW61222  11.822   4.528   1.138  0.2800  0.2455 -0.3683
18420SOL    HW161223  11.804   4.522   1.044 -0.4819  0.5260 -0.2453
18420SOL    HW261224  11.902   4.581   1.144 -0.2769  1.1513 -0.8095
18421SOL     OW61225   5.132   1.106   0.275  0.5029 -0.5441  0.5160
18421SOL    HW161226   5.128   1.011   0.291 -0.6134 -0.4438  0.8939
18421SOL    HW261227   5.127   1.145   0.362  0.2554 -0.1162  0.3136
18422SOL     OW61228   5.231  11.277  11.233  1.0386  0.7655  0.3790
18422SOL    HW161229   5.290  11.224  11.288 -0.2755 -2.9879 -1.4505
18422SOL    HW261230   5.238  11.237  11.146 -3.1558  0.9331 -0.2019
18423SOL     OW61231  12.083   6.554   6.074 -0.0214 -0.0117  0.4469
18423SOL    HW161232  12.141   6.525   6.003  2.1684  0.7686  1.8043
18423SOL    HW261233  12.043   6.634   6.040  0.1284 -0.2538 -0.3293
18424SOL     OW61234   1.043   5.781   6.309 -0.7495 -0.4853  0.6435
18424SOL    HW161235   1.125   5.733   6.324 -0.7972 -0.5875  0.5766
18424SOL    HW261236   0.974   5.716   6.321 -0.8069 -0.4728  0.3802
18425SOL     OW61237   7.064   7.517   2.686 -0.2261  0.5843  0.1547
18425SOL    HW161238   7.149   7.480   2.663 -0.2575 -0.8521  2.1053
18425SOL    HW261239   7.076   7.554   2.774 -1.3964  1.1655  0.0972
18426SOL     OW61240   3.401  11.110   8.403 -0.2926 -0.1562  0.0040
18426SOL    HW161241   3.477  11.075   8.449  0.3399 -0.5090 -1.2473
18426SOL    HW261242   3.438  11.151   8.324 -1.3753 -0.1084 -0.4961
18427SOL     OW61243   5.325  11.965   9.459 -0.1049 -0.4294  0.3689
18427SOL    HW161244   5.249  12.023   9.455  1.1429  1.2246 -2.3910
18427SOL    HW261245   5.378  12.001   9.530 -0.7738 -0.1098  0.7212
18428SOL     OW61246  10.877   3.465   3.532 -0.1364 -0.1616  0.4257
18428SOL    HW161247  10.846   3.505   3.450 -1.0013 -0.8120  0.4232
18428SOL    HW261248  10.946   3.404   3.504 -0.3344 -0.2798  0.1871
18429SOL     OW61249  11.866   6.624   7.655  0.5719  0.5658 -1.0958
18429SOL    HW161250  11.789   6.595   7.607  0.9205 -0.7447 -0.9112
18429SOL    HW261251  11.848   6.715   7.678 -0.7102  0.4162 -1.4492
18430SOL     OW61252   0.574   6.211   5.193  0.1564  0.0686  0.0090
18430SOL    HW161253   0.664   6.242   5.178  0.1170 -0.0932 -0.5781
18430SOL    HW261254   0.524   6.291   5.209  0.0998  0.2977 -1.2764
18431SOL     OW61255   7.275  11.035  10.054  0.0125  0.5856 -0.0532
18431SOL    HW161256   7.367  11.037  10.081  0.3060  0.0547 -0.9565
18431SOL    HW261257   7.228  11.083  10.122  0.6082 -1.2670  1.7313
18432SOL     OW61258   1.969   8.364   6.969 -0.2737  0.4633  0.0251
18432SOL    HW161259   1.892   8.412   7.000 -1.0586 -0.7685  0.0199
18432SOL    HW261260   1.949   8.272   6.985  0.2857 -0.0458 -1.9272
18433SOL     OW61261   4.932   0.132  11.786 -0.2653  0.4899 -0.2851
18433SOL    HW161262   4.880   0.197  11.738  0.1554  1.1241  0.0974
18433SOL    HW261263   5.006   0.182  11.822  0.2360 -0.2611 -0.2394
18434SOL     OW61264  12.344   7.399   9.890 -0.7838 -0.8171  0.4395
18434SOL    HW161265  12.354   7.325   9.831 -0.6940 -0.0124 -0.6029
18434SOL    HW261266  12.283   7.457   9.844 -0.5335 -0.0629  1.0387
18435SOL     OW61267   2.551  10.306  10.838 -0.0178  0.0884 -0.4052
18435SOL    HW161268   2.550  10.298  10.933 -0.8704 -3.2961 -0.5546
18435SOL    HW261269   2.633  10.264  10.811 -0.1974  0.2331 -1.1979
18436SOL     OW61270   7.809  10.628  11.589  0.1356  0.4821 -0.8016
18436SOL    HW161271   7.872  10.570  11.548 -0.6125 -0.1462 -1.0819
18436SOL    HW261272   7.847  10.649  11.674  0.3179 -0.5974 -0.6083
18437SOL     OW61273   0.060  10.645   2.526  0.0194  0.1648  0.7714
18437SOL    HW161274   0.124  10.658   2.596 -0.2238 -1.8936  1.4393
18437SOL    HW261275   0.112  10.634   2.447  0.4113  0.2116  1.0202
18438SOL     OW61276   0.933   1.574   4.948 -0.3784 -0.2664 -0.1074
18438SOL    HW161277   0.908   1.607   4.862  0.6973  1.3176  0.1356
18438SOL    HW261278   0.907   1.643   5.009 -2.8983 -2.1669  1.1643
18439SOL     OW61279   6.763   3.678   8.814 -0.4731  0.2870  0.5266
18439SOL    HW161280   6.695   3.744   8.823 -1.3793 -0.6572  0.7421
18439SOL    HW261281   6.831   3.721   8.761 -1.2474  1.2080  0.2495
18440SOL     OW61282   1.513   6.781   1.435 -0.1440 -0.2866  0.1203
18440SOL    HW161283   1.530   6.780   1.341 -1.0502 -0.2267 -0.0523
18440SOL    HW261284   1.598   6.763   1.475  0.2832 -0.1347 -0.7022
18441SOL     OW61285  11.398   4.165   8.570 -0.4086  0.7305  0.1034
18441SOL    HW161286  11.345   4.094   8.535 -0.2784  1.4914 -1.7844
18441SOL    HW261287  11.461   4.123   8.627  1.0764 -1.0283 -2.6011
18442SOL     OW61288   9.000   2.650   3.202 -0.5346  0.0380 -0.0202
18442SOL    HW161289   8.945   2.686   3.272  0.7522 -1.1741  1.7226
18442SOL    HW261290   9.088   2.648   3.240  0.1630 -0.9206 -1.5962
18443SOL     OW61291   1.025   3.979   3.218  0.6209  0.2134  0.3223
18443SOL    HW161292   1.011   3.898   3.266 -0.3489  0.1028 -0.1451
18443SOL    HW261293   1.121   3.985   3.210  0.7319 -0.5253  0.9426
18444SOL     OW61294   8.322  10.475   6.729  0.0550  0.1909 -0.0140
18444SOL    HW161295   8.354  10.550   6.780 -2.0040  1.0177  0.1565
18444SOL    HW261296   8.307  10.406   6.794 -0.5131  0.5221  0.2144
18445SOL     OW61297   2.270   1.254  10.296  0.1501  0.5245 -0.5907
18445SOL    HW161298   2.216   1.180  10.325  0.0122  0.6159 -0.6116
18445SOL    HW261299   2.318   1.281  10.374  0.5551  0.1123 -0.6965
18446SOL     OW61300   8.030  11.858   2.875 -0.0234  0.4467  0.3716
18446SOL    HW161301   8.077  11.938   2.900  0.4107  1.0616 -2.0885
18446SOL    HW261302   7.977  11.884   2.799  0.1259 -1.5795 -0.5057
18447SOL     OW61303   6.306   0.762   8.935  0.0598 -0.8197 -0.5270
18447SOL    HW161304   6.293   0.789   9.026  1.5730 -0.0511 -0.5040
18447SOL    HW261305   6.258   0.680   8.927 -2.7292  0.6126  0.0890
18448SOL     OW61306   5.753  12.277   0.234 -0.0432  0.0220 -0.0152
18448SOL    HW161307   5.801  12.249   0.157 -0.3379  0.0790 -0.2233
18448SOL    HW261308   5.792  12.361   0.257 -0.7478  0.5908 -0.8265
18449SOL     OW61309   1.902   8.124   2.016  0.4727  0.7463  0.1354
18449SOL    HW161310   1.921   8.058   2.083 -0.3110 -1.6717 -1.8780
18449SOL    HW261311   1.810   8.108   1.992  0.7437  1.4957 -1.5407
18450SOL     OW61312   3.697   1.907   2.826  0.2859 -0.0656  0.0005
18450SOL    HW161313   3.783   1.874   2.853 -0.0427 -1.1398 -0.2245
18450SOL    HW261314   3.640   1.890   2.901  0.2006  0.3782  0.0380
18451SOL     OW61315  10.192   5.215  11.151 -0.0612  0.4025  0.0690
18451SOL    HW161316  10.193   5.271  11.074  0.2206  1.1545  0.6063
18451SOL    HW261317  10.284   5.204  11.174 -0.0049 -1.5774 -0.9308
18452SOL     OW61318   4.804   8.385   9.926  0.4965  0.0091  0.1030
18452SOL    HW161319   4.756   8.390   9.843  2.4212 -0.2875 -1.0874
18452SOL    HW261320   4.845   8.470   9.936 -0.8964  0.5626  1.5625
18453SOL     OW61321  10.972   9.947   2.429  0.0092 -0.3529 -0.4972
18453SOL    HW161322  10.931   9.891   2.363 -1.5271  2.0398 -1.7323
18453SOL    HW261323  10.922   9.932   2.509 -0.4442 -0.6565 -0.8343
18454SOL     OW61324   0.748   7.542   4.800  0.2081  0.4709  0.4493
18454SOL    HW161325   0.762   7.485   4.725  2.2667  0.9079  0.4259
18454SOL    HW261326   0.655   7.562   4.798  0.2314  0.7184 -2.1819
18455SOL     OW61327   3.666   7.260   0.616  0.9274  0.2923 -0.1927
18455SOL    HW161328   3.661   7.225   0.527 -0.7155  1.6250 -0.6735
18455SOL    HW261329   3.687   7.352   0.605  1.3467  0.3359  0.8478
18456SOL     OW61330   1.585  12.310   1.699  0.4330 -0.8591  0.0103
18456SOL    HW161331   1.561  12.251   1.628 -0.6779 -1.2317  0.6837
18456SOL    HW261332   1.519  12.296   1.766  0.2515  0.9808  0.2827
18457SOL     OW61333   0.628   6.881   4.224 -0.3606 -0.0579 -0.3734
18457SOL    HW161334   0.610   6.789   4.242  1.7912 -0.2128  1.5051
18457SOL    HW261335   0.674   6.881   4.140  2.4442 -1.1796  1.0193
18458SOL     OW61336  11.263   3.524   8.998 -0.1601  0.2352 -0.3305
18458SOL    HW161337  11.188   3.508   8.941  0.1156 -0.2329 -0.5716
18458SOL    HW261338  11.232   3.588   9.062 -1.0505 -0.6142  0.1290
18459SOL     OW61339   7.171   9.451   9.496 -0.0084  0.3862 -0.0110
18459SOL    HW161340   7.096   9.391   9.501  0.6478 -0.5193 -0.8648
18459SOL    HW261341   7.216   9.439   9.580 -0.6141  0.6893  0.3694
18460SOL     OW61342   6.580  11.839   6.120  0.1611  0.1535  0.2561
18460SOL    HW161343   6.607  11.787   6.197 -0.7664 -0.9745 -0.1538
18460SOL    HW261344   6.487  11.821   6.110  0.4217 -0.3831 -1.6161
18461SOL     OW61345   2.904   0.833   2.512  0.6612 -0.4313 -0.5553
18461SOL    HW161346   2.817   0.813   2.547  0.1909  1.6235 -0.4153
18461SOL    HW261347   2.919   0.764   2.447 -0.7681 -1.2300 -0.0990
18462SOL     OW61348   7.389   5.939   1.925 -0.7119 -0.5019 -0.1723
18462SOL    HW161349   7.338   5.994   1.867 -1.1855 -1.2267 -0.4589
18462SOL    HW261350   7.480   5.954   1.899 -0.9364 -1.0500 -1.3130
18463SOL     OW61351  12.181   5.268  11.618  0.3326  0.1923 -0.0050
18463SOL    HW161352  12.103   5.235  11.575  0.5018 -0.7718  0.4007
18463SOL    HW261353  12.208   5.197  11.677  2.7550 -0.4153 -1.6969
18464SOL     OW61354   6.701   1.478   7.307  0.0823  0.0651 -0.8753
18464SOL    HW161355   6.635   1.544   7.327  1.7130  1.5180 -0.0508
18464SOL    HW261356   6.773   1.526   7.267  0.3499 -1.6054 -2.5691
18465SOL     OW61357   9.631  11.194   2.523  0.0122 -0.0766 -0.1789
18465SOL    HW161358   9.680  11.201   2.441  0.4324  0.5195  0.1160
18465SOL    HW261359   9.592  11.107   2.521 -1.4822  0.5638 -1.8522
18466SOL     OW61360   4.146  10.536  11.627 -0.5229 -0.1324 -0.5598
18466SOL    HW161361   4.176  10.481  11.554 -1.4283  0.6627 -1.5573
18466SOL    HW261362   4.057  10.506  11.644  0.4919 -2.0921  2.0081
18467SOL     OW61363   4.987   8.783  12.407 -0.0162 -0.0391  0.6341
18467SOL    HW161364   4.918   8.778  12.340  0.2107 -3.2871  0.4518
18467SOL    HW261365   4.939   8.795  12.489 -0.5852  0.3726  0.2532
18468SOL     OW61366  10.182   7.986   0.014 -0.0402 -0.0165 -0.1176
18468SOL    HW161367  10.191   8.064  -0.041  1.2508  0.3402  0.5479
18468SOL    HW261368  10.191   8.019   0.103 -1.6162 -0.6513  0.3123
18469SOL     OW61369  10.369   2.214   3.419  0.3183 -0.1583  0.2012
18469SOL    HW161370  10.404   2.293   3.379 -1.0091  1.2530  1.6750
18469SOL    HW261371  10.278   2.209   3.388  0.7635 -1.8813 -0.9323
18470SOL     OW61372   7.734   6.825   2.073 -0.0650 -0.0200 -0.4548
18470SOL    HW161373   7.713   6.890   2.006  0.0982  0.3863 -0.1147
18470SOL    HW261374   7.688   6.855   2.151 -0.4585 -0.6290 -0.4485
18471SOL     OW61375   8.054   5.821   9.045 -0.5502 -0.0923  0.3902
18471SOL    HW161376   8.086   5.733   9.067 -1.2866 -0.2941  0.7099
18471SOL    HW261377   8.078   5.833   8.953 -1.0542 -0.9214  0.1392
18472SOL     OW61378   0.571   6.631   4.247 -0.0467 -0.7358  0.1381
18472SOL    HW161379   0.618   6.555   4.210 -0.2425 -1.8508  2.0531
18472SOL    HW261380   0.478   6.606   4.241 -0.2292  0.0781 -0.6796
18473SOL     OW61381   3.733   3.963   2.423  0.1639 -0.3537  0.2502
18473SOL    HW161382   3.694   4.021   2.489 -0.0069  1.9671 -1.7087
18473SOL    HW261383   3.805   3.919   2.467 -1.0302 -0.2546  2.4078
18474SOL     OW61384  10.283  10.420  10.551  0.2708  0.0614 -0.4433
18474SOL    HW161385  10.260  10.511  10.533  0.1762  0.1332  0.0126
18474SOL    HW261386  10.258  10.407  10.643 -0.0824 -0.5416 -0.6185
18475SOL     OW61387   4.782   8.821   3.555  0.0106 -0.2121 -0.4241
18475SOL    HW161388   4.764   8.866   3.472  0.4332 -1.1467 -1.0440
18475SOL    HW261389   4.697   8.816   3.599 -0.1071  0.8597 -0.4931
18476SOL     OW61390   8.197   7.094   1.254 -0.2124  0.5757 -0.3398
18476SOL    HW161391   8.175   7.165   1.193  1.6524  2.1736  0.7319
18476SOL    HW261392   8.285   7.066   1.229  0.4378  0.9905  1.3222
18477SOL     OW61393  12.036   0.322  10.530 -0.2524  0.3307 -0.0110
18477SOL    HW161394  12.017   0.415  10.520  2.0319  0.6853 -2.3673
18477SOL    HW261395  12.012   0.302  10.620 -0.4033  3.3088  0.7182
18478SOL     OW61396   1.989   6.620   3.530  0.4712  0.3155  0.0460
18478SOL    HW161397   1.998   6.570   3.611  0.5475 -0.6911 -0.5625
18478SOL    HW261398   1.904   6.593   3.495  1.0876 -0.3822 -0.9434
18479SOL     OW61399   5.752   2.242  10.433 -0.3010 -0.3690 -0.3130
18479SOL    HW161400   5.659   2.219  10.441 -0.3642  0.3730  1.7802
18479SOL    HW261401   5.798   2.159  10.438 -0.8227 -0.6562 -0.1812
18480SOL     OW61402   6.759   6.898   6.168  0.0047 -0.0447  0.0236
18480SOL    HW161403   6.817   6.860   6.234  0.0744  2.6942  1.7041
18480SOL    HW261404   6.816   6.957   6.119 -0.2988 -1.2437 -1.8526
18481SOL     OW61405   3.725   6.644   6.240  0.1202 -0.3186 -0.2516
18481SOL    HW161406   3.715   6.559   6.198 -0.4538 -0.0879 -0.6031
18481SOL    HW261407   3.762   6.700   6.171  0.8620 -0.3779  0.0943
18482SOL     OW61408  10.982   9.929  12.378 -0.0832  0.2518  0.1128
18482SOL    HW161409  10.976   9.908  12.472  0.5760 -3.4999 -0.5398
18482SOL    HW261410  10.891   9.937  12.350 -0.2888  1.4182  1.0485
18483SOL     OW61411   4.685   2.479   5.569  0.2835  0.0466  0.1422
18483SOL    HW161412   4.627   2.551   5.544  0.0415 -0.2023 -0.0099
18483SOL    HW261413   4.756   2.483   5.505  0.0142 -0.1599 -0.1744
18484SOL     OW61414   6.803   8.300   0.145 -0.2197 -0.0313 -0.3930
18484SOL    HW161415   6.833   8.328   0.232 -0.0519  1.9333 -1.0245
18484SOL    HW261416   6.736   8.234   0.162  1.3151 -1.2747  1.1565
18485SOL     OW61417   2.682   3.595   2.902 -0.0820  0.1459  0.1551
18485SOL    HW161418   2.768   3.618   2.867 -0.9361  0.5488 -1.8312
18485SOL    HW261419   2.676   3.642   2.985  1.5576  0.1818  0.2901
18486SOL     OW61420   8.449   2.228  12.459  0.5252 -0.1820  0.1191
18486SOL    HW161421   8.518   2.267  12.406 -1.0898  1.7262 -0.6894
18486SOL    HW261422   8.385   2.195  12.396 -0.5780  0.4951  0.8531
18487SOL     OW61423   0.479   5.767   2.843 -0.2943 -0.2172 -0.0712
18487SOL    HW161424   0.445   5.747   2.755 -1.3168  0.1482  0.2289
18487SOL    HW261425   0.574   5.759   2.834 -0.4713 -2.5316 -0.6301
18488SOL     OW61426   2.943  11.329   2.382  0.8107  0.0608 -0.0515
18488SOL    HW161427   2.999  11.406   2.394 -0.4716  0.8466  1.2516
18488SOL    HW261428   3.003  11.255   2.388  2.1999  0.9293 -2.1866
18489SOL     OW61429   4.652   5.247  11.710 -0.0167  0.1102  0.3062
18489SOL    HW161430   4.718   5.277  11.647 -0.0797  2.0794  1.1315
18489SOL    HW261431   4.618   5.327  11.750 -0.2487 -1.0597  2.5902
18490SOL     OW61432   2.816   6.560   7.607 -0.2792 -0.4086  0.4718
18490SOL    HW161433   2.881   6.615   7.651 -1.8630  0.9118  1.2653
18490SOL    HW261434   2.740   6.617   7.596 -0.5906 -1.2237 -2.4150
18491SOL     OW61435   6.031  10.231   8.645  0.3892 -0.0240  0.1976
18491SOL    HW161436   6.093  10.202   8.712  0.4591 -0.3882 -0.0235
18491SOL    HW261437   6.067  10.198   8.562  0.7446  1.1317 -0.1219
18492SOL     OW61438   3.320   5.634  11.532 -0.0771 -0.0167  0.5509
18492SOL    HW161439   3.339   5.698  11.463  0.3867 -0.8514 -0.1029
18492SOL    HW261440   3.298   5.688  11.608  1.1763  0.9493  0.2608
18493SOL     OW61441   0.690   1.265  11.883 -0.4584  0.3287 -0.0212
18493SOL    HW161442   0.738   1.188  11.853 -0.6464  0.5538 -0.9253
18493SOL    HW261443   0.737   1.294  11.961  0.2832 -0.0264 -0.3296
18494SOL     OW61444   9.730  11.150  12.335 -0.2112  0.3917 -0.5455
18494SOL    HW161445   9.651  11.101  12.310 -0.1183  0.2933 -0.6446
18494SOL    HW261446   9.779  11.089  12.389 -0.1314  0.4017 -0.6066
18495SOL     OW61447   6.757   3.292  10.797  0.0205  0.0643 -0.4296
18495SOL    HW161448   6.777   3.243  10.717 -0.1202  1.6782 -1.5093
18495SOL    HW261449   6.836   3.345  10.812 -0.0727 -0.0101  0.3419
18496SOL     OW61450   4.401   4.948  11.984 -0.1445  0.2038 -0.6488
18496SOL    HW161451   4.414   4.926  12.076  0.9896 -0.9488 -1.0496
18496SOL    HW261452   4.326   4.894  11.956  1.3463 -1.7658 -1.1017
18497SOL     OW61453   0.310   7.297  11.095 -0.1340 -0.0584 -0.2891
18497SOL    HW161454   0.294   7.329  11.183 -0.0973  0.8949 -0.6128
18497SOL    HW261455   0.404   7.282  11.091 -0.2691 -1.1339  0.1502
18498SOL     OW61456  11.574  11.106   0.042 -0.5205 -0.4614 -0.2270
18498SOL    HW161457  11.660  11.138   0.071 -1.2575  0.1012  1.4581
18498SOL    HW261458  11.586  11.012   0.032 -0.0187 -0.6066  1.3525
18499SOL     OW61459   0.081  11.599  10.673 -0.0782  0.1517  0.0621
18499SOL    HW161460   0.098  11.542  10.599 -0.8428 -0.9645  0.7219
18499SOL    HW261461   0.130  11.561  10.746 -0.4407  0.4423  0.4670
18500SOL     OW61462   1.193  10.427   5.495  0.6581 -0.3290  0.2541
18500SOL    HW161463   1.269  10.372   5.513  0.8045 -0.7165 -1.4293
18500SOL    HW261464   1.168  10.405   5.406 -0.4503  0.9721  0.2155
18501SOL     OW61465   2.131  10.719   5.814  0.2353  0.9622  1.0534
18501SOL    HW161466   2.157  10.691   5.726  0.9742  1.6710  1.0269
18501SOL    HW261467   2.114  10.637   5.861 -2.4892  0.5995 -0.3844
18502SOL     OW61468  12.121  11.880  11.738  0.0470  0.7095  0.1516
18502SOL    HW161469  12.180  11.873  11.814  0.7498  0.4643 -0.3996
18502SOL    HW261470  12.034  11.891  11.776  0.4465  1.0791  0.9930
18503SOL     OW61471   6.685  10.285  10.743  0.4127  0.1626 -0.3823
18503SOL    HW161472   6.622  10.221  10.776 -2.4926  1.9623 -2.0133
18503SOL    HW261473   6.720  10.245  10.663  2.4895 -1.4057  1.2113
18504SOL     OW61474   7.527   4.050   4.905 -0.0872 -0.4517 -0.1639
18504SOL    HW161475   7.613   4.028   4.870  1.0961  1.9673  0.9604
18504SOL    HW261476   7.478   3.968   4.903  2.6269 -2.2149  0.2544
18505SOL     OW61477   4.654   0.565  11.079 -0.2162  0.1974  0.3185
18505SOL    HW161478   4.598   0.639  11.102 -0.0096  0.1073  1.1315
18505SOL    HW261479   4.659   0.568  10.983 -0.1110  1.3114  0.3405
18506SOL     OW61480   7.189   2.841   5.766  0.1226 -0.4226 -0.3950
18506SOL    HW161481   7.149   2.920   5.730  1.3628  0.3539 -0.1483
18506SOL    HW261482   7.260   2.821   5.705  1.9374  0.6200  1.2417
18507SOL     OW61483  10.245   1.944  11.567 -0.0058  0.1611  0.1714
18507SOL    HW161484  10.155   1.945  11.535  0.1877 -2.5149 -0.6738
18507SOL    HW261485  10.269   2.037  11.574 -2.3909  0.9153 -0.7597
18508SOL     OW61486   7.424   9.781   9.106  0.1232 -0.3461 -0.3166
18508SOL    HW161487   7.428   9.852   9.042  1.5121 -0.0841  0.0312
18508SOL    HW261488   7.407   9.825   9.190  2.1506 -0.2539  0.0932
18509SOL     OW61489  10.683  12.220   9.290 -0.1878 -0.5887  0.3713
18509SOL    HW161490  10.716  12.206   9.201  1.3177 -0.5536  0.8996
18509SOL    HW261491  10.674  12.315   9.297  0.8949 -0.4930  0.6460
18510SOL     OW61492   3.163   3.057   0.179 -0.3665  0.2203 -0.1392
18510SOL    HW161493   3.159   3.128   0.115 -0.0948 -0.6205 -1.1091
18510SOL    HW261494   3.097   2.994   0.150 -0.3170 -0.1240  0.4741
18511SOL     OW61495   6.957   8.302   3.514 -0.4355 -0.2416  0.4705
18511SOL    HW161496   6.952   8.212   3.548 -0.7317 -0.5091 -0.2412
18511SOL    HW261497   6.885   8.307   3.451  1.0181 -0.2821 -1.2756
18512SOL     OW61498   5.290   1.739   6.206  0.5611 -0.1063 -0.0335
18512SOL    HW161499   5.299   1.657   6.157  0.3452 -0.6632  0.8332
18512SOL    HW261500   5.354   1.798   6.166  2.4589 -1.4562  0.8417
18513SOL     OW61501   8.995   7.613   2.871  0.1040 -0.1846  0.0646
18513SOL    HW161502   8.909   7.652   2.853  0.1132  0.5791  1.5658
18513SOL    HW261503   9.019   7.570   2.789 -2.8487 -2.6316  0.3037
18514SOL     OW61504  11.956   7.811   7.767 -0.1962  0.1283  0.0555
18514SOL    HW161505  11.964   7.903   7.739  0.5185  0.1190  0.2167
18514SOL    HW261506  11.988   7.810   7.857 -0.0012 -0.3136 -0.0139
18515SOL     OW61507   9.064   1.165  10.175 -0.2922  0.2047 -0.1745
18515SOL    HW161508   9.025   1.251  10.161  0.6585  0.7695  0.5334
18515SOL    HW261509   9.141   1.165  10.117  1.6915  1.2126  2.2939
18516SOL     OW61510   6.572   7.052   2.624 -0.3133 -0.3697  0.0694
18516SOL    HW161511   6.658   7.082   2.653  0.2024 -2.4010  0.7973
18516SOL    HW261512   6.590   6.986   2.557 -1.1592 -2.1680  1.4963
18517SOL     OW61513   7.546  11.925   2.148  0.4026 -0.4787  0.1755
18517SOL    HW161514   7.639  11.905   2.155  0.3879 -1.0255 -1.0042
18517SOL    HW261515   7.512  11.859   2.088 -0.6967 -0.1205  0.3882
18518SOL     OW61516   7.524   8.659   0.579 -0.0800 -0.3226  0.0431
18518SOL    HW161517   7.511   8.730   0.641  0.0813 -1.0834  0.9611
18518SOL    HW261518   7.547   8.583   0.633  0.0448 -1.0017 -0.9381
18519SOL     OW61519   2.273  10.971   5.813 -0.4014  0.7111  0.3130
18519SOL    HW161520   2.264  10.876   5.814  2.0142  0.3918 -0.8987
18519SOL    HW261521   2.250  10.996   5.724  0.4165  1.0584  0.1922
18520SOL     OW61522   9.415   3.175   5.535  0.2863 -0.2056 -0.0171
18520SOL    HW161523   9.386   3.257   5.496 -2.0059 -1.0331 -0.1567
18520SOL    HW261524   9.475   3.138   5.471  1.5018  1.3965  0.1257
18521SOL     OW61525  10.362   1.117   8.941 -0.0006  0.1685  0.1046
18521SOL    HW161526  10.366   1.132   8.847 -0.2461 -0.6531 -0.0417
18521SOL    HW261527  10.423   1.045   8.957 -1.0907 -0.7169  0.3495
18522SOL     OW61528   1.591   4.001   0.944 -0.1562  0.2064 -0.2152
18522SOL    HW161529   1.686   4.015   0.944 -0.5039  3.3317  0.2814
18522SOL    HW261530   1.580   3.909   0.920  2.9678 -0.1858 -0.5558
18523SOL     OW61531   2.316   6.682   7.518 -0.1554  0.1348 -0.0124
18523SOL    HW161532   2.242   6.734   7.550 -0.0779  0.7720 -0.8305
18523SOL    HW261533   2.280   6.634   7.443  0.2431  0.4478 -0.4122
18524SOL     OW61534   5.818   4.728   8.243  0.5170  0.6761 -0.1953
18524SOL    HW161535   5.758   4.757   8.312 -1.0974  1.0588 -1.6670
18524SOL    HW261536   5.905   4.753   8.274 -0.3012  2.2454  1.0080
18525SOL     OW61537  10.191   4.392   7.661  0.1488  0.1374 -0.0291
18525SOL    HW161538  10.176   4.302   7.632 -0.3364  0.2214 -0.0514
18525SOL    HW261539  10.104   4.432   7.661  0.1392  0.1709  1.4468
18526SOL     OW61540   1.277   0.183   8.768 -0.3136  0.3409  0.2221
18526SOL    HW161541   1.246   0.236   8.695 -0.9621  0.3747  0.5217
18526SOL    HW261542   1.203   0.129   8.793 -0.4212  1.0301  1.4903
18527SOL     OW61543   5.563   1.317   8.620 -0.1338  0.0502  0.0844
18527SOL    HW161544   5.516   1.274   8.691 -0.0482 -0.3170 -0.0806
18527SOL    HW261545   5.564   1.410   8.645 -1.2962  0.1218 -0.1098
18528SOL     OW61546  11.161  10.474   6.021  0.6832 -0.0425 -0.0311
18528SOL    HW161547  11.251  10.486   6.051  0.2489  1.9301  0.6134
18528SOL    HW261548  11.108  10.482   6.100 -0.2286  1.4723 -0.7473
18529SOL     OW61549   7.376   7.473  10.028  0.6546 -0.4162  0.0356
18529SOL    HW161550   7.320   7.550  10.022  3.0709  1.3975 -0.7769
18529SOL    HW261551   7.387   7.444   9.937  2.0867  0.1114  0.0195
18530SOL     OW61552   5.555   4.158  12.293  0.4318 -0.5990  0.1049
18530SOL    HW161553   5.602   4.098  12.235  0.7620 -1.0288  0.8112
18530SOL    HW261554   5.561   4.118  12.380  1.2890  0.8147  0.7294
18531SOL     OW61555  12.462   2.874   4.122  0.2056  0.0840  0.0088
18531SOL    HW161556  12.493   2.939   4.059 -1.7454  0.7306 -0.3463
18531SOL    HW261557  12.376   2.905   4.148 -0.5210 -2.0316  0.3020
18532SOL     OW61558   4.523   4.687   2.957  0.0439  0.1576  0.0886
18532SOL    HW161559   4.568   4.679   2.873  0.1917  1.8420 -0.0177
18532SOL    HW261560   4.487   4.600   2.973  0.8312 -0.4443 -1.2469
18533SOL     OW61561  10.265   0.201   5.912  0.5384  0.1893  0.0383
18533SOL    HW161562  10.326   0.130   5.895  0.2659 -0.5931  2.0849
18533SOL    HW261563  10.292   0.271   5.852  0.1149 -1.9365 -2.8961
18534SOL     OW61564   1.433   3.707   0.186 -0.8093  0.2208 -0.0624
18534SOL    HW161565   1.491   3.633   0.168 -0.0333  1.0731 -1.1921
18534SOL    HW261566   1.354   3.667   0.224 -0.1895 -1.1210 -0.1306
18535SOL     OW61567   8.695  12.278   5.210 -0.3920  0.1816 -0.1837
18535SOL    HW161568   8.605  12.295   5.238 -0.2231 -0.3670  0.7522
18535SOL    HW261569   8.686  12.220   5.134 -0.8343 -0.5450  0.4020
18536SOL     OW61570   0.684   8.436   1.206  0.0139  0.1367  0.0534
18536SOL    HW161571   0.729   8.418   1.288  0.3635 -0.3822 -0.2454
18536SOL    HW261572   0.610   8.374   1.205 -0.5624  0.8103  0.4248
18537SOL     OW61573   2.747   1.890   0.267  0.2001 -0.0102  0.1010
18537SOL    HW161574   2.740   1.840   0.348 -2.2261  2.8365  1.8650
18537SOL    HW261575   2.817   1.954   0.285 -0.4913  0.7666  0.0614
18538SOL     OW61576   8.656  12.338   9.142  0.5063 -0.1994 -0.2220
18538SOL    HW161577   8.662  12.430   9.167 -1.8533 -0.8701  3.7335
18538SOL    HW261578   8.724  12.295   9.194 -0.9517 -1.0805  1.0119
18539SOL     OW61579   9.061   0.168   1.589  0.8323  0.6286  0.6387
18539SOL    HW161580   9.107   0.085   1.585  1.1471  0.8274  0.0832
18539SOL    HW261581   9.048   0.194   1.498 -1.2878  0.0886  0.7209
18540SOL     OW61582  11.679   9.511   2.864 -0.3883 -0.8792 -0.5600
18540SOL    HW161583  11.716   9.588   2.821 -0.8323  0.1648  0.8532
18540SOL    HW261584  11.735   9.497   2.941 -0.4893 -1.7932 -0.6415
18541SOL     OW61585   4.447   7.983   9.786  0.3905  0.0432 -0.3341
18541SOL    HW161586   4.354   7.985   9.766  0.2804  3.7819 -0.0946
18541SOL    HW261587   4.451   7.986   9.881  0.6617  1.8993 -0.3705
18542SOL     OW61588   7.498   8.916   8.551  0.1327  0.4129  0.0438
18542SOL    HW161589   7.441   8.857   8.502  0.0672  0.8181 -0.3818
18542SOL    HW261590   7.551   8.859   8.606 -1.5948  0.0997  1.4431
18543SOL     OW61591   9.196  11.271   5.505 -0.1495  0.1465 -0.0130
18543SOL    HW161592   9.117  11.224   5.531 -0.3585 -0.5689 -1.8004
18543SOL    HW261593   9.260  11.251   5.573 -0.4247 -2.2598 -0.3811
18544SOL     OW61594  10.237   3.871   0.598  0.3081 -0.3469 -0.1422
18544SOL    HW161595  10.272   3.959   0.587  0.8878 -0.5541  0.0041
18544SOL    HW261596  10.284   3.818   0.533  0.0387 -0.5632 -0.1601
18545SOL     OW61597   4.274   7.047   6.896 -0.3773  0.1947 -0.0716
18545SOL    HW161598   4.316   6.962   6.888  1.3044  0.9647  0.2132
18545SOL    HW261599   4.224   7.042   6.978 -0.8748 -0.7324 -0.4181
18546SOL     OW61600  11.552   7.003   0.962  0.4009 -0.4273 -0.2164
18546SOL    HW161601  11.540   7.050   0.879  1.9074  2.9037  1.2878
18546SOL    HW261602  11.478   6.942   0.965  1.0772 -1.9001 -4.6280
18547SOL     OW61603   7.275   8.723   0.470 -0.4825 -0.2480 -0.0565
18547SOL    HW161604   7.223   8.745   0.548 -1.6009 -1.4829 -0.4200
18547SOL    HW261605   7.352   8.678   0.505  0.2988  1.4147  0.4737
18548SOL     OW61606   9.084   9.642   8.960 -0.2178 -0.4949 -0.6049
18548SOL    HW161607   9.126   9.558   8.945 -0.5428 -0.6115 -0.8844
18548SOL    HW261608   9.012   9.645   8.897 -0.5370 -0.2389 -0.2377
18549SOL     OW61609   8.734   9.287  10.380  0.4774 -0.1787  0.9031
18549SOL    HW161610   8.689   9.366  10.350 -0.3892 -1.3508 -1.1051
18549SOL    HW261611   8.668   9.239  10.430 -0.8457 -2.0575 -2.3193
18550SOL     OW61612   6.025   9.611   1.771 -0.0451 -0.6349  0.0503
18550SOL    HW161613   6.076   9.560   1.709  0.4878 -1.0296  0.7994
18550SOL    HW261614   5.962   9.548   1.808  0.0921 -0.5688  0.4017
18551SOL     OW61615   0.193   5.453   8.489  0.5510 -0.2664  0.2625
18551SOL    HW161616   0.254   5.393   8.447 -1.3252 -1.1593 -1.3840
18551SOL    HW261617   0.176   5.521   8.424  0.4017  0.4133  0.9958
18552SOL     OW61618   3.092   2.028   9.872 -0.4251  0.6666 -0.1396
18552SOL    HW161619   3.033   2.063   9.806 -1.0831  0.7816  0.5020
18552SOL    HW261620   3.041   1.960   9.916 -1.2437  2.8036  2.4956
18553SOL     OW61621   5.296   5.984  11.720 -0.5830  0.1327  0.6444
18553SOL    HW161622   5.381   6.024  11.702 -0.1190 -0.7598  0.8301
18553SOL    HW261623   5.246   6.054  11.762  0.4516  0.3321  1.5946
18554SOL     OW61624   2.808   1.357  10.550 -0.1806  0.0810  0.3445
18554SOL    HW161625   2.803   1.270  10.510  0.7139  0.0718  0.2311
18554SOL    HW261626   2.728   1.364  10.601 -0.0364 -1.0200  0.7574
18555SOL     OW61627   8.836   2.557   9.794  0.1797  0.0900 -0.5042
18555SOL    HW161628   8.832   2.588   9.704  0.3493 -1.1637 -0.9724
18555SOL    HW261629   8.789   2.473   9.792  1.8875 -0.9381  0.1231
18556SOL     OW61630  11.680   9.159  11.615  0.3052 -0.5737  0.9356
18556SOL    HW161631  11.769   9.135  11.643  0.4919  0.3025  1.1236
18556SOL    HW261632  11.662   9.101  11.541  0.8365 -1.1068  1.2162
18557SOL     OW61633   8.754  10.453   5.250  0.1095  0.6441 -0.4579
18557SOL    HW161634   8.785  10.364   5.266 -0.0669  0.7703  0.7139
18557SOL    HW261635   8.767  10.467   5.156 -0.4474 -0.8220 -0.7775
18558SOL     OW61636   5.975  10.787   4.685 -0.1205 -0.3236  0.0621
18558SOL    HW161637   6.047  10.811   4.626  3.6143  0.7786  4.4957
18558SOL    HW261638   5.959  10.694   4.666  0.5711  0.0520 -2.8181
18559SOL     OW61639   4.126   9.823   3.394  0.0339  0.0955 -0.2520
18559SOL    HW161640   4.040   9.842   3.356  1.0114  1.0594 -2.1702
18559SOL    HW261641   4.164   9.909   3.411  1.1745 -0.2777 -0.8174
18560SOL     OW61642  11.846   1.528   0.929  0.0120 -0.5069  0.5419
18560SOL    HW161643  11.898   1.455   0.896  0.8005 -0.3596  1.3938
18560SOL    HW261644  11.872   1.535   1.021  0.0894  0.9716  0.4214
18561SOL     OW61645   7.620   2.981   1.261 -0.1728  0.5231 -0.2312
18561SOL    HW161646   7.691   2.994   1.324  1.5609 -0.8815 -1.7691
18561SOL    HW261647   7.657   3.014   1.178 -1.1633 -0.6237 -1.1493
18562SOL     OW61648   1.321   5.966   0.582 -0.4786 -0.0784 -0.0378
18562SOL    HW161649   1.252   5.906   0.608  0.1951  0.1271  2.4590
18562SOL    HW261650   1.275   6.044   0.551 -1.3871 -0.0965  1.1932
18563SOL     OW61651   3.780   6.100  11.697 -0.3245  0.0084 -0.6233
18563SOL    HW161652   3.768   6.086  11.791  0.0690  0.4420 -0.5071
18563SOL    HW261653   3.710   6.161  11.672 -0.7035 -0.4555 -0.7019
18564SOL     OW61654   5.781   2.125   3.355  0.4352 -0.2291  0.5730
18564SOL    HW161655   5.698   2.093   3.390  0.3303 -2.5778 -1.4990
18564SOL    HW261656   5.846   2.100   3.421 -0.2260 -0.6819  1.0721
18565SOL     OW61657   9.516   7.060  10.195  0.8081 -0.1554 -0.2705
18565SOL    HW161658   9.447   7.104  10.244 -0.2760  0.9505 -2.6346
18565SOL    HW261659   9.585   7.127  10.186  0.4958  0.0529 -1.2094
18566SOL     OW61660  11.393   5.421   8.398  0.4064  0.4011  0.1455
18566SOL    HW161661  11.367   5.333   8.371  0.3766 -0.1583  1.8590
18566SOL    HW261662  11.314   5.459   8.437 -0.4926  2.4212 -3.2798
18567SOL     OW61663   9.221  11.494  10.105 -0.2998  0.2845 -0.2942
18567SOL    HW161664   9.149  11.549  10.075  0.4482  1.2528 -0.3404
18567SOL    HW261665   9.285  11.555  10.141 -0.0571 -0.6617  0.9321
18568SOL     OW61666  10.627  10.392   6.798  0.5128  0.3258  0.4419
18568SOL    HW161667  10.666  10.390   6.711 -0.1503  2.2630  0.0643
18568SOL    HW261668  10.701  10.404   6.857  0.9806 -1.1361  0.2042
18569SOL     OW61669  12.073  12.051   4.932  0.5363  0.0762  0.2240
18569SOL    HW161670  12.010  12.121   4.946 -0.5960 -1.3914  3.5504
18569SOL    HW261671  12.019  11.973   4.915  1.3532 -1.0419  2.2975
18570SOL     OW61672   9.809   5.538   0.878 -0.2284  0.3167 -0.1199
18570SOL    HW161673   9.802   5.628   0.847 -1.4166  0.5270  0.7163
18570SOL    HW261674   9.895   5.534   0.921 -0.5475  1.3022  0.6313
18571SOL     OW61675  11.281  12.482   1.626  0.2325  0.5781 -0.3041
18571SOL    HW161676  11.288  12.393   1.661 -0.7334 -0.0500 -1.6085
18571SOL    HW261677  11.365  12.523   1.646  1.3188 -1.1560 -1.0539
18572SOL     OW61678   7.061   7.362  10.790 -0.0074  1.0247 -0.0225
18572SOL    HW161679   7.085   7.326  10.875  1.0688  0.9261 -0.3500
18572SOL    HW261680   7.124   7.324  10.729 -0.7536  1.1062 -0.8661
18573SOL     OW61681   5.789   4.005   3.474 -0.9089 -0.3100 -0.0200
18573SOL    HW161682   5.719   3.989   3.537 -0.8633 -0.3495  0.0205
18573SOL    HW261683   5.861   3.950   3.504 -1.6660 -2.1811 -1.4377
18574SOL     OW61684  10.298   3.299  11.709 -0.3038  0.6368  0.0231
18574SOL    HW161685  10.281   3.394  11.705 -2.0593  0.3641  0.2233
18574SOL    HW261686  10.225   3.264  11.760  0.7008 -0.7595  0.5456
18575SOL     OW61687   1.328  11.709  10.938 -0.1525 -0.6655  0.5024
18575SOL    HW161688   1.335  11.784  10.880 -0.1875 -0.2453  1.0318
18575SOL    HW261689   1.415  11.702  10.979  0.2372 -1.6573 -0.4271
18576SOL     OW61690  10.585   9.512   2.071 -0.3819  0.1212 -1.1644
18576SOL    HW161691  10.579   9.578   2.002 -1.1250 -0.9292 -2.1443
18576SOL    HW261692  10.647   9.448   2.036  0.6735  0.5032 -0.0342
18577SOL     OW61693   5.693  11.459  12.132  0.1982 -0.5943  0.0593
18577SOL    HW161694   5.704  11.366  12.111  1.7800 -0.7719  1.4135
18577SOL    HW261695   5.616  11.462  12.189 -1.2915 -0.7088 -1.8461
18578SOL     OW61696   8.218   2.965   0.267 -0.4586  0.0239  0.5010
18578SOL    HW161697   8.172   3.008   0.195  1.4115 -0.8057 -1.2815
18578SOL    HW261698   8.169   2.884   0.282 -0.2570 -0.2998 -0.5636
18579SOL     OW61699   0.125   3.312   6.480  0.0994  0.4339  1.1215
18579SOL    HW161700   0.062   3.312   6.552 -2.4277 -3.5311 -0.7177
18579SOL    HW261701   0.084   3.365   6.412 -0.3444 -0.5155  0.6311
18580SOL     OW61702  11.901   6.777   8.168  0.0271 -0.4270 -0.2569
18580SOL    HW161703  11.859   6.693   8.148  0.4277 -0.7333  0.1479
18580SOL    HW261704  11.912   6.819   8.083  1.3487 -1.5303 -0.6713
18581SOL     OW61705   8.457   9.136   5.687  0.4359 -0.0458  0.8163
18581SOL    HW161706   8.534   9.082   5.702  0.1545 -0.2674  1.4938
18581SOL    HW261707   8.384   9.084   5.721  0.3051  1.3127  2.7426
18582SOL     OW61708   2.512   4.770  10.531  0.4998  0.2782  0.7445
18582SOL    HW161709   2.537   4.860  10.510  0.3205  0.0722 -0.3797
18582SOL    HW261710   2.512   4.768  10.627  3.2154  0.7256  0.8433
18583SOL     OW61711   9.853   6.921   0.772  0.2012  0.3682  0.3302
18583SOL    HW161712   9.852   6.862   0.847  0.5441  0.3355  0.3108
18583SOL    HW261713   9.764   6.916   0.736  0.3676 -0.5179  0.0276
18584SOL     OW61714   1.574   9.994   1.940  0.2922  0.0747  0.4530
18584SOL    HW161715   1.578   9.899   1.942 -1.1429 -0.0146  2.3907
18584SOL    HW261716   1.627  10.021   2.016 -0.0305  0.7642  0.4404
18585SOL     OW61717   5.145   9.700   8.046  0.0942  0.2261 -0.0700
18585SOL    HW161718   5.084   9.767   8.078 -2.2734 -0.7733 -2.1678
18585SOL    HW261719   5.097   9.618   8.055  2.3206 -1.0579  0.9071
18586SOL     OW61720   4.555   0.788   9.814 -0.3471 -0.0006 -0.2780
18586SOL    HW161721   4.559   0.716   9.877 -1.3154 -0.8459 -1.1391
18586SOL    HW261722   4.586   0.749   9.732 -0.7703  0.5923 -0.7242
18587SOL     OW61723   6.378  11.538   0.462 -0.6722  0.0470  0.4539
18587SOL    HW161724   6.291  11.508   0.434 -0.9931  1.8928 -0.7519
18587SOL    HW261725   6.360  11.598   0.534 -0.4233  0.4203  0.2116
18588SOL     OW61726  10.010  11.278   9.291  0.4432  0.5205 -0.2157
18588SOL    HW161727   9.979  11.369   9.298  0.6592  0.6374 -0.6904
18588SOL    HW261728  10.052  11.274   9.205  0.8232  0.0844 -0.0143
18589SOL     OW61729   5.601   8.709   4.772 -0.2956 -0.3965 -0.1204
18589SOL    HW161730   5.527   8.672   4.723 -0.5999  0.3415 -0.2206
18589SOL    HW261731   5.565   8.786   4.815 -0.3603 -1.6759  2.2647
18590SOL     OW61732   5.691   9.693   5.667 -0.2303  0.2512 -0.0338
18590SOL    HW161733   5.684   9.623   5.733 -0.8181  0.2460 -0.0960
18590SOL    HW261734   5.744   9.655   5.597  1.9757  0.8581  1.2051
18591SOL     OW61735   0.784   3.337  11.126  0.4089 -0.9635 -0.2288
18591SOL    HW161736   0.698   3.295  11.128  0.3245 -0.9077 -1.7453
18591SOL    HW261737   0.801   3.354  11.033  0.8373  1.5440  0.2214
18592SOL     OW61738   5.827   4.349   5.443  0.2595 -0.4962  0.0423
18592SOL    HW161739   5.809   4.423   5.502  0.3110  0.1933 -0.7851
18592SOL    HW261740   5.742   4.327   5.405 -0.1388 -2.2040  1.7665
18593SOL     OW61741   2.961   7.426  11.933 -0.2595 -0.0611 -0.1079
18593SOL    HW161742   2.957   7.507  11.985 -0.4512  0.2543 -0.6068
18593SOL    HW261743   2.922   7.359  11.989  1.4312 -0.1877  1.0003
18594SOL     OW61744   6.059   8.607   2.006  0.2260 -0.2142  0.0923
18594SOL    HW161745   6.046   8.701   1.989 -1.5924 -0.7962 -2.2554
18594SOL    HW261746   6.127   8.581   1.944  0.2386 -0.5736  0.2609
18595SOL     OW61747   5.415   8.307   0.557 -0.1160  0.1737 -0.2630
18595SOL    HW161748   5.489   8.314   0.498  0.5624  0.5320  0.6103
18595SOL    HW261749   5.451   8.325   0.644 -0.9564 -0.9763  0.3546
18596SOL     OW61750   3.538   2.126  11.893 -0.1693  0.4625  0.0649
18596SOL    HW161751   3.618   2.102  11.940 -0.5072 -2.9869 -0.8326
18596SOL    HW261752   3.561   2.205  11.845  2.4395  0.0789  0.5122
18597SOL     OW61753  10.248  12.188   0.566  0.3046 -0.3404 -0.2780
18597SOL    HW161754  10.338  12.221   0.571  0.5002 -0.9535  0.4039
18597SOL    HW261755  10.233  12.172   0.473  1.0293 -0.5809 -0.3580
18598SOL     OW61756   4.777   5.458   3.589 -0.6574 -0.4087  0.6230
18598SOL    HW161757   4.841   5.436   3.522 -0.2883 -1.8792  1.4098
18598SOL    HW261758   4.692   5.445   3.547 -0.5393  2.2682 -0.6626
18599SOL     OW61759   2.412   5.259   2.140 -0.6368 -0.1242 -0.4734
18599SOL    HW161760   2.405   5.350   2.169 -1.6365 -0.6931  1.2105
18599SOL    HW261761   2.505   5.237   2.153 -0.5866  0.3670  0.0376
18600SOL     OW61762   4.483   9.978   6.280 -0.2076 -0.5184 -0.1588
18600SOL    HW161763   4.483   9.894   6.233 -0.3674 -0.7928  0.3241
18600SOL    HW261764   4.402   9.977   6.330  0.6016 -0.8618  1.2094
18601SOL     OW61765   3.940   6.311   3.775  0.1702 -0.0782  0.2759
18601SOL    HW161766   4.033   6.327   3.761  0.5640 -2.8582 -0.8131
18601SOL    HW261767   3.895   6.375   3.720  1.3964  1.1497  0.6549
18602SOL     OW61768   7.231   3.082   1.703 -0.5067  0.0318 -0.3289
18602SOL    HW161769   7.199   3.090   1.613 -0.5066 -1.5871 -0.5021
18602SOL    HW261770   7.188   3.154   1.750 -1.4845  0.1541 -1.3554
18603SOL     OW61771   1.062   0.410   6.613 -0.6419  0.0902  0.2039
18603SOL    HW161772   1.127   0.477   6.633  0.1714 -0.9118  0.9553
18603SOL    HW261773   1.064   0.350   6.688 -0.0307 -1.8070 -1.2535
18604SOL     OW61774   9.103   5.006   9.321 -0.3023  0.1737 -0.5552
18604SOL    HW161775   9.023   4.957   9.340 -1.1949  1.1067 -1.7377
18604SOL    HW261776   9.117   5.059   9.399  0.4746 -1.6211  0.5927
18605SOL     OW61777   8.606   6.896   4.128  0.1231 -0.7954  0.4810
18605SOL    HW161778   8.526   6.848   4.108  0.4093 -1.2411  0.4056
18605SOL    HW261779   8.674   6.852   4.078  0.8703 -1.9247  2.4053
18606SOL     OW61780   5.704   4.313   9.033 -0.0518  0.6433  0.0326
18606SOL    HW161781   5.782   4.362   9.008 -0.4934  0.3150 -2.1940
18606SOL    HW261782   5.728   4.269   9.114  2.1415  0.4524 -0.6473
18607SOL     OW61783  12.223   1.055   8.540  0.5487 -0.0243 -0.3162
18607SOL    HW161784  12.240   1.146   8.562 -0.2615  0.0653 -0.0179
18607SOL    HW261785  12.255   1.046   8.450  2.2114  0.0865  0.2250
18608SOL     OW61786  10.828   4.489  11.237  0.0548 -0.1587  0.0989
18608SOL    HW161787  10.840   4.565  11.294 -0.6602  0.3137 -0.3615
18608SOL    HW261788  10.808   4.526  11.151 -2.3754 -0.8147  0.2946
18609SOL     OW61789   9.687   1.060   9.014  0.1546  0.3347  0.4793
18609SOL    HW161790   9.595   1.036   9.022 -0.0302  0.6400 -0.5716
18609SOL    HW261791   9.690   1.117   8.937  1.5395 -1.4103 -0.8475
18610SOL     OW61792   3.916  10.339   0.037  0.1698 -0.9467  0.1013
18610SOL    HW161793   3.849  10.272   0.025 -0.5240 -0.1467 -0.7279
18610SOL    HW261794   3.872  10.420   0.010  1.0617 -0.2053  0.8248
18611SOL     OW61795   1.548   7.612   7.272 -0.5700  0.1129 -0.0091
18611SOL    HW161796   1.617   7.675   7.251 -0.3619  0.4486  1.5447
18611SOL    HW261797   1.471   7.644   7.224 -0.3002  1.1940  0.2459
18612SOL     OW61798  11.083   4.270  11.842 -0.2743  0.1346 -0.7088
18612SOL    HW161799  11.155   4.327  11.817  0.6875 -0.7388 -0.0267
18612SOL    HW261800  11.015   4.287  11.776  0.3119  1.3982 -1.0238
18613SOL     OW61801   2.514   9.252  12.441  0.0563  0.0857 -0.0883
18613SOL    HW161802   2.450   9.263  12.511 -0.4181  0.9049 -0.6407
18613SOL    HW261803   2.591   9.302  12.471  0.6629 -1.3083  0.8063
18614SOL     OW61804   4.077   4.730   1.948  0.1211  0.5349 -0.0488
18614SOL    HW161805   4.031   4.765   2.025  1.5331  1.8061  0.2703
18614SOL    HW261806   4.166   4.766   1.956  1.4265 -2.4069 -0.2285
18615SOL     OW61807   3.931   7.718   8.748  0.1986 -0.1986 -0.6196
18615SOL    HW161808   3.944   7.676   8.663 -0.4413  0.1744 -0.9057
18615SOL    HW261809   4.020   7.733   8.780  0.4540 -1.5061 -0.6318
18616SOL     OW61810  10.572   5.070   7.573  0.3767 -0.2976 -0.5683
18616SOL    HW161811  10.516   5.046   7.647  1.5503  1.5307  0.9831
18616SOL    HW261812  10.526   5.142   7.530  0.6350 -0.0508 -0.4319
18617SOL     OW61813  10.880   0.412   0.527 -0.4495 -0.1087  0.1325
18617SOL    HW161814  10.920   0.427   0.442  0.2489  0.2830  0.5205
18617SOL    HW261815  10.941   0.355   0.573 -0.5631  0.1133  0.5632
18618SOL     OW61816   0.046   6.790  12.305  0.3380 -0.1161  0.6582
18618SOL    HW161817   0.019   6.707  12.343  1.6721 -0.6707  0.4738
18618SOL    HW261818   0.094   6.835  12.375 -0.7506  0.7147  0.8975
18619SOL     OW61819   3.777   6.777   5.993 -0.4576 -0.3737 -0.3635
18619SOL    HW161820   3.713   6.848   5.991 -2.3064 -1.9548  0.2308
18619SOL    HW261821   3.850   6.809   5.938 -0.3149  2.7244  1.4325
18620SOL     OW61822   1.005  10.395   4.363  0.0536 -0.2930  0.6180
18620SOL    HW161823   1.048  10.364   4.283  0.6098  0.0670  0.7708
18620SOL    HW261824   1.042  10.482   4.378 -0.3836 -0.1690  1.0203
18621SOL     OW61825   5.564   4.635   4.739  0.0265  0.1892 -0.1902
18621SOL    HW161826   5.591   4.709   4.793  0.1143 -0.1376  0.2160
18621SOL    HW261827   5.502   4.587   4.793  0.5004 -0.4224 -0.1787
18622SOL     OW61828   6.340   8.377   1.681  0.2877 -0.3010  0.1542
18622SOL    HW161829   6.379   8.311   1.739  0.4434  1.3019  1.9757
18622SOL    HW261830   6.248   8.352   1.674 -0.1619  0.3797  2.5881
18623SOL     OW61831   2.188   9.832   3.746 -0.0749  0.3281  0.4567
18623SOL    HW161832   2.098   9.802   3.759  0.3517 -0.3469  2.0315
18623SOL    HW261833   2.179   9.921   3.711 -1.3595 -1.2174 -3.7216
18624SOL     OW61834   7.066   9.943   1.525 -0.4533  0.7328  0.8658
18624SOL    HW161835   7.138   9.926   1.465  0.1495  0.0192  1.7549
18624SOL    HW261836   7.098  10.013   1.582 -1.2751  1.8775 -0.0387
18625SOL     OW61837   9.542   6.509  12.479  0.1322 -0.2513  0.1493
18625SOL    HW161838   9.480   6.519  12.407  3.4051  2.3407 -2.6474
18625SOL    HW261839   9.535   6.591  12.529  0.6884 -0.2795  0.2902
18626SOL     OW61840   9.291   0.361   3.328 -0.5471 -0.5535 -0.2212
18626SOL    HW161841   9.247   0.374   3.412 -2.6806 -1.7077 -1.0699
18626SOL    HW261842   9.304   0.449   3.294 -0.3308 -0.1024  0.9680
18627SOL     OW61843  10.394   0.644   4.093  0.4618  0.5004  0.0378
18627SOL    HW161844  10.407   0.705   4.020  0.8636 -0.6124 -0.8413
18627SOL    HW261845  10.344   0.571   4.055 -1.5391  1.0242  1.4690
18628SOL     OW61846   7.450  10.223  10.760 -0.5789 -0.0717 -0.0590
18628SOL    HW161847   7.483  10.136  10.780 -1.2404 -0.0307  1.3538
18628SOL    HW261848   7.489  10.245  10.676 -0.3983 -1.7208 -0.4344
18629SOL     OW61849   8.074   8.359   2.050  0.1316  0.0117 -0.0236
18629SOL    HW161850   8.147   8.379   2.109  2.1349 -0.7395 -2.0609
18629SOL    HW261851   8.105   8.389   1.964 -1.7736 -0.8275 -1.0559
18630SOL     OW61852   0.439   5.184   6.228 -0.2597  0.0534 -0.0004
18630SOL    HW161853   0.397   5.176   6.314  1.3148 -1.1408  0.7156
18630SOL    HW261854   0.436   5.278   6.209  0.0575  0.4595  1.7628
18631SOL     OW61855   5.663  11.986   9.358  0.2129 -0.2699  0.1608
18631SOL    HW161856   5.756  11.970   9.339  0.1806 -1.7211  1.0682
18631SOL    HW261857   5.660  12.077   9.387  1.2745 -0.0585 -0.3386
18632SOL     OW61858   3.705   6.421   4.390  0.4143  0.1029 -0.2535
18632SOL    HW161859   3.671   6.505   4.358 -0.3207 -0.6092 -1.3911
18632SOL    HW261860   3.650   6.402   4.467  0.4640  0.5695 -0.0969
18633SOL     OW61861   1.542   1.914   6.822  0.6624 -0.5283  0.1990
18633SOL    HW161862   1.607   1.846   6.801  0.3563 -0.6254 -0.4656
18633SOL    HW261863   1.510   1.943   6.736 -0.3250 -0.6237  0.5304
18634SOL     OW61864   3.918   2.563   5.191 -0.1329 -0.2690  0.0836
18634SOL    HW161865   3.970   2.493   5.150  0.0413 -1.0421  1.5222
18634SOL    HW261866   3.907   2.629   5.123 -0.3347 -1.7174 -1.3450
18635SOL     OW61867   5.045   6.606   9.757  0.1140  0.2346  0.4982
18635SOL    HW161868   5.026   6.512   9.756 -1.1497  0.4826 -0.1251
18635SOL    HW261869   5.064   6.625   9.849 -0.5543 -0.4506  0.7863
18636SOL     OW61870  12.205   6.789   5.074 -0.3791  0.0679 -0.5586
18636SOL    HW161871  12.225   6.821   5.163  0.0594  0.2054 -0.7081
18636SOL    HW261872  12.123   6.740   5.085  0.0981 -0.5982  0.0642
18637SOL     OW61873   4.775   0.034   2.414 -0.4858  0.6974 -0.7293
18637SOL    HW161874   4.703   0.084   2.376  0.1080  0.2650 -2.5451
18637SOL    HW261875   4.850   0.093   2.409 -0.4378  0.7031 -0.0056
18638SOL     OW61876  11.275   9.962  10.674  0.9109  0.0105 -0.0036
18638SOL    HW161877  11.351   9.992  10.624  1.2491 -2.0008 -0.7524
18638SOL    HW261878  11.221   9.915  10.611 -0.1432 -0.0188  0.8961
18639SOL     OW61879  11.047   7.735   1.076 -0.2877 -0.1245  0.2720
18639SOL    HW161880  11.101   7.656   1.064 -1.3293 -0.8568  0.3038
18639SOL    HW261881  10.992   7.738   0.998  1.6546  2.1589 -1.1166
18640SOL     OW61882   6.294   3.253   7.496 -0.0959  0.7750  0.1424
18640SOL    HW161883   6.341   3.323   7.451  0.1907  0.1458 -0.5741
18640SOL    HW261884   6.358   3.219   7.559 -0.5963  1.8525  1.2581
18641SOL     OW61885   9.822  10.923  12.458  0.2548 -0.6687 -0.1804
18641SOL    HW161886   9.830  10.857  12.389 -0.3847  0.5528 -1.4594
18641SOL    HW261887   9.728  10.934  12.470  0.3362  0.6994 -0.6708
18642SOL     OW61888  10.862   6.880   7.745  0.8381 -0.2775 -0.0168
18642SOL    HW161889  10.875   6.972   7.721  0.0663 -0.4063 -0.9934
18642SOL    HW261890  10.767   6.868   7.742  0.9846 -1.4273 -1.2007
18643SOL     OW61891  11.841   9.995  11.203  0.2845 -0.3989 -0.2330
18643SOL    HW161892  11.919  10.031  11.160  0.3961 -2.6611 -2.1200
18643SOL    HW261893  11.866   9.986  11.295  2.0253 -0.5039 -0.6893
18644SOL     OW61894  11.927  10.089   5.987 -0.7732 -0.1705 -0.0055
18644SOL    HW161895  11.901  10.068   5.898  0.5370 -0.8612 -0.2477
18644SOL    HW261896  11.851  10.133   6.025 -2.3359 -2.2044 -0.6135
18645SOL     OW61897   9.778   9.386   5.888 -0.4242 -0.1382  0.0408
18645SOL    HW161898   9.815   9.406   5.802 -2.1161  0.0454 -0.6681
18645SOL    HW261899   9.848   9.338   5.933  0.7354  0.3637 -1.1705
18646SOL     OW61900   4.104  10.674   0.151 -0.0856  0.1603  0.6687
18646SOL    HW161901   4.144  10.747   0.103 -2.2138 -0.3332 -2.0726
18646SOL    HW261902   4.143  10.596   0.112 -0.2640 -0.2290  1.2660
18647SOL     OW61903   6.510   4.272   6.715 -0.2297 -0.2190  0.5486
18647SOL    HW161904   6.465   4.255   6.798  0.5947 -1.2512  0.8024
18647SOL    HW261905   6.467   4.351   6.681 -0.8831 -0.0316  1.7322
18648SOL     OW61906  10.119   2.700   8.675  0.3906  0.7190  0.1658
18648SOL    HW161907  10.136   2.654   8.593  1.0219  1.2665 -0.0160
18648SOL    HW261908  10.036   2.664   8.706  1.7587 -1.9981  1.0242
18649SOL     OW61909   5.942   5.492   2.935 -0.0329 -0.2311  0.3659
18649SOL    HW161910   5.885   5.563   2.963 -0.9917 -1.0760  0.6221
18649SOL    HW261911   5.975   5.520   2.850  0.2240  0.8557  0.8112
18650SOL     OW61912   0.564   0.653   9.615 -0.4597  0.5151  0.5414
18650SOL    HW161913   0.642   0.670   9.668 -0.2636 -0.3987  0.5677
18650SOL    HW261914   0.505   0.726   9.635  1.0516  2.1765 -0.8107
18651SOL     OW61915   9.523  11.793  12.008  0.1665 -0.1078 -0.1839
18651SOL    HW161916   9.596  11.825  12.062  0.8078 -1.2103 -0.3419
18651SOL    HW261917   9.452  11.779  12.070  0.4269  0.0202  0.1496
18652SOL     OW61918   5.152   4.531   4.282 -0.4366  0.6231  0.1065
18652SOL    HW161919   5.192   4.579   4.355 -0.7376  0.6173  0.2768
18652SOL    HW261920   5.072   4.581   4.262 -0.9111  0.0274  0.4826
18653SOL     OW61921   2.932   3.900   3.011  0.1103  0.3311 -0.3055
18653SOL    HW161922   3.026   3.900   2.989  0.4314 -2.2613  0.7670
18653SOL    HW261923   2.892   3.952   2.942  2.3354  1.6677 -0.7124
18654SOL     OW61924   2.652  10.527  12.154  0.5765 -0.3084 -0.4890
18654SOL    HW161925   2.703  10.446  12.156  1.8329  0.4907  0.7350
18654SOL    HW261926   2.701  10.585  12.096  2.1434  1.0872  2.0469
18655SOL     OW61927  10.147   6.184  12.306  0.2095 -0.1013 -0.0718
18655SOL    HW161928  10.225   6.141  12.270 -0.1993 -0.6060 -0.3713
18655SOL    HW261929  10.078   6.119  12.296 -0.0296 -0.0516  1.1481
18656SOL     OW61930   8.682   1.089   6.677 -0.3918 -0.1542  0.4595
18656SOL    HW161931   8.650   1.122   6.593  0.6309 -0.8866 -0.2479
18656SOL    HW261932   8.611   1.107   6.739 -0.4455  2.0366 -0.1629
18657SOL     OW61933  12.372  11.585   8.863  0.3072  0.3717 -0.4617
18657SOL    HW161934  12.294  11.550   8.821  0.1724  1.1317 -0.8693
18657SOL    HW261935  12.392  11.664   8.814  1.3900  0.1427 -0.4226
18658SOL     OW61936   5.388   0.619  11.793  0.0864 -0.1021  0.2768
18658SOL    HW161937   5.475   0.624  11.754 -1.0088 -0.6920 -2.4374
18658SOL    HW261938   5.329   0.656  11.727 -1.7708  0.1300  1.9579
18659SOL     OW61939   3.755   4.695   6.471 -0.7227  0.3530 -0.1491
18659SOL    HW161940   3.796   4.611   6.491 -0.7326 -0.2433 -2.2875
18659SOL    HW261941   3.665   4.686   6.501 -0.7903 -0.5314 -0.5662
18660SOL     OW61942  11.587  10.325   4.393  0.1775 -0.2670  0.4100
18660SOL    HW161943  11.639  10.269   4.336 -0.2469 -0.6007  0.3438
18660SOL    HW261944  11.629  10.411   4.387  0.1273 -0.2935 -0.4155
18661SOL     OW61945   6.658   6.636  11.764  0.2581  0.1500 -0.3271
18661SOL    HW161946   6.725   6.695  11.729  0.1163  0.2040 -0.5098
18661SOL    HW261947   6.688   6.548  11.738  1.1675  0.0093  1.0924
18662SOL     OW61948   5.731  12.396  11.287  0.9891  0.3053  0.5697
18662SOL    HW161949   5.641  12.424  11.300  1.3613  2.8551 -1.6692
18662SOL    HW261950   5.769  12.399  11.375 -0.6792  0.6904  1.3250
18663SOL     OW61951   6.495   5.987   1.117 -0.2935  0.1018 -0.0190
18663SOL    HW161952   6.422   5.998   1.056 -0.5682 -0.2680  0.2349
18663SOL    HW261953   6.549   5.919   1.077 -0.3993 -0.0403  0.0775
18664SOL     OW61954  11.202   8.002   2.011  0.0122  0.0471  0.1960
18664SOL    HW161955  11.210   7.919   2.058  1.3073  1.3607  2.5063
18664SOL    HW261956  11.293   8.031   1.999 -0.4039  2.0617  1.3721
18665SOL     OW61957   8.652  10.195   5.001  0.2402  0.1709 -1.0153
18665SOL    HW161958   8.598  10.255   5.052  0.7107  0.8981 -1.3364
18665SOL    HW261959   8.608  10.190   4.916  1.5184  2.1150 -1.8645
18666SOL     OW61960   9.762   9.251   4.877 -0.8738 -0.2462 -0.0972
18666SOL    HW161961   9.783   9.314   4.947 -0.1201 -1.3952  0.7589
18666SOL    HW261962   9.755   9.167   4.923 -1.4955 -0.8474 -1.2658
18667SOL     OW61963   2.747   4.770  11.473 -0.1909  0.2509 -0.2349
18667SOL    HW161964   2.808   4.785  11.545  1.6879  0.5438 -1.8040
18667SOL    HW261965   2.668   4.817  11.498  0.8006  1.2883  1.1202
18668SOL     OW61966   8.231   7.811  11.715  0.0619  0.4621 -0.2213
18668SOL    HW161967   8.220   7.897  11.754 -2.1072 -0.0492  0.4012
18668SOL    HW261968   8.302   7.771  11.766  0.1230  1.3429  0.4076
18669SOL     OW61969   7.345   7.371   7.374  0.6415 -0.8372 -0.3253
18669SOL    HW161970   7.411   7.328   7.319  0.5447 -1.0456 -0.2822
18669SOL    HW261971   7.380   7.458   7.391  0.0034 -0.2547 -1.8876
18670SOL     OW61972  12.327   9.637   8.239  0.6073  0.1369  0.6967
18670SOL    HW161973  12.358   9.708   8.294  0.1137  0.1284  0.9950
18670SOL    HW261974  12.248   9.672   8.196  1.3541  0.3760 -0.5303
18671SOL     OW61975   6.829   3.771  11.816 -0.0528 -0.1648  0.7771
18671SOL    HW161976   6.740   3.740  11.829 -0.3856  0.1469 -0.5562
18671SOL    HW261977   6.855   3.734  11.731  1.5992 -1.3877  1.7318
18672SOL     OW61978   4.412   1.443   0.904 -0.1387 -0.1182  0.2837
18672SOL    HW161979   4.457   1.375   0.954 -1.2941  0.9214  2.9386
18672SOL    HW261980   4.383   1.506   0.970 -0.6405  2.0737 -1.8845
18673SOL     OW61981   1.764   3.464   9.010 -0.0574  0.4954 -0.3488
18673SOL    HW161982   1.692   3.526   9.024 -0.5040 -0.2504  0.7743
18673SOL    HW261983   1.729   3.401   8.947  0.0510  0.8131 -0.7326
18674SOL     OW61984   3.521   3.471  11.344  0.2054 -0.3053 -0.1417
18674SOL    HW161985   3.568   3.551  11.321 -0.7666  1.3502  3.0882
18674SOL    HW261986   3.453   3.463  11.277  1.6617  0.2523 -1.7664
18675SOL     OW61987   6.549   2.978   5.943 -0.9131  0.5360  0.3588
18675SOL    HW161988   6.628   2.924   5.941 -0.5385  1.0023 -2.9301
18675SOL    HW261989   6.477   2.917   5.957 -0.2361 -0.3624 -0.0386
18676SOL     OW61990   6.929   0.028   0.265  0.0899  0.1759 -0.4690
18676SOL    HW161991   6.911  -0.066   0.273  2.1883 -0.3089 -1.0749
18676SOL    HW261992   6.874   0.067   0.333 -0.6974 -1.4819 -0.0755
18677SOL     OW61993   3.662   5.868   4.956 -0.3142 -0.1204 -0.2547
18677SOL    HW161994   3.710   5.936   4.909 -0.6574 -0.2407 -0.7795
18677SOL    HW261995   3.685   5.882   5.048 -0.7979  1.0547 -0.2880
18678SOL     OW61996   7.261   0.966   8.384  0.3151  0.3874  0.2696
18678SOL    HW161997   7.288   0.954   8.293  1.2141  1.6988  0.3336
18678SOL    HW261998   7.200   0.894   8.401 -0.7621  0.7526 -1.7217
18679SOL     OW61999   6.880   3.637   1.044  0.3763  0.0002  0.0152
18679SOL    HW162000   6.823   3.631   1.121 -0.3694  2.4275 -0.2421
18679SOL    HW262001   6.822   3.619   0.970  0.3799  0.6037 -0.1374
18680SOL     OW62002  10.447   1.441   0.654 -0.0332 -0.6183  0.4619
18680SOL    HW162003  10.448   1.406   0.565 -1.7529 -0.0613  0.1850
18680SOL    HW262004  10.465   1.366   0.710  2.1276 -0.7789 -0.3804
18681SOL     OW62005   3.530  10.362   4.856 -0.0189  0.4459  0.0063
18681SOL    HW162006   3.479  10.410   4.790  0.0644 -0.2862 -0.6130
18681SOL    HW262007   3.465  10.331   4.918 -0.0031  1.9382  0.8187
18682SOL     OW62008   2.385   4.205   9.789  0.2713 -0.2265  0.3763
18682SOL    HW162009   2.361   4.122   9.830 -0.0258 -0.3492 -0.0392
18682SOL    HW262010   2.320   4.217   9.719  0.0478  0.5624  0.7076
18683SOL     OW62011   3.192   2.249   7.336  0.8445  0.2576 -0.1456
18683SOL    HW162012   3.205   2.228   7.428  0.2611  2.2082  0.4257
18683SOL    HW262013   3.267   2.302   7.312  0.1367  1.2152 -0.2887
18684SOL     OW62014  12.116   5.988   7.139  0.3974  0.1345 -0.2848
18684SOL    HW162015  12.178   6.017   7.206 -0.5451  0.7435  0.3540
18684SOL    HW262016  12.048   6.055   7.139  0.1917 -0.0400 -1.6159
18685SOL     OW62017  10.952   3.089   7.542  0.2096 -0.0357 -0.4239
18685SOL    HW162018  11.029   3.082   7.599  0.7778 -0.3832 -1.2232
18685SOL    HW262019  10.936   3.184   7.535  1.5567  0.1292 -1.5500
18686SOL     OW62020   7.225   0.562   4.841  0.2024  0.3394  0.6371
18686SOL    HW162021   7.143   0.612   4.837 -0.3792 -0.6670 -0.7761
18686SOL    HW262022   7.283   0.616   4.895 -0.3210  2.6224 -0.9390
18687SOL     OW62023   2.124  10.241   7.530 -0.3460 -0.2590  0.1385
18687SOL    HW162024   2.171  10.291   7.597  0.6602 -1.8324  0.6601
18687SOL    HW262025   2.061  10.188   7.579 -0.3989 -0.5693 -0.2574
18688SOL     OW62026   0.828   8.222   5.752  0.4133  0.4553 -0.5536
18688SOL    HW162027   0.904   8.231   5.695  1.1568 -0.5199  0.2332
18688SOL    HW262028   0.760   8.184   5.697  0.7503  0.5900 -1.0625
18689SOL     OW62029   7.330   7.085   0.792  0.3179 -0.3044  0.2513
18689SOL    HW162030   7.234   7.087   0.800  0.3001 -0.6138  0.1381
18689SOL    HW262031   7.346   7.062   0.701  0.5065  0.6150  0.0435
18690SOL     OW62032  10.332   6.458   4.481  1.1094  0.2190  0.5172
18690SOL    HW162033  10.339   6.411   4.397  0.7903  0.8013  0.1586
18690SOL    HW262034  10.347   6.390   4.547 -0.1041 -0.5442  0.0394
18691SOL     OW62035   9.181   3.326   3.538 -0.2403  0.6452  0.6245
18691SOL    HW162036   9.180   3.327   3.442 -0.8231 -1.1236  0.5707
18691SOL    HW262037   9.204   3.415   3.563  2.5402  0.5874 -1.1914
18692SOL     OW62038  12.013   7.638  10.856  0.0573 -0.6595  0.2586
18692SOL    HW162039  12.051   7.552  10.875  0.6546 -0.2287  1.0902
18692SOL    HW262040  12.079   7.700  10.888 -1.9405  0.1638  3.2075
18693SOL     OW62041   4.189   8.747   7.431 -0.2959 -0.0270 -0.2073
18693SOL    HW162042   4.150   8.773   7.348 -1.0591 -0.3443  0.0372
18693SOL    HW262043   4.187   8.826   7.484 -0.7146 -0.0618 -0.1643
18694SOL     OW62044   3.771   9.579   0.560 -0.1671  0.1162  0.0539
18694SOL    HW162045   3.736   9.495   0.588 -0.9808  0.2766 -0.4737
18694SOL    HW262046   3.801   9.621   0.642  0.0226 -0.5703  0.3422
18695SOL     OW62047   4.516   3.476   0.480 -0.1741 -0.1420  0.8312
18695SOL    HW162048   4.529   3.386   0.449 -0.1902 -0.0874  0.6641
18695SOL    HW262049   4.554   3.477   0.568 -0.8172 -0.5039  1.1237
18696SOL     OW62050  10.525  10.058   9.751 -0.4884  0.4577  0.0555
18696SOL    HW162051  10.474  10.021   9.823  0.8441 -0.0967  0.7481
18696SOL    HW262052  10.495  10.009   9.674 -1.6020  0.7416  0.2821
18697SOL     OW62053   8.169   1.405   0.995  0.4545  0.1323  0.8417
18697SOL    HW162054   8.110   1.403   0.920 -0.4710 -0.3443  1.5633
18697SOL    HW262055   8.173   1.314   1.025  0.6388  0.3503  1.5031
18698SOL     OW62056   9.923   6.215   2.831 -0.8557  0.3292 -0.5531
18698SOL    HW162057  10.001   6.181   2.788 -0.0056  0.8015  0.5680
18698SOL    HW262058   9.868   6.246   2.760  0.0449  0.1316 -1.3535
18699SOL     OW62059   6.891   0.805  10.091  0.6015  0.3393 -0.2564
18699SOL    HW162060   6.945   0.841  10.162  0.5108  1.1460 -0.5797
18699SOL    HW262061   6.835   0.741  10.134  0.6538  0.7065  0.3832
18700SOL     OW62062   9.350   5.444   0.864  0.3455  0.0628  0.0440
18700SOL    HW162063   9.320   5.377   0.802 -0.5452 -0.0702  0.5844
18700SOL    HW262064   9.402   5.395   0.928  0.4615  0.0335 -0.0740
18701SOL     OW62065   0.518  12.378   6.271 -0.2400 -1.1409 -0.0614
18701SOL    HW162066   0.455  12.426   6.216 -0.4348 -1.8389 -0.4722
18701SOL    HW262067   0.588  12.440   6.288 -1.3681 -0.1234  0.9881
18702SOL     OW62068   8.117   7.708   0.199 -0.2414 -0.2748  0.2304
18702SOL    HW162069   8.041   7.758   0.170 -1.2583 -0.9583  1.6305
18702SOL    HW262070   8.192   7.760   0.169 -1.2354  1.7726  1.0704
18703SOL     OW62071  11.983   8.757  11.547  0.2506  0.3387  0.1887
18703SOL    HW162072  11.951   8.801  11.625  1.1829  0.6006  0.4384
18703SOL    HW262073  12.015   8.673  11.578  0.1975  0.2513  0.0117
18704SOL     OW62074   4.725   8.027   0.070 -0.3774  0.2926 -0.2800
18704SOL    HW162075   4.778   8.061   0.142 -0.7674  0.6147 -0.1433
18704SOL    HW262076   4.770   8.057  -0.009  1.1766 -1.7335 -0.2346
18705SOL     OW62077   7.087   7.786   0.273 -0.1631 -0.1709  0.0912
18705SOL    HW162078   7.052   7.782   0.362 -0.5442 -0.4314 -0.0645
18705SOL    HW262079   7.058   7.703   0.233  0.1469 -0.1302 -0.2199
18706SOL     OW62080   0.967  11.311   6.302 -0.3227 -0.6484 -0.3398
18706SOL    HW162081   1.022  11.289   6.227 -2.0582 -0.8885 -1.6215
18706SOL    HW262082   0.923  11.392   6.277 -0.0210 -0.0437  0.9689
18707SOL     OW62083  10.229   1.097  10.648 -0.7905 -0.1991 -0.0684
18707SOL    HW162084  10.265   1.067  10.565 -0.3828  0.8013 -0.2736
18707SOL    HW262085  10.291   1.164  10.678 -1.8795  0.7534  0.1385
18708SOL     OW62086  11.071   3.644   3.385 -0.7326 -0.2388 -0.5045
18708SOL    HW162087  11.037   3.693   3.460  1.3024  0.1579  0.2244
18708SOL    HW262088  11.066   3.552   3.411  2.6934 -0.0389  1.5220
18709SOL     OW62089  10.968   7.065   6.935 -0.2948 -0.2035 -0.2154
18709SOL    HW162090  10.992   6.991   6.991 -0.1790 -0.8010 -1.0349
18709SOL    HW262091  10.996   7.039   6.847 -0.1451  0.8654 -0.5008
18710SOL     OW62092   7.563   5.312  11.502 -0.0661  0.1399  0.5455
18710SOL    HW162093   7.472   5.297  11.527 -0.7734  0.2529 -1.6854
18710SOL    HW262094   7.568   5.279  11.412  2.2343 -0.2951  0.7705
18711SOL     OW62095   5.424   1.729   1.552  0.0713 -0.2575 -0.1330
18711SOL    HW162096   5.474   1.790   1.498  1.4911  0.3112  1.6836
18711SOL    HW262097   5.491   1.682   1.602 -1.0822 -2.1486 -0.2992
18712SOL     OW62098   4.072  10.297   0.635 -0.1724 -0.3413 -0.4241
18712SOL    HW162099   4.031  10.264   0.715  1.0099  0.9157  0.7489
18712SOL    HW262100   4.145  10.237   0.620  1.9327  1.5007  1.6680
18713SOL     OW62101   9.804   2.177  10.356  0.0424 -0.1098 -0.1953
18713SOL    HW162102   9.813   2.127  10.275  0.9019  1.5362 -1.1725
18713SOL    HW262103   9.808   2.111  10.425 -0.5507 -1.5405 -1.4678
18714SOL     OW62104   1.825  10.786   7.446  0.4147  0.0888 -0.3273
18714SOL    HW162105   1.847  10.817   7.358 -1.2325 -0.0645 -0.8349
18714SOL    HW262106   1.776  10.859   7.485 -1.8027 -1.0372 -0.8232
18715SOL     OW62107   0.038   7.911   7.655  0.5387  0.4673 -0.1169
18715SOL    HW162108   0.051   7.816   7.661  0.6656  0.4748 -0.2412
18715SOL    HW262109   0.034   7.928   7.561 -1.0222  0.3882 -0.0870
18716SOL     OW62110  12.101   1.761   1.788  0.0697 -0.3198 -0.0895
18716SOL    HW162111  12.032   1.825   1.770  2.2781  2.7941  1.5314
18716SOL    HW262112  12.179   1.800   1.749  1.7030 -1.5260  1.8356
18717SOL     OW62113  10.678  12.045   5.485  0.3791  0.2522 -0.2376
18717SOL    HW162114  10.639  12.032   5.571  1.1426 -1.0266 -0.0542
18717SOL    HW262115  10.735  12.121   5.496  0.2533  0.2700  0.3055
18718SOL     OW62116  10.480  10.736   3.132 -0.2384  0.1698  0.5970
18718SOL    HW162117  10.540  10.662   3.123 -0.5766 -0.3919  2.5243
18718SOL    HW262118  10.501  10.773   3.218 -1.6424  0.8992  0.6487
18719SOL     OW62119   4.520   4.658   1.276 -0.2628 -0.2328  0.6404
18719SOL    HW162120   4.540   4.564   1.275 -0.7447 -0.3299  0.1909
18719SOL    HW262121   4.601   4.700   1.249  0.1049 -0.4863  1.3050
18720SOL     OW62122   1.789   7.704   7.152  0.5094 -0.1412  0.2371
18720SOL    HW162123   1.858   7.637   7.153 -1.4816 -2.3398 -0.2521
18720SOL    HW262124   1.775   7.721   7.059  0.6682  0.6175  0.3508
18721SOL     OW62125   0.271  10.379   4.152 -0.2861  0.1326 -0.3466
18721SOL    HW162126   0.214  10.455   4.151 -0.8806 -0.2996 -0.0781
18721SOL    HW262127   0.268  10.347   4.243  0.4724  0.1698 -0.2983
18722SOL     OW62128  10.900   5.690   0.074  0.6878 -0.3636  0.0197
18722SOL    HW162129  10.888   5.680   0.168 -0.8557  2.1798  0.1593
18722SOL    HW262130  10.991   5.719   0.065 -0.1140  2.8781  1.1444
18723SOL     OW62131   2.171  11.313   3.787 -0.0099 -0.6604  0.1930
18723SOL    HW162132   2.179  11.340   3.696  1.4427 -0.6387  0.3092
18723SOL    HW262133   2.098  11.251   3.787 -0.3446 -0.2824 -0.8938
18724SOL     OW62134  11.668  11.745   9.696 -0.0596  0.1555 -0.2650
18724SOL    HW162135  11.676  11.784   9.609  1.8036 -0.8507 -0.6091
18724SOL    HW262136  11.640  11.655   9.680  0.8539 -0.2116  0.0974
18725SOL     OW62137  10.427   5.371   0.737 -0.1608 -0.3164 -0.2308
18725SOL    HW162138  10.441   5.410   0.824 -0.1895 -0.6640 -0.0684
18725SOL    HW262139  10.487   5.296   0.734  1.7280  1.1483 -1.4893
18726SOL     OW62140   6.040  10.186  10.231 -0.0898 -0.2796 -0.4843
18726SOL    HW162141   6.066  10.094  10.234  0.5826 -0.1045 -0.7572
18726SOL    HW262142   6.103  10.231  10.287 -1.2707 -0.1680  0.8068
18727SOL     OW62143   0.322   6.336  12.371 -0.3194  0.0218  0.7781
18727SOL    HW162144   0.254   6.362  12.308  1.6951  0.5536 -1.3345
18727SOL    HW262145   0.340   6.416  12.421 -0.8720  0.0128  1.0005
18728SOL     OW62146  10.063   2.498   8.951 -0.2976  0.3915  0.0023
18728SOL    HW162147  10.082   2.415   8.907  0.2493  0.9321 -0.8073
18728SOL    HW262148  10.145   2.522   8.995  0.1397  1.3925 -1.2821
18729SOL     OW62149  10.859   7.668   6.075  0.0875  0.3649  0.3090
18729SOL    HW162150  10.870   7.762   6.089  0.6833 -0.0120  2.9193
18729SOL    HW262151  10.769   7.659   6.044  0.2778  1.8215 -0.7648
18730SOL     OW62152   6.591   4.858  11.122 -0.1497  0.4844 -0.2355
18730SOL    HW162153   6.548   4.923  11.066  1.4430  1.6594 -0.1589
18730SOL    HW262154   6.670   4.833  11.075  0.1669 -0.0721  0.5588
18731SOL     OW62155   0.060   1.928   8.251 -0.4053 -0.7190 -0.1786
18731SOL    HW162156   0.010   1.875   8.314 -1.6293 -1.2075 -1.5097
18731SOL    HW262157   0.009   1.924   8.170  1.5809 -0.8684 -1.4960
18732SOL     OW62158   1.117   7.774   5.876 -0.5418  0.6199 -0.0818
18732SOL    HW162159   1.211   7.785   5.861 -0.3039  1.9960  1.9486
18732SOL    HW262160   1.111   7.693   5.927 -0.6164 -0.1516 -1.2842
18733SOL     OW62161  12.404  11.744  12.181  0.6910 -0.7608 -0.5737
18733SOL    HW162162  12.405  11.815  12.245  1.5690 -1.1407 -0.1464
18733SOL    HW262163  12.424  11.665  12.231  1.1286 -1.1023 -1.2647
18734SOL     OW62164   6.310   9.736  10.119 -0.0657  0.2120  0.1124
18734SOL    HW162165   6.275   9.791  10.048 -0.8076  0.7300  0.8691
18734SOL    HW262166   6.369   9.675  10.074  0.2155  1.1404 -0.8401
18735SOL     OW62167  11.165   9.724  11.732 -0.1284 -0.1887 -0.3718
18735SOL    HW162168  11.103   9.718  11.659  0.2750 -1.7737 -0.6016
18735SOL    HW262169  11.148   9.811  11.769 -0.7035  0.4489 -2.0123
18736SOL     OW62170   0.545   0.291   2.847  0.5158  0.4225 -0.0890
18736SOL    HW162171   0.537   0.307   2.941  0.8643 -2.6804  0.5815
18736SOL    HW262172   0.636   0.267   2.834  0.8873  2.4351 -1.5825
18737SOL     OW62173   1.928   7.214   6.407 -0.0882 -0.4716  0.2548
18737SOL    HW162174   1.936   7.223   6.502 -0.6895 -0.3074  0.2947
18737SOL    HW262175   1.957   7.125   6.389  0.9009 -0.2137  0.4777
18738SOL     OW62176   8.055   6.494   1.668 -0.1260  0.2035 -0.3695
18738SOL    HW162177   7.973   6.446   1.676  0.0472 -0.3279 -1.5049
18738SOL    HW262178   8.101   6.479   1.751 -1.4680  1.0979  0.5642
18739SOL     OW62179   0.700   2.560   1.735 -0.1513 -0.1788 -0.1311
18739SOL    HW162180   0.625   2.511   1.768 -0.1363  0.4242  0.8531
18739SOL    HW262181   0.776   2.515   1.774 -0.1048  0.2166  0.2492
18740SOL     OW62182   9.064   8.612   6.408 -0.0669  0.1932 -0.3040
18740SOL    HW162183   9.032   8.572   6.327  0.0190  1.6231 -1.0806
18740SOL    HW262184   9.112   8.689   6.379  0.9004  0.1352  1.0634
18741SOL     OW62185   4.508  10.651   6.821 -0.0429  0.1124  0.7265
18741SOL    HW162186   4.482  10.571   6.775  1.0666 -0.6590  1.3746
18741SOL    HW262187   4.521  10.716   6.752  1.4323 -0.9682 -0.0737
18742SOL     OW62188  11.050   3.587   6.534  0.8005  0.2762 -0.0222
18742SOL    HW162189  11.114   3.604   6.465  0.2392 -1.2857 -0.9909
18742SOL    HW262190  10.973   3.555   6.488 -0.0465  0.4316  1.2480
18743SOL     OW62191   0.885   5.007   9.618  0.3902  0.2568 -0.7358
18743SOL    HW162192   0.815   5.027   9.556 -0.7651 -2.2290 -0.3455
18743SOL    HW262193   0.966   5.015   9.567 -0.4120 -0.0324 -2.0896
18744SOL     OW62194   6.205   8.876   7.947  0.9629  0.0083  0.5710
18744SOL    HW162195   6.225   8.802   8.005  0.9694  1.1028  2.0261
18744SOL    HW262196   6.130   8.846   7.896 -0.4472 -0.3062  2.6507
18745SOL     OW62197   9.541  12.050   4.660  0.6169 -0.4212 -0.1192
18745SOL    HW162198   9.541  12.141   4.688 -2.8538 -0.3886  0.2431
18745SOL    HW262199   9.505  12.052   4.571 -1.6630 -1.4944  0.6941
18746SOL     OW62200   1.966   9.227   7.819 -0.2226  0.3311  0.3345
18746SOL    HW162201   1.973   9.321   7.831  0.9967 -0.1003  4.9763
18746SOL    HW262202   1.881   9.205   7.859 -0.9698 -0.5265 -1.6090
18747SOL     OW62203   1.747   8.770   5.505  0.6023 -0.1550 -0.2973
18747SOL    HW162204   1.660   8.761   5.543  1.2196  2.0753  1.9053
18747SOL    HW262205   1.806   8.728   5.568  1.3158  0.1330 -0.7531
18748SOL     OW62206   2.888  12.416   5.591 -0.0918 -0.3037 -0.2229
18748SOL    HW162207   2.960  12.389   5.647  0.3440  1.1318 -0.0513
18748SOL    HW262208   2.921  12.406   5.502  0.0627 -0.3561 -0.1591
18749SOL     OW62209   3.220   7.180   3.806  0.2604  0.4524  0.0951
18749SOL    HW162210   3.197   7.195   3.898  0.3306  2.5650 -0.1680
18749SOL    HW262211   3.142   7.139   3.768 -0.3676  0.9769  0.7730
18750SOL     OW62212   8.336   2.385   6.583  0.2545  0.2366 -0.1437
18750SOL    HW162213   8.364   2.476   6.571  0.9720  0.4145  2.4277
18750SOL    HW262214   8.339   2.370   6.677  1.0958 -2.7608 -0.5255
18751SOL     OW62215   7.865   9.395  12.471 -0.1429  0.3745 -0.1738
18751SOL    HW162216   7.777   9.360  12.458 -0.4171  0.8737  0.3141
18751SOL    HW262217   7.921   9.341  12.414 -0.7761  0.1318 -0.5775
18752SOL     OW62218  11.100   8.523  11.329 -0.0138  0.1090 -0.7747
18752SOL    HW162219  11.169   8.470  11.368 -0.3461 -0.3836 -0.8463
18752SOL    HW262220  11.125   8.533  11.237  1.1546  1.8964 -0.2995
18753SOL     OW62221  10.412   0.866   5.006 -0.3295 -0.4212  0.3536
18753SOL    HW162222  10.412   0.960   5.027 -0.6497 -0.4865  0.6626
18753SOL    HW262223  10.320   0.840   5.015 -0.1767 -0.8613  0.7199
18754SOL     OW62224   2.331   2.405  10.059  0.5092  0.3514 -0.3682
18754SOL    HW162225   2.244   2.420  10.022  0.6748 -0.2340 -1.0325
18754SOL    HW262226   2.333   2.311  10.077  0.3247  0.6723  1.4786
18755SOL     OW62227   2.733   6.978   0.121 -0.4939 -0.5457  0.2321
18755SOL    HW162228   2.707   6.894   0.158 -0.0388 -0.8885 -0.2140
18755SOL    HW262229   2.788   7.018   0.189 -2.5351  0.4048  1.3859
18756SOL     OW62230   0.880   1.623  10.010 -0.3215 -0.3143  0.2457
18756SOL    HW162231   0.957   1.649   9.959 -0.5498  0.3743  0.2437
18756SOL    HW262232   0.825   1.576   9.947 -0.0788 -0.4726  0.1500
18757SOL     OW62233   3.231   3.557   4.265  0.6405  0.3963 -0.1017
18757SOL    HW162234   3.294   3.554   4.338 -0.6822  0.1606  1.0756
18757SOL    HW262235   3.173   3.630   4.287 -0.3270 -0.2561 -0.4354
18758SOL     OW62236   9.158   1.665  10.275  0.7484  0.1829  0.0582
18758SOL    HW162237   9.247   1.689  10.247  1.1791  1.3897  2.2162
18758SOL    HW262238   9.171   1.590  10.333  0.3688  0.4864  0.5338
18759SOL     OW62239   6.603  11.402   2.222 -0.3566  0.8674 -0.0798
18759SOL    HW162240   6.588  11.435   2.133 -0.2582  2.1528  0.3514
18759SOL    HW262241   6.596  11.307   2.214 -0.2239  0.9518 -1.4798
18760SOL     OW62242  10.063   0.821   0.177  0.1042  0.5535 -0.3318
18760SOL    HW162243  10.050   0.895   0.118 -1.1710 -0.2397 -1.1067
18760SOL    HW262244  10.102   0.753   0.121  1.1504  0.5822  0.3364
18761SOL     OW62245  11.915   6.108  12.025  1.0932  0.0141  0.2452
18761SOL    HW162246  11.941   6.199  12.029 -0.8789  0.6483 -0.0502
18761SOL    HW262247  11.936   6.072  12.111  0.9781  1.0328  0.7040
18762SOL     OW62248   9.635  12.478   8.309  0.2080  0.5436 -0.3635
18762SOL    HW162249   9.647  12.564   8.350 -1.1590  0.2610  0.6854
18762SOL    HW262250   9.714  12.429   8.333  0.4868  1.1445 -0.0248
18763SOL     OW62251   8.827   8.502   3.797 -0.2970  0.0299  0.1636
18763SOL    HW162252   8.805   8.411   3.780 -0.1188 -0.4303  2.1971
18763SOL    HW262253   8.822   8.544   3.711  0.6618 -2.0933 -0.9960
18764SOL     OW62254   8.502   8.030  10.929 -1.0192 -0.0673 -0.1293
18764SOL    HW162255   8.469   8.041  11.019 -0.1247  1.1243  0.0887
18764SOL    HW262256   8.597   8.043  10.937 -1.0255  0.9461 -1.3645
18765SOL     OW62257  10.884  12.360   1.310  0.4555 -0.0475 -0.3709
18765SOL    HW162258  10.892  12.453   1.289  0.5489  0.9095  3.1692
18765SOL    HW262259  10.813  12.356   1.374 -0.4434 -2.6661 -1.3955
18766SOL     OW62260   4.251   0.043   3.186  0.7008 -0.0225 -0.4180
18766SOL    HW162261   4.331  -0.003   3.212  1.1599  1.0828  0.1649
18766SOL    HW262262   4.280   0.130   3.160 -0.3345  0.4344 -0.0815
18767SOL     OW62263   5.312   6.576   3.567  0.3315  0.9509  0.0065
18767SOL    HW162264   5.361   6.614   3.641  1.0398  0.1250 -0.0136
18767SOL    HW262265   5.305   6.483   3.589 -1.9627  1.1608  0.3929
18768SOL     OW62266   1.633   1.931   8.464  0.4424  0.6427  0.4171
18768SOL    HW162267   1.706   1.949   8.524  0.3702  1.7715  0.1825
18768SOL    HW262268   1.577   1.871   8.513  1.6616 -0.4944  0.4962
18769SOL     OW62269   5.562   8.338  11.133  0.6661  0.1405  0.0633
18769SOL    HW162270   5.522   8.252  11.119  0.4590  0.1551  0.5498
18769SOL    HW262271   5.615   8.352  11.055  0.8062 -0.4917  0.0336
18770SOL     OW62272   2.587   6.674  11.055  0.0309 -0.0580  0.3347
18770SOL    HW162273   2.541   6.696  11.135 -0.4999 -1.5709  0.4775
18770SOL    HW262274   2.518   6.660  10.990  0.4045  0.1436 -0.1179
18771SOL     OW62275   1.418   9.885   9.815 -0.1810  0.1491 -0.4252
18771SOL    HW162276   1.337   9.836   9.830  0.0185  0.3813  1.7270
18771SOL    HW262277   1.389   9.973   9.790 -0.6354  0.3726  0.8194
18772SOL     OW62278   1.244   7.825   9.946 -0.3779 -0.2397 -0.0655
18772SOL    HW162279   1.154   7.833   9.916 -1.1685 -1.5351  1.8108
18772SOL    HW262280   1.246   7.743   9.995  2.5061 -1.7269 -2.3150
18773SOL     OW62281   2.282   3.691   4.449 -0.0375 -0.1123  0.2139
18773SOL    HW162282   2.214   3.738   4.402  0.8311  1.5893  0.5585
18773SOL    HW262283   2.320   3.633   4.384  1.9848  3.0665 -1.7509
18774SOL     OW62284  11.880  11.656   4.102 -0.0548 -0.1228 -0.8478
18774SOL    HW162285  11.895  11.732   4.045 -0.0208 -0.1920 -0.9303
18774SOL    HW262286  11.787  11.636   4.091 -0.8588  1.8003  1.4764
18775SOL     OW62287   8.814  11.414   1.148  0.3599 -0.6142 -0.8162
18775SOL    HW162288   8.772  11.483   1.097  0.7008 -0.3548 -0.7451
18775SOL    HW262289   8.843  11.457   1.228 -1.4329 -1.3105  0.2548
18776SOL     OW62290   7.036   5.714   6.372 -0.2746  0.4697 -0.0316
18776SOL    HW162291   7.062   5.731   6.281  3.1094 -1.8790  0.2896
18776SOL    HW262292   6.980   5.637   6.367 -0.4755  0.6256 -0.1741
18777SOL     OW62293   5.828   4.192   7.024  1.2385  0.5843 -0.1829
18777SOL    HW162294   5.877   4.202   7.106  0.8319  0.0866  0.1200
18777SOL    HW262295   5.759   4.257   7.029 -0.5347 -1.2949  1.1585
18778SOL     OW62296   8.746   7.421   6.443  0.3736  0.1544 -0.6589
18778SOL    HW162297   8.814   7.451   6.383 -0.9402  1.9080 -1.3247
18778SOL    HW262298   8.750   7.483   6.516 -0.4176  0.1921 -0.6455
18779SOL     OW62299   4.811   3.107   2.135 -0.3478  0.2368 -0.3887
18779SOL    HW162300   4.860   3.025   2.139  0.4392  0.7235  0.2693
18779SOL    HW262301   4.810   3.140   2.225  3.0748  3.0141 -1.1059
18780SOL     OW62302   1.075   0.616   3.141  0.1712  0.3094  0.4800
18780SOL    HW162303   1.156   0.572   3.163  0.2116  0.1989  0.1200
18780SOL    HW262304   1.098   0.709   3.140  0.7357  0.1892 -1.3469
18781SOL     OW62305   9.184   4.913   8.781  0.2084  0.1367  0.3188
18781SOL    HW162306   9.239   4.959   8.717  0.2792  0.8474  0.8841
18781SOL    HW262307   9.134   4.983   8.824 -1.8451 -0.5301 -0.8038
18782SOL     OW62308   3.563   4.970   5.283  0.8846  0.1884  0.0860
18782SOL    HW162309   3.573   4.875   5.275 -2.5596 -0.1907 -1.8476
18782SOL    HW262310   3.595   5.004   5.199  0.6566  0.5683  0.1542
18783SOL     OW62311   1.994   2.464   6.259 -0.1272  0.4012 -0.1131
18783SOL    HW162312   2.043   2.509   6.328 -0.8154 -1.2867  1.5596
18783SOL    HW262313   1.907   2.504   6.261 -0.1631  0.3174  0.0614
18784SOL     OW62314   7.748   8.104   3.296  0.5999 -0.3011 -0.4661
18784SOL    HW162315   7.734   8.101   3.201 -0.8359  1.4195 -0.3527
18784SOL    HW262316   7.708   8.023   3.329  1.5136 -1.1415 -1.3372
18785SOL     OW62317   0.915   0.430   3.570  0.3361  0.1445 -0.1812
18785SOL    HW162318   0.940   0.492   3.502 -0.7670 -0.1818 -0.9149
18785SOL    HW262319   0.957   0.464   3.650  1.9592  0.3202 -1.0706
18786SOL     OW62320   1.187  11.997  12.162  0.4698  0.3385 -0.5180
18786SOL    HW162321   1.201  12.089  12.138  1.5076  0.1229 -0.7841
18786SOL    HW262322   1.129  11.963  12.094  1.7304  0.2769 -1.6121
18787SOL     OW62323   0.429   7.410   6.320  0.0168 -0.0818  0.6115
18787SOL    HW162324   0.375   7.388   6.395 -0.4721  0.2058  0.3447
18787SOL    HW262325   0.385   7.367   6.246  0.5728 -0.4869  0.5056
18788SOL     OW62326   1.646   4.599   8.124 -0.3779  0.0070  0.0992
18788SOL    HW162327   1.709   4.606   8.195 -0.0694  0.6523 -0.2288
18788SOL    HW262328   1.679   4.528   8.069  1.3447  1.7360 -1.2847
18789SOL     OW62329   4.328   2.643   8.154  0.2127 -0.0132 -0.3909
18789SOL    HW162330   4.388   2.701   8.107 -0.6680  0.3927 -1.0494
18789SOL    HW262331   4.358   2.555   8.134  0.9695  0.1923 -0.1837
18790SOL     OW62332   7.554  11.181   1.295 -0.2349  0.2115  0.0305
18790SOL    HW162333   7.518  11.267   1.272 -0.5227 -0.3208 -1.6750
18790SOL    HW262334   7.628  11.169   1.236  0.1495 -0.4874  0.6369
18791SOL     OW62335   8.819   6.047   5.927 -0.4937  0.3583 -0.1353
18791SOL    HW162336   8.876   5.971   5.913  0.0353  0.6779  0.2285
18791SOL    HW262337   8.837   6.105   5.852 -2.1523 -0.6008 -1.3432
18792SOL     OW62338   2.726   0.156  11.792 -0.0750 -0.3367 -0.2440
18792SOL    HW162339   2.739   0.063  11.810 -0.0889 -0.3747 -0.4211
18792SOL    HW262340   2.738   0.163  11.697 -2.5210 -0.5687 -0.6190
18793SOL     OW62341   0.385  10.878   1.385  0.3621  0.0192  0.1998
18793SOL    HW162342   0.389  10.827   1.304  0.5134  0.1459  0.1285
18793SOL    HW262343   0.309  10.936   1.373 -0.3611 -0.8086  0.6443
18794SOL     OW62344   4.858   0.003   4.342 -0.0578  0.1434  0.4015
18794SOL    HW162345   4.932  -0.028   4.290 -0.2381  0.0170  0.2184
18794SOL    HW262346   4.876   0.096   4.356  1.4161 -0.4008  2.5136
18795SOL     OW62347   4.802   5.354  11.502 -0.4055  0.3635  0.3282
18795SOL    HW162348   4.806   5.448  11.519 -0.0197  0.2671  0.7597
18795SOL    HW262349   4.858   5.342  11.425 -1.3345  0.6407 -0.4235
18796SOL     OW62350   1.691   8.359   1.784  0.5414 -0.1329 -0.3381
18796SOL    HW162351   1.764   8.333   1.728  1.3907 -0.5295  0.8957
18796SOL    HW262352   1.728   8.426   1.842 -0.2389  0.0945 -0.0905
18797SOL     OW62353   1.159   2.516   0.212 -0.4221 -0.2089 -0.1104
18797SOL    HW162354   1.117   2.572   0.277  1.1681  1.0559 -0.1145
18797SOL    HW262355   1.155   2.567   0.131  0.0174 -0.5947 -0.3795
18798SOL     OW62356   1.496  12.250  11.362  0.1996 -0.6217 -0.2208
18798SOL    HW162357   1.498  12.218  11.452  1.5987 -0.0650 -0.0180
18798SOL    HW262358   1.568  12.203  11.319 -2.1710 -3.0152 -1.8615
18799SOL     OW62359   5.100   5.763   4.013  0.5814  0.4109  0.4182
18799SOL    HW162360   5.091   5.787   4.105  0.8274  0.2289  0.4895
18799SOL    HW262361   5.195   5.760   3.998  0.5458  1.4764 -0.1070
18800SOL     OW62362  10.870   8.279   7.350 -0.4632 -0.1486  0.2989
18800SOL    HW162363  10.810   8.209   7.374 -0.6243 -0.1466 -0.0962
18800SOL    HW262364  10.957   8.243   7.366 -0.4471 -1.2248 -1.8916
18801SOL     OW62365   8.285   3.850  11.249 -0.8640  0.4162 -0.4832
18801SOL    HW162366   8.270   3.913  11.320  0.1709  0.9259 -0.6917
18801SOL    HW262367   8.210   3.791  11.253 -0.4170 -0.0924  1.5842
18802SOL     OW62368  10.343   3.145   7.594  0.7997 -0.5508 -1.0340
18802SOL    HW162369  10.352   3.087   7.670  2.8135 -0.2770 -1.0127
18802SOL    HW262370  10.319   3.229   7.632  0.8618 -0.6365 -0.7994
18803SOL     OW62371   9.646   2.607   5.615 -0.0712  0.4908 -0.3746
18803SOL    HW162372   9.579   2.622   5.548 -2.1330 -1.0085  1.2378
18803SOL    HW262373   9.660   2.512   5.614 -1.0579  0.2483  2.0645
18804SOL     OW62374   6.141   9.078   6.332 -0.4108 -0.3723  0.2725
18804SOL    HW162375   6.046   9.072   6.342 -0.2950 -2.4284  0.5972
18804SOL    HW262376   6.154   9.103   6.240 -1.2691 -0.3722  0.1423
18805SOL     OW62377   7.195   9.197   8.936 -0.0100 -0.3151 -0.3177
18805SOL    HW162378   7.284   9.165   8.921  0.1390  0.0753 -0.2965
18805SOL    HW262379   7.140   9.143   8.880  0.3756  0.2333 -1.2477
18806SOL     OW62380   6.380  12.222   0.072  0.4541 -0.0660  0.0037
18806SOL    HW162381   6.471  12.215   0.045  1.0336 -2.3869  2.2833
18806SOL    HW262382   6.339  12.141   0.041 -0.9725  1.0179 -1.1600
18807SOL     OW62383  11.091   7.729   3.020 -0.0690  0.3258  0.2579
18807SOL    HW162384  11.112   7.789   3.092 -2.7558 -0.2831  1.6963
18807SOL    HW262385  11.070   7.647   3.064 -1.3715 -0.1853 -1.2548
18808SOL     OW62386   1.647   4.372   0.796 -0.3008 -0.7430  0.0128
18808SOL    HW162387   1.598   4.414   0.726  1.4201  3.4958  1.0320
18808SOL    HW262388   1.735   4.362   0.760  0.5575  1.3318  1.3152
18809SOL     OW62389   1.971  12.117   7.188 -0.1876  0.6941  0.3577
18809SOL    HW162390   1.968  12.152   7.099  0.9059 -1.4283 -0.5740
18809SOL    HW262391   2.060  12.137   7.218 -0.1126  0.2412  0.4475
18810SOL     OW62392   1.431   0.179  10.910 -0.0416  0.5606 -0.1970
18810SOL    HW162393   1.521   0.147  10.901 -0.0184 -0.1557  2.0488
18810SOL    HW262394   1.377   0.102  10.889 -0.1252  0.8166 -0.9321
18811SOL     OW62395   3.155   3.683   1.717 -0.2057  0.3810  0.1424
18811SOL    HW162396   3.237   3.659   1.675 -0.0472 -0.3294  0.8412
18811SOL    HW262397   3.124   3.759   1.668  0.0148 -0.3668 -1.2041
18812SOL     OW62398   4.077   2.332   7.228  0.1328  0.0296  0.2545
18812SOL    HW162399   3.986   2.360   7.214  0.2260  0.5639  0.6889
18812SOL    HW262400   4.129   2.394   7.177  0.2345 -0.5202 -0.3170
18813SOL     OW62401   3.070   2.302   2.359 -0.1913  0.6546  0.1236
18813SOL    HW162402   2.985   2.344   2.375 -0.8177 -0.7070  0.5552
18813SOL    HW262403   3.134   2.365   2.391 -0.9729  2.1053 -1.0207
18814SOL     OW62404   7.634  12.230   4.559 -0.5146  0.0843  0.2710
18814SOL    HW162405   7.701  12.292   4.530 -0.7997  0.0455 -0.4788
18814SOL    HW262406   7.589  12.203   4.479  1.5649 -3.4445  0.0974
18815SOL     OW62407   1.062   5.365   8.229  0.6428  0.1307 -0.1560
18815SOL    HW162408   1.052   5.278   8.267 -0.3175  1.1222  2.0330
18815SOL    HW262409   0.996   5.368   8.159 -0.7865 -0.2391  1.1161
18816SOL     OW62410   2.732  12.385   4.728 -0.2080 -0.2163 -0.0859
18816SOL    HW162411   2.797  12.343   4.785 -0.4515 -1.5757 -0.7710
18816SOL    HW262412   2.694  12.314   4.678  0.7176  1.0169 -2.7122
18817SOL     OW62413   7.955   3.703   0.221 -0.3774  0.3818 -0.1908
18817SOL    HW162414   7.865   3.685   0.247 -0.6832 -0.4130 -1.7355
18817SOL    HW262415   7.980   3.630   0.165  1.5767  0.0932  0.9660
18818SOL     OW62416   6.213   9.349   3.778 -0.3329  0.0647 -0.4057
18818SOL    HW162417   6.137   9.374   3.830 -0.0687 -0.8862  0.4601
18818SOL    HW262418   6.285   9.344   3.841  0.2075 -0.1516 -1.0251
18819SOL     OW62419   1.913   1.799   4.179  0.0690  0.4713  0.2374
18819SOL    HW162420   1.994   1.807   4.128 -0.0502  1.9927  0.2592
18819SOL    HW262421   1.870   1.884   4.170 -0.3458  0.5239  2.2288
18820SOL     OW62422   1.321   5.614  11.863 -0.3789 -0.4555 -0.0232
18820SOL    HW162423   1.290   5.524  11.875 -0.5264 -0.3441  0.4421
18820SOL    HW262424   1.280   5.642  11.781 -0.5149 -0.7333 -0.0516
18821SOL     OW62425   6.944   8.133   1.965 -0.1822 -0.2252 -0.0782
18821SOL    HW162426   6.991   8.067   2.018 -0.3147  1.3599  2.1737
18821SOL    HW262427   7.006   8.206   1.958 -0.3171 -0.2624 -1.8743
18822SOL     OW62428   7.860   1.657   2.257 -0.7003 -0.2441  0.2304
18822SOL    HW162429   7.816   1.648   2.172 -1.0560  0.9599  0.2746
18822SOL    HW262430   7.793   1.637   2.322 -0.7082 -0.1419  0.2537
18823SOL     OW62431   6.474   4.825   1.263  0.3950 -0.1293 -0.1003
18823SOL    HW162432   6.401   4.777   1.222  1.3875 -0.2193 -1.8395
18823SOL    HW262433   6.530   4.756   1.300  1.9675 -0.4662 -2.8427
18824SOL     OW62434   3.797   9.124   8.707  0.0429 -0.1303 -0.2135
18824SOL    HW162435   3.873   9.067   8.705 -0.2561 -0.5091 -0.7305
18824SOL    HW262436   3.723   9.067   8.687 -0.3081  0.3546 -0.3129
18825SOL     OW62437   2.127   0.006   6.078  0.0642 -0.0918 -0.3226
18825SOL    HW162438   2.221   0.023   6.085  0.1476 -0.0680 -1.3357
18825SOL    HW262439   2.096   0.070   6.014 -0.7472  0.2488  0.3931
18826SOL     OW62440   2.666   3.790  11.630 -0.2550 -0.2856 -0.5458
18826SOL    HW162441   2.727   3.841  11.576 -1.2642  0.1173 -1.3339
18826SOL    HW262442   2.609   3.855  11.670  1.3990 -0.4146  2.3162
18827SOL     OW62443   8.955   7.589   1.386  0.1466 -0.2210 -0.0037
18827SOL    HW162444   8.941   7.593   1.481 -2.6000  1.2177 -0.3575
18827SOL    HW262445   8.934   7.498   1.363 -0.2547 -0.3002  0.6471
18828SOL     OW62446   8.299   5.596   2.408  0.0549 -0.4043 -0.0249
18828SOL    HW162447   8.206   5.590   2.430  0.0202 -2.3868 -0.5413
18828SOL    HW262448   8.307   5.681   2.363 -1.9415 -1.0801 -1.8489
18829SOL     OW62449   2.381   0.336   5.325 -0.0313  0.3978 -0.0195
18829SOL    HW162450   2.476   0.341   5.320  0.0178  0.5038  0.8627
18829SOL    HW262451   2.351   0.423   5.300  0.1092  0.3694 -0.2808
18830SOL     OW62452   5.096   6.211   7.992  0.3150  0.0753  0.2367
18830SOL    HW162453   5.080   6.127   8.034 -2.7718 -0.5237 -1.7821
18830SOL    HW262454   5.143   6.190   7.911  2.8574  0.8053  1.4245
18831SOL     OW62455   1.436   1.804   7.361  0.1233  0.0100 -0.0048
18831SOL    HW162456   1.460   1.765   7.445 -1.0244  0.6159  0.6234
18831SOL    HW262457   1.508   1.780   7.302  2.0922  1.4056  1.6918
18832SOL     OW62458   7.443   6.434   0.882 -0.3995 -0.4497 -0.3273
18832SOL    HW162459   7.507   6.473   0.942  0.3044  1.3886 -2.1680
18832SOL    HW262460   7.459   6.340   0.888  0.5755 -0.2196  1.3053
18833SOL     OW62461   5.421   2.364   3.724  0.0084 -0.0604  0.0402
18833SOL    HW162462   5.475   2.314   3.784 -0.0712 -0.5845 -0.3108
18833SOL    HW262463   5.336   2.320   3.726 -0.5651  1.0452  0.9536
18834SOL     OW62464  10.414  11.066   2.731  0.7230 -0.3327 -0.8082
18834SOL    HW162465  10.472  11.047   2.805  0.9035 -0.6926 -1.0408
18834SOL    HW262466  10.326  11.066   2.769  0.8766  0.2906 -0.4383
18835SOL     OW62467   9.096   0.388   6.019 -0.3470  0.0525  0.9428
18835SOL    HW162468   9.148   0.417   5.944 -0.7975 -1.4835 -0.0092
18835SOL    HW262469   9.128   0.441   6.092  2.5566 -0.7827  0.4219
18836SOL     OW62470  11.975   5.791  11.902  0.0609 -0.0194 -0.0445
18836SOL    HW162471  11.996   5.806  11.994 -0.7837  4.1439 -0.3551
18836SOL    HW262472  12.034   5.720  11.876  0.5978 -1.1060  3.5389
18837SOL     OW62473   1.465   5.228   3.717 -0.2008 -0.0700 -0.0327
18837SOL    HW162474   1.488   5.182   3.798 -0.6962  0.3457  0.3502
18837SOL    HW262475   1.541   5.214   3.660 -0.6169 -1.9158 -0.1882
18838SOL     OW62476   9.844   2.188   1.602 -0.2384  0.1511  0.0240
18838SOL    HW162477   9.803   2.273   1.585 -2.6428 -1.1162 -0.9781
18838SOL    HW262478   9.900   2.203   1.678 -1.7039  2.3031  0.7807
18839SOL     OW62479  10.496  12.185  11.273 -0.2226 -0.5793 -0.9568
18839SOL    HW162480  10.541  12.268  11.291  0.1933 -1.0305  0.2100
18839SOL    HW262481  10.561  12.133  11.227  0.1226 -0.8529 -0.1885
18840SOL     OW62482   9.302   2.659   9.227 -0.6209  0.1941 -0.4430
18840SOL    HW162483   9.368   2.695   9.286 -1.8987  0.5487  0.8310
18840SOL    HW262484   9.236   2.727   9.220 -1.0112 -0.2660 -1.4621
18841SOL     OW62485  10.217   5.365   1.756 -0.3556 -0.4725  0.3232
18841SOL    HW162486  10.292   5.408   1.715 -1.3370 -0.1066 -1.1763
18841SOL    HW262487  10.158   5.437   1.778 -1.4381 -0.9094 -1.0108
18842SOL     OW62488   3.375   9.118   8.817 -0.7244 -0.1698 -0.2783
18842SOL    HW162489   3.322   9.185   8.860 -1.6343 -1.0259 -0.0376
18842SOL    HW262490   3.465   9.150   8.825 -1.2286  1.6854 -1.3586
18843SOL     OW62491   6.179   9.249   7.842  0.1617 -1.0821  0.1448
18843SOL    HW162492   6.157   9.256   7.935  0.1874  0.3817  0.0676
18843SOL    HW262493   6.270   9.277   7.836  0.3916 -1.8671 -0.2491
18844SOL     OW62494   0.067   7.910  10.541 -0.4821 -0.4137 -0.1503
18844SOL    HW162495  -0.010   7.895  10.487 -1.8712 -1.0030  1.8778
18844SOL    HW262496   0.117   7.978  10.494 -1.9967 -0.3232 -1.7193
18845SOL     OW62497   9.990   4.936   2.248 -0.0493 -0.0353  0.1474
18845SOL    HW162498   9.982   4.995   2.323  0.8764 -0.6174  0.7218
18845SOL    HW262499   9.900   4.906   2.231 -0.3981  0.8425  0.3997
18846SOL     OW62500   8.046   1.690   1.774 -0.4359  0.1234 -0.0852
18846SOL    HW162501   8.128   1.705   1.727 -0.7340 -1.4801 -1.2282
18846SOL    HW262502   8.073   1.674   1.864  0.6245 -1.0353 -0.5631
18847SOL     OW62503   7.430  11.779   1.941 -0.0108  0.4842 -0.3243
18847SOL    HW162504   7.483  11.805   1.865  0.8640  0.9310  0.4136
18847SOL    HW262505   7.363  11.847   1.949  0.4183  0.8957 -0.1993
18848SOL     OW62506  12.108   9.504   1.859  0.1274  0.0317  0.1408
18848SOL    HW162507  12.129   9.412   1.872 -1.3874 -0.5769 -1.2877
18848SOL    HW262508  12.174   9.551   1.909  0.2189 -1.8318  1.8942
18849SOL     OW62509   2.787   1.156   8.908 -0.2865 -0.0479 -0.1741
18849SOL    HW162510   2.756   1.066   8.895 -0.8026  0.0679  0.2401
18849SOL    HW262511   2.870   1.159   8.861 -1.0847 -0.2361 -1.6360
18850SOL     OW62512   4.465   0.289   1.540 -0.6338  0.0256  0.1495
18850SOL    HW162513   4.508   0.209   1.507 -1.0008  0.3486 -1.1698
18850SOL    HW262514   4.387   0.298   1.486  1.2431  3.2798 -2.3723
18851SOL     OW62515   8.870   9.022   7.715  0.2115 -0.0660  0.0564
18851SOL    HW162516   8.947   9.050   7.666  0.0475 -0.2895 -0.3365
18851SOL    HW262517   8.904   8.959   7.779  0.4441  0.3221  0.3163
18852SOL     OW62518   3.844  11.507   8.426  0.6655 -0.2000  0.1191
18852SOL    HW162519   3.870  11.442   8.361  1.3901 -1.7820  1.9118
18852SOL    HW262520   3.765  11.547   8.390  1.6075 -0.2416 -2.1984
18853SOL     OW62521  11.776   8.109  12.142  0.1154 -0.2623  0.3235
18853SOL    HW162522  11.764   8.015  12.132 -0.8932 -0.0133 -1.0939
18853SOL    HW262523  11.693   8.147  12.113  0.4475  1.0592  1.0431
18854SOL     OW62524  11.652   2.903  11.436 -0.1741  0.0213 -0.4713
18854SOL    HW162525  11.558   2.892  11.450  0.1440  0.5986  2.9933
18854SOL    HW262526  11.668   2.996  11.452  0.9737 -0.0363 -1.1845
18855SOL     OW62527   9.195   5.526   3.300  0.0047 -0.4309  0.2431
18855SOL    HW162528   9.275   5.536   3.352  0.4804  0.4445 -0.6285
18855SOL    HW262529   9.226   5.510   3.211 -0.7911 -0.4325 -0.0390
18856SOL     OW62530   6.594  10.745   3.564  0.0634 -0.3547  0.6212
18856SOL    HW162531   6.677  10.748   3.611  0.8363 -2.8732 -0.4543
18856SOL    HW262532   6.618  10.747   3.472 -1.2087  0.5953  0.2707
18857SOL     OW62533   0.519   4.365   5.059  0.5222 -0.4022  0.2581
18857SOL    HW162534   0.516   4.371   5.154  0.2784 -0.2274  0.2398
18857SOL    HW262535   0.612   4.376   5.037  0.3854  1.2590  0.3709
18858SOL     OW62536  10.672   2.327   4.256  0.5999  0.4753  0.6132
18858SOL    HW162537  10.634   2.389   4.318 -1.6125  0.0171 -0.1943
18858SOL    HW262538  10.668   2.243   4.301 -1.9948 -0.0434 -0.4411
18859SOL     OW62539   0.889   7.423   7.954 -0.5340 -0.2823 -0.3478
18859SOL    HW162540   0.856   7.437   7.865 -0.6898 -0.1736 -0.2748
18859SOL    HW262541   0.843   7.345   7.985 -0.6524 -0.1883 -0.2822
18860SOL     OW62542   7.602  10.937  11.570  0.3812  0.6464 -0.5761
18860SOL    HW162543   7.594  10.952  11.476  1.5800  0.7465 -0.6735
18860SOL    HW262544   7.696  10.927  11.585  0.0552 -2.4895  0.1300
18861SOL     OW62545   6.607   1.523  11.145 -0.4809  0.1685  0.5738
18861SOL    HW162546   6.513   1.540  11.140 -0.6595 -1.0372 -0.3302
18861SOL    HW262547   6.637   1.578  11.218 -2.2275 -0.9295  2.2151
18862SOL     OW62548   0.789   3.682   5.306 -0.2967 -0.4736 -0.7728
18862SOL    HW162549   0.720   3.669   5.371 -1.6630  0.3459 -2.0035
18862SOL    HW262550   0.824   3.594   5.289  0.7879 -0.6149  1.7229
18863SOL     OW62551   8.983  12.348   1.018 -0.1862  0.6589 -0.2202
18863SOL    HW162552   8.940  12.434   1.010  0.3869  0.8462 -1.6070
18863SOL    HW262553   8.919  12.294   1.064 -1.5033  1.2262 -1.2790
18864SOL     OW62554   8.718  11.862   2.954  0.0094  0.5261 -0.1139
18864SOL    HW162555   8.734  11.939   3.008 -0.8652 -0.8309  2.2597
18864SOL    HW262556   8.677  11.799   3.014  0.8370 -1.8471 -1.8738
18865SOL     OW62557   4.291   4.638   6.701  0.6430 -0.2528 -0.4432
18865SOL    HW162558   4.382   4.669   6.695  0.5990 -0.1441 -0.5609
18865SOL    HW262559   4.289   4.585   6.781  0.8551 -0.4123 -0.5429
18866SOL     OW62560   0.747   8.837   2.281  0.3335  0.4016 -0.1960
18866SOL    HW162561   0.687   8.891   2.229 -0.0755  0.2060  0.0730
18866SOL    HW262562   0.834   8.872   2.260  0.0985  0.9636 -0.2652
18867SOL     OW62563   4.775   8.411   4.438 -0.5993 -0.3576 -0.2057
18867SOL    HW162564   4.868   8.422   4.454 -0.8541 -0.3345  1.3489
18867SOL    HW262565   4.732   8.461   4.507 -1.7653 -1.0940 -0.3691
18868SOL     OW62566   8.650   1.970   9.768 -0.2866 -0.0625  0.1034
18868SOL    HW162567   8.695   1.907   9.712  0.2656  0.5866 -0.1979
18868SOL    HW262568   8.708   1.981   9.844 -0.8230 -0.6061  0.6035
18869SOL     OW62569   4.064   6.072  11.270  0.1232 -0.4589 -0.2702
18869SOL    HW162570   4.159   6.061  11.273  0.0998 -0.4766  0.5199
18869SOL    HW262571   4.034   6.009  11.205  0.8076  0.6327 -1.7007
18870SOL     OW62572  12.456  10.918   5.395 -0.2698  0.2695  0.5240
18870SOL    HW162573  12.444  11.012   5.382  0.1866  0.1052 -1.3833
18870SOL    HW262574  12.416  10.878   5.318  3.1814 -0.8346 -0.8735
18871SOL     OW62575   2.066  11.456   1.385 -0.2492 -0.7304  0.0367
18871SOL    HW162576   2.075  11.481   1.477  0.9035  0.8703 -0.4514
18871SOL    HW262577   2.156  11.460   1.351 -0.5243 -2.2451 -0.9436
18872SOL     OW62578   4.467   2.711   3.539 -0.2528 -0.2057  0.5946
18872SOL    HW162579   4.544   2.720   3.595  0.1866 -0.7329  0.0861
18872SOL    HW262580   4.480   2.777   3.471  0.8737 -1.7335 -0.7448
18873SOL     OW62581   2.065   7.252   0.111 -0.2032 -0.6404  0.3160
18873SOL    HW162582   2.060   7.337   0.156 -0.3117 -0.2507 -0.4126
18873SOL    HW262583   2.039   7.271   0.021  1.5862 -1.0826 -0.3350
18874SOL     OW62584   2.073   6.950  11.765 -0.3375 -0.1725 -0.6282
18874SOL    HW162585   2.083   6.872  11.818  2.0361  1.0904  0.9404
18874SOL    HW262586   2.025   7.012  11.820  0.1760  0.3906 -0.7967
18875SOL     OW62587   3.959  10.814   4.284 -0.2529 -0.4046 -0.0219
18875SOL    HW162588   3.876  10.777   4.254  0.2248 -1.1155 -0.4802
18875SOL    HW262589   3.943  10.909   4.288 -0.5713 -0.3531 -1.7623
18876SOL     OW62590   2.511  10.524  11.472 -0.1529  0.4125  0.4641
18876SOL    HW162591   2.440  10.549  11.529  0.0052 -1.0863  1.3729
18876SOL    HW262592   2.469  10.498  11.390 -1.0071 -2.8235  1.7680
18877SOL     OW62593   4.563   7.973   1.563 -0.3728 -0.0215  0.0549
18877SOL    HW162594   4.644   7.959   1.612 -0.0196 -2.2068 -1.0164
18877SOL    HW262595   4.507   8.022   1.622  1.0469 -0.1344  1.5537
18878SOL     OW62596   3.845   0.566   9.533 -0.3507 -0.2911  0.3586
18878SOL    HW162597   3.804   0.600   9.453  1.7128  1.3581 -0.0802
18878SOL    HW262598   3.843   0.471   9.522 -4.5367 -0.4317  0.7073
18879SOL     OW62599   9.447   4.785  11.636  0.3433 -0.1390 -0.0217
18879SOL    HW162600   9.357   4.814  11.651 -0.0522 -0.5361 -1.4770
18879SOL    HW262601   9.457   4.710  11.695  0.0281  0.4430  0.7918
18880SOL     OW62602   3.017   3.211  12.077  0.0686 -0.0350 -0.1213
18880SOL    HW162603   2.946   3.167  12.124 -0.5605  0.9483 -0.1462
18880SOL    HW262604   2.977   3.241  11.996  0.9832 -1.1113 -1.0140
18881SOL     OW62605   7.204   0.245   7.132 -0.4764 -0.1438  0.1988
18881SOL    HW162606   7.112   0.226   7.151 -0.6163  0.6727  0.3674
18881SOL    HW262607   7.239   0.275   7.215  0.9473 -3.9548  1.1944
18882SOL     OW62608   9.954   1.835   6.090  1.0809 -0.7441 -0.4507
18882SOL    HW162609   9.985   1.799   6.007 -0.6353 -0.0653 -1.4350
18882SOL    HW262610   9.882   1.778   6.115  0.2274  0.2632 -0.5349
18883SOL     OW62611   8.898   8.520   3.380  0.0580  0.0671  0.2274
18883SOL    HW162612   8.838   8.587   3.412  2.3152  4.1289 -3.0806
18883SOL    HW262613   8.887   8.521   3.285  2.1619 -2.3321 -0.1540
18884SOL     OW62614  11.726   1.682   7.549  0.1595 -0.3960 -0.0730
18884SOL    HW162615  11.710   1.639   7.633  1.1568 -2.1857 -0.7352
18884SOL    HW262616  11.722   1.611   7.485  0.6636  0.7170 -1.3965
18885SOL     OW62617   6.529   9.672  11.149  0.3736  0.1079 -0.2706
18885SOL    HW162618   6.608   9.640  11.107  1.3328  2.5306 -0.4873
18885SOL    HW262619   6.487   9.594  11.185  3.4283 -1.1741  0.8424
18886SOL     OW62620   1.117   2.856  10.383 -0.0384 -0.0702  0.1474
18886SOL    HW162621   1.035   2.852  10.431  0.1759  1.2341  0.6742
18886SOL    HW262622   1.092   2.856  10.291 -0.5908 -0.3039  0.2985
18887SOL     OW62623   7.229   6.941   1.143  0.5335  0.0509 -0.2930
18887SOL    HW162624   7.192   6.866   1.190 -0.1395  0.6086  0.0920
18887SOL    HW262625   7.174   7.014   1.169  1.0477  0.6400 -0.8411
18888SOL     OW62626   6.475   9.425  11.350 -0.4506 -0.7581  0.5306
18888SOL    HW162627   6.395   9.386  11.385 -0.9878 -0.5859 -0.4918
18888SOL    HW262628   6.485   9.507  11.398 -0.9111 -0.7578  0.6294
18889SOL     OW62629   2.633   1.190   0.478 -0.0356 -0.0801  0.2730
18889SOL    HW162630   2.614   1.167   0.387  1.2273 -0.7436  0.1589
18889SOL    HW262631   2.616   1.110   0.528 -0.8435  0.3141  0.6579
18890SOL     OW62632  11.888   4.301   2.513  0.1857 -0.2078 -0.3353
18890SOL    HW162633  11.867   4.241   2.441 -2.1738 -1.2712  1.1126
18890SOL    HW262634  11.971   4.270   2.547 -0.3361 -1.8339 -0.4778
18891SOL     OW62635  10.136  10.801   7.425  0.3593  0.9292 -0.0035
18891SOL    HW162636  10.065  10.738   7.433  0.9874  0.4048  2.2216
18891SOL    HW262637  10.195  10.763   7.360  0.1839 -0.2423  0.5034
18892SOL     OW62638   0.699   3.648   4.147  0.0053 -0.4458  0.0083
18892SOL    HW162639   0.643   3.571   4.135  0.4007 -0.7136 -0.1328
18892SOL    HW262640   0.638   3.721   4.155 -0.3724 -0.7762  0.1491
18893SOL     OW62641   7.147   5.485   6.862 -0.0573 -0.1195 -0.0856
18893SOL    HW162642   7.192   5.554   6.911 -0.5935 -0.3747  0.7955
18893SOL    HW262643   7.194   5.480   6.779 -0.8880  2.2904 -0.7832
18894SOL     OW62644   5.335   1.841  11.812 -1.2161  0.6112  0.5895
18894SOL    HW162645   5.387   1.791  11.875 -0.7494  0.1197 -0.1772
18894SOL    HW262646   5.397   1.904  11.775 -0.8440 -0.6761 -1.1091
18895SOL     OW62647   6.909   4.095   0.191  0.0461  0.4117 -0.4737
18895SOL    HW162648   6.985   4.107   0.135 -0.2120  1.8717 -0.5598
18895SOL    HW262649   6.839   4.144   0.147 -1.3259 -1.9405 -1.0670
18896SOL     OW62650  10.402  10.540   6.819  0.2653  0.1806  0.0393
18896SOL    HW162651  10.483  10.490   6.813  0.3321 -0.0108  2.0932
18896SOL    HW262652  10.335  10.481   6.783  0.8693  0.0148 -0.8574
18897SOL     OW62653   1.769   8.701   0.451  0.1387  0.2355 -0.2202
18897SOL    HW162654   1.778   8.711   0.546 -0.9256  1.9404 -0.2603
18897SOL    HW262655   1.693   8.755   0.428 -0.5850 -1.3895 -1.8445
18898SOL     OW62656  10.131   1.179   0.621  0.0777  0.5773  0.1974
18898SOL    HW162657  10.073   1.162   0.694  1.4586 -1.8281  0.8624
18898SOL    HW262658  10.092   1.132   0.547  1.3245 -1.5163  0.7799
18899SOL     OW62659   6.231   6.016   5.398  0.2103 -0.4022  0.3291
18899SOL    HW162660   6.322   6.040   5.416 -0.2830  2.4591 -0.5091
18899SOL    HW262661   6.185   6.032   5.480 -0.1855  2.2312 -0.3266
18900SOL     OW62662  11.839   2.951   1.100 -0.2037 -0.4827  0.1289
18900SOL    HW162663  11.816   3.044   1.103  0.9636 -0.1875  0.4584
18900SOL    HW262664  11.755   2.906   1.100 -0.8872  0.4590  3.7557
18901SOL     OW62665  11.738   0.107   1.245 -0.2471  0.0911 -0.1558
18901SOL    HW162666  11.796   0.157   1.187  0.4004 -0.5357 -0.0610
18901SOL    HW262667  11.764   0.016   1.233  1.2172  0.0615  2.5008
18902SOL     OW62668   7.207   3.414   6.662  0.2889  0.3841 -0.1550
18902SOL    HW162669   7.220   3.465   6.742  0.6762  1.3300 -0.8086
18902SOL    HW262670   7.272   3.344   6.667  1.1382  1.1493 -0.2039
18903SOL     OW62671  11.076   5.813   8.059 -0.1885  0.0027  1.3006
18903SOL    HW162672  11.030   5.729   8.069  0.0722 -0.2219  0.6807
18903SOL    HW262673  11.009   5.879   8.077 -0.6742 -0.3281  0.7530
18904SOL     OW62674   9.208   3.381   2.519 -0.2682 -0.2009  0.2037
18904SOL    HW162675   9.181   3.466   2.554 -1.6525 -1.1997  1.7451
18904SOL    HW262676   9.272   3.349   2.582  1.5908  0.3919 -1.2970
18905SOL     OW62677  10.407   8.043   0.764  0.0753 -0.0110 -0.0175
18905SOL    HW162678  10.373   8.132   0.775  0.2644 -0.1991  2.7477
18905SOL    HW262679  10.480   8.053   0.702 -0.2220  1.6749 -0.1548
18906SOL     OW62680   8.587  11.630   4.945  0.4097  0.0835  0.2261
18906SOL    HW162681   8.678  11.649   4.922  1.4836 -2.3873  1.9905
18906SOL    HW262682   8.570  11.545   4.906 -1.5139  0.8905 -0.8198
18907SOL     OW62683   3.429   9.531  11.222  0.3236 -0.5108  0.0832
18907SOL    HW162684   3.369   9.457  11.233  0.3914 -0.8045 -1.3440
18907SOL    HW262685   3.490   9.503  11.154  0.0434  1.0343 -0.8522
18908SOL     OW62686   0.204  11.878  11.251  0.1914 -1.1236 -0.6381
18908SOL    HW162687   0.191  11.935  11.326 -1.7597 -1.4676 -0.6693
18908SOL    HW262688   0.117  11.842  11.232  0.4123 -0.3583 -3.6288
18909SOL     OW62689   0.001   6.680   2.250 -0.5105  0.1234  0.2085
18909SOL    HW162690   0.016   6.592   2.286  0.9649 -0.8522 -2.4389
18909SOL    HW262691   0.076   6.731   2.279 -0.0273 -0.2746 -0.2932
18910SOL     OW62692  11.307   4.441   0.529  0.0190  0.1325 -0.1915
18910SOL    HW162693  11.382   4.461   0.472 -0.0624  1.1515  0.0415
18910SOL    HW262694  11.260   4.523   0.537  0.1506  0.0885  1.5332
18911SOL     OW62695   7.783   8.108   0.786 -0.4704  0.1319 -0.0896
18911SOL    HW162696   7.801   8.202   0.794  1.4712 -0.2553  0.8333
18911SOL    HW262697   7.739   8.085   0.868 -0.6728  0.1791 -0.1849
18912SOL     OW62698   0.072  12.012   0.880  0.3799  0.3771 -0.0177
18912SOL    HW162699  -0.013  11.972   0.896 -0.6411  2.3186 -0.2525
18912SOL    HW262700   0.115  12.013   0.965 -0.4778  0.7314  0.4291
18913SOL     OW62701   4.374   8.061  11.561 -0.1480 -0.0321  0.2299
18913SOL    HW162702   4.413   8.044  11.646 -2.1402  2.0318  1.6811
18913SOL    HW262703   4.442   8.109  11.513  1.4799 -2.3340  0.0542
18914SOL     OW62704   5.902   0.968   8.213 -0.0530  0.6568  0.9153
18914SOL    HW162705   5.964   1.037   8.187  1.1937 -1.2946 -1.7667
18914SOL    HW262706   5.952   0.912   8.271 -0.0020  0.2795  0.5119
18915SOL     OW62707  10.691   5.511  11.226 -0.3360 -0.2954  0.1527
18915SOL    HW162708  10.780   5.519  11.190  0.5867 -1.3541  2.0463
18915SOL    HW262709  10.656   5.600  11.222  0.3462 -0.0628 -1.6891
18916SOL     OW62710   0.889   4.066   0.330  0.2595  0.3272 -0.0517
18916SOL    HW162711   0.818   4.131   0.327  1.0336  1.1557 -1.3544
18916SOL    HW262712   0.870   4.007   0.257 -0.2709 -0.7550  0.9421
18917SOL     OW62713   2.289   4.671   6.023  0.4678 -0.2491  0.0072
18917SOL    HW162714   2.223   4.741   6.031  1.3529  0.4988  1.2293
18917SOL    HW262715   2.312   4.670   5.930  0.4947  1.1843 -0.0363
18918SOL     OW62716   5.367   8.312   1.129  0.3271 -0.1711  0.2686
18918SOL    HW162717   5.282   8.280   1.102 -0.5287  0.7555  1.7256
18918SOL    HW262718   5.348   8.389   1.184  2.1728  1.2839 -0.9985
18919SOL     OW62719  10.528   7.060   4.721 -0.1614 -0.2713  0.0381
18919SOL    HW162720  10.434   7.076   4.721 -0.0103  0.6450  0.4609
18919SOL    HW262721  10.537   6.969   4.691 -1.2813 -0.8992  1.4997
18920SOL     OW62722   2.868   1.054  11.905  0.1040  0.2429  0.1567
18920SOL    HW162723   2.817   1.098  11.837 -1.5467 -0.7380  0.6994
18920SOL    HW262724   2.908   1.125  11.955  0.4215  1.0046 -1.1413
18921SOL     OW62725  10.085   4.531  12.222 -0.3218  0.1154  0.2512
18921SOL    HW162726  10.111   4.450  12.180  2.5580  1.3111 -0.4597
18921SOL    HW262727  10.054   4.504  12.309 -2.0639 -1.9363 -0.9129
18922SOL     OW62728  12.487   3.777   8.183 -0.1444  0.3431 -0.1408
18922SOL    HW162729  12.453   3.713   8.245  1.8695 -0.1931  0.5083
18922SOL    HW262730  12.450   3.752   8.099 -2.2337  0.5554  0.6754
18923SOL     OW62731  12.004   4.577   9.050  0.0575  0.0336 -0.0138
18923SOL    HW162732  11.933   4.635   9.021  1.0927  0.9276 -0.8529
18923SOL    HW262733  11.980   4.554   9.140 -1.2236  0.4165 -0.2324
18924SOL     OW62734   2.031   2.093  10.146  0.1832  0.4083  0.1741
18924SOL    HW162735   2.022   2.006  10.186 -0.4499  0.4528  0.1362
18924SOL    HW262736   2.124   2.100  10.125  0.2835 -0.1613  0.4057
18925SOL     OW62737   8.941   6.134   9.322 -0.0857 -0.5980 -0.8913
18925SOL    HW162738   8.856   6.178   9.326  0.3980  0.3084  0.4461
18925SOL    HW262739   9.001   6.196   9.363  0.7001 -2.3788  0.7987
18926SOL     OW62740   3.023   8.565   8.539  0.2351  0.8256  0.4159
18926SOL    HW162741   3.111   8.582   8.506  0.0869 -0.7126 -0.8911
18926SOL    HW262742   3.036   8.511   8.617  0.4678 -1.8207 -1.3268
18927SOL     OW62743  10.766  10.189   1.383  0.2916 -0.5614 -0.4836
18927SOL    HW162744  10.696  10.183   1.448  0.4427  0.0140 -0.2667
18927SOL    HW262745  10.750  10.116   1.324  0.1790 -1.1182  0.2256
18928SOL     OW62746   2.387   3.996   4.797 -0.8166  0.0231 -0.0391
18928SOL    HW162747   2.357   4.030   4.881 -2.0655 -1.4756  0.1732
18928SOL    HW262748   2.355   3.906   4.795  1.9183 -1.0392 -0.7560
18929SOL     OW62749  12.445  12.145   2.204 -0.7661 -0.2369 -0.5295
18929SOL    HW162750  12.468  12.198   2.128  0.0002 -0.2339 -0.3043
18929SOL    HW262751  12.389  12.076   2.169 -0.6989 -0.0364 -1.0421
18930SOL     OW62752   7.117   2.991  12.056  0.6166  0.3251  0.0058
18930SOL    HW162753   7.100   3.082  12.079  1.0761 -0.0686  2.1002
18930SOL    HW262754   7.213   2.984  12.054  0.5865 -0.1464  0.0194
18931SOL     OW62755   5.485   5.538  11.590  0.1970 -0.1072  0.0996
18931SOL    HW162756   5.488   5.589  11.672 -1.1862 -2.9199  2.0639
18931SOL    HW262757   5.576   5.508  11.578  0.2317 -0.4776  1.1881
18932SOL     OW62758   0.421   9.617   5.375  0.4573  0.4266 -0.0036
18932SOL    HW162759   0.369   9.542   5.347  0.4018 -0.0652  1.3414
18932SOL    HW262760   0.356   9.682   5.402  0.4731  1.3907 -2.0991
18933SOL     OW62761  11.967  12.198   9.314 -0.7148  0.2931 -0.5494
18933SOL    HW162762  11.915  12.132   9.359 -2.0519 -0.1345 -2.5450
18933SOL    HW262763  11.931  12.199   9.225  1.1279  1.7394 -1.3442
18934SOL     OW62764   4.195   5.612   2.797 -0.1522 -0.1530 -0.2461
18934SOL    HW162765   4.113   5.662   2.803 -0.7749 -1.3029  1.9857
18934SOL    HW262766   4.175   5.541   2.735 -0.9068 -0.4725  0.3404
18935SOL     OW62767   6.928   3.598   7.008  0.3386 -0.3031  0.3264
18935SOL    HW162768   6.892   3.521   6.964 -1.8726 -1.2226  3.4057
18935SOL    HW262769   6.863   3.667   6.992  0.0078 -0.3819  1.2731
18936SOL     OW62770   3.921   3.737   8.776 -0.1434  0.1803 -0.2703
18936SOL    HW162771   3.983   3.772   8.711 -0.0061  1.2806  0.4347
18936SOL    HW262772   3.840   3.785   8.760 -0.1190  0.4306  0.3546
18937SOL     OW62773  10.603   4.509   6.406  0.8350  0.0767  0.0111
18937SOL    HW162774  10.637   4.575   6.345  1.9581  0.9723  1.5291
18937SOL    HW262775  10.658   4.432   6.392  0.2312 -0.1909 -0.9955
18938SOL     OW62776   3.108   9.661   4.796  0.1488 -0.3783 -0.0128
18938SOL    HW162777   3.140   9.571   4.785  1.2458 -0.6529  3.9286
18938SOL    HW262778   3.013   9.652   4.807  0.3664 -1.2458  1.3703
18939SOL     OW62779  10.385  11.089  11.728 -0.6010  0.3178 -0.5052
18939SOL    HW162780  10.347  11.173  11.751 -1.4709 -0.5143  1.2883
18939SOL    HW262781  10.464  11.111  11.679  0.4407  2.2740  1.8540
18940SOL     OW62782   0.255  10.954   1.892  0.3262  0.2007  0.3027
18940SOL    HW162783   0.243  11.044   1.921  1.4377  0.7268 -0.8094
18940SOL    HW262784   0.191  10.943   1.821  2.4600  1.2765 -1.9294
18941SOL     OW62785  10.265   9.337  10.709 -0.4412 -0.6575 -0.2289
18941SOL    HW162786  10.223   9.383  10.781 -1.4982  0.1013 -1.3001
18941SOL    HW262787  10.357   9.362  10.715 -0.5230 -0.5535  0.7983
18942SOL     OW62788   6.305   7.753   4.156  0.3013  0.1587  0.1368
18942SOL    HW162789   6.245   7.775   4.227 -1.2456  1.0163 -1.3808
18942SOL    HW262790   6.357   7.832   4.144  0.4070  0.0892  0.1256
18943SOL     OW62791  12.135   6.215   6.147 -0.4013 -0.2300  0.2165
18943SOL    HW162792  12.206   6.186   6.204  1.4921  1.5464 -1.0727
18943SOL    HW262793  12.154   6.308   6.130 -1.4229 -0.4175 -2.4467
18944SOL     OW62794   5.934   7.940   1.534  0.3898  0.6140  0.1895
18944SOL    HW162795   5.916   7.855   1.494 -0.5083  0.5172  0.7971
18944SOL    HW262796   5.990   7.920   1.609  1.7203  0.7574 -0.7067
18945SOL     OW62797   8.050   5.641  10.850  0.0949  0.0230  0.4153
18945SOL    HW162798   8.055   5.629  10.945 -1.9202  2.6488  0.9731
18945SOL    HW262799   8.140   5.657  10.822  0.4034  2.7033  2.5280
18946SOL     OW62800   2.788   8.175   3.452  0.3362 -0.2290 -0.7034
18946SOL    HW162801   2.882   8.160   3.465  0.1502 -0.2870  0.7645
18946SOL    HW262802   2.784   8.260   3.407  1.0700  1.3279  1.9355
18947SOL     OW62803   6.825   2.106  12.005  0.6230  0.0696 -0.5032
18947SOL    HW162804   6.890   2.176  12.004 -1.5094  2.2195 -0.6889
18947SOL    HW262805   6.743   2.150  11.980 -1.3518 -1.9520  1.8744
18948SOL     OW62806   6.487  10.599   6.074  0.5866 -0.0262 -0.2453
18948SOL    HW162807   6.433  10.521   6.060 -0.7312  0.4237  1.7871
18948SOL    HW262808   6.444  10.667   6.022  1.5049 -0.5025 -1.6978
18949SOL     OW62809  11.622  10.885  10.917 -0.0434 -0.6417  0.1151
18949SOL    HW162810  11.570  10.931  10.851 -0.0112  2.5429  2.1309
18949SOL    HW262811  11.560  10.827  10.962 -0.5416 -1.1026 -1.1192
18950SOL     OW62812   6.644   8.529   3.863  0.7329 -0.2860  0.4115
18950SOL    HW162813   6.642   8.595   3.932  5.8299 -0.0976  0.7283
18950SOL    HW262814   6.623   8.447   3.907 -0.2893  0.3714  1.1883
18951SOL     OW62815   9.063   6.739  11.493  0.6044  0.3577 -0.0527
18951SOL    HW162816   9.051   6.818  11.440 -2.3403  0.4958  0.6331
18951SOL    HW262817   9.033   6.667  11.438  3.2017 -0.3812 -0.6489
18952SOL     OW62818   4.302   3.957   9.283 -0.6420  0.2685 -0.1022
18952SOL    HW162819   4.262   3.910   9.356 -0.9307 -0.8469 -0.9514
18952SOL    HW262820   4.396   3.954   9.301 -0.4924 -2.1130 -0.9225
18953SOL     OW62821   2.593   3.502   5.734  0.6537 -0.2001 -0.4298
18953SOL    HW162822   2.662   3.439   5.753  1.5148  0.8960  0.2670
18953SOL    HW262823   2.512   3.456   5.753  1.2506 -1.1284 -0.0722
18954SOL     OW62824  10.595   4.116   4.864 -0.3567 -0.2683 -0.3525
18954SOL    HW162825  10.517   4.066   4.887 -0.3050 -0.1699  0.0366
18954SOL    HW262826  10.618   4.085   4.776  0.6750 -2.1880  0.5130
18955SOL     OW62827   7.090  10.126   7.024 -0.0408  0.2681 -0.1079
18955SOL    HW162828   7.055  10.169   6.946 -2.6161 -0.8764  0.2743
18955SOL    HW262829   7.022  10.140   7.091 -1.0068 -3.9272  0.1124
18956SOL     OW62830   7.353  11.546   1.321 -0.0225  0.1603 -0.7469
18956SOL    HW162831   7.406  11.482   1.274 -0.5668  0.1095 -1.3067
18956SOL    HW262832   7.328  11.610   1.255  1.2695  1.4728 -0.0009
18957SOL     OW62833   1.581   2.142   2.651 -0.4239  0.0229  0.0499
18957SOL    HW162834   1.588   2.152   2.746  0.1777 -0.5359  0.0717
18957SOL    HW262835   1.668   2.160   2.618 -0.8828  1.2856 -0.5185
18958SOL     OW62836   4.968   0.157   6.800 -0.4140 -0.3343 -0.2648
18958SOL    HW162837   4.951   0.102   6.876  0.8045 -0.9759 -0.4227
18958SOL    HW262838   5.045   0.208   6.824 -1.3412  1.0964 -0.2464
18959SOL     OW62839   3.594   9.630   4.942 -0.2973 -0.1578  0.4436
18959SOL    HW162840   3.595   9.538   4.968 -0.9190  0.0411  1.1967
18959SOL    HW262841   3.502   9.655   4.948  0.0783  1.0021  2.0157
18960SOL     OW62842   1.439   1.308   5.737 -0.3157 -0.0168 -0.0994
18960SOL    HW162843   1.464   1.267   5.655 -0.4826 -0.5165  0.0964
18960SOL    HW262844   1.346   1.331   5.726 -0.8356 -1.6752  0.5733
18961SOL     OW62845   6.591   3.995  12.476 -0.3584  0.0625 -0.9061
18961SOL    HW162846   6.647   4.000  12.398  1.0213  3.2674  0.1368
18961SOL    HW262847   6.647   3.957  12.543 -0.9878 -1.0415 -0.9818
18962SOL     OW62848   3.724   4.879   5.591 -0.3095  0.1820 -0.0286
18962SOL    HW162849   3.736   4.973   5.575 -0.8571 -0.0110 -1.7715
18962SOL    HW262850   3.629   4.867   5.596 -0.2207 -0.0116  2.2643
18963SOL     OW62851   3.934   6.070   5.928  0.1916 -0.6059 -0.1416
18963SOL    HW162852   3.873   6.120   5.874  0.6913  0.7124  0.4546
18963SOL    HW262853   3.913   6.096   6.018  1.3541 -0.4259  0.0935
18964SOL     OW62854   1.623   9.326   4.160 -0.0992 -0.4987  0.1528
18964SOL    HW162855   1.554   9.300   4.099  0.1779  1.3444 -1.0002
18964SOL    HW262856   1.628   9.253   4.222 -1.1820 -1.9238 -1.3354
18965SOL     OW62857   9.532   7.450   2.165  0.1231  0.0869 -0.2906
18965SOL    HW162858   9.572   7.525   2.209  0.5664 -0.7367  0.7471
18965SOL    HW262859   9.467   7.489   2.107  0.4875  1.2882  0.0687
18966SOL     OW62860  11.107   8.257  11.597 -0.1722  0.7247 -0.5118
18966SOL    HW162861  11.012   8.271  11.591 -0.6518 -1.7070  0.4956
18966SOL    HW262862  11.135   8.320  11.664 -1.6852 -0.7444  1.6438
18967SOL     OW62863   2.860  12.280   4.434 -0.1104 -0.0600  0.4053
18967SOL    HW162864   2.941  12.248   4.474 -0.2343 -1.4647 -0.3922
18967SOL    HW262865   2.889  12.340   4.366  0.2758 -0.4527  0.2157
18968SOL     OW62866   9.345  11.191  11.400 -0.1868 -0.1741 -0.4269
18968SOL    HW162867   9.299  11.119  11.442 -1.0660  0.8128  0.3480
18968SOL    HW262868   9.375  11.247  11.472  0.9153 -0.0000 -0.9876
18969SOL     OW62869   1.981  12.167   2.626  0.3808 -0.5057 -0.1014
18969SOL    HW162870   1.991  12.134   2.537 -0.3522  2.0782 -1.2117
18969SOL    HW262871   2.040  12.242   2.631 -1.7505  1.2271  0.5430
18970SOL     OW62872  11.945  10.901  10.872 -0.0939  0.0525 -0.2619
18970SOL    HW162873  11.861  10.872  10.907  0.9006 -2.0380  0.6439
18970SOL    HW262874  11.966  10.981  10.921 -0.2691 -0.9989  1.6393
18971SOL     OW62875   1.641   1.751   4.008 -0.5656  0.0464  0.3978
18971SOL    HW162876   1.563   1.713   4.048 -1.5011  0.7310 -0.7057
18971SOL    HW262877   1.680   1.804   4.077 -0.2923 -1.3683  1.3792
18972SOL     OW62878   2.705   5.610   0.823  0.3446 -0.7092 -0.0050
18972SOL    HW162879   2.732   5.548   0.891  0.1098  0.8798  1.5890
18972SOL    HW262880   2.612   5.624   0.838  0.3902  0.0201 -0.3595
18973SOL     OW62881  11.163  11.893   9.931 -0.3651 -0.2471  0.2491
18973SOL    HW162882  11.215  11.947   9.991 -0.7486  1.2896 -0.7152
18973SOL    HW262883  11.085  11.870   9.981 -0.0442 -0.1800  0.7919
18974SOL     OW62884   4.636   5.644   5.780  0.2792  0.4042 -0.4577
18974SOL    HW162885   4.627   5.560   5.735  0.1278  0.3575 -0.3413
18974SOL    HW262886   4.580   5.636   5.857  0.4318  0.5338 -0.3320
18975SOL     OW62887   7.083   9.161  10.608 -0.0592 -0.0236  0.4549
18975SOL    HW162888   7.138   9.236  10.587  0.1322 -0.1806  0.3847
18975SOL    HW262889   7.086   9.154  10.704  1.0912 -0.7991  0.3897
18976SOL     OW62890   0.925  10.225   6.405  0.0172 -0.2067 -0.1083
18976SOL    HW162891   0.922  10.270   6.321 -0.5706  0.6127  0.3312
18976SOL    HW262892   0.873  10.280   6.464 -2.9815 -2.6762 -0.1289
18977SOL     OW62893  10.207   2.960  10.872 -0.6338 -0.6066 -0.0539
18977SOL    HW162894  10.214   2.885  10.931  1.2311  0.1040  0.7190
18977SOL    HW262895  10.124   3.001  10.894 -0.4655 -0.9713  1.3529
18978SOL     OW62896  12.120   7.147   5.416  0.0766 -0.1419 -0.3147
18978SOL    HW162897  12.214   7.129   5.423  0.4973  2.0309  0.3886
18978SOL    HW262898  12.089   7.084   5.351  1.8198 -1.5293  0.0918
18979SOL     OW62899  10.135   2.619   2.650 -0.5924 -0.0055 -0.2822
18979SOL    HW162900  10.138   2.589   2.559  1.6199  0.3618 -0.3744
18979SOL    HW262901  10.119   2.713   2.644 -1.4891 -0.1461 -0.2290
18980SOL     OW62902   9.209   7.962   7.647  0.2232  0.7189  0.4284
18980SOL    HW162903   9.179   8.011   7.570 -0.0595 -0.0012  0.0775
18980SOL    HW262904   9.258   7.888   7.612 -1.4536 -0.6662  0.8430
18981SOL     OW62905   5.488   3.917   5.019 -0.1337  0.2162 -0.1200
18981SOL    HW162906   5.555   3.849   5.009 -0.5642 -0.1847 -0.3131
18981SOL    HW262907   5.519   3.989   4.964  0.0635 -0.0301 -0.3362
18982SOL     OW62908   0.248   2.164   0.143  0.6432 -0.0565 -0.5419
18982SOL    HW162909   0.336   2.128   0.139  0.7970  0.2194  0.1874
18982SOL    HW262910   0.198   2.099   0.193  0.9577  0.7749  0.9090
18983SOL     OW62911   9.481   2.728   4.666  0.3727 -0.4605  0.3680
18983SOL    HW162912   9.407   2.779   4.702 -0.3745  0.4224 -2.1970
18983SOL    HW262913   9.450   2.638   4.668 -0.9045 -0.0873 -0.8137
18984SOL     OW62914   5.613   8.641   7.056  0.5746  0.1843  0.1863
18984SOL    HW162915   5.616   8.616   6.964 -0.9675 -0.1789  0.2077
18984SOL    HW262916   5.543   8.588   7.094  1.6848 -0.2470  1.7639
18985SOL     OW62917  10.382  10.686  11.147 -0.1966 -0.0712  0.3600
18985SOL    HW162918  10.370  10.710  11.239  0.1589 -0.3026  0.4720
18985SOL    HW262919  10.467  10.642  11.145  0.5072  1.2640 -0.3478
18986SOL     OW62920   2.934   2.141   2.817  0.6276  0.0651 -0.0682
18986SOL    HW162921   3.027   2.139   2.837  1.1752 -0.0140 -2.3361
18986SOL    HW262922   2.920   2.227   2.777 -0.4395  0.3588  0.8812
18987SOL     OW62923   1.203   5.934  12.327  0.3812  0.4947  0.3375
18987SOL    HW162924   1.205   5.900  12.417 -1.0503 -2.6422 -0.6497
18987SOL    HW262925   1.287   5.907  12.290 -0.7260 -2.3128 -0.4246
18988SOL     OW62926   6.680   9.391   3.735  0.2405 -0.6638 -0.2309
18988SOL    HW162927   6.607   9.345   3.776 -0.4393  0.3636 -0.2604
18988SOL    HW262928   6.756   9.366   3.788 -0.3814 -0.5212  0.7541
18989SOL     OW62929   6.562   2.227  12.339 -0.1864  0.6503 -0.2902
18989SOL    HW162930   6.523   2.228  12.252 -0.4418  0.7648 -0.1761
18989SOL    HW262931   6.649   2.264  12.327 -0.9182  2.4939 -0.1770
18990SOL     OW62932   4.681   5.589   3.026  0.9549  0.6283  0.4360
18990SOL    HW162933   4.587   5.592   3.010  0.6637 -0.0245  1.8440
18990SOL    HW262934   4.698   5.664   3.082  1.2127  0.5733  0.4316
18991SOL     OW62935   0.139   7.188   0.600  0.2555  0.3867 -0.6276
18991SOL    HW162936   0.215   7.236   0.568  0.5517  0.0718 -0.4044
18991SOL    HW262937   0.175   7.107   0.637 -0.1255  0.5342  0.0778
18992SOL     OW62938   2.314   5.458   7.664 -0.0432 -0.8550  0.3188
18992SOL    HW162939   2.310   5.402   7.586  1.5415 -0.6827  0.0750
18992SOL    HW262940   2.228   5.500   7.667 -0.7163 -2.1047 -0.3864
18993SOL     OW62941   5.858   8.028   9.403  0.3803  0.0314 -0.0329
18993SOL    HW162942   5.767   8.037   9.433  1.0459  0.9429  1.8700
18993SOL    HW262943   5.911   8.063   9.475  2.3323 -1.7241 -0.5131
18994SOL     OW62944   5.005   4.011  11.589  0.3411 -0.2145  0.0420
18994SOL    HW162945   5.015   4.042  11.679  2.0535 -0.5020 -0.0084
18994SOL    HW262946   4.935   4.065  11.552 -0.2875 -0.0019  1.4954
18995SOL     OW62947  10.616   0.693   8.599  0.6093  0.4143  0.1757
18995SOL    HW162948  10.689   0.646   8.639  0.1231 -0.6420 -0.1608
18995SOL    HW262949  10.610   0.659   8.510 -0.8013 -0.1230  0.4474
18996SOL     OW62950   5.339   2.369   4.816 -0.4224  0.4287  0.0391
18996SOL    HW162951   5.318   2.276   4.819  0.5653  0.1710 -0.4907
18996SOL    HW262952   5.378   2.382   4.730 -0.7339  1.3795  0.0309
18997SOL     OW62953   0.396   8.683   3.195 -0.2142 -0.2530 -0.3619
18997SOL    HW162954   0.460   8.753   3.187 -0.6194  0.2345  0.5325
18997SOL    HW262955   0.326   8.709   3.135  0.4225 -0.8078 -1.3706
18998SOL     OW62956   7.217   2.044   9.341  0.1444 -0.1023 -0.3325
18998SOL    HW162957   7.234   2.040   9.435  0.9651 -1.3172 -0.5102
18998SOL    HW262958   7.304   2.046   9.301 -0.1925  0.1138 -1.0783
18999SOL     OW62959  10.838   9.083   6.461 -0.3428 -0.2594 -0.4148
18999SOL    HW162960  10.759   9.068   6.408  0.5975 -0.4004 -1.8306
18999SOL    HW262961  10.903   9.113   6.398  1.1458 -1.4770  0.4913
19000SOL     OW62962  12.364   6.085   9.067  0.3305  0.1552  0.5690
19000SOL    HW162963  12.407   6.170   9.054 -0.4983  0.3201 -1.4483
19000SOL    HW262964  12.426   6.021   9.032 -0.6738  0.3441 -1.7784
19001SOL     OW62965   2.639   9.157   3.154  0.3003  0.6703 -0.1420
19001SOL    HW162966   2.677   9.238   3.119  1.5719  0.5039  0.8131
19001SOL    HW262967   2.665   9.089   3.093 -1.8670  1.1133 -1.6812
19002SOL     OW62968   9.022   8.327   2.667  0.1923  0.4566 -0.4361
19002SOL    HW162969   9.061   8.364   2.588  0.4765  0.1382 -0.4479
19002SOL    HW262970   8.928   8.339   2.655  0.3078  1.6477 -0.1890
19003SOL     OW62971   1.207   3.097   0.083  0.4104  0.1034 -0.1428
19003SOL    HW162972   1.138   3.042   0.048  0.4707 -0.5168  0.6814
19003SOL    HW262973   1.181   3.186   0.059 -0.4632 -0.1557 -0.1933
19004SOL     OW62974   6.184  12.294   8.378  0.1535 -0.0953  0.1678
19004SOL    HW162975   6.269  12.269   8.413  0.6318 -1.9298 -2.0377
19004SOL    HW262976   6.193  12.282   8.283 -1.9200  1.7404 -0.3510
19005SOL     OW62977  10.167   5.588  11.229  0.5584 -0.3471  0.3643
19005SOL    HW162978  10.164   5.503  11.274 -0.9789  0.0569  1.0774
19005SOL    HW262979  10.189   5.651  11.298 -0.3661  0.0914  0.2704
19006SOL     OW62980   0.253   9.265  10.547  0.7235 -0.2587 -0.2314
19006SOL    HW162981   0.287   9.273  10.458  0.3645 -0.9580 -0.4352
19006SOL    HW262982   0.163   9.233  10.536  0.5335  0.0466  0.3652
19007SOL     OW62983   0.782   1.920   5.405  0.2356 -0.1351 -0.7634
19007SOL    HW162984   0.799   1.965   5.488 -0.0902 -0.8506 -0.3067
19007SOL    HW262985   0.790   1.989   5.339 -0.4316  0.6309 -0.0582
19008SOL     OW62986   8.435   8.789   2.744  0.1716 -0.0715 -0.0678
19008SOL    HW162987   8.480   8.830   2.817  0.2759  0.3287 -0.3552
19008SOL    HW262988   8.424   8.859   2.680 -0.4332 -0.2750 -0.1984
19009SOL     OW62989   8.220   0.286   6.990  0.3863  0.8188 -0.6545
19009SOL    HW162990   8.285   0.262   6.924 -1.6610 -1.0459 -2.1285
19009SOL    HW262991   8.164   0.351   6.946 -0.4227  0.2787 -0.4338
19010SOL     OW62992   4.156  10.693   9.300  0.6223  0.3370 -0.3143
19010SOL    HW162993   4.068  10.712   9.331  0.3170  1.4375 -1.7309
19010SOL    HW262994   4.199  10.650   9.373 -1.2369 -0.6761  0.2263
19011SOL     OW62995   8.591   8.256   3.504 -0.7414  0.4810 -0.5081
19011SOL    HW162996   8.529   8.324   3.528 -1.8503 -0.2693 -1.1812
19011SOL    HW262997   8.623   8.280   3.417 -0.5823  0.5178 -0.4407
19012SOL     OW62998   3.740   8.719   1.013 -0.2269  0.0819  0.2269
19012SOL    HW162999   3.812   8.704   0.953 -0.7720  2.5490 -1.1754
19012SOL    HW263000   3.722   8.633   1.051  1.7053 -1.0905 -1.3408
19013SOL     OW63001  12.144   5.856   9.810 -0.1147 -0.6216 -0.1460
19013SOL    HW163002  12.224   5.818   9.775  0.5526  1.1549 -0.6660
19013SOL    HW263003  12.158   5.859   9.904  1.4754  1.7325 -0.3646
19014SOL     OW63004   0.559   4.495   7.088 -0.0103 -0.1434  0.8110
19014SOL    HW163005   0.564   4.461   7.178 -0.8620 -1.5041  0.3678
19014SOL    HW263006   0.608   4.432   7.036 -0.3939  0.0856  0.1674
19015SOL     OW63007  11.391   5.221   4.507 -0.0960  0.6508  0.1862
19015SOL    HW163008  11.356   5.286   4.447 -0.8817 -0.6770 -0.8532
19015SOL    HW263009  11.345   5.237   4.590 -0.2291  1.4220 -0.0279
19016SOL     OW63010   2.448   3.499  12.280  0.9146 -0.1341  0.1169
19016SOL    HW163011   2.531   3.476  12.322  0.8525  1.5257  1.2425
19016SOL    HW263012   2.474   3.550  12.203  0.9648  1.4972  1.1700
19017SOL     OW63013   0.374   8.568   8.566 -0.2072  0.6539  0.5029
19017SOL    HW163014   0.327   8.646   8.538  0.1524  1.1681  1.2645
19017SOL    HW263015   0.407   8.529   8.486 -0.3609  1.3152  0.1092
19018SOL     OW63016   4.663   0.518   7.463  0.1231  0.2926  0.0507
19018SOL    HW163017   4.579   0.474   7.471  0.5377 -0.4103  0.7455
19018SOL    HW263018   4.669   0.544   7.371 -0.1635 -1.0428 -0.3576
19019SOL     OW63019  11.983   2.973   0.420  0.2967  0.1978  0.0266
19019SOL    HW163020  12.027   2.939   0.341  0.3740  0.6084 -0.1086
19019SOL    HW263021  12.052   3.019   0.468  0.0316  0.7972 -0.1569
19020SOL     OW63022   9.260   6.338   5.463  0.2656 -0.0821  0.0847
19020SOL    HW163023   9.236   6.371   5.377  0.1819  0.5079  0.3288
19020SOL    HW263024   9.332   6.395   5.491  0.4745 -0.4433  0.2920
19021SOL     OW63025   9.015  10.628  10.706 -0.1623 -0.0856 -0.2824
19021SOL    HW163026   9.058  10.682  10.640 -1.2301  0.3898 -0.6175
19021SOL    HW263027   8.936  10.595  10.663 -0.9784  0.3949  0.7975
19022SOL     OW63028  10.267   5.723  10.079 -0.2297 -0.1961 -0.2637
19022SOL    HW163029  10.251   5.707  10.172  0.1670 -0.9479 -0.3143
19022SOL    HW263030  10.191   5.773  10.050 -0.4410 -0.1081  0.4293
19023SOL     OW63031  10.954  10.879   6.209  0.3508 -0.5680 -0.2544
19023SOL    HW163032  10.986  10.960   6.248  0.2133  0.6091 -2.3987
19023SOL    HW263033  11.031  10.823   6.204  0.7138 -0.1141  0.1850
19024SOL     OW63034   2.433   6.376   0.023  0.0084 -0.5155  0.1125
19024SOL    HW163035   2.353   6.333  -0.006 -0.3803  0.7580 -0.8010
19024SOL    HW263036   2.493   6.369  -0.052  0.5409 -0.9198  0.5658
19025SOL     OW63037   7.555   3.664   8.809 -0.8471  0.2570 -0.2392
19025SOL    HW163038   7.648   3.665   8.835 -0.9077 -1.0437  0.1234
19025SOL    HW263039   7.551   3.723   8.734  0.4735 -0.3680 -0.8493
19026SOL     OW63040   0.880   7.919  12.238  0.7080  0.1217 -0.9450
19026SOL    HW163041   0.833   7.896  12.158  0.7733 -3.6183 -0.1029
19026SOL    HW263042   0.811   7.945  12.300  0.4441  0.8745 -1.5399
19027SOL     OW63043  12.119   3.233   6.926 -0.1976  0.0724  0.5737
19027SOL    HW163044  12.033   3.262   6.956 -0.2575  0.2578  0.2232
19027SOL    HW263045  12.100   3.171   6.855 -0.0274  0.9262 -0.2347
19028SOL     OW63046   5.588  12.106   8.574 -0.0452  0.0160 -0.1147
19028SOL    HW163047   5.551  12.136   8.491 -1.1022 -1.7201 -0.3341
19028SOL    HW263048   5.513  12.097   8.632  0.9123  3.4894  1.9045
19029SOL     OW63049   9.193   8.236   2.871 -0.1588  0.3027  0.5996
19029SOL    HW163050   9.269   8.285   2.840 -1.4944  2.3433  0.3614
19029SOL    HW263051   9.133   8.232   2.797 -0.8720 -0.0715  1.1704
19030SOL     OW63052   0.955  11.061   9.347  0.2573  0.6298  0.0319
19030SOL    HW163053   0.897  11.111   9.405  0.2392 -0.4631  0.9885
19030SOL    HW263054   0.903  10.985   9.321  0.0488  1.3702 -1.9300
19031SOL     OW63055   6.623  10.209  11.772  0.6048  0.1812 -0.0573
19031SOL    HW163056   6.689  10.152  11.809  0.0095  0.5098  1.5937
19031SOL    HW263057   6.597  10.266  11.845  1.0945  2.4838 -1.5872
19032SOL     OW63058   7.335  11.211   3.635  0.0068  0.2153 -0.0386
19032SOL    HW163059   7.240  11.201   3.641 -0.0456  0.2206 -0.7742
19032SOL    HW263060   7.361  11.152   3.564  0.5991 -0.0450  0.3839
19033SOL     OW63061   9.162  11.953  10.784 -0.3276 -0.6189  0.0988
19033SOL    HW163062   9.223  11.989  10.720 -1.7307 -0.4309 -1.1782
19033SOL    HW263063   9.213  11.886  10.831  0.6932 -0.8598 -1.3087
19034SOL     OW63064   0.174   0.461  11.399 -0.6453  0.1625 -0.1173
19034SOL    HW163065   0.102   0.524  11.405 -0.2502  0.5151  1.2271
19034SOL    HW263066   0.252   0.515  11.388 -0.5751 -0.2299 -1.7980
19035SOL     OW63067   2.605   7.494  10.755 -0.3148 -0.0028  0.5882
19035SOL    HW163068   2.591   7.416  10.702  0.0417 -0.7658  1.5709
19035SOL    HW263069   2.558   7.476  10.837 -1.4722  1.4449  0.2985
19036SOL     OW63070  11.214   0.329  11.832  0.0164 -0.7818  0.1946
19036SOL    HW163071  11.251   0.320  11.920  0.2739  0.8110  0.2847
19036SOL    HW263072  11.268   0.396  11.790 -0.2248 -1.3745 -1.1259
19037SOL     OW63073   5.726   4.907   8.031  0.0408 -0.3223 -0.2014
19037SOL    HW163074   5.640   4.942   8.054 -0.4309 -1.4699 -0.1858
19037SOL    HW263075   5.785   4.946   8.095 -0.8437 -1.4245  1.3658
19038SOL     OW63076   4.591   7.565   1.279 -0.7539 -0.7558 -1.0522
19038SOL    HW163077   4.532   7.547   1.206 -0.0871  0.8271 -2.0253
19038SOL    HW263078   4.613   7.657   1.270  0.2195 -0.7977  0.5273
19039SOL     OW63079   1.304   1.446   2.131 -0.4483  0.1614 -0.0234
19039SOL    HW163080   1.372   1.511   2.121 -1.2654  1.1747  0.7925
19039SOL    HW263081   1.349   1.369   2.165  0.1599  1.1188  1.4114
19040SOL     OW63082  10.776   3.766  11.804  0.2029 -0.1205 -0.1973
19040SOL    HW163083  10.688   3.763  11.841  1.1972  1.1619  2.5357
19040SOL    HW263084  10.798   3.859  11.801  0.5980 -0.2113 -3.3043
19041SOL     OW63085   8.991  10.652   7.276  0.3760 -0.1581  0.0953
19041SOL    HW163086   8.934  10.682   7.206  0.2954  1.2099  0.7060
19041SOL    HW263087   8.992  10.557   7.269  0.4287 -0.0444 -1.7928
19042SOL     OW63088   8.082   4.433   5.807 -0.2275 -0.1367  0.3953
19042SOL    HW163089   7.996   4.473   5.796  1.1230  2.1854 -3.9197
19042SOL    HW263090   8.131   4.495   5.860 -0.3591  0.0804  0.2644
19043SOL     OW63091   1.817  12.284   8.751 -0.2621 -0.1717 -0.4312
19043SOL    HW163092   1.734  12.299   8.706 -0.7643  0.0885  0.5576
19043SOL    HW263093   1.876  12.250   8.683 -1.5472 -1.6159 -0.8664
19044SOL     OW63094   5.886  12.059   6.585 -0.6950 -0.3903 -0.0258
19044SOL    HW163095   5.810  12.069   6.643 -0.4809  0.4591  0.1251
19044SOL    HW263096   5.862  12.108   6.506  0.2523  1.1268  0.5853
19045SOL     OW63097   6.005  11.297   1.377  0.1007  0.4832 -0.4589
19045SOL    HW163098   6.071  11.299   1.446  1.6593 -0.5651 -1.8481
19045SOL    HW263099   5.922  11.288   1.423  1.1691 -1.3066  1.2598
19046SOL     OW63100   0.615   1.025   3.054  0.1329 -0.2588 -0.5490
19046SOL    HW163101   0.676   1.064   3.117  1.0391 -1.7804 -0.4266
19046SOL    HW263102   0.650   1.050   2.969  1.3570 -1.6533 -0.4953
19047SOL     OW63103   9.284   0.812   3.819 -0.0180  0.2264 -0.5980
19047SOL    HW163104   9.347   0.739   3.827  0.6154  0.8446  0.1533
19047SOL    HW263105   9.339   0.890   3.816 -0.7489  0.7559 -0.2441
19048SOL     OW63106  11.052   6.834   6.117 -0.3556 -0.2852  0.1547
19048SOL    HW163107  11.135   6.858   6.076  0.1556 -0.4398  1.0650
19048SOL    HW263108  11.011   6.917   6.139 -0.5893 -0.2029 -0.5750
19049SOL     OW63109   4.881  12.107  10.384 -0.2605  0.0111  0.2580
19049SOL    HW163110   4.842  12.074  10.465 -1.2917 -0.8327 -0.5489
19049SOL    HW263111   4.812  12.158  10.343  1.0348  2.5823  1.0588
19050SOL     OW63112  10.636   9.323   9.977 -0.4097  0.7815 -0.1237
19050SOL    HW163113  10.666   9.281  10.058 -0.3306 -1.6913 -1.3236
19050SOL    HW263114  10.665   9.414   9.985 -1.7003  1.0708  3.2399
19051SOL     OW63115   8.752   0.086   6.617  0.2174 -0.1032 -0.1422
19051SOL    HW163116   8.722   0.015   6.674 -0.8921  0.0355 -0.5323
19051SOL    HW263117   8.845   0.066   6.601  0.1851 -0.8913  0.5927
19052SOL     OW63118   7.183   5.550   9.684  0.1005  0.2843 -0.3786
19052SOL    HW163119   7.239   5.557   9.761  2.2971  1.0571 -1.9349
19052SOL    HW263120   7.111   5.610   9.701  0.3702  0.2072  1.1867
19053SOL     OW63121   3.604   8.484   0.091  0.1900 -0.2933  0.1873
19053SOL    HW163122   3.522   8.438   0.111 -0.8017  0.8618 -1.0194
19053SOL    HW263123   3.599   8.565   0.142 -0.1117  0.4330 -0.9578
19054SOL     OW63124   2.291   1.648   2.296 -0.2558  0.2122  0.5264
19054SOL    HW163125   2.211   1.691   2.327 -2.1540 -1.1700 -2.0844
19054SOL    HW263126   2.298   1.675   2.204  2.4901  0.4906  0.7363
19055SOL     OW63127   5.151   5.031   5.593 -0.5007 -0.4708 -0.3243
19055SOL    HW163128   5.143   5.109   5.538 -2.3100 -0.5729 -0.2497
19055SOL    HW263129   5.073   4.979   5.572 -0.3104 -1.3479  1.0482
19056SOL     OW63130   5.571   0.454   5.193  0.5697 -0.4142 -0.2403
19056SOL    HW163131   5.597   0.507   5.117  1.8588 -0.1996  0.3355
19056SOL    HW263132   5.609   0.499   5.268 -3.6206  1.4604  1.0533
19057SOL     OW63133   7.961   6.503   6.912 -0.1858 -0.0540  0.2377
19057SOL    HW163134   7.988   6.554   6.988  0.7243 -0.6468  0.3333
19057SOL    HW263135   7.915   6.428   6.948 -1.3665  0.5870  0.1057
19058SOL     OW63136   6.332  10.919  12.216 -0.0787 -0.2279 -1.2174
19058SOL    HW163137   6.416  10.913  12.171  1.7927 -2.1736  2.1624
19058SOL    HW263138   6.336  11.003  12.262  0.7128 -0.9320  0.0550
19059SOL     OW63139   0.790   5.390  11.767 -0.4632 -0.0530 -0.1197
19059SOL    HW163140   0.770   5.459  11.704 -0.3762 -0.5941 -0.7577
19059SOL    HW263141   0.882   5.402  11.789 -0.8466  0.9870  0.9853
19060SOL     OW63142   8.143   7.506  10.225 -0.2518  0.0046 -0.1093
19060SOL    HW163143   8.207   7.511  10.296  0.1789  0.1335 -0.5053
19060SOL    HW263144   8.134   7.413  10.208  1.3388  0.0501 -1.4001
19061SOL     OW63145   9.029   4.837   3.600 -0.1344 -0.1106 -0.0691
19061SOL    HW163146   9.028   4.766   3.664 -0.2242  0.4296  0.5472
19061SOL    HW263147   9.098   4.895   3.630  2.0599 -1.3936 -2.2497
19062SOL     OW63148   2.694   8.798   8.355 -0.2931 -0.3785  0.1382
19062SOL    HW163149   2.763   8.837   8.408 -0.1086  0.7220 -0.8735
19062SOL    HW263150   2.722   8.707   8.341 -0.0557 -0.5069  1.3937
19063SOL     OW63151  12.445   1.720   8.395 -0.0618 -0.1082  0.4833
19063SOL    HW163152  12.521   1.667   8.419  0.1488 -1.2976 -2.4163
19063SOL    HW263153  12.378   1.656   8.369 -0.4392  0.9682 -1.3767
19064SOL     OW63154   7.211  10.648   1.899  0.1046  0.2285  0.8015
19064SOL    HW163155   7.169  10.712   1.841 -0.9799 -0.6382  0.6154
19064SOL    HW263156   7.305  10.663   1.887 -0.1168  1.9122  0.9088
19065SOL     OW63157   9.898   9.853   5.756  0.0371  0.1928 -0.1689
19065SOL    HW163158   9.890   9.947   5.772  1.2057 -0.1038  2.8275
19065SOL    HW263159   9.863   9.813   5.835  0.4173 -1.8724 -0.9927
19066SOL     OW63160   7.083   2.526   9.240 -0.3776 -0.0046  0.2229
19066SOL    HW163161   7.011   2.524   9.303 -2.1630 -0.9490 -1.6970
19066SOL    HW263162   7.066   2.604   9.186 -0.7372 -0.8982 -1.0107
19067SOL     OW63163   1.527   7.621  10.219 -0.1816 -0.6256  0.1447
19067SOL    HW163164   1.571   7.701  10.249 -0.5559 -0.0281 -0.8749
19067SOL    HW263165   1.578   7.550  10.259  1.4053  0.0557 -0.5633
19068SOL     OW63166   7.480   8.643   8.705  0.3172  0.0848 -0.2740
19068SOL    HW163167   7.535   8.566   8.693 -0.6166 -0.5135 -0.8650
19068SOL    HW263168   7.436   8.655   8.621 -1.1318  0.0010  0.4364
19069SOL     OW63169   8.063   7.039   8.452  0.7087  0.2063 -0.4775
19069SOL    HW163170   8.065   7.113   8.513 -3.4760  2.7389 -2.9306
19069SOL    HW263171   8.033   6.966   8.506 -1.1991  1.9192  0.9749
19070SOL     OW63172  10.045   4.745   0.511 -0.1614 -0.3831  0.1052
19070SOL    HW163173   9.978   4.810   0.491  0.7877  0.6589  0.2110
19070SOL    HW263174  10.017   4.706   0.594 -0.6823 -0.0317  0.1001
19071SOL     OW63175   6.101  11.116   0.568  0.7413  0.0291 -0.5098
19071SOL    HW163176   6.137  11.201   0.542  1.9781 -0.2846  0.1101
19071SOL    HW263177   6.051  11.135   0.648 -0.5258  0.4738 -1.3913
19072SOL     OW63178   6.443   1.110   5.624  0.1653 -0.9034 -0.2843
19072SOL    HW163179   6.417   1.172   5.693  0.3897 -0.3856 -0.6570
19072SOL    HW263180   6.536   1.096   5.639  0.1860 -0.8910 -0.4047
19073SOL     OW63181   4.471   0.171   5.320 -0.1785  0.0005  0.6238
19073SOL    HW163182   4.421   0.177   5.402 -1.4352  0.2333 -0.1364
19073SOL    HW263183   4.482   0.262   5.292 -0.3721 -0.1192  0.1618
19074SOL     OW63184   7.618   8.979   1.876  0.6172 -0.2211 -0.3225
19074SOL    HW163185   7.608   9.071   1.848 -0.3336 -0.4361 -0.7408
19074SOL    HW263186   7.548   8.933   1.830  1.0558 -1.1553 -0.0694
19075SOL     OW63187   4.880   2.839   7.130 -0.1525  0.3031 -0.1239
19075SOL    HW163188   4.936   2.763   7.112 -2.2112 -1.1905 -0.6847
19075SOL    HW263189   4.923   2.912   7.087  0.3567 -1.1748 -2.2882
19076SOL     OW63190  12.203   2.453  10.510  0.3574  0.8072  0.4795
19076SOL    HW163191  12.112   2.476  10.527 -0.0209 -1.3999  1.9623
19076SOL    HW263192  12.203   2.422  10.420 -0.5383  0.1842  0.6747
19077SOL     OW63193   2.612  10.672   6.477 -0.0342  0.5358 -0.2631
19077SOL    HW163194   2.667  10.745   6.450 -0.4214  0.4898 -1.2037
19077SOL    HW263195   2.629  10.603   6.413 -1.3291  0.5953 -0.7073
19078SOL     OW63196   5.548   1.956   4.172  0.3746  0.5197 -0.1906
19078SOL    HW163197   5.486   1.914   4.113  0.5580  1.5881 -1.1784
19078SOL    HW263198   5.609   1.886   4.197  0.6604  0.1684 -1.7705
19079SOL     OW63199   2.886   6.860   6.185 -0.4044  0.1323  0.1079
19079SOL    HW163200   2.880   6.929   6.251 -1.1227  0.0913  0.0981
19079SOL    HW263201   2.872   6.779   6.234 -2.7506  0.2059 -0.3069
19080SOL     OW63202   9.024   7.159  10.264 -0.0968 -0.0604  0.1553
19080SOL    HW163203   8.990   7.077  10.299 -0.1521  0.7622  2.1630
19080SOL    HW263204   9.118   7.156  10.281  0.0194 -0.0129 -0.4433
19081SOL     OW63205  11.306   6.250   9.700  0.0446 -0.5921 -0.2330
19081SOL    HW163206  11.308   6.345   9.704  1.0687 -0.6083 -0.1636
19081SOL    HW263207  11.380   6.226   9.644 -1.5926 -1.2621 -2.2709
19082SOL     OW63208   5.018   9.793  12.348  0.2022  0.4641  0.6234
19082SOL    HW163209   5.000   9.790  12.442 -0.8414 -2.1078  0.4349
19082SOL    HW263210   5.113   9.787  12.341  0.2747  0.4437  1.5326
19083SOL     OW63211   5.027  10.048   2.525  0.7740  0.0821 -0.0393
19083SOL    HW163212   5.100  10.060   2.464  1.1240  0.1904  0.3956
19083SOL    HW263213   4.949  10.060   2.471  1.0805  0.4214 -0.4153
19084SOL     OW63214   2.213   8.002   2.756  1.0349 -0.3024  0.3137
19084SOL    HW163215   2.156   7.998   2.679 -0.8713 -0.7309  1.6845
19084SOL    HW263216   2.231   8.095   2.767 -1.2912  0.1292  1.1114
19085SOL     OW63217   5.913   2.192  11.604 -0.3160 -0.2012 -0.4396
19085SOL    HW163218   5.835   2.143  11.576 -0.1547  0.2129 -1.7106
19085SOL    HW263219   5.911   2.272  11.550  0.7772  0.0011 -0.1992
19086SOL     OW63220   5.168  10.461   7.311  0.5993 -0.1836 -0.3339
19086SOL    HW163221   5.168  10.495   7.222 -0.9559 -0.5752 -0.5147
19086SOL    HW263222   5.224  10.383   7.307 -0.5897 -1.0280 -1.3379
19087SOL     OW63223   4.758   0.810   5.064  0.3454  0.2126  0.2489
19087SOL    HW163224   4.810   0.890   5.061  2.1957 -0.8640  1.1630
19087SOL    HW263225   4.672   0.837   5.096  0.8116  1.8712  0.1656
19088SOL     OW63226   5.577   4.336   7.332 -0.0352  0.2003  0.3027
19088SOL    HW163227   5.549   4.402   7.268  0.0323 -1.4902 -1.5798
19088SOL    HW263228   5.652   4.375   7.376 -0.9455  1.9776  0.3824
19089SOL     OW63229   3.813   8.346   2.892  0.4476 -0.1911  0.6211
19089SOL    HW163230   3.862   8.424   2.916  0.4085 -0.5854  2.0539
19089SOL    HW263231   3.789   8.305   2.975 -0.8274 -0.9307 -0.0636
19090SOL     OW63232   9.286   6.817   6.036 -0.1881 -0.0435  0.0993
19090SOL    HW163233   9.267   6.832   5.944 -0.0474 -0.9463 -0.0891
19090SOL    HW263234   9.324   6.900   6.066  0.1584  0.1267 -0.7609
19091SOL     OW63235   5.437   8.092   5.305 -0.1619  0.3902  0.2198
19091SOL    HW163236   5.397   8.045   5.232 -2.3017  3.3710 -0.7023
19091SOL    HW263237   5.483   8.165   5.265 -2.0916  2.5869  1.7332
19092SOL     OW63238   9.134   6.571   3.257 -0.1729 -0.5183 -0.5392
19092SOL    HW163239   9.193   6.583   3.182 -1.1082  0.5932 -1.1283
19092SOL    HW263240   9.108   6.660   3.281 -2.3444 -0.9998 -0.9097
19093SOL     OW63241  11.320   8.572   6.669  0.6007 -0.0145 -0.1068
19093SOL    HW163242  11.275   8.644   6.712  1.5801  2.7397 -3.2892
19093SOL    HW263243  11.275   8.561   6.585  1.5884 -1.9174 -0.4587
19094SOL     OW63244   8.341   9.502   8.478 -0.0627 -0.6848  0.4328
19094SOL    HW163245   8.431   9.524   8.454 -0.2992 -0.5942 -0.4050
19094SOL    HW263246   8.336   9.519   8.572  0.6484 -0.1974  0.3888
19095SOL     OW63247  10.462   8.114   4.602  0.3402  0.2825  0.1409
19095SOL    HW163248  10.549   8.113   4.640  1.0218 -1.1162 -1.3541
19095SOL    HW263249  10.476   8.098   4.509 -1.5814 -1.3480  0.0582
19096SOL     OW63250   0.692   1.032  10.116 -0.0862 -0.1956  0.3884
19096SOL    HW163251   0.731   1.107  10.071 -0.0080 -0.0360  0.7139
19096SOL    HW263252   0.722   1.041  10.207  0.7575 -1.1699  0.2282
19097SOL     OW63253   5.748   9.274   5.056  0.4253 -0.1031  0.6038
19097SOL    HW163254   5.827   9.222   5.068  0.6693  0.0145 -0.4014
19097SOL    HW263255   5.762   9.319   4.973  0.0740  1.3018  1.2750
19098SOL     OW63256   9.714  10.375   7.817 -0.2707  0.1235 -0.6243
19098SOL    HW163257   9.639  10.422   7.780  1.7325  2.5389 -1.9801
19098SOL    HW263258   9.738  10.311   7.751 -0.9273 -0.4272 -0.3328
19099SOL     OW63259   5.667   8.642   4.301  0.2413 -0.6396 -0.1439
19099SOL    HW163260   5.598   8.664   4.239 -1.9789 -3.4413  1.0897
19099SOL    HW263261   5.723   8.580   4.253  0.6901  0.0020 -0.4645
19100SOL     OW63262   8.868  11.907   1.684 -0.4083  0.5527 -0.1857
19100SOL    HW163263   8.963  11.917   1.679 -0.3910  1.5149  1.3705
19100SOL    HW263264   8.854  11.813   1.677  0.5973  0.4541 -1.1405
19101SOL     OW63265   7.688   4.079  10.230  0.0274  0.0307  0.2133
19101SOL    HW163266   7.664   4.010  10.292  1.5667 -0.6093  0.1231
19101SOL    HW263267   7.719   4.033  10.153 -1.8258  0.8233 -1.0837
19102SOL     OW63268   6.672   0.354   9.402  0.2447  0.6651  0.1157
19102SOL    HW163269   6.744   0.379   9.344  1.3253 -0.7409  0.7740
19102SOL    HW263270   6.628   0.282   9.356 -0.6843  1.4378 -0.2276
19103SOL     OW63271   8.019   0.623  11.957 -0.2814 -0.5680  0.6766
19103SOL    HW163272   8.109   0.594  11.940 -0.9782 -1.8434 -1.1027
19103SOL    HW263273   7.971   0.543  11.975 -1.3589 -0.0679  0.1095
19104SOL     OW63274   6.456  11.489  11.276 -0.1101 -0.3465  0.5554
19104SOL    HW163275   6.517  11.483  11.203 -1.0394 -0.9616 -0.1995
19104SOL    HW263276   6.502  11.540  11.342  0.3069  1.2747 -0.9128
19105SOL     OW63277  12.039   8.561  12.430 -0.5628 -0.0543  0.2079
19105SOL    HW163278  12.073   8.512  12.505 -0.7267  1.2776  1.2000
19105SOL    HW263279  12.076   8.649  12.441 -3.7721  1.3388  1.0423
19106SOL     OW63280   2.057   3.097   4.530  0.4415 -0.1967  0.5862
19106SOL    HW163281   1.998   3.051   4.471  0.3921  0.6305 -0.0393
19106SOL    HW263282   2.036   3.190   4.517  0.6638  0.0190  1.6649
19107SOL     OW63283   1.987   6.923  10.635  0.4495  0.1167  0.4787
19107SOL    HW163284   1.947   6.858  10.576  3.1475 -0.8262 -0.4740
19107SOL    HW263285   1.946   6.907  10.720 -2.6761  0.6802 -0.7868
19108SOL     OW63286  11.575   0.867   9.855 -0.1326  0.4655  0.2645
19108SOL    HW163287  11.538   0.804   9.793  0.6347  0.3197 -0.0476
19108SOL    HW263288  11.620   0.931   9.800  0.4777  0.3854  0.6634
19109SOL     OW63289   7.328   6.802  11.102 -0.1586  0.2378 -0.3334
19109SOL    HW163290   7.341   6.890  11.066  0.0357  0.6541  0.7334
19109SOL    HW263291   7.243   6.806  11.145 -0.5454 -0.3588 -1.0251
19110SOL     OW63292   7.762   4.920   5.340 -0.1173  0.0100 -0.1811
19110SOL    HW163293   7.758   4.852   5.273 -0.0057 -0.0584 -0.1202
19110SOL    HW263294   7.709   4.992   5.305  2.0156  1.0268 -1.5269
19111SOL     OW63295  11.936  11.507  10.638 -0.4062 -0.2597 -0.3061
19111SOL    HW163296  12.028  11.482  10.642 -0.2844  0.0237 -1.0367
19111SOL    HW263297  11.909  11.515  10.729 -0.4436 -2.9219  0.0023
19112SOL     OW63298   4.861   3.772  11.078 -0.4502  0.8154 -0.9166
19112SOL    HW163299   4.895   3.735  11.159 -0.5614 -1.8802 -2.0014
19112SOL    HW263300   4.792   3.832  11.106 -0.2698  0.2123  0.9608
19113SOL     OW63301   6.823   1.062   2.697  0.2124 -0.8327  0.3773
19113SOL    HW163302   6.872   1.090   2.774  0.5445 -0.2666 -0.0275
19113SOL    HW263303   6.794   1.143   2.656 -0.5859 -1.1517  0.3033
19114SOL     OW63304   9.559   5.783  11.050  0.2839 -0.7172  0.2302
19114SOL    HW163305   9.551   5.689  11.068 -2.5008 -0.8159 -0.9847
19114SOL    HW263306   9.511   5.796  10.968  0.0696  1.8605  0.6748
19115SOL     OW63307  11.439   2.213   8.854  0.4534 -0.2202 -1.0324
19115SOL    HW163308  11.355   2.200   8.809 -0.2188 -0.4735  0.2339
19115SOL    HW263309  11.438   2.305   8.880  1.2972  0.1991 -2.3690
19116SOL     OW63310   2.037   3.389   0.610 -0.3811  0.3887  0.5198
19116SOL    HW163311   2.045   3.342   0.693  0.9616 -0.7328 -0.1983
19116SOL    HW263312   2.098   3.463   0.619  0.1231 -0.0010  0.3789
19117SOL     OW63313   9.532   1.976   8.272  0.2590  0.5112 -0.1605
19117SOL    HW163314   9.622   1.949   8.288  0.4965  1.5164  0.2319
19117SOL    HW263315   9.533   2.011   8.183 -0.2972 -1.7384 -1.1392
19118SOL     OW63316   0.191   0.920   0.739  0.2336  0.0361  0.0948
19118SOL    HW163317   0.111   0.900   0.788  0.9423 -0.6259  1.0156
19118SOL    HW263318   0.174   0.889   0.650  0.3515 -2.4464  0.8638
19119SOL     OW63319   2.592   9.697   8.074  0.3516  0.0532  0.0270
19119SOL    HW163320   2.510   9.670   8.032  0.6556 -0.1311 -0.4556
19119SOL    HW263321   2.577   9.684   8.168  0.2911 -1.2454 -0.1515
19120SOL     OW63322   6.896   0.624   7.615 -0.0859 -0.1948  0.3925
19120SOL    HW163323   6.845   0.658   7.688 -0.2306  2.3325 -0.7715
19120SOL    HW263324   6.979   0.670   7.620 -0.1922  0.2222 -1.1460
19121SOL     OW63325   7.235   7.465   2.192  0.1643 -0.4620 -0.1201
19121SOL    HW163326   7.243   7.456   2.097  0.2976 -0.1967 -0.1341
19121SOL    HW263327   7.238   7.559   2.208 -1.7314 -0.3796 -0.0213
19122SOL     OW63328   1.316  10.639   9.712 -0.8372 -0.1833 -0.0165
19122SOL    HW163329   1.316  10.733   9.694 -1.6778 -0.0605  0.5369
19122SOL    HW263330   1.382  10.628   9.780  0.4221 -0.2514 -1.2120
19123SOL     OW63331  11.241   5.927   8.295  0.4104 -0.2394 -0.0192
19123SOL    HW163332  11.291   5.963   8.368  0.6712  0.5278 -0.5582
19123SOL    HW263333  11.153   5.913   8.330  0.5073  0.2045  0.4153
19124SOL     OW63334  12.170   2.240   5.655 -0.3716 -0.1371 -0.4893
19124SOL    HW163335  12.215   2.283   5.582 -2.6784 -0.5781 -2.2865
19124SOL    HW263336  12.143   2.312   5.712 -0.2052  0.4063 -1.0844
19125SOL     OW63337   7.723   6.531   0.448 -0.0130  0.3877  0.0981
19125SOL    HW163338   7.754   6.586   0.376 -0.3521  1.9916  1.1108
19125SOL    HW263339   7.652   6.480   0.411 -0.2903  1.3056 -0.6786
19126SOL     OW63340   1.397  10.054   8.746  0.3615  0.7047  0.0286
19126SOL    HW163341   1.409  10.004   8.665 -0.6442 -0.0369  0.3278
19126SOL    HW263342   1.400   9.989   8.816 -0.5843  1.0963  0.4526
19127SOL     OW63343   8.544   6.860   9.936 -0.2826  0.3882  0.1236
19127SOL    HW163344   8.595   6.779   9.943  0.4919  0.7816 -0.7760
19127SOL    HW263345   8.476   6.840   9.872  0.3523  0.6496 -0.6544
19128SOL     OW63346   7.163   3.240   2.519 -0.3948  0.0842 -0.2395
19128SOL    HW163347   7.214   3.265   2.595 -0.3134 -0.6837 -0.0407
19128SOL    HW263348   7.228   3.218   2.452 -0.4100 -2.1778  0.4221
19129SOL     OW63349   8.970   0.031  10.218 -0.3261 -0.0253  0.3904
19129SOL    HW163350   9.061   0.042  10.244 -0.0827  0.3861 -0.5891
19129SOL    HW263351   8.974  -0.015  10.134 -0.9274  1.2469 -0.3797
19130SOL     OW63352   3.158   4.642  11.635  0.3255  0.3859  0.6310
19130SOL    HW163353   3.199   4.652  11.549  0.1689 -1.3519  0.3005
19130SOL    HW263354   3.219   4.683  11.696  1.1667  0.3395 -0.1524
19131SOL     OW63355   4.065   4.228   4.356  0.1808 -0.2127 -0.4722
19131SOL    HW163356   4.124   4.165   4.314 -0.6495 -0.8723 -0.6741
19131SOL    HW263357   3.985   4.178   4.374 -0.9622  1.0747 -1.7534
19132SOL     OW63358  12.487  12.231   3.291  0.5145  0.5673 -0.0799
19132SOL    HW163359  12.550  12.283   3.241  0.4957 -0.7411 -1.5554
19132SOL    HW263360  12.542  12.175   3.346  0.6654 -0.1510 -0.9293
19133SOL     OW63361   9.463  11.328   6.371 -0.6402  0.2541 -0.1711
19133SOL    HW163362   9.376  11.366   6.363 -0.2457  0.8569 -2.2326
19133SOL    HW263363   9.513  11.393   6.422 -0.9772  0.6804 -0.3784
19134SOL     OW63364   6.870   9.066   1.716  0.2674 -0.3561  0.0145
19134SOL    HW163365   6.871   8.989   1.660 -2.0446  0.0119 -0.6152
19134SOL    HW263366   6.903   9.137   1.660 -0.7839 -0.2456 -0.4731
19135SOL     OW63367   9.203   5.614   4.681 -0.0579 -0.2361  0.4790
19135SOL    HW163368   9.231   5.690   4.630 -1.6505 -0.5977 -1.0231
19135SOL    HW263369   9.109   5.625   4.691 -0.1641 -1.5125  1.1095
19136SOL     OW63370   0.104   7.453   5.927 -0.5134 -0.7344  0.1350
19136SOL    HW163371   0.171   7.394   5.963 -0.1301  0.0387  0.7369
19136SOL    HW263372   0.092   7.423   5.837 -0.0234 -1.4621  0.2955
19137SOL     OW63373   0.962   6.246   1.478  0.2504 -0.2158  0.0420
19137SOL    HW163374   0.919   6.268   1.560  1.7724  0.6158  0.6465
19137SOL    HW263375   1.006   6.326   1.451  1.2508 -0.9739 -0.6539
19138SOL     OW63376   2.974  10.914   4.931 -0.4338 -0.2453  0.0914
19138SOL    HW163377   2.953  10.837   4.984  1.6710 -1.0840 -0.2123
19138SOL    HW263378   2.989  10.880   4.843 -0.9621  0.7474 -0.4103
19139SOL     OW63379  11.832  11.473   1.533  0.2281 -0.8857  0.0807
19139SOL    HW163380  11.810  11.477   1.440  0.8830 -1.2512 -0.0924
19139SOL    HW263381  11.752  11.501   1.577  0.1942  0.1603 -0.6167
19140SOL     OW63382   8.702   9.607   3.245  0.5782 -0.1950 -0.2035
19140SOL    HW163383   8.730   9.519   3.220 -0.4717 -0.6430  0.1185
19140SOL    HW263384   8.675   9.599   3.336  1.6241  0.7559  0.2065
19141SOL     OW63385   8.618  12.348   4.257 -0.8152  0.2400  0.3380
19141SOL    HW163386   8.538  12.301   4.280 -0.8744 -0.0188 -0.3841
19141SOL    HW263387   8.590  12.412   4.191 -0.6728  1.0649  1.0490
19142SOL     OW63388  11.249   1.647   3.394 -0.5519 -0.4872  0.3325
19142SOL    HW163389  11.174   1.699   3.424  0.2000  0.8754 -0.0700
19142SOL    HW263390  11.251   1.572   3.454 -2.8024 -1.0961 -0.2432
19143SOL     OW63391   3.362   0.031   5.807 -0.0721 -0.8188  0.1279
19143SOL    HW163392   3.320  -0.018   5.737 -0.8829 -1.0097  0.7284
19143SOL    HW263393   3.297   0.032   5.878  1.1316 -1.5886  1.2881
19144SOL     OW63394   7.824   1.380   0.451  0.3464 -0.1653 -0.4708
19144SOL    HW163395   7.902   1.429   0.476  1.2272 -1.8265  0.2224
19144SOL    HW263396   7.844   1.345   0.364  2.0776 -3.6673  1.1218
19145SOL     OW63397   4.266  11.902   7.501 -0.0923 -0.7535 -0.1771
19145SOL    HW163398   4.360  11.918   7.505 -0.1810  0.8772 -2.6164
19145SOL    HW263399   4.229  11.983   7.465 -2.3144 -1.6888 -0.1535
19146SOL     OW63400   7.994   3.243   7.201  0.4194 -0.6439 -0.2921
19146SOL    HW163401   8.039   3.186   7.138 -1.2716  0.4266 -2.6686
19146SOL    HW263402   8.034   3.329   7.189  1.3458 -0.7947  1.5265
19147SOL     OW63403   2.706   8.304  11.580  0.0816 -0.3309  0.2468
19147SOL    HW163404   2.785   8.281  11.532  0.5549  0.9979  0.3257
19147SOL    HW263405   2.653   8.354  11.518 -0.6568 -1.1271  0.2246
19148SOL     OW63406  10.506   9.877   6.505 -0.6328 -0.3406 -0.1084
19148SOL    HW163407  10.412   9.876   6.487 -0.3732  2.7423 -2.4154
19148SOL    HW263408  10.541   9.945   6.448  3.0777 -1.4458  0.5573
19149SOL     OW63409   0.558   6.990   2.886  0.0204 -0.2025 -0.0936
19149SOL    HW163410   0.628   7.021   2.828 -0.2184  2.4470  0.8716
19149SOL    HW263411   0.477   7.019   2.844 -0.3545 -1.0412  0.0298
19150SOL     OW63412   2.672   1.363   3.828 -0.3550  0.1882  0.1712
19150SOL    HW163413   2.731   1.399   3.894 -0.6545  0.3022  0.3788
19150SOL    HW263414   2.664   1.270   3.851 -1.7155  0.5380  1.2711
19151SOL     OW63415   5.922   5.197   8.880  0.4124  0.0804  0.2840
19151SOL    HW163416   5.914   5.291   8.863 -2.1418 -0.3797 -1.6629
19151SOL    HW263417   6.010   5.175   8.849  0.6058  1.6263 -0.3822
19152SOL     OW63418   3.597   0.881   9.700  0.3161  0.0592  0.2091
19152SOL    HW163419   3.505   0.870   9.675  0.5919  0.7865 -1.2223
19152SOL    HW263420   3.614   0.808   9.759 -1.1195 -0.2242  0.3124
19153SOL     OW63421   9.451   2.659  10.729 -0.3976  0.0641 -0.3898
19153SOL    HW163422   9.525   2.693  10.780  0.0407  0.2425 -1.1260
19153SOL    HW263423   9.374   2.684  10.779  0.0556 -1.2362  1.0753
19154SOL     OW63424   0.992  10.214   0.951 -0.0044  0.1584  0.4896
19154SOL    HW163425   0.937  10.144   0.985  0.4839  0.0982  1.1770
19154SOL    HW263426   0.940  10.294   0.965 -0.1900  0.0305  0.5314
19155SOL     OW63427   0.906   4.944   8.050 -0.1852 -0.2215 -0.3827
19155SOL    HW163428   0.817   4.913   8.029 -0.0187 -0.8176 -0.2246
19155SOL    HW263429   0.924   5.011   7.984  0.3070 -2.0350 -2.1925
19156SOL     OW63430  10.469   7.973  10.624 -0.1635  0.1131 -0.3793
19156SOL    HW163431  10.527   7.970  10.700 -1.1299  0.5463  0.4049
19156SOL    HW263432  10.381   7.960  10.660 -0.6061 -0.1160 -1.4795
19157SOL     OW63433   3.994  10.807   1.117 -0.5432  0.3016 -0.3613
19157SOL    HW163434   3.997  10.827   1.024 -1.5471  1.9088 -0.0961
19157SOL    HW263435   3.906  10.773   1.131  0.0658 -1.2902 -0.2106
19158SOL     OW63436  10.217   8.285   6.710  0.2005  0.2996 -0.1176
19158SOL    HW163437  10.178   8.362   6.668  0.5897  0.4497 -0.2069
19158SOL    HW263438  10.155   8.261   6.778 -0.9086 -0.5106 -1.3742
19159SOL     OW63439  10.057   9.008   3.574 -0.0099 -0.0770 -0.2073
19159SOL    HW163440  10.151   9.015   3.589  0.1394  0.0833 -1.1609
19159SOL    HW263441  10.044   8.917   3.546 -0.0791  0.0259 -0.5070
19160SOL     OW63442   1.771   1.818   8.222 -0.4200  0.2732 -0.1811
19160SOL    HW163443   1.704   1.862   8.171  0.1191  0.3505 -0.8455
19160SOL    HW263444   1.748   1.835   8.313 -1.4253  0.0998 -0.3925
19161SOL     OW63445   9.589   9.741   2.693 -0.3243  0.3266  0.3073
19161SOL    HW163446   9.527   9.717   2.624 -0.1125  0.5293  0.0412
19161SOL    HW263447   9.535   9.771   2.766 -0.5312  0.7330 -0.0134
19162SOL     OW63448   9.743   6.316  12.449  0.0282 -0.2994  0.0793
19162SOL    HW163449   9.672   6.379  12.461  0.6273  0.5820 -0.8148
19162SOL    HW263450   9.700   6.231  12.447 -1.0838  0.2598 -1.0138
19163SOL     OW63451  11.588   7.096   1.446  0.2614 -0.5153 -0.1298
19163SOL    HW163452  11.514   7.141   1.405 -0.1633 -0.2077  0.9595
19163SOL    HW263453  11.665   7.136   1.405 -0.1502 -0.6736 -1.0975
19164SOL     OW63454   0.280  11.983  11.520  0.0203 -0.3115 -0.1617
19164SOL    HW163455   0.268  11.893  11.550 -0.3362 -0.3119 -0.2927
19164SOL    HW263456   0.333  12.025  11.588  1.2596 -0.9515 -0.7020
19165SOL     OW63457  10.253   4.472   5.334 -0.7979  0.6587  0.2169
19165SOL    HW163458  10.216   4.560   5.340  0.4894  1.2096  0.5252
19165SOL    HW263459  10.281   4.464   5.243 -1.1208  0.4768  0.1326
19166SOL     OW63460   7.534   5.822  10.008 -0.0445 -0.2540  0.3102
19166SOL    HW163461   7.533   5.886   9.936  1.9873  0.8927  1.2215
19166SOL    HW263462   7.590   5.752   9.977  0.1503 -0.1603  0.4494
19167SOL     OW63463   1.906   4.312   0.725  0.2081  0.2739 -0.0776
19167SOL    HW163464   1.968   4.325   0.797 -0.0039 -1.5642  0.4869
19167SOL    HW263465   1.953   4.256   0.663 -1.0109 -1.6727  0.6433
19168SOL     OW63466   0.220   2.739  11.507 -0.1885  0.4781 -0.0999
19168SOL    HW163467   0.161   2.775  11.441  1.8101  0.1051 -2.2220
19168SOL    HW263468   0.282   2.685  11.457  1.1698 -0.1799  2.1462
19169SOL     OW63469  10.561   6.127   5.196  0.9302  0.1746 -0.4959
19169SOL    HW163470  10.586   6.217   5.217  0.4764  0.7085 -2.1251
19169SOL    HW263471  10.570   6.121   5.101 -1.3596 -0.7682 -0.7095
19170SOL     OW63472   8.814  10.024   7.399  0.1916 -1.2366  0.0703
19170SOL    HW163473   8.818  10.114   7.368 -1.8744 -0.4638  1.8061
19170SOL    HW263474   8.744   9.984   7.347 -2.9661 -0.0648  3.0212
19171SOL     OW63475   0.454   4.079   5.900 -0.1733 -0.3382 -0.2512
19171SOL    HW163476   0.478   4.121   5.818  0.0131 -1.1372 -0.6225
19171SOL    HW263477   0.363   4.105   5.915 -0.4556 -0.7742 -1.1119
19172SOL     OW63478   2.199   1.590   1.770 -0.2940 -0.0134 -0.0053
19172SOL    HW163479   2.265   1.562   1.706 -0.0292  0.4935  0.0458
19172SOL    HW263480   2.117   1.594   1.720 -0.0281  0.6966 -0.3954
19173SOL     OW63481   7.704   7.992   8.523  0.3760 -0.5119  0.7291
19173SOL    HW163482   7.745   8.048   8.589 -1.1764  0.6439  0.7778
19173SOL    HW263483   7.738   8.024   8.440  0.3996 -0.2881  0.8238
19174SOL     OW63484  11.564   9.096   4.122 -0.3245  0.1793 -0.7957
19174SOL    HW163485  11.565   9.192   4.114 -0.1452  0.1663 -0.9322
19174SOL    HW263486  11.654   9.074   4.147 -0.2987  0.0250 -1.0214
19175SOL     OW63487   6.411   2.441   3.779  0.2799  0.1221 -0.0161
19175SOL    HW163488   6.335   2.498   3.773 -0.4773 -0.9029 -0.3855
19175SOL    HW263489   6.386   2.374   3.843  0.5154 -0.7510 -0.8229
19176SOL     OW63490   5.744   9.515   7.700 -0.0893 -0.1281  0.1048
19176SOL    HW163491   5.771   9.604   7.679 -1.7854 -0.0489 -2.0443
19176SOL    HW263492   5.700   9.523   7.784  2.1256  0.5338  1.2833
19177SOL     OW63493  12.195   1.446  10.289  0.0103  0.1032  0.6883
19177SOL    HW163494  12.192   1.375  10.354  1.5935  0.4616  1.2038
19177SOL    HW263495  12.225   1.404  10.209  1.4576  0.2276  1.1262
19178SOL     OW63496  10.464   0.506   0.852  0.3874  0.1255 -0.0186
19178SOL    HW163497  10.455   0.577   0.788 -0.4878  0.9359  0.9669
19178SOL    HW263498  10.555   0.478   0.844  0.1671 -0.1647 -1.9845
19179SOL     OW63499   1.013   6.513   8.188  0.0795  0.0824 -0.0082
19179SOL    HW163500   0.969   6.522   8.273 -0.0865 -0.1635 -0.0691
19179SOL    HW263501   1.033   6.603   8.163 -1.4039  0.2947 -0.5167
19180SOL     OW63502  11.607   4.286   7.235 -0.0037  1.2045 -0.0530
19180SOL    HW163503  11.614   4.301   7.141  0.3166 -1.0688 -0.4636
19180SOL    HW263504  11.542   4.216   7.243  0.4347  0.9210  1.3412
19181SOL     OW63505   7.257   5.590   8.518 -0.0604 -0.2496 -0.3760
19181SOL    HW163506   7.232   5.652   8.450  0.4002  0.8264  0.4093
19181SOL    HW263507   7.244   5.504   8.478  0.3010  0.3555 -1.8660
19182SOL     OW63508   5.644   0.919   0.592  0.1955  0.1742  0.5560
19182SOL    HW163509   5.583   0.886   0.525 -1.2474  3.0546  0.2842
19182SOL    HW263510   5.653   0.846   0.654 -1.5751 -1.2098 -0.6967
19183SOL     OW63511   6.587   7.054   1.027  0.1783  0.1953 -0.0160
19183SOL    HW163512   6.535   7.079   1.103 -0.4317 -0.3398 -0.2489
19183SOL    HW263513   6.657   7.000   1.062 -0.6256 -0.8155  0.0823
19184SOL     OW63514  11.718   1.507   5.150  0.4470  0.1564  0.6311
19184SOL    HW163515  11.648   1.563   5.184 -1.5566 -1.3198 -0.8340
19184SOL    HW263516  11.796   1.533   5.200 -0.7333  3.0211  1.1911
19185SOL     OW63517  11.617   6.728   0.351  0.3346  0.5319 -0.3747
19185SOL    HW163518  11.614   6.667   0.424  0.6700  1.4228  0.4051
19185SOL    HW263519  11.710   6.750   0.341  0.4361 -0.3870 -1.7759
19186SOL     OW63520   1.089   1.293  11.629 -0.3946 -0.0293  0.1731
19186SOL    HW163521   1.169   1.246  11.653 -1.6321 -2.2016  0.2807
19186SOL    HW263522   1.030   1.225  11.597 -1.8700  1.6510 -0.8501
19187SOL     OW63523   0.909   4.655   5.172 -0.5826  0.4592 -0.0100
19187SOL    HW163524   0.994   4.654   5.128 -1.7434  0.8546 -2.4306
19187SOL    HW263525   0.900   4.567   5.210  1.0087  0.5301  0.6138
19188SOL     OW63526  10.678   3.822   4.232  0.6208 -0.0305  0.0504
19188SOL    HW163527  10.733   3.798   4.306  1.2090  0.4838 -0.2114
19188SOL    HW263528  10.738   3.861   4.168 -0.0409  0.5449 -0.2385
19189SOL     OW63529   4.339   7.227  11.740 -0.7623 -0.0883  0.2472
19189SOL    HW163530   4.357   7.166  11.812  0.9797  0.6306  0.4578
19189SOL    HW263531   4.389   7.305  11.761 -0.8721  0.4546 -1.3520
19190SOL     OW63532  11.578   5.992   9.270 -0.0944  0.1486  0.4551
19190SOL    HW163533  11.506   6.029   9.219  1.2545  1.7479 -0.3581
19190SOL    HW263534  11.657   6.018   9.224  1.1302  0.2997  2.5008
19191SOL     OW63535   8.940   0.776   4.570 -0.0208  0.5249 -0.1251
19191SOL    HW163536   8.846   0.787   4.552 -0.1636  1.8975  1.2003
19191SOL    HW263537   8.978   0.861   4.549  0.7839  0.2579  0.2271
19192SOL     OW63538   0.724   4.342   0.816 -0.3322  0.6293  0.0275
19192SOL    HW163539   0.782   4.269   0.839 -0.4110  0.0936 -1.3719
19192SOL    HW263540   0.772   4.420   0.840  1.4999  0.2526 -2.1432
19193SOL     OW63541   4.354   8.064   1.719 -0.1004 -0.2266 -0.1652
19193SOL    HW163542   4.313   8.020   1.794 -0.7372  1.3078  0.4400
19193SOL    HW263543   4.284   8.067   1.653 -0.1982  0.2630 -0.0387
19194SOL     OW63544   8.652   6.097   7.167 -0.5127 -0.1002 -0.2462
19194SOL    HW163545   8.624   6.152   7.093  1.0441  1.5258  0.2915
19194SOL    HW263546   8.609   6.136   7.243  1.5429  1.2481  0.3162
19195SOL     OW63547  12.176   0.473   7.384  0.0281  0.0943  0.1772
19195SOL    HW163548  12.269   0.452   7.397  0.0072  0.1057  0.3445
19195SOL    HW263549  12.175   0.531   7.308  0.1935  0.3930  0.4009
19196SOL     OW63550   4.968  12.400   0.813 -0.0899 -0.4056  0.8610
19196SOL    HW163551   4.926  12.417   0.729  0.5567  0.0757  0.6260
19196SOL    HW263552   4.921  12.324   0.848 -0.1177 -0.8523 -0.1040
19197SOL     OW63553  10.097   5.906   3.513  0.6459 -0.2424  0.6249
19197SOL    HW163554  10.003   5.889   3.522  0.5746 -0.9151 -1.0272
19197SOL    HW263555  10.106   6.000   3.531 -0.4237 -0.0658  0.3102
19198SOL     OW63556   8.967   6.966  11.330  0.2756  0.8307 -0.2382
19198SOL    HW163557   9.038   7.030  11.333 -0.9767  2.3432 -1.5511
19198SOL    HW263558   8.889   7.014  11.358 -0.7395 -0.0119 -1.4928
19199SOL     OW63559   8.047   0.630   9.249  0.4192  0.4740 -0.0564
19199SOL    HW163560   8.084   0.575   9.318 -0.0312 -0.9006 -0.8803
19199SOL    HW263561   7.958   0.597   9.236  0.2413  1.1943 -0.8032
19200SOL     OW63562   3.188   1.347  11.762 -0.4951  0.3550  0.3865
19200SOL    HW163563   3.224   1.429  11.728  4.0988 -1.9568 -1.0266
19200SOL    HW263564   3.211   1.347  11.854  1.3129 -0.1377 -0.0412
19201SOL     OW63565   2.758   1.572  11.738  0.0128  0.2764  0.4972
19201SOL    HW163566   2.778   1.521  11.816 -0.4439  2.6290  2.2808
19201SOL    HW263567   2.827   1.549  11.676  1.2357 -0.6370  2.0996
19202SOL     OW63568   1.620   3.933  11.337  0.2180  0.0296  0.6152
19202SOL    HW163569   1.659   4.017  11.359 -2.0025  1.3041  0.0095
19202SOL    HW263570   1.565   3.911  11.412 -0.8264  0.1979 -0.0665
19203SOL     OW63571  12.214  11.248   0.837 -1.0253 -0.4097  0.2147
19203SOL    HW163572  12.250  11.181   0.895 -0.7129 -0.7630 -0.3776
19203SOL    HW263573  12.123  11.221   0.823 -1.1133 -0.3011  0.5700
19204SOL     OW63574   4.526   8.863   2.731 -0.1466 -0.2161  0.5963
19204SOL    HW163575   4.507   8.903   2.646  0.5586  0.0213  0.5489
19204SOL    HW263576   4.496   8.927   2.795 -2.0530 -0.9973  0.5776
19205SOL     OW63577   9.730   0.195  10.958 -0.2934 -0.7311 -0.0997
19205SOL    HW163578   9.711   0.271  10.903 -0.8914 -0.8700 -0.1008
19205SOL    HW263579   9.647   0.177  11.003 -0.3447 -1.7584 -0.5666
19206SOL     OW63580   7.442   6.021   3.434  0.2581 -0.0547 -0.1254
19206SOL    HW163581   7.381   6.059   3.371 -0.7525  0.5665  1.1800
19206SOL    HW263582   7.459   6.091   3.498  0.0526 -1.1047  1.1303
19207SOL     OW63583   9.344   6.716   0.769 -0.5494  0.1107  0.2000
19207SOL    HW163584   9.339   6.788   0.706 -0.6747  1.4188  1.6549
19207SOL    HW263585   9.293   6.645   0.728 -0.1814  0.7184 -1.3862
19208SOL     OW63586   4.392   8.189   2.351 -0.7438 -0.2678  0.2476
19208SOL    HW163587   4.422   8.177   2.261 -2.1307  0.9008 -0.3920
19208SOL    HW263588   4.463   8.238   2.393 -0.5552  0.1311 -0.5087
19209SOL     OW63589   7.364   8.798  11.907  0.0074  0.1263  0.1163
19209SOL    HW163590   7.380   8.835  11.994 -1.4296  1.1557 -0.0159
19209SOL    HW263591   7.323   8.869  11.858 -0.3411 -0.8228 -1.0205
19210SOL     OW63592   2.552  10.003   0.196 -0.2339  0.1793  0.1052
19210SOL    HW163593   2.646   9.999   0.184 -0.3505  0.3685 -0.9437
19210SOL    HW263594   2.526   9.912   0.213  0.1243  0.1265  0.3884
19211SOL     OW63595  12.400   2.481   9.451  0.5246  0.2225  0.5128
19211SOL    HW163596  12.415   2.392   9.485  0.6033  0.7606  1.9839
19211SOL    HW263597  12.346   2.468   9.374 -0.7239 -1.0425  1.5290
19212SOL     OW63598   7.623   8.410   8.664 -0.1212  0.0027  0.0315
19212SOL    HW163599   7.548   8.351   8.658  1.8945 -2.9825  1.4927
19212SOL    HW263600   7.666   8.403   8.578 -0.6945  0.5730 -0.3091
19213SOL     OW63601   5.476   6.383   3.369  0.3464  0.4187 -0.2639
19213SOL    HW163602   5.452   6.321   3.299  0.0989  0.8204 -0.5407
19213SOL    HW263603   5.435   6.346   3.448 -0.2807  0.5195 -0.5326
19214SOL     OW63604   7.761   2.268   1.203  0.2283  0.1601 -0.3441
19214SOL    HW163605   7.753   2.194   1.144  0.8387  0.2051 -0.4872
19214SOL    HW263606   7.705   2.246   1.277  0.3422 -0.4063 -0.4230
19215SOL     OW63607   2.117   0.167   1.925 -0.4457  0.7060 -0.1696
19215SOL    HW163608   2.065   0.141   1.849  0.6861 -1.9519 -0.1414
19215SOL    HW263609   2.208   0.150   1.899 -0.0065  0.1453  1.5862
19216SOL     OW63610   2.461   9.147   5.597  0.2331 -0.6309  0.2168
19216SOL    HW163611   2.428   9.231   5.565 -1.0959 -1.3343 -0.3509
19216SOL    HW263612   2.464   9.156   5.692  1.2412  0.4478  0.0918
19217SOL     OW63613   3.335   3.846   3.789  0.0555  0.0710  0.9405
19217SOL    HW163614   3.372   3.928   3.821  0.3027  1.4359 -2.4916
19217SOL    HW263615   3.392   3.819   3.718 -1.4649 -1.7312  0.3208
19218SOL     OW63616   1.603   5.971   5.203  0.2879  0.5666 -0.4374
19218SOL    HW163617   1.694   5.982   5.230  0.0467 -2.0016  1.8893
19218SOL    HW263618   1.556   6.038   5.252  0.7353  0.8953 -0.4496
19219SOL     OW63619   7.871  12.297   9.298 -0.1616  0.6689 -0.2556
19219SOL    HW163620   7.871  12.270   9.389  0.6927 -1.6892 -0.8916
19219SOL    HW263621   7.780  12.284   9.269  0.2467 -1.8627 -0.5795
19220SOL     OW63622   7.489   0.844   4.227 -0.9236 -0.1419  0.0535
19220SOL    HW163623   7.569   0.883   4.193 -0.8765  0.7654  1.1571
19220SOL    HW263624   7.460   0.904   4.295 -2.1851 -0.8044  0.1247
19221SOL     OW63625  11.911   3.262   7.458 -0.2711  0.1006  0.2574
19221SOL    HW163626  11.848   3.193   7.479  0.8224 -1.2394 -0.6710
19221SOL    HW263627  11.929   3.304   7.541 -0.5826 -1.0783  0.9502
19222SOL     OW63628   2.294   5.017   7.712  0.2487 -0.3417 -0.1246
19222SOL    HW163629   2.312   4.932   7.751  0.2386  0.2777  1.2730
19222SOL    HW263630   2.379   5.061   7.710 -0.2025  0.7331  1.9667
19223SOL     OW63631   4.539   3.296   5.403  0.2178 -0.1536 -0.0966
19223SOL    HW163632   4.489   3.336   5.474  1.1675 -0.7221  0.9271
19223SOL    HW263633   4.501   3.332   5.323 -0.4161  1.0478  0.7203
19224SOL     OW63634   4.930   7.510   5.240 -0.1369  0.4468  0.0917
19224SOL    HW163635   4.888   7.465   5.314  0.1700  1.3814  0.8529
19224SOL    HW263636   5.009   7.458   5.223 -1.0728 -0.7753 -0.7375
19225SOL     OW63637   1.296   3.554  11.645  0.3446 -0.0625  0.0560
19225SOL    HW163638   1.267   3.469  11.678  0.0663  0.3590  0.9330
19225SOL    HW263639   1.279   3.551  11.551  1.8950 -1.6030 -0.2270
19226SOL     OW63640  11.950   8.361   2.801 -0.2229 -0.5000 -0.0695
19226SOL    HW163641  11.929   8.439   2.750  0.2047 -0.5963 -0.3965
19226SOL    HW263642  12.027   8.386   2.853 -0.0226 -0.7322 -0.2509
19227SOL     OW63643   6.023  12.431   4.013  0.5849 -0.3554  0.2459
19227SOL    HW163644   6.059  12.387   3.935 -3.4297  0.8147 -2.6147
19227SOL    HW263645   6.071  12.514   4.018 -0.6696  0.7046 -2.7731
19228SOL     OW63646   0.722   8.709   6.393 -0.5646  0.1546  0.6090
19228SOL    HW163647   0.735   8.751   6.308  0.1061 -1.2379 -0.0105
19228SOL    HW263648   0.781   8.755   6.452 -2.2580  2.2654  0.7718
19229SOL     OW63649   0.997   9.275   0.886  0.3902 -0.1360 -0.5947
19229SOL    HW163650   0.924   9.332   0.863 -0.4646 -0.4762  1.0997
19229SOL    HW263651   0.963   9.186   0.875  0.8749 -0.3139 -0.7178
19230SOL     OW63652   8.365   5.397   3.118  0.0052 -0.4665  0.2707
19230SOL    HW163653   8.331   5.400   3.207  0.1799  0.9020  0.3209
19230SOL    HW263654   8.450   5.440   3.124  1.5028 -3.1966  0.0157
19231SOL     OW63655   4.508   3.528  10.709  0.1627 -0.0155 -0.1052
19231SOL    HW163656   4.510   3.596  10.777  1.2090  1.1067 -1.1915
19231SOL    HW263657   4.487   3.448  10.756  0.7399  0.7406  1.5317
19232SOL     OW63658   0.618   8.728  10.071 -0.3559  0.0034 -0.4315
19232SOL    HW163659   0.641   8.815  10.104 -0.6779 -0.0703  0.0030
19232SOL    HW263660   0.691   8.672  10.098  0.7083  0.4627 -2.2352
19233SOL     OW63661   4.128   6.585   9.270 -0.0432  0.1068  0.1132
19233SOL    HW163662   4.096   6.509   9.320 -0.8358  0.4727  0.1743
19233SOL    HW263663   4.111   6.660   9.327  0.8914  0.3221  0.1216
19234SOL     OW63664   1.480   0.114  11.930 -0.3473 -0.1742  0.2783
19234SOL    HW163665   1.522   0.056  11.866 -0.2913 -1.2481  1.2662
19234SOL    HW263666   1.390   0.084  11.935 -0.4069  0.0449  0.5424
19235SOL     OW63667  11.350  11.685   6.854 -0.3154  0.3859  0.3648
19235SOL    HW163668  11.256  11.699   6.865 -0.6401 -0.2348 -1.3274
19235SOL    HW263669  11.357  11.601   6.809  1.0554  0.3864  0.5340
19236SOL     OW63670  12.438   1.422   6.159  0.4138 -0.0412 -0.1090
19236SOL    HW163671  12.481   1.373   6.229  0.1509  0.5741  0.5018
19236SOL    HW263672  12.470   1.512   6.170 -1.3895  0.5570  0.7103
19237SOL     OW63673  11.629   8.252   6.230  0.0067 -0.0328 -0.3821
19237SOL    HW163674  11.686   8.179   6.204  1.9221  0.8057  1.1402
19237SOL    HW263675  11.666   8.328   6.185 -0.5346  0.3706 -0.1497
19238SOL     OW63676   1.994   0.816   9.709  0.4646 -0.5617 -0.1842
19238SOL    HW163677   2.070   0.872   9.696  2.0921 -2.8783 -1.2818
19238SOL    HW263678   1.974   0.823   9.802  1.2800  0.9556 -0.0991
19239SOL     OW63679  11.786   6.681  12.112  0.1572  0.2633  0.4611
19239SOL    HW163680  11.715   6.739  12.138  0.4828  1.0998 -0.4596
19239SOL    HW263681  11.806   6.707  12.022  0.9781 -0.6186  0.3774
19240SOL     OW63682   6.465   1.436   1.621  0.1935 -0.6684 -0.1013
19240SOL    HW163683   6.549   1.453   1.663 -0.1994 -0.6887  0.7225
19240SOL    HW263684   6.454   1.341   1.627  0.1063 -0.6661 -0.2062
19241SOL     OW63685   2.663   4.801   3.243 -0.0024 -0.1408 -0.0300
19241SOL    HW163686   2.584   4.856   3.241 -1.5148 -2.1811  0.0769
19241SOL    HW263687   2.693   4.806   3.334  0.4336  1.2116 -0.2339
19242SOL     OW63688  11.663  11.523  10.015 -0.5386  0.3557 -0.2992
19242SOL    HW163689  11.695  11.509   9.926 -1.7380 -0.2424 -0.6537
19242SOL    HW263690  11.735  11.567  10.059  0.0256  0.8054 -1.6072
19243SOL     OW63691  10.779   7.783   8.723 -0.3790  0.6831 -0.2577
19243SOL    HW163692  10.739   7.698   8.741  0.7002 -0.0430 -1.1071
19243SOL    HW263693  10.858   7.784   8.777 -0.5158  1.2534 -0.0661
19244SOL     OW63694   8.961   0.401   5.724 -0.4818 -0.0275 -0.4085
19244SOL    HW163695   9.047   0.359   5.725 -0.5735 -0.2424  0.8767
19244SOL    HW263696   8.900   0.333   5.752 -1.2209 -0.1084 -2.1017
19245SOL     OW63697   3.642   0.239  11.376 -0.2405 -0.0088 -0.7137
19245SOL    HW163698   3.569   0.215  11.319 -2.1444 -1.3383  2.0340
19245SOL    HW263699   3.701   0.290  11.320 -2.7614  0.2748 -3.3518
19246SOL     OW63700   2.800   1.888   3.108  0.4865 -0.5444  0.0953
19246SOL    HW163701   2.791   1.820   3.175  0.0294 -2.3570 -1.7120
19246SOL    HW263702   2.893   1.887   3.084  0.5913 -0.1097  0.4734
19247SOL     OW63703   2.148   3.929   0.132  0.2423  0.3074  0.0262
19247SOL    HW163704   2.145   3.858   0.195  2.4096  1.4637  1.6059
19247SOL    HW263705   2.228   3.912   0.081 -0.6928  0.1820 -1.4390
19248SOL     OW63706   3.870   2.518   3.522 -0.1091 -0.0980  0.0954
19248SOL    HW163707   3.950   2.496   3.475 -0.8862  0.4498 -1.5524
19248SOL    HW263708   3.810   2.550   3.455 -1.7580 -0.5688  1.2656
19249SOL     OW63709  12.262   1.889  11.921  0.5098  0.7331 -0.2401
19249SOL    HW163710  12.273   1.807  11.968 -1.6718 -0.1959 -1.1820
19249SOL    HW263711  12.337   1.893  11.862  0.9335 -0.3134  0.1960
19250SOL     OW63712   5.703   7.602   4.191  0.8893 -0.3456  0.3542
19250SOL    HW163713   5.700   7.643   4.277 -0.1479  1.8738 -0.6645
19250SOL    HW263714   5.715   7.509   4.210 -0.1078 -0.0446  2.9166
19251SOL     OW63715   3.785   2.214   9.429  0.1194 -0.0713  0.2418
19251SOL    HW163716   3.781   2.183   9.338  1.5669  1.0738 -0.2714
19251SOL    HW263717   3.804   2.136   9.480  3.5715 -0.2223 -0.9836
19252SOL     OW63718   5.081   4.397   6.964  0.5251 -0.1436 -0.2971
19252SOL    HW163719   5.077   4.348   6.882 -0.1227  0.6382 -0.7358
19252SOL    HW263720   5.153   4.458   6.952  0.2569  0.1553 -0.3851
19253SOL     OW63721   3.630   7.538  12.251  0.0808  0.1955 -0.5216
19253SOL    HW163722   3.666   7.549  12.339 -1.2818  1.5180 -0.0943
19253SOL    HW263723   3.548   7.490  12.265 -0.3629  0.7937 -1.0128
19254SOL     OW63724   5.375   8.655   0.533 -0.1196  0.7463 -0.2247
19254SOL    HW163725   5.325   8.630   0.456  0.6858  0.7032 -0.7412
19254SOL    HW263726   5.465   8.665   0.502  0.2422  0.6037  0.7300
19255SOL     OW63727   7.824   9.337   0.727  0.1761  0.1463 -0.3709
19255SOL    HW163728   7.862   9.394   0.794  1.9375  1.0510 -2.0020
19255SOL    HW263729   7.849   9.379   0.644  0.0835 -2.1144 -1.6301
19256SOL     OW63730   6.372   6.073  11.346 -0.0031  0.0499  0.0079
19256SOL    HW163731   6.279   6.059  11.362  0.2929 -1.6165  0.4462
19256SOL    HW263732   6.401   6.128  11.418 -0.2616 -1.0340  0.9600
19257SOL     OW63733   0.141   2.705   7.641 -0.4079 -0.1938  0.2901
19257SOL    HW163734   0.161   2.791   7.678 -0.9851  0.3790 -0.7032
19257SOL    HW263735   0.175   2.709   7.552  0.0103 -1.1825  0.3938
19258SOL     OW63736   2.178   8.090  10.022 -0.0825 -0.2173 -0.5593
19258SOL    HW163737   2.214   8.012   9.981  0.8669 -0.5356  0.7932
19258SOL    HW263738   2.254   8.141  10.048 -0.6942  1.0712 -1.2449
19259SOL     OW63739   6.317  10.727   3.321 -0.1452 -0.1326  0.1928
19259SOL    HW163740   6.236  10.709   3.274 -0.9219 -2.6080  2.2314
19259SOL    HW263741   6.294  10.795   3.384  0.2889  1.5008 -1.3415
19260SOL     OW63742   7.778   2.734   1.789 -0.4032  0.1476  0.1205
19260SOL    HW163743   7.725   2.790   1.732 -0.7797 -1.4641 -1.1872
19260SOL    HW263744   7.830   2.681   1.729 -0.2868 -1.1164  1.2854
19261SOL     OW63745  11.047   6.531  12.324  0.0139 -0.2284  0.1586
19261SOL    HW163746  11.063   6.449  12.279 -0.9456  0.0625 -0.7299
19261SOL    HW263747  11.039   6.506  12.416 -0.7862 -1.2084 -0.1555
19262SOL     OW63748   6.335   8.873  10.226 -0.2498  0.4593  0.2240
19262SOL    HW163749   6.425   8.851  10.249 -0.4099 -2.7098 -1.5627
19262SOL    HW263750   6.286   8.862  10.307  0.5263 -1.0995  0.5172
19263SOL     OW63751   2.240   1.008   1.121  0.0066 -0.1471  0.2814
19263SOL    HW163752   2.223   0.926   1.076 -1.0178  0.1464  0.0859
19263SOL    HW263753   2.330   1.030   1.100  0.1524 -1.0112 -0.0026
19264SOL     OW63754  11.959   4.915   0.543  0.2411  0.8646 -0.1519
19264SOL    HW163755  11.979   5.008   0.557  1.3042  0.8651 -1.4672
19264SOL    HW263756  12.030   4.883   0.487 -0.4443 -0.5966 -0.2407
19265SOL     OW63757   3.722   8.061   1.284  0.0458 -0.2074 -0.0964
19265SOL    HW163758   3.644   8.005   1.281 -1.0049  1.1977  0.1047
19265SOL    HW263759   3.708   8.116   1.361  0.1324  1.6053 -1.3324
19266SOL     OW63760   4.737   9.754   9.977 -0.4064  0.2719  0.0308
19266SOL    HW163761   4.756   9.756   9.883  1.2823  0.4206  0.3352
19266SOL    HW263762   4.727   9.846  10.001  1.8227  0.4630  0.4360
19267SOL     OW63763   4.986   3.529   2.551 -0.3345  0.2030 -0.6949
19267SOL    HW163764   5.045   3.561   2.619  1.0994 -2.0891 -0.7589
19267SOL    HW263765   4.924   3.601   2.537  3.0535  3.2331 -1.4581
19268SOL     OW63766   8.617   2.257   5.703 -0.0860  0.7360 -0.0899
19268SOL    HW163767   8.666   2.327   5.746 -0.5234  0.5698  0.6955
19268SOL    HW263768   8.527   2.287   5.703 -0.3431 -0.0039  0.6329
19269SOL     OW63769   7.570   7.162   0.497 -0.3263  0.2654  0.2909
19269SOL    HW163770   7.534   7.248   0.517 -0.3537  0.6215 -1.1584
19269SOL    HW263771   7.515   7.128   0.427  0.4669 -0.3693 -0.0513
19270SOL     OW63772   6.152  11.388  12.133 -0.3683 -0.6736 -0.0857
19270SOL    HW163773   6.239  11.423  12.113 -0.3187 -0.9733 -0.3913
19270SOL    HW263774   6.095  11.464  12.130 -0.3239 -0.6623 -1.1264
19271SOL     OW63775   9.397   3.445  10.041  0.6198  0.0237  0.4498
19271SOL    HW163776   9.404   3.390  10.119 -0.3983  0.4742  0.8792
19271SOL    HW263777   9.304   3.445  10.020  1.0161 -1.3680 -1.7305
19272SOL     OW63778   7.748  11.655   1.324  0.3439  0.1498 -0.2774
19272SOL    HW163779   7.809  11.717   1.284  1.5423 -1.1093 -0.4487
19272SOL    HW263780   7.664  11.675   1.282  0.9943  0.7174 -1.3704
19273SOL     OW63781   1.427  10.284   5.553  0.0621 -0.2262 -0.5114
19273SOL    HW163782   1.403  10.208   5.501 -0.9857 -0.3412  0.1078
19273SOL    HW263783   1.419  10.255   5.644  0.9192  0.2518 -0.2682
19274SOL     OW63784   5.791   0.279   4.146 -0.0632 -0.3486  0.3092
19274SOL    HW163785   5.704   0.252   4.116 -0.3256  0.7227  0.0714
19274SOL    HW263786   5.834   0.313   4.068  0.2498 -0.0437  0.6127
19275SOL     OW63787  11.510   8.130   7.353  0.3111  0.1994  0.1870
19275SOL    HW163788  11.453   8.184   7.408 -1.2298 -1.3468  0.1902
19275SOL    HW263789  11.599   8.153   7.380 -0.3137  1.9213  0.9165
19276SOL     OW63790   6.287  10.957   2.615  0.2130  0.0269  0.0238
19276SOL    HW163791   6.381  10.968   2.631  0.7236 -2.1330 -1.1017
19276SOL    HW263792   6.264  10.877   2.663 -0.6939 -0.3161 -0.9414
19277SOL     OW63793   2.963   9.572   0.853  0.7187 -0.1360 -0.6598
19277SOL    HW163794   3.057   9.579   0.868  0.5553  4.0606 -0.3200
19277SOL    HW263795   2.923   9.606   0.933 -0.9260  0.9948 -1.8824
19278SOL     OW63796   4.506   3.643   5.984  0.0291 -0.7695 -0.0940
19278SOL    HW163797   4.543   3.563   5.946 -0.1333 -0.5425 -0.7381
19278SOL    HW263798   4.544   3.647   6.072  0.2709 -1.3969 -0.1635
19279SOL     OW63799   7.257  12.233   9.303  0.7527 -0.3830  0.8226
19279SOL    HW163800   7.176  12.284   9.303  1.2902  0.4885  0.4501
19279SOL    HW263801   7.228  12.143   9.288 -0.1074 -0.0238  0.2508
19280SOL     OW63802   1.859   7.058  11.010  0.3695 -0.1094 -0.6011
19280SOL    HW163803   1.899   7.038  11.095 -0.4600  1.6501  0.2670
19280SOL    HW263804   1.889   6.988  10.952  0.1934 -1.9097  1.3552
19281SOL     OW63805   0.187   3.525   0.605  0.0788  0.0027 -0.1410
19281SOL    HW163806   0.190   3.429   0.609  1.6543 -0.0115 -0.6235
19281SOL    HW263807   0.237   3.554   0.681  0.6263  0.4010 -0.6416
19282SOL     OW63808   6.154   3.810   5.566 -0.3894 -0.3000  0.6474
19282SOL    HW163809   6.152   3.769   5.653  1.5338  0.2271  0.9769
19282SOL    HW263810   6.076   3.775   5.522 -1.3359 -0.6989  2.5120
19283SOL     OW63811   3.721   1.981   9.614 -0.5635 -0.0751 -0.1649
19283SOL    HW163812   3.647   1.972   9.554 -0.7724 -1.9440  0.2963
19283SOL    HW263813   3.682   2.003   9.698 -0.2377  2.9802 -0.7196
19284SOL     OW63814   7.483   2.936  12.230 -0.7508  0.0253  0.2600
19284SOL    HW163815   7.457   3.028  12.235 -0.0451  0.3930 -1.8759
19284SOL    HW263816   7.569   2.937  12.187 -1.0589 -1.6713 -0.4866
19285SOL     OW63817  10.763   9.515   0.479  0.4472 -0.0479 -0.3081
19285SOL    HW163818  10.720   9.441   0.522 -0.8735 -0.0262 -1.5145
19285SOL    HW263819  10.856   9.498   0.489  0.1758 -1.9777 -0.6892
19286SOL     OW63820   7.993   0.421   4.718  0.0932 -0.0242  0.1357
19286SOL    HW163821   7.925   0.361   4.688 -2.2482  2.3883  0.1771
19286SOL    HW263822   8.021   0.467   4.639  0.4377  0.1894  0.3813
19287SOL     OW63823   9.407  11.628   1.849  0.4049  0.2463 -0.1049
19287SOL    HW163824   9.312  11.623   1.861  0.4889  0.3910  0.6454
19287SOL    HW263825   9.424  11.575   1.771 -0.1212 -1.0653  0.6324
19288SOL     OW63826   9.998   4.320   7.147  0.0052 -0.2008  0.3162
19288SOL    HW163827  10.048   4.309   7.228 -0.6595  0.9768  0.9188
19288SOL    HW263828   9.910   4.345   7.176 -0.0288  1.0735 -0.7662
19289SOL     OW63829   5.916   8.519   4.467  0.4594  0.0429  0.0630
19289SOL    HW163830   5.923   8.493   4.559  0.9335 -0.4076 -0.0973
19289SOL    HW263831   5.888   8.611   4.471  2.1877  0.5708  0.6861
19290SOL     OW63832   2.334  10.441  12.107 -0.4189 -0.3000 -0.6457
19290SOL    HW163833   2.411  10.414  12.058  0.4534  0.7081  0.1004
19290SOL    HW263834   2.369  10.475  12.189 -1.6601  0.2493 -0.3141
19291SOL     OW63835   2.953   7.971   0.749 -0.3172  0.0396  0.5436
19291SOL    HW163836   2.925   7.884   0.723 -0.0708 -0.0019  0.4054
19291SOL    HW263837   2.901   8.031   0.694  0.4260 -0.0545 -0.3015
19292SOL     OW63838   1.827   4.003   1.783  0.3477  0.7117  0.0844
19292SOL    HW163839   1.847   4.019   1.691 -0.9387  0.2001 -0.3006
19292SOL    HW263840   1.860   4.080   1.829  1.8905  0.5369 -0.6639
19293SOL     OW63841   8.533   2.567   8.183  0.5595 -0.4062 -0.0542
19293SOL    HW163842   8.589   2.627   8.231  1.3809 -0.1382 -1.3133
19293SOL    HW263843   8.576   2.556   8.098 -2.2967  1.4420 -1.9041
19294SOL     OW63844   7.837   9.758   0.098  0.2127 -0.0361  0.4229
19294SOL    HW163845   7.824   9.759   0.192 -0.6101 -2.7930  0.4391
19294SOL    HW263846   7.756   9.792   0.061 -0.9995 -2.3803  0.7414
19295SOL     OW63847  10.326   1.367  12.177  0.6375 -0.3620  0.0393
19295SOL    HW163848  10.351   1.308  12.107  2.2816 -1.0397  1.1334
19295SOL    HW263849  10.265   1.429  12.136  1.4411 -0.8029 -1.9294
19296SOL     OW63850  10.299   0.007  11.609  0.6666  0.4282 -0.0937
19296SOL    HW163851  10.278  -0.016  11.518  0.0242  1.0331 -0.1078
19296SOL    HW263852  10.343   0.092  11.603  1.2533  0.1436  0.1130
19297SOL     OW63853  12.176   6.461   1.378  0.1021  0.1759 -0.5253
19297SOL    HW163854  12.129   6.403   1.438 -0.0355  1.8147  1.0456
19297SOL    HW263855  12.247   6.407   1.343  0.5645 -0.7035  1.6135
19298SOL     OW63856   1.785   7.892   9.266  0.3964 -0.6543  0.0270
19298SOL    HW163857   1.850   7.892   9.336  1.3356  2.2144 -0.7168
19298SOL    HW263858   1.803   7.812   9.216  1.1572 -1.5953  1.7373
19299SOL     OW63859  11.972   8.915   0.737  0.8854  0.2125 -0.4314
19299SOL    HW163860  12.056   8.961   0.737  2.4105 -2.3966  0.3938
19299SOL    HW263861  11.970   8.868   0.820 -1.0279 -0.4405 -0.7993
19300SOL     OW63862   5.867   7.464   4.565  0.0757  0.2566 -0.2645
19300SOL    HW163863   5.839   7.542   4.518 -1.4721 -0.8479 -1.2910
19300SOL    HW263864   5.932   7.423   4.508 -0.6139 -0.2373 -0.7176
19301SOL     OW63865   9.420  10.105   9.377 -0.2817 -0.3447  0.0029
19301SOL    HW163866   9.406  10.200   9.379 -0.8662 -0.2267 -3.4936
19301SOL    HW263867   9.498  10.092   9.432  1.4393  2.5662 -1.4655
19302SOL     OW63868  10.766   0.369   2.991 -0.3863 -0.1783  0.2345
19302SOL    HW163869  10.697   0.317   2.950  0.0408 -0.5823  0.0231
19302SOL    HW263870  10.828   0.304   3.026 -1.0821  0.1115  2.1593
19303SOL     OW63871  10.040   3.542   3.554 -0.2439 -0.5738  0.6264
19303SOL    HW163872  10.084   3.513   3.474  0.1418  1.0877  0.1898
19303SOL    HW263873  10.110   3.581   3.606 -0.7134 -0.5258  1.2318
19304SOL     OW63874   5.103   7.170   0.080  0.5469  0.3964 -0.3797
19304SOL    HW163875   5.192   7.197   0.056  0.9066 -1.1339 -0.8850
19304SOL    HW263876   5.050   7.191   0.003  0.5078  1.0415 -0.1867
19305SOL     OW63877   8.721   5.455   0.567  0.0096 -0.4504  0.4482
19305SOL    HW163878   8.787   5.498   0.514 -1.3973  1.7890  0.3773
19305SOL    HW263879   8.705   5.515   0.640 -3.2563  0.1113 -0.5358
19306SOL     OW63880  11.483  10.582   7.057  0.2927 -0.0173  0.1337
19306SOL    HW163881  11.537  10.510   7.025 -0.2634  0.2617 -1.5323
19306SOL    HW263882  11.416  10.594   6.990 -0.2445  1.3756  0.8720
19307SOL     OW63883  11.081   1.348   1.903  0.0545 -0.0920  0.1874
19307SOL    HW163884  11.102   1.363   1.811  0.6052  1.0444  0.4699
19307SOL    HW263885  11.078   1.253   1.913 -1.1603 -0.2200 -1.2434
19308SOL     OW63886   9.140  11.750   5.185  0.1909 -0.2064  0.0795
19308SOL    HW163887   9.059  11.702   5.167  0.7789 -0.5278 -2.0309
19308SOL    HW263888   9.207  11.681   5.188  0.4950  0.1251  1.0544
19309SOL     OW63889  11.604   4.160   5.212  0.1455 -0.1196  0.2811
19309SOL    HW163890  11.531   4.181   5.271  0.5861  1.0766  0.4345
19309SOL    HW263891  11.634   4.245   5.181  0.5597 -0.6897 -0.9117
19310SOL     OW63892   1.480   3.010   7.182 -0.4306 -0.1897 -0.3316
19310SOL    HW163893   1.562   2.985   7.226 -0.0292  1.1784 -0.2508
19310SOL    HW263894   1.474   2.952   7.107  0.8830  0.0016 -0.6108
19311SOL     OW63895  12.325   2.570   2.784 -0.2704  0.3540 -0.2304
19311SOL    HW163896  12.378   2.645   2.758 -0.6620  1.0359  0.8427
19311SOL    HW263897  12.370   2.534   2.861 -0.0168 -0.6089 -0.8061
19312SOL     OW63898   4.336  11.923  10.960 -0.3376  0.7054  0.1056
19312SOL    HW163899   4.307  11.863  11.028 -0.8018  1.5609  0.6721
19312SOL    HW263900   4.293  12.006  10.980  1.1566  1.5524 -0.0184
19313SOL     OW63901   8.144   8.897   8.233  0.2418 -0.4521  0.2075
19313SOL    HW163902   8.100   8.856   8.307 -0.2022 -1.5450 -0.6316
19313SOL    HW263903   8.164   8.825   8.174  0.6323  0.3864 -0.7156
19314SOL     OW63904   4.572  12.240   7.593 -0.0199 -0.2968  0.1918
19314SOL    HW163905   4.581  12.158   7.545 -0.7628  0.7527 -1.8253
19314SOL    HW263906   4.510  12.292   7.543 -1.4114  0.6368  2.6736
19315SOL     OW63907   8.284   9.225   2.791  0.0027  0.6912 -0.2198
19315SOL    HW163908   8.350   9.158   2.806  0.4156  0.6711 -1.9314
19315SOL    HW263909   8.201   9.184   2.816  0.5534  0.5535  1.4792
19316SOL     OW63910   3.835   1.241  10.728  1.0597  0.2802 -0.3879
19316SOL    HW163911   3.842   1.267  10.820 -0.2639  1.1732 -0.5065
19316SOL    HW263912   3.903   1.291  10.684  0.3593  1.4601 -0.1795
19317SOL     OW63913   5.910   6.750   9.943 -0.0908  0.7352 -0.4801
19317SOL    HW163914   5.972   6.716   9.878 -0.5351 -0.2113 -0.4270
19317SOL    HW263915   5.931   6.702  10.023 -0.7031  0.6188 -0.3895
19318SOL     OW63916   0.507   0.416   6.188  0.0071 -0.2525 -0.2531
19318SOL    HW163917   0.575   0.408   6.256 -0.4977 -1.1686  0.1568
19318SOL    HW263918   0.556   0.418   6.106  0.5276 -1.3703  0.0082
19319SOL     OW63919   7.495  11.427   3.948  0.2690 -0.0616  0.6696
19319SOL    HW163920   7.443  11.439   4.027  0.0734  2.1920  0.2640
19319SOL    HW263921   7.557  11.500   3.948  1.0464 -0.6734 -0.6634
19320SOL     OW63922  11.028   9.734   3.661  0.5610  0.2543  0.0451
19320SOL    HW163923  11.059   9.679   3.733  0.9151 -0.6213 -0.7568
19320SOL    HW263924  11.092   9.721   3.592 -0.9893 -0.7701 -1.2710
19321SOL     OW63925   0.165   1.764   0.780  0.1657 -0.3181  0.1615
19321SOL    HW163926   0.150   1.822   0.855 -0.7792 -0.0312 -0.2395
19321SOL    HW263927   0.127   1.681   0.807  2.9465 -1.3088  1.3938
19322SOL     OW63928   1.541   8.057   5.093  0.4879 -0.1397  0.4719
19322SOL    HW163929   1.454   8.087   5.064 -0.4163 -1.8853  1.2132
19322SOL    HW263930   1.602   8.111   5.044 -1.0044 -0.1623 -1.5474
19323SOL     OW63931  10.229   0.174   5.359  0.4477  0.1033  0.6158
19323SOL    HW163932  10.249   0.125   5.439  0.3975  0.2269  0.7049
19323SOL    HW263933  10.260   0.117   5.288  0.4954 -0.0057  0.7227
19324SOL     OW63934   7.493  11.527   3.343 -0.0924 -0.4100 -0.1508
19324SOL    HW163935   7.407  11.485   3.338 -0.4286  0.3504 -0.8982
19324SOL    HW263936   7.511  11.558   3.254  1.1568 -0.9372 -0.1064
19325SOL     OW63937   5.342   0.618   5.928 -0.1036  0.5579 -0.5085
19325SOL    HW163938   5.270   0.654   5.979 -2.5462 -1.9097 -1.9419
19325SOL    HW263939   5.373   0.692   5.875  2.1885  3.0732  3.8025
19326SOL     OW63940   0.316  11.539   2.411 -0.1242  0.3625  0.1589
19326SOL    HW163941   0.283  11.595   2.481  2.3333 -1.3771  2.9836
19326SOL    HW263942   0.404  11.571   2.394 -0.2551 -0.0032 -1.3489
19327SOL     OW63943   5.062   6.348  10.956  0.1725 -0.1594  0.0719
19327SOL    HW163944   5.156   6.363  10.952 -0.1658  2.1631 -0.8699
19327SOL    HW263945   5.047   6.271  10.899  1.3893  0.0512 -0.5597
19328SOL     OW63946   3.323   2.700   4.863 -0.6741  0.4778 -0.2246
19328SOL    HW163947   3.288   2.691   4.774 -2.6417  1.3835  0.4086
19328SOL    HW263948   3.256   2.661   4.919  0.7893 -0.5684  0.8563
19329SOL     OW63949   5.276   4.838  12.331  0.3837 -0.0546  0.5512
19329SOL    HW163950   5.300   4.758  12.379  0.1943 -0.1149  0.5464
19329SOL    HW263951   5.199   4.871  12.376  0.1768 -0.1360  0.2611
19330SOL     OW63952   2.992   5.611   4.760  0.4310  0.0343  0.1029
19330SOL    HW163953   3.082   5.585   4.778  0.4766 -0.2094 -0.4726
19330SOL    HW263954   2.940   5.532   4.774  0.1616  0.4240  1.4588
19331SOL     OW63955  11.812  11.916   7.910 -0.3183  0.5349  0.0274
19331SOL    HW163956  11.778  11.927   7.822 -0.8292  0.6783  0.2387
19331SOL    HW263957  11.854  11.830   7.909 -0.6149  0.3897 -0.2603
19332SOL     OW63958   6.823  10.842   1.200 -0.1283 -0.1963 -0.0196
19332SOL    HW163959   6.728  10.854   1.193 -0.3618 -1.4642  0.6656
19332SOL    HW263960   6.859  10.928   1.183 -1.3543  0.1310 -1.2037
19333SOL     OW63961   8.328  11.763   1.805 -0.2453  0.6837  0.1387
19333SOL    HW163962   8.388  11.795   1.872 -1.9250  3.0073  0.7027
19333SOL    HW263963   8.301  11.676   1.835  0.4634  0.9109  1.5061
19334SOL     OW63964   7.636   8.498   9.684 -0.1780  0.2364 -0.1172
19334SOL    HW163965   7.628   8.421   9.740 -0.5699 -0.6291 -1.3196
19334SOL    HW263966   7.723   8.490   9.645  0.1875  0.9599  0.5358
19335SOL     OW63967   2.327   6.334   3.231  0.7237  0.1786 -0.7544
19335SOL    HW163968   2.294   6.279   3.302 -1.2954  0.6011 -1.3058
19335SOL    HW263969   2.347   6.274   3.160  4.7578 -0.5159  0.7162
19336SOL     OW63970   1.242   5.617   0.330  0.1909  0.0761  0.2319
19336SOL    HW163971   1.279   5.529   0.331 -0.9949 -0.4437  0.1943
19336SOL    HW263972   1.318   5.675   0.336  0.9508 -0.9526  4.7345
19337SOL     OW63973   2.388   8.570   0.351 -0.0543 -0.0602  0.1785
19337SOL    HW163974   2.440   8.646   0.376 -2.8264  1.7275  0.8925
19337SOL    HW263975   2.351   8.593   0.266 -2.7873  0.5566  1.4137
19338SOL     OW63976   2.005   1.368  10.348 -0.2111  0.0557 -0.1490
19338SOL    HW163977   1.969   1.456  10.338  0.5681  0.5902  1.3778
19338SOL    HW263978   2.039   1.367  10.437  1.8175 -1.0481 -0.8829
19339SOL     OW63979   3.444   0.683   7.275  0.5142  0.2190 -0.6407
19339SOL    HW163980   3.419   0.737   7.351 -0.6039 -2.9594  1.4408
19339SOL    HW263981   3.392   0.719   7.203  0.1516  2.1664  0.5093
19340SOL     OW63982   9.751   6.022   4.263  0.9921 -0.0078 -0.3299
19340SOL    HW163983   9.704   6.106   4.263  1.3624  0.2003 -1.0724
19340SOL    HW263984   9.705   5.968   4.200 -0.4239 -1.0568  1.4946
19341SOL     OW63985   3.644   0.379   3.935 -0.3298  0.3965 -0.2677
19341SOL    HW163986   3.718   0.430   3.902  1.7872 -1.1019  1.8041
19341SOL    HW263987   3.622   0.421   4.019  0.5377 -1.1383  0.7904
19342SOL     OW63988   3.214  10.158   9.704 -0.0225 -0.0948 -0.4712
19342SOL    HW163989   3.182  10.086   9.649  0.1677 -1.0450  0.6235
19342SOL    HW263990   3.304  10.173   9.674 -0.2107 -0.0068 -1.0019
19343SOL     OW63991   8.685   7.688   7.583  0.3023  0.6684 -0.2212
19343SOL    HW163992   8.774   7.706   7.614  0.0813 -0.9999  1.5617
19343SOL    HW263993   8.629   7.745   7.635  0.1463 -0.1487  0.5239
19344SOL     OW63994   5.569   1.600   3.567 -0.0256 -0.2313 -0.5210
19344SOL    HW163995   5.659   1.623   3.546 -0.1205 -0.4981 -1.2582
19344SOL    HW263996   5.531   1.572   3.483 -0.7333 -0.3101 -0.1841
19345SOL     OW63997   9.889  11.445   7.333 -0.0448  0.0368  0.1336
19345SOL    HW163998   9.919  11.535   7.341 -0.2383  0.2191 -0.9530
19345SOL    HW263999   9.907  11.405   7.418 -0.0315  1.1187  0.6490
19346SOL     OW64000   0.950   3.444   2.698  0.7319 -0.2760 -0.0252
19346SOL    HW164001   0.911   3.439   2.611  0.2028 -0.0079  0.1914
19346SOL    HW264002   0.886   3.490   2.751  1.2426 -0.0383  0.4029
19347SOL     OW64003  11.428   7.317   1.337  0.6773  0.1089 -0.7002
19347SOL    HW164004  11.460   7.304   1.248 -0.7011  0.3196 -1.2583
19347SOL    HW264005  11.470   7.398   1.366  0.7091  0.3380 -1.3679
19348SOL     OW64006  10.223   3.290   6.089 -0.0923  0.3529  0.4916
19348SOL    HW164007  10.302   3.306   6.038 -0.2772  0.7683  0.3331
19348SOL    HW264008  10.151   3.304   6.028 -0.2958  0.1289  0.6750
19349SOL     OW64009   6.143   4.135   8.024  0.1049 -0.2961  0.1575
19349SOL    HW164010   6.206   4.087   8.078 -0.0798 -0.2377  0.4290
19349SOL    HW264011   6.195   4.174   7.954  0.3383 -0.4168  0.2647
19350SOL     OW64012   1.404   8.515   7.890  0.1044  0.0603 -0.1339
19350SOL    HW164013   1.365   8.545   7.972  1.5360 -0.8482  0.9197
19350SOL    HW264014   1.330   8.509   7.829 -1.2815 -0.9464  1.5652
19351SOL     OW64015   0.978   9.173   1.861 -0.5889  0.1795  0.7300
19351SOL    HW164016   0.957   9.145   1.950 -1.1075 -2.5029 -0.1351
19351SOL    HW264017   1.073   9.170   1.856 -0.5597  0.3180  1.1637
19352SOL     OW64018   7.999   7.594   7.499  0.6500  0.2483  0.3403
19352SOL    HW164019   7.986   7.688   7.512  0.6463  0.5185 -1.4245
19352SOL    HW264020   8.050   7.566   7.575  0.5606  1.6470  0.9366
19353SOL     OW64021   1.921   1.299   7.985 -0.1845  0.8937 -0.1331
19353SOL    HW164022   1.994   1.247   7.952  0.8845  1.3195  1.4760
19353SOL    HW264023   1.915   1.373   7.924  0.0735  0.3452 -0.8422
19354SOL     OW64024   8.655  11.586   3.063  0.1288  0.3417 -0.0876
19354SOL    HW164025   8.569  11.574   3.104  0.0288  1.4268  0.0500
19354SOL    HW264026   8.698  11.501   3.072 -1.2062 -0.4494 -0.8386
19355SOL     OW64027   3.920   9.990   1.858  0.6003  0.3163  0.2587
19355SOL    HW164028   3.967  10.004   1.776  1.2704  1.4115  0.8112
19355SOL    HW264029   3.917  10.076   1.899 -1.9053  0.3198  0.2529
19356SOL     OW64030   0.168   8.637   6.545 -0.1435  0.2518 -0.2872
19356SOL    HW164031   0.233   8.634   6.474 -0.4322 -0.3654 -0.5343
19356SOL    HW264032   0.192   8.714   6.596  1.5494 -0.6318  0.3419
19357SOL     OW64033  12.143   6.317   3.594  0.4340 -0.1305 -0.0394
19357SOL    HW164034  12.049   6.334   3.593  0.5208  0.3627 -0.4814
19357SOL    HW264035  12.179   6.390   3.645  0.3861 -1.4157  1.9119
19358SOL     OW64036   1.737   8.196   6.268 -0.6792  0.0436  0.1148
19358SOL    HW164037   1.776   8.111   6.252  4.2445  1.9381  0.5019
19358SOL    HW264038   1.738   8.205   6.364  0.9352  1.2724  0.0245
19359SOL     OW64039  11.452   4.695   4.041 -0.2381 -0.5212 -0.2338
19359SOL    HW164040  11.391   4.751   4.090 -0.3163 -0.2974 -0.5817
19359SOL    HW264041  11.538   4.713   4.080 -0.1576  0.3785 -0.8118
19360SOL     OW64042  10.131   0.921   8.331  0.2405 -0.0023 -1.0893
19360SOL    HW164043  10.099   0.845   8.282 -0.4903  0.5000 -1.4101
19360SOL    HW264044  10.060   0.943   8.392  1.7103 -1.5403  1.3439
19361SOL     OW64045   5.418   9.562   3.141 -0.4174  0.0359 -0.6773
19361SOL    HW164046   5.502   9.526   3.169  0.0246  0.4040 -1.4954
19361SOL    HW264047   5.410   9.645   3.188 -0.6071 -0.2907 -0.1364
19362SOL     OW64048   3.801   3.427   9.973 -0.3872  0.3140 -0.3414
19362SOL    HW164049   3.835   3.400   9.888 -0.1940 -3.7150  0.8202
19362SOL    HW264050   3.733   3.362   9.994 -0.8150  1.4837  2.3464
19363SOL     OW64051   0.572   6.190   1.072  0.6305 -0.2938 -0.0514
19363SOL    HW164052   0.476   6.186   1.065  0.5632 -2.0971  1.1721
19363SOL    HW264053   0.589   6.187   1.166  1.8715  2.7716 -0.0713
19364SOL     OW64054   1.818   0.871  12.009 -0.1348 -0.1218 -0.2327
19364SOL    HW164055   1.893   0.864  12.069 -0.2267  3.4486  0.5072
19364SOL    HW264056   1.818   0.788  11.962  2.9266 -1.1615  1.3026
19365SOL     OW64057   1.866  10.165   7.644  0.0937  0.0352 -0.4843
19365SOL    HW164058   1.902  10.174   7.733 -0.5894 -1.7540  0.0310
19365SOL    HW264059   1.793  10.227   7.641  0.9805  1.1171 -0.2993
19366SOL     OW64060   0.178   0.540   4.230  0.1835 -0.3709 -0.1633
19366SOL    HW164061   0.201   0.495   4.149  1.9678  0.6191 -0.2376
19366SOL    HW264062   0.082   0.543   4.229  0.1179 -1.7220 -1.4643
19367SOL     OW64063   1.605   9.728   0.107  0.1958  0.2360 -0.2965
19367SOL    HW164064   1.597   9.646   0.155 -0.8778  0.4645 -0.0387
19367SOL    HW264065   1.552   9.790   0.158  1.2510  1.1682 -0.3115
19368SOL     OW64066   1.953   0.482   3.587  0.8014 -0.2699 -0.2442
19368SOL    HW164067   1.993   0.520   3.665  0.3426 -0.4698  0.0881
19368SOL    HW264068   1.890   0.418   3.620  1.8881 -1.6889 -0.7843
19369SOL     OW64069   3.009   5.114   7.442  0.5890 -0.1085  0.1262
19369SOL    HW164070   3.023   5.169   7.365 -0.4188  1.1152  0.7681
19369SOL    HW264071   3.096   5.086   7.468  1.2719  2.0468  0.3519
19370SOL     OW64072   4.848   5.137   8.164 -0.2172 -0.1532  0.5610
19370SOL    HW164073   4.770   5.116   8.113 -0.6699 -2.0236  1.9155
19370SOL    HW264074   4.816   5.155   8.252  0.7373  0.7760  0.7391
19371SOL     OW64075  10.729   2.774   9.885 -0.3077 -0.1993  0.0458
19371SOL    HW164076  10.687   2.771   9.799 -0.2444  0.4261 -0.0100
19371SOL    HW264077  10.774   2.690   9.893 -0.9057 -0.5513 -0.2310
19372SOL     OW64078   4.561   0.778   4.450  0.0196  0.2662  0.6717
19372SOL    HW164079   4.492   0.843   4.458 -1.7471 -1.5436  1.0195
19372SOL    HW264080   4.534   0.707   4.510  0.8402 -1.6056 -1.0502
19373SOL     OW64081   3.794  11.243   8.909  0.5231  0.3615  0.0191
19373SOL    HW164082   3.801  11.155   8.873  0.1405  0.9670 -1.6234
19373SOL    HW264083   3.701  11.254   8.930  0.3145  0.8334 -1.0803
19374SOL     OW64084  11.813  10.543  11.541  0.0494  0.5147 -0.2214
19374SOL    HW164085  11.865  10.593  11.479  0.6925  0.4079  0.2184
19374SOL    HW264086  11.821  10.591  11.623 -0.4021  0.4001 -0.1098
19375SOL     OW64087  10.672   1.196  11.872 -0.0314  0.4902 -0.0431
19375SOL    HW164088  10.591   1.207  11.920 -0.4954  0.1855 -0.7282
19375SOL    HW264089  10.644   1.185  11.781  0.6621 -1.1621 -0.0930
19376SOL     OW64090   1.794   0.567   7.720  0.3320  0.3311 -0.2886
19376SOL    HW164091   1.841   0.649   7.702 -0.4436  1.0648  0.8434
19376SOL    HW264092   1.702   0.591   7.709  0.0298 -0.0618  1.1954
19377SOL     OW64093   4.448  10.494   6.100 -0.2808 -0.3576 -0.5183
19377SOL    HW164094   4.449  10.524   6.190  0.4995 -0.4593 -0.4793
19377SOL    HW264095   4.465  10.400   6.106  1.7805 -0.0547 -0.8436
19378SOL     OW64096   9.443   3.890   8.820 -0.0004 -0.1554  0.0247
19378SOL    HW164097   9.372   3.955   8.818 -0.9780 -1.0457  2.6015
19378SOL    HW264098   9.405   3.814   8.864  2.1379 -1.2347  0.1214
19379SOL     OW64099   5.760  10.432   5.249 -0.1358 -0.3675 -0.1746
19379SOL    HW164100   5.699  10.462   5.316 -2.1379 -1.0779 -1.5990
19379SOL    HW264101   5.751  10.495   5.178  0.9410 -0.3872 -0.3411
19380SOL     OW64102  10.771   0.523  12.427 -0.7414  0.2219  0.1535
19380SOL    HW164103  10.741   0.442  12.387 -0.3785  0.6542 -1.0537
19380SOL    HW264104  10.765   0.508  12.521 -2.2906 -0.5977 -0.0471
19381SOL     OW64105   7.481   1.045   7.307 -0.2963  0.1874 -0.0754
19381SOL    HW164106   7.518   1.123   7.348  2.0607 -2.0745  2.4584
19381SOL    HW264107   7.401   1.028   7.357 -0.4603  0.6046 -0.1922
19382SOL     OW64108   7.184   0.476   1.321  0.4394  0.5424  0.2831
19382SOL    HW164109   7.265   0.521   1.296  1.2262  0.5213  2.5354
19382SOL    HW264110   7.213   0.392   1.356 -0.6117  0.2795  0.5595
19383SOL     OW64111   9.094   5.064   7.946 -0.2129  0.0985 -0.4095
19383SOL    HW164112   9.149   4.993   7.978  0.0334  0.6500  0.4306
19383SOL    HW264113   9.080   5.044   7.854  0.1332 -0.8524 -0.2726
19384SOL     OW64114   1.090  11.159   2.791 -0.1415  0.2586 -0.4026
19384SOL    HW164115   1.143  11.220   2.842 -0.7556 -0.1625  0.7690
19384SOL    HW264116   1.151  11.123   2.726  0.8235  0.3018  0.4627
19385SOL     OW64117   0.806   1.362   8.807  0.3724 -0.5879  0.0069
19385SOL    HW164118   0.761   1.397   8.729 -0.3372  0.1993  0.7466
19385SOL    HW264119   0.895   1.346   8.778 -0.0224 -0.8344 -1.1271
19386SOL     OW64120  12.473   0.324   0.227 -0.1937  0.6423  0.3756
19386SOL    HW164121  12.565   0.325   0.202 -0.2193 -0.4349  0.1705
19386SOL    HW264122  12.468   0.257   0.295 -0.4101  2.3903  2.1922
19387SOL     OW64123   1.457  10.173   1.777 -0.4698 -0.5896 -0.3633
19387SOL    HW164124   1.405  10.216   1.844 -0.8139  0.7112 -1.4161
19387SOL    HW264125   1.504  10.103   1.823 -0.7533  0.2117  1.1882
19388SOL     OW64126   6.141   2.025  12.157 -0.2113  0.4123 -0.4697
19388SOL    HW164127   6.117   2.117  12.156  0.0429  0.5117  0.7957
19388SOL    HW264128   6.110   1.993  12.242 -0.1206 -0.6125 -0.8087
19389SOL     OW64129   6.034  10.764   1.669 -0.1346 -1.1192 -0.8222
19389SOL    HW164130   5.973  10.692   1.683 -0.5423 -1.0381 -2.0487
19389SOL    HW264131   6.042  10.771   1.574  1.1308 -0.5741 -0.7070
19390SOL     OW64132   4.752   4.747   0.089  0.6573 -0.5260  0.4989
19390SOL    HW164133   4.695   4.767   0.163  1.0500  1.3896  0.3351
19390SOL    HW264134   4.720   4.804   0.018  1.8655 -0.4752 -0.0233
19391SOL     OW64135  10.926   4.264  10.894  0.2203  0.4270 -0.0671
19391SOL    HW164136  10.982   4.311  10.832 -0.1539  1.1241  0.1184
19391SOL    HW264137  10.849   4.240  10.844  0.0245  0.7809  0.0596
19392SOL     OW64138   8.027   8.416   2.847  0.1697  0.5581 -0.4750
19392SOL    HW164139   8.067   8.501   2.865 -0.3788  0.3926  1.7156
19392SOL    HW264140   7.936   8.426   2.875 -0.6459  0.0502 -2.7361
19393SOL     OW64141  12.358  11.591   3.418  0.6915  0.0983  0.0510
19393SOL    HW164142  12.285  11.569   3.475  0.1962 -0.2011 -0.6894
19393SOL    HW264143  12.374  11.511   3.367 -0.0817  0.9067 -1.5274
19394SOL     OW64144   6.880   1.112  12.076 -0.7213  0.3818 -0.5808
19394SOL    HW164145   6.886   1.019  12.055 -2.3025  0.3154 -0.8537
19394SOL    HW264146   6.937   1.155  12.013 -0.4199 -0.3475 -0.8175
19395SOL     OW64147   2.651   8.065   0.020 -0.2641  0.4526 -0.0515
19395SOL    HW164148   2.567   8.110   0.009  0.0436  1.4071  1.2239
19395SOL    HW264149   2.691   8.066  -0.067 -2.1649 -1.3086 -1.0303
19396SOL     OW64150   8.946   8.131   9.217 -0.1028 -0.1515 -0.0069
19396SOL    HW164151   8.943   8.085   9.133  0.0279  0.5040 -0.3722
19396SOL    HW264152   9.039   8.149   9.231 -0.1671  0.1005  0.0856
19397SOL     OW64153   7.979   1.308   2.033 -0.2772  0.4148 -0.1101
19397SOL    HW164154   7.908   1.275   2.089  0.7283  0.1824  1.0896
19397SOL    HW264155   8.005   1.390   2.074  1.2641 -0.3317  0.4945
19398SOL     OW64156   0.876  10.493   3.734  0.2379 -0.3070 -0.0543
19398SOL    HW164157   0.807  10.468   3.674  1.2767  0.2566 -1.5366
19398SOL    HW264158   0.836  10.486   3.821 -1.7309  0.2028 -0.8660
19399SOL     OW64159   1.049   0.129   9.744 -0.0204 -0.4359 -0.3999
19399SOL    HW164160   1.054   0.161   9.834 -0.1036 -0.6087 -0.3346
19399SOL    HW264161   0.974   0.071   9.743 -0.6738  0.3948 -0.8366
19400SOL     OW64162  12.073   3.104   6.694  0.2854 -0.8776 -0.1962
19400SOL    HW164163  12.005   3.049   6.654  1.4434 -0.8487 -2.3322
19400SOL    HW264164  12.140   3.113   6.626  0.6969  2.2476  0.4653
19401SOL     OW64165   0.610   1.676   5.010  0.1618 -0.2093 -0.1362
19401SOL    HW164166   0.520   1.645   4.997 -0.2911 -0.5084  2.9154
19401SOL    HW264167   0.624   1.739   4.940 -1.5399 -1.8780 -2.1342
19402SOL     OW64168   5.604   9.501  10.893 -0.6765 -0.5677  0.1112
19402SOL    HW164169   5.647   9.418  10.912 -2.1024 -1.9452 -2.1410
19402SOL    HW264170   5.613   9.512  10.798 -2.2632  0.8154  0.0603
19403SOL     OW64171   2.357   3.635   7.381  0.0167  0.0395  0.7526
19403SOL    HW164172   2.292   3.581   7.426 -0.2341 -0.2785  0.0289
19403SOL    HW264173   2.437   3.622   7.430 -0.1987 -0.4855  0.9711
19404SOL     OW64174   2.736   0.570   7.267  0.1005  0.4734  0.4993
19404SOL    HW164175   2.677   0.637   7.303  0.4711  1.0124  0.1116
19404SOL    HW264176   2.690   0.488   7.283 -0.7850  0.8867  0.1697
19405SOL     OW64177  10.834   2.175   7.256  0.2664 -0.1716 -0.1678
19405SOL    HW164178  10.768   2.244   7.252  1.4515  1.0366  0.2877
19405SOL    HW264179  10.851   2.154   7.164 -0.8661 -0.6385 -0.2900
19406SOL     OW64180  10.019   9.223   8.477 -0.3418 -0.4543 -0.3675
19406SOL    HW164181   9.991   9.173   8.400  1.2688  0.0556 -1.3371
19406SOL    HW264182   9.964   9.301   8.476 -1.3365 -1.1432 -0.1426
19407SOL     OW64183   3.111   6.687   4.870  0.2248 -0.5076 -0.0195
19407SOL    HW164184   3.116   6.607   4.817 -0.8112  0.2721 -1.3515
19407SOL    HW264185   3.068   6.751   4.813  0.3760  0.7949  1.2781
19408SOL     OW64186   6.494   1.922   7.932  0.1151 -0.0131 -0.7571
19408SOL    HW164187   6.429   1.986   7.904 -0.7156  0.0347  1.1124
19408SOL    HW264188   6.564   1.975   7.970 -1.0325 -0.1430  1.7345
19409SOL     OW64189   7.656   3.334   3.226  0.1182  0.1385  0.5358
19409SOL    HW164190   7.665   3.360   3.134 -0.3702  0.8139  0.6715
19409SOL    HW264191   7.562   3.322   3.238  0.2110 -0.2467  0.8651
19410SOL     OW64192   8.239   2.165   0.568 -0.0729  0.4824 -0.0028
19410SOL    HW164193   8.263   2.204   0.484 -2.1329  1.4196 -0.1985
19410SOL    HW264194   8.173   2.223   0.604 -1.5253 -1.5541  0.8122
19411SOL     OW64195   5.523   1.186   6.403  0.0296 -0.2054 -0.1721
19411SOL    HW164196   5.481   1.151   6.482 -0.3047  0.4822 -0.0354
19411SOL    HW264197   5.454   1.190   6.338  0.1124 -0.0077 -0.2507
19412SOL     OW64198  12.122   8.226   3.414 -0.0583  0.0363 -0.0751
19412SOL    HW164199  12.098   8.318   3.424 -0.0495  0.2379 -1.7422
19412SOL    HW264200  12.150   8.199   3.502 -0.4146  1.5090  0.5144
19413SOL     OW64201   8.832   5.585  12.005  0.0868 -0.0472  0.2157
19413SOL    HW164202   8.812   5.670  12.043  2.2448  1.0584 -0.9968
19413SOL    HW264203   8.821   5.597  11.911 -1.4219 -1.6841  0.1219
19414SOL     OW64204   9.864  10.894   3.315 -0.2615  0.6322  0.1177
19414SOL    HW164205   9.771  10.872   3.309 -0.1859  0.4760 -0.5966
19414SOL    HW264206   9.881  10.944   3.235  0.7067 -1.0224 -0.7756
19415SOL     OW64207   6.957   4.952   1.250 -0.2245 -0.5655  0.2090
19415SOL    HW164208   6.863   4.941   1.236  0.0891 -1.1539 -1.6686
19415SOL    HW264209   6.968   4.943   1.345 -2.2656  1.2688  0.6965
19416SOL     OW64210   0.318   9.181   6.272 -0.2612 -0.3542 -0.3885
19416SOL    HW164211   0.274   9.148   6.350 -1.8929 -0.9919 -1.5275
19416SOL    HW264212   0.403   9.137   6.273 -0.8618 -1.5756  0.2115
19417SOL     OW64213   8.677   3.606   1.105 -0.1574 -0.5493 -0.0524
19417SOL    HW164214   8.610   3.594   1.172 -0.5608 -0.4533 -0.4286
19417SOL    HW264215   8.755   3.563   1.140  0.7181  2.4403  2.0263
19418SOL     OW64216   5.581   8.228   7.281 -0.1646  0.3995 -0.3142
19418SOL    HW164217   5.501   8.190   7.317 -1.0224  1.4558 -1.0572
19418SOL    HW264218   5.611   8.288   7.348 -1.1401  1.5247 -0.8568
19419SOL     OW64219   3.781  12.111   2.157 -0.0467  0.1036 -0.4619
19419SOL    HW164220   3.791  12.017   2.173 -1.9972 -0.1583 -0.4249
19419SOL    HW264221   3.755  12.117   2.065  2.1298  0.8196 -1.0713
19420SOL     OW64222   7.396   4.384   8.368  0.5063 -0.1304  0.4905
19420SOL    HW164223   7.473   4.440   8.359  0.7303 -0.5007  0.0587
19420SOL    HW264224   7.322   4.444   8.368  0.6590  0.0926 -1.3214
19421SOL     OW64225   8.739   9.789   4.428 -0.2024  0.7607 -0.7133
19421SOL    HW164226   8.756   9.853   4.359  1.2659  2.2518  0.9495
19421SOL    HW264227   8.822   9.780   4.474 -1.5882  1.3196  2.0916
19422SOL     OW64228   8.504   9.817   4.967 -0.2032 -0.2382 -0.2035
19422SOL    HW164229   8.420   9.861   4.956  0.2462  1.5002  2.4032
19422SOL    HW264230   8.520   9.818   5.061  1.4981 -2.9913 -0.3426
19423SOL     OW64231   9.289  10.529   4.857  0.0250  0.2470  0.1957
19423SOL    HW164232   9.349  10.522   4.783 -1.1243 -0.0198 -0.7393
19423SOL    HW264233   9.231  10.453   4.848 -2.9138  2.4388 -1.1870
19424SOL     OW64234   2.241   8.820   1.938 -0.2880 -0.2589 -0.2311
19424SOL    HW164235   2.244   8.910   1.968  0.1501 -0.5446  0.6210
19424SOL    HW264236   2.211   8.770   2.014 -1.1376 -0.7598 -0.8709
19425SOL     OW64237   3.072   1.230   9.128 -0.2052 -0.1649  0.3570
19425SOL    HW164238   3.058   1.219   9.034 -1.9833  1.1787  0.4277
19425SOL    HW264239   3.114   1.315   9.136  0.3703 -0.4797  0.7691
19426SOL     OW64240   4.138   2.910   7.487  0.5270 -0.8461 -0.1313
19426SOL    HW164241   4.163   2.998   7.517 -0.9987 -0.3949 -0.0913
19426SOL    HW264242   4.078   2.878   7.555 -0.7846 -0.9422 -1.3014
19427SOL     OW64243  10.699   0.393  10.743 -0.2036 -0.1284 -0.7776
19427SOL    HW164244  10.755   0.449  10.796  0.9526  0.1333 -2.2429
19427SOL    HW264245  10.648   0.343  10.808  0.5960  0.7271  0.5618
19428SOL     OW64246  12.297  12.279  11.032 -0.0750 -0.1138 -0.1965
19428SOL    HW164247  12.336  12.346  10.977  0.2766 -0.1339  0.0248
19428SOL    HW264248  12.209  12.311  11.051 -0.0817  0.0466 -0.5013
19429SOL     OW64249  11.896  10.277   4.452 -0.2501 -0.3891 -0.3386
19429SOL    HW164250  11.880  10.195   4.497  0.0539  0.3670  1.2033
19429SOL    HW264251  11.870  10.345   4.514  1.9223  0.7353 -0.5436
19430SOL     OW64252   7.614  12.261   2.246  0.4335  0.8023 -0.0073
19430SOL    HW164253   7.598  12.205   2.322 -3.7396  0.8637 -0.6202
19430SOL    HW264254   7.610  12.203   2.171  2.1355  1.1064 -0.3678
19431SOL     OW64255   9.259   7.006   8.103 -0.4691  0.4407 -0.5027
19431SOL    HW164256   9.276   6.986   8.011 -2.5909 -0.1236 -0.8344
19431SOL    HW264257   9.337   7.053   8.133  0.4700  0.2048 -2.4400
19432SOL     OW64258   0.686   2.526  10.029 -0.7930 -1.0637  0.0874
19432SOL    HW164259   0.617   2.478   9.982 -1.3161  0.0892 -0.3425
19432SOL    HW264260   0.680   2.493  10.119 -0.3630 -2.6505 -0.4204
19433SOL     OW64261   7.990   0.086   7.933 -0.2897 -0.2368 -0.1131
19433SOL    HW164262   7.938   0.115   7.859 -0.7622  1.8188  0.9567
19433SOL    HW264263   8.072   0.134   7.925  0.5436 -1.6729 -0.4812
19434SOL     OW64264   2.818   3.709   6.807  0.1019  0.8995 -0.1383
19434SOL    HW164265   2.774   3.757   6.737 -0.0608  0.2269 -0.5118
19434SOL    HW264266   2.751   3.696   6.874 -1.1274 -2.3037 -1.7543
19435SOL     OW64267   9.081   0.360   2.286 -0.2296 -0.8582 -0.1097
19435SOL    HW164268   9.098   0.401   2.201 -2.1061 -0.0396 -0.1391
19435SOL    HW264269   9.125   0.417   2.350  0.6216 -1.1081 -0.4625
19436SOL     OW64270  11.219   4.760   4.620 -0.0715 -0.3931  0.3403
19436SOL    HW164271  11.128   4.763   4.649  0.3339  2.3960  1.6966
19436SOL    HW264272  11.262   4.702   4.684 -0.7060 -0.9889  0.2383
19437SOL     OW64273   5.377   7.565   1.560  0.2470 -0.3001 -0.5857
19437SOL    HW164274   5.400   7.471   1.557 -0.0480 -0.3589 -1.1094
19437SOL    HW264275   5.462   7.609   1.567  0.4031 -0.5981 -0.5487
19438SOL     OW64276   0.608  10.239   6.909  0.4146 -0.2448  0.5201
19438SOL    HW164277   0.584  10.146   6.902 -1.4077  0.0841  1.6214
19438SOL    HW264278   0.563  10.280   6.835  0.5555 -0.1191  0.5044
19439SOL     OW64279   0.986   0.039   6.207 -0.0604 -0.0713 -0.4727
19439SOL    HW164280   1.006   0.085   6.289  2.0487 -1.4023 -0.1411
19439SOL    HW264281   1.061   0.058   6.150  0.2704 -1.9854 -0.7592
19440SOL     OW64282   9.903   3.755   2.795 -0.5683  0.4546 -0.5189
19440SOL    HW164283   9.927   3.690   2.729  1.9085  2.4240 -1.7531
19440SOL    HW264284   9.885   3.704   2.874  3.0706 -1.7345 -0.8806
19441SOL     OW64285  11.254   0.612   6.754  0.5875  0.1746  0.4443
19441SOL    HW164286  11.262   0.646   6.665 -2.6353 -1.2705 -0.5444
19441SOL    HW264287  11.225   0.688   6.806  0.4079  0.5417 -0.1872
19442SOL     OW64288   8.854   4.932  10.561  0.3239 -0.1527  0.0658
19442SOL    HW164289   8.787   4.932  10.492  2.1800 -0.3482 -1.8707
19442SOL    HW264290   8.914   5.003  10.535  1.8928 -1.2345  0.5911
19443SOL     OW64291   0.475   8.043   7.965  0.3910 -0.0722 -0.1540
19443SOL    HW164292   0.533   8.043   7.888  0.5385  0.5393 -0.0487
19443SOL    HW264293   0.388   8.026   7.929  0.2675  1.3919 -0.6241
19444SOL     OW64294   8.483   1.538   4.874 -0.1843  0.1476 -0.0533
19444SOL    HW164295   8.420   1.569   4.938  0.6651  0.3698  0.6857
19444SOL    HW264296   8.495   1.445   4.895 -0.1120  0.1546 -0.0620
19445SOL     OW64297  11.618   6.309   8.747  0.3254 -0.0660  0.5217
19445SOL    HW164298  11.707   6.278   8.762  0.8804  1.9669  1.9350
19445SOL    HW264299  11.627   6.382   8.686 -0.3087  0.2852  0.8248
19446SOL     OW64300   2.915   3.394   8.735  0.4209  0.2234 -0.0621
19446SOL    HW164301   2.911   3.437   8.650 -0.4980  0.6131  0.1733
19446SOL    HW264302   2.872   3.309   8.721 -0.7215  0.7266  0.2595
19447SOL     OW64303   9.052  10.851   8.252  0.1530  0.3864 -0.2233
19447SOL    HW164304   8.982  10.788   8.262  0.4282  0.0669 -0.2947
19447SOL    HW264305   9.028  10.901   8.173 -0.2284  0.5893  0.0208
19448SOL     OW64306   7.335   5.590   9.914 -0.1174  0.0749 -0.2177
19448SOL    HW164307   7.332   5.558  10.005  1.6753  0.7525  0.1226
19448SOL    HW264308   7.393   5.666   9.918  0.0792  0.0382 -1.9537
19449SOL     OW64309  12.197   5.101   9.044 -0.3317 -0.0207 -0.4711
19449SOL    HW164310  12.170   5.105   8.952 -0.1845  0.0308 -0.5134
19449SOL    HW264311  12.224   5.190   9.065  1.5761 -0.4197 -0.9859
19450SOL     OW64312  11.556   4.909   0.663 -0.4776 -0.0307 -0.4474
19450SOL    HW164313  11.463   4.906   0.686 -0.3642  0.3530  0.0857
19450SOL    HW264314  11.593   4.974   0.722  0.2244 -0.5206 -0.3389
19451SOL     OW64315   9.083   3.108   1.199  0.8896 -0.1540  0.9423
19451SOL    HW164316   9.128   3.183   1.159  0.7912  0.0485  1.2065
19451SOL    HW264317   9.101   3.035   1.139  2.4523 -0.3227  1.5573
19452SOL     OW64318   5.923   0.232   4.755 -0.0548  0.4504 -0.0934
19452SOL    HW164319   5.862   0.306   4.759 -0.2209  0.3037  0.1180
19452SOL    HW264320   5.874   0.159   4.793  0.4236  0.4488  0.5464
19453SOL     OW64321   1.956   7.138  10.354  0.6401  0.2937  0.1776
19453SOL    HW164322   1.986   7.062  10.305  2.0252 -0.2313  1.7385
19453SOL    HW264323   1.936   7.203  10.287 -1.4489 -1.6876 -1.2534
19454SOL     OW64324  10.907   8.587  11.554 -0.0636  0.4124 -0.2941
19454SOL    HW164325  10.975   8.583  11.486  0.5995  3.1132  0.0964
19454SOL    HW264326  10.949   8.631  11.628 -1.2162 -1.1245  1.3722
19455SOL     OW64327   9.689   5.625   5.814  0.6175 -0.7529  0.0863
19455SOL    HW164328   9.776   5.659   5.834  0.6580  0.2153 -1.5663
19455SOL    HW264329   9.699   5.584   5.727 -0.8440  0.6046 -0.7704
19456SOL     OW64330   6.170  10.951   1.458  0.5355  0.2856 -0.2869
19456SOL    HW164331   6.209  10.990   1.536 -0.0561  0.9925 -0.3297
19456SOL    HW264332   6.232  10.970   1.388  1.3169 -0.7933  0.0822
19457SOL     OW64333   3.644   9.626   6.059  0.2271 -0.2880 -0.0159
19457SOL    HW164334   3.671   9.676   6.136  0.5318 -0.1571 -0.2016
19457SOL    HW264335   3.560   9.588   6.083 -0.2493  0.7080 -0.0347
19458SOL     OW64336  10.258   8.014   0.280  0.0512 -0.0657 -0.1933
19458SOL    HW164337  10.333   7.971   0.320  0.0389  0.0934  0.0037
19458SOL    HW264338  10.184   7.992   0.337  0.0022  0.0194 -0.2234
19459SOL     OW64339   5.628   6.165   8.903  0.1077  0.8352 -0.3991
19459SOL    HW164340   5.706   6.151   8.849  0.9559 -0.5928  1.1036
19459SOL    HW264341   5.573   6.089   8.886 -0.3013  1.1041 -0.3110
19460SOL     OW64342   0.956   1.219   2.068  0.5117 -0.2954 -0.2141
19460SOL    HW164343   0.967   1.254   2.157 -1.2701 -0.4643  0.1125
19460SOL    HW264344   1.045   1.199   2.039  1.1789  0.2615  1.3265
19461SOL     OW64345   1.406   5.546   2.223  0.1896  0.8761  0.2381
19461SOL    HW164346   1.336   5.510   2.169  1.6600 -0.7539 -0.7006
19461SOL    HW264347   1.375   5.537   2.313 -0.8623  0.3409 -0.1685
19462SOL     OW64348   5.399   3.997   0.862  0.2638 -0.0350 -0.5867
19462SOL    HW164349   5.346   3.922   0.891  0.0039 -0.0004 -0.9600
19462SOL    HW264350   5.361   4.021   0.778  0.2583  0.6079 -0.4059
19463SOL     OW64351   1.528   1.807   2.283 -0.2127 -0.3000  0.6006
19463SOL    HW164352   1.588   1.828   2.355 -1.1412 -0.4991  1.4664
19463SOL    HW264353   1.454   1.765   2.326 -0.8619 -0.2860 -0.4697
19464SOL     OW64354   4.404   5.320   3.030 -0.5365 -0.3488 -0.0695
19464SOL    HW164355   4.316   5.292   3.005 -0.7854  0.4590 -0.1311
19464SOL    HW264356   4.400   5.416   3.028  0.7292 -0.2893 -1.4262
19465SOL     OW64357   9.286  11.040  11.646  0.0492 -0.0714  0.4820
19465SOL    HW164358   9.233  11.021  11.724 -1.5762  3.8987  0.5649
19465SOL    HW264359   9.370  11.069  11.680 -0.9757  2.5810  0.9478
19466SOL     OW64360  11.518   9.118   9.505  0.0457  0.5353 -0.2484
19466SOL    HW164361  11.441   9.167   9.477  1.0586  1.4162 -1.6279
19466SOL    HW264362  11.523   9.044   9.444  0.7846  0.9776 -0.7268
19467SOL     OW64363   0.848   1.888   0.155  0.6235  0.2342  0.4792
19467SOL    HW164364   0.936   1.873   0.119  0.2563 -1.5725  0.2749
19467SOL    HW264365   0.798   1.810   0.131 -0.9454  1.0645  0.9312
19468SOL     OW64366   3.883   7.258   0.023  0.2205  0.2389 -0.6004
19468SOL    HW164367   3.809   7.197   0.023  1.7502 -1.8062 -2.8462
19468SOL    HW264368   3.940   7.226   0.093  0.8857 -0.7654 -1.5865
19469SOL     OW64369  10.000   1.732   0.272  0.4039  0.1464  0.0488
19469SOL    HW164370  10.053   1.657   0.300  0.3640  0.1702  0.1920
19469SOL    HW264371   9.991   1.785   0.352 -0.2156 -0.0815  0.1388
19470SOL     OW64372   8.489   3.946  10.349 -0.2931 -0.3423  0.1610
19470SOL    HW164373   8.443   3.906  10.276  3.3756 -1.4321 -1.8043
19470SOL    HW264374   8.480   4.040  10.335  0.8248 -0.5181 -2.1316
19471SOL     OW64375   8.929   6.924  11.043 -0.0369 -0.0346 -0.2753
19471SOL    HW164376   8.915   6.886  11.130 -1.6320 -0.5256 -0.7138
19471SOL    HW264377   8.996   6.991  11.057 -1.5007  1.1121  1.6809
19472SOL     OW64378   5.381  11.920   3.361 -0.2289 -0.5239  0.2138
19472SOL    HW164379   5.381  11.824   3.367 -2.5936 -0.5469  1.0590
19472SOL    HW264380   5.404  11.949   3.450  1.9521 -0.2257 -0.3891
19473SOL     OW64381   3.786   9.882   9.301  0.4997 -0.2172 -0.2529
19473SOL    HW164382   3.770   9.877   9.207  0.9148  1.4548 -0.4541
19473SOL    HW264383   3.708   9.843   9.341 -0.9592  1.4859 -1.2769
19474SOL     OW64384   1.504   8.328  10.221 -0.2017 -0.0592 -0.3426
19474SOL    HW164385   1.491   8.320  10.127 -1.5179 -0.6074 -0.1425
19474SOL    HW264386   1.574   8.267  10.242  0.2388  0.2238 -0.9959
19475SOL     OW64387   7.778   3.012   0.106  0.2579  0.6460  0.4365
19475SOL    HW164388   7.796   3.027   0.199  0.5592 -0.2025  0.5317
19475SOL    HW264389   7.684   2.995   0.102  0.4748 -0.8418  0.8389
19476SOL     OW64390   1.393   8.956  11.484 -0.1277  0.2073 -1.0139
19476SOL    HW164391   1.317   8.988  11.435 -0.5918  1.2177  0.3136
19476SOL    HW264392   1.358   8.931  11.569  0.9244  0.0472 -0.6171
19477SOL     OW64393  11.838   2.898   0.791  0.1427 -0.0349  0.2528
19477SOL    HW164394  11.853   2.850   0.710  0.0359  2.0625 -1.1001
19477SOL    HW264395  11.907   2.964   0.793 -2.7086  3.2987 -0.9125
19478SOL     OW64396   8.342  11.272   9.162  0.0350  0.0007 -0.6113
19478SOL    HW164397   8.273  11.264   9.228  0.0697  0.0629 -0.5670
19478SOL    HW264398   8.298  11.312   9.086  0.1685  0.6755 -0.3464
19479SOL     OW64399  11.153  12.226  11.497  0.3192 -0.0371  0.3042
19479SOL    HW164400  11.109  12.164  11.439  0.2933 -0.3476  0.6518
19479SOL    HW264401  11.244  12.229  11.465  0.1846  0.1740 -0.0607
19480SOL     OW64402   5.317   8.683  10.145 -0.1801  0.0033 -0.1612
19480SOL    HW164403   5.227   8.681  10.177 -0.5569 -0.6942 -1.2072
19480SOL    HW264404   5.323   8.608  10.086  1.3294 -0.4355  0.5129
19481SOL     OW64405   5.290   4.073   0.321  0.5237 -0.0867  0.1457
19481SOL    HW164406   5.203   4.084   0.357  0.7886  0.3987  0.6451
19481SOL    HW264407   5.279   4.089   0.227 -0.0633 -0.8240  0.0747
19482SOL     OW64408   0.198   1.359   4.520 -0.0052  0.5680 -0.3546
19482SOL    HW164409   0.236   1.271   4.511  0.7648  0.6344  1.7741
19482SOL    HW264410   0.248   1.413   4.458 -0.6236 -0.4950 -1.8361
19483SOL     OW64411  11.909   9.267   7.612 -0.0329  0.0703  0.2282
19483SOL    HW164412  11.816   9.243   7.610  0.3324 -1.3909 -1.4486
19483SOL    HW264413  11.909   9.363   7.617 -1.6603  0.1704 -0.9902
19484SOL     OW64414   8.010   0.136  10.976  0.4224 -0.2583  0.2908
19484SOL    HW164415   8.096   0.158  11.011  0.6022 -2.1471  1.1495
19484SOL    HW264416   8.011   0.040  10.967 -1.9356 -0.4389  1.2803
19485SOL     OW64417   4.600   3.642   8.269 -0.2358 -0.3136 -0.1707
19485SOL    HW164418   4.674   3.597   8.228  0.6871  2.1191 -1.3584
19485SOL    HW264419   4.627   3.734   8.273 -1.5600  0.0475  3.1773
19486SOL     OW64420   0.026   4.911   3.835  0.6102 -0.1659 -0.2709
19486SOL    HW164421   0.084   4.984   3.858  0.9854 -0.0973 -1.3701
19486SOL    HW264422   0.008   4.923   3.742 -1.8362  0.2473  0.1999
19487SOL     OW64423   5.390  10.849   6.939 -0.1864 -0.0911 -0.2132
19487SOL    HW164424   5.400  10.857   6.844  0.2571  0.3072 -0.1411
19487SOL    HW264425   5.297  10.834   6.953 -0.2502 -0.1619 -0.7133
19488SOL     OW64426  10.496  10.025  11.486  0.0897 -0.0511 -0.6986
19488SOL    HW164427  10.520  10.100  11.540  1.7810 -1.0908  0.0856
19488SOL    HW264428  10.455   9.964  11.547 -0.2632 -0.2159 -1.0990
19489SOL     OW64429   5.293   3.052   6.777 -0.0401  0.2666 -0.3055
19489SOL    HW164430   5.326   3.022   6.692  0.3348 -0.9513  0.2497
19489SOL    HW264431   5.227   2.987   6.801 -2.1753  2.0856 -0.9126
19490SOL     OW64432   2.503  10.693   3.044 -0.4525 -0.2038  0.3410
19490SOL    HW164433   2.456  10.643   2.977 -0.4672 -0.1905  0.3408
19490SOL    HW264434   2.485  10.785   3.022  3.5003  0.1105 -2.5955
19491SOL     OW64435   7.965  11.946   0.246  0.0604  0.3184  0.1264
19491SOL    HW164436   8.046  11.990   0.222 -0.1565  0.7716  0.2033
19491SOL    HW264437   7.988  11.853   0.253  1.2708  0.7184  3.0438
19492SOL     OW64438  11.142  10.399   1.314 -0.7705 -0.6089 -0.0951
19492SOL    HW164439  11.217  10.412   1.372 -1.0482  0.6574 -0.0080
19492SOL    HW264440  11.182  10.382   1.228 -0.3619  1.4876 -0.3557
19493SOL     OW64441   6.182  12.178  11.540 -0.0196 -0.2050 -0.5687
19493SOL    HW164442   6.217  12.091  11.522 -1.0554 -0.5794 -0.8799
19493SOL    HW264443   6.189  12.224  11.457  0.1454 -0.1288 -0.5126
19494SOL     OW64444  12.318  10.925   8.530 -0.4388 -0.0895 -0.0549
19494SOL    HW164445  12.280  10.949   8.445 -0.5606 -1.1437 -0.3050
19494SOL    HW264446  12.298  10.832   8.541  2.5005 -0.8899 -0.4843
19495SOL     OW64447   5.781   1.248   7.289  0.4092 -0.6450  0.3279
19495SOL    HW164448   5.763   1.275   7.199 -0.5102  1.3949  1.0623
19495SOL    HW264449   5.696   1.251   7.333  0.4837 -3.5790  0.8403
19496SOL     OW64450   6.349   3.654   6.769 -0.4665 -0.4485 -0.1160
19496SOL    HW164451   6.263   3.692   6.784 -0.0488  0.2519  0.6237
19496SOL    HW264452   6.334   3.583   6.707 -1.3056  0.8342 -1.4573
19497SOL     OW64453   5.964   9.440   3.871 -0.6258  0.1890 -0.4603
19497SOL    HW164454   5.933   9.352   3.849 -1.7209  0.3074  0.5516
19497SOL    HW264455   5.887   9.486   3.903 -0.0140  1.4583 -0.7311
19498SOL     OW64456  10.776  12.112   6.549  0.0264 -0.2202  0.2153
19498SOL    HW164457  10.858  12.101   6.499  0.2705  1.8998  0.0463
19498SOL    HW264458  10.805  12.115   6.640 -0.4094 -3.9793  0.6363
19499SOL     OW64459   1.064  12.036   7.753 -0.0843 -0.0413 -0.0758
19499SOL    HW164460   1.037  11.948   7.779  1.2357 -0.4566 -0.0113
19499SOL    HW264461   0.989  12.091   7.772 -1.4371 -1.3560 -1.3452
19500SOL     OW64462   6.313   3.853   5.815 -0.4036 -0.1762 -0.2700
19500SOL    HW164463   6.374   3.873   5.744  0.0526  3.4106  0.8937
19500SOL    HW264464   6.331   3.762   5.838  2.7773 -0.0205 -1.6483
19501SOL     OW64465  10.705   0.937   8.585  0.8131 -0.1402  0.5922
19501SOL    HW164466  10.669   0.849   8.595 -0.0038  0.3012  1.6980
19501SOL    HW264467  10.764   0.947   8.660  2.8259 -0.6169 -0.8398
19502SOL     OW64468   3.446   5.991  11.169 -0.2866 -0.5469  0.1751
19502SOL    HW164469   3.465   6.077  11.207  0.3447 -0.9246  0.7374
19502SOL    HW264470   3.399   6.011  11.088  1.4664  0.4197 -0.6803
19503SOL     OW64471  11.172   4.745   7.423 -0.1100  0.5328  0.2729
19503SOL    HW164472  11.253   4.732   7.472 -0.6324  1.9093  1.5970
19503SOL    HW264473  11.102   4.723   7.485 -0.7615 -0.0032 -0.6337
19504SOL     OW64474   1.377  11.080   1.679  0.2869 -0.2654  0.0446
19504SOL    HW164475   1.387  11.015   1.610  1.0603 -3.1137  2.6013
19504SOL    HW264476   1.436  11.152   1.653  3.5817 -2.9075 -0.5296
19505SOL     OW64477   7.384   3.113   5.418 -0.3788  0.7462  0.0310
19505SOL    HW164478   7.362   3.020   5.428  0.5023  0.4535 -0.5597
19505SOL    HW264479   7.346   3.137   5.333  0.9597  0.4092 -0.6900
19506SOL     OW64480   0.563   2.467   8.978 -0.2436  0.3189 -0.1229
19506SOL    HW164481   0.503   2.398   8.949 -0.6790  0.4723  0.3785
19506SOL    HW264482   0.602   2.432   9.058 -0.2243  0.5222 -0.0440
19507SOL     OW64483  11.300   5.526   4.591 -0.4692 -0.3343  0.7156
19507SOL    HW164484  11.330   5.612   4.620  1.8193 -0.5498 -0.7147
19507SOL    HW264485  11.381   5.476   4.577 -1.5820 -1.6464 -1.5918
19508SOL     OW64486  10.729  11.696   1.821  0.1332  0.2277 -0.5058
19508SOL    HW164487  10.652  11.706   1.878  1.0374  0.0975  0.7863
19508SOL    HW264488  10.773  11.618   1.855  1.7016  1.2332 -0.1693
19509SOL     OW64489   9.107   6.734  10.949  0.0217 -0.3139  0.8644
19509SOL    HW164490   9.066   6.690  10.874 -0.0196 -2.4417  2.0706
19509SOL    HW264491   9.043   6.801  10.975 -0.3449 -0.1210 -0.4186
19510SOL     OW64492   6.741   7.551   3.399  0.4584 -0.2757 -0.0135
19510SOL    HW164493   6.722   7.642   3.421  0.9154  0.0171 -0.7658
19510SOL    HW264494   6.660   7.504   3.419  0.2515  0.2746  0.4750
19511SOL     OW64495   0.516  11.591  10.154  0.0093 -0.1276 -0.1450
19511SOL    HW164496   0.585  11.625  10.211  0.2566  0.5929 -0.8548
19511SOL    HW264497   0.479  11.668  10.112  0.6110 -0.7090 -1.8307
19512SOL     OW64498   7.053   3.698   8.480 -0.3129  0.3211  0.3148
19512SOL    HW164499   7.138   3.671   8.445 -0.8003 -0.9728  0.0917
19512SOL    HW264500   7.075   3.766   8.545  0.9533 -0.5140  0.8029
19513SOL     OW64501   4.090   2.395   0.888  0.6429 -0.0951 -0.0616
19513SOL    HW164502   4.179   2.394   0.925  0.0036 -1.2051  1.5790
19513SOL    HW264503   4.049   2.472   0.927  0.6965  0.0828 -0.3534
19514SOL     OW64504   9.197   2.106   3.410  0.2830  0.0847  0.3511
19514SOL    HW164505   9.238   2.027   3.447 -0.3200  0.2638  1.4570
19514SOL    HW264506   9.221   2.176   3.471 -0.7344  0.3920  0.4103
19515SOL     OW64507   6.387   7.184   0.740  0.1165 -0.7409 -0.7048
19515SOL    HW164508   6.356   7.273   0.723  1.2367  0.1850  1.6677
19515SOL    HW264509   6.342   7.130   0.674  0.4401  1.7020 -3.1031
19516SOL     OW64510   1.059  11.189  12.448 -0.3495 -0.1727  0.5982
19516SOL    HW164511   1.101  11.234  12.521 -0.6668  0.6266  0.3027
19516SOL    HW264512   1.020  11.111  12.487 -1.2896  0.7055  1.4707
19517SOL     OW64513  10.039   4.723   5.856 -0.1468  0.6971 -0.2469
19517SOL    HW164514  10.027   4.759   5.944 -0.3585 -0.1328  0.0636
19517SOL    HW264515   9.974   4.654   5.848  0.8568 -0.2593 -0.4937
19518SOL     OW64516   5.157   9.367   9.768 -0.0546 -0.1014 -0.0969
19518SOL    HW164517   5.248   9.355   9.797 -0.3069 -0.4829  0.5630
19518SOL    HW264518   5.152   9.320   9.685  0.1142 -0.8778  0.3200
19519SOL     OW64519   5.827  11.314   0.559 -0.4167 -0.2450  0.2637
19519SOL    HW164520   5.851  11.407   0.554  2.0152 -0.7993  0.4906
19519SOL    HW264521   5.737  11.311   0.528 -0.5688  2.1945  0.2723
19520SOL     OW64522   7.726   4.260   4.233  0.2044 -0.3957 -0.6457
19520SOL    HW164523   7.769   4.229   4.153 -0.0654  0.6741 -1.2286
19520SOL    HW264524   7.759   4.349   4.245 -1.0688  0.0774 -0.5440
19521SOL     OW64525   8.566   7.065   5.696  0.5886 -0.0572 -0.2555
19521SOL    HW164526   8.609   7.087   5.778  0.8000  2.5869 -0.9917
19521SOL    HW264527   8.482   7.028   5.722  0.4202  1.2430  1.1565
19522SOL     OW64528   0.621   5.799   5.861 -0.1930  1.0994  0.2956
19522SOL    HW164529   0.646   5.879   5.816  0.6619  1.0917  0.7313
19522SOL    HW264530   0.664   5.729   5.812  0.3737  1.0531  0.8535
19523SOL     OW64531  11.126  11.142   5.454  0.0650  0.3347 -0.1178
19523SOL    HW164532  11.045  11.092   5.441 -0.2505  0.6658  0.5136
19523SOL    HW264533  11.196  11.080   5.436 -0.3302 -0.1553  0.0115
19524SOL     OW64534   8.252   7.898   6.465  0.1016 -0.1763 -0.3172
19524SOL    HW164535   8.192   7.884   6.392 -1.1157  0.4401  0.5556
19524SOL    HW264536   8.201   7.878   6.543  1.7908 -2.2983  0.3665
19525SOL     OW64537   4.749   2.342   1.553  0.0022 -0.3532  0.3557
19525SOL    HW164538   4.843   2.342   1.535 -0.1423  0.3628 -0.4652
19525SOL    HW264539   4.713   2.405   1.491 -1.3805 -2.5944 -1.2528
19526SOL     OW64540   8.880   5.304   6.015 -0.0632 -0.0257 -0.3590
19526SOL    HW164541   8.822   5.364   5.970  0.3554  0.5476 -0.1464
19526SOL    HW264542   8.967   5.324   5.980 -0.0092 -1.0103 -0.8296
19527SOL     OW64543   5.020   1.365   5.881 -0.4626  0.2746 -0.1010
19527SOL    HW164544   5.102   1.332   5.918 -0.3398  1.6242  0.9144
19527SOL    HW264545   4.969   1.287   5.861  0.2489 -0.5468  1.1711
19528SOL     OW64546   3.183   1.350   9.440 -0.3254 -0.3326 -0.3237
19528SOL    HW164547   3.194   1.343   9.345 -0.4943 -1.6197 -0.2643
19528SOL    HW264548   3.235   1.427   9.465  0.7019 -0.6861 -1.2995
19529SOL     OW64549  10.077   2.668   3.873 -0.0463  0.7505  0.4914
19529SOL    HW164550  10.134   2.619   3.813 -0.7526 -0.3972  0.7234
19529SOL    HW264551  10.014   2.711   3.815 -2.2378 -2.2728  0.3985
19530SOL     OW64552   1.883   1.094   2.881  0.0734  0.3035 -0.2536
19530SOL    HW164553   1.918   1.167   2.830 -1.2787  0.0214 -1.6546
19530SOL    HW264554   1.791   1.117   2.896 -0.3529 -1.0493 -0.6462
19531SOL     OW64555   2.252   7.177   4.720  0.6868 -0.2339  0.1700
19531SOL    HW164556   2.281   7.155   4.632 -0.7447  1.3352 -0.7705
19531SOL    HW264557   2.323   7.230   4.757  1.2357 -0.7902 -0.0853
19532SOL     OW64558  11.139   2.521  11.665  0.2475 -0.0274  0.2392
19532SOL    HW164559  11.057   2.484  11.697 -0.8845  1.5050 -0.7007
19532SOL    HW264560  11.180   2.559  11.743 -0.0168 -0.6578  0.6942
19533SOL     OW64561  11.091   8.746   6.802  0.0771 -0.3294 -0.5675
19533SOL    HW164562  11.069   8.668   6.854  0.3648 -0.3234 -0.4349
19533SOL    HW264563  11.012   8.764   6.751  0.4348 -1.5079 -1.6054
19534SOL     OW64564   2.610   4.543   7.513 -0.1431 -0.3787  0.2753
19534SOL    HW164565   2.698   4.570   7.538 -0.5602 -0.7542  2.2899
19534SOL    HW264566   2.552   4.588   7.575 -1.3789 -0.1863 -0.9728
19535SOL     OW64567   3.535   8.068  11.990  0.1796 -0.5743 -0.1530
19535SOL    HW164568   3.559   8.145  12.042 -1.6772 -1.6271  2.5153
19535SOL    HW264569   3.615   8.016  11.987  0.8392  0.4055  0.0032
19536SOL     OW64570   8.249   2.050   7.539  0.2801 -0.1703  0.4839
19536SOL    HW164571   8.238   2.140   7.510 -0.3497  0.5579  2.7862
19536SOL    HW264572   8.340   2.029   7.516 -0.3088  0.0543 -2.4541
19537SOL     OW64573   9.125   6.455   6.114  0.6506  0.2845 -0.1794
19537SOL    HW164574   9.078   6.516   6.171 -2.2626 -0.3354 -1.7116
19537SOL    HW264575   9.109   6.488   6.025  0.9626 -1.4209 -0.9089
19538SOL     OW64576   3.079   7.227  12.493 -0.2832 -0.4911  0.5611
19538SOL    HW164577   3.170   7.197  12.499 -0.5958 -1.4353  0.8776
19538SOL    HW264578   3.044   7.181  12.417 -0.3874  0.2035  0.1795
19539SOL     OW64579   8.456   9.396   6.218 -0.2847  0.2639  0.0419
19539SOL    HW164580   8.539   9.350   6.224 -1.7495 -2.4143  2.1591
19539SOL    HW264581   8.462   9.466   6.283 -0.1383 -0.7911  1.1932
19540SOL     OW64582   7.799  11.445   3.608  0.4218 -0.3221  0.5701
19540SOL    HW164583   7.804  11.522   3.552 -1.4838 -0.4561  0.1455
19540SOL    HW264584   7.888  11.435   3.643  1.3369  0.5521 -1.3515
19541SOL     OW64585   7.367   3.981  10.990  0.2093  0.3381  0.4023
19541SOL    HW164586   7.431   4.049  11.010  0.5008  0.6123 -1.3710
19541SOL    HW264587   7.312   3.976  11.069  1.3769  1.2511  1.3033
19542SOL     OW64588   1.078  12.032   0.046  0.5231  0.4583  0.2038
19542SOL    HW164589   1.164  11.993   0.033  1.0055  0.9281  1.7623
19542SOL    HW264590   1.048  12.055  -0.043  2.2808  0.8800 -0.3087
19543SOL     OW64591   8.447   0.006   4.944  0.3320 -0.5104  0.2594
19543SOL    HW164592   8.543   0.012   4.950  0.3966 -0.4044 -0.6646
19543SOL    HW264593   8.432  -0.059   4.875 -0.2235  1.1015 -1.2189
19544SOL     OW64594   3.539  10.016   0.097  0.0462  0.0537 -0.1159
19544SOL    HW164595   3.613  10.072   0.076  0.1391  0.1026  0.3402
19544SOL    HW264596   3.482  10.070   0.152  0.9710 -0.8341  1.8077
19545SOL     OW64597   3.011   7.669   9.382  0.8704 -0.4878  0.8335
19545SOL    HW164598   2.948   7.648   9.312  0.7718 -1.0721  1.0873
19545SOL    HW264599   3.085   7.611   9.364  0.8003 -0.7164  1.2692
19546SOL     OW64600  11.027   5.897   8.493  0.2522  0.8311  0.1028
19546SOL    HW164601  11.047   5.988   8.515 -1.6149  1.0227  1.2372
19546SOL    HW264602  10.936   5.885   8.519  0.0518 -1.0200 -1.2037
19547SOL     OW64603  12.160  12.384   8.020 -0.4426 -0.3436  0.4967
19547SOL    HW164604  12.154  12.459   8.078  0.7131 -0.0118  0.2008
19547SOL    HW264605  12.144  12.420   7.932  1.2090 -0.2308  0.2229
19548SOL     OW64606   7.626   5.204   0.027 -0.3440  0.0495  0.4248
19548SOL    HW164607   7.676   5.233  -0.050 -1.3959  1.5311  0.2497
19548SOL    HW264608   7.667   5.122   0.053  1.7270  0.8476 -0.1270
19549SOL     OW64609   5.517   2.922   0.422 -1.3628 -0.1419 -0.1570
19549SOL    HW164610   5.485   3.008   0.395 -0.0480 -0.1445 -1.9285
19549SOL    HW264611   5.510   2.922   0.517 -0.0558  2.5289  0.0224
19550SOL     OW64612   9.598   0.840   1.495 -0.2316  0.4837 -0.1090
19550SOL    HW164613   9.654   0.826   1.418  0.3188 -0.1687  0.3986
19550SOL    HW264614   9.592   0.753   1.536 -1.7604  0.4973 -0.2458
19551SOL     OW64615   4.505  10.114   7.744 -0.4211 -0.2261 -0.0243
19551SOL    HW164616   4.566  10.045   7.769 -0.7486 -0.4509  0.1553
19551SOL    HW264617   4.440  10.070   7.689 -0.8730 -0.1531  0.4402
19552SOL     OW64618   0.148   8.344   3.320  0.3500  0.2284  0.5565
19552SOL    HW164619   0.067   8.357   3.271  0.3744  1.5870  0.8335
19552SOL    HW264620   0.126   8.276   3.385 -0.3470  0.0699  0.1612
19553SOL     OW64621   4.368   2.686   9.338  0.3627  0.2946 -0.0666
19553SOL    HW164622   4.453   2.718   9.308  1.5864 -1.3901  1.3844
19553SOL    HW264623   4.325   2.655   9.258  1.0261  1.2996 -0.8466
19554SOL     OW64624   9.267  11.256   5.228  0.3943  0.2413 -0.2488
19554SOL    HW164625   9.200  11.262   5.160  0.6674  2.7109 -0.3878
19554SOL    HW264626   9.223  11.287   5.307  0.8221 -0.0390  0.1017
19555SOL     OW64627   1.092   9.252  11.357  0.1629 -0.0795  0.1391
19555SOL    HW164628   1.059   9.259  11.447 -0.8197 -0.8609 -0.1428
19555SOL    HW264629   1.130   9.164  11.352 -0.1641 -0.1940 -0.3373
19556SOL     OW64630   8.429   7.848   9.951  0.3007 -0.7112 -0.4270
19556SOL    HW164631   8.499   7.798   9.909 -0.6829 -1.9319 -0.6542
19556SOL    HW264632   8.461   7.866  10.039  1.0508 -0.9415 -0.6503
19557SOL     OW64633   1.968   9.362   3.151  0.7832  0.3785  0.5073
19557SOL    HW164634   1.960   9.432   3.087  2.4811  0.6638  0.5569
19557SOL    HW264635   1.928   9.285   3.110 -0.5093  1.1916  0.1956
19558SOL     OW64636   8.297   2.028   9.991 -0.2778  0.1866  0.1470
19558SOL    HW164637   8.312   2.011  10.084  1.7649  1.5668  0.1338
19558SOL    HW264638   8.299   2.123   9.982 -2.2614  0.1902 -1.0952
19559SOL     OW64639   6.619   0.126   2.302  0.9922  0.4100  0.4856
19559SOL    HW164640   6.585   0.198   2.355  0.9086 -0.3570  1.5085
19559SOL    HW264641   6.714   0.138   2.303  0.9200  1.0915 -0.2239
19560SOL     OW64642   6.338  12.163   7.923  0.4092  0.1718 -0.0089
19560SOL    HW164643   6.424  12.199   7.944 -0.4133  1.4510  1.3896
19560SOL    HW264644   6.315  12.111   8.000 -0.3863  0.4821 -0.0309
19561SOL     OW64645   0.824   8.741  11.557 -0.6259 -0.1987  0.1356
19561SOL    HW164646   0.866   8.760  11.474 -1.0007 -0.3673 -0.0969
19561SOL    HW264647   0.826   8.824  11.605 -0.7237 -0.0105 -0.1835
19562SOL     OW64648   8.217   8.956   3.452 -0.2346  0.5787 -0.1986
19562SOL    HW164649   8.244   8.893   3.518 -1.6828  1.3236  1.1782
19562SOL    HW264650   8.142   8.915   3.408  0.0668  0.5222 -0.6651
19563SOL     OW64651  10.673   9.245   2.468  0.2011 -0.5159 -0.2963
19563SOL    HW164652  10.587   9.249   2.426  0.2973  0.4258 -0.4162
19563SOL    HW264653  10.735   9.270   2.400  0.4543 -0.0255  0.1049
19564SOL     OW64654   7.982  11.748   5.189  0.1105 -0.0665 -0.0763
19564SOL    HW164655   7.996  11.660   5.224  0.1420 -0.3044 -0.6707
19564SOL    HW264656   7.890  11.748   5.161  0.7296 -0.7430 -2.3120
19565SOL     OW64657   4.880   2.390   7.289 -0.3354  0.5633 -0.1973
19565SOL    HW164658   4.902   2.403   7.196 -0.5096  2.4266 -0.0154
19565SOL    HW264659   4.875   2.479   7.325 -1.4910 -0.0836  1.3284
19566SOL     OW64660   2.524   9.952   6.219  0.0420  0.6713 -0.1571
19566SOL    HW164661   2.464   9.961   6.293 -0.9168 -1.2650 -0.6580
19566SOL    HW264662   2.467   9.940   6.143  0.9542 -2.7856 -0.4516
19567SOL     OW64663  10.743  11.666   9.001 -0.3667 -1.0604 -0.1316
19567SOL    HW164664  10.826  11.672   9.048 -0.9609  1.2157  0.7494
19567SOL    HW264665  10.761  11.607   8.928  1.9307 -0.8872  0.2305
19568SOL     OW64666   4.485   6.781   8.088  0.1205 -0.0938  0.6816
19568SOL    HW164667   4.490   6.862   8.138 -0.8504 -0.6615  1.7560
19568SOL    HW264668   4.451   6.717   8.150 -3.6267 -0.2759 -1.2657
19569SOL     OW64669   1.542  10.720   4.078  0.3348 -0.3396 -0.4135
19569SOL    HW164670   1.628  10.752   4.104  0.3802  0.9595 -1.9939
19569SOL    HW264671   1.522  10.767   3.996 -1.4937 -1.2427 -0.5493
19570SOL     OW64672   7.142   2.335  12.317 -0.2477 -0.3208  0.0195
19570SOL    HW164673   7.078   2.392  12.360 -0.6537 -0.8923  0.1797
19570SOL    HW264674   7.227   2.367  12.349 -0.5046 -0.2225  0.6195
19571SOL     OW64675   9.135   5.568   1.822 -0.0641 -0.1527 -0.0100
19571SOL    HW164676   9.118   5.635   1.756  2.2501 -1.2300 -1.8821
19571SOL    HW264677   9.061   5.507   1.814 -0.3299  0.2716 -0.9021
19572SOL     OW64678   1.734   9.088   3.576 -0.2704  0.2027  0.0327
19572SOL    HW164679   1.655   9.043   3.546  0.4957 -1.3387  0.2762
19572SOL    HW264680   1.770   9.127   3.497 -0.0140 -1.0983 -0.5139
19573SOL     OW64681   7.740  11.268  10.885 -0.6693 -0.6150 -0.3953
19573SOL    HW164682   7.692  11.341  10.925  3.0741  1.6055  0.6127
19573SOL    HW264683   7.732  11.196  10.947 -1.9786 -0.0731  0.0925
19574SOL     OW64684  10.036   5.824   0.455 -0.0799  0.2926 -0.6186
19574SOL    HW164685  10.029   5.755   0.389  0.0833  1.2067 -1.6189
19574SOL    HW264686  10.066   5.900   0.406  0.2637  0.9333  0.5679
19575SOL     OW64687   0.722   0.644  10.631  1.8945 -0.9165  0.1210
19575SOL    HW164688   0.650   0.659  10.693  2.7414 -0.3059  0.9819
19575SOL    HW264689   0.690   0.574  10.574 -0.2016  0.7234 -0.8370
19576SOL     OW64690   7.321   1.843   2.614  0.5462  0.1828 -0.0485
19576SOL    HW164691   7.294   1.920   2.665  0.0867  0.1054 -0.1728
19576SOL    HW264692   7.369   1.880   2.539  0.2351  0.3509 -0.1644
19577SOL     OW64693  10.328   9.007   3.598  0.0822  0.2736 -0.2808
19577SOL    HW164694  10.387   9.009   3.673 -0.0674 -0.6764 -0.1159
19577SOL    HW264695  10.384   9.023   3.522  0.4974 -0.2688 -0.0963
19578SOL     OW64696   5.430   0.447   9.358  0.5611  0.1376  0.4086
19578SOL    HW164697   5.395   0.379   9.300 -0.2135  0.7980  0.0712
19578SOL    HW264698   5.388   0.528   9.328  2.7500  1.0767 -0.3306
19579SOL     OW64699   5.802   8.441   4.122 -0.5228 -0.3093  0.1537
19579SOL    HW164700   5.816   8.384   4.198 -1.3018 -1.3375 -0.4557
19579SOL    HW264701   5.887   8.442   4.077 -0.3746 -0.5973  0.4268
19580SOL     OW64702   7.294   8.005   2.376  0.2279  0.7402  0.1995
19580SOL    HW164703   7.301   8.076   2.440  1.5279 -0.4128  1.3952
19580SOL    HW264704   7.357   8.028   2.308  0.5275  0.8097  0.5009
19581SOL     OW64705   9.872   4.642  10.881 -0.0468 -0.0097 -0.2371
19581SOL    HW164706   9.837   4.618  10.967  0.5925 -1.3849 -0.3417
19581SOL    HW264707   9.804   4.617  10.819 -0.1228  0.1258 -0.2102
19582SOL     OW64708   6.182  11.762  11.902 -0.1004  0.4548  0.0420
19582SOL    HW164709   6.223  11.846  11.880  1.0290  0.1491  0.9021
19582SOL    HW264710   6.183  11.758  11.997 -3.9346  1.2694  0.2676
19583SOL     OW64711  12.243   1.527   8.346 -0.1880  0.4298  0.4469
19583SOL    HW164712  12.181   1.501   8.414  0.5209 -0.5112  0.7554
19583SOL    HW264713  12.205   1.496   8.265  0.5227 -1.4293  0.7821
19584SOL     OW64714   1.445   9.053   7.627 -0.2069 -0.6876  0.2708
19584SOL    HW164715   1.396   9.127   7.662 -1.6026 -1.9550  1.1385
19584SOL    HW264716   1.380   9.003   7.577  1.0734 -0.5084 -1.6836
19585SOL     OW64717   7.465  10.419   8.687 -0.2180  0.5134  0.4316
19585SOL    HW164718   7.454  10.450   8.777  0.1408  0.8118  0.3760
19585SOL    HW264719   7.520  10.485   8.645  2.8577 -1.4437  1.0415
19586SOL     OW64720  10.763  10.592   0.309 -0.0259 -0.7362  0.1095
19586SOL    HW164721  10.816  10.669   0.329 -1.4410  0.2018  0.4217
19586SOL    HW264722  10.684  10.603   0.362 -0.2876 -2.3764  0.0954
19587SOL     OW64723  11.739   9.870   4.480  0.2128 -0.1088 -0.0225
19587SOL    HW164724  11.793   9.914   4.546  1.1263  1.9598 -2.0139
19587SOL    HW264725  11.649   9.897   4.501  0.6113  1.5820 -0.3196
19588SOL     OW64726   8.288   4.402   3.164 -0.0658 -0.3855  0.1355
19588SOL    HW164727   8.272   4.401   3.070  2.4145 -2.7988 -0.3689
19588SOL    HW264728   8.383   4.405   3.173 -0.2411  2.1617  2.6898
19589SOL     OW64729  10.209   9.400   4.576 -0.5062 -0.1716 -0.6443
19589SOL    HW164730  10.253   9.375   4.495 -0.4383 -0.5590 -0.4917
19589SOL    HW264731  10.266   9.467   4.614  0.0371 -0.7690 -0.3794
19590SOL     OW64732  10.755   8.108   8.591 -0.1167  0.0517  0.2112
19590SOL    HW164733  10.735   8.133   8.681 -1.9370 -0.4312 -0.0243
19590SOL    HW264734  10.836   8.057   8.599 -0.4487 -0.3114  1.6233
19591SOL     OW64735  10.705   6.836  11.278  0.4343  0.2911 -0.3068
19591SOL    HW164736  10.701   6.835  11.374 -1.9077 -2.2072 -0.3065
19591SOL    HW264737  10.741   6.751  11.255  0.6796  0.7436 -1.6681
19592SOL     OW64738   0.081  11.093   5.036 -0.4282 -0.0392 -0.5115
19592SOL    HW164739   0.001  11.117   5.084 -0.4031  0.2306 -0.6008
19592SOL    HW264740   0.086  11.157   4.965  0.0789  0.1890 -0.2707
19593SOL     OW64741  11.112   6.484   2.974 -0.4581 -0.2393  0.0594
19593SOL    HW164742  11.075   6.492   2.886  0.1090 -2.0180 -0.3933
19593SOL    HW264743  11.179   6.553   2.978 -1.2063  0.5439 -0.4976
19594SOL     OW64744  10.148   7.986   7.750 -0.3310 -0.3630  0.6158
19594SOL    HW164745  10.179   7.955   7.835 -2.1998 -0.3124  1.3547
19594SOL    HW264746  10.184   7.922   7.688  1.1814 -0.3170  1.3853
19595SOL     OW64747   3.767   6.058   3.056  0.5331  0.2461 -0.5423
19595SOL    HW164748   3.772   6.001   3.132 -1.1809  0.1695 -0.4639
19595SOL    HW264749   3.757   6.146   3.092  1.6489  0.4455 -0.6805
19596SOL     OW64750   4.627   8.677  11.326 -0.0590 -0.5457  0.1812
19596SOL    HW164751   4.722   8.674  11.321  0.0198 -1.6623  1.8725
19596SOL    HW264752   4.597   8.629  11.248  0.6107  2.7215 -2.3396
19597SOL     OW64753  11.329  11.726  10.695  0.2834 -0.5445  0.1969
19597SOL    HW164754  11.297  11.687  10.614 -0.0476  0.2994 -0.0792
19597SOL    HW264755  11.259  11.710  10.759 -0.1155  0.1287 -0.0703
19598SOL     OW64756  12.072   1.511   1.128 -0.0283 -0.3879  0.3778
19598SOL    HW164757  12.120   1.515   1.210  1.3268 -3.0896 -0.1728
19598SOL    HW264758  12.117   1.573   1.070  0.1842  0.1418  1.1014
19599SOL     OW64759   5.576   9.740   1.525 -0.0752 -0.1910 -0.1420
19599SOL    HW164760   5.638   9.681   1.481 -0.5057  0.0760 -1.1321
19599SOL    HW264761   5.622   9.770   1.603 -0.1835 -2.5727  0.9136
19600SOL     OW64762  11.481   5.074  11.532  0.1780 -0.1416  0.0454
19600SOL    HW164763  11.414   5.065  11.465  1.2454 -0.2714 -1.0295
19600SOL    HW264764  11.526   4.989  11.533 -0.3456 -0.4286  1.5115
19601SOL     OW64765  11.467  11.181   3.601  0.4247  0.0994 -0.5680
19601SOL    HW164766  11.438  11.183   3.510  0.4506  1.0942 -0.5643
19601SOL    HW264767  11.503  11.268   3.617 -1.3905  0.6352  0.9629
19602SOL     OW64768  10.247   0.949   3.997  0.9696 -0.1414  0.0705
19602SOL    HW164769  10.326   0.929   3.948 -0.2974  0.4104 -2.3678
19602SOL    HW264770  10.183   0.974   3.930 -1.9364 -2.5905  1.6797
19603SOL     OW64771   9.265   2.661   5.366 -0.0088  0.2372 -0.5489
19603SOL    HW164772   9.250   2.689   5.276  1.6262  1.5965 -0.4350
19603SOL    HW264773   9.177   2.657   5.404 -0.5743  2.2958 -1.4719
19604SOL     OW64774   5.308   8.354   3.201 -0.5298  0.4214 -0.0222
19604SOL    HW164775   5.392   8.314   3.226 -0.6558  0.7238  0.9282
19604SOL    HW264776   5.329   8.406   3.124 -0.1452 -0.6226 -0.6536
19605SOL     OW64777   2.163   4.552   3.115 -0.2072 -0.0342 -0.1534
19605SOL    HW164778   2.243   4.500   3.115 -0.5797 -0.6316 -0.6852
19605SOL    HW264779   2.122   4.532   3.031 -0.5230  0.8812 -0.2250
19606SOL     OW64780   1.244   0.984   6.113  0.4096  0.0962 -0.1002
19606SOL    HW164781   1.179   1.003   6.181  0.1377 -0.4592 -0.1969
19606SOL    HW264782   1.192   0.966   6.035  0.7074  0.2858 -0.3421
19607SOL     OW64783  12.008   6.329   2.868  0.1161 -0.1593 -0.0142
19607SOL    HW164784  11.981   6.400   2.927 -1.3092 -0.1553 -0.6216
19607SOL    HW264785  12.061   6.372   2.801  1.0513 -0.0333  0.7817
19608SOL     OW64786  11.592   9.700  12.103  0.2961 -0.5294  0.7591
19608SOL    HW164787  11.522   9.719  12.166  0.2456 -0.9165  0.8226
19608SOL    HW264788  11.659   9.654  12.154 -0.2537 -1.8914  0.3043
19609SOL     OW64789   1.523   3.097   1.816  0.3505 -0.2962  0.8914
19609SOL    HW164790   1.611   3.128   1.796  0.8211 -1.4162  1.1190
19609SOL    HW264791   1.537   3.014   1.861 -0.8523 -1.2693 -0.4253
19610SOL     OW64792   3.673   6.591   4.715 -0.5126 -0.3389 -0.6987
19610SOL    HW164793   3.633   6.514   4.675  0.4635 -0.6204 -1.1571
19610SOL    HW264794   3.663   6.661   4.651 -0.8050 -0.2531 -0.5602
19611SOL     OW64795  10.369  10.083   5.531 -0.5132  0.5504  0.4501
19611SOL    HW164796  10.286  10.056   5.491 -0.0759  1.8633 -1.5128
19611SOL    HW264797  10.355  10.175   5.554 -0.1484  0.3012  1.7482
19612SOL     OW64798   8.280  11.921   8.420  0.6519 -0.2659  0.1260
19612SOL    HW164799   8.293  11.897   8.511  0.8669  1.8163  0.6963
19612SOL    HW264800   8.346  11.989   8.403  0.0511  0.0058 -1.3210
19613SOL     OW64801  10.647   2.326   3.269 -0.5150 -0.2229  0.2866
19613SOL    HW164802  10.624   2.370   3.187  0.1747 -0.0051  0.2058
19613SOL    HW264803  10.600   2.375   3.336 -0.9189 -0.2743  0.0441
19614SOL     OW64804   7.448   0.031   2.780 -0.1258 -0.4557  0.1702
19614SOL    HW164805   7.487   0.114   2.752  1.7790 -0.9430  1.2257
19614SOL    HW264806   7.442  -0.021   2.700  0.7265 -0.0944 -0.1319
19615SOL     OW64807   7.802   4.872   6.401 -0.2003  0.0231  0.3658
19615SOL    HW164808   7.895   4.865   6.376 -0.6438 -0.7202 -1.1876
19615SOL    HW264809   7.756   4.815   6.340 -1.6178 -0.2746  1.6562
19616SOL     OW64810  12.446  11.250   2.719 -0.7533 -0.2358  0.5867
19616SOL    HW164811  12.458  11.314   2.789 -0.0270 -0.4159  0.6308
19616SOL    HW264812  12.351  11.236   2.717 -1.0392  1.5590 -0.0996
19617SOL     OW64813   8.301   3.292   2.049  0.1584  0.3778  0.1379
19617SOL    HW164814   8.251   3.342   1.984  0.0869  2.3639  1.6549
19617SOL    HW264815   8.392   3.294   2.016  0.2431  1.9646  0.4306
19618SOL     OW64816   6.221   5.432  10.305  0.6524 -0.5791 -0.5942
19618SOL    HW164817   6.252   5.396  10.222  1.7812 -2.6131  0.6260
19618SOL    HW264818   6.288   5.496  10.329 -0.1875  0.7570 -1.6782
19619SOL     OW64819   4.436  11.215   8.728 -0.1779  0.4086  0.4439
19619SOL    HW164820   4.375  11.184   8.661  0.1260  0.6025  0.0753
19619SOL    HW264821   4.381  11.228   8.806 -0.8628  1.7690 -0.2127
19620SOL     OW64822  10.885   6.040   7.862  0.0089  0.3877  0.1350
19620SOL    HW164823  10.951   6.108   7.876  0.5226  0.3711 -1.9094
19620SOL    HW264824  10.845   6.028   7.948  3.0295 -0.0073  1.6288
19621SOL     OW64825   0.637   2.426  10.266  0.0946  0.1261  0.0699
19621SOL    HW164826   0.671   2.337  10.270 -2.2759 -0.9119 -0.9978
19621SOL    HW264827   0.544   2.416  10.246  0.0476  2.8897 -1.6910
19622SOL     OW64828  12.149  10.334  10.415  0.3157  0.1158 -0.5575
19622SOL    HW164829  12.089  10.357  10.345 -0.4989 -1.9868 -0.6363
19622SOL    HW264830  12.220  10.286  10.372  1.4284  1.4392 -0.2892
19623SOL     OW64831   6.166   5.376   5.359  0.1069 -0.3078 -0.1130
19623SOL    HW164832   6.193   5.361   5.268  1.6743 -1.2908  0.4614
19623SOL    HW264833   6.206   5.303   5.407 -0.1221  0.5684  1.4610
19624SOL     OW64834   4.299   4.444   4.964 -0.1791  0.3362  0.7121
19624SOL    HW164835   4.281   4.358   4.927  1.4801 -0.9865  2.6978
19624SOL    HW264836   4.327   4.497   4.890 -2.0604 -0.5301 -0.6956
19625SOL     OW64837   0.389   7.605   7.079 -0.3203  0.2085  0.0826
19625SOL    HW164838   0.431   7.624   6.995  2.5226  0.0672  1.3851
19625SOL    HW264839   0.300   7.579   7.055 -0.3910  2.4820 -2.6853
19626SOL     OW64840   7.036   9.160   2.811 -0.0317  0.1509  0.0591
19626SOL    HW164841   6.987   9.113   2.878  0.4798 -0.1635  0.2191
19626SOL    HW264842   7.019   9.111   2.730  0.2889 -0.1655  0.1779
19627SOL     OW64843   8.591   8.136   7.371 -0.4740  0.0754 -0.8477
19627SOL    HW164844   8.581   8.041   7.378 -0.7574  0.2282  1.8298
19627SOL    HW264845   8.602   8.165   7.461 -0.2430  2.5956 -1.6280
19628SOL     OW64846  11.967   3.197   2.560  0.7321  0.3233 -0.0356
19628SOL    HW164847  11.901   3.246   2.511  1.1832 -0.2945 -1.3170
19628SOL    HW264848  12.008   3.140   2.494  0.3053 -1.6902  1.3279
19629SOL     OW64849   1.228   3.265   0.717 -0.2651 -0.0189 -0.1031
19629SOL    HW164850   1.270   3.342   0.753 -0.0851 -0.5092  0.7555
19629SOL    HW264851   1.294   3.227   0.658  0.1364 -0.2504  0.4923
19630SOL     OW64852   8.863   6.806   7.607 -0.0008  0.2481 -0.4039
19630SOL    HW164853   8.776   6.839   7.585  0.0731  2.9454  2.6497
19630SOL    HW264854   8.904   6.788   7.522 -2.8110  0.7149 -1.9884
19631SOL     OW64855   4.555   2.801   2.070 -0.4055  0.4033  0.0127
19631SOL    HW164856   4.638   2.824   2.026  0.0674  1.2887  1.3053
19631SOL    HW264857   4.520   2.885   2.099 -1.7972  0.0354 -0.5307
19632SOL     OW64858   3.651  11.693   3.201  0.0122 -0.0565 -0.3796
19632SOL    HW164859   3.611  11.713   3.286 -1.2091  0.9134 -1.1530
19632SOL    HW264860   3.734  11.741   3.202  0.3831 -0.6918  0.5652
19633SOL     OW64861  11.424   2.999  11.638  0.0914 -0.0601 -0.9033
19633SOL    HW164862  11.426   3.094  11.649 -1.2239  0.0166 -1.1820
19633SOL    HW264863  11.422   2.965  11.728 -0.5893  0.2205 -0.8065
19634SOL     OW64864   9.736   9.879  11.246 -0.2117  0.3315  0.5255
19634SOL    HW164865   9.707   9.825  11.320  0.8380 -1.1462 -0.0800
19634SOL    HW264866   9.813   9.924  11.278 -0.5735  0.7963  0.7555
19635SOL     OW64867   6.139   5.688   9.005  0.0820  0.1856  0.1359
19635SOL    HW164868   6.092   5.732   8.934 -1.9407 -4.7747 -2.0035
19635SOL    HW264869   6.080   5.695   9.081 -1.0532 -0.3353 -0.6768
19636SOL     OW64870  12.284   6.567   4.138  0.3002 -0.1054 -0.3464
19636SOL    HW164871  12.321   6.495   4.189 -0.3468 -0.0231  0.2376
19636SOL    HW264872  12.360   6.622   4.118  0.9969 -1.4794 -1.7257
19637SOL     OW64873   8.734  10.626  10.307 -0.0152  0.6055  0.5087
19637SOL    HW164874   8.763  10.714  10.282  0.0821  0.7798  1.2028
19637SOL    HW264875   8.645  10.618  10.271  0.1450  0.8195  0.0658
19638SOL     OW64876   4.021   8.829   5.726  0.1995  0.2945 -0.2317
19638SOL    HW164877   4.053   8.919   5.734  0.4177  0.3080 -1.2089
19638SOL    HW264878   3.938   8.830   5.775  1.4501  0.3422  2.0182
19639SOL     OW64879   4.360   8.445   3.013  0.6933 -0.8561  0.2645
19639SOL    HW164880   4.434   8.467   3.070  0.4419  1.7581 -0.3121
19639SOL    HW264881   4.382   8.484   2.929 -0.0380 -2.6046 -0.8065
19640SOL     OW64882   3.929   3.417   0.698 -0.1901  0.1433 -0.1621
19640SOL    HW164883   3.860   3.424   0.764 -0.7504  0.1350 -0.7354
19640SOL    HW264884   3.885   3.378   0.622  0.4375  0.1775 -0.5467
19641SOL     OW64885   1.088  11.232   1.055 -0.1439 -0.6851  0.1089
19641SOL    HW164886   1.178  11.263   1.050 -0.4849  0.4229  0.4710
19641SOL    HW264887   1.039  11.306   1.091 -1.3485 -0.9507 -0.9112
19642SOL     OW64888   4.248   2.042   0.974  0.6920  0.5862  0.3615
19642SOL    HW164889   4.228   1.950   0.989 -0.5051  0.8280  0.3105
19642SOL    HW264890   4.344   2.046   0.974  0.8575 -1.0868 -2.1134
19643SOL     OW64891   7.233  12.292   4.731 -0.1290  0.0434 -0.5100
19643SOL    HW164892   7.143  12.325   4.740  0.0076 -0.0442  1.4499
19643SOL    HW264893   7.257  12.315   4.641 -1.6368  1.2387 -0.6581
19644SOL     OW64894   9.957   3.287   8.733 -0.2340  0.0568 -0.1791
19644SOL    HW164895  10.037   3.278   8.682  1.8446  0.8099  2.7057
19644SOL    HW264896   9.933   3.198   8.756  0.3486 -0.1250 -0.2602
19645SOL     OW64897   3.931   4.582   1.227  0.1024  0.1391  0.1551
19645SOL    HW164898   3.944   4.674   1.203  1.9355  0.1174  0.9228
19645SOL    HW264899   3.918   4.583   1.321 -2.0055 -0.2440 -0.0787
19646SOL     OW64900   2.583   4.572   3.509  0.1545 -0.1444 -0.4150
19646SOL    HW164901   2.561   4.501   3.569 -0.1795 -1.1618 -1.7199
19646SOL    HW264902   2.509   4.633   3.516 -0.0127 -0.3929 -0.0171
19647SOL     OW64903  10.127   2.896   8.157  0.7191  0.3516  0.4517
19647SOL    HW164904  10.146   2.810   8.120 -0.5479  0.3001 -0.1561
19647SOL    HW264905  10.062   2.879   8.225 -0.2393  0.9017 -0.2964
19648SOL     OW64906   9.124   2.200   5.687  0.3813  0.4818  0.2458
19648SOL    HW164907   9.214   2.229   5.672  0.5271 -0.1799 -0.2059
19648SOL    HW264908   9.128   2.150   5.768  0.4776  0.2153  0.0777
19649SOL     OW64909   9.839   3.018   8.713  0.1000  0.5934  0.3042
19649SOL    HW164910   9.856   2.933   8.673 -1.6718  0.2145  0.2379
19649SOL    HW264911   9.767   3.055   8.662  0.6894  2.0484  0.4743
19650SOL     OW64912   9.324   7.008   7.250 -0.4872  0.2382  0.6851
19650SOL    HW164913   9.402   6.955   7.261 -0.1180  0.4921 -0.5982
19650SOL    HW264914   9.275   6.996   7.332 -0.6905 -2.4704  0.2433
19651SOL     OW64915   8.095   7.067   6.670  0.2914  0.2304 -0.7001
19651SOL    HW164916   8.123   7.055   6.761 -1.1659 -0.9570 -0.3609
19651SOL    HW264917   8.167   7.033   6.618 -0.0230 -1.8159  0.1054
19652SOL     OW64918  10.609   2.217   0.069  0.2194 -0.4985 -0.0006
19652SOL    HW164919  10.664   2.209   0.147 -1.1835 -0.1344  1.0600
19652SOL    HW264920  10.607   2.129   0.032  1.6473 -0.4830 -0.1773
19653SOL     OW64921   5.782   2.347  12.465  0.4042  0.2847  0.7093
19653SOL    HW164922   5.721   2.420  12.477  0.1094 -0.1062  1.6404
19653SOL    HW264923   5.726   2.271  12.453  0.5938  0.5906 -3.6933
19654SOL     OW64924  11.357   9.626  11.967 -0.0279  0.1575  0.3164
19654SOL    HW164925  11.355   9.537  12.002 -0.4051 -0.9468 -2.3035
19654SOL    HW264926  11.442   9.660  11.996  0.3687 -1.2517  0.9162
19655SOL     OW64927   7.437   7.957  10.610 -0.6748 -0.6433  0.0388
19655SOL    HW164928   7.428   7.867  10.641 -0.9370 -0.8862 -0.7214
19655SOL    HW264929   7.506   7.953  10.544  0.7793  0.0911  1.4156
19656SOL     OW64930  11.096   0.040   7.444 -0.4464 -0.2521 -0.3818
19656SOL    HW164931  11.158   0.102   7.406  0.6931 -1.9906 -1.5370
19656SOL    HW264932  11.012   0.060   7.401 -0.1048  0.5124 -0.6934
19657SOL     OW64933   4.431   3.396   2.031 -0.2287  0.4350 -0.1956
19657SOL    HW164934   4.364   3.414   1.966 -1.1896  0.4311  0.7717
19657SOL    HW264935   4.490   3.334   1.988 -1.2065 -0.0829 -0.8312
19658SOL     OW64936  11.235   0.919   4.043  0.4573 -0.0658 -0.5268
19658SOL    HW164937  11.225   0.834   4.087  0.4840  0.6041  0.8377
19658SOL    HW264938  11.236   0.983   4.115 -0.2021  1.1543 -1.5615
19659SOL     OW64939   5.633  11.840  11.197 -0.1362  0.3929 -0.2293
19659SOL    HW164940   5.663  11.928  11.216  0.3171  0.2755 -0.4042
19659SOL    HW264941   5.577  11.849  11.120 -1.4586  0.7747  0.7327
19660SOL     OW64942   0.704  11.807   5.621  0.4890 -0.5333 -0.4842
19660SOL    HW164943   0.687  11.901   5.625 -0.8595 -0.7413 -1.0450
19660SOL    HW264944   0.796  11.800   5.595  0.3904  0.6241 -1.1691
19661SOL     OW64945   1.448  10.196   3.189 -0.3793  0.1862 -0.0033
19661SOL    HW164946   1.535  10.185   3.149 -0.4543 -0.6287  0.0379
19661SOL    HW264947   1.394  10.229   3.117  0.1866  1.7326  0.2350
19662SOL     OW64948   7.385   3.729   5.787 -0.0115  0.1560  0.2244
19662SOL    HW164949   7.422   3.748   5.701  1.9440 -1.5542  0.5937
19662SOL    HW264950   7.421   3.796   5.845  2.8793 -1.5514  0.6040
19663SOL     OW64951  11.141   0.703   3.789 -0.0742  0.3187 -0.4624
19663SOL    HW164952  11.067   0.763   3.803 -0.0914  0.2722 -0.3502
19663SOL    HW264953  11.101   0.623   3.754 -0.4901 -0.8469  2.4044
19664SOL     OW64954   5.355   5.887   3.036  0.8641 -0.0141 -0.4333
19664SOL    HW164955   5.269   5.852   3.057  0.4259 -0.2917 -2.4642
19664SOL    HW264956   5.339   5.949   2.965  2.0888  1.6198  0.6589
19665SOL     OW64957   2.030   1.719   2.493  0.4191  0.4415 -0.2602
19665SOL    HW164958   2.015   1.632   2.531 -1.2949 -0.0314 -1.8994
19665SOL    HW264959   2.063   1.771   2.567 -1.1850 -0.8643  1.4831
19666SOL     OW64960   8.187   8.438   9.062 -0.3491  0.2754  0.2456
19666SOL    HW164961   8.211   8.530   9.077  0.2069  0.1547  0.1158
19666SOL    HW264962   8.262   8.401   9.016 -0.9618 -0.0101 -0.5547
19667SOL     OW64963  12.187  10.818   9.809 -0.6335 -0.0371 -0.7357
19667SOL    HW164964  12.167  10.908   9.785  0.9919  0.2976 -0.9866
19667SOL    HW264965  12.283  10.815   9.811 -0.6663 -1.6318 -0.2395
19668SOL     OW64966   6.021  11.409   9.156  0.1013  0.4038  0.1518
19668SOL    HW164967   6.019  11.390   9.062 -0.4527 -0.1063  0.2578
19668SOL    HW264968   6.008  11.324   9.198  0.9584  0.5366  0.7019
19669SOL     OW64969   6.407   5.143   3.402  0.4302  0.3053  0.1587
19669SOL    HW164970   6.369   5.221   3.443  0.2221 -0.9119  2.4615
19669SOL    HW264971   6.331   5.088   3.382  0.4405  1.1684 -2.7919
19670SOL     OW64972   2.953   8.305  12.448  0.1730  0.1544 -0.1329
19670SOL    HW164973   2.925   8.328  12.360 -1.6264 -0.0863  0.3422
19670SOL    HW264974   2.905   8.364  12.505  1.1324  0.1494  0.7194
19671SOL     OW64975   9.314  12.461   0.490 -0.4476  0.1720  0.0240
19671SOL    HW164976   9.406  12.475   0.468  0.1713 -1.4913  1.2939
19671SOL    HW264977   9.270  12.449   0.406  0.7600 -0.3400 -0.5582
19672SOL     OW64978  12.356  12.328   1.508 -0.1875  0.0314 -0.2681
19672SOL    HW164979  12.402  12.394   1.559 -0.4739 -0.9751  1.3571
19672SOL    HW264980  12.297  12.285   1.571 -1.3039 -0.5825 -1.6638
19673SOL     OW64981   4.396   3.139   5.717  0.2064 -0.1507 -0.2162
19673SOL    HW164982   4.396   3.081   5.641 -0.3584 -3.0375  1.8282
19673SOL    HW264983   4.468   3.107   5.771  0.5474  1.7858  0.5689
19674SOL     OW64984   2.839   7.601  10.491  0.4796 -0.2578 -0.6502
19674SOL    HW164985   2.754   7.584  10.450  0.6179 -0.6202 -0.7902
19674SOL    HW264986   2.864   7.687  10.459 -1.3040  1.3400  1.8642
19675SOL     OW64987   5.822   4.728  10.271  0.3829  0.5677 -0.2403
19675SOL    HW164988   5.866   4.810  10.290 -0.7314  1.0045  0.5290
19675SOL    HW264989   5.734   4.738  10.308 -0.9059  0.3075 -2.9655
19676SOL     OW64990   1.304   3.290   1.132  0.6407 -0.3870 -0.2111
19676SOL    HW164991   1.279   3.319   1.044  0.3002  0.8583  0.2674
19676SOL    HW264992   1.310   3.195   1.125  2.7383 -0.1960 -2.1107
19677SOL     OW64993   4.081   1.555   2.487  0.4146  0.3029 -0.0647
19677SOL    HW164994   4.096   1.555   2.582 -0.0112  0.8918  0.0062
19677SOL    HW264995   4.135   1.627   2.454  1.6684 -0.7723 -0.4690
19678SOL     OW64996  11.914  12.348   6.373  0.3288  0.1124  0.2495
19678SOL    HW164997  12.007  12.329   6.360  0.5792  0.6243  1.1684
19678SOL    HW264998  11.908  12.375   6.464 -0.7819 -0.2109  0.2887
19679SOL     OW64999   9.030  12.258   2.814  0.1592 -0.5051 -0.0830
19679SOL    HW165000   8.977  12.333   2.789  1.6950  0.0851 -1.7732
19679SOL    HW265001   9.115  12.273   2.773  1.5013 -1.6694  2.0542
19680SOL     OW65002   0.677   5.805  11.919  0.0130  0.3568  0.1808
19680SOL    HW165003   0.638   5.720  11.940  0.1864  0.5260  1.2843
19680SOL    HW265004   0.614   5.847  11.861 -0.2610 -0.3678 -0.0584
19681SOL     OW65005   0.302   9.177   4.132 -0.0676 -0.3906  0.0951
19681SOL    HW165006   0.347   9.130   4.062 -0.0667  0.3347 -0.3932
19681SOL    HW265007   0.266   9.255   4.090 -1.7269 -0.9082  0.4726
19682SOL     OW65008   0.370   8.134   9.606  0.3992 -0.2122  0.2007
19682SOL    HW165009   0.315   8.212   9.617 -1.1241 -1.1430 -0.3909
19682SOL    HW265010   0.382   8.126   9.511  3.0999  0.9398  0.3683
19683SOL     OW65011   7.987   3.178   8.052  0.2405 -0.5076  0.1678
19683SOL    HW165012   8.019   3.115   7.988  1.3464 -2.0980  2.1804
19683SOL    HW265013   7.892   3.176   8.042  0.2750 -2.2345 -0.0801
19684SOL     OW65014  11.028  11.899   1.533 -0.1803 -0.6795 -0.8568
19684SOL    HW165015  11.028  11.994   1.526 -0.6635 -0.5374  0.7150
19684SOL    HW265016  11.120  11.876   1.550 -0.3372 -0.2851  0.7212
19685SOL     OW65017   8.838   6.449   5.599 -0.1053 -0.6495  0.3155
19685SOL    HW165018   8.867   6.375   5.546  0.0351 -1.2121  1.1707
19685SOL    HW265019   8.818   6.518   5.535  1.1294 -0.9441 -0.4077
19686SOL     OW65020  10.749   4.197  11.854  0.3104 -0.1300 -0.1365
19686SOL    HW165021  10.778   4.282  11.820  0.8033 -0.2943 -0.1364
19686SOL    HW265022  10.740   4.211  11.948  1.1203 -0.2686 -0.0262
19687SOL     OW65023   0.187   0.855   9.576 -0.5655 -0.3031 -0.2784
19687SOL    HW165024   0.252   0.803   9.529 -0.3290 -0.4005  0.1519
19687SOL    HW265025   0.128   0.790   9.614 -1.5746 -0.1994 -1.5634
19688SOL     OW65026   8.537   6.657  12.169  0.0509  0.8556 -0.1263
19688SOL    HW165027   8.483   6.586  12.135  0.1877  0.6427  0.0997
19688SOL    HW265028   8.495   6.681  12.252  1.0618 -0.2221  0.7307
19689SOL     OW65029   2.243   7.716   5.195  0.4590  0.0114 -0.3872
19689SOL    HW165030   2.246   7.625   5.166 -0.2249  0.3341 -1.5563
19689SOL    HW265031   2.320   7.757   5.154  0.8428 -0.0621  0.2483
19690SOL     OW65032  10.432  11.907   5.956  0.1072 -0.0352  0.3212
19690SOL    HW165033  10.403  11.937   6.042  0.8179  0.4015  0.4218
19690SOL    HW265034  10.424  11.812   5.959  3.7623 -0.4748  2.3123
19691SOL     OW65035  11.750  10.946   0.664 -0.5573  0.4902  0.0058
19691SOL    HW165036  11.834  10.950   0.710 -0.6352 -1.4230  0.4049
19691SOL    HW265037  11.693  11.003   0.714  0.2422  1.0405  0.3182
19692SOL     OW65038   5.067   1.144   9.753  0.4403 -0.7762  0.0827
19692SOL    HW165039   5.159   1.120   9.761  0.4572 -0.8827 -0.4365
19692SOL    HW265040   5.022   1.088   9.816  0.8206 -0.1652  0.9170
19693SOL     OW65041   1.020   0.186   6.835  0.3107 -0.0543  0.0692
19693SOL    HW165042   0.967   0.140   6.769 -0.5572  1.7419 -0.5295
19693SOL    HW265043   1.050   0.116   6.894 -3.4058 -1.1308  0.9511
19694SOL     OW65044   0.731   7.400   6.461  0.5550 -0.0756  0.1668
19694SOL    HW165045   0.796   7.468   6.448 -0.1256  0.9482  1.8656
19694SOL    HW265046   0.647   7.444   6.446  0.1028 -0.5272  1.3009
19695SOL     OW65047  12.378  11.173   3.846  0.5214  0.5600 -0.2098
19695SOL    HW165048  12.399  11.265   3.831  1.8948 -0.0590 -2.4914
19695SOL    HW265049  12.462  11.131   3.866 -0.2948  0.0107  2.5572
19696SOL     OW65050   2.359   4.761   3.535 -0.6000  0.1080  0.2295
19696SOL    HW165051   2.269   4.733   3.516 -0.9991  2.5400 -1.9918
19696SOL    HW265052   2.351   4.854   3.553  1.2934 -0.0105  2.0038
19697SOL     OW65053  12.079   1.854   0.329  0.2359 -0.0640  0.3620
19697SOL    HW165054  12.161   1.896   0.356  0.3293 -0.2613  0.3929
19697SOL    HW265055  12.011   1.899   0.378  0.3042  0.2417  0.1814
19698SOL     OW65056   0.243   9.611  10.788 -0.1454  0.3380  0.1544
19698SOL    HW165057   0.152   9.589  10.765  0.9026 -0.3134 -4.2934
19698SOL    HW265058   0.248   9.706  10.778 -0.4975  0.5000  1.3629
19699SOL     OW65059  10.249   5.425   1.105  0.0390 -0.2493  0.3211
19699SOL    HW165060  10.259   5.332   1.084  0.8204 -0.0109 -0.4763
19699SOL    HW265061  10.331   5.465   1.074 -1.3094  1.1054 -1.7979
19700SOL     OW65062   7.367   7.037   8.462 -0.4611 -0.0473  0.1208
19700SOL    HW165063   7.392   7.123   8.427 -1.3205 -0.3565 -1.3527
19700SOL    HW265064   7.439   6.979   8.438 -0.7696 -0.1275 -0.6578
19701SOL     OW65065   7.801   7.762  11.096 -0.3645  0.7106  1.1918
19701SOL    HW165066   7.746   7.796  11.026 -0.9629 -1.6842  0.3931
19701SOL    HW265067   7.888   7.754  11.056 -0.5988 -0.1977  0.8284
19702SOL     OW65068   5.878  11.285   8.220 -0.0712  0.4556 -0.3447
19702SOL    HW165069   5.837  11.353   8.166 -0.5739 -0.7810 -1.5606
19702SOL    HW265070   5.806  11.229   8.248  0.5293 -0.5706 -0.8061
19703SOL     OW65071   9.663  12.051   8.860  0.0378  0.3114  0.9192
19703SOL    HW165072   9.648  12.145   8.850 -3.0780 -0.0845  0.7668
19703SOL    HW265073   9.670  12.018   8.771 -3.4403 -0.0595  0.6233
19704SOL     OW65074   5.348   2.756   3.771 -0.9722 -0.1167  0.1887
19704SOL    HW165075   5.253   2.744   3.767 -1.0074 -0.5742  1.6457
19704SOL    HW265076   5.374   2.708   3.850  0.3638  0.6591  0.2376
19705SOL     OW65077   2.453   7.242   7.309 -0.1902  0.3091 -0.6036
19705SOL    HW165078   2.357   7.249   7.304 -0.4593 -2.0124  0.1267
19705SOL    HW265079   2.472   7.156   7.273  1.7243  0.9965 -1.3373
19706SOL     OW65080   7.960   1.512   1.272  0.1362  0.4081 -0.1653
19706SOL    HW165081   7.995   1.527   1.184 -1.3132 -1.0196 -1.0266
19706SOL    HW265082   8.021   1.450   1.312 -0.9446 -1.5949 -1.4411
19707SOL     OW65083  10.065  11.659  10.675  0.5947  0.0791 -0.1602
19707SOL    HW165084  10.012  11.579  10.671  0.5519  0.1509 -1.7011
19707SOL    HW265085  10.115  11.658  10.593  2.2371  0.5355  0.7951
19708SOL     OW65086   6.078   4.534   7.275  0.1353 -0.0115 -0.1304
19708SOL    HW165087   6.134   4.543   7.352  2.1754  0.5574 -1.6037
19708SOL    HW265088   6.030   4.452   7.290  0.4453  0.1060  1.7400
19709SOL     OW65089  12.322   4.196   8.906 -0.5268  0.3296 -0.1068
19709SOL    HW165090  12.341   4.142   8.982  0.9449 -0.8112 -1.2078
19709SOL    HW265091  12.264   4.265   8.938  1.9938  1.3721  2.6044
19710SOL     OW65092   9.399   9.261   9.212  0.1992 -0.0152 -0.4462
19710SOL    HW165093   9.443   9.256   9.127  0.2218 -1.0391 -0.3839
19710SOL    HW265094   9.466   9.234   9.275 -0.0973 -0.1876 -0.2029
19711SOL     OW65095   6.864   3.475   5.832 -0.0430 -0.5523 -0.3274
19711SOL    HW165096   6.912   3.557   5.829 -1.9690  0.6055 -1.3076
19711SOL    HW265097   6.886   3.431   5.749 -0.5337 -0.0883 -0.7104
19712SOL     OW65098  11.130  12.461   9.854  0.3088 -0.1220 -0.5803
19712SOL    HW165099  11.144  12.433   9.764  0.6967 -0.9012 -0.2861
19712SOL    HW265100  11.211  12.437   9.899  0.2275  0.5148 -0.0830
19713SOL     OW65101  12.035   1.006   4.599 -0.1305 -0.0838  0.0232
19713SOL    HW165102  12.091   1.027   4.674 -1.4887  0.1748  1.0081
19713SOL    HW265103  11.957   1.059   4.613 -3.2731 -4.6295  1.9423
19714SOL     OW65104   5.637   0.861   3.389 -0.2659  0.6949 -0.0382
19714SOL    HW165105   5.578   0.929   3.356  0.1950  0.1122 -2.2481
19714SOL    HW265106   5.717   0.907   3.412 -0.1766  0.9955 -0.9215
19715SOL     OW65107   4.606   8.369   0.984  0.0392  0.3049  0.3330
19715SOL    HW165108   4.687   8.391   1.032  0.9496 -1.0756 -0.5026
19715SOL    HW265109   4.566   8.299   1.036  0.9434 -1.0783 -0.7479
19716SOL     OW65110   4.831   4.685   1.641  0.4470  0.2631 -0.0430
19716SOL    HW165111   4.786   4.763   1.673 -1.9225 -0.8504 -0.4348
19716SOL    HW265112   4.901   4.718   1.586  0.6361  2.1198  1.2527
19717SOL     OW65113   4.485   3.467  12.388 -0.6877 -0.1432  0.2103
19717SOL    HW165114   4.531   3.551  12.380 -0.1231 -0.6410 -2.7405
19717SOL    HW265115   4.555   3.402  12.395 -1.0879 -0.5507  0.4474
19718SOL     OW65116   2.521  10.141   3.698 -0.1912 -0.5252  0.4991
19718SOL    HW165117   2.596  10.085   3.718  0.1946  0.1876  1.1214
19718SOL    HW265118   2.518  10.203   3.771 -0.1712  0.6977 -0.4995
19719SOL     OW65119  11.880   1.241   3.508 -0.5999  0.2933 -0.0379
19719SOL    HW165120  11.964   1.211   3.542 -0.8048 -2.2794 -1.4881
19719SOL    HW265121  11.824   1.163   3.509 -2.2615  1.3722 -1.1920
19720SOL     OW65122  11.586   1.720   6.474 -0.2783  0.1526 -0.0568
19720SOL    HW165123  11.650   1.682   6.414  0.1638  1.1681 -0.2564
19720SOL    HW265124  11.622   1.705   6.561 -1.2822 -1.9930  0.0484
19721SOL     OW65125   1.648   3.185   7.937  0.4988  0.1670 -0.5434
19721SOL    HW165126   1.689   3.271   7.947  1.7705 -0.5392  0.6331
19721SOL    HW265127   1.619   3.183   7.846  1.5871  1.3723 -0.9492
19722SOL     OW65128   7.448   4.785   0.553 -0.0707  0.1930 -0.2607
19722SOL    HW165129   7.395   4.716   0.512  0.2308  0.2568 -0.7639
19722SOL    HW265130   7.538   4.754   0.544  0.0488  0.5525 -0.2978
19723SOL     OW65131  11.595   1.532   4.789  0.3287 -0.6185  0.1667
19723SOL    HW165132  11.571   1.446   4.824 -0.3966  0.2637  2.0010
19723SOL    HW265133  11.540   1.593   4.838  1.8628  1.0052 -0.0458
19724SOL     OW65134   5.413   8.078   3.649  0.6015  0.3451  0.5284
19724SOL    HW165135   5.383   7.987   3.654 -2.0757  1.1856  0.9607
19724SOL    HW265136   5.487   8.075   3.588  0.4416 -2.0752  0.3598
19725SOL     OW65137  11.791   1.676   8.161 -0.5134  0.2775  0.3335
19725SOL    HW165138  11.817   1.764   8.136  0.0650  0.0306  0.0404
19725SOL    HW265139  11.705   1.664   8.120 -0.4198  0.5661  0.0424
19726SOL     OW65140   2.412   7.475   0.252 -0.7995  0.3074  0.4239
19726SOL    HW165141   2.355   7.467   0.175 -0.5063 -0.9635  0.3078
19726SOL    HW265142   2.500   7.480   0.217 -0.7324  0.7369  0.6511
19727SOL     OW65143   3.578   1.346  11.918 -0.4365  0.3052  0.5354
19727SOL    HW165144   3.578   1.341  12.013 -1.5288 -0.4789  0.5070
19727SOL    HW265145   3.536   1.429  11.898  0.5920  0.8884  0.7389
19728SOL     OW65146   0.991   1.413   7.977 -0.2056 -0.3841  0.0254
19728SOL    HW165147   0.962   1.405   8.068 -0.4490  1.4638  0.1593
19728SOL    HW265148   1.073   1.462   7.983  0.1356 -0.8577 -0.7097
19729SOL     OW65149   7.781  10.827   3.689  0.6218  0.0380 -0.4600
19729SOL    HW165150   7.721  10.759   3.721  0.6314  0.2948  0.1224
19729SOL    HW265151   7.730  10.876   3.625  1.1809 -1.6300 -2.2684
19730SOL     OW65152   9.296  12.456   2.470 -0.0808 -0.5692 -0.3115
19730SOL    HW165153   9.263  12.368   2.485 -1.9808  0.3825  1.6236
19730SOL    HW265154   9.312  12.491   2.558 -0.5584  1.4059 -0.9538
19731SOL     OW65155   0.743   7.023   7.473  0.0065  0.3309 -0.4100
19731SOL    HW165156   0.766   7.077   7.549 -0.1542  0.5335 -0.5065
19731SOL    HW265157   0.652   6.998   7.488 -0.5835  1.7699 -1.3610
19732SOL     OW65158   5.557  11.520   4.375  0.2902 -0.4944  0.3804
19732SOL    HW165159   5.522  11.438   4.408  1.4420 -1.1878 -0.0927
19732SOL    HW265160   5.518  11.529   4.287  1.1108 -1.1560 -0.0584
19733SOL     OW65161   8.208   6.171  11.678  0.6449 -0.2574 -0.0518
19733SOL    HW165162   8.131   6.116  11.691  0.2621 -0.1252 -1.6032
19733SOL    HW265163   8.219   6.217  11.761 -1.1357 -0.0448  0.1041
19734SOL     OW65164   9.517   5.330   2.445 -0.6222 -0.1893  0.3636
19734SOL    HW165165   9.557   5.349   2.529 -0.7713  2.5616 -0.1073
19734SOL    HW265166   9.556   5.394   2.385 -2.1170 -0.6675 -1.1852
19735SOL     OW65167   3.828   5.841   4.636  0.3597  0.0686  0.3678
19735SOL    HW165168   3.804   5.839   4.544  1.9600  0.0966 -0.0815
19735SOL    HW265169   3.846   5.749   4.658  0.0869  0.0754  0.6239
19736SOL     OW65170   6.752   8.200  12.168  0.0723 -0.1096 -0.0219
19736SOL    HW165171   6.754   8.257  12.245  0.0722  0.1822 -0.2398
19736SOL    HW265172   6.835   8.217  12.124 -0.0418 -0.0837 -0.2274
19737SOL     OW65173   5.182  10.689  11.573  0.5765  0.0340  0.6010
19737SOL    HW165174   5.222  10.764  11.617 -1.2022  3.6695 -3.2195
19737SOL    HW265175   5.091  10.690  11.601  0.3586 -0.1518 -0.0674
19738SOL     OW65176   0.256   2.826   8.277 -0.2555 -0.7432  0.4823
19738SOL    HW165177   0.310   2.855   8.204 -0.3380 -0.1741  0.6419
19738SOL    HW265178   0.176   2.878   8.270  0.4081  0.5697  1.9404
19739SOL     OW65179   9.499   0.550  10.809 -0.3323 -0.2512  0.3146
19739SOL    HW165180   9.518   0.585  10.722  0.7683  0.8066  0.9521
19739SOL    HW265181   9.413   0.587  10.831 -0.1920  0.2437  0.0578
19740SOL     OW65182   7.592   5.385  10.248 -0.1823  0.0000  0.0900
19740SOL    HW165183   7.655   5.363  10.316 -0.3444  0.5022  0.4017
19740SOL    HW265184   7.637   5.363  10.166 -0.3117 -1.4404  0.3766
19741SOL     OW65185   1.254   6.128  10.679 -0.5131 -0.6778  0.3478
19741SOL    HW165186   1.219   6.199  10.731 -0.6522 -1.2246  1.0144
19741SOL    HW265187   1.202   6.129  10.598  0.9812  1.4158 -0.6786
19742SOL     OW65188   4.995   8.763   1.172  0.6595 -0.0475 -0.2617
19742SOL    HW165189   4.992   8.710   1.251  0.0065  0.3329 -0.0237
19742SOL    HW265190   5.081   8.744   1.134  0.2933 -1.5459 -0.3886
19743SOL     OW65191  10.134   7.347   4.504 -0.5658 -0.2797  0.4218
19743SOL    HW165192  10.171   7.343   4.592  0.6532 -0.4913 -0.0799
19743SOL    HW265193  10.148   7.438   4.476  0.3417 -0.5643 -0.0784
19744SOL     OW65194   0.679  10.219   3.822  0.8992  0.3483 -0.1857
19744SOL    HW165195   0.706  10.225   3.730 -1.4209 -0.7853 -1.0168
19744SOL    HW265196   0.589  10.252   3.822  0.8959  0.4074  1.7132
19745SOL     OW65197  10.674   3.277   9.802 -0.6188  0.4498 -0.3682
19745SOL    HW165198  10.612   3.317   9.740 -0.8641 -1.9606 -1.7772
19745SOL    HW265199  10.679   3.185   9.776  0.2573 -0.4056  2.4359
19746SOL     OW65200   2.731   0.332   9.174 -0.2893  0.4357  0.4617
19746SOL    HW165201   2.724   0.243   9.140 -1.9824  1.0456 -0.9250
19746SOL    HW265202   2.724   0.388   9.096 -1.1466  1.8298  1.4982
19747SOL     OW65203   9.274   7.589   5.408  0.4246  0.6517  0.4242
19747SOL    HW165204   9.218   7.617   5.480 -0.4356 -1.4885  0.6377
19747SOL    HW265205   9.216   7.588   5.332 -0.4239 -3.2280  0.9578
19748SOL     OW65206   5.055   5.522   5.980  0.3125 -0.0052 -0.2835
19748SOL    HW165207   5.014   5.511   5.894 -0.1716 -2.3154  0.1634
19748SOL    HW265208   5.138   5.475   5.973  1.2099  1.4752 -0.0410
19749SOL     OW65209   8.006   6.951   0.427  0.0857 -0.1023  0.2085
19749SOL    HW165210   7.966   7.036   0.443  1.8924  0.9683 -0.6240
19749SOL    HW265211   7.946   6.888   0.468 -1.1897  1.5618  1.0291
19750SOL     OW65212   2.024   5.878   8.051  0.5075 -0.0319  0.3504
19750SOL    HW165213   2.071   5.874   8.134  0.7892  1.4258  0.2898
19750SOL    HW265214   2.050   5.799   8.004 -0.4480 -1.4015  2.0308
19751SOL     OW65215   9.851  10.173   2.230  0.4351 -0.1099 -0.5435
19751SOL    HW165216   9.831  10.266   2.221  0.9588 -0.1214 -2.0346
19751SOL    HW265217   9.832  10.135   2.144 -0.8485 -1.6137  0.3549
19752SOL     OW65218   8.706   6.892   2.414 -0.0798  0.3312 -0.0206
19752SOL    HW165219   8.722   6.962   2.478 -0.7448  0.3539  0.1264
19752SOL    HW265220   8.699   6.813   2.468 -0.3486  0.3066 -0.0923
19753SOL     OW65221   5.379   8.338   2.568  0.1774  0.0653  0.0544
19753SOL    HW165222   5.402   8.362   2.479  1.6263 -0.7278  0.1860
19753SOL    HW265223   5.288   8.308   2.562  0.0033  0.7701 -0.9965
19754SOL     OW65224   5.363   0.414   7.977 -0.1522  0.0183 -0.0639
19754SOL    HW165225   5.439   0.405   7.920 -1.1478  2.5044 -1.9929
19754SOL    HW265226   5.385   0.487   8.035 -0.5705 -0.0875  0.2328
19755SOL     OW65227   6.886  11.109   6.713 -0.0443 -0.2920  0.6986
19755SOL    HW165228   6.880  11.038   6.650 -0.1512 -0.4635  0.9021
19755SOL    HW265229   6.817  11.170   6.686  3.1670  2.3258 -2.6570
19756SOL     OW65230  10.851   7.757   8.009 -0.3094 -0.7705 -0.3307
19756SOL    HW165231  10.782   7.820   7.989  0.1634 -0.1260  0.0169
19756SOL    HW265232  10.868   7.712   7.926  0.7618  0.9833 -1.1247
19757SOL     OW65233   2.489   6.453   1.276 -0.0902 -0.5136  0.3389
19757SOL    HW165234   2.517   6.364   1.295  0.0911 -0.4716  0.2755
19757SOL    HW265235   2.529   6.473   1.191 -0.1950 -0.4025  0.3154
19758SOL     OW65236   5.840   7.956   3.889  0.4294  0.2139 -0.5869
19758SOL    HW165237   5.912   7.986   3.945  1.5856  0.5570 -2.2003
19758SOL    HW265238   5.796   7.889   3.942  1.7139  0.2341  0.5852
19759SOL     OW65239  11.733   9.663   4.320 -0.2111 -0.3040  0.1794
19759SOL    HW165240  11.718   9.732   4.384 -0.6602 -0.0822 -0.1558
19759SOL    HW265241  11.648   9.651   4.277  0.0635 -0.4982 -0.3223
19760SOL     OW65242   6.511   5.056  11.648  0.1361  0.1745  0.5104
19760SOL    HW165243   6.519   5.139  11.601 -0.4400  0.3031  0.6271
19760SOL    HW265244   6.555   4.992  11.593 -1.5756  0.0840 -0.8311
19761SOL     OW65245   0.579   6.162   0.511  0.3168  0.3298 -0.7106
19761SOL    HW165246   0.624   6.202   0.586  0.8256  0.6922 -1.2029
19761SOL    HW265247   0.642   6.100   0.476 -0.1626 -0.3109 -0.4584
19762SOL     OW65248   4.514   7.599   0.402  0.3478 -0.1627 -0.0799
19762SOL    HW165249   4.604   7.568   0.386  0.6151  0.4427  0.2242
19762SOL    HW265250   4.463   7.519   0.412  0.8904 -0.5163 -0.0863
19763SOL     OW65251   3.795   3.377  10.545  0.1230 -0.0527 -0.5743
19763SOL    HW165252   3.699   3.380  10.543  0.0903  0.7960  0.9480
19763SOL    HW265253   3.823   3.462  10.513  0.3639 -0.1804 -0.7106
19764SOL     OW65254  10.937   2.988   6.235  0.1770  0.1227 -0.3170
19764SOL    HW165255  10.842   2.990   6.228  0.2193 -1.1985 -1.9906
19764SOL    HW265256  10.955   2.911   6.289  0.2979  1.0758  1.0493
19765SOL     OW65257  12.439   8.951   8.765 -0.1073 -0.3391  0.0683
19765SOL    HW165258  12.468   9.014   8.699  1.7152 -0.4567  0.6776
19765SOL    HW265259  12.356   8.917   8.732 -0.0681  0.8200 -1.3236
19766SOL     OW65260   4.425   1.732   7.490 -0.1635  0.0303 -0.0880
19766SOL    HW165261   4.371   1.810   7.498  0.2808  0.6672 -2.5424
19766SOL    HW265262   4.404   1.696   7.404  0.9125 -1.5739  0.2662
19767SOL     OW65263   9.078  12.272   6.802  0.6469  0.4282  0.8511
19767SOL    HW165264   9.019  12.344   6.827 -1.9875 -0.8391 -1.2163
19767SOL    HW265265   9.145  12.313   6.749 -0.7748  1.4681 -0.2348
19768SOL     OW65266   3.048   4.522   1.855 -0.0735  0.0008  0.1597
19768SOL    HW165267   2.972   4.469   1.830  0.2111  0.4351 -1.8046
19768SOL    HW265268   3.122   4.480   1.812  0.5787  0.4291  0.8392
19769SOL     OW65269   0.037   0.808   3.533 -0.4702 -0.3552  0.0785
19769SOL    HW165270   0.073   0.876   3.590  0.1533  0.2267 -0.9817
19769SOL    HW265271  -0.054   0.799   3.561 -1.4880  2.9665 -1.5283
19770SOL     OW65272   1.439   2.048  10.976 -0.4403 -0.2856 -0.8103
19770SOL    HW165273   1.403   2.058  11.064  0.6850 -0.6999 -0.2753
19770SOL    HW265274   1.403   1.966  10.944 -0.7760 -0.1835 -0.6988
19771SOL     OW65275   9.367   8.965   5.359 -0.9318  0.2651  0.0821
19771SOL    HW165276   9.273   8.961   5.374 -0.8784  2.3320  1.4407
19771SOL    HW265277   9.397   9.040   5.411  1.7208 -1.2442  0.9347
19772SOL     OW65278   3.237   6.325  12.042  0.0349  0.2807  0.0545
19772SOL    HW165279   3.205   6.409  12.073 -0.3519 -0.1455  0.8217
19772SOL    HW265280   3.178   6.260  12.080 -0.0704 -0.3002 -1.0579
19773SOL     OW65281   5.056  10.316  10.396  0.2783  0.0298 -0.1865
19773SOL    HW165282   5.102  10.306  10.312 -0.1470  0.9374 -0.5549
19773SOL    HW265283   5.107  10.382  10.443  0.9522 -1.0413  0.6065
19774SOL     OW65284   6.932   2.421   5.911  0.3037  0.0846  0.2720
19774SOL    HW165285   6.969   2.348   5.960 -1.5548 -0.5039  0.8767
19774SOL    HW265286   6.844   2.431   5.945 -0.1159  1.4526 -1.0760
19775SOL     OW65287  10.822  10.907   9.135  0.3931  0.6708 -0.0424
19775SOL    HW165288  10.781  10.973   9.191 -0.3553  1.3607 -1.3668
19775SOL    HW265289  10.893  10.871   9.189 -1.6161 -0.2534  2.1686
19776SOL     OW65290   6.865  11.824  10.678  0.3570  0.3518  0.0877
19776SOL    HW165291   6.882  11.793  10.589  0.5787 -1.2941  0.6748
19776SOL    HW265292   6.952  11.837  10.716  0.2611  0.9036  0.1347
19777SOL     OW65293   6.193  10.161   8.455 -0.0894  0.2280  0.7641
19777SOL    HW165294   6.242  10.239   8.433 -0.1096  0.0810  0.1816
19777SOL    HW265295   6.259  10.097   8.481  0.0122  0.1217  0.2596
19778SOL     OW65296   6.344  11.279  11.636 -0.2018 -0.5188 -0.7690
19778SOL    HW165297   6.311  11.245  11.719  1.7197 -0.0805  0.2380
19778SOL    HW265298   6.338  11.374  11.645  1.5131 -0.4112 -0.4199
19779SOL     OW65299  10.288   6.098   8.549  0.5961 -0.3476 -0.4952
19779SOL    HW165300  10.322   6.176   8.506  1.7221 -1.3796 -1.5493
19779SOL    HW265301  10.320   6.104   8.639 -0.4900  1.0603 -0.1635
19780SOL     OW65302   0.963   3.398   8.756  0.6697 -0.0897  0.0535
19780SOL    HW165303   0.916   3.378   8.837  1.0731  0.6303  0.4802
19780SOL    HW265304   0.978   3.314   8.714 -1.1363 -0.3364 -0.1696
19781SOL     OW65305   4.534   2.869   3.339  0.2527  0.5704 -0.1926
19781SOL    HW165306   4.627   2.853   3.321  0.3267  2.3663 -1.6434
19781SOL    HW265307   4.488   2.831   3.265 -0.1860 -0.0705  0.3923
19782SOL     OW65308   4.602   6.135   3.468 -0.0684  0.1049 -0.7228
19782SOL    HW165309   4.552   6.178   3.537 -2.2619 -0.0795 -2.1200
19782SOL    HW265310   4.642   6.208   3.419  0.8266  0.2642  0.2120
19783SOL     OW65311   0.346   1.706   4.546  0.3479  0.3654 -0.2085
19783SOL    HW165312   0.334   1.778   4.484  0.7455  0.8085  0.2150
19783SOL    HW265313   0.359   1.629   4.491 -0.0482  0.6196 -0.6696
19784SOL     OW65314  10.339   0.598   9.302  0.1563  0.1175 -0.1718
19784SOL    HW165315  10.329   0.692   9.287 -2.4340 -0.2216 -1.1675
19784SOL    HW265316  10.339   0.588   9.397 -1.1496  1.0281 -0.0559
19785SOL     OW65317   7.475   4.523   2.799  0.2198 -0.3570 -0.3317
19785SOL    HW165318   7.406   4.542   2.862  0.3107  0.0641 -0.3567
19785SOL    HW265319   7.554   4.515   2.852  0.3068  0.0574 -0.3945
19786SOL     OW65320   2.664   2.787   5.496  0.6163  0.4444  0.2647
19786SOL    HW165321   2.657   2.856   5.562 -0.1200  1.1125 -0.4812
19786SOL    HW265322   2.667   2.835   5.412  0.3005 -0.4141 -0.2495
19787SOL     OW65323   0.480  11.658   2.687  0.7657  0.2086 -0.9571
19787SOL    HW165324   0.484  11.630   2.779 -1.3469 -2.4115 -1.5421
19787SOL    HW265325   0.496  11.752   2.690 -1.1070  0.5716  2.3435
19788SOL     OW65326   9.495   0.970   8.105 -0.1796 -0.0508  0.3674
19788SOL    HW165327   9.528   0.940   8.190 -1.4207 -2.3435  0.1206
19788SOL    HW265328   9.400   0.977   8.118 -0.2014  1.3054 -0.3750
19789SOL     OW65329   2.911   2.474  12.328 -0.1703 -0.3432 -0.1099
19789SOL    HW165330   2.954   2.391  12.310 -0.0508 -0.0120 -1.4660
19789SOL    HW265331   2.983   2.537  12.335 -0.3353 -0.0811 -0.7072
19790SOL     OW65332   9.489   0.684  12.317  0.5277  0.1055  0.2761
19790SOL    HW165333   9.488   0.615  12.250  3.9257  0.4295 -0.2826
19790SOL    HW265334   9.502   0.765  12.267  0.0384  0.7352  1.1466
19791SOL     OW65335   6.945   7.975  12.416 -0.2112 -0.0871 -0.0047
19791SOL    HW165336   6.985   7.958  12.331 -2.3069  4.0375 -2.1421
19791SOL    HW265337   6.990   8.053  12.449 -2.2076  0.9364  0.4971
19792SOL     OW65338   3.558   5.084   5.025 -0.1985  0.3150 -0.1554
19792SOL    HW165339   3.580   5.090   4.932  2.1106  1.7849  0.3939
19792SOL    HW265340   3.462   5.092   5.027 -0.5949 -2.0535 -2.4890
19793SOL     OW65341   5.741   3.251   5.207  0.3600  0.1615  0.8487
19793SOL    HW165342   5.752   3.157   5.212 -1.0377 -0.2566 -1.9224
19793SOL    HW265343   5.661   3.270   5.257 -0.0700 -0.3174  0.3466
19794SOL     OW65344   5.376   9.533  12.475  0.1609 -0.1888  0.3196
19794SOL    HW165345   5.383   9.597  12.404 -0.0872  0.6437  1.0447
19794SOL    HW265346   5.282   9.517  12.485  0.1072  0.6935  1.3392
19795SOL     OW65347   5.742   6.137   5.816  0.2392 -0.6439 -0.1347
19795SOL    HW165348   5.654   6.100   5.813 -0.1324  0.1535  0.4672
19795SOL    HW265349   5.789   6.082   5.879  0.2603 -1.2260 -0.6436
19796SOL     OW65350   2.527   6.070   7.173 -0.1344 -0.3916 -0.3180
19796SOL    HW165351   2.494   6.031   7.092  0.7623  0.6063 -1.1915
19796SOL    HW265352   2.557   6.157   7.147  3.3335 -1.2439  0.3483
19797SOL     OW65353   3.989   5.901   7.166 -0.3225  0.6847  0.6353
19797SOL    HW165354   4.031   5.934   7.245 -1.0028  0.9647  0.8837
19797SOL    HW265355   4.055   5.914   7.097  1.4436 -2.1638  1.5669
19798SOL     OW65356  10.368   8.719  12.459 -0.7285 -0.3193  0.0252
19798SOL    HW165357  10.285   8.680  12.487 -1.1020 -1.0511 -1.9431
19798SOL    HW265358  10.406   8.654  12.400 -0.0200  1.1267 -1.1655
19799SOL     OW65359   3.857   2.075   1.524  0.4334 -0.2364  0.1707
19799SOL    HW165360   3.941   2.054   1.563  0.5494  0.1563  0.1362
19799SOL    HW265361   3.827   1.993   1.485  1.5265 -0.0223 -1.2069
19800SOL     OW65362   7.184   5.336   3.364 -0.2155 -0.1891 -0.0215
19800SOL    HW165363   7.244   5.399   3.323  1.0063 -1.0941  0.3054
19800SOL    HW265364   7.146   5.289   3.290 -1.9633  1.5853 -0.3336
19801SOL     OW65365   7.844  12.320   7.423  0.3795  0.0366 -1.1572
19801SOL    HW165366   7.883  12.391   7.372  0.3277 -0.2426 -1.5932
19801SOL    HW265367   7.914  12.255   7.432  0.5042  0.2515 -0.5416
19802SOL     OW65368   9.250   5.029  11.727  0.0970 -0.1431 -0.5869
19802SOL    HW165369   9.177   4.990  11.679 -0.4792 -2.0778  1.6394
19802SOL    HW265370   9.209   5.093  11.786  0.6726  1.4543 -1.8592
19803SOL     OW65371   8.879   7.816   3.699  0.3680  0.6322 -0.1304
19803SOL    HW165372   8.839   7.761   3.632 -0.9954  2.4871 -0.9350
19803SOL    HW265373   8.914   7.755   3.764  2.3357 -1.2991 -2.7838
19804SOL     OW65374   5.921   5.073   7.115  0.6307  0.1876 -0.4743
19804SOL    HW165375   5.878   5.022   7.184  0.1208  0.5691 -0.5091
19804SOL    HW265376   5.879   5.045   7.034 -0.2638  1.2669 -0.4115
19805SOL     OW65377   9.292   0.454   6.479  0.4561 -0.1014 -0.5099
19805SOL    HW165378   9.320   0.372   6.438  0.8027  0.2756 -1.0317
19805SOL    HW265379   9.198   0.443   6.492  0.0836  0.2410 -2.5496
19806SOL     OW65380   0.887   4.792   0.763 -0.3769  0.1266  0.3403
19806SOL    HW165381   0.910   4.721   0.823  1.7020 -0.0693 -0.6041
19806SOL    HW265382   0.792   4.785   0.753 -0.2961 -2.2576  0.6163
19807SOL     OW65383   4.201  11.166  11.079  0.3531 -0.1535 -0.2268
19807SOL    HW165384   4.118  11.170  11.031  0.3020  1.0819 -0.0768
19807SOL    HW265385   4.213  11.073  11.098 -1.1722 -0.3320  0.0342
19808SOL     OW65386   1.649  11.943   5.227 -0.6658 -0.2049  0.1070
19808SOL    HW165387   1.701  12.018   5.198 -1.4236  0.4854  0.4804
19808SOL    HW265388   1.623  11.899   5.147  0.2538 -0.4007 -0.0965
19809SOL     OW65389   1.018   4.467  10.265  0.1785 -0.0225 -0.7410
19809SOL    HW165390   1.064   4.550  10.261  2.2377 -1.1315 -1.1594
19809SOL    HW265391   1.059   4.413  10.198  1.2286 -2.4862  1.6969
19810SOL     OW65392  11.802  12.299   7.653  0.1842  0.1890 -0.1651
19810SOL    HW165393  11.786  12.346   7.570  1.6149  1.6948  0.3477
19810SOL    HW265394  11.715  12.287   7.690 -0.5909 -1.3259 -2.2692
19811SOL     OW65395   0.076   2.212   5.084 -0.5725 -0.1986 -0.2917
19811SOL    HW165396   0.105   2.124   5.059  0.3434  0.4832 -1.7181
19811SOL    HW265397   0.000   2.196   5.142 -1.5553 -1.8938 -1.9264
19812SOL     OW65398   2.937   0.272  10.050  0.3123  0.0693 -0.0794
19812SOL    HW165399   2.881   0.336  10.093 -2.7924  0.4957 -4.1909
19812SOL    HW265400   2.901   0.187  10.076 -0.5834  0.2670 -0.6525
19813SOL     OW65401   1.482   8.178   0.311  0.1393  0.3698 -0.4024
19813SOL    HW165402   1.555   8.120   0.331 -0.6915 -0.0262  1.8343
19813SOL    HW265403   1.501   8.213   0.224  2.1240 -0.9928 -0.5708
19814SOL     OW65404   8.079   2.114   1.391 -0.0891  0.0098  0.6465
19814SOL    HW165405   8.139   2.072   1.330 -0.3909 -1.4114  1.2917
19814SOL    HW265406   8.120   2.104   1.477 -1.5198 -1.5885  1.1874
19815SOL     OW65407  12.142  10.609   3.385 -0.0545 -0.1948 -0.5066
19815SOL    HW165408  12.184  10.524   3.398 -0.9089 -0.6761 -0.7915
19815SOL    HW265409  12.048  10.589   3.385 -0.2346  0.5606 -1.8490
19816SOL     OW65410   4.670   6.673   1.818  0.9341  0.3279  0.4469
19816SOL    HW165411   4.652   6.755   1.864 -1.8359  0.1917 -0.2369
19816SOL    HW265412   4.622   6.680   1.736  3.0639 -0.8147 -0.9869
19817SOL     OW65413  12.373   6.051   1.445 -0.4363  0.0049 -0.0002
19817SOL    HW165414  12.338   6.064   1.533  0.3757 -0.0959  0.3419
19817SOL    HW265415  12.302   6.009   1.397 -2.1261  2.8784 -0.3103
19818SOL     OW65416  12.383  12.311   4.764  0.0462  0.3265 -0.6925
19818SOL    HW165417  12.338  12.391   4.791 -2.5586 -1.0711 -0.6005
19818SOL    HW265418  12.468  12.316   4.809 -1.5401  1.2143  2.4881
19819SOL     OW65419   2.921   2.715   7.747  0.2806  0.2945 -0.6020
19819SOL    HW165420   2.958   2.769   7.676  0.2290 -1.9844 -2.4839
19819SOL    HW265421   2.829   2.740   7.750  0.5815  1.4457 -0.2899
19820SOL     OW65422   0.408   8.418   8.306 -0.0994 -1.0618 -0.6268
19820SOL    HW165423   0.332   8.377   8.348  1.2289 -0.9833  2.1496
19820SOL    HW265424   0.389   8.416   8.213 -3.9171 -0.1877 -0.0430
19821SOL     OW65425   3.020   9.167   0.579  0.2121  0.0264  0.3609
19821SOL    HW165426   3.058   9.133   0.497  1.2847  0.3141  0.7161
19821SOL    HW265427   3.088   9.151   0.645 -0.2431  0.6743  1.0012
19822SOL     OW65428   9.311   6.081   2.585  0.2956 -0.3034 -0.6130
19822SOL    HW165429   9.267   6.127   2.655 -0.5628 -2.2871  0.2154
19822SOL    HW265430   9.402   6.074   2.615  0.0983 -0.4909 -0.0504
19823SOL     OW65431   0.943  11.912   5.943  0.4026 -0.1790  0.4840
19823SOL    HW165432   0.987  11.830   5.967 -1.8330 -1.2574  1.1622
19823SOL    HW265433   0.898  11.939   6.023 -3.1046 -1.1299 -1.0015
19824SOL     OW65434   6.438   0.769   4.164 -0.1579 -0.3074  0.4654
19824SOL    HW165435   6.440   0.696   4.226  1.0984 -1.3763 -0.7785
19824SOL    HW265436   6.345   0.783   4.146 -0.7045  1.0278  3.6531
19825SOL     OW65437   3.596  11.025   2.757 -0.2730  0.4715  0.0972
19825SOL    HW165438   3.642  11.082   2.695 -0.4921 -1.3905 -1.8922
19825SOL    HW265439   3.665  10.976   2.801 -0.1811  0.7030  0.2110
19826SOL     OW65440   5.528   7.514   5.044  0.6487  0.6396  0.1651
19826SOL    HW165441   5.472   7.554   4.978  2.1233  0.1528 -1.4432
19826SOL    HW265442   5.612   7.502   5.001  0.8327 -2.4930  1.0987
19827SOL     OW65443   1.863   5.091   7.123  0.4971  0.4350  0.0730
19827SOL    HW165444   1.902   5.124   7.204 -1.2216  0.7706  0.7999
19827SOL    HW265445   1.837   5.171   7.076  0.7953  0.2208 -0.4568
19828SOL     OW65446   4.824   2.721   3.851 -0.0557 -0.2861 -1.0929
19828SOL    HW165447   4.782   2.725   3.937  1.1182 -1.4987 -0.4379
19828SOL    HW265448   4.820   2.811   3.818 -1.8361 -0.0853 -0.4355
19829SOL     OW65449   6.312  12.302  10.133  0.0063 -0.5242  0.1207
19829SOL    HW165450   6.340  12.246  10.060  1.5968  0.6246 -0.1979
19829SOL    HW265451   6.264  12.374  10.090  0.6129 -0.0505  0.2211
19830SOL     OW65452   6.854  12.263   1.356  0.2912 -0.1055 -0.2299
19830SOL    HW165453   6.901  12.186   1.324  1.3233  0.7750 -0.8959
19830SOL    HW265454   6.795  12.229   1.423  1.6277 -1.3086  0.3852
19831SOL     OW65455   4.127   0.575   8.814  0.4553  0.5375  0.7770
19831SOL    HW165456   4.083   0.563   8.897  1.4689  0.3928  1.3147
19831SOL    HW265457   4.128   0.488   8.773 -2.2415  1.0277 -0.5834
19832SOL     OW65458   0.181   9.357   3.055  0.3251 -0.1270  0.5458
19832SOL    HW165459   0.244   9.361   3.128  1.1454 -0.8965 -0.0874
19832SOL    HW265460   0.234   9.329   2.980 -0.8291 -1.0744  0.0571
19833SOL     OW65461  11.262   2.005   6.677 -0.2810  0.4244 -0.1551
19833SOL    HW165462  11.308   2.053   6.746 -0.4618 -1.6321  1.5198
19833SOL    HW265463  11.329   1.987   6.611  0.1745  1.4217  0.0093
19834SOL     OW65464   1.548   6.862   9.173  0.0837 -0.1091  0.0506
19834SOL    HW165465   1.617   6.887   9.234 -0.2452 -1.4699  1.0299
19834SOL    HW265466   1.491   6.939   9.168  0.8897  0.5256  0.3103
19835SOL     OW65467   1.419   8.198   8.008 -0.1931  0.0640 -0.1698
19835SOL    HW165468   1.508   8.174   7.984  1.3303  4.4952  0.0595
19835SOL    HW265469   1.415   8.182   8.103  0.9080  1.0390  0.0679
19836SOL     OW65470   6.528   9.204   2.194  0.3944 -0.3884 -0.3966
19836SOL    HW165471   6.488   9.191   2.108 -0.3033 -1.8412  0.1206
19836SOL    HW265472   6.457   9.186   2.256  0.5955  1.6248  0.5100
19837SOL     OW65473   5.977  10.776   7.079 -0.3760  0.5106  0.6583
19837SOL    HW165474   6.061  10.768   7.123  0.5307 -0.5722 -1.1180
19837SOL    HW265475   5.996  10.827   7.000 -1.3494  0.2244  0.2196
19838SOL     OW65476   9.102   1.984   7.884  0.3780 -0.8276 -0.6126
19838SOL    HW165477   9.090   2.028   7.800 -0.9268  0.3963  0.1914
19838SOL    HW265478   9.144   1.900   7.860  2.2261  0.4508 -2.2421
19839SOL     OW65479   0.958  11.765   5.516  0.1361 -0.4042  0.2759
19839SOL    HW165480   1.029  11.805   5.466 -0.7949 -0.0117 -0.7854
19839SOL    HW265481   1.001  11.717   5.586  1.4294 -0.0331 -0.2464
19840SOL     OW65482   9.541   1.226  11.306 -0.2124  0.1206 -0.1201
19840SOL    HW165483   9.539   1.131  11.293 -3.4465  0.1056 -0.2541
19840SOL    HW265484   9.532   1.262  11.218 -1.4083  0.4530  0.1171
19841SOL     OW65485  12.159   4.405   9.473 -0.0298 -0.1621  0.0854
19841SOL    HW165486  12.104   4.437   9.545  2.3301  2.1505  1.0044
19841SOL    HW265487  12.109   4.425   9.394 -1.2015  0.3653  0.9335
19842SOL     OW65488  12.262   2.836   8.404 -0.2451 -0.4280  0.5782
19842SOL    HW165489  12.235   2.907   8.462  0.6476  0.4065 -0.0013
19842SOL    HW265490  12.357   2.831   8.414 -0.4204 -2.7270  1.9226
19843SOL     OW65491   4.388   4.845   3.133  0.0534  0.1443 -0.2110
19843SOL    HW165492   4.401   4.939   3.135 -0.1792  0.1703  0.5527
19843SOL    HW265493   4.448   4.813   3.065  0.2546  0.8148 -0.3554
19844SOL     OW65494   3.602  11.800  10.792 -0.2824 -0.4808  0.1754
19844SOL    HW165495   3.589  11.845  10.875 -0.6012 -2.0814  1.0305
19844SOL    HW265496   3.695  11.812  10.772 -0.1724 -0.1991  0.8455
19845SOL     OW65497  10.736   9.852   1.693 -0.0024 -0.1870 -0.2169
19845SOL    HW165498  10.689   9.861   1.611 -1.5171 -0.6007  0.5663
19845SOL    HW265499  10.751   9.942   1.722  1.7445  0.0071 -1.5517
19846SOL     OW65500   8.079   8.277   1.130  0.0519  0.4322  0.3100
19846SOL    HW165501   7.996   8.324   1.141  1.2780  2.2908  2.4080
19846SOL    HW265502   8.072   8.200   1.188 -1.3620 -1.2815 -1.9718
19847SOL     OW65503   8.580   1.827   8.380  0.1747 -0.5186  0.8108
19847SOL    HW165504   8.569   1.862   8.469 -0.3792  0.2244  0.4666
19847SOL    HW265505   8.540   1.893   8.324  0.9633 -0.7433 -0.0394
19848SOL     OW65506   3.196   8.888   9.074  0.0587 -0.8493  0.0004
19848SOL    HW165507   3.265   8.869   9.010  0.4913  0.7131 -0.0280
19848SOL    HW265508   3.178   8.981   9.063 -0.9375 -0.8835  1.1265
19849SOL     OW65509   0.989  10.915   1.109 -0.7356 -0.3060 -0.3733
19849SOL    HW165510   0.983  10.990   1.051 -2.3258  0.1160  0.2880
19849SOL    HW265511   0.930  10.935   1.182  0.4117 -1.2649  0.8949
19850SOL     OW65512   2.199   2.593   1.393  0.4748 -0.1668  0.2778
19850SOL    HW165513   2.209   2.518   1.452 -1.1347  0.7880  1.8697
19850SOL    HW265514   2.113   2.628   1.414  1.2457  2.2429 -0.2752
19851SOL     OW65515   7.803   9.102   5.173 -0.1517 -0.1628 -0.3560
19851SOL    HW165516   7.884   9.095   5.123 -0.0942 -0.7531 -0.1998
19851SOL    HW265517   7.811   9.183   5.223  0.3595 -0.2362 -0.3195
19852SOL     OW65518   2.188  12.237  11.499 -0.2453 -0.0061 -0.0418
19852SOL    HW165519   2.280  12.223  11.521 -0.3576  1.9435  2.0080
19852SOL    HW265520   2.188  12.318  11.447 -0.8834  0.8735  1.2712
19853SOL     OW65521   1.845   6.882   0.821  0.4072  0.1205 -0.0596
19853SOL    HW165522   1.836   6.893   0.726  0.5783 -0.5609 -0.1561
19853SOL    HW265523   1.792   6.806   0.842  2.5079 -1.4327 -0.0280
19854SOL     OW65524   0.630   2.164   1.240 -0.1967  0.2561  0.5845
19854SOL    HW165525   0.682   2.183   1.162 -0.6040  1.5076  0.6012
19854SOL    HW265526   0.612   2.070   1.234  1.9931 -0.2325  0.5447
19855SOL     OW65527   7.531  12.412   3.711  0.3366  0.6186 -0.3604
19855SOL    HW165528   7.470  12.338   3.712  1.2006 -0.1233  0.8381
19855SOL    HW265529   7.535  12.439   3.619 -2.5081  1.3383 -0.3684
19856SOL     OW65530   5.602   6.329   0.482 -0.2542 -0.0562  0.0971
19856SOL    HW165531   5.600   6.425   0.478  0.1714  0.0434  1.4870
19856SOL    HW265532   5.691   6.309   0.512 -0.8838 -0.7609  1.5878
19857SOL     OW65533  11.613   8.427  10.745 -0.5376 -0.4059  0.2140
19857SOL    HW165534  11.621   8.521  10.729  0.6240 -0.5475 -0.1207
19857SOL    HW265535  11.563   8.394  10.671  0.0144 -0.2125 -0.2479
19858SOL     OW65536   5.415   5.227  10.002 -0.5073  0.0242  0.6387
19858SOL    HW165537   5.458   5.232   9.916  1.0722 -0.3787  1.3552
19858SOL    HW265538   5.481   5.187  10.059 -1.5862  0.1139  2.0013
19859SOL     OW65539   8.151   0.032   3.463 -0.0790  0.5491 -0.2850
19859SOL    HW165540   8.092   0.107   3.457 -0.4459  0.2644 -0.2499
19859SOL    HW265541   8.238   0.071   3.474 -0.3851  0.9638  0.7891
19860SOL     OW65542   2.646   0.579   6.448 -0.3728 -0.2133  0.7548
19860SOL    HW165543   2.647   0.614   6.537  1.5619  0.5719  0.4621
19860SOL    HW265544   2.660   0.655   6.391 -0.3186 -0.8766 -0.1486
19861SOL     OW65545   2.241   0.566   2.641 -0.1469 -0.0909 -0.4502
19861SOL    HW165546   2.332   0.547   2.665  0.0065  0.1134 -0.8670
19861SOL    HW265547   2.190   0.533   2.715  0.2487 -0.4169 -0.3167
19862SOL     OW65548   0.343  10.370   7.124  0.2726  0.0394 -0.2216
19862SOL    HW165549   0.401  10.306   7.083 -0.2281 -1.4277  1.2421
19862SOL    HW265550   0.259  10.359   7.079  0.3590  0.1717 -0.4206
19863SOL     OW65551   4.829   4.608   0.892 -0.0376  0.2165  0.2561
19863SOL    HW165552   4.771   4.540   0.857  0.1558  0.2212 -0.0759
19863SOL    HW265553   4.826   4.678   0.827  1.1069 -0.1905 -0.2564
19864SOL     OW65554   9.557   3.325  11.712  0.0862  0.5393  0.1630
19864SOL    HW165555   9.532   3.411  11.679 -1.2281 -0.2168 -0.8869
19864SOL    HW265556   9.489   3.266  11.680  1.3966 -1.0365  0.1528
19865SOL     OW65557   3.951   4.951   6.004 -0.1309  0.0859 -0.1179
19865SOL    HW165558   3.973   4.947   6.097  2.0284 -0.7057 -0.5981
19865SOL    HW265559   3.880   4.888   5.994 -2.5740  2.4003  1.4564
19866SOL     OW65560   0.794   4.082   6.219  0.0086  0.0608 -0.0401
19866SOL    HW165561   0.738   4.007   6.238 -0.7978  0.0564 -2.1192
19866SOL    HW265562   0.741   4.138   6.162  1.3081  1.2282 -0.1691
19867SOL     OW65563   6.860  11.425   2.072 -0.1924 -0.2943  0.2160
19867SOL    HW165564   6.902  11.397   1.991 -1.3331 -0.5199 -0.3232
19867SOL    HW265565   6.777  11.464   2.043 -1.0278 -1.1939  1.3274
19868SOL     OW65566   4.882   6.509   3.799  0.2059 -0.0043  0.0587
19868SOL    HW165567   4.886   6.452   3.876  1.4264  0.4013  0.3173
19868SOL    HW265568   4.789   6.532   3.791 -0.0016 -0.3869  1.1576
19869SOL     OW65569   5.717   0.266   7.075  0.8888 -0.2294  0.1822
19869SOL    HW165570   5.732   0.334   7.142  3.5429 -0.2139 -0.2982
19869SOL    HW265571   5.652   0.208   7.114  0.3378  1.2558  1.6197
19870SOL     OW65572   2.204   7.725  12.311  0.4134  0.1826  0.4124
19870SOL    HW165573   2.195   7.662  12.241 -1.5098  0.5401  0.2913
19870SOL    HW265574   2.299   7.732  12.325  0.7331 -1.4413 -0.6936
19871SOL     OW65575   7.966   6.336   3.793  0.4437  0.2055  0.2365
19871SOL    HW165576   7.940   6.287   3.715  0.4590  1.6404 -0.7067
19871SOL    HW265577   7.955   6.428   3.769 -0.3058  0.6834  2.2065
19872SOL     OW65578   4.703   9.522   2.654 -0.3740 -0.2552  0.2615
19872SOL    HW165579   4.718   9.565   2.739 -0.1552  1.3353 -0.5524
19872SOL    HW265580   4.659   9.440   2.677 -0.6715  0.3113  1.8848
19873SOL     OW65581  10.212   4.356   6.958  0.1931 -0.0896  0.1945
19873SOL    HW165582  10.180   4.422   6.896 -2.3889 -1.1240  0.3209
19873SOL    HW265583  10.139   4.342   7.018  1.7598 -0.8982  2.0282
19874SOL     OW65584   1.139  12.021   9.308 -0.1489 -0.6363 -0.6027
19874SOL    HW165585   1.192  12.091   9.269 -2.2140  1.4738  0.1701
19874SOL    HW265586   1.139  12.041   9.401 -1.2350 -1.3197 -0.4442
19875SOL     OW65587   3.443   8.770  12.303  0.7617 -0.1649  0.2040
19875SOL    HW165588   3.354   8.785  12.269  1.6947 -0.2519 -2.5015
19875SOL    HW265589   3.499   8.822  12.245  2.7784 -2.8411 -0.4134
19876SOL     OW65590   4.869   8.450   8.840 -0.5769  0.1809  0.6693
19876SOL    HW165591   4.895   8.457   8.749 -1.1259  1.0819  0.5618
19876SOL    HW265592   4.949   8.426   8.887 -0.3246 -0.4196 -0.0574
19877SOL     OW65593   7.714  10.416   5.764  0.6214 -0.1881  0.2454
19877SOL    HW165594   7.644  10.461   5.811  0.2615 -0.3259 -0.1618
19877SOL    HW265595   7.672  10.339   5.724  0.7849  0.2710 -0.8392
19878SOL     OW65596   8.626  12.028   6.052  0.1847 -0.0254  0.2403
19878SOL    HW165597   8.631  12.116   6.014  2.0999 -0.5668 -0.9071
19878SOL    HW265598   8.616  12.043   6.146  0.1362  1.3992  0.0378
19879SOL     OW65599  10.158   6.648   0.217 -0.6323  0.6178 -0.3901
19879SOL    HW165600  10.220   6.682   0.152  0.2940 -1.6873 -0.8031
19879SOL    HW265601  10.195   6.563   0.243 -2.4549  0.2126  1.0602
19880SOL     OW65602   5.000   7.704   6.444  0.1910 -0.2454 -0.6493
19880SOL    HW165603   4.977   7.696   6.351  1.2319 -0.3724 -0.9068
19880SOL    HW265604   4.925   7.666   6.490  0.1169 -1.1535 -1.4775
19881SOL     OW65605   9.799   2.097  10.040 -1.2736  0.5675 -0.1726
19881SOL    HW165606   9.873   2.037  10.054 -2.0755 -0.6114 -0.8246
19881SOL    HW265607   9.760   2.067   9.957 -2.4354  1.2146  0.1244
19882SOL     OW65608   8.480   4.444   0.208  0.1743  0.0939 -0.0355
19882SOL    HW165609   8.484   4.363   0.157 -1.9354  1.9883 -3.5868
19882SOL    HW265610   8.422   4.422   0.282 -2.3266 -1.1862 -2.1991
19883SOL     OW65611  12.332   2.858   5.390  0.3162 -0.0049 -0.0016
19883SOL    HW165612  12.296   2.770   5.404  1.7441 -0.7339 -0.6939
19883SOL    HW265613  12.264   2.904   5.340 -0.5790 -0.6062  0.6369
19884SOL     OW65614   3.233   0.925   3.268 -0.3387  0.1373  0.0242
19884SOL    HW165615   3.228   0.830   3.259  0.3713  0.2048 -1.3666
19884SOL    HW265616   3.305   0.951   3.210 -1.3315  1.6393 -0.5963
19885SOL     OW65617   9.340   9.254   7.610  0.7713  0.2720 -0.2240
19885SOL    HW165618   9.424   9.242   7.654  1.5982 -0.3087 -1.9020
19885SOL    HW265619   9.362   9.277   7.520 -0.8623  2.8556 -0.0934
19886SOL     OW65620   0.446   1.604   9.338 -0.2555 -1.1964 -0.0157
19886SOL    HW165621   0.475   1.550   9.264 -1.7974 -1.2646 -0.6075
19886SOL    HW265622   0.360   1.638   9.311  0.2883  0.8917  0.6741
19887SOL     OW65623   7.059   3.194   6.521 -0.3871 -0.9874 -0.4900
19887SOL    HW165624   7.107   3.195   6.604  1.4626  3.8688 -1.2587
19887SOL    HW265625   6.968   3.207   6.546 -0.0007 -0.6114  0.8394
19888SOL     OW65626   5.490   8.653   6.379 -0.8227 -0.2401  0.1946
19888SOL    HW165627   5.548   8.589   6.338 -1.0464 -1.2853  1.4413
19888SOL    HW265628   5.545   8.694   6.446 -0.4926  1.3623 -0.9998
19889SOL     OW65629  11.449   5.812   7.533 -0.3272 -0.6909 -0.0795
19889SOL    HW165630  11.425   5.757   7.608  1.2308  2.4430  2.9707
19889SOL    HW265631  11.541   5.791   7.517 -0.0971  0.0891  0.2198
19890SOL     OW65632  11.210   4.099   1.024 -0.0802 -0.5569 -0.2570
19890SOL    HW165633  11.288   4.153   1.015  0.9929 -2.1106 -0.8529
19890SOL    HW265634  11.214   4.039   0.949 -1.3615 -1.2712  0.2102
19891SOL     OW65635   3.254  12.268   2.098 -0.0778 -0.0495 -0.1699
19891SOL    HW165636   3.331  12.310   2.137 -0.5855  0.0057  0.8091
19891SOL    HW265637   3.211  12.339   2.049 -0.4835  0.3933  0.7965
19892SOL     OW65638   9.022  10.032   3.566 -0.4418 -0.4254  0.2988
19892SOL    HW165639   8.969   9.990   3.634  1.1211  0.0964  1.9150
19892SOL    HW265640   9.055  10.112   3.607  1.8813 -0.8971 -0.4566
19893SOL     OW65641   6.368  12.461   2.194  0.2721 -0.3880  0.0215
19893SOL    HW165642   6.417  12.427   2.119 -0.3714 -1.3331  0.0159
19893SOL    HW265643   6.436  12.486   2.257  0.7984 -0.3323 -0.5607
19894SOL     OW65644   8.186   3.277   2.584  0.2123 -0.0075 -0.6243
19894SOL    HW165645   8.168   3.253   2.493  1.3112  0.3241 -0.9396
19894SOL    HW265646   8.259   3.339   2.579  0.4210 -0.1406  0.4979
19895SOL     OW65647   9.355   8.787   8.914 -0.5620 -0.0995  0.0283
19895SOL    HW165648   9.266   8.770   8.885 -0.0456 -0.8698 -1.2101
19895SOL    HW265649   9.398   8.826   8.838  0.4579 -0.8389  0.1963
19896SOL     OW65650   9.908   5.520   2.693 -0.2771 -0.1121  0.4548
19896SOL    HW165651   9.933   5.611   2.712 -1.1735  0.3381 -0.4457
19896SOL    HW265652   9.865   5.490   2.773  0.3066  0.1449  0.8736
19897SOL     OW65653   9.354   5.400  11.846  0.3409 -0.3993 -0.4053
19897SOL    HW165654   9.401   5.482  11.829 -1.4585  0.7896  0.0637
19897SOL    HW265655   9.261   5.424  11.843 -0.3311 -2.8592 -2.3255
19898SOL     OW65656   8.356   6.306   4.064  0.1509 -0.2845 -0.4560
19898SOL    HW165657   8.416   6.305   3.990  0.8841  0.3124  0.1103
19898SOL    HW265658   8.339   6.214   4.083  0.3389 -0.4449 -1.0550
19899SOL     OW65659   4.626   9.654   1.602 -0.5187  0.0793  0.1682
19899SOL    HW165660   4.642   9.648   1.508 -0.2556  1.8281  0.0686
19899SOL    HW265661   4.690   9.594   1.641 -1.2268 -1.3606 -0.7732
19900SOL     OW65662  11.373   8.304  12.392  0.1369 -0.0885  0.0125
19900SOL    HW165663  11.433   8.317  12.465  0.2881  0.4752 -0.2127
19900SOL    HW265664  11.388   8.213  12.366  1.2274  0.1805 -0.3408
19901SOL     OW65665   8.099   6.508   9.490 -0.2869 -0.0720 -0.0838
19901SOL    HW165666   8.175   6.499   9.432  0.9556  1.1468  1.2805
19901SOL    HW265667   8.024   6.490   9.434  0.8537  1.1107 -2.1159
19902SOL     OW65668  12.353  10.718  10.234 -0.0751 -0.0677  0.0864
19902SOL    HW165669  12.307  10.769  10.301 -0.1387 -1.0962  0.8607
19902SOL    HW265670  12.290  10.712  10.161  0.5833  2.3980 -0.7716
19903SOL     OW65671   6.082   1.284  10.813  0.0260 -0.6492  0.1614
19903SOL    HW165672   6.124   1.355  10.764 -3.2527  0.4775 -1.2802
19903SOL    HW265673   6.051   1.326  10.893 -2.3713 -0.2324 -0.9240
19904SOL     OW65674   9.769  11.724   5.725 -0.7050 -0.1200 -0.6989
19904SOL    HW165675   9.763  11.795   5.661 -2.2696 -0.1881 -0.6490
19904SOL    HW265676   9.683  11.721   5.766  0.3829  0.2924  1.8274
19905SOL     OW65677  11.023   7.792   0.556 -0.6668 -0.5468 -0.4371
19905SOL    HW165678  11.024   7.700   0.581  2.0946  0.0042  2.0600
19905SOL    HW265679  10.976   7.836   0.627 -0.6121  0.1452 -0.8175
19906SOL     OW65680  11.168  10.553  10.294  0.6370  0.0639  0.2107
19906SOL    HW165681  11.118  10.630  10.266  1.3309  0.6339  0.4844
19906SOL    HW265682  11.168  10.495  10.218  0.8723  0.7421 -0.3220
19907SOL     OW65683   8.193   4.104   1.195 -1.0157 -0.0016  0.4034
19907SOL    HW165684   8.287   4.098   1.180 -0.7931 -0.2413  1.7562
19907SOL    HW265685   8.174   4.198   1.191 -0.5322  0.1334  1.1111
19908SOL     OW65686  12.090   8.638   3.886 -0.2027 -0.0032  0.3359
19908SOL    HW165687  12.067   8.560   3.936  0.3828  1.4988  3.1850
19908SOL    HW265688  12.186   8.637   3.883 -0.0886  1.4410  1.9961
19909SOL     OW65689   1.249   0.696  10.967  0.3114  0.1252 -0.2072
19909SOL    HW165690   1.289   0.774  10.930  1.4065 -0.7733 -1.0054
19909SOL    HW265691   1.304   0.624  10.937 -2.2502 -1.2907 -1.8972
19910SOL     OW65692  11.323   0.731   1.030  0.4577 -0.1460  0.0885
19910SOL    HW165693  11.245   0.702   1.077 -0.0737 -0.4171 -0.9202
19910SOL    HW265694  11.392   0.673   1.060  0.4484  0.5591  1.5321
19911SOL     OW65695  11.940  10.103   8.820  0.3181  0.4419  0.0817
19911SOL    HW165696  11.980  10.100   8.907  0.1836 -1.4000  0.1236
19911SOL    HW265697  12.003  10.151   8.766  2.4548 -1.9149  0.2777
19912SOL     OW65698  10.849  10.186   4.705  0.2231  0.2725  0.0076
19912SOL    HW165699  10.786  10.176   4.633 -0.7799 -0.2858  0.9288
19912SOL    HW265700  10.914  10.118   4.690  0.0593  0.2050 -0.4046
19913SOL     OW65701   3.636   1.021   6.827  0.1490 -0.2451 -0.7450
19913SOL    HW165702   3.705   1.062   6.878  0.6533 -0.2566 -1.4092
19913SOL    HW265703   3.678   0.948   6.782 -0.5415 -0.9418 -0.2843
19914SOL     OW65704   0.898  11.755   6.653 -0.1615  0.3597  0.3557
19914SOL    HW165705   0.939  11.746   6.567 -0.4187  1.4881  0.0949
19914SOL    HW265706   0.805  11.741   6.637 -0.2506  0.9110  0.3881
19915SOL     OW65707   9.351   9.329   6.366 -0.2872 -0.4553  0.2584
19915SOL    HW165708   9.366   9.323   6.460  0.7464  0.8080  0.1963
19915SOL    HW265709   9.272   9.276   6.352 -0.4179 -0.7410  1.8105
19916SOL     OW65710   3.497   3.182   6.139 -0.4202 -0.0277  0.0662
19916SOL    HW165711   3.469   3.138   6.059 -0.5916 -4.4713  2.2324
19916SOL    HW265712   3.416   3.210   6.182 -0.6894 -1.4691  0.5453
19917SOL     OW65713   4.433  12.075   5.763 -0.6765  0.2172  0.0963
19917SOL    HW165714   4.416  12.155   5.713 -0.9592  0.1003  0.0052
19917SOL    HW265715   4.397  12.005   5.709  1.1580 -0.1848 -0.7039
19918SOL     OW65716   8.861   6.460  10.376 -0.0310  0.2295  0.0990
19918SOL    HW165717   8.883   6.542  10.331  1.0016  0.4949  1.0471
19918SOL    HW265718   8.774   6.475  10.411 -0.1707  0.6263 -0.3956
19919SOL     OW65719  10.594   4.919   9.856 -0.3049 -0.4172  0.5136
19919SOL    HW165720  10.535   4.935   9.782 -3.1089 -1.5271  2.3307
19919SOL    HW265721  10.679   4.903   9.816 -1.3201  0.6504 -2.3357
19920SOL     OW65722   4.443   5.868   5.819  0.8485 -0.1604 -0.2136
19920SOL    HW165723   4.486   5.850   5.735  2.3711 -0.1678  0.5383
19920SOL    HW265724   4.508   5.918   5.869  0.0340 -0.2978  1.0326
19921SOL     OW65725   3.190  10.297   2.778 -0.2095 -0.6422 -0.5270
19921SOL    HW165726   3.125  10.269   2.842 -1.1105  2.2876 -0.0201
19921SOL    HW265727   3.141  10.347   2.713  1.3574  0.9227 -0.5953
19922SOL     OW65728   5.693   9.795   3.426  0.1642  0.0383  0.0971
19922SOL    HW165729   5.780   9.761   3.447 -0.3137 -0.3641  1.5651
19922SOL    HW265730   5.699   9.889   3.442  0.6663  0.2381 -1.1007
19923SOL     OW65731   4.019   9.739   5.872 -0.1256  0.1630  0.5062
19923SOL    HW165732   4.047   9.657   5.912  0.9679  0.6706  0.8029
19923SOL    HW265733   3.930   9.752   5.904 -0.2899 -0.8680  0.5082
19924SOL     OW65734   8.270   6.541   2.150  0.2024  0.3143 -0.1509
19924SOL    HW165735   8.197   6.517   2.206 -0.0615  1.3565 -0.0219
19924SOL    HW265736   8.312   6.614   2.195  0.2183  0.9198 -1.1043
19925SOL     OW65737   9.527  11.671   0.653  0.1681 -0.4189  0.6798
19925SOL    HW165738   9.456  11.646   0.593  0.2293 -2.1973  1.3020
19925SOL    HW265739   9.482  11.707   0.729  0.0635  0.9741  0.0039
19926SOL     OW65740   0.839   9.056   5.445 -0.0630  0.2837 -0.4703
19926SOL    HW165741   0.812   9.097   5.527  0.6991  0.4333 -0.2893
19926SOL    HW265742   0.873   8.970   5.471 -1.6954 -0.5183 -0.8498
19927SOL     OW65743  11.311   6.254   0.041 -0.1703 -0.4323  0.3581
19927SOL    HW165744  11.265   6.312   0.103  2.6603  1.6947  0.6705
19927SOL    HW265745  11.398   6.292   0.033  0.2625 -1.7786 -3.4305
19928SOL     OW65746   7.025   0.850  12.043  0.1740  0.3698 -0.3252
19928SOL    HW165747   7.092   0.905  12.083  0.7540 -0.0566 -0.7086
19928SOL    HW265748   7.032   0.767  12.089 -1.4231  0.9108  1.0092
19929SOL     OW65749   4.840   2.935  11.614  0.2328 -0.0998 -0.7563
19929SOL    HW165750   4.933   2.922  11.592  0.8303  2.4067 -0.0927
19929SOL    HW265751   4.842   2.976  11.701 -1.5705 -0.9065 -0.2944
19930SOL     OW65752   0.808  10.988   6.180  0.0844 -0.3338 -0.4730
19930SOL    HW165753   0.764  11.053   6.234 -0.9068 -0.8883 -0.5823
19930SOL    HW265754   0.868  10.943   6.240 -0.3621 -0.3563 -0.0374
19931SOL     OW65755   3.236   3.946   4.481  0.0911  0.3195 -0.1509
19931SOL    HW165756   3.320   3.973   4.519 -0.3958  0.3946  0.9153
19931SOL    HW265757   3.259   3.908   4.396  1.3641 -0.9246  0.6936
19932SOL     OW65758   8.081   5.939   6.801 -0.0008 -0.0997 -0.4866
19932SOL    HW165759   8.074   5.908   6.711  0.8825  1.0883 -0.9920
19932SOL    HW265760   8.132   5.872   6.846 -0.8530 -0.9391 -0.7346
19933SOL     OW65761   3.685   2.321   8.784 -0.0970 -0.5372 -0.2850
19933SOL    HW165762   3.756   2.258   8.803  0.2555 -0.1651 -0.3559
19933SOL    HW265763   3.727   2.407   8.791 -0.8432 -0.2445  1.0262
19934SOL     OW65764   9.690   7.212   0.918  0.0403 -0.5577  0.2660
19934SOL    HW165765   9.718   7.288   0.970  0.0279  0.0619 -0.6045
19934SOL    HW265766   9.764   7.193   0.861 -0.2164 -0.7622 -0.0042
19935SOL     OW65767   1.814   7.625   9.983 -0.2382 -0.3716 -0.0487
19935SOL    HW165768   1.750   7.554   9.979 -0.4372 -0.1733 -0.5359
19935SOL    HW265769   1.763   7.703  10.002 -0.2748 -0.0661 -1.3103
19936SOL     OW65770   0.836   2.583   5.663  0.5385  0.5004 -0.3476
19936SOL    HW165771   0.835   2.669   5.619  1.8146  0.7031 -0.0200
19936SOL    HW265772   0.915   2.541   5.630  1.5148  0.6328  1.6982
19937SOL     OW65773  11.827   5.307   6.188  0.3471  0.0722 -0.2016
19937SOL    HW165774  11.850   5.218   6.162  0.0404 -0.2110  0.4591
19937SOL    HW265775  11.796   5.298   6.278 -0.5317  0.7146 -0.4265
19938SOL     OW65776   6.040  12.045   2.536 -0.1254 -0.3062 -0.0532
19938SOL    HW165777   6.076  12.126   2.501  2.0341 -0.4120  1.7102
19938SOL    HW265778   6.101  12.019   2.605 -2.6630 -1.5341  1.9047
19939SOL     OW65779   6.639  10.151   3.820  0.2204  0.1892  0.0280
19939SOL    HW165780   6.685  10.122   3.899  0.4806 -0.3886 -0.3380
19939SOL    HW265781   6.683  10.232   3.795  0.7616 -0.1348 -0.0710
19940SOL     OW65782   9.047  11.029   1.264 -0.0283  0.0971  0.1488
19940SOL    HW165783   9.010  11.092   1.325  1.5711  1.0475  0.1958
19940SOL    HW265784   9.132  11.065   1.241  0.1907 -1.1789 -1.2066
19941SOL     OW65785  10.546   4.667   1.398 -0.3170  0.6587  0.4457
19941SOL    HW165786  10.559   4.588   1.451  0.2797 -0.1218 -0.8227
19941SOL    HW265787  10.453   4.686   1.406 -0.8132 -1.1570 -0.5336
19942SOL     OW65788   3.155   5.997   5.554 -0.8750  0.1097  0.1417
19942SOL    HW165789   3.100   6.068   5.524  0.7496  0.0699 -3.5310
19942SOL    HW265790   3.238   6.039   5.579 -1.8094  0.0039  4.0357
19943SOL     OW65791   0.477   9.885   6.005 -0.3409  0.4269  0.8157
19943SOL    HW165792   0.403   9.824   5.997 -0.6985  0.8339  0.9696
19943SOL    HW265793   0.466   9.924   6.091 -0.5028  1.2006  0.4504
19944SOL     OW65794   6.381   1.592   0.106  0.3641  0.0447 -0.7926
19944SOL    HW165795   6.439   1.622   0.036  0.7528  1.2932  0.0097
19944SOL    HW265796   6.311   1.545   0.062  2.4998 -2.4640 -1.7521
19945SOL     OW65797   6.773   3.566   1.636 -0.6453 -0.3865  0.7282
19945SOL    HW165798   6.747   3.479   1.667  0.4424 -1.0992 -0.2723
19945SOL    HW265799   6.868   3.561   1.628 -0.3802  1.4379  2.2088
19946SOL     OW65800   6.445   4.066   2.597  0.1072 -0.3310 -0.0380
19946SOL    HW165801   6.430   4.159   2.578  1.4968 -0.0433  0.1462
19946SOL    HW265802   6.540   4.056   2.593  0.3001 -0.9943  3.1816
19947SOL     OW65803   9.945   8.273   0.282 -0.7158 -0.4424  0.1278
19947SOL    HW165804   9.907   8.353   0.244 -1.3138 -0.3854  0.8206
19947SOL    HW265805  10.002   8.305   0.352 -1.4741 -0.6333  0.8547
19948SOL     OW65806   7.305  12.064   8.195  0.0488  0.0115 -0.2383
19948SOL    HW165807   7.385  12.016   8.218  0.5028  1.0360  0.3616
19948SOL    HW265808   7.333  12.128   8.129 -0.5385 -0.4481 -0.9600
19949SOL     OW65809   8.500  12.126   3.276 -0.2983  0.0586 -0.1338
19949SOL    HW165810   8.440  12.199   3.288 -2.4164 -1.7517  0.9796
19949SOL    HW265811   8.565  12.159   3.214 -1.4082  2.7042 -0.0300
19950SOL     OW65812   8.205  10.869   8.002  0.3825  0.2679 -0.7417
19950SOL    HW165813   8.141  10.864   7.931  0.4453 -1.3770 -0.7064
19950SOL    HW265814   8.164  10.926   8.067 -0.6461 -0.0298 -1.1120
19951SOL     OW65815   5.322   7.939  10.716  0.0392 -0.2254  0.7578
19951SOL    HW165816   5.368   8.017  10.685 -2.2922  0.6616 -0.7788
19951SOL    HW265817   5.341   7.872  10.650 -1.9734  0.6100 -0.8106
19952SOL     OW65818   5.784   7.813   4.786 -0.1466  0.0761 -0.4467
19952SOL    HW165819   5.797   7.790   4.694 -1.7585 -0.5211 -0.5439
19952SOL    HW265820   5.696   7.850   4.790 -0.8158 -1.5251  1.1216
19953SOL     OW65821   9.605   3.829   1.386  0.5104 -0.0196  0.3183
19953SOL    HW165822   9.675   3.791   1.439  0.6908  1.2701  1.0396
19953SOL    HW265823   9.650   3.867   1.310  0.2396 -1.9842 -0.9096
19954SOL     OW65824   1.514   4.827   8.374  0.3954 -0.0355 -0.0001
19954SOL    HW165825   1.609   4.824   8.383  0.1715  0.4645  4.9602
19954SOL    HW265826   1.496   4.917   8.346  1.3405  0.2819  0.3675
19955SOL     OW65827   0.530   5.640   3.738 -0.0198  0.0087 -0.6441
19955SOL    HW165828   0.455   5.675   3.689  0.1776  0.7081 -0.4567
19955SOL    HW265829   0.595   5.710   3.736  0.0242  0.0262  0.5456
19956SOL     OW65830  11.281   4.999   5.375  0.0290 -0.1644  0.6723
19956SOL    HW165831  11.230   4.930   5.332 -0.1030  0.0025  0.5624
19956SOL    HW265832  11.339   5.032   5.306  1.5555 -1.5424  1.2021
19957SOL     OW65833   4.073   2.052   7.196  0.6113 -0.4788 -0.0217
19957SOL    HW165834   4.049   2.143   7.180  1.0788 -0.5833 -1.3820
19957SOL    HW265835   4.167   2.049   7.181  0.8683 -0.8875  1.4958
19958SOL     OW65836   6.087   4.645   1.627 -0.1112 -0.5535  0.1762
19958SOL    HW165837   6.003   4.598   1.634 -0.4050  0.1482  1.5838
19958SOL    HW265838   6.095   4.663   1.533 -1.7501 -0.3041  0.0363
19959SOL     OW65839   5.905   0.582   8.896  0.3245 -0.1915 -0.1527
19959SOL    HW165840   5.912   0.488   8.914  1.2551  0.2474  1.9746
19959SOL    HW265841   5.989   0.605   8.856 -0.3029 -0.4163 -1.6930
19960SOL     OW65842   9.398   9.784   1.877 -0.2993 -0.4161  0.4278
19960SOL    HW165843   9.467   9.832   1.830 -0.6214  0.5475  0.9192
19960SOL    HW265844   9.445   9.717   1.926  0.1414 -0.7633 -0.4320
19961SOL     OW65845   4.336   2.316   2.794  0.1675  0.1437 -0.5447
19961SOL    HW165846   4.293   2.401   2.787  0.7462  0.3547 -1.7105
19961SOL    HW265847   4.303   2.279   2.877  0.7438  1.9530  0.5435
19962SOL     OW65848  11.196   2.464   4.691  0.1565  0.2628  0.0734
19962SOL    HW165849  11.274   2.484   4.641 -1.2282  1.4101 -1.7732
19962SOL    HW265850  11.137   2.537   4.674 -1.7482 -1.0932  0.4718
19963SOL     OW65851   9.909  10.640   6.939 -0.5138 -0.1645 -0.2842
19963SOL    HW165852   9.816  10.658   6.926 -0.2595  0.1520 -1.9095
19963SOL    HW265853   9.950  10.726   6.943 -0.1907 -0.3128 -0.4019
19964SOL     OW65854  11.616   2.322  10.432  0.0918 -0.1264 -1.2509
19964SOL    HW165855  11.705   2.329  10.465 -0.7000  0.9202  0.8423
19964SOL    HW265856  11.587   2.234  10.458 -0.7120  0.8714  1.6046
19965SOL     OW65857   3.434   0.135   5.354  0.2473  0.1435  0.0417
19965SOL    HW165858   3.384   0.213   5.377  0.1419  0.3082 -0.7212
19965SOL    HW265859   3.406   0.114   5.265  1.3477  0.0928 -0.3018
19966SOL     OW65860   0.826   2.347  11.864  0.0713 -0.5086 -0.6879
19966SOL    HW165861   0.918   2.327  11.848  0.8852  1.8194  0.6787
19966SOL    HW265862   0.823   2.442  11.874 -2.2849 -0.6330  0.5303
19967SOL     OW65863   7.327   0.139   6.515 -0.1569  0.0663  0.3291
19967SOL    HW165864   7.291   0.114   6.600 -0.5171  0.2914  0.2427
19967SOL    HW265865   7.333   0.234   6.518 -3.2338  0.4161 -1.0780
19968SOL     OW65866   4.937   0.723   1.279  0.2737  0.0096  0.1167
19968SOL    HW165867   4.959   0.663   1.350  0.8072 -0.3623 -0.3527
19968SOL    HW265868   4.873   0.783   1.317 -1.2834 -1.6357  0.2303
19969SOL     OW65869   7.958   0.789   9.034  0.4079  0.4499 -0.0560
19969SOL    HW165870   8.008   0.732   9.093  1.6740  0.6671 -0.8949
19969SOL    HW265871   7.890   0.827   9.090  0.3389 -0.8651  0.8101
19970SOL     OW65872  10.915   3.217   9.485  0.4402 -0.1483 -0.1739
19970SOL    HW165873  10.833   3.266   9.481 -0.1001 -1.0444 -0.5382
19970SOL    HW265874  10.937   3.215   9.579  2.0295  3.1796 -0.3212
19971SOL     OW65875   3.040   0.556   0.035 -0.2236 -0.4174  0.1426
19971SOL    HW165876   3.021   0.646   0.062 -0.3300  0.2250 -1.8851
19971SOL    HW265877   3.132   0.559   0.007 -0.1327 -1.0179  0.3685
19972SOL     OW65878   7.455   6.581  10.821  0.0324 -0.2618  0.8407
19972SOL    HW165879   7.478   6.492  10.845  0.9232 -0.4658 -0.6269
19972SOL    HW265880   7.366   6.593  10.855 -1.5787 -2.9833 -1.8806
19973SOL     OW65881   4.759  11.887   7.749  0.0585  0.1133 -0.6730
19973SOL    HW165882   4.723  11.799   7.739 -0.2789  0.4436 -3.2621
19973SOL    HW265883   4.840  11.875   7.799 -0.2691 -1.5729 -0.4919
19974SOL     OW65884   8.111  10.286   8.089 -0.5739 -0.7024  0.1451
19974SOL    HW165885   8.072  10.365   8.127  1.7983  0.3909  0.5520
19974SOL    HW265886   8.142  10.314   8.003  0.9742 -0.8978  0.5982
19975SOL     OW65887  10.157   8.036   5.364  0.4695  0.3887 -0.2806
19975SOL    HW165888  10.085   8.085   5.323 -0.6473 -0.9282  0.0645
19975SOL    HW265889  10.129   8.023   5.454  0.7243 -0.9138 -0.3771
19976SOL     OW65890  10.097  12.110   1.860 -0.4922  0.2448  0.1622
19976SOL    HW165891  10.092  12.165   1.782 -0.7893  0.2662  0.1921
19976SOL    HW265892  10.077  12.022   1.829  2.3770 -0.3104 -0.3251
19977SOL     OW65893  12.202   9.596   5.359 -0.0890  0.5906 -0.3360
19977SOL    HW165894  12.127   9.586   5.300 -0.1023  1.9633 -0.5748
19977SOL    HW265895  12.224   9.506   5.384 -1.2820  0.1081 -0.9210
19978SOL     OW65896   5.438  10.949   7.713 -0.1873  0.0208  0.3031
19978SOL    HW165897   5.431  10.893   7.791 -0.2143 -0.9112 -0.3490
19978SOL    HW265898   5.397  11.031   7.738 -0.8057 -0.5063  1.0592
19979SOL     OW65899   2.067   5.464   6.646 -0.2299  0.1477  0.8024
19979SOL    HW165900   1.984   5.476   6.600  0.7775  0.6981 -0.9220
19979SOL    HW265901   2.124   5.421   6.583  0.6166 -0.8431  2.1936
19980SOL     OW65902   5.476  11.678  12.180  0.3456  0.1140  0.4277
19980SOL    HW165903   5.385  11.700  12.161  0.0687 -1.1667  0.1634
19980SOL    HW265904   5.497  11.727  12.259 -0.4204  0.7752  0.2329
19981SOL     OW65905   0.800   9.650   9.785 -0.0333  0.1919 -0.5583
19981SOL    HW165906   0.877   9.613   9.828 -0.5514  0.1058  0.3248
19981SOL    HW265907   0.760   9.577   9.739 -0.2506 -0.0451 -0.0107
19982SOL     OW65908   6.807   2.752   7.516  0.8509 -0.7940  0.1783
19982SOL    HW165909   6.828   2.736   7.424  1.8484 -1.5462  0.5245
19982SOL    HW265910   6.795   2.665   7.554  0.3148 -0.4842  0.7438
19983SOL     OW65911   5.418   2.412   0.626  0.3585  0.4942 -0.0435
19983SOL    HW165912   5.420   2.325   0.665  2.1467 -0.0248 -1.1660
19983SOL    HW265913   5.386   2.469   0.696  1.0513 -0.7626  1.3537
19984SOL     OW65914  10.017   9.563   5.259  0.0513  0.4180 -0.0954
19984SOL    HW165915  10.037   9.515   5.339  0.6195  1.7107  0.5662
19984SOL    HW265916   9.941   9.616   5.281  0.6723  1.3522 -0.1657
19985SOL     OW65917   0.731   4.697   7.349 -0.2631  0.2315  0.4124
19985SOL    HW165918   0.672   4.756   7.303  0.3725 -0.7240 -1.7940
19985SOL    HW265919   0.816   4.740   7.344 -0.3387  0.5307  1.5281
19986SOL     OW65920   4.123   4.034  10.563 -0.2784  0.2856 -0.2497
19986SOL    HW165921   4.194   4.033  10.500  2.1828  1.6939  2.2722
19986SOL    HW265922   4.108   4.126  10.583 -0.5957 -0.0983  1.5389
19987SOL     OW65923  11.302   9.083   2.006 -0.3384 -0.0734  0.0220
19987SOL    HW165924  11.396   9.083   2.024 -0.4273 -0.8418  0.5537
19987SOL    HW265925  11.295   9.054   1.915 -0.0942 -1.0084  0.2852
19988SOL     OW65926  11.783   1.962   6.196  0.4835  0.0916 -0.1015
19988SOL    HW165927  11.751   2.041   6.241  1.2869 -0.2224  1.0792
19988SOL    HW265928  11.717   1.944   6.129 -0.0427  1.3960  0.0271
19989SOL     OW65929   1.485  10.940  12.230 -0.0877  0.0302  0.0504
19989SOL    HW165930   1.490  10.850  12.195  0.2997 -0.4590  1.2941
19989SOL    HW265931   1.410  10.939  12.290 -1.1836  1.0522 -1.2515
19990SOL     OW65932   8.161  11.809  11.819  0.1319  0.0381  0.0980
19990SOL    HW165933   8.220  11.741  11.850  1.2769 -0.1718 -2.3431
19990SOL    HW265934   8.130  11.852  11.899  1.5207 -1.5365  1.5635
19991SOL     OW65935  11.000   8.574   5.884 -0.1334 -0.4987  0.0900
19991SOL    HW165936  11.074   8.515   5.895  0.0785 -0.3357 -0.4594
19991SOL    HW265937  10.925   8.526   5.920  0.3003 -0.5038  1.0068
19992SOL     OW65938   4.463   2.889   6.991  0.1979 -0.0426 -0.5285
19992SOL    HW165939   4.445   2.976   6.953 -2.4877 -0.7444 -1.0902
19992SOL    HW265940   4.381   2.866   7.036  1.2350 -1.8439  0.5330
19993SOL     OW65941   8.043   7.983   0.731  0.1324  0.1491 -0.4142
19993SOL    HW165942   8.079   8.026   0.809 -0.1465 -0.7324  0.2167
19993SOL    HW265943   7.959   8.026   0.716 -0.6908 -0.9298  0.9152
19994SOL     OW65944  10.504  11.801   8.473  0.7675  0.5357 -0.1564
19994SOL    HW165945  10.510  11.711   8.440 -1.2998 -0.6897  2.3727
19994SOL    HW265946  10.471  11.852   8.399 -2.4563 -1.7746 -0.5451
19995SOL     OW65947  12.389  10.680   1.670 -0.0753 -0.3626 -0.3033
19995SOL    HW165948  12.449  10.638   1.731  0.7931 -0.1159 -0.9637
19995SOL    HW265949  12.302  10.666   1.707  0.3930 -0.7263  0.6690
19996SOL     OW65950  10.082   9.728   2.095  0.3740 -0.3472  0.0001
19996SOL    HW165951  10.005   9.673   2.079  0.0204 -0.2337  1.1878
19996SOL    HW265952  10.156   9.675   2.065 -0.0573 -1.0239  0.1028
19997SOL     OW65953  10.842  10.099   7.694 -0.4629  0.8388  0.1103
19997SOL    HW165954  10.777  10.159   7.655 -2.5747 -1.6845 -0.5136
19997SOL    HW265955  10.791  10.022   7.719  2.4959 -1.8031 -1.4720
19998SOL     OW65956   0.834   3.309   6.194  0.5350  0.1332 -0.1666
19998SOL    HW165957   0.849   3.220   6.227 -1.0950 -0.2857 -0.4988
19998SOL    HW265958   0.795   3.296   6.108  0.9577  1.1904 -0.5260
19999SOL     OW65959   4.207   5.760   8.355  0.8662 -0.1995 -0.2339
19999SOL    HW165960   4.267   5.726   8.422  0.9800  0.6054  0.0729
19999SOL    HW265961   4.249   5.840   8.323  1.8565 -1.5869 -2.7338
20000SOL     OW65962   0.249   7.955   3.640  0.0511  0.4877  0.2765
20000SOL    HW165963   0.190   7.901   3.693 -1.4182 -0.0047 -1.7041
20000SOL    HW265964   0.331   7.957   3.689 -1.4103  0.7460  2.8997
20001SOL     OW65965   6.941   8.852   2.231 -0.0534 -0.9900 -0.7685
20001SOL    HW165966   6.873   8.907   2.269  0.2354 -1.0420 -0.1586
20001SOL    HW265967   6.914   8.838   2.140  0.6818  1.4806 -1.4368
20002SOL     OW65968  11.306   6.253   2.325 -0.3038  0.0466  0.3635
20002SOL    HW165969  11.268   6.279   2.242  0.6151 -0.5063 -0.2576
20002SOL    HW265970  11.391   6.215   2.302  0.0198 -0.0241  1.5607
20003SOL     OW65971   7.947   4.386  11.839 -0.0213 -0.2805 -0.2739
20003SOL    HW165972   8.016   4.451  11.829 -0.3800 -0.0711 -1.5221
20003SOL    HW265973   7.929   4.383  11.934  1.4052 -0.0559  0.0135
20004SOL     OW65974  11.920   7.445  10.592 -0.0206  0.0988  0.3179
20004SOL    HW165975  11.958   7.358  10.577  1.1106  0.5939  0.2382
20004SOL    HW265976  11.947   7.497  10.516 -2.0769  0.1018 -0.4736
20005SOL     OW65977   7.158   0.979   1.820  0.1657  0.2382 -0.6330
20005SOL    HW165978   7.232   1.016   1.867  0.1697  0.7315 -1.0122
20005SOL    HW265979   7.197   0.916   1.759  0.1282 -0.6551  0.2543
20006SOL     OW65980   1.291   4.874   8.534 -0.1053  0.7736  1.1706
20006SOL    HW165981   1.295   4.919   8.618 -1.7459  1.4772  0.9134
20006SOL    HW265982   1.379   4.883   8.497 -0.2797  3.5943  1.2518
20007SOL     OW65983   3.840   0.291   6.020  0.7835  0.0589  0.7437
20007SOL    HW165984   3.858   0.224   6.087  1.0381  1.9504  2.6820
20007SOL    HW265985   3.766   0.340   6.056  2.3661  2.5606  0.8160
20008SOL     OW65986   8.432   7.770  10.885  0.4186  0.3765  0.3247
20008SOL    HW165987   8.377   7.769  10.963  1.0416 -0.3963  0.7756
20008SOL    HW265988   8.444   7.862  10.865 -3.2628  0.6729 -1.4254
20009SOL     OW65989   2.184   4.799   3.249 -0.1153 -0.0738 -0.0635
20009SOL    HW165990   2.092   4.793   3.275 -0.0021  1.1685  0.7244
20009SOL    HW265991   2.200   4.719   3.199 -1.8899  0.1442 -1.0853
20010SOL     OW65992   5.566   5.938   8.222  0.4764 -0.8242 -0.4240
20010SOL    HW165993   5.561   5.936   8.318 -0.1991 -0.7094 -0.4503
20010SOL    HW265994   5.522   6.019   8.197  0.0166 -1.1971 -0.8598
20011SOL     OW65995   0.779   1.934   3.677 -0.4073 -0.5036 -0.2411
20011SOL    HW165996   0.809   2.024   3.691  1.8398 -1.1882 -0.4151
20011SOL    HW265997   0.833   1.901   3.605 -1.4379 -1.9121 -0.4149
20012SOL     OW65998   9.550   0.111   5.557 -0.1875  0.5408  0.1482
20012SOL    HW165999   9.521   0.191   5.514  2.3256  2.5659  1.9291
20012SOL    HW266000   9.472   0.078   5.601 -1.4177  1.6673 -1.0822
20013SOL     OW66001   1.850   8.874   1.580  0.1267 -0.1368 -0.5870
20013SOL    HW166002   1.894   8.831   1.507 -0.1815  1.4188 -1.7262
20013SOL    HW266003   1.787   8.808   1.612 -0.4671 -0.5089 -2.3958
20014SOL     OW66004   7.183   0.288   8.611  0.0609 -0.2807  0.7959
20014SOL    HW166005   7.213   0.225   8.546  1.6698  0.5312  0.6962
20014SOL    HW266006   7.218   0.255   8.694 -0.6049 -0.4590  1.0052
20015SOL     OW66007   8.218   5.891   7.301 -0.7153  0.3292 -0.1080
20015SOL    HW166008   8.232   5.829   7.230 -4.0667 -1.0682  0.2511
20015SOL    HW266009   8.251   5.975   7.267  0.0933 -0.7756 -2.2569
20016SOL     OW66010   8.521   0.176   5.608 -0.1256 -0.0082 -0.7655
20016SOL    HW166011   8.520   0.177   5.704  0.4285  0.1968 -0.7570
20016SOL    HW266012   8.432   0.200   5.583  0.0925  1.3686 -0.3091
20017SOL     OW66013   1.904  12.484  10.149  0.0643  0.7412  0.0176
20017SOL    HW166014   1.830  12.509  10.204 -0.1211 -0.8943  0.5744
20017SOL    HW266015   1.876  12.403  10.107  1.9100 -0.5486  1.0987
20018SOL     OW66016  12.162   8.010   5.986 -0.5423  0.6802  0.1043
20018SOL    HW166017  12.079   8.030   5.941 -1.1715  0.9833  1.3615
20018SOL    HW266018  12.139   7.940   6.046  0.3798  0.0272 -0.2834
20019SOL     OW66019   5.790   4.422   7.489 -0.1196 -0.2737 -0.2428
20019SOL    HW166020   5.874   4.431   7.534  0.2611  0.9570 -1.1457
20019SOL    HW266021   5.746   4.506   7.504 -1.0994 -0.8142  0.0088
20020SOL     OW66022   2.119   1.288   2.411 -0.3621  0.3691 -0.0316
20020SOL    HW166023   2.046   1.304   2.352  1.1072  1.9743 -1.5477
20020SOL    HW266024   2.197   1.293   2.355  1.0389  0.9040  1.8498
20021SOL     OW66025   8.595   9.879  11.103  0.1305  0.5859 -0.3573
20021SOL    HW166026   8.583   9.799  11.053  1.0579  0.8109 -0.9647
20021SOL    HW266027   8.634   9.850  11.186 -0.4450  0.3156 -0.1799
20022SOL     OW66028   6.824   0.393   9.177 -0.4997 -0.3503  0.3043
20022SOL    HW166029   6.845   0.482   9.147  1.1003 -0.4906  0.9315
20022SOL    HW266030   6.769   0.357   9.107  0.5397  0.4190 -0.9607
20023SOL     OW66031   7.168   1.051   4.227 -0.2243  0.0642  0.0929
20023SOL    HW166032   7.110   1.112   4.272 -0.0461 -0.2018  0.6886
20023SOL    HW266033   7.255   1.068   4.263  0.2489  1.0669 -1.4170
20024SOL     OW66034   1.511  11.638   7.348 -0.2249 -0.1562  0.3395
20024SOL    HW166035   1.464  11.602   7.424 -0.3012 -0.5747  0.0951
20024SOL    HW266036   1.471  11.724   7.335 -1.7553 -0.9465 -0.5687
20025SOL     OW66037  10.793   5.059  11.933 -0.5356  0.1921 -0.2941
20025SOL    HW166038  10.847   5.045  12.011  0.0973 -0.2075 -0.7894
20025SOL    HW266039  10.706   5.028  11.959 -1.2285  3.0665  1.3246
20026SOL     OW66040   1.395  12.481   8.524 -0.0915 -0.3643 -0.1151
20026SOL    HW166041   1.316  12.515   8.568 -0.2254 -0.4760 -0.2689
20026SOL    HW266042   1.375  12.389   8.507  0.0336 -0.3663 -0.2482
20027SOL     OW66043  12.307   7.368  12.175 -0.5438 -0.4438  0.6176
20027SOL    HW166044  12.260   7.438  12.131 -0.9940  0.7285  2.8025
20027SOL    HW266045  12.376   7.413  12.225 -0.1997 -1.6479  1.2793
20028SOL     OW66046   0.006   8.056   1.764  0.2600  0.5229  0.0257
20028SOL    HW166047   0.025   8.141   1.724  2.2520  0.7749  1.3351
20028SOL    HW266048   0.092   8.023   1.791 -0.7449 -0.6118  2.0796
20029SOL     OW66049   6.281   9.459   8.748 -0.0700  0.1960 -0.2521
20029SOL    HW166050   6.376   9.463   8.736  0.0011 -1.8771 -0.7964
20029SOL    HW266051   6.269   9.446   8.842  0.3002 -1.0821 -0.3594
20030SOL     OW66052   5.520   0.015   9.816 -0.6082  0.2355 -0.2831
20030SOL    HW166053   5.592   0.078   9.827  0.6228 -1.0521 -0.6946
20030SOL    HW266054   5.452   0.065   9.772  1.0321  0.8525 -2.2723
20031SOL     OW66055   5.136   2.917   3.944  0.2362 -1.0330  0.5217
20031SOL    HW166056   5.106   3.008   3.949 -2.2728 -1.8436  1.8669
20031SOL    HW266057   5.232   2.923   3.947  0.1161  1.5054  1.3241
20032SOL     OW66058   4.344   7.627  10.790 -0.0308 -0.0473 -0.2178
20032SOL    HW166059   4.378   7.628  10.880 -0.3770  2.1582 -0.0698
20032SOL    HW266060   4.376   7.708  10.751 -1.8515  0.2006 -1.3136
20033SOL     OW66061   5.399   8.556   9.566  0.1685 -0.9256 -0.3179
20033SOL    HW166062   5.311   8.570   9.530  0.3145 -0.1393 -0.3895
20033SOL    HW266063   5.384   8.515   9.651 -0.2269 -1.7223 -0.7591
20034SOL     OW66064  10.921   8.703   4.117 -1.0273  0.1000 -0.3097
20034SOL    HW166065  10.962   8.672   4.198 -2.7408  1.1843  1.0360
20034SOL    HW266066  10.827   8.692   4.131 -1.3730 -0.0519 -2.3342
20035SOL     OW66067   3.846   6.577   6.477 -0.2332  0.3606  0.1313
20035SOL    HW166068   3.846   6.482   6.471  0.9685  0.3363  0.3160
20035SOL    HW266069   3.794   6.606   6.402  2.2026 -0.3691 -1.9714
20036SOL     OW66070   8.670   0.337   0.159 -0.0462 -0.4150 -0.0460
20036SOL    HW166071   8.668   0.408   0.223 -1.8716  0.3321 -0.8226
20036SOL    HW266072   8.685   0.258   0.210 -1.8849  0.0938  1.4088
20037SOL     OW66073   3.151   5.590   3.318 -0.0024  0.4728  0.5508
20037SOL    HW166074   3.065   5.615   3.352  0.3335  2.2035  0.2227
20037SOL    HW266075   3.200   5.561   3.395 -0.4806  0.6987  0.9443
20038SOL     OW66076   3.351   1.356   1.852  0.3851 -0.6578  0.5506
20038SOL    HW166077   3.313   1.346   1.939  0.3845  0.8216  0.7432
20038SOL    HW266078   3.442   1.381   1.868  0.3564 -0.2731  0.1311
20039SOL     OW66079   7.272   0.116   5.842  0.0183  0.3297 -0.2697
20039SOL    HW166080   7.257   0.128   5.749 -0.6099 -0.5390 -0.2900
20039SOL    HW266081   7.367   0.110   5.850  0.0387 -0.2932 -0.9404
20040SOL     OW66082  12.045  11.308   1.128  0.5751 -0.4031 -0.2617
20040SOL    HW166083  12.045  11.352   1.213 -0.3670 -0.9381  0.0313
20040SOL    HW266084  12.057  11.379   1.065  0.8125  0.0549  0.2850
20041SOL     OW66085   5.409   3.726   4.694  0.3523 -0.4600  0.5004
20041SOL    HW166086   5.483   3.689   4.645  0.6467  1.3374 -0.4914
20041SOL    HW266087   5.410   3.819   4.673 -2.8779 -0.5226 -0.4324
20042SOL     OW66088   3.327  11.047   4.287  0.0782  0.1248 -0.3331
20042SOL    HW166089   3.278  11.039   4.369  2.5521  0.7313  1.3275
20042SOL    HW266090   3.300  11.131   4.250 -1.6838 -0.5353 -0.6425
20043SOL     OW66091   8.424   4.249  11.630 -0.4579  0.2549  0.8933
20043SOL    HW166092   8.494   4.286  11.576  0.1867  0.1054  1.6117
20043SOL    HW266093   8.468   4.222  11.711 -1.3482  0.1586  1.3541
20044SOL     OW66094   4.225   9.286  11.989 -0.0801  0.2363 -0.2929
20044SOL    HW166095   4.181   9.281  11.905  0.0647  1.0991 -0.4296
20044SOL    HW266096   4.155   9.308  12.051  0.0506  1.1007 -0.4325
20045SOL     OW66097  12.308   5.578   8.788 -0.1928 -0.1646  0.0885
20045SOL    HW166098  12.259   5.565   8.870 -1.9015 -1.5760 -1.0802
20045SOL    HW266099  12.342   5.491   8.767 -0.2864  0.0584 -1.0159
20046SOL     OW66100   2.211   0.851   2.083 -0.2549 -0.3084 -0.4095
20046SOL    HW166101   2.267   0.845   2.161  2.7232 -0.4582 -2.3969
20046SOL    HW266102   2.164   0.933   2.093  1.5669  0.6545  0.6595
20047SOL     OW66103   0.784  11.269   0.146  0.0155 -0.3775 -0.0067
20047SOL    HW166104   0.752  11.323   0.074  1.7204  0.9819  0.1811
20047SOL    HW266105   0.776  11.179   0.115 -2.6646 -0.0818 -0.4504
20048SOL     OW66106   7.934   9.124   0.937  0.4382 -0.1827  0.5847
20048SOL    HW166107   7.868   9.165   0.882  1.1586 -0.4720 -0.5451
20048SOL    HW266108   7.885   9.081   1.006 -0.4380  0.9620  0.6890
20049SOL     OW66109   1.745   2.393   8.993 -0.0521 -0.1739 -0.0220
20049SOL    HW166110   1.764   2.435   8.909 -1.6099 -0.4007 -0.5342
20049SOL    HW266111   1.699   2.312   8.969 -1.6242  0.3461  1.0458
20050SOL     OW66112   1.998   2.443  12.236 -0.0823 -0.6617 -0.5413
20050SOL    HW166113   2.069   2.400  12.284  0.1619 -0.7011 -0.9321
20050SOL    HW266114   1.929   2.455  12.301  0.8215  0.6906  0.2278
20051SOL     OW66115  12.252  12.168   0.613 -0.1521  0.6914 -0.6959
20051SOL    HW166116  12.161  12.182   0.585 -0.1243  0.5575 -0.8599
20051SOL    HW266117  12.245  12.131   0.701 -0.2873 -0.0980 -1.0274
20052SOL     OW66118   0.866   3.836   6.655  0.0051 -0.1852  0.5569
20052SOL    HW166119   0.956   3.862   6.636 -1.0103  2.0722 -1.7928
20052SOL    HW266120   0.824   3.916   6.686 -2.0135 -0.1729 -1.8988
20053SOL     OW66121   6.080   3.461   0.928  0.0423  0.0046 -0.2997
20053SOL    HW166122   6.131   3.381   0.943 -0.2453 -0.3757 -1.2246
20053SOL    HW266123   6.051   3.488   1.015  3.5200  1.4389  0.5804
20054SOL     OW66124   0.848   3.008   3.794  0.3168 -0.1853 -0.0039
20054SOL    HW166125   0.758   2.979   3.814  0.5724 -1.4684 -0.5840
20054SOL    HW266126   0.842   3.045   3.706  0.3737 -0.3531 -0.0781
20055SOL     OW66127   4.649   6.951   6.832 -0.1146 -0.5355  0.2605
20055SOL    HW166128   4.695   6.890   6.774  0.8829  0.2855  0.1492
20055SOL    HW266129   4.671   6.921   6.921  0.7311 -0.0992  0.2094
20056SOL     OW66130   7.802   0.827   2.712  0.4858  0.2742 -0.1168
20056SOL    HW166131   7.712   0.833   2.743  0.3841  1.6405 -0.5930
20056SOL    HW266132   7.849   0.897   2.758  0.7706  1.0491 -1.4925
20057SOL     OW66133   6.792   0.188  12.365  0.2492 -0.3065 -0.3023
20057SOL    HW166134   6.764   0.279  12.355 -1.3547 -0.8341 -0.8967
20057SOL    HW266135   6.791   0.173  12.459 -1.9342 -0.3992 -0.2938
20058SOL     OW66136   5.834   3.534   7.664 -0.2894 -0.3342  0.3464
20058SOL    HW166137   5.824   3.467   7.731  0.2856 -0.0131  0.7574
20058SOL    HW266138   5.880   3.605   7.707  1.2251 -0.6200 -0.7024
20059SOL     OW66139   7.249  12.324   7.814 -0.0196 -0.7711  0.1430
20059SOL    HW166140   7.272  12.416   7.804 -0.6330 -0.5789  0.4608
20059SOL    HW266141   7.333  12.280   7.829  0.1705 -0.0999  1.1843
20060SOL     OW66142   9.118   1.649   6.831  0.0205  0.5107  0.0390
20060SOL    HW166143   9.039   1.692   6.864  0.5014  0.8768  0.7337
20060SOL    HW266144   9.144   1.590   6.901  0.7727  0.9309  0.1309
20061SOL     OW66145   7.420   1.502   1.329  0.0929  0.5122 -0.4352
20061SOL    HW166146   7.513   1.499   1.306 -0.5913 -0.1661 -3.6192
20061SOL    HW266147   7.416   1.460   1.415  2.5012 -1.4806 -1.1660
20062SOL     OW66148   0.339   1.743   3.160  0.0939  0.2435 -0.2543
20062SOL    HW166149   0.401   1.795   3.212 -0.9758  1.3284 -0.0167
20062SOL    HW266150   0.274   1.806   3.130 -1.3939 -0.9982  0.2445
20063SOL     OW66151   7.173   9.189   0.925 -0.0926 -0.1910  0.9115
20063SOL    HW166152   7.165   9.094   0.936  0.0423 -0.2839  0.2722
20063SOL    HW266153   7.223   9.199   0.843 -0.5883  0.4349  0.6779
20064SOL     OW66154   3.844   1.911   0.577 -0.5409  0.1299 -0.1941
20064SOL    HW166155   3.880   1.823   0.590  0.7048  0.7071  0.4129
20064SOL    HW266156   3.750   1.897   0.571 -0.5587 -1.0547  1.8520
20065SOL     OW66157   7.364   9.582   3.770 -0.3134 -0.3000  0.3938
20065SOL    HW166158   7.394   9.570   3.680  0.5312  2.4057  0.2352
20065SOL    HW266159   7.440   9.560   3.824 -0.5611 -1.1171  0.4182
20066SOL     OW66160   9.597   5.436   6.893 -0.3345 -0.1345 -0.4083
20066SOL    HW166161   9.524   5.379   6.918 -0.2366 -0.2188 -0.3105
20066SOL    HW266162   9.561   5.525   6.897 -0.5118 -0.1948 -0.6427
20067SOL     OW66163   6.394   5.563  12.363  0.5044  0.6686 -0.0275
20067SOL    HW166164   6.429   5.651  12.350 -0.9790  1.1422 -1.0302
20067SOL    HW266165   6.311   5.562  12.315 -0.4807 -0.6532  1.5601
20068SOL     OW66166  10.745   1.349  10.750 -0.4539  0.0275 -0.8879
20068SOL    HW166167  10.739   1.361  10.845  0.6246  2.2749 -1.0436
20068SOL    HW266168  10.708   1.429  10.714 -0.7500 -0.7532 -2.3915
20069SOL     OW66169   0.501  11.643   0.493  0.0326 -0.2369 -0.4437
20069SOL    HW166170   0.443  11.588   0.546 -0.1763  0.9338  0.6023
20069SOL    HW266171   0.580  11.653   0.548 -0.7437  2.1495  0.3345
20070SOL     OW66172   1.600   3.091   8.211 -0.4692  0.3742 -0.9970
20070SOL    HW166173   1.585   3.123   8.122  0.1720  2.0813 -0.5325
20070SOL    HW266174   1.692   3.111   8.228 -0.7562  0.6680  0.2853
20071SOL     OW66175   4.968   9.616   2.525 -0.3894 -0.6421 -0.3912
20071SOL    HW166176   4.985   9.526   2.497  1.4542 -1.4395  2.8229
20071SOL    HW266177   4.873   9.619   2.537 -0.8084 -1.2970 -2.9477
20072SOL     OW66178   0.145   9.362  12.493 -0.7133  0.7202 -0.1170
20072SOL    HW166179   0.230   9.367  12.450 -0.4320  1.0427  0.4686
20072SOL    HW266180   0.102   9.445  12.473 -1.9025 -0.3589 -2.4451
20073SOL     OW66181   4.908   1.109   2.002  0.1197  0.7526 -0.2111
20073SOL    HW166182   4.838   1.055   2.038  0.0697  0.6401 -0.4794
20073SOL    HW266183   4.871   1.197   2.000  0.7965  1.1487  1.9052
20074SOL     OW66184   3.967  11.102   4.949  0.5458 -0.1126 -0.0911
20074SOL    HW166185   3.912  11.179   4.937 -1.0056 -1.1848 -0.1345
20074SOL    HW266186   3.963  11.084   5.043  0.5564 -0.3770 -0.1398
20075SOL     OW66187   4.878  10.871   0.303  0.0187 -0.1658 -0.5925
20075SOL    HW166188   4.922  10.921   0.372 -0.4387  0.9335 -1.0796
20075SOL    HW266189   4.911  10.909   0.221 -2.2352  1.1004 -0.9731
20076SOL     OW66190   7.208   4.753  11.057 -0.2403  0.0666 -0.3720
20076SOL    HW166191   7.118   4.754  11.087  0.5601 -0.5058  2.2961
20076SOL    HW266192   7.243   4.839  11.082  0.7088 -0.7712  1.3391
20077SOL     OW66193   8.700   4.738   1.329  0.2697  0.3230  0.2471
20077SOL    HW166194   8.785   4.782   1.330  0.1010  0.8670 -2.5482
20077SOL    HW266195   8.640   4.802   1.367  0.7935  0.6247  0.5916
20078SOL     OW66196   9.365   6.502   3.972  0.3568 -0.2504  0.2997
20078SOL    HW166197   9.294   6.445   3.946  1.0626 -0.8928 -0.2631
20078SOL    HW266198   9.393   6.469   4.057 -0.6348  0.6054  0.9829
20079SOL     OW66199  12.094   6.043   7.742  0.0592  0.2908  0.0799
20079SOL    HW166200  12.088   5.967   7.800 -1.2846  1.8003  2.0242
20079SOL    HW266201  12.047   6.017   7.663 -1.1103 -0.6263  1.0478
20080SOL     OW66202  12.019   5.361   3.849 -0.5199  0.1143 -0.3518
20080SOL    HW166203  12.095   5.304   3.854 -0.7769 -0.1724  0.4601
20080SOL    HW266204  11.969   5.328   3.774 -0.1433 -0.0653 -0.5260
20081SOL     OW66205  10.360   8.583   8.054 -0.2623  0.0107  0.3672
20081SOL    HW166206  10.424   8.653   8.040 -0.2525  0.1604  1.1042
20081SOL    HW266207  10.362   8.532   7.973 -0.1524  0.7672 -0.1122
20082SOL     OW66208   8.444   2.831   2.906 -0.2181 -0.8125  0.7702
20082SOL    HW166209   8.390   2.753   2.918 -1.0258  0.0431  3.1896
20082SOL    HW266210   8.528   2.797   2.874 -0.4069 -2.7429  2.1494
20083SOL     OW66211  11.308  11.373   5.339  0.0868  0.4043 -0.3184
20083SOL    HW166212  11.387  11.344   5.386  1.4479  1.3295 -1.9411
20083SOL    HW266213  11.239  11.313   5.369  0.9162  0.7626  2.5909
20084SOL     OW66214   8.855   4.531   7.253  0.1026 -0.4410 -0.0972
20084SOL    HW166215   8.875   4.625   7.254  0.0807 -0.4388  0.0319
20084SOL    HW266216   8.762   4.526   7.273  0.3930 -0.5785  1.2944
20085SOL     OW66217  11.062   1.155   3.049  0.0613 -0.5692  0.3913
20085SOL    HW166218  11.011   1.229   3.015  1.4884 -0.5783 -1.9966
20085SOL    HW266219  11.113   1.193   3.122 -0.9870  0.1808  0.7572
20086SOL     OW66220  11.824   6.529   6.616  0.4216 -0.2311  0.3300
20086SOL    HW166221  11.872   6.611   6.625 -1.4804  1.0947 -0.8960
20086SOL    HW266222  11.806   6.502   6.707 -0.3420  1.6027  0.7673
20087SOL     OW66223   8.827   1.521   9.752  0.0719 -0.4795 -0.5033
20087SOL    HW166224   8.752   1.470   9.720 -0.6714  0.8206 -0.9136
20087SOL    HW266225   8.831   1.596   9.693  0.0170  0.8772  1.1762
20088SOL     OW66226  12.405   0.817   0.872  1.0478  0.3067  0.5016
20088SOL    HW166227  12.376   0.901   0.908  1.1390  0.6156 -0.1258
20088SOL    HW266228  12.354   0.806   0.792  0.3806 -0.6802  1.0431
20089SOL     OW66229   3.099  11.217   5.974  0.7514 -0.0954  0.9626
20089SOL    HW166230   3.047  11.275   6.029 -0.3811 -0.2044  0.0348
20089SOL    HW266231   3.189  11.247   5.988  0.2745  1.3782  1.1069
20090SOL     OW66232  10.392  11.609  11.731  0.8714 -0.1720 -0.0222
20090SOL    HW166233  10.452  11.601  11.806  0.0818  0.5908  0.7189
20090SOL    HW266234  10.389  11.521  11.694  1.3805 -0.5402  0.7706
20091SOL     OW66235   0.580   3.815   0.931 -0.0330  0.1807  0.6928
20091SOL    HW166236   0.656   3.839   0.879 -0.5398  0.9085  0.2842
20091SOL    HW266237   0.569   3.887   0.993 -1.3653  0.9021 -0.3308
20092SOL     OW66238  10.066   9.657   3.288  0.7546 -0.4880  0.3367
20092SOL    HW166239  10.136   9.688   3.230  1.7659 -0.6815  1.4092
20092SOL    HW266240  10.110   9.596   3.348 -0.9058 -3.1688 -0.9632
20093SOL     OW66241   6.996   0.992   9.256 -0.6459  0.3597  0.2934
20093SOL    HW166242   7.007   0.908   9.211 -1.6995  0.5326 -0.3331
20093SOL    HW266243   7.082   1.033   9.253 -0.6636  0.3236 -1.4855
20094SOL     OW66244   7.154   9.724   0.264  0.0023  0.5250 -0.0423
20094SOL    HW166245   7.246   9.732   0.243  0.0042  0.1921 -0.1660
20094SOL    HW266246   7.113   9.690   0.184 -0.2684  0.9257 -0.0750
20095SOL     OW66247   5.948   4.069   7.851  0.0341 -0.6987 -0.4028
20095SOL    HW166248   6.007   4.082   7.925  0.7933  0.2713 -1.1467
20095SOL    HW266249   5.892   4.147   7.850  0.1451 -0.6179 -0.9472
20096SOL     OW66250   9.285   0.311  10.120 -0.5671  0.0664  0.0182
20096SOL    HW166251   9.365   0.356  10.092 -0.1025 -0.2466  0.8087
20096SOL    HW266252   9.217   0.378  10.114 -0.4375  0.0940 -1.5528
20097SOL     OW66253  11.606   9.839   5.166 -0.7816  0.5011  0.5302
20097SOL    HW166254  11.616   9.926   5.128  1.6427 -0.3726 -1.0550
20097SOL    HW266255  11.690   9.822   5.210  0.1831 -2.2469 -2.0288
20098SOL     OW66256   4.270   7.753   4.557  0.4368  0.4543 -0.2462
20098SOL    HW166257   4.222   7.778   4.479  1.3540  2.6476 -0.1699
20098SOL    HW266258   4.348   7.708   4.525  1.8729  3.1499 -0.8067
20099SOL     OW66259  10.872   0.784   9.071 -0.0106 -0.4694  0.3013
20099SOL    HW166260  10.801   0.800   9.010 -0.0938  0.3123  0.5903
20099SOL    HW266261  10.885   0.868   9.116 -0.5114 -1.2162  1.9372
20100SOL     OW66262   1.844  10.429   8.332  0.5773 -0.5288  0.0993
20100SOL    HW166263   1.852  10.402   8.424 -0.6666  0.1751  0.4411
20100SOL    HW266264   1.846  10.525   8.336  0.5215 -0.4972 -0.6093
20101SOL     OW66265   7.194   4.678   2.001 -0.4094 -0.8242 -0.1152
20101SOL    HW166266   7.110   4.675   1.955 -0.5826  0.0713  0.1270
20101SOL    HW266267   7.251   4.620   1.950 -0.8017 -0.4110 -1.0455
20102SOL     OW66268   8.143   2.569   9.554 -0.2200 -0.8817  0.0589
20102SOL    HW166269   8.101   2.498   9.601 -0.4023 -0.9144 -0.1516
20102SOL    HW266270   8.236   2.562   9.576 -0.3372 -0.7517  0.5981
20103SOL     OW66271   7.532  11.980   6.295  0.1873 -0.0407  0.2269
20103SOL    HW166272   7.553  11.895   6.258  2.5385  1.2360 -1.6644
20103SOL    HW266273   7.584  11.985   6.376  0.5531 -0.1573 -0.0004
20104SOL     OW66274  10.210  11.291   9.561 -0.1371 -0.4746  0.2319
20104SOL    HW166275  10.256  11.304   9.478 -1.5001 -1.9769 -0.8148
20104SOL    HW266276  10.278  11.258   9.620  0.1537 -3.1577 -1.4193
20105SOL     OW66277  10.927  10.553   1.264 -0.3030  0.0358 -1.1172
20105SOL    HW166278  10.865  10.480   1.259  1.4002 -1.4344 -2.0068
20105SOL    HW266279  11.011  10.512   1.285  0.7631  1.7176 -1.8790
20106SOL     OW66280  11.213   5.276   5.939  0.3462  0.0976 -0.0599
20106SOL    HW166281  11.284   5.336   5.962 -0.1171  1.1318 -1.2622
20106SOL    HW266282  11.248   5.189   5.959  0.8668  0.7482  2.1559
20107SOL     OW66283   0.948   5.850   7.593 -0.3329 -0.0054 -0.2685
20107SOL    HW166284   0.969   5.873   7.502  0.2040 -1.4062 -0.5132
20107SOL    HW266285   0.938   5.755   7.592 -2.5562  0.1467  0.6960
20108SOL     OW66286   1.621   9.415   3.589 -0.1103 -0.3212  0.0181
20108SOL    HW166287   1.696   9.355   3.585  0.3368  0.2783 -1.0826
20108SOL    HW266288   1.545   9.358   3.581  0.3087 -0.7643 -0.9734
20109SOL     OW66289  11.186   2.803   7.534  0.0862 -0.0321 -0.8153
20109SOL    HW166290  11.093   2.823   7.525  0.1128  1.9094  2.1409
20109SOL    HW266291  11.231   2.882   7.503  0.6402  0.0276  0.1121
20110SOL     OW66292   8.872   7.736   1.617 -0.1967 -0.0097 -0.0244
20110SOL    HW166293   8.904   7.793   1.687  0.8402 -0.0797 -0.4223
20110SOL    HW266294   8.777   7.733   1.630 -0.2041  1.2704  0.3999
20111SOL     OW66295   4.832   6.714   6.897 -0.3183 -0.4297 -0.2788
20111SOL    HW166296   4.794   6.681   6.979 -0.2084 -1.0296 -0.4637
20111SOL    HW266297   4.925   6.726   6.917 -0.3877 -0.0753 -0.1650
20112SOL     OW66298   7.125   0.008  11.057  0.4934 -0.0554  0.3533
20112SOL    HW166299   7.181   0.084  11.040  0.7705 -0.7006 -1.9880
20112SOL    HW266300   7.061   0.039  11.122  1.7142  1.5896  0.8301
20113SOL     OW66301   3.426   7.678  10.527 -0.5519 -0.0552 -0.0201
20113SOL    HW166302   3.348   7.627  10.548  0.2305 -0.9984  0.6751
20113SOL    HW266303   3.482   7.671  10.605  0.7290 -0.3703 -0.9290
20114SOL     OW66304  11.822  11.436   9.827 -0.1079 -0.1091 -0.2382
20114SOL    HW166305  11.867  11.399   9.903 -1.1862  0.7154  0.8346
20114SOL    HW266306  11.887  11.493   9.786  0.5331 -0.6802 -0.0269
20115SOL     OW66307   9.984   9.510   6.510  0.0019  0.8154  0.6800
20115SOL    HW166308  10.065   9.471   6.477 -0.3043 -0.1291  1.0101
20115SOL    HW266309  10.005   9.534   6.601  0.0486  0.9930  0.6226
20116SOL     OW66310   5.017  11.621   0.980 -0.1004 -0.1438 -0.5918
20116SOL    HW166311   4.986  11.538   1.015  0.7248  1.1607  3.8176
20116SOL    HW266312   5.108  11.606   0.958  0.0020 -0.4615  0.0468
20117SOL     OW66313   6.575   4.576   4.226 -0.3650 -0.4475 -0.3660
20117SOL    HW166314   6.588   4.661   4.270 -0.7789 -1.6339  2.2221
20117SOL    HW266315   6.648   4.570   4.165 -0.5982  1.9746 -1.0168
20118SOL     OW66316   0.256  12.081   7.763  0.1567  0.4338 -0.4548
20118SOL    HW166317   0.275  12.160   7.814 -0.8775  1.1054 -1.0662
20118SOL    HW266318   0.342  12.041   7.748  0.5607  0.6815  1.0530
20119SOL     OW66319   8.186   8.984   1.938 -0.0553  0.8170  0.2418
20119SOL    HW166320   8.177   9.016   1.848  1.1982 -0.4511 -0.3606
20119SOL    HW266321   8.237   8.904   1.930 -0.5519  0.2890  2.0253
20120SOL     OW66322   3.841   3.294   9.117 -0.6572  0.7647  0.6523
20120SOL    HW166323   3.767   3.244   9.084 -0.4114  0.7913  0.0512
20120SOL    HW266324   3.841   3.278   9.212 -0.8651  0.0111  0.5276
20121SOL     OW66325  10.323   5.107   1.834  0.0329  0.2224 -0.1294
20121SOL    HW166326  10.264   5.182   1.824 -0.6658 -0.1024  1.3738
20121SOL    HW266327  10.298   5.066   1.916  2.2037 -0.0771  0.4665
20122SOL     OW66328   1.543   8.237   9.921 -0.7817  0.2021  0.3175
20122SOL    HW166329   1.609   8.169   9.932 -0.1928  1.0506  2.4867
20122SOL    HW266330   1.459   8.191   9.926 -0.3958 -0.5935 -0.2510
20123SOL     OW66331   3.545   7.955   7.513  0.0772 -0.2143 -0.2913
20123SOL    HW166332   3.627   7.986   7.552  0.1215  1.1390 -1.3850
20123SOL    HW266333   3.477   7.985   7.573  0.3986 -2.4430  1.3005
20124SOL     OW66334  10.976   2.123   4.326 -0.2262  0.2536  0.0762
20124SOL    HW166335  10.882   2.107   4.334 -0.2338 -0.2851 -0.9286
20124SOL    HW266336  10.984   2.217   4.311 -0.7732  0.0124 -1.9651
20125SOL     OW66337   9.620   9.344  11.114 -0.6540  0.6056 -0.4644
20125SOL    HW166338   9.589   9.350  11.205  1.0667 -0.1908  0.2075
20125SOL    HW266339   9.707   9.306  11.121 -0.4861  0.5474 -2.4723
20126SOL     OW66340  11.565   2.127   3.166  0.5448 -0.3212  0.3226
20126SOL    HW166341  11.652   2.087   3.162 -0.3062 -2.2300  0.0882
20126SOL    HW266342  11.505   2.054   3.167 -1.1270  0.9856 -0.4846
20127SOL     OW66343   0.935   4.834   1.807 -0.0467 -0.5888  0.2951
20127SOL    HW166344   0.932   4.883   1.725 -0.2487  0.2546  0.7836
20127SOL    HW266345   0.976   4.895   1.869  1.7932 -1.8762  0.3888
20128SOL     OW66346   6.921   7.277   2.106  0.1198 -0.0259  0.4728
20128SOL    HW166347   6.906   7.265   2.013  1.1446  0.5095  0.2219
20128SOL    HW266348   7.006   7.235   2.122 -0.0316 -0.0865  1.1586
20129SOL     OW66349   9.444   4.753   8.854 -0.3888 -0.0224 -0.2085
20129SOL    HW166350   9.473   4.800   8.776 -0.6452  0.3309 -0.0944
20129SOL    HW266351   9.348   4.755   8.849 -0.4057  0.0405  0.1375
20130SOL     OW66352   1.793   4.137  12.092 -0.2090  0.1948 -0.2065
20130SOL    HW166353   1.718   4.117  12.148 -2.3243 -0.2899 -2.9634
20130SOL    HW266354   1.813   4.055  12.047  2.0191  0.3235  0.4303
20131SOL     OW66355   6.912   3.866  12.051  0.8534  0.5743 -0.1542
20131SOL    HW166356   6.872   3.810  11.985 -0.5455  0.3419  0.8380
20131SOL    HW266357   6.987   3.816  12.083 -1.1733 -1.4856  1.7203
20132SOL     OW66358   5.319   4.322  11.244  0.2280 -0.5490 -0.4664
20132SOL    HW166359   5.302   4.268  11.167 -0.1805  0.5928 -1.2077
20132SOL    HW266360   5.257   4.291  11.310  0.1041 -1.0768 -0.8274
20133SOL     OW66361   4.767  10.971   4.813 -0.7866  0.2358 -0.0363
20133SOL    HW166362   4.705  10.991   4.743 -0.1589 -1.2006 -1.0699
20133SOL    HW266363   4.778  10.876   4.808  1.1298  0.3846  0.4044
20134SOL     OW66364   0.895   1.357   0.552 -0.4367  0.4634 -0.1388
20134SOL    HW166365   0.922   1.448   0.563  1.8970 -0.2650  0.8576
20134SOL    HW266366   0.870   1.328   0.640  0.1248 -0.2146 -0.1908
20135SOL     OW66367   3.135   4.300   4.579 -0.1137  0.1941 -0.0334
20135SOL    HW166368   3.074   4.344   4.639  0.4586 -0.8388  1.3577
20135SOL    HW266369   3.191   4.370   4.546 -0.1342  0.7226  1.0181
20136SOL     OW66370   6.527   2.817   1.454 -0.4313  0.5028  0.0726
20136SOL    HW166371   6.516   2.891   1.394 -0.2104  0.5127  0.0460
20136SOL    HW266372   6.517   2.739   1.398 -0.1556  0.5118  0.0097
20137SOL     OW66373   4.579   9.868   4.532 -0.7632 -0.6726 -0.2501
20137SOL    HW166374   4.576   9.790   4.477 -2.2122 -0.4249 -0.5474
20137SOL    HW266375   4.489   9.881   4.561 -0.0951 -0.7186  2.1017
20138SOL     OW66376  10.526   9.678   6.710  0.3693  0.7047 -0.3355
20138SOL    HW166377  10.495   9.592   6.683  1.4503  0.4572 -0.8470
20138SOL    HW266378  10.562   9.717   6.630 -1.8612  2.4520 -0.5677
20139SOL     OW66379   0.406   9.660   9.913 -0.0832 -0.1892 -0.2017
20139SOL    HW166380   0.350   9.624   9.845 -1.2182  2.4802 -0.8111
20139SOL    HW266381   0.437   9.743   9.877  0.0377  0.8725  2.1607
20140SOL     OW66382   4.689   6.647   0.036 -0.2340 -0.1334 -0.0590
20140SOL    HW166383   4.604   6.679   0.066  0.5508  1.5063  0.5411
20140SOL    HW266384   4.685   6.552   0.050 -2.1496 -0.1756 -0.5906
20141SOL     OW66385   5.857   7.822   8.394  0.0606  0.1147 -0.0253
20141SOL    HW166386   5.790   7.878   8.354 -0.5008  0.2020  1.0284
20141SOL    HW266387   5.939   7.854   8.357 -0.2289  1.7841  0.6886
20142SOL     OW66388   7.498   9.442  10.271 -0.4768 -0.4179  0.3280
20142SOL    HW166389   7.473   9.508  10.207  1.0676 -1.9477 -2.0301
20142SOL    HW266390   7.457   9.361  10.240  0.7489 -1.3123  0.9259
20143SOL     OW66391   3.628   0.801   5.361 -0.2155 -0.0512 -0.5059
20143SOL    HW166392   3.591   0.757   5.437 -0.1157 -0.5566 -0.7395
20143SOL    HW266393   3.576   0.880   5.350 -1.6187 -1.0228 -1.1700
20144SOL     OW66394  10.585   5.323   3.158  0.2296 -0.0459  0.2218
20144SOL    HW166395  10.611   5.265   3.229  0.3996 -0.5987 -0.2835
20144SOL    HW266396  10.569   5.408   3.200 -0.9325 -0.6846  1.0967
20145SOL     OW66397   1.188   4.503   9.183  0.1046 -0.2457 -0.6495
20145SOL    HW166398   1.247   4.439   9.143  1.3877  0.2631  0.3554
20145SOL    HW266399   1.130   4.530   9.112  0.2129 -1.7356 -1.3472
20146SOL     OW66400   8.963   6.777   9.476  0.8214 -0.2274  0.2917
20146SOL    HW166401   8.954   6.712   9.406  1.1133  1.7201 -1.6765
20146SOL    HW266402   9.032   6.836   9.445  0.1431  1.3753  1.6865
20147SOL     OW66403   5.112   5.122   8.909 -0.4147 -0.1367 -0.1262
20147SOL    HW166404   5.130   5.180   8.983  0.7017  0.0967 -0.5650
20147SOL    HW266405   5.078   5.042   8.948  0.6476 -0.2076  0.6746
20148SOL     OW66406   0.686  11.373   9.289  0.2580  0.5946 -0.0884
20148SOL    HW166407   0.702  11.340   9.201 -2.9624 -1.3209 -0.1248
20148SOL    HW266408   0.616  11.437   9.279  0.7552  1.3536  0.9840
20149SOL     OW66409   2.200   0.896  12.270 -0.1502  0.2463  0.6339
20149SOL    HW166410   2.124   0.906  12.328 -0.9216  1.4660 -0.5434
20149SOL    HW266411   2.269   0.862  12.328 -1.9224 -2.3352  1.4576
20150SOL     OW66412   8.525   4.014  11.853 -0.1692 -0.0346  0.2939
20150SOL    HW166413   8.494   4.002  11.942 -1.6350  1.6772  0.0558
20150SOL    HW266414   8.567   4.100  11.852  0.4175 -0.3051 -0.5344
20151SOL     OW66415  11.765  10.685  11.026  0.0872  0.7385 -0.0074
20151SOL    HW166416  11.770  10.615  10.961  1.2463  1.2255 -0.4680
20151SOL    HW266417  11.697  10.744  10.993 -0.2871  0.2788 -0.0652
20152SOL     OW66418   0.616   2.761   9.024  0.0432  0.7213 -0.4402
20152SOL    HW166419   0.586   2.670   9.023 -1.1392  1.1061 -1.1010
20152SOL    HW266420   0.553   2.807   9.080  1.2977  0.9325  0.8437
20153SOL     OW66421   4.045   9.300   0.871 -0.4013 -0.3801 -0.5959
20153SOL    HW166422   3.977   9.362   0.897 -0.1620  0.6168 -2.2497
20153SOL    HW266423   3.998   9.228   0.830 -0.6012 -0.8212  0.3751
20154SOL     OW66424   6.092   1.384   1.449 -0.4730  0.0657 -0.0493
20154SOL    HW166425   6.185   1.388   1.472 -0.5827  0.4248  0.3446
20154SOL    HW266426   6.057   1.314   1.504 -0.7512  0.9738  0.9801
20155SOL     OW66427   8.631   4.380   0.993 -0.2572 -0.1093 -0.4257
20155SOL    HW166428   8.583   4.337   0.922 -0.4078  1.7824 -1.5424
20155SOL    HW266429   8.665   4.308   1.046 -1.7399 -1.5545 -1.3334
20156SOL     OW66430   3.674  10.929   7.711 -0.3144 -0.1128  0.1299
20156SOL    HW166431   3.720  10.852   7.743  1.2854  0.4271 -0.7811
20156SOL    HW266432   3.624  10.961   7.786 -0.1683 -1.4255  0.7979
20157SOL     OW66433  11.483   8.671  11.404 -0.7564  0.3963 -0.0603
20157SOL    HW166434  11.444   8.725  11.336  0.2174  2.4210  0.9194
20157SOL    HW266435  11.569   8.648  11.370 -0.5253  0.8551  0.2132
20158SOL     OW66436   3.103   4.889   1.488 -0.2969 -0.1647 -0.0884
20158SOL    HW166437   3.058   4.848   1.561  0.7709  0.8818  1.2127
20158SOL    HW266438   3.164   4.822   1.457  0.4322 -0.0803  1.0994
20159SOL     OW66439   4.740   2.760   8.799 -0.1968 -0.3854 -0.5236
20159SOL    HW166440   4.666   2.785   8.743  0.7655 -2.4286 -2.8483
20159SOL    HW266441   4.749   2.666   8.787  1.8937 -0.4271  0.8572
20160SOL     OW66442   4.896   5.494   6.496  0.0084 -0.5884 -0.3058
20160SOL    HW166443   4.810   5.531   6.474  0.6973  0.6704 -1.0779
20160SOL    HW266444   4.958   5.553   6.452  1.2948 -1.0130  0.8766
20161SOL     OW66445   4.556  12.433   3.264 -0.1854  0.3304  0.4768
20161SOL    HW166446   4.612  12.424   3.341  1.3335  1.4060 -0.4449
20161SOL    HW266447   4.615  12.421   3.189 -1.9248 -2.6870 -0.6370
20162SOL     OW66448   8.602   7.712   1.633  0.1020 -0.1619 -0.1502
20162SOL    HW166449   8.560   7.717   1.547 -0.2252  0.4131  0.0358
20162SOL    HW266450   8.530   7.706   1.695  0.3343 -0.4671  0.0961
20163SOL     OW66451   5.308   9.892   2.848 -0.0619  0.0873  0.1891
20163SOL    HW166452   5.383   9.880   2.907 -0.5698  1.0522  1.0714
20163SOL    HW266453   5.337   9.960   2.787  0.2908 -0.5654 -0.3741
20164SOL     OW66454   0.900   3.017   1.680  0.1096 -0.2394 -0.0737
20164SOL    HW166455   0.980   3.042   1.634 -0.7236 -0.9204 -2.0235
20164SOL    HW266456   0.903   2.921   1.683 -0.5235 -0.2579  0.0533
20165SOL     OW66457   1.593   1.473   3.667  0.5593  0.2696 -0.7372
20165SOL    HW166458   1.600   1.568   3.677  0.5050  0.1339  0.8297
20165SOL    HW266459   1.501   1.458   3.643  0.3016  0.5444  0.0661
20166SOL     OW66460   1.729   7.180   1.535 -0.0205  0.3650  0.0623
20166SOL    HW166461   1.777   7.260   1.556  0.4656  0.3924 -1.0893
20166SOL    HW266462   1.781   7.138   1.467 -1.3763  0.1619 -0.8896
20167SOL     OW66463   4.794   8.602   7.416  0.2790  0.2521 -0.4501
20167SOL    HW166464   4.758   8.514   7.404 -0.4683  0.0753  2.3636
20167SOL    HW266465   4.726   8.660   7.383 -0.8866 -0.1855  1.0655
20168SOL     OW66466   7.965   5.880   4.344 -0.1462  0.1949  0.0227
20168SOL    HW166467   7.936   5.956   4.293 -0.4917 -0.4118 -0.7144
20168SOL    HW266468   7.943   5.805   4.288 -0.7980 -0.5135  1.1974
20169SOL     OW66469   3.390   1.222   7.562  0.7471 -0.2990  0.3598
20169SOL    HW166470   3.416   1.238   7.653 -0.5361 -1.5383  0.9868
20169SOL    HW266471   3.435   1.141   7.539  0.9660 -0.0564 -0.0819
20170SOL     OW66472   6.921   0.727   1.584  0.0419  0.1167 -0.0129
20170SOL    HW166473   6.853   0.788   1.555  1.9971  0.4929 -4.7283
20170SOL    HW266474   6.890   0.641   1.557  0.9701  0.2093 -1.5277
20171SOL     OW66475   2.187  12.440   9.626  0.4184  0.5287 -0.2146
20171SOL    HW166476   2.218  12.478   9.708 -0.2295  1.5293 -0.4092
20171SOL    HW266477   2.196  12.512   9.562 -1.7533  0.7123 -0.3876
20172SOL     OW66478  10.269   0.334   1.875 -0.2039  0.0359  0.3854
20172SOL    HW166479  10.237   0.321   1.964  0.9270  0.2117  0.8277
20172SOL    HW266480  10.267   0.429   1.862  1.2947  0.1549  0.8739
20173SOL     OW66481   4.220   8.731   6.947  0.2703  0.1804  0.1030
20173SOL    HW166482   4.157   8.729   6.875 -0.2882 -0.6213  0.6011
20173SOL    HW266483   4.220   8.822   6.976 -0.7807  0.1699  0.1865
20174SOL     OW66484   9.591   3.103   5.331 -0.5136 -0.0479  0.1163
20174SOL    HW166485   9.669   3.157   5.325 -0.9766  0.4653 -2.4273
20174SOL    HW266486   9.619   3.016   5.302 -1.0183  0.4019 -1.9430
20175SOL     OW66487   1.690   3.683  10.124  0.3836  0.1968 -0.6026
20175SOL    HW166488   1.648   3.629  10.190  1.1678 -0.6243 -0.7514
20175SOL    HW266489   1.655   3.652  10.040  1.0498 -0.3206 -0.7085
20176SOL     OW66490   9.004   1.834   5.351 -0.3333 -0.0214  0.3265
20176SOL    HW166491   8.984   1.916   5.396  1.9254  0.5726  0.3618
20176SOL    HW266492   8.919   1.802   5.322 -1.1670  3.3639 -1.5086
20177SOL     OW66493   0.947   9.162   5.054  0.0639  0.1541  0.0878
20177SOL    HW166494   0.918   9.245   5.016  0.1810 -0.1296 -0.6264
20177SOL    HW266495   1.036   9.180   5.084 -0.2743  0.5768  0.8643
20178SOL     OW66496   8.483   2.738   9.912  0.0450  0.4710 -0.4436
20178SOL    HW166497   8.437   2.763   9.992 -1.4838 -1.7840 -0.5321
20178SOL    HW266498   8.467   2.811   9.852 -0.3625  1.3502  0.6853
20179SOL     OW66499   4.959   1.500   8.490 -0.1575 -0.7846 -0.1786
20179SOL    HW166500   5.009   1.557   8.433 -1.6234 -0.7585 -1.4982
20179SOL    HW266501   4.988   1.411   8.467 -2.5950 -0.9929 -3.0041
20180SOL     OW66502   3.167   7.727   5.961 -0.5341  0.2813  0.4246
20180SOL    HW166503   3.252   7.687   5.943 -1.3081 -1.5555  0.6017
20180SOL    HW266504   3.149   7.704   6.052 -0.7703  1.5653  0.7168
20181SOL     OW66505   3.783   0.724   4.180  0.4369 -0.0857  0.0579
20181SOL    HW166506   3.819   0.738   4.268 -0.7576 -0.7728  0.6828
20181SOL    HW266507   3.692   0.751   4.187 -0.4118 -2.6640 -0.2145
20182SOL     OW66508   9.402   1.072   9.070 -0.4602 -0.2882  0.2651
20182SOL    HW166509   9.340   0.999   9.074 -0.0994 -0.5613  1.4681
20182SOL    HW266510   9.452   1.065   9.152 -0.7433  1.5972  0.6421
20183SOL     OW66511   2.301   6.260   1.522  0.3225  0.0380 -0.4880
20183SOL    HW166512   2.329   6.325   1.458  0.1256  0.3122 -0.2952
20183SOL    HW266513   2.329   6.176   1.485  0.3654  0.2109 -0.8459
20184SOL     OW66514   6.539   1.044   8.697 -0.2709  0.9060 -0.0723
20184SOL    HW166515   6.585   1.121   8.731  2.7804 -0.3311 -1.0716
20184SOL    HW266516   6.591   1.016   8.621 -1.2608 -2.1308  0.2250
20185SOL     OW66517   7.486   4.022   7.834 -0.8320  0.2992  0.1699
20185SOL    HW166518   7.415   3.959   7.844 -0.5625  0.3033  3.0602
20185SOL    HW266519   7.565   3.972   7.852 -0.3250  0.8434 -0.4874
20186SOL     OW66520   8.403   8.968   7.597  0.3294 -0.4282  0.4292
20186SOL    HW166521   8.353   9.005   7.524 -0.2906  0.3829  1.2407
20186SOL    HW266522   8.338   8.954   7.665  0.9566 -0.8953  0.9392
20187SOL     OW66523   6.672  11.022   4.052  0.3452  0.7007 -0.3785
20187SOL    HW166524   6.698  11.066   4.133  0.5345 -1.3801  0.7716
20187SOL    HW266525   6.752  10.980   4.021  0.0685  0.7313 -1.1565
20188SOL     OW66526   4.821   7.243  10.028 -0.1151  0.2852  0.6292
20188SOL    HW166527   4.880   7.186  10.077 -1.3017 -1.1750  0.4199
20188SOL    HW266528   4.756   7.271  10.092  0.5146  1.5275  0.7550
20189SOL     OW66529   8.689   8.172   0.257 -0.4064  0.4234  0.8145
20189SOL    HW166530   8.718   8.261   0.235  1.8299 -0.9501 -2.5025
20189SOL    HW266531   8.605   8.163   0.213  0.7484  0.0457 -1.4739
20190SOL     OW66532   6.240   0.574  11.202  0.2823  0.0313 -0.5723
20190SOL    HW166533   6.244   0.660  11.243  2.3273 -0.4304  0.2771
20190SOL    HW266534   6.238   0.593  11.108 -0.6308  1.0099 -0.3739
20191SOL     OW66535  10.019   9.032   1.931  0.5067 -0.1076  0.1995
20191SOL    HW166536  10.020   9.014   1.837  1.1104 -0.4031  0.2602
20191SOL    HW266537  10.008   8.947   1.973  0.7898 -0.0467  0.4090
20192SOL     OW66538  10.499   2.623   2.543  0.1705  0.2519  0.4194
20192SOL    HW166539  10.456   2.541   2.568  0.1776  0.1158 -0.0131
20192SOL    HW266540  10.592   2.601   2.537  0.4257  0.7211  2.1035
20193SOL     OW66541   4.710   4.708   4.869 -0.1651  0.0873 -0.2523
20193SOL    HW166542   4.721   4.622   4.909  1.7660  0.1596 -0.5040
20193SOL    HW266543   4.769   4.765   4.919 -1.0738  1.1706 -0.3842
20194SOL     OW66544   1.864   7.703   8.549 -0.3195  0.3465 -0.0952
20194SOL    HW166545   1.880   7.643   8.476 -1.9865  1.3482 -1.3349
20194SOL    HW266546   1.949   7.710   8.592  0.4577 -1.1058 -1.2914
20195SOL     OW66547   8.819  11.387   4.373 -0.0364  0.0093  0.5439
20195SOL    HW166548   8.784  11.298   4.375  0.0559 -0.0271  0.5626
20195SOL    HW266549   8.758  11.438   4.425 -0.7364  0.1968 -0.4366
20196SOL     OW66550   5.825   1.814   5.550 -0.4118 -0.1676  0.7517
20196SOL    HW166551   5.908   1.781   5.515 -0.8318 -0.7079  0.2537
20196SOL    HW266552   5.798   1.747   5.613 -0.6831 -0.1984  0.6013
20197SOL     OW66553   7.050   8.289   3.843  0.9458  0.2116 -0.4145
20197SOL    HW166554   7.025   8.379   3.861  0.3303  0.3181 -1.6978
20197SOL    HW266555   6.967   8.241   3.838  1.1805 -0.1354 -1.1751
20198SOL     OW66556   4.784  10.266   0.011 -0.3774 -0.2551 -0.6174
20198SOL    HW166557   4.849  10.222  -0.045 -1.4939 -0.2435 -1.9802
20198SOL    HW266558   4.713  10.202   0.019 -0.4449 -0.0576  0.3949
20199SOL     OW66559   2.911  10.553  11.615 -0.4370 -0.5541  0.1052
20199SOL    HW166560   2.902  10.608  11.537  0.4603  2.2085  1.8220
20199SOL    HW266561   3.005  10.553  11.633 -0.7021 -0.5296  1.5740
20200SOL     OW66562   0.936  10.029   7.552 -0.0885 -0.0011 -0.9450
20200SOL    HW166563   0.871   9.958   7.557 -2.7787  2.3462 -0.1096
20200SOL    HW266564   0.896  10.102   7.598  3.8835  1.2073  1.0576
20201SOL     OW66565  10.476   9.871  12.198  0.1751  0.2346  0.1257
20201SOL    HW166566  10.531   9.807  12.153  0.1963  0.0716  0.3820
20201SOL    HW266567  10.456   9.937  12.131  1.6120  0.8993  0.3089
20202SOL     OW66568   0.666   7.164   7.076  0.5373  0.0148  0.5662
20202SOL    HW166569   0.666   7.258   7.057  1.6240  0.0178  0.5471
20202SOL    HW266570   0.699   7.124   6.995  3.5426 -0.1041  1.7440
20203SOL     OW66571  12.061  10.899  11.324 -0.0832 -0.3829 -0.3885
20203SOL    HW166572  12.115  10.951  11.264  1.2545  0.1005  1.1662
20203SOL    HW266573  11.974  10.938  11.316 -0.2594 -1.0641 -2.8191
20204SOL     OW66574   6.668   6.067   3.556 -0.2064 -0.0307 -0.1220
20204SOL    HW166575   6.576   6.065   3.583 -0.3065  1.0591 -0.3608
20204SOL    HW266576   6.717   6.072   3.638 -0.3499 -0.6722  0.0080
20205SOL     OW66577   5.692   7.242   3.947  0.0560  0.1480 -0.0620
20205SOL    HW166578   5.781   7.213   3.965  0.4486  0.7230 -1.0143
20205SOL    HW266579   5.672   7.206   3.861 -0.7252 -0.1851  0.2538
20206SOL     OW66580  10.000  11.199   3.772 -0.2428  0.3752 -0.0946
20206SOL    HW166581  10.029  11.288   3.791 -1.5664  0.5997  1.0807
20206SOL    HW266582  10.075  11.144   3.794  0.4899  1.1671 -0.5607
20207SOL     OW66583   6.977   2.374   8.520 -0.3173  0.3837 -0.2760
20207SOL    HW166584   7.046   2.321   8.560  0.9644  0.9841 -1.6074
20207SOL    HW266585   6.899   2.355   8.572  0.6046 -1.1093  0.6326
20208SOL     OW66586   8.245   0.669   4.699 -0.6766  0.1946 -0.4746
20208SOL    HW166587   8.268   0.587   4.655  0.4937  0.4750 -0.4150
20208SOL    HW266588   8.294   0.666   4.782 -2.0512  0.1408  0.3578
20209SOL     OW66589   6.616   3.847   0.262  0.0907 -0.1216  0.0466
20209SOL    HW166590   6.627   3.914   0.330  2.0681  0.8882 -1.1548
20209SOL    HW266591   6.529   3.863   0.226  0.4493  1.7229 -0.0808
20210SOL     OW66592  12.250   7.802   4.432 -0.6748 -0.5477  0.0587
20210SOL    HW166593  12.306   7.756   4.369  0.4316 -0.5184  0.9869
20210SOL    HW266594  12.277   7.893   4.425 -1.7213 -0.2678 -0.5963
20211SOL     OW66595   6.743   8.021   0.402  0.3801  0.2418  0.2563
20211SOL    HW166596   6.674   7.956   0.392  0.7955 -0.1737  0.0685
20211SOL    HW266597   6.751   8.062   0.316 -0.0995  0.7689  0.4567
20212SOL     OW66598   1.131   0.849   3.225  0.3328  0.6268 -0.1964
20212SOL    HW166599   1.118   0.878   3.315 -1.4495 -0.4648 -0.0605
20212SOL    HW266600   1.094   0.920   3.172 -0.1574  0.5266  0.0026
20213SOL     OW66601   8.515   8.287   2.709 -0.0269  0.3908 -0.6098
20213SOL    HW166602   8.527   8.343   2.786  1.3572  1.3145 -1.4547
20213SOL    HW266603   8.421   8.290   2.693 -0.2818  0.5893  0.7371
20214SOL     OW66604   9.141   3.171   0.785  0.4018 -0.6733 -0.7584
20214SOL    HW166605   9.104   3.259   0.774  0.1782 -0.1742  2.9701
20214SOL    HW266606   9.068   3.112   0.767 -0.4120  0.0624  0.0345
20215SOL     OW66607   9.999   7.145  10.890  0.1294  0.3879  0.1269
20215SOL    HW166608   9.929   7.195  10.848 -1.0285 -1.7269 -0.5853
20215SOL    HW266609   9.974   7.141  10.982 -1.1199 -0.9505 -0.2385
20216SOL     OW66610   9.990   5.830  11.537 -0.5542 -0.1802  0.2962
20216SOL    HW166611  10.057   5.807  11.472 -1.9641 -0.5421 -1.0779
20216SOL    HW266612   9.995   5.926  11.542 -0.2965 -0.1612 -0.1938
20217SOL     OW66613   5.709   5.973  10.323 -0.3227 -0.2232  0.0072
20217SOL    HW166614   5.732   5.896  10.375  2.9606 -0.6840 -1.8498
20217SOL    HW266615   5.665   6.032  10.384  0.5783 -1.9754  2.4791
20218SOL     OW66616   1.583   3.039   6.568 -0.0881 -0.1846 -0.4704
20218SOL    HW166617   1.635   3.004   6.495 -0.7318  0.2318 -1.1471
20218SOL    HW266618   1.492   3.020   6.543 -0.3036 -0.2716  0.3595
20219SOL     OW66619   1.412   8.988   0.970  0.5698 -0.7118 -0.3277
20219SOL    HW166620   1.395   8.993   1.064 -2.8036 -0.3640 -0.8212
20219SOL    HW266621   1.345   8.928   0.937  1.7452 -0.9151 -2.5140
20220SOL     OW66622   1.140   3.698   0.914 -0.2847  0.2316  0.8341
20220SOL    HW166623   1.067   3.719   0.856  0.9859  2.1978 -0.1710
20220SOL    HW266624   1.101   3.692   1.001 -1.8645 -0.4017  0.1165
20221SOL     OW66625   4.673   6.349   2.897  0.3674 -0.6183  0.1109
20221SOL    HW166626   4.726   6.382   2.824  1.3131 -0.2177  0.9501
20221SOL    HW266627   4.667   6.423   2.957 -1.0367 -0.7073  0.1204
20222SOL     OW66628  11.266   3.767  10.392  0.5243  0.0883  0.2328
20222SOL    HW166629  11.272   3.862  10.398 -0.5371  0.1019  1.7803
20222SOL    HW266630  11.349   3.740  10.353  1.0854  1.6034  0.3174
20223SOL     OW66631  12.487  12.403   2.562  0.0748  0.3192 -0.1943
20223SOL    HW166632  12.514  12.400   2.470  1.7946  2.9552  0.1231
20223SOL    HW266633  12.394  12.426   2.558 -0.0046 -0.0867 -1.2546
20224SOL     OW66634   6.332   4.292   9.350  0.6667  0.1047  0.4731
20224SOL    HW166635   6.424   4.267   9.355  0.5031 -1.3677 -2.0978
20224SOL    HW266636   6.333   4.387   9.348  2.3039  0.1073 -1.1417
20225SOL     OW66637   7.197   2.944   2.352  0.1825 -0.1085  0.2907
20225SOL    HW166638   7.185   2.882   2.280 -2.3770 -0.4448  0.9105
20225SOL    HW266639   7.128   3.009   2.340 -0.3035 -0.1584  2.3663
20226SOL     OW66640   1.173  10.298  10.801 -0.5989 -0.2259 -0.0173
20226SOL    HW166641   1.198  10.375  10.852 -1.9846  1.2698 -1.4743
20226SOL    HW266642   1.083  10.314  10.775 -0.2942 -1.3845 -2.0475
20227SOL     OW66643   1.081   7.510   8.678  0.5176 -0.3981  0.0394
20227SOL    HW166644   1.025   7.492   8.755 -0.7329  2.2171 -0.1598
20227SOL    HW266645   1.146   7.572   8.710  2.1343 -1.8554 -0.2641
20228SOL     OW66646   8.917  10.070  10.487 -0.1261  0.0900  0.2180
20228SOL    HW166647   8.863  10.078  10.566 -1.0094  0.2920 -0.3808
20228SOL    HW266648   8.859  10.027  10.424  0.7700 -0.6109 -0.1369
20229SOL     OW66649   0.380  12.433  12.177 -0.0505 -0.2415  0.1401
20229SOL    HW166650   0.391  12.440  12.271  0.0192 -0.8065  0.1774
20229SOL    HW266651   0.286  12.418  12.164  0.1378 -1.7109  0.2336
20230SOL     OW66652   8.094   6.820   7.093  0.1662 -0.4898 -0.1214
20230SOL    HW166653   8.066   6.844   7.005 -0.0324 -0.5520 -0.0765
20230SOL    HW266654   8.184   6.790   7.082 -0.0221 -0.9813 -0.3870
20231SOL     OW66655   0.259   1.484   3.847  0.6017  0.6340 -0.0807
20231SOL    HW166656   0.182   1.435   3.877  0.2262  1.5133  0.4133
20231SOL    HW266657   0.226   1.539   3.776  1.4731 -1.4081 -2.2081
20232SOL     OW66658   7.011   0.950   0.231 -0.3815 -0.2181  0.5655
20232SOL    HW166659   7.051   0.943   0.144 -1.0660  1.1896  0.1202
20232SOL    HW266660   6.993   1.043   0.243  0.5831 -0.2342  2.6394
20233SOL     OW66661   0.216   8.423  10.295  0.3722 -0.3070 -0.4088
20233SOL    HW166662   0.136   8.374  10.280  0.8437 -1.2358  0.0052
20233SOL    HW266663   0.195   8.482  10.368  0.6822 -2.1239  1.2247
20234SOL     OW66664   8.409   2.091   4.676  0.3886  0.0929  0.2080
20234SOL    HW166665   8.405   2.160   4.611 -0.5150  0.4648  0.6427
20234SOL    HW266666   8.367   2.016   4.635  0.4994  0.0925  0.0937
20235SOL     OW66667   9.156   3.260   8.620  0.5700 -0.0055  0.3521
20235SOL    HW166668   9.067   3.253   8.586  0.5186 -0.4584  0.5691
20235SOL    HW266669   9.153   3.333   8.682  0.0353 -0.8153  1.3093
20236SOL     OW66670   5.162   4.135   0.069 -0.3102 -0.1102 -0.3975
20236SOL    HW166671   5.190   4.091  -0.012  0.5986  0.4904 -0.4273
20236SOL    HW266672   5.067   4.134   0.065 -0.3138  1.3278 -2.2970
20237SOL     OW66673   3.742   1.901   4.021 -0.2604  0.5970 -0.3432
20237SOL    HW166674   3.776   1.989   4.007  0.1271  0.4507 -0.3459
20237SOL    HW266675   3.818   1.850   4.050 -0.5450  0.3360 -0.0473
20238SOL     OW66676   8.079  11.085   3.043 -0.1541 -0.3970  0.6582
20238SOL    HW166677   8.045  11.058   2.957  0.5812 -0.4886  0.3939
20238SOL    HW266678   8.136  11.160   3.023  0.2353 -0.5921  1.0394
20239SOL     OW66679   4.988   6.756  12.462  0.4563  0.6051 -0.0314
20239SOL    HW166680   5.056   6.690  12.481  0.2557  0.2833 -0.4092
20239SOL    HW266681   4.907   6.714  12.490  0.1906  0.2479 -1.2580
20240SOL     OW66682  10.588   4.613   1.819 -0.2800  0.3545 -1.0290
20240SOL    HW166683  10.650   4.544   1.840 -1.3103  0.3197  2.5883
20240SOL    HW266684  10.529   4.575   1.754  0.6460 -1.2535 -0.9552
20241SOL     OW66685   5.893   2.658   4.925  0.7428  0.9032 -0.4648
20241SOL    HW166686   5.883   2.577   4.975  0.3877  2.2264  1.6967
20241SOL    HW266687   5.807   2.673   4.886  1.3911 -0.9189 -2.9237
20242SOL     OW66688  10.174   9.441   1.224 -0.4090 -0.6623 -0.0637
20242SOL    HW166689  10.149   9.499   1.296 -0.6771 -0.0622 -0.6254
20242SOL    HW266690  10.234   9.378   1.263  0.3549  0.3544  0.4416
20243SOL     OW66691   5.233   5.026   0.654  0.0020  0.3527  0.0132
20243SOL    HW166692   5.319   5.030   0.696 -0.6967  3.2595  1.4000
20243SOL    HW266693   5.194   4.944   0.686  1.4613  0.0010  0.9617
20244SOL     OW66694   0.802   1.396   0.298  0.0099 -0.1047 -0.1481
20244SOL    HW166695   0.825   1.392   0.391  0.9903 -0.0207 -0.3788
20244SOL    HW266696   0.730   1.334   0.289  0.8023 -1.1533  0.4268
20245SOL     OW66697   7.736   7.534   3.801  0.3122 -0.1181  0.3724
20245SOL    HW166698   7.734   7.569   3.890 -1.5425 -0.4589  0.5052
20245SOL    HW266699   7.828   7.514   3.785  0.5833 -0.8627  2.5524
20246SOL     OW66700   6.830   8.887  12.333 -0.0015 -0.2624 -0.3884
20246SOL    HW166701   6.829   8.903  12.238  0.1550  0.5510 -0.2620
20246SOL    HW266702   6.920   8.909  12.360 -0.2181  0.1219  0.0391
20247SOL     OW66703   5.137   0.744   2.914 -0.1770  0.4246 -0.3700
20247SOL    HW166704   5.112   0.653   2.930 -0.2332  0.2654 -1.3326
20247SOL    HW266705   5.070   0.795   2.959  1.2936  0.0545  2.5100
20248SOL     OW66706   5.788  11.183   2.682 -0.6823  0.9108 -0.1280
20248SOL    HW166707   5.749  11.189   2.595  1.0194 -0.7571 -1.0738
20248SOL    HW266708   5.734  11.119   2.728 -2.4433  2.8250  0.6047
20249SOL     OW66709   2.983   2.047   2.422  0.2987 -0.1698 -0.7438
20249SOL    HW166710   2.892   2.059   2.446  0.3762 -0.8751 -0.0566
20249SOL    HW266711   3.015   2.135   2.401 -0.1283  0.2912  0.4924
20250SOL     OW66712   4.942   8.811   2.234  0.0966 -0.5396  0.5037
20250SOL    HW166713   4.959   8.728   2.191 -1.8647 -0.7145 -0.0015
20250SOL    HW266714   4.882   8.858   2.176  0.6187  0.9548  1.1030
20251SOL     OW66715   8.744   3.982   3.318  0.5863 -0.0736  0.0267
20251SOL    HW166716   8.781   3.900   3.350  1.3050  0.7545  1.4692
20251SOL    HW266717   8.703   4.022   3.396  1.6143  1.6291 -0.2424
20252SOL     OW66718   6.802   6.155   9.040  0.2673 -0.4543 -0.1402
20252SOL    HW166719   6.781   6.067   9.007 -0.7336 -0.5851  0.7938
20252SOL    HW266720   6.738   6.212   8.998  1.3613 -0.0366 -1.2951
20253SOL     OW66721   1.811   0.578   8.187 -0.4027  0.0990  0.4309
20253SOL    HW166722   1.791   0.507   8.127  0.8984 -0.6398  0.8200
20253SOL    HW266723   1.811   0.656   8.132 -0.5530 -0.3749 -0.2616
20254SOL     OW66724   1.408   7.015   5.915  0.0753  0.1929 -0.5934
20254SOL    HW166725   1.451   7.092   5.878 -0.6298  0.1090 -1.6543
20254SOL    HW266726   1.381   7.042   6.002  0.4804  0.9048 -0.6748
20255SOL     OW66727   7.164   9.434   1.186 -0.5408 -0.1971 -0.0034
20255SOL    HW166728   7.113   9.486   1.248  1.0673  1.7158 -0.1864
20255SOL    HW266729   7.127   9.455   1.100  0.9790  1.8964 -0.2327
20256SOL     OW66730   8.091   7.334   3.761  0.3369 -0.0743 -0.1846
20256SOL    HW166731   8.186   7.326   3.755  0.2957 -1.0478  0.3584
20256SOL    HW266732   8.077   7.423   3.795  1.0329  0.1540 -0.4762
20257SOL     OW66733  10.048   9.115   0.004 -0.6387  0.2665  0.0101
20257SOL    HW166734   9.988   9.058   0.051 -0.6454 -0.8507 -1.3042
20257SOL    HW266735  10.105   9.056  -0.044  0.1882  1.3546 -0.3987
20258SOL     OW66736   2.746   6.920   1.503 -0.3674 -0.4629 -0.3817
20258SOL    HW166737   2.784   7.006   1.522  0.8120 -0.0183 -4.0034
20258SOL    HW266738   2.805   6.858   1.546  0.2149  0.4595  0.1931
20259SOL     OW66739   1.728   4.123  11.035 -0.1030  0.6472  0.6353
20259SOL    HW166740   1.800   4.069  11.003 -0.2911  1.2380 -0.8690
20259SOL    HW266741   1.757   4.153  11.121 -0.0398 -1.8855  1.5509
20260SOL     OW66742   4.556   1.017   6.839  0.0363  0.1221 -0.4821
20260SOL    HW166743   4.566   0.980   6.752  0.8113  0.6554 -0.6352
20260SOL    HW266744   4.646   1.024   6.873 -0.2482 -0.0471  0.3425
20261SOL     OW66745   3.013   1.697   7.286 -0.5658 -0.4932  0.1558
20261SOL    HW166746   2.935   1.747   7.260 -1.3987 -0.5890  2.2609
20261SOL    HW266747   3.034   1.643   7.210 -1.5211  0.7744 -1.0601
20262SOL     OW66748   9.136  11.165  10.831 -0.3924  0.0407 -0.0091
20262SOL    HW166749   9.118  11.071  10.825 -0.2764 -0.0791  1.3534
20262SOL    HW266750   9.138  11.184  10.925 -2.5787  1.8302 -0.2238
20263SOL     OW66751   8.444   8.971   5.924 -0.0712  0.0923 -0.1787
20263SOL    HW166752   8.390   8.955   5.846  1.5570 -0.1860 -1.2938
20263SOL    HW266753   8.534   8.971   5.891  0.8879 -2.5864  2.1071
20264SOL     OW66754  10.990   6.982   6.653 -0.0265  0.5041 -0.4036
20264SOL    HW166755  11.048   6.906   6.652 -0.2170  0.3559 -0.4130
20264SOL    HW266756  10.937   6.972   6.573  0.3792  0.9865 -0.7424
20265SOL     OW66757  10.095  11.944   7.623 -0.1644 -0.3095 -0.4062
20265SOL    HW166758  10.071  11.993   7.544  0.1025 -0.5816 -0.6610
20265SOL    HW266759  10.012  11.909   7.656 -0.6428  1.8504  0.8471
20266SOL     OW66760   9.034   0.581   5.500  0.2689 -0.4510  0.1313
20266SOL    HW166761   9.034   0.557   5.593 -1.1610  0.4311  0.3846
20266SOL    HW266762   9.001   0.503   5.456 -1.0033 -0.2034  0.5950
20267SOL     OW66763  12.383   7.059   2.120  0.0698 -0.5865  0.1185
20267SOL    HW166764  12.433   7.103   2.189  0.7341 -2.7115  1.0791
20267SOL    HW266765  12.435   7.071   2.041 -0.0146  0.7210  0.2391
20268SOL     OW66766   0.352   4.357   8.470  0.0947  0.0154  0.2065
20268SOL    HW166767   0.443   4.332   8.491 -0.9677 -1.7105  3.5534
20268SOL    HW266768   0.323   4.290   8.408  0.3900 -1.0104  1.1339
20269SOL     OW66769  11.769   2.768  11.245  0.9393 -0.1468 -0.2188
20269SOL    HW166770  11.733   2.813  11.169  1.8642  0.3602 -0.3681
20269SOL    HW266771  11.727   2.810  11.320 -0.7263 -1.3086 -0.4525
20270SOL     OW66772   1.699   2.810   9.019 -0.5098 -0.0265  0.0333
20270SOL    HW166773   1.659   2.789   8.935 -1.8102  0.3584  0.5219
20270SOL    HW266774   1.659   2.894   9.044 -1.3512 -0.8843  1.7351
20271SOL     OW66775   0.059   2.116   3.312 -0.2510 -0.2684  0.2485
20271SOL    HW166776  -0.025   2.162   3.301 -0.4040  0.2425  2.9026
20271SOL    HW266777   0.036   2.036   3.360  0.6266 -0.7423 -0.1090
20272SOL     OW66778   8.127   8.662  11.442  0.0025 -0.0150 -0.0751
20272SOL    HW166779   8.114   8.757  11.448 -1.6118 -0.2202  0.2882
20272SOL    HW266780   8.184   8.650  11.366  1.9691  1.3422  1.0963
20273SOL     OW66781   3.626   7.212   2.132  0.3888 -0.6583 -0.6949
20273SOL    HW166782   3.718   7.238   2.135  0.6131 -1.5002 -0.2410
20273SOL    HW266783   3.584   7.265   2.200  1.0253 -2.1283  0.9066
20274SOL     OW66784   3.244   7.779   1.482  0.3066  0.1418 -0.5448
20274SOL    HW166785   3.153   7.799   1.461 -0.0142 -1.6280 -1.0329
20274SOL    HW266786   3.279   7.860   1.518 -2.1079  0.2225  1.9142
20275SOL     OW66787   4.593   7.960   1.274 -0.6018 -0.2732  0.5938
20275SOL    HW166788   4.544   8.036   1.244  1.2359  0.5733 -0.4249
20275SOL    HW266789   4.591   7.966   1.370 -2.3134 -0.2010  0.5810
20276SOL     OW66790   2.023   8.424   3.109 -0.2337  0.3777  0.3788
20276SOL    HW166791   1.999   8.444   3.019 -0.3547  1.6639  0.6716
20276SOL    HW266792   2.118   8.417   3.108 -0.0636  2.1464  0.4313
20277SOL     OW66793   9.484   9.346   1.940 -0.7837 -0.0310 -0.1084
20277SOL    HW166794   9.530   9.279   1.991  1.0075  2.1237  1.2992
20277SOL    HW266795   9.465   9.304   1.856  1.2554 -1.9444  0.2973
20278SOL     OW66796   5.851   6.920   3.023 -0.4068 -0.0707  0.6729
20278SOL    HW166797   5.913   6.993   3.031 -0.1827 -0.0164 -1.1779
20278SOL    HW266798   5.877   6.859   3.093  2.0992 -0.2988 -0.3506
20279SOL     OW66799  11.500   3.875   6.567 -0.0915 -0.1597 -0.8863
20279SOL    HW166800  11.478   3.957   6.611 -2.2138 -1.2096  0.2010
20279SOL    HW266801  11.594   3.879   6.554  0.3287  1.2320  1.7794
20280SOL     OW66802   6.002   3.362   6.168 -0.2590  0.2055 -0.1573
20280SOL    HW166803   5.958   3.280   6.145  1.0058 -0.1814 -1.3543
20280SOL    HW266804   5.993   3.369   6.263  0.7076 -1.9974  0.1530
20281SOL     OW66805   9.594   9.172   9.382 -0.0175  0.1759  0.2989
20281SOL    HW166806   9.616   9.218   9.463  0.5973 -2.9795  2.1267
20281SOL    HW266807   9.678   9.138   9.351 -0.5411 -0.5366 -0.3813
20282SOL     OW66808   1.136  10.025   8.946  0.0055 -0.1160 -0.4245
20282SOL    HW166809   1.203   9.957   8.938  0.9351  0.5932  1.0223
20282SOL    HW266810   1.071   9.988   9.006 -0.6481 -0.5849 -1.3967
20283SOL     OW66811  11.350  12.297   0.765 -0.3172 -0.0712  0.7170
20283SOL    HW166812  11.299  12.226   0.804  1.0325 -1.1439  0.6088
20283SOL    HW266813  11.334  12.290   0.671  1.8449 -1.9991  0.3999
20284SOL     OW66814   1.437   3.592   1.170  0.5382 -0.4394 -0.6282
20284SOL    HW166815   1.488   3.638   1.237 -0.5403  0.4036 -0.3532
20284SOL    HW266816   1.436   3.501   1.199  2.9760 -0.7542 -1.3493
20285SOL     OW66817   0.670   1.208   6.443 -0.1296  0.5615 -0.0068
20285SOL    HW166818   0.655   1.130   6.497  1.1061 -1.1204 -1.9951
20285SOL    HW266819   0.582   1.241   6.426 -0.5997  0.8345  2.4796
20286SOL     OW66820   2.841   2.994   2.557  0.5693 -0.3674  0.1421
20286SOL    HW166821   2.936   2.988   2.558  0.5947 -0.0185  1.1148
20286SOL    HW266822   2.810   2.912   2.595  0.6177  0.9183  3.2289
20287SOL     OW66823   2.756   5.018   1.775  0.2120 -0.0655  0.7009
20287SOL    HW166824   2.747   5.107   1.810 -0.5940  0.2717 -0.3188
20287SOL    HW266825   2.845   4.993   1.797  0.7313  1.3196  0.2754
20288SOL     OW66826   3.684   0.444   6.857  0.2752 -0.3965  0.9715
20288SOL    HW166827   3.709   0.394   6.780  0.6024 -1.8161  1.9482
20288SOL    HW266828   3.757   0.432   6.918 -0.3547 -0.0231  1.8207
20289SOL     OW66829   1.425   7.608   4.617  0.9174 -0.6951  0.6168
20289SOL    HW166830   1.518   7.593   4.597  1.1397  0.9014  0.3625
20289SOL    HW266831   1.417   7.586   4.710  1.2597 -2.0545  0.3461
20290SOL     OW66832   2.273   7.926   7.727 -0.0250  0.2945  0.3764
20290SOL    HW166833   2.324   7.907   7.649  0.8600  0.6425  0.8609
20290SOL    HW266834   2.279   7.848   7.781 -0.7086  0.0211  0.0764
20291SOL     OW66835   0.255  12.290  10.980  0.0101 -0.0429  0.1010
20291SOL    HW166836   0.166  12.306  11.012 -0.4348 -1.5605 -0.2692
20291SOL    HW266837   0.287  12.218  11.035  0.3552 -0.6633 -0.8916
20292SOL     OW66838   1.453   5.104   7.149  0.0079 -0.5887 -0.1294
20292SOL    HW166839   1.503   5.123   7.070 -2.0326  1.4792 -1.0408
20292SOL    HW266840   1.491   5.023   7.183  3.1403  0.2230 -1.3582
20293SOL     OW66841  11.958   6.444   7.038 -0.1305  0.3758  0.5506
20293SOL    HW166842  11.973   6.365   7.090  1.7798 -0.1969 -0.7637
20293SOL    HW266843  11.999   6.514   7.088  0.5507  0.0534  0.4502
20294SOL     OW66844   4.223   0.519  11.636  0.1590 -0.4411  0.1263
20294SOL    HW166845   4.159   0.581  11.670 -0.1938 -0.9162  0.3348
20294SOL    HW266846   4.175   0.437  11.625  0.5771 -0.6369 -0.3116
20295SOL     OW66847  11.412   0.191  10.748 -0.3503 -0.1122 -0.4304
20295SOL    HW166848  11.464   0.200  10.828 -1.8067  0.6835  0.4704
20295SOL    HW266849  11.455   0.121  10.699  2.5448  1.6157 -0.5413
20296SOL     OW66850   6.912   7.493   7.321 -0.1380 -0.2818  0.1902
20296SOL    HW166851   6.986   7.506   7.261 -0.1620 -0.3339  0.1488
20296SOL    HW266852   6.910   7.399   7.336 -1.8153 -0.6756 -1.9126
20297SOL     OW66853   7.351   9.209   0.712  0.2833  0.1581 -0.3241
20297SOL    HW166854   7.404   9.275   0.668 -0.5811  1.5545  0.6398
20297SOL    HW266855   7.333   9.143   0.645  1.1441  0.9057 -1.3173
20298SOL     OW66856  11.145   8.539   6.429 -0.6375 -0.2706  0.2996
20298SOL    HW166857  11.084   8.611   6.414 -0.0102  0.0531 -0.8376
20298SOL    HW266858  11.162   8.504   6.341  1.7289  0.4295  0.4142
20299SOL     OW66859   6.231   9.988   2.909  0.6473 -0.1708 -0.1045
20299SOL    HW166860   6.227  10.078   2.879 -0.0004  0.4226  1.6852
20299SOL    HW266861   6.324   9.965   2.903  0.6172  0.0478 -2.0605
20300SOL     OW66862   4.598  11.306   1.241 -0.2051  0.3301  0.2647
20300SOL    HW166863   4.593  11.401   1.234  1.4924  0.5052  1.0866
20300SOL    HW266864   4.551  11.285   1.322  1.1846  0.6991  1.1975
20301SOL     OW66865   8.512   8.753   4.015  0.2589 -0.0361  0.4344
20301SOL    HW166866   8.451   8.704   4.071  2.2598 -2.2320  0.8272
20301SOL    HW266867   8.591   8.761   4.068  0.4397  2.6159 -0.1247
20302SOL     OW66868   2.165   4.975  10.547  0.3033  0.3656 -0.6409
20302SOL    HW166869   2.258   4.988  10.531  0.3195 -1.2244 -2.0959
20302SOL    HW266870   2.161   4.905  10.612  0.1039  1.6880  0.8389
20303SOL     OW66871   5.593   2.482   5.293  0.0727  0.2485 -0.2691
20303SOL    HW166872   5.543   2.464   5.213 -0.0462 -0.5737 -0.0235
20303SOL    HW266873   5.681   2.504   5.262  0.1055 -0.3608 -0.6237
20304SOL     OW66874   7.514   6.749   3.811  1.0072 -0.6916  0.2006
20304SOL    HW166875   7.425   6.754   3.845  1.1990 -1.6939  0.9079
20304SOL    HW266876   7.554   6.676   3.859  2.5244  0.3811  0.6368
20305SOL     OW66877   0.596   9.914   6.351 -0.3672 -0.0638  0.1284
20305SOL    HW166878   0.575   9.975   6.422  0.9851  2.3914 -1.4379
20305SOL    HW266879   0.687   9.935   6.327 -0.7280 -0.8571 -2.2321
20306SOL     OW66880   5.660   0.100   8.265  0.5448 -0.7041 -0.0501
20306SOL    HW166881   5.649   0.054   8.182  1.0983 -0.4832 -0.2417
20306SOL    HW266882   5.670   0.029   8.329  0.6592 -0.8647 -0.2429
20307SOL     OW66883   7.734   8.509   6.080  0.4560 -0.1698 -0.1105
20307SOL    HW166884   7.657   8.455   6.099  0.5443 -0.4197 -0.4432
20307SOL    HW266885   7.769   8.473   5.998 -0.1385  1.1222 -0.9618
20308SOL     OW66886   8.324   4.591   8.176  0.5830 -0.0266 -0.1974
20308SOL    HW166887   8.409   4.579   8.218  1.5928  1.0818 -1.8027
20308SOL    HW266888   8.342   4.587   8.082 -1.7028 -3.2610 -0.6748
20309SOL     OW66889   8.921   8.548   6.949 -0.1597 -0.0922  0.2798
20309SOL    HW166890   8.977   8.475   6.976  0.6734  0.8417  1.1615
20309SOL    HW266891   8.971   8.591   6.879 -0.5309 -0.2169 -0.0630
20310SOL     OW66892   8.766  12.179  12.286  0.8012  0.1060 -0.1252
20310SOL    HW166893   8.776  12.085  12.269  1.1953  0.3803 -1.5671
20310SOL    HW266894   8.855  12.212  12.293  0.6677  0.4268  0.1090
20311SOL     OW66895   4.774  10.863   2.289  0.0431 -0.3186 -0.6728
20311SOL    HW166896   4.740  10.952   2.282 -0.1242 -0.3282 -0.0671
20311SOL    HW266897   4.819  10.861   2.374  1.6507 -0.2788 -1.4708
20312SOL     OW66898   2.109   2.460   5.247  0.1414 -0.1510  0.2442
20312SOL    HW166899   2.067   2.375   5.234 -0.6236  0.2293  0.2181
20312SOL    HW266900   2.202   2.442   5.233 -0.2813 -0.3292 -3.0624
20313SOL     OW66901   0.022   4.992   2.046 -0.8047  0.4709  0.4974
20313SOL    HW166902   0.093   5.042   2.007 -2.3030  0.4747 -2.4425
20313SOL    HW266903   0.062   4.909   2.071  0.1299  0.1754 -1.7915
20314SOL     OW66904  10.304   8.283  11.684 -0.1283  0.5667 -0.2353
20314SOL    HW166905  10.354   8.209  11.649 -1.9979 -0.3949 -1.0317
20314SOL    HW266906  10.356   8.315  11.757  1.9889  0.1248 -1.4878
20315SOL     OW66907   9.759  11.624   7.943 -0.7226  0.0064  0.5291
20315SOL    HW166908   9.820  11.551   7.947  1.9537  2.0685  0.3750
20315SOL    HW266909   9.689  11.600   8.004 -0.9548 -3.3980 -0.8769
20316SOL     OW66910   3.235   6.650   9.384 -0.3025 -0.4377 -0.0432
20316SOL    HW166911   3.312   6.693   9.420  0.0243  0.7264 -1.9512
20316SOL    HW266912   3.184   6.622   9.460  2.3704 -2.0348  1.2867
20317SOL     OW66913   0.149   5.101   8.177  0.3336 -0.4847  0.0451
20317SOL    HW166914   0.161   5.055   8.260 -1.0935  0.7657  0.9909
20317SOL    HW266915   0.085   5.049   8.129  1.4390 -1.4167 -0.4884
20318SOL     OW66916   0.795  11.156   4.719  0.1967  0.0857  0.0447
20318SOL    HW166917   0.745  11.150   4.800  0.5414 -1.1020  0.1826
20318SOL    HW266918   0.886  11.161   4.747  0.1870  2.7355 -0.1894
20319SOL     OW66919   6.659   7.859   9.507 -0.2422  0.3098 -0.0989
20319SOL    HW166920   6.668   7.777   9.556 -0.2707 -0.9028 -1.9993
20319SOL    HW266921   6.738   7.862   9.452 -0.1865  1.6340  0.0306
20320SOL     OW66922   3.099   2.525   5.114 -0.1690 -0.1556  0.0946
20320SOL    HW166923   3.022   2.495   5.161  1.1372  0.6570  3.0091
20320SOL    HW266924   3.068   2.599   5.061 -1.5394 -0.4479  0.4511
20321SOL     OW66925   6.903   7.871   6.388 -0.1731  0.1803  0.2539
20321SOL    HW166926   6.956   7.843   6.314  0.8030 -0.2475  1.0753
20321SOL    HW266927   6.959   7.934   6.434 -2.3457  3.8331 -1.6385
20322SOL     OW66928   7.711   8.915  11.662 -0.1565  0.1221  0.5237
20322SOL    HW166929   7.673   8.995  11.628  1.7435  0.4897 -0.8639
20322SOL    HW266930   7.705   8.852  11.590  0.8974 -0.1153  0.6241
20323SOL     OW66931   2.146   4.673   7.253  0.3106  0.4777 -0.1538
20323SOL    HW166932   2.167   4.662   7.160  1.2768 -0.2282  0.1317
20323SOL    HW266933   2.228   4.703   7.292  0.5822 -1.4660  0.8605
20324SOL     OW66934   1.291  12.306  10.191  0.0747  0.4241 -0.2575
20324SOL    HW166935   1.250  12.378  10.143 -0.5535  1.4927  1.7703
20324SOL    HW266936   1.385  12.320  10.179  0.0157  2.3848  1.1115
20325SOL     OW66937   3.581  10.077   9.346  0.2775  0.3257 -0.1680
20325SOL    HW166938   3.655  10.022   9.370  1.4020  0.1717 -3.4925
20325SOL    HW266939   3.512  10.015   9.323 -0.7619  0.4718  2.2070
20326SOL     OW66940   1.997  11.702  12.337 -0.4205  0.0733 -0.8722
20326SOL    HW166941   2.035  11.703  12.425  2.4558  0.1990 -1.9961
20326SOL    HW266942   1.921  11.759  12.342 -0.0849  0.3939  1.4369
20327SOL     OW66943   6.687   8.751   0.063  0.4139 -0.7153  0.2204
20327SOL    HW166944   6.754   8.784   0.003  1.6781 -0.4515  1.6987
20327SOL    HW266945   6.732   8.682   0.113 -1.0690 -2.0340 -0.2002
20328SOL     OW66946  11.481  11.128  11.594  0.4669 -0.5849 -0.2375
20328SOL    HW166947  11.479  11.222  11.613  1.7714 -0.7375  0.7746
20328SOL    HW266948  11.561  11.097  11.635  0.2227 -2.0961 -0.8463
20329SOL     OW66949  10.519   9.528  12.212 -0.1753  0.2682 -0.0745
20329SOL    HW166950  10.579   9.570  12.274 -0.8033 -0.3096  0.9356
20329SOL    HW266951  10.560   9.444  12.192 -1.3240 -0.8084  1.7973
20330SOL     OW66952   3.204   7.008   8.628  0.0972  0.4434 -0.7278
20330SOL    HW166953   3.202   6.937   8.692 -0.0169  1.7917  0.8516
20330SOL    HW266954   3.129   7.063   8.651 -0.0290  0.8878 -2.1348
20331SOL     OW66955   0.973   8.644   6.232  0.4113 -0.3514 -0.0698
20331SOL    HW166956   0.898   8.687   6.192 -0.5438  0.5018  2.4572
20331SOL    HW266957   1.036   8.635   6.161 -0.3147  2.9812 -1.3047
20332SOL     OW66958  11.926   9.459   1.171  0.1382  0.5616 -0.6050
20332SOL    HW166959  12.009   9.479   1.214  0.7340 -0.1115 -1.4086
20332SOL    HW266960  11.941   9.479   1.078 -0.4612  0.0549 -0.8234
20333SOL     OW66961   1.939   1.010   6.131  0.2803 -0.1430  0.2472
20333SOL    HW166962   1.935   0.917   6.153 -0.0991 -0.0170  0.7226
20333SOL    HW266963   1.857   1.046   6.165  1.0060  0.6188  1.2421
20334SOL     OW66964   9.264   8.515   5.890  0.2582 -0.0774  0.4099
20334SOL    HW166965   9.351   8.551   5.907 -0.5747  0.8964  3.2473
20334SOL    HW266966   9.224   8.576   5.829  0.7266  0.8949  1.0510
20335SOL     OW66967   5.802  11.392   3.370  0.0636  0.5936  0.8094
20335SOL    HW166968   5.759  11.464   3.416 -1.5446 -1.4096  2.5961
20335SOL    HW266969   5.736  11.359   3.309 -1.1523 -2.4830  3.5409
20336SOL     OW66970   7.628   9.308   2.861  0.7172 -0.0745 -0.5141
20336SOL    HW166971   7.591   9.362   2.791 -3.0503 -0.4677  0.9430
20336SOL    HW266972   7.659   9.370   2.926  0.9823  0.2957 -0.9890
20337SOL     OW66973   9.621   1.581   5.823 -0.8714  0.5730  0.6506
20337SOL    HW166974   9.530   1.607   5.810 -1.3758 -0.2778  2.2830
20337SOL    HW266975   9.641   1.605   5.913  0.3203  0.1219  0.5336
20338SOL     OW66976   9.508   3.736   0.909  0.3065  0.4792  1.1080
20338SOL    HW166977   9.521   3.831   0.909  3.9022  0.1450  1.2550
20338SOL    HW266978   9.521   3.710   1.000  1.6730 -0.3045  0.7283
20339SOL     OW66979   7.008   5.435  12.180  0.2334  0.2224  0.0329
20339SOL    HW166980   6.940   5.503  12.179 -0.4931 -0.4824 -0.9465
20339SOL    HW266981   6.959   5.354  12.190  0.8909 -0.3459 -1.2583
20340SOL     OW66982   3.140  10.066   6.236  0.3439  0.3962 -0.0226
20340SOL    HW166983   3.077  10.065   6.163  0.6805  0.8963 -0.3219
20340SOL    HW266984   3.215  10.016   6.203  0.0773 -0.2780  0.3684
20341SOL     OW66985   9.175   2.624   6.729 -0.3623 -0.3295  0.1893
20341SOL    HW166986   9.231   2.572   6.787  0.8132  0.4353 -0.2223
20341SOL    HW266987   9.194   2.715   6.753  0.8168  0.0464 -1.9649
20342SOL     OW66988  11.570   6.066   6.436 -0.1118 -0.4471  0.4546
20342SOL    HW166989  11.655   6.109   6.431 -0.2746 -0.0522  0.9497
20342SOL    HW266990  11.531   6.100   6.517 -2.3322  2.3962 -1.5806
20343SOL     OW66991  11.533   3.858   5.344  0.0458  0.1320  0.1882
20343SOL    HW166992  11.611   3.908   5.368  0.1365  0.5574 -0.9635
20343SOL    HW266993  11.468   3.924   5.321 -0.2582 -0.2522 -0.0703
20344SOL     OW66994   5.970   2.943   5.415  0.7311 -0.0809 -0.1605
20344SOL    HW166995   6.033   2.872   5.403  2.2979  1.1075  0.6125
20344SOL    HW266996   5.960   2.950   5.510  0.4660  0.6226 -0.2343
20345SOL     OW66997   4.621   0.711   9.554  0.1436  0.6920 -0.2827
20345SOL    HW166998   4.714   0.717   9.531 -0.1154  0.7445 -1.3493
20345SOL    HW266999   4.593   0.626   9.521  0.3726 -0.4458  2.2159
20346SOL     OW67000  10.500  11.454   1.440  0.2285 -0.2466  0.5214
20346SOL    HW167001  10.572  11.400   1.472  0.5144 -0.5215 -0.5628
20346SOL    HW267002  10.432  11.392   1.414  0.6042 -0.0997 -0.8404
20347SOL     OW67003   5.822   1.742   1.550  0.3380  0.3090 -0.2284
20347SOL    HW167004   5.815   1.648   1.529 -0.4689 -0.0875  1.6368
20347SOL    HW267005   5.905   1.749   1.599  0.5647  0.6326 -0.6562
20348SOL     OW67006   5.167   6.128   2.832  0.0969  0.1821 -0.1332
20348SOL    HW167007   5.199   6.039   2.823 -0.7505 -0.2855  1.1926
20348SOL    HW267008   5.078   6.126   2.797  0.7644  1.0093 -1.9833
20349SOL     OW67009   2.247   0.919   3.171 -0.1804 -0.7621  0.7701
20349SOL    HW167010   2.259   0.925   3.266 -1.0045  1.5594  0.8108
20349SOL    HW267011   2.282   1.002   3.138 -1.9595 -0.5130 -0.6734
20350SOL     OW67012   4.272   0.381   5.236  0.5933 -0.0317 -0.1675
20350SOL    HW167013   4.300   0.444   5.303 -1.2296  1.0053 -0.3182
20350SOL    HW267014   4.335   0.392   5.165  2.4558 -1.0241  1.2388
20351SOL     OW67015   7.393   6.962   1.827  0.1365  0.0419  0.1898
20351SOL    HW167016   7.331   6.892   1.848  0.4781 -0.4724 -0.4841
20351SOL    HW267017   7.477   6.917   1.819 -0.1497 -0.1120 -3.6692
20352SOL     OW67018   0.450   1.355   7.051 -0.5409 -0.0446  0.2974
20352SOL    HW167019   0.413   1.295   6.987  2.7684 -0.7122 -1.1647
20352SOL    HW267020   0.415   1.441   7.026  0.5429 -0.3012 -2.4017
20353SOL     OW67021   9.375   1.478  10.865 -0.5050  0.3513 -0.0319
20353SOL    HW167022   9.447   1.458  10.925 -0.3000 -0.3446 -0.4935
20353SOL    HW267023   9.417   1.520  10.790 -0.6821  0.6594  0.0392
20354SOL     OW67024   9.181   5.927   6.757  0.8953  0.3241  0.2813
20354SOL    HW167025   9.123   5.852   6.748 -0.5610  1.4720 -0.3063
20354SOL    HW267026   9.123   6.001   6.771  2.0868  1.7932 -1.8968
20355SOL     OW67027   2.393   1.427   2.489 -0.1449  0.1765 -0.0930
20355SOL    HW167028   2.348   1.471   2.418 -0.5726 -0.3362 -0.1499
20355SOL    HW267029   2.383   1.485   2.565 -2.5017 -0.7220  0.3757
20356SOL     OW67030   2.401   2.852   6.440  0.7937 -0.2381 -0.2478
20356SOL    HW167031   2.418   2.942   6.412  3.2731 -0.6138 -0.1508
20356SOL    HW267032   2.451   2.842   6.521  0.5416 -1.6857 -0.2534
20357SOL     OW67033   2.850  11.571   8.586  0.0906 -0.1516  0.2681
20357SOL    HW167034   2.910  11.497   8.577 -0.7944 -1.0277  1.4000
20357SOL    HW267035   2.765  11.537   8.559 -0.3779  0.3810  1.0327
20358SOL     OW67036   3.164  11.171  11.665 -0.5732 -0.7402 -0.2144
20358SOL    HW167037   3.091  11.205  11.716  0.0437 -0.8732  0.7909
20358SOL    HW267038   3.153  11.076  11.668 -0.6923 -0.7400 -0.5835
20359SOL     OW67039   4.396  12.191   5.082 -0.4194 -0.1230 -0.4346
20359SOL    HW167040   4.440  12.231   5.157 -1.6832  0.5133 -0.0090
20359SOL    HW267041   4.420  12.247   5.008 -0.6110  0.3007 -0.1815
20360SOL     OW67042   4.678   3.096   0.961 -0.0129 -0.1328 -0.4434
20360SOL    HW167043   4.615   3.157   1.000 -0.2817  0.4730 -1.7846
20360SOL    HW267044   4.634   3.011   0.964 -1.5450  0.5008 -2.6251
20361SOL     OW67045   3.587   3.459   1.347  0.0219 -0.1552 -0.0857
20361SOL    HW167046   3.596   3.554   1.354 -0.5333 -0.2060  1.8362
20361SOL    HW267047   3.633   3.425   1.423 -0.5909 -1.3808 -0.2374
20362SOL     OW67048   2.913   1.012   4.035  0.1477  0.2063 -0.5602
20362SOL    HW167049   2.961   1.055   4.106 -0.5759  0.9550 -0.4995
20362SOL    HW267050   2.961   0.931   4.019 -0.0202 -0.2996  1.2273
20363SOL     OW67051   6.183   4.760   7.972 -0.4066  1.1293  0.0716
20363SOL    HW167052   6.258   4.801   7.930 -0.6568  0.7774 -0.7481
20363SOL    HW267053   6.174   4.675   7.928 -1.2207  1.1222  0.2215
20364SOL     OW67054   6.816   8.976   6.570  0.5740  0.2967  0.4670
20364SOL    HW167055   6.811   8.987   6.475 -2.8805 -0.6615  0.3857
20364SOL    HW267056   6.866   8.895   6.582 -1.6758 -1.4259 -0.8562
20365SOL     OW67057   0.481   3.784   5.897  0.2152  0.1839 -0.0317
20365SOL    HW167058   0.463   3.877   5.883 -1.0283 -0.4068 -3.5046
20365SOL    HW267059   0.576   3.776   5.884  0.2103  0.8765 -0.5675
20366SOL     OW67060   1.239   2.428  11.332  0.9428 -0.6902 -0.0573
20366SOL    HW167061   1.226   2.478  11.413  0.2536 -2.3516  0.9019
20366SOL    HW267062   1.329   2.448  11.306  0.4671  1.6590 -0.1856
20367SOL     OW67063   2.607   7.486   8.865  0.0557 -0.0318 -0.2835
20367SOL    HW167064   2.639   7.428   8.795  0.2082 -0.0316 -0.2146
20367SOL    HW267065   2.512   7.485   8.855  0.1107  0.5197 -0.9315
20368SOL     OW67066   6.926   7.240   7.414  0.2261  0.0902  0.5274
20368SOL    HW167067   6.891   7.258   7.502  0.2061 -0.0521  0.5493
20368SOL    HW267068   6.946   7.146   7.416  1.6517  0.3783  0.8902
20369SOL     OW67069   3.853   1.079  11.980  0.1037 -0.3063 -0.4995
20369SOL    HW167070   3.916   1.022  12.024 -1.3406 -1.3262  0.3665
20369SOL    HW267071   3.863   1.059  11.887  1.4102 -0.0449 -0.4269
20370SOL     OW67072   1.201   9.740  12.432 -0.1233 -0.2272 -0.4243
20370SOL    HW167073   1.173   9.657  12.471 -3.2482 -0.1291 -2.1679
20370SOL    HW267074   1.202   9.723  12.338  0.8252  1.2772 -0.7186
20371SOL     OW67075  12.352   9.851   4.735 -0.1644 -0.3793  0.3053
20371SOL    HW167076  12.332   9.771   4.685  0.7939  0.5538 -1.6933
20371SOL    HW267077  12.330   9.922   4.675  0.7139  0.8252  1.3735
20372SOL     OW67078   5.061   3.828   0.143 -0.1743  0.0492 -0.2251
20372SOL    HW167079   5.030   3.776   0.217 -0.8786 -0.5504 -0.9296
20372SOL    HW267080   5.152   3.848   0.165 -0.6066  0.6028  1.1905
20373SOL     OW67081   7.173   8.698  11.532  0.3091 -0.6380  0.3633
20373SOL    HW167082   7.104   8.633  11.515 -0.5683 -0.4443  2.7551
20373SOL    HW267083   7.253   8.646  11.541  0.2181 -1.0283 -0.9612
20374SOL     OW67084   5.567   4.463   4.334  0.3949 -0.9584  0.3261
20374SOL    HW167085   5.571   4.399   4.405 -1.3805 -0.0611  1.2935
20374SOL    HW267086   5.487   4.512   4.350  1.8547  1.7863 -0.1703
20375SOL     OW67087   2.397   5.052   5.642  0.0655 -0.0312  0.3767
20375SOL    HW167088   2.452   4.977   5.620  0.0379  0.0839 -0.1122
20375SOL    HW267089   2.431   5.123   5.588 -2.7690 -0.8083 -2.7821
20376SOL     OW67090   7.717   0.804  10.901  0.7623  0.2868 -0.1346
20376SOL    HW167091   7.712   0.893  10.935  0.1363  0.1925  0.0412
20376SOL    HW267092   7.681   0.811  10.812 -0.7076 -0.0391  0.4040
20377SOL     OW67093   9.698   8.472   4.737 -0.5914  0.2274 -0.3380
20377SOL    HW167094   9.668   8.394   4.691  0.6443  0.5334 -1.7340
20377SOL    HW267095   9.710   8.443   4.828  0.3826 -1.3764 -0.9331
20378SOL     OW67096   8.129   5.365  11.048  0.3290 -0.0951  0.1986
20378SOL    HW167097   8.074   5.442  11.032  1.0114  0.3301 -0.1422
20378SOL    HW267098   8.218   5.395  11.029  0.4836 -1.2879 -1.1406
20379SOL     OW67099   4.157   8.945   5.211 -0.5474 -0.2174 -0.3874
20379SOL    HW167100   4.231   8.965   5.154 -0.1984 -2.9644 -1.0270
20379SOL    HW267101   4.196   8.902   5.287 -1.3433  0.0158  0.1704
20380SOL     OW67102   0.649   9.973   0.945 -0.1012 -0.1730  0.1279
20380SOL    HW167103   0.710   9.909   0.982 -0.8018 -0.6618  0.4520
20380SOL    HW267104   0.668  10.055   0.990  1.2015  0.0089 -0.7001
20381SOL     OW67105  12.478   0.823   0.503  0.1079 -0.4293 -0.1642
20381SOL    HW167106  12.494   0.778   0.585 -1.0410 -0.2978  0.1452
20381SOL    HW267107  12.385   0.845   0.505  0.3130  0.6099 -0.9748
20382SOL     OW67108   3.240   2.598   1.918 -0.4868  0.2831  0.2440
20382SOL    HW167109   3.280   2.591   1.831  0.9449  0.8656  0.8171
20382SOL    HW267110   3.159   2.548   1.912 -0.6397  0.7006 -1.5562
20383SOL     OW67111  12.289   0.030   1.345 -0.1352  0.3133 -0.5350
20383SOL    HW167112  12.267  -0.010   1.262 -1.6294  0.1382 -0.0915
20383SOL    HW267113  12.328  -0.040   1.397 -0.1184  0.1666 -0.7473
20384SOL     OW67114   6.498   7.187  10.310  0.0943 -0.5986 -0.0157
20384SOL    HW167115   6.507   7.092  10.304 -0.4552 -0.6265 -0.5397
20384SOL    HW267116   6.515   7.207  10.402  0.8763 -1.1220 -0.0364
20385SOL     OW67117   5.298   2.626   9.833  0.5564  0.0377 -0.0601
20385SOL    HW167118   5.387   2.596   9.854 -0.0883 -1.5408  0.5383
20385SOL    HW267119   5.252   2.626   9.917 -0.3204 -0.2602 -0.5261
20386SOL     OW67120   5.920   3.386  11.816 -0.7728 -0.4286  0.2842
20386SOL    HW167121   5.856   3.457  11.812 -1.6822 -1.0911  1.9793
20386SOL    HW267122   5.903   3.334  11.737  0.0430  1.2728 -1.0926
20387SOL     OW67123   1.051   8.068   3.028 -0.2925  0.0383  0.6614
20387SOL    HW167124   1.016   7.998   2.974 -0.0288 -0.6291  1.3317
20387SOL    HW267125   0.977   8.096   3.082 -0.6211  0.8777 -0.2083
20388SOL     OW67126   0.041   4.330  10.751 -0.3197  0.1129 -0.0012
20388SOL    HW167127   0.112   4.328  10.815 -0.2185 -0.8665 -0.1360
20388SOL    HW267128   0.068   4.268  10.683 -1.3382 -0.3444 -0.0036
20389SOL     OW67129   0.791   2.273   9.746 -0.1821 -0.0163  0.1294
20389SOL    HW167130   0.816   2.251   9.836 -1.5841 -2.4461 -0.0073
20389SOL    HW267131   0.762   2.364   9.752 -0.7375 -0.2673  2.2556
20390SOL     OW67132   9.652   8.546   9.988  0.7390  0.5463 -0.1895
20390SOL    HW167133   9.560   8.563  10.010  0.2624 -0.8266 -1.0510
20390SOL    HW267134   9.690   8.634   9.979 -0.0874  1.1490  1.6918
20391SOL     OW67135   0.999   6.357   8.796  0.3136 -0.3403  0.2525
20391SOL    HW167136   1.058   6.395   8.731  0.7659 -1.2021  0.1356
20391SOL    HW267137   0.977   6.271   8.760  0.8948 -1.0033  1.4137
20392SOL     OW67138   8.860  12.064   2.436  0.2411 -0.2537  0.2547
20392SOL    HW167139   8.777  12.035   2.473 -0.0795  0.7853  0.3663
20392SOL    HW267140   8.847  12.058   2.341 -0.0521  0.1509  0.2672
20393SOL     OW67141   4.936  12.034   1.430 -0.3866 -0.4493 -0.1241
20393SOL    HW167142   4.944  11.967   1.362 -0.8597  2.1628 -2.9888
20393SOL    HW267143   5.026  12.062   1.447 -0.3163 -0.5146 -0.3774
20394SOL     OW67144   3.704   7.725  11.595 -0.0226 -0.1481  0.3728
20394SOL    HW167145   3.737   7.674  11.669 -0.4959 -1.0507 -0.0169
20394SOL    HW267146   3.750   7.688  11.519 -1.3537 -0.9466 -0.0897
20395SOL     OW67147   5.329   4.172   2.865  0.1444  0.5325 -0.2302
20395SOL    HW167148   5.401   4.210   2.916  0.1239  0.8525 -0.4375
20395SOL    HW267149   5.313   4.087   2.906  0.2720  0.6965  0.1608
20396SOL     OW67150   0.138   3.476   7.968  0.0483 -0.4676  0.1782
20396SOL    HW167151   0.141   3.561   8.013 -1.3648  0.5444 -1.5165
20396SOL    HW267152   0.190   3.418   8.024  1.1985  1.5263  1.3058
20397SOL     OW67153  10.219   4.596  11.177 -0.6807  0.4056 -0.1464
20397SOL    HW167154  10.278   4.649  11.232  1.9518  0.2062 -2.5348
20397SOL    HW267155  10.163   4.550  11.239  1.2064  1.1757  2.2931
20398SOL     OW67156   0.425   5.770   5.018  0.3990 -0.7098 -0.1911
20398SOL    HW167157   0.486   5.828   5.064 -1.8844  0.9401  0.9817
20398SOL    HW267158   0.424   5.690   5.071  0.5051 -0.2072  0.5917
20399SOL     OW67159   8.823   4.814   9.048  0.6905 -0.3333  0.2879
20399SOL    HW167160   8.902   4.801   8.995 -0.2013 -1.7358 -0.7634
20399SOL    HW267161   8.808   4.729   9.090 -1.2571 -0.7055 -1.0083
20400SOL     OW67162   8.297   5.356   1.973 -0.4156  0.0486 -0.1234
20400SOL    HW167163   8.215   5.397   1.997  0.6028  2.3843 -0.3265
20400SOL    HW267164   8.355   5.370   2.048  1.3080  3.1353 -1.8092
20401SOL     OW67165  10.477  11.874   1.804  0.8837  0.2843  0.1315
20401SOL    HW167166  10.437  11.934   1.867 -0.3261  0.1885 -0.5090
20401SOL    HW267167  10.566  11.906   1.793  0.3793  1.7446  0.0737
20402SOL     OW67168   0.033   4.502  11.845 -0.1608 -0.5765  0.0478
20402SOL    HW167169   0.117   4.533  11.878 -0.4663 -0.5775  0.8406
20402SOL    HW267170   0.037   4.407  11.854 -0.4174 -0.5474  0.5201
20403SOL     OW67171   0.422   9.419   4.852  0.4501 -0.4876  0.1301
20403SOL    HW167172   0.366   9.487   4.890  0.3206 -0.5000 -0.0346
20403SOL    HW267173   0.501   9.420   4.906  0.4926 -0.1324  0.0675
20404SOL     OW67174   2.889   2.271   0.885 -0.1515  0.2780 -0.1563
20404SOL    HW167175   2.839   2.290   0.806 -0.8850 -0.0960  0.2104
20404SOL    HW267176   2.975   2.310   0.868 -0.8222  1.7138 -0.4299
20405SOL     OW67177   2.347   0.271   3.183  0.1216  0.6412  0.2269
20405SOL    HW167178   2.364   0.205   3.250 -0.8769  1.2699  1.1299
20405SOL    HW267179   2.429   0.277   3.135  0.7569 -0.0709  1.1757
20406SOL     OW67180   6.001   7.350   2.738 -0.1501 -0.1227  0.0418
20406SOL    HW167181   5.916   7.361   2.780 -1.6128 -1.6485 -2.3000
20406SOL    HW267182   6.019   7.436   2.700 -0.9978  0.0272 -0.0483
20407SOL     OW67183   9.466   4.448   9.134  0.3451  0.3146 -0.2925
20407SOL    HW167184   9.391   4.503   9.155  2.2058  2.2283  2.0280
20407SOL    HW267185   9.524   4.504   9.083  0.7676 -0.7166 -0.9918
20408SOL     OW67186   2.876   0.896   9.740  0.2986 -0.2298 -1.0934
20408SOL    HW167187   2.840   0.862   9.822  1.3492  0.5215 -0.2944
20408SOL    HW267188   2.828   0.977   9.725  0.7698  0.1397 -0.6758
20409SOL     OW67189  12.230  11.048   7.194 -0.2322  0.0782  0.2945
20409SOL    HW167190  12.203  10.966   7.153 -0.0220 -1.1302  2.4631
20409SOL    HW267191  12.199  11.116   7.133 -1.4136 -1.5340 -1.0042
20410SOL     OW67192  11.629  10.500  10.185 -0.1246 -0.1495  0.2775
20410SOL    HW167193  11.672  10.469  10.105  0.3998 -3.1574  1.5931
20410SOL    HW267194  11.615  10.421  10.237 -0.8445  1.6289  2.9967
20411SOL     OW67195   3.951   7.589   4.499 -0.2871 -0.3865  0.1080
20411SOL    HW167196   3.874   7.533   4.495 -2.0051  1.8070  0.4594
20411SOL    HW267197   3.961   7.621   4.409  0.5007 -0.9618 -0.0238
20412SOL     OW67198   1.620   2.442   5.494 -0.4262 -0.1106  0.3362
20412SOL    HW167199   1.604   2.520   5.441 -1.7357  0.0789  0.9683
20412SOL    HW267200   1.622   2.370   5.431  0.3374  0.3637 -0.2000
20413SOL     OW67201  12.055  12.161   4.635  0.3195  0.2219 -0.4830
20413SOL    HW167202  12.147  12.142   4.654 -0.1315 -1.0261  0.5816
20413SOL    HW267203  12.013  12.076   4.627 -1.2074  0.7014  1.5310
20414SOL     OW67204   8.819   3.372   9.623  0.0099 -1.2527  0.1066
20414SOL    HW167205   8.890   3.398   9.564  0.5308  1.3844  1.6980
20414SOL    HW267206   8.862   3.359   9.708 -1.4140  2.1204  1.5452
20415SOL     OW67207   1.080   7.455  12.013  0.1896  0.7379  0.2309
20415SOL    HW167208   1.055   7.365  11.993  1.4590  0.9276 -2.7656
20415SOL    HW267209   1.175   7.456  12.003  0.0118  2.8742 -2.2672
20416SOL     OW67210   4.149   1.225   1.123  0.4978 -0.3179 -0.2807
20416SOL    HW167211   4.140   1.280   1.202 -0.2375 -0.5206 -0.2168
20416SOL    HW267212   4.059   1.205   1.098  0.7372 -0.4069 -1.0730
20417SOL     OW67213  11.600   3.990   2.398 -0.1909  0.3175  0.5111
20417SOL    HW167214  11.607   3.931   2.323  1.2283  0.9107  0.1440
20417SOL    HW267215  11.580   3.933   2.472  0.8145 -0.5952  0.1017
20418SOL     OW67216  11.190   9.130  10.076  0.1603 -0.2493 -0.2898
20418SOL    HW167217  11.097   9.120  10.056  0.0656 -0.7084  0.3634
20418SOL    HW267218  11.197   9.111  10.169  0.9145 -0.2263 -0.3336
20419SOL     OW67219   9.638  10.212   7.546  0.5325 -0.1208 -0.2030
20419SOL    HW167220   9.668  10.133   7.501  0.8189 -0.0657 -0.1133
20419SOL    HW267221   9.627  10.277   7.476  1.3833  0.0905 -0.1605
20420SOL     OW67222   7.234   6.356   7.206 -0.0364 -0.8952  0.5199
20420SOL    HW167223   7.236   6.266   7.239  0.9189 -0.6178  1.2715
20420SOL    HW267224   7.310   6.398   7.246 -0.5987  0.3189  0.3633
20421SOL     OW67225  10.204   1.570   1.273  0.1867 -0.5684  0.5636
20421SOL    HW167226  10.282   1.516   1.258 -0.4299 -1.4937  0.6088
20421SOL    HW267227  10.227   1.656   1.237  0.6937 -1.2363 -0.7733
20422SOL     OW67228  10.652   3.599  11.192 -0.9827  0.2101  0.8054
20422SOL    HW167229  10.734   3.555  11.171 -1.3300  0.2137 -0.6087
20422SOL    HW267230  10.586   3.530  11.188 -1.3016  0.5478  0.1481
20423SOL     OW67231   5.744   4.557   8.542 -0.6244 -0.5021 -0.2028
20423SOL    HW167232   5.827   4.601   8.521 -0.8646 -0.0930 -0.3155
20423SOL    HW267233   5.727   4.501   8.466 -0.8656  0.0430 -0.5637
20424SOL     OW67234   1.413   8.403  11.050  0.3527 -0.3892  0.4692
20424SOL    HW167235   1.462   8.461  11.108  2.4779  0.2041 -1.7371
20424SOL    HW267236   1.375   8.460  10.984 -1.3833 -1.1120  0.7880
20425SOL     OW67237   5.800   4.593   6.004 -0.2531  0.0431 -0.0838
20425SOL    HW167238   5.880   4.552   6.038 -0.0528  1.1513  0.8653
20425SOL    HW267239   5.729   4.547   6.048 -0.1462 -0.8467 -0.8173
20426SOL     OW67240   8.030   5.124   1.915 -0.0123  0.3608  0.3371
20426SOL    HW167241   8.106   5.089   1.960 -0.7342 -0.3457  1.0462
20426SOL    HW267242   7.965   5.138   1.984 -0.5551  0.8739 -0.2609
20427SOL     OW67243  12.318   6.011   7.969 -0.4499 -0.3933  1.2365
20427SOL    HW167244  12.332   6.064   7.891 -0.1434 -0.3367  1.3324
20427SOL    HW267245  12.250   6.058   8.018  0.6136  0.5039  1.8777
20428SOL     OW67246   9.674   9.465   0.116 -0.2924 -0.8836  0.2829
20428SOL    HW167247   9.646   9.456   0.024  0.3590  0.1448 -0.0414
20428SOL    HW267248   9.760   9.425   0.119  0.1055 -0.0535  0.2037
20429SOL     OW67249   0.404  11.449   5.701  0.0734  0.1498  0.5093
20429SOL    HW167250   0.322  11.453   5.653  0.0280 -1.8492  0.3059
20429SOL    HW267251   0.417  11.355   5.718  1.7865  0.5072  1.4438
20430SOL     OW67252   2.885   0.026   1.520 -0.0424  0.4823 -0.2309
20430SOL    HW167253   2.841   0.080   1.585  0.0121  1.3740 -0.9227
20430SOL    HW267254   2.827   0.029   1.443  0.7138  0.8208 -0.7960
20431SOL     OW67255   1.563   0.663  10.138  0.3760  0.4227 -0.1225
20431SOL    HW167256   1.531   0.598  10.201 -0.4131 -1.0992 -1.9915
20431SOL    HW267257   1.518   0.744  10.162 -1.5683 -0.6291  0.0123
20432SOL     OW67258   2.087   0.503   8.974  0.4468  0.0181  0.0196
20432SOL    HW167259   2.045   0.453   9.045  3.3412  1.0151  2.6274
20432SOL    HW267260   2.151   0.443   8.937  2.9901  1.1224  2.2723
20433SOL     OW67261  10.718   1.525   6.485 -0.0590  0.7543 -0.2642
20433SOL    HW167262  10.645   1.487   6.535 -0.2583  0.5493 -0.6967
20433SOL    HW267263  10.680   1.545   6.400  0.9403 -1.5770 -1.3350
20434SOL     OW67264  12.019   1.736   2.100  0.3320 -0.0396 -0.3216
20434SOL    HW167265  11.938   1.787   2.098 -0.0555 -0.6358 -0.3716
20434SOL    HW267266  11.992   1.649   2.071  0.9010 -0.3741  0.1279
20435SOL     OW67267   3.046   1.597   4.234 -0.4964  0.5173 -0.3398
20435SOL    HW167268   2.989   1.591   4.311 -1.5344  0.3457 -1.1046
20435SOL    HW267269   3.046   1.689   4.210  1.2120  0.8779  0.8548
20436SOL     OW67270   7.016   3.981   3.880 -0.1339 -0.1061  0.2914
20436SOL    HW167271   6.948   4.031   3.836 -0.5629 -1.3695 -0.5291
20436SOL    HW267272   7.073   4.047   3.919 -0.5069  1.0272 -1.0032
20437SOL     OW67273   8.130   1.171   7.590 -0.1916  0.0438  0.1381
20437SOL    HW167274   8.096   1.115   7.660 -1.9599  0.5405 -0.2807
20437SOL    HW267275   8.225   1.160   7.595 -0.3568 -1.0204  1.6950
20438SOL     OW67276   6.275   8.283   9.182  0.3169 -0.3627  0.6358
20438SOL    HW167277   6.212   8.210   9.181 -0.1716  0.0643  0.2007
20438SOL    HW267278   6.353   8.247   9.139 -0.1167 -0.4603 -0.0829
20439SOL     OW67279   7.214   1.205   0.648 -0.2609 -0.8921 -0.3903
20439SOL    HW167280   7.249   1.262   0.579 -0.2889  0.3831  0.6233
20439SOL    HW267281   7.136   1.166   0.608 -2.1634  2.2595 -0.1460
20440SOL     OW67282  12.232   7.694   0.733 -0.0582  0.1800 -0.2578
20440SOL    HW167283  12.188   7.746   0.666  0.9058  0.0919 -0.9662
20440SOL    HW267284  12.324   7.719   0.727  0.1831 -0.5036  0.4120
20441SOL     OW67285   0.502   9.124   2.726  0.7629 -0.7353 -0.0453
20441SOL    HW167286   0.461   9.134   2.640 -0.1652 -1.5866  0.2774
20441SOL    HW267287   0.587   9.166   2.717  0.6907 -0.8314 -1.3917
20442SOL     OW67288   4.949   1.163   7.008 -0.1797 -0.2692  0.2230
20442SOL    HW167289   4.964   1.069   7.023  0.6970 -0.2417 -0.4157
20442SOL    HW267290   4.953   1.202   7.095 -1.3831 -0.9224  0.5982
20443SOL     OW67291   8.294   3.097   3.936 -0.0925 -0.0326  0.2088
20443SOL    HW167292   8.384   3.069   3.922  0.5719  2.6342 -1.5616
20443SOL    HW267293   8.298   3.154   4.013 -0.8828 -2.0470  1.8698
20444SOL     OW67294  11.777   5.546   6.950 -0.0326 -0.4437 -0.2916
20444SOL    HW167295  11.793   5.603   7.025  1.0034 -0.6753 -0.3164
20444SOL    HW267296  11.682   5.545   6.940 -0.1839 -0.3133  0.9426
20445SOL     OW67297   9.829  12.243   0.708 -0.0060  0.0179  0.1289
20445SOL    HW167298   9.734  12.257   0.708 -0.2922 -1.6143  1.1926
20445SOL    HW267299   9.860  12.290   0.786 -0.0158  0.1365  0.0611
20446SOL     OW67300   5.190   8.597   6.653  0.1725  0.3773  0.3607
20446SOL    HW167301   5.258   8.658   6.682 -2.0533  3.6778 -0.8111
20446SOL    HW267302   5.199   8.593   6.558 -0.2228 -0.5524  0.3413
20447SOL     OW67303   6.589   9.356  10.033  0.2036 -0.0657 -0.1034
20447SOL    HW167304   6.522   9.329   9.970  0.6271 -2.0587  0.2265
20447SOL    HW267305   6.550   9.430  10.080 -0.8212  0.2944 -1.4688
20448SOL     OW67306  10.843   1.797   6.295 -0.1303 -0.1287 -0.4849
20448SOL    HW167307  10.780   1.726   6.301  1.4613 -1.5407  0.3952
20448SOL    HW267308  10.839   1.826   6.204 -1.2901 -0.8874 -0.6811
20449SOL     OW67309   1.776  12.240   8.326 -0.1633  0.2651 -0.1288
20449SOL    HW167310   1.860  12.282   8.306 -0.3515  1.4734  1.4450
20449SOL    HW267311   1.777  12.229   8.421 -2.0496  0.8992  0.0023
20450SOL     OW67312   9.134   0.074   2.280  0.3171  0.1404 -0.0936
20450SOL    HW167313   9.136   0.169   2.295  2.8375  0.3762 -1.4310
20450SOL    HW267314   9.203   0.039   2.336  0.1521 -0.7791 -0.4418
20451SOL     OW67315   9.718  10.519   3.972 -0.5389  0.4482 -0.0994
20451SOL    HW167316   9.749  10.437   3.933 -0.0625 -0.1816  1.5156
20451SOL    HW267317   9.622  10.510   3.972 -0.4632 -1.0844  1.9260
20452SOL     OW67318   2.746   6.398   0.734  0.2988 -0.1407  0.3100
20452SOL    HW167319   2.746   6.421   0.641 -3.5777  0.6918  0.3232
20452SOL    HW267320   2.794   6.470   0.777  1.6980 -0.2842 -0.9574
20453SOL     OW67321   9.427   7.245  10.662 -0.1854  0.0095 -0.2149
20453SOL    HW167322   9.452   7.310  10.727  2.4231 -0.8333 -0.2588
20453SOL    HW267323   9.389   7.297  10.590 -0.6904  1.1820  0.8543
20454SOL     OW67324  12.033  12.237   3.348 -1.0227  0.6631  0.1740
20454SOL    HW167325  11.938  12.249   3.350 -0.9648  1.6866 -1.5734
20454SOL    HW267326  12.058  12.254   3.258  0.6598 -1.1682  0.2359
20455SOL     OW67327   3.432   3.999   0.212  0.7153  0.1207 -0.0457
20455SOL    HW167328   3.425   4.053   0.291  1.8005  0.0471  0.1234
20455SOL    HW267329   3.402   4.055   0.141 -0.0995  0.2483  0.3898
20456SOL     OW67330  12.412  12.112   9.683  0.3042  0.2296 -0.5437
20456SOL    HW167331  12.393  12.032   9.634 -1.2214  1.7301 -2.6123
20456SOL    HW267332  12.507  12.113   9.694  0.2543 -2.4143  0.6174
20457SOL     OW67333   6.702   2.841   5.446  0.4070 -0.1863  0.2331
20457SOL    HW167334   6.634   2.892   5.402 -0.5009 -0.7200  0.9812
20457SOL    HW267335   6.708   2.761   5.395 -2.4560 -1.9565  2.3571
20458SOL     OW67336  11.807   6.248   6.434 -0.1749 -0.3318  0.5770
20458SOL    HW167337  11.870   6.246   6.507  0.4513 -0.0717  0.0542
20458SOL    HW267338  11.837   6.177   6.376 -0.8608 -0.7465  0.7221
20459SOL     OW67339  11.120  10.340   3.606 -0.0517 -0.1729 -0.0695
20459SOL    HW167340  11.134  10.378   3.693 -2.5694 -0.4953  0.5420
20459SOL    HW267341  11.028  10.357   3.587  0.3156 -0.5562 -2.4903
20460SOL     OW67342  11.421   3.447   4.728 -0.2623 -0.0024  0.2788
20460SOL    HW167343  11.336   3.423   4.765 -0.8110  0.9695 -0.3271
20460SOL    HW267344  11.440   3.376   4.667 -2.0074  1.1297 -1.6996
20461SOL     OW67345  10.740   3.875   1.548  0.6892  0.3776 -0.4078
20461SOL    HW167346  10.764   3.943   1.612 -0.9569  0.1319  0.5333
20461SOL    HW267347  10.662   3.834   1.585  0.0591 -0.2250 -2.2769
20462SOL     OW67348   8.572   5.385  10.839 -0.0169  0.2217  0.4736
20462SOL    HW167349   8.577   5.290  10.848 -0.7619  0.1547  0.1883
20462SOL    HW267350   8.657   5.409  10.802 -0.6815 -0.6164 -1.7574
20463SOL     OW67351   1.742  11.282   0.208  0.0623  0.2049  0.5798
20463SOL    HW167352   1.782  11.209   0.162 -0.0109  0.4296  0.1555
20463SOL    HW267353   1.775  11.275   0.298  0.7318  0.1415  0.3359
20464SOL     OW67354   7.155  10.320   4.704  0.1246  0.4023  0.3535
20464SOL    HW167355   7.107  10.388   4.752 -0.5823 -0.3357  0.7171
20464SOL    HW267356   7.192  10.264   4.772 -1.5170 -1.0896  0.0826
20465SOL     OW67357  11.141   8.873   4.625 -0.7092 -0.2897 -0.1280
20465SOL    HW167358  11.060   8.822   4.626 -0.7802 -0.2174 -1.1087
20465SOL    HW267359  11.200   8.823   4.568 -0.5460  0.3711 -0.5509
20466SOL     OW67360   4.082   7.965   0.170 -0.1766  0.4004 -0.2598
20466SOL    HW167361   4.040   8.050   0.162 -1.1065  0.0263  0.4442
20466SOL    HW267362   4.036   7.922   0.242  0.2403 -0.7204 -0.6351
20467SOL     OW67363   5.216   3.336  10.576 -0.4021 -0.1913 -0.5319
20467SOL    HW167364   5.291   3.377  10.532 -0.3188 -0.8285 -1.0092
20467SOL    HW267365   5.148   3.333  10.509 -0.6284 -0.2246 -0.3005
20468SOL     OW67366   5.445   0.437   1.757  0.5293 -0.1635  0.2880
20468SOL    HW167367   5.421   0.433   1.665 -0.8959 -0.1306  0.6303
20468SOL    HW267368   5.467   0.347   1.780 -0.0535 -0.3466  0.1435
20469SOL     OW67369   3.226   8.862   3.892 -0.3044  0.8014  0.4413
20469SOL    HW167370   3.164   8.817   3.949  0.2085 -0.9331 -0.2943
20469SOL    HW267371   3.302   8.881   3.948  0.1905 -0.8732  0.3942
20470SOL     OW67372   2.248   2.221  11.320 -0.2457 -0.9888  0.5471
20470SOL    HW167373   2.236   2.309  11.356  1.0762 -0.2772 -0.6256
20470SOL    HW267374   2.221   2.162  11.390  1.0328  0.3291  2.2418
20471SOL     OW67375   4.978   2.948   9.031  0.2735 -0.1765  0.1395
20471SOL    HW167376   4.974   2.981   8.941 -0.7580 -0.2936  0.1279
20471SOL    HW267377   4.949   3.022   9.084 -0.2090 -0.4583  0.2737
20472SOL     OW67378   9.231   5.515   7.769 -0.3039  0.3145 -0.3820
20472SOL    HW167379   9.277   5.478   7.693 -1.8084 -0.6367 -0.8835
20472SOL    HW267380   9.142   5.529   7.738 -0.5027  1.6165  0.7072
20473SOL     OW67381   1.125   3.515   9.196 -0.4259  0.1576 -0.5180
20473SOL    HW167382   1.123   3.492   9.103  0.1628 -0.6389 -0.3493
20473SOL    HW267383   1.135   3.610   9.197 -0.1643  0.1463 -1.2784
20474SOL     OW67384   4.882   9.812   8.135  0.5037  0.3286  0.0637
20474SOL    HW167385   4.871   9.756   8.058  1.6905 -0.6906  0.6048
20474SOL    HW267386   4.793   9.829   8.166  0.1097 -1.3954 -0.0381
20475SOL     OW67387  10.690   9.495   2.969  0.0684  0.6584 -0.2627
20475SOL    HW167388  10.615   9.537   3.010  0.4214  0.9095  0.1306
20475SOL    HW267389  10.756   9.564   2.964  0.4043  0.3388 -0.2604
20476SOL     OW67390   0.752   8.040  10.446 -0.2559 -0.2229 -0.0436
20476SOL    HW167391   0.783   7.972  10.505  0.5536  0.5119  0.3938
20476SOL    HW267392   0.720   8.110  10.504 -0.8129 -0.1094 -0.4796
20477SOL     OW67393   3.330   8.572  11.035  0.3273  0.0354  0.1858
20477SOL    HW167394   3.242   8.570  10.997 -0.0938  0.2627  1.1112
20477SOL    HW267395   3.315   8.586  11.129  1.4171  1.6025  0.1520
20478SOL     OW67396   3.771   9.085   2.503  0.3840  0.4986 -0.4294
20478SOL    HW167397   3.814   9.149   2.447 -1.5087  1.5268 -0.7883
20478SOL    HW267398   3.687   9.125   2.526  0.1044 -0.9052  1.2190
20479SOL     OW67399   0.659   0.017   1.249 -0.2066 -0.0897  0.1476
20479SOL    HW167400   0.682   0.036   1.340 -0.2312 -0.9449  0.3427
20479SOL    HW267401   0.630  -0.074   1.251  0.3286 -0.2900 -0.8158
20480SOL     OW67402  11.892   8.057   3.321  0.0708 -0.5326  0.3397
20480SOL    HW167403  11.887   7.984   3.383  0.5944 -1.4169 -0.6092
20480SOL    HW267404  11.969   8.106   3.348  0.2126 -0.8271  0.4782
20481SOL     OW67405   0.765   3.356  10.355 -0.1973  0.0911  0.2162
20481SOL    HW167406   0.841   3.413  10.336  0.4078  0.1372  2.4684
20481SOL    HW267407   0.789   3.272  10.318 -0.8249  1.0651 -2.6121
20482SOL     OW67408   9.799   0.776   8.061 -0.0964  0.1914  0.0106
20482SOL    HW167409   9.732   0.717   8.095  0.4398 -1.1491 -1.1607
20482SOL    HW267410   9.804   0.846   8.126 -0.4947 -1.2243  1.6491
20483SOL     OW67411   6.875   8.035   3.479 -0.2144 -0.0025 -0.3604
20483SOL    HW167412   6.860   8.025   3.385  1.0361 -0.8290 -0.4995
20483SOL    HW267413   6.910   7.950   3.507 -2.9848 -0.7037  1.3944
20484SOL     OW67414   3.309   2.524  12.376 -0.2278 -0.9024  0.1068
20484SOL    HW167415   3.373   2.586  12.410 -0.7266 -0.0726 -0.4386
20484SOL    HW267416   3.224   2.563  12.397 -0.5471 -1.0341 -0.8811
20485SOL     OW67417  12.321   1.972   0.409  0.1966 -0.3552 -0.4196
20485SOL    HW167418  12.318   2.063   0.437 -0.0192 -0.0320 -1.4640
20485SOL    HW267419  12.384   1.931   0.469  1.1163  0.7210 -0.6095
20486SOL     OW67420   1.785  12.234   7.336 -0.7729 -0.5156  0.1590
20486SOL    HW167421   1.838  12.249   7.415 -0.5571  0.6285 -0.1734
20486SOL    HW267422   1.841  12.180   7.280 -0.8265 -1.1243  0.6794
20487SOL     OW67423   0.814   5.278   4.626 -0.2477 -0.5847  0.0843
20487SOL    HW167424   0.852   5.366   4.634  1.7106 -1.2559 -1.1232
20487SOL    HW267425   0.733   5.282   4.677  0.5889  1.4514  1.3742
20488SOL     OW67426   2.228   5.131   0.838 -0.1047 -0.3978 -0.5708
20488SOL    HW167427   2.248   5.148   0.930  1.0653  0.6126 -0.9886
20488SOL    HW267428   2.134   5.111   0.838 -0.0516 -0.7878  0.8777
20489SOL     OW67429   9.142   9.384   9.430 -0.0875  0.2232 -0.1345
20489SOL    HW167430   9.150   9.297   9.471  1.2249  0.9730  1.3139
20489SOL    HW267431   9.232   9.415   9.422 -0.5759  2.0340  0.7386
20490SOL     OW67432   1.512  10.352   9.175 -0.1402 -0.4616 -0.0023
20490SOL    HW167433   1.429  10.350   9.127  0.3647 -1.8059 -0.9056
20490SOL    HW267434   1.490  10.321   9.263 -1.2085  2.6745  0.9925
20491SOL     OW67435   1.315   2.641   0.489 -0.2646  0.2161 -0.3227
20491SOL    HW167436   1.222   2.656   0.470 -0.6609 -0.7726  0.7718
20491SOL    HW267437   1.360   2.676   0.412 -1.5169  0.9619 -0.7530
20492SOL     OW67438   3.028  12.055   6.805  0.4140  0.5691  0.1426
20492SOL    HW167439   3.019  12.151   6.799 -0.2475  0.6186  1.5860
20492SOL    HW267440   2.946  12.026   6.844  1.0625 -0.4746  0.7463
20493SOL     OW67441   5.660   3.720   3.556 -0.2514  0.4047 -0.1734
20493SOL    HW167442   5.719   3.675   3.617  2.4496  1.5740 -1.7464
20493SOL    HW267443   5.629   3.796   3.605 -0.4597 -0.2191  0.6848
20494SOL     OW67444   8.535  10.363  10.644 -0.4893  0.7582  0.2087
20494SOL    HW167445   8.440  10.356  10.643 -0.3589 -1.8652 -0.6193
20494SOL    HW267446   8.561  10.331  10.731 -0.2929 -0.5650 -0.3204
20495SOL     OW67447   1.838   3.492   3.199 -0.2643  0.0985  0.3981
20495SOL    HW167448   1.743   3.492   3.184 -0.1557 -0.8532 -0.3907
20495SOL    HW267449   1.851   3.422   3.263 -0.1219  0.4130  0.7124
20496SOL     OW67450   5.023   0.053   2.842 -0.1523  0.1508  0.2098
20496SOL    HW167451   4.960  -0.002   2.796  1.0173  0.9303 -2.5316
20496SOL    HW267452   5.106   0.005   2.838  0.3094  0.9274  0.0531
20497SOL     OW67453   6.978   4.464   0.214  0.1040  0.0443  0.1276
20497SOL    HW167454   6.964   4.434   0.124 -2.1939  0.1958  0.3799
20497SOL    HW267455   6.955   4.557   0.212 -2.1519 -0.4266  1.2703
20498SOL     OW67456   0.625   2.157   7.263  0.7673 -0.3181  0.1064
20498SOL    HW167457   0.714   2.148   7.231  0.4771 -2.3056 -0.2925
20498SOL    HW267458   0.630   2.133   7.356  0.4773 -1.7124 -0.2168
20499SOL     OW67459   8.950  10.216   4.951  0.8998  0.3742  0.1748
20499SOL    HW167460   8.871  10.166   4.930  0.6097  0.2884  1.3601
20499SOL    HW267461   8.967  10.195   5.043  1.9427  0.8900  0.1119
20500SOL     OW67462   3.307   8.408   3.295 -0.2268 -0.1292 -0.2158
20500SOL    HW167463   3.397   8.376   3.305 -0.0532  0.0243 -1.2003
20500SOL    HW267464   3.282   8.383   3.207 -0.9869  0.2562 -0.1226
20501SOL     OW67465  11.307   0.306   1.792  0.1760 -0.1821 -0.5378
20501SOL    HW167466  11.261   0.257   1.860  0.6885  0.8198  0.5680
20501SOL    HW267467  11.331   0.240   1.727 -0.3347 -1.1631  0.2449
20502SOL     OW67468   3.160   4.910   0.691 -0.1843  0.3010  0.0061
20502SOL    HW167469   3.073   4.884   0.663 -0.1733 -0.4387  0.6204
20502SOL    HW267470   3.219   4.854   0.640 -0.0316  1.1702 -0.8043
20503SOL     OW67471   6.957   9.230   9.485 -0.5541 -0.2717 -0.8247
20503SOL    HW167472   7.017   9.155   9.481  0.3836  0.4610 -0.8073
20503SOL    HW267473   6.922   9.237   9.397  0.1539 -0.1118 -1.1052
20504SOL     OW67474   4.444   8.553   6.995  0.2384  0.2114  0.6445
20504SOL    HW167475   4.365   8.589   6.955  0.4492  1.2995  1.1558
20504SOL    HW267476   4.460   8.471   6.948 -0.3821  0.6929 -0.4429
20505SOL     OW67477   0.869   9.998   6.976 -0.9555 -0.6421 -0.3805
20505SOL    HW167478   0.839  10.077   7.020 -0.7283 -1.1961  0.8327
20505SOL    HW267479   0.927  10.030   6.906 -0.2214  0.2575  0.5942
20506SOL     OW67480   0.770   7.664   8.057 -0.2681  0.0167 -0.1481
20506SOL    HW167481   0.828   7.711   8.117 -1.2163  1.9476 -0.6808
20506SOL    HW267482   0.823   7.590   8.027  2.3181  2.1610 -1.2973
20507SOL     OW67483   8.842   7.666   3.218  0.0367  0.0209  0.0570
20507SOL    HW167484   8.881   7.624   3.142  0.5706 -0.9990  0.8811
20507SOL    HW267485   8.748   7.666   3.200  0.1680 -0.0883 -0.6485
20508SOL     OW67486   5.149   5.565   8.489 -0.1032  0.2684 -0.2330
20508SOL    HW167487   5.186   5.537   8.572 -1.3054 -1.3622 -0.2067
20508SOL    HW267488   5.205   5.524   8.423 -0.9930 -1.0880 -0.1907
20509SOL     OW67489  12.136   8.646   5.389  0.1206 -0.2610 -0.0837
20509SOL    HW167490  12.149   8.558   5.355 -0.4408 -1.1887  1.9720
20509SOL    HW267491  12.113   8.634   5.481 -1.2705  1.9684 -0.0508
20510SOL     OW67492   8.093   3.238   8.301  0.4190 -0.6031  0.1072
20510SOL    HW167493   8.040   3.209   8.227  1.5114  0.1829 -1.0262
20510SOL    HW267494   8.081   3.333   8.304 -0.8246 -0.7853  1.9368
20511SOL     OW67495   5.016   2.544   1.853  0.0092 -0.3359  0.8936
20511SOL    HW167496   5.099   2.540   1.900  1.0432 -2.2891 -0.9213
20511SOL    HW267497   5.029   2.611   1.786  0.4334 -1.1125  0.1689
20512SOL     OW67498   3.285   5.860   1.535 -0.2937  0.5629  0.9255
20512SOL    HW167499   3.310   5.926   1.470  0.2932 -0.6825 -0.1711
20512SOL    HW267500   3.240   5.909   1.603 -0.2427  2.0313 -0.0509
20513SOL     OW67501  10.127   9.508   3.010  0.2125 -0.1883  0.5198
20513SOL    HW167502  10.171   9.455   3.076  2.3840  1.4138  0.4475
20513SOL    HW267503  10.126   9.596   3.047 -0.3625  0.3679 -0.7564
20514SOL     OW67504   2.922  10.972   0.307  0.2952 -0.0953  0.3587
20514SOL    HW167505   2.849  10.988   0.248 -1.3938 -2.3377  1.6541
20514SOL    HW267506   2.946  10.880   0.292  1.7115  0.0964  1.1841
20515SOL     OW67507  11.293  10.101   7.331 -0.0464  0.1414  0.1331
20515SOL    HW167508  11.311  10.007   7.321 -1.2028  0.1309 -2.6607
20515SOL    HW267509  11.216  10.105   7.388  0.9501 -0.4519  1.6016
20516SOL     OW67510   1.143   3.432   7.740 -0.4392 -0.6954  0.6492
20516SOL    HW167511   1.180   3.469   7.660 -0.5663 -0.6392  0.6151
20516SOL    HW267512   1.179   3.486   7.810 -0.9217 -0.2583  0.5732
20517SOL     OW67513   9.137   2.708   7.770  0.2460  0.4974  0.3190
20517SOL    HW167514   9.171   2.767   7.702  1.7454 -0.0861  0.5252
20517SOL    HW267515   9.061   2.754   7.806  1.4735  2.4313  0.6120
20518SOL     OW67516  11.211   3.147  10.811 -0.0156 -0.0730  0.0378
20518SOL    HW167517  11.127   3.188  10.794 -0.5288 -0.5527  1.2575
20518SOL    HW267518  11.265   3.217  10.847 -0.2630 -0.0043  0.2825
20519SOL     OW67519   1.308   4.388   7.191 -0.0265 -0.0048  0.1093
20519SOL    HW167520   1.295   4.422   7.102 -0.4266  0.3062  0.2837
20519SOL    HW267521   1.231   4.418   7.239  0.4701  0.3138  0.7108
20520SOL     OW67522   6.852   2.489  11.131  0.0213  0.0700  0.4862
20520SOL    HW167523   6.916   2.540  11.181  0.5557 -1.2811  1.2227
20520SOL    HW267524   6.855   2.528  11.043  0.4794  1.2323  0.9967
20521SOL     OW67525   1.945   8.902  10.242  0.0189 -0.3720 -0.0269
20521SOL    HW167526   1.970   8.931  10.330  2.6113  1.0939 -1.1194
20521SOL    HW267527   1.922   8.810  10.252 -0.4852 -0.0491  2.2855
20522SOL     OW67528   4.046   3.063   4.125 -1.0401  0.8947  0.1213
20522SOL    HW167529   3.999   3.007   4.063 -0.4152  0.4218  0.0647
20522SOL    HW267530   4.013   3.036   4.211  0.1955 -0.5143  0.2011
20523SOL     OW67531   5.190   6.275  10.670  0.0916 -0.0583 -0.5915
20523SOL    HW167532   5.173   6.368  10.684  2.4505  0.1619  1.4465
20523SOL    HW267533   5.127   6.230  10.726  0.9551  0.4779  0.8847
20524SOL     OW67534  12.466   9.045   7.835 -0.2805 -0.3347 -0.3752
20524SOL    HW167535  12.460   9.032   7.930  0.3617  0.8481 -0.1633
20524SOL    HW267536  12.400   8.985   7.799 -1.3908  0.0789  0.8894
20525SOL     OW67537   5.270   3.476   4.161 -0.3856  0.0433  0.1917
20525SOL    HW167538   5.177   3.468   4.182 -0.3301 -2.7249 -0.2349
20525SOL    HW267539   5.313   3.411   4.217  1.0358  0.0115 -0.8935
20526SOL     OW67540   4.139   5.097  11.812 -0.1529 -0.6874  0.2581
20526SOL    HW167541   4.097   5.022  11.770 -1.2434  0.0263  0.0400
20526SOL    HW267542   4.200   5.131  11.747 -0.0833 -1.0174  0.1477
20527SOL     OW67543  10.939   9.503  10.931  0.3961 -0.8418 -0.1651
20527SOL    HW167544  11.018   9.452  10.914  0.3046 -0.6806 -1.1265
20527SOL    HW267545  10.953   9.586  10.884 -0.3694 -0.8479 -0.4237
20528SOL     OW67546  10.986   6.560   2.698 -0.6457 -0.5910 -0.1883
20528SOL    HW167547  10.908   6.505   2.693  0.7182 -2.5838 -0.4214
20528SOL    HW267548  11.041   6.533   2.624  0.4396  0.5072  0.1720
20529SOL     OW67549   3.801  10.819   3.329  0.0585 -0.2634  0.3775
20529SOL    HW167550   3.894  10.797   3.337  0.0552 -1.2387 -1.6571
20529SOL    HW267551   3.795  10.868   3.247 -1.0000  1.2935  1.3435
20530SOL     OW67552   2.249   1.428  10.060 -0.3735 -0.6376 -0.9923
20530SOL    HW167553   2.240   1.385  10.145 -1.9571 -0.2151 -0.9210
20530SOL    HW267554   2.332   1.476  10.065  0.6484 -2.3775 -0.5066
20531SOL     OW67555   7.806  11.269   5.577 -0.5559  0.1713 -0.2907
20531SOL    HW167556   7.868  11.330   5.538 -1.8397  0.5000 -1.9767
20531SOL    HW267557   7.764  11.319   5.647 -0.0395  0.4650 -0.1849
20532SOL     OW67558  10.095  12.453   0.574 -0.1180  0.2992  0.4345
20532SOL    HW167559  10.167  12.515   0.555  0.3920 -0.2912  0.4162
20532SOL    HW267560  10.139  12.371   0.595 -0.8130 -0.3375 -0.5246
20533SOL     OW67561   0.655   2.779   7.728  0.2885  0.4188  0.1247
20533SOL    HW167562   0.610   2.700   7.698  0.0149  0.3451  0.7185
20533SOL    HW267563   0.599   2.851   7.699  1.3163  0.5244 -1.8346
20534SOL     OW67564   9.801  10.564   7.199  0.3773  0.3684  0.4478
20534SOL    HW167565   9.859  10.566   7.275  1.9106  0.0918 -0.6686
20534SOL    HW267566   9.848  10.612   7.131  0.1778 -1.4935 -1.0878
20535SOL     OW67567  10.280   0.589   4.422  0.9089  0.2880 -0.1181
20535SOL    HW167568  10.303   0.665   4.369 -0.7156  0.4665 -0.6417
20535SOL    HW267569  10.199   0.615   4.467  1.4199 -0.4221  1.2731
20536SOL     OW67570  11.433   7.806   2.656  0.1317  0.3246 -0.2080
20536SOL    HW167571  11.416   7.898   2.673 -0.3464  0.1087  0.5474
20536SOL    HW267572  11.350   7.772   2.621  0.0016 -0.0254  0.4318
20537SOL     OW67573  11.729   2.880   2.168  0.0287 -0.0367 -0.1082
20537SOL    HW167574  11.646   2.928   2.162  1.0018  1.6481 -1.1590
20537SOL    HW267575  11.788   2.941   2.213  0.5450 -1.4720  1.2237
20538SOL     OW67576   1.517  12.100   3.474 -0.4009 -0.2248  0.5017
20538SOL    HW167577   1.438  12.053   3.449 -0.1954 -0.8165  0.9491
20538SOL    HW267578   1.489  12.191   3.485 -0.6300 -0.0597 -1.2093
20539SOL     OW67579   1.553   2.833   2.951 -0.1871  0.1155 -0.3948
20539SOL    HW167580   1.578   2.914   2.997  0.9300 -0.9097  0.8995
20539SOL    HW267581   1.482   2.797   3.003  0.3038 -0.4695 -0.1215
20540SOL     OW67582   5.629   5.223   0.559  0.2085 -0.1936  0.4760
20540SOL    HW167583   5.668   5.298   0.605 -1.3122 -0.5049  2.3788
20540SOL    HW267584   5.704   5.170   0.533  1.1937 -0.6874  3.8536
20541SOL     OW67585   5.106   8.945   5.953  0.6473  0.8509 -0.2889
20541SOL    HW167586   5.046   8.873   5.972  2.0556 -0.3724 -0.3030
20541SOL    HW267587   5.145   8.922   5.869  0.9895  1.7309 -0.3805
20542SOL     OW67588   5.262   5.396   5.109 -0.1432 -0.5582 -0.1703
20542SOL    HW167589   5.336   5.441   5.149 -1.1127 -0.7817  2.0187
20542SOL    HW267590   5.203   5.467   5.082  0.1137 -0.4265 -0.3898
20543SOL     OW67591  11.941   2.377   5.009 -0.1186  0.0167 -0.0088
20543SOL    HW167592  11.966   2.460   4.967  1.0587 -0.4910 -0.3524
20543SOL    HW267593  11.916   2.320   4.937 -2.0159  0.3821  0.2982
20544SOL     OW67594   2.344   9.712   1.793  0.3119 -0.0426 -0.5108
20544SOL    HW167595   2.417   9.662   1.832 -0.3475 -0.5074  0.1546
20544SOL    HW267596   2.310   9.655   1.725 -0.8357 -0.8148  0.6551
20545SOL     OW67597   0.582   9.578  11.972  0.2775 -0.1235 -0.3808
20545SOL    HW167598   0.564   9.484  11.966 -0.9367  0.0407  0.4038
20545SOL    HW267599   0.576   9.609  11.882 -0.6594 -0.5794 -0.4869
20546SOL     OW67600   5.244   3.395  11.687 -0.3028 -0.2923 -0.0864
20546SOL    HW167601   5.153   3.396  11.714 -0.6903 -0.0040 -1.3468
20546SOL    HW267602   5.242   3.372  11.594  0.8240  0.7231 -0.3959
20547SOL     OW67603   2.781   2.426   3.634  0.5947 -0.2464 -0.1647
20547SOL    HW167604   2.758   2.515   3.606  1.1873  0.0768  0.3593
20547SOL    HW267605   2.853   2.438   3.696 -0.6941 -0.9542  1.5167
20548SOL     OW67606   7.273   8.022   6.751 -0.5144 -0.0359  0.2503
20548SOL    HW167607   7.351   8.076   6.740 -0.3355 -0.2763  0.3100
20548SOL    HW267608   7.298   7.958   6.818 -0.9019  0.1419  0.5680
20549SOL     OW67609   8.290   9.878   5.545 -0.3861  0.2484 -0.0062
20549SOL    HW167610   8.280   9.911   5.456  1.5653 -1.0670 -0.7822
20549SOL    HW267611   8.381   9.848   5.550 -0.6613 -0.4371  2.1879
20550SOL     OW67612   9.841   9.374   3.111  0.4331  0.0422  0.9980
20550SOL    HW167613   9.755   9.391   3.074  0.3424 -2.2518 -0.0191
20550SOL    HW267614   9.900   9.433   3.064 -0.2507 -0.1175 -0.0973
20551SOL     OW67615  11.465   3.525  11.885 -0.1245 -0.1785  0.1388
20551SOL    HW167616  11.406   3.515  11.960  0.1839  0.9219  0.5422
20551SOL    HW267617  11.471   3.619  11.872  0.5408 -0.3269 -0.7126
20552SOL     OW67618   1.403   8.949   4.160  0.0600  0.2819 -0.1910
20552SOL    HW167619   1.334   8.884   4.150  0.2645  0.0507 -0.1016
20552SOL    HW267620   1.482   8.898   4.175 -0.0413  0.5919  1.5219
20553SOL     OW67621  11.563  12.202   2.457 -0.4318 -0.5407  0.8143
20553SOL    HW167622  11.481  12.243   2.429  0.1981  1.7228  1.9967
20553SOL    HW267623  11.540  12.112   2.478 -2.7806  0.2133  1.7494
20554SOL     OW67624   6.778  11.942   3.665 -0.1936  0.2404  0.6484
20554SOL    HW167625   6.727  11.947   3.585 -0.2379 -0.9859  0.5849
20554SOL    HW267626   6.760  11.855   3.700  1.1285  0.1341  1.1177
20555SOL     OW67627   3.648   3.554  12.256 -0.0112 -0.2449  0.7023
20555SOL    HW167628   3.698   3.476  12.279  1.7271  0.9454  1.0818
20555SOL    HW267629   3.576   3.556  12.319  0.8162 -0.7103  1.6847
20556SOL     OW67630   5.416   8.513  11.496 -0.7183 -0.4361 -0.0795
20556SOL    HW167631   5.416   8.420  11.474  1.1664 -0.5375  0.1568
20556SOL    HW267632   5.446   8.516  11.587  0.0624  0.4229 -0.3506
20557SOL     OW67633  11.445  10.739  11.041  0.1735  0.3313 -0.4327
20557SOL    HW167634  11.486  10.760  11.125 -1.1871  0.0110  0.3523
20557SOL    HW267635  11.354  10.720  11.063 -0.3216  0.6419 -2.0503
20558SOL     OW67636   9.917   9.445   3.807  0.6337  0.5129 -0.5820
20558SOL    HW167637   9.838   9.414   3.852  1.0897 -1.1779 -0.8994
20558SOL    HW267638   9.928   9.535   3.838  0.5984 -0.3740  2.2799
20559SOL     OW67639   4.530   1.741   7.742 -0.1263  0.2035 -0.3466
20559SOL    HW167640   4.623   1.756   7.756 -0.1720  1.1210 -0.9456
20559SOL    HW267641   4.518   1.754   7.648 -1.1058  1.5625 -0.0638
20560SOL     OW67642   0.883   8.876   9.405  0.1900 -0.2937  0.0669
20560SOL    HW167643   0.872   8.970   9.421  2.3008  0.1594 -0.8708
20560SOL    HW267644   0.886   8.837   9.492 -0.8807  0.4565  0.4653
20561SOL     OW67645   5.684   6.519   8.688 -0.0242 -0.2668  0.4863
20561SOL    HW167646   5.603   6.478   8.717 -2.0976  1.8088 -1.9073
20561SOL    HW267647   5.723   6.455   8.628 -2.0444  0.2025 -1.4545
20562SOL     OW67648   5.267  11.738   4.743 -0.5200  0.3813  0.2091
20562SOL    HW167649   5.299  11.652   4.718 -0.8580 -0.2921  1.9660
20562SOL    HW267650   5.175  11.738   4.717 -0.1797  0.7753 -1.0805
20563SOL     OW67651   3.443   8.734   2.942 -0.3610 -0.2406 -0.4268
20563SOL    HW167652   3.448   8.644   2.974 -0.5644  0.3437  1.3738
20563SOL    HW267653   3.533   8.755   2.916  0.3715 -0.0256  2.0152
20564SOL     OW67654   2.285  10.793   0.239 -0.4366  0.1063 -0.4250
20564SOL    HW167655   2.286  10.887   0.254 -1.2592  0.0640 -0.0120
20564SOL    HW267656   2.225  10.781   0.165  0.7707  0.0077 -1.4268
20565SOL     OW67657   4.458  11.675   3.657  0.5677  0.3098  0.3931
20565SOL    HW167658   4.382  11.704   3.707  1.1568  1.3314  0.7214
20565SOL    HW267659   4.487  11.753   3.609  1.2937 -0.1165  0.1189
20566SOL     OW67660   7.160   6.711   4.492  0.1224  0.6872 -0.0299
20566SOL    HW167661   7.076   6.726   4.535 -0.0892 -1.6416  0.4626
20566SOL    HW267662   7.225   6.722   4.561 -0.0459 -0.7652  0.3776
20567SOL     OW67663   6.828   1.084   1.907  0.4479 -0.1872 -0.5358
20567SOL    HW167664   6.898   1.038   1.859  1.5043  1.0234 -0.2239
20567SOL    HW267665   6.867   1.105   1.992 -0.6725 -0.4002  0.0479
20568SOL     OW67666   0.947   1.510  10.255 -0.3552 -0.4680  0.2553
20568SOL    HW167667   0.923   1.551  10.172 -0.4345  0.7176  0.8480
20568SOL    HW267668   0.982   1.424  10.230  3.0515  1.2017 -1.3613
20569SOL     OW67669   2.237   9.234  10.296 -0.1143 -0.1320 -0.1314
20569SOL    HW167670   2.162   9.282  10.332  0.0414 -0.2138  0.3037
20569SOL    HW267671   2.313   9.275  10.337 -0.0312 -1.5541  1.2335
20570SOL     OW67672   7.142  10.265   8.528 -0.2009  0.3771 -0.0692
20570SOL    HW167673   7.067  10.290   8.474 -0.1998  0.2579 -0.1263
20570SOL    HW267674   7.176  10.348   8.562 -0.5687  0.4053  0.2412
20571SOL     OW67675   8.445   3.984   2.018 -0.0883 -0.8503  0.1743
20571SOL    HW167676   8.372   3.951   1.966 -1.3254  1.1313  0.5338
20571SOL    HW267677   8.504   4.024   1.955 -1.1076  0.6815  0.1343
20572SOL     OW67678  11.214   4.704   6.421  0.1773 -0.3716 -0.1997
20572SOL    HW167679  11.189   4.644   6.492 -0.2228 -1.1714 -1.0085
20572SOL    HW267680  11.309   4.692   6.413  0.4827  0.7986  1.1588
20573SOL     OW67681   0.386   8.441   8.031 -0.3023 -0.1847  0.3042
20573SOL    HW167682   0.447   8.419   7.961  0.2078  1.0078  0.3365
20573SOL    HW267683   0.338   8.517   7.998  0.5732  0.9796  1.5363
20574SOL     OW67684   4.623  11.636   9.824  0.2798  0.2459  0.0212
20574SOL    HW167685   4.609  11.730   9.809  0.3421  0.2033 -0.3128
20574SOL    HW267686   4.582  11.619   9.909  3.5008  1.3479  1.9575
20575SOL     OW67687   1.708   7.758   2.031  0.2379 -0.3429  0.8752
20575SOL    HW167688   1.646   7.793   1.967  2.5843  1.9189 -0.3700
20575SOL    HW267689   1.735   7.674   1.996  0.9004  0.5164 -0.7760
20576SOL     OW67690  11.258  11.629  11.525 -0.4109 -0.1556 -0.0726
20576SOL    HW167691  11.299  11.708  11.561 -1.4186 -0.6301  2.3341
20576SOL    HW267692  11.165  11.650  11.520 -0.4662 -0.6030 -1.1708
20577SOL     OW67693   0.669   6.109   3.992 -0.0409 -0.2861  0.0685
20577SOL    HW167694   0.636   6.130   3.904  1.4626 -0.5363 -0.5921
20577SOL    HW267695   0.688   6.195   4.031 -0.1914 -0.1976 -0.0484
20578SOL     OW67696   2.942   3.651  11.903 -0.8750 -0.3325 -0.5760
20578SOL    HW167697   2.945   3.742  11.871 -0.4369  0.0692  0.5595
20578SOL    HW267698   2.868   3.612  11.857 -1.9738  1.0104 -0.0185
20579SOL     OW67699   2.217   9.161   0.895  0.0982  0.4408  0.4255
20579SOL    HW167700   2.301   9.153   0.850 -0.8549 -0.5795 -1.2963
20579SOL    HW267701   2.229   9.113   0.977  0.6042 -1.6015 -0.7642
20580SOL     OW67702   5.292   2.748   0.658 -0.5015  0.5675 -0.2160
20580SOL    HW167703   5.257   2.738   0.570  1.0837  0.7649 -0.8942
20580SOL    HW267704   5.240   2.819   0.697 -0.4704  1.2517 -1.3870
20581SOL     OW67705   3.813  10.706   0.738  0.0064  0.4369 -0.0157
20581SOL    HW167706   3.822  10.619   0.776 -1.9478  0.8514  1.5632
20581SOL    HW267707   3.899  10.746   0.748  0.0571 -0.1315  2.4613
20582SOL     OW67708   7.500   8.217   4.294  0.3690  0.1934 -0.1260
20582SOL    HW167709   7.490   8.226   4.199  0.9124 -2.1355 -0.4555
20582SOL    HW267710   7.578   8.269   4.315  1.6396 -1.1413 -1.3541
20583SOL     OW67711   3.789   1.213   8.683 -0.2959  0.4521 -0.1279
20583SOL    HW167712   3.849   1.286   8.695 -0.5369  0.3123  2.4196
20583SOL    HW267713   3.703   1.250   8.700 -0.7068  0.0960 -1.3305
20584SOL     OW67714   2.921   4.542   4.189  0.2865  0.7631 -0.4555
20584SOL    HW167715   2.991   4.608   4.195  0.9952 -0.0115  0.2537
20584SOL    HW267716   2.871   4.566   4.111  2.1129  0.6321 -1.7368
20585SOL     OW67717   9.789   0.779   4.543 -0.1915  0.4846 -0.0175
20585SOL    HW167718   9.694   0.770   4.553 -0.4554  2.6166 -0.1746
20585SOL    HW267719   9.810   0.722   4.469 -1.0201 -1.4130  1.1369
20586SOL     OW67720   2.526  11.323  11.914  0.1924 -0.3837 -0.2677
20586SOL    HW167721   2.584  11.255  11.949 -0.1807 -0.1146  0.9339
20586SOL    HW267722   2.450  11.320  11.972  0.5228  1.6133  0.3208
20587SOL     OW67723   5.562   5.999   2.658  0.1705 -0.4565  0.4444
20587SOL    HW167724   5.592   6.027   2.745  0.0258 -1.4265  0.8155
20587SOL    HW267725   5.468   6.018   2.658  0.6629  2.4459 -0.6655
20588SOL     OW67726  10.197   2.081  12.240 -0.1439 -0.2590 -0.1153
20588SOL    HW167727  10.116   2.107  12.285  0.7341  1.8879  0.3356
20588SOL    HW267728  10.195   2.129  12.157  0.2227 -0.9828 -0.5570
20589SOL     OW67729  11.131   8.918   8.146  0.2165 -0.3819  0.2055
20589SOL    HW167730  11.180   8.932   8.065  0.5577  2.3571  0.7658
20589SOL    HW267731  11.043   8.949   8.126  0.4068  0.6989  0.9497
20590SOL     OW67732   1.637   6.738  11.189  0.2894  0.7137  0.8993
20590SOL    HW167733   1.712   6.692  11.152  0.8055  0.7699  1.8364
20590SOL    HW267734   1.561   6.687  11.161  0.7019  0.4635  0.2229
20591SOL     OW67735  10.103   1.910   8.965  0.3339 -0.0920  0.2393
20591SOL    HW167736  10.165   1.971   9.004  0.1169  0.0751  0.3317
20591SOL    HW267737  10.133   1.823   8.993  0.1862  0.0280  0.7764
20592SOL     OW67738   9.919   5.980  12.378  0.3470 -0.3209 -0.4272
20592SOL    HW167739   9.976   5.956  12.451  1.4321  1.2403 -0.7299
20592SOL    HW267740   9.914   5.901  12.324  0.5799 -1.0866  0.6357
20593SOL     OW67741   8.230   5.088   7.486 -0.2193  0.4809 -0.3506
20593SOL    HW167742   8.229   5.171   7.534 -0.1682  0.9828 -1.2010
20593SOL    HW267743   8.322   5.073   7.465 -0.1215 -0.2372  0.5397
20594SOL     OW67744   1.809   5.188   5.971  0.1072  0.2495  0.2643
20594SOL    HW167745   1.861   5.232   5.904  0.3352 -0.1195  0.1951
20594SOL    HW267746   1.872   5.165   6.039  0.0117 -0.0791  0.2428
20595SOL     OW67747   8.845  11.145   1.910 -0.4921 -0.2235 -0.2351
20595SOL    HW167748   8.799  11.094   1.976  0.6273 -1.7013 -0.5420
20595SOL    HW267749   8.915  11.190   1.958 -3.2198  3.5986  0.5966
20596SOL     OW67750   6.374   4.197   8.329 -0.2925  0.3613  0.4696
20596SOL    HW167751   6.456   4.226   8.289 -0.3459 -0.4469 -0.2564
20596SOL    HW267752   6.328   4.278   8.349 -1.0720  0.8750 -2.8395
20597SOL     OW67753  11.240   5.079   1.073  0.1538  0.0330 -0.4406
20597SOL    HW167754  11.323   5.083   1.025  0.7585  0.3109  0.5726
20597SOL    HW267755  11.267   5.058   1.163 -0.8211  0.8473  0.0514
20598SOL     OW67756   6.362   8.178   1.040  0.6209  0.8920 -0.5238
20598SOL    HW167757   6.353   8.099   0.987  1.0310  1.5884 -1.6736
20598SOL    HW267758   6.305   8.242   0.998  0.3761  1.2523  0.3289
20599SOL     OW67759  11.585   5.955   3.100 -0.3263 -0.1721 -0.0640
20599SOL    HW167760  11.630   6.039   3.096  2.5988 -1.6413 -1.0240
20599SOL    HW267761  11.551   5.942   3.011  0.5836 -0.6596 -0.3486
20600SOL     OW67762   4.330   6.399   8.065  0.1629 -0.0219 -0.5900
20600SOL    HW167763   4.352   6.471   8.124 -1.4603 -0.5110  0.6954
20600SOL    HW267764   4.343   6.435   7.978  0.7268  1.3714  0.0341
20601SOL     OW67765   5.576   4.705  10.378 -0.0832 -0.8395 -0.5760
20601SOL    HW167766   5.559   4.633  10.318  0.2836 -1.2964 -0.1445
20601SOL    HW267767   5.544   4.674  10.463 -1.1386  0.0259 -0.6328
20602SOL     OW67768   9.836   8.193   9.034 -0.2814  0.6031 -0.4005
20602SOL    HW167769   9.836   8.278   9.078  2.1423  0.2962  0.3193
20602SOL    HW267770   9.763   8.146   9.073 -1.3563  2.1589 -0.4503
20603SOL     OW67771  12.491   0.010   1.647 -0.0238 -0.4405 -0.2452
20603SOL    HW167772  12.457   0.097   1.665 -0.7129 -0.9479  0.9555
20603SOL    HW267773  12.535  -0.017   1.728  0.6152 -1.0215 -0.7651
20604SOL     OW67774   0.328   4.634   8.456 -0.0195 -0.5084  0.0861
20604SOL    HW167775   0.339   4.540   8.470 -0.7500 -0.8380 -1.3472
20604SOL    HW267776   0.236   4.644   8.432  0.0854  0.5633  0.0789
20605SOL     OW67777   2.394   0.293  12.310 -0.4258  0.2989 -0.0019
20605SOL    HW167778   2.322   0.234  12.330  0.3928  0.0753  2.7009
20605SOL    HW267779   2.448   0.245  12.247 -0.9850 -0.8680  0.3835
20606SOL     OW67780   1.699   5.411   7.796  0.2488  0.1646  0.5612
20606SOL    HW167781   1.678   5.431   7.705  0.0318 -3.0747 -0.2270
20606SOL    HW267782   1.788   5.375   7.793  0.2218 -0.0318  1.6137
20607SOL     OW67783   5.537   5.498   1.223 -0.5740  0.9217 -0.6325
20607SOL    HW167784   5.494   5.513   1.139 -1.1194 -1.0402 -0.7566
20607SOL    HW267785   5.523   5.405   1.241  0.0569  1.1572  1.3493
20608SOL     OW67786   5.881   6.947   0.194 -0.1128  0.0245  0.2500
20608SOL    HW167787   5.942   6.875   0.178 -0.2733  0.1688 -1.0898
20608SOL    HW267788   5.839   6.963   0.110 -0.4534  1.3529  0.6379
20609SOL     OW67789   2.770   3.848   8.709 -0.0418 -0.1555 -0.1406
20609SOL    HW167790   2.736   3.922   8.759 -0.8103  0.7218 -1.8978
20609SOL    HW267791   2.865   3.860   8.710 -0.0197 -0.2778  1.2505
20610SOL     OW67792  11.615  10.570   5.113  0.3876  0.1893  0.8431
20610SOL    HW167793  11.531  10.574   5.159  0.1365  0.8610  0.3500
20610SOL    HW267794  11.667  10.508   5.164 -0.4131 -0.2636  1.1402
20611SOL     OW67795   5.937   4.167   9.579 -0.6197 -0.8022 -0.2944
20611SOL    HW167796   6.025   4.181   9.613 -0.6860 -0.2857 -0.3275
20611SOL    HW267797   5.947   4.100   9.511 -0.1146 -0.1385 -0.8919
20612SOL     OW67798   8.262   8.502   2.245 -0.5878  0.2803 -0.0125
20612SOL    HW167799   8.345   8.540   2.274 -0.6068 -0.0132  0.4380
20612SOL    HW267800   8.206   8.577   2.229 -0.5476  0.4508  0.6361
20613SOL     OW67801   1.271   4.209  11.861  0.1452 -0.0116  0.1256
20613SOL    HW167802   1.254   4.269  11.789  0.3867  0.8336  0.7618
20613SOL    HW267803   1.184   4.184  11.893  0.0376  1.2421  0.8616
20614SOL     OW67804   1.007   3.126   2.524 -0.8143  0.1624 -0.5010
20614SOL    HW167805   0.935   3.188   2.511 -1.2968  0.1572  1.7697
20614SOL    HW267806   1.032   3.137   2.616  0.0912 -1.9443 -0.4460
20615SOL     OW67807   4.537   3.788  10.432 -0.2327  0.1815  0.0761
20615SOL    HW167808   4.565   3.802  10.523  0.8111  0.3564 -0.2615
20615SOL    HW267809   4.555   3.872  10.389 -0.1529 -0.0979 -0.4315
20616SOL     OW67810   5.129   0.251   8.654 -0.2792 -0.3981 -0.0687
20616SOL    HW167811   5.164   0.335   8.623 -1.4936  0.3530  0.4791
20616SOL    HW267812   5.176   0.234   8.736  0.9748 -0.9878 -0.8930
20617SOL     OW67813   3.920   2.412  11.822 -0.3286  0.4730 -0.3233
20617SOL    HW167814   3.979   2.480  11.854 -1.6602  1.3387  0.3912
20617SOL    HW267815   3.926   2.419  11.727 -0.4160  1.5941 -0.2687
20618SOL     OW67816   6.865  11.468   9.922 -0.6201  0.1413 -0.0550
20618SOL    HW167817   6.805  11.400   9.952 -1.0706  0.3011 -0.5724
20618SOL    HW267818   6.875  11.452   9.829 -0.5844  0.6735 -0.1451
20619SOL     OW67819   3.858   7.756   6.613 -0.1474 -0.3377  0.1137
20619SOL    HW167820   3.794   7.687   6.632  0.3362 -0.4305  1.5308
20619SOL    HW267821   3.935   7.731   6.664  0.5569  0.4636 -0.5432
20620SOL     OW67822   8.249   3.084   0.780  0.1024  0.1801  0.1209
20620SOL    HW167823   8.314   3.154   0.788  0.7817 -0.3237 -0.8398
20620SOL    HW267824   8.293   3.006   0.812  0.0935 -0.2232 -0.8040
20621SOL     OW67825   2.113  12.381   0.100  0.6814 -0.1882 -0.1547
20621SOL    HW167826   2.059  12.460   0.102  1.0353  0.0806 -0.9815
20621SOL    HW267827   2.203  12.413   0.109  0.7233 -0.6556  1.5751
20622SOL     OW67828  11.842   7.522   8.178  0.1561 -0.3281 -0.0501
20622SOL    HW167829  11.847   7.611   8.212 -1.3108 -0.8090  1.5529
20622SOL    HW267830  11.899   7.472   8.236 -2.0660 -1.0872  1.6191
20623SOL     OW67831   2.461   7.604   6.558 -0.1391  0.0812 -0.6537
20623SOL    HW167832   2.395   7.659   6.516  1.0677  1.8130 -0.3683
20623SOL    HW267833   2.427   7.515   6.548 -1.2153  0.6615 -2.8749
20624SOL     OW67834  10.081   1.514  11.934 -0.4509  0.2383  0.0549
20624SOL    HW167835  10.036   1.434  11.906 -1.2320  0.6376  0.1287
20624SOL    HW267836  10.012   1.581  11.936 -0.2532  0.4314  2.0852
20625SOL     OW67837   5.620   1.402   0.613 -0.4102  0.3890 -0.4648
20625SOL    HW167838   5.572   1.486   0.614  0.0735  0.6650 -0.3107
20625SOL    HW267839   5.595   1.359   0.695  0.6158  1.1116  0.2440
20626SOL     OW67840  10.551  11.408   9.333  0.4403 -0.2063 -0.5181
20626SOL    HW167841  10.557  11.498   9.303  0.8533  0.0612  0.3149
20626SOL    HW267842  10.603  11.407   9.414  1.5029 -1.4746 -1.1684
20627SOL     OW67843   1.584   4.593   2.689  0.1357  0.5199  0.1734
20627SOL    HW167844   1.663   4.563   2.643 -0.0925  1.0466 -0.5794
20627SOL    HW267845   1.517   4.599   2.620  0.3240  3.3482  0.1449
20628SOL     OW67846   4.404  10.224   6.183  0.5699  0.1898  0.4875
20628SOL    HW167847   4.308  10.226   6.184  0.5298 -1.0356  0.9863
20628SOL    HW267848   4.427  10.140   6.222  1.8227 -0.2868 -1.1350
20629SOL     OW67849   2.422   7.379   1.495  0.2769  0.2851 -0.7234
20629SOL    HW167850   2.493   7.405   1.436 -0.7444 -0.5740 -2.4166
20629SOL    HW267851   2.369   7.458   1.505 -1.6404 -0.3619 -4.1389
20630SOL     OW67852   2.067   6.826   8.960  0.3191  0.3359 -0.2280
20630SOL    HW167853   2.034   6.814   8.871  2.1346 -2.2095 -0.6724
20630SOL    HW267854   2.013   6.768   9.014  2.1023 -1.8045 -0.5478
20631SOL     OW67855   8.214  10.647   3.078  0.8210 -0.8755 -0.0790
20631SOL    HW167856   8.257  10.680   3.156 -1.6011 -0.4823  1.1879
20631SOL    HW267857   8.277  10.585   3.040  3.3538  1.2859  0.3415
20632SOL     OW67858   1.477   9.575   9.273  0.3608 -0.1897  0.5610
20632SOL    HW167859   1.465   9.499   9.215  1.4505 -0.8437  1.1530
20632SOL    HW267860   1.507   9.537   9.356 -0.7702  0.7593  1.4411
20633SOL     OW67861   2.817   7.716   2.946 -0.6184 -0.1178  0.4043
20633SOL    HW167862   2.812   7.738   3.039 -1.6669  0.9017  0.1346
20633SOL    HW267863   2.728   7.689   2.923 -0.5081  0.1701 -0.4140
20634SOL     OW67864   8.982  11.651   0.268 -0.3956  0.1333 -0.3303
20634SOL    HW167865   9.012  11.588   0.203  0.2423 -1.9745  1.8637
20634SOL    HW267866   8.887  11.655   0.255 -0.4019 -0.9991 -0.7671
20635SOL     OW67867   0.461   0.967  10.232 -0.2570  0.0096  0.0985
20635SOL    HW167868   0.401   1.041  10.235 -0.4512  0.0077 -1.9983
20635SOL    HW267869   0.533   0.997  10.176  0.5804 -0.7616  0.7303
20636SOL     OW67870   4.472   3.615  11.965 -0.5057 -0.2380  0.2178
20636SOL    HW167871   4.476   3.702  12.005  0.4025  0.3369 -1.0653
20636SOL    HW267872   4.563   3.596  11.940 -0.4740 -2.0925  1.5439
20637SOL     OW67873   6.100   8.009   5.869 -0.0868  0.3083  0.6518
20637SOL    HW167874   6.037   7.992   5.799 -0.1594  0.8528  0.5795
20637SOL    HW267875   6.164   7.938   5.861  0.5684  1.0079 -0.7434
20638SOL     OW67876  11.444   9.062   7.680  0.1947 -0.5464  0.2959
20638SOL    HW167877  11.539   9.053   7.681  0.2662  0.0275 -0.2801
20638SOL    HW267878  11.424   9.123   7.751  0.5117  1.2580 -1.0712
20639SOL     OW67879   9.454   3.838   5.754  0.5334 -0.0741  0.2317
20639SOL    HW167880   9.392   3.906   5.781  1.2783  0.3155  1.0247
20639SOL    HW267881   9.465   3.783   5.832  3.8002  1.8932  1.3951
20640SOL     OW67882   1.776   3.000   3.706  0.1417  0.1888  0.8601
20640SOL    HW167883   1.807   2.984   3.617  1.8651  0.8054  1.3020
20640SOL    HW267884   1.833   2.947   3.762 -0.9795 -0.2649  1.6078
20641SOL     OW67885   7.302   7.316   1.162  0.1608  0.4726  0.7615
20641SOL    HW167886   7.370   7.251   1.147 -0.1230  0.5684 -1.3146
20641SOL    HW267887   7.332   7.367   1.237  0.2043 -2.2375  2.7410
20642SOL     OW67888   7.460  10.632   5.803  0.1334 -0.0451  0.6497
20642SOL    HW167889   7.386  10.681   5.840  0.0507  1.3716 -1.2366
20642SOL    HW267890   7.537  10.686   5.822 -0.1599  2.0144 -3.0268
20643SOL     OW67891   8.790   3.569  12.428 -0.0852  0.1476  0.1355
20643SOL    HW167892   8.854   3.541  12.363 -0.5480 -0.1808 -0.1837
20643SOL    HW267893   8.735   3.633  12.382 -0.0090  0.4086  0.3989
20644SOL     OW67894   2.069   9.806   8.919 -0.3873  0.6109 -0.0850
20644SOL    HW167895   2.128   9.831   8.989 -1.9071 -0.7418  1.7798
20644SOL    HW267896   2.012   9.882   8.907  1.6352  1.9487 -1.9433
20645SOL     OW67897   9.942   4.103   8.709  0.3123 -0.0961 -0.0864
20645SOL    HW167898   9.909   4.016   8.732 -1.2381 -0.1659 -2.2184
20645SOL    HW267899   9.863   4.156   8.699  1.1805  1.2664  0.0621
20646SOL     OW67900   7.020   2.825   4.248  0.3156 -0.6108 -0.0207
20646SOL    HW167901   7.055   2.861   4.167  0.4408  0.6293  0.5717
20646SOL    HW267902   7.070   2.744   4.261  2.0022  0.3970  0.0531
20647SOL     OW67903   6.383   2.002   2.598  0.0348 -0.9794  0.5087
20647SOL    HW167904   6.360   2.085   2.556  0.4648 -0.7036  0.8030
20647SOL    HW267905   6.307   1.945   2.584  0.3819 -1.0898 -1.1376
20648SOL     OW67906   1.473   5.681   7.097  0.1219  0.0164  0.0643
20648SOL    HW167907   1.436   5.731   7.024  0.2143 -0.4453 -0.3056
20648SOL    HW267908   1.398   5.637   7.137  0.1278 -0.0691 -0.0188
20649SOL     OW67909   5.182   9.420   7.669 -0.2401 -0.0966 -0.0332
20649SOL    HW167910   5.212   9.459   7.752 -0.1271  2.2185 -1.0925
20649SOL    HW267911   5.258   9.371   7.637  0.3269  0.5024  0.3671
20650SOL     OW67912   7.443   4.798  10.478  0.3070 -0.6448 -0.2449
20650SOL    HW167913   7.424   4.891  10.488 -0.7266 -0.8247 -0.4422
20650SOL    HW267914   7.464   4.788  10.385  0.0225 -0.6731 -0.3076
20651SOL     OW67915   4.400   4.719   0.878 -0.0892  0.5021 -0.1626
20651SOL    HW167916   4.406   4.629   0.848 -0.4005 -0.8483  3.3429
20651SOL    HW267917   4.357   4.713   0.964  0.3024  3.9383  0.4318
20652SOL     OW67918  11.739   3.011   6.913 -0.7501 -0.5873  0.4711
20652SOL    HW167919  11.699   2.933   6.952 -0.7772  0.1816  2.0717
20652SOL    HW267920  11.756   2.986   6.822 -0.4411 -2.5639  1.0133
20653SOL     OW67921   6.099   0.197  10.297  0.2611 -0.7500 -0.2568
20653SOL    HW167922   6.195   0.206  10.295  0.1320  1.7424  0.7517
20653SOL    HW267923   6.068   0.264  10.236 -0.8726 -2.7966 -2.0624
20654SOL     OW67924  10.171   6.297   2.046  0.0095  0.6879  0.4273
20654SOL    HW167925  10.202   6.322   1.959 -1.4924 -0.3198 -0.4348
20654SOL    HW267926  10.241   6.242   2.081 -0.4102 -0.9433 -1.1783
20655SOL     OW67927   9.633   9.667   1.230  0.1647 -0.4199 -0.4423
20655SOL    HW167928   9.599   9.755   1.245 -0.4304 -0.8820  1.1086
20655SOL    HW267929   9.724   9.680   1.204 -0.8523  0.8058 -3.9269
20656SOL     OW67930   8.870   2.449   8.548  0.5896  0.1226  0.2821
20656SOL    HW167931   8.926   2.437   8.471  0.6883 -1.6722  0.5914
20656SOL    HW267932   8.926   2.493   8.612  0.7366  0.9517 -0.3977
20657SOL     OW67933   5.035   7.358  12.057 -0.1154 -0.3190 -0.7660
20657SOL    HW167934   5.085   7.396  12.129 -1.0499  1.0172 -0.7734
20657SOL    HW267935   5.101   7.326  11.995  0.6956 -1.2588  0.5478
20658SOL     OW67936  10.328   1.980   7.177  0.1524  0.1473  0.2065
20658SOL    HW167937  10.346   1.888   7.157 -0.2012 -0.6329  3.0517
20658SOL    HW267938  10.395   2.028   7.128  0.4371 -1.5989 -1.2486
20659SOL     OW67939   8.633   4.739   0.943  0.0949 -0.3428 -0.4304
20659SOL    HW167940   8.610   4.781   0.861 -2.0329 -0.0833  0.2511
20659SOL    HW267941   8.557   4.752   1.000  2.0541  0.8146  2.1299
20660SOL     OW67942   5.860   2.175   6.603  0.2242  0.2785  0.0962
20660SOL    HW167943   5.781   2.163   6.549  0.8212 -0.0595 -0.7118
20660SOL    HW267944   5.895   2.087   6.615 -0.7532  0.1089  2.4083
20661SOL     OW67945   3.762  10.737   1.267 -0.4708 -0.2311  0.4539
20661SOL    HW167946   3.809  10.754   1.349  2.0406  0.8820 -1.0777
20661SOL    HW267947   3.728  10.822   1.240  0.9194 -0.0449 -0.8515
20662SOL     OW67948   6.303   9.761   6.581  0.2277  0.2564 -0.3513
20662SOL    HW167949   6.390   9.762   6.540  1.1115 -0.0296  1.4243
20662SOL    HW267950   6.320   9.741   6.673 -1.8254 -0.8423 -0.1514
20663SOL     OW67951  11.138   9.571   7.258 -0.3407 -0.6160 -0.1066
20663SOL    HW167952  11.168   9.494   7.210 -0.7674 -1.5395  1.0579
20663SOL    HW267953  11.171   9.558   7.347  3.3314  2.6231 -0.6996
20664SOL     OW67954   6.878   5.556   7.055  0.2082 -0.7845  0.1867
20664SOL    HW167955   6.927   5.495   7.111  0.3608 -1.7006 -0.9257
20664SOL    HW267956   6.811   5.502   7.014 -0.7587  0.1511  0.4749
20665SOL     OW67957   3.269  11.249   2.994 -0.1549 -0.4586  0.2580
20665SOL    HW167958   3.344  11.281   3.044 -0.0392  1.4444 -1.0278
20665SOL    HW267959   3.197  11.306   3.019 -0.3761 -0.2314 -0.8385
20666SOL     OW67960   2.965   0.363   8.606 -0.6093 -0.3149  0.1953
20666SOL    HW167961   2.945   0.283   8.655  0.4459 -0.3297  0.6272
20666SOL    HW267962   2.895   0.424   8.630 -1.4152 -1.0898 -0.1241
20667SOL     OW67963   9.589   9.837   8.032  0.1171  0.0277  0.3023
20667SOL    HW167964   9.676   9.822   8.068  0.4976 -0.7247 -0.8967
20667SOL    HW267965   9.605   9.881   7.949 -0.6962  0.6007  0.4330
20668SOL     OW67966   7.449   3.824   1.685 -0.3664 -0.3237  0.1128
20668SOL    HW167967   7.387   3.821   1.758 -0.7015  0.0380 -0.1546
20668SOL    HW267968   7.497   3.741   1.691 -0.8397 -0.5828  0.3489
20669SOL     OW67969   5.642   3.881   9.121  0.3960 -0.1370 -0.6875
20669SOL    HW167970   5.659   3.895   9.028  2.2358 -0.0803 -0.3889
20669SOL    HW267971   5.716   3.923   9.165 -0.7955  0.4443  0.8484
20670SOL     OW67972   3.036   7.792  12.482  0.1374  0.4192 -0.4617
20670SOL    HW167973   3.027   7.723  12.416  1.2627 -0.3232  0.1434
20670SOL    HW267974   3.097   7.757  12.546 -0.9369  1.1212  1.0116
20671SOL     OW67975   5.379   6.883  11.068  0.1253 -0.1464  0.2313
20671SOL    HW167976   5.394   6.804  11.018 -0.5106 -0.7738  0.9905
20671SOL    HW267977   5.439   6.948  11.032 -0.7055 -0.4019 -1.6914
20672SOL     OW67978   7.478   0.534   3.605  0.1729  0.1002 -0.0344
20672SOL    HW167979   7.492   0.625   3.634 -3.7764  0.6886  0.5508
20672SOL    HW267980   7.513   0.481   3.677 -0.0268  1.2741  0.9637
20673SOL     OW67981   3.362   6.654  10.915  0.4113  0.4716 -0.1887
20673SOL    HW167982   3.322   6.568  10.908  2.2008 -0.3648 -0.8943
20673SOL    HW267983   3.291   6.712  10.943 -1.6441 -0.5994 -2.7917
20674SOL     OW67984  10.337   2.328   4.592 -0.2884  0.4545 -0.3423
20674SOL    HW167985  10.284   2.404   4.567 -2.0018  0.2961  2.4451
20674SOL    HW267986  10.274   2.266   4.627  1.4150 -1.1366  0.0186
20675SOL     OW67987   3.079   9.660   9.895 -0.4879 -0.3254 -0.6621
20675SOL    HW167988   3.074   9.730   9.960  0.7068  0.7585 -1.6893
20675SOL    HW267989   2.996   9.665   9.848 -0.3801  0.4483 -0.7730
20676SOL     OW67990  10.610   7.118   0.371 -0.5150  0.0505 -0.1141
20676SOL    HW167991  10.594   7.058   0.297 -1.3096 -1.7545  1.4260
20676SOL    HW267992  10.525   7.126   0.414 -0.7313  3.3176 -0.8883
20677SOL     OW67993   1.688   2.357  11.189 -0.1457  0.5787 -0.1491
20677SOL    HW167994   1.608   2.409  11.181 -0.8675 -0.6474 -1.1471
20677SOL    HW267995   1.696   2.310  11.106 -0.1254 -1.7257  1.0640
20678SOL     OW67996   9.186  11.475   6.411 -0.2812  0.2268  0.2278
20678SOL    HW167997   9.227  11.525   6.482  1.0252 -0.7715  0.2260
20678SOL    HW267998   9.206  11.525   6.332 -0.2225  0.4417  0.3771
20679SOL     OW67999   7.217   3.536  10.539 -0.0948 -0.2577  0.0181
20679SOL    HW168000   7.213   3.613  10.483 -2.3642  0.4194  0.9894
20679SOL    HW268001   7.173   3.467  10.490 -0.3654 -0.2009  0.1777
20680SOL     OW68002   4.883   4.447   9.841  0.4105 -0.2700  0.3842
20680SOL    HW168003   4.843   4.452   9.754 -1.1394  1.8665  1.1476
20680SOL    HW268004   4.927   4.532   9.852 -0.2322 -0.1209  2.0456
20681SOL     OW68005  10.946   3.197   8.262 -0.2203  0.2015 -0.1426
20681SOL    HW168006  10.924   3.239   8.345  1.1624  1.9634 -0.6139
20681SOL    HW268007  10.904   3.251   8.195  0.3488 -0.0116 -0.6858
20682SOL     OW68008  11.292   5.850  11.679 -0.3822 -0.0144  0.2840
20682SOL    HW168009  11.284   5.887  11.767 -0.1123 -0.2205  0.3981
20682SOL    HW268010  11.387   5.843  11.664 -0.4055  1.1126 -0.4908
20683SOL     OW68011   2.679   6.555   9.067  0.1320 -0.6019  0.2169
20683SOL    HW168012   2.737   6.536   9.141 -0.9042 -0.8072  0.9976
20683SOL    HW268013   2.674   6.650   9.064 -1.3521 -0.5927  1.6719
20684SOL     OW68014   5.742   4.108   4.399 -0.0124 -0.0050  0.6935
20684SOL    HW168015   5.730   4.027   4.350 -0.6585 -1.2621  2.8132
20684SOL    HW268016   5.817   4.091   4.456 -0.8433  0.4383  1.9695
20685SOL     OW68017   6.971  10.406   3.940 -0.5769  0.5159 -0.1942
20685SOL    HW168018   6.975  10.439   4.029  0.2775  2.7016 -0.9754
20685SOL    HW268019   7.045  10.346   3.933 -1.5025 -0.8298  0.9395
20686SOL     OW68020   5.497  11.700   0.336 -0.3665 -0.1818 -0.1542
20686SOL    HW168021   5.465  11.780   0.294  0.3957  1.2346  1.8179
20686SOL    HW268022   5.418  11.649   0.354 -0.8218 -0.1442 -1.8910
20687SOL     OW68023   5.863   8.643  12.062  1.0053  0.1399  0.4388
20687SOL    HW168024   5.889   8.735  12.064  0.0108  0.4130  1.0380
20687SOL    HW268025   5.819   8.633  11.977 -0.3554  0.6333  1.0720
20688SOL     OW68026   4.929   7.212   8.722 -0.4572  0.1479  0.1759
20688SOL    HW168027   4.879   7.190   8.643 -0.2011  1.7041 -0.4595
20688SOL    HW268028   4.963   7.299   8.705  0.8505 -0.0807  1.4152
20689SOL     OW68029  10.013   0.070   4.953 -0.0326  0.0155 -0.5159
20689SOL    HW168030  10.098   0.110   4.934  0.0101  0.7701  1.1265
20689SOL    HW268031   9.997   0.090   5.045 -1.1345 -1.7339 -0.2891
20690SOL     OW68032   7.545  10.916  11.300 -0.7145 -0.5003  0.2508
20690SOL    HW168033   7.518  11.007  11.288 -0.0208 -0.1878  0.9252
20690SOL    HW268034   7.623  10.907  11.245 -0.0949 -0.3323  1.0771
20691SOL     OW68035   9.407   8.765   8.644 -0.1259 -0.2246 -0.0697
20691SOL    HW168036   9.338   8.827   8.620 -0.8268  0.0114  2.3477
20691SOL    HW268037   9.377   8.681   8.608 -0.2351  0.3988 -1.4802
20692SOL     OW68038   2.161   8.658   9.392 -0.3998  0.3569 -0.3166
20692SOL    HW168039   2.179   8.656   9.486 -1.8402  0.6948 -0.0155
20692SOL    HW268040   2.136   8.568   9.370 -3.4492  0.9221  0.3798
20693SOL     OW68041  11.590  10.085   8.140  0.2469 -0.1439 -0.1500
20693SOL    HW168042  11.505  10.053   8.110 -0.8171  1.7128  0.6659
20693SOL    HW268043  11.596  10.056   8.231 -0.8543  2.0271  0.6855
20694SOL     OW68044   6.930   2.037   5.416  0.3696 -0.2500 -0.0597
20694SOL    HW168045   6.966   1.978   5.482  0.2351  1.5911  1.7613
20694SOL    HW268046   6.835   2.030   5.427  0.3407 -0.0818 -0.2055
20695SOL     OW68047  11.741   6.809   4.957  0.6820 -0.0839 -0.5900
20695SOL    HW168048  11.657   6.834   4.995  0.7344  0.2279 -0.6717
20695SOL    HW268049  11.798   6.884   4.975  1.0415 -0.4369 -0.2296
20696SOL     OW68050  12.175   4.212   0.529  0.6740 -0.1555  0.3222
20696SOL    HW168051  12.218   4.131   0.558  0.3305 -0.0517  1.1337
20696SOL    HW268052  12.086   4.206   0.564  0.5956  0.4954  0.2419
20697SOL     OW68053   6.371   6.123   7.208 -0.6172 -0.0288  0.3727
20697SOL    HW168054   6.452   6.167   7.233 -0.8607  0.7377 -0.1582
20697SOL    HW268055   6.303   6.190   7.218 -0.7826  0.2470 -2.0172
20698SOL     OW68056   9.514  10.663   8.395  1.0415  0.1030  0.0117
20698SOL    HW168057   9.469  10.658   8.311  1.4100 -0.2962 -0.1694
20698SOL    HW268058   9.588  10.721   8.379  1.1839 -0.0738  0.0250
20699SOL     OW68059   3.717   3.071   5.598  0.3872  0.1451 -0.3821
20699SOL    HW168060   3.713   2.978   5.574 -1.5455 -0.2047  1.0939
20699SOL    HW268061   3.797   3.078   5.651  0.8897 -0.5204 -1.0228
20700SOL     OW68062   3.549   0.417   9.827  0.4827  0.0556  0.2042
20700SOL    HW168063   3.571   0.326   9.847 -1.3513 -0.0962  1.9157
20700SOL    HW268064   3.521   0.417   9.736  0.2513 -1.1729  0.2691
20701SOL     OW68065   6.632  11.015   5.084 -0.3857 -0.3927  0.3742
20701SOL    HW168066   6.603  10.978   5.001 -0.7830 -1.4360  0.9585
20701SOL    HW268067   6.711  10.967   5.106  0.0935  0.3418  0.2772
20702SOL     OW68068  11.998  10.999   3.088 -0.1757  0.0881 -0.7559
20702SOL    HW168069  12.039  10.967   3.169 -2.1063 -2.1101 -0.5384
20702SOL    HW268070  11.981  11.091   3.105 -0.2150 -0.2336  1.2561
20703SOL     OW68071  10.280   7.076  11.207  0.1952 -0.7566  0.8409
20703SOL    HW168072  10.298   7.164  11.240 -1.4081 -0.7227  1.7182
20703SOL    HW268073  10.367   7.039  11.191  0.9514  1.6089 -1.4187
20704SOL     OW68074   0.599   0.912   1.746 -0.3011 -0.0817  0.0898
20704SOL    HW168075   0.545   0.901   1.824  1.9152 -0.3136  1.6846
20704SOL    HW268076   0.605   0.824   1.708  0.8173 -0.5407  1.2554
20705SOL     OW68077   5.381   1.114   1.537 -0.7184  0.1626  0.1403
20705SOL    HW168078   5.333   1.145   1.614  0.2089 -1.1865  1.3219
20705SOL    HW268079   5.316   1.116   1.466 -2.0035  0.1412  1.2690
20706SOL     OW68080  11.074   8.405   7.132  0.1485 -0.2358 -0.3875
20706SOL    HW168081  11.141   8.362   7.185  1.9550 -0.0162 -2.3817
20706SOL    HW268082  11.059   8.345   7.059  0.6806  1.2037 -1.7353
20707SOL     OW68083   9.014   5.234  11.662 -0.1053 -0.2275  0.5599
20707SOL    HW168084   9.106   5.260  11.661 -0.1836  0.1534  1.9363
20707SOL    HW268085   8.989   5.236  11.754 -1.7889  0.6771  0.1216
20708SOL     OW68086   2.656  10.856   2.713 -0.0171  0.0068  0.3997
20708SOL    HW168087   2.738  10.809   2.726  0.4517  0.3496 -1.0905
20708SOL    HW268088   2.615  10.812   2.638 -1.9740 -1.1633  2.0699
20709SOL     OW68089   1.579   3.044   5.558 -0.1086  0.4034  0.2396
20709SOL    HW168090   1.606   2.986   5.630 -1.1937  0.4828  0.7213
20709SOL    HW268091   1.560   3.127   5.600 -1.4879  0.2379 -0.0166
20710SOL     OW68092  11.644   2.929   5.248  0.3761 -0.4744  0.1678
20710SOL    HW168093  11.633   2.837   5.269  1.9776 -0.6975  0.1889
20710SOL    HW268094  11.701   2.963   5.318  1.2434  0.0941 -0.7886
20711SOL     OW68095   1.428  10.080   7.789 -0.0721 -0.2158  0.1626
20711SOL    HW168096   1.363  10.122   7.846  0.9140 -1.0546  2.0128
20711SOL    HW268097   1.509  10.127   7.806  0.1337 -0.1184 -1.0186
20712SOL     OW68098   7.693   7.280   2.182 -0.2265 -0.6508 -0.5192
20712SOL    HW168099   7.652   7.317   2.260  0.7690 -2.0674  0.7396
20712SOL    HW268100   7.622   7.273   2.119 -1.1160  0.3156  0.3390
20713SOL     OW68101   9.220   1.576   7.087 -0.2907  0.1087  0.1794
20713SOL    HW168102   9.160   1.620   7.147  0.5554  0.9356  0.4342
20713SOL    HW268103   9.307   1.602   7.116  0.2115 -1.1848 -0.1009
20714SOL     OW68104   4.640   4.704   5.875  0.5114 -0.0635  0.5536
20714SOL    HW168105   4.550   4.683   5.852 -0.2582  0.7984  2.5243
20714SOL    HW268106   4.663   4.640   5.943  1.6882 -0.7765 -0.4850
20715SOL     OW68107   0.158  10.544   5.428  0.5827  0.6328 -0.7093
20715SOL    HW168108   0.165  10.635   5.457  0.8852  0.5959 -0.6582
20715SOL    HW268109   0.110  10.548   5.346  0.0041  0.7724 -0.3698
20716SOL     OW68110   4.193   3.667  10.912 -0.2401 -0.3625 -0.2526
20716SOL    HW168111   4.110   3.700  10.878  0.7346  0.0228 -2.4375
20716SOL    HW268112   4.257   3.733  10.887  1.0024 -1.5378 -0.2897
20717SOL     OW68113   9.079   4.082  11.461 -0.0262 -0.6318 -0.4472
20717SOL    HW168114   9.118   4.155  11.412 -1.2638  0.4008  0.0612
20717SOL    HW268115   9.142   4.064  11.531 -0.4377  1.0719  0.4208
20718SOL     OW68116   1.337   1.161   7.780 -0.0604 -0.0440  0.1723
20718SOL    HW168117   1.379   1.075   7.771 -0.3062 -0.0136 -1.5918
20718SOL    HW268118   1.274   1.165   7.708 -2.9782  0.0322  2.5264
20719SOL     OW68119  12.406   7.929  12.080 -0.3952  0.1053  0.1647
20719SOL    HW168120  12.418   7.834  12.067  0.8150  0.0194  1.5755
20719SOL    HW268121  12.384   7.962  11.993 -1.9431 -1.6110 -0.1674
20720SOL     OW68122   7.413   6.490   7.377 -0.3528  0.5863  0.5119
20720SOL    HW168123   7.438   6.567   7.326  0.9663  1.1139  1.8882
20720SOL    HW268124   7.492   6.466   7.425 -0.8366 -1.4243  0.4167
20721SOL     OW68125   2.620   7.743   5.838  0.0815  0.0581  0.3694
20721SOL    HW168126   2.606   7.740   5.744 -3.2374  0.7910  0.7092
20721SOL    HW268127   2.706   7.784   5.849  0.3587  0.3481 -2.2920
20722SOL     OW68128   5.374  10.793   7.510  0.1152  0.3724  0.3345
20722SOL    HW168129   5.414  10.869   7.551  2.4207  0.2384 -1.4718
20722SOL    HW268130   5.328  10.828   7.434  1.6998 -0.0263 -0.8560
20723SOL     OW68131   1.480   8.579  10.423  0.6264  0.4214  0.1996
20723SOL    HW168132   1.506   8.529  10.346  1.6343  3.6836 -1.7599
20723SOL    HW268133   1.392   8.612  10.403 -0.7130 -1.6262  2.1397
20724SOL     OW68134   3.830  11.619  11.001 -0.4332 -0.1482 -0.1902
20724SOL    HW168135   3.907  11.659  10.960  0.1539 -0.8336  0.1996
20724SOL    HW268136   3.769  11.691  11.013  0.9504  0.8660  1.3413
20725SOL     OW68137   4.457   6.719   1.209  0.1943 -0.1976 -0.5464
20725SOL    HW168138   4.411   6.799   1.185  0.4290  1.0677  2.6682
20725SOL    HW268139   4.541   6.750   1.244 -0.5221 -1.5357  2.7352
20726SOL     OW68140  10.282   1.871   6.141  0.5468  0.0429  0.0885
20726SOL    HW168141  10.230   1.886   6.061 -0.8889  0.3482  1.0364
20726SOL    HW268142  10.219   1.836   6.204  1.5691  0.1608  1.2052
20727SOL     OW68143   6.124   0.624   5.732 -1.0431  0.1431 -0.2800
20727SOL    HW168144   6.089   0.607   5.820  0.5077  0.5470  0.4477
20727SOL    HW268145   6.187   0.695   5.744  1.0895 -1.4433 -1.2252
20728SOL     OW68146   9.229  10.597   7.530  0.7449  0.1548 -0.5968
20728SOL    HW168147   9.188  10.663   7.474  0.3118  1.3475  1.0251
20728SOL    HW268148   9.167  10.524   7.530 -1.4725  1.8368  1.6272
20729SOL     OW68149   9.601   2.132   0.355 -0.4158  0.3433  0.2394
20729SOL    HW168150   9.678   2.161   0.403 -0.1389  0.0713 -0.0304
20729SOL    HW268151   9.578   2.048   0.395  0.0370 -0.0630 -0.3328
20730SOL     OW68152  10.477   6.291   0.829  0.5558 -0.1746 -0.3297
20730SOL    HW168153  10.513   6.244   0.753  1.0279  1.8987 -1.4675
20730SOL    HW268154  10.392   6.322   0.800  1.2852  1.7636 -0.5585
20731SOL     OW68155   1.652   6.541   6.413  0.1376 -0.0808 -0.0045
20731SOL    HW168156   1.682   6.587   6.491  0.0372  0.4023 -0.2460
20731SOL    HW268157   1.700   6.582   6.341  1.5503 -1.6649 -0.0466
20732SOL     OW68158   6.959   2.218   2.450 -0.3919  0.2540 -0.2162
20732SOL    HW168159   7.017   2.288   2.481 -0.1647 -0.3991  0.8841
20732SOL    HW268160   6.923   2.252   2.368  1.7397  0.5963 -1.0901
20733SOL     OW68161   8.178   9.808  10.933  0.3817  1.0886  0.4597
20733SOL    HW168162   8.103   9.749  10.930  1.0240  0.0070  3.2936
20733SOL    HW268163   8.147   9.885  10.981  0.5476  1.5215 -0.1126
20734SOL     OW68164   7.485   2.748   3.079  0.3417  0.4093  0.1485
20734SOL    HW168165   7.500   2.684   3.149  0.5927  0.7836  0.4334
20734SOL    HW268166   7.397   2.727   3.047 -0.6747  1.5880  1.9975
20735SOL     OW68167  11.591   2.364   4.746 -0.4779  0.0536 -0.0264
20735SOL    HW168168  11.632   2.433   4.696 -0.7906  0.3801  0.1616
20735SOL    HW268169  11.645   2.287   4.731  1.5413  0.9708  2.0102
20736SOL     OW68170   9.654   0.959   3.543 -0.0389 -0.3635  0.1787
20736SOL    HW168171   9.683   0.915   3.463 -2.5005 -0.6312 -0.6566
20736SOL    HW268172   9.725   1.019   3.564  2.6579 -3.3457  0.3478
20737SOL     OW68173   2.216   1.175   7.281 -0.4097  0.2642 -0.3566
20737SOL    HW168174   2.157   1.246   7.256  0.7999  1.0826 -0.9924
20737SOL    HW268175   2.182   1.098   7.236 -1.1256  0.6578 -0.5025
20738SOL     OW68176   9.017   4.554  10.789  0.0452 -0.1806 -0.2300
20738SOL    HW168177   9.005   4.460  10.782  0.6693 -0.3591  0.9844
20738SOL    HW268178   9.110   4.566  10.808 -0.2589  0.5941  0.9070
20739SOL     OW68179   2.972   5.027   5.850 -0.9700 -0.3739  0.5125
20739SOL    HW168180   3.029   4.962   5.809 -2.1771 -0.9175 -0.3524
20739SOL    HW268181   2.884   4.991   5.841 -1.4972  0.5984  1.5407
20740SOL     OW68182   0.593   2.263   6.516 -0.1527  0.2738 -0.1456
20740SOL    HW168183   0.655   2.274   6.444 -0.4367 -0.7827 -0.5684
20740SOL    HW268184   0.635   2.200   6.574  1.1431  2.8168  1.8802
20741SOL     OW68185  12.149   2.950   7.146  0.1066 -0.2283  0.2218
20741SOL    HW168186  12.113   2.872   7.187 -0.5238 -0.0800 -0.0313
20741SOL    HW268187  12.080   3.016   7.156  0.9444  0.5332  1.1396
20742SOL     OW68188  10.047   4.532   8.717 -0.0993  0.6137  0.9784
20742SOL    HW168189  10.137   4.555   8.737 -0.5049  0.8776  2.6745
20742SOL    HW268190  10.053   4.456   8.659  1.1996  0.8779  0.7548
20743SOL     OW68191   7.287  10.926   0.451 -0.1850  0.2477  0.0439
20743SOL    HW168192   7.325  10.893   0.532 -0.6278 -1.4075 -0.3776
20743SOL    HW268193   7.362  10.952   0.398  0.1101  1.1941  0.9103
20744SOL     OW68194   5.247   4.346   3.529  0.3964  0.6954  0.2742
20744SOL    HW168195   5.262   4.256   3.502 -2.4674  0.1263  0.3283
20744SOL    HW268196   5.245   4.343   3.625 -0.2701  0.6819  0.2663
20745SOL     OW68197   4.179   7.340  10.086  0.0475 -0.5432 -0.1989
20745SOL    HW168198   4.209   7.338   9.995  0.5364  1.2191 -0.1140
20745SOL    HW268199   4.083   7.332  10.080  0.1622 -1.7284 -0.7583
20746SOL     OW68200   2.296   9.037   1.119 -0.0411  0.1377  0.5581
20746SOL    HW168201   2.322   9.114   1.170  1.2155  0.5042 -0.5850
20746SOL    HW268202   2.283   8.968   1.184  1.0788  0.7169  1.4185
20747SOL     OW68203   9.277  10.685   8.581 -0.6525  0.0270  0.0566
20747SOL    HW168204   9.355  10.716   8.534 -0.8606  0.2895 -0.1139
20747SOL    HW268205   9.246  10.611   8.528  0.4602 -1.1861  1.0284
20748SOL     OW68206   3.144  12.480   1.395  0.2453  0.0327  0.4351
20748SOL    HW168207   3.170  12.388   1.402  0.5189 -0.1112 -1.7009
20748SOL    HW268208   3.054  12.482   1.427 -0.3254 -1.3314 -0.9194
20749SOL     OW68209   6.280   6.003   1.374  0.7055  0.3130 -0.1887
20749SOL    HW168210   6.217   5.985   1.305  0.3717  0.1217  0.1645
20749SOL    HW268211   6.365   5.994   1.331  0.5530 -1.5374 -0.1684
20750SOL     OW68212  11.422   8.112   1.081  0.4636 -0.0241 -0.4472
20750SOL    HW168213  11.495   8.141   1.135 -0.4282  1.8483 -0.1642
20750SOL    HW268214  11.421   8.017   1.090 -0.0533  0.1881  3.4026
20751SOL     OW68215  10.390   6.742   5.301 -0.0287 -0.2794 -0.4118
20751SOL    HW168216  10.458   6.803   5.273  1.4384 -1.8006 -0.3133
20751SOL    HW268217  10.386   6.753   5.396 -1.0946  0.9496 -0.5763
20752SOL     OW68218   3.600   1.697   7.046  0.1741  0.1356 -0.7365
20752SOL    HW168219   3.653   1.768   7.011  0.6778 -0.1475 -0.5593
20752SOL    HW268220   3.627   1.620   6.996 -0.1261  0.0072 -0.7019
20753SOL     OW68221   6.636   1.601   0.536  0.1322 -0.1488 -0.5147
20753SOL    HW168222   6.609   1.691   0.517 -0.5457 -0.0553  0.7952
20753SOL    HW268223   6.684   1.607   0.618 -2.5516 -1.3571  1.2617
20754SOL     OW68224   4.756   5.261   4.850 -0.0320  0.5607 -0.4301
20754SOL    HW168225   4.805   5.230   4.926 -0.5711  1.4621  0.3118
20754SOL    HW268226   4.799   5.219   4.776  1.3097  0.6297  0.2600
20755SOL     OW68227   7.349  11.971   1.501 -0.3674  0.5516  0.2830
20755SOL    HW168228   7.433  11.995   1.463 -0.7820 -0.5702 -1.4123
20755SOL    HW268229   7.353  11.876   1.513 -0.7165  0.7078  1.9694
20756SOL     OW68230   6.823   0.205   5.769 -0.1795 -0.1863 -0.4967
20756SOL    HW168231   6.733   0.238   5.772  0.2307  1.1578 -1.8005
20756SOL    HW268232   6.873   0.276   5.730  2.1138  0.4335  3.1401
20757SOL     OW68233   8.075   5.465   5.373  0.2526  0.1315  0.5754
20757SOL    HW168234   8.103   5.513   5.296  0.8854  0.5686  1.0635
20757SOL    HW268235   8.001   5.516   5.408 -1.4464 -1.2035 -0.9026
20758SOL     OW68236   9.974   6.530   6.961  0.2020  0.0417  0.6806
20758SOL    HW168237   9.882   6.504   6.968  0.2895 -0.7481 -0.7571
20758SOL    HW268238  10.023   6.448   6.969  0.6534  0.1511 -0.6777
20759SOL     OW68239   1.185   8.205   3.578  0.5992  0.5737  0.3628
20759SOL    HW168240   1.169   8.251   3.496  1.4337  3.0559  1.5043
20759SOL    HW268241   1.178   8.112   3.555 -1.8883  1.2089 -1.9138
20760SOL     OW68242   0.090   5.217  11.072  0.2975  0.1572  0.3645
20760SOL    HW168243   0.130   5.139  11.034 -0.6397 -0.9936  1.6222
20760SOL    HW268244   0.156   5.252  11.132  0.7533  0.3765 -0.2657
20761SOL     OW68245   8.827   9.222   0.445  0.7157 -0.5212 -0.6630
20761SOL    HW168246   8.826   9.136   0.487 -0.1866 -0.5667 -0.7527
20761SOL    HW268247   8.917   9.254   0.457  0.4217 -0.3617  1.6251
20762SOL     OW68248   9.320   6.479   6.824 -0.0035 -0.8447  0.0112
20762SOL    HW168249   9.341   6.545   6.758 -0.0840 -0.7369  0.0942
20762SOL    HW268250   9.279   6.528   6.895  0.4523 -0.8971  0.3199
20763SOL     OW68251   4.330   6.580   5.397  0.4844  0.5048  0.4735
20763SOL    HW168252   4.238   6.559   5.416  0.2662  0.2139 -0.8511
20763SOL    HW268253   4.327   6.666   5.356  0.8025  0.4416  0.3190
20764SOL     OW68254   8.919   9.516   0.335  0.0214 -0.1351 -0.2783
20764SOL    HW168255   8.906   9.611   0.342 -0.1309 -0.1847  0.1638
20764SOL    HW268256   8.870   9.491   0.256  0.1676  0.1733 -0.4648
20765SOL     OW68257   7.916   9.519   4.239 -0.0173  0.3684 -0.2816
20765SOL    HW168258   7.962   9.575   4.301 -2.5468 -1.4214  3.5718
20765SOL    HW268259   7.986   9.470   4.195  1.9877  3.1716 -0.4918
20766SOL     OW68260  10.844   1.862   3.729  0.4556  0.6511  0.0825
20766SOL    HW168261  10.869   1.914   3.653  1.9083 -0.4058 -0.2058
20766SOL    HW268262  10.858   1.771   3.701 -0.6290  0.1657  1.0528
20767SOL     OW68263  12.111   3.176   5.504  0.4245 -0.3860  0.4612
20767SOL    HW168264  12.062   3.160   5.424  0.5906 -0.4105  0.3631
20767SOL    HW268265  12.083   3.263   5.532  0.1728 -0.4851  0.5198
20768SOL     OW68266   4.977   2.820   3.085 -0.0698 -0.4901 -0.3296
20768SOL    HW168267   4.983   2.724   3.087 -0.6324 -0.5287  1.0585
20768SOL    HW268268   4.883   2.838   3.092  0.1477  0.1489  1.5569
20769SOL     OW68269  10.936   5.356   0.444  0.1257  0.0941  0.2942
20769SOL    HW168270  10.930   5.383   0.352  0.5994 -1.4642 -0.2210
20769SOL    HW268271  11.029   5.355   0.462  0.1148 -1.0788  0.3199
20770SOL     OW68272   2.919   6.957   9.658  0.3911 -0.1287  0.2907
20770SOL    HW168273   2.925   7.035   9.603 -2.6098 -0.8171 -1.2420
20770SOL    HW268274   2.897   6.886   9.597  1.1221 -1.8122  1.8793
20771SOL     OW68275   7.933   7.640  10.783  0.7164 -0.2615  0.0625
20771SOL    HW168276   7.973   7.560  10.748  0.2263 -0.2780 -0.4810
20771SOL    HW268277   7.968   7.647  10.872  0.0922 -1.5766  0.4493
20772SOL     OW68278   9.029   1.395   8.611  0.1702  0.0676 -0.2451
20772SOL    HW168279   8.944   1.402   8.656 -0.0869 -1.5010 -0.4145
20772SOL    HW268280   9.012   1.426   8.522 -0.0406  0.4291 -0.0833
20773SOL     OW68281   5.954   7.825   2.465 -0.7427  0.2326 -0.4842
20773SOL    HW168282   5.924   7.881   2.393  0.3372  0.5196 -0.7395
20773SOL    HW268283   5.932   7.874   2.544  0.3525  1.1524 -0.7098
20774SOL     OW68284   3.953   6.839  12.161  0.3856 -0.0591  0.0713
20774SOL    HW168285   3.898   6.886  12.223  0.1156  1.9292 -1.5648
20774SOL    HW268286   3.893   6.779  12.116  0.7584 -2.2731  2.2624
20775SOL     OW68287   7.413  12.377   0.602 -0.4612  0.2907  0.2452
20775SOL    HW168288   7.424  12.292   0.559 -2.0949  0.6092 -0.9088
20775SOL    HW268289   7.409  12.357   0.695  1.1815 -0.6464  0.1637
20776SOL     OW68290   4.841   4.320   8.893  0.6225 -0.0216 -0.5171
20776SOL    HW168291   4.893   4.259   8.841 -1.9177 -1.7725 -1.2093
20776SOL    HW268292   4.806   4.383   8.829 -0.2400 -0.4783 -0.5064
20777SOL     OW68293   2.009  11.322   2.610  0.2320 -0.0226  0.4095
20777SOL    HW168294   1.957  11.348   2.686 -2.5654 -0.5528 -1.1822
20777SOL    HW268295   2.050  11.403   2.580 -1.5269  0.9350  0.4488
20778SOL     OW68296   6.519   7.327   3.116 -0.2961 -0.3216 -0.9290
20778SOL    HW168297   6.521   7.359   3.206  0.7423  2.0073 -1.7031
20778SOL    HW268298   6.428   7.337   3.088 -0.2245  0.9064 -0.7631
20779SOL     OW68299   8.776  11.559   3.950 -0.2870  0.2951  0.5043
20779SOL    HW168300   8.807  11.547   4.040  0.8522  1.7168  0.3445
20779SOL    HW268301   8.695  11.508   3.945 -1.0362  1.1545  2.6930
20780SOL     OW68302  12.176   8.360   4.909  0.2392 -0.2437 -0.5844
20780SOL    HW168303  12.269   8.343   4.895  0.5291  0.5337  0.2719
20780SOL    HW268304  12.152   8.422   4.840  0.3317 -0.5001 -0.8489
20781SOL     OW68305   0.984   2.250   2.209 -0.1803  0.4101  0.3818
20781SOL    HW168306   1.016   2.297   2.286 -0.1856 -0.7634  1.1259
20781SOL    HW268307   0.889   2.246   2.221 -0.1980  0.3682  0.2292
20782SOL     OW68308   4.458   6.470   2.734 -0.5120 -0.3868  0.2790
20782SOL    HW168309   4.497   6.423   2.807 -2.2381 -0.9497  0.8813
20782SOL    HW268310   4.376   6.425   2.717 -0.9471  0.7764 -0.9137
20783SOL     OW68311   3.738   5.930   8.705  0.3293 -0.3435  0.2569
20783SOL    HW168312   3.800   5.917   8.633 -0.6750  0.8916 -0.8679
20783SOL    HW268313   3.779   5.886   8.779  3.2938  1.5607 -0.0580
20784SOL     OW68314   9.125   9.273   1.549 -0.0542 -0.2659 -0.1004
20784SOL    HW168315   9.106   9.367   1.546 -1.7807 -0.5733 -0.2238
20784SOL    HW268316   9.191   9.260   1.482  1.4238  1.0830  1.0170
20785SOL     OW68317   7.475   4.422  11.595  0.0005  0.5778 -0.0233
20785SOL    HW168318   7.501   4.429  11.503  0.7751 -2.7747 -0.1968
20785SOL    HW268319   7.558   4.415  11.642 -0.3761 -1.1979  0.4583
20786SOL     OW68320   6.848   1.738   1.766 -0.0079  0.4048  0.2423
20786SOL    HW168321   6.897   1.729   1.848 -1.7699 -1.8616  1.1591
20786SOL    HW268322   6.759   1.710   1.788 -0.5023 -0.4334 -2.4644
20787SOL     OW68323   9.186   3.613   2.930  0.4055  0.2519 -0.1544
20787SOL    HW168324   9.182   3.624   3.025  0.3838 -0.7851 -0.0136
20787SOL    HW268325   9.143   3.529   2.914  1.9283 -0.4340 -0.8912
20788SOL     OW68326   8.705  11.091  10.576 -0.2397  0.1623  1.1822
20788SOL    HW168327   8.655  11.119  10.500 -0.4331 -0.7872  0.9398
20788SOL    HW268328   8.780  11.150  10.578  0.1494 -0.2438 -0.1794
20789SOL     OW68329  10.051   5.806   7.957  0.5085 -0.5734 -0.1738
20789SOL    HW168330   9.965   5.835   7.925  0.0969 -1.0421  0.4832
20789SOL    HW268331  10.096   5.887   7.982  0.5570 -0.2661 -1.2449
20790SOL     OW68332   3.095   5.458   6.926  0.7075  0.2448 -0.4122
20790SOL    HW168333   3.138   5.507   6.995  1.0533  0.5652 -0.8501
20790SOL    HW268334   3.039   5.396   6.972  0.2221  1.0826  0.1517
20791SOL     OW68335  10.092  10.793   5.387  0.2425 -0.2638  0.1781
20791SOL    HW168336  10.038  10.810   5.309 -1.8197 -2.4442  1.0325
20791SOL    HW268337  10.167  10.744   5.353  0.6923  0.9871 -0.7374
20792SOL     OW68338   8.078   9.691   3.901 -0.9244  0.2845 -0.5137
20792SOL    HW168339   8.043   9.754   3.964  2.0432  2.2156 -0.6010
20792SOL    HW268340   8.160   9.730   3.871 -0.0304 -2.6368 -2.3034
20793SOL     OW68341   3.584   2.370   2.569  0.4994 -0.1856  0.0536
20793SOL    HW168342   3.552   2.349   2.481  2.6098 -0.6839 -0.6637
20793SOL    HW268343   3.586   2.286   2.614 -3.0404  0.3953  1.5550
20794SOL     OW68344   5.450  10.238   2.028  0.0101 -0.3720  0.3670
20794SOL    HW168345   5.379  10.193   2.074 -0.1278 -0.6424 -0.1062
20794SOL    HW268346   5.525  10.178   2.035  0.1188 -0.2040  0.6398
20795SOL     OW68347   2.553   1.552   2.037 -0.3263  0.0992 -0.3580
20795SOL    HW168348   2.477   1.596   2.074 -0.8195 -0.7995 -0.2763
20795SOL    HW268349   2.596   1.619   1.984 -0.3501  1.0292  0.7632
20796SOL     OW68350   4.841  10.827  11.215  0.4732  0.1541  0.6996
20796SOL    HW168351   4.751  10.822  11.247  0.7609  1.2656  1.7594
20796SOL    HW268352   4.883  10.890  11.273  1.5632  0.7365 -0.6645
20797SOL     OW68353  11.881   3.077   2.281 -0.1037 -0.0919  0.0576
20797SOL    HW168354  11.865   3.164   2.318  1.3611 -0.0822  0.7543
20797SOL    HW268355  11.959   3.088   2.227  0.4062 -1.0605  0.5664
20798SOL     OW68356   1.419   7.857   0.949 -0.0364  0.2026 -0.1810
20798SOL    HW168357   1.381   7.907   0.877  2.5084  2.0235 -0.3919
20798SOL    HW268358   1.505   7.829   0.917  0.3448 -0.6424  1.4728
20799SOL     OW68359   1.175   0.626   1.941  0.0576  0.0130  0.1985
20799SOL    HW168360   1.200   0.536   1.965 -0.1122 -0.7028 -2.0102
20799SOL    HW268361   1.163   0.671   2.024  1.7198 -1.5696  1.3789
20800SOL     OW68362  11.512  11.904   2.435 -0.6210  0.1249 -0.2932
20800SOL    HW168363  11.586  11.888   2.493 -1.1971  0.2439  0.4863
20800SOL    HW268364  11.456  11.827   2.446 -0.6283  0.0439 -0.8620
20801SOL     OW68365   1.556   2.148   4.795  0.2417  0.1664  0.2292
20801SOL    HW168366   1.518   2.078   4.847  1.7461 -0.6138  0.3310
20801SOL    HW268367   1.481   2.198   4.763 -0.8093 -0.8601  1.0256
20802SOL     OW68368   5.200   9.579   3.620 -0.7823  0.1321 -0.7777
20802SOL    HW168369   5.293   9.558   3.609 -0.8431 -0.4696 -0.1949
20802SOL    HW268370   5.171   9.523   3.691 -1.8710 -0.5127 -1.6954
20803SOL     OW68371   4.143   6.370   9.808 -0.1030 -0.2197 -0.0260
20803SOL    HW168372   4.208   6.353   9.876 -0.4444  0.1659  0.3958
20803SOL    HW268373   4.134   6.286   9.763  1.0169 -0.1608 -0.3812
20804SOL     OW68374   9.028   6.981   2.328  0.9159 -0.2126 -0.3431
20804SOL    HW168375   9.100   7.025   2.282  0.7741 -0.5327 -0.8782
20804SOL    HW268376   8.957   7.045   2.326  1.0121 -0.1021 -0.2874
20805SOL     OW68377   4.434   8.174  12.228  0.0039 -0.1173  0.1498
20805SOL    HW168378   4.412   8.259  12.189  0.1590 -0.2318 -0.1937
20805SOL    HW268379   4.362   8.156  12.289 -0.9327 -0.5111 -1.0028
20806SOL     OW68380   2.075  10.135   5.070  0.5234  0.2980  0.0333
20806SOL    HW168381   2.141  10.151   5.137 -0.9027 -3.2178  2.6198
20806SOL    HW268382   2.125  10.108   4.993  2.1616  1.7830  0.5153
20807SOL     OW68383   1.642   2.950   5.816  0.0558 -0.9333  0.0407
20807SOL    HW168384   1.724   2.902   5.829  1.5805  1.4025 -0.3843
20807SOL    HW268385   1.593   2.936   5.897  1.3787 -1.4343  0.7870
20808SOL     OW68386   7.375   7.911   7.056 -0.1313  0.1932  0.1455
20808SOL    HW168387   7.369   7.816   7.048  0.5590  0.2486 -1.4234
20808SOL    HW268388   7.466   7.928   7.077 -0.6771  0.4420  2.6148
20809SOL     OW68389   1.248  11.745   3.705  0.3656 -0.2683 -0.2641
20809SOL    HW168390   1.329  11.699   3.727  1.2497  1.4168  0.2258
20809SOL    HW268391   1.190  11.677   3.671  0.7746 -2.1415  2.4723
20810SOL     OW68392   3.709  10.536   5.873 -0.0580 -0.1123  0.1551
20810SOL    HW168393   3.720  10.540   5.778 -0.0745 -1.3626  0.0865
20810SOL    HW268394   3.772  10.600   5.907  0.2924 -0.0020 -0.6747
20811SOL     OW68395   5.472   5.596   6.838  0.0560  0.0234 -0.2264
20811SOL    HW168396   5.461   5.618   6.745 -0.5451 -0.6568 -0.3279
20811SOL    HW268397   5.453   5.677   6.884 -1.0315  0.0259 -0.6410
20812SOL     OW68398  10.363   3.778   0.887 -0.1654 -0.3702  0.2133
20812SOL    HW168399  10.438   3.830   0.919 -2.1214  2.3812  0.7393
20812SOL    HW268400  10.323   3.744   0.966 -0.6032 -0.0986  0.1124
20813SOL     OW68401   4.301   1.412  10.584  0.0617  0.2763  0.3829
20813SOL    HW168402   4.275   1.402  10.675  0.7073  0.3300  0.5780
20813SOL    HW268403   4.278   1.328  10.544  0.2104  0.0830  0.7024
20814SOL     OW68404   4.823   3.612   0.926 -0.0624  0.0347 -0.5073
20814SOL    HW168405   4.776   3.686   0.889 -1.6789 -1.9743 -2.7228
20814SOL    HW268406   4.772   3.587   1.004 -0.6739  0.0342 -0.9029
20815SOL     OW68407   6.138  10.806  11.752  0.3499 -0.3092 -0.3577
20815SOL    HW168408   6.154  10.722  11.795 -0.6942 -0.0748  0.5417
20815SOL    HW268409   6.073  10.849  11.807  2.5278  2.0972  0.5184
20816SOL     OW68410   7.690   2.308   8.660  0.3960  0.1775 -0.2177
20816SOL    HW168411   7.765   2.255   8.634  0.4626 -0.1260  0.5730
20816SOL    HW268412   7.729   2.383   8.706  0.1984 -0.3396  0.8236
20817SOL     OW68413  11.423   1.928   2.459 -0.3964  0.3593 -0.3811
20817SOL    HW168414  11.389   1.863   2.520  1.4432 -0.5148 -0.2066
20817SOL    HW268415  11.486   1.979   2.510  0.8921 -0.1389 -1.3847
20818SOL     OW68416   5.548  10.760   4.903 -0.0678 -0.0312 -0.3088
20818SOL    HW168417   5.603  10.787   4.829  0.2519 -0.7225 -0.3296
20818SOL    HW268418   5.573  10.819   4.974 -1.8994  2.1081 -1.3032
20819SOL     OW68419   1.059  12.163   2.131 -0.0694 -0.0400  0.6064
20819SOL    HW168420   1.101  12.105   2.067 -2.6450 -0.3023 -1.0061
20819SOL    HW268421   1.063  12.114   2.213  0.6194 -1.0791 -0.0131
20820SOL     OW68422   3.646  10.815   9.376 -0.1805  0.0292 -0.1642
20820SOL    HW168423   3.569  10.833   9.429  0.5272  0.0725  0.8825
20820SOL    HW268424   3.636  10.870   9.298 -0.6900  0.8295  0.4523
20821SOL     OW68425   2.743   5.865   1.144 -0.7413 -0.6909  0.3884
20821SOL    HW168426   2.752   5.900   1.232 -0.2678 -0.1799  0.1438
20821SOL    HW268427   2.811   5.798   1.137 -0.0224  0.0533  0.0438
20822SOL     OW68428   5.871   1.821   2.934 -0.4135 -0.3122  0.0101
20822SOL    HW168429   5.814   1.886   2.892  0.0727 -1.0870 -1.9657
20822SOL    HW268430   5.876   1.750   2.870  0.9506 -1.2544  1.1279
20823SOL     OW68431   0.975  10.474   0.273  0.3192 -0.1800 -0.8334
20823SOL    HW168432   1.015  10.514   0.195  0.8878  1.0175  0.0271
20823SOL    HW268433   0.976  10.545   0.338 -2.8422 -0.2154 -0.6157
20824SOL     OW68434  11.927   0.575   6.563  0.3125  0.3639  0.5355
20824SOL    HW168435  11.969   0.547   6.481 -1.0025  0.9628 -0.3752
20824SOL    HW268436  11.941   0.501   6.623  0.1870 -0.6505 -0.6287
20825SOL     OW68437  12.251   2.397   3.870  0.0398  0.4884 -0.3423
20825SOL    HW168438  12.223   2.336   3.801 -1.1541  1.1456 -0.4611
20825SOL    HW268439  12.281   2.474   3.822 -0.7871  0.9443 -0.1512
20826SOL     OW68440  12.215   6.943   3.527  0.0619  0.5654  0.0208
20826SOL    HW168441  12.123   6.969   3.520 -0.7630 -2.3035 -0.9208
20826SOL    HW268442  12.240   6.918   3.438  1.1777 -0.5004  0.6116
20827SOL     OW68443   2.924  10.755   8.311  0.1368  0.5929  0.0646
20827SOL    HW168444   2.953  10.753   8.220  0.3831 -0.3832  0.1547
20827SOL    HW268445   2.932  10.665   8.341 -1.4631  0.5929  0.5887
20828SOL     OW68446   9.957   8.403   6.641 -0.1554 -0.0167 -0.3055
20828SOL    HW168447   9.906   8.323   6.644  0.1693 -0.4064 -2.7872
20828SOL    HW268448   9.892   8.473   6.640 -0.4549 -0.2414  1.1946
20829SOL     OW68449   2.360   6.818   1.222  0.4022 -0.0091 -0.0621
20829SOL    HW168450   2.446   6.794   1.190  0.3745 -0.4336  0.1691
20829SOL    HW268451   2.324   6.876   1.155  1.0459  0.5378  0.0613
20830SOL     OW68452   3.214   2.822   9.044  0.4080 -0.3285 -0.2537
20830SOL    HW168453   3.293   2.864   9.079  1.6360 -1.7609 -1.1699
20830SOL    HW268454   3.246   2.742   9.003 -1.3843 -0.3866 -1.6827
20831SOL     OW68455  10.749   1.880   1.432  0.3197 -0.2822  0.4237
20831SOL    HW168456  10.705   1.951   1.478  0.4938 -0.1786  0.4314
20831SOL    HW268457  10.808   1.842   1.497  0.4854 -0.2066  0.3184
20832SOL     OW68458   3.860   3.532   5.029 -0.4447 -0.7395 -0.0593
20832SOL    HW168459   3.837   3.442   5.004  0.6444 -0.4514 -2.2654
20832SOL    HW268460   3.783   3.583   5.005 -0.7394 -0.9450  0.4238
20833SOL     OW68461   5.585  11.024   8.791 -0.2603 -0.4251 -0.1951
20833SOL    HW168462   5.580  10.947   8.734 -0.6392  0.4755 -1.4121
20833SOL    HW268463   5.665  11.069   8.763 -0.0677 -0.3408  0.4748
20834SOL     OW68464   3.149   0.573  10.510 -0.4318 -0.6847  0.8139
20834SOL    HW168465   3.139   0.567  10.604  1.8642 -1.1627  1.0957
20834SOL    HW268466   3.236   0.612  10.497 -1.1065  0.3621 -1.1179
20835SOL     OW68467  12.166   6.248   8.303  0.4489 -0.3268 -0.4055
20835SOL    HW168468  12.192   6.296   8.224  0.1983  0.4247 -0.0384
20835SOL    HW268469  12.247   6.206   8.333  0.4495 -1.0300 -1.3259
20836SOL     OW68470  10.355   0.324   2.714  0.5181  0.1218 -0.0626
20836SOL    HW168471  10.366   0.352   2.805  1.6289 -1.5858  0.3904
20836SOL    HW268472  10.444   0.328   2.678  0.1433  0.4172 -0.9611
20837SOL     OW68473   1.438   0.650   8.156 -0.1216  0.3433 -0.7473
20837SOL    HW168474   1.379   0.698   8.214  1.4465  1.4396  0.0396
20837SOL    HW268475   1.452   0.567   8.201  2.6091  1.9047  1.6592
20838SOL     OW68476   3.372   1.441   5.302 -0.2482 -0.0098 -0.2709
20838SOL    HW168477   3.464   1.420   5.315 -0.6086 -0.5133  1.9097
20838SOL    HW268478   3.336   1.366   5.255  0.5335  0.3997 -1.5391
20839SOL     OW68479   0.418   8.172  10.446  0.4857 -0.1284  0.0369
20839SOL    HW168480   0.415   8.245  10.384  0.1821  1.1182  1.4458
20839SOL    HW268481   0.502   8.181  10.490  2.0065 -2.6929 -2.0385
20840SOL     OW68482   8.505  12.081   8.450  0.3161  0.0374 -0.2612
20840SOL    HW168483   8.588  12.033   8.459  1.1575  1.6863  1.4412
20840SOL    HW268484   8.530  12.173   8.453 -1.6720  0.6228  2.2475
20841SOL     OW68485   0.588   9.078   6.295  0.3448 -0.2572  0.1768
20841SOL    HW168486   0.595   8.999   6.242 -0.1341 -0.1213 -0.0981
20841SOL    HW268487   0.672   9.122   6.283 -0.4355  0.8029 -2.1553
20842SOL     OW68488   9.123   8.662   3.872  0.1996 -0.2811  0.0505
20842SOL    HW168489   9.047   8.628   3.920  0.1977 -1.1950 -0.5633
20842SOL    HW268490   9.087   8.698   3.791  0.4547 -1.1894 -0.4814
20843SOL     OW68491   8.940   3.198  11.946 -0.5533 -0.0204  0.4928
20843SOL    HW168492   8.905   3.113  11.921  0.4363  0.2060 -1.9121
20843SOL    HW268493   9.015   3.179  12.001 -1.1458 -0.6355  1.1077
20844SOL     OW68494   7.642  11.430   2.725  0.4863 -0.6877 -0.0366
20844SOL    HW168495   7.714  11.409   2.665  0.4633 -0.4120 -0.1643
20844SOL    HW268496   7.572  11.463   2.668  0.0932 -1.3788  0.0412
20845SOL     OW68497  10.232   6.608   3.609  0.3254 -0.8659  0.5365
20845SOL    HW168498  10.254   6.660   3.686  0.9396 -2.0540  1.1980
20845SOL    HW268499  10.306   6.620   3.549 -1.2187  2.0054 -1.0022
20846SOL     OW68500   5.315   6.209  11.080  0.2657 -0.5102 -0.0023
20846SOL    HW168501   5.401   6.181  11.108  0.7358  0.3028 -0.5650
20846SOL    HW268502   5.332   6.265  11.004 -0.7248 -0.0332  0.1072
20847SOL     OW68503  11.316   2.772  12.235 -0.4602 -0.3566  0.0688
20847SOL    HW168504  11.349   2.738  12.319 -1.4043 -2.3971 -0.3230
20847SOL    HW268505  11.393   2.809  12.192  0.7223 -2.2121  0.4873
20848SOL     OW68506   7.695   1.618   2.049 -0.2930  0.0198 -0.1090
20848SOL    HW168507   7.633   1.674   2.003  0.4113 -0.3071 -1.5063
20848SOL    HW268508   7.745   1.576   1.980  2.0500  0.8785  0.9564
20849SOL     OW68509   9.657   1.051  10.019  0.5670  0.1648  0.0637
20849SOL    HW168510   9.619   0.977   9.972 -0.0634  1.1041 -0.9629
20849SOL    HW268511   9.585   1.112  10.029  1.0362  0.5661  1.0612
20850SOL     OW68512   4.516   7.360   8.971 -0.2619  0.3750 -0.7239
20850SOL    HW168513   4.575   7.435   8.975  0.0885  0.1076 -0.8611
20850SOL    HW268514   4.490   7.345   9.062  0.5964 -0.0671 -0.5341
20851SOL     OW68515   9.233   2.424   7.074 -0.0988  0.1863  0.0852
20851SOL    HW168516   9.191   2.367   7.138  0.1744 -1.0054 -0.7544
20851SOL    HW268517   9.311   2.376   7.046 -0.5665  0.3337 -1.6407
20852SOL     OW68518   2.423  10.609   1.919 -0.2552 -0.1928 -0.7848
20852SOL    HW168519   2.382  10.522   1.922 -0.4481 -0.0737  1.6073
20852SOL    HW268520   2.350  10.670   1.912 -0.3820 -0.1026  0.9389
20853SOL     OW68521   1.445   0.437   8.311 -0.1668  0.2117  0.0488
20853SOL    HW168522   1.476   0.351   8.339 -2.4603  0.0719  2.5900
20853SOL    HW268523   1.504   0.499   8.353  0.2130 -0.0980 -0.0292
20854SOL     OW68524   2.050   2.835   9.879 -0.6178  0.0093  0.4268
20854SOL    HW168525   2.044   2.923   9.841  0.4181 -0.2271 -0.3278
20854SOL    HW268526   2.143   2.814   9.876 -0.8096 -0.9707  0.9500
20855SOL     OW68527   8.960   7.681   7.286  0.0864  0.2483 -0.4984
20855SOL    HW168528   8.975   7.735   7.364  0.8825  0.0308 -0.4841
20855SOL    HW268529   9.035   7.700   7.230  0.9224 -1.5625 -0.0791
20856SOL     OW68530   3.601   9.924   2.407 -0.4598 -0.1111  0.0085
20856SOL    HW168531   3.522   9.887   2.367 -1.5367  1.7487  0.3145
20856SOL    HW268532   3.630   9.991   2.345 -1.1586  1.6090  1.4674
20857SOL     OW68533   9.300  11.996  11.907  0.3844 -0.2506 -0.1539
20857SOL    HW168534   9.391  11.974  11.886  0.5581  0.3096  0.0150
20857SOL    HW268535   9.306  12.069  11.968 -0.1155 -1.8432  1.9057
20858SOL     OW68536   0.436  10.243   2.803  0.1832 -0.1642 -0.2798
20858SOL    HW168537   0.464  10.177   2.740  0.0499  0.0218 -0.5369
20858SOL    HW268538   0.512  10.300   2.813  1.3123 -1.9151  2.0654
20859SOL     OW68539   7.627   1.833   0.220  0.0605  0.2695 -0.1166
20859SOL    HW168540   7.678   1.778   0.160  0.9500  0.0497  0.8103
20859SOL    HW268541   7.687   1.850   0.293 -0.7288  1.1959  0.3322
20860SOL     OW68542   4.848   5.064   1.027 -0.5236 -0.2344 -0.0814
20860SOL    HW168543   4.910   5.101   0.964  0.6195  1.4592  1.8800
20860SOL    HW268544   4.798   5.140   1.058 -0.4994 -0.8619  1.5836
20861SOL     OW68545   1.959  12.157  11.635 -0.4394  0.4258  0.1598
20861SOL    HW168546   2.037  12.192  11.594 -0.4384  2.2619  1.6177
20861SOL    HW268547   1.894  12.226  11.626 -1.7510 -0.8287 -0.4830
20862SOL     OW68548  11.227   3.910   9.583 -0.3807 -0.2292  0.3407
20862SOL    HW168549  11.251   3.973   9.515 -0.3504 -1.1943 -0.5542
20862SOL    HW268550  11.133   3.895   9.569 -0.5210  0.0477  0.9298
20863SOL     OW68551   8.633   6.195   9.858 -0.0790  0.2303 -0.0154
20863SOL    HW168552   8.679   6.278   9.846 -1.0981  0.6934 -0.8594
20863SOL    HW268553   8.626   6.158   9.770 -1.3856  0.2223  0.0723
20864SOL     OW68554   5.205   6.132  11.314 -0.0734 -0.5306  0.3219
20864SOL    HW168555   5.130   6.191  11.326  1.8150  1.9439  1.0601
20864SOL    HW268556   5.230   6.143  11.223  0.9968  0.8706  0.7404
20865SOL     OW68557   1.404   5.579   1.267  0.4352  0.4503 -0.6191
20865SOL    HW168558   1.442   5.578   1.179  0.4571 -0.2848 -0.6080
20865SOL    HW268559   1.321   5.532   1.258  0.7405 -0.2029 -0.1228
20866SOL     OW68560   8.145   0.724   2.338 -0.1848 -0.4541 -0.8091
20866SOL    HW168561   8.132   0.661   2.408 -0.7460 -0.5316 -0.9840
20866SOL    HW268562   8.150   0.809   2.382 -0.4006 -0.5174 -0.6670
20867SOL     OW68563   4.208   5.669   4.407  0.8188 -0.6828  0.1126
20867SOL    HW168564   4.135   5.624   4.364 -0.3834  1.4338 -0.1564
20867SOL    HW268565   4.186   5.667   4.500  0.7525 -0.5891  0.0979
20868SOL     OW68566   0.084  11.872   2.803 -0.8311 -0.9755  0.4356
20868SOL    HW168567   0.096  11.964   2.779 -0.5392 -1.2059 -0.3574
20868SOL    HW268568  -0.009  11.864   2.823 -0.9005 -0.5523  0.2981
20869SOL     OW68569   9.616  11.039   9.574 -0.3971  0.3377 -0.2994
20869SOL    HW168570   9.604  10.965   9.515  0.2641  0.2710 -0.3533
20869SOL    HW268571   9.550  11.026   9.642  0.6774 -1.1134  0.5124
20870SOL     OW68572   9.263  10.522   5.556  0.5805 -0.6186  0.2328
20870SOL    HW168573   9.253  10.556   5.467  0.0822  1.8267  1.1251
20870SOL    HW268574   9.344  10.562   5.588  1.9373 -3.1927  0.2203
20871SOL     OW68575   0.949  12.403   2.177 -0.6370 -0.2376  0.1480
20871SOL    HW168576   0.984  12.322   2.140  1.1201  0.6842 -0.2779
20871SOL    HW268577   0.926  12.456   2.100 -0.8702  0.0542  0.4179
20872SOL     OW68578   0.138   3.715  10.788  0.7437 -0.1203 -0.0743
20872SOL    HW168579   0.210   3.752  10.737  0.1165  0.8285 -0.2875
20872SOL    HW268580   0.075   3.786  10.797  0.3536 -0.5837  1.1179
20873SOL     OW68581   7.741   1.331   2.819  0.5910  0.8508  0.0090
20873SOL    HW168582   7.752   1.239   2.792  1.3399  0.3905  1.6914
20873SOL    HW268583   7.778   1.382   2.747  0.4343 -0.1815 -0.8270
20874SOL     OW68584   3.940   1.553   9.388 -0.3501  0.5200 -1.0434
20874SOL    HW168585   3.852   1.528   9.359 -0.8929  0.8019  0.2645
20874SOL    HW268586   3.925   1.630   9.443  0.5912 -0.0231  0.0177
20875SOL     OW68587  12.475   2.544  11.207  0.1345 -0.5148  0.1125
20875SOL    HW168588  12.528   2.523  11.130 -1.0166 -0.3153 -0.7587
20875SOL    HW268589  12.520   2.501  11.280  1.8953  0.2799 -0.4618
20876SOL     OW68590   5.191   6.703   3.155  0.0200  0.0410 -0.6074
20876SOL    HW168591   5.145   6.733   3.077 -1.8171 -1.7212 -0.3135
20876SOL    HW268592   5.276   6.673   3.124 -0.3637  0.1532 -1.7980
20877SOL     OW68593   2.899   9.562   8.924  0.1463 -0.1019 -0.0818
20877SOL    HW168594   2.938   9.609   8.998  1.6642  0.3496 -1.1215
20877SOL    HW268595   2.819   9.524   8.959  0.1494  1.2095  1.4494
20878SOL     OW68596   0.371   2.214  12.346 -0.0635  0.0825 -0.0796
20878SOL    HW168597   0.450   2.254  12.310 -0.1090  0.3108  0.0749
20878SOL    HW268598   0.322   2.286  12.384 -0.3181 -0.0689 -0.1193
20879SOL     OW68599   2.469   0.129  11.028  0.0475 -0.3928  0.4259
20879SOL    HW168600   2.513   0.190  10.969  0.4286 -0.9025  0.1778
20879SOL    HW268601   2.376   0.135  11.005  0.2629 -1.0471 -0.6562
20880SOL     OW68602  10.503   1.478   7.872  0.2633 -0.0162  0.0801
20880SOL    HW168603  10.421   1.480   7.823 -0.2382  0.6703  0.9037
20880SOL    HW268604  10.500   1.395   7.920 -0.0288  0.0693  0.2153
20881SOL     OW68605  11.083   4.505   3.600 -0.1162 -0.2017  0.0685
20881SOL    HW168606  11.178   4.509   3.609 -0.0695 -1.1597  0.1736
20881SOL    HW268607  11.069   4.475   3.510 -0.2974 -0.4212  0.1678
20882SOL     OW68608   8.634  12.387   8.066 -0.0189 -0.2484  0.2357
20882SOL    HW168609   8.578  12.347   8.133 -0.6592 -1.7401 -1.1265
20882SOL    HW268610   8.723  12.378   8.101 -0.3791 -0.5413  1.1031
20883SOL     OW68611   4.900   6.569   2.222  0.8578 -0.0846  0.0030
20883SOL    HW168612   4.902   6.665   2.219  0.0239 -0.0704 -0.3988
20883SOL    HW268613   4.836   6.545   2.155  1.1261 -0.9315  0.0444
20884SOL     OW68614   5.369   2.221   9.263 -0.0181  0.3189  0.1565
20884SOL    HW168615   5.386   2.172   9.183 -1.3609  0.1272 -0.0256
20884SOL    HW268616   5.350   2.153   9.328 -0.7957  0.5563  0.1755
20885SOL     OW68617   5.768   6.183   0.015  0.5873  0.3776  0.1891
20885SOL    HW168618   5.812   6.109   0.057 -1.3062 -0.1884  1.2584
20885SOL    HW268619   5.722   6.144  -0.059  0.1806  0.6185  0.3165
20886SOL     OW68620   4.445   5.398   4.100 -0.0972 -0.5272 -0.0134
20886SOL    HW168621   4.515   5.399   4.165  0.3814  2.2384 -0.4437
20886SOL    HW268622   4.487   5.424   4.018 -1.5931  1.3272 -0.2545
20887SOL     OW68623   0.314   5.240  11.230 -0.4815 -0.2345 -0.1886
20887SOL    HW168624   0.339   5.275  11.315  0.2192 -0.1661 -0.4134
20887SOL    HW268625   0.369   5.163  11.218 -0.7761 -0.4065 -0.4539
20888SOL     OW68626   6.457   5.449   0.223  0.0992 -0.2490  0.6113
20888SOL    HW168627   6.376   5.499   0.215  0.1068 -0.3595 -0.3436
20888SOL    HW268628   6.432   5.360   0.197  0.0011 -0.8534  2.6415
20889SOL     OW68629   0.828   7.976   4.088  0.0796 -0.0698 -0.2795
20889SOL    HW168630   0.791   7.983   4.176  2.2180 -1.1095  0.7730
20889SOL    HW268631   0.804   7.888   4.058  1.1146 -0.4939  0.1292
20890SOL     OW68632  11.144   8.175  11.347  0.8652  0.0716 -0.3661
20890SOL    HW168633  11.131   8.241  11.416  1.5160  0.7890 -0.9124
20890SOL    HW268634  11.093   8.100  11.376  0.2160  0.7695  0.3427
20891SOL     OW68635  12.076   8.201   2.054  0.6691 -0.2457 -0.1900
20891SOL    HW168636  12.148   8.172   2.110  1.2500  0.5244 -0.5268
20891SOL    HW268637  12.048   8.121   2.009  0.2442 -0.8670  1.1175
20892SOL     OW68638   9.725   4.729   3.052 -0.1592 -0.9876 -0.2324
20892SOL    HW168639   9.810   4.715   3.010  0.2210  0.5423 -0.0513
20892SOL    HW268640   9.718   4.824   3.060 -2.1986 -1.0326 -0.8546
20893SOL     OW68641   7.141   8.103   2.920  0.1720  0.0766  0.4525
20893SOL    HW168642   7.046   8.114   2.920  0.3943  2.5404  0.5348
20893SOL    HW268643   7.159   8.048   2.844 -1.1896  1.0370 -0.6146
20894SOL     OW68644   9.335   7.784   9.368 -0.2224  0.2424  0.5604
20894SOL    HW168645   9.307   7.767   9.458  0.2668 -0.0534  0.6604
20894SOL    HW268646   9.315   7.876   9.353 -0.8282  0.1527  0.7786
20895SOL     OW68647   4.225   5.913  12.385  0.4659  0.0768  0.6249
20895SOL    HW168648   4.319   5.908  12.402  0.1693 -1.1762  2.1147
20895SOL    HW268649   4.185   5.871  12.461 -1.1831 -2.1623 -1.3410
20896SOL     OW68650   5.276   9.063   5.495 -0.7393  0.1249  0.2072
20896SOL    HW168651   5.250   9.154   5.484 -3.1153 -0.6243 -0.9870
20896SOL    HW268652   5.194   9.016   5.508  0.0484 -2.2699 -2.4391
20897SOL     OW68653   3.697  11.497   9.170 -0.1324  0.5766  0.6902
20897SOL    HW168654   3.744  11.535   9.096 -0.9794  1.3685  0.5541
20897SOL    HW268655   3.766  11.479   9.235  0.8114 -1.2458 -0.7086
20898SOL     OW68656   4.627   0.808   8.613 -0.2701 -0.4193  0.4799
20898SOL    HW168657   4.568   0.868   8.567 -0.6511 -0.6859  0.6170
20898SOL    HW268658   4.569   0.749   8.661  0.0509 -1.7703 -0.7302
20899SOL     OW68659   7.653   7.010   2.844  0.3420  0.1747  0.5409
20899SOL    HW168660   7.661   6.917   2.823 -0.1381  0.1923  0.2554
20899SOL    HW268661   7.719   7.053   2.789 -1.0399  0.2379 -1.1443
20900SOL     OW68662   3.036   1.853   4.148 -0.3685  0.0500 -0.8991
20900SOL    HW168663   2.964   1.896   4.194 -0.2230  0.0794 -0.6978
20900SOL    HW268664   3.115   1.899   4.177 -0.0991 -0.9947  0.1203
20901SOL     OW68665   0.129   1.525   9.266  0.3112  0.2830 -0.0226
20901SOL    HW168666   0.069   1.510   9.339  0.4158  2.4412  0.5648
20901SOL    HW268667   0.152   1.437   9.235 -4.9907 -0.7610 -1.9086
20902SOL     OW68668  12.432   5.156   8.412 -0.0686 -0.3300  0.1756
20902SOL    HW168669  12.452   5.062   8.410 -4.4786 -1.4988 -1.2717
20902SOL    HW268670  12.467   5.189   8.329  0.8909 -0.8122  0.3680
20903SOL     OW68671  11.321   6.008   4.265  0.2085 -0.1505  0.6348
20903SOL    HW168672  11.392   6.068   4.287 -0.3647  0.4801  0.7923
20903SOL    HW268673  11.250   6.064   4.234 -0.0880 -0.8006  0.1133
20904SOL     OW68674  11.539   3.443   3.667  0.1422  0.5929 -0.6169
20904SOL    HW168675  11.626   3.411   3.691 -0.1888  1.0462  1.3806
20904SOL    HW268676  11.551   3.481   3.580  1.8684  0.3691 -0.5180
20905SOL     OW68677   1.485   4.969   6.134 -0.0007 -0.1947  0.6014
20905SOL    HW168678   1.566   4.990   6.180 -0.5334 -0.1617  1.5782
20905SOL    HW268679   1.434   4.918   6.198 -0.3252 -1.0998 -0.3539
20906SOL     OW68680  10.441   3.292  12.125 -0.0459  1.1242 -0.4402
20906SOL    HW168681  10.370   3.232  12.101  1.5541 -0.3607 -1.7828
20906SOL    HW268682  10.412   3.377  12.093 -1.0572  0.4810 -1.3202
20907SOL     OW68683   9.785   1.537   0.518 -0.2116 -0.2354 -0.2598
20907SOL    HW168684   9.726   1.488   0.460 -1.0818 -0.6711  0.9535
20907SOL    HW268685   9.871   1.500   0.501 -0.5385 -0.7399 -0.8726
20908SOL     OW68686   0.467  11.984   6.646 -0.3088  0.0937  0.6675
20908SOL    HW168687   0.519  12.062   6.626 -0.5614  0.0539 -0.2122
20908SOL    HW268688   0.423  11.963   6.563  0.0271 -1.1817  0.7818
20909SOL     OW68689   3.525  12.202   3.960  0.2754 -0.1215 -0.1437
20909SOL    HW168690   3.537  12.127   4.018  0.8239 -0.4447 -0.6604
20909SOL    HW268691   3.608  12.210   3.913  0.4198  1.1523  0.2915
20910SOL     OW68692   3.608   8.978  11.312  0.1526  0.0687  0.1057
20910SOL    HW168693   3.661   8.926  11.372  0.8428 -1.5861 -1.8247
20910SOL    HW268694   3.656   9.061  11.304  0.0085  0.3403  1.8375
20911SOL     OW68695  10.903   7.845   2.318 -0.3511  0.3468  0.1775
20911SOL    HW168696  10.981   7.899   2.330  0.2247  0.2335 -2.4929
20911SOL    HW268697  10.841   7.878   2.382  1.8076  0.5241  2.3168
20912SOL     OW68698  10.453  10.174   1.323 -0.3600  0.0919 -0.1232
20912SOL    HW168699  10.482  10.230   1.251  0.0745 -0.7890 -0.6498
20912SOL    HW268700  10.423  10.235   1.390 -0.6259  0.9335 -0.9869
20913SOL     OW68701   5.914   0.958  12.053 -0.4884  0.4948 -0.0820
20913SOL    HW168702   5.980   1.002  11.999  0.2510  0.7302  0.9676
20913SOL    HW268703   5.835   1.012  12.042 -0.2274  0.7864 -0.5761
20914SOL     OW68704   4.418  11.205   5.058 -0.8579  0.5191  0.1563
20914SOL    HW168705   4.512  11.211   5.040 -0.8856  1.8574  0.3609
20914SOL    HW268706   4.408  11.122   5.104  0.4924  1.1295  1.6378
20915SOL     OW68707   2.936   6.257   2.287  0.2430 -0.1579 -0.1491
20915SOL    HW168708   3.001   6.219   2.346  0.3922  1.2574  0.6384
20915SOL    HW268709   2.874   6.186   2.272  0.6541 -0.8128  1.0535
20916SOL     OW68710   2.719   8.838   0.853 -0.2340  0.0050 -0.2546
20916SOL    HW168711   2.715   8.933   0.863 -1.1212 -0.1658  1.3884
20916SOL    HW268712   2.627   8.811   0.851  0.0145 -0.9185  0.4533
20917SOL     OW68713   2.260   7.027   1.064  0.0845  0.0769  0.6344
20917SOL    HW168714   2.168   7.038   1.040  0.4037 -0.5953 -1.0824
20917SOL    HW268715   2.289   7.115   1.088 -0.1705  1.0432 -2.2151
20918SOL     OW68716   7.882   7.585   8.857 -0.3812  0.0845 -0.1664
20918SOL    HW168717   7.790   7.592   8.881 -0.1705 -0.0168  0.6964
20918SOL    HW268718   7.898   7.662   8.803 -0.0121  2.3383  2.8886
20919SOL     OW68719   4.115  10.896   5.750 -0.1636 -0.0156  0.0121
20919SOL    HW168720   4.159  10.971   5.710 -0.5014 -0.1484 -0.6121
20919SOL    HW268721   4.120  10.827   5.685  1.6988 -1.1369  1.2503
20920SOL     OW68722   0.607   2.038  10.643  0.0473  0.0558  0.0714
20920SOL    HW168723   0.623   2.042  10.738 -0.3539 -1.0180  0.1915
20920SOL    HW268724   0.621   1.947  10.620 -1.0277  0.0694 -0.6994
20921SOL     OW68725   4.424   4.002   6.592  0.4573 -0.5055 -0.2621
20921SOL    HW168726   4.448   4.051   6.671 -0.8551 -2.8217  1.6942
20921SOL    HW268727   4.508   3.978   6.552  1.1345  1.8794 -0.4219
20922SOL     OW68728   0.927  11.869   6.937 -0.0336  0.1152  0.0542
20922SOL    HW168729   0.988  11.872   6.863 -0.3358 -2.2891 -0.3989
20922SOL    HW268730   0.848  11.828   6.900 -0.4156 -0.5776  1.5695
20923SOL     OW68731   2.444   2.492  12.234 -0.7508  0.5529  0.3455
20923SOL    HW168732   2.487   2.434  12.171 -0.1540  1.4010 -0.0476
20923SOL    HW268733   2.399   2.433  12.294 -1.0813 -0.2860 -0.6911
20924SOL     OW68734   1.099   6.567   1.992 -0.5813 -0.4073 -0.0895
20924SOL    HW168735   1.088   6.572   1.897 -1.0017  1.5045  0.0266
20924SOL    HW268736   1.022   6.610   2.028 -0.1100 -0.5070  1.1038
20925SOL     OW68737   4.695   6.284  11.660 -0.1938 -0.4248 -0.3192
20925SOL    HW168738   4.744   6.308  11.582  1.1416 -1.0173  0.3128
20925SOL    HW268739   4.736   6.333  11.731  0.1811 -1.7023  0.3834
20926SOL     OW68740   2.018   3.405   7.141 -0.4824  0.1211  0.3019
20926SOL    HW168741   2.011   3.310   7.152  0.2249  0.0438  0.1501
20926SOL    HW268742   1.997   3.441   7.228 -1.2651 -0.1352  0.2298
20927SOL     OW68743  10.613  11.982  12.487  0.6360 -0.4958  0.9802
20927SOL    HW168744  10.570  12.017  12.564 -1.6326  1.7391 -1.1275
20927SOL    HW268745  10.578  11.893  12.478  0.4494 -0.5574  2.1282
20928SOL     OW68746   6.180   2.433  11.951  0.2487 -0.4800  0.6349
20928SOL    HW168747   6.178   2.527  11.965 -0.1184 -0.0334 -1.9539
20928SOL    HW268748   6.088   2.408  11.943  0.3745 -0.3479 -2.3100
20929SOL     OW68749   9.893  10.259   1.430 -0.2343 -0.3897 -0.5649
20929SOL    HW168750   9.865  10.322   1.363 -0.0138 -1.4353 -1.6699
20929SOL    HW268751   9.980  10.290   1.456 -0.0616 -0.3125 -1.2080
20930SOL     OW68752   7.556  11.056   1.787  0.3843 -0.0263  0.5138
20930SOL    HW168753   7.502  10.994   1.737  2.4748 -0.2729 -1.6381
20930SOL    HW268754   7.551  11.137   1.736 -0.7562  1.0441  2.2478
20931SOL     OW68755   7.913  11.894   4.753 -0.3887 -0.0500 -0.0583
20931SOL    HW168756   7.943  11.982   4.775  0.6713 -0.0932 -1.2145
20931SOL    HW268757   7.818  11.904   4.742 -0.1495  1.2500 -1.3807
20932SOL     OW68758   6.903   4.460   8.454 -0.6614  0.3506  0.3213
20932SOL    HW168759   6.858   4.389   8.408 -0.2711  0.5635 -0.3940
20932SOL    HW268760   6.848   4.537   8.437 -0.1038  0.5843 -0.4409
20933SOL     OW68761   6.267   7.583   6.265  0.2479  0.0194 -0.1253
20933SOL    HW168762   6.328   7.512   6.245 -0.5614 -1.3034  1.7847
20933SOL    HW268763   6.218   7.596   6.183  0.9884 -1.0422 -0.7611
20934SOL     OW68764   6.982   6.547   0.260 -0.0119  0.9476 -0.0267
20934SOL    HW168765   6.929   6.603   0.203 -0.4070  0.5747 -0.0289
20934SOL    HW268766   6.978   6.589   0.346 -2.9778 -0.7356  0.7835
20935SOL     OW68767   3.317   4.860   4.302  0.1924 -0.1437  0.0372
20935SOL    HW168768   3.365   4.935   4.267  0.2210  0.0014  0.3780
20935SOL    HW268769   3.297   4.885   4.393 -0.2747 -0.3233 -0.0148
20936SOL     OW68770   3.270   1.607   3.688 -0.3585  0.4358  0.1162
20936SOL    HW168771   3.214   1.634   3.761  0.8653  0.6708  0.9992
20936SOL    HW268772   3.236   1.521   3.662 -2.4832  1.5028 -0.8294
20937SOL     OW68773  11.015   3.635  11.182 -0.4840 -0.3600  0.2927
20937SOL    HW168774  11.001   3.623  11.276  0.7331 -0.8204  0.4306
20937SOL    HW268775  10.999   3.728  11.168 -1.4171 -0.4261  0.8056
20938SOL     OW68776   7.485   7.572   9.228 -0.2081  0.6012  0.1544
20938SOL    HW168777   7.511   7.549   9.138 -0.5207  0.3789  0.1185
20938SOL    HW268778   7.395   7.540   9.236  0.1803 -0.3623  0.9025
20939SOL     OW68779   9.029   5.752  10.532  0.2539 -0.5660 -0.0027
20939SOL    HW168780   9.049   5.691  10.462  2.6958  0.4285 -0.2747
20939SOL    HW268781   9.024   5.698  10.611 -1.1386 -1.5045 -0.6835
20940SOL     OW68782  10.792   9.303  11.584 -0.0886  0.1323  0.2422
20940SOL    HW168783  10.755   9.230  11.534 -0.4871 -0.0006  0.7265
20940SOL    HW268784  10.790   9.377  11.523 -0.5177 -0.0382  0.0431
20941SOL     OW68785   6.587   8.512   9.720 -0.3329 -0.6886  0.3827
20941SOL    HW168786   6.509   8.524   9.775 -0.9152 -0.0543 -0.5381
20941SOL    HW268787   6.578   8.424   9.684 -0.0308 -1.0452  1.1714
20942SOL     OW68788  11.230   0.246   4.872  0.0362 -0.1371 -0.2337
20942SOL    HW168789  11.153   0.189   4.876  0.2194 -0.5624 -2.0067
20942SOL    HW268790  11.197   0.328   4.836  0.1882  0.1145  0.1952
20943SOL     OW68791   2.115   1.804   0.411 -0.7152 -0.3502  0.6626
20943SOL    HW168792   2.193   1.749   0.420 -0.6490 -0.2897  0.4555
20943SOL    HW268793   2.064   1.763   0.341  1.0430  1.8350 -2.1086
20944SOL     OW68794   9.037  10.450   1.341 -0.7395  0.3801 -0.4843
20944SOL    HW168795   9.054  10.521   1.402 -1.2116 -0.9296  1.2750
20944SOL    HW268796   8.963  10.402   1.380  0.2680 -1.6974 -0.9710
20945SOL     OW68797   1.777   4.478   4.800  0.6768  0.2180 -0.1914
20945SOL    HW168798   1.806   4.394   4.764 -0.0513  0.1783 -0.7220
20945SOL    HW268799   1.710   4.508   4.738 -0.1726  0.4483  0.8070
20946SOL     OW68800  10.323   3.198   1.150 -0.0128  0.5539  0.3571
20946SOL    HW168801  10.386   3.269   1.135 -0.1526  0.3056 -1.6487
20946SOL    HW268802  10.251   3.216   1.090 -0.8719 -0.3529  1.0786
20947SOL     OW68803  11.444   0.064   9.736  0.3031  0.3092  0.1292
20947SOL    HW168804  11.435   0.022   9.821  2.2483 -1.1860 -0.3189
20947SOL    HW268805  11.369   0.123   9.730 -1.4176 -1.5697  1.7031
20948SOL     OW68806   1.961   4.434   6.567 -0.2251 -1.1241 -0.2079
20948SOL    HW168807   2.030   4.500   6.581 -1.3536 -0.0404  0.3940
20948SOL    HW268808   1.990   4.358   6.617 -0.3504 -0.0319  1.6156
20949SOL     OW68809  12.138   2.003   9.784 -0.3412 -0.2221  0.3264
20949SOL    HW168810  12.097   1.968   9.863 -1.3469  0.1098 -0.0393
20949SOL    HW268811  12.189   1.930   9.749  1.3883  0.0502  2.0923
20950SOL     OW68812   4.907   7.613   1.893  0.7589  0.2496 -0.1985
20950SOL    HW168813   4.998   7.628   1.867  0.9199 -1.2315 -0.5670
20950SOL    HW268814   4.913   7.550   1.965  0.0058  0.0505 -0.3062
20951SOL     OW68815   6.600   0.970   6.063 -0.1508  0.5069  0.6885
20951SOL    HW168816   6.605   0.889   6.012  1.9065  0.8326  0.2874
20951SOL    HW268817   6.519   1.012   6.033 -0.0854 -0.3349 -0.7533
20952SOL     OW68818   5.613   2.871   6.436  0.2850  0.3899 -0.5339
20952SOL    HW168819   5.599   2.915   6.520 -2.1754 -0.5979 -0.3495
20952SOL    HW268820   5.687   2.813   6.452  0.8630  1.3673  0.4653
20953SOL     OW68821   3.764   2.767   6.576  0.3005 -0.0147  0.2258
20953SOL    HW168822   3.780   2.672   6.575 -0.2287 -0.1056 -0.0560
20953SOL    HW268823   3.720   2.784   6.492 -2.8381 -0.0931  1.7052
20954SOL     OW68824   2.590   0.684   4.202 -0.5294 -0.4570 -0.1138
20954SOL    HW168825   2.650   0.618   4.167 -1.5116 -1.2294 -0.4123
20954SOL    HW268826   2.511   0.634   4.224 -0.8957  0.4518  0.7114
20955SOL     OW68827   4.471  10.929  10.907 -0.1626  0.2867 -0.0650
20955SOL    HW168828   4.400  10.944  10.969  0.1207  1.6923 -0.0365
20955SOL    HW268829   4.428  10.929  10.821 -0.0839  2.4622 -0.1543
20956SOL     OW68830   1.965   1.907   8.726  0.0573  0.5872  0.2589
20956SOL    HW168831   1.916   1.870   8.653 -0.7567 -0.1572  1.1479
20956SOL    HW268832   2.049   1.934   8.689 -0.7757  1.3064 -1.1737
20957SOL     OW68833   1.157   2.213   4.935  0.0118  0.2791 -0.0314
20957SOL    HW168834   1.225   2.148   4.917  2.4133  2.8810 -1.1376
20957SOL    HW268835   1.186   2.256   5.015 -1.6892 -0.0997  0.8392
20958SOL     OW68836   6.909   5.792   0.759 -0.2155  0.1166  0.5174
20958SOL    HW168837   6.867   5.868   0.719  0.2021  0.8670  1.4456
20958SOL    HW268838   6.933   5.822   0.847 -0.3864 -1.2114  1.0468
20959SOL     OW68839   1.369  10.523   5.034 -0.2495  0.6141 -0.1592
20959SOL    HW168840   1.340  10.458   4.970 -1.6101 -0.9017  1.9038
20959SOL    HW268841   1.315  10.600   5.016  0.1594  0.6259 -1.4856
20960SOL     OW68842   1.693   0.620   6.730 -0.2275 -0.2355  0.1135
20960SOL    HW168843   1.779   0.649   6.699 -0.8523 -0.4888 -1.9986
20960SOL    HW268844   1.660   0.694   6.781  0.8126  0.2497  0.1203
20961SOL     OW68845   3.814   6.079   1.235  0.0010  0.2046  0.3301
20961SOL    HW168846   3.809   6.027   1.315 -1.8073 -0.2275 -0.0207
20961SOL    HW268847   3.728   6.120   1.228 -0.1757 -0.4437 -1.8287
20962SOL     OW68848  10.731   8.359   3.405 -0.7400  0.2695  0.1409
20962SOL    HW168849  10.816   8.338   3.366 -1.1210  1.4638 -1.4371
20962SOL    HW268850  10.674   8.286   3.378 -0.2390 -0.5578  1.2433
20963SOL     OW68851   8.279   2.838  11.684  0.1389  0.2491  0.0232
20963SOL    HW168852   8.212   2.844  11.752  0.1942 -0.6772  0.1598
20963SOL    HW268853   8.317   2.926  11.681  1.4480 -0.1466  2.5087
20964SOL     OW68854   7.178   7.720  10.783 -0.0810 -0.0542  0.3837
20964SOL    HW168855   7.086   7.717  10.757 -0.5641  1.9276  1.6081
20964SOL    HW268856   7.175   7.729  10.878  1.4331 -0.9789  0.5456
20965SOL     OW68857   1.685  10.297  10.043 -0.0400  0.4560  1.0393
20965SOL    HW168858   1.663  10.386  10.070 -0.6955  0.1564  1.5210
20965SOL    HW268859   1.620  10.242  10.086 -0.2819 -0.1662 -0.0760
20966SOL     OW68860   1.371   6.070   6.408  0.1311 -0.5516 -0.3717
20966SOL    HW168861   1.280   6.099   6.402  0.1434 -0.1628  1.0698
20966SOL    HW268862   1.423   6.145   6.377  0.0964  0.5584  2.0619
20967SOL     OW68863  12.472   9.029   1.264  0.0477 -0.1078  0.4066
20967SOL    HW168864  12.456   8.995   1.351  0.5911  0.4995  0.7595
20967SOL    HW268865  12.509   9.116   1.279  1.3241 -0.4806 -0.3872
20968SOL     OW68866   2.825   8.214   0.265 -0.0643 -0.3339  0.0711
20968SOL    HW168867   2.740   8.242   0.299 -0.2227 -0.6096 -0.0970
20968SOL    HW268868   2.807   8.133   0.218  0.9002 -2.7007  3.4307
20969SOL     OW68869   9.261   7.444   1.093 -0.3959 -0.0975 -0.0342
20969SOL    HW168870   9.329   7.455   1.159 -1.5367 -0.8404  1.3180
20969SOL    HW268871   9.309   7.435   1.010  1.0161  2.8250  0.3339
20970SOL     OW68872   1.036   6.353  11.806  0.0160 -0.4146 -0.1856
20970SOL    HW168873   0.996   6.408  11.739  0.1042 -1.8823 -1.4970
20970SOL    HW268874   0.963   6.310  11.850  0.0213 -1.3173 -1.0205
20971SOL     OW68875  10.133   6.668  10.260  0.7775  0.4082 -0.9924
20971SOL    HW168876  10.220   6.652  10.223  0.3368 -0.2355 -1.8067
20971SOL    HW268877  10.075   6.611  10.209 -0.1842  1.1422 -0.7579
20972SOL     OW68878   6.110   8.804   5.809 -0.3752 -0.1336  0.0052
20972SOL    HW168879   6.089   8.780   5.899  0.9089 -0.7891  0.1493
20972SOL    HW268880   6.106   8.899   5.808  2.2511  0.0790  1.4978
20973SOL     OW68881   2.557  10.974   5.841 -0.1548 -0.2191 -0.1699
20973SOL    HW168882   2.477  10.932   5.812 -1.0757  1.5528 -0.3264
20973SOL    HW268883   2.569  10.943   5.931  0.1061 -2.0291 -0.7974
20974SOL     OW68884   6.712   3.362   3.258  0.5559 -0.1705  0.1324
20974SOL    HW168885   6.743   3.272   3.267 -1.1994 -0.7261  1.0323
20974SOL    HW268886   6.790   3.416   3.272  1.4345 -1.5291  0.6069
20975SOL     OW68887   7.922   1.391   3.961 -0.4402 -0.2093 -0.3937
20975SOL    HW168888   7.928   1.478   3.922 -0.3650 -0.6863 -1.4748
20975SOL    HW268889   7.931   1.331   3.887 -0.7157 -1.1345  0.3101
20976SOL     OW68890   9.552   3.525   8.570  0.1360 -0.1925 -0.0549
20976SOL    HW168891   9.542   3.494   8.660 -0.5126  0.0337 -0.0447
20976SOL    HW268892   9.585   3.449   8.522  2.0719  0.1199  0.6731
20977SOL     OW68893   2.604   7.353   1.703  0.2581  0.6367 -0.3086
20977SOL    HW168894   2.586   7.259   1.710 -0.8026  0.7525 -1.1389
20977SOL    HW268895   2.545   7.383   1.634 -0.3671  2.1421  0.8201
20978SOL     OW68896   0.940   7.160   3.243 -0.1632  0.4542  0.3683
20978SOL    HW168897   0.979   7.179   3.158  0.1589 -0.2144  0.3584
20978SOL    HW268898   0.853   7.124   3.223 -0.3239  0.8489  0.3475
20979SOL     OW68899   3.692  10.055   8.417 -0.2042 -0.0159 -0.0652
20979SOL    HW168900   3.695  10.146   8.445  0.7829 -0.3818  1.0900
20979SOL    HW268901   3.639  10.011   8.483  0.4810 -0.5232  0.1609
20980SOL     OW68902   4.235  10.506   5.607  0.2531 -0.7030 -0.0078
20980SOL    HW168903   4.194  10.419   5.612  1.9440 -1.5055  0.8206
20980SOL    HW268904   4.246  10.532   5.698 -2.3811  1.5443 -0.1779
20981SOL     OW68905   2.292   4.146   1.556  0.0245 -0.3130  0.1326
20981SOL    HW168906   2.298   4.150   1.651  0.4995 -0.5286  0.1111
20981SOL    HW268907   2.248   4.228   1.531 -1.1708 -0.7815  0.6211
20982SOL     OW68908   9.153   6.684   4.344  0.5497  0.5515  0.0273
20982SOL    HW168909   9.165   6.604   4.394 -0.3299  1.2436  1.4229
20982SOL    HW268910   9.242   6.716   4.328  0.9224 -0.8404 -0.8357
20983SOL     OW68911   7.837  11.552   7.231 -0.1012 -0.2489 -0.1704
20983SOL    HW168912   7.814  11.549   7.324  1.5834 -0.8962  0.2629
20983SOL    HW268913   7.773  11.495   7.189 -0.3558 -0.6523  0.7305
20984SOL     OW68914   0.223   7.492   1.707  0.5270 -0.1557  0.8367
20984SOL    HW168915   0.191   7.582   1.699  2.2259  0.4128 -0.1811
20984SOL    HW268916   0.213   7.456   1.619 -0.5783 -1.1403  1.3511
20985SOL     OW68917   5.623   3.228   0.006 -0.4064  0.7917  0.1069
20985SOL    HW168918   5.669   3.252   0.087  0.4949  1.2894 -0.5380
20985SOL    HW268919   5.675   3.267  -0.064  0.2457 -1.7214 -0.9189
20986SOL     OW68920  11.047   8.677   8.305 -0.3809 -0.1259 -0.4405
20986SOL    HW168921  10.962   8.716   8.325 -0.4746 -0.9834  0.9891
20986SOL    HW268922  11.093   8.744   8.254 -2.6385 -0.4224 -3.0933
20987SOL     OW68923   7.152   7.135   0.542  0.7345 -0.3578 -0.0211
20987SOL    HW168924   7.142   7.195   0.468  2.0721  0.2722  0.2810
20987SOL    HW268925   7.125   7.049   0.507 -1.4043  0.4064 -0.3995
20988SOL     OW68926   3.117   3.070   5.554  0.3444  0.1373  0.1417
20988SOL    HW168927   3.075   3.031   5.631  0.5335  1.0046  0.6995
20988SOL    HW268928   3.210   3.073   5.575  0.4676 -0.1323 -0.3528
20989SOL     OW68929   2.980  10.020   7.960 -0.1803 -0.5689 -0.0929
20989SOL    HW168930   2.885  10.008   7.952 -0.0679 -0.7755 -1.4469
20989SOL    HW268931   3.012   9.937   7.993 -0.4525 -0.5628  0.1888
20990SOL     OW68932  11.860  10.782   9.972  0.0290 -0.4120  0.2333
20990SOL    HW168933  11.948  10.819   9.963 -0.3793  0.5903  0.2481
20990SOL    HW268934  11.806  10.834   9.912 -0.2069 -2.2878 -1.2768
20991SOL     OW68935  11.865  11.883  11.811 -0.4198 -0.2245 -0.1747
20991SOL    HW168936  11.857  11.937  11.889 -0.3367 -1.3344  0.6209
20991SOL    HW268937  11.794  11.819  11.818 -0.1731 -0.5809 -0.8073
20992SOL     OW68938   6.724   5.475   9.045  0.1496  0.0671 -0.2221
20992SOL    HW168939   6.798   5.526   9.011  1.1257 -1.6320 -0.7608
20992SOL    HW268940   6.656   5.486   8.978  0.0135  1.3263  0.0894
20993SOL     OW68941   7.625   5.591  11.492  0.9478 -0.5365 -0.0114
20993SOL    HW168942   7.713   5.606  11.457  0.8805 -0.3670 -0.1113
20993SOL    HW268943   7.605   5.500  11.469  1.3389 -0.7641  0.5483
20994SOL     OW68944   1.344  12.051   3.052  0.2195 -0.0725 -0.3799
20994SOL    HW168945   1.346  12.110   2.977  2.8257  0.3390 -0.0931
20994SOL    HW268946   1.275  12.085   3.108 -0.3996  0.8286 -1.6479
20995SOL     OW68947   4.541  12.143   2.084 -0.4249  0.1136 -0.8304
20995SOL    HW168948   4.592  12.072   2.122 -1.1642  0.7680  1.5591
20995SOL    HW268949   4.506  12.107   2.002  0.0518 -1.8947 -0.2003
20996SOL     OW68950  10.237   4.700   1.950  0.0262 -0.0417 -0.4543
20996SOL    HW168951  10.151   4.712   1.910 -0.8252 -2.9868  0.2471
20996SOL    HW268952  10.276   4.626   1.902  1.6250  0.3690  0.1252
20997SOL     OW68953   4.127   6.471   0.410 -0.1361  0.0153  0.0297
20997SOL    HW168954   4.049   6.500   0.363 -1.2751 -1.8416  0.6608
20997SOL    HW268955   4.127   6.522   0.491 -0.1994  0.6394 -0.3599
20998SOL     OW68956   6.280   7.607  10.350  0.0609 -0.5336  0.2551
20998SOL    HW168957   6.344   7.674  10.326  0.6003 -1.4836 -1.0984
20998SOL    HW268958   6.254   7.630  10.439  2.2351 -0.0402  0.8432
20999SOL     OW68959   8.329  10.290   3.121 -0.2396  0.6271  0.3641
20999SOL    HW168960   8.235  10.275   3.110  0.1872 -1.2312 -1.3962
20999SOL    HW268961   8.350  10.358   3.057 -0.1591  0.0266 -0.2535
21000SOL     OW68962   0.535  12.120   4.285 -0.4800 -0.4746 -0.0460
21000SOL    HW168963   0.608  12.077   4.329  1.0411  2.3126  0.3778
21000SOL    HW268964   0.465  12.122   4.350 -0.3725 -1.6509  0.1330
21001SOL     OW68965  10.498   8.613  11.415  0.3685 -0.6974 -0.0251
21001SOL    HW168966  10.461   8.596  11.328 -0.0209  2.8091 -0.6809
21001SOL    HW268967  10.427   8.593  11.476  0.0540 -1.5168 -0.6488
21002SOL     OW68968   8.216  11.497   4.619 -0.0233 -0.1230 -0.1311
21002SOL    HW168969   8.167  11.577   4.600  0.2807 -0.2619 -1.6831
21002SOL    HW268970   8.295  11.527   4.663  0.3934  0.5213 -1.2793
21003SOL     OW68971  11.751   1.836   2.060  0.2604  0.4721  0.3211
21003SOL    HW168972  11.691   1.876   2.123  1.7064  1.8320  0.9160
21003SOL    HW268973  11.695   1.790   1.998 -1.2809  0.2555  1.8089
21004SOL     OW68974   0.954   4.814   4.222  0.2677 -0.1045 -0.4686
21004SOL    HW168975   0.920   4.758   4.292  0.7894 -0.8699 -0.8101
21004SOL    HW268976   0.939   4.903   4.253 -0.7611 -0.4239  0.0006
21005SOL     OW68977   9.177   0.377  12.243  0.0907 -0.1332  0.3020
21005SOL    HW168978   9.153   0.444  12.307  0.8009 -0.9702  1.4902
21005SOL    HW268979   9.142   0.409  12.160 -0.7766  1.0260  1.0884
21006SOL     OW68980  11.206  12.110  10.405  0.4720 -0.2481 -0.4759
21006SOL    HW168981  11.226  12.036  10.348  0.0062 -0.3238 -0.5412
21006SOL    HW268982  11.113  12.128  10.391  0.3455 -0.2738  0.2771
21007SOL     OW68983   4.071   6.907   0.006  0.1643 -0.4121  0.1268
21007SOL    HW168984   4.138   6.918   0.073 -0.1515 -0.0549  0.3881
21007SOL    HW268985   4.067   6.992  -0.039 -1.4267  0.2145  1.3545
21008SOL     OW68986   3.443   3.148   2.996  0.5620 -0.0908  0.0993
21008SOL    HW168987   3.368   3.130   2.939 -0.0035  0.0810  0.7834
21008SOL    HW268988   3.511   3.089   2.965 -0.7142 -2.2627  1.2258
21009SOL     OW68989   5.905  11.568   1.869  0.1392  0.4363 -0.3861
21009SOL    HW168990   5.916  11.614   1.953 -2.7436  0.3645  0.1138
21009SOL    HW268991   5.897  11.476   1.892 -0.6442  0.4116 -0.7250
21010SOL     OW68992  11.026   6.776  12.228  0.4326  0.4549 -0.1451
21010SOL    HW168993  11.114   6.780  12.190  0.9435 -2.1745  0.5835
21010SOL    HW268994  11.016   6.685  12.256 -3.3748  0.0645 -2.1692
21011SOL     OW68995   3.787   5.872   4.365 -0.1441  0.4484  0.6519
21011SOL    HW168996   3.774   5.962   4.337  0.8492  0.4991  0.2939
21011SOL    HW268997   3.812   5.825   4.285 -2.1199 -0.4910  0.5325
21012SOL     OW68998   1.246   8.884   3.763 -0.0486  0.3868 -0.0149
21012SOL    HW168999   1.181   8.915   3.826  0.9338 -0.2018  1.3224
21012SOL    HW269000   1.271   8.798   3.795  0.9963  0.3872 -0.8167
21013SOL     OW69001   9.868   3.191   0.809  0.5633 -0.0271  0.6523
21013SOL    HW169002   9.887   3.199   0.903 -2.2205  0.0924  1.2877
21013SOL    HW269003   9.831   3.103   0.799  0.1574  0.2278 -0.1993
21014SOL     OW69004   7.387   9.188   8.523 -0.0277  0.0192  0.1441
21014SOL    HW169005   7.421   9.098   8.527  1.2149  0.4944  0.5608
21014SOL    HW269006   7.451   9.240   8.570 -0.7182  1.1510 -0.1370
21015SOL     OW69007  11.129   9.360   1.022  0.4351  0.3659 -0.2535
21015SOL    HW169008  11.092   9.435   1.069  0.2666 -0.9013  1.7809
21015SOL    HW269009  11.221   9.382   1.010  0.2692  1.1309 -0.2063
21016SOL     OW69010  11.878   2.630   7.311  0.1021 -0.7810  0.1649
21016SOL    HW169011  11.803   2.593   7.264 -0.0140 -2.0209  1.2465
21016SOL    HW269012  11.911   2.557   7.364  0.8084  0.2993  1.2754
21017SOL     OW69013   3.771   5.843   6.033 -0.4499  0.1769 -0.2748
21017SOL    HW169014   3.765   5.889   6.117 -0.1726  0.6832 -0.5274
21017SOL    HW269015   3.803   5.909   5.972 -0.0211 -0.3632 -0.6401
21018SOL     OW69016   8.692   9.023   1.238 -0.4821 -0.1155  0.1596
21018SOL    HW169017   8.715   8.937   1.203  0.0485  0.6198 -1.3908
21018SOL    HW269018   8.701   9.014   1.333  0.5490 -1.4752 -0.0424
21019SOL     OW69019   8.526   1.653   9.460 -0.1126  0.4121  0.0144
21019SOL    HW169020   8.567   1.632   9.376 -0.3995 -1.1551  0.2485
21019SOL    HW269021   8.508   1.747   9.454  1.6589  0.7431 -0.8940
21020SOL     OW69022   0.578   2.714  12.133 -0.2275  0.3366  0.6173
21020SOL    HW169023   0.618   2.752  12.055  2.0486  0.0087  1.5330
21020SOL    HW269024   0.509   2.775  12.158  1.2255  2.2062  0.2286
21021SOL     OW69025   9.602   5.618   9.118 -0.7774  0.4942 -0.0094
21021SOL    HW169026   9.690   5.632   9.084  0.1205 -0.5610  1.7135
21021SOL    HW269027   9.581   5.699   9.164  0.5307 -0.2317  1.9985
21022SOL     OW69028   2.575   8.339   6.330 -0.1504  0.3048  0.1925
21022SOL    HW169029   2.583   8.296   6.245  1.0047 -0.6245  0.7406
21022SOL    HW269030   2.523   8.418   6.313  0.8620  0.6389 -1.5541
21023SOL     OW69031  10.378   3.108   9.418  0.5619  0.1799 -0.0845
21023SOL    HW169032  10.405   3.055   9.343 -2.5141 -0.6276 -0.7928
21023SOL    HW269033  10.392   3.199   9.391 -0.6801 -0.0960 -1.8018
21024SOL     OW69034   9.138   5.722   6.090 -0.1859  0.4631  0.0828
21024SOL    HW169035   9.072   5.757   6.149 -0.3914  0.8233 -0.3560
21024SOL    HW269036   9.119   5.762   6.005  0.4716  0.4161 -0.0937
21025SOL     OW69037   8.416  10.673  12.264 -0.5297 -0.6525  0.4915
21025SOL    HW169038   8.461  10.680  12.180 -1.6514 -0.1943 -0.1016
21025SOL    HW269039   8.415  10.580  12.284 -0.4566 -0.7849 -0.1217
21026SOL     OW69040   8.435   5.617   4.883 -0.0186  0.2412  0.4746
21026SOL    HW169041   8.377   5.568   4.824  1.1261 -2.2554  1.2605
21026SOL    HW269042   8.461   5.552   4.949 -0.7213  2.7100  3.3803
21027SOL     OW69043   0.317   3.644   1.787  0.0774 -0.1796  0.4127
21027SOL    HW169044   0.386   3.710   1.786 -1.1780  1.2636  1.9176
21027SOL    HW269045   0.236   3.695   1.785 -0.9865 -1.8041 -1.0001
21028SOL     OW69046   9.287   7.928   7.919  0.3360  0.6009  0.2206
21028SOL    HW169047   9.379   7.905   7.931  1.0106  2.1898 -1.4724
21028SOL    HW269048   9.278   7.946   7.825 -1.6544  0.7253  0.3832
21029SOL     OW69049   9.044   4.275   1.487 -0.4232  0.1756  0.6676
21029SOL    HW169050   9.008   4.362   1.470  0.2050  0.6306  1.5891
21029SOL    HW269051   9.102   4.287   1.562  0.5441 -0.8244  0.1081
21030SOL     OW69052   6.133   6.429   8.386 -0.2159  0.5143 -0.1610
21030SOL    HW169053   6.155   6.446   8.295 -1.3970  2.0343 -0.2051
21030SOL    HW269054   6.213   6.391   8.423  0.1801 -0.4322 -1.8730
21031SOL     OW69055   8.232   0.391   4.835  0.0064 -0.3087  0.3500
21031SOL    HW169056   8.249   0.444   4.913 -0.5083 -0.3557  0.5029
21031SOL    HW269057   8.137   0.398   4.822  0.0162 -0.7187  0.0296
21032SOL     OW69058   8.618   3.165   9.634  0.4840  0.2417 -0.6745
21032SOL    HW169059   8.565   3.199   9.706  0.1681 -1.5382 -0.0072
21032SOL    HW269060   8.695   3.223   9.631  0.3323  0.5655  0.8744
21033SOL     OW69061   7.510   5.326   6.804 -0.2730  0.0163  0.5420
21033SOL    HW169062   7.527   5.404   6.857  0.5127  1.6813 -1.9474
21033SOL    HW269063   7.588   5.272   6.816  0.7376  1.2373 -0.2838
21034SOL     OW69064  10.529   5.233  12.132  0.4484 -0.1869 -0.1428
21034SOL    HW169065  10.618   5.267  12.130  0.4392  0.0512  1.9290
21034SOL    HW269066  10.522   5.185  12.214 -1.2541 -0.4440 -0.3842
21035SOL     OW69067   6.689   0.312   7.925  0.6743 -0.0901 -0.3486
21035SOL    HW169068   6.644   0.315   8.010  0.5528  1.9562 -0.4269
21035SOL    HW269069   6.653   0.235   7.881 -1.6368  0.5793  0.2143
21036SOL     OW69070  12.327   3.129   6.376 -0.2529 -0.5346 -0.3456
21036SOL    HW169071  12.366   3.194   6.434  0.3431  0.3454 -1.6856
21036SOL    HW269072  12.318   3.051   6.431  0.1446  0.2950  0.9589
21037SOL     OW69073   1.278   1.212   7.159  0.6601 -0.2715 -0.1127
21037SOL    HW169074   1.256   1.230   7.068  0.8982 -1.5241 -0.4224
21037SOL    HW269075   1.204   1.248   7.209  0.9082  1.1429 -0.7215
21038SOL     OW69076   9.986   5.718   3.269  0.4828 -0.1949  0.4795
21038SOL    HW169077  10.024   5.753   3.349  0.4558  0.5346  0.1768
21038SOL    HW269078   9.951   5.794   3.223  0.7981 -0.5594 -0.3853
21039SOL     OW69079   2.191   6.831  11.147 -0.0236 -0.2997 -0.3168
21039SOL    HW169080   2.172   6.925  11.144 -0.4101 -0.3949 -1.5301
21039SOL    HW269081   2.199   6.805  11.055 -0.3066 -1.5329 -0.0162
21040SOL     OW69082   2.129  10.913   1.718  0.0662  0.4985  0.8546
21040SOL    HW169083   2.101  10.873   1.635  0.4473 -0.2912  1.0944
21040SOL    HW269084   2.218  10.945   1.701 -0.9169  3.0992  0.0621
21041SOL     OW69085   5.904   1.532   4.746  0.3170  0.1628 -0.3370
21041SOL    HW169086   5.897   1.437   4.739  0.2213  0.0960  0.5814
21041SOL    HW269087   5.932   1.560   4.659  2.5876 -0.9270 -0.0322
21042SOL     OW69088   9.387   9.274  12.216  0.2215 -0.4216  0.0502
21042SOL    HW169089   9.395   9.228  12.299 -1.0778  0.0167  0.4399
21042SOL    HW269090   9.295   9.263  12.191  0.4824 -0.1549 -1.1021
21043SOL     OW69091  11.713   6.046   5.303  0.5647  0.0935  0.8552
21043SOL    HW169092  11.677   6.012   5.221  1.4599  0.8103  0.1381
21043SOL    HW269093  11.803   6.071   5.281  1.0676 -0.4067  2.2636
21044SOL     OW69094  12.033   7.103   6.403  0.5828  0.3757 -0.1552
21044SOL    HW169095  12.017   7.123   6.311  1.2672 -1.9448 -0.8499
21044SOL    HW269096  12.028   7.007   6.409  0.8465  0.4272  2.1653
21045SOL     OW69097   6.492   6.259  11.886 -0.0020  0.6561  0.4087
21045SOL    HW169098   6.475   6.328  11.822  0.8716  0.8872  0.4069
21045SOL    HW269099   6.432   6.277  11.958 -1.2342  0.2020 -0.4747
21046SOL     OW69100   4.485   5.710   0.486 -0.0113  0.1439  0.2603
21046SOL    HW169101   4.449   5.797   0.468 -0.8902 -0.2202  0.1954
21046SOL    HW269102   4.425   5.649   0.441 -0.2217 -0.5735  1.4671
21047SOL     OW69103   3.429   7.300  10.546  0.0261 -0.3816 -0.2110
21047SOL    HW169104   3.507   7.301  10.601  0.3584 -0.1756 -0.6846
21047SOL    HW269105   3.397   7.210  10.551  0.2248 -0.4359  0.0766
21048SOL     OW69106   7.054   2.561   1.388 -0.1803 -0.3206 -0.8178
21048SOL    HW169107   6.974   2.530   1.348 -1.3036  0.3198  0.8036
21048SOL    HW269108   7.109   2.483   1.396 -0.4566 -0.6973 -2.2859
21049SOL     OW69109  11.302   8.754   2.616 -0.5400  0.2109  0.2315
21049SOL    HW169110  11.254   8.673   2.636 -0.1768  0.0676  0.5299
21049SOL    HW269111  11.316   8.795   2.702  1.8548 -0.8559  0.4210
21050SOL     OW69112   6.495   8.591   1.396  0.3013 -0.1115 -0.5623
21050SOL    HW169113   6.572   8.636   1.431 -1.0460 -0.0872  2.6553
21050SOL    HW269114   6.427   8.658   1.394 -0.5361 -0.9291 -0.0790
21051SOL     OW69115   6.998  10.320   0.442 -0.0659 -0.1616 -0.1784
21051SOL    HW169116   6.931  10.284   0.384 -0.2519 -0.4928  0.2401
21051SOL    HW269117   6.984  10.277   0.526  0.8069 -0.3884 -0.1380
21052SOL     OW69118   5.998   9.426   8.670 -0.2069  0.1127  0.3450
21052SOL    HW169119   5.934   9.426   8.741  0.4430 -2.1406  1.0006
21052SOL    HW269120   6.080   9.451   8.712  0.1271 -0.9644  0.3542
21053SOL     OW69121   1.808   6.976   3.299 -0.1728  0.1068  0.5530
21053SOL    HW169122   1.804   7.067   3.268 -0.8233  0.3739  1.3717
21053SOL    HW269123   1.881   6.976   3.362  0.1813 -0.0746  0.1461
21054SOL     OW69124  11.196  12.231   3.478 -0.0121 -0.1483 -0.3377
21054SOL    HW169125  11.200  12.171   3.403  1.6353 -0.1427 -0.3026
21054SOL    HW269126  11.118  12.204   3.527  0.4314 -1.9751 -0.5626
21055SOL     OW69127   7.388  10.195   0.808  0.2990  0.2599  0.2034
21055SOL    HW169128   7.310  10.251   0.803  0.3646  0.3344 -0.0120
21055SOL    HW269129   7.366  10.120   0.752  0.1301 -0.0303  0.6581
21056SOL     OW69130   5.643   8.591   5.730  0.7290 -0.1708  0.1644
21056SOL    HW169131   5.624   8.657   5.797  0.8747  0.1801 -0.1417
21056SOL    HW269132   5.604   8.625   5.650  0.4208 -0.6661  0.0990
21057SOL     OW69133   4.504   5.953   4.138  0.2747  0.5612 -0.5995
21057SOL    HW169134   4.573   5.944   4.072  1.5044  0.1055  0.7081
21057SOL    HW269135   4.500   5.867   4.179  0.6226  1.2640  0.9636
21058SOL     OW69136  11.343   0.535  10.323  0.8021 -0.4113 -0.4005
21058SOL    HW169137  11.397   0.460  10.348 -1.2295 -1.7504  0.1986
21058SOL    HW269138  11.377   0.608  10.376 -0.1111 -2.0196  2.6079
21059SOL     OW69139   6.587   6.819   0.291 -0.5516 -0.0896 -0.0568
21059SOL    HW169140   6.616   6.889   0.349 -0.7610 -1.1204  1.3455
21059SOL    HW269141   6.516   6.776   0.339  1.3243 -2.9602  0.4092
21060SOL     OW69142   0.938   7.914  11.564 -0.2655  0.0067  0.0996
21060SOL    HW169143   0.965   7.914  11.656  0.0687  1.5293  0.0364
21060SOL    HW269144   0.885   7.835  11.554  1.5815 -1.4081  1.0218
21061SOL     OW69145   7.122   0.092   3.691  0.3669 -0.8803  0.4002
21061SOL    HW169146   7.163   0.019   3.738 -1.8913 -3.0922 -0.8327
21061SOL    HW269147   7.033   0.096   3.726 -0.0984  0.0956 -0.8298
21062SOL     OW69148   7.063   8.973   7.797 -0.3145 -0.0643  0.0616
21062SOL    HW169149   7.068   8.967   7.702  1.3752  2.9866 -0.1754
21062SOL    HW269150   7.154   8.973   7.826 -0.5843  2.7982  1.2430
21063SOL     OW69151   4.458   9.033   8.062  0.0550  0.1038 -0.2110
21063SOL    HW169152   4.431   8.962   8.122 -1.9007  0.6330 -0.4124
21063SOL    HW269153   4.548   9.011   8.040  0.8640 -0.1570  2.8797
21064SOL     OW69154  12.023   1.450   7.670 -0.6985 -0.2576  0.0805
21064SOL    HW169155  12.012   1.540   7.638 -2.5143 -0.8599 -1.1482
21064SOL    HW269156  12.118   1.439   7.678 -0.3918  1.4016 -0.8413
21065SOL     OW69157   9.753   5.252  12.354  0.3992 -0.2395  0.3275
21065SOL    HW169158   9.794   5.318  12.299  1.5707 -0.3773  1.0134
21065SOL    HW269159   9.735   5.179  12.295  0.3353  0.1557 -0.1494
21066SOL     OW69160   4.105   8.368   1.899 -0.1901  0.0043  0.2359
21066SOL    HW169161   4.166   8.390   1.969 -0.5584  0.2775  0.4755
21066SOL    HW269162   4.065   8.452   1.874  1.0972  0.1926 -1.4218
21067SOL     OW69163   5.612  12.421   4.175 -0.4069  0.3468 -0.2307
21067SOL    HW169164   5.605  12.495   4.116 -3.6566  2.0063  1.9197
21067SOL    HW269165   5.594  12.344   4.120 -0.6941  1.5263 -1.8498
21068SOL     OW69166  11.086   5.786   5.014  0.6173  0.0581 -0.0254
21068SOL    HW169167  11.139   5.725   5.067 -0.1399  0.2805  1.0106
21068SOL    HW269168  11.134   5.869   5.018  1.0132 -0.1469 -0.4236
21069SOL     OW69169   2.026  12.013   8.743 -0.2360 -0.0314  0.3047
21069SOL    HW169170   1.981  12.017   8.827  1.2951 -0.6249  1.1891
21069SOL    HW269171   2.083  11.937   8.750 -1.0247 -0.8763 -1.7879
21070SOL     OW69172   9.760   3.249   2.571 -0.6986  0.5512  0.0374
21070SOL    HW169173   9.738   3.332   2.528 -1.7968 -0.1306 -0.7547
21070SOL    HW269174   9.796   3.195   2.500 -1.3339 -0.1485  0.2433
21071SOL     OW69175   6.907   8.269   5.905 -0.2595  0.4253 -0.3047
21071SOL    HW169176   6.824   8.288   5.948 -0.1032  0.1180  0.1319
21071SOL    HW269177   6.884   8.255   5.813 -0.7074  0.1710 -0.1509
21072SOL     OW69178   9.533   4.167   9.521 -0.4304  0.4140  0.4211
21072SOL    HW169179   9.517   4.260   9.505  0.2599  0.4609 -0.0356
21072SOL    HW269180   9.511   4.155   9.614 -0.4231  1.0517  0.5113
21073SOL     OW69181  12.360   9.546   0.149 -0.3022  0.2441  0.2844
21073SOL    HW169182  12.409   9.507   0.221  3.2627  0.5009 -1.7398
21073SOL    HW269183  12.382   9.639   0.153  0.9510  0.1012 -1.6873
21074SOL     OW69184   4.843   5.005  11.893  0.1583  0.4007  0.0453
21074SOL    HW169185   4.820   5.093  11.922 -0.6237  0.5192 -0.8646
21074SOL    HW269186   4.887   5.018  11.809 -2.5953 -0.1740 -1.6038
21075SOL     OW69187   7.400   7.047   2.217 -0.4395  0.2173  0.3368
21075SOL    HW169188   7.426   6.972   2.271  1.1104 -0.4178 -1.1857
21075SOL    HW269189   7.478   7.103   2.214 -0.6216  0.4411 -0.8648
21076SOL     OW69190   1.141   1.014   5.508  0.2510 -0.0614 -0.8663
21076SOL    HW169191   1.134   1.070   5.431 -0.1496  0.0026 -0.7871
21076SOL    HW269192   1.149   1.075   5.582  1.4239 -0.1268 -0.9194
21077SOL     OW69193  10.884   3.356   9.144 -0.1203  0.2811  0.0917
21077SOL    HW169194  10.873   3.437   9.094  1.5180  0.7958  0.5089
21077SOL    HW269195  10.963   3.370   9.195  0.9720 -2.0798 -0.8099
21078SOL     OW69196   7.389  12.337  10.464 -0.2189  0.5729 -0.2554
21078SOL    HW169197   7.480  12.366  10.468  0.1601 -0.6544  0.5525
21078SOL    HW269198   7.338  12.415  10.486  0.6540  1.1463 -0.2165
21079SOL     OW69199   5.509   7.136   8.532  0.1284 -0.6558  0.1497
21079SOL    HW169200   5.537   7.048   8.504 -0.4536 -0.3531 -1.4778
21079SOL    HW269201   5.576   7.164   8.594  1.6316 -1.2923 -1.1292
21080SOL     OW69202   2.198  10.074   9.372  0.3779 -0.5808  0.1138
21080SOL    HW169203   2.141  10.031   9.308  1.9476 -2.8700  0.1221
21080SOL    HW269204   2.287  10.057   9.341  1.1309  0.2663  1.6820
21081SOL     OW69205   8.771   9.933   2.389 -0.3426 -0.0249 -0.1714
21081SOL    HW169206   8.764  10.019   2.429  0.8726  0.8029 -1.6216
21081SOL    HW269207   8.853   9.897   2.422  0.4838  0.5135 -1.5391
21082SOL     OW69208   2.308   8.095   3.071 -0.3424 -0.1131 -0.9993
21082SOL    HW169209   2.222   8.133   3.057 -0.1669  0.5286 -0.4013
21082SOL    HW269210   2.309   8.072   3.164  1.2765  2.9025 -0.1575
21083SOL     OW69211  10.964   8.422   8.166  0.3692 -0.5541 -0.3047
21083SOL    HW169212  11.027   8.446   8.097  2.0605 -1.8983  0.7028
21083SOL    HW269213  10.978   8.488   8.234 -0.8213  0.3617 -0.8883
21084SOL     OW69214   2.797   5.283   6.515  0.4780  0.0283 -0.3928
21084SOL    HW169215   2.865   5.225   6.481 -0.1076 -0.6685 -0.4095
21084SOL    HW269216   2.841   5.336   6.581  0.7679 -1.2919  0.5250
21085SOL     OW69217   8.384   4.037  11.080 -0.2710  0.1534 -0.0554
21085SOL    HW169218   8.327   4.033  11.004  0.0183  0.1544 -0.2769
21085SOL    HW269219   8.365   3.958  11.130 -0.6114  0.2565 -0.0203
21086SOL     OW69220   6.055   8.972   0.145 -0.5132  0.2160  0.0388
21086SOL    HW169221   6.036   9.024   0.067 -0.0694  0.1785 -0.0978
21086SOL    HW269222   6.151   8.969   0.149 -0.5344 -0.4149  0.1615
21087SOL     OW69223   8.184   2.252   6.856 -0.1145  0.0125  0.2524
21087SOL    HW169224   8.225   2.291   6.934 -0.7032 -0.4855  0.8298
21087SOL    HW269225   8.235   2.172   6.840  2.4072  1.9044 -2.1534
21088SOL     OW69226   0.694  10.442   9.987 -0.3595 -0.5021 -0.5986
21088SOL    HW169227   0.750  10.470   9.915  0.3597 -0.4581 -0.0360
21088SOL    HW269228   0.604  10.456   9.955 -0.0482 -0.2380 -1.3749
21089SOL     OW69229  11.728   8.005   6.470 -0.1529  0.1058  0.6714
21089SOL    HW169230  11.757   8.096   6.476 -0.0752 -0.0067  2.6311
21089SOL    HW269231  11.654   8.000   6.530  0.2415 -1.2607  1.0724
21090SOL     OW69232   6.303   4.218   0.874 -0.1852  0.5297 -0.3072
21090SOL    HW169233   6.330   4.127   0.885  0.9020  1.0854  2.3310
21090SOL    HW269234   6.213   4.220   0.905 -0.7308  0.1300 -1.7728
21091SOL     OW69235   4.403   7.817   4.796  0.5552 -0.2495  0.7539
21091SOL    HW169236   4.453   7.870   4.734 -0.7631  1.5319  1.1330
21091SOL    HW269237   4.331   7.782   4.743  0.1284  0.2564  0.9908
21092SOL     OW69238   8.208   0.800   5.353 -0.2300 -0.0340 -0.1298
21092SOL    HW169239   8.222   0.836   5.266  0.4078  1.4813  0.5618
21092SOL    HW269240   8.264   0.723   5.357  1.1600  0.9211 -0.4675
21093SOL     OW69241  10.202   9.912  11.175 -0.2831  0.6123  0.0103
21093SOL    HW169242  10.274   9.857  11.204 -0.7128 -0.2144 -0.4544
21093SOL    HW269243  10.245   9.985  11.129  0.2665  0.3649  0.1196
21094SOL     OW69244   1.323   3.255  10.204  0.4896 -0.2308  0.5446
21094SOL    HW169245   1.282   3.341  10.215  1.1454  0.0435  0.8789
21094SOL    HW269246   1.405   3.273  10.158  0.0451 -0.8235 -0.5139
21095SOL     OW69247  12.149   1.193   5.946 -0.0649 -0.4098 -0.8565
21095SOL    HW169248  12.118   1.104   5.931 -0.0144 -0.3027 -1.6152
21095SOL    HW269249  12.085   1.231   6.007 -0.1116 -0.9453 -0.5677
21096SOL     OW69250   4.710   0.128   9.733 -0.3908  0.1374 -0.3915
21096SOL    HW169251   4.622   0.110   9.765 -0.0494 -1.9848 -0.4855
21096SOL    HW269252   4.750   0.041   9.724  1.8974  1.0758  0.1595
21097SOL     OW69253  11.940   4.291   4.223 -0.8721  0.1720 -0.4225
21097SOL    HW169254  11.998   4.237   4.276 -0.0003  0.6516 -0.8618
21097SOL    HW269255  11.881   4.333   4.286  0.3797  1.0182  0.2156
21098SOL     OW69256   9.941   2.883   5.760 -0.2458  0.4993  0.0749
21098SOL    HW169257   9.968   2.797   5.728 -2.9955 -0.4406 -0.0084
21098SOL    HW269258   9.908   2.867   5.848  1.5451  1.9772  1.0754
21099SOL     OW69259   7.429   0.600   8.008 -0.6081  0.1785 -0.2820
21099SOL    HW169260   7.463   0.527   8.059 -1.2779  0.9500  1.3517
21099SOL    HW269261   7.368   0.559   7.946 -0.3873 -0.7122  0.0737
21100SOL     OW69262  11.935   9.481  10.304 -0.2388 -0.6630  0.4785
21100SOL    HW169263  12.018   9.435  10.288  0.4914  0.4127  1.0391
21100SOL    HW269264  11.922   9.472  10.399 -0.4902 -0.3855  0.4696
21101SOL     OW69265  10.835  10.673   3.130 -0.3821 -0.3290  0.4137
21101SOL    HW169266  10.880  10.648   3.211  0.7072  1.3293  0.3786
21101SOL    HW269267  10.748  10.634   3.137  0.4414 -2.0961  1.3390
21102SOL     OW69268   8.015   8.767   4.134  0.1494 -0.5365 -0.0539
21102SOL    HW169269   7.955   8.840   4.116 -0.2653 -0.5180  1.2831
21102SOL    HW269270   7.977   8.723   4.210 -0.7675 -3.4585 -2.0262
21103SOL     OW69271  10.419   0.924  11.533  0.2166 -0.0489  0.4606
21103SOL    HW169272  10.497   0.909  11.479 -1.2632  1.0699 -2.1753
21103SOL    HW269273  10.377   0.839  11.540 -1.1023  0.2019 -2.8449
21104SOL     OW69274   6.664   3.434   6.566  0.4312 -0.3295  0.1523
21104SOL    HW169275   6.662   3.426   6.471  1.2586 -2.0790  0.2479
21104SOL    HW269276   6.702   3.521   6.582 -0.0803  0.1494 -1.0814
21105SOL     OW69277  12.046   0.904   3.736  0.3504  0.4572  0.4245
21105SOL    HW169278  11.984   0.876   3.803  0.3886  1.2477  0.7912
21105SOL    HW269279  12.104   0.965   3.780  0.8944  0.3488 -0.1239
21106SOL     OW69280   8.354   2.940   7.817 -0.2812  0.2318  0.1863
21106SOL    HW169281   8.394   2.905   7.737 -1.2713 -0.1267 -0.1575
21106SOL    HW269282   8.343   3.033   7.799  0.8686  0.4523  0.4916
21107SOL     OW69283  10.052  10.315   7.009 -0.0815  0.4454  0.0654
21107SOL    HW169284  10.093  10.258   6.944 -0.6441  0.5551 -0.3932
21107SOL    HW269285   9.960  10.322   6.981  0.3082  2.9490 -0.9009
21108SOL     OW69286   0.261   4.615  10.167 -0.0146 -0.0565  0.0075
21108SOL    HW169287   0.318   4.583  10.237  0.1209  1.0895  0.4354
21108SOL    HW269288   0.320   4.632  10.094  0.0977  0.4543  0.2150
21109SOL     OW69289   1.882   7.907   5.393 -0.6656 -0.2043 -0.0419
21109SOL    HW169290   1.894   7.877   5.303 -0.6332 -0.6227  0.0999
21109SOL    HW269291   1.874   7.827   5.444 -2.5435  0.0170  0.0765
21110SOL     OW69292   9.658   2.704   9.414  0.0001  0.3120  0.0180
21110SOL    HW169293   9.709   2.722   9.335 -0.2270  0.4098 -0.1089
21110SOL    HW269294   9.613   2.787   9.432  2.3596  1.2682  1.9957
21111SOL     OW69295  12.323  10.059   1.167 -0.2983  0.7224  0.5997
21111SOL    HW169296  12.293  10.044   1.077 -0.9053 -0.1017  0.9241
21111SOL    HW269297  12.396  10.121   1.158 -1.8804  2.5720 -0.2571
21112SOL     OW69298   7.718   5.573   3.218  0.3348  0.0787 -0.2159
21112SOL    HW169299   7.693   5.665   3.222 -0.5915 -0.1677 -0.0804
21112SOL    HW269300   7.799   5.572   3.168  0.7933  1.0471  0.4899
21113SOL     OW69301   0.568   7.027   1.870 -0.3509 -0.2600  1.1631
21113SOL    HW169302   0.538   6.937   1.874 -0.3566 -0.2164  3.4492
21113SOL    HW269303   0.648   7.024   1.819  0.6421 -1.8899  2.7148
21114SOL     OW69304   4.184   0.301   0.986  0.6807 -0.2571  0.6530
21114SOL    HW169305   4.218   0.308   0.896 -2.7278 -1.7904 -0.9567
21114SOL    HW269306   4.182   0.391   1.018  0.7415  0.5183 -1.3704
21115SOL     OW69307  11.744   4.762   2.263 -0.2500 -0.0503  0.5079
21115SOL    HW169308  11.670   4.797   2.312 -0.9699  1.3651 -1.4830
21115SOL    HW269309  11.788   4.704   2.325 -2.1623  0.2025  2.2049
21116SOL     OW69310   7.487   6.275   1.405 -0.2991  0.0616  0.1129
21116SOL    HW169311   7.522   6.362   1.388  3.0207 -1.5228 -2.1969
21116SOL    HW269312   7.541   6.240   1.476  0.2407 -1.0108 -0.7903
21117SOL     OW69313  10.725   7.587  10.405  0.7382  0.2773  0.0601
21117SOL    HW169314  10.634   7.572  10.379  0.9444  0.1227 -0.5985
21117SOL    HW269315  10.723   7.671  10.451  0.4046  0.7360 -0.7616
21118SOL     OW69316   8.337   9.032  11.406  0.5249 -0.0826  0.4346
21118SOL    HW169317   8.398   9.104  11.417  0.9415 -0.3160 -0.2901
21118SOL    HW269318   8.314   9.034  11.313  0.3627 -0.7391  0.4544
21119SOL     OW69319   5.887   4.660   6.794  0.3290 -0.3364 -0.4429
21119SOL    HW169320   5.923   4.688   6.878  0.8365 -1.4115 -0.2785
21119SOL    HW269321   5.792   4.664   6.805  0.3953 -0.1107  0.0478
21120SOL     OW69322   9.398   9.652  11.590 -0.1482 -0.2750 -0.2263
21120SOL    HW169323   9.417   9.578  11.648  2.0774  2.2783  2.6410
21120SOL    HW269324   9.476   9.661  11.535 -0.2058  0.2045 -0.2348
21121SOL     OW69325   0.536   8.907   3.103  0.2041  0.6617  0.6129
21121SOL    HW169326   0.627   8.881   3.092 -0.1933 -1.5216  1.9656
21121SOL    HW269327   0.500   8.907   3.014  0.7578 -1.6222  0.3368
21122SOL     OW69328   0.841  11.284   1.233  0.1186  0.0082 -0.1323
21122SOL    HW169329   0.832  11.338   1.156  0.6651 -0.9963 -0.9282
21122SOL    HW269330   0.903  11.330   1.289 -0.2494  0.7155 -0.3048
21123SOL     OW69331   5.199  10.741   9.551  0.1140  0.0874  0.2342
21123SOL    HW169332   5.220  10.715   9.461 -1.8950  1.6927 -0.8224
21123SOL    HW269333   5.257  10.689   9.606 -0.1501 -2.6617 -1.8646
21124SOL     OW69334   2.351   8.182   1.851 -0.2032 -0.4220  0.7382
21124SOL    HW169335   2.415   8.251   1.832  0.3369 -1.4577 -1.4811
21124SOL    HW269336   2.397   8.123   1.912  0.2176 -0.1089  0.7311
21125SOL     OW69337  12.471   2.801  12.419  0.0702  0.4179  0.4547
21125SOL    HW169338  12.435   2.886  12.446  0.1925  0.3898  0.7165
21125SOL    HW269339  12.430   2.783  12.335 -0.7651  0.2372  0.8912
21126SOL     OW69340   5.479   8.177   4.874 -0.2697  0.0280  0.2575
21126SOL    HW169341   5.504   8.134   4.955 -1.4439  0.0621  0.6633
21126SOL    HW269342   5.401   8.227   4.897 -1.0884 -0.5897 -1.0558
21127SOL     OW69343   9.442   4.449   8.187  0.1403 -0.0006 -0.2145
21127SOL    HW169344   9.462   4.362   8.223  0.3876  0.7735  1.6596
21127SOL    HW269345   9.366   4.435   8.131 -0.9862 -1.1661  1.4852
21128SOL     OW69346   2.345   4.259  11.862  0.2579 -0.1541  0.3177
21128SOL    HW169347   2.428   4.233  11.902  0.4235  2.7127  2.0807
21128SOL    HW269348   2.280   4.246  11.931 -0.6857 -1.6029 -0.7873
21129SOL     OW69349   0.693   3.447   1.846  0.0853  0.8769 -0.2673
21129SOL    HW169350   0.614   3.395   1.835  0.4524 -0.3765  2.2296
21129SOL    HW269351   0.731   3.452   1.759 -0.2991 -2.6075 -0.7828
21130SOL     OW69352  11.848   5.213  10.569 -0.0425 -0.5011 -0.0527
21130SOL    HW169353  11.935   5.177  10.589  0.4538 -0.0034 -1.2342
21130SOL    HW269354  11.866   5.290  10.515 -1.2446 -0.7777 -0.8699
21131SOL     OW69355   8.826  10.354  12.179  0.3511 -0.1664  0.1060
21131SOL    HW169356   8.865  10.269  12.162  1.0665  0.3735 -1.0104
21131SOL    HW269357   8.733  10.335  12.195  0.7383 -1.2769  1.2076
21132SOL     OW69358   0.132   7.486  11.885  0.4106  0.3524  0.3645
21132SOL    HW169359   0.155   7.511  11.796 -0.0870  1.7872  0.6001
21132SOL    HW269360   0.207   7.512  11.938  1.1321 -1.4102  0.2767
21133SOL     OW69361   4.116   9.783   0.633  0.0417  0.3713 -0.2623
21133SOL    HW169362   4.073   9.703   0.663  0.3504 -0.0392 -0.8861
21133SOL    HW269363   4.208   9.759   0.623  0.0051  0.5641 -1.2047
21134SOL     OW69364  11.479   1.666   9.094  0.1587 -0.1894  0.5740
21134SOL    HW169365  11.572   1.686   9.105  0.2427 -0.8192  1.0697
21134SOL    HW269366  11.437   1.751   9.084  0.9998  0.0416 -1.4791
21135SOL     OW69367  10.716  12.374   7.446 -0.0339 -0.1556  0.1276
21135SOL    HW169368  10.749  12.297   7.492  0.2505  1.0636  2.0928
21135SOL    HW269369  10.695  12.436   7.516 -0.2956  1.5379 -1.3906
21136SOL     OW69370  11.917  11.530   8.439  0.1745  0.5956 -0.0239
21136SOL    HW169371  11.946  11.449   8.482  2.7325  0.8156 -1.1109
21136SOL    HW269372  11.898  11.591   8.510 -0.3382 -0.4729  0.7878
21137SOL     OW69373   9.860   1.030   5.940  0.0153 -0.4007  0.0826
21137SOL    HW169374   9.909   1.086   6.000 -0.3114  0.1619 -0.1662
21137SOL    HW269375   9.778   1.078   5.924  1.0114  0.6153 -2.6118
21138SOL     OW69376  11.201   0.447   4.119  0.6657  0.0518 -0.0169
21138SOL    HW169377  11.285   0.491   4.136  0.5051 -0.3177  2.0622
21138SOL    HW269378  11.174   0.414   4.205 -1.2929 -0.4305 -0.7665
21139SOL     OW69379   7.401  10.806  10.949 -0.2210 -0.5621 -0.1265
21139SOL    HW169380   7.421  10.742  11.017 -0.7318 -2.4232 -1.6503
21139SOL    HW269381   7.484  10.818  10.903 -0.0846  0.0246  0.2643
21140SOL     OW69382  10.442   5.809   2.133  0.5416  0.2508 -0.1352
21140SOL    HW169383  10.476   5.857   2.208  1.5703  0.4756 -0.7230
21140SOL    HW269384  10.392   5.737   2.171  1.3717  0.1306  0.7721
21141SOL     OW69385   5.251  10.517   6.788  0.1428 -0.2938  0.1925
21141SOL    HW169386   5.171  10.549   6.748  0.9468 -0.5429 -1.7340
21141SOL    HW269387   5.321  10.561   6.739  1.2153  0.4806  2.2948
21142SOL     OW69388   4.397   5.813   1.022 -0.0419 -0.3396  0.3329
21142SOL    HW169389   4.401   5.906   0.999  1.1943 -0.5883 -0.5928
21142SOL    HW269390   4.473   5.798   1.078 -0.2144 -0.8050  0.4533
21143SOL     OW69391  11.111  11.364   8.981 -0.2615 -0.3044  0.2653
21143SOL    HW169392  11.108  11.391   8.889  1.1917  0.3431  0.3869
21143SOL    HW269393  11.161  11.282   8.981 -1.5753 -1.1405  0.3267
21144SOL     OW69394   8.672   9.212   6.272  0.3834  0.0955 -0.8523
21144SOL    HW169395   8.681   9.227   6.366 -2.9729 -2.0389 -0.0265
21144SOL    HW269396   8.697   9.121   6.259 -0.9095 -0.1823 -1.6488
21145SOL     OW69397   8.230   4.140  10.283  0.3743 -0.7032  0.2668
21145SOL    HW169398   8.260   4.193  10.209 -0.2597 -2.2229 -1.1375
21145SOL    HW269399   8.138   4.165  10.294  0.4761 -0.4564  0.5744
21146SOL     OW69400   6.395   1.184   0.252  0.1863  0.8273  0.0335
21146SOL    HW169401   6.356   1.184   0.165 -0.2708 -1.0284  0.2028
21146SOL    HW269402   6.482   1.146   0.239 -0.7353 -1.6817  0.6719
21147SOL     OW69403   5.103   8.900  10.167  0.0207 -0.3467  0.0783
21147SOL    HW169404   5.016   8.928  10.194  0.1956  0.0589  0.2281
21147SOL    HW269405   5.115   8.814  10.208 -1.5139 -1.8799 -2.3804
21148SOL     OW69406  11.532   2.666  10.801  0.0446 -0.4323  0.1431
21148SOL    HW169407  11.503   2.614  10.876  0.9873 -0.6479  0.3596
21148SOL    HW269408  11.490   2.624  10.726 -0.3440 -0.6340  0.4631
21149SOL     OW69409   7.888   9.805   9.181 -0.0476  0.3717  0.4133
21149SOL    HW169410   7.818   9.859   9.218 -0.5024 -1.1477  1.8771
21149SOL    HW269411   7.848   9.764   9.104 -0.4308  0.3097  0.6455
21150SOL     OW69412  10.775   4.099   1.340  0.5027  0.3518 -0.1109
21150SOL    HW169413  10.851   4.081   1.285 -0.2587 -1.0583 -0.7754
21150SOL    HW269414  10.805   4.080   1.429  1.2062  0.8082 -0.2412
21151SOL     OW69415   8.280   2.178   4.174 -0.2549 -0.4130  0.3960
21151SOL    HW169416   8.244   2.208   4.258 -0.0603 -2.5280  1.2934
21151SOL    HW269417   8.282   2.083   4.181  1.0096 -0.5858 -1.5164
21152SOL     OW69418   3.288   1.145   3.457 -0.2294  0.1291  0.3511
21152SOL    HW169419   3.379   1.128   3.482 -0.1154  0.3531  0.0851
21152SOL    HW269420   3.259   1.064   3.416 -0.0170  0.2038  0.0515
21153SOL     OW69421   1.470   0.128   1.764  0.2710  0.2217  0.1629
21153SOL    HW169422   1.559   0.095   1.776 -0.0020 -0.5502  0.1490
21153SOL    HW269423   1.481   0.213   1.723  0.9714 -0.7223 -1.7322
21154SOL     OW69424   9.554  11.978   5.346 -0.1848  0.6643  0.2851
21154SOL    HW169425   9.488  11.933   5.293  0.0987  0.1055  0.4006
21154SOL    HW269426   9.560  12.066   5.308 -0.7677  0.6171  0.0784
21155SOL     OW69427   9.014   8.381   1.471  0.1055  0.2473 -0.0045
21155SOL    HW169428   9.049   8.348   1.388  0.1652 -0.5822  0.3459
21155SOL    HW269429   9.092   8.399   1.524  0.0515  0.2830  0.0631
21156SOL     OW69430   5.218   2.201  11.361  0.2202  0.4541  0.5556
21156SOL    HW169431   5.126   2.207  11.334  0.4997  0.9060 -0.3385
21156SOL    HW269432   5.223   2.120  11.412 -0.4479 -0.1763 -0.3472
21157SOL     OW69433  12.483   8.737  11.279  0.1132 -0.0128  0.0773
21157SOL    HW169434  12.405   8.792  11.267  1.8153  2.0983 -2.4527
21157SOL    HW269435  12.456   8.651  11.246 -0.7358  1.1060 -2.3687
21158SOL     OW69436   4.834   5.286   2.280 -0.3767 -0.2243 -0.3794
21158SOL    HW169437   4.820   5.355   2.346 -0.9994 -1.2325  0.5667
21158SOL    HW269438   4.928   5.283   2.268 -0.3790  1.3412 -1.0430
21159SOL     OW69439   6.286   0.129   5.843 -0.1785  0.7792  0.3400
21159SOL    HW169440   6.286   0.166   5.754 -1.7116  0.9502  0.3841
21159SOL    HW269441   6.298   0.205   5.900  0.2672  0.7350  0.3120
21160SOL     OW69442   6.538   9.364   4.927 -0.2503 -0.2094 -0.2126
21160SOL    HW169443   6.483   9.438   4.902 -0.4838 -0.6634 -1.1240
21160SOL    HW269444   6.613   9.403   4.972 -0.9495  0.4758  0.3828
21161SOL     OW69445  12.253   7.392   7.995 -0.2826  0.0112  0.4235
21161SOL    HW169446  12.265   7.404   8.089  0.3814  1.8363  0.1433
21161SOL    HW269447  12.175   7.443   7.974  0.6225  1.1299 -0.2946
21162SOL     OW69448   4.243  12.053   4.021  0.0073  0.5235 -0.1630
21162SOL    HW169449   4.322  12.052   4.075  0.3544 -0.8110 -0.6594
21162SOL    HW269450   4.267  12.103   3.943  1.0596 -1.5961 -1.2666
21163SOL     OW69451  11.309   4.015   2.392  0.1215  0.1099  0.2396
21163SOL    HW169452  11.305   4.045   2.483  1.1928 -0.6284  0.5545
21163SOL    HW269453  11.403   4.014   2.371  0.0775 -1.9340 -0.0811
21164SOL     OW69454   7.744  11.802  10.428  0.3407  0.5723 -0.0519
21164SOL    HW169455   7.830  11.826  10.394  0.4226 -0.3401 -0.5144
21164SOL    HW269456   7.726  11.867  10.496  1.2895  0.9111 -0.1127
21165SOL     OW69457   1.582   9.536   7.294  0.7531  0.4976 -0.4671
21165SOL    HW169458   1.519   9.601   7.261  0.3262  0.2936 -0.0636
21165SOL    HW269459   1.531   9.455   7.301  1.0524  0.3382 -0.0956
21166SOL     OW69460   7.835   2.116   8.966 -0.4104  0.6297 -0.2435
21166SOL    HW169461   7.901   2.058   8.929 -0.7345 -0.0207  0.1860
21166SOL    HW269462   7.775   2.058   9.013 -0.7538  1.3078  0.1751
21167SOL     OW69463   6.292   8.301   3.676  0.0001 -0.5069  0.2456
21167SOL    HW169464   6.318   8.217   3.638  0.4574 -0.4210  0.3690
21167SOL    HW269465   6.200   8.289   3.698 -0.4201 -0.4118 -1.3193
21168SOL     OW69466   2.004   2.301  10.402 -0.7494  0.0648 -0.2367
21168SOL    HW169467   2.051   2.383  10.415  0.2691 -0.5187 -0.1800
21168SOL    HW269468   2.004   2.260  10.489  0.5894 -0.9500 -0.6839
21169SOL     OW69469   9.948   5.053   8.070 -0.2152 -0.0777 -0.6342
21169SOL    HW169470  10.044   5.056   8.068 -0.1765  1.6183  0.8679
21169SOL    HW269471   9.927   4.960   8.072  1.4538 -0.4822 -0.0636
21170SOL     OW69472   3.110   1.133  11.105 -0.4212  0.0490  0.1324
21170SOL    HW169473   3.017   1.145  11.088 -0.1006  1.4281 -0.7392
21170SOL    HW269474   3.154   1.177  11.033  0.9302  0.1490  0.9834
21171SOL     OW69475   3.985   0.473   4.291 -0.0315 -0.4215  0.0085
21171SOL    HW169476   4.051   0.444   4.355 -0.1179  0.2172  0.3866
21171SOL    HW269477   3.928   0.532   4.339 -1.1996 -1.3482 -0.1870
21172SOL     OW69478  12.295   3.028   1.377  0.4085  0.1239  0.1720
21172SOL    HW169479  12.354   2.991   1.312 -0.4519 -0.1703 -0.4646
21172SOL    HW269480  12.351   3.084   1.431  0.9022  1.6904 -1.8211
21173SOL     OW69481   3.298   0.294   6.622  0.2884 -0.5313 -0.3078
21173SOL    HW169482   3.344   0.281   6.539  0.5371  0.2628 -0.3045
21173SOL    HW269483   3.212   0.255   6.608  0.8545 -1.7998 -0.4034
21174SOL     OW69484   7.288   8.661   1.024 -0.7015 -0.2020  0.6602
21174SOL    HW169485   7.366   8.644   1.076 -1.0359  0.0060  1.2437
21174SOL    HW269486   7.225   8.594   1.051 -0.9373  0.0136  0.6564
21175SOL     OW69487   6.383   7.838  10.678  0.1077  0.3146 -0.5706
21175SOL    HW169488   6.358   7.747  10.696 -1.2377  1.0260  1.5042
21175SOL    HW269489   6.314   7.870  10.620 -0.2470  0.4365 -0.0836
21176SOL     OW69490   2.180   0.532   0.435  0.2425 -0.0566  0.8491
21176SOL    HW169491   2.108   0.570   0.383  0.5758 -1.0356 -0.3863
21176SOL    HW269492   2.258   0.578   0.405  0.5732 -1.2603 -0.2821
21177SOL     OW69493   2.366   7.486   5.827  0.1731  0.6390 -0.0166
21177SOL    HW169494   2.363   7.581   5.817  0.2960  0.9335  2.1290
21177SOL    HW269495   2.459   7.463   5.816  0.0422  0.6366 -1.2540
21178SOL     OW69496   3.402   0.675   9.065 -0.3915  0.5792 -0.6237
21178SOL    HW169497   3.463   0.746   9.046  0.2324  0.5669  1.1320
21178SOL    HW269498   3.454   0.595   9.057 -0.3483  0.5214  0.1116
21179SOL     OW69499   4.920   6.046   0.318 -0.3111  0.0777 -0.2820
21179SOL    HW169500   4.957   5.961   0.342  2.2557  1.9356  3.1950
21179SOL    HW269501   4.990   6.108   0.337 -3.2213  3.3374  0.7430
21180SOL     OW69502   1.518   0.450  10.966  0.3568 -0.1595  0.0863
21180SOL    HW169503   1.473   0.367  10.956 -1.3520  0.7479 -0.0601
21180SOL    HW269504   1.492   0.482  11.052 -0.1645  0.8677 -0.4335
21181SOL     OW69505   7.889  11.086   4.487 -0.0910  0.4102 -0.0537
21181SOL    HW169506   7.801  11.070   4.522 -0.2340 -1.9533 -1.2813
21181SOL    HW269507   7.893  11.180   4.474 -1.9843  0.7178  1.1895
21182SOL     OW69508   8.665   5.532   3.480  0.2175 -0.0137 -0.2732
21182SOL    HW169509   8.587   5.585   3.464  1.2711  1.8887  0.5147
21182SOL    HW269510   8.668   5.523   3.576 -0.2215 -2.0157 -0.4056
21183SOL     OW69511  10.226   0.327   9.798 -0.3785 -0.1538 -0.2627
21183SOL    HW169512  10.301   0.337   9.740 -0.6371  0.8888 -0.4525
21183SOL    HW269513  10.240   0.244   9.843  0.6561 -0.1835 -0.6214
21184SOL     OW69514   6.112   4.934   2.760  0.6105 -0.1228 -0.2423
21184SOL    HW169515   6.113   4.838   2.764 -0.1695 -0.1655 -0.7699
21184SOL    HW269516   6.024   4.955   2.729  1.4900  0.6643 -2.3848
21185SOL     OW69517   1.759   2.620   6.261 -0.0846 -0.0655  0.4818
21185SOL    HW169518   1.667   2.632   6.240  0.0710 -0.3480 -0.4128
21185SOL    HW269519   1.806   2.674   6.198  0.3851 -0.5097  0.4367
21186SOL     OW69520   5.281   0.453   9.581 -0.2278  0.1910 -0.0961
21186SOL    HW169521   5.312   0.525   9.635  0.4842 -0.3983  0.2992
21186SOL    HW269522   5.337   0.456   9.503  0.6775 -0.6915  0.4871
21187SOL     OW69523   4.251   8.811  10.533  0.2849 -0.5385 -0.1179
21187SOL    HW169524   4.332   8.856  10.506 -0.6569 -0.7051 -3.7649
21187SOL    HW269525   4.280   8.722  10.554  1.2421 -0.1405  0.3544
21188SOL     OW69526   5.266   8.662   6.020 -0.2902 -0.2029  0.1660
21188SOL    HW169527   5.302   8.744   6.053 -1.2108  0.3829 -0.2462
21188SOL    HW269528   5.270   8.671   5.925 -1.4038 -0.1627  0.1069
21189SOL     OW69529   1.483   4.221   6.228 -0.0316 -0.4824  0.1834
21189SOL    HW169530   1.568   4.180   6.244  0.8145  1.1596  0.1248
21189SOL    HW269531   1.477   4.228   6.133  0.7755  1.3265  0.2288
21190SOL     OW69532  10.287   8.169  11.391 -0.0848 -0.2997 -0.0917
21190SOL    HW169533  10.272   8.245  11.447  0.0667 -0.5654  0.3113
21190SOL    HW269534  10.200   8.137  11.369 -0.1546  0.1011 -0.4224
21191SOL     OW69535   7.492  10.644   0.080  0.2765 -0.2274  0.2844
21191SOL    HW169536   7.489  10.609  -0.009  2.0763 -2.2162  0.8995
21191SOL    HW269537   7.403  10.631   0.114 -0.0106 -0.9723 -0.7094
21192SOL     OW69538   8.853   9.449   6.835 -0.0955 -0.1753 -0.7518
21192SOL    HW169539   8.863   9.535   6.876 -2.6235 -0.0058 -0.3394
21192SOL    HW269540   8.840   9.389   6.908 -2.0265 -0.2891 -1.1579
21193SOL     OW69541   6.949   1.167   8.480 -0.1064  0.0790  0.1272
21193SOL    HW169542   6.958   1.247   8.531  0.1986 -0.7507  1.4157
21193SOL    HW269543   7.029   1.164   8.427  0.9623 -0.4848  1.7185
21194SOL     OW69544   1.800   0.671   5.124 -0.1231  0.5505 -0.1680
21194SOL    HW169545   1.858   0.644   5.195 -2.3087 -4.1856  0.2659
21194SOL    HW269546   1.730   0.719   5.167 -0.1199 -0.0266  0.5032
21195SOL     OW69547   2.125   8.599   6.915 -0.6224  0.2804  0.1118
21195SOL    HW169548   2.080   8.680   6.893  0.1243  0.7331  0.1915
21195SOL    HW269549   2.055   8.536   6.932 -1.2111  0.8370 -0.2020
21196SOL     OW69550   7.100   9.891  11.519 -0.4160  0.1108  0.4812
21196SOL    HW169551   7.085   9.956  11.450  1.7027 -1.1750 -1.3519
21196SOL    HW269552   7.017   9.884  11.564 -2.0945  0.6911 -2.2848
21197SOL     OW69553   5.392   1.112  11.368 -0.6614 -0.1326  0.2350
21197SOL    HW169554   5.324   1.052  11.337 -0.8243 -0.4579  1.1833
21197SOL    HW269555   5.403   1.175  11.297 -1.5568 -0.4077 -0.1616
21198SOL     OW69556  10.285   1.864  10.173 -0.0870 -0.6758 -0.1131
21198SOL    HW169557  10.338   1.932  10.215 -0.5840 -0.2883 -0.1017
21198SOL    HW269558  10.287   1.791  10.235 -0.3094 -0.3314  0.3078
21199SOL     OW69559   8.921   8.708  10.207  0.0217 -0.4587  0.8337
21199SOL    HW169560   8.881   8.622  10.222 -1.5789 -0.0290 -0.6735
21199SOL    HW269561   8.850   8.763  10.175  1.5664  0.6752 -0.8743
21200SOL     OW69562   5.528   9.326   0.014 -0.6204 -0.0577  0.0710
21200SOL    HW169563   5.472   9.265   0.062 -1.0273 -0.6906 -1.1554
21200SOL    HW269564   5.468   9.396  -0.012 -0.8995 -0.7719 -1.3048
21201SOL     OW69565  10.713   2.067   5.762 -0.5584 -0.1769 -0.9030
21201SOL    HW169566  10.800   2.080   5.726 -0.2655 -0.0921 -0.1870
21201SOL    HW269567  10.696   2.146   5.815  0.0003 -1.2779  1.0259
21202SOL     OW69568   0.400   4.010   2.842 -0.3622  0.2045 -0.0784
21202SOL    HW169569   0.433   3.981   2.757  0.0151 -0.0008  0.1310
21202SOL    HW269570   0.411   3.933   2.899  1.7202  1.0619  0.7790
21203SOL     OW69571   7.079   1.213   7.197 -0.4551 -0.1268 -0.5284
21203SOL    HW169572   7.075   1.126   7.158 -1.5816  0.2340 -1.2891
21203SOL    HW269573   6.995   1.223   7.243 -0.4002  0.6056 -0.5622
21204SOL     OW69574   8.159   0.413   8.382  0.3484  0.2425 -0.0010
21204SOL    HW169575   8.235   0.461   8.415  0.4632 -0.6660  1.1311
21204SOL    HW269576   8.170   0.412   8.287  1.6660  0.2809  0.1378
21205SOL     OW69577   7.195   2.158   5.480  0.1622  0.1329  0.4982
21205SOL    HW169578   7.201   2.190   5.570 -0.6593 -0.5727  0.8219
21205SOL    HW269579   7.126   2.092   5.483 -1.0666  1.2766 -0.9818
21206SOL     OW69580  11.961  10.100   4.048 -0.2173  0.6260  0.2963
21206SOL    HW169581  11.965  10.156   3.971 -0.4134  0.0895 -0.1113
21206SOL    HW269582  11.934  10.015   4.014 -0.7801  0.5060  1.0204
21207SOL     OW69583   8.887   5.526   8.913  0.0687 -0.4860 -0.2014
21207SOL    HW169584   8.953   5.561   8.972 -0.5849  2.7548 -1.2059
21207SOL    HW269585   8.934   5.512   8.830 -0.5275  2.8863 -1.2589
21208SOL     OW69586   4.750   0.562   2.319  0.2799 -0.0436 -0.1470
21208SOL    HW169587   4.727   0.596   2.405  0.1221 -1.6288  0.4583
21208SOL    HW269588   4.683   0.496   2.300  0.0694  0.5775 -1.6786
21209SOL     OW69589  10.587   1.239   1.847  0.1272 -0.3543 -0.0247
21209SOL    HW169590  10.500   1.272   1.825  0.6484  0.9320 -0.2804
21209SOL    HW269591  10.628   1.220   1.763 -1.0619 -4.3456  0.1226
21210SOL     OW69592   2.175   3.346   3.158 -0.7241 -0.3579 -0.5613
21210SOL    HW169593   2.190   3.379   3.246  0.4664 -1.3924 -0.3513
21210SOL    HW269594   2.156   3.425   3.106  0.3603  0.4702  0.2511
21211SOL     OW69595   6.747  10.904  10.725  0.7969 -0.3847 -0.0694
21211SOL    HW169596   6.824  10.960  10.717  1.7324 -1.6357 -0.0863
21211SOL    HW269597   6.781  10.815  10.721 -0.5302 -0.9841  1.0483
21212SOL     OW69598  11.018  10.018  11.382  0.2736 -0.4446 -0.0485
21212SOL    HW169599  11.032  10.023  11.287 -0.5386 -0.9811 -0.2065
21212SOL    HW269600  11.040   9.928  11.405 -0.2461 -0.5203  0.1510
21213SOL     OW69601   6.376  10.011   1.956  0.6358  0.7887  0.3033
21213SOL    HW169602   6.331   9.955   1.892  0.4371 -1.0101  1.9097
21213SOL    HW269603   6.466  10.017   1.924  0.8191 -1.0006  0.3752
21214SOL     OW69604   3.925   8.510   7.374  0.0806 -0.4593 -0.0722
21214SOL    HW169605   3.989   8.488   7.306  0.5960 -0.4553  0.4024
21214SOL    HW269606   3.920   8.606   7.372  2.0657 -0.2542  1.6261
21215SOL     OW69607   2.336   7.153   6.335  0.1902 -0.2139 -0.1305
21215SOL    HW169608   2.412   7.171   6.279  1.8101 -3.4367  0.7701
21215SOL    HW269609   2.273   7.112   6.276  0.5227 -0.5378 -0.2698
21216SOL     OW69610   4.964   9.969  10.318 -0.1920  0.5650 -0.0885
21216SOL    HW169611   5.048   9.959  10.364 -0.2813 -0.1758 -0.0624
21216SOL    HW269612   4.950  10.063  10.313  0.7968  0.7096 -0.3618
21217SOL     OW69613  11.536   6.877   7.089 -0.4664  0.1319 -0.5218
21217SOL    HW169614  11.609   6.939   7.095 -0.0879 -0.3284 -0.2848
21217SOL    HW269615  11.509   6.863   7.180 -0.4266 -0.1891 -0.5568
21218SOL     OW69616   2.245   5.492   1.621 -0.4915  0.6996  0.6421
21218SOL    HW169617   2.172   5.528   1.671  0.4316  1.1818  1.7112
21218SOL    HW269618   2.311   5.472   1.687  0.2863  0.1380 -0.2801
21219SOL     OW69619   3.340   1.357  11.035 -0.6662  0.7375 -0.2665
21219SOL    HW169620   3.290   1.436  11.017 -0.5407  0.9418  0.2685
21219SOL    HW269621   3.400   1.349  10.961 -0.0892  1.6184  0.0872
21220SOL     OW69622  11.647   8.572   8.201 -0.1465 -0.1270  0.4128
21220SOL    HW169623  11.718   8.629   8.170 -0.4352 -0.1914 -0.3757
21220SOL    HW269624  11.579   8.632   8.231 -0.5961 -0.0251 -0.7386
21221SOL     OW69625   6.960   9.933   0.942  0.5469  0.1175 -0.3497
21221SOL    HW169626   6.976   9.940   1.036  0.9535  0.1548 -0.4182
21221SOL    HW269627   6.870   9.963   0.931 -0.0740 -1.4253  0.2262
21222SOL     OW69628   8.439  10.986   8.476 -0.1390 -0.1870 -0.0492
21222SOL    HW169629   8.512  10.999   8.537  0.6043  0.8313 -1.0999
21222SOL    HW269630   8.481  10.956   8.395 -0.8633  0.4717 -0.6833
21223SOL     OW69631   6.919   9.359   3.889 -0.1231 -0.4749  0.1250
21223SOL    HW169632   6.974   9.364   3.967  1.4308  0.4666 -0.9567
21223SOL    HW269633   6.975   9.317   3.824 -0.5885  0.6832 -1.0738
21224SOL     OW69634   2.007   2.894   8.039 -0.2739 -0.0327  0.3070
21224SOL    HW169635   1.943   2.925   7.974  0.8701 -0.1481 -0.9258
21224SOL    HW269636   2.030   2.806   8.009  0.4336 -0.0057  0.7602
21225SOL     OW69637   3.242  11.114   0.895 -0.0140  0.0568  0.0871
21225SOL    HW169638   3.227  11.164   0.815 -0.0269 -0.9723 -0.5778
21225SOL    HW269639   3.194  11.032   0.882  2.7850 -1.6778 -0.4464
21226SOL     OW69640   2.325   3.788   9.662 -0.0477  0.5390  0.5986
21226SOL    HW169641   2.320   3.865   9.606 -3.8387  1.1401  1.4734
21226SOL    HW269642   2.393   3.809   9.727  0.7406  2.0353 -0.6535
21227SOL     OW69643   2.439   1.839   6.800 -0.9324  0.0840  0.0135
21227SOL    HW169644   2.352   1.816   6.769 -1.9308  0.2449  2.4675
21227SOL    HW269645   2.457   1.926   6.763 -0.4812 -1.1221 -2.8831
21228SOL     OW69646   1.537  11.334   1.663  0.3856  0.8735 -0.7768
21228SOL    HW169647   1.599  11.308   1.730 -0.1609  0.1832 -0.5274
21228SOL    HW269648   1.591  11.357   1.587  0.9274  0.0122 -0.6618
21229SOL     OW69649  11.532  10.047   0.458  0.1306 -1.0086 -0.4571
21229SOL    HW169650  11.527  10.005   0.372  0.2763 -2.7060  0.3238
21229SOL    HW269651  11.540   9.974   0.520 -0.8686  0.1202  1.0786
21230SOL     OW69652   3.393   7.985   7.985  0.4693  0.0769  0.1703
21230SOL    HW169653   3.448   8.035   7.924 -0.6901 -0.2490 -1.1945
21230SOL    HW269654   3.446   7.978   8.064  1.9915  0.6206 -0.7529
21231SOL     OW69655   8.367   3.287   7.224 -0.3733 -0.3604  0.5023
21231SOL    HW169656   8.308   3.348   7.267 -0.4455  0.6267 -0.9283
21231SOL    HW269657   8.360   3.206   7.276 -1.9599  0.1436  1.1370
21232SOL     OW69658   5.948  10.272   6.397 -0.2156 -0.4169  0.7857
21232SOL    HW169659   5.872  10.214   6.395  0.6179 -1.5419 -0.1131
21232SOL    HW269660   5.992  10.256   6.314  0.7615  0.5618  1.0865
21233SOL     OW69661   3.096   4.996   0.314 -0.4015 -0.2535 -0.1249
21233SOL    HW169662   3.124   5.061   0.379  0.6241 -0.4721 -0.3282
21233SOL    HW269663   3.145   4.917   0.338 -1.3492 -0.8528 -0.1063
21234SOL     OW69664   9.521   0.303   8.401 -0.3910 -0.5633 -0.7378
21234SOL    HW169665   9.453   0.276   8.340 -0.9070 -1.2384  0.1143
21234SOL    HW269666   9.540   0.393   8.377 -0.9130 -0.6724 -1.5963
21235SOL     OW69667   6.154   0.262   7.835  0.5205 -0.3668 -0.1099
21235SOL    HW169668   6.190   0.201   7.771  1.6381 -1.2804  1.3348
21235SOL    HW269669   6.222   0.328   7.847  0.0154  0.2134 -0.3933
21236SOL     OW69670   9.485   3.635   1.189 -0.4816 -0.0124  0.1134
21236SOL    HW169671   9.507   3.658   1.279  1.0103 -1.3224  0.1170
21236SOL    HW269672   9.398   3.596   1.195 -1.4915  2.1912  0.5971
21237SOL     OW69673   8.891   5.297   4.378 -0.2307 -0.1966 -0.5948
21237SOL    HW169674   8.828   5.367   4.364  0.2536  0.8463  1.9393
21237SOL    HW269675   8.841   5.228   4.422  0.2746  0.6590  1.4829
21238SOL     OW69676  10.788   1.254   1.651 -0.4708  0.1324  0.1780
21238SOL    HW169677  10.880   1.279   1.636 -0.3867 -1.0765 -1.7795
21238SOL    HW269678  10.786   1.161   1.632 -2.0468  0.0599  0.5938
21239SOL     OW69679   4.408   7.309   8.040  0.2902  0.0956  0.1353
21239SOL    HW169680   4.477   7.328   7.977  1.5566 -0.0538  1.4208
21239SOL    HW269681   4.338   7.372   8.019  1.1500  0.8115 -0.6689
21240SOL     OW69682   0.389   9.792   1.983  0.0377  0.2675 -0.0326
21240SOL    HW169683   0.350   9.724   1.929  0.0095 -0.0655  0.4062
21240SOL    HW269684   0.317   9.855   1.998 -0.4516 -0.5156  1.0596
21241SOL     OW69685   3.590   3.091   8.502 -0.6271 -0.4387 -0.8992
21241SOL    HW169686   3.508   3.061   8.540  0.5943 -2.6965  0.2136
21241SOL    HW269687   3.619   3.163   8.558 -0.5623 -1.4327  0.3776
21242SOL     OW69688  12.082   7.498   6.433 -0.1944 -0.0592  0.5881
21242SOL    HW169689  12.054   7.578   6.477 -1.0866 -0.3811  0.6325
21242SOL    HW269690  12.002   7.447   6.423  0.3283 -0.8651  0.3858
21243SOL     OW69691   7.309   5.645   1.807 -0.2680 -0.4070 -0.0795
21243SOL    HW169692   7.236   5.624   1.865  1.6154 -0.5017  2.4369
21243SOL    HW269693   7.340   5.730   1.837  1.4975 -0.9886 -0.1257
21244SOL     OW69694   7.633   6.214   5.867  0.0292  0.2644 -0.3194
21244SOL    HW169695   7.666   6.288   5.918 -0.3981  0.5956 -0.5177
21244SOL    HW269696   7.661   6.232   5.777  0.7785 -0.3160 -0.2141
21245SOL     OW69697   3.859   1.823   6.186 -0.4160  0.9260 -0.1659
21245SOL    HW169698   3.903   1.860   6.109 -1.3729  0.5343 -0.9132
21245SOL    HW269699   3.767   1.847   6.176 -1.0590 -1.4534 -0.6083
21246SOL     OW69700   8.571   9.187   0.184 -0.0345  0.1786  0.2023
21246SOL    HW169701   8.525   9.107   0.210  0.2870  0.4536  1.7329
21246SOL    HW269702   8.633   9.158   0.117  1.0180 -1.1566  1.6783
21247SOL     OW69703  10.441   5.851  12.357  0.1011  0.2664  0.0395
21247SOL    HW169704  10.372   5.785  12.358 -0.5281  0.8824 -1.0499
21247SOL    HW269705  10.512   5.811  12.308 -0.3855  0.4758 -0.8666
21248SOL     OW69706   4.099   3.754   6.331 -0.0061 -0.9400  0.2267
21248SOL    HW169707   4.166   3.749   6.263 -0.3538 -0.2020 -0.1759
21248SOL    HW269708   4.019   3.727   6.288 -0.3394  0.0814  0.1827
21249SOL     OW69709  12.128   8.598   0.609 -0.1861 -0.2514  0.2409
21249SOL    HW169710  12.167   8.653   0.678  1.3861 -0.9032 -0.0832
21249SOL    HW269711  12.192   8.528   0.596 -1.9147 -1.8982  0.2884
21250SOL     OW69712   3.119  10.996  11.255 -0.4447  0.3421 -0.6703
21250SOL    HW169713   3.199  11.048  11.262 -0.4257  0.7440 -3.0757
21250SOL    HW269714   3.050  11.053  11.287 -0.0811  0.9049 -0.8695
21251SOL     OW69715   9.097   3.876   9.591  0.4425 -0.1065 -0.8948
21251SOL    HW169716   9.172   3.910   9.639  1.3054 -0.2567 -2.1111
21251SOL    HW269717   9.051   3.820   9.655  1.1059  0.3338 -0.0168
21252SOL     OW69718  11.330   8.342   6.864  0.3040  0.0227 -0.1849
21252SOL    HW169719  11.312   8.278   6.795  0.0860 -0.2312  0.1047
21252SOL    HW269720  11.312   8.427   6.824 -1.6382 -0.2111  0.0991
21253SOL     OW69721   5.749   2.761   1.081  0.1784 -0.0010  0.0473
21253SOL    HW169722   5.728   2.685   1.028  0.6205 -0.1962  0.1464
21253SOL    HW269723   5.755   2.727   1.171 -2.1246  0.5971  0.4892
21254SOL     OW69724   2.515   5.651   3.494  0.2851  0.0409 -0.3531
21254SOL    HW169725   2.487   5.561   3.513  2.3125 -1.0783 -2.2017
21254SOL    HW269726   2.566   5.644   3.413  1.7663  2.6291  0.2313
21255SOL     OW69727   3.919   7.873   1.202  0.1926 -0.1859  0.3688
21255SOL    HW169728   3.929   7.850   1.109  3.1822  0.0117  0.5399
21255SOL    HW269729   3.846   7.935   1.204 -0.1764 -0.4701 -1.7723
21256SOL     OW69730  11.889   3.154  10.328 -0.4335 -0.3715 -0.2010
21256SOL    HW169731  11.806   3.106  10.332 -0.0987 -0.9311  0.1010
21256SOL    HW269732  11.953   3.090  10.297 -0.3467  0.3911 -1.6552
21257SOL     OW69733   9.384   2.655  11.364 -0.2871 -0.0512 -0.0980
21257SOL    HW169734   9.443   2.687  11.433 -0.9694 -0.5983  0.7682
21257SOL    HW269735   9.395   2.717  11.292  0.2351  0.7079  0.6146
21258SOL     OW69736   2.104  11.588   4.734 -0.2309 -0.2890  0.1049
21258SOL    HW169737   2.023  11.629   4.763 -0.2843  0.5147 -1.1130
21258SOL    HW269738   2.110  11.609   4.641  2.0384  0.8551  0.4377
21259SOL     OW69739  10.200   8.075  11.071 -0.7690  0.1053  0.4299
21259SOL    HW169740  10.188   8.017  11.147  3.2791 -1.4543  0.1130
21259SOL    HW269741  10.172   8.022  10.996  0.7752 -0.6510  0.3558
21260SOL     OW69742   5.007  12.474   5.861 -0.2624  0.3081  0.2514
21260SOL    HW169743   5.048  12.527   5.929  2.2053  1.2959 -1.8435
21260SOL    HW269744   5.011  12.385   5.894  2.1122  0.5973  0.8730
21261SOL     OW69745   7.141   1.721   2.447  0.1678 -0.1659  0.0751
21261SOL    HW169746   7.069   1.784   2.458  0.6973  0.3593  0.6117
21261SOL    HW269747   7.211   1.755   2.503  0.4979 -1.1889  0.3044
21262SOL     OW69748   8.598  12.055  11.344 -0.4091  0.4894  0.1581
21262SOL    HW169749   8.511  12.041  11.381 -0.4459 -1.4885 -0.5216
21262SOL    HW269750   8.605  11.988  11.276  1.7218  0.4819  0.3320
21263SOL     OW69751  10.713   1.808  12.046 -0.0200  0.1375  0.2317
21263SOL    HW169752  10.750   1.850  11.968 -0.1102 -0.7849 -0.3211
21263SOL    HW269753  10.653   1.873  12.082 -0.5023  0.3180 -0.8663
21264SOL     OW69754   1.412   6.496   6.527 -0.2624 -0.3136 -0.1506
21264SOL    HW169755   1.443   6.428   6.587 -1.6569 -2.5016 -1.7337
21264SOL    HW269756   1.476   6.496   6.456  0.5925  1.2399  0.5618
21265SOL     OW69757   0.967   8.562   4.807 -0.2345  0.3333  0.2600
21265SOL    HW169758   0.937   8.624   4.741  0.4636  0.6026  0.1920
21265SOL    HW269759   1.025   8.613   4.863  0.9089 -0.4168 -0.2044
21266SOL     OW69760   6.483   5.469   1.447  0.2513  0.1431 -0.3814
21266SOL    HW169761   6.473   5.564   1.455  1.6913  0.3610 -0.8210
21266SOL    HW269762   6.394   5.435   1.453 -0.2466  1.4763  0.2647
21267SOL     OW69763   0.129  11.509   8.158  0.1053 -0.1451  0.0190
21267SOL    HW169764   0.094  11.429   8.196  0.3288 -0.8752 -1.2582
21267SOL    HW269765   0.209  11.481   8.114  1.0562  1.0795  0.9017
21268SOL     OW69766  11.277   6.154   3.865 -0.7657  0.0431 -0.3314
21268SOL    HW169767  11.191   6.115   3.851 -1.7639  2.3399 -1.1310
21268SOL    HW269768  11.336   6.103   3.810 -1.4816 -1.8455  0.5504
21269SOL     OW69769   1.524   0.629   5.813 -0.6507  0.0668  0.4235
21269SOL    HW169770   1.518   0.690   5.740  2.3657  0.4416  0.3285
21269SOL    HW269771   1.542   0.683   5.890 -1.4833 -0.4868  1.0320
21270SOL     OW69772   0.414   9.823   8.184 -0.4180 -0.3418  0.1150
21270SOL    HW169773   0.345   9.858   8.127  0.8338 -0.5676 -1.6272
21270SOL    HW269774   0.488   9.882   8.171  0.7028 -1.7992 -0.4382
21271SOL     OW69775   1.535   8.407   7.199  0.0429 -0.5764  0.1590
21271SOL    HW169776   1.557   8.363   7.281  4.3649 -0.7189 -0.8406
21271SOL    HW269777   1.535   8.337   7.134  1.1247  0.0925 -0.5791
21272SOL     OW69778   1.911  10.111   0.564 -0.0610  0.1055 -0.1215
21272SOL    HW169779   1.875  10.182   0.511 -1.4415  0.6898  1.5389
21272SOL    HW269780   1.983  10.151   0.612 -0.6612  0.3402  0.6029
21273SOL     OW69781   9.238   1.597   0.833  0.3159  0.7572 -0.2543
21273SOL    HW169782   9.323   1.628   0.800  0.8692 -1.3607 -0.9510
21273SOL    HW269783   9.260   1.527   0.894 -0.9219  0.5687 -0.0005
21274SOL     OW69784  10.420   6.538   3.865 -0.5144  0.5349  0.4185
21274SOL    HW169785  10.501   6.523   3.914 -0.3121  0.5017  0.0747
21274SOL    HW269786  10.400   6.630   3.878 -0.6421  0.4516  0.8371
21275SOL     OW69787   9.366   9.034   4.503 -0.2304  0.3142 -0.0293
21275SOL    HW169788   9.415   9.112   4.476 -0.8393  0.7030 -0.0195
21275SOL    HW269789   9.426   8.961   4.485  0.2868  0.7675 -0.1764
21276SOL     OW69790  10.939   2.228   2.763  0.4386 -0.0084 -0.0963
21276SOL    HW169791  11.023   2.216   2.808  0.9453  3.5787  0.2441
21276SOL    HW269792  10.963   2.248   2.672 -0.1994 -0.9878 -0.4933
21277SOL     OW69793   0.008   5.639   9.412 -0.0833 -0.6036 -0.1678
21277SOL    HW169794   0.060   5.711   9.448 -0.9820 -0.8367  1.6876
21277SOL    HW269795   0.043   5.561   9.454 -1.6297 -0.8009  0.8285
21278SOL     OW69796   5.640   4.435  12.305 -0.1295  0.2147 -0.7010
21278SOL    HW169797   5.733   4.438  12.325 -0.5043  0.8382  1.1690
21278SOL    HW269798   5.621   4.343  12.287  0.4826 -0.2792  1.0001
21279SOL     OW69799   5.756   9.856   8.951 -0.6070 -0.3728 -0.0007
21279SOL    HW169800   5.733   9.855   9.044 -1.9210  2.9419 -0.1724
21279SOL    HW269801   5.672   9.845   8.906 -0.1332 -0.7775 -0.8057
21280SOL     OW69802   0.946   8.385   2.212  0.3325 -0.0946  0.0818
21280SOL    HW169803   1.040   8.389   2.198  0.3183  1.4802  0.2891
21280SOL    HW269804   0.908   8.430   2.136 -0.0379  2.4419  1.6409
21281SOL     OW69805   2.123   4.397   0.909 -0.3573 -0.8081 -0.3351
21281SOL    HW169806   2.103   4.487   0.886 -0.6489 -0.7310  0.1962
21281SOL    HW269807   2.142   4.400   1.003 -1.2638 -1.4333 -0.1159
21282SOL     OW69808   9.586   9.690   4.058 -0.4459 -0.3178  0.1187
21282SOL    HW169809   9.549   9.618   4.109  0.8448  0.7503  2.7395
21282SOL    HW269810   9.605   9.758   4.122  4.5971 -0.1674 -1.0711
21283SOL     OW69811   5.007   8.434   8.614  0.1929 -0.6265 -0.0148
21283SOL    HW169812   5.081   8.380   8.588  0.1376 -0.3183 -0.8221
21283SOL    HW269813   5.031   8.523   8.585 -0.5133 -0.5365 -0.3258
21284SOL     OW69814   7.878  12.168   0.425  0.3147 -0.1982  0.6744
21284SOL    HW169815   7.917  12.096   0.375  1.1225  0.3860  0.4529
21284SOL    HW269816   7.805  12.127   0.472 -0.9147 -0.6488 -1.4982
21285SOL     OW69817   2.167  12.446  10.233 -0.1155  0.2133  0.2315
21285SOL    HW169818   2.075  12.437  10.208  0.0661  0.9775 -0.8014
21285SOL    HW269819   2.215  12.412  10.157  0.4579  1.8542 -0.1733
21286SOL     OW69820  11.393  11.150   4.998  0.2796  0.4774  0.2271
21286SOL    HW169821  11.350  11.067   4.976  0.8748  0.2502 -0.1057
21286SOL    HW269822  11.345  11.215   4.947  1.9636 -0.1027 -2.2804
21287SOL     OW69823   1.714   2.276   0.234  0.0693  0.0016 -0.1043
21287SOL    HW169824   1.700   2.285   0.328 -1.6783  0.1491 -0.3408
21287SOL    HW269825   1.726   2.182   0.220 -1.2744 -0.2246  0.1087
21288SOL     OW69826  12.251   4.482   6.523 -0.5947 -0.0847 -0.4290
21288SOL    HW169827  12.330   4.476   6.470  0.5186  0.4042  1.1107
21288SOL    HW269828  12.180   4.494   6.460  0.6010 -0.1677 -1.8199
21289SOL     OW69829   1.721   1.060   7.738 -0.5617  0.0725  0.0605
21289SOL    HW169830   1.742   1.111   7.817  0.4444 -0.5971  0.2565
21289SOL    HW269831   1.795   0.999   7.730 -1.2377 -0.6617 -0.7347
21290SOL     OW69832   3.617   9.217   8.904 -0.6140  0.6595 -0.1593
21290SOL    HW169833   3.622   9.306   8.871 -2.1241  0.8660  0.0733
21290SOL    HW269834   3.705   9.182   8.893  0.1861  2.3935  0.3856
21291SOL     OW69835   7.660   4.181   1.359  0.0198  0.7566  0.2103
21291SOL    HW169836   7.572   4.217   1.364 -0.1849  0.2600  0.2851
21291SOL    HW269837   7.711   4.234   1.421 -0.3262  0.7655  0.4932
21292SOL     OW69838   8.428   5.898  11.947 -0.7128  0.3592 -0.0460
21292SOL    HW169839   8.408   5.854  12.030 -1.8561 -0.6942 -0.8451
21292SOL    HW269840   8.371   5.975  11.946  0.0393  0.9457  0.5753
21293SOL     OW69841   2.468   2.820   8.470 -0.2930 -0.0082 -0.1069
21293SOL    HW169842   2.516   2.809   8.388 -0.2451  0.8833 -0.2145
21293SOL    HW269843   2.528   2.868   8.527 -0.5652 -0.0480  0.2228
21294SOL     OW69844  11.159   1.909   8.861  0.1976  0.5825  0.1467
21294SOL    HW169845  11.207   1.829   8.882 -1.9648 -1.0552 -0.8185
21294SOL    HW269846  11.111   1.930   8.941  0.3536  0.6097  0.2332
21295SOL     OW69847   5.292  12.400   8.805  0.3002  0.0685 -0.4680
21295SOL    HW169848   5.202  12.376   8.826  0.3639 -0.3043 -0.6156
21295SOL    HW269849   5.296  12.494   8.821  0.0847 -0.0332  0.2452
21296SOL     OW69850   1.177   3.236  12.262  0.2935 -0.3130 -0.3106
21296SOL    HW169851   1.201   3.149  12.233  0.4025 -0.5633  0.5048
21296SOL    HW269852   1.082   3.233  12.273  0.2806 -0.2887 -0.4160
21297SOL     OW69853   2.149   4.228   2.879  0.0433 -0.6211  0.1011
21297SOL    HW169854   2.102   4.305   2.848 -1.1044 -2.4755 -3.1910
21297SOL    HW269855   2.241   4.250   2.868 -0.2154  0.7110  0.4366
21298SOL     OW69856   4.107   7.624  10.373  0.8406 -0.2272 -0.4029
21298SOL    HW169857   4.087   7.635  10.280  1.0234  0.4614 -0.3708
21298SOL    HW269858   4.059   7.546  10.399  0.6146 -0.3026 -1.0272
21299SOL     OW69859   2.553  10.436   7.446  0.5194 -0.1542  0.1729
21299SOL    HW169860   2.527  10.347   7.421  2.9970 -1.1313  0.7846
21299SOL    HW269861   2.607  10.467   7.374  1.8840 -0.2331  1.1227
21300SOL     OW69862   5.858   4.557   1.707 -0.1805 -0.0868  0.0248
21300SOL    HW169863   5.782   4.533   1.653 -0.8817 -0.0897  0.9962
21300SOL    HW269864   5.830   4.636   1.753  0.6646  0.3008 -0.1182
21301SOL     OW69865  11.700   9.731   1.901  0.3100  0.5555  0.0793
21301SOL    HW169866  11.764   9.753   1.833 -0.8619  0.6130 -1.0496
21301SOL    HW269867  11.665   9.815   1.929  0.7405  0.5269  0.7215
21302SOL     OW69868   3.484   9.364   7.222 -0.2386  0.2070 -0.4390
21302SOL    HW169869   3.539   9.313   7.163 -0.6302 -1.1113  0.2793
21302SOL    HW269870   3.422   9.300   7.257  0.0333  0.9131  1.4491
21303SOL     OW69871  11.599   3.610   0.001 -0.4775 -0.3588  0.0060
21303SOL    HW169872  11.549   3.631  -0.078 -1.4569 -1.7851  0.2035
21303SOL    HW269873  11.684   3.581  -0.031 -0.9071 -1.0327 -0.5526
21304SOL     OW69874  11.966   8.158   1.743  0.4204 -0.0431  0.0291
21304SOL    HW169875  11.977   8.085   1.803  2.5169  0.3595  0.2345
21304SOL    HW269876  12.052   8.168   1.702 -0.5680  0.5763 -2.0361
21305SOL     OW69877   5.010  11.850   6.394 -0.0411 -0.0859 -0.1149
21305SOL    HW169878   5.096  11.814   6.415 -0.1525  0.4447  1.3787
21305SOL    HW269879   5.000  11.836   6.300  0.7965 -1.9979  0.0466
21306SOL     OW69880  11.893   4.961   2.776 -1.3123 -0.4965 -0.0095
21306SOL    HW169881  11.839   4.962   2.698 -0.6333  0.7061 -0.4959
21306SOL    HW269882  11.853   5.025   2.835 -0.7873 -0.0498 -0.1259
21307SOL     OW69883   2.835   7.397   7.113  0.3803  0.1214 -0.0602
21307SOL    HW169884   2.847   7.420   7.021  0.0107  1.2127  0.1521
21307SOL    HW269885   2.745   7.420   7.132 -0.0116 -1.4930  0.2068
21308SOL     OW69886   4.874   6.426   7.578 -0.2009 -0.9013 -0.5423
21308SOL    HW169887   4.879   6.360   7.509  0.6728 -1.3079 -0.1111
21308SOL    HW269888   4.800   6.398   7.632 -0.3712 -1.0457 -0.8477
21309SOL     OW69889   1.460  10.345   3.658  0.0007  0.7250 -0.3409
21309SOL    HW169890   1.525  10.284   3.691  0.2385  1.0579 -0.1846
21309SOL    HW269891   1.483  10.358   3.566  0.6689  1.4811 -0.0824
21310SOL     OW69892  11.446   3.282  11.693  0.5489 -0.1401 -0.1087
21310SOL    HW169893  11.521   3.315  11.743  0.7774  1.8160 -1.6320
21310SOL    HW269894  11.392   3.360  11.677 -1.2906 -1.3292  0.0450
21311SOL     OW69895   7.168   9.965   9.625  0.1178 -0.3964 -0.9316
21311SOL    HW169896   7.191   9.923   9.708 -1.9558 -0.3919 -0.3089
21311SOL    HW269897   7.165   9.894   9.562  3.0622 -0.2417 -1.4175
21312SOL     OW69898   9.394   1.383   9.089  0.0524  0.1812 -0.3193
21312SOL    HW169899   9.407   1.289   9.082 -0.3066  0.2086 -1.8197
21312SOL    HW269900   9.437   1.408   9.170  0.7269 -1.1743 -0.2395
21313SOL     OW69901   6.291   5.769  11.780  0.3422  0.3958  0.7115
21313SOL    HW169902   6.260   5.745  11.867 -0.5831 -2.0562 -0.1877
21313SOL    HW269903   6.232   5.839  11.752 -0.1137  0.3875  1.6104
21314SOL     OW69904  12.486   2.868   7.187 -0.1824 -0.6708  0.4191
21314SOL    HW169905  12.510   2.945   7.136 -0.7159 -0.1065  0.9899
21314SOL    HW269906  12.411   2.897   7.240  1.1088 -0.8336  2.4549
21315SOL     OW69907   8.704   2.809   9.163  0.0737 -0.2162  0.2740
21315SOL    HW169908   8.666   2.889   9.128  2.2507 -0.0567 -2.0454
21315SOL    HW269909   8.632   2.746   9.164 -0.8304  0.7210 -1.5442
21316SOL     OW69910   4.250   2.856   6.430 -0.0265 -0.3382  0.0879
21316SOL    HW169911   4.278   2.852   6.521  0.7200  0.1073 -0.1148
21316SOL    HW269912   4.157   2.877   6.434  0.3570  1.3646  0.7257
21317SOL     OW69913   4.606   3.150   3.865  0.1069 -0.0059 -0.3769
21317SOL    HW169914   4.678   3.093   3.839  0.9851 -0.0460  1.8549
21317SOL    HW269915   4.527   3.104   3.838  0.8817 -0.7359 -1.4504
21318SOL     OW69916   9.437   7.724  11.466  0.2984 -0.0971 -0.1339
21318SOL    HW169917   9.422   7.796  11.528  1.0400  0.2699 -0.3640
21318SOL    HW269918   9.361   7.726  11.409  0.1918  0.3491  0.0157
21319SOL     OW69919   2.442   2.107   8.951 -0.0954 -0.4652 -0.0739
21319SOL    HW169920   2.493   2.066   9.021  0.0078 -0.3823 -0.1018
21319SOL    HW269921   2.419   2.034   8.893  0.8268 -0.3495 -0.5898
21320SOL     OW69922   0.255   9.589   4.962  0.3355  0.1534  0.3273
21320SOL    HW169923   0.260   9.604   5.056 -0.0858 -0.2828  0.4267
21320SOL    HW269924   0.179   9.641   4.934 -1.6175 -2.2400  0.8023
21321SOL     OW69925  11.474   4.757  11.534  0.0294 -0.2887  0.4245
21321SOL    HW169926  11.410   4.690  11.511  1.5673 -1.6489 -0.0988
21321SOL    HW269927  11.541   4.710  11.584  0.9923  0.9126  0.3012
21322SOL     OW69928   1.794  10.074   1.193  0.2564 -0.2417  0.1037
21322SOL    HW169929   1.723  10.095   1.132  0.3588 -0.7264 -0.1847
21322SOL    HW269930   1.789  10.143   1.260 -0.5417 -0.3165  0.1373
21323SOL     OW69931   4.388  10.742   2.927 -0.5622 -0.0903  0.3023
21323SOL    HW169932   4.310  10.778   2.970 -0.5426  1.4044 -0.8140
21323SOL    HW269933   4.461  10.775   2.979 -0.5318  1.8104 -0.8539
21324SOL     OW69934  10.608  10.808   4.371  0.2864 -0.2402 -0.0667
21324SOL    HW169935  10.629  10.753   4.447  0.6383 -0.2475 -0.1661
21324SOL    HW269936  10.692  10.846   4.346  0.2530 -0.6096 -0.7515
21325SOL     OW69937  10.770   8.651   5.665  0.5801  0.4397  0.1169
21325SOL    HW169938  10.857   8.675   5.698  0.7263  0.9399 -0.6224
21325SOL    HW269939  10.715   8.726   5.687  0.9329  1.3057 -1.7795
21326SOL     OW69940  10.898   6.825   3.199  0.0915 -0.1738  0.0972
21326SOL    HW169941  10.986   6.826   3.161  0.8640  0.6875  1.8020
21326SOL    HW269942  10.902   6.757   3.266 -0.8244 -0.7098 -0.3710
21327SOL     OW69943   1.243   2.622   8.883  0.0356 -0.1418  0.1956
21327SOL    HW169944   1.199   2.539   8.863 -0.7196  0.6266 -1.4984
21327SOL    HW269945   1.334   2.608   8.856 -0.3969  0.0043 -1.4538
21328SOL     OW69946   1.243   7.422   0.430 -0.8534 -0.2449  0.6514
21328SOL    HW169947   1.294   7.346   0.458  0.5571  0.3478 -0.2264
21328SOL    HW269948   1.168   7.423   0.489 -0.0121 -1.3334  1.7963
21329SOL     OW69949   7.876   1.602  11.040 -0.9396 -1.0024 -0.8044
21329SOL    HW169950   7.857   1.676  10.982 -0.1924 -1.2787 -1.4249
21329SOL    HW269951   7.883   1.527  10.981 -1.5516 -1.5498 -0.1975
21330SOL     OW69952   7.083   3.178   9.523 -0.1652 -0.0409  0.1062
21330SOL    HW169953   7.113   3.092   9.494 -0.2162  0.5400 -1.7925
21330SOL    HW269954   7.047   3.163   9.611 -1.5326 -2.2495 -0.7550
21331SOL     OW69955   7.866  10.028   3.802 -0.3863 -0.3667  0.5089
21331SOL    HW169956   7.836   9.975   3.876 -1.5372 -0.0055  0.3307
21331SOL    HW269957   7.804  10.007   3.731  0.1298 -0.0028 -0.0627
21332SOL     OW69958  11.105   7.460   3.526 -0.1317 -0.1508  0.0396
21332SOL    HW169959  11.188   7.412   3.527 -0.4090 -0.7043 -1.3097
21332SOL    HW269960  11.110   7.518   3.602  1.7142  0.1979 -0.2986
21333SOL     OW69961  11.190   8.963  11.340  0.0236 -0.0238 -0.7235
21333SOL    HW169962  11.104   8.935  11.370  0.3672  0.3831  0.7306
21333SOL    HW269963  11.242   8.970  11.420  1.3998 -0.2313 -1.5758
21334SOL     OW69964   8.429   4.062   6.747 -0.2322 -0.6355  0.1887
21334SOL    HW169965   8.426   4.094   6.838 -0.7523  1.1743 -0.4185
21334SOL    HW269966   8.414   3.968   6.755  0.6772 -0.6836  2.0473
21335SOL     OW69967   3.024   9.051   6.983  0.1565  0.0154 -0.8654
21335SOL    HW169968   3.017   9.015   7.071  1.0964 -0.7042 -1.0602
21335SOL    HW269969   2.978   9.135   6.987  0.8042  0.3338  0.4977
21336SOL     OW69970   2.291   3.565   1.853  0.3857  0.4225  0.5701
21336SOL    HW169971   2.241   3.531   1.927 -0.2136 -1.5437 -0.6649
21336SOL    HW269972   2.241   3.641   1.822 -0.9309 -0.4897  0.4028
21337SOL     OW69973  11.267   0.052  12.006 -0.2746  0.0175 -0.1689
21337SOL    HW169974  11.356   0.061  12.041 -0.2814  0.9052 -0.3463
21337SOL    HW269975  11.223  -0.007  12.067  0.2082  0.2072  0.3766
21338SOL     OW69976   7.971  12.376   6.329  0.1770 -0.5992 -0.4866
21338SOL    HW169977   7.888  12.423   6.340 -0.5042 -1.6990 -0.7780
21338SOL    HW269978   8.037  12.445   6.330 -0.8027  0.3854 -1.0950
21339SOL     OW69979   9.829   7.651   6.317 -0.3924  0.2705  0.0613
21339SOL    HW169980   9.785   7.735   6.304 -2.3732 -0.7555 -0.4183
21339SOL    HW269981   9.882   7.639   6.238  0.2982  1.2662  0.3592
21340SOL     OW69982   8.619   9.350   7.493 -0.2184  0.0783 -0.3133
21340SOL    HW169983   8.621   9.403   7.414 -0.3952  0.2712 -0.1882
21340SOL    HW269984   8.708   9.354   7.528  0.3117 -1.3357 -1.3793
21341SOL     OW69985   7.743   9.427   3.943 -0.6199  0.3878  0.4969
21341SOL    HW169986   7.809   9.376   3.989  0.4832 -0.9336 -2.2817
21341SOL    HW269987   7.790   9.506   3.914 -0.3990 -0.1932 -0.8245
21342SOL     OW69988   6.728   9.160  10.516  0.4452  0.2338  0.3000
21342SOL    HW169989   6.766   9.229  10.462 -0.3177  0.1970 -0.2884
21342SOL    HW269990   6.803   9.122  10.562  1.0440  0.5457 -0.4022
21343SOL     OW69991   9.859   6.784   6.661  0.0910  0.3837 -0.5686
21343SOL    HW169992   9.867   6.714   6.596  0.5507  0.0770 -0.1857
21343SOL    HW269993   9.942   6.783   6.708 -0.1835  0.7010 -0.0697
21344SOL     OW69994   9.320   1.605   8.960  0.3294 -0.2110 -0.3460
21344SOL    HW169995   9.275   1.652   9.029  2.2088 -0.7259  1.3430
21344SOL    HW269996   9.323   1.514   8.991 -1.2647 -1.0769 -2.4850
21345SOL     OW69997   6.136   9.303   3.486  0.3826  0.0817 -0.2179
21345SOL    HW169998   6.060   9.351   3.519 -0.4399 -1.9368  1.0726
21345SOL    HW269999   6.150   9.234   3.551  2.8503 -0.0875 -0.8421
21346SOL     OW70000   6.307   4.054   5.394  0.3942  0.6912 -0.0459
21346SOL    HW170001   6.230   3.996   5.397  0.4625  0.5741  2.8299
21346SOL    HW270002   6.367   4.011   5.333 -0.1912 -1.4680  0.7904
21347SOL     OW70003   9.776  10.013   2.456  0.1402  0.4590  0.4803
21347SOL    HW170004   9.769  10.061   2.373  0.3631  1.7956  1.2123
21347SOL    HW270005   9.689  10.022   2.496 -0.1181 -0.6061  0.1791
21348SOL     OW70006   8.308  12.489   9.751 -0.3973  0.4025  0.4901
21348SOL    HW170007   8.393  12.508   9.791  0.5839 -0.3110 -1.1352
21348SOL    HW270008   8.257  12.569   9.762  1.1937  1.5694 -0.2101
21349SOL     OW70009   8.452   0.532  10.963 -0.0532 -0.7225  0.0132
21349SOL    HW170010   8.455   0.591  10.887 -1.3741 -1.6380 -0.7703
21349SOL    HW270011   8.414   0.585  11.033  0.6046 -0.0632 -0.1056
21350SOL     OW70012   0.115   7.725   0.038 -0.2683 -0.0910 -0.0733
21350SOL    HW170013   0.033   7.770   0.059 -0.6632 -1.0617  0.5354
21350SOL    HW270014   0.118   7.651   0.099  0.5993 -0.6037 -0.7127
21351SOL     OW70015   5.255   3.117   1.781  0.4196  0.4477 -0.1578
21351SOL    HW170016   5.315   3.111   1.708 -0.8267 -0.9915 -1.1193
21351SOL    HW270017   5.171   3.140   1.742 -0.3366 -0.6119  0.7518
21352SOL     OW70018   1.379   2.325   6.939  0.1091  0.1660  0.1896
21352SOL    HW170019   1.376   2.406   6.990  1.2015  0.6917 -0.5459
21352SOL    HW270020   1.309   2.334   6.875 -1.0486 -0.3503  1.3247
21353SOL     OW70021   4.669   4.295   3.188 -0.2023  0.2104 -0.1498
21353SOL    HW170022   4.725   4.355   3.236  1.3563 -0.7176 -0.7181
21353SOL    HW270023   4.676   4.324   3.097  0.0581 -0.4183 -0.3369
21354SOL     OW70024   9.308   8.968   8.347  0.2969 -0.5039  0.4779
21354SOL    HW170025   9.237   8.965   8.282 -0.1547  0.6379  0.8978
21354SOL    HW270026   9.266   8.944   8.429  0.7782 -1.5130  0.4519
21355SOL     OW70027   3.109   8.920   7.629 -0.1380 -0.8535  0.5342
21355SOL    HW170028   3.019   8.946   7.647  0.1938 -0.8095  2.3095
21355SOL    HW270029   3.105   8.824   7.622 -0.4119 -0.8043 -0.0890
21356SOL     OW70030   7.044   8.821   1.554  0.0132 -0.8586  0.0840
21356SOL    HW170031   6.954   8.790   1.540 -0.4388  1.1053 -1.8866
21356SOL    HW270032   7.095   8.775   1.487 -0.0935  0.2136 -0.7551
21357SOL     OW70033   1.426   7.050   1.255 -0.3331 -0.5770  0.1713
21357SOL    HW170034   1.471   7.135   1.256 -2.9044  0.9056 -0.0366
21357SOL    HW270035   1.481   6.993   1.310 -0.0689  2.1012  2.9772
21358SOL     OW70036   8.158   4.802   4.213  0.3876  0.2705 -0.3761
21358SOL    HW170037   8.184   4.714   4.238 -0.2550 -0.5303 -2.2882
21358SOL    HW270038   8.099   4.831   4.282  2.0122 -0.0390  1.2086
21359SOL     OW70039   5.574   3.854   2.961  0.1499  0.0252  0.1079
21359SOL    HW170040   5.502   3.907   2.995  0.0162 -0.9021  1.3341
21359SOL    HW270041   5.651   3.882   3.012  0.2787 -0.2808  0.0833
21360SOL     OW70042   9.137   9.285   5.661 -0.1552 -0.1221 -0.2515
21360SOL    HW170043   9.089   9.203   5.649  0.9595 -0.6841 -0.9725
21360SOL    HW270044   9.160   9.286   5.754  1.0677 -1.3511 -0.5138
21361SOL     OW70045   0.593  11.559   1.455 -0.8220  0.1937 -0.3559
21361SOL    HW170046   0.619  11.487   1.513 -2.1169 -0.3838 -0.4684
21361SOL    HW270047   0.607  11.525   1.367 -0.7232  0.3598 -0.4055
21362SOL     OW70048   0.510   2.547   6.849  0.1389 -0.1941  0.4982
21362SOL    HW170049   0.429   2.496   6.856 -0.1796  0.3308  0.7572
21362SOL    HW270050   0.527   2.576   6.938 -0.4456  1.2854  0.1596
21363SOL     OW70051  11.491   1.166   9.481  0.7122  0.0904  0.5984
21363SOL    HW170052  11.412   1.220   9.475 -0.0384 -0.8800  1.4887
21363SOL    HW270053  11.459   1.078   9.501  1.9038 -0.7289 -0.8669
21364SOL     OW70054  10.889   5.218   0.691  0.3135 -0.0636  0.0508
21364SOL    HW170055  10.874   5.124   0.684  2.7622 -0.5701  0.4813
21364SOL    HW270056  10.896   5.248   0.600 -0.9703 -0.1813 -0.0978
21365SOL     OW70057   9.136   2.144   0.733 -0.4406  0.2573 -0.0119
21365SOL    HW170058   9.215   2.197   0.746 -0.3882  0.3048 -0.5079
21365SOL    HW270059   9.079   2.167   0.807  0.7391 -1.1407  1.3974
21366SOL     OW70060   1.979   9.658   6.518 -0.1735  0.1791  0.2700
21366SOL    HW170061   1.899   9.666   6.570  0.2680  0.3294  0.9444
21366SOL    HW270062   1.960   9.705   6.437 -1.2966 -1.0684 -0.2306
21367SOL     OW70063   9.239   5.251   0.130  0.4054  0.0669  0.2110
21367SOL    HW170064   9.239   5.295   0.045 -0.6000 -0.0512  0.1469
21367SOL    HW270065   9.260   5.160   0.110  0.3185  0.0691  0.1122
21368SOL     OW70066   2.459   7.141  11.285 -0.2482 -0.1308 -0.6907
21368SOL    HW170067   2.390   7.182  11.232 -2.1327 -0.8431  1.0553
21368SOL    HW270068   2.514   7.095  11.221 -3.5065 -2.5792 -2.0321
21369SOL     OW70069   9.975   0.367  10.547 -0.1640 -0.4147  0.3486
21369SOL    HW170070  10.021   0.308  10.608  0.7504  1.4598  1.5918
21369SOL    HW270071  10.035   0.375  10.473 -0.4349 -1.2721  0.0282
21370SOL     OW70072  11.840  11.261  11.495  0.1601  0.1142  0.2521
21370SOL    HW170073  11.851  11.291  11.585  1.1473 -0.0261  0.1913
21370SOL    HW270074  11.918  11.292  11.450  0.6345 -1.4870 -0.0976
21371SOL     OW70075   9.586   3.778   7.813 -0.2152 -0.3409 -0.0783
21371SOL    HW170076   9.627   3.713   7.869  1.2087  1.1796  0.7313
21371SOL    HW270077   9.603   3.748   7.724  1.7627 -0.3300  0.2577
21372SOL     OW70078   0.343  10.556  10.905 -0.1501 -0.1443 -0.4035
21372SOL    HW170079   0.271  10.533  10.846  0.3689  0.9083 -1.4928
21372SOL    HW270080   0.308  10.540  10.993 -1.9076  0.8112 -0.8757
21373SOL     OW70081  11.048  12.429  10.155 -0.4132 -0.0132 -0.4159
21373SOL    HW170082  11.057  12.460  10.064  2.2805 -1.4902 -0.7722
21373SOL    HW270083  11.068  12.507  10.208  2.5142 -0.0803 -1.2374
21374SOL     OW70084   2.231   1.768  11.776 -0.6496 -0.1141  0.0991
21374SOL    HW170085   2.276   1.742  11.857 -0.1060  1.3471  0.2863
21374SOL    HW270086   2.268   1.709  11.710 -0.5941 -0.8640  0.7745
21375SOL     OW70087   0.107   6.744   1.318  0.7878 -0.2989 -0.2443
21375SOL    HW170088   0.037   6.721   1.257 -0.3992  1.0923  0.5182
21375SOL    HW270089   0.176   6.783   1.264 -0.3241  1.0899 -0.7128
21376SOL     OW70090  11.226   1.111   9.196 -0.0806  0.0507  0.1377
21376SOL    HW170091  11.317   1.136   9.177  0.0600 -1.3454 -1.2861
21376SOL    HW270092  11.174   1.186   9.169  0.4987 -0.1231 -1.5916
21377SOL     OW70093   2.071   6.553   3.773 -0.6530  0.0451  0.3379
21377SOL    HW170094   2.114   6.628   3.814 -0.2915 -0.0243  0.0975
21377SOL    HW270095   2.097   6.478   3.826 -0.7146  0.0416  0.3630
21378SOL     OW70096  10.464   0.905  10.704  0.0505  0.4441  0.1704
21378SOL    HW170097  10.426   0.993  10.705 -0.3676  0.2681  0.3464
21378SOL    HW270098  10.520   0.903  10.627  2.2323  1.7588  1.6298
21379SOL     OW70099   1.376   5.364   3.402  0.2975 -0.2119  0.1166
21379SOL    HW170100   1.449   5.357   3.341 -0.5562 -1.0444 -0.8484
21379SOL    HW270101   1.415   5.352   3.488  1.3326 -0.3775 -0.3624
21380SOL     OW70102  10.936   0.507   2.557  0.2886 -0.3468  0.1539
21380SOL    HW170103  10.979   0.515   2.642  2.9868  0.5272 -1.1744
21380SOL    HW270104  10.938   0.596   2.521 -1.7642 -0.4889 -0.4419
21381SOL     OW70105   2.355   3.165   3.623  0.7472  0.4987  0.3800
21381SOL    HW170106   2.336   3.133   3.535  1.7938 -3.8141  1.5272
21381SOL    HW270107   2.272   3.158   3.670  1.1002 -1.5196  0.8010
21382SOL     OW70108   5.588   9.366   1.569 -0.4381 -0.5649 -0.1288
21382SOL    HW170109   5.533   9.431   1.612  0.7809 -0.0143  0.6553
21382SOL    HW270110   5.637   9.416   1.504 -0.0154 -0.8220 -0.0095
21383SOL     OW70111   8.257   7.051   9.913 -0.0228  0.6032  0.3104
21383SOL    HW170112   8.216   7.038   9.998  0.7717 -0.4798  0.5461
21383SOL    HW270113   8.266   6.963   9.876 -1.6083  1.1273 -1.5269
21384SOL     OW70114   1.529   9.936  10.054 -0.4720  0.0011  0.3452
21384SOL    HW170115   1.528  10.031  10.065 -0.9874 -0.0757  1.0146
21384SOL    HW270116   1.507   9.922   9.962  1.1029  0.5701 -0.1601
21385SOL     OW70117   5.555   4.510   6.108 -0.0002  0.0997 -0.2060
21385SOL    HW170118   5.475   4.561   6.095 -0.9220 -1.2141  0.1413
21385SOL    HW270119   5.542   4.465   6.191  1.4050  0.3810  0.1955
21386SOL     OW70120   5.281   3.210   5.730 -0.0126  0.1532 -0.0861
21386SOL    HW170121   5.351   3.147   5.747 -0.9011 -0.4289  1.5681
21386SOL    HW270122   5.327   3.290   5.703  1.1878 -0.7394 -0.8076
21387SOL     OW70123   2.513   3.362  11.231 -0.3928  0.3181  0.2428
21387SOL    HW170124   2.479   3.304  11.299 -0.3433 -1.4763 -1.1898
21387SOL    HW270125   2.436   3.408  11.197 -0.7829 -0.5555 -0.0867
21388SOL     OW70126  11.801   9.799   4.850  0.1555 -0.6966  0.3626
21388SOL    HW170127  11.729   9.744   4.819  0.0195 -0.3094 -0.0150
21388SOL    HW270128  11.880   9.750   4.827  0.0320 -0.7951  0.1435
21389SOL     OW70129   0.672   4.744   5.229  0.0779 -0.1469  0.5439
21389SOL    HW170130   0.632   4.664   5.193  1.3027 -0.9442  0.8847
21389SOL    HW270131   0.766   4.730   5.217  0.4017  0.4915  2.1747
21390SOL     OW70132   8.311  11.547   2.359 -0.1957 -0.0648  0.1025
21390SOL    HW170133   8.378  11.502   2.308 -0.3805 -1.5066  1.0586
21390SOL    HW270134   8.274  11.612   2.299  0.7956 -0.4934 -1.0051
21391SOL     OW70135   9.274   1.946   5.035 -0.1102  0.5161 -0.1824
21391SOL    HW170136   9.241   1.867   5.079  1.3018 -0.2739 -0.4873
21391SOL    HW270137   9.366   1.951   5.060  0.3177  0.9682 -1.7323
21392SOL     OW70138  10.370   6.309   7.343  0.0651  1.0833  0.0686
21392SOL    HW170139  10.345   6.254   7.269  0.0021  0.1889  0.7323
21392SOL    HW270140  10.292   6.359   7.364 -1.0045 -1.0289  1.5533
21393SOL     OW70141   5.002  10.184  12.340  0.3573 -0.4512  0.4821
21393SOL    HW170142   5.038  10.101  12.308  0.7311  0.0688 -0.5065
21393SOL    HW270143   5.078  10.241  12.348  0.2312 -0.4655  2.0811
21394SOL     OW70144   4.635  12.292   8.301 -0.7363  0.2987  0.5137
21394SOL    HW170145   4.581  12.213   8.307  0.3758 -0.6545 -1.3767
21394SOL    HW270146   4.724  12.262   8.318 -0.3394  1.2030  0.0913
21395SOL     OW70147   2.376   5.824   4.589  0.1508 -0.4293 -0.0373
21395SOL    HW170148   2.411   5.902   4.547  0.6588  0.1227  1.3465
21395SOL    HW270149   2.322   5.857   4.661 -0.0068 -1.3430  0.2784
21396SOL     OW70150  11.051  11.570   0.154  0.0307 -0.1815  0.8854
21396SOL    HW170151  11.105  11.505   0.199  1.9162  0.8486  0.2339
21396SOL    HW270152  11.096  11.584   0.070 -2.3561 -0.7051 -0.5868
21397SOL     OW70153   4.620   3.777   1.900  0.2918  0.1045  0.1944
21397SOL    HW170154   4.703   3.822   1.913  0.5344 -0.0465 -0.7575
21397SOL    HW270155   4.644   3.687   1.877 -0.1551 -0.1745  0.8067
21398SOL     OW70156   1.253   9.452  11.595 -0.4653  0.2914  0.2598
21398SOL    HW170157   1.203   9.528  11.566  0.1492  0.8552  0.6388
21398SOL    HW270158   1.193   9.403  11.651 -0.3955  1.3254  1.2784
21399SOL     OW70159   7.555   9.232   7.168 -0.7244 -0.0416 -0.2101
21399SOL    HW170160   7.591   9.321   7.173 -0.2996 -0.2576  1.8129
21399SOL    HW270161   7.613   9.186   7.108  1.2257  0.1713  1.3891
21400SOL     OW70162   4.125   4.766   8.618  0.1805  0.5841  0.2423
21400SOL    HW170163   4.126   4.693   8.556  1.3515  0.1899  0.7043
21400SOL    HW270164   4.106   4.843   8.564 -0.5584  0.0075 -0.3248
21401SOL     OW70165   1.371   3.132   7.763 -0.4310 -0.0961  0.3510
21401SOL    HW170166   1.290   3.168   7.727 -0.4302  0.0578  0.5051
21401SOL    HW270167   1.385   3.051   7.713  0.4470  0.9248 -1.1386
21402SOL     OW70168  11.828   1.382   3.270 -0.0801 -0.0877 -0.3061
21402SOL    HW170169  11.830   1.340   3.355 -0.9286  0.0647 -0.2042
21402SOL    HW270170  11.898   1.338   3.220 -1.1302 -1.8498 -0.3145
21403SOL     OW70171  11.932   7.927   4.616  0.2694  0.2262 -0.3826
21403SOL    HW170172  11.981   7.847   4.597  0.8631  1.2156 -3.4578
21403SOL    HW270173  11.841   7.904   4.598  0.1557 -0.2380  0.6546
21404SOL     OW70174   7.888   5.113   1.059 -0.5850 -0.1276 -0.0884
21404SOL    HW170175   7.911   5.023   1.035 -1.8459 -0.4234 -0.2400
21404SOL    HW270176   7.818   5.137   0.998 -0.0633  1.0699 -0.2398
21405SOL     OW70177  11.006   6.658   0.782  0.5886 -0.1370  0.4888
21405SOL    HW170178  11.017   6.699   0.867  0.5273  1.1525 -0.1062
21405SOL    HW270179  10.938   6.709   0.738 -0.5562 -1.7688  0.2553
21406SOL     OW70180   7.858   0.588   1.938 -1.0566 -0.5653  0.2520
21406SOL    HW170181   7.839   0.621   2.026 -0.8753 -0.7822  0.3749
21406SOL    HW270182   7.885   0.497   1.952 -1.3868 -0.7144 -0.0677
21407SOL     OW70183   6.569   4.312   7.393 -0.0491 -0.0526  0.0717
21407SOL    HW170184   6.566   4.222   7.426 -1.8762  1.1561  3.7862
21407SOL    HW270185   6.491   4.320   7.338  0.6918 -0.9725 -1.1519
21408SOL     OW70186  11.955   5.126   5.854 -0.2275  0.4965 -0.3517
21408SOL    HW170187  11.928   5.096   5.941 -3.0394  1.5444 -0.7714
21408SOL    HW270188  11.933   5.054   5.795 -1.0195  0.8973 -0.5507
21409SOL     OW70189   5.483   4.101   6.784  0.7236  0.5136  0.2931
21409SOL    HW170190   5.577   4.091   6.770  0.7912  2.1894 -0.8263
21409SOL    HW270191   5.471   4.195   6.799 -0.9518  0.6441 -1.4671
21410SOL     OW70192  10.174  12.166   1.104 -0.4160  0.0493 -0.5566
21410SOL    HW170193  10.179  12.163   1.008  1.8305 -2.2193 -0.4729
21410SOL    HW270194  10.197  12.077   1.131 -0.1633  0.8642  2.1308
21411SOL     OW70195   6.779   9.545   3.079  0.3056 -0.1327  0.2214
21411SOL    HW170196   6.719   9.470   3.076  0.0226  0.1064 -2.1015
21411SOL    HW270197   6.818   9.548   2.991  0.3134  2.4033  0.2271
21412SOL     OW70198   0.217   7.064   1.517  0.0614  0.0028 -0.1702
21412SOL    HW170199   0.136   7.014   1.509 -1.5867  2.6754 -1.7648
21412SOL    HW270200   0.282   7.013   1.469 -0.8478 -1.7807  0.4103
21413SOL     OW70201   5.907   8.923  11.194  0.3980 -0.1416 -0.3770
21413SOL    HW170202   5.868   8.866  11.260 -0.4300 -0.3416 -1.0094
21413SOL    HW270203   5.954   8.863  11.136  0.2954 -0.0826 -0.5224
21414SOL     OW70204   0.782   3.725  10.661  0.0177 -0.2396 -0.3666
21414SOL    HW170205   0.703   3.759  10.619  0.5610  1.5322 -0.0011
21414SOL    HW270206   0.846   3.718  10.590  0.1551  0.3087 -0.3001
21415SOL     OW70207   6.773   4.731  10.249 -0.4381 -0.0387  0.0835
21415SOL    HW170208   6.738   4.686  10.172  1.6098 -0.5599 -0.6104
21415SOL    HW270209   6.824   4.804  10.213  0.6637 -0.3698  0.9191
21416SOL     OW70210   5.500   7.888   7.142 -0.2075 -0.2265 -0.2750
21416SOL    HW170211   5.426   7.828   7.135  0.9136 -1.8622  0.9736
21416SOL    HW270212   5.563   7.857   7.076  0.5945 -0.8309  0.7300
21417SOL     OW70213   2.679   3.913   9.062 -0.7847  0.3200 -0.5037
21417SOL    HW170214   2.599   3.928   9.012 -0.6338 -1.9719 -1.5562
21417SOL    HW270215   2.659   3.837   9.116  0.2699  0.5166  0.1787
21418SOL     OW70216   8.744   1.931  12.421 -0.1086 -0.0015 -0.2708
21418SOL    HW170217   8.718   1.986  12.495  0.4125 -2.0357  1.5558
21418SOL    HW270218   8.663   1.915  12.373 -0.8505 -0.1264  0.9727
21419SOL     OW70219   1.224   4.155   1.302  0.5749 -0.1579  0.1179
21419SOL    HW170220   1.222   4.084   1.239  3.1741  0.4158 -0.6947
21419SOL    HW270221   1.162   4.219   1.268 -0.8255 -1.4196  0.1866
21420SOL     OW70222   4.314  10.449   2.980  0.6955 -0.0076 -0.0270
21420SOL    HW170223   4.266  10.512   2.925  1.0131  0.6157  0.4045
21420SOL    HW270224   4.403  10.484   2.985  0.4839  0.3929  1.5387
21421SOL     OW70225  10.704   3.863  12.175 -0.3937 -0.0306 -0.1020
21421SOL    HW170226  10.775   3.887  12.235 -0.7466  1.0408 -0.0795
21421SOL    HW270227  10.647   3.941  12.174 -0.2968  0.0554 -1.9573
21422SOL     OW70228   8.441  10.040  10.246 -0.2658 -0.5015 -0.1799
21422SOL    HW170229   8.358  10.078  10.217  1.1844  2.2791 -1.0609
21422SOL    HW270230   8.473  10.100  10.314  1.2158 -1.2594 -0.1676
21423SOL     OW70231   3.927   4.370   8.816  0.7174 -0.4731 -0.9525
21423SOL    HW170232   3.949   4.334   8.730  0.0622 -0.7978 -0.9905
21423SOL    HW270233   3.937   4.296   8.876 -0.5371 -0.7102 -1.0182
21424SOL     OW70234   9.067   8.854  11.721  0.8064 -0.5807  0.3046
21424SOL    HW170235   9.145   8.866  11.666  0.8013  0.2992  0.4617
21424SOL    HW270236   9.048   8.942  11.754  0.2969 -0.9478  1.0193
21425SOL     OW70237  11.501   8.186   9.152  0.2598  0.2673  0.4133
21425SOL    HW170238  11.505   8.166   9.059  0.6813  0.4434  0.3922
21425SOL    HW270239  11.407   8.184   9.173  0.1891 -0.1626  0.0739
21426SOL     OW70240  11.336   5.635  11.296 -0.4455 -0.6622 -0.2127
21426SOL    HW170241  11.285   5.559  11.270 -0.4219 -0.8900  0.3746
21426SOL    HW270242  11.423   5.599  11.316 -0.5881 -0.5814  0.6024
21427SOL     OW70243   6.766   3.283   4.589  0.1130 -0.1545  0.3995
21427SOL    HW170244   6.803   3.254   4.506  0.7991  0.3529  0.5106
21427SOL    HW270245   6.675   3.254   4.587  0.7154 -2.1728  0.4722
21428SOL     OW70246   5.934  11.743   6.829 -0.0396  0.0164 -0.4087
21428SOL    HW170247   5.935  11.660   6.780  1.3272 -0.0363 -0.3326
21428SOL    HW270248   5.854  11.786   6.800 -0.2182 -0.8469 -1.2880
21429SOL     OW70249   1.121   8.899   6.296 -0.3787 -0.2160 -0.1057
21429SOL    HW170250   1.061   8.832   6.263 -0.3428 -0.0473 -0.5155
21429SOL    HW270251   1.149   8.947   6.218 -0.7402  0.5607  0.2330
21430SOL     OW70252  12.069   4.789   6.002  0.0647 -0.2003  0.1889
21430SOL    HW170253  12.044   4.697   6.009  1.1845 -0.4278  1.7486
21430SOL    HW270254  12.071   4.821   6.092 -1.0409  1.5881 -0.3708
21431SOL     OW70255   1.750   1.552   7.011  0.3151 -0.0110 -0.0318
21431SOL    HW170256   1.655   1.560   7.018  0.2334  1.1422 -1.7132
21431SOL    HW270257   1.778   1.522   7.097 -1.6533 -1.2642  0.2359
21432SOL     OW70258   6.734   5.236   8.444 -0.1792 -0.3298 -0.0339
21432SOL    HW170259   6.804   5.300   8.432 -1.6160  1.6546  1.5570
21432SOL    HW270260   6.772   5.169   8.501  0.6552  0.2873  0.1517
21433SOL     OW70261   6.846  12.201  10.288  0.2563 -0.5247 -0.0042
21433SOL    HW170262   6.777  12.217  10.224  1.2186  1.5217 -0.6144
21433SOL    HW270263   6.829  12.263  10.358  0.6825 -0.9752  0.5061
21434SOL     OW70264   5.013   5.683   0.633  0.6129  0.0342 -0.4819
21434SOL    HW170265   5.084   5.747   0.624  0.1622  0.7253  0.7247
21434SOL    HW270266   4.933   5.735   0.629  0.2506 -0.0901  2.5079
21435SOL     OW70267   7.890   3.374   5.748  0.1365  0.5294 -0.3169
21435SOL    HW170268   7.957   3.423   5.796  1.1334 -1.0801 -0.0076
21435SOL    HW270269   7.828   3.346   5.815  0.4830 -0.0500 -0.2271
21436SOL     OW70270   6.977   0.269   1.666  0.2408  0.9292 -0.0064
21436SOL    HW170271   7.041   0.282   1.735 -0.7676  1.2624  0.8855
21436SOL    HW270272   6.939   0.183   1.683  1.2582  0.1961 -1.2338
21437SOL     OW70273   3.713   6.833  10.828 -0.6095 -0.5182 -0.1588
21437SOL    HW170274   3.758   6.772  10.886  0.2844  1.3362  1.1917
21437SOL    HW270275   3.720   6.792  10.741  0.7624 -1.8734  0.5308
21438SOL     OW70276   6.795   5.856   4.782 -0.5734  0.2178  0.3816
21438SOL    HW170277   6.748   5.779   4.751  0.8291 -1.0437  1.2525
21438SOL    HW270278   6.879   5.822   4.813 -0.5452  1.8740  2.3075
21439SOL     OW70279   7.087   6.977   7.427 -0.3343 -0.0096  0.4414
21439SOL    HW170280   7.177   6.944   7.423  0.1181  1.2610 -1.1809
21439SOL    HW270281   7.079   7.013   7.515  0.1323 -1.6583  1.2181
21440SOL     OW70282   6.767   3.028   9.717 -0.7267 -0.1756  0.1043
21440SOL    HW170283   6.678   3.033   9.684 -0.5235 -0.4343 -0.4816
21440SOL    HW270284   6.770   3.095   9.786 -1.6287 -0.7880  0.7558
21441SOL     OW70285  11.106  10.432   0.296 -0.0551  0.4172  0.1806
21441SOL    HW170286  11.021  10.445   0.256  0.1564  0.3152 -0.3065
21441SOL    HW270287  11.088  10.429   0.390 -0.4447  1.5732  0.1619
21442SOL     OW70288   3.216   3.071   7.073 -0.4897  0.2061  0.4867
21442SOL    HW170289   3.307   3.048   7.090 -0.3574 -0.0675 -0.5513
21442SOL    HW270290   3.209   3.074   6.978 -1.8209 -0.8550  0.5157
21443SOL     OW70291   0.336   2.329  11.483  0.3741 -0.1604  0.8419
21443SOL    HW170292   0.326   2.345  11.577  0.7448 -0.4112  0.9281
21443SOL    HW270293   0.431   2.327  11.470  0.3606  1.4220  0.2008
21444SOL     OW70294   9.369   2.826   5.634 -0.4028  0.6574  0.1539
21444SOL    HW170295   9.383   2.912   5.674 -1.4119  1.4318 -1.0675
21444SOL    HW270296   9.278   2.805   5.653  0.0698 -0.5623  1.1702
21445SOL     OW70297   4.286   4.109  11.311 -0.3216  0.4942  0.2535
21445SOL    HW170298   4.340   4.031  11.300  0.2047  0.6240  1.6913
21445SOL    HW270299   4.197   4.075  11.326 -0.0618  0.1500  1.0724
21446SOL     OW70300   9.059  11.730   0.529 -0.0458  0.7633  0.0671
21446SOL    HW170301   8.993  11.795   0.554 -1.5353 -0.6930  0.1159
21446SOL    HW270302   9.040  11.711   0.437 -0.9626 -1.0306  0.5837
21447SOL     OW70303   6.132   2.238   2.763  0.5651 -0.0353 -0.1084
21447SOL    HW170304   6.062   2.173   2.766  0.3891 -0.4125 -4.6849
21447SOL    HW270305   6.087   2.322   2.750  0.8769  0.0333 -0.8063
21448SOL     OW70306   9.571   6.237   3.634 -0.3882 -0.1396 -0.1395
21448SOL    HW170307   9.553   6.229   3.727  1.8616 -2.0601  0.2164
21448SOL    HW270308   9.494   6.198   3.591 -0.9821 -0.1737  0.9143
21449SOL     OW70309   1.825   0.430   7.969 -0.0943  0.1488 -0.5061
21449SOL    HW170310   1.851   0.491   7.900 -0.8154  1.9080  0.7086
21449SOL    HW270311   1.753   0.380   7.931 -0.6400  1.2584 -0.9824
21450SOL     OW70312   1.695  11.940   6.225 -0.6498  0.2302  0.4060
21450SOL    HW170313   1.663  11.854   6.201  1.1929 -0.7371  1.2111
21450SOL    HW270314   1.749  11.968   6.152  2.3090 -1.2951  1.8337
21451SOL     OW70315   0.835   6.888   2.058  0.2830  0.3819 -0.1066
21451SOL    HW170316   0.847   6.797   2.086 -2.2060 -0.1269 -0.4392
21451SOL    HW270317   0.811   6.935   2.138  2.5098  1.0476  0.2607
21452SOL     OW70318   2.576  10.828   1.195  0.3327 -0.1584 -0.2189
21452SOL    HW170319   2.661  10.847   1.155  0.1288  1.2624 -0.0315
21452SOL    HW270320   2.598  10.785   1.277  0.8791  0.0707 -0.2379
21453SOL     OW70321   6.501   2.459   8.931  0.7475 -0.7604  0.2557
21453SOL    HW170322   6.540   2.453   9.018  2.2744  0.2817 -0.3196
21453SOL    HW270323   6.459   2.545   8.931  2.7970  0.3109 -0.7815
21454SOL     OW70324   2.024  10.875   4.179  0.1483  0.2459 -0.0152
21454SOL    HW170325   2.052  10.836   4.262  1.7404 -2.1492 -1.5443
21454SOL    HW270326   2.066  10.962   4.178  0.7460 -0.0062  1.3320
21455SOL     OW70327   8.766   6.325  12.126 -0.3851 -0.0064  0.1258
21455SOL    HW170328   8.804   6.411  12.109 -1.2124  0.0968 -1.3500
21455SOL    HW270329   8.832   6.263  12.096 -0.9442  0.1654 -1.5548
21456SOL     OW70330  11.155   1.766   8.109  0.1653  0.2081 -0.4212
21456SOL    HW170331  11.123   1.732   8.193  0.7565 -1.8469 -0.9691
21456SOL    HW270332  11.140   1.695   8.047  0.7982  1.2529 -1.8216
21457SOL     OW70333   6.546   9.348   5.744  0.3922  0.0088  0.2841
21457SOL    HW170334   6.469   9.396   5.777  0.6885  1.1215 -0.5854
21457SOL    HW270335   6.511   9.262   5.720 -0.1889 -0.1952  1.6959
21458SOL     OW70336   9.335   8.960   7.889  0.2986 -0.1313 -0.2524
21458SOL    HW170337   9.317   8.946   7.796  0.4490 -0.3699 -0.2454
21458SOL    HW270338   9.335   9.055   7.899 -0.2858 -0.1082 -0.3892
21459SOL     OW70339   8.200   0.778   6.932 -0.0382  0.2552  0.2995
21459SOL    HW170340   8.291   0.751   6.946 -0.2393  0.0231  1.2171
21459SOL    HW270341   8.199   0.813   6.843  0.7430 -0.6047 -0.0653
21460SOL     OW70342   5.725   5.719   3.969 -0.8312 -0.5311 -0.7945
21460SOL    HW170343   5.697   5.683   4.053 -1.0634 -1.5607 -1.2880
21460SOL    HW270344   5.744   5.642   3.915 -0.8031  0.1045 -1.7240
21461SOL     OW70345   8.434   3.104  12.426 -0.1851  0.1075 -0.3753
21461SOL    HW170346   8.369   3.095  12.355 -1.7635 -1.8889  1.1839
21461SOL    HW270347   8.384   3.136  12.500  1.4980  2.3738 -0.1246
21462SOL     OW70348   6.962   7.496   5.663  0.4096  0.3155 -0.2985
21462SOL    HW170349   7.038   7.529   5.615  1.4717  1.3007  1.9566
21462SOL    HW270350   6.979   7.402   5.673  1.3165  0.5236  0.1668
21463SOL     OW70351   9.619  10.106   4.097  0.1994  0.7374  0.8094
21463SOL    HW170352   9.530  10.120   4.064 -0.5229  0.0432  2.3316
21463SOL    HW270353   9.617  10.143   4.186  1.3274  0.3963  0.9951
21464SOL     OW70354   3.908  10.836   6.746  0.0120 -0.3242 -0.0106
21464SOL    HW170355   3.911  10.776   6.820 -1.1298  0.8201  1.0201
21464SOL    HW270356   3.873  10.917   6.783 -0.3924  0.3440 -1.7711
21465SOL     OW70357   2.092   1.762   0.861 -0.1143 -0.2576 -0.0145
21465SOL    HW170358   2.147   1.806   0.796 -0.0377  1.5082  1.1830
21465SOL    HW270359   2.022   1.825   0.880  0.4350 -0.2782  2.3378
21466SOL     OW70360   2.957   1.124   4.307 -0.6790  0.7561 -0.3995
21466SOL    HW170361   3.035   1.145   4.357 -0.5772  0.1430 -0.3027
21466SOL    HW270362   2.945   1.030   4.318 -0.8663  0.6744 -1.2217
21467SOL     OW70363   6.545   8.588   8.553  0.0176 -0.2575 -0.3232
21467SOL    HW170364   6.523   8.523   8.619 -0.7107 -0.2789 -0.5803
21467SOL    HW270365   6.640   8.583   8.546 -0.1299 -2.4548 -1.5092
21468SOL     OW70366   0.894   4.862  10.263 -0.4883  0.4670 -0.8058
21468SOL    HW170367   0.971   4.808  10.242 -1.0421 -0.3178 -0.8335
21468SOL    HW270368   0.847   4.870  10.180 -1.4245 -0.6466 -0.4067
21469SOL     OW70369  11.510   1.534   9.582 -0.0263 -1.0016  0.4300
21469SOL    HW170370  11.524   1.617   9.538  2.6349 -2.4488 -1.7568
21469SOL    HW270371  11.415   1.520   9.579 -0.2963  0.8176 -1.2847
21470SOL     OW70372   1.263   7.762   3.338 -0.1884  0.0466  0.8921
21470SOL    HW170373   1.315   7.701   3.390  2.0802  0.8252 -0.3094
21470SOL    HW270374   1.236   7.830   3.400  1.6374  0.4475  1.3140
21471SOL     OW70375  11.474  11.441   0.679 -0.1253 -0.2049  0.4770
21471SOL    HW170376  11.501  11.362   0.632 -0.2147  0.0861 -0.0714
21471SOL    HW270377  11.404  11.412   0.736  0.4805 -0.7133  0.9787
21472SOL     OW70378  11.744   5.160   3.314  0.5685  0.8544  0.2312
21472SOL    HW170379  11.716   5.105   3.387  1.6680  0.7968  0.6286
21472SOL    HW270380  11.839   5.155   3.315  0.6407  1.7181 -0.5447
21473SOL     OW70381   3.557   4.336   8.504 -0.0053 -0.8609 -0.0804
21473SOL    HW170382   3.506   4.371   8.577 -0.0890 -0.1675 -0.4633
21473SOL    HW270383   3.608   4.410   8.473 -0.6676 -0.8895 -1.3155
21474SOL     OW70384   9.094   7.194   0.540 -0.0350  0.2433  0.2784
21474SOL    HW170385   9.100   7.248   0.619  2.0252  1.2028 -0.4806
21474SOL    HW270386   9.001   7.198   0.515 -0.7931 -0.2779  2.7432
21475SOL     OW70387   5.590   2.959   6.699  0.4656  0.3414 -0.1573
21475SOL    HW170388   5.666   3.006   6.736  0.7985 -0.1765 -0.1807
21475SOL    HW270389   5.562   2.901   6.770 -0.7666  1.4946  0.3511
21476SOL     OW70390   9.523   8.797   9.767  0.0233 -0.4266  0.3096
21476SOL    HW170391   9.610   8.831   9.785 -0.0782  0.7585 -1.1990
21476SOL    HW270392   9.463   8.865   9.799 -0.2941 -0.5654  0.0212
21477SOL     OW70393  12.156   2.530   4.892 -0.1424 -0.6627  0.4052
21477SOL    HW170394  12.250   2.529   4.905  0.0546  0.4302 -0.7428
21477SOL    HW270395  12.131   2.621   4.909 -0.5560 -0.2769 -1.9625
21478SOL     OW70396   7.190   8.061   3.391  0.2772 -0.0258  0.1595
21478SOL    HW170397   7.128   8.134   3.392  0.7844  0.4209  1.3770
21478SOL    HW270398   7.148   7.993   3.443  0.0696 -0.3941 -0.4730
21479SOL     OW70399   2.693   3.063  10.960 -0.4627  0.5547  0.9475
21479SOL    HW170400   2.655   2.976  10.972  0.8297 -0.0083  1.1511
21479SOL    HW270401   2.626   3.112  10.914 -0.1240 -1.4785 -2.0535
21480SOL     OW70402   9.133   3.733   0.108  0.1088 -0.2967 -0.2158
21480SOL    HW170403   9.136   3.797   0.180  1.0099 -0.7236  0.1394
21480SOL    HW270404   9.138   3.648   0.152  1.4541 -0.5480 -0.8207
21481SOL     OW70405   4.220  11.096   4.803  0.1219  0.3089 -0.1173
21481SOL    HW170406   4.216  11.171   4.744  1.1301 -0.2117 -0.8796
21481SOL    HW270407   4.135  11.094   4.846 -1.1748 -0.1037 -2.5771
21482SOL     OW70408   3.812  11.203  11.075  0.1740  0.2466  0.2099
21482SOL    HW170409   3.872  11.170  11.142  1.0511  2.4620  0.5953
21482SOL    HW270410   3.774  11.124  11.036  1.0299 -1.1479  2.0405
21483SOL     OW70411   8.637   2.636   1.879  0.0155  0.2043  0.0952
21483SOL    HW170412   8.583   2.713   1.897 -0.6748 -0.2580  0.0206
21483SOL    HW270413   8.688   2.623   1.959 -0.4267  0.2820  0.3907
21484SOL     OW70414  10.055  12.252   7.707 -0.0679  0.4582  0.4597
21484SOL    HW170415   9.972  12.299   7.705 -0.9309 -1.0163  0.7201
21484SOL    HW270416  10.083  12.251   7.615 -0.9564 -0.0887  0.1798
21485SOL     OW70417   3.705   1.020   5.103  0.0678  0.3564 -0.1940
21485SOL    HW170418   3.784   0.966   5.094 -0.0608  0.1878 -0.3068
21485SOL    HW270419   3.652   0.997   5.027  1.4577  3.0685 -2.1392
21486SOL     OW70420   8.385   4.542   5.859  0.4414  0.0451  0.3910
21486SOL    HW170421   8.436   4.620   5.881  0.1289  0.7972 -1.4328
21486SOL    HW270422   8.299   4.576   5.835  0.1609 -0.9167  0.0057
21487SOL     OW70423   4.914   5.278   1.968  0.6114  0.0984 -0.0433
21487SOL    HW170424   4.833   5.284   1.918  1.0744  0.8907 -0.7178
21487SOL    HW270425   4.886   5.248   2.055 -0.2911 -0.5018 -0.5229
21488SOL     OW70426   6.241   3.573   3.004  0.6571 -0.2333  0.4158
21488SOL    HW170427   6.314   3.608   3.055 -0.0066  1.1894  0.4222
21488SOL    HW270428   6.163   3.608   3.046  0.1139  2.0591 -2.2511
21489SOL     OW70429   5.800  10.407   9.358  0.3252 -0.6628  0.0811
21489SOL    HW170430   5.767  10.327   9.316  0.4394 -0.8819  0.4071
21489SOL    HW270431   5.857  10.446   9.291 -0.6604 -0.2262 -0.5230
21490SOL     OW70432   7.157   3.087  10.894 -0.3764 -0.1974 -0.5453
21490SOL    HW170433   7.129   3.013  10.947  0.4788 -2.0349 -2.5096
21490SOL    HW270434   7.179   3.155  10.957 -1.0158 -1.6768  1.3501
21491SOL     OW70435   7.864  12.226   7.812  0.8242 -0.2932  0.0235
21491SOL    HW170436   7.902  12.275   7.885 -2.0054  0.5257  1.0768
21491SOL    HW270437   7.811  12.291   7.764  0.0016 -1.5201 -0.7906
21492SOL     OW70438   1.765  12.463   7.141  0.5699  0.4867 -0.1811
21492SOL    HW170439   1.859  12.470   7.128  0.8321 -0.8616  0.7661
21492SOL    HW270440   1.754  12.387   7.198 -0.9777  1.4829  0.9617
21493SOL     OW70441   4.299   4.227   9.243  0.0022 -0.4709  0.2469
21493SOL    HW170442   4.371   4.232   9.179  0.0028  1.8112  0.3256
21493SOL    HW270443   4.304   4.138   9.278  3.3237 -0.1757  0.8577
21494SOL     OW70444   1.661   8.531   3.763  0.0955  0.2389  0.1767
21494SOL    HW170445   1.718   8.512   3.688 -1.0710  0.9717 -0.9324
21494SOL    HW270446   1.719   8.522   3.839  1.5571  0.3990 -0.8562
21495SOL     OW70447   5.842   3.823   4.448 -0.1245 -1.0804 -0.3766
21495SOL    HW170448   5.805   3.748   4.400  1.3740 -1.9225 -0.2740
21495SOL    HW270449   5.796   3.822   4.532 -2.0098 -0.2367 -1.3301
21496SOL     OW70450   0.907   2.017   6.514 -0.2010  0.1122  0.2989
21496SOL    HW170451   0.913   2.112   6.499  0.9440 -0.0552 -0.4612
21496SOL    HW270452   0.816   2.003   6.539 -1.2160  1.0644 -2.4199
21497SOL     OW70453  10.788  12.402   4.295  0.2276  0.2849 -0.9191
21497SOL    HW170454  10.751  12.440   4.216 -1.2080  1.5144  0.2661
21497SOL    HW270455  10.751  12.314   4.299 -1.6480  1.0226 -0.4708
21498SOL     OW70456   0.769   7.280   3.874 -0.7260 -0.1324 -0.3796
21498SOL    HW170457   0.703   7.213   3.892  0.1655 -1.1239 -0.6811
21498SOL    HW270458   0.846   7.251   3.922 -0.5381  1.1085  0.1225
21499SOL     OW70459   0.942   5.287   5.909  0.5073 -0.5343  0.4070
21499SOL    HW170460   0.867   5.228   5.911 -0.0121  0.1246  0.5740
21499SOL    HW270461   1.013   5.237   5.950  0.7119 -1.8806 -1.4398
21500SOL     OW70462  11.838   0.238   2.631 -0.4908  0.1096 -0.3403
21500SOL    HW170463  11.817   0.262   2.721  0.1587 -1.1193  0.1535
21500SOL    HW270464  11.933   0.229   2.630 -0.6068 -1.1313 -0.8295
21501SOL     OW70465   2.603   0.199  12.148  0.1647 -0.2280 -0.4707
21501SOL    HW170466   2.672   0.147  12.107 -0.3730 -0.9143 -0.5052
21501SOL    HW270467   2.646   0.240  12.223  0.5597 -0.8081 -0.3762
21502SOL     OW70468   8.953  10.699   7.635  0.2516 -0.1348  0.7996
21502SOL    HW170469   8.958  10.620   7.580  0.9669  0.2962  0.2363
21502SOL    HW270470   9.033  10.697   7.686  0.9122  0.8951 -0.1514
21503SOL     OW70471   9.347   7.089   0.737  0.1872 -0.6740 -0.1737
21503SOL    HW170472   9.266   7.116   0.781  0.8045  0.5506  0.2738
21503SOL    HW270473   9.404   7.061   0.809  0.7511  0.1076 -0.3081
21504SOL     OW70474  11.217   7.157   1.724  0.4312  0.0777 -0.2044
21504SOL    HW170475  11.184   7.067   1.715  0.1754  0.2804 -1.4193
21504SOL    HW270476  11.231   7.167   1.818 -0.7958 -0.7917  0.1075
21505SOL     OW70477   9.569   7.693   3.057 -0.2052  0.6038 -0.7037
21505SOL    HW170478   9.575   7.612   3.108  0.5384  0.8806 -0.3402
21505SOL    HW270479   9.644   7.690   2.997 -0.4732  0.7832 -1.0585
21506SOL     OW70480   3.841   6.127   3.563 -0.8124  0.3147  0.1491
21506SOL    HW170481   3.866   6.201   3.618 -1.8427 -0.2833  1.4784
21506SOL    HW270482   3.919   6.072   3.560  0.0751  1.5890 -1.1380
21507SOL     OW70483  11.078   6.152   2.421  0.3343  0.5780 -0.1439
21507SOL    HW170484  11.169   6.172   2.400  0.0331  0.3124 -1.8662
21507SOL    HW270485  11.051   6.088   2.355 -1.3151  1.2100 -0.1410
21508SOL     OW70486  12.468  12.476   5.304  0.6781  1.0315  0.0767
21508SOL    HW170487  12.424  12.404   5.350 -0.0632  1.6807  0.3955
21508SOL    HW270488  12.505  12.435   5.226 -0.6375  0.4802 -0.2897
21509SOL     OW70489   3.649  10.982   4.049 -0.4763 -0.1677  0.2546
21509SOL    HW170490   3.707  11.055   4.072 -1.3734  0.0518  1.9420
21509SOL    HW270491   3.709  10.913   4.021  0.4915  0.5895  0.3746
21510SOL     OW70492   0.789   2.846   0.876 -0.0825 -0.2749 -0.7660
21510SOL    HW170493   0.859   2.866   0.813 -0.2678  0.3605 -0.7713
21510SOL    HW270494   0.726   2.917   0.866  0.3597  0.3941  0.8404
21511SOL     OW70495   2.444   1.558   0.090 -0.1890 -0.5801 -0.5873
21511SOL    HW170496   2.437   1.520   0.178 -0.7417 -0.8130 -0.7281
21511SOL    HW270497   2.479   1.646   0.106  0.8031 -1.0289 -0.2385
21512SOL     OW70498   6.067   5.252   3.031  0.3775 -0.2309  0.2646
21512SOL    HW170499   6.054   5.260   3.125  0.6519 -1.5985  0.4287
21512SOL    HW270500   6.041   5.338   2.996 -0.5576 -0.0002  1.4804
21513SOL     OW70501  10.535   8.462   5.036  0.5142 -0.0882 -0.0951
21513SOL    HW170502  10.499   8.534   5.089  1.1418  1.2792 -1.4352
21513SOL    HW270503  10.468   8.444   4.971  0.3600 -0.7507  0.2358
21514SOL     OW70504   8.546   8.638   1.690  0.0278  0.3136 -0.1826
21514SOL    HW170505   8.619   8.579   1.706  0.0204  0.7944  1.7611
21514SOL    HW270506   8.515   8.613   1.602  0.4286 -2.1110  0.2895
21515SOL     OW70507   3.429   7.738   6.905  0.2431 -0.2516  0.3431
21515SOL    HW170508   3.395   7.651   6.923  0.5015 -0.0928  1.6664
21515SOL    HW270509   3.369   7.797   6.949 -0.3681  0.3082 -1.1863
21516SOL     OW70510   0.840   7.948   5.732  0.1078  0.5057 -0.2750
21516SOL    HW170511   0.808   7.883   5.795  2.2174 -0.6088 -0.2525
21516SOL    HW270512   0.922   7.910   5.698  0.8056  2.6386 -1.1405
21517SOL     OW70513   3.550   0.988   4.118  0.1837 -0.0603 -0.1380
21517SOL    HW170514   3.499   1.040   4.056 -1.1500  0.9856  1.7234
21517SOL    HW270515   3.525   0.898   4.099  0.0881  0.2093 -1.3565
21518SOL     OW70516  11.848  10.551   2.983  0.0115 -0.1189  0.0269
21518SOL    HW170517  11.799  10.603   2.919 -1.0290 -1.5897 -0.4028
21518SOL    HW270518  11.786  10.484   3.011  0.7524 -0.0637  1.9097
21519SOL     OW70519  10.082   1.810  12.196 -0.3268 -0.5257  0.5308
21519SOL    HW170520  10.088   1.855  12.112  0.4275 -2.4649 -0.5218
21519SOL    HW270521  10.083   1.881  12.261 -0.8888  1.0217 -1.0591
21520SOL     OW70522   5.262   1.714   1.173 -0.2671  0.1436 -0.2030
21520SOL    HW170523   5.233   1.805   1.179  1.5603  0.7616 -0.4287
21520SOL    HW270524   5.245   1.678   1.260  0.6183  1.2076  0.4271
21521SOL     OW70525   3.470   0.597   1.341  0.2286 -0.2063 -0.2405
21521SOL    HW170526   3.446   0.689   1.330  1.6531  0.5656  2.1676
21521SOL    HW270527   3.402   0.562   1.399  0.2435 -0.3954 -0.3375
21522SOL     OW70528   0.654   5.154   5.571 -0.2676 -0.8238 -0.4905
21522SOL    HW170529   0.680   5.072   5.530 -0.2481 -1.4451  0.7368
21522SOL    HW270530   0.569   5.175   5.532  0.7190 -0.2246 -2.4683
21523SOL     OW70531  12.071  10.282   4.232 -0.0849  0.5006 -0.3202
21523SOL    HW170532  12.044  10.216   4.169  1.9220  1.0032 -1.8038
21523SOL    HW270533  12.009  10.274   4.304 -0.8900 -1.8449 -1.2022
21524SOL     OW70534  10.886   5.288   6.342  0.0088  0.1133  0.5493
21524SOL    HW170535  10.806   5.338   6.327  0.6949  0.7828 -1.2117
21524SOL    HW270536  10.912   5.259   6.255  0.6405 -1.7646  1.3241
21525SOL     OW70537   4.914   2.848   8.297 -0.1837  0.0979 -0.2171
21525SOL    HW170538   4.929   2.799   8.216 -1.0609 -0.0231 -0.3173
21525SOL    HW270539   4.911   2.782   8.365  0.1925  0.1648 -0.1350
21526SOL     OW70540  12.295  10.087   7.076  0.3362  0.1717 -0.2746
21526SOL    HW170541  12.312   9.994   7.094  0.7396  0.4581  0.8933
21526SOL    HW270542  12.358  10.134   7.131 -2.9851  1.2461  2.9428
21527SOL     OW70543   4.912   6.604   5.099 -0.1179  0.4195  0.5938
21527SOL    HW170544   4.934   6.696   5.114 -1.2924  0.5368  1.7374
21527SOL    HW270545   4.988   6.556   5.132  0.3829  0.9667  0.2512
21528SOL     OW70546   3.923   7.347  11.427  1.3558  0.0619 -0.0124
21528SOL    HW170547   3.903   7.309  11.513  0.5261  0.2398 -0.1164
21528SOL    HW270548   3.931   7.441  11.443 -1.0088  0.4096 -0.4482
21529SOL     OW70549   1.444   4.456   2.224 -0.1032 -0.0408 -0.5817
21529SOL    HW170550   1.398   4.539   2.209  1.0106  0.7994  0.4864
21529SOL    HW270551   1.517   4.479   2.281 -0.1780 -1.8846  0.3317
21530SOL     OW70552  12.064   6.183   7.972 -0.0888 -0.2227  0.2964
21530SOL    HW170553  12.042   6.148   7.886 -1.3072 -0.9135  0.8545
21530SOL    HW270554  12.157   6.206   7.966 -0.0481 -0.6640 -1.0580
21531SOL     OW70555   5.508   4.152   2.604  0.0083 -0.1757 -0.2351
21531SOL    HW170556   5.541   4.136   2.692  1.4505  0.2957 -0.6560
21531SOL    HW270557   5.510   4.066   2.562  1.7080 -0.0231 -0.5482
21532SOL     OW70558   0.139  11.739   1.444 -0.3971 -0.1860  0.0859
21532SOL    HW170559   0.057  11.717   1.488  1.1809 -2.6313  2.0586
21532SOL    HW270560   0.194  11.777   1.513  1.4739 -2.2877 -0.1408
21533SOL     OW70561   8.066   8.435  12.294 -0.2594 -0.1309 -0.3505
21533SOL    HW170562   8.005   8.495  12.250 -1.8945 -1.4474  0.0482
21533SOL    HW270563   8.012   8.384  12.354  1.2444 -1.3555  0.0390
21534SOL     OW70564  11.405   7.638   7.957  0.4418  0.4762  0.3480
21534SOL    HW170565  11.334   7.614   8.016  1.4711  0.7318  1.7543
21534SOL    HW270566  11.366   7.699   7.895 -0.4717  0.9538  1.3587
21535SOL     OW70567   0.477   9.033  10.353  0.2925 -0.3554  0.3009
21535SOL    HW170568   0.452   8.944  10.329  1.8660 -0.3468 -1.6504
21535SOL    HW270569   0.518   9.023  10.439 -0.3022 -1.3662  0.4898
21536SOL     OW70570   7.931  12.003   0.931  0.2804  0.1062 -0.1072
21536SOL    HW170571   7.975  12.054   0.999  0.1332  0.5889 -0.3699
21536SOL    HW270572   7.876  11.942   0.979 -0.3338  0.8910  0.2068
21537SOL     OW70573   9.635   2.393   7.788 -0.1903 -0.0046  0.3705
21537SOL    HW170574   9.564   2.457   7.779 -0.0548 -0.1006 -1.9728
21537SOL    HW270575   9.710   2.445   7.818 -0.6993  0.4770  0.8393
21538SOL     OW70576   0.273  11.738   3.885 -0.3497  0.0407  0.1394
21538SOL    HW170577   0.274  11.729   3.790  0.2472  2.0047 -0.0970
21538SOL    HW270578   0.229  11.821   3.900 -0.1568 -0.0978  1.5566
21539SOL     OW70579   0.568   5.991  10.592  0.1403 -0.3600  0.8677
21539SOL    HW170580   0.478   6.020  10.607  0.0530 -0.3400  0.3249
21539SOL    HW270581   0.622   6.063  10.624 -0.0327 -0.3653  1.1784
21540SOL     OW70582   6.895   4.521   1.491 -0.0641  0.6450  0.4581
21540SOL    HW170583   6.855   4.449   1.540 -0.9820  0.8531  0.0195
21540SOL    HW270584   6.970   4.547   1.544  0.1603 -0.4945  0.7278
21541SOL     OW70585  11.054  12.451  11.033 -0.2914  0.4131  0.5526
21541SOL    HW170586  11.102  12.464  10.951 -3.3816 -0.7205 -1.6215
21541SOL    HW270587  10.982  12.515  11.029 -1.5780 -0.9230  1.4222
21542SOL     OW70588  10.398  10.587   4.650  0.6475  0.3132 -0.6879
21542SOL    HW170589  10.372  10.543   4.731  1.5368 -0.7611 -0.9655
21542SOL    HW270590  10.484  10.624   4.669  0.5889  0.5974 -0.9582
21543SOL     OW70591  11.151   6.783  10.665  0.3593 -0.2932 -0.9232
21543SOL    HW170592  11.118   6.838  10.594  0.8169  0.6819 -0.3877
21543SOL    HW270593  11.172   6.844  10.735 -0.5961 -1.2843  0.2724
21544SOL     OW70594   4.148   0.275   9.624 -0.2768 -0.0827  0.2210
21544SOL    HW170595   4.060   0.292   9.591 -0.2061  0.0265  0.0886
21544SOL    HW270596   4.137   0.202   9.685 -0.3326 -0.6274 -0.4214
21545SOL     OW70597   2.134  11.989  11.378 -0.6035  0.0493  0.6130
21545SOL    HW170598   2.153  12.082  11.393  1.2258 -0.6883  3.9445
21545SOL    HW270599   2.044  11.978  11.410 -1.0141  0.7172 -0.2633
21546SOL     OW70600   7.503   9.983   1.798  0.0959  0.0657 -0.4555
21546SOL    HW170601   7.408   9.986   1.793  0.1386  1.4459 -0.8619
21546SOL    HW270602   7.522   9.902   1.846 -1.3203  0.3783  0.7200
21547SOL     OW70603   6.200   4.554  11.574 -0.8812 -0.1534 -0.1156
21547SOL    HW170604   6.294   4.539  11.560 -0.4303 -0.7240  2.8594
21547SOL    HW270605   6.167   4.578  11.488  2.0982  0.6376 -1.1764
21548SOL     OW70606   8.863   7.336   1.588  0.7020  0.0113  0.0380
21548SOL    HW170607   8.906   7.292   1.515 -0.5899  0.1533 -0.8476
21548SOL    HW270608   8.933   7.381   1.634  1.6509 -0.7036 -0.6636
21549SOL     OW70609   7.838   6.513   9.381  0.2125 -0.3359  0.0533
21549SOL    HW170610   7.783   6.591   9.368 -1.9766 -2.0954 -2.2539
21549SOL    HW270611   7.803   6.473   9.461 -1.5212 -1.0928 -1.0401
21550SOL     OW70612   1.797  10.538  11.443  0.1483 -0.0233  0.1536
21550SOL    HW170613   1.833  10.451  11.463 -0.4718 -0.3741 -0.2381
21550SOL    HW270614   1.790  10.580  11.528  0.2489 -0.4368  0.3717
21551SOL     OW70615   7.299   8.605   2.587  0.0326 -0.6639 -0.0427
21551SOL    HW170616   7.315   8.602   2.493  2.8074  0.1009  0.3048
21551SOL    HW270617   7.279   8.697   2.605  2.2864 -0.1733  0.3708
21552SOL     OW70618  12.353   8.610   3.856  0.2174  0.2791  0.5599
21552SOL    HW170619  12.388   8.613   3.767  0.0836 -1.8309  0.3793
21552SOL    HW270620  12.373   8.521   3.887 -0.4163  0.7109  2.3606
21553SOL     OW70621   1.289   4.206   4.152  0.2514  0.2543 -0.1947
21553SOL    HW170622   1.261   4.250   4.072 -0.2501 -2.1030 -1.4116
21553SOL    HW270623   1.207   4.187   4.198  0.4370  0.3203  0.1673
21554SOL     OW70624   0.814   7.626   0.704 -0.7912  0.0540 -0.1693
21554SOL    HW170625   0.733   7.667   0.733 -0.6611 -0.9937  1.8466
21554SOL    HW270626   0.795   7.532   0.705 -0.0839 -0.1247 -1.4563
21555SOL     OW70627   5.219  10.340  12.267  0.1778  0.5361 -0.7689
21555SOL    HW170628   5.242  10.308  12.179  0.2069  1.9972 -1.3226
21555SOL    HW270629   5.196  10.432  12.254  1.6170  1.2125  0.9593
21556SOL     OW70630   3.949   5.141   9.810  0.1733  0.1395  0.3139
21556SOL    HW170631   3.957   5.094   9.727  1.2335 -0.4945  0.7592
21556SOL    HW270632   4.035   5.178   9.825  0.3228 -0.6954  1.6714
21557SOL     OW70633   3.399  11.549   5.319 -0.2997 -0.1943  0.1180
21557SOL    HW170634   3.490  11.570   5.340  0.3342  0.9542 -3.3141
21557SOL    HW270635   3.351  11.629   5.336 -0.8681 -0.9054  2.2919
21558SOL     OW70636   8.505  11.784   4.066 -0.3080  0.4661 -0.0423
21558SOL    HW170637   8.422  11.775   4.113 -0.2134 -1.7560 -0.1892
21558SOL    HW270638   8.521  11.698   4.029  1.3224  1.2626 -1.3316
21559SOL     OW70639  12.105  12.043   3.105 -0.6163 -0.3192 -0.2259
21559SOL    HW170640  12.192  12.034   3.144 -1.3369 -1.4682  1.2253
21559SOL    HW270641  12.102  12.133   3.073  1.6192 -0.6889 -1.6767
21560SOL     OW70642   3.076   1.795   3.005 -0.2355 -0.5895  0.0483
21560SOL    HW170643   3.111   1.775   3.092 -0.9534 -0.3024  0.4140
21560SOL    HW270644   3.148   1.775   2.945  0.5843  0.0625  0.7799
21561SOL     OW70645   3.272   2.535  12.097  0.0669  0.3302 -0.0558
21561SOL    HW170646   3.179   2.516  12.099 -0.7229  3.5363  0.1673
21561SOL    HW270647   3.300   2.528  12.188 -0.6851  2.0176  0.3528
21562SOL     OW70648   1.774   9.958   5.128  0.1654 -0.1693  0.1003
21562SOL    HW170649   1.764  10.047   5.095 -3.0693 -0.5261 -0.2257
21562SOL    HW270650   1.766   9.967   5.223 -0.9262 -0.1346  0.0216
21563SOL     OW70651   3.789   2.500   9.504  0.0431  0.6447 -0.1295
21563SOL    HW170652   3.792   2.433   9.436  2.2634 -0.9523  1.3963
21563SOL    HW270653   3.757   2.578   9.459 -1.8588 -1.1779 -2.1715
21564SOL     OW70654   8.829  11.773   4.508  0.6813  0.0058 -0.0755
21564SOL    HW170655   8.783  11.857   4.510  2.5223  1.0681 -0.2406
21564SOL    HW270656   8.865  11.768   4.419  0.8802 -0.8009  0.0461
21565SOL     OW70657  11.365   6.681   0.799 -0.2788  0.2205 -0.1755
21565SOL    HW170658  11.350   6.775   0.797  0.8850  0.4388  0.4479
21565SOL    HW270659  11.457   6.671   0.825 -0.1658 -1.0755 -0.9543
21566SOL     OW70660  10.398   7.364   7.358  0.0568  0.4358 -0.0383
21566SOL    HW170661  10.330   7.420   7.321 -2.7067 -1.0004  2.4059
21566SOL    HW270662  10.422   7.409   7.440 -1.3972 -1.2167  1.3868
21567SOL     OW70663  11.286   1.947   9.992  0.2786 -0.1780 -0.2366
21567SOL    HW170664  11.377   1.966  10.016  0.1275  1.3469 -0.7516
21567SOL    HW270665  11.244   1.923  10.074 -0.0821  4.2938  1.1774
21568SOL     OW70666   0.766  12.350   0.633 -0.3996 -0.1781  0.2805
21568SOL    HW170667   0.749  12.432   0.679 -0.2490 -1.0722  2.0270
21568SOL    HW270668   0.728  12.282   0.690  1.7627 -1.5379  0.2274
21569SOL     OW70669  10.153   0.786   2.056  0.6616  0.4383 -0.1919
21569SOL    HW170670  10.077   0.809   2.108  0.4269  0.2178 -0.4354
21569SOL    HW270671  10.191   0.870   2.030  0.3843  0.5480 -0.2426
21570SOL     OW70672   5.884   9.198  11.108 -0.3350 -0.1476 -0.5648
21570SOL    HW170673   5.904   9.117  11.154 -0.2454 -0.4033 -1.0471
21570SOL    HW270674   5.800   9.227  11.145 -0.6830 -0.7986 -0.8358
21571SOL     OW70675  10.421   4.533   7.605  0.4685 -0.3063  0.0240
21571SOL    HW170676  10.341   4.480   7.611  0.7004 -0.5238  1.5019
21571SOL    HW270677  10.478   4.484   7.545 -0.5176 -0.1020 -1.1165
21572SOL     OW70678   9.437   1.867   3.012 -0.2803 -0.6405  0.3271
21572SOL    HW170679   9.386   1.935   3.055 -0.6671 -1.1011  0.5961
21572SOL    HW270680   9.523   1.908   2.998  0.1287 -0.7512  2.2686
21573SOL     OW70681  10.826  10.681  11.141 -0.1749 -0.5797  0.2941
21573SOL    HW170682  10.834  10.752  11.077  0.9301 -0.1380  0.8947
21573SOL    HW270683  10.822  10.726  11.226 -1.8375 -1.1447  0.5580
21574SOL     OW70684  10.568  11.381   0.976 -0.2916 -0.2992  0.3951
21574SOL    HW170685  10.639  11.433   1.013 -1.4392  1.3663  0.3797
21574SOL    HW270686  10.612  11.315   0.923  1.2665  1.3315 -0.4640
21575SOL     OW70687   6.307   3.643   7.368 -0.6289  0.0771  0.9812
21575SOL    HW170688   6.236   3.650   7.432 -1.2337  1.2945  0.2147
21575SOL    HW270689   6.263   3.642   7.283  0.2497  0.6991  0.5010
21576SOL     OW70690   1.132   2.564   5.203  0.0682  0.1839  0.1941
21576SOL    HW170691   1.144   2.470   5.216  1.0766  0.2165 -0.3999
21576SOL    HW270692   1.197   2.588   5.137 -0.1668  1.3040  0.3440
21577SOL     OW70693   3.458  11.226   4.092 -0.2709  0.8974 -0.3205
21577SOL    HW170694   3.475  11.291   4.160  0.2329 -0.8702  1.3474
21577SOL    HW270695   3.459  11.142   4.138 -1.8766 -0.2557 -2.1904
21578SOL     OW70696  10.056   5.416  10.291 -0.3049 -0.2549 -0.2746
21578SOL    HW170697  10.067   5.341  10.232  0.7558  0.8354 -1.5047
21578SOL    HW270698   9.970   5.452  10.268  0.2637  0.3957 -1.4605
21579SOL     OW70699   5.464   3.523  12.092  0.2179  0.7001  0.0016
21579SOL    HW170700   5.407   3.552  12.163 -1.1456  0.0969 -0.8001
21579SOL    HW270701   5.406   3.512  12.018  1.3850 -0.0090 -0.8414
21580SOL     OW70702   0.097   0.015   5.925  0.5918 -0.0050 -0.5084
21580SOL    HW170703   0.063   0.082   5.985 -0.4683 -1.1488  0.1930
21580SOL    HW270704   0.056   0.035   5.841  0.5910  0.4433 -0.4077
21581SOL     OW70705   5.538  11.993   8.148  0.9892 -0.0254  0.0217
21581SOL    HW170706   5.470  11.926   8.136  2.0063 -0.9552 -0.8251
21581SOL    HW270707   5.521  12.057   8.079  0.2119  0.4396  0.6251
21582SOL     OW70708   1.186   1.790   1.880 -0.2621  0.4109 -0.4558
21582SOL    HW170709   1.133   1.746   1.947 -0.0775 -0.4559 -0.8559
21582SOL    HW270710   1.151   1.758   1.797 -0.3543  1.3209 -0.7766
21583SOL     OW70711  11.667   8.381  12.310 -0.0257 -0.3300 -0.4024
21583SOL    HW170712  11.705   8.397  12.396  0.3629 -0.3835 -0.5614
21583SOL    HW270713  11.630   8.293  12.316  0.5868 -0.5970 -0.4949
21584SOL     OW70714   6.079   2.535   6.345  0.2547  0.1246  0.4019
21584SOL    HW170715   6.075   2.458   6.401  0.5274  0.3094  0.6788
21584SOL    HW270716   6.156   2.583   6.376  0.8458 -0.1407 -0.6067
21585SOL     OW70717   3.601   8.517   4.308 -0.2273 -0.3834 -0.0110
21585SOL    HW170718   3.590   8.514   4.404  0.7739 -0.5314  0.1088
21585SOL    HW270719   3.606   8.610   4.288  2.4120 -0.3206  0.4738
21586SOL     OW70720  11.815   6.032   5.643  0.1887  0.1444  0.2027
21586SOL    HW170721  11.754   6.008   5.573  0.2676  1.3054 -0.2896
21586SOL    HW270722  11.847   5.949   5.676  0.7284 -0.4395 -1.6620
21587SOL     OW70723   8.724  11.702   0.232 -0.2188  0.1044 -0.1303
21587SOL    HW170724   8.680  11.711   0.147  0.6841  2.9564 -0.3703
21587SOL    HW270725   8.662  11.738   0.295  0.1027  0.2489  0.1046
21588SOL     OW70726   5.561   1.452   8.303 -0.6895 -0.4098 -0.1494
21588SOL    HW170727   5.625   1.416   8.365  0.8212  0.3515 -1.1902
21588SOL    HW270728   5.559   1.546   8.322  0.2874 -0.0553 -1.6078
21589SOL     OW70729   9.705   6.523  11.279 -0.4059  0.0544  0.4148
21589SOL    HW170730   9.639   6.585  11.310 -0.0797  1.2857 -1.1994
21589SOL    HW270731   9.778   6.579  11.250 -0.0184 -1.0937 -0.9143
21590SOL     OW70732   3.732   4.138   8.638 -0.0760  0.1324  0.4842
21590SOL    HW170733   3.648   4.163   8.600 -0.2530  0.7669  1.2793
21590SOL    HW270734   3.789   4.213   8.621 -0.2839  0.6186  1.8557
21591SOL     OW70735   4.539   7.855   2.076 -0.5803 -0.0806  0.1440
21591SOL    HW170736   4.589   7.785   2.033 -0.7629 -0.4348  0.4968
21591SOL    HW270737   4.605   7.919   2.102 -0.5636  0.6014 -1.4933
21592SOL     OW70738   5.076   7.726   3.182 -0.4956 -0.4087  0.4418
21592SOL    HW170739   5.147   7.682   3.228 -0.8844 -0.7860  0.6949
21592SOL    HW270740   5.118   7.770   3.109  0.1437  0.2670  1.1976
21593SOL     OW70741  11.443   2.502  10.607  0.2355  0.5601 -0.3419
21593SOL    HW170742  11.508   2.433  10.596 -0.7193 -0.7788  1.9314
21593SOL    HW270743  11.377   2.484  10.540 -0.7072 -1.6420  1.0967
21594SOL     OW70744   8.497   7.843   3.525 -0.5904 -0.4701 -0.4495
21594SOL    HW170745   8.441   7.920   3.536 -0.7073 -0.6895  0.6246
21594SOL    HW270746   8.505   7.806   3.613  1.0638 -0.5676 -0.5999
21595SOL     OW70747  11.172   4.026   4.184 -0.0546  0.3478 -0.0452
21595SOL    HW170748  11.230   4.013   4.259 -1.2867  1.5459  1.1814
21595SOL    HW270749  11.086   4.043   4.223 -1.6291 -2.7303 -1.7729
21596SOL     OW70750  10.666   1.913  10.421  0.4798  0.2857 -0.2063
21596SOL    HW170751  10.671   1.820  10.398  2.2227  0.2690  0.1299
21596SOL    HW270752  10.623   1.914  10.507  0.3310 -0.1942 -0.2711
21597SOL     OW70753   1.320   3.294   7.981  0.1868  0.3256 -0.2540
21597SOL    HW170754   1.359   3.249   7.906 -0.4364  0.5057 -0.6923
21597SOL    HW270755   1.230   3.313   7.954 -0.4419 -0.7006  1.0035
21598SOL     OW70756   0.804  10.681   5.343 -0.1927  0.1627  0.1469
21598SOL    HW170757   0.843  10.597   5.367  0.0116  0.6376  1.6084
21598SOL    HW270758   0.842  10.702   5.258  0.8172 -0.5700  0.3973
21599SOL     OW70759   5.846  10.709   0.694  0.5467  0.4221 -0.1759
21599SOL    HW170760   5.763  10.663   0.684  0.4616 -0.1798  2.5055
21599SOL    HW270761   5.830  10.795   0.655 -0.7586 -0.2318 -1.1877
21600SOL     OW70762   8.116   9.231  10.688 -0.6443 -0.2766  0.6864
21600SOL    HW170763   8.211   9.242  10.686 -0.2487 -2.8699  1.2075
21600SOL    HW270764   8.087   9.246  10.598  0.5571 -1.3314  0.0954
21601SOL     OW70765   1.402   4.896   6.409 -0.4478  0.8865  0.1982
21601SOL    HW170766   1.463   4.850   6.467 -0.1737  0.5009 -0.3860
21601SOL    HW270767   1.386   4.980   6.452  2.1829  1.9230 -0.6637
21602SOL     OW70768   3.162   6.680   4.485  0.5599  0.4555  0.7568
21602SOL    HW170769   3.152   6.730   4.565  0.4571  0.9093  0.4653
21602SOL    HW270770   3.077   6.638   4.472  0.3744  0.8919  0.5482
21603SOL     OW70771   3.605   0.405  10.947  0.1700  0.1093  0.2143
21603SOL    HW170772   3.668   0.429  10.879  0.3756 -0.5620  0.1557
21603SOL    HW270773   3.659   0.383  11.023  0.0857 -1.5030 -0.1610
21604SOL     OW70774   3.385   8.190  10.590  0.2284  0.1927 -0.6809
21604SOL    HW170775   3.382   8.114  10.648 -2.2784  0.9477  0.2825
21604SOL    HW270776   3.326   8.253  10.630 -1.2385  0.9587 -3.7607
21605SOL     OW70777   1.302   4.567   6.940  0.5432  0.0304 -0.7673
21605SOL    HW170778   1.344   4.639   6.987  1.0937 -0.9965  0.3414
21605SOL    HW270779   1.264   4.609   6.863  1.7094  1.3515 -0.6720
21606SOL     OW70780   5.885   3.470   8.832 -0.7251  0.0389 -0.6001
21606SOL    HW170781   5.824   3.404   8.798  0.2338 -0.1826 -1.9478
21606SOL    HW270782   5.840   3.554   8.819 -1.3923 -0.2399 -0.1171
21607SOL     OW70783  10.624   6.160   1.489  0.2953  0.0135 -0.6322
21607SOL    HW170784  10.537   6.127   1.511 -0.4445  1.4940 -1.1664
21607SOL    HW270785  10.637   6.136   1.397 -0.0661  0.8256 -0.8993
21608SOL     OW70786  11.353  12.217   6.884  0.1451  0.0467  1.0254
21608SOL    HW170787  11.260  12.232   6.903  0.2887  0.8993  1.1063
21608SOL    HW270788  11.358  12.217   6.788  0.0934  0.2353  1.0221
21609SOL     OW70789   8.094   9.772   0.956  0.0519  0.7164 -0.6830
21609SOL    HW170790   8.076   9.847   0.901  1.1602  0.7457 -1.0273
21609SOL    HW270791   8.077   9.803   1.045 -0.5562  1.0315 -0.9014
21610SOL     OW70792   1.208   4.175   4.778  0.4179 -0.0139  0.4139
21610SOL    HW170793   1.180   4.087   4.805 -0.9446  0.9513  2.2925
21610SOL    HW270794   1.298   4.182   4.811  0.1116 -0.2695  1.3385
21611SOL     OW70795   8.792   9.842   0.176  0.3038  0.3140 -0.2826
21611SOL    HW170796   8.789   9.822   0.082  1.5942  0.8901 -0.4703
21611SOL    HW270797   8.882   9.821   0.202 -0.3796 -1.1049  1.1387
21612SOL     OW70798   4.957   3.087   1.693  0.2372  0.2202 -0.3538
21612SOL    HW170799   4.864   3.077   1.712  0.3165 -1.3551 -0.6579
21612SOL    HW270800   4.969   3.181   1.679 -1.2874  0.4464 -0.2626
21613SOL     OW70801   2.428   3.226  12.187  0.5406  0.1232 -0.4693
21613SOL    HW170802   2.476   3.263  12.113 -0.2618 -0.6243 -1.3944
21613SOL    HW270803   2.372   3.297  12.218 -0.1163  0.0520 -1.4631
21614SOL     OW70804   3.745   8.461   1.917 -0.2661 -0.1291 -0.8971
21614SOL    HW170805   3.669   8.519   1.916 -0.3967 -0.2692  0.2665
21614SOL    HW270806   3.811   8.509   1.867 -0.1748  1.3002  0.5250
21615SOL     OW70807   2.683  11.560   2.607  0.2789 -0.0686 -0.2283
21615SOL    HW170808   2.666  11.483   2.552  3.4777  0.0403 -1.6163
21615SOL    HW270809   2.637  11.632   2.563 -1.0017 -0.7817 -0.0977
21616SOL     OW70810   0.994   8.929   2.670 -0.1195 -0.5288  0.3191
21616SOL    HW170811   1.009   8.855   2.611 -0.5494 -1.2805  1.1384
21616SOL    HW270812   0.912   8.967   2.639 -0.2871 -0.8556  0.3554
21617SOL     OW70813   3.373   9.053   1.546  0.2319 -0.3460 -0.2106
21617SOL    HW170814   3.294   9.103   1.529 -1.2673 -2.4688  0.0931
21617SOL    HW270815   3.389   9.064   1.640 -0.8560 -1.3856  0.1292
21618SOL     OW70816   3.037   7.961  12.236  0.0860 -0.1925  0.6355
21618SOL    HW170817   3.056   7.903  12.310 -2.6951 -1.1792  0.6635
21618SOL    HW270818   2.966   8.016  12.266  1.5885  2.2261  0.0190
21619SOL     OW70819   4.042   4.026  12.303  0.1186 -0.3231 -0.2064
21619SOL    HW170820   4.127   4.051  12.337  0.9993 -1.0220 -1.7631
21619SOL    HW270821   4.053   3.935  12.275 -1.0072 -0.2911 -0.8327
21620SOL     OW70822   1.883   5.167   8.725 -0.5181  0.7236 -0.5621
21620SOL    HW170823   1.934   5.240   8.689 -0.2838  1.2545  0.7923
21620SOL    HW270824   1.794   5.183   8.695 -0.4707  1.5706 -0.2589
21621SOL     OW70825   8.227   6.571  12.021 -0.1401 -0.3097 -0.1398
21621SOL    HW170826   8.141   6.545  12.055 -0.4240 -0.5918 -1.0379
21621SOL    HW270827   8.221   6.666  12.011 -0.7760 -0.4527 -1.2949
21622SOL     OW70828   6.590   3.828   1.812  0.2410 -0.1648 -0.3160
21622SOL    HW170829   6.664   3.868   1.859 -0.9235  1.9010 -0.1084
21622SOL    HW270830   6.629   3.788   1.735  1.7304 -0.3321  0.4829
21623SOL     OW70831   9.889   8.195   1.400 -0.3436  0.4514  0.1186
21623SOL    HW170832   9.915   8.123   1.342 -0.2558 -0.3564  1.1173
21623SOL    HW270833   9.897   8.273   1.346  0.3162 -0.2064 -0.7781
21624SOL     OW70834   3.188   8.735   0.892 -0.2976  0.2032  0.5707
21624SOL    HW170835   3.172   8.827   0.913 -1.5517  0.5951 -1.7144
21624SOL    HW270836   3.275   8.735   0.851 -0.5757  0.4872 -0.0250
21625SOL     OW70837   3.786   7.566   1.413 -0.3193 -0.3688 -0.2659
21625SOL    HW170838   3.877   7.556   1.386 -0.2688  0.8800 -0.6072
21625SOL    HW270839   3.785   7.647   1.463 -1.0624 -0.9034  0.6178
21626SOL     OW70840   3.551   8.886  12.092  0.3985 -0.7747 -0.3820
21626SOL    HW170841   3.575   8.835  12.015  0.0669  0.7428 -1.5301
21626SOL    HW270842   3.474   8.936  12.065  1.8374  1.8440 -0.0235
21627SOL     OW70843   1.903   0.876   2.380  0.1027 -0.4047 -0.5398
21627SOL    HW170844   1.877   0.942   2.316  1.0039  0.2553 -0.2521
21627SOL    HW270845   1.974   0.918   2.429  0.2401 -1.3494  0.0829
21628SOL     OW70846   2.628  10.298  10.266 -0.0161 -0.3272 -0.2801
21628SOL    HW170847   2.636  10.214  10.221 -0.4701 -0.0403 -0.9092
21628SOL    HW270848   2.611  10.361  10.197 -0.9707  0.0934  0.3103
21629SOL     OW70849   6.491   9.214   8.790 -0.1283  0.1360  0.2879
21629SOL    HW170850   6.460   9.219   8.881 -0.4516  1.3470  0.1202
21629SOL    HW270851   6.425   9.160   8.746 -0.9196  0.9872  0.3975
21630SOL     OW70852  11.823   5.712   4.382  0.0797  0.3013  0.1707
21630SOL    HW170853  11.800   5.619   4.372 -2.0517  0.6774  1.0807
21630SOL    HW270854  11.915   5.716   4.357 -0.0201 -1.8966 -0.7988
21631SOL     OW70855  11.062   8.242   1.099  0.2164  0.8765  0.3334
21631SOL    HW170856  11.032   8.191   1.024 -0.7003  2.7659 -0.6750
21631SOL    HW270857  11.136   8.192   1.134 -0.4668 -0.9788 -0.7022
21632SOL     OW70858   3.450  11.603   9.226  0.3569 -0.4012  0.0984
21632SOL    HW170859   3.471  11.694   9.206  0.4290 -0.6722 -1.1044
21632SOL    HW270860   3.535  11.559   9.230  0.2456 -1.0019 -2.3613
21633SOL     OW70861   6.149   4.690   2.031 -0.4268  0.2465  0.7667
21633SOL    HW170862   6.146   4.762   1.968 -0.3506 -1.1584 -0.9400
21633SOL    HW270863   6.204   4.722   2.102  0.2095  1.6100 -0.3030
21634SOL     OW70864  12.280   0.144   0.585  0.0081 -0.2794  0.2409
21634SOL    HW170865  12.257   0.205   0.515 -0.8493 -0.1774  0.5895
21634SOL    HW270866  12.201   0.139   0.639  0.2227 -1.3282  0.4886
21635SOL     OW70867   9.624  12.138  10.747 -0.2863 -0.2104 -0.3328
21635SOL    HW170868   9.712  12.104  10.761 -0.4892 -0.9950 -0.9211
21635SOL    HW270869   9.637  12.216  10.692 -0.0989 -1.4308 -2.0754
21636SOL     OW70870  10.031   6.241   8.816 -0.6939 -0.5384  0.5467
21636SOL    HW170871   9.950   6.277   8.851 -0.4609  0.8282 -0.2544
21636SOL    HW270872  10.002   6.176   8.751 -1.2411  1.4128 -1.2708
21637SOL     OW70873  10.444   3.650   5.253  0.3240  0.2659 -0.5394
21637SOL    HW170874  10.506   3.690   5.192  0.9073 -2.4688 -1.8714
21637SOL    HW270875  10.384   3.601   5.197  0.7257 -2.1342  1.0004
21638SOL     OW70876   6.042   3.343   0.445  0.6313 -1.0141 -0.6341
21638SOL    HW170877   6.017   3.257   0.480  0.7309 -0.9612 -0.4372
21638SOL    HW270878   6.131   3.329   0.410  1.8545 -0.2816  1.9650
21639SOL     OW70879   2.969   7.827  10.968 -0.2766 -0.0892  0.0937
21639SOL    HW170880   2.878   7.845  10.992 -0.1062 -0.6476  1.2139
21639SOL    HW270881   2.963   7.772  10.891 -0.8962 -0.2636  0.2631
21640SOL     OW70882   2.497   5.197   8.347  0.2053 -0.4303  0.5481
21640SOL    HW170883   2.590   5.219   8.359  0.1786 -0.6969  1.3625
21640SOL    HW270884   2.467   5.176   8.436 -0.4019 -1.2415  0.1553
21641SOL     OW70885   1.998   6.445   5.267 -0.2734  0.1242 -0.6982
21641SOL    HW170886   2.025   6.531   5.233  0.5363  0.4080  0.5758
21641SOL    HW270887   2.077   6.409   5.307 -0.6186 -1.2104 -1.1631
21642SOL     OW70888   0.007   4.163   3.320  0.0425 -0.1802 -0.2339
21642SOL    HW170889  -0.022   4.140   3.232 -0.0202 -0.7343 -0.0728
21642SOL    HW270890   0.040   4.252   3.312  1.0371 -0.6055 -1.0438
21643SOL     OW70891   3.510   4.849   3.702 -0.1970  0.2154 -0.2091
21643SOL    HW170892   3.530   4.780   3.638  1.2622  0.0669  0.3564
21643SOL    HW270893   3.434   4.817   3.750 -1.8404  0.6819 -2.3477
21644SOL     OW70894   9.681   2.049   1.839 -0.7992 -0.7987  1.1377
21644SOL    HW170895   9.592   2.020   1.857 -1.4948  1.1011  0.9432
21644SOL    HW270896   9.689   2.043   1.743 -0.2425 -2.1463  1.2326
21645SOL     OW70897   9.468  12.080   9.272 -0.0280 -0.3721 -0.3887
21645SOL    HW170898   9.394  12.140   9.271  1.0543  1.0161 -0.5869
21645SOL    HW270899   9.455  12.027   9.351 -0.4902  0.8046  0.3555
21646SOL     OW70900   9.625   6.937   6.030 -0.3439 -0.0836  0.7310
21646SOL    HW170901   9.543   6.981   6.006  1.0984  1.8051 -1.0195
21646SOL    HW270902   9.611   6.846   6.004 -0.5990  0.9352 -3.2589
21647SOL     OW70903  11.107   7.896  12.125  0.0003  0.2963 -0.1458
21647SOL    HW170904  11.107   7.986  12.090 -0.0086  0.3543  0.0027
21647SOL    HW270905  11.200   7.878  12.142  0.1775 -0.2727 -1.5751
21648SOL     OW70906   7.821   1.924   4.552 -0.1456  0.2275 -0.0630
21648SOL    HW170907   7.893   1.883   4.601 -0.7668 -1.0604 -0.2147
21648SOL    HW270908   7.770   1.970   4.619 -0.2488 -0.4338  0.3120
21649SOL     OW70909   5.684   7.591  12.086 -0.2124 -0.6275  1.0825
21649SOL    HW170910   5.698   7.503  12.051  0.9883 -0.5941  1.4191
21649SOL    HW270911   5.674   7.646  12.009 -0.1835 -0.9403  0.8516
21650SOL     OW70912   8.976   2.537   1.095 -0.3545  0.1875 -0.4631
21650SOL    HW170913   9.043   2.587   1.143 -1.1774 -0.0658  1.0060
21650SOL    HW270914   9.025   2.467   1.052  0.2581 -0.5811  1.3835
21651SOL     OW70915   3.664  11.226   1.429  0.6254 -0.5026 -0.1217
21651SOL    HW170916   3.593  11.175   1.468  1.6607 -1.1667  0.9446
21651SOL    HW270917   3.630  11.316   1.425 -0.3196 -0.8352  0.2340
21652SOL     OW70918   7.832   3.681   5.896 -0.9345 -0.4181  0.0194
21652SOL    HW170919   7.847   3.754   5.836 -2.1098  0.4157  0.7107
21652SOL    HW270920   7.913   3.630   5.892 -0.0159  1.0180 -0.3292
21653SOL     OW70921   5.648   7.923   8.249  0.3925 -0.3774 -0.1080
21653SOL    HW170922   5.641   7.908   8.155  1.2157 -2.2260  0.0851
21653SOL    HW270923   5.558   7.940   8.277 -0.0133 -0.8636 -1.0716
21654SOL     OW70924  12.174  11.707   3.031  0.3847  0.0504 -0.2519
21654SOL    HW170925  12.231  11.765   2.981 -0.6532  0.7352 -0.6838
21654SOL    HW270926  12.172  11.746   3.119 -0.0043  0.4597 -0.4384
21655SOL     OW70927   5.540   2.436   0.010 -0.6264  0.0348 -0.1821
21655SOL    HW170928   5.521   2.345  -0.009 -2.5288  0.1598  0.9837
21655SOL    HW270929   5.549   2.477  -0.077 -0.6138 -1.0698 -0.7112
21656SOL     OW70930  11.356   2.155   4.029 -0.8040 -0.4088 -0.2009
21656SOL    HW170931  11.359   2.091   4.100  0.6788  0.8462  0.9164
21656SOL    HW270932  11.446   2.162   3.998 -1.3172 -0.4894 -1.8642
21657SOL     OW70933  12.478  10.333   7.941 -0.3178 -0.7542  0.0568
21657SOL    HW170934  12.434  10.410   7.905 -0.4892 -1.6527 -1.7477
21657SOL    HW270935  12.560  10.367   7.977 -0.1587  0.2117 -1.1602
21658SOL     OW70936   9.304   1.859   3.465 -0.3401 -0.1529  0.2057
21658SOL    HW170937   9.332   1.821   3.549 -1.5821 -1.5659  0.0056
21658SOL    HW270938   9.384   1.862   3.413 -0.1368 -2.3611  0.3091
21659SOL     OW70939   5.043   2.836   0.487 -0.2000  0.1521 -0.2880
21659SOL    HW170940   5.124   2.837   0.436  0.2515  1.8817  0.3890
21659SOL    HW270941   5.056   2.904   0.554 -2.1152  0.3031 -0.0203
21660SOL     OW70942   1.809   9.992   3.621 -0.1817 -0.1930 -0.4267
21660SOL    HW170943   1.789   9.898   3.629  0.3324 -0.1670  2.3140
21660SOL    HW270944   1.878   9.996   3.555  0.4108 -1.8648  0.0442
21661SOL     OW70945   9.766   3.889   5.861  0.6512 -0.4269 -0.5180
21661SOL    HW170946   9.791   3.825   5.927  0.3883 -0.0811 -0.0747
21661SOL    HW270947   9.773   3.843   5.778 -0.6261 -1.3748 -0.1304
21662SOL     OW70948   5.433   0.960  10.574 -0.0558 -0.2248  0.5991
21662SOL    HW170949   5.425   0.891  10.640 -1.0370  0.0861  0.8215
21662SOL    HW270950   5.460   0.914  10.494  0.6109 -0.6762  1.0831
21663SOL     OW70951   2.577   4.069   3.477 -0.1844  0.0961 -0.7888
21663SOL    HW170952   2.611   3.993   3.525 -4.2782 -0.3739  1.8558
21663SOL    HW270953   2.534   4.031   3.400 -1.8918 -0.3965  0.3324
21664SOL     OW70954   8.839   3.119  10.511  0.0640  0.7978 -0.3084
21664SOL    HW170955   8.758   3.099  10.464 -0.2360 -0.7981  0.8262
21664SOL    HW270956   8.907   3.118  10.443  0.0171 -3.6968 -0.5553
21665SOL     OW70957  10.666   8.103   2.368 -1.2813  0.2233 -0.4760
21665SOL    HW170958  10.600   8.167   2.395 -0.4166  0.5112  1.0573
21665SOL    HW270959  10.719   8.149   2.303 -0.0353  1.5088  1.3335
21666SOL     OW70960   8.529  10.253  10.392  0.6662  0.4366 -0.1805
21666SOL    HW170961   8.591  10.315  10.354 -0.1340  2.0630  1.0657
21666SOL    HW270962   8.549  10.252  10.485  0.8795 -1.5060 -0.1952
21667SOL     OW70963  11.959   9.106   0.353 -0.8108  0.8333  0.4838
21667SOL    HW170964  11.949   9.011   0.363 -0.6502  0.8409  0.7382
21667SOL    HW270965  11.900   9.129   0.281 -0.4011  0.4489  0.0150
21668SOL     OW70966   6.674   6.335   2.548  0.2215 -0.4361 -0.0588
21668SOL    HW170967   6.595   6.382   2.521 -0.3260 -1.8248 -0.9841
21668SOL    HW270968   6.745   6.382   2.505 -0.3250 -0.5432 -1.1113
21669SOL     OW70969   9.860  11.352   3.982  0.3144  0.3871  1.2548
21669SOL    HW170970   9.841  11.358   4.075  0.6768 -0.8727  1.4324
21669SOL    HW270971   9.853  11.258   3.962  0.2144  0.6340  0.0131
21670SOL     OW70972   6.620   8.396   1.650 -0.9544 -0.0937 -0.4048
21670SOL    HW170973   6.681   8.454   1.605  1.2667 -2.2420 -0.3773
21670SOL    HW270974   6.533   8.423   1.619  0.2035  0.9258 -3.0613
21671SOL     OW70975   0.209   3.503   8.792 -0.5741 -0.0496 -0.2991
21671SOL    HW170976   0.175   3.584   8.828  1.0807 -0.3814  2.2757
21671SOL    HW270977   0.189   3.437   8.858 -1.1146 -1.5960 -1.9278
21672SOL     OW70978  10.038  10.085  10.214  0.4372  0.3745 -0.3368
21672SOL    HW170979  10.109  10.095  10.277 -0.3079  0.5468  0.4880
21672SOL    HW270980  10.013  10.175  10.191 -0.3668  0.3497  0.3711
21673SOL     OW70981  12.072   0.297   9.025  0.1532 -0.0183 -0.5045
21673SOL    HW170982  11.977   0.286   9.027  0.3529 -2.2073  1.0016
21673SOL    HW270983  12.092   0.357   9.096  0.0154 -1.6180  0.9633
21674SOL     OW70984   0.426   4.933   0.610 -0.1973  0.1130 -0.1316
21674SOL    HW170985   0.376   5.014   0.600 -2.7079 -1.5485 -2.4143
21674SOL    HW270986   0.472   4.923   0.527  1.2195 -0.1600  0.6563
21675SOL     OW70987   8.144   7.469   4.667  0.1258  0.1610 -0.8751
21675SOL    HW170988   8.071   7.428   4.622  1.0443  0.7910 -3.0987
21675SOL    HW270989   8.194   7.513   4.598  1.1323  2.0265  0.8903
21676SOL     OW70990   1.537   9.201   7.022 -0.0182 -0.1173  0.0833
21676SOL    HW170991   1.500   9.232   7.105  1.8956  1.4724  0.4470
21676SOL    HW270992   1.495   9.255   6.955  0.3733  0.4991  0.3212
21677SOL     OW70993   2.445   8.356   1.546  0.3253  0.7222 -0.0545
21677SOL    HW170994   2.373   8.411   1.578 -1.9958 -1.4635 -1.1619
21677SOL    HW270995   2.476   8.402   1.467 -0.8085  1.0284 -0.3471
21678SOL     OW70996  10.174  11.660   5.200 -0.0806 -0.3367  0.8982
21678SOL    HW170997  10.220  11.577   5.193 -0.3480 -0.5417  1.4910
21678SOL    HW270998  10.094  11.648   5.149 -0.8387 -0.9675  2.1938
21679SOL     OW70999   8.339  12.428  10.269 -0.5625  0.3193  0.6650
21679SOL    HW171000   8.320  12.334  10.264 -0.1225  0.1338  2.0530
21679SOL    HW271001   8.257  12.470  10.243  0.1915 -0.3335 -3.5240
21680SOL     OW71002   8.238   9.914   5.847 -0.1195  0.5200  0.2531
21680SOL    HW171003   8.279   9.902   5.761  0.3801  1.2079  0.3821
21680SOL    HW271004   8.306   9.957   5.899 -1.0945  1.9922  0.3882
21681SOL     OW71005   0.145   8.046   4.878 -0.0176 -0.3003  0.7072
21681SOL    HW171006   0.157   7.992   4.956  3.1236 -1.2119 -0.2591
21681SOL    HW271007   0.138   7.984   4.806  1.5719  0.4847 -0.1859
21682SOL     OW71008   5.201   5.179   5.370  0.2568  0.6184  0.0958
21682SOL    HW171009   5.201   5.172   5.275  0.8875 -0.4853  0.1609
21682SOL    HW271010   5.280   5.230   5.390  0.7984 -0.1986  0.0792
21683SOL     OW71011   3.604   1.545   0.614  0.1553  0.0873 -0.7786
21683SOL    HW171012   3.675   1.484   0.635 -0.3303 -0.3966 -0.5065
21683SOL    HW271013   3.634   1.590   0.536  1.6345  1.3161  0.4381
21684SOL     OW71014   2.158   3.856   6.519  0.8192 -0.0399  0.6517
21684SOL    HW171015   2.089   3.821   6.462 -0.8856  1.7554  1.4648
21684SOL    HW271016   2.137   3.821   6.606 -0.1372  1.8202  1.2241
21685SOL     OW71017   6.563   5.092  12.235  0.2145  0.6132  0.2295
21685SOL    HW171018   6.474   5.086  12.202 -0.8852  1.3562  2.8371
21685SOL    HW271019   6.610   5.020  12.192 -2.7203 -2.5889  1.8944
21686SOL     OW71020  10.450   3.722   6.734 -0.1439 -0.0547  0.1093
21686SOL    HW171021  10.452   3.660   6.807  0.7564 -1.0444 -0.7333
21686SOL    HW271022  10.357   3.730   6.712 -0.2421 -1.4670 -0.0685
21687SOL     OW71023   5.046  11.435   0.330  0.0867 -0.5657 -0.5174
21687SOL    HW171024   4.982  11.452   0.398 -0.3204 -0.3458 -0.9547
21687SOL    HW271025   4.994  11.414   0.252  0.4531  2.3124 -1.6309
21688SOL     OW71026   0.715   2.147   0.004  0.0657  0.3521 -0.1854
21688SOL    HW171027   0.728   2.060  -0.034 -0.8675  0.8182 -1.7013
21688SOL    HW271028   0.622   2.148   0.027  0.1135  0.8804 -0.0185
21689SOL     OW71029   0.584   7.098   8.356 -0.0586 -0.2087 -0.0131
21689SOL    HW171030   0.609   7.047   8.279  1.0916 -0.2445  0.3709
21689SOL    HW271031   0.517   7.045   8.399 -0.1404 -0.5565 -0.5539
21690SOL     OW71032   6.268   5.410  12.035  0.2584  0.4133 -0.1687
21690SOL    HW171033   6.223   5.330  12.005 -0.5189 -0.2819  2.5333
21690SOL    HW271034   6.352   5.379  12.069  0.7643  1.0347 -0.8321
21691SOL     OW71035   1.116   9.748   4.020  0.3688 -0.3589  0.2827
21691SOL    HW171036   1.073   9.756   3.935  0.9021 -0.6245 -0.0157
21691SOL    HW271037   1.147   9.658   4.023  0.4368 -0.3221  0.7206
21692SOL     OW71038   9.232   9.737   3.615  0.6182 -0.1131 -0.7606
21692SOL    HW171039   9.147   9.700   3.593  0.7037 -0.6876 -0.1450
21692SOL    HW271040   9.293   9.664   3.608  0.4894 -0.6883  2.4408
21693SOL     OW71041   8.452   5.135   6.759 -0.2718 -0.1635  0.0519
21693SOL    HW171042   8.384   5.141   6.692 -1.1978 -1.7621  0.7908
21693SOL    HW271043   8.527   5.095   6.715 -1.3267 -2.4403  0.2275
21694SOL     OW71044   6.720   6.410   3.404 -0.0230 -0.5523  0.2345
21694SOL    HW171045   6.770   6.415   3.322 -1.0994  0.6723 -0.3888
21694SOL    HW271046   6.754   6.333   3.448  2.8683  0.5669  0.1677
21695SOL     OW71047   4.995   7.635   6.876  0.5950 -0.3574  0.3330
21695SOL    HW171048   4.952   7.662   6.957  1.3180 -0.5065  0.7805
21695SOL    HW271049   5.031   7.716   6.840 -1.6758  0.0979 -1.0616
21696SOL     OW71050   5.065   7.866   8.862  0.0296 -0.4902 -0.5365
21696SOL    HW171051   5.102   7.953   8.846  1.1159 -1.0855 -1.3563
21696SOL    HW271052   5.052   7.863   8.957 -1.1405  0.9826 -0.6061
21697SOL     OW71053  10.387   2.740   4.382  0.0564 -0.0285  0.1097
21697SOL    HW171054  10.348   2.738   4.295 -2.1562  2.2801  0.9153
21697SOL    HW271055  10.410   2.832   4.396  0.0910 -0.2830  2.0670
21698SOL     OW71056   0.411   7.956   5.617 -0.6461  0.2964 -0.4216
21698SOL    HW171057   0.379   7.902   5.690  0.1955 -0.1521 -0.3661
21698SOL    HW271058   0.343   8.022   5.604 -2.0064 -1.1324 -0.8918
21699SOL     OW71059   2.810   3.514   9.184  0.3317  0.8154  0.0715
21699SOL    HW171060   2.822   3.419   9.186  1.9907  1.0025  1.1502
21699SOL    HW271061   2.738   3.528   9.123  0.1727 -1.1191 -0.2461
21700SOL     OW71062   9.036   4.730   8.902  0.0866 -0.0498 -0.1908
21700SOL    HW171063   9.078   4.807   8.863 -0.8491  0.9897  0.7886
21700SOL    HW271064   9.037   4.664   8.832  1.0701  0.7781 -0.9880
21701SOL     OW71065   8.070   9.817  11.542  0.1587 -0.2371 -0.0882
21701SOL    HW171066   8.093   9.893  11.490 -0.4429  1.0313  1.4328
21701SOL    HW271067   8.015   9.851  11.612 -1.5889 -2.3268 -0.3437
21702SOL     OW71068   3.962   3.397   9.488 -0.3257 -0.3948  0.0960
21702SOL    HW171069   3.890   3.359   9.439 -0.5769 -2.1069  1.6623
21702SOL    HW271070   3.934   3.486   9.508 -1.4723 -0.6459 -0.3419
21703SOL     OW71071   9.253  11.670   4.072 -0.3167  0.1724  0.1719
21703SOL    HW171072   9.283  11.585   4.042 -0.4502 -0.7278  2.4069
21703SOL    HW271073   9.173  11.687   4.021 -0.5453 -1.2529  0.0320
21704SOL     OW71074   5.001  12.348   3.200  0.4645  0.1661 -0.5007
21704SOL    HW171075   5.019  12.279   3.136  0.8794  1.1577 -1.4743
21704SOL    HW271076   5.087  12.381   3.224  0.2283  1.9923 -1.9132
21705SOL     OW71077   1.129   2.624   6.988 -0.7204 -0.7134  0.9490
21705SOL    HW171078   1.068   2.580   7.047 -4.3519  0.9278 -1.2327
21705SOL    HW271079   1.110   2.586   6.902  2.0888 -0.7590  0.2695
21706SOL     OW71080   8.865   8.764   0.736 -0.3206 -0.2779 -0.0287
21706SOL    HW171081   8.791   8.715   0.700 -0.0862 -1.7614  1.4125
21706SOL    HW271082   8.915   8.700   0.786  0.4457  1.2635  1.2843
21707SOL     OW71083   1.796   8.568   1.923  0.4637 -0.4175 -0.5428
21707SOL    HW171084   1.763   8.599   2.007  1.6822  0.4378 -0.3435
21707SOL    HW271085   1.774   8.637   1.861 -0.5283 -1.0945 -0.9671
21708SOL     OW71086   0.611   7.600   0.472  0.6325 -0.0185  0.0049
21708SOL    HW171087   0.627   7.600   0.377  2.2188  0.2535  0.2450
21708SOL    HW271088   0.691   7.563   0.510  0.4164  0.7627  1.2867
21709SOL     OW71089   4.304   4.810   7.642 -0.3896  0.4014 -0.4774
21709SOL    HW171090   4.296   4.897   7.682 -1.1427  0.7316 -1.3111
21709SOL    HW271091   4.243   4.756   7.692  0.0747  0.3429  0.0385
21710SOL     OW71092   2.368   1.791   6.008 -0.0746 -0.0472 -0.0117
21710SOL    HW171093   2.375   1.778   6.103 -1.2088 -1.1345 -0.0454
21710SOL    HW271094   2.314   1.869   5.999  0.4307  0.3325  0.2382
21711SOL     OW71095   8.451   6.022   8.690  0.6634 -0.8625 -0.3684
21711SOL    HW171096   8.436   6.047   8.599  1.4474  0.6758 -0.1100
21711SOL    HW271097   8.369   5.981   8.718 -0.1837  0.1616 -1.2821
21712SOL     OW71098   4.873   3.529   5.740  0.0109 -0.2252 -0.3785
21712SOL    HW171099   4.842   3.477   5.666 -0.1132 -1.4715  0.5273
21712SOL    HW271100   4.844   3.618   5.720  1.0733 -0.2910 -2.4270
21713SOL     OW71101  10.153  11.241  11.025 -0.7802 -0.5921 -0.2497
21713SOL    HW171102  10.196  11.325  11.009 -1.1039 -0.7989 -2.4715
21713SOL    HW271103  10.091  11.260  11.095 -1.1528  1.1620 -0.9970
21714SOL     OW71104  10.846   1.560   8.159 -0.6907  0.7454  0.2221
21714SOL    HW171105  10.782   1.492   8.181  0.5653 -0.8375 -0.7772
21714SOL    HW271106  10.837   1.572   8.065  2.7923 -2.2110 -0.7300
21715SOL     OW71107   8.237   5.776  10.135 -0.3963  0.7661 -0.0416
21715SOL    HW171108   8.212   5.722  10.061 -2.3080 -0.0060  1.1091
21715SOL    HW271109   8.154   5.802  10.176  0.5870  1.3069  1.7337
21716SOL     OW71110   1.433   0.528   7.040 -0.1272 -0.3684  0.2607
21716SOL    HW171111   1.507   0.531   7.100  1.2741  2.5026 -1.4123
21716SOL    HW271112   1.453   0.455   6.981  0.0355 -1.2339  1.3667
21717SOL     OW71113   4.975   1.806   7.223  0.2194 -0.2507  0.2890
21717SOL    HW171114   4.984   1.868   7.295 -0.2461 -0.9275  0.9374
21717SOL    HW271115   4.888   1.823   7.187  0.5727  0.3007 -0.3288
21718SOL     OW71116   7.567   2.339   5.124  0.2633  0.1313 -0.1120
21718SOL    HW171117   7.513   2.292   5.188 -0.6125  0.8896 -0.2710
21718SOL    HW271118   7.640   2.374   5.176  0.1235 -0.1371  0.2770
21719SOL     OW71119   3.978   4.796   5.698 -0.2419 -0.3257  0.0663
21719SOL    HW171120   3.969   4.775   5.791 -0.0313 -2.6261 -0.3745
21719SOL    HW271121   3.887   4.803   5.667 -0.3160  0.8654  0.4945
21720SOL     OW71122   2.045   0.912   4.658 -0.0054 -0.4542  0.3839
21720SOL    HW171123   2.019   0.825   4.687 -0.4215 -0.3622  0.2983
21720SOL    HW271124   2.122   0.897   4.604  0.1981 -0.7212  0.7434
21721SOL     OW71125   9.646   7.098   3.826 -0.1579  0.2645 -0.2637
21721SOL    HW171126   9.592   7.062   3.756  0.9066  0.4673 -1.2235
21721SOL    HW271127   9.602   7.072   3.907 -1.4854  0.1460 -1.0071
21722SOL     OW71128   4.260   1.284   0.730 -0.2196 -0.1619 -0.1648
21722SOL    HW171129   4.296   1.320   0.648 -2.3604  1.4791 -0.4641
21722SOL    HW271130   4.280   1.350   0.796 -1.6219  0.2479 -0.1180
21723SOL     OW71131   9.191   1.015   8.006 -0.1747  0.2366  0.3744
21723SOL    HW171132   9.131   1.071   8.056  1.8665  3.0870 -0.1281
21723SOL    HW271133   9.229   1.073   7.940  0.8913 -2.2041 -1.3021
21724SOL     OW71134   5.888   9.141   2.732 -0.3719 -0.5704 -0.2493
21724SOL    HW171135   5.925   9.063   2.692 -2.8111 -1.8198 -0.2966
21724SOL    HW271136   5.958   9.206   2.729  1.7940 -2.7518 -0.1319
21725SOL     OW71137   5.324  11.154   7.878 -0.2755  0.0787  0.3751
21725SOL    HW171138   5.306  11.240   7.839 -0.9889  0.7095  2.0180
21725SOL    HW271139   5.403  11.169   7.930  0.2015 -0.5534 -0.1465
21726SOL     OW71140   1.694   7.565   1.458 -0.0676 -0.5031 -0.3151
21726SOL    HW171141   1.724   7.603   1.376 -0.1417  0.7038  0.1893
21726SOL    HW271142   1.761   7.591   1.522 -0.6695 -0.3077  0.2477
21727SOL     OW71143   5.223   8.579   1.579  0.5344  0.2905  0.5505
21727SOL    HW171144   5.139   8.608   1.614 -0.4827 -0.1939 -1.3524
21727SOL    HW271145   5.257   8.517   1.644 -0.9632 -0.1111  0.9812
21728SOL     OW71146   1.830   9.810   2.948 -0.1276 -0.1758 -0.3635
21728SOL    HW171147   1.887   9.872   2.992  0.4502  0.0718 -1.4419
21728SOL    HW271148   1.743   9.827   2.985  0.2198  0.5046  0.1536
21729SOL     OW71149   2.437   1.907   0.791 -0.4110 -0.5670 -1.5453
21729SOL    HW171150   2.354   1.910   0.744 -1.4078 -2.7723 -0.0888
21729SOL    HW271151   2.427   1.835   0.854  2.3103 -0.3838 -0.7553
21730SOL     OW71152  12.394  11.471   2.898  0.3145  0.0278 -0.1122
21730SOL    HW171153  12.470  11.528   2.913  0.7828 -0.2471 -1.2993
21730SOL    HW271154  12.329  11.528   2.856  0.2869 -0.0003 -0.1083
21731SOL     OW71155   7.291   0.696   2.836  0.3888  0.5465  0.4235
21731SOL    HW171156   7.288   0.673   2.929  0.0994  1.7598  0.7370
21731SOL    HW271157   7.213   0.749   2.821  1.1880  1.6235 -0.1365
21732SOL     OW71158   2.077   7.906   7.378 -0.2904 -0.1552  0.2236
21732SOL    HW171159   2.088   7.894   7.284 -1.1737 -1.1651  0.2315
21732SOL    HW271160   2.127   7.835   7.418  1.0444  0.9393  0.5841
21733SOL     OW71161   4.652   0.621  12.002 -0.0847 -0.1106  0.0303
21733SOL    HW171162   4.582   0.594  11.942  0.2621  2.4347 -1.6757
21733SOL    HW271163   4.607   0.673  12.068  0.0834  0.9527 -0.6781
21734SOL     OW71164   6.621  10.260   8.216 -0.1848  0.6616  0.0751
21734SOL    HW171165   6.550  10.284   8.276  0.5021  0.1081  1.1468
21734SOL    HW271166   6.673  10.339   8.207 -0.6991  0.9532 -0.3825
21735SOL     OW71167   7.019   9.872  10.836 -0.2415 -0.1287  0.0595
21735SOL    HW171168   7.052   9.961  10.850  0.2042 -0.4811  1.4026
21735SOL    HW271169   6.962   9.879  10.759  2.7268  0.5770 -2.2803
21736SOL     OW71170  11.007   4.796   2.047  0.0183 -0.2323 -0.1644
21736SOL    HW171171  10.940   4.860   2.073 -0.6912 -0.6567 -0.8914
21736SOL    HW271172  11.057   4.840   1.979  0.8276  0.2761  0.7378
21737SOL     OW71173   6.951   2.711   9.090  0.0585 -0.2556 -0.0739
21737SOL    HW171174   6.892   2.667   9.029 -1.4685 -0.6397  1.5919
21737SOL    HW271175   6.906   2.793   9.111  2.1126  1.4579 -1.9040
21738SOL     OW71176  11.056   0.695   4.805  0.5849 -0.5444  0.1730
21738SOL    HW171177  10.969   0.719   4.773  1.3369 -0.5263 -2.0202
21738SOL    HW271178  11.078   0.764   4.868 -1.0846 -0.7428  1.0548
21739SOL     OW71179   9.782   0.945   9.436  0.2652  0.1809 -0.1288
21739SOL    HW171180   9.862   0.903   9.465  0.2796  0.6764  0.5875
21739SOL    HW271181   9.720   0.932   9.508 -0.7140 -1.2675 -1.1616
21740SOL     OW71182  10.994   4.453   5.811 -0.4424  0.4783 -0.4925
21740SOL    HW171183  10.901   4.461   5.830 -0.3924 -0.7799  0.4262
21740SOL    HW271184  11.002   4.371   5.761  0.3869 -0.6630  1.3896
21741SOL     OW71185   5.969   5.644   7.943  0.1519 -0.3663 -0.2312
21741SOL    HW171186   5.972   5.694   8.024  2.1837 -0.7863  0.0100
21741SOL    HW271187   6.024   5.567   7.960  0.0960 -0.7900 -1.7893
21742SOL     OW71188   1.742   9.909  11.561  0.3779 -0.7508 -0.7741
21742SOL    HW171189   1.775   9.934  11.647  0.0937 -3.0334  0.0643
21742SOL    HW271190   1.814   9.861  11.520  0.2417 -0.3460 -1.5084
21743SOL     OW71191   6.179  12.249   4.278  0.3113 -0.3401 -0.3360
21743SOL    HW171192   6.196  12.286   4.191  0.1642 -1.1270 -0.7030
21743SOL    HW271193   6.084  12.255   4.288  0.3119 -0.4097 -0.2947
21744SOL     OW71194   0.496   0.148   6.498 -0.1365  0.1487  0.0703
21744SOL    HW171195   0.542   0.100   6.567 -1.0682  0.0566  0.6443
21744SOL    HW271196   0.422   0.189   6.543 -1.2298 -0.5638 -1.0117
21745SOL     OW71197   7.206   1.151  12.415  0.0431  0.2058  0.1030
21745SOL    HW171198   7.117   1.158  12.382  0.3505 -0.1948 -0.8765
21745SOL    HW271199   7.221   1.056  12.424  0.1638  0.2897  0.8647
21746SOL     OW71200   5.612  11.618   3.397  0.1825  0.1257  0.9759
21746SOL    HW171201   5.672  11.687   3.423  0.4293  0.3081 -0.0502
21746SOL    HW271202   5.585  11.640   3.308 -1.0875 -0.1752  1.2525
21747SOL     OW71203   1.283   5.100   2.136  0.5205  0.0758 -0.4520
21747SOL    HW171204   1.342   5.109   2.061  0.5428  0.8375 -0.3501
21747SOL    HW271205   1.317   5.161   2.201  0.0952 -0.0753 -0.0834
21748SOL     OW71206   2.870  11.352  11.254 -0.2484  0.6537  0.0770
21748SOL    HW171207   2.837  11.303  11.329 -0.1827  0.3108 -0.1186
21748SOL    HW271208   2.801  11.346  11.188  0.1256  0.0745 -0.2713
21749SOL     OW71209   2.970   9.723  12.462  0.1170 -0.3402 -0.4966
21749SOL    HW171210   2.971   9.695  12.553  1.8704  2.0743  0.3480
21749SOL    HW271211   3.052   9.689  12.426  1.3391  1.8684  0.0149
21750SOL     OW71212   0.566   5.740   9.917 -0.7453 -0.1228  0.2493
21750SOL    HW171213   0.661   5.746   9.912 -0.6987 -0.9343  0.1106
21750SOL    HW271214   0.548   5.649   9.937 -1.5167 -0.1244 -0.3871
21751SOL     OW71215   5.459   1.378   4.811 -0.3173 -0.3083 -0.1442
21751SOL    HW171216   5.477   1.454   4.755 -0.7070  0.1003  0.2749
21751SOL    HW271217   5.512   1.393   4.889  0.2380 -0.8870 -0.3947
21752SOL     OW71218   1.427  10.522   3.036 -0.1631 -0.1674 -0.3618
21752SOL    HW171219   1.517  10.550   3.053 -0.6493  0.5179  1.3429
21752SOL    HW271220   1.436  10.446   2.979  1.4864 -0.0863 -0.2715
21753SOL     OW71221  12.333   9.524   2.829  0.4909  0.1525  0.5363
21753SOL    HW171222  12.351   9.482   2.913  0.3070  0.1068  0.5531
21753SOL    HW271223  12.385   9.476   2.765 -2.4315 -2.5073 -0.0715
21754SOL     OW71224  11.314   0.767   6.520 -0.7035  0.0088 -0.3640
21754SOL    HW171225  11.250   0.764   6.449 -0.5444 -0.1565 -0.5003
21754SOL    HW271226  11.349   0.856   6.517  0.5491 -0.4950 -1.5950
21755SOL     OW71227  11.296   8.800   0.991 -0.5632 -0.4716 -0.4787
21755SOL    HW171228  11.205   8.822   1.010 -0.2781  0.7713 -0.4912
21755SOL    HW271229  11.301   8.705   1.004 -1.1898 -0.2150  2.4784
21756SOL     OW71230   4.563   0.373  12.148  0.5994  0.1164  0.3234
21756SOL    HW171231   4.645   0.376  12.099 -0.3522  0.4335 -1.3104
21756SOL    HW271232   4.557   0.283  12.179  0.7842 -0.3724 -0.9840
21757SOL     OW71233   8.590   0.864   1.141 -0.1041  0.2096 -0.1200
21757SOL    HW171234   8.609   0.773   1.165  0.8093  0.7953  1.5385
21757SOL    HW271235   8.566   0.906   1.223 -0.1449  1.5728 -0.8033
21758SOL     OW71236   2.422   7.542   7.625 -0.0696 -0.5389  0.5713
21758SOL    HW171237   2.429   7.494   7.707 -0.9037  0.5471  1.3053
21758SOL    HW271238   2.494   7.508   7.571 -0.8034 -2.8148  0.9224
21759SOL     OW71239   9.327   9.702   4.961 -0.3128 -0.3464  0.1780
21759SOL    HW171240   9.279   9.643   4.903 -0.4127 -0.2972  0.2111
21759SOL    HW271241   9.332   9.784   4.911 -1.8889  0.2446  0.9236
21760SOL     OW71242   1.874   2.457  11.925  0.1083  0.5549  0.2337
21760SOL    HW171243   1.790   2.420  11.953  0.0610  1.1644  0.9456
21760SOL    HW271244   1.881   2.434  11.832 -0.4718 -0.1837  0.3662
21761SOL     OW71245  11.010  10.501   2.281 -0.4946  0.2263 -0.0986
21761SOL    HW171246  11.061  10.427   2.315  0.9423  0.1842 -2.2212
21761SOL    HW271247  10.944  10.460   2.224 -0.8481  0.4947  0.1110
21762SOL     OW71248   5.581   0.684   6.758  0.8433  0.1986  0.4660
21762SOL    HW171249   5.638   0.761   6.748 -0.9160  1.4267 -0.6830
21762SOL    HW271250   5.513   0.712   6.820 -1.6783  0.8283 -2.3625
21763SOL     OW71251   8.911   2.792   8.445 -0.2009 -0.3993  0.7767
21763SOL    HW171252   8.978   2.790   8.377 -1.6832 -1.8607 -0.7309
21763SOL    HW271253   8.902   2.885   8.467  0.9330  0.0190 -0.3823
21764SOL     OW71254  10.183   6.211   4.019  0.2844  0.2323  0.6102
21764SOL    HW171255  10.164   6.254   3.936 -0.3899 -1.0910  0.0475
21764SOL    HW271256  10.256   6.260   4.055 -0.5370  1.9238  0.0831
21765SOL     OW71257   5.413  10.919   1.276  0.1521 -0.1006  0.3779
21765SOL    HW171258   5.407  10.869   1.357  0.4835  0.2473  0.6187
21765SOL    HW271259   5.467  10.995   1.298 -0.3915  0.3954  0.0307
21766SOL     OW71260   2.694   8.935  11.222 -0.1821 -0.1010  0.0523
21766SOL    HW171261   2.687   9.030  11.206  1.2558  0.4726  2.3812
21766SOL    HW271262   2.783   8.913  11.196 -0.2790 -0.6755  0.1928
21767SOL     OW71263   4.388   9.743   6.160 -0.2038 -0.5122  0.5904
21767SOL    HW171264   4.407   9.682   6.088  0.7517 -0.0673  0.4467
21767SOL    HW271265   4.336   9.812   6.119  1.0252  0.1612  0.1205
21768SOL     OW71266   3.059  10.837  12.334 -0.5487 -0.1122 -0.0325
21768SOL    HW171267   3.104  10.811  12.254 -0.3677  3.6018 -1.3728
21768SOL    HW271268   2.969  10.807  12.322 -0.3597 -0.2129 -1.3199
21769SOL     OW71269   1.825  11.563   0.430 -0.0363  0.4275 -0.2901
21769SOL    HW171270   1.848  11.472   0.412  0.3883  0.6089 -0.6750
21769SOL    HW271271   1.858  11.611   0.355  0.7459  1.0513  0.4437
21770SOL     OW71272  12.283   6.834   9.458  0.5338 -0.4430  0.3317
21770SOL    HW171273  12.278   6.922   9.495 -0.4469  0.1443 -1.1355
21770SOL    HW271274  12.369   6.830   9.417 -0.1428  0.5741 -1.2949
21771SOL     OW71275   6.938   1.060   2.184 -0.1866 -0.1006  0.2850
21771SOL    HW171276   6.929   1.044   2.278  0.1905 -2.1605  0.0354
21771SOL    HW271277   6.994   1.137   2.177  1.7058 -1.2431  1.8042
21772SOL     OW71278  11.804   2.209   4.564  0.6132  0.0586 -0.9136
21772SOL    HW171279  11.768   2.166   4.642 -1.4242 -1.1914 -2.4345
21772SOL    HW271280  11.864   2.276   4.599 -0.3653 -0.2978  1.7003
21773SOL     OW71281   3.059   5.045   2.941  0.5688 -0.3023  0.0378
21773SOL    HW171282   3.132   5.093   2.981 -0.2767 -0.1191  1.4335
21773SOL    HW271283   3.078   4.953   2.959  1.3127 -0.3907 -1.1210
21774SOL     OW71284  12.284   9.546  10.602  0.2924  0.3585 -0.1413
21774SOL    HW171285  12.197   9.518  10.630  0.0637 -0.0648 -1.1995
21774SOL    HW271286  12.293   9.636  10.634 -0.8763  0.6996 -0.7187
21775SOL     OW71287   8.639  12.447   6.362  0.3488 -0.0461 -0.0405
21775SOL    HW171288   8.652  12.359   6.397 -2.3001 -0.2914  0.5920
21775SOL    HW271289   8.654  12.505   6.436  0.5726 -0.0922 -0.0499
21776SOL     OW71290   9.605   3.135   2.095 -0.1898  0.3745 -0.2808
21776SOL    HW171291   9.551   3.206   2.062 -3.1844 -1.3248  0.5873
21776SOL    HW271292   9.621   3.079   2.018 -3.1147 -1.1095  0.0717
21777SOL     OW71293   5.685   6.837   5.239 -0.2366 -0.0885  0.6710
21777SOL    HW171294   5.679   6.744   5.216  1.3900 -0.3826  1.2996
21777SOL    HW271295   5.641   6.882   5.168  0.3170 -1.2658 -0.4584
21778SOL     OW71296   2.437  11.408   3.835 -0.2251 -0.7534  0.2398
21778SOL    HW171297   2.472  11.390   3.923 -0.6238 -1.6766  0.2192
21778SOL    HW271298   2.349  11.371   3.837 -1.2337  1.4736  0.2690
21779SOL     OW71299   1.352   8.015   7.174  0.0026 -0.5367  0.3923
21779SOL    HW171300   1.427   7.959   7.195 -0.0017  0.0200  1.9669
21779SOL    HW271301   1.388   8.083   7.117  0.6310 -0.4843  0.8426
21780SOL     OW71302   9.673   4.575  10.712  0.3437  0.5982 -0.1428
21780SOL    HW171303   9.620   4.650  10.686  1.5219  1.7419  0.5473
21780SOL    HW271304   9.612   4.502  10.719 -1.1130  1.8227  0.5129
21781SOL     OW71305  11.881   0.780   5.775 -0.6718 -0.2981  0.7811
21781SOL    HW171306  11.866   0.783   5.681  2.5753 -0.5274  0.1310
21781SOL    HW271307  11.835   0.856   5.810 -0.7570  0.6214 -1.2186
21782SOL     OW71308   8.663   5.905   4.014  0.2802  0.5647  0.3805
21782SOL    HW171309   8.634   5.908   3.923  0.4997  0.8013  0.3171
21782SOL    HW271310   8.694   5.815   4.026 -1.4801 -0.0313  0.7707
21783SOL     OW71311   2.125   7.591   8.242  0.0017  0.7524 -0.5903
21783SOL    HW171312   2.073   7.541   8.304 -0.4746 -0.5565 -1.9781
21783SOL    HW271313   2.061   7.636   8.188  0.2230 -0.6931 -2.1680
21784SOL     OW71314   0.523   4.859  12.155 -0.1934  0.0682  0.4665
21784SOL    HW171315   0.460   4.869  12.083  0.0665  1.0839  0.3617
21784SOL    HW271316   0.473   4.880  12.234 -0.2064  0.0127  0.4734
21785SOL     OW71317   9.472   7.392   8.381  0.5745 -0.8671  0.2197
21785SOL    HW171318   9.478   7.486   8.363 -0.8621 -0.7143  0.3761
21785SOL    HW271319   9.387   7.366   8.345  0.5979 -1.9431  0.8781
21786SOL     OW71320   1.728   0.694   4.547 -0.0956  0.0898  0.1595
21786SOL    HW171321   1.755   0.757   4.480  0.0835 -0.5657 -0.3937
21786SOL    HW271322   1.658   0.739   4.595  1.6712  1.6626  1.3730
21787SOL     OW71323   3.250   1.110  10.753 -0.9936 -0.1593 -0.0720
21787SOL    HW171324   3.165   1.120  10.797 -1.4117  0.4133 -0.9866
21787SOL    HW271325   3.245   1.167  10.677 -0.3013 -1.1715 -0.9153
21788SOL     OW71326  11.200   5.738   2.688  0.3738 -0.3374 -0.2295
21788SOL    HW171327  11.137   5.803   2.657  1.6302  2.6293  2.7742
21788SOL    HW271328  11.208   5.755   2.782  2.3180 -3.6000  0.3589
21789SOL     OW71329   0.398   6.640   0.431 -0.3519 -0.0910 -0.7174
21789SOL    HW171330   0.425   6.658   0.521 -1.4236 -0.0631 -0.3831
21789SOL    HW271331   0.335   6.568   0.439 -1.0455  0.4282 -1.3431
21790SOL     OW71332   8.441   2.677   8.858 -0.5794  0.1340  0.6730
21790SOL    HW171333   8.509   2.670   8.791 -0.7054  0.0141  0.5572
21790SOL    HW271334   8.372   2.729   8.816 -1.0073 -0.6193  0.4249
21791SOL     OW71335   5.409   2.772   4.189  0.6912  0.2264  0.3433
21791SOL    HW171336   5.391   2.705   4.122  0.4342  1.0480 -0.4257
21791SOL    HW271337   5.375   2.853   4.152  0.5594  0.7076  1.4768
21792SOL     OW71338   9.164   8.757   4.953 -0.2518  0.0588 -0.1459
21792SOL    HW171339   9.210   8.815   4.892 -0.1228 -1.1941 -1.3114
21792SOL    HW271340   9.233   8.722   5.009 -0.0460 -0.3413 -0.6358
21793SOL     OW71341   8.840   3.740   2.280 -0.3868  0.0445 -0.6421
21793SOL    HW171342   8.858   3.799   2.208 -0.0074  2.7741  1.5354
21793SOL    HW271343   8.921   3.690   2.292  0.1518  0.8287 -0.9993
21794SOL     OW71344   1.801   7.716   3.311  0.7538 -0.2825  0.0715
21794SOL    HW171345   1.843   7.687   3.230 -0.4706  1.0637 -1.1142
21794SOL    HW271346   1.800   7.812   3.304  0.3339 -0.1615  1.5335
21795SOL     OW71347   9.384   3.306  10.283 -0.3685  0.0112 -0.3129
21795SOL    HW171348   9.301   3.326  10.326 -0.1787 -1.2514  0.6795
21795SOL    HW271349   9.439   3.270  10.352  0.6852 -0.0600 -1.1634
21796SOL     OW71350   8.041   3.496   7.218  0.3320 -0.0731 -0.2590
21796SOL    HW171351   8.129   3.503   7.254  0.2127 -0.2728  0.0764
21796SOL    HW271352   8.041   3.553   7.141  0.3588  0.9395  0.4862
21797SOL     OW71353   2.950   8.158   3.796 -0.3181  0.2547 -0.1002
21797SOL    HW171354   2.942   8.087   3.859 -0.9027  1.3476  1.1039
21797SOL    HW271355   3.040   8.153   3.764  0.0325 -0.2300  0.9364
21798SOL     OW71356   8.292   9.674  11.146  0.3861  0.1086  0.1673
21798SOL    HW171357   8.286   9.733  11.070 -1.0727 -0.7015 -0.3749
21798SOL    HW271358   8.335   9.595  11.112  1.6868  0.5392  0.7272
21799SOL     OW71359   3.848  11.162   3.998  0.2025 -0.0891  0.0889
21799SOL    HW171360   3.936  11.125   4.008  0.3830  0.3332  0.0788
21799SOL    HW271361   3.852  11.247   4.043  0.0833  0.3705 -0.7359
21800SOL     OW71362   0.923   5.660  11.943 -0.4383 -0.7106  0.0407
21800SOL    HW171363   0.951   5.666  11.852 -1.2215  1.1948 -0.1185
21800SOL    HW271364   0.856   5.727  11.952  1.1409  0.6808  2.5579
21801SOL     OW71365   0.478   9.905   4.514  0.4102 -0.1447 -0.7558
21801SOL    HW171366   0.571   9.921   4.496  0.6765 -0.8133 -0.0710
21801SOL    HW271367   0.477   9.820   4.559 -0.1254  1.4322  2.5202
21802SOL     OW71368  10.146  11.368   8.950 -0.0529  0.1138  0.3747
21802SOL    HW171369  10.219  11.415   8.989 -0.6471 -0.5594  2.4210
21802SOL    HW271370  10.130  11.412   8.867  1.8554  1.0500  0.4708
21803SOL     OW71371   5.586   6.144   6.899  0.2777 -0.1007  0.6965
21803SOL    HW171372   5.503   6.124   6.856  0.3465 -2.4341  1.5032
21803SOL    HW271373   5.563   6.208   6.967 -0.7292 -0.1632  0.4313
21804SOL     OW71374   2.222  10.471   3.800 -0.4094 -0.3814 -0.2629
21804SOL    HW171375   2.194  10.553   3.758  0.3697  0.4756  0.8321
21804SOL    HW271376   2.266  10.422   3.731 -1.8445 -0.3782 -1.2140
21805SOL     OW71377   5.397   6.980   6.132  0.2453  0.2264  0.1677
21805SOL    HW171378   5.448   6.940   6.202 -3.2310 -1.2285  2.1233
21805SOL    HW271379   5.357   7.057   6.172  1.1816  1.6438 -1.4550
21806SOL     OW71380   3.579   0.347   1.863 -0.0361 -0.2652  0.1872
21806SOL    HW171381   3.510   0.401   1.825  0.1040 -0.6234 -0.5981
21806SOL    HW271382   3.660   0.381   1.826  0.3398  0.8005  1.8608
21807SOL     OW71383  10.972   9.561   0.714  0.0793  0.2782 -0.9653
21807SOL    HW171384  10.982   9.472   0.747 -0.4932 -0.4174 -2.5980
21807SOL    HW271385  10.890   9.592   0.753  1.2626  0.8821  1.2192
21808SOL     OW71386   7.902   0.046   9.175 -0.0338  0.8733 -0.2946
21808SOL    HW171387   7.938  -0.004   9.102  0.6787 -0.3835  0.8553
21808SOL    HW271388   7.888  -0.020   9.243  1.3033  2.2981  1.4356
21809SOL     OW71389   0.122   6.264  12.181  0.2825  0.2543 -0.1967
21809SOL    HW171390   0.069   6.184  12.184 -0.1094  0.5024 -0.3370
21809SOL    HW271391   0.135   6.281  12.087 -1.3489  1.4520 -0.2513
21810SOL     OW71392   8.902   4.204   2.817  0.2859  0.2314  0.3834
21810SOL    HW171393   8.812   4.235   2.824  0.4730  0.4221  2.3838
21810SOL    HW271394   8.924   4.170   2.904  0.5049 -4.5045 -1.2045
21811SOL     OW71395   2.383   6.009   6.603 -0.5143  0.3698  0.1942
21811SOL    HW171396   2.469   6.005   6.563 -1.0663 -0.1099 -0.9955
21811SOL    HW271397   2.359   5.918   6.620 -1.6203  0.3176 -1.4098
21812SOL     OW71398  10.076  10.567   1.641  0.0119 -0.3288  0.2373
21812SOL    HW171399   9.989  10.607   1.648 -0.2639 -0.5468 -1.4253
21812SOL    HW271400  10.065  10.498   1.575  1.4483 -0.3755  0.0161
21813SOL     OW71401   4.470   4.175  10.762 -0.2433 -0.0915 -0.3472
21813SOL    HW171402   4.395   4.117  10.775 -0.0989 -0.3013 -0.4365
21813SOL    HW271403   4.511   4.142  10.682 -0.7000  0.7186 -0.9243
21814SOL     OW71404   3.654   6.022  11.929 -0.4987  0.0285  0.4099
21814SOL    HW171405   3.580   5.962  11.922 -0.2060 -0.2399 -0.4946
21814SOL    HW271406   3.619   6.099  11.974 -1.2348 -0.2410  0.2990
21815SOL     OW71407   1.589   1.369   7.639 -0.3046 -0.4669  0.0956
21815SOL    HW171408   1.587   1.339   7.730 -0.9386 -0.2143  0.1709
21815SOL    HW271409   1.675   1.411   7.629 -0.5146  0.1577  0.7981
21816SOL     OW71410  10.438   6.502   9.423 -0.6009 -0.1941  0.0876
21816SOL    HW171411  10.359   6.464   9.383 -2.6111  1.9724  1.6862
21816SOL    HW271412  10.419   6.501   9.517  0.9288  1.1328  0.4434
21817SOL     OW71413   4.923   7.816   2.881 -0.2371  0.3342 -0.2639
21817SOL    HW171414   4.853   7.751   2.877 -1.3533  1.5222 -0.2867
21817SOL    HW271415   4.896   7.885   2.821  0.3204  1.4248  0.7093
21818SOL     OW71416   6.486   6.039   0.082  0.3511 -0.0009 -0.5053
21818SOL    HW171417   6.542   5.977   0.034  1.0081 -0.7433  1.1616
21818SOL    HW271418   6.538   6.064   0.158 -1.0526  0.3735  0.3615
21819SOL     OW71419  11.600   3.791   0.191  0.0962 -0.2561  0.2697
21819SOL    HW171420  11.683   3.768   0.234 -0.4360 -1.1235  0.8570
21819SOL    HW271421  11.582   3.717   0.133  0.1703  0.3343 -0.5150
21820SOL     OW71422   7.259   2.561   0.271 -0.8164 -0.3516 -0.4089
21820SOL    HW171423   7.235   2.481   0.318 -0.1583  0.5329  1.4920
21820SOL    HW271424   7.256   2.630   0.337 -0.0104  0.9754 -1.7065
21821SOL     OW71425   7.432   5.325   8.838 -0.0878 -0.1553  0.3858
21821SOL    HW171426   7.406   5.393   8.776  1.0300 -1.0284 -1.1213
21821SOL    HW271427   7.385   5.346   8.918 -0.7581  1.6408 -0.4267
21822SOL     OW71428   3.078   6.221   4.130 -0.3414 -0.1101 -0.0111
21822SOL    HW171429   3.149   6.242   4.190  1.4820  0.3176 -2.1844
21822SOL    HW271430   3.119   6.170   4.061 -2.0748  0.4149 -1.5216
21823SOL     OW71431   1.490   3.030   0.101 -0.0091 -0.4316 -0.5989
21823SOL    HW171432   1.398   3.057   0.096 -0.1731  0.2646  3.2381
21823SOL    HW271433   1.539   3.112   0.095  0.3511 -0.7000 -1.5905
21824SOL     OW71434  10.780   1.080   8.365  0.0856  0.1225  0.6489
21824SOL    HW171435  10.869   1.063   8.396  0.4424  1.8730  0.6911
21824SOL    HW271436  10.724   1.055   8.439  0.3918 -2.0627  0.2294
21825SOL     OW71437   0.634   9.089  11.864 -0.0124 -0.3476 -0.4152
21825SOL    HW171438   0.675   9.004  11.878  1.1034  0.4442  1.4629
21825SOL    HW271439   0.681   9.126  11.789  0.7508 -0.6499 -0.0998
21826SOL     OW71440  11.145   9.130   6.648 -0.2843  0.3770 -0.2872
21826SOL    HW171441  11.058   9.170   6.653  0.2722  1.6109 -0.2528
21826SOL    HW271442  11.151   9.076   6.727 -0.4005  1.5702  0.5541
21827SOL     OW71443   9.934   0.172  11.178 -0.3267 -0.2531  0.0013
21827SOL    HW171444   9.870   0.152  11.109 -0.5392 -1.0881  0.4309
21827SOL    HW271445   9.882   0.207  11.250 -0.0131  1.4327 -0.5508
21828SOL     OW71446   3.875  10.723   1.905  0.0721  0.4338  0.4679
21828SOL    HW171447   3.857  10.721   1.811 -0.6848 -0.8634  0.6197
21828SOL    HW271448   3.915  10.638   1.924 -0.9287  0.1784  1.5186
21829SOL     OW71449  10.348  10.765   2.554 -0.2773 -0.6197 -0.1638
21829SOL    HW171450  10.258  10.766   2.522 -0.3628 -0.7998  0.0614
21829SOL    HW271451  10.366  10.672   2.571  0.3805 -0.7333 -1.3797
21830SOL     OW71452   1.072   1.682   1.167  0.0434  0.2107  0.4840
21830SOL    HW171453   1.016   1.628   1.112 -1.1420  1.2370  0.6494
21830SOL    HW271454   1.054   1.653   1.256 -0.2112  0.5276  0.5364
21831SOL     OW71455   9.644   2.785   6.157  0.1449  0.5154 -0.6035
21831SOL    HW171456   9.640   2.691   6.139 -1.4174  0.3944  0.2309
21831SOL    HW271457   9.697   2.792   6.236  0.3239  0.3374 -0.7070
21832SOL     OW71458   8.274  12.308   1.257  0.1564  0.2713  0.1896
21832SOL    HW171459   8.287  12.299   1.351 -0.8398  1.1022  0.4238
21832SOL    HW271460   8.345  12.256   1.218  1.8697  1.5728  1.3859
21833SOL     OW71461   1.420   6.704   1.837  0.1262  0.2101 -0.1485
21833SOL    HW171462   1.362   6.633   1.864 -0.3494  0.4314 -0.5630
21833SOL    HW271463   1.386   6.781   1.883  0.7913  0.1294  0.4971
21834SOL     OW71464   2.220   0.751   1.028  0.0009  0.0343 -0.4083
21834SOL    HW171465   2.152   0.725   1.091 -0.4560  1.4167 -0.3000
21834SOL    HW271466   2.205   0.694   0.953 -0.0231 -1.0265  0.3699
21835SOL     OW71467   9.931   2.651   7.532  0.0739 -0.1112  0.0327
21835SOL    HW171468   9.988   2.704   7.477  1.9328 -0.5985  1.3885
21835SOL    HW271469   9.949   2.561   7.506 -0.9665 -0.2237 -0.3294
21836SOL     OW71470   3.851   0.967  10.866 -0.3850 -0.2907  0.1369
21836SOL    HW171471   3.796   0.981  10.943 -2.3903 -2.0228 -0.8903
21836SOL    HW271472   3.827   1.039  10.807 -0.8386 -0.4645  0.1004
21837SOL     OW71473   5.113  11.890   6.935 -0.3069 -0.6732 -0.1366
21837SOL    HW171474   5.067  11.931   6.862 -0.0943 -1.6324 -0.8280
21837SOL    HW271475   5.193  11.856   6.897 -0.4883 -1.7435  0.4050
21838SOL     OW71476   5.075   7.218  10.517 -0.4355 -0.5303  0.4399
21838SOL    HW171477   5.071   7.158  10.591 -0.3323 -1.6233 -0.4272
21838SOL    HW271478   5.167   7.216  10.490 -0.7013 -0.9835 -0.4170
21839SOL     OW71479   0.497   3.071   3.119 -0.3597 -0.3860  0.1137
21839SOL    HW171480   0.540   3.007   3.176  0.2136 -0.0997  0.0043
21839SOL    HW271481   0.452   3.018   3.054 -1.9813 -0.7783  1.4698
21840SOL     OW71482   4.743   8.071   2.220 -0.0923  0.3175  0.0188
21840SOL    HW171483   4.706   8.148   2.177 -1.8800 -1.3475 -1.6270
21840SOL    HW271484   4.824   8.054   2.173 -0.0358  0.7897 -0.0598
21841SOL     OW71485  11.206   7.132   6.347 -0.3619  0.1291 -0.0180
21841SOL    HW171486  11.192   7.179   6.429 -0.8726  0.0114 -0.0297
21841SOL    HW271487  11.224   7.042   6.374 -1.0132 -0.0182 -0.0391
21842SOL     OW71488   4.620  11.455   3.676  0.3264  0.3257 -0.6526
21842SOL    HW171489   4.563  11.531   3.684 -0.1784 -0.1468  0.3580
21842SOL    HW271490   4.702  11.490   3.641 -0.7878  0.9128 -2.8555
21843SOL     OW71491   8.287   2.588   7.847  0.5487  0.4761  0.1766
21843SOL    HW171492   8.271   2.494   7.848  3.3881 -0.1001 -0.7607
21843SOL    HW271493   8.271   2.616   7.937 -1.9759 -0.5072  0.1231
21844SOL     OW71494  10.188   1.050   7.907 -0.1533  0.4510  0.2964
21844SOL    HW171495  10.164   0.971   7.857  0.0524 -0.2726  1.3155
21844SOL    HW271496  10.106   1.096   7.921 -0.3732  0.0570  0.3086
21845SOL     OW71497   3.676   7.031   0.039  0.4199  0.2516  0.3442
21845SOL    HW171498   3.704   7.033   0.130  0.7389  2.1065  0.2383
21845SOL    HW271499   3.582   7.047   0.042 -0.0425 -2.1041  0.4506
21846SOL     OW71500   1.470   6.494   7.753 -0.1309 -0.0840 -0.1522
21846SOL    HW171501   1.473   6.432   7.680 -1.9791 -0.2326 -0.1536
21846SOL    HW271502   1.392   6.468   7.802 -0.9593  2.2140 -0.1404
21847SOL     OW71503   1.228   9.402   1.041 -0.8550 -0.4435  0.2939
21847SOL    HW171504   1.148   9.451   1.060 -1.3666 -0.6202 -1.2153
21847SOL    HW271505   1.210   9.361   0.956  1.7503  1.5096 -1.3453
21848SOL     OW71506  10.895  10.732   8.893  0.4062  0.0644  0.4035
21848SOL    HW171507  10.876  10.786   8.970 -1.2459 -2.1045  1.6298
21848SOL    HW271508  10.934  10.652   8.929  0.1590 -0.7583 -1.0777
21849SOL     OW71509   8.610   5.092  10.342  0.5638  0.0969  0.3144
21849SOL    HW171510   8.557   5.060  10.269  0.9793 -0.4115  0.2251
21849SOL    HW271511   8.680   5.142  10.300  0.7359 -0.0970  0.3708
21850SOL     OW71512   2.717   7.935   7.105 -0.3965 -0.2536  0.0579
21850SOL    HW171513   2.802   7.973   7.084 -1.2211  0.9947 -1.2933
21850SOL    HW271514   2.706   7.863   7.043 -0.3843 -0.3022  0.1125
21851SOL     OW71515   5.108   3.062   6.524 -0.0945 -0.1229  0.1474
21851SOL    HW171516   5.021   3.082   6.490  0.3025 -0.0181 -0.8325
21851SOL    HW271517   5.115   2.967   6.519  0.5587 -0.0300 -1.6621
21852SOL     OW71518   6.786   0.706   7.860 -0.0308  0.2946  0.6658
21852SOL    HW171519   6.783   0.796   7.892 -1.1124  0.3532  0.4521
21852SOL    HW271520   6.812   0.654   7.936 -1.8932  0.5082  1.5185
21853SOL     OW71521   9.061   6.376   2.994 -0.2192 -0.4777 -0.1200
21853SOL    HW171522   8.977   6.414   2.968 -0.0495  0.1490  0.2110
21853SOL    HW271523   9.052   6.363   3.089 -0.2726 -1.2751 -0.2293
21854SOL     OW71524   6.257   8.613   1.828 -0.4837 -0.2397  0.0535
21854SOL    HW171525   6.322   8.665   1.875  0.0140 -1.7190  1.0743
21854SOL    HW271526   6.304   8.581   1.751 -0.6264  0.3368 -0.2809
21855SOL     OW71527   4.848   5.145   8.496  0.2205 -0.2143 -0.0016
21855SOL    HW171528   4.863   5.141   8.591 -0.3114  0.6161  0.1267
21855SOL    HW271529   4.840   5.053   8.470  0.8325 -0.4751  0.6743
21856SOL     OW71530   6.338  11.054   1.648 -0.1124 -0.0991 -0.2176
21856SOL    HW171531   6.399  10.982   1.638 -0.1406 -0.0317 -0.9085
21856SOL    HW271532   6.377  11.126   1.599  0.0542  0.4473  0.6976
21857SOL     OW71533   5.731   8.925   0.018  0.2675  0.6271  1.1137
21857SOL    HW171534   5.772   8.850  -0.026 -0.0011  0.5571  0.9750
21857SOL    HW271535   5.693   8.888   0.098 -1.6552  0.1798  0.0562
21858SOL     OW71536   4.228   8.785   3.567 -0.3455 -0.1421  0.5030
21858SOL    HW171537   4.243   8.811   3.476 -1.2578  0.9452  0.6458
21858SOL    HW271538   4.168   8.710   3.560  0.6132 -0.9068  0.1787
21859SOL     OW71539   9.717   4.210   3.664  0.1685 -0.4973 -0.2620
21859SOL    HW171540   9.630   4.250   3.668  0.5869  0.3641  0.5275
21859SOL    HW271541   9.700   4.116   3.664 -0.9367 -0.4569 -3.6412
21860SOL     OW71542   6.510   9.076   7.172 -0.5385 -0.0873 -0.4198
21860SOL    HW171543   6.561   9.045   7.247 -1.3011 -0.1014  0.0998
21860SOL    HW271544   6.501   9.170   7.185 -2.2586 -0.3390  0.5231
21861SOL     OW71545  10.244  10.452   1.137  0.2098 -0.0701 -0.4053
21861SOL    HW171546  10.308  10.392   1.100 -0.4995  0.1654 -2.1184
21861SOL    HW271547  10.224  10.513   1.066 -0.9015  0.6951  0.5145
21862SOL     OW71548  12.162   6.713   0.879  0.4475 -0.5598 -0.1415
21862SOL    HW171549  12.206   6.794   0.857  0.5843 -0.8573 -0.9981
21862SOL    HW271550  12.162   6.711   0.975  0.3328  0.4988 -0.1048
21863SOL     OW71551   3.830   3.645   4.125  0.1563 -0.1361 -0.5260
21863SOL    HW171552   3.817   3.698   4.046 -2.6016 -0.1657 -0.2163
21863SOL    HW271553   3.885   3.699   4.181  1.7061  0.1201 -2.2237
21864SOL     OW71554   8.260   8.806   0.841  0.6490 -0.4487  0.1370
21864SOL    HW171555   8.293   8.717   0.834  1.1009 -0.1674 -1.6152
21864SOL    HW271556   8.333   8.856   0.879 -0.4751 -1.2311  3.7482
21865SOL     OW71557   2.711  11.412   5.051  0.0903  0.3590  0.2922
21865SOL    HW171558   2.740  11.364   4.973 -2.8250 -1.6119  0.2416
21865SOL    HW271559   2.749  11.499   5.041  2.8185 -0.8664 -1.4200
21866SOL     OW71560   0.335   9.447  12.088 -0.1984 -0.0965  0.2199
21866SOL    HW171561   0.383   9.530  12.081  1.5395 -1.1969 -2.3725
21866SOL    HW271562   0.255   9.461  12.037 -0.0537  0.0648  0.0378
21867SOL     OW71563  10.991   4.805   0.884  0.0792  0.2920 -0.2208
21867SOL    HW171564  10.932   4.730   0.891  1.8148 -1.0063  1.3382
21867SOL    HW271565  11.076   4.772   0.912  1.5036  2.2175 -1.9879
21868SOL     OW71566   4.565   7.012   0.930  0.1873 -0.2919 -0.5486
21868SOL    HW171567   4.571   7.086   0.991 -1.5391 -2.6717  2.7875
21868SOL    HW271568   4.656   6.996   0.903  0.6924  2.4339 -0.7540
21869SOL     OW71569   9.627   0.426   8.725  0.5645  0.0912 -0.1017
21869SOL    HW171570   9.718   0.416   8.697  1.2937  0.1284  2.0437
21869SOL    HW271571   9.577   0.377   8.660  2.2230 -0.8460 -0.7557
21870SOL     OW71572   5.593   2.773   4.523  0.1379 -0.2986  0.2675
21870SOL    HW171573   5.584   2.739   4.612 -0.7727  1.2483  0.8064
21870SOL    HW271574   5.511   2.751   4.480 -0.0417  0.3009  0.2981
21871SOL     OW71575   3.147  11.112   9.147 -0.3501 -0.1608 -0.4866
21871SOL    HW171576   3.164  11.203   9.123  1.7964 -0.8819 -1.9617
21871SOL    HW271577   3.111  11.073   9.067 -0.8615 -0.7213  0.0063
21872SOL     OW71578   5.491   5.215   8.728 -0.0681  0.0236 -0.0181
21872SOL    HW171579   5.495   5.160   8.650  2.4575 -0.1896  0.1728
21872SOL    HW271580   5.579   5.253   8.736  0.1257 -0.7635  3.2724
21873SOL     OW71581   7.834   7.455   6.440 -0.3641 -0.2670  0.0832
21873SOL    HW171582   7.892   7.438   6.365  0.4650 -1.3581  0.9357
21873SOL    HW271583   7.820   7.549   6.438 -0.3023 -0.2514 -1.3995
21874SOL     OW71584  10.835   4.994   1.898  0.0342  0.0053  0.6061
21874SOL    HW171585  10.754   5.007   1.947 -0.1347 -1.7329  0.8459
21874SOL    HW271586  10.816   4.924   1.836  1.6064 -1.1361  1.3342
21875SOL     OW71587   2.504  12.193   2.102  0.1453  0.2909 -0.1541
21875SOL    HW171588   2.465  12.228   2.182  0.3444 -1.4007  0.7300
21875SOL    HW271589   2.438  12.207   2.034 -0.3185  1.1050  0.4513
21876SOL     OW71590   3.709   4.800  10.137  0.3181  0.0861  0.5931
21876SOL    HW171591   3.670   4.851  10.066 -1.6595 -0.2831  1.3557
21876SOL    HW271592   3.803   4.820  10.132 -0.2421  3.1574  0.3414
21877SOL     OW71593   9.534   6.979   1.621  0.6184  0.3543 -0.5438
21877SOL    HW171594   9.466   6.915   1.603  0.6797  0.2678 -0.4714
21877SOL    HW271595   9.549   7.022   1.536 -0.2142  1.0507 -0.3534
21878SOL     OW71596   3.907   7.713   9.316 -0.4247 -0.0361  0.4156
21878SOL    HW171597   3.851   7.744   9.387  0.7228 -0.2092  1.4437
21878SOL    HW271598   3.945   7.632   9.349 -1.2556 -1.1109 -1.1473
21879SOL     OW71599   3.098   9.936   3.023  0.7716  0.9586  0.2167
21879SOL    HW171600   3.178   9.911   2.976  2.1426 -0.6371  3.1351
21879SOL    HW271601   3.041   9.859   3.013  0.2319  1.4328 -0.4636
21880SOL     OW71602  10.647   3.033  11.129 -0.6913  0.2156  0.0198
21880SOL    HW171603  10.691   2.972  11.190 -0.8253 -0.1555 -0.2502
21880SOL    HW271604  10.711   3.102  11.114  0.2503 -0.8826 -1.2415
21881SOL     OW71605   9.318   7.770   7.461  0.0429 -0.0056 -0.6662
21881SOL    HW171606   9.361   7.740   7.541 -0.4049  0.6418 -0.1604
21881SOL    HW271607   9.261   7.697   7.435 -0.4401  0.0888  0.0924
21882SOL     OW71608   8.155  10.585   9.832 -0.4742 -0.0877  0.6477
21882SOL    HW171609   8.183  10.504   9.788 -0.5074 -1.2568  2.6373
21882SOL    HW271610   8.096  10.555   9.901 -0.8664  1.7123  1.1498
21883SOL     OW71611   4.007   6.297   2.096 -0.0114 -0.1094  0.5527
21883SOL    HW171612   4.041   6.383   2.123 -0.7614  0.7908 -1.2205
21883SOL    HW271613   4.047   6.235   2.157 -0.6303  1.6446  2.8570
21884SOL     OW71614   3.556   3.133   1.415 -0.2045  0.7674 -0.0974
21884SOL    HW171615   3.551   3.170   1.503  3.4984 -0.0542  0.6095
21884SOL    HW271616   3.539   3.040   1.428  1.2211  0.4962 -0.0519
21885SOL     OW71617   8.770   2.035   4.928 -0.2076  0.5686  0.2035
21885SOL    HW171618   8.766   1.944   4.898  0.4482  0.7882 -0.5801
21885SOL    HW271619   8.746   2.031   5.021  0.0541 -0.4354  0.2370
21886SOL     OW71620   3.338   3.722   8.021  0.1870  0.1511  0.4031
21886SOL    HW171621   3.300   3.708   7.934  0.2201 -0.1855  0.4409
21886SOL    HW271622   3.387   3.642   8.038 -0.9737 -0.3854  1.3257
21887SOL     OW71623   0.327   5.986   1.713  0.2459  0.2519  0.3465
21887SOL    HW171624   0.398   5.995   1.776  0.9318 -1.5295 -0.1061
21887SOL    HW271625   0.247   5.987   1.767  0.6217  1.5170  0.9272
21888SOL     OW71626   2.254   4.268   1.799 -0.0876  0.2646 -0.2730
21888SOL    HW171627   2.328   4.329   1.796 -0.3845  0.8918  2.4616
21888SOL    HW271628   2.178   4.320   1.773 -0.5752  1.6798  3.2989
21889SOL     OW71629   2.469   0.041   4.355 -0.2939 -0.1086  0.3451
21889SOL    HW171630   2.448  -0.033   4.299 -0.9170 -0.1346  0.6073
21889SOL    HW271631   2.564   0.035   4.367 -0.1869 -0.2299 -0.5131
21890SOL     OW71632  11.383   9.502   9.818  0.2009 -0.4691 -0.1158
21890SOL    HW171633  11.439   9.578   9.807 -0.1570  0.0431  1.3762
21890SOL    HW271634  11.421   9.454   9.891 -1.9877  0.6267  1.8885
21891SOL     OW71635   4.522   1.250   1.803 -0.0809 -0.1134 -0.2310
21891SOL    HW171636   4.588   1.238   1.734 -0.5675 -0.7760 -0.5845
21891SOL    HW271637   4.466   1.320   1.770 -0.2071 -0.3081 -0.4404
21892SOL     OW71638   4.418   1.251   1.183  0.1240  0.4362  0.2514
21892SOL    HW171639   4.336   1.227   1.140 -0.1051  0.5042  0.6482
21892SOL    HW271640   4.407   1.343   1.207  0.6218  0.6683 -0.3928
21893SOL     OW71641   7.542  11.213   8.811 -0.4070 -0.1000  0.5716
21893SOL    HW171642   7.616  11.157   8.836 -1.1083 -1.5524 -0.4636
21893SOL    HW271643   7.464  11.162   8.835 -1.0713  0.9149  0.6120
21894SOL     OW71644   2.989   4.425   4.788 -0.1354 -0.7367 -0.1284
21894SOL    HW171645   2.948   4.511   4.783  3.1700  0.9607 -0.8869
21894SOL    HW271646   2.946   4.381   4.861 -3.6448  0.5015 -1.2833
21895SOL     OW71647   0.037   7.145  10.363  1.0406 -0.2722 -0.7962
21895SOL    HW171648   0.098   7.102  10.424 -0.6291 -0.8801  0.5090
21895SOL    HW271649   0.034   7.086  10.288 -1.5452 -2.8649  1.1444
21896SOL     OW71650  12.483   0.108   5.685  0.5548  0.2820 -0.1597
21896SOL    HW171651  12.453   0.188   5.642 -2.5933 -0.2533  0.8083
21896SOL    HW271652  12.434   0.038   5.642  0.6437 -0.7321  1.3178
21897SOL     OW71653   0.347   8.617   2.644 -0.0986  0.8815  0.9180
21897SOL    HW171654   0.257   8.630   2.674 -0.5469  1.0535 -0.4496
21897SOL    HW271655   0.375   8.536   2.687 -0.7048  1.1048  1.7716
21898SOL     OW71656  10.085  10.653   6.636 -0.1068  0.3104  0.2331
21898SOL    HW171657  10.148  10.712   6.678  0.0269 -0.8953  1.8304
21898SOL    HW271658  10.000  10.680   6.672  0.0261 -0.8304  1.4692
21899SOL     OW71659   3.638  10.864  10.461 -0.1634 -0.2286  1.0120
21899SOL    HW171660   3.723  10.872  10.419  0.1097 -2.3709  1.0380
21899SOL    HW271661   3.622  10.950  10.499  0.7498  1.0120 -1.2433
21900SOL     OW71662  10.838  10.473   7.038  0.0168 -0.0006  0.1851
21900SOL    HW171663  10.775  10.403   7.057  1.1067 -0.9098  0.5732
21900SOL    HW271664  10.920  10.427   7.019  0.6844  1.1638  0.1445
21901SOL     OW71665  10.641   6.108   7.054  0.1472  0.7375 -0.0989
21901SOL    HW171666  10.568   6.126   6.995 -0.3615  0.2541  0.3719
21901SOL    HW271667  10.709   6.171   7.029 -0.7944  1.8561  0.1186
21902SOL     OW71668  10.420   3.324   6.401  0.5036 -0.1535 -0.1578
21902SOL    HW171669  10.380   3.338   6.487  0.7656  0.0611 -0.0720
21902SOL    HW271670  10.446   3.411   6.372 -0.6681 -0.0542 -0.9903
21903SOL     OW71671   8.162   5.062  12.058 -0.1421  0.6716 -0.2184
21903SOL    HW171672   8.221   5.129  12.093  0.0701  0.7269 -0.6711
21903SOL    HW271673   8.160   4.994  12.125 -0.2603  1.0729  0.1910
21904SOL     OW71674   3.796  10.222  10.062 -0.2332  0.5814  0.2733
21904SOL    HW171675   3.734  10.159  10.025 -0.2885  0.4857  0.5271
21904SOL    HW271676   3.768  10.232  10.153 -0.0564  0.7636  0.3068
21905SOL     OW71677   5.346   0.459   8.506 -0.2157 -0.2045 -0.3439
21905SOL    HW171678   5.282   0.488   8.442  0.5492  0.0221 -1.0167
21905SOL    HW271679   5.395   0.390   8.462  0.3265 -0.0359 -0.0112
21906SOL     OW71680   9.385   2.057  12.039  0.2512  0.3434 -0.1104
21906SOL    HW171681   9.290   2.052  12.044  0.2974  0.5457  1.3380
21906SOL    HW271682   9.403   2.107  11.959 -0.9039  1.8418  0.5294
21907SOL     OW71683  11.683   1.498   4.506  0.1088 -0.3381 -0.3238
21907SOL    HW171684  11.763   1.549   4.492  0.1099 -0.5387 -1.0667
21907SOL    HW271685  11.656   1.521   4.595  2.3874 -2.1610  0.9730
21908SOL     OW71686   3.853   5.411  10.125  0.1296  0.3125 -0.3677
21908SOL    HW171687   3.831   5.320  10.105 -1.2413  0.6876 -0.7009
21908SOL    HW271688   3.936   5.406  10.173  0.0205 -1.1124 -0.2784
21909SOL     OW71689   9.329   1.605   8.231 -0.2500 -0.2727  0.2683
21909SOL    HW171690   9.284   1.689   8.220 -1.0976 -0.7951 -0.4773
21909SOL    HW271691   9.342   1.573   8.141  2.3680  0.2139  0.4084
21910SOL     OW71692   3.508   9.736   3.451 -0.1614  0.0749 -0.4197
21910SOL    HW171693   3.462   9.653   3.442 -0.0593  0.0519 -0.7607
21910SOL    HW271694   3.532   9.760   3.361  0.8392 -0.1173 -0.2116
21911SOL     OW71695   2.065   1.943   9.348  0.0307  0.6360  0.6637
21911SOL    HW171696   2.071   1.995   9.428 -0.9467 -1.0233  1.8848
21911SOL    HW271697   1.972   1.919   9.341  0.2756 -0.1059 -0.3958
21912SOL     OW71698   9.927  10.191   8.626  0.2885  0.1612  0.1218
21912SOL    HW171699   9.900  10.277   8.593 -1.1130 -0.4963 -0.5528
21912SOL    HW271700  10.005  10.169   8.576  0.0567  0.6007 -0.4424
21913SOL     OW71701   6.539   3.445   6.829 -0.3411 -0.1524  0.5529
21913SOL    HW171702   6.511   3.535   6.819  0.5576  0.1996  1.0760
21913SOL    HW271703   6.607   3.434   6.762 -0.5207 -0.4711  0.4206
21914SOL     OW71704   0.802   0.830   0.421 -0.0167  0.5563  0.6678
21914SOL    HW171705   0.796   0.771   0.496 -0.9329  0.8792  0.8685
21914SOL    HW271706   0.780   0.916   0.457 -2.2345  0.4431 -0.2621
21915SOL     OW71707   9.145   5.678   3.666 -0.3102 -0.3981  0.6851
21915SOL    HW171708   9.208   5.663   3.595 -0.0692  3.8353 -0.2834
21915SOL    HW271709   9.183   5.634   3.741  1.1072 -2.3228 -1.0525
21916SOL     OW71710  10.113   8.770   3.886 -0.0851  0.5566 -0.2625
21916SOL    HW171711  10.147   8.702   3.944  1.3579  1.1636 -0.3491
21916SOL    HW271712  10.160   8.757   3.804 -1.4460  0.2783 -1.0163
21917SOL     OW71713   8.614   6.621   8.804 -0.3984 -0.2613 -0.3169
21917SOL    HW171714   8.576   6.707   8.788 -0.2968  0.0574  1.0035
21917SOL    HW271715   8.586   6.568   8.729  1.4846  1.5008 -2.3935
21918SOL     OW71716   5.712   0.516   6.178  0.0862  0.1020  0.1871
21918SOL    HW171717   5.693   0.433   6.220 -1.1797  0.8598  1.2127
21918SOL    HW271718   5.797   0.542   6.213  0.0840 -0.3466  0.5317
21919SOL     OW71719  11.961   0.768   7.301 -0.3108  0.3355  0.6766
21919SOL    HW171720  12.038   0.819   7.273 -0.2069  0.2848  0.8683
21919SOL    HW271721  11.908   0.831   7.349 -0.7206  0.5473 -0.0316
21920SOL     OW71722   5.977   1.459   3.423  0.0729 -0.1443 -0.5297
21920SOL    HW171723   5.909   1.525   3.408  1.2425  1.5308  1.0626
21920SOL    HW271724   6.059   1.507   3.414  1.1538 -2.2034 -2.8502
21921SOL     OW71725   3.348   1.413  11.356 -0.1135  0.5683 -0.2857
21921SOL    HW171726   3.308   1.403  11.270  0.1686 -0.4468 -0.3084
21921SOL    HW271727   3.325   1.333  11.403 -0.2898  1.1223  0.6026
21922SOL     OW71728   3.283   9.530  11.493 -0.2444  0.0038 -0.0588
21922SOL    HW171729   3.319   9.531  11.404  1.7828  0.1400  0.7117
21922SOL    HW271730   3.305   9.443  11.526  2.2179  1.0675  1.4533
21923SOL     OW71731   8.417   4.984  10.485 -0.4957  0.1726  0.2573
21923SOL    HW171732   8.461   4.916  10.537 -0.5154 -0.3463 -0.3939
21923SOL    HW271733   8.488   5.026  10.436 -0.7349 -0.9277 -1.0951
21924SOL     OW71734   8.498   4.513  11.005  0.1574 -0.3507 -0.1708
21924SOL    HW171735   8.432   4.526  11.073  0.7738  2.2150  0.0437
21924SOL    HW271736   8.448   4.517  10.923 -0.0461  1.2924 -0.0008
21925SOL     OW71737   5.064   7.846   0.172  0.8431  0.4505 -0.0919
21925SOL    HW171738   5.036   7.938   0.170 -1.6591 -0.1959  1.0415
21925SOL    HW271739   5.018   7.809   0.247  1.2309 -1.9163 -0.9420
21926SOL     OW71740   0.771  11.196   9.521 -0.1825  0.5097  0.4465
21926SOL    HW171741   0.705  11.195   9.591  0.0513 -1.7767  0.7080
21926SOL    HW271742   0.735  11.255   9.455 -2.3778 -0.4794  0.6905
21927SOL     OW71743   1.049   0.684   2.585 -0.0413  0.2150 -0.4077
21927SOL    HW171744   1.106   0.634   2.642  0.6757  1.0045 -0.4066
21927SOL    HW271745   1.000   0.619   2.535 -0.1498 -0.4721  0.5926
21928SOL     OW71746   1.033   8.107   4.813 -0.5499  0.9114 -0.8124
21928SOL    HW171747   0.956   8.110   4.755 -2.2383 -0.3228  1.1999
21928SOL    HW271748   0.999   8.136   4.898  1.0881 -0.2084  0.2665
21929SOL     OW71749   6.177  11.934   3.860 -0.4944 -0.2195 -0.1171
21929SOL    HW171750   6.204  12.010   3.912 -1.9836 -0.1417  0.6036
21929SOL    HW271751   6.116  11.971   3.795 -1.8854 -0.8794  0.7724
21930SOL     OW71752  11.717   9.001  10.570 -0.2834 -0.5708  0.0506
21930SOL    HW171753  11.811   9.015  10.573 -0.1947 -0.8843 -0.8775
21930SOL    HW271754  11.688   9.013  10.660  0.4247  0.9902  0.0974
21931SOL     OW71755   7.071   0.724   8.823  0.8257  0.2902 -0.0931
21931SOL    HW171756   7.121   0.705   8.902 -1.7719 -0.0712  1.5636
21931SOL    HW271757   7.036   0.639   8.795  2.2772  0.2862 -2.1282
21932SOL     OW71758  11.165   0.230   8.645 -0.5776  0.3988  0.2778
21932SOL    HW171759  11.220   0.269   8.577 -0.0282 -1.2643 -0.2985
21932SOL    HW271760  11.152   0.300   8.708 -0.5540  1.8188 -1.2071
21933SOL     OW71761   1.203   1.458  12.350 -0.2616 -0.5445  0.0902
21933SOL    HW171762   1.279   1.400  12.338  0.5109  0.2779  0.8660
21933SOL    HW271763   1.241   1.546  12.355 -1.2766 -0.1185  0.4060
21934SOL     OW71764   6.628   1.922   6.949  0.3030  0.2064 -0.0112
21934SOL    HW171765   6.692   1.875   6.896 -1.2220 -0.1001 -1.6760
21934SOL    HW271766   6.678   1.955   7.024  2.0062 -1.5554 -0.3003
21935SOL     OW71767  10.514   1.659   3.070  0.7442  0.4857  0.1610
21935SOL    HW171768  10.493   1.687   2.980 -0.1110 -0.4856  0.0425
21935SOL    HW271769  10.559   1.734   3.108 -0.5308  1.6307 -0.4945
21936SOL     OW71770   6.791   5.151   9.601 -0.0514 -0.2473 -0.0177
21936SOL    HW171771   6.869   5.112   9.563  0.1354  2.1819 -2.4808
21936SOL    HW271772   6.823   5.209   9.669  0.2698  0.3693 -0.6870
21937SOL     OW71773   8.824   7.060  12.116 -0.6189  0.5128  0.0630
21937SOL    HW171774   8.884   7.109  12.060 -0.4790  0.2251 -0.0379
21937SOL    HW271775   8.848   7.087  12.205  0.4262 -0.4398  0.0999
21938SOL     OW71776   2.465   0.637   0.499 -0.3144  0.0585 -0.3884
21938SOL    HW171777   2.527   0.571   0.528  0.5549  0.5971 -0.9759
21938SOL    HW271778   2.414   0.659   0.577  0.3513 -0.2640  0.1432
21939SOL     OW71779   1.642  11.003   1.315  0.4675  0.5720 -0.7048
21939SOL    HW171780   1.676  10.989   1.403 -0.7985 -0.7695 -0.3895
21939SOL    HW271781   1.587  11.081   1.322  2.2942  1.9316 -0.9064
21940SOL     OW71782  12.421   9.673   1.069 -0.4395 -0.1703  0.1562
21940SOL    HW171783  12.492   9.737   1.076  0.2173 -0.9391  0.7539
21940SOL    HW271784  12.351   9.709   1.123  0.4097 -0.5380  1.5920
21941SOL     OW71785   9.493   3.639   4.775 -0.3209  0.5852 -0.4321
21941SOL    HW171786   9.574   3.618   4.729  0.1733 -0.7108  0.9361
21941SOL    HW271787   9.512   3.719   4.823  1.0089 -0.8830  1.6789
21942SOL     OW71788  11.019  11.243   2.699 -0.7321  0.1038  0.3301
21942SOL    HW171789  10.945  11.228   2.758 -0.5466 -1.0462  0.3092
21942SOL    HW271790  11.091  11.192   2.736 -0.4256 -0.1096 -0.5155
21943SOL     OW71791   8.788  10.527  10.578 -0.1814 -0.2116  0.4883
21943SOL    HW171792   8.773  10.564  10.491 -1.7753  1.4801  1.4184
21943SOL    HW271793   8.737  10.445  10.578  1.0983 -1.0603 -0.6428
21944SOL     OW71794   8.356   0.019   4.146 -0.1691 -0.4797  0.0035
21944SOL    HW171795   8.431   0.039   4.091  1.0518 -1.1264  1.3591
21944SOL    HW271796   8.309  -0.050   4.099  0.3808 -0.4519 -0.5942
21945SOL     OW71797  11.224   0.712   5.801 -0.1165 -0.1073 -0.3836
21945SOL    HW171798  11.215   0.629   5.847 -2.0634  0.7146  0.8285
21945SOL    HW271799  11.200   0.779   5.865  0.9900  1.3932 -1.4447
21946SOL     OW71800  12.161   6.053   5.896  0.0089  0.0451 -0.0014
21946SOL    HW171801  12.227   6.010   5.841  1.6524  0.5298  1.4875
21946SOL    HW271802  12.120   5.981   5.944  0.1568 -0.1741 -0.1994
21947SOL     OW71803   4.417   5.230   5.386  0.1350 -0.9421 -0.0154
21947SOL    HW171804   4.471   5.175   5.329  0.0558 -0.9398 -0.0930
21947SOL    HW271805   4.340   5.251   5.333 -0.1533 -1.3168  0.2493
21948SOL     OW71806   8.453  10.595   6.007  0.7570  0.0205 -0.4863
21948SOL    HW171807   8.513  10.669   6.015  0.3449  0.4068 -0.9450
21948SOL    HW271808   8.369  10.628   6.040  0.7452 -0.4611 -0.0170
21949SOL     OW71809   4.950   4.396  12.076  0.2507 -0.0582 -0.2129
21949SOL    HW171810   4.950   4.419  11.984  3.2348  1.1171 -0.0415
21949SOL    HW271811   5.041   4.409  12.104 -0.6947  0.4425  3.0877
21950SOL     OW71812   8.922   3.134  12.318  0.1756  0.1748  0.4016
21950SOL    HW171813   8.829   3.157  12.311 -0.1757 -1.4966 -1.7788
21950SOL    HW271814   8.923   3.055  12.372  0.6218  1.3100  2.1465
21951SOL     OW71815   3.726   0.885   8.067  0.1026  0.4418 -0.4032
21951SOL    HW171816   3.672   0.834   8.127  0.0567  0.6776 -0.2426
21951SOL    HW271817   3.815   0.852   8.081  0.1366  0.6951  0.0099
21952SOL     OW71818  11.661   2.356   7.646 -0.5993  0.1297 -0.9878
21952SOL    HW171819  11.647   2.372   7.553  1.3656  0.6236 -1.2534
21952SOL    HW271820  11.735   2.296   7.650 -1.5096 -0.9798  0.2611
21953SOL     OW71821  10.682   3.989   2.561  0.6934  0.5883 -0.6459
21953SOL    HW171822  10.661   4.016   2.650 -0.2667 -0.1526 -0.6251
21953SOL    HW271823  10.645   4.058   2.506  1.2482  1.0241 -0.4838
21954SOL     OW71824  10.578   7.618   3.081  0.2438  0.0759 -0.4071
21954SOL    HW171825  10.601   7.537   3.127 -1.1976 -1.4610 -2.2304
21954SOL    HW271826  10.557   7.680   3.151 -0.7159 -1.7949  1.0609
21955SOL     OW71827   7.598   0.376   1.045  0.3532 -0.0468 -0.2793
21955SOL    HW171828   7.634   0.460   1.074  2.0464 -0.5603 -0.7892
21955SOL    HW271829   7.518   0.399   0.998  0.5723  1.2396 -0.0645
21956SOL     OW71830   3.200   5.997   3.524 -0.1415  0.0812  0.6691
21956SOL    HW171831   3.190   5.902   3.527 -1.3980  0.0806 -1.6376
21956SOL    HW271832   3.164   6.023   3.439 -0.1382  2.6682  1.3668
21957SOL     OW71833   4.006   7.141   9.080 -0.1265  0.4324  0.3695
21957SOL    HW171834   4.058   7.218   9.055 -0.1439 -0.1040 -1.4918
21957SOL    HW271835   4.039   7.072   9.023 -0.2589 -0.9105  1.8644
21958SOL     OW71836  10.651   0.379  10.239  0.6264 -0.1577  0.5982
21958SOL    HW171837  10.686   0.339  10.319  0.2783  0.9721  1.3346
21958SOL    HW271838  10.728   0.411  10.193  0.6563  2.7001  2.4172
21959SOL     OW71839   3.111   0.840   0.008 -0.5668  0.4225 -0.1753
21959SOL    HW171840   3.104   0.852  -0.087 -2.0879  0.7736 -0.0424
21959SOL    HW271841   3.078   0.922   0.045  0.1361  0.3337  0.6639
21960SOL     OW71842   3.915   0.958   2.177 -0.2168  0.0374 -0.1924
21960SOL    HW171843   3.889   1.047   2.151 -0.3715  0.6671  1.9789
21960SOL    HW271844   4.010   0.957   2.164 -0.3493  0.1240 -1.2822
21961SOL     OW71845  12.174   5.608  11.815 -0.6991 -0.4631 -0.3308
21961SOL    HW171846  12.129   5.540  11.765  0.6016 -2.9164  1.6204
21961SOL    HW271847  12.225   5.560  11.880  2.2774  2.2526 -0.4107
21962SOL     OW71848   9.124   2.330  10.455 -0.0712  0.1126 -0.3926
21962SOL    HW171849   9.119   2.280  10.374 -1.9274  0.9375 -0.8368
21962SOL    HW271850   9.201   2.295  10.500  0.6848 -0.7285 -2.2460
21963SOL     OW71851   6.995  10.775   9.473  0.3274 -0.2968  0.2062
21963SOL    HW171852   7.044  10.746   9.396  0.2792  0.2856 -0.0535
21963SOL    HW271853   6.905  10.749   9.455  0.2812  0.0217 -0.0337
21964SOL     OW71854  11.722   2.133  11.031 -0.6912  0.1170 -0.9387
21964SOL    HW171855  11.731   2.179  10.947 -2.5656 -0.9190 -1.7553
21964SOL    HW271856  11.710   2.202  11.095  0.0174  0.9004 -1.6201
21965SOL     OW71857   3.142   7.774   0.416 -0.1426 -0.2368  0.4494
21965SOL    HW171858   3.171   7.728   0.337  1.3807  1.9266 -0.3281
21965SOL    HW271859   3.050   7.795   0.399  0.2851  0.5872 -0.9870
21966SOL     OW71860  11.903   9.712   9.867  0.5304  0.1305  0.5092
21966SOL    HW171861  11.890   9.647   9.798  1.7268 -0.1794  0.5524
21966SOL    HW271862  11.883   9.796   9.825  2.0313  0.0270 -0.4719
21967SOL     OW71863   4.548   0.747   2.924  0.2098 -0.4004  0.0850
21967SOL    HW171864   4.623   0.688   2.929  0.6247  0.1968  1.2348
21967SOL    HW271865   4.561   0.796   2.842  1.0055 -0.4022  0.2051
21968SOL     OW71866   1.587  10.689   4.721 -0.9243  0.1533 -0.1627
21968SOL    HW171867   1.613  10.601   4.694 -0.8484 -0.0159  0.4462
21968SOL    HW271868   1.492  10.686   4.728 -1.0020  0.3751 -1.0104
21969SOL     OW71869   1.648   3.884   0.056  0.0479 -0.2449 -0.0644
21969SOL    HW171870   1.671   3.942  -0.017 -0.3539 -1.4284 -1.1843
21969SOL    HW271871   1.555   3.864   0.043  0.4291 -2.0334 -0.4331
21970SOL     OW71872  12.356   4.008   9.636 -0.4475 -0.1436  0.4913
21970SOL    HW171873  12.263   4.018   9.655 -0.4094  1.3496  0.0480
21970SOL    HW271874  12.384   4.095   9.609  1.1008 -0.5538  0.6800
21971SOL     OW71875   5.472   3.997   1.639 -0.3076  0.1165 -0.3488
21971SOL    HW171876   5.454   4.014   1.546  0.2822  1.1295 -0.2916
21971SOL    HW271877   5.389   4.014   1.683 -0.3411  0.5771 -0.5817
21972SOL     OW71878   6.858   5.188   7.462  0.1589 -0.4090 -0.2028
21972SOL    HW171879   6.850   5.222   7.552  2.1028 -0.6459  0.1138
21972SOL    HW271880   6.859   5.093   7.472 -3.0673 -0.6159 -0.8786
21973SOL     OW71881   1.424   6.895   3.854 -0.4922  0.3330  0.1652
21973SOL    HW171882   1.457   6.952   3.785  0.1797  0.0348  0.2346
21973SOL    HW271883   1.340   6.933   3.878 -1.1161 -0.0176 -1.3630
21974SOL     OW71884   4.203   2.812   8.794 -0.2286 -0.4599  0.2639
21974SOL    HW171885   4.152   2.840   8.718  1.7481 -1.4485 -1.5602
21974SOL    HW271886   4.191   2.717   8.798  1.5448 -0.7636 -0.3890
21975SOL     OW71887   0.441   8.873   2.857 -0.2493  0.2241  0.1750
21975SOL    HW171888   0.480   8.949   2.812 -1.2885  0.3436 -0.5461
21975SOL    HW271889   0.443   8.803   2.791 -0.3338 -0.0507  0.4666
21976SOL     OW71890   8.996  10.339   8.078  0.2974  0.5446 -0.1626
21976SOL    HW171891   8.906  10.317   8.052  0.2481 -1.0141  1.1564
21976SOL    HW271892   9.034  10.380   8.000 -0.0930 -3.0794 -2.5217
21977SOL     OW71893   7.800   0.495   9.285 -0.4683 -0.6449 -0.7188
21977SOL    HW171894   7.847   0.419   9.319  0.8941 -0.0296 -1.1665
21977SOL    HW271895   7.720   0.459   9.248  0.1413 -1.8648 -0.8931
21978SOL     OW71896   5.645   2.808  10.332 -0.0481 -0.8926 -0.0396
21978SOL    HW171897   5.646   2.883  10.273 -0.2788 -0.4156  0.5597
21978SOL    HW271898   5.552   2.787  10.342 -0.1535  0.1739  1.5805
21979SOL     OW71899  10.646   4.470   6.804  0.7865 -0.0580  0.6330
21979SOL    HW171900  10.717   4.437   6.749  0.6443  0.3892  0.1763
21979SOL    HW271901  10.616   4.393   6.853  0.5856 -0.5810 -0.2849
21980SOL     OW71902   2.714  12.115   9.339  0.7806  0.3166  0.1827
21980SOL    HW171903   2.805  12.089   9.326  0.5865  0.4651 -1.7003
21980SOL    HW271904   2.685  12.148   9.254 -1.5726 -1.4407  0.1795
21981SOL     OW71905   8.255   2.737   5.055 -0.2678 -0.0549 -0.4164
21981SOL    HW171906   8.218   2.809   5.105 -2.1812 -0.0456 -1.7401
21981SOL    HW271907   8.336   2.772   5.018  0.4885  0.3485  1.4970
21982SOL     OW71908   3.638   4.408  10.750  0.0988  0.2909 -0.1738
21982SOL    HW171909   3.690   4.359  10.687  0.7346  0.8487 -0.0986
21982SOL    HW271910   3.555   4.424  10.706  1.0176  1.8622 -1.4267
21983SOL     OW71911   5.525   9.091   8.201  0.1843 -0.8556 -0.0852
21983SOL    HW171912   5.528   9.180   8.167  0.3929 -0.4482  0.9627
21983SOL    HW271913   5.617   9.070   8.222 -0.0137 -0.8129  0.8901
21984SOL     OW71914   9.022   8.368  10.614 -0.3090  0.3565  0.4224
21984SOL    HW171915   8.962   8.437  10.585  0.6384 -0.0669 -2.9871
21984SOL    HW271916   9.101   8.415  10.640 -1.4453  0.8071  3.6633
21985SOL     OW71917   3.477   1.279   5.709  0.4213  0.0771 -0.0969
21985SOL    HW171918   3.420   1.204   5.690 -0.4885  0.6206  0.3666
21985SOL    HW271919   3.535   1.247   5.778 -1.5157  0.4345  1.8195
21986SOL     OW71920   0.228   0.951   0.453  0.1629  0.2401 -0.1679
21986SOL    HW171921   0.205   1.040   0.426  1.4826  0.5807 -0.2804
21986SOL    HW271922   0.149   0.900   0.439 -1.0519  1.6476  1.1484
21987SOL     OW71923   3.024  11.006  10.253 -0.8131 -0.0592  0.1351
21987SOL    HW171924   3.027  11.072  10.184 -0.4310  2.2894  2.2894
21987SOL    HW271925   2.935  10.970  10.247 -0.4952 -0.6712 -2.1505
21988SOL     OW71926   1.149   6.993   3.389  0.9565  0.0883  0.2792
21988SOL    HW171927   1.119   6.998   3.480 -0.2758 -1.0863 -0.0286
21988SOL    HW271928   1.100   7.063   3.345  0.2710 -0.4196  0.2101
21989SOL     OW71929   9.877   2.928   6.016 -0.3693 -0.4009 -0.2433
21989SOL    HW171930   9.957   2.889   6.052 -0.2595  0.9114  1.0423
21989SOL    HW271931   9.829   2.959   6.093 -1.2028  0.5273 -1.1127
21990SOL     OW71932   4.937  11.416   7.638  0.4785  0.0673 -0.6012
21990SOL    HW171933   5.016  11.440   7.687 -0.0165 -0.0787  0.2722
21990SOL    HW271934   4.952  11.325   7.612 -0.7317 -1.0797  2.3308
21991SOL     OW71935   1.856   2.039   6.258 -0.1018 -0.1931 -0.2099
21991SOL    HW171936   1.860   2.073   6.169 -0.2454  1.9829  0.5578
21991SOL    HW271937   1.816   2.110   6.309 -0.7411 -1.6828  1.4468
21992SOL     OW71938   6.111  10.554  10.383 -0.2604 -0.5733 -0.0848
21992SOL    HW171939   6.025  10.556  10.340 -1.4103 -2.0507  1.9688
21992SOL    HW271940   6.150  10.472  10.353  0.6928  0.3441 -1.4167
21993SOL     OW71941  12.221   0.833   3.526 -0.7017 -0.1979  0.7912
21993SOL    HW171942  12.189   0.867   3.442  1.5370  0.4979  0.1489
21993SOL    HW271943  12.149   0.849   3.587 -2.4257 -0.7975 -0.9843
21994SOL     OW71944   0.640  10.464   2.782  0.2930 -0.0630 -0.0573
21994SOL    HW171945   0.650  10.405   2.856  2.5064  0.4071  0.0855
21994SOL    HW271946   0.616  10.548   2.821 -0.8379 -0.3545 -0.0950
21995SOL     OW71947   8.830   5.928  10.819 -0.3888 -0.2953  0.1905
21995SOL    HW171948   8.857   6.018  10.800  1.9201 -0.8808  0.4137
21995SOL    HW271949   8.801   5.931  10.910 -0.5905  0.2768  0.1102
21996SOL     OW71950   0.508   9.886   5.268  0.3147 -0.1935  0.3644
21996SOL    HW171951   0.486   9.802   5.307  0.9352 -0.4930  0.0761
21996SOL    HW271952   0.423   9.928   5.253 -0.0370 -1.0875 -0.1957
21997SOL     OW71953   3.841  11.719   0.976  0.1134  0.3273  0.0719
21997SOL    HW171954   3.803  11.807   0.966 -0.2878  0.1856  0.3241
21997SOL    HW271955   3.800  11.685   1.056 -1.6831 -1.0817 -1.3518
21998SOL     OW71956   1.776   9.018   5.936  0.6458 -0.0749 -0.0503
21998SOL    HW171957   1.721   8.964   5.993 -1.4451  0.3657 -1.5382
21998SOL    HW271958   1.810   9.087   5.993 -2.6560  1.3042  0.4917
21999SOL     OW71959   7.061   0.842   8.548  0.5860 -0.3392 -0.1345
21999SOL    HW171960   7.118   0.905   8.592  0.5909 -0.3575 -0.1146
21999SOL    HW271961   7.019   0.793   8.619  1.4227 -1.1158 -0.1494
22000SOL     OW71962   2.066   4.745  10.169  0.1456  0.0209  0.2717
22000SOL    HW171963   2.079   4.816  10.107  1.0517 -0.9498 -0.7010
22000SOL    HW271964   1.975   4.718  10.155  0.7047 -1.1090 -1.7390
22001SOL     OW71965  10.614   1.161   3.188 -0.4377 -0.2288 -0.1276
22001SOL    HW171966  10.668   1.084   3.202  0.0149 -0.1344 -1.2242
22001SOL    HW271967  10.675   1.235   3.198 -0.1818 -0.1393 -1.9181
22002SOL     OW71968   5.337   8.658   3.548 -0.0626 -0.2632 -0.2764
22002SOL    HW171969   5.278   8.654   3.473 -0.1359  1.4596 -0.3643
22002SOL    HW271970   5.366   8.568   3.562 -1.6462 -0.9252 -1.0766
22003SOL     OW71971  11.438   3.316  12.154  0.5830 -0.1412  0.4628
22003SOL    HW171972  11.358   3.265  12.140  0.6170 -0.2164  0.5381
22003SOL    HW271973  11.491   3.260  12.211  0.8526 -0.2615  0.0962
22004SOL     OW71974  11.648   5.962   3.931 -0.1433  0.3002 -0.5770
22004SOL    HW171975  11.628   5.880   3.885 -1.4414  0.5007 -0.3970
22004SOL    HW271976  11.624   5.945   4.022  0.5776  0.5501 -0.3323
22005SOL     OW71977   0.509   7.617   6.846  0.4914  0.3360 -0.3128
22005SOL    HW171978   0.433   7.603   6.790  0.0866 -0.4776  0.4280
22005SOL    HW271979   0.583   7.620   6.785 -0.0154  0.1743 -0.9498
22006SOL     OW71980   5.715  10.331   0.027 -0.0874 -0.2342 -0.0699
22006SOL    HW171981   5.666  10.303   0.105 -0.6922 -1.0475 -0.7242
22006SOL    HW271982   5.806  10.336   0.057 -0.2526 -0.9653  0.5903
22007SOL     OW71983   7.782   0.976   3.790  0.0374  0.3898  0.4576
22007SOL    HW171984   7.825   1.006   3.870  1.1818 -1.8341  0.7656
22007SOL    HW271985   7.824   1.026   3.720  0.4671  0.9066  1.0768
22008SOL     OW71986   2.538   0.085   1.986  0.2437  0.2692 -0.0836
22008SOL    HW171987   2.587   0.049   2.061  2.8124 -0.2627 -1.8917
22008SOL    HW271988   2.501   0.167   2.019  1.3202  0.0862  1.7590
22009SOL     OW71989   1.766   2.546   1.167  0.2467  0.9755  0.2310
22009SOL    HW171990   1.860   2.562   1.159  0.2697  0.7129 -0.0479
22009SOL    HW271991   1.727   2.633   1.163  0.4920  1.1025  0.5656
22010SOL     OW71992   5.819   7.116  11.900 -0.4351 -0.5200 -0.6883
22010SOL    HW171993   5.881   7.098  11.971 -0.0519 -1.3449 -1.2142
22010SOL    HW271994   5.818   7.035  11.849 -0.8181  0.0106 -1.5323
22011SOL     OW71995   1.144   9.765   5.967  0.4061 -0.2327 -0.1441
22011SOL    HW171996   1.097   9.685   5.990  0.4054 -0.1568  0.1230
22011SOL    HW271997   1.197   9.741   5.891  0.6623 -0.5759  0.1386
22012SOL     OW71998   6.002   6.140   2.978 -0.1114 -0.1401 -0.2817
22012SOL    HW171999   6.012   6.230   3.010 -1.3425 -0.6896  1.7890
22012SOL    HW272000   6.083   6.097   3.003 -0.6633 -0.3042  1.3446
22013SOL     OW72001  12.277   1.029   9.434  0.4172  0.2559 -0.2356
22013SOL    HW172002  12.370   1.033   9.457 -0.1508 -0.2390  2.5029
22013SOL    HW272003  12.246   1.119   9.445  0.3558  0.2214 -0.1318
22014SOL     OW72004   3.813   7.794   0.213  0.1047  0.1876  0.6340
22014SOL    HW172005   3.732   7.749   0.236  0.2207 -0.4519 -0.1678
22014SOL    HW272006   3.809   7.802   0.117  1.6635 -1.1737  0.4217
22015SOL     OW72007   8.834   4.474   9.440 -0.8017  0.2409 -0.3814
22015SOL    HW172008   8.854   4.549   9.496  1.1775 -2.4990  3.0041
22015SOL    HW272009   8.742   4.456   9.455 -1.0906  1.4467 -0.6053
22016SOL     OW72010   2.104   2.234   4.323  0.1820  0.2056  0.0126
22016SOL    HW172011   2.059   2.244   4.239 -0.2425 -0.7787  0.1077
22016SOL    HW272012   2.038   2.257   4.388 -0.6724 -2.4291  0.2153
22017SOL     OW72013   0.202  10.687   0.591  0.4535 -0.6317 -0.0608
22017SOL    HW172014   0.132  10.639   0.637 -0.1552  1.2868  1.0967
22017SOL    HW272015   0.186  10.779   0.612  1.2789  0.1768 -2.6288
22018SOL     OW72016   1.067   5.820   2.415  0.8361 -0.3956 -0.0578
22018SOL    HW172017   1.025   5.829   2.500  1.5844  1.4159  0.1561
22018SOL    HW272018   1.024   5.744   2.375 -1.9828  0.7969  0.4914
22019SOL     OW72019  11.101   6.326   4.953  0.2556  0.1687 -0.1815
22019SOL    HW172020  11.094   6.354   4.862  1.1007 -0.7114 -0.5230
22019SOL    HW272021  11.016   6.286   4.972  1.5265 -3.8633 -2.0598
22020SOL     OW72022   8.539   5.831   7.103  0.3866  0.5001  0.3023
22020SOL    HW172023   8.580   5.914   7.128 -0.0101  0.7651  0.0892
22020SOL    HW272024   8.610   5.780   7.063  0.2670  1.4113 -1.1582
22021SOL     OW72025   6.551   2.795  12.092 -0.3722  0.0217 -0.7779
22021SOL    HW172026   6.519   2.710  12.121 -0.8666  0.1101 -1.0579
22021SOL    HW272027   6.587   2.835  12.172  0.7818 -0.8418 -0.8334
22022SOL     OW72028   2.931   5.022   4.235  0.7534 -0.0366 -0.3646
22022SOL    HW172029   3.013   5.069   4.248  1.5221 -0.6325 -2.7253
22022SOL    HW272030   2.872   5.086   4.195  0.6779 -0.1545 -0.4425
22023SOL     OW72031  10.921   5.295  11.908 -0.3046 -0.3912 -0.0403
22023SOL    HW172032  10.854   5.227  11.916 -1.3514  0.5009 -0.8752
22023SOL    HW272033  10.895   5.344  11.830  0.8295  0.5272  0.1459
22024SOL     OW72034   2.604   7.827  11.837 -0.3548  0.6197  0.1454
22024SOL    HW172035   2.536   7.800  11.775  1.7827  0.6771 -2.3882
22024SOL    HW272036   2.638   7.909  11.801  0.4576  1.0745  1.8557
22025SOL     OW72037   7.707   6.488   3.659 -0.0769 -0.3996  0.5104
22025SOL    HW172038   7.684   6.529   3.575  0.4203  1.4849  1.2502
22025SOL    HW272039   7.623   6.478   3.705 -0.2805 -0.8951  0.0482
22026SOL     OW72040   6.140   9.329   4.771 -0.1693  0.2551  0.3159
22026SOL    HW172041   6.073   9.278   4.725 -0.5740  0.6562  0.4474
22026SOL    HW272042   6.157   9.279   4.851 -0.0996  0.0057  0.1478
22027SOL     OW72043  10.673   3.287   7.114 -0.0713 -0.0834 -0.1111
22027SOL    HW172044  10.675   3.210   7.171  0.8681  0.0084  0.0037
22027SOL    HW272045  10.732   3.350   7.157  1.5052 -0.3940 -1.6785
22028SOL     OW72046   4.119  12.234   9.754  0.3508  0.3707  0.3430
22028SOL    HW172047   4.040  12.211   9.802 -0.3819  2.3533  0.1682
22028SOL    HW272048   4.181  12.264   9.821  0.5004  0.0339  0.3565
22029SOL     OW72049  11.092  12.322   8.329  0.7141 -0.4937  0.2907
22029SOL    HW172050  11.037  12.335   8.407 -0.6424 -0.7125 -0.5859
22029SOL    HW272051  11.061  12.239   8.292 -0.5220  0.8517 -1.9034
22030SOL     OW72052  11.487  11.750   3.010 -0.3203 -0.3654 -0.1018
22030SOL    HW172053  11.398  11.737   3.042 -1.1169  1.1007 -1.5720
22030SOL    HW272054  11.534  11.789   3.083 -1.7311  1.7357 -0.2499
22031SOL     OW72055   1.478   2.893  11.452 -0.4588  0.3197  0.1860
22031SOL    HW172056   1.507   2.954  11.385 -0.0622  0.1381  0.1902
22031SOL    HW272057   1.534   2.911  11.527  1.1599 -1.4891 -0.4984
22032SOL     OW72058   4.534   8.773  12.446 -0.3793 -0.6213  0.6452
22032SOL    HW172059   4.470   8.807  12.509 -1.0846 -1.0195  0.1523
22032SOL    HW272060   4.484   8.757  12.366  0.6885  0.8251 -0.3682
22033SOL     OW72061   7.314   2.861   4.225 -0.4782 -0.5329  0.0418
22033SOL    HW172062   7.396   2.885   4.181 -0.5402 -0.8764 -0.2638
22033SOL    HW272063   7.248   2.867   4.157 -0.3965 -2.2144 -0.2268
22034SOL     OW72064   6.641   5.738   2.875 -0.4313  0.0513 -0.3027
22034SOL    HW172065   6.680   5.772   2.795  1.3588 -0.2119  0.4155
22034SOL    HW272066   6.589   5.812   2.909 -0.2341  0.5553 -1.0675
22035SOL     OW72067  10.499   1.222   5.676 -0.2906  0.0231 -0.3252
22035SOL    HW172068  10.468   1.151   5.733 -1.2181  1.3472  0.9055
22035SOL    HW272069  10.442   1.218   5.599 -0.2339 -0.6498 -0.3366
22036SOL     OW72070   6.234   3.469   7.733  0.4959 -0.2543 -0.6738
22036SOL    HW172071   6.207   3.533   7.668 -1.1960  0.2263  0.4453
22036SOL    HW272072   6.152   3.438   7.773  1.3319 -2.2356 -0.3468
22037SOL     OW72073   1.124  11.801   4.652  0.7597 -0.5302 -0.2459
22037SOL    HW172074   1.173  11.772   4.575 -1.2479 -0.5235 -1.5916
22037SOL    HW272075   1.032  11.791   4.628  0.0569  0.2118  1.8816
22038SOL     OW72076   1.780  11.535   8.332  0.2357  0.0278  0.6916
22038SOL    HW172077   1.844  11.483   8.284 -0.2899  0.6527 -0.7889
22038SOL    HW272078   1.702  11.479   8.335 -0.2149  0.5287 -0.5854
22039SOL     OW72079   3.779   5.009  11.197 -0.2948 -0.1748 -0.6999
22039SOL    HW172080   3.867   5.023  11.233 -0.8964 -0.5200  0.9524
22039SOL    HW272081   3.794   5.000  11.103  1.5829 -1.2052 -0.3587
22040SOL     OW72082   8.687   6.741   2.931  0.1184 -0.2542  0.3160
22040SOL    HW172083   8.772   6.720   2.970 -1.0623 -2.1380  2.0839
22040SOL    HW272084   8.657   6.818   2.979  0.4622 -0.0750  0.2480
22041SOL     OW72085   9.575  11.693   3.453 -0.2719  0.2559  0.3230
22041SOL    HW172086   9.614  11.732   3.531 -1.3888 -2.3321  2.3367
22041SOL    HW272087   9.496  11.745   3.437 -0.1969  0.6262  1.1199
22042SOL     OW72088   3.216   5.700   3.619  0.3585 -0.2424 -0.4974
22042SOL    HW172089   3.218   5.613   3.579  0.5705 -0.2517 -0.4703
22042SOL    HW272090   3.167   5.688   3.700  0.3014 -0.3141 -0.5419
22043SOL     OW72091   7.792   1.366   5.954 -0.4428  0.1572  0.5233
22043SOL    HW172092   7.713   1.333   5.910  0.6073  0.2270 -1.5302
22043SOL    HW272093   7.760   1.436   6.011 -1.9184 -0.0638  0.0108
22044SOL     OW72094   6.422   6.064   3.650 -0.0050 -0.0472  0.2672
22044SOL    HW172095   6.416   6.147   3.698  2.1251 -0.3544  1.1862
22044SOL    HW272096   6.398   6.087   3.560 -1.5192  1.0916  0.9242
22045SOL     OW72097   0.935   3.887   4.672  0.0402 -0.5261 -0.0821
22045SOL    HW172098   0.912   3.967   4.624 -0.0846 -0.6259 -0.1901
22045SOL    HW272099   0.941   3.915   4.763 -0.0075 -0.3936 -0.1195
22046SOL     OW72100   5.219   3.313   2.027 -0.2380 -0.1403 -0.2526
22046SOL    HW172101   5.274   3.339   2.101 -1.7930  1.0312  0.5281
22046SOL    HW272102   5.281   3.276   1.964  1.1571 -1.0494  1.5390
22047SOL     OW72103   8.853  11.557  10.836  0.0562  0.9453 -0.7871
22047SOL    HW172104   8.835  11.499  10.910  1.6939 -2.4916 -2.8117
22047SOL    HW272105   8.796  11.525  10.766  1.0038  1.7936 -1.9857
22048SOL     OW72106   7.869   1.815   6.165  0.7698 -0.6508  0.6253
22048SOL    HW172107   7.900   1.801   6.255  0.0101  0.2456  1.0382
22048SOL    HW272108   7.931   1.765   6.111  2.2845  0.2049  1.4979
22049SOL     OW72109   8.427   3.640   3.264 -0.1265  0.1220 -0.4596
22049SOL    HW172110   8.395   3.647   3.174 -1.3258  0.6011 -0.0147
22049SOL    HW272111   8.411   3.549   3.288  0.9571 -0.2251 -0.9897
22050SOL     OW72112   6.682  11.829   4.157  0.0738  0.2066  0.0150
22050SOL    HW172113   6.767  11.801   4.122  0.6683  0.9307  0.8402
22050SOL    HW272114   6.618  11.790   4.098  1.0306  1.6799 -2.0850
22051SOL     OW72115   4.161   1.149   0.379  0.3856 -0.6268 -0.2639
22051SOL    HW172116   4.116   1.145   0.294 -1.2362 -0.7921  0.5640
22051SOL    HW272117   4.220   1.224   0.371 -2.7423  2.0994 -0.2234
22052SOL     OW72118   0.011   1.917   4.237  0.2497  0.3937 -0.2991
22052SOL    HW172119  -0.013   1.827   4.259  3.0801 -0.7460 -1.3513
22052SOL    HW272120   0.084   1.937   4.295  2.8994  0.0823 -3.2620
22053SOL     OW72121   2.225   9.911   8.647 -0.1348  0.1844 -0.0648
22053SOL    HW172122   2.132   9.928   8.636 -0.0997  2.1805  1.9752
22053SOL    HW272123   2.268   9.991   8.614  0.9914 -1.1809 -2.1221
22054SOL     OW72124   2.752   9.956   1.152 -0.1816  0.5897 -0.3432
22054SOL    HW172125   2.714  10.043   1.157  1.8411  1.5273 -0.3367
22054SOL    HW272126   2.806   9.957   1.073  0.3324 -0.4696 -0.0312
22055SOL     OW72127   6.486   9.304  11.108  0.1214 -0.3845 -0.0646
22055SOL    HW172128   6.427   9.237  11.143  0.6675 -0.5099  0.6220
22055SOL    HW272129   6.505   9.361  11.183 -0.1556  0.4105 -0.5876
22056SOL     OW72130   4.386   3.843   2.191 -0.9560  0.1298  0.0069
22056SOL    HW172131   4.358   3.891   2.269  0.1438 -0.0565  0.5393
22056SOL    HW272132   4.323   3.772   2.182 -0.9948  0.0576  0.8285
22057SOL     OW72133   0.194  11.919   2.152  0.1168  0.3497  0.0823
22057SOL    HW172134   0.169  12.004   2.189 -3.5449 -1.1851  1.6383
22057SOL    HW272135   0.275  11.895   2.197  0.7040  2.5456  0.2964
22058SOL     OW72136   3.390   0.650  10.439 -0.2423 -0.1694 -0.2918
22058SOL    HW172137   3.463   0.688  10.486 -0.9873  1.3668 -0.3313
22058SOL    HW272138   3.430   0.607  10.363  0.8457 -1.6626  1.0626
22059SOL     OW72139   5.022   7.521   8.093 -0.1992 -0.4348 -1.1867
22059SOL    HW172140   5.111   7.501   8.123  0.1037  0.4329 -1.4943
22059SOL    HW272141   4.969   7.448   8.126  0.1532  0.3237  1.2570
22060SOL     OW72142   6.896   9.205   6.339  0.4201 -0.4220 -0.3651
22060SOL    HW172143   6.900   9.279   6.278  0.4481  1.8096  2.1768
22060SOL    HW272144   6.811   9.164   6.321  0.4830  0.0704 -1.9571
22061SOL     OW72145  11.951  11.218   0.483 -0.3920  0.0671  0.0612
22061SOL    HW172146  11.881  11.278   0.458 -1.3565 -0.7745  0.6429
22061SOL    HW272147  11.927  11.135   0.442 -0.9355 -0.8069  2.0584
22062SOL     OW72148   0.348   7.434   2.766 -0.8196  0.2357 -0.5690
22062SOL    HW172149   0.386   7.346   2.771  1.2405  0.9788 -1.6686
22062SOL    HW272150   0.422   7.491   2.742 -2.1033  2.2619 -0.0032
22063SOL     OW72151   8.641   0.040   4.047  0.4363  0.4929  0.3918
22063SOL    HW172152   8.691   0.104   3.998  1.5696 -0.1591  0.6527
22063SOL    HW272153   8.691  -0.041   4.039 -0.2383 -0.0305  1.2087
22064SOL     OW72154   7.690   6.229  10.732 -0.1621 -0.3155 -0.4652
22064SOL    HW172155   7.744   6.165  10.684 -0.0104  0.8353 -1.9088
22064SOL    HW272156   7.674   6.299  10.668 -0.0847  1.2319  1.1445
22065SOL     OW72157   4.011  12.090  11.631  0.1104  0.1231  0.5357
22065SOL    HW172158   4.096  12.050  11.612 -0.5095 -1.2345  0.5466
22065SOL    HW272159   4.007  12.166  11.572  0.2012 -1.3484 -1.4640
22066SOL     OW72160   8.096   1.171   1.837  0.3036 -0.2957  0.1470
22066SOL    HW172161   8.077   1.208   1.923 -1.1402 -1.1871  0.2499
22066SOL    HW272162   8.189   1.186   1.824 -0.0689  2.9199  0.3888
22067SOL     OW72163  11.540   0.445   2.652 -0.5685  0.0445  0.1973
22067SOL    HW172164  11.613   0.471   2.707 -0.4037 -0.6616  0.3259
22067SOL    HW272165  11.474   0.412   2.713  0.6371 -3.3128 -0.0637
22068SOL     OW72166   2.773   6.654   4.083 -0.6149 -0.6026  0.1491
22068SOL    HW172167   2.832   6.646   4.009 -0.0560  0.4238  0.4564
22068SOL    HW272168   2.793   6.740   4.120 -2.1308 -0.3355  0.4112
22069SOL     OW72169   6.476   7.213   2.131 -0.0723  0.0308  0.2185
22069SOL    HW172170   6.431   7.194   2.213  0.2531  2.7172  1.1094
22069SOL    HW272171   6.563   7.174   2.142 -0.7428 -1.5425  0.1892
22070SOL     OW72172  12.178   9.426   4.633  0.2557 -0.3846  0.4032
22070SOL    HW172173  12.137   9.378   4.561 -2.3240 -0.3515  1.7315
22070SOL    HW272174  12.256   9.375   4.655 -0.6458 -2.1546 -0.3492
22071SOL     OW72175  10.282   4.441   1.843  0.1971  0.0800 -0.6582
22071SOL    HW172176  10.215   4.453   1.775  1.8676  1.3337 -2.1943
22071SOL    HW272177  10.334   4.367   1.813 -1.7352 -2.4848  1.7284
22072SOL     OW72178   0.214   9.326  10.259 -0.3154 -0.0573  0.1904
22072SOL    HW172179   0.198   9.372  10.176  1.0158  0.5774  0.2529
22072SOL    HW272180   0.134   9.276  10.274 -1.1537  0.9249 -0.7514
22073SOL     OW72181   7.511   9.401   1.478 -0.0833  0.4260 -0.1376
22073SOL    HW172182   7.480   9.352   1.403  0.7780  0.1215 -0.2993
22073SOL    HW272183   7.447   9.471   1.489 -1.7506 -1.1451  0.5652
22074SOL     OW72184   8.201   4.348   5.036 -0.3475 -0.0593 -0.0216
22074SOL    HW172185   8.229   4.261   5.066 -0.1349  0.3565  1.0272
22074SOL    HW272186   8.106   4.347   5.045 -0.4801 -0.6134 -1.2398
22075SOL     OW72187   9.968   6.997   9.789 -0.0178 -0.6898 -0.0926
22075SOL    HW172188   9.882   7.033   9.813  0.6861  0.1591  1.3217
22075SOL    HW272189   9.970   6.911   9.830 -0.7829 -1.4048 -1.4815
22076SOL     OW72190  10.271   5.591   8.833  0.4385  0.4101  0.1229
22076SOL    HW172191  10.202   5.617   8.772  1.0996  1.4120 -0.2309
22076SOL    HW272192  10.350   5.630   8.797  1.1040 -0.3132  0.7853
22077SOL     OW72193   6.103  10.406   2.328 -0.2781 -0.2109  0.8200
22077SOL    HW172194   6.078  10.438   2.241  1.2102 -0.7684  0.1511
22077SOL    HW272195   6.198  10.401   2.325 -0.2371 -0.7907  2.3045
22078SOL     OW72196   2.074   5.579   1.412 -0.3654 -0.4094 -0.1924
22078SOL    HW172197   2.130   5.612   1.343 -0.9154  1.0928  0.0449
22078SOL    HW272198   2.134   5.542   1.477  0.2105 -0.7501 -0.9132
22079SOL     OW72199   2.144   8.509   4.538  0.2134  0.2385  0.4313
22079SOL    HW172200   2.191   8.441   4.586 -0.4959 -0.2696  0.4201
22079SOL    HW272201   2.209   8.546   4.479  0.0987 -1.9431 -1.1845
22080SOL     OW72202   1.929   7.155   2.336  0.4247 -0.3076  0.1170
22080SOL    HW172203   1.873   7.099   2.389  1.9076 -1.6220  0.3792
22080SOL    HW272204   1.933   7.238   2.383  0.7230 -1.0388  1.4124
22081SOL     OW72205   2.935   2.345  10.753  0.2636  0.4230 -0.1162
22081SOL    HW172206   2.997   2.325  10.683 -1.1801  0.5099 -1.4757
22081SOL    HW272207   2.870   2.402  10.712 -1.5781 -0.8939  0.8023
22082SOL     OW72208   1.093  11.669   4.921 -0.6139  0.4633 -0.1889
22082SOL    HW172209   1.187  11.654   4.929 -0.5954  0.8583  0.3838
22082SOL    HW272210   1.084  11.728   4.846 -0.3917  0.5477 -0.1496
22083SOL     OW72211   9.835  12.046   9.227 -0.3858  0.1285  0.4141
22083SOL    HW172212   9.858  12.131   9.191  0.5047  0.2609  1.2571
22083SOL    HW272213   9.757  12.020   9.179  0.0522  0.8482 -0.7351
22084SOL     OW72214   0.145   5.453   0.730 -0.7776 -0.3336  0.0306
22084SOL    HW172215   0.117   5.524   0.787 -1.2620 -0.8731  0.4808
22084SOL    HW272216   0.126   5.373   0.780  2.8407 -0.7476  0.9944
22085SOL     OW72217   7.100  11.678   4.741 -0.4359  0.0860 -0.0146
22085SOL    HW172218   7.031  11.616   4.766  1.3202 -2.2398 -0.5950
22085SOL    HW272219   7.053  11.749   4.698 -2.6114 -0.5005  1.1998
22086SOL     OW72220   8.235   1.984   5.425  0.5825  0.0657  0.5322
22086SOL    HW172221   8.257   1.990   5.517 -0.8539  1.7136  0.8291
22086SOL    HW272222   8.306   1.934   5.386 -0.0806 -3.0896  2.9466
22087SOL     OW72223   3.206   7.270   6.023  0.1533  0.0597  0.6047
22087SOL    HW172224   3.126   7.286   5.972  0.1935  0.8830  0.7903
22087SOL    HW272225   3.216   7.175   6.021  0.4608  0.0801 -1.4153
22088SOL     OW72226   1.877  12.115   1.813  0.6681  0.0371  0.0896
22088SOL    HW172227   1.881  12.026   1.776 -2.3401  0.0310 -0.4080
22088SOL    HW272228   1.856  12.171   1.739 -2.0462  0.4795  1.0956
22089SOL     OW72229   1.272   1.198  10.993 -0.2323 -0.3680  0.4888
22089SOL    HW172230   1.302   1.125  10.938  2.9270  1.3103 -0.2786
22089SOL    HW272231   1.319   1.187  11.075 -1.2942 -0.2691  1.1233
22090SOL     OW72232   5.520   2.775  10.984  0.3497 -0.2105  0.6210
22090SOL    HW172233   5.560   2.695  10.949  0.2018  0.4266 -1.0938
22090SOL    HW272234   5.439   2.785  10.934  0.1471  0.7761  1.1312
22091SOL     OW72235   2.072  11.949   7.463  0.1219  0.6846 -0.5372
22091SOL    HW172236   2.129  11.873   7.468 -0.1757  0.4305 -0.9019
22091SOL    HW272237   1.985  11.913   7.444  0.0534  1.1377 -1.1284
22092SOL     OW72238   2.976   6.926   2.016 -0.1634  0.1091 -0.5731
22092SOL    HW172239   2.962   6.972   1.933  0.3810 -0.1936 -0.8414
22092SOL    HW272240   2.994   6.835   1.991 -2.7101 -0.6479  0.0179
22093SOL     OW72241  10.981  10.623   3.371  0.0374  0.0086 -0.0791
22093SOL    HW172242  11.065  10.631   3.415  0.3611 -2.6544 -0.1064
22093SOL    HW272243  10.918  10.608   3.441 -0.0337 -0.4070 -0.2293
22094SOL     OW72244   5.313  12.101   5.849 -0.3254  0.1422  0.4750
22094SOL    HW172245   5.368  12.169   5.888  1.3711 -1.8044  1.6670
22094SOL    HW272246   5.354  12.082   5.765  0.2373 -0.6132  0.9179
22095SOL     OW72247   3.181   6.292   3.783 -0.3525 -0.3334 -0.6351
22095SOL    HW172248   3.092   6.322   3.767 -0.3593  0.2749  0.4484
22095SOL    HW272249   3.172   6.218   3.844 -0.0893  0.2868  0.1835
22096SOL     OW72250   6.507   6.169  10.706  0.2183 -0.6783  0.9810
22096SOL    HW172251   6.598   6.160  10.734  0.5988 -0.6818 -0.1799
22096SOL    HW272252   6.500   6.111  10.630 -0.2968  0.5617  0.0507
22097SOL     OW72253   1.199   3.515   4.299 -0.4078  0.1927  0.2795
22097SOL    HW172254   1.170   3.437   4.253 -0.1611  0.1042  0.2749
22097SOL    HW272255   1.235   3.483   4.381 -0.7980  0.3451  0.5129
22098SOL     OW72256  12.143   5.600   3.018  0.3582 -0.0195 -0.4308
22098SOL    HW172257  12.058   5.627   2.982  1.3736  2.1865 -1.3987
22098SOL    HW272258  12.144   5.505   3.007 -1.6191 -0.0176 -1.1951
22099SOL     OW72259  11.164  12.098  12.038 -0.4048 -0.4169  0.5406
22099SOL    HW172260  11.091  12.035  12.044 -1.3988  0.7113  0.7592
22099SOL    HW272261  11.165  12.123  11.945 -0.2277 -0.5017  0.5196
22100SOL     OW72262  11.599   1.888   1.374  0.3475 -0.3089 -0.2799
22100SOL    HW172263  11.636   1.891   1.463 -2.2946 -1.2849  0.9535
22100SOL    HW272264  11.587   1.980   1.350 -3.2939  0.1752  2.4897
22101SOL     OW72265   1.170  10.778   7.947  0.3187  0.0772  0.1306
22101SOL    HW172266   1.237  10.748   7.886 -1.0198 -0.9755 -0.8943
22101SOL    HW272267   1.098  10.807   7.890 -0.7019 -0.2884  1.2057
22102SOL     OW72268   3.634   0.650   4.715 -0.1072 -0.1275  0.2745
22102SOL    HW172269   3.715   0.689   4.748  0.8775 -1.4969 -0.4418
22102SOL    HW272270   3.594   0.610   4.792  0.9040 -1.1353  0.2964
22103SOL     OW72271   6.561  10.568   2.167  0.3823  0.3147  0.3064
22103SOL    HW172272   6.638  10.605   2.124  0.0543  1.5022  0.7043
22103SOL    HW272273   6.528  10.639   2.223  0.7425 -1.1320  2.4579
22104SOL     OW72274   7.425  11.745   0.792 -0.1122 -0.1252  0.4740
22104SOL    HW172275   7.378  11.826   0.810 -0.8849 -0.4951  0.1560
22104SOL    HW272276   7.389  11.714   0.709  1.0375 -0.1756 -0.0373
22105SOL     OW72277   7.841  10.713   3.222  0.3324 -0.4095 -0.1617
22105SOL    HW172278   7.908  10.780   3.235 -0.3304  0.0947  0.7197
22105SOL    HW272279   7.772  10.757   3.172 -0.6022 -0.0853  1.3670
22106SOL     OW72280   6.270   8.929   4.434 -0.2005  0.1267 -0.3015
22106SOL    HW172281   6.178   8.912   4.412 -0.1332  0.3590 -0.7552
22106SOL    HW272282   6.304   8.979   4.360 -0.2979  1.9438  0.8158
22107SOL     OW72283   9.769   6.447   0.913 -0.1059 -0.2082 -0.1469
22107SOL    HW172284   9.678   6.422   0.898 -0.0382 -1.5764  1.4215
22107SOL    HW272285   9.816   6.412   0.837 -1.0447  2.0351 -1.8852
22108SOL     OW72286  12.282   3.715   3.049 -0.4936 -0.1733  0.0657
22108SOL    HW172287  12.292   3.625   3.020 -1.1969 -0.4079  0.5083
22108SOL    HW272288  12.198   3.716   3.096 -0.6357  0.7710 -0.1797
22109SOL     OW72289   9.621   5.928   2.590  0.0512  0.4265  0.3643
22109SOL    HW172290   9.656   5.916   2.502 -1.5255  0.5017 -0.2860
22109SOL    HW272291   9.663   6.009   2.621 -0.2970  1.0539 -0.7738
22110SOL     OW72292   2.451  11.832   0.296  0.0176 -0.1736  0.0365
22110SOL    HW172293   2.372  11.881   0.273 -0.3307 -0.1437  1.2151
22110SOL    HW272294   2.458  11.842   0.391  0.7209 -1.2375  0.1093
22111SOL     OW72295   3.014  10.162  11.175 -0.3955  0.0559  0.2901
22111SOL    HW172296   2.938  10.125  11.219 -1.9620  1.5281 -1.0149
22111SOL    HW272297   3.006  10.132  11.084  1.1483 -0.5446  0.3129
22112SOL     OW72298   6.761   6.788   1.076 -0.1020 -0.1053  0.5270
22112SOL    HW172299   6.772   6.695   1.061  0.2157  0.0129  0.0036
22112SOL    HW272300   6.810   6.806   1.156 -0.0340 -0.3581  0.5409
22113SOL     OW72301   8.329   1.932   1.512 -0.4374  0.0426 -0.5369
22113SOL    HW172302   8.280   1.886   1.444 -2.2995 -0.3595  0.9824
22113SOL    HW272303   8.321   1.877   1.589 -0.9792  1.8796  0.8028
22114SOL     OW72304  11.547   5.285   7.735  0.6279 -0.5889 -0.1507
22114SOL    HW172305  11.539   5.317   7.825 -0.5706  1.2569 -0.8588
22114SOL    HW272306  11.595   5.354   7.689  1.2993 -1.5521 -0.9286
22115SOL     OW72307   7.429  10.310   4.629 -0.0895 -0.3804  0.1360
22115SOL    HW172308   7.437  10.322   4.534 -0.5032  0.3717  0.1786
22115SOL    HW272309   7.397  10.395   4.660 -4.4084 -1.8474  0.3870
22116SOL     OW72310   1.466  11.217   1.357  0.0239 -0.2614 -0.5453
22116SOL    HW172311   1.536  11.264   1.402 -2.3532 -0.0713  3.4476
22116SOL    HW272312   1.390  11.275   1.362 -1.2955 -1.7620 -1.7694
22117SOL     OW72313   0.022   1.696   8.783  0.0524  0.0252  0.1444
22117SOL    HW172314  -0.005   1.631   8.847  0.7824 -0.3948  0.0402
22117SOL    HW272315   0.091   1.653   8.732  0.5494  0.8758  0.0728
22118SOL     OW72316   3.766   6.832   3.816  0.6223 -0.1623 -0.4376
22118SOL    HW172317   3.821   6.899   3.858  0.6274 -0.3112 -0.2029
22118SOL    HW272318   3.785   6.841   3.723  1.2699 -0.4116 -0.3360
22119SOL     OW72319   6.382   7.050   6.424  0.4482 -0.0333 -0.0216
22119SOL    HW172320   6.428   6.967   6.436  1.7872  0.7355  0.3834
22119SOL    HW272321   6.301   7.040   6.473  0.6510 -1.0592  0.1276
22120SOL     OW72322   8.418  10.357   8.354 -0.4297  0.6148 -0.0588
22120SOL    HW172323   8.361  10.314   8.418 -0.7471 -0.7785 -1.2335
22120SOL    HW272324   8.376  10.442   8.339 -0.9516  0.5144  0.7669
22121SOL     OW72325   9.340   6.174   4.096 -0.0223 -0.0845  0.1606
22121SOL    HW172326   9.386   6.256   4.112  1.0396 -0.2783 -1.6435
22121SOL    HW272327   9.344   6.127   4.180  1.7789  0.5432  0.4669
22122SOL     OW72328   1.095   6.198  12.313  0.8499  0.1610  0.0364
22122SOL    HW172329   1.078   6.217  12.221  0.5846 -1.5261 -0.2914
22122SOL    HW272330   1.132   6.110  12.313 -2.2350 -1.3003  1.7478
22123SOL     OW72331   8.140   4.219   3.302 -0.4232 -0.1413 -0.8171
22123SOL    HW172332   8.185   4.144   3.262 -0.3489  0.7542 -2.5388
22123SOL    HW272333   8.163   4.292   3.245 -1.5612  0.9385  0.0704
22124SOL     OW72334   8.667   6.592  10.735  0.4518  0.2432  0.1062
22124SOL    HW172335   8.586   6.640  10.754  0.8408  0.2984  1.7268
22124SOL    HW272336   8.655   6.561  10.645 -1.3523  0.2769  0.2964
22125SOL     OW72337   6.845   1.620   8.069  0.1158  0.0729 -0.2688
22125SOL    HW172338   6.925   1.645   8.115 -0.3526  0.7302  0.2135
22125SOL    HW272339   6.798   1.563   8.131 -1.1789  2.0734  0.7029
22126SOL     OW72340   7.750   4.454   3.469 -0.3881 -0.0406 -0.5302
22126SOL    HW172341   7.663   4.448   3.429 -0.7198 -1.5176  0.3251
22126SOL    HW272342   7.793   4.371   3.446  0.7779  0.6335 -0.8658
22127SOL     OW72343   3.327   4.574   2.686 -0.5334  0.1314  0.0335
22127SOL    HW172344   3.287   4.513   2.625  0.3535  1.0680 -1.5542
22127SOL    HW272345   3.348   4.521   2.763 -0.4866 -1.3916 -0.9845
22128SOL     OW72346   3.364   4.344   2.843  0.3178  0.4141  0.2421
22128SOL    HW172347   3.291   4.331   2.904 -2.2814  1.8898 -2.3165
22128SOL    HW272348   3.355   4.273   2.780  1.4154  0.3493  0.1450
22129SOL     OW72349   7.558   2.497   3.815 -0.2092  0.5356  0.2129
22129SOL    HW172350   7.536   2.447   3.736 -1.0226 -0.4145  1.0273
22129SOL    HW272351   7.477   2.541   3.839 -0.4480 -0.5036  1.4449
22130SOL     OW72352   6.220   7.172   2.827 -0.2879  0.2737  0.5726
22130SOL    HW172353   6.282   7.219   2.771 -1.0218  0.1055 -0.4056
22130SOL    HW272354   6.134   7.207   2.802 -0.8574 -1.5768 -0.1772
22131SOL     OW72355  10.498   8.733   2.646 -0.1314  0.1171 -0.1158
22131SOL    HW172356  10.587   8.728   2.609 -1.0573  0.9691 -2.6705
22131SOL    HW272357  10.484   8.647   2.684  1.3799 -0.4405 -0.7121
22132SOL     OW72358   0.385   2.395  10.786  0.3600 -0.2865  0.7925
22132SOL    HW172359   0.429   2.344  10.718 -0.2972 -0.2158  0.3036
22132SOL    HW272360   0.448   2.462  10.812 -0.1654  1.1051 -1.3404
22133SOL     OW72361   4.463  10.250   9.823  0.0631 -0.3425 -0.0406
22133SOL    HW172362   4.498  10.275   9.737  0.2424 -1.6198 -0.3609
22133SOL    HW272363   4.540  10.251   9.881  0.2761 -1.1744 -0.2955
22134SOL     OW72364   7.414   0.487  10.238 -0.1866  0.2438  0.0976
22134SOL    HW172365   7.481   0.553  10.259  0.3051  0.2007 -1.2445
22134SOL    HW272366   7.345   0.537  10.194  0.5403 -0.2297 -1.6321
22135SOL     OW72367   9.786   0.879   6.208  0.0231 -0.0973 -0.1512
22135SOL    HW172368   9.768   0.869   6.301  0.0044 -0.7400 -0.2170
22135SOL    HW272369   9.722   0.943   6.177  0.6548  0.8573  0.4614
22136SOL     OW72370   6.034   0.808  11.827  0.1457 -0.0410  0.0378
22136SOL    HW172371   5.955   0.775  11.869  1.1583  0.5228  2.5439
22136SOL    HW272372   6.099   0.738  11.839  0.1285 -0.4556 -1.9000
22137SOL     OW72373   0.060   4.746   5.883  0.4043  0.2111  0.1679
22137SOL    HW172374   0.085   4.667   5.932  1.3492  0.0184 -0.5972
22137SOL    HW272375  -0.017   4.779   5.929  1.7531  0.5529  2.3605
22138SOL     OW72376  11.089   8.202   8.810 -0.2601  0.4337 -0.0123
22138SOL    HW172377  11.136   8.136   8.861  0.9196  0.0129 -1.5621
22138SOL    HW272378  11.048   8.153   8.739  0.8654  1.3463 -1.3562
22139SOL     OW72379   5.105   2.366   3.996  0.2448  0.6048  0.0843
22139SOL    HW172380   5.070   2.280   3.972  1.1432  0.2528 -0.0034
22139SOL    HW272381   5.028   2.419   4.015 -0.3468 -0.0583 -0.4080
22140SOL     OW72382  10.456   1.690   5.070 -0.0139  0.6243  0.7025
22140SOL    HW172383  10.384   1.685   5.007 -0.4404 -0.5211  1.2633
22140SOL    HW272384  10.518   1.751   5.030 -1.1372  1.3797  0.0588
22141SOL     OW72385   2.262  11.539   4.217  0.3256 -0.9672  0.3018
22141SOL    HW172386   2.205  11.496   4.153 -0.0203  0.8674 -0.7136
22141SOL    HW272387   2.325  11.472   4.243  1.7427 -1.3688 -3.4700
22142SOL     OW72388   9.354  12.089   4.436 -0.0952 -0.1419 -0.8090
22142SOL    HW172389   9.275  12.040   4.416 -1.4753  1.4010  0.6336
22142SOL    HW272390   9.324  12.171   4.474  2.2093 -0.0610  1.0807
22143SOL     OW72391   3.159   5.467   0.951  0.4511 -0.4062  0.7508
22143SOL    HW172392   3.241   5.500   0.987 -0.2849  0.4258  1.7347
22143SOL    HW272393   3.129   5.402   1.015 -1.1559  1.4936  2.0411
22144SOL     OW72394   2.999  10.428  10.927 -1.0398  0.6076 -0.3791
22144SOL    HW172395   3.032  10.359  10.984 -0.8231  1.2925  0.3436
22144SOL    HW272396   2.909  10.442  10.957 -1.0076  0.7976 -0.3727
22145SOL     OW72397   9.989  12.095  10.480 -0.2689  0.6907  0.2901
22145SOL    HW172398   9.916  12.143  10.441  0.3123 -0.1394 -1.9554
22145SOL    HW272399  10.054  12.162  10.501 -0.3307  1.1138 -0.8310
22146SOL     OW72400   3.085   2.292  10.513 -0.5050  0.4212  0.1792
22146SOL    HW172401   3.153   2.224  10.507 -1.4632 -0.4573 -1.4807
22146SOL    HW272402   3.134   2.373  10.522  0.7821 -0.2221 -0.6534
22147SOL     OW72403   4.496   1.798   9.080  0.6210  0.4436  0.1691
22147SOL    HW172404   4.460   1.886   9.089  0.3336  0.2616  0.8448
22147SOL    HW272405   4.547   1.801   8.999 -1.0812  0.6578 -0.9549
22148SOL     OW72406  10.353   1.163   8.675  0.6708  0.4082  0.1401
22148SOL    HW172407  10.365   1.104   8.601  0.8409  1.2121 -0.4849
22148SOL    HW272408  10.286   1.225   8.645  0.6844  0.6899  0.6880
22149SOL     OW72409  12.096   5.832  12.166 -0.0084  0.8281 -0.3244
22149SOL    HW172410  12.129   5.917  12.139  1.5997  0.6956  1.1092
22149SOL    HW272411  12.172   5.774  12.164  0.1031  0.6034  3.4257
22150SOL     OW72412   4.269   4.128   0.876 -0.4985 -0.1898 -0.2382
22150SOL    HW172413   4.308   4.093   0.796 -0.5880 -0.7036 -0.0636
22150SOL    HW272414   4.191   4.174   0.847 -0.8073 -0.8051 -0.4052
22151SOL     OW72415   6.318   7.880   1.886  0.7695 -0.2759  0.0026
22151SOL    HW172416   6.285   7.886   1.976 -0.0343  0.6449 -0.3377
22151SOL    HW272417   6.392   7.819   1.892  0.4124 -0.6260  1.1905
22152SOL     OW72418   5.745   8.678   3.857  0.6379  0.2563 -0.3189
22152SOL    HW172419   5.720   8.681   3.765 -0.6744  2.1367  0.0499
22152SOL    HW272420   5.697   8.604   3.893  0.3832  0.1156 -0.9356
22153SOL     OW72421   0.406   0.340   7.650  0.1246  0.0871  0.6131
22153SOL    HW172422   0.376   0.417   7.603 -1.3675 -0.7030  0.1916
22153SOL    HW272423   0.492   0.364   7.685  1.2028  0.8184 -2.2613
22154SOL     OW72424   2.258   1.237   9.861 -0.3601  0.0181 -0.5003
22154SOL    HW172425   2.256   1.324   9.900 -2.5516  0.4190 -1.4017
22154SOL    HW272426   2.287   1.180   9.932 -0.5358  1.2449  0.5954
22155SOL     OW72427   2.578   7.979   2.916  0.0207  0.4714  0.7127
22155SOL    HW172428   2.499   8.034   2.922 -0.2537  0.1480  0.1961
22155SOL    HW272429   2.558   7.918   2.845  0.6111  0.1726  0.8038
22156SOL     OW72430  12.338   7.345   3.728  0.5721  0.0379  0.1490
22156SOL    HW172431  12.342   7.440   3.734  2.5800  0.0547 -0.7292
22156SOL    HW272432  12.332   7.316   3.819  0.2129  0.9706  0.4372
22157SOL     OW72433  10.081   9.835  10.459 -0.3702  0.0247  0.4047
22157SOL    HW172434  10.049   9.870  10.376  0.3958 -1.6314 -0.6322
22157SOL    HW272435  10.004   9.838  10.517 -1.2865 -0.0910 -0.7731
22158SOL     OW72436   8.597   1.720   4.660  0.1013  0.1369  0.3125
22158SOL    HW172437   8.561   1.649   4.714 -0.2361  1.0898  1.3741
22158SOL    HW272438   8.674   1.750   4.708  1.1514 -0.5218 -0.9166
22159SOL     OW72439  10.783   8.490   4.484  0.1334  0.3657  0.0797
22159SOL    HW172440  10.725   8.548   4.532  0.0160 -0.2745  0.7218
22159SOL    HW272441  10.739   8.475   4.400 -0.5525  0.0139  0.4989
22160SOL     OW72442   7.271   6.429   2.381 -0.0435  0.4139 -0.1656
22160SOL    HW172443   7.225   6.353   2.344  0.6426  0.6994 -1.6877
22160SOL    HW272444   7.333   6.391   2.443 -0.5937 -0.1585  0.0521
22161SOL     OW72445   3.614   4.260   6.387 -0.4168 -0.2003 -0.1582
22161SOL    HW172446   3.618   4.350   6.356 -1.7727  0.0918  0.4376
22161SOL    HW272447   3.532   4.225   6.353 -1.6779 -0.0511  2.4492
22162SOL     OW72448  11.226   6.726   8.973 -0.1694 -0.0273  0.4229
22162SOL    HW172449  11.279   6.790   9.020  0.0248  0.2629 -0.1774
22162SOL    HW272450  11.289   6.661   8.943 -0.3386 -0.3981  0.8522
22163SOL     OW72451   3.590   2.197   8.423 -0.0820 -0.3396 -0.5536
22163SOL    HW172452   3.516   2.232   8.374  1.0742  0.4198 -1.8083
22163SOL    HW272453   3.646   2.273   8.441  0.7139 -0.9929 -0.1875
22164SOL     OW72454   5.736  12.285   8.320  0.0561  0.0509  0.1619
22164SOL    HW172455   5.746  12.300   8.226  1.2279  0.8749  0.3931
22164SOL    HW272456   5.642  12.289   8.336 -0.0954  0.8129 -0.8316
22165SOL     OW72457   9.033   6.811   3.327  0.2699 -0.0996  0.0966
22165SOL    HW172458   8.950   6.794   3.371  0.1679 -0.4194 -0.2106
22165SOL    HW272459   9.085   6.860   3.390  0.1339 -0.5666  0.5694
22166SOL     OW72460  10.570   9.270  12.151  0.1209 -0.1257 -0.3679
22166SOL    HW172461  10.568   9.236  12.061 -0.0745  0.7850 -0.7217
22166SOL    HW272462  10.655   9.242  12.185 -0.2410 -1.3969 -0.4593
22167SOL     OW72463  10.150   5.160   5.258 -0.0807  0.3094  0.2008
22167SOL    HW172464  10.173   5.183   5.168 -0.5513  0.3910  0.0997
22167SOL    HW272465  10.202   5.219   5.312  1.3176 -0.6999  0.0358
22168SOL     OW72466  10.887   4.472   7.060 -0.2226 -0.0489  0.5714
22168SOL    HW172467  10.857   4.551   7.014  0.5987  0.4511  0.8713
22168SOL    HW272468  10.957   4.437   7.005 -0.9323 -0.8814  0.1698
22169SOL     OW72469   7.958   6.772   5.143  0.7796 -0.0647  0.1407
22169SOL    HW172470   7.962   6.679   5.164 -0.2474  0.4369  3.1425
22169SOL    HW272471   8.015   6.813   5.208  0.9634  1.4459 -0.9235
22170SOL     OW72472  11.067   2.331   7.297  0.5270 -0.2451 -0.0731
22170SOL    HW172473  11.026   2.406   7.255  1.0837 -0.0835 -0.3431
22170SOL    HW272474  10.995   2.273   7.319 -0.0885  1.0735  1.5956
22171SOL     OW72475   8.357  10.493   3.814  0.5194 -0.0658 -0.6279
22171SOL    HW172476   8.350  10.548   3.892 -1.3971 -0.9594 -0.1338
22171SOL    HW272477   8.402  10.414   3.844  0.0079 -0.3028 -0.4779
22172SOL     OW72478  11.683   8.506   4.708 -0.0205  0.2901 -0.3490
22172SOL    HW172479  11.708   8.418   4.680 -0.4939  0.0388 -0.0032
22172SOL    HW272480  11.619   8.491   4.779  0.8212  0.9070  0.5614
22173SOL     OW72481  11.764   5.830   0.953  0.0723 -0.0219  0.3476
22173SOL    HW172482  11.825   5.763   0.922  0.3502  0.2125  0.3802
22173SOL    HW272483  11.742   5.881   0.875 -2.1699 -1.7078 -0.2141
22174SOL     OW72484   8.879   7.847  11.529  0.0687  0.4619 -0.0453
22174SOL    HW172485   8.850   7.757  11.513 -1.1454  0.9976 -0.9393
22174SOL    HW272486   8.849   7.896  11.453  0.6922  1.6411  0.4493
22175SOL     OW72487   1.948  12.486   3.257  0.3104  0.8078 -0.2055
22175SOL    HW172488   2.037  12.451   3.260 -0.5153 -1.4821 -0.5841
22175SOL    HW272489   1.953  12.570   3.303  2.6052  0.6241 -0.0456
22176SOL     OW72490   6.422   7.407   1.261 -0.5262  0.1030 -0.1969
22176SOL    HW172491   6.513   7.386   1.240 -0.3724  0.1347  0.4222
22176SOL    HW272492   6.373   7.330   1.232 -0.1310 -0.5285  0.7520
22177SOL     OW72493   9.617  10.630   1.356  0.0866  0.1342 -0.7108
22177SOL    HW172494   9.584  10.716   1.330 -1.0127 -0.5098 -1.4961
22177SOL    HW272495   9.541  10.573   1.354 -0.0000 -0.1848  3.2948
22178SOL     OW72496  10.799   4.850   8.598 -0.4243 -0.4015 -0.4138
22178SOL    HW172497  10.811   4.879   8.688 -0.7002  0.3715 -0.6184
22178SOL    HW272498  10.871   4.892   8.550 -0.6999 -0.2309 -0.6761
22179SOL     OW72499   6.618   1.524   0.279 -0.0999 -0.6905  0.4918
22179SOL    HW172500   6.527   1.549   0.265 -1.1424 -4.4451 -0.5687
22179SOL    HW272501   6.626   1.517   0.374 -0.8282 -0.0146  0.6092
22180SOL     OW72502   8.931   0.881   5.622 -0.4018 -0.1672  0.9643
22180SOL    HW172503   8.855   0.939   5.613 -0.5161 -0.2038  1.6465
22180SOL    HW272504   8.894   0.799   5.655 -0.1682 -0.4499  0.5212
22181SOL     OW72505  12.388   0.617   4.161  0.2347 -0.5319  0.6029
22181SOL    HW172506  12.311   0.658   4.199 -1.0767  1.2819 -3.4723
22181SOL    HW272507  12.425   0.684   4.103  3.2199 -2.3172  0.2292
22182SOL     OW72508  11.818  11.969   5.561  0.1341  0.1151  0.3386
22182SOL    HW172509  11.737  11.989   5.608 -0.9156 -1.4932 -0.6859
22182SOL    HW272510  11.882  11.949   5.630 -0.5374  0.6850  1.1402
22183SOL     OW72511   1.599   1.983   6.308 -0.2506 -0.1802  0.0604
22183SOL    HW172512   1.672   1.947   6.258 -0.5667 -0.7040 -0.0272
22183SOL    HW272513   1.586   2.070   6.270 -0.7280 -0.7047 -1.0444
22184SOL     OW72514   0.480   8.862   3.761  0.1646  0.4796 -0.0378
22184SOL    HW172515   0.426   8.838   3.836 -0.2599  0.8779 -0.2067
22184SOL    HW272516   0.487   8.782   3.709 -1.2149  0.6934 -0.5921
22185SOL     OW72517   4.727   1.110   3.887  0.3376 -0.0092 -0.7394
22185SOL    HW172518   4.763   1.196   3.908  1.6939 -0.8917  0.8627
22185SOL    HW272519   4.771   1.084   3.807  0.2841  0.5875 -0.9634
22186SOL     OW72520   8.193   7.507   7.683  0.1098  0.3910  0.1766
22186SOL    HW172521   8.159   7.434   7.734 -1.5815 -0.3390 -1.8578
22186SOL    HW272522   8.274   7.475   7.645 -0.0382 -0.0257  0.2066
22187SOL     OW72523   4.801   5.295   0.649 -0.2078  0.0869  0.3001
22187SOL    HW172524   4.894   5.306   0.671 -0.3518  0.7315  0.6083
22187SOL    HW272525   4.775   5.381   0.615 -0.3430 -0.4761 -1.0978
22188SOL     OW72526   1.156   3.156   2.313 -0.2721 -0.4015 -0.2084
22188SOL    HW172527   1.090   3.156   2.383 -0.4982 -0.7236 -0.4153
22188SOL    HW272528   1.134   3.232   2.260 -0.9752 -0.9485 -0.7271
22189SOL     OW72529   1.400   9.719   8.656  0.0409  0.8830  0.0367
22189SOL    HW172530   1.377   9.784   8.589 -0.9272  0.7510  0.2282
22189SOL    HW272531   1.368   9.758   8.738 -0.6692  0.1182  0.1350
22190SOL     OW72532   9.720   7.916   4.408  0.1370  0.1898  0.0350
22190SOL    HW172533   9.769   7.835   4.423 -1.5657 -1.0594 -0.7823
22190SOL    HW272534   9.647   7.910   4.470 -0.6004  0.5676 -0.7901
22191SOL     OW72535   8.892   4.035   0.308  0.4919  0.3462  0.4280
22191SOL    HW172536   8.898   4.105   0.373  2.2011  1.3419 -0.7068
22191SOL    HW272537   8.977   3.992   0.310 -0.5362 -1.7685  1.0989
22192SOL     OW72538   9.794   9.226   2.807  0.1724  0.1436  0.3243
22192SOL    HW172539   9.837   9.312   2.808 -0.0284  0.2701 -0.8738
22192SOL    HW272540   9.862   9.166   2.775 -0.3606  0.2559 -1.0615
22193SOL     OW72541   8.742  11.153   6.371 -0.1875 -0.0783 -0.3945
22193SOL    HW172542   8.783  11.238   6.358  0.5582 -0.5759 -1.4887
22193SOL    HW272543   8.779  11.098   6.302  0.6888 -1.7719  1.3335
22194SOL     OW72544   0.226   6.624  12.146 -0.1542  0.4379 -0.2143
22194SOL    HW172545   0.252   6.547  12.094  0.6039  0.5263  0.0216
22194SOL    HW272546   0.130   6.623  12.144 -0.1885 -1.0511  0.5509
22195SOL     OW72547   0.436   4.749   5.555 -0.0969 -0.3408 -0.7445
22195SOL    HW172548   0.372   4.690   5.514  0.1596 -1.9158  0.9649
22195SOL    HW272549   0.461   4.704   5.636  0.9235  1.6625  0.1264
22196SOL     OW72550   7.415   0.152   3.424  0.2731  0.5511 -0.0586
22196SOL    HW172551   7.343   0.090   3.434  0.9945 -0.2522  0.2747
22196SOL    HW272552   7.393   0.202   3.345 -0.2056 -0.2766 -0.4538
22197SOL     OW72553   9.287   3.197   1.783 -0.3615 -0.1130  0.0176
22197SOL    HW172554   9.327   3.283   1.766  0.9671 -0.8808 -0.9346
22197SOL    HW272555   9.225   3.213   1.854  0.4277  1.4813  0.3935
22198SOL     OW72556   4.459   4.964   0.855 -0.2493 -0.4014  0.2142
22198SOL    HW172557   4.439   4.871   0.867  0.4084 -0.5892 -0.0811
22198SOL    HW272558   4.553   4.970   0.869 -0.2585  0.1894  0.0477
22199SOL     OW72559   5.296   3.894  12.038  0.1041  0.6812  0.2184
22199SOL    HW172560   5.350   3.948  11.980 -0.7625  0.2074 -1.1001
22199SOL    HW272561   5.222   3.950  12.062  0.1621  0.6896  0.3754
22200SOL     OW72562   8.244   0.771   1.608 -1.1379 -0.1274 -0.2676
22200SOL    HW172563   8.269   0.679   1.600  0.5288  0.1762  0.8940
22200SOL    HW272564   8.247   0.789   1.702 -1.2211  1.1652 -0.4867
22201SOL     OW72565   8.173   2.325  11.689  0.0639  0.0880  0.1163
22201SOL    HW172566   8.242   2.370  11.640  0.7477 -0.6167  0.4108
22201SOL    HW272567   8.180   2.361  11.778 -1.8055  2.0869 -0.4403
22202SOL     OW72568   8.552   5.292   5.356 -0.2068 -0.3795 -0.0855
22202SOL    HW172569   8.569   5.361   5.420 -1.0709 -1.0916  0.9486
22202SOL    HW272570   8.458   5.296   5.341  0.2057  1.1420 -2.9551
22203SOL     OW72571  10.430   5.945   4.826 -0.6227  0.0190 -0.3814
22203SOL    HW172572  10.487   5.873   4.850 -1.1986 -0.2059  0.3344
22203SOL    HW272573  10.367   5.907   4.764 -0.0197  0.2650 -1.1655
22204SOL     OW72574   8.915   4.059   2.478 -0.4278  0.4842  0.0993
22204SOL    HW172575   8.886   4.102   2.398 -0.3606 -0.5189 -0.4868
22204SOL    HW272576   8.984   4.115   2.512 -0.9767  1.3191 -0.1267
22205SOL     OW72577   0.099   5.783   5.842 -0.1266  0.2867 -0.3463
22205SOL    HW172578   0.037   5.778   5.915  0.1074 -0.3855 -0.1819
22205SOL    HW272579   0.123   5.875   5.836  0.3715  0.2477  0.8735
22206SOL     OW72580   9.483   5.977   6.004  0.0751 -0.4616 -0.5024
22206SOL    HW172581   9.392   5.978   6.034 -0.3440  0.4892 -1.7093
22206SOL    HW272582   9.503   6.069   5.985  0.9844 -0.7744 -1.1123
22207SOL     OW72583  10.230   2.559   1.083 -0.1892 -0.3086  0.4321
22207SOL    HW172584  10.243   2.582   1.175 -2.5192 -0.0794  0.7766
22207SOL    HW272585  10.278   2.625   1.035 -0.1334  0.4470  1.4886
22208SOL     OW72586  10.370   3.074  11.097 -0.1189 -0.0088 -0.1491
22208SOL    HW172587  10.465   3.075  11.101 -0.1120  1.3974 -0.1513
22208SOL    HW272588  10.350   3.035  11.012  0.4608 -0.1952 -0.2029
22209SOL     OW72589  10.260   2.111   9.090  0.0789 -0.0884  0.4200
22209SOL    HW172590  10.211   2.177   9.140 -0.1606  0.1148 -0.0767
22209SOL    HW272591  10.345   2.151   9.075  0.4156 -0.4487  1.2987
22210SOL     OW72592   4.197   8.200  11.793 -0.1549  0.1417 -0.0948
22210SOL    HW172593   4.270   8.161  11.745 -0.5401  0.0909 -0.6434
22210SOL    HW272594   4.190   8.147  11.872  1.0284  0.7557  0.4384
22211SOL     OW72595   5.642   9.265  11.223  0.5346 -0.4232  0.5390
22211SOL    HW172596   5.587   9.194  11.255  0.8980 -1.0225 -0.1354
22211SOL    HW272597   5.588   9.312  11.159 -0.2194  0.8211  2.0177
22212SOL     OW72598   1.621  11.153  12.393  0.1453 -0.6064 -0.1451
22212SOL    HW172599   1.552  11.216  12.413  0.9589  0.9469 -1.8725
22212SOL    HW272600   1.580  11.090  12.333 -0.6149 -1.6565  1.4217
22213SOL     OW72601   6.725   7.451   4.176  0.5490 -0.4667  0.4398
22213SOL    HW172602   6.634   7.475   4.196  0.5986 -0.6122  0.8326
22213SOL    HW272603   6.749   7.509   4.103 -0.6461 -2.0373 -1.3047
22214SOL     OW72604   6.633   7.517   7.262  0.5559 -0.0015 -0.3397
22214SOL    HW172605   6.725   7.506   7.286  0.5218  0.2081 -0.1058
22214SOL    HW272606   6.609   7.434   7.221  1.1332  0.3133 -1.3452
22215SOL     OW72607   5.699   4.941   0.733 -0.3548  0.7410  0.0596
22215SOL    HW172608   5.722   4.982   0.650  0.3402  1.8255  0.7654
22215SOL    HW272609   5.648   4.864   0.708 -0.1249  1.0203 -1.3668
22216SOL     OW72610   1.543   9.794   3.849  0.2992 -0.5685 -0.1427
22216SOL    HW172611   1.565   9.716   3.901  0.1335 -0.8582 -0.5009
22216SOL    HW272612   1.622   9.848   3.853 -0.3573  0.3643  2.0632
22217SOL     OW72613   5.734   9.101   2.050  0.3329  0.3424  0.6254
22217SOL    HW172614   5.828   9.110   2.037  0.8382 -1.6007  2.4338
22217SOL    HW272615   5.725   9.041   2.124 -2.3481 -1.9878 -1.3452
22218SOL     OW72616   9.737   6.404   1.806 -0.0029 -0.3182 -0.7960
22218SOL    HW172617   9.651   6.446   1.799 -0.0717  0.0205  1.2482
22218SOL    HW272618   9.725   6.317   1.767 -1.3089 -0.3121 -0.4551
22219SOL     OW72619   5.151   5.338  10.027 -0.6371 -0.1553  0.2458
22219SOL    HW172620   5.233   5.292  10.045  0.4452  0.7946 -1.8934
22219SOL    HW272621   5.109   5.287   9.958 -1.9629 -0.7062  1.4152
22220SOL     OW72622   0.521  11.954   5.311  0.4546 -0.2967  0.0953
22220SOL    HW172623   0.616  11.945   5.302  0.8849  1.4393  2.1038
22220SOL    HW272624   0.501  12.040   5.274 -0.4500 -0.8972 -0.8548
22221SOL     OW72625   7.921   9.311   2.648  0.3133  0.3737 -1.0045
22221SOL    HW172626   7.998   9.306   2.592  1.3743 -0.1148  0.4653
22221SOL    HW272627   7.929   9.237   2.708  0.3370  2.0360  1.1611
22222SOL     OW72628   1.538   9.315   8.128  0.6234  0.2115 -0.1136
22222SOL    HW172629   1.507   9.346   8.043 -0.7822 -1.6834 -0.3406
22222SOL    HW272630   1.547   9.395   8.181 -2.0710  1.1285 -0.8957
22223SOL     OW72631  11.929   0.021   2.124 -0.2483 -0.3150 -0.2685
22223SOL    HW172632  11.836   0.046   2.126  0.2041  1.4783  1.3864
22223SOL    HW272633  11.929  -0.072   2.146 -1.6195 -0.1778  0.4529
22224SOL     OW72634   2.804   3.041  10.321 -0.5292 -0.0095 -0.7338
22224SOL    HW172635   2.815   3.049  10.226  0.3688  0.7994 -0.5881
22224SOL    HW272636   2.760   2.958  10.334 -0.0746 -0.4354 -1.8288
22225SOL     OW72637   8.084  12.434   6.713  0.1274  0.4857 -0.4426
22225SOL    HW172638   8.028  12.483   6.653  0.1089  2.0298  0.7719
22225SOL    HW272639   8.168  12.479   6.709  0.3113  0.2016  0.1920
22226SOL     OW72640  12.182   8.719   8.432  0.6587 -0.1378  0.1003
22226SOL    HW172641  12.189   8.745   8.524 -1.4527 -0.8059  0.5085
22226SOL    HW272642  12.217   8.630   8.430 -1.1023 -0.8735  0.6945
22227SOL     OW72643   8.026   0.783   3.112  0.7250  0.0692  0.0129
22227SOL    HW172644   7.953   0.808   3.168  0.1379  0.1804 -0.7882
22227SOL    HW272645   8.049   0.694   3.140 -0.0529 -0.1645 -0.0844
22228SOL     OW72646   8.584  10.679   1.760  0.0166  0.1115 -0.3263
22228SOL    HW172647   8.654  10.657   1.698  0.4705  0.1838  0.1506
22228SOL    HW272648   8.508  10.631   1.728  0.7993 -1.6565  0.3210
22229SOL     OW72649   3.005  12.417   4.988 -0.0399 -0.2666 -0.1156
22229SOL    HW172650   3.098  12.396   4.980  0.1425 -0.1279  1.4651
22229SOL    HW272651   2.990  12.485   4.921  0.8274 -0.7489 -0.8251
22230SOL     OW72652   5.304   5.294   1.191  0.3064  0.0570  0.4709
22230SOL    HW172653   5.219   5.251   1.197  0.7154 -0.7206  0.7270
22230SOL    HW272654   5.336   5.299   1.281 -0.1993  1.8778  0.5919
22231SOL     OW72655  12.215   9.512   7.191  0.6226 -0.3116  0.2966
22231SOL    HW172656  12.295   9.549   7.229  1.2260  0.7130 -1.8241
22231SOL    HW272657  12.152   9.584   7.195  0.9364  0.0953 -1.2410
22232SOL     OW72658   8.549   2.459   9.518 -0.2316 -0.1553  0.0082
22232SOL    HW172659   8.642   2.448   9.497 -0.3499  0.8833 -1.1737
22232SOL    HW272660   8.511   2.373   9.501  0.4116 -0.4381 -0.0543
22233SOL     OW72661   4.949  11.318   1.679 -0.0194  0.7524  0.8784
22233SOL    HW172662   4.898  11.356   1.607  0.0750  1.2431  1.0657
22233SOL    HW272663   4.977  11.233   1.647  0.0888  1.0058  0.3061
22234SOL     OW72664   7.474   5.898  12.154 -0.1247 -0.0447 -0.0092
22234SOL    HW172665   7.489   5.987  12.185  0.9134 -0.1410 -0.1971
22234SOL    HW272666   7.453   5.908  12.061  1.2012 -0.0621 -0.3319
22235SOL     OW72667  10.289   8.303   5.312 -0.0386  0.6649 -0.3349
22235SOL    HW172668  10.371   8.290   5.360  0.7692  0.3329 -1.7322
22235SOL    HW272669  10.231   8.346   5.374  1.6481  2.1643  0.2837
22236SOL     OW72670  12.160   6.163  11.582  0.3741  0.1614 -0.3952
22236SOL    HW172671  12.076   6.121  11.561 -0.2512  2.1693 -2.2695
22236SOL    HW272672  12.190   6.201  11.499  3.2805 -0.6439  0.1837
22237SOL     OW72673   5.469   7.747   1.048  0.7356 -0.7050 -0.0165
22237SOL    HW172674   5.539   7.716   1.104  0.9705 -0.8047 -0.3640
22237SOL    HW272675   5.439   7.669   1.001 -0.6685 -0.9885  1.2553
22238SOL     OW72676   4.816   0.222   8.988  0.3370 -0.6030  0.1926
22238SOL    HW172677   4.903   0.256   9.009 -0.6230  2.6657 -0.4830
22238SOL    HW272678   4.804   0.242   8.895 -1.0041 -1.3730  0.1698
22239SOL     OW72679  10.433   6.021   5.942  0.3337 -0.0672  0.3901
22239SOL    HW172680  10.395   5.933   5.950 -1.1460  0.6173  1.3386
22239SOL    HW272681  10.368   6.071   5.893  0.2148  0.9918  1.5594
22240SOL     OW72682   8.828   4.807   7.289 -0.3357  0.4047 -0.6168
22240SOL    HW172683   8.831   4.795   7.384  0.5375 -0.2338 -0.7156
22240SOL    HW272684   8.738   4.836   7.272 -1.0601 -1.2032  0.2188
22241SOL     OW72685   9.917  10.370   6.736  0.7829 -0.2681 -0.1961
22241SOL    HW172686   9.868  10.435   6.686 -0.8926 -0.3565  1.2706
22241SOL    HW272687   9.989  10.420   6.776  1.2295  0.0894 -1.3992
22242SOL     OW72688   6.459   7.902   0.424  0.7570 -0.4096  0.2354
22242SOL    HW172689   6.411   7.846   0.362 -1.8028  1.1107  0.7001
22242SOL    HW272690   6.436   7.868   0.510  1.0602 -0.0591  0.4588
22243SOL     OW72691   3.270   4.502  10.137 -0.1760  0.1917 -0.1419
22243SOL    HW172692   3.277   4.463  10.224 -1.0478 -0.5305 -0.3680
22243SOL    HW272693   3.262   4.596  10.152 -2.1288 -0.0598  0.7036
22244SOL     OW72694   4.886   5.483  12.395  0.0337  0.0521  0.1753
22244SOL    HW172695   4.894   5.449  12.484 -0.0798  0.6163  0.4043
22244SOL    HW272696   4.974   5.515  12.374 -0.0285  0.2559  0.2240
22245SOL     OW72697   8.674   7.930   8.840  0.1485 -0.0763  0.0300
22245SOL    HW172698   8.583   7.948   8.816 -0.3164 -1.3951  0.7304
22245SOL    HW272699   8.676   7.836   8.859  1.5553  0.0255  0.4911
22246SOL     OW72700   5.127  11.690  11.873  0.4857  0.4088  0.2240
22246SOL    HW172701   5.205  11.682  11.818  1.0318  0.0055  1.0395
22246SOL    HW272702   5.084  11.605  11.866  1.7273 -0.4416  2.1163
22247SOL     OW72703   8.798   3.593   6.099  0.2232  0.5334 -1.0599
22247SOL    HW172704   8.739   3.650   6.050 -0.4654 -0.8703 -1.9451
22247SOL    HW272705   8.775   3.505   6.069  0.0446 -0.3765  1.5037
22248SOL     OW72706   5.298  12.325   6.500  0.1980  0.0886 -0.1863
22248SOL    HW172707   5.236  12.305   6.570  0.9954 -0.2006  0.4614
22248SOL    HW272708   5.270  12.270   6.427 -0.3845  0.0564  0.0590
22249SOL     OW72709   3.171  11.522  10.527 -0.4334 -0.2491 -0.1202
22249SOL    HW172710   3.260  11.487  10.533 -0.2840  0.1644  0.0501
22249SOL    HW272711   3.177  11.610  10.562 -1.0165 -0.3990  0.3651
22250SOL     OW72712   3.676  12.378   7.285 -0.1940  0.3272 -0.6262
22250SOL    HW172713   3.622  12.300   7.280 -0.0889  0.2243 -0.1778
22250SOL    HW272714   3.614  12.451   7.279 -0.6842  0.2514  2.2133
22251SOL     OW72715  11.237   7.768  11.649  0.3863 -0.0323 -0.0594
22251SOL    HW172716  11.220   7.853  11.690 -0.5700 -0.4258  0.3882
22251SOL    HW272717  11.188   7.705  11.702 -0.4827 -0.6175 -1.4997
22252SOL     OW72718   8.392   2.592   9.682 -0.1393  0.0368  0.4610
22252SOL    HW172719   8.445   2.660   9.724  0.0670  0.7211 -0.8590
22252SOL    HW272720   8.452   2.548   9.623 -0.9250  0.5723 -0.7713
22253SOL     OW72721   7.858   9.304   0.430  0.1756  0.0434 -0.5421
22253SOL    HW172722   7.948   9.301   0.399  0.0297  0.0047 -0.9581
22253SOL    HW272723   7.837   9.214   0.453 -0.3402 -0.2541 -2.1060
22254SOL     OW72724   4.297   3.000   1.276 -0.0911  0.6271  0.0172
22254SOL    HW172725   4.392   3.004   1.279 -0.1020  0.7631  0.2206
22254SOL    HW272726   4.272   2.953   1.356 -0.1207 -0.8035 -0.8021
22255SOL     OW72727   8.704  11.588   3.623 -0.1339  0.1923  0.1854
22255SOL    HW172728   8.760  11.643   3.568  0.6274 -0.9604 -0.2244
22255SOL    HW272729   8.759  11.515   3.649 -0.8715  0.0435  1.4346
22256SOL     OW72730   3.458   1.004   2.300 -0.1807  0.0258  0.4080
22256SOL    HW172731   3.383   1.019   2.242  0.6153  0.6670 -0.4874
22256SOL    HW272732   3.529   0.978   2.241  0.3743 -0.3048  1.2118
22257SOL     OW72733  11.266   4.582  11.498 -0.1683  0.1211  0.0411
22257SOL    HW172734  11.214   4.536  11.564  1.0648 -0.2217  0.8271
22257SOL    HW272735  11.241   4.543  11.415 -0.8074 -0.3623  0.4577
22258SOL     OW72736   2.949   8.714  11.465  0.1993  0.6425  0.5131
22258SOL    HW172737   2.890   8.679  11.532  0.8570 -1.1333  0.2204
22258SOL    HW272738   2.911   8.686  11.382  0.7405  0.6185  0.2661
22259SOL     OW72739   4.686   6.397   9.607 -0.2037 -0.3754  0.5161
22259SOL    HW172740   4.702   6.336   9.678  0.5691  0.8611  1.4520
22259SOL    HW272741   4.591   6.409   9.606 -0.1741  0.0537  1.7578
22260SOL     OW72742   5.259   4.238   7.241  0.0865 -0.0537 -0.0821
22260SOL    HW172743   5.343   4.258   7.198 -0.1088 -0.0526 -0.4625
22260SOL    HW272744   5.284   4.211   7.329  0.5997 -1.4335 -0.6171
22261SOL     OW72745   3.753   2.226   1.726  0.2590 -0.1514 -0.7005
22261SOL    HW172746   3.767   2.191   1.638 -0.9245  0.9674 -1.3686
22261SOL    HW272747   3.810   2.174   1.782  1.0555 -0.8706 -2.1306
22262SOL     OW72748   4.058   3.962  11.896  0.3623 -0.1128  0.5544
22262SOL    HW172749   4.130   3.927  11.949  0.8804  0.5055  0.2693
22262SOL    HW272750   4.027   4.039  11.943  0.2941 -0.0232  0.3676
22263SOL     OW72751   2.337   4.867  10.915  0.5623  0.0315  0.3065
22263SOL    HW172752   2.243   4.852  10.928  0.2796  0.5899 -0.9526
22263SOL    HW272753   2.359   4.936  10.978  0.0802  0.0559  0.4512
22264SOL     OW72754   8.233  12.238  12.059  0.0689  0.0891  0.6531
22264SOL    HW172755   8.220  12.300  12.130  0.4321  0.9238  0.0165
22264SOL    HW272756   8.316  12.194  12.080  0.6391  0.9656  0.3216
22265SOL     OW72757   7.687  10.732   0.906  0.6800  0.4113  0.1457
22265SOL    HW172758   7.646  10.665   0.851  1.6746 -0.0609 -0.0457
22265SOL    HW272759   7.739  10.681   0.969  1.8715  1.0063 -0.3331
22266SOL     OW72760   5.083   7.782   5.091  0.1762 -0.3922 -0.1201
22266SOL    HW172761   5.039   7.867   5.079 -1.2636 -1.0001  0.5908
22266SOL    HW272762   5.037   7.723   5.032  0.9591 -0.7667 -0.3629
22267SOL     OW72763  10.805  11.656   7.121  0.5397  0.4257  0.1384
22267SOL    HW172764  10.790  11.707   7.201  0.8012  0.7747 -0.0327
22267SOL    HW272765  10.887  11.609   7.137  0.3741  0.1645  0.2390
22268SOL     OW72766   1.713   0.331  10.188 -0.9398 -0.5027 -0.2740
22268SOL    HW172767   1.806   0.343  10.168 -1.0090 -1.4947 -1.2552
22268SOL    HW272768   1.686   0.256  10.136 -1.6779 -1.8776  1.9216
22269SOL     OW72769   6.414  12.344   4.441  1.2598  0.2076 -0.0138
22269SOL    HW172770   6.483  12.295   4.486  0.1414 -1.0754  0.3816
22269SOL    HW272771   6.367  12.278   4.390  0.5973  1.1284 -0.6321
22270SOL     OW72772   6.939   5.954   8.747  0.0117  0.9498 -0.4626
22270SOL    HW172773   7.008   6.011   8.782 -0.2930  1.3791 -0.5541
22270SOL    HW272774   6.934   5.976   8.654  0.4356  0.2068 -0.6712
22271SOL     OW72775   8.591   2.422   3.672 -0.0038 -0.1623 -0.2601
22271SOL    HW172776   8.580   2.448   3.763 -2.9098  1.4162 -0.9162
22271SOL    HW272777   8.543   2.340   3.664 -3.1098  1.5366 -0.9735
22272SOL     OW72778  10.758   4.203   9.206 -0.5444 -0.0319 -0.1014
22272SOL    HW172779  10.823   4.270   9.190  0.6311 -1.2351 -0.5408
22272SOL    HW272780  10.675   4.243   9.181  0.3699  0.5401 -2.4753
22273SOL     OW72781   7.353   5.758   8.851 -0.2753 -0.2837  0.7341
22273SOL    HW172782   7.389   5.731   8.766 -0.5164 -1.4129  0.9722
22273SOL    HW272783   7.258   5.761   8.837 -0.2045  1.6421  0.3991
22274SOL     OW72784   1.449   2.823   6.972 -0.4540 -0.3687 -0.7808
22274SOL    HW172785   1.389   2.842   6.900  1.9467 -0.2253 -2.9294
22274SOL    HW272786   1.534   2.811   6.929  1.4677  1.3335  2.1771
22275SOL     OW72787   3.989   7.000   2.311  0.4112 -0.0583 -0.4274
22275SOL    HW172788   3.949   6.951   2.382  0.5462  1.0633  0.4428
22275SOL    HW272789   3.919   7.054   2.276  0.9342  1.3232  0.5810
22276SOL     OW72790   4.407   8.390   6.522 -0.0459 -0.2993 -0.3678
22276SOL    HW172791   4.420   8.483   6.541 -1.3433 -0.1699 -0.0762
22276SOL    HW272792   4.448   8.345   6.596 -1.9765  0.1275  1.0273
22277SOL     OW72793   7.354   5.405   0.249 -0.0763  0.1421  0.3406
22277SOL    HW172794   7.369   5.325   0.197 -1.1614 -0.3432  0.7594
22277SOL    HW272795   7.340   5.473   0.184  0.4444 -0.0881 -0.0206
22278SOL     OW72796   4.667   1.466   4.152 -0.1349 -0.3595 -0.0348
22278SOL    HW172797   4.661   1.515   4.071  0.0855  0.8641  0.6724
22278SOL    HW272798   4.577   1.444   4.174 -0.3551  0.8569  0.3114
22279SOL     OW72799   9.876   9.362   1.056 -0.4955  0.0865 -0.3295
22279SOL    HW172800   9.786   9.377   1.086 -0.6591 -0.8827 -0.2987
22279SOL    HW272801   9.906   9.448   1.028 -0.5127  0.9882  2.1256
22280SOL     OW72802   8.860   9.652   8.814  0.0386 -0.5709 -0.5737
22280SOL    HW172803   8.820   9.737   8.830  2.1619  0.3852 -0.0204
22280SOL    HW272804   8.790   9.589   8.832 -0.7097  0.9022  2.4037
22281SOL     OW72805   2.790   8.617  11.263  0.3429 -0.5310  0.3185
22281SOL    HW172806   2.859   8.651  11.205  0.6713 -0.2646  0.8567
22281SOL    HW272807   2.713   8.671  11.243  0.5640 -0.1774  0.4066
22282SOL     OW72808   1.749   6.871   0.001 -0.6226 -0.2251 -0.3005
22282SOL    HW172809   1.703   6.793   0.030 -1.0366 -0.0529 -0.4865
22282SOL    HW272810   1.836   6.863   0.039 -1.4238  0.4642  1.8920
22283SOL     OW72811  10.213   6.982  10.742  0.2552 -0.6264  0.0448
22283SOL    HW172812  10.166   7.057  10.779  0.3865 -0.8762  0.7369
22283SOL    HW272813  10.220   7.002  10.649 -0.3424 -0.1169  0.0999
22284SOL     OW72814   7.274   7.670   0.992 -0.1751  0.0233 -0.6240
22284SOL    HW172815   7.367   7.684   1.010  0.2846 -0.9516 -2.1379
22284SOL    HW272816   7.255   7.727   0.918 -0.7219 -0.0350 -0.5366
22285SOL     OW72817   2.794   1.381   8.554  0.4075  0.0052  1.0604
22285SOL    HW172818   2.867   1.323   8.531 -1.2112 -1.5954 -0.3659
22285SOL    HW272819   2.732   1.372   8.481 -1.1061  1.5090  2.0818
22286SOL     OW72820   3.643   5.190   6.928  0.1891  0.0560 -0.1411
22286SOL    HW172821   3.629   5.205   6.834  0.0321 -0.7946 -0.2582
22286SOL    HW272822   3.723   5.138   6.932 -0.3354 -0.7336  0.1388
22287SOL     OW72823   5.840   4.899  11.022  0.2686  0.3611  0.1514
22287SOL    HW172824   5.901   4.829  11.043 -1.2184 -0.8547  0.5879
22287SOL    HW272825   5.756   4.868  11.055 -0.4756  2.2637  0.1403
22288SOL     OW72826  10.996   2.946   8.350  0.3422  0.1243 -0.6015
22288SOL    HW172827  10.981   3.033   8.314  0.3363 -0.0802 -1.1080
22288SOL    HW272828  10.974   2.953   8.443 -2.1036  0.0308 -1.1269
22289SOL     OW72829   8.694  12.371   8.345 -0.7548  0.7973  0.6173
22289SOL    HW172830   8.745  12.446   8.314  1.7677 -2.1782 -3.4353
22289SOL    HW272831   8.760  12.310   8.378 -1.9540 -1.7945 -1.4816
22290SOL     OW72832  10.047   6.198   9.410 -0.1369 -0.8684 -0.0286
22290SOL    HW172833  10.078   6.131   9.348 -1.5925 -1.1364 -0.5276
22290SOL    HW272834  10.071   6.164   9.496  2.0220 -0.4434 -0.4034
22291SOL     OW72835   3.847   3.124   3.688  0.1420 -0.3899  0.5791
22291SOL    HW172836   3.861   3.191   3.620  0.2138 -2.0345 -1.1144
22291SOL    HW272837   3.759   3.141   3.720 -0.5492 -0.5405 -1.1249
22292SOL     OW72838  12.093   8.264   6.245 -0.3268 -0.4438 -0.7834
22292SOL    HW172839  12.038   8.337   6.215 -0.9341 -0.7093 -0.3460
22292SOL    HW272840  12.154   8.248   6.173 -3.8753 -3.3681 -3.5080
22293SOL     OW72841   0.695   2.553  11.582  0.6639 -0.1797  0.3931
22293SOL    HW172842   0.732   2.586  11.500  0.3179  0.7572  0.6038
22293SOL    HW272843   0.644   2.475  11.556 -1.8140  1.6789 -0.7663
22294SOL     OW72844   8.353   0.155   9.186 -0.1924  0.7351  0.2971
22294SOL    HW172845   8.353   0.134   9.279 -1.7882  0.5471  0.2760
22294SOL    HW272846   8.298   0.233   9.178 -1.8842 -0.4899 -0.7045
22295SOL     OW72847  11.682   5.900   4.204  0.2478  0.2884  0.1081
22295SOL    HW172848  11.763   5.864   4.168 -0.7444 -0.2516 -1.7094
22295SOL    HW272849  11.630   5.823   4.229 -0.7929  0.4893 -1.3010
22296SOL     OW72850   8.545   8.289  10.125  0.5478  0.7758  0.0762
22296SOL    HW172851   8.507   8.215  10.077  1.6298 -1.2318  2.1464
22296SOL    HW272852   8.543   8.262  10.217  1.1983  3.2559  0.9036
22297SOL     OW72853   6.969   2.926   0.998  0.2157 -0.2041  0.1509
22297SOL    HW172854   7.019   2.855   1.038  0.1218 -1.2134 -1.4390
22297SOL    HW272855   6.886   2.927   1.046  0.8245 -0.0739  1.2436
22298SOL     OW72856  12.477   3.442   6.281 -0.1752 -0.6616  0.2836
22298SOL    HW172857  12.527   3.413   6.205  2.7223  2.0342  0.9798
22298SOL    HW272858  12.424   3.514   6.249 -2.0814 -2.0724  0.0617
22299SOL     OW72859   9.349   7.870   4.969 -0.1300  0.6829  0.7474
22299SOL    HW172860   9.434   7.873   4.925 -0.4773  0.2261  0.0208
22299SOL    HW272861   9.339   7.779   4.995 -1.6416  0.0231 -1.7646
22300SOL     OW72862   8.863  10.027   9.759  0.7865 -0.3171  0.1498
22300SOL    HW172863   8.847   9.983   9.676  5.4915 -0.4929 -0.9106
22300SOL    HW272864   8.955  10.010   9.779  0.6844  2.2159  3.9189
22301SOL     OW72865   4.111  10.266   5.574 -0.2698  0.1284  0.1460
22301SOL    HW172866   4.037  10.242   5.630 -0.4281 -2.2619 -0.9400
22301SOL    HW272867   4.183  10.211   5.605  0.9867  2.1041  0.8969
22302SOL     OW72868  10.290  10.197   9.887  0.4142 -0.6438 -0.4244
22302SOL    HW172869  10.338  10.114   9.890 -0.9400 -1.5346 -1.7853
22302SOL    HW272870  10.204  10.174   9.852 -1.5732  0.6696  3.0647
22303SOL     OW72871   5.851   2.864   4.431  0.4993  0.1846  0.0491
22303SOL    HW172872   5.770   2.815   4.445  1.0806 -0.7954  0.1351
22303SOL    HW272873   5.875   2.897   4.518  1.1646 -1.1347  0.3947
22304SOL     OW72874  12.267   9.010  10.371  0.3141 -0.5617 -0.2143
22304SOL    HW172875  12.261   8.940  10.436 -0.3440  0.8224  1.2992
22304SOL    HW272876  12.263   9.090  10.423 -0.7648  0.6091 -2.0273
22305SOL     OW72877   4.528   5.476   3.848  0.0611 -0.7096 -0.2248
22305SOL    HW172878   4.515   5.551   3.791  0.2686  0.7238  1.5060
22305SOL    HW272879   4.622   5.461   3.848 -0.1406 -2.4741 -2.2961
22306SOL     OW72880   6.711   0.722   4.385  0.3419 -0.1232  0.4228
22306SOL    HW172881   6.699   0.660   4.313  0.0052 -0.0770  0.4370
22306SOL    HW272882   6.652   0.691   4.454  0.8405 -0.3084  0.7723
22307SOL     OW72883   8.896  10.606   2.690 -0.1458  0.0810  0.3128
22307SOL    HW172884   8.937  10.584   2.773  0.6072  0.8736  0.1665
22307SOL    HW272885   8.951  10.676   2.654 -0.7030  0.0398 -0.6502
22308SOL     OW72886   8.905   6.102   3.795  0.1603 -0.0549  0.5357
22308SOL    HW172887   8.986   6.085   3.844  0.7973  1.5452  0.1174
22308SOL    HW272888   8.936   6.132   3.709 -0.8726  0.7240  0.4219
22309SOL     OW72889   3.855   3.026  10.258  0.0918  0.1313  0.3553
22309SOL    HW172890   3.939   3.065  10.281 -0.3473  1.8759 -0.8379
22309SOL    HW272891   3.802   3.036  10.338 -0.2275  2.7310 -0.0842
22310SOL     OW72892   4.407   1.206   4.211 -0.4968  0.2784  0.5950
22310SOL    HW172893   4.431   1.117   4.186 -0.9793 -0.1885  1.7169
22310SOL    HW272894   4.330   1.226   4.158 -0.0987  0.2131 -0.0090
22311SOL     OW72895   8.199   5.553   6.882  0.3709  0.0370 -0.1312
22311SOL    HW172896   8.131   5.528   6.819  0.6547 -0.3900 -0.2699
22311SOL    HW272897   8.178   5.503   6.960  0.0814  0.4861  0.0851
22312SOL     OW72898   5.102   3.945  11.027 -0.2886  0.4619 -0.5952
22312SOL    HW172899   5.084   3.979  10.939 -1.6429  0.0473 -0.4970
22312SOL    HW272900   5.032   3.882  11.043  1.2897 -1.2633 -0.1618
22313SOL     OW72901   3.859   6.283   1.428  0.3933  0.4780 -0.2033
22313SOL    HW172902   3.767   6.263   1.443  0.6315 -1.2584 -0.8109
22313SOL    HW272903   3.870   6.273   1.333  0.6073  3.5579 -0.6176
22314SOL     OW72904   9.341   9.206  11.813  0.5867  0.3945 -0.6258
22314SOL    HW172905   9.348   9.182  11.721 -1.4725 -2.8116 -0.1084
22314SOL    HW272906   9.423   9.175  11.852  0.0162 -1.5379 -0.8596
22315SOL     OW72907   3.240  10.845   1.869  0.3689 -0.1024 -0.3286
22315SOL    HW172908   3.328  10.870   1.840  0.0229  0.1562 -1.1995
22315SOL    HW272909   3.186  10.922   1.850  0.1988  0.2500  1.4736
22316SOL     OW72910   1.965   2.842   1.195  0.3244  0.2570 -0.6302
22316SOL    HW172911   1.878   2.813   1.166  0.1903 -0.2728  0.2696
22316SOL    HW272912   2.012   2.860   1.114 -0.7649  0.9732 -1.1274
22317SOL     OW72913   7.991  11.535  11.696  0.0465 -0.4675  0.4180
22317SOL    HW172914   8.051  11.460  11.697  0.4877 -0.1416 -0.4731
22317SOL    HW272915   8.014  11.583  11.616 -0.5934  0.3245  0.6974
22318SOL     OW72916   7.316   4.764   9.229  0.6583  0.3682  0.7084
22318SOL    HW172917   7.248   4.831   9.226 -0.3884 -0.6955 -0.8503
22318SOL    HW272918   7.367   4.778   9.149  1.3494  0.2209  1.1182
22319SOL     OW72919   9.278  12.098   6.484  0.5285  0.0941  0.0960
22319SOL    HW172920   9.345  12.137   6.540 -0.9015  3.1155 -0.1068
22319SOL    HW272921   9.298  12.133   6.396 -1.9170  2.1548  0.2372
22320SOL     OW72922  11.343   8.839  10.018  0.5142  0.4353  0.3241
22320SOL    HW172923  11.333   8.932  10.036  1.8904  0.6017  0.3763
22320SOL    HW272924  11.379   8.835   9.929  0.0382 -0.0695  0.1465
22321SOL     OW72925   9.289  10.426   3.764  0.3222 -0.0204 -0.1427
22321SOL    HW172926   9.358  10.429   3.698  0.7242 -0.0201  0.2727
22321SOL    HW272927   9.300  10.507   3.814  0.0046 -0.0104 -0.0839
22322SOL     OW72928   1.973   5.979  10.484 -0.2562 -0.4981 -0.3665
22322SOL    HW172929   1.965   5.910  10.550 -0.8541  0.1937  0.3042
22322SOL    HW272930   2.064   5.973  10.454 -0.3746 -1.7572 -0.5420
22323SOL     OW72931   8.230  10.815  10.569  0.0386  0.2912 -0.1154
22323SOL    HW172932   8.151  10.857  10.603  0.4102 -0.1672  1.4055
22323SOL    HW272933   8.297  10.832  10.636  1.3832  1.0714 -1.5726
22324SOL     OW72934   8.523  12.434   3.592 -0.0232 -0.0768 -0.5280
22324SOL    HW172935   8.469  12.473   3.661  0.3600 -0.8795  0.2579
22324SOL    HW272936   8.560  12.356   3.633  2.3057  0.8058 -0.8089
22325SOL     OW72937   2.670   7.834  12.130  0.0963  0.1144 -0.2636
22325SOL    HW172938   2.626   7.751  12.150 -1.5139  1.5332  2.7070
22325SOL    HW272939   2.657   7.846  12.036 -2.4235 -1.5015 -0.2212
22326SOL     OW72940   5.106  10.596   1.422  0.8280 -0.4363 -0.3328
22326SOL    HW172941   5.048  10.659   1.379  0.1125 -2.2470 -2.1534
22326SOL    HW272942   5.133  10.537   1.352  3.0448 -1.0349  0.9347
22327SOL     OW72943  11.277   9.834   8.182  0.2449  0.1275 -0.2211
22327SOL    HW172944  11.229   9.904   8.227  0.0559  1.3074 -2.1495
22327SOL    HW272945  11.226   9.755   8.199 -0.3353  0.7016  0.8139
22328SOL     OW72946   1.037   2.793   9.961  0.0998  0.2593 -0.1137
22328SOL    HW172947   1.037   2.697   9.957  0.4345  0.2769 -0.7301
22328SOL    HW272948   1.123   2.818   9.926 -0.3517  0.8088 -0.8705
22329SOL     OW72949   0.301   2.930  11.946 -0.0271 -0.0617  0.1240
22329SOL    HW172950   0.266   2.966  11.865 -0.5015 -0.0413  0.3354
22329SOL    HW272951   0.395   2.948  11.942 -0.1420  0.4982 -0.1324
22330SOL     OW72952   5.377   4.167   7.476 -0.7022 -0.0320 -0.2969
22330SOL    HW172953   5.431   4.107   7.527 -0.5693 -0.5994 -1.0807
22330SOL    HW272954   5.436   4.239   7.453 -1.1221  0.9602  1.5097
22331SOL     OW72955   7.291  12.371   3.379 -0.1511 -0.5567 -0.5692
22331SOL    HW172956   7.258  12.284   3.399 -1.0567  0.2408  1.7219
22331SOL    HW272957   7.384  12.367   3.399 -0.3184 -0.8430  0.1713
22332SOL     OW72958   7.419  10.343   8.354  0.2754 -0.5965  0.4083
22332SOL    HW172959   7.408  10.379   8.442 -1.1518  0.0303  0.0096
22332SOL    HW272960   7.508  10.366   8.329  0.3374  0.1515  1.2900
22333SOL     OW72961   2.048  11.922   5.639  0.0569  0.1363  0.0909
22333SOL    HW172962   2.085  12.003   5.605 -0.1981 -0.4792 -1.7465
22333SOL    HW272963   2.007  11.880   5.563 -1.2466 -0.9381  1.3132
22334SOL     OW72964   9.821   2.932   8.387  0.5271  0.5858  0.3605
22334SOL    HW172965   9.798   2.874   8.460 -0.2572 -0.1714 -0.4592
22334SOL    HW272966   9.841   2.872   8.315 -1.0665  1.3290 -0.7437
22335SOL     OW72967   3.588  11.520   8.822 -0.3166  0.3680 -0.0147
22335SOL    HW172968   3.651  11.523   8.894  2.0654 -0.4494 -1.9273
22335SOL    HW272969   3.573  11.611   8.798 -0.1546  0.5877  0.7149
22336SOL     OW72970   0.550   5.019   8.631  0.2489 -0.0714  0.3095
22336SOL    HW172971   0.501   4.992   8.709 -0.7350 -2.4026 -1.0219
22336SOL    HW272972   0.635   4.975   8.639 -0.1673 -1.0233 -0.2972
22337SOL     OW72973   1.334   2.895   5.627 -0.0275 -0.8630  0.3153
22337SOL    HW172974   1.403   2.951   5.591  0.2607 -1.0809  0.5362
22337SOL    HW272975   1.324   2.925   5.718  0.9003 -1.9030  0.7838
22338SOL     OW72976   6.980   6.199  11.318 -0.0702 -0.5006 -0.3644
22338SOL    HW172977   7.014   6.206  11.229  0.7909  1.0425  0.0385
22338SOL    HW272978   6.892   6.236  11.313 -1.7708 -4.2001 -1.3431
22339SOL     OW72979   5.576   8.474   8.478 -0.5234  0.1482 -0.7878
22339SOL    HW172980   5.591   8.380   8.483 -0.8864  0.1778  1.7691
22339SOL    HW272981   5.490   8.482   8.437 -1.5776 -0.7793  1.1191
22340SOL     OW72982  11.987   3.136  12.450  0.3551 -0.1996  0.1247
22340SOL    HW172983  11.962   3.203  12.388  0.4295 -0.4974 -0.2302
22340SOL    HW272984  12.016   3.062  12.396  2.4425  0.2810  0.5040
22341SOL     OW72985   7.342   0.715   3.936 -0.2610  0.3523 -0.0167
22341SOL    HW172986   7.318   0.626   3.911  1.0775  0.4410 -1.7314
22341SOL    HW272987   7.437   0.718   3.930 -0.2836  1.9582 -0.1614
22342SOL     OW72988  12.118   9.629   2.737  0.1096 -0.0025  0.5408
22342SOL    HW172989  12.188   9.589   2.788 -1.4107 -1.9130  1.2591
22342SOL    HW272990  12.142   9.614   2.646  1.0158  0.0869  0.7587
22343SOL     OW72991   3.344  10.481   4.715 -0.0268 -0.1808 -0.0011
22343SOL    HW172992   3.342  10.576   4.727  0.2634 -0.3348  1.4694
22343SOL    HW272993   3.258  10.451   4.746  0.6174 -0.5716  1.4832
22344SOL     OW72994   8.153   2.475   7.130 -0.0346 -0.0039 -0.5057
22344SOL    HW172995   8.107   2.541   7.077  1.3415  1.4117 -0.0216
22344SOL    HW272996   8.183   2.523   7.207 -0.7060 -1.6896  0.8736
22345SOL     OW72997   3.650  11.909  12.491  0.1242 -0.8408 -0.6081
22345SOL    HW172998   3.572  11.962  12.473  0.4046 -0.2498 -0.1302
22345SOL    HW272999   3.672  11.869  12.407 -0.5475 -0.8146 -0.8032
22346SOL     OW73000   8.207  12.259  11.275 -0.1250 -0.2748  0.4038
22346SOL    HW173001   8.167  12.253  11.362 -1.2525  0.9913  0.0020
22346SOL    HW273002   8.299  12.279  11.293 -0.5219  0.8782  1.3280
22347SOL     OW73003   9.647  10.687   0.314  0.4335  0.3366  0.1781
22347SOL    HW173004   9.615  10.776   0.303 -0.1203  0.0815 -0.3233
22347SOL    HW273005   9.742  10.696   0.317  0.4262  0.8496 -0.7955
22348SOL     OW73006   4.318   2.943   7.268 -0.0210  0.5109 -0.0779
22348SOL    HW173007   4.271   2.911   7.191 -2.2834  0.4358  1.2624
22348SOL    HW273008   4.250   2.975   7.327  1.7038  1.4056  1.5437
22349SOL     OW73009   6.867   0.093   9.364  0.2338 -0.0241  0.4624
22349SOL    HW173010   6.931   0.150   9.321 -2.1904  4.2012  1.8317
22349SOL    HW273011   6.799   0.079   9.297  0.3490 -0.4946  0.4408
22350SOL     OW73012   9.888  10.263   0.240 -0.0591  0.0139 -0.0314
22350SOL    HW173013   9.930  10.262   0.325  0.6345 -2.8111 -0.3168
22350SOL    HW273014   9.798  10.291   0.258  0.3392  0.4336  1.4349
22351SOL     OW73015   0.005   5.536   5.650  0.0871 -0.3050 -0.7373
22351SOL    HW173016   0.056   5.596   5.596  0.7258 -0.6160 -0.4949
22351SOL    HW273017  -0.055   5.592   5.698  0.9371  0.1925 -0.2313
22352SOL     OW73018   3.995   4.220   1.793  0.3257  0.3846 -0.0309
22352SOL    HW173019   3.990   4.261   1.879 -0.7845 -0.6192  0.4177
22352SOL    HW273020   4.027   4.131   1.811  2.6832  0.9561 -0.9687
22353SOL     OW73021   9.666  10.887   7.165  0.0669  0.7675  0.1050
22353SOL    HW173022   9.712  10.968   7.183  0.7299  0.2948  0.5961
22353SOL    HW273023   9.595  10.884   7.230  0.5825  0.5371  0.6645
22354SOL     OW73024   7.747   7.824   4.283  0.3891  0.2443  0.5273
22354SOL    HW173025   7.809   7.897   4.276 -0.4901  0.8587 -2.2899
22354SOL    HW273026   7.661   7.864   4.272 -0.0708 -1.2013 -2.0489
22355SOL     OW73027   9.668   1.722   7.175 -0.2806 -0.0017  0.2955
22355SOL    HW173028   9.713   1.641   7.196  1.5254  0.6617 -0.7562
22355SOL    HW273029   9.686   1.780   7.249 -1.0590 -0.3459  0.7645
22356SOL     OW73030   0.007   8.141   3.834  0.0795 -0.1004 -0.6651
22356SOL    HW173031  -0.043   8.203   3.887 -0.6400 -1.3376  0.1498
22356SOL    HW273032   0.044   8.194   3.763 -0.6478  1.2147 -0.0870
22357SOL     OW73033   0.049   1.506  11.714  0.1855 -0.2359  0.6853
22357SOL    HW173034   0.059   1.579  11.652 -0.5668 -1.8031 -1.3917
22357SOL    HW273035   0.136   1.465  11.717 -0.3062 -1.5682 -1.2887
22358SOL     OW73036  11.183   4.940   0.164  0.1793  0.2424  0.3312
22358SOL    HW173037  11.247   4.989   0.215  1.4164  0.3386 -1.2222
22358SOL    HW273038  11.171   4.858   0.213  1.4738  0.2354  0.6756
22359SOL     OW73039   3.616   9.667   1.375 -0.1304  0.1625  0.1425
22359SOL    HW173040   3.705   9.700   1.359  0.3133  0.7955  3.3124
22359SOL    HW273041   3.629   9.581   1.415 -1.0907 -0.7890 -1.4587
22360SOL     OW73042   3.173  11.134   0.284 -0.0360  0.4059 -0.4218
22360SOL    HW173043   3.086  11.094   0.289 -0.2728  0.8452 -0.9077
22360SOL    HW273044   3.233  11.064   0.307 -0.4535 -0.1847 -1.1139
22361SOL     OW73045   7.680   1.516   1.257  0.2192 -0.0009 -0.1769
22361SOL    HW173046   7.771   1.527   1.285 -0.1084  2.6314  0.1174
22361SOL    HW273047   7.686   1.481   1.168  1.4884 -0.4423  0.0558
22362SOL     OW73048   4.633   7.479   2.171  0.7930 -0.5828  0.1441
22362SOL    HW173049   4.562   7.475   2.107 -0.5885 -0.6077  1.6295
22362SOL    HW273050   4.693   7.409   2.143  0.0944 -0.7773 -0.9559
22363SOL     OW73051   1.835   8.641   5.961  0.4680  0.0823  0.5363
22363SOL    HW173052   1.891   8.718   5.974  1.3132 -0.5198  0.5681
22363SOL    HW273053   1.819   8.608   6.050  1.6461 -0.8273  0.4414
22364SOL     OW73054   5.614  11.687   0.631  0.1561  0.7866 -0.1025
22364SOL    HW173055   5.599  11.717   0.541  0.3283  3.3827  0.6313
22364SOL    HW273056   5.530  11.649   0.658  0.0145  0.2586 -1.2420
22365SOL     OW73057   1.266   0.224   5.265  0.1276 -0.1102 -0.0318
22365SOL    HW173058   1.301   0.168   5.196  1.2656 -0.7204  1.0054
22365SOL    HW273059   1.288   0.313   5.238  0.6130 -0.3485 -0.4308
22366SOL     OW73060   4.861   1.965   2.466  0.1436 -0.3581 -0.0455
22366SOL    HW173061   4.842   1.921   2.549 -1.7587 -0.9847 -0.7579
22366SOL    HW273062   4.797   2.035   2.460 -0.6399 -1.1517 -1.5588
22367SOL     OW73063   8.359   4.389   6.166 -0.1472 -0.7660 -0.1647
22367SOL    HW173064   8.438   4.344   6.195  0.2061 -0.3543 -0.4801
22367SOL    HW273065   8.358   4.377   6.071  1.3567  2.0578 -0.6339
22368SOL     OW73066   1.405   1.858  12.165 -0.1455  0.2179 -0.2838
22368SOL    HW173067   1.500   1.847  12.163 -0.1494  0.2891 -1.3916
22368SOL    HW273068   1.391   1.948  12.137 -0.5188  0.3626  0.3676
22369SOL     OW73069   5.462   9.899   5.005 -0.0068  0.1445  0.3173
22369SOL    HW173070   5.396   9.840   4.968  0.0039  0.3279  0.0028
22369SOL    HW273071   5.513   9.844   5.065  0.4521 -0.3474 -0.5018
22370SOL     OW73072   4.303  10.868  10.722 -0.7542 -0.2327  0.0007
22370SOL    HW173073   4.314  10.777  10.696  1.2862 -0.3661  1.0959
22370SOL    HW273074   4.217  10.871  10.763 -0.6333 -1.8249  0.4533
22371SOL     OW73075   7.556   0.797   5.912  0.1307 -0.7175 -0.4279
22371SOL    HW173076   7.556   0.874   5.968 -2.6087 -0.0905 -1.1692
22371SOL    HW273077   7.514   0.728   5.964  0.9964 -1.2420 -0.3970
22372SOL     OW73078   8.911   6.802   7.875  0.1019 -0.2697 -0.2535
22372SOL    HW173079   8.874   6.886   7.901 -1.3709 -0.8727 -0.2889
22372SOL    HW273080   8.896   6.796   7.781  0.0126 -0.6460 -0.2205
22373SOL     OW73081   5.069   1.897  10.780 -0.4829  0.0647 -0.5190
22373SOL    HW173082   5.117   1.828  10.734 -0.1783 -0.7344  0.9405
22373SOL    HW273083   5.075   1.873  10.872  0.0145  2.2675  0.0933
22374SOL     OW73084   4.015   5.898   3.362  0.8346 -0.0747  0.1950
22374SOL    HW173085   3.927   5.929   3.341  0.7097 -1.2914 -1.2785
22374SOL    HW273086   4.072   5.973   3.347 -0.0098  1.0400  2.1571
22375SOL     OW73087   3.730   5.277  11.467 -0.4781 -0.0522 -0.4338
22375SOL    HW173088   3.673   5.200  11.460 -0.5457 -0.1796  1.2897
22375SOL    HW273089   3.674   5.345  11.504  0.1707  0.1870  0.1107
22376SOL     OW73090   3.470   8.792   4.711 -0.3625  0.4757  1.3102
22376SOL    HW173091   3.442   8.866   4.656 -1.7706 -1.3052 -0.5457
22376SOL    HW273092   3.390   8.765   4.756 -0.4209 -1.1885  0.3075
22377SOL     OW73093   7.672   3.359  10.414 -0.4208 -0.4246  0.2180
22377SOL    HW173094   7.577   3.371  10.415 -0.4073  0.3962 -2.2666
22377SOL    HW273095   7.686   3.289  10.350  0.6947  0.5524 -0.6537
22378SOL     OW73096   5.015   3.881  10.592 -0.0760 -0.2363 -0.3443
22378SOL    HW173097   5.029   3.903  10.500  0.2223 -0.7888 -0.4336
22378SOL    HW273098   4.947   3.814  10.590  0.2624 -0.5877 -0.1987
22379SOL     OW73099   7.955   9.607  10.937 -0.4370  0.5610  0.4304
22379SOL    HW173100   7.937   9.590  11.030  0.8979  0.8370  0.7610
22379SOL    HW273101   8.031   9.552  10.918 -1.6584 -0.7205 -0.9439
22380SOL     OW73102   4.532   1.596   4.965  0.1270  0.1034  0.3015
22380SOL    HW173103   4.451   1.581   5.013 -0.7034  0.3204 -0.9840
22380SOL    HW273104   4.601   1.586   5.030 -0.8457 -1.4971  1.1390
22381SOL     OW73105   9.104  10.004   5.457  0.4912 -0.2426 -0.1742
22381SOL    HW173106   9.149  10.089   5.459 -0.9250  0.5313  1.1819
22381SOL    HW273107   9.090   9.986   5.364  1.5880  0.5736 -0.5142
22382SOL     OW73108   3.783   4.906   6.626  0.1452 -0.2012 -0.0392
22382SOL    HW173109   3.797   4.840   6.558  0.1882 -0.1500 -0.0812
22382SOL    HW273110   3.853   4.891   6.689  0.5462  0.2096 -0.3722
22383SOL     OW73111   4.729  11.861   3.685 -0.5224 -0.3590 -0.0836
22383SOL    HW173112   4.657  11.861   3.622  0.3459 -0.6100 -1.1138
22383SOL    HW273113   4.799  11.909   3.641  0.0620 -0.4233  0.7531
22384SOL     OW73114  10.598   0.520  10.014 -0.2353 -0.3491  0.2387
22384SOL    HW173115  10.583   0.476  10.098 -0.5953 -1.5290 -0.4288
22384SOL    HW273116  10.677   0.573  10.029 -0.7543  0.0918  1.5574
22385SOL     OW73117   2.274  11.972   0.528 -0.1749  0.3126  0.0582
22385SOL    HW173118   2.225  11.993   0.607  2.5642 -0.4192  2.0949
22385SOL    HW273119   2.284  12.056   0.483 -2.3138  0.6353  0.0622
22386SOL     OW73120   6.361   0.316   4.926  0.1093 -0.0032  0.0433
22386SOL    HW173121   6.375   0.234   4.974  0.2023  0.2594  0.4652
22386SOL    HW273122   6.441   0.366   4.939 -0.3372  0.5728  0.6132
22387SOL     OW73123   9.568   2.945  10.180  0.1933 -0.3919 -0.3310
22387SOL    HW173124   9.574   3.026  10.230  0.3728 -1.0990  0.8349
22387SOL    HW273125   9.562   2.876  10.246 -1.7798 -1.2204 -1.2672
22388SOL     OW73126   2.577   0.945   1.836 -0.1723 -0.1204 -0.1210
22388SOL    HW173127   2.483   0.952   1.821 -0.2364  0.1957  0.3786
22388SOL    HW273128   2.587   0.875   1.900  0.1159 -1.6180 -1.7193
22389SOL     OW73129   7.451   0.489   0.252  0.0057  0.2239  0.2323
22389SOL    HW173130   7.458   0.400   0.216  0.0546  1.1287 -2.1697
22389SOL    HW273131   7.541   0.520   0.258  0.0223 -0.0245  1.5245
22390SOL     OW73132   1.296   3.536   7.527  0.2886  0.1875  0.4046
22390SOL    HW173133   1.334   3.608   7.577  0.6399  0.1995  0.1249
22390SOL    HW273134   1.371   3.494   7.484  0.1781 -0.8471  1.2006
22391SOL     OW73135   7.242  10.211   5.741 -0.3744  0.0228  0.2936
22391SOL    HW173136   7.331  10.178   5.735 -1.0089 -1.7692  0.0465
22391SOL    HW273137   7.246  10.281   5.807  0.8359 -1.4667  1.8738
22392SOL     OW73138   2.915   1.956   7.618  0.4185 -0.1991 -0.1963
22392SOL    HW173139   2.930   1.956   7.713 -1.0099  1.0609  0.0628
22392SOL    HW273140   3.003   1.955   7.580  1.0397  0.6379  1.1478
22393SOL     OW73141   8.692   2.764   3.950 -0.0239  0.1768 -0.2725
22393SOL    HW173142   8.772   2.817   3.957  0.1509 -0.0986 -0.1332
22393SOL    HW273143   8.663   2.754   4.041 -0.9935  1.4342 -0.4200
22394SOL     OW73144  12.013  10.661   0.019  0.4369 -0.4667  0.5036
22394SOL    HW173145  12.106  10.682   0.017  0.1225  0.9971  0.3350
22394SOL    HW273146  11.997  10.612  -0.062  0.7536  0.6886 -0.2740
22395SOL     OW73147   9.986   5.677   5.517  0.3772 -0.8798 -0.4231
22395SOL    HW173148   9.998   5.630   5.434  0.0060 -0.9625 -0.4329
22395SOL    HW273149   9.921   5.625   5.564 -0.2923 -0.2033 -0.5707
22396SOL     OW73150   7.104   7.331  12.132 -0.4547  0.1172 -0.3141
22396SOL    HW173151   7.012   7.346  12.154 -0.9605 -1.2546 -1.3149
22396SOL    HW273152   7.140   7.284  12.207 -0.7934 -0.0265 -0.2403
22397SOL     OW73153  10.517   5.796   2.542  0.3837 -0.2324 -0.2861
22397SOL    HW173154  10.508   5.867   2.479  0.7715 -1.2258 -1.5019
22397SOL    HW273155  10.452   5.731   2.515  1.0064 -0.9621 -0.0696
22398SOL     OW73156   4.886  11.995   7.527 -0.4236 -0.0757 -0.1270
22398SOL    HW173157   4.981  11.982   7.534 -0.3310  1.0595  1.0775
22398SOL    HW273158   4.852  11.963   7.611 -1.1014 -0.3561 -0.5037
22399SOL     OW73159   5.128   9.782   2.364  0.4528  0.0125  0.5608
22399SOL    HW173160   5.060   9.745   2.420 -1.5452  1.2710 -0.8809
22399SOL    HW273161   5.197   9.716   2.363 -0.5164 -1.1312  2.4504
22400SOL     OW73162   4.248   7.135   8.174 -0.2592 -0.1381 -0.2863
22400SOL    HW173163   4.311   7.198   8.140  0.8696 -0.3766  1.2871
22400SOL    HW273164   4.164   7.180   8.169  0.4301  1.2336  0.1571
22401SOL     OW73165  10.669   0.338   7.255 -0.6459  0.1090 -0.1848
22401SOL    HW173166  10.724   0.414   7.276 -0.7700  0.5936 -1.5204
22401SOL    HW273167  10.609   0.369   7.188 -0.6971 -1.1656 -0.7677
22402SOL     OW73168   0.635  11.299   6.263  0.3820 -0.2534  0.0819
22402SOL    HW173169   0.698  11.264   6.327  0.2078 -0.0838  0.3497
22402SOL    HW273170   0.667  11.387   6.243 -0.5443  0.3932  1.3122
22403SOL     OW73171   5.061   4.329  11.780 -0.3029  0.1718  0.2006
22403SOL    HW173172   5.054   4.234  11.790 -0.0575  0.0288 -0.8125
22403SOL    HW273173   5.050   4.343  11.686 -1.4653  1.2539  0.4795
22404SOL     OW73174   6.543   9.808   5.584  0.2077  0.2398 -0.5769
22404SOL    HW173175   6.578   9.742   5.644  0.2585 -1.1759 -2.0654
22404SOL    HW273176   6.449   9.809   5.602 -0.0470 -1.4570 -1.5915
22405SOL     OW73177   8.710   5.189   7.274  0.0304 -0.0979  0.0435
22405SOL    HW173178   8.743   5.260   7.219 -0.1645  0.5958  0.8099
22405SOL    HW273179   8.615   5.189   7.259 -0.0561  0.2629  0.5651
22406SOL     OW73180   8.106   8.647   6.251  0.1241  0.4492  0.2171
22406SOL    HW173181   8.153   8.727   6.227 -0.8352  1.1137  0.4639
22406SOL    HW273182   8.162   8.605   6.317  0.5754  0.9882  0.1850
22407SOL     OW73183  10.929  11.930   1.823 -0.2850  0.9282 -0.3183
22407SOL    HW173184  10.947  11.879   1.744 -1.1292  0.4974 -0.2341
22407SOL    HW273185  10.883  12.008   1.791 -0.8574  0.6296 -0.2270
22408SOL     OW73186   4.805   6.024   7.624 -0.2089 -0.1698  0.2997
22408SOL    HW173187   4.772   6.062   7.542 -0.8061 -1.0870  0.0925
22408SOL    HW273188   4.885   5.978   7.598 -0.3148 -0.3303  0.2540
22409SOL     OW73189   1.449   1.561   8.490  0.0630  0.9278 -0.8380
22409SOL    HW173190   1.456   1.631   8.425  1.3957  2.3503  0.7367
22409SOL    HW273191   1.536   1.521   8.491 -0.2291  0.2891 -0.5963
22410SOL     OW73192   9.685   9.765   1.775  0.0483  0.1000  0.7094
22410SOL    HW173193   9.722   9.696   1.831  0.4958  0.2617  0.6217
22410SOL    HW273194   9.741   9.841   1.791  0.1872  0.1428  0.0330
22411SOL     OW73195   9.545   4.385  10.337  0.0382  0.3576  0.2859
22411SOL    HW173196   9.504   4.458  10.291 -2.5399 -0.2857  1.3698
22411SOL    HW273197   9.500   4.308  10.304 -1.4427 -0.1774  3.2708
22412SOL     OW73198   6.264  12.457   0.658 -0.6979  0.1562  0.5651
22412SOL    HW173199   6.227  12.377   0.696  0.1178 -1.8065 -2.4411
22412SOL    HW273200   6.210  12.475   0.581  0.3794  1.2804  0.0374
22413SOL     OW73201   1.453  10.292   2.898 -0.2014  0.0957 -0.1579
22413SOL    HW173202   1.532  10.252   2.862 -0.1977 -0.6970  0.6844
22413SOL    HW273203   1.386  10.276   2.833  0.7578  2.7814 -1.9907
22414SOL     OW73204   7.557   9.036   9.140  0.4084  0.0700 -0.2292
22414SOL    HW173205   7.467   9.041   9.108 -0.1233 -1.2548  0.9114
22414SOL    HW273206   7.556   8.962   9.202  1.9529  0.8652  0.8240
22415SOL     OW73207   2.270  10.041  10.457  0.1351 -0.6952  0.1134
22415SOL    HW173208   2.318  10.067  10.535 -0.0103  0.1275 -0.0620
22415SOL    HW273209   2.289  10.109  10.392 -0.2451 -1.0313 -0.3670
22416SOL     OW73210   2.485   8.808  11.104 -0.1025 -0.1254  0.1482
22416SOL    HW173211   2.556   8.835  11.163 -0.4539  1.1496  0.0088
22416SOL    HW273212   2.453   8.726  11.142  2.7049 -1.8545 -0.8645
22417SOL     OW73213  10.359   6.980   3.783  0.3355 -1.0252 -0.8301
22417SOL    HW173214  10.274   7.014   3.811  1.2228 -0.6176  1.6929
22417SOL    HW273215  10.350   6.963   3.690 -1.8597  0.9590 -1.0522
22418SOL     OW73216  10.027   3.928   6.282 -0.3236 -0.2794 -0.5077
22418SOL    HW173217   9.978   3.849   6.260 -0.1979 -0.6390  0.4573
22418SOL    HW273218   9.962   3.998   6.282 -0.3070 -0.2319 -2.1016
22419SOL     OW73219   6.991   6.644  12.287  0.6310  0.1964 -0.5100
22419SOL    HW173220   7.019   6.645  12.195  1.4839 -0.2711 -0.2688
22419SOL    HW273221   7.062   6.600  12.333  0.0007  0.0203  0.3152
22420SOL     OW73222  11.661   8.673  10.499 -0.1378 -0.1662  0.3511
22420SOL    HW173223  11.690   8.757  10.461  0.0810  0.1292  1.1477
22420SOL    HW273224  11.617   8.698  10.580  2.0725 -0.9529  1.8754
22421SOL     OW73225   3.944   2.443   6.028 -0.0759  0.3427  0.1637
22421SOL    HW173226   4.016   2.487   6.074  0.3731  0.1139 -0.3142
22421SOL    HW273227   3.931   2.362   6.076 -1.4391  1.3307  1.5360
22422SOL     OW73228  11.917   8.077   7.712  0.1366  0.0499 -0.3753
22422SOL    HW173229  11.840   8.057   7.766  0.9707  0.6523  1.1067
22422SOL    HW273230  11.884   8.133   7.643 -0.3602  2.7797  1.9073
22423SOL     OW73231   3.693   3.870   8.666 -0.3714 -0.0782 -0.2608
22423SOL    HW173232   3.745   3.951   8.670  0.3595 -0.4983 -0.9627
22423SOL    HW273233   3.605   3.899   8.641  0.1117  0.4253 -1.4712
22424SOL     OW73234   6.485   7.821   8.360 -0.0318  0.8423 -0.0439
22424SOL    HW173235   6.408   7.795   8.310 -0.2822 -0.4140  0.9407
22424SOL    HW273236   6.471   7.914   8.379 -0.4867  1.0417 -1.2771
22425SOL     OW73237   2.760   8.385  12.276  0.0367 -0.4463 -0.4207
22425SOL    HW173238   2.682   8.432  12.305  0.5578  0.7512 -0.8765
22425SOL    HW273239   2.767   8.405  12.182  2.0041  1.2326 -0.0075
22426SOL     OW73240   6.617   0.571   4.595 -0.2691  0.4209 -0.1616
22426SOL    HW173241   6.572   0.616   4.666  1.1916  1.4314  0.1714
22426SOL    HW273242   6.618   0.479   4.621  0.5425  0.8281  1.3126
22427SOL     OW73243   3.695   9.638   7.845  0.1436 -0.5266 -0.6796
22427SOL    HW173244   3.745   9.604   7.771  0.0696  1.0982 -1.5258
22427SOL    HW273245   3.738   9.602   7.922  2.0803  0.1013 -1.4110
22428SOL     OW73246   2.532  10.660   4.066  0.3237  0.5458 -0.1584
22428SOL    HW173247   2.500  10.588   4.121 -1.1058  1.8788  0.8542
22428SOL    HW273248   2.612  10.690   4.110 -0.0680  0.7259  0.4464
22429SOL     OW73249   1.704   1.206   8.398  0.1308 -0.1404 -0.2767
22429SOL    HW173250   1.788   1.159   8.399  0.9259  1.1027 -2.1085
22429SOL    HW273251   1.724   1.292   8.435  0.3465  1.0317 -2.8570
22430SOL     OW73252   8.115   7.403   7.928 -0.5924 -0.2491  0.5112
22430SOL    HW173253   8.021   7.421   7.927 -0.2977  1.4989  0.9605
22430SOL    HW273254   8.122   7.309   7.945 -2.2579 -0.5676 -0.3371
22431SOL     OW73255   1.887   9.316  10.663  0.1231  0.4754 -0.3466
22431SOL    HW173256   1.798   9.331  10.696  0.9264  0.7732  1.8456
22431SOL    HW273257   1.920   9.244  10.717  1.8973  1.7030  0.2783
22432SOL     OW73258   2.750  10.743   9.671 -0.0217  0.2473 -0.1986
22432SOL    HW173259   2.793  10.829   9.675 -1.5507  1.0415 -0.2098
22432SOL    HW273260   2.726  10.733   9.579 -0.1443 -0.0427 -0.1343
22433SOL     OW73261  10.039  10.652  11.615  0.1246 -0.0032  0.1316
22433SOL    HW173262   9.976  10.724  11.608 -0.0442 -0.1223  0.3958
22433SOL    HW273263  10.039  10.612  11.529  1.9633  1.7334 -0.7523
22434SOL     OW73264   0.490   0.997  12.174 -0.9760  0.1703 -0.6407
22434SOL    HW173265   0.430   0.937  12.219  0.0210  0.5375  1.2964
22434SOL    HW273266   0.498   0.961  12.086 -1.1193 -2.0506  0.1808
22435SOL     OW73267  10.993   7.550   6.885 -0.7522 -0.0367  0.0753
22435SOL    HW173268  11.006   7.464   6.924 -2.9770 -0.3541  0.2321
22435SOL    HW273269  10.946   7.533   6.803 -0.9560  0.9955 -0.0419
22436SOL     OW73270   0.705  10.982  10.825  0.1784  0.6935 -0.3081
22436SOL    HW173271   0.624  11.032  10.820  0.1404  0.8577  1.3380
22436SOL    HW273272   0.712  10.957  10.917  1.7652  0.2951 -0.5070
22437SOL     OW73273   0.093  11.703   5.466  0.0998 -0.1855  0.2817
22437SOL    HW173274   0.113  11.759   5.391  2.7776 -2.8553 -1.2427
22437SOL    HW273275   0.165  11.718   5.527  0.1633 -1.0097  0.4202
22438SOL     OW73276   1.257   2.865  11.196  0.0481 -0.6376 -0.3897
22438SOL    HW173277   1.212   2.949  11.187  1.7797  0.1579 -2.7583
22438SOL    HW273278   1.315   2.875  11.271 -0.0011  0.1555 -0.4572
22439SOL     OW73279  10.802   6.468   0.209 -0.2187  0.0989  0.0735
22439SOL    HW173280  10.733   6.417   0.253 -0.9859  1.6938  0.7872
22439SOL    HW273281  10.853   6.506   0.280  0.7936 -0.2274 -0.4592
22440SOL     OW73282   2.906  10.163   6.386 -0.0461 -0.6744 -0.1990
22440SOL    HW173283   2.988  10.141   6.341  0.1454 -0.9052  0.2613
22440SOL    HW273284   2.869  10.234   6.333  0.2905 -0.7869 -0.5932
22441SOL     OW73285  10.136   0.291   6.966  0.0353  0.0316  0.2250
22441SOL    HW173286  10.136   0.247   7.051 -0.4517  2.5834  1.6734
22441SOL    HW273287  10.156   0.383   6.987  0.1968  0.7005 -2.4734
22442SOL     OW73288   8.974  10.654   0.219 -0.1462  0.3573  0.1667
22442SOL    HW173289   8.914  10.595   0.174 -0.3527 -0.0811  0.9993
22442SOL    HW273290   8.920  10.728   0.246 -0.2549  0.1072  0.6449
22443SOL     OW73291   2.612   0.804  11.426 -0.1508  0.0586  0.2734
22443SOL    HW173292   2.655   0.880  11.465 -2.0129  1.5287 -0.3753
22443SOL    HW273293   2.684   0.747  11.399  1.4695  2.6378 -1.3153
22444SOL     OW73294  11.933   3.668   8.030  0.0765  0.1890 -0.2969
22444SOL    HW173295  11.923   3.644   8.123  0.7722 -1.2612 -0.5681
22444SOL    HW273296  12.028   3.677   8.019 -0.0291  0.7068 -0.7993
22445SOL     OW73297   6.161   9.087  11.637  0.5149  0.1576  0.0692
22445SOL    HW173298   6.147   8.999  11.602 -2.2480  0.3958  0.3571
22445SOL    HW273299   6.158   9.075  11.732  0.9003  0.4826  0.1236
22446SOL     OW73300   6.437   7.677   2.346  0.2240  0.4623  0.7204
22446SOL    HW173301   6.521   7.635   2.364  0.0039 -0.1330  0.4030
22446SOL    HW273302   6.453   7.732   2.269  0.2872  0.2270  0.5638
22447SOL     OW73303   5.460   7.550   0.832 -0.1833 -0.0996  0.4270
22447SOL    HW173304   5.412   7.469   0.818  1.0879 -0.7118 -0.6078
22447SOL    HW273305   5.537   7.543   0.775  0.6520  1.2360  1.3174
22448SOL     OW73306   0.416   2.371   8.655 -0.2243  0.1530  0.0432
22448SOL    HW173307   0.466   2.310   8.708 -0.6777 -1.1532 -0.9878
22448SOL    HW273308   0.457   2.368   8.569 -1.9097 -0.8032 -0.7771
22449SOL     OW73309   4.229   1.798   6.994  0.3997 -0.4263 -0.3981
22449SOL    HW173310   4.316   1.778   6.960 -0.3365 -2.0556 -1.4528
22449SOL    HW273311   4.184   1.841   6.921  0.1438 -0.0618 -0.0322
22450SOL     OW73312   4.814  10.204   5.219  0.3785  0.3318  0.0136
22450SOL    HW173313   4.816  10.299   5.209 -0.3210  0.3198 -0.2544
22450SOL    HW273314   4.903  10.182   5.246  0.5597  1.0564  0.0440
22451SOL     OW73315   1.998   1.382  10.644  0.3366  0.7194 -0.1030
22451SOL    HW173316   2.013   1.308  10.703 -0.1609  0.4466 -0.3171
22451SOL    HW273317   1.917   1.421  10.676 -1.4185 -0.9929 -2.1712
22452SOL     OW73318  10.911  10.775   5.684  0.0388  0.3127  0.4007
22452SOL    HW173319  10.893  10.838   5.754 -0.4592  0.2046  0.3706
22452SOL    HW273320  10.942  10.697   5.730 -1.6821 -0.2770  0.6245
22453SOL     OW73321   8.767   9.407   5.718 -0.1725 -0.0324  0.5271
22453SOL    HW173322   8.818   9.342   5.767  4.1004  0.4328 -2.6780
22453SOL    HW273323   8.758   9.481   5.779  0.3786 -1.3234  2.2515
22454SOL     OW73324   7.554   6.178  11.501 -0.1074 -0.1256 -0.4225
22454SOL    HW173325   7.536   6.248  11.439 -0.7400 -0.3818 -0.5348
22454SOL    HW273326   7.480   6.118  11.492  0.8850 -1.3114 -1.0341
22455SOL     OW73327   0.563   1.838  11.844 -0.0774 -0.3394  0.2090
22455SOL    HW173328   0.550   1.744  11.834 -3.3167 -0.0585  0.7282
22455SOL    HW273329   0.567   1.872  11.755  1.3485 -0.9490  0.0173
22456SOL     OW73330   7.670   9.481   7.221 -0.5157  0.1500  0.6386
22456SOL    HW173331   7.715   9.458   7.140  1.1702 -0.7947  1.7911
22456SOL    HW273332   7.667   9.577   7.221  0.2245  0.1752 -0.1435
22457SOL     OW73333   2.246   2.757  11.510 -0.0885 -0.2648  0.0719
22457SOL    HW173334   2.210   2.755  11.421 -1.0640 -1.1869  0.4729
22457SOL    HW273335   2.169   2.770  11.566  0.1987 -2.1306  0.9462
22458SOL     OW73336   2.692  10.667   8.038 -0.7552 -0.0152  0.2768
22458SOL    HW173337   2.773  10.677   7.987 -0.3336 -0.2312  0.8921
22458SOL    HW273338   2.703  10.583   8.083 -1.0529  0.2432  0.8433
22459SOL     OW73339   8.978   4.129   9.503 -0.0391 -0.8415  0.5877
22459SOL    HW173340   8.934   4.162   9.581 -1.6622 -2.6836  0.5351
22459SOL    HW273341   8.985   4.034   9.518  0.7154 -1.0603 -0.9760
22460SOL     OW73342   0.448   7.155   7.797  0.3040  0.2246  0.0952
22460SOL    HW173343   0.355   7.178   7.805  0.1490 -0.0288 -0.8577
22460SOL    HW273344   0.481   7.211   7.727  0.5480 -0.5714 -0.4524
22461SOL     OW73345   5.425   6.324   3.003 -0.4716 -0.1552  0.4322
22461SOL    HW173346   5.467   6.383   2.941  0.6490 -1.8651 -0.5086
22461SOL    HW273347   5.334   6.354   3.007  0.5012  2.9796  1.7277
22462SOL     OW73348   3.286  10.736   3.531 -0.4877 -0.0567 -0.1264
22462SOL    HW173349   3.310  10.805   3.468  1.2940 -0.4612  0.0617
22462SOL    HW273350   3.252  10.665   3.477  2.0158 -0.8304 -0.8280
22463SOL     OW73351   8.778   8.617   8.586  0.0139 -0.0129 -0.4761
22463SOL    HW173352   8.710   8.614   8.520  0.0417  2.0663 -0.6892
22463SOL    HW273353   8.850   8.566   8.550 -1.3045 -2.0425 -0.3402
22464SOL     OW73354   9.268   7.716   4.263 -0.5228 -0.4707 -0.2990
22464SOL    HW173355   9.261   7.673   4.178 -0.4877  0.2451 -0.6740
22464SOL    HW273356   9.188   7.692   4.309 -1.7612  1.1283 -1.4806
22465SOL     OW73357  10.170   5.999   7.399  0.2335 -0.0959 -0.0028
22465SOL    HW173358  10.177   6.082   7.447  0.2954  0.4098 -0.8555
22465SOL    HW273359  10.085   5.964   7.424 -0.8800  1.4129 -1.3950
22466SOL     OW73360   7.375   0.988   6.298 -0.1542  0.1021  0.3681
22466SOL    HW173361   7.403   1.074   6.331 -2.2518  0.7339  0.6767
22466SOL    HW273362   7.285   0.979   6.329 -0.8808 -1.0686 -1.8514
22467SOL     OW73363   8.397   4.098   8.528 -0.2160 -0.2023 -0.6711
22467SOL    HW173364   8.364   4.188   8.528 -0.4314 -0.1999 -3.3786
22467SOL    HW273365   8.388   4.069   8.437  1.3092 -2.4344 -0.1946
22468SOL     OW73366  11.873   7.244  10.028  0.0455 -0.1101  0.0203
22468SOL    HW173367  11.783   7.276  10.033  0.6662  1.7720  0.2421
22468SOL    HW273368  11.881   7.180  10.098 -0.8071  0.6043  0.7864
22469SOL     OW73369   2.188   5.100   7.021  0.4523  0.9083 -0.1179
22469SOL    HW173370   2.163   5.179   7.069  0.1131  0.1132  1.0838
22469SOL    HW273371   2.162   5.117   6.931 -1.6428  1.3438  0.5132
22470SOL     OW73372   8.953   4.308   0.541 -0.6030 -0.3213 -0.7466
22470SOL    HW173373   8.994   4.353   0.614 -0.2834 -2.1039  0.2284
22470SOL    HW273374   9.021   4.304   0.474 -0.9071  1.3470 -1.2117
22471SOL     OW73375   3.603  12.400   9.193  0.4938  0.4890  0.2715
22471SOL    HW173376   3.645  12.414   9.108  0.2767  1.4723  0.3185
22471SOL    HW273377   3.663  12.438   9.257  0.1618  0.7121  0.4575
22472SOL     OW73378  10.172  11.557   4.832  0.2590  0.2971  0.6848
22472SOL    HW173379  10.172  11.629   4.769  0.9630  1.5881  2.0943
22472SOL    HW273380  10.116  11.588   4.904  1.0024 -0.3221  1.5513
22473SOL     OW73381   9.412  10.854   7.823  0.4331 -0.2497  0.1925
22473SOL    HW173382   9.476  10.877   7.891  2.4611  0.8599 -1.9687
22473SOL    HW273383   9.432  10.913   7.751 -2.1833 -0.8314 -1.1087
22474SOL     OW73384   2.603   2.526   4.714  0.1829 -0.9633  0.9138
22474SOL    HW173385   2.534   2.580   4.674  0.6887 -0.7200  0.3643
22474SOL    HW273386   2.576   2.436   4.696  1.2085 -0.8620 -1.4202
22475SOL     OW73387   5.584   7.610   1.854  0.7203  0.1331  0.1135
22475SOL    HW173388   5.576   7.533   1.797 -0.3299 -0.4853  1.0369
22475SOL    HW273389   5.676   7.612   1.880  0.7128 -0.9730  0.2758
22476SOL     OW73390  11.639   9.163  12.130 -0.5807 -0.2178  0.1497
22476SOL    HW173391  11.696   9.210  12.069  0.6999 -2.2358 -0.3186
22476SOL    HW273392  11.624   9.078  12.088 -0.6450 -1.2193  2.0891
22477SOL     OW73393   1.919   4.178   9.570  0.4652  0.4092 -0.7322
22477SOL    HW173394   1.936   4.102   9.514  0.6240  0.1787 -0.3787
22477SOL    HW273395   1.877   4.141   9.648  2.6570  0.3341  0.5042
22478SOL     OW73396  10.418   4.920   0.568 -0.1533 -0.0135  0.2969
22478SOL    HW173397  10.389   4.851   0.507 -0.1962 -0.9409  1.3443
22478SOL    HW273398  10.340   4.943   0.618  0.0487  0.2244  0.5083
22479SOL     OW73399  11.884   2.375   0.249  0.1843  0.9314 -0.0808
22479SOL    HW173400  11.839   2.300   0.210  1.4320 -0.1507  0.4858
22479SOL    HW273401  11.835   2.395   0.329  0.8340 -0.4430  0.6987
22480SOL     OW73402   0.962   9.913   3.586 -0.3743  0.3752 -0.6209
22480SOL    HW173403   0.961   9.953   3.673 -1.7843 -0.1803 -0.3530
22480SOL    HW273404   0.888   9.852   3.587  1.0150 -1.4284 -1.3904
22481SOL     OW73405  10.525   6.729   7.477  0.1153 -0.0769 -0.8475
22481SOL    HW173406  10.552   6.663   7.541 -1.2359 -0.2834 -0.4662
22481SOL    HW273407  10.510   6.680   7.396 -0.5687 -0.1971 -0.6524
22482SOL     OW73408   9.002  12.442  12.434  0.1185  0.3119  0.6594
22482SOL    HW173409   9.054  12.513  12.471 -0.2773 -0.4553  2.8222
22482SOL    HW273410   9.021  12.366  12.488 -1.1989 -0.6699 -0.1691
22483SOL     OW73411   5.777   0.637   7.756 -0.1693 -0.2926  0.2438
22483SOL    HW173412   5.837   0.582   7.806 -0.5372 -0.2046  0.7914
22483SOL    HW273413   5.721   0.678   7.822 -0.5755 -0.0696 -0.2297
22484SOL     OW73414   3.667   0.270   6.457  0.5282  0.3044 -0.1027
22484SOL    HW173415   3.735   0.310   6.403  0.3198 -1.6213 -1.8900
22484SOL    HW273416   3.585   0.300   6.420  0.3938 -0.3575 -0.3616
22485SOL     OW73417   9.388   7.467   7.472 -0.1236  0.0157  0.1213
22485SOL    HW173418   9.478   7.479   7.440  0.1263  0.3349  0.9137
22485SOL    HW273419   9.345   7.414   7.404  1.5302 -2.8349  1.1124
22486SOL     OW73420   7.687   3.840   3.936 -0.0009  0.0845  0.3208
22486SOL    HW173421   7.738   3.833   4.016 -1.7148  0.9964  1.5370
22486SOL    HW273422   7.618   3.903   3.956 -0.1448  0.8044 -2.0625
22487SOL     OW73423   8.154   8.598   0.511 -0.4854 -0.1235  0.1314
22487SOL    HW173424   8.249   8.591   0.502 -0.4911  0.7348 -0.7255
22487SOL    HW273425   8.120   8.558   0.431 -0.7744  1.4411 -0.5460
22488SOL     OW73426  10.908   3.320   4.649  0.5117  0.1039  0.4031
22488SOL    HW173427  10.865   3.405   4.643  1.3543  0.7372  2.3398
22488SOL    HW273428  10.844   3.263   4.691  1.3858  1.0388  3.2602
22489SOL     OW73429   1.070   2.410  12.115  0.2249  0.0084 -0.6841
22489SOL    HW173430   1.148   2.381  12.161 -0.8237 -1.0254  0.5080
22489SOL    HW273431   1.062   2.350  12.041 -0.4847 -1.1691  0.2996
22490SOL     OW73432  11.398   2.489   8.161  0.0850 -0.3863  0.3537
22490SOL    HW173433  11.473   2.451   8.207  0.5500  0.0911 -0.0056
22490SOL    HW273434  11.327   2.484   8.225  0.5785 -0.2689  0.9293
22491SOL     OW73435  10.448   5.487   5.063  0.2220 -0.7180  0.2754
22491SOL    HW173436  10.526   5.468   5.115  0.2246 -0.2921  0.4357
22491SOL    HW273437  10.437   5.411   5.007  1.5508 -0.2197 -0.7186
22492SOL     OW73438   3.259   5.633   2.123  0.3745  0.3769  0.4307
22492SOL    HW173439   3.263   5.548   2.079 -2.5681  0.8602 -0.9969
22492SOL    HW273440   3.330   5.684   2.084  0.5282 -0.6124 -0.6111
22493SOL     OW73441   0.203   3.264   3.164 -0.1203  0.0953  0.3650
22493SOL    HW173442   0.181   3.172   3.180  0.2937 -0.2089 -0.7090
22493SOL    HW273443   0.298   3.268   3.170 -0.1398  0.4688  0.4758
22494SOL     OW73444   2.572   5.426   4.047 -0.5150 -0.1199  0.5996
22494SOL    HW173445   2.518   5.414   3.969  1.6136  3.1975 -1.6590
22494SOL    HW273446   2.514   5.470   4.109 -1.4451 -0.0764 -0.2688
22495SOL     OW73447  11.800  11.121   9.286 -0.3079  0.1524  0.4981
22495SOL    HW173448  11.731  11.126   9.353 -0.0118  1.8978  0.7227
22495SOL    HW273449  11.882  11.117   9.337 -0.1795 -0.8201  0.2297
22496SOL     OW73450   0.596   4.696  11.186 -0.0503  0.1324  0.1452
22496SOL    HW173451   0.592   4.790  11.206 -0.7562  0.0239  0.5810
22496SOL    HW273452   0.684   4.669  11.212 -0.4484  0.3042  1.8009
22497SOL     OW73453   5.661   7.545   8.699  0.1434  0.1836 -0.4065
22497SOL    HW173454   5.625   7.535   8.611 -0.5596  3.8118 -0.6514
22497SOL    HW273455   5.733   7.607   8.689 -0.7186  1.6339  1.7231
22498SOL     OW73456   0.128   1.635   1.522  0.1582  0.1527 -0.2960
22498SOL    HW173457   0.092   1.723   1.535  0.1436  0.3626 -1.6206
22498SOL    HW273458   0.222   1.649   1.513  0.3994 -0.1965  1.3100
22499SOL     OW73459   4.331  11.214   7.699 -0.1832 -0.1269  0.1264
22499SOL    HW173460   4.411  11.204   7.647  0.2380 -0.6321  0.8586
22499SOL    HW273461   4.260  11.196   7.638  0.2854 -0.1603 -0.4131
22500SOL     OW73462   0.618  10.559   1.932 -0.5179 -0.0859  0.1771
22500SOL    HW173463   0.656  10.624   1.872  1.6735 -0.5452  0.9611
22500SOL    HW273464   0.608  10.606   2.015 -0.0108 -0.4246  0.4346
22501SOL     OW73465   8.823   6.087   1.986 -0.1951 -0.3848 -0.6328
22501SOL    HW173466   8.886   6.024   1.951  1.7809  2.0720 -1.7961
22501SOL    HW273467   8.874   6.140   2.048 -2.4810 -1.6109  2.5930
22502SOL     OW73468   8.333   7.286   6.609 -0.3647  1.0145  0.0984
22502SOL    HW173469   8.263   7.310   6.670 -1.5030 -0.5657 -0.5099
22502SOL    HW273470   8.389   7.226   6.658 -0.6693  0.5857 -0.0757
22503SOL     OW73471  10.311   9.171   7.259  0.4383 -0.0806  0.2309
22503SOL    HW173472  10.288   9.079   7.276  1.2897 -0.2033  0.7764
22503SOL    HW273473  10.287   9.217   7.340 -0.5189  0.2938 -0.2455
22504SOL     OW73474  12.397  10.009   6.504 -0.4186  0.1695 -0.4354
22504SOL    HW173475  12.492  10.008   6.514 -0.4109  0.2563 -0.4913
22504SOL    HW273476  12.383   9.996   6.410 -0.4663  0.0020 -0.4041
22505SOL     OW73477   5.642   1.439   0.151 -0.1990 -0.0356 -0.6271
22505SOL    HW173478   5.702   1.430   0.077  1.1221 -1.6215  0.5557
22505SOL    HW273479   5.589   1.359   0.149 -0.8250  0.3639 -0.4010
22506SOL     OW73480   4.601   6.365  12.454  0.2272  0.4570 -0.3119
22506SOL    HW173481   4.617   6.277  12.487  0.1589 -0.8371 -3.4286
22506SOL    HW273482   4.543   6.353  12.379  1.0695  3.0406 -1.5140
22507SOL     OW73483  10.296  11.962   7.801 -0.3152 -0.4531  0.5341
22507SOL    HW173484  10.351  12.005   7.736 -1.1390  1.1469  0.8558
22507SOL    HW273485  10.212  11.947   7.756 -0.3707 -0.8051  0.7450
22508SOL     OW73486  10.207  10.938  10.209 -0.2250 -0.1498 -0.8991
22508SOL    HW173487  10.218  10.907  10.299 -0.7449 -0.0496 -0.8002
22508SOL    HW273488  10.253  10.873  10.156 -0.3828 -0.5037 -0.6067
22509SOL     OW73489   5.425  12.183   0.686  0.6929 -0.1409  0.0019
22509SOL    HW173490   5.388  12.142   0.764 -0.2381 -0.6634 -0.6917
22509SOL    HW273491   5.508  12.137   0.672  0.7169 -0.2559  0.5047
22510SOL     OW73492  11.702   9.335   0.962 -0.4072  0.3776 -0.0062
22510SOL    HW173493  11.747   9.289   0.892 -1.5292 -1.1140  0.2222
22510SOL    HW273494  11.765   9.402   0.991  0.9661 -0.5108 -0.8537
22511SOL     OW73495   6.907  10.570  10.533  0.5301 -0.1380  0.5505
22511SOL    HW173496   6.901  10.602  10.623  0.0526  0.6861  0.2362
22511SOL    HW273497   6.919  10.649  10.480  1.7871 -0.6862 -0.0355
22512SOL     OW73498   3.419   2.370   2.292  0.4459 -0.2348  0.0654
22512SOL    HW173499   3.472   2.399   2.218 -1.1593  0.2822 -0.9322
22512SOL    HW273500   3.371   2.294   2.260  0.8430 -0.9351  1.0702
22513SOL     OW73501   3.590   0.736   0.698  0.4188  0.2817  0.4155
22513SOL    HW173502   3.615   0.822   0.663 -0.7727  1.4026  2.1095
22513SOL    HW273503   3.535   0.698   0.630  2.7144 -0.1726 -1.3111
22514SOL     OW73504   0.760   4.170   4.737  0.2614 -0.2435  0.0963
22514SOL    HW173505   0.669   4.147   4.721  0.8621 -2.0380 -1.0910
22514SOL    HW273506   0.808   4.133   4.663  1.9898  0.4440  0.8034
22515SOL     OW73507   3.769   9.873   1.013 -0.9521  0.0164 -0.0796
22515SOL    HW173508   3.786   9.962   1.045 -1.9276  0.2695 -0.2247
22515SOL    HW273509   3.809   9.817   1.079 -4.0776  0.4936  2.4811
22516SOL     OW73510  10.950  10.123  12.091  0.2379 -0.5706  0.2635
22516SOL    HW173511  11.037  10.119  12.130  0.0489 -0.7355  0.6802
22516SOL    HW273512  10.944  10.212  12.054  0.5110 -0.4960  0.3981
22517SOL     OW73513   6.019   4.849   3.032  0.2321 -0.2127  0.3622
22517SOL    HW173514   5.970   4.788   2.977 -0.3285  0.4590  0.1022
22517SOL    HW273515   5.981   4.935   3.013  1.3534  0.2932  0.3381
22518SOL     OW73516  10.321   0.987  10.434  0.5103  0.3184  0.1276
22518SOL    HW173517  10.368   0.907  10.411 -1.1493 -0.8847  0.7045
22518SOL    HW273518  10.281   1.016  10.352  1.0685  0.5195 -0.0720
22519SOL     OW73519   1.650  11.197   8.901 -0.1029 -0.7370  0.3884
22519SOL    HW173520   1.691  11.133   8.844  1.1773  1.2668 -1.0921
22519SOL    HW273521   1.558  11.199   8.873 -0.1371 -1.7832  0.3851
22520SOL     OW73522   5.421  10.723   6.618  0.2681  0.2233  0.3204
22520SOL    HW173523   5.512  10.724   6.647 -0.0466  1.4523  1.3316
22520SOL    HW273524   5.419  10.785   6.545  0.5578 -1.0845 -0.8596
22521SOL     OW73525   5.400  10.430  10.962 -0.2890 -0.3483  0.6208
22521SOL    HW173526   5.348  10.350  10.952 -0.7783  0.1079 -0.7745
22521SOL    HW273527   5.432  10.427  11.052  2.8798 -4.0272 -0.3772
22522SOL     OW73528   6.408   1.550   0.860  0.2390 -0.0683  1.0541
22522SOL    HW173529   6.343   1.552   0.930  0.2846 -0.0590  1.0962
22522SOL    HW273530   6.365   1.502   0.789  0.3598 -0.4816  1.2542
22523SOL     OW73531   0.697   2.072  10.926  0.6546 -0.4933  0.1310
22523SOL    HW173532   0.714   2.165  10.937 -0.5981 -0.1784 -0.3932
22523SOL    HW273533   0.641   2.049  11.000 -0.9502 -0.2692 -0.9605
22524SOL     OW73534   5.139   7.452   8.655 -0.2582  0.3982 -0.5027
22524SOL    HW173535   5.132   7.465   8.560  1.5128  0.6728 -0.6311
22524SOL    HW273536   5.171   7.535   8.688  1.8425 -0.5349 -0.0535
22525SOL     OW73537  12.061   4.434   3.962  0.2979  0.3823 -0.0722
22525SOL    HW173538  11.986   4.429   4.022  0.7061  1.1164  0.5052
22525SOL    HW273539  12.110   4.511   3.990  2.7012 -1.4917  1.1930
22526SOL     OW73540   0.720   1.148   2.359  0.3885  0.1472  0.0818
22526SOL    HW173541   0.693   1.078   2.300  0.7475 -0.8185  1.0169
22526SOL    HW273542   0.651   1.150   2.426  0.6543  0.3189  0.3550
22527SOL     OW73543   0.294   1.213   9.514 -0.3256  0.5373  0.2132
22527SOL    HW173544   0.356   1.285   9.508 -1.0329  1.2620  1.1291
22527SOL    HW273545   0.308   1.162   9.434  0.7814  1.2014 -0.0407
22528SOL     OW73546   8.456   1.884   0.077 -0.3229  1.0106  0.1273
22528SOL    HW173547   8.520   1.828   0.122 -1.4507 -0.5602 -0.1523
22528SOL    HW273548   8.439   1.839  -0.006 -1.3198  1.7397 -0.0805
22529SOL     OW73549   1.478   2.394   7.651  0.1635  0.0175 -1.1584
22529SOL    HW173550   1.491   2.404   7.556  0.0815 -0.3148 -1.2082
22529SOL    HW273551   1.567   2.394   7.687  0.1442  1.6119 -1.0667
22530SOL     OW73552   0.825   0.339   2.662  0.5626 -0.2854  0.4254
22530SOL    HW173553   0.781   0.424   2.667  0.0363 -0.5208 -0.1587
22530SOL    HW273554   0.918   0.360   2.675  0.6430  0.5987 -1.2862
22531SOL     OW73555   5.243   6.547   2.656 -0.1000 -0.3070  0.3053
22531SOL    HW173556   5.217   6.514   2.742  2.1571 -2.1959  0.3748
22531SOL    HW273557   5.166   6.537   2.601 -0.9996 -0.9274  1.6426
22532SOL     OW73558   5.084  11.010   0.468 -0.3524  0.2334 -0.0628
22532SOL    HW173559   5.139  11.057   0.405  0.7646 -1.3511 -0.3160
22532SOL    HW273560   5.146  10.965   0.525 -1.3719  0.5746  1.3844
22533SOL     OW73561  10.061   3.404   7.090 -0.2246 -0.0708  0.2866
22533SOL    HW173562  10.142   3.384   7.136  0.7514 -1.3398 -1.8828
22533SOL    HW273563   9.992   3.370   7.148  0.7326  0.8934  2.0900
22534SOL     OW73564   1.943   0.599   4.698 -1.0503  0.1344 -0.0559
22534SOL    HW173565   1.866   0.601   4.642 -2.2643 -1.9251  1.3906
22534SOL    HW273566   2.006   0.546   4.649 -1.0409  0.6682 -0.6409
22535SOL     OW73567   2.818   4.241  10.965  0.2937  0.1041 -0.1984
22535SOL    HW173568   2.817   4.146  10.957  0.7912  0.0966 -0.2502
22535SOL    HW273569   2.891   4.269  10.909  2.0715  0.2829  2.0138
22536SOL     OW73570   4.216   9.973   3.781 -0.6307 -0.8004 -0.5104
22536SOL    HW173571   4.150  10.030   3.741 -0.0220  2.4829  2.6575
22536SOL    HW273572   4.288  10.032   3.803  1.6647 -3.5358 -0.1730
22537SOL     OW73573   7.518   9.294  11.205  0.3503 -0.0187  0.0099
22537SOL    HW173574   7.545   9.371  11.155 -1.4801  1.3538  0.9947
22537SOL    HW273575   7.591   9.278  11.265  0.9572  0.6597 -0.5279
22538SOL     OW73576   8.543  10.396   7.014  0.1867  0.3720  0.1025
22538SOL    HW173577   8.631  10.381   6.977 -0.9292 -3.1752 -1.5727
22538SOL    HW273578   8.521  10.314   7.058 -1.7906  1.6852  1.7215
22539SOL     OW73579  10.357   7.525   6.997 -0.3119 -0.2170  0.0386
22539SOL    HW173580  10.306   7.482   6.928  0.1518  1.3868 -1.3876
22539SOL    HW273581  10.444   7.486   6.991 -0.7412 -1.3564  0.9573
22540SOL     OW73582  12.200   9.270   0.270  0.3664  0.3240 -0.2774
22540SOL    HW173583  12.115   9.227   0.278  0.3458  0.5416  0.7166
22540SOL    HW273584  12.182   9.363   0.281  0.7202  0.3855 -0.1986
22541SOL     OW73585   5.047   1.613   4.466  0.0695 -0.4330 -0.0145
22541SOL    HW173586   5.053   1.575   4.554  0.6624  0.7172  0.4565
22541SOL    HW273587   5.137   1.623   4.438 -0.0906  0.2063 -0.3102
22542SOL     OW73588   6.641   3.142   8.889  0.2578 -0.2242 -0.2453
22542SOL    HW173589   6.556   3.123   8.850  0.2230 -2.2723  0.7289
22542SOL    HW273590   6.626   3.139   8.983  1.6768 -2.3520 -0.0087
22543SOL     OW73591   9.795   2.173   6.962 -0.3701  0.3929  0.2192
22543SOL    HW173592   9.742   2.111   7.012 -0.7842 -1.0074 -1.8688
22543SOL    HW273593   9.846   2.119   6.902 -0.2404  2.0352 -1.2299
22544SOL     OW73594   9.219   7.261  12.281  0.0128 -0.4064  0.1808
22544SOL    HW173595   9.273   7.188  12.251 -0.6779 -0.1702 -1.7269
22544SOL    HW273596   9.181   7.298  12.202  1.4365  2.9484  0.8898
22545SOL     OW73597   0.020  10.609   3.720 -0.2186  0.8453 -0.0781
22545SOL    HW173598  -0.002  10.674   3.786  1.2935  0.7701  0.5446
22545SOL    HW273599  -0.043  10.623   3.650 -1.2863  1.5194  0.9905
22546SOL     OW73600   9.307   2.225   8.748 -0.0041 -0.3179  0.0503
22546SOL    HW173601   9.329   2.212   8.656  0.9273  0.7392  0.0966
22546SOL    HW273602   9.375   2.177   8.796  1.7826  2.1408  0.1835
22547SOL     OW73603   0.530  10.999   5.824 -0.2564 -0.0909 -0.1198
22547SOL    HW173604   0.538  11.049   5.906 -0.7444  0.6376 -0.5064
22547SOL    HW273605   0.600  11.032   5.768 -1.8880  1.7952 -1.1883
22548SOL     OW73606   8.536   0.067   1.086 -0.6156 -0.2170 -0.2106
22548SOL    HW173607   8.561  -0.016   1.044 -0.4410  0.3462 -1.2475
22548SOL    HW273608   8.528   0.045   1.179  1.5486 -0.9493 -0.1401
22549SOL     OW73609   0.002  10.696   2.150 -0.2920 -0.3130  0.0847
22549SOL    HW173610   0.005  10.791   2.144 -0.1508 -0.1927  1.5968
22549SOL    HW273611   0.062  10.674   2.221 -1.1676 -1.4363  0.5248
22550SOL     OW73612  10.749  11.956   7.897  0.1057  0.0462 -0.5192
22550SOL    HW173613  10.696  11.879   7.873 -1.4098  1.0191 -0.4433
22550SOL    HW273614  10.711  11.986   7.980 -0.4739  1.8588 -1.3986
22551SOL     OW73615  10.238   5.297   8.933 -0.3984  0.0245  0.0555
22551SOL    HW173616  10.234   5.388   8.903 -0.6471 -0.3522 -1.0935
22551SOL    HW273617  10.146   5.271   8.941 -0.3238 -0.3924 -0.4486
22552SOL     OW73618   0.604   2.499   1.246 -0.1941  0.3888  0.3571
22552SOL    HW173619   0.554   2.579   1.233 -1.0739 -0.0517  0.9810
22552SOL    HW273620   0.552   2.431   1.206  0.9023  0.2090 -0.8344
22553SOL     OW73621  11.849   7.084   5.056  0.2718 -0.2658 -0.5190
22553SOL    HW173622  11.944   7.073   5.053  0.0633 -2.3165 -1.7526
22553SOL    HW273623  11.827   7.071   5.149  1.1161 -0.5744 -0.3494
22554SOL     OW73624  10.761   1.771   6.005 -0.2190 -0.2301 -0.1266
22554SOL    HW173625  10.687   1.815   6.047  0.7732  1.7418 -0.2924
22554SOL    HW273626  10.751   1.679   6.028 -1.7650  0.2453  1.2855
22555SOL     OW73627   9.896   7.958   1.242 -0.0357  1.0121  0.2224
22555SOL    HW173628   9.966   7.937   1.181 -0.3477 -0.9153  0.4624
22555SOL    HW273629   9.817   7.965   1.188 -0.3268 -0.7744  0.3598
22556SOL     OW73630   7.612   4.079   0.524  0.0258 -0.2730  0.4719
22556SOL    HW173631   7.573   4.040   0.602 -1.5183 -1.2044 -0.6969
22556SOL    HW273632   7.613   4.007   0.460  2.7727  0.0005  0.0995
22557SOL     OW73633  12.261   7.220   3.051  0.1162 -0.2772  0.0184
22557SOL    HW173634  12.353   7.245   3.056  0.3219 -0.8573 -0.5368
22557SOL    HW273635  12.212   7.299   3.073  0.7506 -0.0209  0.5218
22558SOL     OW73636   9.808   7.334  12.359 -0.4828 -0.2256  0.2040
22558SOL    HW173637   9.845   7.407  12.309 -1.0149  0.3813  0.6778
22558SOL    HW273638   9.881   7.303  12.413  0.3632 -1.4847 -1.5640
22559SOL     OW73639   6.728   9.126   5.506  0.5441 -0.0194  0.0533
22559SOL    HW173640   6.687   9.186   5.443  0.6572 -2.5509 -2.6299
22559SOL    HW273641   6.656   9.098   5.562 -0.9025 -1.9461 -2.5709
22560SOL     OW73642  10.686  11.146   8.255  0.0370  0.1218  0.9910
22560SOL    HW173643  10.685  11.144   8.351  0.5619  1.5386  1.0538
22560SOL    HW273644  10.639  11.067   8.229  1.0113 -0.9777  2.3998
22561SOL     OW73645  10.099   3.112   5.636  0.0391  0.4131 -0.1263
22561SOL    HW173646  10.027   3.063   5.677  0.2599  0.5153  0.3882
22561SOL    HW273647  10.070   3.126   5.546  0.1555 -1.0698 -0.4314
22562SOL     OW73648  11.477   5.512  12.303 -1.1000 -0.0242 -0.0210
22562SOL    HW173649  11.521   5.426  12.300  1.9138  1.3363  1.0558
22562SOL    HW273650  11.464   5.529  12.396 -0.9844  0.9904 -0.1822
22563SOL     OW73651   5.999   1.862   3.308  0.2330 -0.1602 -0.7407
22563SOL    HW173652   6.047   1.909   3.240 -1.2829  1.9778 -0.4444
22563SOL    HW273653   5.977   1.928   3.373 -2.3543 -1.1583 -0.4642
22564SOL     OW73654   1.424   4.560   0.368 -0.4280 -0.0521 -0.3126
22564SOL    HW173655   1.464   4.577   0.453 -2.4521  2.8749  0.2104
22564SOL    HW273656   1.405   4.466   0.369 -0.8365 -0.0357  2.7009
22565SOL     OW73657   6.026   8.833   0.564  0.1017  0.7282  0.3102
22565SOL    HW173658   6.089   8.812   0.495  1.7820  2.8003  1.0977
22565SOL    HW273659   5.947   8.859   0.517  0.3378 -0.3847 -0.7490
22566SOL     OW73660   6.575   4.915   3.313 -0.0596  0.1050  0.2451
22566SOL    HW173661   6.527   4.981   3.363  0.1671 -0.7388  1.6116
22566SOL    HW273662   6.557   4.937   3.222 -1.0031  1.3047  0.6935
22567SOL     OW73663   7.980  11.875   7.428 -0.4353  0.0048  0.4037
22567SOL    HW173664   7.991  11.832   7.343  0.3972  0.1096  0.4473
22567SOL    HW273665   8.048  11.835   7.484 -1.6016 -0.7751  1.3161
22568SOL     OW73666  11.192   5.206   8.306 -0.0393  0.0058  0.0824
22568SOL    HW173667  11.149   5.239   8.385  0.3966  2.6702 -0.7011
22568SOL    HW273668  11.122   5.165   8.256 -0.8432  0.5431  0.7275
22569SOL     OW73669   4.372  10.535  10.318 -0.2017  0.1538  0.1778
22569SOL    HW173670   4.428  10.463  10.288 -0.9576 -1.4207  2.2935
22569SOL    HW273671   4.382  10.603  10.251  3.5595 -0.3635  0.0146
22570SOL     OW73672   0.769  12.437  11.383 -0.2416  0.1721  0.2606
22570SOL    HW173673   0.705  12.507  11.372  0.8241  1.3959  1.3758
22570SOL    HW273674   0.854  12.482  11.378  0.4889 -1.1487  0.3848
22571SOL     OW73675   0.504   1.614   8.704 -0.5968  0.0609  0.6567
22571SOL    HW173676   0.578   1.555   8.694 -2.1239 -2.0943  1.4113
22571SOL    HW273677   0.502   1.664   8.622  2.5011  1.2589  1.1935
22572SOL     OW73678   9.220  11.688   9.807  0.7431  0.1413  0.2070
22572SOL    HW173679   9.250  11.703   9.897  2.1288 -3.1283  0.4037
22572SOL    HW273680   9.298  11.698   9.754  0.1838  0.8076 -0.5118
22573SOL     OW73681   8.897   5.207   8.780  0.1040 -0.1430  0.1890
22573SOL    HW173682   8.982   5.251   8.773 -0.6614  1.4174  0.3339
22573SOL    HW273683   8.849   5.235   8.702  0.2019 -2.1893 -0.6630
22574SOL     OW73684   4.183   0.388   8.367 -0.1128 -0.6346 -0.3799
22574SOL    HW173685   4.163   0.398   8.274 -0.9505  1.9867 -0.0017
22574SOL    HW273686   4.097   0.381   8.409  0.0982  0.9071  0.3912
22575SOL     OW73687   1.434   7.240   1.931  0.2144  0.6902  0.2263
22575SOL    HW173688   1.455   7.249   1.838  1.0417  0.4698  0.3809
22575SOL    HW273689   1.514   7.207   1.971 -1.1993 -2.9018  0.4328
22576SOL     OW73690   8.248  10.634  10.873  0.3076 -0.8185  0.1974
22576SOL    HW173691   8.218  10.576  10.803  0.0707 -0.2757 -0.1573
22576SOL    HW273692   8.243  10.722  10.836 -0.5256 -0.4449  1.1284
22577SOL     OW73693   9.788   0.891   3.314  0.6173 -0.1499  0.4460
22577SOL    HW173694   9.724   0.844   3.261  0.9632 -1.0696  0.8203
22577SOL    HW273695   9.786   0.981   3.281 -0.2312 -0.3705 -0.1254
22578SOL     OW73696  10.144  10.732   4.080  0.5387 -0.2321 -0.1277
22578SOL    HW173697  10.193  10.790   4.021 -0.4272  1.4769  0.6570
22578SOL    HW273698  10.185  10.745   4.165 -0.4240  0.2369  0.2837
22579SOL     OW73699   3.691   6.798   4.533 -0.7245 -0.3166 -0.2041
22579SOL    HW173700   3.697   6.787   4.438  0.5658  1.1748 -0.3280
22579SOL    HW273701   3.746   6.873   4.553 -2.7335  0.8244  1.4695
22580SOL     OW73702   4.959   5.075  11.668 -0.1608 -0.2952  0.0846
22580SOL    HW173703   5.000   5.147  11.716  0.1656 -0.8397  0.6366
22580SOL    HW273704   4.962   5.103  11.576  0.3984  0.1813  0.2388
22581SOL     OW73705   5.039  10.156  11.094  0.3375 -0.1898 -0.2374
22581SOL    HW173706   5.008  10.245  11.082  1.4859  0.3918  0.9036
22581SOL    HW273707   5.112  10.147  11.032  0.1596 -0.3690 -0.4221
22582SOL     OW73708   2.198  10.924   3.508 -0.1256 -0.0683 -1.1018
22582SOL    HW173709   2.197  10.865   3.583  3.3920  1.3357  0.2840
22582SOL    HW273710   2.115  10.970   3.512 -0.8414 -1.4381  0.7481
22583SOL     OW73711   6.626   2.487   9.494 -0.0691 -1.4263  0.4534
22583SOL    HW173712   6.535   2.459   9.493 -0.6112  0.1863  0.8738
22583SOL    HW273713   6.646   2.510   9.403 -0.7683  0.1718  0.6706
22584SOL     OW73714   7.715   1.715   6.571  0.4578 -0.3082  0.7904
22584SOL    HW173715   7.710   1.631   6.525 -1.0538  0.0179  0.2893
22584SOL    HW273716   7.764   1.696   6.650  0.9884 -1.4475  0.2178
22585SOL     OW73717   8.591   6.025   6.728  0.2543 -0.0908  0.5650
22585SOL    HW173718   8.591   6.088   6.799 -0.6205 -0.1925  0.6602
22585SOL    HW273719   8.654   5.958   6.755  1.6918  1.0381  0.1683
22586SOL     OW73720   1.044   0.793   8.839 -0.3870  0.4874  0.0678
22586SOL    HW173721   1.129   0.768   8.873 -0.2806 -1.9652 -1.7322
22586SOL    HW273722   0.981   0.748   8.895 -0.3687  0.0858 -0.2253
22587SOL     OW73723   2.275   7.090   3.120  0.4192  0.0820 -0.2383
22587SOL    HW173724   2.321   7.020   3.168  0.7425  0.0572 -0.5795
22587SOL    HW273725   2.252   7.154   3.187 -0.1229 -0.4806  0.1213
22588SOL     OW73726  10.215   8.526   9.587 -0.2485  0.0694 -0.3802
22588SOL    HW173727  10.222   8.462   9.516  0.0694  0.2782 -0.5429
22588SOL    HW273728  10.122   8.546   9.593 -0.5924 -1.6205  0.7642
22589SOL     OW73729   7.647   2.792   7.252  0.2224  0.0206 -0.2552
22589SOL    HW173730   7.628   2.779   7.345 -1.2696  1.4742 -0.2974
22589SOL    HW273731   7.574   2.749   7.207  1.0949 -0.9334 -0.7886
22590SOL     OW73732   0.683   5.962   2.530 -0.1134  0.3198 -0.1319
22590SOL    HW173733   0.588   5.953   2.534 -0.0816  0.3788  0.8338
22590SOL    HW273734   0.716   5.890   2.583  0.3503  1.0781  0.6306
22591SOL     OW73735   1.585   6.799   3.486 -0.1175 -0.2001  0.1963
22591SOL    HW173736   1.611   6.853   3.561  1.5457  0.1501 -0.5983
22591SOL    HW273737   1.493   6.821   3.472  0.6218  2.8842 -0.4405
22592SOL     OW73738   7.801   7.864   1.895  0.2425 -0.0905 -0.3025
22592SOL    HW173739   7.860   7.842   1.823  1.8290 -1.5168  1.3715
22592SOL    HW273740   7.846   7.932   1.944  0.2344 -0.7466  0.6401
22593SOL     OW73741   7.143   7.364   6.479 -0.8271 -0.2122  0.1000
22593SOL    HW173742   7.222   7.381   6.427 -0.1006  0.5794  1.4274
22593SOL    HW273743   7.134   7.269   6.478 -0.0095 -0.2934 -0.2823
22594SOL     OW73744  11.849   7.382   9.126  0.0651 -0.5372  0.0597
22594SOL    HW173745  11.854   7.408   9.218 -2.4961  1.5037 -0.2377
22594SOL    HW273746  11.911   7.439   9.082 -1.3799  1.2093  0.1516
22595SOL     OW73747   2.343   9.350  11.878  0.0659  0.1638 -0.6777
22595SOL    HW173748   2.326   9.371  11.786  0.0202 -0.0523 -0.7173
22595SOL    HW273749   2.415   9.409  11.903  1.8495 -1.5317 -1.5868
22596SOL     OW73750   5.237   4.960   2.364 -0.3532 -0.0246 -0.1334
22596SOL    HW173751   5.267   5.015   2.436 -2.3334 -0.4136  1.0663
22596SOL    HW273752   5.142   4.960   2.372 -0.4796 -2.9245 -0.5825
22597SOL     OW73753  10.343   6.468   5.815 -0.2772  0.1200  0.2774
22597SOL    HW173754  10.433   6.500   5.805 -0.6628  0.8359 -1.3104
22597SOL    HW273755  10.302   6.531   5.874 -0.6900  1.9863 -1.8624
22598SOL     OW73756   4.935   9.529   3.492  0.3271 -0.1071 -0.1732
22598SOL    HW173757   5.028   9.537   3.514  0.7655 -1.8419 -1.2422
22598SOL    HW273758   4.909   9.618   3.468  1.2014  0.7713  1.9458
22599SOL     OW73759  12.404   6.965  11.570  0.6887  0.0345 -0.0300
22599SOL    HW173760  12.347   7.028  11.525  2.8379  1.4530 -0.9437
22599SOL    HW273761  12.350   6.887  11.581 -1.2603  1.1351 -1.2590
22600SOL     OW73762  11.355   6.087   2.689 -0.8975  0.2860  0.1471
22600SOL    HW173763  11.314   6.172   2.702  0.6636  0.9558  0.8899
22600SOL    HW273764  11.301   6.026   2.740 -0.4355  1.2986  1.9196
22601SOL     OW73765  10.524  10.475   9.256  0.3694 -0.1719  0.6315
22601SOL    HW173766  10.576  10.541   9.210  0.5188 -1.0439 -0.5156
22601SOL    HW273767  10.439  10.476   9.211 -0.2056  0.3958  1.7026
22602SOL     OW73768   2.766   9.345   1.199  0.2217  0.0737 -0.4248
22602SOL    HW173769   2.723   9.426   1.172 -0.9428 -1.0337 -2.0931
22602SOL    HW273770   2.732   9.279   1.138  0.7847 -1.7573  1.1620
22603SOL     OW73771   6.782   3.701   0.393  0.2003  0.1041  0.1003
22603SOL    HW173772   6.727   3.742   0.327 -0.6470 -2.4607 -0.8873
22603SOL    HW273773   6.871   3.706   0.357 -0.2767 -1.4772 -1.4346
22604SOL     OW73774   0.580   1.839   4.224  0.6163 -0.4068  0.2295
22604SOL    HW173775   0.518   1.890   4.276  0.8818  0.7498 -0.5694
22604SOL    HW273776   0.527   1.770   4.184  0.2016 -0.5851  1.0632
22605SOL     OW73777  12.023   8.179  11.081 -0.8689 -0.1435 -0.1264
22605SOL    HW173778  12.056   8.191  11.170 -1.4936  1.3274 -0.0548
22605SOL    HW273779  12.046   8.089  11.058  1.4895  0.2023  0.5982
22606SOL     OW73780   6.937   3.230   5.552 -0.1497  0.1512 -0.0714
22606SOL    HW173781   7.000   3.292   5.516 -0.8567 -0.3403 -2.3055
22606SOL    HW273782   6.852   3.274   5.543 -0.3103  0.3667  1.9066
22607SOL     OW73783  11.386   6.156  10.218 -0.1791  0.0104  0.6429
22607SOL    HW173784  11.330   6.182  10.146  0.4071  0.5729  0.3862
22607SOL    HW273785  11.417   6.068  10.195 -2.0244 -0.8988  1.4326
22608SOL     OW73786   8.326  11.189   5.336  0.3971 -0.0382 -0.1271
22608SOL    HW173787   8.384  11.142   5.276 -0.6341  1.4471 -2.4792
22608SOL    HW273788   8.239  11.179   5.297 -0.5362  0.0037  1.8406
22609SOL     OW73789   5.210   3.852   6.189  0.3342 -0.1571  0.6161
22609SOL    HW173790   5.271   3.907   6.140  0.5033 -0.6951  0.2100
22609SOL    HW273791   5.206   3.770   6.139 -1.8334  0.3652 -0.1676
22610SOL     OW73792   2.520   0.243   0.955  0.0909 -1.2363  0.0304
22610SOL    HW173793   2.431   0.279   0.954 -0.1421 -1.7678  0.9483
22610SOL    HW273794   2.535   0.215   0.865  0.3617  1.3195 -0.7944
22611SOL     OW73795   7.518  12.412   1.845 -0.3758 -0.6228  0.3536
22611SOL    HW173796   7.430  12.448   1.837 -0.2640 -0.5234 -0.5341
22611SOL    HW273797   7.507  12.333   1.898 -0.8208 -0.0182  1.1948
22612SOL     OW73798   3.093   1.711  10.309  0.1744 -0.6544  0.5232
22612SOL    HW173799   3.102   1.805  10.292 -1.5209 -0.5547 -0.0297
22612SOL    HW273800   3.067   1.674  10.225 -0.4730 -1.4132  1.0440
22613SOL     OW73801   9.637   3.319   1.842 -0.0030 -0.6762 -0.1778
22613SOL    HW173802   9.655   3.227   1.824 -2.4404 -1.5231  1.3028
22613SOL    HW273803   9.694   3.341   1.916 -0.1193 -1.2825  0.0976
22614SOL     OW73804   0.313   2.297  11.848  0.6785 -0.3545  0.5441
22614SOL    HW173805   0.353   2.384  11.859  1.0068 -0.5859  1.1852
22614SOL    HW273806   0.280   2.275  11.934  0.1234 -0.6474  0.2612
22615SOL     OW73807   5.201  11.873   1.791  0.1279 -0.0063 -0.6996
22615SOL    HW173808   5.193  11.964   1.818  0.9911  0.2018 -1.1146
22615SOL    HW273809   5.255  11.832   1.858 -0.7218 -0.3474 -0.2215
22616SOL     OW73810   8.602   1.830  11.554  0.5351  0.6412 -0.0058
22616SOL    HW173811   8.599   1.795  11.465  0.3601  1.9517 -0.5351
22616SOL    HW273812   8.689   1.804  11.586  0.0626 -1.0642 -0.0094
22617SOL     OW73813   3.047   4.614   1.232 -0.4579 -0.2619 -0.6052
22617SOL    HW173814   3.030   4.707   1.244 -0.5786 -0.2745 -0.6771
22617SOL    HW273815   2.976   4.570   1.280  0.6888 -0.3429  1.1208
22618SOL     OW73816   6.289  12.487   2.541  0.1978  0.5189 -0.1610
22618SOL    HW173817   6.220  12.539   2.500  0.0046  1.3322  1.1251
22618SOL    HW273818   6.253  12.465   2.628  1.5668  1.0635  0.5737
22619SOL     OW73819  10.109  11.812   0.048 -0.1135  0.0514  0.3738
22619SOL    HW173820  10.069  11.802  -0.039  0.0789 -0.1506  0.3078
22619SOL    HW273821  10.037  11.839   0.104 -0.8639 -2.4641  0.7246
22620SOL     OW73822   9.448   2.588   0.645  0.2355  0.4907 -0.0592
22620SOL    HW173823   9.505   2.639   0.702  0.1723 -0.0534  0.4969
22620SOL    HW273824   9.372   2.645   0.629  1.4332  1.7157 -1.7968
22621SOL     OW73825   7.901   2.818   2.532 -0.6730  0.0653  0.1295
22621SOL    HW173826   7.902   2.782   2.443 -1.9704 -0.2914  0.2352
22621SOL    HW273827   7.842   2.892   2.527  1.0909  1.5368  0.1837
22622SOL     OW73828   0.163   9.096   9.110 -0.4816  0.1816  0.3218
22622SOL    HW173829   0.149   9.116   9.203 -0.3532  1.5514  0.0765
22622SOL    HW273830   0.258   9.093   9.100 -0.4944 -1.4281  0.4999
22623SOL     OW73831   4.353   9.900   5.553 -0.1778 -0.0502  0.4030
22623SOL    HW173832   4.270   9.857   5.534 -0.8146  1.1024  0.4849
22623SOL    HW273833   4.419   9.836   5.528 -1.0843 -1.2732  1.0074
22624SOL     OW73834   5.327   9.981   1.835 -0.2810  0.0276 -0.0194
22624SOL    HW173835   5.344   9.985   1.929 -0.6428 -2.2455  0.1768
22624SOL    HW273836   5.350  10.069   1.804  1.2210  0.4132  1.9476
22625SOL     OW73837   5.333   2.274   0.983 -0.5682  0.4444 -0.3480
22625SOL    HW173838   5.269   2.203   0.972  0.7553 -1.1451  1.5716
22625SOL    HW273839   5.367   2.289   0.895 -1.5613 -0.6371 -0.9525
22626SOL     OW73840   1.292   8.423  11.713 -0.1174 -0.0916  0.2745
22626SOL    HW173841   1.216   8.425  11.655  0.5825  2.8176 -0.7507
22626SOL    HW273842   1.366   8.399  11.657  0.0253 -1.0126  0.8341
22627SOL     OW73843   1.543  11.275   7.148  0.0503  0.0967  0.2849
22627SOL    HW173844   1.450  11.295   7.161 -0.2739 -0.9901 -0.2462
22627SOL    HW273845   1.543  11.188   7.108  1.3648 -0.8156  2.1391
22628SOL     OW73846   9.529  11.122   4.493 -0.0990 -0.0007 -0.1586
22628SOL    HW173847   9.561  11.057   4.555  1.9103  1.1223  0.0750
22628SOL    HW273848   9.501  11.196   4.548  1.7177  1.0122 -0.4998
22629SOL     OW73849  11.623   5.140   9.272  0.1187  0.0731  0.1390
22629SOL    HW173850  11.664   5.221   9.243 -0.3448 -0.3935 -1.9746
22629SOL    HW273851  11.529   5.161   9.277  0.2005  0.2248  1.7333
22630SOL     OW73852   3.678  10.148   2.189  0.1064  0.4513 -0.4949
22630SOL    HW173853   3.615  10.202   2.237  0.5075  0.4643  0.0268
22630SOL    HW273854   3.650  10.154   2.098 -1.0322 -0.0759 -0.1983
22631SOL     OW73855   8.648   8.614   3.356 -0.3101  0.2846 -1.1268
22631SOL    HW173856   8.670   8.645   3.444  0.4952  1.2428 -1.6408
22631SOL    HW273857   8.553   8.609   3.355 -0.2841 -2.5305  0.6966
22632SOL     OW73858   2.630  11.177   1.801  0.2192 -0.3074  0.5129
22632SOL    HW173859   2.669  11.135   1.725  2.0048  0.9065  0.7011
22632SOL    HW273860   2.681  11.257   1.814 -0.1853 -0.3338  2.8289
22633SOL     OW73861   7.685   9.223   9.925  0.4666  0.2171 -0.1904
22633SOL    HW173862   7.669   9.269   9.843 -1.0586 -1.3763 -0.8396
22633SOL    HW273863   7.764   9.171   9.908 -1.0305 -1.7977 -1.4986
22634SOL     OW73864   2.155   9.417   0.967 -0.2394 -0.2015  0.6723
22634SOL    HW173865   2.118   9.429   0.880 -0.8606  0.2364  0.9925
22634SOL    HW273866   2.207   9.337   0.960  0.9205  0.6061 -0.4885
22635SOL     OW73867   4.621  11.913   8.983  0.2818 -0.0599  0.9078
22635SOL    HW173868   4.620  12.004   9.012 -0.1359 -0.4823  2.2805
22635SOL    HW273869   4.539  11.902   8.935  1.3264  0.8557 -1.2857
22636SOL     OW73870   1.208  10.427   7.264  0.3156  0.2897 -0.3440
22636SOL    HW173871   1.255  10.447   7.345  0.3353 -0.8658 -0.0535
22636SOL    HW273872   1.116  10.425   7.290  0.3133  0.0231 -0.3704
22637SOL     OW73873  12.374  11.391   1.636  0.3730 -0.8107 -0.2461
22637SOL    HW173874  12.389  11.366   1.727  0.1526 -0.6664 -0.1684
22637SOL    HW273875  12.424  11.472   1.625 -0.0248 -0.5426 -0.1004
22638SOL     OW73876   3.328   6.588   3.290 -0.1850  0.1190  0.1777
22638SOL    HW173877   3.281   6.507   3.270  1.2057 -0.6806  0.0393
22638SOL    HW273878   3.339   6.631   3.205 -1.0468  0.5323  0.2694
22639SOL     OW73879  12.451   6.171   4.263  0.0355  0.1650 -0.3188
22639SOL    HW173880  12.362   6.194   4.236 -0.7037 -1.6853  0.3652
22639SOL    HW273881  12.468   6.088   4.218  1.6835  0.7952 -0.9330
22640SOL     OW73882   3.943   4.334  11.449  0.4853 -0.0572  0.4636
22640SOL    HW173883   3.851   4.333  11.473 -0.0404 -2.6493 -1.1874
22640SOL    HW273884   3.983   4.265  11.503  0.9699 -0.4232 -0.3376
22641SOL     OW73885   3.294   7.755  10.090 -0.0471  0.4237 -0.3952
22641SOL    HW173886   3.338   7.795  10.015  0.7580 -0.6150 -0.5019
22641SOL    HW273887   3.364   7.709  10.137 -0.8569 -0.4879 -0.0502
22642SOL     OW73888   1.195   9.489   0.063 -0.1176  0.1889 -0.1040
22642SOL    HW173889   1.239   9.433   0.128  1.2605  0.4230 -0.7964
22642SOL    HW273890   1.251   9.485  -0.014  0.4718  3.1160  0.0485
22643SOL     OW73891  11.027   5.401   4.547  0.2259  0.0508 -0.0948
22643SOL    HW173892  11.119   5.416   4.570  0.2975 -0.4258 -0.0632
22643SOL    HW273893  11.002   5.479   4.497 -0.2953  1.7399  2.5750
22644SOL     OW73894   9.833   6.381  11.069  0.0389  0.2419  0.1142
22644SOL    HW173895   9.926   6.407  11.065  0.0263  0.1666 -1.2095
22644SOL    HW273896   9.799   6.426  11.146  0.6480  2.1374 -0.6486
22645SOL     OW73897   8.452   2.665   1.079  0.1044  0.7677  0.3772
22645SOL    HW173898   8.362   2.638   1.100 -0.5283  1.8728 -0.8196
22645SOL    HW273899   8.506   2.599   1.123 -1.2644  0.1884  1.3066
22646SOL     OW73900   2.381   5.071   3.582  0.1005 -0.2454  0.1375
22646SOL    HW173901   2.293   5.106   3.563  1.2236  3.0193  0.2243
22646SOL    HW273902   2.403   5.106   3.668  1.4374 -1.1205  0.1799
22647SOL     OW73903  11.959   1.005  10.575  0.8073  0.4833  0.2334
22647SOL    HW173904  11.901   0.999  10.652  0.1451  0.7761 -0.2265
22647SOL    HW273905  12.032   0.948  10.596 -0.7074 -1.7109 -0.0799
22648SOL     OW73906   6.703   5.829   6.247 -0.8311 -0.0881 -0.5731
22648SOL    HW173907   6.740   5.861   6.164  0.2020 -2.0938 -0.9469
22648SOL    HW273908   6.611   5.809   6.227 -1.4260  2.1801 -0.4048
22649SOL     OW73909   9.920   8.516   4.368  0.0982 -0.0283 -0.6087
22649SOL    HW173910   9.932   8.535   4.461 -0.7321  1.5874 -0.7941
22649SOL    HW273911   9.825   8.516   4.356  0.1149 -2.0668 -1.1460
22650SOL     OW73912   7.466  11.655  10.073 -0.0678 -0.0552  0.4260
22650SOL    HW173913   7.506  11.732  10.114 -0.3154  1.1125 -1.4256
22650SOL    HW273914   7.535  11.618  10.018 -1.1240  1.4374 -2.0721
22651SOL     OW73915  12.182   3.018   4.595  0.0581  0.4343 -0.3011
22651SOL    HW173916  12.221   2.930   4.592  0.6685  0.6552  0.6891
22651SOL    HW273917  12.133   3.019   4.677  0.5235  1.2076 -0.0244
22652SOL     OW73918   9.458   1.001  10.484  0.0082  0.2196 -0.7084
22652SOL    HW173919   9.459   1.089  10.522 -0.3887 -0.0157 -0.1454
22652SOL    HW273920   9.535   1.000  10.426  0.9702  0.4007  0.5212
22653SOL     OW73921   5.070   8.018   8.577  1.1077 -0.3252 -0.2359
22653SOL    HW173922   5.118   8.052   8.652  1.4948  0.5025 -0.8395
22653SOL    HW273923   5.071   7.923   8.588  1.2365 -0.2201  0.7469
22654SOL     OW73924  10.131   9.146   4.650 -0.0916  0.2837 -0.4646
22654SOL    HW173925  10.206   9.109   4.698  0.0030 -0.6422 -1.2974
22654SOL    HW273926  10.152   9.239   4.640 -0.1832  0.5462  1.4032
22655SOL     OW73927  12.445  11.886  10.350 -0.1453 -0.4591 -0.1866
22655SOL    HW173928  12.527  11.868  10.304 -0.1212  1.2117 -0.8530
22655SOL    HW273929  12.382  11.907  10.281 -0.5780  0.3273  0.4271
22656SOL     OW73930   5.780  11.790   1.546 -1.0733  0.4174 -0.0112
22656SOL    HW173931   5.853  11.842   1.580 -0.2570  0.5476 -1.8004
22656SOL    HW273932   5.704  11.849   1.551 -1.0758  0.3092  1.7970
22657SOL     OW73933  10.687   9.436   3.262 -0.4362  0.1471 -0.4159
22657SOL    HW173934  10.638   9.517   3.247 -2.0179 -0.5602  0.6229
22657SOL    HW273935  10.673   9.384   3.183 -0.6269  0.2994 -0.4831
22658SOL     OW73936   8.535   7.188   9.882 -0.1611 -0.1298 -0.3963
22658SOL    HW173937   8.532   7.096   9.907 -0.4007  0.1075  0.4885
22658SOL    HW273938   8.522   7.236   9.964 -1.0698  0.6834 -0.9835
22659SOL     OW73939   8.609   0.130  11.925 -0.0784  0.3647 -0.4810
22659SOL    HW173940   8.621   0.072  12.000  1.6184  1.5546  0.2411
22659SOL    HW273941   8.688   0.185  11.925 -0.6868  1.3144 -2.3204
22660SOL     OW73942  11.416  11.947   6.156 -0.3473 -0.1710 -0.5389
22660SOL    HW173943  11.470  12.024   6.138 -1.0860  0.0977 -1.7636
22660SOL    HW273944  11.326  11.979   6.145 -0.8812 -0.2958  2.6666
22661SOL     OW73945  10.474   3.652   7.642 -0.1836  0.2698  0.7356
22661SOL    HW173946  10.434   3.575   7.601  0.5772 -0.0053  0.4780
22661SOL    HW273947  10.405   3.717   7.646 -0.0182  0.7082 -2.0294
22662SOL     OW73948   1.033   3.369   8.269 -0.1548  0.1899 -0.2963
22662SOL    HW173949   1.038   3.294   8.211  2.9757 -0.6939  0.9063
22662SOL    HW273950   1.101   3.429   8.237 -0.9397  1.4113  0.2248
22663SOL     OW73951   7.655  11.154   4.170 -0.3264  0.0660  0.3797
22663SOL    HW173952   7.653  11.106   4.087 -2.4691  1.2505 -0.3536
22663SOL    HW273953   7.709  11.231   4.151 -0.2869  0.0126  0.2705
22664SOL     OW73954   6.554  10.758   8.502 -0.2598  0.1532 -0.2522
22664SOL    HW173955   6.505  10.825   8.456 -0.5631 -0.9084 -1.5389
22664SOL    HW273956   6.579  10.695   8.434 -0.7217 -1.4702  1.0178
22665SOL     OW73957  10.398   5.963  12.001 -0.4127 -0.1684  0.2945
22665SOL    HW173958  10.415   6.056  12.014 -2.9666  0.2941  0.8569
22665SOL    HW273959  10.464   5.936  11.937 -1.8774  2.9539 -2.9074
22666SOL     OW73960   2.323   8.277   3.323 -0.5853 -0.0133  0.4946
22666SOL    HW173961   2.346   8.362   3.286 -0.9606  0.3234  1.0182
22666SOL    HW273962   2.404   8.227   3.320  0.0021  0.8485  1.4973
22667SOL     OW73963   0.207   6.298  10.027  0.5124  0.1557 -0.7678
22667SOL    HW173964   0.137   6.362  10.030  1.0665  0.7293  0.5723
22667SOL    HW273965   0.287   6.350  10.021  1.1772 -0.1876  2.8842
22668SOL     OW73966  10.874  12.173   0.897  0.2094  0.1224  0.7261
22668SOL    HW173967  10.952  12.226   0.914  0.5619 -0.1082 -0.1169
22668SOL    HW273968  10.816  12.192   0.971  1.3038 -0.1795  1.7184
22669SOL     OW73969   9.759   1.269  12.151  0.4195 -0.8558  0.2603
22669SOL    HW173970   9.813   1.279  12.230  2.3688 -2.0394 -0.8528
22669SOL    HW273971   9.702   1.346  12.151  2.2384  0.5811  1.4090
22670SOL     OW73972   9.370   0.253  11.844 -0.3326 -0.9447 -0.0410
22670SOL    HW173973   9.378   0.348  11.843 -0.8901 -0.8147  2.1555
22670SOL    HW273974   9.444   0.223  11.896 -0.4809 -1.6542 -0.2245
22671SOL     OW73975   9.498   9.300   4.854 -0.0537 -0.4808 -0.0360
22671SOL    HW173976   9.592   9.306   4.875  1.0236  3.1035 -4.3343
22671SOL    HW273977   9.455   9.324   4.936  2.9454  0.2525  1.4971
22672SOL     OW73978   6.684   6.410   8.940 -0.0116 -0.1306  0.0468
22672SOL    HW173979   6.699   6.414   9.034  1.1716 -1.5608 -0.0363
22672SOL    HW273980   6.745   6.475   8.903  1.3687 -1.3028  0.1525
22673SOL     OW73981   5.252   1.037   7.549 -0.0538 -0.3218 -0.1473
22673SOL    HW173982   5.341   1.020   7.518 -0.5434 -0.9584 -1.2639
22673SOL    HW273983   5.207   0.952   7.540 -0.9099  0.1136 -0.0781
22674SOL     OW73984   4.832  10.427  11.063 -0.5803 -0.5470  0.3372
22674SOL    HW173985   4.886  10.500  11.092 -1.6856  0.8825 -1.0415
22674SOL    HW273986   4.829  10.368  11.139 -1.3723  1.8219  2.2751
22675SOL     OW73987   9.478   6.890  11.721  0.1532  0.4590  0.3946
22675SOL    HW173988   9.521   6.884  11.806  2.2323  1.3429 -0.5515
22675SOL    HW273989   9.399   6.942  11.737  1.0190  1.4330  1.5966
22676SOL     OW73990   7.827   1.112  10.404  0.4793 -0.1942  0.0532
22676SOL    HW173991   7.846   1.119  10.497  1.9781 -0.3201 -0.2213
22676SOL    HW273992   7.747   1.060  10.400 -1.0154  1.8458  1.3459
22677SOL     OW73993   8.972   3.672   9.136  0.1396 -0.6326  0.3334
22677SOL    HW173994   8.965   3.653   9.230 -0.1697  0.5045  0.5606
22677SOL    HW273995   9.036   3.742   9.131 -0.3913 -0.1808 -0.2295
22678SOL     OW73996   5.824   6.380   4.488 -0.1349  0.3574  0.5808
22678SOL    HW173997   5.888   6.427   4.434 -1.1028  1.1107  0.0507
22678SOL    HW273998   5.800   6.304   4.435 -0.8849  0.9519  0.0641
22679SOL     OW73999   2.424   9.935   9.974  0.3615 -0.4111 -0.0458
22679SOL    HW174000   2.455   9.845   9.965 -1.1340 -0.8707 -0.9642
22679SOL    HW274001   2.348   9.940   9.916  1.1207  1.7929 -0.9566
22680SOL     OW74002   0.092   4.709  10.849  0.5827 -0.3391  0.1560
22680SOL    HW174003   0.137   4.743  10.772 -0.1647  0.4944  0.0700
22680SOL    HW274004   0.099   4.614  10.841 -1.1684 -0.3773 -2.0166
22681SOL     OW74005   8.321   3.430   7.656 -0.0908 -0.3278 -0.0644
22681SOL    HW174006   8.260   3.490   7.613  0.9788  0.8934  0.0438
22681SOL    HW274007   8.391   3.417   7.592 -0.4555 -1.7241 -0.1964
22682SOL     OW74008   3.946   5.255   4.169  0.0341  0.2174 -0.1721
22682SOL    HW174009   3.909   5.170   4.193 -0.9694  0.7520  0.2363
22682SOL    HW274010   3.971   5.246   4.077  0.5585 -0.7204  0.0482
22683SOL     OW74011   3.999   0.791  11.415 -0.2091 -0.4796  0.8339
22683SOL    HW174012   3.928   0.851  11.394  0.1220 -0.8624 -1.6983
22683SOL    HW274013   3.957   0.719  11.461 -1.0915  0.2906  1.2586
22684SOL     OW74014  10.367   5.864   3.141  0.1772  0.2623 -0.4667
22684SOL    HW174015  10.388   5.948   3.099  1.5697 -0.0048 -0.3341
22684SOL    HW274016  10.367   5.884   3.235 -2.2445  0.7002 -0.4865
22685SOL     OW74017   6.128   2.534   2.743  0.3946 -0.2080 -0.4004
22685SOL    HW174018   6.217   2.510   2.770  0.5171  1.0520  0.3887
22685SOL    HW274019   6.126   2.629   2.749 -1.1112 -0.2367 -0.0594
22686SOL     OW74020   9.833   0.869   7.546 -0.1262  0.1820  0.1890
22686SOL    HW174021   9.770   0.908   7.486 -0.3315 -1.7702 -0.9332
22686SOL    HW274022   9.877   0.800   7.496  1.6641  0.2866  1.4678
22687SOL     OW74023  12.429   6.787   3.859 -0.3760 -0.2186 -0.0888
22687SOL    HW174024  12.502   6.728   3.842  0.9514  1.1612  0.6432
22687SOL    HW274025  12.423   6.842   3.780  0.1196  0.4103  0.3045
22688SOL     OW74026   0.154   5.902   1.387 -0.3007  0.2911  0.6494
22688SOL    HW174027   0.123   5.962   1.454 -1.6487  1.2289 -0.7499
22688SOL    HW274028   0.245   5.882   1.412 -0.6094  1.0040  2.4272
22689SOL     OW74029   2.581   9.457   0.255  0.0174  0.8976 -0.0677
22689SOL    HW174030   2.563   9.484   0.345  2.1902  0.9909  0.3827
22689SOL    HW274031   2.659   9.402   0.261  0.0233  0.6382 -1.8627
22690SOL     OW74032   4.717   3.680   8.874 -0.1853 -0.7416 -0.3807
22690SOL    HW174033   4.637   3.658   8.922  0.0503  0.0046  0.3687
22690SOL    HW274034   4.784   3.688   8.941  0.3072 -0.3832 -0.9063
22691SOL     OW74035   8.851   9.569  11.248 -0.3096  0.4882  0.0756
22691SOL    HW174036   8.832   9.623  11.172 -2.1808  0.0941  0.1987
22691SOL    HW274037   8.939   9.534  11.233 -0.2420  1.2384 -1.3931
22692SOL     OW74038   7.329   0.900   5.285 -0.1296  0.3065  0.2830
22692SOL    HW174039   7.299   0.914   5.375  0.1850  0.2417  0.3987
22692SOL    HW274040   7.406   0.955   5.276 -0.2686  0.4572 -0.0089
22693SOL     OW74041   0.466  12.159   8.860 -0.2236  0.0215 -0.0249
22693SOL    HW174042   0.477  12.069   8.830 -2.3367 -0.5072  0.6165
22693SOL    HW274043   0.425  12.151   8.946 -1.8346  1.5721 -0.5710
22694SOL     OW74044   8.373  10.516   5.268  0.1458  0.1064  0.3486
22694SOL    HW174045   8.421  10.590   5.232  1.5568 -0.5031  0.9083
22694SOL    HW274046   8.332  10.549   5.347  0.4346  0.4020  0.3753
22695SOL     OW74047   5.293   7.730   9.680 -0.6793 -0.2653  0.0579
22695SOL    HW174048   5.279   7.757   9.771 -0.1134  1.5590 -0.3497
22695SOL    HW274049   5.241   7.651   9.670 -1.4060 -0.0388  1.7391
22696SOL     OW74050   1.198   4.375   0.322 -0.2156 -0.1428 -0.1610
22696SOL    HW174051   1.118   4.413   0.286 -1.2123 -1.1623  0.9252
22696SOL    HW274052   1.246   4.344   0.245  0.4057  2.7290 -1.0542
22697SOL     OW74053   2.452   6.650   3.883  0.5690  0.0831  0.7204
22697SOL    HW174054   2.498   6.734   3.887  1.0700  0.0931 -2.4162
22697SOL    HW274055   2.521   6.584   3.886  0.6145 -0.0028 -1.2168
22698SOL     OW74056  12.450  10.170   4.193  0.6222 -0.1573 -0.1144
22698SOL    HW174057  12.451  10.116   4.272  0.1699 -0.0609 -0.0406
22698SOL    HW274058  12.409  10.252   4.221  0.9059  0.0598 -0.3326
22699SOL     OW74059   7.006   3.034   9.147 -0.5069  0.1618 -0.1009
22699SOL    HW174060   7.005   3.015   9.053 -0.2726 -0.1163 -0.0489
22699SOL    HW274061   6.917   3.016   9.177 -0.3771 -0.5432 -0.1158
22700SOL     OW74062  11.557   0.066   6.765  0.6569  0.0510 -0.3373
22700SOL    HW174063  11.588   0.059   6.675 -2.1641 -5.2764 -1.3109
22700SOL    HW274064  11.595  -0.009   6.810  0.1312  1.2476  2.3376
22701SOL     OW74065  11.993   6.709   9.873 -0.8069  0.4303  0.2593
22701SOL    HW174066  11.993   6.690   9.780  2.3307  2.2587 -0.2756
22701SOL    HW274067  12.048   6.640   9.912  1.3179  1.9004  0.0245
22702SOL     OW74068   9.277   0.802   7.837  0.4671  0.4151  0.0334
22702SOL    HW174069   9.367   0.833   7.849 -0.1396  2.2997  0.1525
22702SOL    HW274070   9.223   0.874   7.869 -1.1030 -0.0273 -1.4506
22703SOL     OW74071   4.496   4.272  12.456  0.0484  0.2898  0.2976
22703SOL    HW174072   4.482   4.325  12.378 -0.4019  0.8978  0.7894
22703SOL    HW274073   4.578   4.225  12.439 -0.2113  0.1741 -0.6701
22704SOL     OW74074   7.358   5.431   6.450 -0.3913 -0.0192 -0.1676
22704SOL    HW174075   7.346   5.525   6.465  2.0751  0.6788 -1.9600
22704SOL    HW274076   7.283   5.391   6.494 -0.0824  2.5328  3.1508
22705SOL     OW74077   6.175  11.821   6.917  0.1361 -0.7291  0.1695
22705SOL    HW174078   6.195  11.910   6.890  0.0121  0.4926  3.7122
22705SOL    HW274079   6.089  11.803   6.879 -0.3023  1.0559  0.2447
22706SOL     OW74080  11.974   2.021   2.555  0.3688  0.5638  0.5782
22706SOL    HW174081  12.022   2.004   2.636  1.3217 -0.7068 -0.2258
22706SOL    HW274082  12.008   2.106   2.525  1.3549  0.1766  0.5707
22707SOL     OW74083   6.120   3.762   6.848 -0.1207 -0.3260 -0.2856
22707SOL    HW174084   6.035   3.794   6.820  0.9094  1.2260 -1.8063
22707SOL    HW274085   6.117   3.767   6.944 -1.2959  0.9225 -0.3582
22708SOL     OW74086   2.296  10.877  10.016  0.0548  0.0156  0.0153
22708SOL    HW174087   2.266  10.842   9.932  0.7328 -0.3975 -0.0602
22708SOL    HW274088   2.219  10.872  10.072 -0.9115  1.8613 -1.0316
22709SOL     OW74089   5.994   8.286   1.893  0.2454 -0.2531  0.3013
22709SOL    HW174090   5.954   8.373   1.891  0.2811 -0.2575 -0.7668
22709SOL    HW274091   6.006   8.262   1.801 -0.4768 -1.7202  0.5605
22710SOL     OW74092   2.246   7.972   6.690 -0.5964 -0.1957  0.1690
22710SOL    HW174093   2.287   7.887   6.704 -0.3853  0.0616  1.2067
22710SOL    HW274094   2.157   7.951   6.662 -0.3322 -0.7542 -0.2659
22711SOL     OW74095   1.447   1.336  11.697 -0.4088  0.0036  0.5523
22711SOL    HW174096   1.532   1.379  11.687 -0.6081  0.2287 -0.2496
22711SOL    HW274097   1.385   1.408  11.712 -0.4741 -0.1510  1.0314
22712SOL     OW74098   1.349  12.493   5.075  0.2769 -0.1743  0.1567
22712SOL    HW174099   1.430  12.482   5.026  0.7584 -1.7216  1.2242
22712SOL    HW274100   1.281  12.504   5.009  1.4537  2.4374 -0.7693
22713SOL     OW74101   7.444   1.218  11.619 -0.6944 -1.0541  0.4941
22713SOL    HW174102   7.395   1.192  11.541 -2.2308  2.6645  0.0232
22713SOL    HW274103   7.387   1.195  11.692 -0.6157 -1.7820  0.3317
22714SOL     OW74104   4.134   7.333   8.717 -0.4060 -0.0443 -0.7368
22714SOL    HW174105   4.179   7.274   8.657 -1.7239 -1.2730 -0.5587
22714SOL    HW274106   4.041   7.316   8.704 -0.9000  2.5980 -1.2735
22715SOL     OW74107   6.024   5.886   5.838 -0.2198 -0.1900 -0.3260
22715SOL    HW174108   5.941   5.870   5.793 -0.3719 -0.5686  0.0861
22715SOL    HW274109   6.024   5.826   5.913  0.8584 -0.8776 -0.8542
22716SOL     OW74110   1.306   3.119  11.126  0.2418 -0.2392  0.2710
22716SOL    HW174111   1.336   3.053  11.063  1.5265  1.0061 -0.4904
22716SOL    HW274112   1.236   3.166  11.080 -0.3925 -0.7893  0.6591
22717SOL     OW74113   9.117   2.522   0.455  0.2546  0.2359  0.1128
22717SOL    HW174114   9.065   2.537   0.376 -0.6160 -2.6515  0.0201
22717SOL    HW274115   9.053   2.523   0.527  0.5066 -0.4485  0.3574
22718SOL     OW74116   9.919   7.668   1.815  0.0351 -0.3040  0.1692
22718SOL    HW174117   9.868   7.694   1.738 -1.9233 -1.8547  0.8478
22718SOL    HW274118   9.998   7.627   1.779 -0.5656 -0.4599 -1.0119
22719SOL     OW74119   0.241   8.594  10.068  0.4134 -0.8705 -0.5101
22719SOL    HW174120   0.252   8.521  10.128 -1.1421  0.6354  1.7454
22719SOL    HW274121   0.147   8.596  10.048  0.7026 -0.5434 -1.9859
22720SOL     OW74122  10.733   7.753  10.073 -0.1522  0.6628 -0.3579
22720SOL    HW174123  10.771   7.801  10.146  1.0853 -1.9466  0.8523
22720SOL    HW274124  10.709   7.668  10.111 -0.8559 -0.2369 -2.6689
22721SOL     OW74125   8.104   4.929   7.641 -0.2859 -0.4561  0.4243
22721SOL    HW174126   8.157   4.980   7.580 -1.7743  0.8882  0.1904
22721SOL    HW274127   8.066   4.859   7.587 -0.9944  0.2812 -0.0667
22722SOL     OW74128   6.556  10.464   7.229  0.1946  0.1783  0.0055
22722SOL    HW174129   6.498  10.434   7.159  1.1462  2.8457 -2.0900
22722SOL    HW274130   6.506  10.531   7.276 -0.0109 -0.7651  1.1932
22723SOL     OW74131   7.686   8.638   1.590 -0.2535  0.4433 -0.1152
22723SOL    HW174132   7.710   8.639   1.682  3.0588  1.4539 -0.8385
22723SOL    HW274133   7.604   8.588   1.586 -0.2021 -0.1028  3.2497
22724SOL     OW74134   5.521  12.452   7.114  0.6662 -0.2739 -0.3893
22724SOL    HW174135   5.602  12.430   7.070  0.5305 -1.1361 -0.2209
22724SOL    HW274136   5.540  12.440   7.207  0.7723  0.9488 -0.2345
22725SOL     OW74137   5.210   6.110   9.060  0.3944  0.3741  0.0392
22725SOL    HW174138   5.299   6.113   9.094  0.1185 -1.9416  1.1169
22725SOL    HW274139   5.219   6.134   8.968  1.9778  1.0218  0.3253
22726SOL     OW74140   4.402   9.094   3.470 -0.1118 -0.3473  0.0639
22726SOL    HW174141   4.392   9.019   3.411  1.8030 -0.3296 -0.3686
22726SOL    HW274142   4.316   9.134   3.474 -0.7756 -1.5997 -1.0427
22727SOL     OW74143  10.510   7.916   0.360 -0.5657 -0.2385 -0.1893
22727SOL    HW174144  10.538   7.942   0.272  0.2457  1.4092  0.5096
22727SOL    HW274145  10.555   7.833   0.376 -1.2546 -0.9193 -1.5583
22728SOL     OW74146   9.373   9.785   8.634 -0.0565 -1.0083 -0.5475
22728SOL    HW174147   9.306   9.811   8.697 -0.0550 -2.0030 -0.1207
22728SOL    HW274148   9.456   9.813   8.674 -0.1560 -0.4520 -0.7265
22729SOL     OW74149   9.784   5.925  10.391  0.4992  0.6388 -0.2076
22729SOL    HW174150   9.840   5.849  10.375  1.1930  0.1772  3.4572
22729SOL    HW274151   9.806   5.953  10.480 -2.0236  3.1887 -0.2176
22730SOL     OW74152   1.662   3.795   6.372 -0.4945  0.0002 -0.0883
22730SOL    HW174153   1.756   3.814   6.372 -0.6447  0.8128  0.0952
22730SOL    HW274154   1.648   3.742   6.451 -0.2368  0.1382  0.0533
22731SOL     OW74155   9.192   3.498   4.495 -0.1745  0.3496  0.0395
22731SOL    HW174156   9.192   3.490   4.590 -0.5010  1.4743  0.1491
22731SOL    HW274157   9.252   3.571   4.477  0.9094 -0.6928 -0.7113
22732SOL     OW74158  10.822   7.472   1.766  0.5656  0.2240 -0.1416
22732SOL    HW174159  10.842   7.487   1.858 -1.1817 -0.4358  0.3873
22732SOL    HW274160  10.907   7.456   1.725  1.1992 -2.0486  1.8634
22733SOL     OW74161  10.160   5.220   2.459 -0.3509 -0.3572 -0.8759
22733SOL    HW174162  10.066   5.206   2.457 -0.5252  0.8199 -2.5119
22733SOL    HW274163  10.188   5.217   2.368  0.9743  0.6429 -0.5462
22734SOL     OW74164   5.474   2.790   2.282  0.2969  0.1180  0.0918
22734SOL    HW174165   5.530   2.728   2.328 -0.0704 -0.0722  0.2859
22734SOL    HW274166   5.430   2.838   2.352  0.8917  0.8913 -0.0502
22735SOL     OW74167  10.504   0.307   5.264 -0.1034  0.3739 -0.6381
22735SOL    HW174168  10.533   0.246   5.197  0.1514 -2.5545  1.8887
22735SOL    HW274169  10.423   0.268   5.299  1.0148  0.3823  2.2743
22736SOL     OW74170   0.910  10.413   2.731  0.1519 -0.1152 -0.1175
22736SOL    HW174171   0.929  10.331   2.775  0.1596  0.5605  1.1646
22736SOL    HW274172   0.814  10.417   2.727  0.1190  0.3602  0.9036
22737SOL     OW74173  11.391   1.498   3.999  0.3680 -0.2062 -0.3662
22737SOL    HW174174  11.361   1.422   3.948 -0.2421 -1.5595  1.8807
22737SOL    HW274175  11.333   1.569   3.972  0.4788 -0.6843 -1.9840
22738SOL     OW74176   9.700   3.179  10.742 -0.1955 -0.5158  0.0631
22738SOL    HW174177   9.606   3.177  10.760 -0.2630 -2.4335 -0.3062
22738SOL    HW274178   9.734   3.248  10.799 -1.6231 -0.7005  1.1820
22739SOL     OW74179   0.781  12.164   2.173  0.1770 -0.7934 -0.4005
22739SOL    HW174180   0.741  12.167   2.086 -0.0221  2.2887 -0.3191
22739SOL    HW274181   0.873  12.186   2.158  0.1367 -0.2041  0.1217
22740SOL     OW74182  10.166   8.956  11.922  0.8283  1.0223 -0.1859
22740SOL    HW174183  10.167   9.029  11.984  0.0882  0.8268  0.0634
22740SOL    HW274184  10.193   8.995  11.839  0.0828  1.6614 -0.1379
22741SOL     OW74185   3.077   5.687  10.688 -0.0382 -0.0105 -0.2936
22741SOL    HW174186   2.989   5.672  10.654  0.0391 -0.5439 -0.2542
22741SOL    HW274187   3.118   5.745  10.624 -0.3497  0.0777 -0.4143
22742SOL     OW74188  10.922   2.746   4.381 -0.0059  0.1291 -0.2960
22742SOL    HW174189  10.969   2.664   4.368  2.2886  1.1512  1.0264
22742SOL    HW274190  10.867   2.729   4.458 -1.5732 -0.9300 -1.5832
22743SOL     OW74191   8.126   6.149   0.237  0.1776 -0.3508 -1.0606
22743SOL    HW174192   8.073   6.219   0.200 -1.3328 -0.5179  0.6603
22743SOL    HW274193   8.064   6.095   0.286  2.0998  0.4901  2.6606
22744SOL     OW74194   7.900   3.768   1.463 -0.1315  0.0236 -0.1692
22744SOL    HW174195   7.961   3.811   1.403 -0.2647  0.6110  0.1115
22744SOL    HW274196   7.815   3.806   1.441 -0.2848 -0.2645 -0.0723
22745SOL     OW74197   2.121   6.710   9.584 -0.3894 -0.3483  0.2701
22745SOL    HW174198   2.102   6.617   9.598  1.5643 -0.8653 -0.2865
22745SOL    HW274199   2.192   6.711   9.519 -0.9984  1.5748 -0.4452
22746SOL     OW74200   7.248   2.384  11.065  0.2783 -0.4914  0.5239
22746SOL    HW174201   7.305   2.364  11.139  1.7219 -1.2619 -0.7358
22746SOL    HW274202   7.278   2.325  10.996 -1.1086  0.1233 -0.6443
22747SOL     OW74203   8.766   2.730  11.235 -0.1034  0.1752  0.0725
22747SOL    HW174204   8.765   2.636  11.214  1.9332  0.5450 -1.9952
22747SOL    HW274205   8.742   2.773  11.153 -0.6326  1.5142  0.9002
22748SOL     OW74206   4.462  11.510   5.676  0.5106 -0.2482 -0.2287
22748SOL    HW174207   4.443  11.432   5.625 -0.5576  0.1167 -0.4310
22748SOL    HW274208   4.398  11.508   5.747  1.1552 -0.0918  0.3633
22749SOL     OW74209   4.974   6.885   6.261  0.3365 -0.2984 -0.2471
22749SOL    HW174210   4.976   6.877   6.166  0.3058  2.3358 -0.5461
22749SOL    HW274211   4.961   6.979   6.277 -1.5886 -0.8887  2.3424
22750SOL     OW74212  11.792   4.287   6.540 -0.7783  0.2711  0.0945
22750SOL    HW174213  11.854   4.253   6.604 -1.0165 -1.3238 -0.4760
22750SOL    HW274214  11.732   4.214   6.523 -1.3885  1.0136 -1.1122
22751SOL     OW74215   9.792   5.290   1.185 -0.0254 -0.2319 -0.0715
22751SOL    HW174216   9.855   5.347   1.230 -0.5774  0.4279 -0.1212
22751SOL    HW274217   9.839   5.262   1.106  0.5078 -0.4314  0.3082
22752SOL     OW74218   9.375   0.418   1.507  0.4331  0.0926  0.7647
22752SOL    HW174219   9.294   0.392   1.462  0.5994 -0.1018  0.5719
22752SOL    HW274220   9.444   0.402   1.442  0.7495 -0.8031  1.3014
22753SOL     OW74221   1.701   7.572   4.840  0.4764 -0.0791 -0.2095
22753SOL    HW174222   1.669   7.633   4.907 -0.3331 -0.3314 -0.3602
22753SOL    HW274223   1.790   7.602   4.822  0.2173  0.8425 -0.0267
22754SOL     OW74224   0.725   0.209   3.761 -0.8886 -0.0727 -0.1778
22754SOL    HW174225   0.678   0.277   3.715 -1.5677 -1.2766 -1.3210
22754SOL    HW274226   0.660   0.142   3.779  0.2476 -1.6015 -1.4385
22755SOL     OW74227  12.371   6.567   1.820 -0.0763  0.3032  0.0491
22755SOL    HW174228  12.361   6.662   1.832  0.0697  0.2162  0.9321
22755SOL    HW274229  12.413   6.558   1.735 -1.0459  0.9832 -0.5216
22756SOL     OW74230   6.204   5.877   2.326  0.5543  0.0409  0.1846
22756SOL    HW174231   6.171   5.949   2.379 -0.0465 -0.8765  1.1067
22756SOL    HW274232   6.153   5.880   2.245  1.3100  1.3105 -0.2800
22757SOL     OW74233   9.745   4.634   7.204  0.0531 -0.3821  0.0503
22757SOL    HW174234   9.652   4.653   7.217 -0.0330 -0.4201 -0.5247
22757SOL    HW274235   9.784   4.719   7.184  0.6496  0.1812  3.0262
22758SOL     OW74236   4.214   4.739   2.577 -0.1811  0.3134 -0.1443
22758SOL    HW174237   4.284   4.687   2.615  0.7390  2.2815  1.0007
22758SOL    HW274238   4.246   4.763   2.490  0.5963  1.2411  0.3907
22759SOL     OW74239   2.823   4.639   5.237 -0.2428 -1.4344  0.3692
22759SOL    HW174240   2.751   4.600   5.286  0.1328 -2.8669 -0.1577
22759SOL    HW274241   2.902   4.606   5.280  0.3602  3.0136  3.3515
22760SOL     OW74242   1.753   1.757   1.451  0.0415 -0.3871  0.1105
22760SOL    HW174243   1.833   1.791   1.490  1.0854  1.0450 -2.9491
22760SOL    HW274244   1.765   1.662   1.450 -0.1035 -0.5367  3.0966
22761SOL     OW74245   3.256  12.011   5.874  0.0511 -0.3314 -0.3109
22761SOL    HW174246   3.268  12.046   5.785  2.5692 -1.7957 -0.6396
22761SOL    HW274247   3.342  12.018   5.914 -1.0225  0.2340  2.0618
22762SOL     OW74248   3.602   1.544  10.030  0.3684  0.4918  0.2921
22762SOL    HW174249   3.590   1.551   9.935 -1.5035  2.8479  0.6014
22762SOL    HW274250   3.660   1.468  10.042  1.4461  0.7216 -2.7478
22763SOL     OW74251  11.017   0.135   8.154  0.3468 -0.0205 -0.0638
22763SOL    HW174252  10.963   0.058   8.138 -0.1480  0.4598 -0.7302
22763SOL    HW274253  11.107   0.104   8.143  0.1926 -0.6743  0.4385
22764SOL     OW74254   1.921   8.912   1.867 -0.7956  0.2778 -0.1440
22764SOL    HW174255   1.970   8.840   1.908 -1.7622 -0.4210 -0.1700
22764SOL    HW274256   1.932   8.898   1.773 -0.8230  0.2715 -0.1465
22765SOL     OW74257  11.314   6.243   8.063 -0.4490 -0.2948 -0.1736
22765SOL    HW174258  11.242   6.233   8.124 -0.2684  0.1851  0.1283
22765SOL    HW274259  11.279   6.213   7.979  0.1928 -3.9448  0.6757
22766SOL     OW74260   1.529  10.486   7.326  0.4982  0.3168 -0.0259
22766SOL    HW174261   1.443  10.473   7.365  0.7730 -2.3060 -0.1351
22766SOL    HW274262   1.511  10.528   7.241 -0.3920  2.2779  1.0731
22767SOL     OW74263   9.994   2.215   7.693  0.4329 -0.0428  0.0686
22767SOL    HW174264  10.066   2.270   7.724  0.0237  1.7654 -1.9469
22767SOL    HW274265  10.036   2.132   7.669  1.1759 -0.4629  2.4672
22768SOL     OW74266   2.127  11.714   8.595  0.2305  0.1233  0.4004
22768SOL    HW174267   2.192  11.768   8.550  1.8113 -0.8638  1.4020
22768SOL    HW274268   2.078  11.672   8.524  2.0704 -0.7118 -0.4368
22769SOL     OW74269  10.184   3.746   8.511  0.5370 -0.2159  0.1589
22769SOL    HW174270  10.102   3.763   8.557  0.7040  1.1731  0.0025
22769SOL    HW274271  10.252   3.778   8.571  0.9439 -0.9007  0.0790
22770SOL     OW74272   2.000  10.846   9.298 -0.1851 -0.1914 -0.0049
22770SOL    HW174273   2.018  10.810   9.211 -2.6141  0.5457 -0.9076
22770SOL    HW274274   1.913  10.814   9.320 -0.8874  2.0383  0.7813
22771SOL     OW74275   8.763   0.469   8.705  0.1154 -0.8163 -0.4927
22771SOL    HW174276   8.801   0.412   8.772  0.7734 -0.6740 -0.7315
22771SOL    HW274277   8.688   0.509   8.747  2.1908  1.5819  1.2187
22772SOL     OW74278   3.368   1.808   4.305  0.1981 -0.2530 -0.2045
22772SOL    HW174279   3.292   1.808   4.363  1.4467 -1.1370  1.5625
22772SOL    HW274280   3.404   1.719   4.314  2.2259  0.5539  0.1815
22773SOL     OW74281   6.089  11.076   4.238 -0.0202  0.2514  0.3377
22773SOL    HW174282   6.092  11.171   4.249  1.7028  0.2574  0.1283
22773SOL    HW274283   6.181  11.050   4.234 -0.4746 -1.3491 -0.3343
22774SOL     OW74284   6.974  10.853   0.385  0.0378  0.6025  0.0124
22774SOL    HW174285   7.059  10.846   0.429 -0.3017  0.6597  0.6923
22774SOL    HW274286   6.929  10.771   0.405 -1.2544  1.7555  2.2587
22775SOL     OW74287   9.066   2.351   2.563 -0.4045 -0.0429  0.3097
22775SOL    HW174288   8.975   2.380   2.571 -0.4494  0.6152 -1.8450
22775SOL    HW274289   9.111   2.426   2.523  0.6439 -1.0688 -0.4764
22776SOL     OW74290   5.805   7.357   9.768  0.7853  0.2792 -0.0714
22776SOL    HW174291   5.729   7.414   9.786  1.4229  0.9865  0.4711
22776SOL    HW274292   5.767   7.277   9.734 -0.1879  0.8010 -0.2632
22777SOL     OW74293   6.406   3.588   2.680 -0.0978 -0.5405  0.4336
22777SOL    HW174294   6.431   3.501   2.647  0.9634 -0.3360  0.6665
22777SOL    HW274295   6.488   3.635   2.689 -0.4937 -0.0806  1.9610
22778SOL     OW74296   9.814   6.341   8.976  0.0525  0.4823 -0.4735
22778SOL    HW174297   9.743   6.307   9.030 -0.2377  0.8335 -0.6283
22778SOL    HW274298   9.774   6.414   8.928  0.2246 -0.0066 -1.3736
22779SOL     OW74299   8.711  12.147   0.124 -0.1081  0.2975 -0.2593
22779SOL    HW174300   8.654  12.076   0.094 -1.4111  1.8654 -1.7000
22779SOL    HW274301   8.651  12.213   0.158  0.9479  1.3840 -0.4387
22780SOL     OW74302   6.658   4.577   8.771 -0.1340  0.1100  0.0030
22780SOL    HW174303   6.633   4.666   8.796  1.6153  0.4447  0.7435
22780SOL    HW274304   6.606   4.559   8.693 -1.2726  1.3911  0.4224
22781SOL     OW74305   5.667   7.127   6.876  0.0862  0.6339  0.3832
22781SOL    HW174306   5.578   7.149   6.903 -0.3102 -1.6476  1.1050
22781SOL    HW274307   5.656   7.061   6.808  1.2462  0.8610 -0.0509
22782SOL     OW74308   7.867   1.838  11.517  0.6552  0.0982  0.5315
22782SOL    HW174309   7.950   1.885  11.518  1.4032 -1.1623  1.7026
22782SOL    HW274310   7.870   1.787  11.436  1.0902 -0.0265  0.6226
22783SOL     OW74311   6.010   5.990   7.597  0.6422  0.0248 -0.1823
22783SOL    HW174312   5.928   5.949   7.627  1.1076 -0.7973 -0.0105
22783SOL    HW274313   6.078   5.927   7.621  1.2151  0.1802 -1.3608
22784SOL     OW74314   4.130   1.830   5.265  0.2633  0.1494  0.1135
22784SOL    HW174315   4.134   1.917   5.304 -2.0542  0.0745  0.6996
22784SOL    HW274316   4.094   1.774   5.333 -3.4153 -0.0927 -1.7589
22785SOL     OW74317   9.860   9.709   4.230 -0.0178 -0.3957 -0.3164
22785SOL    HW174318   9.878   9.617   4.210 -2.0385 -1.0354  0.6215
22785SOL    HW274319   9.838   9.710   4.323  2.6644  1.5102  0.4357
22786SOL     OW74320   4.414  12.243  10.566  0.2391 -0.2208 -0.0767
22786SOL    HW174321   4.501  12.222  10.531  0.1734 -1.5256  0.4855
22786SOL    HW274322   4.409  12.339  10.563  1.5102 -0.1541 -0.5361
22787SOL     OW74323   4.981   6.527   0.830 -0.0378 -0.1293 -0.1948
22787SOL    HW174324   5.052   6.503   0.771  1.1143  1.1259  0.6353
22787SOL    HW274325   5.007   6.491   0.915 -0.3661  0.4023  0.1355
22788SOL     OW74326   8.663   8.971   3.185  0.8333 -0.4555 -0.0385
22788SOL    HW174327   8.655   9.015   3.270 -0.6229 -0.6648 -0.0388
22788SOL    HW274328   8.742   8.918   3.193 -0.1096 -1.7231  1.8080
22789SOL     OW74329   0.601   4.319   2.748  0.1366  0.7359  0.6327
22789SOL    HW174330   0.607   4.401   2.798  0.3399  1.3940 -0.4459
22789SOL    HW274331   0.508   4.297   2.749 -0.2213  2.0120 -0.6451
22790SOL     OW74332   9.775   1.114   4.389  0.3171  0.0881 -0.8494
22790SOL    HW174333   9.685   1.082   4.394 -0.9114  2.9490 -2.3889
22790SOL    HW274334   9.818   1.056   4.326 -0.8479 -0.4892 -1.1371
22791SOL     OW74335  10.638   6.221   6.571  0.2740 -0.6216 -0.4027
22791SOL    HW174336  10.603   6.282   6.635 -0.4537 -1.0973 -0.3409
22791SOL    HW274337  10.702   6.169   6.620  1.5592  0.6526 -0.6628
22792SOL     OW74338  10.561   9.155  11.531 -0.1989 -0.3957  0.8114
22792SOL    HW174339  10.564   9.249  11.545  1.7143 -0.8053  4.4346
22792SOL    HW274340  10.501   9.122  11.599  0.2051 -1.8858  0.4900
22793SOL     OW74341   1.476   1.246   5.998 -0.2748  0.5825  0.2000
22793SOL    HW174342   1.495   1.153   5.983  1.6428  0.9256  0.2800
22793SOL    HW274343   1.479   1.286   5.911  1.9772  1.0615  0.4561
22794SOL     OW74344   5.600   2.329   7.113 -0.0853  0.5434 -0.3721
22794SOL    HW174345   5.559   2.250   7.148  2.0193 -0.5754 -0.2887
22794SOL    HW274346   5.694   2.318   7.130  0.5976  1.7870 -2.7714
22795SOL     OW74347   6.959   1.205  12.344  0.4602 -0.2341  0.1273
22795SOL    HW174348   6.896   1.253  12.398  0.5876  2.1550 -1.7271
22795SOL    HW274349   6.905   1.149  12.288  0.1081  0.0758  0.1552
22796SOL     OW74350  12.072  11.809  10.272  0.7029  0.1036  0.9840
22796SOL    HW174351  12.013  11.854  10.332 -1.0644  1.1227 -1.3769
22796SOL    HW274352  12.061  11.716  10.292 -0.0464  0.3938  1.9981
22797SOL     OW74353   3.105  12.308   5.683 -0.0021 -0.1615  0.1062
22797SOL    HW174354   3.170  12.377   5.665 -1.0212  0.4570 -1.3745
22797SOL    HW274355   3.153  12.243   5.734  1.7678  0.3074 -0.8749
22798SOL     OW74356   9.927   5.661   7.574 -0.4055 -0.0213  0.1564
22798SOL    HW174357  10.011   5.616   7.580  0.8274  2.2828  2.8999
22798SOL    HW274358   9.870   5.613   7.634 -1.4629 -2.1563 -2.4119
22799SOL     OW74359   9.694  10.627  10.405 -0.0013  0.1931  0.0669
22799SOL    HW174360   9.643  10.674  10.471  0.8010 -1.5251  2.0266
22799SOL    HW274361   9.728  10.551  10.451 -0.4356 -1.8240 -2.6753
22800SOL     OW74362   4.340   0.541  12.073 -0.1087 -0.2464  0.1099
22800SOL    HW174363   4.394   0.492  12.135 -0.3255 -1.3271 -0.5248
22800SOL    HW274364   4.382   0.627  12.069  0.7195 -0.5987  0.7142
22801SOL     OW74365  11.666  11.785   6.244 -0.1646  0.0947  0.1033
22801SOL    HW174366  11.626  11.761   6.161 -1.3119  0.4251  0.5365
22801SOL    HW274367  11.624  11.728   6.309 -0.1596  0.6409  0.6033
22802SOL     OW74368   9.869   2.133   3.424  0.0287  0.0328 -0.1546
22802SOL    HW174369   9.944   2.075   3.438  0.1610  0.0149 -0.8788
22802SOL    HW274370   9.877   2.199   3.493  0.4404 -0.2470  0.0703
22803SOL     OW74371   7.619  10.788  10.592  0.6519 -0.1470  1.1042
22803SOL    HW174372   7.571  10.842  10.654  0.0465 -0.9514  1.3541
22803SOL    HW274373   7.703  10.770  10.634  0.9508  0.7766  0.9190
22804SOL     OW74374   9.011   9.543   6.537  0.4928 -0.2575  0.4873
22804SOL    HW174375   9.016   9.590   6.454  1.5914 -0.9474  0.1558
22804SOL    HW274376   9.102   9.529   6.563  0.1676  0.1004  1.8993
22805SOL     OW74377  11.739   4.410  12.195 -0.1202  0.1633 -0.0743
22805SOL    HW174378  11.769   4.330  12.152  0.0791 -0.3048  0.9024
22805SOL    HW274379  11.644   4.410  12.182 -0.1427 -0.3323  0.0752
22806SOL     OW74380   9.905  11.263   1.802  0.2688  0.0300 -0.4023
22806SOL    HW174381   9.933  11.237   1.889  0.2452 -0.5081 -0.5501
22806SOL    HW274382   9.982  11.302   1.762  0.1658  0.6659  0.0019
22807SOL     OW74383   3.745   7.811   1.496 -0.4583 -0.1921  0.2737
22807SOL    HW174384   3.725   7.865   1.573  0.4489  0.2655  0.2036
22807SOL    HW274385   3.730   7.869   1.421 -0.2388 -0.2807  0.1604
22808SOL     OW74386   8.931   8.553   9.043 -0.2218  0.2706  0.3351
22808SOL    HW174387   9.020   8.575   9.068 -0.0734  3.0891 -2.0073
22808SOL    HW274388   8.876   8.590   9.113  0.3713 -1.3825  1.7274
22809SOL     OW74389   0.783   7.408   0.499  0.2625  0.2779  0.1982
22809SOL    HW174390   0.784   7.313   0.505 -0.2260  0.3194  1.1003
22809SOL    HW274391   0.751   7.426   0.411  0.2013 -0.3913  0.0785
22810SOL     OW74392   3.043   4.275   6.535  0.4039  0.0313 -0.6282
22810SOL    HW174393   3.130   4.296   6.501  0.1844  0.0882 -1.1698
22810SOL    HW274394   2.985   4.335   6.488  0.1171  0.2631  0.0141
22811SOL     OW74395   1.743   8.070   6.595 -0.4077 -0.4933 -0.0895
22811SOL    HW174396   1.712   8.161   6.600  0.9220  0.0502 -1.1274
22811SOL    HW274397   1.684   8.028   6.533 -0.3338 -0.0205 -0.4876
22812SOL     OW74398  11.920   6.960   5.540 -0.6474  0.6577 -0.3403
22812SOL    HW174399  11.991   7.020   5.516  1.6938 -1.5276  0.6471
22812SOL    HW274400  11.923   6.957   5.635  1.6060 -3.3076 -0.3038
22813SOL     OW74401   6.235   4.765   0.948  0.0342  0.3093  0.2250
22813SOL    HW174402   6.174   4.728   0.884  0.8857 -1.3493  0.3176
22813SOL    HW274403   6.199   4.851   0.968 -1.5220 -0.0705 -0.7384
22814SOL     OW74404   8.156   0.048   1.136 -0.2125  0.1132 -0.0847
22814SOL    HW174405   8.216  -0.007   1.187 -0.6206  0.7966  1.1612
22814SOL    HW274406   8.208   0.073   1.059  1.4015  1.3049  1.3166
22815SOL     OW74407   5.276  12.142   9.029 -0.7203  0.3632 -0.3137
22815SOL    HW174408   5.348  12.138   9.091  1.7417  0.4292 -2.9688
22815SOL    HW274409   5.253  12.050   9.013  0.8390  0.1554 -1.5944
22816SOL     OW74410   5.977   0.197  11.354 -0.1477 -0.1367 -0.3017
22816SOL    HW174411   6.022   0.280  11.341 -0.6776  0.3717  0.9687
22816SOL    HW274412   6.032   0.132  11.310  1.3761  0.5822  0.4948
22817SOL     OW74413   5.559   1.663  10.296  0.2917 -0.0472  0.4053
22817SOL    HW174414   5.654   1.650  10.295  0.2234 -0.5419 -0.0918
22817SOL    HW274415   5.529   1.627  10.213 -0.3641 -0.1107  0.6634
22818SOL     OW74416   8.129  11.676   8.385 -0.4991  0.0391 -0.2369
22818SOL    HW174417   8.220  11.672   8.356 -0.6694 -0.1793 -0.7543
22818SOL    HW274418   8.134  11.709   8.475  0.2066 -1.5251  0.3320
22819SOL     OW74419  12.138  12.287   2.240  0.0674  0.9099  0.2466
22819SOL    HW174420  12.166  12.308   2.151 -0.7432  0.7971 -0.0372
22819SOL    HW274421  12.141  12.371   2.286  2.2700  0.6798  0.6364
22820SOL     OW74422   8.476   1.066   6.456  0.4156  0.1153  0.2702
22820SOL    HW174423   8.531   1.121   6.400  1.0504 -1.1405 -0.3990
22820SOL    HW274424   8.444   0.997   6.397  0.8298 -1.0486  1.3561
22821SOL     OW74425   7.045   6.190   3.943 -0.6557 -0.1975 -0.1500
22821SOL    HW174426   7.021   6.281   3.927  2.4305  0.8750  0.5176
22821SOL    HW274427   7.043   6.181   4.038  0.0513 -0.4660 -0.1480
22822SOL     OW74428   8.249   7.749   3.392 -0.6114  0.3254  0.0482
22822SOL    HW174429   8.316   7.749   3.460  0.1991 -2.2519 -0.6425
22822SOL    HW274430   8.285   7.805   3.323  1.0762 -1.2674 -0.4561
22823SOL     OW74431  10.515   4.180   5.338  0.1356 -0.5835  0.0061
22823SOL    HW174432  10.428   4.140   5.331 -0.1738  0.2615 -1.7241
22823SOL    HW274433  10.503   4.252   5.399 -0.7452  0.3073 -1.1628
22824SOL     OW74434   5.809  11.661   4.284 -0.0079 -0.3649  0.2663
22824SOL    HW174435   5.852  11.593   4.233  0.6829  0.5631 -0.4322
22824SOL    HW274436   5.730  11.619   4.318  0.0354 -1.3062 -0.7354
22825SOL     OW74437   5.861   4.859   0.941 -0.5716  0.4029 -0.5933
22825SOL    HW174438   5.907   4.781   0.908 -0.9091 -0.4981  0.9304
22825SOL    HW274439   5.798   4.881   0.873 -1.8898 -1.9364 -0.2316
22826SOL     OW74440   0.244   0.078   7.729 -0.0704  0.0861 -0.1191
22826SOL    HW174441   0.331   0.118   7.725  0.4686 -0.9045  0.9211
22826SOL    HW274442   0.185   0.144   7.693  1.0300  1.0206 -0.2712
22827SOL     OW74443   3.428   1.868   6.476  0.3360  0.2268  0.1669
22827SOL    HW174444   3.429   1.962   6.492 -0.6958  0.0358  1.6093
22827SOL    HW274445   3.336   1.843   6.488  0.4806 -0.8752 -0.8155
22828SOL     OW74446  11.798   4.818   7.026  0.3934 -0.1641 -0.0069
22828SOL    HW174447  11.807   4.817   7.121  0.1680  0.6478  0.0278
22828SOL    HW274448  11.711   4.780   7.010 -0.4400  1.5614  0.2399
22829SOL     OW74449   4.599   6.751   7.063 -0.2340  0.1332 -0.0524
22829SOL    HW174450   4.634   6.832   7.100 -0.8721  0.7467 -0.7729
22829SOL    HW274451   4.601   6.689   7.137 -1.8052  1.4224  1.1640
22830SOL     OW74452  11.814   6.929   0.971  0.0609  0.3850  0.0689
22830SOL    HW174453  11.723   6.958   0.976 -0.5347 -1.4970  1.0887
22830SOL    HW274454  11.826   6.872   1.047  1.2671 -1.5272 -1.4314
22831SOL     OW74455   4.425   2.577   8.516  0.3858 -0.0550  0.0139
22831SOL    HW174456   4.484   2.543   8.449  2.1840  0.8893  1.0450
22831SOL    HW274457   4.417   2.505   8.580  1.3163  0.1782  0.4081
22832SOL     OW74458   5.632   5.094   0.262  0.2017 -0.0403  0.5459
22832SOL    HW174459   5.672   5.067   0.344  0.6813 -1.4588 -0.1131
22832SOL    HW274460   5.567   5.026   0.243 -0.6704  0.8407  0.2797
22833SOL     OW74461  11.184   8.709   8.570 -0.6510  0.4163 -0.4488
22833SOL    HW174462  11.194   8.686   8.478 -0.4718 -0.0813 -0.3033
22833SOL    HW274463  11.202   8.803   8.573 -2.8885  0.9429 -1.2854
22834SOL     OW74464  10.753   4.816   8.235  0.6276  0.7057  0.5937
22834SOL    HW174465  10.743   4.882   8.303  0.7910  0.3032  1.0096
22834SOL    HW274466  10.663   4.798   8.205  0.4248 -0.1190  1.6621
22835SOL     OW74467  10.126  12.400   3.549  0.3608 -0.0571 -0.6026
22835SOL    HW174468  10.111  12.347   3.627 -0.7634  0.5412 -0.3934
22835SOL    HW274469  10.057  12.466   3.551 -0.0342 -0.3534 -2.3849
22836SOL     OW74470  11.618   7.829  11.442 -0.2305 -0.1169 -0.2228
22836SOL    HW174471  11.527   7.854  11.428  0.2269  0.8600 -1.6879
22836SOL    HW274472  11.637   7.765  11.374  0.8399  1.5151 -1.5287
22837SOL     OW74473   1.988   1.112   4.149  0.1843  0.1780 -0.0282
22837SOL    HW174474   2.064   1.122   4.092  1.0033  2.2459  1.3084
22837SOL    HW274475   1.990   1.019   4.174  1.8943  0.0327 -0.5465
22838SOL     OW74476   0.295   3.258   9.868 -0.1168  0.6698  0.1634
22838SOL    HW174477   0.199   3.257   9.864 -0.0627 -0.2785 -1.3591
22838SOL    HW274478   0.319   3.171   9.900  0.2519  0.6265 -0.2207
22839SOL     OW74479   9.468   8.075   0.106 -0.6463 -0.0475  0.3184
22839SOL    HW174480   9.534   8.041   0.165 -0.9195  0.9208  1.2043
22839SOL    HW274481   9.475   8.020   0.028  2.5228  1.1964 -0.4254
22840SOL     OW74482   2.884   6.129   1.087  0.7866  0.0059  0.0698
22840SOL    HW174483   2.895   6.037   1.110  0.3303  0.0006  0.2900
22840SOL    HW274484   2.964   6.153   1.040  1.3347 -0.2408  0.8558
22841SOL     OW74485   1.507   8.735   7.490  0.4441 -0.6959  0.3016
22841SOL    HW174486   1.415   8.738   7.466 -0.0605 -1.6239  1.9550
22841SOL    HW274487   1.553   8.769   7.413 -1.2341 -0.5587 -0.6934
22842SOL     OW74488   5.765  11.942  11.981  0.2711  0.2142 -0.1767
22842SOL    HW174489   5.680  11.914  12.015 -0.4445  2.3268 -0.1151
22842SOL    HW274490   5.793  11.869  11.925 -0.9345 -1.0876  0.8273
22843SOL     OW74491   2.518   0.276   6.427 -0.2395 -0.0531  0.0890
22843SOL    HW174492   2.515   0.240   6.516 -1.7472 -1.1079 -0.3543
22843SOL    HW274493   2.538   0.369   6.440  0.9689 -0.4554  1.4326
22844SOL     OW74494   5.268   4.348   5.593 -0.3261 -0.2043  0.6154
22844SOL    HW174495   5.189   4.294   5.588  0.2078 -0.8952 -1.7835
22844SOL    HW274496   5.336   4.287   5.622  0.0496 -0.5962 -1.0050
22845SOL     OW74497   9.174   4.079  10.082 -0.2646  0.1447 -0.7245
22845SOL    HW174498   9.181   3.992  10.043 -1.3417 -0.6813  0.8488
22845SOL    HW274499   9.080   4.095  10.089 -0.1123  1.9553 -2.0422
22846SOL     OW74500   3.150   3.972   6.643 -0.7040 -0.2426  0.3602
22846SOL    HW174501   3.193   3.893   6.610 -0.3808  0.6517 -1.4760
22846SOL    HW274502   3.071   3.979   6.590 -0.3861  1.0283  0.0336
22847SOL     OW74503   4.366   4.820   6.019  0.5171  0.5938  0.4089
22847SOL    HW174504   4.334   4.884   5.956  0.3524  1.4623  1.3589
22847SOL    HW274505   4.349   4.735   5.977 -1.2090  1.0792  0.0338
22848SOL     OW74506   7.045   1.676   0.186  0.1382 -0.1656  0.4263
22848SOL    HW174507   7.005   1.763   0.183 -0.0807 -0.2897 -2.2858
22848SOL    HW274508   7.136   1.693   0.209  0.0495  0.7655  0.1219
22849SOL     OW74509   4.621   4.097   8.591  0.5554  0.7258 -0.6874
22849SOL    HW174510   4.538   4.143   8.593 -0.9604 -1.6551 -2.4833
22849SOL    HW274511   4.614   4.031   8.659  1.3729  1.0631 -0.2573
22850SOL     OW74512   2.624   9.015   9.215  0.1029 -0.3419 -0.4206
22850SOL    HW174513   2.656   9.016   9.306 -0.9908  2.1372  0.0020
22850SOL    HW274514   2.693   8.970   9.167  0.2568 -2.6989  1.7528
22851SOL     OW74515   2.444  10.149   2.982 -0.0685  0.3558 -0.1414
22851SOL    HW174516   2.408  10.166   2.895  0.4856 -0.4117 -0.5433
22851SOL    HW274517   2.537  10.169   2.973  0.4668 -1.9018 -0.4222
22852SOL     OW74518   8.595   8.048  10.581  0.2806  0.2009  0.3674
22852SOL    HW174519   8.657   8.003  10.638  1.3818  3.1870  1.7269
22852SOL    HW274520   8.649   8.097  10.519 -0.8618 -0.5328 -1.2839
22853SOL     OW74521   7.840   6.765   8.957 -0.2003  0.3168  0.3686
22853SOL    HW174522   7.806   6.698   8.897 -0.1538  0.7424 -0.1366
22853SOL    HW274523   7.907   6.720   9.008 -1.3690 -0.4900  1.2460
22854SOL     OW74524   6.359   2.029   8.577 -0.3298  0.4185 -0.0454
22854SOL    HW174525   6.270   2.064   8.584 -0.6981 -0.6762  1.1964
22854SOL    HW274526   6.346   1.935   8.565  0.6535  0.0676  1.4609
22855SOL     OW74527   3.395   2.699   2.292 -0.2548  0.3721  0.0857
22855SOL    HW174528   3.472   2.714   2.346 -0.5841  0.9048  0.4144
22855SOL    HW274529   3.422   2.632   2.229  1.0377  1.8463 -0.9979
22856SOL     OW74530   4.702   8.341   9.674  0.4579 -0.0937 -0.2235
22856SOL    HW174531   4.636   8.286   9.631  0.5203 -1.2702  1.1164
22856SOL    HW274532   4.785   8.297   9.656  0.5996  0.0018  0.1899
22857SOL     OW74533   9.166   3.854   7.293 -0.2482 -0.6127 -0.1113
22857SOL    HW174534   9.229   3.898   7.351 -1.6211 -0.2664  1.1766
22857SOL    HW274535   9.090   3.911   7.294 -1.0589 -1.6653 -0.6204
22858SOL     OW74536  10.363   4.095  10.913  0.1764  0.1891 -0.1676
22858SOL    HW174537  10.414   4.107  10.993  0.8073  0.6927 -0.6417
22858SOL    HW274538  10.365   4.001  10.898  1.7422  0.2762 -0.6714
22859SOL     OW74539   9.824   4.205  10.750 -0.1752 -0.3442  0.4360
22859SOL    HW174540   9.892   4.269  10.772 -2.0746  1.2172  2.1326
22859SOL    HW274541   9.816   4.210  10.655 -0.1604  1.8699  0.5050
22860SOL     OW74542   9.048   1.718   4.274  0.8050  0.1951 -0.8026
22860SOL    HW174543   9.091   1.635   4.292  1.6736  0.6077 -0.9063
22860SOL    HW274544   8.961   1.708   4.311  0.7014 -0.9570 -1.3165
22861SOL     OW74545   7.434  10.006   9.297  0.2219  0.5238  0.7774
22861SOL    HW174546   7.457  10.074   9.233 -1.7888 -0.1318 -0.7280
22861SOL    HW274547   7.390  10.054   9.367  1.7298  1.1439  1.3612
22862SOL     OW74548   1.694   1.713   4.588  0.2728 -0.0384 -0.0129
22862SOL    HW174549   1.680   1.622   4.611  1.8571  0.0608  1.5978
22862SOL    HW274550   1.783   1.716   4.553  0.1700  0.8713 -0.2359
22863SOL     OW74551   6.754   7.831  10.908 -0.1417 -0.1701  0.5134
22863SOL    HW174552   6.661   7.818  10.930 -0.3181 -1.5979 -0.8886
22863SOL    HW274553   6.754   7.847  10.814  1.1742 -2.4633  0.0425
22864SOL     OW74554   5.619   0.506   3.000 -0.4854  0.0571  0.1596
22864SOL    HW174555   5.540   0.540   2.957 -1.0645 -1.0994  0.2678
22864SOL    HW274556   5.607   0.528   3.093  0.1792  1.4461 -0.0486
22865SOL     OW74557  10.594   9.906  10.888 -0.1766  0.0794  0.3509
22865SOL    HW174558  10.531   9.973  10.862  0.8099  0.4052 -1.4142
22865SOL    HW274559  10.644   9.946  10.959 -1.4488  0.0730  1.2925
22866SOL     OW74560   9.847  10.843   9.236  0.7478  0.2123  0.4072
22866SOL    HW174561   9.813  10.754   9.233  1.0833  0.0854 -1.9368
22866SOL    HW274562   9.769  10.899   9.235  0.5513 -0.0346  1.2400
22867SOL     OW74563   7.673   5.673   8.989  0.2275  0.2046  0.4662
22867SOL    HW174564   7.685   5.669   8.894  0.9274 -0.7927  0.5814
22867SOL    HW274565   7.583   5.703   9.000  0.1698  0.4481 -0.5057
22868SOL     OW74566   1.539   1.155  11.472 -0.9028  0.0506  0.4079
22868SOL    HW174567   1.545   1.206  11.553  0.8254  0.7463 -0.1027
22868SOL    HW274568   1.584   1.073  11.491  1.2883  0.9995 -0.3562
22869SOL     OW74569   2.726  10.485   4.274  0.3400  0.3127  1.2674
22869SOL    HW174570   2.743  10.572   4.311 -0.9595  1.6070 -0.9765
22869SOL    HW274571   2.633  10.471   4.290 -0.6104  1.4800 -2.3169
22870SOL     OW74572   9.633  11.855  10.716  0.6139  0.0390  0.6163
22870SOL    HW174573   9.624  11.895  10.630 -0.8885 -0.4768  0.5058
22870SOL    HW274574   9.725  11.829  10.721  0.9126  0.8480 -0.4779
22871SOL     OW74575   5.618   4.089   7.249  0.0567  0.0169 -0.7600
22871SOL    HW174576   5.604   4.183   7.248  0.7592  0.1209 -1.4738
22871SOL    HW274577   5.678   4.075   7.323  0.1438  0.1524 -0.8059
22872SOL     OW74578  10.381   4.064   8.938 -0.3553 -0.2082 -0.1397
22872SOL    HW174579  10.297   4.094   8.903  0.1628  0.2266 -1.0446
22872SOL    HW274580  10.443   4.135   8.918  0.3412 -0.7426  0.0569
22873SOL     OW74581   7.882   3.131   6.371  0.1841 -0.1378  0.0548
22873SOL    HW174582   7.830   3.162   6.297  1.3268 -1.0590 -1.1691
22873SOL    HW274583   7.817   3.114   6.440 -0.9999 -0.1175 -1.0186
22874SOL     OW74584   9.024   4.238   3.587 -0.1521  0.1666  0.0153
22874SOL    HW174585   9.050   4.159   3.539 -0.2105  0.9244 -1.2938
22874SOL    HW274586   8.960   4.281   3.530 -0.2472  1.0874  0.7897
22875SOL     OW74587   4.047  11.438   4.890  0.2331 -0.0030 -0.0701
22875SOL    HW174588   4.101  11.382   4.947  0.5811 -1.1043 -1.4283
22875SOL    HW274589   4.104  11.460   4.817 -0.0007  1.9488  0.2963
22876SOL     OW74590   1.158   3.075  10.648 -0.0284 -0.1755 -0.4458
22876SOL    HW174591   1.154   2.998  10.591 -1.6076 -1.2883  1.0700
22876SOL    HW274592   1.091   3.135  10.613  0.5626  0.1326 -1.0726
22877SOL     OW74593   7.739   3.775  11.158 -0.2983 -0.4225  0.7963
22877SOL    HW174594   7.721   3.787  11.251 -0.3848 -1.7508  0.9613
22877SOL    HW274595   7.703   3.854  11.117  0.7558  0.7292  1.9823
22878SOL     OW74596   8.510   3.470   4.609  0.2739 -0.0179 -0.0143
22878SOL    HW174597   8.522   3.485   4.516  0.3593  0.1138  0.0171
22878SOL    HW274598   8.426   3.511   4.630 -1.2114 -2.5589 -0.6028
22879SOL     OW74599   0.287  10.117   0.472  0.1393 -0.7302 -0.3232
22879SOL    HW174600   0.344  10.138   0.546  2.3269 -0.9058 -1.8503
22879SOL    HW274601   0.201  10.148   0.498  0.9235 -0.3860  2.0971
22880SOL     OW74602  12.000  11.471   7.751 -0.3963  0.3628  0.0191
22880SOL    HW174603  12.017  11.443   7.841  1.3719 -1.7923 -0.8928
22880SOL    HW274604  12.066  11.538   7.732  0.3084 -0.3609 -0.1493
22881SOL     OW74605  11.039   5.929   2.571  0.1213 -0.5614 -0.8714
22881SOL    HW174606  10.971   5.910   2.507 -0.7050  0.9374 -0.4943
22881SOL    HW274607  11.049   6.024   2.567  0.1090 -0.4347  1.1284
22882SOL     OW74608   2.121   6.806   4.499 -0.0254  0.1213 -0.6333
22882SOL    HW174609   2.146   6.786   4.589  3.7203 -0.7249 -1.6982
22882SOL    HW274610   2.036   6.764   4.488  0.6402 -2.0777  1.7253
22883SOL     OW74611   9.103   3.487   1.467 -0.2349  0.0475  0.3439
22883SOL    HW174612   9.080   3.472   1.559  0.1358  2.0755  0.8191
22883SOL    HW274613   9.144   3.574   1.467 -0.0495 -0.0038 -1.7116
22884SOL     OW74614   9.580   0.859   3.117 -0.1155  0.0516  0.2811
22884SOL    HW174615   9.489   0.839   3.095  0.2130 -0.1166 -1.0202
22884SOL    HW274616   9.609   0.918   3.048  0.4258  1.0469  1.3379
22885SOL     OW74617   0.263  10.096  11.381  0.1077  0.5232  0.2270
22885SOL    HW174618   0.191  10.133  11.432 -0.5735  0.1738 -0.4481
22885SOL    HW274619   0.306  10.035  11.441 -0.0694  0.8470  0.6883
22886SOL     OW74620  12.211   0.641  10.151 -1.1381  0.4093  0.0370
22886SOL    HW174621  12.225   0.691  10.231  0.7965  0.7765 -0.4935
22886SOL    HW274622  12.155   0.697  10.097 -2.6516  0.0573  1.1746
22887SOL     OW74623  11.558   0.704   5.154 -0.3768 -0.5810  0.0431
22887SOL    HW174624  11.538   0.676   5.065 -1.0072  0.6263 -0.2183
22887SOL    HW274625  11.534   0.629   5.209  1.3601 -1.8843 -0.8874
22888SOL     OW74626   2.893   1.066  12.471  0.0007  0.1425  0.0217
22888SOL    HW174627   2.877   1.040  12.561  1.8590 -1.0477  0.0684
22888SOL    HW274628   2.829   1.018  12.419  0.4808 -1.0735  0.5208
22889SOL     OW74629   4.990   4.373   6.533 -0.2885  0.3348  0.1413
22889SOL    HW174630   5.020   4.287   6.503 -1.1598 -0.1963  0.7608
22889SOL    HW274631   5.002   4.430   6.456  0.2699 -0.3365 -0.2846
22890SOL     OW74632   2.941   1.435   7.405  0.0326 -0.7874  0.4498
22890SOL    HW174633   2.997   1.512   7.417  0.4778 -0.7857 -1.4332
22890SOL    HW274634   2.939   1.394   7.492  2.0251 -0.1623  0.8457
22891SOL     OW74635   8.724   6.269   2.675 -0.1476 -0.1238  0.1584
22891SOL    HW174636   8.784   6.343   2.663 -0.6082  0.1985 -0.1810
22891SOL    HW274637   8.666   6.297   2.746  0.5410 -0.7224  0.9746
22892SOL     OW74638   9.673   9.300   8.799  0.4821  0.1098 -0.2421
22892SOL    HW174639   9.768   9.299   8.807  0.5996  1.0566 -1.2553
22892SOL    HW274640   9.657   9.303   8.704 -0.5794 -1.1269 -0.1342
22893SOL     OW74641   8.247   1.176   1.552  0.0840  0.8693  0.2045
22893SOL    HW174642   8.216   1.262   1.526 -1.8738 -0.0814 -0.7772
22893SOL    HW274643   8.169   1.121   1.553  1.5076 -1.3645 -1.1915
22894SOL     OW74644   4.648  12.188   7.186 -0.1485  0.4524 -0.6327
22894SOL    HW174645   4.630  12.129   7.113 -1.1342 -2.1974  1.5780
22894SOL    HW274646   4.731  12.157   7.222 -0.7585  0.2622  0.6612
22895SOL     OW74647   1.429   9.522   8.935  0.6890  0.3865 -0.1487
22895SOL    HW174648   1.356   9.575   8.965 -0.3674 -1.8140  1.5088
22895SOL    HW274649   1.506   9.559   8.979  0.0713  0.8890  0.5208
22896SOL     OW74650   1.957   4.474   9.495 -0.1126 -0.3462  0.1220
22896SOL    HW174651   1.989   4.384   9.492  0.5915 -0.2413  2.7297
22896SOL    HW274652   2.033   4.527   9.518 -0.2853  1.1339 -2.2901
22897SOL     OW74653   1.712  11.098  11.555 -0.0312  0.2756  0.0829
22897SOL    HW174654   1.690  11.158  11.627  0.0652  0.4545 -0.0394
22897SOL    HW274655   1.763  11.150  11.494 -0.5796  0.2738 -0.3872
22898SOL     OW74656   4.623   4.753   5.535 -0.2945 -0.3597 -0.0886
22898SOL    HW174657   4.637   4.792   5.449  1.0715 -1.1335 -0.2535
22898SOL    HW274658   4.625   4.828   5.595 -2.3725  0.3232 -0.7734
22899SOL     OW74659   2.327   3.504   2.335 -0.7147 -0.1794  0.0494
22899SOL    HW174660   2.381   3.429   2.310  1.0334  1.0350  0.0501
22899SOL    HW274661   2.240   3.466   2.352  0.4087 -2.4193  1.3063
22900SOL     OW74662   6.603   6.359   9.628 -0.5115 -0.0647  0.5940
22900SOL    HW174663   6.546   6.428   9.595  0.5033  0.1423 -0.8377
22900SOL    HW274664   6.580   6.282   9.576  0.9453  0.2016 -0.5130
22901SOL     OW74665  11.508   5.111  10.257  0.1718 -0.4155 -0.4912
22901SOL    HW174666  11.517   5.192  10.206  1.5076 -1.3786 -1.9143
22901SOL    HW274667  11.534   5.136  10.346  3.1446  0.2734 -1.4030
22902SOL     OW74668  11.870   5.583   5.330 -0.1580  0.1969 -0.3182
22902SOL    HW174669  11.921   5.543   5.400 -0.0790  1.6919  0.5278
22902SOL    HW274670  11.798   5.628   5.374  0.1080  1.4934 -1.1290
22903SOL     OW74671  11.433  11.277   5.591  0.0960 -0.3979  0.4762
22903SOL    HW174672  11.524  11.305   5.594 -0.1482  0.5839 -0.6528
22903SOL    HW274673  11.432  11.194   5.638  1.7212 -0.8098 -0.1498
22904SOL     OW74674   1.092   8.506  10.223 -0.3466  0.2685 -0.0568
22904SOL    HW174675   1.183   8.523  10.198 -0.4893 -0.7020 -1.3145
22904SOL    HW274676   1.079   8.413  10.207 -1.0793  0.0000  1.7790
22905SOL     OW74677   1.319   9.940   2.480 -0.4163  0.0348 -0.2642
22905SOL    HW174678   1.263   9.987   2.542 -0.7403 -0.4628 -0.1759
22905SOL    HW274679   1.286   9.850   2.481  0.8850 -0.4578  0.3947
22906SOL     OW74680   6.746  10.827   6.349  0.0486  0.4692  0.5019
22906SOL    HW174681   6.777  10.855   6.263  1.0200 -0.2690  0.5890
22906SOL    HW274682   6.822  10.837   6.407 -0.8981  2.0529  1.5627
22907SOL     OW74683   9.819   4.386   6.730  0.2188 -0.4894  0.4196
22907SOL    HW174684   9.909   4.357   6.713  0.8719  1.7467 -0.1525
22907SOL    HW274685   9.826   4.441   6.808 -0.6153 -0.1369  0.2503
22908SOL     OW74686   3.347   8.913  11.921  0.0711 -0.6239 -0.2733
22908SOL    HW174687   3.259   8.896  11.887 -0.3037 -1.7488  1.1932
22908SOL    HW274688   3.405   8.863  11.863 -0.2959 -0.3369 -0.8965
22909SOL     OW74689   5.925   9.530  11.071 -0.2276  0.5577 -0.5192
22909SOL    HW174690   5.964   9.482  11.144  1.3494  1.0934 -0.9635
22909SOL    HW274691   5.897   9.463  11.009 -1.4204  0.1061  0.4769
22910SOL     OW74692   5.431   8.400   0.877  0.6330  0.0751  0.1273
22910SOL    HW174693   5.409   8.378   0.968 -1.2996  0.4955 -0.2123
22910SOL    HW274694   5.396   8.488   0.864 -0.7124 -0.6562 -1.5211
22911SOL     OW74695   4.211  12.316   4.812 -0.4177  0.5541 -0.3613
22911SOL    HW174696   4.232  12.234   4.768 -1.1145  0.0815  0.1618
22911SOL    HW274697   4.296  12.358   4.825  0.1245 -0.7390  0.6164
22912SOL     OW74698  10.751   2.381  12.378 -0.3700  0.7884 -0.2634
22912SOL    HW174699  10.688   2.333  12.325  2.2019 -1.9295 -1.1673
22912SOL    HW274700  10.745   2.341  12.465  1.8351 -1.5372 -1.0379
22913SOL     OW74701   8.666  10.419   8.142  0.2849  0.4301 -0.3947
22913SOL    HW174702   8.669  10.387   8.052 -0.0744  2.4386 -1.1565
22913SOL    HW274703   8.582  10.463   8.150  0.2165  0.1087  0.9978
22914SOL     OW74704   2.303   1.656  10.436 -0.4147 -0.7254 -0.2657
22914SOL    HW174705   2.389   1.621  10.459 -1.0165 -1.0038  1.7863
22914SOL    HW274706   2.248   1.638  10.513 -1.3838  2.6021 -0.0064
22915SOL     OW74707   3.043   2.800   8.019  0.2608  0.2608 -0.3900
22915SOL    HW174708   3.008   2.754   8.095 -1.3390  2.1082  0.0820
22915SOL    HW274709   3.013   2.749   7.944 -1.2725  0.3604  0.1166
22916SOL     OW74710   4.342   4.820   5.121 -0.3976 -0.0294  0.4897
22916SOL    HW174711   4.353   4.775   5.037 -0.0300  1.1835 -0.1338
22916SOL    HW274712   4.358   4.752   5.186 -1.9911 -1.3189 -0.3909
22917SOL     OW74713   2.914   7.100   4.573  0.1319  0.3214  0.0219
22917SOL    HW174714   2.920   7.163   4.501 -1.6448 -0.2779 -0.7297
22917SOL    HW274715   2.860   7.144   4.639  0.4244  0.2734  0.2952
22918SOL     OW74716   4.282  11.301   2.523 -0.3375 -0.6286  0.1799
22918SOL    HW174717   4.260  11.357   2.449 -0.4537  0.5822  1.1060
22918SOL    HW274718   4.197  11.267   2.553 -0.7875  1.7966  1.9847
22919SOL     OW74719   0.031   7.326   2.557 -0.3717  0.3462  0.0689
22919SOL    HW174720   0.051   7.248   2.608 -1.1508  0.3511  0.3888
22919SOL    HW274721   0.117   7.362   2.533  0.0013 -1.0370 -0.7741
22920SOL     OW74722  11.917  10.546   2.315 -0.2657 -0.0554  0.5469
22920SOL    HW174723  11.856  10.614   2.346  0.1611 -0.2515  1.8601
22920SOL    HW274724  11.935  10.493   2.392 -3.5150 -4.1120 -1.0677
22921SOL     OW74725   2.605   4.193   3.133 -0.4728 -0.3150  0.5163
22921SOL    HW174726   2.599   4.282   3.169 -2.0459  1.1737 -2.9096
22921SOL    HW274727   2.523   4.152   3.157 -1.2151  0.4235 -0.6468
22922SOL     OW74728  10.033   9.737   7.638  0.2403  0.2749 -0.3547
22922SOL    HW174729  10.088   9.692   7.575 -1.5530  0.1035 -1.8913
22922SOL    HW274730  10.038   9.830   7.613  0.1733  0.3132 -0.2305
22923SOL     OW74731  11.243   7.507   1.086  0.0207  0.0999 -0.1704
22923SOL    HW174732  11.222   7.443   1.019 -1.5381  0.6451 -0.2421
22923SOL    HW274733  11.183   7.487   1.158 -0.2134  1.2238 -0.0393
22924SOL     OW74734   2.797   0.683  12.396 -0.2258 -0.1645 -0.2208
22924SOL    HW174735   2.739   0.742  12.445 -0.1014 -1.0679  1.0728
22924SOL    HW274736   2.862   0.741  12.356  0.2639  0.5525  1.5291
22925SOL     OW74737   4.480   9.502   1.149 -0.2365 -0.1105  0.3989
22925SOL    HW174738   4.557   9.455   1.115  0.0491 -0.4760  1.4896
22925SOL    HW274739   4.506   9.594   1.148  0.7418 -0.3199  1.9246
22926SOL     OW74740   8.414   9.474   0.640 -0.1992 -0.3461  0.1298
22926SOL    HW174741   8.493   9.489   0.589 -0.5282  2.8177  0.4062
22926SOL    HW274742   8.371   9.400   0.596  1.4152 -0.2034 -1.8058
22927SOL     OW74743   4.722   7.634  12.468 -0.1856 -0.0412 -0.4980
22927SOL    HW174744   4.818   7.638  12.471 -0.2241  1.5240 -0.3456
22927SOL    HW274745   4.702   7.603  12.380  0.4575  0.4655 -0.8273
22928SOL     OW74746   3.410   4.774  12.467  0.9092  0.2927 -0.3041
22928SOL    HW174747   3.433   4.746  12.555  0.5624  0.1849 -0.2465
22928SOL    HW274748   3.398   4.693  12.418  0.4609  0.3387 -0.2817
22929SOL     OW74749   0.448   5.401  11.047  0.3567 -0.3787  0.3625
22929SOL    HW174750   0.423   5.377  10.957  0.5383  2.4139 -0.5158
22929SOL    HW274751   0.407   5.334  11.101 -1.3719 -1.0940 -1.6717
22930SOL     OW74752   1.720  10.873  11.842  0.3914 -0.1596  0.6232
22930SOL    HW174753   1.765  10.872  11.926 -1.1089 -0.0610  1.4592
22930SOL    HW274754   1.719  10.965  11.816 -2.4674  0.4441  2.4244
22931SOL     OW74755   7.889  11.586   1.084 -0.7254  0.0947  0.3130
22931SOL    HW174756   7.929  11.657   1.035 -0.5409  1.1741  1.9240
22931SOL    HW274757   7.800  11.616   1.102 -0.9646 -0.5149  0.1583
22932SOL     OW74758   5.021   2.336   6.140  0.1264 -0.2825 -0.4860
22932SOL    HW174759   5.093   2.338   6.078 -0.9363  2.0744 -1.7597
22932SOL    HW274760   4.992   2.245   6.140  1.8277 -0.8616 -1.4267
22933SOL     OW74761   1.628   9.204   1.418 -0.4112  0.5637  0.2189
22933SOL    HW174762   1.555   9.233   1.363  0.4244 -0.8306 -1.7278
22933SOL    HW274763   1.702   9.257   1.390  0.0692 -0.3002 -0.2117
22934SOL     OW74764   9.995   5.302   8.685  0.9197 -0.1286  0.4117
22934SOL    HW174765  10.050   5.236   8.643  2.3003 -0.9291  3.2349
22934SOL    HW274766   9.997   5.279   8.778 -2.1813  1.3457  0.9623
22935SOL     OW74767   9.581  12.360  11.648 -0.2389  0.1354 -0.2244
22935SOL    HW174768   9.500  12.312  11.661  0.4541 -1.2038 -0.6897
22935SOL    HW274769   9.575  12.435  11.707 -1.7938  0.0507 -0.2416
22936SOL     OW74770   8.388   4.235   5.571  0.2382  0.2388  0.4837
22936SOL    HW174771   8.444   4.163   5.600  0.9162  1.1211  1.4329
22936SOL    HW274772   8.423   4.312   5.615  1.7589  1.8676 -3.1479
22937SOL     OW74773  12.269   8.571  10.214 -0.4486 -0.0212 -0.0798
22937SOL    HW174774  12.182   8.533  10.215 -0.8553  0.8758  0.8162
22937SOL    HW274775  12.255   8.664  10.195  0.4212 -0.0954 -1.1754
22938SOL     OW74776   9.232  11.125   5.811 -0.2996 -0.2065 -0.2302
22938SOL    HW174777   9.316  11.141   5.768  0.0703 -1.6872 -0.1305
22938SOL    HW274778   9.198  11.047   5.768 -0.9131 -0.4942  0.7397
22939SOL     OW74779   1.969   6.941   5.828 -0.4185  0.3013 -0.2840
22939SOL    HW174780   2.042   6.887   5.860  1.5983  2.8392 -0.2278
22939SOL    HW274781   1.996   7.030   5.846 -3.7397  1.3930 -0.0590
22940SOL     OW74782   7.451   5.196   4.607  0.3160  0.1213 -0.1632
22940SOL    HW174783   7.432   5.131   4.675 -0.7410  0.1296 -0.4346
22940SOL    HW274784   7.479   5.274   4.656 -0.9973  0.3230  0.3160
22941SOL     OW74785   0.200   8.352   1.682  0.3249 -0.3211 -0.4096
22941SOL    HW174786   0.235   8.280   1.734 -1.2028 -0.5590  0.3394
22941SOL    HW274787   0.243   8.430   1.716  0.7827 -0.7014 -0.1154
22942SOL     OW74788   7.764  10.723  11.272  0.5042 -0.3622 -0.8986
22942SOL    HW174789   7.782  10.668  11.195 -0.1946 -1.0501 -0.5854
22942SOL    HW274790   7.708  10.669  11.327  2.9553 -0.9003  1.2961
22943SOL     OW74791  11.101   4.660   9.183  0.0231  0.2122  0.2933
22943SOL    HW174792  11.191   4.665   9.150 -1.0912  1.4564 -2.9897
22943SOL    HW274793  11.093   4.736   9.241  0.8785  0.5690 -0.0259
22944SOL     OW74794   4.241   4.607   9.613 -0.2669  0.2434  0.6025
22944SOL    HW174795   4.333   4.617   9.640 -0.0304 -1.5407  0.5640
22944SOL    HW274796   4.239   4.638   9.523  0.7788 -1.5107 -0.0893
22945SOL     OW74797   6.761   4.432  11.989 -0.1006  0.1319  0.1684
22945SOL    HW174798   6.845   4.476  11.978  0.7121 -1.6243 -1.2612
22945SOL    HW274799   6.770   4.383  12.070 -0.5677  1.5740  1.1294
22946SOL     OW74800   9.068   7.661   4.409 -0.3422 -0.8567 -0.5268
22946SOL    HW174801   8.980   7.698   4.411 -0.1995 -0.5449  0.7221
22946SOL    HW274802   9.068   7.594   4.477  1.0124  0.6759  1.0939
22947SOL     OW74803  11.787   1.550  11.183  0.2097  0.1471 -0.2337
22947SOL    HW174804  11.746   1.482  11.130 -1.8265 -0.4156  1.8815
22947SOL    HW274805  11.840   1.502  11.247 -2.2548  0.3339  2.1055
22948SOL     OW74806   9.617   1.563   3.986  0.2936 -0.5469 -0.3586
22948SOL    HW174807   9.559   1.495   3.951 -0.9544 -0.0141  0.6287
22948SOL    HW274808   9.634   1.620   3.911 -0.2009 -0.8766 -0.7308
22949SOL     OW74809  12.321   3.347   9.732  0.3388  0.2314 -0.4900
22949SOL    HW174810  12.387   3.306   9.789 -0.3348  1.0772  0.9546
22949SOL    HW274811  12.243   3.292   9.743 -0.3130  1.3615  0.7985
22950SOL     OW74812   0.657   6.041   4.866 -0.0483  0.5326  0.0676
22950SOL    HW174813   0.736   6.031   4.812 -1.3046  0.4297 -1.8711
22950SOL    HW274814   0.647   5.956   4.909  0.3660  0.2026 -0.4635
22951SOL     OW74815  11.503   1.092   4.200 -0.3203 -0.4056  0.0691
22951SOL    HW174816  11.530   1.168   4.252  0.7953  0.2110 -1.3546
22951SOL    HW274817  11.409   1.103   4.187 -0.1189  0.9127 -0.3748
22952SOL     OW74818  10.721   3.040   1.042 -0.1556  0.9252  0.6165
22952SOL    HW174819  10.735   3.131   1.070  0.3412  0.7429  0.9596
22952SOL    HW274820  10.727   3.044   0.946 -0.6585  1.3411  0.5939
22953SOL     OW74821   6.668   5.053   6.755  0.2096 -0.3207 -0.0025
22953SOL    HW174822   6.705   5.011   6.833 -1.8474 -1.3164  0.5176
22953SOL    HW274823   6.618   5.127   6.790 -2.1883 -1.7857 -0.0749
22954SOL     OW74824   2.497  10.655   5.962 -0.1710  0.7865 -0.0029
22954SOL    HW174825   2.462  10.675   5.875  1.6999  3.4711 -0.2552
22954SOL    HW274826   2.572  10.599   5.945 -1.7945 -1.6322  0.2539
22955SOL     OW74827   5.180   1.183   2.694  0.4422 -0.0043  0.0739
22955SOL    HW174828   5.267   1.212   2.666  0.1442  1.0980  0.2427
22955SOL    HW274829   5.150   1.252   2.753 -0.9044  0.0657 -0.6597
22956SOL     OW74830   2.149   2.186   4.708  0.1973  0.2695 -0.1930
22956SOL    HW174831   2.156   2.093   4.688 -1.4242 -0.2863  1.5157
22956SOL    HW274832   2.105   2.224   4.632 -0.2998 -0.6155 -0.3608
22957SOL     OW74833   8.553   3.262   1.979 -0.5420  0.7141 -0.3765
22957SOL    HW174834   8.597   3.344   1.999 -0.5898  0.9228 -1.0972
22957SOL    HW274835   8.577   3.243   1.888  0.7210 -0.8766  0.2342
22958SOL     OW74836  11.439   3.478   4.048  0.3637  0.1550 -0.4418
22958SOL    HW174837  11.379   3.457   3.976  1.4153 -0.1189 -1.2674
22958SOL    HW274838  11.399   3.554   4.091 -0.1072  0.5594 -1.5481
22959SOL     OW74839  11.767   6.532   3.180  0.7981 -0.0961 -0.1404
22959SOL    HW174840  11.717   6.497   3.106  0.7713  2.0348 -1.2149
22959SOL    HW274841  11.824   6.598   3.141  3.1481 -1.1469  1.3256
22960SOL     OW74842   4.714  11.608   7.784  0.3610  0.6282  0.1206
22960SOL    HW174843   4.765  11.543   7.736 -0.3662  0.0478  0.1159
22960SOL    HW274844   4.704  11.570   7.872 -0.1580  0.6850  0.0855
22961SOL     OW74845   0.089  10.387   3.880  0.4815 -0.3275 -0.1441
22961SOL    HW174846   0.046  10.450   3.821 -1.6703  0.4225  2.0613
22961SOL    HW274847   0.178  10.419   3.887 -0.0541  1.3842 -0.5699
22962SOL     OW74848   0.880   1.576   7.584  0.8818 -0.1821  0.2772
22962SOL    HW174849   0.864   1.600   7.493  0.1516  0.2735  0.5165
22962SOL    HW274850   0.969   1.607   7.602  0.8809  0.0849 -0.1623
22963SOL     OW74851   5.766  12.176   4.471  0.0650  0.3167  0.3970
22963SOL    HW174852   5.794  12.092   4.436  0.3003 -0.2411  1.8644
22963SOL    HW274853   5.671  12.171   4.473  0.1196 -0.7274  2.3154
22964SOL     OW74854  11.256   9.629   0.832  0.6873  0.4201 -0.3500
22964SOL    HW174855  11.324   9.570   0.800  1.7389  1.6840 -0.5653
22964SOL    HW274856  11.182   9.616   0.771  0.2073 -1.8686  0.6259
22965SOL     OW74857  10.440   4.483   5.088  0.4575 -0.2499  0.1488
22965SOL    HW174858  10.366   4.423   5.077  0.8206 -0.7022  0.1320
22965SOL    HW274859  10.514   4.436   5.051  0.9671 -0.2460  1.1236
22966SOL     OW74860   3.335  11.290   9.040  0.3941 -0.1783  0.2560
22966SOL    HW174861   3.378  11.281   8.955  0.0859 -0.1735  0.0992
22966SOL    HW274862   3.404  11.269   9.103  0.3243 -1.2879 -0.0211
22967SOL     OW74863   1.049  12.015   8.683  0.2834  0.4514 -0.1563
22967SOL    HW174864   0.985  12.078   8.649  0.8012  0.8083 -0.4863
22967SOL    HW274865   1.085  12.057   8.761 -0.1575  0.0817  0.2515
22968SOL     OW74866   3.518   2.111   6.757  0.1035 -0.2723  0.0096
22968SOL    HW174867   3.498   2.186   6.814  1.9121 -0.5334  1.0734
22968SOL    HW274868   3.478   2.036   6.800 -0.7028 -0.1138 -0.4393
22969SOL     OW74869   5.780   3.172   0.239 -0.3157 -0.1497  0.1319
22969SOL    HW174870   5.794   3.116   0.162 -1.6990 -0.2273 -0.0866
22969SOL    HW274871   5.806   3.117   0.313  2.8918  0.5596 -0.3108
22970SOL     OW74872   4.120  11.913   3.398 -0.3521  0.0802 -0.0814
22970SOL    HW174873   4.182  11.864   3.344 -0.9408 -0.4746 -0.2698
22970SOL    HW274874   4.097  11.853   3.468  0.0041  0.6101  0.4980
22971SOL     OW74875   7.361   8.277  11.098 -0.3123 -0.1499 -0.3018
22971SOL    HW174876   7.344   8.238  11.012  0.4380  0.3063 -0.6678
22971SOL    HW274877   7.428   8.221  11.137  0.4839  0.5195 -0.6697
22972SOL     OW74878   1.809   0.660   5.996  0.5307 -0.1373  0.2277
22972SOL    HW174879   1.737   0.706   6.040  0.3726 -1.9042  1.9656
22972SOL    HW274880   1.881   0.663   6.058  0.4701 -2.2629  0.4922
22973SOL     OW74881   3.078   8.855   4.721  0.2954  0.2008  0.8389
22973SOL    HW174882   2.984   8.851   4.735  0.2289 -0.7209  0.2533
22973SOL    HW274883   3.117   8.831   4.805  0.0290  1.3788  1.3086
22974SOL     OW74884   0.573   3.177   9.354  0.0937  0.2060 -0.5768
22974SOL    HW174885   0.549   3.173   9.261  0.4698 -1.7366 -0.6343
22974SOL    HW274886   0.669   3.176   9.354  0.1205  1.4979 -0.1796
22975SOL     OW74887   4.841   1.947   5.317  0.0081 -0.5937 -0.7091
22975SOL    HW174888   4.847   1.957   5.412  0.0314  2.4936 -0.9136
22975SOL    HW274889   4.785   1.871   5.304 -0.5143 -0.7190  1.7843
22976SOL     OW74890  12.481   8.455   4.494 -0.0883 -0.0501  0.4488
22976SOL    HW174891  12.479   8.372   4.542 -1.4501 -0.1731  0.2062
22976SOL    HW274892  12.481   8.522   4.563 -0.8447 -0.2381  0.6373
22977SOL     OW74893   4.491   1.315   2.957 -0.1773  0.6006 -0.2678
22977SOL    HW174894   4.573   1.359   2.979  0.1478  0.0601 -0.3739
22977SOL    HW274895   4.466   1.270   3.038 -0.9157  1.5999  0.0721
22978SOL     OW74896  12.144   4.669  11.487  0.1954  0.0889 -0.3482
22978SOL    HW174897  12.091   4.729  11.435 -1.3734  1.2027  2.3251
22978SOL    HW274898  12.082   4.628  11.547  1.8825 -1.1306  0.6426
22979SOL     OW74899  12.450   6.008   2.819 -0.0918  0.2496  0.4523
22979SOL    HW174900  12.477   5.982   2.731 -2.4393  0.9199 -0.5541
22979SOL    HW274901  12.406   5.931   2.856  0.0927  0.2519  0.6813
22980SOL     OW74902   6.555   2.153   3.143  0.3458 -0.1805  0.3359
22980SOL    HW174903   6.515   2.213   3.081 -0.8442 -1.1136  0.1649
22980SOL    HW274904   6.513   2.069   3.126  0.0274 -0.4831  2.3422
22981SOL     OW74905   9.874   7.298  11.907  0.5795  0.0247 -0.4571
22981SOL    HW174906   9.812   7.368  11.924 -1.0276 -1.1570 -1.2333
22981SOL    HW274907   9.955   7.328  11.948 -0.3924  1.7501  0.3184
22982SOL     OW74908   5.379   5.553   2.308 -0.4440  0.2939 -0.7877
22982SOL    HW174909   5.378   5.644   2.339  0.7040 -0.4931  1.8409
22982SOL    HW274910   5.448   5.552   2.242 -0.2478  1.2746 -0.6178
22983SOL     OW74911   0.931   9.547   4.566 -0.7506  0.2605 -0.7382
22983SOL    HW174912   1.008   9.583   4.609 -0.2735  0.7664 -1.9786
22983SOL    HW274913   0.913   9.466   4.613  1.1091 -0.3616 -1.0106
22984SOL     OW74914   1.539   8.429   6.756  0.3202 -0.5006  0.0535
22984SOL    HW174915   1.500   8.396   6.675 -1.3392  2.5119 -0.5079
22984SOL    HW274916   1.612   8.369   6.773  0.0714 -1.8909 -3.0645
22985SOL     OW74917  11.717   1.647   3.246 -0.3416  0.2739  0.6538
22985SOL    HW174918  11.630   1.643   3.205  0.4315  2.1516 -1.3708
22985SOL    HW274919  11.754   1.560   3.233 -0.5722  0.4699 -1.8099
22986SOL     OW74920   2.619   4.735   9.600  0.1230  0.1104 -0.2993
22986SOL    HW174921   2.554   4.671   9.628 -0.1693 -0.6809 -2.5884
22986SOL    HW274922   2.698   4.683   9.584  0.2162  0.4949 -1.1131
22987SOL     OW74923  11.172   1.456   8.837  0.1762  0.5857  0.2205
22987SOL    HW174924  11.145   1.532   8.890  0.4028  0.5043  0.4583
22987SOL    HW274925  11.098   1.440   8.779  1.1639  2.6914 -1.7728
22988SOL     OW74926  10.731   9.752   8.530  0.6327 -0.1948 -0.1958
22988SOL    HW174927  10.769   9.736   8.444  1.9134 -0.1307  0.3416
22988SOL    HW274928  10.797   9.720   8.592 -0.4302 -0.6052  0.7632
22989SOL     OW74929   5.259  11.753   7.397 -0.0421  0.0943  0.1681
22989SOL    HW174930   5.336  11.805   7.371  0.3994 -0.4705  0.3254
22989SOL    HW274931   5.198  11.762   7.324  0.4000  0.0951 -0.2027
22990SOL     OW74932   3.631  11.865   5.542  0.2804 -0.0439  0.4920
22990SOL    HW174933   3.675  11.945   5.571  0.5687 -0.2670  0.6746
22990SOL    HW274934   3.599  11.886   5.455 -3.0535  1.6343  1.9140
22991SOL     OW74935  10.168   0.592   6.972  0.8401  0.3401  0.3946
22991SOL    HW174936  10.091   0.640   6.942 -0.2754 -0.9284  1.1159
22991SOL    HW274937  10.240   0.625   6.918  0.0913  2.6240  0.6931
22992SOL     OW74938   7.729   0.648  11.779  0.0011 -0.5390 -0.0035
22992SOL    HW174939   7.717   0.738  11.750 -0.1985 -0.5273  0.1130
22992SOL    HW274940   7.821   0.643  11.806  0.8274 -1.1001 -2.5914
22993SOL     OW74941   9.093  12.071   3.839  0.6569  0.0247  0.4470
22993SOL    HW174942   9.182  12.071   3.875  2.1254 -1.2432 -2.7460
22993SOL    HW274943   9.073  11.978   3.826 -0.5331  0.3554 -0.1745
22994SOL     OW74944  12.082   7.268   8.925  0.0742  0.3541  0.3125
22994SOL    HW174945  12.100   7.271   9.019 -0.2668 -2.9259  0.6031
22994SOL    HW274946  11.990   7.289   8.917  0.2773  1.3887  0.6166
22995SOL     OW74947  11.268  12.187   0.215 -0.0307  0.0942  0.1443
22995SOL    HW174948  11.338  12.201   0.152  0.4737 -0.3866  0.5891
22995SOL    HW274949  11.236  12.099   0.197  1.8293 -1.0858  2.1733
22996SOL     OW74950   7.841   4.551   8.023  0.2733  0.0918  0.0059
22996SOL    HW174951   7.890   4.574   7.945  1.6778 -2.1689  0.1233
22996SOL    HW274952   7.906   4.552   8.093 -0.5137 -0.0123  0.7588
22997SOL     OW74953  11.119   6.424   1.860 -0.2622 -0.0111  0.2522
22997SOL    HW174954  11.046   6.469   1.818  0.6392  1.4765  0.1834
22997SOL    HW274955  11.191   6.431   1.796  0.7563  1.1642  1.4570
22998SOL     OW74956   6.284  11.399   2.365  0.2227 -0.1437 -0.2935
22998SOL    HW174957   6.225  11.416   2.292  0.2571  0.9850 -0.0815
22998SOL    HW274958   6.370  11.392   2.325  0.3411  1.1717 -0.3123
22999SOL     OW74959  11.283  11.998   9.728  0.0108 -0.1705 -0.0500
22999SOL    HW174960  11.206  11.972   9.779  0.2955 -0.5712  0.1832
22999SOL    HW274961  11.357  11.960   9.775  0.3560  0.2426 -0.2550
23000SOL     OW74962   9.714   1.253   9.520  0.0003 -0.5983 -0.2783
23000SOL    HW174963   9.792   1.198   9.527 -0.6588 -1.5472 -0.2157
23000SOL    HW274964   9.714   1.304   9.600 -0.8859 -2.5580  1.0438
23001SOL     OW74965  10.548   5.623   0.588  0.7800  0.2862  0.4947
23001SOL    HW174966  10.642   5.621   0.576  1.0793  0.8254  2.3583
23001SOL    HW274967  10.518   5.694   0.531  1.4113 -0.1784 -0.4452
23002SOL     OW74968   3.495   0.736   4.022  0.1699  0.0042  0.3802
23002SOL    HW174969   3.480   0.700   3.935 -0.4179  2.0049 -0.4138
23002SOL    HW274970   3.436   0.687   4.079 -0.4725 -0.3890 -0.5993
23003SOL     OW74971  10.484   1.456   3.223  0.5898 -0.0348  0.6426
23003SOL    HW174972  10.572   1.423   3.242  0.0971 -1.1500  1.1017
23003SOL    HW274973  10.498   1.525   3.159  1.9463  0.9826  1.9685
23004SOL     OW74974   4.503  11.441   8.604 -0.1677 -0.3226  0.2086
23004SOL    HW174975   4.495  11.486   8.688 -0.3513 -0.1552  0.1028
23004SOL    HW274976   4.495  11.348   8.626 -0.2899 -0.2759  0.3684
23005SOL     OW74977   1.628   8.105   0.828  0.0272  0.2232  0.0292
23005SOL    HW174978   1.703   8.046   0.836 -0.6342 -0.4435  2.0557
23005SOL    HW274979   1.553   8.046   0.819 -0.4660  0.8099  0.2176
23006SOL     OW74980   9.069   4.413   6.286 -0.1702  0.2122 -0.2201
23006SOL    HW174981   9.024   4.382   6.365 -0.0561  0.4692 -0.0511
23006SOL    HW274982   9.010   4.477   6.248 -0.4213 -0.2406 -0.5889
23007SOL     OW74983   3.833   4.275   2.027  0.3358 -0.1416 -0.2817
23007SOL    HW174984   3.776   4.296   2.100  2.8838 -0.5137  1.9785
23007SOL    HW274985   3.864   4.359   1.995  1.3104 -0.0183  0.9186
23008SOL     OW74986   2.680   2.785  10.308 -0.2398  0.2461  0.4525
23008SOL    HW174987   2.591   2.777  10.343 -0.9993  0.8795 -1.2416
23008SOL    HW274988   2.709   2.695  10.296 -0.8570  0.0327  0.5176
23009SOL     OW74989   8.428  10.736   7.922  0.3054  0.2793 -0.0289
23009SOL    HW174990   8.444  10.731   7.828  0.2525  1.6219 -0.1190
23009SOL    HW274991   8.347  10.785   7.931  0.4480  0.3947  0.7291
23010SOL     OW74992  10.740  10.744   6.130 -0.0676  0.1092 -0.0900
23010SOL    HW174993  10.670  10.805   6.106  0.4955  0.3917 -1.0497
23010SOL    HW274994  10.818  10.799   6.138  0.2798 -0.3707 -0.1715
23011SOL     OW74995  11.193   5.459   6.177  0.3220  0.0362  0.0527
23011SOL    HW174996  11.129   5.514   6.222  1.8288  0.3433  1.9837
23011SOL    HW274997  11.242   5.417   6.248  1.9080 -0.5742 -1.3401
23012SOL     OW74998   0.447   7.579   7.361  0.0392  0.1673  0.4862
23012SOL    HW174999   0.530   7.531   7.356  0.5967  1.1565 -0.1096
23012SOL    HW275000   0.425   7.598   7.270 -1.1351 -0.5403  0.6028
23013SOL     OW75001   6.138   2.850   8.802 -0.3371 -1.0470  0.3373
23013SOL    HW175002   6.137   2.874   8.710 -0.4279  2.7593  1.1614
23013SOL    HW275003   6.048   2.865   8.831  0.3003  0.6881  1.5865
23014SOL     OW75004   7.775   5.107   9.380 -0.3923  0.0082  0.5515
23014SOL    HW175005   7.738   5.185   9.422 -1.9687  1.3030 -2.8745
23014SOL    HW275006   7.863   5.099   9.418 -0.1227  3.5527  1.0322
23015SOL     OW75007   4.301   3.078   4.315  0.3593  0.3930 -0.0629
23015SOL    HW175008   4.329   3.117   4.232 -0.9277 -0.8136 -1.1111
23015SOL    HW275009   4.245   3.145   4.354 -0.5463  0.2551 -1.0842
23016SOL     OW75010   6.770   8.716   4.224 -0.2288  0.1467  0.2549
23016SOL    HW175011   6.843   8.749   4.275  0.5771 -0.3779 -0.5424
23016SOL    HW275012   6.781   8.621   4.224 -0.8155  0.0702 -0.0165
23017SOL     OW75013  11.432   8.191   5.579 -0.0412 -0.0414 -0.0691
23017SOL    HW175014  11.506   8.251   5.575  1.5076 -1.7173  1.1479
23017SOL    HW275015  11.411   8.185   5.673 -0.3511 -1.1447 -0.1915
23018SOL     OW75016   7.207   5.321   2.449  0.6339  0.3848  0.0329
23018SOL    HW175017   7.296   5.302   2.419  1.2567  1.6038  1.0104
23018SOL    HW275018   7.168   5.368   2.376  0.9727  0.3082 -0.2028
23019SOL     OW75019   5.289   1.687   7.183  0.1395 -0.1072  0.3986
23019SOL    HW175020   5.229   1.620   7.151  0.3560  0.3277 -0.9962
23019SOL    HW275021   5.374   1.665   7.144  0.6656 -0.1140  1.4963
23020SOL     OW75022   5.272   8.483   3.886  0.1068 -0.0997  0.2049
23020SOL    HW175023   5.352   8.529   3.913 -1.1366  2.2206  0.1927
23020SOL    HW275024   5.282   8.472   3.791  0.6559 -0.3706  0.2874
23021SOL     OW75025   1.709   4.408   3.153 -0.2347 -0.8875  0.1226
23021SOL    HW175026   1.664   4.395   3.069 -0.3421 -1.9169  0.3322
23021SOL    HW275027   1.736   4.321   3.179  2.1586 -0.2738 -0.1216
23022SOL     OW75028   2.200   5.760  11.090 -0.2223 -0.3752 -0.1225
23022SOL    HW175029   2.289   5.751  11.056  0.7923  2.3985  1.4793
23022SOL    HW275030   2.192   5.692  11.156  0.4128 -1.1294 -0.8049
23023SOL     OW75031   6.381   2.208   8.844  0.0236 -0.1067  0.1393
23023SOL    HW175032   6.409   2.139   8.904 -1.0039 -0.3392  0.3735
23023SOL    HW275033   6.417   2.288   8.881 -0.7127 -0.2308  1.1618
23024SOL     OW75034   3.811   0.816   8.428 -0.0326  0.1316  0.4047
23024SOL    HW175035   3.828   0.888   8.368  0.2793 -0.0892  0.2271
23024SOL    HW275036   3.724   0.835   8.464 -0.2980  0.1756 -0.2453
23025SOL     OW75037  11.252   2.950   7.068 -0.1771 -0.3239  0.6396
23025SOL    HW175038  11.315   3.012   7.031  2.8115 -2.9599  0.9036
23025SOL    HW275039  11.184   2.942   7.001  0.7835  1.1132 -0.5779
23026SOL     OW75040   5.987  11.524  11.573 -0.5086 -0.1629 -0.4751
23026SOL    HW175041   5.979  11.471  11.494 -1.1459  1.9170 -1.8793
23026SOL    HW275042   5.991  11.614  11.541 -0.2681  0.7142  1.8528
23027SOL     OW75043   8.234   1.377   3.156 -0.0518 -0.5293  0.4854
23027SOL    HW175044   8.163   1.408   3.213  0.5077 -1.1585  1.5552
23027SOL    HW275045   8.297   1.449   3.155 -0.3622 -0.2567  0.1182
23028SOL     OW75046   0.247   9.111   2.015 -0.3166  0.2346 -0.0477
23028SOL    HW175047   0.311   9.182   2.014  0.2259 -0.1654  2.0369
23028SOL    HW275048   0.184   9.135   1.947  0.6997  1.8949 -0.4650
23029SOL     OW75049   7.566   9.468   0.910  0.3511  0.2869  0.0064
23029SOL    HW175050   7.479   9.491   0.877 -1.1147 -1.0288  2.6400
23029SOL    HW275051   7.565   9.373   0.918  1.5151  0.3466  1.3172
23030SOL     OW75052  11.461   6.544  11.211  0.3341  0.3943  0.3216
23030SOL    HW175053  11.515   6.466  11.220 -0.2372  0.0295  0.7009
23030SOL    HW275054  11.516   6.607  11.165  0.2477 -0.7818 -1.4939
23031SOL     OW75055  12.116  11.503   3.535  0.1411 -0.1925 -0.1677
23031SOL    HW175056  12.073  11.583   3.562  0.3047 -0.8208  2.1460
23031SOL    HW275057  12.047  11.436   3.540  0.2781 -0.4107 -1.0035
23032SOL     OW75058   2.902   9.428   9.739  0.4169 -0.5326  0.2185
23032SOL    HW175059   2.977   9.370   9.734  0.4035 -0.4411 -1.3329
23032SOL    HW275060   2.898   9.471   9.654  0.3065  1.6138  1.2215
23033SOL     OW75061   2.587   8.757   0.444  0.5575  0.5110 -0.3600
23033SOL    HW175062   2.630   8.676   0.417  1.5162  0.8161  0.2089
23033SOL    HW275063   2.658   8.814   0.473 -0.0501  1.7405 -1.1867
23034SOL     OW75064   8.669   3.096  11.351  0.2669  0.2585 -0.0007
23034SOL    HW175065   8.676   3.005  11.379 -0.5565  0.3864  0.6507
23034SOL    HW275066   8.661   3.146  11.432 -2.3259  0.6210 -0.3871
23035SOL     OW75067  11.110   2.933   2.322  0.2779  0.0027 -0.3248
23035SOL    HW175068  11.141   2.975   2.241 -2.3645  1.5528 -0.6215
23035SOL    HW275069  11.080   2.846   2.294 -0.6819  0.5546 -1.0516
23036SOL     OW75070   3.512   5.840   4.168  0.1073 -0.1323 -0.1154
23036SOL    HW175071   3.523   5.838   4.073 -2.2587 -1.4558 -0.4302
23036SOL    HW275072   3.506   5.933   4.189 -2.1212  0.1565 -1.7021
23037SOL     OW75073  11.279   7.113   0.290 -0.3198  0.1247 -0.0947
23037SOL    HW175074  11.329   7.031   0.297 -1.4409 -0.7600 -1.6207
23037SOL    HW275075  11.329   7.176   0.341  2.1489 -0.7980 -1.2000
23038SOL     OW75076   2.569   9.514   1.483  0.1940 -1.2185 -0.0763
23038SOL    HW175077   2.560   9.443   1.546 -1.8863 -0.3728  0.6861
23038SOL    HW275078   2.479   9.535   1.457  0.7769  0.6390 -0.8325
23039SOL     OW75079  11.476   2.830   9.917  0.0815  0.0556 -0.8406
23039SOL    HW175080  11.390   2.794   9.941 -1.0267  2.0510 -1.5872
23039SOL    HW275081  11.527   2.753   9.891 -1.7897 -1.1089 -1.2790
23040SOL     OW75082   1.319   8.128   7.628 -0.1492 -0.0455  0.3714
23040SOL    HW175083   1.356   8.215   7.643  1.3747 -0.9793  2.3916
23040SOL    HW275084   1.291   8.098   7.714 -3.0217 -0.6086 -0.6554
23041SOL     OW75085   2.526  11.215   1.403 -0.1462 -0.0339  0.2677
23041SOL    HW175086   2.562  11.243   1.319 -0.7207  0.0718  0.0475
23041SOL    HW275087   2.589  11.153   1.437  0.2479  0.1608 -0.0985
23042SOL     OW75088   4.521   5.380   0.197 -0.3920  0.2385 -0.2491
23042SOL    HW175089   4.606   5.403   0.235 -0.5294  1.5173 -0.6572
23042SOL    HW275090   4.525   5.417   0.108 -1.4113  0.3925 -0.2366
23043SOL     OW75091   9.759  10.212  12.282  0.0907 -0.6703  0.4617
23043SOL    HW175092   9.691  10.250  12.337  1.6390  2.1631  0.6144
23043SOL    HW275093   9.734  10.237  12.193 -0.3364 -1.7864  0.2581
23044SOL     OW75094  11.767   3.342   5.524  0.3521 -0.2607  0.1051
23044SOL    HW175095  11.693   3.380   5.475  1.6769  3.1723  0.5152
23044SOL    HW275096  11.731   3.323   5.610 -0.4580 -0.2823 -0.2241
23045SOL     OW75097   1.154   8.172   1.146  0.0704  0.0287  0.1080
23045SOL    HW175098   1.243   8.143   1.125  0.0076 -0.5778  0.6427
23045SOL    HW275099   1.113   8.095   1.187 -0.2508  0.7442  1.1576
23046SOL     OW75100   7.911   2.142   7.737 -0.5900 -0.3509 -0.0526
23046SOL    HW175101   7.966   2.219   7.720 -2.6800  1.4293  0.7287
23046SOL    HW275102   7.857   2.168   7.812 -1.9886 -2.2656 -0.3368
23047SOL     OW75103   9.020   1.342   3.642  0.9440  0.4535 -0.6720
23047SOL    HW175104   8.955   1.314   3.577  0.4051  1.2239 -0.4722
23047SOL    HW275105   9.063   1.417   3.602 -1.2323  2.6730  0.8978
23048SOL     OW75106   3.902   9.539  11.827  0.5023 -0.1062  0.5351
23048SOL    HW175107   3.852   9.464  11.860  0.9847 -1.3908 -1.5045
23048SOL    HW275108   3.970   9.552  11.893  1.3694 -2.5050  0.2254
23049SOL     OW75109   6.438   8.377   2.365 -0.4657 -0.4144  0.7360
23049SOL    HW175110   6.353   8.332   2.354  0.4826 -1.8496 -1.6750
23049SOL    HW275111   6.497   8.329   2.307  1.6527  1.5053  1.1897
23050SOL     OW75112  10.188   6.783   7.490  0.0737 -0.1588 -0.0724
23050SOL    HW175113  10.223   6.732   7.416 -0.1183 -0.0236 -0.2603
23050SOL    HW275114  10.100   6.808   7.461  0.4374  0.9082 -0.2810
23051SOL     OW75115   7.145   0.421   0.811  0.0653 -0.1367  0.2447
23051SOL    HW175116   7.233   0.452   0.831  0.2825  0.0487 -0.9092
23051SOL    HW275117   7.158   0.337   0.767 -0.4150 -0.7540  1.2230
23052SOL     OW75118   5.757   6.281   4.820 -0.1978  0.2201  0.1072
23052SOL    HW175119   5.710   6.330   4.752 -0.0381 -0.0207 -0.1823
23052SOL    HW275120   5.839   6.256   4.778  0.8138  1.8109  1.0576
23053SOL     OW75121   9.878   1.215   9.277 -0.0727  0.5094 -0.0808
23053SOL    HW175122   9.894   1.296   9.228  0.4861  0.9644  0.8230
23053SOL    HW275123   9.951   1.209   9.338 -1.2514  0.5124  1.3957
23054SOL     OW75124   6.722   8.099  11.759 -0.1593  0.2827 -0.3130
23054SOL    HW175125   6.666   8.169  11.792  1.7670  2.0757 -0.5909
23054SOL    HW275126   6.807   8.116  11.799  0.7493 -1.0101 -1.5855
23055SOL     OW75127  10.285   7.280   5.681  0.5299 -0.1240  0.1564
23055SOL    HW175128  10.195   7.313   5.684  0.2930 -0.7078 -0.2909
23055SOL    HW275129  10.328   7.320   5.757 -0.0033  0.4466  0.1664
23056SOL     OW75130   0.163   0.884   7.435  0.6152  1.2898  0.4378
23056SOL    HW175131   0.236   0.823   7.451  0.4321  0.6980 -0.8399
23056SOL    HW275132   0.149   0.879   7.341 -2.7994 -0.6637  0.8817
23057SOL     OW75133   8.785   5.940  11.580 -0.4531 -0.0367  0.3320
23057SOL    HW175134   8.790   5.875  11.510 -2.2848  0.9020 -0.7381
23057SOL    HW275135   8.695   5.934  11.612 -0.1063  0.6910  1.5085
23058SOL     OW75136   6.646   9.710   1.051 -0.6750  0.2309  0.1229
23058SOL    HW175137   6.626   9.664   0.969 -0.2210 -0.3478  0.3317
23058SOL    HW275138   6.728   9.671   1.081  1.3991  3.1796 -1.2079
23059SOL     OW75139  11.750  12.209  12.410 -0.4384  0.6202  0.7764
23059SOL    HW175140  11.747  12.251  12.496 -0.1598 -0.2699  1.2327
23059SOL    HW275141  11.731  12.116  12.427 -0.8110  0.5044 -0.1774
23060SOL     OW75142   7.892  11.625   3.411 -0.8101  0.0989 -0.0907
23060SOL    HW175143   7.886  11.713   3.373 -1.7839 -0.1517 -0.5533
23060SOL    HW275144   7.901  11.567   3.336 -0.4435 -0.2297  0.2014
23061SOL     OW75145   7.125   6.144   8.815  0.0722 -0.3466 -0.0323
23061SOL    HW175146   7.179   6.118   8.890  1.1381  2.0595  0.1170
23061SOL    HW275147   7.185   6.193   8.758 -0.9571 -1.2800 -2.0194
23062SOL     OW75148   5.654   3.766   7.288  0.2336  0.1743  0.2981
23062SOL    HW175149   5.567   3.796   7.261  1.1088  2.7682  0.1451
23062SOL    HW275150   5.679   3.826   7.358  1.7356 -0.8113  0.6402
23063SOL     OW75151   1.588   7.913   7.241 -0.0028 -0.5329 -0.1496
23063SOL    HW175152   1.621   7.978   7.304  1.0167  1.8302 -2.8745
23063SOL    HW275153   1.662   7.853   7.228  0.3481 -0.0918 -0.2337
23064SOL     OW75154   7.647   4.609   2.330 -0.1719  0.0725 -0.5121
23064SOL    HW175155   7.709   4.537   2.345 -0.9209 -0.6436 -0.7865
23064SOL    HW275156   7.609   4.627   2.416  1.3991  1.4756 -0.0476
23065SOL     OW75157   0.740   3.136   0.982  0.7999  0.0896  0.5408
23065SOL    HW175158   0.829   3.172   0.979  0.0752  2.1072  1.2599
23065SOL    HW275159   0.695   3.177   0.909  0.0732  0.2248  1.0550
23066SOL     OW75160   3.733   3.750   4.461  0.0599  0.3391  0.1989
23066SOL    HW175161   3.780   3.679   4.504 -0.1474  0.9245  1.4116
23066SOL    HW275162   3.796   3.785   4.397  0.4196 -0.4377  0.1172
23067SOL     OW75163   4.180   1.227   9.349 -0.2693  0.7132 -0.4389
23067SOL    HW175164   4.135   1.240   9.432  2.4545 -1.8013  1.6661
23067SOL    HW275165   4.219   1.312   9.329 -1.8983  1.6489  0.2324
23068SOL     OW75166   2.566   6.524   4.536  0.2622 -0.0024 -0.5085
23068SOL    HW175167   2.581   6.599   4.478  1.6260 -0.0832 -0.3022
23068SOL    HW275168   2.496   6.475   4.493  1.2754 -0.0954 -2.1734
23069SOL     OW75169   3.820  10.712  10.687  0.2544  0.0757  0.2176
23069SOL    HW175170   3.831  10.672  10.600  0.1791  1.5419 -0.5106
23069SOL    HW275171   3.729  10.741  10.688 -0.9362 -3.2131  2.3137
23070SOL     OW75172   2.853   7.621   9.134 -0.5249 -0.4697  0.4733
23070SOL    HW175173   2.761   7.645   9.123 -0.7116 -1.8279 -1.4489
23070SOL    HW275174   2.894   7.644   9.051  0.3928 -1.8243  0.5163
23071SOL     OW75175   9.731   1.658   0.777 -0.1692  0.0423 -0.5560
23071SOL    HW175176   9.779   1.615   0.707  0.3820 -0.1555 -0.0661
23071SOL    HW275177   9.642   1.669   0.743  0.1687  0.2350 -1.3964
23072SOL     OW75178   0.440   0.019   5.095  0.4847 -0.1904  0.1637
23072SOL    HW175179   0.527   0.020   5.055  1.0179 -0.1006  1.2895
23072SOL    HW275180   0.380   0.012   5.021  1.3952  0.7953 -0.7112
23073SOL     OW75181   3.448   9.867  12.090  0.1230 -0.4723 -0.5034
23073SOL    HW175182   3.365   9.835  12.054  0.2641 -1.3149 -0.1090
23073SOL    HW275183   3.449   9.961  12.069 -1.1027 -0.3683 -0.2013
23074SOL     OW75184   7.973   5.488   1.974 -0.2348 -0.3663 -0.1008
23074SOL    HW175185   7.971   5.468   2.068  1.2047  0.7316  0.1860
23074SOL    HW275186   7.884   5.468   1.944 -0.8579 -0.2998  1.5813
23075SOL     OW75187   5.510   0.821   0.389  0.3353 -0.0184  0.1553
23075SOL    HW175188   5.435   0.786   0.342 -1.2289  2.7563  0.4309
23075SOL    HW275189   5.586   0.794   0.336 -0.6069 -3.7439  0.3860
23076SOL     OW75190  11.937   6.581   1.786  0.3295 -0.1774 -0.1972
23076SOL    HW175191  11.999   6.622   1.727 -0.2499  0.3235 -0.4667
23076SOL    HW275192  11.961   6.612   1.873  0.8261 -0.4672 -0.2266
23077SOL     OW75193   5.498   6.697   3.742 -0.4024  0.7924  0.0668
23077SOL    HW175194   5.534   6.783   3.765 -1.9808  1.2855  0.8480
23077SOL    HW275195   5.534   6.638   3.808  0.6108  0.8448 -0.4107
23078SOL     OW75196   5.766   2.938   6.192  0.3603 -0.3636 -0.3055
23078SOL    HW175197   5.759   3.033   6.190 -0.6447 -0.4435 -2.0226
23078SOL    HW275198   5.694   2.909   6.248  0.8234 -0.1140  0.4268
23079SOL     OW75199  12.048   3.651   7.430  0.3219  0.2031  0.0537
23079SOL    HW175200  12.010   3.590   7.367 -1.1533  1.9307 -0.8565
23079SOL    HW275201  12.004   3.630   7.513 -0.4942  0.3024 -0.3466
23080SOL     OW75202   4.158   1.941   6.775  0.2011  0.4541 -0.1548
23080SOL    HW175203   4.185   1.918   6.686  0.8549  1.6827 -0.2946
23080SOL    HW275204   4.115   2.026   6.766  0.9277  0.9431  0.7926
23081SOL     OW75205   0.646   5.919   0.387  0.4277 -0.1198  0.3317
23081SOL    HW175206   0.568   5.877   0.352  0.4739  0.0237  0.0454
23081SOL    HW275207   0.706   5.924   0.312  0.4914  0.2860  0.4064
23082SOL     OW75208  11.782   6.433   5.438  0.1030 -0.1243 -0.1112
23082SOL    HW175209  11.841   6.442   5.512 -2.0886 -0.9968  1.8742
23082SOL    HW275210  11.833   6.463   5.363  2.5822  0.3805  1.6413
23083SOL     OW75211  10.354   0.669   6.755 -0.0313 -0.3279  0.1107
23083SOL    HW175212  10.312   0.622   6.683  1.2862  1.6638 -2.1317
23083SOL    HW275213  10.334   0.761   6.739  0.6841  0.2207  2.0637
23084SOL     OW75214   6.525   1.408   4.433  0.3551  0.6888  0.2118
23084SOL    HW175215   6.481   1.344   4.377 -0.1552 -1.6634  3.0476
23084SOL    HW275216   6.612   1.371   4.449 -0.1912  0.1989  2.4709
23085SOL     OW75217   4.130  11.898   2.244 -0.4902 -0.3646 -0.0041
23085SOL    HW175218   4.161  11.885   2.334  1.0448 -0.3976 -0.5018
23085SOL    HW275219   4.140  11.991   2.228 -1.9292 -0.1462  0.2382
23086SOL     OW75220   9.771   0.068   9.686 -0.6368 -0.8824 -0.0146
23086SOL    HW175221   9.798  -0.002   9.626 -0.0526 -1.7228  1.1923
23086SOL    HW275222   9.688   0.099   9.650  0.1674 -0.6946 -1.7957
23087SOL     OW75223   0.111   4.637   0.357 -0.0210 -0.6396  0.2133
23087SOL    HW175224   0.145   4.716   0.315 -0.9014 -0.7638 -0.7552
23087SOL    HW275225   0.153   4.636   0.443 -2.2240  2.5279  1.5143
23088SOL     OW75226  11.855   6.603   3.935  0.0776 -0.1543 -0.0242
23088SOL    HW175227  11.928   6.636   3.988  1.4310 -0.8336 -1.4098
23088SOL    HW275228  11.839   6.672   3.870 -1.4636  0.5971  1.0629
23089SOL     OW75229   6.957   5.157   4.056  0.2294  0.0949  0.2436
23089SOL    HW175230   6.900   5.229   4.083  0.4585  0.0453  0.8738
23089SOL    HW275231   7.044   5.182   4.087  0.6841  0.4721 -1.2605
23090SOL     OW75232  10.303   8.159   3.007  0.2378  0.6823  0.4029
23090SOL    HW175233  10.242   8.163   2.934 -2.4195  2.0180  2.4989
23090SOL    HW275234  10.287   8.073   3.046  1.0340  0.3080 -0.0942
23091SOL     OW75235   5.139   1.901   5.509 -0.2671  0.0910 -0.2187
23091SOL    HW175236   5.056   1.947   5.493 -0.8256 -0.8986 -0.2638
23091SOL    HW275237   5.202   1.971   5.528 -1.2644  0.8319  0.4829
23092SOL     OW75238  12.397   0.622   1.968  0.0446 -0.0326  0.1811
23092SOL    HW175239  12.464   0.672   1.922  3.1018 -3.7660  0.0730
23092SOL    HW275240  12.332   0.600   1.902  0.2366  1.1868 -0.4291
23093SOL     OW75241   3.412   7.434  10.952 -0.2358 -0.1521  0.7413
23093SOL    HW175242   3.355   7.500  10.991 -0.1436 -0.2609  1.0654
23093SOL    HW275243   3.484   7.425  11.015  0.3372  0.2678  0.1481
23094SOL     OW75244   8.802   8.156   9.583 -0.4016 -0.2795  0.1577
23094SOL    HW175245   8.755   8.080   9.549 -0.9868  0.6001 -1.0336
23094SOL    HW275246   8.860   8.182   9.512 -1.0299  1.0834  0.1219
23095SOL     OW75247   0.207   6.981  12.136 -0.3191 -0.1800 -0.0546
23095SOL    HW175248   0.153   6.905  12.156 -1.0940  0.6114  0.9699
23095SOL    HW275249   0.177   7.049  12.197  0.6939  0.7950 -0.5995
23096SOL     OW75250   7.377   2.454   9.323 -0.0696  0.5681  0.6336
23096SOL    HW175251   7.287   2.487   9.328 -1.2390 -2.0161 -1.1639
23096SOL    HW275252   7.425   2.520   9.273 -1.3923  1.2284  0.2090
23097SOL     OW75253   2.638  11.422   9.041 -0.2495 -0.3144 -0.1742
23097SOL    HW175254   2.613  11.354   8.979 -1.1494 -0.9518  0.8406
23097SOL    HW275255   2.603  11.502   9.005 -0.0362 -0.5401 -0.8962
23098SOL     OW75256   1.262   4.789  10.968 -0.0915 -0.0512 -0.4119
23098SOL    HW175257   1.186   4.734  10.989  0.3851 -0.0352  1.5227
23098SOL    HW275258   1.280   4.770  10.876 -0.3013 -2.6972  0.0136
23099SOL     OW75259   7.352   3.032   6.300  0.9305 -0.4505  0.3727
23099SOL    HW175260   7.354   3.054   6.393  0.1631  0.3451  0.2190
23099SOL    HW275261   7.353   2.937   6.298 -2.0029 -0.6029  1.3472
23100SOL     OW75262   9.562   6.582   7.513 -1.1074 -0.0561 -0.0080
23100SOL    HW175263   9.618   6.642   7.563 -1.8755  1.3619 -0.7684
23100SOL    HW275264   9.540   6.512   7.574 -2.2988  1.7948  1.7891
23101SOL     OW75265   8.699   6.037   8.546 -0.6682  0.3201  0.1557
23101SOL    HW175266   8.737   6.125   8.553 -1.8247  0.7350  1.8391
23101SOL    HW275267   8.632   6.034   8.615 -0.8501 -1.7995 -0.0467
23102SOL     OW75268   8.458   0.182   1.882  0.2082  0.3153 -0.4209
23102SOL    HW175269   8.494   0.167   1.795  1.7146  2.1619 -0.1871
23102SOL    HW275270   8.408   0.103   1.902  1.8308 -1.1761 -1.9735
23103SOL     OW75271   9.523   9.780   1.533 -0.1312  0.7378 -0.2609
23103SOL    HW175272   9.606   9.793   1.579  0.0817 -0.3558 -0.3157
23103SOL    HW275273   9.535   9.823   1.449  0.9585 -0.7074 -0.8820
23104SOL     OW75274   5.655   8.236   2.926 -0.0373 -0.5047  0.0379
23104SOL    HW175275   5.750   8.241   2.916 -0.0412  1.2389  0.5341
23104SOL    HW275276   5.642   8.190   3.009  0.4483  1.0526  1.0054
23105SOL     OW75277   9.286  11.844  11.390 -0.5930  0.1166 -0.0385
23105SOL    HW175278   9.380  11.863  11.395 -0.3394 -0.3122 -2.1330
23105SOL    HW275279   9.245  11.906  11.450  0.9343  1.1704 -0.0356
23106SOL     OW75280   7.207   1.584   6.172 -0.7812  0.1091  0.8733
23106SOL    HW175281   7.248   1.571   6.257 -1.0329  2.9887  1.5278
23106SOL    HW275282   7.113   1.570   6.188 -0.5696 -2.6082  0.2415
23107SOL     OW75283  10.304   1.665  10.349 -0.7274  0.1468 -0.4208
23107SOL    HW175284  10.380   1.607  10.358 -0.4110  0.7716  1.2299
23107SOL    HW275285  10.229   1.605  10.347 -0.3549 -0.3682  0.4846
23108SOL     OW75286   4.522  10.794   0.983  0.9778  0.1893  0.4221
23108SOL    HW175287   4.545  10.774   0.892  0.2768 -1.2246  0.5230
23108SOL    HW275288   4.461  10.868   0.977 -1.4655 -1.7775 -0.5477
23109SOL     OW75289   2.292   5.414   9.568  0.1963 -0.0806 -0.4277
23109SOL    HW175290   2.371   5.369   9.599  0.1604  0.1270 -0.0224
23109SOL    HW275291   2.245   5.437   9.648  0.3584  0.9315 -0.6101
23110SOL     OW75292   4.808   1.287   6.115  0.0361  0.3874  0.7235
23110SOL    HW175293   4.813   1.364   6.060 -0.2769 -0.9075 -1.2285
23110SOL    HW275294   4.714   1.273   6.128  0.0930  0.3752  1.1478
23111SOL     OW75295  11.230   4.240   3.733 -0.1677 -0.3861  0.1141
23111SOL    HW175296  11.301   4.228   3.670 -1.5295  2.1337 -2.1130
23111SOL    HW275297  11.210   4.333   3.730 -2.1712 -0.6326  2.2790
23112SOL     OW75298   2.190   3.093   5.914  0.2081 -0.1694 -0.3391
23112SOL    HW175299   2.201   3.013   5.965  0.1946 -0.2626 -0.4832
23112SOL    HW275300   2.170   3.160   5.980  2.0836  0.1110  0.0019
23113SOL     OW75301   7.402   7.398   4.999  0.1676  0.1362 -0.2337
23113SOL    HW175302   7.447   7.360   4.923  1.6218  0.2462  0.5269
23113SOL    HW275303   7.387   7.489   4.976  0.0446  0.0120 -0.6363
23114SOL     OW75304   9.238   4.401   3.570 -0.0670 -0.1092  0.1344
23114SOL    HW175305   9.158   4.352   3.588 -0.5771  1.1410  1.4299
23114SOL    HW275306   9.223   4.442   3.485 -1.1565  0.7387  0.7089
23115SOL     OW75307   6.793   2.583   8.913 -0.1239 -0.5307  0.0867
23115SOL    HW175308   6.699   2.599   8.900  0.0510  0.9041  0.3531
23115SOL    HW275309   6.799   2.490   8.933 -1.1948 -1.2840 -2.6188
23116SOL     OW75310   0.481   0.769   8.946 -0.4287  0.2588  0.0264
23116SOL    HW175311   0.487   0.685   8.991 -2.4280  0.1616  0.2210
23116SOL    HW275312   0.491   0.748   8.853  1.1014  0.1115  0.1990
23117SOL     OW75313   5.751   8.446   6.638  0.1656  0.2944 -0.4202
23117SOL    HW175314   5.784   8.522   6.686  1.5254  0.2386 -1.1886
23117SOL    HW275315   5.657   8.460   6.632  0.0055  0.5337  1.7929
23118SOL     OW75316  12.251   1.527   9.339 -0.1431  0.4501  0.4049
23118SOL    HW175317  12.250   1.577   9.256 -0.8102  1.4855  1.0080
23118SOL    HW275318  12.291   1.587   9.402 -0.0524 -0.1640  0.9341
23119SOL     OW75319   1.800  11.026   0.423 -0.0021 -0.1992  0.1465
23119SOL    HW175320   1.751  11.035   0.505 -0.4411  2.0610 -0.2958
23119SOL    HW275321   1.842  11.111   0.411  2.1987 -1.3380 -0.6791
23120SOL     OW75322   5.249   2.939   1.050 -0.0661  0.0655  0.4063
23120SOL    HW175323   5.342   2.924   1.067 -0.7936 -0.8638  4.8621
23120SOL    HW275324   5.233   3.028   1.083 -0.7495  0.2134 -0.3063
23121SOL     OW75325   2.879  10.476   2.928 -0.5045 -0.6985 -0.1120
23121SOL    HW175326   2.956  10.469   2.985 -0.1094  1.6767 -0.2408
23121SOL    HW275327   2.805  10.484   2.989 -0.1915  0.8355  0.1137
23122SOL     OW75328   2.049   2.526   9.232 -0.0724 -0.0581  0.2139
23122SOL    HW175329   2.063   2.500   9.141 -0.1616 -0.3214  0.2745
23122SOL    HW275330   2.004   2.451   9.271  3.1284 -1.5115  1.4045
23123SOL     OW75331   2.415  10.848   0.550 -0.2890  0.4496  0.0283
23123SOL    HW175332   2.447  10.852   0.460 -1.7115  3.4665 -0.5006
23123SOL    HW275333   2.494  10.852   0.604  0.5323 -0.3901 -1.0720
23124SOL     OW75334   7.025   3.951   6.269 -0.3896 -0.3743 -0.0205
23124SOL    HW175335   7.024   3.902   6.351  0.6973  1.0677  0.9040
23124SOL    HW275336   7.117   3.955   6.244 -0.4396  1.1311 -0.0792
23125SOL     OW75337   6.521   2.313   4.784 -0.3520 -0.0011  0.1094
23125SOL    HW175338   6.476   2.318   4.699 -0.1154  2.3212  0.0660
23125SOL    HW275339   6.610   2.341   4.766 -0.1830  0.1151  1.0752
23126SOL     OW75340   8.298   8.148  10.722 -0.1043 -0.0298 -0.3488
23126SOL    HW175341   8.252   8.065  10.736  0.6946 -0.5356 -0.6696
23126SOL    HW275342   8.381   8.138  10.767  0.0284  0.5755 -0.4451
23127SOL     OW75343   2.192   4.828   4.966  0.0654 -0.0083  0.0047
23127SOL    HW175344   2.145   4.827   4.883 -0.3399 -0.1822  0.2299
23127SOL    HW275345   2.284   4.816   4.943 -0.3083 -3.4540 -0.2533
23128SOL     OW75346   6.241   4.472   3.163  0.4330  0.2215  0.3730
23128SOL    HW175347   6.228   4.543   3.100  1.3053 -0.0138 -0.0943
23128SOL    HW275348   6.294   4.408   3.115  0.8934 -0.0784  1.2735
23129SOL     OW75349   6.714  10.191   1.534  0.4225 -0.0667  0.9590
23129SOL    HW175350   6.760  10.147   1.606 -1.9265 -1.2363  1.8530
23129SOL    HW275351   6.625  10.204   1.566 -0.2841  0.8739 -1.1634
23130SOL     OW75352   5.633   5.602   0.409 -0.1307 -0.3663  0.4741
23130SOL    HW175353   5.635   5.697   0.420 -0.3585 -0.4948  1.8985
23130SOL    HW275354   5.543   5.583   0.381  0.2083 -0.0844 -0.8396
23131SOL     OW75355   6.390   3.280   9.687  0.0389  0.2667  0.0507
23131SOL    HW175356   6.399   3.275   9.592 -0.8362  0.0877 -0.0288
23131SOL    HW275357   6.462   3.337   9.715  0.4533  0.1177 -0.6868
23132SOL     OW75358   8.874   3.460   5.818  0.0325 -0.2984 -0.0711
23132SOL    HW175359   8.946   3.512   5.854 -0.9703  2.7058 -2.0431
23132SOL    HW275360   8.917   3.379   5.788  1.9406 -0.0646  1.7515
23133SOL     OW75361   1.003  10.193   6.777 -0.6164  0.0144 -0.0444
23133SOL    HW175362   0.931  10.217   6.718 -1.1481  1.6033  1.1866
23133SOL    HW275363   1.032  10.275   6.815  0.0554 -0.8980  1.5203
23134SOL     OW75364   7.501   0.206   4.251  0.1713  0.1623  0.2120
23134SOL    HW175365   7.555   0.231   4.326  0.2928  0.6648 -0.0393
23134SOL    HW275366   7.411   0.221   4.281  0.2696  2.3936 -0.4251
23135SOL     OW75367  10.471   7.972   4.008 -0.1492  0.1641  0.4613
23135SOL    HW175368  10.409   7.975   3.935  1.1997 -4.2433 -1.2212
23135SOL    HW275369  10.417   7.964   4.086 -1.8678 -2.5270 -0.8486
23136SOL     OW75370   6.169   7.479   1.010  0.1288  0.1909  0.2258
23136SOL    HW175371   6.172   7.473   1.105  0.4528 -0.2289  0.1880
23136SOL    HW275372   6.140   7.393   0.981  3.4819 -0.9253 -0.2333
23137SOL     OW75373   0.608   9.546  12.359  0.2754 -0.4944  0.0480
23137SOL    HW175374   0.659   9.512  12.432  1.6457 -0.9297 -1.0642
23137SOL    HW275375   0.672   9.591  12.304 -0.7845  0.1395 -0.6955
23138SOL     OW75376   9.574   0.944   9.613  0.2375 -0.7995 -0.3820
23138SOL    HW175377   9.490   0.984   9.635  1.4453  0.4610  2.5801
23138SOL    HW275378   9.563   0.852   9.635 -0.4336 -0.6829 -0.2062
23139SOL     OW75379   7.407   5.137   7.003  0.5364  0.1296 -0.5723
23139SOL    HW175380   7.343   5.184   7.056  1.3360  0.5109  0.0767
23139SOL    HW275381   7.492   5.170   7.033  1.0713 -0.9537 -0.8430
23140SOL     OW75382   0.444  10.875   9.952 -0.5977  0.1584 -0.4978
23140SOL    HW175383   0.476  10.964   9.963 -1.5880  0.5596 -0.7213
23140SOL    HW275384   0.511  10.820   9.992  0.9543  0.8581 -1.9730
23141SOL     OW75385   0.028   9.646   9.870 -0.2767 -0.4337  0.9538
23141SOL    HW175386  -0.029   9.714   9.906 -0.8145 -0.7328  0.6858
23141SOL    HW275387  -0.005   9.564   9.908 -0.0279 -0.6104  0.7960
23142SOL     OW75388   9.294   4.432   5.485  0.4100 -0.1094 -0.2660
23142SOL    HW175389   9.309   4.363   5.421  0.5088  0.9126 -1.3849
23142SOL    HW275390   9.199   4.443   5.488  0.3853 -0.3822  0.0225
23143SOL     OW75391  10.923   0.299   8.336 -0.6343 -0.0866 -0.1796
23143SOL    HW175392  11.003   0.351   8.338 -0.0270 -0.9481 -1.2754
23143SOL    HW275393  10.937   0.235   8.267 -2.0157 -0.6768  0.0482
23144SOL     OW75394   2.859   7.083  12.390 -0.2959 -0.5474 -0.5156
23144SOL    HW175395   2.799   7.056  12.321  0.1359 -1.0062 -0.7178
23144SOL    HW275396   2.838   7.026  12.464  0.6729 -1.5357 -0.9700
23145SOL     OW75397  10.326   7.345  10.592  0.1106  0.2040  0.5143
23145SOL    HW175398  10.287   7.328  10.678  2.2478 -1.1423  1.2963
23145SOL    HW275399  10.290   7.277  10.535  0.7719 -0.6093  1.0554
23146SOL     OW75400   8.382   4.928  11.933 -0.0791 -0.2639 -0.2508
23146SOL    HW175401   8.369   5.018  11.962 -2.4099 -0.9528  1.0283
23146SOL    HW275402   8.356   4.929  11.841  0.3995  0.4343 -0.3934
23147SOL     OW75403  10.356   6.824   8.348  0.5240  0.1653  0.5923
23147SOL    HW175404  10.334   6.914   8.327 -0.0022  0.4374  2.2011
23147SOL    HW275405  10.272   6.782   8.367  0.9439  0.0581  2.4379
23148SOL     OW75406  11.043   3.858  11.584  0.4345 -0.7069 -0.3029
23148SOL    HW175407  11.122   3.910  11.567  0.1119  0.7270  1.9955
23148SOL    HW275408  11.051   3.832  11.676 -2.1452  0.2743  0.2990
23149SOL     OW75409   0.941  10.743   9.845  0.6623  0.8178  0.0312
23149SOL    HW175410   0.979  10.766   9.760  0.6494 -0.5034 -0.3625
23149SOL    HW275411   0.882  10.670   9.825 -0.2083  1.2415  1.0121
23150SOL     OW75412   3.733   7.882   9.466 -0.2844 -0.4828  0.3571
23150SOL    HW175413   3.639   7.889   9.449 -0.1051  1.9899  0.0587
23150SOL    HW275414   3.774   7.930   9.394  0.9429  2.3856  2.7463
23151SOL     OW75415   3.688   0.153   9.080 -0.6861 -0.5094 -0.3089
23151SOL    HW175416   3.719   0.089   9.017  0.4843  1.1262 -1.4870
23151SOL    HW275417   3.603   0.120   9.109 -1.3340 -1.2655 -2.8513
23152SOL     OW75418  10.601  10.864   3.357  0.2370 -0.5883 -0.4576
23152SOL    HW175419  10.679  10.855   3.412  0.1307 -1.5332 -0.4327
23152SOL    HW275420  10.542  10.919   3.408 -0.4219 -2.5710  1.0672
23153SOL     OW75421   1.121   8.599   1.713  0.1761  0.5845  0.4441
23153SOL    HW175422   1.213   8.624   1.716  0.0630  1.4567 -1.6392
23153SOL    HW275423   1.116   8.533   1.644 -0.7719  0.7386  0.3519
23154SOL     OW75424   6.238   5.240   3.660 -0.3763 -0.1701  0.1033
23154SOL    HW175425   6.156   5.197   3.635  0.4776 -0.8489 -1.6927
23154SOL    HW275426   6.249   5.310   3.595  0.1863  0.2956  0.6934
23155SOL     OW75427   8.750   2.781   1.369 -0.3370  0.3922  0.3102
23155SOL    HW175428   8.775   2.786   1.277  0.1305 -0.5432  0.3796
23155SOL    HW275429   8.697   2.702   1.375 -0.0850  0.2649  0.9107
23156SOL     OW75430   2.730   0.465   3.604  0.0493 -0.3573 -0.1515
23156SOL    HW175431   2.711   0.448   3.696 -0.5592  1.4145  0.0883
23156SOL    HW275432   2.688   0.549   3.586 -0.1494 -0.8336 -2.1539
23157SOL     OW75433   4.598  11.688   2.938  0.4103  0.3184  0.1032
23157SOL    HW175434   4.529  11.709   2.874 -0.0612  2.1109  1.1114
23157SOL    HW275435   4.624  11.774   2.974  1.7144 -0.5071  1.2293
23158SOL     OW75436   4.402   8.549   5.949 -0.5227  0.0588  0.2216
23158SOL    HW175437   4.384   8.466   5.905 -0.8644  1.0242 -1.5051
23158SOL    HW275438   4.469   8.591   5.896  1.4773 -0.1178  2.4104
23159SOL     OW75439  11.922  11.720   0.693 -0.0766  0.5305  0.0878
23159SOL    HW175440  11.907  11.655   0.761  0.9645  0.5393  0.3322
23159SOL    HW275441  11.908  11.673   0.611 -1.4610  0.5515  0.2903
23160SOL     OW75442  12.062   3.721   9.689 -0.2144  0.1888 -0.5084
23160SOL    HW175443  12.003   3.653   9.721  0.2688  0.3412  0.7760
23160SOL    HW275444  12.150   3.686   9.708  0.0385  1.0862  0.0320
23161SOL     OW75445   0.272   2.950   3.964 -0.1426 -0.0801 -0.1542
23161SOL    HW175446   0.252   3.023   3.905 -2.0856 -0.4864 -0.0577
23161SOL    HW275447   0.322   2.991   4.035  0.9437  0.6816 -1.2930
23162SOL     OW75448   7.808   6.321   6.590  0.0375  0.4576 -0.3778
23162SOL    HW175449   7.824   6.341   6.497  3.2156 -1.9180 -0.4801
23162SOL    HW275450   7.785   6.406   6.628  0.4170  1.8536 -2.9754
23163SOL     OW75451   0.833   5.932   0.177  0.1959  0.4758 -0.5643
23163SOL    HW175452   0.799   5.951   0.089 -1.3103  1.7576  0.2564
23163SOL    HW275453   0.888   6.008   0.198  0.8670 -0.0120 -0.5447
23164SOL     OW75454   7.996   1.808   4.175 -0.1846  0.4701 -0.4756
23164SOL    HW175455   7.994   1.713   4.187 -1.5631  0.6195  0.7335
23164SOL    HW275456   7.976   1.820   4.082 -0.7550 -0.4111 -0.4879
23165SOL     OW75457   6.691   6.869   9.185  0.1241 -0.0536  0.0206
23165SOL    HW175458   6.731   6.922   9.115 -1.4468  1.2722  0.0590
23165SOL    HW275459   6.681   6.930   9.258 -0.3418 -0.8259  0.6088
23166SOL     OW75460   3.339   8.131  12.368  0.0803  0.9392  0.3845
23166SOL    HW175461   3.357   8.048  12.324  1.3828  0.9580  0.8556
23166SOL    HW275462   3.256   8.116  12.414 -0.3677  0.3418 -0.6063
23167SOL     OW75463   7.716   3.369   6.887 -0.3425  0.0301  0.0716
23167SOL    HW175464   7.784   3.332   6.830  0.3985 -0.3104  1.1340
23167SOL    HW275465   7.743   3.342   6.975 -0.4114  2.1438  0.7825
23168SOL     OW75466   6.042   4.752   3.279  0.2435  0.0620 -0.1010
23168SOL    HW175467   6.021   4.663   3.253  2.2641 -0.4503 -0.1633
23168SOL    HW275468   6.033   4.804   3.199 -1.0810 -0.0367 -0.0299
23169SOL     OW75469   7.943   4.093   0.749 -0.0038  0.0625 -0.4779
23169SOL    HW175470   7.887   4.158   0.707 -1.6020 -1.6385 -1.0627
23169SOL    HW275471   7.953   4.024   0.684 -0.3085 -1.3794  0.9683
23170SOL     OW75472   6.030   1.938   2.608 -0.3777 -0.6361 -0.0925
23170SOL    HW175473   5.938   1.918   2.588 -0.4317 -0.9101  0.4042
23170SOL    HW275474   6.080   1.880   2.552 -0.5120 -0.7572 -0.0883
23171SOL     OW75475   3.455   4.755   8.456 -0.1712 -0.3052  0.3803
23171SOL    HW175476   3.406   4.701   8.393  1.4999 -1.8922  0.3648
23171SOL    HW275477   3.417   4.842   8.446 -0.7232 -0.7420 -2.0384
23172SOL     OW75478   0.387   8.986  10.668 -0.3962 -0.1109  0.2619
23172SOL    HW175479   0.461   9.018  10.719 -1.0373 -1.0676  1.8474
23172SOL    HW275480   0.329   9.062  10.661  0.0435  0.2315  0.2950
23173SOL     OW75481   5.149   4.174   2.501 -0.3431 -0.0525  0.8723
23173SOL    HW175482   5.148   4.079   2.499 -0.9824 -0.0424  0.2431
23173SOL    HW275483   5.239   4.198   2.479 -0.5385 -0.4981 -0.4925
23174SOL     OW75484   8.770   0.671   4.346 -0.1995  0.5112  0.0261
23174SOL    HW175485   8.708   0.724   4.396 -0.5852  0.0622  0.0308
23174SOL    HW275486   8.853   0.684   4.390 -0.4356  0.5235  0.4733
23175SOL     OW75487   9.841   4.148   4.826 -0.3245  0.2399  0.3905
23175SOL    HW175488   9.862   4.065   4.784  0.7169  0.9064 -0.4990
23175SOL    HW275489   9.770   4.184   4.773 -1.2477 -0.3754  1.1896
23176SOL     OW75490   9.635   7.611   9.178  0.6306  0.0668  0.6769
23176SOL    HW175491   9.542   7.613   9.157  1.0431 -0.0228 -1.3936
23176SOL    HW275492   9.679   7.618   9.093  2.5215  0.5821  1.6398
23177SOL     OW75493   4.634   2.288  10.915  0.1196  0.3836 -0.4377
23177SOL    HW175494   4.712   2.342  10.924 -0.1773  0.6200  0.7806
23177SOL    HW275495   4.562   2.343  10.946 -0.4909  0.0358 -1.1838
23178SOL     OW75496   6.225   8.071   4.670  0.0289 -0.5155 -0.3900
23178SOL    HW175497   6.293   8.133   4.645  0.8339 -0.9861  0.5558
23178SOL    HW275498   6.209   8.090   4.763 -2.3157  0.6802 -0.9741
23179SOL     OW75499   8.372  12.341   2.341 -0.5722  0.4821 -0.2243
23179SOL    HW175500   8.437  12.294   2.288 -0.2775 -0.5824  1.0170
23179SOL    HW275501   8.312  12.272   2.371 -1.0504  1.1349  0.3485
23180SOL     OW75502  10.075   4.302   6.665  0.0460  0.4014 -0.0637
23180SOL    HW175503  10.091   4.227   6.607  1.4260 -0.2088  1.0442
23180SOL    HW275504  10.131   4.371   6.631  0.9033  0.0231  0.5616
23181SOL     OW75505   1.872   5.493   3.926  0.5147 -0.0203 -0.9668
23181SOL    HW175506   1.782   5.476   3.897  0.1144 -0.8678  0.6792
23181SOL    HW275507   1.863   5.562   3.992  1.1673  0.4051 -1.3179
23182SOL     OW75508   1.377   9.227   5.473 -0.0216  0.1369 -0.2315
23182SOL    HW175509   1.392   9.136   5.498 -0.0942 -0.1844 -1.2990
23182SOL    HW275510   1.340   9.221   5.385  0.6727  1.2280 -0.6098
23183SOL     OW75511   5.019  10.257   2.960  0.3004  0.3883 -0.4598
23183SOL    HW175512   5.094  10.316   2.949  1.5347 -1.3593 -1.8105
23183SOL    HW275513   5.008  10.251   3.055  1.2619  1.4164 -0.2599
23184SOL     OW75514   8.283  11.573  10.339 -0.1755 -0.8091 -0.2523
23184SOL    HW175515   8.351  11.639  10.351 -0.6488 -0.6641  2.1579
23184SOL    HW275516   8.322  11.492  10.372 -0.8489 -0.9051  0.3310
23185SOL     OW75517   5.778   8.333   1.238  0.2076 -0.3549  0.4932
23185SOL    HW175518   5.832   8.256   1.255  1.7614  0.2029 -1.4838
23185SOL    HW275519   5.812   8.368   1.156 -1.9395  1.1734  0.1792
23186SOL     OW75520  11.714   2.333   9.307  0.2979 -0.5129 -0.0039
23186SOL    HW175521  11.723   2.410   9.363 -2.1795 -1.2856  1.6705
23186SOL    HW275522  11.726   2.365   9.218  1.2251  1.3965  0.7693
23187SOL     OW75523   9.749   7.339   5.823  0.7224  0.1947 -0.9318
23187SOL    HW175524   9.757   7.337   5.728  0.3117 -0.5448 -0.9582
23187SOL    HW275525   9.789   7.257   5.852 -1.3510 -0.7781 -0.6577
23188SOL     OW75526   9.973  11.309   5.482 -0.7515 -0.0583  0.5154
23188SOL    HW175527   9.970  11.243   5.413 -0.7840 -0.1847  0.6369
23188SOL    HW275528   9.944  11.263   5.561 -0.0144 -0.1017  0.7623
23189SOL     OW75529   6.042   0.906   6.228 -0.5161 -0.2837 -0.0761
23189SOL    HW175530   6.101   0.938   6.296 -0.0207 -0.9731 -0.1746
23189SOL    HW275531   5.955   0.936   6.256  0.1017  2.7514 -1.1180
23190SOL     OW75532   6.252   5.895   7.330 -0.8038 -0.0827  0.6116
23190SOL    HW175533   6.321   5.900   7.264 -1.3852  2.4229  0.0674
23190SOL    HW275534   6.262   5.976   7.380 -1.4871 -1.1065  2.4931
23191SOL     OW75535   8.180   0.819   0.868  0.4401 -0.4599 -0.1835
23191SOL    HW175536   8.207   0.731   0.841 -0.9963 -1.0861  0.3115
23191SOL    HW275537   8.134   0.854   0.792  1.7714  0.2371 -0.6955
23192SOL     OW75538   2.568   6.360   2.888  0.2204  0.8123 -0.2025
23192SOL    HW175539   2.560   6.378   2.795  0.1484  2.0556  0.0175
23192SOL    HW275540   2.574   6.447   2.928 -0.7353  0.3397  1.0353
23193SOL     OW75541  10.760   3.643   6.234  0.2379  0.2712  0.2724
23193SOL    HW175542  10.703   3.621   6.160  0.6225  0.6241 -0.1281
23193SOL    HW275543  10.834   3.689   6.195  0.7041 -0.0089  0.8195
23194SOL     OW75544   3.654   5.306   9.557  0.1103 -0.1993  0.4841
23194SOL    HW175545   3.678   5.346   9.640  0.1506 -0.1321  0.4409
23194SOL    HW275546   3.596   5.234   9.580  2.0365 -1.7477  0.7726
23195SOL     OW75547   6.389   4.574   2.802 -0.3162 -0.4731 -0.4574
23195SOL    HW175548   6.445   4.531   2.867 -0.1233 -1.1823 -1.0750
23195SOL    HW275549   6.436   4.654   2.780  0.5587 -1.1428 -1.0928
23196SOL     OW75550   9.870   0.833   5.300 -0.1310  0.3183  0.3335
23196SOL    HW175551   9.851   0.843   5.394  2.6203 -0.2196  1.0142
23196SOL    HW275552   9.831   0.749   5.277  0.0414 -0.0355  1.2692
23197SOL     OW75553   5.879  11.908   5.631 -0.2928  0.0487 -0.4607
23197SOL    HW175554   5.911  11.966   5.699 -2.7088  0.7514  0.1460
23197SOL    HW275555   5.817  11.850   5.675 -0.7452 -0.5050 -1.7717
23198SOL     OW75556  12.098   0.425   8.323  0.5153 -0.5933 -0.2221
23198SOL    HW175557  12.039   0.354   8.347  2.7045 -2.3161  0.3491
23198SOL    HW275558  12.178   0.409   8.372  1.1308  2.3106 -0.0652
23199SOL     OW75559  11.674   4.664   4.236 -0.4881 -0.0519 -0.0505
23199SOL    HW175560  11.714   4.736   4.284  1.3934  0.4288 -2.2029
23199SOL    HW275561  11.748   4.611   4.207 -1.7146 -1.6318 -0.4283
23200SOL     OW75562   0.644   9.839  11.947 -0.3144  0.0342 -0.7997
23200SOL    HW175563   0.710   9.815  11.881  1.1435 -0.9682  0.9247
23200SOL    HW275564   0.596   9.758  11.963  0.0113  0.0094  0.0792
23201SOL     OW75565   4.537   6.277   1.471  0.0759  0.2360 -0.3253
23201SOL    HW175566   4.615   6.223   1.460 -1.0356 -0.9680 -3.6663
23201SOL    HW275567   4.464   6.216   1.465 -1.1897  1.6245  0.2667
23202SOL     OW75568  10.718   7.753   9.782 -0.2543 -0.3265  0.0354
23202SOL    HW175569  10.687   7.737   9.871 -2.1310  1.6472 -0.1859
23202SOL    HW275570  10.662   7.698   9.727  0.4688 -1.0423 -0.0084
23203SOL     OW75571  11.492  10.898   9.719  0.1214  0.0359  0.1448
23203SOL    HW175572  11.433  10.823   9.730 -0.0651 -0.1287 -1.5877
23203SOL    HW275573  11.487  10.946   9.802  0.1938 -1.8211  1.2756
23204SOL     OW75574   3.564  10.770   1.632 -0.2625  0.3808  0.0914
23204SOL    HW175575   3.539  10.859   1.608  0.4870  0.5312 -0.1810
23204SOL    HW275576   3.660  10.772   1.635 -0.2515 -0.3208  0.4571
23205SOL     OW75577   4.859   9.669   7.885  0.0260 -0.5159  0.1064
23205SOL    HW175578   4.923   9.709   7.826 -0.3439  1.2203  0.8017
23205SOL    HW275579   4.813   9.605   7.832  1.1669 -0.5519 -0.8715
23206SOL     OW75580   9.456  11.080   3.972 -0.3038 -0.4102 -0.6496
23206SOL    HW175581   9.531  11.026   3.996 -0.1521 -0.5207 -1.3412
23206SOL    HW275582   9.423  11.041   3.890 -0.3580  0.3751 -1.0146
23207SOL     OW75583  12.096   9.956   4.254 -1.0738  0.2938  0.1506
23207SOL    HW175584  12.062   9.870   4.277 -1.4543  0.2468 -0.5562
23207SOL    HW275585  12.038   9.986   4.184  0.4818  0.1217 -1.2610
23208SOL     OW75586  10.081   1.213   7.342 -0.1541  0.6043  0.1967
23208SOL    HW175587  10.071   1.165   7.424  1.2391 -1.5884 -0.7982
23208SOL    HW275588  10.173   1.237   7.339  0.1983 -0.7380 -1.3600
23209SOL     OW75589   6.122   5.830   2.875  0.7165 -0.4281  0.4003
23209SOL    HW175590   6.147   5.869   2.958 -0.0761  0.8892  0.0542
23209SOL    HW275591   6.169   5.882   2.809 -0.9987  0.5654 -0.1172
23210SOL     OW75592   3.466   9.172  10.178  0.1414 -0.5265 -0.0495
23210SOL    HW175593   3.402   9.112  10.139  0.5508 -0.2015 -1.2411
23210SOL    HW275594   3.468   9.247  10.119  1.1011 -0.2199  0.3569
23211SOL     OW75595   1.961   9.481   4.019 -0.3985 -0.1062 -0.7351
23211SOL    HW175596   1.931   9.562   4.061  0.6772  0.0546 -0.2594
23211SOL    HW275597   2.051   9.470   4.048  0.9064  0.7013 -4.0116
23212SOL     OW75598  10.208   0.696   7.938 -0.0420  0.3067 -0.1306
23212SOL    HW175599  10.274   0.731   7.879 -1.0317 -1.0587 -2.2099
23212SOL    HW275600  10.129   0.747   7.919  0.0489  1.0747  1.4005
23213SOL     OW75601  10.940   2.004  10.409 -0.4493 -0.8053 -0.2614
23213SOL    HW175602  10.942   2.066  10.336 -0.8362  0.0344  0.4235
23213SOL    HW275603  10.848   1.980  10.417 -0.5480 -0.1740  0.5405
23214SOL     OW75604   0.881   8.382   8.187 -0.0647 -0.3855 -1.0476
23214SOL    HW175605   0.822   8.449   8.221 -0.1307 -1.1862  0.4902
23214SOL    HW275606   0.831   8.301   8.192  0.6202 -0.8315 -1.2410
23215SOL     OW75607   4.896   4.210   8.582  0.1831  0.0839 -0.5534
23215SOL    HW175608   4.878   4.234   8.491 -1.1468 -2.1742 -0.9527
23215SOL    HW275609   4.841   4.134   8.599  1.1017 -0.1495  1.8686
23216SOL     OW75610   8.659  10.154   3.177 -0.2381  0.3815  0.0855
23216SOL    HW175611   8.701  10.084   3.227  1.1805  0.7590 -0.5208
23216SOL    HW275612   8.588  10.111   3.130 -0.8917 -0.1864  1.5308
23217SOL     OW75613   5.504   0.833   9.147 -0.2574 -0.1456 -0.2386
23217SOL    HW175614   5.459   0.882   9.216  0.4506  1.6506 -0.9806
23217SOL    HW275615   5.553   0.765   9.193 -0.7372  0.2613  0.9071
23218SOL     OW75616   3.477   2.915   9.141  0.5281  0.2237 -0.0544
23218SOL    HW175617   3.507   2.861   9.067  0.4026  0.0361  0.0285
23218SOL    HW275618   3.501   2.864   9.218  0.6714  0.4272  0.0336
23219SOL     OW75619   9.034   0.791   0.108  0.1100 -0.0502 -0.2516
23219SOL    HW175620   8.948   0.764   0.142  0.0966  0.0566 -0.2023
23219SOL    HW275621   9.014   0.849   0.034  0.1325 -0.9124 -0.9561
23220SOL     OW75622   7.061   3.412   7.374 -0.7168  0.8370 -0.0564
23220SOL    HW175623   7.095   3.493   7.336  1.8147 -0.1646 -0.1450
23220SOL    HW275624   7.025   3.364   7.299  1.8283  0.0329 -0.8832
23221SOL     OW75625  12.330   9.918   2.422  0.5850 -1.0828 -0.0689
23221SOL    HW175626  12.414   9.878   2.447  1.9995  1.3156 -0.6612
23221SOL    HW275627  12.324   9.997   2.476  0.3021  0.4756 -2.2590
23222SOL     OW75628   9.404   1.521   6.563 -0.0956 -0.2457  0.6484
23222SOL    HW175629   9.409   1.447   6.623 -0.9637 -1.2808 -0.5148
23222SOL    HW275630   9.389   1.482   6.477  0.0699  1.2526 -0.1006
23223SOL     OW75631   1.398   5.102   3.182 -0.0917  0.4581  0.5302
23223SOL    HW175632   1.476   5.102   3.238 -0.4321 -0.5262  1.0207
23223SOL    HW275633   1.327   5.076   3.240 -0.6869  0.7318 -0.0641
23224SOL     OW75634   0.579   1.545  11.942  0.1156 -0.0895 -0.4164
23224SOL    HW175635   0.663   1.501  11.928 -0.3580 -0.7609 -1.3066
23224SOL    HW275636   0.581   1.572  12.034  2.1792  1.8239 -0.9307
23225SOL     OW75637   4.267   0.801   5.596 -0.1802  0.5430 -0.5408
23225SOL    HW175638   4.358   0.795   5.622 -0.7401  0.4423  1.5413
23225SOL    HW275639   4.261   0.749   5.516  1.5181  0.3391 -0.5564
23226SOL     OW75640   1.160  10.955   3.537 -0.4056  0.6225  0.1801
23226SOL    HW175641   1.202  11.007   3.606 -1.3815  2.9100 -0.8612
23226SOL    HW275642   1.127  10.877   3.583  0.7566  1.0872  1.8857
23227SOL     OW75643   6.123   2.537   5.107  0.0116 -0.0720  0.0149
23227SOL    HW175644   6.179   2.511   5.181  0.7536  0.6835 -0.2650
23227SOL    HW275645   6.174   2.603   5.060 -0.5082 -0.4336 -1.0983
23228SOL     OW75646   5.609   3.530   6.984  0.1850  0.3792  0.0213
23228SOL    HW175647   5.618   3.602   7.047  1.7661  2.0465 -1.9767
23228SOL    HW275648   5.569   3.570   6.907  2.4991 -0.4225 -1.7137
23229SOL     OW75649  10.878   4.236   0.921  0.2154 -0.8629 -0.9802
23229SOL    HW175650  10.845   4.236   1.011  4.8422 -0.5082  0.9828
23229SOL    HW275651  10.911   4.147   0.908  1.9916 -0.1958 -1.2486
23230SOL     OW75652   5.956  11.640  11.147  0.0532 -0.0543  0.8256
23230SOL    HW175653   5.920  11.719  11.106  1.8744  1.0296  1.2161
23230SOL    HW275654   5.879  11.588  11.169 -1.1191  0.4949 -1.5803
23231SOL     OW75655   2.826  11.946   0.626 -0.4000  0.1478  0.0218
23231SOL    HW175656   2.904  11.997   0.605 -1.7833  2.1360 -0.5613
23231SOL    HW275657   2.803  11.903   0.544  0.5069 -1.1027  0.3986
23232SOL     OW75658   3.337   6.411   3.011  0.0131 -0.2132  0.1341
23232SOL    HW175659   3.250   6.423   3.050 -0.0442 -0.2230  0.0097
23232SOL    HW275660   3.333   6.323   2.973 -0.6464  0.5753 -1.7422
23233SOL     OW75661   5.727   7.972   3.636 -0.2295  0.7511 -0.7597
23233SOL    HW175662   5.732   7.954   3.730 -3.2365 -1.7533 -0.9071
23233SOL    HW275663   5.764   7.895   3.594 -0.9868  0.8131 -1.5835
23234SOL     OW75664   5.219   2.493   5.625 -0.9223 -0.2773 -0.1282
23234SOL    HW175665   5.137   2.442   5.620 -0.6214 -0.7937  0.0864
23234SOL    HW275666   5.264   2.473   5.542 -0.4898 -0.9132  0.2530
23235SOL     OW75667   3.188  11.644   9.873 -0.1085  0.6122 -0.5716
23235SOL    HW175668   3.121  11.682   9.817 -0.9427 -1.1878 -0.8712
23235SOL    HW275669   3.258  11.619   9.813  0.0801  0.9366 -0.4864
23236SOL     OW75670   9.674   8.199   2.046 -0.3059  0.0130 -0.2254
23236SOL    HW175671   9.616   8.137   2.092  0.6605 -1.1047 -0.4579
23236SOL    HW275672   9.711   8.148   1.975 -0.1701  1.1448 -0.9886
23237SOL     OW75673  10.550   9.720  10.403 -0.1140  0.1168  0.2409
23237SOL    HW175674  10.530   9.719  10.497  0.6888  1.8696  0.4656
23237SOL    HW275675  10.485   9.781  10.366 -0.4692 -0.6161 -0.3689
23238SOL     OW75676   9.342  11.113   4.230 -0.1806  0.0222 -0.3907
23238SOL    HW175677   9.405  11.137   4.162 -0.3251  1.7015  0.0211
23238SOL    HW275678   9.395  11.070   4.297  0.1329 -0.6744 -1.0677
23239SOL     OW75679   7.187   9.982   5.098  0.3832  0.4770  0.0503
23239SOL    HW175680   7.121  10.002   5.164 -0.5025  0.8563 -0.9190
23239SOL    HW275681   7.167   9.893   5.070  0.2707  0.5910 -0.2424
23240SOL     OW75682   4.468   3.250  10.797 -0.2662  0.0707  0.0328
23240SOL    HW175683   4.452   3.270  10.889 -2.1330 -0.0363 -0.2136
23240SOL    HW275684   4.382   3.222  10.764  0.4391 -0.2300 -1.6545
23241SOL     OW75685   5.972  11.256   0.786  0.0204 -0.0229  0.1722
23241SOL    HW175686   5.918  11.286   0.713  0.8489  1.9346  0.3206
23241SOL    HW275687   6.028  11.330   0.807  0.7802 -1.0297  1.8978
23242SOL     OW75688   4.635   5.242   7.892 -0.2248 -0.6138 -0.2881
23242SOL    HW175689   4.638   5.327   7.936 -0.6393 -1.2095  0.9373
23242SOL    HW275690   4.676   5.257   7.807 -0.1646  0.7723 -0.0305
23243SOL     OW75691   4.109   8.766   8.448 -0.4965  0.2499 -0.2407
23243SOL    HW175692   4.109   8.819   8.369  0.1409 -0.0458 -0.4442
23243SOL    HW275693   4.098   8.676   8.418 -0.3360  0.1437  0.0051
23244SOL     OW75694   3.646  10.842   3.629 -0.4918  0.3131  0.1690
23244SOL    HW175695   3.566  10.808   3.668 -0.1010  0.1148  0.8169
23244SOL    HW275696   3.621  10.926   3.591 -1.0058  0.2443  0.3580
23245SOL     OW75697  10.642   9.808   9.993  0.5830  0.0645  0.3858
23245SOL    HW175698  10.572   9.871  10.012  1.3219  2.0848 -2.7456
23245SOL    HW275699  10.610   9.759   9.917  2.6448  1.4775 -1.5326
23246SOL     OW75700   2.746   2.505  10.358 -0.2973 -0.1926 -0.3470
23246SOL    HW175701   2.811   2.526  10.425  0.7998  1.8652 -1.9446
23246SOL    HW275702   2.750   2.410  10.351  3.1079 -0.1339 -0.8559
23247SOL     OW75703   0.229   0.422   3.732  0.0596  0.2361 -0.0376
23247SOL    HW175704   0.265   0.392   3.649 -1.6822 -0.4834 -0.5823
23247SOL    HW275705   0.296   0.400   3.797  1.0847  0.0321 -1.1219
23248SOL     OW75706   0.307   9.873  10.119 -0.1241  0.2704  0.2262
23248SOL    HW175707   0.350   9.820  10.052 -0.3713 -0.6370  0.7730
23248SOL    HW275708   0.322   9.963  10.091 -0.1259 -0.0920 -0.9826
23249SOL     OW75709  10.311   0.054   0.814  0.0120  0.1957  0.1516
23249SOL    HW175710  10.357  -0.029   0.824  0.0885  0.4231  1.8791
23249SOL    HW275711  10.306   0.067   0.719  0.1838 -1.6660 -0.1514
23250SOL     OW75712   0.329   6.772   1.124  0.5968 -0.5402 -0.1764
23250SOL    HW175713   0.296   6.845   1.072  0.0118 -1.0120 -0.4881
23250SOL    HW275714   0.412   6.748   1.082  1.1042  0.3269  0.3027
23251SOL     OW75715   5.201  12.407  10.774  0.2399  0.7050  0.7278
23251SOL    HW175716   5.285  12.440  10.741  0.5934 -1.2483 -0.5039
23251SOL    HW275717   5.166  12.355  10.702 -1.7861  1.0240  1.4309
23252SOL     OW75718   0.828  11.281   8.448 -0.2120 -0.5269 -0.0900
23252SOL    HW175719   0.829  11.220   8.374  0.3073 -1.2864  0.5311
23252SOL    HW275720   0.803  11.228   8.523  1.0047 -0.1544  0.6045
23253SOL     OW75721   9.056   4.432   7.419 -0.0956 -0.6337  0.0049
23253SOL    HW175722   8.997   4.460   7.348  1.9162 -2.3611 -2.4985
23253SOL    HW275723   9.027   4.484   7.494 -3.4636  0.0902 -1.5659
23254SOL     OW75724   9.980   1.839   3.040 -0.5971 -0.0916  0.7673
23254SOL    HW175725  10.064   1.850   3.085 -0.6642  0.9261  0.6705
23254SOL    HW275726   9.961   1.926   3.004 -1.7002 -0.3042  0.8092
23255SOL     OW75727   2.870  10.419   3.374  0.6219  0.7257 -0.1104
23255SOL    HW175728   2.791  10.393   3.327  1.5863 -3.4114  0.1511
23255SOL    HW275729   2.941  10.377   3.327  2.0897  0.1176  2.4326
23256SOL     OW75730   8.818   0.885  10.863  0.3244 -0.2707  1.0531
23256SOL    HW175731   8.736   0.852  10.827  1.0869 -0.3126 -0.7568
23256SOL    HW275732   8.803   0.890  10.957 -0.8597 -2.8264  1.0733
23257SOL     OW75733   8.576  11.882   3.446 -0.1475 -0.1920 -0.1982
23257SOL    HW175734   8.631  11.960   3.454 -1.7164  1.0139 -0.7734
23257SOL    HW275735   8.537  11.889   3.359 -2.3407 -0.2217  0.7366
23258SOL     OW75736   4.593   0.567  10.011  0.0128  0.4286 -0.0850
23258SOL    HW175737   4.517   0.518  10.041 -0.2135  0.4929 -0.5330
23258SOL    HW275738   4.628   0.515   9.938  0.3676  0.4241  0.0881
23259SOL     OW75739   3.293  12.096  12.049  0.3146  0.0791  0.6622
23259SOL    HW175740   3.355  12.128  11.983 -0.9421 -1.6069 -1.4543
23259SOL    HW275741   3.316  12.004  12.061 -0.4648 -0.0314  1.4369
23260SOL     OW75742   1.278  11.490   7.871  0.0323 -0.1769  0.0526
23260SOL    HW175743   1.363  11.462   7.838  0.0915  1.3470 -1.2465
23260SOL    HW275744   1.220  11.415   7.859  1.2652 -1.3721  1.3489
23261SOL     OW75745   0.661   9.953   5.786  0.2378 -0.1994  0.1889
23261SOL    HW175746   0.682   9.873   5.737  0.3250 -0.5098  0.7238
23261SOL    HW275747   0.729   9.958   5.853  1.8855  1.8057 -1.5130
23262SOL     OW75748   1.411   5.268   1.406  0.8107  0.1582  0.1043
23262SOL    HW175749   1.353   5.322   1.352  1.0422 -0.5782 -0.9234
23262SOL    HW275750   1.454   5.329   1.465  0.9774  1.0918 -0.9528
23263SOL     OW75751   1.163  10.551   8.839 -0.4302  0.1463 -0.0352
23263SOL    HW175752   1.091  10.492   8.863 -0.9224  1.0190  0.6644
23263SOL    HW275753   1.135  10.590   8.756 -1.3743  1.4428  0.8625
23264SOL     OW75754   0.873  10.262   8.553 -0.2247 -0.4210 -0.3995
23264SOL    HW175755   0.844  10.341   8.598  0.2173 -0.1756 -0.5434
23264SOL    HW275756   0.948  10.231   8.603  0.1771 -0.2299 -0.8774
23265SOL     OW75757  11.509   1.498   6.790  0.2863 -0.5897  0.0530
23265SOL    HW175758  11.546   1.586   6.797  0.2598 -0.5181 -0.6361
23265SOL    HW275759  11.414   1.511   6.799  0.1480 -0.3507 -1.5302
23266SOL     OW75760   9.619   4.974   9.012  0.2281  0.1908 -0.0892
23266SOL    HW175761   9.712   4.970   8.989 -0.0989 -1.2394 -1.2840
23266SOL    HW275762   9.583   4.892   8.980 -1.2053  0.1332  1.5626
23267SOL     OW75763   5.157   6.613  10.436 -0.5218  0.2698 -0.1010
23267SOL    HW175764   5.086   6.677  10.442 -1.3699 -0.4352 -2.0281
23267SOL    HW275765   5.235   6.666  10.420 -0.5025  1.0627  2.1421
23268SOL     OW75766  10.803   2.122   2.960 -0.0979 -0.4170  0.4048
23268SOL    HW175767  10.860   2.164   2.896 -0.7341  0.9205  0.6764
23268SOL    HW275768  10.793   2.187   3.029 -2.1642 -0.5007  0.2314
23269SOL     OW75769   4.516  10.910   3.910  0.5485 -0.2453 -0.2645
23269SOL    HW175770   4.493  10.864   3.829 -0.6847 -1.0164  0.4984
23269SOL    HW275771   4.603  10.947   3.893 -0.8927  2.3358 -3.1347
23270SOL     OW75772  11.252   4.430   5.813 -0.4802  0.3735 -0.3836
23270SOL    HW175773  11.158   4.444   5.824 -0.2302  1.2249  0.7507
23270SOL    HW275774  11.271   4.351   5.864 -0.7299 -0.3313 -1.3638
23271SOL     OW75775   4.183   0.462  10.620 -0.0105 -0.3326  0.1853
23271SOL    HW175776   4.126   0.469  10.543  1.2211  1.3103 -0.6511
23271SOL    HW275777   4.194   0.552  10.651  1.3141 -0.7059  0.9112
23272SOL     OW75778   8.758   5.932   3.125  0.0425 -0.2772  0.5171
23272SOL    HW175779   8.766   5.943   3.030  1.4850  0.5352  0.7037
23272SOL    HW275780   8.741   6.020   3.158  1.7530 -0.1612  1.1837
23273SOL     OW75781  12.400   5.003   2.502  0.2338 -0.3972 -0.5920
23273SOL    HW175782  12.372   5.024   2.413 -0.6022  2.0092  0.1741
23273SOL    HW275783  12.494   5.023   2.503 -0.1915  1.8542 -0.3777
23274SOL     OW75784   0.205   0.386  10.346  0.3031  0.1138 -0.4904
23274SOL    HW175785   0.198   0.418  10.436  3.3654  0.1597 -0.1608
23274SOL    HW275786   0.224   0.293  10.356  1.2000  0.2308 -1.0543
23275SOL     OW75787   5.638   0.115   5.541  0.3753 -0.0196  0.0291
23275SOL    HW175788   5.712   0.175   5.529 -0.1644  1.1161  2.0352
23275SOL    HW275789   5.575   0.141   5.474  1.1290  0.0417 -0.6744
23276SOL     OW75790   3.818   3.216  11.238 -0.3651  0.3093  0.0962
23276SOL    HW175791   3.809   3.283  11.170 -3.3749 -0.1267 -0.0752
23276SOL    HW275792   3.785   3.136  11.197  0.1198 -0.5367  1.3097
23277SOL     OW75793   1.980   4.686   4.814 -0.0912  0.6550  0.2036
23277SOL    HW175794   1.893   4.646   4.821  0.6171 -1.0655 -0.3039
23277SOL    HW275795   2.003   4.675   4.721 -0.1222  2.8759 -0.1129
23278SOL     OW75796   2.423   6.894  10.670  0.0554  0.3816  0.4507
23278SOL    HW175797   2.361   6.946  10.617 -0.4249 -0.6578 -0.0381
23278SOL    HW275798   2.369   6.857  10.740  0.3602  0.3886  0.6905
23279SOL     OW75799   7.811   4.001   7.685  0.1275 -0.1082  0.4444
23279SOL    HW175800   7.802   4.065   7.615  1.0739 -1.3116 -0.8350
23279SOL    HW275801   7.859   3.928   7.645 -0.8028 -1.5659  1.8646
23280SOL     OW75802  12.427   2.091   6.426 -0.2874  0.2485  1.1363
23280SOL    HW175803  12.421   2.109   6.520  0.0563  0.9200  1.0385
23280SOL    HW275804  12.403   2.173   6.384 -2.1043 -0.5176  0.5835
23281SOL     OW75805   1.441   3.180   2.173  1.1074 -0.1155 -0.1121
23281SOL    HW175806   1.373   3.116   2.153  0.9840 -0.1028  0.2457
23281SOL    HW275807   1.413   3.260   2.129 -0.2348  0.5102  1.7193
23282SOL     OW75808   6.631   9.017  10.916  0.7666 -0.3465 -0.4432
23282SOL    HW175809   6.678   9.021  10.999  0.5617 -3.4595 -0.0637
23282SOL    HW275810   6.699   9.017  10.849  1.0575 -0.3269 -0.1475
23283SOL     OW75811   7.950  12.136  10.128 -0.2134 -0.5533 -0.0774
23283SOL    HW175812   7.966  12.196  10.056  1.2693 -0.9663 -0.1223
23283SOL    HW275813   7.876  12.083  10.099 -1.4671  1.1176 -0.0934
23284SOL     OW75814   8.160   5.996   2.472 -0.2043 -0.1938  0.0445
23284SOL    HW175815   8.109   6.009   2.552 -0.8066  0.6273 -0.4514
23284SOL    HW275816   8.101   6.021   2.402  1.5959  3.3952 -0.4491
23285SOL     OW75817   8.059  11.101   3.579  0.1563 -0.4182 -0.3559
23285SOL    HW175818   8.020  11.133   3.498 -0.2935  0.1051  0.0647
23285SOL    HW275819   8.063  11.177   3.636  1.7764 -0.4507 -0.3722
23286SOL     OW75820   8.200   8.119   0.943 -0.1186  0.1897 -0.3590
23286SOL    HW175821   8.264   8.105   1.013 -0.5137  2.4647  0.5419
23286SOL    HW275822   8.129   8.166   0.986 -1.3117 -0.1675 -1.8900
23287SOL     OW75823   2.154   6.536   6.682  0.3093  0.2605 -0.2185
23287SOL    HW175824   2.076   6.506   6.728 -1.0439  3.3753 -0.2755
23287SOL    HW275825   2.212   6.568   6.751  0.4265  0.3482 -0.3554
23288SOL     OW75826   4.923   8.200   9.718 -0.1795 -0.0579  0.1227
23288SOL    HW175827   5.017   8.189   9.699 -0.1434  2.2655 -1.3696
23288SOL    HW275828   4.921   8.239   9.805  0.2817  0.3117 -0.0237
23289SOL     OW75829   0.965  12.485   0.165  0.1861  0.1863  0.1149
23289SOL    HW175830   0.899  12.475   0.097 -0.5563 -0.5109  0.9147
23289SOL    HW275831   1.003  12.397   0.174  3.1824  1.0539 -2.2079
23290SOL     OW75832   9.587   9.352   6.627 -0.1736  0.2492  0.2925
23290SOL    HW175833   9.635   9.306   6.695  0.6934 -1.1883 -1.2317
23290SOL    HW275834   9.643   9.347   6.549 -3.0940 -2.4936 -1.9132
23291SOL     OW75835  11.608   8.979  11.930  0.2740  0.0050  0.1088
23291SOL    HW175836  11.558   9.040  11.876 -0.9540 -0.1595  1.0188
23291SOL    HW275837  11.646   8.917  11.867 -2.1440 -0.9455 -0.5266
23292SOL     OW75838   0.682   4.232  10.382  0.1279 -0.0461 -0.5469
23292SOL    HW175839   0.614   4.165  10.392 -0.7873  1.0885  1.2595
23292SOL    HW275840   0.686   4.248  10.288  0.5953 -2.8013 -1.1001
23293SOL     OW75841  11.460   1.271   2.878  0.2657 -0.3651  0.3953
23293SOL    HW175842  11.434   1.180   2.882  0.8168 -0.5556 -0.2315
23293SOL    HW275843  11.379   1.320   2.864 -0.0551 -0.7361  0.9373
23294SOL     OW75844  11.276   3.874   0.109 -0.1607 -0.4212  0.2045
23294SOL    HW175845  11.290   3.900   0.017  2.9748  0.1905  0.7609
23294SOL    HW275846  11.286   3.955   0.158  0.7166 -1.1592  1.2779
23295SOL     OW75847   5.496   4.635  10.648  0.0890  0.5210 -0.3300
23295SOL    HW175848   5.491   4.721  10.689  2.3568  0.9723 -0.8675
23295SOL    HW275849   5.516   4.575  10.720 -0.2234  0.6356 -0.1456
23296SOL     OW75850  11.402   7.389   2.415  0.2762 -0.4080 -0.2147
23296SOL    HW175851  11.437   7.478   2.426  0.8717 -0.6531 -0.0889
23296SOL    HW275852  11.319   7.390   2.462  0.7038 -0.1746  0.5551
23297SOL     OW75853   1.015   7.766   7.830  0.1219 -0.1097  0.6611
23297SOL    HW175854   0.956   7.694   7.806  1.6927 -1.1333 -0.3969
23297SOL    HW275855   0.985   7.840   7.777  0.6496 -1.0463 -1.0439
23298SOL     OW75856   0.413   7.876   9.711  0.4851  0.0475  0.7261
23298SOL    HW175857   0.408   7.950   9.649 -0.1189 -0.6600 -0.1002
23298SOL    HW275858   0.497   7.887   9.755  0.6786  0.8875  0.1784
23299SOL     OW75859   4.667   4.359   2.462  0.1206 -0.3871 -0.1495
23299SOL    HW175860   4.704   4.443   2.433 -2.1677  0.5482 -0.5115
23299SOL    HW275861   4.699   4.296   2.398  0.6381  0.4710 -0.7593
23300SOL     OW75862   4.959   9.192   8.577 -0.2531  0.3659  0.1189
23300SOL    HW175863   5.053   9.205   8.591  0.2513 -2.1599 -0.3192
23300SOL    HW275864   4.929   9.145   8.655 -0.7019 -0.5396 -0.5734
23301SOL     OW75865   9.616   5.418   0.039  0.4348  0.9171  0.1228
23301SOL    HW175866   9.585   5.499  -0.001  1.8903  1.4244 -0.0544
23301SOL    HW275867   9.677   5.381  -0.025 -0.8625 -0.8020 -0.1762
23302SOL     OW75868   7.656   7.986  11.311 -0.4745  0.5177  0.5736
23302SOL    HW175869   7.642   7.928  11.386 -0.0545 -2.9168 -1.7799
23302SOL    HW275870   7.568   8.016  11.288 -0.9254 -0.5131  0.9036
23303SOL     OW75871   2.601  12.014  10.354 -0.3123  0.5415 -0.4045
23303SOL    HW175872   2.674  11.966  10.316  0.0303  0.2049  0.6379
23303SOL    HW275873   2.548  11.947  10.397 -0.6238  0.9195 -0.1901
23304SOL     OW75874   7.372   6.930   3.368  0.0855 -0.3064 -0.8364
23304SOL    HW175875   7.336   6.872   3.301 -2.0155  1.6113 -1.4932
23304SOL    HW275876   7.381   7.015   3.324  0.5910  0.5245  0.7751
23305SOL     OW75877   6.396   4.059   7.459  0.5700 -0.1694 -0.0976
23305SOL    HW175878   6.416   3.966   7.453  0.5120 -0.1003 -2.2933
23305SOL    HW275879   6.345   4.078   7.381 -1.3584  1.2916  1.4188
23306SOL     OW75880  11.241   8.210   5.802  0.2766  0.5239 -0.0351
23306SOL    HW175881  11.256   8.131   5.853 -1.3577 -0.1490 -0.5215
23306SOL    HW275882  11.197   8.179   5.723  0.1807  1.8509 -0.5230
23307SOL     OW75883   4.188   4.178   0.529  0.2546 -0.1607 -0.0099
23307SOL    HW175884   4.142   4.244   0.476 -0.9949 -0.6748  0.4031
23307SOL    HW275885   4.139   4.175   0.611 -0.3592 -2.2969 -0.3797
23308SOL     OW75886   8.992  12.483   0.585  0.3040 -0.7550  0.2064
23308SOL    HW175887   8.998  12.463   0.491  0.7912 -0.1375  0.0992
23308SOL    HW275888   8.902  12.461   0.609  0.0851 -0.6259 -0.4752
23309SOL     OW75889   3.330   5.490   8.050  0.6637 -0.4113 -0.1915
23309SOL    HW175890   3.408   5.536   8.082  0.6704 -0.4753 -0.1160
23309SOL    HW275891   3.354   5.460   7.962  0.2651  0.7287 -0.7204
23310SOL     OW75892   7.153   1.635   6.860 -0.6251 -0.0409 -0.2244
23310SOL    HW175893   7.177   1.657   6.950  0.1349 -1.0859 -0.1591
23310SOL    HW275894   7.060   1.657   6.855 -0.5420  0.5820  0.6325
23311SOL     OW75895   6.358   2.414   0.015  0.6732 -0.1008 -0.1977
23311SOL    HW175896   6.299   2.343  -0.010  2.7350 -1.5736 -1.1304
23311SOL    HW275897   6.299   2.484   0.045 -1.5220 -1.4257 -1.1503
23312SOL     OW75898   0.165   6.123   6.616 -0.6448 -0.1649 -0.4472
23312SOL    HW175899   0.227   6.051   6.605 -1.4777 -1.0343  0.4267
23312SOL    HW275900   0.113   6.100   6.693 -0.0259  2.0369  0.7419
23313SOL     OW75901   9.531   7.898   7.092  0.6647  0.3716 -0.0967
23313SOL    HW175902   9.537   7.890   7.187 -1.0826 -2.0274 -0.0989
23313SOL    HW275903   9.553   7.811   7.059 -0.7987  0.5844 -1.7444
23314SOL     OW75904   4.456   1.192  11.584  0.3732 -0.0119 -0.0210
23314SOL    HW175905   4.433   1.134  11.511  2.9652  0.3727 -1.2811
23314SOL    HW275906   4.480   1.133  11.655  2.4940 -0.5736 -1.1219
23315SOL     OW75907   5.258  12.075   0.372 -0.7112  0.0541  0.2731
23315SOL    HW175908   5.345  12.076   0.331 -0.0104 -3.0647  1.3703
23315SOL    HW275909   5.267  12.132   0.448 -0.0552  0.7911 -0.3318
23316SOL     OW75910   0.554  11.830  12.139  0.0372 -0.4234 -0.0021
23316SOL    HW175911   0.642  11.842  12.102  0.3839 -0.3314  0.8341
23316SOL    HW275912   0.562  11.860  12.229 -0.6670 -1.1218  0.2975
23317SOL     OW75913   6.842   4.276   0.941  0.2366 -0.3034 -0.1947
23317SOL    HW175914   6.856   4.358   0.988  0.4126  0.0644 -0.8789
23317SOL    HW275915   6.841   4.301   0.848  1.2756 -1.2017 -0.4682
23318SOL     OW75916   3.671  10.570   9.252 -0.5234 -0.3325  0.5770
23318SOL    HW175917   3.702  10.599   9.167  2.1596  0.2856  1.6756
23318SOL    HW275918   3.664  10.651   9.303 -2.2477 -0.6768  0.9523
23319SOL     OW75919  10.386   5.976   5.313 -0.3930  0.5082  0.3088
23319SOL    HW175920  10.456   6.028   5.273  2.8620 -1.1978  3.1718
23319SOL    HW275921  10.426   5.891   5.329 -4.4039 -1.9191 -1.1132
23320SOL     OW75922  11.887  10.271   1.160 -0.2064 -0.1454 -0.0943
23320SOL    HW175923  11.978  10.247   1.173 -0.0378 -0.0662 -1.0645
23320SOL    HW275924  11.889  10.337   1.092 -0.8361  1.2502  1.1905
23321SOL     OW75925   0.593   3.898   6.323 -0.4175 -0.2049  0.3381
23321SOL    HW175926   0.552   3.823   6.281 -1.8325  0.1542  1.0096
23321SOL    HW275927   0.560   3.897   6.413 -0.6171  1.3002  0.3150
23322SOL     OW75928   5.919   2.260   0.845  0.6752 -0.2972  0.5170
23322SOL    HW175929   5.969   2.340   0.861  0.1761  0.4508 -1.4743
23322SOL    HW275930   5.955   2.225   0.763 -1.0537 -0.5333 -0.1671
23323SOL     OW75931   1.265   6.020   3.449  0.6063  0.1548 -0.4123
23323SOL    HW175932   1.315   6.101   3.455  0.0692  0.4778 -0.1668
23323SOL    HW275933   1.204   6.024   3.523 -0.6497  0.3812 -1.4081
23324SOL     OW75934  11.854   5.143   8.071  0.4856 -0.2356  0.1624
23324SOL    HW175935  11.904   5.095   8.005 -1.4051 -0.8775 -0.8634
23324SOL    HW275936  11.813   5.075   8.124 -3.1055  0.0161 -1.9576
23325SOL     OW75937   6.366   9.820   8.283  0.3908 -0.2111 -0.3326
23325SOL    HW175938   6.363   9.909   8.248  0.4894 -0.2174 -0.3573
23325SOL    HW275939   6.342   9.765   8.209  1.4075 -0.2852 -0.6155
23326SOL     OW75940   7.147  10.107  10.872  0.0691  0.5961 -0.4481
23326SOL    HW175941   7.068  10.139  10.916 -0.1526 -0.9290  0.3679
23326SOL    HW275942   7.218  10.127  10.933 -0.2248 -1.4203  0.6606
23327SOL     OW75943   9.017   5.877   1.936 -0.6033  0.2052 -0.1499
23327SOL    HW175944   9.086   5.881   2.002  0.6924  0.0462 -1.4527
23327SOL    HW275945   9.036   5.798   1.886 -2.2744 -0.3383 -0.0020
23328SOL     OW75946   1.846  11.402   2.851  0.7455  0.3810  0.1102
23328SOL    HW175947   1.912  11.471   2.857  1.1975  0.1044 -1.2925
23328SOL    HW275948   1.790  11.416   2.927  1.7600  1.3094  0.7185
23329SOL     OW75949  12.482   4.608  12.491 -0.0178 -0.1139  0.5546
23329SOL    HW175950  12.503   4.701  12.493 -0.7164  0.1091 -1.0928
23329SOL    HW275951  12.563   4.565  12.518  0.6685  0.9393  0.2365
23330SOL     OW75952   9.336  10.410  10.534  0.5586  0.5742  0.0663
23330SOL    HW175953   9.406  10.411  10.599  0.5047  1.1912  0.1131
23330SOL    HW275954   9.302  10.320  10.537  0.9992  0.4188  0.4119
23331SOL     OW75955   2.480   8.124  10.433  0.0692  0.5251  0.6956
23331SOL    HW175956   2.560   8.170  10.459  0.3450 -1.1914  3.3067
23331SOL    HW275957   2.451   8.080  10.513 -1.3580 -2.0147 -1.0704
23332SOL     OW75958  11.691   1.262   9.902 -0.1148 -0.0593 -0.1224
23332SOL    HW175959  11.765   1.202   9.916 -1.4893 -1.9466 -0.5773
23332SOL    HW275960  11.703   1.293   9.812 -0.3051 -1.0162 -0.4896
23333SOL     OW75961  11.473   8.271   6.453  0.5341 -0.1432 -0.4487
23333SOL    HW175962  11.523   8.258   6.372  0.9888 -0.7198 -0.0840
23333SOL    HW275963  11.518   8.344   6.497  0.2112  0.2525 -0.7706
23334SOL     OW75964   5.611  12.403   0.467  0.5464  0.0630 -0.1999
23334SOL    HW175965   5.682  12.449   0.421 -0.1426 -1.2197 -2.7156
23334SOL    HW275966   5.597  12.323   0.416 -1.3534 -0.6993  1.3953
23335SOL     OW75967   1.435   2.003   8.884  0.0195 -0.1328 -0.1461
23335SOL    HW175968   1.345   1.976   8.868  0.7659 -1.0808 -3.5896
23335SOL    HW275969   1.460   1.957   8.964 -2.2989 -0.3909  0.5033
23336SOL     OW75970   2.781   5.563  12.122 -0.1974  0.7032  0.2756
23336SOL    HW175971   2.736   5.501  12.066  0.8954 -0.7534  0.9500
23336SOL    HW275972   2.846   5.605  12.066  1.6374 -1.5292  0.6144
23337SOL     OW75973   7.259   6.333   3.784  0.3821 -0.1348  0.0699
23337SOL    HW175974   7.258   6.251   3.832  0.0900 -1.8474 -2.6823
23337SOL    HW275975   7.167   6.351   3.764  0.4508  0.8268  0.5482
23338SOL     OW75976   4.316  10.438   3.302 -0.0192  0.1726  0.2261
23338SOL    HW175977   4.234  10.397   3.275  0.3910  0.0354 -0.8630
23338SOL    HW275978   4.383  10.392   3.252  0.9888 -1.2695  2.7680
23339SOL     OW75979  10.473   6.875   3.329  0.0775  0.1759  0.0908
23339SOL    HW175980  10.501   6.829   3.408 -1.9273  0.4656  1.0234
23339SOL    HW275981  10.554   6.912   3.293  1.1559 -0.7164  1.4966
23340SOL     OW75982   9.785   2.382   2.234  0.0351  0.0527 -0.1194
23340SOL    HW175983   9.828   2.459   2.195 -1.0840  0.5089 -0.4865
23340SOL    HW275984   9.829   2.307   2.193  2.5253  0.4088  1.7103
23341SOL     OW75985   3.613   8.514  11.145 -0.2093  0.3188 -0.0087
23341SOL    HW175986   3.603   8.609  11.138 -1.3153  0.3671  1.5724
23341SOL    HW275987   3.533   8.479  11.106 -0.2903  0.0873  0.3641
23342SOL     OW75988  11.101   1.931   8.459 -0.2786  0.0320  0.1638
23342SOL    HW175989  11.102   1.837   8.438  0.5333 -0.0539  0.5360
23342SOL    HW275990  11.021   1.943   8.511 -0.5231 -0.4013 -0.1029
23343SOL     OW75991  10.091   1.659   9.081  0.0177  0.3975  0.0531
23343SOL    HW175992   9.999   1.642   9.099 -0.1854  0.6271 -0.7470
23343SOL    HW275993  10.138   1.595   9.135 -0.6511 -0.8183 -0.7574
23344SOL     OW75994   1.837   0.465   9.913 -0.1625 -0.6760  0.5219
23344SOL    HW175995   1.781   0.543   9.919  0.1489 -0.3649 -0.4503
23344SOL    HW275996   1.782   0.400   9.869  0.9423  0.3843 -2.7020
23345SOL     OW75997   8.989   0.217   2.013 -0.2312  0.3251  0.0322
23345SOL    HW175998   9.052   0.289   2.013  0.4205 -0.2257  0.3909
23345SOL    HW275999   8.926   0.240   2.082 -0.5402  0.9752 -0.4613
23346SOL     OW76000   2.332   6.416   1.756 -0.1570 -0.1888  0.0578
23346SOL    HW176001   2.426   6.406   1.769 -0.1452 -0.5652 -0.2991
23346SOL    HW276002   2.310   6.354   1.686 -0.5545  0.3680 -0.3247
23347SOL     OW76003   7.303   4.904   1.434  0.0193 -0.2229 -0.0191
23347SOL    HW176004   7.215   4.901   1.471 -0.0191  0.7269 -0.0090
23347SOL    HW276005   7.352   4.839   1.485 -0.5048 -0.2839  0.4219
23348SOL     OW76006   0.712   4.042   2.354  0.1232 -0.3004  0.2198
23348SOL    HW176007   0.690   4.135   2.362  0.7695 -0.0933 -0.2999
23348SOL    HW276008   0.735   4.031   2.262 -0.5867 -1.1297  0.1293
23349SOL     OW76009   3.043   3.237  10.230  0.3636 -0.1049 -0.0647
23349SOL    HW176010   2.990   3.308  10.194  2.0941  1.5134  0.3904
23349SOL    HW276011   3.116   3.228  10.169  1.5763  0.3977  1.2395
23350SOL     OW76012   8.465  11.979   0.197 -0.1734 -0.0444  0.1525
23350SOL    HW176013   8.379  12.015   0.221  0.1295 -0.1893  1.5783
23350SOL    HW276014   8.476  11.905   0.257  0.0189 -1.3881 -1.4857
23351SOL     OW76015  10.130   1.612   6.603 -0.2608 -0.4008 -0.4443
23351SOL    HW176016  10.201   1.564   6.646 -1.4129 -1.3945  0.4030
23351SOL    HW276017  10.096   1.551   6.537 -1.6657 -0.7762  0.5704
23352SOL     OW76018   0.524   9.856   3.034 -0.1703  0.1868 -0.2391
23352SOL    HW176019   0.458   9.922   3.054 -1.2267 -1.1604  0.9927
23352SOL    HW276020   0.483   9.800   2.968  0.7137  0.7303 -1.2783
23353SOL     OW76021  10.988   1.374   0.271 -0.3848 -0.3924  0.1691
23353SOL    HW176022  10.896   1.386   0.251 -0.6057 -1.3691  0.5453
23353SOL    HW276023  11.034   1.434   0.212 -1.2763  0.4650  0.3244
23354SOL     OW76024   6.148   1.390  11.359  0.3573 -0.6541 -0.5802
23354SOL    HW176025   6.083   1.361  11.423 -0.3888 -3.1768 -2.3442
23354SOL    HW276026   6.190   1.465  11.401 -2.2488 -0.1836  1.5090
23355SOL     OW76027   8.263   3.889   6.903 -0.2958 -0.1161 -0.2358
23355SOL    HW176028   8.201   3.951   6.866  1.2042  0.6170 -1.6644
23355SOL    HW276029   8.254   3.899   6.997 -0.1803  2.2172 -0.4228
23356SOL     OW76030   1.552   1.516   0.942  0.0888 -0.3676 -0.2351
23356SOL    HW176031   1.477   1.529   0.999 -1.2986  1.7926 -2.3371
23356SOL    HW276032   1.628   1.529   0.999 -1.1009 -1.6612  1.7493
23357SOL     OW76033   5.565   4.990   2.257 -0.2939 -0.0059 -0.1863
23357SOL    HW176034   5.554   4.966   2.165 -0.3916 -0.8700  0.0478
23357SOL    HW276035   5.618   5.070   2.254  1.0881 -0.9054 -0.9393
23358SOL     OW76036   1.366   7.221   6.458 -0.7093  0.0414  0.0853
23358SOL    HW176037   1.362   7.125   6.461  1.2557 -0.1318 -1.2273
23358SOL    HW276038   1.393   7.246   6.546  0.8545 -0.7864 -0.1329
23359SOL     OW76039   6.077   2.813   9.830  0.4709 -0.7590 -0.7682
23359SOL    HW176040   6.171   2.815   9.847  0.3434 -0.8191 -0.0259
23359SOL    HW276041   6.038   2.785   9.913 -0.2784  0.2126 -0.7776
23360SOL     OW76042   9.156   9.573   7.540 -0.5073 -0.6404 -0.3583
23360SOL    HW176043   9.205   9.516   7.480 -0.2789 -1.1320  0.2844
23360SOL    HW276044   9.070   9.532   7.546 -0.6246 -0.4249 -0.5830
23361SOL     OW76045   3.750   2.073   9.193  0.3987 -0.1524 -0.6158
23361SOL    HW176046   3.684   2.059   9.260  1.3378  0.0529  0.3744
23361SOL    HW276047   3.713   2.034   9.114 -1.8557  1.8104 -0.6510
23362SOL     OW76048   6.725   1.909   2.515 -0.0601 -0.0518 -0.1192
23362SOL    HW176049   6.647   1.856   2.532 -0.0018  0.2015  0.9667
23362SOL    HW276050   6.696   1.999   2.526  0.5436  0.0162  0.9773
23363SOL     OW76051  10.316   1.494   1.550  0.1479 -0.4787  0.1684
23363SOL    HW176052  10.361   1.561   1.499  2.4829 -0.9649  1.4382
23363SOL    HW276053  10.302   1.422   1.489 -1.5113  0.7187 -0.9569
23364SOL     OW76054   8.947  11.664   3.046  0.0962 -0.3163 -0.0772
23364SOL    HW176055   8.919  11.574   3.067 -0.7149  0.1935  1.1216
23364SOL    HW276056   8.886  11.692   2.977  0.7838 -0.9098 -0.9420
23365SOL     OW76057  10.257   9.366   2.450 -0.4587  0.4536  0.2605
23365SOL    HW176058  10.326   9.309   2.415 -0.2117  0.4043  0.8182
23365SOL    HW276059  10.237   9.329   2.536 -1.0104  0.6173  0.2062
23366SOL     OW76060   7.305  11.331   0.255  0.2113 -0.0645 -0.2794
23366SOL    HW176061   7.237  11.277   0.295  0.2044 -0.3699 -0.6941
23366SOL    HW276062   7.280  11.335   0.162 -0.4867  1.6641 -0.0710
23367SOL     OW76063   1.981   4.613   0.745 -0.0751 -0.1527  0.3043
23367SOL    HW176064   1.908   4.571   0.699  0.4178 -0.7695  0.0635
23367SOL    HW276065   2.039   4.643   0.675  0.0603  0.0486  0.5017
23368SOL     OW76066   6.664   0.663   7.455 -0.0028 -0.1552  0.1721
23368SOL    HW176067   6.737   0.662   7.517  1.1996 -1.0096 -1.1961
23368SOL    HW276068   6.639   0.755   7.449  1.1608  0.1967  0.4491
23369SOL     OW76069   5.717  12.074   0.459 -0.4786  0.0300 -0.4779
23369SOL    HW176070   5.697  11.988   0.423  4.3395 -1.8696  0.6296
23369SOL    HW276071   5.727  12.130   0.382  2.1128 -2.0550 -1.8372
23370SOL     OW76072   8.939   7.381   5.020 -0.2003 -0.0032 -0.2256
23370SOL    HW176073   8.889   7.307   5.055  0.4586 -0.3110  0.0865
23370SOL    HW276074   8.879   7.424   4.959 -1.6948  1.0294  1.8111
23371SOL     OW76075   2.147   3.563  10.183  0.2117  0.2978 -0.0410
23371SOL    HW176076   2.183   3.506  10.114  2.8704 -0.7052  2.0042
23371SOL    HW276077   2.223   3.609  10.218 -1.1677  1.2818  1.8031
23372SOL     OW76078   7.860   7.004   6.513 -0.0827  0.7253 -0.2051
23372SOL    HW176079   7.946   7.018   6.552  0.3092 -3.2362  0.8130
23372SOL    HW276080   7.801   7.057   6.566  1.5526  3.0563 -0.5462
23373SOL     OW76081   5.847   9.389  11.883 -0.0765 -0.0462 -0.3117
23373SOL    HW176082   5.887   9.392  11.970  1.2514 -0.1755 -0.8839
23373SOL    HW276083   5.757   9.360  11.898  0.6406 -1.8371  0.8766
23374SOL     OW76084  10.625   5.148   9.478  0.0651 -0.6562  0.7001
23374SOL    HW176085  10.675   5.175   9.402 -0.8112 -1.9349 -0.3918
23374SOL    HW276086  10.689   5.143   9.549  0.9183  0.4468  0.0356
23375SOL     OW76087  11.363   2.868  11.176  0.1394  0.2954 -0.6202
23375SOL    HW176088  11.307   2.945  11.182 -0.1996  0.2424 -2.4256
23375SOL    HW276089  11.316   2.800  11.224 -0.1303  0.8946 -0.0161
23376SOL     OW76090   9.483   9.629   9.538  0.2276  0.1839 -0.7318
23376SOL    HW176091   9.481   9.551   9.594 -1.4132  1.2670  0.8223
23376SOL    HW276092   9.470   9.595   9.450  3.8190 -1.6786 -0.7281
23377SOL     OW76093   0.251   7.151   0.209 -0.3172 -0.0558  0.3692
23377SOL    HW176094   0.265   7.227   0.153 -0.0998 -0.7223 -0.5066
23377SOL    HW276095   0.331   7.146   0.262  0.1136 -0.2613 -0.2860
23378SOL     OW76096  11.600  11.694   6.489  1.2048 -0.0235 -0.3590
23378SOL    HW176097  11.561  11.782   6.496 -0.8888 -0.6641 -2.6111
23378SOL    HW276098  11.610  11.666   6.579 -1.8230  1.0413  0.4521
23379SOL     OW76099   6.396   2.423   9.374 -0.3235 -0.6167  0.2996
23379SOL    HW176100   6.319   2.375   9.345 -0.5158  0.8223 -1.8220
23379SOL    HW276101   6.463   2.404   9.308 -0.0865  1.0744 -0.0159
23380SOL     OW76102   5.973  11.307  12.427  0.0806  0.2758  0.1864
23380SOL    HW176103   5.966  11.369  12.354  0.2870 -0.0630 -0.1211
23380SOL    HW276104   6.066  11.306  12.449  0.1381 -0.2156 -0.0647
23381SOL     OW76105   7.678   7.464   4.666  0.3021 -0.2826 -0.3863
23381SOL    HW176106   7.665   7.387   4.721 -1.1873  0.7818  0.8443
23381SOL    HW276107   7.590   7.492   4.642  0.6222  2.1424  0.8540
23382SOL     OW76108  11.133   3.397   6.693  0.2520 -0.2101  0.3360
23382SOL    HW176109  11.122   3.491   6.677  0.5174  0.0289  1.4353
23382SOL    HW276110  11.105   3.355   6.612  0.9524  0.8576 -0.4841
23383SOL     OW76111   8.695   7.571   6.703 -0.0176  0.0916  0.0410
23383SOL    HW176112   8.634   7.643   6.721 -0.9002 -0.6451  0.0298
23383SOL    HW276113   8.760   7.577   6.773 -0.2564  0.7084  0.2202
23384SOL     OW76114   3.997  11.872   5.787  0.3718 -0.0697 -0.2516
23384SOL    HW176115   3.968  11.921   5.864 -2.1751 -1.9057  0.0551
23384SOL    HW276116   3.944  11.907   5.715  1.5667  0.4941 -0.8902
23385SOL     OW76117  11.813   8.129   2.786  0.0189  0.0734 -0.0536
23385SOL    HW176118  11.731   8.169   2.814  0.5578  0.6347  0.7452
23385SOL    HW276119  11.871   8.202   2.768 -0.0013 -0.2919 -1.7686
23386SOL     OW76120   4.455   2.345  10.250  0.0623  0.4219  0.3020
23386SOL    HW176121   4.479   2.326  10.341 -0.5695 -2.5462 -0.0529
23386SOL    HW276122   4.512   2.418  10.226  3.2525 -1.2820  1.8741
23387SOL     OW76123   8.281   6.547   1.876 -0.2757  0.1857 -0.1405
23387SOL    HW176124   8.306   6.638   1.861  1.1576 -0.1812 -0.2018
23387SOL    HW276125   8.250   6.544   1.966  2.3230  0.2724  0.8535
23388SOL     OW76126   7.540   2.852   7.778 -0.3713  1.1550  0.7771
23388SOL    HW176127   7.581   2.820   7.858 -0.6024 -0.4621  0.2759
23388SOL    HW276128   7.595   2.926   7.751  1.2704  0.0906  1.0240
23389SOL     OW76129  10.984   3.623  11.737  0.2163 -0.6078 -0.2111
23389SOL    HW176130  11.019   3.631  11.826 -0.2976 -0.5601 -0.0117
23389SOL    HW276131  10.896   3.660  11.742  0.7560  0.8755 -1.1042
23390SOL     OW76132   2.516  10.525   4.570 -0.7778 -1.0741 -0.2163
23390SOL    HW176133   2.488  10.616   4.559 -0.5710 -0.8703  0.8594
23390SOL    HW276134   2.546  10.520   4.661 -0.5546 -2.1560 -0.3401
23391SOL     OW76135  11.764   3.220   0.744 -0.2902  0.1717 -0.0696
23391SOL    HW176136  11.783   3.312   0.758  1.1165 -0.0952 -0.1381
23391SOL    HW276137  11.694   3.200   0.807  0.6294  0.8523  1.2060
23392SOL     OW76138  10.193  12.306   8.108 -0.3308  0.3222  0.2317
23392SOL    HW176139  10.234  12.340   8.029 -0.5803  0.3798  0.1258
23392SOL    HW276140  10.130  12.241   8.077 -0.9513  0.8685  0.3293
23393SOL     OW76141   9.491  11.379   8.515  0.1251  0.4627  0.0961
23393SOL    HW176142   9.479  11.340   8.602 -0.0451  0.1513 -0.0658
23393SOL    HW276143   9.470  11.308   8.454  2.0704  0.0782 -0.2024
23394SOL     OW76144   6.507   5.059   2.696  0.3106 -0.6783 -0.1338
23394SOL    HW176145   6.548   5.139   2.661 -1.6327  0.4156 -0.0306
23394SOL    HW276146   6.498   5.076   2.790 -0.8826 -0.6438 -0.2431
23395SOL     OW76147   5.066   8.444   6.001  0.3777 -0.1744  0.1418
23395SOL    HW176148   5.080   8.450   6.096  0.4965 -0.2320  0.1292
23395SOL    HW276149   5.139   8.494   5.963 -0.2606  0.7502  0.1050
23396SOL     OW76150   9.159   9.325  12.068 -0.2601 -0.4734 -0.1425
23396SOL    HW176151   9.068   9.351  12.083 -0.0699  0.9860 -1.2349
23396SOL    HW276152   9.154   9.247  12.013 -0.8438 -0.7970  0.3613
23397SOL     OW76153   4.432   9.654  12.004  0.0017 -0.1952 -0.3308
23397SOL    HW176154   4.527   9.648  12.011 -0.0314  0.3889  0.8363
23397SOL    HW276155   4.417   9.719  11.935  0.4917  0.9751  0.6112
23398SOL     OW76156   9.262   1.804   4.804  0.0613  0.3483  0.1484
23398SOL    HW176157   9.182   1.786   4.853 -0.3277 -1.9294 -1.1762
23398SOL    HW276158   9.307   1.871   4.855 -2.0630  0.7682  1.5996
23399SOL     OW76159  10.337   6.840   9.839  0.0406 -0.2068  0.4766
23399SOL    HW176160  10.331   6.768   9.777 -1.9470  0.8858 -0.7058
23399SOL    HW276161  10.249   6.846   9.877  0.4962  0.8371  1.4473
23400SOL     OW76162   7.162   6.285  11.082  0.0897 -0.0606 -0.0703
23400SOL    HW176163   7.231   6.300  11.018  1.3260  1.1304  1.4554
23400SOL    HW276164   7.185   6.341  11.156 -0.7822 -1.9866  1.7846
23401SOL     OW76165   1.848   2.977   7.589 -0.1493 -0.6757  0.2714
23401SOL    HW176166   1.809   2.981   7.676  0.1523 -1.9082  0.4869
23401SOL    HW276167   1.833   3.064   7.552 -1.3439 -0.5081  1.0898
23402SOL     OW76168   1.559  10.084  12.119 -0.3389 -0.0904 -0.3112
23402SOL    HW176169   1.488  10.026  12.143 -1.4897  1.1861 -0.5052
23402SOL    HW276170   1.633  10.026  12.100 -0.9008 -1.3663  1.2285
23403SOL     OW76171   3.125  11.695  11.392 -0.0786  0.2740 -0.0810
23403SOL    HW176172   3.103  11.639  11.317  2.0488 -2.0779  0.8946
23403SOL    HW276173   3.066  11.667  11.462 -0.0955  0.3865 -0.0502
23404SOL     OW76174   5.673  10.985   2.812 -0.0892  0.1996 -0.0085
23404SOL    HW176175   5.615  10.938   2.872 -0.3592  0.7748  0.1889
23404SOL    HW276176   5.732  10.918   2.778 -1.0259 -0.4392 -0.4022
23405SOL     OW76177   8.421   0.668   8.130 -0.1853 -0.3905  0.1940
23405SOL    HW176178   8.460   0.608   8.067 -0.8814 -0.5095 -0.1379
23405SOL    HW276179   8.421   0.752   8.085  0.4548 -0.2152  0.5176
23406SOL     OW76180  11.664  12.157  10.228 -0.2787  0.0766  0.0409
23406SOL    HW176181  11.625  12.073  10.253  0.1663 -0.5327 -1.2653
23406SOL    HW276182  11.753  12.154  10.264  0.6403 -1.1342 -2.1216
23407SOL     OW76183  12.310   3.393   2.347 -0.1986  0.1477  0.2640
23407SOL    HW176184  12.314   3.337   2.425  1.7663  1.0689  0.8890
23407SOL    HW276185  12.387   3.368   2.295 -2.0000 -1.1633 -1.9630
23408SOL     OW76186   1.083   4.158   9.122  0.2205 -0.4610  0.0293
23408SOL    HW176187   1.122   4.070   9.121  1.3140  0.0036  0.2843
23408SOL    HW276188   1.158   4.217   9.124 -0.5111  0.4595  1.6664
23409SOL     OW76189   8.198   0.286   3.995 -0.1841 -0.2266  0.5526
23409SOL    HW176190   8.169   0.360   3.940  0.5734 -0.6236 -0.4228
23409SOL    HW276191   8.168   0.308   4.083 -1.8957  0.1898 -0.1035
23410SOL     OW76192   4.933   4.948   3.094 -0.3991  0.2911 -0.4807
23410SOL    HW176193   5.002   5.005   3.128 -0.1678 -1.0309  1.4855
23410SOL    HW276194   4.852   4.981   3.133 -0.9675  1.8258 -2.7679
23411SOL     OW76195   6.849   0.655   9.102 -0.1752  0.2733  0.2786
23411SOL    HW176196   6.934   0.694   9.120 -0.7402  1.1071  1.2026
23411SOL    HW276197   6.830   0.678   9.011  0.8479 -0.4527 -0.1397
23412SOL     OW76198  11.345  11.180   3.355 -0.3841 -0.1394 -0.3429
23412SOL    HW176199  11.267  11.227   3.327 -0.5087 -0.7155 -0.9868
23412SOL    HW276200  11.391  11.159   3.274  2.9459  4.2461  0.0142
23413SOL     OW76201   3.851   6.019   0.982 -0.4822  0.0503  0.0788
23413SOL    HW176202   3.835   6.010   1.076  1.5197 -1.6229  0.3240
23413SOL    HW276203   3.938   5.982   0.968 -0.6748  0.3488 -2.4361
23414SOL     OW76204  10.474   8.388   3.101  0.7855 -0.0432  0.0143
23414SOL    HW176205  10.484   8.443   3.024  0.8049 -0.9454 -0.6449
23414SOL    HW276206  10.419   8.316   3.072 -0.8241  0.5891  1.3799
23415SOL     OW76207   1.905   8.966   7.541  0.7120  0.1586  0.2896
23415SOL    HW176208   1.960   8.978   7.619  0.1064  0.2147  0.7169
23415SOL    HW276209   1.823   8.931   7.576  1.2382 -2.0602 -0.5569
23416SOL     OW76210   4.967   8.265   3.849  0.1305 -0.0030  0.1395
23416SOL    HW176211   4.919   8.280   3.930  0.2921 -0.0677  0.2485
23416SOL    HW276212   5.056   8.296   3.868 -0.2446  1.6215 -0.5701
23417SOL     OW76213   4.425  10.742  10.121 -0.0924 -0.1630  0.1722
23417SOL    HW176214   4.505  10.764  10.072 -0.1932 -1.0034 -0.3900
23417SOL    HW276215   4.373  10.822  10.119  0.4932  0.2175  0.0533
23418SOL     OW76216   1.214  12.095   7.025  0.4726 -0.0955  0.6226
23418SOL    HW176217   1.194  12.144   7.105  0.3834 -0.2795  0.7120
23418SOL    HW276218   1.199  12.157   6.954  0.9072  0.1824  0.7687
23419SOL     OW76219   8.629  10.828   8.297 -0.0906  0.3811 -0.6318
23419SOL    HW176220   8.593  10.756   8.245  1.4644 -0.2375 -0.9135
23419SOL    HW276221   8.704  10.789   8.342 -0.7440  1.1933  1.2386
23420SOL     OW76222   8.326   5.660   3.159  0.1801  0.2690 -0.1531
23420SOL    HW176223   8.298   5.576   3.123  0.0763  0.2953 -0.1322
23420SOL    HW276224   8.412   5.675   3.120  0.4125 -0.0819  0.2105
23421SOL     OW76225   8.126   3.682  12.460 -0.0846  0.1916  0.5735
23421SOL    HW176226   8.189   3.744  12.423 -0.0222 -1.5180 -2.5397
23421SOL    HW276227   8.042   3.709  12.425 -0.0111 -1.5248 -1.1290
23422SOL     OW76228  11.753   7.002   2.671 -0.6968  0.0952 -0.4851
23422SOL    HW176229  11.676   7.051   2.701  0.3379  0.8525  1.0786
23422SOL    HW276230  11.825   7.065   2.675 -0.1627 -0.2262 -3.1782
23423SOL     OW76231   9.113   9.271   5.390 -0.2404 -0.3500  0.0887
23423SOL    HW176232   9.149   9.309   5.470 -2.3066  0.7077  0.5961
23423SOL    HW276233   9.177   9.291   5.322  0.7718  0.1863  1.1761
23424SOL     OW76234   0.143  11.872   3.574  0.4021 -0.2031  0.4729
23424SOL    HW176235   0.089  11.927   3.630 -1.2541 -2.1345  0.8937
23424SOL    HW276236   0.181  11.932   3.510 -1.4575  1.3965  0.7960
23425SOL     OW76237  12.309   7.270   3.988 -0.1016  0.2004 -0.1380
23425SOL    HW176238  12.302   7.348   4.042  0.8684 -0.4198  0.9259
23425SOL    HW276239  12.361   7.209   4.041 -1.2668 -1.3524 -0.7124
23426SOL     OW76240  11.926   0.532   9.595  0.2772 -0.3426 -0.9341
23426SOL    HW176241  11.939   0.491   9.680 -0.2525  0.8295 -0.2618
23426SOL    HW276242  11.831   0.543   9.587  0.1536 -2.0485 -2.4854
23427SOL     OW76243   7.521   8.310   1.808 -0.1928  0.2692 -0.4671
23427SOL    HW176244   7.530   8.383   1.747 -0.1064  2.0176  1.5383
23427SOL    HW276245   7.593   8.251   1.784 -1.1223  0.0405 -3.0645
23428SOL     OW76246   0.600  11.822  11.636  0.2527 -0.4001  0.1393
23428SOL    HW176247   0.569  11.739  11.601 -0.2201  0.4790 -1.6015
23428SOL    HW276248   0.611  11.879  11.560  0.5318  1.1608  1.2808
23429SOL     OW76249   8.827   8.028   5.453 -0.1868 -0.4782  0.2474
23429SOL    HW176250   8.786   7.949   5.488  0.8999 -1.5330 -0.7478
23429SOL    HW276251   8.847   8.081   5.530  1.3333 -2.3079  1.1953
23430SOL     OW76252   6.371   6.349   3.764 -0.0049 -0.2192  0.4599
23430SOL    HW176253   6.362   6.387   3.676  0.1790  1.0902  0.9913
23430SOL    HW276254   6.293   6.379   3.811  0.2646 -0.2982  0.9647
23431SOL     OW76255   1.493   6.237   4.385 -0.4844  0.1525 -0.4740
23431SOL    HW176256   1.543   6.155   4.395  1.8043  1.5207  0.0339
23431SOL    HW276257   1.414   6.224   4.437  1.0342 -0.8182  1.7189
23432SOL     OW76258  11.823   5.395   8.935  0.4560 -0.0136 -0.1497
23432SOL    HW176259  11.899   5.350   8.899  0.6356 -1.1148  1.4538
23432SOL    HW276260  11.748   5.343   8.905  0.1784  1.6909 -2.6313
23433SOL     OW76261   4.372   1.002  10.532  0.2273  0.5958  0.3787
23433SOL    HW176262   4.408   1.058  10.600 -0.5129  0.8048  0.6103
23433SOL    HW276263   4.440   0.998  10.465  0.1094  2.1969  0.1103
23434SOL     OW76264   2.841  11.418   2.768 -0.1496 -0.1363 -0.4563
23434SOL    HW176265   2.800  11.467   2.697  0.4310 -0.0645 -0.7467
23434SOL    HW276266   2.920  11.380   2.729 -0.4076 -1.0263 -0.1519
23435SOL     OW76267   5.980   4.094   1.435  0.1381 -0.0341  0.5550
23435SOL    HW176268   6.037   4.106   1.511 -1.7384  2.7484  1.6942
23435SOL    HW276269   5.901   4.053   1.470 -0.5111  0.7213  0.0093
23436SOL     OW76270   5.602   5.047   1.522 -0.0480 -0.4735  0.1981
23436SOL    HW176271   5.657   4.977   1.488 -0.9433 -0.5457 -1.1549
23436SOL    HW276272   5.555   5.007   1.595 -1.0854 -1.5075 -1.0087
23437SOL     OW76273   2.900   0.940   0.498  0.0927  0.6073  0.9309
23437SOL    HW176274   2.982   0.978   0.530  0.0365  0.0503  1.7585
23437SOL    HW276275   2.833   0.973   0.558 -0.2561  0.8511  0.4153
23438SOL     OW76276   7.087   1.292  10.885 -0.5484 -0.4964 -0.3265
23438SOL    HW176277   7.112   1.234  10.814  0.5308  0.0136 -0.3807
23438SOL    HW276278   6.991   1.298  10.879 -0.4824 -0.5682 -1.6413
23439SOL     OW76279   6.673   0.507   1.447  0.8182  0.2950 -0.4671
23439SOL    HW176280   6.621   0.476   1.521  0.2075  0.7550 -0.6967
23439SOL    HW276281   6.761   0.473   1.463  0.3699 -0.8027 -0.2622
23440SOL     OW76282   4.435   9.739   8.590  0.2497 -0.9474  0.1209
23440SOL    HW176283   4.502   9.685   8.633  0.8527 -0.3428 -0.0440
23440SOL    HW276284   4.479   9.777   8.514  0.3910  1.1877  1.1998
23441SOL     OW76285   8.607   6.391   0.233 -0.7432  0.0859  0.3614
23441SOL    HW176286   8.536   6.328   0.248 -0.7131 -0.1444 -0.4024
23441SOL    HW276287   8.652   6.396   0.317 -2.0902  0.7892  1.0798
23442SOL     OW76288  10.432   3.237   3.175 -0.0953 -0.0282 -0.0832
23442SOL    HW176289  10.470   3.286   3.101  1.0768 -0.8652 -0.0596
23442SOL    HW276290  10.494   3.251   3.246 -1.2631  0.8428  0.7972
23443SOL     OW76291  10.857   3.157   3.893 -0.2875  0.5233 -0.5826
23443SOL    HW176292  10.895   3.071   3.875  0.9514  0.9998 -0.3816
23443SOL    HW276293  10.827   3.151   3.984  1.2969  0.7905 -0.0114
23444SOL     OW76294   0.614  12.134   1.063 -0.1882  0.3712 -0.0859
23444SOL    HW176295   0.580  12.193   0.995  2.7306  0.5567 -1.5438
23444SOL    HW276296   0.579  12.168   1.145 -0.9168  2.3662 -1.1656
23445SOL     OW76297   4.723  11.789   8.724  0.2861  0.3816  0.6863
23445SOL    HW176298   4.635  11.783   8.761  0.7778  0.7996  2.0183
23445SOL    HW276299   4.719  11.865   8.666 -0.4733 -0.1917 -0.0312
23446SOL     OW76300   2.112   6.876   7.704  0.5070 -0.0375 -0.4496
23446SOL    HW176301   2.186   6.858   7.763  0.4018 -0.2186 -0.3698
23446SOL    HW276302   2.035   6.878   7.762  0.5908  1.3802 -0.3539
23447SOL     OW76303   2.063  11.929   6.542  0.4523 -0.3245 -0.2337
23447SOL    HW176304   2.077  11.917   6.636 -1.5964 -0.1703  0.1418
23447SOL    HW276305   1.969  11.944   6.534  0.8932  1.8910 -2.1087
23448SOL     OW76306   8.675   4.984   6.638 -0.0716 -0.1781 -0.3340
23448SOL    HW176307   8.659   4.951   6.549 -1.0982  1.5464 -0.8345
23448SOL    HW276308   8.671   4.906   6.693  2.5610 -1.5962 -1.9607
23449SOL     OW76309   8.762   2.366   3.209  0.0607  0.4093 -1.2611
23449SOL    HW176310   8.766   2.362   3.114  2.4848  2.4665 -1.3668
23449SOL    HW276311   8.846   2.329   3.238 -0.1489  0.8641  0.0044
23450SOL     OW76312   5.576   1.557   7.681 -0.4101 -0.4071  0.0158
23450SOL    HW176313   5.496   1.509   7.704  0.0227 -1.7919 -1.2044
23450SOL    HW276314   5.574   1.563   7.586  0.9959 -0.5780 -0.0388
23451SOL     OW76315   1.483   5.833   0.988  0.5976 -0.0910  0.0063
23451SOL    HW176316   1.473   5.738   0.980  1.0745 -0.0647 -1.0330
23451SOL    HW276317   1.420   5.858   1.056 -0.9037 -0.8829 -1.0428
23452SOL     OW76318   0.684   8.149   8.916 -0.4541  0.0313  0.0702
23452SOL    HW176319   0.730   8.104   8.987  1.4623 -0.4903 -1.3988
23452SOL    HW276320   0.596   8.111   8.916 -0.1883 -0.6330  1.5385
23453SOL     OW76321  11.551   4.903   9.099 -0.2750 -0.1486  0.4392
23453SOL    HW176322  11.625   4.845   9.086  0.2652  0.9473 -1.8551
23453SOL    HW276323  11.585   4.975   9.152 -0.0249 -0.2440  0.4069
23454SOL     OW76324   6.499   6.385   0.330  0.7330  0.6717 -0.5803
23454SOL    HW176325   6.547   6.302   0.331  1.0747  0.8501  0.8960
23454SOL    HW276326   6.504   6.415   0.239  1.4969 -0.4135 -0.9155
23455SOL     OW76327   3.364  11.358   1.413 -0.2817 -1.1134  0.0979
23455SOL    HW176328   3.366  11.264   1.428  1.5487 -1.1427 -0.0370
23455SOL    HW276329   3.399  11.395   1.494 -0.1809 -0.6081 -0.1732
23456SOL     OW76330   3.252   5.184  10.296  0.1482 -0.3932 -0.2519
23456SOL    HW176331   3.332   5.237  10.302 -0.5207  0.5525  0.7190
23456SOL    HW276332   3.284   5.094  10.301  1.3763 -0.1779 -2.7936
23457SOL     OW76333   4.109   6.493   2.340  0.3543  0.0335  0.4863
23457SOL    HW176334   4.203   6.477   2.329  0.8675  1.5351  2.1671
23457SOL    HW276335   4.081   6.526   2.255  1.8409  1.5556  0.5369
23458SOL     OW76336   7.169   6.921   1.525  0.6455  0.2606 -0.7201
23458SOL    HW176337   7.149   6.903   1.617 -1.9538  1.6310 -0.9017
23458SOL    HW276338   7.263   6.935   1.523  1.0297 -1.4870  1.4004
23459SOL     OW76339   7.379   8.766   3.495  0.2626 -0.0697 -0.7248
23459SOL    HW176340   7.379   8.820   3.416 -0.0697  0.3936 -0.4167
23459SOL    HW276341   7.385   8.676   3.463  0.9162  0.1509 -1.2408
23460SOL     OW76342  10.979   9.582  10.202  0.0661  0.0435  0.0622
23460SOL    HW176343  11.056   9.611  10.251 -0.8143  1.2163  0.7782
23460SOL    HW276344  10.995   9.489  10.187  2.2735  0.5221 -1.0189
23461SOL     OW76345   7.473   8.113   2.207 -0.5161 -0.1812 -0.0500
23461SOL    HW176346   7.461   8.200   2.168 -0.5415  0.4744  1.3564
23461SOL    HW276347   7.559   8.117   2.248  0.0197 -1.2641 -1.0298
23462SOL     OW76348  11.346   1.299   0.810  0.6753  0.0112 -0.0360
23462SOL    HW176349  11.344   1.346   0.727 -0.2237  1.2695  0.6571
23462SOL    HW276350  11.412   1.346   0.862 -0.6677  0.9645  0.8821
23463SOL     OW76351   3.077   3.519   1.490  0.5260 -0.2479  0.8009
23463SOL    HW176352   3.083   3.452   1.422  1.6895  0.3578  0.2744
23463SOL    HW276353   3.071   3.470   1.572 -1.7262 -0.9976  0.2594
23464SOL     OW76354   2.774   5.004   9.532  0.2219 -0.0453  0.2196
23464SOL    HW176355   2.837   5.051   9.586  0.4796 -0.2098  0.0680
23464SOL    HW276356   2.767   4.917   9.573 -0.9757  0.4276  1.0562
23465SOL     OW76357   3.329   9.746   1.246  0.5021  0.1561 -0.3732
23465SOL    HW176358   3.304   9.782   1.330  0.4618  0.1832 -0.3970
23465SOL    HW276359   3.400   9.685   1.266 -0.4899 -0.9511 -0.1330
23466SOL     OW76360  11.044   1.341  11.735  0.0415  0.6718  0.2714
23466SOL    HW176361  11.079   1.294  11.811 -2.1161 -0.8683  0.4216
23466SOL    HW276362  11.096   1.310  11.661 -0.5942 -1.1727  0.5391
23467SOL     OW76363   4.313   0.444   6.957  0.7265 -0.0359 -0.0801
23467SOL    HW176364   4.232   0.403   6.925  1.8572 -3.6141  1.1932
23467SOL    HW276365   4.361   0.467   6.877 -1.1105  1.3723 -0.8426
23468SOL     OW76366   4.479   4.553   7.135  0.1208 -0.0142 -0.6741
23468SOL    HW176367   4.563   4.600   7.137  0.4493 -0.5844 -0.8856
23468SOL    HW276368   4.432   4.585   7.213  0.6318  0.1248 -0.4160
23469SOL     OW76369   6.649   9.958   8.117  0.4872 -0.0392  0.2452
23469SOL    HW176370   6.563   9.996   8.098  0.0443 -1.1608 -0.0919
23469SOL    HW276371   6.688  10.017   8.181 -1.4938 -0.7415  2.2093
23470SOL     OW76372  12.386   4.925   5.434  0.5075  0.2420 -0.6846
23470SOL    HW176373  12.353   4.982   5.364  2.1485  1.7347 -0.2961
23470SOL    HW276374  12.481   4.932   5.428  0.7446  1.6306  2.5981
23471SOL     OW76375   2.471   9.838  12.388  0.5083 -0.6376  0.6821
23471SOL    HW176376   2.543   9.792  12.344 -0.8974 -1.8269 -0.4661
23471SOL    HW276377   2.450   9.784  12.464  0.2617 -0.7653  0.5247
23472SOL     OW76378   2.069   5.889   3.626 -0.0591 -0.4976 -0.4229
23472SOL    HW176379   2.143   5.836   3.599  0.5054  0.1563 -0.1810
23472SOL    HW276380   2.107   5.963   3.673 -0.5629  1.7288 -3.2427
23473SOL     OW76381  12.460   3.921   2.423  0.2430 -0.0508 -0.2996
23473SOL    HW176382  12.399   3.851   2.401  0.1861 -0.7886  1.9997
23473SOL    HW276383  12.408   3.983   2.474  0.8173  0.6321 -0.5167
23474SOL     OW76384   7.971   1.282  11.202 -0.0214  0.0165  0.0158
23474SOL    HW176385   7.963   1.311  11.111 -1.6837  2.6042  0.8573
23474SOL    HW276386   7.881   1.267  11.230  0.4549 -0.6502  1.2664
23475SOL     OW76387  11.826   6.658  11.587 -0.4312 -0.0624  0.2205
23475SOL    HW176388  11.883   6.649  11.510  0.5440 -2.5966  1.1406
23475SOL    HW276389  11.886   6.679  11.659 -0.9920 -0.2061  0.7364
23476SOL     OW76390  10.023   0.467   2.779 -0.3271  0.0360 -0.6559
23476SOL    HW176391  10.095   0.427   2.827 -0.7943  0.8923  0.8252
23476SOL    HW276392  10.051   0.464   2.687  0.9766 -0.8665 -0.2614
23477SOL     OW76393   5.483  11.897  11.988  0.1961  0.4952  0.7312
23477SOL    HW176394   5.421  11.965  12.014  0.7063  0.6014  1.7400
23477SOL    HW276395   5.471  11.828  12.053  0.4439  0.0983  0.3564
23478SOL     OW76396   6.544   7.093   2.948  0.4783 -0.4863  0.1326
23478SOL    HW176397   6.487   7.154   2.901 -0.9294 -1.4137  0.5781
23478SOL    HW276398   6.601   7.149   3.000  0.4940  0.4931 -0.9034
23479SOL     OW76399   0.589  12.139  10.566  0.4982  0.2973  0.3248
23479SOL    HW176400   0.585  12.187  10.484  0.8870  1.2095  0.8237
23479SOL    HW276401   0.497  12.129  10.593  0.4113  0.7069  0.1820
23480SOL     OW76402  10.382   5.192  10.067 -0.7004 -0.2713  0.5680
23480SOL    HW176403  10.318   5.228  10.006 -0.0712  0.0547  0.0916
23480SOL    HW276404  10.465   5.235  10.045  0.1221 -2.0872 -0.1327
23481SOL     OW76405  11.955   9.569   8.129  0.4511 -0.2798 -0.5623
23481SOL    HW176406  11.900   9.594   8.203 -0.2729 -1.0761 -0.8089
23481SOL    HW276407  11.901   9.508   8.079  2.0663 -2.2788 -0.0288
23482SOL     OW76408   0.686   2.603   0.803  0.0388  0.1429 -0.3935
23482SOL    HW176409   0.635   2.610   0.722  0.2087  0.2490 -0.4909
23482SOL    HW276410   0.692   2.693   0.836 -2.6275 -0.1874  1.3521
23483SOL     OW76411   7.507   7.997   8.730  0.5655  0.1641  0.3579
23483SOL    HW176412   7.570   7.994   8.658 -0.4910 -1.2546 -0.5489
23483SOL    HW276413   7.553   7.957   8.804  0.6889 -1.0811 -0.3619
23484SOL     OW76414   3.437  11.965   7.670 -0.0317  0.3007  0.0209
23484SOL    HW176415   3.401  11.989   7.755  0.7247 -1.8916  1.0450
23484SOL    HW276416   3.374  11.903   7.634  0.4297  0.0098 -0.2917
23485SOL     OW76417  11.295   3.844  11.302 -0.3810 -0.5041  0.5009
23485SOL    HW176418  11.291   3.856  11.397 -1.5674  0.8622  0.3148
23485SOL    HW276419  11.204   3.850  11.273 -0.0857 -1.3884 -0.6849
23486SOL     OW76420   5.549   1.371   1.188  0.1941 -0.5616  0.6007
23486SOL    HW176421   5.525   1.464   1.193  0.6962 -0.3505 -0.6485
23486SOL    HW276422   5.638   1.367   1.223  1.5276  0.0262 -2.4069
23487SOL     OW76423   9.478  11.390   2.698 -0.3695 -0.0107  0.3538
23487SOL    HW176424   9.485  11.465   2.639  2.4119 -0.7806 -0.4431
23487SOL    HW276425   9.503  11.315   2.644 -2.2677 -1.4478  1.3511
23488SOL     OW76426  10.206   4.215   9.777 -0.1533 -0.8294  0.5968
23488SOL    HW176427  10.289   4.169   9.768  0.2370  0.1857 -1.9168
23488SOL    HW276428  10.144   4.164   9.724 -0.3560  0.0200 -0.0181
23489SOL     OW76429   4.282   9.051   1.265 -0.2025  0.0850  0.6356
23489SOL    HW176430   4.272   8.996   1.187  0.7934 -0.0365  0.5821
23489SOL    HW276431   4.233   9.130   1.244 -0.0957 -0.0213 -0.0442
23490SOL     OW76432   4.898   8.560   3.505  0.2292 -0.9539 -0.0145
23490SOL    HW176433   4.952   8.639   3.507 -0.5874 -0.3861 -0.0354
23490SOL    HW276434   4.816   8.586   3.548  1.0042 -2.5862  2.6656
23491SOL     OW76435   9.248   8.355  12.251 -0.7643  0.1646 -0.5510
23491SOL    HW176436   9.261   8.450  12.248  1.1427 -0.0951 -1.7485
23491SOL    HW276437   9.318   8.323  12.308 -1.7565 -0.5088  0.3356
23492SOL     OW76438   3.542  11.401   2.744  0.0811  0.3980 -0.0504
23492SOL    HW176439   3.592  11.347   2.683 -0.1431  2.5893 -2.3080
23492SOL    HW276440   3.599  11.476   2.763 -2.2057  3.2110 -3.0459
23493SOL     OW76441  10.934   7.819  11.172 -0.2736  0.1644  0.2530
23493SOL    HW176442  10.884   7.872  11.109  1.8098  1.3823 -0.4850
23493SOL    HW276443  10.922   7.729  11.142 -0.5084  0.5988 -1.0532
23494SOL     OW76444   0.538   9.548  10.469 -0.1154 -0.2252 -0.8307
23494SOL    HW176445   0.457   9.588  10.439 -0.0425 -1.1765 -2.3805
23494SOL    HW276446   0.517   9.512  10.555 -1.1589  0.0663 -0.9510
23495SOL     OW76447   9.200  11.866  10.514  0.3745 -1.0281  0.3195
23495SOL    HW176448   9.221  11.788  10.565 -1.2397 -1.7156 -0.0049
23495SOL    HW276449   9.105  11.866  10.508  0.4104  0.2759 -0.7786
23496SOL     OW76450   9.761   6.968  10.015 -0.3654 -0.2859 -0.3490
23496SOL    HW176451   9.673   6.933  10.029 -0.1338 -0.8697 -0.2947
23496SOL    HW276452   9.818   6.910  10.066  0.0629  0.0168 -0.4746
23497SOL     OW76453   5.657   0.571   4.937  0.2946 -0.5573 -0.3909
23497SOL    HW176454   5.741   0.612   4.917  1.0481 -1.2896  1.1141
23497SOL    HW276455   5.635   0.521   4.858  1.3012 -0.4036 -0.7831
23498SOL     OW76456   9.862   4.426   3.173 -0.4534  0.1589 -0.3207
23498SOL    HW176457   9.860   4.380   3.089  1.7304  0.4624 -0.5871
23498SOL    HW276458   9.823   4.512   3.154  0.4878  0.4124 -1.1760
23499SOL     OW76459   5.584   4.168   0.969 -0.1918 -0.1219 -0.4465
23499SOL    HW176460   5.597   4.165   1.064 -2.1699  0.8675 -0.0976
23499SOL    HW276461   5.514   4.105   0.952 -1.1108  1.0068 -0.9718
23500SOL     OW76462   7.700   9.073   6.962 -0.0031 -0.0652 -0.0954
23500SOL    HW176463   7.777   9.114   6.921 -0.4192  1.3454  0.4510
23500SOL    HW276464   7.684   8.995   6.910  1.5978 -0.2210 -0.4298
23501SOL     OW76465  10.928   0.477   6.418 -0.3128  0.0245 -0.0622
23501SOL    HW176466  10.914   0.564   6.380  1.1511 -0.2964 -1.4467
23501SOL    HW276467  10.900   0.485   6.509 -0.8253  1.7570 -0.3484
23502SOL     OW76468   5.182   7.674   6.009 -0.0082  0.0397  0.6602
23502SOL    HW176469   5.177   7.608   5.940 -1.5143  1.1539 -0.3813
23502SOL    HW276470   5.274   7.675   6.035  0.8404  0.2025 -2.0145
23503SOL     OW76471   8.952   8.161  11.331  0.1178  0.2002 -0.3789
23503SOL    HW176472   8.962   8.242  11.381 -1.1802  0.7095 -0.9293
23503SOL    HW276473   8.873   8.120  11.367  0.0141 -0.1624 -1.0114
23504SOL     OW76474   2.773  10.001  11.826 -0.1018  0.0209 -0.0002
23504SOL    HW176475   2.697  10.057  11.841  1.8077  2.5694  0.9318
23504SOL    HW276476   2.803  10.024  11.738 -0.8175 -1.5846 -0.7020
23505SOL     OW76477   6.841  11.461   2.348 -0.2589 -0.3991 -0.2621
23505SOL    HW176478   6.901  11.432   2.280  0.3193 -1.0348  0.5124
23505SOL    HW276479   6.754  11.444   2.312  0.0462 -2.0784 -0.2930
23506SOL     OW76480   1.243   4.620   9.961  0.2528  0.1710  0.0896
23506SOL    HW176481   1.202   4.649   9.880  0.4949 -2.3807 -1.0668
23506SOL    HW276482   1.335   4.646   9.953  0.2697 -0.0527 -0.4691
23507SOL     OW76483   4.163   9.559   0.104  0.0251  0.0728 -0.3426
23507SOL    HW176484   4.111   9.561   0.184 -0.9333 -0.4313 -0.9407
23507SOL    HW276485   4.225   9.631   0.114 -1.5410  1.4394 -0.1181
23508SOL     OW76486  10.477   3.707   3.162  0.2669  0.1247  0.2115
23508SOL    HW176487  10.399   3.761   3.173  1.1359  1.2304  1.1599
23508SOL    HW276488  10.512   3.696   3.250  1.3501 -0.1017 -0.2307
23509SOL     OW76489   3.763   9.849   5.903  0.3474 -0.3599 -0.1594
23509SOL    HW176490   3.737   9.840   5.995 -1.5485 -2.4402 -0.8264
23509SOL    HW276491   3.732   9.936   5.878  0.1360 -0.1065  0.9245
23510SOL     OW76492   8.936   2.674   2.271  0.5822  0.9626 -0.6560
23510SOL    HW176493   8.907   2.765   2.262  1.8512  1.5016  0.4713
23510SOL    HW276494   9.017   2.670   2.220  1.5300  0.9722  0.8124
23511SOL     OW76495   9.142   9.575   1.529 -0.3323  0.7269  0.6328
23511SOL    HW176496   9.182   9.654   1.568 -0.7795  1.5300 -0.4830
23511SOL    HW276497   9.144   9.592   1.435 -0.9315 -0.3770  0.4131
23512SOL     OW76498   3.095   9.082   1.507  0.0267 -0.5073 -0.4058
23512SOL    HW176499   3.014   9.129   1.486  0.0047 -1.1520 -1.9470
23512SOL    HW276500   3.067   8.992   1.522  0.4429 -0.7265 -0.9108
23513SOL     OW76501  12.075   1.712   1.514 -0.1891 -0.4531  0.0281
23513SOL    HW176502  12.028   1.720   1.431  2.4894 -0.3200 -1.5926
23513SOL    HW276503  12.015   1.747   1.580 -2.5373 -0.8666 -1.7776
23514SOL     OW76504   3.872   1.814   7.571  0.4319 -0.3319 -0.5090
23514SOL    HW176505   3.903   1.800   7.482  0.0008  1.4879 -0.9914
23514SOL    HW276506   3.877   1.728   7.612  0.0076 -1.3606 -2.4829
23515SOL     OW76507   7.137   3.683   5.763  0.3288  0.6524 -0.8133
23515SOL    HW176508   7.095   3.737   5.697  1.1821 -0.9641 -2.7917
23515SOL    HW276509   7.227   3.713   5.766  0.4180  0.3881 -0.7658
23516SOL     OW76510   5.451   7.564   8.912 -0.3771 -0.3325  0.1674
23516SOL    HW176511   5.390   7.626   8.870 -0.4407 -0.3510  0.2329
23516SOL    HW276512   5.522   7.554   8.848  0.3965  0.9789  0.7644
23517SOL     OW76513   8.831  10.630   6.872  0.0939  0.9352  0.4569
23517SOL    HW176514   8.925  10.629   6.852 -0.3324  0.5306 -1.9031
23517SOL    HW276515   8.826  10.656   6.964  2.4221  3.0370  0.1053
23518SOL     OW76516   2.466   3.421   6.904 -0.0981 -0.1472 -0.1195
23518SOL    HW176517   2.392   3.461   6.858  0.3976  0.1778 -0.6482
23518SOL    HW276518   2.439   3.422   6.996 -1.1938 -1.0141 -0.4074
23519SOL     OW76519   6.097   6.336   5.738  0.1005  0.5781 -0.3281
23519SOL    HW176520   6.063   6.396   5.672  0.3186  0.6534 -0.3731
23519SOL    HW276521   6.192   6.342   5.729  0.1538  1.1770  0.5069
23520SOL     OW76522   2.407  11.298   4.299 -0.2070 -0.0344 -0.0349
23520SOL    HW176523   2.457  11.320   4.221 -0.5997 -0.0610 -0.2971
23520SOL    HW276524   2.468  11.249   4.354  0.7827  1.8897  0.6688
23521SOL     OW76525   4.315   0.586   2.853 -0.1345  0.2666  0.1045
23521SOL    HW176526   4.404   0.611   2.879  0.0443  0.9370 -1.0409
23521SOL    HW276527   4.264   0.666   2.860 -0.3792  0.1527 -0.3001
23522SOL     OW76528   9.910   9.995   4.805  0.1226 -0.2962 -0.2229
23522SOL    HW176529   9.932   9.902   4.800 -0.4225 -0.3859 -1.1860
23522SOL    HW276530   9.835   9.998   4.864  1.5754 -0.1774  1.7137
23523SOL     OW76531   9.385   1.820  11.486 -0.0740  0.5510  0.0643
23523SOL    HW176532   9.477   1.807  11.466 -0.2723 -2.7442  0.7405
23523SOL    HW276533   9.384   1.842  11.579 -0.0068 -0.9418  0.4366
23524SOL     OW76534   5.991   4.719   0.252  0.2468  0.1330 -0.7846
23524SOL    HW176535   6.028   4.630   0.253 -0.7044 -0.2823 -1.1773
23524SOL    HW276536   5.896   4.705   0.245 -0.2179  1.1086  2.2318
23525SOL     OW76537   9.339   8.024  10.875  0.6500  0.4792  0.1382
23525SOL    HW176538   9.261   8.076  10.856  0.7403 -0.2154 -2.3897
23525SOL    HW276539   9.308   7.956  10.935 -0.0543  1.7758  1.3070
23526SOL     OW76540  11.746  11.969   0.041 -0.1156  0.3708  0.0192
23526SOL    HW176541  11.780  11.880   0.038  0.3359  0.5309  0.2916
23526SOL    HW276542  11.651  11.959   0.040 -0.1103 -0.0425 -2.2666
23527SOL     OW76543   9.558   5.565   8.087  0.3679 -0.9249 -0.0537
23527SOL    HW176544   9.561   5.639   8.147 -0.3698 -0.6640 -0.3297
23527SOL    HW276545   9.609   5.497   8.131  1.8860  0.0487 -0.2247
23528SOL     OW76546   5.704   9.774   3.159 -0.4693 -0.1030 -0.6665
23528SOL    HW176547   5.679   9.785   3.251 -2.4877 -0.4093 -1.1510
23528SOL    HW276548   5.707   9.680   3.146  0.6594 -0.0747 -0.7288
23529SOL     OW76549  10.974   3.007   5.310 -0.5520  0.0115  0.1286
23529SOL    HW176550  11.009   2.993   5.222  0.2751  0.0892  0.4378
23529SOL    HW276551  11.028   2.952   5.367 -0.6376  0.4742  0.6699
23530SOL     OW76552   0.875   6.564   2.388 -0.0486  0.4212 -0.4095
23530SOL    HW176553   0.900   6.485   2.435 -2.0427  0.4683  0.8473
23530SOL    HW276554   0.934   6.632   2.422  0.0105 -0.0182  0.3883
23531SOL     OW76555   3.490  11.581   7.144  0.2597 -0.5729  0.0562
23531SOL    HW176556   3.494  11.665   7.098 -0.2986 -0.8425 -0.5007
23531SOL    HW276557   3.570  11.535   7.118  1.8543  0.7430  2.3171
23532SOL     OW76558   9.413   4.356  11.466  0.7364 -0.2401 -0.2299
23532SOL    HW176559   9.331   4.324  11.429  0.2889  0.2755  0.2794
23532SOL    HW276560   9.386   4.412  11.539  1.4677  1.4017 -1.1646
23533SOL     OW76561   3.712   4.997  11.695  0.4663  0.0246  0.2755
23533SOL    HW176562   3.656   5.039  11.629  1.4339  1.4367  0.3127
23533SOL    HW276563   3.686   5.038  11.777  1.2102  0.3278  0.3615
23534SOL     OW76564  10.034  11.453   8.287  0.4318  0.5119 -0.0335
23534SOL    HW176565   9.986  11.455   8.370  1.3586 -1.1600  0.6000
23534SOL    HW276566  10.064  11.543   8.275 -0.5812  1.0017  0.9124
23535SOL     OW76567   4.486   2.283   6.274  0.3124 -0.6016  0.3999
23535SOL    HW176568   4.579   2.260   6.265  0.4324 -0.2559  0.7307
23535SOL    HW276569   4.439   2.208   6.238  0.7378 -0.1652 -1.1495
23536SOL     OW76570  10.358   1.905   3.845 -0.0855 -0.4907 -0.5793
23536SOL    HW176571  10.413   1.827   3.846  0.5451 -0.0594 -0.2983
23536SOL    HW276572  10.300   1.895   3.920 -0.7259 -1.1719 -1.1491
23537SOL     OW76573  12.087   2.646   1.164 -0.0639 -0.1927  0.2579
23537SOL    HW176574  12.067   2.556   1.191  0.2885 -0.3488  0.0126
23537SOL    HW276575  12.015   2.698   1.199 -0.4074 -0.6069  0.1842
23538SOL     OW76576   4.790   7.674   2.271 -0.6374 -0.3695 -0.9946
23538SOL    HW176577   4.871   7.624   2.270  0.0874  0.7579 -2.1935
23538SOL    HW276578   4.733   7.629   2.208 -0.5064 -0.4937 -1.0227
23539SOL     OW76579   4.435   3.570  11.434 -0.3872 -0.3879  0.3970
23539SOL    HW176580   4.398   3.489  11.400  0.3155 -1.8136  2.7852
23539SOL    HW276581   4.512   3.586  11.379 -0.0509 -1.8166  0.4126
23540SOL     OW76582  10.612  10.877   2.750 -0.7256 -0.0975  0.6765
23540SOL    HW176583  10.641  10.788   2.772  0.9262  0.0149 -0.8509
23540SOL    HW276584  10.685  10.933   2.777 -0.3193  0.4199 -1.3479
23541SOL     OW76585  11.978   8.275   5.104 -0.2882 -0.5189 -0.3597
23541SOL    HW176586  12.030   8.302   5.029 -0.4144 -2.0077 -1.0081
23541SOL    HW276587  12.016   8.192   5.131  0.1370  0.2401  1.6207
23542SOL     OW76588   1.788  10.241  10.731 -0.2175 -0.0249  0.2307
23542SOL    HW176589   1.781  10.153  10.694  0.5509  0.2763 -0.6592
23542SOL    HW276590   1.702  10.257  10.770 -0.2921 -1.2582  0.6307
23543SOL     OW76591   0.833   5.003   2.890  0.2660  0.0360 -0.1243
23543SOL    HW176592   0.898   4.971   2.828  0.4288  0.1779 -0.0292
23543SOL    HW276593   0.884   5.025   2.969  0.0964  0.0956 -0.0312
23544SOL     OW76594   9.254   9.726   9.899 -0.0176  0.0334  0.0585
23544SOL    HW176595   9.245   9.659   9.831  0.0249  0.7094 -0.6358
23544SOL    HW276596   9.340   9.709   9.938 -0.2444 -0.6535  0.2743
23545SOL     OW76597   5.123  11.966   3.933  0.1562  0.4082 -0.1074
23545SOL    HW176598   5.143  11.887   3.883  0.6367  1.1037 -1.0570
23545SOL    HW276599   5.180  11.961   4.010  1.4844  0.6446 -1.0258
23546SOL     OW76600  12.125   0.670   5.843 -0.5104 -0.2563  0.2637
23546SOL    HW176601  12.034   0.700   5.843 -0.3230  0.4212 -1.1634
23546SOL    HW276602  12.156   0.689   5.755  1.6199  1.3829  1.2748
23547SOL     OW76603   5.132   0.606   7.532 -0.3476 -0.0503 -0.0288
23547SOL    HW176604   5.095   0.693   7.517  0.7649  0.3510 -0.6375
23547SOL    HW276605   5.082   0.548   7.475 -2.2364 -0.1481  1.6276
23548SOL     OW76606  10.835   0.767   9.823  0.7331 -0.0520  0.6042
23548SOL    HW176607  10.899   0.817   9.874  1.1732 -0.6662  0.6798
23548SOL    HW276608  10.765   0.748   9.885  1.1865 -0.6479  0.9565
23549SOL     OW76609   8.954   4.810   1.337 -0.1441  0.3186 -0.4741
23549SOL    HW176610   8.979   4.741   1.398 -1.4491 -0.7362 -1.0715
23549SOL    HW276611   9.030   4.821   1.281  1.7323  2.4587  2.2366
23550SOL     OW76612   0.994  10.361   7.468  0.2765 -0.0816  0.1211
23550SOL    HW176613   0.929  10.400   7.410  1.4665 -1.0541 -2.0089
23550SOL    HW276614   0.944  10.321   7.538 -1.1203  3.1090  1.1514
23551SOL     OW76615   2.499  11.062   4.012 -0.8005  0.1866  0.0189
23551SOL    HW176616   2.571  11.124   3.999 -1.4253  0.9442  0.1226
23551SOL    HW276617   2.542  10.977   4.020 -0.0315  0.3400 -1.9334
23552SOL     OW76618   5.617   0.340   7.869 -0.1401  0.0878 -0.4352
23552SOL    HW176619   5.648   0.296   7.789  2.0390  1.1978 -0.2851
23552SOL    HW276620   5.678   0.312   7.936 -2.6321 -1.7686  1.2152
23553SOL     OW76621   2.904  12.399  10.593  0.3165 -0.0348 -0.5135
23553SOL    HW176622   2.840  12.339  10.631  1.9863 -0.7062  1.3988
23553SOL    HW276623   2.882  12.403  10.500 -1.6009 -1.3310 -0.1579
23554SOL     OW76624   8.438   3.811   6.420  0.0240  0.3693 -0.4086
23554SOL    HW176625   8.417   3.803   6.327  0.7709 -0.3377 -0.5377
23554SOL    HW276626   8.515   3.868   6.422 -1.1727  2.0482 -0.0350
23555SOL     OW76627   4.361  11.318  10.724 -0.3327  0.1872  0.2564
23555SOL    HW176628   4.371  11.347  10.815  1.4227 -0.9892  0.4864
23555SOL    HW276629   4.267  11.326  10.707 -0.6802  0.6390  2.0938
23556SOL     OW76630  10.126  10.077   0.991 -0.8153  0.1280  0.2316
23556SOL    HW176631  10.145  10.043   0.904  0.9568 -0.4418  0.7966
23556SOL    HW276632  10.100  10.168   0.976 -2.0806 -0.4073 -1.0004
23557SOL     OW76633   7.661   9.064   0.797 -0.6701  0.1438  0.4048
23557SOL    HW176634   7.595   9.101   0.855 -1.8599  0.0169 -0.8203
23557SOL    HW276635   7.689   9.137   0.743  0.9534  0.4254  1.5425
23558SOL     OW76636   8.619   6.217   8.326 -0.1779 -0.3465  0.3529
23558SOL    HW176637   8.705   6.175   8.335  0.3063  0.7676  1.1333
23558SOL    HW276638   8.634   6.289   8.265 -0.6545 -0.3657  0.2077
23559SOL     OW76639   1.322   0.323   3.412  0.1304  0.3292 -0.0390
23559SOL    HW176640   1.328   0.391   3.344  2.2283  2.1763  1.7888
23559SOL    HW276641   1.288   0.369   3.488  0.5512 -0.9613  0.9628
23560SOL     OW76642   0.831   1.756  11.375  0.6674  0.3038  0.3879
23560SOL    HW176643   0.762   1.714  11.323  0.0244  1.3989  0.3237
23560SOL    HW276644   0.892   1.685  11.396 -0.3669 -0.6445  0.2683
23561SOL     OW76645   5.232   5.204   7.765 -0.2150 -0.5238 -0.3337
23561SOL    HW176646   5.156   5.260   7.752 -1.8303 -2.4399  0.2989
23561SOL    HW276647   5.196   5.121   7.797  2.0943 -1.7149 -0.5568
23562SOL     OW76648   4.504   5.346  10.732  0.5187  0.0163  0.8869
23562SOL    HW176649   4.522   5.346  10.638 -1.3667  0.5799  0.4796
23562SOL    HW276650   4.590   5.346  10.773  1.3908 -1.2479 -0.8233
23563SOL     OW76651   1.659   3.312   6.625  0.3336 -0.7071  0.2388
23563SOL    HW176652   1.623   3.226   6.606 -0.2071 -0.6812  1.0482
23563SOL    HW276653   1.754   3.299   6.627  0.3624 -0.8969 -1.3923
23564SOL     OW76654   1.492   3.415   9.671  0.4782  0.3255  0.1184
23564SOL    HW176655   1.442   3.476   9.726  0.7376 -0.2884  1.0395
23564SOL    HW276656   1.463   3.328   9.699 -0.7629 -0.0183 -1.9809
23565SOL     OW76657   4.872   9.165   5.485  0.0781 -0.0789  0.0067
23565SOL    HW176658   4.910   9.164   5.573 -0.1182  1.1315  0.1276
23565SOL    HW276659   4.859   9.073   5.463 -0.6537 -0.3872  1.5828
23566SOL     OW76660   5.326   8.659   7.404 -0.0548 -0.3004  0.3447
23566SOL    HW176661   5.271   8.584   7.384  1.1878 -0.8514 -1.2298
23566SOL    HW276662   5.347   8.650   7.497 -0.1105 -1.7787  0.2286
23567SOL     OW76663   8.418   2.228  12.104 -0.5400  0.4139 -0.2864
23567SOL    HW176664   8.330   2.223  12.141 -1.0988  1.4791 -1.4319
23567SOL    HW276665   8.407   2.206  12.012  0.3181  1.0225 -0.5416
23568SOL     OW76666   6.145  10.137  11.829  0.1011  0.1864  0.1663
23568SOL    HW176667   6.224  10.117  11.779  0.2793  1.3618 -0.0474
23568SOL    HW276668   6.137  10.063  11.890  0.2082 -0.9722 -1.1696
23569SOL     OW76669   5.614   3.412   8.746 -0.3705  0.4848 -0.2192
23569SOL    HW176670   5.578   3.451   8.825  0.6441  1.2386 -0.1096
23569SOL    HW276671   5.648   3.327   8.774 -1.7318 -0.1042 -0.2624
23570SOL     OW76672   5.155   4.034   1.075 -0.2588  0.8106  0.0148
23570SOL    HW176673   5.240   4.070   1.048  0.9426 -2.4320 -1.0556
23570SOL    HW276674   5.176   3.975   1.148 -1.6112  0.1671 -0.0772
23571SOL     OW76675   8.667   3.011   8.651  0.4980  0.2451  0.1101
23571SOL    HW176676   8.582   3.053   8.635  0.0464 -0.5098  0.5047
23571SOL    HW276677   8.731   3.083   8.642 -0.1017  0.6744 -0.9197
23572SOL     OW76678   3.428   4.547  12.319 -0.7387 -0.0137 -0.1276
23572SOL    HW176679   3.505   4.535  12.264 -1.3296 -0.8466 -0.8049
23572SOL    HW276680   3.420   4.465  12.367 -2.2201 -0.6581 -1.4043
23573SOL     OW76681   7.989   1.253  12.278  0.3297  0.2261 -0.9695
23573SOL    HW176682   7.900   1.220  12.286  0.5305  0.0050  0.6998
23573SOL    HW276683   7.979   1.348  12.278  0.1331  0.2073 -0.2108
23574SOL     OW76684   6.572   2.759   8.776  0.4065  0.4779  0.2703
23574SOL    HW176685   6.571   2.761   8.680  3.4035 -2.0842  0.0382
23574SOL    HW276686   6.491   2.714   8.800  1.3193 -2.2594 -1.3696
23575SOL     OW76687   8.365   4.201   8.974  0.3455  0.0529  0.2233
23575SOL    HW176688   8.406   4.284   8.949  0.0517 -0.5678 -2.6693
23575SOL    HW276689   8.432   4.135   8.957 -0.8443 -0.6979 -2.0259
23576SOL     OW76690   5.575   9.636   1.850  0.2157 -0.3984  0.1542
23576SOL    HW176691   5.656   9.588   1.862 -0.1875 -0.6185  2.5802
23576SOL    HW276692   5.513   9.572   1.816  0.8964 -0.3615 -1.1867
23577SOL     OW76693   7.742   2.107  11.758  0.3330  0.2780 -0.2057
23577SOL    HW176694   7.784   2.126  11.675  1.1843 -1.0189 -0.0994
23577SOL    HW276695   7.708   2.018  11.749 -0.4960  0.5035  0.4726
23578SOL     OW76696  12.383   7.616   4.268  0.2212  0.0839  0.8689
23578SOL    HW176697  12.441   7.669   4.213 -0.0186 -0.2757  0.2510
23578SOL    HW276698  12.440   7.547   4.303 -0.2342 -1.7588 -1.7010
23579SOL     OW76699   8.061   1.411   5.608 -0.2793  0.2110  0.3487
23579SOL    HW176700   8.156   1.425   5.610 -0.2879  0.1733  1.0124
23579SOL    HW276701   8.045   1.345   5.675 -0.8152  0.4306  0.4365
23580SOL     OW76702   6.219   2.448   7.072  0.5503 -0.6553 -0.4021
23580SOL    HW176703   6.275   2.386   7.025  0.9141  0.5665 -1.6460
23580SOL    HW276704   6.270   2.474   7.148 -0.2929 -3.1360  1.1300
23581SOL     OW76705   1.055  11.095   4.420 -0.2843  0.0651 -0.2137
23581SOL    HW176706   1.024  11.056   4.338 -1.4312  0.5502 -0.0348
23581SOL    HW276707   0.976  11.129   4.462  0.3482  0.2448  0.8769
23582SOL     OW76708   3.845   9.491   6.273  0.2231  0.4024 -0.4218
23582SOL    HW176709   3.926   9.531   6.243  1.1678  0.3332  1.8890
23582SOL    HW276710   3.801   9.560   6.323 -0.5063  0.0073 -0.4982
23583SOL     OW76711   9.122   2.289   1.816  0.4197 -0.6172 -0.8190
23583SOL    HW176712   9.041   2.330   1.847  1.6056  0.1906  1.4591
23583SOL    HW276713   9.154   2.349   1.748  0.1336  0.1450 -0.2990
23584SOL     OW76714   2.257   3.002  10.084  0.2175  0.4712 -0.8375
23584SOL    HW176715   2.202   2.940  10.037  1.0820 -0.7277 -0.3138
23584SOL    HW276716   2.346   2.978  10.061  0.6016  0.9927  0.0208
23585SOL     OW76717   3.682   0.506   8.760  0.9943 -0.1205 -0.3900
23585SOL    HW176718   3.749   0.476   8.822 -0.6538 -1.2736  0.9349
23585SOL    HW276719   3.649   0.587   8.799  1.4335  0.3097 -0.9070
23586SOL     OW76720   7.472   5.324   3.959  0.6049  0.4188 -0.2746
23586SOL    HW176721   7.431   5.395   4.009 -1.7602  0.0424 -1.5326
23586SOL    HW276722   7.438   5.244   4.000 -0.0583  0.0990 -1.4044
23587SOL     OW76723   8.520   8.952   9.177 -0.1889  0.4813 -0.2397
23587SOL    HW176724   8.573   8.896   9.121 -0.0244 -0.5644  0.9173
23587SOL    HW276725   8.432   8.915   9.172 -0.0641  0.0517  0.5940
23588SOL     OW76726   0.013   3.443  10.902 -0.5203  0.5346 -0.6616
23588SOL    HW176727  -0.007   3.536  10.908 -0.7912  0.7314 -3.3919
23588SOL    HW276728  -0.069   3.399  10.923 -0.3809  0.8601  0.6760
23589SOL     OW76729   7.383   9.608  10.912  0.2237  0.1536  0.7923
23589SOL    HW176730   7.477   9.595  10.918  0.1208 -0.9787  0.2513
23589SOL    HW276731   7.373   9.683  10.853  0.7758  0.2323  0.7932
23590SOL     OW76732   6.017   5.222   2.579  0.3500  0.2697 -0.0711
23590SOL    HW176733   6.016   5.312   2.611  1.5362  0.4844 -0.5778
23590SOL    HW276734   5.925   5.200   2.566  0.0378  1.3433  0.2378
23591SOL     OW76735   4.909   5.529   1.111 -0.1822 -0.4340  0.3973
23591SOL    HW176736   4.961   5.568   1.182  0.6409 -1.1728  0.2168
23591SOL    HW276737   4.951   5.559   1.031 -1.2707  0.6121  0.1883
23592SOL     OW76738   0.321   7.329   0.015  0.2048 -0.4019 -0.3373
23592SOL    HW176739   0.398   7.305  -0.036  0.3149 -0.4749 -0.1396
23592SOL    HW276740   0.317   7.424   0.009  1.4940 -0.1993  1.3135
23593SOL     OW76741   5.821   5.992   8.826 -0.1850  0.1604 -0.0385
23593SOL    HW176742   5.891   5.956   8.880 -0.2795  1.6544  1.1647
23593SOL    HW276743   5.794   5.919   8.770  1.0136 -0.9970  0.8160
23594SOL     OW76744  10.764   4.891  11.032  0.1386  0.1518  0.0664
23594SOL    HW176745  10.709   4.816  11.051  0.5526 -0.5643 -1.4541
23594SOL    HW276746  10.847   4.873  11.077 -0.4594  0.7287  1.4584
23595SOL     OW76747   3.351   6.310   2.131 -0.2101 -0.4841  0.2034
23595SOL    HW176748   3.395   6.234   2.169  0.2139  0.0539  0.8173
23595SOL    HW276749   3.371   6.382   2.191  0.5433  0.4271 -1.0924
23596SOL     OW76750   1.580   3.837   6.779 -0.2082  0.2008 -0.6342
23596SOL    HW176751   1.585   3.743   6.796  0.8373  0.2783 -0.4607
23596SOL    HW276752   1.508   3.868   6.834  0.5394 -0.2138  0.6073
23597SOL     OW76753   1.948   9.038   1.122  0.0035  0.1784  0.0971
23597SOL    HW176754   1.930   9.005   1.210 -1.4749  1.4924  0.3388
23597SOL    HW276755   1.973   8.960   1.072  1.8482 -0.4621  1.8681
23598SOL     OW76756   8.978   0.190  12.039 -0.2532 -0.3113 -0.0450
23598SOL    HW176757   9.028   0.245  12.100 -0.5589 -0.0068 -0.0630
23598SOL    HW276758   8.927   0.253  11.988  0.1459 -0.5538 -0.7435
23599SOL     OW76759   7.853   2.001  12.378  0.4818 -0.1100 -0.6082
23599SOL    HW176760   7.765   2.038  12.382  0.3013 -0.4271 -1.3900
23599SOL    HW276761   7.843   1.911  12.410  1.1454  0.8035  2.5157
23600SOL     OW76762   2.388   7.108   4.483  0.5137 -0.2058 -0.4107
23600SOL    HW176763   2.422   7.132   4.397 -0.7315  0.2514 -0.8027
23600SOL    HW276764   2.466   7.090   4.536  1.2728 -2.5941 -2.1835
23601SOL     OW76765   9.494  12.341  10.543 -0.3641  0.7873 -0.4511
23601SOL    HW176766   9.510  12.345  10.449 -2.4311  0.5598 -0.8584
23601SOL    HW276767   9.484  12.432  10.570  2.0701  1.0087 -0.0263
23602SOL     OW76768  12.313   1.371   5.239 -0.0795 -0.3822  0.0237
23602SOL    HW176769  12.239   1.319   5.270 -0.3743  0.2777  0.4419
23602SOL    HW276770  12.284   1.409   5.157 -0.5054  0.5051  0.5693
23603SOL     OW76771   7.840   8.980  10.784 -0.4468  0.1372 -0.1315
23603SOL    HW176772   7.803   9.054  10.833  0.5662 -0.0762  1.0002
23603SOL    HW276773   7.767   8.918  10.776 -0.8755  0.5738  0.3018
23604SOL     OW76774   4.349   7.573   9.682 -0.3912  0.1988 -0.5093
23604SOL    HW176775   4.386   7.518   9.751 -2.6640  1.0038  1.4812
23604SOL    HW276776   4.346   7.516   9.605  3.9104 -0.1977 -0.6481
23605SOL     OW76777   6.728  11.945   2.949  0.0863  0.1247  0.0753
23605SOL    HW176778   6.634  11.932   2.965  0.5016 -1.0721  1.7565
23605SOL    HW276779   6.735  11.949   2.854 -1.7051  0.5313 -0.0821
23606SOL     OW76780   7.218  11.660   0.105 -0.0225  0.4847 -0.3445
23606SOL    HW176781   7.126  11.634   0.100 -0.0435  0.4255  0.2528
23606SOL    HW276782   7.255  11.633   0.021 -0.7898  1.4760 -1.0173
23607SOL     OW76783   2.646   5.802  10.098  0.6248  0.4449  0.1372
23607SOL    HW176784   2.623   5.747  10.023 -1.8834  0.5746  0.7028
23607SOL    HW276785   2.740   5.817  10.090  0.7941 -1.2514 -1.8086
23608SOL     OW76786   1.977   4.452   2.908 -0.4371  0.2994  0.1605
23608SOL    HW176787   1.923   4.466   2.831 -0.4605  0.4343  0.2013
23608SOL    HW276788   1.917   4.459   2.982 -0.0417  2.4945  0.3445
23609SOL     OW76789   2.940   8.146  10.321  0.2588 -0.1767 -0.9039
23609SOL    HW176790   2.923   8.208  10.250 -0.8365  1.5943  0.8279
23609SOL    HW276791   3.035   8.135  10.321  0.4269  1.1467 -1.5405
23610SOL     OW76792   6.699  12.174   7.881 -0.4989 -0.0130  0.3259
23610SOL    HW176793   6.672  12.157   7.791 -0.1342  0.8969  0.0355
23610SOL    HW276794   6.725  12.088   7.915 -0.0441 -0.2651 -0.6320
23611SOL     OW76795   8.318   6.973   5.777  0.0534 -0.1626  0.2337
23611SOL    HW176796   8.290   6.970   5.869 -0.0790  2.2946  0.3311
23611SOL    HW276797   8.284   6.892   5.740 -0.1793 -1.0676  2.2562
23612SOL     OW76798   8.475   1.759   2.641  0.2268  0.0625  0.1728
23612SOL    HW176799   8.403   1.724   2.694  2.4286 -1.9690  2.0726
23612SOL    HW276800   8.498   1.688   2.582  0.0508  1.0828 -1.1767
23613SOL     OW76801   7.063   4.760   0.751 -0.9988  0.1799 -0.5414
23613SOL    HW176802   7.109   4.776   0.833  1.0316  2.8711 -2.0424
23613SOL    HW276803   6.997   4.829   0.746 -1.8376 -0.6107 -0.7385
23614SOL     OW76804   0.276   8.212   2.985 -0.1462 -0.4251  0.0222
23614SOL    HW176805   0.309   8.256   3.063 -0.9992 -2.8784  1.8707
23614SOL    HW276806   0.192   8.255   2.968  0.9332  1.4781 -0.8512
23615SOL     OW76807   7.890  10.820   9.607  0.2953 -0.0199  0.1220
23615SOL    HW176808   7.957  10.754   9.589  1.2718  1.2432 -1.0891
23615SOL    HW276809   7.919  10.862   9.688 -0.6280 -1.3892  1.2136
23616SOL     OW76810   1.902  11.846   5.918  0.1845  0.3641  0.1019
23616SOL    HW176811   1.939  11.783   5.979  1.2377  0.6799 -0.1939
23616SOL    HW276812   1.974  11.869   5.860 -0.8824 -0.2348 -1.5500
23617SOL     OW76813  10.520  11.772   7.112  0.0009  0.5647  0.1573
23617SOL    HW176814  10.511  11.706   7.181 -2.9456  2.1305  1.5015
23617SOL    HW276815  10.464  11.844   7.142  0.0013  2.0549 -3.0576
23618SOL     OW76816   0.359  11.066   4.292 -0.2767  0.0618  0.0134
23618SOL    HW176817   0.407  10.984   4.301 -1.2550 -0.7264 -1.5545
23618SOL    HW276818   0.299  11.068   4.367  2.2284  1.1890  2.1625
23619SOL     OW76819   7.437  11.761  12.350  0.4276  0.2894 -0.2013
23619SOL    HW176820   7.478  11.843  12.377  2.4324 -0.4209 -0.8914
23619SOL    HW276821   7.440  11.762  12.254 -0.2687 -0.2536 -0.2430
23620SOL     OW76822   4.351   6.463   4.415 -0.1196  0.2545 -0.2248
23620SOL    HW176823   4.278   6.462   4.476  0.9667  0.7442  1.1528
23620SOL    HW276824   4.380   6.372   4.410 -0.8385  0.0547 -0.8054
23621SOL     OW76825   2.949   7.066   3.714 -0.1122  0.5746  0.7607
23621SOL    HW176826   2.957   7.059   3.619  0.9387 -1.5307  0.9390
23621SOL    HW276827   2.909   7.152   3.729  0.4180  1.2898 -1.5323
23622SOL     OW76828   0.139   5.313   6.275 -0.0435 -0.2003 -0.0707
23622SOL    HW176829   0.058   5.301   6.326  0.1395 -0.7671  0.1014
23622SOL    HW276830   0.209   5.283   6.334  0.2523 -0.0913 -0.3614
23623SOL     OW76831  10.736   5.603   7.456 -0.0677 -0.3220 -0.1352
23623SOL    HW176832  10.707   5.674   7.513  0.6948  0.0058 -0.1361
23623SOL    HW276833  10.790   5.548   7.512 -0.7266 -0.9586 -0.1128
23624SOL     OW76834  10.510   6.752   1.489  0.2692  0.0834  0.0190
23624SOL    HW176835  10.550   6.780   1.407  3.2773  0.8959  1.6505
23624SOL    HW276836  10.416   6.770   1.477  0.9615  2.8928 -2.1643
23625SOL     OW76837   8.354   5.121   1.831 -0.0573 -0.2766  0.0077
23625SOL    HW176838   8.322   5.196   1.881  0.0022 -0.4541  0.3165
23625SOL    HW276839   8.431   5.091   1.880 -1.5879 -2.1710  1.4000
23626SOL     OW76840   3.102   8.476   8.804  0.0435 -0.5125  0.3400
23626SOL    HW176841   3.172   8.410   8.811 -1.1228 -1.9119 -0.6425
23626SOL    HW276842   3.058   8.473   8.889 -0.7191 -1.8729 -0.0787
23627SOL     OW76843   2.451  11.326  12.438  0.1708 -0.1050  0.1364
23627SOL    HW176844   2.402  11.291  12.364  0.7083 -1.2029  0.2880
23627SOL    HW276845   2.543  11.307  12.417  0.2952 -0.8585  1.3093
23628SOL     OW76846   3.987   4.008   7.902  0.6357  0.1972  0.0939
23628SOL    HW176847   3.915   3.948   7.882  1.0123 -0.3986  0.5021
23628SOL    HW276848   4.059   3.977   7.848  0.7466  0.4541  0.0962
23629SOL     OW76849   8.916   1.744   3.709 -0.3083 -0.3892  0.2347
23629SOL    HW176850   8.988   1.693   3.748  1.0358 -0.0099 -1.5974
23629SOL    HW276851   8.934   1.834   3.736  0.2797 -0.2102 -0.7140
23630SOL     OW76852   6.696   3.464   0.542  0.0299 -0.8609 -0.4276
23630SOL    HW176853   6.762   3.515   0.496  0.7206 -0.5407  0.8771
23630SOL    HW276854   6.740   3.434   0.621 -1.1371 -1.3637  0.0509
23631SOL     OW76855  10.383   9.627   4.673  0.2863  0.5032 -0.1543
23631SOL    HW176856  10.463   9.624   4.725  0.3406  0.3663 -0.2457
23631SOL    HW276857  10.412   9.620   4.583  0.1004 -0.7332 -0.1332
23632SOL     OW76858   7.084  10.626   9.037  0.4215  0.1453 -0.0722
23632SOL    HW176859   6.997  10.587   9.036  0.5470 -0.1267 -1.3229
23632SOL    HW276860   7.115  10.612   9.127 -1.6678  2.2004  1.0846
23633SOL     OW76861   6.796   6.118  10.980  0.1672 -0.9733 -0.2140
23633SOL    HW176862   6.790   6.030  10.944  1.1361 -0.8176 -0.8145
23633SOL    HW276863   6.871   6.157  10.934 -0.5834  0.3485 -0.3715
23634SOL     OW76864   8.732   8.969   2.653  0.0969 -0.1685  0.8437
23634SOL    HW176865   8.704   8.971   2.744 -0.0057  0.9385  0.7953
23634SOL    HW276866   8.778   9.052   2.639 -0.9973  0.2606 -0.4581
23635SOL     OW76867   9.997   4.091   1.658 -0.4780  0.2002  0.2785
23635SOL    HW176868  10.008   4.049   1.743 -0.1057 -2.2794 -0.9192
23635SOL    HW276869  10.069   4.153   1.653 -0.3135  0.1579  1.6138
23636SOL     OW76870   5.132   4.804   6.484 -0.3349  0.0810  0.5885
23636SOL    HW176871   5.202   4.858   6.520  1.3073 -1.5521 -0.0338
23636SOL    HW276872   5.052   4.842   6.520  0.7757  2.4566  0.7452
23637SOL     OW76873   7.678  12.077   0.594  0.5185 -0.0490  0.2480
23637SOL    HW176874   7.596  12.051   0.553  0.3270 -0.1060  0.6572
23637SOL    HW276875   7.663  12.167   0.624  1.4900  0.9192 -1.9798
23638SOL     OW76876   2.510   2.631   5.713  0.2103  0.1265 -0.0037
23638SOL    HW176877   2.566   2.660   5.785 -0.7738  1.7140  0.1815
23638SOL    HW276878   2.537   2.685   5.639 -0.8536  0.7298  0.0222
23639SOL     OW76879   4.210   4.807  11.869  0.3734 -0.7682 -0.4747
23639SOL    HW176880   4.124   4.766  11.883 -0.2707  0.2164 -1.3648
23639SOL    HW276881   4.227   4.796  11.776 -0.2840  1.7629 -0.9678
23640SOL     OW76882   8.058   7.470   0.334  0.6753 -0.3441  0.3303
23640SOL    HW176883   8.055   7.407   0.262  3.0689 -0.7304  0.4643
23640SOL    HW276884   8.077   7.554   0.292  0.4373 -0.2636  0.3833
23641SOL     OW76885   2.893   2.141   1.295  0.0546  0.2612 -0.5815
23641SOL    HW176886   2.969   2.087   1.316 -1.2995 -2.3146 -1.8532
23641SOL    HW276887   2.841   2.141   1.375 -1.1877 -2.6941 -1.2507
23642SOL     OW76888   8.122   7.997   7.710  0.1655 -0.7333 -0.1245
23642SOL    HW176889   8.134   8.077   7.660 -3.1108  1.0240  1.5359
23642SOL    HW276890   8.187   8.003   7.781 -0.4487  0.8921  0.3629
23643SOL     OW76891  12.357   4.820  10.694  0.5145  0.0515 -0.3731
23643SOL    HW176892  12.430   4.798  10.752  0.2624 -1.3914 -0.5663
23643SOL    HW276893  12.279   4.793  10.742  0.3013 -1.2182 -1.3515
23644SOL     OW76894   8.562  12.276   9.773 -0.0504  0.3821  0.1139
23644SOL    HW176895   8.618  12.238   9.705  1.5848  1.2838  0.8939
23644SOL    HW276896   8.477  12.232   9.762  0.8358 -1.1473 -1.0262
23645SOL     OW76897   3.328   2.498   5.302 -0.1839  0.3476 -0.0650
23645SOL    HW176898   3.334   2.413   5.259  0.4486  0.3781 -0.0398
23645SOL    HW276899   3.249   2.538   5.265 -0.1935 -0.0342 -0.4575
23646SOL     OW76900   8.616   6.543   9.343 -0.0427 -0.0253 -0.6906
23646SOL    HW176901   8.605   6.626   9.389  2.3466  0.0467 -0.1104
23646SOL    HW276902   8.596   6.563   9.251  1.2904  1.4443 -0.6995
23647SOL     OW76903   6.703   1.302   8.730  0.4796 -0.1421  0.0563
23647SOL    HW176904   6.729   1.356   8.804  0.5327 -1.0460  0.7073
23647SOL    HW276905   6.780   1.299   8.674  0.4819  0.4344  0.0217
23648SOL     OW76906   6.373   4.999  12.076 -0.1302  0.7156  0.6565
23648SOL    HW176907   6.320   4.920  12.090 -1.3456  1.2652 -0.5880
23648SOL    HW276908   6.363   5.018  11.983  0.5060  2.0991  0.8420
23649SOL     OW76909   2.670   3.987   4.834  0.5438  0.0948  0.2280
23649SOL    HW176910   2.625   4.045   4.896  0.8452 -1.7838  2.3175
23649SOL    HW276911   2.763   4.006   4.846  0.5690  1.1561 -1.2275
23650SOL     OW76912   7.608   1.356   8.144  0.1482  0.2584 -0.4581
23650SOL    HW176913   7.568   1.317   8.222 -0.4856 -0.9370 -1.3486
23650SOL    HW276914   7.666   1.288   8.111  0.0023  0.5530 -1.3356
23651SOL     OW76915   2.497   0.911   7.563  0.1022  0.2468 -0.0537
23651SOL    HW176916   2.447   0.992   7.569  1.0608  0.7815  1.7518
23651SOL    HW276917   2.585   0.939   7.540  0.5053 -0.2168  0.8437
23652SOL     OW76918  10.824   4.699  11.417 -0.0971  0.1905  0.2373
23652SOL    HW176919  10.786   4.731  11.499 -0.7118 -1.4702  0.6364
23652SOL    HW276920  10.892   4.763  11.396  1.7526 -0.5562  3.3239
23653SOL     OW76921   8.010   0.332   2.650 -0.8238  0.0442  0.3786
23653SOL    HW176922   8.018   0.403   2.714 -0.4336 -0.9063  1.4203
23653SOL    HW276923   7.946   0.273   2.689 -0.1617 -0.8242  0.1706
23654SOL     OW76924   4.706   3.124   9.414 -0.3129 -0.4541 -0.7844
23654SOL    HW176925   4.617   3.151   9.394 -0.5544 -1.2819 -0.8501
23654SOL    HW276926   4.750   3.205   9.440 -1.9396 -0.4524  2.4298
23655SOL     OW76927  10.670   9.913   4.623 -0.0771  0.1807 -0.8537
23655SOL    HW176928  10.630   9.827   4.612  1.1870 -0.4209 -0.9783
23655SOL    HW276929  10.601   9.968   4.660  0.2061 -1.9838  3.5331
23656SOL     OW76930   3.432  11.940   3.088 -0.1402 -0.0023 -0.1943
23656SOL    HW176931   3.339  11.935   3.110 -0.6068  0.9819 -1.7799
23656SOL    HW276932   3.452  11.854   3.051 -0.9708  0.4335 -1.7357
23657SOL     OW76933  11.034   4.465  11.550 -0.3260  0.7138 -0.1894
23657SOL    HW176934  11.009   4.373  11.552  0.6836  0.3599  3.1674
23657SOL    HW276935  10.955   4.512  11.576 -1.0547  0.9399 -2.6372
23658SOL     OW76936   1.084   0.065  11.608  0.7812  0.1139 -0.1004
23658SOL    HW176937   1.068   0.142  11.662 -0.2607 -0.0686 -0.1236
23658SOL    HW276938   1.057   0.093  11.520  0.6489 -0.1927 -0.1559
23659SOL     OW76939   5.904   3.044   8.539  0.2886 -0.1280 -0.0745
23659SOL    HW176940   5.955   3.003   8.469 -0.7482 -1.4753 -0.0975
23659SOL    HW276941   5.874   3.127   8.502 -0.2397 -0.8136 -1.2531
23660SOL     OW76942   1.021   7.496   8.371  0.1631  0.3172 -0.1933
23660SOL    HW176943   1.059   7.491   8.458  1.3171  2.6939 -0.4779
23660SOL    HW276944   0.957   7.567   8.377 -2.5673 -1.9120 -0.4056
23661SOL     OW76945  11.265  12.420   2.867  0.4455  0.2366 -0.2569
23661SOL    HW176946  11.183  12.429   2.819  1.4583  1.5152 -1.8132
23661SOL    HW276947  11.238  12.410   2.959 -1.4421  0.1552 -0.7898
23662SOL     OW76948   1.201   3.473  10.552 -0.0592  0.4670 -0.0353
23662SOL    HW176949   1.233   3.539  10.491 -1.1586  1.2116  0.1659
23662SOL    HW276950   1.271   3.408  10.557  0.3517  0.7735 -1.5071
23663SOL     OW76951  11.500  10.499  12.408 -0.2772  0.1749  0.2325
23663SOL    HW176952  11.452  10.582  12.400 -0.1437  0.2771  0.4822
23663SOL    HW276953  11.457  10.440  12.346 -1.8464 -0.2667  1.6881
23664SOL     OW76954   4.404  10.408  12.194  0.3333 -0.0410 -0.1024
23664SOL    HW176955   4.337  10.477  12.189  1.4619  1.3054  1.9144
23664SOL    HW276956   4.430  10.407  12.286  2.8160 -0.7771 -0.7423
23665SOL     OW76957   6.170   9.247   7.389  0.4033 -0.3576  0.2568
23665SOL    HW176958   6.151   9.272   7.298  3.8367  0.3466 -0.3997
23665SOL    HW276959   6.171   9.151   7.388 -0.9713 -0.3882 -0.0729
23666SOL     OW76960   0.739   2.565   2.726  0.2509  0.0619  0.6788
23666SOL    HW176961   0.659   2.550   2.676  0.8037  0.9331 -0.5159
23666SOL    HW276962   0.729   2.653   2.762  0.1062 -0.3401  1.6592
23667SOL     OW76963   8.307  11.504   7.829 -0.2176  0.3339 -0.1019
23667SOL    HW176964   8.347  11.585   7.797 -0.3493  0.5064  0.1663
23667SOL    HW276965   8.380  11.443   7.838  0.2451  1.1027  1.8284
23668SOL     OW76966   5.463   6.106   9.200  0.2481 -0.7221  0.5545
23668SOL    HW176967   5.455   6.146   9.287 -0.6065 -0.0720  0.1976
23668SOL    HW276968   5.554   6.123   9.174  0.6004 -1.1879  1.4334
23669SOL     OW76969  12.083  12.488  10.800  0.0034  0.0357  0.4690
23669SOL    HW176970  12.041  12.464  10.883  0.2087  0.3721  0.6718
23669SOL    HW276971  12.086  12.583  10.801 -1.3668  0.1209 -0.6165
23670SOL     OW76972  11.916   8.617   7.787 -0.1663  0.0951 -0.0627
23670SOL    HW176973  11.898   8.661   7.870  0.5426  2.5638 -1.1213
23670SOL    HW276974  12.006   8.642   7.767 -1.1936  1.9588 -2.8877
23671SOL     OW76975   6.265   1.769   1.798  0.1432  0.0341 -0.5474
23671SOL    HW176976   6.325   1.805   1.864 -0.1362  0.1286 -0.3452
23671SOL    HW276977   6.258   1.837   1.732  0.8764 -0.2864 -0.9665
23672SOL     OW76978   5.489   0.427   0.530 -0.2164  0.0594  0.0281
23672SOL    HW176979   5.573   0.411   0.573 -0.3371  0.1144  0.2797
23672SOL    HW276980   5.459   0.511   0.564 -1.0237 -0.5914  0.9716
23673SOL     OW76981   4.519  12.174   6.663  1.1863  0.1984  0.0222
23673SOL    HW176982   4.613  12.187   6.667  0.9507  2.8482 -0.9350
23673SOL    HW276983   4.487  12.207   6.747  0.9547  1.7346 -0.6335
23674SOL     OW76984  10.511   1.650   5.715 -0.1548 -0.4813 -0.0495
23674SOL    HW176985  10.598   1.689   5.716 -0.2283 -0.2561  2.1013
23674SOL    HW276986  10.459   1.707   5.659  0.0450  1.8841  2.0207
23675SOL     OW76987  10.585   7.304   4.208  0.3814 -0.7005 -0.2319
23675SOL    HW176988  10.574   7.216   4.243  2.9451 -0.8427  0.4643
23675SOL    HW276989  10.645   7.347   4.269  1.2663  0.6263 -1.9176
23676SOL     OW76990   8.510  11.307   0.329 -0.0370 -0.3974  0.3260
23676SOL    HW176991   8.482  11.389   0.370  1.4280 -0.8302  2.3358
23676SOL    HW276992   8.458  11.239   0.373  0.8654 -0.7827  0.8313
23677SOL     OW76993   3.465   4.490   0.436  0.8925  0.1219  0.3538
23677SOL    HW176994   3.405   4.563   0.418  1.1731  0.1302 -0.5873
23677SOL    HW276995   3.551   4.524   0.413  1.4487  0.4964  2.7722
23678SOL     OW76996   3.559   5.679   4.378 -0.1243  0.8126 -0.1167
23678SOL    HW176997   3.649   5.699   4.401  1.1787 -3.4407 -0.7054
23678SOL    HW276998   3.544   5.727   4.296  2.3962  0.0117 -1.1435
23679SOL     OW76999   6.701   2.386   5.576 -0.3297 -0.0358  0.4637
23679SOL    HW177000   6.683   2.416   5.487 -0.9948 -3.3467 -0.6670
23679SOL    HW277001   6.795   2.399   5.587  0.1865 -1.4421 -1.6207
23680SOL     OW77002   0.244   0.503   6.617  0.6442 -0.4623  0.0856
23680SOL    HW177003   0.308   0.570   6.639  0.1510 -0.2755  0.9588
23680SOL    HW277004   0.213   0.527   6.529  1.5214 -0.3769 -0.2112
23681SOL     OW77005  11.870   6.286   8.106  0.1422  0.4728  0.3018
23681SOL    HW177006  11.901   6.373   8.128 -0.3559  0.3223  1.6626
23681SOL    HW277007  11.939   6.250   8.049 -0.1838  2.1307 -1.2028
23682SOL     OW77008   7.468   2.422   0.616  0.4002 -0.2001 -0.1580
23682SOL    HW177009   7.438   2.361   0.549  0.3133  0.0812 -0.3763
23682SOL    HW277010   7.419   2.502   0.599 -0.2871 -0.4001  0.7962
23683SOL     OW77011  11.405   6.928   8.935  0.7528 -0.4664  0.0888
23683SOL    HW177012  11.349   6.867   8.886 -0.9741  1.7359 -0.8414
23683SOL    HW277013  11.475   6.950   8.874  0.3711 -0.1510 -0.2406
23684SOL     OW77014   1.059   9.682   1.596 -0.1976  0.1852 -0.4259
23684SOL    HW177015   0.967   9.659   1.587 -0.3624 -0.1221  1.6062
23684SOL    HW277016   1.082   9.655   1.685  1.3853  1.8587 -0.2710
23685SOL     OW77017   9.772   3.931   4.013  0.1924  0.1936  0.1683
23685SOL    HW177018   9.864   3.908   4.002 -0.3252 -1.4922 -1.1480
23685SOL    HW277019   9.749   3.978   3.932  0.1394  1.5691  0.9548
23686SOL     OW77020   6.011   3.770   9.338  0.4604  0.4702  0.5982
23686SOL    HW177021   5.940   3.737   9.393 -0.0866  1.2464  0.3646
23686SOL    HW277022   6.091   3.747   9.386 -0.0246  2.5433  2.5615
23687SOL     OW77023   9.820   5.965   2.912  0.4348  0.1422  0.2866
23687SOL    HW177024   9.860   5.907   2.848 -1.0250  0.6465 -1.1599
23687SOL    HW277025   9.846   6.053   2.883 -1.3694  0.4568 -0.5032
23688SOL     OW77026   4.543   7.280   1.059 -0.7627  0.1508 -0.2187
23688SOL    HW177027   4.472   7.342   1.074  1.3543  2.4871  0.8785
23688SOL    HW277028   4.548   7.228   1.139  0.3517  1.7805  0.8333
23689SOL     OW77029   9.311   2.150   3.136  0.3801  0.2807 -0.1737
23689SOL    HW177030   9.245   2.165   3.068  2.2351  0.4688 -2.0321
23689SOL    HW277031   9.264   2.162   3.218 -1.5059  2.1010 -1.4237
23690SOL     OW77032  10.137  10.755   3.164 -0.0841  0.0239  0.3292
23690SOL    HW177033  10.186  10.793   3.092 -0.5061  0.2579  0.1644
23690SOL    HW277034  10.048  10.790   3.155 -0.1450  0.0485  0.9513
23691SOL     OW77035  12.407  10.030   7.460 -0.3648 -0.1230  0.1872
23691SOL    HW177036  12.455  10.074   7.389  0.8434 -1.5861  0.0423
23691SOL    HW277037  12.443  10.068   7.540 -0.3958  0.2072  0.0455
23692SOL     OW77038   0.379   4.076   5.494 -0.2431  0.7572 -0.0572
23692SOL    HW177039   0.336   4.073   5.408  1.6455 -0.3900 -1.0216
23692SOL    HW277040   0.363   3.989   5.532  1.9511 -0.0662 -0.8652
23693SOL     OW77041  10.911  10.480   0.094  0.1997  0.0528 -0.4628
23693SOL    HW177042  10.855  10.495   0.170  0.5101  1.3654 -0.4583
23693SOL    HW277043  10.895  10.389   0.069  1.1837 -0.9090  2.0770
23694SOL     OW77044   5.927   2.975   4.664 -0.7284  0.1277 -0.0961
23694SOL    HW177045   5.991   3.046   4.667  0.3235 -0.7521 -0.9969
23694SOL    HW277046   5.950   2.918   4.737 -0.4927 -0.1773 -0.4058
23695SOL     OW77047   8.800  10.002   9.493  0.0922 -0.1340  0.2248
23695SOL    HW177048   8.806   9.928   9.432  0.4082  0.3912 -0.3903
23695SOL    HW277049   8.749  10.068   9.447  1.0980  0.6198  0.1499
23696SOL     OW77050   6.296   1.898   0.488  0.7151 -0.0923  0.1790
23696SOL    HW177051   6.208   1.889   0.451  0.8743 -2.3742  0.1922
23696SOL    HW277052   6.302   1.990   0.514 -1.3568  0.3081 -0.5529
23697SOL     OW77053   8.296   6.664   6.241  0.3872  0.4720  0.2736
23697SOL    HW177054   8.380   6.707   6.261  0.0813  0.2294  2.3502
23697SOL    HW277055   8.230   6.732   6.256  0.0607 -0.0313  1.2023
23698SOL     OW77056   4.679  10.642  11.925  0.1377 -0.2754 -0.1363
23698SOL    HW177057   4.605  10.587  11.899  0.4926 -0.2485 -1.2730
23698SOL    HW277058   4.686  10.631  12.020 -1.7870  0.2927  0.1164
23699SOL     OW77059   2.938   3.173   7.301  0.4907  0.3444  0.2724
23699SOL    HW177060   2.912   3.262   7.276 -0.3827 -0.5085 -2.1535
23699SOL    HW277061   3.031   3.168   7.278  0.7487  0.8556  1.1692
23700SOL     OW77062   8.502   0.781   6.969  0.1722 -0.1346 -0.2009
23700SOL    HW177063   8.582   0.832   6.980 -0.5588  0.9766  0.0944
23700SOL    HW277064   8.526   0.711   6.907  1.3142  0.2769 -0.2354
23701SOL     OW77065   6.345   1.464   7.081 -0.6706  0.0262 -0.2616
23701SOL    HW177066   6.426   1.512   7.063 -0.4946 -0.3548 -0.4853
23701SOL    HW277067   6.359   1.378   7.042 -2.4622  0.9744 -3.4085
23702SOL     OW77068   8.490  11.340   5.500  0.3821  0.1173  0.1768
23702SOL    HW177069   8.414  11.306   5.453  0.9309  0.0286 -0.6693
23702SOL    HW277070   8.557  11.352   5.432  0.5477  1.9348  0.6089
23703SOL     OW77071   5.839   7.755  10.425 -0.3606  0.1515  0.2623
23703SOL    HW177072   5.849   7.660  10.431 -2.5547 -0.1400  0.2608
23703SOL    HW277073   5.814   7.783  10.513  1.1849  0.8990  0.4955
23704SOL     OW77074   5.301   3.483   3.700  0.6466  0.8697 -0.6136
23704SOL    HW177075   5.304   3.401   3.751 -0.4346  0.5388 -1.0589
23704SOL    HW277076   5.291   3.551   3.766  0.1561  0.5239 -0.3229
23705SOL     OW77077  10.624  11.985   7.367 -0.5141 -0.5393 -0.1758
23705SOL    HW177078  10.627  11.890   7.377 -1.1174 -0.4702  0.8136
23705SOL    HW277079  10.704  12.007   7.320  1.0070 -1.2825  1.9148
23706SOL     OW77080   3.263   1.166   7.964 -0.4664 -0.4005 -0.2807
23706SOL    HW177081   3.263   1.232   8.034  0.2323 -0.9102  0.2159
23706SOL    HW277082   3.181   1.180   7.918  0.5065  2.1839 -1.4675
23707SOL     OW77083   2.911   8.345   0.919 -0.1414 -0.4330  0.0349
23707SOL    HW177084   2.916   8.366   0.826 -0.9834 -0.2565  0.0198
23707SOL    HW277085   2.954   8.418   0.963  2.0398 -1.4331 -0.2841
23708SOL     OW77086   6.795   2.839   6.051 -0.0054 -0.7741  0.2953
23708SOL    HW177087   6.796   2.792   6.134 -0.6198  1.3946  1.6028
23708SOL    HW277088   6.837   2.779   5.989  2.7071 -1.5495  2.6658
23709SOL     OW77089   6.547   1.443  10.654  0.0293  0.0782 -0.3049
23709SOL    HW177090   6.547   1.402  10.740  0.4971 -1.8087 -1.1619
23709SOL    HW277091   6.457   1.438  10.625  0.1906 -0.9471 -0.6608
23710SOL     OW77092   1.157   8.917   9.684  0.3531  0.2819  0.4473
23710SOL    HW177093   1.210   8.901   9.605 -0.0385  0.8215  0.0650
23710SOL    HW277094   1.085   8.855   9.677  0.6521 -0.0966  0.7025
23711SOL     OW77095   0.042  10.435   9.707  0.4047 -0.0939 -0.6577
23711SOL    HW177096  -0.028  10.488   9.667 -0.0588 -0.2468 -0.0661
23711SOL    HW277097   0.084  10.494   9.769 -0.7818 -0.6706  0.7706
23712SOL     OW77098   9.754   0.164   7.508 -0.2059  0.6807 -0.1068
23712SOL    HW177099   9.745   0.212   7.425 -1.9827 -1.5617 -1.3389
23712SOL    HW277100   9.832   0.109   7.496 -1.5605 -1.1267 -1.2206
23713SOL     OW77101   5.874   8.486  10.562  0.1943 -0.1335  0.0114
23713SOL    HW177102   5.793   8.494  10.612 -0.5859  0.9802 -1.3588
23713SOL    HW277103   5.943   8.510  10.624 -0.8048  1.9704  0.3943
23714SOL     OW77104   3.621   2.239   3.999 -0.1841 -0.0788  0.2676
23714SOL    HW177105   3.569   2.158   3.997  0.3542 -0.4276  0.3139
23714SOL    HW277106   3.611   2.276   3.911 -0.8103  0.0486  0.3893
23715SOL     OW77107  10.563   7.284  11.850  0.6518  0.1689  0.0894
23715SOL    HW177108  10.561   7.223  11.777 -0.2417 -0.2756  0.4599
23715SOL    HW277109  10.655   7.306  11.861  1.0526 -1.3651  0.1337
23716SOL     OW77110   2.652  10.189   1.358  0.3573  0.3351  0.3814
23716SOL    HW177111   2.596  10.198   1.280 -1.7293  1.2396  1.8872
23716SOL    HW277112   2.680  10.279   1.376 -1.0136  0.5025  1.8953
23717SOL     OW77113   0.052   6.064   3.078 -0.0473 -0.2490 -0.0187
23717SOL    HW177114   0.043   6.085   2.985 -1.5581 -1.7606 -0.2643
23717SOL    HW277115  -0.011   6.121   3.122  0.4308  0.2315  0.0502
23718SOL     OW77116   3.828   6.447   0.722  0.3045  0.2699 -0.6365
23718SOL    HW177117   3.829   6.511   0.793  1.5269 -0.0919 -0.3039
23718SOL    HW277118   3.802   6.497   0.645 -1.7888  0.5178  0.1680
23719SOL     OW77119   9.985   4.555   6.240 -0.2588 -0.0496  0.2082
23719SOL    HW177120   9.996   4.553   6.335 -1.7366 -0.9949  0.3912
23719SOL    HW277121  10.009   4.644   6.216  2.3454 -0.4164  1.1375
23720SOL     OW77122   2.617   8.352   8.171 -0.2985 -0.2219 -0.3152
23720SOL    HW177123   2.694   8.296   8.183 -0.6982 -0.6317  0.4183
23720SOL    HW277124   2.551   8.316   8.231 -1.2984 -0.2957 -1.4253
23721SOL     OW77125  12.389   7.723  10.392 -0.0730  0.3855 -0.4848
23721SOL    HW177126  12.381   7.671  10.312 -1.1127 -0.1880 -0.0261
23721SOL    HW277127  12.309   7.704  10.441  0.3065  1.1369  0.4540
23722SOL     OW77128  11.507   9.370   1.517 -0.0919  0.0102 -0.0029
23722SOL    HW177129  11.455   9.346   1.593 -0.4060 -1.8563 -0.7442
23722SOL    HW277130  11.443   9.378   1.446  0.4608 -0.9725 -0.6313
23723SOL     OW77131   1.835   2.111   5.597  0.1352  0.1876  0.5645
23723SOL    HW177132   1.743   2.135   5.594  0.1355  0.0945 -0.9670
23723SOL    HW277133   1.845   2.066   5.681 -0.4642  2.9565  2.2201
23724SOL     OW77134   0.278   2.126  10.537 -0.4657 -0.5412 -0.3208
23724SOL    HW177135   0.324   2.206  10.564 -1.1753 -0.3290  0.3072
23724SOL    HW277136   0.337   2.055  10.561 -0.5022 -0.2780  0.6031
23725SOL     OW77137   4.626   7.769  11.722  0.1538  0.2621  0.6223
23725SOL    HW177138   4.550   7.827  11.717 -0.4117 -0.2873  2.1474
23725SOL    HW277139   4.618   7.712  11.645 -2.1426 -1.0903  1.7601
23726SOL     OW77140  10.330   3.371   0.814  0.2833  0.1849 -0.3624
23726SOL    HW177141  10.423   3.394   0.804 -0.1177  1.0657 -2.6373
23726SOL    HW277142  10.285   3.455   0.823 -0.2956 -0.2509  1.0525
23727SOL     OW77143   2.585   5.747  12.157  0.1602 -0.8590 -0.3104
23727SOL    HW177144   2.661   5.689  12.150  2.2265  1.8169 -2.7858
23727SOL    HW277145   2.618   5.832  12.129 -3.1889  1.0815  1.1103
23728SOL     OW77146   8.797  12.372   7.854 -0.2100  0.1393 -0.6387
23728SOL    HW177147   8.850  12.296   7.877  0.2795 -0.0876 -2.3615
23728SOL    HW277148   8.724  12.371   7.915  1.1016 -0.2640  0.9749
23729SOL     OW77149   3.176   0.626   3.155  0.0155  0.5824  1.1910
23729SOL    HW177150   3.242   0.607   3.088  0.1323  2.3565  0.7576
23729SOL    HW277151   3.098   0.649   3.106 -0.3169  0.5025  1.6793
23730SOL     OW77152   2.501   0.974   8.571  0.0986 -0.0936  0.2318
23730SOL    HW177153   2.581   0.970   8.622  1.4293  0.7210 -1.6645
23730SOL    HW277154   2.462   1.059   8.592  1.5288  0.9915 -1.2685
23731SOL     OW77155  11.028   2.334   5.243 -0.3659  0.2612  0.3484
23731SOL    HW177156  11.040   2.429   5.251 -2.6046  0.4392  2.7457
23731SOL    HW277157  10.944   2.324   5.198  2.1814 -0.8221 -4.9879
23732SOL     OW77158   1.421   6.412   5.808  0.0758 -0.7604  0.0286
23732SOL    HW177159   1.372   6.346   5.758  0.3705 -0.0263 -1.2746
23732SOL    HW277160   1.358   6.482   5.823  0.2101 -0.6266 -0.0277
23733SOL     OW77161  10.453  10.746  10.635  0.4998 -0.0614  0.0560
23733SOL    HW177162  10.537  10.774  10.600  0.1239 -1.0550 -1.7785
23733SOL    HW277163  10.396  10.823  10.626  0.9685  0.3454  0.5122
23734SOL     OW77164   0.558   8.205   9.806 -0.3129 -0.4950  0.1644
23734SOL    HW177165   0.521   8.280   9.854 -1.2779 -0.7261 -0.1849
23734SOL    HW277166   0.496   8.190   9.734  1.5942  0.4821 -1.8036
23735SOL     OW77167  11.244   6.374   0.292  0.5182  0.0116 -0.0592
23735SOL    HW177168  11.191   6.420   0.357  1.0555 -0.1477  0.5013
23735SOL    HW277169  11.315   6.435   0.270  0.0238  0.2921 -0.9345
23736SOL     OW77170   6.792   5.746   9.262  0.3522  0.1981 -0.1490
23736SOL    HW177171   6.702   5.718   9.278  0.1160  2.4925  4.1032
23736SOL    HW277172   6.846   5.683   9.310  0.9921 -0.4122 -1.5993
23737SOL     OW77173   7.218  12.236   2.826  0.1763 -0.2406  0.0536
23737SOL    HW177174   7.132  12.238   2.868  0.1899  0.7359  0.0609
23737SOL    HW277175   7.276  12.279   2.889  0.4834 -0.0655 -0.3435
23738SOL     OW77176   7.690   4.332   0.726 -0.3247 -0.5401  0.1300
23738SOL    HW177177   7.755   4.320   0.657  0.1835  0.0267  0.5006
23738SOL    HW277178   7.655   4.419   0.711  0.1428 -0.2112  0.8672
23739SOL     OW77179   6.082   1.783   9.577  0.3027  0.0475 -0.0716
23739SOL    HW177180   6.002   1.789   9.629  0.0233 -0.4899 -0.4251
23739SOL    HW277181   6.098   1.872   9.546  0.7038  0.4644  1.2551
23740SOL     OW77182   4.616   4.056   0.251  0.1830 -0.1006 -0.2327
23740SOL    HW177183   4.605   4.021   0.163 -1.4956  0.9205 -0.4907
23740SOL    HW277184   4.527   4.059   0.286  0.7481  0.1279  1.2606
23741SOL     OW77185  12.059  11.979  11.165  0.4222 -0.0441 -0.3432
23741SOL    HW177186  12.142  12.025  11.154  0.4482 -0.2837 -1.2470
23741SOL    HW277187  12.052  11.922  11.088 -1.3047  1.1022 -1.1051
23742SOL     OW77188   8.115   6.798   8.245 -0.6611 -0.3833  0.1310
23742SOL    HW177189   8.190   6.772   8.192 -0.6809 -0.4508  0.1365
23742SOL    HW277190   8.148   6.869   8.301 -0.3596 -1.0225  0.7727
23743SOL     OW77191  10.623   9.066   6.287 -0.2484 -0.4479 -0.3939
23743SOL    HW177192  10.567   9.134   6.252 -0.2577 -0.0570  0.3610
23743SOL    HW277193  10.583   8.984   6.257 -1.3047 -0.1850  0.2192
23744SOL     OW77194  11.431   5.537   8.735  0.0908  0.1157 -0.2476
23744SOL    HW177195  11.388   5.556   8.652 -0.3633  0.4378  0.0540
23744SOL    HW277196  11.366   5.488   8.786  0.1571  0.4216  0.1365
23745SOL     OW77197   7.275   0.703  10.488 -0.2921 -0.2683 -0.3108
23745SOL    HW177198   7.224   0.768  10.537  2.1043  1.0361  0.6563
23745SOL    HW277199   7.264   0.622  10.537 -0.4673  0.2798  0.5810
23746SOL     OW77200   0.353   1.758  10.337 -0.4836  0.0876 -0.0734
23746SOL    HW177201   0.396   1.711  10.408  0.4805  2.1843  0.8090
23746SOL    HW277202   0.395   1.726  10.257  1.2150  0.4803  0.6178
23747SOL     OW77203  12.036   7.497   5.086  0.2660  0.1881 -0.2788
23747SOL    HW177204  12.118   7.508   5.133  0.7497  0.0764 -1.0863
23747SOL    HW277205  12.060   7.452   5.005 -0.8318 -1.4199  0.2384
23748SOL     OW77206   0.479   9.902   0.163  0.3970  0.3602  0.2419
23748SOL    HW177207   0.564   9.912   0.121  0.3088 -1.3147 -0.4052
23748SOL    HW277208   0.497   9.848   0.240 -0.2736 -1.5251 -0.8429
23749SOL     OW77209   2.548   8.560   4.609 -0.1414  0.1184  0.2296
23749SOL    HW177210   2.594   8.516   4.538 -0.3454  2.0581 -1.2059
23749SOL    HW277211   2.598   8.539   4.687  0.5870 -1.4022 -0.6003
23750SOL     OW77212  11.260  10.755   4.096  0.2776  0.3955  0.3646
23750SOL    HW177213  11.208  10.674   4.101  0.6524 -0.1514 -2.6338
23750SOL    HW277214  11.334  10.740   4.155 -1.2717 -0.0893  2.2950
23751SOL     OW77215  11.622   1.553  10.425  0.2253  0.0304  0.8840
23751SOL    HW177216  11.652   1.594  10.506  1.4349 -0.4168  0.6913
23751SOL    HW277217  11.534   1.521  10.444  0.7212 -0.5967  2.2079
23752SOL     OW77218   2.627   6.523   4.814  0.3120 -0.7905 -0.4636
23752SOL    HW177219   2.565   6.480   4.755 -0.2848 -1.1847  0.4311
23752SOL    HW277220   2.713   6.499   4.779 -0.0280 -1.0725 -1.1304
23753SOL     OW77221   8.069  11.278   7.969  0.1853 -0.1593  0.4441
23753SOL    HW177222   8.153  11.322   7.961  0.8642 -1.5665 -0.6449
23753SOL    HW277223   8.052  11.275   8.064  0.4502  1.7142  0.5897
23754SOL     OW77224   1.961   3.356  10.024 -0.3139 -0.2524  0.4603
23754SOL    HW177225   1.921   3.386  10.106 -0.6028  0.0630  0.2012
23754SOL    HW277226   1.920   3.408   9.956 -1.0459 -1.4414 -0.0303
23755SOL     OW77227   2.374  12.452   6.212 -0.6987  0.5544  0.1770
23755SOL    HW177228   2.454  12.451   6.265 -0.7948 -0.6077  0.3247
23755SOL    HW277229   2.371  12.365   6.171 -1.8208  0.6205  0.0771
23756SOL     OW77230  10.119  11.558   2.106  0.0858  0.0336  0.4128
23756SOL    HW177231  10.072  11.494   2.054  1.4341 -1.8370  1.3914
23756SOL    HW277232  10.066  11.569   2.185  1.4959 -2.6828  1.8907
23757SOL     OW77233  12.385   9.169  10.678  0.3555  0.3542 -0.2838
23757SOL    HW177234  12.441   9.094  10.697  0.8749  0.7048 -0.4249
23757SOL    HW277235  12.416   9.238  10.737 -2.1183 -0.4249  2.1691
23758SOL     OW77236  10.560   8.037   0.089  0.2382  0.6670  0.0937
23758SOL    HW177237  10.650   8.004   0.091  0.5600  1.5617  0.8871
23758SOL    HW277238  10.509   7.964   0.053  1.1700 -0.1076  0.2917
23759SOL     OW77239   7.893  10.421   7.911 -0.0218 -0.4354 -0.4133
23759SOL    HW177240   7.817  10.414   7.969 -0.1246 -0.0175 -0.4919
23759SOL    HW277241   7.939  10.499   7.942  1.0989 -1.4092  0.4740
23760SOL     OW77242   0.744   5.006   4.851 -0.2763 -0.0102  0.1645
23760SOL    HW177243   0.771   5.071   4.915 -0.4909 -2.1529  2.5823
23760SOL    HW277244   0.652   5.027   4.833  0.1325  1.3547 -0.4700
23761SOL     OW77245  11.627   6.087   1.834 -0.6694 -0.4871  0.0146
23761SOL    HW177246  11.547   6.122   1.874 -0.9794 -1.9586  0.7574
23761SOL    HW277247  11.596   6.028   1.766 -0.2207 -1.0304  0.2742
23762SOL     OW77248   7.976   4.419   6.135 -0.3148  0.4178 -0.3252
23762SOL    HW177249   8.025   4.416   6.217  1.9100  1.1805 -1.5264
23762SOL    HW277250   7.984   4.509   6.105 -1.8793  0.3841 -0.9573
23763SOL     OW77251  11.496   1.862   7.456  0.2296 -0.3382 -0.5449
23763SOL    HW177252  11.516   1.907   7.374  2.4063 -2.5784 -1.3474
23763SOL    HW277253  11.570   1.803   7.470 -0.6829 -0.9447  2.4052
23764SOL     OW77254   0.543   2.622   0.555  0.2376 -0.6160  0.0146
23764SOL    HW177255   0.454   2.658   0.555  1.3081  2.4061 -1.3771
23764SOL    HW277256   0.569   2.623   0.463  2.6465  1.4210  0.5886
23765SOL     OW77257   4.881  11.427   0.548 -0.6003 -0.0274 -0.1176
23765SOL    HW177258   4.889  11.401   0.639  0.5939  0.5180 -0.0620
23765SOL    HW277259   4.786  11.434   0.534 -0.7727  2.1295  1.7181
23766SOL     OW77260   2.368   4.784  12.194  0.6340 -0.5697 -0.0512
23766SOL    HW177261   2.363   4.747  12.282  0.2115 -0.7246 -0.1371
23766SOL    HW277262   2.411   4.716  12.141  0.7029 -0.5594 -0.0084
23767SOL     OW77263   2.904   1.863   2.732  0.4069 -0.1207 -0.2651
23767SOL    HW177264   2.989   1.825   2.709  1.3085  0.7666  1.3785
23767SOL    HW277265   2.922   1.957   2.737 -0.0186 -0.1268  2.5208
23768SOL     OW77266   4.284   3.011  10.315 -0.1415 -0.5423  0.2848
23768SOL    HW177267   4.325   3.012  10.401 -1.0564 -2.4395  0.7945
23768SOL    HW277268   4.197   3.049  10.329  0.3077  0.7346 -0.1928
23769SOL     OW77269   5.064   3.687   9.585  0.3553  0.5772  0.7012
23769SOL    HW177270   4.977   3.653   9.565  0.3160  0.8989  0.3105
23769SOL    HW277271   5.124   3.616   9.560  0.2014  0.3267  1.0429
23770SOL     OW77272   3.297   8.451   3.677  0.3931  0.3117  0.1966
23770SOL    HW177273   3.379   8.450   3.627  1.1886 -1.2398  1.4190
23770SOL    HW277274   3.262   8.362   3.665 -2.2593  1.5184 -2.0069
23771SOL     OW77275   2.038   1.045   9.403  0.6373 -0.2818  0.1578
23771SOL    HW177276   2.062   1.102   9.330  0.4004 -1.5879 -0.9731
23771SOL    HW277277   2.007   1.105   9.471  2.2404  1.0670 -0.2486
23772SOL     OW77278   9.841   2.428  11.687  0.1935 -0.1908  0.2699
23772SOL    HW177279   9.746   2.426  11.682  0.0636 -0.0541  2.2397
23772SOL    HW277280   9.862   2.516  11.719  1.2265  1.0135 -3.2084
23773SOL     OW77281   8.763   2.583  11.758 -0.7981  0.3555  0.6552
23773SOL    HW177282   8.835   2.588  11.820 -0.8805  0.4032  0.7486
23773SOL    HW277283   8.711   2.662  11.775 -2.0572 -0.7019  2.0888
23774SOL     OW77284   7.260  12.278   1.667 -0.3195  0.6882 -0.0258
23774SOL    HW177285   7.306  12.204   1.627 -0.8259  0.4330 -0.1382
23774SOL    HW277286   7.235  12.333   1.593  0.8099  1.4228  0.1124
23775SOL     OW77287  10.392   3.471   3.594 -0.0531  0.1966  0.0951
23775SOL    HW177288  10.333   3.403   3.627  1.1237 -0.5079  0.7852
23775SOL    HW277289  10.465   3.423   3.555  0.5595  1.0638  0.1471
23776SOL     OW77290   8.319  10.869   0.545  0.0565 -0.5576 -0.0326
23776SOL    HW177291   8.355  10.831   0.465 -0.8602  0.5396 -1.0028
23776SOL    HW277292   8.244  10.812   0.567 -1.3862  0.6592 -1.5472
23777SOL     OW77293   4.262   8.452  11.054 -0.4791 -0.4730 -0.2188
23777SOL    HW177294   4.175   8.425  11.025 -1.2380 -0.2789  1.7524
23777SOL    HW277295   4.256   8.457  11.149  1.7176 -0.5103 -0.0112
23778SOL     OW77296   1.390  11.163  11.034 -0.4539 -0.1602 -0.0337
23778SOL    HW177297   1.346  11.128  11.111 -1.3164  0.3952 -0.2618
23778SOL    HW277298   1.386  11.258  11.044 -1.1523 -0.0641 -1.0649
23779SOL     OW77299   9.075   6.020   1.382 -0.2492  0.5220 -0.4267
23779SOL    HW177300   9.106   6.095   1.330  1.2750  0.3129  0.1285
23779SOL    HW277301   9.155   5.983   1.420 -1.0118 -1.1664 -0.3859
23780SOL     OW77302   6.873   0.935   2.427  0.0002  0.1627 -0.2023
23780SOL    HW177303   6.860   0.867   2.493  2.5882  1.1755  1.4910
23780SOL    HW277304   6.849   1.017   2.471 -4.1064  0.5019 -2.5133
23781SOL     OW77305   9.192  10.908   2.851 -0.3857  0.1339 -0.0347
23781SOL    HW177306   9.276  10.871   2.879  0.4341 -0.7334 -3.2294
23781SOL    HW277307   9.132  10.833   2.851 -0.8890  0.5166  1.1250
23782SOL     OW77308  10.638   3.756   4.786 -0.0113  0.1271 -0.2903
23782SOL    HW177309  10.574   3.827   4.792 -0.7010 -0.5002  0.0141
23782SOL    HW277310  10.723   3.800   4.782 -0.4793  0.9978 -1.2462
23783SOL     OW77311   4.283   2.491   9.572 -0.0817 -0.1503  0.5131
23783SOL    HW177312   4.301   2.562   9.633 -1.1538 -0.3458  1.0816
23783SOL    HW277313   4.311   2.525   9.486  0.6242  0.4518  0.9732
23784SOL     OW77314   0.870   2.474   8.285  0.3472  0.2500  0.2794
23784SOL    HW177315   0.946   2.532   8.285  0.8676 -0.4187  0.2139
23784SOL    HW277316   0.797   2.530   8.263  0.6145  1.1735  1.6256
23785SOL     OW77317  10.822   0.115  12.262  0.5545  0.3418  0.1937
23785SOL    HW177318  10.839   0.028  12.226 -1.4878  0.0545 -0.2262
23785SOL    HW277319  10.823   0.102  12.357  0.9198  0.0099  0.1487
23786SOL     OW77320   7.272   5.105  11.650 -0.4152 -0.0610  0.2060
23786SOL    HW177321   7.280   5.120  11.745  0.1326 -0.1760  0.1810
23786SOL    HW277322   7.313   5.019  11.636 -0.6657 -0.1310 -0.1113
23787SOL     OW77323   2.108   7.771   1.703 -0.3108 -0.2811 -0.4196
23787SOL    HW177324   2.165   7.720   1.760 -2.8290 -2.3589  0.4267
23787SOL    HW277325   2.123   7.862   1.729  0.9818 -0.9125  1.2577
23788SOL     OW77326   8.755   8.025   3.813 -0.6521 -0.0746  0.3061
23788SOL    HW177327   8.772   7.943   3.767  0.3928  0.2602  0.0555
23788SOL    HW277328   8.807   8.019   3.893 -3.2391 -1.0863  2.0363
23789SOL     OW77329   2.348   2.376   0.012  0.0049 -0.1595 -0.6397
23789SOL    HW177330   2.281   2.401   0.077 -0.4069  1.1980 -1.5370
23789SOL    HW277331   2.417   2.442   0.023 -0.0339  0.0359 -1.5097
23790SOL     OW77332   3.395   4.431   3.616 -0.3114 -0.0043  0.2148
23790SOL    HW177333   3.314   4.411   3.663 -1.7358  0.7009 -1.7791
23790SOL    HW277334   3.379   4.400   3.526  1.1673  1.2097 -0.5195
23791SOL     OW77335   6.201   6.986   1.998 -0.0841 -0.2180 -0.8913
23791SOL    HW177336   6.264   6.920   1.967  1.1315 -0.1264  1.2101
23791SOL    HW277337   6.244   7.070   1.980  1.1660 -0.1757  1.8572
23792SOL     OW77338   4.427   7.661   7.511  0.1041  0.0756  0.1258
23792SOL    HW177339   4.494   7.685   7.576  0.3441  0.5762 -0.2944
23792SOL    HW277340   4.463   7.585   7.466 -0.1464 -0.3898  0.7008
23793SOL     OW77341   4.254   4.527   9.122 -0.0805 -0.4290 -0.1032
23793SOL    HW177342   4.337   4.572   9.139  0.4532 -1.4286  0.0272
23793SOL    HW277343   4.266   4.486   9.036  0.1638 -1.8654  0.5852
23794SOL     OW77344   6.401   2.899   0.752 -0.2052  0.3502 -0.2012
23794SOL    HW177345   6.486   2.854   0.760 -0.1074  0.4991 -0.3844
23794SOL    HW277346   6.337   2.828   0.746 -0.2743  0.2244  1.6410
23795SOL     OW77347   7.740   5.581  12.248  0.8427 -0.5738  0.7448
23795SOL    HW177348   7.825   5.586  12.292  0.8963  0.5432  0.5394
23795SOL    HW277349   7.761   5.554  12.159  1.0543  0.2423  0.5360
23796SOL     OW77350   5.872   5.106   1.796  0.0385  0.2220  0.7340
23796SOL    HW177351   5.887   5.106   1.891  0.4524 -2.7332  0.7529
23796SOL    HW277352   5.936   5.045   1.761  1.0592  2.5232 -1.7686
23797SOL     OW77353  12.379   3.196  11.924 -0.1436 -0.2560  0.7333
23797SOL    HW177354  12.463   3.165  11.959  0.0342  1.2548  1.7612
23797SOL    HW277355  12.371   3.152  11.839  0.8225 -1.8029  1.3949
23798SOL     OW77356   5.911   1.025   4.932  0.1615  0.1274 -0.6413
23798SOL    HW177357   5.818   1.026   4.913 -0.0512  1.0729  0.3281
23798SOL    HW277358   5.927   0.938   4.968 -0.3766 -0.0049 -0.7147
23799SOL     OW77359   3.294   5.325   8.423  0.0901 -0.0351 -0.0944
23799SOL    HW177360   3.254   5.286   8.501 -0.3481 -1.1080 -0.8357
23799SOL    HW277361   3.272   5.264   8.352  1.3671  0.3848 -0.8715
23800SOL     OW77362   2.449   5.667   0.207 -0.2610  0.1386  0.4842
23800SOL    HW177363   2.432   5.691   0.298  0.7053  2.9903  0.0329
23800SOL    HW277364   2.370   5.691   0.159  0.4354  1.8916  0.1387
23801SOL     OW77365   5.284   1.288   5.909 -0.3758 -0.5116  0.3873
23801SOL    HW177366   5.311   1.196   5.904 -1.4411 -0.7630 -1.7455
23801SOL    HW277367   5.363   1.338   5.887 -0.2443 -0.9949 -0.2395
23802SOL     OW77368   7.461  12.183   9.488  0.2976 -0.4565 -0.4665
23802SOL    HW177369   7.383  12.177   9.433 -0.0207 -1.8930  0.0701
23802SOL    HW277370   7.535  12.173   9.428  0.0929  0.9097 -0.9781
23803SOL     OW77371   6.750   7.817   6.600 -0.1612  0.0339  0.2321
23803SOL    HW177372   6.824   7.819   6.540 -2.2856  0.8263 -2.5821
23803SOL    HW277373   6.748   7.905   6.638 -0.9946  0.8460 -1.5658
23804SOL     OW77374  10.528   0.316  11.793 -0.1030 -0.5636  1.0626
23804SOL    HW177375  10.516   0.410  11.804 -0.1921 -0.3593 -0.5351
23804SOL    HW277376  10.608   0.307  11.741 -1.5961 -1.1746 -1.3035
23805SOL     OW77377   0.399   1.736  10.055  0.3660  0.2782 -0.2919
23805SOL    HW177378   0.413   1.689   9.972 -1.1057 -1.2046  0.2460
23805SOL    HW277379   0.312   1.774  10.046 -0.5534 -1.3403  1.1814
23806SOL     OW77380   9.968   4.044   9.750  0.2811  0.4716  0.2260
23806SOL    HW177381   9.980   3.977   9.817  1.5034  0.0525 -0.3716
23806SOL    HW277382   9.880   4.027   9.715  0.5303 -0.7854  0.1380
23807SOL     OW77383   9.863   0.595   7.765 -0.3538  0.2624 -0.2518
23807SOL    HW177384   9.777   0.602   7.807  0.2716  0.6720  0.9797
23807SOL    HW277385   9.923   0.574   7.836  0.4790 -0.7135 -1.2067
23808SOL     OW77386   9.454  11.188   7.072 -0.2888 -0.2283  0.5434
23808SOL    HW177387   9.536  11.173   7.120 -0.3897 -1.5755  0.3529
23808SOL    HW277388   9.464  11.275   7.034  0.2820  0.4001  2.0204
23809SOL     OW77389   9.751   4.352   0.328 -0.3132  0.5055 -0.1799
23809SOL    HW177390   9.771   4.436   0.286  1.7235 -0.5020 -1.4104
23809SOL    HW277391   9.732   4.293   0.254 -1.0448 -0.2949  0.6270
23810SOL     OW77392   0.067   9.797   2.528  0.2299  0.3911  0.4736
23810SOL    HW177393   0.130   9.810   2.457 -0.4965 -0.9191 -0.4609
23810SOL    HW277394   0.106   9.728   2.582 -1.4612 -2.3599 -1.5646
23811SOL     OW77395   4.452   6.412   2.008  0.1197 -0.3440  0.0738
23811SOL    HW177396   4.357   6.409   2.008  0.0738 -2.0649  2.8508
23811SOL    HW277397   4.477   6.372   1.924 -1.6220 -1.5558  0.0908
23812SOL     OW77398   6.021   6.535   1.417 -0.1118 -0.5474  0.3441
23812SOL    HW177399   5.940   6.555   1.369  0.4958  2.1507  0.3187
23812SOL    HW277400   6.021   6.439   1.422 -0.7403 -1.0361 -4.1369
23813SOL     OW77401   9.746   1.524   2.305  0.0433 -0.0624 -0.4881
23813SOL    HW177402   9.702   1.469   2.369 -0.4041  0.3702 -0.4169
23813SOL    HW277403   9.824   1.475   2.280  1.7989  0.9151  2.4931
23814SOL     OW77404  10.790   8.612   9.180 -0.2800  0.1921  0.4392
23814SOL    HW177405  10.719   8.585   9.238 -0.6254 -0.2836 -0.1893
23814SOL    HW277406  10.747   8.665   9.113  0.0528  0.4095  0.3971
23815SOL     OW77407   9.760   0.637   3.040  0.0892 -0.0805 -0.3033
23815SOL    HW177408   9.731   0.725   3.066 -0.7655 -0.6595  0.8012
23815SOL    HW277409   9.848   0.629   3.078  1.1389  1.0964 -2.3182
23816SOL     OW77410  10.486   7.002   9.012 -0.4550 -0.1338 -0.3890
23816SOL    HW177411  10.459   7.036   9.098  1.5027  2.0926 -0.5624
23816SOL    HW277412  10.443   6.916   9.006 -0.9573 -0.2111  2.6312
23817SOL     OW77413   3.053   5.527  11.221 -0.0998  0.5402 -0.4597
23817SOL    HW177414   3.139   5.529  11.179  0.0818  0.4943 -0.0969
23817SOL    HW277415   3.014   5.445  11.191 -0.3259  0.9262 -1.2248
23818SOL     OW77416   4.269   1.695   0.287 -0.0483 -0.1210  0.0231
23818SOL    HW177417   4.233   1.764   0.231 -0.5543  0.1534  0.6701
23818SOL    HW277418   4.355   1.728   0.313  0.7825 -0.8405 -1.6422
23819SOL     OW77419   4.960   4.999   7.470 -0.0013  0.5839  0.1783
23819SOL    HW177420   5.040   4.947   7.473 -0.6618 -0.3958  1.7089
23819SOL    HW277421   4.916   4.970   7.391  0.9088  0.8063 -0.4352
23820SOL     OW77422   9.741   4.051   5.076 -0.3588 -0.0674  0.0209
23820SOL    HW177423   9.767   4.103   5.000  1.0349  0.7150  0.9793
23820SOL    HW277424   9.804   3.979   5.078 -1.1580 -0.7841 -0.2568
23821SOL     OW77425  11.977   2.557   1.641 -0.2773 -0.0611  0.0458
23821SOL    HW177426  11.999   2.543   1.733 -0.7041  0.3510  0.2164
23821SOL    HW277427  12.057   2.594   1.603  0.4897 -1.8695 -0.1696
23822SOL     OW77428   9.434  10.192  11.985  0.1493 -0.2072  0.3546
23822SOL    HW177429   9.480  10.271  11.955  1.4367 -1.1150 -0.1619
23822SOL    HW277430   9.437  10.133  11.910 -0.0388 -1.0685  1.0154
23823SOL     OW77431  12.297  10.904   4.828 -0.2118 -0.5080 -0.0206
23823SOL    HW177432  12.288  10.872   4.739 -1.1421 -2.9772  0.8581
23823SOL    HW277433  12.378  10.865   4.860  0.2793  0.6106  0.1562
23824SOL     OW77434   5.798   5.359   8.025  0.7356  0.0886 -0.0998
23824SOL    HW177435   5.889   5.350   7.995  0.8673  2.7212 -0.7581
23824SOL    HW277436   5.746   5.330   7.950  1.0358 -0.1164 -0.2341
23825SOL     OW77437   3.871   8.226   4.360 -0.0645 -0.2596 -0.5163
23825SOL    HW177438   3.846   8.196   4.273 -0.8125 -1.2142  0.0199
23825SOL    HW277439   3.791   8.222   4.411  0.0133  1.7722 -0.1574
23826SOL     OW77440   5.798   7.880   1.145  0.9211 -0.7500 -0.0735
23826SOL    HW177441   5.726   7.818   1.158  0.3590 -0.0232  0.3813
23826SOL    HW277442   5.876   7.832   1.172  0.5000 -1.2814  0.2211
23827SOL     OW77443  10.416  12.412   4.777 -0.1719 -0.6798 -0.2941
23827SOL    HW177444  10.495  12.365   4.750  0.3357  1.9030 -4.1342
23827SOL    HW277445  10.352  12.393   4.708 -2.1381 -0.7929  1.4689
23828SOL     OW77446   9.839  10.004   1.854 -0.3324  0.0691  0.1749
23828SOL    HW177447   9.745  10.017   1.847 -0.2558  1.6921  1.3755
23828SOL    HW277448   9.853   9.974   1.945  0.5224  3.4036  1.2922
23829SOL     OW77449   5.158   2.594   9.259  0.2864 -0.4157 -0.1105
23829SOL    HW177450   5.236   2.561   9.304  0.1398 -0.1681  0.3324
23829SOL    HW277451   5.111   2.643   9.326  0.6574  0.9617 -0.8252
23830SOL     OW77452   9.522   4.901   8.597 -0.0215  0.4163  0.2608
23830SOL    HW177453   9.447   4.931   8.545 -0.7718 -1.0252  0.4515
23830SOL    HW277454   9.548   4.977   8.648 -0.1599  1.4732 -1.1748
23831SOL     OW77455   1.650   5.485  10.479  0.1078  0.5560  0.3857
23831SOL    HW177456   1.581   5.468  10.544 -0.2835 -0.0689 -0.1813
23831SOL    HW277457   1.717   5.420  10.498  0.8768  1.5932  1.3711
23832SOL     OW77458   9.677   7.224   6.729 -0.3189  0.1985 -0.6964
23832SOL    HW177459   9.625   7.189   6.657  0.1407 -0.0378 -0.9178
23832SOL    HW277460   9.685   7.317   6.711  0.7459 -0.0497 -1.5567
23833SOL     OW77461   4.320  12.460   1.450 -0.4882  0.3303 -0.0682
23833SOL    HW177462   4.351  12.369   1.451 -0.6409  0.2118  2.5488
23833SOL    HW277463   4.399  12.512   1.435  0.9046 -0.0795  4.3508
23834SOL     OW77464   5.909   8.507  11.162  0.5001 -1.2664 -0.2100
23834SOL    HW177465   5.974   8.546  11.221  1.3555 -1.0122 -1.2844
23834SOL    HW277466   5.844   8.468  11.220  0.0445  1.0187  0.9233
23835SOL     OW77467   0.598   2.990   3.907  0.1516  0.0363 -0.1431
23835SOL    HW177468   0.591   3.016   3.999  1.1395 -1.2836  0.3312
23835SOL    HW277469   0.615   2.896   3.909  0.3929  0.0153 -1.6744
23836SOL     OW77470   8.182   7.040   7.348 -1.0385 -0.5266  0.6952
23836SOL    HW177471   8.199   7.127   7.385  2.9715 -0.9356  0.2439
23836SOL    HW277472   8.100   7.051   7.299 -1.0266  2.8018  1.1576
23837SOL     OW77473   3.644   3.699   7.662 -0.1934  0.2288 -0.0279
23837SOL    HW177474   3.702   3.726   7.733  1.2467 -0.2554 -0.9726
23837SOL    HW277475   3.599   3.622   7.696 -0.0711  0.4503  0.6351
23838SOL     OW77476   9.251   6.697  10.660 -0.0334  0.7674  0.3618
23838SOL    HW177477   9.281   6.624  10.606  2.6678  0.8790  1.5610
23838SOL    HW277478   9.171   6.665  10.702  1.2108 -1.6527  1.0560
23839SOL     OW77479   7.454  12.440   4.229  0.2740 -0.2983 -0.5716
23839SOL    HW177480   7.508  12.519   4.221 -0.1553 -0.0954 -1.7033
23839SOL    HW277481   7.386  12.451   4.162 -0.7807 -0.8557  0.3775
23840SOL     OW77482   0.815   1.833   1.465  0.6766  0.7186 -0.3170
23840SOL    HW177483   0.852   1.820   1.552 -0.0022  0.5565 -0.0457
23840SOL    HW277484   0.866   1.906   1.427  1.0962  0.6633  0.1357
23841SOL     OW77485   4.028   5.921   1.539  0.0096  0.2512 -0.1534
23841SOL    HW177486   3.971   5.859   1.494 -0.5011  0.5369  0.0818
23841SOL    HW277487   3.976   5.951   1.614 -0.1257  1.6570 -0.7841
23842SOL     OW77488   2.156   0.057   1.509 -0.4751  0.6067  0.2965
23842SOL    HW177489   2.245   0.022   1.521 -0.4816  0.6571  0.4893
23842SOL    HW277490   2.103   0.011   1.574 -0.9672 -0.8011 -1.0336
23843SOL     OW77491   9.733   4.006   1.624  0.2502  0.2166 -0.6238
23843SOL    HW177492   9.776   3.922   1.610  1.5479  0.7270  0.0921
23843SOL    HW277493   9.802   4.071   1.609  0.1148  1.0250  1.8135
23844SOL     OW77494  11.268   2.765   9.170  0.5484  0.2182  0.0400
23844SOL    HW177495  11.313   2.824   9.110 -1.1744  0.1824 -1.3780
23844SOL    HW277496  11.177   2.798   9.172  0.2914 -0.4776  1.7498
23845SOL     OW77497   7.523   8.570   1.115  0.1865 -0.1650  0.2263
23845SOL    HW177498   7.583   8.582   1.189  1.8456 -1.2618 -0.8624
23845SOL    HW277499   7.499   8.478   1.119  0.9458 -0.4374 -1.0279
23846SOL     OW77500   6.468   5.224  10.831  0.0694 -0.6031  0.2855
23846SOL    HW177501   6.468   5.316  10.855 -0.6559 -0.6000  0.2791
23846SOL    HW277502   6.472   5.176  10.914 -1.0137 -0.5780  0.3576
23847SOL     OW77503   2.976   1.079  10.806  0.7459  0.1487 -0.4843
23847SOL    HW177504   2.940   1.162  10.835 -0.8595  0.0299 -1.9797
23847SOL    HW277505   2.949   1.016  10.873 -0.3205  0.3895 -0.6699
23848SOL     OW77506  12.159   3.024  12.177  0.2821  0.2202 -0.1487
23848SOL    HW177507  12.074   3.033  12.133 -0.7419  0.0043  1.7163
23848SOL    HW277508  12.181   3.113  12.204 -0.2305  0.0302  0.9253
23849SOL     OW77509  10.072   7.861  12.317 -0.2233  0.2863 -0.2371
23849SOL    HW177510  10.099   7.896  12.402  0.3258 -0.2933 -0.1607
23849SOL    HW277511  10.086   7.933  12.255  2.4019 -0.2338 -0.3540
23850SOL     OW77512   8.601   8.057   2.593 -0.1272 -0.1555  0.0141
23850SOL    HW177513   8.564   8.118   2.657 -0.0935  0.2035 -0.3079
23850SOL    HW277514   8.653   7.997   2.646 -1.7147 -1.1095  0.5668
23851SOL     OW77515   2.682   2.978   8.552  0.2964 -0.1006  0.0126
23851SOL    HW177516   2.738   3.055   8.555 -0.0776  0.4289 -3.0764
23851SOL    HW277517   2.742   2.906   8.533  0.6419 -0.7057  2.8724
23852SOL     OW77518   5.267   4.359   1.103  0.0104  0.6005  0.1323
23852SOL    HW177519   5.295   4.448   1.084 -2.5936  1.3985 -0.4782
23852SOL    HW277520   5.236   4.325   1.019 -0.4962 -0.2810  0.6507
23853SOL     OW77521   7.355   5.104   7.547 -0.2676 -0.3227  0.1729
23853SOL    HW177522   7.392   5.162   7.613  0.5614 -0.3341 -0.2645
23853SOL    HW277523   7.404   5.124   7.468  0.2013 -1.7683  0.0679
23854SOL     OW77524   1.661  12.322   3.146 -0.2133 -0.3120  0.0745
23854SOL    HW177525   1.684  12.392   3.207 -0.4444 -0.3586  0.2174
23854SOL    HW277526   1.565  12.324   3.143 -0.2541 -1.0467  0.5737
23855SOL     OW77527   6.879   7.363   0.453  0.0789  0.0586 -0.0577
23855SOL    HW177528   6.834   7.441   0.420 -0.6147 -0.0891  0.5281
23855SOL    HW277529   6.965   7.366   0.410  0.1581  1.2723  0.1441
23856SOL     OW77530   7.398   7.464   6.392 -0.4041  0.3849 -0.2354
23856SOL    HW177531   7.448   7.543   6.411 -1.3404  1.1969 -1.0185
23856SOL    HW277532   7.461   7.392   6.401  0.2469  1.1120  1.3834
23857SOL     OW77533   9.407   6.038   4.340  0.1967  0.2625 -0.0620
23857SOL    HW177534   9.446   6.091   4.410  1.2526 -0.8177  0.2007
23857SOL    HW277535   9.319   6.018   4.372 -0.4975  2.3620 -0.4632
23858SOL     OW77536   4.473   4.676   9.167  0.6766 -0.1119 -0.5775
23858SOL    HW177537   4.479   4.705   9.076  1.8962 -0.4763 -0.6371
23858SOL    HW277538   4.536   4.732   9.214 -0.1319  0.2524  0.0976
23859SOL     OW77539   6.036   7.204   9.557  0.2783  0.2660 -0.3043
23859SOL    HW177540   6.053   7.282   9.610  0.1842  0.8887 -1.1639
23859SOL    HW277541   6.100   7.140   9.588  0.4599  0.7285  0.3074
23860SOL     OW77542   3.781   5.138   5.629  0.0946  0.0265  0.2933
23860SOL    HW177543   3.749   5.221   5.593 -0.5823 -0.2385  0.2848
23860SOL    HW277544   3.823   5.163   5.712 -2.7235  0.0498  1.8154
23861SOL     OW77545   5.304   1.667   7.687  0.2599 -0.4638 -0.0123
23861SOL    HW177546   5.237   1.600   7.676  0.0071 -0.3801  0.9481
23861SOL    HW277547   5.300   1.719   7.607 -0.5907 -0.6650 -0.1006
23862SOL     OW77548   8.163   6.167   7.256  0.3141 -0.1033  0.4880
23862SOL    HW177549   8.204   6.251   7.279  0.8529 -0.6244  1.4859
23862SOL    HW277550   8.111   6.144   7.332  0.4924 -0.8775  0.3777
23863SOL     OW77551   4.747   1.122   3.100  0.1344 -0.1097 -0.1650
23863SOL    HW177552   4.726   1.214   3.084 -0.8085 -0.1682  0.6253
23863SOL    HW277553   4.836   1.111   3.066  0.5370  1.2710  0.3865
23864SOL     OW77554   8.799   7.416  12.410 -0.3661 -0.2398  0.1610
23864SOL    HW177555   8.830   7.325  12.408 -0.3441 -0.2257 -0.1599
23864SOL    HW277556   8.876   7.467  12.435  0.0171 -0.1490 -1.1275
23865SOL     OW77557  11.117   4.757   5.312 -0.0237  0.3828 -0.0203
23865SOL    HW177558  11.036   4.762   5.362  0.7973  0.0645  1.3887
23865SOL    HW277559  11.142   4.664   5.314  1.1955  0.6957  0.9748
23866SOL     OW77560   5.752   2.035  10.781 -0.1807 -0.1951  0.3713
23866SOL    HW177561   5.790   2.105  10.727 -1.6178  0.4620  0.1652
23866SOL    HW277562   5.749   1.959  10.723  3.2149 -1.0838  1.1747
23867SOL     OW77563   8.443   2.878   4.923 -0.2691  0.8443 -0.0229
23867SOL    HW177564   8.428   2.972   4.937  0.7517  0.9717  0.3080
23867SOL    HW277565   8.422   2.865   4.830  1.5483  1.8474 -0.6351
23868SOL     OW77566   9.545  10.850   8.069 -0.2511  0.0602 -0.1952
23868SOL    HW177567   9.461  10.842   8.114  0.4705 -0.5196  1.1303
23868SOL    HW277568   9.606  10.880   8.137  0.4194  1.4597 -1.3717
23869SOL     OW77569  10.672   7.480  10.106 -0.0537  0.1162 -0.3144
23869SOL    HW177570  10.676   7.401  10.161 -0.0145  1.0091  1.0043
23869SOL    HW277571  10.700   7.450  10.019 -0.3002 -1.3744  0.0965
23870SOL     OW77572   3.447  10.554   5.772 -0.3754  0.3002  0.1707
23870SOL    HW177573   3.429  10.460   5.768  0.2183  0.1333  1.1335
23870SOL    HW277574   3.537  10.560   5.805 -0.5536  1.2139  0.5082
23871SOL     OW77575   9.586   6.653  11.827 -0.1256 -0.5240 -0.2113
23871SOL    HW177576   9.527   6.593  11.873 -0.6035 -1.2387 -1.6838
23871SOL    HW277577   9.627   6.599  11.759  0.1779  0.5934 -0.9506
23872SOL     OW77578   1.414   0.178   2.737 -0.0584  0.0565 -0.1632
23872SOL    HW177579   1.437   0.127   2.659 -0.9434 -0.3011 -0.2091
23872SOL    HW277580   1.338   0.132   2.773 -1.9577  2.2559 -1.1322
23873SOL     OW77581   2.789   3.666   5.101 -0.5361 -0.6806  0.1169
23873SOL    HW177582   2.849   3.691   5.171 -0.0199  1.3267 -0.9663
23873SOL    HW277583   2.845   3.642   5.028 -1.0143  0.3659 -0.6232
23874SOL     OW77584   6.157  11.868   5.498  0.4920 -0.5799  0.2773
23874SOL    HW177585   6.064  11.876   5.520  0.4383  1.7216 -0.5697
23874SOL    HW277586   6.164  11.901   5.409  2.1332 -0.8265  0.2810
23875SOL     OW77587   0.839   9.310   4.694  0.2150 -0.5360  0.2428
23875SOL    HW177588   0.780   9.325   4.620  0.5170 -2.4146 -0.4482
23875SOL    HW277589   0.819   9.220   4.721  1.0239 -0.3171  1.6078
23876SOL     OW77590  10.513   9.630   3.165 -0.3268  0.1925 -0.4122
23876SOL    HW177591  10.545   9.715   3.196  0.4688 -0.0553 -0.5239
23876SOL    HW277592  10.465   9.651   3.085 -1.2084  0.6739  0.2325
23877SOL     OW77593   2.674   0.361   8.138 -0.0789  0.0798  0.3945
23877SOL    HW177594   2.603   0.413   8.100  0.0084 -0.0180  0.0968
23877SOL    HW277595   2.671   0.382   8.232  0.3538  1.1265  0.1974
23878SOL     OW77596   7.463  11.943  11.733 -0.2675 -0.6857  0.1408
23878SOL    HW177597   7.490  12.008  11.670 -2.0190 -0.2078 -0.1672
23878SOL    HW277598   7.452  11.862  11.682  1.6382 -1.1923  0.4751
23879SOL     OW77599   9.684  11.321   0.684 -0.5548  0.3598 -0.1777
23879SOL    HW177600   9.730  11.400   0.655 -0.3908 -0.6959 -3.1492
23879SOL    HW277601   9.741  11.284   0.752  0.6748  1.4518 -0.5670
23880SOL     OW77602   4.187   0.923  11.552  0.2905 -0.3191 -0.6847
23880SOL    HW177603   4.267   0.885  11.590 -0.0174  0.0906  0.4214
23880SOL    HW277604   4.138   0.848  11.520 -0.8514 -1.0922  2.5142
23881SOL     OW77605   3.072   4.214  12.065  0.4467 -0.0807  0.4563
23881SOL    HW177606   3.081   4.174  11.978  0.4785  1.0097 -0.0491
23881SOL    HW277607   2.983   4.191  12.093  0.4273 -0.4119  0.1265
23882SOL     OW77608   8.170  11.639   0.618  1.0021  0.5666 -0.1334
23882SOL    HW177609   8.123  11.560   0.645  2.8868  0.3933  3.1278
23882SOL    HW277610   8.108  11.710   0.631  0.3393 -0.0476  0.0877
23883SOL     OW77611   2.513   0.965   4.096 -0.2864  0.6073  0.3719
23883SOL    HW177612   2.468   0.895   4.048  0.6949  0.6737 -0.6697
23883SOL    HW277613   2.556   0.920   4.169  0.1499  0.1557 -0.1586
23884SOL     OW77614   7.866   0.813   5.906  0.0902 -0.5722 -0.1996
23884SOL    HW177615   7.777   0.792   5.877  0.0163 -1.3108  0.5085
23884SOL    HW277616   7.853   0.865   5.986  0.2867 -1.2194  0.2603
23885SOL     OW77617   5.303   0.930  11.778 -0.0609 -0.3612 -0.0056
23885SOL    HW177618   5.296   0.930  11.874 -0.7383 -1.2012 -0.0451
23885SOL    HW277619   5.398   0.927  11.762  0.0596 -0.2579  0.6382
23886SOL     OW77620   1.292   7.849   4.580  0.1424  0.0973  0.2844
23886SOL    HW177621   1.340   7.770   4.605 -1.0299 -1.2175 -1.3779
23886SOL    HW277622   1.358   7.907   4.542  0.5502 -1.5684 -1.7237
23887SOL     OW77623  12.116   7.403   5.438 -0.2478  0.3356  0.0632
23887SOL    HW177624  12.028   7.431   5.463 -0.2758 -0.3046  0.7213
23887SOL    HW277625  12.112   7.307   5.440  0.8754  0.2770  1.6811
23888SOL     OW77626   9.035  12.078   8.879 -0.1473  0.3734  0.5928
23888SOL    HW177627   9.113  12.045   8.924 -1.0585 -0.4954  1.5842
23888SOL    HW277628   9.068  12.150   8.825  1.6403 -1.1030 -0.4042
23889SOL     OW77629   9.427   6.423   4.216 -0.0749 -0.0889 -0.2429
23889SOL    HW177630   9.410   6.460   4.303 -1.6612 -3.4528  1.0319
23889SOL    HW277631   9.512   6.382   4.224  0.5669  1.0610 -0.8899
23890SOL     OW77632  10.475   3.127   2.864  0.4040  0.0975  0.4810
23890SOL    HW177633  10.518   3.064   2.806  0.5460  1.0326 -0.4623
23890SOL    HW277634  10.430   3.073   2.929  1.7723 -0.9317  0.6103
23891SOL     OW77635   1.248   4.200   9.687  1.0869  0.1735 -0.6155
23891SOL    HW177636   1.164   4.159   9.705  0.2400  2.0382 -0.1053
23891SOL    HW277637   1.258   4.193   9.592  0.5733 -0.4653 -0.6284
23892SOL     OW77638   0.278   7.888   8.628 -0.4878  0.1969  0.3115
23892SOL    HW177639   0.327   7.806   8.638 -0.4104  0.2247  0.1655
23892SOL    HW277640   0.339   7.946   8.581 -2.1663 -1.1627 -4.0861
23893SOL     OW77641   1.654   1.907   5.292 -0.8176 -0.7439  0.0584
23893SOL    HW177642   1.745   1.878   5.294 -0.5437  0.1060  0.3191
23893SOL    HW277643   1.607   1.842   5.345 -0.2375 -0.7718  0.5411
23894SOL     OW77644   2.040   7.587   7.686 -0.6191  0.0021  0.1495
23894SOL    HW177645   2.029   7.492   7.688  0.4843 -0.1465  2.6161
23894SOL    HW277646   2.026   7.610   7.594 -2.0463 -2.3707 -0.3333
23895SOL     OW77647  11.397   2.224   2.024  0.2599 -0.0246  0.4233
23895SOL    HW177648  11.441   2.264   2.099  0.2235  0.7992  0.0167
23895SOL    HW277649  11.447   2.254   1.948 -1.1325  1.1499 -0.0768
23896SOL     OW77650   0.825   9.743   0.924 -0.1926 -0.4350  1.0350
23896SOL    HW177651   0.809   9.657   0.962  0.8066 -0.2967  1.8126
23896SOL    HW277652   0.873   9.726   0.843 -1.0340 -0.6540  0.5679
23897SOL     OW77653   4.078  12.344   5.196 -0.0330 -0.4315  0.3034
23897SOL    HW177654   4.166  12.378   5.180  0.9431 -2.1180  1.8095
23897SOL    HW277655   4.021  12.421   5.186  1.4507  0.5220 -1.6425
23898SOL     OW77656   9.825   4.168   5.811 -0.6907 -0.2680 -0.1092
23898SOL    HW177657   9.806   4.076   5.830 -0.5442 -0.0461  1.2156
23898SOL    HW277658   9.759   4.217   5.860 -0.0709  0.3497  0.1309
23899SOL     OW77659   7.514   7.262   2.894 -0.2258  0.1571 -0.3321
23899SOL    HW177660   7.594   7.223   2.928 -0.7596 -1.6441 -1.0262
23899SOL    HW277661   7.473   7.193   2.842 -1.9464  1.2051 -0.4720
23900SOL     OW77662   7.835  10.804   4.198 -0.4299  0.3988 -0.0320
23900SOL    HW177663   7.880  10.814   4.114 -1.2297  0.4229 -0.4680
23900SOL    HW277664   7.758  10.860   4.191 -0.3619  0.6278  0.8366
23901SOL     OW77665   2.486   6.914   5.699  0.2426 -0.2400  0.3222
23901SOL    HW177666   2.497   6.855   5.625 -0.7062  0.4571 -0.4197
23901SOL    HW277667   2.395   6.901   5.727  0.6155 -0.5471  1.4148
23902SOL     OW77668   1.777  10.432  12.433 -0.1059 -0.1002  0.0624
23902SOL    HW177669   1.740  10.491  12.499 -0.9127 -0.4828 -0.0347
23902SOL    HW277670   1.744  10.346  12.458  1.5718 -0.6237  0.5697
23903SOL     OW77671   3.490   3.282   5.604 -0.2802  0.3580  0.2810
23903SOL    HW177672   3.541   3.201   5.606 -1.1400 -0.2597 -1.1040
23903SOL    HW277673   3.553   3.351   5.620  0.6590 -0.5200  0.4463
23904SOL     OW77674   7.908   7.732   4.510 -0.5283  0.0119 -0.4357
23904SOL    HW177675   7.860   7.720   4.428 -1.2921 -0.6273  0.0833
23904SOL    HW277676   7.979   7.668   4.505 -1.3243 -0.9322 -0.0715
23905SOL     OW77677  10.169   7.851   1.695  0.5961 -0.1466 -0.1814
23905SOL    HW177678  10.225   7.858   1.773  1.4017 -0.4322 -0.7218
23905SOL    HW277679  10.133   7.763   1.699 -2.3758  0.9834  1.8283
23906SOL     OW77680   4.356   8.367   7.916 -0.3978  0.2581  0.4286
23906SOL    HW177681   4.365   8.450   7.963 -1.1486  1.4398 -1.3988
23906SOL    HW277682   4.264   8.343   7.929 -0.2368 -0.1919  0.7660
23907SOL     OW77683   1.958   8.699  11.011 -0.0710 -0.2515  0.2110
23907SOL    HW177684   1.981   8.758  11.083  0.2387 -0.3301  0.1787
23907SOL    HW277685   1.992   8.741  10.933  0.2868 -0.5408  0.2062
23908SOL     OW77686   5.985   2.024   1.650 -0.2985 -0.2254  0.1570
23908SOL    HW177687   5.966   2.044   1.559  1.3889  0.3377 -0.1120
23908SOL    HW277688   6.067   1.975   1.648  0.7735  1.3977  1.4479
23909SOL     OW77689   6.782   1.130  11.381 -0.0569  0.5583 -0.6774
23909SOL    HW177690   6.708   1.183  11.411 -0.3389  0.8438 -1.8202
23909SOL    HW277691   6.810   1.172  11.299  1.2144  0.3029 -0.3985
23910SOL     OW77692   8.021  10.033   4.293 -0.8232 -0.2312 -0.1922
23910SOL    HW177693   8.034   9.946   4.332  3.1378 -1.3763 -3.3360
23910SOL    HW277694   8.084  10.089   4.338 -1.2205  0.2516 -0.2274
23911SOL     OW77695  10.917   5.190   9.678 -0.5015 -0.1549 -0.1097
23911SOL    HW177696  10.938   5.097   9.669 -1.1912 -0.4473  1.1127
23911SOL    HW277697  11.002   5.232   9.694 -0.2452 -0.6507 -0.1535
23912SOL     OW77698   6.144   7.911   0.186  0.0467  0.2868  0.2683
23912SOL    HW177699   6.193   7.841   0.229 -0.4364  0.6972  1.5476
23912SOL    HW277700   6.056   7.875   0.175  0.5034 -0.3303 -1.7257
23913SOL     OW77701   0.574   1.438   5.177  0.2978  0.3746 -0.0712
23913SOL    HW177702   0.635   1.503   5.144  1.0549 -0.7829 -1.0814
23913SOL    HW277703   0.527   1.408   5.099 -0.4896  0.1741  0.4680
23914SOL     OW77704  10.738   7.706   5.209  0.2423 -0.1643  0.4323
23914SOL    HW177705  10.748   7.669   5.296 -2.8457 -1.1615  0.4722
23914SOL    HW277706  10.693   7.789   5.223  2.0002  0.9311 -0.0940
23915SOL     OW77707   9.775   9.105   3.623 -0.0767 -0.1987  0.2836
23915SOL    HW177708   9.757   9.025   3.574 -2.4434  0.0661  0.5981
23915SOL    HW277709   9.783   9.173   3.556  0.5435 -0.4694  0.0832
23916SOL     OW77710   8.794   6.378  10.081 -0.3022  0.2787 -0.1021
23916SOL    HW177711   8.777   6.339  10.166  3.5709 -1.6116  0.0166
23916SOL    HW277712   8.840   6.460  10.100  0.0384  0.1460 -0.3298
23917SOL     OW77713  12.450   0.216   6.076  0.0157 -0.2946 -0.0464
23917SOL    HW177714  12.455   0.284   6.008 -1.1961 -1.6660 -1.5804
23917SOL    HW277715  12.357   0.214   6.101 -0.0796 -1.7333 -0.4347
23918SOL     OW77716   6.909   1.955  11.788  0.1593  0.6185  0.0857
23918SOL    HW177717   6.858   2.015  11.843 -1.3703 -1.5467  1.1582
23918SOL    HW277718   6.991   2.002  11.771 -0.5484  2.5746  1.6926
23919SOL     OW77719  11.616   1.406  11.024 -0.3744  0.6388 -0.3219
23919SOL    HW177720  11.676   1.334  11.006  1.5210  1.6555  1.4107
23919SOL    HW277721  11.537   1.363  11.058  0.6188 -0.6646  0.4691
23920SOL     OW77722  11.004   4.122   1.203 -0.5760  0.0813 -0.1932
23920SOL    HW177723  11.061   4.095   1.131  0.6764  0.9019  0.4421
23920SOL    HW277724  11.053   4.191   1.247 -1.6913  0.1898  0.9362
23921SOL     OW77725   0.872   0.251   2.394 -0.0851  0.1032  0.0372
23921SOL    HW177726   0.860   0.306   2.472 -0.8516  0.0919 -0.0594
23921SOL    HW277727   0.934   0.299   2.340  0.9058 -0.1631  0.9023
23922SOL     OW77728  11.253   2.745   8.645 -0.1975  0.4563 -0.5442
23922SOL    HW177729  11.322   2.705   8.698 -1.5492  0.5021  1.3673
23922SOL    HW277730  11.206   2.671   8.607 -0.3162  0.3679 -0.2224
23923SOL     OW77731   2.109   7.442  10.020  0.8450 -0.5246  0.1760
23923SOL    HW177732   2.122   7.536  10.035 -0.0177 -0.2497 -0.6766
23923SOL    HW277733   2.060   7.438   9.938  2.2561 -1.7950 -0.6477
23924SOL     OW77734   9.568   2.718   3.026 -0.3938 -0.5477  0.2052
23924SOL    HW177735   9.565   2.634   2.980 -0.1709 -0.4859  0.0787
23924SOL    HW277736   9.602   2.780   2.962  1.1306 -0.7084  0.8233
23925SOL     OW77737   0.533   4.583   7.938 -0.1521 -0.3624  0.4278
23925SOL    HW177738   0.466   4.575   7.870  0.8317 -0.3708 -0.5628
23925SOL    HW277739   0.615   4.565   7.893  0.4164 -1.6452  1.8923
23926SOL     OW77740  11.491   0.219   5.718  0.4837 -0.1607  0.1621
23926SOL    HW177741  11.416   0.273   5.740 -0.2666 -0.8154 -0.7137
23926SOL    HW277742  11.487   0.210   5.622  1.3545 -0.6595  0.1620
23927SOL     OW77743  12.122  12.268   4.347  0.4401  0.0395 -0.0792
23927SOL    HW177744  12.189  12.200   4.348  0.2616 -0.1418 -0.3105
23927SOL    HW277745  12.072  12.253   4.427  0.7189  0.2205  0.1308
23928SOL     OW77746  12.190   8.657   6.410 -0.5872  0.7924  0.0595
23928SOL    HW177747  12.274   8.703   6.416 -0.5797  0.7872 -0.0069
23928SOL    HW277748  12.204   8.588   6.345 -0.9020  1.3547 -0.6135
23929SOL     OW77749   4.462   9.442   4.439  0.3306 -0.3576 -0.1323
23929SOL    HW177750   4.423   9.355   4.447 -1.2855  0.2619 -0.8860
23929SOL    HW277751   4.498   9.461   4.526 -2.1047 -0.5035  0.9714
23930SOL     OW77752  11.008  10.217   2.333 -0.8395  0.3006  0.7775
23930SOL    HW177753  11.036  10.178   2.249  1.0651 -0.7071  1.7935
23930SOL    HW277754  11.035  10.153   2.399 -0.3871  1.9903  2.3167
23931SOL     OW77755   9.894   3.269   2.087  0.1897 -0.4621  0.1621
23931SOL    HW177756   9.910   3.187   2.039  0.3614 -0.5689  0.4009
23931SOL    HW277757   9.981   3.309   2.096 -0.2527  1.7562 -3.4645
23932SOL     OW77758   9.249   6.782   1.814  0.3415 -0.5166  0.4635
23932SOL    HW177759   9.269   6.852   1.877  0.1253  1.2645 -1.3372
23932SOL    HW277760   9.162   6.805   1.780  1.6976  0.4639 -2.7411
23933SOL     OW77761  12.481   9.758   6.714 -0.7203  0.2753 -0.3454
23933SOL    HW177762  12.419   9.830   6.726 -0.9203 -0.0947  0.9372
23933SOL    HW277763  12.562   9.800   6.686 -1.6686  0.7200 -2.6214
23934SOL     OW77764   3.010   5.698   1.051 -0.0520 -0.1058  0.2151
23934SOL    HW177765   3.044   5.626   0.998  2.5270  0.9980  0.1772
23934SOL    HW277766   3.089   5.745   1.079 -1.5863  2.0896  1.0979
23935SOL     OW77767  12.398   0.639   3.800 -0.2192  0.1325  0.1921
23935SOL    HW177768  12.470   0.577   3.789  0.7058  1.2768 -0.4884
23935SOL    HW277769  12.441   0.720   3.829 -1.5509  0.0605  2.6456
23936SOL     OW77770   7.619   3.455  10.749 -0.9125 -0.0555 -0.2701
23936SOL    HW177771   7.637   3.513  10.823  0.1649 -0.3005 -0.3126
23936SOL    HW277772   7.530   3.424  10.763 -2.5824  3.5644 -1.5774
23937SOL     OW77773   1.289   5.814   7.353  0.0176 -0.0518 -0.3628
23937SOL    HW177774   1.295   5.743   7.416 -0.1289  0.3942  0.1680
23937SOL    HW277775   1.268   5.891   7.406  0.0883  0.3693 -0.9338
23938SOL     OW77776   7.891   5.416   1.607  0.5362 -0.3371  0.0183
23938SOL    HW177777   7.828   5.375   1.548  1.3100 -0.6836 -0.5783
23938SOL    HW277778   7.952   5.462   1.550  0.3156  0.7642  0.6307
23939SOL     OW77779   3.170   3.542   6.655 -0.3853  0.3095  0.2670
23939SOL    HW177780   3.080   3.510   6.659 -0.5108  0.6835  0.4558
23939SOL    HW277781   3.193   3.539   6.562  0.2666 -2.1294  0.4373
23940SOL     OW77782   6.210   3.386   3.716  0.1663 -0.5106  0.6143
23940SOL    HW177783   6.301   3.395   3.687  0.6549 -0.5683  2.0436
23940SOL    HW277784   6.202   3.293   3.739 -0.1328 -0.4194  0.8792
23941SOL     OW77785   3.024   9.495   3.481 -0.4229  0.3118 -0.2885
23941SOL    HW177786   2.953   9.557   3.469 -1.5221 -0.4124  1.9231
23941SOL    HW277787   3.052   9.508   3.572  1.0052 -0.7099 -0.5471
23942SOL     OW77788  12.413   0.396  11.814  0.3218 -0.7006  0.1377
23942SOL    HW177789  12.438   0.329  11.878  0.0394  0.8903  2.0355
23942SOL    HW277790  12.319   0.382  11.801  0.2352 -0.6142  0.6346
23943SOL     OW77791   4.164   4.157   8.194  0.1370  0.1115 -0.6140
23943SOL    HW177792   4.105   4.096   8.239 -0.1286 -0.0214 -1.1312
23943SOL    HW277793   4.223   4.101   8.145  1.7097  0.1873  1.0952
23944SOL     OW77794   1.931  11.503   3.814  0.4000  0.4888 -0.2221
23944SOL    HW177795   1.954  11.587   3.775 -0.7096  0.2782 -1.4000
23944SOL    HW277796   1.931  11.442   3.740 -0.2793 -0.2416  0.3722
23945SOL     OW77797  10.363  12.349   4.493  0.9448  0.1336 -0.2687
23945SOL    HW177798  10.438  12.304   4.532 -0.2687 -0.5272  1.4332
23945SOL    HW277799  10.395  12.436   4.472  1.8730  0.2958  1.6247
23946SOL     OW77800   5.238   7.582   1.957 -0.4554 -0.0411 -0.0361
23946SOL    HW177801   5.245   7.514   2.024  0.1228  0.6225  0.5907
23946SOL    HW277802   5.321   7.578   1.909  0.0049  0.8617  0.6437
23947SOL     OW77803   1.881  11.549   9.995  0.0127  0.5031 -0.4293
23947SOL    HW177804   1.975  11.562   9.979  0.0365  0.2303 -0.5150
23947SOL    HW277805   1.844  11.637   9.996  0.1316  0.5634 -1.2359
23948SOL     OW77806   4.083  11.185   9.109 -0.0324 -0.3114 -0.4930
23948SOL    HW177807   4.080  11.263   9.164  0.7403 -0.1098 -0.7255
23948SOL    HW277808   4.112  11.115   9.168  0.8236 -0.0893 -0.6403
23949SOL     OW77809   7.085   9.780   8.430 -0.4821 -0.2391 -0.2727
23949SOL    HW177810   7.021   9.777   8.501  0.9796 -0.9011  1.0669
23949SOL    HW277811   7.062   9.706   8.374 -1.5383  0.1840 -0.4308
23950SOL     OW77812   0.395   9.230   0.929 -0.4110  0.3508  0.0216
23950SOL    HW177813   0.458   9.203   0.996  0.2586  1.9341  0.0935
23950SOL    HW277814   0.441   9.299   0.880 -1.6490  0.6838 -0.7102
23951SOL     OW77815   4.816   4.660  11.000  0.0606 -0.7133  0.2319
23951SOL    HW177816   4.789   4.714  11.075  0.7026 -3.0408  2.2501
23951SOL    HW277817   4.734   4.640  10.954 -0.2584  1.3469 -0.2105
23952SOL     OW77818   2.018   9.348   4.590  0.5845 -0.1794  0.2184
23952SOL    HW177819   2.057   9.435   4.592 -0.2245  0.1751  1.1730
23952SOL    HW277820   1.925   9.363   4.605  0.1868 -1.0805 -1.1729
23953SOL     OW77821   8.290   8.537  11.908  0.6374 -0.3061  0.3190
23953SOL    HW177822   8.276   8.488  11.989  1.6350 -0.1942  0.5736
23953SOL    HW277823   8.203   8.571  11.885 -0.2002 -2.5900 -0.1555
23954SOL     OW77824  11.901   2.084   8.317 -0.2232 -0.1760 -0.1780
23954SOL    HW177825  11.909   2.113   8.408  0.2933  0.2017 -0.3372
23954SOL    HW277826  11.811   2.105   8.294 -0.1986  0.2462  0.0803
23955SOL     OW77827  10.898   8.541   5.118 -0.2225 -0.4423 -0.0569
23955SOL    HW177828  10.919   8.456   5.156  2.8171 -0.0375 -0.5637
23955SOL    HW277829  10.819   8.526   5.067 -0.0110 -2.8652  0.2252
23956SOL     OW77830   4.779   7.202   2.148  0.1475 -0.1135  0.3718
23956SOL    HW177831   4.795   7.175   2.058 -0.7787  0.9103 -0.1304
23956SOL    HW277832   4.704   7.150   2.176  0.3493 -0.3332  0.5047
23957SOL     OW77833  12.394   0.289   4.263  0.2245  0.5378 -0.3253
23957SOL    HW177834  12.323   0.301   4.326 -0.5626 -0.8000 -0.9163
23957SOL    HW277835  12.413   0.377   4.231 -2.5421  0.7758 -1.5843
23958SOL     OW77836   1.096   4.459   2.906 -0.1152  0.3722  0.4838
23958SOL    HW177837   1.057   4.432   2.823  1.5164 -0.9343  0.0920
23958SOL    HW277838   1.022   4.463   2.967 -0.9450 -1.6642 -0.2966
23959SOL     OW77839   2.906  10.832   1.940 -0.3490 -0.5003  0.5772
23959SOL    HW177840   2.957  10.770   1.992 -0.2097 -1.2261 -0.4047
23959SOL    HW277841   2.948  10.917   1.956  0.0632 -0.8101  1.1571
23960SOL     OW77842   8.046   1.223   2.963 -0.2542  0.2785  0.4279
23960SOL    HW177843   7.997   1.290   3.010 -2.7046 -1.1539  0.0435
23960SOL    HW277844   8.107   1.187   3.028  0.9362  2.6116  0.7009
23961SOL     OW77845   8.466   5.441  10.104 -0.1767  0.1986  0.2780
23961SOL    HW177846   8.480   5.414  10.195 -0.0215  1.7969  0.7716
23961SOL    HW277847   8.459   5.537  10.109 -0.4606  0.2859 -1.3615
23962SOL     OW77848  11.595   9.645   0.848  0.7192 -0.4237 -0.1494
23962SOL    HW177849  11.591   9.556   0.813 -2.1588  0.1806 -1.6364
23962SOL    HW277850  11.541   9.642   0.927  0.0742  0.1188 -0.5620
23963SOL     OW77851   4.603   4.918   9.281 -0.3188  0.4291  0.6153
23963SOL    HW177852   4.557   4.977   9.220 -1.5697 -0.2403  0.8892
23963SOL    HW277853   4.682   4.966   9.305 -1.0281  1.7597  0.3824
23964SOL     OW77854   5.482   8.964   2.064 -0.0503 -0.1404 -0.0331
23964SOL    HW177855   5.537   8.886   2.060  0.6171  0.3320 -0.2754
23964SOL    HW277856   5.428   8.960   1.986 -1.5171 -1.4212  0.9735
23965SOL     OW77857   4.321   9.567   6.363  0.0575 -0.3409 -0.0434
23965SOL    HW177858   4.404   9.525   6.386  0.1594  0.2315  0.6582
23965SOL    HW277859   4.340   9.614   6.282  0.0242 -1.3674 -0.6709
23966SOL     OW77860   0.608   9.466  11.168  0.2167 -0.3151  0.2368
23966SOL    HW177861   0.609   9.554  11.131  1.5288 -1.2115 -2.0529
23966SOL    HW277862   0.544   9.419  11.116  1.2061 -1.2952 -0.1267
23967SOL     OW77863   2.191  11.289   8.755  0.4367 -0.6687 -0.1895
23967SOL    HW177864   2.238  11.228   8.699 -0.0658 -0.0519 -1.3007
23967SOL    HW277865   2.222  11.268   8.844  1.5564 -1.3610 -0.7207
23968SOL     OW77866   7.174   0.450   8.388 -0.3676 -0.2005  0.0830
23968SOL    HW177867   7.195   0.447   8.481  0.0794 -2.3523 -0.0427
23968SOL    HW277868   7.258   0.460   8.344 -0.6247  1.4486 -0.1273
23969SOL     OW77869  10.706   6.035  11.103 -0.1260  0.1892  0.0639
23969SOL    HW177870  10.766   6.083  11.160 -0.7286  2.3142 -1.0048
23969SOL    HW277871  10.727   6.064  11.015 -2.2115  0.4375 -0.4027
23970SOL     OW77872   1.330   5.349   0.390  0.6656  0.0665  0.1686
23970SOL    HW177873   1.302   5.263   0.358 -0.2250 -0.0175  1.1315
23970SOL    HW277874   1.393   5.330   0.459 -0.9217  0.0946  1.6952
23971SOL     OW77875   5.605   6.448  10.386 -0.4304 -0.5152 -0.2269
23971SOL    HW177876   5.670   6.386  10.354 -0.2904 -1.2499  1.3547
23971SOL    HW277877   5.539   6.394  10.428 -1.3606  0.3087 -0.5949
23972SOL     OW77878   9.351  11.838   3.389 -0.4789 -0.4952  0.0467
23972SOL    HW177879   9.310  11.830   3.475 -0.7357  0.7696  0.0542
23972SOL    HW277880   9.282  11.813   3.327 -0.6362 -0.3172  0.1501
23973SOL     OW77881  10.086  10.508   9.804 -0.0129  0.0373 -0.2562
23973SOL    HW177882  10.166  10.480   9.760  1.7189  1.1738  1.9503
23973SOL    HW277883  10.100  10.601   9.822 -2.3999  0.5911 -0.8718
23974SOL     OW77884   6.054   0.338  12.410 -0.1479 -0.0121 -0.3807
23974SOL    HW177885   6.137   0.333  12.458  0.0172 -1.9875 -0.7949
23974SOL    HW277886   5.988   0.345  12.479  0.1673 -1.6441  0.1194
23975SOL     OW77887   7.166   9.992   9.001  0.7026  0.4250  0.6915
23975SOL    HW177888   7.129  10.030   8.921 -1.7973 -2.5156  0.2829
23975SOL    HW277889   7.260   9.984   8.982  0.1199 -0.6609 -2.2253
23976SOL     OW77890   9.182   0.706   3.403  0.0177 -0.2865  0.6446
23976SOL    HW177891   9.095   0.713   3.444  0.1039  0.1910  0.7480
23976SOL    HW277892   9.223   0.791   3.419  0.0306 -0.0665 -0.4911
23977SOL     OW77893   6.564   2.617   6.248 -0.6683 -0.3622  0.1126
23977SOL    HW177894   6.621   2.683   6.287  1.6275 -2.2578  0.1779
23977SOL    HW277895   6.502   2.595   6.319  1.7860 -1.8712  1.9545
23978SOL     OW77896  11.919   2.837   3.435 -0.3194 -0.2994 -0.3198
23978SOL    HW177897  11.966   2.892   3.498 -0.2587 -1.1435  0.4060
23978SOL    HW277898  11.866   2.778   3.490  1.0524 -2.2487 -0.9625
23979SOL     OW77899   7.817   1.141  10.670  0.0174 -0.6020 -0.1029
23979SOL    HW177900   7.733   1.185  10.682  0.9198  1.2023 -0.0155
23979SOL    HW277901   7.881   1.211  10.674  1.7921 -2.2012  2.4647
23980SOL     OW77902   7.850   2.162   4.047  0.6943 -0.0944 -0.3408
23980SOL    HW177903   7.893   2.245   4.028 -1.0334  0.8257 -0.4607
23980SOL    HW277904   7.811   2.174   4.134 -0.2676 -0.4496 -0.7068
23981SOL     OW77905   9.301  10.047   2.704  0.4534 -0.3285  0.2598
23981SOL    HW177906   9.329  10.086   2.787 -0.3863 -1.1013  0.9198
23981SOL    HW277907   9.279   9.957   2.725  0.5451 -0.6407 -0.8800
23982SOL     OW77908   5.791   6.584   2.913 -0.1399 -0.1696 -0.2031
23982SOL    HW177909   5.838   6.544   2.840 -0.6387 -0.5220 -0.3281
23982SOL    HW277910   5.815   6.677   2.908 -0.2995 -0.1597 -0.9137
23983SOL     OW77911   5.892   9.625   9.143  0.8587 -0.0645 -0.8436
23983SOL    HW177912   5.956   9.684   9.103 -0.2215  1.4236 -0.4419
23983SOL    HW277913   5.859   9.673   9.218  0.1091 -1.3001 -0.3509
23984SOL     OW77914   5.322  11.157  10.962  0.3032  0.4222  0.2942
23984SOL    HW177915   5.358  11.197  10.883 -0.6969  1.3319  0.2749
23984SOL    HW277916   5.233  11.134  10.938  0.6475 -1.2487  0.5224
23985SOL     OW77917   7.215  10.566   8.548  0.4046  0.5834  0.0848
23985SOL    HW177918   7.167  10.647   8.527  0.1066  1.0312  2.1966
23985SOL    HW277919   7.263  10.588   8.628  1.1757 -1.0148  0.0844
23986SOL     OW77920  10.355   3.632   4.836  0.2129  0.0583 -0.4529
23986SOL    HW177921  10.356   3.580   4.916  0.2198  0.5587 -0.1217
23986SOL    HW277922  10.420   3.591   4.779  0.7445  0.1446  0.0856
23987SOL     OW77923   6.305   4.909   1.586  0.1952 -0.5213  0.0923
23987SOL    HW177924   6.273   4.869   1.505 -1.0076 -2.3884  1.4178
23987SOL    HW277925   6.374   4.851   1.616  0.1391 -0.2375  0.7896
23988SOL     OW77926  11.210   7.898   4.636 -0.3928  0.0762  0.6796
23988SOL    HW177927  11.155   7.859   4.568  0.5404 -0.4898  0.2337
23988SOL    HW277928  11.154   7.964   4.677 -0.0694  2.6491 -2.5853
23989SOL     OW77929   4.143   7.578   2.406  0.0805 -0.6347 -0.0937
23989SOL    HW177930   4.141   7.574   2.311 -0.1248 -0.4272 -0.0977
23989SOL    HW277931   4.187   7.661   2.426 -0.8584 -0.1429 -0.0115
23990SOL     OW77932   4.429   3.862   0.481 -0.0070  0.3511 -0.2837
23990SOL    HW177933   4.370   3.869   0.406  0.3236  3.4158 -0.4035
23990SOL    HW277934   4.507   3.819   0.447 -1.1873 -1.5975 -0.7145
23991SOL     OW77935   4.166   1.764   5.995  0.4787 -0.4635 -0.1455
23991SOL    HW177936   4.114   1.843   5.982 -0.1605 -0.4148  2.2996
23991SOL    HW277937   4.126   1.700   5.936  0.6125  0.8123 -1.7055
23992SOL     OW77938   5.951   7.256   1.901  0.4474 -0.4878  0.6193
23992SOL    HW177939   5.917   7.238   1.989  1.3272 -0.7789  0.9144
23992SOL    HW277940   6.018   7.189   1.888 -2.2565 -2.9859 -1.8480
23993SOL     OW77941   1.811  12.404  12.298  0.0420  0.3568  0.0892
23993SOL    HW177942   1.792  12.407  12.204  2.3074  1.1971 -0.3957
23993SOL    HW277943   1.905  12.417  12.304 -0.2784  2.1577  2.6012
23994SOL     OW77944   0.856   4.759   1.378  0.4010 -0.0538  0.4412
23994SOL    HW177945   0.869   4.764   1.473 -1.0140  2.4270  0.6062
23994SOL    HW277946   0.763   4.739   1.368  0.3497  0.5324 -0.3848
23995SOL     OW77947   1.073   4.737   4.615  0.3889 -0.2279 -0.3002
23995SOL    HW177948   1.068   4.795   4.691 -3.8467  0.7885 -1.0731
23995SOL    HW277949   1.099   4.652   4.652 -0.5627  0.4587  2.1836
23996SOL     OW77950  11.428  12.166   3.677  0.1276  0.4384  0.1184
23996SOL    HW177951  11.437  12.095   3.740 -1.9586 -1.4159 -1.4941
23996SOL    HW277952  11.382  12.126   3.603 -2.0436  3.6940 -0.4843
23997SOL     OW77953   7.977   0.669   6.945 -0.3727 -0.8739 -0.3375
23997SOL    HW177954   8.056   0.724   6.945 -0.4954 -0.5897  2.1544
23997SOL    HW277955   7.922   0.707   6.877 -0.6444  2.5157  1.5218
23998SOL     OW77956  12.229   9.315   3.620  0.5090 -0.0827 -0.2973
23998SOL    HW177957  12.137   9.291   3.609  0.8439 -1.0048 -1.1790
23998SOL    HW277958  12.249   9.290   3.710 -0.4257  1.2915  0.3295
23999SOL     OW77959   2.586   4.176   1.885 -0.0257 -0.7060  0.0261
23999SOL    HW177960   2.513   4.125   1.921  0.3796  0.4598  2.6853
23999SOL    HW277961   2.664   4.141   1.929  0.3108  1.8370  1.5895
24000SOL     OW77962  11.732   7.948   1.631 -0.0664  0.1255  0.2829
24000SOL    HW177963  11.665   7.891   1.593  0.4674  0.0794 -0.6191
24000SOL    HW277964  11.683   8.024   1.662 -0.5772 -0.0591 -0.0505
24001SOL     OW77965   6.696  11.362   4.778 -0.1843  0.3420 -0.2618
24001SOL    HW177966   6.738  11.339   4.696  0.5706  0.1058  0.1852
24001SOL    HW277967   6.604  11.376   4.755 -0.2704 -1.1141 -0.8952
24002SOL     OW77968  12.007   1.054   9.010 -0.2358 -0.5628 -0.1001
24002SOL    HW177969  11.976   1.103   9.087 -0.0170  2.0076 -1.5557
24002SOL    HW277970  11.927   1.013   8.975 -1.0738  1.3476 -0.5782
24003SOL     OW77971   1.291  11.039   6.426  0.4350 -0.5727  0.0639
24003SOL    HW177972   1.251  11.104   6.484  3.6079  0.6058  1.0929
24003SOL    HW277973   1.310  11.088   6.346 -0.2356 -1.1769 -0.4869
24004SOL     OW77974   9.006   9.358   0.088 -0.1957 -0.2964  0.3992
24004SOL    HW177975   8.911   9.370   0.083 -0.1065  1.1209  1.4467
24004SOL    HW277976   9.021   9.318   0.174  0.0468 -2.3914 -0.5489
24005SOL     OW77977  10.316   7.449  11.857  0.2324 -0.1155  0.3451
24005SOL    HW177978  10.384   7.382  11.859  0.8732  0.5234  2.5208
24005SOL    HW277979  10.254   7.421  11.924 -0.3667  0.6046  0.0965
24006SOL     OW77980   8.843   4.392   8.269 -0.1346  0.4533 -0.1031
24006SOL    HW177981   8.893   4.416   8.347 -0.6906 -0.3620  0.5235
24006SOL    HW277982   8.757   4.432   8.283  0.0312  1.0478 -0.7267
24007SOL     OW77983   7.927   5.064   5.143  0.2174  0.6796 -0.5159
24007SOL    HW177984   7.832   5.069   5.139 -0.0072 -1.9840 -0.1907
24007SOL    HW277985   7.948   5.078   5.235 -0.0738 -0.7985 -0.2036
24008SOL     OW77986   5.089   0.843   2.130 -0.1529 -0.0649  0.2994
24008SOL    HW177987   5.040   0.821   2.209 -0.8674  0.0116 -0.1178
24008SOL    HW277988   5.178   0.810   2.146  0.2455  1.6288  1.9144
24009SOL     OW77989   4.444  11.477   8.036  0.6054  0.0671  1.0972
24009SOL    HW177990   4.530  11.514   8.051  1.6405 -1.6924 -0.1544
24009SOL    HW277991   4.421  11.505   7.947  1.1030 -1.6029  0.4024
24010SOL     OW77992   4.981  11.930  12.160 -1.1321 -0.2087  0.2486
24010SOL    HW177993   4.966  12.021  12.184  0.2710 -0.1174  0.8886
24010SOL    HW277994   4.971  11.928  12.065 -1.5504  0.5380  0.2723
24011SOL     OW77995   5.680  10.086   3.377  0.1281  0.1427  0.4149
24011SOL    HW177996   5.689  10.144   3.302  0.1329 -1.2337 -0.7042
24011SOL    HW277997   5.770  10.059   3.397 -0.0332 -1.6748 -0.9531
24012SOL     OW77998   8.027   6.662  10.810  0.0870  0.0598 -0.7504
24012SOL    HW177999   7.950   6.605  10.818 -0.8236  1.1333 -1.5937
24012SOL    HW278000   8.041   6.669  10.715  1.2052 -0.0828 -0.6028
24013SOL     OW78001   6.892   0.927   0.752 -0.3605  0.0818 -0.2067
24013SOL    HW178002   6.827   0.980   0.798 -0.3115 -0.9601  1.1129
24013SOL    HW278003   6.961   0.912   0.816 -0.2100 -1.2814 -0.6623
24014SOL     OW78004   5.160   3.765   8.723 -0.3112  0.2888  0.6686
24014SOL    HW178005   5.188   3.685   8.768 -0.8105 -0.4315 -0.2594
24014SOL    HW278006   5.157   3.740   8.631  0.9940  1.8080  0.1768
24015SOL     OW78007   8.882   7.002   0.843  0.1501 -0.3152 -0.4691
24015SOL    HW178008   8.919   6.974   0.759  2.3232  0.4166  0.1867
24015SOL    HW278009   8.884   6.924   0.898  1.0464 -0.2269 -0.3579
24016SOL     OW78010   5.636   6.073   5.385 -0.3021  0.7470  0.0153
24016SOL    HW178011   5.642   5.980   5.366 -0.6061  1.0352 -1.6086
24016SOL    HW278012   5.724   6.097   5.414 -0.5302 -0.2677  1.6806
24017SOL     OW78013   6.174  10.410   7.250  0.0069  0.1592 -0.4926
24017SOL    HW178014   6.124  10.463   7.188  1.5299  1.0924 -0.9823
24017SOL    HW278015   6.245  10.467   7.280  2.3557 -1.8460 -1.8273
24018SOL     OW78016   7.243   9.267   3.108  0.2019 -0.1075  0.1929
24018SOL    HW178017   7.260   9.174   3.096  1.1960 -0.1828  1.9165
24018SOL    HW278018   7.194   9.272   3.191  0.2173  0.8993  0.1536
24019SOL     OW78019   2.649  11.437   8.440  0.8444  0.4572 -0.1242
24019SOL    HW178020   2.675  11.404   8.354 -0.4675 -1.2504  0.0730
24019SOL    HW278021   2.563  11.475   8.426  0.5379 -0.0080  0.4608
24020SOL     OW78022   8.733   9.603   5.525  0.2499  0.2377 -0.2353
24020SOL    HW178023   8.779   9.562   5.452  1.3355  1.7912 -0.4671
24020SOL    HW278024   8.742   9.540   5.597 -1.2541 -1.5439 -1.4828
24021SOL     OW78025   3.203   9.482  10.439 -0.6210  0.1978  0.1435
24021SOL    HW178026   3.192   9.497  10.346 -0.1638 -0.4836 -0.0272
24021SOL    HW278027   3.117   9.452  10.470 -0.5107 -0.5711 -0.2643
24022SOL     OW78028   5.261  11.353   7.065 -0.3131 -0.1843  0.1079
24022SOL    HW178029   5.237  11.266   7.031 -1.7326  0.4154 -0.4757
24022SOL    HW278030   5.353  11.363   7.039 -0.3954 -1.1379 -0.6264
24023SOL     OW78031   9.676   0.672   4.151  0.4201 -0.2864 -0.0083
24023SOL    HW178032   9.633   0.745   4.106 -0.3334 -0.2370  0.7672
24023SOL    HW278033   9.616   0.649   4.222  1.8727  0.0845  1.3984
24024SOL     OW78034  10.916   7.297   6.457 -0.2386  0.0022  0.4427
24024SOL    HW178035  10.966   7.379   6.457  0.1119 -0.1774 -0.9642
24024SOL    HW278036  10.963   7.240   6.517  0.9067  0.0450 -0.3831
24025SOL     OW78037   9.040   5.762   2.466  0.0559 -0.5317 -0.2443
24025SOL    HW178038   8.978   5.809   2.521  0.6784 -0.5254  0.4706
24025SOL    HW278039   8.986   5.699   2.418 -0.8013  0.9186 -1.2806
24026SOL     OW78040   4.040   3.721   3.179  0.1386  0.0978 -0.2675
24026SOL    HW178041   3.977   3.758   3.117  0.1061 -1.5158 -1.2558
24026SOL    HW278042   4.034   3.626   3.165 -1.2186 -0.5625  3.4607
24027SOL     OW78043   9.102   9.944   9.840  0.0498 -0.3254  0.2877
24027SOL    HW178044   9.139   9.856   9.848 -0.1617 -0.3433  1.1738
24027SOL    HW278045   9.085   9.971   9.931 -0.6606  0.2953 -0.0200
24028SOL     OW78046   4.826  10.406   0.673 -0.4667  0.4364  0.1356
24028SOL    HW178047   4.902  10.408   0.732  0.5046 -1.7896 -0.8983
24028SOL    HW278048   4.843  10.476   0.610  0.4948  0.3225  0.2440
24029SOL     OW78049   7.716  11.799   6.162  0.1143 -0.2478  0.1842
24029SOL    HW178050   7.649  11.736   6.134 -0.4915  0.6328 -0.4131
24029SOL    HW278051   7.726  11.858   6.087 -0.0695  0.9620  1.0821
24030SOL     OW78052   4.899   6.180  11.159  0.1079  0.1082  0.2510
24030SOL    HW178053   4.822   6.153  11.108  0.9051 -2.2410  0.1975
24030SOL    HW278054   4.945   6.241  11.101 -0.3713 -0.4776 -0.7882
24031SOL     OW78055   8.581   5.085   9.469 -0.4613  0.1021 -0.2902
24031SOL    HW178056   8.641   5.132   9.526 -2.6102  2.0506  0.5425
24031SOL    HW278057   8.580   5.135   9.388 -1.5293  0.5856  0.0017
24032SOL     OW78058   6.821   2.186   3.138 -0.2573 -0.3879  0.6579
24032SOL    HW178059   6.742   2.140   3.114 -0.1449 -0.7050  0.8881
24032SOL    HW278060   6.865   2.128   3.201  0.5015 -0.5355  0.0136
24033SOL     OW78061  11.220   5.756   7.227 -0.1944  0.2111  0.2860
24033SOL    HW178062  11.130   5.758   7.259 -1.6433 -1.8314 -3.0949
24033SOL    HW278063  11.244   5.663   7.231  0.1979  0.1292 -2.5153
24034SOL     OW78064   3.495   2.779   3.004  0.1955 -0.8551  0.1358
24034SOL    HW178065   3.544   2.704   2.970  0.5625 -0.9368  0.8491
24034SOL    HW278066   3.418   2.784   2.947  0.1229 -1.8248  0.1294
24035SOL     OW78067   8.853  10.408   4.053 -0.2140  0.4080 -0.0918
24035SOL    HW178068   8.915  10.398   4.126 -1.2250 -1.1528  0.6164
24035SOL    HW278069   8.770  10.430   4.096 -0.9863 -1.2173 -0.6666
24036SOL     OW78070  10.437   7.631   3.613 -0.3947  0.2439 -0.4371
24036SOL    HW178071  10.532   7.641   3.618 -0.4100  0.0927  0.3184
24036SOL    HW278072  10.403   7.691   3.679 -0.7844 -0.2067 -0.2202
24037SOL     OW78073   8.466   9.996   8.617 -0.7819 -0.4226  0.4274
24037SOL    HW178074   8.546  10.031   8.578 -0.1605 -0.3666  1.6944
24037SOL    HW278075   8.404   9.989   8.544 -0.2370  1.2953 -0.2282
24038SOL     OW78076   6.466   2.965   5.300 -0.3309  0.0391  0.0944
24038SOL    HW178077   6.520   2.975   5.222 -1.2137  0.7450 -0.4409
24038SOL    HW278078   6.386   3.015   5.282 -0.6984 -0.0534  1.3101
24039SOL     OW78079   0.145   9.233   1.414  0.4796 -0.1477 -0.0130
24039SOL    HW178080   0.219   9.255   1.357  1.0680  0.3387  0.9117
24039SOL    HW278081   0.173   9.153   1.460  0.4172  0.0060  0.2989
24040SOL     OW78082   1.843   1.666   0.517  0.4247 -0.0925 -0.3544
24040SOL    HW178083   1.795   1.666   0.600  0.1310  4.9673 -0.2289
24040SOL    HW278084   1.932   1.641   0.541 -0.1439 -0.9294  1.0261
24041SOL     OW78085   0.783  11.238  10.640  0.1754 -0.3304  0.2291
24041SOL    HW178086   0.763  11.286  10.720  1.1802 -2.4707  1.8791
24041SOL    HW278087   0.700  11.195  10.617 -0.4976  1.4062 -0.7766
24042SOL     OW78088   6.852   6.672   0.450  0.3927  0.0231  0.1316
24042SOL    HW178089   6.856   6.704   0.540 -1.0582  1.6446 -0.3188
24042SOL    HW278090   6.759   6.676   0.427  0.9461  1.7764 -2.1438
24043SOL     OW78091   0.345   4.493   9.509  0.1659  0.5371 -0.2263
24043SOL    HW178092   0.416   4.444   9.468  0.3547  1.9172 -1.6411
24043SOL    HW278093   0.317   4.555   9.442  0.1296  2.5477  1.5423
24044SOL     OW78094   9.452   2.659  12.400  0.0007 -0.2934  0.0355
24044SOL    HW178095   9.457   2.607  12.481  2.1529 -0.9110 -0.4237
24044SOL    HW278096   9.505   2.736  12.419 -0.7631  0.3221 -0.2902
24045SOL     OW78097  10.527   8.518   6.961 -0.0707 -0.2165 -0.3220
24045SOL    HW178098  10.521   8.448   6.896  0.1563 -1.1916  0.6717
24045SOL    HW278099  10.602   8.571   6.933  2.3325 -2.6678  1.0242
24046SOL     OW78100   1.531   6.923   3.228 -0.4291  0.1987  0.2782
24046SOL    HW178101   1.603   6.916   3.291  0.3561  0.6186 -0.5572
24046SOL    HW278102   1.482   6.841   3.239 -0.5390  0.4269  1.6951
24047SOL     OW78103   5.191   4.165  10.219 -0.7729 -0.0189  0.4335
24047SOL    HW178104   5.178   4.071  10.227  2.3004 -0.8871 -2.5161
24047SOL    HW278105   5.108   4.198  10.186 -1.4007 -1.9903 -0.0905
24048SOL     OW78106   6.762  10.173   7.004  0.5960 -0.3732  0.4861
24048SOL    HW178107   6.791  10.171   7.095  0.3939  1.6269  0.6411
24048SOL    HW278108   6.842  10.181   6.952  0.7978 -2.5676  0.3632
24049SOL     OW78109   3.488   9.461   3.732 -0.1607  0.0962  0.4500
24049SOL    HW178110   3.409   9.459   3.678  0.4766  1.6986 -0.6005
24049SOL    HW278111   3.456   9.480   3.821 -0.9104  1.6259 -0.1128
24050SOL     OW78112   6.409  11.232   3.252  0.1655  0.6915 -0.2769
24050SOL    HW178113   6.362  11.166   3.202 -0.1844  1.2449 -0.6896
24050SOL    HW278114   6.345  11.301   3.268 -0.1505 -0.0795  2.1769
24051SOL     OW78115   7.924   3.072  11.971  0.6350  0.2427  0.4048
24051SOL    HW178116   7.996   3.125  12.004  1.3437 -0.0194 -0.6568
24051SOL    HW278117   7.882   3.125  11.904  0.2138  0.1552  0.5918
24052SOL     OW78118   4.800   1.616   9.482  0.2644  0.0887  0.6092
24052SOL    HW178119   4.710   1.625   9.512  0.1947  0.9237  0.1939
24052SOL    HW278120   4.792   1.609   9.386  0.6477  0.4163  0.5498
24053SOL     OW78121   5.013  11.065   4.904  0.4188  0.4528 -0.2420
24053SOL    HW178122   4.999  11.157   4.885 -1.0046  0.3945  0.3627
24053SOL    HW278123   4.931  11.022   4.879  0.2282 -0.3050  1.4799
24054SOL     OW78124   6.577   0.069   9.683  0.1807 -0.1009  0.3873
24054SOL    HW178125   6.585  -0.004   9.622 -0.5585  0.8292 -0.8649
24054SOL    HW278126   6.668   0.095   9.700  0.3978 -0.3013 -0.4110
24055SOL     OW78127   5.690  11.366  11.425  0.2369  0.1782 -0.9282
24055SOL    HW178128   5.690  11.461  11.416  0.1779  0.1198 -1.6159
24055SOL    HW278129   5.779  11.339  11.400  1.0084  0.2264  1.5281
24056SOL     OW78130   5.483   5.080   0.729  0.3400  0.1295 -0.0116
24056SOL    HW178131   5.560   5.034   0.764  0.6320  0.7893  0.2230
24056SOL    HW278132   5.519   5.143   0.667  0.0212  0.7538  0.4363
24057SOL     OW78133   9.494   2.085   8.901 -0.0521  0.0673  0.2826
24057SOL    HW178134   9.554   2.136   8.955 -1.7632  0.1586  2.1902
24057SOL    HW278135   9.470   2.010   8.956 -1.2016 -0.2994 -0.6705
24058SOL     OW78136   4.301   9.735   3.764 -0.3234  0.3440  0.2668
24058SOL    HW178137   4.260   9.688   3.838 -0.0620 -1.3616 -0.6184
24058SOL    HW278138   4.259   9.821   3.765 -2.7915 -0.7656  0.3962
24059SOL     OW78139   9.711   8.190   1.592  0.1132  0.0320 -0.1059
24059SOL    HW178140   9.765   8.192   1.514  0.4728 -0.1570  0.1347
24059SOL    HW278141   9.675   8.279   1.598 -0.4938 -0.1523 -0.8745
24060SOL     OW78142  11.686   0.839   0.185  0.5469  0.1953 -0.6010
24060SOL    HW178143  11.673   0.924   0.143 -0.0377 -0.9907 -3.0178
24060SOL    HW278144  11.775   0.843   0.221  0.5845  1.7667 -0.8068
24061SOL     OW78145   2.491   1.175   5.575  0.5576 -0.2296 -0.0672
24061SOL    HW178146   2.425   1.194   5.642 -1.2213 -1.5637 -1.3409
24061SOL    HW278147   2.503   1.259   5.530  0.9649  0.4179  1.2017
24062SOL     OW78148   5.853   9.632  10.177 -0.5201 -0.7535  0.3938
24062SOL    HW178149   5.849   9.537  10.179  1.4030 -0.8849  0.0007
24062SOL    HW278150   5.811   9.656  10.094 -2.6994 -1.0868  1.3434
24063SOL     OW78151   6.348   6.472   6.405  0.1606  0.3771  0.4754
24063SOL    HW178152   6.296   6.421   6.467  0.7212 -0.0314  0.6204
24063SOL    HW278153   6.411   6.519   6.459 -0.7181  1.6806  0.3891
24064SOL     OW78154   3.527   7.603   0.650  0.5793  0.0169 -0.6708
24064SOL    HW178155   3.617   7.600   0.617  0.8890  0.0166  0.1519
24064SOL    HW278156   3.511   7.695   0.668  0.2161  0.0888 -1.3241
24065SOL     OW78157   3.073   6.334  10.359 -0.3249 -0.3197 -0.2314
24065SOL    HW178158   2.982   6.317  10.332 -0.1766  0.2688 -1.1680
24065SOL    HW278159   3.110   6.382  10.285  0.4526  0.3565  0.5899
24066SOL     OW78160   6.229   8.664   3.870  0.1608  0.1986  0.0448
24066SOL    HW178161   6.216   8.726   3.799  0.3961  3.9350  2.9216
24066SOL    HW278162   6.324   8.666   3.885 -0.0864  1.3671  1.8156
24067SOL     OW78163  10.858  11.378   4.799  0.2674 -0.2825  0.0721
24067SOL    HW178164  10.834  11.420   4.881 -1.0374 -1.4704  0.3364
24067SOL    HW278165  10.892  11.292   4.825 -1.8076 -1.3952 -0.6606
24068SOL     OW78166  10.665   3.824   0.243  0.6506 -0.2234 -0.2705
24068SOL    HW178167  10.629   3.795   0.159  0.5599 -1.6071  0.2082
24068SOL    HW278168  10.727   3.892   0.221 -0.9871  1.0277 -1.2722
24069SOL     OW78169  10.219  12.459   6.092 -0.0343  0.2909 -0.6040
24069SOL    HW178170  10.284  12.393   6.066 -1.3991 -1.8238  1.0288
24069SOL    HW278171  10.138  12.430   6.049 -1.0082 -0.0382  1.3744
24070SOL     OW78172   3.666   5.417   9.796  0.5136  0.4762 -0.0705
24070SOL    HW178173   3.618   5.499   9.792 -2.4567 -1.1656 -2.5768
24070SOL    HW278174   3.643   5.379   9.881 -0.7243  0.8094 -0.2482
24071SOL     OW78175   2.273   5.508   7.340  0.3032 -0.2581 -0.6148
24071SOL    HW178176   2.191   5.465   7.314 -0.1420  0.3616 -0.2538
24071SOL    HW278177   2.294   5.566   7.267  0.3656 -0.3280 -0.6539
24072SOL     OW78178   2.801   9.768   8.759 -0.1549  0.6623 -0.2480
24072SOL    HW178179   2.828   9.693   8.812 -1.8179  0.3248  0.1811
24072SOL    HW278180   2.757   9.729   8.683  0.0815  1.1973 -0.6718
24073SOL     OW78181  10.761   8.192   7.101 -0.2070 -0.1188 -0.8058
24073SOL    HW178182  10.798   8.111   7.136 -1.3435 -0.2932  0.0738
24073SOL    HW278183  10.799   8.262   7.155 -0.3560 -0.2033 -0.5897
24074SOL     OW78184   9.701   6.523   7.008 -0.6094 -0.3604  0.4653
24074SOL    HW178185   9.648   6.483   7.077 -0.3692  0.9512  1.4479
24074SOL    HW278186   9.662   6.610   6.995  0.8626  0.3700  0.7437
24075SOL     OW78187  11.378   8.822  11.231  0.0129 -0.2785 -0.5840
24075SOL    HW178188  11.321   8.879  11.282  1.1677 -0.1232  0.5963
24075SOL    HW278189  11.320   8.778  11.169 -1.2572  0.3659  0.1167
24076SOL     OW78190   6.425   4.329   2.504 -0.4025  0.1956  0.2683
24076SOL    HW178191   6.403   4.321   2.411 -0.5639 -0.8829  0.3843
24076SOL    HW278192   6.443   4.422   2.516 -0.6121  0.3924 -0.7897
24077SOL     OW78193   7.559   1.929   3.501 -0.3105  0.6047  0.1339
24077SOL    HW178194   7.583   1.874   3.575  0.4292  2.4520  1.3544
24077SOL    HW278195   7.543   2.015   3.540 -0.7200  1.4383 -1.7615
24078SOL     OW78196  11.951   3.715   5.677  0.5415  0.2828  0.2510
24078SOL    HW178197  11.864   3.745   5.701  0.7158  0.7157  0.3625
24078SOL    HW278198  11.983   3.669   5.755  0.8736  1.1662  0.6561
24079SOL     OW78199   4.122   8.170   5.441 -0.2070  0.2287 -0.1776
24079SOL    HW178200   4.212   8.201   5.449 -0.9932  2.3691  1.3453
24079SOL    HW278201   4.094   8.199   5.354 -0.1014  1.6252  0.2317
24080SOL     OW78202   8.256   7.237   6.336  0.2930  0.5624 -0.0745
24080SOL    HW178203   8.264   7.269   6.426 -0.9067 -0.8089  0.5638
24080SOL    HW278204   8.346   7.235   6.302  0.9577 -0.4027  1.6435
24081SOL     OW78205   2.439   1.953   7.374 -0.6957 -0.1178 -0.2854
24081SOL    HW178206   2.524   1.908   7.370 -1.3628 -1.4839  0.5018
24081SOL    HW278207   2.452   2.032   7.321  0.8634 -0.6377 -0.7350
24082SOL     OW78208   8.679   4.126   3.549  0.6454 -0.2556 -0.4197
24082SOL    HW178209   8.585   4.143   3.561  0.9599  0.9994  0.5145
24082SOL    HW278210   8.711   4.203   3.503  1.0556 -1.1471 -1.6686
24083SOL     OW78211   5.032  11.554  12.242  0.0685 -0.2245 -0.3194
24083SOL    HW178212   4.960  11.586  12.297  0.4420 -1.3050  0.8511
24083SOL    HW278213   5.109  11.600  12.274 -0.3066  2.6124 -3.0105
24084SOL     OW78214   9.811   8.851  10.171 -0.3810 -0.6543  0.4187
24084SOL    HW178215   9.762   8.788  10.224 -1.7712 -0.6310 -0.7772
24084SOL    HW278216   9.744   8.908  10.133  0.7085  0.3429 -0.0560
24085SOL     OW78217   6.526  10.903  10.933 -0.3835  0.4718  0.2234
24085SOL    HW178218   6.504  10.813  10.959  0.4175  0.1282 -0.2399
24085SOL    HW278219   6.577  10.893  10.853 -0.3462  1.3486  0.1268
24086SOL     OW78220   4.342  11.709   6.394  0.1675  0.4813 -0.5782
24086SOL    HW178221   4.292  11.783   6.359  1.6370  1.0800 -1.5040
24086SOL    HW278222   4.414  11.749   6.443 -0.4979 -0.3634  1.1444
24087SOL     OW78223  11.434   1.438   9.239 -0.0171 -0.1440 -0.1141
24087SOL    HW178224  11.471   1.506   9.183  0.7929 -0.5889 -0.1387
24087SOL    HW278225  11.361   1.481   9.284  0.1622  0.5904 -0.5051
24088SOL     OW78226   0.915   7.630  11.208  0.0807  0.1032  0.6556
24088SOL    HW178227   0.941   7.696  11.272  0.0166 -0.2322  1.0342
24088SOL    HW278228   0.996   7.609  11.161  0.1176  0.3872  0.5891
24089SOL     OW78229   5.575   0.427   3.916 -0.0575  0.1979 -0.6353
24089SOL    HW178230   5.625   0.491   3.865 -0.2203  0.5432 -0.3707
24089SOL    HW278231   5.510   0.480   3.963 -0.5027 -0.2140 -0.7755
24090SOL     OW78232   1.360   7.702   5.271  0.0950  0.1461 -0.3756
24090SOL    HW178233   1.321   7.777   5.226 -1.4923 -0.6688 -0.4348
24090SOL    HW278234   1.397   7.649   5.201  0.1794  0.2886 -0.4401
24091SOL     OW78235   2.669   2.012   8.044 -0.2269 -0.2163  0.2916
24091SOL    HW178236   2.753   2.057   8.034 -0.8191  0.6970 -0.7499
24091SOL    HW278237   2.672   1.976   8.133  1.0731  0.1841  0.4304
24092SOL     OW78238   5.350   3.175   3.753 -0.4376  0.0689  0.5872
24092SOL    HW178239   5.378   3.245   3.811  2.2723 -0.4698  0.0539
24092SOL    HW278240   5.408   3.102   3.772 -0.4058 -0.6150 -1.7314
24093SOL     OW78241   4.276   6.580  11.216 -0.4535  0.5488 -0.4942
24093SOL    HW178242   4.321   6.646  11.269 -1.9559 -0.3235  2.0900
24093SOL    HW278243   4.346   6.523  11.184  0.6007  1.6108 -0.1504
24094SOL     OW78244   3.262   8.003   7.606  0.8858 -0.8174  0.4446
24094SOL    HW178245   3.283   8.017   7.698  2.6145 -1.6006  0.2072
24094SOL    HW278246   3.258   8.091   7.569 -0.3814 -0.4642  1.3547
24095SOL     OW78247   2.847   9.206   1.526  0.8122 -0.8302  0.1525
24095SOL    HW178248   2.788   9.274   1.492  2.8220  1.1460  0.3836
24095SOL    HW278249   2.795   9.125   1.521 -1.8598  0.7404  0.2659
24096SOL     OW78250   0.336   9.717  11.733  0.5456  0.0580 -0.5777
24096SOL    HW178251   0.247   9.687  11.714  0.5713 -0.9220  0.7186
24096SOL    HW278252   0.324   9.785  11.800  0.7683 -0.0667 -0.4112
24097SOL     OW78253   3.667   3.595   9.269 -0.0278  0.0347  0.1655
24097SOL    HW178254   3.689   3.580   9.177  0.1360  0.4151  0.1420
24097SOL    HW278255   3.572   3.595   9.271 -0.0330 -0.5699  0.0940
24098SOL     OW78256   5.331   8.872   8.147  0.5332  0.2736 -0.9913
24098SOL    HW178257   5.240   8.865   8.177  0.4882  0.1138 -1.1593
24098SOL    HW278258   5.333   8.955   8.098 -0.4181 -1.3163 -3.9547
24099SOL     OW78259   4.061   4.706  11.092  0.2106  0.6540 -0.3118
24099SOL    HW178260   4.034   4.618  11.064 -1.3681  1.6230 -2.0526
24099SOL    HW278261   4.028   4.714  11.181 -0.4937 -0.1716 -0.4874
24100SOL     OW78262  10.187   2.658   9.512  0.0128  0.0211  0.3482
24100SOL    HW178263  10.124   2.622   9.449  0.5587 -0.1728 -0.1000
24100SOL    HW278264  10.199   2.589   9.576  0.0342 -0.0725  0.2426
24101SOL     OW78265   9.272   1.252   7.285  0.2478 -0.4342  0.0929
24101SOL    HW178266   9.215   1.295   7.220  1.7101  0.7114 -0.5063
24101SOL    HW278267   9.267   1.159   7.263 -0.9548 -0.3124 -0.2663
24102SOL     OW78268   6.747   8.596   4.775  0.2156 -0.1242 -0.7085
24102SOL    HW178269   6.679   8.601   4.708  0.8098 -0.1217 -1.3233
24102SOL    HW278270   6.826   8.629   4.732  0.7029 -0.5121 -0.1378
24103SOL     OW78271  10.821   8.000  12.046  0.0561 -0.4173  0.4186
24103SOL    HW178272  10.886   7.956  12.100 -0.2442 -0.3733  0.8248
24103SOL    HW278273  10.844   7.977  11.956  0.3696 -0.7551  0.5843
24104SOL     OW78274  12.158  10.180   1.364 -0.6704 -0.0882 -0.6477
24104SOL    HW178275  12.197  10.128   1.293 -1.2171  0.4220 -1.3341
24104SOL    HW278276  12.171  10.271   1.337 -1.1510  0.1063 -0.2388
24105SOL     OW78277   1.700  11.664   2.286 -0.2622 -0.3603 -0.0613
24105SOL    HW178278   1.631  11.658   2.353 -0.5099 -1.4752 -0.4019
24105SOL    HW278279   1.775  11.702   2.333 -0.7040 -0.3113  0.6281
24106SOL     OW78280   3.161   5.269   5.197  0.0092  0.2289 -0.1228
24106SOL    HW178281   3.167   5.317   5.280  3.9138  2.4089 -1.3789
24106SOL    HW278282   3.217   5.192   5.210  1.8548  1.3314 -0.9984
24107SOL     OW78283   7.957   9.156   1.787 -0.1861 -0.4479  0.2678
24107SOL    HW178284   8.024   9.204   1.834 -0.1809  0.2233 -0.4044
24107SOL    HW278285   7.874   9.192   1.819 -0.2055 -0.6530  0.4501
24108SOL     OW78286  12.012   3.445   9.931 -0.1510 -0.0320  0.4191
24108SOL    HW178287  11.957   3.520   9.911 -0.2351  0.3462  1.9667
24108SOL    HW278288  11.993   3.382   9.861  1.0572  1.9118 -1.8264
24109SOL     OW78289  11.906  10.640   3.792 -0.2908 -0.0190 -0.2349
24109SOL    HW178290  12.001  10.649   3.800 -0.5112  1.8976  0.6043
24109SOL    HW278291  11.885  10.687   3.711 -0.3150 -2.5657 -1.8359
24110SOL     OW78292   4.596   0.444   0.239 -0.0198 -0.6642 -0.8405
24110SOL    HW178293   4.558   0.473   0.156 -1.0296 -2.2564 -0.9743
24110SOL    HW278294   4.603   0.349   0.231  1.2833 -0.6987  0.3346
24111SOL     OW78295   6.479  12.323   6.393 -0.1710 -0.2874  0.0409
24111SOL    HW178296   6.441  12.241   6.360 -0.9048  0.2668 -0.5519
24111SOL    HW278297   6.456  12.388   6.326 -0.7906  0.6764  1.1598
24112SOL     OW78298  11.552   6.451   3.842 -0.0447  0.3537 -0.3653
24112SOL    HW178299  11.639   6.487   3.826 -0.5882  0.6640 -3.0694
24112SOL    HW278300  11.523   6.418   3.757 -2.2575 -0.4690  0.6189
24113SOL     OW78301   1.721  11.787  11.494  0.5058  0.0179 -0.6538
24113SOL    HW178302   1.659  11.727  11.535  1.2574 -0.9694 -0.9162
24113SOL    HW278303   1.742  11.746  11.410  0.1264  1.2555 -1.3872
24114SOL     OW78304   5.475   6.934   8.199 -0.7283 -0.8692 -0.0369
24114SOL    HW178305   5.513   6.932   8.287 -1.4888 -0.3486  0.3117
24114SOL    HW278306   5.549   6.914   8.141  0.1621  0.4862  0.5807
24115SOL     OW78307   0.580   7.195  12.424 -0.4040  0.1212  0.5563
24115SOL    HW178308   0.663   7.214  12.467  0.3597  0.3066 -0.9223
24115SOL    HW278309   0.557   7.106  12.452  1.1369 -0.5704 -0.2466
24116SOL     OW78310   5.200   2.361   7.879  0.7030  0.5002 -0.0759
24116SOL    HW178311   5.151   2.420   7.936  0.7721  0.6764 -0.1987
24116SOL    HW278312   5.248   2.304   7.939  0.2438  0.2395  0.0431
24117SOL     OW78313   8.776  11.985   5.128  0.1772 -0.1840  0.0196
24117SOL    HW178314   8.713  11.970   5.198  0.6938 -0.0973  0.5142
24117SOL    HW278315   8.725  12.023   5.057 -0.2910  0.0599  0.4805
24118SOL     OW78316  10.431   7.918   1.813 -0.4891  0.1323  0.6049
24118SOL    HW178317  10.444   7.992   1.753  1.4709  1.5156  2.5478
24118SOL    HW278318  10.508   7.863   1.801 -0.6130 -0.1499  1.0714
24119SOL     OW78319  11.841   1.194   4.649 -0.1256  0.1076  0.1359
24119SOL    HW178320  11.865   1.273   4.696 -1.4922  0.1862  0.7638
24119SOL    HW278321  11.747   1.183   4.668  0.0758 -1.7451  0.1938
24120SOL     OW78322   5.339   1.152   4.963 -0.4361 -0.3902 -0.0387
24120SOL    HW178323   5.371   1.158   5.053  0.6957 -1.4323 -0.3425
24120SOL    HW278324   5.389   1.218   4.915 -1.3443  0.4660  0.1474
24121SOL     OW78325  10.399   9.817   4.949 -0.8304 -0.2319 -0.6146
24121SOL    HW178326  10.494   9.823   4.948 -0.8148 -0.4557 -0.4473
24121SOL    HW278327  10.374   9.824   4.857 -0.6559 -0.1211 -0.6539
24122SOL     OW78328  10.809   9.852   2.655 -0.2130 -0.4945  1.4416
24122SOL    HW178329  10.776   9.762   2.654  1.6977 -1.3446  3.7258
24122SOL    HW278330  10.813   9.875   2.748 -0.4083  1.8850  0.9150
24123SOL     OW78331   0.146   3.201   9.525  0.0889  0.5293 -0.0259
24123SOL    HW178332   0.144   3.297   9.524  1.6378  0.5870  0.0062
24123SOL    HW278333   0.088   3.177   9.597 -0.9756  1.3984 -0.5615
24124SOL     OW78334  11.103   5.662   1.567  0.1249 -0.6415 -0.3344
24124SOL    HW178335  11.189   5.621   1.563  0.9798  0.8819  0.9762
24124SOL    HW278336  11.120   5.754   1.549 -1.0650 -0.1489  0.8472
24125SOL     OW78337  10.199   0.711   2.914 -0.0688 -0.1808  0.2146
24125SOL    HW178338  10.232   0.639   2.860 -0.0285  0.0110 -0.0170
24125SOL    HW278339  10.177   0.780   2.851 -2.7104 -0.9607  0.1220
24126SOL     OW78340   7.631   7.826  11.526 -0.1536  0.6091 -0.2485
24126SOL    HW178341   7.689   7.780  11.586  0.4934  2.5700  0.7133
24126SOL    HW278342   7.548   7.834  11.574  0.2154  1.7557  0.2320
24127SOL     OW78343   4.334  12.086   3.406 -0.5169  0.4925 -0.1447
24127SOL    HW178344   4.352  12.105   3.314 -0.7434  0.3107 -0.2281
24127SOL    HW278345   4.263  12.021   3.404  1.8702 -2.3159  0.0667
24128SOL     OW78346   2.505   4.258  10.518 -0.1661  0.2181 -0.2005
24128SOL    HW178347   2.446   4.219  10.453  0.4624 -1.2074  0.0379
24128SOL    HW278348   2.455   4.257  10.600 -0.5048  0.8408 -0.3951
24129SOL     OW78349   3.194  10.682   7.871 -0.2126  0.3264 -0.4070
24129SOL    HW178350   3.270  10.631   7.900 -0.3415  0.3558 -0.0116
24129SOL    HW278351   3.176  10.741   7.945 -0.8597  0.0503 -0.3455
24130SOL     OW78352   0.083   3.127   8.084  0.5489  1.1480 -0.3966
24130SOL    HW178353   0.154   3.181   8.049  1.8015  0.2068  0.5568
24130SOL    HW278354   0.083   3.146   8.178 -1.3434  2.0865 -0.5584
24131SOL     OW78355   2.083   7.662   5.602 -0.0959 -0.2003 -0.1044
24131SOL    HW178356   2.110   7.729   5.665 -1.4484 -1.0995  1.5072
24131SOL    HW278357   1.994   7.687   5.578  0.3751  0.0935 -1.6783
24132SOL     OW78358   9.773   9.552   2.545  0.2550  0.4362 -0.0414
24132SOL    HW178359   9.686   9.568   2.582  0.3685 -0.1338  0.4936
24132SOL    HW278360   9.764   9.470   2.495  0.8021 -0.4093  1.1865
24133SOL     OW78361  10.093   7.274   1.744 -0.3211 -0.3604 -0.2900
24133SOL    HW178362  10.009   7.230   1.738  0.1936 -1.1804 -2.6859
24133SOL    HW278363  10.156   7.204   1.763 -0.0948  0.2053  1.2321
24134SOL     OW78364   6.768   8.854   3.127 -1.3548 -0.0187 -0.9426
24134SOL    HW178365   6.843   8.897   3.086 -0.7559 -0.8144 -0.7191
24134SOL    HW278366   6.759   8.897   3.212 -0.8873 -0.1971 -0.7998
24135SOL     OW78367   8.576   5.611   9.618  0.0438  0.9940 -0.6655
24135SOL    HW178368   8.558   5.638   9.708  0.4583  0.8417 -0.5320
24135SOL    HW278369   8.669   5.630   9.605  0.0508  0.7626 -0.9711
24136SOL     OW78370   5.331   9.452  10.626 -0.0339 -0.4022 -0.0727
24136SOL    HW178371   5.263   9.460  10.559 -0.6459 -0.3047  0.5585
24136SOL    HW278372   5.287   9.412  10.701  1.0709 -2.2610 -0.3485
24137SOL     OW78373   9.391   5.799   3.466 -0.6389 -0.2797 -0.1695
24137SOL    HW178374   9.471   5.829   3.422  0.4239 -0.5150  1.5201
24137SOL    HW278375   9.422   5.738   3.533 -2.1671  0.2113  1.0528
24138SOL     OW78376   5.548   1.723  10.923  0.3156  0.1093 -0.8233
24138SOL    HW178377   5.600   1.789  10.970  0.9712 -0.1517 -1.1742
24138SOL    HW278378   5.477   1.701  10.984  1.3516 -0.4862  0.2080
24139SOL     OW78379  10.400   1.614  12.276  0.3463  0.3756  0.0480
24139SOL    HW178380  10.451   1.623  12.195  2.2878 -1.7036  0.9074
24139SOL    HW278381  10.355   1.530  12.267 -1.2465  1.1691  0.2478
24140SOL     OW78382  11.001  10.406   6.246  0.4634 -0.3763  0.0779
24140SOL    HW178383  10.930  10.464   6.273  1.4204  0.4404  0.9086
24140SOL    HW278384  10.956  10.328   6.214 -0.8007 -0.4253  1.7985
24141SOL     OW78385   3.608   4.052   6.042 -0.3630  0.3960  0.1546
24141SOL    HW178386   3.668   4.108   6.092 -0.1918 -0.9280  1.5407
24141SOL    HW278387   3.663   4.014   5.973  0.0359  0.3668  0.4801
24142SOL     OW78388  10.878   0.530   6.678  0.1251  0.0100  0.4656
24142SOL    HW178389  10.966   0.540   6.714  1.1272 -2.2423 -1.0988
24142SOL    HW278390  10.828   0.488   6.748  1.5468 -2.6343  0.0500
24143SOL     OW78391  11.729   7.361  10.756  0.1528 -1.0992  0.2077
24143SOL    HW178392  11.781   7.421  10.702 -2.7346  0.6133 -0.9195
24143SOL    HW278393  11.708   7.412  10.835 -0.8288 -1.2381  0.0526
24144SOL     OW78394   2.783   5.475   1.042 -0.3844  0.0895  0.0154
24144SOL    HW178395   2.878   5.473   1.055 -0.2759  1.0323 -0.5323
24144SOL    HW278396   2.755   5.385   1.057  0.7193 -0.3918 -0.6737
24145SOL     OW78397   7.415   1.342   9.639  0.0498  0.5576 -0.3724
24145SOL    HW178398   7.492   1.300   9.678  0.0915  2.3347  1.6045
24145SOL    HW278399   7.450   1.408   9.580 -0.0226 -1.7488 -3.2621
24146SOL     OW78400   5.894   7.324   8.562  0.1219  0.1174 -0.8710
24146SOL    HW178401   5.979   7.293   8.533 -0.1551  0.2471 -1.8732
24146SOL    HW278402   5.877   7.401   8.507  0.3983  1.5372  0.9367
24147SOL     OW78403   4.620   8.737   5.172  0.0381  0.2005  0.4035
24147SOL    HW178404   4.664   8.799   5.230  1.1175 -0.2133  0.0510
24147SOL    HW278405   4.651   8.651   5.200 -0.3851 -0.0906  0.0070
24148SOL     OW78406   0.740   2.498   2.100 -0.8527 -0.2041  0.4721
24148SOL    HW178407   0.818   2.486   2.154 -0.0535 -0.5629 -0.7217
24148SOL    HW278408   0.689   2.418   2.114  0.7468 -1.6485 -1.4852
24149SOL     OW78409   6.915   3.400   6.754  0.2366  0.0835 -0.3814
24149SOL    HW178410   6.958   3.485   6.751  0.5838 -0.0734  0.0912
24149SOL    HW278411   6.978   3.341   6.796 -0.0605 -0.3703 -0.5539
24150SOL     OW78412   3.097   9.301   0.248 -0.2974  0.6220  0.0959
24150SOL    HW178413   3.096   9.278   0.155  0.6493  0.7509  0.0436
24150SOL    HW278414   3.138   9.387   0.251 -0.8494  0.8693  0.5876
24151SOL     OW78415   8.718  11.405  10.670 -0.5236 -0.0034  0.1766
24151SOL    HW178416   8.638  11.354  10.676  0.1000 -0.9521  0.6382
24151SOL    HW278417   8.788  11.340  10.660  0.5174  0.5985  2.7580
24152SOL     OW78418   0.571   8.233   7.659 -0.2604  0.1914 -0.3267
24152SOL    HW178419   0.601   8.277   7.580  0.5107 -2.3174 -1.5378
24152SOL    HW278420   0.628   8.157   7.667 -2.3434 -1.3529  0.8509
24153SOL     OW78421   5.664   0.666   0.677  0.1739  0.0993  0.8019
24153SOL    HW178422   5.744   0.665   0.729 -0.2256  0.3091  1.4344
24153SOL    HW278423   5.612   0.594   0.711  1.3345 -2.0892 -1.6590
24154SOL     OW78424  10.548   3.842  10.055 -0.3856 -0.6509  0.2942
24154SOL    HW178425  10.597   3.786  10.116  0.6934  0.2247  0.2581
24154SOL    HW278426  10.506   3.908  10.111 -1.3944 -1.2688  0.3031
24155SOL     OW78427  12.374   3.241   5.697  0.2127  0.5553  0.2328
24155SOL    HW178428  12.348   3.312   5.755 -2.5811  0.7531 -1.0543
24155SOL    HW278429  12.293   3.192   5.682  1.0312 -0.1269 -2.5625
24156SOL     OW78430   7.912   8.244  11.389 -0.0671 -0.6646 -0.3525
24156SOL    HW178431   7.855   8.177  11.428  0.6913 -1.4702 -0.5980
24156SOL    HW278432   7.917   8.220  11.297  0.0716 -0.1548 -0.4811
24157SOL     OW78433   5.076   8.694   6.865  0.4719 -0.9770  0.1361
24157SOL    HW178434   5.154   8.692   6.921  1.6539 -0.9462 -1.4602
24157SOL    HW278435   5.101   8.648   6.786 -1.0371 -0.6685 -0.5663
24158SOL     OW78436   1.538   4.887  10.972  0.7950 -0.0055 -0.2009
24158SOL    HW178437   1.448   4.871  11.000  0.7203  2.8962  1.7261
24158SOL    HW278438   1.585   4.806  10.991 -0.5481 -0.1495  3.1174
24159SOL     OW78439   4.461   1.514   6.793 -0.6445 -0.3412 -0.0952
24159SOL    HW178440   4.545   1.485   6.757 -0.0151 -0.1862  1.1756
24159SOL    HW278441   4.400   1.510   6.719  1.2609  3.2829 -2.1571
24160SOL     OW78442  10.007  11.835   1.734 -0.3953 -0.2922  0.3037
24160SOL    HW178443  10.065  11.762   1.711  0.5317  0.8718 -1.3022
24160SOL    HW278444   9.924  11.814   1.691 -0.7951 -1.3381  1.5273
24161SOL     OW78445   3.069  10.440  12.196  0.3882  0.2921  0.0697
24161SOL    HW178446   3.091  10.533  12.194 -0.9483  0.6181 -1.0800
24161SOL    HW278447   3.151  10.396  12.177  0.6266  1.3385 -1.4975
24162SOL     OW78448   7.112   0.843  11.769  0.2144  0.2897  0.5039
24162SOL    HW178449   7.081   0.850  11.859 -1.5550  2.4320 -0.1750
24162SOL    HW278450   7.058   0.774  11.731  0.5705 -0.2252  0.9187
24163SOL     OW78451   6.448   1.388   1.333  0.1951 -0.3053 -0.1498
24163SOL    HW178452   6.460   1.385   1.428  0.0526 -1.8801 -0.1449
24163SOL    HW278453   6.527   1.347   1.297  0.4102  0.5960 -0.7433
24164SOL     OW78454   8.408  11.829   3.652  0.0922  0.3976 -0.8017
24164SOL    HW178455   8.480  11.834   3.589  1.4705  0.4199  0.6980
24164SOL    HW278456   8.419  11.906   3.708 -0.9985  0.3006 -0.4324
24165SOL     OW78457  12.129   7.772   7.025 -0.0180 -0.0040  0.1390
24165SOL    HW178458  12.099   7.800   7.112  3.7227  0.4633  1.4898
24165SOL    HW278459  12.219   7.742   7.040  1.5880  2.0528 -3.8595
24166SOL     OW78460   0.053   7.641   6.621  0.0624  0.1800  0.1263
24166SOL    HW178461   0.001   7.580   6.570 -0.3490 -0.6801  1.5116
24166SOL    HW278462  -0.011   7.690   6.673  0.5864 -0.7449  1.6974
24167SOL     OW78463   4.081  10.809   3.329  0.3678 -0.6624 -0.0725
24167SOL    HW178464   4.096  10.716   3.314  1.9318 -0.2940 -1.0287
24167SOL    HW278465   4.084  10.849   3.242 -1.9982  0.0969  0.1286
24168SOL     OW78466   3.588   8.279   3.159  0.3417 -0.4676 -0.0537
24168SOL    HW178467   3.601   8.192   3.120  1.7432 -0.0083 -0.6965
24168SOL    HW278468   3.677   8.307   3.183 -0.3524 -0.3003  2.6076
24169SOL     OW78469   4.052  12.228   4.411  0.0420  0.1737  0.4961
24169SOL    HW178470   3.998  12.280   4.352  0.0425 -0.0476  0.2993
24169SOL    HW278471   4.045  12.273   4.495  0.9760  1.1590  0.0703
24170SOL     OW78472   8.030   7.070   0.692 -0.0224  0.0016  0.0839
24170SOL    HW178473   8.079   7.122   0.629 -0.6434  0.4628 -0.0275
24170SOL    HW278474   7.939   7.074   0.662  0.0094 -1.7821 -0.3539
24171SOL     OW78475  11.058   3.569   7.675  0.6629 -0.7462 -0.6852
24171SOL    HW178476  11.055   3.501   7.608  1.0998 -1.7534  0.2848
24171SOL    HW278477  11.137   3.550   7.725  1.0780  0.8037 -0.7109
24172SOL     OW78478  10.836   9.343   5.966  0.3658 -0.1139  0.4338
24172SOL    HW178479  10.828   9.248   5.959 -0.0967  0.0389 -1.8053
24172SOL    HW278480  10.923   9.357   6.005  1.0028 -1.4355 -0.4424
24173SOL     OW78481   1.199   3.364   3.720 -0.0399  0.0151  0.0622
24173SOL    HW178482   1.275   3.413   3.688  0.3065  0.0044  0.8316
24173SOL    HW278483   1.233   3.314   3.794 -0.6544 -0.5000 -0.0009
24174SOL     OW78484   5.545   3.610  12.408 -0.1864  0.9978 -0.5907
24174SOL    HW178485   5.539   3.628  12.502  0.8882  1.1174 -0.5256
24174SOL    HW278486   5.464   3.645  12.372 -1.3459 -0.4550  0.4844
24175SOL     OW78487   3.727   2.032   7.299  0.4787  0.3334 -0.0181
24175SOL    HW178488   3.732   2.039   7.204 -2.5612 -0.3859 -0.3347
24175SOL    HW278489   3.753   1.942   7.317  0.3051  0.2353 -0.2514
24176SOL     OW78490   2.072   2.497   3.749  0.0911  0.2781  0.4951
24176SOL    HW178491   2.165   2.518   3.761  0.3967 -0.6570 -0.1403
24176SOL    HW278492   2.046   2.550   3.673  0.5345 -0.6336 -0.3198
24177SOL     OW78493   1.153   5.439   2.188 -0.3263 -0.8972  0.2358
24177SOL    HW178494   1.137   5.437   2.094 -0.0678  0.7140  0.1176
24177SOL    HW278495   1.081   5.490   2.224  0.5810  0.1451  0.6396
24178SOL     OW78496   3.363  10.592   4.325  0.2586  0.1556 -0.3254
24178SOL    HW178497   3.420  10.666   4.344  0.2606  0.4014 -1.2132
24178SOL    HW278498   3.275  10.631   4.317  0.2689  0.0866 -0.8521
24179SOL     OW78499   0.652   3.423   6.693 -0.2324 -0.0570 -0.2134
24179SOL    HW178500   0.624   3.334   6.673  0.9543 -0.7636  1.0796
24179SOL    HW278501   0.653   3.427   6.788  2.3980  0.3957 -0.1667
24180SOL     OW78502   5.770   9.162   1.291 -0.0650  0.0953  0.5177
24180SOL    HW178503   5.791   9.251   1.318 -1.7857  0.1337  1.9225
24180SOL    HW278504   5.833   9.107   1.339 -0.3993  0.4493  1.3955
24181SOL     OW78505   7.871   3.101   4.498  0.6858  0.0210  0.0741
24181SOL    HW178506   7.799   3.163   4.485  0.5749 -0.1710 -0.2484
24181SOL    HW278507   7.834   3.016   4.472  1.0028 -0.0949 -0.0003
24182SOL     OW78508   2.850  10.464   0.551  0.3090 -0.0655 -0.5133
24182SOL    HW178509   2.913  10.399   0.522  0.8002  0.3357 -0.3616
24182SOL    HW278510   2.879  10.546   0.511  0.1177  0.1978 -0.1236
24183SOL     OW78511  10.371   6.331   8.431  0.2697  0.0716  0.0915
24183SOL    HW178512  10.415   6.342   8.346 -1.9659  0.5188 -1.0909
24183SOL    HW278513  10.389   6.413   8.477  1.9695 -0.3938  0.3454
24184SOL     OW78514   8.959   3.011  11.135 -0.5151 -0.2480  0.1539
24184SOL    HW178515   8.991   2.969  11.214  0.1028  0.4010  0.2529
24184SOL    HW278516   8.934   3.099  11.163 -2.6251 -0.7859  0.1390
24185SOL     OW78517  11.585   2.345   8.313 -0.2626 -0.0304  0.0378
24185SOL    HW178518  11.577   2.308   8.401 -3.1700  2.1748  0.8646
24185SOL    HW278519  11.658   2.407   8.319  0.7100 -1.1817  0.3480
24186SOL     OW78520   1.564   9.320  11.909 -0.9553 -0.1353  0.0402
24186SOL    HW178521   1.638   9.260  11.904 -0.5246  0.3250  0.7837
24186SOL    HW278522   1.487   9.264  11.903 -0.5516 -0.6755 -0.1317
24187SOL     OW78523   5.254   5.169   9.535 -0.0263  0.2298 -0.3836
24187SOL    HW178524   5.290   5.101   9.477  0.6660  0.5251 -0.3051
24187SOL    HW278525   5.160   5.149   9.539 -0.3483  1.0438 -2.7348
24188SOL     OW78526   4.743  12.372   0.074 -0.4495 -0.8273  0.8068
24188SOL    HW178527   4.700  12.391   0.157  3.6578 -2.0039  3.4882
24188SOL    HW278528   4.756  12.458   0.033 -3.5169 -0.3248  0.6563
24189SOL     OW78529  11.366  10.342  12.211  0.1453 -0.1318 -0.4641
24189SOL    HW178530  11.287  10.315  12.259  0.3611 -1.4604 -0.8175
24189SOL    HW278531  11.337  10.346  12.120  0.3555 -0.0818 -0.5275
24190SOL     OW78532   7.999   6.288  10.340  0.0484  0.2772 -0.8650
24190SOL    HW178533   8.071   6.347  10.317  0.3759 -0.2298 -1.1406
24190SOL    HW278534   7.979   6.310  10.431  0.7530  0.2230 -0.6869
24191SOL     OW78535   3.201   0.420  12.040  0.4481  0.4358 -0.4356
24191SOL    HW178536   3.225   0.328  12.044 -2.3920 -0.4067 -1.0069
24191SOL    HW278537   3.139   0.432  12.112 -1.7964  0.9798 -2.3304
24192SOL     OW78538   8.302  12.151  10.271  0.0812 -0.4752 -0.3298
24192SOL    HW178539   8.368  12.101  10.223 -0.4954 -0.5614 -1.0378
24192SOL    HW278540   8.285  12.099  10.349  1.9660  0.2922  0.6655
24193SOL     OW78541   3.550  11.264   9.179 -0.2582  0.1421  0.4786
24193SOL    HW178542   3.582  11.330   9.118  1.5917 -2.1537 -1.2381
24193SOL    HW278543   3.609  11.271   9.254 -0.4407  0.8114  0.5644
24194SOL     OW78544   5.698   6.804   5.515 -0.0006 -0.1094 -0.2756
24194SOL    HW178545   5.704   6.895   5.543  1.3838 -0.0504 -0.7328
24194SOL    HW278546   5.684   6.809   5.421  3.2474 -0.3385 -0.8696
24195SOL     OW78547  11.451   8.301   8.700 -0.1785  0.0637 -0.1744
24195SOL    HW178548  11.445   8.208   8.723  0.7841 -0.4254 -1.7770
24195SOL    HW278549  11.362   8.325   8.673 -0.1978 -0.6935 -0.8137
24196SOL     OW78550   9.452   0.254  10.879 -1.4807  0.2609  0.0536
24196SOL    HW178551   9.443   0.342  10.843  0.7320  0.6428  0.2843
24196SOL    HW278552   9.428   0.263  10.971 -1.2194  0.6364  0.0849
24197SOL     OW78553   1.676   9.958   9.353  0.5046 -0.0042 -0.7130
24197SOL    HW178554   1.690  10.027   9.289 -0.0943  0.9288  0.1337
24197SOL    HW278555   1.665  10.004   9.436 -1.1531 -1.0183 -0.3214
24198SOL     OW78556   6.992   6.275   7.965 -0.0479  0.7686 -0.3123
24198SOL    HW178557   7.084   6.296   7.949  0.3590 -0.4662  0.3416
24198SOL    HW278558   6.989   6.253   8.058 -0.7133 -0.6769 -0.6636
24199SOL     OW78559  11.587   7.122   9.392  0.6175 -0.1167  0.8738
24199SOL    HW178560  11.630   7.037   9.392  1.0252  0.0680 -0.0927
24199SOL    HW278561  11.641   7.177   9.448  1.5058  0.0331 -0.1007
24200SOL     OW78562   4.937   9.991   0.778  0.2859 -0.4446 -0.5965
24200SOL    HW178563   4.969   9.912   0.823 -0.3388  0.3134  1.3010
24200SOL    HW278564   4.989  10.062   0.816 -3.3197  0.8357  2.5469
24201SOL     OW78565   2.499  11.406   5.194 -0.0287 -0.7718 -0.0789
24201SOL    HW178566   2.582  11.403   5.146 -0.9337  1.3105 -2.0124
24201SOL    HW278567   2.432  11.390   5.127 -1.3905  2.7211  0.2062
24202SOL     OW78568   5.277   6.495   8.312 -0.4798  0.1679 -0.3394
24202SOL    HW178569   5.245   6.522   8.226 -1.2605  1.1491  0.2277
24202SOL    HW278570   5.284   6.577   8.361  2.6501 -0.0214 -0.3057
24203SOL     OW78571   2.628   3.720   4.830  0.3710  0.4357  0.6542
24203SOL    HW178572   2.710   3.676   4.807  0.2462  0.6345 -0.2221
24203SOL    HW278573   2.654   3.809   4.852  0.3468  0.6336 -0.0924
24204SOL     OW78574   4.989   7.228   6.248  0.0735 -0.3512 -0.0102
24204SOL    HW178575   4.901   7.266   6.245  0.6668  1.1217  0.2193
24204SOL    HW278576   5.026   7.261   6.329  0.7061 -1.2963  0.0975
24205SOL     OW78577   1.319   5.356  11.670  0.0069  0.4560  0.2225
24205SOL    HW178578   1.344   5.277  11.718 -1.7097 -0.1799  0.1619
24205SOL    HW278579   1.265   5.323  11.597  1.0014  1.5476 -1.0461
24206SOL     OW78580   9.118   5.132   5.113  0.3869 -0.0622 -0.0712
24206SOL    HW178581   9.067   5.058   5.147  0.8593  0.2812  1.4624
24206SOL    HW278582   9.189   5.144   5.177  0.9632  1.0065 -0.8812
24207SOL     OW78583   4.750   7.484   0.334  0.7155 -0.5172 -0.2821
24207SOL    HW178584   4.828   7.497   0.281  1.6249  0.9261  1.3498
24207SOL    HW278585   4.779   7.430   0.407 -0.7185 -3.2240 -1.5426
24208SOL     OW78586   2.387   8.594   8.942  0.1126 -0.1654  0.1441
24208SOL    HW178587   2.356   8.504   8.955  0.8742 -0.4468  0.1059
24208SOL    HW278588   2.473   8.583   8.900  0.5163  0.5642  0.7513
24209SOL     OW78589   2.096   9.142   6.655  0.4474  0.2630 -0.0996
24209SOL    HW178590   2.104   9.157   6.561 -1.8429  0.9740 -0.2636
24209SOL    HW278591   2.171   9.187   6.694  1.7513 -0.5348 -1.6032
24210SOL     OW78592   9.483   2.307   2.641  0.0570 -0.2619 -0.1684
24210SOL    HW178593   9.457   2.357   2.563  0.8842 -1.1190 -1.0318
24210SOL    HW278594   9.508   2.221   2.607 -0.6452 -1.0376  1.1993
24211SOL     OW78595   5.223   4.052   3.855 -0.0625 -0.4792 -0.0222
24211SOL    HW178596   5.289   3.982   3.862 -1.2159 -1.5367  0.8042
24211SOL    HW278597   5.199   4.071   3.946 -1.2890 -0.5042 -0.3285
24212SOL     OW78598   6.904   5.068   7.749  0.4624 -0.1109 -0.2891
24212SOL    HW178599   6.932   4.979   7.729  1.4027 -0.3011  1.6929
24212SOL    HW278600   6.966   5.099   7.814 -0.6258  1.5355  0.0287
24213SOL     OW78601  11.293  10.956  10.431 -0.0505 -0.5713 -0.2297
24213SOL    HW178602  11.324  10.891  10.369 -2.1041  0.9149 -3.0510
24213SOL    HW278603  11.213  10.919  10.468  0.6959 -1.0790  0.9413
24214SOL     OW78604   8.332   6.758   8.762  0.6004  0.3782  0.1985
24214SOL    HW178605   8.285   6.786   8.840 -0.4537  0.8477 -0.5758
24214SOL    HW278606   8.414   6.806   8.763  0.8866 -0.1117  1.3428
24215SOL     OW78607   0.354   8.271   1.260 -0.7489  0.0362  0.4571
24215SOL    HW178608   0.347   8.257   1.166 -0.1709  0.5292  0.3340
24215SOL    HW278609   0.282   8.332   1.280 -2.6506 -2.1650  0.8361
24216SOL     OW78610   5.408   4.624   4.483  0.4956 -0.0222 -0.2842
24216SOL    HW178611   5.374   4.710   4.508 -0.0562 -0.3941  0.2953
24216SOL    HW278612   5.436   4.585   4.566 -0.3131 -0.8358 -0.3731
24217SOL     OW78613  12.282   6.175   7.318  0.3889 -0.2120  0.0511
24217SOL    HW178614  12.295   6.175   7.413  1.8458 -1.0374 -0.1137
24217SOL    HW278615  12.361   6.133   7.283  0.7135  1.6484 -1.6442
24218SOL     OW78616   1.668   8.707   1.702  0.1751  0.2748  0.1957
24218SOL    HW178617   1.655   8.614   1.721  1.7061 -0.4550 -2.0242
24218SOL    HW278618   1.581   8.746   1.714 -0.4501 -1.3658  1.3841
24219SOL     OW78619   4.356  10.110  11.512  0.4288 -0.3415  0.6875
24219SOL    HW178620   4.446  10.141  11.517  1.0473 -2.3013  3.2379
24219SOL    HW278621   4.303  10.190  11.510  2.1464  0.8287  0.3876
24220SOL     OW78622   8.286   6.290   6.721 -0.2284  0.1254  0.9908
24220SOL    HW178623   8.262   6.230   6.791  0.5557 -1.0253  0.3182
24220SOL    HW278624   8.211   6.288   6.661  0.6147 -1.9359 -0.1200
24221SOL     OW78625   3.895   1.321   1.974  0.6071  0.2837  0.4867
24221SOL    HW178626   3.811   1.341   2.017 -0.3157  1.2058 -1.5992
24221SOL    HW278627   3.872   1.257   1.907  1.5324  0.7712 -0.2994
24222SOL     OW78628   0.554   0.044   3.928 -0.4284 -0.1020 -0.9597
24222SOL    HW178629   0.618   0.076   3.991 -0.3727 -0.3949 -0.8659
24222SOL    HW278630   0.558  -0.052   3.935 -1.4989 -0.1218 -0.3157
24223SOL     OW78631   8.766   2.504   7.724 -0.0141  0.1477 -0.4774
24223SOL    HW178632   8.703   2.543   7.785  0.4753 -1.2777  1.0089
24223SOL    HW278633   8.717   2.494   7.642 -2.1876 -2.0173  0.9581
24224SOL     OW78634   2.709   4.297   7.095 -0.2551 -0.1000  0.0240
24224SOL    HW178635   2.651   4.360   7.139 -0.4719 -1.1678  1.3445
24224SOL    HW278636   2.784   4.290   7.153  0.7859  0.5409 -1.2036
24225SOL     OW78637  10.245   6.128   9.595 -0.5223  0.2043  0.6696
24225SOL    HW178638  10.246   6.104   9.688 -0.8045 -0.1773  0.5763
24225SOL    HW278639  10.315   6.076   9.556 -1.2146 -0.5884  0.4451
24226SOL     OW78640   9.268   4.892   0.449 -0.8072 -0.1476  0.4114
24226SOL    HW178641   9.223   4.816   0.485  0.3205 -0.2889  1.5950
24226SOL    HW278642   9.232   4.966   0.497 -0.9909 -0.0656  0.1507
24227SOL     OW78643   5.521   7.793   2.863  0.4104 -0.1195 -0.3654
24227SOL    HW178644   5.613   7.805   2.886  0.2525  0.8730 -0.2397
24227SOL    HW278645   5.499   7.869   2.809 -0.2886 -0.4425 -0.5473
24228SOL     OW78646  11.751  10.436  12.354 -0.0903 -0.2014 -0.0672
24228SOL    HW178647  11.748  10.343  12.331 -0.3997 -0.5076  1.1806
24228SOL    HW278648  11.661  10.457  12.377 -0.0592  0.4733 -0.5388
24229SOL     OW78649  11.358  11.383   4.760  0.1541 -0.6704  0.3758
24229SOL    HW178650  11.444  11.423   4.765  0.2120 -0.7748  0.2069
24229SOL    HW278651  11.322  11.392   4.848 -0.0577  0.2440  0.2070
24230SOL     OW78652   3.722   8.366   7.482  0.2623 -0.5241  0.0836
24230SOL    HW178653   3.764   8.309   7.547  0.0111 -0.2257  0.5191
24230SOL    HW278654   3.795   8.410   7.439  0.4073  0.3934  1.2119
24231SOL     OW78655   5.112   8.774   7.973 -0.0405  0.7346  0.4582
24231SOL    HW178656   5.129   8.868   7.968 -0.2018  0.7046 -1.1657
24231SOL    HW278657   5.026   8.767   8.014  0.1360  1.2727  0.9264
24232SOL     OW78658   5.257   7.577   3.299 -0.4207 -0.0739  0.0950
24232SOL    HW178659   5.256   7.484   3.274 -2.7632 -0.6663  2.0213
24232SOL    HW278660   5.346   7.606   3.279  0.3821 -2.7205 -0.5867
24233SOL     OW78661  10.372   0.960   6.122  0.5825 -0.0512 -0.4633
24233SOL    HW178662  10.280   0.952   6.146  0.5497 -1.3451 -0.8934
24233SOL    HW278663  10.406   0.870   6.128  1.8670  0.4345 -0.1064
24234SOL     OW78664   5.810   7.570  10.017  0.1641 -0.0862  0.2797
24234SOL    HW178665   5.765   7.505  10.071 -2.2263  1.2593  0.0169
24234SOL    HW278666   5.740   7.617   9.973  1.9622  0.2293 -2.4594
24235SOL     OW78667   0.744   1.286  10.834 -0.2553  0.2185  0.1740
24235SOL    HW178668   0.834   1.316  10.822 -0.3099  0.4455  0.3205
24235SOL    HW278669   0.722   1.242  10.752 -0.1054  0.4038  0.0322
24236SOL     OW78670   1.207   1.913   7.297 -0.5648 -0.1161 -0.4219
24236SOL    HW178671   1.287   1.869   7.326  0.0536 -0.0035 -1.8584
24236SOL    HW278672   1.238   1.996   7.260 -1.6788  1.6478  2.2009
24237SOL     OW78673   8.612   5.881   3.352  0.0736 -0.1456  0.0574
24237SOL    HW178674   8.673   5.913   3.286  0.4217  5.2593  2.4817
24237SOL    HW278675   8.657   5.894   3.435 -3.0576  0.9461  1.7713
24238SOL     OW78676   4.200   0.647   9.837 -0.4766 -0.7497 -0.5069
24238SOL    HW178677   4.107   0.643   9.817 -0.5192 -1.2983 -0.2171
24238SOL    HW278678   4.241   0.671   9.754 -1.0204  1.3083 -0.2202
24239SOL     OW78679   5.185   9.913   4.106  0.3210  0.4038 -0.0792
24239SOL    HW178680   5.173  10.002   4.073  0.6994  0.3037 -0.4965
24239SOL    HW278681   5.268   9.884   4.068  0.5746  0.1441  0.6512
24240SOL     OW78682   7.247   0.046  11.948 -0.2973 -0.0243 -0.6074
24240SOL    HW178683   7.283  -0.018  11.887  0.9926 -0.2085  0.3055
24240SOL    HW278684   7.183  -0.004  11.999  0.6830 -0.6138  0.0817
24241SOL     OW78685  11.191   3.330   5.964 -0.0427  0.1149  0.4213
24241SOL    HW178686  11.153   3.296   6.045 -0.3904  1.4338  0.8257
24241SOL    HW278687  11.170   3.423   5.964 -1.0728 -0.0407 -1.7353
24242SOL     OW78688   1.837   8.893   8.779  0.2496 -0.5423  0.2771
24242SOL    HW178689   1.899   8.965   8.775 -1.7994  1.3985  0.9183
24242SOL    HW278690   1.798   8.900   8.866 -0.8303 -1.6988 -0.0787
24243SOL     OW78691  11.931   0.495  10.262  0.0645 -0.7253 -0.1064
24243SOL    HW178692  11.945   0.519  10.354  0.0220  2.0720 -0.7573
24243SOL    HW278693  11.873   0.562  10.228  0.3446 -1.5186 -2.2921
24244SOL     OW78694   5.263   7.213   8.646  0.3399  0.1093 -0.0348
24244SOL    HW178695   5.249   7.306   8.633 -0.2983 -0.1679 -1.4864
24244SOL    HW278696   5.341   7.193   8.594  0.8111 -0.0744  0.7205
24245SOL     OW78697   6.222   7.423   3.407  0.2137 -1.0240  0.1752
24245SOL    HW178698   6.230   7.358   3.477  1.6255  0.3917  1.4062
24245SOL    HW278699   6.131   7.452   3.413  0.3738 -0.7303  1.6449
24246SOL     OW78700   8.102   1.015   8.945 -0.1164 -0.0581 -0.2816
24246SOL    HW178701   8.149   1.040   9.024 -0.3050 -1.0825  0.1601
24246SOL    HW278702   8.084   0.922   8.955  0.2876 -0.3208 -1.7527
24247SOL     OW78703   5.568   8.776   8.021  0.1426 -0.3960  0.6840
24247SOL    HW178704   5.592   8.858   7.977  0.6681 -1.0400 -0.2489
24247SOL    HW278705   5.474   8.785   8.039 -0.1812 -0.2858 -0.9504
24248SOL     OW78706   5.213   6.606  12.063  0.5532  0.0755 -0.1503
24248SOL    HW178707   5.133   6.658  12.060  1.5073  1.5988 -0.3701
24248SOL    HW278708   5.212   6.555  11.982  0.2559  0.7725 -0.5859
24249SOL     OW78709   5.380   8.891   2.299 -0.2133 -0.0342 -0.5641
24249SOL    HW178710   5.459   8.838   2.313 -1.3607 -1.3564  1.2151
24249SOL    HW278711   5.384   8.914   2.206  0.8337 -2.4805 -1.2178
24250SOL     OW78712   2.999   0.560   3.510 -0.1072 -0.0737  0.0528
24250SOL    HW178713   2.930   0.506   3.547 -1.4492  1.5764  0.0727
24250SOL    HW278714   2.985   0.647   3.548  1.3229  0.5597 -0.7740
24251SOL     OW78715   8.123   0.843   0.134  0.3556 -0.3341 -0.7697
24251SOL    HW178716   8.031   0.872   0.138  0.2165 -0.7668 -0.8665
24251SOL    HW278717   8.118   0.748   0.130  0.7909 -0.3274 -1.5624
24252SOL     OW78718  11.036   8.036   5.308  0.2201 -0.5045 -0.0250
24252SOL    HW178719  10.986   7.957   5.328 -0.3733  0.3348  2.0553
24252SOL    HW278720  11.125   8.016   5.339  0.3657 -0.7908 -0.6250
24253SOL     OW78721   8.739   1.089   0.730 -0.0651 -0.2734  0.3067
24253SOL    HW178722   8.661   1.144   0.743 -0.4501 -0.2922 -1.5985
24253SOL    HW278723   8.787   1.132   0.659  1.4858 -0.4943  1.1748
24254SOL     OW78724   5.344   3.007   9.950  0.0812  0.2337 -0.0448
24254SOL    HW178725   5.382   3.094   9.964  0.6169  0.0163 -0.1187
24254SOL    HW278726   5.413   2.947   9.979  0.2247 -0.1894 -1.2415
24255SOL     OW78727  12.292   9.236   3.310 -0.0255 -0.2670  0.3969
24255SOL    HW178728  12.235   9.213   3.384  0.4998  0.0251  0.8996
24255SOL    HW278729  12.359   9.167   3.309  1.7355  1.3042  2.1026
24256SOL     OW78730   9.010   8.810   2.125  0.4898 -0.1423 -0.2287
24256SOL    HW178731   8.927   8.850   2.153  0.0722 -1.1444  0.0044
24256SOL    HW278732   9.045   8.871   2.061 -1.8727 -1.0248 -2.5647
24257SOL     OW78733  10.468   1.560   0.919  1.1789  0.0796 -0.5337
24257SOL    HW178734  10.420   1.539   0.839  2.4014  1.0216 -1.5445
24257SOL    HW278735  10.492   1.652   0.910  1.4476  0.1708  0.8659
24258SOL     OW78736  10.764   8.759  10.700  0.0749  0.7923 -0.0488
24258SOL    HW178737  10.731   8.827  10.758  0.0938  1.2553 -0.5780
24258SOL    HW278738  10.841   8.797  10.659  1.2314 -0.2345  1.0852
24259SOL     OW78739   3.989   5.085  10.309 -0.0430  0.2954  0.5293
24259SOL    HW178740   3.933   5.071  10.233  0.9615  2.2880 -0.6666
24259SOL    HW278741   3.973   5.176  10.334  0.7583  0.1211  1.7768
24260SOL     OW78742  11.784   3.156   9.072  0.2836  0.1277 -0.0842
24260SOL    HW178743  11.820   3.239   9.103 -1.9910 -0.4507  5.2225
24260SOL    HW278744  11.696   3.178   9.042  0.5595 -0.1168 -1.1247
24261SOL     OW78745   9.871   6.330   6.105 -0.3377  0.4918  0.2613
24261SOL    HW178746   9.950   6.348   6.156  0.1464 -1.1428  0.1335
24261SOL    HW278747   9.817   6.276   6.163 -1.7705  2.2823  0.6664
24262SOL     OW78748   4.636   7.687   1.882 -0.3261 -0.3019  0.8328
24262SOL    HW178749   4.636   7.665   1.789 -0.0349  2.3873  0.1271
24262SOL    HW278750   4.728   7.679   1.908 -0.4347 -1.2376  0.9682
24263SOL     OW78751   2.431   6.726   0.497  0.3034 -0.3347 -0.4100
24263SOL    HW178752   2.344   6.764   0.507  0.0246 -0.8020 -0.9878
24263SOL    HW278753   2.431   6.651   0.556  1.4705  1.4934  2.1152
24264SOL     OW78754  11.071   7.462   1.289  0.0594  0.0862  0.5006
24264SOL    HW178755  10.977   7.449   1.281  0.0974 -0.0375  0.2624
24264SOL    HW278756  11.102   7.385   1.337  0.0773 -0.0055  0.3422
24265SOL     OW78757   2.383   2.465   6.624 -0.2846  0.2665 -0.1401
24265SOL    HW178758   2.372   2.470   6.719 -1.1929 -2.3059 -0.0293
24265SOL    HW278759   2.472   2.433   6.612 -0.2264  0.4327 -0.1551
24266SOL     OW78760   9.108  12.348   8.626  0.6670  0.6209 -0.0314
24266SOL    HW178761   9.174  12.406   8.664  0.0767  1.8491 -0.8064
24266SOL    HW278762   9.145  12.320   8.543  0.4390  0.8986 -0.2294
24267SOL     OW78763   6.413   9.610   1.656  0.4608 -0.0933  0.5630
24267SOL    HW178764   6.363   9.657   1.722  1.4178  1.2710  0.3543
24267SOL    HW278765   6.503   9.642   1.666  0.9993 -1.2933 -0.1276
24268SOL     OW78766   1.878   4.771   4.180 -0.5945  0.1022 -0.0827
24268SOL    HW178767   1.813   4.701   4.185  1.5176 -2.0411 -1.0817
24268SOL    HW278768   1.894   4.782   4.087  0.0500  1.0733  0.1246
24269SOL     OW78769   8.021   0.454   5.048 -0.3129  0.4225 -0.5497
24269SOL    HW178770   7.973   0.371   5.050  0.3028  0.0504 -0.8514
24269SOL    HW278771   7.990   0.498   4.969  1.3694 -0.7817 -1.9700
24270SOL     OW78772  12.170   5.905   5.104  0.0749 -0.3848  0.2935
24270SOL    HW178773  12.135   5.818   5.117 -1.2804 -0.0277 -0.7424
24270SOL    HW278774  12.257   5.903   5.145  0.6812 -2.6394 -0.9629
24271SOL     OW78775   1.900   8.658   3.247 -0.0288  0.3178  0.7332
24271SOL    HW178776   1.950   8.589   3.203 -0.6946  0.4417 -0.2501
24271SOL    HW278777   1.837   8.687   3.181  0.0616  1.6834  1.2291
24272SOL     OW78778   0.405  12.315   4.689 -0.2787 -0.6254  0.1550
24272SOL    HW178779   0.384  12.231   4.732  0.4563 -0.2220  1.3623
24272SOL    HW278780   0.475  12.352   4.743 -0.2160  0.5165 -0.6853
24273SOL     OW78781  11.851   8.723   9.025  0.1086 -0.4832  0.5028
24273SOL    HW178782  11.835   8.631   9.043  0.5442 -0.6848 -0.0815
24273SOL    HW278783  11.764   8.762   9.014 -0.1142 -0.6119  1.7049
24274SOL     OW78784  11.034   0.912   9.936  0.4517 -0.2190  0.2276
24274SOL    HW178785  11.082   0.862  10.002 -1.6606 -1.2993  1.0342
24274SOL    HW278786  11.024   1.000   9.974  1.7681  0.0404  0.0206
24275SOL     OW78787   5.580   3.944  11.730 -0.4677 -0.1876 -0.4571
24275SOL    HW178788   5.627   4.027  11.727 -0.2440 -0.0446  2.9101
24275SOL    HW278789   5.631   3.885  11.674  1.2759  1.0931 -0.2745
24276SOL     OW78790   4.877   8.747   8.932  0.1256  0.0354 -0.5664
24276SOL    HW178791   4.920   8.795   9.003 -0.5806  2.4859 -1.6790
24276SOL    HW278792   4.917   8.660   8.933  1.0920  0.4382  1.9284
24277SOL     OW78793   9.634   2.597   1.136  0.3232  0.4923  0.4081
24277SOL    HW178794   9.705   2.542   1.169 -0.0961 -1.2664 -1.3965
24277SOL    HW278795   9.559   2.574   1.190  0.2404 -0.5420 -0.0995
24278SOL     OW78796   7.886   5.768   3.792  0.4596  0.1216 -0.2247
24278SOL    HW178797   7.798   5.732   3.803  0.9145 -1.2838 -0.9638
24278SOL    HW278798   7.885   5.850   3.841 -0.5445 -1.0283  1.8015
24279SOL     OW78799   8.241   9.632   6.159  0.3349 -0.5285 -0.0648
24279SOL    HW178800   8.300   9.707   6.154 -0.7344  0.5226  1.9386
24279SOL    HW278801   8.246   9.604   6.250 -0.2350 -2.1318 -0.4950
24280SOL     OW78802   7.561   2.248   6.008 -0.3559 -0.1819 -0.0535
24280SOL    HW178803   7.645   2.246   6.053  0.7541 -1.0407 -2.0188
24280SOL    HW278804   7.497   2.225   6.075  0.6957  2.1783  1.9312
24281SOL     OW78805   3.140   1.884   5.125  0.0495 -0.0234 -0.2765
24281SOL    HW178806   3.054   1.845   5.136  0.1252  0.3346  2.2581
24281SOL    HW278807   3.200   1.823   5.169  0.4524  1.7008  1.7818
24282SOL     OW78808  11.378   4.211   5.883 -0.9555  0.1986  0.7230
24282SOL    HW178809  11.322   4.145   5.842 -2.0338  0.9986  0.8502
24282SOL    HW278810  11.395   4.176   5.970  3.0765 -2.5386 -0.8520
24283SOL     OW78811  12.468   9.060   0.383 -0.4318 -0.6233 -0.5294
24283SOL    HW178812  12.398   8.995   0.393 -0.7432 -0.1389  0.6600
24283SOL    HW278813  12.548   9.012   0.402 -0.6287 -0.7636 -0.0106
24284SOL     OW78814   8.945   4.713   4.399  0.6521  0.0923 -0.2524
24284SOL    HW178815   8.926   4.745   4.310  0.3652 -0.4181 -0.3804
24284SOL    HW278816   8.964   4.792   4.449 -0.7957  0.5506 -0.3778
24285SOL     OW78817   4.212   1.480   4.931 -0.0209  0.5229 -0.0170
24285SOL    HW178818   4.203   1.534   5.009  1.5425 -0.6555  1.0494
24285SOL    HW278819   4.219   1.391   4.965 -2.2770 -0.3931 -1.6915
24286SOL     OW78820   6.832   2.279   7.616  0.0950  0.1784  0.4941
24286SOL    HW178821   6.894   2.288   7.689  0.6595 -0.7064  0.1377
24286SOL    HW278822   6.887   2.261   7.540 -0.5033  0.8778 -0.1218
24287SOL     OW78823   5.649   3.419   6.250 -0.6383 -0.5076  0.1436
24287SOL    HW178824   5.677   3.509   6.237 -1.1338 -0.4559 -0.6781
24287SOL    HW278825   5.555   3.420   6.229 -0.6926 -1.1742  0.3202
24288SOL     OW78826  12.071  12.486   1.711 -0.2618  0.4091 -0.2270
24288SOL    HW178827  12.143  12.475   1.649 -0.1378 -3.2546  0.3544
24288SOL    HW278828  12.011  12.545   1.667  0.4902 -0.8842 -3.2522
24289SOL     OW78829  11.103   3.266   0.260  0.3492 -0.0566  0.3177
24289SOL    HW178830  11.110   3.271   0.165 -0.2720  2.4671  0.3428
24289SOL    HW278831  11.026   3.211   0.276 -0.5738  0.8891 -0.7023
24290SOL     OW78832   6.611   2.981   0.419  0.0811 -0.0401  0.0260
24290SOL    HW178833   6.697   3.003   0.384  0.6424  0.7859  1.7960
24290SOL    HW278834   6.576   3.064   0.450 -0.4756 -0.6604  1.1330
24291SOL     OW78835   0.105   3.996   4.031 -0.1501 -0.2401 -0.2856
24291SOL    HW178836   0.046   4.058   4.073  0.4416  0.0116  0.1801
24291SOL    HW278837   0.063   3.977   3.946 -0.7905  0.0870 -0.0496
24292SOL     OW78838   1.812   8.492  11.822  0.0473  0.8265 -0.1855
24292SOL    HW178839   1.726   8.517  11.853 -0.1305  0.0532 -0.0395
24292SOL    HW278840   1.854   8.450  11.897  0.0367 -0.0296 -0.6446
24293SOL     OW78841   8.514   1.675   7.890  0.0733 -0.5431  0.1445
24293SOL    HW178842   8.576   1.654   7.821 -0.1238 -1.1225  0.1322
24293SOL    HW278843   8.487   1.765   7.872  0.5990 -0.4261 -0.0821
24294SOL     OW78844   3.119   0.674   4.339  0.0445 -0.2122  0.6767
24294SOL    HW178845   3.108   0.585   4.373  1.2355 -0.0974  1.4316
24294SOL    HW278846   3.196   0.669   4.282  0.3647  0.4039  1.0389
24295SOL     OW78847  10.777   2.811   1.467  0.1708  0.5922  0.3609
24295SOL    HW178848  10.702   2.786   1.521  0.7484 -0.0674  0.8973
24295SOL    HW278849  10.843   2.744   1.486 -0.1962 -0.7512 -2.5393
24296SOL     OW78850   9.246   8.519  10.645 -0.1349  0.6386 -0.4033
24296SOL    HW178851   9.315   8.458  10.673 -0.4416  1.0048  1.2243
24296SOL    HW278852   9.226   8.492  10.556  2.0850  0.4900 -0.9259
24297SOL     OW78853   7.458   6.187   4.579 -0.2444 -1.0203 -0.3099
24297SOL    HW178854   7.439   6.269   4.534 -0.9657 -1.5084 -0.9132
24297SOL    HW278855   7.373   6.152   4.604 -0.1116 -2.5033 -1.7329
24298SOL     OW78856   7.219   2.883   6.598 -0.1354 -0.0496  0.0470
24298SOL    HW178857   7.199   2.939   6.673 -0.8666  0.2378 -0.3559
24298SOL    HW278858   7.134   2.865   6.557 -0.2456 -3.2119  1.3728
24299SOL     OW78859   9.726   8.252  10.052  0.1015  0.2031  0.4721
24299SOL    HW178860   9.693   8.341  10.036  0.3943  0.6206  2.0638
24299SOL    HW278861   9.653   8.195  10.028 -0.2494  0.8805 -0.1213
24300SOL     OW78862   9.672   1.024  10.301 -0.2272  0.2500  0.2702
24300SOL    HW178863   9.640   1.022  10.211  0.6701 -0.1219 -0.0582
24300SOL    HW278864   9.756   0.978  10.297 -1.0412 -1.4755  1.6480
24301SOL     OW78865   6.171   0.111  11.594 -0.0038 -0.1582  0.1371
24301SOL    HW178866   6.240   0.107  11.528 -0.5743  0.5673 -0.5167
24301SOL    HW278867   6.164   0.204  11.616  0.2695 -0.4015  1.3350
24302SOL     OW78868   0.111   4.015   9.810 -0.4004  0.2016 -0.0353
24302SOL    HW178869   0.112   3.998   9.716  0.7335  1.1972 -0.2268
24302SOL    HW278870   0.039   3.962   9.843  0.4292 -1.7207 -1.1630
24303SOL     OW78871   2.941  10.928   2.869  0.2712 -0.7435  0.1732
24303SOL    HW178872   2.976  10.969   2.948  1.8014  2.4487 -1.9498
24303SOL    HW278873   2.848  10.950   2.869  0.3125 -0.5345  0.9261
24304SOL     OW78874   1.584  11.887  10.592 -0.1837 -0.6236 -0.5495
24304SOL    HW178875   1.554  11.801  10.562 -0.2913 -0.5419 -0.6786
24304SOL    HW278876   1.630  11.869  10.673 -0.7538 -0.7290 -0.2443
24305SOL     OW78877   4.705   4.050   5.122  0.2991 -0.5849  0.0837
24305SOL    HW178878   4.725   4.134   5.165  1.5424 -0.6156 -0.3785
24305SOL    HW278879   4.610   4.047   5.118  0.2249  0.6606  0.4144
24306SOL     OW78880   0.380   6.770  12.316 -0.2134 -0.3064  0.6780
24306SOL    HW178881   0.346   6.846  12.268  1.0778  0.8889  1.5882
24306SOL    HW278882   0.359   6.696  12.260 -0.2076  0.8758 -0.9671
24307SOL     OW78883  10.715   3.617   0.981  0.0317  0.0338  0.3211
24307SOL    HW178884  10.664   3.549   0.937  1.9806 -2.4993  1.6711
24307SOL    HW278885  10.691   3.609   1.074 -0.2617  1.7587  0.4218
24308SOL     OW78886   2.788   8.764   4.686 -0.0393 -0.1853  0.2964
24308SOL    HW178887   2.745   8.731   4.764 -1.1645  0.3059 -0.1068
24308SOL    HW278888   2.818   8.685   4.640  0.7614 -0.4730  1.2677
24309SOL     OW78889   6.086   4.029   2.189  0.5943  0.6036 -0.4784
24309SOL    HW178890   6.165   4.062   2.232 -0.6897  2.7670  0.3756
24309SOL    HW278891   6.095   4.057   2.098  0.3678  1.7449 -0.1590
24310SOL     OW78892   2.327   4.505   8.420 -0.3152  0.3924 -0.0812
24310SOL    HW178893   2.417   4.524   8.394 -0.2161  1.2947  0.8376
24310SOL    HW278894   2.276   4.574   8.379 -0.6264 -0.2589 -0.7990
24311SOL     OW78895   8.046  12.148   8.801  0.4270  0.4267  0.0699
24311SOL    HW178896   8.095  12.230   8.798  0.6811  0.3703  1.7046
24311SOL    HW278897   8.059  12.116   8.890 -1.4769 -0.2816  0.1330
24312SOL     OW78898  12.428   7.621   7.493  0.5393 -0.8602  0.0834
24312SOL    HW178899  12.362   7.581   7.437  1.9005 -0.7144 -1.7330
24312SOL    HW278900  12.504   7.563   7.487  1.2687  0.0201  0.4617
24313SOL     OW78901   4.354   8.922   1.935  0.6658  0.2530 -0.0985
24313SOL    HW178902   4.358   8.985   1.863  0.2931  1.0266  0.5457
24313SOL    HW278903   4.265   8.888   1.933  0.6474  0.2967  0.0224
24314SOL     OW78904   6.402   1.361   3.437 -0.7985 -0.1837  0.2717
24314SOL    HW178905   6.459   1.316   3.500 -0.3799  1.0086  0.7768
24314SOL    HW278906   6.323   1.382   3.488 -1.5764 -1.5127 -0.3304
24315SOL     OW78907   9.681  11.529   9.928  0.1238  0.1822 -0.3167
24315SOL    HW178908   9.693  11.457   9.989  0.3170  0.6266  0.1784
24315SOL    HW278909   9.752  11.590   9.948 -1.5850  1.8142  1.1902
24316SOL     OW78910  10.470  11.053   9.930  0.5227 -0.3031  0.2003
24316SOL    HW178911  10.490  11.075  10.021 -0.3459 -1.2462  0.6448
24316SOL    HW278912  10.522  11.115   9.878  1.0675  0.2193  1.3278
24317SOL     OW78913   1.297  10.495   7.947  0.1067 -0.7507  0.0698
24317SOL    HW178914   1.246  10.564   7.990 -1.4626 -0.6473 -1.7770
24317SOL    HW278915   1.231  10.441   7.904  1.5030 -1.3238 -1.4416
24318SOL     OW78916   7.479  10.943  12.136  0.5622  0.2054 -0.1544
24318SOL    HW178917   7.469  10.939  12.040 -0.7249  1.5963 -0.1190
24318SOL    HW278918   7.433  11.023  12.161  1.8837  0.4776  1.5307
24319SOL     OW78919   7.035   2.330   9.663  0.4204 -0.2668 -0.0028
24319SOL    HW178920   7.022   2.296   9.752 -0.4844 -0.7099 -0.2859
24319SOL    HW278921   7.113   2.284   9.631  1.8451  1.2276  1.1794
24320SOL     OW78922   7.031   0.116   6.632  0.4425 -0.0183  0.3441
24320SOL    HW178923   6.952   0.170   6.640  0.9344  0.7808 -0.1638
24320SOL    HW278924   7.048   0.086   6.721 -1.0409 -1.0936  0.3182
24321SOL     OW78925   2.421   7.052   6.594  0.9670  0.2809 -0.2119
24321SOL    HW178926   2.386   7.082   6.509  0.4335  0.7394  0.1593
24321SOL    HW278927   2.436   7.133   6.643  1.8593  0.0444 -0.0907
24322SOL     OW78928   6.726   1.632   0.040  0.0063  0.3310  0.4849
24322SOL    HW178929   6.732   1.725   0.018  1.1236  0.1822  0.1225
24322SOL    HW278930   6.707   1.631   0.134 -0.0506  0.9234  0.4842
24323SOL     OW78931   0.735   0.076   1.524 -0.2125 -0.1497 -0.9300
24323SOL    HW178932   0.820   0.103   1.558  1.0189 -0.2781 -3.6554
24323SOL    HW278933   0.671   0.122   1.579  1.6154  1.0821  0.2719
24324SOL     OW78934  10.660   7.398   4.702  0.1625  0.3828  0.1618
24324SOL    HW178935  10.624   7.487   4.706 -0.2173  0.5169 -3.3770
24324SOL    HW278936  10.606   7.353   4.637  0.8249 -2.2718  1.3011
24325SOL     OW78937   7.258  10.258   3.141  0.1354 -0.1931  0.3078
24325SOL    HW178938   7.181  10.211   3.109 -1.2012  0.7544  1.9578
24325SOL    HW278939   7.281  10.214   3.223 -0.6568  1.4244  1.4717
24326SOL     OW78940   3.191   4.349  12.322  0.2748 -0.6620  0.7000
24326SOL    HW178941   3.157   4.316  12.239  0.7304  0.8213 -0.1283
24326SOL    HW278942   3.118   4.341  12.383 -0.0738 -1.7628  0.1660
24327SOL     OW78943   8.723   6.758   2.168  0.0073  0.7768 -0.3628
24327SOL    HW178944   8.649   6.775   2.110  0.6735  1.6339 -1.0068
24327SOL    HW278945   8.696   6.794   2.252 -0.8718 -0.2438 -0.1915
24328SOL     OW78946   4.150   0.319   8.732  0.4624  0.3054 -0.0845
24328SOL    HW178947   4.089   0.274   8.674 -0.8964  0.4068  1.1904
24328SOL    HW278948   4.148   0.268   8.813  0.3391  1.5745  0.7457
24329SOL     OW78949  10.871   6.277   0.922  0.1237 -0.0446  0.3134
24329SOL    HW178950  10.791   6.324   0.945  0.7897 -0.3222  3.7005
24329SOL    HW278951  10.842   6.188   0.902 -0.4096 -0.5707  3.0429
24330SOL     OW78952   0.828   0.961   0.706  0.4178 -0.0194  0.1125
24330SOL    HW178953   0.792   0.976   0.793 -0.6349 -1.7614  0.0332
24330SOL    HW278954   0.892   0.891   0.718  0.8471  0.2813 -0.3921
24331SOL     OW78955   5.041   6.403   1.077  0.0756 -0.6611 -0.1025
24331SOL    HW178956   5.076   6.476   1.127  0.9012 -1.5867  0.7145
24331SOL    HW278957   5.089   6.326   1.109 -2.3004 -1.9295  0.6894
24332SOL     OW78958   5.396   2.772   1.737 -1.0471  0.1365  0.0738
24332SOL    HW178959   5.317   2.809   1.698 -0.9964 -0.4104 -0.5724
24332SOL    HW278960   5.371   2.751   1.826 -1.6607 -0.1010 -0.1467
24333SOL     OW78961   1.965  11.242   4.723 -0.0212  0.3285 -0.0384
24333SOL    HW178962   2.039  11.260   4.665 -1.0095  0.3426 -1.3505
24333SOL    HW278963   1.962  11.317   4.782  2.4073 -0.7612  1.6153
24334SOL     OW78964   7.559   0.293   3.015 -0.5053  0.4333 -0.2570
24334SOL    HW178965   7.624   0.238   3.057 -0.0523  0.9172 -0.3205
24334SOL    HW278966   7.590   0.383   3.029 -0.7781  0.6337 -0.9109
24335SOL     OW78967   5.669   2.158   7.489  0.6857 -0.2836  0.3723
24335SOL    HW178968   5.683   2.245   7.526 -2.3879  1.2116 -1.5787
24335SOL    HW278969   5.664   2.101   7.566  2.0236  1.3560  1.7605
24336SOL     OW78970  11.291   2.560   0.364 -0.1205 -0.3189 -0.6120
24336SOL    HW178971  11.251   2.633   0.316  2.8485  1.4459 -0.7096
24336SOL    HW278972  11.301   2.592   0.453  0.2700 -1.0217 -0.3957
24337SOL     OW78973   7.184   2.697   5.352  0.0024  0.0493  0.1987
24337SOL    HW178974   7.271   2.691   5.313 -0.3818 -1.2118 -0.5383
24337SOL    HW278975   7.135   2.754   5.291 -0.1881 -0.7436 -0.4115
24338SOL     OW78976   2.265   1.378   4.395 -0.6950 -0.1857  0.3026
24338SOL    HW178977   2.307   1.311   4.341 -0.4510  0.5199 -0.4042
24338SOL    HW278978   2.183   1.397   4.349  0.1695  1.4537 -0.6564
24339SOL     OW78979   7.333   8.000   6.114  0.0764 -0.5493  0.0441
24339SOL    HW178980   7.275   8.069   6.081  0.9241  0.4768  0.6331
24339SOL    HW278981   7.384   8.043   6.182  1.1384 -1.5816 -0.0776
24340SOL     OW78982   9.610  12.464  12.373 -0.8878 -0.2930 -0.2123
24340SOL    HW178983   9.565  12.531  12.322 -0.3786  0.2513  0.0397
24340SOL    HW278984   9.696  12.455  12.331 -0.8000 -0.4866  0.0029
24341SOL     OW78985  11.447  10.861   7.123  0.5702 -0.4081 -0.2600
24341SOL    HW178986  11.456  10.766   7.118  0.7904 -0.3736 -0.4904
24341SOL    HW278987  11.355  10.877   7.102  0.7964 -0.4823 -1.3501
24342SOL     OW78988   3.654   6.311   9.704 -0.4051  0.2965  0.4222
24342SOL    HW178989   3.716   6.248   9.742 -0.6287 -1.8780 -2.5070
24342SOL    HW278990   3.586   6.257   9.665 -1.2523  2.4144 -1.2258
24343SOL     OW78991   8.712   8.746   1.166 -0.0679  0.0924  0.1243
24343SOL    HW178992   8.738   8.727   1.257  0.9394 -1.2791 -0.4230
24343SOL    HW278993   8.784   8.712   1.113 -1.5943 -1.0740 -1.3011
24344SOL     OW78994   3.695   5.114   0.677  0.1482  0.2078 -0.0998
24344SOL    HW178995   3.662   5.202   0.663  2.8386  0.9810 -2.6933
24344SOL    HW278996   3.736   5.090   0.594 -1.0400 -3.8225  0.2581
24345SOL     OW78997   0.585   9.842   9.842 -0.0646  0.4184 -0.1005
24345SOL    HW178998   0.564   9.855   9.749 -1.6729  0.9543  0.3108
24345SOL    HW278999   0.668   9.794   9.841 -0.2083  0.1399 -1.8191
24346SOL     OW79000   2.592   3.793   9.352 -0.3323  0.2458 -0.0104
24346SOL    HW179001   2.521   3.734   9.326  1.0641 -1.0737 -1.0271
24346SOL    HW279002   2.549   3.859   9.407 -1.9986 -1.6852  1.1675
24347SOL     OW79003  10.385  10.413  10.928  0.5479 -0.3567 -0.2151
24347SOL    HW179004  10.465  10.451  10.963 -0.5791 -0.6093  2.9026
24347SOL    HW279005  10.400  10.318  10.930  0.1628 -0.4117  0.5097
24348SOL     OW79006   4.599   1.285   0.060 -0.2096 -0.2922  0.4892
24348SOL    HW179007   4.638   1.370   0.080  0.8174 -0.5685 -0.2974
24348SOL    HW279008   4.566   1.294  -0.029 -0.6513 -0.5303  0.6263
24349SOL     OW79009   0.879   1.392   9.262  0.1666 -0.1899  0.1128
24349SOL    HW179010   0.951   1.347   9.307  1.0192 -0.2561 -1.2450
24349SOL    HW279011   0.851   1.460   9.324  1.2041 -0.3464  0.7869
24350SOL     OW79012  10.067  12.450  10.484  0.3343  0.2496  0.4818
24350SOL    HW179013  10.108  12.532  10.458  2.5136 -0.4604  1.5256
24350SOL    HW279014  10.128  12.410  10.544 -1.8563 -0.9646  2.0470
24351SOL     OW79015  11.117   7.856   2.791 -0.4737 -0.2376 -0.3660
24351SOL    HW179016  11.076   7.936   2.822  2.6834  1.1244  0.7336
24351SOL    HW279017  11.113   7.796   2.866  0.4926  0.3284  0.1641
24352SOL     OW79018   8.774  12.026  10.909  0.3111  0.2466 -0.3316
24352SOL    HW179019   8.724  12.019  10.827 -0.7405  1.5785  0.1617
24352SOL    HW279020   8.865  12.036  10.880  0.0269  0.1027 -1.3198
24353SOL     OW79021   5.851   0.699  12.042  0.2516 -0.3009 -0.4595
24353SOL    HW179022   5.878   0.788  12.061  1.1563  0.1572 -3.4921
24353SOL    HW279023   5.905   0.645  12.100  2.3818  0.9749 -1.1575
24354SOL     OW79024   7.027  11.197   8.125 -0.1905  0.2110  0.0655
24354SOL    HW179025   6.933  11.189   8.139 -0.2513 -1.2000 -0.9384
24354SOL    HW279026   7.064  11.117   8.162  0.4755  0.2187 -0.5593
24355SOL     OW79027   6.759  11.174   8.174  0.5510  0.0033 -0.5177
24355SOL    HW179028   6.707  11.255   8.181  1.0178  0.4984 -2.3032
24355SOL    HW279029   6.694  11.104   8.173 -0.0214  0.5274 -1.3004
24356SOL     OW79030   0.566   8.123   3.009  0.0317 -0.1855 -0.0229
24356SOL    HW179031   0.601   8.052   2.956 -0.4997 -0.1144 -0.4758
24356SOL    HW279032   0.472   8.108   3.011 -0.1299  0.7212 -0.4451
24357SOL     OW79033   7.016   4.969   7.235  0.8744  0.2396  0.2041
24357SOL    HW179034   7.092   5.022   7.259  0.5252  1.1778 -0.7229
24357SOL    HW279035   6.973   4.950   7.319  1.5630  0.5614  0.6375
24358SOL     OW79036   7.668   5.912   4.500 -0.1341 -0.3138  0.1902
24358SOL    HW179037   7.744   5.969   4.510  0.3576 -1.0330  0.6634
24358SOL    HW279038   7.643   5.889   4.590  1.1895 -2.7840  0.0146
24359SOL     OW79039  10.092   1.296   4.681 -0.3503 -0.7444  0.0496
24359SOL    HW179040  10.109   1.336   4.596  0.4362 -1.2872 -0.0594
24359SOL    HW279041  10.026   1.229   4.664  0.4743 -1.4796 -0.3157
24360SOL     OW79042   2.685  11.897   3.028 -0.8192  0.3460 -0.3161
24360SOL    HW179043   2.756  11.872   3.087 -1.0484  0.7863  0.1594
24360SOL    HW279044   2.686  11.831   2.959  0.8627  1.0501 -1.0217
24361SOL     OW79045   8.818  11.209   0.366  0.3909 -0.0503 -0.6421
24361SOL    HW179046   8.749  11.195   0.430  1.3122 -0.9468  0.1955
24361SOL    HW279047   8.795  11.291   0.323 -1.9699 -1.0288 -1.4312
24362SOL     OW79048   1.974   8.320   5.100 -0.0260 -0.1503  0.0271
24362SOL    HW179049   1.903   8.271   5.141  0.2605  0.2410  1.0160
24362SOL    HW279050   1.931   8.398   5.063 -0.3125 -0.5994 -0.6161
24363SOL     OW79051  10.282   0.658  11.522 -0.4883 -0.2379 -0.0040
24363SOL    HW179052  10.208   0.625  11.574 -0.1513 -2.7213 -0.9371
24363SOL    HW279053  10.344   0.585  11.521 -0.2963 -0.1887 -3.4767
24364SOL     OW79054  11.652   3.344   9.666  0.3702 -0.3841 -0.5534
24364SOL    HW179055  11.584   3.356   9.732  0.0368  1.3765 -1.1585
24364SOL    HW279056  11.706   3.273   9.699  0.4310  0.6776  1.7946
24365SOL     OW79057   2.871   1.218   1.899 -0.5630 -0.0963 -0.1504
24365SOL    HW179058   2.923   1.178   1.830  0.8925 -1.4745  1.6403
24365SOL    HW279059   2.929   1.219   1.976 -2.3873  0.5520  1.3022
24366SOL     OW79060   4.710   5.359  10.899  0.4357 -0.2925 -0.1470
24366SOL    HW179061   4.784   5.307  10.930  0.5291 -0.1340 -0.1028
24366SOL    HW279062   4.726   5.447  10.934 -0.6454 -0.6448  1.3039
24367SOL     OW79063  11.705   5.669  11.899 -0.6623  0.1936 -0.3047
24367SOL    HW179064  11.779   5.730  11.900 -0.6274  0.2782 -2.4911
24367SOL    HW279065  11.680   5.659  11.991  0.7298  1.7831  0.2883
24368SOL     OW79066   3.852  12.384   1.595  0.3526  0.0223 -0.2189
24368SOL    HW179067   3.780  12.321   1.603  0.3584  0.1170  0.6521
24368SOL    HW279068   3.860  12.399   1.501 -0.3426 -0.4797 -0.3673
24369SOL     OW79069   3.998   0.081  11.641  0.2818 -0.4437  1.4432
24369SOL    HW179070   3.935   0.116  11.703  0.0179 -0.0650  0.9747
24369SOL    HW279071   4.020   0.155  11.584 -0.5854 -1.1114  0.1841
24370SOL     OW79072   9.380  12.118   5.970 -0.1241 -0.5257 -0.0555
24370SOL    HW179073   9.448  12.177   5.937  0.1711 -0.5466  0.5021
24370SOL    HW279074   9.304  12.135   5.913  0.0844  0.0967 -0.1637
24371SOL     OW79075   7.670  11.405   9.034  0.1554 -0.2032 -0.2615
24371SOL    HW179076   7.698  11.334   9.091 -1.0188 -0.1086  0.4489
24371SOL    HW279077   7.634  11.360   8.957 -0.7513 -0.4101  0.2623
24372SOL     OW79078   6.604   6.204  11.626  0.0004  0.0926  0.1404
24372SOL    HW179079   6.603   6.146  11.702  1.8054  0.2604  0.3322
24372SOL    HW279080   6.512   6.229  11.614 -0.6970 -1.9682  0.6659
24373SOL     OW79081   2.522  10.694   2.526 -0.1006 -0.4917  0.1807
24373SOL    HW179082   2.547  10.649   2.445 -0.4165 -0.3752  0.0180
24373SOL    HW279083   2.461  10.634   2.569  1.9142 -1.6890  1.5508
24374SOL     OW79084   6.796   2.752   6.311  0.2008 -0.3006 -0.1957
24374SOL    HW179085   6.842   2.673   6.341 -1.1999 -0.6184  1.2981
24374SOL    HW279086   6.786   2.806   6.389 -0.2968  0.6107 -0.8593
24375SOL     OW79087  10.179   5.835   4.733  0.8395  0.3436  0.0585
24375SOL    HW179088  10.135   5.847   4.817  0.0254  0.6398 -0.3927
24375SOL    HW279089  10.110   5.801   4.675  0.8053  2.2022 -1.0524
24376SOL     OW79090   5.005   4.244   4.620  0.3671  0.5094 -0.8221
24376SOL    HW179091   5.004   4.169   4.679 -1.1513 -0.0406 -1.5004
24376SOL    HW279092   5.037   4.317   4.674 -1.5673  0.1663  0.8825
24377SOL     OW79093   5.690  11.299   5.278 -0.2754 -0.6894  0.2621
24377SOL    HW179094   5.643  11.369   5.324 -0.5960  0.2015 -1.3653
24377SOL    HW279095   5.666  11.310   5.186  1.1947 -1.7694 -0.2844
24378SOL     OW79096   5.703   8.064   0.792 -0.2539 -0.4223  1.2246
24378SOL    HW179097   5.619   8.052   0.834 -2.0553 -0.6641 -2.0838
24378SOL    HW279098   5.718   8.158   0.793 -1.4061 -0.2151  0.4440
24379SOL     OW79099   8.035   5.824  11.522  0.2220  0.0590 -0.7068
24379SOL    HW179100   7.999   5.735  11.514  1.3435 -0.3747 -1.0878
24379SOL    HW279101   8.108   5.816  11.583 -1.5616  1.3458  1.7935
24380SOL     OW79102   8.123   1.029   5.947 -0.2062 -0.5303  0.2754
24380SOL    HW179103   8.099   0.937   5.936 -2.1672 -0.0230 -0.0346
24380SOL    HW279104   8.207   1.038   5.902  0.6871 -2.4289  1.4570
24381SOL     OW79105   6.718   7.858   7.506  0.0127  0.3543 -0.4348
24381SOL    HW179106   6.772   7.781   7.523  0.2212  0.3176 -1.2223
24381SOL    HW279107   6.631   7.823   7.491  0.0357  0.3021 -0.4471
24382SOL     OW79108  11.186   8.404   3.459 -0.5113 -0.0175 -0.1647
24382SOL    HW179109  11.143   8.363   3.535  1.1832 -1.9450 -0.1792
24382SOL    HW279110  11.115   8.416   3.396 -1.8163  0.8783  1.3656
24383SOL     OW79111   3.955  12.402   5.967 -0.2618 -0.2186  0.0646
24383SOL    HW179112   3.927  12.428   5.880  0.5488  0.1256 -0.1041
24383SOL    HW279113   4.051  12.412   5.965 -0.2766  0.2589  1.1356
24384SOL     OW79114   5.772   1.793  11.116 -0.5366  0.0267 -0.3861
24384SOL    HW179115   5.803   1.735  11.046 -2.5897 -0.6286 -0.8433
24384SOL    HW279116   5.784   1.742  11.196  0.4507  0.1791 -0.4336
24385SOL     OW79117   5.501   9.213   5.898  0.3786  0.2900 -0.1775
24385SOL    HW179118   5.417   9.232   5.855  1.2437 -1.3863 -2.8717
24385SOL    HW279119   5.552   9.293   5.888 -0.5950  1.0832  0.8620
24386SOL     OW79120   4.368   0.726   7.486 -0.0221  0.0619  0.2229
24386SOL    HW179121   4.307   0.776   7.540  0.9675  0.3802  1.0692
24386SOL    HW279122   4.450   0.775   7.490  0.2959 -0.3433 -0.9184
24387SOL     OW79123   2.122   2.588   3.217 -0.0041  0.0230 -0.7301
24387SOL    HW179124   2.053   2.535   3.257  0.4125  0.0106 -0.0022
24387SOL    HW279125   2.091   2.605   3.129 -1.4211  0.9032 -0.1002
24388SOL     OW79126   1.413   6.699   9.351  0.1864 -0.3824  0.1698
24388SOL    HW179127   1.319   6.679   9.350 -0.1606  1.1503 -1.3554
24388SOL    HW279128   1.434   6.722   9.261  1.9435 -0.2281  0.5834
24389SOL     OW79129   9.757  12.137   3.705  0.5943  0.0966  0.3511
24389SOL    HW179130   9.805  12.120   3.624  0.0429 -0.8164  0.2031
24389SOL    HW279131   9.674  12.174   3.677  0.4849 -0.0214  0.5195
24390SOL     OW79132   3.061   1.918   0.349  0.4435  0.1878 -0.1024
24390SOL    HW179133   3.155   1.933   0.339  0.7152 -0.8192  0.7716
24390SOL    HW279134   3.020   1.990   0.299  1.6556  1.2602  0.3825
24391SOL     OW79135  10.221   2.896   4.777 -0.2737  0.9984 -0.0135
24391SOL    HW179136  10.197   2.935   4.860 -0.9057 -2.4676  1.6066
24391SOL    HW279137  10.143   2.846   4.750  0.2593  1.2197 -2.2027
24392SOL     OW79138  10.342   8.102   8.940 -0.0090  0.6658 -0.4537
24392SOL    HW179139  10.351   8.012   8.971  0.4233  0.9676  0.3174
24392SOL    HW279140  10.363   8.098   8.846 -1.3728 -0.2642 -0.7475
24393SOL     OW79141  11.092   1.194   5.120  0.9088  0.1883 -0.3260
24393SOL    HW179142  11.135   1.248   5.187 -0.8522  3.0991 -1.3706
24393SOL    HW279143  11.152   1.196   5.046  2.6541 -2.6721  0.8532
24394SOL     OW79144   2.736   0.040   7.476 -0.3668 -0.3196 -0.4528
24394SOL    HW179145   2.761   0.033   7.384  1.6314  2.5244 -0.2396
24394SOL    HW279146   2.811   0.006   7.524 -0.6677 -0.1192  0.1741
24395SOL     OW79147  10.272   2.219  11.562 -0.2765  0.4383  0.2047
24395SOL    HW179148  10.275   2.265  11.478 -1.4117  0.8838  0.3908
24395SOL    HW279149  10.250   2.286  11.626  1.3202  0.2423  0.9962
24396SOL     OW79150   1.181   5.648   9.515 -0.3002  0.9496 -0.7045
24396SOL    HW179151   1.201   5.720   9.575 -0.2786  0.1774  0.2583
24396SOL    HW279152   1.267   5.618   9.485  0.2093 -1.8060  2.7558
24397SOL     OW79153   4.732   4.198  11.632 -0.4013  0.3604 -0.2685
24397SOL    HW179154   4.639   4.184  11.617  0.0616 -0.9626 -2.2389
24397SOL    HW279155   4.758   4.128  11.691 -0.4419  0.0802 -0.5832
24398SOL     OW79156  12.418   0.897   7.592 -0.0090  0.4822  0.0873
24398SOL    HW179157  12.494   0.906   7.534 -1.0093 -2.4838 -1.9483
24398SOL    HW279158  12.374   0.981   7.588  2.2969  1.7593  0.0912
24399SOL     OW79159   5.581   8.364  10.562  0.2480  0.4535 -0.1740
24399SOL    HW179160   5.538   8.429  10.507 -1.4350 -0.8207 -0.4536
24399SOL    HW279161   5.655   8.333  10.509  0.5651  1.5195 -0.3747
24400SOL     OW79162   5.035   9.607   3.191 -0.4452  0.1703 -0.2413
24400SOL    HW179163   5.065   9.654   3.113 -0.2294 -1.5569 -1.2304
24400SOL    HW279164   4.942   9.590   3.174  0.0887 -2.1392 -1.1894
24401SOL     OW79165   7.676   2.463   6.690  0.4392 -0.3913 -0.0600
24401SOL    HW179166   7.615   2.404   6.645 -0.2214  0.3573 -0.1607
24401SOL    HW279167   7.757   2.413   6.696  0.3825 -0.6985 -1.6146
24402SOL     OW79168   7.594   4.925   7.647  0.3603  0.7665  0.7525
24402SOL    HW179169   7.503   4.925   7.616 -0.1646  0.1528  2.2424
24402SOL    HW279170   7.645   4.903   7.569 -1.1802 -4.6443  0.8713
24403SOL     OW79171  12.475   2.510  11.719 -0.4058  0.1357 -0.4313
24403SOL    HW179172  12.561   2.547  11.740  0.2962 -2.3859  1.5693
24403SOL    HW279173  12.419   2.587  11.703  1.6594  1.9132  0.4046
24404SOL     OW79174   9.878  12.185   8.051  0.0464 -0.0301 -0.4674
24404SOL    HW179175   9.952  12.143   8.007  1.1162 -0.3427  1.4953
24404SOL    HW279176   9.873  12.141   8.136 -0.3123  2.1674  0.7257
24405SOL     OW79177  12.124   0.625   8.879 -0.3683  0.4277 -0.1043
24405SOL    HW179178  12.214   0.604   8.903 -0.5306 -1.2264 -0.8200
24405SOL    HW279179  12.078   0.633   8.963  0.7713  3.2946  0.3840
24406SOL     OW79180   3.558   6.379   1.816 -0.4746 -0.0864 -0.3393
24406SOL    HW179181   3.489   6.315   1.833  0.8024 -1.4604 -0.0671
24406SOL    HW279182   3.632   6.349   1.870  0.4162  1.1881 -0.8036
24407SOL     OW79183   8.124   6.624   1.250  0.1832 -0.4279  0.6836
24407SOL    HW179184   8.120   6.674   1.168  2.1787 -0.1638  0.6873
24407SOL    HW279185   8.045   6.570   1.249 -0.2852  0.2046 -0.9885
24408SOL     OW79186   1.876   7.525   4.019 -0.0861  0.2528  0.0430
24408SOL    HW179187   1.898   7.553   4.109  0.2633  0.2398 -0.0363
24408SOL    HW279188   1.878   7.430   4.023 -1.2070  0.2257  0.2959
24409SOL     OW79189   4.853   3.441  11.414 -0.7016 -0.0730 -0.1908
24409SOL    HW179190   4.858   3.347  11.400  0.7501  0.1781 -1.6201
24409SOL    HW279191   4.899   3.479  11.340 -1.4065  1.7826  0.2741
24410SOL     OW79192   5.410   4.833   0.920  0.0680 -0.0648 -0.3836
24410SOL    HW179193   5.419   4.746   0.880 -1.7002  0.1175 -1.2626
24410SOL    HW279194   5.328   4.867   0.884  1.0280  2.2273 -0.5196
24411SOL     OW79195   5.535   7.145   3.725 -0.1379  0.7851  0.3278
24411SOL    HW179196   5.547   7.228   3.680  0.1528  0.0220 -1.0802
24411SOL    HW279197   5.440   7.132   3.726 -0.0946 -0.4396 -2.5937
24412SOL     OW79198  11.088   0.339   4.339  0.4919  0.6789  0.3098
24412SOL    HW179199  11.154   0.310   4.403  0.6191 -0.4234 -0.3074
24412SOL    HW279200  11.045   0.413   4.382  0.4807 -0.1108  1.7390
24413SOL     OW79201   0.313   4.151   6.525  0.4203 -0.3666 -0.0773
24413SOL    HW179202   0.245   4.085   6.513 -0.1982  0.3611 -0.6177
24413SOL    HW279203   0.276   4.231   6.489  0.6004  0.6539  1.8566
24414SOL     OW79204  12.194   8.137  12.021 -0.1006  0.2665  0.5646
24414SOL    HW179205  12.172   8.195  11.948  1.7773  0.9173  0.4499
24414SOL    HW279206  12.214   8.053  11.979  1.7608  0.8521  0.1766
24415SOL     OW79207   0.762  12.289   8.787  0.2869 -0.1793  0.6877
24415SOL    HW179208   0.765  12.208   8.837 -0.0958 -1.4786 -1.2936
24415SOL    HW279209   0.672  12.297   8.758  0.9216 -0.6518 -1.5859
24416SOL     OW79210   6.452   8.877   3.077 -0.0797 -0.1260 -0.0957
24416SOL    HW179211   6.543   8.847   3.086 -0.6124 -1.7511  0.0871
24416SOL    HW279212   6.405   8.801   3.043 -0.9544  1.3824 -2.4562
24417SOL     OW79213  11.948  11.015   4.745  0.0058 -0.2026  0.3012
24417SOL    HW179214  11.951  10.971   4.660 -1.9730 -0.6852  0.4530
24417SOL    HW279215  11.857  11.043   4.755  0.3470  0.4058  1.9926
24418SOL     OW79216   6.229   6.691   9.306 -0.3453  0.3623 -0.3101
24418SOL    HW179217   6.177   6.619   9.342  0.4685 -0.1530 -0.1543
24418SOL    HW279218   6.313   6.652   9.284  0.2543  1.3477  0.1522
24419SOL     OW79219   6.737   2.721   0.337  0.0814  0.1444  0.3234
24419SOL    HW179220   6.767   2.706   0.247 -0.4535  0.3947  0.0962
24419SOL    HW279221   6.781   2.802   0.363  0.6376 -0.2036  0.4753
24420SOL     OW79222   8.692  10.125   1.807 -0.5741 -0.3545  0.6186
24420SOL    HW179223   8.738  10.071   1.871  0.2857  0.7172  0.9428
24420SOL    HW279224   8.676  10.208   1.852 -1.4216 -0.1473 -0.0229
24421SOL     OW79225   0.994   3.413   5.821  0.3396 -0.2826 -0.2881
24421SOL    HW179226   0.907   3.438   5.852 -0.3087 -1.5288 -0.9922
24421SOL    HW279227   1.052   3.479   5.857 -0.5414 -0.8194  2.3683
24422SOL     OW79228  10.225   0.485   0.507 -0.2363  0.6167  0.3248
24422SOL    HW179229  10.147   0.477   0.453  0.9976  1.1208 -1.6473
24422SOL    HW279230  10.202   0.441   0.589 -1.8256 -1.2588 -1.0242
24423SOL     OW79231   0.921   9.117  10.533  0.4509  0.0121  0.0277
24423SOL    HW179232   0.831   9.141  10.512 -0.5135 -3.0562  0.2261
24423SOL    HW279233   0.934   9.149  10.623 -0.5177  0.2210  0.1041
24424SOL     OW79234   6.082   9.599   7.713 -0.1870 -0.4993 -0.6045
24424SOL    HW179235   6.097   9.666   7.646  1.2143  0.3101  0.4514
24424SOL    HW279236   6.151   9.535   7.698  0.5104 -0.0096  0.3951
24425SOL     OW79237   1.296   9.594   6.834 -0.2208 -0.4612 -0.1036
24425SOL    HW179238   1.279   9.687   6.819  1.7620 -0.1233 -0.6266
24425SOL    HW279239   1.218   9.549   6.803 -1.3655  1.0311  0.4752
24426SOL     OW79240   0.860   3.834   2.683  0.5963  0.4210 -0.7053
24426SOL    HW179241   0.817   3.909   2.723  0.2508  0.6900 -1.5651
24426SOL    HW279242   0.859   3.767   2.752  1.9391  1.5384  0.4686
24427SOL     OW79243   0.997   9.664   0.718  0.2512  0.1095  0.0257
24427SOL    HW179244   1.029   9.617   0.642 -1.3746  0.9573 -1.2504
24427SOL    HW279245   1.063   9.731   0.736 -0.6086  1.7388 -2.4394
24428SOL     OW79246   0.862   1.273   9.944 -0.3222 -0.1269  0.4114
24428SOL    HW179247   0.933   1.328   9.910 -0.8115  0.8517  0.9144
24428SOL    HW279248   0.782   1.320   9.919 -0.7520 -0.6235  0.8420
24429SOL     OW79249   4.966   3.717   3.089 -0.7271 -0.2695 -0.3586
24429SOL    HW179250   4.904   3.709   3.162 -1.1258  1.6134 -0.4431
24429SOL    HW279251   4.926   3.781   3.031 -0.1208 -1.2914 -1.9634
24430SOL     OW79252   5.065  12.211  11.885  0.4481 -0.3308 -0.1909
24430SOL    HW179253   5.086  12.173  11.970 -0.3028 -2.8656 -1.0343
24430SOL    HW279254   4.972  12.232  11.890  0.4078 -0.4635 -0.3689
24431SOL     OW79255   1.445   4.080   0.301  0.3846  0.0027  0.3689
24431SOL    HW179256   1.532   4.042   0.312  0.6069  0.4628  0.2235
24431SOL    HW279257   1.389   4.029   0.361  0.7255 -0.3721  0.3743
24432SOL     OW79258   2.204   3.209   4.281 -0.2344 -0.6321 -0.2133
24432SOL    HW179259   2.168   3.198   4.192  2.2677  0.0500 -1.3985
24432SOL    HW279260   2.145   3.272   4.322 -0.9582 -0.2736 -1.7060
24433SOL     OW79261   5.464   9.429  11.732 -0.4343 -0.3287 -0.5408
24433SOL    HW179262   5.444   9.370  11.660  1.2537 -0.4355 -0.9630
24433SOL    HW279263   5.513   9.501  11.692  1.4771 -0.9176  0.6214
24434SOL     OW79264  10.329   1.309   9.567 -0.3944  0.1772 -0.0727
24434SOL    HW179265  10.266   1.280   9.633  0.1411  0.7944  0.7311
24434SOL    HW279266  10.412   1.314   9.614 -0.2092  1.6838 -0.5065
24435SOL     OW79267   5.728   7.142   2.386  0.2204 -0.2799 -0.5456
24435SOL    HW179268   5.726   7.126   2.481 -0.7098 -1.6314 -0.7727
24435SOL    HW279269   5.712   7.236   2.378  0.0838 -0.1842  0.6386
24436SOL     OW79270   1.319   0.544   8.745  0.3341 -0.0610  0.3509
24436SOL    HW179271   1.296   0.625   8.791  1.1197 -0.4987  1.5681
24436SOL    HW279272   1.414   0.539   8.752  0.2028 -1.7202  1.4619
24437SOL     OW79273   4.799   4.886  10.090  0.5323 -0.4623  0.5015
24437SOL    HW179274   4.788   4.910  10.182 -0.0471 -1.2663  0.6583
24437SOL    HW279275   4.872   4.824  10.090  1.1721  0.2835  0.2806
24438SOL     OW79276   7.001   1.250   0.252 -0.0153 -0.0987  0.5340
24438SOL    HW179277   7.067   1.292   0.308  0.2907  0.0065  0.1018
24438SOL    HW279278   6.981   1.316   0.186  1.3248 -1.0130 -0.8515
24439SOL     OW79279  12.066   5.874   2.206 -0.4692 -0.4919  0.2273
24439SOL    HW179280  12.106   5.799   2.250  0.3984 -0.5735 -0.6568
24439SOL    HW279281  11.977   5.845   2.187 -0.1761 -1.2780 -0.0160
24440SOL     OW79282   0.316   1.277   5.847 -0.1591  0.5675 -0.0384
24440SOL    HW179283   0.299   1.362   5.887 -1.2239 -0.0803  0.9328
24440SOL    HW279284   0.311   1.294   5.752 -1.0143  1.4623  0.1503
24441SOL     OW79285   5.091   8.449   0.942 -0.1444 -0.3861  0.2564
24441SOL    HW179286   5.082   8.451   0.847 -2.5760  0.4534  0.4310
24441SOL    HW279287   5.060   8.362   0.967 -3.2724  0.6586  0.4596
24442SOL     OW79288   8.728   5.742   5.200 -0.3533  0.2673  0.5661
24442SOL    HW179289   8.635   5.752   5.220 -0.4121 -0.0853  0.4614
24442SOL    HW279290   8.740   5.649   5.183  0.0873  0.2528  0.9291
24443SOL     OW79291  12.422   5.387   9.977 -0.3285 -0.3093  0.4951
24443SOL    HW179292  12.386   5.306   9.941  1.1785 -0.7265 -0.1819
24443SOL    HW279293  12.431   5.370  10.071 -2.7313  0.1754  0.8652
24444SOL     OW79294   2.489   3.971   0.357 -0.0405 -0.2580  0.1252
24444SOL    HW179295   2.507   3.928   0.273  1.7288  0.3030  0.1895
24444SOL    HW279296   2.502   4.064   0.340 -0.4826 -0.0598  0.8248
24445SOL     OW79297   7.418   4.309   2.039  0.2624 -0.1638 -0.0667
24445SOL    HW179298   7.473   4.238   2.006 -2.3869 -2.2806 -0.3179
24445SOL    HW279299   7.408   4.289   2.132 -1.4056 -0.8572 -0.3603
24446SOL     OW79300   7.291  11.610   6.126 -0.2499  0.4317  0.4068
24446SOL    HW179301   7.257  11.528   6.091 -0.6420  0.2609  1.1677
24446SOL    HW279302   7.303  11.666   6.048  1.6576 -0.8926 -0.3293
24447SOL     OW79303   9.804   7.692   7.490 -0.0849 -0.4281  0.1084
24447SOL    HW179304   9.888   7.656   7.463  0.0300 -0.0267 -0.0704
24447SOL    HW279305   9.827   7.760   7.553 -0.3645 -1.7271  1.6875
24448SOL     OW79306   6.508   5.001   3.053 -0.1807  0.3062 -0.2809
24448SOL    HW179307   6.417   4.989   3.027 -0.5997  0.9751  0.8111
24448SOL    HW279308   6.516   5.094   3.073  0.4478  0.0587  0.7016
24449SOL     OW79309   5.505   5.759  11.272 -0.0419  0.1855  0.0302
24449SOL    HW179310   5.448   5.788  11.343 -0.1601 -1.3244  0.5801
24449SOL    HW279311   5.555   5.837  11.249 -1.2181  1.1495  0.5824
24450SOL     OW79312  12.374   7.442   2.019  0.3283  0.1638 -0.6367
24450SOL    HW179313  12.417   7.441   2.105 -1.0180 -0.9093  0.0771
24450SOL    HW279314  12.333   7.356   2.013  0.9662 -0.0396 -2.6935
24451SOL     OW79315   4.236   2.110  12.289  0.1286  0.1812  0.1723
24451SOL    HW179316   4.295   2.161  12.344 -3.1949  1.6622  2.7865
24451SOL    HW279317   4.236   2.023  12.328 -1.2407  0.8844  1.9049
24452SOL     OW79318  11.245  11.457  10.580 -0.3373 -0.0297 -0.0150
24452SOL    HW179319  11.298  11.439  10.503  0.9507  0.2127  0.7752
24452SOL    HW279320  11.270  11.389  10.643 -0.7886  0.2366  0.4649
24453SOL     OW79321   7.016  10.607   7.210  0.5462  0.0607 -0.0274
24453SOL    HW179322   6.944  10.554   7.245  1.0801 -1.7702 -1.5464
24453SOL    HW279323   7.095  10.554   7.226  1.3026  1.0567 -0.3161
24454SOL     OW79324   7.324   8.651   5.257  0.4212 -0.1167 -0.8418
24454SOL    HW179325   7.273   8.579   5.220 -3.1762  1.5485  0.4696
24454SOL    HW279326   7.321   8.719   5.189  1.0684 -0.0286 -0.7930
24455SOL     OW79327   7.165   8.893   6.320 -0.5880 -0.1106  0.0059
24455SOL    HW179328   7.223   8.936   6.257 -1.1385  0.3525 -0.1975
24455SOL    HW279329   7.199   8.804   6.328 -0.0811  0.0413 -0.3967
24456SOL     OW79330   3.233   0.138   4.832  0.7329  0.0316 -0.4714
24456SOL    HW179331   3.259   0.094   4.912  2.7078  0.1486 -0.9921
24456SOL    HW279332   3.296   0.210   4.823 -0.5821  1.1408 -1.1827
24457SOL     OW79333   8.022   2.136  11.558  0.3597 -0.1144  0.2748
24457SOL    HW179334   7.934   2.164  11.531  0.5551  0.7077  0.4426
24457SOL    HW279335   8.067   2.218  11.578  1.6176 -0.4182 -1.1508
24458SOL     OW79336   7.705  10.235   2.306 -0.3384 -0.4709  0.4122
24458SOL    HW179337   7.759  10.294   2.359  0.1837 -0.7804  0.2336
24458SOL    HW279338   7.666  10.175   2.370  1.0301 -1.4362  0.3857
24459SOL     OW79339  12.227  11.683   7.064  0.3222 -0.4370 -0.1068
24459SOL    HW179340  12.141  11.649   7.038  0.2465  0.1870 -0.7042
24459SOL    HW279341  12.290  11.627   7.019  0.2381 -0.9871  0.4483
24460SOL     OW79342   7.139   2.144   5.782  0.3934  0.4591  0.2139
24460SOL    HW179343   7.161   2.147   5.876  0.3441 -1.6824  0.3355
24460SOL    HW279344   7.199   2.079   5.746 -1.0653 -0.3357 -0.8281
24461SOL     OW79345   3.001   1.743  11.198  0.1076 -0.0879  0.1270
24461SOL    HW179346   3.056   1.774  11.126 -0.3846 -1.0192 -0.6913
24461SOL    HW279347   2.912   1.762  11.169 -0.0989 -0.5531  0.4471
24462SOL     OW79348  11.801   4.802   7.687  0.1151  0.2243 -0.1969
24462SOL    HW179349  11.783   4.892   7.713  1.6494  1.0063 -1.6464
24462SOL    HW279350  11.849   4.765   7.761 -0.4191  0.6316  0.3597
24463SOL     OW79351   0.236  10.932   3.824  0.0350  0.0222 -0.2459
24463SOL    HW179352   0.252  10.859   3.884  0.5769 -0.0371 -0.4563
24463SOL    HW279353   0.295  11.001   3.855 -1.3695  0.8273  0.7279
24464SOL     OW79354   9.611   5.775   8.597  0.1829 -0.3031 -0.4295
24464SOL    HW179355   9.536   5.737   8.643 -0.6174  0.6073 -0.9350
24464SOL    HW279356   9.577   5.856   8.559  1.3390 -0.0519 -0.9755
24465SOL     OW79357   5.660   5.863   6.931  0.0324 -0.0183 -0.4016
24465SOL    HW179358   5.674   5.957   6.930 -1.9918  0.3291 -0.2545
24465SOL    HW279359   5.746   5.826   6.951  0.5471  1.8516  1.1343
24466SOL     OW79360   4.808   5.487  10.574  0.6327  0.0076  0.9888
24466SOL    HW179361   4.856   5.519  10.498 -0.3434  2.4853  1.3192
24466SOL    HW279362   4.750   5.419  10.540  1.4677 -0.1744 -0.1333
24467SOL     OW79363  11.948   2.163   4.109  0.3231 -0.2461  0.2951
24467SOL    HW179364  12.000   2.242   4.097 -1.3810  1.0016  0.7472
24467SOL    HW279365  12.010   2.098   4.141  1.5715  1.2352  1.0016
24468SOL     OW79366   5.174   4.589   4.963 -0.4425 -0.3288  0.1941
24468SOL    HW179367   5.168   4.685   4.972 -0.5029 -0.3770  0.7374
24468SOL    HW279368   5.198   4.559   5.051  1.5318 -0.6628 -0.4178
24469SOL     OW79369   5.459  10.277   9.543  0.4396 -0.1212  0.1268
24469SOL    HW179370   5.432  10.193   9.582  0.2807 -0.6278 -1.0397
24469SOL    HW279371   5.500  10.325   9.615 -0.0926 -0.9215  0.9840
24470SOL     OW79372   6.604   1.518   3.529 -0.2868  0.2654  0.1007
24470SOL    HW179373   6.656   1.440   3.546  0.3565  0.2895 -1.5531
24470SOL    HW279374   6.519   1.485   3.500  0.4214  0.1006 -1.9331
24471SOL     OW79375   1.368   0.741  10.627  0.7216  0.5094 -0.0328
24471SOL    HW179376   1.301   0.807  10.640 -1.1125 -0.3745 -3.7174
24471SOL    HW279377   1.436   0.785  10.575  0.2357  0.0077 -1.1404
24472SOL     OW79378   5.330  10.349   0.118  0.3948 -0.0546  0.1900
24472SOL    HW179379   5.296  10.389   0.038  0.0359 -0.8456 -0.0599
24472SOL    HW279380   5.394  10.412   0.150 -0.5955  1.0041  0.1417
24473SOL     OW79381   6.411  12.188   3.696 -0.3463  0.2492 -0.1645
24473SOL    HW179382   6.401  12.093   3.696 -1.8567  0.3766 -1.0679
24473SOL    HW279383   6.505  12.202   3.703  0.0385 -1.3527 -1.5125
24474SOL     OW79384   2.071   1.278   8.221  0.6443 -0.0810  0.3624
24474SOL    HW179385   2.060   1.252   8.130  2.4459 -0.8483  0.3251
24474SOL    HW279386   2.040   1.369   8.224 -0.6983 -0.4771 -0.6904
24475SOL     OW79387   3.469   8.989   3.120 -0.7693  0.3035  0.3024
24475SOL    HW179388   3.436   8.912   3.074 -1.0768  0.7433 -0.2215
24475SOL    HW279389   3.410   9.000   3.195 -0.3171 -0.3642  0.7699
24476SOL     OW79390   2.121  11.487  11.569  0.0476  0.1648  0.0017
24476SOL    HW179391   2.057  11.558  11.561 -0.2373 -0.2163 -1.3365
24476SOL    HW279392   2.078  11.421  11.624 -0.1730  0.4935  0.2234
24477SOL     OW79393   4.832   6.853   3.126  0.6241 -0.0509 -0.1812
24477SOL    HW179394   4.762   6.816   3.179  0.6822 -0.2427 -0.2400
24477SOL    HW279395   4.792   6.929   3.083  0.6600  0.2805  0.3649
24478SOL     OW79396  10.951   6.028   5.132  0.4430  0.5033  0.2963
24478SOL    HW179397  10.877   6.033   5.071  1.2397 -0.9911 -0.8394
24478SOL    HW279398  10.933   5.950   5.185  0.6692  0.7649  0.7684
24479SOL     OW79399   0.441   3.721  11.649 -0.7682 -0.4169 -0.0704
24479SOL    HW179400   0.396   3.641  11.621 -2.7323  0.7456 -0.4980
24479SOL    HW279401   0.448   3.713  11.744  0.9098 -1.9445 -0.2651
24480SOL     OW79402   7.970   4.917   9.936  0.1798  0.4873 -0.1202
24480SOL    HW179403   7.995   4.969   9.859 -1.6822  1.6954  0.0344
24480SOL    HW279404   7.953   4.982  10.004 -0.8231 -0.4004  0.5101
24481SOL     OW79405   8.155   0.152  10.222 -0.0659  0.2136 -0.3684
24481SOL    HW179406   8.198   0.225  10.266  0.1850  0.1879 -0.5758
24481SOL    HW279407   8.079   0.132  10.278 -0.2193  0.7284 -0.3919
24482SOL     OW79408   6.530   9.769   5.308 -0.5754 -0.3855 -0.0406
24482SOL    HW179409   6.542   9.796   5.399 -0.7374 -1.2409  0.2356
24482SOL    HW279410   6.441   9.735   5.304  0.0169 -1.9902 -0.0988
24483SOL     OW79411   1.902   2.473   4.284  0.3416  0.3968 -0.4031
24483SOL    HW179412   1.990   2.471   4.320  0.5696  0.1011 -0.9577
24483SOL    HW279413   1.911   2.516   4.199  0.0400 -0.0306 -0.6615
24484SOL     OW79414   4.366   2.634   7.710  0.4207  0.3508 -0.3883
24484SOL    HW179415   4.396   2.676   7.630  0.8229  1.4085  0.3012
24484SOL    HW279416   4.278   2.602   7.689  0.3675  0.9576 -1.1269
24485SOL     OW79417   2.261  12.176  12.360  0.3380 -0.0590 -0.4059
24485SOL    HW179418   2.171  12.176  12.394  0.7406  0.5167  0.7050
24485SOL    HW279419   2.291  12.085  12.371  0.2423 -0.0224  0.2251
24486SOL     OW79420  10.141   7.544   0.938  0.4167 -0.0940 -0.0307
24486SOL    HW179421  10.085   7.479   0.897 -1.7058  1.5038  0.1814
24486SOL    HW279422  10.173   7.598   0.866 -0.3310  0.4808  0.0597
24487SOL     OW79423   7.754   8.735  11.459  0.6479  0.3075  0.5252
24487SOL    HW179424   7.703   8.754  11.380 -0.3328  1.8996  1.4973
24487SOL    HW279425   7.785   8.645  11.446 -0.2529  0.2020 -1.2407
24488SOL     OW79426   5.946   1.669   0.532  0.1893  0.1884  0.5356
24488SOL    HW179427   5.869   1.677   0.588  0.5992  0.8229  1.0238
24488SOL    HW279428   5.917   1.613   0.460  0.0110 -1.6502  1.9668
24489SOL     OW79429   6.078   8.002   1.059  0.4711  0.2627  0.8879
24489SOL    HW179430   6.156   7.971   1.106  0.9271  1.7157  1.1219
24489SOL    HW279431   6.018   8.031   1.127 -0.3685 -0.9746  0.7136
24490SOL     OW79432  11.039   4.103   4.761  0.4503 -0.3695 -0.0133
24490SOL    HW179433  11.074   4.065   4.841  2.2230 -4.0872 -2.2968
24490SOL    HW279434  11.107   4.164   4.732  1.0649 -1.0654 -0.0480
24491SOL     OW79435   8.832   9.054   3.523 -0.2118  0.2305  0.4634
24491SOL    HW179436   8.762   9.109   3.489 -2.3318 -1.6053  1.6236
24491SOL    HW279437   8.810   9.040   3.615 -0.1126 -2.9208  0.1227
24492SOL     OW79438   4.311  10.750  11.371 -0.0888  0.1857  0.3067
24492SOL    HW179439   4.217  10.766  11.367  0.1961  2.3818  0.8906
24492SOL    HW279440   4.331  10.750  11.465  0.4347 -0.6919  0.1993
24493SOL     OW79441   6.004   7.235   2.494  0.2636 -0.6788 -0.1132
24493SOL    HW179442   5.999   7.262   2.585  1.1139 -4.2720  1.1627
24493SOL    HW279443   5.913   7.215   2.471  0.1547 -0.5855  0.2286
24494SOL     OW79444   1.514   4.932  10.011  0.4995 -0.0893 -0.1099
24494SOL    HW179445   1.490   4.919  10.103  0.0832  0.7447 -0.0880
24494SOL    HW279446   1.492   4.849   9.969 -1.1709  0.1616  0.1825
24495SOL     OW79447   8.755   0.878   7.074 -0.0175  0.1846 -0.2458
24495SOL    HW179448   8.732   0.913   7.160 -0.1192  2.5639 -1.1547
24495SOL    HW279449   8.848   0.856   7.081 -0.2153 -0.3778  0.6865
24496SOL     OW79450   3.986   3.171   0.124 -0.2499 -0.2388  0.1592
24496SOL    HW179451   3.970   3.264   0.133  0.4470 -0.1065  0.1018
24496SOL    HW279452   4.024   3.144   0.208  2.0251  0.0848 -0.6836
24497SOL     OW79453   7.029   2.224   9.930 -0.0033 -0.4590  0.2604
24497SOL    HW179454   7.007   2.311   9.964  0.9694 -0.6356  1.4339
24497SOL    HW279455   6.947   2.176   9.931 -0.3184  0.0787  0.7545
24498SOL     OW79456   2.098   9.373   5.405 -0.4233 -0.0067  0.1853
24498SOL    HW179457   2.056   9.344   5.485 -1.1366 -0.2820 -0.2817
24498SOL    HW279458   2.034   9.356   5.336  0.7943 -1.3188 -0.6763
24499SOL     OW79459   0.149   0.239  11.557 -0.3458 -0.4671  0.1230
24499SOL    HW179460   0.117   0.172  11.496 -0.6532  0.1193 -0.3654
24499SOL    HW279461   0.166   0.315  11.502 -1.3643  0.3226  0.8684
24500SOL     OW79462  12.363  11.847   3.526 -0.7598  0.5189 -0.4059
24500SOL    HW179463  12.338  11.766   3.482  0.0466  1.1611 -2.1379
24500SOL    HW279464  12.459  11.843   3.531 -0.7115  1.3358 -0.4894
24501SOL     OW79465   3.256   3.629   7.768 -0.0248 -0.3597 -0.0704
24501SOL    HW179466   3.253   3.683   7.688  0.5519 -1.3754 -0.7998
24501SOL    HW279467   3.218   3.546   7.741  0.0108 -0.6504  0.7761
24502SOL     OW79468   8.349   3.531   2.660  0.0357  0.1948 -0.0225
24502SOL    HW179469   8.370   3.623   2.670  0.9290 -0.1790  2.1915
24502SOL    HW279470   8.433   3.486   2.668 -0.5551 -0.8730  0.5180
24503SOL     OW79471   2.683   0.304   7.444  0.0110  0.1056  0.4357
24503SOL    HW179472   2.720   0.216   7.442 -0.0285  0.0833  0.6342
24503SOL    HW279473   2.752   0.358   7.483  0.3249  0.3047 -0.3785
24504SOL     OW79474   5.230   5.865   9.510  0.0783  0.2352  0.1664
24504SOL    HW179475   5.251   5.893   9.420 -1.1437 -0.7077 -0.4481
24504SOL    HW279476   5.155   5.919   9.535  0.4957  0.5855  0.6833
24505SOL     OW79477   8.586   0.879  12.401 -0.5494 -0.2279 -0.8022
24505SOL    HW179478   8.508   0.828  12.425 -1.0701  0.4673 -0.9621
24505SOL    HW279479   8.597   0.941  12.473  0.9898 -1.5318  0.1459
24506SOL     OW79480   7.290   6.302  10.016 -0.0059  0.0191  0.1059
24506SOL    HW179481   7.364   6.317  10.075  1.6771 -0.0147 -1.8511
24506SOL    HW279482   7.256   6.389   9.997  0.0186  0.1026  0.4526
24507SOL     OW79483   3.739   3.587   0.084  0.1087  0.5488  0.0745
24507SOL    HW179484   3.742   3.610  -0.009 -2.3590 -2.0026 -0.7791
24507SOL    HW279485   3.712   3.668   0.128 -3.2163  0.7946 -2.0757
24508SOL     OW79486  10.247   7.444   8.219 -0.4925  0.8413  0.4011
24508SOL    HW179487  10.276   7.536   8.219  0.0739  0.6795 -1.0276
24508SOL    HW279488  10.251   7.418   8.311 -0.1409  2.0898  0.7552
24509SOL     OW79489   2.133   8.717  11.625 -0.2322 -0.1103  0.2943
24509SOL    HW179490   2.045   8.747  11.651 -0.5457 -0.1115 -0.7264
24509SOL    HW279491   2.191   8.786  11.657 -0.8478  1.1151 -1.1115
24510SOL     OW79492   5.034   1.454  12.309 -0.1674  0.6305 -0.2095
24510SOL    HW179493   5.129   1.455  12.318 -0.1815  0.2011 -0.0125
24510SOL    HW279494   5.001   1.454  12.399 -0.3408 -0.2425 -0.2655
24511SOL     OW79495   0.346   2.381   7.629  0.5097 -0.1052  0.8377
24511SOL    HW179496   0.369   2.295   7.664  0.4180 -1.3251 -1.7944
24511SOL    HW279497   0.266   2.365   7.577  1.4047  1.1460 -1.0555
24512SOL     OW79498   8.091   2.628   9.287 -0.2744  0.0893  0.3254
24512SOL    HW179499   8.109   2.629   9.381  0.7292 -0.0358  0.1436
24512SOL    HW279500   8.124   2.543   9.257 -1.9162 -0.5100  0.0882
24513SOL     OW79501  10.371   9.361   7.447 -0.2086  0.4582 -0.3262
24513SOL    HW179502  10.323   9.436   7.482 -0.5091  0.1675 -0.1051
24513SOL    HW279503  10.375   9.299   7.520 -1.7036 -0.5667 -1.0660
24514SOL     OW79504  12.451   4.561   8.752  0.2731  0.1167  0.3212
24514SOL    HW179505  12.542   4.531   8.746  0.3775  0.5422 -0.3603
24514SOL    HW279506  12.432   4.560   8.846  0.4356 -1.5501  0.3726
24515SOL     OW79507   8.757   3.105   3.089  0.2819 -0.0709  0.3401
24515SOL    HW179508   8.718   3.153   3.016  0.3055  0.2188  0.5199
24515SOL    HW279509   8.749   3.013   3.063 -0.5764 -0.0265  0.3985
24516SOL     OW79510  10.818   9.188   9.154 -0.1410 -0.0431  0.0854
24516SOL    HW179511  10.896   9.237   9.179 -0.0621  0.5989 -1.3542
24516SOL    HW279512  10.823   9.108   9.207  1.6942 -0.1921 -0.2398
24517SOL     OW79513   6.280   5.198   5.522 -0.3223  0.0175  0.2420
24517SOL    HW179514   6.303   5.120   5.471  0.4462  0.6897 -0.4729
24517SOL    HW279515   6.264   5.164   5.611  1.0395 -0.8343  0.1944
24518SOL     OW79516  10.962   3.109  11.822  0.7192 -0.1877 -0.2873
24518SOL    HW179517  10.923   3.038  11.873  0.0285 -0.4780 -1.1975
24518SOL    HW279518  11.034   3.141  11.877 -0.9488  0.5558  1.5520
24519SOL     OW79519  10.927   2.029   3.510 -0.5497  0.4895 -0.3213
24519SOL    HW179520  10.969   2.108   3.476  0.3668  1.4525  2.7112
24519SOL    HW279521  10.833   2.048   3.506 -0.3986  1.1460 -0.8948
24520SOL     OW79522  10.416   1.183   7.915 -0.4057  0.0245 -0.5606
24520SOL    HW179523  10.470   1.146   7.845  0.7452  0.3507  0.1356
24520SOL    HW279524  10.332   1.137   7.907 -1.0564  1.4591 -3.4370
24521SOL     OW79525  10.083   4.071  10.383 -0.1042  0.2016 -0.7149
24521SOL    HW179526  10.004   4.088  10.434  1.1163 -1.0403  1.7810
24521SOL    HW279527  10.052   4.025  10.305 -1.8636 -0.0191  0.0685
24522SOL     OW79528   1.421  10.620   3.722 -0.0945 -0.5179 -0.1853
24522SOL    HW179529   1.477  10.546   3.744 -0.4214 -0.7228 -0.0348
24522SOL    HW279530   1.375  10.593   3.642 -2.2729 -1.6241  1.3493
24523SOL     OW79531   0.315   1.424   3.464 -0.3305 -0.0943  0.1959
24523SOL    HW179532   0.346   1.334   3.473 -2.3994 -0.8159  0.7816
24523SOL    HW279533   0.331   1.446   3.372  1.9456 -0.3048  0.4827
24524SOL     OW79534   9.990   2.632   6.918  0.2473  0.7138 -0.1395
24524SOL    HW179535  10.003   2.544   6.953 -1.3497  1.1342  1.6964
24524SOL    HW279536  10.078   2.669   6.913  0.9849 -1.0264 -1.1969
24525SOL     OW79537  11.149   5.575  12.379  0.6717 -0.7056 -0.0302
24525SOL    HW179538  11.100   5.501  12.344 -0.2907 -0.1516  0.0920
24525SOL    HW279539  11.223   5.536  12.425 -1.0014 -1.7464  1.9272
24526SOL     OW79540   8.960   0.768  10.369  0.4330 -0.1580  0.1947
24526SOL    HW179541   8.872   0.806  10.377 -0.0493 -1.0040 -0.9287
24526SOL    HW279542   8.994   0.769  10.459 -1.1397 -0.7976  0.8238
24527SOL     OW79543   7.548   1.862  12.203 -0.0684 -0.0231 -0.3342
24527SOL    HW179544   7.521   1.891  12.290 -1.3075 -0.1367 -0.6516
24527SOL    HW279545   7.495   1.783  12.187 -0.9135  0.7739 -1.7342
24528SOL     OW79546   2.482   1.903   3.875  0.2408 -0.6928  0.0487
24528SOL    HW179547   2.563   1.927   3.921  0.2692 -0.3118 -0.1985
24528SOL    HW279548   2.412   1.925   3.936  0.3304 -1.3593  0.4118
24529SOL     OW79549   5.775  10.029  11.973 -0.4573  0.3087 -0.0608
24529SOL    HW179550   5.757   9.940  11.942 -0.6288 -0.3080  1.6937
24529SOL    HW279551   5.868  10.042  11.957 -0.6239  0.2073 -1.2131
24530SOL     OW79552   0.433   5.132  10.904  0.1272 -0.4943  0.5370
24530SOL    HW179553   0.526   5.138  10.922  0.1648  0.0190  0.1911
24530SOL    HW279554   0.398   5.076  10.973  0.7445 -0.9677  0.4690
24531SOL     OW79555   5.917   1.463  11.770 -0.0416 -0.1898  0.2038
24531SOL    HW179556   5.826   1.489  11.754 -0.3612 -0.2464  1.8430
24531SOL    HW279557   5.932   1.389  11.711 -0.4096  1.0560 -1.5275
24532SOL     OW79558   5.742   1.232   5.138 -0.8833  0.2766  1.0713
24532SOL    HW179559   5.783   1.215   5.053 -0.7867  1.0822  0.9565
24532SOL    HW279560   5.764   1.323   5.158 -2.4362  0.6573  1.1084
24533SOL     OW79561   6.282  10.812   5.326  0.4165  0.1309 -0.2464
24533SOL    HW179562   6.268  10.730   5.375  0.9057  0.5834  0.6888
24533SOL    HW279563   6.357  10.853   5.370  0.1087  1.1371 -0.6333
24534SOL     OW79564   1.725   1.653   9.401  0.1598 -0.1521 -0.1516
24534SOL    HW179565   1.761   1.564   9.394  0.4679  0.0037 -0.6539
24534SOL    HW279566   1.642   1.642   9.447 -0.5719 -0.9246 -1.5679
24535SOL     OW79567  11.408   9.633   1.074  0.1672 -0.0523  0.3390
24535SOL    HW179568  11.375   9.699   1.135  0.0524  0.0014  0.2176
24535SOL    HW279569  11.358   9.646   0.994 -1.0328 -1.3437  0.8253
24536SOL     OW79570   8.999   4.670  10.233 -0.5214  0.1562 -0.3706
24536SOL    HW179571   8.963   4.636  10.151  0.7270 -1.7321 -0.1855
24536SOL    HW279572   9.081   4.712  10.207  0.3263 -1.2313 -0.0095
24537SOL     OW79573   4.443   1.781   8.630 -0.8136 -0.0015  0.8538
24537SOL    HW179574   4.360   1.778   8.583 -2.4776  0.0023  3.6033
24537SOL    HW279575   4.508   1.750   8.566 -2.8770  0.0786 -1.4066
24538SOL     OW79576  11.949  10.793   8.394  0.1430 -0.3083  0.0744
24538SOL    HW179577  12.012  10.865   8.397  1.9207 -1.7971  1.9874
24538SOL    HW279578  11.940  10.772   8.301  0.4336  1.6294 -0.4279
24539SOL     OW79579   8.926   4.506   8.750 -0.1708  0.3088  0.3187
24539SOL    HW179580   8.830   4.509   8.743 -0.2997 -2.4332  0.0751
24539SOL    HW279581   8.942   4.473   8.838  0.4812 -0.6689 -0.1512
24540SOL     OW79582   4.744   4.416   2.915  0.0771 -0.7094  0.1745
24540SOL    HW179583   4.811   4.483   2.904  0.0548 -0.9086 -1.3898
24540SOL    HW279584   4.686   4.427   2.839 -1.4562 -0.7884  1.2886
24541SOL     OW79585   1.752   3.779   0.443  0.0147  0.3196 -0.0674
24541SOL    HW179586   1.734   3.859   0.394  0.7774  0.3579 -0.2854
24541SOL    HW279587   1.735   3.802   0.534 -0.5100  0.5036 -0.2058
24542SOL     OW79588  10.969  11.469   9.178 -0.1615  0.8881  0.3179
24542SOL    HW179589  11.030  11.437   9.111 -0.8772 -0.5855  0.3516
24542SOL    HW279590  10.887  11.423   9.161  0.0050 -0.6039  3.0304
24543SOL     OW79591   6.168   9.301   2.964  0.6278 -0.9797 -0.4452
24543SOL    HW179592   6.216   9.302   3.046 -0.0583 -1.3288 -0.0312
24543SOL    HW279593   6.086   9.346   2.983  1.5758  1.4741 -1.6726
24544SOL     OW79594   7.379   1.001   3.683 -0.1759 -0.0523 -0.0853
24544SOL    HW179595   7.453   0.976   3.628  1.5075  0.0315  1.9922
24544SOL    HW279596   7.397   1.093   3.706  0.2221 -0.6099  2.0576
24545SOL     OW79597   1.628   5.593   6.305  0.5138 -0.0571  0.3052
24545SOL    HW179598   1.573   5.657   6.260  1.0552  0.2640  0.1025
24545SOL    HW279599   1.577   5.512   6.303 -0.1530  0.3483  0.5206
24546SOL     OW79600   3.900   1.373   4.226 -0.2234 -0.0751  0.3602
24546SOL    HW179601   3.948   1.411   4.300  1.7942 -1.8203  0.0484
24546SOL    HW279602   3.862   1.448   4.181 -0.0193  1.1697  2.1426
24547SOL     OW79603  11.099   3.435   9.312 -0.1292  0.9746 -0.1189
24547SOL    HW179604  11.055   3.402   9.390 -3.6023  1.1123 -1.8218
24547SOL    HW279605  11.163   3.497   9.345 -0.0940 -0.3870  2.6618
24548SOL     OW79606   5.430   9.371   6.315 -0.3479  0.3492 -0.2280
24548SOL    HW179607   5.340   9.369   6.346 -0.7888  0.9697 -1.4034
24548SOL    HW279608   5.478   9.420   6.382 -0.4424 -1.6906  1.4125
24549SOL     OW79609  12.151  12.465   1.974  0.4704  0.0610 -0.0688
24549SOL    HW179610  12.129  12.481   1.883  0.3217 -2.5218 -0.5577
24549SOL    HW279611  12.079  12.504   2.024  0.5142  1.4223 -1.0214
24550SOL     OW79612   7.648   5.687   8.721  0.4550  0.1582  0.3000
24550SOL    HW179613   7.581   5.751   8.697  0.7472  1.0105  1.6134
24550SOL    HW279614   7.731   5.731   8.703  0.7056 -0.9154 -1.3780
24551SOL     OW79615   3.367   6.053   1.360 -0.0682 -0.2091  0.3514
24551SOL    HW179616   3.363   6.009   1.275 -0.6962 -3.0144  1.7215
24551SOL    HW279617   3.362   6.147   1.338  2.2491 -0.6550 -2.8086
24552SOL     OW79618   8.181   6.402   3.564  0.2387 -0.4395  0.2742
24552SOL    HW179619   8.117   6.451   3.513  0.9547  0.5065  0.2552
24552SOL    HW279620   8.189   6.452   3.646  0.0784 -1.2074  0.7688
24553SOL     OW79621   9.512   1.781   5.356 -0.6075 -0.1366  0.6967
24553SOL    HW179622   9.483   1.824   5.275  0.1008  0.0143  0.5123
24553SOL    HW279623   9.552   1.852   5.407 -1.3474 -0.1660  1.3300
24554SOL     OW79624  10.155   7.538   1.714  0.0354  0.1960  0.4895
24554SOL    HW179625  10.248   7.537   1.689 -0.5541 -0.2337 -1.8821
24554SOL    HW279626  10.126   7.448   1.701 -1.1178  0.6965 -0.5547
24555SOL     OW79627  11.183   7.587   3.287 -0.1120 -0.2066  0.0521
24555SOL    HW179628  11.266   7.633   3.281  0.7084 -1.7634 -0.9785
24555SOL    HW279629  11.172   7.568   3.380  1.1251 -0.7515  0.0957
24556SOL     OW79630   1.080   8.305   3.317 -0.1684  0.3107 -0.1627
24556SOL    HW179631   1.094   8.242   3.246  1.4159  1.0374 -0.5303
24556SOL    HW279632   1.053   8.385   3.272 -0.2032  0.4719  0.1499
24557SOL     OW79633   6.263   3.728   8.791 -0.6050 -0.8446  0.2213
24557SOL    HW179634   6.183   3.741   8.842 -0.0956 -2.7450  1.5876
24557SOL    HW279635   6.299   3.816   8.780 -0.7856 -0.3098  3.1275
24558SOL     OW79636   7.231   7.851   0.056 -0.1810 -0.3105 -0.3457
24558SOL    HW179637   7.179   7.833   0.133  1.1225  0.1162  0.6736
24558SOL    HW279638   7.167   7.875  -0.012 -1.3292 -0.5809  0.6151
24559SOL     OW79639   4.692   2.933   4.490  0.7006 -0.1452 -0.1128
24559SOL    HW179640   4.738   2.860   4.531 -1.1118 -0.6989  1.1011
24559SOL    HW279641   4.704   2.919   4.396  0.7452 -1.7961  0.0995
24560SOL     OW79642   4.980   5.650   3.655  0.2347  0.0268  0.2581
24560SOL    HW179643   4.908   5.588   3.645  0.7770 -0.5726 -0.0239
24560SOL    HW279644   4.951   5.710   3.723 -0.6758  0.0047 -0.0994
24561SOL     OW79645   1.546   1.323   3.210 -0.5624 -0.2431  0.1993
24561SOL    HW179646   1.509   1.279   3.287 -0.4271  0.6450  0.7858
24561SOL    HW279647   1.640   1.324   3.227 -0.5343 -0.0375  0.0254
24562SOL     OW79648   1.066  11.473   0.709 -0.1235  0.5952 -0.0590
24562SOL    HW179649   1.129  11.462   0.781  0.4683 -0.7923 -0.7409
24562SOL    HW279650   1.118  11.508   0.637 -0.2769  0.1417 -0.3960
24563SOL     OW79651   3.527   6.185  10.944 -0.0871 -0.4241  0.4331
24563SOL    HW179652   3.614   6.209  10.911 -1.2308  2.3088 -0.9025
24563SOL    HW279653   3.527   6.215  11.035 -0.4904  2.3822 -0.3864
24564SOL     OW79654   4.063   6.537   5.505 -0.0614  0.5230  0.6028
24564SOL    HW179655   4.024   6.454   5.532 -0.3136  0.1615 -0.7731
24564SOL    HW279656   4.004   6.571   5.438  0.5786  1.3047  0.4082
24565SOL     OW79657  10.522   0.025   6.767 -0.5360  0.3216 -0.4088
24565SOL    HW179658  10.587   0.059   6.828 -0.0351 -0.0043 -0.7442
24565SOL    HW279659  10.531   0.081   6.689  0.1245 -0.3951 -0.8722
24566SOL     OW79660   6.030   6.485   3.647  1.3590 -1.0099 -0.1294
24566SOL    HW179661   6.082   6.555   3.607  0.7372 -0.9873 -0.9181
24566SOL    HW279662   5.982   6.528   3.717  1.1491 -0.6894 -0.4676
24567SOL     OW79663  11.303   2.814   3.106  0.1694  0.2828 -0.1468
24567SOL    HW179664  11.312   2.757   3.030  1.9440 -0.6474  0.7090
24567SOL    HW279665  11.274   2.756   3.176 -1.0383  1.0527  0.0202
24568SOL     OW79666   9.836   7.122   5.985 -0.2249 -0.1428 -0.0540
24568SOL    HW179667   9.876   7.131   6.072  0.4684 -1.0895 -0.2556
24568SOL    HW279668   9.754   7.075   6.002 -1.0009  1.2996  0.2940
24569SOL     OW79669  10.730   1.763   9.871 -0.3680 -0.3601 -0.2471
24569SOL    HW179670  10.724   1.834   9.935 -0.8866 -1.3931  0.8922
24569SOL    HW279671  10.642   1.727   9.866 -0.3613 -0.2392 -1.6505
24570SOL     OW79672   7.541   0.819   2.099 -0.4066  0.3051 -0.0005
24570SOL    HW179673   7.469   0.764   2.130 -1.2566  0.9410 -0.7979
24570SOL    HW279674   7.565   0.782   2.014  1.3077 -0.8802  0.9602
24571SOL     OW79675   6.148   6.017   3.730  0.0335 -0.1443 -0.1556
24571SOL    HW179676   6.087   6.077   3.686  1.3861  3.0957  1.9658
24571SOL    HW279677   6.232   6.033   3.687  0.5540  0.0655  0.8952
24572SOL     OW79678   4.263   1.011   7.171  0.0092  0.1070 -0.6661
24572SOL    HW179679   4.353   1.000   7.202  0.6651  1.9426 -1.7753
24572SOL    HW279680   4.214   1.041   7.249  0.7574  0.7998 -0.4471
24573SOL     OW79681   0.305   5.760   9.116 -0.3050  0.2975  0.0633
24573SOL    HW179682   0.267   5.839   9.156  1.9110 -0.0351  3.2534
24573SOL    HW279683   0.295   5.692   9.183 -0.8251 -1.8042 -2.0105
24574SOL     OW79684   1.368   7.517   7.675 -0.6461  0.2814 -0.1978
24574SOL    HW179685   1.354   7.590   7.616  1.8114  1.2664  0.3030
24574SOL    HW279686   1.335   7.547   7.760 -0.9685  0.2473 -0.3131
24575SOL     OW79687   5.571   1.186   0.269  0.6288  0.1661  0.4791
24575SOL    HW179688   5.609   1.111   0.224 -1.1565  0.2714 -1.3316
24575SOL    HW279689   5.553   1.154   0.358  2.1886 -0.7389  0.4971
24576SOL     OW79690  11.750   2.353   0.480  0.4117  0.6016  0.0688
24576SOL    HW179691  11.690   2.282   0.458  1.7990 -0.2657 -1.0925
24576SOL    HW279692  11.724   2.379   0.569 -1.7982  0.4427 -0.4532
24577SOL     OW79693   8.768   5.762   1.374  0.1458  0.1641  0.1005
24577SOL    HW179694   8.687   5.717   1.349  0.4614 -0.6581  0.5190
24577SOL    HW279695   8.751   5.792   1.463  0.2671  0.0717  0.1545
24578SOL     OW79696   5.495   7.204   2.159  0.3007  0.5060 -0.7184
24578SOL    HW179697   5.521   7.183   2.249 -1.5440  0.5283 -0.1334
24578SOL    HW279698   5.521   7.128   2.108 -2.1125 -1.3593  0.5596
24579SOL     OW79699  10.662   0.574   3.879 -0.1157 -0.5036 -0.0054
24579SOL    HW179700  10.726   0.642   3.900 -1.4902  0.8194  0.0312
24579SOL    HW279701  10.595   0.581   3.947 -1.0261 -0.8976 -0.8368
24580SOL     OW79702   5.258   2.199  10.331 -0.1130  0.2005 -0.0499
24580SOL    HW179703   5.263   2.166  10.420 -0.9839  1.8565  0.6658
24580SOL    HW279704   5.222   2.127  10.280  0.6140 -0.8377  0.8835
24581SOL     OW79705   7.729   2.296   9.462  0.0086 -0.9917  0.4728
24581SOL    HW179706   7.811   2.289   9.414 -0.6976 -1.3160 -0.7602
24581SOL    HW279707   7.729   2.384   9.499  1.1038 -1.1532  0.8618
24582SOL     OW79708   3.873   2.637   0.258 -0.0565 -0.8825  0.7293
24582SOL    HW179709   3.930   2.707   0.226 -1.3087 -0.1015  0.1403
24582SOL    HW279710   3.831   2.675   0.336 -1.8924 -0.3658 -0.4530
24583SOL     OW79711   8.617   6.204   1.834  0.1812 -0.4691  0.2177
24583SOL    HW179712   8.594   6.278   1.889 -0.2633 -0.8188  0.5089
24583SOL    HW279713   8.685   6.158   1.884  2.3534  1.1375 -1.1022
24584SOL     OW79714   4.021   8.792   1.156 -0.3016  0.2699 -0.3047
24584SOL    HW179715   4.051   8.713   1.202  0.2422  1.7129  2.0021
24584SOL    HW279716   4.099   8.824   1.111  0.1616  0.8280  0.8535
24585SOL     OW79717   8.070  11.784  10.427 -0.0869 -0.0839 -0.0148
24585SOL    HW179718   8.030  11.835  10.497  0.4589  1.0814 -0.5317
24585SOL    HW279719   8.160  11.814  10.423 -0.2671  0.3573 -1.6457
24586SOL     OW79720  11.104   4.368  10.705  0.1122 -0.1179 -0.4058
24586SOL    HW179721  11.162   4.385  10.779 -0.3995 -0.6308  0.1322
24586SOL    HW279722  11.075   4.455  10.677  0.4021  0.0903 -0.0724
24587SOL     OW79723   8.180   3.277   2.307 -0.0265 -0.6029  0.1022
24587SOL    HW179724   8.250   3.288   2.243 -0.4750  2.4050 -0.0388
24587SOL    HW279725   8.114   3.226   2.262 -0.6161  1.9535 -2.2358
24588SOL     OW79726   2.646   9.713   0.592 -0.4547 -0.0221  0.5391
24588SOL    HW179727   2.658   9.722   0.686  0.1561 -1.2312  0.5883
24588SOL    HW279728   2.625   9.802   0.562  1.7815  0.8906  1.4678
24589SOL     OW79729   8.919   5.721   2.814 -0.1824  0.1830 -0.3647
24589SOL    HW179730   8.887   5.812   2.810  0.9459  0.6792  0.9718
24589SOL    HW279731   8.848   5.669   2.778 -1.6156  1.4380  0.5142
24590SOL     OW79732   3.771  11.047   6.865 -0.0999  0.0125  0.0334
24590SOL    HW179733   3.696  11.074   6.918  0.6729 -1.6797  2.1521
24590SOL    HW279734   3.837  11.114   6.881  0.4315 -0.9275  2.0242
24591SOL     OW79735   2.291   8.587   7.995 -0.4402  0.3071 -0.0640
24591SOL    HW179736   2.278   8.498   8.028 -1.4498  1.0921  1.8536
24591SOL    HW279737   2.381   8.609   8.018 -0.1354 -0.2714 -0.6941
24592SOL     OW79738   5.730   0.710  10.436 -0.5356 -0.6826  0.6072
24592SOL    HW179739   5.748   0.744  10.523  1.6731 -2.2200  0.8340
24592SOL    HW279740   5.641   0.739  10.417 -0.3047  1.5292  2.4495
24593SOL     OW79741   9.243   6.368  11.107  0.0512  0.0862  0.3357
24593SOL    HW179742   9.324   6.316  11.104  0.6352  1.0233 -2.3339
24593SOL    HW279743   9.184   6.317  11.163  1.9044 -1.4675  0.9833
24594SOL     OW79744   4.065   7.504  11.205 -0.2191  0.6034  0.2515
24594SOL    HW179745   4.077   7.583  11.152 -1.1087 -0.4558 -1.6599
24594SOL    HW279746   4.005   7.530  11.275  0.8613  2.0188  0.6876
24595SOL     OW79747   6.196   6.630  10.285  0.0173 -0.0157  0.1629
24595SOL    HW179748   6.106   6.661  10.279  0.6008  1.5326 -1.3349
24595SOL    HW279749   6.238   6.660  10.204  1.9392 -0.5324  0.8992
24596SOL     OW79750   8.509  11.016  10.988 -0.3265  0.6828  0.3484
24596SOL    HW179751   8.480  11.099  10.951  0.6219 -0.5168 -3.5961
24596SOL    HW279752   8.603  11.027  11.003 -0.4216  0.6536  1.0274
24597SOL     OW79753   2.723   3.077   8.131  0.3780  0.1335  0.0835
24597SOL    HW179754   2.769   3.111   8.208  0.6529 -0.5116  0.2134
24597SOL    HW279755   2.673   3.003   8.164  0.2570  0.0401 -0.3022
24598SOL     OW79756   1.077   1.480  11.068  0.5658 -0.6135  0.0904
24598SOL    HW179757   1.053   1.534  10.992 -2.7143 -1.7903  0.1231
24598SOL    HW279758   1.170   1.461  11.056  0.2644 -0.4535 -3.4466
24599SOL     OW79759   7.959   4.559   2.846  0.1031 -0.2524 -0.8144
24599SOL    HW179760   7.872   4.519   2.853  0.1876 -0.6049 -1.6863
24599SOL    HW279761   7.985   4.575   2.937 -1.5359  1.3359 -0.5780
24600SOL     OW79762  11.696   0.515  12.364 -0.4713  0.1303 -0.2802
24600SOL    HW179763  11.733   0.594  12.402  0.3615 -0.6142  0.4907
24600SOL    HW279764  11.640   0.479  12.433 -1.2351  0.2907 -0.8005
24601SOL     OW79765   9.417  10.511  10.276 -0.1828  0.5331  0.1900
24601SOL    HW179766   9.406  10.481  10.367  1.0729 -0.6996 -0.0392
24601SOL    HW279767   9.492  10.571  10.280  2.6011 -2.5834 -0.5660
24602SOL     OW79768   8.646   1.742   1.746 -0.9632 -0.6331  0.2334
24602SOL    HW179769   8.657   1.647   1.746  1.1094 -0.4345  0.7482
24602SOL    HW279770   8.664   1.768   1.655 -1.4652 -0.7076  0.1079
24603SOL     OW79771  11.632   9.882   9.236  0.7555 -0.0250  0.1130
24603SOL    HW179772  11.680   9.901   9.156 -0.0136 -0.5494 -0.4889
24603SOL    HW279773  11.606   9.967   9.270  0.1716  0.1609 -0.7717
24604SOL     OW79774   6.751   2.800  10.141 -0.5896  0.5451  0.4105
24604SOL    HW179775   6.837   2.802  10.184  1.1536 -1.2378 -2.6549
24604SOL    HW279776   6.709   2.721  10.177 -0.6445  0.9770  1.3279
24605SOL     OW79777   8.658   8.248   1.049  0.1884  0.1918  0.0130
24605SOL    HW179778   8.729   8.268   1.111  0.6830  0.5880 -0.6610
24605SOL    HW279779   8.582   8.294   1.085  1.0786  2.6521 -1.0008
24606SOL     OW79780   1.087   0.366   2.660 -0.0999  0.0417  0.0574
24606SOL    HW179781   1.084   0.303   2.588 -0.5326 -0.8036  0.7884
24606SOL    HW279782   1.164   0.419   2.643 -0.3134 -0.0020 -1.1369
24607SOL     OW79783   5.721   0.714   5.995 -0.3192 -0.1236 -0.0277
24607SOL    HW179784   5.704   0.639   6.053  1.3906  0.3565  1.1747
24607SOL    HW279785   5.751   0.674   5.913  1.4934 -0.7935  0.9122
24608SOL     OW79786   3.623  10.053  10.827 -0.0171  0.0649  0.3108
24608SOL    HW179787   3.625  10.148  10.818  0.4484 -0.0084 -0.4508
24608SOL    HW279788   3.589  10.021  10.743  0.3815 -0.4629  0.3435
24609SOL     OW79789   9.068   6.646   0.063 -0.1590 -0.0189  0.4683
24609SOL    HW179790   9.064   6.563   0.015 -2.5157  0.9424 -1.2484
24609SOL    HW279791   8.977   6.678   0.062  0.9797  3.9061 -1.5688
24610SOL     OW79792   6.909   7.293   1.624  0.0618 -0.1445  0.1817
24610SOL    HW179793   6.855   7.264   1.697  0.6037 -2.7051 -0.3351
24610SOL    HW279794   6.854   7.282   1.547  0.6814 -1.0573 -0.1552
24611SOL     OW79795   4.124   3.247   1.878 -0.4771  0.2435 -0.2990
24611SOL    HW179796   4.185   3.308   1.837 -0.3251 -0.7372 -1.5786
24611SOL    HW279797   4.058   3.229   1.811 -1.0649 -0.2445  0.3901
24612SOL     OW79798   5.174   4.396  10.821  0.8728  0.0924 -0.0775
24612SOL    HW179799   5.104   4.355  10.771  0.6697 -2.3548  2.0180
24612SOL    HW279800   5.129   4.447  10.889  1.1675  2.3851 -1.4669
24613SOL     OW79801   8.085   9.644   2.467  0.2585  0.0063 -0.1414
24613SOL    HW179802   8.164   9.690   2.439  0.9886 -0.7633  0.5935
24613SOL    HW279803   8.101   9.553   2.442 -0.3888 -0.1645  0.0491
24614SOL     OW79804   7.292   3.659   6.238 -0.0968  0.2997 -0.5748
24614SOL    HW179805   7.383   3.635   6.256 -0.1972 -0.4435 -1.0147
24614SOL    HW279806   7.244   3.630   6.315 -0.0474  0.1184 -0.6113
24615SOL     OW79807   9.777   8.074   7.910  0.2625  0.0411 -0.0782
24615SOL    HW179808   9.732   8.105   7.988 -3.1497  2.2132 -2.5853
24615SOL    HW279809   9.829   8.149   7.881  1.1278 -0.5769 -0.1689
24616SOL     OW79810   7.331   1.766   0.878  0.2477  0.0315  0.0718
24616SOL    HW179811   7.355   1.853   0.909 -0.2107  0.5564 -1.0051
24616SOL    HW279812   7.351   1.708   0.952  1.0877  0.9606  0.5965
24617SOL     OW79813   5.127   4.322   2.272  0.0227  0.1066 -0.4185
24617SOL    HW179814   5.126   4.279   2.358 -0.9177 -0.8214 -0.8747
24617SOL    HW279815   5.185   4.269   2.219 -0.7317 -0.3320 -0.8318
24618SOL     OW79816   3.208   6.381  12.438  0.2153 -0.1762 -0.0073
24618SOL    HW179817   3.149   6.455  12.423 -0.9810 -1.5006 -2.5667
24618SOL    HW279818   3.264   6.409  12.509 -2.1485  2.0038  1.1718
24619SOL     OW79819  10.432   6.409   8.200  0.2476  0.2242 -0.1084
24619SOL    HW179820  10.353   6.418   8.147  1.6260  0.0931 -2.3332
24619SOL    HW279821  10.496   6.467   8.158  2.0249 -1.4397  0.1419
24620SOL     OW79822   9.308   8.988   9.843  0.0673 -0.5489 -0.0254
24620SOL    HW179823   9.225   8.941   9.839  0.5978 -1.6090  0.9618
24620SOL    HW279824   9.300   9.046   9.919 -0.1566  0.1478 -0.5667
24621SOL     OW79825   1.129   7.121   9.890  0.3949 -0.6724 -0.0986
24621SOL    HW179826   1.110   7.209   9.922 -0.4870 -0.3964 -1.3020
24621SOL    HW279827   1.156   7.072   9.967 -3.4351 -0.5801  1.5198
24622SOL     OW79828   7.587   1.889   8.016  0.2242  0.4117 -0.0853
24622SOL    HW179829   7.495   1.876   7.994 -0.0944  0.2289  1.2629
24622SOL    HW279830   7.614   1.966   7.965 -1.3918  2.0773  1.4368
24623SOL     OW79831   3.514   8.552   4.570 -0.3215 -0.6900 -0.1360
24623SOL    HW179832   3.534   8.614   4.641 -0.3639  0.6615 -1.2768
24623SOL    HW279833   3.422   8.568   4.549  0.0181 -0.2159 -1.3085
24624SOL     OW79834   3.099   1.418   3.854  0.3762 -0.1370  0.1615
24624SOL    HW179835   3.160   1.355   3.815  0.5968  0.3869 -0.3524
24624SOL    HW279836   3.099   1.398   3.947  2.2108  0.6075  0.3473
24625SOL     OW79837   2.259   3.304   9.093  0.5134 -0.4515  0.4465
24625SOL    HW179838   2.167   3.315   9.116  1.1311 -0.1231  3.1671
24625SOL    HW279839   2.265   3.216   9.057 -0.6950 -0.9823  1.4787
24626SOL     OW79840  12.406   9.043  11.472 -0.2988  1.0074 -0.1834
24626SOL    HW179841  12.377   9.044  11.381 -0.7512 -0.3938 -0.0828
24626SOL    HW279842  12.457   8.962  11.480 -2.2784 -0.1940  1.3756
24627SOL     OW79843  11.522   6.100   9.501 -0.5107  0.5115 -0.1105
24627SOL    HW179844  11.571   6.181   9.503  1.1531 -0.4564  1.4226
24627SOL    HW279845  11.534   6.066   9.412  0.6376  0.8651 -0.1042
24628SOL     OW79846  10.414   0.436  11.402 -0.1463 -0.4822 -0.7790
24628SOL    HW179847  10.507   0.414  11.396 -0.4434 -1.4723 -2.2414
24628SOL    HW279848  10.391   0.469  11.316 -1.0174  0.3957 -0.2321
24629SOL     OW79849   0.075  10.437   1.415 -0.0515  0.1348 -0.1708
24629SOL    HW179850   0.039  10.348   1.408  2.5490 -0.9515 -1.2175
24629SOL    HW279851   0.145  10.430   1.479 -1.1037  1.9931  1.2874
24630SOL     OW79852   9.444   0.889   6.455 -0.0749 -0.3144  0.3249
24630SOL    HW179853   9.442   0.981   6.428 -0.1403 -0.2751  0.4621
24630SOL    HW279854   9.515   0.885   6.520  0.2416 -0.4563 -0.0261
24631SOL     OW79855   8.492   0.219   0.315  0.3438 -0.1052 -0.0118
24631SOL    HW179856   8.548   0.296   0.329  0.1768 -0.1461  0.9445
24631SOL    HW279857   8.552   0.145   0.314  0.3726 -0.0861  0.3568
24632SOL     OW79858   2.013   6.877   2.149 -0.1867  0.1658  0.2959
24632SOL    HW179859   2.010   6.789   2.111 -1.4620  0.4535 -0.3531
24632SOL    HW279860   1.968   6.868   2.233  0.6915 -0.0230  0.7537
24633SOL     OW79861   1.520   7.647  12.233 -0.5110  0.1149  0.4434
24633SOL    HW179862   1.482   7.712  12.174  2.0029  3.4528  2.1598
24633SOL    HW279863   1.481   7.666  12.318  0.1328 -0.7195  0.9384
24634SOL     OW79864   0.289   4.595   7.292  0.2050  0.1746 -0.0607
24634SOL    HW179865   0.242   4.540   7.229  1.0153  0.8290 -1.2751
24634SOL    HW279866   0.220   4.642   7.339 -0.4066 -0.1920 -0.5753
24635SOL     OW79867  11.449   7.671   0.121 -0.1801 -0.1787 -0.2578
24635SOL    HW179868  11.420   7.580   0.108 -1.0244 -0.1480  1.1915
24635SOL    HW279869  11.404   7.720   0.052 -0.4408 -0.7185 -0.4842
24636SOL     OW79870   1.565   8.946  11.862  0.1121  0.1707  0.0573
24636SOL    HW179871   1.509   8.925  11.787  0.4695 -1.9887  0.3282
24636SOL    HW279872   1.510   9.000  11.919 -0.3283  1.4400 -1.4911
24637SOL     OW79873  11.516   1.836   6.911  0.3744  0.0053  0.5771
24637SOL    HW179874  11.518   1.931   6.896 -0.6453 -0.3050 -1.9477
24637SOL    HW279875  11.604   1.807   6.886  0.3517  0.1458  0.3321
24638SOL     OW79876   0.640  10.605   0.062  0.2920  0.0486 -0.8010
24638SOL    HW179877   0.606  10.527   0.020  0.3079  0.2008 -1.0960
24638SOL    HW279878   0.605  10.678   0.010 -0.5838  0.2851  0.0751
24639SOL     OW79879  12.189  10.915   6.806  0.2416  0.6484 -0.2479
24639SOL    HW179880  12.146  10.868   6.734  1.7011  0.0625 -0.7755
24639SOL    HW279881  12.281  10.917   6.781  0.8030  0.3657  1.6393
24640SOL     OW79882   9.096   8.210   5.434 -0.1692  0.4864  0.3909
24640SOL    HW179883   9.181   8.242   5.463 -0.5185  0.1238  1.9372
24640SOL    HW279884   9.076   8.260   5.355  2.2983 -0.7397 -1.1062
24641SOL     OW79885   0.700   5.278   3.939  0.1668 -0.4949 -0.4996
24641SOL    HW179886   0.755   5.336   3.886 -0.7348  0.8178 -0.0556
24641SOL    HW279887   0.761   5.225   3.989  1.0516  0.8278 -0.1247
24642SOL     OW79888  11.860   2.851   1.693  0.0465  0.1628 -0.4804
24642SOL    HW179889  11.936   2.896   1.657 -0.4355  0.7158 -0.8097
24642SOL    HW279890  11.861   2.765   1.651  1.0058 -0.1771  0.1970
24643SOL     OW79891   1.870   6.223   7.602 -0.2355  0.0911 -0.1847
24643SOL    HW179892   1.964   6.218   7.583 -0.3518 -0.0228 -0.7502
24643SOL    HW279893   1.828   6.216   7.517 -0.7650  0.0191  0.0775
24644SOL     OW79894   2.667   2.890   7.089 -0.1667 -0.1832  0.2272
24644SOL    HW179895   2.692   2.798   7.095 -1.0768 -0.3659  1.6077
24644SOL    HW279896   2.747   2.935   7.061  0.0523 -1.4825 -1.4325
24645SOL     OW79897  10.162   1.988   7.631 -0.1266 -0.0707 -0.2466
24645SOL    HW179898  10.210   1.999   7.549  1.0595 -0.3169  0.3934
24645SOL    HW279899  10.104   1.914   7.615 -0.1564  0.0987 -0.9681
24646SOL     OW79900   1.260   1.646  11.360 -0.4444  0.4320  0.2943
24646SOL    HW179901   1.279   1.675  11.271 -0.8644  1.6635  0.5867
24646SOL    HW279902   1.165   1.652  11.368 -0.7955 -2.7912 -0.1891
24647SOL     OW79903  10.128   3.570   1.306 -0.5289  0.2073 -0.1105
24647SOL    HW179904  10.177   3.530   1.378  0.3949  0.7152 -0.4404
24647SOL    HW279905  10.050   3.514   1.297  1.1828 -2.1827 -1.2270
24648SOL     OW79906   6.058  10.896   3.813  0.3099  0.1305  0.3420
24648SOL    HW179907   5.963  10.911   3.811  0.2037 -0.5235  0.2819
24648SOL    HW279908   6.096  10.979   3.785 -0.2700  0.1750 -0.3318
24649SOL     OW79909   9.698   7.300   2.870 -0.5760  0.2100 -0.2873
24649SOL    HW179910   9.677   7.244   2.945 -2.1186  1.6119  0.3871
24649SOL    HW279911   9.731   7.239   2.803  1.0253 -1.0585  1.5473
24650SOL     OW79912   4.744   3.785   5.155  0.7220 -0.2576  0.2164
24650SOL    HW179913   4.656   3.758   5.131  1.4911 -1.4300 -1.4386
24650SOL    HW279914   4.739   3.881   5.159 -0.8817 -0.3550  1.3560
24651SOL     OW79915  10.011   3.219   1.453 -0.6985 -0.2691  0.0928
24651SOL    HW179916  10.095   3.173   1.444 -1.1263 -0.8144 -1.4311
24651SOL    HW279917  10.029   3.290   1.514  0.0238 -2.3978  2.5196
24652SOL     OW79918   2.051   9.280   5.665 -0.1467 -0.6936  0.0286
24652SOL    HW179919   2.111   9.264   5.737 -1.4339  0.0877  1.3351
24652SOL    HW279920   1.990   9.206   5.668  0.1204 -0.9534 -0.6400
24653SOL     OW79921   9.775   3.333   7.815 -0.4724 -0.2528  0.2498
24653SOL    HW179922   9.749   3.297   7.731  2.1222 -1.4961 -0.1122
24653SOL    HW279923   9.794   3.425   7.797  2.3974 -1.0195 -1.1900
24654SOL     OW79924   8.133   9.585   0.683  0.1090  0.5436  0.1572
24654SOL    HW179925   8.127   9.583   0.778 -1.2747 -0.1010  0.0777
24654SOL    HW279926   8.212   9.535   0.663  0.9114  1.4270  0.9774
24655SOL     OW79927   6.559   5.261   6.983 -0.5002  0.2053  0.1819
24655SOL    HW179928   6.612   5.318   6.927 -0.6637  1.0914  0.9099
24655SOL    HW279929   6.487   5.233   6.927  0.4983 -0.6936 -0.7036
24656SOL     OW79930   3.770   5.597   7.875  0.1400 -0.4969  0.6999
24656SOL    HW179931   3.746   5.522   7.931 -0.0621 -1.2225 -0.3222
24656SOL    HW279932   3.732   5.673   7.918 -2.1481 -1.3425  0.2956
24657SOL     OW79933   9.335  11.098   7.341  0.0190  0.1446  0.1077
24657SOL    HW179934   9.376  11.121   7.257 -0.2465 -0.4348 -0.1901
24657SOL    HW279935   9.335  11.002   7.341  0.8416  0.1278  1.1794
24658SOL     OW79936   4.153   9.535   7.771  0.0157 -0.0696  0.0058
24658SOL    HW179937   4.220   9.544   7.702  0.3796 -3.0877 -0.1663
24658SOL    HW279938   4.070   9.553   7.726  0.5464  3.0524  0.0674
24659SOL     OW79939   9.262  12.224   6.199 -0.0297 -0.2313  0.0624
24659SOL    HW179940   9.317  12.174   6.139  0.3214 -0.4824  0.5904
24659SOL    HW279941   9.186  12.249   6.146  0.3550 -0.3002 -0.5322
24660SOL     OW79942   2.608   2.466   0.346 -0.3193  0.3516 -0.0574
24660SOL    HW179943   2.620   2.373   0.364  1.1298  0.5261  0.0515
24660SOL    HW279944   2.600   2.471   0.250 -2.5603 -0.0586  0.0672
24661SOL     OW79945   5.957  11.172   9.360  0.5018 -0.4975  0.2011
24661SOL    HW179946   5.877  11.222   9.351  1.1955  0.4599 -0.8850
24661SOL    HW279947   5.933  11.082   9.337 -0.4651 -0.4324  0.9204
24662SOL     OW79948   1.665   5.314   8.228  0.4094  0.3547  0.1524
24662SOL    HW179949   1.744   5.262   8.213 -0.6277 -1.4672  0.6601
24662SOL    HW279950   1.665   5.378   8.157  1.0090 -1.2959 -1.4169
24663SOL     OW79951   7.653  11.953   4.325 -0.0036 -0.0985  0.1436
24663SOL    HW179952   7.614  12.020   4.268 -1.2099  1.0916  2.2534
24663SOL    HW279953   7.596  11.950   4.402  1.7557 -1.3696  1.4874
24664SOL     OW79954   0.232  12.490   1.206  0.2463 -0.7046 -0.3996
24664SOL    HW179955   0.219  12.564   1.145  0.0993 -0.7778 -0.4564
24664SOL    HW279956   0.202  12.523   1.290  1.6964 -0.1437 -0.0753
24665SOL     OW79957   9.233  12.030   1.013  0.3968 -0.5349 -0.5183
24665SOL    HW179958   9.324  12.006   1.034  0.5161 -1.3139 -1.7770
24665SOL    HW279959   9.181  11.989   1.081  0.9401 -0.6652 -0.1731
24666SOL     OW79960   1.766   4.873  12.303  0.0703  0.4118  0.0742
24666SOL    HW179961   1.786   4.964  12.283  0.0538  0.5622  0.7041
24666SOL    HW279962   1.673   4.873  12.324 -0.3886 -0.0879 -1.7497
24667SOL     OW79963   9.905   7.294   4.381  0.5827  0.1436  0.1455
24667SOL    HW179964   9.995   7.314   4.407  0.3003 -0.2008  1.4637
24667SOL    HW279965   9.852   7.361   4.423 -0.0399 -1.3532  1.8927
24668SOL     OW79966   9.790  11.070   0.278 -0.5990  0.3500  0.5707
24668SOL    HW179967   9.817  11.041   0.191  0.7869  2.4808  0.2007
24668SOL    HW279968   9.717  11.014   0.301  1.5108 -2.9823 -0.2303
24669SOL     OW79969  10.527   7.751   0.752  0.6309 -0.5774 -0.5363
24669SOL    HW179970  10.543   7.843   0.772 -0.1745 -0.6171  0.4008
24669SOL    HW279971  10.613   7.709   0.758  1.1653  0.2758 -1.9859
24670SOL     OW79972  12.450   3.321  10.565 -0.1019 -0.5024 -0.7823
24670SOL    HW179973  12.365   3.304  10.524 -0.1610 -0.6543 -0.5956
24670SOL    HW279974  12.439   3.405  10.610 -0.0623 -0.3776 -1.0052
24671SOL     OW79975   7.814   2.576   9.245  0.3213  0.0297  0.6156
24671SOL    HW179976   7.790   2.484   9.234  0.2050 -0.2749  2.9023
24671SOL    HW279977   7.902   2.574   9.282  1.3743  0.9624 -1.6426
24672SOL     OW79978   1.466   4.673   0.630 -0.2520  0.2963 -0.1076
24672SOL    HW179979   1.410   4.745   0.658 -1.4272  0.3016 -2.2515
24672SOL    HW279980   1.417   4.594   0.653  1.4984 -0.0017  3.2144
24673SOL     OW79981   4.553   2.626   6.124 -0.5569 -0.0292  0.0385
24673SOL    HW179982   4.523   2.670   6.044  0.6988  1.0802  0.1516
24673SOL    HW279983   4.640   2.593   6.102 -0.9121 -1.2763  0.4158
24674SOL     OW79984   1.160   8.067   5.344  0.4799 -0.0256  0.0481
24674SOL    HW179985   1.120   8.048   5.428 -0.9667  0.3072 -0.5436
24674SOL    HW279986   1.143   7.989   5.291  1.7236 -0.3977  0.1566
24675SOL     OW79987   1.163   3.832   7.859 -0.2384 -0.3412  0.3995
24675SOL    HW179988   1.235   3.878   7.900 -0.2755  0.5935 -0.5525
24675SOL    HW279989   1.092   3.896   7.854 -0.6442 -0.8054 -0.0072
24676SOL     OW79990  10.430   4.411   7.225 -0.4585  0.5885  0.1255
24676SOL    HW179991  10.485   4.433   7.301 -1.2192 -0.8477  1.1431
24676SOL    HW279992  10.358   4.474   7.228 -1.9779 -1.0875  2.3063
24677SOL     OW79993  11.375   5.390   1.741 -0.4806  0.4170  0.3852
24677SOL    HW179994  11.286   5.419   1.722 -0.4458 -0.6355 -1.6584
24677SOL    HW279995  11.365   5.304   1.780 -0.4006  1.2068  2.2489
24678SOL     OW79996   9.176   7.501  11.739 -0.3620 -0.2999  0.2702
24678SOL    HW179997   9.263   7.517  11.776 -0.4273 -0.7657  0.6238
24678SOL    HW279998   9.116   7.545  11.799 -0.2847  1.2944 -0.7576
24679SOL     OW79999   7.854  10.049  10.266 -0.1907  0.0893 -0.4935
24679SOL    HW180000   7.864  10.139  10.298 -0.5709  0.9781 -2.6948
24679SOL    HW280001   7.904   9.996  10.328  0.1009  1.8143  0.8239
24680SOL     OW80002  11.614   9.681   0.122 -0.0237 -0.0361 -0.5759
24680SOL    HW180003  11.641   9.759   0.170  0.9968  0.1222 -1.3746
24680SOL    HW280004  11.678   9.614   0.145  0.7328  0.1567 -1.9750
24681SOL     OW80005   9.070   9.128  11.811 -0.0120 -0.3331 -0.0606
24681SOL    HW180006   9.161   9.150  11.829  0.2657 -0.8512 -0.7930
24681SOL    HW280007   9.028   9.127  11.897  0.9848 -1.4588  0.4437
24682SOL     OW80008   4.253  11.586  11.800  0.5151  0.3399  0.0905
24682SOL    HW180009   4.310  11.660  11.780  2.4967 -0.8597  0.9920
24682SOL    HW280010   4.186  11.588  11.731  0.7413  2.6778 -0.1472
24683SOL     OW80011   2.969   1.043   0.975  0.0101 -0.5776 -0.1006
24683SOL    HW180012   2.928   1.008   1.054  3.3254 -1.9454  1.1841
24683SOL    HW280013   3.015   1.121   1.005 -0.1900 -0.0588 -1.1059
24684SOL     OW80014   0.476   1.180   2.484  0.1828 -0.4698  0.6134
24684SOL    HW180015   0.398   1.156   2.534  1.4949 -3.8638  1.3559
24684SOL    HW280016   0.445   1.189   2.394 -1.3294  0.0927  1.1587
24685SOL     OW80017   8.513   6.482   7.159 -0.0413  0.4465 -0.2513
24685SOL    HW180018   8.598   6.444   7.137  0.1935  1.5348 -1.3080
24685SOL    HW280019   8.529   6.576   7.165 -1.3604  0.8105 -1.6040
24686SOL     OW80020   1.364   6.658  11.260 -0.0128  0.0197  0.3299
24686SOL    HW180021   1.389   6.573  11.296  2.9002  0.2812 -0.7983
24686SOL    HW280022   1.367   6.647  11.165 -0.2024  1.2106  0.1657
24687SOL     OW80023  10.156   5.123   8.556  0.4008  0.1204  0.1767
24687SOL    HW180024  10.252   5.123   8.560  0.5203  0.8786 -1.8024
24687SOL    HW280025  10.135   5.086   8.470 -1.0801  0.2784  0.4483
24688SOL     OW80026   0.278   5.763   0.801 -0.0206  0.8386  0.2300
24688SOL    HW180027   0.249   5.714   0.877 -2.6716  0.0022 -1.1965
24688SOL    HW280028   0.373   5.753   0.801 -0.1885 -1.5515  1.8035
24689SOL     OW80029   0.846   6.273   5.133 -0.3944 -0.1853 -0.6553
24689SOL    HW180030   0.865   6.311   5.218  0.2597  1.9640 -1.6840
24689SOL    HW280031   0.929   6.234   5.105 -0.1546  0.5416 -0.9779
24690SOL     OW80032   0.903  10.115  12.281 -0.2922 -0.0558  0.2099
24690SOL    HW180033   0.990  10.155  12.290  0.2436 -1.4787  2.0855
24690SOL    HW280034   0.861  10.131  12.366 -1.1124 -1.0504  0.0027
24691SOL     OW80035  10.947   9.136   2.067 -0.2390 -0.4871 -0.0230
24691SOL    HW180036  10.917   9.223   2.042 -1.4349  0.1569  3.1826
24691SOL    HW280037  10.922   9.080   1.994 -3.5674  1.1138 -0.3094
24692SOL     OW80038   8.895   7.273   2.522 -0.4523 -0.2049  0.2153
24692SOL    HW180039   8.837   7.196   2.517 -1.2871  0.2968  1.6046
24692SOL    HW280040   8.984   7.236   2.522 -0.7871 -1.0610 -0.7104
24693SOL     OW80041   0.316   3.769   7.733 -0.5478  0.0117 -0.1780
24693SOL    HW180042   0.261   3.690   7.733  0.5134 -0.7372 -0.1092
24693SOL    HW280043   0.366   3.763   7.814 -2.6295  2.3328  1.4780
24694SOL     OW80044  11.541   6.888   2.416  0.7268  0.3223 -0.0825
24694SOL    HW180045  11.580   6.884   2.329 -0.5198  0.8833 -0.6950
24694SOL    HW280046  11.479   6.961   2.411  0.9227  0.6221  1.4021
24695SOL     OW80047   8.474   3.949   8.961 -0.3003  0.2260 -0.7732
24695SOL    HW180048   8.548   3.933   9.020 -0.1038 -0.8244 -1.2817
24695SOL    HW280049   8.506   3.921   8.875 -1.8521 -1.9167 -0.7122
24696SOL     OW80050   7.510   6.994   8.860  0.6556  0.2619 -0.2268
24696SOL    HW180051   7.465   6.910   8.864  0.4261  0.3720 -0.4252
24696SOL    HW280052   7.574   6.991   8.930 -1.0604  0.9012  1.4640
24697SOL     OW80053   5.258   7.552   7.589  0.0454 -0.5564  0.0684
24697SOL    HW180054   5.229   7.561   7.680  1.6453 -0.1442  0.5695
24697SOL    HW280055   5.210   7.620   7.542 -1.8534 -1.6587  0.2875
24698SOL     OW80056   4.854   7.896  11.712  0.2893 -0.1370 -0.6635
24698SOL    HW180057   4.775   7.853  11.744  0.8695 -0.5430  0.2290
24698SOL    HW280058   4.828   7.988  11.700  0.2332  0.1845  1.6274
24699SOL     OW80059   5.786   7.612   4.964 -0.1817 -0.0879 -0.4022
24699SOL    HW180060   5.858   7.553   4.941 -0.8415 -1.1050  0.0533
24699SOL    HW280061   5.768   7.660   4.884 -0.0437 -0.9664 -0.9747
24700SOL     OW80062   9.132   4.588   6.038 -0.0681 -0.3409 -0.1541
24700SOL    HW180063   9.170   4.632   6.114  0.6208 -2.2006  0.6294
24700SOL    HW280064   9.065   4.649   6.007 -0.0600  0.6778  1.6592
24701SOL     OW80065   9.094   7.224   9.691  0.6841  0.1440  0.4378
24701SOL    HW180066   9.060   7.137   9.711 -0.1519  0.1994 -0.6480
24701SOL    HW280067   9.145   7.248   9.768  2.1499 -1.9015  0.1889
24702SOL     OW80068   4.792   4.184   3.563  0.5311 -0.3271 -0.6987
24702SOL    HW180069   4.878   4.164   3.527  0.9056 -0.4516  0.2463
24702SOL    HW280070   4.808   4.201   3.656 -0.0569  2.3689 -1.0071
24703SOL     OW80071   2.425   6.309   0.299 -0.0267  0.3379  0.3760
24703SOL    HW180072   2.362   6.343   0.236 -1.2904 -1.7577  0.4321
24703SOL    HW280073   2.373   6.256   0.359  1.7141 -0.9795  0.7992
24704SOL     OW80074   8.339   9.640   1.742 -0.0529 -0.0991  0.0691
24704SOL    HW180075   8.378   9.717   1.783 -2.0256  0.0170  1.8988
24704SOL    HW280076   8.383   9.566   1.783  0.0536  0.0418  0.2079
24705SOL     OW80077   3.244   9.276  10.626  0.2231 -0.2926 -0.4902
24705SOL    HW180078   3.183   9.207  10.598  0.5757 -0.6883 -0.2960
24705SOL    HW280079   3.259   9.329  10.548  1.6278 -1.6951 -1.2277
24706SOL     OW80080  10.647   7.940   2.025 -0.0437 -0.4081 -0.2524
24706SOL    HW180081  10.618   7.851   2.004  1.1567 -0.8706 -0.0602
24706SOL    HW280082  10.732   7.948   1.982 -0.8995  1.2929 -1.7424
24707SOL     OW80083   6.764   3.986   6.406 -0.9241  0.2632  0.3210
24707SOL    HW180084   6.840   3.999   6.350 -1.9071  0.3604 -1.0383
24707SOL    HW280085   6.749   4.071   6.447 -1.1073  0.6247 -0.4765
24708SOL     OW80086  10.305   7.559   0.166 -0.3721 -0.3654 -0.7370
24708SOL    HW180087  10.332   7.507   0.090 -0.0678 -2.1206  0.5418
24708SOL    HW280088  10.359   7.527   0.238  0.5478  2.4002 -0.0595
24709SOL     OW80089   0.892   9.930  11.380 -0.4393  0.4290  0.0562
24709SOL    HW180090   0.861   9.985  11.308  0.5282  1.5286  0.4455
24709SOL    HW280091   0.987   9.934  11.374 -0.3129  1.3249  1.9531
24710SOL     OW80092   8.731   7.248   7.744  0.3422 -0.2680 -0.2305
24710SOL    HW180093   8.697   7.171   7.790 -1.0350  0.3908 -0.1034
24710SOL    HW280094   8.826   7.237   7.746  0.3197 -0.5251  2.3310
24711SOL     OW80095   2.125   7.114   9.685 -0.1528  0.1646  0.0685
24711SOL    HW180096   2.194   7.106   9.619  0.1114 -0.1858  0.3763
24711SOL    HW280097   2.143   7.042   9.747  0.2626  1.1429  1.1237
24712SOL     OW80098   3.865   5.582   5.925  0.6431  0.4078 -0.5769
24712SOL    HW180099   3.828   5.628   6.000 -0.1878 -1.2043  0.0552
24712SOL    HW280100   3.927   5.519   5.964  1.8556  1.0329 -1.4168
24713SOL     OW80101   3.542   5.188  11.200  0.3741  0.0608  0.0527
24713SOL    HW180102   3.461   5.138  11.214 -0.5609  1.6997  0.7874
24713SOL    HW280103   3.611   5.123  11.204 -0.8687 -1.3173 -0.0204
24714SOL     OW80104  10.754   1.438   4.956 -0.3715 -0.2651 -0.0501
24714SOL    HW180105  10.735   1.528   4.930  1.2356 -0.1459 -0.8896
24714SOL    HW280106  10.765   1.442   5.051 -0.7116  0.3377 -0.0319
24715SOL     OW80107   5.093   4.085  12.115  0.1557  0.3511 -0.6108
24715SOL    HW180108   5.129   4.028  12.183 -2.3443 -0.1886  0.3438
24715SOL    HW280109   5.107   4.174  12.149  0.7014  0.1756 -0.3546
24716SOL     OW80110   3.958   2.577   1.175 -0.4390  0.1142 -0.2824
24716SOL    HW180111   3.967   2.636   1.250 -0.7496  1.6291 -1.3879
24716SOL    HW280112   3.946   2.491   1.214 -1.4888  0.9736  1.4360
24717SOL     OW80113   1.586  11.803   3.266 -0.1931  0.2439 -0.6317
24717SOL    HW180114   1.645  11.728   3.269  0.0574  0.4744  0.3857
24717SOL    HW280115   1.552  11.803   3.176  1.7074  0.3803 -1.3931
24718SOL     OW80116   4.978   3.743   5.996  0.4433  0.4076 -0.0686
24718SOL    HW180117   4.942   3.798   6.066 -0.1835  0.9905 -0.8415
24718SOL    HW280118   4.942   3.656   6.014 -0.9600  0.8713 -0.5294
24719SOL     OW80119   6.136   0.984  12.485 -0.2236 -0.6703 -0.2339
24719SOL    HW180120   6.204   1.046  12.509 -0.6739 -0.0828 -0.4670
24719SOL    HW280121   6.123   0.996  12.391 -1.1146 -0.3013 -0.0750
24720SOL     OW80122  11.072  10.349  12.356  0.0084 -0.2598  0.3771
24720SOL    HW180123  11.063  10.360  12.451  0.2213  0.0114  0.3667
24720SOL    HW280124  11.037  10.429  12.319  0.5393 -0.0829  0.2550
24721SOL     OW80125   0.181   4.525  11.136  0.0629  0.8436  0.1518
24721SOL    HW180126   0.092   4.511  11.105  0.6008  0.3340 -1.2311
24721SOL    HW280127   0.197   4.454  11.198 -0.2474  0.5313 -0.1258
24722SOL     OW80128   1.487  12.301   1.204  0.2446 -0.7712  0.3166
24722SOL    HW180129   1.419  12.363   1.228 -0.1023 -0.7811 -0.5843
24722SOL    HW280130   1.476  12.228   1.264 -0.2226 -0.5590  0.4935
24723SOL     OW80131  10.264   9.613   7.913 -0.0302 -0.5217  0.1994
24723SOL    HW180132  10.334   9.561   7.952  0.9460 -1.1252 -2.1402
24723SOL    HW280133  10.187   9.555   7.916  0.2884 -0.9463  0.3173
24724SOL     OW80134   5.794   9.947  10.717 -0.7879 -0.8257 -0.0406
24724SOL    HW180135   5.856   9.875  10.722 -0.4429 -0.5187  0.1950
24724SOL    HW280136   5.847  10.023  10.693 -1.0646 -0.5521  0.2040
24725SOL     OW80137   1.908   3.874   8.925 -0.2165 -0.0683  0.1833
24725SOL    HW180138   1.841   3.849   8.988  1.2254 -2.1148  0.9873
24725SOL    HW280139   1.932   3.792   8.882  0.3027  0.9643 -1.5890
24726SOL     OW80140   8.877  11.077   9.199  0.4386 -0.4232  0.1260
24726SOL    HW180141   8.831  11.124   9.268  1.7244  3.1518 -1.1905
24726SOL    HW280142   8.811  11.021   9.159 -1.4179  0.6616  1.5300
24727SOL     OW80143   3.659   4.266   9.414  0.1600  0.2356  0.2397
24727SOL    HW180144   3.684   4.192   9.358 -3.3721 -1.6066  0.7762
24727SOL    HW280145   3.623   4.331   9.354  1.4011  0.6713 -0.0548
24728SOL     OW80146   6.286  10.286   3.932 -0.1130  0.5112  0.1823
24728SOL    HW180147   6.354  10.304   3.997 -0.9998  0.8503  1.0280
24728SOL    HW280148   6.265  10.193   3.945 -1.1965  0.8846  1.2853
24729SOL     OW80149  11.496   3.035   2.259  0.3997 -0.0820 -0.1654
24729SOL    HW180150  11.431   3.099   2.228  0.3587  0.3299  0.7629
24729SOL    HW280151  11.534   3.074   2.337  0.9158 -0.8636 -0.0101
24730SOL     OW80152   4.119   2.165  11.918  0.0652 -0.2701 -0.2908
24730SOL    HW180153   4.093   2.151  12.009  2.2917  0.7840  0.5814
24730SOL    HW280154   4.070   2.243  11.891  0.2691  0.1108  0.4141
24731SOL     OW80155   3.682   0.628  11.506 -0.8269 -0.6669  0.4308
24731SOL    HW180156   3.628   0.707  11.518 -0.0701  0.3907 -2.3065
24731SOL    HW280157   3.632   0.574  11.445  0.8632  0.0949 -1.7417
24732SOL     OW80158   8.230  10.410  11.336 -0.0585  0.9216  0.0749
24732SOL    HW180159   8.237  10.344  11.404  0.2132 -0.6289 -1.3794
24732SOL    HW280160   8.307  10.466  11.348  1.4108 -0.8770 -0.4909
24733SOL     OW80161   9.980   8.996   3.845  0.4356 -0.1807  0.1659
24733SOL    HW180162  10.013   9.024   3.760 -1.2446  1.6772  0.0541
24733SOL    HW280163  10.020   8.910   3.859  1.1540 -0.3215 -2.2635
24734SOL     OW80164   4.134  10.816   4.725 -0.2855 -0.0644  0.1966
24734SOL    HW180165   4.183  10.886   4.768 -0.4326  0.1219  0.0625
24734SOL    HW280166   4.174  10.808   4.639 -1.4193  1.1083 -0.4885
24735SOL     OW80167   0.480   3.459   4.060 -0.2539  0.0466  0.2446
24735SOL    HW180168   0.389   3.428   4.061 -0.1455 -0.2739  0.3262
24735SOL    HW280169   0.531   3.384   4.030  0.1045 -0.1148  1.1988
24736SOL     OW80170  10.649   5.209   5.643 -0.3783  0.0186 -0.0236
24736SOL    HW180171  10.579   5.143   5.637 -1.5678  1.3061 -1.1929
24736SOL    HW280172  10.636   5.250   5.728 -1.9238  1.1214 -0.7515
24737SOL     OW80173  11.953   7.816   1.498  0.9197 -0.2537 -0.3873
24737SOL    HW180174  11.930   7.831   1.407 -0.2282  0.4343 -0.0166
24737SOL    HW280175  11.884   7.861   1.548 -1.0408 -4.1168  0.8398
24738SOL     OW80176   0.075   5.980   4.891  0.1538 -0.1669  0.1753
24738SOL    HW180177   0.123   5.898   4.897  0.1114 -0.1075  1.6226
24738SOL    HW280178   0.143   6.047   4.887  0.1962 -0.2553 -1.4326
24739SOL     OW80179   9.312   0.618   0.031  0.2756  0.2897  0.2118
24739SOL    HW180180   9.402   0.616  -0.001 -0.2056  0.0799 -1.2247
24739SOL    HW280181   9.259   0.635  -0.048 -0.8201  2.2555  1.2924
24740SOL     OW80182   1.364   6.488   5.471 -0.6027  0.1346  0.1726
24740SOL    HW180183   1.374   6.492   5.567  0.6501 -1.2103  0.1207
24740SOL    HW280184   1.380   6.397   5.449  1.9863  0.9188 -1.6032
24741SOL     OW80185   6.676   7.461   9.260  0.0773 -0.0667  0.4892
24741SOL    HW180186   6.629   7.378   9.271  0.3793 -0.5585 -1.5583
24741SOL    HW280187   6.717   7.454   9.174  0.9361  1.8263  0.6966
24742SOL     OW80188   0.668   8.539   8.289 -0.5079  0.0191 -0.0507
24742SOL    HW180189   0.699   8.529   8.379 -0.2599  0.4448 -0.0874
24742SOL    HW280190   0.586   8.491   8.287 -1.5187  1.6003  0.9390
24743SOL     OW80191   9.492   0.821   9.924 -0.4279 -0.1407  0.3400
24743SOL    HW180192   9.406   0.865   9.925  0.6356  2.1063 -0.2770
24743SOL    HW280193   9.502   0.790   9.834  0.1618  1.2960 -0.1191
24744SOL     OW80194   9.446   3.925   8.339  0.2005  0.6055  0.2682
24744SOL    HW180195   9.479   3.885   8.419 -0.8319 -3.7407 -1.1809
24744SOL    HW280196   9.350   3.917   8.346  0.0977 -0.0818 -1.3979
24745SOL     OW80197  11.692   1.528   7.786 -0.3283  0.2163 -0.2413
24745SOL    HW180198  11.645   1.598   7.831 -0.1324  0.5515 -0.5583
24745SOL    HW280199  11.765   1.507   7.845 -0.5470  0.0841 -0.0158
24746SOL     OW80200  11.419   6.692  10.856  0.3937  0.2193 -0.3652
24746SOL    HW180201  11.431   6.706  10.762  0.0565 -1.5358 -0.7019
24746SOL    HW280202  11.340   6.639  10.862  1.2580 -1.0153  0.7819
24747SOL     OW80203  12.117   5.357   5.863 -0.1154  0.6617 -0.0225
24747SOL    HW180204  12.179   5.306   5.915  1.3479 -0.8860 -3.0106
24747SOL    HW280205  12.038   5.303   5.861 -0.0707  0.5809  0.3117
24748SOL     OW80206   9.724   8.480   6.252 -0.2764  0.7512 -0.2015
24748SOL    HW180207   9.716   8.555   6.311  1.3689  1.9808 -1.4699
24748SOL    HW280208   9.760   8.410   6.307  1.4093  1.9286  0.2619
24749SOL     OW80209   8.021   4.794  12.420  0.0001 -0.6652 -0.2483
24749SOL    HW180210   8.014   4.868  12.481 -1.0659  0.3764 -1.5682
24749SOL    HW280211   7.981   4.721  12.467 -2.0844  0.4570 -0.1467
24750SOL     OW80212  10.349  11.258   1.340  0.5653  0.3453  0.1914
24750SOL    HW180213  10.284  11.326   1.322 -0.0226  0.0018  0.9743
24750SOL    HW280214  10.306  11.176   1.315 -0.0071 -0.0733  2.3775
24751SOL     OW80215   2.511   1.464   4.674  0.3433  0.3160 -0.1259
24751SOL    HW180216   2.602   1.438   4.690  0.0664  0.1460  1.3299
24751SOL    HW280217   2.467   1.383   4.649  0.2642  0.0648  0.7774
24752SOL     OW80218   1.365   5.825   9.197 -0.3399  0.5340  0.0799
24752SOL    HW180219   1.377   5.757   9.264 -0.3429  0.2103 -0.2460
24752SOL    HW280220   1.278   5.809   9.161  0.3044 -0.3500 -1.1706
24753SOL     OW80221   3.670   8.547   9.661 -0.2606  0.2798 -0.1267
24753SOL    HW180222   3.595   8.580   9.611 -1.9835 -0.0854  2.0256
24753SOL    HW280223   3.676   8.455   9.637  1.4885  0.9268 -2.5310
24754SOL     OW80224   4.721   0.245   1.690 -0.6214  0.3393  0.4931
24754SOL    HW180225   4.709   0.282   1.602  0.7168  1.6711  0.8405
24754SOL    HW280226   4.744   0.320   1.745  3.5914 -1.0587  0.9809
24755SOL     OW80227   8.977   9.327   4.212 -0.2980 -0.1020  0.1457
24755SOL    HW180228   8.981   9.369   4.127  0.7977  0.2593  0.3605
24755SOL    HW280229   8.886   9.336   4.239 -0.7608 -0.6288 -1.1777
24756SOL     OW80230   0.529   1.448  10.833 -0.4753  0.4085 -0.3292
24756SOL    HW180231   0.592   1.376  10.830  0.9383  1.6286 -1.3613
24756SOL    HW280232   0.454   1.412  10.880  0.2834 -1.6469 -0.5790
24757SOL     OW80233   1.335   6.792   7.721  0.2843  0.3012  0.0568
24757SOL    HW180234   1.394   6.718   7.734 -0.5574 -0.3732  0.1104
24757SOL    HW280235   1.284   6.797   7.802 -0.8285 -0.1321 -0.5961
24758SOL     OW80236  10.318  10.385   8.969 -0.0530 -0.5639 -0.1809
24758SOL    HW180237  10.337  10.476   8.991 -2.5201 -0.3373  1.3693
24758SOL    HW280238  10.366  10.370   8.888  0.9981  1.8712 -0.1103
24759SOL     OW80239   3.195  10.912   0.611  0.4175 -0.3825  0.2522
24759SOL    HW180240   3.199  10.842   0.676 -0.6236 -0.5008  0.2011
24759SOL    HW280241   3.214  10.869   0.528  0.7485 -0.4194  0.3463
24760SOL     OW80242  12.272   7.014   0.828 -0.0785 -0.2698  0.2818
24760SOL    HW180243  12.220   7.062   0.893  0.7119  0.4702  0.3732
24760SOL    HW280244  12.247   7.053   0.745  0.7720  0.5040  0.3821
24761SOL     OW80245   7.627  10.095   9.730  0.3007  0.4359 -0.0475
24761SOL    HW180246   7.667  10.153   9.794  0.8928 -0.2549  0.2291
24761SOL    HW280247   7.544  10.069   9.770  1.1155 -0.7809  0.9206
24762SOL     OW80248   0.333  10.713   5.063  0.4045  0.3056  0.8591
24762SOL    HW180249   0.265  10.695   5.128  0.0831 -0.9340  0.2105
24762SOL    HW280250   0.412  10.675   5.100  0.1019 -0.9147  0.2950
24763SOL     OW80251   0.643   4.267   2.466 -0.5095  0.1263 -1.0461
24763SOL    HW180252   0.568   4.284   2.410 -1.9431  0.7515  0.9548
24763SOL    HW280253   0.607   4.267   2.555  1.5654 -1.2786 -0.1272
24764SOL     OW80254  11.849  10.668   2.009  0.0145  0.1929  0.0861
24764SOL    HW180255  11.939  10.658   2.038 -0.4521 -0.8555  1.3083
24764SOL    HW280256  11.807  10.584   2.031 -1.5626  1.0993  0.7564
24765SOL     OW80257   1.838   1.116   1.473 -0.0310 -0.0151  0.0116
24765SOL    HW180258   1.870   1.109   1.563 -0.7953  0.5475  0.3335
24765SOL    HW280259   1.746   1.091   1.478 -0.5069  1.5813 -0.3206
24766SOL     OW80260   8.515   6.997  10.795 -0.7672 -0.1522 -0.2409
24766SOL    HW180261   8.567   6.920  10.772 -1.4941 -0.2554 -1.6626
24766SOL    HW280262   8.580   7.066  10.810 -0.1685 -0.6861 -0.3285
24767SOL     OW80263   8.753  12.256   4.488 -0.2265  0.2538 -0.0021
24767SOL    HW180264   8.715  12.340   4.463 -2.0940  0.2166  2.3521
24767SOL    HW280265   8.836  12.278   4.529 -0.5569  0.9363  0.3098
24768SOL     OW80266   8.768   3.144   2.315  0.6726 -0.4441  0.5869
24768SOL    HW180267   8.726   3.087   2.379  1.8076 -0.6718  1.1627
24768SOL    HW280268   8.784   3.226   2.363  1.2034 -0.4912  0.4970
24769SOL     OW80269   3.189   9.394   0.768 -0.4573  0.7768 -0.3243
24769SOL    HW180270   3.258   9.453   0.799  0.6361 -0.5108 -0.2264
24769SOL    HW280271   3.228   9.348   0.694 -0.0218 -2.2158  1.6030
24770SOL     OW80272  10.734   0.596   3.618 -0.0072 -0.3479 -0.3053
24770SOL    HW180273  10.646   0.576   3.651 -0.8951  0.7070 -1.8935
24770SOL    HW280274  10.751   0.685   3.651  1.4698 -1.3725  1.8931
24771SOL     OW80275   1.500   4.059   4.726 -0.0685 -0.1647 -0.1727
24771SOL    HW180276   1.575   4.045   4.669 -0.3600  0.4299 -0.7057
24771SOL    HW280277   1.423   4.045   4.670 -0.3853 -1.6354  0.5657
24772SOL     OW80278   1.071   4.601   7.200  0.3984 -0.3708 -0.4058
24772SOL    HW180279   1.054   4.676   7.257 -1.0818 -0.3983 -0.7866
24772SOL    HW280280   1.124   4.636   7.129  2.4167 -0.3624  0.9894
24773SOL     OW80281   1.635   9.723   2.066  0.3202  0.4838 -0.1834
24773SOL    HW180282   1.647   9.714   2.160 -0.7670  1.1772  0.0438
24773SOL    HW280283   1.561   9.666   2.045  0.6104  0.2685 -0.6363
24774SOL     OW80284  10.667   0.868  11.416  0.1504 -0.7177 -0.6538
24774SOL    HW180285  10.700   0.780  11.401  0.4712 -0.5037 -1.2182
24774SOL    HW280286  10.745   0.924  11.413  0.3831 -0.6775  2.3462
24775SOL     OW80287   6.321   2.702   8.902 -0.3555  0.3174  0.1663
24775SOL    HW180288   6.334   2.737   8.991  0.4696 -0.8856  0.5360
24775SOL    HW280289   6.240   2.743   8.873  0.3215  2.1924  0.7410
24776SOL     OW80290   6.273   9.205   0.318 -0.2416 -0.7638 -0.4181
24776SOL    HW180291   6.325   9.204   0.238  1.2746  0.3729  0.5067
24776SOL    HW280292   6.304   9.128   0.367  1.1811  0.3217  0.4615
24777SOL     OW80293   6.731   8.602  10.742  0.3251 -0.1393 -0.2167
24777SOL    HW180294   6.750   8.657  10.666 -0.0842  1.1018  0.5391
24777SOL    HW280295   6.810   8.607  10.796  0.1171  0.1125  0.0748
24778SOL     OW80296   6.689   5.512   7.753  0.9956  0.7844  0.5758
24778SOL    HW180297   6.779   5.482   7.741 -0.1100 -2.9178  0.4298
24778SOL    HW280298   6.671   5.500   7.846  0.8697  2.4370  0.8049
24779SOL     OW80299   4.012  10.552   3.770  0.2709 -0.2101  0.2909
24779SOL    HW180300   4.072  10.567   3.696  1.5563  2.5971  1.7473
24779SOL    HW280301   3.925  10.569   3.734  0.6579 -0.8950 -1.0322
24780SOL     OW80302   0.189   6.736   2.829  0.1405 -0.3997  0.3050
24780SOL    HW180303   0.225   6.787   2.902  1.0537  0.4673 -0.7281
24780SOL    HW280304   0.140   6.666   2.872  0.4839  0.2052  1.7590
24781SOL     OW80305   7.373   8.671  10.133 -0.1677 -0.2139  0.1860
24781SOL    HW180306   7.392   8.578  10.142  0.2987 -0.0228  1.3262
24781SOL    HW280307   7.420   8.698  10.054  0.5211 -0.7404  0.4064
24782SOL     OW80308   3.053   5.984   8.793  0.3510  0.1047 -0.7079
24782SOL    HW180309   3.056   5.907   8.735 -0.3528 -1.4626  1.2015
24782SOL    HW280310   3.090   5.952   8.876 -2.1413  1.0796  0.8906
24783SOL     OW80311   9.247   9.123  10.065  0.0512 -0.4076  0.4513
24783SOL    HW180312   9.183   9.193  10.075 -0.1667 -0.3811 -0.9269
24783SOL    HW280313   9.218   9.054  10.126  0.3976  0.7592  1.9872
24784SOL     OW80314   8.550   7.726   0.240  0.3309 -0.5878 -0.1271
24784SOL    HW180315   8.530   7.651   0.296 -2.2675 -0.3691 -0.6178
24784SOL    HW280316   8.644   7.721   0.225  1.3356 -0.3729  4.6056
24785SOL     OW80317   4.970  11.381  11.370  0.9725  0.4773 -0.5597
24785SOL    HW180318   5.044  11.421  11.324  0.3821  3.0832  0.5492
24785SOL    HW280319   5.002  11.366  11.459  0.2360  1.5246 -0.1012
24786SOL     OW80320   8.290  10.602   8.304 -0.0436 -0.3686 -0.1349
24786SOL    HW180321   8.202  10.588   8.269 -0.5426 -0.1355  0.9739
24786SOL    HW280322   8.276  10.650   8.386  1.2918  2.9463 -1.6508
24787SOL     OW80323   9.611   7.415   9.544  0.1728 -0.2235 -0.0195
24787SOL    HW180324   9.549   7.411   9.471 -2.0422 -0.7372  1.8116
24787SOL    HW280325   9.665   7.337   9.533 -0.1746 -0.3392 -1.0380
24788SOL     OW80326   2.025   8.045   1.336 -0.6061  0.4178 -0.2156
24788SOL    HW180327   2.120   8.054   1.342 -0.3941 -1.7158  0.7225
24788SOL    HW280328   2.001   7.997   1.416 -2.1977 -0.8332 -1.3884
24789SOL     OW80329  10.972   8.359   9.016  0.6392 -0.0276 -0.4181
24789SOL    HW180330  10.989   8.440   8.969  0.7734 -0.7956 -1.7562
24789SOL    HW280331  10.974   8.291   8.948 -0.0760 -1.0746  0.5637
24790SOL     OW80332  11.451   0.960   7.269 -0.4414 -0.1888 -0.0223
24790SOL    HW180333  11.499   0.878   7.262 -0.5394 -0.0946 -3.2752
24790SOL    HW280334  11.370   0.936   7.315 -1.5862 -2.5844 -2.9681
24791SOL     OW80335   2.165   3.614   0.631 -0.7002  0.2313 -0.4244
24791SOL    HW180336   2.106   3.652   0.696  0.3682 -0.3369  0.9518
24791SOL    HW280337   2.208   3.689   0.590  1.0621  0.6455  1.9384
24792SOL     OW80338  11.326   6.209   6.325 -0.1881 -0.3748 -0.0559
24792SOL    HW180339  11.265   6.146   6.289  0.5522 -2.2971  1.8431
24792SOL    HW280340  11.393   6.219   6.257 -1.0605 -0.5094 -0.9506
24793SOL     OW80341   1.172   2.742  10.679 -0.3577  0.8752 -0.0697
24793SOL    HW180342   1.099   2.713  10.733 -1.1532  2.1316 -0.4153
24793SOL    HW280343   1.146   2.719  10.590  0.0118  0.6580 -0.1225
24794SOL     OW80344  10.429  10.506  12.246  0.2406 -0.0300 -0.5285
24794SOL    HW180345  10.426  10.555  12.328 -2.7665  1.0459 -1.1586
24794SOL    HW280346  10.396  10.419  12.270  4.4564 -1.6298  0.3436
24795SOL     OW80347   0.643   5.475  11.227  0.0789  0.0961  0.2743
24795SOL    HW180348   0.684   5.559  11.209 -2.2971  1.6422  1.4642
24795SOL    HW280349   0.575   5.467  11.160 -0.9840  0.1436  1.2920
24796SOL     OW80350   8.963   8.491   9.699 -0.3878  0.3174 -0.3899
24796SOL    HW180351   8.902   8.533   9.760 -2.4421 -2.7841 -0.0795
24796SOL    HW280352   9.043   8.478   9.750 -0.6597  1.3865  0.3266
24797SOL     OW80353   5.420   0.395   1.492 -0.4261 -0.1669 -0.4373
24797SOL    HW180354   5.370   0.430   1.418 -3.5801 -0.6922  1.3028
24797SOL    HW280355   5.437   0.304   1.467 -0.3133  0.0111 -1.0408
24798SOL     OW80356  10.535  10.997   1.463 -0.1349 -0.1785 -0.4370
24798SOL    HW180357  10.445  10.974   1.488  0.0061  0.0077  0.2407
24798SOL    HW280358  10.583  11.000   1.545 -0.0912  2.3680 -0.4940
24799SOL     OW80359   6.008   8.028   9.851  0.5577  0.1499  0.2964
24799SOL    HW180360   5.970   8.076   9.924 -0.6556 -0.6378  0.2197
24799SOL    HW280361   6.064   7.962   9.892  1.0909  0.6907  0.4497
24800SOL     OW80362   2.325   6.362   4.720 -0.3207 -0.2665 -0.3688
24800SOL    HW180363   2.294   6.446   4.753  0.1450 -0.2988  0.1717
24800SOL    HW280364   2.315   6.368   4.625 -0.1400  0.4565 -0.3474
24801SOL     OW80365   4.722   1.143   0.642  0.3832 -0.1981  0.3277
24801SOL    HW180366   4.747   1.051   0.648 -1.0286 -1.0804 -3.8717
24801SOL    HW280367   4.629   1.145   0.662  0.3937  0.2939  0.3539
24802SOL     OW80368  10.046   6.720   7.147  0.2536  0.3955 -0.1673
24802SOL    HW180369   9.961   6.742   7.184  0.1941 -0.4013  0.1805
24802SOL    HW280370  10.029   6.650   7.084  0.8910 -1.2622  1.4213
24803SOL     OW80371   6.610   8.342   5.499  0.3220 -0.3264 -0.5131
24803SOL    HW180372   6.688   8.330   5.554  0.5716  0.0255 -0.7862
24803SOL    HW280373   6.559   8.410   5.545 -0.3663 -1.3191  0.2429
24804SOL     OW80374  10.751   8.735   2.527 -0.1344  0.3452 -0.5972
24804SOL    HW180375  10.789   8.822   2.521  2.0326 -0.5558 -0.6989
24804SOL    HW280376  10.804   8.689   2.592  0.2324 -1.5599 -2.1114
24805SOL     OW80377   3.502   9.953  10.588  0.2477  0.2713 -0.1201
24805SOL    HW180378   3.584   9.937  10.540  0.3803  2.6624 -0.8159
24805SOL    HW280379   3.434   9.914  10.533  0.7817 -0.6439 -0.1538
24806SOL     OW80380   1.994   3.396   5.928 -0.0874  0.3359 -0.5496
24806SOL    HW180381   2.004   3.469   5.867  2.4021 -0.8900 -1.7416
24806SOL    HW280382   1.971   3.321   5.873  3.1181 -1.0028 -0.2722
24807SOL     OW80383   0.533   3.781   8.828 -0.1287 -0.0703 -0.0652
24807SOL    HW180384   0.593   3.707   8.835  1.5383  1.3046  0.9192
24807SOL    HW280385   0.533   3.804   8.736  1.6331  0.4812  0.0436
24808SOL     OW80386   8.402   2.914   5.428  0.0109 -0.3959  0.1277
24808SOL    HW180387   8.308   2.930   5.436 -0.4012 -1.0174 -2.6032
24808SOL    HW280388   8.414   2.824   5.458 -0.6471 -1.0453 -1.4834
24809SOL     OW80389   0.108   4.026   8.121  0.6041 -0.7001  0.3297
24809SOL    HW180390   0.119   4.024   8.026  0.6626 -1.3747  0.3474
24809SOL    HW280391   0.041   3.959   8.139  0.1881 -0.1873  0.7100
24810SOL     OW80392  12.328   1.934   6.044 -0.3127 -0.4320 -0.4050
24810SOL    HW180393  12.394   1.996   6.075 -0.8769  0.7917 -1.5389
24810SOL    HW280394  12.245   1.979   6.060 -0.8237 -1.5311  0.0954
24811SOL     OW80395   6.850   6.282   9.291  0.6864  0.0628  0.1057
24811SOL    HW180396   6.788   6.350   9.266  0.2780  0.1995  1.4081
24811SOL    HW280397   6.864   6.231   9.211 -0.3347  0.6263 -0.4502
24812SOL     OW80398   1.557   5.326   6.263  0.0990 -0.4854  0.1280
24812SOL    HW180399   1.617   5.251   6.272 -0.9546 -1.3552  0.0236
24812SOL    HW280400   1.542   5.334   6.169 -0.6388 -0.8241  0.2158
24813SOL     OW80401   2.283   7.395   6.095 -0.3070  0.2078 -0.1133
24813SOL    HW180402   2.273   7.440   6.011 -0.9239  2.0533  0.8827
24813SOL    HW280403   2.195   7.364   6.117  0.2389 -2.2481 -1.1306
24814SOL     OW80404   2.399   2.437  11.862  0.3433  0.1551 -0.0003
24814SOL    HW180405   2.484   2.400  11.838  0.4630 -1.1376  2.1644
24814SOL    HW280406   2.420   2.521  11.903  0.7084 -0.5516  1.3244
24815SOL     OW80407   6.366   3.599   4.650  0.4961 -0.2151  0.1576
24815SOL    HW180408   6.284   3.560   4.680 -0.0938  0.4130 -0.5988
24815SOL    HW280409   6.349   3.694   4.650  0.6748 -0.1559 -1.5037
24816SOL     OW80410   9.406  12.001   8.579  0.7344 -0.5800 -0.4303
24816SOL    HW180411   9.397  12.004   8.674  1.4212 -0.8317 -0.3562
24816SOL    HW280412   9.500  12.006   8.563  0.5780  0.8652 -1.1468
24817SOL     OW80413   5.923   3.256   4.992  0.0330 -0.0239  0.2993
24817SOL    HW180414   5.874   3.235   5.071 -1.4143  2.3381  0.1318
24817SOL    HW280415   5.866   3.227   4.920 -0.3168  1.0110  0.1319
24818SOL     OW80416   8.895   9.350   9.811 -0.0801  0.3899  0.0541
24818SOL    HW180417   8.909   9.268   9.860 -0.9475 -0.5785 -1.2322
24818SOL    HW280418   8.859   9.321   9.727 -3.7288  2.2254  0.7630
24819SOL     OW80419   8.563   7.738  11.550 -0.1768 -0.2094 -0.4639
24819SOL    HW180420   8.548   7.739  11.456 -0.1253  0.3929 -0.4696
24819SOL    HW280421   8.655   7.715  11.559  0.0382  0.5573 -0.6011
24820SOL     OW80422   8.643   8.803   2.458 -0.0943 -0.0380  0.3549
24820SOL    HW180423   8.655   8.864   2.531 -1.5813 -0.7167  1.2002
24820SOL    HW280424   8.626   8.718   2.499 -0.6101 -0.5091 -0.7733
24821SOL     OW80425   5.655   1.161   1.855 -1.0858 -0.4373  0.0809
24821SOL    HW180426   5.600   1.089   1.887  0.9057 -1.9735  0.2055
24821SOL    HW280427   5.733   1.159   1.911  0.3756 -0.1602 -1.8313
24822SOL     OW80428   6.036   0.289   3.176 -0.4951 -0.5334 -0.6954
24822SOL    HW180429   6.060   0.269   3.266  1.7039  0.2699 -1.0471
24822SOL    HW280430   6.000   0.207   3.141 -0.2633 -1.1786  0.5371
24823SOL     OW80431   4.002   6.088  10.671  0.1976  0.7461 -0.7045
24823SOL    HW180432   4.033   6.019  10.729 -0.8569  1.3949  0.7050
24823SOL    HW280433   4.076   6.148  10.663  0.7829 -0.0136 -1.1193
24824SOL     OW80434   2.009   8.308   4.113 -0.9519  0.2528 -0.0196
24824SOL    HW180435   2.086   8.298   4.058 -0.0297  0.6802  1.1424
24824SOL    HW280436   2.014   8.236   4.176 -0.9775  0.8290  0.6574
24825SOL     OW80437  11.130  11.295   6.180  0.1764 -0.5605  0.6502
24825SOL    HW180438  11.178  11.364   6.227  0.7102  0.7138 -1.5801
24825SOL    HW280439  11.198  11.247   6.133 -0.4574 -0.6295 -0.2194
24826SOL     OW80440   3.229  10.201   7.291 -0.2223  0.3090 -0.1525
24826SOL    HW180441   3.197  10.272   7.346  0.6974  0.3455  0.3601
24826SOL    HW280442   3.320  10.224   7.273 -0.4630  0.2388 -1.6087
24827SOL     OW80443   1.006  10.876   7.733  0.2705 -0.0730  0.0628
24827SOL    HW180444   0.924  10.833   7.758  1.6903 -3.2872 -0.1822
24827SOL    HW280445   0.985  10.924   7.653 -1.4459 -0.4415  0.2447
24828SOL     OW80446   6.070   8.812   6.111  0.4113 -0.5445  0.0444
24828SOL    HW180447   5.990   8.769   6.141  0.2485 -0.6521 -0.5356
24828SOL    HW280448   6.138   8.746   6.122  0.4707 -0.3644  0.7871
24829SOL     OW80449   1.041  10.103   1.625 -0.4417  0.4468 -0.5795
24829SOL    HW180450   1.133  10.123   1.605  0.4794 -1.7436  1.0776
24829SOL    HW280451   1.011  10.178   1.676  0.6466  0.8784 -0.5357
24830SOL     OW80452   6.897   6.642   6.277  0.6715 -1.0772 -0.6743
24830SOL    HW180453   6.972   6.673   6.226  0.9102 -1.2597 -0.4377
24830SOL    HW280454   6.935   6.579   6.339  0.9467  1.3910  1.9012
24831SOL     OW80455   6.635   9.647   3.542 -0.0750 -0.0290  0.5727
24831SOL    HW180456   6.631   9.683   3.630 -1.0104 -0.4009  0.6980
24831SOL    HW280457   6.611   9.555   3.552 -1.8229  0.2833 -0.2339
24832SOL     OW80458   3.701  11.678  12.338  0.5042  0.2812  0.0930
24832SOL    HW180459   3.792  11.695  12.311  0.6466 -0.1174  0.3181
24832SOL    HW280460   3.709  11.629  12.420  0.0892 -0.0546 -0.0668
24833SOL     OW80461  10.449   2.763  10.619  0.2318  0.0728 -0.8005
24833SOL    HW180462  10.500   2.744  10.540  1.3398  2.1044 -0.6326
24833SOL    HW280463  10.457   2.858  10.631 -0.2562 -0.1161  1.5189
24834SOL     OW80464  11.001   8.039   1.476  0.4768 -0.1606 -0.2435
24834SOL    HW180465  11.014   7.954   1.434  3.3313  0.0989 -0.0951
24834SOL    HW280466  11.033   8.103   1.413 -0.4073  0.7352  0.1698
24835SOL     OW80467  11.622  10.820   0.014 -0.0626 -0.3851  0.0579
24835SOL    HW180468  11.529  10.806  -0.005 -0.6000  2.8917 -0.2795
24835SOL    HW280469  11.647  10.743   0.064 -2.8686 -1.5461 -0.1015
24836SOL     OW80470   9.213  10.497   2.665 -0.0925 -0.0864  0.0875
24836SOL    HW180471   9.190  10.404   2.659 -1.9426  0.3242  0.0377
24836SOL    HW280472   9.251  10.507   2.752  1.8118 -1.1825 -0.5563
24837SOL     OW80473   8.807   2.779   8.821 -0.5526 -0.2014  0.0998
24837SOL    HW180474   8.774   2.866   8.801 -0.2721 -0.0449  0.3054
24837SOL    HW280475   8.778   2.725   8.748 -3.3678 -0.6325  1.4166
24838SOL     OW80476   9.481   7.779   5.336  0.3672 -0.1770 -0.3445
24838SOL    HW180477   9.456   7.687   5.344  0.9404 -0.3180 -0.0870
24838SOL    HW280478   9.404   7.827   5.364  0.3868 -0.5974  0.4827
24839SOL     OW80479   7.895   4.988   5.563  0.4552 -0.0537 -0.4859
24839SOL    HW180480   7.854   4.965   5.480 -0.8125  0.6466 -0.0775
24839SOL    HW280481   7.939   5.071   5.546 -1.1514  0.9227 -0.0815
24840SOL     OW80482   5.263   6.648   1.927  0.5797 -0.0629  0.6979
24840SOL    HW180483   5.359   6.657   1.927  0.9553 -2.7394 -1.6681
24840SOL    HW280484   5.247   6.563   1.967 -0.5726 -0.8604 -1.3433
24841SOL     OW80485  11.075   7.594  10.122 -0.3384 -0.1716  0.0411
24841SOL    HW180486  11.075   7.578  10.217 -1.5867 -3.7751 -0.4300
24841SOL    HW280487  11.034   7.680  10.113 -1.4889 -0.3250  2.7182
24842SOL     OW80488   9.689  10.716  12.313 -0.3083  0.0556  0.3555
24842SOL    HW180489   9.629  10.671  12.373 -0.4242 -0.4406 -0.1293
24842SOL    HW280490   9.717  10.648  12.251 -1.1543  0.8268 -0.9150
24843SOL     OW80491   2.262   6.488   6.070  0.3732  0.0499  0.1332
24843SOL    HW180492   2.326   6.467   6.003 -1.0357  0.8868 -1.5461
24843SOL    HW280493   2.312   6.490   6.152  2.2119 -0.5695 -0.9354
24844SOL     OW80494   6.767   0.974   8.581 -0.1621  0.0342  0.1722
24844SOL    HW180495   6.803   0.917   8.649  1.5714 -0.7686 -1.3153
24844SOL    HW280496   6.842   1.027   8.552 -0.9416  0.6536 -0.8028
24845SOL     OW80497   9.968   6.540   1.743  0.0146 -0.0104  0.2799
24845SOL    HW180498   9.892   6.493   1.779 -1.0951  1.0135 -0.6460
24845SOL    HW280499   9.954   6.631   1.768  0.7734  0.2441 -0.1957
24846SOL     OW80500   4.539  11.501   3.358  0.4137 -0.4530 -0.7425
24846SOL    HW180501   4.595  11.487   3.281  0.5729 -2.2093 -0.3451
24846SOL    HW280502   4.597  11.543   3.422  0.5832 -0.0190 -1.1676
24847SOL     OW80503   9.770  12.409   4.974  0.3440  0.3360 -0.1474
24847SOL    HW180504   9.848  12.459   4.948 -0.9835  1.9292 -1.2452
24847SOL    HW280505   9.710  12.418   4.901 -0.5675 -1.6302  0.2996
24848SOL     OW80506   7.884   8.400   2.552  0.3241 -0.3596 -0.2169
24848SOL    HW180507   7.855   8.399   2.460 -2.0158 -2.5187  0.4283
24848SOL    HW280508   7.966   8.450   2.551  0.1115  0.1323 -3.3727
24849SOL     OW80509   4.225   5.797   2.274 -0.8012  0.8467  0.1028
24849SOL    HW180510   4.244   5.705   2.296  0.2637  1.3395  1.3537
24849SOL    HW280511   4.248   5.804   2.181 -0.7362 -0.1106  0.0384
24850SOL     OW80512   5.038   1.198   7.280  0.1212 -0.0174 -0.4110
24850SOL    HW180513   5.042   1.279   7.331  0.8810 -0.1150 -0.2906
24850SOL    HW280514   4.971   1.145   7.323  1.4548 -0.5252  1.1574
24851SOL     OW80515  11.184  10.777  11.390  0.0958  0.3770 -0.8752
24851SOL    HW180516  11.184  10.782  11.486  2.1942 -1.5511 -0.6849
24851SOL    HW280517  11.153  10.863  11.362 -0.8409  0.9170  1.5185
24852SOL     OW80518   7.899   9.000   3.309  0.6159 -0.4573  0.0465
24852SOL    HW180519   7.814   8.985   3.266  1.1556 -1.1387 -0.8151
24852SOL    HW280520   7.919   9.092   3.290  0.0403 -0.2638  0.3303
24853SOL     OW80521   6.396  12.138   7.653 -0.0878  0.1475  0.1238
24853SOL    HW180522   6.374  12.126   7.746 -2.3890 -0.6806 -0.4782
24853SOL    HW280523   6.332  12.085   7.606  2.8271 -1.8925 -1.9054
24854SOL     OW80524   7.220  10.546   5.073 -0.0193 -0.2154  0.4452
24854SOL    HW180525   7.313  10.549   5.053  0.1476  1.4672  1.2509
24854SOL    HW280526   7.178  10.521   4.991  1.1009 -0.4997 -0.0585
24855SOL     OW80527   7.280   6.821   4.968  0.7340  0.5030  0.1371
24855SOL    HW180528   7.235   6.742   4.998  1.3454 -0.4128 -1.2192
24855SOL    HW280529   7.322   6.857   5.047  0.6806 -0.6958  0.7289
24856SOL     OW80530   2.754   5.536   4.418  0.6626  0.1805 -0.2619
24856SOL    HW180531   2.785   5.571   4.334  0.8532 -0.8159 -0.6264
24856SOL    HW280532   2.834   5.507   4.462  0.3856 -1.2488 -0.6601
24857SOL     OW80533   0.194   7.496  10.957  0.0565  0.9600  0.0357
24857SOL    HW180534   0.234   7.572  11.000  2.2373  0.4948 -1.0662
24857SOL    HW280535   0.236   7.421  10.998  2.3557  0.5017 -2.9061
24858SOL     OW80536  11.748   8.332   1.847  0.4344  0.0053 -0.2203
24858SOL    HW180537  11.703   8.403   1.802 -1.9982 -1.3558 -0.1269
24858SOL    HW280538  11.773   8.271   1.777  0.7255  0.0080 -0.1208
24859SOL     OW80539   1.873   7.255   1.869 -0.0880 -0.1123 -0.2907
24859SOL    HW180540   1.962   7.238   1.899  0.4848  0.2891 -1.7133
24859SOL    HW280541   1.881   7.267   1.775 -1.8175 -1.1813 -0.6042
24860SOL     OW80542   2.970   1.901   0.618 -0.1664 -0.2259 -0.0069
24860SOL    HW180543   2.979   1.907   0.523 -0.8994 -4.4601 -0.5510
24860SOL    HW280544   3.020   1.822   0.642 -0.5751  0.3153  3.0338
24861SOL     OW80545  10.722   2.395   6.609 -0.6907 -0.9019 -0.2720
24861SOL    HW180546  10.663   2.431   6.542 -0.4651  1.1242  0.5366
24861SOL    HW280547  10.663   2.362   6.677 -0.9123 -0.3983 -0.2137
24862SOL     OW80548   3.434  12.051  11.800  0.9936 -0.1769  0.0751
24862SOL    HW180549   3.390  12.081  11.721  0.5668  0.6550  0.6237
24862SOL    HW280550   3.456  11.959  11.781 -0.7459 -0.5549 -0.3066
24863SOL     OW80551   6.412   1.822   2.087 -0.4471  0.1849  0.0895
24863SOL    HW180552   6.460   1.874   2.022  2.1912 -1.6155  0.3961
24863SOL    HW280553   6.347   1.882   2.123 -0.2603  2.0206 -2.3249
24864SOL     OW80554  12.160   2.169   4.569 -0.0068  0.3672 -0.1951
24864SOL    HW180555  12.221   2.136   4.504 -2.4566 -0.4948 -2.2296
24864SOL    HW280556  12.108   2.093   4.595  1.8180  0.2724  4.1565
24865SOL     OW80557   2.210   2.344   1.825 -0.6383  0.3204  0.2242
24865SOL    HW180558   2.270   2.271   1.808 -0.9372  0.1166  0.0504
24865SOL    HW280559   2.267   2.413   1.860 -0.2383  0.2585 -0.2872
24866SOL     OW80560   5.385   9.772  10.582  0.0936 -0.4136 -0.3724
24866SOL    HW180561   5.395   9.776  10.487  2.8594 -0.7013 -0.1610
24866SOL    HW280562   5.434   9.694  10.609 -3.5045 -2.4156  1.0436
24867SOL     OW80563   3.516  12.407  10.308 -0.4577  0.0055 -0.6770
24867SOL    HW180564   3.425  12.437  10.304 -0.4579  0.8847  2.7405
24867SOL    HW280565   3.509  12.316  10.340 -0.1996  0.8332  1.9803
24868SOL     OW80566   5.207   9.630   6.928  0.1845  0.0360  0.5268
24868SOL    HW180567   5.180   9.722   6.923  1.5854  0.4747  0.5900
24868SOL    HW280568   5.126   9.581   6.918 -0.9035  1.2906  2.5225
24869SOL     OW80569   6.325  10.551  11.896 -0.2382 -0.2738  0.7317
24869SOL    HW180570   6.288  10.625  11.945 -0.6434  0.4670 -0.6291
24869SOL    HW280571   6.271  10.476  11.921 -0.8882  0.2340  0.8873
24870SOL     OW80572   2.469   9.057   0.356  0.0449  0.0570 -0.3503
24870SOL    HW180573   2.467   9.123   0.425  1.3148  2.9614 -2.9199
24870SOL    HW280574   2.552   9.011   0.369  0.2237  0.4983  0.1122
24871SOL     OW80575  10.541   4.086  12.163 -0.1689 -0.2171 -0.1562
24871SOL    HW180576  10.557   4.136  12.243 -0.3287 -0.5901  0.1109
24871SOL    HW280577  10.447   4.071  12.162 -0.1117 -0.5995 -0.1777
24872SOL     OW80578   5.031   9.575   6.349  0.0395  0.9279 -0.4360
24872SOL    HW180579   5.043   9.582   6.255  0.9749  2.0932 -0.2562
24872SOL    HW280580   4.949   9.528   6.360  0.2224  0.2671 -1.8221
24873SOL     OW80581   2.904   4.204  11.476  0.3635 -0.4736 -0.1796
24873SOL    HW180582   2.989   4.181  11.514  0.2684  0.4468  0.6499
24873SOL    HW280583   2.925   4.245  11.393  0.6987 -0.7142 -0.2174
24874SOL     OW80584   3.743   5.620   8.438  0.6241  0.0176 -0.6095
24874SOL    HW180585   3.824   5.570   8.425  0.9779  0.7326 -1.2143
24874SOL    HW280586   3.727   5.616   8.533  1.2641 -0.2849 -0.5093
24875SOL     OW80587   4.442   2.431   3.829  0.4082  0.1457 -0.1576
24875SOL    HW180588   4.471   2.376   3.902  0.1501 -1.7650 -1.4273
24875SOL    HW280589   4.373   2.486   3.866  0.4159 -0.6411  1.0831
24876SOL     OW80590   7.945   9.503   0.942  0.4424  0.0181  0.0267
24876SOL    HW180591   7.977   9.435   1.001  1.4236  0.4066 -0.0510
24876SOL    HW280592   7.980   9.585   0.977 -0.6227  0.4811  0.0496
24877SOL     OW80593   4.909   0.176   9.533  0.2087  0.0173  0.0065
24877SOL    HW180594   4.838   0.172   9.470  0.4386 -1.2408 -0.1898
24877SOL    HW280595   4.866   0.185   9.618 -0.1968 -0.8147 -0.1050
24878SOL     OW80596   9.118   5.373   5.879  0.5736 -0.4108  0.4191
24878SOL    HW180597   9.175   5.340   5.949 -0.0183  0.3129  1.2748
24878SOL    HW280598   9.179   5.410   5.815  1.1180 -0.6367  0.7961
24879SOL     OW80599   6.442   2.475   3.249  0.1651 -0.3182  0.7555
24879SOL    HW180600   6.515   2.467   3.188 -1.2105 -0.6239 -0.9317
24879SOL    HW280601   6.482   2.463   3.335  2.2195  0.3767 -0.0336
24880SOL     OW80602   4.121   1.501   9.602 -0.2277 -0.7720  0.0376
24880SOL    HW180603   4.088   1.444   9.671 -1.0688 -0.0096  0.2857
24880SOL    HW280604   4.064   1.483   9.527 -3.4020  2.6814  1.3144
24881SOL     OW80605  11.505   3.803   2.594 -0.4926 -0.3875  0.0287
24881SOL    HW180606  11.545   3.716   2.590 -0.6825 -0.5500  1.2806
24881SOL    HW280607  11.423   3.789   2.643 -0.3733  0.5387  0.5079
24882SOL     OW80608   5.675   1.906   5.188  0.2253  0.2023  0.1075
24882SOL    HW180609   5.770   1.898   5.187  0.2755  0.8491 -0.4025
24882SOL    HW280610   5.656   1.954   5.269  0.1499 -1.9037  1.4321
24883SOL     OW80611   1.520   5.304  11.118  0.6734  0.4002  0.0304
24883SOL    HW180612   1.576   5.330  11.191 -0.3032  1.5407  0.4034
24883SOL    HW280613   1.446   5.365  11.121 -0.0165 -0.3322 -1.1480
24884SOL     OW80614   9.684  12.297  10.073  0.8799  0.0683  0.2703
24884SOL    HW180615   9.775  12.274  10.094  1.4062  0.3241 -1.5697
24884SOL    HW280616   9.666  12.374  10.128  2.0670  0.5269  0.0599
24885SOL     OW80617   3.892   0.432   6.344 -0.3845  0.0959  0.5532
24885SOL    HW180618   3.872   0.404   6.255  2.5509  0.5243 -0.3328
24885SOL    HW280619   3.886   0.528   6.341  0.5017  0.1587  0.5739
24886SOL     OW80620   7.002   2.719   9.522 -0.5986  0.2043  0.5745
24886SOL    HW180621   6.923   2.773   9.514 -1.5555 -1.3084 -0.5139
24886SOL    HW280622   6.973   2.630   9.501  1.4296 -0.3582 -0.0060
24887SOL     OW80623   4.402   2.149   7.527  0.2240 -0.0642  0.1115
24887SOL    HW180624   4.468   2.152   7.458 -0.0836 -1.7201 -0.2835
24887SOL    HW280625   4.357   2.233   7.520  0.3531 -0.1035 -1.5462
24888SOL     OW80626  11.203  10.157   8.300  1.0000 -0.6304  0.0904
24888SOL    HW180627  11.199  10.139   8.394 -0.1529  0.6507  0.3162
24888SOL    HW280628  11.133  10.104   8.262 -1.0373  1.5912  0.4936
24889SOL     OW80629  10.581   6.256   6.104  0.2713 -0.5343  0.5248
24889SOL    HW180630  10.533   6.178   6.130 -1.9157  0.9923  1.2628
24889SOL    HW280631  10.650   6.264   6.170 -0.0243 -1.3294  0.9501
24890SOL     OW80632   2.034   6.810   0.003 -0.0821  0.0403  0.2139
24890SOL    HW180633   2.116   6.822   0.051 -0.8153 -0.7453  1.7340
24890SOL    HW280634   2.028   6.888  -0.053  2.4105 -0.6135 -1.0839
24891SOL     OW80635   2.698   9.597  10.570  0.9156  0.1923  0.1091
24891SOL    HW180636   2.765   9.537  10.604  0.5596  0.4699  1.3256
24891SOL    HW280637   2.622   9.542  10.554  0.7071  0.2454  0.8833
24892SOL     OW80638   7.199  12.006   8.986 -0.6136 -0.6639 -0.0249
24892SOL    HW180639   7.254  11.960   8.923 -0.7313 -0.3240 -0.3772
24892SOL    HW280640   7.243  11.993   9.070 -0.8707 -1.7640 -0.0530
24893SOL     OW80641   3.079   4.780   4.202  0.2547 -0.3429  0.4659
24893SOL    HW180642   3.173   4.797   4.210  0.1242  0.2967  0.6320
24893SOL    HW280643   3.037   4.862   4.225 -0.3624 -0.7165  0.7000
24894SOL     OW80644   4.399   8.798   7.782 -0.2739 -0.2647 -0.1794
24894SOL    HW180645   4.337   8.862   7.745  0.4634  0.5222 -0.0910
24894SOL    HW280646   4.483   8.843   7.780  0.4957 -1.6926 -1.2371
24895SOL     OW80647   8.346   8.651   1.505 -0.4320  0.2484  0.1414
24895SOL    HW180648   8.348   8.745   1.485 -0.5212 -0.1211 -1.8306
24895SOL    HW280649   8.270   8.640   1.562  0.9746  1.6810  2.4474
24896SOL     OW80650   4.354  10.273   3.936  0.0578 -0.5119 -0.2111
24896SOL    HW180651   4.412  10.197   3.946  1.3903  0.3226 -1.1648
24896SOL    HW280652   4.414  10.347   3.931 -1.1963  0.5628  0.2664
24897SOL     OW80653  10.184   1.122   2.883  0.3143 -0.3953  0.2122
24897SOL    HW180654  10.200   1.041   2.836 -2.5709 -1.1965  0.4328
24897SOL    HW280655  10.159   1.094   2.971 -0.6553  0.7338  0.3112
24898SOL     OW80656   9.348   0.605  10.338  0.0937  0.2632  0.5830
24898SOL    HW180657   9.433   0.568  10.359 -0.4162 -0.5927  1.2048
24898SOL    HW280658   9.363   0.700  10.330  1.3372 -0.0112 -0.6132
24899SOL     OW80659  11.268   8.184   6.634  0.0393  0.1889  0.3253
24899SOL    HW180660  11.334   8.208   6.568 -0.9921 -0.3640 -0.9645
24899SOL    HW280661  11.245   8.094   6.613 -1.3767  0.4834  0.5064
24900SOL     OW80662  12.142  10.261   7.695 -0.5492 -0.0907  0.6981
24900SOL    HW180663  12.087  10.211   7.636  0.5014 -0.7163  0.2232
24900SOL    HW280664  12.187  10.325   7.639 -0.2285 -0.0825  0.9591
24901SOL     OW80665   5.907   6.497   9.755  0.3139 -0.0830 -0.0279
24901SOL    HW180666   5.894   6.406   9.726 -0.1053 -0.3378  0.9044
24901SOL    HW280667   5.937   6.489   9.845  3.4746  0.6330 -0.9148
24902SOL     OW80668   5.766   8.769  11.423  0.0265  0.1338 -0.1632
24902SOL    HW180669   5.698   8.805  11.479  0.3753  0.4121  0.0785
24902SOL    HW280670   5.844   8.767  11.477  0.2013 -0.2410 -0.4219
24903SOL     OW80671  12.308   4.062   9.165 -0.3442 -0.0605  0.6256
24903SOL    HW180672  12.250   4.108   9.225  1.0476  0.0198  1.9895
24903SOL    HW280673  12.250   4.007   9.112 -1.7943  1.3181  0.7040
24904SOL     OW80674   2.011   9.518   7.844 -0.5123 -0.3286  0.1256
24904SOL    HW180675   1.934   9.565   7.813 -0.7242 -0.8676 -0.1811
24904SOL    HW280676   2.081   9.543   7.784 -0.8065 -0.9952 -0.5072
24905SOL     OW80677   1.227  11.786   0.746 -0.2009 -0.4808  0.0031
24905SOL    HW180678   1.185  11.724   0.805  0.5013 -0.8425  0.1274
24905SOL    HW280679   1.174  11.865   0.754  0.2273 -0.3129  1.5847
24906SOL     OW80680   6.603   3.442  11.129  0.0287  0.7054 -0.4098
24906SOL    HW180681   6.579   3.531  11.101  1.6402  1.9032  1.6773
24906SOL    HW280682   6.698   3.445  11.140 -0.1682 -0.2274  2.7204
24907SOL     OW80683   5.187   7.481   8.398 -0.8980 -0.1901  0.5391
24907SOL    HW180684   5.182   7.569   8.359  2.9851 -0.4423 -0.9288
24907SOL    HW280685   5.177   7.421   8.324 -1.2088 -0.9301  1.1724
24908SOL     OW80686   5.262   7.967  12.035  0.4516 -0.1752 -0.6754
24908SOL    HW180687   5.183   7.961  12.089 -0.0720 -3.2556 -1.5585
24908SOL    HW280688   5.229   7.987  11.947  0.8313  0.2035 -0.7333
24909SOL     OW80689   7.079   0.211   9.623  0.8278 -0.3737 -0.0127
24909SOL    HW180690   7.166   0.173   9.612  0.6807 -0.5079 -0.7288
24909SOL    HW280691   7.085   0.297   9.582  0.6118 -0.3982 -0.0959
24910SOL     OW80692   7.839   3.122   6.822 -0.6407  0.2386  0.4968
24910SOL    HW180693   7.753   3.119   6.864 -0.2653 -0.0253  1.2703
24910SOL    HW280694   7.820   3.108   6.729 -1.3057 -1.5380  0.8479
24911SOL     OW80695   0.140   3.366   3.421 -0.1035 -0.2796 -0.4321
24911SOL    HW180696   0.141   3.335   3.331  0.3539 -2.0000  0.1234
24911SOL    HW280697   0.212   3.319   3.464 -0.5894  0.1605  0.9244
24912SOL     OW80698   6.678   2.501   8.345 -0.1950  0.2574  0.0471
24912SOL    HW180699   6.666   2.512   8.251 -2.4084  3.4605  0.5417
24912SOL    HW280700   6.610   2.439   8.371 -0.1722  0.0693 -0.3431
24913SOL     OW80701   4.524  10.582   1.196 -0.0088 -0.3234  0.0376
24913SOL    HW180702   4.499  10.656   1.141  1.3700  0.0123 -0.1851
24913SOL    HW280703   4.462  10.513   1.174 -2.0703  1.1024  1.1028
24914SOL     OW80704   1.117   9.363   4.282  0.2259  0.5165 -0.3534
24914SOL    HW180705   1.094   9.277   4.246  1.0478  0.9319 -1.9242
24914SOL    HW280706   1.161   9.342   4.365  1.9508 -0.7367 -1.4958
24915SOL     OW80707  10.835   9.757   5.221 -0.3173 -0.5325  0.0733
24915SOL    HW180708  10.917   9.781   5.265 -0.7464 -0.1249  0.6708
24915SOL    HW280709  10.859   9.747   5.129  0.1687  0.8026  0.0361
24916SOL     OW80710   9.445   2.427   3.379 -0.4595  0.5562  0.0717
24916SOL    HW180711   9.537   2.409   3.358 -0.8275 -0.8836 -0.4760
24916SOL    HW280712   9.430   2.381   3.461 -0.7077  0.7234  0.1192
24917SOL     OW80713   9.201   8.233   3.430  0.7715  0.0104  0.0074
24917SOL    HW180714   9.169   8.295   3.495 -0.9611 -0.8577  0.0289
24917SOL    HW280715   9.267   8.282   3.381  0.3160  1.4777  0.7924
24918SOL     OW80716   5.408   2.006   6.820 -0.0077  0.5223  0.2523
24918SOL    HW180717   5.424   2.067   6.892  0.8698  2.7386 -1.6788
24918SOL    HW280718   5.321   2.029   6.788  0.2468  0.6453 -0.3647
24919SOL     OW80719  10.187  10.453   7.351  0.2848 -0.6860 -0.2569
24919SOL    HW180720  10.185  10.480   7.259  1.7987 -1.8144 -0.6735
24919SOL    HW280721  10.258  10.505   7.389  0.0951 -0.6888  0.1031
24920SOL     OW80722   5.188  10.568   3.351 -0.4921  0.1980 -0.3815
24920SOL    HW180723   5.202  10.539   3.261  1.6795  0.7680 -0.2927
24920SOL    HW280724   5.108  10.524   3.379 -1.2313  0.0381 -2.5879
24921SOL     OW80725  10.441  11.521  10.303 -0.2665  0.2072  0.1149
24921SOL    HW180726  10.460  11.579  10.377  0.0950  1.1423 -0.6845
24921SOL    HW280727  10.497  11.446  10.316  0.6474  0.8896  0.1989
24922SOL     OW80728  11.393   8.813   5.938  0.7465  0.1590  0.2583
24922SOL    HW180729  11.404   8.837   5.846  0.2078 -0.7623 -0.0622
24922SOL    HW280730  11.307   8.847   5.963 -1.5791 -3.9401 -1.1462
24923SOL     OW80731   8.700   8.658   6.115 -0.1728  0.0701  0.3950
24923SOL    HW180732   8.735   8.582   6.068  2.1472  0.7660  0.8682
24923SOL    HW280733   8.695   8.630   6.206  0.4366  0.3787  0.5294
24924SOL     OW80734   6.480   8.193   3.315  0.2216  0.1611 -0.2174
24924SOL    HW180735   6.540   8.202   3.390  0.8586  3.5430 -0.9560
24924SOL    HW280736   6.536   8.168   3.242  0.0855 -0.2962 -0.1685
24925SOL     OW80737   5.958  10.099   1.646  0.1528  0.6036  0.1329
24925SOL    HW180738   5.939  10.021   1.697  1.0551  1.0170  1.1220
24925SOL    HW280739   5.956  10.069   1.555 -1.0594 -0.2235  0.4055
24926SOL     OW80740  11.880   5.207   1.817 -0.0657  0.3549 -0.1636
24926SOL    HW180741  11.828   5.237   1.892 -0.9189  0.5130 -0.7997
24926SOL    HW280742  11.934   5.282   1.793 -0.1062  0.4452  0.0216
24927SOL     OW80743   5.464   2.439   5.073 -0.2691  0.0801  0.3467
24927SOL    HW180744   5.375   2.473   5.065  0.5491  1.9709 -1.5101
24927SOL    HW280745   5.474   2.380   4.998 -0.0259 -0.3034  0.6755
24928SOL     OW80746  10.085   6.447   1.277  0.5820  0.0571  0.1832
24928SOL    HW180747  10.030   6.389   1.224 -0.2373  1.0019 -0.0436
24928SOL    HW280748  10.060   6.429   1.367  2.6440 -2.2342  0.4038
24929SOL     OW80749  11.609   8.594   3.741  0.0481  0.4393  0.3737
24929SOL    HW180750  11.672   8.522   3.736 -0.8244 -0.4719  1.9471
24929SOL    HW280751  11.607   8.629   3.652  0.8760 -1.1425 -0.3173
24930SOL     OW80752   2.351  10.776   5.138 -0.0609  0.0990  0.0326
24930SOL    HW180753   2.329  10.691   5.177 -0.4868 -0.1690 -0.7628
24930SOL    HW280754   2.446  10.772   5.124  0.2140  0.4605  1.6108
24931SOL     OW80755   4.624  10.043  12.470  0.0261 -0.7355  0.2790
24931SOL    HW180756   4.650   9.961  12.427 -2.6062  0.1427 -3.5279
24931SOL    HW280757   4.545  10.020  12.518  0.5587 -0.8227  1.1377
24932SOL     OW80758   2.380   5.914   6.243 -0.3386  0.2932  0.1231
24932SOL    HW180759   2.307   5.969   6.272  0.2520  0.6767  0.9231
24932SOL    HW280760   2.356   5.826   6.272 -0.1579  0.5359  1.0591
24933SOL     OW80761   7.774   7.592  12.422  0.3739 -0.1608 -0.1740
24933SOL    HW180762   7.851   7.549  12.386  1.1199 -0.9108  2.1101
24933SOL    HW280763   7.775   7.679  12.383  2.2599 -0.2402 -0.4216
24934SOL     OW80764   8.957   0.387   1.176 -0.5213 -0.0786  0.4363
24934SOL    HW180765   8.982   0.480   1.178 -0.8966  0.0262  0.2707
24934SOL    HW280766   8.864   0.388   1.154 -0.6570 -0.4739  0.9761
24935SOL     OW80767   3.928   6.173   4.616 -0.3334  0.0882 -0.2077
24935SOL    HW180768   3.941   6.157   4.522  1.2764 -3.2024  0.3930
24935SOL    HW280769   4.007   6.220   4.642  0.2669 -0.8758 -0.2086
24936SOL     OW80770   5.966   5.496   4.561  0.1862 -0.4420 -0.2301
24936SOL    HW180771   6.061   5.504   4.550  0.0761 -0.7260 -1.5492
24936SOL    HW280772   5.937   5.585   4.584  0.8984 -0.6123  1.4327
24937SOL     OW80773   9.889   6.360   3.716 -0.2430 -0.7678 -0.1360
24937SOL    HW180774   9.950   6.369   3.643 -0.2970 -0.0344 -0.1013
24937SOL    HW280775   9.892   6.267   3.739  1.6014 -0.5947  0.5145
24938SOL     OW80776   6.191   1.660   7.559 -0.1751  0.7978 -0.3929
24938SOL    HW180777   6.213   1.662   7.466  0.8772  1.6964 -0.1455
24938SOL    HW280778   6.251   1.596   7.597 -0.9134  0.0868 -0.3846
24939SOL     OW80779   6.791   5.174   0.414  0.7001  0.0336  0.0350
24939SOL    HW180780   6.806   5.217   0.330 -0.6797  0.2512 -0.1129
24939SOL    HW280781   6.832   5.233   0.478 -0.1674  0.9936 -0.2805
24940SOL     OW80782   6.083   0.532   3.734  0.0130 -0.1175 -0.5552
24940SOL    HW180783   6.011   0.578   3.691  0.1736 -0.0376 -0.7363
24940SOL    HW280784   6.159   0.589   3.723  0.3064 -0.6120 -1.1434
24941SOL     OW80785   0.912   0.954   7.247 -0.3804 -0.5870  0.6131
24941SOL    HW180786   0.986   0.900   7.219 -0.5684 -0.7462  0.4155
24941SOL    HW280787   0.934   1.042   7.215  0.2258 -0.4085  1.4911
24942SOL     OW80788   1.961   2.326   3.020  0.1976  0.1847 -0.3183
24942SOL    HW180789   1.977   2.421   3.016  1.5170  0.0554  0.8244
24942SOL    HW280790   1.961   2.298   2.929 -0.7976  1.3684 -0.7090
24943SOL     OW80791  11.043   3.074   2.071 -0.0306  0.1539 -0.5185
24943SOL    HW180792  11.088   3.133   2.010  0.4293 -0.7025 -1.0134
24943SOL    HW280793  11.013   3.001   2.017 -0.1935 -0.2977  0.1720
24944SOL     OW80794   6.331  11.985  12.213  0.2388 -0.3636 -0.6013
24944SOL    HW180795   6.399  11.982  12.145 -0.2256  1.2708 -1.1869
24944SOL    HW280796   6.282  12.065  12.194  0.4180  0.4662  1.9729
24945SOL     OW80797   5.401   9.003   1.275 -0.0895  1.3229  0.2916
24945SOL    HW180798   5.495   8.987   1.260  0.0979  1.6483  1.0639
24945SOL    HW280799   5.367   8.918   1.304  0.1999  1.4669  1.0801
24946SOL     OW80800   4.295   8.374   6.279 -0.2515  0.0790 -0.6763
24946SOL    HW180801   4.328   8.348   6.365  0.8830 -1.1380 -1.4523
24946SOL    HW280802   4.337   8.459   6.262 -0.4225  0.2894 -0.0792
24947SOL     OW80803   2.448   9.907   5.204 -0.5398  0.0296 -0.5922
24947SOL    HW180804   2.428   9.842   5.271  0.3650  1.5664  1.2383
24947SOL    HW280805   2.388   9.979   5.222  1.6993  1.7165  0.5142
24948SOL     OW80806   2.546   7.080   8.066  0.2442 -0.3964  0.3089
24948SOL    HW180807   2.495   7.078   7.985 -1.9095  1.4118  1.5165
24948SOL    HW280808   2.637   7.087   8.036 -0.3371 -1.4017 -1.9276
24949SOL     OW80809   7.361   8.761   6.675 -0.3047  0.7210  0.6742
24949SOL    HW180810   7.311   8.689   6.715  1.7158 -0.2505  1.6095
24949SOL    HW280811   7.369   8.826   6.745  0.3490  0.5264  0.7910
24950SOL     OW80812   3.255   2.867   1.970 -0.0366 -0.5171 -0.6444
24950SOL    HW180813   3.216   2.876   2.057  1.3984 -1.1451  0.0965
24950SOL    HW280814   3.253   2.773   1.953 -1.3377 -0.3089 -1.8125
24951SOL     OW80815   2.831   4.393   1.708 -0.6031  0.1046  0.2495
24951SOL    HW180816   2.894   4.371   1.639 -0.5435 -0.4826  0.4833
24951SOL    HW280817   2.783   4.468   1.674 -0.8850 -0.4613 -0.6296
24952SOL     OW80818   0.267   2.060   4.690 -0.3732 -0.3574  0.3364
24952SOL    HW180819   0.342   2.063   4.748  0.2745  1.7104 -0.5128
24952SOL    HW280820   0.221   2.143   4.705 -1.6466 -0.9130 -0.2634
24953SOL     OW80821   0.669   4.314   9.061 -0.1508  0.2617 -0.2295
24953SOL    HW180822   0.723   4.282   8.988 -1.0643 -1.5041 -0.1880
24953SOL    HW280823   0.723   4.298   9.138  1.2373  3.0484 -0.4945
24954SOL     OW80824   5.094   3.384  12.146 -0.0661  0.3986  0.1271
24954SOL    HW180825   5.127   3.465  12.108  1.4424 -1.0109 -1.7689
24954SOL    HW280826   5.173   3.332  12.163 -1.0322 -1.0347  0.3942
24955SOL     OW80827   1.055  11.158   4.814  0.4703 -0.8027 -0.0849
24955SOL    HW180828   1.093  11.229   4.865 -1.4941  0.8148 -0.7444
24955SOL    HW280829   1.035  11.090   4.878  1.0914 -0.1853  0.7853
24956SOL     OW80830  11.635   4.691   2.758 -0.1253 -0.6120  0.0704
24956SOL    HW180831  11.692   4.761   2.791 -1.7910  1.0994 -0.5074
24956SOL    HW280832  11.693   4.615   2.750  1.3639  0.1567  2.4480
24957SOL     OW80833   6.891   3.664  11.584 -0.2475  0.4169 -0.2410
24957SOL    HW180834   6.804   3.625  11.572 -0.0338 -0.6986  1.4886
24957SOL    HW280835   6.947   3.618  11.521 -0.4590 -0.4759  0.2167
24958SOL     OW80836  12.175   4.002   8.067  0.1321  0.1483  0.2537
24958SOL    HW180837  12.227   4.074   8.101  1.2348 -0.7187  0.4556
24958SOL    HW280838  12.135   3.962   8.145 -2.0616  1.6836 -0.0117
24959SOL     OW80839   9.735   8.225   4.303 -0.0482 -0.1157  0.0793
24959SOL    HW180840   9.702   8.315   4.304  0.9966  0.2898 -0.0414
24959SOL    HW280841   9.830   8.235   4.308  0.0426 -1.2500  1.0766
24960SOL     OW80842   8.481   8.950  10.265  0.4132  0.0726 -0.7889
24960SOL    HW180843   8.406   8.994  10.304  0.3602 -0.0478 -0.7548
24960SOL    HW280844   8.444   8.876  10.216  0.5617 -0.3963 -0.2038
24961SOL     OW80845   9.575   5.224   1.342 -0.3078  0.4633 -0.2263
24961SOL    HW180846   9.646   5.225   1.278  0.5958  1.4017  0.7556
24961SOL    HW280847   9.612   5.266   1.419 -1.3084 -0.8189  1.0014
24962SOL     OW80848   5.420  10.743   1.509  0.2801  0.3223  0.2000
24962SOL    HW180849   5.471  10.676   1.464  1.3871  1.1936  0.1213
24962SOL    HW280850   5.398  10.703   1.593 -0.6117 -0.7911 -0.5382
24963SOL     OW80851   3.842   2.287  11.300  0.2447 -0.1540  0.6844
24963SOL    HW180852   3.783   2.349  11.256 -0.4578 -1.3589 -0.1146
24963SOL    HW280853   3.928   2.306  11.264  0.3893  1.5588  1.7814
24964SOL     OW80854   9.333   2.221  10.641  0.3061  0.1004 -0.7131
24964SOL    HW180855   9.396   2.170  10.590  3.2411  0.1904  2.4889
24964SOL    HW280856   9.385   2.291  10.681 -2.1665  1.2025  0.7933
24965SOL     OW80857   0.226  12.351  10.574 -0.0172  0.2825  0.3321
24965SOL    HW180858   0.205  12.372  10.483 -0.2192 -0.9328  0.0763
24965SOL    HW280859   0.262  12.263  10.571 -0.3858  0.0690  1.4731
24966SOL     OW80860  11.503   0.465   6.599  0.2761  0.3516 -0.0093
24966SOL    HW180861  11.516   0.440   6.690 -1.3496 -1.7044 -0.2550
24966SOL    HW280862  11.544   0.551   6.591  0.7930  0.4126  2.5397
24967SOL     OW80863   7.673   9.132   4.733  0.0503 -0.0738 -0.0408
24967SOL    HW180864   7.700   9.223   4.738 -1.5974  0.4757 -0.5712
24967SOL    HW280865   7.596   9.132   4.676 -0.4266 -1.6884  0.5268
24968SOL     OW80866   1.401   3.358   3.037  0.4051 -0.0074 -0.7621
24968SOL    HW180867   1.390   3.274   3.083  1.9031  0.3810  0.4292
24968SOL    HW280868   1.313   3.393   3.028 -0.4707 -2.4426 -2.8119
24969SOL     OW80869   1.181   9.815   1.178  0.3321  0.1230  0.3654
24969SOL    HW180870   1.174   9.721   1.160 -0.9152  0.3409 -0.3858
24969SOL    HW280871   1.185   9.820   1.274  1.3363 -0.7295  0.3885
24970SOL     OW80872   3.565  11.471  12.029 -0.1261 -0.6150  0.0020
24970SOL    HW180873   3.514  11.450  11.951 -1.4104  0.6137  0.4755
24970SOL    HW280874   3.618  11.547  12.003  0.2067 -0.8434  0.0159
24971SOL     OW80875   4.074   6.476   0.101 -0.2097  0.3140  0.4046
24971SOL    HW180876   4.066   6.543   0.033 -1.9002 -0.3805 -0.1322
24971SOL    HW280877   4.126   6.518   0.170 -0.8440  2.0305 -0.0988
24972SOL     OW80878   0.380  10.379  12.078  0.2082 -0.4428  0.5861
24972SOL    HW180879   0.377  10.320  12.153  0.2700  0.4153  1.2794
24972SOL    HW280880   0.288  10.388  12.052  0.2509 -1.3010  0.0949
24973SOL     OW80881   7.775   1.785  10.858  0.0821 -0.2954 -0.2509
24973SOL    HW180882   7.730   1.867  10.877 -1.1329 -0.9748 -0.0895
24973SOL    HW280883   7.865   1.811  10.838 -0.0565  0.9766  0.6784
24974SOL     OW80884   3.402  10.845   8.980 -0.2645 -0.3012 -0.1161
24974SOL    HW180885   3.486  10.870   9.020  0.3041 -1.6628 -0.3788
24974SOL    HW280886   3.346  10.822   9.054 -0.1806 -0.0187  0.0346
24975SOL     OW80887   0.806   2.389   5.849 -0.1646 -0.2150  0.1107
24975SOL    HW180888   0.755   2.442   5.910 -0.5066 -1.1249  0.6452
24975SOL    HW280889   0.813   2.443   5.770 -0.9054  0.4224  0.4675
24976SOL     OW80890  10.144   4.064   2.047 -0.3199 -0.8313  0.4977
24976SOL    HW180891  10.070   4.056   1.987  0.2373 -0.4203 -0.2616
24976SOL    HW280892  10.121   4.137   2.105  0.0694  0.1801 -0.5981
24977SOL     OW80893   2.651   7.420  11.973  0.0462 -0.0192  0.1476
24977SOL    HW180894   2.691   7.401  11.889 -0.3227 -0.5584  0.0899
24977SOL    HW280895   2.717   7.392  12.038  0.1618  0.0158  0.0451
24978SOL     OW80896   1.286   7.062   7.659  0.0394 -0.2102 -0.3964
24978SOL    HW180897   1.347   7.104   7.720 -1.8780  1.9948  0.1651
24978SOL    HW280898   1.287   6.970   7.684  0.4130  0.3678  2.0242
24979SOL     OW80899   7.462   1.745   1.977  0.0360  0.5476  0.1664
24979SOL    HW180900   7.397   1.701   1.922  0.0314  3.5180 -2.4794
24979SOL    HW280901   7.410   1.802   2.035  0.1419 -1.1876  2.0819
24980SOL     OW80902  12.489   2.750   1.462  0.1497 -0.0765 -0.0367
24980SOL    HW180903  12.494   2.807   1.385  1.1224 -0.8371 -0.5678
24980SOL    HW280904  12.447   2.804   1.529 -0.9178  0.5271 -1.1538
24981SOL     OW80905   9.247   0.184   7.617  0.6408  0.1202 -0.2341
24981SOL    HW180906   9.300   0.217   7.690  1.1136  1.3824 -1.1242
24981SOL    HW280907   9.303   0.192   7.540 -0.4720  0.5353 -1.0374
24982SOL     OW80908   7.452   8.235   4.031  0.1400 -0.2545  0.2043
24982SOL    HW180909   7.443   8.165   3.965 -0.5909 -1.5168  1.5855
24982SOL    HW280910   7.379   8.294   4.013  0.9099  0.3322 -1.1379
24983SOL     OW80911   8.701   0.412  10.209 -0.2779  1.0349  0.0047
24983SOL    HW180912   8.655   0.469  10.147  0.0690 -1.6436 -2.9462
24983SOL    HW280913   8.633   0.354  10.244 -0.0797  0.9113  0.1935
24984SOL     OW80914   8.821   3.865  10.615  0.1186 -0.3109  0.1901
24984SOL    HW180915   8.867   3.940  10.577  1.1808 -1.0430 -0.0071
24984SOL    HW280916   8.859   3.855  10.702  0.3773 -0.9650  0.0030
24985SOL     OW80917   7.799   7.122   4.620 -0.5577 -0.0184  0.5618
24985SOL    HW180918   7.855   7.150   4.693 -1.3053  1.1333  0.7163
24985SOL    HW280919   7.860   7.099   4.550  0.1209  0.7942  0.8790
24986SOL     OW80920  10.008   4.347   5.263 -0.1767 -0.4806 -0.1948
24986SOL    HW180921  10.064   4.320   5.336  0.8242  2.4471  0.2514
24986SOL    HW280922  10.068   4.362   5.191 -0.9687 -1.6122 -1.1385
24987SOL     OW80923  11.484   2.498   0.100 -0.4120 -0.7267  0.1129
24987SOL    HW180924  11.515   2.418   0.057  3.2410  0.8630 -0.6698
24987SOL    HW280925  11.524   2.496   0.187 -1.8706 -0.6137  0.8048
24988SOL     OW80926  12.087   1.614   4.012 -0.0748  0.3707  0.3712
24988SOL    HW180927  12.113   1.540   3.957 -0.0429 -0.3900  1.3642
24988SOL    HW280928  12.001   1.640   3.979  0.2598  0.3980 -0.4871
24989SOL     OW80929   4.055   0.131  12.361  0.1513  0.2990 -0.5384
24989SOL    HW180930   4.149   0.148  12.367 -0.0235  1.2932 -0.4890
24989SOL    HW280931   4.016   0.217  12.348 -0.5510 -0.3601 -3.5392
24990SOL     OW80932   6.704   0.409   3.001 -0.1728 -0.9607  0.2030
24990SOL    HW180933   6.722   0.498   2.971  0.5687 -0.7848  1.1121
24990SOL    HW280934   6.773   0.356   2.962  0.0630 -0.9370  0.5800
24991SOL     OW80935   5.032   2.213   1.990  0.1920 -0.2443 -0.4194
24991SOL    HW180936   4.976   2.202   2.066  1.4816  1.5274  0.8755
24991SOL    HW280937   5.041   2.308   1.980  0.2018 -0.4204 -2.7046
24992SOL     OW80938   8.274  10.369  10.714 -0.1615  0.4583 -0.8610
24992SOL    HW180939   8.267  10.335  10.803  0.3606  1.0859 -0.5803
24992SOL    HW280940   8.203  10.326  10.667 -0.1085 -0.2900 -0.2754
24993SOL     OW80941   0.525   3.972  11.114  0.4099 -0.2124  0.4318
24993SOL    HW180942   0.434   3.959  11.141  0.9659 -2.2597  1.5679
24993SOL    HW280943   0.553   3.886  11.083  1.6071  0.6845 -1.1113
24994SOL     OW80944   2.185   6.321   9.261  0.0029  0.5207 -0.0195
24994SOL    HW180945   2.231   6.354   9.338  0.0495  0.6909 -0.1201
24994SOL    HW280946   2.219   6.233   9.248 -1.6513 -0.3990  1.5256
24995SOL     OW80947  10.799  12.169   9.051 -0.0184  0.1451  0.3043
24995SOL    HW180948  10.775  12.083   9.016  0.6611  0.5127 -1.1015
24995SOL    HW280949  10.894  12.166   9.059  0.0571  0.9422 -0.2276
24996SOL     OW80950   4.903   1.630   3.537  0.0740  0.2804 -0.2357
24996SOL    HW180951   4.823   1.586   3.567 -1.5782  1.4255 -2.6319
24996SOL    HW280952   4.902   1.714   3.583  2.9797 -1.6238  3.9705
24997SOL     OW80953   5.867   3.887   5.029 -0.5126  0.5329 -0.0513
24997SOL    HW180954   5.808   3.815   5.051 -1.0760  0.8275 -0.5583
24997SOL    HW280955   5.880   3.880   4.935 -1.1048  1.4675 -0.2203
24998SOL     OW80956   3.891  10.487   9.512 -0.0026 -0.3918 -0.3647
24998SOL    HW180957   3.839  10.424   9.462  0.5511 -2.0004  0.9836
24998SOL    HW280958   3.934  10.434   9.579 -1.0322  1.6754  2.0882
24999SOL     OW80959   4.234   8.431  11.347  0.0093 -0.1699  0.0141
24999SOL    HW180960   4.168   8.471  11.404  0.4165 -0.3019  0.5854
24999SOL    HW280961   4.318   8.459  11.383  0.3001  1.8702 -2.0542
25000SOL     OW80962   9.445   1.443   3.580  0.2210 -0.3007 -0.0665
25000SOL    HW180963   9.426   1.518   3.637  3.1870  0.2757  0.3425
25000SOL    HW280964   9.443   1.479   3.491 -2.3378 -0.7380 -0.2687
25001SOL     OW80965   9.124  11.779   9.577 -0.4360 -0.3836 -0.0330
25001SOL    HW180966   9.163  11.866   9.572 -0.0488 -0.5559 -0.0579
25001SOL    HW280967   9.125  11.757   9.670  1.5538 -1.2819 -0.2156
25002SOL     OW80968  11.225   5.538   0.299 -0.3784 -0.0277 -0.6931
25002SOL    HW180969  11.190   5.625   0.319 -1.1719 -0.3784 -0.4911
25002SOL    HW280970  11.175   5.510   0.222  0.1715 -0.1365 -1.0121
25003SOL     OW80971   0.773   6.373  10.951 -0.3887  0.0641  0.3643
25003SOL    HW180972   0.710   6.441  10.929 -0.4915 -0.7959 -2.4324
25003SOL    HW280973   0.847   6.420  10.989 -0.2908  1.8618 -1.8540
25004SOL     OW80974  10.756   7.756   3.873 -0.4462  0.3292 -0.1976
25004SOL    HW180975  10.774   7.840   3.917 -0.0184 -0.2262  0.7139
25004SOL    HW280976  10.822   7.696   3.908 -2.3172 -1.0624  1.1122
25005SOL     OW80977   7.828   3.044   9.685 -0.4831 -0.3224  0.0309
25005SOL    HW180978   7.763   2.980   9.656  0.6835 -2.2462  1.4338
25005SOL    HW280979   7.849   3.018   9.774  1.6907  0.6515 -0.1376
25006SOL     OW80980   2.903   9.489   0.599 -0.3135  0.6653 -0.4639
25006SOL    HW180981   2.988   9.450   0.620  0.0134  0.5142 -1.9637
25006SOL    HW280982   2.874   9.529   0.681  0.3688 -0.8121  0.5546
25007SOL     OW80983   4.784   7.165   9.689  0.2622  0.2881 -0.4306
25007SOL    HW180984   4.811   7.248   9.648 -2.2813  1.9737  0.9990
25007SOL    HW280985   4.807   7.176   9.781 -0.7225 -0.2693 -0.1055
25008SOL     OW80986   1.433   2.529   8.247  0.3200  0.6811  0.1984
25008SOL    HW180987   1.389   2.488   8.173  0.6418  1.5784 -0.5151
25008SOL    HW280988   1.374   2.515   8.322  0.8732 -1.9110  0.2273
25009SOL     OW80989   0.971   0.743   4.218  0.0996  0.3427 -0.3551
25009SOL    HW180990   0.999   0.666   4.169 -2.1615 -0.8247  0.0326
25009SOL    HW280991   0.983   0.719   4.310  0.7843  1.0558 -0.2485
25010SOL     OW80992   1.618   3.620   3.945  0.0364 -0.0892  0.0693
25010SOL    HW180993   1.668   3.554   3.993 -0.3655 -0.9933 -0.7125
25010SOL    HW280994   1.685   3.676   3.904  0.3799  0.1363  0.9199
25011SOL     OW80995  11.064   5.813   5.350 -0.2964  0.3442 -0.2033
25011SOL    HW180996  11.035   5.798   5.440  1.8126 -0.5503  0.3822
25011SOL    HW280997  11.103   5.900   5.351 -0.4118  0.3961 -0.2780
25012SOL     OW80998   2.267   0.750   7.076 -0.4440 -0.1972 -0.1111
25012SOL    HW180999   2.287   0.688   7.147  0.0452  0.8832  0.7158
25012SOL    HW281000   2.191   0.799   7.107  0.3762  0.9595  0.1309
25013SOL     OW81001   9.486   2.918   1.404 -0.2703 -0.4919 -0.0235
25013SOL    HW181002   9.454   2.921   1.494  0.5458  0.7542  0.2499
25013SOL    HW281003   9.581   2.904   1.412  0.1350  1.6090 -0.5777
25014SOL     OW81004  11.814  11.975  12.056 -0.0594  0.3164 -0.1536
25014SOL    HW181005  11.748  11.923  12.102 -0.7174  0.7827 -0.5636
25014SOL    HW281006  11.895  11.957  12.104 -0.1103 -1.6588 -0.7229
25015SOL     OW81007   6.538   8.372   7.854 -0.1028 -0.0277  0.1628
25015SOL    HW181008   6.535   8.280   7.878  0.6864  0.2711  1.4717
25015SOL    HW281009   6.626   8.385   7.820 -0.1466  0.2878  0.1630
25016SOL     OW81010   9.063   6.786   5.005 -0.5156 -0.3205 -0.8608
25016SOL    HW181011   9.078   6.872   4.964  0.0616 -0.3379 -0.7008
25016SOL    HW281012   9.120   6.726   4.957 -0.8602 -0.6020 -0.9229
25017SOL     OW81013   2.685   3.137   2.836 -0.1007  0.1319 -0.5211
25017SOL    HW181014   2.742   3.066   2.866  0.1322  0.1928 -0.8122
25017SOL    HW281015   2.745   3.209   2.817 -0.0359 -0.4385 -2.7330
25018SOL     OW81016   8.576  10.146   2.139  0.2868 -0.4054 -0.2034
25018SOL    HW181017   8.493  10.148   2.187  0.2058 -1.5852 -0.2662
25018SOL    HW281018   8.629  10.213   2.181  0.3904 -1.7202  1.9053
25019SOL     OW81019   0.795   7.842   5.064  0.3022 -0.1996 -0.2276
25019SOL    HW181020   0.838   7.893   5.132 -0.4031  0.8167 -0.5212
25019SOL    HW281021   0.706   7.828   5.097 -0.0029  0.1820 -0.8672
25020SOL     OW81022   8.653  11.070  12.036 -0.2972 -0.8887  0.0519
25020SOL    HW181023   8.612  11.059  11.950  1.0994  0.3716 -0.8306
25020SOL    HW281024   8.581  11.066  12.098 -1.4474 -0.9932 -1.2482
25021SOL     OW81025   8.297   0.020   2.612  0.5905  0.3858  0.0652
25021SOL    HW181026   8.299  -0.045   2.682  0.1995  0.9339  0.5981
25021SOL    HW281027   8.277  -0.030   2.533 -0.4957 -0.0389  0.5959
25022SOL     OW81028   1.516   0.551   6.218 -0.3580  0.1164 -0.7841
25022SOL    HW181029   1.450   0.509   6.164 -2.0115  1.2742  0.2413
25022SOL    HW281030   1.474   0.562   6.304  0.9297  1.4349 -0.2693
25023SOL     OW81031  10.437   2.943   3.056  0.0645 -0.4684  0.7474
25023SOL    HW181032  10.495   2.873   3.087 -1.3691 -1.8775  0.3774
25023SOL    HW281033  10.380   2.961   3.131 -0.7798 -1.0266  0.2456
25024SOL     OW81034   3.687  10.982  10.953  0.0362  0.1754 -0.1501
25024SOL    HW181035   3.662  10.910  10.895  0.0878  0.8366 -1.0151
25024SOL    HW281036   3.630  10.972  11.029 -1.5940  0.5568 -1.2676
25025SOL     OW81037  11.391  10.402   8.848 -0.5126 -0.7501 -0.2118
25025SOL    HW181038  11.403  10.438   8.936 -0.1216  3.1669 -1.7004
25025SOL    HW281039  11.299  10.375   8.846 -0.3398 -1.6845  1.5557
25026SOL     OW81040   2.069  10.313   0.720  0.4727 -0.3953  0.0959
25026SOL    HW181041   1.978  10.299   0.745 -0.1441  1.5628 -0.8122
25026SOL    HW281042   2.112  10.341   0.801  0.0587 -0.4763  0.3481
25027SOL     OW81043   5.394   9.420   3.765 -0.0168  0.0546 -0.6268
25027SOL    HW181044   5.383   9.351   3.701 -2.9934 -0.9167  0.7602
25027SOL    HW281045   5.473   9.396   3.814  1.1128 -0.2641 -2.5078
25028SOL     OW81046   2.658  11.011   8.448  0.5236  0.0207  0.5191
25028SOL    HW181047   2.657  10.916   8.438 -0.0158 -0.0365  1.0987
25028SOL    HW281048   2.590  11.042   8.388  3.1208  0.3734 -2.6098
25029SOL     OW81049   6.902   2.477   4.514  0.2855 -0.3005 -0.6441
25029SOL    HW181050   6.942   2.472   4.427 -0.5814  0.6560 -1.1104
25029SOL    HW281051   6.919   2.567   4.543 -0.7160 -0.1639 -0.4560
25030SOL     OW81052  12.004   1.973   4.810 -0.0998 -0.6048 -0.7234
25030SOL    HW181053  12.030   1.974   4.902  1.7798  2.1134 -1.1716
25030SOL    HW281054  11.908   1.965   4.811 -0.0940 -0.8070  1.4228
25031SOL     OW81055   2.896  12.138   9.734  0.3110  0.0443  0.4466
25031SOL    HW181056   2.988  12.138   9.709  0.3881  1.3790  0.6948
25031SOL    HW281057   2.871  12.045   9.733  1.2552 -0.2120 -1.0252
25032SOL     OW81058   9.802  11.354   0.331 -0.5934  0.5144  0.3500
25032SOL    HW181059   9.796  11.379   0.423 -1.1210 -1.5113  0.9179
25032SOL    HW281060   9.790  11.259   0.331 -0.0812  0.3980 -1.7693
25033SOL     OW81061   0.298   6.425   9.487  0.3609  0.2959  0.4365
25033SOL    HW181062   0.255   6.492   9.433  0.8229  0.5054  0.3168
25033SOL    HW281063   0.370   6.393   9.432 -0.8046 -1.4728 -0.1585
25034SOL     OW81064   0.663  10.216   9.763  0.1331  0.8130 -0.2977
25034SOL    HW181065   0.733  10.189   9.704  0.2636 -0.7996  0.5462
25034SOL    HW281066   0.680  10.169   9.844 -1.2946  1.2619  0.2991
25035SOL     OW81067   8.963   3.449   7.824 -0.2620  0.1863  0.2106
25035SOL    HW181068   8.884   3.476   7.777 -1.1403  0.8003  1.9157
25035SOL    HW281069   9.034   3.493   7.778 -1.2376  2.0070  0.3099
25036SOL     OW81070   1.949   0.773   4.914 -0.3733  0.1486 -0.3515
25036SOL    HW181071   1.875   0.753   4.972 -0.3677 -0.2636 -0.4793
25036SOL    HW281072   1.944   0.706   4.846  0.3942 -0.1709 -0.1014
25037SOL     OW81073   3.229   7.967   9.671  0.1697 -0.4201 -0.1492
25037SOL    HW181074   3.216   7.971   9.576 -0.2053  0.6133 -0.0616
25037SOL    HW281075   3.153   8.011   9.708 -0.0553 -1.4624  0.6768
25038SOL     OW81076   8.102   2.026   0.749  0.1383  0.0257  0.1980
25038SOL    HW181077   8.162   2.073   0.692  0.0014  2.3557  1.8140
25038SOL    HW281078   8.111   1.934   0.724  1.1155  0.7800 -2.5200
25039SOL     OW81079  11.151  12.237   1.827  0.3287  0.0775  0.0228
25039SOL    HW181080  11.076  12.218   1.885  1.7871 -0.4663  1.8420
25039SOL    HW281081  11.189  12.318   1.862 -0.1269  1.0762 -1.6930
25040SOL     OW81082   6.004   7.544   7.350  0.7341  0.3771  0.1045
25040SOL    HW181083   5.988   7.523   7.442  0.1470  0.6835  0.0732
25040SOL    HW281084   6.035   7.462   7.312  1.1790  0.3004  0.6190
25041SOL     OW81085   9.294   3.561   5.370  0.1230 -0.2464  0.4173
25041SOL    HW181086   9.325   3.641   5.328  1.6449 -0.7307  0.5573
25041SOL    HW281087   9.357   3.544   5.440  0.5022 -2.1718 -0.3263
25042SOL     OW81088   5.637   4.785   1.743 -0.1439 -0.4128  0.0845
25042SOL    HW181089   5.692   4.859   1.770 -0.9195 -0.4205  1.8852
25042SOL    HW281090   5.553   4.825   1.719  0.5287 -0.4136 -2.5044
25043SOL     OW81091   8.933   6.208  10.575  0.1323  0.2956 -0.5004
25043SOL    HW181092   8.961   6.124  10.539  2.3614  0.6094  0.3436
25043SOL    HW281093   8.903   6.258  10.498 -1.5045 -1.2966 -0.9822
25044SOL     OW81094   4.664   1.538   4.730  0.8418 -0.0131 -0.1363
25044SOL    HW181095   4.628   1.566   4.814  2.1549  1.2298  0.0577
25044SOL    HW281096   4.587   1.518   4.677 -0.0016 -2.0953  1.7176
25045SOL     OW81097   1.110   6.717   2.428 -0.2105  0.1880 -0.1830
25045SOL    HW181098   1.185   6.740   2.373  1.3382 -0.8470  1.3820
25045SOL    HW281099   1.149   6.674   2.504 -2.3833  0.0719  0.9334
25046SOL     OW81100   9.334   9.543  12.141  0.5096  0.3844 -0.2488
25046SOL    HW181101   9.324   9.450  12.125  2.1724  0.1666 -0.2091
25046SOL    HW281102   9.244   9.577  12.143 -0.0666 -0.9206 -1.8600
25047SOL     OW81103   9.150   6.301   3.635 -0.6378  0.1923 -0.8508
25047SOL    HW181104   9.162   6.208   3.652  0.9395  0.5261  0.1433
25047SOL    HW281105   9.203   6.318   3.557  2.3031  0.8837  1.1236
25048SOL     OW81106   5.307   5.295   7.389 -0.2721  0.9544 -0.4358
25048SOL    HW181107   5.353   5.297   7.305 -0.2268  0.3005 -0.4306
25048SOL    HW281108   5.238   5.360   7.381  0.5162  1.7899 -0.5257
25049SOL     OW81109   9.223  12.372  11.015  0.1448  0.3307 -0.3043
25049SOL    HW181110   9.228  12.388  11.109 -1.5592 -0.3680 -0.0577
25049SOL    HW281111   9.297  12.315  10.996 -0.2841 -0.6778  0.8937
25050SOL     OW81112   6.224   5.638   3.925 -0.3331  0.1123  0.2223
25050SOL    HW181113   6.220   5.543   3.922  0.5888  0.0809 -1.2408
25050SOL    HW281114   6.233   5.664   3.833  0.7724  1.5196  0.6970
25051SOL     OW81115   2.241   9.904   5.692 -0.0856 -0.1097  0.2981
25051SOL    HW181116   2.263   9.996   5.675  1.8261 -0.5988 -0.0403
25051SOL    HW281117   2.297   9.879   5.765 -0.5386 -1.0414  0.3414
25052SOL     OW81118   9.539   9.784   0.367  0.0477  0.0012  0.2495
25052SOL    HW181119   9.540   9.859   0.425  0.5607  0.6835 -0.6158
25052SOL    HW281120   9.606   9.803   0.301 -1.0952 -0.3238 -1.0623
25053SOL     OW81121  11.965  10.882   4.506 -0.6538  0.1366 -0.0097
25053SOL    HW181122  11.882  10.896   4.462 -0.2870 -0.1236 -0.8076
25053SOL    HW281123  12.023  10.849   4.438  0.0885  0.2612  0.5467
25054SOL     OW81124   4.615   8.496   2.463  0.0628  0.5396  0.1023
25054SOL    HW181125   4.589   8.574   2.414  0.3678  0.2731 -0.4979
25054SOL    HW281126   4.538   8.475   2.516  0.1073  1.4591  0.5524
25055SOL     OW81127   0.514   9.211   6.535 -0.0955  0.4636 -0.0360
25055SOL    HW181128   0.557   9.138   6.491  0.8472  0.1841  1.2922
25055SOL    HW281129   0.517   9.283   6.471 -1.2475 -0.6779 -1.4488
25056SOL     OW81130  11.396  11.427   1.058  0.0812  0.2588 -0.6044
25056SOL    HW181131  11.342  11.408   0.981  0.5255  0.4535 -0.9684
25056SOL    HW281132  11.484  11.440   1.023  0.3575 -0.0237 -0.0154
25057SOL     OW81133   9.833   4.142   2.302 -0.5258 -0.1353 -0.0378
25057SOL    HW181134   9.894   4.214   2.318  0.9450 -0.9066 -1.7903
25057SOL    HW281135   9.785   4.133   2.384  1.7747  0.4642  1.4686
25058SOL     OW81136  12.370   2.628  10.160  0.0845 -0.7355 -0.0862
25058SOL    HW181137  12.275   2.619  10.167 -0.0922  0.7281 -0.2228
25058SOL    HW281138  12.405   2.548  10.198 -1.2103 -1.3762 -0.2080
25059SOL     OW81139   3.465   5.859   7.827  0.6269 -0.0621  0.3235
25059SOL    HW181140   3.509   5.832   7.747 -0.9038 -2.4510  0.1918
25059SOL    HW281141   3.533   5.851   7.895  0.6843 -3.2730  0.0688
25060SOL     OW81142   9.047   5.723  11.611 -0.6189 -0.1514 -0.1565
25060SOL    HW181143   9.136   5.754  11.623 -0.7106  0.7645 -1.6036
25060SOL    HW281144   9.051   5.667  11.533 -1.2846 -0.1474 -0.2002
25061SOL     OW81145  12.087   2.491   0.162 -0.5778 -0.1663  0.1681
25061SOL    HW181146  12.000   2.452   0.173 -2.0136  2.2745 -1.4261
25061SOL    HW281147  12.103   2.538   0.244 -1.5759  0.7072 -0.1066
25062SOL     OW81148   9.107   2.459   5.132  0.0769 -0.0283 -0.1134
25062SOL    HW181149   9.025   2.471   5.085  0.3846  0.6014 -0.5015
25062SOL    HW281150   9.134   2.369   5.112  0.1582  0.2058 -1.0604
25063SOL     OW81151   0.681   2.731   3.928 -0.0699  0.6622 -0.1098
25063SOL    HW181152   0.758   2.710   3.876 -0.0410  2.5892 -0.9273
25063SOL    HW281153   0.688   2.676   4.006  2.1677  0.8529 -0.1323
25064SOL     OW81154   3.612   2.669   8.525 -0.0888  0.7566  0.8557
25064SOL    HW181155   3.633   2.734   8.592 -1.6021  1.2896  0.8711
25064SOL    HW281156   3.523   2.641   8.547  0.7946 -1.9802  1.3413
25065SOL     OW81157   2.914   5.589   2.814 -0.0086 -0.4142  0.5235
25065SOL    HW181158   2.996   5.598   2.766 -0.9307 -1.8488 -1.4574
25065SOL    HW281159   2.941   5.571   2.904  1.7967  0.9864  0.3333
25066SOL     OW81160   0.611   8.600  11.466  0.0151 -0.0143 -0.1979
25066SOL    HW181161   0.688   8.653  11.490  0.6214 -1.1294  0.4240
25066SOL    HW281162   0.606   8.607  11.370  0.8739  0.1071 -0.2416
25067SOL     OW81163   0.101   9.216   8.871 -0.4127 -0.0019 -0.2877
25067SOL    HW181164   0.186   9.228   8.827 -0.5354 -0.6670 -0.7248
25067SOL    HW281165   0.122   9.166   8.950 -0.1878  1.2171  0.4519
25068SOL     OW81166   7.977  10.516   3.085 -0.1223  0.2279  1.0582
25068SOL    HW181167   8.058  10.567   3.083  0.5486 -0.8039  0.7380
25068SOL    HW281168   7.908  10.580   3.101  0.6553  1.2636  0.3960
25069SOL     OW81169   6.264   2.907   9.476  0.2864 -0.0211 -0.5394
25069SOL    HW181170   6.239   2.827   9.429  0.1053  0.6742 -1.6667
25069SOL    HW281171   6.191   2.967   9.461  0.4323  0.3705  0.2784
25070SOL     OW81172  11.691   7.163  12.057 -0.2086  0.3025  0.0785
25070SOL    HW181173  11.724   7.073  12.046 -1.9822 -0.1198 -3.0168
25070SOL    HW281174  11.764   7.218  12.029 -0.0961 -0.3642 -1.0386
25071SOL     OW81175   2.558   7.025   0.528  0.6600  0.3036 -0.2611
25071SOL    HW181176   2.472   7.050   0.496  0.8214  3.7094  1.5283
25071SOL    HW281177   2.541   6.968   0.603  0.0395 -0.2304 -0.8029
25072SOL     OW81178   8.070  11.114  10.151  0.7275  0.0201 -0.8583
25072SOL    HW181179   8.055  11.022  10.173 -0.3850  0.5467  0.8680
25072SOL    HW281180   8.136  11.113  10.082  1.4505 -2.0219 -0.1966
25073SOL     OW81181   3.264  12.377   8.596 -0.0139 -0.8305  0.3797
25073SOL    HW181182   3.210  12.448   8.560 -0.9909 -1.4313  0.6085
25073SOL    HW281183   3.203  12.303   8.606  0.9977 -1.7205  0.1023
25074SOL     OW81184  10.225   2.259   8.520 -0.0945  0.1698 -0.0595
25074SOL    HW181185  10.284   2.239   8.447  1.3886  0.4394  1.0165
25074SOL    HW281186  10.147   2.296   8.478  0.2560 -0.7227 -1.5610
25075SOL     OW81187   9.669   4.164   0.130 -0.5868 -0.2764 -0.0311
25075SOL    HW181188   9.580   4.128   0.131 -0.2993 -1.0129 -0.0020
25075SOL    HW281189   9.671   4.220   0.052 -0.7115 -1.2362 -0.7412
25076SOL     OW81190   3.237   0.145   0.421  0.0314 -0.0132 -0.0764
25076SOL    HW181191   3.143   0.160   0.416  0.4341  3.3034 -4.0449
25076SOL    HW281192   3.263   0.181   0.506 -2.1868 -0.8110  1.0070
25077SOL     OW81193   6.776   4.908   0.381  0.3497 -0.0343 -0.0689
25077SOL    HW181194   6.789   5.002   0.375 -0.3070  0.0394 -0.4149
25077SOL    HW281195   6.714   4.888   0.311  0.0157 -0.6315  0.3870
25078SOL     OW81196   3.500  10.520   2.682  0.1147  0.2979  0.2019
25078SOL    HW181197   3.532  10.606   2.654  0.3245 -0.2012 -1.1299
25078SOL    HW281198   3.444  10.539   2.758 -0.2994  1.6667 -0.4133
25079SOL     OW81199   8.851  11.323   0.655 -0.1431  0.5211  0.1195
25079SOL    HW181200   8.875  11.240   0.614 -0.5661  1.4971 -2.2283
25079SOL    HW281201   8.835  11.300   0.747 -0.4384 -2.0092 -0.4974
25080SOL     OW81202   6.883   0.892   7.404 -0.5719 -0.0623  0.4414
25080SOL    HW181203   6.934   0.824   7.360 -0.0316 -0.0521  1.0528
25080SOL    HW281204   6.809   0.908   7.344  0.2741  0.1239 -0.5804
25081SOL     OW81205  11.885   6.483   3.635 -0.4051 -0.5913  0.2836
25081SOL    HW181206  11.871   6.436   3.553  1.1025 -0.5532 -0.0140
25081SOL    HW281207  11.914   6.570   3.608 -0.8556 -0.2530  0.8594
25082SOL     OW81208  10.573   3.988   8.058  0.0051  0.0468  0.5366
25082SOL    HW181209  10.624   3.909   8.077 -0.1634  0.0776  1.1504
25082SOL    HW281210  10.529   4.008   8.141  0.4445  1.0763  0.5425
25083SOL     OW81211   4.882   8.175   2.966 -0.6044 -0.0990 -0.9593
25083SOL    HW181212   4.900   8.123   2.888  0.0841 -0.1310 -0.7829
25083SOL    HW281213   4.787   8.179   2.971 -0.6526 -0.3709 -1.6181
25084SOL     OW81214   0.231   3.269   0.771  0.1139 -0.0504 -0.3515
25084SOL    HW181215   0.183   3.237   0.694 -0.1221 -0.2471 -0.1234
25084SOL    HW281216   0.323   3.256   0.749  0.0555 -4.2155  1.0752
25085SOL     OW81217   3.494   7.427   9.212 -0.1195 -0.5406  0.2338
25085SOL    HW181218   3.587   7.410   9.198 -0.3292 -1.9450  0.4400
25085SOL    HW281219   3.455   7.341   9.223 -1.8000 -0.1187 -1.8549
25086SOL     OW81220   9.503  10.680   9.167  0.4418  0.1969 -0.1018
25086SOL    HW181221   9.428  10.627   9.142  1.8843 -2.3706  0.6122
25086SOL    HW281222   9.531  10.722   9.086 -0.7700 -0.1106 -0.7011
25087SOL     OW81223   9.778   1.173   0.609 -0.1469 -0.1739  0.4329
25087SOL    HW181224   9.754   1.143   0.521 -0.1522  1.4812 -0.1525
25087SOL    HW281225   9.787   1.268   0.601  0.5202 -0.0665  2.0729
25088SOL     OW81226   9.916   5.618   9.372  0.2761 -0.0779 -0.1437
25088SOL    HW181227   9.963   5.596   9.453  0.8183  1.3869 -0.0196
25088SOL    HW281228   9.941   5.549   9.311  1.1722 -0.3136  0.4572
25089SOL     OW81229   6.712   9.518   1.990 -0.0230  0.2494  0.3223
25089SOL    HW181230   6.753   9.597   2.026 -1.4708  1.0830  0.2364
25089SOL    HW281231   6.705   9.535   1.896 -0.6347  0.1739  0.3466
25090SOL     OW81232   9.002   7.286  12.075 -0.0933  0.1786  0.0439
25090SOL    HW181233   8.950   7.355  12.034  0.6932  0.6315 -0.2088
25090SOL    HW281234   9.090   7.296  12.037  0.3482 -0.1561  0.9546
25091SOL     OW81235   3.344   6.078   3.057  0.2582 -0.1337 -0.2576
25091SOL    HW181236   3.400   6.123   2.995  0.1107  3.2233  1.7926
25091SOL    HW281237   3.372   6.109   3.143 -1.4833 -2.2274  1.2110
25092SOL     OW81238  11.082   8.923   2.232 -0.1113 -0.1550  0.1568
25092SOL    HW181239  11.063   8.905   2.324  0.6705 -0.6688  0.2211
25092SOL    HW281240  11.092   8.836   2.192  1.8661  0.0681  0.0808
25093SOL     OW81241   8.886   9.584   8.258 -0.1635 -0.2875 -0.0041
25093SOL    HW181242   8.910   9.568   8.349 -0.6503 -0.5370  0.0861
25093SOL    HW281243   8.852   9.673   8.258 -0.4048 -0.3785  0.1107
25094SOL     OW81244   4.729   2.420   8.030 -0.6829  0.1859 -0.4723
25094SOL    HW181245   4.784   2.341   8.030  0.3595  0.8150 -2.6933
25094SOL    HW281246   4.657   2.399   7.971  0.1036  1.1331 -1.8415
25095SOL     OW81247   5.090   4.775   3.661  0.4343  0.1633 -0.4900
25095SOL    HW181248   5.051   4.761   3.747  0.3417 -0.5680 -0.6433
25095SOL    HW281249   5.183   4.791   3.680  0.6797 -1.2776 -0.3093
25096SOL     OW81250   7.628   6.758   2.744  0.2945 -0.4820  0.2250
25096SOL    HW181251   7.606   6.718   2.827 -1.0144 -0.2449  0.0143
25096SOL    HW281252   7.587   6.702   2.678 -0.8296  0.6760 -0.1150
25097SOL     OW81253   1.117   1.836   7.846 -0.0217 -0.2621 -0.3723
25097SOL    HW181254   1.042   1.894   7.865  0.7590  0.1377  1.7552
25097SOL    HW281255   1.186   1.896   7.817  0.9682  0.0497  2.3745
25098SOL     OW81256   4.106   6.115   8.542 -0.4196 -0.2515 -0.4604
25098SOL    HW181257   4.194   6.080   8.526  0.2507  0.9368  0.4522
25098SOL    HW281258   4.099   6.190   8.483 -0.8127 -0.3191 -0.4986
25099SOL     OW81259   2.452   6.652   9.805  0.6940  0.1424  0.1838
25099SOL    HW181260   2.415   6.661   9.718  1.2018 -0.9292 -0.1566
25099SOL    HW281261   2.388   6.598   9.853  0.2854  0.9457  0.5728
25100SOL     OW81262  11.827   1.488   3.595  0.1846 -0.1888 -0.2704
25100SOL    HW181263  11.872   1.434   3.530 -2.0952  0.2065 -2.3244
25100SOL    HW281264  11.785   1.425   3.654  0.7379 -0.5822 -0.2913
25101SOL     OW81265   7.993  12.326   6.961  0.0285  0.4362  0.3727
25101SOL    HW181266   8.044  12.372   6.895  1.7218 -0.3230  1.1068
25101SOL    HW281267   7.943  12.261   6.912 -1.8922  2.5200 -0.5951
25102SOL     OW81268   2.059   6.552  12.450 -0.4739  0.5878  0.4009
25102SOL    HW181269   2.057   6.647  12.467 -1.4988  0.6737 -0.1249
25102SOL    HW281270   1.968   6.529  12.432  0.0841 -0.0218 -1.9634
25103SOL     OW81271   0.048   1.487   2.111  0.4717  0.0883  0.0273
25103SOL    HW181272   0.072   1.395   2.098  0.5459  0.3053 -1.5076
25103SOL    HW281273   0.034   1.521   2.023 -0.1905  1.3914  0.6067
25104SOL     OW81274   5.801   0.332   5.492  0.0600 -1.3161  0.1495
25104SOL    HW181275   5.749   0.402   5.453 -1.7132 -2.0231  1.0822
25104SOL    HW281276   5.882   0.374   5.520  0.3960 -0.3379 -2.1350
25105SOL     OW81277   7.144   8.909   0.719  0.1945  0.4435 -0.0001
25105SOL    HW181278   7.171   8.825   0.757 -0.1515  0.5672  0.5305
25105SOL    HW281279   7.226   8.953   0.699  0.3962  0.5922  1.1002
25106SOL     OW81280   1.169   2.083  12.328 -0.3448  0.0108 -0.5464
25106SOL    HW181281   1.103   2.052  12.267  0.0999  1.0690 -1.6255
25106SOL    HW281282   1.249   2.088  12.275 -0.1302  1.6952 -0.1176
25107SOL     OW81283   7.185   7.273  11.031  0.6802 -0.4348 -0.3716
25107SOL    HW181284   7.199   7.186  11.069  2.2429 -0.4471 -0.9069
25107SOL    HW281285   7.126   7.316  11.093 -1.6742 -2.4734 -1.0209
25108SOL     OW81286  10.783  10.895  12.488 -0.2605 -0.3964  0.5359
25108SOL    HW181287  10.701  10.855  12.517 -2.4699  0.0789 -4.1768
25108SOL    HW281288  10.839  10.822  12.463 -1.0779 -0.6951 -0.4601
25109SOL     OW81289   8.565   3.382  10.988 -0.2563  0.1267  0.1104
25109SOL    HW181290   8.552   3.474  11.008 -0.0402  0.1641  0.0784
25109SOL    HW281291   8.546   3.336  11.070  0.5866  0.2757  0.3911
25110SOL     OW81292   8.916   6.636   0.681 -0.2199  0.7348  0.3023
25110SOL    HW181293   8.923   6.730   0.665 -0.1859  0.7860  0.6162
25110SOL    HW281294   8.971   6.596   0.614 -0.0234  0.9499  0.3336
25111SOL     OW81295   3.152   2.993  10.319 -1.0033  0.0066  0.0271
25111SOL    HW181296   3.241   3.029  10.313 -1.8553  2.2863 -0.1886
25111SOL    HW281297   3.141   2.941  10.240 -0.1354  0.4120 -0.3699
25112SOL     OW81298   6.254   8.674   8.211  0.0802  0.3571 -0.1770
25112SOL    HW181299   6.159   8.682   8.217  0.0163 -0.6592  0.5312
25112SOL    HW281300   6.268   8.603   8.148  0.3812  0.7061 -0.5065
25113SOL     OW81301   1.658   9.839  10.553  0.0187 -0.3624  0.3934
25113SOL    HW181302   1.652   9.899  10.627 -0.7829 -1.1320  0.9621
25113SOL    HW281303   1.632   9.754  10.588 -2.0210 -0.4344 -1.1308
25114SOL     OW81304   3.077  11.231   4.728  0.1588 -0.4041 -0.0079
25114SOL    HW181305   3.131  11.253   4.804 -0.1943  0.1696  0.0795
25114SOL    HW281306   3.139  11.228   4.655  0.3456  0.0423  0.1278
25115SOL     OW81307   4.237   9.605   2.422  0.0642  0.7066  0.1492
25115SOL    HW181308   4.175   9.546   2.465 -0.2549  2.8177  2.8730
25115SOL    HW281309   4.184   9.657   2.363 -0.6573  1.8099  1.7087
25116SOL     OW81310   6.436  10.510  11.623  0.4418 -0.3128  0.2213
25116SOL    HW181311   6.522  10.549  11.639  0.7471 -0.9622  0.2158
25116SOL    HW281312   6.393  10.509  11.708  0.4660 -0.0638  0.2380
25117SOL     OW81313   4.786   2.161  10.421  0.4243 -0.5622  0.2739
25117SOL    HW181314   4.718   2.101  10.391  1.0561 -0.7112 -0.9183
25117SOL    HW281315   4.855   2.104  10.457  0.2298 -0.4492  0.8329
25118SOL     OW81316  10.569  11.339   4.845  0.1040  0.0562  0.2506
25118SOL    HW181317  10.655  11.340   4.886 -0.2013  1.5506  0.9022
25118SOL    HW281318  10.510  11.309   4.914  0.0747 -0.9914 -0.2023
25119SOL     OW81319   2.316   4.225   5.008  0.4720 -0.0144 -0.4696
25119SOL    HW181320   2.248   4.269   5.059  0.6916 -0.9223  0.6466
25119SOL    HW281321   2.295   4.132   5.015  1.4964 -0.2703 -0.6069
25120SOL     OW81322   2.297   9.358   5.191  0.3023  0.5474  0.4036
25120SOL    HW181323   2.245   9.369   5.271  0.1232 -0.1094  0.3888
25120SOL    HW281324   2.287   9.440   5.144 -0.2479  0.6462  0.6836
25121SOL     OW81325   7.768   9.282   4.262  0.2369  0.0973 -0.3497
25121SOL    HW181326   7.814   9.365   4.254  2.0531 -0.7757  0.4815
25121SOL    HW281327   7.734   9.283   4.352  1.8636 -0.7920  0.3135
25122SOL     OW81328   3.357  11.841  11.499 -0.1474  0.0067  0.5034
25122SOL    HW181329   3.353  11.801  11.586 -0.7498 -1.4451 -0.1561
25122SOL    HW281330   3.291  11.794  11.448 -0.3166  1.3273 -0.5577
25123SOL     OW81331  11.678   9.153  10.908  0.1564  0.1947  0.2887
25123SOL    HW181332  11.639   9.225  10.858  0.9350  1.0438  0.8648
25123SOL    HW281333  11.650   9.168  10.998  2.4972  1.3667  0.8830
25124SOL     OW81334   8.552   9.952   0.100  0.1883  0.5767  0.1186
25124SOL    HW181335   8.496   9.886   0.058  1.4800 -0.5002  0.0467
25124SOL    HW281336   8.620   9.902   0.144  0.4603  1.8246  1.1710
25125SOL     OW81337  11.645   1.156  10.428 -0.0219  0.3106 -0.3219
25125SOL    HW181338  11.601   1.162  10.344 -0.9859 -1.7667 -0.0255
25125SOL    HW281339  11.583   1.193  10.491  0.4433  1.2764 -0.4008
25126SOL     OW81340   9.825  11.370   4.231  0.2812 -0.1378  0.2044
25126SOL    HW181341   9.806  11.461   4.253  1.0710  0.6183 -1.9799
25126SOL    HW281342   9.910  11.352   4.271  0.3360  0.2302  0.2511
25127SOL     OW81343   4.683  10.828   3.410 -0.5759 -0.0451  0.2694
25127SOL    HW181344   4.706  10.875   3.330  2.4084 -2.6144 -0.5738
25127SOL    HW281345   4.614  10.766   3.383  0.3665 -0.8495 -0.3667
25128SOL     OW81346   7.964   5.139   1.328  0.3870  0.4216 -0.2540
25128SOL    HW181347   7.891   5.193   1.358 -1.2560 -1.5197 -0.5798
25128SOL    HW281348   7.950   5.129   1.234  0.3105 -1.0420 -0.1052
25129SOL     OW81349   7.857   6.805   2.332  0.0372  0.6421  0.6663
25129SOL    HW181350   7.920   6.756   2.386 -1.7329 -1.3800  1.0270
25129SOL    HW281351   7.904   6.822   2.250  1.4433  0.2737  1.3588
25130SOL     OW81352  11.198   0.460   8.770  0.8262 -0.5899 -0.4051
25130SOL    HW181353  11.223   0.519   8.700  1.8543 -0.6736 -0.1232
25130SOL    HW281354  11.150   0.514   8.833  0.5377 -0.3645 -0.8207
25131SOL     OW81355   4.107   0.816   9.504 -0.3757  0.2473  0.9114
25131SOL    HW181356   4.068   0.750   9.447  0.7227  1.8533 -1.8467
25131SOL    HW281357   4.188   0.776   9.535 -0.5478 -0.3088  0.6615
25132SOL     OW81358   7.488  10.529  10.800 -0.2801 -0.1539  0.0072
25132SOL    HW181359   7.498  10.444  10.757 -0.0539  0.2992 -0.8597
25132SOL    HW281360   7.566  10.536  10.855 -2.2733 -2.3251  3.4207
25133SOL     OW81361  11.340   9.311   7.495  0.4559  0.2612 -0.2793
25133SOL    HW181362  11.422   9.361   7.490 -0.1689  1.2371 -1.2298
25133SOL    HW281363  11.345   9.266   7.579  1.5793  0.9978  0.0833
25134SOL     OW81364   3.789  10.776  10.133 -0.5423 -0.2714 -0.0298
25134SOL    HW181365   3.814  10.686  10.115 -1.4880 -0.5394 -0.0026
25134SOL    HW281366   3.834  10.797  10.215  1.0881 -0.1253 -0.9101
25135SOL     OW81367   4.126  10.742   5.524  0.7884 -0.3083 -0.3196
25135SOL    HW181368   4.175  10.670   5.564 -0.8064 -1.4970 -0.4279
25135SOL    HW281369   4.082  10.702   5.449  1.0306  1.1298 -1.2768
25136SOL     OW81370  12.458   0.248  12.261 -0.0557 -0.3675  0.3048
25136SOL    HW181371  12.409   0.294  12.329 -1.0924 -0.3504 -0.4196
25136SOL    HW281372  12.488   0.317  12.202 -2.0985 -0.5649 -1.0976
25137SOL     OW81373   9.916  12.406  11.417 -0.5879 -0.0281 -0.0902
25137SOL    HW181374   9.916  12.492  11.375  0.6566  0.5823  1.0986
25137SOL    HW281375   9.855  12.414  11.490 -0.7761 -0.2833 -0.2174
25138SOL     OW81376   9.201  11.660   7.344 -0.2204 -0.1744 -0.1121
25138SOL    HW181377   9.112  11.639   7.316 -0.6099  1.1088  0.1049
25138SOL    HW281378   9.232  11.726   7.281 -0.5504  1.6129  1.5277
25139SOL     OW81379   4.157   8.655  12.196  0.0747 -0.2469 -0.5127
25139SOL    HW181380   4.084   8.716  12.196 -0.7278 -1.1737 -1.6381
25139SOL    HW281381   4.235   8.711  12.186 -0.3426  0.8404  1.7864
25140SOL     OW81382   8.657   3.242  11.573  0.5022  0.4255  0.2595
25140SOL    HW181383   8.584   3.274  11.626  0.1676 -0.1657  0.1643
25140SOL    HW281384   8.735   3.271  11.620  0.2106  0.8258  0.5066
25141SOL     OW81385   6.915   0.667   3.949 -0.1804 -0.3773 -0.7474
25141SOL    HW181386   6.987   0.716   3.988 -1.5207  0.9589  0.1443
25141SOL    HW281387   6.838   0.691   4.001 -1.5984 -0.4740 -2.6910
25142SOL     OW81388  11.781   3.446   7.965 -0.4295  0.5786  0.4860
25142SOL    HW181389  11.821   3.533   7.961  2.3837 -0.5947  0.8640
25142SOL    HW281390  11.822   3.404   8.040 -2.6143 -0.7295  1.0430
25143SOL     OW81391  11.065   0.539   9.023  0.3674 -0.4863 -0.5696
25143SOL    HW181392  11.082   0.554   9.116 -1.4931  0.3854 -0.3197
25143SOL    HW281393  10.969   0.541   9.016  0.4860 -0.1993 -2.5579
25144SOL     OW81394   9.893   3.065   7.021  0.0108  0.4720 -0.6851
25144SOL    HW181395   9.835   3.140   7.010  0.0390  0.5049 -0.6033
25144SOL    HW281396   9.915   3.038   6.932  0.3551  0.8323 -0.7109
25145SOL     OW81397   1.236   4.891   2.284  0.0901  0.4051  0.3719
25145SOL    HW181398   1.142   4.899   2.298 -0.0337 -1.7720  1.2145
25145SOL    HW281399   1.262   4.974   2.243 -2.4253  0.4448 -1.3414
25146SOL     OW81400   7.306  10.280   6.617 -0.2663  0.4320  0.5549
25146SOL    HW181401   7.213  10.285   6.595 -0.3764  0.4507  1.0125
25146SOL    HW281402   7.325  10.187   6.618 -0.1329  0.4452 -0.1256
25147SOL     OW81403   0.588   9.395  11.723 -0.1223 -0.0873 -0.4373
25147SOL    HW181404   0.556   9.334  11.790 -1.8947  0.9270 -0.2972
25147SOL    HW281405   0.554   9.361  11.641 -1.2428  0.7421 -0.3416
25148SOL     OW81406   2.331   3.615  11.849  0.2377 -0.4214  0.2203
25148SOL    HW181407   2.355   3.550  11.783  0.3765 -0.5507  0.3977
25148SOL    HW281408   2.395   3.604  11.919 -0.9171 -1.4598  1.1593
25149SOL     OW81409   0.246   6.291   7.438 -0.5684  1.1713  0.2586
25149SOL    HW181410   0.238   6.219   7.499 -0.4559 -1.3818 -2.5249
25149SOL    HW281411   0.262   6.368   7.493  1.7538 -1.2467  3.2949
25150SOL     OW81412   3.188   6.775  12.050 -0.3301 -0.2189  0.0255
25150SOL    HW181413   3.250   6.719  12.098 -1.3724 -1.5059 -0.0700
25150SOL    HW281414   3.157   6.838  12.116 -0.8961 -1.2530  0.7740
25151SOL     OW81415   6.158  10.695  10.616  0.2402 -0.0434 -0.2574
25151SOL    HW181416   6.085  10.730  10.667  0.0358 -0.8567  0.0245
25151SOL    HW281417   6.118  10.634  10.555  0.6018  0.1292 -0.6698
25152SOL     OW81418   6.355   0.460   7.839 -0.5941  0.2172  0.1620
25152SOL    HW181419   6.340   0.552   7.863  0.8760  0.0565  1.9748
25152SOL    HW281420   6.446   0.458   7.809 -0.6949 -0.5994 -0.0939
25153SOL     OW81421   5.137   7.653  11.433  0.4034  0.2158 -0.3452
25153SOL    HW181422   5.051   7.624  11.405  0.6707  0.6834 -1.7284
25153SOL    HW281423   5.127   7.747  11.451  0.6335  0.2914 -0.5946
25154SOL     OW81424   4.057   4.358   9.232  0.4345 -0.1614 -0.2005
25154SOL    HW181425   4.151   4.355   9.251  0.1876 -1.0682  0.9685
25154SOL    HW281426   4.044   4.292   9.164  0.3210 -1.6191  1.2022
25155SOL     OW81427   7.192   8.119   9.036  0.1911  0.1193  0.1871
25155SOL    HW181428   7.198   8.210   9.064 -0.6488  1.0647 -2.4072
25155SOL    HW281429   7.276   8.080   9.062  0.9746  1.8977  0.4592
25156SOL     OW81430   9.338  10.466   5.951  0.1697 -0.2467 -0.2427
25156SOL    HW181431   9.373  10.432   5.869  0.7204  1.4612 -0.7600
25156SOL    HW281432   9.412  10.513   5.990 -0.6623  0.6894  0.2280
25157SOL     OW81433   7.317   6.775   8.186 -0.2099  0.4432  0.6199
25157SOL    HW181434   7.306   6.851   8.129 -0.2152 -0.2296 -0.2854
25157SOL    HW281435   7.398   6.793   8.234  0.6224  0.3400 -0.6920
25158SOL     OW81436   1.131   0.493   5.538  0.5884  0.0385 -0.2108
25158SOL    HW181437   1.062   0.494   5.471  1.6863  1.0576 -1.3991
25158SOL    HW281438   1.152   0.585   5.552  1.7459 -0.2398  0.0583
25159SOL     OW81439  10.990  10.406   8.375  0.8307 -0.0899 -0.5953
25159SOL    HW181440  11.008  10.311   8.378  1.2375  0.0003  0.7975
25159SOL    HW281441  11.059  10.441   8.319  0.7401 -0.5973 -1.0411
25160SOL     OW81442   3.618  10.120   6.406 -0.1806  0.1573  0.3898
25160SOL    HW181443   3.651  10.205   6.378 -3.1147  0.9317 -1.2108
25160SOL    HW281444   3.631  10.063   6.330 -1.5961  0.2790  0.0111
25161SOL     OW81445  11.903  11.380  10.091  0.0474  0.2659  0.2484
25161SOL    HW181446  11.935  11.441  10.158  1.7321  1.5856 -1.6206
25161SOL    HW281447  11.855  11.313  10.140  0.6933  1.4640  2.6857
25162SOL     OW81448   3.866   6.446   1.063 -0.5294  0.0544 -0.1289
25162SOL    HW181449   3.791   6.483   1.017 -0.2382  0.0583 -0.6086
25162SOL    HW281450   3.829   6.386   1.127 -1.0210  1.1849  0.6792
25163SOL     OW81451   4.716   3.621   3.202  0.2707  0.0764  0.3882
25163SOL    HW181452   4.718   3.527   3.221  1.6469  0.2369  1.1789
25163SOL    HW281453   4.659   3.658   3.269 -0.0218 -0.1610  0.2693
25164SOL     OW81454   1.663   7.287   8.847 -0.5510  0.0507 -0.0525
25164SOL    HW181455   1.673   7.260   8.755  0.1706 -0.1815  0.0863
25164SOL    HW281456   1.578   7.252   8.873 -0.4505 -0.4817 -0.4282
25165SOL     OW81457   1.536   1.558   6.574 -0.4404  0.1847 -0.1222
25165SOL    HW181458   1.506   1.632   6.520 -1.6143  1.3117  1.9416
25165SOL    HW281459   1.457   1.506   6.588  0.4057 -1.5877 -1.6511
25166SOL     OW81460  10.534  10.116   5.019 -0.2302  0.5924  0.4210
25166SOL    HW181461  10.537  10.098   5.113 -0.3925  0.4008  0.3914
25166SOL    HW281462  10.495  10.037   4.981  3.5393 -1.1258 -0.3077
25167SOL     OW81463   9.616   8.473  11.175 -0.2900 -0.2564  0.1998
25167SOL    HW181464   9.529   8.487  11.212 -0.2447 -0.5738  0.4296
25167SOL    HW281465   9.676   8.498  11.245 -0.1664  1.1807 -0.3805
25168SOL     OW81466   6.580   9.217   3.363  0.4653  0.6325 -0.3618
25168SOL    HW181467   6.595   9.125   3.384  0.0070  0.3445 -1.2420
25168SOL    HW281468   6.551   9.256   3.446  0.9411  0.0547  0.0869
25169SOL     OW81469   1.632   4.834   8.697 -0.3096  0.4417  0.1166
25169SOL    HW181470   1.608   4.743   8.681 -1.1793  0.5574  0.7050
25169SOL    HW281471   1.667   4.865   8.614 -1.8592  0.1453 -0.6768
25170SOL     OW81472   4.105   4.815   8.207 -0.1389  0.1497  0.2562
25170SOL    HW181473   4.050   4.742   8.179 -0.4214  0.6861 -0.6514
25170SOL    HW281474   4.166   4.828   8.134  0.9237 -0.1537  1.0645
25171SOL     OW81475   5.382   8.877  10.487  0.1900  0.5757  0.7512
25171SOL    HW181476   5.346   8.929  10.415  0.5430 -0.1614  0.0238
25171SOL    HW281477   5.345   8.916  10.566 -1.8473  0.1020  0.0675
25172SOL     OW81478   9.848   6.109   8.220 -0.0461 -0.0224 -0.1578
25172SOL    HW181479   9.916   6.064   8.269  0.5178  0.9986  0.0213
25172SOL    HW281480   9.881   6.112   8.130  1.3861  2.7183  0.3766
25173SOL     OW81481  11.471   1.270   4.881  0.4116  0.1265 -0.0606
25173SOL    HW181482  11.399   1.321   4.918 -0.7157 -2.3445  1.4375
25173SOL    HW281483  11.431   1.215   4.815  0.4717 -2.4005  1.8460
25174SOL     OW81484   5.315   3.020  11.558  0.2633 -0.6019  0.3203
25174SOL    HW181485   5.272   2.945  11.599  1.6767 -2.7720 -1.8704
25174SOL    HW281486   5.406   2.993  11.549  1.2315  2.1485  1.0222
25175SOL     OW81487   1.462   2.735   8.593  0.1091 -0.6836 -0.4798
25175SOL    HW181488   1.531   2.785   8.549  1.3380 -1.6695  0.2476
25175SOL    HW281489   1.438   2.667   8.531 -0.5075 -0.0896 -0.8947
25176SOL     OW81490   7.404   3.231   8.682 -0.0006  0.0374  0.4483
25176SOL    HW181491   7.327   3.179   8.659 -0.8739  0.9854  1.1117
25176SOL    HW281492   7.378   3.277   8.762  0.7277  1.4873 -0.1131
25177SOL     OW81493   2.637  11.624   7.786  0.2219 -0.3706  0.8004
25177SOL    HW181494   2.625  11.719   7.796  0.1599 -0.2531 -0.2173
25177SOL    HW281495   2.610  11.607   7.695 -0.6668 -1.5105  1.2527
25178SOL     OW81496   3.501  12.064   4.889  0.1289  0.1601 -0.0204
25178SOL    HW181497   3.449  12.037   4.965  0.8721 -1.4860 -0.0600
25178SOL    HW281498   3.577  12.109   4.927  0.0772  0.0986  0.1566
25179SOL     OW81499  11.570   8.828   1.140  0.1365 -0.3378  0.1391
25179SOL    HW181500  11.559   8.750   1.194 -0.1376 -0.3940  0.0078
25179SOL    HW281501  11.655   8.864   1.165  0.2394 -0.6517  0.2357
25180SOL     OW81502   2.726   3.045   0.380  0.3956 -0.0545  0.3654
25180SOL    HW181503   2.712   3.084   0.293  0.8046 -0.8381 -0.0671
25180SOL    HW281504   2.661   3.087   0.436 -1.8184 -1.5108 -0.9296
25181SOL     OW81505   8.694   2.777   8.270  0.4355 -0.4713 -0.5736
25181SOL    HW181506   8.771   2.767   8.325 -0.5388 -0.3446  0.8481
25181SOL    HW281507   8.712   2.854   8.217 -0.4694  2.3127  2.8563
25182SOL     OW81508   8.934   3.692   3.420 -0.1475 -0.1382  0.4857
25182SOL    HW181509   8.972   3.697   3.507 -0.9201 -0.0557  0.8308
25182SOL    HW281510   8.889   3.607   3.419 -1.5885  0.5962  0.7878
25183SOL     OW81511   6.823   5.397  11.109  0.2398 -0.8922 -0.6061
25183SOL    HW181512   6.914   5.370  11.104 -0.3921 -3.4520  0.0478
25183SOL    HW281513   6.786   5.346  11.181 -1.6932  0.1469 -0.7690
25184SOL     OW81514   9.472   7.792   0.704 -0.1419  0.2411  0.4248
25184SOL    HW181515   9.471   7.697   0.694 -0.4292  0.3139 -0.2417
25184SOL    HW281516   9.551   7.809   0.756  1.5698 -0.1311 -1.9003
25185SOL     OW81517   7.775   7.905   6.208  0.8858 -0.6252  0.0203
25185SOL    HW181518   7.706   7.961   6.173 -1.0845 -2.3480  0.8697
25185SOL    HW281519   7.824   7.876   6.131  1.8641  2.0003 -0.4486
25186SOL     OW81520   3.725  12.402   3.428 -0.0852  0.2824  0.0750
25186SOL    HW181521   3.642  12.378   3.468 -0.3769  1.1605  0.0116
25186SOL    HW281522   3.721  12.497   3.419  0.1752  0.1573 -1.6005
25187SOL     OW81523   9.681   7.759   0.002 -0.2122  0.2466 -0.4497
25187SOL    HW181524   9.691   7.819   0.075 -0.2655 -0.3521  0.0591
25187SOL    HW281525   9.754   7.698   0.010 -0.7477 -0.4036 -0.3132
25188SOL     OW81526   4.798   9.738   5.795  0.0356 -0.1027 -0.2555
25188SOL    HW181527   4.748   9.697   5.865 -1.0895  0.4300 -0.7181
25188SOL    HW281528   4.864   9.673   5.771  0.5000 -0.2709  1.3253
25189SOL     OW81529   1.888  10.085  10.008  0.1371 -0.1748  0.1659
25189SOL    HW181530   1.819  10.151  10.013  0.7898  0.6074 -0.8836
25189SOL    HW281531   1.843  10.002  10.026 -1.3779  0.1530 -1.7307
25190SOL     OW81532   9.263   8.104   0.964 -0.1735  0.1505 -0.1031
25190SOL    HW181533   9.316   8.182   0.975  0.7721 -0.4170 -0.5157
25190SOL    HW281534   9.259   8.090   0.869 -0.7563 -0.0231 -0.0613
25191SOL     OW81535  10.453   1.019   5.841 -0.3004 -0.1647  0.0446
25191SOL    HW181536  10.460   1.034   5.935 -0.7033  3.3017 -0.3639
25191SOL    HW281537  10.492   0.932   5.828  0.3825 -0.4727  3.2791
25192SOL     OW81538   0.388   2.707  10.466 -0.6439  0.0678 -0.0124
25192SOL    HW181539   0.305   2.741  10.431 -0.7974  1.8344  1.8765
25192SOL    HW281540   0.362   2.649  10.538 -0.2700 -1.8527 -1.3506
25193SOL     OW81541   0.777   3.320   4.082 -0.0276 -0.0401 -0.2167
25193SOL    HW181542   0.808   3.411   4.076 -1.3473  0.5333  0.8435
25193SOL    HW281543   0.806   3.292   4.169 -1.6786  0.2280  0.4501
25194SOL     OW81544   7.241   8.594   2.014  0.0193  0.5647  0.2393
25194SOL    HW181545   7.264   8.686   1.998 -0.4875  1.1047  2.3131
25194SOL    HW281546   7.234   8.588   2.110 -2.9501 -0.8903  0.0394
25195SOL     OW81547   1.098   1.606   1.421  0.0705  0.3742  0.0611
25195SOL    HW181548   1.050   1.599   1.503 -0.0785  0.0388 -0.0527
25195SOL    HW281549   1.186   1.634   1.447 -0.5263  2.2917  0.1703
25196SOL     OW81550   2.207   5.156   9.118 -0.0387  0.0376  0.4417
25196SOL    HW181551   2.226   5.068   9.149  2.1443  0.1124 -0.4783
25196SOL    HW281552   2.201   5.209   9.197  0.0274 -0.7013  0.9463
25197SOL     OW81553   6.364   4.808   4.350 -0.7156  0.5247 -0.1247
25197SOL    HW181554   6.382   4.742   4.416  1.5341  0.4995 -0.6978
25197SOL    HW281555   6.328   4.759   4.276 -0.5516  0.1612  0.0360
25198SOL     OW81556   0.324   5.705   8.859 -0.3549 -0.3993 -0.2797
25198SOL    HW181557   0.251   5.685   8.801  0.1362  0.4306 -1.1939
25198SOL    HW281558   0.283   5.728   8.942 -1.1710  0.5522 -0.9256
25199SOL     OW81559   4.383   6.405   6.428 -0.0156  0.5796 -0.0545
25199SOL    HW181560   4.323   6.361   6.488  0.2125 -0.5925 -0.6650
25199SOL    HW281561   4.456   6.434   6.484 -0.4950  0.8094  0.4604
25200SOL     OW81562   4.244   1.969   3.917 -0.4005  0.5098 -0.2336
25200SOL    HW181563   4.334   1.996   3.900 -0.9444  1.7864 -1.2711
25200SOL    HW281564   4.245   1.936   4.007  1.3444 -0.6673 -0.6475
25201SOL     OW81565   1.462   2.003   2.884  0.4313  0.5684 -0.4201
25201SOL    HW181566   1.529   2.069   2.899 -0.0699  1.5794 -2.2797
25201SOL    HW281567   1.382   2.052   2.869 -0.4864 -0.5755  0.5059
25202SOL     OW81568  12.242   5.170   1.046  0.2864 -0.0748  0.0685
25202SOL    HW181569  12.231   5.088   0.998  0.4570 -0.3350  0.4768
25202SOL    HW281570  12.296   5.147   1.122  1.2204  0.6121 -0.3595
25203SOL     OW81571   8.510   5.036   7.444  0.3482  0.0429  0.2756
25203SOL    HW181572   8.543   4.984   7.371  1.4975 -0.2521  0.9920
25203SOL    HW281573   8.581   5.097   7.465  0.3354 -0.3632  1.6079
25204SOL     OW81574   6.476   7.590  12.123 -0.0370 -0.0086 -0.5403
25204SOL    HW181575   6.560   7.632  12.109 -0.1285  0.5201  0.4286
25204SOL    HW281576   6.414   7.642  12.071  0.3354 -0.8527 -1.8626
25205SOL     OW81577   5.728  11.978   9.848  0.0644 -0.4856 -0.2289
25205SOL    HW181578   5.704  11.952   9.937 -0.1255 -1.2573 -0.4967
25205SOL    HW281579   5.748  12.071   9.855 -1.6575 -0.1186  0.2740
25206SOL     OW81580   5.644  11.024  11.759 -0.3814  1.1224 -0.2203
25206SOL    HW181581   5.606  11.034  11.846 -0.6372 -0.8911 -0.0574
25206SOL    HW281582   5.737  11.008  11.774 -0.4510  0.6304 -0.3057
25207SOL     OW81583   6.310  10.184   0.428 -0.3862 -0.1798 -0.3796
25207SOL    HW181584   6.383  10.240   0.457  0.7945 -1.5450 -0.6063
25207SOL    HW281585   6.290  10.130   0.504  0.6244 -1.6040 -1.0822
25208SOL     OW81586   5.632   2.547  10.909  0.1543 -0.2244  0.3245
25208SOL    HW181587   5.563   2.485  10.935  0.2812  0.7659  3.5360
25208SOL    HW281588   5.645   2.531  10.816 -2.0450 -2.7809  0.3228
25209SOL     OW81589  11.650   6.290  10.934  0.1179 -0.5897 -0.0249
25209SOL    HW181590  11.578   6.292  10.871  0.9481 -2.7453 -1.1381
25209SOL    HW281591  11.694   6.374  10.922 -0.5715 -0.3828 -1.3455
25210SOL     OW81592  12.279   8.806   1.734  0.0031 -0.9172  0.0721
25210SOL    HW181593  12.262   8.724   1.687 -1.1817  0.7298 -2.5646
25210SOL    HW281594  12.199   8.822   1.783 -0.6258 -0.3114 -1.1108
25211SOL     OW81595   3.507   6.249   5.952 -0.0396 -0.5083 -0.1336
25211SOL    HW181596   3.507   6.341   5.927  2.5806 -0.5708 -0.6937
25211SOL    HW281597   3.580   6.211   5.904  0.0152 -2.5002  1.3736
25212SOL     OW81598   8.777   9.307   9.230  0.0907 -0.0092  0.0259
25212SOL    HW181599   8.752   9.215   9.224  0.5704 -0.3651  2.2468
25212SOL    HW281600   8.868   9.308   9.198  0.1553 -0.3578  0.1817
25213SOL     OW81601  11.676   4.682   3.328 -0.8435 -0.2670 -0.0535
25213SOL    HW181602  11.584   4.658   3.320 -0.7219 -0.5575 -0.6507
25213SOL    HW281603  11.699   4.719   3.243 -0.2718 -0.6939 -0.0934
25214SOL     OW81604   3.205   3.263  12.474  0.0364 -0.2339 -0.0376
25214SOL    HW181605   3.287   3.281  12.428  0.6815 -2.2099  0.2337
25214SOL    HW281606   3.143   3.242  12.404  0.6791 -1.9922 -0.1223
25215SOL     OW81607   6.126   6.762   4.326  0.3317 -0.6965 -0.1438
25215SOL    HW181608   6.192   6.829   4.308 -1.0567  0.9199  0.5621
25215SOL    HW281609   6.166   6.706   4.392  0.8364  0.5327  0.6279
25216SOL     OW81610   1.990  11.274   2.212 -0.7669 -0.4867 -0.1513
25216SOL    HW181611   1.908  11.317   2.190 -0.9355 -1.3976 -1.3840
25216SOL    HW281612   1.994  11.278   2.308 -1.8890  0.2058 -0.1169
25217SOL     OW81613  12.438   9.708   5.948 -0.5256 -0.2037  0.5595
25217SOL    HW181614  12.452   9.799   5.976 -2.4346 -0.1543  1.4849
25217SOL    HW281615  12.426   9.714   5.853 -2.3303  0.7774  0.8132
25218SOL     OW81616   8.311   8.034   0.241 -0.6509  0.4489 -0.1066
25218SOL    HW181617   8.310   8.123   0.206 -1.7072  0.1732 -0.8396
25218SOL    HW281618   8.374   8.036   0.312 -0.7222  1.8084 -0.0660
25219SOL     OW81619   2.106   3.187   3.717 -0.1470  0.0407  0.4815
25219SOL    HW181620   2.065   3.104   3.739  0.4509 -0.4975 -0.3645
25219SOL    HW281621   2.033   3.248   3.705 -0.7832 -1.0017 -1.4171
25220SOL     OW81622   7.704   4.351  11.707 -0.4862  0.5297 -0.4088
25220SOL    HW181623   7.791   4.363  11.743 -1.3017  3.1489  0.8927
25220SOL    HW281624   7.672   4.270  11.747  0.6903  0.4540  0.4223
25221SOL     OW81625   5.418   1.110   2.128  0.3016 -0.4232 -0.1396
25221SOL    HW181626   5.397   1.052   2.201  0.9553 -0.0947  0.3132
25221SOL    HW281627   5.336   1.156   2.110  0.2730 -0.0961  0.7602
25222SOL     OW81628   6.383   9.096   4.237  0.0165  0.1848  0.3856
25222SOL    HW181629   6.465   9.129   4.273  1.2261  0.0297 -2.0476
25222SOL    HW281630   6.333   9.175   4.217 -0.1148  0.3006  1.1322
25223SOL     OW81631   3.652   7.537   9.846 -0.0653  0.4300 -0.1910
25223SOL    HW181632   3.679   7.619   9.804  1.3018  0.2907  0.3554
25223SOL    HW281633   3.661   7.472   9.776  0.6386  0.4554 -0.1293
25224SOL     OW81634   4.512  10.104   6.859  0.5383 -0.2850 -0.0541
25224SOL    HW181635   4.535  10.106   6.952 -0.5350 -0.6904  0.2264
25224SOL    HW281636   4.448  10.173   6.848  1.5457  0.5687 -0.7606
25225SOL     OW81637   6.696   5.008   9.150 -0.2189 -0.3466 -0.3401
25225SOL    HW181638   6.649   5.045   9.224 -0.6208 -1.9429  0.2478
25225SOL    HW281639   6.757   5.077   9.124  1.4287 -0.4092  2.8145
25226SOL     OW81640   3.842   4.735   3.253 -0.3176  0.2201 -0.5135
25226SOL    HW181641   3.785   4.657   3.251 -0.0093  0.0186 -2.2585
25226SOL    HW281642   3.787   4.806   3.223 -0.4661  0.6247  0.6525
25227SOL     OW81643   1.752   5.190   3.126 -0.0190 -0.4233  0.4377
25227SOL    HW181644   1.827   5.141   3.160 -1.2502 -2.0023  0.9640
25227SOL    HW281645   1.720   5.139   3.052  0.7291  1.3923 -1.2229
25228SOL     OW81646   6.761  11.272   5.331 -0.7838 -0.6509  0.6205
25228SOL    HW181647   6.795  11.266   5.242 -1.5339 -0.7372  0.3293
25228SOL    HW281648   6.745  11.181   5.356  1.0261 -0.7553  1.4954
25229SOL     OW81649   9.507   1.423  12.248  0.1499 -0.1777 -0.5090
25229SOL    HW181650   9.448   1.498  12.252 -0.1733 -0.3938 -1.1212
25229SOL    HW281651   9.451   1.349  12.224  0.6171 -0.4461 -0.7936
25230SOL     OW81652   4.634   6.733   3.260 -0.2087  0.7970  0.4271
25230SOL    HW181653   4.641   6.801   3.327  0.9035 -1.4343  2.7723
25230SOL    HW281654   4.560   6.679   3.289  1.5522 -1.3900  1.1711
25231SOL     OW81655  12.450   1.647   6.730  0.1358  0.2712 -0.6403
25231SOL    HW181656  12.543   1.655   6.749  0.0647 -1.5156  0.7252
25231SOL    HW281657  12.407   1.662   6.815 -0.6351 -1.2880 -0.7231
25232SOL     OW81658   4.853   1.993   5.585  0.4372 -0.1411 -0.3918
25232SOL    HW181659   4.870   1.950   5.669 -0.5534 -0.2294 -0.2219
25232SOL    HW281660   4.777   2.048   5.602  0.8710  0.6493 -0.9685
25233SOL     OW81661   2.683  10.467  12.433 -0.2575 -0.1208 -0.0007
25233SOL    HW181662   2.659  10.486  12.342 -0.1384 -0.0900 -0.0259
25233SOL    HW281663   2.676  10.372  12.440  0.0306 -0.1524 -0.1277
25234SOL     OW81664   5.538   8.255   2.111 -0.0126  0.0035  0.3491
25234SOL    HW181665   5.516   8.169   2.147 -0.9152  0.2333  0.3683
25234SOL    HW281666   5.546   8.312   2.187 -0.6688  0.2108  0.2659
25235SOL     OW81667   6.190  11.716  10.779 -0.0549 -0.7704  0.0311
25235SOL    HW181668   6.246  11.721  10.702  0.1925 -0.0228  0.2487
25235SOL    HW281669   6.248  11.737  10.852 -0.4385 -0.7783  0.3440
25236SOL     OW81670  10.499  10.724   8.707  0.6905 -0.4863  0.5019
25236SOL    HW181671  10.564  10.793   8.697  0.8554 -0.8244 -0.9801
25236SOL    HW281672  10.529  10.672   8.781  0.9944  0.5494  1.1142
25237SOL     OW81673  10.868   4.779   5.038 -0.0664  0.5854  0.2321
25237SOL    HW181674  10.834   4.826   5.114  1.6254 -0.1480  1.5061
25237SOL    HW281675  10.796   4.780   4.975 -1.3885  1.5477  1.6810
25238SOL     OW81676   9.148   9.094   9.205  0.0664  0.5487 -0.1918
25238SOL    HW181677   9.224   9.152   9.215  0.1452  0.6461 -1.2666
25238SOL    HW281678   9.139   9.053   9.291 -0.8044  3.1237  1.0470
25239SOL     OW81679   2.079   4.723   5.649  0.0277 -0.1982 -0.5878
25239SOL    HW181680   2.142   4.675   5.594  0.6834  0.8855 -0.8129
25239SOL    HW281681   2.097   4.815   5.630 -2.1219  0.1491 -1.2181
25240SOL     OW81682  12.033   8.037   0.807  0.3288  0.0876 -0.4549
25240SOL    HW181683  12.085   8.007   0.881  0.1310  0.2837 -0.2364
25240SOL    HW281684  11.949   8.061   0.845  0.5703  1.1867 -0.5757
25241SOL     OW81685   1.460   1.328   0.224  0.3631 -0.3433 -0.9306
25241SOL    HW181686   1.457   1.347   0.318  0.7872  1.2493 -1.2136
25241SOL    HW281687   1.399   1.391   0.185  0.8693 -0.3795 -1.8040
25242SOL     OW81688   6.039  11.915   0.698  0.3640 -0.3448  0.1296
25242SOL    HW181689   6.097  11.841   0.717 -0.6134 -1.1779 -0.0266
25242SOL    HW281690   6.038  11.920   0.602  1.1285  0.4684  0.1454
25243SOL     OW81691   5.688   1.796   5.821  0.3090 -0.2136  0.4065
25243SOL    HW181692   5.619   1.861   5.809  0.2042 -0.5131 -0.6955
25243SOL    HW281693   5.647   1.713   5.800  1.0482 -0.3720 -0.4859
25244SOL     OW81694  10.803   1.831   6.586 -0.2700  0.2001  0.5614
25244SOL    HW181695  10.831   1.784   6.507 -1.7842 -0.4691  0.3745
25244SOL    HW281696  10.802   1.923   6.560 -0.6393 -0.0043 -0.1761
25245SOL     OW81697   0.584  11.949   2.680  0.3244  0.9019 -0.0994
25245SOL    HW181698   0.645  11.963   2.752  0.0152  0.7702  0.1940
25245SOL    HW281699   0.510  12.007   2.700 -0.4995 -0.3237  0.5741
25246SOL     OW81700   8.606   2.515   7.500  0.1913  0.0957  0.2714
25246SOL    HW181701   8.534   2.556   7.547 -1.3580 -2.3847  0.2217
25246SOL    HW281702   8.594   2.543   7.409 -0.0719  0.5037  0.4254
25247SOL     OW81703   9.006   6.764   2.566 -0.0097 -0.1349  0.3067
25247SOL    HW181704   8.966   6.726   2.488  0.2452 -0.0580  0.1388
25247SOL    HW281705   9.027   6.854   2.542 -1.0629  0.2807  0.8609
25248SOL     OW81706   3.436   2.268  12.371 -0.0861  1.1905 -0.0070
25248SOL    HW181707   3.409   2.214  12.445  2.5622  0.2390  0.3827
25248SOL    HW281708   3.407   2.356  12.394 -0.6266  0.6649  1.4753
25249SOL     OW81709   8.929   4.097  10.501 -0.0696 -0.5050  0.4294
25249SOL    HW181710   8.954   4.096  10.594 -1.1437  0.0038  0.7402
25249SOL    HW281711   8.958   4.183  10.470 -2.4371  0.6387  1.1235
25250SOL     OW81712  10.509  10.761   1.045 -0.1244  0.1771 -0.3249
25250SOL    HW181713  10.575  10.785   1.110  0.2861  0.2311 -0.7607
25250SOL    HW281714  10.468  10.682   1.081  0.3485  0.0005 -0.1715
25251SOL     OW81715   1.849   1.241   3.862  0.1793 -0.0287 -0.3386
25251SOL    HW181716   1.924   1.281   3.817 -0.5255  1.3073 -0.4072
25251SOL    HW281717   1.887   1.179   3.924  1.4632  1.7353  0.7360
25252SOL     OW81718  11.958  10.437   6.978 -0.0399 -0.1276 -0.0312
25252SOL    HW181719  11.999  10.351   6.967  0.5244  0.2495 -1.1243
25252SOL    HW281720  12.015  10.483   7.040 -0.5828 -0.6791  0.8877
25253SOL     OW81721   7.387   9.912   2.211 -0.2816  0.2933  0.2723
25253SOL    HW181722   7.333   9.899   2.134 -0.2059 -1.7420  0.5033
25253SOL    HW281723   7.455   9.973   2.183 -1.3259  1.0499 -0.6932
25254SOL     OW81724   1.970   7.342   6.156  0.3034  0.2959  0.3753
25254SOL    HW181725   1.949   7.286   6.231  0.9336 -0.3317  0.0894
25254SOL    HW281726   1.951   7.289   6.080  1.1579  0.3646  0.1006
25255SOL     OW81727   2.490   5.460  12.453 -0.0637  0.3087  0.2193
25255SOL    HW181728   2.396   5.472  12.435 -0.4851 -0.1266  1.9047
25255SOL    HW281729   2.530   5.453  12.367 -1.2796  2.5856 -0.6105
25256SOL     OW81730   0.979  11.205   9.941 -0.1631 -0.2559 -0.0322
25256SOL    HW181731   0.986  11.117   9.975 -1.7014 -0.1723  0.5766
25256SOL    HW281732   0.992  11.196   9.846 -0.2093 -1.1253  0.0441
25257SOL     OW81733   7.528   6.790   5.466 -0.7545  0.5673  0.1293
25257SOL    HW181734   7.459   6.834   5.515 -1.0816  0.3367 -0.1191
25257SOL    HW281735   7.511   6.697   5.479 -1.1326  0.4949 -0.8025
25258SOL     OW81736   8.397   8.685   7.664  0.0913 -0.0558  0.9894
25258SOL    HW181737   8.419   8.778   7.669  0.8408 -0.1986  0.5178
25258SOL    HW281738   8.372   8.662   7.753  0.9448  0.3593  1.3540
25259SOL     OW81739   9.167   4.591   3.372 -0.5019  0.1708  0.3701
25259SOL    HW181740   9.082   4.630   3.351 -1.2783 -0.6775  1.7336
25259SOL    HW281741   9.210   4.655   3.428 -1.4115 -0.4900  1.8947
25260SOL     OW81742   3.823  12.234   0.112 -0.0140 -0.6521 -1.0605
25260SOL    HW181743   3.860  12.320   0.093  1.1325 -0.9840 -0.4760
25260SOL    HW281744   3.729  12.244   0.100  0.0451  0.8239 -0.4706
25261SOL     OW81745   4.019   5.565  11.058  0.9579  0.0052  0.1840
25261SOL    HW181746   4.095   5.571  11.115  0.1890  1.4499  1.1087
25261SOL    HW281747   3.949   5.533  11.115  0.1782  1.4480  0.0717
25262SOL     OW81748   0.610   4.801   3.983  0.3366 -0.0508 -0.2361
25262SOL    HW181749   0.685   4.757   3.943  0.1726 -1.2304  0.6919
25262SOL    HW281750   0.568   4.848   3.911  1.9982  0.7075 -0.7642
25263SOL     OW81751   4.873  11.627  11.171  0.3239 -0.1492 -0.3394
25263SOL    HW181752   4.798  11.662  11.122 -0.6401 -1.6576 -0.0155
25263SOL    HW281753   4.834  11.567  11.234  1.7014  0.3153  1.0119
25264SOL     OW81754   1.896   0.675   2.738  0.0401  0.1090  0.7959
25264SOL    HW181755   1.958   0.611   2.774  0.6996  0.0790 -0.3492
25264SOL    HW281756   1.820   0.623   2.713  0.0663 -0.0411  1.0187
25265SOL     OW81757   2.820  10.324  12.098 -0.3193 -0.2334  0.2769
25265SOL    HW181758   2.910  10.328  12.130 -0.4254  0.5387  0.4813
25265SOL    HW281759   2.829  10.302  12.005  0.1036  0.2376  0.2027
25266SOL     OW81760   0.197  12.217   0.746  0.0027 -0.2645  0.2654
25266SOL    HW181761   0.154  12.145   0.792 -0.0569 -0.2233  0.2741
25266SOL    HW281762   0.150  12.226   0.664  1.6888 -2.0301 -0.9926
25267SOL     OW81763   8.130  10.332   9.612  0.1662 -0.5634  0.0969
25267SOL    HW181764   8.173  10.365   9.533 -1.0415  0.8548 -0.0172
25267SOL    HW281765   8.200  10.294   9.664  0.8973 -2.2937 -1.9889
25268SOL     OW81766   3.892   0.156  10.144  0.2067 -0.1487  0.0803
25268SOL    HW181767   3.802   0.135  10.166 -0.0284  0.6700 -0.0516
25268SOL    HW281768   3.886   0.241  10.100  1.1330  0.3173  0.8346
25269SOL     OW81769   8.083   8.899   7.309  0.4593 -0.4286  0.3159
25269SOL    HW181770   8.021   8.879   7.379  0.3318 -1.7544 -0.1594
25269SOL    HW281771   8.143   8.963   7.347 -0.2556 -0.3119  1.2765
25270SOL     OW81772  12.160   6.474  11.959  0.3513 -0.2151 -0.4574
25270SOL    HW181773  12.092   6.499  12.022  0.9194  2.0527 -0.6627
25270SOL    HW281774  12.236   6.451  12.013  0.2347 -0.1917 -0.2820
25271SOL     OW81775  12.164   4.034   4.210  0.7673  0.2220  0.8354
25271SOL    HW181776  12.135   4.091   4.281 -0.9581 -0.1110  0.4509
25271SOL    HW281777  12.083   4.004   4.169  1.7073  0.0153 -0.9713
25272SOL     OW81778   1.157   2.900   7.024 -0.0746 -0.1383 -0.2962
25272SOL    HW181779   1.198   2.971   6.974  0.6505 -0.6850 -0.4878
25272SOL    HW281780   1.166   2.823   6.968 -0.4294 -0.4866  0.1184
25273SOL     OW81781   0.914  11.462   7.799  0.4646 -0.4887 -0.0266
25273SOL    HW181782   0.918  11.367   7.784  0.4666 -0.4266 -0.4224
25273SOL    HW281783   0.868  11.496   7.722  0.6142 -0.1485  0.0345
25274SOL     OW81784  10.570   6.811   4.987 -0.1995  0.0865 -0.2746
25274SOL    HW181785  10.487   6.829   5.032 -0.1240 -0.1207 -0.0465
25274SOL    HW281786  10.543   6.779   4.901 -0.3497  0.3769 -0.3363
25275SOL     OW81787   7.312   1.242   2.338 -0.7874  0.2420  0.0754
25275SOL    HW181788   7.357   1.264   2.256  0.6455 -0.9201  0.5019
25275SOL    HW281789   7.294   1.148   2.330 -0.6592  0.1243  1.0806
25276SOL     OW81790   3.664   1.405   9.519 -0.2569 -0.3575 -0.3794
25276SOL    HW181791   3.671   1.421   9.425 -0.6977 -1.0669 -0.5408
25276SOL    HW281792   3.636   1.314   9.526  0.3728 -0.4992  0.4618
25277SOL     OW81793  10.326   9.505   0.997  0.1600 -0.2016 -0.2898
25277SOL    HW181794  10.288   9.553   0.924 -0.5558  0.2384  0.3543
25277SOL    HW281795  10.255   9.501   1.062  0.3595 -1.6924 -0.1261
25278SOL     OW81796  11.959  11.266   2.024 -0.7504 -0.8584  0.8520
25278SOL    HW181797  11.949  11.171   2.019 -0.5782 -0.8614  0.5696
25278SOL    HW281798  11.967  11.295   1.933 -0.8447 -0.5681  0.9328
25279SOL     OW81799   0.261   3.739   3.208 -0.0472 -0.3309 -0.2882
25279SOL    HW181800   0.256   3.729   3.303 -0.9442  1.5295 -0.0998
25279SOL    HW281801   0.193   3.803   3.186 -1.4599 -2.3763 -2.4872
25280SOL     OW81802   9.318   0.221   8.197 -0.0066 -0.3382  0.0637
25280SOL    HW181803   9.301   0.274   8.119  0.7019 -1.2825 -0.7694
25280SOL    HW281804   9.245   0.240   8.255 -0.7159  0.1720 -0.9545
25281SOL     OW81805  12.403   1.517   9.900 -0.4945  0.4638 -0.5601
25281SOL    HW181806  12.361   1.579   9.959  0.0061  1.6480 -1.4097
25281SOL    HW281807  12.470   1.569   9.854  1.4786 -1.1921  0.2811
25282SOL     OW81808   3.200   7.613  10.633  0.0791 -0.0053 -0.1253
25282SOL    HW181809   3.122   7.585  10.585  1.1409 -1.8208 -0.8932
25282SOL    HW281810   3.206   7.550  10.706 -0.0488  1.1187  0.8877
25283SOL     OW81811   6.301  12.360   9.022 -0.3187  0.1726 -0.3120
25283SOL    HW181812   6.384  12.361   8.974 -0.8672 -0.8582 -1.3442
25283SOL    HW281813   6.240  12.408   8.965 -0.7985 -0.4254 -0.3201
25284SOL     OW81814  12.260   7.146  10.308  0.2553  1.1257 -0.0590
25284SOL    HW181815  12.353   7.142  10.329  0.3868 -0.7489 -0.8854
25284SOL    HW281816  12.216   7.130  10.392  0.7399 -1.8618 -0.2845
25285SOL     OW81817   9.187   0.607   7.987  0.3444  0.0651  0.2984
25285SOL    HW181818   9.171   0.666   8.061  3.1328 -0.4657  1.4734
25285SOL    HW281819   9.239   0.659   7.926  0.0590 -0.2111 -0.1869
25286SOL     OW81820   9.526   7.568   5.064 -0.5519  0.0508 -0.2846
25286SOL    HW181821   9.613   7.560   5.104 -0.9811  0.1481  0.7098
25286SOL    HW281822   9.544   7.591   4.973  0.4710 -0.3939 -0.2164
25287SOL     OW81823   3.716   3.406   1.581 -0.0410 -0.6721  0.1322
25287SOL    HW181824   3.644   3.401   1.644  2.0430 -0.9644  2.6873
25287SOL    HW281825   3.744   3.497   1.584  1.1786 -1.0431  1.0593
25288SOL     OW81826   8.614   4.010   1.420 -0.0188  0.3259 -0.0186
25288SOL    HW181827   8.570   4.094   1.435 -1.1194 -0.7147  3.3508
25288SOL    HW281828   8.692   4.014   1.475  0.4368 -0.5382 -0.5787
25289SOL     OW81829   4.496   5.415   5.180 -0.2631 -0.1156 -0.2043
25289SOL    HW181830   4.478   5.411   5.274  1.1384  1.4353  0.1738
25289SOL    HW281831   4.426   5.470   5.145  1.1723  2.3744  0.5819
25290SOL     OW81832   4.446  10.816   0.187 -0.3565  0.0648  0.8304
25290SOL    HW181833   4.391  10.794   0.263 -0.6195 -0.1769  0.5712
25290SOL    HW281834   4.413  10.901   0.158  0.7265  0.8878  1.8933
25291SOL     OW81835   3.379   4.016   6.764 -0.3923  0.1843 -0.1723
25291SOL    HW181836   3.441   4.051   6.700  0.6053  2.2115  1.7566
25291SOL    HW281837   3.293   4.030   6.724  0.2359  0.0530 -1.6444
25292SOL     OW81838   0.790   1.294  11.458  0.1719  0.1634 -0.5273
25292SOL    HW181839   0.749   1.220  11.413 -1.7133  1.0889 -0.4319
25292SOL    HW281840   0.880   1.295  11.426 -0.5955 -0.3016 -2.9025
25293SOL     OW81841   7.672   7.009   1.887  0.8710  0.1944 -0.5821
25293SOL    HW181842   7.750   7.063   1.874 -0.1215  1.2591 -2.5761
25293SOL    HW281843   7.599   7.071   1.883 -0.1701 -0.9946 -0.5456
25294SOL     OW81844   0.463   1.991   0.129  0.1070 -0.3155 -0.0552
25294SOL    HW181845   0.470   2.045   0.208  2.3503 -1.5433  0.6798
25294SOL    HW281846   0.478   1.902   0.160 -3.1125 -1.4331 -1.2853
25295SOL     OW81847   5.068   1.754  10.068  0.4420  0.1379 -0.2117
25295SOL    HW181848   5.067   1.669  10.112 -0.4844  0.0512 -0.3778
25295SOL    HW281849   5.011   1.741   9.991  1.1242  0.6096 -0.8062
25296SOL     OW81850   5.564  11.376   2.481  0.1070 -0.5345 -0.0612
25296SOL    HW181851   5.638  11.437   2.479  0.1459 -0.5701 -2.6151
25296SOL    HW281852   5.598  11.296   2.443 -1.0116 -0.8390 -0.4402
25297SOL     OW81853   1.941  10.387  12.216  0.1193  0.1268 -0.4463
25297SOL    HW181854   1.884  10.405  12.291 -0.3511  0.8315 -0.9569
25297SOL    HW281855   1.892  10.325  12.163  0.0920  0.2614 -0.5789
25298SOL     OW81856   4.662   9.383   6.132 -0.0598 -0.2647 -0.0513
25298SOL    HW181857   4.658   9.401   6.226  2.5215 -1.9206  0.4610
25298SOL    HW281858   4.687   9.291   6.126  1.4912  0.2404 -2.3313
25299SOL     OW81859   1.445   0.933   8.552 -0.0015  0.5279  0.5444
25299SOL    HW181860   1.414   1.021   8.535  1.3280  0.7752 -0.8756
25299SOL    HW281861   1.431   0.886   8.470 -0.1420 -0.4077  1.0885
25300SOL     OW81862   6.518   5.380   6.522  0.1595 -0.2108  0.5889
25300SOL    HW181863   6.432   5.347   6.547  0.8752 -2.7532 -0.0514
25300SOL    HW281864   6.506   5.418   6.435 -0.3247 -0.5835  0.4924
25301SOL     OW81865   2.471   5.798   1.784  0.0699 -0.7253  0.6022
25301SOL    HW181866   2.396   5.777   1.839 -0.0294 -0.3804  0.6029
25301SOL    HW281867   2.512   5.714   1.765 -0.5725 -0.9568  0.2442
25302SOL     OW81868   0.013  12.291   0.556  0.3029 -0.7146  0.3065
25302SOL    HW181869  -0.067  12.260   0.598 -0.1382  0.9215  0.7745
25302SOL    HW281870  -0.017  12.339   0.478  0.9615 -1.6045 -0.5295
25303SOL     OW81871   9.718  10.745   7.584  0.1793 -1.4213  0.5382
25303SOL    HW181872   9.705  10.726   7.677 -0.5606 -1.0647  0.5178
25303SOL    HW281873   9.667  10.825   7.569  0.2591 -1.5020 -0.1826
25304SOL     OW81874   3.858   1.771   3.151  0.1760 -0.1882 -0.2097
25304SOL    HW181875   3.810   1.696   3.186  1.3771 -0.6059  0.6071
25304SOL    HW281876   3.911   1.735   3.080 -0.7438  0.2863 -1.1678
25305SOL     OW81877   0.531  10.654  12.195  0.2097 -0.0994 -0.0987
25305SOL    HW181878   0.489  10.628  12.113 -0.6300  0.4087  0.1526
25305SOL    HW281879   0.537  10.574  12.246 -0.6896 -0.1433 -0.0483
25306SOL     OW81880   3.683   5.961   6.554  0.2741  0.2801  0.0335
25306SOL    HW181881   3.672   5.946   6.460 -0.4812  1.7159 -0.1307
25306SOL    HW281882   3.770   5.999   6.563  0.2276  0.4206 -0.1184
25307SOL     OW81883   2.452   1.220   6.102  0.4927  0.1994  0.0002
25307SOL    HW181884   2.480   1.291   6.045 -0.7979  0.7613  0.0276
25307SOL    HW281885   2.376   1.183   6.057  0.4390 -0.3966  0.5735
25308SOL     OW81886  10.811   1.959   8.521 -0.1498  0.2539  0.2545
25308SOL    HW181887  10.805   1.911   8.438 -0.9145  1.0602 -0.1833
25308SOL    HW281888  10.803   2.051   8.495  0.6612  0.5816  1.1338
25309SOL     OW81889  11.327   8.979   0.299  0.7520  0.2267 -0.3647
25309SOL    HW181890  11.286   9.042   0.240  0.9943 -1.0064 -1.9267
25309SOL    HW281891  11.295   8.893   0.270 -0.2278 -0.3909  2.2181
25310SOL     OW81892   0.273   6.742   5.570  0.2676  0.3888 -0.1256
25310SOL    HW181893   0.357   6.787   5.557  0.1769  0.9600  1.1393
25310SOL    HW281894   0.295   6.665   5.623  0.0595  0.2758 -0.2049
25311SOL     OW81895  10.814  12.425   6.119  0.2191 -0.2038  0.8542
25311SOL    HW181896  10.897  12.447   6.160  1.4087 -3.0818  0.2130
25311SOL    HW281897  10.776  12.358   6.176  0.8317 -2.6215 -1.4232
25312SOL     OW81898  12.221   6.341   4.323  0.1746 -0.7673 -0.1537
25312SOL    HW181899  12.134   6.375   4.303 -0.5022 -0.7833  2.3785
25312SOL    HW281900  12.206   6.251   4.354  1.1731 -0.9934 -0.2683
25313SOL     OW81901   4.019   8.942   4.451 -0.0603 -0.2752  0.5294
25313SOL    HW181902   4.027   9.013   4.387  1.5763 -0.4947  0.4400
25313SOL    HW281903   3.959   8.880   4.411 -0.4919  0.4514  0.0323
25314SOL     OW81904   8.766   9.347   8.908  0.6002  0.0920  0.0753
25314SOL    HW181905   8.778   9.360   8.814  0.4019 -0.9423 -0.1049
25314SOL    HW281906   8.826   9.276   8.931 -0.4464 -0.7185  0.4121
25315SOL     OW81907   7.908   5.713   4.716  0.6424  0.6578  0.3987
25315SOL    HW181908   7.858   5.782   4.760 -0.8346 -0.1071 -0.0499
25315SOL    HW281909   7.847   5.640   4.708  2.0819 -0.6068  0.5667
25316SOL     OW81910   2.850   7.433   6.853  0.4548 -1.0146 -0.2364
25316SOL    HW181911   2.934   7.440   6.807 -0.2205 -0.8055 -1.4933
25316SOL    HW281912   2.804   7.361   6.808  0.5505 -2.1926  1.4467
25317SOL     OW81913   4.942   0.480   5.456  0.5233 -0.1060  0.0842
25317SOL    HW181914   4.996   0.437   5.390 -0.8813 -0.5754 -0.8196
25317SOL    HW281915   4.879   0.413   5.483 -0.7483  0.9040 -0.2479
25318SOL     OW81916   7.720   7.873   7.958  0.7468 -0.2041 -0.0814
25318SOL    HW181917   7.764   7.936   7.901  1.6292  0.3575  1.1510
25318SOL    HW281918   7.792   7.822   7.996  0.2666 -0.0819  1.0377
25319SOL     OW81919   2.037   3.529  12.445 -0.9468  0.1505  0.6185
25319SOL    HW181920   2.064   3.494  12.530 -1.4097  1.3830  1.2872
25319SOL    HW281921   1.991   3.610  12.465 -0.3794  0.8836 -0.8632
25320SOL     OW81922   5.569   4.375  11.102 -0.4398 -0.0698 -0.8375
25320SOL    HW181923   5.497   4.360  11.165 -0.7906  1.2067 -0.8990
25320SOL    HW281924   5.627   4.437  11.147 -0.6576  0.8052 -1.7203
25321SOL     OW81925   7.103   3.149   9.846  0.2075 -0.1485 -0.1773
25321SOL    HW181926   7.132   3.115   9.931 -0.4110 -0.8935 -0.2482
25321SOL    HW281927   7.113   3.075   9.786 -1.3610 -0.2991 -0.2946
25322SOL     OW81928   4.820   3.942   5.495 -0.2640  0.0051  0.0328
25322SOL    HW181929   4.831   3.908   5.406 -1.8837 -0.8373  0.1190
25322SOL    HW281930   4.754   4.011   5.486 -0.5673 -0.2091  0.6024
25323SOL     OW81931   0.165   7.570  11.606  0.0448  0.3116  0.3094
25323SOL    HW181932   0.117   7.652  11.610 -2.4795 -1.1277  2.0034
25323SOL    HW281933   0.107   7.510  11.558 -1.5031 -2.3112  4.8366
25324SOL     OW81934   2.433   2.904   5.238 -0.4027 -0.2111  0.2868
25324SOL    HW181935   2.500   2.957   5.281  0.0060  0.2868 -0.9207
25324SOL    HW281936   2.449   2.916   5.144 -1.3889 -1.1028 -0.0193
25325SOL     OW81937   2.750   6.750  11.346 -0.4872  0.4207 -0.2146
25325SOL    HW181938   2.824   6.805  11.320 -1.4128  1.8726  0.0467
25325SOL    HW281939   2.680   6.813  11.366 -1.4262 -0.8509  0.6721
25326SOL     OW81940   0.690   8.817  10.840 -0.1462 -0.0203  0.3135
25326SOL    HW181941   0.627   8.745  10.832  0.6666 -0.7484  0.3721
25326SOL    HW281942   0.724   8.829  10.751 -1.4535  1.4056 -0.0437
25327SOL     OW81943   3.415  12.328   1.518  0.6214 -0.0740  0.2693
25327SOL    HW181944   3.483  12.389   1.545  0.4857  0.5109 -0.6746
25327SOL    HW281945   3.354  12.326   1.592  1.2525 -0.0040  0.8006
25328SOL     OW81946   7.219   7.882  10.075 -0.4035  0.2766 -0.5053
25328SOL    HW181947   7.258   7.896  10.161 -0.8841  0.7818 -0.3621
25328SOL    HW281948   7.174   7.798  10.083  0.5251 -0.2420 -0.6319
25329SOL     OW81949   5.765   6.915   4.183  0.1673  0.3398 -0.1841
25329SOL    HW181950   5.777   6.983   4.250  0.7385 -0.1116  0.1749
25329SOL    HW281951   5.818   6.945   4.109 -0.1468  0.6357 -0.2959
25330SOL     OW81952   9.127   7.741  11.946 -0.0564  0.1346  0.1122
25330SOL    HW181953   9.044   7.722  11.901 -0.1754 -0.4681  0.5705
25330SOL    HW281954   9.179   7.789  11.882 -1.1192  1.3824  0.1241
25331SOL     OW81955   8.725  10.530   0.847 -0.2861 -0.2405 -0.3362
25331SOL    HW181956   8.635  10.560   0.841 -0.0611  0.6844  0.6192
25331SOL    HW281957   8.718  10.436   0.864 -1.0294 -0.4817 -1.8399
25332SOL     OW81958  12.207   3.706  10.782  0.6754 -0.1673 -0.5290
25332SOL    HW181959  12.266   3.658  10.724  0.9762  0.9995 -1.2280
25332SOL    HW281960  12.246   3.794  10.789  0.8237 -0.3592  1.7213
25333SOL     OW81961   4.771   0.135  12.108 -0.4866 -0.1323 -0.3294
25333SOL    HW181962   4.840   0.086  12.153  0.9010 -0.2967 -2.4901
25333SOL    HW281963   4.811   0.220  12.087 -0.7629 -0.3494 -1.9007
25334SOL     OW81964   5.999   1.111   5.619  0.2456  0.2551  0.1945
25334SOL    HW181965   5.973   1.107   5.527  0.4131  0.3741  0.1420
25334SOL    HW281966   6.065   1.181   5.623  0.2752  0.2173  0.3952
25335SOL     OW81967   1.976  10.825   0.354  0.5733 -0.1267 -0.3340
25335SOL    HW181968   1.923  10.903   0.370  0.6452 -0.1993  0.2841
25335SOL    HW281969   2.026  10.846   0.274  2.8931  1.7208  1.4567
25336SOL     OW81970   8.847   0.449  12.426  0.4042 -0.4444  0.3554
25336SOL    HW181971   8.803   0.460  12.342 -2.1897 -0.0842  1.6580
25336SOL    HW281972   8.833   0.357  12.448  0.7582 -0.4462  0.5792
25337SOL     OW81973   0.111  10.219   5.688  0.3345 -1.1097  0.8591
25337SOL    HW181974   0.177  10.243   5.623 -0.5019 -0.6047  0.1623
25337SOL    HW281975   0.135  10.269   5.767 -0.4724  0.8981 -0.0890
25338SOL     OW81976   8.445   7.605   9.292  0.1393 -0.2163  0.4470
25338SOL    HW181977   8.464   7.513   9.274 -0.2898 -0.1137 -0.6040
25338SOL    HW281978   8.517   7.653   9.252 -0.3412 -0.0256 -0.1881
25339SOL     OW81979   4.573   5.913   9.224  0.1442  0.2094  0.1534
25339SOL    HW181980   4.517   5.858   9.169  1.2852 -0.6443 -0.2113
25339SOL    HW281981   4.595   5.858   9.299  0.4725  0.5376  0.3028
25340SOL     OW81982   4.261   1.781   1.019 -0.1696  0.5026  0.2284
25340SOL    HW181983   4.186   1.727   0.994 -1.1616  1.0908  1.8005
25340SOL    HW281984   4.302   1.735   1.092  1.5727 -0.2447 -1.1305
25341SOL     OW81985  11.665  11.649   1.701  0.3907 -0.2670  0.5744
25341SOL    HW181986  11.588  11.623   1.752  0.0573  1.7438  1.1926
25341SOL    HW281987  11.716  11.703   1.761 -0.5996  3.2081 -1.4301
25342SOL     OW81988  10.587  10.844   9.616 -0.1348 -0.1014  0.6310
25342SOL    HW181989  10.581  10.939   9.611  0.3300 -0.0764  0.5106
25342SOL    HW281990  10.531  10.812   9.545  1.1304  0.1215 -0.5040
25343SOL     OW81991   9.348   7.708   8.670  0.0007  0.5336  0.9730
25343SOL    HW181992   9.428   7.759   8.659  0.1024  0.1473 -0.2719
25343SOL    HW281993   9.306   7.745   8.747  0.8647  1.4329  1.0254
25344SOL     OW81994   6.738   5.318   3.004  0.0047  0.5907  0.3694
25344SOL    HW181995   6.748   5.412   2.996  0.5182  0.6935  1.8165
25344SOL    HW281996   6.663   5.297   2.949  0.9761  1.5599 -1.3837
25345SOL     OW81997   0.580   0.460   0.446  0.3093 -0.1463  0.5583
25345SOL    HW181998   0.525   0.532   0.417  1.4026  0.9526  1.1058
25345SOL    HW281999   0.587   0.402   0.370 -1.7080 -0.4192  0.5303
25346SOL     OW82000   7.935   2.337   6.748 -0.7997  0.2551  0.1598
25346SOL    HW182001   8.011   2.302   6.794 -0.7300 -0.5314 -0.5117
25346SOL    HW282002   7.956   2.324   6.655 -2.0993 -0.7637 -0.0215
25347SOL     OW82003   9.979   9.091   7.186 -0.3857 -0.1813  0.0342
25347SOL    HW182004   9.926   9.120   7.261 -1.4359 -1.5494 -0.1418
25347SOL    HW282005  10.016   9.172   7.151  0.0289  0.5223  1.9392
25348SOL     OW82006   2.298   5.879   7.798 -0.3219 -0.0132  0.4398
25348SOL    HW182007   2.390   5.853   7.799  0.3737  2.0891 -1.4782
25348SOL    HW282008   2.281   5.904   7.708 -2.2027  1.5166  1.1530
25349SOL     OW82009  11.753   6.548   9.916  0.2658 -0.0849 -0.0659
25349SOL    HW182010  11.671   6.585   9.949  0.1605  0.1498 -0.5769
25349SOL    HW282011  11.817   6.618   9.926 -0.0478  0.4424 -1.5099
25350SOL     OW82012   5.893   0.863   9.022 -0.0783  0.1932 -0.2006
25350SOL    HW182013   5.863   0.800   8.956  2.7240 -1.0914 -0.3752
25350SOL    HW282014   5.863   0.948   8.990 -1.6496 -0.7357 -1.3485
25351SOL     OW82015   1.278  12.205   6.535 -0.5543 -0.1224 -0.0172
25351SOL    HW182016   1.266  12.297   6.556 -0.6243 -0.1048 -0.1324
25351SOL    HW282017   1.319  12.167   6.613 -1.4059 -0.1927  0.4097
25352SOL     OW82018  11.579  12.382   0.251  0.5138  0.2058  0.7952
25352SOL    HW182019  11.674  12.377   0.238  0.6550 -0.8169  2.0029
25352SOL    HW282020  11.547  12.432   0.176  1.8607 -0.5813 -0.3599
25353SOL     OW82021   4.047   4.948   8.429  0.2424 -0.3119  0.1008
25353SOL    HW182022   3.953   4.941   8.417  0.2833 -0.2034 -0.3113
25353SOL    HW282023   4.085   4.907   8.350  0.5331 -0.1424  0.1488
25354SOL     OW82024   5.509   8.832   5.125  0.3163 -0.3780  0.2918
25354SOL    HW182025   5.502   8.927   5.132 -3.1345 -0.5639  1.0935
25354SOL    HW282026   5.419   8.802   5.112  1.2757 -3.5637  0.1347
25355SOL     OW82027   5.154   6.980   1.193  0.5787 -0.3908  0.3737
25355SOL    HW182028   5.100   6.996   1.270  0.4332  0.4292  0.1088
25355SOL    HW282029   5.237   6.949   1.228  0.9708  1.2212  0.9397
25356SOL     OW82030   9.877   8.792   5.404  0.4417  0.0866 -0.2284
25356SOL    HW182031   9.805   8.817   5.346 -2.7638 -3.1806  1.8726
25356SOL    HW282032   9.854   8.830   5.489  2.4235  0.7568  0.0552
25357SOL     OW82033   0.994   7.687   6.693  0.6470 -0.2299 -0.2527
25357SOL    HW182034   1.048   7.657   6.766  1.0606 -0.5383 -0.6793
25357SOL    HW282035   1.011   7.781   6.687  0.8597 -0.2638 -0.1620
25358SOL     OW82036   1.330   2.533   1.727  0.2404 -0.2566  0.2549
25358SOL    HW182037   1.323   2.557   1.635  0.4192  1.5548  0.6679
25358SOL    HW282038   1.317   2.438   1.729 -2.3567 -0.0050 -1.3273
25359SOL     OW82039   7.871   6.033  10.648  0.1119 -0.4003 -0.0783
25359SOL    HW182040   7.862   6.017  10.742 -0.3153  0.2199 -0.0063
25359SOL    HW282041   7.951   5.985  10.623  0.0645 -0.8162  0.5350
25360SOL     OW82042   3.778  11.403   4.230 -0.5415 -0.2828  0.0148
25360SOL    HW182043   3.831  11.426   4.307 -1.2611 -1.3874  0.8739
25360SOL    HW282044   3.819  11.449   4.158  1.4789 -0.9340  0.6858
25361SOL     OW82045   0.371   4.365   4.341  0.7324 -0.2193  0.0107
25361SOL    HW182046   0.349   4.293   4.283  0.6401 -0.1897  0.0089
25361SOL    HW282047   0.466   4.358   4.354  0.9377  0.3865 -0.9718
25362SOL     OW82048   1.508   7.823   0.144 -0.7618 -0.1898 -0.0432
25362SOL    HW182049   1.495   7.729   0.156 -3.1915  0.1020  0.0931
25362SOL    HW282050   1.486   7.838   0.052 -0.9283  0.3241  0.0793
25363SOL     OW82051   7.822   6.207   1.375  0.3044  0.1354  0.8462
25363SOL    HW182052   7.771   6.214   1.456  0.7754 -1.3379  1.2989
25363SOL    HW282053   7.864   6.121   1.380 -0.1385 -0.2645 -1.2511
25364SOL     OW82054   4.818   9.546  10.582 -0.6221  0.1194 -0.5873
25364SOL    HW182055   4.724   9.562  10.587 -0.3960  1.1365  1.0031
25364SOL    HW282056   4.827   9.451  10.593 -1.4668 -0.0720 -1.3954
25365SOL     OW82057   3.521   6.612   3.020  0.0082  0.3487  0.0254
25365SOL    HW182058   3.475   6.691   2.992  0.2617  0.8847  1.0582
25365SOL    HW282059   3.454   6.544   3.023 -0.6774  1.0503  1.2438
25366SOL     OW82060   7.027   6.482   6.454 -0.1250 -0.0988 -0.1955
25366SOL    HW182061   7.120   6.473   6.432  0.0118 -1.1184  0.7072
25366SOL    HW282062   7.006   6.401   6.502 -0.8253  1.2366  1.8882
25367SOL     OW82063   2.184  12.138   3.126 -0.0052  0.1160 -0.1754
25367SOL    HW182064   2.126  12.129   3.201 -0.7621 -0.5374 -0.8256
25367SOL    HW282065   2.126  12.136   3.050  0.9356 -1.6787 -0.9012
25368SOL     OW82066  12.463   0.603   0.267 -0.3937  0.0239 -0.3457
25368SOL    HW182067  12.450   0.510   0.285 -1.0621  0.0341 -0.7384
25368SOL    HW282068  12.532   0.630   0.327  1.6783 -1.3274 -1.9615
25369SOL     OW82069   1.008   1.301   9.512  0.1311  0.2680 -0.2541
25369SOL    HW182070   0.927   1.307   9.562  0.7651  0.8419  0.7408
25369SOL    HW282071   1.024   1.207   9.502 -0.5439  0.1548 -0.2983
25370SOL     OW82072   1.720   8.773  10.049  0.5573 -0.1121  0.1478
25370SOL    HW182073   1.754   8.719  10.121  0.5730  0.6907  0.7562
25370SOL    HW282074   1.712   8.861  10.087  0.2799  0.2576 -0.7495
25371SOL     OW82075   3.770   3.957   6.305 -0.3405 -0.1455 -0.3830
25371SOL    HW182076   3.683   3.919   6.294 -0.9008  1.2188 -0.8273
25371SOL    HW282077   3.788   3.949   6.399 -1.6436  0.9877 -0.0052
25372SOL     OW82078   8.666   2.674   4.221 -0.2100 -0.5963  0.4739
25372SOL    HW182079   8.597   2.608   4.223  0.4980 -1.3965 -0.4444
25372SOL    HW282080   8.734   2.641   4.280  1.5850 -2.4248 -2.3722
25373SOL     OW82081   2.831  10.023   0.815  0.0545  0.1185 -0.1134
25373SOL    HW182082   2.862  10.094   0.759  0.5035  0.2940  0.3509
25373SOL    HW282083   2.745  10.053   0.845 -0.3366 -0.1235 -0.9630
25374SOL     OW82084   1.305   3.955   9.786  0.3406  0.3678 -0.3948
25374SOL    HW182085   1.215   3.932   9.762  1.2895 -1.2444 -2.8952
25374SOL    HW282086   1.322   4.036   9.736  0.1745  0.9302  0.4378
25375SOL     OW82087  10.983   6.195  11.381  0.4258 -0.5653  0.0799
25375SOL    HW182088  10.925   6.252  11.432  1.6850  1.4927 -0.6723
25375SOL    HW282089  11.027   6.141  11.447  0.3148  0.4063  0.9870
25376SOL     OW82090  10.472   2.597  11.078  0.0044  0.5627 -0.2605
25376SOL    HW182091  10.540   2.575  11.141  0.5812 -0.2076 -1.1272
25376SOL    HW282092  10.517   2.602  10.994 -0.9129  0.6143 -0.7708
25377SOL     OW82093   0.335   7.845   0.789  0.2956 -0.1906 -0.6068
25377SOL    HW182094   0.362   7.857   0.698 -0.1338 -1.7383 -0.9662
25377SOL    HW282095   0.400   7.785   0.826 -0.3884 -0.7938 -0.3545
25378SOL     OW82096   7.969  11.311  11.993  0.2896 -0.2219 -0.1491
25378SOL    HW182097   8.032  11.297  11.922 -1.7199 -2.3857 -1.6165
25378SOL    HW282098   7.891  11.345  11.950 -0.3701  0.1922  1.3181
25379SOL     OW82099   5.882   3.870   8.575  0.1117 -0.0900 -0.4042
25379SOL    HW182100   5.958   3.822   8.609 -0.4487 -0.3032  0.5912
25379SOL    HW282101   5.808   3.812   8.593 -0.3476  0.3262 -0.9293
25380SOL     OW82102   1.005  11.872   8.201 -0.3617 -0.2499 -0.4508
25380SOL    HW182103   1.035  11.943   8.257  0.4651 -0.8651 -0.0810
25380SOL    HW282104   1.027  11.901   8.112 -2.6252  1.1877 -0.6232
25381SOL     OW82105   1.232   6.776   6.028 -0.2908  0.1233 -0.1734
25381SOL    HW182106   1.295   6.841   6.059 -0.3828 -0.1343  0.5729
25381SOL    HW282107   1.175   6.761   6.103  0.8228 -2.1526  0.3147
25382SOL     OW82108   0.299   8.876   6.705  0.5072 -0.1771  0.0705
25382SOL    HW182109   0.373   8.909   6.754  0.5295 -0.3673  0.1658
25382SOL    HW282110   0.304   8.920   6.620  0.5167  0.0848  0.2084
25383SOL     OW82111   9.348  11.081   9.155 -0.0356  0.1547  0.3224
25383SOL    HW182112   9.389  11.016   9.098 -1.3222  0.7016 -1.3029
25383SOL    HW282113   9.388  11.164   9.129 -0.0995  0.3127  0.7265
25384SOL     OW82114   6.408   0.902   5.438  0.0744  0.4147  0.2996
25384SOL    HW182115   6.425   0.958   5.514  0.5236  1.0718 -0.2880
25384SOL    HW282116   6.482   0.916   5.380 -0.2698 -0.0919 -0.2699
25385SOL     OW82117   4.886  10.280   2.006  0.3819  0.4562  0.3377
25385SOL    HW182118   4.858  10.327   2.084  0.5311  0.2746  0.5024
25385SOL    HW282119   4.850  10.192   2.017 -2.8979  1.3910 -1.6036
25386SOL     OW82120   2.895   2.102   0.226 -0.1027  0.3697 -0.1106
25386SOL    HW182121   2.956   2.176   0.220  2.7121 -1.7767 -0.0134
25386SOL    HW282122   2.846   2.105   0.145 -0.0134  2.2697 -0.1437
25387SOL     OW82123   3.772   2.738   5.007 -0.0647 -0.0870  0.0108
25387SOL    HW182124   3.777   2.745   4.912  0.4594  0.2083  0.0583
25387SOL    HW282125   3.684   2.705   5.024 -0.6214  1.0826 -0.5128
25388SOL     OW82126   1.390   7.040   4.128  0.2605 -0.1523  0.1446
25388SOL    HW182127   1.454   6.975   4.156  0.8359  0.8006  1.1458
25388SOL    HW282128   1.441   7.121   4.119 -0.8572  0.7631  1.5251
25389SOL     OW82129  11.194   0.704   5.334 -0.1005  0.1421 -0.3307
25389SOL    HW182130  11.277   0.660   5.317  0.1961  0.8478 -0.7595
25389SOL    HW282131  11.147   0.646   5.394  0.7608 -0.1897  0.0265
25390SOL     OW82132   1.891   9.137   2.976 -0.6617  0.7950  0.0279
25390SOL    HW182133   1.895   9.191   2.896  0.0353 -0.6819 -0.9859
25390SOL    HW282134   1.829   9.068   2.955 -2.9775  2.1456  1.9831
25391SOL     OW82135  12.374   0.658   2.985 -0.4169 -0.0366  0.0323
25391SOL    HW182136  12.283   0.675   2.962 -0.2807 -0.5980 -0.9904
25391SOL    HW282137  12.379   0.563   2.995 -0.4113  0.1561  2.2457
25392SOL     OW82138   7.292  10.273   7.143  0.3390 -0.1530 -0.1640
25392SOL    HW182139   7.228  10.208   7.114  2.5286 -1.7947 -1.7016
25392SOL    HW282140   7.258  10.304   7.227 -3.4428  0.6208 -1.7669
25393SOL     OW82141   0.151  10.163   4.407  0.2790 -0.6307  0.3152
25393SOL    HW182142   0.082  10.229   4.412 -0.6979 -1.6606  0.9218
25393SOL    HW282143   0.132  10.104   4.480  1.0627 -1.6465 -0.2853
25394SOL     OW82144   3.361   3.492  10.306 -0.5430 -0.6375  0.1627
25394SOL    HW182145   3.319   3.521  10.224 -0.4439  0.1827  0.3932
25394SOL    HW282146   3.455   3.504  10.290 -0.4713 -1.2503  0.1096
25395SOL     OW82147   3.273  10.122  11.648  0.1696  0.0560 -0.3148
25395SOL    HW182148   3.239  10.075  11.572 -1.2475 -0.2276  0.4586
25395SOL    HW282149   3.353  10.074  11.673 -0.6097 -1.2462 -0.2493
25396SOL     OW82150  11.366   4.589   8.413  0.3593 -0.2248 -0.9944
25396SOL    HW182151  11.272   4.578   8.398 -0.1365  2.7842 -0.7065
25396SOL    HW282152  11.373   4.613   8.505  1.6269 -1.7517 -0.6403
25397SOL     OW82153   8.207   7.123   4.860  0.5546  0.4464  0.4386
25397SOL    HW182154   8.202   7.204   4.910 -0.7775  0.4474  0.3575
25397SOL    HW282155   8.267   7.068   4.908  0.4472  1.0004  1.2249
25398SOL     OW82156   9.622   8.861   6.842  0.5514  0.2786 -0.0748
25398SOL    HW182157   9.540   8.839   6.797 -1.1086  2.0171  1.9047
25398SOL    HW282158   9.647   8.780   6.886 -2.0349  0.4648  2.0175
25399SOL     OW82159  10.706   2.386   9.627  0.0945 -0.3162  0.5633
25399SOL    HW182160  10.774   2.423   9.683 -0.8166  0.4647  1.1759
25399SOL    HW282161  10.745   2.387   9.539  1.0036 -0.2073  0.9589
25400SOL     OW82162   2.957   0.176   4.863 -0.4165  0.0583 -0.4138
25400SOL    HW182163   2.884   0.237   4.861 -0.0406  0.5527 -2.8784
25400SOL    HW282164   3.035   0.231   4.861 -0.0301 -0.4805 -0.6464
25401SOL     OW82165   8.703   7.392   2.291 -0.2484  0.1458 -0.3452
25401SOL    HW182166   8.761   7.450   2.340  0.8715  0.1528 -1.5905
25401SOL    HW282167   8.763   7.330   2.248 -1.1448  0.1702 -1.6972
25402SOL     OW82168   3.992   5.352  11.799  0.1002  0.1739 -0.4199
25402SOL    HW182169   3.908   5.322  11.764  0.3202  1.0592 -1.8072
25402SOL    HW282170   4.043   5.272  11.810 -0.7163 -0.3188 -0.1213
25403SOL     OW82171   1.971   5.471   5.177 -0.7962  0.3082 -0.1825
25403SOL    HW182172   1.988   5.534   5.108 -0.9364  0.1950 -0.3192
25403SOL    HW282173   2.048   5.414   5.177  0.1333  1.4981  1.0683
25404SOL     OW82174  11.976   2.806   2.534 -0.1472 -0.3908 -0.0919
25404SOL    HW182175  12.047   2.868   2.516  1.6556 -2.4521 -0.4540
25404SOL    HW282176  11.905   2.834   2.476 -0.0550  2.2749  0.9328
25405SOL     OW82177   7.749  11.019   8.221 -0.1844 -0.1870  0.4352
25405SOL    HW182178   7.758  11.046   8.312  0.7594 -0.2076  0.3567
25405SOL    HW282179   7.755  10.924   8.222 -2.2189 -0.3531  0.5642
25406SOL     OW82180   4.818   8.058   7.931 -0.0590  0.0980 -0.1008
25406SOL    HW182181   4.742   8.008   7.959 -1.7420  2.6349  0.1519
25406SOL    HW282182   4.799   8.084   7.841  0.2360  1.2111  0.1412
25407SOL     OW82183   5.276   9.986   1.259 -0.1404 -0.0635  0.2288
25407SOL    HW182184   5.258   9.992   1.165 -2.4139 -2.0186  0.4282
25407SOL    HW282185   5.223  10.055   1.298 -1.7700 -1.2633  0.2500
25408SOL     OW82186   4.435   0.405   3.863 -0.1717  0.4669 -0.5425
25408SOL    HW182187   4.430   0.488   3.816 -0.8164  1.4560  1.1833
25408SOL    HW282188   4.404   0.425   3.951  1.0585 -1.2849  0.3632
25409SOL     OW82189   5.395   2.851   7.386  0.7112 -0.7857 -0.1013
25409SOL    HW182190   5.456   2.797   7.336  0.8048  1.4054 -2.5647
25409SOL    HW282191   5.325   2.872   7.324 -1.7529 -1.7997  2.1353
25410SOL     OW82192   4.102   3.324  11.992  1.0498  0.7955 -0.5112
25410SOL    HW182193   4.084   3.283  11.908  0.1286 -0.1675  0.1325
25410SOL    HW282194   4.113   3.417  11.971 -1.7807  1.0262 -1.4050
25411SOL     OW82195   6.894   6.922  10.293 -0.0739  0.1734  0.0332
25411SOL    HW182196   6.924   7.005  10.331 -0.6536  1.7773 -2.6856
25411SOL    HW282197   6.872   6.945  10.203  0.6608 -3.1968 -1.1269
25412SOL     OW82198   8.100   6.881   3.034 -0.6021 -0.5935  0.0540
25412SOL    HW182199   8.060   6.814   3.089 -1.1967 -1.1256 -0.9993
25412SOL    HW282200   8.030   6.944   3.017 -0.3684 -0.3274  0.0560
25413SOL     OW82201  10.488   5.035   0.180  0.0682  0.4214 -0.2245
25413SOL    HW182202  10.475   4.943   0.156  0.2320  0.0087  1.1907
25413SOL    HW282203  10.523   5.032   0.269 -0.4163  1.8669  0.0417
25414SOL     OW82204   1.555   1.868   5.773  0.1838 -0.0024  0.0602
25414SOL    HW182205   1.556   1.824   5.858  0.9192  0.0519  0.0873
25414SOL    HW282206   1.590   1.956   5.791  1.4914 -0.3869 -0.4953
25415SOL     OW82207   1.426   6.123  10.910 -0.3787  0.3504 -0.2723
25415SOL    HW182208   1.366   6.109  10.983 -0.0582  0.5998  0.0422
25415SOL    HW282209   1.371   6.115  10.832 -0.3453 -1.9195 -0.1060
25416SOL     OW82210  12.343   6.496   8.408  0.4492  0.2424 -0.8279
25416SOL    HW182211  12.360   6.403   8.398 -0.7234 -0.1028  0.1711
25416SOL    HW282212  12.289   6.503   8.487 -1.1464  1.5471 -1.9527
25417SOL     OW82213   8.921   7.877   9.659 -0.0790 -0.0590  0.2195
25417SOL    HW182214   8.857   7.939   9.692 -1.0773 -0.0799 -1.5438
25417SOL    HW282215   8.999   7.892   9.711 -0.3208  2.6112 -0.0674
25418SOL     OW82216   0.631   1.109  11.347 -0.9809  0.1434  0.5380
25418SOL    HW182217   0.539   1.125  11.367 -1.7328 -3.0504  0.1019
25418SOL    HW282218   0.641   1.137  11.256 -1.8761 -0.6704  0.1790
25419SOL     OW82219   1.563  10.572   8.262  0.3842 -0.3171  0.4681
25419SOL    HW182220   1.513  10.643   8.303  2.5424  1.0185  0.9446
25419SOL    HW282221   1.588  10.515   8.335 -1.0468 -1.4559  0.1283
25420SOL     OW82222  11.167   6.204   7.841 -0.6954  0.5956  0.3828
25420SOL    HW182223  11.139   6.159   7.761 -0.9278  1.9339 -0.3302
25420SOL    HW282224  11.131   6.292   7.832  0.6894  1.2764  1.1764
25421SOL     OW82225   8.625   5.843  10.642  0.2381  0.7573 -0.1781
25421SOL    HW182226   8.692   5.896  10.598  1.0864 -0.8866 -0.9483
25421SOL    HW282227   8.639   5.859  10.735  0.0276  2.3770 -0.3919
25422SOL     OW82228   0.130   1.930  11.526 -0.7537  0.3644  0.0000
25422SOL    HW182229   0.190   1.978  11.583 -0.5363 -0.7299  0.7290
25422SOL    HW282230   0.126   1.982  11.446  0.5214  0.8908  0.2565
25423SOL     OW82231   5.881   6.239   8.747  0.4715 -0.2102  0.4726
25423SOL    HW182232   5.927   6.270   8.825  0.5965 -0.3126  0.4383
25423SOL    HW282233   5.860   6.148   8.765 -0.1010 -0.0429  0.6679
25424SOL     OW82234   8.162   4.907   5.196  0.2416 -0.3622 -0.6612
25424SOL    HW182235   8.102   4.952   5.137 -2.5991 -1.8419  0.9033
25424SOL    HW282236   8.147   4.814   5.180 -0.1944 -0.8125  1.8385
25425SOL     OW82237   6.497   6.772  11.938  0.0858 -0.1162  0.1953
25425SOL    HW182238   6.555   6.732  11.873  0.6277 -0.7214  1.0273
25425SOL    HW282239   6.523   6.864  11.942  1.1394 -0.4180  0.6959
25426SOL     OW82240   6.333   3.054   3.257  0.2502  0.1738  0.3293
25426SOL    HW182241   6.242   3.081   3.243  0.1304 -0.7398 -0.7608
25426SOL    HW282242   6.373   3.061   3.170  0.1218 -3.4425 -0.1387
25427SOL     OW82243   7.473  11.184   7.902 -0.1498 -0.0931  0.2250
25427SOL    HW182244   7.474  11.169   7.807 -2.0260  1.1172 -0.0370
25427SOL    HW282245   7.477  11.096   7.940 -0.7300 -0.6875 -1.0123
25428SOL     OW82246  10.131   5.343   3.592  0.3768  0.3846 -0.5535
25428SOL    HW182247  10.197   5.408   3.567  0.4170  0.6943  0.3119
25428SOL    HW282248  10.150   5.324   3.684 -1.6948  1.6686  0.1981
25429SOL     OW82249   6.043   3.772   2.099 -0.0150 -0.1309 -0.0439
25429SOL    HW182250   6.008   3.858   2.122  0.4832  0.5021 -1.5460
25429SOL    HW282251   6.131   3.772   2.137 -0.2521 -0.2461  0.5170
25430SOL     OW82252  10.933   5.826   4.062  0.2630  0.4927  0.3235
25430SOL    HW182253  10.990   5.751   4.078  0.4283  0.5027 -0.1874
25430SOL    HW282254  10.918   5.864   4.148 -0.1351 -0.3526  0.6396
25431SOL     OW82255   3.120   4.418   2.566 -0.1696  0.9345 -0.0796
25431SOL    HW182256   3.064   4.436   2.641 -0.3958  0.7454 -0.2040
25431SOL    HW282257   3.141   4.325   2.572 -1.3670  0.5830 -1.0445
25432SOL     OW82258   2.053   0.059   7.349 -0.6265 -0.5887  0.3085
25432SOL    HW182259   2.073   0.065   7.442  2.2933 -0.0069 -0.2684
25432SOL    HW282260   2.001   0.137   7.330  0.7400  0.5314  1.0387
25433SOL     OW82261  10.967   3.442   5.191 -0.1015 -0.1657  0.0426
25433SOL    HW182262  10.890   3.470   5.241  0.3112 -1.6308  1.6266
25433SOL    HW282263  11.009   3.377   5.248  1.5080 -0.4599 -1.4138
25434SOL     OW82264   8.285   2.007   7.200 -0.5850  0.9717 -0.2575
25434SOL    HW182265   8.348   2.028   7.131 -1.2306  0.4971 -1.0117
25434SOL    HW282266   8.230   2.086   7.208  0.5547  1.6872  0.9501
25435SOL     OW82267   6.954   4.806  11.169  0.1820 -0.0440  0.3732
25435SOL    HW182268   6.908   4.803  11.253  1.5068  0.4579  1.1344
25435SOL    HW282269   6.952   4.899  11.144  1.7869  0.1861  1.0088
25436SOL     OW82270   3.899   0.347   7.018  0.3390 -0.2139  0.0338
25436SOL    HW182271   3.949   0.267   7.035  0.6990  0.0464  0.1950
25436SOL    HW282272   3.962   0.418   7.026  0.0856  0.0686 -0.4152
25437SOL     OW82273   4.264   3.564   9.380 -0.3531 -0.1412  0.5315
25437SOL    HW182274   4.297   3.539   9.467  1.3734 -0.1271 -0.0750
25437SOL    HW282275   4.305   3.502   9.320  2.3054  2.5895 -0.7841
25438SOL     OW82276  10.147   3.604   5.480 -0.3092  0.3281 -0.1425
25438SOL    HW182277  10.156   3.559   5.395  0.2195  0.7059 -0.2887
25438SOL    HW282278  10.088   3.548   5.530  0.2575 -0.4885 -0.3638
25439SOL     OW82279   9.253  11.710   3.632  0.1461 -0.0511 -0.1407
25439SOL    HW182280   9.334  11.724   3.682  1.4368  0.9652 -2.3666
25439SOL    HW282281   9.234  11.617   3.643  3.4937 -1.1657 -2.0764
25440SOL     OW82282   4.550  11.230   8.189 -0.3072 -0.3293 -0.0790
25440SOL    HW182283   4.595  11.216   8.106 -0.2316 -1.0316  0.0764
25440SOL    HW282284   4.565  11.323   8.209  1.7791 -0.7342  0.3859
25441SOL     OW82285  11.990   6.410   0.601 -0.0918 -0.1112 -0.1761
25441SOL    HW182286  12.068   6.390   0.652 -0.7057 -0.6161  0.5788
25441SOL    HW282287  11.928   6.445   0.664 -0.7139 -0.3305 -0.6532
25442SOL     OW82288  12.262  10.767   2.600  0.6940 -0.0753 -0.0037
25442SOL    HW182289  12.272  10.698   2.667 -1.8409 -0.9775 -0.4369
25442SOL    HW282290  12.263  10.720   2.517 -3.2792 -0.0589 -0.2363
25443SOL     OW82291   6.870  12.491   1.990  0.3649 -0.0476 -0.3584
25443SOL    HW182292   6.864  12.405   2.032  0.5617  0.3941  0.6121
25443SOL    HW282293   6.892  12.550   2.062 -0.7234  0.9667 -0.8434
25444SOL     OW82294  10.390   0.698   8.177  0.6539  0.0324  0.0135
25444SOL    HW182295  10.319   0.683   8.113  0.7659 -1.2302  0.1611
25444SOL    HW282296  10.410   0.611   8.211  0.7138  0.6568  1.6685
25445SOL     OW82297  10.789  11.648   4.272  0.2497  0.2976  0.1350
25445SOL    HW182298  10.858  11.707   4.302  0.1872 -0.0039  0.8854
25445SOL    HW282299  10.750  11.613   4.352  2.4082 -3.2916 -0.1881
25446SOL     OW82300   7.630   7.998   6.995 -0.3830  0.3716  0.4098
25446SOL    HW182301   7.722   8.017   7.014 -0.1686 -0.4300  0.2153
25446SOL    HW282302   7.629   7.973   6.902 -0.9768  1.4346  0.1012
25447SOL     OW82303  12.351   6.882   1.739 -0.0604  0.0258 -0.6323
25447SOL    HW182304  12.376   6.951   1.801 -0.0874  1.0010 -1.6774
25447SOL    HW282305  12.429   6.867   1.686 -0.1702 -0.4897 -0.6534
25448SOL     OW82306   8.116  12.214   8.457  0.5436 -1.0216  0.0773
25448SOL    HW182307   8.171  12.229   8.534  1.8440 -0.6644 -0.8828
25448SOL    HW282308   8.086  12.302   8.431  1.4438 -0.9446 -0.7543
25449SOL     OW82309  10.267   6.178   0.548 -0.0513  0.3762 -0.4009
25449SOL    HW182310  10.232   6.260   0.584  0.1333  0.2683  0.0183
25449SOL    HW282311  10.346   6.161   0.598 -0.9813 -0.9625  0.6759
25450SOL     OW82312  12.155  10.932   3.279 -0.2303  0.1211  0.2005
25450SOL    HW182313  12.150  11.002   3.344  0.3819 -0.2009  0.6017
25450SOL    HW282314  12.140  10.851   3.329 -2.6443  0.0393 -0.5076
25451SOL     OW82315  11.836  12.479   3.189  0.0752 -0.1115  0.3386
25451SOL    HW182316  11.814  12.386   3.197 -1.3401  0.2817  1.2419
25451SOL    HW282317  11.774  12.512   3.124  0.0562  0.3762  0.6070
25452SOL     OW82318   3.483   5.766   8.460 -0.1642  0.2825 -0.0204
25452SOL    HW182319   3.463   5.827   8.531 -1.2843 -0.8096  0.6455
25452SOL    HW282320   3.562   5.720   8.490 -1.5357 -1.3024  1.3198
25453SOL     OW82321  11.260   2.825   4.175  0.1587  0.6569  0.3103
25453SOL    HW182322  11.312   2.895   4.136  1.4358 -0.9029 -0.9010
25453SOL    HW282323  11.247   2.762   4.105 -1.6021 -0.0115  1.1696
25454SOL     OW82324   9.903   5.522   8.064  0.5985  0.3192 -0.4181
25454SOL    HW182325   9.814   5.490   8.076  0.5297  0.1975 -1.1645
25454SOL    HW282326   9.897   5.616   8.079 -0.2282  0.7678 -3.0328
25455SOL     OW82327   6.653   7.889   8.945 -0.0003  0.5061 -0.4362
25455SOL    HW182328   6.568   7.896   8.901 -0.9063 -1.4538  0.8800
25455SOL    HW282329   6.701   7.823   8.895  0.7326  1.4700 -1.0608
25456SOL     OW82330   4.251   3.021   3.932 -0.5937 -0.0185 -0.4290
25456SOL    HW182331   4.188   3.055   3.995 -1.8639 -1.4102 -0.8626
25456SOL    HW282332   4.270   2.932   3.963  1.4935  0.5063 -0.0928
25457SOL     OW82333   9.190   5.331   3.790  0.2435 -0.7416  0.3404
25457SOL    HW182334   9.285   5.319   3.789  0.4789  0.7604  1.3682
25457SOL    HW282335   9.169   5.348   3.882 -0.7031  0.9378 -0.1376
25458SOL     OW82336   8.865   2.681  10.318  0.5227  0.0845 -0.3111
25458SOL    HW182337   8.959   2.700  10.326  0.8581 -0.8471 -1.7682
25458SOL    HW282338   8.842   2.709  10.230 -0.1789 -1.2119 -0.5650
25459SOL     OW82339   5.063   0.479   2.947 -0.1809 -0.2009 -0.1455
25459SOL    HW182340   5.110   0.438   2.874 -0.4848  1.5824 -1.4137
25459SOL    HW282341   5.051   0.409   3.010  0.9537 -1.5824 -1.3872
25460SOL     OW82342  11.514   2.414   5.281 -0.0836  0.3435  0.2312
25460SOL    HW182343  11.558   2.330   5.289 -0.4145  0.2202  0.7559
25460SOL    HW282344  11.475   2.412   5.193 -1.9823 -0.9853  1.0351
25461SOL     OW82345  11.567   3.150  12.357 -0.2924  0.1946 -0.0156
25461SOL    HW182346  11.636   3.126  12.418 -1.8956 -3.0730  0.7439
25461SOL    HW282347  11.492   3.170  12.413 -1.1280 -0.5262 -0.8528
25462SOL     OW82348   2.180   2.578   7.145 -0.2082 -0.2201  0.6218
25462SOL    HW182349   2.244   2.584   7.074 -1.0938  0.6465 -0.1470
25462SOL    HW282350   2.101   2.618   7.108 -1.1223 -1.0686  1.6151
25463SOL     OW82351   5.032   1.047   4.303  0.3330 -0.3069  0.4788
25463SOL    HW182352   5.090   1.055   4.379  1.5443  1.1112 -0.5454
25463SOL    HW282353   4.955   1.001   4.336  1.0834 -0.2385  2.4164
25464SOL     OW82354  10.354   7.049   0.437  0.1541  0.1453 -0.1904
25464SOL    HW182355  10.262   7.057   0.412  0.2437 -0.1470 -0.6290
25464SOL    HW282356  10.355   6.981   0.505  0.2597 -1.2193 -1.4973
25465SOL     OW82357   0.690   1.436  11.212 -0.0445  0.1662  0.0605
25465SOL    HW182358   0.744   1.395  11.280  0.2086  0.5948  0.1209
25465SOL    HW282359   0.694   1.375  11.138  2.0130  1.0062 -0.6047
25466SOL     OW82360   9.112   3.369   5.280 -0.7296  0.0056 -0.0659
25466SOL    HW182361   9.085   3.317   5.356 -0.2209 -0.5769 -0.2663
25466SOL    HW282362   9.167   3.438   5.317  2.5591 -2.3315 -0.1020
25467SOL     OW82363   9.690  11.808   5.475  0.4104  0.0570 -0.0054
25467SOL    HW182364   9.643  11.879   5.432 -3.3177 -3.0028 -1.5808
25467SOL    HW282365   9.752  11.777   5.410 -0.6848 -0.4723 -0.8355
25468SOL     OW82366   8.302   9.847   2.044  0.6082  0.1430 -0.1041
25468SOL    HW182367   8.359   9.853   1.967 -0.4366 -0.7945 -1.0006
25468SOL    HW282368   8.215   9.832   2.007 -0.3453  2.1016  1.1921
25469SOL     OW82369   2.296   5.370   8.968 -0.6180  0.0897  0.1138
25469SOL    HW182370   2.212   5.413   8.954  0.0679  1.0595 -1.2000
25469SOL    HW282371   2.274   5.290   9.016 -2.1710  0.7775  0.6215
25470SOL     OW82372   7.300   7.939   1.670  0.2336 -0.0917 -0.2105
25470SOL    HW182373   7.395   7.931   1.666  0.2631  0.5964 -1.5213
25470SOL    HW282374   7.284   8.031   1.689 -0.1688  0.0961 -1.3966
25471SOL     OW82375   1.623  11.030   0.642 -0.0369  0.6872 -0.4862
25471SOL    HW182376   1.619  10.944   0.685 -0.0005  0.8689 -0.1137
25471SOL    HW282377   1.625  11.093   0.715 -1.7651  1.0829 -0.7504
25472SOL     OW82378   3.084   0.609   2.686  0.0886 -0.4110  0.2932
25472SOL    HW182379   3.080   0.621   2.591 -1.2952  2.4383  0.6049
25472SOL    HW282380   3.176   0.623   2.708  0.5268 -1.6510 -0.6426
25473SOL     OW82381   3.200   5.704   0.756 -0.6169  0.2202 -0.4305
25473SOL    HW182382   3.109   5.717   0.783 -0.0954  1.2059  0.9593
25473SOL    HW282383   3.222   5.783   0.707 -1.5873 -1.5904 -4.1560
25474SOL     OW82384   1.732   6.556   3.485  0.4498  0.1112 -0.6646
25474SOL    HW182385   1.712   6.535   3.576  2.3149  0.4766 -0.1319
25474SOL    HW282386   1.674   6.629   3.464 -1.6543 -1.4215 -0.5623
25475SOL     OW82387   5.350   2.888   5.273  0.5089 -0.4598 -0.1154
25475SOL    HW182388   5.272   2.867   5.222  1.2681 -0.6940 -1.2135
25475SOL    HW282389   5.318   2.897   5.363 -0.4501 -2.5778 -0.1934
25476SOL     OW82390   1.288   7.938  11.759 -0.3887  0.2494  0.1059
25476SOL    HW182391   1.214   7.878  11.770  2.1541 -3.0712  0.6122
25476SOL    HW282392   1.261   8.017  11.805 -3.3242 -1.0598  0.8768
25477SOL     OW82393   0.566   9.616   4.329 -0.1705  0.5635  0.0234
25477SOL    HW182394   0.584   9.667   4.250  1.2114  1.1143  0.6640
25477SOL    HW282395   0.490   9.658   4.369 -0.3063  0.8428 -0.5232
25478SOL     OW82396   9.376  11.245  10.175  0.4598 -0.1126 -0.2835
25478SOL    HW182397   9.318  11.315  10.146 -0.7542 -0.6487  0.7593
25478SOL    HW282398   9.319  11.169  10.186  1.5125 -0.8935 -0.0579
25479SOL     OW82399   0.405   0.842   6.019 -0.2856  0.0904  0.0987
25479SOL    HW182400   0.312   0.819   6.027 -0.2930  0.4317  1.2248
25479SOL    HW282401   0.405   0.930   5.982 -0.6179  1.6833  3.5084
25480SOL     OW82402   5.296   9.187   2.343 -0.2765  0.4502 -0.0845
25480SOL    HW182403   5.332   9.099   2.328  1.0042  0.8779  0.3527
25480SOL    HW282404   5.202   9.177   2.329 -0.0560 -0.8192 -0.8155
25481SOL     OW82405  11.418   7.979   7.104  0.3441  0.1376  0.3787
25481SOL    HW182406  11.477   8.013   7.037 -0.4648 -0.4337 -0.6449
25481SOL    HW282407  11.457   8.008   7.187  0.3835  2.4013 -0.3765
25482SOL     OW82408   1.089  10.100   2.725 -0.5081  0.0870 -0.2336
25482SOL    HW182409   1.019  10.132   2.782 -0.3565  0.7886 -0.4385
25482SOL    HW282410   1.155  10.169   2.725  0.2327 -0.5912  0.0190
25483SOL     OW82411   0.070  10.769  11.573  0.0715  0.2951 -0.1395
25483SOL    HW182412   0.040  10.735  11.658  1.1853  1.5228  0.7791
25483SOL    HW282413   0.054  10.864  11.579  0.2068  0.3959 -1.2877
25484SOL     OW82414   9.214  12.031   3.138 -0.5491 -0.6461 -0.0125
25484SOL    HW182415   9.307  12.051   3.138 -0.7184  0.1876 -0.2924
25484SOL    HW282416   9.178  12.088   3.069 -1.6787  1.0334  1.8620
25485SOL     OW82417   8.345   1.032   5.782 -0.0426 -0.1827 -0.0012
25485SOL    HW182418   8.370   1.078   5.702  1.1599 -0.6345  0.0997
25485SOL    HW282419   8.420   0.977   5.803 -0.5257 -0.4185  1.1877
25486SOL     OW82420  10.073   7.027   5.495  0.0442  0.6201 -0.4964
25486SOL    HW182421  10.141   7.035   5.562 -0.4506  1.5141 -0.0846
25486SOL    HW282422  10.115   6.979   5.424  1.0027  0.8557 -0.1025
25487SOL     OW82423   4.654  11.365   0.376  0.0627  0.0762 -0.0992
25487SOL    HW182424   4.693  11.364   0.288  0.6281  0.3618  0.1435
25487SOL    HW282425   4.607  11.282   0.382 -1.9249  1.0231 -1.5336
25488SOL     OW82426   9.139   8.819   7.110  0.6935 -0.0739 -0.1267
25488SOL    HW182427   9.161   8.843   7.020  1.0982 -0.3571 -0.1062
25488SOL    HW282428   9.173   8.730   7.120  0.6110 -0.0600  0.2918
25489SOL     OW82429   7.310   6.787   2.405  0.3142 -0.2330  0.0158
25489SOL    HW182430   7.360   6.739   2.339  1.0006  1.7970 -1.0240
25489SOL    HW282431   7.375   6.842   2.449 -0.6167  0.6384  0.3366
25490SOL     OW82432  12.455   3.153   0.917 -0.3507  0.5622 -0.3527
25490SOL    HW182433  12.448   3.058   0.909 -2.2425  0.6416 -0.2619
25490SOL    HW282434  12.456   3.185   0.827  2.7298  0.3935 -0.4535
25491SOL     OW82435   5.195   2.810  11.725  0.5947 -0.3421 -0.4039
25491SOL    HW182436   5.112   2.762  11.727  0.3563  0.0726 -0.1496
25491SOL    HW282437   5.225   2.810  11.816  1.4770 -1.5123 -0.6793
25492SOL     OW82438   6.814   9.352   0.401 -0.2906  0.2124 -0.2598
25492SOL    HW182439   6.800   9.340   0.307 -0.9876  0.9216 -0.2638
25492SOL    HW282440   6.840   9.266   0.433  1.8186  0.3702 -1.4033
25493SOL     OW82441   7.862   5.209   6.275  0.3950 -0.3680  0.3816
25493SOL    HW182442   7.788   5.211   6.335  0.5395  1.0358  0.5395
25493SOL    HW282443   7.906   5.293   6.288  1.4380 -0.7648 -0.4309
25494SOL     OW82444   6.404  11.707   8.699  0.4643  0.8512  0.3614
25494SOL    HW182445   6.368  11.754   8.774  1.0390 -0.2242  1.3616
25494SOL    HW282446   6.372  11.617   8.710  0.8927  0.5890 -0.4563
25495SOL     OW82447   0.957   3.263   9.766  0.2211 -0.1031  0.0033
25495SOL    HW182448   0.885   3.288   9.708  1.5485  2.6027 -0.6392
25495SOL    HW282449   0.923   3.278   9.854 -0.4498 -0.1485 -0.2455
25496SOL     OW82450   3.754  12.314   9.582  0.3527 -0.7395  0.1075
25496SOL    HW182451   3.687  12.260   9.540 -0.3729 -0.5800  1.0400
25496SOL    HW282452   3.750  12.290   9.674 -0.4103  1.3533  0.6531
25497SOL     OW82453   6.286   0.108   1.811  0.4802 -0.2781 -0.0917
25497SOL    HW182454   6.309   0.015   1.817 -0.8148 -0.7050 -1.0938
25497SOL    HW282455   6.329   0.149   1.886  1.1328 -1.6712  0.3264
25498SOL     OW82456  10.327  11.547   6.753  0.4402  0.6163  0.1083
25498SOL    HW182457  10.356  11.457   6.765 -0.1536  0.6202  1.8257
25498SOL    HW282458  10.365  11.595   6.826  2.1024  2.1567 -1.6528
25499SOL     OW82459   7.265   0.412   5.235 -0.3120  0.1134  0.0250
25499SOL    HW182460   7.309   0.492   5.207  0.8836 -1.0728 -1.6701
25499SOL    HW282461   7.182   0.412   5.187  0.5180 -0.5483 -1.4687
25500SOL     OW82462   6.631  11.737   3.229 -0.3345  0.4098  0.3872
25500SOL    HW182463   6.558  11.705   3.282  0.2981  0.2515  1.1758
25500SOL    HW282464   6.593  11.748   3.141 -1.0642 -0.5673  0.5569
25501SOL     OW82465   5.930  10.145   2.254  0.1658  0.0351 -0.1965
25501SOL    HW182466   6.011  10.186   2.281  0.4709 -1.4088  1.2750
25501SOL    HW282467   5.867  10.217   2.246  0.9238  0.8993  1.2549
25502SOL     OW82468   7.434  11.476  11.517  0.3643  0.2003 -0.0338
25502SOL    HW182469   7.504  11.478  11.452  1.3209  0.8356  0.9923
25502SOL    HW282470   7.418  11.382  11.532 -0.1347  0.0466 -1.4421
25503SOL     OW82471   2.636   7.424   5.905  0.2004 -0.1151  0.1676
25503SOL    HW182472   2.715   7.466   5.870  1.5206 -2.2162  0.4618
25503SOL    HW282473   2.614   7.476   5.982  1.7888  0.0368  0.5581
25504SOL     OW82474   4.765   5.442   6.966 -0.5403 -0.4740  1.0001
25504SOL    HW182475   4.845   5.452   6.914 -0.1490  1.2005  1.8465
25504SOL    HW282476   4.795   5.401   7.048 -0.9581 -1.9921  0.4255
25505SOL     OW82477   0.220   4.143   8.342  0.0512  0.2242 -0.1380
25505SOL    HW182478   0.205   4.110   8.253 -1.1009 -0.1507  0.1677
25505SOL    HW282479   0.132   4.145   8.381  0.5273  0.4922  0.9505
25506SOL     OW82480  10.949   2.366  10.367 -0.6049 -0.6038  0.5388
25506SOL    HW182481  10.926   2.459  10.370 -1.3986 -0.8031  0.9195
25506SOL    HW282482  10.917   2.331  10.450 -2.9055 -1.7725 -0.7528
25507SOL     OW82483   7.673  10.531  10.456 -0.1912  0.0224  0.7896
25507SOL    HW182484   7.595  10.478  10.438  0.5081 -1.5410  2.1060
25507SOL    HW282485   7.638  10.616  10.484 -1.4258 -0.5491  1.0374
25508SOL     OW82486   8.112   7.928   7.312  0.2019 -0.1778  0.0547
25508SOL    HW182487   8.149   8.013   7.334  0.6980 -0.4239  0.1701
25508SOL    HW282488   8.051   7.909   7.384 -0.0785  0.1796 -0.0866
25509SOL     OW82489   7.125   0.744   6.036 -0.6859 -0.9823  0.9002
25509SOL    HW182490   7.114   0.837   6.019  0.2172 -1.2710 -1.9006
25509SOL    HW282491   7.037   0.713   6.057 -1.4852  0.1413 -0.5579
25510SOL     OW82492  12.325   6.163   0.146  0.0910  0.1036  0.1221
25510SOL    HW182493  12.242   6.143   0.189 -1.0946 -0.2001 -2.1209
25510SOL    HW282494  12.319   6.256   0.122 -0.0772 -0.1667 -0.9446
25511SOL     OW82495   1.896   9.873   3.329 -0.2519 -0.7732  0.0457
25511SOL    HW182496   1.881   9.782   3.354 -0.7858 -0.5509  0.5606
25511SOL    HW282497   1.990   9.887   3.341  0.2002 -1.7892 -1.8726
25512SOL     OW82498   6.221   6.382   4.426  0.2762  0.1641  0.8382
25512SOL    HW182499   6.165   6.309   4.454 -0.6039  0.0450 -1.0803
25512SOL    HW282500   6.161   6.441   4.379  1.5254  0.6953 -0.1322
25513SOL     OW82501   7.936   0.908   9.713  0.1859  0.5044 -0.0965
25513SOL    HW182502   7.885   0.948   9.643  1.4516  0.0169 -1.3479
25513SOL    HW282503   8.021   0.889   9.673  1.0146  0.3796  1.6300
25514SOL     OW82504   2.879   5.756   6.713 -0.1964 -0.0963 -0.5119
25514SOL    HW182505   2.809   5.807   6.673 -1.0415 -0.7907  0.0590
25514SOL    HW282506   2.835   5.687   6.762  0.9057 -1.2032 -1.0049
25515SOL     OW82507   6.949   2.752   6.817  0.4171 -0.0027 -0.3066
25515SOL    HW182508   7.034   2.735   6.858  2.0867  1.7389 -2.7685
25515SOL    HW282509   6.922   2.838   6.850  0.1770 -0.0421 -0.3916
25516SOL     OW82510   9.265   6.250   4.613  0.7502  0.1766 -0.2462
25516SOL    HW182511   9.238   6.169   4.569 -0.6258  0.4054  0.1361
25516SOL    HW282512   9.352   6.268   4.577  0.1890 -0.2971 -1.9613
25517SOL     OW82513   6.346   3.447  10.178 -0.0444  0.0346 -0.3015
25517SOL    HW182514   6.422   3.442  10.236  0.5007 -0.5405 -1.0440
25517SOL    HW282515   6.280   3.392  10.220  0.5023 -0.7418 -0.4323
25518SOL     OW82516   3.153   1.298   6.409 -0.0016 -0.3383  0.1086
25518SOL    HW182517   3.246   1.320   6.403 -0.2500  1.3139  1.3533
25518SOL    HW282518   3.142   1.222   6.352  2.0752 -0.4937 -0.1654
25519SOL     OW82519   1.397   7.805  12.050 -0.1479 -0.1087  0.0889
25519SOL    HW182520   1.370   7.778  11.962  1.2520  1.1639 -0.7826
25519SOL    HW282521   1.318   7.839  12.091 -0.8662 -0.9223 -0.5911
25520SOL     OW82522   3.311  12.442   5.552  0.5062  0.6912  0.1938
25520SOL    HW182523   3.377  12.506   5.527  0.0010  1.1481  0.0188
25520SOL    HW282524   3.348  12.358   5.525  1.2405  0.8897  0.5711
25521SOL     OW82525  11.333   9.833   6.474 -0.4556  0.3483  0.2049
25521SOL    HW182526  11.400   9.792   6.530 -1.7535 -1.9669  0.2073
25521SOL    HW282527  11.280   9.884   6.535  0.2485  0.7621  0.4857
25522SOL     OW82528  10.042   6.108   4.362 -0.3457 -0.3801  0.4608
25522SOL    HW182529   9.957   6.113   4.319  0.1295 -1.1778 -0.6029
25522SOL    HW282530  10.033   6.163   4.440 -1.2200  1.1333 -0.6650
25523SOL     OW82531   8.563   3.391   9.830 -0.3776  0.0057 -0.5334
25523SOL    HW182532   8.488   3.387   9.889 -0.1194 -1.8891 -0.2845
25523SOL    HW282533   8.558   3.479   9.791 -0.0153  1.7565  2.9726
25524SOL     OW82534   5.780   3.575   4.307  0.1018 -0.3357 -0.0196
25524SOL    HW182535   5.851   3.538   4.254  0.5252  0.5564 -0.0888
25524SOL    HW282536   5.764   3.509   4.375  0.8462 -0.6404 -0.1343
25525SOL     OW82537   1.243   0.086   4.127 -0.7043  0.1581 -0.2525
25525SOL    HW182538   1.307   0.135   4.076 -2.3662  0.5683 -2.0786
25525SOL    HW282539   1.251  -0.004   4.097 -0.6009  0.0970 -0.0467
25526SOL     OW82540   8.523  11.330   7.824 -0.5374  0.1991 -0.1556
25526SOL    HW182541   8.511  11.261   7.759 -0.4081  0.8795 -0.9187
25526SOL    HW282542   8.568  11.287   7.896 -2.2104 -0.9901  0.2406
25527SOL     OW82543   2.898   7.766   0.314  0.0945 -0.6290  0.0157
25527SOL    HW182544   2.850   7.800   0.239  0.2132 -0.9830 -0.2202
25527SOL    HW282545   2.833   7.719   0.366  0.3552 -1.9152 -0.7840
25528SOL     OW82546   4.864   1.309  12.165 -0.0796  1.0883  0.1989
25528SOL    HW182547   4.863   1.223  12.209 -0.1778  0.4706 -0.9648
25528SOL    HW282548   4.916   1.365  12.223  1.2154 -0.1519  0.2895
25529SOL     OW82549   5.331   1.694  11.573  0.1773  0.6451 -0.2440
25529SOL    HW182550   5.256   1.643  11.544  0.3904 -0.1149  0.4885
25529SOL    HW282551   5.318   1.706  11.667  1.3580 -0.2043  0.0524
25530SOL     OW82552  11.110   0.960   5.273  0.0917  0.2982 -0.1297
25530SOL    HW182553  11.031   0.976   5.324 -0.9193 -1.3594 -1.0797
25530SOL    HW282554  11.143   0.876   5.305 -0.3648 -0.5942 -1.8654
25531SOL     OW82555   4.058   1.759   1.884 -1.1479  0.4307  0.1280
25531SOL    HW182556   4.049   1.692   1.951  0.1847  0.3290  0.2456
25531SOL    HW282557   4.151   1.758   1.862 -1.2952  1.5065 -0.6343
25532SOL     OW82558  11.166   6.076   3.237 -0.3229  0.3524 -0.3715
25532SOL    HW182559  11.202   6.143   3.178 -0.0119  0.5990  0.0940
25532SOL    HW282560  11.171   5.995   3.186  1.2973  0.2893 -0.1840
25533SOL     OW82561  11.771   4.531   4.830 -0.0323  0.1289 -0.2010
25533SOL    HW182562  11.750   4.501   4.742  1.4736 -1.3619 -0.1060
25533SOL    HW282563  11.752   4.457   4.887 -0.9625  1.0639  0.7623
25534SOL     OW82564   4.592   7.461   7.872  0.3545 -0.8228 -0.7993
25534SOL    HW182565   4.614   7.550   7.900 -1.3812 -0.8398  0.9173
25534SOL    HW282566   4.588   7.466   7.777 -2.0218  1.6339 -0.7154
25535SOL     OW82567  11.899  12.279   4.833  0.5197 -0.2645  0.3281
25535SOL    HW182568  11.949  12.232   4.767  0.2360 -0.6703  0.3972
25535SOL    HW282569  11.900  12.370   4.804  0.5789 -0.4051 -0.1181
25536SOL     OW82570  10.288   9.097   1.942  0.2998 -0.7768  0.1056
25536SOL    HW182571  10.330   9.054   1.867 -1.3777 -2.6332  0.1357
25536SOL    HW282572  10.194   9.079   1.930 -0.4217  2.0970  0.6929
25537SOL     OW82573   7.170   5.143   5.699 -0.3329 -0.0078  0.4105
25537SOL    HW182574   7.177   5.050   5.677 -0.9062 -0.1438  0.7800
25537SOL    HW282575   7.232   5.187   5.641 -1.8036 -0.3319 -1.5058
25538SOL     OW82576  10.306   9.654   0.764 -0.2219 -0.0928 -0.1125
25538SOL    HW182577  10.314   9.565   0.730  1.4977  0.9138 -2.5997
25538SOL    HW282578  10.222   9.685   0.729 -0.5085 -0.5165  0.1991
25539SOL     OW82579   2.052   3.350  11.024 -0.0841 -0.2399  0.0087
25539SOL    HW182580   2.000   3.430  11.027 -0.7439 -0.6764  0.5818
25539SOL    HW282581   2.098   3.354  10.940 -0.2298  0.6599 -0.0339
25540SOL     OW82582   2.370   4.814   1.627  0.0084 -0.3528  0.0463
25540SOL    HW182583   2.370   4.899   1.669  2.0365 -0.8975  1.2683
25540SOL    HW282584   2.410   4.755   1.691  0.3912 -1.8505 -1.4898
25541SOL     OW82585   4.198   2.786  10.142  0.6944  0.1829 -0.1714
25541SOL    HW182586   4.220   2.846  10.213 -0.1719 -0.2816  0.5047
25541SOL    HW282587   4.118   2.824  10.104  1.2363  0.5148 -1.0097
25542SOL     OW82588   7.175  11.762   2.984 -0.4824 -0.2899  0.8063
25542SOL    HW182589   7.155  11.847   3.022 -1.6044 -0.9678  1.7738
25542SOL    HW282590   7.092  11.732   2.947 -0.2386 -1.2303  1.0054
25543SOL     OW82591   8.874   7.203   2.211 -0.3659 -0.2177  0.3292
25543SOL    HW182592   8.870   7.153   2.130  0.5081  0.8466 -0.3942
25543SOL    HW282593   8.948   7.262   2.199  0.1306 -0.4085  2.1211
25544SOL     OW82594   4.201   5.832   6.627 -0.2610 -0.2447  0.0419
25544SOL    HW182595   4.280   5.836   6.681 -0.6432 -1.3751  0.6989
25544SOL    HW282596   4.153   5.912   6.650 -0.9901 -1.2703  2.2985
25545SOL     OW82597   3.570   3.986  11.398  0.3189  0.3999 -0.3430
25545SOL    HW182598   3.604   3.901  11.369 -0.0281 -0.1904  0.8993
25545SOL    HW282599   3.639   4.021  11.455  0.0643  0.5191 -0.1054
25546SOL     OW82600   1.303   7.392   1.403 -0.4770  0.2895 -0.1309
25546SOL    HW182601   1.228   7.445   1.375 -1.2662  0.0456  1.4295
25546SOL    HW282602   1.348   7.371   1.321 -2.3244  0.1267 -1.1762
25547SOL     OW82603   3.450   2.085   4.287  0.0433 -0.1738  0.1605
25547SOL    HW182604   3.372   2.132   4.315 -0.7336  0.1859 -2.3856
25547SOL    HW282605   3.421   1.994   4.279  0.4482 -0.3990  1.1232
25548SOL     OW82606   9.628   0.596  10.556  0.0669 -0.3143 -0.2279
25548SOL    HW182607   9.659   0.668  10.610 -1.4630 -0.3045  0.7082
25548SOL    HW282608   9.677   0.604  10.474  0.6994  1.1259  0.2580
25549SOL     OW82609   1.928   8.181   9.427 -0.2860 -0.0594  0.0303
25549SOL    HW182610   1.913   8.090   9.453  2.6713 -0.1157  1.9461
25549SOL    HW282611   1.888   8.233   9.497  1.6638 -0.0568  1.2089
25550SOL     OW82612   1.073   2.551   3.307  0.2083  0.5008 -0.0843
25550SOL    HW182613   1.084   2.581   3.217 -1.0540  0.7631 -0.1609
25550SOL    HW282614   1.060   2.457   3.300 -0.7478  0.6346 -0.2653
25551SOL     OW82615   8.583   3.680  11.297 -0.9396  0.0173 -0.4249
25551SOL    HW182616   8.563   3.684  11.204  1.0315  0.7539 -0.8510
25551SOL    HW282617   8.675   3.656  11.302 -0.1189  2.9669  1.1925
25552SOL     OW82618  11.799   6.422   5.768  0.1935 -0.0731  0.3026
25552SOL    HW182619  11.759   6.448   5.851  3.2563  2.1272  1.2785
25552SOL    HW282620  11.834   6.334   5.785 -0.0108 -0.0142  1.0509
25553SOL     OW82621   3.222   1.855   7.186  0.6113  0.4201  0.2790
25553SOL    HW182622   3.158   1.785   7.171  1.4213 -0.4556  0.8401
25553SOL    HW282623   3.297   1.811   7.224  1.9392  1.2775 -1.2153
25554SOL     OW82624   5.463   8.423   3.484  0.0597 -0.0472 -0.0631
25554SOL    HW182625   5.470   8.332   3.515 -1.9174  0.0797  0.9004
25554SOL    HW282626   5.507   8.422   3.399  3.1933 -1.0632  1.3928
25555SOL     OW82627   0.570  11.396   4.700 -0.0614 -0.0482 -0.2939
25555SOL    HW182628   0.651  11.391   4.649  0.2933 -0.2631  0.2812
25555SOL    HW282629   0.595  11.366   4.788 -0.6314  0.4359  0.0406
25556SOL     OW82630   5.257   0.382   2.184  0.0895 -0.0689 -0.4625
25556SOL    HW182631   5.249   0.300   2.233 -0.8938  0.5223  0.4152
25556SOL    HW282632   5.319   0.435   2.234 -0.1500  0.1518 -0.3942
25557SOL     OW82633   4.088   2.018   1.638  0.0154  0.0527 -0.6023
25557SOL    HW182634   4.060   2.091   1.694 -1.6551 -1.7144  1.0598
25557SOL    HW282635   4.183   2.014   1.649 -0.0447  1.0268  0.4871
25558SOL     OW82636   4.441   4.818   8.647 -0.2417 -0.1395  0.0150
25558SOL    HW182637   4.358   4.776   8.621 -0.9533  1.6820 -0.8546
25558SOL    HW282638   4.472   4.861   8.567  1.3574 -0.4640  0.4367
25559SOL     OW82639   8.518   8.256   6.616  0.1818  0.3267  0.5384
25559SOL    HW182640   8.551   8.341   6.646 -1.3105  1.0512  0.2423
25559SOL    HW282641   8.534   8.257   6.521  2.5684 -0.8822  0.8620
25560SOL     OW82642   4.716   4.148   2.243  0.1494  0.1785  0.5727
25560SOL    HW182643   4.687   4.059   2.224  0.1332  0.6413 -1.8995
25560SOL    HW282644   4.759   4.177   2.163  0.7280  2.1948  1.5402
25561SOL     OW82645   7.109   3.855   9.025 -0.0599 -0.4454 -0.0767
25561SOL    HW182646   7.188   3.830   8.978  0.5827 -0.2392  0.8723
25561SOL    HW282647   7.037   3.815   8.976  0.7295 -1.7143 -0.2142
25562SOL     OW82648  10.366  11.950   3.915 -0.4062  0.0371  0.1919
25562SOL    HW182649  10.414  11.883   3.964 -0.3828  0.1892  0.3798
25562SOL    HW282650  10.365  11.919   3.825  3.7072  1.9618 -0.7650
25563SOL     OW82651  12.147   3.012   2.438 -0.2319  0.0389  0.4573
25563SOL    HW182652  12.217   3.059   2.483 -0.5419  1.2382 -0.2615
25563SOL    HW282653  12.192   2.944   2.388  0.4188  0.7455  0.0638
25564SOL     OW82654   6.281   2.139   6.307  0.1706 -0.6173  0.6807
25564SOL    HW182655   6.301   2.162   6.216  1.7111 -0.9367  0.9104
25564SOL    HW282656   6.292   2.044   6.311 -0.5382 -0.6945  1.0690
25565SOL     OW82657   9.960   1.930   5.093  0.0707  0.0624 -0.2012
25565SOL    HW182658   9.902   1.912   5.018  2.4444 -1.8653 -1.7020
25565SOL    HW282659   9.990   2.020   5.078  0.1759 -0.1442 -1.3640
25566SOL     OW82660   2.157   2.834   4.045  0.4394 -0.0760  0.7719
25566SOL    HW182661   2.173   2.861   4.136  0.8896  0.2041  0.6111
25566SOL    HW282662   2.244   2.826   4.007  0.4945 -3.7128  1.3478
25567SOL     OW82663   6.634   0.067   4.583  0.3579  0.2381  0.3182
25567SOL    HW182664   6.680  -0.008   4.620  0.2980  0.4840  0.8949
25567SOL    HW282665   6.541   0.045   4.591  0.2380  1.2932  2.5325
25568SOL     OW82666   1.818   9.465   9.933 -0.0332  0.2309 -0.5404
25568SOL    HW182667   1.823   9.552   9.893 -1.2355 -0.2143 -1.7141
25568SOL    HW282668   1.726   9.440   9.925  0.3352 -1.2401 -0.4063
25569SOL     OW82669   8.881   1.449   3.255  0.5058  0.2706 -0.6460
25569SOL    HW182670   8.875   1.409   3.342  1.1577  0.8545 -0.3224
25569SOL    HW282671   8.899   1.376   3.196 -2.3340 -0.5207 -0.6810
25570SOL     OW82672   3.194   5.689   6.152 -0.3306  0.0464  0.1421
25570SOL    HW182673   3.243   5.608   6.140 -0.9021  0.0004 -2.4224
25570SOL    HW282674   3.242   5.736   6.220  3.2885 -0.0811 -2.0618
25571SOL     OW82675  10.352  11.815   7.391 -0.1459  0.1085 -0.2542
25571SOL    HW182676  10.339  11.798   7.484 -0.1939  2.7118  0.2816
25571SOL    HW282677  10.358  11.728   7.351 -0.0978 -1.0656  2.1621
25572SOL     OW82678  10.927   1.091  11.232 -0.0829 -0.5380  0.5119
25572SOL    HW182679  10.903   1.089  11.139  1.1187 -0.8907  0.1783
25572SOL    HW282680  10.987   1.017  11.242 -0.0507 -0.3839  1.5263
25573SOL     OW82681   1.873  11.731   4.493  0.2973  0.6844  0.4071
25573SOL    HW182682   1.837  11.672   4.560 -0.8141  1.6538  0.6957
25573SOL    HW282683   1.953  11.687   4.463  0.3545 -0.1933  1.7459
25574SOL     OW82684   4.516   4.080   4.366 -0.3335 -0.1651  0.0452
25574SOL    HW182685   4.495   4.016   4.434  0.4475 -0.0839  0.3774
25574SOL    HW282686   4.595   4.124   4.398 -0.7051  0.7834 -0.3001
25575SOL     OW82687  10.031   1.374   1.796 -0.0276  0.1355  0.4230
25575SOL    HW182688  10.054   1.463   1.766 -0.1678 -0.3696 -1.2986
25575SOL    HW282689  10.041   1.320   1.718  0.3133 -1.4293  1.5153
25576SOL     OW82690   4.382   0.413  10.152  0.2239 -0.2034 -0.5662
25576SOL    HW182691   4.336   0.492  10.179  1.1439  0.0743  0.2183
25576SOL    HW282692   4.445   0.396  10.222 -1.2615 -2.7564  0.3288
25577SOL     OW82693   7.913   1.636   7.046  0.2304 -0.5793  0.4480
25577SOL    HW182694   7.890   1.726   7.069 -1.9436 -0.8049 -0.6076
25577SOL    HW282695   7.984   1.613   7.106  2.0652  2.3987 -0.3834
25578SOL     OW82696   3.735   8.769   0.474  0.5762 -0.0909 -0.0352
25578SOL    HW182697   3.751   8.674   0.477  0.4575 -0.1086  0.0526
25578SOL    HW282698   3.662   8.779   0.413  0.3140 -0.0932  0.2751
25579SOL     OW82699   8.334   4.805   0.951  0.2804 -0.6918 -0.0514
25579SOL    HW182700   8.287   4.731   0.913  0.3826 -1.0410  0.4798
25579SOL    HW282701   8.292   4.819   1.036  0.2774 -0.1497 -0.1399
25580SOL     OW82702  10.111   5.765   8.274  0.0734 -0.2505  0.5246
25580SOL    HW182703  10.052   5.744   8.202 -0.6241 -0.7675  1.2229
25580SOL    HW282704  10.065   5.832   8.324 -0.4728 -1.4655  1.7122
25581SOL     OW82705   9.045   2.927   4.406  0.5893  0.2985  0.4639
25581SOL    HW182706   9.060   3.011   4.450 -1.4515  0.8866  0.1333
25581SOL    HW282707   9.034   2.864   4.477  0.3291  0.6706  0.7608
25582SOL     OW82708   5.599  10.606   7.379 -0.4302 -0.0661  0.0425
25582SOL    HW182709   5.539  10.670   7.340  0.2869  0.7305  0.2119
25582SOL    HW282710   5.543  10.533   7.405 -0.9864 -0.4270 -2.0421
25583SOL     OW82711  11.880  11.851   4.865  0.0946  0.3098 -0.3534
25583SOL    HW182712  11.891  11.841   4.770  0.2477  1.0457 -0.4225
25583SOL    HW282713  11.791  11.882   4.876 -0.6349 -1.7072 -0.0882
25584SOL     OW82714   3.505   3.548   3.771  0.3022  0.0029 -0.1178
25584SOL    HW182715   3.414   3.530   3.797  0.7302  0.0656  1.5674
25584SOL    HW282716   3.538   3.607   3.839  1.8225 -0.6085 -0.2855
25585SOL     OW82717   4.331   0.157   0.131 -0.0951 -0.3523  0.6524
25585SOL    HW182718   4.297   0.244   0.150  0.7017 -0.3191  2.0801
25585SOL    HW282719   4.253   0.104   0.117 -0.5999  0.5140  0.0906
25586SOL     OW82720   7.870  11.031   9.867  0.4283 -0.2371 -0.0851
25586SOL    HW182721   7.949  11.053   9.818  0.3375  0.5884  0.1370
25586SOL    HW282722   7.825  11.114   9.880 -0.5381 -0.7118 -0.3083
25587SOL     OW82723   8.991   9.389   0.943 -0.6430  0.2844  0.1793
25587SOL    HW182724   9.086   9.402   0.932 -0.8668  0.3872 -2.1415
25587SOL    HW282725   8.976   9.404   1.036  1.5302  0.8726  0.5072
25588SOL     OW82726   8.814   6.455   7.114  0.2781  0.0000  0.1463
25588SOL    HW182727   8.887   6.482   7.169  0.7406  0.9547 -0.8950
25588SOL    HW282728   8.851   6.391   7.053  0.0907 -0.0353  0.0662
25589SOL     OW82729   8.895   0.670   9.627  0.1049 -0.4037  0.3454
25589SOL    HW182730   8.952   0.736   9.667  1.1071 -2.0455  1.7635
25589SOL    HW282731   8.899   0.689   9.533  0.4824  1.4319  0.6945
25590SOL     OW82732   8.536  10.457  12.102  0.1057  0.2126  0.1839
25590SOL    HW182733   8.548  10.362  12.102  0.2623  0.2318  0.4067
25590SOL    HW282734   8.573  10.486  12.186 -0.7258  0.3733  0.5031
25591SOL     OW82735  11.290   2.770   4.628  0.3161  0.3129  0.5289
25591SOL    HW182736  11.200   2.799   4.616  0.9403  2.3811  0.4209
25591SOL    HW282737  11.327   2.770   4.540  0.6578  0.3421  0.6711
25592SOL     OW82738  12.252   6.907   7.234  0.2316  0.1827 -0.0924
25592SOL    HW182739  12.161   6.923   7.210  0.3235  0.7938 -0.0358
25592SOL    HW282740  12.272   6.975   7.298  0.9346  0.4668 -0.6057
25593SOL     OW82741   9.247   5.107   4.247 -0.6226  0.3051 -0.2670
25593SOL    HW182742   9.171   5.123   4.191 -1.1860 -0.0693  0.3782
25593SOL    HW282743   9.212   5.109   4.336 -0.1122 -1.1504 -0.0051
25594SOL     OW82744   9.997  11.042  11.178 -0.3219  0.4431  0.0196
25594SOL    HW182745  10.034  10.984  11.245  1.5788  1.3671 -0.1492
25594SOL    HW282746  10.016  10.998  11.095 -0.0233  0.6964 -0.0473
25595SOL     OW82747   1.306   2.056   3.543  0.1845  0.6114 -0.6860
25595SOL    HW182748   1.304   2.149   3.520 -1.6009  0.9073  0.4628
25595SOL    HW282749   1.223   2.041   3.589  0.3685 -1.5915 -0.9824
25596SOL     OW82750   0.010   6.786   5.666 -0.1622  0.6363  0.7133
25596SOL    HW182751   0.096   6.770   5.627 -0.3885 -2.7459  1.2739
25596SOL    HW282752   0.023   6.774   5.760 -1.0738  1.0018  0.9045
25597SOL     OW82753   6.628  10.099   1.873 -0.0015 -0.8973 -0.0973
25597SOL    HW182754   6.688  10.139   1.936  0.5441  0.2088 -1.2689
25597SOL    HW282755   6.685  10.048   1.815 -0.3860 -1.1200 -0.2874
25598SOL     OW82756  10.452  12.058   6.910  0.2532 -0.2427  0.5536
25598SOL    HW182757  10.458  12.135   6.967  1.3131  0.1931 -0.1079
25598SOL    HW282758  10.513  11.995   6.949 -0.2369 -0.5605  0.8094
25599SOL     OW82759   1.263   6.213   0.503 -0.3519 -0.5846 -0.1138
25599SOL    HW182760   1.352   6.249   0.498 -0.4271 -0.0752  1.5839
25599SOL    HW282761   1.206   6.290   0.506 -0.7702 -0.8917 -0.1407
25600SOL     OW82762   2.224   0.013   2.908  0.7078  0.1977 -0.1677
25600SOL    HW182763   2.135   0.045   2.926  0.9825  1.7352 -1.3238
25600SOL    HW282764   2.216  -0.082   2.910 -0.6303  0.2860  1.2938
25601SOL     OW82765   3.315   5.772   5.601 -0.1081  0.2527  0.4951
25601SOL    HW182766   3.291   5.727   5.520 -1.3902  1.8875 -0.0815
25601SOL    HW282767   3.252   5.843   5.609  2.0714  2.2615  1.1211
25602SOL     OW82768   8.810   6.330   1.512 -0.1333 -0.0266  0.3646
25602SOL    HW182769   8.856   6.312   1.594 -0.1843 -0.5748  0.2746
25602SOL    HW282770   8.785   6.244   1.478 -1.6069  0.2669  0.6216
25603SOL     OW82771   1.594  11.001   8.441  0.1597 -0.3401  0.2066
25603SOL    HW182772   1.572  11.085   8.483 -0.8754 -0.4790 -0.0289
25603SOL    HW282773   1.509  10.963   8.419  0.6704 -0.4915 -1.5786
25604SOL     OW82774  10.266   9.640   7.448 -0.3183 -0.3934  0.3478
25604SOL    HW182775  10.358   9.658   7.468 -0.4554 -0.0436  0.6797
25604SOL    HW282776  10.255   9.671   7.359 -0.6819  1.7260  1.0802
25605SOL     OW82777   3.227   9.278   2.689 -0.4276  0.0427  0.2896
25605SOL    HW182778   3.148   9.223   2.693 -1.2244  1.1429  0.3730
25605SOL    HW282779   3.201   9.353   2.634  0.6847  0.2486  0.0140
25606SOL     OW82780   2.828   3.052  11.746  0.1764  0.0074 -0.3851
25606SOL    HW182781   2.820   2.956  11.745  1.8674 -0.1785 -2.2318
25606SOL    HW282782   2.853   3.075  11.656  0.0399  2.1703  0.0786
25607SOL     OW82783   3.145   8.988   0.980  0.1864 -0.1522 -0.1931
25607SOL    HW182784   3.063   8.956   1.017 -1.3144  1.1483 -2.1752
25607SOL    HW282785   3.164   9.068   1.028  1.5821 -1.5570  1.7707
25608SOL     OW82786  10.481  10.049   9.327 -0.1232  0.1159  0.1229
25608SOL    HW182787  10.438  10.102   9.260  0.9144  1.8801  0.7862
25608SOL    HW282788  10.573  10.049   9.302  0.0842 -0.2906  0.8603
25609SOL     OW82789   9.898  11.200   2.621 -0.4100 -0.3957  0.2388
25609SOL    HW182790   9.950  11.274   2.652 -0.0514 -1.3380  2.0384
25609SOL    HW282791   9.810  11.234   2.610 -0.2615  0.2797  1.1100
25610SOL     OW82792   5.004   5.605   2.565  0.1667  0.3407 -0.7052
25610SOL    HW182793   5.049   5.689   2.571  0.5571  0.0655  0.5505
25610SOL    HW282794   4.990   5.580   2.656 -0.6719 -0.5735 -1.0746
25611SOL     OW82795   7.683   5.289  10.015  0.1476 -0.1103  0.2221
25611SOL    HW182796   7.607   5.242   9.980 -0.4089  0.8782  0.0618
25611SOL    HW282797   7.733   5.314   9.938  0.3375 -0.2681  0.2946
25612SOL     OW82798   3.661   9.028   2.042 -0.0549 -0.9360 -0.4784
25612SOL    HW182799   3.722   8.996   1.976  1.9065  0.9613  0.2690
25612SOL    HW282800   3.717   9.059   2.114 -1.9282  0.2583  0.5790
25613SOL     OW82801   2.443   1.683  10.100 -0.2212  0.0091 -0.1725
25613SOL    HW182802   2.484   1.633  10.171 -2.5768  0.3925  1.5800
25613SOL    HW282803   2.470   1.773  10.115 -1.0579  0.1545  0.5452
25614SOL     OW82804   9.649  11.812   1.299 -0.1737 -0.4225  0.4196
25614SOL    HW182805   9.571  11.867   1.298 -0.7854 -1.2661 -0.2736
25614SOL    HW282806   9.635  11.752   1.372  0.5164  0.3531  1.2072
25615SOL     OW82807  11.654  11.009   9.520  0.2559 -0.3416 -0.2085
25615SOL    HW182808  11.616  10.969   9.598 -0.9081  1.0514 -0.0099
25615SOL    HW282809  11.677  10.936   9.464  2.2017 -1.4730  1.8667
25616SOL     OW82810   6.833   4.368   9.134 -0.5116 -1.0028 -0.1225
25616SOL    HW182811   6.821   4.293   9.076  1.6000 -1.7685  0.3425
25616SOL    HW282812   6.897   4.423   9.089 -0.5341 -0.4798  0.4752
25617SOL     OW82813   8.300  10.723   2.204  0.0175  0.2825 -0.3529
25617SOL    HW182814   8.304  10.816   2.183 -0.1900  0.1932 -0.8067
25617SOL    HW282815   8.352  10.680   2.136  1.2461  0.1734  0.6247
25618SOL     OW82816   9.318   1.190   8.817 -0.5788  0.7790 -0.7173
25618SOL    HW182817   9.387   1.256   8.813  1.3187 -1.0616 -0.6739
25618SOL    HW282818   9.340   1.137   8.894 -0.8748 -1.0371 -1.8183
25619SOL     OW82819  12.446   3.733  10.415  0.2726  0.2641 -0.0623
25619SOL    HW182820  12.407   3.684  10.342 -0.8995 -0.9745  1.3294
25619SOL    HW282821  12.540   3.720  10.406  0.0641 -0.9841 -0.5957
25620SOL     OW82822   1.265   8.722   1.304  0.1262  0.0346 -0.0901
25620SOL    HW182823   1.280   8.816   1.306  0.1029  0.0313  0.5124
25620SOL    HW282824   1.171   8.713   1.292  0.0452  0.0962  0.4852
25621SOL     OW82825   6.705  11.873   0.551  0.1841 -0.4360  0.2565
25621SOL    HW182826   6.764  11.948   0.563  1.3495 -1.1474 -0.7533
25621SOL    HW282827   6.619  11.906   0.576  0.7577  1.0784  0.3542
25622SOL     OW82828  10.697   7.593   6.959  0.3125  1.0019 -0.0452
25622SOL    HW182829  10.753   7.520   6.934  0.5134  1.6806 -1.7113
25622SOL    HW282830  10.743   7.670   6.927  0.5626  1.9945  2.4939
25623SOL     OW82831   3.067   6.969   0.682  0.1896  0.4969  0.0639
25623SOL    HW182832   3.050   7.033   0.751  1.3602  2.3305 -1.2475
25623SOL    HW282833   3.010   6.995   0.610  0.2977 -0.2802 -0.3206
25624SOL     OW82834   9.873  11.096   6.703  0.3868 -0.5631 -0.5109
25624SOL    HW182835   9.911  11.143   6.629  0.7788 -2.1460 -1.3691
25624SOL    HW282836   9.913  11.136   6.780 -0.8889  1.8817 -1.0495
25625SOL     OW82837   1.480   8.273   3.797 -0.3900 -0.5972 -0.0246
25625SOL    HW182838   1.409   8.211   3.781 -0.4538  0.0845 -2.8906
25625SOL    HW282839   1.438   8.346   3.843 -0.6755 -1.8156  1.7543
25626SOL     OW82840   0.261  11.413   8.408  0.0572  0.7066  0.0626
25626SOL    HW182841   0.243  11.452   8.493 -0.3079 -0.7188  0.6749
25626SOL    HW282842   0.237  11.480   8.345 -0.9698  1.3094  1.0548
25627SOL     OW82843   7.185   8.275   2.296  0.3462 -0.2473 -0.2923
25627SOL    HW182844   7.120   8.272   2.367 -0.3090 -0.8097 -0.9049
25627SOL    HW282845   7.238   8.196   2.309  1.7185  0.8037  0.9234
25628SOL     OW82846   0.572   8.859   7.166  0.0142 -0.0219  0.1999
25628SOL    HW182847   0.533   8.803   7.098  2.5956 -2.1169  0.2709
25628SOL    HW282848   0.640   8.908   7.120 -0.2719  0.8774  0.7187
25629SOL     OW82849   4.175   8.265   1.427 -0.0876  0.6856 -0.0583
25629SOL    HW182850   4.150   8.189   1.479  2.3545  0.3603  0.7837
25629SOL    HW282851   4.159   8.239   1.336  0.0116 -0.5706  0.2686
25630SOL     OW82852   2.126   7.708   2.082 -0.4821 -0.7617 -0.1456
25630SOL    HW182853   2.164   7.657   2.154 -0.1933 -0.2891  0.0417
25630SOL    HW282854   2.052   7.754   2.122 -0.5151 -0.7472 -0.2232
25631SOL     OW82855   2.144  10.901  10.535  0.6773 -0.1391 -0.4866
25631SOL    HW182856   2.101  10.823  10.570  1.9917 -0.6307  0.1344
25631SOL    HW282857   2.109  10.974  10.586  0.8023 -0.5677  0.2250
25632SOL     OW82858   3.210   0.174   2.330  0.0384 -0.3078  0.4427
25632SOL    HW182859   3.178   0.250   2.379 -1.0464 -0.6577  0.3096
25632SOL    HW282860   3.145   0.162   2.260  0.4583 -1.0651  0.1722
25633SOL     OW82861   1.434   1.429   9.503  0.0145 -0.2375  0.1392
25633SOL    HW182862   1.418   1.340   9.534  1.1902 -0.5391 -0.0504
25633SOL    HW282863   1.466   1.418   9.413  2.1077  0.1971  0.7815
25634SOL     OW82864   2.592   6.425   3.700 -0.5499  0.3998 -0.0630
25634SOL    HW182865   2.627   6.424   3.789  0.3152  0.7703 -0.3890
25634SOL    HW282866   2.653   6.480   3.651 -0.2794 -0.8588 -1.1876
25635SOL     OW82867   3.332   3.517   9.740 -0.5111  0.6427  0.3892
25635SOL    HW182868   3.278   3.552   9.670  0.6179  2.2335  0.2385
25635SOL    HW282869   3.322   3.580   9.811  0.8834  0.8271  0.4502
25636SOL     OW82870   5.592  11.959   3.946 -0.0212  0.6954  0.5160
25636SOL    HW182871   5.589  11.935   4.039  1.7839  1.2062  0.7389
25636SOL    HW282872   5.685  11.964   3.926 -0.3857  0.1285 -1.4700
25637SOL     OW82873   1.538  12.254   6.985  0.6999 -0.5945 -0.5447
25637SOL    HW182874   1.622  12.208   6.989  2.0356  1.7387  0.8708
25637SOL    HW282875   1.510  12.259   7.077  0.0622  0.4343 -0.7853
25638SOL     OW82876   4.196   0.402   0.191 -0.1050  0.4671  0.1067
25638SOL    HW182877   4.103   0.393   0.174 -0.1668 -0.2022  0.7800
25638SOL    HW282878   4.204   0.397   0.287  0.6877 -0.1485  0.0169
25639SOL     OW82879   7.308   0.664   1.862  0.5255  0.0823 -0.8099
25639SOL    HW182880   7.289   0.691   1.951 -0.0643  0.6513 -1.1037
25639SOL    HW282881   7.389   0.709   1.839  1.7481 -1.5388  0.0794
25640SOL     OW82882   7.363   7.779   9.370  0.0208  0.9951  0.1925
25640SOL    HW182883   7.421   7.716   9.326 -0.1846  0.5026  0.6053
25640SOL    HW282884   7.303   7.724   9.420  1.3279  1.5178  2.5004
25641SOL     OW82885   4.188   3.217   9.450  0.3053 -0.0492 -0.5649
25641SOL    HW182886   4.143   3.300   9.460  0.4415 -0.0016 -0.3453
25641SOL    HW282887   4.118   3.152   9.444  0.1435  0.2312 -2.2914
25642SOL     OW82888   7.921   4.029   6.323  0.0967 -0.4704  0.3480
25642SOL    HW182889   7.979   4.105   6.324  1.1265 -1.1784 -1.2191
25642SOL    HW282890   7.862   4.042   6.397  1.3986  0.9540  1.1764
25643SOL     OW82891  11.921   0.077   6.954  0.2328  0.3638 -0.0014
25643SOL    HW182892  11.856   0.008   6.967  0.5525 -0.3758 -1.9725
25643SOL    HW282893  11.998   0.047   7.002  0.0108 -0.1091  0.0656
25644SOL     OW82894   9.772   2.466   8.977  0.5029 -0.8114 -0.5972
25644SOL    HW182895   9.740   2.435   9.061 -1.6709 -1.1997 -1.4884
25644SOL    HW282896   9.867   2.469   8.986  0.2643  1.0433  2.4731
25645SOL     OW82897   5.886   8.004   2.277 -0.0993 -0.1876 -0.1092
25645SOL    HW182898   5.894   8.018   2.183  0.5733 -0.1723 -0.0519
25645SOL    HW282899   5.863   8.090   2.312 -1.8908 -0.5030 -0.4190
25646SOL     OW82900   7.722   9.379  11.984 -0.4602  0.1166 -0.0953
25646SOL    HW182901   7.738   9.285  11.980 -1.7584 -0.1749  0.9311
25646SOL    HW282902   7.809   9.417  11.999  0.1077 -0.8907 -0.7146
25647SOL     OW82903   1.517   8.704   4.800  0.6284 -0.5479 -0.9420
25647SOL    HW182904   1.461   8.632   4.829  0.6251 -0.2697 -0.2474
25647SOL    HW282905   1.561   8.734   4.879  0.5199  0.3135 -1.1954
25648SOL     OW82906   9.850  10.276  11.987  0.2043 -0.1199  0.2568
25648SOL    HW182907   9.781  10.250  11.926 -1.2852 -0.4970  2.0339
25648SOL    HW282908   9.891  10.351  11.945 -0.5393 -0.5707 -1.3677
25649SOL     OW82909   0.765   0.685   9.818  0.0242 -0.3307  0.1394
25649SOL    HW182910   0.698   0.640   9.869  0.4897 -0.5808  0.5389
25649SOL    HW282911   0.827   0.718   9.883 -0.7103  1.6157 -0.0564
25650SOL     OW82912   8.409   9.364  10.656 -0.3635  0.8344  0.3759
25650SOL    HW182913   8.381   9.405  10.574  1.5218 -0.4577 -1.0103
25650SOL    HW282914   8.482   9.308  10.630  0.1705  0.2395  2.9447
25651SOL     OW82915   7.891   8.886   1.781  0.6251  0.7658 -0.0522
25651SOL    HW182916   7.816   8.892   1.722  0.2209  0.4527  0.4230
25651SOL    HW282917   7.928   8.974   1.781  2.1628  0.2229 -2.7201
25652SOL     OW82918   0.763   8.942   8.593 -0.1106  0.3132 -0.6259
25652SOL    HW182919   0.723   9.023   8.625  0.6679  0.3488  0.2901
25652SOL    HW282920   0.711   8.873   8.634 -1.9689  0.2515 -2.8355
25653SOL     OW82921   8.946   6.563  11.303  0.2840 -0.2771  0.5226
25653SOL    HW182922   8.953   6.540  11.211 -0.3005 -2.2040  0.9233
25653SOL    HW282923   8.866   6.520  11.333 -0.0799  1.1422  1.7122
25654SOL     OW82924   6.143  11.652   1.711 -0.1109 -0.0508  0.2112
25654SOL    HW182925   6.062  11.638   1.760 -0.6247  0.7375 -0.4045
25654SOL    HW282926   6.134  11.738   1.673  1.8196  0.8827  1.6578
25655SOL     OW82927   4.275   4.039  12.473  0.3326 -0.1708  0.1138
25655SOL    HW182928   4.269   4.120  12.524  1.1172  0.9031 -1.4275
25655SOL    HW282929   4.363   4.005  12.492  0.3214 -0.2026  0.1084
25656SOL     OW82930   2.492   9.224  10.424  0.3933 -0.2356 -0.6471
25656SOL    HW182931   2.541   9.236  10.343  1.9160  0.6105  0.3429
25656SOL    HW282932   2.499   9.130  10.442  2.7397 -0.0106  0.0422
25657SOL     OW82933   5.002  11.449   2.151 -0.2807 -0.2684 -0.0257
25657SOL    HW182934   4.938  11.518   2.137 -0.6661 -0.6080  0.0269
25657SOL    HW282935   5.017  11.449   2.246 -0.3219 -0.2940 -0.0191
25658SOL     OW82936   4.011  11.956   6.735  0.2626 -0.7581  0.7733
25658SOL    HW182937   4.076  12.008   6.689 -1.9093  1.4668 -0.0176
25658SOL    HW282938   3.952  11.924   6.666 -1.0152 -0.4001  1.6487
25659SOL     OW82939   5.363   1.898   4.485 -0.4057  0.5508 -0.0585
25659SOL    HW182940   5.456   1.885   4.467 -0.0044  2.1710  0.6755
25659SOL    HW282941   5.343   1.836   4.554  0.6807  1.5711  1.2367
25660SOL     OW82942   6.191   3.670   6.437  0.6432  0.2706 -0.3895
25660SOL    HW182943   6.263   3.729   6.412  0.4978  1.7781  2.2971
25660SOL    HW282944   6.233   3.603   6.490  0.1006  1.6112  1.8846
25661SOL     OW82945   1.164   5.775   0.681 -0.1568 -0.0274  0.2806
25661SOL    HW182946   1.100   5.764   0.611 -1.7137  1.3369  1.4253
25661SOL    HW282947   1.116   5.756   0.762  0.9327  0.8150  1.1666
25662SOL     OW82948  12.358   3.516   0.764 -0.3192  0.1553 -0.4965
25662SOL    HW182949  12.381   3.426   0.742  0.0773  0.6197 -2.1617
25662SOL    HW282950  12.409   3.536   0.842  0.1312 -0.8444 -0.5230
25663SOL     OW82951   3.495   1.604  11.903 -0.6549  0.1506  0.8354
25663SOL    HW182952   3.551   1.623  11.978  0.0410  2.4682 -0.1692
25663SOL    HW282953   3.416   1.657  11.918 -1.4378 -1.0007  0.9153
25664SOL     OW82954  11.742   6.842   8.662  0.1576 -0.0395  0.9003
25664SOL    HW182955  11.788   6.923   8.639  1.0950 -0.1537  2.2580
25664SOL    HW282956  11.792   6.773   8.619  0.8073 -0.0861  1.6948
25665SOL     OW82957   2.050   1.361   7.180  0.5503 -0.1452  0.3891
25665SOL    HW182958   1.962   1.385   7.207  1.2143  2.3755  0.5413
25665SOL    HW282959   2.071   1.421   7.109  1.9486 -1.0767 -0.0325
25666SOL     OW82960   4.284  11.677   4.308  0.3931  0.0435  0.0385
25666SOL    HW182961   4.359  11.677   4.248  0.5944  0.5467  0.2906
25666SOL    HW282962   4.320  11.650   4.392  0.3562  0.5899  0.2355
25667SOL     OW82963   8.659   5.986   4.735 -0.1926 -0.2581 -0.3028
25667SOL    HW182964   8.570   5.999   4.767  0.3786  1.9930  0.5883
25667SOL    HW282965   8.650   5.924   4.663 -2.6082  0.6289 -0.8610
25668SOL     OW82966   6.930   7.078   4.394  0.8399  0.0431  0.1049
25668SOL    HW182967   6.935   7.105   4.486 -1.8206 -0.6118  0.5287
25668SOL    HW282968   6.997   7.010   4.386  2.3476  1.3310  1.0339
25669SOL     OW82969   0.937   4.500   0.190 -0.1317  0.3620  0.1567
25669SOL    HW182970   0.957   4.567   0.125 -1.1776  0.8646  0.3393
25669SOL    HW282971   0.867   4.448   0.150 -0.1391  0.1110  0.4948
25670SOL     OW82972   7.108   4.213  12.041 -0.0805  0.3459 -0.1490
25670SOL    HW182973   7.095   4.156  11.966 -0.2038 -0.3493  0.3915
25670SOL    HW282974   7.120   4.300  12.003  0.8187 -0.1343 -1.0203
25671SOL     OW82975   8.888  11.189   1.499 -0.2877 -0.3211  0.3430
25671SOL    HW182976   8.803  11.219   1.465 -0.1746  0.2231  0.5326
25671SOL    HW282977   8.881  11.201   1.594  0.0036 -0.2780  0.3581
25672SOL     OW82978   0.524   3.613   0.514 -0.8158  0.6110  0.4414
25672SOL    HW182979   0.464   3.672   0.560 -0.3788  1.7317 -0.4040
25672SOL    HW282980   0.585   3.670   0.468 -0.0758 -0.5027 -0.0120
25673SOL     OW82981  11.930   5.609   3.975 -0.1236  0.3738  0.2945
25673SOL    HW182982  11.843   5.571   3.976 -0.2026  0.5386 -0.0536
25673SOL    HW282983  11.982   5.549   3.922 -0.1067  0.4439  0.2300
25674SOL     OW82984   5.947   6.229   3.680  0.3176  0.1507  0.3554
25674SOL    HW182985   5.971   6.321   3.667 -0.6055  0.3174 -0.2407
25674SOL    HW282986   5.894   6.207   3.604  0.4967 -0.8729  0.5106
25675SOL     OW82987  11.913   6.461  11.233  0.5052 -0.3037  0.4276
25675SOL    HW182988  11.985   6.462  11.170  0.3664 -0.0120  0.2690
25675SOL    HW282989  11.916   6.548  11.273 -1.3488  0.7121 -1.4266
25676SOL     OW82990   1.394   9.944   8.498 -0.2793 -0.3463 -0.0451
25676SOL    HW182991   1.461   9.993   8.449 -0.1510  0.8985  1.3105
25676SOL    HW282992   1.316   9.948   8.443 -1.1345  3.9140  1.1646
25677SOL     OW82993   3.322  10.053   2.648 -0.3361 -0.3192  0.0977
25677SOL    HW182994   3.292  10.129   2.698 -0.1873 -1.3803  1.9038
25677SOL    HW282995   3.254  10.039   2.583 -0.4771  1.2063 -0.1306
25678SOL     OW82996   3.008   5.058  10.942 -0.4433 -0.3349 -0.1017
25678SOL    HW182997   3.035   4.986  10.999 -0.5297 -0.5596 -0.3422
25678SOL    HW282998   3.064   5.050  10.864 -2.4976 -2.0625 -1.5370
25679SOL     OW82999   7.363   5.951  10.782 -1.1026  0.0267 -0.2349
25679SOL    HW183000   7.373   5.966  10.876  0.4329  0.6132 -0.4609
25679SOL    HW283001   7.443   5.904  10.756 -1.1215  0.5738 -1.3726
25680SOL     OW83002   2.444   2.142   4.816 -0.2645 -0.6310 -0.3397
25680SOL    HW183003   2.453   2.202   4.742  0.7244  1.3951  1.3127
25680SOL    HW283004   2.391   2.190   4.880  1.0818 -1.2243  1.2969
25681SOL     OW83005   2.646   9.548   2.496  0.0769  0.5266  0.6841
25681SOL    HW183006   2.582   9.604   2.540 -1.3164 -1.0153  0.7356
25681SOL    HW283007   2.693   9.607   2.438 -3.1424  1.4048 -1.3222
25682SOL     OW83008   2.635   1.094  10.875 -0.4144  0.2114  0.3563
25682SOL    HW183009   2.702   1.080  10.942 -0.1189 -1.4649 -0.2280
25682SOL    HW283010   2.560   1.130  10.923  0.1806  0.1198  1.3837
25683SOL     OW83011   2.987  12.471   2.318  0.5877 -0.1802  0.7140
25683SOL    HW183012   2.936  12.466   2.399 -0.5466 -1.2743 -0.0293
25683SOL    HW283013   3.015  12.380   2.302  2.4351  0.3227  0.8605
25684SOL     OW83014  11.589  11.084   1.235 -0.0421 -0.1935 -0.4265
25684SOL    HW183015  11.609  11.065   1.327 -2.2082  2.0592  0.6384
25684SOL    HW283016  11.580  10.998   1.195  2.9360 -1.2683  0.8999
25685SOL     OW83017   2.388   8.252  10.053 -0.4603  0.3111  0.0794
25685SOL    HW183018   2.408   8.332  10.004  1.2229  1.0724  1.8341
25685SOL    HW283019   2.473   8.214  10.073 -1.1884 -1.2900  0.3073
25686SOL     OW83020   0.179   1.041   2.568 -0.2695  0.3503  0.4374
25686SOL    HW183021   0.116   0.970   2.578  1.3597 -1.2123  0.2106
25686SOL    HW283022   0.164   1.074   2.479  0.9864 -1.8972 -0.7135
25687SOL     OW83023   1.249   0.293   7.732  0.6273 -0.2076  0.0525
25687SOL    HW183024   1.329   0.260   7.690  1.6857 -0.6489  2.2570
25687SOL    HW283025   1.277   0.375   7.774 -0.6347  0.7392 -0.8919
25688SOL     OW83026  10.128   5.391  11.444 -0.3934  0.0495  0.3508
25688SOL    HW183027  10.191   5.377  11.514  0.8384  0.5155 -0.6388
25688SOL    HW283028  10.098   5.303  11.420  0.1906 -0.2061  0.5453
25689SOL     OW83029   3.882   6.812   4.825 -0.0194  0.3019  0.2553
25689SOL    HW183030   3.795   6.848   4.841  0.4201  1.1640  0.7960
25689SOL    HW283031   3.903   6.840   4.736 -0.6685 -0.7372 -0.2517
25690SOL     OW83032   0.779   6.504   7.371 -0.2428 -0.0904 -0.3849
25690SOL    HW183033   0.788   6.584   7.319 -1.2797 -1.1416 -2.3172
25690SOL    HW283034   0.774   6.534   7.461  1.1318  1.8818 -0.8930
25691SOL     OW83035   7.806   1.753   9.558 -0.4406 -0.3995 -0.0168
25691SOL    HW183036   7.790   1.740   9.465  1.1852 -0.9085 -0.2466
25691SOL    HW283037   7.901   1.760   9.566 -0.5839  0.3549  1.5214
25692SOL     OW83038   1.689   5.764   1.730  0.1159  0.0537 -0.0967
25692SOL    HW183039   1.754   5.768   1.800  1.8691 -1.9014 -1.5097
25692SOL    HW283040   1.728   5.708   1.663 -1.5829  1.6125 -2.5766
25693SOL     OW83041  11.473   6.188   0.982  0.3122  0.4770 -0.1477
25693SOL    HW183042  11.556   6.141   0.983  0.2567  0.2309 -2.0319
25693SOL    HW283043  11.463   6.223   1.070  2.3090  0.3472  0.1724
25694SOL     OW83044  10.960   9.961   0.476 -0.4483 -0.2343  0.2640
25694SOL    HW183045  11.036   9.904   0.465  0.6589  1.3975 -1.0512
25694SOL    HW283046  10.986  10.023   0.544 -1.0680 -0.3997  0.6540
25695SOL     OW83047   3.245   5.265  11.429 -0.1301  0.7556 -0.3932
25695SOL    HW183048   3.308   5.323  11.387 -0.8532  1.1841 -0.9246
25695SOL    HW283049   3.168   5.269  11.372 -1.0550  1.1487  0.8302
25696SOL     OW83050   1.203   8.129   6.240 -0.3701 -0.4532  0.7014
25696SOL    HW183051   1.182   8.059   6.178 -0.9651  0.2678  0.0689
25696SOL    HW283052   1.287   8.164   6.210 -1.1523  0.5961 -0.3766
25697SOL     OW83053   7.929  10.826   3.931 -0.0061  0.3273  0.3448
25697SOL    HW183054   7.902  10.816   3.840  1.6860 -1.3348 -0.0387
25697SOL    HW283055   7.939  10.920   3.943  1.9396  0.5088 -1.9359
25698SOL     OW83056   3.639   3.800   0.837  0.2325 -0.1185 -0.4090
25698SOL    HW183057   3.593   3.766   0.914 -0.4955 -2.1150 -1.6401
25698SOL    HW283058   3.708   3.856   0.873 -1.1742  0.4331  1.6041
25699SOL     OW83059   0.389   0.461  10.630 -0.5526  0.3238 -0.6992
25699SOL    HW183060   0.459   0.443  10.567  0.9193 -0.0747  0.9451
25699SOL    HW283061   0.397   0.390  10.694  0.0026  2.2615  1.5251
25700SOL     OW83062  12.428   0.890   4.075  0.3496 -0.1261 -0.2482
25700SOL    HW183063  12.343   0.926   4.051  0.5052  0.1165 -0.4484
25700SOL    HW283064  12.488   0.923   4.007  0.6058 -0.2707 -0.0952
25701SOL     OW83065  11.142   7.214   3.740 -0.9554 -0.0883  0.0046
25701SOL    HW183066  11.102   7.139   3.785 -1.5275  1.1799  1.7202
25701SOL    HW283067  11.075   7.282   3.744  0.3631  1.2247  0.5131
25702SOL     OW83068   1.658   6.029   4.477  0.7175 -0.8482  0.2385
25702SOL    HW183069   1.746   6.036   4.513 -0.2652  2.4068  2.4153
25702SOL    HW283070   1.604   6.001   4.551 -0.4307 -0.2614 -0.3533
25703SOL     OW83071   9.259   4.378   5.030  0.4354 -0.5382  0.1537
25703SOL    HW183072   9.350   4.408   5.019  0.4299  0.4149  2.2155
25703SOL    HW283073   9.235   4.343   4.945  1.4910  2.6638 -1.6346
25704SOL     OW83074   7.339   5.309   4.385  0.4930  0.1652 -0.3128
25704SOL    HW183075   7.401   5.358   4.330  1.2379 -0.4857 -0.0680
25704SOL    HW283076   7.393   5.271   4.454 -0.4625  1.1438  1.0158
25705SOL     OW83077   9.504   6.529   0.520  0.3940 -0.1306 -0.0318
25705SOL    HW183078   9.483   6.519   0.427 -2.4059 -1.1199  0.6018
25705SOL    HW283079   9.422   6.558   0.560  1.1707 -0.9723  2.3221
25706SOL     OW83080   0.644   5.778   3.446 -0.0749 -0.1517  0.3376
25706SOL    HW183081   0.570   5.834   3.470 -1.5974 -1.3761 -1.2427
25706SOL    HW283082   0.668   5.806   3.358 -0.3461 -1.4259 -0.1627
25707SOL     OW83083   8.612   1.797   3.336  0.2051 -0.1798 -0.0411
25707SOL    HW183084   8.519   1.818   3.334  0.4488  0.9133 -1.2188
25707SOL    HW283085   8.650   1.847   3.264  1.6589 -0.8631  0.2019
25708SOL     OW83086  11.316   1.983  11.043 -0.0611  0.1124 -0.3198
25708SOL    HW183087  11.264   1.910  11.011  0.6283 -0.3434 -0.4073
25708SOL    HW283088  11.255   2.057  11.045 -1.1896 -0.8207  1.2917
25709SOL     OW83089   2.025   2.307   1.269 -0.0375 -0.0446  0.3906
25709SOL    HW183090   1.946   2.279   1.223 -1.3021  2.6372  0.7118
25709SOL    HW283091   2.003   2.298   1.362  0.2329  0.2120  0.4796
25710SOL     OW83092   1.556   9.060   6.709 -0.0540  0.2563 -0.0312
25710SOL    HW183093   1.648   9.071   6.734  0.0498 -0.9878  0.1877
25710SOL    HW283094   1.524   8.989   6.765 -0.5681 -0.7586 -1.5659
25711SOL     OW83095   4.558  11.758   0.687  0.3498 -0.2077  0.6421
25711SOL    HW183096   4.571  11.743   0.593  0.0191  0.0876  0.5487
25711SOL    HW283097   4.584  11.676   0.728  0.5145 -0.3327  0.2948
25712SOL     OW83098   3.254   8.775   1.794 -0.5803  0.1383 -0.0191
25712SOL    HW183099   3.302   8.813   1.868 -1.2620  1.8112 -0.3949
25712SOL    HW283100   3.205   8.703   1.832  1.3466 -0.9372  0.5770
25713SOL     OW83101   0.469   5.564   5.195 -0.2024 -0.2468  0.2750
25713SOL    HW183102   0.476   5.623   5.270  0.3482 -3.2828  2.8520
25713SOL    HW283103   0.390   5.514   5.212  1.2648 -2.7253  0.2658
25714SOL     OW83104   1.494   9.992   0.662 -0.2462 -0.8167  0.5337
25714SOL    HW183105   1.440  10.070   0.673  2.5639  1.0609  2.5676
25714SOL    HW283106   1.486   9.945   0.745  0.7588 -0.7629  0.6821
25715SOL     OW83107   0.281   6.627  11.525 -0.0860 -0.6059  0.3035
25715SOL    HW183108   0.213   6.617  11.458 -1.0967  1.5052  0.9304
25715SOL    HW283109   0.247   6.694  11.584  1.4160 -1.3662  2.1474
25716SOL     OW83110   0.540  10.482   8.633 -0.0304  0.0712  0.0278
25716SOL    HW183111   0.559  10.478   8.539 -0.6488 -0.7607 -0.0693
25716SOL    HW283112   0.445  10.482   8.638 -0.0081 -0.6906  0.6759
25717SOL     OW83113   0.136   8.201  11.546 -0.4620  0.2870 -0.0419
25717SOL    HW183114   0.213   8.181  11.598 -0.5354 -1.4324 -0.5623
25717SOL    HW283115   0.167   8.262  11.479 -0.3192  2.3680  1.8102
25718SOL     OW83116   5.126   2.528  11.967  0.0813  0.2318  0.7141
25718SOL    HW183117   5.218   2.521  11.943  0.0497 -1.0248  0.9098
25718SOL    HW283118   5.126   2.568  12.054  0.5120 -0.6735  1.1461
25719SOL     OW83119   9.693   2.790   3.881 -0.2193 -0.1540 -0.0003
25719SOL    HW183120   9.744   2.857   3.926  1.4496 -0.2252 -1.6849
25719SOL    HW283121   9.639   2.750   3.950  1.1851  0.6834  1.6355
25720SOL     OW83122   0.881   1.875   0.927  0.4055  0.2657  0.6378
25720SOL    HW183123   0.859   1.938   0.995 -1.2874  0.7578 -0.2785
25720SOL    HW283124   0.802   1.821   0.919  0.7327 -0.0593 -0.5960
25721SOL     OW83125   5.342   2.742   3.495  0.1650  0.4818 -0.2123
25721SOL    HW183126   5.425   2.737   3.448  0.5245 -2.6226  0.5525
25721SOL    HW283127   5.367   2.757   3.586 -0.1870  0.8762 -0.1809
25722SOL     OW83128   4.306  11.838   0.752  0.3778  0.5008  0.4608
25722SOL    HW183129   4.396  11.817   0.727 -1.1586 -2.5676 -3.3523
25722SOL    HW283130   4.282  11.913   0.697 -0.0080  0.0322 -0.0123
25723SOL     OW83131  10.484  11.715  11.312 -0.1052  0.3526  0.2330
25723SOL    HW183132  10.562  11.755  11.351 -0.3188  0.6275  0.3803
25723SOL    HW283133  10.505  11.622  11.308 -0.2215  0.2589  1.3605
25724SOL     OW83134  11.609   2.691   8.133 -0.9125 -0.1119  0.2553
25724SOL    HW183135  11.521   2.662   8.158 -0.5067 -1.3308  0.3169
25724SOL    HW283136  11.635   2.750   8.203 -1.1829 -0.7446  0.8992
25725SOL     OW83137   5.761  11.497   8.886  0.5441 -0.0552  0.2014
25725SOL    HW183138   5.843  11.447   8.883  1.0572  0.7910 -2.1128
25725SOL    HW283139   5.779  11.575   8.834 -1.6433  0.3402 -0.0618
25726SOL     OW83140  10.217   6.167  10.082  0.7375  0.5547 -0.4422
25726SOL    HW183141  10.224   6.256  10.116  1.8056  0.0824  0.6777
25726SOL    HW283142  10.216   6.112  10.161 -0.1083 -0.4249 -1.1014
25727SOL     OW83143  12.228   5.663   5.384 -0.0772 -0.0460  0.0621
25727SOL    HW183144  12.166   5.598   5.418  1.1069 -0.8641  0.7399
25727SOL    HW283145  12.266   5.620   5.307 -0.3068  0.4396 -0.3275
25728SOL     OW83146   8.241  10.212   8.527 -0.0419  0.1681  0.0457
25728SOL    HW183147   8.259  10.124   8.494 -0.2077 -0.2089  0.9348
25728SOL    HW283148   8.216  10.199   8.619  0.7328  1.2092  0.4300
25729SOL     OW83149   6.577  12.461   2.824  0.0491 -0.4835  0.4874
25729SOL    HW183150   6.580  12.447   2.730  1.8911 -0.9706  0.5810
25729SOL    HW283151   6.582  12.556   2.834  0.5695 -0.4670  0.1065
25730SOL     OW83152   8.840   5.165   5.473  0.2861 -0.4272 -0.0256
25730SOL    HW183153   8.931   5.135   5.468  0.4967  0.2568 -0.6708
25730SOL    HW283154   8.839   5.225   5.548  0.1507 -1.1269  0.5317
25731SOL     OW83155   1.155   6.678   5.388 -0.3419 -0.2651 -0.0688
25731SOL    HW183156   1.098   6.605   5.410  0.3891 -0.9201 -0.3018
25731SOL    HW283157   1.243   6.640   5.385 -0.0782  0.3974 -1.2364
25732SOL     OW83158   2.679   6.202   5.667  0.5065  0.2654 -0.0012
25732SOL    HW183159   2.589   6.198   5.698  0.0521 -0.3323 -1.3131
25732SOL    HW283160   2.729   6.154   5.733  0.1193  1.8206  1.4841
25733SOL     OW83161  11.353   5.180   9.242 -0.0960  0.2232  0.2020
25733SOL    HW183162  11.355   5.266   9.201 -0.9131  0.3193  0.3406
25733SOL    HW283163  11.301   5.126   9.181  1.2636 -0.4575 -0.4031
25734SOL     OW83164   3.801  11.604   1.837  0.6563 -0.4524 -0.2361
25734SOL    HW183165   3.883  11.625   1.882  0.5684 -0.3025 -0.1438
25734SOL    HW283166   3.828  11.561   1.756  0.7988 -1.3953  0.2933
25735SOL     OW83167   0.003   4.359   0.674  0.2362  0.4960  0.0671
25735SOL    HW183168   0.043   4.324   0.594  0.0065 -0.6699  0.4312
25735SOL    HW283169  -0.037   4.282   0.715  1.0625  0.9222  1.7182
25736SOL     OW83170   3.847   9.706  10.349 -0.2775 -0.3212 -0.8053
25736SOL    HW183171   3.891   9.652  10.284 -0.9889 -0.3591 -1.2731
25736SOL    HW283172   3.814   9.781  10.299 -0.5642 -0.1983 -0.4343
25737SOL     OW83173   5.586   8.499   9.848 -0.3674  0.5871 -0.4455
25737SOL    HW183174   5.542   8.582   9.827  0.1468  0.8755 -0.3951
25737SOL    HW283175   5.522   8.450   9.900  0.1857  1.9535  1.6393
25738SOL     OW83176   9.608   4.959   0.565  0.1741  0.0173 -0.1509
25738SOL    HW183177   9.572   4.910   0.639  2.2411  0.1816  1.0556
25738SOL    HW283178   9.617   5.049   0.597  1.1959  0.0665 -0.5330
25739SOL     OW83179  11.810   4.956   1.101  0.6972 -0.0304 -0.5577
25739SOL    HW183180  11.848   4.972   1.188 -0.1650  0.0628 -0.1857
25739SOL    HW283181  11.868   4.892   1.061  0.6598 -0.6868  0.4067
25740SOL     OW83182  12.078   6.274  10.794  0.5121  0.4460 -0.0709
25740SOL    HW183183  12.065   6.343  10.860 -2.7788  0.7621 -0.8465
25740SOL    HW283184  12.007   6.212  10.811 -0.0370  0.1830 -2.8567
25741SOL     OW83185  12.380   5.357   5.502 -0.3293 -0.4268  0.9420
25741SOL    HW183186  12.436   5.416   5.553  1.4019 -1.5370  0.4022
25741SOL    HW283187  12.405   5.374   5.411 -2.0370  0.1824  0.5493
25742SOL     OW83188   5.210   2.177   3.748  0.7302 -0.7002 -0.4069
25742SOL    HW183189   5.120   2.206   3.764  1.4194  0.9074  0.8345
25742SOL    HW283190   5.207   2.082   3.756 -0.3162 -0.4912  2.8406
25743SOL     OW83191   6.349   6.107   2.513 -0.4112  0.4587  0.7086
25743SOL    HW183192   6.326   6.190   2.555 -2.6305  0.0483  0.4070
25743SOL    HW283193   6.374   6.132   2.423  2.4047  1.1112  1.5559
25744SOL     OW83194   5.250   6.477  11.760  0.0543 -0.4347  0.5566
25744SOL    HW183195   5.296   6.393  11.771  0.7223 -0.6104 -2.5646
25744SOL    HW283196   5.174   6.455  11.706  1.0697  1.1078 -1.6432
25745SOL     OW83197  11.772   0.569   7.382 -0.5194  0.1156  0.1896
25745SOL    HW183198  11.837   0.634   7.355 -0.5103 -0.2163 -0.6136
25745SOL    HW283199  11.688   0.616   7.380 -0.9200 -0.5492 -3.0943
25746SOL     OW83200   6.931   3.270  12.331 -0.0793  0.9778 -0.3291
25746SOL    HW183201   6.999   3.249  12.267  0.8597  1.2512  0.5586
25746SOL    HW283202   6.928   3.365  12.332 -0.2325  0.9708 -0.1052
25747SOL     OW83203  10.328   2.968   1.870 -0.0725  0.1965 -0.0994
25747SOL    HW183204  10.422   2.986   1.882 -0.2439  1.9916 -1.0361
25747SOL    HW283205  10.309   2.898   1.932  1.9308 -0.3520 -0.0370
25748SOL     OW83206   6.763  12.067   4.836 -0.3874  0.6596  0.4921
25748SOL    HW183207   6.735  12.103   4.920 -0.4737  0.4390  0.5570
25748SOL    HW283208   6.857  12.051   4.847 -0.5949 -0.3599  0.9046
25749SOL     OW83209  10.884  11.719   9.769  0.3381 -0.5677 -0.6365
25749SOL    HW183210  10.949  11.692   9.704  1.4325  0.8431 -0.1756
25749SOL    HW283211  10.871  11.642   9.824 -1.5633 -2.2334 -3.1977
25750SOL     OW83212   6.698   0.171   1.465 -0.3412  0.4022 -0.1724
25750SOL    HW183213   6.621   0.212   1.505 -1.4705 -0.9755 -0.8331
25750SOL    HW283214   6.699   0.082   1.501  1.5072  0.6652  0.5389
25751SOL     OW83215   5.607  11.937   0.748 -0.9558 -0.1709 -0.2255
25751SOL    HW183216   5.606  11.925   0.843  0.4934  0.7829 -0.0639
25751SOL    HW283217   5.612  11.847   0.713  1.7798 -0.4886  0.7281
25752SOL     OW83218   0.795   7.958   3.678 -0.1026 -0.1488  0.4253
25752SOL    HW183219   0.866   7.990   3.622  0.1174 -1.8420 -0.3247
25752SOL    HW283220   0.840   7.916   3.751 -0.3736  2.6446  2.3837
25753SOL     OW83221   7.495   2.785   5.792  0.5197 -0.1298 -0.7878
25753SOL    HW183222   7.467   2.694   5.794 -3.7005  0.8775  2.2605
25753SOL    HW283223   7.571   2.789   5.851  0.4443 -1.6044 -0.5682
25754SOL     OW83224   3.795   3.290   4.992  0.7906  0.0766 -0.0523
25754SOL    HW183225   3.708   3.294   4.950  0.3683  0.8632  0.8545
25754SOL    HW283226   3.830   3.205   4.966 -0.3587 -0.3641 -0.2332
25755SOL     OW83227   4.515  12.159   3.194 -0.2569 -0.4045 -0.0089
25755SOL    HW183228   4.552  12.151   3.281  0.5389 -0.3859 -0.3340
25755SOL    HW283229   4.484  12.249   3.189 -2.4112 -1.0275  1.0413
25756SOL     OW83230   0.044   1.164   0.317  0.0378  0.8622  0.0575
25756SOL    HW183231   0.009   1.157   0.406  1.2779 -1.0933  0.4598
25756SOL    HW283232   0.096   1.245   0.318 -1.4919  1.8770  0.4995
25757SOL     OW83233   1.973   3.185   9.304 -0.6585  0.4903  0.0681
25757SOL    HW183234   1.973   3.195   9.209  0.5708  0.2472  0.0274
25757SOL    HW283235   1.884   3.156   9.325 -1.7705  3.0533 -0.7001
25758SOL     OW83236   8.248   3.448   3.507  0.1984  0.0337 -0.4119
25758SOL    HW183237   8.311   3.390   3.550 -1.7224 -1.7854  0.1275
25758SOL    HW283238   8.241   3.413   3.418 -0.7908 -0.4270 -0.1586
25759SOL     OW83239   2.840   5.371   2.613 -0.2200 -0.1830 -0.5744
25759SOL    HW183240   2.850   5.438   2.682 -1.0849 -0.1343 -0.4743
25759SOL    HW283241   2.806   5.295   2.660 -0.1315 -0.3809 -0.8370
25760SOL     OW83242   3.431   1.313   6.359 -0.1322  0.2104  0.1475
25760SOL    HW183243   3.501   1.251   6.382  0.6995  1.1543  0.2637
25760SOL    HW283244   3.478   1.391   6.329 -1.1577  0.4403 -0.9530
25761SOL     OW83245   9.274   4.006   4.239 -0.5864  0.5342 -0.4940
25761SOL    HW183246   9.282   3.911   4.242  0.9015  0.5743 -1.7719
25761SOL    HW283247   9.312   4.036   4.322 -1.1699  0.0066 -0.0383
25762SOL     OW83248   3.447  11.445  10.551  0.3808 -0.6155  0.0817
25762SOL    HW183249   3.530  11.452  10.597  0.5141  1.1665 -0.3684
25762SOL    HW283250   3.471  11.432  10.459  0.2560  1.8772 -0.3651
25763SOL     OW83251   0.380   6.586   0.021 -0.6683  0.6495 -0.0212
25763SOL    HW183252   0.464   6.598   0.065 -1.2385  0.6994  1.1011
25763SOL    HW283253   0.381   6.649  -0.051  1.4831 -1.3885 -1.9554
25764SOL     OW83254   1.236   5.512   3.128 -0.1986  0.2885 -0.5143
25764SOL    HW183255   1.201   5.564   3.055 -1.3593 -0.0319 -0.2081
25764SOL    HW283256   1.288   5.444   3.086 -1.7890 -0.5962 -1.1430
25765SOL     OW83257   5.611   7.462  10.210  0.3775 -0.1196 -0.1119
25765SOL    HW183258   5.589   7.539  10.263  0.4472  1.8440 -2.7167
25765SOL    HW283259   5.531   7.440  10.163  0.4969 -1.3494  0.2189
25766SOL     OW83260   7.124   4.094   4.564  0.1823  0.6411  0.3036
25766SOL    HW183261   7.139   4.106   4.470 -0.1426 -0.4272  0.1009
25766SOL    HW283262   7.040   4.049   4.569  0.9296 -0.7226  1.0334
25767SOL     OW83263   9.137   7.751   6.657 -0.1389  0.0293  0.1208
25767SOL    HW183264   9.064   7.714   6.609  0.0952  0.3670 -0.4966
25767SOL    HW283265   9.106   7.836   6.688  0.1491  0.3903 -0.5607
25768SOL     OW83266   3.062   6.463   0.907  0.0841  0.5309 -0.1954
25768SOL    HW183267   2.979   6.477   0.952  0.3620  0.2354  0.4247
25768SOL    HW283268   3.051   6.505   0.822 -1.2950 -0.9138 -0.7922
25769SOL     OW83269   2.504   3.570   5.025 -0.2286 -0.0871 -0.0745
25769SOL    HW183270   2.548   3.635   4.972 -1.3378  0.4761 -0.3271
25769SOL    HW283271   2.548   3.574   5.110 -0.4399  1.1616 -0.0118
25770SOL     OW83272   7.487   3.883  10.088  0.6465 -0.3656  0.4340
25770SOL    HW183273   7.499   3.891  10.183  1.4564  1.1530  0.2352
25770SOL    HW283274   7.448   3.967  10.062 -0.5556 -1.1713 -0.4529
25771SOL     OW83275   7.816   2.985   9.954  0.9924  0.3913  0.4267
25771SOL    HW183276   7.734   3.034   9.961  0.5326 -0.2066 -0.5354
25771SOL    HW283277   7.877   3.032  10.011  0.2150  1.3278  0.5196
25772SOL     OW83278   5.911   5.632   0.841  0.0412 -0.1695  0.0716
25772SOL    HW183279   5.856   5.690   0.893  1.3987  0.9653  0.3278
25772SOL    HW283280   6.000   5.666   0.854  0.9166 -2.3697  0.2915
25773SOL     OW83281   8.297   6.893   7.859  0.1269 -0.5307 -0.1810
25773SOL    HW183282   8.360   6.948   7.813  1.0574 -1.4113  0.0293
25773SOL    HW283283   8.268   6.829   7.794 -0.7664  0.0197 -0.3516
25774SOL     OW83284   2.654   8.579   4.166  0.0631  0.1746  0.5529
25774SOL    HW183285   2.672   8.530   4.245  0.3047  2.3318  1.9195
25774SOL    HW283286   2.559   8.590   4.166  0.0275 -0.1287  0.3476
25775SOL     OW83287   0.083   2.904   4.606  0.3044 -0.2363  0.1426
25775SOL    HW183288   0.034   2.965   4.661  0.4039 -0.1781  0.1671
25775SOL    HW283289   0.098   2.952   4.525 -0.8181 -0.7170 -0.3765
25776SOL     OW83290   1.041   4.644   9.005  0.1597  0.2260 -0.1053
25776SOL    HW183291   0.946   4.629   9.001  0.1525  0.3536 -0.4322
25776SOL    HW283292   1.054   4.727   8.960  0.6540 -0.8289 -2.0492
25777SOL     OW83293   0.899   6.814   6.242 -0.2845 -0.1949 -0.0694
25777SOL    HW183294   0.842   6.758   6.295 -0.4773  2.0128  2.2508
25777SOL    HW283295   0.982   6.766   6.237 -0.6649 -1.0341  1.1865
25778SOL     OW83296   2.469   1.156   7.820  0.4655 -0.2819 -0.2800
25778SOL    HW183297   2.428   1.207   7.751  0.6160 -1.0374 -0.9531
25778SOL    HW283298   2.397   1.130   7.877  0.3273  0.2879 -0.1942
25779SOL     OW83299   0.915   5.327   9.777  0.1423 -0.5993 -0.0265
25779SOL    HW183300   0.931   5.249   9.722 -1.4839 -1.1654  0.2620
25779SOL    HW283301   0.973   5.315   9.852 -0.2782 -1.6625  0.1375
25780SOL     OW83302   0.732   0.595  11.158  0.3165 -0.2742  0.2380
25780SOL    HW183303   0.800   0.596  11.090  0.6550 -0.0627  0.5791
25780SOL    HW283304   0.743   0.678  11.204 -1.4203  0.6783 -0.9376
25781SOL     OW83305  10.301   7.881   8.006 -0.3780  0.4192  0.1941
25781SOL    HW183306  10.349   7.950   8.052 -0.0462  1.5471 -1.7538
25781SOL    HW283307  10.344   7.800   8.034  1.9795  1.3109 -0.5757
25782SOL     OW83308   5.237   3.453   0.646  0.0532  0.1397  0.2942
25782SOL    HW183309   5.197   3.538   0.630  1.7862  0.7826 -0.8556
25782SOL    HW283310   5.313   3.472   0.701 -1.4821 -1.1476  3.1403
25783SOL     OW83311  11.273   8.295   7.297 -0.3627 -0.3528  0.0171
25783SOL    HW183312  11.260   8.322   7.388 -2.3945 -1.0158 -0.0394
25783SOL    HW283313  11.263   8.200   7.298 -2.2860 -0.2142 -1.1455
25784SOL     OW83314   8.578   0.221   9.031 -0.3427 -0.1246 -0.2192
25784SOL    HW183315   8.504   0.207   9.089  0.0911  0.9169  0.6293
25784SOL    HW283316   8.541   0.219   8.943 -1.3893  0.4438  0.1989
25785SOL     OW83317  11.978  11.154   5.058  0.6677  0.0950 -0.0052
25785SOL    HW183318  12.067  11.167   5.025  0.2737  1.0253 -0.7422
25785SOL    HW283319  11.928  11.227   5.021 -0.2892 -0.1255  0.8247
25786SOL     OW83320   1.893   4.499   5.393 -0.0108 -0.6417 -0.3650
25786SOL    HW183321   1.933   4.514   5.307  0.4855 -2.7209 -0.5437
25786SOL    HW283322   1.958   4.448   5.441 -1.2025 -1.4343  0.4471
25787SOL     OW83323  11.389   9.234   5.033  0.0068 -0.1493  0.1694
25787SOL    HW183324  11.396   9.196   5.121  0.6460  0.2946  0.3160
25787SOL    HW283325  11.479   9.259   5.011 -0.2154  0.1153 -0.4468
25788SOL     OW83326  10.550   7.393   0.378  0.3194  0.2529  0.3484
25788SOL    HW183327  10.568   7.369   0.287  1.8304 -0.1851  0.7299
25788SOL    HW283328  10.610   7.339   0.429 -0.7408  0.2546  1.6428
25789SOL     OW83329  12.157   6.233  11.281 -0.2403 -0.1906  0.0430
25789SOL    HW183330  12.068   6.233  11.247  0.1647 -1.0509 -1.0577
25789SOL    HW283331  12.203   6.167  11.229  1.6344  1.7734 -0.9440
25790SOL     OW83332   1.726   3.240   1.112  0.1980 -0.1246 -0.0304
25790SOL    HW183333   1.708   3.200   1.027  0.8954 -0.0199 -0.2264
25790SOL    HW283334   1.676   3.187   1.174  0.2011 -0.5910 -0.4239
25791SOL     OW83335  12.011   8.418   1.130 -0.2072  0.5492 -0.0136
25791SOL    HW183336  12.017   8.447   1.039  1.3402  0.0794 -0.0902
25791SOL    HW283337  11.919   8.429   1.152 -0.9566 -0.7547 -2.1174
25792SOL     OW83338   6.957   5.822   7.062  0.5877  0.4551  0.2474
25792SOL    HW183339   7.033   5.799   7.116  0.1804  0.8659  1.0052
25792SOL    HW283340   6.905   5.742   7.057 -0.7451  1.0653  2.7443
25793SOL     OW83341   2.982   3.826  11.256 -0.3783 -0.0390  0.3619
25793SOL    HW183342   2.959   3.850  11.345 -2.3818 -0.8437  0.1112
25793SOL    HW283343   3.008   3.909  11.215 -0.2404  0.4733  1.4420
25794SOL     OW83344  11.217   1.314   5.328  0.0380 -0.5563 -0.0812
25794SOL    HW183345  11.302   1.325   5.371 -0.2385 -3.0606  1.2897
25794SOL    HW283346  11.155   1.355   5.388  0.0514 -0.6603  0.0035
25795SOL     OW83347  10.832   3.569   4.683  0.0930  0.8682  0.3766
25795SOL    HW183348  10.744   3.606   4.686  0.0187  0.6808  0.5822
25795SOL    HW283349  10.860   3.565   4.775 -0.1702 -0.2157  0.4316
25796SOL     OW83350   3.991   3.212   6.594 -0.5217 -0.6470 -1.0735
25796SOL    HW183351   3.975   3.148   6.525  2.2618 -1.9392 -0.6725
25796SOL    HW283352   4.078   3.190   6.628 -0.1192  2.3608  0.2289
25797SOL     OW83353   9.723   2.467  12.157  0.3332  0.0331  0.1170
25797SOL    HW183354   9.649   2.510  12.112 -1.2536 -1.7006  0.9212
25797SOL    HW283355   9.719   2.500  12.246  2.5310  2.2904 -0.5194
25798SOL     OW83356   8.183   9.053   9.309 -0.2595  0.1785 -0.6002
25798SOL    HW183357   8.183   8.969   9.263 -1.3369 -0.7971  1.0586
25798SOL    HW283358   8.268   9.056   9.353 -0.1790  0.0167 -0.7417
25799SOL     OW83359  10.244   3.917   7.142  0.0970 -0.1421  0.7939
25799SOL    HW183360  10.189   3.844   7.112 -0.9204  0.5354  0.9514
25799SOL    HW283361  10.251   3.975   7.066  0.0622  0.0796  0.9574
25800SOL     OW83362   4.034  12.313   7.132  0.0385 -0.2183 -0.1810
25800SOL    HW183363   4.043  12.289   7.040  0.5113  0.8341 -0.4213
25800SOL    HW283364   4.090  12.250   7.178  3.3705  1.8743 -1.0283
25801SOL     OW83365  11.588   2.613   2.007 -0.2020  0.2040 -0.2104
25801SOL    HW183366  11.667   2.564   2.031 -0.4880  0.1276  0.6067
25801SOL    HW283367  11.551   2.565   1.934 -0.1827 -0.5024  0.2334
25802SOL     OW83368   3.280  11.349  10.240 -0.5179 -0.5657  0.5474
25802SOL    HW183369   3.192  11.315  10.251 -1.5281  2.3950  2.6862
25802SOL    HW283370   3.271  11.444  10.244  2.7380 -0.1148  0.4863
25803SOL     OW83371   7.372   7.664   4.874  0.3803 -0.1615  0.2206
25803SOL    HW183372   7.335   7.750   4.856  0.7177 -0.1817 -0.6150
25803SOL    HW283373   7.428   7.645   4.798 -1.0543 -1.8849 -0.4887
25804SOL     OW83374   4.939   3.991   4.197  0.7256 -0.1486  0.1654
25804SOL    HW183375   4.952   3.942   4.278  0.8287 -0.4862 -0.0546
25804SOL    HW283376   4.843   3.996   4.187  0.7097  0.1348  0.4515
25805SOL     OW83377   5.645  10.028   7.605  0.1794  0.1646  0.4112
25805SOL    HW183378   5.710   9.962   7.583 -0.0486  0.2464 -0.5574
25805SOL    HW283379   5.694  10.109   7.614  0.2825  0.1195  0.2461
25806SOL     OW83380   0.257   0.222   6.634 -0.7969  0.0437  0.4633
25806SOL    HW183381   0.196   0.184   6.698 -1.6462  0.1267 -0.2718
25806SOL    HW283382   0.237   0.315   6.635 -0.5178  0.1036  0.3826
25807SOL     OW83383   6.480   1.732   8.549 -0.2018 -0.3366  0.6972
25807SOL    HW183384   6.479   1.720   8.644  0.5324  0.1050  0.7725
25807SOL    HW283385   6.388   1.739   8.525 -0.3539  1.5804  1.6474
25808SOL     OW83386   2.716  11.456   0.579 -0.1165  0.0717 -0.1581
25808SOL    HW183387   2.734  11.523   0.513 -3.7549 -0.8027 -2.2860
25808SOL    HW283388   2.643  11.491   0.629  1.2719 -0.2027  2.2183
25809SOL     OW83389  12.455   0.214   2.095  0.0696 -0.2055  0.4354
25809SOL    HW183390  12.407   0.261   2.164  0.1927 -1.0094  1.0830
25809SOL    HW283391  12.522   0.276   2.066 -0.6586  0.5236  0.2930
25810SOL     OW83392   8.665  10.582   2.328 -0.2014  0.4979 -0.1631
25810SOL    HW183393   8.572  10.560   2.317  0.2407 -0.8736 -1.5846
25810SOL    HW283394   8.700  10.579   2.239  1.4964 -0.4203  0.5082
25811SOL     OW83395  11.840   7.390   6.430 -0.0710 -0.1924  0.4931
25811SOL    HW183396  11.786   7.454   6.477  0.8040 -0.5152  1.9770
25811SOL    HW283397  11.779   7.319   6.409 -0.1964 -0.6966  2.4226
25812SOL     OW83398   7.389   7.731  10.986 -0.4462  0.1621  0.0846
25812SOL    HW183399   7.476   7.766  10.967 -0.7571  0.7281 -0.3515
25812SOL    HW283400   7.391   7.642  10.951 -0.2066  0.3510 -0.3945
25813SOL     OW83401   2.624   9.451   0.523 -0.3679  0.1876  0.0195
25813SOL    HW183402   2.608   9.534   0.568 -0.3826  1.1012 -1.5910
25813SOL    HW283403   2.717   9.453   0.500 -0.5693  0.1765 -0.8217
25814SOL     OW83404  10.475   7.233   6.199 -0.0011 -0.1378 -0.2176
25814SOL    HW183405  10.547   7.247   6.260  0.6436 -0.5861 -0.8589
25814SOL    HW283406  10.512   7.254   6.113 -0.5829 -0.5328 -0.5738
25815SOL     OW83407   5.562  11.396   8.723  0.5994 -0.2510 -0.4449
25815SOL    HW183408   5.622  11.420   8.794  1.1000 -1.6726 -0.3670
25815SOL    HW283409   5.619  11.373   8.650  0.1763 -1.4813 -0.4139
25816SOL     OW83410   6.515   5.825   1.576  0.0803  0.1072 -0.6370
25816SOL    HW183411   6.521   5.796   1.485  0.0363  0.1857 -0.6659
25816SOL    HW283412   6.565   5.760   1.626 -1.7490 -1.2087 -0.4274
25817SOL     OW83413   9.574  10.584   6.045  0.3983  0.0994  0.7622
25817SOL    HW183414   9.665  10.553   6.043  1.2640  2.3206  1.3835
25817SOL    HW283415   9.546  10.570   6.136  0.6296  0.6464  0.9251
25818SOL     OW83416   1.636   6.407   6.810 -0.0552 -0.0348  0.2305
25818SOL    HW183417   1.553   6.367   6.782 -0.0008  0.0047  0.0120
25818SOL    HW283418   1.641   6.489   6.760  0.0458  0.0311  0.3505
25819SOL     OW83419  10.742   6.899   5.447  0.8833 -0.2176  0.6459
25819SOL    HW183420  10.800   6.935   5.381  0.7705  0.5109  0.9390
25819SOL    HW283421  10.728   6.808   5.419 -0.4580  0.5027 -1.2427
25820SOL     OW83422   7.210  10.339   2.392  0.3202  0.3160 -0.1380
25820SOL    HW183423   7.207  10.331   2.487  1.8403  1.6125  0.0545
25820SOL    HW283424   7.174  10.256   2.360  0.9402 -0.6566  1.5560
25821SOL     OW83425   5.785   7.985  12.141  0.2388  0.2590  0.0637
25821SOL    HW183426   5.833   8.057  12.100  0.8374  0.0167  0.3343
25821SOL    HW283427   5.787   8.005  12.235  0.4988 -0.1628  0.1485
25822SOL     OW83428   9.048   4.174   1.856 -0.2783 -0.0732  0.0508
25822SOL    HW183429   9.101   4.239   1.810 -2.1440  0.6793 -1.1430
25822SOL    HW283430   9.087   4.090   1.831 -0.7526  0.3590 -2.3591
25823SOL     OW83431   0.012   3.603   4.240 -0.3836  0.2809 -0.1430
25823SOL    HW183432   0.002   3.696   4.221 -1.8369 -0.1586 -1.7584
25823SOL    HW283433  -0.056   3.584   4.305  0.4348  0.4687  0.8037
25824SOL     OW83434  12.272   2.304   8.357  0.3321 -0.8203  0.2278
25824SOL    HW183435  12.277   2.385   8.308 -1.5699 -0.6273  0.2827
25824SOL    HW283436  12.233   2.329   8.441  1.9709 -1.4144  1.2053
25825SOL     OW83437   6.412   4.907   6.942 -0.4989  0.3065  0.1561
25825SOL    HW183438   6.494   4.866   6.970  0.2997  1.4480 -0.4399
25825SOL    HW283439   6.354   4.900   7.018 -0.1559 -1.2864  0.3008
25826SOL     OW83440   1.339  12.082  11.066 -0.1023  0.3468 -0.1933
25826SOL    HW183441   1.342  12.161  11.120 -1.1897 -0.2748  0.8389
25826SOL    HW283442   1.360  12.113  10.977  2.9544  1.1994  0.7136
25827SOL     OW83443   9.177   9.498   1.796  0.1769  0.1958 -0.2104
25827SOL    HW183444   9.098   9.466   1.753 -0.8122 -0.7235  2.1136
25827SOL    HW283445   9.147   9.533   1.879  2.0874  0.9971  0.2120
25828SOL     OW83446   9.983   0.041   0.850 -0.3145 -0.0146 -0.0694
25828SOL    HW183447   9.955   0.072   0.764  0.5587 -0.4864 -0.5377
25828SOL    HW283448  10.072   0.074   0.859 -1.1662  2.0484  1.6751
25829SOL     OW83449   1.849   0.114   6.454  0.0265  0.0391 -0.1271
25829SOL    HW183450   1.879   0.121   6.545  2.6300  1.9380 -1.0017
25829SOL    HW283451   1.768   0.166   6.451 -0.5447 -0.7371  1.2388
25830SOL     OW83452   4.786   2.747   3.366  0.4959  0.4149 -0.4185
25830SOL    HW183453   4.756   2.656   3.369  0.6437  0.3956  1.2135
25830SOL    HW283454   4.875   2.744   3.401 -0.0350  1.3830  1.0593
25831SOL     OW83455   2.894   0.880   6.761  0.2717  0.6077 -0.2409
25831SOL    HW183456   2.886   0.785   6.774 -0.0210  0.4042 -1.6981
25831SOL    HW283457   2.977   0.890   6.714  0.8456  1.2003  0.8646
25832SOL     OW83458   2.297   1.899   9.184 -0.3303 -0.5137 -0.2876
25832SOL    HW183459   2.212   1.907   9.228 -0.3763 -1.2048 -0.2452
25832SOL    HW283460   2.280   1.929   9.094 -0.2638  0.7857  0.1126
25833SOL     OW83461   3.568   3.749   1.309  0.6302  0.4190 -0.7064
25833SOL    HW183462   3.590   3.745   1.216 -2.4411 -1.9058 -1.4986
25833SOL    HW283463   3.501   3.817   1.315 -0.5449 -0.7211 -0.5830
25834SOL     OW83464   8.097   2.985   5.166  0.3267 -0.1016  0.2899
25834SOL    HW183465   8.082   3.022   5.079  1.8679 -0.9520 -0.3657
25834SOL    HW283466   8.093   3.061   5.224 -0.9026  0.4548 -0.4747
25835SOL     OW83467   7.037   0.332   1.066  0.2421 -0.0494  0.5105
25835SOL    HW183468   7.105   0.272   1.097  0.0967 -1.0982 -1.0900
25835SOL    HW283469   7.074   0.371   0.987 -0.3921  0.5836  0.5172
25836SOL     OW83470   3.767  12.387   7.019 -0.3285  0.8458  0.4093
25836SOL    HW183471   3.754  12.393   7.114  0.0515  1.0755  0.4510
25836SOL    HW283472   3.857  12.355   7.010 -1.0912 -1.4690  0.1534
25837SOL     OW83473   5.519  10.020   8.356  0.2700 -0.0985  0.1719
25837SOL    HW183474   5.559   9.974   8.430  0.8188 -0.7370 -0.5145
25837SOL    HW283475   5.581  10.090   8.336  0.8751 -0.8527 -0.6450
25838SOL     OW83476   1.468   4.284   8.068 -0.0699  0.1899  0.4521
25838SOL    HW183477   1.544   4.277   8.125 -0.3816  0.3380  0.8952
25838SOL    HW283478   1.449   4.195   8.041  0.7928  0.2388 -0.3826
25839SOL     OW83479   4.743   2.464   7.688 -0.1350 -0.3012  0.6835
25839SOL    HW183480   4.664   2.470   7.741 -0.8996 -0.3802 -0.4054
25839SOL    HW283481   4.735   2.379   7.643  0.4866 -0.2363  0.4435
25840SOL     OW83482  11.832  10.764   5.407 -0.2126  0.3346 -0.3172
25840SOL    HW183483  11.858  10.716   5.328 -0.5144 -0.0440 -0.1873
25840SOL    HW283484  11.742  10.793   5.390 -0.7033 -0.7557  0.3511
25841SOL     OW83485   6.391   7.104  12.175 -0.1318  0.1926 -0.3693
25841SOL    HW183486   6.380   7.186  12.223 -1.8274 -0.3326  0.1875
25841SOL    HW283487   6.347   7.039  12.228 -0.2889 -0.7853 -1.6496
25842SOL     OW83488   5.446  12.198   4.772  0.2246  0.7361 -0.2973
25842SOL    HW183489   5.520  12.252   4.801  0.0774  0.8510 -0.1369
25842SOL    HW283490   5.369  12.238   4.812 -0.0726  1.3436 -1.4254
25843SOL     OW83491   7.694   1.882   9.014 -0.3550  0.4920 -0.1969
25843SOL    HW183492   7.755   1.810   9.001 -0.1910  0.6791 -0.4804
25843SOL    HW283493   7.622   1.864   8.953 -0.2701  0.6168 -0.3345
25844SOL     OW83494   7.290   0.305  10.382 -0.4783  0.4583 -0.1775
25844SOL    HW183495   7.335   0.372  10.331 -0.5457  0.2457 -0.5188
25844SOL    HW283496   7.299   0.225  10.330  0.3167  0.0140  0.6216
25845SOL     OW83497   6.152   0.856   5.984 -0.1677 -0.2957 -0.1635
25845SOL    HW183498   6.097   0.856   6.062 -0.7313  1.0316 -0.5342
25845SOL    HW283499   6.090   0.871   5.912  0.6172  0.8902 -0.6181
25846SOL     OW83500   1.951   2.693   9.025  0.0964 -0.3957  0.4537
25846SOL    HW183501   1.864   2.731   9.010  0.1046  0.3221  2.0292
25846SOL    HW283502   1.950   2.667   9.117  2.1225  1.2286  1.0071
25847SOL     OW83503   1.755   3.220  10.208 -0.1012 -0.0893 -0.3562
25847SOL    HW183504   1.821   3.156  10.180 -1.0641 -1.2128 -0.1311
25847SOL    HW283505   1.765   3.224  10.303 -1.1498 -1.2180 -0.1667
25848SOL     OW83506  11.617   7.678   6.161  0.1411  0.1457  0.6095
25848SOL    HW183507  11.610   7.586   6.137  0.8598  0.2435 -0.0208
25848SOL    HW283508  11.636   7.723   6.079  0.6946  0.7406  1.0509
25849SOL     OW83509   9.999  10.993   9.980 -0.4374  0.3274 -0.3449
25849SOL    HW183510   9.950  10.952   9.909 -2.7548 -0.7384  1.7323
25849SOL    HW283511  10.076  10.937   9.991  0.1715  0.7356 -2.2039
25850SOL     OW83512   6.182   7.560  10.994  0.2153  0.4748 -0.1788
25850SOL    HW183513   6.216   7.594  10.911  1.6628  1.2404  0.7007
25850SOL    HW283514   6.156   7.470  10.974  0.3206  0.7189 -1.5091
25851SOL     OW83515  11.724   0.912   0.671  1.0680 -0.0640  0.0181
25851SOL    HW183516  11.741   1.004   0.651  1.7546 -0.2504 -0.2887
25851SOL    HW283517  11.746   0.903   0.764 -0.2849  0.3685  0.4091
25852SOL     OW83518   2.109   0.083   4.330  0.3468 -0.1958  0.7327
25852SOL    HW183519   2.053   0.016   4.369 -1.0254  1.1224  1.1325
25852SOL    HW283520   2.058   0.116   4.256  0.0007  1.8708  1.8231
25853SOL     OW83521  12.468   1.638   7.590 -0.0370 -0.0032 -0.4968
25853SOL    HW183522  12.553   1.636   7.545 -0.3522 -1.6730 -1.0949
25853SOL    HW283523  12.472   1.565   7.652 -1.3678 -0.7483 -1.2316
25854SOL     OW83524   8.281   8.140   8.333  0.1562  0.4130  0.0819
25854SOL    HW183525   8.193   8.147   8.370  0.1725  0.5265  0.1028
25854SOL    HW283526   8.285   8.052   8.297  0.3658  0.0735  0.9319
25855SOL     OW83527   8.030   7.398   9.831 -0.3882  0.4811 -0.3155
25855SOL    HW183528   7.953   7.443   9.866 -0.6181  0.8070 -1.2192
25855SOL    HW283529   8.095   7.405   9.900 -0.5490  1.8593 -0.2829
25856SOL     OW83530   9.413   7.697   7.718  0.1940 -0.8203  0.2955
25856SOL    HW183531   9.372   7.623   7.763  1.0882 -0.2721  2.1152
25856SOL    HW283532   9.449   7.751   7.789 -0.4046  1.3535 -0.9566
25857SOL     OW83533   1.482   0.456   3.817 -0.7754  0.0981 -0.3264
25857SOL    HW183534   1.422   0.395   3.773  1.0576 -1.1282 -1.2454
25857SOL    HW283535   1.464   0.541   3.775 -3.5649  0.3823  1.1734
25858SOL     OW83536   3.225  10.680   0.782  0.5441 -0.0916  0.1799
25858SOL    HW183537   3.242  10.677   0.876  2.9515 -1.9505 -0.1917
25858SOL    HW283538   3.299  10.632   0.744  0.0798  1.3050 -2.7234
25859SOL     OW83539   5.181  12.188   5.216 -0.2663 -0.2136  0.1514
25859SOL    HW183540   5.162  12.164   5.125 -1.7110 -0.4477  0.4879
25859SOL    HW283541   5.243  12.260   5.209 -0.0600 -0.4846 -1.0155
25860SOL     OW83542   2.908   4.341   5.040  0.0720  0.5061  0.1689
25860SOL    HW183543   2.833   4.337   5.099 -0.1035  1.6250  0.0421
25860SOL    HW283544   2.972   4.396   5.086  0.0174  1.2054 -0.5730
25861SOL     OW83545   8.488   6.852   6.324 -0.0324 -0.1212  0.0309
25861SOL    HW183546   8.570   6.837   6.370 -0.0387 -0.7589 -0.1653
25861SOL    HW283547   8.513   6.903   6.247 -0.0255  0.9829  0.7249
25862SOL     OW83548   6.012   4.484   9.552  0.3501  0.1413 -0.2533
25862SOL    HW183549   5.974   4.478   9.465  0.3099  1.4774 -0.3462
25862SOL    HW283550   6.050   4.397   9.568 -2.9754 -1.4561 -0.0186
25863SOL     OW83551   1.175  11.314   6.899 -0.2679  0.7574 -0.2456
25863SOL    HW183552   1.110  11.375   6.864 -1.2832 -0.1916 -0.0518
25863SOL    HW283553   1.192  11.346   6.988 -2.1030 -0.1996  0.4947
25864SOL     OW83554   7.837  10.202   4.987 -0.0014 -0.1116 -0.5819
25864SOL    HW183555   7.807  10.245   4.907  1.0673 -0.1637 -1.0290
25864SOL    HW283556   7.848  10.272   5.050 -0.6592 -0.0469 -0.5248
25865SOL     OW83557  10.360   0.468   2.961 -0.1015  0.5445  0.6634
25865SOL    HW183558  10.290   0.411   2.993 -0.1724  0.4255  0.2926
25865SOL    HW283559  10.370   0.534   3.030  0.9558 -0.7107  1.7635
25866SOL     OW83560   8.892   3.209   3.623  0.0686  0.2853  0.4914
25866SOL    HW183561   8.916   3.209   3.530 -1.2180 -0.4206  0.1475
25866SOL    HW283562   8.917   3.297   3.653  0.0239  0.7100 -0.6455
25867SOL     OW83563  11.036   0.447   0.334 -0.3528 -0.7560 -0.1971
25867SOL    HW183564  11.076   0.515   0.280  0.4711 -0.8685  0.2618
25867SOL    HW283565  11.108   0.413   0.387 -0.9544 -1.3230  0.2679
25868SOL     OW83566   1.312  12.392   4.671  0.0092  0.5860 -0.1051
25868SOL    HW183567   1.262  12.350   4.601  1.1238 -0.7942 -0.1146
25868SOL    HW283568   1.303  12.333   4.746  0.6565  0.9020  0.2342
25869SOL     OW83569   5.218   9.301  10.858 -0.3204  0.6538  0.0826
25869SOL    HW183570   5.239   9.230  10.798  1.1975  1.5767 -0.5265
25869SOL    HW283571   5.141   9.270  10.906 -0.1197 -1.0874 -0.6561
25870SOL     OW83572   8.139   6.732   3.297  0.0237  0.0707 -0.1739
25870SOL    HW183573   8.228   6.703   3.277 -0.1506 -1.2080  0.7592
25870SOL    HW283574   8.151   6.806   3.356  0.5113 -1.2655  1.4900
25871SOL     OW83575  10.086   1.689   3.976 -0.2834  0.0985 -1.6780
25871SOL    HW183576  10.153   1.746   4.013  0.3227 -1.8876  0.4932
25871SOL    HW283577  10.003   1.731   3.999  0.1547  0.6980 -1.1654
25872SOL     OW83578   7.952   4.678  11.101  0.1880 -0.0223  0.1678
25872SOL    HW183579   7.920   4.738  11.168 -0.1795 -0.4141  0.3533
25872SOL    HW283580   7.877   4.666  11.042  0.2038 -0.4204  0.2256
25873SOL     OW83581   5.078   1.446   1.346 -0.3911 -0.1483 -0.3033
25873SOL    HW183582   5.095   1.366   1.395 -1.5150 -0.3404 -0.1929
25873SOL    HW283583   5.108   1.427   1.257 -2.2060 -1.3510 -0.7229
25874SOL     OW83584   7.841   2.007   2.723 -0.5255 -0.1437  0.3698
25874SOL    HW183585   7.775   2.059   2.769 -0.9341 -0.5859  0.2875
25874SOL    HW283586   7.847   1.926   2.773 -0.4183 -0.3136  0.0816
25875SOL     OW83587   7.535   2.228   2.367  0.2342 -0.5063  0.1150
25875SOL    HW183588   7.454   2.252   2.411 -0.2165 -0.8585 -0.5163
25875SOL    HW283589   7.573   2.312   2.338  0.5687 -0.2660  1.2084
25876SOL     OW83590   8.336   0.913   1.193 -0.4213 -0.0775  0.1491
25876SOL    HW183591   8.389   0.888   1.118  0.1070  1.6153 -0.0859
25876SOL    HW283592   8.398   0.916   1.266 -0.5384  0.2310  0.2357
25877SOL     OW83593  10.168  10.592   0.374 -0.6009 -0.0744 -0.3166
25877SOL    HW183594  10.150  10.500   0.395 -2.1134  0.5244  1.2178
25877SOL    HW283595  10.238  10.588   0.308 -0.0293 -2.2776  0.3326
25878SOL     OW83596   0.972   5.523  10.815  0.6840  0.1739 -0.0159
25878SOL    HW183597   1.063   5.551  10.808  0.5467  0.7897  0.5425
25878SOL    HW283598   0.924   5.602  10.839 -0.0927 -0.0128 -0.8874
25879SOL     OW83599   5.403   1.677   9.390 -0.1629  0.2875 -0.2169
25879SOL    HW183600   5.363   1.760   9.417 -0.4380 -0.5222  2.0980
25879SOL    HW283601   5.389   1.618   9.465  1.9785 -1.1902 -0.8910
25880SOL     OW83602   8.592   1.823  11.872  0.9990 -0.1418  0.9158
25880SOL    HW183603   8.588   1.768  11.950  1.9087 -0.9617  0.4122
25880SOL    HW283604   8.506   1.864  11.867  1.1634  0.4787  2.7288
25881SOL     OW83605   4.996   9.941  12.109 -0.5315  0.0350 -0.4011
25881SOL    HW183606   5.086   9.969  12.092 -0.5165 -0.4288 -1.1149
25881SOL    HW283607   5.002   9.891  12.191  0.4084 -2.4945 -1.8998
25882SOL     OW83608   2.574   3.513   1.854  0.5479  0.5900 -0.0318
25882SOL    HW183609   2.487   3.552   1.852 -0.0479 -0.0284  4.3539
25882SOL    HW283610   2.633   3.585   1.876  0.6241  0.3992  0.3897
25883SOL     OW83611   9.606   1.874  10.534  0.0875  0.1097 -0.9033
25883SOL    HW183612   9.633   1.819  10.608  0.7313  0.8491 -0.5837
25883SOL    HW283613   9.654   1.956  10.545 -1.7608  1.2238 -0.7039
25884SOL     OW83614   5.443   3.008   6.018 -0.2927  0.1024 -0.5354
25884SOL    HW183615   5.448   2.934   6.079 -2.2594  1.5344  1.5141
25884SOL    HW283616   5.349   3.022   6.004 -0.0190  2.5701 -0.3797
25885SOL     OW83617   0.084  10.672   1.312  0.3281  0.2093  0.7085
25885SOL    HW183618   0.094  10.646   1.220 -1.2835  2.3747 -0.1660
25885SOL    HW283619   0.068  10.590   1.359 -0.4021 -0.8001 -1.1962
25886SOL     OW83620  11.271   9.177   4.805 -0.2548 -0.3327  0.1289
25886SOL    HW183621  11.317   9.137   4.732  0.8863  0.7002  0.2632
25886SOL    HW283622  11.333   9.174   4.878 -0.4258  0.9478  0.3532
25887SOL     OW83623   5.188   9.541   1.843  0.0707 -0.3383 -0.6338
25887SOL    HW183624   5.185   9.634   1.819 -1.3764 -0.3204 -0.4591
25887SOL    HW283625   5.211   9.542   1.936  2.4946 -0.2888 -1.1633
25888SOL     OW83626   9.196  12.294   8.054  0.1082 -0.0497  0.1989
25888SOL    HW183627   9.227  12.339   7.975  0.6843  1.9629  1.5096
25888SOL    HW283628   9.250  12.328   8.125 -0.7624 -1.3884  1.5801
25889SOL     OW83629   0.284   9.606   7.779  0.7990  0.2470  0.0576
25889SOL    HW183630   0.240   9.533   7.823  0.1497  1.1340  0.9052
25889SOL    HW283631   0.253   9.602   7.689  0.1411 -0.0465  0.2883
25890SOL     OW83632   3.328   9.750   4.951  0.3762 -0.5068  0.1236
25890SOL    HW183633   3.248   9.708   4.919 -0.6242  1.7161 -0.5311
25890SOL    HW283634   3.297   9.813   5.016  1.5891  0.4134 -0.1609
25891SOL     OW83635   5.434   8.197  10.725  0.3781  0.2019 -0.1984
25891SOL    HW183636   5.483   8.263  10.677 -1.5053  2.6538  1.0400
25891SOL    HW283637   5.499   8.156  10.782  1.3307  2.2579  0.2899
25892SOL     OW83638   0.330   7.893  11.536 -0.6823  0.2898 -0.4400
25892SOL    HW183639   0.296   7.805  11.550 -1.2372  0.7040  0.9072
25892SOL    HW283640   0.386   7.910  11.612  2.1143 -0.1295 -2.2616
25893SOL     OW83641   5.153   5.905  10.151  0.6160 -0.4146 -0.4550
25893SOL    HW183642   5.141   5.932  10.060  0.4945  1.2250  0.0203
25893SOL    HW283643   5.248   5.896  10.161  0.7054  0.4276 -0.4789
25894SOL     OW83644  11.381   8.233   7.643  0.4434  0.2731 -0.5165
25894SOL    HW183645  11.421   8.230   7.730 -1.8970 -0.0127  0.6026
25894SOL    HW283646  11.381   8.326   7.621 -0.8382  0.6008  0.7391
25895SOL     OW83647   7.555   4.976  12.376  0.1705  0.2847  0.2241
25895SOL    HW183648   7.649   4.965  12.362 -0.1818 -1.5023 -1.1458
25895SOL    HW283649   7.518   4.971  12.288 -1.4281 -1.9367  0.9448
25896SOL     OW83650   9.677   3.104   4.745 -0.0517 -0.2915 -0.2324
25896SOL    HW183651   9.633   3.164   4.805  0.6230  0.5026 -0.5266
25896SOL    HW283652   9.728   3.160   4.687  0.1471 -1.1168 -0.8683
25897SOL     OW83653   3.603   3.756   1.931 -0.2305  0.5134 -0.2629
25897SOL    HW183654   3.622   3.844   1.900 -1.5740  1.0279  0.3179
25897SOL    HW283655   3.547   3.768   2.007  1.2524 -0.7943  1.1201
25898SOL     OW83656  11.849   3.797   9.531 -0.1954 -0.0199 -0.3445
25898SOL    HW183657  11.827   3.711   9.495  2.1547 -0.6927 -0.3653
25898SOL    HW283658  11.853   3.783   9.626  0.2715  0.0316 -0.3543
25899SOL     OW83659   8.649   7.278   6.811 -0.3351 -0.1391 -0.0276
25899SOL    HW183660   8.726   7.292   6.867  1.6333 -1.7543 -2.1539
25899SOL    HW283661   8.654   7.348   6.746 -2.6747  1.7968  1.6962
25900SOL     OW83662   1.797   2.564   3.239  0.1977 -0.4178 -0.4376
25900SOL    HW183663   1.788   2.653   3.275  1.5396 -1.0322  1.5629
25900SOL    HW283664   1.733   2.561   3.168  1.4343  2.7860 -1.8814
25901SOL     OW83665   5.806   5.836   5.695  0.2825 -0.3624  0.0601
25901SOL    HW183666   5.865   5.861   5.624  0.0214 -0.0945 -0.0648
25901SOL    HW283667   5.721   5.826   5.652  0.1653 -0.3971  0.3006
25902SOL     OW83668   6.554  10.438   5.131  0.2168 -0.2712 -0.4052
25902SOL    HW183669   6.589  10.523   5.157  1.4858 -0.2833 -1.8858
25902SOL    HW283670   6.500  10.456   5.055 -1.9210 -0.4646  0.9869
25903SOL     OW83671   7.681   6.545  10.252 -0.0261  0.0628  0.0442
25903SOL    HW183672   7.753   6.533  10.190  1.2984  2.0959  1.0854
25903SOL    HW283673   7.660   6.638  10.247 -0.8176  0.0052  1.6099
25904SOL     OW83674   3.624   6.604   5.309 -0.0627 -0.0833  1.1457
25904SOL    HW183675   3.588   6.537   5.367  1.1655 -1.3042  0.5740
25904SOL    HW283676   3.712   6.572   5.288 -0.0479  0.9010 -0.4544
25905SOL     OW83677   5.796   5.489   2.367 -0.8014 -0.2299  0.0523
25905SOL    HW183678   5.891   5.487   2.382 -0.7484 -1.2060 -0.3536
25905SOL    HW283679   5.758   5.497   2.455 -0.3938 -2.2450  0.4714
25906SOL     OW83680  10.202   2.835   0.246  0.2084 -0.5249 -0.4833
25906SOL    HW183681  10.272   2.899   0.251  1.6203 -1.9654 -0.9215
25906SOL    HW283682  10.158   2.853   0.163 -0.8335  1.2268  0.4022
25907SOL     OW83683   9.306   9.988   9.129 -0.4335  0.1184 -0.5889
25907SOL    HW183684   9.265  10.060   9.081  1.1832  1.2953 -0.2941
25907SOL    HW283685   9.326  10.025   9.215  0.2507 -0.7327 -0.3695
25908SOL     OW83686   7.591   4.776   3.244 -0.1021  0.5033 -0.2110
25908SOL    HW183687   7.549   4.690   3.243 -0.7400  0.8089 -0.4314
25908SOL    HW283688   7.589   4.805   3.153  2.3349 -0.2867 -0.5879
25909SOL     OW83689   6.121   6.928   8.241  0.2267  0.3082 -0.3560
25909SOL    HW183690   6.183   6.928   8.168  1.1452  0.7289  0.4037
25909SOL    HW283691   6.175   6.920   8.319 -0.8805 -2.7209  0.2240
25910SOL     OW83692   0.447   2.408   7.162 -0.6444 -0.0942  0.2712
25910SOL    HW183693   0.433   2.333   7.221 -1.4900 -0.7397 -0.7108
25910SOL    HW283694   0.391   2.389   7.086  3.0539 -1.1861 -2.4897
25911SOL     OW83695   2.255  10.860   2.406 -0.1798 -0.2790 -0.1933
25911SOL    HW183696   2.180  10.920   2.402 -0.4347 -0.6258 -0.7116
25911SOL    HW283697   2.322  10.910   2.452 -0.0382  0.7869 -1.4857
25912SOL     OW83698  10.622  11.708   4.949 -0.0030 -0.0849 -0.3573
25912SOL    HW183699  10.577  11.651   4.888  0.4307  1.1928 -1.9377
25912SOL    HW283700  10.555  11.734   5.012 -0.5931 -0.9974 -0.6003
25913SOL     OW83701  10.923   5.812   6.526  0.0054  0.6906 -0.6271
25913SOL    HW183702  11.014   5.785   6.511 -0.3492 -0.5801 -0.5853
25913SOL    HW283703  10.871   5.740   6.492 -0.9536  0.3627  1.3912
25914SOL     OW83704   7.526  11.200   0.884  0.3613 -0.1325 -0.0681
25914SOL    HW183705   7.495  11.124   0.933  0.6526 -0.9940 -1.1871
25914SOL    HW283706   7.445  11.245   0.858  0.2007  0.2964  1.1032
25915SOL     OW83707  10.301   3.287   9.074  0.0195  0.2324  0.3282
25915SOL    HW183708  10.212   3.321   9.083  0.0178  0.0109  1.1962
25915SOL    HW283709  10.314   3.280   8.979 -0.9103  0.2032  0.1935
25916SOL     OW83710   5.158   6.216   5.868 -0.4697  0.0296 -0.3460
25916SOL    HW183711   5.108   6.161   5.928 -1.2643 -1.0908 -1.9785
25916SOL    HW283712   5.107   6.296   5.859 -1.0414 -0.3637 -0.5952
25917SOL     OW83713  11.284   6.784  12.086  0.3333 -0.1282 -0.0835
25917SOL    HW183714  11.307   6.691  12.095 -3.0042 -0.9751  1.2551
25917SOL    HW283715  11.337   6.815  12.013  2.6116 -2.6735  0.3184
25918SOL     OW83716   8.152   5.930   3.622  0.2818  0.4605 -0.2575
25918SOL    HW183717   8.193   6.015   3.607 -1.5727  1.3530 -0.5393
25918SOL    HW283718   8.094   5.918   3.547  0.2262 -0.8909 -0.0223
25919SOL     OW83719   9.501   4.154   0.405  0.5763 -0.4018 -0.2154
25919SOL    HW183720   9.593   4.153   0.432  0.2973 -0.3778  0.7696
25919SOL    HW283721   9.504   4.148   0.309  1.6300  0.8419 -0.2824
25920SOL     OW83722  11.053   7.102   0.657  0.5279 -0.2752  0.1068
25920SOL    HW183723  10.996   7.027   0.643 -0.8102  0.7238 -0.0047
25920SOL    HW283724  11.052   7.148   0.573 -0.1265  0.8191  0.6974
25921SOL     OW83725   7.702   0.814   0.350 -0.3838 -0.1910  0.4068
25921SOL    HW183726   7.694   0.730   0.305  0.3204 -0.7224  1.2575
25921SOL    HW283727   7.666   0.798   0.437  2.0510 -0.3480  1.4569
25922SOL     OW83728   1.696   8.109   1.236 -0.6726  0.0752 -0.2326
25922SOL    HW183729   1.791   8.094   1.237 -0.7966 -0.7606 -0.2888
25922SOL    HW283730   1.658   8.021   1.231 -1.4403  0.4448 -1.3088
25923SOL     OW83731  12.235   3.804   3.419  0.0837 -0.6656 -0.2040
25923SOL    HW183732  12.147   3.793   3.382 -0.5470  1.4254  0.5096
25923SOL    HW283733  12.270   3.715   3.424 -1.6703 -1.4782 -1.2577
25924SOL     OW83734   0.715  12.376   8.445  0.0220  0.2643 -0.5742
25924SOL    HW183735   0.643  12.333   8.491 -0.7405  0.1835 -1.7980
25924SOL    HW283736   0.704  12.470   8.465 -1.7399  0.5167 -2.4431
25925SOL     OW83737   6.024   3.008   2.796 -0.0558  0.0330  0.1762
25925SOL    HW183738   6.074   3.050   2.866 -1.0195 -0.6270  1.3218
25925SOL    HW283739   5.938   3.051   2.800 -1.4856 -2.7000  2.1960
25926SOL     OW83740  10.579  11.868   3.713 -0.3151 -0.1225 -0.1788
25926SOL    HW183741  10.599  11.896   3.624  0.9870 -1.8252 -0.4674
25926SOL    HW283742  10.665  11.846   3.751 -0.7965  0.8553  1.6233
25927SOL     OW83743  12.347   5.547   1.947 -0.1438  0.3351 -0.1226
25927SOL    HW183744  12.268   5.498   1.927  0.2235  0.3615 -1.8063
25927SOL    HW283745  12.417   5.481   1.945  0.1745  0.6881 -1.0446
25928SOL     OW83746   7.995   9.302   4.476 -0.5979  0.5455 -0.1826
25928SOL    HW183747   7.957   9.215   4.493 -1.5633  1.0303  0.2175
25928SOL    HW283748   8.080   9.283   4.436 -0.4538 -0.5912  0.5999
25929SOL     OW83749   8.790   0.221  10.890 -0.1256  0.0483 -0.7301
25929SOL    HW183750   8.862   0.157  10.892  0.5012  0.6732 -2.0623
25929SOL    HW283751   8.781   0.244  10.798 -0.1186  2.1115 -0.2646
25930SOL     OW83752   1.115   7.292   7.583 -0.1479  0.3512 -0.2196
25930SOL    HW183753   1.180   7.221   7.587  0.5835  0.9009 -1.4673
25930SOL    HW283754   1.157   7.365   7.628 -0.1151  0.5476 -0.5663
25931SOL     OW83755   3.360   3.342   1.419 -0.0266 -0.0917 -0.0575
25931SOL    HW183756   3.434   3.326   1.359 -0.1741 -0.0949 -0.2387
25931SOL    HW283757   3.397   3.330   1.506  0.2994  0.3450 -0.1306
25932SOL     OW83758   5.314   1.536   4.335 -0.2702  0.5039 -0.7854
25932SOL    HW183759   5.320   1.577   4.249 -0.8254 -0.0957 -1.1084
25932SOL    HW283760   5.247   1.469   4.326  0.2221 -0.0937 -0.0977
25933SOL     OW83761   4.991   3.053   5.139 -0.3254 -0.3993  0.6682
25933SOL    HW183762   5.016   3.090   5.054 -0.1555 -0.9919  0.4578
25933SOL    HW283763   5.038   2.970   5.145  0.5066  0.1375  1.8280
25934SOL     OW83764   7.112   6.888   0.444 -0.3063 -0.7459 -0.5352
25934SOL    HW183765   7.096   6.806   0.491  0.1964 -1.2650 -1.2406
25934SOL    HW283766   7.095   6.866   0.352 -0.8817  0.1432 -0.6497
25935SOL     OW83767   7.845   1.128   5.239 -0.3281  0.0243  0.5514
25935SOL    HW183768   7.937   1.122   5.266 -0.3730  1.5601  1.1217
25935SOL    HW283769   7.814   1.210   5.276 -1.2178  0.8046 -1.7249
25936SOL     OW83770  10.320   7.720  10.973 -0.0081  0.0092 -0.1872
25936SOL    HW183771  10.280   7.769  10.901 -0.6983 -0.3601 -0.0587
25936SOL    HW283772  10.300   7.772  11.051  2.5650  1.5676 -0.4428
25937SOL     OW83773   4.657   3.825  10.676  0.0630  0.1331  0.1759
25937SOL    HW183774   4.742   3.801  10.714  0.4272  0.7847 -0.1984
25937SOL    HW283775   4.595   3.815  10.748  0.3407 -0.9806  0.2846
25938SOL     OW83776  12.042   0.645   4.480 -0.1299  0.5561  0.1006
25938SOL    HW183777  12.093   0.679   4.406 -0.5495 -1.2523 -1.0810
25938SOL    HW283778  11.980   0.715   4.500 -0.5697  0.7805 -1.8310
25939SOL     OW83779   2.204  12.426   3.761  0.0544  0.4450 -0.1651
25939SOL    HW183780   2.255  12.430   3.842 -0.8500 -0.8808  0.5014
25939SOL    HW283781   2.195  12.332   3.743 -1.4216  0.6725 -0.7270
25940SOL     OW83782   2.381   6.174   5.661  0.0124  0.0831 -0.0790
25940SOL    HW183783   2.299   6.148   5.705  0.8701 -0.6033  1.1889
25940SOL    HW283784   2.402   6.100   5.604 -0.2040  0.2212 -0.3381
25941SOL     OW83785   2.850   7.176   1.536 -0.0626  0.0680 -0.2676
25941SOL    HW183786   2.806   7.256   1.503 -0.3041  0.3109  0.6231
25941SOL    HW283787   2.929   7.170   1.483 -0.2311  0.6875 -0.6147
25942SOL     OW83788   7.632  10.429   1.133 -0.5386 -0.1005  0.1993
25942SOL    HW183789   7.556  10.373   1.148 -0.6075  0.0014  0.2379
25942SOL    HW283790   7.707  10.374   1.152 -0.5381 -0.6703 -1.3075
25943SOL     OW83791   6.370  10.286   0.777 -0.6005 -0.2202 -0.3675
25943SOL    HW183792   6.348  10.196   0.753 -0.7717 -0.4334  0.5718
25943SOL    HW283793   6.367  10.287   0.873  1.5517  0.2135 -0.2446
25944SOL     OW83794   1.183   6.666  11.704 -0.7679  0.6173 -0.4695
25944SOL    HW183795   1.265   6.689  11.658 -0.5869 -1.1597 -1.1159
25944SOL    HW283796   1.132   6.619  11.639 -0.8180 -1.3509  0.9182
25945SOL     OW83797   9.028   7.568   7.901  0.8123  0.5195 -0.2898
25945SOL    HW183798   9.050   7.536   7.813 -1.7314 -0.1774 -0.7460
25945SOL    HW283799   9.012   7.662   7.888 -0.8827  0.1824 -0.9115
25946SOL     OW83800   0.343  10.787  11.069 -0.0965 -0.1747  0.0451
25946SOL    HW183801   0.320  10.709  11.019  0.8996  0.5692 -1.6774
25946SOL    HW283802   0.421  10.821  11.025 -0.8681  2.1344  0.3332
25947SOL     OW83803   6.282  10.117  10.754 -0.0464 -0.5604  0.0877
25947SOL    HW183804   6.348  10.156  10.696 -1.8614  0.5815 -1.3025
25947SOL    HW283805   6.273  10.179  10.826  0.0554 -0.5004  0.0473
25948SOL     OW83806   3.509   4.943   0.403 -0.0920  0.8154 -0.6751
25948SOL    HW183807   3.428   4.894   0.414 -0.7037  1.7543 -0.9336
25948SOL    HW283808   3.496   5.022   0.455  0.3363  1.3510 -1.3701
25949SOL     OW83809   0.734   0.087   2.740  0.6267  0.0514  0.4832
25949SOL    HW183810   0.794   0.156   2.712 -0.3864  0.8481  0.1848
25949SOL    HW283811   0.660   0.095   2.680  0.1952 -0.8596  0.8817
25950SOL     OW83812   1.559   4.840   9.304  0.2014 -0.0847 -0.2566
25950SOL    HW183813   1.578   4.746   9.305  0.5140 -0.0228  0.2465
25950SOL    HW283814   1.619   4.876   9.239  0.8722 -0.0835  0.3502
25951SOL     OW83815   2.960   4.085   9.551 -0.2087 -0.0360  0.1828
25951SOL    HW183816   3.050   4.098   9.523 -0.3103  0.9086  0.2765
25951SOL    HW283817   2.936   3.999   9.516  0.7836 -0.3803  0.3224
25952SOL     OW83818   5.344  10.243   0.543 -0.2772  0.2744 -0.2847
25952SOL    HW183819   5.300  10.306   0.485 -0.7418 -0.4647 -0.7561
25952SOL    HW283820   5.277  10.220   0.608 -0.6365 -0.9034 -1.0396
25953SOL     OW83821   6.439   1.100  10.207  0.4547  0.3675  0.6888
25953SOL    HW183822   6.346   1.091  10.228 -0.0264 -1.2471 -1.7944
25953SOL    HW283823   6.441   1.126  10.115  2.4248 -1.4538  0.1253
25954SOL     OW83824   5.625  11.804   2.409  0.0080 -0.2818  0.2853
25954SOL    HW183825   5.611  11.713   2.383  0.1999 -0.3875  0.5489
25954SOL    HW283826   5.689  11.837   2.346 -1.4254  0.2202 -0.9610
25955SOL     OW83827  11.349   7.842  10.788 -0.4313  0.4297  0.7279
25955SOL    HW183828  11.287   7.847  10.715 -0.7967 -0.9301  0.9144
25955SOL    HW283829  11.381   7.932  10.798 -0.9948  0.8101 -0.5590
25956SOL     OW83830  12.457   3.129   9.058  0.1219 -0.1700 -0.3479
25956SOL    HW183831  12.466   3.129   9.153 -0.8702  2.2783 -0.1739
25956SOL    HW283832  12.545   3.150   9.026  0.4030 -0.7423  0.0341
25957SOL     OW83833   8.134  10.020   8.174  0.0752  0.2922  0.6905
25957SOL    HW183834   8.133  10.106   8.133  0.1221 -0.4459 -0.9680
25957SOL    HW283835   8.050  10.014   8.219  0.3976  1.4851  1.4870
25958SOL     OW83836  11.849   7.466   7.295  0.0907 -0.6859  0.5920
25958SOL    HW183837  11.821   7.525   7.365  1.0314  0.0224  0.3860
25958SOL    HW283838  11.900   7.521   7.236  0.8135 -1.6670  0.2821
25959SOL     OW83839   3.656   0.466   4.190  0.0408  0.3012  0.3953
25959SOL    HW183840   3.720   0.402   4.221 -0.0372  0.4197  0.8144
25959SOL    HW283841   3.700   0.550   4.200  0.2631  0.2952 -0.4585
25960SOL     OW83842   9.173   3.933   8.372 -0.1725 -0.2882 -0.1828
25960SOL    HW183843   9.125   4.012   8.349 -0.3456 -0.3254  0.0379
25960SOL    HW283844   9.142   3.912   8.461 -0.7053 -1.0309 -0.5267
25961SOL     OW83845   4.548   7.592   2.421 -0.6079 -0.6893  0.0571
25961SOL    HW183846   4.549   7.500   2.445 -0.8557 -1.6088 -3.0117
25961SOL    HW283847   4.611   7.599   2.349 -1.7425  1.1746 -0.8469
25962SOL     OW83848   5.361   4.876   5.763  0.5709 -0.7032 -0.0424
25962SOL    HW183849   5.301   4.921   5.703 -0.9485 -2.0822  0.3879
25962SOL    HW283850   5.431   4.844   5.706  0.4605  0.1586 -0.6888
25963SOL     OW83851   1.585   3.887   9.683  0.4257  0.1563 -0.6949
25963SOL    HW183852   1.646   3.819   9.708 -0.4802 -1.1059 -1.7700
25963SOL    HW283853   1.510   3.875   9.741  0.4161  0.4989 -0.6305
25964SOL     OW83854   0.475  11.451   2.020 -0.4124 -0.5162  0.0624
25964SOL    HW183855   0.499  11.477   1.931 -0.7397  2.7260  0.7716
25964SOL    HW283856   0.379  11.453   2.020 -0.4154  0.5264  0.6690
25965SOL     OW83857   1.309   0.490   5.998 -0.5016  0.4165 -0.2022
25965SOL    HW183858   1.395   0.451   5.979 -0.8798 -0.8005  0.4754
25965SOL    HW283859   1.314   0.577   5.959  0.1527 -0.5206 -2.3810
25966SOL     OW83860  10.907   8.105  10.772 -0.5434  0.0278 -0.0611
25966SOL    HW183861  10.873   8.169  10.834 -0.0287  0.7457 -0.5078
25966SOL    HW283862  11.001   8.100  10.790 -0.6145 -0.7745  0.1218
25967SOL     OW83863   5.891   7.437   8.244 -0.1557  0.2285  0.2690
25967SOL    HW183864   5.886   7.496   8.169  1.0846 -0.4631 -0.3957
25967SOL    HW283865   5.975   7.456   8.285  0.0003 -0.6463  0.3879
25968SOL     OW83866   8.769   7.052   2.649 -0.0638 -1.0347 -0.2594
25968SOL    HW183867   8.798   7.051   2.740  0.6301  0.4770 -0.4395
25968SOL    HW283868   8.719   7.133   2.640 -0.3745 -1.3116 -1.1496
25969SOL     OW83869   9.202   8.252   7.741  0.0866  0.6648  0.7944
25969SOL    HW183870   9.194   8.332   7.690 -1.6468  0.2059  0.2883
25969SOL    HW283871   9.231   8.186   7.677 -2.3945  0.0169  0.2556
25970SOL     OW83872  12.492   4.184   3.811  0.5668 -0.1231 -0.2697
25970SOL    HW183873  12.408   4.185   3.858  0.2359 -0.5617 -0.8299
25970SOL    HW283874  12.486   4.259   3.751  0.9302  0.3523  0.2823
25971SOL     OW83875   9.535   2.742  12.068 -0.2852 -0.5812 -0.1662
25971SOL    HW183876   9.464   2.768  12.128  0.0322  3.0949 -1.1474
25971SOL    HW283877   9.490   2.722  11.986 -0.3269  2.4220 -0.9984
25972SOL     OW83878  11.053   7.556   0.327  0.3055 -0.5333 -0.2247
25972SOL    HW183879  11.048   7.525   0.237  0.1734  1.5962 -0.9981
25972SOL    HW283880  11.119   7.625   0.325  1.1152 -1.1863  1.5648
25973SOL     OW83881  12.328   0.012  12.228  0.3264  0.2086  0.5929
25973SOL    HW183882  12.240   0.044  12.209 -0.2740 -1.5089  0.3939
25973SOL    HW283883  12.383   0.091  12.222 -0.6545  0.7915 -2.6457
25974SOL     OW83884   7.864   2.354  11.905 -0.0651  0.5307  0.5118
25974SOL    HW183885   7.839   2.272  11.862  0.8791  1.5879 -2.2718
25974SOL    HW283886   7.957   2.343  11.925 -0.1772  0.5680  1.0798
25975SOL     OW83887   4.786   9.609   2.916 -0.1956  0.0313 -0.0029
25975SOL    HW183888   4.802   9.701   2.934  0.9060 -0.3044  0.8062
25975SOL    HW283889   4.866   9.578   2.873 -0.2605 -0.7123  0.3865
25976SOL     OW83890   5.075   1.642   0.936 -0.3503  0.2833 -0.7298
25976SOL    HW183891   5.140   1.642   1.006 -0.2165  3.6364 -0.6833
25976SOL    HW283892   5.124   1.618   0.857  0.4212  0.4469 -0.3036
25977SOL     OW83893   9.535   4.049   0.912  0.4362  0.0368  0.3996
25977SOL    HW183894   9.569   4.105   0.843  0.8694  0.8926  1.2775
25977SOL    HW283895   9.440   4.056   0.906  0.3962 -1.2091 -1.1407
25978SOL     OW83896   8.187   9.278   6.568  0.5109  0.2679 -0.1077
25978SOL    HW183897   8.246   9.244   6.501 -0.0307 -0.7612 -0.0922
25978SOL    HW283898   8.216   9.368   6.582  2.3968 -0.3488  0.2783
25979SOL     OW83899   5.832   0.829   9.310 -0.1140 -0.4692 -0.0252
25979SOL    HW183900   5.805   0.905   9.361  0.0770 -1.0808  1.0003
25979SOL    HW283901   5.824   0.858   9.219 -2.1332  0.0728  0.2711
25980SOL     OW83902   4.507   2.549   6.371 -0.1827  0.1464  0.0020
25980SOL    HW183903   4.493   2.455   6.363  1.3931 -0.0775 -0.5316
25980SOL    HW283904   4.519   2.580   6.281  0.7530  0.5820  0.2554
25981SOL     OW83905  11.944   0.610   4.998  0.2951 -0.0735  0.2229
25981SOL    HW183906  12.020   0.590   4.943 -0.4934  1.7814 -1.6757
25981SOL    HW283907  11.904   0.525   5.015  2.0663 -0.9613  0.1854
25982SOL     OW83908   4.300   3.358   3.588  0.0464 -0.0550 -0.4792
25982SOL    HW183909   4.348   3.276   3.576  0.7463  0.1149  0.9388
25982SOL    HW283910   4.247   3.343   3.667  0.2221  0.8561 -0.1788
25983SOL     OW83911   1.638  10.230   7.830 -0.0018 -0.1729  0.2477
25983SOL    HW183912   1.649  10.291   7.757  1.3433 -1.4362 -0.6632
25983SOL    HW283913   1.629  10.287   7.907 -4.3887  1.3357 -1.0643
25984SOL     OW83914   6.265   2.321  10.457  0.3302 -0.1957 -0.0817
25984SOL    HW183915   6.199   2.375  10.501  0.4401 -0.2732  0.1791
25984SOL    HW283916   6.251   2.233  10.493  1.4694  0.0371  1.0166
25985SOL     OW83917   1.871   7.879   1.002  0.2702  0.5984  0.3243
25985SOL    HW183918   1.949   7.855   1.052 -0.0023  1.4850  1.1824
25985SOL    HW283919   1.901   7.949   0.943  0.4547 -0.0538 -0.3724
25986SOL     OW83920   7.330   6.955   5.955 -0.1211 -0.0696  0.2090
25986SOL    HW183921   7.271   6.935   6.027 -0.6352  0.2000 -0.1370
25986SOL    HW283922   7.326   7.050   5.946  1.3033  0.0945  0.9792
25987SOL     OW83923   5.046   5.299   3.829 -0.1271  0.1800  0.1036
25987SOL    HW183924   5.089   5.308   3.744  1.0027 -1.1869  0.4872
25987SOL    HW283925   5.004   5.214   3.826 -0.0092  0.0791  0.9368
25988SOL     OW83926   9.938   0.299   5.670 -0.5334  0.0541 -0.4056
25988SOL    HW183927   9.886   0.273   5.746 -1.2455 -1.1367 -1.2534
25988SOL    HW283928   9.913   0.390   5.654 -1.9934 -0.3174 -0.4579
25989SOL     OW83929   7.684   1.007   6.516 -0.6235 -0.4082 -0.1300
25989SOL    HW183930   7.602   1.057   6.515 -0.8204 -0.7019  0.8473
25989SOL    HW283931   7.742   1.058   6.572 -0.0294 -0.0563 -1.0442
25990SOL     OW83932  11.430  11.731  10.016 -0.3495  0.5201  0.1539
25990SOL    HW183933  11.499  11.666  10.027  0.6353  1.5521  0.2994
25990SOL    HW283934  11.351  11.680   9.999  0.8724 -0.6435 -2.5211
25991SOL     OW83935  11.427   8.518   9.604  0.0931 -0.7955 -0.2657
25991SOL    HW183936  11.346   8.567   9.617  0.8668  0.0626  1.7614
25991SOL    HW283937  11.429   8.455   9.676  2.1104  0.5253  0.9360
25992SOL     OW83938   5.113   9.731  11.393 -0.0413  0.2448  0.4343
25992SOL    HW183939   5.120   9.756  11.485  0.2139 -0.7383  0.6980
25992SOL    HW283940   5.203   9.726  11.363 -0.1000 -0.1199  0.3203
25993SOL     OW83941  12.251   3.323   9.048 -0.4774 -0.7207  0.0394
25993SOL    HW183942  12.315   3.252   9.050 -1.7609 -1.9268  1.5879
25993SOL    HW283943  12.302   3.403   9.058  0.8924 -1.5293 -0.2915
25994SOL     OW83944   3.807  10.677   2.446 -0.6926 -0.3620 -0.1909
25994SOL    HW183945   3.763  10.725   2.376  0.6349 -0.5115 -1.1466
25994SOL    HW283946   3.775  10.588   2.439  1.2273 -0.9670 -2.2170
25995SOL     OW83947   7.214  10.793  10.166  0.3347 -0.2447  0.5473
25995SOL    HW183948   7.297  10.752  10.190  1.0615  0.9994  0.2814
25995SOL    HW283949   7.240  10.875  10.123 -1.0131 -0.3848 -0.6070
25996SOL     OW83950  11.745  10.564   4.866  0.0993 -0.5757 -0.2795
25996SOL    HW183951  11.703  10.574   4.952 -0.3071 -0.3596 -0.5020
25996SOL    HW283952  11.708  10.483   4.831  1.1617 -1.3236  0.2481
25997SOL     OW83953   5.266  10.884  10.565 -0.3759  0.4759 -0.6066
25997SOL    HW183954   5.181  10.925  10.581 -0.8323 -0.5439 -0.3189
25997SOL    HW283955   5.291  10.848  10.650  0.2760  0.6308 -0.7302
25998SOL     OW83956   4.040  10.293   9.802 -0.5398 -0.9529 -0.4201
25998SOL    HW183957   4.103  10.237   9.757 -0.9547  0.0559 -2.3605
25998SOL    HW283958   4.084  10.319   9.883  1.3836 -0.6279 -1.5061
25999SOL     OW83959   5.843   0.147   5.862 -0.2773 -0.1112  0.2953
25999SOL    HW183960   5.911   0.115   5.802  0.0917 -0.2987  0.8082
25999SOL    HW283961   5.843   0.084   5.934  1.1234  1.5433  1.8113
26000SOL     OW83962   6.485  11.049   5.326  0.2390  0.1622 -0.2997
26000SOL    HW183963   6.464  11.142   5.326 -1.1885 -0.0987 -2.1279
26000SOL    HW283964   6.515  11.031   5.237 -0.9183 -1.3975 -0.4104
26001SOL     OW83965   4.502   7.141   1.284  0.0037 -0.3197 -0.4392
26001SOL    HW183966   4.587   7.097   1.287 -0.0143 -0.3452 -0.2680
26001SOL    HW283967   4.485   7.165   1.375  0.4919  0.9571 -0.6676
26002SOL     OW83968   6.769   4.790  10.925 -0.7568 -0.0841 -0.1903
26002SOL    HW183969   6.846   4.813  10.978 -0.6139 -0.5463 -0.1879
26002SOL    HW283970   6.798   4.804  10.835 -0.5713 -0.5300 -0.2034
26003SOL     OW83971   4.394  11.112  11.584  0.4178  0.1928 -0.3089
26003SOL    HW183972   4.331  11.074  11.645  0.6432 -0.8519 -0.7038
26003SOL    HW283973   4.462  11.046  11.577 -1.2866 -1.4551 -4.4329
26004SOL     OW83974  11.286   8.607   0.735  0.4249 -0.6998  0.5834
26004SOL    HW183975  11.263   8.573   0.822  0.3963  1.4454  1.4841
26004SOL    HW283976  11.210   8.658   0.708  0.3791 -1.4754 -0.7947
26005SOL     OW83977   0.190  11.712   2.603 -0.0008  0.4782 -0.1409
26005SOL    HW183978   0.165  11.785   2.660  0.8591  2.2334 -1.8861
26005SOL    HW283979   0.272  11.680   2.641 -0.4484  0.3292  0.7191
26006SOL     OW83980   0.584   0.447  11.556  0.1312 -0.1970 -0.0128
26006SOL    HW183981   0.508   0.501  11.533 -0.8017 -1.5073 -0.0565
26006SOL    HW283982   0.659   0.506  11.542 -0.9296  1.6981  1.7351
26007SOL     OW83983   7.326   4.213   6.934  0.2130 -0.0674  0.0967
26007SOL    HW183984   7.235   4.186   6.930  0.2642 -0.2162 -0.1389
26007SOL    HW283985   7.375   4.130   6.934  0.2848 -0.1598  3.5194
26008SOL     OW83986   8.282   8.444   3.035  0.2367 -0.9069  0.1006
26008SOL    HW183987   8.254   8.519   2.983  1.6931  0.5889  1.3851
26008SOL    HW283988   8.374   8.431   3.012  1.0969  0.1576  2.5892
26009SOL     OW83989   2.355  11.439   7.937  0.0908 -0.3071  0.1804
26009SOL    HW183990   2.273  11.416   7.894  0.3301  0.2553 -0.6043
26009SOL    HW283991   2.341  11.527   7.971  0.8262  0.3782 -1.2166
26010SOL     OW83992   3.375   6.911   4.118  0.4722  0.2270 -0.9768
26010SOL    HW183993   3.377   7.006   4.128 -0.0546  0.3553 -1.9295
26010SOL    HW283994   3.371   6.877   4.207  0.8994  1.0853 -0.6169
26011SOL     OW83995   7.497  11.866   0.480 -0.1918 -0.4944  0.4457
26011SOL    HW183996   7.564  11.819   0.431  0.3152  1.0427 -0.3992
26011SOL    HW283997   7.434  11.799   0.507  0.4593 -1.6190 -0.7883
26012SOL     OW83998  11.074   9.810   5.328 -0.4378  0.4485 -0.3860
26012SOL    HW183999  11.063   9.876   5.397 -1.0697 -1.6395  1.6051
26012SOL    HW284000  11.168   9.794   5.325 -0.5641 -1.1818  1.8213
26013SOL     OW84001  12.093  10.845  11.793  0.3022  0.3583  0.1282
26013SOL    HW184002  12.117  10.857  11.884 -0.6868  0.5715  0.3795
26013SOL    HW284003  12.076  10.933  11.761 -2.5702  0.1097  0.6982
26014SOL     OW84004   0.237  10.525  11.147  0.3329  0.1563  0.8199
26014SOL    HW184005   0.262  10.490  11.233  1.1060 -0.5938  0.2991
26014SOL    HW284006   0.161  10.580  11.165  0.6441  0.2237  2.0319
26015SOL     OW84007   2.854   8.135   8.239 -0.0193 -0.0343  0.3909
26015SOL    HW184008   2.947   8.157   8.253  0.5398 -0.7984 -1.8266
26015SOL    HW284009   2.849   8.106   8.148 -2.5037  0.1844  0.3949
26016SOL     OW84010   7.413   4.165  12.055  0.2070  0.2264  0.7120
26016SOL    HW184011   7.398   4.192  11.964  0.1846  0.2408  0.7196
26016SOL    HW284012   7.508   4.156  12.062  0.2495  0.7221  0.8277
26017SOL     OW84013   2.364   1.392  12.070 -0.4281 -0.6527  0.4020
26017SOL    HW184014   2.411   1.421  12.149 -0.9310 -0.2247  0.5481
26017SOL    HW284015   2.358   1.471  12.016  0.3808 -1.0639 -0.3125
26018SOL     OW84016   4.920   5.027   6.939  0.6116 -0.3451 -0.1370
26018SOL    HW184017   4.885   4.970   7.007  0.8081  1.5075  1.6003
26018SOL    HW284018   4.976   5.089   6.985  0.1812  1.4480 -1.8805
26019SOL     OW84019   5.915   8.194   3.738 -0.0776  0.3696 -0.0337
26019SOL    HW184020   5.964   8.143   3.674  1.2285  1.1730  0.2851
26019SOL    HW284021   5.847   8.135   3.769  1.4387 -1.2190  0.3846
26020SOL     OW84022  11.330   3.305   5.729 -0.1329 -0.1060  0.4469
26020SOL    HW184023  11.380   3.227   5.756  0.7608  0.7956  1.5180
26020SOL    HW284024  11.286   3.333   5.809 -0.5815  0.3917  0.0253
26021SOL     OW84025   0.274   3.656   8.082  0.4092 -0.5255  0.2996
26021SOL    HW184026   0.355   3.684   8.041 -0.0420 -0.1940 -0.3803
26021SOL    HW284027   0.276   3.694   8.170 -0.5843  2.4795 -0.8462
26022SOL     OW84028   9.484   5.994   6.302 -0.6991 -0.1759  1.0087
26022SOL    HW184029   9.417   5.985   6.234 -1.1822 -0.7923  1.5564
26022SOL    HW284030   9.437   5.979   6.384 -0.2027  0.9448  1.5250
26023SOL     OW84031   6.613   7.162   4.635 -0.1518 -0.1875 -0.1392
26023SOL    HW184032   6.682   7.217   4.597  0.7027 -2.0977 -1.4959
26023SOL    HW284033   6.533   7.193   4.593  0.3146  0.0179 -0.9057
26024SOL     OW84034   8.430   6.116   4.922 -0.3362 -0.5007  0.0623
26024SOL    HW184035   8.402   6.178   4.854  0.9102 -1.7017 -1.6373
26024SOL    HW284036   8.378   6.038   4.906 -1.1010 -0.3155  1.4875
26025SOL     OW84037   2.439   3.250   2.269 -0.0296 -0.5291 -0.1331
26025SOL    HW184038   2.484   3.244   2.185  0.3969 -0.5312  0.0897
26025SOL    HW284039   2.506   3.224   2.333 -0.0766  0.3770  0.2890
26026SOL     OW84040   8.188  11.477   1.398  0.1695  0.6872  0.1680
26026SOL    HW184041   8.224  11.561   1.426  1.7511  0.3788 -0.8543
26026SOL    HW284042   8.178  11.485   1.303 -0.6235  0.0525  0.1856
26027SOL     OW84043   3.461   4.032   3.899 -0.0729 -0.7240 -0.0766
26027SOL    HW184044   3.510   4.077   3.968 -1.8279 -1.8287  2.0240
26027SOL    HW284045   3.429   4.102   3.843  1.4175  0.2126  0.1864
26028SOL     OW84046   3.100  10.201   7.822 -0.9393  0.2797  0.2571
26028SOL    HW184047   3.166  10.234   7.883 -0.4186 -0.4446  0.0990
26028SOL    HW284048   3.058  10.129   7.869 -0.6648 -0.1567 -0.1600
26029SOL     OW84049   0.749  11.924   7.172 -0.8288  0.1137  0.2785
26029SOL    HW184050   0.837  11.926   7.136 -1.8447 -0.5987 -2.4408
26029SOL    HW284051   0.720  11.834   7.161 -1.5681  0.0709  2.1486
26030SOL     OW84052   7.732   0.207   4.105  0.8347  0.2263 -0.0133
26030SOL    HW184053   7.650   0.201   4.153  0.8834  0.3290  0.0825
26030SOL    HW284054   7.707   0.193   4.013  0.6821  0.4728 -0.0082
26031SOL     OW84055   4.620  11.193   7.035  0.2998  0.0269  0.2954
26031SOL    HW184056   4.574  11.152   6.961 -0.5840  0.2668  0.6907
26031SOL    HW284057   4.711  11.166   7.025  0.0929 -0.3993 -0.5674
26032SOL     OW84058   9.847   7.178   9.158 -0.6088  0.2198 -0.2306
26032SOL    HW184059   9.794   7.252   9.189 -0.3099 -0.2235  1.4870
26032SOL    HW284060   9.932   7.216   9.136  0.4294  0.1831  3.0736
26033SOL     OW84061   2.753  12.391  11.856 -0.1753 -0.0732 -0.0273
26033SOL    HW184062   2.754  12.323  11.789 -0.4476  0.1225 -0.2337
26033SOL    HW284063   2.820  12.364  11.919  1.9461  1.0672 -1.6868
26034SOL     OW84064   2.069   7.060   1.632 -0.0485 -0.8231 -0.0144
26034SOL    HW184065   2.065   7.068   1.727  0.8251 -2.3585  0.1904
26034SOL    HW284066   1.978   7.054   1.604 -0.4756  2.1756  0.4167
26035SOL     OW84067   5.609   9.974  10.180 -0.3375 -0.6975  0.7058
26035SOL    HW184068   5.657   9.960  10.098 -1.4405  0.2754 -0.1614
26035SOL    HW284069   5.672   9.956  10.249  1.7159  1.7107 -0.3568
26036SOL     OW84070  10.559   6.377  12.231 -0.2907 -0.5287  0.1637
26036SOL    HW184071  10.616   6.362  12.155 -1.4608  0.0394 -0.8779
26036SOL    HW284072  10.607   6.439  12.286 -0.4382  1.0372 -1.3745
26037SOL     OW84073   2.133   3.345   6.229  0.1194 -0.1153 -0.1081
26037SOL    HW184074   2.046   3.384   6.219  0.3027 -0.0158 -1.5425
26037SOL    HW284075   2.194   3.416   6.207  0.5019 -0.6588 -0.8509
26038SOL     OW84076   3.160   3.709   0.594  0.3312  0.2018 -0.3815
26038SOL    HW184077   3.228   3.643   0.578  2.3690  1.6021  1.8648
26038SOL    HW284078   3.085   3.659   0.625  0.1062 -1.4235 -3.1536
26039SOL     OW84079   6.727   2.626   5.286 -0.3814 -0.0348  0.1822
26039SOL    HW184080   6.743   2.589   5.199 -0.4859 -0.8366  0.4982
26039SOL    HW284081   6.651   2.579   5.319  1.4370 -1.9576  1.9348
26040SOL     OW84082   4.536  10.557  11.495 -0.3184  0.1992 -0.2464
26040SOL    HW184083   4.598  10.525  11.560  0.3325 -0.5496 -1.2202
26040SOL    HW284084   4.461  10.587  11.547  0.1941 -0.3490  0.8490
26041SOL     OW84085   7.298   4.988   0.656  1.0592 -0.6564 -0.3231
26041SOL    HW184086   7.223   5.022   0.607  0.8140 -2.8818 -1.6419
26041SOL    HW284087   7.325   4.910   0.607  2.5708 -1.4263  1.6055
26042SOL     OW84088   3.211   9.210  12.065  0.4542  0.4545 -0.1238
26042SOL    HW184089   3.259   9.149  12.009  0.7247  0.2753  0.2998
26042SOL    HW284090   3.252   9.295  12.048  0.3186  0.4598 -0.4399
26043SOL     OW84091   7.705   8.867   4.444  0.1488 -0.0841 -0.4384
26043SOL    HW184092   7.787   8.911   4.468  1.0988 -1.3390 -1.2326
26043SOL    HW284093   7.665   8.926   4.379  0.5014  0.4650 -0.1659
26044SOL     OW84094   4.421   9.897   3.541 -0.1968  0.1394 -0.4745
26044SOL    HW184095   4.408   9.869   3.632  1.4638  0.7642 -0.0047
26044SOL    HW284096   4.398   9.820   3.489  0.2441 -0.7157  0.5549
26045SOL     OW84097   6.146   7.141  11.290 -0.1451 -0.3345 -0.0860
26045SOL    HW184098   6.220   7.096  11.248  0.9841  0.9100  0.4679
26045SOL    HW284099   6.181   7.168  11.375 -0.6609  1.7912 -0.4948
26046SOL     OW84100  11.504  11.622  11.350  0.2638 -0.2470 -0.0155
26046SOL    HW184101  11.495  11.531  11.378 -0.8188  0.0759  0.7938
26046SOL    HW284102  11.456  11.627  11.268 -0.9951 -0.1169  0.6883
26047SOL     OW84103   8.920  10.675   5.570 -0.0435  0.1037  0.1245
26047SOL    HW184104   8.985  10.745   5.575 -0.3031  0.4100 -0.5928
26047SOL    HW284105   8.893  10.661   5.661  0.8734  0.1000  0.4068
26048SOL     OW84106  12.487  12.103   6.862 -0.5047  0.5071 -0.6310
26048SOL    HW184107  12.539  12.044   6.808 -1.5915 -0.5726 -0.5489
26048SOL    HW284108  12.474  12.181   6.807 -1.5921 -0.5655 -1.9665
26049SOL     OW84109   4.784   0.584   2.895  0.0082  0.7037 -0.5919
26049SOL    HW184110   4.807   0.677   2.891 -0.2035  0.7179 -1.7775
26049SOL    HW284111   4.866   0.539   2.914  0.1222  1.1163 -0.0726
26050SOL     OW84112   1.990  10.826   1.318 -0.1656  0.0038  0.0961
26050SOL    HW184113   2.053  10.824   1.390  0.8611 -0.0505 -0.7721
26050SOL    HW284114   2.044  10.836   1.239 -1.3910  2.3740 -0.5105
26051SOL     OW84115   4.884   2.802   4.669 -1.0117  0.5016  0.4074
26051SOL    HW184116   4.845   2.724   4.706 -0.0476  1.0396  2.7339
26051SOL    HW284117   4.916   2.775   4.583 -3.3453 -0.8119 -0.1178
26052SOL     OW84118   1.739   7.950   7.710  0.1233 -0.0002 -0.1719
26052SOL    HW184119   1.821   7.945   7.661 -0.3210 -0.8415 -0.8642
26052SOL    HW284120   1.694   7.867   7.690 -0.4523  0.0068  0.9910
26053SOL     OW84121   3.222  11.884   6.849 -0.1861  0.3779  0.2052
26053SOL    HW184122   3.157  11.944   6.811  0.3677  0.2143 -1.0870
26053SOL    HW284123   3.274  11.940   6.907  0.1190  1.1007 -0.7297
26054SOL     OW84124   4.892   0.532   8.636  0.2443 -0.0387 -0.1671
26054SOL    HW184125   4.902   0.625   8.660 -0.2282 -0.0644  0.1269
26054SOL    HW284126   4.950   0.521   8.561 -0.9705  0.9179 -1.2845
26055SOL     OW84127  12.350   4.073   5.617 -0.1726  0.3195  0.1024
26055SOL    HW184128  12.275   4.025   5.651 -0.4255 -1.6546 -2.8354
26055SOL    HW284129  12.420   4.008   5.614  1.3918  1.8502  1.7797
26056SOL     OW84130   9.647   0.770   5.457 -0.0525  0.0165 -0.2663
26056SOL    HW184131   9.607   0.853   5.430 -0.0437 -0.0031 -0.3406
26056SOL    HW284132   9.670   0.783   5.549 -0.9655 -0.2573  0.0051
26057SOL     OW84133   1.355   3.298   6.716 -0.5651 -0.3338  0.2585
26057SOL    HW184134   1.444   3.313   6.684 -1.7775 -0.2484 -3.5010
26057SOL    HW284135   1.323   3.385   6.738 -0.5978  0.0051 -1.0567
26058SOL     OW84136  10.511   6.115   3.910  0.4972 -0.0554 -0.2363
26058SOL    HW184137  10.576   6.046   3.901  0.4297 -0.0505 -0.8124
26058SOL    HW284138  10.428   6.073   3.888  0.4785  0.2428 -0.7729
26059SOL     OW84139   4.153   3.510   4.861  0.1774  0.4393 -0.7712
26059SOL    HW184140   4.219   3.519   4.931 -1.5503 -0.5124  1.0982
26059SOL    HW284141   4.074   3.483   4.907 -1.3596  0.8526 -3.0263
26060SOL     OW84142   2.410   3.094  12.447 -0.0209  0.2303 -0.0421
26060SOL    HW184143   2.377   3.146  12.520 -4.4378 -0.0061 -1.5130
26060SOL    HW284144   2.432   3.159  12.380  0.9651  0.3618  0.4067
26061SOL     OW84145   2.519   9.442   2.081  0.2087 -0.3483 -0.1177
26061SOL    HW184146   2.571   9.362   2.072  0.2033 -0.1963 -1.9932
26061SOL    HW284147   2.490   9.442   2.172  0.4006 -2.3608 -0.0106
26062SOL     OW84148   4.428  11.558   2.131 -0.2127  0.0078 -0.3091
26062SOL    HW184149   4.389  11.644   2.114 -0.1670 -0.2264 -1.7327
26062SOL    HW284150   4.362  11.511   2.181  0.1363  1.1811  1.3212
26063SOL     OW84151  11.962   4.275  11.853  0.6505 -0.0490  1.0749
26063SOL    HW184152  12.043   4.230  11.876  0.7800 -0.2111  0.3489
26063SOL    HW284153  11.971   4.294  11.760 -0.3805 -0.5951  0.8397
26064SOL     OW84154  12.317   0.379   8.510 -0.2264 -0.3579  0.0535
26064SOL    HW184155  12.378   0.356   8.580 -1.6451 -0.0429  1.4593
26064SOL    HW284156  12.244   0.422   8.555 -1.0323  0.1661 -1.6722
26065SOL     OW84157   9.374   0.473   2.750  0.1978 -0.4481  0.3637
26065SOL    HW184158   9.434   0.400   2.768  1.5655  0.5593  0.0282
26065SOL    HW284159   9.371   0.521   2.832 -0.7450 -0.8965  0.5998
26066SOL     OW84160   4.740   3.750   9.961 -0.0366 -0.7264  0.2395
26066SOL    HW184161   4.753   3.749  10.056 -1.7750 -0.8748  0.5122
26066SOL    HW284162   4.737   3.843   9.939  1.0505 -0.6880  0.2070
26067SOL     OW84163   7.054   5.707  10.254 -0.1391  0.5847  0.1427
26067SOL    HW184164   7.106   5.748  10.186  0.2619  0.6056  0.4598
26067SOL    HW284165   6.971   5.685  10.211  0.3199  0.0721 -0.4985
26068SOL     OW84166   2.598   4.867   3.745 -0.0934 -0.5200 -0.1331
26068SOL    HW184167   2.512   4.852   3.705  0.0883  0.0576 -0.7585
26068SOL    HW284168   2.626   4.780   3.774 -0.0502 -1.0484 -1.6604
26069SOL     OW84169   4.250  11.899   1.029 -0.3128  0.1741  0.1395
26069SOL    HW184170   4.230  11.992   1.015 -0.3379 -0.1742 -2.8231
26069SOL    HW284171   4.264  11.864   0.941  0.2205 -2.5469  1.1991
26070SOL     OW84172  12.097  10.564   0.669  0.1767  0.5138 -0.2292
26070SOL    HW184173  12.009  10.601   0.665  0.7430  1.8031 -1.3785
26070SOL    HW284174  12.087  10.474   0.638 -1.1894 -0.3554  2.4324
26071SOL     OW84175  11.545   4.720   6.969 -0.0951 -0.1924  0.4236
26071SOL    HW184176  11.484   4.696   6.899  0.2928  0.3203 -0.0946
26071SOL    HW284177  11.496   4.781   7.024 -0.4155 -0.6325  0.6325
26072SOL     OW84178  10.991  10.576   4.543 -0.4017  0.1365 -0.2043
26072SOL    HW184179  10.936  10.635   4.492  0.9498  2.5044  0.9100
26072SOL    HW284180  11.080  10.598   4.516  0.1805 -0.7081  0.9712
26073SOL     OW84181   9.540   6.410   0.764  0.3539  0.3910 -0.1964
26073SOL    HW184182   9.570   6.406   0.673 -0.1709  0.5274 -0.3782
26073SOL    HW284183   9.465   6.469   0.761  0.5449  0.6646  0.3853
26074SOL     OW84184   6.825   7.128  10.941  0.1507  0.4315 -0.0766
26074SOL    HW184185   6.912   7.111  10.905  0.1999  0.3845  0.0674
26074SOL    HW284186   6.778   7.045  10.928  0.9095 -0.4208  2.1847
26075SOL     OW84187   3.789   2.820   5.644  0.7573  0.0314  0.9539
26075SOL    HW184188   3.768   2.805   5.551 -1.1447  1.2978  1.1368
26075SOL    HW284189   3.836   2.740   5.670 -3.4200 -2.9991  0.2918
26076SOL     OW84190  10.380   6.964   7.457  0.1150  0.2274 -0.3478
26076SOL    HW184191  10.439   6.890   7.473  0.2388  0.4273  0.1281
26076SOL    HW284192  10.292   6.928   7.465  0.1749  0.2432  0.4148
26077SOL     OW84193   3.991   1.386   7.412 -0.1156 -0.3032  0.3794
26077SOL    HW184194   4.018   1.339   7.333 -2.2475 -0.0791 -0.5382
26077SOL    HW284195   4.039   1.468   7.408 -4.3863  2.5344 -4.1088
26078SOL     OW84196   5.924   1.277   4.662  0.0548 -0.1872 -0.0516
26078SOL    HW184197   5.867   1.277   4.585  1.4631 -1.0331 -1.1361
26078SOL    HW284198   5.960   1.189   4.665 -2.1318 -1.1703  3.2989
26079SOL     OW84199   0.128   5.259   3.513 -0.3790 -0.4318  0.2693
26079SOL    HW184200   0.170   5.231   3.594 -1.3652  0.0447  0.9578
26079SOL    HW284201   0.045   5.210   3.510 -0.5694 -0.0913 -0.2127
26080SOL     OW84202   7.811   9.549   6.636  0.0248 -0.4181 -0.9631
26080SOL    HW184203   7.873   9.569   6.706  1.0492  0.7739 -2.1577
26080SOL    HW284204   7.811   9.454   6.631  1.2352 -0.4683 -0.4631
26081SOL     OW84205   0.424   9.213  11.945  0.4613  0.1824 -0.1952
26081SOL    HW184206   0.508   9.178  11.916  0.3691  0.7353 -1.1540
26081SOL    HW284207   0.446   9.287  12.002  0.6262  0.0839 -0.1317
26082SOL     OW84208   2.561   5.122   7.732  0.0942  0.6397 -0.1324
26082SOL    HW184209   2.576   5.167   7.814  1.8764 -0.7234  0.3600
26082SOL    HW284210   2.633   5.059   7.725 -0.6515 -0.0983 -2.1674
26083SOL     OW84211  10.924   1.019  11.904  0.0307  0.4148 -0.6456
26083SOL    HW184212  10.846   1.073  11.889 -0.1279 -0.1499 -2.0985
26083SOL    HW284213  10.890   0.929  11.907  0.6024  0.1711 -1.2184
26084SOL     OW84214   9.339   1.102   9.675  0.1948  0.4789  0.5195
26084SOL    HW184215   9.330   1.186   9.630  1.6365 -0.0814 -0.9249
26084SOL    HW284216   9.253   1.061   9.668 -0.9528  2.3744  2.5097
26085SOL     OW84217   0.194   1.582   8.093 -0.1995  0.0978  0.3950
26085SOL    HW184218   0.211   1.586   7.999  0.1768  0.8515  0.4896
26085SOL    HW284219   0.103   1.553   8.099 -1.2047  2.8296 -0.2855
26086SOL     OW84220   0.922   6.721   6.876 -0.5642 -0.3024  0.2099
26086SOL    HW184221   0.828   6.705   6.870 -0.4859 -0.4885 -0.6069
26086SOL    HW284222   0.952   6.725   6.786  0.6280 -2.6386  0.4194
26087SOL     OW84223   4.987  11.324  11.632  0.1816  0.9082  0.2916
26087SOL    HW184224   5.064  11.313  11.688  0.5816  0.2988 -0.3496
26087SOL    HW284225   4.935  11.245  11.648  0.1046  0.9207  0.0995
26088SOL     OW84226  10.073   0.181  10.733 -0.2717  0.2151  0.1942
26088SOL    HW184227  10.028   0.096  10.731  0.4523 -0.1732 -0.4639
26088SOL    HW284228  10.166   0.158  10.730 -0.0883  1.0609 -1.7383
26089SOL     OW84229   9.711   8.939  11.755  0.4726 -0.1104  0.4409
26089SOL    HW184230   9.738   8.982  11.673  0.4952 -0.3419  0.3266
26089SOL    HW284231   9.774   8.971  11.820 -0.5548  1.4095  0.7428
26090SOL     OW84232   6.774   8.626  12.126 -0.2555  0.4295 -0.5978
26090SOL    HW184233   6.707   8.559  12.113  0.4309 -1.0711  2.6906
26090SOL    HW284234   6.725   8.702  12.159 -0.5582 -0.0297  0.0370
26091SOL     OW84235   9.982  10.710  12.258  0.2190  0.0494 -0.2942
26091SOL    HW184236   9.987  10.674  12.347 -1.0914  2.5905  0.9152
26091SOL    HW284237  10.056  10.770  12.253 -0.0532  0.3429 -0.7295
26092SOL     OW84238   4.737   6.888  11.247  0.7159  0.7276  0.9917
26092SOL    HW184239   4.807   6.952  11.259  2.0969 -0.5738  0.3440
26092SOL    HW284240   4.782   6.803  11.250 -0.8505 -0.1654  0.5644
26093SOL     OW84241   2.520  11.585   4.646 -0.5942  0.5012  0.2556
26093SOL    HW184242   2.467  11.639   4.586  1.2955  1.2608 -0.8251
26093SOL    HW284243   2.594  11.641   4.668  2.7797 -2.2497 -2.7872
26094SOL     OW84244   5.375   5.877  12.043 -0.0621 -0.1727 -0.0453
26094SOL    HW184245   5.470   5.874  12.029 -0.2863 -1.7501 -1.5764
26094SOL    HW284246   5.340   5.925  11.968 -0.4775  0.7179  0.6926
26095SOL     OW84247   0.272   4.906   3.170  0.0472 -0.3168 -0.2066
26095SOL    HW184248   0.251   4.999   3.164 -0.7092 -0.3847  1.0795
26095SOL    HW284249   0.351   4.902   3.224 -0.5523 -0.4704  0.6809
26096SOL     OW84250   3.380   6.433   9.580 -0.2182  0.4205  0.0202
26096SOL    HW184251   3.350   6.442   9.670 -0.4904  2.6462 -0.2514
26096SOL    HW284252   3.312   6.474   9.527  0.8260  0.8623 -1.0325
26097SOL     OW84253  11.688   1.513  12.450 -0.7517  0.1262 -0.1510
26097SOL    HW184254  11.615   1.562  12.489 -0.7661 -0.0040 -0.0118
26097SOL    HW284255  11.695   1.434  12.503 -0.3502  0.2539 -0.0046
26098SOL     OW84256  11.320  11.373  11.574  0.0661  0.2223 -0.2328
26098SOL    HW184257  11.309  11.466  11.558 -0.3504  0.0387 -1.0742
26098SOL    HW284258  11.291  11.360  11.665  1.5249  1.1332  0.3937
26099SOL     OW84259  12.299  10.418   7.518  0.4423  0.6584 -0.3062
26099SOL    HW184260  12.269  10.444   7.431 -1.6855  0.5143  0.3264
26099SOL    HW284261  12.312  10.501   7.564 -0.3771  0.7231 -0.1728
26100SOL     OW84262  12.191   9.264   9.497 -0.0195  0.5947  0.6725
26100SOL    HW184263  12.216   9.174   9.518  1.3933  0.4420 -1.3635
26100SOL    HW284264  12.097   9.258   9.480 -0.5694  0.1409  3.4007
26101SOL     OW84265   0.860   9.433   1.860  0.0217 -0.1498  0.0117
26101SOL    HW184266   0.836   9.436   1.767 -0.8671  2.1900  0.2330
26101SOL    HW284267   0.919   9.359   1.867  1.5260  0.6331 -2.7823
26102SOL     OW84268   0.285   2.663   4.162  1.1849 -0.5706 -0.0841
26102SOL    HW184269   0.308   2.693   4.074 -0.7441 -1.2150 -0.8689
26102SOL    HW284270   0.242   2.578   4.148  0.1760 -0.3447  1.3903
26103SOL     OW84271   7.477   1.845   6.541  0.5006  0.0641 -0.3781
26103SOL    HW184272   7.473   1.935   6.573 -0.4677 -0.2797  0.5412
26103SOL    HW284273   7.570   1.826   6.534  0.7445  0.5915  1.0461
26104SOL     OW84274   0.973   6.318   7.392  0.5147  0.6824 -0.6155
26104SOL    HW184275   0.908   6.251   7.368  1.3097 -1.1062  1.8387
26104SOL    HW284276   0.923   6.399   7.395 -0.6943  0.0984 -2.7667
26105SOL     OW84277  10.548   0.932   3.566 -0.3275  0.1267 -0.6216
26105SOL    HW184278  10.481   0.881   3.520 -0.4885 -1.4102  1.1651
26105SOL    HW284279  10.631   0.903   3.528 -0.3988 -1.7544  0.5276
26106SOL     OW84280   9.603   5.122   5.393 -0.1898 -0.3819 -0.6849
26106SOL    HW184281   9.679   5.171   5.361  0.1225  0.1961  0.8707
26106SOL    HW284282   9.600   5.045   5.337  2.8920 -1.5488  0.4879
26107SOL     OW84283   9.188   2.334   1.090 -0.1539  0.2783  0.1099
26107SOL    HW184284   9.155   2.244   1.098  1.0054 -0.0281  2.1347
26107SOL    HW284285   9.249   2.331   1.017 -0.6069 -0.4119 -0.2505
26108SOL     OW84286   0.414   1.143  10.691 -0.5045 -0.1133 -0.1164
26108SOL    HW184287   0.349   1.197  10.646  0.6914  2.4424  0.9880
26108SOL    HW284288   0.495   1.159  10.643  0.1503  0.1938  1.0696
26109SOL     OW84289  10.622   2.776  11.505  0.1075  0.2235  0.5322
26109SOL    HW184290  10.564   2.701  11.498 -0.7010  0.7858  1.0769
26109SOL    HW284291  10.678   2.756  11.580  0.1859 -0.0212  0.4108
26110SOL     OW84292  11.177  10.278   9.107 -0.4161  0.4305 -0.5907
26110SOL    HW184293  11.159  10.239   9.021  0.2425  2.0361 -1.5100
26110SOL    HW284294  11.120  10.354   9.111 -1.2894 -0.2729  0.9342
26111SOL     OW84295   5.052   6.948  12.211  0.1052  0.1266 -0.1690
26111SOL    HW184296   5.052   6.907  12.298 -0.2836 -0.0548 -0.2496
26111SOL    HW284297   5.059   6.874  12.150 -1.2037  0.1040 -0.3363
26112SOL     OW84298   5.563   0.796   5.202  0.1124 -0.2092 -0.2080
26112SOL    HW184299   5.504   0.841   5.263  0.0035  1.0422 -1.1951
26112SOL    HW284300   5.520   0.712   5.186 -0.2513 -0.2374  0.8214
26113SOL     OW84301   7.788   5.984   8.430 -0.0964 -0.8886  0.5247
26113SOL    HW184302   7.728   6.031   8.489  0.3760 -0.0451  0.3478
26113SOL    HW284303   7.873   6.024   8.446 -0.1969  0.4312 -1.7916
26114SOL     OW84304   7.504   0.226   0.544  0.3840 -0.5031  0.4211
26114SOL    HW184305   7.414   0.238   0.514  0.9880  0.6488 -1.0667
26114SOL    HW284306   7.557   0.246   0.467  1.9703  0.6691  1.7706
26115SOL     OW84307   1.064   4.266   7.715 -0.3541  0.1729 -0.6732
26115SOL    HW184308   0.986   4.319   7.699 -0.5118 -0.5363 -2.5367
26115SOL    HW284309   1.133   4.310   7.664  0.1358  0.0331 -0.1373
26116SOL     OW84310   6.572   2.735   5.045  0.5263  0.2361  0.0205
26116SOL    HW184311   6.640   2.711   4.981  0.1442 -0.5735 -0.0956
26116SOL    HW284312   6.587   2.828   5.062 -0.2511  0.8754 -2.3501
26117SOL     OW84313   2.778  12.274   6.139  0.0773 -0.5360 -0.0654
26117SOL    HW184314   2.843  12.225   6.189 -0.4886 -1.5823 -0.3380
26117SOL    HW284315   2.717  12.307   6.205  0.1148 -0.7265  0.0651
26118SOL     OW84316   8.590   7.300   9.230  0.0268 -0.1875 -0.3750
26118SOL    HW184317   8.526   7.301   9.158  0.1637 -1.5672 -0.5360
26118SOL    HW284318   8.579   7.214   9.270  0.8230  0.1018  0.4846
26119SOL     OW84319   1.468   9.448   0.721  0.0292 -0.4552 -0.1325
26119SOL    HW184320   1.557   9.414   0.731 -0.7234 -3.0084 -1.3524
26119SOL    HW284321   1.459   9.512   0.792  2.1922 -1.5443  1.2271
26120SOL     OW84322   5.700  12.214   2.096 -0.2923  0.2987 -0.2819
26120SOL    HW184323   5.752  12.269   2.037  1.2506  0.1646  0.8944
26120SOL    HW284324   5.615  12.207   2.053  1.0339 -0.6118 -3.0044
26121SOL     OW84325  10.311   9.631   2.398  0.4890 -0.5293 -0.1745
26121SOL    HW184326  10.236   9.691   2.401  0.4408 -0.4376 -2.0439
26121SOL    HW284327  10.276   9.549   2.432 -0.1443 -0.1784  0.0552
26122SOL     OW84328   5.087   2.572   4.598  0.1654  0.1584 -0.0201
26122SOL    HW184329   5.154   2.535   4.540  2.0150  0.3458  1.8756
26122SOL    HW284330   5.004   2.539   4.563  1.4333 -2.5723 -0.7123
26123SOL     OW84331   5.622   8.315   6.086 -0.2248 -0.1374  0.2766
26123SOL    HW184332   5.542   8.346   6.045 -0.8109  0.4859  1.8217
26123SOL    HW284333   5.659   8.254   6.022 -0.8490  1.0974 -1.3322
26124SOL     OW84334   3.030   3.909   0.433  0.2478  0.0252 -0.1168
26124SOL    HW184335   3.052   3.848   0.503 -0.4014 -1.0163 -0.8083
26124SOL    HW284336   3.050   3.995   0.470  0.8353 -0.5701  0.9955
26125SOL     OW84337   8.676  10.106   1.545  0.1869 -0.3290  0.2541
26125SOL    HW184338   8.588  10.101   1.507  0.1461  0.5345  0.2153
26125SOL    HW284339   8.661  10.114   1.640  0.2650 -1.4261  0.3756
26126SOL     OW84340   6.342   3.883   6.354 -0.3390 -0.0035  0.6293
26126SOL    HW184341   6.418   3.883   6.296 -1.3082 -0.2880 -0.6964
26126SOL    HW284342   6.364   3.945   6.423  0.3077  1.4377 -0.8132
26127SOL     OW84343   0.550   9.078   9.904  0.2240 -0.1187  0.4186
26127SOL    HW184344   0.619   9.095   9.968  1.4182  1.0674 -1.0987
26127SOL    HW284345   0.519   8.990   9.925  2.5826 -0.9246  0.8823
26128SOL     OW84346  10.734  10.669  12.317 -0.1314 -0.0755 -0.5094
26128SOL    HW184347  10.714  10.650  12.226 -1.0263  0.1603 -0.3765
26128SOL    HW284348  10.653  10.646  12.364  0.1156  0.3586  0.1379
26129SOL     OW84349   7.771   4.477   3.754 -0.1250  0.2631  1.0981
26129SOL    HW184350   7.793   4.495   3.662  2.3726  0.2888  1.6277
26129SOL    HW284351   7.693   4.423   3.750 -0.3280  0.6252 -1.0286
26130SOL     OW84352   3.198  11.514  12.155 -0.0343  0.0512 -0.3593
26130SOL    HW184353   3.182  11.429  12.197 -2.0133  0.5907  0.0410
26130SOL    HW284354   3.283  11.541  12.189 -0.3517 -0.7860  1.1827
26131SOL     OW84355   2.997   5.435   0.465 -0.0565  0.0998 -0.7136
26131SOL    HW184356   3.053   5.466   0.394  0.6636  0.3318 -0.0599
26131SOL    HW284357   3.053   5.436   0.543 -1.0500  0.6370  0.0281
26132SOL     OW84358   7.777   5.239   3.944 -0.2358 -0.3330  0.6345
26132SOL    HW184359   7.792   5.268   3.854  1.0170 -0.0837  0.9115
26132SOL    HW284360   7.683   5.252   3.957 -0.1161  1.4771  0.0036
26133SOL     OW84361   3.059   8.712   4.078 -0.2597 -0.1314  0.2628
26133SOL    HW184362   3.005   8.773   4.128 -1.2946 -0.8687  0.0759
26133SOL    HW284363   2.999   8.642   4.053  1.1236 -1.8968  1.5579
26134SOL     OW84364  11.987   1.388  10.729  0.2418  0.9573 -0.6402
26134SOL    HW184365  11.979   1.349  10.643 -0.4227  1.1586 -0.6760
26134SOL    HW284366  11.972   1.316  10.790  3.4267  0.2051 -0.6251
26135SOL     OW84367   2.128   6.671   1.288 -0.2366  0.5765 -0.2810
26135SOL    HW184368   2.072   6.597   1.312  0.5647  0.5851  1.8069
26135SOL    HW284369   2.183   6.638   1.217 -1.0679 -0.2545 -0.5632
26136SOL     OW84370  12.365   9.833   0.206 -0.0348  0.3052 -0.7812
26136SOL    HW184371  12.316   9.914   0.196 -1.9834 -0.5022  1.4249
26136SOL    HW284372  12.421   9.848   0.282  0.1195 -0.2055 -0.7896
26137SOL     OW84373  10.782   3.984  10.319  0.6715 -0.3287 -0.3957
26137SOL    HW184374  10.766   4.048  10.388  0.3853  0.9945 -1.6351
26137SOL    HW284375  10.872   4.002  10.290  1.0751 -1.4068  0.1489
26138SOL     OW84376   2.307   7.372   0.478  0.0241  0.4701  0.7144
26138SOL    HW184377   2.360   7.415   0.411 -0.3329 -1.3250 -0.8267
26138SOL    HW284378   2.248   7.315   0.428 -1.3321  0.2104  2.5109
26139SOL     OW84379   4.215   2.592  10.767 -0.1315  0.5411  0.2536
26139SOL    HW184380   4.258   2.527  10.713  0.2208  0.8308  0.1785
26139SOL    HW284381   4.132   2.610  10.722  0.2282  0.8941 -0.2758
26140SOL     OW84382   9.793   2.985  11.449  0.2953 -0.2190 -0.5125
26140SOL    HW184383   9.709   3.016  11.482 -0.1039 -1.3347 -0.4149
26140SOL    HW284384   9.851   3.061  11.453 -0.6987  0.5597 -0.5574
26141SOL     OW84385   8.288   2.913   2.079  0.1376  0.4618  0.0221
26141SOL    HW184386   8.218   2.965   2.038 -0.3849 -0.3094 -0.0790
26141SOL    HW284387   8.355   2.906   2.011 -1.6463 -2.6953 -1.6231
26142SOL     OW84388   4.068   1.515  12.323  0.0082 -0.0542 -0.3287
26142SOL    HW184389   4.038   1.596  12.281 -0.5715  0.5224  1.1154
26142SOL    HW284390   4.013   1.447  12.285 -1.6052  0.6743  0.6092
26143SOL     OW84391   3.102   6.838   5.548  0.0154  0.0113  0.4267
26143SOL    HW184392   3.187   6.794   5.557 -0.0740  0.0985  1.9536
26143SOL    HW284393   3.041   6.767   5.529  0.4729  0.0034 -1.1877
26144SOL     OW84394   7.244   9.595   4.230  0.1952  0.0234  0.1971
26144SOL    HW184395   7.234   9.500   4.223  3.7126 -0.3859 -1.2439
26144SOL    HW284396   7.217   9.628   4.145 -0.4277  0.2588  0.4837
26145SOL     OW84397   7.078   8.888  12.069 -0.1091 -0.0456  0.3123
26145SOL    HW184398   7.107   8.860  12.155 -0.7716 -0.0289  0.5454
26145SOL    HW284399   6.995   8.934  12.085 -1.2656 -1.7325 -0.5316
26146SOL     OW84400   1.578   0.472  10.558 -0.5451  0.7914  0.6309
26146SOL    HW184401   1.655   0.517  10.523 -0.6679  1.9198  1.7406
26146SOL    HW284402   1.611   0.419  10.631 -0.4856 -0.5582 -0.3375
26147SOL     OW84403   4.849   8.722   9.252 -0.0675  0.2169 -0.2569
26147SOL    HW184404   4.788   8.788   9.286 -0.1114 -0.0364  0.1745
26147SOL    HW284405   4.794   8.663   9.201 -0.1558  0.0880 -0.0140
26148SOL     OW84406   8.114  12.034   1.335  0.3694  0.2440 -0.1689
26148SOL    HW184407   8.183  12.051   1.400  1.0203 -1.7056 -0.2526
26148SOL    HW284408   8.061  12.113   1.334  1.7481  1.2403  0.9974
26149SOL     OW84409   5.964   8.982   4.067 -0.1737  0.1822 -0.2814
26149SOL    HW184410   6.009   8.918   4.123 -0.2547 -1.7745 -2.2745
26149SOL    HW284411   6.035   9.036   4.031  0.3494 -0.9863 -1.1156
26150SOL     OW84412   5.120   9.343   3.153 -0.3045 -0.4991 -0.2635
26150SOL    HW184413   5.168   9.356   3.071  0.2482  1.1124  0.2607
26150SOL    HW284414   5.122   9.430   3.195 -0.5128 -1.2960  1.4788
26151SOL     OW84415   5.824   1.234   6.208  0.2096  0.1105  0.7030
26151SOL    HW184416   5.741   1.282   6.204  0.7254  1.0100  0.5747
26151SOL    HW284417   5.801   1.150   6.248 -0.5111  0.9260  2.0878
26152SOL     OW84418   1.254   2.924   2.940  0.0923  0.3981 -0.0121
26152SOL    HW184419   1.218   2.901   3.026 -1.1374 -0.5701 -0.7488
26152SOL    HW284420   1.285   3.014   2.950  0.5289  0.0955  1.6048
26153SOL     OW84421   7.859   9.778   5.015  0.2233 -0.4908  0.4137
26153SOL    HW184422   7.892   9.691   5.039 -1.6506 -1.5880 -0.7361
26153SOL    HW284423   7.846   9.773   4.920 -0.2386  0.9431  0.3763
26154SOL     OW84424   9.275   8.908   3.919  0.2417  0.3930 -0.1348
26154SOL    HW184425   9.357   8.913   3.968 -1.2140 -0.7076  2.6012
26154SOL    HW284426   9.265   8.815   3.899 -0.2858  0.5347 -0.5472
26155SOL     OW84427   3.758   4.893   2.697  0.3075  0.1448 -0.0352
26155SOL    HW184428   3.675   4.845   2.701 -0.5892  1.4782 -1.3243
26155SOL    HW284429   3.820   4.830   2.660  0.2767 -1.3085  2.2045
26156SOL     OW84430   2.175  12.463   4.064  0.2807 -0.0026  0.6983
26156SOL    HW184431   2.169  12.484   4.157 -1.5664  0.7806  0.4412
26156SOL    HW284432   2.107  12.397   4.049 -1.1266  1.6193 -0.4903
26157SOL     OW84433   4.747  10.268   9.897 -0.2622 -0.0052  0.1304
26157SOL    HW184434   4.772  10.243   9.809 -0.6787 -2.3077  0.6080
26157SOL    HW284435   4.817  10.326   9.927 -0.7208  1.8509 -2.0801
26158SOL     OW84436   1.687   4.842   7.102  0.6293  0.0654 -0.8038
26158SOL    HW184437   1.722   4.771   7.156 -0.3338  1.0812  1.2623
26158SOL    HW284438   1.725   4.922   7.140 -2.0400  1.0212  0.1020
26159SOL     OW84439  10.426   7.454   1.656 -0.1610 -0.0890  0.0210
26159SOL    HW184440  10.421   7.408   1.572  0.5789 -0.4459  0.1688
26159SOL    HW284441  10.435   7.385   1.721 -1.5830  0.1323  0.4956
26160SOL     OW84442   7.742   9.353   4.938 -0.2824  0.3203 -0.0206
26160SOL    HW184443   7.740   9.415   4.866  0.2782  0.9923  0.5267
26160SOL    HW284444   7.834   9.348   4.963 -0.1992 -1.3740 -0.5861
26161SOL     OW84445   1.190   4.715   5.958 -0.0271 -0.0846 -0.3648
26161SOL    HW184446   1.235   4.703   6.042  1.4520  1.8551 -0.8022
26161SOL    HW284447   1.247   4.774   5.909 -1.1160 -0.7621 -2.5636
26162SOL     OW84448   0.835  11.851   2.088  0.1649  0.0600 -0.8351
26162SOL    HW184449   0.893  11.875   2.016 -0.9739 -1.8534 -2.5119
26162SOL    HW284450   0.749  11.841   2.046 -0.7364 -0.1798  0.9973
26163SOL     OW84451   9.771   8.179   5.914  0.0618  0.3799  0.6411
26163SOL    HW184452   9.730   8.259   5.881 -0.5330 -0.2800 -0.2827
26163SOL    HW284453   9.757   8.181   6.008  3.5177  3.3187  1.2836
26164SOL     OW84454   5.697  11.129   6.673 -0.0578 -0.1830 -0.1658
26164SOL    HW184455   5.671  11.103   6.584 -0.7565 -0.9220  0.2383
26164SOL    HW284456   5.644  11.074   6.730 -0.6020  1.2374  0.7360
26165SOL     OW84457   2.870   3.889   3.898 -0.1330  0.0713 -0.1182
26165SOL    HW184458   2.883   3.794   3.900  1.4678  0.2740  0.3294
26165SOL    HW284459   2.815   3.907   3.975  2.4251 -0.1524  1.8971
26166SOL     OW84460   3.602  11.388   3.820  0.1282  0.2168  0.5344
26166SOL    HW184461   3.532  11.343   3.868  1.1718 -2.0089  0.0924
26166SOL    HW284462   3.558  11.462   3.778 -2.2931 -1.8207 -0.7927
26167SOL     OW84463   7.650   6.163   3.794  0.3450 -0.4494  0.5795
26167SOL    HW184464   7.582   6.210   3.844 -0.2960  0.5097 -1.1013
26167SOL    HW284465   7.611   6.077   3.778 -0.7149  0.2454 -0.7615
26168SOL     OW84466   4.053   6.230   4.387  0.1920 -0.1120 -0.2018
26168SOL    HW184467   4.136   6.182   4.379  0.8652  0.7951  1.0358
26168SOL    HW284468   4.068   6.312   4.340 -0.5510 -0.5568 -1.2761
26169SOL     OW84469   2.416   0.077   6.976  0.4193 -0.7841 -0.4347
26169SOL    HW184470   2.432  -0.004   7.025  2.2188  1.1638  2.5783
26169SOL    HW284471   2.503   0.105   6.946  0.1310  0.7869  0.0536
26170SOL     OW84472   0.352   2.216   0.741 -0.1775 -0.4972  0.8422
26170SOL    HW184473   0.316   2.183   0.823 -1.3579  1.2914  1.1121
26170SOL    HW284474   0.340   2.311   0.746 -0.8795 -0.3692 -1.6459
26171SOL     OW84475  11.949   3.439   3.003  0.1810  0.4090 -0.2884
26171SOL    HW184476  11.899   3.465   2.925 -0.8323  0.5962  0.3950
26171SOL    HW284477  11.886   3.392   3.057  1.3759 -1.4275 -0.4297
26172SOL     OW84478   6.078  12.267   6.185 -0.0780 -0.2537  0.1911
26172SOL    HW184479   6.073  12.361   6.168  1.9457  0.0036  0.7800
26172SOL    HW284480   6.008  12.249   6.247  0.9889  1.3450  1.9306
26173SOL     OW84481   4.510   6.678  10.101  0.0699 -0.6492 -0.0870
26173SOL    HW184482   4.465   6.652  10.020  1.8155 -1.0356 -0.9660
26173SOL    HW284483   4.516   6.597  10.152  0.5467 -0.7797 -0.3522
26174SOL     OW84484  11.178   4.211  10.479 -0.3912  0.0631  0.3562
26174SOL    HW184485  11.192   4.290  10.427  0.3030 -0.0548  0.3582
26174SOL    HW284486  11.161   4.243  10.568 -2.5408  0.3097 -0.0922
26175SOL     OW84487   9.282   0.906   7.512  0.4678  0.5528 -0.2038
26175SOL    HW184488   9.287   0.810   7.514 -1.9436  0.3605  1.1282
26175SOL    HW284489   9.293   0.929   7.420  1.8033 -0.9198 -0.4519
26176SOL     OW84490   8.162  10.922   8.730  0.7362 -0.0229  0.3968
26176SOL    HW184491   8.179  10.982   8.658 -0.5781 -1.4130 -1.1715
26176SOL    HW284492   8.247  10.883   8.750  1.5369  1.9999  1.1970
26177SOL     OW84493   6.460   1.132   7.360 -0.2341  0.4414 -0.6149
26177SOL    HW184494   6.386   1.182   7.393 -0.1179  1.0887 -1.3225
26177SOL    HW284495   6.424   1.044   7.345 -0.1948 -0.0234  1.5802
26178SOL     OW84496   8.800  10.844   1.894  0.0181  0.3378 -0.1401
26178SOL    HW184497   8.730  10.779   1.893 -1.1030  1.4965 -0.0876
26178SOL    HW284498   8.799  10.881   1.805  0.7559  0.1718 -0.2202
26179SOL     OW84499   7.186  10.634   9.296  0.2301 -0.4227 -0.8036
26179SOL    HW184500   7.194  10.585   9.377 -2.6024  2.2762  1.3161
26179SOL    HW284501   7.275  10.665   9.278  1.2887 -2.7878  0.0337
26180SOL     OW84502  11.288  11.117   9.739 -0.0839 -0.6809  0.2359
26180SOL    HW184503  11.251  11.029   9.737 -0.3809 -0.5530  0.0698
26180SOL    HW284504  11.243  11.164   9.669  0.2779 -0.4782  0.1370
26181SOL     OW84505   5.008  10.551   3.830 -0.3966  0.0183  0.4098
26181SOL    HW184506   4.983  10.471   3.876 -0.2960 -0.9325 -1.1414
26181SOL    HW284507   4.935  10.568   3.770  0.3990  0.0736 -0.5485
26182SOL     OW84508   2.867  10.922   3.444 -0.2344  0.1987 -0.3753
26182SOL    HW184509   2.806  10.961   3.507  0.8749  0.8538  0.3342
26182SOL    HW284510   2.814  10.859   3.396 -1.5569  1.0004 -0.0414
26183SOL     OW84511   2.733   2.172   1.546  0.8372  0.2006  0.2417
26183SOL    HW184512   2.674   2.235   1.505  2.7854  3.1930  1.6388
26183SOL    HW284513   2.685   2.142   1.623 -0.2163 -0.2761 -0.5653
26184SOL     OW84514  12.148   3.365   1.524  0.1955  0.1998  0.4651
26184SOL    HW184515  12.225   3.420   1.509  1.9124 -1.8119  1.2603
26184SOL    HW284516  12.133   3.321   1.441  0.0975  0.3653  0.3953
26185SOL     OW84517  10.948   4.349   7.672  0.6267 -0.0719  0.6912
26185SOL    HW184518  10.930   4.383   7.760  1.9836  0.3272  0.8378
26185SOL    HW284519  10.879   4.285   7.657 -0.2103  0.5659  1.6442
26186SOL     OW84520   5.928   6.631  10.238 -0.1570 -0.0501 -0.5179
26186SOL    HW184521   5.851   6.659  10.287  0.9736 -0.7746  1.8577
26186SOL    HW284522   5.903   6.547  10.200 -1.4271  1.0450 -2.2374
26187SOL     OW84523   8.233  11.989   3.937  0.1158 -0.7012 -1.0855
26187SOL    HW184524   8.213  12.023   3.849 -0.4515 -1.9193 -1.4526
26187SOL    HW284525   8.329  11.987   3.940  0.1418 -0.7512 -1.7262
26188SOL     OW84526   2.991   4.315   2.892  0.4236  0.1430  0.1984
26188SOL    HW184527   2.917   4.255   2.883 -0.6745  1.4913 -0.0574
26188SOL    HW284528   2.955   4.391   2.938  0.6933  2.3294 -2.8961
26189SOL     OW84529   9.388   1.073  10.887  0.2731 -0.4044 -0.1451
26189SOL    HW184530   9.424   1.127  10.817  0.5889 -0.6345 -0.1639
26189SOL    HW284531   9.332   1.009  10.842 -0.0434 -0.1393 -0.1288
26190SOL     OW84532   1.522   0.605   7.355 -0.2186 -0.3953 -0.0299
26190SOL    HW184533   1.514   0.615   7.450  2.1692 -0.2253  0.2340
26190SOL    HW284534   1.616   0.614   7.338 -0.7670  2.0446 -2.7133
26191SOL     OW84535   9.250   3.923  12.420  0.3381  0.1573  0.4486
26191SOL    HW184536   9.287   3.873  12.348 -1.1682 -0.9593  0.4120
26191SOL    HW284537   9.221   3.857  12.483 -1.9925  0.8972  0.2478
26192SOL     OW84538  11.851   0.674  11.971  0.2204  0.4769 -0.3038
26192SOL    HW184539  11.911   0.600  11.985 -0.3745 -0.0815 -0.6981
26192SOL    HW284540  11.768   0.646  12.010 -0.2669  0.5755 -1.2585
26193SOL     OW84541   8.501   4.253   2.182  0.1799  0.4124  0.3212
26193SOL    HW184542   8.502   4.169   2.135  1.1341  1.4584 -1.6477
26193SOL    HW284543   8.409   4.265   2.207 -0.0438 -1.0165  0.2846
26194SOL     OW84544   9.743   8.883   3.425 -0.1709 -0.1467 -0.5480
26194SOL    HW184545   9.696   8.822   3.482 -1.7237  1.0693 -0.4548
26194SOL    HW284546   9.691   8.886   3.344 -0.1845  1.1038 -0.5134
26195SOL     OW84547  12.209   7.479   2.770 -0.2345 -0.7160  0.1561
26195SOL    HW184548  12.273   7.547   2.793 -2.1100  0.9041  0.9326
26195SOL    HW284549  12.136   7.495   2.829 -1.4566 -2.3675 -0.8275
26196SOL     OW84550   1.034  11.933   1.386 -0.0838 -0.0313  0.1023
26196SOL    HW184551   1.066  12.019   1.359  0.7183  0.0895  1.3563
26196SOL    HW284552   1.099  11.903   1.450  0.4365 -2.1866 -1.3174
26197SOL     OW84553   1.642   1.069   8.042  0.6832  0.8104  0.5454
26197SOL    HW184554   1.621   1.038   8.130  2.3696  0.4369  0.8604
26197SOL    HW284555   1.675   0.991   7.996  0.5562  1.1616 -0.1629
26198SOL     OW84556   9.261   1.922   0.368  0.1700  0.7191 -0.4343
26198SOL    HW184557   9.170   1.945   0.347  0.2390  0.9670 -0.4686
26198SOL    HW284558   9.280   1.973   0.447  0.4882  1.1724 -0.7993
26199SOL     OW84559   9.153   1.153  12.201  0.3150 -0.0149  0.4665
26199SOL    HW184560   9.221   1.196  12.149 -1.1548  2.8391  0.6442
26199SOL    HW284561   9.145   1.208  12.279 -2.4485  0.1126  0.2116
26200SOL     OW84562   6.682   4.773  11.748  0.5823 -0.3394 -0.8047
26200SOL    HW184563   6.758   4.719  11.727 -0.3213 -2.0929  0.2258
26200SOL    HW284564   6.719   4.853  11.784  1.9443 -0.8208 -1.0638
26201SOL     OW84565  10.910   2.414  11.759  0.0196 -0.2284 -0.2622
26201SOL    HW184566  10.839   2.478  11.760 -0.5645 -0.8644 -0.7732
26201SOL    HW284567  10.867   2.329  11.754  0.8248 -0.5834 -1.5432
26202SOL     OW84568   0.070   6.942   9.480  0.2673 -0.1538  0.3461
26202SOL    HW184569   0.147   6.892   9.455  0.1626 -0.0776 -0.1426
26202SOL    HW284570   0.075   6.949   9.576  0.2845 -1.0935  0.4240
26203SOL     OW84571  11.846   7.538   9.711  0.1174 -0.2891 -0.1516
26203SOL    HW184572  11.892   7.502   9.786  1.3545 -0.5667 -1.0036
26203SOL    HW284573  11.890   7.499   9.635  1.6058  2.9788 -1.1662
26204SOL     OW84574  10.160   2.266   8.831  0.5171  0.1592 -0.1492
26204SOL    HW184575  10.175   2.183   8.876  0.3155 -0.1055 -0.5698
26204SOL    HW284576  10.246   2.291   8.798  0.4064 -0.3813 -0.8737
26205SOL     OW84577   7.461   6.602   2.577  0.1832 -0.4980  0.3314
26205SOL    HW184578   7.453   6.509   2.559 -0.0337 -0.1525 -1.4858
26205SOL    HW284579   7.378   6.640   2.547  0.1199  0.2565  1.3810
26206SOL     OW84580  11.699   2.388   3.864  0.4507  0.1108 -0.1942
26206SOL    HW184581  11.774   2.446   3.853 -0.5784  1.9593  1.7499
26206SOL    HW284582  11.627   2.435   3.822 -0.0321 -0.6725 -0.2540
26207SOL     OW84583   4.802   6.392   6.968  0.3540 -0.7815  0.6366
26207SOL    HW184584   4.770   6.425   7.052  0.2927  0.3723  0.1747
26207SOL    HW284585   4.859   6.319   6.991  1.4525  0.3974  1.7671
26208SOL     OW84586   5.821   8.155   7.440  0.1280 -0.4189  0.0361
26208SOL    HW184587   5.755   8.100   7.398  0.5363 -0.3503 -0.7101
26208SOL    HW284588   5.771   8.209   7.502 -0.5946 -0.0044 -0.8794
26209SOL     OW84589   8.493  11.010   8.074 -0.1860  0.3038 -0.0118
26209SOL    HW184590   8.588  11.000   8.066 -0.2987  0.2891 -2.0059
26209SOL    HW284591   8.457  10.938   8.021 -1.2473  1.3956 -0.8388
26210SOL     OW84592   9.965   9.691   5.558  0.4234  0.0856 -0.3534
26210SOL    HW184593  10.018   9.632   5.612  0.0949 -0.2347 -0.3776
26210SOL    HW284594   9.936   9.760   5.618 -0.6996 -0.7545  0.1159
26211SOL     OW84595   1.727   6.016  10.285 -0.5390 -0.0977 -0.0888
26211SOL    HW184596   1.773   6.029  10.202  0.0070  1.8681  0.4714
26211SOL    HW284597   1.771   5.941  10.325  1.0330  0.6333 -0.3731
26212SOL     OW84598   9.676  10.187   8.015 -0.8925 -0.0390 -0.1207
26212SOL    HW184599   9.683  10.256   7.949 -2.0354  0.3773  0.1747
26212SOL    HW284600   9.707  10.108   7.971  0.5429  0.6597 -0.4289
26213SOL     OW84601   8.921   3.795   6.844  0.1066 -0.2913  0.0251
26213SOL    HW184602   8.950   3.704   6.854  0.4441 -0.1285  0.5183
26213SOL    HW284603   8.826   3.788   6.832 -0.2365 -0.5601  2.5231
26214SOL     OW84604   7.460   6.434   5.109  0.1557 -0.1358  0.0484
26214SOL    HW184605   7.540   6.386   5.089  0.4088 -0.4305  1.5994
26214SOL    HW284606   7.429   6.396   5.191 -0.6246  1.1406  0.3819
26215SOL     OW84607   1.328  12.145   2.786  0.0454 -0.0259  0.6366
26215SOL    HW184608   1.265  12.081   2.753 -0.6584  0.1170  1.6417
26215SOL    HW284609   1.291  12.230   2.762  1.6138  0.0635 -1.8445
26216SOL     OW84610   5.201   9.905   6.931 -0.4823  0.0657  0.2209
26216SOL    HW184611   5.263   9.966   6.972 -0.9654  0.6747  0.0674
26216SOL    HW284612   5.117   9.928   6.970 -0.6959 -0.3875  0.0255
26217SOL     OW84613   1.541   0.790  12.247  0.2325  0.3876 -0.2051
26217SOL    HW184614   1.456   0.819  12.216 -0.5092 -1.7771 -0.3741
26217SOL    HW284615   1.550   0.701  12.213  2.4478  0.4584  0.0390
26218SOL     OW84616   1.678  11.397   3.940 -0.3916 -0.3125  0.0541
26218SOL    HW184617   1.744  11.434   3.882  0.7907 -2.4666 -0.0734
26218SOL    HW284618   1.681  11.451   4.019 -0.5542  1.3676 -1.0324
26219SOL     OW84619   4.449   9.011  11.737 -0.3143 -0.0884 -0.1150
26219SOL    HW184620   4.395   9.089  11.723 -0.4577 -0.1936 -0.1449
26219SOL    HW284621   4.471   9.014  11.831 -0.3441 -0.0285 -0.1099
26220SOL     OW84622   9.337  11.159  12.468  0.3366 -0.4001 -0.2616
26220SOL    HW184623   9.381  11.204  12.540 -0.2131 -2.6410  1.6204
26220SOL    HW284624   9.246  11.150  12.498  0.0113 -1.0446 -1.3908
26221SOL     OW84625   7.107   5.402  10.218  0.6498  0.5583  0.3172
26221SOL    HW184626   7.018   5.368  10.229  1.0067 -0.7166 -0.4846
26221SOL    HW284627   7.107   5.486  10.263 -0.4895 -0.1951  1.8043
26222SOL     OW84628   0.611   7.432   7.053  0.0442 -0.0728 -0.0251
26222SOL    HW184629   0.568   7.483   7.122 -0.9606  0.0538 -0.7219
26222SOL    HW284630   0.639   7.497   6.989  3.0027  0.0687  1.2290
26223SOL     OW84631   7.401   2.997   5.963 -0.1761  0.1965 -0.1302
26223SOL    HW184632   7.406   2.910   5.923  0.0135 -0.7342  1.8234
26223SOL    HW284633   7.368   3.053   5.893 -1.5916 -1.7015 -1.0749
26224SOL     OW84634  12.305   1.102   3.219 -0.3680  0.0981 -0.1203
26224SOL    HW184635  12.354   1.152   3.153 -1.1014  0.0132 -0.7427
26224SOL    HW284636  12.269   1.168   3.277 -0.3778  0.2244 -0.2670
26225SOL     OW84637   1.359   3.643   9.766  0.1569  0.1611 -0.3165
26225SOL    HW184638   1.286   3.680   9.815 -0.8108 -0.0079 -1.5711
26225SOL    HW284639   1.365   3.696   9.687  1.5335  0.2873 -0.1526
26226SOL     OW84640   2.781   9.373   6.387 -0.2057  0.7100 -0.1010
26226SOL    HW184641   2.776   9.285   6.350  0.4316  0.9721 -0.8512
26226SOL    HW284642   2.691   9.405   6.387 -0.6959 -0.5444  1.7504
26227SOL     OW84643   9.860   2.742  12.142 -0.5399  0.1717  0.0967
26227SOL    HW184644   9.949   2.740  12.177  0.3196 -0.9790 -1.9966
26227SOL    HW284645   9.810   2.686  12.201  0.3106  0.1166  0.7810
26228SOL     OW84646  10.927  12.440   9.338  0.2673 -0.5174  0.2905
26228SOL    HW184647  10.988  12.486   9.281 -0.9828  2.7109  1.3045
26228SOL    HW284648  10.844  12.440   9.290  0.0221 -0.9153  0.7029
26229SOL     OW84649   4.183   1.352   5.999 -0.0569  0.0434  0.5156
26229SOL    HW184650   4.265   1.309   5.975  0.7945  1.7558  0.2456
26229SOL    HW284651   4.156   1.308   6.080 -0.1804 -2.1715 -0.6272
26230SOL     OW84652   4.138   7.381   0.653 -0.1798  0.0052 -0.3236
26230SOL    HW184653   4.110   7.355   0.565 -3.7354 -0.2051  0.7143
26230SOL    HW284654   4.074   7.341   0.711  2.1251  0.0156  2.4473
26231SOL     OW84655   0.693  12.373   4.654  0.0920  0.5954 -0.2854
26231SOL    HW184656   0.720  12.298   4.707  0.2656 -0.0383 -1.2513
26231SOL    HW284657   0.767  12.388   4.595 -0.8897  0.0178 -1.7101
26232SOL     OW84658   2.534   2.500   9.108 -0.0245 -0.5235 -0.2924
26232SOL    HW184659   2.601   2.555   9.149  0.5547 -1.2168 -0.3000
26232SOL    HW284660   2.477   2.562   9.062  1.9995 -0.0608 -2.3283
26233SOL     OW84661  10.812   6.191   3.572 -0.1241  0.1138 -0.1018
26233SOL    HW184662  10.843   6.209   3.483 -1.2015  0.2166 -0.4683
26233SOL    HW284663  10.776   6.103   3.568 -1.5723  0.6894 -0.1687
26234SOL     OW84664   6.779   5.823   2.610 -0.3273  0.7716 -0.4583
26234SOL    HW184665   6.871   5.847   2.603 -0.6713  1.9134 -1.4109
26234SOL    HW284666   6.732   5.900   2.579 -1.5323 -0.9050 -3.1810
26235SOL     OW84667   2.820   9.513   9.444 -0.1043  1.0516 -0.2706
26235SOL    HW184668   2.729   9.525   9.416  0.1446  1.0148 -1.1224
26235SOL    HW284669   2.864   9.478   9.367  0.3588 -0.1953  0.5357
26236SOL     OW84670  10.805   8.350  11.978  0.0759 -0.1336  0.1309
26236SOL    HW184671  10.885   8.379  11.936  0.7200  0.6022  1.7609
26236SOL    HW284672  10.748   8.428  11.979 -0.3965 -0.4629 -0.4012
26237SOL     OW84673  10.265   8.840   6.695 -0.5571  0.3281  0.5123
26237SOL    HW184674  10.184   8.791   6.678  0.1326 -0.9190  0.6557
26237SOL    HW284675  10.236   8.925   6.728 -1.8236  0.5628 -1.1094
26238SOL     OW84676   6.287   9.071   0.863 -0.2679 -0.4523 -0.7300
26238SOL    HW184677   6.337   9.011   0.808 -0.9014 -0.9256 -0.8073
26238SOL    HW284678   6.197   9.066   0.828 -0.4871 -0.0605 -0.2336
26239SOL     OW84679   6.590   9.470   8.454 -0.3782 -0.1728 -0.7066
26239SOL    HW184680   6.609   9.563   8.442  3.3218 -0.3411  1.9815
26239SOL    HW284681   6.608   9.430   8.369 -3.0793  1.5593 -2.2290
26240SOL     OW84682   5.258   0.056   4.942  0.2863  0.2163  0.0051
26240SOL    HW184683   5.191  -0.012   4.942  1.2361 -0.7910 -1.4146
26240SOL    HW284684   5.288   0.059   4.851  1.4183  1.3922  0.3912
26241SOL     OW84685   5.633   5.359   7.718  0.2736  0.6880 -0.2791
26241SOL    HW184686   5.657   5.281   7.668 -1.0813 -0.2498  0.4653
26241SOL    HW284687   5.583   5.412   7.656  0.0414  0.3193 -0.4139
26242SOL     OW84688   8.277   1.521   4.694  0.5304 -0.4509  0.0761
26242SOL    HW184689   8.187   1.499   4.718  0.5680 -1.2992 -0.5324
26242SOL    HW284690   8.323   1.525   4.778  0.1555 -1.0735  0.3190
26243SOL     OW84691  10.929   5.918   0.584  0.0465  0.2429  0.7274
26243SOL    HW184692  10.862   5.943   0.521 -0.4666 -0.1745  1.1040
26243SOL    HW284693  10.883   5.910   0.668  0.1067 -2.1976  0.5946
26244SOL     OW84694   1.693   0.974  10.199 -0.2278 -0.1158  0.2352
26244SOL    HW184695   1.732   1.060  10.211 -0.9012 -0.0058  1.9447
26244SOL    HW284696   1.761   0.912  10.225  0.6286 -0.2004 -2.0040
26245SOL     OW84697  11.336   3.860   1.535 -0.0942  0.3739 -0.6424
26245SOL    HW184698  11.365   3.941   1.578  0.5276  0.1493 -0.6361
26245SOL    HW284699  11.255   3.885   1.489  0.1712  1.0308 -0.7634
26246SOL     OW84700   4.813   2.482  10.664 -1.1837 -0.2616 -0.0367
26246SOL    HW184701   4.726   2.503  10.698 -0.4833  2.0635  0.5095
26246SOL    HW284702   4.859   2.566  10.660  0.7528 -1.2775 -1.1942
26247SOL     OW84703   3.481   0.613   3.770 -0.5263 -0.0357 -0.1928
26247SOL    HW184704   3.433   0.673   3.712 -0.4260 -1.2646 -1.5856
26247SOL    HW284705   3.420   0.540   3.783 -0.1506 -0.2373  0.4561
26248SOL     OW84706  11.962   4.271   5.602 -0.6015  0.4605 -0.3047
26248SOL    HW184707  12.002   4.325   5.534  1.0734  0.4445  0.6241
26248SOL    HW284708  11.912   4.333   5.655  0.4950  0.9711  0.1635
26249SOL     OW84709   4.094   6.846   5.184 -0.4389  0.3707  0.2162
26249SOL    HW184710   4.177   6.854   5.231 -0.1230 -0.1022 -0.2487
26249SOL    HW284711   4.110   6.886   5.098 -1.5471  2.9066  1.0916
26250SOL     OW84712   4.534   7.435   0.097  1.0856 -0.4012  0.5196
26250SOL    HW184713   4.607   7.386   0.060  1.0571 -0.3719  0.4258
26250SOL    HW284714   4.574   7.489   0.166  1.1781 -0.2653  0.3607
26251SOL     OW84715   8.807  11.329   7.957  0.2493  0.0029 -0.5077
26251SOL    HW184716   8.777  11.420   7.959  2.1259  0.6402  0.6278
26251SOL    HW284717   8.830  11.309   8.048 -0.4555 -1.7499 -0.6685
26252SOL     OW84718  11.620   9.601   6.407 -0.3007  0.8168  0.4952
26252SOL    HW184719  11.595   9.669   6.469 -1.2828  0.7291  0.2030
26252SOL    HW284720  11.588   9.632   6.323  1.7007  1.3111 -0.1336
26253SOL     OW84721   7.707   1.945   6.840 -0.1594 -0.3675  0.2616
26253SOL    HW184722   7.784   1.895   6.813 -1.5366 -2.1633 -0.5538
26253SOL    HW284723   7.712   2.026   6.790  0.8985 -0.6982 -0.1992
26254SOL     OW84724  10.907   5.885  10.754 -0.2433  0.5540 -0.4036
26254SOL    HW184725  10.995   5.847  10.746  0.1538  1.2955  0.3211
26254SOL    HW284726  10.881   5.904  10.664 -0.1999 -0.8550 -0.7396
26255SOL     OW84727   7.409   7.706  12.230 -0.1166  0.0726  0.1072
26255SOL    HW184728   7.356   7.737  12.156 -0.5008 -0.4436  0.1627
26255SOL    HW284729   7.416   7.782  12.288 -2.7637 -0.4237  1.2330
26256SOL     OW84730   7.025  12.129   6.711 -0.1893  0.1261 -0.0354
26256SOL    HW184731   6.992  12.195   6.772  0.4575 -0.5570  1.0932
26256SOL    HW284732   7.020  12.171   6.625  1.6137  2.2129  0.8033
26257SOL     OW84733   0.861  12.325   3.852 -0.0860  0.1921 -0.4926
26257SOL    HW184734   0.927  12.262   3.823  0.1769  0.2805 -0.1003
26257SOL    HW284735   0.795  12.272   3.897  0.2288  0.2074  0.0037
26258SOL     OW84736   1.688   4.709   8.965  0.6635 -0.4547  0.1409
26258SOL    HW184737   1.630   4.635   8.985 -1.9582  1.3825 -0.0866
26258SOL    HW284738   1.677   4.723   8.871  1.5713 -0.1428  0.0783
26259SOL     OW84739   8.146   4.107   9.073  0.2688  0.7289 -0.1327
26259SOL    HW184740   8.225   4.140   9.029  0.9738 -0.1346  0.4527
26259SOL    HW284741   8.132   4.020   9.036  1.7270 -0.6511  2.2892
26260SOL     OW84742   0.028   5.407   2.730 -0.3103 -0.4003  0.3107
26260SOL    HW184743  -0.019   5.478   2.686 -1.2356 -2.3085 -1.9501
26260SOL    HW284744   0.106   5.393   2.676 -0.4574 -1.4919  0.3618
26261SOL     OW84745   8.606   3.991   5.343 -0.1734 -0.1098  0.1308
26261SOL    HW184746   8.570   3.988   5.432  1.5116  1.0192  0.9106
26261SOL    HW284747   8.694   3.953   5.352 -0.0649 -0.1808 -1.1071
26262SOL     OW84748  11.527  10.670   7.557  0.3403  0.1811 -0.1056
26262SOL    HW184749  11.547  10.653   7.464  1.6294  0.3669  0.1215
26262SOL    HW284750  11.433  10.685   7.558  0.1346 -0.8048 -1.2407
26263SOL     OW84751  12.331   5.908   2.385 -0.4306  0.2574  0.4081
26263SOL    HW184752  12.345   5.894   2.292  0.5126  0.1891  0.5565
26263SOL    HW284753  12.273   5.836   2.412 -0.1627 -0.1110  0.0120
26264SOL     OW84754   7.139  11.086   3.925  0.0699  0.2494  0.0051
26264SOL    HW184755   7.102  11.156   3.979  0.9896  1.0982 -0.4360
26264SOL    HW284756   7.136  11.121   3.835  1.8183  0.3171 -0.0634
26265SOL     OW84757  10.129  12.249   5.510  0.1015  0.0115  0.0110
26265SOL    HW184758  10.125  12.160   5.545  0.4518  0.5494  1.4809
26265SOL    HW284759  10.179  12.240   5.429 -1.9097 -1.4881 -1.1745
26266SOL     OW84760   2.598   6.005   8.009  0.6678  0.8046  0.5534
26266SOL    HW184761   2.540   6.049   7.946 -0.0260  0.5581  1.0175
26266SOL    HW284762   2.539   5.960   8.069  1.3363  0.8267  1.2359
26267SOL     OW84763   9.235  11.190   6.250  0.8857 -1.1279 -0.6461
26267SOL    HW184764   9.331  11.189   6.247  0.8887 -1.3968 -0.4006
26267SOL    HW284765   9.212  11.141   6.328  0.5392 -1.2501 -0.8208
26268SOL     OW84766   6.664   3.436   7.060  0.1497 -0.2143  0.0270
26268SOL    HW184767   6.605   3.426   6.985 -0.0693  0.5900  0.0802
26268SOL    HW284768   6.648   3.526   7.090  0.1748 -0.5579  1.0892
26269SOL     OW84769   2.805   4.992  10.419  0.5794  0.2287  0.0389
26269SOL    HW184770   2.711   4.988  10.437  0.4520 -0.5454 -0.7395
26269SOL    HW284771   2.819   5.080  10.385  0.0564  0.2008 -0.2562
26270SOL     OW84772  12.297   2.552   5.650  0.1741 -0.2706  0.3093
26270SOL    HW184773  12.373   2.513   5.693  1.1543  2.7977  1.6677
26270SOL    HW284774  12.335   2.601   5.576 -0.5237  0.8300  0.6595
26271SOL     OW84775   6.990   1.984   8.939 -0.3444 -0.7933  0.3138
26271SOL    HW184776   6.934   1.917   8.901 -2.3921  0.9945 -0.0470
26271SOL    HW284777   6.931   2.036   8.995  0.8168  1.4049 -0.3602
26272SOL     OW84778   7.714   4.506   9.137  0.2797  0.6724  0.5757
26272SOL    HW184779   7.677   4.422   9.107  1.6087  1.1236 -2.8190
26272SOL    HW284780   7.640   4.567   9.134 -0.0109  0.3030 -0.3044
26273SOL     OW84781   1.885   8.031  11.323 -0.0365 -0.4909 -0.0201
26273SOL    HW184782   1.832   8.111  11.329 -0.2601 -0.7442  2.0348
26273SOL    HW284783   1.830   7.962  11.359  0.8738 -1.1978  0.0713
26274SOL     OW84784  10.601   1.236   0.849  0.3305 -0.2848  0.0713
26274SOL    HW184785  10.597   1.218   0.943  1.5213  0.3499  0.2653
26274SOL    HW284786  10.652   1.317   0.843  1.3908 -1.0224 -1.1933
26275SOL     OW84787   8.425   5.193   2.765  0.3685 -0.4434 -0.2008
26275SOL    HW184788   8.354   5.212   2.826  1.2986 -0.9131  1.0930
26275SOL    HW284789   8.383   5.187   2.680 -1.1461 -0.8153  0.5364
26276SOL     OW84790  10.905   7.141   7.305  0.2303  0.2184  0.5912
26276SOL    HW184791  10.984   7.092   7.326 -0.5237 -1.0379  0.6160
26276SOL    HW284792  10.879   7.109   7.219  0.9330  2.2337 -0.4551
26277SOL     OW84793   6.367   2.239   2.903 -0.5850  0.4107  0.6102
26277SOL    HW184794   6.272   2.241   2.890 -0.2411  1.4880 -2.5484
26277SOL    HW284795   6.395   2.161   2.856  0.0650 -0.5518  2.4915
26278SOL     OW84796   3.468   8.677   0.712  1.0132  0.5939  0.0723
26278SOL    HW184797   3.431   8.630   0.638  2.1176  1.8835 -1.3734
26278SOL    HW284798   3.553   8.636   0.727  0.8872  0.4787  0.4797
26279SOL     OW84799   4.601   8.857   0.418  0.3265  0.3605 -0.8699
26279SOL    HW184800   4.587   8.952   0.407  0.1384  0.2752 -1.3982
26279SOL    HW284801   4.670   8.851   0.484  1.1420  0.8959 -1.6465
26280SOL     OW84802   7.013   5.488   0.918  0.3713 -0.2058  0.2607
26280SOL    HW184803   6.931   5.439   0.925  0.2698  0.0821  1.1594
26280SOL    HW284804   7.079   5.428   0.953  0.9059 -1.2452 -2.3335
26281SOL     OW84805   0.754   8.119   4.549  0.3420 -0.4249  0.1309
26281SOL    HW184806   0.751   8.187   4.616  0.2307  0.2194 -0.5279
26281SOL    HW284807   0.733   8.038   4.597 -0.7562  0.1679  0.6853
26282SOL     OW84808  10.803   6.579  11.084  0.6192 -0.0269 -0.1562
26282SOL    HW184809  10.762   6.618  11.007  1.1759 -0.9908 -0.9703
26282SOL    HW284810  10.848   6.502  11.050  1.4420 -0.0927  1.0313
26283SOL     OW84811   3.351   0.066   7.010  0.0194  0.0093 -0.2289
26283SOL    HW184812   3.342   0.155   7.045 -0.7362 -0.2591  0.2822
26283SOL    HW284813   3.293   0.013   7.064 -0.5300 -0.5746 -1.3411
26284SOL     OW84814   1.451   8.598   9.281  0.6355  0.2762  0.4176
26284SOL    HW184815   1.485   8.519   9.239 -1.4876 -0.6633  0.2978
26284SOL    HW284816   1.491   8.599   9.367  1.7409 -0.1601 -0.0796
26285SOL     OW84817   6.886  11.584  11.626  0.1167  0.1313 -0.1195
26285SOL    HW184818   6.933  11.589  11.543  2.0718  1.0657  0.9802
26285SOL    HW284819   6.919  11.505  11.669 -2.2099 -1.3673 -0.9301
26286SOL     OW84820   4.638   3.361   7.899 -0.0724  0.0520 -0.6991
26286SOL    HW184821   4.731   3.351   7.878 -0.1768  0.4306 -1.3865
26286SOL    HW284822   4.592   3.336   7.819 -0.6427 -1.4338  0.0491
26287SOL     OW84823   1.969   5.057   3.727  0.3825  0.3886 -0.2216
26287SOL    HW184824   2.045   5.049   3.669  0.4449  3.9951 -0.8615
26287SOL    HW284825   1.998   5.115   3.797 -1.7531  1.8839 -0.4860
26288SOL     OW84826   1.305  11.780   3.009 -0.1623 -0.1935  0.1950
26288SOL    HW184827   1.313  11.869   3.042 -0.3995 -0.0914 -0.0229
26288SOL    HW284828   1.216  11.753   3.031 -1.1964  0.7553 -2.4695
26289SOL     OW84829  10.729   9.326   7.723  0.2346  0.1667 -0.4084
26289SOL    HW184830  10.815   9.361   7.702  0.0473  1.0481  0.2418
26289SOL    HW284831  10.708   9.267   7.650  1.2422  0.1872 -0.7225
26290SOL     OW84832  10.708   3.187   5.138  0.2015 -0.2838  0.0878
26290SOL    HW184833  10.686   3.095   5.124 -3.2855  0.3981  0.0966
26290SOL    HW284834  10.785   3.186   5.194  0.1019 -3.1743  0.3057
26291SOL     OW84835   9.301   5.055   6.223  0.3533  0.7902 -0.7001
26291SOL    HW184836   9.239   4.987   6.247  0.1746  0.1016 -2.9222
26291SOL    HW284837   9.314   5.105   6.304  1.9075 -2.9127  1.5861
26292SOL     OW84838   2.883  10.724   4.341  0.9962  0.2872  0.5540
26292SOL    HW184839   2.821  10.796   4.329 -1.1184 -1.4101  0.6002
26292SOL    HW284840   2.963  10.754   4.297 -0.6650  1.5824 -1.8544
26293SOL     OW84841   6.569   4.941   7.354 -0.0938  0.0726  0.5265
26293SOL    HW184842   6.579   4.862   7.301  4.1086  0.6993  0.0344
26293SOL    HW284843   6.622   4.925   7.432  2.4567  2.8742 -0.4048
26294SOL     OW84844   5.061   3.847   2.680 -0.5419  0.1891  0.7325
26294SOL    HW184845   4.978   3.815   2.644 -0.1956  0.3557 -0.2412
26294SOL    HW284846   5.040   3.935   2.713 -0.6218  0.4633 -0.0388
26295SOL     OW84847   6.479   5.525   8.816 -0.1691  0.5304  0.0084
26295SOL    HW184848   6.415   5.503   8.749  0.5259  1.6333 -1.0604
26295SOL    HW284849   6.563   5.524   8.770  0.5912 -0.6453  1.3213
26296SOL     OW84850   2.717   6.244   9.609  0.2387 -0.6120 -0.0793
26296SOL    HW184851   2.715   6.154   9.642 -1.3193 -0.0890  1.4066
26296SOL    HW284852   2.805   6.255   9.575  1.1611 -2.0491  1.6481
26297SOL     OW84853   6.653   5.668   3.763  0.6044 -0.3862 -0.2521
26297SOL    HW184854   6.736   5.716   3.753  0.1481  0.3494 -0.6746
26297SOL    HW284855   6.624   5.653   3.673  0.3745 -0.8039 -0.1073
26298SOL     OW84856   5.667   8.335   0.716 -0.6761  0.1791 -0.0077
26298SOL    HW184857   5.610   8.343   0.792  0.8813  1.7312  1.0910
26298SOL    HW284858   5.676   8.425   0.684 -0.6912 -0.3592 -1.5657
26299SOL     OW84859   8.577   5.907   9.889  0.0594  0.2754  0.0180
26299SOL    HW184860   8.517   5.957   9.944 -1.3482 -1.5635  0.2416
26299SOL    HW284861   8.551   5.929   9.799 -2.1826 -1.7461  0.0741
26300SOL     OW84862  12.400   7.944   2.939 -0.0874  0.4013 -0.4415
26300SOL    HW184863  12.471   7.990   2.895  0.8425 -0.4691  0.0957
26300SOL    HW284864  12.326   7.951   2.879 -0.3228  3.3935  0.0286
26301SOL     OW84865  10.019  12.063  10.117  0.2448  0.8233  0.5185
26301SOL    HW184866  10.010  12.068  10.021 -0.0738 -1.4792  0.3772
26301SOL    HW284867   9.998  11.972  10.138 -0.8394  1.5565  2.9271
26302SOL     OW84868   8.717   2.595   6.384  0.3547  0.3493 -0.0728
26302SOL    HW184869   8.760   2.568   6.465 -2.9852 -1.0424  1.4318
26302SOL    HW284870   8.733   2.523   6.323  0.7931  0.2433  0.1619
26303SOL     OW84871   4.973   6.341   9.788 -0.2954  0.1601  0.2804
26303SOL    HW184872   4.939   6.251   9.788 -0.3156  0.0993 -2.1939
26303SOL    HW284873   4.900   6.394   9.819 -1.9540 -0.2406 -2.5809
26304SOL     OW84874   3.567   1.957   8.580 -0.4652 -0.2349  0.5132
26304SOL    HW184875   3.560   2.024   8.512  0.5485  0.5397  1.1599
26304SOL    HW284876   3.606   2.001   8.655  1.0384 -1.7198  0.6841
26305SOL     OW84877   7.243   2.560   8.622 -0.5098  0.1971  0.1520
26305SOL    HW184878   7.166   2.582   8.675 -0.3724 -0.0813  0.4735
26305SOL    HW284879   7.276   2.478   8.660  0.6846  0.9599  0.8489
26306SOL     OW84880   1.685   9.073   5.490 -0.0229 -0.0122 -0.2109
26306SOL    HW184881   1.695   8.993   5.438 -1.6131 -0.4825  0.1471
26306SOL    HW284882   1.623   9.049   5.558  0.5038  1.1667  0.7131
26307SOL     OW84883   8.396   4.484   6.938  0.4751 -0.7375 -0.0563
26307SOL    HW184884   8.365   4.448   7.021  1.4882 -0.7199  0.3527
26307SOL    HW284885   8.434   4.409   6.892  0.3138 -0.6644 -0.3084
26308SOL     OW84886   2.901   1.941   6.730 -0.0337 -0.5390 -0.3985
26308SOL    HW184887   2.858   2.026   6.742  0.3126 -0.3414 -0.5353
26308SOL    HW284888   2.987   1.952   6.771  0.2254 -0.6443 -0.9008
26309SOL     OW84889   5.928   4.560   6.399  0.3815 -0.1803  0.6896
26309SOL    HW184890   5.839   4.538   6.427 -0.1812  0.5954 -0.4059
26309SOL    HW284891   5.928   4.545   6.305  1.2464  0.3857  0.5856
26310SOL     OW84892   2.532   3.012   1.189 -0.0489 -0.0075 -0.7426
26310SOL    HW184893   2.455   2.955   1.194  0.3231 -0.5047 -0.5628
26310SOL    HW284894   2.499   3.094   1.154 -0.8137  0.0702  0.1345
26311SOL     OW84895  11.336   8.244   2.475 -0.2861  0.3356 -0.3582
26311SOL    HW184896  11.313   8.268   2.385 -0.7063 -2.2545 -1.0009
26311SOL    HW284897  11.403   8.308   2.500 -1.6110  2.3921 -1.7200
26312SOL     OW84898   9.853   6.016   6.014  0.0895 -0.3298 -0.6283
26312SOL    HW184899   9.794   6.042   5.943  1.7231  1.0967 -1.5212
26312SOL    HW284900   9.817   6.058   6.092  0.3467  1.2457 -1.3181
26313SOL     OW84901   7.404   2.117   6.472  0.2555 -0.2128  0.1766
26313SOL    HW184902   7.333   2.155   6.524 -0.1437 -1.1803  0.3637
26313SOL    HW284903   7.404   2.169   6.391 -0.1909  0.2567  0.4698
26314SOL     OW84904  11.868   3.748   0.274  0.0150  0.1573 -0.1884
26314SOL    HW184905  11.882   3.669   0.222  0.1416  0.1983 -0.2176
26314SOL    HW284906  11.956   3.778   0.295  0.0671  1.5786 -2.1253
26315SOL     OW84907  12.212   9.755   9.732 -0.1541  0.0537  0.5283
26315SOL    HW184908  12.148   9.769   9.661  1.3656 -0.0624 -0.9196
26315SOL    HW284909  12.213   9.661   9.745 -0.2081  0.0475  0.4923
26316SOL     OW84910  11.440   8.814   8.776  0.4630  0.1839  0.4104
26316SOL    HW184911  11.352   8.842   8.754  0.8741  1.0074 -0.2087
26316SOL    HW284912  11.449   8.729   8.733  0.6965  1.0459 -1.3417
26317SOL     OW84913   1.594   2.362   7.157 -0.3271  0.0920  0.2888
26317SOL    HW184914   1.542   2.436   7.124 -0.3780  0.0279  0.2246
26317SOL    HW284915   1.684   2.388   7.141 -0.3630 -0.9775 -2.2692
26318SOL     OW84916   7.393   9.329  11.576  0.2234  0.3658  0.4696
26318SOL    HW184917   7.323   9.345  11.513  1.2094  1.4098 -0.4023
26318SOL    HW284918   7.425   9.416  11.598 -0.7259  0.1206  3.2009
26319SOL     OW84919   2.123   7.706   8.678  0.6532 -0.5754 -0.0260
26319SOL    HW184920   2.122   7.695   8.773  0.0076 -1.8458 -0.1691
26319SOL    HW284921   2.202   7.661   8.649  1.3900  0.6571 -0.0220
26320SOL     OW84922   3.070   0.801   1.730  0.3179 -0.1304  0.2078
26320SOL    HW184923   2.998   0.864   1.726  1.1308  0.8592  0.5418
26320SOL    HW284924   3.054   0.741   1.657  0.7252  1.8324 -1.5970
26321SOL     OW84925  11.980   9.978   6.736  0.2735 -0.1045  0.1448
26321SOL    HW184926  12.045   9.987   6.666  0.6909 -0.9025  0.4201
26321SOL    HW284927  11.989  10.059   6.786  0.4375  0.1788 -0.3340
26322SOL     OW84928   7.948   6.908   8.669 -0.6097 -0.1430 -0.1426
26322SOL    HW184929   7.869   6.954   8.641 -1.4233 -1.5587 -0.2737
26322SOL    HW284930   7.920   6.818   8.683  1.0204 -0.7248 -0.3612
26323SOL     OW84931   7.116  10.864  11.205  0.0235 -0.0313 -0.2176
26323SOL    HW184932   7.122  10.959  11.217 -0.0616 -0.1792  1.2625
26323SOL    HW284933   7.180  10.828  11.267  0.5076 -0.9239 -1.2160
26324SOL     OW84934   2.667   0.352   4.618 -0.1420  0.3479 -0.3954
26324SOL    HW184935   2.670   0.295   4.695 -1.9806 -0.7963 -1.0942
26324SOL    HW284936   2.730   0.314   4.557 -0.9776 -0.6680 -0.6508
26325SOL     OW84937  11.772   4.430   5.403 -0.4962  0.4694 -0.0568
26325SOL    HW184938  11.736   4.393   5.484  0.6546 -1.4245 -0.3483
26325SOL    HW284939  11.837   4.494   5.432 -0.0606 -0.2316  0.5309
26326SOL     OW84940   2.233   4.392   6.430 -0.6349 -0.6040  0.1476
26326SOL    HW184941   2.296   4.334   6.388 -1.6939 -1.0416 -0.9078
26326SOL    HW284942   2.151   4.377   6.382 -0.9762  1.7167 -0.1170
26327SOL     OW84943  12.484   9.568  12.411 -0.9680 -0.9703  0.0674
26327SOL    HW184944  12.426   9.550  12.485 -1.8741 -0.9581 -0.6223
26327SOL    HW284945  12.427   9.608  12.345  0.2678  1.1135  0.1797
26328SOL     OW84946   0.123   1.789   0.145 -0.0483 -0.7739 -0.2288
26328SOL    HW184947   0.179   1.757   0.216 -0.2245  0.1907  0.3720
26328SOL    HW284948   0.181   1.845   0.093 -0.2650 -0.3582 -0.0279
26329SOL     OW84949  10.730   4.839   7.516  0.0418  0.2179 -1.0446
26329SOL    HW184950  10.654   4.897   7.526  0.1809  0.1867  0.4491
26329SOL    HW284951  10.795   4.893   7.471  0.5026  1.5981  1.1469
26330SOL     OW84952   6.571   5.351   1.218 -0.0092  0.7364  0.2940
26330SOL    HW184953   6.655   5.312   1.243 -1.0555 -1.3275  0.8324
26330SOL    HW284954   6.535   5.385   1.300 -0.3614  0.2258  0.3577
26331SOL     OW84955   4.835  10.913   2.717  0.3503 -0.5233  0.0114
26331SOL    HW184956   4.891  10.955   2.782 -1.3290  0.6293  0.7757
26331SOL    HW284957   4.868  10.945   2.633  1.0496 -0.1427  0.4226
26332SOL     OW84958   3.549  10.408   5.219 -0.5358 -0.0001 -0.0087
26332SOL    HW184959   3.474  10.381   5.165  0.6489 -0.6635 -1.3983
26332SOL    HW284960   3.537  10.503   5.231 -0.6389  0.2581 -1.8334
26333SOL     OW84961   4.266   0.319   2.688 -0.4316  0.0053  0.3814
26333SOL    HW184962   4.289   0.400   2.733  0.7609 -0.6314  0.9465
26333SOL    HW284963   4.213   0.348   2.613 -1.7824  1.1328  1.7176
26334SOL     OW84964   7.099   1.922   6.807  0.1180 -0.1837 -0.0540
26334SOL    HW184965   7.011   1.885   6.806 -0.5251  1.2553 -1.3204
26334SOL    HW284966   7.158   1.847   6.815 -1.1378 -1.3913 -1.6250
26335SOL     OW84967   5.254  11.176   2.543 -0.3700  0.8129 -0.0003
26335SOL    HW184968   5.302  11.106   2.499 -0.7891  0.1000  0.6462
26335SOL    HW284969   5.195  11.130   2.603 -1.1526  1.6956 -0.0699
26336SOL     OW84970  11.176  11.971   4.941  0.1305 -0.3097 -0.0693
26336SOL    HW184971  11.198  12.025   4.865  1.1642 -0.8843 -0.2065
26336SOL    HW284972  11.093  12.006   4.973 -0.6829 -0.4997 -1.8820
26337SOL     OW84973   3.526   6.933   4.995 -0.1145 -0.1027  0.5814
26337SOL    HW184974   3.551   6.841   4.991  0.3216  0.0137  0.5665
26337SOL    HW284975   3.431   6.933   4.987 -0.0433 -0.4881 -0.4160
26338SOL     OW84976   5.139  10.592   1.782 -0.4685 -0.3729 -0.0759
26338SOL    HW184977   5.217  10.647   1.790 -0.0323 -0.4543 -2.9889
26338SOL    HW284978   5.165  10.507   1.817  0.8791 -0.4935 -1.3285
26339SOL     OW84979   0.373   0.252   8.477  0.5331 -0.6709  0.3556
26339SOL    HW184980   0.284   0.259   8.510  0.4366  0.0190 -0.0388
26339SOL    HW284981   0.381   0.161   8.448 -0.4474 -0.4405 -0.7141
26340SOL     OW84982   8.420  11.148   1.098 -0.5246 -0.1637  1.0393
26340SOL    HW184983   8.348  11.090   1.122 -0.9219  0.3465  1.0950
26340SOL    HW284984   8.426  11.210   1.171 -0.9593  0.6626  0.3932
26341SOL     OW84985   1.944   7.932  10.036  0.1136 -0.1938 -0.0897
26341SOL    HW184986   2.030   7.972  10.020 -0.0625 -0.2210 -1.2278
26341SOL    HW284987   1.964   7.844  10.069  0.5089  0.3282  1.0907
26342SOL     OW84988   9.406   2.413   1.523  0.0768 -0.1168  0.2994
26342SOL    HW184989   9.423   2.344   1.588 -0.7560 -1.8294 -1.1960
26342SOL    HW284990   9.369   2.485   1.574 -2.2379 -2.0547  1.5904
26343SOL     OW84991   6.272  10.118   7.163  0.1559  0.7638  0.0232
26343SOL    HW184992   6.329  10.070   7.103 -0.0454  1.4916 -0.7816
26343SOL    HW284993   6.220  10.175   7.106 -1.5274 -0.0193  0.7062
26344SOL     OW84994   5.077   7.377   1.839  0.3815 -0.0310 -0.0324
26344SOL    HW184995   5.118   7.461   1.856  1.4308 -0.4592 -0.3603
26344SOL    HW284996   5.024   7.360   1.917 -1.4751  1.8439 -0.7950
26345SOL     OW84997   6.956   5.252   3.205  0.0815  0.4566 -0.0748
26345SOL    HW184998   6.898   5.304   3.149 -0.3912  0.8918  0.7865
26345SOL    HW284999   6.944   5.290   3.292  0.7139 -0.2750  0.3380
26346SOL     OW85000   1.605  10.404   0.804 -0.0043  0.1541 -0.2186
26346SOL    HW185001   1.586  10.391   0.897  0.5258 -0.9303 -0.2500
26346SOL    HW285002   1.521  10.429   0.766 -0.9675 -2.4927 -0.0001
26347SOL     OW85003   8.461  10.550  11.034 -0.3163 -0.2749 -0.0332
26347SOL    HW185004   8.397  10.604  10.986  0.6507 -0.6310 -1.7938
26347SOL    HW285005   8.517  10.614  11.078  1.7944  0.4004 -3.3387
26348SOL     OW85006   1.534   1.249  11.940  0.7384 -0.6455 -0.1440
26348SOL    HW185007   1.494   1.240  11.853  2.1619 -1.5870 -0.7342
26348SOL    HW285008   1.478   1.196  11.996  0.3812 -0.8589 -0.6855
26349SOL     OW85009   6.170   1.654   3.421 -0.3639 -0.4838 -0.0960
26349SOL    HW185010   6.263   1.644   3.401 -0.6254 -1.2003 -1.0272
26349SOL    HW285011   6.139   1.720   3.360 -0.8079 -1.4601 -0.9608
26350SOL     OW85012   3.425   4.744   1.134 -0.1771  0.3689 -0.7298
26350SOL    HW185013   3.405   4.789   1.052  0.2772 -1.5879 -1.9809
26350SOL    HW285014   3.519   4.756   1.146 -0.5235  2.2814  0.5986
26351SOL     OW85015   2.114   1.506   3.098 -0.1676 -0.2293 -0.2709
26351SOL    HW185016   2.193   1.485   3.148  0.4219  1.7647 -0.2797
26351SOL    HW285017   2.120   1.600   3.081 -1.3724 -0.4550 -2.3451
26352SOL     OW85018   7.130   6.028  11.671  0.5372 -0.0740 -0.0836
26352SOL    HW185019   7.076   5.996  11.598 -0.3394  0.3582  0.3531
26352SOL    HW285020   7.189   6.091  11.630  0.3568 -0.1669 -0.4999
26353SOL     OW85021   7.318  11.260   0.732  0.1360 -0.2419  0.2481
26353SOL    HW185022   7.359  11.201   0.668 -0.3052 -0.8904  0.5531
26353SOL    HW285023   7.227  11.230   0.737 -0.2288  0.7854  0.0394
26354SOL     OW85024   6.186   9.017   7.056  0.0014  0.2087 -0.1331
26354SOL    HW185025   6.236   9.078   7.003 -0.5833 -0.6010 -1.6938
26354SOL    HW285026   6.095   9.044   7.044 -0.1770 -0.3022  0.0347
26355SOL     OW85027   5.251   0.296  10.510  0.2035  0.0997 -0.5903
26355SOL    HW185028   5.163   0.310  10.545  0.2538  1.9525 -1.0727
26355SOL    HW285029   5.249   0.207  10.475 -1.7112  0.3434 -1.2335
26356SOL     OW85030  10.101   3.878   9.246  1.0006  0.2182 -0.0671
26356SOL    HW185031  10.104   3.801   9.303  1.0649 -1.1486 -1.8516
26356SOL    HW285032  10.193   3.897   9.227  0.9698  0.5727  0.1175
26357SOL     OW85033   6.782   0.230   2.643 -0.0758  0.2322 -0.5238
26357SOL    HW185034   6.783   0.265   2.554  0.9069  1.4475 -0.0574
26357SOL    HW285035   6.735   0.296   2.694 -0.0749 -0.1513 -0.0210
26358SOL     OW85036  12.197   7.634   5.275  0.0812  0.3293 -0.0215
26358SOL    HW185037  12.169   7.567   5.338  0.0094  0.2741 -0.1125
26358SOL    HW285038  12.265   7.684   5.322  0.6059 -0.2163 -0.1801
26359SOL     OW85039   8.745  10.939   1.654 -0.0177  0.5769  0.4044
26359SOL    HW185040   8.675  11.003   1.658 -0.2219  0.3852  0.0014
26359SOL    HW285041   8.765  10.930   1.560  0.6077  0.6989  0.5195
26360SOL     OW85042   0.030   7.985  11.409 -0.0170 -0.0952 -0.0274
26360SOL    HW185043   0.022   8.060  11.469  0.4026  0.8403 -1.0970
26360SOL    HW285044   0.124   7.972  11.399 -0.0863 -0.4881 -0.1888
26361SOL     OW85045  10.833  10.661   7.239 -0.2352  0.0872  0.7566
26361SOL    HW185046  10.743  10.677   7.269 -0.2218  1.9757 -0.0783
26361SOL    HW285047  10.824  10.592   7.173 -1.0052 -0.1291  1.0763
26362SOL     OW85048   6.315   3.188   8.053 -0.9684 -0.0261 -0.4287
26362SOL    HW185049   6.263   3.246   8.108 -0.8022 -0.9208  0.7126
26362SOL    HW285050   6.266   3.184   7.971 -0.3951  2.5886 -0.9883
26363SOL     OW85051   8.611   9.436   7.891 -0.4512 -0.4435 -0.2284
26363SOL    HW185052   8.672   9.493   7.843 -0.3998 -0.0041  0.3439
26363SOL    HW285053   8.634   9.348   7.863 -1.1654 -0.1433 -1.8756
26364SOL     OW85054   7.258   6.857  10.529  0.3597  0.1946 -0.5735
26364SOL    HW185055   7.291   6.926  10.587 -1.5834  0.0444  0.8238
26364SOL    HW285056   7.331   6.796  10.520  0.7216  0.1844  1.8485
26365SOL     OW85057   8.869   4.319   4.376  0.4595 -0.6283  0.2423
26365SOL    HW185058   8.828   4.233   4.375 -0.5561 -0.2213 -2.2699
26365SOL    HW285059   8.957   4.304   4.342  2.2211 -1.3306  4.5845
26366SOL     OW85060   7.064  10.056   4.460 -0.2151 -0.3660 -0.7864
26366SOL    HW185061   7.075   9.978   4.406  0.2035  0.2223 -1.5927
26366SOL    HW285062   7.151  10.074   4.495  0.0923  0.7124 -2.0300
26367SOL     OW85063   8.285   6.378   9.824  0.1573 -0.1596  0.1055
26367SOL    HW185064   8.218   6.439   9.856 -0.5414 -1.6988  1.7576
26367SOL    HW285065   8.346   6.367   9.897  2.6370  1.6273 -1.5429
26368SOL     OW85066   4.602   6.182   5.193 -0.1439 -0.2241  0.4474
26368SOL    HW185067   4.653   6.149   5.119  0.7469  0.2433  0.8495
26368SOL    HW285068   4.626   6.274   5.200 -1.7254  0.2464  0.0892
26369SOL     OW85069   2.617   6.620   3.057  0.2009 -0.0781 -0.0552
26369SOL    HW185070   2.549   6.685   3.042 -0.0604  0.4908  3.0232
26369SOL    HW285071   2.696   6.671   3.076  0.3991 -0.6598  0.7427
26370SOL     OW85072   4.561   8.980   7.453 -0.1435 -0.4008 -0.5320
26370SOL    HW185073   4.600   9.034   7.521  0.8954  0.2685 -1.6253
26370SOL    HW285074   4.635   8.946   7.403 -0.8194 -2.0773 -0.4545
26371SOL     OW85075   8.410   2.276   1.927  0.1951 -0.0229  0.5372
26371SOL    HW185076   8.439   2.363   1.902  2.7141 -0.8564  0.2023
26371SOL    HW285077   8.400   2.280   2.022 -1.8267  1.1356  0.3181
26372SOL     OW85078   4.030  12.080   4.843  0.0902  0.7641  0.4769
26372SOL    HW185079   4.064  12.092   4.932 -0.4556 -0.5609  0.8775
26372SOL    HW285080   4.101  12.037   4.796 -0.0030  0.5218  0.5567
26373SOL     OW85081   8.615  10.498   9.288  0.4568  0.5386 -0.2688
26373SOL    HW185082   8.616  10.552   9.367 -0.9056 -0.2851  0.3519
26373SOL    HW285083   8.673  10.544   9.227  2.4970  0.5751  1.5851
26374SOL     OW85084  12.319   8.421   0.572 -0.4381 -0.3764  0.0057
26374SOL    HW185085  12.323   8.377   0.487  0.4249 -0.3897  0.0411
26374SOL    HW285086  12.401   8.470   0.577 -0.8072  0.2039  0.5260
26375SOL     OW85087   3.482   5.396  10.205 -0.5498 -0.0127  0.7680
26375SOL    HW185088   3.467   5.458  10.134  1.0597  0.6644  0.9709
26375SOL    HW285089   3.506   5.450  10.280  0.7531 -0.8364  0.9822
26376SOL     OW85090   7.915   1.415   3.148 -0.4488  0.1882  0.0688
26376SOL    HW185091   7.939   1.497   3.105  1.6999  0.6032  1.8727
26376SOL    HW285092   7.936   1.429   3.240 -0.2812 -2.2858  0.4805
26377SOL     OW85093  12.473   6.586  11.736 -0.6470  0.2913 -0.2826
26377SOL    HW185094  12.426   6.629  11.664 -1.6214 -1.5554 -0.8291
26377SOL    HW285095  12.465   6.493  11.717 -0.0584 -0.2161  1.7134
26378SOL     OW85096  10.131   4.543   6.487 -0.2667  0.1029  0.0147
26378SOL    HW185097  10.205   4.487   6.463  0.6553  1.3340 -0.1206
26378SOL    HW285098  10.158   4.585   6.569 -1.2621 -0.2270  0.5173
26379SOL     OW85099   7.484  10.807   4.529 -0.4100  0.2582 -0.3707
26379SOL    HW185100   7.571  10.783   4.562 -0.4964  1.7321  1.0381
26379SOL    HW285101   7.502  10.858   4.450 -0.0026  0.5717 -0.0767
26380SOL     OW85102   1.814   6.686   3.132 -0.0698 -0.2085 -0.1409
26380SOL    HW185103   1.845   6.734   3.055  0.8842 -0.1763  0.2413
26380SOL    HW285104   1.809   6.753   3.201 -2.5560  0.1132 -0.5618
26381SOL     OW85105   0.973  10.159   0.400 -0.1288 -0.5427  0.3480
26381SOL    HW185106   0.993  10.104   0.475  0.6415 -0.9626 -0.1599
26381SOL    HW285107   1.041  10.139   0.335 -1.8420 -1.6357 -1.2350
26382SOL     OW85108   3.465  12.266  10.014  0.3803 -0.0848  0.3242
26382SOL    HW185109   3.509  12.223  10.087  0.7431  0.9911  0.7663
26382SOL    HW285110   3.373  12.272  10.040  0.1553 -1.3644 -0.1292
26383SOL     OW85111   8.684   5.658   4.740 -0.4570  0.1933 -0.0441
26383SOL    HW185112   8.661   5.692   4.654 -0.2840 -0.4339 -0.3428
26383SOL    HW285113   8.601   5.652   4.787 -0.5046  0.9081 -0.0242
26384SOL     OW85114   8.384   6.253   0.357  0.3573  0.7001 -0.1760
26384SOL    HW185115   8.392   6.242   0.452  1.0662 -0.9904 -0.3915
26384SOL    HW285116   8.294   6.225   0.338  0.9410 -1.3109 -0.2357
26385SOL     OW85117  11.162   1.790   3.728 -0.1723 -0.0961  0.7261
26385SOL    HW185118  11.159   1.860   3.793  1.3655  0.8662 -0.1965
26385SOL    HW285119  11.245   1.802   3.683 -0.6120 -1.5427 -0.5517
26386SOL     OW85120   3.612   7.004   1.470  0.0969 -0.4093  0.2754
26386SOL    HW185121   3.662   6.936   1.424  0.2320 -0.0665 -0.0907
26386SOL    HW285122   3.529   7.009   1.424  0.8438  1.0881 -1.0219
26387SOL     OW85123  11.961   2.881   3.853 -0.3800 -0.0079 -0.2780
26387SOL    HW185124  11.910   2.962   3.855  0.5278  0.6145 -1.1817
26387SOL    HW285125  11.990   2.873   3.762 -1.3092 -1.9168 -0.4628
26388SOL     OW85126   2.668   0.932   8.032 -0.1098 -0.1046 -0.4222
26388SOL    HW185127   2.747   0.946   8.084 -0.6208 -0.7083  0.5502
26388SOL    HW285128   2.669   1.002   7.967  0.6754  0.5301  0.2500
26389SOL     OW85129   5.304   9.874   0.219  0.3188 -0.0619  0.3608
26389SOL    HW185130   5.382   9.921   0.192 -0.5700  1.7041  0.7097
26389SOL    HW285131   5.240   9.942   0.239 -2.6029 -1.3022 -3.4038
26390SOL     OW85132   9.131   7.239   9.970 -0.2335  0.2165  0.4152
26390SOL    HW185133   9.227   7.239   9.967 -0.2398  0.6684  0.0583
26390SOL    HW285134   9.109   7.174  10.037  0.3167 -0.0015  0.3896
26391SOL     OW85135   0.752   9.531   9.202  0.2503 -0.1331  0.5113
26391SOL    HW185136   0.717   9.620   9.199  1.7227  0.5611  2.3276
26391SOL    HW285137   0.676   9.477   9.222 -0.5437  0.7763  0.0671
26392SOL     OW85138   7.358   1.351   2.700  0.2418  0.2007 -0.1076
26392SOL    HW185139   7.357   1.391   2.787  1.6005 -1.2618  0.6185
26392SOL    HW285140   7.377   1.424   2.640 -1.2650  1.3337  0.7016
26393SOL     OW85141   3.581   9.367   5.035 -0.3039 -0.4658 -0.6891
26393SOL    HW185142   3.521   9.312   4.986 -4.1235  0.1785  2.6792
26393SOL    HW285143   3.630   9.306   5.091 -0.3177 -0.8044 -1.0473
26394SOL     OW85144   4.258   7.524   3.150 -0.3768  0.4277  0.0811
26394SOL    HW185145   4.329   7.476   3.108 -0.5686  0.4350 -0.2567
26394SOL    HW285146   4.260   7.496   3.241 -0.0178  0.3381  0.0457
26395SOL     OW85147   6.092   6.286   6.491 -0.1449  0.0420 -0.1817
26395SOL    HW185148   6.082   6.199   6.529  0.4523 -0.1463 -0.4485
26395SOL    HW285149   6.088   6.271   6.396  0.5072  0.2342 -0.2407
26396SOL     OW85150  12.360   6.411   7.819  0.5633 -0.1947  0.1019
26396SOL    HW185151  12.433   6.447   7.770 -0.5044  2.5820  0.4056
26396SOL    HW285152  12.286   6.468   7.799 -0.7428 -0.9614  2.3132
26397SOL     OW85153   4.756   9.952  11.036  0.4383 -0.0988 -0.3406
26397SOL    HW185154   4.805   9.950  10.954  1.6369 -0.7764  0.3592
26397SOL    HW285155   4.822   9.939  11.104 -0.5258  0.4587  0.7451
26398SOL     OW85156   1.724   9.369   5.883 -0.2183 -0.1840  0.3991
26398SOL    HW185157   1.659   9.299   5.887  2.5478 -2.9329  0.6217
26398SOL    HW285158   1.757   9.366   5.793 -2.6041  3.5911 -0.8732
26399SOL     OW85159   6.789   9.876   0.293  0.3733  0.5020 -0.4591
26399SOL    HW185160   6.745   9.932   0.357 -0.8705 -0.4005 -0.4845
26399SOL    HW285161   6.765   9.787   0.320  0.0622  0.1026 -2.0004
26400SOL     OW85162   6.952  11.548   1.142  0.3672  0.6492  0.4000
26400SOL    HW185163   6.983  11.511   1.225  0.5014  1.3984  0.6951
26400SOL    HW285164   6.857  11.541   1.147  0.3870  0.4209  0.4870
26401SOL     OW85165   1.010   4.126   0.785  0.9322  0.2819  0.0939
26401SOL    HW185166   1.048   4.117   0.697  0.3657 -2.6803  0.0436
26401SOL    HW285167   1.086   4.124   0.844  1.2526  1.3300 -0.2675
26402SOL     OW85168   2.792   7.609   3.846  0.5886 -0.8150  0.0548
26402SOL    HW185169   2.818   7.666   3.774  1.5558 -1.3027 -0.0056
26402SOL    HW285170   2.715   7.563   3.813  0.6395 -0.5652 -0.4253
26403SOL     OW85171   8.691   2.613   1.619 -0.5742  0.3220  0.8265
26403SOL    HW185172   8.708   2.520   1.604  1.8723  0.9689 -0.9968
26403SOL    HW285173   8.677   2.620   1.714  1.2808 -1.6327  1.3167
26404SOL     OW85174   9.992  12.065   2.546  0.4144 -0.1570  0.8334
26404SOL    HW185175   9.935  12.140   2.561  0.9744  0.2795  0.8051
26404SOL    HW285176  10.063  12.098   2.490 -0.5358 -1.2584 -1.1239
26405SOL     OW85177  11.514   9.543   9.424 -0.1499 -0.2123  0.2310
26405SOL    HW185178  11.542   9.527   9.333 -0.4961 -2.5564  0.4542
26405SOL    HW285179  11.517   9.638   9.434  0.2770  0.0890 -2.1119
26406SOL     OW85180  11.012   8.627   3.399 -0.1894 -0.3017 -0.0792
26406SOL    HW185181  10.923   8.661   3.392 -0.5916 -1.2139  0.3849
26406SOL    HW285182  11.039   8.649   3.489  0.1572  0.2107 -0.3069
26407SOL     OW85183   7.533   3.957   5.936 -0.1202  0.0358 -0.0033
26407SOL    HW185184   7.615   3.952   5.986 -0.1062  0.5304  0.0300
26407SOL    HW285185   7.464   3.943   6.001 -0.1347  1.3843  0.3009
26408SOL     OW85186   7.720   4.533  12.430 -0.2650 -0.4312 -0.1223
26408SOL    HW185187   7.671   4.456  12.458 -1.4291  0.3349  0.0161
26408SOL    HW285188   7.666   4.607  12.456  0.7799  0.4422 -0.3482
26409SOL     OW85189   8.747   9.428   2.279  0.0960  0.3252  0.1181
26409SOL    HW185190   8.820   9.428   2.217 -0.3763  0.4848 -0.4434
26409SOL    HW285191   8.783   9.471   2.357  0.2576  1.5241 -0.5834
26410SOL     OW85192  11.188  10.530   3.808  0.0825  0.3208  0.1707
26410SOL    HW185193  11.247  10.461   3.837  0.0766  0.6524  0.9844
26410SOL    HW285194  11.243  10.588   3.755  0.7105  1.0907  1.6246
26411SOL     OW85195  11.341   0.125   6.023  0.2300  0.0551 -0.4774
26411SOL    HW185196  11.422   0.175   6.014 -0.1547  0.8121  0.1147
26411SOL    HW285197  11.293   0.142   5.942  0.8479 -0.7831 -1.0451
26412SOL     OW85198   9.901   5.776   7.127  1.1991  0.5349 -0.0443
26412SOL    HW185199   9.907   5.871   7.139  0.9477  0.4218  1.1173
26412SOL    HW285200   9.818   5.752   7.169  1.2928 -0.2106 -0.2736
26413SOL     OW85201   1.747   4.170   4.320 -0.8768  0.1965 -0.0093
26413SOL    HW185202   1.761   4.172   4.225 -0.3361 -2.1287 -0.0371
26413SOL    HW285203   1.708   4.085   4.337  0.0940  0.0882  1.9753
26414SOL     OW85204   7.635   4.951   2.324 -0.7525 -0.1613 -0.3834
26414SOL    HW185205   7.610   4.859   2.316  2.2319 -1.2751  1.4537
26414SOL    HW285206   7.666   4.974   2.236 -1.1620 -1.0293 -0.7721
26415SOL     OW85207   4.528   1.616  10.848 -0.0834 -0.2699  0.2112
26415SOL    HW185208   4.569   1.643  10.930  0.7318  0.6298 -0.4793
26415SOL    HW285209   4.445   1.576  10.875  1.0144 -1.7254  1.6068
26416SOL     OW85210   3.866   0.080   2.168  0.8208 -0.2051  0.2264
26416SOL    HW185211   3.828  -0.003   2.140  0.3294  0.0808  0.0242
26416SOL    HW285212   3.938   0.096   2.107  1.4250 -0.8627  0.7516
26417SOL     OW85213   7.135  10.197   3.985 -0.7650 -0.3297 -0.4566
26417SOL    HW185214   7.219  10.209   4.029  1.1240 -1.4844 -3.4321
26417SOL    HW285215   7.106  10.110   4.013  0.2608 -0.9275 -1.1661
26418SOL     OW85216   7.555   4.238   5.133 -0.0042 -0.5148  0.0170
26418SOL    HW185217   7.568   4.162   5.077  0.8190 -0.4408  0.0995
26418SOL    HW285218   7.461   4.238   5.153 -0.3457 -0.4738 -1.4693
26419SOL     OW85219   9.415  12.133   1.848  0.1129  0.4612 -0.5718
26419SOL    HW185220   9.419  12.195   1.921 -2.8261 -0.7432  0.7723
26419SOL    HW285221   9.432  12.048   1.887 -1.3575 -0.1852 -1.2769
26420SOL     OW85222   0.702   4.783   6.048  0.0396 -0.3001 -0.5659
26420SOL    HW185223   0.726   4.702   6.003 -0.4129  0.2929 -1.9239
26420SOL    HW285224   0.608   4.793   6.031  0.3850  1.2948 -1.7577
26421SOL     OW85225   2.748   9.876   4.717  0.5823 -0.0940 -0.5225
26421SOL    HW185226   2.719   9.790   4.686 -0.8732  0.5317 -0.9938
26421SOL    HW285227   2.667   9.928   4.723  0.7262  0.0037  4.0287
26422SOL     OW85228   8.457   3.442   5.802  0.4095  0.5746  0.7663
26422SOL    HW185229   8.541   3.440   5.847 -0.7381  0.9447  3.0340
26422SOL    HW285230   8.393   3.415   5.868 -1.1360 -1.1827 -1.2870
26423SOL     OW85231   3.867   2.537   8.830  0.6195 -0.2566 -0.3422
26423SOL    HW185232   3.849   2.542   8.923 -0.1007 -0.2898 -0.4757
26423SOL    HW285233   3.963   2.532   8.824  0.6105 -3.8276  0.5853
26424SOL     OW85234   8.900  10.267   6.922  0.4285 -0.3198 -0.3065
26424SOL    HW185235   8.886  10.189   6.868 -0.7727  0.6614 -1.4808
26424SOL    HW285236   8.874  10.340   6.866  0.9028  0.8927  0.9883
26425SOL     OW85237  10.613  10.896   0.767  0.3598 -0.1675  0.3988
26425SOL    HW185238  10.694  10.851   0.741 -0.3594 -1.1587 -0.2105
26425SOL    HW285239  10.580  10.845   0.840  1.4869  1.6329  2.2584
26426SOL     OW85240   3.425   2.895   3.225  0.0279 -0.1537 -0.0925
26426SOL    HW185241   3.448   2.846   3.146 -1.1011  0.0367 -0.5571
26426SOL    HW285242   3.499   2.881   3.284  0.8947 -0.2897 -1.1817
26427SOL     OW85243   2.444  12.441  10.398 -0.2828 -0.3304 -0.4383
26427SOL    HW185244   2.361  12.436  10.446 -0.8394  0.7316 -1.2551
26427SOL    HW285245   2.440  12.369  10.336 -0.9586  0.1942 -1.0170
26428SOL     OW85246   7.969   0.291   5.333  0.2040 -0.3544 -0.1022
26428SOL    HW185247   8.009   0.377   5.319  1.4848 -1.0672 -1.0003
26428SOL    HW285248   7.944   0.261   5.245  0.4798 -1.2217  0.1036
26429SOL     OW85249   5.415   9.794   2.059 -0.5739  0.2177 -0.1763
26429SOL    HW185250   5.495   9.787   2.110 -0.3892 -0.1211 -0.5105
26429SOL    HW285251   5.422   9.726   1.992 -0.7071  0.7914 -0.7964
26430SOL     OW85252   1.679   3.593   5.209  0.1988  0.3361  0.3160
26430SOL    HW185253   1.657   3.500   5.215  3.0353 -0.3467  1.8487
26430SOL    HW285254   1.732   3.610   5.287  1.0427  2.8641 -0.7107
26431SOL     OW85255   2.221   5.852   2.257  0.4554 -0.4210  0.2080
26431SOL    HW185256   2.204   5.902   2.337  0.3272  0.6807 -0.4903
26431SOL    HW285257   2.140   5.804   2.241  1.3225 -2.7599  2.1572
26432SOL     OW85258  10.301   5.778   5.963 -0.0176 -0.0519 -0.1354
26432SOL    HW185259  10.235   5.843   5.986 -0.2369 -0.4603  0.4228
26432SOL    HW285260  10.251   5.698   5.946  0.3132 -0.3069  0.0790
26433SOL     OW85261   5.697   1.376  10.958 -0.5496  0.1822  0.3959
26433SOL    HW185262   5.612   1.412  10.935  0.3813  2.0247 -0.3646
26433SOL    HW285263   5.755   1.452  10.966  0.6542 -0.8585  2.6513
26434SOL     OW85264   5.521  11.382   6.987  0.8139  0.5553 -0.0423
26434SOL    HW185265   5.585  11.319   7.021  0.2164  1.4440  3.0429
26434SOL    HW285266   5.561  11.467   7.003  1.1795  1.1045 -3.2582
26435SOL     OW85267   8.797   5.639   4.020  0.2746 -0.2270  0.1378
26435SOL    HW185268   8.767   5.664   4.107  0.6139  0.1178  0.1604
26435SOL    HW285269   8.764   5.551   4.007  0.2337 -0.2844  0.6191
26436SOL     OW85270  10.997   7.457   3.141 -0.1018  0.5002  0.0950
26436SOL    HW185271  11.052   7.525   3.179  0.5317  0.6570 -1.0671
26436SOL    HW285272  10.948   7.421   3.216  0.4821  1.3582  0.9113
26437SOL     OW85273   8.250   6.258   5.125  0.1841 -0.4593 -0.2522
26437SOL    HW185274   8.307   6.203   5.071  2.0949  2.8916 -1.9761
26437SOL    HW285275   8.309   6.301   5.187 -1.1688 -0.1059  0.8510
26438SOL     OW85276   4.592   5.725  10.596  0.0274  0.7229 -0.4683
26438SOL    HW185277   4.672   5.771  10.621  0.2302  0.2397 -0.2137
26438SOL    HW285278   4.597   5.641  10.642  0.7207 -0.4754 -2.6132
26439SOL     OW85279   7.760   2.380  12.200 -0.1427  0.3085 -0.5072
26439SOL    HW185280   7.763   2.288  12.227 -1.2572  0.1947 -0.7317
26439SOL    HW285281   7.801   2.382  12.114 -0.6725 -0.0883 -0.7727
26440SOL     OW85282   0.870  12.149   3.310  0.0787 -0.2166 -0.8405
26440SOL    HW185283   0.951  12.118   3.270  0.0164  0.3056 -1.3750
26440SOL    HW285284   0.816  12.071   3.318  1.1238 -0.8446  0.7683
26441SOL     OW85285   2.942  11.279  11.777  0.6186 -0.1566  0.2234
26441SOL    HW185286   2.909  11.368  11.780 -0.4759 -0.5733  2.7117
26441SOL    HW285287   2.864  11.224  11.779  1.3216 -1.1643  1.1381
26442SOL     OW85288  11.540   6.412   9.300  0.3303  0.3148 -0.2691
26442SOL    HW185289  11.457   6.458   9.312 -0.5073 -0.9782 -0.8027
26442SOL    HW285290  11.565   6.431   9.210 -1.3031 -2.1375 -1.3536
26443SOL     OW85291  11.148   4.638   6.126  0.1995  0.7478 -0.0985
26443SOL    HW185292  11.107   4.552   6.126  1.3773  0.1452  1.0955
26443SOL    HW285293  11.135   4.671   6.215 -0.4939  1.9617 -0.6201
26444SOL     OW85294  11.834   0.756   5.179 -0.2409 -0.2437  0.7337
26444SOL    HW185295  11.874   0.712   5.104  1.2307  1.8982  0.1835
26444SOL    HW285296  11.740   0.746   5.165  0.0082  0.0198 -1.3575
26445SOL     OW85297   0.234  10.372   5.924  0.7674 -0.2612 -0.0515
26445SOL    HW185298   0.244  10.453   5.875 -0.7085  0.9567  1.5650
26445SOL    HW285299   0.145  10.374   5.957  1.3337 -1.5751  1.7342
26446SOL     OW85300   2.568   9.408   5.285 -0.1320  0.0703  0.6995
26446SOL    HW185301   2.620   9.336   5.320  1.6596  0.3860 -1.0948
26446SOL    HW285302   2.478   9.386   5.307  0.1548 -3.4893 -0.9867
26447SOL     OW85303   4.809   7.969  11.321  0.1240 -0.3486  0.6684
26447SOL    HW185304   4.804   8.029  11.395  0.7350 -0.0344  0.4667
26447SOL    HW285305   4.738   7.997  11.263  0.2221  0.0036  0.7106
26448SOL     OW85306  10.273  11.205   8.381  0.0220  0.4242 -0.0555
26448SOL    HW185307  10.325  11.176   8.455 -0.3798  0.9719  0.4520
26448SOL    HW285308  10.302  11.295   8.365  0.1850  0.2774 -0.6409
26449SOL     OW85309  11.878   5.725   7.207  0.1632  0.0589  0.4280
26449SOL    HW185310  11.905   5.756   7.293 -0.1393  0.2857  0.4449
26449SOL    HW285311  11.959   5.720   7.156  0.4396 -0.7180  0.9212
26450SOL     OW85312   5.454  12.021   7.032  0.0811 -0.4712  0.1565
26450SOL    HW185313   5.450  11.947   6.972 -0.6151  1.2139 -2.0358
26450SOL    HW285314   5.507  12.086   6.986 -0.7673  1.0281  1.1887
26451SOL     OW85315   2.066   8.442   6.050 -0.3646  0.1134 -0.0540
26451SOL    HW185316   2.104   8.408   6.131 -0.9828 -1.1308 -0.2611
26451SOL    HW285317   1.972   8.450   6.070 -0.6372 -0.9212 -0.8643
26452SOL     OW85318   7.735   0.789  10.467 -0.3432  0.1190 -0.1845
26452SOL    HW185319   7.792   0.772  10.542 -1.4704  0.4784  0.7860
26452SOL    HW285320   7.795   0.808  10.395  0.8078 -1.3271  0.3309
26453SOL     OW85321  12.061   0.183   2.765  0.3108  0.1254  0.1958
26453SOL    HW185322  12.097   0.249   2.824  1.2946 -0.8491  0.7247
26453SOL    HW285323  12.021   0.118   2.824 -0.8658  0.3469 -0.3216
26454SOL     OW85324  11.756   8.125   5.198 -0.8211  0.0062 -0.3630
26454SOL    HW185325  11.841   8.096   5.167 -1.5774 -3.8157  0.6124
26454SOL    HW285326  11.746   8.214   5.163  2.4523 -0.3295 -2.5407
26455SOL     OW85327  12.296  10.749  11.172  0.1364 -0.0219  0.1188
26455SOL    HW185328  12.390  10.729  11.174 -0.1359 -1.6578 -1.1065
26455SOL    HW285329  12.292  10.842  11.147  1.4241 -0.0884 -0.4100
26456SOL     OW85330   0.031   3.465   6.945  0.1532  0.3862  0.0843
26456SOL    HW185331   0.045   3.520   7.022  1.2379  0.0392  0.1546
26456SOL    HW285332  -0.035   3.401   6.973 -0.3995  1.0491  0.3084
26457SOL     OW85333   4.140   4.769   4.849 -0.4221 -0.2685 -0.1045
26457SOL    HW185334   4.226   4.729   4.839 -0.3356 -0.0248 -0.3256
26457SOL    HW285335   4.111   4.787   4.760 -2.0645 -3.2087 -0.2877
26458SOL     OW85336   3.112  11.216   6.913  0.9005 -0.0253  0.0147
26458SOL    HW185337   3.139  11.259   6.831 -2.6574  1.5092 -0.5303
26458SOL    HW285338   3.155  11.268   6.981 -1.0574  2.8487 -0.7514
26459SOL     OW85339   5.162   4.519   0.363  0.5241 -0.2849  0.4018
26459SOL    HW185340   5.219   4.490   0.293  0.6811 -0.4066  0.5786
26459SOL    HW285341   5.075   4.488   0.338  0.4805  0.1507 -0.0102
26460SOL     OW85342   8.912   2.030   4.300 -0.3313 -0.4904 -0.5464
26460SOL    HW185343   8.862   1.951   4.320 -2.3170  0.4006 -1.6938
26460SOL    HW285344   8.901   2.042   4.206  1.4794  0.1859 -0.7278
26461SOL     OW85345   7.349   9.068  11.764  0.0038  0.1836 -0.1993
26461SOL    HW185346   7.429   9.120  11.753 -1.3068  1.9094 -2.6086
26461SOL    HW285347   7.299   9.116  11.830  0.4108 -0.2026  0.3988
26462SOL     OW85348   4.631   5.690   8.652 -0.1475 -0.3646 -0.2362
26462SOL    HW185349   4.658   5.780   8.631  0.6174 -0.9591 -2.0295
26462SOL    HW285350   4.713   5.643   8.667 -0.4719 -0.9949 -0.3952
26463SOL     OW85351   7.999  12.469   2.900  0.1272 -0.5620 -0.2454
26463SOL    HW185352   8.025  12.561   2.904  0.7146 -0.7010 -0.7314
26463SOL    HW285353   7.978  12.445   2.990 -2.2328  0.6699 -0.3723
26464SOL     OW85354  12.433   7.414   8.889 -0.0730 -0.0249 -0.0021
26464SOL    HW185355  12.526   7.392   8.883  0.1945  1.3149 -1.0914
26464SOL    HW285356  12.414   7.411   8.983  0.7944 -1.3389  0.1601
26465SOL     OW85357  11.318   1.099   8.160  0.0586  1.1074  0.0034
26465SOL    HW185358  11.257   1.099   8.086  1.4516 -2.0340 -1.3580
26465SOL    HW285359  11.263   1.114   8.237 -2.2886 -0.3103 -1.2754
26466SOL     OW85360   1.965   6.726   5.392 -0.5432 -0.6417  0.0012
26466SOL    HW185361   2.004   6.742   5.306  0.4356  1.5283  0.7719
26466SOL    HW285362   1.872   6.747   5.381  0.0511  2.4821  0.0465
26467SOL     OW85363   3.359   3.166   5.862 -0.1356  0.5419 -0.6578
26467SOL    HW185364   3.282   3.221   5.848 -0.5339  0.7965  2.0560
26467SOL    HW285365   3.432   3.221   5.834 -0.7586  1.2490 -0.9468
26468SOL     OW85366   9.484   1.414   5.436  0.1626 -0.5871  0.5682
26468SOL    HW185367   9.498   1.370   5.353 -0.1497 -1.6999  1.0844
26468SOL    HW285368   9.435   1.493   5.414  1.3617 -0.1023 -0.4613
26469SOL     OW85369  10.524   2.990   8.079  0.2170 -0.1498 -0.0518
26469SOL    HW185370  10.615   2.998   8.105 -0.2283 -2.9091  2.9793
26469SOL    HW285371  10.475   3.030   8.151 -1.0104 -0.9698 -0.4033
26470SOL     OW85372   3.209   9.609   9.642  0.5181 -0.4649 -0.1659
26470SOL    HW185373   3.255   9.525   9.643 -1.0166 -1.3682 -0.9248
26470SOL    HW285374   3.165   9.613   9.727  0.0835 -0.7690 -0.3641
26471SOL     OW85375   9.020   2.115   4.770 -1.2359  0.4182 -0.3740
26471SOL    HW185376   8.946   2.077   4.817 -0.5680  0.3836  0.6719
26471SOL    HW285377   9.034   2.054   4.697 -2.9440  1.0352 -1.2823
26472SOL     OW85378   7.578   4.627   6.461  0.6446 -0.5371  0.0477
26472SOL    HW185379   7.596   4.652   6.370 -0.6775  0.8699  0.1290
26472SOL    HW285380   7.506   4.564   6.455 -1.2934  1.5369  0.1764
26473SOL     OW85381   5.336   5.850   7.980  0.5453  0.0674  0.0348
26473SOL    HW185382   5.246   5.820   7.972  0.6404 -0.2963  0.3190
26473SOL    HW285383   5.384   5.774   8.013  1.2638 -0.2676 -1.6725
26474SOL     OW85384   6.397   8.341   4.552 -0.4741 -0.0697 -0.1159
26474SOL    HW185385   6.464   8.312   4.615 -0.7418 -0.4762 -0.0165
26474SOL    HW285386   6.378   8.431   4.579 -0.0884 -0.0069 -0.0393
26475SOL     OW85387   0.236  11.039   5.904  0.2801 -0.5940 -0.3917
26475SOL    HW185388   0.240  11.134   5.916 -0.5819 -0.7176  1.1953
26475SOL    HW285389   0.324  11.014   5.877  0.5768  0.6287 -0.5937
26476SOL     OW85390   2.206  11.339  11.107 -0.0026 -0.2025 -0.3067
26476SOL    HW185391   2.235  11.358  11.196  0.4719 -0.2252 -0.4483
26476SOL    HW285392   2.227  11.246  11.094 -1.1166 -0.5039 -0.0614
26477SOL     OW85393   6.570   7.683   0.179 -0.1387 -0.5351 -0.3028
26477SOL    HW185394   6.493   7.679   0.122  0.2580 -0.3206 -0.8619
26477SOL    HW285395   6.616   7.763   0.153  0.1437 -0.5239  0.2026
26478SOL     OW85396   7.990   4.921   8.891 -0.4882  1.1312  0.1386
26478SOL    HW185397   7.941   4.844   8.863 -1.5553  2.3053 -1.4024
26478SOL    HW285398   7.922   4.988   8.905  0.3028  1.5415  2.4659
26479SOL     OW85399  11.512   0.989   2.268  0.0429  0.0543  0.5659
26479SOL    HW185400  11.444   0.986   2.336  0.7418  0.9934  1.3183
26479SOL    HW285401  11.493   1.068   2.219  1.1800  0.9053  1.4349
26480SOL     OW85402   3.312  10.288   6.748  0.2394  0.2512 -0.1506
26480SOL    HW185403   3.385  10.323   6.696  1.6081 -1.3048  0.6476
26480SOL    HW285404   3.315  10.194   6.734 -0.5457 -0.0107  1.2871
26481SOL     OW85405   7.284   9.923   5.808 -0.4385 -0.4522 -0.0020
26481SOL    HW185406   7.255   9.987   5.743  0.0298 -0.3165 -0.0810
26481SOL    HW285407   7.327   9.976   5.876 -0.2152 -0.6613  0.0233
26482SOL     OW85408   4.018   1.442   1.714 -0.0970 -0.0038  0.2449
26482SOL    HW185409   3.987   1.411   1.799 -2.4383 -0.6608 -0.7841
26482SOL    HW285410   3.954   1.410   1.651  2.2973 -0.7499 -2.0082
26483SOL     OW85411   5.024  11.552   1.777 -0.0683  0.4045  0.0614
26483SOL    HW185412   5.032  11.459   1.755  0.2158 -0.0767  2.0087
26483SOL    HW285413   4.967  11.553   1.854  3.9498  1.2486  3.3718
26484SOL     OW85414  10.821   1.269   7.797  0.4911  0.1126 -0.1187
26484SOL    HW185415  10.786   1.348   7.838  1.0840 -0.0882  0.7981
26484SOL    HW285416  10.845   1.212   7.870 -0.5456 -1.2128 -0.7442
26485SOL     OW85417   8.697   5.217   6.210  0.5566 -0.3694  0.8194
26485SOL    HW185418   8.621   5.204   6.154 -0.7603 -0.4563  2.5564
26485SOL    HW285419   8.764   5.253   6.151 -0.3355 -1.5775 -1.0448
26486SOL     OW85420   1.833   4.659  10.078  0.0197  0.5176  0.2560
26486SOL    HW185421   1.796   4.655   9.990  0.0033 -1.1763  0.2980
26486SOL    HW285422   1.761   4.635  10.136  0.7083 -1.2439  0.4605
26487SOL     OW85423   9.979  12.059   7.008  0.0798  0.1383  0.1888
26487SOL    HW185424   9.999  12.074   6.915  0.9740  0.4939  0.4270
26487SOL    HW285425   9.904  12.000   7.007 -0.2077  0.5063 -0.7650
26488SOL     OW85426   2.780   8.555   8.421 -0.3512  0.3099  0.4545
26488SOL    HW185427   2.773   8.465   8.452 -0.3898 -0.2121 -0.9912
26488SOL    HW285428   2.864   8.586   8.455 -0.5089 -0.1403  1.2700
26489SOL     OW85429   5.328   4.731   9.700 -0.0794 -0.3466 -0.4473
26489SOL    HW185430   5.282   4.810   9.729 -0.0642 -0.6604  0.4626
26489SOL    HW285431   5.347   4.747   9.608 -1.7536 -0.0830 -0.7742
26490SOL     OW85432   9.558   6.215  11.283  0.2337 -0.7239 -0.0814
26490SOL    HW185433   9.587   6.137  11.330 -1.0933 -1.3596 -0.2416
26490SOL    HW285434   9.557   6.188  11.191  2.0433  0.2549 -0.4231
26491SOL     OW85435   6.445   1.988  11.479  0.3562  0.0961  0.5943
26491SOL    HW185436   6.416   1.896  11.472 -3.5104  0.9835  2.3146
26491SOL    HW285437   6.459   2.015  11.388 -2.8712 -1.0796 -0.3909
26492SOL     OW85438   5.983   3.513   1.226  0.2148  0.5253 -0.2773
26492SOL    HW185439   6.043   3.445   1.196  1.2417  0.2846  2.1418
26492SOL    HW285440   5.969   3.494   1.319 -1.5001  2.1546 -0.1382
26493SOL     OW85441  12.235   7.836  10.839  0.0100 -0.7124  0.3498
26493SOL    HW185442  12.326   7.836  10.867 -0.0120 -1.0577  0.4217
26493SOL    HW285443  12.233   7.779  10.762  0.2092  0.7691 -0.8204
26494SOL     OW85444   2.903  10.690   2.756 -0.7254  0.2870 -0.0270
26494SOL    HW185445   2.890  10.616   2.815  0.3909  0.2442  0.1753
26494SOL    HW285446   2.946  10.756   2.810 -2.5699  1.4930  0.0752
26495SOL     OW85447  11.214   2.883  10.202  0.0715  0.3835 -0.3201
26495SOL    HW185448  11.134   2.936  10.207  1.7804  3.3466 -1.2203
26495SOL    HW285449  11.237   2.866  10.293 -0.8191  0.7951 -0.0024
26496SOL     OW85450   1.591   2.767   6.489 -0.0758 -0.0985 -0.0755
26496SOL    HW185451   1.684   2.787   6.483  0.6690 -3.0727  0.3829
26496SOL    HW285452   1.548   2.843   6.449  2.4363  1.8691  0.7384
26497SOL     OW85453   9.732   9.618   5.248 -0.5334 -0.0012  0.4840
26497SOL    HW185454   9.671   9.572   5.191 -0.9379  1.8507 -0.6695
26497SOL    HW285455   9.680   9.686   5.290  0.5501  1.1917 -0.0067
26498SOL     OW85456  11.080  10.335   4.647 -0.0115  0.6928 -0.0848
26498SOL    HW185457  11.052  10.418   4.607 -0.5092 -0.7391 -3.0272
26498SOL    HW285458  11.014  10.272   4.618  0.5802 -0.8293  1.7372
26499SOL     OW85459   2.973   7.241   2.240 -0.6452  0.0700  0.4941
26499SOL    HW185460   2.926   7.159   2.223  0.7705 -0.7302  0.2364
26499SOL    HW285461   3.015   7.262   2.157  0.3522  0.1337  0.9972
26500SOL     OW85462   2.308   3.291   0.098  0.0172  0.1352  0.1929
26500SOL    HW185463   2.244   3.346   0.143  0.4050 -0.1488  1.1165
26500SOL    HW285464   2.392   3.315   0.137  0.2401 -0.8246  0.3186
26501SOL     OW85465   7.188   8.832   9.235 -0.1929 -0.2723  0.4420
26501SOL    HW185466   7.266   8.800   9.189  0.3439  1.1647  0.2925
26501SOL    HW285467   7.142   8.884   9.170 -1.5695 -1.5048  0.3891
26502SOL     OW85468  11.459   6.647   4.849 -0.4645 -0.1881 -0.0618
26502SOL    HW185469  11.466   6.706   4.775  0.5569  0.8082  0.7829
26502SOL    HW285470  11.521   6.681   4.913 -0.1953 -1.8939  0.6597
26503SOL     OW85471  12.244   9.412   9.274 -0.4879 -0.4759 -0.1303
26503SOL    HW185472  12.332   9.377   9.259  0.6822  1.6908  1.2051
26503SOL    HW285473  12.217   9.374   9.357 -0.0853  0.1714  0.3016
26504SOL     OW85474   1.617   1.466   4.675  0.0344 -0.1655 -0.4549
26504SOL    HW185475   1.687   1.410   4.643 -0.2533 -0.1786 -1.0680
26504SOL    HW285476   1.626   1.463   4.771  0.4008 -0.7565 -0.5025
26505SOL     OW85477   5.498   0.022   5.735 -0.2222 -0.1747  0.7093
26505SOL    HW185478   5.552   0.050   5.661  0.2621 -2.3532  0.1639
26505SOL    HW285479   5.452  -0.056   5.703  0.3727 -1.4776  2.8262
26506SOL     OW85480   2.657   3.068   5.976  0.5764 -0.7107  0.1919
26506SOL    HW185481   2.605   3.135   6.022  0.3507 -0.6136 -0.1951
26506SOL    HW285482   2.637   2.987   6.021  2.0246 -0.3122  1.6481
26507SOL     OW85483   0.277  10.603   0.106 -0.1800  0.2338  0.3398
26507SOL    HW185484   0.188  10.573   0.085 -0.1978  0.7597 -0.3535
26507SOL    HW285485   0.315  10.626   0.022  1.0129 -1.0382  0.5007
26508SOL     OW85486   8.447   7.653   5.610  0.2417  0.3343 -0.5744
26508SOL    HW185487   8.358   7.664   5.577  0.5237 -1.8197 -2.2440
26508SOL    HW285488   8.437   7.652   5.705 -1.3302  1.3461 -0.6914
26509SOL     OW85489   5.834  10.591   1.772 -0.0421 -0.0792 -0.0362
26509SOL    HW185490   5.774  10.579   1.699 -1.6606  0.1551  1.2057
26509SOL    HW285491   5.790  10.549   1.846  0.7820  1.1191  1.1752
26510SOL     OW85492  10.990   4.019   2.111 -0.5215  0.5015  0.4329
26510SOL    HW185493  11.043   4.091   2.077  1.4420 -1.6977 -1.4966
26510SOL    HW285494  11.054   3.950   2.133 -2.4346 -1.7083 -0.5050
26511SOL     OW85495   9.289   5.928   5.751 -0.3722 -0.0376 -0.3389
26511SOL    HW185496   9.322   5.851   5.705 -0.8963 -0.4266 -0.0737
26511SOL    HW285497   9.325   6.003   5.702  1.0132 -0.4290  0.0255
26512SOL     OW85498   8.878   1.566  10.501 -0.8147 -0.3758 -0.1722
26512SOL    HW185499   8.972   1.556  10.487 -0.7821 -2.3523  1.1132
26512SOL    HW285500   8.845   1.602  10.419  1.1138  0.8943 -0.4581
26513SOL     OW85501   0.330   3.767   9.374 -0.1378 -0.2686  0.3203
26513SOL    HW185502   0.355   3.707   9.443  2.2353 -0.5423 -0.6829
26513SOL    HW285503   0.333   3.715   9.294 -0.9587  0.5029 -0.2422
26514SOL     OW85504   0.275   4.077  10.334 -0.3366  0.4574 -0.6446
26514SOL    HW185505   0.193   4.039  10.367  0.3617 -0.4979  0.0671
26514SOL    HW285506   0.290   4.154  10.389  0.3087 -0.5687  0.6696
26515SOL     OW85507  11.137  10.593  11.676 -0.0523 -0.4864  0.6791
26515SOL    HW185508  11.166  10.502  11.668  0.6985 -0.0882 -1.8354
26515SOL    HW285509  11.216  10.642  11.698  0.2511 -0.0693 -1.1710
26516SOL     OW85510   9.336   8.751   0.948 -0.2519 -0.4982  0.7691
26516SOL    HW185511   9.257   8.805   0.945  0.6926  0.8783 -0.2773
26516SOL    HW285512   9.379   8.776   1.030  0.0021  0.0793  0.4622
26517SOL     OW85513   4.289  10.563   9.497  0.0651  0.0111  0.0319
26517SOL    HW185514   4.320  10.583   9.585 -0.9231  0.8063  0.2177
26517SOL    HW285515   4.279  10.467   9.496 -1.2961  0.1067  1.2924
26518SOL     OW85516   1.189  11.175  10.364 -0.2518 -0.2827  0.0727
26518SOL    HW185517   1.170  11.207  10.276 -1.0703 -0.4088  0.1919
26518SOL    HW285518   1.106  11.185  10.411  0.3025  0.2387  0.9671
26519SOL     OW85519  12.031   9.245   0.831  0.1409  0.4482  0.3408
26519SOL    HW185520  12.019   9.332   0.868 -0.4097  0.6198 -0.2291
26519SOL    HW285521  12.012   9.256   0.737  0.9208 -0.0987  0.1095
26520SOL     OW85522  10.686   4.512  10.730  0.2751  0.0587  0.1272
26520SOL    HW185523  10.755   4.576  10.712 -1.3761  1.8984  0.0031
26520SOL    HW285524  10.667   4.473  10.645 -0.9239  1.8099 -0.4661
26521SOL     OW85525  11.609  12.086   2.052  0.1110  0.8091  0.1983
26521SOL    HW185526  11.518  12.115   2.057 -0.0779  0.0493  1.5686
26521SOL    HW285527  11.659  12.167   2.042 -0.6966  1.2497 -0.3934
26522SOL     OW85528   7.080   1.488   3.317 -0.4180  0.0740 -0.1592
26522SOL    HW185529   7.070   1.579   3.345 -2.1123 -0.9969  3.3643
26522SOL    HW285530   6.990   1.458   3.303  0.1693 -0.8595 -2.2727
26523SOL     OW85531   7.915  12.427   3.158 -0.1203 -0.2601  0.6922
26523SOL    HW185532   7.948  12.338   3.172 -0.5394 -0.5529 -0.1477
26523SOL    HW285533   7.909  12.464   3.247 -1.0120 -1.4603  1.1655
26524SOL     OW85534   1.893   2.615   7.512 -0.6693  0.1026 -0.2957
26524SOL    HW185535   1.866   2.580   7.597 -0.8162  0.4431 -0.2029
26524SOL    HW285536   1.952   2.548   7.477 -1.8520 -0.8067 -0.6451
26525SOL     OW85537   6.008   2.045   6.221  0.2662 -0.0934 -0.5272
26525SOL    HW185538   6.047   2.007   6.142 -1.4462  0.4715 -1.6871
26525SOL    HW285539   6.014   2.140   6.207  0.0732  0.0120  0.0936
26526SOL     OW85540   5.093   2.419   8.871  0.4340 -0.3778 -0.1024
26526SOL    HW185541   5.031   2.460   8.930  0.0834  0.7609 -1.2178
26526SOL    HW285542   5.177   2.421   8.917  0.2896  1.0430  0.1257
26527SOL     OW85543  10.913   9.185  10.033 -0.0848 -0.1956 -0.0540
26527SOL    HW185544  10.862   9.242  10.090 -1.6040 -0.5758 -0.9832
26527SOL    HW285545  10.851   9.118  10.004  0.9961 -0.7906 -1.0781
26528SOL     OW85546   6.582  12.108   7.370 -0.2839  0.3194  0.3020
26528SOL    HW185547   6.525  12.039   7.404 -1.7485  1.4584  0.2863
26528SOL    HW285548   6.540  12.135   7.288  0.0529  1.4476  0.4801
26529SOL     OW85549   9.103   1.106   5.724  0.2804 -0.4307  0.4091
26529SOL    HW185550   9.024   1.055   5.707 -0.3978  0.4542  0.8428
26529SOL    HW285551   9.140   1.067   5.803  0.0430 -0.5706  0.4515
26530SOL     OW85552   6.112  12.406  10.965  0.4290  0.4461 -0.1314
26530SOL    HW185553   6.052  12.460  11.017  2.2786  2.4449  0.0893
26530SOL    HW285554   6.080  12.317  10.978 -2.3897  1.3600  0.0388
26531SOL     OW85555   9.428  10.563   8.147 -0.1847  0.1338 -0.0530
26531SOL    HW185556   9.407  10.556   8.054 -1.1156  1.0199  0.0711
26531SOL    HW285557   9.367  10.504   8.191 -0.3575  0.3996  0.0680
26532SOL     OW85558   8.769   4.703   6.696  0.0032 -0.0137 -0.5400
26532SOL    HW185559   8.795   4.687   6.787  2.7072 -0.9823 -1.3965
26532SOL    HW285560   8.702   4.637   6.678 -0.2228 -0.1121  0.5935
26533SOL     OW85561  11.502   0.362   8.281 -0.0712  0.3352  0.3578
26533SOL    HW185562  11.551   0.306   8.222  0.9402  0.9980  0.5512
26533SOL    HW285563  11.551   0.444   8.283 -2.7928  2.2581 -1.9424
26534SOL     OW85564   2.563   4.011  10.772 -0.1698  0.6072  0.5809
26534SOL    HW185565   2.615   3.978  10.845  0.7567 -0.7026 -0.6129
26534SOL    HW285566   2.496   3.944  10.758  0.4563  0.1847 -0.5615
26535SOL     OW85567   2.951   7.623   1.684  0.6228  0.1281  0.2471
26535SOL    HW185568   3.035   7.577   1.694 -0.0099 -1.3035 -0.6611
26535SOL    HW285569   2.965   7.707   1.726  2.9786  0.4871 -1.0370
26536SOL     OW85570   6.309   0.408   3.083 -0.4423  0.2795  0.8815
26536SOL    HW185571   6.371   0.341   3.111  1.9184  2.1865  0.5231
26536SOL    HW285572   6.231   0.391   3.136  1.3834 -0.4618  3.5443
26537SOL     OW85573   2.814   7.480   2.726  0.1012  1.1493 -0.0826
26537SOL    HW185574   2.856   7.400   2.694 -1.8202 -0.5745  1.4187
26537SOL    HW285575   2.882   7.547   2.719  2.5496 -1.0761  0.6810
26538SOL     OW85576   4.542   8.313   4.732  0.0213  0.3717 -0.1904
26538SOL    HW185577   4.571   8.323   4.823  2.8542 -1.5143 -0.7416
26538SOL    HW285578   4.588   8.383   4.685 -1.6081  1.4796 -0.1770
26539SOL     OW85579   4.976   7.617   3.443  0.7322 -0.2918  0.1359
26539SOL    HW185580   4.981   7.662   3.358 -0.3717 -0.6700 -0.1444
26539SOL    HW285581   4.994   7.525   3.423 -3.1140 -1.0854 -0.3674
26540SOL     OW85582   8.279   0.430  11.884  0.5309 -0.2853 -0.3813
26540SOL    HW185583   8.326   0.454  11.804 -0.7024  0.7014 -0.8609
26540SOL    HW285584   8.242   0.344  11.866 -0.6114  0.3781 -1.3045
26541SOL     OW85585   7.231   4.267   8.870 -0.4794  0.3084 -0.4103
26541SOL    HW185586   7.276   4.335   8.919 -1.7363  0.4714  0.5637
26541SOL    HW285587   7.265   4.276   8.780  0.7721  0.9465  0.1020
26542SOL     OW85588   4.674   5.852   2.188  0.2971 -0.4202  0.0202
26542SOL    HW185589   4.762   5.832   2.221 -0.4372 -1.7326  1.2929
26542SOL    HW285590   4.615   5.824   2.258 -1.1566  0.2444 -0.8944
26543SOL     OW85591   5.430   5.228   0.129  0.3947 -0.6863  0.3927
26543SOL    HW185592   5.463   5.140   0.142  0.6129 -0.6191  0.2903
26543SOL    HW285593   5.357   5.218   0.068 -0.1452 -0.9052  1.0621
26544SOL     OW85594   5.997   3.019   1.305 -0.0389  0.1431  0.2872
26544SOL    HW185595   6.015   3.021   1.211  1.5172  2.3593  0.5494
26544SOL    HW285596   5.930   3.086   1.318 -0.2115 -0.1184  0.7696
26545SOL     OW85597  10.734   3.867   3.279  0.1571 -0.2042 -0.4807
26545SOL    HW185598  10.765   3.778   3.265 -0.8260 -0.7517  0.6233
26545SOL    HW285599  10.811   3.922   3.263  1.5719 -1.4568  1.5368
26546SOL     OW85600   0.686   1.027   5.040  0.4532  0.1755 -0.4401
26546SOL    HW185601   0.776   0.995   5.034  0.1410 -0.7612 -0.4203
26546SOL    HW285602   0.635   0.962   4.991 -0.3509  0.0870  0.4774
26547SOL     OW85603   1.617   0.790   6.113  0.1288 -0.0942 -0.4756
26547SOL    HW185604   1.644   0.827   6.198 -1.0539  1.6982 -0.8127
26547SOL    HW285605   1.571   0.709   6.136 -1.1984  0.9418  0.7608
26548SOL     OW85606   2.794   9.763   8.321  0.7963  0.2224 -0.0390
26548SOL    HW185607   2.868   9.706   8.299  1.3352  1.0602 -0.4795
26548SOL    HW285608   2.742   9.712   8.383  0.4642 -1.3122 -1.5197
26549SOL     OW85609   1.672   4.498   9.778 -0.0321  0.1021  0.0526
26549SOL    HW185610   1.682   4.567   9.712 -0.8611 -0.8140 -1.0733
26549SOL    HW285611   1.746   4.439   9.761 -0.0256  0.0680  0.2035
26550SOL     OW85612   5.807   3.110   6.782  0.3060 -0.6715  0.2145
26550SOL    HW185613   5.768   3.195   6.759  0.5164 -0.7899 -0.6065
26550SOL    HW285614   5.850   3.126   6.866 -0.9918 -0.3803  0.8630
26551SOL     OW85615  11.463  11.678   7.761 -0.6682 -0.5265 -0.0655
26551SOL    HW185616  11.443  11.771   7.759  0.6645 -0.2274 -1.1977
26551SOL    HW285617  11.486  11.660   7.852  1.3122  0.7913 -0.2622
26552SOL     OW85618  11.141   0.807   6.930 -0.0461 -0.0782 -0.0149
26552SOL    HW185619  11.077   0.736   6.940  1.0835 -1.1033  0.1086
26552SOL    HW285620  11.101   0.882   6.974 -2.4579  0.1993 -2.3718
26553SOL     OW85621   7.955   9.740   8.321 -0.2943  0.6090 -1.1451
26553SOL    HW185622   7.919   9.722   8.235 -2.6158 -0.6767  0.0137
26553SOL    HW285623   7.882   9.776   8.371  1.2174  2.1752  0.0886
26554SOL     OW85624   3.664   3.075   7.298  0.0695 -0.0358 -0.5252
26554SOL    HW185625   3.653   3.170   7.290  2.2964  0.2815 -0.4565
26554SOL    HW285626   3.727   3.052   7.230  0.7412 -1.2093  0.4577
26555SOL     OW85627   3.422  11.224  10.763 -0.6918  0.3716  0.3117
26555SOL    HW185628   3.397  11.232  10.855 -0.7617 -1.5165  0.5071
26555SOL    HW285629   3.339  11.233  10.715 -0.6522  1.3746  0.4155
26556SOL     OW85630   4.390   5.069   3.897 -0.2605  0.1015  0.6372
26556SOL    HW185631   4.344   5.109   3.971  1.1084  1.0680  1.0217
26556SOL    HW285632   4.469   5.032   3.935 -0.9262 -2.0245  0.0797
26557SOL     OW85633   3.421   0.310   6.328 -0.0089  0.2272 -0.2258
26557SOL    HW185634   3.332   0.343   6.316 -0.3297 -0.9623 -1.4340
26557SOL    HW285635   3.461   0.318   6.241  1.2964  1.3107  0.4338
26558SOL     OW85636   9.658  10.148   9.810 -0.1696 -0.3422  0.6873
26558SOL    HW185637   9.719  10.213   9.846  0.1844 -0.8812  1.0768
26558SOL    HW285638   9.574  10.193   9.806  0.4530  0.7681 -0.8365
26559SOL     OW85639   7.922   2.601   5.854 -0.1437  0.2196  0.1672
26559SOL    HW185640   7.963   2.523   5.891 -0.5145 -0.6321 -1.1447
26559SOL    HW285641   7.887   2.648   5.930 -0.1877 -1.0401  0.9639
26560SOL     OW85642   9.968   1.611   1.394  0.0667  0.1142 -0.0250
26560SOL    HW185643   9.959   1.520   1.422  0.8242  0.0240 -0.0428
26560SOL    HW285644  10.048   1.611   1.340  1.5130  1.2537  1.9891
26561SOL     OW85645   0.029   3.271   2.189  0.3779  0.2652  0.2268
26561SOL    HW185646   0.101   3.214   2.217  1.3781  1.3495 -0.0426
26561SOL    HW285647   0.018   3.251   2.096 -0.7718 -1.0381  0.6176
26562SOL     OW85648  10.800   2.641   1.191  0.5567 -0.0809  0.3338
26562SOL    HW185649  10.846   2.724   1.205 -0.1021  0.3731 -0.1162
26562SOL    HW285650  10.826   2.614   1.103 -0.8478  0.7379 -0.3693
26563SOL     OW85651   1.414   1.651   1.826  0.0709  0.0035 -0.3347
26563SOL    HW185652   1.374   1.564   1.828 -1.2106  0.5650 -0.5381
26563SOL    HW285653   1.345   1.710   1.858  0.9554  0.9351 -0.0864
26564SOL     OW85654   1.734   1.590   9.829 -0.1775 -0.3451  0.8041
26564SOL    HW185655   1.730   1.496   9.847  0.3941 -0.1469  2.1546
26564SOL    HW285656   1.825   1.613   9.844  0.2838 -0.0098 -2.1162
26565SOL     OW85657   6.013   0.224   6.679  0.1966 -0.4474  0.4086
26565SOL    HW185658   5.926   0.198   6.708  0.7260 -0.5306  2.0259
26565SOL    HW285659   6.071   0.158   6.716  0.9569 -0.4288 -0.7080
26566SOL     OW85660  12.397   9.656   3.876 -0.2791  0.0179 -0.1638
26566SOL    HW185661  12.484   9.663   3.914 -0.6909  0.4361  0.7288
26566SOL    HW285662  12.379   9.562   3.874  0.1771 -0.0673 -0.3309
26567SOL     OW85663   4.766  12.404   3.066  0.1362 -0.3192  0.1465
26567SOL    HW185664   4.835  12.388   3.130  0.1965 -1.5873 -0.2047
26567SOL    HW285665   4.799  12.366   2.985  0.6321  2.4021 -1.0380
26568SOL     OW85666   1.800   1.066   8.716 -0.2657  0.0789 -0.6666
26568SOL    HW185667   1.880   1.034   8.675  0.0333 -0.8977  0.6210
26568SOL    HW285668   1.766   0.991   8.764 -1.4466  0.7512 -0.4119
26569SOL     OW85669   5.179   5.863   8.851 -0.4791 -0.6485  0.0217
26569SOL    HW185670   5.249   5.920   8.883 -0.1782 -0.7008 -0.5286
26569SOL    HW285671   5.201   5.776   8.885 -0.9459 -0.4476  0.8744
26570SOL     OW85672   3.338  10.917   4.697 -0.2670 -0.1398 -0.4510
26570SOL    HW185673   3.264  10.866   4.664 -0.8239 -0.1727  0.8030
26570SOL    HW285674   3.402  10.851   4.723 -0.3553 -0.1562 -0.2721
26571SOL     OW85675  11.295  10.993  12.105 -0.4371  0.6280  0.2140
26571SOL    HW185676  11.326  11.065  12.160 -1.0325  1.6721 -0.7667
26571SOL    HW285677  11.353  10.995  12.029  1.2094 -1.6303  1.3094
26572SOL     OW85678   0.336   9.499   3.734  0.3901  0.8206 -0.0705
26572SOL    HW185679   0.289   9.424   3.700  0.3331  0.7887  0.0753
26572SOL    HW285680   0.408   9.513   3.673  1.4337 -0.4209  0.8139
26573SOL     OW85681   7.775   7.592  10.298 -0.0178  0.0725 -0.2238
26573SOL    HW185682   7.839   7.663  10.312  1.0131 -1.0884  1.2320
26573SOL    HW285683   7.779   7.541  10.378 -2.5826 -0.2440 -0.2414
26574SOL     OW85684  11.854  12.341   1.834  0.0716  0.0321  0.2603
26574SOL    HW185685  11.918  12.390   1.782 -0.4677 -1.9473 -2.5114
26574SOL    HW285686  11.777  12.398   1.838  0.0131  0.1308 -1.5016
26575SOL     OW85687  11.399   5.646   2.871  0.0576 -0.0854 -0.1151
26575SOL    HW185688  11.455   5.664   2.948 -0.4941  1.7141 -0.0832
26575SOL    HW285689  11.458   5.605   2.808  0.3658 -2.2899  1.4929
26576SOL     OW85690   1.884   0.242   1.636  0.0204 -0.1243 -0.3439
26576SOL    HW185691   1.806   0.212   1.590 -0.5295 -1.1492  1.1667
26576SOL    HW285692   1.855   0.255   1.727  1.3268  0.6607 -0.0071
26577SOL     OW85693   3.275   0.036   2.024  0.4881  0.0114 -0.3044
26577SOL    HW185694   3.353   0.063   1.975  0.1366  1.2667 -0.2041
26577SOL    HW285695   3.202   0.052   1.964  0.2970 -1.2897 -0.4514
26578SOL     OW85696   5.396   7.039   5.648 -0.3797 -0.2220 -0.0758
26578SOL    HW185697   5.351   6.956   5.666 -1.5723  0.2868 -0.6154
26578SOL    HW285698   5.397   7.084   5.732 -2.6176  0.5659 -0.4163
26579SOL     OW85699  10.256   0.648   4.767  0.5970 -0.0568  0.1925
26579SOL    HW185700  10.297   0.732   4.787  1.8090 -0.8382  1.0852
26579SOL    HW285701  10.176   0.672   4.720  0.2528  1.6452  1.5361
26580SOL     OW85702   9.429   4.035   0.124 -0.4202  0.8111  0.3961
26580SOL    HW185703   9.375   4.026   0.046  1.1530 -0.7273 -0.5906
26580SOL    HW285704   9.437   3.946   0.159  3.3401  0.4595 -0.9115
26581SOL     OW85705   7.235   3.742  10.345 -0.0799 -0.2287  0.2948
26581SOL    HW185706   7.191   3.821  10.315  0.4872  0.1771  0.5172
26581SOL    HW285707   7.269   3.701  10.265 -1.0943 -0.6998  0.0905
26582SOL     OW85708   0.899   4.691   6.478  0.2399  0.1308 -0.5828
26582SOL    HW185709   0.933   4.781   6.476  0.4045  0.2115  2.1223
26582SOL    HW285710   0.804   4.701   6.472  0.2222  0.5639  0.2043
26583SOL     OW85711   9.109   0.916   6.622  0.1436 -0.8981  0.1956
26583SOL    HW185712   9.183   0.860   6.599  2.4185  1.9124  0.1216
26583SOL    HW285713   9.082   0.955   6.538  0.5064  0.2383  0.5878
26584SOL     OW85714   2.523  11.943   2.211 -0.9739 -0.3741 -0.0153
26584SOL    HW185715   2.528  12.021   2.156 -1.5698 -0.5945 -0.3913
26584SOL    HW285716   2.612  11.930   2.244 -0.4569 -0.6236 -1.4695
26585SOL     OW85717   0.454   1.244  12.256  0.0052  0.5531  0.0984
26585SOL    HW185718   0.516   1.293  12.203 -0.6826 -0.1082 -1.3701
26585SOL    HW285719   0.462   1.154  12.225 -1.3604  0.3836  0.1720
26586SOL     OW85720   4.421   0.508  11.433 -0.2276 -0.9914 -0.5082
26586SOL    HW185721   4.345   0.511  11.490 -0.5405 -0.0814 -0.9559
26586SOL    HW285722   4.488   0.463  11.484 -0.6943 -0.7467  0.3332
26587SOL     OW85723   1.450   4.953  10.548  0.4362  0.8534 -0.1697
26587SOL    HW185724   1.498   5.017  10.495  1.5681 -0.5801 -0.9214
26587SOL    HW285725   1.507   4.935  10.622  0.5913 -0.0394 -0.4967
26588SOL     OW85726   4.943  11.897  11.888  0.1086  0.0649 -0.2461
26588SOL    HW185727   4.905  11.885  11.801 -0.0383  0.4534 -0.2382
26588SOL    HW285728   5.029  11.855  11.882  0.4814  0.8651 -0.8666
26589SOL     OW85729   2.488   8.565   9.202  0.4573  0.3213  0.5757
26589SOL    HW185730   2.438   8.624   9.145 -2.3465 -0.3324  2.2117
26589SOL    HW285731   2.507   8.617   9.280  0.3439 -0.1394  0.9127
26590SOL     OW85732  12.355   7.414   6.828  0.8337 -0.0375 -0.3896
26590SOL    HW185733  12.410   7.369   6.764  1.3986  0.3041 -0.1531
26590SOL    HW285734  12.267   7.411   6.790  0.6996 -2.0338  0.0032
26591SOL     OW85735   6.288   1.347   0.617  0.4454 -0.4908  0.2857
26591SOL    HW185736   6.330   1.402   0.551  0.7718 -0.5876  0.4128
26591SOL    HW285737   6.209   1.396   0.642  0.5364 -0.2619  0.1222
26592SOL     OW85738   5.876   1.642   1.073 -0.0577  0.2558 -0.7899
26592SOL    HW185739   5.901   1.560   1.116  1.2253  0.1802 -1.6434
26592SOL    HW285740   5.844   1.615   0.987 -2.6237  0.4075  0.0335
26593SOL     OW85741   3.433   6.423   5.094 -0.6248 -0.3045 -0.4593
26593SOL    HW185742   3.351   6.380   5.071 -2.6019  1.7345  2.1888
26593SOL    HW285743   3.463   6.378   5.173  0.2523 -0.3424 -0.7999
26594SOL     OW85744   8.454   8.245  10.429 -0.3368  0.2761  0.4002
26594SOL    HW185745   8.469   8.168  10.483 -0.0492  0.5290  0.6834
26594SOL    HW285746   8.359   8.244  10.413 -0.3386 -0.1199  0.4204
26595SOL     OW85747   6.954  10.586   6.579 -0.2116  0.0808 -0.0383
26595SOL    HW185748   6.960  10.532   6.500 -0.1316 -0.2512  0.1926
26595SOL    HW285749   6.914  10.528   6.645 -0.8647  0.5490 -0.0084
26596SOL     OW85750   7.546   6.126   9.709 -0.8200  0.2775  0.5764
26596SOL    HW185751   7.456   6.138   9.679 -1.4001 -0.1858  2.0446
26596SOL    HW285752   7.539   6.122   9.804  0.5012 -1.6922  0.6402
26597SOL     OW85753   2.693   2.219  10.652 -0.1615 -0.2413  0.1889
26597SOL    HW185754   2.621   2.187  10.598 -0.6945  0.3977  0.4931
26597SOL    HW285755   2.649   2.261  10.727  0.5193  0.4729  0.1976
26598SOL     OW85756   6.819   4.867   1.593 -0.2764 -0.4293 -0.0758
26598SOL    HW185757   6.788   4.870   1.683 -0.1645 -1.1263 -0.0044
26598SOL    HW285758   6.742   4.892   1.540  0.0641  1.4702  0.2645
26599SOL     OW85759  11.167   2.002   3.916  0.2747  0.0058  0.7246
26599SOL    HW185760  11.088   2.025   3.965  0.0696 -0.1670  0.4836
26599SOL    HW285761  11.238   2.050   3.959 -0.2235  1.6181 -0.1544
26600SOL     OW85762   9.986   5.800   9.157  0.0639 -0.0920  0.1781
26600SOL    HW185763  10.079   5.783   9.144 -0.1264 -1.7384  0.7368
26600SOL    HW285764   9.961   5.743   9.230 -1.8165 -1.2563 -1.2830
26601SOL     OW85765  10.137  10.900   7.676  0.0139 -0.0344  0.0063
26601SOL    HW185766  10.132  10.872   7.584 -1.1522  1.3789 -0.3884
26601SOL    HW285767  10.172  10.823   7.722  1.4840 -0.4738 -1.7353
26602SOL     OW85768   2.399   1.020   9.990  0.4570  0.2751 -0.3641
26602SOL    HW185769   2.476   1.055   9.945  1.0626 -0.9134 -0.2971
26602SOL    HW285770   2.418   1.032  10.083  0.2418  0.6261 -0.3651
26603SOL     OW85771  10.878  11.997   0.337  0.1035  0.0898 -0.5357
26603SOL    HW185772  10.898  12.068   0.398 -3.4315 -1.4520  2.7436
26603SOL    HW285773  10.947  11.932   0.352 -0.4938 -0.0922  1.6198
26604SOL     OW85774   1.927   4.414   3.916 -0.2081  0.0726  0.4049
26604SOL    HW185775   1.985   4.480   3.953  1.5703 -1.2107  0.0166
26604SOL    HW285776   1.936   4.424   3.821 -1.6686  0.7040  0.2979
26605SOL     OW85777   7.164   1.300   1.800  0.5829 -0.2955  0.3316
26605SOL    HW185778   7.092   1.362   1.804  0.1829 -0.6271 -1.0732
26605SOL    HW285779   7.137   1.227   1.855  0.3138  0.0297  0.6344
26606SOL     OW85780   7.751   1.214   3.434  0.3420  0.2474  0.0224
26606SOL    HW185781   7.841   1.242   3.448 -0.2655  1.3651  2.0215
26606SOL    HW285782   7.716   1.274   3.369  1.4561 -1.2265 -2.0579
26607SOL     OW85783   8.843  12.096   1.118 -0.1457  0.2609  0.1076
26607SOL    HW185784   8.838  12.080   1.213 -1.3180  1.8103  0.3649
26607SOL    HW285785   8.888  12.020   1.083 -2.1540 -1.7329  1.5699
26608SOL     OW85786   5.542  12.470   3.681 -0.3455  0.3126 -0.6727
26608SOL    HW185787   5.508  12.558   3.672  0.6623  1.0308  1.6666
26608SOL    HW285788   5.472  12.413   3.651 -2.4109  1.8103  0.9979
26609SOL     OW85789   5.073  11.663   5.712 -0.1311 -0.6413  0.4911
26609SOL    HW185790   5.084  11.739   5.769  0.5143 -0.4385  0.1141
26609SOL    HW285791   5.021  11.695   5.638 -2.1412 -1.2343  1.5651
26610SOL     OW85792   4.953   4.419   3.293 -0.2528 -0.4939 -0.6837
26610SOL    HW185793   4.949   4.515   3.296  0.1154 -0.4668  2.0844
26610SOL    HW285794   5.003   4.399   3.214 -0.4964  1.5952 -1.4096
26611SOL     OW85795  10.465   2.768   3.696 -0.1394 -0.2239  0.6752
26611SOL    HW185796  10.393   2.722   3.651 -0.6345  0.5043  0.7079
26611SOL    HW285797  10.491   2.709   3.766 -0.9096 -0.3690  0.8469
26612SOL     OW85798   5.148   5.075   3.202 -0.1443  0.0737 -0.4195
26612SOL    HW185799   5.180   5.149   3.152  1.6130  0.5626  1.3170
26612SOL    HW285800   5.217   5.009   3.195 -1.9834 -1.8107 -2.5596
26613SOL     OW85801   8.392   6.656  10.630 -0.1251 -0.3541  0.0117
26613SOL    HW185802   8.354   6.740  10.656 -1.2604 -0.5613 -0.8766
26613SOL    HW285803   8.389   6.602  10.709 -0.7675 -0.0224  0.2221
26614SOL     OW85804  10.788   8.993   2.507  0.1224  0.0075 -0.5219
26614SOL    HW185805  10.720   9.059   2.521  0.3159  0.2970 -0.9137
26614SOL    HW285806  10.788   8.979   2.412 -0.4573 -1.1434 -0.3694
26615SOL     OW85807   8.534  12.142   6.353 -0.1599  0.0511  0.4956
26615SOL    HW185808   8.525  12.047   6.350 -1.8721  0.0676  2.7986
26615SOL    HW285809   8.599  12.158   6.422 -0.7579  0.5676  0.9499
26616SOL     OW85810   3.091   3.789   3.656  0.2227  0.4649  0.0487
26616SOL    HW185811   3.081   3.695   3.641 -1.1392  0.7043 -0.6857
26616SOL    HW285812   3.166   3.796   3.716 -0.0523 -1.1203  0.6189
26617SOL     OW85813   2.604   9.834   4.420  0.0026  0.5713 -0.3738
26617SOL    HW185814   2.630   9.850   4.330 -1.1524 -0.6980 -0.9711
26617SOL    HW285815   2.640   9.908   4.469  1.3459  0.8620 -1.7220
26618SOL     OW85816   1.842  11.789   3.443  0.4473  0.1597  0.4949
26618SOL    HW185817   1.840  11.885   3.444  1.6527  0.1935  0.7050
26618SOL    HW285818   1.933  11.767   3.457  0.2832 -1.0221 -0.1795
26619SOL     OW85819   4.352   1.805   8.342  0.2592 -0.2237  0.4183
26619SOL    HW185820   4.369   1.848   8.258 -1.7544 -0.4296 -0.1455
26619SOL    HW285821   4.356   1.711   8.322  0.6715 -0.2786  0.7571
26620SOL     OW85822   0.162   7.102   2.932  0.5015 -0.3018 -0.2075
26620SOL    HW185823   0.178   7.020   2.978  1.0239  0.4675  1.0193
26620SOL    HW285824   0.247   7.146   2.930 -0.2092  1.2478  1.2553
26621SOL     OW85825  10.303   0.547   8.914 -0.5534  0.1709  0.4789
26621SOL    HW185826  10.283   0.485   8.984 -0.2963  1.0397  1.3318
26621SOL    HW285827  10.379   0.596   8.946  0.3809 -0.2731 -0.9456
26622SOL     OW85828   2.265   5.901   5.653  0.3069  0.2006 -0.2895
26622SOL    HW185829   2.355   5.870   5.662  0.2452  0.1026 -0.0208
26622SOL    HW285830   2.240   5.930   5.740 -0.2365 -0.6270 -0.1510
26623SOL     OW85831   1.874  10.360   1.143  0.5135  0.1497  0.2912
26623SOL    HW185832   1.827  10.444   1.141 -1.6221 -0.9730 -0.6355
26623SOL    HW285833   1.921  10.357   1.060 -0.5016 -0.0923 -0.3018
26624SOL     OW85834   0.601  10.075   4.887  0.2132 -0.3178  0.0262
26624SOL    HW185835   0.522  10.023   4.869  1.1530 -1.0831 -2.1400
26624SOL    HW285836   0.669  10.011   4.904  1.0220  0.2481 -1.0071
26625SOL     OW85837   7.160   2.362   0.783  0.7814 -0.2875  0.1908
26625SOL    HW185838   7.069   2.383   0.804  1.1668  0.7099  1.0002
26625SOL    HW285839   7.201   2.447   0.767  1.6344 -0.6961  0.1301
26626SOL     OW85840   3.840   0.693   4.460 -0.2366  0.6911 -0.3935
26626SOL    HW185841   3.914   0.737   4.503 -0.8423 -0.1476  1.6580
26626SOL    HW285842   3.766   0.752   4.474 -0.9113 -0.5631  1.7948
26627SOL     OW85843   4.542  11.996  11.566  0.2509  0.7435 -0.7416
26627SOL    HW185844   4.612  12.057  11.589  0.9968 -0.1421 -0.5932
26627SOL    HW285845   4.585  11.930  11.511 -0.2219 -0.3859  0.2095
26628SOL     OW85846   9.947   7.734   5.598  0.0914 -0.1174  0.2423
26628SOL    HW185847   9.882   7.671   5.566  0.6903 -1.0190  0.7490
26628SOL    HW285848  10.027   7.713   5.549 -0.3214  1.9151 -1.4270
26629SOL     OW85849   4.969   7.430   2.098 -0.7229  0.3062 -0.0941
26629SOL    HW185850   5.029   7.473   2.160  0.8506 -0.8077 -0.7723
26629SOL    HW285851   4.952   7.345   2.138  0.0819 -0.3130 -1.0125
26630SOL     OW85852   0.031   2.450   2.012 -0.0952 -0.1330 -0.3186
26630SOL    HW185853   0.038   2.450   2.108  0.4740  0.4343 -0.3577
26630SOL    HW285854  -0.016   2.530   1.992  1.0647  0.5018 -0.5941
26631SOL     OW85855   5.845   3.741   6.559 -0.1565  0.0219 -0.0411
26631SOL    HW185856   5.856   3.675   6.628  0.8975 -0.2161 -0.4133
26631SOL    HW285857   5.750   3.757   6.555 -0.3624 -1.0120  0.4774
26632SOL     OW85858   7.456   4.814   9.461 -0.1728  0.3799 -0.0402
26632SOL    HW185859   7.407   4.790   9.383 -0.3209  0.5669 -0.0048
26632SOL    HW285860   7.547   4.790   9.441  0.1352  2.2555 -1.0726
26633SOL     OW85861   6.813  10.476   9.983 -0.2823 -0.2883 -0.3363
26633SOL    HW185862   6.862  10.510   9.907  1.9040  1.3065  1.6495
26633SOL    HW285863   6.876  10.420  10.028 -0.9004  0.3161  1.3215
26634SOL     OW85864   3.294  12.321   4.036 -0.1550 -0.3761  0.1996
26634SOL    HW185865   3.384  12.306   4.008 -1.0239 -2.4462 -1.8086
26634SOL    HW285866   3.288  12.279   4.122  0.6649 -0.6582  0.1250
26635SOL     OW85867   2.182  10.490  11.484 -0.0503 -0.0134 -0.1352
26635SOL    HW185868   2.224  10.566  11.523 -0.2978  0.1763 -0.2375
26635SOL    HW285869   2.109  10.470  11.542 -1.7382  1.5813 -1.6160
26636SOL     OW85870   6.788  10.492   4.374  0.4987  0.5574 -0.2082
26636SOL    HW185871   6.768  10.505   4.467 -0.2061 -1.0257 -0.0956
26636SOL    HW285872   6.728  10.549   4.327 -2.5706 -2.0553  0.2140
26637SOL     OW85873  12.324   1.461  10.643  0.0504  0.1105  0.2514
26637SOL    HW185874  12.262   1.471  10.714  0.8257  0.0609  0.9467
26637SOL    HW285875  12.320   1.544  10.595 -0.3932  0.1834  0.4187
26638SOL     OW85876   8.854   2.146   1.412  0.1293  0.2961  0.0578
26638SOL    HW185877   8.797   2.150   1.335  1.4076  0.7898 -0.9109
26638SOL    HW285878   8.796   2.126   1.485 -1.3243  1.1218 -0.8330
26639SOL     OW85879  10.464  10.678  12.466  0.7514  0.0219 -0.1616
26639SOL    HW185880  10.420  10.640  12.542 -0.1621 -0.2549 -0.8163
26639SOL    HW285881  10.436  10.769  12.465 -0.1120 -0.2317 -0.7673
26640SOL     OW85882   3.832   8.008   4.821  0.1588 -0.3362 -0.3615
26640SOL    HW185883   3.887   7.949   4.873  0.7693 -0.0439 -0.6711
26640SOL    HW285884   3.788   7.950   4.759 -1.6787 -0.9091  1.3545
26641SOL     OW85885   8.328   4.786  11.010 -0.3490 -0.0063  0.2745
26641SOL    HW185886   8.284   4.712  11.052 -0.6688 -0.1816 -0.3717
26641SOL    HW285887   8.287   4.794  10.925  0.0184  0.6159  0.1487
26642SOL     OW85888   2.942   3.488  12.134 -0.5749  0.8941  0.0327
26642SOL    HW185889   2.948   3.507  12.040  2.3800 -0.5821 -0.1935
26642SOL    HW285890   2.932   3.393  12.139  1.1478  0.7333  1.1880
26643SOL     OW85891   0.815   2.344   2.419 -0.5314  0.1185  0.1193
26643SOL    HW185892   0.872   2.413   2.452 -0.1812  0.7761 -1.7093
26643SOL    HW285893   0.731   2.358   2.462  0.5565 -0.7000  2.6639
26644SOL     OW85894   3.155   0.760   6.610 -0.2538 -0.5418 -0.4478
26644SOL    HW185895   3.111   0.775   6.526  0.4375  0.5377 -0.6415
26644SOL    HW285896   3.244   0.733   6.586  0.4414  1.2799 -0.1098
26645SOL     OW85897   4.865   6.506   3.513  0.2678 -0.1623 -0.3187
26645SOL    HW185898   4.950   6.535   3.482  0.0980 -1.2349 -1.8875
26645SOL    HW285899   4.881   6.479   3.604  1.5713 -0.2600 -0.5559
26646SOL     OW85900   2.457   9.728   3.591 -0.2997  0.7052 -0.9481
26646SOL    HW185901   2.494   9.640   3.595 -0.3431  0.5544 -3.0044
26646SOL    HW285902   2.378   9.723   3.646  1.2999  0.3753  1.4925
26647SOL     OW85903   7.968   8.501   7.676 -0.5487 -0.5093 -0.0762
26647SOL    HW185904   8.010   8.572   7.627  0.2729 -1.0605 -0.1932
26647SOL    HW285905   8.020   8.494   7.756  1.1446 -2.7813 -1.2638
26648SOL     OW85906   6.871  10.909   5.116  0.5142  0.3077  0.0582
26648SOL    HW185907   6.947  10.951   5.076  0.3264 -1.4433 -2.3549
26648SOL    HW285908   6.897  10.817   5.126 -0.3091  0.2347  1.9164
26649SOL     OW85909   8.905   4.534   4.621 -0.3346  0.1834  0.2207
26649SOL    HW185910   8.897   4.458   4.562 -0.7896 -1.1523  1.9096
26649SOL    HW285911   8.922   4.608   4.562  0.2539 -1.2286 -1.4983
26650SOL     OW85912   0.338   3.254   3.557  0.5438 -0.2547 -0.3305
26650SOL    HW185913   0.434   3.253   3.559  0.6458  0.0180 -2.7211
26650SOL    HW285914   0.313   3.292   3.641  2.4889 -1.0632  0.6855
26651SOL     OW85915   7.294   6.691   4.733 -0.9756  0.2043 -0.0631
26651SOL    HW185916   7.274   6.756   4.800  0.2007  0.2407  0.2654
26651SOL    HW285917   7.290   6.607   4.779  0.4409  0.2730  0.2160
26652SOL     OW85918  10.615   6.794   1.251  0.4189 -0.2723 -0.1952
26652SOL    HW185919  10.572   6.770   1.169 -0.7383 -1.3864  0.6945
26652SOL    HW285920  10.624   6.889   1.247 -1.9473 -0.0042 -0.5497
26653SOL     OW85921  10.983   3.412   1.177 -0.3075 -0.1477  0.1025
26653SOL    HW185922  11.012   3.504   1.177 -2.8159  0.7450  1.1057
26653SOL    HW285923  11.031   3.373   1.250 -1.2875  1.1983  1.5578
26654SOL     OW85924   0.067   6.385   4.130  0.1064  0.0101  0.1901
26654SOL    HW185925   0.017   6.366   4.051 -0.8795  0.8141  0.6086
26654SOL    HW285926   0.037   6.320   4.194 -0.6207  0.6574  0.5219
26655SOL     OW85927   3.329   9.485   2.829 -0.2850  0.0915  0.1419
26655SOL    HW185928   3.285   9.411   2.787  0.4791  0.1000 -0.7220
26655SOL    HW285929   3.402   9.505   2.770 -2.1067  3.4173 -1.2762
26656SOL     OW85930   4.133   8.961   6.134  0.3531  0.8863  0.4228
26656SOL    HW185931   4.166   9.048   6.158 -2.3945  2.8450 -2.0876
26656SOL    HW285932   4.061   8.945   6.194 -0.4236  1.3296 -0.3697
26657SOL     OW85933   6.901  11.996  12.067 -0.4135  0.5067 -0.3207
26657SOL    HW185934   6.996  11.995  12.075 -0.4328  1.2662  0.0873
26657SOL    HW285935   6.884  12.051  11.990 -0.5798  2.2249  0.8980
26658SOL     OW85936   0.675  12.484   4.943  0.3321 -0.1411  0.8261
26658SOL    HW185937   0.757  12.443   4.968 -0.1973 -0.7018  1.7144
26658SOL    HW285938   0.664  12.462   4.851  1.5320  0.5745  0.4955
26659SOL     OW85939   3.666   0.656   9.879  0.5362 -0.6821  0.2442
26659SOL    HW185940   3.669   0.677   9.972  0.0801 -1.5658  0.4711
26659SOL    HW285941   3.627   0.569   9.875  1.2507 -0.9761 -0.7282
26660SOL     OW85942   1.010   4.479   7.977  0.0962 -0.0136 -0.1496
26660SOL    HW185943   1.074   4.410   7.958  0.7736 -0.1277  2.2328
26660SOL    HW285944   1.059   4.560   7.972 -0.2225  0.1437 -0.9121
26661SOL     OW85945   7.130   4.321   4.709 -0.3233 -0.4453 -0.4155
26661SOL    HW185946   7.214   4.320   4.753  0.1641  0.7433 -1.2791
26661SOL    HW285947   7.131   4.243   4.653 -0.1028 -0.8094  0.0853
26662SOL     OW85948   4.402   7.082   0.476  0.1779  0.6913 -0.4336
26662SOL    HW185949   4.366   6.993   0.473 -0.7488  1.0262  0.4906
26662SOL    HW285950   4.477   7.076   0.535 -2.0164  1.2211  2.5930
26663SOL     OW85951   1.639   8.327   5.413 -0.2771  0.1325  0.3375
26663SOL    HW185952   1.604   8.374   5.488 -1.5209 -1.0750  0.5516
26663SOL    HW285953   1.572   8.337   5.345  0.9119  1.3818 -0.7353
26664SOL     OW85954   8.647   0.766  12.165 -0.1623  0.2294  0.2489
26664SOL    HW185955   8.629   0.842  12.109  0.4979 -0.1697 -0.5231
26664SOL    HW285956   8.653   0.802  12.253  0.0148  1.0568 -0.0904
26665SOL     OW85957   5.432   6.699   0.032 -0.2091 -0.2532  0.0579
26665SOL    HW185958   5.504   6.715  -0.029 -0.1221 -0.7434  0.0319
26665SOL    HW285959   5.419   6.783   0.076 -1.2050  0.5292 -1.6116
26666SOL     OW85960   0.006   0.904   3.803  0.5393 -0.1551  0.2052
26666SOL    HW185961   0.054   0.979   3.768 -0.1489  0.2927  0.2038
26666SOL    HW285962  -0.079   0.939   3.828  0.9590 -0.4856  2.2503
26667SOL     OW85963   5.238   3.369   4.684  0.0857  0.3167  0.0732
26667SOL    HW185964   5.240   3.436   4.616  0.2070  0.5893  0.3414
26667SOL    HW285965   5.195   3.294   4.643  0.0408  0.5244 -0.2608
26668SOL     OW85966   4.883   5.135   8.752  0.6291  0.2474 -0.6358
26668SOL    HW185967   4.948   5.123   8.821  0.3585  1.3231 -0.1736
26668SOL    HW285968   4.803   5.160   8.799  0.4676  1.0837 -1.3444
26669SOL     OW85969   6.123   1.148   1.236  0.0620 -0.0609 -0.3520
26669SOL    HW185970   6.139   1.191   1.319 -1.1062  0.2699 -0.2800
26669SOL    HW285971   6.083   1.064   1.259  1.8641 -1.0042 -0.5097
26670SOL     OW85972   8.868   7.331   9.275 -0.1623 -0.2729  0.1226
26670SOL    HW185973   8.773   7.327   9.263 -0.2092 -1.4041  0.6696
26670SOL    HW285974   8.880   7.378   9.357 -0.2773 -0.5437  0.2956
26671SOL     OW85975  11.544  11.006   5.176 -0.7692 -0.0575 -0.1368
26671SOL    HW185976  11.639  11.019   5.173 -0.8585  0.4871 -0.7790
26671SOL    HW285977  11.511  11.049   5.097 -1.6215  0.3223  0.4101
26672SOL     OW85978   6.601  10.729  12.379  0.3641  0.3670 -0.0587
26672SOL    HW185979   6.683  10.738  12.330  0.2952  0.1690 -0.2134
26672SOL    HW285980   6.533  10.726  12.312  0.3842 -1.2642 -0.0474
26673SOL     OW85981   8.311   9.131   2.176 -0.1850 -0.0739  0.1023
26673SOL    HW185982   8.350   9.052   2.213 -2.5986 -0.2611  2.6087
26673SOL    HW285983   8.299   9.111   2.083  0.0475 -2.3091  0.5059
26674SOL     OW85984   1.176   1.624   8.010 -0.5804  0.1199 -0.1770
26674SOL    HW185985   1.137   1.698   7.963  1.6286  2.3253  1.2037
26674SOL    HW285986   1.262   1.614   7.970 -0.2604 -0.6988  0.6999
26675SOL     OW85987   0.820   3.761   9.848  0.1136 -0.1537  0.0718
26675SOL    HW185988   0.840   3.696   9.916  0.3313  0.0019  0.1580
26675SOL    HW285989   0.798   3.709   9.771 -0.3750 -0.3351  0.3281
26676SOL     OW85990   9.237   5.490  11.058  0.0156 -0.0779  0.3529
26676SOL    HW185991   9.219   5.553  10.988  2.0771 -0.2969 -0.4254
26676SOL    HW285992   9.315   5.523  11.101  0.2960 -1.3426  0.8602
26677SOL     OW85993   4.243   8.356   8.728  0.0770  0.6509 -0.0240
26677SOL    HW185994   4.278   8.397   8.806 -0.6929  1.9274 -0.3099
26677SOL    HW285995   4.150   8.345   8.747  0.4715 -2.3382  0.5891
26678SOL     OW85996   6.291   4.009   8.921 -0.3033 -0.2040  0.4160
26678SOL    HW185997   6.338   4.010   9.004 -0.7430  3.0786  0.7694
26678SOL    HW285998   6.351   4.053   8.860 -1.4704  0.8889  0.0115
26679SOL     OW85999  11.952   2.512   9.202  0.2313 -0.4396  0.2226
26679SOL    HW186000  11.957   2.603   9.232  0.5505 -0.1909 -0.5619
26679SOL    HW286001  11.888   2.513   9.131 -0.3331 -0.9763  0.7128
26680SOL     OW86002   4.625   2.928   1.460  0.2972 -0.1108  0.0960
26680SOL    HW186003   4.621   2.879   1.378  0.4668 -0.3772  0.2438
26680SOL    HW286004   4.693   2.993   1.447  0.8074 -0.6017  0.2626
26681SOL     OW86005   2.789  11.235   4.336  0.0686  0.0434 -0.5579
26681SOL    HW186006   2.815  11.195   4.419 -1.5875  1.5983  0.8025
26681SOL    HW286007   2.771  11.161   4.279  0.3816 -1.0940  0.7423
26682SOL     OW86008   5.757   4.195   2.852 -0.1595  0.2289 -0.3431
26682SOL    HW186009   5.785   4.232   2.768  2.0213  1.3323  0.7781
26682SOL    HW286010   5.828   4.137   2.878 -1.2485 -0.8570  0.3403
26683SOL     OW86011  11.908   8.820   3.983 -0.3508  0.3940  0.2627
26683SOL    HW186012  11.958   8.768   3.919  0.1971  0.9516  0.2298
26683SOL    HW286013  11.862   8.754   4.036 -1.4586 -0.0699 -1.1914
26684SOL     OW86014  10.048   9.786   0.040 -0.0933 -0.6155 -0.0874
26684SOL    HW186015   9.961   9.748   0.052 -1.2420  1.4497 -1.2521
26684SOL    HW286016  10.050   9.858   0.104  0.2354  0.1340 -0.9324
26685SOL     OW86017   4.587   8.912  11.420  0.4281 -0.0482  0.3472
26685SOL    HW186018   4.593   8.823  11.385 -0.1731 -0.0672  0.2799
26685SOL    HW286019   4.671   8.926  11.463  0.7066 -0.4787 -0.0392
26686SOL     OW86020   3.122   5.384   5.907  0.2547 -0.1825 -1.1996
26686SOL    HW186021   3.102   5.376   6.000 -0.2181  0.2224 -1.2661
26686SOL    HW286022   3.141   5.477   5.894  1.8708 -0.4817 -1.2080
26687SOL     OW86023  10.034  10.599   2.273 -0.5335  0.1115  0.1082
26687SOL    HW186024  10.063  10.509   2.290 -1.8658 -0.4394 -0.4170
26687SOL    HW286025  10.063  10.648   2.350 -0.5111 -0.9358  0.7897
26688SOL     OW86026   3.587   2.374   0.804  0.0972  0.2700 -0.0100
26688SOL    HW186027   3.649   2.307   0.829  1.6182  1.5233 -0.2578
26688SOL    HW286028   3.516   2.367   0.868  1.4692  0.1321  1.5461
26689SOL     OW86029   0.625   6.605  10.878  0.0826  0.0624  0.2243
26689SOL    HW186030   0.595   6.592  10.789  1.5901 -1.9516 -0.0751
26689SOL    HW286031   0.689   6.676  10.872 -0.1369  0.2233 -0.2289
26690SOL     OW86032   6.686   5.816  10.312 -0.3950 -0.3337 -0.3074
26690SOL    HW186033   6.671   5.906  10.282 -2.4626 -0.7938 -0.8042
26690SOL    HW286034   6.650   5.814  10.401  0.5762 -0.4320  0.0952
26691SOL     OW86035   7.268   6.787   5.735  0.0659  0.2373 -0.2120
26691SOL    HW186036   7.294   6.829   5.816  1.2451 -0.8981  0.0263
26691SOL    HW286037   7.224   6.706   5.762  0.5878 -0.2201 -0.6890
26692SOL     OW86038   5.344   5.816   9.875 -0.4613 -0.5317  0.3434
26692SOL    HW186039   5.435   5.845   9.884  0.0065 -1.8848  0.2918
26692SOL    HW286040   5.346   5.724   9.902 -2.6114  0.3826  4.5349
26693SOL     OW86041   1.005   3.292   3.280  0.1931 -0.1788 -0.0431
26693SOL    HW186042   0.951   3.229   3.231  0.8910 -0.6816 -0.1807
26693SOL    HW286043   1.004   3.259   3.370 -2.4500  1.6425  0.7089
26694SOL     OW86044  11.409   0.552   0.113 -0.5013 -0.5913  0.3477
26694SOL    HW186045  11.479   0.580   0.172 -0.0228 -1.5876  0.2632
26694SOL    HW286046  11.341   0.619   0.124 -0.3899 -0.7015  1.9613
26695SOL     OW86047   7.439   9.440   3.078 -0.0160  0.8155  0.2918
26695SOL    HW186048   7.420   9.471   2.989 -0.6333 -0.7618 -0.1490
26695SOL    HW286049   7.369   9.378   3.097  0.3352  0.8328  1.7426
26696SOL     OW86050   6.833   5.247   5.933 -0.2660  0.0588 -0.0660
26696SOL    HW186051   6.909   5.196   5.903  0.2586  0.6346  0.2473
26696SOL    HW286052   6.762   5.221   5.876  0.3896  0.1545 -0.9488
26697SOL     OW86053   2.790  10.151  10.807  0.1411  0.6270  0.2837
26697SOL    HW186054   2.884  10.132  10.802 -0.1938 -1.0208  0.0380
26697SOL    HW286055   2.751  10.105  10.733 -0.6188  3.2234 -1.0630
26698SOL     OW86056   3.007   6.380   9.537  0.1518 -0.4202 -0.0731
26698SOL    HW186057   3.046   6.452   9.586 -0.9967  0.3471 -0.2410
26698SOL    HW286058   2.966   6.422   9.462 -0.1873 -1.3042 -0.3932
26699SOL     OW86059   5.449   9.961   2.613  0.3444  0.2970 -0.4243
26699SOL    HW186060   5.516   9.893   2.624  1.0994  0.7596 -1.9645
26699SOL    HW286061   5.495  10.043   2.633 -0.6975  0.3797  1.9633
26700SOL     OW86062   0.748   5.213   8.155  0.0699  0.1711 -0.1981
26700SOL    HW186063   0.800   5.155   8.099  0.3661  1.0917 -0.9054
26700SOL    HW286064   0.657   5.197   8.129  0.1611  0.1032 -0.4811
26701SOL     OW86065   5.358   7.498   6.712 -0.3990 -0.3350 -0.0752
26701SOL    HW186066   5.380   7.411   6.679  0.0136 -0.0700 -0.5138
26701SOL    HW286067   5.399   7.502   6.799 -0.1035 -0.4402 -0.2100
26702SOL     OW86068  10.306   8.685  10.695 -0.2259 -0.1199  0.0108
26702SOL    HW186069  10.314   8.753  10.628  1.9502  0.9127  1.2135
26702SOL    HW286070  10.364   8.615  10.664 -0.1452 -0.1486  0.2224
26703SOL     OW86071   7.527   2.027   9.316 -0.5096  0.0075  0.2609
26703SOL    HW186072   7.540   1.933   9.310 -0.4707  0.0481 -0.3682
26703SOL    HW286073   7.563   2.051   9.402  0.2435 -0.4247  0.0790
26704SOL     OW86074   0.342   8.598   0.331  0.0273 -0.0117 -0.0036
26704SOL    HW186075   0.356   8.693   0.336  0.0637  0.0394 -0.8085
26704SOL    HW286076   0.280   8.587   0.258 -0.3943 -0.5708  0.4342
26705SOL     OW86077   0.217   0.614   2.741 -0.0090 -0.1615  0.2803
26705SOL    HW186078   0.132   0.611   2.697  0.7295  1.2169 -1.3537
26705SOL    HW286079   0.202   0.668   2.818 -0.9547 -1.2822  0.9171
26706SOL     OW86080   3.631   1.158  11.566 -0.0862  0.7717 -1.0753
26706SOL    HW186081   3.621   1.248  11.536  2.2479  1.9451  1.3481
26706SOL    HW286082   3.553   1.142  11.619 -0.1759  1.6505 -0.9224
26707SOL     OW86083   9.489   9.840   6.551  0.3270 -0.5909  0.3076
26707SOL    HW186084   9.406   9.794   6.550  0.0282 -0.0878  1.0171
26707SOL    HW286085   9.499   9.875   6.463 -0.2578 -0.5727  0.2474
26708SOL     OW86086   9.918   4.484   7.862  0.1095  0.2778  0.5174
26708SOL    HW186087   9.919   4.486   7.766 -2.6163  2.3747  0.4028
26708SOL    HW286088   9.882   4.397   7.883 -2.5357  1.0007 -0.5865
26709SOL     OW86089   0.433   0.492   5.799  0.0764 -0.1527  0.0885
26709SOL    HW186090   0.378   0.432   5.849 -0.1069 -0.0301  0.0337
26709SOL    HW286091   0.383   0.509   5.719 -0.3792  0.9524  0.5852
26710SOL     OW86092   5.528   5.696   2.891 -0.4512  0.2281  0.1806
26710SOL    HW186093   5.501   5.623   2.835  0.0492 -0.6614  1.0566
26710SOL    HW286094   5.448   5.746   2.905 -0.9655 -0.5435  0.1155
26711SOL     OW86095  10.495   7.194   8.379 -0.0142 -0.2675 -0.4030
26711SOL    HW186096  10.424   7.236   8.427  0.9853  1.4151 -0.3411
26711SOL    HW286097  10.572   7.205   8.434  0.6082 -0.7111 -1.1549
26712SOL     OW86098   9.982   1.385   4.028  0.2008 -0.1189 -0.4436
26712SOL    HW186099   9.902   1.439   4.025 -0.7825 -1.4798  0.1885
26712SOL    HW286100  10.028   1.416   4.106  0.0561  0.3488 -0.5372
26713SOL     OW86101   4.144  10.231   6.203 -0.2667 -0.3665 -0.1967
26713SOL    HW186102   4.160  10.306   6.146  0.8884 -1.5152 -1.4359
26713SOL    HW286103   4.049  10.231   6.217 -0.5131  0.2019 -1.7604
26714SOL     OW86104   4.308   1.537   7.627  0.2056 -0.5633 -0.1102
26714SOL    HW186105   4.347   1.613   7.583  0.8621 -1.5251 -1.2831
26714SOL    HW286106   4.311   1.559   7.720  2.9062 -0.2298 -0.1735
26715SOL     OW86107   6.245   6.868   3.918  0.2687 -0.3300 -0.2999
26715SOL    HW186108   6.183   6.801   3.949  1.4114 -0.1648  2.6423
26715SOL    HW286109   6.213   6.891   3.830 -1.7317 -2.7593 -0.3324
26716SOL     OW86110   7.645   9.596  11.407  0.0525 -0.9182 -0.0979
26716SOL    HW186111   7.571   9.558  11.359 -1.5357 -0.3884  1.7830
26716SOL    HW286112   7.613   9.605  11.496  2.5795 -1.0474  0.8976
26717SOL     OW86113   9.643   2.945   7.151  0.1042 -0.1053 -0.7301
26717SOL    HW186114   9.671   2.862   7.191  0.0065 -0.5798 -1.6395
26717SOL    HW286115   9.709   2.963   7.084  0.7475  1.1357  0.1731
26718SOL     OW86116  10.149   2.253   6.326 -0.3964  0.4242 -0.4010
26718SOL    HW186117  10.142   2.194   6.251 -1.9422  3.0997 -2.5586
26718SOL    HW286118  10.067   2.303   6.324 -0.0845  1.2079  2.5869
26719SOL     OW86119   4.142   1.568   8.015 -0.1166  0.2216  0.3692
26719SOL    HW186120   4.234   1.594   8.014 -0.0145  0.0013  1.6272
26719SOL    HW286121   4.143   1.476   8.040 -0.6669  0.1526  0.1515
26720SOL     OW86122  11.729   9.786   6.150  0.3075  0.3159 -0.2000
26720SOL    HW186123  11.801   9.767   6.091  0.2640 -3.1011  0.6019
26720SOL    HW286124  11.768   9.837   6.221  1.4359  0.3568 -0.8412
26721SOL     OW86125   4.955   0.192   6.535 -0.0578 -0.6621  0.4660
26721SOL    HW186126   5.040   0.204   6.492 -0.5171  0.9845 -0.0810
26721SOL    HW286127   4.975   0.175   6.626  0.8681  1.3726  0.6852
26722SOL     OW86128   1.580   6.941   2.679 -0.0957 -0.3682 -0.1283
26722SOL    HW186129   1.569   6.955   2.773  0.1061  0.3267 -0.1992
26722SOL    HW286130   1.509   6.882   2.655 -1.3874  1.0173  0.1121
26723SOL     OW86131   9.256  10.592   4.571  0.0036  0.7561 -0.6532
26723SOL    HW186132   9.200  10.593   4.494 -1.8734  0.2342  0.6274
26723SOL    HW286133   9.325  10.655   4.552 -2.0025  2.8073 -1.6241
26724SOL     OW86134   2.689   0.232   3.516 -0.3033  0.4297 -0.2513
26724SOL    HW186135   2.736   0.169   3.570  0.5387  0.2564 -1.1618
26724SOL    HW286136   2.707   0.317   3.557 -0.1570  0.2409  0.0737
26725SOL     OW86137   4.231  10.040   4.788  0.0149  0.1411 -0.1025
26725SOL    HW186138   4.139  10.029   4.815 -0.1207  2.0962  0.3645
26725SOL    HW286139   4.227  10.104   4.717  1.1169  1.1760  0.7388
26726SOL     OW86140   6.516  10.414  11.084 -0.4733 -0.0833 -0.1458
26726SOL    HW186141   6.608  10.397  11.102 -0.3840  0.4269 -0.0881
26726SOL    HW286142   6.469  10.347  11.133 -0.0850 -1.5597 -1.7066
26727SOL     OW86143   7.120   2.532  11.912 -1.0626 -0.0815 -0.5243
26727SOL    HW186144   7.123   2.494  11.824 -0.0597  0.6891 -0.8364
26727SOL    HW286145   7.212   2.538  11.939 -1.3909 -0.9021  0.8427
26728SOL     OW86146   5.361  10.818  10.814 -0.2539  0.1303 -0.5892
26728SOL    HW186147   5.408  10.875  10.875 -0.7326  0.2594 -0.3274
26728SOL    HW286148   5.293  10.777  10.868 -0.9240  0.5266 -1.1071
26729SOL     OW86149   5.773   5.698   3.068  0.5224 -0.4638  0.0556
26729SOL    HW186150   5.805   5.783   3.098  1.0917 -0.6817  0.0746
26729SOL    HW286151   5.706   5.719   3.004 -1.2969  0.0383  2.0048
26730SOL     OW86152   2.703   8.895   2.064 -0.0979  0.2421 -1.2504
26730SOL    HW186153   2.655   8.827   2.112  0.6353 -0.5075 -1.5522
26730SOL    HW286154   2.683   8.878   1.972  0.5472  0.0651 -1.3640
26731SOL     OW86155   1.171   1.772  11.126 -0.3642  0.1463 -0.5313
26731SOL    HW186156   1.142   1.863  11.121 -1.0707  0.1397  1.8124
26731SOL    HW286157   1.102   1.722  11.083 -1.3108  0.5601  0.4435
26732SOL     OW86158   6.932   7.862   1.581  0.1503 -0.1780 -0.1785
26732SOL    HW186159   6.881   7.885   1.503  0.6105 -0.1694 -0.4777
26732SOL    HW286160   7.003   7.808   1.548  1.6300  1.6146 -0.0802
26733SOL     OW86161   1.099   0.820   2.105  0.0979 -0.2192  0.2575
26733SOL    HW186162   1.168   0.882   2.129  0.2574 -0.5923  0.7906
26733SOL    HW286163   1.040   0.819   2.181  0.5373 -1.3243  0.6006
26734SOL     OW86164   2.823   6.928   5.331  0.4238  0.5050  0.7262
26734SOL    HW186165   2.876   6.865   5.380  0.1910  0.5167  0.9971
26734SOL    HW286166   2.776   6.875   5.267  1.2155  0.5718  0.0848
26735SOL     OW86167   4.978   8.389  10.530  0.1506  0.1658 -0.1634
26735SOL    HW186168   4.998   8.328  10.601 -2.5646 -0.0276  0.5547
26735SOL    HW286169   4.937   8.464  10.574  2.6438  2.2290 -1.1221
26736SOL     OW86170  12.400   2.924   1.655 -0.0399  0.0158  0.1984
26736SOL    HW186171  12.365   3.003   1.613  0.0545 -0.5931 -1.0654
26736SOL    HW286172  12.360   2.923   1.742 -2.6456 -0.3042 -0.9418
26737SOL     OW86173   5.587   0.001  12.144 -0.3014  0.1609 -0.0233
26737SOL    HW186174   5.577  -0.010  12.050 -1.0368  1.3485 -0.1166
26737SOL    HW286175   5.499  -0.012  12.179 -0.4726  1.7351  0.2361
26738SOL     OW86176   7.084   6.041   5.512 -0.1411  0.1849 -0.4964
26738SOL    HW186177   7.123   5.969   5.561 -1.1539 -0.8570 -1.1664
26738SOL    HW286178   7.091   6.015   5.420 -2.4490 -0.1560 -0.6500
26739SOL     OW86179   1.920  10.862   6.469 -0.4486  0.0222  0.4763
26739SOL    HW186180   1.852  10.929   6.457 -0.7798 -0.1872  1.1519
26739SOL    HW286181   1.933  10.825   6.382 -0.8830  0.3724  0.2581
26740SOL     OW86182  11.528   8.964   2.565  0.2796  0.3582  0.1875
26740SOL    HW186183  11.565   8.985   2.480 -0.8063  0.3868 -0.2919
26740SOL    HW286184  11.449   8.913   2.546  1.0143 -1.2847  1.2216
26741SOL     OW86185   7.462   3.745   2.986 -0.1676 -0.0923 -0.3549
26741SOL    HW186186   7.475   3.738   3.081 -1.6227  2.2935  0.0996
26741SOL    HW286187   7.532   3.804   2.957 -1.7008  1.9708 -0.1087
26742SOL     OW86188   1.235   8.534   0.999 -0.1876 -0.5580  0.6046
26742SOL    HW186189   1.310   8.474   1.009  0.4825  0.2993  0.8439
26742SOL    HW286190   1.209   8.554   1.088  0.5819  0.7036  0.5644
26743SOL     OW86191   3.990  10.315   1.542 -0.2373 -0.2370 -0.0495
26743SOL    HW186192   4.043  10.346   1.468 -1.4393 -2.4197 -1.9389
26743SOL    HW286193   3.921  10.381   1.552 -0.1864 -0.0254 -1.0308
26744SOL     OW86194   7.956  10.748   6.360  0.1689  0.5836  0.1239
26744SOL    HW186195   7.947  10.832   6.404  1.6759 -0.0564  1.8214
26744SOL    HW286196   8.020  10.700   6.413 -1.0587 -1.8522 -0.4172
26745SOL     OW86197  11.211  11.550   4.181 -0.6404 -0.2986  0.0920
26745SOL    HW186198  11.239  11.461   4.200  0.6374 -0.1998 -1.1888
26745SOL    HW286199  11.219  11.597   4.264 -0.7543 -1.2252  0.6305
26746SOL     OW86200   1.497   5.440   0.185  0.0310 -0.5088 -0.2079
26746SOL    HW186201   1.477   5.385   0.109 -1.1746  0.5731 -0.7267
26746SOL    HW286202   1.439   5.407   0.254  0.1446 -0.6320 -0.1721
26747SOL     OW86203   8.036   1.307   9.780  0.0839  0.5924  0.2153
26747SOL    HW186204   8.056   1.337   9.691 -0.4249  1.2105  0.3031
26747SOL    HW286205   8.041   1.385   9.834 -1.3821  0.5788  0.4231
26748SOL     OW86206   9.082  10.594   0.700  0.0722  0.0929 -0.6358
26748SOL    HW186207   9.033  10.593   0.782  0.0730 -0.2157 -0.6368
26748SOL    HW286208   9.048  10.670   0.653 -1.0239 -0.5950 -1.0004
26749SOL     OW86209   3.196   2.967   7.410  0.0765  0.3379  0.0961
26749SOL    HW186210   3.235   3.019   7.480  0.7447 -1.3541  1.0242
26749SOL    HW286211   3.260   2.973   7.338 -0.0920  1.1808  0.0037
26750SOL     OW86212   9.296  11.383   7.914  0.0110  0.2067  0.6142
26750SOL    HW186213   9.271  11.436   7.990  0.6586 -0.1125  1.0679
26750SOL    HW286214   9.237  11.308   7.917  0.8959 -0.4818  1.6062
26751SOL     OW86215   5.092   5.405   1.529  0.7878 -0.3569 -0.1236
26751SOL    HW186216   5.174   5.372   1.564  0.4639 -0.1947  0.8028
26751SOL    HW286217   5.067   5.341   1.462  2.3963  0.3432 -1.4773
26752SOL     OW86218   9.218   0.683   8.547 -0.0052  0.3223 -0.1910
26752SOL    HW186219   9.192   0.760   8.598  0.1797  0.7998 -0.8093
26752SOL    HW286220   9.162   0.685   8.470  0.4597  0.2184 -0.5339
26753SOL     OW86221   7.636   8.730   8.047 -0.0942  0.3387 -0.1551
26753SOL    HW186222   7.635   8.720   7.952 -1.1704 -1.6573  0.0045
26753SOL    HW286223   7.719   8.691   8.074 -0.4117 -0.3615 -0.1819
26754SOL     OW86224  10.945   4.856   8.014  0.4374 -0.1108 -0.0446
26754SOL    HW186225  10.866   4.847   8.067  0.4656 -0.9072 -0.1371
26754SOL    HW286226  10.913   4.875   7.926  0.3663  0.0484  0.0141
26755SOL     OW86227   7.470   0.230  12.208  0.6456  0.3128 -0.4574
26755SOL    HW186228   7.396   0.238  12.268  0.2766  3.6039 -1.1799
26755SOL    HW286229   7.512   0.148  12.234  0.0312  1.0884  3.7693
26756SOL     OW86230  11.684  11.347   4.703  0.4576 -0.4936  0.1407
26756SOL    HW186231  11.736  11.364   4.782  0.2847 -1.3189  0.4409
26756SOL    HW286232  11.676  11.252   4.699 -0.7147 -0.4007 -0.1105
26757SOL     OW86233   2.404   0.261  10.273  0.8008 -0.2473 -0.4782
26757SOL    HW186234   2.435   0.297  10.189  2.3351 -0.3622 -0.0010
26757SOL    HW286235   2.321   0.219  10.252  1.3389 -0.6159 -2.0486
26758SOL     OW86236   1.246  10.873   4.820 -0.1453 -0.1271  0.5855
26758SOL    HW186237   1.307  10.945   4.809 -0.2201  0.0668  1.4494
26758SOL    HW286238   1.218  10.877   4.911 -1.2829 -0.3427  0.2695
26759SOL     OW86239   6.907   3.032   6.872  0.0481 -0.0211  0.2004
26759SOL    HW186240   6.890   3.101   6.936  1.0274 -0.2443  0.7266
26759SOL    HW286241   6.826   3.025   6.821 -0.0033  1.6585 -0.0079
26760SOL     OW86242   9.524   4.303  11.134 -0.0658  0.2669 -0.2211
26760SOL    HW186243   9.520   4.296  11.038 -0.2403 -1.5733 -0.1190
26760SOL    HW286244   9.443   4.347  11.159 -0.4149 -0.0034 -0.8619
26761SOL     OW86245   2.986  10.764   3.796  0.4446  0.3345  0.7069
26761SOL    HW186246   3.079  10.778   3.776  1.5731 -3.1198  2.7476
26761SOL    HW286247   2.969  10.674   3.771 -2.1098  0.5561  1.3613
26762SOL     OW86248  11.512   0.075   5.470 -0.3224  0.5693 -0.0505
26762SOL    HW186249  11.590   0.042   5.514 -1.1247 -0.0598  0.9189
26762SOL    HW286250  11.532   0.067   5.376  0.9071  0.7692  0.1791
26763SOL     OW86251   0.049   2.354   7.816 -0.0376 -0.6442 -0.3625
26763SOL    HW186252  -0.013   2.417   7.780 -1.4130 -1.8171 -0.1700
26763SOL    HW286253   0.106   2.405   7.874 -1.9029  0.2420  0.7699
26764SOL     OW86254   4.158   9.922   2.002 -0.3084 -0.0806  0.2843
26764SOL    HW186255   4.177   9.855   1.937  0.7572  0.7640 -0.2846
26764SOL    HW286256   4.092   9.978   1.961  0.5288  0.5831 -0.1637
26765SOL     OW86257   1.996   4.401  11.768  0.2556  0.2855  0.0572
26765SOL    HW186258   1.987   4.406  11.863  0.5237 -1.2038  0.1832
26765SOL    HW286259   2.010   4.492  11.741  0.5159  0.7011  1.4724
26766SOL     OW86260   1.531   8.842   0.384 -0.2226  0.8283 -0.2523
26766SOL    HW186261   1.566   8.907   0.324  1.1994 -1.0787 -1.6177
26766SOL    HW286262   1.437   8.840   0.366  0.2669 -0.4271 -3.3226
26767SOL     OW86263  11.479   4.387   9.440 -0.3303 -0.6532  0.1059
26767SOL    HW186264  11.423   4.344   9.375  0.6266 -2.5367  0.4464
26767SOL    HW286265  11.508   4.315   9.497  0.6317  0.6187  1.2766
26768SOL     OW86266   1.144   2.726  11.703  0.3685 -0.2336 -0.3564
26768SOL    HW186267   1.132   2.807  11.751 -0.4321 -0.6368  0.1477
26768SOL    HW286268   1.074   2.725  11.638 -2.2459 -2.3458  2.2470
26769SOL     OW86269   1.228   6.354   4.255 -0.3175  0.1555  0.5924
26769SOL    HW186270   1.238   6.331   4.348 -2.6380 -0.1520  0.8352
26769SOL    HW286271   1.264   6.442   4.248  1.7719 -0.5914  1.3071
26770SOL     OW86272  10.458   9.543   7.032 -0.6589 -0.7272  0.0176
26770SOL    HW186273  10.488   9.622   6.986  0.0320 -1.2737 -0.4769
26770SOL    HW286274  10.412   9.492   6.964  0.5100 -1.6148 -0.1315
26771SOL     OW86275  12.182   8.626   7.387 -0.0395 -0.6535 -0.2775
26771SOL    HW186276  12.268   8.592   7.364  0.5026 -0.3765  1.2169
26771SOL    HW286277  12.167   8.595   7.477 -1.0714  0.1000 -0.1705
26772SOL     OW86278   7.018   4.094   4.308 -0.2011 -0.5958  0.1801
26772SOL    HW186279   6.928   4.113   4.334 -0.4166 -1.7042  0.3133
26772SOL    HW286280   7.049   4.174   4.267  0.1052  1.2400  3.6196
26773SOL     OW86281   8.483  10.585  11.723 -0.1275 -0.6964 -0.4240
26773SOL    HW186282   8.558  10.527  11.737 -0.0990 -0.3887  0.7406
26773SOL    HW286283   8.508  10.667  11.765 -2.1489 -1.3860  2.3892
26774SOL     OW86284   8.495   3.446   6.982  0.3931 -0.1054  0.0070
26774SOL    HW186285   8.440   3.516   6.946 -0.0499  0.8961  2.4112
26774SOL    HW286286   8.434   3.392   7.032  1.2694  0.0065  1.2653
26775SOL     OW86287   7.035   2.687   6.063 -0.0460 -0.1570  0.3881
26775SOL    HW186288   6.985   2.642   6.131 -0.3589 -0.9498 -0.3473
26775SOL    HW286289   7.062   2.770   6.103 -1.2822 -0.0593  1.0588
26776SOL     OW86290   4.058   5.865   2.709 -0.2700 -0.0517 -0.0947
26776SOL    HW186291   3.985   5.902   2.659 -1.8042 -1.8609  0.6631
26776SOL    HW286292   4.027   5.867   2.800  0.8346 -0.4172  0.2955
26777SOL     OW86293   4.311   4.839   2.004 -0.1785  0.0429  0.1575
26777SOL    HW186294   4.370   4.876   2.070 -0.3886 -3.0012  2.2176
26777SOL    HW286295   4.369   4.799   1.940 -0.0107  0.7733 -0.1620
26778SOL     OW86296   1.584   1.946   2.027  0.7009 -0.1645  0.3059
26778SOL    HW186297   1.680   1.950   2.030  0.6731  0.9447  0.1637
26778SOL    HW286298   1.561   1.889   2.100  1.5116 -1.4545 -0.4174
26779SOL     OW86299   9.273   3.303   6.260  0.4396  0.0286 -0.3409
26779SOL    HW186300   9.206   3.259   6.207  1.6404 -1.2677 -0.8541
26779SOL    HW286301   9.249   3.283   6.350 -1.9141  2.6760 -0.2574
26780SOL     OW86302   3.517   5.342   7.112 -0.0479  1.0713 -0.0198
26780SOL    HW186303   3.550   5.280   7.047 -1.3483  0.9646 -0.6111
26780SOL    HW286304   3.570   5.325   7.190  0.1615 -0.2232 -0.4143
26781SOL     OW86305   3.170   3.200  10.757  0.3256  0.3661 -0.0343
26781SOL    HW186306   3.225   3.276  10.738 -1.5232  1.5420 -1.0067
26781SOL    HW286307   3.097   3.235  10.807 -0.3993 -0.8272 -0.2147
26782SOL     OW86308   0.637   6.511   8.526 -0.6326 -0.4300 -0.2483
26782SOL    HW186309   0.729   6.484   8.533  0.0886  2.0220  1.0294
26782SOL    HW286310   0.624   6.526   8.433  0.2532 -0.8566 -0.4538
26783SOL     OW86311   9.474   4.434   9.427 -0.2814 -0.1480 -0.2060
26783SOL    HW186312   9.503   4.507   9.371 -1.1179  0.2020 -0.1943
26783SOL    HW286313   9.383   4.419   9.402 -0.7608  0.1867  1.2231
26784SOL     OW86314   5.236   5.505  11.511  0.0114 -0.2293  0.0956
26784SOL    HW186315   5.210   5.593  11.483 -0.1125 -0.3135 -0.0591
26784SOL    HW286316   5.328   5.513  11.535  0.2399 -0.2413 -0.7434
26785SOL     OW86317  11.544  12.434   3.911 -0.3586  0.0579 -0.1451
26785SOL    HW186318  11.610  12.476   3.856  0.1790  1.4247  1.4437
26785SOL    HW286319  11.489  12.385   3.850  1.5580 -0.3769 -1.6196
26786SOL     OW86320   2.288   4.545   5.020 -0.0558 -0.3081 -0.2849
26786SOL    HW186321   2.237   4.478   4.977 -1.4381  0.3349  0.2862
26786SOL    HW286322   2.230   4.621   5.024  1.0382  0.5395  0.1564
26787SOL     OW86323   0.230   3.239   0.470 -0.9865 -0.0236  0.3343
26787SOL    HW186324   0.315   3.268   0.440 -1.1009  0.6796  0.6576
26787SOL    HW286325   0.171   3.254   0.396 -0.7934 -0.7204  0.0343
26788SOL     OW86326  12.329   1.639   1.610 -0.2774  0.3799  0.0637
26788SOL    HW186327  12.395   1.616   1.546 -1.2340 -1.2701 -0.3961
26788SOL    HW286328  12.268   1.696   1.563 -1.4602 -1.5420 -0.8162
26789SOL     OW86329   8.161   3.596   4.104  0.3042  0.3142  0.0590
26789SOL    HW186330   8.116   3.524   4.148  1.3464 -1.2343 -1.3211
26789SOL    HW286331   8.105   3.620   4.031  0.6498 -0.1138 -0.3522
26790SOL     OW86332  10.205   9.017   1.605  0.1072  0.1488  0.4247
26790SOL    HW186333  10.239   9.094   1.561  0.4122  0.6858  1.5511
26790SOL    HW286334  10.271   8.949   1.591  1.2138  0.8975  1.7453
26791SOL     OW86335   2.248   9.227   3.242 -0.1441 -0.0892  1.2262
26791SOL    HW186336   2.176   9.287   3.260  0.1069  0.5298  0.2632
26791SOL    HW286337   2.322   9.263   3.291  0.3718  1.2305 -0.3946
26792SOL     OW86338   6.377   1.742  10.756 -0.3242  0.1300  0.5763
26792SOL    HW186339   6.311   1.786  10.809 -1.3896 -0.0862 -0.5134
26792SOL    HW286340   6.378   1.652  10.789  1.3347  0.7439  2.3251
26793SOL     OW86341   7.690   5.002   7.878 -0.3128 -0.0737 -0.0326
26793SOL    HW186342   7.614   4.979   7.931  0.5135 -0.7456  0.9075
26793SOL    HW286343   7.671   4.964   7.792 -0.8541 -0.5998  0.3110
26794SOL     OW86344  10.868  12.095   0.073  0.0294  0.4049 -0.4002
26794SOL    HW186345  10.869  12.042   0.153 -1.5469  2.0036  0.7692
26794SOL    HW286346  10.786  12.069   0.029 -0.5665  1.5493  0.0008
26795SOL     OW86347   9.070   9.632   0.036  0.0374 -0.2306  0.1292
26795SOL    HW186348   9.160   9.631   0.068  0.5242  0.9702 -1.1245
26795SOL    HW286349   9.035   9.545   0.060  2.0127 -1.3220 -0.7149
26796SOL     OW86350   3.094   0.218   3.734  0.0518 -0.1847  0.1826
26796SOL    HW186351   3.015   0.252   3.776 -0.9267 -0.8376 -1.0882
26796SOL    HW286352   3.086   0.123   3.741  1.0173 -0.2490  0.5474
26797SOL     OW86353   6.080   8.106  10.710  0.0751 -0.2426 -0.0002
26797SOL    HW186354   6.015   8.083  10.644  0.5972  0.0745 -0.6361
26797SOL    HW286355   6.055   8.056  10.788 -1.5643  0.7012  0.1182
26798SOL     OW86356   4.102  11.409   3.056 -0.2599 -0.4503 -0.0204
26798SOL    HW186357   4.074  11.373   2.971 -0.0966 -0.2799 -0.1463
26798SOL    HW286358   4.137  11.333   3.103 -0.9376 -0.6691  0.1431
26799SOL     OW86359   9.419   7.704  11.109  0.0362 -0.4262 -0.1587
26799SOL    HW186360   9.351   7.732  11.170  0.3837 -1.3200  0.6803
26799SOL    HW286361   9.375   7.646  11.048 -0.0346 -0.7442  0.1863
26800SOL     OW86362   9.393   6.439  11.963 -0.5997  0.1097 -0.3273
26800SOL    HW186363   9.371   6.355  11.923  0.3610 -0.6920  0.7564
26800SOL    HW286364   9.332   6.502  11.923  0.8623 -0.4238 -3.7162
26801SOL     OW86365   0.880   5.387   9.146  0.5118  0.2846 -0.3134
26801SOL    HW186366   0.943   5.314   9.151 -0.3214 -0.5164 -1.1115
26801SOL    HW286367   0.931   5.458   9.107  1.0186 -0.2625 -0.6910
26802SOL     OW86368   8.552   1.077  10.108 -0.4856 -0.1075  0.4321
26802SOL    HW186369   8.644   1.086  10.134 -0.7850 -0.1689  1.5926
26802SOL    HW286370   8.526   1.166  10.083  0.3762 -0.3999 -1.7603
26803SOL     OW86371   0.454   3.083   4.126  0.5423 -0.4034  0.7697
26803SOL    HW186372   0.415   3.140   4.060  1.0585 -0.4137  0.4513
26803SOL    HW286373   0.487   3.142   4.193 -0.5866 -0.4211  1.3682
26804SOL     OW86374  10.890  12.410   6.566  0.2784  0.0171 -0.3628
26804SOL    HW186375  10.962  12.466   6.595 -0.4679  0.1362  1.3684
26804SOL    HW286376  10.933  12.335   6.524  1.3764  0.5367 -0.1938
26805SOL     OW86377   5.338   4.868  10.794  0.0813  0.2948 -0.4500
26805SOL    HW186378   5.348   4.860  10.889  1.0805  1.3402 -0.4395
26805SOL    HW286379   5.412   4.924  10.768 -0.7272  0.7914 -1.7188
26806SOL     OW86380  11.760  11.572   5.207 -0.1471  0.4965 -0.2943
26806SOL    HW186381  11.839  11.610   5.170  0.1893 -1.0791 -1.3291
26806SOL    HW286382  11.689  11.625   5.172  0.3563  0.8809 -0.7556
26807SOL     OW86383   7.045   6.350   9.680 -0.3516  0.4972 -0.6251
26807SOL    HW186384   6.968   6.387   9.637 -0.8675  1.2356  0.8679
26807SOL    HW286385   7.067   6.413   9.748  0.1093 -0.8808  0.5559
26808SOL     OW86386   0.830   2.000   1.943 -0.3755 -0.0596  0.0840
26808SOL    HW186387   0.852   1.918   1.987 -0.2828 -0.5775 -0.8786
26808SOL    HW286388   0.910   2.052   1.947  0.3493 -0.9769 -1.3208
26809SOL     OW86389   1.036   4.248   5.766 -0.1851 -0.2213  0.0896
26809SOL    HW186390   1.115   4.196   5.747  0.6238  1.3445 -1.0168
26809SOL    HW286391   1.047   4.274   5.858  1.0977  0.7593 -0.3087
26810SOL     OW86392   2.517  10.932   2.939 -0.1210 -0.6172  0.2912
26810SOL    HW186393   2.543  10.891   2.857  0.6795 -0.7833  0.6224
26810SOL    HW286394   2.529  11.026   2.925  0.3178 -0.6677  0.3218
26811SOL     OW86395   1.846  11.962  10.504  0.2112  0.4255  0.8745
26811SOL    HW186396   1.803  12.042  10.535  1.9439  1.1556  1.5181
26811SOL    HW286397   1.777  11.914  10.458 -0.4622  3.1141 -1.1375
26812SOL     OW86398  11.885  10.965   0.930 -0.2070  0.2542  0.4538
26812SOL    HW186399  11.937  11.004   0.860  0.8714  1.2743  1.7713
26812SOL    HW286400  11.858  11.038   0.985 -0.9565 -0.5278  1.1701
26813SOL     OW86401   0.561   3.722   3.818  0.1001 -0.8080  0.2372
26813SOL    HW186402   0.604   3.656   3.763  0.9427 -1.0745  1.1781
26813SOL    HW286403   0.554   3.681   3.904  0.5104  0.2727  0.8103
26814SOL     OW86404   3.024   5.565  10.920 -0.0091 -0.5555 -0.2957
26814SOL    HW186405   3.057   5.626  10.986  0.0075 -1.4989  0.6075
26814SOL    HW286406   3.032   5.611  10.837  1.5869  0.0268  0.1554
26815SOL     OW86407   5.956   4.313  11.698 -0.0080  0.0978  0.0111
26815SOL    HW186408   6.026   4.264  11.653 -0.9718  0.4749 -1.9879
26815SOL    HW286409   6.001   4.388  11.736  1.0108 -0.7768  0.5995
26816SOL     OW86410  11.699   9.572   5.096 -0.4278  0.0191  0.0046
26816SOL    HW186411  11.671   9.597   5.184 -1.7283 -0.2571 -0.3043
26816SOL    HW286412  11.737   9.652   5.060  1.0259 -0.1196  1.1318
26817SOL     OW86413   2.646   0.381   4.167 -0.5727  0.7229  0.1030
26817SOL    HW186414   2.562   0.410   4.203 -0.8588  1.3900 -1.0552
26817SOL    HW286415   2.625   0.304   4.115 -0.4211  0.7378  0.0191
26818SOL     OW86416   2.138   0.369   3.384  0.1034 -0.1460 -0.2316
26818SOL    HW186417   2.062   0.419   3.413 -0.2926 -0.3889 -0.8132
26818SOL    HW286418   2.155   0.308   3.455  0.4305  0.6369  0.3719
26819SOL     OW86419   0.742   0.600   1.784  0.1351  0.3804 -0.2251
26819SOL    HW186420   0.685   0.540   1.832 -1.5166  0.6232 -1.7822
26819SOL    HW286421   0.782   0.655   1.851 -1.7767  0.4553  0.9128
26820SOL     OW86422   6.310  11.140   6.035 -0.3512  0.1094 -0.5613
26820SOL    HW186423   6.228  11.139   6.083  0.5306  0.8018  1.0084
26820SOL    HW286424   6.296  11.206   5.966 -0.6259  1.3145  0.6047
26821SOL     OW86425   1.460   1.035   9.709 -0.2360  0.0085  0.1485
26821SOL    HW186426   1.481   1.024   9.616 -0.7620 -2.5387  0.2609
26821SOL    HW286427   1.520   0.975   9.754 -0.6792  0.4519  1.3708
26822SOL     OW86428   0.256   9.456   6.649 -0.1540  0.8255 -0.2492
26822SOL    HW186429   0.239   9.368   6.618  1.6082  0.0208  0.9173
26822SOL    HW286430   0.243   9.512   6.572 -0.3898 -0.5329 -1.2246
26823SOL     OW86431   4.726  10.548   2.011  0.0093  0.1701  0.3300
26823SOL    HW186432   4.696  10.458   2.020  1.0476 -0.2136  0.0347
26823SOL    HW286433   4.749  10.557   1.919  3.2452 -0.3767  0.9684
26824SOL     OW86434   0.584   4.615   7.606  0.0648  0.6294 -0.1697
26824SOL    HW186435   0.530   4.568   7.543 -0.3276 -1.7425  1.7992
26824SOL    HW286436   0.645   4.665   7.552 -2.3031  1.2861 -2.4185
26825SOL     OW86437  12.253   3.606   9.887 -0.3847 -0.0976  0.6665
26825SOL    HW186438  12.322   3.563   9.837 -0.4310 -0.6547  1.0834
26825SOL    HW286439  12.189   3.537   9.905 -0.6071  0.2096  1.0724
26826SOL     OW86440   9.135  11.698   2.028  0.6745 -0.8748 -0.1426
26826SOL    HW186441   9.056  11.696   2.082  1.0197 -1.7508  0.3678
26826SOL    HW286442   9.204  11.664   2.086  1.1119 -1.5642 -1.0421
26827SOL     OW86443   7.153  12.296   2.168 -0.0030 -0.3670  0.0436
26827SOL    HW186444   7.101  12.331   2.241 -0.7627  0.9522 -1.0812
26827SOL    HW286445   7.219  12.241   2.210  0.2760  1.2159  1.8253
26828SOL     OW86446   7.210   8.330  11.345 -0.5175  0.8229 -0.2525
26828SOL    HW186447   7.243   8.303  11.259  0.1478  1.4370 -0.1959
26828SOL    HW286448   7.278   8.304  11.406 -1.1994 -0.0491  0.1654
26829SOL     OW86449  10.966   3.605   4.141  0.0127  0.8417 -0.3375
26829SOL    HW186450  10.909   3.546   4.093  0.8501 -1.1437  0.9979
26829SOL    HW286451  10.954   3.690   4.098 -0.9063 -0.3527 -2.6087
26830SOL     OW86452   7.082   6.923   3.923 -0.1542  0.0677  0.5891
26830SOL    HW186453   7.052   6.991   3.984 -0.0554  0.9586 -0.3391
26830SOL    HW286454   7.005   6.867   3.911 -0.9135  1.2711 -0.3245
26831SOL     OW86455   5.815   7.016   9.818  0.3823 -0.0389  0.5999
26831SOL    HW186456   5.822   6.921   9.822  0.1775 -0.1162 -0.6300
26831SOL    HW286457   5.842   7.045   9.905  1.4054 -1.1598  0.6842
26832SOL     OW86458  10.225  11.671   1.033  0.1937 -0.0107  0.1373
26832SOL    HW186459  10.150  11.728   1.052  1.6812  1.9103  0.5182
26832SOL    HW286460  10.266  11.710   0.955 -0.1047 -2.0131 -1.0982
26833SOL     OW86461   1.014   8.013  10.617  0.4523 -0.4370  0.1285
26833SOL    HW186462   1.033   8.024  10.524  2.2536  0.7612  0.5895
26833SOL    HW286463   1.098   8.027  10.660 -0.7364  1.0453  2.0985
26834SOL     OW86464   2.731  11.740   4.656 -0.2527  0.6314 -0.4364
26834SOL    HW186465   2.794  11.676   4.622 -0.2870  0.6855 -0.6023
26834SOL    HW286466   2.757  11.823   4.615 -0.3209  0.6884 -0.3637
26835SOL     OW86467   5.161   9.035   7.900  0.4701 -0.2508 -0.3652
26835SOL    HW186468   5.080   9.074   7.932  0.5579 -1.2557  1.1530
26835SOL    HW286469   5.219   9.109   7.887  0.1061  0.2906  0.9122
26836SOL     OW86470  11.906  12.008  11.574 -0.6132  0.5513  0.0327
26836SOL    HW186471  11.949  12.087  11.606 -0.7637  0.9583 -0.7399
26836SOL    HW286472  11.898  11.952  11.651  1.1821  0.5071  0.2313
26837SOL     OW86473   4.737   5.322   1.100  0.5909  0.4564  0.1046
26837SOL    HW186474   4.785   5.405   1.090  2.7940 -0.9564 -2.6577
26837SOL    HW286475   4.678   5.320   1.024  2.7668 -1.6815 -1.7012
26838SOL     OW86476   7.294   2.905   9.486 -0.3328  0.2079  0.4868
26838SOL    HW186477   7.370   2.955   9.457  0.1603 -1.3815 -1.2149
26838SOL    HW286478   7.266   2.857   9.407 -2.4417 -0.0852  1.3389
26839SOL     OW86479   2.268   9.435   8.298  0.1426 -0.0408  0.0494
26839SOL    HW186480   2.335   9.404   8.237  0.6089 -0.4828  0.7788
26839SOL    HW286481   2.222   9.503   8.249  1.3749  0.5539 -0.3314
26840SOL     OW86482   8.165   5.585   9.968  0.5159  0.0981 -0.7096
26840SOL    HW186483   8.071   5.590   9.981  0.8364  2.1400  1.4281
26840SOL    HW286484   8.175   5.537   9.886 -2.3320 -0.6918 -0.7021
26841SOL     OW86485   7.248   7.837   0.518  0.1342 -0.0220  0.2938
26841SOL    HW186486   7.168   7.879   0.486 -0.2916  0.7437  2.2490
26841SOL    HW286487   7.221   7.749   0.544  0.3984 -0.4990 -0.9388
26842SOL     OW86488   5.372   4.469  12.353 -0.3122 -0.0611 -0.0064
26842SOL    HW186489   5.468   4.469  12.349 -0.3408 -0.5490 -1.2251
26842SOL    HW286490   5.351   4.520  12.431  0.9290  0.8729 -0.2475
26843SOL     OW86491   0.605   3.577   6.456 -0.5773 -0.8472 -0.7346
26843SOL    HW186492   0.594   3.515   6.528  0.3313 -1.0771 -0.7763
26843SOL    HW286493   0.545   3.545   6.388  0.7532 -2.4548 -1.2342
26844SOL     OW86494  10.648   7.978   9.224 -0.2232  0.0556  0.6736
26844SOL    HW186495  10.707   7.976   9.299  3.1140  2.9459 -1.5416
26844SOL    HW286496  10.630   8.071   9.211 -2.1470 -0.4984 -1.0844
26845SOL     OW86497   1.553  10.868   5.413  0.3683  0.1080 -0.4646
26845SOL    HW186498   1.593  10.895   5.331 -2.7825  1.9733 -1.5524
26845SOL    HW286499   1.507  10.946   5.444 -1.0254 -1.3839  1.4929
26846SOL     OW86500  12.411   2.945   9.912  0.1728 -0.5981  0.0671
26846SOL    HW186501  12.407   2.980  10.001  1.1596 -0.6762  0.1518
26846SOL    HW286502  12.469   2.869   9.918 -0.0397 -0.8200 -0.5772
26847SOL     OW86503  10.362  11.697   7.682 -0.2070  0.3423  0.3184
26847SOL    HW186504  10.394  11.607   7.682 -1.0451  0.0319  0.7243
26847SOL    HW286505  10.271  11.690   7.711 -0.2771  1.3255  0.3720
26848SOL     OW86506   4.509   1.255   0.309 -0.7301  0.8785  0.7798
26848SOL    HW186507   4.551   1.338   0.329 -0.5161  0.8680  0.3862
26848SOL    HW286508   4.534   1.236   0.218 -1.9244  1.0809  0.3860
26849SOL     OW86509   5.229   9.252   5.793 -0.5921 -0.3538  0.3879
26849SOL    HW186510   5.212   9.215   5.707 -2.4604  1.3135 -0.0449
26849SOL    HW286511   5.161   9.215   5.849 -0.8376  0.3388  0.5628
26850SOL     OW86512   0.373   1.434   9.032  0.2921 -0.2477  0.4119
26850SOL    HW186513   0.421   1.388   9.100  0.5402  0.8543  0.9874
26850SOL    HW286514   0.281   1.409   9.047  0.3807 -0.2601  0.9471
26851SOL     OW86515   0.730  11.185   7.323 -0.4463  0.3199  0.1238
26851SOL    HW186516   0.705  11.092   7.320 -3.1297  0.9887 -1.3042
26851SOL    HW286517   0.647  11.232   7.320  0.9038  2.8002 -0.9459
26852SOL     OW86518  10.728  10.187  10.172 -0.9023 -0.6458  0.2034
26852SOL    HW186519  10.747  10.161  10.082 -1.3017  0.4735 -0.2265
26852SOL    HW286520  10.716  10.105  10.219  1.1611 -1.3109 -0.3443
26853SOL     OW86521   7.300  11.701   3.761  0.3950  0.3993  0.2242
26853SOL    HW186522   7.237  11.653   3.815 -0.1426  2.0639  1.1562
26853SOL    HW286523   7.349  11.633   3.715 -0.8106 -1.0009  0.9176
26854SOL     OW86524   6.460   8.028   9.958 -0.4901 -0.0035 -0.7815
26854SOL    HW186525   6.550   8.006   9.933 -0.5484  0.2904 -1.2818
26854SOL    HW286526   6.467   8.115   9.997 -0.3606 -0.5784  0.5286
26855SOL     OW86527   9.179   5.714   2.723  0.0919  0.2938  0.3465
26855SOL    HW186528   9.088   5.708   2.752 -0.2636 -0.1737 -0.7995
26855SOL    HW286529   9.175   5.766   2.643  0.8841  0.5642  0.4756
26856SOL     OW86530   0.977   4.237   5.051  0.3144  0.3447 -0.1082
26856SOL    HW186531   0.914   4.252   5.122 -1.2544  1.5434 -1.6343
26856SOL    HW286532   1.062   4.237   5.094 -0.6750 -1.4637  2.0801
26857SOL     OW86533   6.305  12.042  11.031  0.3895 -0.4244  0.1069
26857SOL    HW186534   6.305  12.024  10.937 -1.0960 -0.0967  0.0204
26857SOL    HW286535   6.345  11.964  11.070 -1.0832 -1.6008 -0.6418
26858SOL     OW86536   9.559   8.648   9.514 -0.0820 -0.0598 -0.2448
26858SOL    HW186537   9.618   8.578   9.543 -0.4580 -0.3873 -0.2640
26858SOL    HW286538   9.520   8.681   9.595  0.5867  0.5823 -0.1698
26859SOL     OW86539   8.051  10.860   4.569  0.3295 -0.5489 -0.4375
26859SOL    HW186540   8.142  10.881   4.552  0.2063  1.2957  0.9084
26859SOL    HW286541   8.002  10.936   4.539 -0.6958 -1.1780 -0.4304
26860SOL     OW86542   0.408   1.040   2.751  0.1408  0.5815 -0.1041
26860SOL    HW186543   0.473   0.971   2.753 -0.6904 -0.2038  0.6221
26860SOL    HW286544   0.343   1.011   2.687  0.6529  1.5178 -1.0793
26861SOL     OW86545   9.787   8.869   9.747  0.2600  0.1479  0.3102
26861SOL    HW186546   9.879   8.891   9.761  0.0862  1.8856 -0.8505
26861SOL    HW286547   9.782   8.849   9.654 -0.9472  2.8983 -0.3297
26862SOL     OW86548   1.715  12.454  11.075 -0.0780 -0.0984  0.3947
26862SOL    HW186549   1.708  12.369  11.118  0.2812  0.3372  1.3422
26862SOL    HW286550   1.798  12.489  11.106  0.6215 -0.1141 -1.3193
26863SOL     OW86551   1.050   5.542   4.369 -0.2503  0.1863  0.2286
26863SOL    HW186552   1.013   5.513   4.452 -0.8015  1.8287  0.6022
26863SOL    HW286553   0.974   5.564   4.315 -0.0926 -3.6098 -1.9115
26864SOL     OW86554   5.286   3.201   4.281  0.2972  0.1290  0.1627
26864SOL    HW186555   5.240   3.201   4.365 -0.7064 -0.6046 -0.3635
26864SOL    HW286556   5.365   3.150   4.297 -0.7162 -1.4964  0.2694
26865SOL     OW86557   2.690  10.056   9.050 -0.1635 -0.3321  0.0218
26865SOL    HW186558   2.647  10.141   9.054  1.6882  0.8193 -2.0887
26865SOL    HW286559   2.651  10.013   8.974  0.2004 -0.5743 -0.0351
26866SOL     OW86560   9.993  10.950   2.702  0.2024 -0.2797  0.3731
26866SOL    HW186561   9.979  11.035   2.659  0.9019 -0.1757  0.3376
26866SOL    HW286562   9.934  10.953   2.778  0.7701  0.5582  0.7996
26867SOL     OW86563   9.541  11.858   2.406  0.1706 -0.0600 -0.1821
26867SOL    HW186564   9.508  11.934   2.454  1.0983  2.1634 -2.7569
26867SOL    HW286565   9.636  11.859   2.421  0.0943 -1.2978  0.4821
26868SOL     OW86566   8.241   9.359   8.274 -0.5701  0.5913  0.2948
26868SOL    HW186567   8.271   9.413   8.347 -0.3422  3.5432 -1.7742
26868SOL    HW286568   8.150   9.340   8.295 -0.6835  1.8654  1.1193
26869SOL     OW86569  10.222   0.816  11.268 -0.2743 -0.1870 -0.0615
26869SOL    HW186570  10.239   0.854  11.354  0.0214 -0.0177 -0.1926
26869SOL    HW286571  10.237   0.722  11.279  2.1932  0.0946 -0.5105
26870SOL     OW86572   1.086   0.808   1.749 -0.6594  0.0615 -0.4817
26870SOL    HW186573   1.121   0.895   1.770  3.0794 -1.1006 -1.1789
26870SOL    HW286574   1.112   0.753   1.824 -1.7642 -0.7725 -0.6838
26871SOL     OW86575  10.171   3.922  10.019  0.2289  0.3407 -0.0336
26871SOL    HW186576  10.218   3.866   9.957 -0.5225 -0.8821  0.4720
26871SOL    HW286577  10.161   3.868  10.097  0.0067  1.4021  0.6847
26872SOL     OW86578   0.403   6.912   1.350  0.4385 -0.4998 -0.0371
26872SOL    HW186579   0.388   6.853   1.276  0.3616  1.3109 -1.5415
26872SOL    HW286580   0.447   6.858   1.415  1.0112 -2.0250 -1.6154
26873SOL     OW86581   9.421   0.043   8.002 -0.4718  0.1001 -0.6486
26873SOL    HW186582   9.370   0.121   8.023 -0.8367 -0.5562  1.0742
26873SOL    HW286583   9.508   0.076   7.981 -0.7581  0.9988 -0.4840
26874SOL     OW86584   8.007   7.169   3.559 -0.5279 -0.1135  0.2649
26874SOL    HW186585   8.025   7.228   3.632  0.4555 -0.0738  0.0083
26874SOL    HW286586   8.069   7.097   3.570  0.9503  0.7814 -1.5141
26875SOL     OW86587   2.492   2.313   3.025 -0.3743 -0.1610 -0.1181
26875SOL    HW186588   2.502   2.401   2.990 -1.0028 -0.6433 -1.5947
26875SOL    HW286589   2.572   2.297   3.075 -0.4769  1.4141  0.5896
26876SOL     OW86590   7.527   4.321  10.570 -0.2538 -0.6350  0.4717
26876SOL    HW186591   7.527   4.291  10.479  1.7345  0.4762  0.0509
26876SOL    HW286592   7.439   4.355  10.584 -0.3998 -0.1690 -1.2951
26877SOL     OW86593   8.097   1.578  11.649  0.2293  0.3820  0.2380
26877SOL    HW186594   8.033   1.507  11.655  0.2431  0.3747  0.3007
26877SOL    HW286595   8.082   1.616  11.562  1.0883 -0.5184 -0.3302
26878SOL     OW86596   2.277  11.402  11.365  0.5469  0.5819  0.2748
26878SOL    HW186597   2.222  11.461  11.417  1.3027  0.3980  1.3044
26878SOL    HW286598   2.257  11.315  11.397 -0.6869  0.2196 -1.3605
26879SOL     OW86599   6.137   5.979   3.325 -0.5154  0.6491  0.0773
26879SOL    HW186600   6.106   6.066   3.349 -0.7667  0.8820 -1.0283
26879SOL    HW286601   6.073   5.919   3.363 -0.1651  0.9214  1.1145
26880SOL     OW86602   8.175   0.034   5.987  0.0849  0.2404 -0.0337
26880SOL    HW186603   8.233  -0.042   5.990 -0.3630 -0.1447 -0.8476
26880SOL    HW286604   8.089   0.000   6.010  0.1858  0.8383  1.2989
26881SOL     OW86605   5.967   3.679   7.838 -0.7171  0.4173  0.1046
26881SOL    HW186606   6.062   3.690   7.847 -0.6381 -0.7564  0.9252
26881SOL    HW286607   5.942   3.623   7.911 -2.0999  0.9252  0.0554
26882SOL     OW86608   4.767   2.173   7.607  0.0077  0.2584 -0.0631
26882SOL    HW186609   4.746   2.083   7.633  0.7729 -0.2161 -1.0036
26882SOL    HW286610   4.859   2.185   7.632  0.3248  0.2801 -1.1629
26883SOL     OW86611   5.615   4.389  10.297 -0.6812  0.1561  0.0688
26883SOL    HW186612   5.521   4.410  10.304 -0.8765 -0.3650 -0.8049
26883SOL    HW286613   5.617   4.299  10.265  0.1377 -0.3888  1.5529
26884SOL     OW86614  11.234  10.648  11.183 -0.4399 -0.0355 -0.0557
26884SOL    HW186615  11.219  10.682  11.271  0.4479  1.4477 -0.4416
26884SOL    HW286616  11.269  10.560  11.197 -1.2184 -0.1922  1.0314
26885SOL     OW86617   7.755   1.505   7.240 -0.0610 -0.2193  0.3189
26885SOL    HW186618   7.828   1.480   7.297 -0.6173 -1.1929  0.6201
26885SOL    HW286619   7.796   1.554   7.168  0.7609  0.1429  1.0161
26886SOL     OW86620   9.586   8.429   1.581  0.0752 -0.2799 -0.4632
26886SOL    HW186621   9.607   8.515   1.545 -1.6341  0.5150  0.3083
26886SOL    HW286622   9.521   8.393   1.521  0.6769 -0.9979 -0.7017
26887SOL     OW86623   0.232  10.530  12.316 -0.2440  0.2804 -0.2516
26887SOL    HW186624   0.315  10.560  12.280 -0.5786 -0.5247 -1.8129
26887SOL    HW286625   0.169  10.545  12.246 -2.0783  3.5624  1.8746
26888SOL     OW86626   3.184   7.025   2.239 -0.0839  0.6189  0.5070
26888SOL    HW186627   3.099   7.043   2.199  0.9921  1.7017 -1.4263
26888SOL    HW286628   3.180   7.071   2.323 -1.5040  0.3661  0.6142
26889SOL     OW86629   9.642   3.902   9.150  0.1053  0.3673  0.0335
26889SOL    HW186630   9.581   3.971   9.176  1.3442  1.3379  0.4579
26889SOL    HW286631   9.718   3.914   9.207  0.2681 -1.4974  0.2627
26890SOL     OW86632   2.248  12.400  11.292 -0.0865  0.0730  0.1501
26890SOL    HW186633   2.174  12.379  11.235 -0.7821 -1.3344  1.5098
26890SOL    HW286634   2.238  12.493  11.312 -3.0440 -0.5901  2.3913
26891SOL     OW86635   4.942   7.901   0.873  0.2203 -0.3425  0.7573
26891SOL    HW186636   4.996   7.869   0.801 -0.8350  1.5055 -0.9337
26891SOL    HW286637   4.967   7.846   0.948  2.7103 -1.0744 -0.5174
26892SOL     OW86638   9.339   3.153  12.338 -0.3802 -0.7022 -0.1800
26892SOL    HW186639   9.335   3.243  12.371 -2.3322 -1.6304  2.4428
26892SOL    HW286640   9.410   3.113  12.387  0.0978 -0.7595 -0.9136
26893SOL     OW86641  11.962   0.014   7.856  0.0119 -0.5887  0.5881
26893SOL    HW186642  11.920   0.100   7.858  0.2782 -0.4178 -0.6282
26893SOL    HW286643  11.913  -0.036   7.790  0.3088 -1.1362  0.7737
26894SOL     OW86644   6.645  11.268   0.248  0.1405  0.3096 -0.1843
26894SOL    HW186645   6.712  11.200   0.258  1.1484  1.2265 -0.5119
26894SOL    HW286646   6.686  11.347   0.281 -0.8695  0.8514 -0.1972
26895SOL     OW86647   2.446   3.555   4.698  0.7634  0.4110  0.1214
26895SOL    HW186648   2.412   3.601   4.621 -1.8434  0.5881  1.2612
26895SOL    HW286649   2.490   3.624   4.749 -0.7002  1.1206  0.4886
26896SOL     OW86650  12.414  11.837   8.718 -0.0497  0.1315 -0.6447
26896SOL    HW186651  12.443  11.917   8.675 -0.3820  1.1200  0.8621
26896SOL    HW286652  12.327  11.820   8.682  0.7076 -0.5783 -2.2432
26897SOL     OW86653   5.175   5.103   4.213 -0.3679 -0.7155 -0.0104
26897SOL    HW186654   5.161   5.033   4.150 -0.1098 -1.8114  1.1191
26897SOL    HW286655   5.155   5.183   4.165 -1.5606 -1.6128 -1.0579
26898SOL     OW86656  11.582   2.135   5.633  0.2949 -0.8388 -0.2324
26898SOL    HW186657  11.673   2.164   5.630  0.8485 -2.3780  0.5135
26898SOL    HW286658  11.584   2.056   5.687 -1.3096 -1.5399 -1.1352
26899SOL     OW86659   6.074   1.215   3.754 -0.0417 -0.3384  0.5275
26899SOL    HW186660   6.031   1.144   3.803  0.3170 -0.7932  0.1886
26899SOL    HW286661   6.030   1.294   3.785 -0.7335 -0.7412  0.6105
26900SOL     OW86662  10.884   0.968   4.561  0.1603  0.0282 -0.2237
26900SOL    HW186663  10.929   1.027   4.621 -2.1726  0.1281  1.5819
26900SOL    HW286664  10.811   0.933   4.612 -2.3563  0.5706 -3.1621
26901SOL     OW86665   3.468   8.335   7.176  0.4874  0.2514 -0.4329
26901SOL    HW186666   3.470   8.351   7.082  1.1165  2.2380 -0.1187
26901SOL    HW286667   3.502   8.246   7.186  1.9913  0.6106 -1.9798
26902SOL     OW86668   0.420   3.980   7.277  0.4863 -0.4210 -0.5384
26902SOL    HW186669   0.392   3.979   7.368  0.1186 -0.3556 -0.6477
26902SOL    HW286670   0.338   3.986   7.227  0.6586 -0.9889 -0.8888
26903SOL     OW86671   2.304  10.448   3.156  0.1745 -0.2021  0.3281
26903SOL    HW186672   2.211  10.454   3.179 -0.2923  0.0210 -1.4351
26903SOL    HW286673   2.304  10.440   3.060  2.0019  0.3021  0.2557
26904SOL     OW86674   9.068   7.078   5.147 -0.4481  0.2233 -0.2078
26904SOL    HW186675   9.022   7.019   5.208 -0.4188  0.5538  0.1362
26904SOL    HW286676   9.056   7.165   5.185 -1.3779  0.5774 -1.2686
26905SOL     OW86677   2.416   4.360  11.350 -0.0737 -0.0909 -0.1779
26905SOL    HW186678   2.390   4.428  11.412 -0.1887 -0.1464 -0.1654
26905SOL    HW286679   2.392   4.394  11.264 -0.7912 -0.4151 -0.1148
26906SOL     OW86680   1.562  11.247   8.611  0.3661  0.1294  0.7831
26906SOL    HW186681   1.562  11.324   8.554  0.9068 -1.7031 -1.8704
26906SOL    HW286682   1.638  11.259   8.667  0.3521  1.5900  0.5249
26907SOL     OW86683  10.099  12.163   4.910 -0.2494  0.2882  0.3514
26907SOL    HW186684  10.066  12.214   4.983  0.3153  0.3132  0.5994
26907SOL    HW286685  10.107  12.225   4.837 -0.4209  0.3543  0.3904
26908SOL     OW86686   5.552   2.934   5.055  0.0855  0.0905 -0.1053
26908SOL    HW186687   5.594   2.853   5.084  0.1424  0.2210  0.1803
26908SOL    HW286688   5.483   2.950   5.119  1.2536  1.2523  0.9341
26909SOL     OW86689   2.921  11.915   5.304 -0.2678  0.0609 -0.4332
26909SOL    HW186690   2.832  11.910   5.270  0.2119  2.7675 -2.3891
26909SOL    HW286691   2.917  11.981   5.374  0.2690  0.5702 -0.8713
26910SOL     OW86692  11.270   6.352   4.472 -0.1719 -0.3640 -0.6349
26910SOL    HW186693  11.334   6.283   4.489  1.3224  0.8795 -0.8875
26910SOL    HW286694  11.291   6.384   4.384 -0.8527  0.3725 -0.5492
26911SOL     OW86695   7.125   1.163   4.531  0.1832  0.4832  0.0604
26911SOL    HW186696   7.030   1.151   4.522  0.4485 -1.9252 -0.2170
26911SOL    HW286697   7.143   1.244   4.483 -1.7895  1.3123  0.6090
26912SOL     OW86698  10.134  10.430   4.579  0.0987  0.2842  0.0482
26912SOL    HW186699  10.167  10.390   4.660 -0.2871  0.3566  0.2436
26912SOL    HW286700  10.192  10.505   4.564  1.1419 -0.6162 -0.5940
26913SOL     OW86701   0.647   9.531   2.373 -0.2316 -0.1017  0.0477
26913SOL    HW186702   0.716   9.476   2.338 -0.1471 -0.3665  0.6311
26913SOL    HW286703   0.605   9.569   2.295 -0.2653 -0.9459 -0.3525
26914SOL     OW86704   1.308   7.562   7.056 -0.3891 -0.4328 -0.1888
26914SOL    HW186705   1.349   7.561   6.970  2.8412  2.3108  1.0484
26914SOL    HW286706   1.285   7.471   7.073  2.9736 -1.8666 -2.2118
26915SOL     OW86707   5.310  10.026   2.151 -0.0959 -0.2494 -0.3476
26915SOL    HW186708   5.324   9.934   2.127  0.3358 -0.1494 -0.4759
26915SOL    HW286709   5.288  10.023   2.244 -0.4760 -0.5194 -0.4450
26916SOL     OW86710  10.781   1.703  11.484 -0.5987 -0.3039 -0.0589
26916SOL    HW186711  10.830   1.754  11.549 -1.2818  0.4862 -0.1472
26916SOL    HW286712  10.690   1.727  11.498 -0.8500 -0.8757 -0.6657
26917SOL     OW86713  11.305   2.359   2.690  0.4868  0.2745  0.6458
26917SOL    HW186714  11.360   2.341   2.766 -0.6000  1.0150  1.6503
26917SOL    HW286715  11.283   2.272   2.655  0.7726 -0.0951  1.3551
26918SOL     OW86716   9.902   1.443   7.296  0.8271  0.5411  0.2888
26918SOL    HW186717   9.893   1.495   7.376  0.2903  0.1744  0.4754
26918SOL    HW286718   9.955   1.368   7.322  1.5669  0.9660  0.0293
26919SOL     OW86719   6.279  10.682   9.198 -0.1956  0.4646 -0.3203
26919SOL    HW186720   6.355  10.673   9.140  1.4713  0.6665  1.7159
26919SOL    HW286721   6.271  10.776   9.211  1.1262  0.3469  1.7700
26920SOL     OW86722   8.433   0.367   3.368  0.4094  1.1237  0.0379
26920SOL    HW186723   8.459   0.275   3.364 -2.0523  0.3817 -0.9106
26920SOL    HW286724   8.431   0.396   3.277 -1.8840  1.0856  0.0058
26921SOL     OW86725   0.870  11.609   8.023  0.3989  0.0730  0.1036
26921SOL    HW186726   0.880  11.549   7.949 -1.0820  0.6381 -0.5861
26921SOL    HW286727   0.953  11.656   8.027  0.5840 -0.1360 -1.0367
26922SOL     OW86728  11.803   9.603   8.359  0.2927 -0.5843 -0.3421
26922SOL    HW186729  11.735   9.668   8.376  0.1753 -0.3044 -1.7992
26922SOL    HW286730  11.867   9.617   8.428 -0.2207  0.3954 -0.0501
26923SOL     OW86731  10.090   6.823   0.640 -0.0652  0.2768 -0.0701
26923SOL    HW186732  10.009   6.870   0.658 -0.6008 -1.0900  1.3014
26923SOL    HW286733  10.065   6.731   0.637  1.7998 -0.4836  3.2774
26924SOL     OW86734   9.521  11.204   5.993  0.1506 -0.0510 -0.1458
26924SOL    HW186735   9.595  11.252   6.032  0.6145 -1.1063  0.3100
26924SOL    HW286736   9.471  11.271   5.947 -0.4173  1.3026  2.2536
26925SOL     OW86737   2.168   5.804   5.093 -0.1423  0.4118 -0.1919
26925SOL    HW186738   2.261   5.808   5.114 -0.3976 -0.7741  1.4511
26925SOL    HW286739   2.141   5.895   5.082  1.4443  0.7200 -2.0690
26926SOL     OW86740   7.185   0.312  12.031  0.1808 -0.4423 -0.3068
26926SOL    HW186741   7.148   0.297  12.118  1.0191  0.5404  0.2460
26926SOL    HW286742   7.204   0.224  11.998  0.5479 -0.8034  0.8137
26927SOL     OW86743   8.487  12.016  10.089  0.4629 -0.0836 -0.1777
26927SOL    HW186744   8.489  11.965  10.009  1.2118  0.8122 -0.7460
26927SOL    HW286745   8.573  12.058  10.094  0.8038 -0.8668  1.5997
26928SOL     OW86746   9.953   1.531   3.800 -1.0680 -0.0504 -0.1961
26928SOL    HW186747  10.002   1.530   3.883 -2.4688 -2.8793  0.7193
26928SOL    HW286748   9.955   1.623   3.773  1.6810  0.5521  1.5671
26929SOL     OW86749   7.793   7.496   0.194  0.3830  0.6744  0.1784
26929SOL    HW186750   7.773   7.536   0.109  0.0725  1.8224  0.7687
26929SOL    HW286751   7.868   7.440   0.177  0.0214  0.5068 -0.9575
26930SOL     OW86752   2.042   3.581   3.417 -0.3533  0.2041  0.1618
26930SOL    HW186753   1.995   3.589   3.334  1.3923  0.7869 -0.8055
26930SOL    HW286754   1.989   3.633   3.478 -1.0266  0.7711 -0.8599
26931SOL     OW86755   5.671   9.289   8.883  0.1995 -0.1407  0.0106
26931SOL    HW186756   5.692   9.218   8.943  0.0941  0.2607  0.5254
26931SOL    HW286757   5.732   9.360   8.907  1.5890 -0.6773 -1.7017
26932SOL     OW86758   0.899   5.284  10.469 -0.3665  0.2366  0.1948
26932SOL    HW186759   0.867   5.349  10.407  0.3757 -0.1127 -0.5840
26932SOL    HW286760   0.990   5.268  10.442 -0.7313 -1.6104 -0.0667
26933SOL     OW86761  11.148   9.541   9.382  0.4961 -0.5127  0.5189
26933SOL    HW186762  11.082   9.508   9.443 -0.7383 -1.0271 -1.0168
26933SOL    HW286763  11.149   9.636   9.397 -2.0221 -0.2142 -0.6754
26934SOL     OW86764   0.630   2.762  10.983  0.2766  0.0808  0.3171
26934SOL    HW186765   0.566   2.730  10.919 -1.1802 -1.5258  2.4323
26934SOL    HW286766   0.692   2.690  10.995  1.7333  1.1053 -0.6717
26935SOL     OW86767   5.136   0.195   7.070  0.3594  0.2645  0.3801
26935SOL    HW186768   5.045   0.218   7.084 -0.4900 -2.9124  0.8502
26935SOL    HW286769   5.175   0.195   7.158  0.6918  1.0563  0.2425
26936SOL     OW86770   0.955  11.444   4.728 -0.8035  0.5440 -0.6340
26936SOL    HW186771   0.913  11.500   4.794  1.0544  3.0677 -1.4503
26936SOL    HW286772   1.013  11.387   4.778  1.2057  2.9789 -0.0347
26937SOL     OW86773   4.604   2.015   4.263 -0.2803  0.0101 -0.0751
26937SOL    HW186774   4.604   1.920   4.280  0.0623  0.0790  0.3362
26937SOL    HW286775   4.653   2.024   4.181 -1.3947 -0.2721 -0.7862
26938SOL     OW86776   5.307   2.754  10.827  0.0709 -0.1169 -0.0566
26938SOL    HW186777   5.276   2.843  10.810  1.1797  0.5527  1.2165
26938SOL    HW286778   5.344   2.725  10.744 -0.4802  0.5188 -0.5426
26939SOL     OW86779   4.365  11.471   0.967  0.2045 -0.4347  0.2980
26939SOL    HW186780   4.340  11.544   0.911 -1.0897  0.1285  1.5372
26939SOL    HW286781   4.364  11.508   1.056 -0.9800 -2.0561  1.0064
26940SOL     OW86782   5.137   7.051   4.486 -0.5236 -0.4057 -0.0969
26940SOL    HW186783   5.102   7.004   4.410  2.5037 -1.8748 -0.7318
26940SOL    HW286784   5.122   7.144   4.465 -0.3686 -0.8020 -2.2145
26941SOL     OW86785   3.219   5.498   4.845  0.3972 -0.2516 -0.2385
26941SOL    HW186786   3.276   5.511   4.770  1.6105  3.0212  1.0955
26941SOL    HW286787   3.277   5.473   4.916 -0.2786  0.0595  0.4361
26942SOL     OW86788   9.531   6.156  11.950 -0.4263  0.0467 -0.1490
26942SOL    HW186789   9.579   6.136  11.870 -0.6660 -3.3724  0.3956
26942SOL    HW286790   9.599   6.182  12.013  0.2269 -0.7856 -0.4969
26943SOL     OW86791   7.323   4.343   8.615  0.4264  0.3329  0.1349
26943SOL    HW186792   7.354   4.363   8.527  0.1482  1.4747  0.2779
26943SOL    HW286793   7.234   4.309   8.603  0.9935 -1.1086 -0.1315
26944SOL     OW86794  11.228   5.577   8.538 -0.2413  0.3162  0.5093
26944SOL    HW186795  11.198   5.627   8.614 -1.1160 -0.7768  0.9070
26944SOL    HW286796  11.165   5.597   8.469 -0.6548 -0.3140  0.7010
26945SOL     OW86797   7.096   9.271   0.170  0.4789  0.5018  0.2214
26945SOL    HW186798   7.019   9.327   0.166  0.4258  0.4284  0.2069
26945SOL    HW286799   7.076   9.208   0.240  0.0968 -0.1427 -0.4475
26946SOL     OW86800   8.706   7.526   8.536 -0.6957  0.3936  0.5034
26946SOL    HW186801   8.618   7.493   8.517 -0.8034  0.6822  0.4973
26946SOL    HW286802   8.722   7.593   8.469 -0.8120  0.9428  1.0138
26947SOL     OW86803   4.638   8.107   3.631  0.5102  0.6483  0.8469
26947SOL    HW186804   4.716   8.127   3.581 -0.2399 -0.1358 -0.7061
26947SOL    HW286805   4.631   8.178   3.695  0.7658  2.4690 -1.0598
26948SOL     OW86806   6.300   8.258   8.106  0.2742 -0.0394  0.7621
26948SOL    HW186807   6.252   8.332   8.069  0.6248  0.0195  0.4205
26948SOL    HW286808   6.234   8.191   8.121  0.2315 -0.3459 -0.6871
26949SOL     OW86809   9.434   7.383   0.896 -0.5652 -0.1363 -0.4384
26949SOL    HW186810   9.517   7.335   0.888  0.4194  1.3438  0.4418
26949SOL    HW286811   9.419   7.419   0.809  0.3617  0.5669 -0.3245
26950SOL     OW86812   5.955   1.814   4.030  0.8125 -0.1318  0.5604
26950SOL    HW186813   6.019   1.745   4.043 -1.8237 -2.8812  0.1893
26950SOL    HW286814   6.004   1.886   3.991  3.7999 -1.6064  1.2837
26951SOL     OW86815  10.232  11.890   9.916 -0.0483 -0.2821 -0.1758
26951SOL    HW186816  10.163  11.923   9.858 -1.7629 -2.9200  0.2025
26951SOL    HW286817  10.248  11.800   9.886  0.3036 -1.1019  2.2764
26952SOL     OW86818   0.232   4.344  10.951  0.0651  0.5435  0.1456
26952SOL    HW186819   0.296   4.360  10.882  0.6629 -2.3977 -0.1024
26952SOL    HW286820   0.246   4.416  11.013  3.3534  0.2878 -0.1205
26953SOL     OW86821  11.230   0.224   2.623 -0.1155  0.4562 -0.5163
26953SOL    HW186822  11.247   0.285   2.552 -1.9845  1.3113 -0.2935
26953SOL    HW286823  11.279   0.259   2.697  2.0750 -0.6032 -1.3934
26954SOL     OW86824   8.964   2.218   9.829  0.0809 -0.3284  0.3398
26954SOL    HW186825   8.888   2.274   9.815  0.8650  0.2419 -2.0345
26954SOL    HW286826   8.933   2.129   9.812 -0.3250 -0.2293  0.5682
26955SOL     OW86827   8.057   0.404   8.801 -0.0339  0.1131 -0.2772
26955SOL    HW186828   7.980   0.366   8.843  0.1515 -0.9465 -0.8588
26955SOL    HW286829   8.029   0.422   8.711  0.3473 -0.1589 -0.4560
26956SOL     OW86830   3.505   6.132   5.093 -0.0267  0.0870 -0.1947
26956SOL    HW186831   3.455   6.153   5.172  2.8606 -0.8543  2.0528
26956SOL    HW286832   3.473   6.046   5.066 -1.2339  0.5406 -0.2630
26957SOL     OW86833   7.150   6.449  10.747  0.3672  0.2094 -0.1657
26957SOL    HW186834   7.219   6.390  10.776 -0.0894 -0.9256 -1.3105
26957SOL    HW286835   7.169   6.532  10.792  1.7088 -0.4441  0.5302
26958SOL     OW86836   9.415   2.159   1.721  0.1086 -0.0380 -0.9305
26958SOL    HW186837   9.332   2.113   1.719  0.3954 -0.8090  1.5329
26958SOL    HW286838   9.474   2.105   1.670 -0.4326 -0.5461 -1.0202
26959SOL     OW86839  11.217   0.841  11.021  0.6391  0.3286  0.1489
26959SOL    HW186840  11.253   0.927  11.000  2.1901 -0.4810 -0.6912
26959SOL    HW286841  11.274   0.780  10.975 -1.4615 -1.0800 -0.7211
26960SOL     OW86842   5.487   8.608   1.096  0.4532  0.1525  0.3967
26960SOL    HW186843   5.398   8.599   1.130  0.7436 -0.5691  0.9729
26960SOL    HW286844   5.488   8.696   1.056 -0.6265  0.0227  0.0336
26961SOL     OW86845   5.505   6.346   5.399 -0.4152  0.0117  0.1843
26961SOL    HW186846   5.577   6.409   5.399  0.1880 -0.6671  0.4940
26961SOL    HW286847   5.548   6.261   5.408 -1.3388 -0.3144  1.8273
26962SOL     OW86848   7.269   3.301  11.002  0.1365 -0.2339 -0.1581
26962SOL    HW186849   7.290   3.354  10.925  1.8146  0.2224  0.5810
26962SOL    HW286850   7.348   3.250  11.019  0.0504  0.1935  1.6823
26963SOL     OW86851  11.482   8.017   2.038 -0.0629 -0.5051  0.1023
26963SOL    HW186852  11.552   7.957   2.014  1.3775  1.3558 -0.5964
26963SOL    HW286853  11.527   8.098   2.062 -1.9506  0.7461 -0.3496
26964SOL     OW86854   4.929   2.249   6.731 -0.5372 -0.0594 -0.4798
26964SOL    HW186855   4.976   2.287   6.656  3.4409 -0.3747  1.6263
26964SOL    HW286856   4.941   2.312   6.801  0.9295 -2.3027  1.4294
26965SOL     OW86857   1.196   1.551   8.414 -0.0120  0.3645 -0.4756
26965SOL    HW186858   1.289   1.547   8.434 -0.6117 -0.9798  2.6083
26965SOL    HW286859   1.179   1.644   8.396  1.4989  1.1560  1.6947
26966SOL     OW86860   8.676   1.616   6.183 -0.0050 -0.6695  0.6482
26966SOL    HW186861   8.748   1.561   6.153  1.7548  2.1749 -0.6704
26966SOL    HW286862   8.604   1.597   6.122  0.5982 -1.3901  0.1543
26967SOL     OW86863   7.218   4.582   0.263  0.3857 -0.5716 -0.2475
26967SOL    HW186864   7.127   4.555   0.257  0.1339  0.3592 -1.1571
26967SOL    HW286865   7.224   4.630   0.345 -0.5511  1.3116 -1.1998
26968SOL     OW86866   5.364   2.426  10.124  0.2086 -0.3829  0.9514
26968SOL    HW186867   5.332   2.475  10.201  0.1090  0.0520  0.6411
26968SOL    HW286868   5.315   2.344  10.126 -0.6905  0.1303  0.6805
26969SOL     OW86869   0.331   9.352   9.636  0.4938  0.1918 -0.2628
26969SOL    HW186870   0.278   9.432   9.640  0.4608  0.2144 -1.0534
26969SOL    HW286871   0.421   9.383   9.636  0.5190  0.1558  1.0351
26970SOL     OW86872   8.296   4.825   7.827 -0.0455  0.5237  0.0142
26970SOL    HW186873   8.249   4.847   7.746  1.8472  1.9983 -0.7701
26970SOL    HW286874   8.315   4.910   7.867 -0.8526 -0.1853  2.0034
26971SOL     OW86875   2.218   0.575   4.065  0.0114 -0.0379 -0.7782
26971SOL    HW186876   2.133   0.620   4.066 -0.2266 -0.4640  0.6784
26971SOL    HW286877   2.282   0.646   4.068 -0.3553  0.2692  1.0704
26972SOL     OW86878   8.988   5.176   4.136 -0.0529  0.1666 -0.6026
26972SOL    HW186879   8.905   5.136   4.110 -0.9767  2.1996 -0.9392
26972SOL    HW286880   8.968   5.227   4.214  0.9061  0.5964 -0.6156
26973SOL     OW86881   0.933   5.891  12.198  0.6181 -0.7387  0.5290
26973SOL    HW186882   0.959   5.820  12.139  0.8950 -0.4990  0.3603
26973SOL    HW286883   1.015   5.930  12.226  0.4626  1.0351 -1.2235
26974SOL     OW86884   9.620   6.067   3.080  0.4200 -0.0768 -0.0924
26974SOL    HW186885   9.614   6.162   3.085 -2.2868 -0.1879  0.0776
26974SOL    HW286886   9.659   6.049   2.995  0.3443  1.1787 -0.4075
26975SOL     OW86887   0.665   4.576  10.945 -0.2961 -0.2300  0.4011
26975SOL    HW186888   0.619   4.621  10.873  0.9492 -1.2621 -1.1108
26975SOL    HW286889   0.636   4.622  11.024 -2.0280  0.7034 -0.7048
26976SOL     OW86890   0.929  11.595   2.027 -0.1909 -0.8374 -0.6373
26976SOL    HW186891   0.931  11.562   1.937  1.4620 -2.0035 -0.2200
26976SOL    HW286892   0.924  11.690   2.017  1.4481 -0.8382 -2.0182
26977SOL     OW86893  11.848   4.532   6.442  0.1784 -0.5292  0.1786
26977SOL    HW186894  11.764   4.557   6.404 -0.6275  0.5740  2.5076
26977SOL    HW286895  11.832   4.446   6.482  0.7661 -1.2691 -1.1357
26978SOL     OW86896   4.244   9.230  12.396 -0.6889  0.5793 -0.1146
26978SOL    HW186897   4.208   9.273  12.474  0.2793  0.2502  0.5265
26978SOL    HW286898   4.337   9.254  12.395  0.9074 -4.2970  2.3641
26979SOL     OW86899   5.099   7.869   2.202  0.1043 -0.2298 -0.1542
26979SOL    HW186900   5.032   7.906   2.144  1.1112  0.0122 -1.2062
26979SOL    HW286901   5.136   7.945   2.247  0.0130 -0.3096  0.0566
26980SOL     OW86902   7.445   2.548   4.997 -0.0342  0.1151  0.6680
26980SOL    HW186903   7.353   2.555   5.021 -0.0904  1.0027  0.2110
26980SOL    HW286904   7.474   2.467   5.039 -0.9075  0.0512  1.1726
26981SOL     OW86905   1.493  10.079   4.709 -0.0318 -0.1169  0.5437
26981SOL    HW186906   1.524   9.988   4.703  0.6631  0.1819 -1.0273
26981SOL    HW286907   1.534  10.122   4.634 -0.1813  1.5594  1.3980
26982SOL     OW86908   1.073  10.555   5.001  0.3690  0.3698  0.2763
26982SOL    HW186909   1.039  10.480   4.952 -0.5771  1.2175 -0.4079
26982SOL    HW286910   1.044  10.540   5.091  0.2628 -0.1185  0.1638
26983SOL     OW86911   9.354   2.785   2.620 -0.0825 -0.1035 -0.1149
26983SOL    HW186912   9.438   2.742   2.637 -0.3625 -1.0458 -1.0331
26983SOL    HW286913   9.376   2.878   2.613  0.4810  0.0296  2.3077
26984SOL     OW86914   5.825   9.081   7.356  0.3017  0.3654  0.1009
26984SOL    HW186915   5.798   9.025   7.429 -2.5545  0.9779 -0.3403
26984SOL    HW286916   5.920   9.089   7.365  0.7057 -3.3723  0.9742
26985SOL     OW86917   4.911  11.173   6.545 -0.4549 -0.2256  0.5146
26985SOL    HW186918   4.850  11.209   6.481  0.7567 -0.7471 -1.0060
26985SOL    HW286919   4.931  11.246   6.603 -1.8437  0.1731  0.5138
26986SOL     OW86920  10.968   5.067   0.086 -0.0224 -0.2841  0.7767
26986SOL    HW186921  10.925   5.068   0.172  1.9266  0.5588  1.8294
26986SOL    HW286922  11.061   5.058   0.107  0.6088  0.9481 -1.2110
26987SOL     OW86923  11.377   2.798   5.432 -0.2804  0.0738 -0.0943
26987SOL    HW186924  11.295   2.846   5.447  0.9655  2.9544 -1.5562
26987SOL    HW286925  11.353   2.706   5.438 -3.4764  0.8110  0.1871
26988SOL     OW86926  11.089   8.884   1.155  0.0592  0.7958  0.2280
26988SOL    HW186927  11.075   8.961   1.210 -0.6925  0.6740  0.2242
26988SOL    HW286928  11.023   8.891   1.086  0.9491  0.9083 -0.6254
26989SOL     OW86929   6.475   6.885  10.283  0.7916  0.3397 -0.4277
26989SOL    HW186930   6.406   6.903  10.347  0.8770 -0.1454 -0.1905
26989SOL    HW286931   6.430   6.850  10.207  0.7774 -0.0042 -0.2617
26990SOL     OW86932   6.014   8.686   5.552  0.0466  0.5137 -0.2531
26990SOL    HW186933   5.992   8.746   5.624  0.3892 -0.6459  0.8677
26990SOL    HW286934   6.010   8.599   5.592 -1.6114 -0.3409 -2.1188
26991SOL     OW86935   7.708   3.012  11.145  0.5026  0.5405 -0.1575
26991SOL    HW186936   7.804   3.016  11.143  0.5254  0.6086  0.9492
26991SOL    HW286937   7.687   2.972  11.229 -0.4782  1.9515  0.3002
26992SOL     OW86938   1.887   2.193   8.216  0.7401  0.5434 -0.6407
26992SOL    HW186939   1.911   2.268   8.162 -0.7611  0.4730 -1.4612
26992SOL    HW286940   1.840   2.232   8.290  0.4420  0.4680 -0.7868
26993SOL     OW86941   0.900   4.958   3.889  0.0335  0.0700 -0.1477
26993SOL    HW186942   0.857   4.983   3.971  0.1105  1.2491 -0.4558
26993SOL    HW286943   0.974   4.905   3.917 -0.0779  0.2651  0.5362
26994SOL     OW86944   9.303  11.436   7.464 -0.3514  0.2622 -0.3897
26994SOL    HW186945   9.289  11.511   7.405  0.1408 -0.6787 -1.7424
26994SOL    HW286946   9.220  11.389   7.463 -1.0163  1.3176  1.2959
26995SOL     OW86947   1.144  12.335   2.668  0.3997 -0.0526  0.1010
26995SOL    HW186948   1.057  12.339   2.708  0.0913  2.1917 -0.6553
26995SOL    HW286949   1.126  12.323   2.574  0.9086  0.2561 -0.0364
26996SOL     OW86950   4.283   1.620  10.985 -1.0555 -0.3793 -0.0777
26996SOL    HW186951   4.297   1.620  11.079  0.3754 -0.3478 -0.2737
26996SOL    HW286952   4.278   1.712  10.960  0.3999 -0.3362 -0.2687
26997SOL     OW86953   9.999   6.675   2.329 -0.4581  0.0212  0.1290
26997SOL    HW186954   9.969   6.726   2.254 -0.7459  0.3963  0.4987
26997SOL    HW286955  10.018   6.588   2.293 -0.5328  0.2193 -0.3882
26998SOL     OW86956   0.728  10.294  12.157  0.1917 -0.1386 -0.5933
26998SOL    HW186957   0.667  10.246  12.100  0.4346 -0.4609 -0.5842
26998SOL    HW286958   0.781  10.225  12.197  0.9020  0.1755 -0.9950
26999SOL     OW86959  10.890   6.490   9.189  0.0191 -0.2090 -0.1983
26999SOL    HW186960  10.808   6.471   9.236  0.8253 -1.6475  0.6981
26999SOL    HW286961  10.943   6.538   9.253  0.5134 -0.7743 -0.1802
27000SOL     OW86962   3.997   2.637   5.696  0.4125  0.0604 -0.5794
27000SOL    HW186963   4.041   2.598   5.772 -0.4841 -0.1204 -0.1348
27000SOL    HW286964   4.066   2.646   5.630  0.7208 -1.9600 -0.5827
27001SOL     OW86965   6.016   2.532   4.707  0.1580  0.0213  0.1198
27001SOL    HW186966   5.963   2.579   4.771  0.1479 -1.8602  1.5931
27001SOL    HW286967   6.087   2.493   4.758  1.5204  0.3620 -1.4028
27002SOL     OW86968   5.034   2.442   9.833  0.2083 -0.4520 -0.5955
27002SOL    HW186969   4.944   2.417   9.853 -0.3996  0.5164 -1.9375
27002SOL    HW286970   5.055   2.509   9.897 -1.4912  2.1868 -2.5853
27003SOL     OW86971   1.107  12.024   4.789  0.2105 -0.1075 -0.1720
27003SOL    HW186972   1.115  12.089   4.719  1.9422 -0.2930 -0.2075
27003SOL    HW286973   1.147  11.945   4.752  0.8057 -0.3161  0.8771
27004SOL     OW86974   1.490  11.505   8.453  0.0334 -0.4632  0.3578
27004SOL    HW186975   1.537  11.589   8.457 -2.1424  0.8973 -0.9921
27004SOL    HW286976   1.440  11.502   8.535 -0.9189  0.2231 -0.1879
27005SOL     OW86977   3.073  11.954   9.028 -0.5590 -0.2580 -0.4836
27005SOL    HW186978   3.063  11.931   8.936 -1.3542 -1.5620 -0.0855
27005SOL    HW286979   3.121  11.881   9.066 -0.4896  0.1428  0.2127
27006SOL     OW86980  10.804   6.071   8.113  0.1885 -0.4123 -0.0584
27006SOL    HW186981  10.806   6.138   8.182  0.9267  0.7317 -1.1475
27006SOL    HW286982  10.718   6.031   8.121 -0.1193  0.3925  0.8797
27007SOL     OW86983   7.852   6.328   3.180  0.6522  0.3694 -0.0046
27007SOL    HW186984   7.942   6.350   3.201  0.9309  1.1271 -1.7889
27007SOL    HW286985   7.854   6.235   3.158  0.8232  0.1830  0.7816
27008SOL     OW86986   1.734   3.301   6.950  0.0198  0.4845 -0.1530
27008SOL    HW186987   1.791   3.225   6.947 -0.4659  0.1022  0.0079
27008SOL    HW286988   1.645   3.264   6.952 -0.2435  1.0701 -0.7523
27009SOL     OW86989   3.211   2.192  10.036  0.6583  0.7894 -0.3875
27009SOL    HW186990   3.158   2.129   9.986 -0.5526  0.0845  1.6467
27009SOL    HW286991   3.200   2.275   9.989  0.9841 -0.1666 -2.2239
27010SOL     OW86992   4.482   6.262   3.669 -0.2716  0.1865  0.3993
27010SOL    HW186993   4.484   6.209   3.748 -0.0534 -1.4701 -0.6607
27010SOL    HW286994   4.397   6.306   3.671 -1.1787 -1.5006  0.5319
27011SOL     OW86995   7.930   1.404  11.930 -0.0365  0.6059 -0.0936
27011SOL    HW186996   8.010   1.371  11.890 -0.6491 -1.0881 -0.0040
27011SOL    HW286997   7.860   1.372  11.872 -0.7112  1.0654  0.4584
27012SOL     OW86998   0.793   8.226   6.015 -0.5135 -0.2818 -0.4027
27012SOL    HW186999   0.873   8.263   6.052 -1.5041  1.7309 -0.1595
27012SOL    HW287000   0.815   8.208   5.924  0.1083  0.6686 -0.4569
27013SOL     OW87001  10.927   7.873   4.473 -0.1134  0.3372  0.5891
27013SOL    HW187002  10.847   7.851   4.426 -2.7209  1.1765  4.2117
27013SOL    HW287003  10.910   7.959   4.510  3.3444  1.4588 -0.0242
27014SOL     OW87004  12.192   0.006   6.642  0.2380  0.2560  0.0829
27014SOL    HW187005  12.247  -0.029   6.571  0.6041  0.9916 -0.0005
27014SOL    HW287006  12.254   0.030   6.711 -0.0736  0.0527  0.4377
27015SOL     OW87007   4.624   8.877   4.561 -0.2202  0.4599  0.4129
27015SOL    HW187008   4.679   8.889   4.638 -0.5409 -0.1586  0.7420
27015SOL    HW287009   4.685   8.851   4.492  0.2728  2.3241  0.0802
27016SOL     OW87010   3.844   9.143   4.910  0.5960 -0.2649  0.1281
27016SOL    HW187011   3.827   9.080   4.840 -2.4915  1.1852 -0.5838
27016SOL    HW287012   3.907   9.204   4.873  0.1820 -0.4064 -0.8442
27017SOL     OW87013   3.092   9.644  10.784  0.2534 -0.0577  0.0443
27017SOL    HW187014   3.031   9.674  10.851 -1.1788 -0.4471 -1.0455
27017SOL    HW287015   3.173   9.627  10.832 -0.3123  0.9668  1.4442
27018SOL     OW87016   1.545  10.458   6.119  0.5554 -0.3007 -0.1626
27018SOL    HW187017   1.519  10.517   6.189  1.7378  0.6597 -0.5045
27018SOL    HW287018   1.517  10.372   6.149 -0.3820  0.3029  0.7588
27019SOL     OW87019   9.383   3.153   3.174 -0.1460 -0.3019 -0.0003
27019SOL    HW187020   9.421   3.229   3.130  0.0078  0.1112  0.8337
27019SOL    HW287021   9.449   3.125   3.237 -1.4522  0.9106  2.0360
27020SOL     OW87022   4.329   0.482   4.109 -0.1821  0.3542 -0.4830
27020SOL    HW187023   4.306   0.531   4.188  0.5900  0.6490 -0.4376
27020SOL    HW287024   4.248   0.437   4.085 -0.6271  0.8498  0.0516
27021SOL     OW87025   8.685   6.390   6.404 -0.0563 -0.0230 -0.2674
27021SOL    HW187026   8.749   6.383   6.333 -0.4723  0.9782 -0.7707
27021SOL    HW287027   8.669   6.300   6.432  2.2696 -0.2425  0.5244
27022SOL     OW87028   3.913   8.647   2.911  0.8927  0.2113  0.3158
27022SOL    HW187029   3.983   8.673   2.851 -0.0592 -0.3475 -1.0853
27022SOL    HW287030   3.933   8.693   2.992  3.0630 -0.1823  0.0654
27023SOL     OW87031   1.949   2.424   1.762  0.1438 -0.2972 -0.3304
27023SOL    HW187032   1.937   2.478   1.840  0.2055 -1.2267  0.3460
27023SOL    HW287033   2.034   2.383   1.774  0.6015  0.3172 -1.3843
27024SOL     OW87034   7.303  12.294   1.091  0.5252  0.1223 -0.4678
27024SOL    HW187035   7.277  12.262   1.178  1.0456  0.5906 -0.1314
27024SOL    HW287036   7.239  12.362   1.071  0.2554 -0.1566 -0.5637
27025SOL     OW87037   9.089   4.146   5.473  0.6112 -0.2511 -0.3978
27025SOL    HW187038   9.151   4.195   5.420  0.0606  1.3849  0.4246
27025SOL    HW287039   9.107   4.172   5.563 -1.2912  0.3344 -0.1348
27026SOL     OW87040  11.005   5.663   1.832  0.4722  0.6108 -0.0486
27026SOL    HW187041  11.026   5.637   1.743  1.8668 -1.9056  0.8906
27026SOL    HW287042  11.074   5.724   1.857  1.7020 -0.8093  0.1484
27027SOL     OW87043   9.287  10.191   3.444  0.4204  0.3187  0.1198
27027SOL    HW187044   9.220  10.236   3.392  0.6233 -1.1659 -1.4906
27027SOL    HW287045   9.370  10.224   3.409  0.6178  1.9952  1.9689
27028SOL     OW87046  11.425  11.885   0.501 -0.3323 -0.0518 -0.0907
27028SOL    HW187047  11.407  11.805   0.550  0.1404 -0.0058  0.1647
27028SOL    HW287048  11.399  11.864   0.411  0.4069 -0.7275 -0.1670
27029SOL     OW87049  11.054  10.418  11.079  0.2210  0.2458  0.2592
27029SOL    HW187050  11.091  10.456  11.000  2.4201 -0.0111  1.0861
27029SOL    HW287051  11.036  10.492  11.136  2.2505  0.2789  0.9427
27030SOL     OW87052   3.357  12.322   4.689  0.6721 -0.2651 -0.6120
27030SOL    HW187053   3.398  12.237   4.672 -0.7110 -1.1343  0.2315
27030SOL    HW287054   3.386  12.378   4.617  2.3392 -1.1800 -0.6799
27031SOL     OW87055   0.317  12.293   1.026 -0.1832  0.4225  0.5233
27031SOL    HW187056   0.329  12.357   1.096  1.3429  0.1157  0.5730
27031SOL    HW287057   0.270  12.341   0.957 -1.9448  0.6544  1.8057
27032SOL     OW87058   4.977   3.345   3.542  0.2094  0.0144 -0.4652
27032SOL    HW187059   4.883   3.336   3.522  0.1183 -0.7625  0.2642
27032SOL    HW287060   4.984   3.427   3.590 -0.1686 -0.1323 -0.1527
27033SOL     OW87061   4.522   5.882   5.569 -0.4865 -0.1673 -0.3055
27033SOL    HW187062   4.557   5.970   5.556 -0.5696  0.1667  1.4587
27033SOL    HW287063   4.576   5.826   5.514  0.3952  0.8318 -0.4847
27034SOL     OW87064   3.016   2.386   6.358 -0.1515 -0.7098 -0.1085
27034SOL    HW187065   2.958   2.331   6.410 -0.6458  0.6078  0.7686
27034SOL    HW287066   3.102   2.376   6.399 -0.5667  0.4398  1.0924
27035SOL     OW87067   9.636   3.095  11.957 -0.3862 -0.1627 -0.2855
27035SOL    HW187068   9.547   3.092  11.922 -0.6070  2.7830 -0.2494
27035SOL    HW287069   9.625   3.119  12.049  0.4428  1.2714 -0.5368
27036SOL     OW87070   5.687   0.521   4.231  0.2498 -0.4313  0.5828
27036SOL    HW187071   5.689   0.502   4.325  2.4451  0.0504  0.6818
27036SOL    HW287072   5.717   0.440   4.190  1.1924 -0.0180  0.4380
27037SOL     OW87073   8.165  10.313   5.187  0.2175  0.6088 -0.2106
27037SOL    HW187074   8.228  10.342   5.253  0.5737 -1.0662  0.2308
27037SOL    HW287075   8.206  10.336   5.103  0.5320  1.2386  0.1060
27038SOL     OW87076   6.342   9.313   3.177  0.1354 -0.1721 -0.0990
27038SOL    HW187077   6.370   9.400   3.148 -0.8081 -0.2098 -1.2017
27038SOL    HW287078   6.393   9.296   3.256  2.8882 -0.0918 -1.7588
27039SOL     OW87079   1.777  11.707   1.895  0.1727 -0.1092  0.1023
27039SOL    HW187080   1.699  11.709   1.838  0.1986 -1.3764  0.0035
27039SOL    HW287081   1.786  11.616   1.920  0.0813  0.4426  2.3024
27040SOL     OW87082  10.238   0.081   9.939 -0.0800 -0.6496 -0.0373
27040SOL    HW187083  10.169   0.027   9.978  0.2588 -0.5578  0.6980
27040SOL    HW287084  10.319   0.049   9.979  0.3102 -0.7603 -0.8980
27041SOL     OW87085   0.164   9.783   7.272 -0.4983 -0.2027 -0.2102
27041SOL    HW187086   0.112   9.858   7.301  0.4064  0.4012 -0.0801
27041SOL    HW287087   0.243   9.786   7.326 -0.5201 -1.3573 -0.0939
27042SOL     OW87088   8.317   1.668   8.424  0.7302  0.3484 -0.4328
27042SOL    HW187089   8.352   1.741   8.373  0.1703  0.3570 -0.8155
27042SOL    HW287090   8.234   1.647   8.381  1.1556 -0.8968 -0.6858
27043SOL     OW87091   8.734   0.903  10.448 -0.3678  0.7211  0.0311
27043SOL    HW187092   8.729   0.946  10.533 -0.4150 -1.0463  0.9693
27043SOL    HW287093   8.676   0.827  10.456 -1.4585  1.2564 -2.0620
27044SOL     OW87094   9.735   6.715   7.271 -0.0666 -0.2089  0.6581
27044SOL    HW187095   9.698   6.744   7.355  0.8208  0.2880  0.8963
27044SOL    HW287096   9.691   6.632   7.253 -0.1596 -0.4061  1.7021
27045SOL     OW87097   8.672   0.141   0.739 -0.6064  0.3885 -0.0679
27045SOL    HW187098   8.583   0.174   0.729 -1.8542 -2.1832  1.6210
27045SOL    HW287099   8.728   0.219   0.728 -3.0558  2.1977 -0.4491
27046SOL     OW87100   0.231  10.261   6.742 -0.1892  0.3962  0.2847
27046SOL    HW187101   0.309  10.307   6.712  0.1497 -0.3463 -0.0056
27046SOL    HW287102   0.249  10.169   6.724 -0.7894  0.1293  0.9817
27047SOL     OW87103  10.524   0.159   4.495  0.0674  0.1871 -0.3185
27047SOL    HW187104  10.442   0.149   4.447 -0.3276  1.2461  0.0889
27047SOL    HW287105  10.569   0.231   4.451 -1.0045  2.2725  1.7186
27048SOL     OW87106   7.912  10.181   7.507  0.2670 -0.1722  0.1422
27048SOL    HW187107   7.914  10.178   7.603 -0.2937  0.9474  0.2061
27048SOL    HW287108   7.958  10.262   7.485  0.0301 -0.2149 -0.5131
27049SOL     OW87109  11.337   6.261   8.404  0.3276 -0.1567  0.4310
27049SOL    HW187110  11.292   6.209   8.470 -1.0376  0.1177 -0.2635
27049SOL    HW287111  11.284   6.253   8.325  0.1887  2.0783  0.2274
27050SOL     OW87112   9.988   3.231   0.329  0.1246 -0.1712  0.3669
27050SOL    HW187113  10.016   3.159   0.385  0.2753  0.4826  1.1497
27050SOL    HW287114   9.903   3.203   0.294 -0.1290 -0.4529  1.1831
27051SOL     OW87115   9.762   2.522   2.671 -0.3912  0.5290 -0.0796
27051SOL    HW187116   9.680   2.488   2.635 -0.7559  0.8224  0.4647
27051SOL    HW287117   9.828   2.497   2.607 -0.7854 -0.4118 -0.1371
27052SOL     OW87118   0.217  10.957   3.118  0.1922  0.4071  0.1713
27052SOL    HW187119   0.307  10.979   3.143  1.0966 -1.1957 -1.4450
27052SOL    HW287120   0.189  11.031   3.063  1.0885  0.2457 -0.5319
27053SOL     OW87121   2.742   9.122   6.300  1.2082 -0.0171  0.4070
27053SOL    HW187122   2.760   9.033   6.329  1.0317  0.2537  1.4050
27053SOL    HW287123   2.650   9.120   6.272  0.8007  0.1289  1.6551
27054SOL     OW87124   0.411  10.474   3.888  0.1761 -0.0771  0.2391
27054SOL    HW187125   0.473  10.479   3.961  4.2777 -0.0613 -2.8956
27054SOL    HW287126   0.412  10.383   3.861 -0.3560  0.1348 -0.5290
27055SOL     OW87127  10.750   0.313   6.223  0.0866  0.4308  0.5588
27055SOL    HW187128  10.697   0.375   6.273  0.5451  1.6709 -0.4128
27055SOL    HW287129  10.772   0.244   6.285 -2.9254 -0.3450  0.9147
27056SOL     OW87130  11.581   6.711   1.027 -0.4894  0.0186  0.2800
27056SOL    HW187131  11.503   6.767   1.026 -0.7707 -0.3586  1.0460
27056SOL    HW287132  11.604   6.702   1.119 -1.1462 -2.0915  0.2831
27057SOL     OW87133   0.007   0.645   6.895  0.3832 -0.3670 -0.0898
27057SOL    HW187134   0.026   0.562   6.939 -0.7368 -0.8651 -0.5061
27057SOL    HW287135  -0.009   0.621   6.804 -3.6292 -0.3121  0.4139
27058SOL     OW87136   3.240   5.765   2.367  0.2496  0.2532 -0.3286
27058SOL    HW187137   3.293   5.840   2.340  1.6432 -0.2989  0.7268
27058SOL    HW287138   3.237   5.708   2.290  2.6409 -0.4682  0.0419
27059SOL     OW87139   8.482   1.799   0.833 -0.2929  0.2041  0.6378
27059SOL    HW187140   8.572   1.793   0.865 -0.0175  0.8267  0.0119
27059SOL    HW287141   8.479   1.881   0.784 -0.5254 -0.9544 -1.4280
27060SOL     OW87142   4.953   7.762  10.566  0.2887 -0.2153 -0.1045
27060SOL    HW187143   4.862   7.760  10.536  0.4256  0.7435 -0.6476
27060SOL    HW287144   4.983   7.672  10.561 -0.6829 -0.5732  0.2545
27061SOL     OW87145   0.364   8.336   9.987 -0.0222 -0.0702  0.4930
27061SOL    HW187146   0.359   8.428   9.962 -0.6243 -0.4704 -0.9561
27061SOL    HW287147   0.275   8.303   9.977  0.7049 -1.5630 -2.2405
27062SOL     OW87148   8.715   2.495   5.465 -0.1916 -0.4036  0.5957
27062SOL    HW187149   8.776   2.486   5.537  0.8580  0.2221 -0.1914
27062SOL    HW287150   8.757   2.557   5.405 -2.7720  2.2109  1.2777
27063SOL     OW87151   7.990   5.831   7.432  0.1210 -0.3829 -0.5669
27063SOL    HW187152   7.923   5.898   7.420  1.2140  1.0858  0.9438
27063SOL    HW287153   8.066   5.864   7.385  0.5679 -0.7392 -0.1127
27064SOL     OW87154   2.160   3.599  11.570  0.4150 -0.1398 -0.1402
27064SOL    HW187155   2.067   3.584  11.587  0.5077 -2.3143 -1.0676
27064SOL    HW287156   2.201   3.515  11.590  2.2188  0.8138  0.3653
27065SOL     OW87157   2.016   7.569   4.245 -0.0040  0.3891 -0.2351
27065SOL    HW187158   2.062   7.502   4.194  0.7245  1.0093 -0.4184
27065SOL    HW287159   2.032   7.545   4.336 -2.4769 -1.5217 -0.2153
27066SOL     OW87160   4.006   9.461   1.517  0.6655  0.2246 -0.0599
27066SOL    HW187161   4.085   9.515   1.506 -0.6693  2.4447  0.5709
27066SOL    HW287162   3.940   9.522   1.549 -1.2961 -1.5892 -0.4383
27067SOL     OW87163   0.906   0.124   9.371 -0.7071 -0.0492 -0.1984
27067SOL    HW187164   0.916   0.031   9.349 -1.1944 -0.2124  0.2419
27067SOL    HW287165   0.838   0.125   9.439 -2.7145  0.8602 -2.0965
27068SOL     OW87166  10.558   5.170   1.657  0.2833  0.2689  0.5752
27068SOL    HW187167  10.639   5.121   1.644  0.1288 -0.4764  2.1549
27068SOL    HW287168  10.575   5.225   1.733 -0.9285 -0.4798  1.4232
27069SOL     OW87169   5.146   5.844   2.510 -0.1968 -0.1322  0.2986
27069SOL    HW187170   5.220   5.824   2.453  0.3943 -0.0185  1.0062
27069SOL    HW287171   5.133   5.938   2.500  1.1243  0.2550  1.7209
27070SOL     OW87172   3.882   9.165   3.197 -0.0454  0.0252  0.2100
27070SOL    HW187173   3.803   9.129   3.155 -0.1586 -1.4584  1.5719
27070SOL    HW287174   3.930   9.088   3.227  2.6950  0.8011 -1.7510
27071SOL     OW87175   6.384   3.331  12.339 -0.3982  0.2487  0.0362
27071SOL    HW187176   6.422   3.342  12.252  0.8982  0.3015  0.5822
27071SOL    HW287177   6.458   3.306  12.395 -0.8607  1.8678  1.4598
27072SOL     OW87178   1.769   9.812  12.406 -0.3768  0.2620  0.9573
27072SOL    HW187179   1.763   9.754  12.330 -0.2692  0.7116  0.6028
27072SOL    HW287180   1.709   9.773  12.471  0.7805 -1.0746  1.2828
27073SOL     OW87181   7.132   9.755   9.442 -0.2321  0.1082 -0.0254
27073SOL    HW187182   7.160   9.666   9.462  1.7869  0.9447  1.3161
27073SOL    HW287183   7.135   9.761   9.347  1.2465 -0.8219 -0.0752
27074SOL     OW87184   3.004  11.601   8.102  0.2708  0.3267 -0.1604
27074SOL    HW187185   3.001  11.665   8.173  0.5425 -0.1667  0.2985
27074SOL    HW287186   3.054  11.528   8.137  1.1405  0.4224 -1.1331
27075SOL     OW87187   2.288   5.681   7.967  0.0433  0.1532 -0.5685
27075SOL    HW187188   2.211   5.633   7.997  0.1583  1.5114  2.1712
27075SOL    HW287189   2.253   5.741   7.900 -1.3497  0.8328  0.7057
27076SOL     OW87190   7.910  10.246   4.597 -0.3740 -0.3710 -0.2675
27076SOL    HW187191   7.866  10.161   4.592 -3.5773  1.1446 -0.8223
27076SOL    HW287192   7.858  10.295   4.661  0.9158  1.4067 -0.5161
27077SOL     OW87193   6.116   4.326  10.320 -0.0061 -0.3047  0.0391
27077SOL    HW187194   6.158   4.306  10.236 -1.1783 -0.3867 -0.5483
27077SOL    HW287195   6.048   4.389  10.298 -0.6806 -0.7349  0.8407
27078SOL     OW87196  12.482   8.780   6.920  0.4438 -0.5191 -0.5642
27078SOL    HW187197  12.528   8.772   7.004  1.1858  0.2148 -0.8875
27078SOL    HW287198  12.474   8.690   6.889  0.5747 -0.7609  0.0766
27079SOL     OW87199   7.777   6.381  12.157  0.9383 -0.4758  0.1348
27079SOL    HW187200   7.728   6.444  12.210  1.7741 -0.1340  0.5182
27079SOL    HW287201   7.721   6.365  12.081  0.1086 -0.3194  0.7080
27080SOL     OW87202   9.447  10.186   5.552 -0.4000 -0.5126  0.0709
27080SOL    HW187203   9.448  10.142   5.637  1.0710 -1.9206 -0.6295
27080SOL    HW287204   9.387  10.134   5.499  0.0044 -0.6412 -0.2586
27081SOL     OW87205   8.256   9.069   7.396  0.1522  0.1784  0.7194
27081SOL    HW187206   8.305   9.064   7.314 -2.6285  1.8314 -1.2600
27081SOL    HW287207   8.203   9.149   7.387 -2.3228 -1.0430  2.8944
27082SOL     OW87208   2.084   3.115   3.316  0.4268 -0.6523  0.4877
27082SOL    HW187209   2.147   3.052   3.282  0.6409 -0.9186  1.3610
27082SOL    HW287210   2.056   3.165   3.239  0.8440 -1.2868 -0.0830
27083SOL     OW87211   2.713   3.481  11.797  0.4972  0.2013 -0.0434
27083SOL    HW187212   2.696   3.485  11.703  1.6127  0.2560 -0.2503
27083SOL    HW287213   2.776   3.410  11.808  0.1741  0.0156  0.7023
27084SOL     OW87214   3.391   7.562  11.920  0.3340  0.1478  0.8648
27084SOL    HW187215   3.446   7.492  11.955 -0.0307 -0.3885  0.3983
27084SOL    HW287216   3.453   7.626  11.884  0.7540 -1.9015 -2.5179
27085SOL     OW87217  10.958   7.492   8.999 -0.0806  0.1851 -0.3352
27085SOL    HW187218  11.004   7.576   9.013 -0.7159  0.3013  1.2465
27085SOL    HW287219  11.026   7.426   9.011  0.2671  0.4440 -0.8334
27086SOL     OW87220   4.379   1.822   8.067 -0.0852 -0.4103 -0.0876
27086SOL    HW187221   4.329   1.760   8.015  0.5517 -0.6379 -0.4485
27086SOL    HW287222   4.396   1.895   8.007 -0.4987 -0.0606  0.2172
27087SOL     OW87223   9.721   6.041   7.417 -0.3213  0.7355  0.5011
27087SOL    HW187224   9.704   5.993   7.336  0.7246  0.6363  0.3253
27087SOL    HW287225   9.756   6.125   7.388 -3.2059  2.1706  0.7557
27088SOL     OW87226   2.205   0.962   0.489  0.0834  0.3355  0.2740
27088SOL    HW187227   2.156   1.042   0.511 -0.0747 -0.1658  1.9032
27088SOL    HW287228   2.251   0.940   0.570  0.8085 -0.7583 -0.4130
27089SOL     OW87229  10.249   1.674   2.940  0.1454 -0.0490 -0.0894
27089SOL    HW187230  10.244   1.579   2.934  1.9715 -0.2543  0.8506
27089SOL    HW287231  10.282   1.702   2.854 -0.5947 -0.2292 -0.4374
27090SOL     OW87232  11.312   9.980   1.046 -0.0442  0.5392  0.6014
27090SOL    HW187233  11.394  10.030   1.049 -0.2925  1.0042 -0.2821
27090SOL    HW287234  11.312   9.930   1.128  1.2951  0.2517  0.4427
27091SOL     OW87235   8.477   5.773   6.725 -0.3957  0.3880 -0.2884
27091SOL    HW187236   8.498   5.867   6.717 -0.1401  0.5277  1.6093
27091SOL    HW287237   8.407   5.769   6.789  0.7137 -0.8146  0.9212
27092SOL     OW87238   1.912   0.414   8.777 -1.0265  0.3905 -0.2576
27092SOL    HW187239   1.862   0.337   8.807  0.7449 -0.0102  1.9810
27092SOL    HW287240   1.953   0.447   8.857 -1.1764  3.3010 -1.2965
27093SOL     OW87241  10.837   0.346   5.092  0.7098 -0.0963  0.8844
27093SOL    HW187242  10.791   0.427   5.071  0.3179 -0.6402 -0.4389
27093SOL    HW287243  10.878   0.319   5.010 -0.0480 -1.7913  1.0187
27094SOL     OW87244   3.517   7.117  10.262  0.4961  0.3024 -0.3703
27094SOL    HW187245   3.454   7.072  10.205  0.1756 -0.3177  0.4591
27094SOL    HW287246   3.555   7.047  10.315  0.9838  0.8413 -0.0064
27095SOL     OW87247   8.886  10.081   0.679 -0.0606 -0.3240  0.3159
27095SOL    HW187248   8.950  10.149   0.658  1.5288 -1.8869 -0.0362
27095SOL    HW287249   8.924  10.000   0.647 -1.7006 -1.4925  1.1536
27096SOL     OW87250   9.294   1.911  11.240  0.1030 -0.5096 -0.0277
27096SOL    HW187251   9.306   1.885  11.331  0.0551 -0.6231 -0.0539
27096SOL    HW287252   9.355   1.984  11.228 -0.4053 -0.0156  0.3000
27097SOL     OW87253   0.139   8.245   9.869 -0.6285 -0.4005  0.2072
27097SOL    HW187254   0.094   8.181   9.924 -3.0310  1.1293  0.2028
27097SOL    HW287255   0.097   8.237   9.783  1.4621 -1.1550 -0.8056
27098SOL     OW87256   0.847   6.151  11.935  0.0698 -0.1193 -0.1647
27098SOL    HW187257   0.866   6.095  11.859 -2.0534 -1.2741  0.1073
27098SOL    HW287258   0.754   6.137  11.953  0.1111  1.5057  1.5665
27099SOL     OW87259   5.089   4.452   4.743 -0.4903  0.1290  0.3206
27099SOL    HW187260   5.111   4.519   4.809 -0.9866  0.4515  0.1637
27099SOL    HW287261   5.174   4.417   4.716 -0.1234  1.5468 -0.4756
27100SOL     OW87262   2.958   8.534   4.377 -0.2931  0.7678 -0.1601
27100SOL    HW187263   3.032   8.594   4.367  0.0460  0.6730  1.5016
27100SOL    HW287264   2.904   8.550   4.299  0.6097  2.0540 -0.5636
27101SOL     OW87265  11.987   1.721   3.641 -0.3186  0.5060 -0.4702
27101SOL    HW187266  11.942   1.640   3.617  0.1332  0.0762  0.0833
27101SOL    HW287267  11.921   1.773   3.687 -0.5115  0.2939 -0.5062
27102SOL     OW87268  11.865   7.082  10.247 -0.3811 -0.5344  0.0440
27102SOL    HW187269  11.910   7.002  10.221 -0.3097 -0.1543 -1.0453
27102SOL    HW287270  11.900   7.103  10.333  0.6262 -0.9117 -0.2684
27103SOL     OW87271  11.225  12.258   5.839  0.3328  0.5082  0.0409
27103SOL    HW187272  11.298  12.320   5.834  0.1488  0.8731  1.4102
27103SOL    HW287273  11.246  12.190   5.774  1.8839  0.6116  0.4017
27104SOL     OW87274   7.661  11.649   3.972  0.0715 -0.2343  0.9844
27104SOL    HW187275   7.710  11.665   3.891 -1.9282  1.4346  0.0160
27104SOL    HW287276   7.686  11.720   4.030  0.1224 -0.3833  1.1460
27105SOL     OW87277  10.322   7.400   7.833  0.2212 -0.1868 -0.3750
27105SOL    HW187278  10.228   7.390   7.851 -0.0634  2.6156  0.1802
27105SOL    HW287279  10.363   7.392   7.919  0.0047  2.3926  0.0534
27106SOL     OW87280   2.887   7.895   9.474 -0.2038  0.1204 -0.6597
27106SOL    HW187281   2.856   7.894   9.383  1.2879  0.3219 -1.2019
27106SOL    HW287282   2.920   7.807   9.489 -2.1220 -0.4867  0.3465
27107SOL     OW87283   6.296   8.925   6.041 -0.2208  0.2522 -0.6744
27107SOL    HW187284   6.351   8.848   6.033 -2.0382 -1.1837 -0.1623
27107SOL    HW287285   6.208   8.890   6.060 -0.8379  2.4764  1.1080
27108SOL     OW87286   7.217  12.232   7.542 -0.3222  0.3054  0.6166
27108SOL    HW187287   7.308  12.259   7.547  0.2892 -1.4192 -0.3366
27108SOL    HW287288   7.179  12.260   7.625  1.0906  0.9956  1.0551
27109SOL     OW87289  10.709   6.838   8.189  0.1046  0.0183  0.0013
27109SOL    HW187290  10.685   6.795   8.271 -1.3998 -0.2662 -0.5582
27109SOL    HW287291  10.708   6.932   8.209  0.3535 -0.0764  0.4567
27110SOL     OW87292  11.701   3.787  11.463  0.0995  0.0262  0.0301
27110SOL    HW187293  11.660   3.859  11.415  0.1281  0.4637  0.6321
27110SOL    HW287294  11.788   3.779  11.425  0.7112  1.4329  1.0104
27111SOL     OW87295   8.382   7.317   0.005  0.4517  0.8234 -0.1467
27111SOL    HW187296   8.311   7.258  -0.021 -0.3170  0.3502  2.6664
27111SOL    HW287297   8.461   7.264  -0.000  0.1268  0.3371 -0.1316
27112SOL     OW87298   1.770  12.029   3.318 -0.0715  0.2520  0.3685
27112SOL    HW187299   1.748  12.122   3.318  0.1914  0.3490 -1.4268
27112SOL    HW287300   1.685  11.984   3.317 -0.2467  0.5494 -1.5138
27113SOL     OW87301   7.445   2.199   1.616  0.0618 -0.4878  0.1286
27113SOL    HW187302   7.447   2.112   1.655  1.0377 -0.2213  0.7062
27113SOL    HW287303   7.491   2.254   1.679 -0.2855  0.3913 -0.3704
27114SOL     OW87304  11.650  12.408   8.917  0.4457  0.7373 -0.2836
27114SOL    HW187305  11.649  12.414   9.013 -0.1080  0.7830 -0.2932
27114SOL    HW287306  11.613  12.491   8.887  2.2674  1.5142 -0.5786
27115SOL     OW87307   2.734   2.505   4.169  0.4246  0.6880  0.4508
27115SOL    HW187308   2.744   2.586   4.219 -1.9453 -0.7706  3.6220
27115SOL    HW287309   2.666   2.525   4.105  2.7604  2.2703 -1.7355
27116SOL     OW87310   4.772   9.954   4.070 -0.1377 -0.1226  0.0365
27116SOL    HW187311   4.837  10.013   4.106 -1.2002 -0.4926  2.8375
27116SOL    HW287312   4.823   9.889   4.020  1.6844 -0.4710  2.2084
27117SOL     OW87313   4.455  11.190   2.361 -0.3574  0.2547 -0.0462
27117SOL    HW187314   4.390  11.234   2.415  0.9537  0.5213  1.3982
27117SOL    HW287315   4.507  11.139   2.423  1.5498  0.9806 -0.9486
27118SOL     OW87316  12.113   4.188   7.452  0.2973  0.0667  0.4665
27118SOL    HW187317  12.087   4.110   7.402 -0.0144  0.5969 -0.2129
27118SOL    HW287318  12.200   4.166   7.487  0.4715 -0.3613 -0.2187
27119SOL     OW87319   6.071   6.954  12.358  0.7955 -0.1179  0.3771
27119SOL    HW187320   6.160   6.932  12.330  0.2135  0.5547 -2.2571
27119SOL    HW287321   6.082   7.029  12.416  1.9478  0.0384 -0.0206
27120SOL     OW87322   1.103   8.376   2.656  0.0389  0.2543 -0.1087
27120SOL    HW187323   1.075   8.420   2.736  0.4568 -2.1455  1.4427
27120SOL    HW287324   1.138   8.292   2.685  1.6311 -0.0883 -2.6817
27121SOL     OW87325   1.044   1.038   0.122 -0.4547 -0.2010 -0.1396
27121SOL    HW187326   1.011   1.121   0.087 -1.9169 -0.3630  0.7358
27121SOL    HW287327   1.137   1.037   0.099 -0.6690  1.1317 -1.1870
27122SOL     OW87328   1.003  12.444   7.462  0.1348 -0.0979  0.2175
27122SOL    HW187329   0.966  12.530   7.439  0.3436 -0.3654 -1.1914
27122SOL    HW287330   1.050  12.460   7.543 -1.2760  0.7291  0.9214
27123SOL     OW87331   2.401   3.703   8.620 -0.3431 -0.2878 -0.1046
27123SOL    HW187332   2.317   3.660   8.636 -0.2764 -2.1075 -3.6390
27123SOL    HW287333   2.454   3.682   8.697 -1.9353 -2.4242  0.5031
27124SOL     OW87334  11.427  11.071   8.452 -0.0202 -0.0596 -0.1150
27124SOL    HW187335  11.372  11.095   8.526 -0.0484  0.9202 -0.4376
27124SOL    HW287336  11.508  11.038   8.492 -0.2562 -0.0679  0.3560
27125SOL     OW87337  12.046   2.460   8.585 -0.0190  0.6778  0.0366
27125SOL    HW187338  12.097   2.492   8.659  0.5986  0.9236 -0.4838
27125SOL    HW287339  12.068   2.520   8.513 -0.6849  0.5052 -0.3222
27126SOL     OW87340   1.883   3.048   6.965  0.4438  0.4798  0.2734
27126SOL    HW187341   1.948   3.020   6.900 -0.6514 -0.2181 -0.5457
27126SOL    HW287342   1.909   3.002   7.045 -0.3879 -1.7159 -0.6417
27127SOL     OW87343   6.582   0.714   0.387 -0.6411  0.0274 -0.2086
27127SOL    HW187344   6.664   0.708   0.437 -0.3869 -0.2578 -0.6544
27127SOL    HW287345   6.610   0.729   0.297 -1.0630 -0.7718 -0.4789
27128SOL     OW87346  11.671  10.556  12.070 -0.0956 -0.1815  0.6497
27128SOL    HW187347  11.692  10.465  12.089  1.0200 -0.6989 -2.4093
27128SOL    HW287348  11.595  10.551  12.011  0.3807  0.7754 -0.0814
27129SOL     OW87349   5.702   5.907   5.998 -0.2578 -0.5891 -0.4921
27129SOL    HW187350   5.736   5.821   5.972 -1.1481 -0.9098 -0.6315
27129SOL    HW287351   5.656   5.939   5.920  0.2731  0.1340 -0.5210
27130SOL     OW87352   2.151   5.912  12.347 -0.0842  1.2223  0.7281
27130SOL    HW187353   2.237   5.871  12.358 -0.1434  1.3710  1.9392
27130SOL    HW287354   2.166   6.005  12.364 -0.1609  1.5635 -0.8928
27131SOL     OW87355   0.047   9.655   3.054 -0.3505  0.0095  0.1114
27131SOL    HW187356  -0.025   9.613   3.100 -2.0969 -0.3983 -2.7532
27131SOL    HW287357   0.104   9.582   3.027 -1.1635 -0.1733 -1.2296
27132SOL     OW87358   4.792   8.215   7.673  0.5387  0.1046 -0.1314
27132SOL    HW187359   4.716   8.264   7.705  0.1931 -0.7415  0.3726
27132SOL    HW287360   4.812   8.254   7.588 -2.2787 -1.5237 -1.6796
27133SOL     OW87361  11.015  11.509   4.630  0.5328 -0.0068  0.4669
27133SOL    HW187362  10.998  11.598   4.661 -1.1265  0.0057 -0.3849
27133SOL    HW287363  10.959  11.453   4.683  0.6551 -0.4183  0.1765
27134SOL     OW87364   6.786   4.221   1.848 -0.1227  0.0617  0.3179
27134SOL    HW187365   6.789   4.254   1.938  0.9248 -0.4055  0.4741
27134SOL    HW287366   6.851   4.150   1.846  0.1265  0.2945 -0.8958
27135SOL     OW87367   9.733   8.303   3.006 -0.1310 -0.2779 -0.3081
27135SOL    HW187368   9.767   8.345   2.927 -1.3866  0.5280 -0.4543
27135SOL    HW287369   9.789   8.335   3.077  0.0985  0.1535 -0.6820
27136SOL     OW87370  12.126   8.953   9.335 -0.0799 -0.4809 -0.1040
27136SOL    HW187371  12.035   8.924   9.329 -0.4451  0.3724  1.0176
27136SOL    HW287372  12.164   8.929   9.251 -1.9204  1.0897 -1.4774
27137SOL     OW87373   8.868   9.013   0.173 -0.1020 -0.3910 -0.0940
27137SOL    HW187374   8.932   9.070   0.216 -0.5986  0.2417 -0.1771
27137SOL    HW287375   8.824   9.070   0.110  0.2291 -1.1604 -1.0553
27138SOL     OW87376   6.218  11.385   0.113 -0.0647 -0.1656  0.1633
27138SOL    HW187377   6.309  11.359   0.100 -0.6686 -2.5436  0.3822
27138SOL    HW287378   6.210  11.401   0.207  0.6638  2.5299 -0.1374
27139SOL     OW87379   6.798   4.998   3.842  0.3373 -0.7408  0.6427
27139SOL    HW187380   6.825   4.984   3.751  0.0342 -0.7474  0.5516
27139SOL    HW287381   6.810   5.092   3.856  2.1517 -1.0217  1.1824
27140SOL     OW87382   5.758   7.016   7.935 -0.3603 -0.3628 -0.5284
27140SOL    HW187383   5.693   6.986   7.871 -1.8592 -0.5121  0.9812
27140SOL    HW287384   5.753   6.951   8.006 -0.3333  0.9335  0.7084
27141SOL     OW87385   5.357   1.544  11.023 -0.1793  0.1116  0.0601
27141SOL    HW187386   5.385   1.509  10.938  0.1535  1.9406 -0.6591
27141SOL    HW287387   5.269   1.578  11.007 -0.3215  0.0046  0.5948
27142SOL     OW87388  10.569   7.183   7.562  0.3897 -0.1370  0.6764
27142SOL    HW187389  10.513   7.155   7.489  1.6667 -1.3756  0.1243
27142SOL    HW287390  10.509   7.189   7.637 -0.8046  0.4083 -0.2946
27143SOL     OW87391   1.024  11.633   0.425  0.3351  0.2236  0.4747
27143SOL    HW187392   1.116  11.632   0.453  1.3010 -0.1359 -2.3981
27143SOL    HW287393   1.005  11.542   0.401 -0.5783  0.4179  0.4308
27144SOL     OW87394   0.194   1.012   1.508  0.7543  0.5813 -0.7026
27144SOL    HW187395   0.099   1.010   1.514  0.8447 -0.9004  0.9045
27144SOL    HW287396   0.224   1.031   1.597  1.9569 -1.6975 -0.5380
27145SOL     OW87397   0.302   6.154   6.001 -0.2201  0.2332 -0.2622
27145SOL    HW187398   0.347   6.074   5.974 -1.8932 -0.3228 -1.5261
27145SOL    HW287399   0.338   6.222   5.944  3.3059  1.1359  2.6359
27146SOL     OW87400   5.427   5.888  10.171 -0.0318 -0.4785  0.3541
27146SOL    HW187401   5.466   5.884  10.084 -0.0206 -1.8085  0.4004
27146SOL    HW287402   5.495   5.853  10.229 -0.9736 -2.1681  0.5212
27147SOL     OW87403   7.980   9.931  12.180 -0.0103 -0.0067  0.3013
27147SOL    HW187404   7.912   9.898  12.123  0.9241 -0.8361 -0.3694
27147SOL    HW287405   8.059   9.931  12.126  1.2230 -2.2051  1.9469
27148SOL     OW87406   7.228   7.304  11.846  0.3805  0.7844 -0.4342
27148SOL    HW187407   7.283   7.378  11.821  0.9738  0.0946 -1.2258
27148SOL    HW287408   7.198   7.325  11.934  2.7365  0.7037  0.4401
27149SOL     OW87409   1.021   4.351   3.199 -0.5324 -0.0722  0.4836
27149SOL    HW187410   1.073   4.425   3.229 -0.3803 -0.5631  1.4952
27149SOL    HW287411   0.989   4.311   3.280 -1.2434 -0.6558 -0.0771
27150SOL     OW87412   0.683   4.232   0.314 -0.0429  0.3265 -0.0681
27150SOL    HW187413   0.630   4.281   0.252 -0.7528  0.3779  0.5647
27150SOL    HW287414   0.689   4.288   0.391 -2.2060 -1.1562  1.2905
27151SOL     OW87415   0.974   3.172  11.189  0.0400  0.2953  0.0639
27151SOL    HW187416   0.920   3.251  11.181  2.0747  1.8735  0.9823
27151SOL    HW287417   1.016   3.162  11.104 -1.7136 -1.0376 -0.7106
27152SOL     OW87418   8.962   4.425  11.737 -0.7466 -0.5407  0.4072
27152SOL    HW187419   8.929   4.337  11.755  0.3026 -0.9244  0.5317
27152SOL    HW287420   9.052   4.424  11.770 -1.0569  0.9244  1.3889
27153SOL     OW87421  12.492   3.716   3.878  0.6440 -0.3123 -0.0556
27153SOL    HW187422  12.423   3.768   3.919  0.5152 -0.7926  0.3441
27153SOL    HW287423  12.549   3.781   3.836  0.5556  0.1569  0.5343
27154SOL     OW87424  11.386   3.303   2.616 -0.1364 -0.1969  0.4512
27154SOL    HW187425  11.358   3.279   2.704 -0.1599 -0.5268  0.3529
27154SOL    HW287426  11.337   3.245   2.558  0.1717 -0.2470  0.2404
27155SOL     OW87427   1.625   5.629   6.762 -0.3875  0.3672 -0.5971
27155SOL    HW187428   1.552   5.638   6.823 -0.4176 -1.3315 -0.3215
27155SOL    HW287429   1.615   5.541   6.725  0.4848  0.7860 -1.9360
27156SOL     OW87430   5.829   8.913   7.855  0.3982  0.4365  0.2488
27156SOL    HW187431   5.878   8.832   7.871  1.0787  0.7372 -0.2813
27156SOL    HW287432   5.842   8.932   7.762 -0.3409  0.7773  0.2077
27157SOL     OW87433  12.145   8.824   0.011 -0.0055  0.0440  0.1816
27157SOL    HW187434  12.228   8.869  -0.002 -0.0559  0.8688  2.3072
27157SOL    HW287435  12.130   8.827   0.106 -1.3529 -2.0842  0.1195
27158SOL     OW87436   9.414  10.451   7.086  0.2537  0.4311  0.0103
27158SOL    HW187437   9.470  10.389   7.133 -2.7660 -2.5868  0.1048
27158SOL    HW287438   9.384  10.512   7.153 -0.2014 -0.8622  1.0444
27159SOL     OW87439  10.596  10.108  10.587  1.0532 -0.2862 -0.0792
27159SOL    HW187440  10.624  10.193  10.555  0.8631  0.2350  1.0830
27159SOL    HW287441  10.672  10.072  10.633  1.1338 -0.7465 -0.5644
27160SOL     OW87442   1.077   5.497   2.537 -0.6516 -0.3326 -0.3726
27160SOL    HW187443   1.016   5.512   2.465 -1.6778  1.0256  0.7330
27160SOL    HW287444   1.029   5.524   2.615  0.6760 -1.1174  0.7582
27161SOL     OW87445   5.525   1.172   9.049  0.1838  0.2524 -0.1210
27161SOL    HW187446   5.470   1.236   9.005 -2.5175 -1.7282  0.1213
27161SOL    HW287447   5.518   1.092   8.996  0.1176 -1.0181  1.6801
27162SOL     OW87448  10.792  12.259   9.992 -0.1020  0.2753 -0.2512
27162SOL    HW187449  10.812  12.182   9.938 -2.9124 -0.9651  0.3176
27162SOL    HW287450  10.777  12.329   9.929 -1.1430 -0.5918 -1.0081
27163SOL     OW87451   0.466  12.395   9.039 -0.6575 -0.2205  0.4392
27163SOL    HW187452   0.486  12.314   8.993  0.7994  0.0581  0.5197
27163SOL    HW287453   0.410  12.369   9.112 -1.3891 -0.9322 -0.3576
27164SOL     OW87454   7.157   3.225   6.283  0.2742  0.0551 -0.4871
27164SOL    HW187455   7.231   3.166   6.295  0.6747  0.3917 -1.2582
27164SOL    HW287456   7.100   3.208   6.358  0.8082 -0.6800 -0.2430
27165SOL     OW87457   9.335   9.611   2.209  0.1536  0.6748 -0.2654
27165SOL    HW187458   9.391   9.604   2.132  0.6242 -0.3899  0.1632
27165SOL    HW287459   9.332   9.523   2.246 -3.2153  0.2408 -1.2364
27166SOL     OW87460   9.044  10.480   1.797  0.1403  0.0766 -0.2558
27166SOL    HW187461   9.072  10.560   1.752 -3.0323  0.5267 -1.7233
27166SOL    HW287462   9.012  10.424   1.727  0.2601 -1.6008  0.9881
27167SOL     OW87463   4.069   2.970  11.337 -0.1244  0.0414 -0.0550
27167SOL    HW187464   3.985   2.965  11.290  1.6005 -0.9683 -3.3850
27167SOL    HW287465   4.079   3.063  11.358 -1.5638  0.3573 -0.6268
27168SOL     OW87466   7.031   3.221   0.319 -0.0318 -0.8496  0.2647
27168SOL    HW187467   6.968   3.160   0.357 -1.6476 -0.3748 -1.4572
27168SOL    HW287468   7.022   3.209   0.224  0.6494  1.0074 -0.0966
27169SOL     OW87469   3.967   1.111   5.164  0.1869  0.2059  0.0661
27169SOL    HW187470   4.022   1.046   5.208 -0.3762 -1.0049 -0.9556
27169SOL    HW287471   3.886   1.111   5.214 -0.1147 -0.4933 -0.4148
27170SOL     OW87472   4.191   4.729   0.610 -0.3779  0.1314  0.2669
27170SOL    HW187473   4.232   4.814   0.625 -0.7201  0.0411  1.8714
27170SOL    HW287474   4.254   4.682   0.556  1.1160  0.4322  1.6570
27171SOL     OW87475  11.439   4.416   1.245 -0.2128 -0.0922  1.0714
27171SOL    HW187476  11.530   4.437   1.264  0.1033 -0.9999  0.6297
27171SOL    HW287477  11.438   4.391   1.153 -0.7514 -0.8814  1.2751
27172SOL     OW87478   7.999   7.146   6.923 -1.0530  0.4398 -0.3581
27172SOL    HW187479   8.080   7.193   6.943  0.8760 -2.1181 -1.5456
27172SOL    HW287480   7.993   7.148   6.828 -0.8385 -1.6996 -0.4538
27173SOL     OW87481   2.522  11.928   7.384  0.4485 -0.2786  0.6194
27173SOL    HW187482   2.568  11.990   7.441 -0.6209 -0.5423  1.8194
27173SOL    HW287483   2.438  11.915   7.427 -0.2956 -0.6983 -0.9174
27174SOL     OW87484   2.561   2.487   7.786  0.0996 -0.1379 -0.7280
27174SOL    HW187485   2.591   2.434   7.713 -0.2794  0.0278 -1.0102
27174SOL    HW287486   2.491   2.435   7.827 -0.3186  0.1649 -1.0466
27175SOL     OW87487  12.108  10.541   8.285 -0.2804 -0.4635 -0.4227
27175SOL    HW187488  12.185  10.573   8.238 -0.6543 -1.6756 -1.9234
27175SOL    HW287489  12.035  10.564   8.229 -0.8176 -1.2747 -0.0654
27176SOL     OW87490   9.346   9.995   4.807  0.5194 -0.2357 -0.6305
27176SOL    HW187491   9.438  10.022   4.817  1.0684 -1.5961 -1.7078
27176SOL    HW287492   9.349   9.922   4.745 -1.2745 -0.4784 -0.4791
27177SOL     OW87493   2.888   9.087  12.378 -0.1942 -0.5468 -0.0172
27177SOL    HW187494   2.966   9.042  12.348  0.5633  0.1590  0.8502
27177SOL    HW287495   2.893   9.174  12.338 -0.7607 -0.6363 -0.3024
27178SOL     OW87496  11.785   3.144   0.475  0.2365 -0.2242  0.2976
27178SOL    HW187497  11.780   3.146   0.571 -1.5278 -1.0048  0.2639
27178SOL    HW287498  11.840   3.068   0.455 -2.0026 -2.0716  0.7237
27179SOL     OW87499   2.329   2.102   3.207  0.4546  0.1559  0.7731
27179SOL    HW187500   2.389   2.171   3.178 -0.6553  1.2199  0.9693
27179SOL    HW287501   2.246   2.146   3.221  0.0120 -1.0145  2.0427
27180SOL     OW87502  12.170   6.950   1.387 -0.5374 -0.4959  0.4728
27180SOL    HW187503  12.207   6.881   1.442  1.1085  0.9224  1.2737
27180SOL    HW287504  12.093   6.979   1.435  0.0221 -0.3116  1.2972
27181SOL     OW87505   1.764   7.415   9.260  0.4972 -0.6918 -0.5765
27181SOL    HW187506   1.766   7.331   9.213 -0.4175 -0.3241 -1.2950
27181SOL    HW287507   1.773   7.390   9.352  0.7074 -1.5448 -0.8140
27182SOL     OW87508   6.694   1.836   4.997  0.2898  0.0789  0.3758
27182SOL    HW187509   6.728   1.836   5.087 -2.1991 -0.5780  1.3918
27182SOL    HW287510   6.636   1.912   4.994 -1.4279 -1.1813  0.1158
27183SOL     OW87511  11.739   4.160   1.971  0.4365  0.0100  0.2993
27183SOL    HW187512  11.826   4.199   1.973  2.2192 -3.2408 -2.7948
27183SOL    HW287513  11.684   4.226   1.930  2.2082  0.9437 -0.7069
27184SOL     OW87514   8.593   1.511   1.474  0.0035 -0.0210 -0.2052
27184SOL    HW187515   8.576   1.528   1.567 -1.2293  0.3866 -0.4902
27184SOL    HW287516   8.618   1.597   1.439 -1.3110  0.2152 -0.6103
27185SOL     OW87517   5.396   9.692  11.334  0.1694 -0.6951 -0.1401
27185SOL    HW187518   5.421   9.692  11.242  1.1150 -0.1165  0.1100
27185SOL    HW287519   5.472   9.655  11.380  0.1517  0.0509  0.5156
27186SOL     OW87520  12.460  11.687   8.430  0.1295 -0.0444 -0.5038
27186SOL    HW187521  12.415  11.753   8.482  0.0402  0.1957 -0.8791
27186SOL    HW287522  12.553  11.704   8.446  0.1533  0.9952 -1.5657
27187SOL     OW87523   5.562   9.605   9.699  0.0489 -0.3780 -0.3236
27187SOL    HW187524   5.608   9.556   9.767  0.5465 -0.1921 -0.5199
27187SOL    HW287525   5.625   9.613   9.628 -0.4503 -0.5303 -0.7932
27188SOL     OW87526   6.868   5.266   3.462 -0.0085  0.0567 -0.0434
27188SOL    HW187527   6.776   5.280   3.440 -0.0007 -0.7157 -0.6276
27188SOL    HW287528   6.895   5.347   3.505 -0.8914  0.3900 -0.0929
27189SOL     OW87529   0.510   3.814   6.557  0.2859 -0.0172 -0.3412
27189SOL    HW187530   0.562   3.741   6.524  0.9405  0.2963 -0.0124
27189SOL    HW287531   0.437   3.772   6.603 -0.0246 -0.4566 -1.2110
27190SOL     OW87532  11.945   3.788   3.485 -0.0890 -0.2385  0.0215
27190SOL    HW187533  11.931   3.880   3.507 -1.8506 -0.6004  0.6081
27190SOL    HW287534  11.881   3.769   3.417  0.2205 -1.0452 -0.0585
27191SOL     OW87535  11.394   0.650  10.867  0.2283 -0.2775  0.3028
27191SOL    HW187536  11.316   0.595  10.859  0.4479 -0.4615 -0.7632
27191SOL    HW287537  11.467   0.591  10.849  0.5662  0.0712  0.4989
27192SOL     OW87538   8.944   2.976   0.661 -0.1005 -0.2888  0.2316
27192SOL    HW187539   8.935   3.055   0.609 -0.8976 -0.8808 -0.5696
27192SOL    HW287540   8.976   2.910   0.599  2.3974 -0.1841  1.2806
27193SOL     OW87541  10.448  10.549   6.213  0.1811 -0.2155  0.0495
27193SOL    HW187542  10.422  10.637   6.240 -1.0966 -0.3676 -0.6297
27193SOL    HW287543  10.388  10.491   6.260 -0.5276 -0.5963 -1.2823
27194SOL     OW87544   0.186   5.466  10.860  0.0995  0.0635  0.1305
27194SOL    HW187545   0.213   5.419  10.781  0.4349  1.3417 -0.5424
27194SOL    HW287546   0.111   5.417  10.892  1.0157 -1.4743  0.0049
27195SOL     OW87547   2.367   8.130   4.334 -0.0972 -0.1437  0.6943
27195SOL    HW187548   2.446   8.081   4.358  0.1369  0.1237  0.4944
27195SOL    HW287549   2.297   8.092   4.386  0.7031  1.6371  3.2326
27196SOL     OW87550   8.266   5.043   4.723 -0.0638 -0.4761 -0.4351
27196SOL    HW187551   8.321   4.965   4.731  1.2497  0.2745 -1.5649
27196SOL    HW287552   8.202   5.035   4.793  1.7316 -1.2207  1.2180
27197SOL     OW87553   2.802   3.300   4.289  0.2041 -0.0827 -0.0991
27197SOL    HW187554   2.773   3.270   4.375  0.8597  1.0321  0.5406
27197SOL    HW287555   2.873   3.241   4.265  0.6905  0.2004  0.6028
27198SOL     OW87556   5.950   9.354   5.884 -0.1827  0.7167 -0.1762
27198SOL    HW187557   5.975   9.315   5.800  0.1691  0.9768 -0.1922
27198SOL    HW287558   5.866   9.397   5.866 -0.5039  0.0988 -0.1943
27199SOL     OW87559   3.082  11.252   2.708 -0.5490 -0.3323 -0.6582
27199SOL    HW187560   3.138  11.320   2.746 -0.5612 -0.6533 -0.0682
27199SOL    HW287561   3.126  11.170   2.728 -2.8594 -0.9413  2.8836
27200SOL     OW87562   5.977  11.317  11.384 -0.8096  0.0512 -0.0698
27200SOL    HW187563   6.051  11.364  11.346 -0.7999  2.4251  2.5495
27200SOL    HW287564   6.012  11.230  11.405 -0.0143 -0.3042 -2.5525
27201SOL     OW87565   1.196   7.672   0.750 -0.2774 -0.2910 -0.1283
27201SOL    HW187566   1.118   7.633   0.711 -1.2721  0.9937  0.5101
27201SOL    HW287567   1.235   7.724   0.680  0.7612 -1.9091 -0.8256
27202SOL     OW87568   5.445  11.547  10.338 -0.3079 -0.4916 -0.0834
27202SOL    HW187569   5.538  11.526  10.325 -0.7881 -1.2617 -3.1822
27202SOL    HW287570   5.445  11.632  10.381  1.8375 -0.4940  0.0106
27203SOL     OW87571   9.159   0.552   0.974  0.1473 -0.5332  0.5763
27203SOL    HW187572   9.249   0.537   1.002  0.6978  1.6005  0.1101
27203SOL    HW287573   9.156   0.521   0.884  0.7796  0.5253  0.1803
27204SOL     OW87574   2.513   1.204  12.458 -0.6881 -0.0144 -0.7184
27204SOL    HW187575   2.421   1.226  12.476 -0.9733 -1.0742 -0.8308
27204SOL    HW287576   2.555   1.289  12.444 -1.8481  0.4531 -1.5685
27205SOL     OW87577  10.243   5.046   0.750 -0.5873 -0.0966  0.2571
27205SOL    HW187578  10.164   5.098   0.732 -1.0974 -1.1404 -0.6582
27205SOL    HW287579  10.219   4.991   0.824 -0.8613 -0.7002 -0.2776
27206SOL     OW87580   0.203   1.890   5.868  0.2554 -0.0872 -0.4056
27206SOL    HW187581   0.197   1.895   5.964 -2.0233 -1.7083 -0.3782
27206SOL    HW287582   0.296   1.905   5.849  0.7359  0.4743  2.0206
27207SOL     OW87583   0.172   5.007   6.581  0.1612 -0.3725  0.0655
27207SOL    HW187584   0.253   4.962   6.604 -0.3709 -0.7732  1.2591
27207SOL    HW287585   0.119   4.940   6.538  0.0026 -0.4534  0.3802
27208SOL     OW87586   1.575   1.191  10.767 -0.0866 -0.0605 -0.5052
27208SOL    HW187587   1.548   1.275  10.805  0.9998  0.0082  0.1781
27208SOL    HW287588   1.616   1.214  10.684  1.3411  0.2512  0.2476
27209SOL     OW87589  12.397  11.299   3.421  0.5787 -0.0105 -0.3166
27209SOL    HW187590  12.451  11.321   3.497 -0.8645  0.7377  0.5421
27209SOL    HW287591  12.457  11.303   3.347  1.4009  2.3800  0.3722
27210SOL     OW87592   3.929   0.132   9.211  0.6972  0.3091 -0.5349
27210SOL    HW187593   3.921   0.064   9.279  0.9434  1.1141  0.3291
27210SOL    HW287594   3.844   0.131   9.167  1.0282 -1.2203 -1.2019
27211SOL     OW87595   4.261   7.169   8.497  0.3719  0.1871 -0.4463
27211SOL    HW187596   4.348   7.181   8.459 -0.1022  1.0141 -1.3174
27211SOL    HW287597   4.202   7.169   8.421 -0.4193  0.0286  0.1612
27212SOL     OW87598   3.910  10.134   6.567  0.0253  0.2895  0.4246
27212SOL    HW187599   3.943  10.214   6.607 -0.3397  0.2710  0.7762
27212SOL    HW287600   3.899  10.156   6.474 -0.3927  0.7570  0.5782
27213SOL     OW87601   0.113   9.836   7.862  0.0326  0.5168  0.4519
27213SOL    HW187602   0.161   9.757   7.837 -1.3371 -0.1665 -0.1612
27213SOL    HW287603   0.169   9.879   7.926  0.2673 -1.6246  1.8079
27214SOL     OW87604   3.545   2.132   2.705 -0.0894 -0.1121  0.2961
27214SOL    HW187605   3.543   2.152   2.799  1.0713  0.3435  0.2432
27214SOL    HW287606   3.605   2.058   2.698  0.7435  0.5839 -0.1857
27215SOL     OW87607   3.369  10.987  12.160 -0.2539 -0.0401 -0.1501
27215SOL    HW187608   3.330  11.054  12.104  1.9297  1.9576  0.5635
27215SOL    HW287609   3.309  10.913  12.153 -2.7407  1.8893 -1.1092
27216SOL     OW87610   1.443  11.989   4.671  0.5650 -0.0563 -0.2852
27216SOL    HW187611   1.535  12.012   4.674  0.6477 -0.1824 -1.5357
27216SOL    HW287612   1.398  12.062   4.713  1.1727  0.3396 -0.3245
27217SOL     OW87613   3.184  10.718   9.595 -0.4179  0.2603 -0.3289
27217SOL    HW187614   3.169  10.707   9.501 -0.2021  2.1524 -0.6060
27217SOL    HW287615   3.197  10.628   9.627 -0.1381 -0.3893 -2.1442
27218SOL     OW87616   5.048   4.653   9.814  0.5796  0.2985  0.1140
27218SOL    HW187617   5.036   4.718   9.744 -0.1217 -0.0965 -0.1465
27218SOL    HW287618   5.055   4.706   9.894 -0.9336  0.6903  0.0289
27219SOL     OW87619   2.895   8.563   9.310  0.3867 -0.4828  0.0784
27219SOL    HW187620   2.924   8.645   9.269 -0.2145 -1.0687 -1.5986
27219SOL    HW287621   2.858   8.512   9.238  0.6078 -2.1878  1.1185
27220SOL     OW87622   2.234   4.733   2.410 -0.1064  0.2526 -0.4377
27220SOL    HW187623   2.186   4.796   2.463 -0.7951 -0.0567 -0.6852
27220SOL    HW287624   2.244   4.775   2.324  0.5093  0.5184 -0.2446
27221SOL     OW87625   4.022  10.093   3.617  0.4221  0.2423 -0.3869
27221SOL    HW187626   4.001  10.149   3.542  0.4525  1.1574  0.2626
27221SOL    HW287627   3.947  10.033   3.623 -0.9638  1.9499  0.4798
27222SOL     OW87628   4.581  11.210   8.990  0.7403 -0.0794 -0.1036
27222SOL    HW187629   4.520  11.172   8.928 -0.0694 -2.2793  1.9210
27222SOL    HW287630   4.526  11.258   9.052  1.3624  0.4805  0.0324
27223SOL     OW87631   5.008   5.317   0.309 -0.1670  0.2714 -0.1724
27223SOL    HW187632   5.084   5.370   0.282 -0.3020  0.4344 -0.2334
27223SOL    HW287633   5.023   5.301   0.402 -0.3260  0.7599 -0.0589
27224SOL     OW87634   3.275  12.260   3.210 -0.3383  0.1585 -0.2363
27224SOL    HW187635   3.371  12.251   3.205 -0.1567  1.6414  0.0848
27224SOL    HW287636   3.261  12.354   3.221 -1.8256 -0.0983  0.1975
27225SOL     OW87637   0.287   4.475   4.033  0.4385 -0.4353 -0.2710
27225SOL    HW187638   0.341   4.530   4.089 -1.8896 -1.0626  2.8722
27225SOL    HW287639   0.311   4.385   4.058 -1.1222 -0.7160  0.3145
27226SOL     OW87640   0.242   5.542   3.515  0.1975 -0.2674  0.3349
27226SOL    HW187641   0.187   5.466   3.530  0.2899 -0.8136 -1.7455
27226SOL    HW287642   0.331   5.507   3.510  0.1112 -0.2980 -1.9660
27227SOL     OW87643   9.595   3.762   2.118 -0.3178 -0.0079  0.1764
27227SOL    HW187644   9.662   3.776   2.186  0.1110 -3.8532  0.7759
27227SOL    HW287645   9.517   3.807   2.151  0.6355  0.4513  1.9076
27228SOL     OW87646   3.898   0.614   5.593 -0.1748  0.4398 -0.4383
27228SOL    HW187647   3.982   0.574   5.572  0.3866  1.2485  0.1713
27228SOL    HW287648   3.882   0.676   5.522 -1.3039 -1.1718 -1.6671
27229SOL     OW87649   1.372   8.162   9.266  0.2958 -0.1636  0.2640
27229SOL    HW187650   1.314   8.189   9.195  0.9355 -2.0744 -1.0767
27229SOL    HW287651   1.314   8.115   9.327  0.3983 -2.6769 -1.4063
27230SOL     OW87652   5.787  10.224   9.111  1.0340  0.3398 -0.0865
27230SOL    HW187653   5.766  10.274   9.032  0.6669  0.5430  0.1406
27230SOL    HW287654   5.863  10.171   9.086  1.0454  0.5554 -0.5136
27231SOL     OW87655   0.179  11.216   0.927 -0.2652  0.2342  0.3867
27231SOL    HW187656   0.128  11.213   0.847  2.9658 -1.4098 -1.8161
27231SOL    HW287657   0.213  11.306   0.931  1.4147 -0.2411 -1.4951
27232SOL     OW87658   1.527   0.206   6.253 -0.0504 -0.4786 -0.4508
27232SOL    HW187659   1.604   0.261   6.266  0.2892 -1.1508  0.5223
27232SOL    HW287660   1.494   0.231   6.167 -0.5416  1.9769  0.3808
27233SOL     OW87661   9.435   3.384   2.078  0.0870 -0.2292  0.0738
27233SOL    HW187662   9.436   3.378   1.983 -0.9243  0.3945  0.0162
27233SOL    HW287663   9.342   3.393   2.101  0.3666  0.2031  1.0838
27234SOL     OW87664   6.862   3.178  10.293  0.0441 -0.0021 -0.0087
27234SOL    HW187665   6.909   3.127  10.227 -0.2649 -1.7079  1.0199
27234SOL    HW287666   6.769   3.157  10.277 -0.0571 -0.0848  0.6628
27235SOL     OW87667  10.160  10.125  10.697  0.4516  0.2070  0.3062
27235SOL    HW187668  10.108  10.205  10.701 -0.2630 -0.2982  2.5264
27235SOL    HW287669  10.097  10.054  10.703  1.0484 -0.6138 -1.9365
27236SOL     OW87670   4.911   4.076   5.765  0.2717  0.1567 -0.1545
27236SOL    HW187671   4.922   4.111   5.677 -0.6056  0.7248 -0.0487
27236SOL    HW287672   4.820   4.093   5.787  0.7076  0.8869  1.2238
27237SOL     OW87673  10.935   0.158   3.011 -0.7645 -0.0993 -0.8206
27237SOL    HW187674  10.980   0.074   3.019  1.9604  1.3575  0.7558
27237SOL    HW287675  10.950   0.185   2.920  0.9205 -0.0587 -0.5670
27238SOL     OW87676   6.076   5.075   0.484 -0.1733  0.1188  0.0897
27238SOL    HW187677   6.135   5.081   0.559 -0.7408  2.0216  0.4346
27238SOL    HW287678   6.131   5.094   0.408  0.1027 -0.3642  0.1636
27239SOL     OW87679  12.176  10.174  12.332 -0.0985 -0.4130 -0.1733
27239SOL    HW187680  12.153  10.190  12.424  0.6257 -0.4121  0.0131
27239SOL    HW287681  12.258  10.221  12.319  1.5256 -2.9650  0.0888
27240SOL     OW87682   2.704   1.366   4.817  0.2771 -0.2158 -0.3716
27240SOL    HW187683   2.732   1.287   4.863 -0.9242 -1.1174 -1.1040
27240SOL    HW287684   2.667   1.422   4.885 -0.4082 -1.0311 -0.0471
27241SOL     OW87685   4.759  11.540   8.581 -0.8381  0.0734  0.6445
27241SOL    HW187686   4.671  11.510   8.562 -0.8424 -1.8945  3.1241
27241SOL    HW287687   4.748  11.631   8.609 -2.1581 -0.2272  1.1887
27242SOL     OW87688   7.217   0.261  11.018  0.4049 -0.7126  0.8564
27242SOL    HW187689   7.299   0.292  11.054  0.0310  2.2058 -0.5148
27242SOL    HW287690   7.154   0.332  11.035 -0.9931 -1.4146 -0.9518
27243SOL     OW87691  11.012   2.535   5.508 -0.1135  0.2274 -0.0907
27243SOL    HW187692  10.997   2.614   5.559 -3.4025 -1.2054  1.5066
27243SOL    HW287693  11.007   2.564   5.417 -2.8895  1.7323  0.4302
27244SOL     OW87694   0.814   2.442   1.453 -0.0017 -0.1747 -0.2236
27244SOL    HW187695   0.749   2.450   1.383  0.7672  0.9163 -0.8587
27244SOL    HW287696   0.764   2.415   1.530 -1.2610  0.9585 -0.6089
27245SOL     OW87697   7.805   0.387   8.936 -0.0723  0.0939  0.3427
27245SOL    HW187698   7.758   0.460   8.975  1.1902  0.4028  1.3574
27245SOL    HW287699   7.779   0.310   8.987  1.4574  0.4715  1.7634
27246SOL     OW87700   8.370   5.316   6.290 -0.3176  0.1549 -0.1344
27246SOL    HW187701   8.317   5.273   6.357 -2.7672  1.7785 -0.8916
27246SOL    HW287702   8.329   5.293   6.207 -1.0427  2.8511 -0.6301
27247SOL     OW87703   3.751   2.251   7.874  0.2166  0.3828  0.3548
27247SOL    HW187704   3.826   2.229   7.930 -0.9118  0.2270  1.8886
27247SOL    HW287705   3.755   2.188   7.802  0.5302 -0.8295  1.3951
27248SOL     OW87706  12.117   6.564   8.103 -0.0981  0.0588  0.1062
27248SOL    HW187707  12.196   6.513   8.087 -1.1498 -1.3810 -0.8956
27248SOL    HW287708  12.146   6.655   8.105  1.3546 -0.2890 -1.9842
27249SOL     OW87709   8.552   1.804   5.524  0.1623  0.2024  0.5622
27249SOL    HW187710   8.485   1.740   5.502  0.1980  0.5334 -0.5611
27249SOL    HW287711   8.504   1.875   5.566 -0.0103 -0.1030  0.8932
27250SOL     OW87712   4.527  12.046   8.302  0.8488  0.3383 -0.8307
27250SOL    HW187713   4.505  11.985   8.373 -2.2155 -0.5899 -2.4104
27250SOL    HW287714   4.597  12.001   8.253  0.4819 -0.6732 -0.4536
27251SOL     OW87715   4.905   3.049   4.343  0.4903 -0.0060  0.8138
27251SOL    HW187716   4.931   2.982   4.280  0.3860  1.9307 -1.4403
27251SOL    HW287717   4.810   3.056   4.333  0.5273  0.6088  0.8421
27252SOL     OW87718   2.758  11.222  11.460  0.2802 -0.4876  0.0958
27252SOL    HW187719   2.748  11.297  11.519  0.2432  1.5331 -2.3403
27252SOL    HW287720   2.673  11.214  11.417  0.8554 -0.7218 -1.0240
27253SOL     OW87721   6.377   0.221   2.060 -0.5868 -0.0156 -0.2991
27253SOL    HW187722   6.361   0.147   2.119 -0.3614  0.3000  0.1715
27253SOL    HW287723   6.319   0.289   2.091 -0.2624  0.2473 -0.2617
27254SOL     OW87724   7.421   2.815   3.922  0.2059  0.1289  0.2463
27254SOL    HW187725   7.401   2.856   3.837  1.2048 -0.1983 -0.1620
27254SOL    HW287726   7.511   2.785   3.913  1.1493  2.0756  2.1853
27255SOL     OW87727   7.389   3.383  11.726 -0.1355 -0.1462 -0.3784
27255SOL    HW187728   7.396   3.289  11.742  4.8222 -0.2138 -1.4170
27255SOL    HW287729   7.380   3.391  11.631 -2.6206  0.5172 -0.1501
27256SOL     OW87730   5.508   7.843   0.639  0.1938  0.1112 -0.1934
27256SOL    HW187731   5.458   7.919   0.669  1.0741  0.7546 -0.3199
27256SOL    HW287732   5.561   7.818   0.715 -0.1162 -0.4013 -0.1427
27257SOL     OW87733   2.420   3.600   3.608  0.5609  0.6205  0.1700
27257SOL    HW187734   2.340   3.566   3.647 -0.0151  3.1390  1.4461
27257SOL    HW287735   2.487   3.588   3.676  1.3222 -1.4376 -0.8757
27258SOL     OW87736  11.727  11.290   3.304 -0.1834  0.0630 -0.1091
27258SOL    HW187737  11.751  11.247   3.387 -1.2834 -0.7063 -0.1707
27258SOL    HW287738  11.697  11.377   3.330 -0.5901 -0.1983  0.3272
27259SOL     OW87739  12.436   1.487   8.068  0.1418  0.5337  0.3569
27259SOL    HW187740  12.396   1.554   8.011 -0.8005 -0.9392 -0.7917
27259SOL    HW287741  12.361   1.437   8.101  0.9264 -1.2061 -0.4328
27260SOL     OW87742   8.456  11.279  10.933 -0.2899 -0.7018 -0.2013
27260SOL    HW187743   8.478  11.326  11.013  2.4886  0.2771 -1.4221
27260SOL    HW287744   8.415  11.345  10.877 -0.4619 -0.8820 -0.2909
27261SOL     OW87745  12.297   3.276   4.580 -0.6089 -0.8071  0.2095
27261SOL    HW187746  12.301   3.276   4.676 -1.7489 -2.2602  0.2927
27261SOL    HW287747  12.282   3.185   4.557  0.4796 -0.6029 -1.4145
27262SOL     OW87748   1.297   0.215   9.053  0.0614 -0.3195 -0.0402
27262SOL    HW187749   1.308   0.242   8.962 -0.3237  1.7232  0.4688
27262SOL    HW287750   1.202   0.214   9.065  0.1058 -0.8598  0.2671
27263SOL     OW87751   4.693   5.120   0.353 -0.4434  0.5852 -0.5436
27263SOL    HW187752   4.682   5.212   0.376  0.0421  0.8927 -1.5212
27263SOL    HW287753   4.722   5.120   0.262  1.0163 -0.4750 -0.1186
27264SOL     OW87754   3.525  10.061   6.896  0.3153  0.2143  0.2141
27264SOL    HW187755   3.588  10.130   6.874  1.3518 -1.0646 -0.9534
27264SOL    HW287756   3.513  10.070   6.991 -0.0913  2.4037  0.0196
27265SOL     OW87757   4.224   5.801   6.024 -0.6635  0.3357  0.5433
27265SOL    HW187758   4.297   5.743   6.045 -0.6520 -0.1752 -0.8321
27265SOL    HW287759   4.186   5.824   6.109 -0.0667 -0.8953  1.1597
27266SOL     OW87760   0.022   6.724   9.927 -0.2552  0.1823  0.6122
27266SOL    HW187761  -0.022   6.700   9.845 -0.4284  0.9097  0.4893
27266SOL    HW287762   0.116   6.723   9.905 -0.2171 -0.9703  0.7703
27267SOL     OW87763   0.599   8.591  10.363  0.1267 -0.1693  0.4834
27267SOL    HW187764   0.647   8.570  10.443  1.7836 -0.4918 -0.5531
27267SOL    HW287765   0.651   8.552  10.293 -0.9767  0.6019 -0.8100
27268SOL     OW87766   4.768   8.105   6.991 -0.3682 -0.5014 -0.4214
27268SOL    HW187767   4.768   8.109   7.087 -0.6242 -0.3579 -0.4250
27268SOL    HW287768   4.691   8.052   6.969 -0.1071 -0.8365 -0.5398
27269SOL     OW87769   0.653  11.725   8.636 -0.3172 -0.5046  0.0124
27269SOL    HW187770   0.636  11.639   8.597 -2.2513  0.0112 -0.4130
27269SOL    HW287771   0.601  11.786   8.582  0.1223  0.7664  0.9830
27270SOL     OW87772  10.580   5.359   1.864 -0.0056  0.2745 -0.7917
27270SOL    HW187773  10.511   5.419   1.893 -1.2606 -1.4870  0.0064
27270SOL    HW287774  10.637   5.351   1.941 -1.0538 -1.2022 -0.1306
27271SOL     OW87775  11.308   5.820   3.583 -0.1660 -0.3663  0.2030
27271SOL    HW187776  11.269   5.780   3.661 -0.3033 -0.6584 -0.0121
27271SOL    HW287777  11.362   5.750   3.546  1.4396  0.3526  1.0919
27272SOL     OW87778   6.321   4.278   5.085  0.3800 -0.4216 -0.3629
27272SOL    HW187779   6.331   4.187   5.112  1.9132 -0.3688 -0.6793
27272SOL    HW287780   6.410   4.310   5.074 -0.1435  0.6372 -1.8778
27273SOL     OW87781   4.451   1.643   3.739  0.5764  0.2906  0.0983
27273SOL    HW187782   4.381   1.596   3.693 -0.1546 -1.2075  2.5704
27273SOL    HW287783   4.447   1.732   3.704 -1.0374 -0.3281 -1.4604
27274SOL     OW87784   0.456   9.000   6.914  0.3838 -0.1219 -0.7579
27274SOL    HW187785   0.420   9.066   6.973  1.9396 -0.8705  1.1530
27274SOL    HW287786   0.551   9.004   6.929  0.6836 -1.4437 -2.0537
27275SOL     OW87787   6.840   7.287  10.562  0.4063 -0.0440 -0.4492
27275SOL    HW187788   6.851   7.349  10.489 -0.6454  0.9673  0.2152
27275SOL    HW287789   6.880   7.332  10.636 -1.5795  0.5062  0.3575
27276SOL     OW87790   6.757   0.088  11.047 -0.1413  0.3531 -0.1957
27276SOL    HW187791   6.818   0.073  11.120  0.3345  1.7943 -0.2641
27276SOL    HW287792   6.670   0.087  11.089 -0.0415 -0.9727  0.0216
27277SOL     OW87793   8.888   5.915   8.109 -0.6325  0.7377 -0.2375
27277SOL    HW187794   8.842   5.833   8.089 -0.7306  0.5658  0.6649
27277SOL    HW287795   8.980   5.894   8.097 -0.7019  0.7125 -0.7528
27278SOL     OW87796   1.568   2.015   0.041 -0.1942 -0.3239  0.0285
27278SOL    HW187797   1.577   2.089  -0.018 -0.1691 -2.1608 -2.4476
27278SOL    HW287798   1.652   2.011   0.087  0.6640 -0.0556 -1.4223
27279SOL     OW87799   5.170   3.866  12.377  0.1181 -0.0805  0.0783
27279SOL    HW187800   5.137   3.837  12.462 -1.3882  0.3009 -0.3532
27279SOL    HW287801   5.262   3.838  12.376 -0.7108 -3.1712  0.4682
27280SOL     OW87802   9.979   2.411   0.277  1.0866  0.2497  0.2614
27280SOL    HW187803   9.910   2.354   0.245  0.0119  1.2296  0.7858
27280SOL    HW287804  10.019   2.363   0.350 -0.2694  0.4585  1.1586
27281SOL     OW87805   2.162   7.315   3.328  0.6206  0.9651 -0.2681
27281SOL    HW187806   2.208   7.397   3.308  0.7685  0.6112 -1.4555
27281SOL    HW287807   2.070   7.336   3.318  0.6960  0.6509 -2.1278
27282SOL     OW87808   5.743   5.985   7.870 -0.3392 -0.0981  0.1379
27282SOL    HW187809   5.769   5.901   7.832 -0.0503 -0.0208  0.1632
27282SOL    HW287810   5.791   5.990   7.952  2.1195  1.4758 -1.2627
27283SOL     OW87811  12.468   8.973   2.085 -0.4012  0.2022 -0.5348
27283SOL    HW187812  12.528   8.987   2.158  0.7001  1.8329 -1.6644
27283SOL    HW287813  12.508   8.900   2.036 -0.9771 -0.6862  0.2752
27284SOL     OW87814  11.247   0.966   2.397 -0.1598 -0.1178 -0.4977
27284SOL    HW187815  11.206   0.954   2.482  0.8952  1.0172  0.2083
27284SOL    HW287816  11.214   1.051   2.366  0.4196  0.0690 -0.6282
27285SOL     OW87817   3.614   6.316   0.232 -0.4858 -0.2671 -0.0809
27285SOL    HW187818   3.531   6.318   0.280 -0.8697  0.3394 -0.7495
27285SOL    HW287819   3.610   6.393   0.175  0.4952 -0.2885 -0.1957
27286SOL     OW87820   1.698   5.697   5.576 -0.2690 -0.3762 -0.3532
27286SOL    HW187821   1.720   5.624   5.518  0.9463  0.0186 -0.4010
27286SOL    HW287822   1.602   5.701   5.573 -0.4170 -2.3544  0.1370
27287SOL     OW87823   8.313   3.642   5.367 -0.2790  0.4262  0.2522
27287SOL    HW187824   8.389   3.625   5.311  1.0708  1.6018  1.6648
27287SOL    HW287825   8.238   3.635   5.308  0.7895 -1.8933 -0.9624
27288SOL     OW87826  10.305   5.005   8.041 -0.0490 -0.3361  0.6223
27288SOL    HW187827  10.361   5.069   7.998 -0.0455 -1.0731 -0.5160
27288SOL    HW287828  10.291   4.937   7.975 -1.6156 -0.5639  1.1468
27289SOL     OW87829  11.698   1.796  12.334  0.0010 -0.2346 -0.3309
27289SOL    HW187830  11.650   1.714  12.332 -2.3403  1.0754 -1.0124
27289SOL    HW287831  11.692   1.831  12.245  0.5245  0.9170  0.0589
27290SOL     OW87832  11.427   1.610  12.487 -0.1869 -0.1334  0.1392
27290SOL    HW187833  11.401   1.687  12.537  0.7961  0.5667 -0.4067
27290SOL    HW287834  11.394   1.625  12.399 -0.1600 -0.4426  0.0732
27291SOL     OW87835  11.151   2.163   3.691  0.2139 -1.1039 -1.0025
27291SOL    HW187836  11.113   2.228   3.750  0.4038 -1.4193 -0.5229
27291SOL    HW287837  11.151   2.082   3.742 -1.9962 -2.0099 -2.3253
27292SOL     OW87838  11.414  12.357   7.497  0.4570  0.0393  0.2078
27292SOL    HW187839  11.427  12.447   7.525  0.9594 -0.3659  1.3421
27292SOL    HW287840  11.421  12.360   7.402  0.2249  1.2278  0.2171
27293SOL     OW87841   5.002  11.279  12.391  0.6097 -0.0878 -0.1704
27293SOL    HW187842   5.004  11.347  12.324  1.4377  0.1201  0.0572
27293SOL    HW287843   4.929  11.303  12.448 -0.6792 -0.7362 -1.4630
27294SOL     OW87844   3.720   8.810  11.486 -0.0923  0.0713 -0.1483
27294SOL    HW187845   3.770   8.845  11.560  1.2535  0.3256 -1.1393
27294SOL    HW287846   3.656   8.751  11.526  1.1090 -0.3956  1.1532
27295SOL     OW87847   2.376   1.659   4.418  0.4410 -0.1865 -0.0052
27295SOL    HW187848   2.468   1.644   4.393  0.7696  0.5757  0.7021
27295SOL    HW287849   2.346   1.575   4.451  0.9040 -0.4325 -0.1982
27296SOL     OW87850   1.734   7.491  12.336 -0.2464 -0.1078 -0.5220
27296SOL    HW187851   1.755   7.526  12.422 -0.1636 -1.4147  0.0193
27296SOL    HW287852   1.638   7.489  12.334 -0.2490 -0.0241 -0.4791
27297SOL     OW87853   7.734  12.410   7.663 -0.0611 -0.3697 -0.2341
27297SOL    HW187854   7.735  12.504   7.681  1.0082 -0.1019 -1.5354
27297SOL    HW287855   7.750  12.403   7.569  0.3059 -1.8711 -0.0913
27298SOL     OW87856   7.205   4.041   0.743 -0.3168  0.0701  0.5634
27298SOL    HW187857   7.210   4.072   0.652 -1.8718 -0.4738  0.2724
27298SOL    HW287858   7.272   4.092   0.789 -1.4300  2.4538 -0.3065
27299SOL     OW87859   8.865   0.650   0.738  0.2997  0.7550 -0.7645
27299SOL    HW187860   8.783   0.646   0.688  0.1095 -0.7727 -0.3743
27299SOL    HW287861   8.853   0.724   0.797 -2.7545 -1.9827  2.4768
27300SOL     OW87862   9.955   4.621   7.377 -0.1972  0.4499  0.3257
27300SOL    HW187863   9.950   4.717   7.376  0.0896  0.4637 -0.6792
27300SOL    HW287864   9.886   4.593   7.317 -0.1309  0.0347  0.4443
27301SOL     OW87865  11.578   1.257  10.160  0.5576  0.1333 -0.2078
27301SOL    HW187866  11.509   1.324  10.160  0.1782 -0.2556 -0.1587
27301SOL    HW287867  11.612   1.258  10.071  0.5651  0.4037 -0.2035
27302SOL     OW87868   3.206   6.290  11.307  0.0250  0.4698  0.1125
27302SOL    HW187869   3.112   6.270  11.309  0.0989 -0.1474 -1.3263
27302SOL    HW287870   3.210   6.384  11.286 -0.2734  0.3476 -0.5139
27303SOL     OW87871   4.597  11.371   6.679  0.0083 -0.2434  0.1914
27303SOL    HW187872   4.641  11.293   6.646  0.2207 -0.8314  1.8023
27303SOL    HW287873   4.655  11.444   6.656 -0.3422 -0.4921 -1.5941
27304SOL     OW87874  10.845  12.193   7.777  0.2141  0.5168  0.2786
27304SOL    HW187875  10.936  12.163   7.777 -0.1228 -0.8552 -2.7564
27304SOL    HW287876  10.795  12.117   7.806 -0.0656  0.8279  0.6110
27305SOL     OW87877   3.538   6.770   1.672 -0.3525 -0.4661 -0.8220
27305SOL    HW187878   3.577   6.839   1.618  2.3438 -1.3801 -0.1983
27305SOL    HW287879   3.476   6.816   1.729  1.9020  1.6189  0.1227
27306SOL     OW87880   4.545   7.077  11.340 -0.2663 -0.3659 -0.6898
27306SOL    HW187881   4.550   7.161  11.293  0.2291  1.3483  2.1771
27306SOL    HW287882   4.598   7.017  11.288 -0.4667  1.1176 -2.7387
27307SOL     OW87883   8.621   9.753   4.739 -0.3524  0.3384  0.3121
27307SOL    HW187884   8.680   9.828   4.728  1.8088 -1.0265  1.9347
27307SOL    HW287885   8.576   9.771   4.821 -0.9365  0.5151 -0.0357
27308SOL     OW87886   7.936   2.113   0.953 -0.0657  0.4510 -0.1281
27308SOL    HW187887   7.901   2.202   0.952  0.7009  0.8009  1.2536
27308SOL    HW287888   7.996   2.111   0.878  2.1587  2.1149  1.4752
27309SOL     OW87889   7.143   7.690   2.081 -0.0575 -0.5782 -0.1045
27309SOL    HW187890   7.143   7.770   2.028 -0.0911 -0.1564  0.5081
27309SOL    HW287891   7.132   7.619   2.019 -1.9164  0.0133 -0.5241
27310SOL     OW87892   0.023   4.706  10.065  0.1201 -0.2722  0.0271
27310SOL    HW187893   0.034   4.726   9.972  3.0667  2.2888  0.7529
27310SOL    HW287894   0.106   4.668  10.092 -0.0030  0.6801  1.9379
27311SOL     OW87895   2.098   8.024   0.330  0.0134 -0.2148 -0.1878
27311SOL    HW187896   2.015   8.022   0.283 -0.6161 -1.2632  0.9030
27311SOL    HW287897   2.162   7.991   0.267 -0.2842  1.1162 -1.2097
27312SOL     OW87898   5.987   8.850   1.889 -0.4225  0.1270  0.3593
27312SOL    HW187899   5.991   8.945   1.883 -0.5916  0.0858 -0.6024
27312SOL    HW287900   5.998   8.820   1.799 -2.4656 -0.6878  0.3232
27313SOL     OW87901   0.354   4.903   6.813  0.3244 -0.6769  0.4382
27313SOL    HW187902   0.334   4.856   6.893  0.7793  1.3272  1.8059
27313SOL    HW287903   0.447   4.886   6.797  0.8746  0.8579  1.7691
27314SOL     OW87904   3.314   7.529  12.297  0.3023 -0.4037  0.7061
27314SOL    HW187905   3.323   7.593  12.227  1.7225 -1.8132 -0.4570
27314SOL    HW287906   3.373   7.560  12.366  1.5130 -0.7771 -0.1342
27315SOL     OW87907  10.350  11.858   5.326 -0.3123  0.2759 -0.2937
27315SOL    HW187908  10.286  11.792   5.300  0.8559 -0.8276 -0.4581
27315SOL    HW287909  10.368  11.907   5.246 -0.3188  0.0405 -0.4386
27316SOL     OW87910  10.404   0.265  11.171 -0.3885 -0.3938  0.1269
27316SOL    HW187911  10.487   0.298  11.203 -0.0739 -0.6051 -0.4508
27316SOL    HW287912  10.338   0.305  11.228  0.0535  0.3803  0.1063
27317SOL     OW87913  10.880   5.486   5.750  0.2865  0.4141  0.0647
27317SOL    HW187914  10.921   5.489   5.836 -0.1217 -0.2202  0.2863
27317SOL    HW287915  10.936   5.427   5.699  0.7412  1.0866 -0.2235
27318SOL     OW87916   4.458  11.037   2.918  0.6504 -0.0327  0.0236
27318SOL    HW187917   4.382  11.005   2.966  0.1994  0.1852 -0.5349
27318SOL    HW287918   4.505  11.092   2.981 -0.3123  0.8179  0.0277
27319SOL     OW87919   1.380   1.337   4.192  0.0932 -0.1530 -0.4531
27319SOL    HW187920   1.346   1.247   4.199  1.2350 -0.5216  0.6565
27319SOL    HW287921   1.409   1.358   4.280  0.3559  1.1198 -0.8301
27320SOL     OW87922   4.065  11.489   3.470 -0.1480 -0.7580 -0.1798
27320SOL    HW187923   4.147  11.488   3.421  0.3538 -2.4731  0.6305
27320SOL    HW287924   3.997  11.481   3.403  0.4737 -2.0452 -0.6970
27321SOL     OW87925   1.070   8.048   4.110  0.4823 -0.0958  0.0851
27321SOL    HW187926   0.979   8.052   4.082  0.0101 -2.9133  0.8706
27321SOL    HW287927   1.090   8.136   4.142 -1.6883  0.7951 -0.8257
27322SOL     OW87928   5.376   2.571   0.864 -0.3623 -0.2971  0.7286
27322SOL    HW187929   5.309   2.541   0.926 -0.7533  0.7044  0.8201
27322SOL    HW287930   5.331   2.637   0.811  0.3685 -0.1192  0.3184
27323SOL     OW87931   8.926   6.491  11.823 -0.4417 -0.0361 -0.2196
27323SOL    HW187932   9.016   6.523  11.817  0.4238 -1.8198  1.8074
27323SOL    HW287933   8.894   6.524  11.907 -1.5208  0.1590 -0.6907
27324SOL     OW87934   3.866   8.679   3.516 -0.3027 -0.4764  0.1137
27324SOL    HW187935   3.872   8.743   3.587  0.5882 -0.2983 -0.1146
27324SOL    HW287936   3.773   8.657   3.512 -0.6145  0.7136  0.2726
27325SOL     OW87937   0.107   3.747   2.038  0.1254 -0.2908  0.3469
27325SOL    HW187938   0.196   3.722   2.062  0.6016  0.3259 -0.6843
27325SOL    HW287939   0.111   3.764   1.944 -1.5682 -2.2569 -0.1650
27326SOL     OW87940   8.540  10.786   7.697 -0.2158 -0.5520  0.5852
27326SOL    HW187941   8.612  10.840   7.665 -1.4610  0.4078 -0.6808
27326SOL    HW287942   8.513  10.735   7.621 -1.3761 -0.3279  0.8373
27327SOL     OW87943  11.811   4.928   1.513  0.2828  0.2542 -0.5286
27327SOL    HW187944  11.748   4.914   1.442  1.0119 -3.4568 -0.6219
27327SOL    HW287945  11.891   4.959   1.469  0.1071 -0.0439 -1.0549
27328SOL     OW87946   8.472   5.136   1.551 -0.2540  0.0401 -0.4785
27328SOL    HW187947   8.519   5.219   1.552  1.2258 -0.7327 -1.6285
27328SOL    HW287948   8.528   5.077   1.500 -2.1518 -1.1322 -1.3463
27329SOL     OW87949   4.650   1.309   4.929 -0.5419  0.9644  0.3415
27329SOL    HW187950   4.745   1.313   4.938 -0.3285 -1.1254 -0.3452
27329SOL    HW287951   4.631   1.359   4.850  0.1175  0.5031 -0.1153
27330SOL     OW87952   6.264   7.466   0.171  0.0695 -0.0116  0.3309
27330SOL    HW187953   6.345   7.417   0.160  0.6617  1.2368 -1.2075
27330SOL    HW287954   6.207   7.407   0.221  0.9994 -1.9677 -0.7870
27331SOL     OW87955   0.088   2.113   2.051 -0.5163 -0.0227  0.0666
27331SOL    HW187956   0.018   2.050   2.038 -1.5145  1.2443 -0.9489
27331SOL    HW287957   0.101   2.153   1.965 -0.9519  2.1764  0.9408
27332SOL     OW87958  10.140   8.396   0.489 -0.3934 -0.2885 -0.0161
27332SOL    HW187959  10.204   8.335   0.452  0.2845 -1.0426  2.2544
27332SOL    HW287960  10.193   8.472   0.516 -1.0032  0.6376 -1.2818
27333SOL     OW87961   0.910   3.787  10.365 -0.3400  0.3992 -1.0353
27333SOL    HW187962   0.897   3.826  10.279 -0.4680  0.8031 -0.8361
27333SOL    HW287963   0.942   3.859  10.419 -0.2124  0.1354 -0.7572
27334SOL     OW87964   3.613   6.506  10.929  0.3602 -0.0405  0.0529
27334SOL    HW187965   3.540   6.567  10.943  1.1883  1.4057 -1.6099
27334SOL    HW287966   3.655   6.499  11.014 -1.0499 -0.0363  0.7839
27335SOL     OW87967   8.632   1.333   5.865  0.1139  0.0896 -0.2375
27335SOL    HW187968   8.625   1.421   5.902  0.0219 -0.5718  1.4201
27335SOL    HW287969   8.597   1.341   5.776  0.0742  1.7080 -0.0981
27336SOL     OW87970   1.532   3.526   9.201  0.1390  0.6252 -0.4544
27336SOL    HW187971   1.472   3.502   9.271  1.5399  0.4703  0.7261
27336SOL    HW287972   1.558   3.616   9.221  1.0294  0.3655 -0.4247
27337SOL     OW87973  12.107   6.380   9.320 -0.4157 -0.2869 -0.3900
27337SOL    HW187974  12.082   6.471   9.336  0.0477 -0.1539 -0.3861
27337SOL    HW287975  12.067   6.358   9.236 -0.6186 -0.1156 -0.3387
27338SOL     OW87976   2.503   3.217  10.322  0.2524 -0.8383 -0.2585
27338SOL    HW187977   2.598   3.203  10.317  0.2025 -1.0023 -0.7952
27338SOL    HW287978   2.488   3.298  10.273  0.1471 -0.6512  0.0770
27339SOL     OW87979   7.033   8.911  11.097 -0.2947 -0.6662  0.2692
27339SOL    HW187980   7.086   8.914  11.177  0.9897  1.8694 -0.5657
27339SOL    HW287981   6.942   8.918  11.128  0.1109 -0.8121  1.5331
27340SOL     OW87982   4.403   7.325   3.022 -0.3531 -0.4875 -0.1226
27340SOL    HW187983   4.422   7.308   2.929  1.5680 -0.5535  0.2345
27340SOL    HW287984   4.333   7.264   3.044 -0.4504 -0.8669 -1.3882
27341SOL     OW87985   3.376  12.212   5.451  0.2016  0.6895  0.4272
27341SOL    HW187986   3.358  12.164   5.369  0.7130 -2.3263  1.9254
27341SOL    HW287987   3.472  12.210   5.459  0.2025  1.6390  0.7702
27342SOL     OW87988   8.621   0.002   2.065  0.4120  0.2100  0.0583
27342SOL    HW187989   8.694   0.034   2.118  0.3417 -0.0052  0.2838
27342SOL    HW287990   8.603   0.074   2.004 -0.4159  1.0323  1.2378
27343SOL     OW87991   1.770  10.516   9.812  0.0487  0.0947 -0.0955
27343SOL    HW187992   1.787  10.574   9.738  0.5387 -1.8013 -1.5333
27343SOL    HW287993   1.856  10.489   9.843 -0.1398  1.1012  1.4072
27344SOL     OW87994   2.989   2.113   3.844 -0.0913 -0.4650 -0.2581
27344SOL    HW187995   2.948   2.199   3.859 -0.2876 -0.5797 -0.1362
27344SOL    HW287996   3.053   2.105   3.914 -1.3098 -1.1899  0.8253
27345SOL     OW87997   5.391  11.503  11.056 -0.1179 -0.2150 -0.8154
27345SOL    HW187998   5.398  11.579  11.114  2.1608 -1.4354  0.6610
27345SOL    HW287999   5.377  11.429  11.114 -1.9135 -1.0551 -2.2046
27346SOL     OW88000   2.955   7.664   4.081 -0.4224  0.6770 -0.1072
27346SOL    HW188001   2.885   7.647   4.017 -0.5791  0.7383  0.0451
27346SOL    HW288002   2.956   7.759   4.091 -1.5783  0.5931  1.2644
27347SOL     OW88003   5.981   6.677  11.707 -0.7801  0.2175  0.1308
27347SOL    HW188004   6.067   6.683  11.749 -1.0174  0.8560  0.5357
27347SOL    HW288005   5.997   6.700  11.615 -0.0772 -2.1558 -0.4314
27348SOL     OW88006   6.474   4.256   0.622  0.4876 -0.2274 -0.5026
27348SOL    HW188007   6.555   4.236   0.668  0.1897  2.8006  1.7022
27348SOL    HW288008   6.406   4.210   0.671  0.5588 -0.0305 -0.2155
27349SOL     OW88009   2.926   8.380   2.228  0.2636 -0.1776 -0.1398
27349SOL    HW188010   2.972   8.302   2.197 -0.4213 -0.4194 -0.5459
27349SOL    HW288011   2.981   8.412   2.300  0.1974 -1.4302  0.4971
27350SOL     OW88012   4.890  10.607   2.240  0.4276  0.4620 -0.5694
27350SOL    HW188013   4.830  10.589   2.167 -0.6853  1.2714  0.1272
27350SOL    HW288014   4.860  10.690   2.276 -1.2601 -1.4655  2.9975
27351SOL     OW88015   0.670   3.144  11.898  0.0515 -0.1906 -0.1515
27351SOL    HW188016   0.676   3.150  11.802 -0.5315 -1.4656 -0.2825
27351SOL    HW288017   0.681   3.234  11.928 -0.0160  0.2663 -1.4325
27352SOL     OW88018  10.514   0.248   3.250  0.3658 -0.2332 -0.1704
27352SOL    HW188019  10.534   0.157   3.226  2.1290 -0.0698  0.5661
27352SOL    HW288020  10.599   0.291   3.254 -0.4434  1.4783 -0.5086
27353SOL     OW88021   4.503   9.883  10.881 -0.3846  0.6354 -0.0949
27353SOL    HW188022   4.590   9.899  10.845  0.8334 -1.0747  1.8939
27353SOL    HW288023   4.485   9.960  10.935  0.4226  0.4688  0.4248
27354SOL     OW88024   6.801   0.274   1.196 -0.2642  0.0768  0.0616
27354SOL    HW188025   6.773   0.358   1.233  0.4664 -0.0456  0.9449
27354SOL    HW288026   6.867   0.297   1.131 -3.4045  0.4951 -3.2728
27355SOL     OW88027   5.445   8.749   3.779  0.0058  0.8817 -0.3836
27355SOL    HW188028   5.480   8.838   3.777  3.6555 -0.4064 -0.0117
27355SOL    HW288029   5.410   8.735   3.691  0.7677  2.1874 -0.9229
27356SOL     OW88030   7.781  12.110   2.023  0.2048  0.3910 -0.1040
27356SOL    HW188031   7.813  12.198   2.007  0.3250  0.4232  0.2890
27356SOL    HW288032   7.736  12.085   1.942 -0.4983  1.0985  0.0545
27357SOL     OW88033   5.013  11.416  11.948 -0.1540  0.2459  0.0998
27357SOL    HW188034   4.932  11.452  11.913 -0.1536 -0.5734 -0.7958
27357SOL    HW288035   5.026  11.461  12.031 -0.1564  2.2931 -0.9268
27358SOL     OW88036   1.251   5.149  11.130  0.4000  0.5072  0.4970
27358SOL    HW188037   1.330   5.202  11.117 -0.8053  1.9369 -1.7337
27358SOL    HW288038   1.181   5.201  11.090 -1.0181 -2.4063 -1.1029
27359SOL     OW88039   7.133   4.646   3.699  0.2250  0.1638 -0.2443
27359SOL    HW188040   7.140   4.734   3.662 -0.0479  0.5556  0.6243
27359SOL    HW288041   7.224   4.616   3.704  0.2898  0.1965 -0.9763
27360SOL     OW88042   6.963   3.081   5.238 -0.2734 -0.3145 -0.3094
27360SOL    HW188043   6.885   3.114   5.283  0.0809  1.6648 -1.0269
27360SOL    HW288044   6.942   2.991   5.217 -2.2577  0.0776 -0.2155
27361SOL     OW88045  12.100   3.212  11.422 -0.0575 -0.0224  0.2266
27361SOL    HW188046  12.089   3.300  11.386 -0.6000 -0.5661 -1.0085
27361SOL    HW288047  12.106   3.156  11.345  1.2884 -0.9638  0.9779
27362SOL     OW88048  10.947   7.812   3.489  0.5177  0.3820  0.4092
27362SOL    HW188049  10.863   7.766   3.488 -0.2236  1.6863 -1.3705
27362SOL    HW288050  10.925   7.902   3.510  1.3533  0.8928 -0.7965
27363SOL     OW88051  11.686   0.360   4.075  0.7101 -0.5244 -0.5707
27363SOL    HW188052  11.681   0.444   4.028 -0.1528 -0.5935 -0.6291
27363SOL    HW288053  11.773   0.359   4.113  2.6635 -1.6822 -4.4715
27364SOL     OW88054   1.710   4.527   5.070  0.3851  0.1132 -0.0693
27364SOL    HW188055   1.720   4.505   4.977 -2.1659  1.8610 -0.8426
27364SOL    HW288056   1.796   4.563   5.094  0.9055  0.2792 -1.9428
27365SOL     OW88057   7.149   7.280   2.428 -0.3694 -0.7441 -0.0929
27365SOL    HW188058   7.116   7.201   2.385  1.2651 -1.9661  0.7630
27365SOL    HW288059   7.205   7.322   2.363 -1.9400  0.2791 -0.8677
27366SOL     OW88060   6.875   2.288  11.707 -0.2130 -0.8187 -0.1945
27366SOL    HW188061   6.955   2.314  11.662 -0.0268  1.2207  1.2176
27366SOL    HW288062   6.807   2.293  11.639 -0.0514  2.7889 -0.2407
27367SOL     OW88063   7.656   5.907   6.896  0.6353 -0.0345 -0.5283
27367SOL    HW188064   7.623   5.818   6.880  0.7278 -0.2585  0.4565
27367SOL    HW288065   7.683   5.938   6.809 -0.8586 -0.3630 -1.1510
27368SOL     OW88066   3.933   5.972   4.839  0.1192  0.2768 -0.1004
27368SOL    HW188067   3.893   5.943   4.757 -0.6267  2.6800 -0.6806
27368SOL    HW288068   3.969   6.058   4.818  1.9819 -0.0518  1.5269
27369SOL     OW88069  12.141   0.814   1.846  0.9586 -0.1122 -0.4970
27369SOL    HW188070  12.220   0.869   1.847 -0.5885  2.2931 -1.6052
27369SOL    HW288071  12.100   0.830   1.931  0.2121  0.9745 -1.0410
27370SOL     OW88072   1.635   2.693  10.028 -0.1277 -0.1223 -0.2592
27370SOL    HW188073   1.617   2.637   9.953  0.4010 -1.0685  0.2938
27370SOL    HW288074   1.563   2.756  10.030 -1.3335 -1.4465 -0.2771
27371SOL     OW88075   4.384   8.312   7.486  0.0301 -0.4741  0.4212
27371SOL    HW188076   4.393   8.370   7.561 -2.9165 -0.3244  0.7946
27371SOL    HW288077   4.442   8.239   7.504 -0.3473 -0.2701  2.7032
27372SOL     OW88078   0.578  10.442   1.175 -0.0399 -0.4188 -0.2635
27372SOL    HW188079   0.554  10.492   1.097 -2.0006  0.9591  1.1296
27372SOL    HW288080   0.664  10.475   1.199 -0.1082  0.2822 -0.9424
27373SOL     OW88081   1.511   4.739   0.947 -0.3555 -1.1710 -0.5663
27373SOL    HW188082   1.467   4.769   0.868 -0.0422 -0.5395 -0.5041
27373SOL    HW288083   1.483   4.648   0.956 -4.8843  0.1154  1.6201
27374SOL     OW88084   2.264   6.431   7.031 -0.3219 -0.1400 -0.1810
27374SOL    HW188085   2.236   6.498   6.969 -2.2497 -0.5080  0.2245
27374SOL    HW288086   2.245   6.348   6.988 -0.8098 -0.4037  0.5305
27375SOL     OW88087   7.269   6.889   5.271 -0.0622  0.1296 -0.2698
27375SOL    HW188088   7.216   6.968   5.262  0.2887  0.2797 -1.0756
27375SOL    HW288089   7.337   6.913   5.334  2.5652  1.9054 -3.4603
27376SOL     OW88090  10.658   4.291   1.508  0.4393 -0.0614  0.5604
27376SOL    HW188091  10.670   4.252   1.422 -0.9344  1.3221 -0.3077
27376SOL    HW288092  10.731   4.257   1.560  1.6323 -0.4884 -1.2971
27377SOL     OW88093  10.311   0.484   7.280  0.1316 -0.3881 -0.6363
27377SOL    HW188094  10.383   0.542   7.257 -0.5431  0.4410 -0.7121
27377SOL    HW288095  10.324   0.406   7.227  0.1942  0.3256 -1.6978
27378SOL     OW88096   9.351   9.532   3.027 -0.5542  0.3290 -0.2128
27378SOL    HW188097   9.440   9.545   3.059  0.6226 -2.9362 -1.6699
27378SOL    HW288098   9.304   9.494   3.100 -0.5614  1.3600  0.3322
27379SOL     OW88099   0.417   8.404  11.183 -1.1332  0.1531 -0.2550
27379SOL    HW188100   0.389   8.354  11.107  0.2216 -1.2708  0.1164
27379SOL    HW288101   0.435   8.492  11.149 -2.6375  0.1564 -1.1156
27380SOL     OW88102   0.675   5.951  12.148 -0.1354  0.1107  0.0247
27380SOL    HW188103   0.695   5.888  12.079  0.8118 -1.5651  1.7532
27380SOL    HW288104   0.761   5.972  12.187 -0.5175  1.9002 -0.0009
27381SOL     OW88105  10.994   8.567  11.899  0.1505 -0.3518 -0.5498
27381SOL    HW188106  11.063   8.623  11.864 -0.1772  0.9762  0.8584
27381SOL    HW288107  10.996   8.582  11.993 -2.0066 -0.3361 -0.4663
27382SOL     OW88108   0.106   3.449   1.646  0.2333 -0.1480  0.2907
27382SOL    HW188109   0.182   3.485   1.692  0.9196 -1.0242 -0.1437
27382SOL    HW288110   0.110   3.488   1.559  0.0746 -0.0588  0.3221
27383SOL     OW88111   7.237   2.183   3.890  0.2232 -0.0123  0.4317
27383SOL    HW188112   7.189   2.111   3.849  1.0699 -1.3382  1.6883
27383SOL    HW288113   7.299   2.140   3.949  2.9840  1.5996 -1.0807
27384SOL     OW88114  10.805   0.751   0.232  0.0058 -0.8049  0.3609
27384SOL    HW188115  10.719   0.793   0.230  0.2226 -0.2845  1.5330
27384SOL    HW288116  10.786   0.659   0.251 -0.2797 -0.6617  0.7723
27385SOL     OW88117   6.097   9.917   6.830 -0.7393  0.3027 -0.4212
27385SOL    HW188118   6.065   9.916   6.920 -1.8220 -0.7252 -0.7921
27385SOL    HW288119   6.192   9.907   6.839 -0.8954 -0.5206  0.6015
27386SOL     OW88120   7.843   4.390   9.820  0.3745  0.2871  0.2128
27386SOL    HW188121   7.809   4.343   9.743 -0.7580  0.3028  0.7030
27386SOL    HW288122   7.937   4.369   9.819  0.2624 -0.2771 -0.7785
27387SOL     OW88123  11.914   2.814   1.331 -0.0595  0.0909  0.2874
27387SOL    HW188124  11.938   2.880   1.396 -1.2226  1.1998 -0.3673
27387SOL    HW288125  11.898   2.865   1.251 -1.7041 -0.8914 -0.0422
27388SOL     OW88126   8.610   9.462  10.227 -0.0552  0.0119 -0.0287
27388SOL    HW188127   8.668   9.473  10.151 -1.1278 -0.9744 -1.0197
27388SOL    HW288128   8.529   9.505  10.202 -0.0649  0.6344  1.0166
27389SOL     OW88129   4.400   6.575   3.875  0.3250 -0.0696 -0.1639
27389SOL    HW188130   4.486   6.562   3.835  0.1490 -1.0770 -0.2445
27389SOL    HW288131   4.339   6.532   3.816 -0.4654  1.9916 -0.9485
27390SOL     OW88132   2.626   5.263   5.796  0.2755 -0.5886 -0.7612
27390SOL    HW188133   2.677   5.283   5.875  0.8680  0.2901 -1.3444
27390SOL    HW288134   2.537   5.251   5.827  0.2185  1.2746 -0.1287
27391SOL     OW88135   6.309   4.081   2.320  0.0707  0.3623 -0.1970
27391SOL    HW188136   6.386   4.119   2.276 -0.9971  0.1479 -2.3970
27391SOL    HW288137   6.341   3.998   2.356  1.0660  0.6634 -0.3388
27392SOL     OW88138   7.843   6.608  12.436  0.1628 -0.1944  0.4499
27392SOL    HW188139   7.804   6.669  12.374 -1.6769 -1.5155  0.2175
27392SOL    HW288140   7.937   6.619  12.425 -0.0890 -0.0660 -2.3011
27393SOL     OW88141   7.600   0.852   8.990 -0.3967  0.9455  0.2524
27393SOL    HW188142   7.623   0.922   8.929 -1.4267  0.6844 -0.4530
27393SOL    HW288143   7.603   0.893   9.076  1.2574  1.2771  0.0677
27394SOL     OW88144   8.902   2.426   1.904 -0.4834  0.1031 -0.2824
27394SOL    HW188145   8.873   2.506   1.861  1.5444  1.5089  0.8078
27394SOL    HW288146   8.863   2.429   1.991  0.7653  0.6869  0.2764
27395SOL     OW88147  11.902   0.892   6.435  0.0559  0.0051 -0.2031
27395SOL    HW188148  11.988   0.888   6.477  0.2599  2.4097 -0.2507
27395SOL    HW288149  11.849   0.827   6.482  1.1627  0.3711  1.6648
27396SOL     OW88150   5.635   4.844   4.908  0.2453  0.0937 -0.1428
27396SOL    HW188151   5.695   4.819   4.978 -0.2483  0.3720  0.3837
27396SOL    HW288152   5.603   4.931   4.933 -1.1063 -0.4454  0.0757
27397SOL     OW88153  10.642   9.589   4.827 -0.5523 -0.3293  0.2265
27397SOL    HW188154  10.641   9.523   4.896 -1.2622 -0.7269 -0.1496
27397SOL    HW288155  10.735   9.610   4.814 -0.2631 -1.7349 -0.0873
27398SOL     OW88156   8.702   4.624   7.962 -0.3274  0.6859 -0.0999
27398SOL    HW188157   8.679   4.620   8.055 -3.3710  1.2519 -0.7136
27398SOL    HW288158   8.749   4.707   7.953  0.1463  0.5484  0.9357
27399SOL     OW88159   9.264   1.140   2.322 -0.2220 -0.0615  0.2782
27399SOL    HW188160   9.238   1.200   2.391 -1.1430  1.1361 -1.0367
27399SOL    HW288161   9.191   1.142   2.260  1.5586  0.8301 -1.9314
27400SOL     OW88162   0.255   6.876   7.398 -0.1765 -0.4232  0.6926
27400SOL    HW188163   0.167   6.904   7.424 -1.1509 -2.5860 -0.0833
27400SOL    HW288164   0.241   6.821   7.321  2.1385  1.3287 -1.1300
27401SOL     OW88165   4.256   0.853   0.297 -0.4175 -0.1598  0.0408
27401SOL    HW188166   4.339   0.899   0.313  0.5332 -1.5920 -0.5566
27401SOL    HW288167   4.190   0.922   0.301  0.7087  0.9138  1.2476
27402SOL     OW88168   4.169   5.590   4.670  0.3114  0.6650  0.8229
27402SOL    HW188169   4.220   5.650   4.725  1.5537  1.8220 -1.4576
27402SOL    HW288170   4.226   5.514   4.659 -0.7495 -0.4802  2.6614
27403SOL     OW88171   5.613   9.609   0.728  0.2296 -0.2409  0.0079
27403SOL    HW188172   5.546   9.645   0.669  0.8950 -1.0624 -1.2900
27403SOL    HW288173   5.564   9.558   0.792 -0.5004  0.5220  0.0747
27404SOL     OW88174  11.759   3.823   6.522  0.5488 -0.7444 -0.2315
27404SOL    HW188175  11.796   3.738   6.499 -0.7260 -1.1972 -0.7094
27404SOL    HW288176  11.756   3.822   6.618  0.0684 -1.4738 -0.2391
27405SOL     OW88177   3.357   3.578   8.948  0.5745  0.0734 -0.2893
27405SOL    HW188178   3.451   3.583   8.969  0.2575  3.6727  0.9276
27405SOL    HW288179   3.314   3.564   9.032 -0.0620 -1.9280 -0.8844
27406SOL     OW88180  11.742   6.629   9.083 -0.6109  0.4679 -0.1298
27406SOL    HW188181  11.756   6.643   8.989  1.1048  0.8452  0.1379
27406SOL    HW288182  11.701   6.710   9.113 -1.2717  0.3011 -0.5595
27407SOL     OW88183  10.614   0.080   7.618 -0.7053  0.2979 -0.6669
27407SOL    HW188184  10.698   0.105   7.656  0.1294 -0.9565 -1.5924
27407SOL    HW288185  10.579   0.161   7.581 -0.8044  1.2134  1.3201
27408SOL     OW88186   1.555   0.704   9.528 -0.0375 -0.3963  0.5813
27408SOL    HW188187   1.570   0.798   9.530  1.0279 -0.4763 -1.4936
27408SOL    HW288188   1.469   0.693   9.488 -0.9502 -0.2896  2.4291
27409SOL     OW88189   6.869  11.531   4.247  0.7948  0.3432  0.0267
27409SOL    HW188190   6.893  11.597   4.182  0.1932  0.8751  0.3385
27409SOL    HW288191   6.946  11.523   4.303 -0.0754  2.8986  1.7395
27410SOL     OW88192  12.077   6.662   9.422  0.1716 -0.6379  0.8423
27410SOL    HW188193  12.021   6.725   9.377 -0.4028 -1.0401  0.9848
27410SOL    HW288194  12.147   6.715   9.460  0.2872 -0.2087  0.0597
27411SOL     OW88195   8.294   8.177   1.402 -0.3953 -0.1424  0.2795
27411SOL    HW188196   8.225   8.113   1.382 -1.8958  1.1947  0.9513
27411SOL    HW288197   8.247   8.254   1.435  1.2311  1.7728 -1.5386
27412SOL     OW88198  10.962   3.723   0.877  0.0889 -0.5408  0.2767
27412SOL    HW188199  10.883   3.688   0.918  0.6382 -2.0385  0.1322
27412SOL    HW288200  10.948   3.710   0.783 -0.0748  0.4963  0.1452
27413SOL     OW88201   7.539   4.981   0.369  0.1533 -0.1594  0.4937
27413SOL    HW188202   7.630   4.951   0.364 -0.0644 -0.6705 -0.5054
27413SOL    HW288203   7.495   4.914   0.421  0.0096 -0.7607 -0.3890
27414SOL     OW88204   3.565   2.878   2.030  0.1165  0.4122  0.0232
27414SOL    HW188205   3.471   2.898   2.030 -0.4612 -2.0296  0.7196
27414SOL    HW288206   3.586   2.863   1.938 -0.0360  1.4211 -0.1942
27415SOL     OW88207   5.113   3.832   3.294  0.7498 -0.1474 -0.3118
27415SOL    HW188208   5.048   3.900   3.311  0.6121 -0.0774 -1.0800
27415SOL    HW288209   5.092   3.800   3.206  2.5308  0.7638 -1.1283
27416SOL     OW88210   8.633  10.611   2.621  0.3615 -0.3011 -0.2667
27416SOL    HW188211   8.631  10.555   2.543  0.4752 -0.3619 -0.2263
27416SOL    HW288212   8.726  10.636   2.630  0.6150 -1.5255  0.7355
27417SOL     OW88213   9.072  12.284   3.636 -0.3514 -0.7524  0.2298
27417SOL    HW188214   9.077  12.204   3.688 -0.2289  0.3546  1.9953
27417SOL    HW288215   9.070  12.354   3.701  3.7160  0.9634 -1.2078
27418SOL     OW88216   0.048   1.098  10.366  0.3328 -0.5311 -0.1800
27418SOL    HW188217   0.079   1.070  10.452 -1.4290  1.4108  1.1666
27418SOL    HW288218   0.126   1.133  10.323  1.0806 -0.7668  0.9272
27419SOL     OW88219   6.081   9.971   9.221  0.0259  0.2893 -0.5165
27419SOL    HW188220   6.144  10.018   9.275  1.1763  0.5164 -1.9950
27419SOL    HW288221   6.035   9.914   9.283  1.2924  0.5201  0.6926
27420SOL     OW88222   5.123   7.309   4.412  0.3290 -0.2178 -0.3156
27420SOL    HW188223   5.037   7.346   4.390  0.7974  0.8031 -0.5124
27420SOL    HW288224   5.178   7.331   4.337  1.0625  0.1910  0.3322
27421SOL     OW88225   4.012   4.235   1.499  0.7228  0.2841 -0.4105
27421SOL    HW188226   4.104   4.211   1.485  1.2895  1.0730  1.5176
27421SOL    HW288227   3.999   4.222   1.593 -0.1346  3.3244  0.0115
27422SOL     OW88228   2.500   2.735   9.601  0.0709 -0.2637  0.5570
27422SOL    HW188229   2.418   2.690   9.621  0.4504 -0.2728  2.3321
27422SOL    HW288230   2.563   2.664   9.586 -0.5035 -0.2670 -2.3021
27423SOL     OW88231   8.890   1.066   2.817 -0.0601 -0.5077  0.0148
27423SOL    HW188232   8.907   1.158   2.838  1.2165 -1.1005  1.8948
27423SOL    HW288233   8.871   1.066   2.723 -1.6836  1.8415  0.2492
27424SOL     OW88234   7.772   0.527   4.891 -0.4262 -0.3752  0.3299
27424SOL    HW188235   7.807   0.575   4.816  0.3547  1.5564  1.8438
27424SOL    HW288236   7.754   0.440   4.857  3.1400 -0.6586 -1.2883
27425SOL     OW88237   8.792   3.452   2.805 -0.2914  0.3429 -0.1293
27425SOL    HW188238   8.880   3.451   2.843  0.0935 -0.3905 -1.0082
27425SOL    HW288239   8.783   3.539   2.767 -0.9408  1.3407  2.1769
27426SOL     OW88240  12.022   9.966  12.235 -0.2398 -0.7412  0.1672
27426SOL    HW188241  12.047  10.054  12.262  1.4664 -0.8645 -0.8537
27426SOL    HW288242  11.993   9.976  12.144 -0.7842 -1.1223  0.2945
27427SOL     OW88243  12.366   7.994   2.013 -0.2293 -0.0489  0.5652
27427SOL    HW188244  12.412   8.009   1.930 -1.3085  0.9274  0.1265
27427SOL    HW288245  12.370   8.078   2.058  0.7009 -0.6727  1.7235
27428SOL     OW88246   0.248   0.296   4.112  0.9105  0.1711  0.3858
27428SOL    HW188247   0.218   0.219   4.064  1.6116 -0.0611  0.3186
27428SOL    HW288248   0.232   0.274   4.204 -0.2243  0.5292  0.2979
27429SOL     OW88249   4.116   1.463  11.733  0.0879  0.3171 -0.5367
27429SOL    HW188250   4.175   1.439  11.661  0.0747 -0.4500 -0.3009
27429SOL    HW288251   4.173   1.498  11.801  0.4460 -1.5859  0.1916
27430SOL     OW88252   4.784   2.446  11.108 -0.5138  0.0674  0.3731
27430SOL    HW188253   4.782   2.540  11.121 -1.2927  0.1869 -0.5237
27430SOL    HW288254   4.864   2.430  11.059 -1.1572  0.4703 -0.8538
27431SOL     OW88255   2.025   2.166   6.801  0.4777 -0.1529  0.0068
27431SOL    HW188256   1.952   2.106   6.787 -1.1652  1.8479 -0.4853
27431SOL    HW288257   2.036   2.212   6.718  1.5170  0.4077  0.4292
27432SOL     OW88258   2.220   1.027   6.104 -0.2634 -1.2209  0.1944
27432SOL    HW188259   2.125   1.031   6.094 -0.4308 -0.2825  1.8281
27432SOL    HW288260   2.235   1.041   6.198  1.6140  0.9225 -0.3482
27433SOL     OW88261   1.668   7.559   4.538 -0.2468 -0.2443 -0.2961
27433SOL    HW188262   1.673   7.477   4.488 -1.6283 -0.3187 -0.3398
27433SOL    HW288263   1.734   7.548   4.606  1.0123 -0.5408 -1.5029
27434SOL     OW88264   3.975   8.618   0.862 -0.0863 -0.0797  0.0744
27434SOL    HW188265   4.047   8.618   0.925 -0.5060  0.2026  0.5645
27434SOL    HW288266   4.007   8.670   0.789  1.4947 -2.6993 -1.2411
27435SOL     OW88267   0.977   9.879   2.572  0.2396 -0.0079 -0.6123
27435SOL    HW188268   0.984   9.915   2.483  0.2589  0.7404 -0.3205
27435SOL    HW288269   1.008   9.950   2.628 -0.9537 -0.0094  0.0754
27436SOL     OW88270   6.297   5.920   2.688 -0.3508 -0.3550 -0.2837
27436SOL    HW188271   6.309   5.988   2.622 -0.9284  1.2745  1.2365
27436SOL    HW288272   6.286   5.840   2.637  0.6313  0.6075 -2.1155
27437SOL     OW88273   1.034   8.897  10.154  0.6391  0.4424 -0.3629
27437SOL    HW188274   1.027   8.820  10.098  0.6864  0.1493  0.0352
27437SOL    HW288275   1.082   8.961  10.100 -0.2283  0.5324 -1.0372
27438SOL     OW88276   6.974  10.279   1.409 -0.0270 -0.2937 -0.2762
27438SOL    HW188277   6.907  10.238   1.463 -0.1736  0.4657  0.1326
27438SOL    HW288278   7.046  10.298   1.470 -0.2321  0.6531 -0.3085
27439SOL     OW88279   5.451  10.775   6.352 -0.2145  0.0703 -0.6534
27439SOL    HW188280   5.442  10.758   6.258  0.4641 -0.0122 -0.7099
27439SOL    HW288281   5.515  10.846   6.357  0.5937 -0.6693 -0.2137
27440SOL     OW88282   4.896   4.721   3.481 -0.1530  0.2036 -0.8911
27440SOL    HW188283   4.835   4.657   3.518 -0.9201 -0.3515 -2.9521
27440SOL    HW288284   4.964   4.731   3.548  0.4719 -3.4396 -0.7451
27441SOL     OW88285   6.587   8.009   9.220 -0.3018  0.0702  0.2553
27441SOL    HW188286   6.616   7.997   9.130 -1.3869 -1.3589  0.0580
27441SOL    HW288287   6.621   7.933   9.267 -0.9463  0.0492  0.7108
27442SOL     OW88288   4.783  10.630   7.850  0.5839  0.0815  0.4190
27442SOL    HW188289   4.788  10.603   7.942 -0.6553  0.4585  0.6192
27442SOL    HW288290   4.755  10.722   7.854  1.4518  0.3886 -0.3196
27443SOL     OW88291   9.632   5.823  11.705 -0.0458  0.4188 -0.1110
27443SOL    HW188292   9.568   5.857  11.768 -0.4541 -1.0886  0.3199
27443SOL    HW288293   9.701   5.785  11.759  2.0614  3.2784 -0.5100
27444SOL     OW88294   4.882   7.677  11.337 -0.3920  0.1177  0.2222
27444SOL    HW188295   4.839   7.745  11.285  1.2749  0.9721 -0.1204
27444SOL    HW288296   4.839   7.680  11.422 -2.3998 -0.5164 -0.7200
27445SOL     OW88297   6.106   0.812   0.555 -0.5288 -0.0932  0.4022
27445SOL    HW188298   6.127   0.904   0.564  0.0232 -0.1069 -0.5421
27445SOL    HW288299   6.182   0.774   0.510 -0.7693 -0.9923  0.7191
27446SOL     OW88300   5.122   7.557   7.834  0.4730 -0.1272  0.2806
27446SOL    HW188301   5.110   7.466   7.808  3.0034 -0.7832  1.1151
27446SOL    HW288302   5.109   7.558   7.928 -2.4604  1.0308 -0.0297
27447SOL     OW88303  10.388  12.324   1.957 -0.5730 -0.5279  0.2216
27447SOL    HW188304  10.339  12.269   2.017  0.8248 -0.0241  1.8919
27447SOL    HW288305  10.326  12.393   1.932 -1.8919 -1.9962 -0.8134
27448SOL     OW88306   6.454   6.853   7.496 -0.2693 -0.1442 -0.5711
27448SOL    HW188307   6.360   6.856   7.511 -0.4464 -0.0230 -1.6091
27448SOL    HW288308   6.476   6.760   7.501 -0.2427 -0.0836  0.7420
27449SOL     OW88309   3.666   1.870  11.637 -0.6753  0.0892  0.5628
27449SOL    HW188310   3.589   1.870  11.694 -1.5813 -1.5633 -0.5857
27449SOL    HW288311   3.669   1.959  11.600 -0.8198  0.7858  2.1267
27450SOL     OW88312  10.280   1.314   9.924  0.0757  0.0395  0.0586
27450SOL    HW188313  10.301   1.381   9.989  0.7194 -1.6212  1.6401
27450SOL    HW288314  10.366   1.281   9.896 -0.1740 -2.3464  1.7824
27451SOL     OW88315   9.728   7.973   6.424 -0.0437 -0.6279  0.0177
27451SOL    HW188316   9.823   7.988   6.431 -0.2814  0.1664  2.2175
27451SOL    HW288317   9.690   8.023   6.496 -2.3661  0.7009 -1.9477
27452SOL     OW88318   4.133   2.676   1.480 -0.1703  0.5229 -0.3881
27452SOL    HW188319   4.180   2.715   1.554  0.8534  1.9280 -1.7092
27452SOL    HW288320   4.084   2.749   1.442 -1.0413 -0.2789 -0.8555
27453SOL     OW88321   5.031  12.162   8.667 -0.1033  1.1572  0.1062
27453SOL    HW188322   5.104  12.108   8.635 -0.2011  1.2975 -0.3711
27453SOL    HW288323   4.984  12.106   8.728 -1.6907 -0.2496 -2.2482
27454SOL     OW88324   8.257   3.129  11.161 -0.2466 -0.7131  0.6847
27454SOL    HW188325   8.344   3.167  11.171 -0.4857 -0.4193  1.8491
27454SOL    HW288326   8.271   3.050  11.109  0.2900  0.7991 -1.6298
27455SOL     OW88327   8.605  11.779   0.472 -0.0175  0.1917  0.5683
27455SOL    HW188328   8.548  11.819   0.538 -1.7949  0.0804 -0.8207
27455SOL    HW288329   8.671  11.731   0.523 -0.2832  1.4938  2.2399
27456SOL     OW88330  12.034   3.155   8.256  0.0567 -0.0543 -0.0472
27456SOL    HW188331  12.015   3.063   8.272 -1.3115  0.2847  0.3763
27456SOL    HW288332  11.948   3.197   8.251  0.6725  1.3446  0.6381
27457SOL     OW88333  11.629  12.010  11.613  0.1479  0.5880 -0.7468
27457SOL    HW188334  11.587  12.075  11.671 -0.4012  0.6566 -1.2155
27457SOL    HW288335  11.721  12.034  11.615  0.0410  1.0064 -0.4237
27458SOL     OW88336   7.260   9.973   1.303 -0.0112  0.0846  0.4990
27458SOL    HW188337   7.289   9.917   1.232 -0.4234  0.0540  0.3532
27458SOL    HW288338   7.208  10.041   1.261 -0.4998 -0.0978  0.7994
27459SOL     OW88339  11.530   0.344   9.478 -0.6893 -0.1961  0.0532
27459SOL    HW188340  11.476   0.423   9.475 -1.0827 -0.4515  0.4527
27459SOL    HW288341  11.581   0.353   9.559  2.1120  1.5050 -1.7165
27460SOL     OW88342   2.631  12.351   4.183 -0.2306  0.4720  0.6205
27460SOL    HW188343   2.721  12.386   4.184  0.2350 -0.6940  1.2616
27460SOL    HW288344   2.641  12.259   4.160 -1.2199  0.2087  1.1859
27461SOL     OW88345   0.530  11.350   7.265  0.3863  0.1741  0.1501
27461SOL    HW188346   0.468  11.279   7.278  0.7356 -0.4889 -1.5201
27461SOL    HW288347   0.477  11.430   7.272 -0.0940 -0.2507  1.5879
27462SOL     OW88348  11.014   6.273   0.660  0.3688 -0.5658 -0.5711
27462SOL    HW188349  11.029   6.333   0.587  0.8524 -0.2339 -0.2083
27462SOL    HW288350  10.929   6.234   0.642 -0.2824  0.7395 -0.4835
27463SOL     OW88351   0.025   9.276   1.907 -0.3503  0.5617  0.6491
27463SOL    HW188352  -0.011   9.351   1.860 -3.3801 -1.0330  0.0891
27463SOL    HW288353   0.005   9.293   1.999  1.2624  1.5146  0.8583
27464SOL     OW88354   6.750   4.028  12.152  0.3257 -0.1425  0.1316
27464SOL    HW188355   6.675   4.034  12.092 -0.0636  0.1741  0.6321
27464SOL    HW288356   6.807   3.962  12.113  1.2802  1.7185 -1.8801
27465SOL     OW88357   4.176   1.945   3.052  0.3078 -0.4249  1.0765
27465SOL    HW188358   4.259   1.915   3.014 -0.1613 -0.2069 -0.2005
27465SOL    HW288359   4.112   1.881   3.022 -0.0371 -0.4182  1.7906
27466SOL     OW88360   3.615   0.011   3.709 -0.0441  0.4138 -0.8014
27466SOL    HW188361   3.636  -0.082   3.716 -0.6880  0.1574 -2.0000
27466SOL    HW288362   3.607   0.041   3.799  1.0075 -0.4879 -0.3883
27467SOL     OW88363   3.939   0.045   3.750  0.1519  0.2559 -0.2843
27467SOL    HW188364   4.015  -0.011   3.768 -1.2245 -1.4318  0.5772
27467SOL    HW288365   3.894   0.002   3.678 -1.5561 -0.4965  1.1390
27468SOL     OW88366   8.480   1.287   3.457  0.2714  0.6525 -0.0605
27468SOL    HW188367   8.483   1.259   3.366  2.6318  0.5097 -0.0113
27468SOL    HW288368   8.432   1.370   3.455 -0.9831 -0.0647 -1.1797
27469SOL     OW88369   8.988   7.364   3.225 -0.3057  0.0119 -0.2226
27469SOL    HW188370   8.945   7.431   3.278  0.6051  0.6041 -0.2186
27469SOL    HW288371   8.980   7.284   3.277  0.3943  0.5412  0.7306
27470SOL     OW88372  11.696   2.960   7.179  0.4979  0.3329  0.1339
27470SOL    HW188373  11.724   2.908   7.254  1.4378  0.1559 -0.3217
27470SOL    HW288374  11.772   3.015   7.158 -0.0334  0.9690 -0.1816
27471SOL     OW88375   4.005   3.103  11.799 -0.0590 -0.2240 -0.1323
27471SOL    HW188376   4.003   3.109  11.895 -1.0884 -0.1335 -0.1531
27471SOL    HW288377   3.917   3.074  11.775 -0.7908  2.5867 -1.2449
27472SOL     OW88378  12.140   0.694   3.966  0.1409  0.1419  0.2492
27472SOL    HW188379  12.192   0.725   3.891 -0.1204 -0.5204 -0.2112
27472SOL    HW288380  12.159   0.600   3.970  1.3185  0.4052  1.9380
27473SOL     OW88381   4.092   2.767   2.607  0.5306  0.0389  0.0326
27473SOL    HW188382   4.145   2.836   2.566  1.3154 -0.8825 -0.5544
27473SOL    HW288383   4.119   2.687   2.562  0.0373 -0.7370  1.0810
27474SOL     OW88384   0.738  10.803   5.973 -0.3700  0.7179 -0.4358
27474SOL    HW188385   0.807  10.748   5.936 -0.4823  0.5229 -0.3624
27474SOL    HW288386   0.782  10.856   6.039 -0.2037  0.9391 -0.7306
27475SOL     OW88387   0.080   0.673  11.030  0.1638 -0.2827 -0.1175
27475SOL    HW188388   0.113   0.711  11.111 -0.5333  1.5737 -0.6604
27475SOL    HW288389   0.159   0.653  10.979  0.5535  0.3077  0.2509
27476SOL     OW88390   7.757   3.150  11.731  0.6382  0.0969 -0.3719
27476SOL    HW188391   7.754   3.245  11.719 -1.1044  0.1934  0.5756
27476SOL    HW288392   7.668   3.120  11.714  1.0247 -1.3032 -0.0720
27477SOL     OW88393   7.925   9.502  12.187  0.1553 -0.2846  0.1576
27477SOL    HW188394   7.877   9.452  12.253  0.9656 -0.0620  0.9260
27477SOL    HW288395   8.009   9.523  12.228  0.5362  0.1627 -0.8138
27478SOL     OW88396   8.964   0.934   9.701  0.1068 -0.2344 -0.4797
27478SOL    HW188397   8.975   1.004   9.636 -2.6197  0.3139 -0.4915
27478SOL    HW288398   8.952   0.979   9.784 -1.9882 -0.5597 -0.5304
27479SOL     OW88399   0.015  11.376  10.939 -0.5431 -0.0121  0.1278
27479SOL    HW188400   0.069  11.425  11.001 -0.8046 -0.2126  0.5165
27479SOL    HW288401  -0.008  11.441  10.871  0.1561  0.0768 -0.0292
27480SOL     OW88402   5.778   2.086  11.040 -0.2426 -0.2616  0.1932
27480SOL    HW188403   5.758   1.997  11.069 -0.8250  0.0081  0.6613
27480SOL    HW288404   5.758   2.085  10.947  0.5777 -0.8471  0.0196
27481SOL     OW88405  10.586   7.453   2.706 -0.2081 -0.1251 -0.5320
27481SOL    HW188406  10.621   7.539   2.729  1.4050 -0.0124 -3.0027
27481SOL    HW288407  10.562   7.460   2.614  0.1643 -2.3755 -0.8792
27482SOL     OW88408   5.394  10.159  10.156 -0.3891 -0.0825 -0.2653
27482SOL    HW188409   5.357  10.146  10.068  2.2473 -0.0255 -1.4612
27482SOL    HW288410   5.474  10.106  10.156  0.9713  1.8574  1.2025
27483SOL     OW88411   0.616  10.726   2.883  0.2985 -0.3430 -0.4743
27483SOL    HW188412   0.535  10.765   2.917  0.7263 -0.5017  0.8013
27483SOL    HW288413   0.667  10.707   2.962  2.3250  1.3207 -1.2912
27484SOL     OW88414   6.526   4.118   5.840  0.6813 -0.3899  0.2010
27484SOL    HW188415   6.538   4.201   5.795 -0.0198 -0.0120  0.6844
27484SOL    HW288416   6.503   4.056   5.771 -0.5283  0.2157  0.0310
27485SOL     OW88417   4.944  11.104   7.100 -0.0315 -0.3123 -0.3625
27485SOL    HW188418   4.905  11.049   7.168  1.6080 -0.1106  0.7899
27485SOL    HW288419   4.944  11.192   7.137  3.7466 -0.6496  0.8287
27486SOL     OW88420   4.710   7.961   4.040  0.5189 -0.2666 -0.0909
27486SOL    HW188421   4.656   7.943   3.964 -0.6833 -0.2283  0.7198
27486SOL    HW288422   4.711   8.057   4.046  0.7639 -0.2650 -0.1605
27487SOL     OW88423   0.590   6.745   6.481 -0.1552 -0.4919 -0.4342
27487SOL    HW188424   0.631   6.826   6.511 -0.9925  0.3793 -1.5285
27487SOL    HW288425   0.505   6.744   6.524  0.1241 -1.1573  0.1120
27488SOL     OW88426   5.340   7.118  10.311 -0.0525  0.0907 -0.5196
27488SOL    HW188427   5.354   7.024  10.324  0.3472  0.4796  2.4409
27488SOL    HW288428   5.303   7.124  10.223  1.3090 -2.6860 -1.4164
27489SOL     OW88429  11.040   5.617   7.826  0.3259  0.1577 -0.7476
27489SOL    HW188430  10.974   5.558   7.790 -2.3617  1.0865  2.2674
27489SOL    HW288431  11.054   5.587   7.916  1.0768  2.3426 -0.0691
27490SOL     OW88432   7.743   0.320  11.532 -0.5503 -0.4224 -0.2390
27490SOL    HW188433   7.686   0.335  11.608 -1.5455 -0.1030 -1.0338
27490SOL    HW288434   7.757   0.407  11.495  0.4010 -0.5084 -0.1021
27491SOL     OW88435   9.147   1.704   9.162  0.3160 -0.1520  0.3918
27491SOL    HW188436   9.132   1.792   9.128 -1.6615 -0.9337 -0.9332
27491SOL    HW288437   9.097   1.700   9.243 -0.8563 -0.5002 -0.3299
27492SOL     OW88438   3.173   4.020   5.698  0.0326 -0.2360 -0.5248
27492SOL    HW188439   3.221   3.938   5.708  0.9531  0.3747  0.2581
27492SOL    HW288440   3.091   4.006   5.746 -0.2350 -1.0163 -1.2010
27493SOL     OW88441   0.063   7.137  11.441  0.9428 -0.0074  0.8497
27493SOL    HW188442   0.034   7.094  11.361  1.8506  1.1088 -0.1192
27493SOL    HW288443   0.020   7.089  11.512 -3.2039  1.4091 -0.4157
27494SOL     OW88444   3.714   1.310   4.664 -0.3864 -0.4929 -0.2825
27494SOL    HW188445   3.626   1.300   4.700  0.0736 -1.6962  0.6057
27494SOL    HW288446   3.771   1.303   4.741  0.4420  1.9217 -0.6047
27495SOL     OW88447   1.816  10.011   2.544 -0.0487 -0.1757  0.1735
27495SOL    HW188448   1.885  10.073   2.522  0.2479 -0.0714  1.3157
27495SOL    HW288449   1.862   9.928   2.560 -0.2769 -0.3154  0.1152
27496SOL     OW88450   9.264   2.427   9.445 -0.2915  0.1862  0.2193
27496SOL    HW188451   9.235   2.431   9.537  0.5683  2.1910  0.4439
27496SOL    HW288452   9.227   2.505   9.405  2.0830  1.1503 -0.2642
27497SOL     OW88453  11.893  11.954   4.576  0.3339 -0.3907 -0.1917
27497SOL    HW188454  11.881  11.986   4.487  1.8091 -2.1974 -1.1134
27497SOL    HW288455  11.857  11.865   4.575  0.8132 -0.6188  0.8739
27498SOL     OW88456  11.983  10.718   1.711 -0.1016  0.3324  0.3373
27498SOL    HW188457  11.901  10.669   1.718 -1.1914  2.0737  0.6858
27498SOL    HW288458  12.030  10.678   1.639 -0.7508 -1.4108  0.8332
27499SOL     OW88459   4.974   7.437   4.854 -0.1993 -0.6162 -0.2075
27499SOL    HW188460   5.026   7.395   4.786 -1.6492 -2.6154 -0.1829
27499SOL    HW288461   4.936   7.514   4.812  0.9269 -0.4101 -0.8770
27500SOL     OW88462   8.819   9.745   9.866 -0.6602 -0.8849  0.2980
27500SOL    HW188463   8.836   9.838   9.880 -1.5900 -0.8323  1.1766
27500SOL    HW288464   8.855   9.727   9.779 -2.5293  0.8067 -0.9001
27501SOL     OW88465   0.667   0.681   5.955 -0.6052  0.4520  0.0436
27501SOL    HW188466   0.581   0.719   5.940 -1.6728 -1.4781  0.8275
27501SOL    HW288467   0.655   0.587   5.936  2.0235  0.4630 -2.5150
27502SOL     OW88468   6.297  10.719   1.712 -0.6837 -0.0096 -0.1599
27502SOL    HW188469   6.330  10.743   1.625 -0.1391  0.5441  0.1878
27502SOL    HW288470   6.203  10.735   1.707 -0.6275  0.2022 -0.5921
27503SOL     OW88471   9.305  10.319   4.064 -0.5414  0.0064 -0.0991
27503SOL    HW188472   9.224  10.270   4.076  0.1695 -1.6436 -1.5313
27503SOL    HW288473   9.354  10.268   3.999  1.4452  1.1931  0.3832
27504SOL     OW88474   4.970   0.306  10.499 -0.2975 -0.2889 -0.5563
27504SOL    HW188475   4.970   0.399  10.474  1.6624 -0.1274 -0.1300
27504SOL    HW288476   4.896   0.298  10.559 -0.6595  0.9370 -0.7996
27505SOL     OW88477   4.467   5.655  11.599 -0.0717 -0.1793 -0.1833
27505SOL    HW188478   4.382   5.647  11.556 -0.4525  0.6238  0.3767
27505SOL    HW288479   4.494   5.745  11.580  1.2237 -0.7836 -1.3549
27506SOL     OW88480   1.832   0.899   4.406  0.3596  0.7838 -0.0775
27506SOL    HW188481   1.879   0.871   4.328  0.5833  0.4408  0.1805
27506SOL    HW288482   1.897   0.945   4.459  0.0142  1.7570 -0.4675
27507SOL     OW88483   8.226   3.259   9.055 -0.1097  0.3230  0.2261
27507SOL    HW188484   8.272   3.175   9.059  2.0502  1.4137 -0.2458
27507SOL    HW288485   8.134   3.237   9.071 -0.0635 -2.4653 -2.4400
27508SOL     OW88486  12.016   3.265  11.914 -0.2115 -0.0284 -0.0146
27508SOL    HW188487  12.026   3.206  11.840 -0.8841 -1.0660  0.6980
27508SOL    HW288488  12.106   3.288  11.939  0.0205  0.8836 -1.5347
27509SOL     OW88489   9.867  10.973   2.057  0.3387 -0.2908  0.8384
27509SOL    HW188490   9.807  10.957   2.129 -0.6117  3.7472  1.1629
27509SOL    HW288491   9.813  10.968   1.978  0.5418 -0.9497  0.7389
27510SOL     OW88492   3.834   1.354  11.001  0.1897  0.1675 -0.4045
27510SOL    HW188493   3.847   1.447  11.018  0.3015  0.1056 -0.1429
27510SOL    HW288494   3.922   1.317  10.997  0.1722 -0.4723  2.6484
27511SOL     OW88495   3.110   7.590   9.966 -0.0477  0.2247  0.4141
27511SOL    HW188496   3.154   7.660  10.014 -0.6173  0.8623  0.0329
27511SOL    HW288497   3.083   7.527  10.034  0.4671  0.3694  0.7583
27512SOL     OW88498   8.108   5.687   1.847 -0.0101  0.3574 -0.2019
27512SOL    HW188499   8.184   5.654   1.799  0.4623  0.4780  0.4409
27512SOL    HW288500   8.070   5.609   1.888 -1.1350  0.0656 -1.7203
27513SOL     OW88501   3.579   2.025   1.912 -0.5138 -0.1518 -0.3381
27513SOL    HW188502   3.641   1.955   1.932 -0.5499  0.2377  1.2786
27513SOL    HW288503   3.633   2.103   1.901 -0.6411 -0.0021  0.0877
27514SOL     OW88504   8.062   6.189   9.462 -0.2666  0.1393  0.1257
27514SOL    HW188505   8.155   6.200   9.481  0.1205  1.9862 -2.3344
27514SOL    HW288506   8.060   6.115   9.401 -0.0477  1.4595 -1.5794
27515SOL     OW88507   9.841   9.897   0.471  0.1670  0.0352  0.3203
27515SOL    HW188508   9.917   9.838   0.465 -0.0781 -0.2331 -0.1974
27515SOL    HW288509   9.824   9.924   0.381 -0.5864 -0.2036  0.3823
27516SOL     OW88510   7.089   0.448   5.564  0.2939 -0.3239  0.1778
27516SOL    HW188511   7.099   0.439   5.659 -0.8774  0.1601  0.3680
27516SOL    HW288512   7.059   0.362   5.534  0.0244 -0.2895  0.3459
27517SOL     OW88513   9.041   4.399  11.046 -0.3127 -0.2238 -0.1900
27517SOL    HW188514   8.976   4.330  11.060 -1.4350  0.3514 -2.2265
27517SOL    HW288515   8.994   4.481  11.061  0.4064  0.1660 -0.0120
27518SOL     OW88516  10.894   6.353   6.755 -0.1532 -0.7442 -0.0966
27518SOL    HW188517  10.925   6.430   6.706 -0.0810 -0.7360 -0.0367
27518SOL    HW288518  10.812   6.329   6.711  0.7595 -1.7756 -1.3092
27519SOL     OW88519   6.585   7.922   5.656  0.1564  0.5336  0.4736
27519SOL    HW188520   6.600   7.988   5.723  0.2342  0.1421  0.8488
27519SOL    HW288521   6.524   7.962   5.595 -0.6989  0.5330  1.3150
27520SOL     OW88522   9.876   9.591  11.891 -0.0826  0.1014  0.1672
27520SOL    HW188523   9.804   9.553  11.941 -0.1253  2.8064  2.3795
27520SOL    HW288524   9.833   9.638  11.820 -0.2997 -0.3766 -0.0262
27521SOL     OW88525   2.596   9.254  10.173  0.3653  0.5595  0.4423
27521SOL    HW188526   2.551   9.179  10.134 -2.2817  1.5978  1.3345
27521SOL    HW288527   2.611   9.314  10.100  0.1617  0.2670  0.1581
27522SOL     OW88528  10.635   5.605   1.733 -0.7675  0.4131 -0.0548
27522SOL    HW188529  10.670   5.534   1.786 -1.7883 -0.5945 -0.6941
27522SOL    HW288530  10.597   5.666   1.797  0.6019  0.6968  0.5264
27523SOL     OW88531   0.160   5.534   6.064 -0.3453 -0.5965 -0.4742
27523SOL    HW188532   0.175   5.479   6.141 -0.5321 -1.0733 -0.7743
27523SOL    HW288533   0.154   5.472   5.991 -1.0098 -0.2184 -0.7504
27524SOL     OW88534   4.929   6.588   7.185  0.1210  0.0999 -0.0521
27524SOL    HW188535   4.980   6.602   7.106 -0.0716 -0.5080 -0.2954
27524SOL    HW288536   4.980   6.630   7.255 -0.2183  1.5362 -0.6448
27525SOL     OW88537   4.358  12.302  11.654 -0.3811  0.0090  0.2697
27525SOL    HW188538   4.290  12.354  11.699 -0.8037 -0.6952  0.4571
27525SOL    HW288539   4.325  12.292  11.565  0.1088  0.7790 -0.0086
27526SOL     OW88540   8.297   0.097  11.222 -0.1678  0.3264  0.0001
27526SOL    HW188541   8.353   0.058  11.155  1.0637  0.6578  0.7891
27526SOL    HW288542   8.311   0.042  11.299  1.0574  1.8460  0.9238
27527SOL     OW88543   8.408  10.178   7.164 -0.0437  0.1512 -0.2715
27527SOL    HW188544   8.319  10.167   7.198 -0.4040  1.6066 -0.6361
27527SOL    HW288545   8.461  10.201   7.241 -0.1085 -0.1214 -0.1462
27528SOL     OW88546  11.622   7.252   9.743  0.0957 -0.3516 -0.0617
27528SOL    HW188547  11.632   7.284   9.653  0.0293 -1.0039 -0.3068
27528SOL    HW288548  11.704   7.205   9.760 -0.4931 -1.4811 -0.3087
27529SOL     OW88549   7.272   6.840   2.824 -0.1380 -0.2467  0.6094
27529SOL    HW188550   7.361   6.864   2.849 -0.0189  0.2921 -0.3114
27529SOL    HW288551   7.264   6.748   2.851  1.6744 -1.2232 -1.7821
27530SOL     OW88552   6.424   3.305  11.291  0.2473  0.1783  0.5692
27530SOL    HW188553   6.492   3.341  11.235 -0.7324  1.4824  0.1657
27530SOL    HW288554   6.351   3.286  11.232  0.7183 -2.6266  0.7495
27531SOL     OW88555   2.114  12.381  10.495 -0.5561 -0.0469 -0.1530
27531SOL    HW188556   2.058  12.454  10.520 -1.7397 -0.5426 -1.2631
27531SOL    HW288557   2.136  12.397  10.403 -0.0172 -0.5690 -0.1216
27532SOL     OW88558   4.288   4.808  10.372 -0.0907  0.0361 -0.1988
27532SOL    HW188559   4.324   4.737  10.318 -1.7851 -0.6620 -0.4805
27532SOL    HW288560   4.276   4.768  10.458  0.5183  0.4941  0.1019
27533SOL     OW88561   8.896  12.343   1.333 -0.1676 -0.8520  0.2786
27533SOL    HW188562   8.917  12.250   1.336  0.3035 -0.7067  2.0776
27533SOL    HW288563   8.980  12.387   1.324 -0.1336 -0.5190  1.9146
27534SOL     OW88564  11.105   7.079   2.216 -0.0528 -0.1746 -0.1588
27534SOL    HW188565  11.148   7.043   2.294  1.1396 -1.7707 -1.4584
27534SOL    HW288566  11.043   7.143   2.250 -0.9053 -2.0948  2.2357
27535SOL     OW88567   1.717   7.455   2.726 -0.8520  0.4629  0.9914
27535SOL    HW188568   1.694   7.513   2.798  1.2577  0.2785  1.8963
27535SOL    HW288569   1.747   7.375   2.769 -0.8530 -0.1752 -0.1523
27536SOL     OW88570   5.188   3.450   2.771  0.2324  0.2439 -0.4683
27536SOL    HW188571   5.172   3.357   2.787 -1.2465  0.6340  0.5642
27536SOL    HW288572   5.177   3.491   2.857  0.9590  1.3598 -0.8966
27537SOL     OW88573   6.068   2.163   2.153 -0.5938 -0.5496  0.3825
27537SOL    HW188574   6.042   2.187   2.242 -1.8869  0.4839 -0.2397
27537SOL    HW288575   6.095   2.246   2.113 -0.6331 -0.8988 -0.3835
27538SOL     OW88576   0.983   1.582   0.175 -0.2706  0.0795 -0.4085
27538SOL    HW188577   0.964   1.590   0.082 -1.1419 -1.7695 -0.4288
27538SOL    HW288578   0.919   1.519   0.207  0.6954 -0.1187  1.2385
27539SOL     OW88579   5.290   7.327  10.883 -0.1161  0.3706  0.2479
27539SOL    HW188580   5.331   7.253  10.929  2.1220  1.4573  0.1632
27539SOL    HW288581   5.197   7.321  10.905  0.1461 -1.8968  1.0091
27540SOL     OW88582   1.611   5.130   3.941 -0.2945  0.5055 -0.3142
27540SOL    HW188583   1.699   5.159   3.963 -0.2971 -1.1727  2.3289
27540SOL    HW288584   1.554   5.174   4.004 -0.9799 -0.6242 -0.1068
27541SOL     OW88585   7.090   7.566   8.279 -0.0209  0.0690  0.2319
27541SOL    HW188586   7.057   7.548   8.367 -0.7113 -0.2567 -0.0890
27541SOL    HW288587   7.132   7.485   8.252 -0.6333 -0.1465 -0.0988
27542SOL     OW88588  11.296  11.555   9.124 -0.4362  0.0967 -0.0385
27542SOL    HW188589  11.270  11.581   9.036 -0.6469  1.2519  0.3473
27542SOL    HW288590  11.222  11.580   9.180 -0.7090 -1.4931  0.3526
27543SOL     OW88591   3.444  11.782  10.520 -0.0970  0.3250  0.1598
27543SOL    HW188592   3.534  11.811  10.539  0.7651 -3.3715  2.5820
27543SOL    HW288593   3.451  11.738  10.435  0.5270 -0.4565  0.6101
27544SOL     OW88594   4.240  12.135   7.364 -0.3451 -0.5195 -0.4189
27544SOL    HW188595   4.293  12.074   7.312  0.0836 -0.4424 -0.0806
27544SOL    HW288596   4.293  12.215   7.368  0.0927 -0.8492  0.9593
27545SOL     OW88597   0.250   8.393  11.394  0.6667  0.3920  0.0958
27545SOL    HW188598   0.218   8.481  11.412 -0.7667 -0.2593  0.8757
27545SOL    HW288599   0.327   8.407  11.339  0.3336  2.1146 -0.0016
27546SOL     OW88600   3.772   3.975  12.216  0.1076  0.4669 -0.0153
27546SOL    HW188601   3.850   3.999  12.268  1.2079  0.0504 -1.4064
27546SOL    HW288602   3.749   4.056  12.170  0.8784  0.1296 -1.0254
27547SOL     OW88603   8.100   2.890   8.920  0.0300  0.2091  0.4874
27547SOL    HW188604   8.024   2.944   8.896  0.6682  0.8217 -0.2524
27547SOL    HW288605   8.122   2.843   8.839  0.7596  0.4599  0.5300
27548SOL     OW88606   1.625   6.800  12.099  0.0749  0.2926  0.0379
27548SOL    HW188607   1.601   6.739  12.029 -0.5691 -0.6673  1.0748
27548SOL    HW288608   1.714   6.775  12.124 -0.3961 -0.5975  0.8439
27549SOL     OW88609  10.256   3.808   2.077  0.0258  0.2004  0.5473
27549SOL    HW188610  10.326   3.807   2.012  0.8834  0.0800  1.4303
27549SOL    HW288611  10.225   3.898   2.077  0.1424  0.2432  0.0996
27550SOL     OW88612   8.105  11.717   6.661  0.1865  0.1487  0.0065
27550SOL    HW188613   8.097  11.626   6.634  0.4847  0.3562 -0.8163
27550SOL    HW288614   8.016  11.751   6.656  0.3679  0.4520 -1.7646
27551SOL     OW88615   8.263   4.587   4.355 -0.3817  0.4298 -0.1203
27551SOL    HW188616   8.311   4.645   4.415 -2.0539  1.1686  0.6000
27551SOL    HW288617   8.185   4.562   4.405  0.4459 -2.8189 -0.2571
27552SOL     OW88618  11.704   6.577   8.119  0.2065 -0.0293 -0.3584
27552SOL    HW188619  11.710   6.485   8.095  0.9449  0.0614 -0.5291
27552SOL    HW288620  11.614   6.602   8.096  0.4211 -0.3516 -1.5634
27553SOL     OW88621  10.788   8.424   7.950 -0.0640  0.0530 -0.3841
27553SOL    HW188622  10.805   8.496   7.888 -0.6349  1.6030  1.1614
27553SOL    HW288623  10.855   8.436   8.018  0.2443 -1.3081 -0.4309
27554SOL     OW88624  11.782  11.092   8.772  0.0193  0.2605 -0.5098
27554SOL    HW188625  11.814  11.053   8.854 -1.7286  0.3599  0.2546
27554SOL    HW288626  11.745  11.176   8.798 -2.2189 -0.4833 -1.0377
27555SOL     OW88627   6.872   6.113   1.222 -0.5132  0.1062 -0.2328
27555SOL    HW188628   6.857   6.207   1.230  0.7968  0.2059  1.6345
27555SOL    HW288629   6.881   6.082   1.312 -0.7391 -1.7877 -0.8122
27556SOL     OW88630   6.096   0.946  10.396 -0.3743  0.5607  0.2022
27556SOL    HW188631   6.117   1.000  10.473 -0.6489 -0.2980  0.8968
27556SOL    HW288632   6.121   1.000  10.321  2.8648  0.2428  0.9054
27557SOL     OW88633   2.878   9.143   4.901  0.1405 -0.2628 -0.4279
27557SOL    HW188634   2.837   9.106   4.823  1.4550  0.2275 -1.3949
27557SOL    HW288635   2.829   9.223   4.919 -0.8994 -0.9710 -0.0365
27558SOL     OW88636   3.530  12.158   6.201 -0.3538 -0.8339  0.6512
27558SOL    HW188637   3.616  12.196   6.182 -1.2883  0.5084 -1.1982
27558SOL    HW288638   3.515  12.177   6.293  0.7703  0.1122  0.6608
27559SOL     OW88639   6.089   3.766   4.314 -0.5036 -0.2620 -0.0355
27559SOL    HW188640   6.005   3.798   4.345 -0.2603  1.4188 -0.9872
27559SOL    HW288641   6.153   3.830   4.345  0.1207 -0.2179 -1.3145
27560SOL     OW88642  10.806   6.225   7.515  0.7279  0.5788  0.5027
27560SOL    HW188643  10.735   6.195   7.459  0.1116  2.4181  0.2343
27560SOL    HW288644  10.819   6.154   7.577  0.9368 -1.2082 -1.4876
27561SOL     OW88645   8.573   8.583  11.841 -0.3269 -0.1834  0.1184
27561SOL    HW188646   8.600   8.656  11.785  2.1769 -0.6166  0.6121
27561SOL    HW288647   8.485   8.560  11.812  0.1476  0.8398 -2.3253
27562SOL     OW88648   6.073   0.266   8.106 -0.1319 -0.6002 -0.3443
27562SOL    HW188649   6.031   0.348   8.083  2.3783  0.9679  0.2811
27562SOL    HW288650   6.135   0.249   8.035  1.8429 -0.0437  1.1599
27563SOL     OW88651  11.191   5.611   5.201  1.0297 -0.1408  0.1490
27563SOL    HW188652  11.136   5.667   5.255  1.1911  1.1796 -0.9741
27563SOL    HW288653  11.242   5.560   5.263 -0.5366 -0.4822  1.2092
27564SOL     OW88654   1.361  10.541   5.699 -0.6492 -0.1958 -0.2347
27564SOL    HW188655   1.390  10.518   5.787  0.6710 -0.7470 -0.7907
27564SOL    HW288656   1.350  10.456   5.654 -0.1681  0.0974 -0.9350
27565SOL     OW88657   6.841   3.884   7.195 -0.3017 -0.4227  0.1688
27565SOL    HW188658   6.889   3.840   7.265 -0.6250 -1.5908 -0.3219
27565SOL    HW288659   6.780   3.818   7.163  0.1513 -0.0643 -1.5118
27566SOL     OW88660   7.269   3.761   9.462  0.1940  0.7537  0.3281
27566SOL    HW188661   7.246   3.689   9.403 -0.1570  1.2671 -0.1679
27566SOL    HW288662   7.196   3.767   9.523 -1.2807  2.6126 -1.4603
27567SOL     OW88663   8.432   4.262   0.852  0.2770 -0.0942  1.3452
27567SOL    HW188664   8.364   4.213   0.898 -1.0329  0.1890 -0.2137
27567SOL    HW288665   8.446   4.214   0.771 -1.4420  2.2867 -0.4949
27568SOL     OW88666   1.697   2.334   4.379 -0.1668 -0.5422  0.1816
27568SOL    HW188667   1.651   2.382   4.448  1.9672 -1.9821  2.7826
27568SOL    HW288668   1.768   2.393   4.352 -0.1917 -0.5013  0.2049
27569SOL     OW88669   0.888   6.145   0.565 -0.3287  0.2754 -0.3074
27569SOL    HW188670   0.968   6.154   0.616 -0.8394 -1.4751  0.8822
27569SOL    HW288671   0.878   6.229   0.520  0.8061  1.4190  1.4947
27570SOL     OW88672   6.361   0.562   1.274 -0.4274  0.2770  0.1745
27570SOL    HW188673   6.272   0.568   1.308 -0.4140 -0.1558  0.3007
27570SOL    HW288674   6.355   0.598   1.185 -1.1872 -1.5393 -0.5821
27571SOL     OW88675   3.181  11.535  11.029  0.6599  0.3133 -0.6683
27571SOL    HW188676   3.224  11.460  11.070  2.3687  1.6272  0.0602
27571SOL    HW288677   3.246  11.569  10.967 -0.0147  1.2961 -0.8587
27572SOL     OW88678   8.777   0.123   2.902  0.1792 -0.3414 -0.0369
27572SOL    HW188679   8.760   0.202   2.852  1.5224  0.7195  1.1005
27572SOL    HW288680   8.818   0.154   2.983  0.4720 -2.1791  0.5677
27573SOL     OW88681   0.455   6.964   8.554 -0.4523 -0.0766  0.4807
27573SOL    HW188682   0.445   6.880   8.598 -0.2114  0.3933  1.4473
27573SOL    HW288683   0.399   7.024   8.604 -0.3132  0.4319  0.0369
27574SOL     OW88684   4.802   3.240   9.768  0.1298  0.0343 -0.4324
27574SOL    HW188685   4.856   3.161   9.769 -0.1489 -0.1679 -0.9188
27574SOL    HW288686   4.726   3.218   9.822  0.9539  0.6379  1.0310
27575SOL     OW88687   6.091  11.161   2.634  0.1828  0.5330  0.4541
27575SOL    HW188688   6.169  11.113   2.606  1.9129  1.0535  3.8731
27575SOL    HW288689   6.028  11.094   2.657  1.4761 -0.1183  2.2948
27576SOL     OW88690  10.318   1.224   5.468 -0.3383  0.0631  0.2854
27576SOL    HW188691  10.251   1.276   5.512 -1.5723 -0.6646 -0.6669
27576SOL    HW288692  10.314   1.252   5.377  0.5359 -0.1318  0.1786
27577SOL     OW88693   9.831   5.530  10.188  0.2423  0.2874 -0.5746
27577SOL    HW188694   9.758   5.576  10.230  1.1007 -0.5132  2.0253
27577SOL    HW288695   9.839   5.570  10.102 -2.5649  1.1115 -0.5327
27578SOL     OW88696   1.154   5.642  10.558 -0.3962  0.4718 -0.1291
27578SOL    HW188697   1.186   5.631  10.648 -1.0071  0.3990  0.0884
27578SOL    HW288698   1.169   5.557  10.517  0.3115  0.6460 -0.2397
27579SOL     OW88699   6.606   0.468  10.839  0.5844 -0.7062 -0.4316
27579SOL    HW188700   6.651   0.390  10.804  0.6985  0.3770 -2.9220
27579SOL    HW288701   6.623   0.536  10.774 -1.8192  0.6764  0.2678
27580SOL     OW88702   6.635  10.443   3.005  0.4980 -0.0120 -0.4207
27580SOL    HW188703   6.681  10.365   2.975  1.9009 -0.5372  2.7673
27580SOL    HW288704   6.700  10.513   3.002  0.6553 -0.0577  1.1437
27581SOL     OW88705   5.969   1.314   8.296 -0.4106 -0.2456 -0.5147
27581SOL    HW188706   5.896   1.300   8.357 -0.2631  0.3472 -0.2013
27581SOL    HW288707   5.928   1.346   8.216 -0.3061  3.2373  0.6501
27582SOL     OW88708   9.998   1.054  10.271  0.2153  0.1664 -0.4988
27582SOL    HW188709  10.058   1.124  10.297 -1.9718  1.1470  2.5160
27582SOL    HW288710   9.971   1.077  10.182  2.1172  1.2193 -0.8471
27583SOL     OW88711   0.975   4.146  11.645 -0.2831  0.0861 -0.4227
27583SOL    HW188712   0.929   4.203  11.583  1.3452  0.4109 -1.4095
27583SOL    HW288713   0.933   4.162  11.729 -2.2542 -0.0046 -1.3331
27584SOL     OW88714  11.923   3.873   1.742  0.0102  0.2514 -0.2013
27584SOL    HW188715  11.958   3.837   1.823 -0.7247  0.7873  0.3683
27584SOL    HW288716  11.971   3.828   1.673  0.1562 -0.7253  0.5203
27585SOL     OW88717   6.008   6.480   4.284 -0.2585 -0.7179 -0.4102
27585SOL    HW188718   5.965   6.431   4.214 -0.1534 -0.6054 -0.5534
27585SOL    HW288719   5.983   6.571   4.269 -2.3909 -0.9613  1.2191
27586SOL     OW88720   3.739   8.676   9.909 -0.3265 -0.3986 -0.3094
27586SOL    HW188721   3.714   8.767   9.892  1.3249  0.0912 -0.2938
27586SOL    HW288722   3.700   8.626   9.837 -0.1610  0.5130 -1.0530
27587SOL     OW88723   9.511   0.188   3.987 -0.1718 -0.3038 -0.1215
27587SOL    HW188724   9.507   0.093   3.986  3.5860 -0.8940  4.5455
27587SOL    HW288725   9.591   0.209   3.937  0.5311  0.0534  1.1089
27588SOL     OW88726   2.546   7.511  11.032 -0.4114 -0.1964  0.3926
27588SOL    HW188727   2.511   7.595  11.062  1.2936  0.1417  1.5506
27588SOL    HW288728   2.577   7.467  11.111  1.4100 -0.6141 -0.4933
27589SOL     OW88729   5.946   6.843   2.201  0.0535  0.3854  0.2394
27589SOL    HW188730   6.018   6.787   2.172  0.4427  0.8900  0.1955
27589SOL    HW288731   5.989   6.925   2.227 -0.4685  0.5620  0.5763
27590SOL     OW88732   1.117   4.656   8.601 -0.4568  0.2724  0.6361
27590SOL    HW188733   1.179   4.584   8.603 -2.6616 -1.9674 -2.5741
27590SOL    HW288734   1.169   4.732   8.575  1.1750 -1.2528 -0.8088
27591SOL     OW88735   6.559   1.518   5.191 -0.3775 -0.9067  0.2287
27591SOL    HW188736   6.501   1.448   5.222 -1.0457 -0.8765 -0.9175
27591SOL    HW288737   6.630   1.472   5.145 -1.0906 -0.8312 -0.9783
27592SOL     OW88738   5.888   2.368   9.486 -0.2593  0.0406 -0.3784
27592SOL    HW188739   5.941   2.407   9.416 -0.5143  2.3792  0.6315
27592SOL    HW288740   5.892   2.432   9.557 -0.7844 -1.8206  1.4119
27593SOL     OW88741   9.370   5.646  11.705 -0.2194  0.1468  0.0865
27593SOL    HW188742   9.377   5.733  11.745 -1.4487  1.0831 -1.6052
27593SOL    HW288743   9.438   5.644  11.638 -1.4043  0.5893 -1.1744
27594SOL     OW88744   1.910   9.083   4.018 -0.3466  0.8342 -0.8065
27594SOL    HW188745   1.927   9.011   4.079 -2.0025 -0.5013 -1.8613
27594SOL    HW288746   1.820   9.070   3.990 -0.1639  2.4104 -2.2472
27595SOL     OW88747   9.406  10.474   1.635  0.1969  0.1140  0.1187
27595SOL    HW188748   9.365  10.489   1.550 -0.1557  1.1900  0.4740
27595SOL    HW288749   9.408  10.559   1.677  1.1495 -0.2508  0.8589
27596SOL     OW88750  10.127   6.506   5.080 -0.0387  0.4256 -0.4358
27596SOL    HW188751  10.129   6.599   5.101 -1.2724  0.5608 -0.8758
27596SOL    HW288752  10.034   6.484   5.075  0.2395 -0.6975 -0.9084
27597SOL     OW88753  11.671   6.454   1.850 -0.3980  0.0595 -0.2488
27597SOL    HW188754  11.745   6.497   1.807 -0.5324  0.1631 -0.3783
27597SOL    HW288755  11.711   6.386   1.904  0.0377  1.7387  1.6973
27598SOL     OW88756   0.459  11.804   1.501  0.3759 -0.7685  0.3288
27598SOL    HW188757   0.506  11.722   1.487 -1.9553 -2.3439  1.1628
27598SOL    HW288758   0.406  11.815   1.422  0.7513  0.0365  0.1703
27599SOL     OW88759   2.385   2.404   5.027  0.4875  0.4056  0.7521
27599SOL    HW188760   2.403   2.387   5.120  1.9097  0.7818  0.5653
27599SOL    HW288761   2.315   2.343   5.005 -1.4898  1.8053  2.6283
27600SOL     OW88762   6.383   1.344  11.209  0.0494 -0.1179  0.0327
27600SOL    HW188763   6.464   1.339  11.259  0.5830 -0.7247 -0.8506
27600SOL    HW288764   6.317   1.374  11.272  1.2739  2.0933  0.3549
27601SOL     OW88765   3.711   0.474  12.198  0.2296 -0.2292  0.2305
27601SOL    HW188766   3.716   0.568  12.180  2.5652 -0.7128 -2.4993
27601SOL    HW288767   3.646   0.441  12.137  0.6867 -0.5851 -0.0730
27602SOL     OW88768   9.608   9.798   9.993 -0.4955 -0.0612  0.2435
27602SOL    HW188769   9.676   9.740  10.029  2.4051  2.5423 -0.5573
27602SOL    HW288770   9.606   9.777   9.900 -2.1723 -1.3092  0.5142
27603SOL     OW88771   5.258   1.297   1.741 -0.0968 -0.6652 -0.4222
27603SOL    HW188772   5.337   1.327   1.786 -1.2984 -1.2262  2.2278
27603SOL    HW288773   5.231   1.371   1.687  1.3828  0.0700 -0.2018
27604SOL     OW88774  11.151  10.547   5.022  0.4047 -0.0982  0.0320
27604SOL    HW188775  11.128  10.590   4.940  0.7351  0.6763  0.3344
27604SOL    HW288776  11.128  10.611   5.090  1.7996  0.0203  0.4387
27605SOL     OW88777  10.025   5.896   5.299 -0.0808 -0.2033  0.4854
27605SOL    HW188778  10.017   5.875   5.392 -1.4196  0.3394  0.5144
27605SOL    HW288779  10.073   5.822   5.262 -1.9053 -1.8073  1.1297
27606SOL     OW88780   3.423  10.856   9.520 -0.0058 -0.4143  0.1332
27606SOL    HW188781   3.465  10.871   9.605 -1.2278  2.0916  0.3841
27606SOL    HW288782   3.351  10.795   9.540  0.3229 -0.6302  0.6807
27607SOL     OW88783   0.581   1.280   2.836  0.4841 -0.1950  0.2843
27607SOL    HW188784   0.571   1.330   2.755 -1.4800 -0.4576  0.3260
27607SOL    HW288785   0.546   1.193   2.816 -0.2490 -0.1972  1.4511
27608SOL     OW88786  12.382  12.001   6.007 -0.7197  0.1490 -0.3575
27608SOL    HW188787  12.295  11.987   6.046 -0.7925  1.2949 -0.0908
27608SOL    HW288788  12.395  11.925   5.951 -1.2421 -0.8243  0.7850
27609SOL     OW88789   8.253   6.280  11.960 -0.0290  0.2126  0.2217
27609SOL    HW188790   8.345   6.300  11.943 -0.3609  0.3962 -1.6482
27609SOL    HW288791   8.212   6.365  11.973 -0.4029  0.4224 -1.8926
27610SOL     OW88792   4.060   5.952   3.750 -0.0808 -0.0069 -0.0385
27610SOL    HW188793   4.083   5.864   3.721 -0.0027  0.3276 -1.0245
27610SOL    HW288794   3.977   5.941   3.796  0.0696 -0.6365  0.0935
27611SOL     OW88795   4.961   5.416   7.411  0.3324  0.1213 -0.0421
27611SOL    HW188796   4.945   5.426   7.505  1.6459 -0.4284  0.2465
27611SOL    HW288797   4.993   5.502   7.383 -0.0974  0.2970 -0.0151
27612SOL     OW88798   9.525   1.335   8.595  0.4921  0.0792 -0.2885
27612SOL    HW188799   9.470   1.314   8.520  2.4674 -1.3606 -1.4590
27612SOL    HW288800   9.537   1.430   8.591 -0.8123  0.2443 -0.7356
27613SOL     OW88801  11.560   0.352   6.833  0.1198  0.4554  0.3223
27613SOL    HW188802  11.650   0.356   6.864 -0.7131 -0.0808  3.1012
27613SOL    HW288803  11.542   0.259   6.822  0.0996  0.5938 -0.9150
27614SOL     OW88804   6.528   9.992   7.052  0.5049 -0.0830  0.5591
27614SOL    HW188805   6.603  10.052   7.053  1.2678 -1.0202  0.4514
27614SOL    HW288806   6.552   9.924   6.989 -0.8944  0.1643 -0.2923
27615SOL     OW88807  11.451   8.982   0.532  0.0440  0.1299 -0.4548
27615SOL    HW188808  11.418   8.987   0.442  0.7654  1.0140 -0.6896
27615SOL    HW288809  11.546   8.980   0.522  0.1076 -0.9411  0.2554
27616SOL     OW88810   1.539   3.597   8.364  0.3205  0.3874 -0.3438
27616SOL    HW188811   1.514   3.549   8.285 -0.7221  0.1904  0.0909
27616SOL    HW288812   1.477   3.567   8.431  1.1493  0.5954  0.5391
27617SOL     OW88813  11.429   8.047   3.946 -0.4698  0.3015 -0.5134
27617SOL    HW188814  11.360   7.995   3.905  0.0754  0.9359 -2.2955
27617SOL    HW288815  11.508   8.028   3.896  0.0402  1.7603 -0.3372
27618SOL     OW88816   4.323   1.678   7.231 -0.0574 -0.1173  0.0763
27618SOL    HW188817   4.272   1.746   7.185 -1.7909 -0.1083  1.8887
27618SOL    HW288818   4.335   1.609   7.166 -3.2825 -0.5351 -0.2114
27619SOL     OW88819   5.085   5.756   8.031  0.3126 -0.2381 -0.0050
27619SOL    HW188820   5.023   5.704   8.083  0.2813 -0.7796 -0.5737
27619SOL    HW288821   5.033   5.832   8.002 -0.1716 -0.7995 -0.6641
27620SOL     OW88822   0.365   8.014   9.315  0.1387 -0.3711  0.2012
27620SOL    HW188823   0.301   7.954   9.354  0.7662 -1.7860 -0.8492
27620SOL    HW288824   0.312   8.081   9.272 -0.8155 -2.3140 -1.9361
27621SOL     OW88825  11.584  10.103   4.935  0.9127  0.2395  0.2083
27621SOL    HW188826  11.582  10.145   4.849 -0.2309 -1.4142 -0.6251
27621SOL    HW288827  11.670  10.060   4.939  2.1290  2.5447  1.0995
27622SOL     OW88828   6.890   3.220   7.088  0.6748  0.1370 -0.1373
27622SOL    HW188829   6.834   3.291   7.058  1.2225  0.7941  0.3677
27622SOL    HW288830   6.832   3.163   7.139  0.2506  0.2591 -0.4849
27623SOL     OW88831   0.946   6.285   7.972  0.3918 -0.1699 -0.1349
27623SOL    HW188832   0.967   6.302   8.064 -0.0217  0.9317 -0.2297
27623SOL    HW288833   0.943   6.190   7.965 -1.6204 -0.2829  1.4804
27624SOL     OW88834   2.376   8.729   6.888 -0.4743 -0.1934  0.3177
27624SOL    HW188835   2.431   8.682   6.825 -0.3723  0.5184 -0.1290
27624SOL    HW288836   2.293   8.682   6.885 -0.5558 -0.0165 -0.5490
27625SOL     OW88837   2.954   9.839   4.169  0.6702  0.3209 -0.3530
27625SOL    HW188838   3.009   9.848   4.091 -0.9984  2.9626 -1.3632
27625SOL    HW288839   3.012   9.859   4.242  1.9562 -0.9302 -0.9798
27626SOL     OW88840   3.661   0.367   2.131  0.0803 -0.6856 -0.2565
27626SOL    HW188841   3.607   0.339   2.204 -0.5408 -0.4302 -0.6054
27626SOL    HW288842   3.604   0.359   2.054 -0.4726  2.3682 -0.2845
27627SOL     OW88843  11.521   7.407   3.186 -0.5744 -0.3066 -0.1550
27627SOL    HW188844  11.547   7.418   3.278  0.1172 -1.3830 -0.1972
27627SOL    HW288845  11.474   7.324   3.184 -1.3563  0.1358 -0.6391
27628SOL     OW88846   8.755   8.914   9.604 -0.8408 -0.3918  0.1360
27628SOL    HW188847   8.662   8.897   9.616 -0.9688  0.5047  0.5160
27628SOL    HW288848   8.761   9.009   9.596  0.0152 -0.4596 -0.1407
27629SOL     OW88849  10.298   8.599   6.211 -0.6968  0.6264 -0.3531
27629SOL    HW188850  10.296   8.634   6.122 -0.0340 -0.8777 -0.9893
27629SOL    HW288851  10.316   8.505   6.200 -1.5107  0.2324  1.3199
27630SOL     OW88852   1.923   6.815   2.402 -0.4321  0.1493  0.1697
27630SOL    HW188853   1.971   6.870   2.464  3.3860 -1.2551 -1.2289
27630SOL    HW288854   1.915   6.730   2.445  3.1913 -1.1627 -1.3364
27631SOL     OW88855   9.768   5.872   4.926 -0.4648  0.4327  0.1466
27631SOL    HW188856   9.750   5.891   5.018  1.1098 -0.5758  0.6938
27631SOL    HW288857   9.702   5.806   4.903 -1.6688  1.5913  0.1529
27632SOL     OW88858   1.653   0.906  11.565  0.3306 -0.0861  0.4695
27632SOL    HW188859   1.742   0.919  11.598  0.5153  0.4434 -0.2024
27632SOL    HW288860   1.626   0.821  11.601  0.4659  0.5078  2.0606
27633SOL     OW88861   1.256   4.908   1.152  0.0040 -0.1650  0.2189
27633SOL    HW188862   1.162   4.912   1.134  0.1152  0.2779 -0.3135
27633SOL    HW288863   1.287   4.834   1.101 -0.1356 -0.6304  0.8000
27634SOL     OW88864   2.302   2.733  12.238 -0.0984  0.4344 -0.1167
27634SOL    HW188865   2.363   2.660  12.249  0.5243  0.7162 -1.4205
27634SOL    HW288866   2.342   2.805  12.287  1.3298  0.9663 -1.9163
27635SOL     OW88867  10.432  11.917  11.694 -0.1499  0.0254 -0.5576
27635SOL    HW188868  10.388  11.832  11.683  0.0706  0.2358 -4.1823
27635SOL    HW288869  10.393  11.972  11.626  1.2141  2.2105  0.3513
27636SOL     OW88870   0.277   3.635   0.353 -0.2799 -0.1657  0.0445
27636SOL    HW188871   0.366   3.603   0.339  0.3763  1.6315 -0.1071
27636SOL    HW288872   0.261   3.622   0.447  1.1884  1.9078  0.6494
27637SOL     OW88873   7.172   6.655   2.100 -0.3978 -0.1694 -0.8878
27637SOL    HW188874   7.128   6.572   2.118 -0.2168  0.0801  0.8419
27637SOL    HW288875   7.112   6.722   2.132  0.3833  0.2553 -0.2680
27638SOL     OW88876   4.909  10.652  11.652  0.6103  0.2469  0.0201
27638SOL    HW188877   4.860  10.590  11.597  0.7831 -0.0968  0.2505
27638SOL    HW288878   4.843  10.716  11.679  0.5703  0.5430 -0.7616
27639SOL     OW88879   8.991   3.806  12.278  0.4652 -0.0701  0.0648
27639SOL    HW188880   8.986   3.714  12.252  2.8044 -0.0096 -0.9463
27639SOL    HW288881   9.082   3.817  12.308 -0.9985  0.7976  5.0203
27640SOL     OW88882   0.960   9.200   0.034 -0.1468 -0.1847  0.6947
27640SOL    HW188883   0.911   9.272  -0.005  0.6473  1.6949  2.8886
27640SOL    HW288884   0.898   9.126   0.034 -1.1276  0.5635 -1.2655
27641SOL     OW88885  10.551   5.871  10.705 -0.0605  0.0284 -0.2873
27641SOL    HW188886  10.638   5.842  10.734  0.2601 -1.0556 -2.1179
27641SOL    HW288887  10.557   5.966  10.703  0.6325  0.0303  0.8769
27642SOL     OW88888   4.696   3.302   6.182  1.0414  0.2414 -0.2194
27642SOL    HW188889   4.753   3.329   6.109  2.1050  0.2230  0.5854
27642SOL    HW288890   4.667   3.385   6.220  1.8025  0.2623  0.3326
27643SOL     OW88891  10.413   1.802   4.315 -0.7666 -0.3806  0.3341
27643SOL    HW188892  10.486   1.848   4.274 -0.9071 -1.7260 -1.5333
27643SOL    HW288893  10.454   1.731   4.365 -0.6491  0.7408  1.8865
27644SOL     OW88894   1.505   0.273   4.395  0.1645  0.0046 -0.3016
27644SOL    HW188895   1.539   0.229   4.317 -0.5504  1.2182 -1.3518
27644SOL    HW288896   1.476   0.202   4.452  0.2183 -0.9125 -1.3785
27645SOL     OW88897   7.847   8.605  12.368  0.5632 -0.7255  0.4859
27645SOL    HW188898   7.801   8.527  12.398 -0.2119 -0.1646  0.7513
27645SOL    HW288899   7.868   8.654  12.448  0.1124 -0.1404  0.2504
27646SOL     OW88900   4.534  11.299   1.526 -0.3587 -0.7919  0.0778
27646SOL    HW188901   4.619  11.342   1.513 -1.2025  1.2389  0.9998
27646SOL    HW288902   4.517  11.307   1.620 -3.3836  2.5975 -0.5442
27647SOL     OW88903   4.773   3.996   0.553  0.0705 -0.2662  0.7346
27647SOL    HW188904   4.853   3.943   0.550  0.4577  0.2190  1.7197
27647SOL    HW288905   4.731   3.982   0.469  2.4303  1.3191 -0.8507
27648SOL     OW88906  11.628   7.215   6.418 -0.3415  0.7222  0.0661
27648SOL    HW188907  11.576   7.258   6.487 -0.2629 -0.6567  1.0297
27648SOL    HW288908  11.577   7.229   6.338 -1.5135  0.5746  0.7584
27649SOL     OW88909   7.399   0.760  11.242 -0.1396 -0.4815  0.3603
27649SOL    HW188910   7.408   0.731  11.333 -0.2585 -2.5912 -0.2284
27649SOL    HW288911   7.463   0.708  11.194  1.2271  1.9093 -0.5663
27650SOL     OW88912   2.812  10.734  12.278 -0.1849 -0.6195 -0.2869
27650SOL    HW188913   2.776  10.671  12.340  1.6508 -0.4319  1.0431
27650SOL    HW288914   2.763  10.814  12.294  0.9073 -0.2738  1.7282
27651SOL     OW88915  11.302  11.936  10.225 -0.1406  0.2585 -0.1528
27651SOL    HW188916  11.285  11.843  10.240  0.6252  0.1059 -0.1868
27651SOL    HW288917  11.395  11.947  10.245 -0.4586  1.2350  0.8864
27652SOL     OW88918   6.890   3.324   7.571 -0.3992 -0.2831 -0.0469
27652SOL    HW188919   6.958   3.349   7.509  0.2504 -0.3363  0.6253
27652SOL    HW288920   6.935   3.319   7.656 -1.1680 -0.6573  0.3549
27653SOL     OW88921   7.883   1.289  10.193 -0.1558  0.4411 -0.3779
27653SOL    HW188922   7.853   1.375  10.220 -0.6301  0.6128 -1.3855
27653SOL    HW288923   7.873   1.234  10.271  1.2108  1.5234  0.6024
27654SOL     OW88924   6.624   8.058   1.679  0.4641 -0.5444 -0.4206
27654SOL    HW188925   6.651   8.044   1.589  0.9101 -1.2652 -0.1806
27654SOL    HW288926   6.636   7.973   1.721 -1.1691 -0.6379 -0.0444
27655SOL     OW88927   2.838  11.793  10.562  0.5904  0.3459  0.2091
27655SOL    HW188928   2.857  11.733  10.491  2.8583  0.8098  0.3420
27655SOL    HW288929   2.751  11.767  10.593 -0.3367 -0.0387 -2.4941
27656SOL     OW88930   1.575   2.054   6.594 -0.8182  0.3539 -0.2563
27656SOL    HW188931   1.560   2.005   6.513 -0.5179 -1.7851  0.8868
27656SOL    HW288932   1.490   2.092   6.616 -0.6775  1.8248 -2.0437
27657SOL     OW88933   7.047   6.771   3.315  0.1620 -0.1820 -0.0032
27657SOL    HW188934   7.018   6.695   3.366  0.8615 -1.3007 -1.2074
27657SOL    HW288935   6.975   6.834   3.324 -0.1010 -0.6509  1.6493
27658SOL     OW88936  10.760  10.157  11.811 -0.2809  0.0962  0.1736
27658SOL    HW188937  10.781  10.116  11.895 -0.1942 -0.6431 -0.1993
27658SOL    HW288938  10.824  10.119  11.750  1.2935  2.4428  0.2349
27659SOL     OW88939   1.105   6.328   3.959  0.7347  0.1600  0.0183
27659SOL    HW188940   1.064   6.398   4.012 -0.2084 -0.5870  0.3107
27659SOL    HW288941   1.091   6.249   4.010  2.1620 -0.2054 -0.1174
27660SOL     OW88942   4.794   0.868   3.173 -0.0155  0.2981  0.2431
27660SOL    HW188943   4.722   0.845   3.232  0.6182  0.5808  1.1457
27660SOL    HW288944   4.768   0.952   3.135 -0.7473 -0.2189 -0.4258
27661SOL     OW88945   5.906   6.009   2.648  0.4641  0.4101 -0.1112
27661SOL    HW188946   5.875   5.922   2.674 -1.1435  1.3503  1.2650
27661SOL    HW288947   5.968   6.034   2.717  0.9079  0.3861 -0.4935
27662SOL     OW88948   2.543   5.347  10.305  0.4730  0.6338  0.2071
27662SOL    HW188949   2.632   5.313  10.294  0.2231 -0.2978  0.9028
27662SOL    HW288950   2.521   5.326  10.396 -0.7363  0.1731 -0.1759
27663SOL     OW88951   7.350   4.261   9.260  0.2892  0.5470 -0.8175
27663SOL    HW188952   7.418   4.193   9.263  0.8825  1.0881 -1.7582
27663SOL    HW288953   7.276   4.218   9.217 -0.6001 -0.5533  1.6168
27664SOL     OW88954   2.350   5.093  11.285 -0.4946  0.1332  0.3601
27664SOL    HW188955   2.363   5.001  11.306 -2.4671 -0.2606  0.0367
27664SOL    HW288956   2.346   5.137  11.370 -1.3557 -0.3674  0.5921
27665SOL     OW88957   9.377  12.465   8.289 -0.2919 -0.1554 -0.0431
27665SOL    HW188958   9.364  12.559   8.279  1.4318 -0.0175 -1.5066
27665SOL    HW288959   9.471  12.455   8.306 -0.7264 -1.5242  1.9140
27666SOL     OW88960  11.065   8.332   3.987 -0.3475 -0.6232  0.0856
27666SOL    HW188961  11.140   8.373   4.030  0.6920 -0.6496 -1.6221
27666SOL    HW288962  11.009   8.406   3.963  0.5585 -0.3151 -1.2012
27667SOL     OW88963  12.248   3.560   6.166  0.9707  0.2413  0.2196
27667SOL    HW188964  12.223   3.481   6.216  0.2862  0.5149  0.3249
27667SOL    HW288965  12.168   3.612   6.163  0.5133 -0.4760 -2.5620
27668SOL     OW88966   8.288   2.690   0.165  0.3444 -0.1186  0.6333
27668SOL    HW188967   8.292   2.608   0.116  1.5774 -0.8623  1.9362
27668SOL    HW288968   8.365   2.739   0.137 -0.2762  0.5428  0.0161
27669SOL     OW88969  10.805   5.382   4.073  0.3689 -0.1780 -0.4721
27669SOL    HW188970  10.741   5.415   4.136 -0.0330 -1.1871 -0.3272
27669SOL    HW288971  10.753   5.357   3.997  0.4489 -1.7105 -0.0758
27670SOL     OW88972  12.025   8.345   9.806 -0.4344  0.8230  0.1707
27670SOL    HW188973  11.973   8.332   9.885  1.2658  1.1956  1.3996
27670SOL    HW288974  12.105   8.294   9.820  1.3010  3.3603  0.1296
27671SOL     OW88975   0.230   4.921  12.032 -0.2849  0.9308 -0.3995
27671SOL    HW188976   0.153   4.885  12.076  1.1606 -0.2591  1.3667
27671SOL    HW288977   0.260   4.991  12.090  0.4622  0.7661 -0.5690
27672SOL     OW88978  10.349   5.623   6.444 -0.3656  0.1480 -0.3856
27672SOL    HW188979  10.373   5.645   6.354 -1.1889 -1.5676 -1.0540
27672SOL    HW288980  10.259   5.590   6.438 -0.4701  0.1001  1.0801
27673SOL     OW88981   7.851   5.080   3.547  0.5826 -0.3375  0.1780
27673SOL    HW188982   7.863   5.034   3.464  1.7047 -1.2484  0.8072
27673SOL    HW288983   7.758   5.101   3.549  0.3980 -0.9121 -0.9955
27674SOL     OW88984  10.943   4.789   6.587  0.2785  0.0004 -0.2056
27674SOL    HW188985  10.885   4.726   6.544  0.4784 -0.7796  0.6373
27674SOL    HW288986  10.991   4.737   6.652  0.2972  1.0604  0.6594
27675SOL     OW88987   4.653  10.999   3.185  0.1924 -0.6224 -0.2787
27675SOL    HW188988   4.691  11.083   3.159  0.1061 -1.0060 -1.6945
27675SOL    HW288989   4.560  11.018   3.198  0.2681 -0.3928 -0.0468
27676SOL     OW88990   1.056  11.880  11.657 -0.2991  0.1003  0.0268
27676SOL    HW188991   0.972  11.840  11.679 -1.1342  2.1454  0.7496
27676SOL    HW288992   1.119  11.835  11.714 -0.8460 -1.5175 -0.5860
27677SOL     OW88993  12.140   2.640   7.222 -0.1447 -0.1288  0.7020
27677SOL    HW188994  12.138   2.556   7.267  0.6150 -0.5548 -0.0301
27677SOL    HW288995  12.048   2.662   7.207 -0.3364 -1.7266 -0.7307
27678SOL     OW88996   6.770   7.215   1.408  0.1414 -0.1128 -0.3342
27678SOL    HW188997   6.760   7.297   1.360  2.1211  0.5156  0.2447
27678SOL    HW288998   6.716   7.152   1.360 -1.5738  1.5243 -0.6902
27679SOL     OW88999   2.622   1.932   9.421  0.1574  0.6154 -0.1156
27679SOL    HW189000   2.717   1.920   9.413  0.3723  2.1013 -0.0866
27679SOL    HW289001   2.604   1.924   9.514  0.2730  0.4946 -0.1030
27680SOL     OW89002   6.600   7.765  10.526 -0.4174  0.9042  0.1729
27680SOL    HW189003   6.533   7.802  10.584  0.6804  0.0530  2.0963
27680SOL    HW289004   6.675   7.825  10.535  0.2786 -0.0355  0.8587
27681SOL     OW89005  11.340   5.441   3.061 -0.4216  0.0532 -0.2048
27681SOL    HW189006  11.369   5.516   3.009 -0.6051  0.0548 -0.3088
27681SOL    HW289007  11.320   5.477   3.147 -1.8208  0.3802 -0.6437
27682SOL     OW89008   5.850  10.395   7.779  0.3200  0.0541  0.2638
27682SOL    HW189009   5.837  10.326   7.713  1.6014 -1.0347  1.1043
27682SOL    HW289010   5.870  10.473   7.727 -0.4274 -0.3509 -0.6841
27683SOL     OW89011   6.043   2.134  10.980  0.5898  0.0883 -0.0584
27683SOL    HW189012   5.958   2.093  10.992  0.5154 -0.1020 -1.1100
27683SOL    HW289013   6.068   2.165  11.067 -0.2571 -0.4232  0.3755
27684SOL     OW89014   8.829   5.416  10.702 -0.7595  0.1187  0.0292
27684SOL    HW189015   8.829   5.400  10.607  0.4115  0.7396 -0.0951
27684SOL    HW289016   8.858   5.506  10.711 -0.3642 -0.0958  0.9993
27685SOL     OW89017  11.965   9.062  10.445 -0.9205  0.3810 -0.3669
27685SOL    HW189018  11.949   9.088  10.354 -1.1551 -2.1755 -1.1224
27685SOL    HW289019  11.951   9.143  10.495 -0.0779  2.0490 -2.6249
27686SOL     OW89020  12.043   3.676   2.729  0.6165  0.3365 -0.1039
27686SOL    HW189021  12.000   3.599   2.691  0.9215  1.1761 -2.2943
27686SOL    HW289022  12.136   3.661   2.714  0.9101 -0.0767  1.9128
27687SOL     OW89023   9.910   6.653   8.249 -0.1522 -0.4453 -0.0170
27687SOL    HW189024   9.994   6.683   8.216 -0.1395  1.5799  1.7040
27687SOL    HW289025   9.928   6.622   8.338 -1.4696  1.8295  1.1181
27688SOL     OW89026   9.058  11.149  12.053 -0.5314  0.2873 -0.1467
27688SOL    HW189027   9.011  11.073  12.088 -3.4375  1.9654 -0.0713
27688SOL    HW289028   9.130  11.112  12.002 -0.1565 -2.3943  2.0851
27689SOL     OW89029   2.600   6.144   5.423 -0.0222  0.4791  0.1909
27689SOL    HW189030   2.632   6.161   5.511 -0.9825 -0.7746  0.8191
27689SOL    HW289031   2.603   6.229   5.379  0.9450  1.0174  1.2642
27690SOL     OW89032   2.349   9.386   5.512 -0.1240  0.4272  0.0449
27690SOL    HW189033   2.259   9.372   5.483  0.1188  0.2013 -0.6063
27690SOL    HW289034   2.341   9.445   5.587 -0.7644  0.9918 -0.4560
27691SOL     OW89035   8.736   6.062  10.122 -0.1163  0.3132  0.2537
27691SOL    HW189036   8.682   6.041  10.046  1.0280 -2.5592  0.1016
27691SOL    HW289037   8.787   6.138  10.096 -1.7412  1.0951 -0.7714
27692SOL     OW89038   4.442   5.993   7.998 -0.2393 -0.2275  0.1998
27692SOL    HW189039   4.454   5.908   8.039 -0.7372  0.9944  3.1078
27692SOL    HW289040   4.483   6.055   8.058 -1.6438  1.7825 -0.7853
27693SOL     OW89041  10.990   0.513   3.661  0.5168  0.3728  0.3572
27693SOL    HW189042  10.900   0.539   3.646  0.4259 -0.7941 -1.4781
27693SOL    HW289043  10.984   0.438   3.721  0.2977  0.5526  0.5569
27694SOL     OW89044   2.206   9.004  11.359 -0.0093  0.6201 -0.2989
27694SOL    HW189045   2.298   9.006  11.386  0.3628  1.6140 -1.5508
27694SOL    HW289046   2.157   9.021  11.439  0.8211 -1.1082  0.6237
27695SOL     OW89047   8.109  11.634   7.980 -0.6187 -0.2434 -0.3868
27695SOL    HW189048   8.183  11.608   7.927 -0.7668 -1.6754  0.0683
27695SOL    HW289049   8.141  11.708   8.032  0.6380 -1.1095  0.1163
27696SOL     OW89050   4.687   0.435   9.124 -0.2280 -0.5056 -0.3491
27696SOL    HW189051   4.629   0.463   9.052  0.7733 -0.6767 -1.2474
27696SOL    HW289052   4.726   0.353   9.093 -0.9012 -1.3938  1.0304
27697SOL     OW89053   1.408   8.746   1.806 -0.1656  0.1124 -0.1205
27697SOL    HW189054   1.336   8.802   1.778 -1.7273 -1.6654  0.1533
27697SOL    HW289055   1.403   8.747   1.902 -0.1555 -0.4049 -0.1093
27698SOL     OW89056   9.501   9.908  10.533 -0.2815 -0.0131  0.0210
27698SOL    HW189057   9.523   9.865  10.450  0.0429 -0.3862  0.2929
27698SOL    HW289058   9.475   9.836  10.590  1.7639 -0.0806  0.9810
27699SOL     OW89059   4.108   8.076  10.018 -0.3848 -0.2854 -0.2271
27699SOL    HW189060   4.076   8.159  10.051 -0.3366 -0.3260 -0.0768
27699SOL    HW289061   4.161   8.041  10.089  0.0450 -0.1883 -0.4984
27700SOL     OW89062   4.306  10.822   8.467  0.0804  0.1635  0.1833
27700SOL    HW189063   4.294  10.800   8.374  1.4393 -2.7354  0.5774
27700SOL    HW289064   4.387  10.872   8.469  0.6258 -0.6833 -0.1238
27701SOL     OW89065   4.305   5.608   5.081  0.0950  0.5681  0.0120
27701SOL    HW189066   4.224   5.654   5.062  0.0386  0.6203  0.3653
27701SOL    HW289067   4.372   5.677   5.082  0.1275  0.5383 -0.1879
27702SOL     OW89068   1.536   9.345   4.468  0.0257  0.3565  0.3620
27702SOL    HW189069   1.446   9.313   4.469  0.2027 -0.1427  0.5264
27702SOL    HW289070   1.532   9.428   4.517 -0.8646  1.8231 -2.0446
27703SOL     OW89071   7.810  12.315  11.394 -0.0538 -0.7734  0.4661
27703SOL    HW189072   7.895  12.350  11.366 -0.2061  0.0303  0.9958
27703SOL    HW289073   7.821  12.294  11.486 -0.8381  0.6844  0.9200
27704SOL     OW89074   9.823   6.761   3.377 -0.0039  0.2171  0.6912
27704SOL    HW189075   9.744   6.711   3.356  0.2359  0.2862 -0.4320
27704SOL    HW289076   9.859   6.719   3.454  0.9141 -2.2020 -0.9374
27705SOL     OW89077   0.182   9.986   2.086 -0.6060 -0.2895 -0.1211
27705SOL    HW189078   0.095   9.998   2.125 -0.9602  0.9020 -1.2299
27705SOL    HW289079   0.207  10.073   2.056  0.4100 -0.8653 -0.9967
27706SOL     OW89080   7.302  12.416   4.486  0.2655  0.3215 -0.0413
27706SOL    HW189081   7.370  12.466   4.531  0.0819  1.1255 -0.6258
27706SOL    HW289082   7.317  12.435   4.393  0.1784 -0.7086 -0.2834
27707SOL     OW89083   7.862   1.246   6.264  0.9043  0.2103 -0.7411
27707SOL    HW189084   7.946   1.279   6.232  0.2652  1.0142 -1.6324
27707SOL    HW289085   7.805   1.246   6.187  0.3883 -1.4119 -0.4101
27708SOL     OW89086   8.207   3.879  10.900 -0.1024 -0.9391 -0.7275
27708SOL    HW189087   8.175   3.811  10.958  0.1302  1.1535  2.0633
27708SOL    HW289088   8.135   3.942  10.894  0.4957 -0.2889 -1.3091
27709SOL     OW89089   6.590   3.285   5.828 -0.0433 -0.1037  0.0861
27709SOL    HW189090   6.650   3.352   5.862 -0.8119  0.9505 -0.5638
27709SOL    HW289091   6.583   3.221   5.898  1.2353  0.1527  0.4761
27710SOL     OW89092   9.920   7.851  10.446  0.8633 -0.4186  0.6201
27710SOL    HW189093   9.877   7.883  10.367 -2.1209  0.6005  2.4673
27710SOL    HW289094  10.006   7.893  10.446 -0.4662  2.5447 -0.3006
27711SOL     OW89095   8.840   7.405   7.003 -0.3052  0.1717  0.3127
27711SOL    HW189096   8.924   7.369   6.975  0.3327  1.0901  0.9947
27711SOL    HW289097   8.843   7.497   6.974 -1.2389  0.1148 -0.0002
27712SOL     OW89098   6.794   6.651   5.083  0.0160 -0.5746  0.5346
27712SOL    HW189099   6.704   6.677   5.101 -0.3960 -1.9618  0.5961
27712SOL    HW289100   6.844   6.684   5.158 -0.3576  0.5810  0.2841
27713SOL     OW89101   4.495   8.189   0.090  0.0108 -0.1802 -0.3421
27713SOL    HW189102   4.565   8.125   0.081 -0.7861 -1.0359 -0.6882
27713SOL    HW289103   4.526   8.250   0.157  1.0137 -0.6247 -0.3896
27714SOL     OW89104   8.055   9.456   6.062 -0.0662  0.1528  0.0635
27714SOL    HW189105   8.121   9.516   6.097  1.4245 -1.1018 -0.4801
27714SOL    HW289106   8.025   9.498   5.982  0.6615  0.3956 -0.0916
27715SOL     OW89107   1.755   6.616   4.975  0.0308  0.4730  0.0073
27715SOL    HW189108   1.710   6.641   4.894  2.0154 -2.1017 -2.0357
27715SOL    HW289109   1.846   6.602   4.949  1.3004  1.7570  3.2161
27716SOL     OW89110   1.451   2.805   1.438 -0.0332 -0.5764  0.3344
27716SOL    HW189111   1.441   2.877   1.500  0.9267  2.6735 -2.9617
27716SOL    HW289112   1.361   2.777   1.419 -0.7330  2.0495 -0.6585
27717SOL     OW89113   9.343   4.119   6.347 -0.3579  0.2914 -0.4631
27717SOL    HW189114   9.255   4.105   6.381  0.1372  0.8275  1.1679
27717SOL    HW289115   9.331   4.170   6.267 -1.6412 -1.7716 -1.6828
27718SOL     OW89116   1.025   4.058   2.952  0.1046 -0.4770 -0.2130
27718SOL    HW189117   1.089   3.989   2.934 -0.3032 -1.2876  1.2718
27718SOL    HW289118   1.024   4.065   3.047 -0.0545  1.4192 -0.3235
27719SOL     OW89119   1.823   2.310   0.957  0.1559  0.4834  0.1780
27719SOL    HW189120   1.800   2.393   1.000 -0.4428  1.3118 -1.6331
27719SOL    HW289121   1.892   2.334   0.895  0.8609 -0.6346  0.4975
27720SOL     OW89122   9.724   3.952   1.142 -0.2115 -0.4285  0.2286
27720SOL    HW189123   9.807   3.917   1.110  0.0720  0.1558  0.3148
27720SOL    HW289124   9.664   3.942   1.068 -0.1265 -1.0493  0.2374
27721SOL     OW89125  10.538   6.848   2.598 -0.0633  0.0054  0.6727
27721SOL    HW189126  10.552   6.754   2.598 -0.4099 -0.0898  2.6744
27721SOL    HW289127  10.478   6.864   2.525  0.7018 -1.1729 -0.2510
27722SOL     OW89128   3.035   5.345  10.234 -0.4300 -0.3039 -0.0665
27722SOL    HW189129   3.049   5.436  10.261 -1.4585 -0.2575  0.3527
27722SOL    HW289130   3.123   5.308  10.227  0.0583  1.0284 -1.3704
27723SOL     OW89131   8.708   6.425   9.757 -0.3801 -0.6942 -0.0965
27723SOL    HW189132   8.618   6.449   9.737 -0.2528  0.3344  0.5040
27723SOL    HW289133   8.761   6.488   9.709  0.0361 -1.3356 -0.5030
27724SOL     OW89134   1.487   8.564   8.931 -0.2585  0.1286  0.0993
27724SOL    HW189135   1.540   8.548   8.852 -2.0820  0.8095 -1.3521
27724SOL    HW289136   1.516   8.499   8.994  2.9374  1.0761 -0.2488
27725SOL     OW89137   6.543   5.958  11.779  0.0169  0.2216  0.2748
27725SOL    HW189138   6.493   5.880  11.756  1.3351 -1.4027  2.6025
27725SOL    HW289139   6.634   5.933  11.767  0.4527  1.8829 -0.2260
27726SOL     OW89140   6.551   9.067   9.953 -0.8258  0.0509 -0.3340
27726SOL    HW189141   6.516   9.067  10.042  0.3228  0.9765  0.1448
27726SOL    HW289142   6.612   8.993   9.951 -0.8429  0.0374 -0.3475
27727SOL     OW89143  11.606   4.455   6.993 -0.3473  0.3710 -0.2697
27727SOL    HW189144  11.679   4.505   6.956  1.0830 -1.7283 -0.4114
27727SOL    HW289145  11.554   4.521   7.039  1.0239  2.1051 -1.0549
27728SOL     OW89146   1.834   8.168   5.267 -0.0082 -0.1198  0.5157
27728SOL    HW189147   1.828   8.083   5.312  0.5292 -0.8583 -0.7809
27728SOL    HW289148   1.759   8.218   5.302 -1.9280 -2.0538 -0.6091
27729SOL     OW89149   9.497   3.498   6.575 -0.0512  0.0547  0.6104
27729SOL    HW189150   9.504   3.426   6.639 -1.4210  0.9794  1.8616
27729SOL    HW289151   9.513   3.577   6.626 -1.1013  0.8190 -0.2102
27730SOL     OW89152   0.489  11.071  12.369  0.3315 -0.2588  0.2275
27730SOL    HW189153   0.551  11.140  12.344 -0.5408  1.0507  1.5269
27730SOL    HW289154   0.407  11.096  12.326  0.3193 -1.1950 -0.3077
27731SOL     OW89155   7.889   0.006   1.025 -0.6141 -0.7237 -0.1664
27731SOL    HW189156   7.874  -0.076   0.979 -0.1337 -0.2134 -1.2637
27731SOL    HW289157   7.978  -0.002   1.060 -1.7906 -2.1453  2.9690
27732SOL     OW89158  12.219  10.145   0.739 -0.5666  0.1613  0.2690
27732SOL    HW189159  12.190  10.055   0.753  0.6573 -0.1018  1.2287
27732SOL    HW289160  12.309  10.137   0.709 -0.4002  1.0783  0.4932
27733SOL     OW89161   6.505   4.697   1.586  0.3796  0.0039 -0.4664
27733SOL    HW189162   6.472   4.609   1.570 -1.4666  0.3016  1.3416
27733SOL    HW289163   6.495   4.710   1.680  2.3308  1.4991 -0.4035
27734SOL     OW89164   9.060  10.471   1.046  0.4098  0.7669 -0.5010
27734SOL    HW189165   9.092  10.404   0.986 -0.9743 -0.9594  0.6095
27734SOL    HW289166   9.089  10.443   1.132 -0.1772  1.6048 -0.0177
27735SOL     OW89167   2.123   4.420  12.028 -0.4749 -0.0186  0.5460
27735SOL    HW189168   2.031   4.425  12.053 -0.6933 -0.9956 -0.0173
27735SOL    HW289169   2.158   4.507  12.049 -2.0054  1.0769 -1.1520
27736SOL     OW89170   0.046   8.910   5.439 -0.6239 -0.2638  1.0187
27736SOL    HW189171   0.135   8.944   5.428 -1.0559  0.5231 -0.3484
27736SOL    HW289172   0.055   8.816   5.426  0.0262 -0.2037  0.9821
27737SOL     OW89173  10.742   4.153  11.379  0.0409  0.0550 -0.2421
27737SOL    HW189174  10.748   4.095  11.454 -1.0674  1.7982  1.2825
27737SOL    HW289175  10.833   4.171  11.355  0.3968 -1.6387 -0.2442
27738SOL     OW89176  10.093   3.526   6.115  0.2596  0.0710  0.4275
27738SOL    HW189177  10.160   3.461   6.136 -0.1848  0.0307  1.7726
27738SOL    HW289178  10.137   3.610   6.125  0.4414  0.0239  0.0679
27739SOL     OW89179   8.400   1.219   8.661  0.0869  0.5975 -0.3033
27739SOL    HW189180   8.367   1.263   8.583 -1.1220  0.6288  0.2004
27739SOL    HW289181   8.356   1.263   8.734  0.9163  0.3248  0.3687
27740SOL     OW89182   1.886  10.861   5.238 -0.5277  0.1314 -0.4188
27740SOL    HW189183   1.965  10.828   5.193 -1.0035  0.1138 -1.2577
27740SOL    HW289184   1.815  10.809   5.201 -0.8428 -0.5306  1.0332
27741SOL     OW89185  11.614   2.823   8.854 -0.3537  0.1369  0.2604
27741SOL    HW189186  11.566   2.851   8.932 -1.3216  2.0543 -0.9702
27741SOL    HW289187  11.563   2.750   8.819 -0.9907  0.5570  0.3153
27742SOL     OW89188  10.376   5.103  11.917  0.1439  0.4037 -0.0676
27742SOL    HW189189  10.433   5.126  11.991  0.4600  0.1042 -0.2117
27742SOL    HW289190  10.355   5.011  11.932  1.3478 -0.0731 -1.0777
27743SOL     OW89191  10.018   4.743  12.059 -0.2024  0.9524  0.0669
27743SOL    HW189192  10.070   4.752  11.979 -1.8883 -1.0473 -1.3267
27743SOL    HW289193  10.047   4.660  12.097 -1.3048  0.5622  0.0716
27744SOL     OW89194   6.717   3.002   3.020  0.2311  0.3535  0.0931
27744SOL    HW189195   6.749   3.024   3.108  2.4949  1.8065 -0.9957
27744SOL    HW289196   6.700   2.907   3.024  1.4584  0.1487  1.7749
27745SOL     OW89197   1.814   0.840   8.417 -0.4060  0.1981 -0.0607
27745SOL    HW189198   1.843   0.809   8.503  0.8649  0.4018 -0.3940
27745SOL    HW289199   1.893   0.880   8.379 -0.0263 -2.6849 -2.6328
27746SOL     OW89200   3.046  12.083  10.452  0.0330  0.0815  0.9277
27746SOL    HW189201   3.135  12.059  10.475  0.8028 -1.4460 -2.8402
27746SOL    HW289202   2.991  12.031  10.511  1.6653 -1.3486  1.2816
27747SOL     OW89203   8.572   9.353   1.568  0.0327  0.1014  0.0915
27747SOL    HW189204   8.575   9.327   1.660 -2.4807  0.5212  0.3597
27747SOL    HW289205   8.498   9.305   1.531 -0.1533  1.3147 -1.2263
27748SOL     OW89206   2.423   0.086   3.989  0.2321  0.6448 -0.6712
27748SOL    HW189207   2.386   0.169   3.958  2.4283  1.8679 -0.1969
27748SOL    HW289208   2.350   0.043   4.035 -0.8708  2.4437 -0.6297
27749SOL     OW89209   2.351   6.228   2.297 -0.2817  0.2840 -0.1401
27749SOL    HW189210   2.346   6.179   2.380 -0.0882  1.6541  0.7186
27749SOL    HW289211   2.437   6.205   2.261 -0.0838  0.1898  0.3819
27750SOL     OW89212   6.675   1.914   3.568 -0.0562  0.2489 -0.2695
27750SOL    HW189213   6.681   1.872   3.482 -2.6410  0.7503 -0.7627
27750SOL    HW289214   6.694   2.006   3.552  1.1275  0.0734  0.0269
27751SOL     OW89215   4.806  10.066  11.440  0.1690 -0.1233 -0.1102
27751SOL    HW189216   4.853  10.009  11.379  0.0898 -0.9378  0.5642
27751SOL    HW289217   4.819  10.024  11.526  0.6360  1.2273  0.4966
27752SOL     OW89218   8.651   7.893   6.065 -0.3591 -0.2817 -0.0623
27752SOL    HW189219   8.642   7.804   6.030  0.1455 -0.1663 -0.5143
27752SOL    HW289220   8.581   7.902   6.129 -0.2797 -1.0846  0.1454
27753SOL     OW89221   2.912   0.810   4.695  0.1273 -0.0103  0.4308
27753SOL    HW189222   2.832   0.862   4.683  1.1911  1.1465 -2.6663
27753SOL    HW289223   2.898   0.731   4.642  0.4086 -0.6208  1.2427
27754SOL     OW89224  10.042   8.629  10.828 -0.3780 -0.6961 -0.1971
27754SOL    HW189225  10.136   8.649  10.822 -0.5203  0.0272 -0.1874
27754SOL    HW289226  10.015   8.611  10.738 -0.3836 -0.1184 -0.3188
27755SOL     OW89227   2.626   2.190   3.395 -0.0016 -0.8895  0.2416
27755SOL    HW189228   2.602   2.262   3.454 -0.0327 -1.4629  0.9388
27755SOL    HW289229   2.722   2.185   3.402 -0.0495 -1.3148  0.6832
27756SOL     OW89230   4.754  10.358   6.149 -0.6395 -0.4058 -0.1843
27756SOL    HW189231   4.810  10.330   6.221 -2.1797 -0.2766  1.1167
27756SOL    HW289232   4.669  10.319   6.169 -1.2885  0.2695 -1.5349
27757SOL     OW89233   3.752   9.504  12.366  0.7141 -0.2910  0.6746
27757SOL    HW189234   3.760   9.592  12.404 -0.2964 -1.1441  3.1122
27757SOL    HW289235   3.835   9.462  12.386  1.0786 -0.0049 -0.2118
27758SOL     OW89236   8.904   9.805   2.147 -0.2740 -0.5389  0.1041
27758SOL    HW189237   8.985   9.854   2.152  1.2170 -2.8479  0.1536
27758SOL    HW289238   8.891   9.770   2.235 -2.2656  1.1105  0.5404
27759SOL     OW89239   6.302   1.911   8.144 -0.5405  0.1414  0.8099
27759SOL    HW189240   6.332   1.980   8.204  0.6458  0.2907  0.0679
27759SOL    HW289241   6.375   1.898   8.084 -1.2804 -0.8134  0.0933
27760SOL     OW89242  10.175   7.747  12.020 -0.2329 -0.4175  0.0440
27760SOL    HW189243  10.137   7.832  12.041  1.5862  0.6847 -0.8761
27760SOL    HW289244  10.169   7.741  11.925  0.3864 -0.9606  0.0340
27761SOL     OW89245   8.061   3.650  11.238  0.3987 -0.1790 -0.0679
27761SOL    HW189246   8.100   3.563  11.228  1.5411  0.4354 -1.3125
27761SOL    HW289247   8.002   3.658  11.164  1.1727  0.5196 -0.6284
27762SOL     OW89248   7.862   8.676  11.052 -0.9964 -0.4610 -0.1663
27762SOL    HW189249   7.953   8.653  11.031 -0.1939 -0.5681  2.9756
27762SOL    HW289250   7.811   8.600  11.024 -0.3351 -0.0121 -2.8550
27763SOL     OW89251  11.607   1.975   7.234  0.0169  0.0869 -0.1386
27763SOL    HW189252  11.562   2.024   7.165 -0.1409 -1.5311 -1.2285
27763SOL    HW289253  11.628   1.891   7.194  1.9801 -0.0610  1.0849
27764SOL     OW89254  12.250   0.756   9.562  0.4176  0.4000 -0.0667
27764SOL    HW189255  12.332   0.743   9.610  1.5527 -0.7438 -2.1897
27764SOL    HW289256  12.246   0.851   9.548  0.9395  0.5563  0.7402
27765SOL     OW89257  11.192  10.062  12.267  0.6997 -0.3077  0.5664
27765SOL    HW189258  11.133  10.135  12.286  0.3128 -0.6911  0.8715
27765SOL    HW289259  11.146   9.985  12.302  1.7234 -0.5118  1.4914
27766SOL     OW89260   2.172  10.209   9.892  0.4707 -0.6745  0.2866
27766SOL    HW189261   2.181  10.202   9.797 -1.4794  0.8248 -0.0839
27766SOL    HW289262   2.088  10.166   9.911 -0.0583  0.6297  1.0465
27767SOL     OW89263  12.408   8.991   9.409  0.0305 -0.5912 -0.5132
27767SOL    HW189264  12.452   8.912   9.442 -1.9053 -0.8221  1.7058
27767SOL    HW289265  12.323   8.960   9.377 -0.2204  0.4202 -0.8745
27768SOL     OW89266  10.133  10.389   2.394  0.1145  0.3850 -0.1632
27768SOL    HW189267  10.098  10.305   2.362 -1.8426  0.7089  0.9232
27768SOL    HW289268  10.228  10.376   2.396 -0.0998 -1.6605 -0.4002
27769SOL     OW89269   0.343   3.765   2.936 -0.0396  0.6630  0.2174
27769SOL    HW189270   0.303   3.694   2.886  1.2056  0.6335 -0.7863
27769SOL    HW289271   0.329   3.740   3.028  2.0637 -1.9576 -0.0397
27770SOL     OW89272   0.462   6.590   4.880  0.1764  0.4610 -0.0602
27770SOL    HW189273   0.420   6.653   4.938 -0.9527  0.3622 -0.7421
27770SOL    HW289274   0.394   6.565   4.818  0.7300 -1.0772 -0.1048
27771SOL     OW89275   7.465   3.779   5.188  0.6740 -0.3179  0.3530
27771SOL    HW189276   7.434   3.789   5.098  1.1282 -1.9859 -0.0275
27771SOL    HW289277   7.430   3.855   5.235 -1.1946 -0.4220 -0.7852
27772SOL     OW89278   1.601  12.123   3.823  0.4838  0.1300 -0.3393
27772SOL    HW189279   1.552  12.103   3.902 -0.7031  1.6306 -0.6380
27772SOL    HW289280   1.535  12.129   3.754  0.9753  2.4091 -0.7255
27773SOL     OW89281   5.192   9.934   9.467  0.4124  0.0341  0.0455
27773SOL    HW189282   5.229   9.888   9.391  0.0876 -1.5068  0.7814
27773SOL    HW289283   5.111   9.887   9.486  0.6304  0.2162  1.5280
27774SOL     OW89284  11.948   0.373   7.891  0.3230 -0.3642 -0.3642
27774SOL    HW189285  11.865   0.413   7.918  0.9712 -0.2002  1.5326
27774SOL    HW289286  12.012   0.444   7.899  0.5398 -0.1331 -2.9777
27775SOL     OW89287   6.156  12.010   5.275  0.1813 -0.1194 -0.4180
27775SOL    HW189288   6.251  12.021   5.269  0.2156  0.4070  0.7140
27775SOL    HW289289   6.124  12.092   5.311 -0.5707 -0.6863  0.2612
27776SOL     OW89290   5.844   6.382   5.891 -0.5802  0.1880  0.5843
27776SOL    HW189291   5.806   6.294   5.888 -1.7364  0.6728  0.5051
27776SOL    HW289292   5.912   6.381   5.823 -1.0076 -0.4470  0.1546
27777SOL     OW89293   1.373  12.118   8.114 -0.2822  0.2412 -0.4787
27777SOL    HW189294   1.370  12.110   8.019  1.7616 -0.7892 -0.4909
27777SOL    HW289295   1.333  12.037   8.147  1.2724 -0.5696 -0.5072
27778SOL     OW89296  10.745   3.521   9.961 -0.3092 -0.1024  0.0275
27778SOL    HW189297  10.721   3.436   9.925  0.9084 -0.3416 -0.2629
27778SOL    HW289298  10.832   3.507   9.999  0.2297  1.1826 -0.6779
27779SOL     OW89299  11.316  11.159   7.108 -0.2326  0.4663  0.1751
27779SOL    HW189300  11.276  11.195   7.187  0.8262  0.7959  0.5785
27779SOL    HW289301  11.280  11.071   7.101 -0.1268  0.3265  1.1898
27780SOL     OW89302   8.597   3.538  11.796 -0.3216  0.3343 -0.1670
27780SOL    HW189303   8.602   3.613  11.856  0.0259 -0.6342  1.0452
27780SOL    HW289304   8.640   3.467  11.842 -1.2297 -0.8079 -1.0135
27781SOL     OW89305  11.655   6.108   9.876 -0.1048  0.4798 -0.5729
27781SOL    HW189306  11.603   6.028   9.865  0.4141  0.2606 -1.5685
27781SOL    HW289307  11.619   6.169   9.811 -0.0207  0.8056 -0.3154
27782SOL     OW89308  10.703   0.989  12.442 -0.3205  0.0785  0.6300
27782SOL    HW189309  10.664   0.961  12.524  0.9214  4.3087  2.9478
27782SOL    HW289310  10.795   1.005  12.463  0.2838  0.3634 -1.8756
27783SOL     OW89311   3.071   3.091   8.667 -0.7863 -0.3442 -0.2970
27783SOL    HW189312   3.070   3.068   8.574 -1.6913  0.2875 -0.4516
27783SOL    HW289313   3.095   3.184   8.668  1.8075 -0.9303  0.2609
27784SOL     OW89314   5.341  10.991   1.759 -0.2447 -0.0075 -0.1105
27784SOL    HW189315   5.276  11.003   1.829  0.9003  2.4701  0.6327
27784SOL    HW289316   5.388  11.074   1.756  2.0138 -1.2552 -1.5402
27785SOL     OW89317   9.851   9.565   9.213 -0.2846  0.0956  0.5270
27785SOL    HW189318   9.828   9.483   9.168  1.2766  0.3001 -0.7239
27785SOL    HW289319   9.773   9.620   9.202 -1.0825 -0.9404  0.7658
27786SOL     OW89320   5.542   2.532   9.149 -0.2869 -0.1317 -0.9553
27786SOL    HW189321   5.535   2.501   9.239 -1.6535  1.6060 -0.4157
27786SOL    HW289322   5.468   2.490   9.103 -1.3099  1.1535 -0.5485
27787SOL     OW89323  11.004   5.333   8.473 -0.7402 -0.0007  0.0746
27787SOL    HW189324  10.994   5.346   8.568 -0.7275  0.7724 -0.0271
27787SOL    HW289325  10.955   5.404   8.433 -0.2991 -0.0076 -0.4958
27788SOL     OW89326  12.288  11.562  11.250  0.1350  0.2071 -0.4308
27788SOL    HW189327  12.217  11.624  11.264 -0.8599 -0.9624 -0.1154
27788SOL    HW289328  12.365  11.617  11.234 -0.8532  1.4963 -0.9248
27789SOL     OW89329   3.338   8.581   0.293  0.6066  0.0146 -0.5451
27789SOL    HW189330   3.250   8.603   0.264  0.3736  0.2467  0.3126
27789SOL    HW289331   3.368   8.515   0.230  1.1434  2.3353 -2.9306
27790SOL     OW89332   4.766   2.995   3.520 -0.1658  1.0902  0.0237
27790SOL    HW189333   4.774   2.930   3.449  1.0883  0.2508  0.8903
27790SOL    HW289334   4.815   3.071   3.489  1.4978  0.2524  0.4698
27791SOL     OW89335   6.769   2.638   0.072  0.1892  0.4947  0.1936
27791SOL    HW189336   6.693   2.666   0.021  0.6363  0.2525 -0.6277
27791SOL    HW289337   6.742   2.554   0.110  0.9726 -1.0556 -2.3990
27792SOL     OW89338  11.393  10.093   8.715 -0.3151  0.0230 -0.0757
27792SOL    HW189339  11.442  10.017   8.683  0.3037  0.5742 -0.4593
27792SOL    HW289340  11.370  10.071   8.805 -1.8107 -1.4250 -0.7628
27793SOL     OW89341   6.943   1.920   6.446  0.4312 -0.2739  0.3446
27793SOL    HW189342   6.869   1.894   6.500 -0.6463  1.4768 -0.2051
27793SOL    HW289343   6.986   1.838   6.422 -1.1234 -1.3015  0.9565
27794SOL     OW89344   6.934   3.826   0.189 -0.6542  0.1478 -0.0578
27794SOL    HW189345   6.903   3.843   0.100  1.1451  1.2352 -0.5247
27794SOL    HW289346   6.938   3.912   0.230  3.8159  0.5381 -0.8214
27795SOL     OW89347   0.739  11.042   4.092 -0.4588 -0.1246  0.3163
27795SOL    HW189348   0.672  10.997   4.143 -0.6796  0.7948  0.8525
27795SOL    HW289349   0.745  10.992   4.010  0.5555 -2.1758  1.5588
27796SOL     OW89350   3.668   3.881   5.310 -1.0461  0.1717  0.1607
27796SOL    HW189351   3.756   3.863   5.346 -1.0846 -0.6073 -0.1223
27796SOL    HW289352   3.680   3.958   5.254 -0.2725 -0.6868 -0.8888
27797SOL     OW89353   5.433  10.417  11.213  0.5877  0.3553  0.2389
27797SOL    HW189354   5.453  10.357  11.284 -0.9881 -0.7313 -0.1657
27797SOL    HW289355   5.456  10.503  11.247 -0.7393 -0.0383  2.3513
27798SOL     OW89356  12.015   7.493   0.136  0.1317  0.7022 -0.3403
27798SOL    HW189357  12.062   7.567   0.174  2.5056 -1.1569  0.5724
27798SOL    HW289358  12.075   7.457   0.071 -0.6546 -0.8856 -0.2218
27799SOL     OW89359   3.639   6.160   8.591 -0.4057 -0.1447 -0.1198
27799SOL    HW189360   3.710   6.225   8.598  0.1941 -0.9001  1.1320
27799SOL    HW289361   3.682   6.076   8.605 -1.3220 -0.7502 -0.8614
27800SOL     OW89362   2.956   2.950   0.020  0.0414 -0.1165 -0.2654
27800SOL    HW189363   2.948   2.953  -0.075 -1.0046 -0.7562 -0.2180
27800SOL    HW289364   2.866   2.958   0.051  0.4043  0.3836  0.6809
27801SOL     OW89365   5.388   4.991   6.510  0.2389 -0.2492 -0.5180
27801SOL    HW189366   5.469   4.995   6.460  0.8073 -0.7907  0.3424
27801SOL    HW289367   5.319   4.984   6.444  0.8531  0.5725 -1.2651
27802SOL     OW89368   9.364   3.342   1.482 -0.5799 -0.1768 -0.4298
27802SOL    HW189369   9.303   3.415   1.483 -1.0362 -0.4446 -2.4628
27802SOL    HW289370   9.308   3.265   1.465  0.2319 -0.4498 -2.1280
27803SOL     OW89371   7.178   2.681   4.593 -0.2798 -0.2134 -0.3873
27803SOL    HW189372   7.251   2.743   4.591 -0.1733 -0.3485 -0.8060
27803SOL    HW289373   7.127   2.701   4.514 -1.2076  0.4849  0.3764
27804SOL     OW89374   5.880   7.585   0.076 -0.3231 -0.2448  0.3574
27804SOL    HW189375   5.866   7.678   0.094 -1.4953  0.2111 -2.4984
27804SOL    HW289376   5.965   7.581   0.032 -0.9259 -0.2946 -0.8388
27805SOL     OW89377   7.023   6.712   8.141  0.3411 -0.3160 -0.1165
27805SOL    HW189378   7.112   6.747   8.139 -0.4381  1.8175 -1.5668
27805SOL    HW289379   7.024   6.640   8.078  1.1316 -0.5369  0.1424
27806SOL     OW89380   7.982   0.639   6.171 -0.4756 -0.2594  0.2010
27806SOL    HW189381   7.977   0.590   6.088 -1.7521  1.6207 -0.8921
27806SOL    HW289382   7.914   0.706   6.164  0.9567  1.4595  1.7839
27807SOL     OW89383   0.329   1.409   3.183  0.5399 -0.2577  0.1931
27807SOL    HW189384   0.309   1.496   3.147 -0.7939 -1.1769 -1.4270
27807SOL    HW289385   0.318   1.349   3.110  1.0806 -1.8593  1.3563
27808SOL     OW89386   6.073   3.259   4.342  0.0790 -0.1240  0.4354
27808SOL    HW189387   6.021   3.310   4.281 -0.7368  0.0530  1.2465
27808SOL    HW289388   6.163   3.285   4.325  0.2361 -2.1836 -2.6601
27809SOL     OW89389   3.821   6.756   8.337  0.2697  0.1971  0.1343
27809SOL    HW189390   3.729   6.730   8.344  0.3286 -0.5090 -1.2953
27809SOL    HW289391   3.823   6.818   8.264  0.8884  0.4251  0.3378
27810SOL     OW89392  11.598   9.988   7.006 -0.4932  1.1523  0.6528
27810SOL    HW189393  11.515   9.940   7.001 -1.1044  2.0221  1.9192
27810SOL    HW289394  11.616  10.015   6.916 -0.6430 -0.5776  0.0760
27811SOL     OW89395   1.553   8.812   3.296 -0.2035  0.2118  0.5403
27811SOL    HW189396   1.530   8.719   3.302  0.8948 -0.2055 -1.0653
27811SOL    HW289397   1.549   8.843   3.387  0.1947 -1.6017  1.2355
27812SOL     OW89398  11.018  11.934   5.733 -0.4298  0.4538  0.1731
27812SOL    HW189399  10.980  11.944   5.820  0.7478 -0.2524  0.8010
27812SOL    HW289400  11.087  11.869   5.744 -0.8621 -0.3559 -1.4945
27813SOL     OW89401  11.413   5.143  12.017 -0.7316  0.0071  0.1887
27813SOL    HW189402  11.482   5.083  11.989 -2.2123 -0.5937 -2.5453
27813SOL    HW289403  11.441   5.229  11.988 -0.1447  0.1360  1.1011
27814SOL     OW89404   5.935   0.109   5.370  0.2055  0.1578 -0.3728
27814SOL    HW189405   6.002   0.132   5.305 -1.0530 -0.3363 -1.9135
27814SOL    HW289406   5.901   0.193   5.400  0.7865  0.3959 -0.3667
27815SOL     OW89407   6.238   2.739   7.389  0.0692  0.0966  0.0120
27815SOL    HW189408   6.289   2.819   7.404  1.3285 -1.0214  2.3699
27815SOL    HW289409   6.300   2.678   7.347 -0.6149  0.0618 -0.9675
27816SOL     OW89410   3.321   2.554   8.975  0.0800 -0.3208  0.4835
27816SOL    HW189411   3.372   2.493   8.921  0.5426  0.3356  0.1712
27816SOL    HW289412   3.233   2.517   8.975  0.0881 -0.3700 -0.6742
27817SOL     OW89413   5.418   5.665  10.871 -0.2390 -0.3935  0.7309
27817SOL    HW189414   5.414   5.601  10.801  1.9587 -0.3656  0.5175
27817SOL    HW289415   5.452   5.617  10.946 -0.5184  0.0624  1.1590
27818SOL     OW89416   2.725   4.980   0.841  0.0341  0.2626 -0.6858
27818SOL    HW189417   2.655   5.027   0.887  1.1500  0.8882  0.4287
27818SOL    HW289418   2.753   4.912   0.902 -1.5025 -1.9171 -2.2548
27819SOL     OW89419   3.277   0.606   0.972  1.2073  1.3317 -0.0250
27819SOL    HW189420   3.188   0.624   0.941  1.8219  0.3026 -2.6235
27819SOL    HW289421   3.272   0.518   1.010  0.5364  2.4493  2.7111
27820SOL     OW89422   5.503   0.925   7.451 -0.3841 -0.2711 -0.3498
27820SOL    HW189423   5.456   0.846   7.476  0.4701 -0.3075  1.3113
27820SOL    HW289424   5.588   0.917   7.495 -0.2614  1.5342 -0.1675
27821SOL     OW89425   2.068   7.816   6.211 -0.1249 -0.8030 -0.1248
27821SOL    HW189426   2.139   7.801   6.148 -0.0584 -2.0779  0.2284
27821SOL    HW289427   2.061   7.734   6.259 -0.2332  0.1314  1.5004
27822SOL     OW89428   2.541   1.116   0.234  0.5410  0.2568  0.3133
27822SOL    HW189429   2.561   1.109   0.140  1.5175 -0.5431  0.5616
27822SOL    HW289430   2.487   1.039   0.252 -0.0745  0.6822  0.3147
27823SOL     OW89431   8.787   4.560   2.262 -0.0338 -0.0026  0.1813
27823SOL    HW189432   8.871   4.546   2.306  1.6829  0.2405 -2.7759
27823SOL    HW289433   8.726   4.501   2.307  1.4577  0.3814  2.9185
27824SOL     OW89434  11.081   3.274   0.977  0.1454  0.3249 -0.2400
27824SOL    HW189435  11.088   3.182   1.002 -2.4244 -0.1691 -1.0537
27824SOL    HW289436  11.054   3.319   1.057  2.4772  0.6324  0.4460
27825SOL     OW89437   4.672   6.074   4.957  0.4125 -0.5144 -0.2413
27825SOL    HW189438   4.685   5.980   4.958  0.3950 -0.5337  1.4520
27825SOL    HW289439   4.732   6.107   4.891 -0.3019 -1.7836 -1.5761
27826SOL     OW89440   6.676  10.651  12.086  0.3017 -0.7477 -0.5391
27826SOL    HW189441   6.592  10.614  12.113 -0.0911 -0.2311 -1.0347
27826SOL    HW289442   6.659  10.745  12.078  1.1651 -0.5156  0.2450
27827SOL     OW89443   0.905  11.382   3.413  0.2323  0.0160 -0.4101
27827SOL    HW189444   0.835  11.369   3.349 -0.0436 -0.3157 -0.0435
27827SOL    HW289445   0.985  11.386   3.360  0.0335 -0.4845 -0.7581
27828SOL     OW89446   6.996   0.954  10.940 -0.1824 -0.3270 -0.0201
27828SOL    HW189447   6.947   0.944  10.859  0.1667  0.8381 -0.3926
27828SOL    HW289448   7.085   0.926  10.919  0.4762  2.0493 -0.7108
27829SOL     OW89449   3.570   5.787   0.449  0.6140  0.3895  0.2171
27829SOL    HW189450   3.619   5.815   0.527  0.1860  0.0481  0.6066
27829SOL    HW289451   3.547   5.870   0.406  0.6599  0.5873  0.5651
27830SOL     OW89452   9.167  10.717   7.801 -0.5874  0.2678 -0.2845
27830SOL    HW189453   9.161  10.689   7.893 -0.3434 -1.6492 -0.8058
27830SOL    HW289454   9.255  10.753   7.793 -0.5850  0.3795  0.2097
27831SOL     OW89455   8.772   7.511   1.117 -0.0149 -0.3430  0.4656
27831SOL    HW189456   8.791   7.566   1.193  0.4426 -0.7845  0.6788
27831SOL    HW289457   8.858   7.489   1.081 -0.2047 -0.6351  0.1799
27832SOL     OW89458   3.774   9.996   3.558  0.1205  0.3122 -0.1295
27832SOL    HW189459   3.784  10.013   3.464 -0.3583 -1.5176 -0.5521
27832SOL    HW289460   3.683   9.970   3.568  0.5610 -1.0760  0.5535
27833SOL     OW89461   9.389  11.762   4.935  0.2382 -0.4340 -0.6164
27833SOL    HW189462   9.364  11.674   4.965  0.8324 -0.4044 -0.0167
27833SOL    HW289463   9.370  11.819   5.009 -0.9700  0.0927 -1.3063
27834SOL     OW89464   1.047  10.223   3.640  0.3703  0.4444  0.0353
27834SOL    HW189465   1.040  10.166   3.563 -1.4651  1.2641 -0.4799
27834SOL    HW289466   0.957  10.253   3.654  0.3807 -0.7358  3.3483
27835SOL     OW89467  10.793  10.298  10.784 -0.3189 -0.0826  0.4153
27835SOL    HW189468  10.886  10.278  10.773 -0.6039 -1.3371  0.0818
27835SOL    HW289469  10.776  10.283  10.877  0.2147  2.1009  0.9238
27836SOL     OW89470  10.721   4.814  11.658  0.0683 -0.2797 -0.3156
27836SOL    HW189471  10.712   4.808  11.753  1.2646 -1.6093 -0.2605
27836SOL    HW289472  10.636   4.784  11.625  0.3270 -1.8138  0.3274
27837SOL     OW89473   8.625   2.352   4.265  0.0994 -0.2464  0.8900
27837SOL    HW189474   8.687   2.303   4.211 -0.1644 -0.3204  0.6482
27837SOL    HW289475   8.660   2.347   4.353  0.4429 -0.2759  0.7513
27838SOL     OW89476   6.058   0.349   7.245  0.3236 -0.9112  0.0515
27838SOL    HW189477   6.129   0.340   7.309 -0.3341 -1.3281  0.7374
27838SOL    HW289478   6.051   0.263   7.206 -0.7532 -1.2808  1.0174
27839SOL     OW89479   8.567   1.250   7.105 -0.1296 -0.2784  0.1813
27839SOL    HW189480   8.559   1.184   7.036 -0.3512 -0.8507  0.7337
27839SOL    HW289481   8.585   1.332   7.059  1.6022 -0.9704 -0.4663
27840SOL     OW89482   6.997   4.704   5.615 -0.4050 -0.2565 -0.4578
27840SOL    HW189483   6.904   4.730   5.614  0.2995  2.6174 -0.1750
27840SOL    HW289484   6.998   4.619   5.659 -2.9514 -0.6288 -0.9658
27841SOL     OW89485  11.086   0.881   6.413 -0.4605 -0.0347  0.3342
27841SOL    HW189486  11.012   0.891   6.354 -1.1804  1.2761  1.4028
27841SOL    HW289487  11.070   0.944   6.484  1.0356 -0.6046  1.2465
27842SOL     OW89488   1.593   0.651   4.066  0.6634 -0.3210  0.1835
27842SOL    HW189489   1.582   0.627   4.158 -3.7796  0.9186  0.2300
27842SOL    HW289490   1.556   0.577   4.018  1.2288 -0.1582 -0.5179
27843SOL     OW89491   0.040   8.013   2.376  0.2541 -0.0092  0.0423
27843SOL    HW189492   0.103   7.971   2.318 -0.2696  0.7665 -1.1298
27843SOL    HW289493   0.060   8.107   2.370  0.1447  0.0992  1.0771
27844SOL     OW89494  10.198   8.025   6.609  0.2707  0.3473 -0.0149
27844SOL    HW189495  10.275   7.973   6.586 -0.5655 -0.2444 -1.6571
27844SOL    HW289496  10.233   8.112   6.628  1.2936  0.3321 -1.6356
27845SOL     OW89497   9.923   0.779   0.399  0.4743  0.6945  0.4037
27845SOL    HW189498   9.981   0.786   0.323  1.3826 -1.2989  0.8395
27845SOL    HW289499   9.835   0.775   0.361  0.9659 -1.3225 -0.6941
27846SOL     OW89500   0.689  11.229   1.813 -0.0282 -0.5230 -0.2784
27846SOL    HW189501   0.671  11.143   1.774 -1.4952  0.3955 -1.7600
27846SOL    HW289502   0.656  11.222   1.902 -0.9909 -1.2272 -0.6647
27847SOL     OW89503   0.516   8.280   7.288 -0.0824 -0.2597  0.3075
27847SOL    HW189504   0.552   8.280   7.200 -0.3858  0.5343  0.1704
27847SOL    HW289505   0.454   8.353   7.288 -0.6025 -0.6914  0.9695
27848SOL     OW89506   5.282   5.327   6.578  0.6311  0.4690  0.3639
27848SOL    HW189507   5.203   5.293   6.535  0.9217 -0.7157  0.7553
27848SOL    HW289508   5.343   5.254   6.579  1.5564  1.2196  0.5480
27849SOL     OW89509   2.964   6.759   7.742  0.1666  0.2881  0.2124
27849SOL    HW189510   2.925   6.827   7.797  0.3164  2.5153 -2.2389
27849SOL    HW289511   3.054   6.752   7.773  0.0011  0.8393  0.8341
27850SOL     OW89512   4.166  10.680   2.043 -0.1969 -0.0899  0.4062
27850SOL    HW189513   4.167  10.686   2.139 -0.1481 -0.1167  0.4075
27850SOL    HW289514   4.258  10.666   2.019 -0.2900 -0.7131  0.3992
27851SOL     OW89515   7.187   0.269   6.852 -0.7513  0.3606 -0.4411
27851SOL    HW189516   7.175   0.293   6.944 -0.5816  0.7418 -0.5175
27851SOL    HW289517   7.163   0.176   6.848 -0.5586  0.2901  0.0275
27852SOL     OW89518   7.341  10.888   9.033  0.0573  0.5584 -0.5687
27852SOL    HW189519   7.383  10.823   9.089 -0.4775 -0.9880 -1.8865
27852SOL    HW289520   7.402  10.962   9.033  1.8335 -0.8359 -0.8341
27853SOL     OW89521   0.735   9.634   3.808  0.0231 -0.5364 -0.1031
27853SOL    HW189522   0.697   9.582   3.880  2.2382 -3.3089 -0.7400
27853SOL    HW289523   0.690   9.603   3.730 -0.8007  0.8244 -0.1858
27854SOL     OW89524  12.479   7.457   1.102 -0.6592  0.1476 -0.0441
27854SOL    HW189525  12.572   7.456   1.082 -0.2306 -0.6390  1.7436
27854SOL    HW289526  12.475   7.454   1.198 -2.5252  0.4589 -0.0612
27855SOL     OW89527   6.601   6.595   4.045 -0.0501  0.6355  0.2001
27855SOL    HW189528   6.604   6.500   4.036 -1.0905  0.6530 -0.6097
27855SOL    HW289529   6.511   6.613   4.074 -0.2533  1.4410 -0.8697
27856SOL     OW89530   6.442   4.497   7.849  0.1316 -0.0634 -0.4127
27856SOL    HW189531   6.502   4.536   7.786  0.1613 -1.4373 -1.2848
27856SOL    HW289532   6.484   4.511   7.934  1.7167 -0.9700 -0.9929
27857SOL     OW89533   7.835   0.008   1.477  0.1002  0.5930  0.1545
27857SOL    HW189534   7.775   0.050   1.539  0.5266 -0.6359  1.4612
27857SOL    HW289535   7.922   0.024   1.514  0.3707 -0.0167 -0.2068
27858SOL     OW89536   7.368   5.562  11.165  0.5570  0.1112  0.5372
27858SOL    HW189537   7.298   5.527  11.109  0.5360  0.1772  0.5224
27858SOL    HW289538   7.449   5.539  11.120  0.5249  0.6031  0.2256
27859SOL     OW89539   5.881   2.980   6.515  0.0851  0.2488 -0.2811
27859SOL    HW189540   5.850   3.023   6.435  0.8162  0.2659 -0.5579
27859SOL    HW289541   5.855   3.040   6.585 -1.2472 -0.1333 -0.4165
27860SOL     OW89542   0.450   4.347   3.383  0.0706 -0.2402 -0.1260
27860SOL    HW189543   0.390   4.343   3.458  0.1893  0.7150  0.0259
27860SOL    HW289544   0.396   4.375   3.310  0.5158  1.6681  0.2385
27861SOL     OW89545   5.658   2.036   5.466 -0.1449  0.2513 -0.6026
27861SOL    HW189546   5.650   2.086   5.548 -0.1784 -0.4658 -0.1619
27861SOL    HW289547   5.720   1.967   5.487 -1.0156 -0.6242 -0.8371
27862SOL     OW89548   6.070   1.388   8.727  0.3883 -0.5510  0.0953
27862SOL    HW189549   6.095   1.428   8.809  0.3058  0.8826 -0.5477
27862SOL    HW289550   6.001   1.325   8.750 -2.5218  2.6069  0.7571
27863SOL     OW89551   5.035   1.536   7.641 -0.1469  0.1763  0.4115
27863SOL    HW189552   5.090   1.476   7.591  0.6809  0.2225  1.2292
27863SOL    HW289553   4.978   1.480   7.694  1.3216  0.0405  1.9409
27864SOL     OW89554  10.892   2.360   0.344 -0.6319  0.3960 -0.1352
27864SOL    HW189555  10.901   2.442   0.295 -0.7678  0.4538 -0.0651
27864SOL    HW289556  10.954   2.369   0.417 -0.3517  0.2650 -0.3543
27865SOL     OW89557  10.295   3.590   9.394 -0.0793  0.5186 -0.0209
27865SOL    HW189558  10.347   3.659   9.436 -0.5823  1.1352 -0.3921
27865SOL    HW289559  10.238   3.558   9.463 -0.0551  0.6868  0.0792
27866SOL     OW89560   7.435  11.804   4.222 -0.4917  0.1485  0.1302
27866SOL    HW189561   7.415  11.817   4.129 -2.2726 -0.3594  0.4203
27866SOL    HW289562   7.525  11.837   4.231 -0.1509 -0.1070 -1.8284
27867SOL     OW89563   6.016   6.087   2.403  0.1819 -0.4089  0.0678
27867SOL    HW189564   6.048   6.166   2.359  1.5871 -2.3341 -2.6313
27867SOL    HW289565   6.005   6.114   2.495  1.7601  2.5592 -0.4829
27868SOL     OW89566   9.474   2.431  11.957  0.2785 -0.3837 -0.2705
27868SOL    HW189567   9.436   2.398  12.038  1.1607  1.1528  0.8097
27868SOL    HW289568   9.412   2.498  11.928  0.7755  0.2023  0.0133
27869SOL     OW89569   8.308   6.564  11.237 -0.3607  0.0182  0.4114
27869SOL    HW189570   8.326   6.632  11.302  4.2299 -0.6812  0.1946
27869SOL    HW289571   8.289   6.612  11.157 -0.9170  0.9700  1.0930
27870SOL     OW89572   7.167  12.130   9.659  0.0313  0.4847  0.4997
27870SOL    HW189573   7.192  12.223   9.661  0.5566  0.3590 -0.0065
27870SOL    HW289574   7.086  12.128   9.609  0.3589  0.6010 -0.0413
27871SOL     OW89575   7.949   6.362   9.112  0.4357 -0.3958 -0.2982
27871SOL    HW189576   8.020   6.426   9.121 -0.3964  0.4320  0.6779
27871SOL    HW289577   7.893   6.379   9.187 -0.8296 -0.9902 -1.0891
27872SOL     OW89578   2.802   6.909   4.162  0.0454 -0.2140  0.1728
27872SOL    HW189579   2.773   6.985   4.213 -0.5303  0.0803 -0.5716
27872SOL    HW289580   2.897   6.921   4.153 -0.1589  0.9188 -0.7111
27873SOL     OW89581   4.636   6.794   5.257  0.1761 -0.6688 -0.2828
27873SOL    HW189582   4.646   6.795   5.353 -0.1021 -0.6932 -0.2542
27873SOL    HW289583   4.707   6.850   5.226 -0.2653  0.0543 -0.0164
27874SOL     OW89584  10.881   4.036   8.852 -0.0584  0.3268  0.1305
27874SOL    HW189585  10.929   3.971   8.903  1.2543  1.0007 -0.2078
27874SOL    HW289586  10.848   3.987   8.776 -0.2486 -0.2257  0.5630
27875SOL     OW89587   4.968  11.902   2.174 -0.0092 -0.3245 -0.0001
27875SOL    HW189588   5.062  11.900   2.158 -0.1038 -1.1562 -0.4917
27875SOL    HW289589   4.933  11.948   2.097 -0.0481 -0.4657 -0.0675
27876SOL     OW89590   9.913   9.797   3.598  0.1378 -0.2180  0.1506
27876SOL    HW189591   9.980   9.739   3.562 -0.1433 -0.7457  0.4710
27876SOL    HW289592   9.895   9.761   3.685 -0.5309 -0.0542  0.0804
27877SOL     OW89593  10.780   2.706   8.849 -0.2304  0.0880 -0.3797
27877SOL    HW189594  10.874   2.718   8.856 -0.1834 -0.5333  0.0877
27877SOL    HW289595  10.756   2.749   8.767  0.5644 -0.3433 -0.8462
27878SOL     OW89596   9.622   6.566   1.135 -0.0096  0.2558 -0.5828
27878SOL    HW189597   9.539   6.520   1.120  0.6836 -1.6084  0.9133
27878SOL    HW289598   9.665   6.564   1.049 -0.6250 -0.6477 -0.8927
27879SOL     OW89599   2.015  11.257   0.069 -0.4165 -0.7595  0.4246
27879SOL    HW189600   2.084  11.195   0.047 -0.4994 -0.4485 -0.7314
27879SOL    HW289601   2.031  11.333   0.014 -1.3587 -0.4559  0.5411
27880SOL     OW89602   3.924   7.428   2.471  0.2112 -0.7693  0.3959
27880SOL    HW189603   3.850   7.486   2.493  1.0897  0.3565  0.4858
27880SOL    HW289604   4.001   7.486   2.473  1.0941 -1.9092  0.2674
27881SOL     OW89605  11.581   1.430   6.037  0.0102  0.1808 -0.7611
27881SOL    HW189606  11.579   1.410   6.131  1.5621 -0.5691 -0.8592
27881SOL    HW289607  11.635   1.509   6.031 -0.8146  0.7534 -0.9754
27882SOL     OW89608   8.300   3.283  10.099  0.0190  0.0600 -0.3438
27882SOL    HW189609   8.373   3.344  10.104 -0.8242  0.9759  1.3720
27882SOL    HW289610   8.271   3.271  10.189 -1.6728 -0.6202 -0.9230
27883SOL     OW89611   1.290   2.756   5.341  0.1291 -0.0170  0.1656
27883SOL    HW189612   1.220   2.704   5.304 -0.2347 -0.3080  1.2373
27883SOL    HW289613   1.255   2.789   5.424  0.9208  0.6074  0.2667
27884SOL     OW89614   2.532   4.391   4.251 -0.6206 -0.3776  0.1108
27884SOL    HW189615   2.559   4.472   4.209 -0.8169 -0.5628 -0.3773
27884SOL    HW289616   2.439   4.401   4.268 -0.4983 -0.2134  0.7183
27885SOL     OW89617   6.490   3.706   5.006 -0.3622 -0.3033  0.2474
27885SOL    HW189618   6.445   3.622   5.006  0.4694 -0.7780 -0.6410
27885SOL    HW289619   6.580   3.685   5.032 -0.5717  0.6011  1.8545
27886SOL     OW89620   3.617   4.494   6.284  0.0558  0.0998 -0.2025
27886SOL    HW189621   3.629   4.487   6.189  0.4890  1.0783 -0.2314
27886SOL    HW289622   3.665   4.573   6.308 -0.4187  0.1000  0.7710
27887SOL     OW89623   0.051   4.103   9.361 -0.2117  0.0625 -0.4040
27887SOL    HW189624   0.021   4.166   9.426 -1.2127  0.6517 -1.4170
27887SOL    HW289625  -0.022   4.094   9.299  0.6074 -0.6831 -1.3064
27888SOL     OW89626   2.434   2.512   8.435  0.6100  1.1577 -0.1977
27888SOL    HW189627   2.402   2.509   8.525 -1.4714  0.7061 -0.9147
27888SOL    HW289628   2.469   2.601   8.425  0.0442  1.5084  0.7797
27889SOL     OW89629  10.305   8.740   0.258 -0.2086  0.7724 -0.4766
27889SOL    HW189630  10.353   8.794   0.320  1.5553  0.3528 -1.4048
27889SOL    HW289631  10.351   8.751   0.175 -1.1204 -0.4385 -1.1902
27890SOL     OW89632   1.104   2.606  11.160 -0.5593 -0.8492 -0.0228
27890SOL    HW189633   1.157   2.683  11.177 -0.6318 -0.1189 -2.6592
27890SOL    HW289634   1.141   2.538  11.216  0.8440  0.5508  0.8198
27891SOL     OW89635   4.624   7.765   7.655  0.1592  0.2543 -0.5607
27891SOL    HW189636   4.719   7.754   7.643  0.1810 -0.3370  0.1264
27891SOL    HW289637   4.616   7.804   7.742 -0.2090  0.7786 -0.8252
27892SOL     OW89638   2.210   5.367   5.977 -0.2706  0.0060  0.1276
27892SOL    HW189639   2.260   5.441   5.943 -0.7660  1.2241  1.9091
27892SOL    HW289640   2.268   5.291   5.964 -0.0851  0.4900 -2.4814
27893SOL     OW89641   7.309   2.674   0.578 -0.5574 -0.4217 -0.3544
27893SOL    HW189642   7.376   2.736   0.607 -0.6950  0.5845 -2.0399
27893SOL    HW289643   7.241   2.678   0.645  0.8790 -1.2310  1.2313
27894SOL     OW89644  11.299   2.389  11.468  0.5203 -0.7054 -0.1179
27894SOL    HW189645  11.332   2.379  11.557 -0.3172 -0.0815  0.2815
27894SOL    HW289646  11.230   2.456  11.476  0.1949 -0.9010 -1.1701
27895SOL     OW89647   0.937   1.594  12.128 -0.0434  0.1576 -0.5459
27895SOL    HW189648   1.026   1.629  12.119 -0.1586  1.1911  1.6364
27895SOL    HW289649   0.882   1.655  12.079  0.1311  1.2733  0.5998
27896SOL     OW89650   8.223   7.659   5.855  0.0207  0.0565  0.3831
27896SOL    HW189651   8.147   7.695   5.809  0.4646  1.2895  0.5674
27896SOL    HW289652   8.201   7.566   5.868 -0.6457 -0.0408 -1.1793
27897SOL     OW89653   3.223  11.354   9.659  0.5697  0.3042  0.5444
27897SOL    HW189654   3.129  11.344   9.675  0.4641 -3.2103 -1.2374
27897SOL    HW289655   3.229  11.403   9.577  0.2921  0.3124  0.5291
27898SOL     OW89656   9.279  10.022   0.231  0.5600  0.0380 -0.1142
27898SOL    HW189657   9.245  10.003   0.318  0.4040 -0.9319 -0.3766
27898SOL    HW289658   9.336  10.098   0.244  0.1176  0.2410  0.7342
27899SOL     OW89659   0.335   9.917   2.655 -0.8067 -0.5220 -0.5263
27899SOL    HW189660   0.299   9.932   2.568 -1.6666  3.1328  0.2883
27899SOL    HW289661   0.272   9.859   2.697 -0.3571 -2.3772 -2.2599
27900SOL     OW89662  11.451   3.749   6.324  0.3840 -0.2774  0.6327
27900SOL    HW189663  11.538   3.757   6.286  0.3120 -1.0818  0.2755
27900SOL    HW289664  11.459   3.787   6.411  1.4163 -1.4303  1.0689
27901SOL     OW89665   5.199   8.327  10.807 -0.3700 -0.2179  0.0869
27901SOL    HW189666   5.264   8.266  10.771  0.0916  0.0560  0.4391
27901SOL    HW289667   5.241   8.363  10.885 -1.2342 -0.5666  0.7215
27902SOL     OW89668   5.693   2.172   8.949 -0.0997 -0.8793 -0.1838
27902SOL    HW189669   5.711   2.132   9.034 -2.5489  2.5362  2.2201
27902SOL    HW289670   5.601   2.154   8.933 -0.1023 -0.0377 -1.2520
27903SOL     OW89671   9.063  11.970   7.217 -0.1675  0.1102  0.3324
27903SOL    HW189672   9.153  11.947   7.192 -0.2384  0.2669 -0.0660
27903SOL    HW289673   9.025  11.887   7.246 -0.4968 -0.3667 -1.3300
27904SOL     OW89674   7.623  12.015   2.835  0.2855 -0.3443 -0.2442
27904SOL    HW189675   7.600  11.939   2.781 -1.2454  0.1513 -0.3528
27904SOL    HW289676   7.642  12.084   2.772  0.3915 -0.2836 -0.1462
27905SOL     OW89677   0.200   3.920   8.896 -0.1361  0.1278 -0.0721
27905SOL    HW189678   0.170   3.879   8.814  0.1877  0.7198 -0.4892
27905SOL    HW289679   0.282   3.874   8.917 -1.4666 -1.8220  1.3170
27906SOL     OW89680   7.230   0.492   2.624  0.0022  0.2226  0.1953
27906SOL    HW189681   7.276   0.551   2.683  1.5196  0.0259 -0.7330
27906SOL    HW289682   7.207   0.416   2.678  0.3690  0.5323  0.7916
27907SOL     OW89683   1.113   0.217  10.150  0.1665 -0.1457  0.7487
27907SOL    HW189684   1.177   0.154  10.118 -0.5247 -1.0881  1.1939
27907SOL    HW289685   1.153   0.254  10.228  1.9187  2.2569 -1.1224
27908SOL     OW89686   9.362   4.275   1.528 -0.2400 -0.7778  0.3594
27908SOL    HW189687   9.428   4.336   1.493  0.0245  0.0133  2.1161
27908SOL    HW289688   9.408   4.228   1.597 -1.4102 -0.4221  1.4154
27909SOL     OW89689   6.527   1.445   8.189  0.2230  0.1132  0.1690
27909SOL    HW189690   6.448   1.446   8.244  1.4688  0.0938  2.0521
27909SOL    HW289691   6.515   1.518   8.129 -2.2619 -1.2635 -1.1986
27910SOL     OW89692   0.263   7.247   5.478  0.3694  0.3692  0.0812
27910SOL    HW189693   0.258   7.272   5.385  0.8293 -0.1339 -0.0904
27910SOL    HW289694   0.235   7.156   5.479  1.2560  0.0828  0.2877
27911SOL     OW89695   5.885   9.585   2.764  0.1267 -0.3508 -0.3891
27911SOL    HW189696   5.808   9.610   2.816 -0.5704 -0.8615 -1.1447
27911SOL    HW289697   5.919   9.668   2.730  0.7782  0.0172  1.1175
27912SOL     OW89698   1.133   5.430   3.636  0.3631  0.2827 -0.8930
27912SOL    HW189699   1.078   5.387   3.702  1.7598  0.6839  0.5823
27912SOL    HW289700   1.180   5.358   3.594  0.5460  0.1396 -0.4428
27913SOL     OW89701   2.728   9.928   7.885  0.1251 -0.3690 -0.0969
27913SOL    HW189702   2.742   9.888   7.799  1.6095 -1.9828  0.8177
27913SOL    HW289703   2.686   9.860   7.937 -1.2181  0.7585  0.3567
27914SOL     OW89704   1.828   8.782   9.806 -0.2534  0.1504 -0.1537
27914SOL    HW189705   1.799   8.757   9.894 -0.5258 -1.1916 -0.6006
27914SOL    HW289706   1.910   8.829   9.821 -0.4048  0.1383  0.8303
27915SOL     OW89707   5.299   1.944   7.986 -0.1821 -0.5252 -0.6645
27915SOL    HW189708   5.276   1.986   7.903 -2.5906 -1.3754 -0.5048
27915SOL    HW289709   5.383   1.902   7.969  0.4987  1.2424 -1.9394
27916SOL     OW89710  12.284   2.016   9.371  0.2320 -0.5791 -0.0809
27916SOL    HW189711  12.297   2.058   9.287 -1.1811  2.5178  1.0932
27916SOL    HW289712  12.190   2.028   9.389  0.6754 -0.2706  2.3164
27917SOL     OW89713   6.173   5.515   9.325  0.4743 -0.1874 -0.0277
27917SOL    HW189714   6.146   5.478   9.240 -0.6040 -1.5424  0.8572
27917SOL    HW289715   6.117   5.592   9.335  0.0165 -0.4898 -0.1890
27918SOL     OW89716  12.369   1.684   2.991 -0.0142  0.1086 -0.0035
27918SOL    HW189717  12.335   1.601   3.024 -1.6381  0.7696  0.0520
27918SOL    HW289718  12.415   1.661   2.910  0.3063 -0.9355  0.4606
27919SOL     OW89719  11.267   5.959   2.111 -0.7885  0.1097 -0.1169
27919SOL    HW189720  11.279   5.880   2.163 -1.7891  0.0789  0.0873
27919SOL    HW289721  11.206   6.013   2.162 -2.6512 -0.3826 -1.7010
27920SOL     OW89722   2.436   0.936  12.084 -0.5860  0.0207 -0.7328
27920SOL    HW189723   2.472   0.848  12.088  0.0332  0.3109  0.5733
27920SOL    HW289724   2.360   0.933  12.142 -0.5049  0.3681 -0.6067
27921SOL     OW89725  10.702  11.228   2.864 -0.5099  0.0803  0.2720
27921SOL    HW189726  10.612  11.196   2.866  0.0545 -1.5676  0.9020
27921SOL    HW289727  10.699  11.312   2.910 -1.8966  0.6208 -0.7213
27922SOL     OW89728   0.039   7.213   6.279  0.3752  0.0763 -0.3543
27922SOL    HW189729  -0.038   7.267   6.264  0.1977  0.4435  1.5895
27922SOL    HW289730   0.011   7.124   6.259 -0.8065  0.1119  0.9847
27923SOL     OW89731   2.198  11.254   4.471  0.0318 -1.1654 -0.5974
27923SOL    HW189732   2.121  11.277   4.420  0.2479 -3.6400 -2.1846
27923SOL    HW289733   2.272  11.282   4.417  0.2793 -0.3561  0.1362
27924SOL     OW89734  10.992   0.562   5.494  0.4602  0.1894  0.3794
27924SOL    HW189735  11.056   0.547   5.563  1.0529  0.7349 -0.0352
27924SOL    HW289736  10.912   0.587   5.540  0.0157 -2.0944  0.9980
27925SOL     OW89737  12.132   7.904  11.070  0.0962 -0.3026 -0.3023
27925SOL    HW189738  12.149   7.871  10.982  1.4413  0.5503 -0.3852
27925SOL    HW289739  12.218   7.907  11.112 -0.3591  0.4902  0.6120
27926SOL     OW89740  11.747   9.770   7.516 -1.0282 -0.5073  0.4241
27926SOL    HW189741  11.679   9.707   7.489 -1.1102  0.0639 -0.7564
27926SOL    HW289742  11.715   9.855   7.485  0.2647 -0.2353 -0.2265
27927SOL     OW89743   2.051   7.150   0.936  0.4614  0.3497  0.0363
27927SOL    HW189744   1.967   7.133   0.894 -0.3701  3.9084 -0.0146
27927SOL    HW289745   2.109   7.175   0.864  1.5637 -1.7289  0.1162
27928SOL     OW89746  11.031   7.856   5.751 -0.4137 -0.0420  0.5328
27928SOL    HW189747  11.027   7.937   5.699  0.1621  0.5833  1.4387
27928SOL    HW289748  11.096   7.874   5.818 -0.9384 -0.9377  1.3031
27929SOL     OW89749   9.270  10.693   1.435 -0.1647  0.3256  0.2500
27929SOL    HW189750   9.311  10.635   1.371 -0.4127  0.7069 -0.2631
27929SOL    HW289751   9.191  10.725   1.391  0.6164  2.0458  0.0282
27930SOL     OW89752   2.308   8.506   5.777 -0.2552  0.1050  0.4520
27930SOL    HW189753   2.260   8.430   5.809  0.6549 -0.2942  0.8906
27930SOL    HW289754   2.258   8.535   5.701  0.3187 -1.9774 -0.8008
27931SOL     OW89755  11.708   2.218   6.321  0.3807 -0.7408  0.0794
27931SOL    HW189756  11.701   2.305   6.282 -1.7404 -1.3086 -0.9474
27931SOL    HW289757  11.629   2.208   6.373  0.6863 -1.9802  0.3343
27932SOL     OW89758  10.556   1.604   7.601 -0.2411 -0.4669 -0.1577
27932SOL    HW189759  10.511   1.520   7.596 -0.3786 -0.4135  0.1562
27932SOL    HW289760  10.496   1.661   7.649  0.3682 -0.5396  0.7057
27933SOL     OW89761   3.339   2.764   0.503  0.0842 -0.2116 -0.1931
27933SOL    HW189762   3.243   2.771   0.508  0.1859  0.9943  0.1844
27933SOL    HW289763   3.363   2.819   0.429  0.6697  1.3416  1.1107
27934SOL     OW89764   8.102  10.980  12.030  0.3726  0.3072  0.3261
27934SOL    HW189765   8.139  10.898  11.997  0.2661  0.2463  0.3583
27934SOL    HW289766   8.055  11.017  11.955  1.4298  0.9338 -0.0519
27935SOL     OW89767  10.018   7.394  11.608  0.3751 -0.1232  1.3374
27935SOL    HW189768  10.015   7.313  11.557 -1.2320  0.4488  0.4638
27935SOL    HW289769  10.102   7.434  11.586  0.4442 -0.7311  0.4676
27936SOL     OW89770   3.840   8.029  12.154  0.0283 -0.2145 -0.1726
27936SOL    HW189771   3.824   7.949  12.104 -0.3316 -1.9362  2.5328
27936SOL    HW289772   3.775   8.028  12.224 -1.0854  3.3659 -0.9510
27937SOL     OW89773   4.864  12.230   2.859  0.1703 -0.5678 -0.0195
27937SOL    HW189774   4.939  12.228   2.918 -0.2059 -1.3295  0.4329
27937SOL    HW289775   4.887  12.168   2.789  1.1859  1.2540 -1.4192
27938SOL     OW89776   0.191   9.028   6.484 -0.2612  0.4150  0.2236
27938SOL    HW189777   0.174   8.975   6.405  1.7534 -0.6907  0.4762
27938SOL    HW289778   0.105   9.065   6.506 -1.2275 -0.6533 -1.4761
27939SOL     OW89779   9.793  10.699   3.022  0.0306  0.6345  0.3915
27939SOL    HW189780   9.703  10.670   3.031 -0.2640  1.3209 -0.2758
27939SOL    HW289781   9.845  10.630   3.065 -0.7268 -0.2931 -0.1578
27940SOL     OW89782   2.397   1.613   3.235 -0.1859 -0.6280 -0.4656
27940SOL    HW189783   2.379   1.698   3.275 -0.0755 -0.6378 -0.3932
27940SOL    HW289784   2.486   1.622   3.200  0.1924 -1.0204  0.3628
27941SOL     OW89785   1.844   6.240  10.438 -0.4230  0.2514 -0.3485
27941SOL    HW189786   1.899   6.164  10.420  0.7702  0.4531  2.1536
27941SOL    HW289787   1.759   6.204  10.462  0.6060 -0.4971  2.5338
27942SOL     OW89788  11.943   4.255   4.689 -0.7232  0.3448 -0.3771
27942SOL    HW189789  12.019   4.197   4.690  0.4379  1.8168 -0.5039
27942SOL    HW289790  11.906   4.247   4.777  0.1287  0.3216 -0.0150
27943SOL     OW89791   6.989  12.005   4.045  0.0773 -0.2765  0.1369
27943SOL    HW189792   6.933  12.063   3.994  1.8425  0.6825 -0.7975
27943SOL    HW289793   6.979  12.036   4.136 -1.3154 -0.5163  0.0946
27944SOL     OW89794   8.692   6.182   9.150  0.1160  0.4006 -0.2888
27944SOL    HW189795   8.627   6.170   9.219  1.5304 -0.8146  0.9009
27944SOL    HW289796   8.659   6.133   9.075 -0.3554 -0.1436  0.2766
27945SOL     OW89797   8.354   2.294   4.463  0.0026 -1.0514 -0.5070
27945SOL    HW189798   8.299   2.347   4.521  0.5933 -1.4347  0.4296
27945SOL    HW289799   8.420   2.355   4.431  1.7523 -1.5102  1.9430
27946SOL     OW89800  11.329   1.537  11.783 -0.5270 -0.3801  0.2174
27946SOL    HW189801  11.259   1.601  11.771  1.2772  1.8549  0.7482
27946SOL    HW289802  11.314   1.500  11.870 -0.6511  0.6884  0.6760
27947SOL     OW89803   7.743  10.864  12.277  0.4313 -0.2392  0.3056
27947SOL    HW189804   7.772  10.955  12.272  0.4926 -0.3365 -1.5286
27947SOL    HW289805   7.663  10.861  12.225 -1.5851 -0.5347  3.1781
27948SOL     OW89806  10.356   3.367   6.661 -0.3436  0.1053 -0.0173
27948SOL    HW189807  10.294   3.300   6.690  0.1769 -0.5808 -0.4649
27948SOL    HW289808  10.396   3.400   6.742 -1.1318  0.4114  0.2577
27949SOL     OW89809   0.707   9.376  11.406 -0.5027 -0.2586 -0.0561
27949SOL    HW189810   0.660   9.400  11.326 -0.6859  0.9779  0.3924
27949SOL    HW289811   0.762   9.452  11.425 -1.4108  0.0202  1.6805
27950SOL     OW89812  11.570   7.611   3.707 -0.5637  0.8093 -0.1842
27950SOL    HW189813  11.579   7.516   3.701  0.0579  0.7270  1.6343
27950SOL    HW289814  11.479   7.627   3.684 -0.3479 -0.0590 -1.8680
27951SOL     OW89815   0.002   2.246   0.053  0.2462  0.4155 -0.3929
27951SOL    HW189816  -0.050   2.168   0.072 -0.9656  1.4104  0.5527
27951SOL    HW289817   0.089   2.226   0.089 -0.7867  0.5157  2.4112
27952SOL     OW89818   1.618   2.906   2.523 -0.5811  0.0160  0.7864
27952SOL    HW189819   1.647   2.980   2.470  0.5924 -1.1885 -0.3584
27952SOL    HW289820   1.543   2.871   2.475  1.0914 -1.6930 -0.8076
27953SOL     OW89821   9.646   8.901   6.519  0.8725  0.1615 -0.6171
27953SOL    HW189822   9.596   8.980   6.542  0.0522  0.3219 -2.7294
27953SOL    HW289823   9.591   8.829   6.550  0.0557  0.3791 -1.5007
27954SOL     OW89824  10.263  11.246   2.005  0.0050 -0.0905 -0.3068
27954SOL    HW189825  10.287  11.241   1.913  0.2168  2.0116 -0.4205
27954SOL    HW289826  10.167  11.253   2.004  0.1128  2.0760 -0.5662
27955SOL     OW89827  11.841   5.189   2.902  0.0652  0.5607 -0.3148
27955SOL    HW189828  11.889   5.251   2.847 -0.9036 -0.5397 -2.4998
27955SOL    HW289829  11.772   5.242   2.943 -0.0468  1.1572 -1.2384
27956SOL     OW89830   6.330   8.976   8.666 -0.0872  0.2691 -0.0224
27956SOL    HW189831   6.260   9.041   8.668 -0.4235  0.0073 -1.8773
27956SOL    HW289832   6.344   8.958   8.573  2.2525  0.0997  0.3030
27957SOL     OW89833   4.210  12.145   2.162 -0.4175  0.6741  0.0796
27957SOL    HW189834   4.210  12.182   2.074 -0.3370  1.5777  0.4535
27957SOL    HW289835   4.298  12.163   2.196  0.3085 -1.5743 -0.4191
27958SOL     OW89836   0.966   2.383   9.436 -0.2545  0.4338 -0.0372
27958SOL    HW189837   1.002   2.335   9.510  0.4867 -0.1914 -0.7808
27958SOL    HW289838   1.040   2.431   9.400 -0.7291  1.1716 -0.0418
27959SOL     OW89839  10.645   8.471   1.111 -0.2728  0.3436  0.1229
27959SOL    HW189840  10.670   8.382   1.085 -0.4070  0.1609  0.5991
27959SOL    HW289841  10.637   8.519   1.029  2.2305  0.5848 -0.0571
27960SOL     OW89842  12.445   7.580  11.237  0.1246  0.0116 -0.2468
27960SOL    HW189843  12.453   7.519  11.310 -0.8497  0.0246 -0.1245
27960SOL    HW289844  12.534   7.613  11.224  0.5552 -0.9895  0.0625
27961SOL     OW89845   4.629   3.858   7.541 -0.4566 -0.1370  0.3073
27961SOL    HW189846   4.716   3.873   7.577 -0.9250 -0.9573  1.8825
27961SOL    HW289847   4.579   3.936   7.564 -0.5588 -0.3505  0.8188
27962SOL     OW89848  11.679   3.941   7.476 -0.3015  0.0133 -0.1077
27962SOL    HW189849  11.634   4.020   7.505 -0.3324 -0.0317 -0.0331
27962SOL    HW289850  11.766   3.971   7.449 -0.7049  0.2668 -1.2114
27963SOL     OW89851   7.950   0.725   4.736 -0.1507 -0.5198  0.0658
27963SOL    HW189852   7.957   0.758   4.825 -0.1227  1.1205 -0.5232
27963SOL    HW289853   8.034   0.682   4.720 -0.1715 -0.8740  0.8261
27964SOL     OW89854   9.629   8.050   8.611 -0.0226  0.0977  0.2146
27964SOL    HW189855   9.721   8.064   8.590  0.0527  0.2185  0.6268
27964SOL    HW289856   9.602   8.131   8.654 -0.5036  0.3334 -0.5110
27965SOL     OW89857   9.888   5.225   8.390  0.3688 -0.0458  0.3123
27965SOL    HW189858   9.969   5.268   8.363  0.7369 -0.1589  1.1831
27965SOL    HW289859   9.913   5.134   8.406 -0.3245 -0.5194 -1.1493
27966SOL     OW89860   9.657   5.915   8.907  0.3265 -0.1552  0.3908
27966SOL    HW189861   9.628   5.946   8.992 -0.0112  1.8786 -0.4216
27966SOL    HW289862   9.750   5.938   8.902  0.4600 -0.6791  0.3794
27967SOL     OW89863   8.631   6.637   1.824  0.0405  0.2823 -0.6454
27967SOL    HW189864   8.656   6.725   1.797 -0.3658  0.4189 -0.5861
27967SOL    HW289865   8.545   6.623   1.786  0.6144 -0.5672 -1.6776
27968SOL     OW89866   6.345  10.956   0.552  0.0060 -0.3197 -0.1787
27968SOL    HW189867   6.253  10.985   0.557 -1.3290 -3.6758 -2.0066
27968SOL    HW289868   6.381  11.004   0.478 -0.6492  0.0846 -0.2455
27969SOL     OW89869   6.616   5.977   6.625 -0.0757 -0.8954 -0.3544
27969SOL    HW189870   6.657   6.028   6.695 -2.0303  1.2435 -0.6555
27969SOL    HW289871   6.667   5.998   6.547 -0.0333 -0.4834 -0.2175
27970SOL     OW89872   5.809   2.204   9.711  0.1116 -0.2709  0.1235
27970SOL    HW189873   5.795   2.264   9.785  0.1856 -2.8533  2.3912
27970SOL    HW289874   5.726   2.156   9.703  1.3523 -2.8098  1.3260
27971SOL     OW89875   8.562   4.231  10.280 -0.8547  0.7788 -0.3143
27971SOL    HW189876   8.531   4.316  10.311 -1.9000  0.6041 -0.8344
27971SOL    HW289877   8.658   4.235  10.290 -0.8525  2.1491 -0.6878
27972SOL     OW89878   7.318   9.462   5.752  0.2301  0.4593  0.3336
27972SOL    HW189879   7.292   9.530   5.691 -0.9355 -0.4344 -0.2025
27972SOL    HW289880   7.375   9.404   5.702 -1.5143 -0.8208 -0.2474
27973SOL     OW89881   2.967   0.156   6.876 -0.4258  0.2282 -0.3560
27973SOL    HW189882   2.950   0.170   6.969 -1.6293  1.7686 -0.7817
27973SOL    HW289883   2.886   0.117   6.842 -0.4624  0.8523 -0.9994
27974SOL     OW89884   9.745   4.203  11.989 -0.1178 -0.2001  0.6927
27974SOL    HW189885   9.812   4.231  11.926  0.3468 -2.5739  0.0471
27974SOL    HW289886   9.676   4.166  11.936 -0.8556 -0.0170  1.4969
27975SOL     OW89887   2.924   3.909  11.870  0.1366  0.4422 -0.1490
27975SOL    HW189888   2.966   3.987  11.835  1.4293 -0.8381 -1.6333
27975SOL    HW289889   2.830   3.928  11.864  0.4262  2.2186  0.4380
27976SOL     OW89890   2.670   2.897  12.305  0.1966  0.4261 -0.0499
27976SOL    HW189891   2.669   2.803  12.324 -0.7529  0.4705  0.1819
27976SOL    HW289892   2.599   2.909  12.241  1.2420  0.7783 -1.1776
27977SOL     OW89893   3.800   4.256   8.257  0.6692  0.2293 -0.4740
27977SOL    HW189894   3.790   4.211   8.341  1.4922 -0.4205 -0.6989
27977SOL    HW289895   3.714   4.294   8.239 -0.2339 -1.7517 -0.5434
27978SOL     OW89896  11.790   0.239  11.085  0.2827  0.1887  0.1777
27978SOL    HW189897  11.850   0.231  11.011  1.5103 -2.1712  1.3222
27978SOL    HW289898  11.816   0.320  11.128  0.9767  0.4699 -0.7319
27979SOL     OW89899   2.070   4.091   8.492  0.0972  0.1670  0.7036
27979SOL    HW189900   2.122   4.153   8.441  1.1859 -1.8473 -0.7619
27979SOL    HW289901   2.006   4.056   8.430 -0.9813  0.2956  1.6926
27980SOL     OW89902   6.649   4.663   5.101 -0.2418 -0.0089 -0.2047
27980SOL    HW189903   6.712   4.703   5.041 -1.3599  0.0309 -1.3986
27980SOL    HW289904   6.651   4.570   5.080 -1.1804  0.0996 -0.8824
27981SOL     OW89905   5.541   6.869   6.326  0.4515 -0.0729 -0.4637
27981SOL    HW189906   5.568   6.948   6.373 -1.5821  1.0247 -1.0240
27981SOL    HW289907   5.499   6.815   6.393  0.1253  0.1908 -0.4548
27982SOL     OW89908  12.313   1.519   7.192  0.4093  0.0961 -0.6671
27982SOL    HW189909  12.389   1.577   7.194  0.2940  0.2964  2.0607
27982SOL    HW289910  12.341   1.441   7.239 -0.9103 -0.0426 -0.0567
27983SOL     OW89911   0.699  10.454   0.581  0.0206 -0.2027  0.3889
27983SOL    HW189912   0.634  10.473   0.514  0.5727  0.5625  0.0708
27983SOL    HW289913   0.670  10.370   0.618 -0.6924 -0.2707 -0.2941
27984SOL     OW89914   4.665   5.445   1.544 -0.9031  0.2161 -0.3924
27984SOL    HW189915   4.702   5.533   1.555  1.6385 -0.5253 -2.0475
27984SOL    HW289916   4.648   5.415   1.633  0.5505  1.4688  0.3613
27985SOL     OW89917  10.623  12.048   5.820 -0.3900  0.0782 -0.2403
27985SOL    HW189918  10.576  11.976   5.778  0.7227 -1.0557  0.4262
27985SOL    HW289919  10.585  12.054   5.908 -0.3374  0.1830 -0.2245
27986SOL     OW89920   2.704   5.112   3.777 -0.4898 -0.2992  0.4390
27986SOL    HW189921   2.674   5.022   3.768  1.9253 -1.0356 -1.2472
27986SOL    HW289922   2.687   5.152   3.692 -2.0250  1.0921  1.3202
27987SOL     OW89923   3.724   1.204   6.177 -0.1174 -0.2978 -0.0912
27987SOL    HW189924   3.762   1.135   6.122 -0.5066 -0.7635  0.2130
27987SOL    HW289925   3.740   1.175   6.267  0.8903  0.6681  0.0591
27988SOL     OW89926   3.978   0.583   1.472 -0.1650 -0.1664 -0.5006
27988SOL    HW189927   3.969   0.609   1.564  1.7954 -0.8765 -0.0553
27988SOL    HW289928   3.902   0.622   1.429 -1.6378 -0.5635  1.5616
27989SOL     OW89929   6.476   4.598   0.027 -0.1803 -0.0837  0.2529
27989SOL    HW189930   6.419   4.671   0.052 -1.1035 -0.6329 -0.1681
27989SOL    HW289931   6.468   4.593  -0.068  1.0851  0.2227  0.1239
27990SOL     OW89932   7.845  11.938   9.170  0.0061  0.0722  0.2057
27990SOL    HW189933   7.807  11.857   9.135  0.1333 -0.2508  0.7898
27990SOL    HW289934   7.807  12.008   9.117  0.6644 -0.4373 -0.9648
27991SOL     OW89935   2.159   7.840   5.876 -0.7376 -0.0042  0.1890
27991SOL    HW189936   2.142   7.932   5.859 -0.5014 -0.0951 -0.5841
27991SOL    HW289937   2.076   7.805   5.907 -0.5255  0.7178  1.6615
27992SOL     OW89938   3.962  10.736   8.305  0.1515 -0.2124 -0.2765
27992SOL    HW189939   3.917  10.652   8.300  1.9203 -1.1920 -0.5338
27992SOL    HW289940   3.988  10.744   8.397 -1.1387  0.7080  0.0378
27993SOL     OW89941   9.142   9.121   7.174 -0.2107  0.2689 -0.4900
27993SOL    HW189942   9.213   9.065   7.142  0.2175 -0.0105  0.9116
27993SOL    HW289943   9.107   9.075   7.250 -1.6903  0.5746 -0.9459
27994SOL     OW89944   7.943   9.990   5.169  0.5050 -0.0513 -0.2606
27994SOL    HW189945   7.914  10.066   5.119  0.1453  0.1994  0.3144
27994SOL    HW289946   7.937   9.917   5.108  0.1197  0.2568 -0.5982
27995SOL     OW89947   9.784  10.794  11.985  0.0613 -0.2832  0.1705
27995SOL    HW189948   9.740  10.740  11.919 -1.6588  1.0314  0.1814
27995SOL    HW289949   9.734  10.779  12.065  0.4324  0.2517  0.5058
27996SOL     OW89950   3.191  12.429   2.514 -0.3120  0.3574 -0.2338
27996SOL    HW189951   3.155  12.458   2.431 -0.8598  1.6505  0.4383
27996SOL    HW289952   3.276  12.472   2.520  0.0073 -0.2318 -0.3955
27997SOL     OW89953   5.650   2.176   4.979 -0.1669  0.3064  0.0347
27997SOL    HW189954   5.684   2.093   5.010 -0.5931 -0.0305 -0.3772
27997SOL    HW289955   5.609   2.216   5.055 -0.7580 -0.2788  0.0305
27998SOL     OW89956  11.384   2.434   6.074  0.8619  0.1890 -0.0300
27998SOL    HW189957  11.367   2.525   6.049  0.7633  0.4276  0.8728
27998SOL    HW289958  11.366   2.384   5.994  1.5151  1.0138 -0.7072
27999SOL     OW89959   4.088  12.245   1.230  0.4544  0.5613  0.5115
27999SOL    HW189960   4.096  12.219   1.138 -1.6734 -1.2498  0.7393
27999SOL    HW289961   4.045  12.330   1.228 -0.6884 -0.0071 -0.1982
28000SOL     OW89962   7.728   3.677   6.835  0.1253 -0.7752 -0.3249
28000SOL    HW189963   7.733   3.583   6.814 -1.4346 -0.9128 -0.2231
28000SOL    HW289964   7.663   3.711   6.773 -2.0287 -0.5099  1.9269
28001SOL     OW89965  11.874   3.707  10.180 -0.0494  0.1301  0.3207
28001SOL    HW189966  11.859   3.724  10.273  0.8475  1.2429  0.2896
28001SOL    HW289967  11.958   3.750  10.161  0.7226 -1.6312 -0.5856
28002SOL     OW89968   6.139  11.346   1.119 -0.3920  0.0382  0.0432
28002SOL    HW189969   6.234  11.359   1.116 -0.1093 -1.5965  0.7112
28002SOL    HW289970   6.121  11.326   1.211 -1.5752  1.4992  0.1529
28003SOL     OW89971   6.214   4.058   8.485 -0.0733 -0.3229  0.2864
28003SOL    HW189972   6.198   3.970   8.449 -1.5050  0.2326 -0.5238
28003SOL    HW289973   6.274   4.099   8.423  0.0286 -0.4882  0.2764
28004SOL     OW89974  12.358   6.173  10.818 -0.1231  0.4809  0.0873
28004SOL    HW189975  12.270   6.193  10.788  0.5295  1.6331 -1.1478
28004SOL    HW289976  12.357   6.195  10.911 -0.9346  1.1863 -0.0757
28005SOL     OW89977   3.191   6.263   3.346  0.4510  0.2609 -0.3680
28005SOL    HW189978   3.171   6.317   3.270  1.6229  0.3896 -0.6117
28005SOL    HW289979   3.118   6.278   3.406 -0.9144 -0.4738 -1.7795
28006SOL     OW89980   9.920   3.276   3.341 -0.0339 -0.2162  0.0514
28006SOL    HW189981   9.967   3.239   3.416 -0.4986  1.6722  1.3316
28006SOL    HW289982   9.980   3.264   3.268  0.8219 -1.2870  0.8781
28007SOL     OW89983   9.426  11.748   4.329  0.1951 -0.1233 -0.1845
28007SOL    HW189984   9.399  11.658   4.349 -2.0663  0.5502  0.0546
28007SOL    HW289985   9.466  11.779   4.411 -2.1376  0.1400  0.9428
28008SOL     OW89986   6.102   2.378   0.372  0.2236 -0.0943  0.0300
28008SOL    HW189987   6.086   2.331   0.291  2.7973 -2.9214  0.9543
28008SOL    HW289988   6.196   2.397   0.370  1.0202 -2.7192  3.3644
28009SOL     OW89989   7.045  11.571   3.843 -0.4448  0.2359 -0.2423
28009SOL    HW189990   7.052  11.569   3.748  2.9800 -2.9396 -0.1260
28009SOL    HW289991   7.033  11.480   3.869 -0.6871  0.9366  2.4523
28010SOL     OW89992   3.003  11.302  10.209 -0.0841 -0.0492 -0.0965
28010SOL    HW189993   2.920  11.259  10.228 -0.0542 -1.0717 -2.0311
28010SOL    HW289994   2.983  11.364  10.139  0.5620  0.5383  0.2296
28011SOL     OW89995  12.175   4.865   0.303  0.4176 -0.2329 -0.2069
28011SOL    HW189996  12.213   4.951   0.283  0.7449  0.2027  1.9811
28011SOL    HW289997  12.251   4.810   0.325  0.0469 -0.1797  1.3431
28012SOL     OW89998  12.361   5.801   8.455  0.5908  0.3681  0.1364
28012SOL    HW189999  12.351   5.791   8.550  2.3642  1.2917  0.4744
28012SOL    HW290000  12.275   5.779   8.419 -0.3337  0.6989  2.0087
28013SOL     OW90001   8.071   3.563   1.187  0.4694 -0.5058  0.1397
28013SOL    HW190002   8.027   3.619   1.251  1.8734 -0.4516  1.0978
28013SOL    HW290003   8.027   3.478   1.196  0.5902 -0.4793  1.1338
28014SOL     OW90004  10.242   9.561   5.986  0.0009  0.3751  0.0860
28014SOL    HW190005  10.283   9.584   6.070 -0.0100  0.7032  0.0028
28014SOL    HW290006  10.152   9.591   5.995 -0.5016 -1.1753  0.6200
28015SOL     OW90007   4.250  11.359   0.251 -0.3412 -0.6131 -0.0440
28015SOL    HW190008   4.306  11.426   0.213 -0.9014  0.0017  0.1916
28015SOL    HW290009   4.230  11.392   0.339 -0.3173 -1.2722  0.2147
28016SOL     OW90010   6.722   2.226   2.572 -0.2552 -0.1493 -0.3881
28016SOL    HW190011   6.705   2.317   2.547 -3.1065 -0.4681  0.0964
28016SOL    HW290012   6.810   2.209   2.538  0.2273  2.6422 -0.8355
28017SOL     OW90013   0.233   3.370  10.468 -0.0594 -0.0649 -0.5470
28017SOL    HW190014   0.244   3.339  10.378  0.0119 -2.0949  0.1079
28017SOL    HW290015   0.142   3.348  10.490 -0.0924  0.4557 -0.1335
28018SOL     OW90016   4.404   7.138   2.769  0.7174  0.8164  0.4091
28018SOL    HW190017   4.350   7.212   2.740 -0.7735 -0.0153  0.9421
28018SOL    HW290018   4.387   7.070   2.704  2.6271  1.1173 -0.4789
28019SOL     OW90019   1.859   0.764  10.866 -0.0630  0.2103  0.2951
28019SOL    HW190020   1.840   0.858  10.872  1.1140  0.5318 -0.5977
28019SOL    HW290021   1.857   0.745  10.772  2.1096 -0.0901  0.2646
28020SOL     OW90022   4.541   8.544   0.534  0.5505  0.1152 -0.1105
28020SOL    HW190023   4.460   8.508   0.497  0.2504 -0.4738  1.0692
28020SOL    HW290024   4.557   8.623   0.483 -2.8251  2.3733  1.8981
28021SOL     OW90025   6.790   0.468   2.508  0.1587 -0.6997 -0.2340
28021SOL    HW190026   6.805   0.543   2.566 -0.5127 -2.0750  1.8376
28021SOL    HW290027   6.738   0.503   2.436 -0.1799  0.8060  0.6958
28022SOL     OW90028   6.558   1.597   6.926 -0.1663 -0.1521  0.1453
28022SOL    HW190029   6.501   1.658   6.880  0.4105  0.2425 -0.0568
28022SOL    HW290030   6.645   1.637   6.921  0.4202 -1.4820 -0.8768
28023SOL     OW90031  12.073   2.930   1.521  0.3376  0.3212 -0.5964
28023SOL    HW190032  12.104   2.994   1.585 -0.3559  0.6146 -0.5470
28023SOL    HW290033  12.137   2.936   1.449  0.4264  0.8817 -0.4793
28024SOL     OW90034   3.737   9.770   2.636  0.1198 -0.1147  0.2677
28024SOL    HW190035   3.755   9.864   2.637  0.6139 -0.2030  0.1452
28024SOL    HW290036   3.707   9.752   2.547  1.3316 -0.2992 -0.1222
28025SOL     OW90037  11.157   9.431   4.670  0.0298 -0.2268 -0.2492
28025SOL    HW190038  11.177   9.349   4.716  0.2113 -0.0794 -0.0633
28025SOL    HW290039  11.214   9.496   4.711 -1.6023  0.4569  1.0522
28026SOL     OW90040   0.742   5.749   8.282  0.2588 -0.1847 -0.2915
28026SOL    HW190041   0.760   5.722   8.372  0.5211 -1.1111 -0.6046
28026SOL    HW290042   0.659   5.706   8.260  0.8691 -1.0877 -0.9265
28027SOL     OW90043   5.540  10.811  12.431 -0.0106  0.1685 -0.2356
28027SOL    HW190044   5.479  10.874  12.471 -0.5770  0.2247 -1.1494
28027SOL    HW290045   5.487  10.732  12.419  0.7608 -0.5819  1.1181
28028SOL     OW90046  10.655  10.935  10.560 -0.4253 -0.3130 -0.0712
28028SOL    HW190047  10.691  10.949  10.472  0.2876  0.7381  0.3719
28028SOL    HW290048  10.660  11.021  10.602  0.8278 -1.1332  1.5720
28029SOL     OW90049   5.160   4.524  12.160 -0.2049 -0.2657  0.4452
28029SOL    HW190050   5.225   4.529  12.231 -0.9092  1.4548  1.0042
28029SOL    HW290051   5.211   4.536  12.080  0.2875  0.1034  0.8120
28030SOL     OW90052   3.549   9.236   6.753 -0.2238  0.2187 -0.5845
28030SOL    HW190053   3.559   9.248   6.659 -1.1361  0.5001 -0.6507
28030SOL    HW290054   3.577   9.146   6.770  1.1349  0.5425 -0.9311
28031SOL     OW90055   9.592  11.497  10.556 -0.0733 -0.0854 -0.1639
28031SOL    HW190056   9.619  11.506  10.464  2.5475 -1.0467  0.4123
28031SOL    HW290057   9.610  11.405  10.577 -1.8740 -0.2203  0.9981
28032SOL     OW90058   9.004  11.770   6.653  0.1181 -0.0364 -0.1725
28032SOL    HW190059   9.070  11.767   6.584  0.5427  2.0864  0.0650
28032SOL    HW290060   9.043  11.719   6.725  0.0677 -1.4874 -1.1345
28033SOL     OW90061   5.085   5.680   6.390  0.4056  0.1294  0.5598
28033SOL    HW190062   5.098   5.704   6.298 -1.3525 -1.0212 -0.0460
28033SOL    HW290063   5.107   5.760   6.438 -1.7410  1.8818 -1.1107
28034SOL     OW90064   4.953   9.524   1.066  0.1001 -0.3018 -0.4439
28034SOL    HW190065   4.996   9.502   1.149  0.3050 -0.4028 -0.5794
28034SOL    HW290066   4.860   9.503   1.082  0.4160 -2.2514 -0.8974
28035SOL     OW90067  11.678   8.732   5.000  0.0672  0.4301 -0.2439
28035SOL    HW190068  11.752   8.681   5.034 -1.0700 -1.2857 -0.2475
28035SOL    HW290069  11.720   8.800   4.946  1.6525 -0.6369 -0.4534
28036SOL     OW90070  10.451   2.241   8.302  0.2707  0.2916 -0.0904
28036SOL    HW190071  10.489   2.328   8.297  2.1829 -0.2485  2.7183
28036SOL    HW290072  10.513   2.184   8.256  0.9358 -0.0297  1.1450
28037SOL     OW90073   4.574   2.559   4.246 -0.1029  0.0439  0.5812
28037SOL    HW190074   4.588   2.568   4.340 -0.6685 -3.1197  1.0859
28037SOL    HW290075   4.481   2.576   4.234  0.0681  0.9689  0.4671
28038SOL     OW90076   9.373  10.503   1.019  0.4023 -0.4670  0.0363
28038SOL    HW190077   9.360  10.595   0.995  1.6856 -0.0061  0.9499
28038SOL    HW290078   9.357  10.455   0.938  0.0405  0.5978 -0.5498
28039SOL     OW90079   6.519   9.416   2.842  0.2264 -0.2057 -0.3450
28039SOL    HW190080   6.527   9.327   2.878 -0.4239 -0.1592 -0.0690
28039SOL    HW290081   6.456   9.459   2.900 -0.2920  0.0948 -1.1141
28040SOL     OW90082  11.094  11.684  10.811 -0.4284 -0.6531  0.5263
28040SOL    HW190083  11.055  11.715  10.729 -1.6234 -0.4651  1.1455
28040SOL    HW290084  11.054  11.598  10.825  0.7202 -1.2540  0.2853
28041SOL     OW90085   8.487   4.559  11.555 -0.1417 -0.6203 -0.0459
28041SOL    HW190086   8.437   4.557  11.474 -0.4543  1.1816  0.0621
28041SOL    HW290087   8.426   4.530  11.622 -0.1085 -1.3713 -0.3317
28042SOL     OW90088   4.282   4.239   4.532 -0.7619 -0.1000 -0.7081
28042SOL    HW190089   4.327   4.160   4.563  1.5515  1.1595 -0.6883
28042SOL    HW290090   4.189   4.219   4.543 -0.1910 -1.9863  1.3414
28043SOL     OW90091   0.436   1.587   9.820 -0.4211  0.4761 -0.5009
28043SOL    HW190092   0.349   1.548   9.817 -0.2387  0.0137  0.0922
28043SOL    HW290093   0.448   1.627   9.734 -1.0163  0.1075 -0.7552
28044SOL     OW90094   0.377   1.151   0.760 -0.2751 -0.1326  0.0488
28044SOL    HW190095   0.355   1.068   0.719 -0.7165  0.2800 -0.5767
28044SOL    HW290096   0.421   1.127   0.842 -1.5558 -0.9986  0.5232
28045SOL     OW90097   8.290   3.524   7.351  0.0478  0.4532  0.0269
28045SOL    HW190098   8.229   3.532   7.424 -0.3147 -0.4246 -0.1660
28045SOL    HW290099   8.273   3.601   7.297 -2.5733 -0.9067 -1.2498
28046SOL     OW90100   0.289  11.336   4.990 -0.2647  0.1431  0.0480
28046SOL    HW190101   0.255  11.341   4.901  0.6633  0.5510 -0.2923
28046SOL    HW290102   0.331  11.250   4.996  0.7045  0.5749 -0.3021
28047SOL     OW90103   5.779   1.354   3.579 -0.0214  0.1860 -0.2820
28047SOL    HW190104   5.859   1.374   3.531 -0.3432  0.5218 -0.6796
28047SOL    HW290105   5.793   1.394   3.665 -0.3842  1.5955 -0.8478
28048SOL     OW90106   4.653   1.536  11.171  0.3269 -0.3325 -0.0824
28048SOL    HW190107   4.561   1.518  11.153 -0.1942  0.6321  1.4363
28048SOL    HW290108   4.669   1.493  11.255  0.8108  0.8244  0.4343
28049SOL     OW90109   7.698   9.924   9.347 -0.0679 -0.4602  0.5680
28049SOL    HW190110   7.740   9.995   9.396  0.2563 -0.1139 -0.2036
28049SOL    HW290111   7.606   9.950   9.342  0.2200  0.4515 -0.6050
28050SOL     OW90112   1.043  11.966   2.922  0.0402 -0.2337 -0.3272
28050SOL    HW190113   1.082  11.944   2.837 -0.3404  0.1959 -0.6159
28050SOL    HW290114   1.020  12.059   2.915 -0.2074 -0.2536  0.1613
28051SOL     OW90115   8.988   3.696   1.825 -0.3891 -0.1930  0.5644
28051SOL    HW190116   8.909   3.683   1.772 -0.6474  0.3863  0.7995
28051SOL    HW290117   9.051   3.633   1.790 -0.0500  1.1669 -1.4190
28052SOL     OW90118   7.746  11.981   5.935 -0.5034  0.5360  0.1978
28052SOL    HW190119   7.825  12.028   5.960 -0.8280  1.7277 -0.8768
28052SOL    HW290120   7.683  12.050   5.915 -0.9267 -0.3257 -1.6473
28053SOL     OW90121   8.101   0.315   2.216 -0.3310  0.1691  0.1339
28053SOL    HW190122   8.127   0.236   2.262  0.3101  0.7188  0.7361
28053SOL    HW290123   8.178   0.371   2.217 -0.7337  0.7588 -0.3935
28054SOL     OW90124   3.427   2.416   3.649  0.5896 -0.3162 -1.0387
28054SOL    HW190125   3.402   2.413   3.557 -1.2094 -0.5012 -0.5823
28054SOL    HW290126   3.361   2.472   3.691 -0.6055 -2.7927  0.6551
28055SOL     OW90127   9.676  10.522   9.545  0.0446 -0.0346 -0.1527
28055SOL    HW190128   9.631  10.592   9.497  0.5033  0.5609  0.2630
28055SOL    HW290129   9.624  10.510   9.625  1.6824  2.1436  1.3863
28056SOL     OW90130   5.328   4.376  11.844 -0.1961  0.2279 -0.0431
28056SOL    HW190131   5.310   4.470  11.841 -0.5381  0.1471 -1.5819
28056SOL    HW290132   5.241   4.335  11.840 -0.0259 -0.1474  0.0667
28057SOL     OW90133   1.187   4.282   0.960  0.7006 -0.0238  0.4056
28057SOL    HW190134   1.118   4.291   1.026  1.5204 -0.3519  1.3361
28057SOL    HW290135   1.213   4.372   0.941 -0.0860  0.1136 -0.0821
28058SOL     OW90136  10.626   0.908  10.466 -0.4045 -0.5121  0.5956
28058SOL    HW190137  10.581   0.885  10.385 -1.2920  0.4151  0.8154
28058SOL    HW290138  10.713   0.868  10.457 -0.9421 -1.5330 -0.2260
28059SOL     OW90139   2.086   2.906   9.539 -0.0640  0.1094  0.4966
28059SOL    HW190140   2.090   2.976   9.605 -1.5200  2.1916 -1.4787
28059SOL    HW290141   2.177   2.895   9.511  0.0617  2.3207 -0.1665
28060SOL     OW90142   7.579   1.400   9.096  0.0409  0.2007 -0.4141
28060SOL    HW190143   7.548   1.418   9.185  0.4988 -0.1610 -0.1753
28060SOL    HW290144   7.503   1.416   9.040  0.0483  1.5380 -0.0885
28061SOL     OW90145  10.884   7.331   3.361  0.4360  0.1616  0.2969
28061SOL    HW190146  10.867   7.246   3.403  0.0725 -0.3582 -0.8737
28061SOL    HW290147  10.941   7.377   3.423  0.7065 -0.9674  0.9117
28062SOL     OW90148   4.577   2.804  11.074  0.2835  0.0944 -0.2670
28062SOL    HW190149   4.541   2.720  11.104  0.9334 -0.2511 -0.4341
28062SOL    HW290150   4.520   2.829  11.001 -0.3147  0.1345  0.1991
28063SOL     OW90151   0.436   3.644   4.528  0.0819  0.1348  0.4797
28063SOL    HW190152   0.408   3.641   4.620 -0.5288 -0.5057  0.2771
28063SOL    HW290153   0.523   3.684   4.531 -0.5333  1.5153  1.1922
28064SOL     OW90154   2.979   7.597   7.555  0.5202  0.1587  0.1826
28064SOL    HW190155   2.901   7.609   7.610  0.0583 -0.8840 -0.2218
28064SOL    HW290156   2.953   7.633   7.470  0.9529  1.0230  0.4046
28065SOL     OW90157   7.707  10.707   4.647 -0.4997 -0.2895 -0.0228
28065SOL    HW190158   7.754  10.790   4.641  2.1324 -1.6285  0.3678
28065SOL    HW290159   7.763  10.644   4.600 -0.6131 -2.4938  2.5551
28066SOL     OW90160   9.713   9.953   7.438  0.2908  0.5323 -0.2220
28066SOL    HW190161   9.731   9.862   7.415  1.2873  0.9360 -1.0989
28066SOL    HW290162   9.794  10.000   7.418 -0.5712  1.8079 -0.9118
28067SOL     OW90163   1.077  11.793   3.198 -0.0541  0.5557 -0.6506
28067SOL    HW190164   0.990  11.782   3.160 -0.4839  0.2721  0.3674
28067SOL    HW290165   1.061  11.804   3.292  0.8900  2.3833 -0.6604
28068SOL     OW90166  12.036   1.333  12.317  0.1906  0.0047  0.1315
28068SOL    HW190167  11.967   1.312  12.254 -0.5579 -0.7849  1.1899
28068SOL    HW290168  12.042   1.429  12.314 -0.3339  0.0234 -0.6020
28069SOL     OW90169   2.645   2.363   6.572 -0.2241  0.3191 -0.6439
28069SOL    HW190170   2.652   2.311   6.493  0.4193  0.2568 -0.5462
28069SOL    HW290171   2.702   2.438   6.558  2.7621 -1.4103  1.1055
28070SOL     OW90172  10.769   8.311   6.486  0.4186  1.1600 -0.7222
28070SOL    HW190173  10.848   8.314   6.539 -0.0719 -0.4690  0.1372
28070SOL    HW290174  10.800   8.283   6.399  0.8663  1.3001 -0.6137
28071SOL     OW90175  11.701   9.442   0.670 -0.2367  0.1845 -0.1888
28071SOL    HW190176  11.738   9.356   0.654  1.3212  0.7946 -0.0342
28071SOL    HW290177  11.695   9.483   0.583 -0.2846  0.1996 -0.1792
28072SOL     OW90178  11.208   3.597   6.302 -0.5243  0.4927  0.2057
28072SOL    HW190179  11.239   3.511   6.273 -1.3224 -0.4764  2.0425
28072SOL    HW290180  11.288   3.644   6.327  0.0820  0.9963 -2.4197
28073SOL     OW90181   9.929   3.947  12.334  0.6250 -0.1491  0.0929
28073SOL    HW190182   9.986   3.916  12.263  1.5093 -0.2174  0.8172
28073SOL    HW290183   9.939   4.042  12.333  0.1935 -0.1047 -0.2341
28074SOL     OW90184   9.736   4.453   4.604 -0.0944  0.0445 -0.1742
28074SOL    HW190185   9.675   4.423   4.672 -0.0574 -0.8012 -0.5019
28074SOL    HW290186   9.707   4.408   4.525 -2.9045  4.1880 -1.8818
28075SOL     OW90187   9.728   3.940   4.276 -0.8448  0.3612 -0.3115
28075SOL    HW190188   9.718   3.921   4.183  1.4220  2.0701 -1.0042
28075SOL    HW290189   9.771   4.026   4.279 -0.1781  0.0394  2.3038
28076SOL     OW90190   4.706   6.397   4.147 -0.1258 -0.2649  0.1768
28076SOL    HW190191   4.621   6.362   4.123  0.2941 -1.6463  0.6090
28076SOL    HW290192   4.768   6.352   4.089  0.4759 -0.6510  1.0929
28077SOL     OW90193   9.741   6.205   0.502  0.3462 -0.1047  0.1362
28077SOL    HW190194   9.647   6.189   0.490  0.1567  1.4365 -0.7724
28077SOL    HW290195   9.775   6.213   0.413  1.5455 -1.5632  0.4361
28078SOL     OW90196   6.427   0.296   6.887  0.6073 -0.5539 -0.0240
28078SOL    HW190197   6.491   0.225   6.880  2.0704  0.6627  0.6344
28078SOL    HW290198   6.429   0.338   6.801  0.7770 -0.4585  0.0253
28079SOL     OW90199   3.807   0.750  11.867  0.3218 -0.1819  0.3403
28079SOL    HW190200   3.889   0.763  11.915  1.0114 -2.0477 -0.2599
28079SOL    HW290201   3.819   0.799  11.785  0.8823 -0.5118  0.2212
28080SOL     OW90202   1.222   8.610   8.468  0.7212  0.4635  0.5798
28080SOL    HW190203   1.218   8.561   8.386 -2.0323 -1.8864  1.9432
28080SOL    HW290204   1.183   8.695   8.447  0.4267  0.0496 -0.6295
28081SOL     OW90205  11.679   0.572   0.269  0.0942 -0.2974  0.2657
28081SOL    HW190206  11.690   0.593   0.361 -1.5656 -0.1696  0.4592
28081SOL    HW290207  11.677   0.657   0.225  3.2110 -0.3753 -0.2530
28082SOL     OW90208   0.455   7.656   8.605 -0.2859 -0.0021  0.0625
28082SOL    HW190209   0.523   7.646   8.539 -0.5071  1.7744 -0.4687
28082SOL    HW290210   0.425   7.567   8.621  3.8313 -1.3020  2.1927
28083SOL     OW90211  11.846   3.537   8.554 -0.5173 -0.2410 -0.2679
28083SOL    HW190212  11.915   3.510   8.615  0.0884  2.6820  0.5486
28083SOL    HW290213  11.767   3.494   8.587  0.3956 -1.3201  0.5919
28084SOL     OW90214   1.205   6.779   7.460  0.3209 -0.1004  0.0985
28084SOL    HW190215   1.211   6.826   7.543  1.0084  1.2371 -0.6575
28084SOL    HW290216   1.122   6.808   7.422 -0.4931 -1.4988  0.7413
28085SOL     OW90217   6.831  11.740   2.400 -0.4469 -0.2918 -0.1531
28085SOL    HW190218   6.868  11.654   2.382  0.5043  0.3130 -1.2556
28085SOL    HW290219   6.786  11.764   2.318  2.1063  1.6110 -1.1530
28086SOL     OW90220  10.516   5.114   0.826 -0.5190  0.2247 -0.1388
28086SOL    HW190221  10.424   5.100   0.805 -1.6132  1.0856  3.4221
28086SOL    HW290222  10.553   5.027   0.838 -1.7613 -0.1111  1.5035
28087SOL     OW90223   4.093   9.054   9.413  0.3272  0.5627  0.2480
28087SOL    HW190224   4.166   9.068   9.353 -0.7769 -0.0476 -1.3144
28087SOL    HW290225   4.053   8.972   9.383 -1.8341  1.5986  0.1209
28088SOL     OW90226   3.008  11.306  10.550  0.0055 -0.3982  0.0655
28088SOL    HW190227   3.070  11.375  10.528 -1.5233  1.5180  1.3648
28088SOL    HW290228   3.045  11.264  10.628  0.5427 -0.4922 -0.2393
28089SOL     OW90229   1.750  10.950   6.761  0.1808  0.3070 -0.5394
28089SOL    HW190230   1.789  10.889   6.697  0.4503 -1.0746  0.8738
28089SOL    HW290231   1.770  10.911   6.846 -2.1652  0.8492  0.3380
28090SOL     OW90232   2.379   2.739   8.701  0.1304 -0.4171 -0.9326
28090SOL    HW190233   2.309   2.799   8.725 -0.0912 -0.4827 -1.3934
28090SOL    HW290234   2.414   2.775   8.619  1.0869 -0.0105 -0.3745
28091SOL     OW90235   9.203   9.750   6.935 -0.4922 -0.0233  0.2777
28091SOL    HW190236   9.247   9.761   7.019 -0.5569  0.9309  0.1872
28091SOL    HW290237   9.256   9.800   6.873 -1.8640  1.4473  0.2259
28092SOL     OW90238   2.154   5.426   8.164  0.0333 -0.1688  0.1385
28092SOL    HW190239   2.158   5.430   8.068 -2.0693 -0.7498 -0.0247
28092SOL    HW290240   2.085   5.487   8.187  0.9664  0.4529  1.3669
28093SOL     OW90241   8.431   6.667   3.325 -0.3002 -0.0671 -0.6086
28093SOL    HW190242   8.497   6.735   3.309 -0.1706 -0.0245  0.0780
28093SOL    HW290243   8.456   6.628   3.409 -1.5815  0.4831  0.0726
28094SOL     OW90244  11.227   4.980   1.558 -0.7043  0.4266 -0.0106
28094SOL    HW190245  11.153   4.933   1.596 -1.3476  0.2674 -1.3854
28094SOL    HW290246  11.193   5.015   1.476  0.9679 -0.3862 -1.1043
28095SOL     OW90247   8.135  12.166   5.052 -0.2129 -0.2305 -0.3582
28095SOL    HW190248   8.171  12.251   5.077  0.0369 -0.2917 -0.5133
28095SOL    HW290249   8.169  12.150   4.964 -0.7578 -0.2054 -0.5791
28096SOL     OW90250  10.218   8.640  10.016  0.0092  0.0567  0.5903
28096SOL    HW190251  10.298   8.667  10.061  0.7256 -0.7601 -0.1444
28096SOL    HW290252  10.248   8.576   9.951 -1.3819 -1.2438  1.1559
28097SOL     OW90253   4.030   7.537   1.744  0.1758  0.2768 -0.1591
28097SOL    HW190254   3.936   7.538   1.765  0.1080  1.3418 -0.4547
28097SOL    HW290255   4.057   7.629   1.751  0.5440  0.4533 -2.8634
28098SOL     OW90256   8.518  12.314   0.232  0.1288  0.0188  0.3175
28098SOL    HW190257   8.552  12.388   0.183  0.6089 -1.6316 -2.0242
28098SOL    HW290258   8.424  12.313   0.211 -0.2442  0.9726  1.8156
28099SOL     OW90259  11.761   4.416   3.381 -0.7420  0.0365  0.0077
28099SOL    HW190260  11.783   4.483   3.446  0.1556  0.3501 -0.6076
28099SOL    HW290261  11.742   4.466   3.301 -0.5615 -0.4105 -0.3179
28100SOL     OW90262   3.761   4.424  11.935 -0.0977  0.5146  0.6576
28100SOL    HW190263   3.736   4.336  11.965 -0.7099  0.2544 -0.5768
28100SOL    HW290264   3.857   4.422  11.934 -0.1154 -0.3963 -0.0693
28101SOL     OW90265   4.024   9.955   4.517 -0.3309  0.3620  0.0954
28101SOL    HW190266   3.989   9.918   4.436  1.0079  0.4875 -0.5793
28101SOL    HW290267   3.994   9.896   4.586 -0.3425 -0.5345 -0.6589
28102SOL     OW90268  10.442   3.913   4.548 -0.1550  0.4314  0.1228
28102SOL    HW190269  10.412   4.001   4.526  2.3993  1.6353  1.0220
28102SOL    HW290270  10.403   3.896   4.634  1.7897  2.0802  1.4135
28103SOL     OW90271  11.413   2.240   0.851 -0.3000 -0.3275 -0.1116
28103SOL    HW190272  11.413   2.233   0.756  0.9899 -1.1241 -0.0744
28103SOL    HW290273  11.415   2.150   0.882  1.2411 -0.0692  0.6293
28104SOL     OW90274   5.315   1.839   3.257  0.2634  0.1637 -0.1594
28104SOL    HW190275   5.321   1.744   3.260  0.4135  0.1852  2.3450
28104SOL    HW290276   5.250   1.861   3.324 -0.6396  1.7900 -1.4943
28105SOL     OW90277   8.541  11.095   2.472  0.4105  0.4395 -0.3035
28105SOL    HW190278   8.577  11.034   2.536  0.3898 -1.3704 -1.9176
28105SOL    HW290279   8.471  11.141   2.519  1.4071  0.3147  1.3838
28106SOL     OW90280   1.871   0.054  10.510 -0.1000 -0.4521 -0.7701
28106SOL    HW190281   1.808   0.059  10.438 -1.2386 -2.1289  0.0565
28106SOL    HW290282   1.898   0.145  10.524 -1.5695  0.1869 -1.8116
28107SOL     OW90283   9.214  10.031  12.288 -0.0352  0.1362  0.5629
28107SOL    HW190284   9.139  10.007  12.343 -0.0958  1.2436  0.9912
28107SOL    HW290285   9.277  10.070  12.348  0.1901  0.7375 -0.0437
28108SOL     OW90286   5.154   4.350   8.158 -0.0364  0.2323 -0.7067
28108SOL    HW190287   5.150   4.382   8.248  0.6511 -1.4472 -0.0428
28108SOL    HW290288   5.070   4.305   8.145  0.8853 -1.8192  0.0510
28109SOL     OW90289   8.018   0.474   0.448 -0.1853  0.2165 -0.1171
28109SOL    HW190290   8.045   0.505   0.362 -0.8173 -0.4047 -0.5475
28109SOL    HW290291   7.965   0.396   0.430 -0.8637  0.4538  0.7979
28110SOL     OW90292  12.118  10.572   1.528  0.2275  0.4499 -0.2305
28110SOL    HW190293  12.058  10.586   1.455  0.9490  0.7298 -0.7764
28110SOL    HW290294  12.203  10.559   1.487  0.3001 -1.5471  0.4518
28111SOL     OW90295  11.056   5.231   5.401  0.2201  0.3159 -0.6348
28111SOL    HW190296  11.098   5.308   5.439 -0.0915  0.1482  0.0623
28111SOL    HW290297  11.034   5.257   5.312  0.2977  0.9629 -0.4669
28112SOL     OW90298   2.176   4.480   2.711  0.4151  0.3380 -0.3930
28112SOL    HW190299   2.103   4.490   2.650 -0.1535  1.6012  0.4343
28112SOL    HW290300   2.149   4.531   2.788  1.4985 -0.4638  0.5441
28113SOL     OW90301   0.137   0.290   1.329  0.2003 -0.1865 -0.2900
28113SOL    HW190302   0.048   0.288   1.362 -0.1455  2.1217 -0.8576
28113SOL    HW290303   0.128   0.283   1.234  0.5586  0.4413 -0.3826
28114SOL     OW90304   7.261   7.262   7.871  0.3833  0.3409  0.2527
28114SOL    HW190305   7.271   7.248   7.777 -0.2179  0.8795  0.0995
28114SOL    HW290306   7.346   7.298   7.898  0.9864 -0.9689  0.1583
28115SOL     OW90307   6.855   9.966   0.036  0.2864  0.1571 -0.9023
28115SOL    HW190308   6.942   9.994   0.065  0.0601  1.3386 -1.3367
28115SOL    HW290309   6.814   9.929   0.115  0.1385  2.1766  0.0202
28116SOL     OW90310   7.124   8.261   7.503  0.2955  0.3365 -0.3345
28116SOL    HW190311   7.063   8.187   7.508 -1.7199  1.9524  0.8984
28116SOL    HW290312   7.174   8.256   7.585  0.5224  0.0360 -0.4930
28117SOL     OW90313   7.424   5.690   3.912  0.2211  0.4266  0.0054
28117SOL    HW190314   7.448   5.782   3.920  0.2033  0.9043 -3.6745
28117SOL    HW290315   7.500   5.648   3.871 -0.6696 -0.6307 -0.6432
28118SOL     OW90316  10.540   2.118   7.535  0.1816  0.1739  0.4054
28118SOL    HW190317  10.521   2.151   7.623  2.6996 -0.5381  1.2937
28118SOL    HW290318  10.457   2.078   7.506 -0.3487 -0.8252  3.0349
28119SOL     OW90319  10.443   4.001   4.112 -0.5984 -0.6011 -0.1316
28119SOL    HW190320  10.522   3.959   4.146 -0.4998  0.2620  0.7565
28119SOL    HW290321  10.463   4.095   4.115 -1.9945 -0.3009  1.0283
28120SOL     OW90322   5.923   2.865   6.815 -0.4217 -0.2779 -0.2946
28120SOL    HW190323   5.896   2.956   6.812  1.2509  0.2270 -1.8478
28120SOL    HW290324   5.844   2.815   6.794 -0.4615  1.0878 -4.2409
28121SOL     OW90325  10.769  10.311   8.699 -0.1782 -0.7474 -0.3855
28121SOL    HW190326  10.864  10.301   8.704 -0.1941 -0.4893  0.8877
28121SOL    HW290327  10.756  10.403   8.675 -0.1177 -1.1935 -2.2777
28122SOL     OW90328   8.438   5.490   7.152 -0.0316 -0.2827 -0.4365
28122SOL    HW190329   8.429   5.423   7.220 -0.4824 -0.7294 -0.9320
28122SOL    HW290330   8.481   5.563   7.197  0.3894 -0.8608  0.1325
28123SOL     OW90331  12.031  12.216  11.686  0.1672 -0.4083  0.5114
28123SOL    HW190332  12.011  12.291  11.630 -0.7144 -0.0572  1.2619
28123SOL    HW290333  12.100  12.248  11.745  0.0162 -0.2847  0.6223
28124SOL     OW90334  11.456   7.505  11.461  0.1467 -0.6045 -0.2250
28124SOL    HW190335  11.466   7.575  11.526 -1.8447  0.0440 -0.5498
28124SOL    HW290336  11.449   7.550  11.377 -2.0002 -1.0643 -0.3502
28125SOL     OW90337   8.744   8.422   0.635 -0.6673 -0.2085  0.0686
28125SOL    HW190338   8.800   8.382   0.569  1.7248  1.9466  0.6148
28125SOL    HW290339   8.744   8.515   0.613 -1.4195  0.2826  1.9433
28126SOL     OW90340   2.549   7.634   9.300 -0.0242  0.3295 -0.0035
28126SOL    HW190341   2.538   7.579   9.222  0.5812 -0.1429  0.2358
28126SOL    HW290342   2.488   7.707   9.287 -0.1587  0.0883 -0.7665
28127SOL     OW90343   0.912   0.306   0.262 -0.0514 -0.3180 -0.7520
28127SOL    HW190344   0.839   0.289   0.202 -1.6308  0.1752  0.9484
28127SOL    HW290345   0.901   0.241   0.332  0.6828  0.2623 -0.0806
28128SOL     OW90346   8.819   4.333   3.390 -0.7778  0.1195 -0.0016
28128SOL    HW190347   8.821   4.298   3.301  1.7751 -0.9969  0.4022
28128SOL    HW290348   8.806   4.427   3.378  0.9793  0.2124 -1.7019
28129SOL     OW90349  12.281   6.511   5.288 -0.4561  0.0859  0.2933
28129SOL    HW190350  12.246   6.594   5.321 -1.1104 -0.3764  0.7954
28129SOL    HW290351  12.229   6.444   5.332 -1.2986 -0.5725 -1.5632
28130SOL     OW90352   5.992   7.728   1.264  0.0138  0.0440  0.2995
28130SOL    HW190353   6.085   7.739   1.285  0.0201  0.5018  0.0620
28130SOL    HW290354   5.958   7.672   1.333 -0.0313  1.7541  1.7303
28131SOL     OW90355   9.263   4.581  12.208 -0.2249 -0.1688  0.2907
28131SOL    HW190356   9.357   4.589  12.191 -0.1320  0.5226  1.0848
28131SOL    HW290357   9.258   4.543  12.295 -0.6712  0.8336  0.7103
28132SOL     OW90358  12.466  10.923   6.769 -0.1240 -0.0770 -0.2525
28132SOL    HW190359  12.484  10.981   6.843 -0.5696  1.5299 -1.3616
28132SOL    HW290360  12.518  10.844   6.788 -0.8219 -0.0510  2.1312
28133SOL     OW90361   6.408   1.142  10.665 -0.1570 -0.6350 -0.1520
28133SOL    HW190362   6.401   1.162  10.759 -0.7931 -0.4816 -0.2231
28133SOL    HW290363   6.501   1.147  10.646 -0.1382  0.7911  0.1660
28134SOL     OW90364   4.056   3.337  12.271 -0.1627  0.3028 -0.0837
28134SOL    HW190365   4.119   3.394  12.317  0.9525 -0.6544 -0.3770
28134SOL    HW290366   4.085   3.339  12.180 -0.9993  0.3958 -0.3505
28135SOL     OW90367   7.525   0.216   5.139 -0.0214 -0.0902  0.2915
28135SOL    HW190368   7.520   0.200   5.045  0.8719  0.3875  0.1441
28135SOL    HW290369   7.551   0.308   5.146  0.5561 -0.2890  0.9844
28136SOL     OW90370   7.276   6.003  11.067  0.4485 -0.1603  0.0913
28136SOL    HW190371   7.215   6.076  11.072  0.1261 -0.4162 -0.0822
28136SOL    HW290372   7.221   5.925  11.057  0.8197 -0.2919 -1.1641
28137SOL     OW90373  11.686  10.235   9.157 -0.5064 -0.4995  0.0127
28137SOL    HW190374  11.614  10.297   9.163 -0.6490 -0.6576 -0.0570
28137SOL    HW290375  11.696  10.219   9.063 -0.4630 -0.5735  0.0297
28138SOL     OW90376   5.866  12.208  10.137  0.1354 -0.5393 -0.5439
28138SOL    HW190377   5.820  12.232  10.218 -0.5293  1.1812 -1.3563
28138SOL    HW290378   5.835  12.273  10.073  1.7321 -0.9647 -1.8084
28139SOL     OW90379   9.784   0.930   8.287  0.5100 -0.2375 -0.1819
28139SOL    HW190380   9.700   0.923   8.332 -0.9558  1.6027 -2.4295
28139SOL    HW290381   9.845   0.962   8.354 -1.3085  1.3526  0.8090
28140SOL     OW90382   5.196  11.308   7.335  0.0485 -0.1398  0.0607
28140SOL    HW190383   5.230  11.324   7.247 -0.5483  0.8682 -0.0016
28140SOL    HW290384   5.257  11.352   7.394  0.1868 -0.4134  0.1256
28141SOL     OW90385   0.879   0.608   8.361  0.3023 -0.2654 -0.1538
28141SOL    HW190386   0.899   0.696   8.329 -2.9763  0.9145  0.6574
28141SOL    HW290387   0.951   0.587   8.420  1.3711  1.6895 -0.6756
28142SOL     OW90388  12.236   2.515   8.093 -0.2409 -0.3655 -0.3542
28142SOL    HW190389  12.262   2.462   8.017  2.0920 -0.5029  0.4460
28142SOL    HW290390  12.316   2.523   8.145 -2.2374 -2.5197  3.5195
28143SOL     OW90391  11.876   4.182  11.121 -0.2868  0.1949  0.3441
28143SOL    HW190392  11.855   4.192  11.028 -0.8763 -0.7138  0.3671
28143SOL    HW290393  11.841   4.096  11.145 -2.3609  1.3686  1.9853
28144SOL     OW90394  10.837   0.570  10.905  0.0571  0.9111 -0.3551
28144SOL    HW190395  10.906   0.586  10.970  0.3052  1.4997 -0.7497
28144SOL    HW290396  10.769   0.633  10.926  0.8462  2.2564 -1.6456
28145SOL     OW90397  11.193   1.446   2.801 -0.1835  0.1209  0.1845
28145SOL    HW190398  11.243   1.517   2.842 -0.6266  1.8458 -2.0730
28145SOL    HW290399  11.137   1.490   2.736 -2.1495 -2.0881  0.2529
28146SOL     OW90400   1.629  11.681   6.042 -0.0072 -0.0199  0.4073
28146SOL    HW190401   1.660  11.633   5.965  0.9111  2.0741 -0.6136
28146SOL    HW290402   1.639  11.619   6.114  0.9054 -1.4187 -0.8556
28147SOL     OW90403   8.886   7.805   9.261 -0.5662 -0.6425  0.8625
28147SOL    HW190404   8.940   7.876   9.227 -0.7253 -1.4520 -1.2134
28147SOL    HW290405   8.946   7.749   9.310  0.1204 -0.5302  0.1654
28148SOL     OW90406   0.175   5.661   5.459  0.3745 -0.6721  0.1052
28148SOL    HW190407   0.222   5.730   5.505 -0.3275 -0.8232  1.0872
28148SOL    HW290408   0.156   5.698   5.373  1.2318 -0.1793  0.1192
28149SOL     OW90409   9.035   9.987   2.993  0.4120  0.2268 -0.6973
28149SOL    HW190410   8.987   9.913   3.031  2.5211  0.5166  3.0300
28149SOL    HW290411   8.978  10.062   3.007  0.3889  0.0359  0.3198
28150SOL     OW90412   2.790   3.104   5.722 -1.2026 -0.6667  0.1461
28150SOL    HW190413   2.845   3.027   5.706  1.6372  0.8608  1.5888
28150SOL    HW290414   2.762   3.095   5.813 -1.7342 -0.5025 -0.0005
28151SOL     OW90415   3.784   1.230   6.653  0.2423  0.9443  0.3432
28151SOL    HW190416   3.849   1.288   6.614  0.8624  0.4529  0.6285
28151SOL    HW290417   3.832   1.183   6.721 -0.3641  0.4320  0.4238
28152SOL     OW90418   7.533   2.266   2.669 -0.0862 -0.8266 -0.3638
28152SOL    HW190419   7.604   2.254   2.731  0.0021 -0.9259 -0.4832
28152SOL    HW290420   7.562   2.220   2.590  0.2513  0.1605 -0.8227
28153SOL     OW90421   5.463   0.807   5.759 -0.3095  0.1428 -0.1778
28153SOL    HW190422   5.443   0.897   5.734  2.2431 -0.1430 -3.9997
28153SOL    HW290423   5.542   0.815   5.814 -0.1814  0.2552 -0.3761
28154SOL     OW90424   0.534   0.272  12.489 -0.1272  0.7042 -0.2211
28154SOL    HW190425   0.514   0.364  12.473 -1.4045  0.4039 -0.4603
28154SOL    HW290426   0.466   0.224  12.442  0.0255 -0.3406  0.5921
28155SOL     OW90427  10.982  11.304  12.295  0.2568  0.2079  0.5077
28155SOL    HW190428  11.010  11.224  12.250 -0.8273  0.0733  0.0546
28155SOL    HW290429  10.896  11.283  12.331  0.2113  0.9889  0.8774
28156SOL     OW90430   8.329  11.137   2.791  0.5061  0.4805  0.0585
28156SOL    HW190431   8.292  11.195   2.857 -0.1931 -0.7808  0.8192
28156SOL    HW290432   8.364  11.063   2.841 -1.0592 -1.0556 -1.0000
28157SOL     OW90433   0.222   7.638   5.405 -0.1429  0.0113 -0.0654
28157SOL    HW190434   0.251   7.666   5.491  1.2014  1.3855 -0.9358
28157SOL    HW290435   0.302   7.611   5.360 -0.8444 -0.8184 -0.8642
28158SOL     OW90436   2.914   8.693   9.801 -0.6015 -0.0042  0.8310
28158SOL    HW190437   2.945   8.684   9.711  2.0287 -0.5626  1.7138
28158SOL    HW290438   2.958   8.771   9.834  0.6440 -1.2919  2.3957
28159SOL     OW90439   7.247   2.384   4.584 -0.2057 -0.2667 -0.1260
28159SOL    HW190440   7.245   2.479   4.570  2.0637  0.0392  1.2416
28159SOL    HW290441   7.186   2.370   4.656  1.7368  0.6381  1.7857
28160SOL     OW90442  12.339   8.706   4.117 -0.1838  0.3444  0.1628
28160SOL    HW190443  12.381   8.672   4.038 -2.0795 -0.7305 -0.4647
28160SOL    HW290444  12.308   8.793   4.093 -1.5049 -0.3053 -0.6245
28161SOL     OW90445   2.098  10.811   5.486 -0.8864 -0.3929  0.3643
28161SOL    HW190446   2.136  10.872   5.423 -0.0987 -0.1004  1.1059
28161SOL    HW290447   2.011  10.847   5.504 -1.3135 -0.7389 -0.8955
28162SOL     OW90448   8.372   8.856   4.547 -0.0093  0.1453  0.2113
28162SOL    HW190449   8.296   8.800   4.531  0.7680 -1.4148  1.6506
28162SOL    HW290450   8.394   8.892   4.461 -1.9077  0.0617 -0.3571
28163SOL     OW90451   1.684   7.441   6.101 -0.0634 -0.0230 -0.6982
28163SOL    HW190452   1.614   7.409   6.159  0.8233 -1.1546 -0.2142
28163SOL    HW290453   1.765   7.406   6.140  1.0768  3.1479  0.1206
28164SOL     OW90454   7.206   5.059   8.668 -0.1068  0.1225 -0.2915
28164SOL    HW190455   7.190   4.967   8.686 -1.4139  0.3551 -0.0935
28164SOL    HW290456   7.137   5.105   8.717 -0.4311  1.0978 -1.6110
28165SOL     OW90457   9.853   4.108   8.302  0.4442 -0.4192  0.0579
28165SOL    HW190458   9.808   4.110   8.386  0.9444 -1.0762  0.3525
28165SOL    HW290459   9.918   4.178   8.307  1.3715 -1.2959  0.7525
28166SOL     OW90460   1.813   1.416   9.030 -0.3568  0.3969  0.0712
28166SOL    HW190461   1.758   1.376   8.963  2.5430 -0.6134 -1.9355
28166SOL    HW290462   1.858   1.487   8.984  0.3162  0.9100  1.4676
28167SOL     OW90463  12.339  11.910   1.984  0.7270 -0.5296  0.0663
28167SOL    HW190464  12.421  11.865   2.004  0.1341 -2.9574 -2.3445
28167SOL    HW290465  12.273  11.861   2.033  0.4857  0.0677  0.3380
28168SOL     OW90466  11.809   3.501   0.805 -0.3608 -0.0148 -0.1723
28168SOL    HW190467  11.837   3.484   0.895 -1.8776  3.4034  1.1346
28168SOL    HW290468  11.890   3.507   0.755  0.5420 -1.4127  1.0463
28169SOL     OW90469   1.971  12.150   6.233 -0.6961 -0.0098  0.3306
28169SOL    HW190470   1.953  12.244   6.243  1.2795  0.6656 -1.7756
28169SOL    HW290471   1.970  12.134   6.139  1.5477 -1.5223  0.4798
28170SOL     OW90472   6.257   9.640  11.906  0.3180  0.0811 -0.1117
28170SOL    HW190473   6.291   9.584  11.836  0.0200 -0.7328  0.3735
28170SOL    HW290474   6.317   9.714  11.909  1.0691 -0.5013 -0.3955
28171SOL     OW90475  11.751   1.798  11.280  0.5254  0.6242 -0.3976
28171SOL    HW190476  11.707   1.849  11.211 -2.2409  0.8820  1.4284
28171SOL    HW290477  11.764   1.711  11.241 -0.2062  0.9897 -1.5056
28172SOL     OW90478   2.034   5.296   5.772 -0.3155  0.1291  0.0328
28172SOL    HW190479   2.069   5.293   5.861 -1.2094  1.0499  0.4351
28172SOL    HW290480   2.102   5.340   5.721  0.1430 -0.2782  0.2923
28173SOL     OW90481   4.226  11.241   0.942 -0.3817  0.2592  0.8511
28173SOL    HW190482   4.148  11.253   0.887 -0.7615  1.7630  1.6472
28173SOL    HW290483   4.281  11.317   0.922 -0.8162  1.2003  2.9224
28174SOL     OW90484   7.617   8.638  11.927 -0.2342  0.2356  0.3710
28174SOL    HW190485   7.528   8.662  11.905 -0.1582 -0.2819 -0.5603
28174SOL    HW290486   7.644   8.579  11.857  0.6060 -0.1496  0.9935
28175SOL     OW90487   0.130  10.270   6.999 -0.0900 -0.2893  1.0704
28175SOL    HW190488   0.044  10.302   6.972  0.0579  1.6430  2.5974
28175SOL    HW290489   0.183  10.274   6.920 -0.4154  2.3472  0.8806
28176SOL     OW90490   4.455   6.965   3.573 -0.4024 -0.0223  0.3950
28176SOL    HW190491   4.383   6.977   3.634 -1.4822  3.1872 -1.2950
28176SOL    HW290492   4.528   7.014   3.612  0.0828 -1.0619  0.8302
28177SOL     OW90493   9.035   7.364   0.225  0.4645  0.2604 -0.3445
28177SOL    HW190494   9.060   7.406   0.307  1.5531  0.4156 -0.7426
28177SOL    HW290495   9.099   7.395   0.161  0.1949 -0.5863 -1.0487
28178SOL     OW90496   8.008  11.894  11.509  0.5441  0.3158 -0.4789
28178SOL    HW190497   8.036  11.964  11.567  2.2869  0.4496 -1.4194
28178SOL    HW290498   7.928  11.928  11.467  0.6535  1.2112  0.0167
28179SOL     OW90499   5.357   6.714   6.048 -0.0530 -0.1146 -0.3968
28179SOL    HW190500   5.290   6.706   5.980  0.3806 -0.6582 -0.7734
28179SOL    HW290501   5.368   6.808   6.061 -2.5098  0.0438  1.3078
28180SOL     OW90502   7.808   6.588   2.578 -0.2367 -0.0191 -0.9265
28180SOL    HW190503   7.760   6.658   2.533 -2.6788 -1.5761 -0.8831
28180SOL    HW290504   7.755   6.510   2.565  0.8182 -1.2719  1.6504
28181SOL     OW90505  11.633   3.695  10.075  0.9029  0.1314 -0.1971
28181SOL    HW190506  11.625   3.715   9.982  1.5377 -1.9897 -0.7818
28181SOL    HW290507  11.725   3.711  10.096  0.7259  0.7646  0.1243
28182SOL     OW90508   4.718   8.337   7.401  0.3122 -0.4729 -0.9830
28182SOL    HW190509   4.644   8.293   7.443  0.7662 -1.5262 -1.2646
28182SOL    HW290510   4.744   8.279   7.330  1.0879  0.1340 -1.2105
28183SOL     OW90511  12.055   8.217   4.184  0.1675  0.2646 -0.0031
28183SOL    HW190512  12.119   8.242   4.251  0.0638  0.7329 -0.0746
28183SOL    HW290513  11.987   8.169   4.231  0.7361 -0.5364  0.0225
28184SOL     OW90514   0.750  10.223   3.554 -0.6604  0.5260  0.4608
28184SOL    HW190515   0.746  10.130   3.533  0.6531  0.4100  0.6386
28184SOL    HW290516   0.709  10.267   3.479  0.7221 -0.0756 -0.6762
28185SOL     OW90517   2.795   4.137   8.826  0.0525  0.1836  0.0049
28185SOL    HW190518   2.795   4.155   8.920  2.2692  0.5254  0.0014
28185SOL    HW290519   2.850   4.206   8.789 -0.9627  0.1868 -1.6026
28186SOL     OW90520   2.716   4.648   5.798  0.5637  0.3609  0.2945
28186SOL    HW190521   2.686   4.705   5.728  0.5349  0.8175  0.6697
28186SOL    HW290522   2.732   4.564   5.756 -1.2615  0.0790  0.0923
28187SOL     OW90523   8.722   0.694  10.134  0.1668 -0.3275 -0.0203
28187SOL    HW190524   8.725   0.720  10.042  2.1048 -2.7676 -0.7521
28187SOL    HW290525   8.813   0.674  10.156 -0.4406 -1.1046  2.0174
28188SOL     OW90526   5.153   4.826   4.377  0.0799 -0.1471 -0.2496
28188SOL    HW190527   5.149   4.818   4.282  2.3032 -0.2886 -0.3909
28188SOL    HW290528   5.214   4.897   4.393 -0.9220  0.4552  1.1046
28189SOL     OW90529  10.511   8.533   5.793  0.4395 -0.0803 -0.5419
28189SOL    HW190530  10.553   8.582   5.722  0.4849 -0.5021 -0.8160
28189SOL    HW290531  10.492   8.448   5.754  0.4775 -0.3237 -0.0388
28190SOL     OW90532   5.284  11.809   2.474  0.4540 -0.1558 -0.5030
28190SOL    HW190533   5.321  11.729   2.436  2.8972  1.9313 -2.9097
28190SOL    HW290534   5.348  11.834   2.541  1.5208  1.4577 -2.0521
28191SOL     OW90535   0.301   6.901   4.755  0.1134  0.0998 -0.2415
28191SOL    HW190536   0.311   6.834   4.821  0.4408  0.8013  0.4362
28191SOL    HW290537   0.339   6.980   4.794  0.0100  0.6088 -1.1273
28192SOL     OW90538   0.442   6.410   1.686  0.4073 -0.1246  0.2475
28192SOL    HW190539   0.363   6.363   1.662 -0.4770  1.4236 -0.0350
28192SOL    HW290540   0.411   6.489   1.730  1.8583 -0.2929  1.6985
28193SOL     OW90541  11.649   5.392   3.447 -0.5248 -0.0414  0.3789
28193SOL    HW190542  11.649   5.303   3.412 -1.5338 -0.8589  2.3439
28193SOL    HW290543  11.740   5.407   3.474 -0.0687  0.0431 -1.1061
28194SOL     OW90544   2.709   0.695   1.524 -0.4508 -0.8604  0.5914
28194SOL    HW190545   2.748   0.662   1.443  0.8269 -1.1956  1.3208
28194SOL    HW290546   2.619   0.662   1.522 -0.8499  0.1357 -1.2472
28195SOL     OW90547  11.378   2.647   5.912 -0.0756  0.2053  0.3661
28195SOL    HW190548  11.393   2.741   5.920  0.7096  0.1086  0.1341
28195SOL    HW290549  11.347   2.635   5.822  0.7470  0.1374  0.0855
28196SOL     OW90550   5.245   7.072  10.027 -0.0237 -0.1892 -0.1039
28196SOL    HW190551   5.179   7.140  10.015  0.2570  0.0674 -0.2346
28196SOL    HW290552   5.323   7.107   9.984 -0.0198 -0.8219 -0.6250
28197SOL     OW90553   1.389   9.077   2.100  0.2071 -0.0488  0.0679
28197SOL    HW190554   1.328   9.137   2.057  0.1955  1.3414  1.8829
28197SOL    HW290555   1.458   9.062   2.035 -1.3222 -0.5652 -1.5278
28198SOL     OW90556   9.958   2.857   0.366  0.0620  0.1006 -0.0175
28198SOL    HW190557   9.966   2.904   0.448 -1.0043  2.7577 -1.3282
28198SOL    HW290558  10.048   2.846   0.335  0.3540  1.1094  0.4345
28199SOL     OW90559   8.829   3.401   5.150 -0.2848 -0.0869  0.0944
28199SOL    HW190560   8.921   3.392   5.171 -0.2575  1.0364  0.5229
28199SOL    HW290561   8.804   3.316   5.115  1.3526  0.1253 -1.7413
28200SOL     OW90562  12.089   1.998   5.776  0.2193  0.1805 -0.0180
28200SOL    HW190563  12.125   2.078   5.737 -1.2401  0.4886 -0.8034
28200SOL    HW290564  12.069   2.022   5.867 -0.4468  0.8061 -0.3185
28201SOL     OW90565   0.111   1.325   5.654  0.2598 -0.3606  0.0912
28201SOL    HW190566   0.077   1.360   5.736 -0.5667 -0.3342 -0.2576
28201SOL    HW290567   0.036   1.324   5.595  1.3748  2.2412 -1.5642
28202SOL     OW90568   9.445   5.941  10.410  0.2271  1.2290  0.0211
28202SOL    HW190569   9.384   5.873  10.381 -0.6500  1.7159  0.7036
28202SOL    HW290570   9.494   5.901  10.482  1.0944  0.6651 -0.8524
28203SOL     OW90571   2.869   7.479  10.920 -0.1667 -0.3245  0.1795
28203SOL    HW190572   2.903   7.449  11.005 -0.5007 -3.9702 -0.7714
28203SOL    HW290573   2.776   7.495  10.935  0.1265  0.8772  0.8458
28204SOL     OW90574   7.753   6.882   4.127  0.0911  0.1417 -0.0900
28204SOL    HW190575   7.847   6.871   4.141 -0.1744 -1.7582  0.6022
28204SOL    HW290576   7.726   6.944   4.194  0.8781  0.8693 -0.4333
28205SOL     OW90577   8.676   8.669   0.557  0.0211 -0.0410 -0.5556
28205SOL    HW190578   8.588   8.633   0.566 -0.4888  1.4049  0.7749
28205SOL    HW290579   8.679   8.704   0.468 -0.7606 -0.0712 -0.6019
28206SOL     OW90580   8.382   5.522   0.365 -0.7120 -0.0790 -0.1007
28206SOL    HW190581   8.384   5.593   0.430 -0.2722 -1.4871  1.4836
28206SOL    HW290582   8.464   5.533   0.316 -0.5310  0.3647  0.2896
28207SOL     OW90583  12.222   4.931   2.676 -0.0194 -0.4308  0.1167
28207SOL    HW190584  12.276   4.969   2.607 -1.0239 -2.2351 -1.7945
28207SOL    HW290585  12.232   4.836   2.664 -0.9028 -0.7826  1.9103
28208SOL     OW90586   8.811   5.724   9.570 -0.2912 -0.0493 -0.3936
28208SOL    HW190587   8.848   5.803   9.609  0.6765 -0.0026 -1.3696
28208SOL    HW290588   8.849   5.720   9.483 -0.7112 -1.3335 -0.5367
28209SOL     OW90589  10.256   7.414   3.647  0.3519  0.1142  0.0322
28209SOL    HW190590  10.309   7.344   3.684  1.7441 -0.1721 -2.2890
28209SOL    HW290591  10.315   7.490   3.646  0.1069  0.3045 -0.8466
28210SOL     OW90592   0.961   7.761  10.446  0.1989 -0.6239  0.1344
28210SOL    HW190593   1.043   7.807  10.433 -0.0466  0.3623  1.8187
28210SOL    HW290594   0.956   7.746  10.540 -1.5367 -0.6666  0.0722
28211SOL     OW90595   0.718   8.862  11.140 -0.2267 -0.3164 -0.2334
28211SOL    HW190596   0.706   8.951  11.107 -1.8987 -0.0522  0.9394
28211SOL    HW290597   0.743   8.811  11.064  0.4296  1.0756 -0.9991
28212SOL     OW90598   8.758   7.415   5.318  0.1133 -0.2629  0.6178
28212SOL    HW190599   8.798   7.335   5.285 -1.4433 -1.0908  0.6394
28212SOL    HW290600   8.803   7.485   5.270  0.1367 -1.2616 -0.8954
28213SOL     OW90601   9.051   7.285   5.315 -0.0275  0.4496  0.3544
28213SOL    HW190602   9.083   7.374   5.307  0.1230  0.4075  0.4962
28213SOL    HW290603   9.064   7.262   5.407  0.2854  0.1463  0.2345
28214SOL     OW90604   9.915   5.760   1.435  0.1315  0.1275 -0.5288
28214SOL    HW190605   9.930   5.832   1.373 -0.1263 -0.4935 -1.3391
28214SOL    HW290606   9.821   5.742   1.427 -0.3558  1.4399  1.6318
28215SOL     OW90607   7.071   0.160  10.394  0.1591 -0.5597 -0.0192
28215SOL    HW190608   7.031   0.190  10.312 -0.0015 -0.5915  0.0462
28215SOL    HW290609   7.137   0.227  10.415 -1.4689  0.7853  1.1073
28216SOL     OW90610  12.059  11.895   0.303  0.1396 -0.3069  0.2197
28216SOL    HW190611  12.143  11.927   0.336  1.1273 -0.5164 -1.9219
28216SOL    HW290612  11.995  11.958   0.336  1.6701  2.3715 -1.4699
28217SOL     OW90613  10.260  12.381   5.140 -0.3163 -0.0038 -0.7805
28217SOL    HW190614  10.164  12.374   5.134 -0.1555 -1.5238 -2.3177
28217SOL    HW290615  10.284  12.318   5.208 -0.2397 -1.6555 -2.2808
28218SOL     OW90616   0.601   0.167   1.010 -0.3525 -0.2469  0.3558
28218SOL    HW190617   0.636   0.125   1.089  0.7828 -1.2853 -0.6620
28218SOL    HW290618   0.564   0.249   1.041 -0.6249 -0.9805  2.0862
28219SOL     OW90619   5.588   1.469   4.349  0.1970  0.4166  0.5337
28219SOL    HW190620   5.512   1.526   4.357 -0.4605  0.0572 -2.0709
28219SOL    HW290621   5.630   1.496   4.268  0.7401 -1.7438  0.0225
28220SOL     OW90622   7.653   2.175   6.645  0.0420  0.3750 -0.0396
28220SOL    HW190623   7.564   2.174   6.609  0.0519 -0.5780 -0.0568
28220SOL    HW290624   7.710   2.171   6.569  0.2050  3.7158 -0.2280
28221SOL     OW90625  11.694   5.784  11.281 -0.2475  0.1657 -0.1088
28221SOL    HW190626  11.783   5.768  11.311 -0.6390  1.5840  2.0119
28221SOL    HW290627  11.691   5.745  11.194  1.1430 -3.7824  1.4222
28222SOL     OW90628  10.856   1.251   2.609 -0.4767 -0.2361 -0.1357
28222SOL    HW190629  10.810   1.273   2.690  0.0301 -0.3419  0.1827
28222SOL    HW290630  10.949   1.251   2.633 -0.0553  2.5594 -1.3571
28223SOL     OW90631   0.612   8.594   6.925  0.0944  0.4738 -0.4918
28223SOL    HW190632   0.519   8.612   6.940 -0.4168 -1.1816 -1.4303
28223SOL    HW290633   0.619   8.499   6.928  0.9687  0.2458 -4.2796
28224SOL     OW90634   7.061   5.967   9.025 -0.7692  0.0359  0.6393
28224SOL    HW190635   7.133   6.023   9.055 -1.9131  2.2069 -0.4267
28224SOL    HW290636   7.004   6.026   8.975 -2.5691 -1.9135  0.2533
28225SOL     OW90637   2.941   1.934   8.774 -0.7728  0.2618 -0.0772
28225SOL    HW190638   2.932   2.012   8.827 -1.4699  1.3207 -1.6756
28225SOL    HW290639   3.034   1.911   8.780 -0.6713  0.8927  0.8241
28226SOL     OW90640  12.175   0.068   8.922  0.1209  0.1001  0.0427
28226SOL    HW190641  12.137   0.155   8.936  3.2690  1.4668  1.1228
28226SOL    HW290642  12.139   0.014   8.993 -0.6652  0.9687  0.3257
28227SOL     OW90643   8.294   4.651   2.453 -0.1894  0.3215  0.1474
28227SOL    HW190644   8.212   4.629   2.497  0.8142  0.7372  2.3317
28227SOL    HW290645   8.352   4.577   2.473 -0.0373 -0.0530 -1.5236
28228SOL     OW90646  10.097   7.924   4.880  0.2120 -0.2877  0.7215
28228SOL    HW190647  10.142   8.006   4.859 -0.2607 -0.4833 -1.1707
28228SOL    HW290648  10.043   7.945   4.956  0.8069  0.8824  0.8452
28229SOL     OW90649   5.867   6.045   4.358 -0.1821  0.2048 -0.0057
28229SOL    HW190650   5.806   6.106   4.317  0.2169  1.3490  1.0362
28229SOL    HW290651   5.885   5.980   4.290 -0.8195  1.1035 -1.0723
28230SOL     OW90652   1.438   5.837   0.346 -0.3171  0.4200 -0.3323
28230SOL    HW190653   1.398   5.915   0.385 -0.6173  0.5725 -0.9299
28230SOL    HW290654   1.472   5.787   0.421 -2.6014 -0.2725  0.3385
28231SOL     OW90655   9.894   1.053  11.357  0.2905 -0.3351 -0.3258
28231SOL    HW190656   9.857   1.140  11.371  1.9690  0.6799 -1.7612
28231SOL    HW290657   9.988   1.066  11.361  0.5731 -2.2981  0.3641
28232SOL     OW90658   8.605   0.481   3.566 -0.2200 -0.2653  0.0786
28232SOL    HW190659   8.533   0.454   3.624  1.0321 -1.7381  1.0395
28232SOL    HW290660   8.590   0.431   3.485  0.3046 -1.4746  0.6919
28233SOL     OW90661   0.813   8.521   2.628 -0.2529  0.1752 -0.2120
28233SOL    HW190662   0.774   8.498   2.712  0.5183 -0.1588  0.0607
28233SOL    HW290663   0.739   8.550   2.575 -0.8933 -0.5917  0.2388
28234SOL     OW90664   7.368   5.147   2.666  0.1043  0.5244  0.6213
28234SOL    HW190665   7.283   5.189   2.650  0.2917  0.4868 -0.5183
28234SOL    HW290666   7.433   5.214   2.645  0.4101 -0.3275 -1.3465
28235SOL     OW90667   9.279   9.253   7.893  0.0622 -0.1895  0.1419
28235SOL    HW190668   9.204   9.305   7.924  0.5339  0.5474  0.0553
28235SOL    HW290669   9.289   9.278   7.802  0.1312 -0.6441  0.0202
28236SOL     OW90670   2.955   0.258  10.581 -0.1634  0.0063 -0.1202
28236SOL    HW190671   3.045   0.236  10.606  0.5134  1.4647 -1.1527
28236SOL    HW290672   2.926   0.320  10.648 -0.1629  0.0525 -0.1627
28237SOL     OW90673   9.022   7.583  12.432  0.1737 -0.0935 -0.6400
28237SOL    HW190674   9.059   7.652  12.376 -0.3916  1.2514  0.5945
28237SOL    HW290675   8.974   7.630  12.500  0.4833 -1.6899  0.7515
28238SOL     OW90676   9.663   6.297   4.230  0.3704  0.2141  0.0611
28238SOL    HW190677   9.721   6.331   4.299  0.9794  1.5557 -1.0519
28238SOL    HW290678   9.721   6.280   4.156 -0.3997 -0.2464 -0.4490
28239SOL     OW90679   1.038   3.627   9.503 -0.4266  0.3673  0.3578
28239SOL    HW190680   1.084   3.545   9.486 -0.9560 -0.2905  1.9107
28239SOL    HW290681   1.024   3.665   9.416  0.7997 -0.6384 -0.3115
28240SOL     OW90682   3.260   4.228   2.126 -0.5142  0.2106 -0.1864
28240SOL    HW190683   3.246   4.140   2.092 -1.4069  0.1027  0.4560
28240SOL    HW290684   3.293   4.215   2.214 -0.4968  0.5217 -0.1468
28241SOL     OW90685  12.060   1.952   6.689 -0.1077  0.0704  0.5171
28241SOL    HW190686  12.092   1.981   6.603  1.0289  1.3480  1.3207
28241SOL    HW290687  11.974   1.914   6.671  0.6116 -0.8203 -1.3402
28242SOL     OW90688   2.768   7.647   0.921  0.1404  0.1115 -0.2926
28242SOL    HW190689   2.751   7.555   0.940  1.3077 -0.0056  0.2140
28242SOL    HW290690   2.830   7.675   0.988  0.5018  1.0296 -0.9861
28243SOL     OW90691   2.754   7.543   0.418 -0.2689  0.4826 -1.0493
28243SOL    HW190692   2.696   7.514   0.347 -1.1669  0.2824 -0.2416
28243SOL    HW290693   2.718   7.504   0.497  1.2297 -0.0049 -0.5732
28244SOL     OW90694   7.757   3.616   0.761  0.9532  0.0729 -0.0626
28244SOL    HW190695   7.683   3.644   0.813  0.7963  0.9771 -0.7501
28244SOL    HW290696   7.806   3.557   0.818  0.2484  0.2519  0.7364
28245SOL     OW90697   3.219   0.997   6.386 -0.2990  0.1339  0.1058
28245SOL    HW190698   3.286   1.038   6.441 -0.5381  0.5078  0.1211
28245SOL    HW290699   3.249   0.907   6.375  1.4521  0.8795 -1.8641
28246SOL     OW90700   0.932  12.113   1.620  0.2051 -0.6946 -0.3155
28246SOL    HW190701   0.986  12.080   1.548 -0.3146 -1.9872 -0.1435
28246SOL    HW290702   0.993  12.121   1.693  0.7224  0.5594 -0.8618
28247SOL     OW90703   6.688   3.691   5.992  1.0581 -0.2259  0.0762
28247SOL    HW190704   6.666   3.782   6.014 -0.1354 -0.8013  1.5062
28247SOL    HW290705   6.776   3.678   6.026  1.2493  0.4174 -0.1731
28248SOL     OW90706   0.560  11.877   9.151  0.2564 -0.5903 -0.6953
28248SOL    HW190707   0.475  11.845   9.180 -0.5532  0.3849 -1.8543
28248SOL    HW290708   0.551  11.973   9.154  2.4380 -0.3558  2.2820
28249SOL     OW90709   2.334   5.810   3.594 -0.4842  0.1042  0.8549
28249SOL    HW190710   2.397   5.750   3.553 -0.3774  0.0993  1.0243
28249SOL    HW290711   2.354   5.895   3.554 -0.7734 -0.0095  0.4627
28250SOL     OW90712  10.466   1.577   1.812 -0.1591  0.4163  0.6033
28250SOL    HW190713  10.490   1.518   1.742  0.3086  0.8729  0.3737
28250SOL    HW290714  10.390   1.625   1.779 -1.4259 -1.0068  1.3188
28251SOL     OW90715   1.081  10.352   7.834 -0.5357 -0.4139  0.1315
28251SOL    HW190716   1.057  10.337   7.742  0.5657 -1.3205 -0.0327
28251SOL    HW290717   1.002  10.387   7.874 -0.5094  1.8179 -1.5833
28252SOL     OW90718   6.398   4.239   5.584  0.0391  0.1453  0.3701
28252SOL    HW190719   6.376   4.174   5.517 -1.4522  0.4988  0.4835
28252SOL    HW290720   6.396   4.322   5.537  0.0853  0.2820  0.6144
28253SOL     OW90721  11.545   9.010   5.688  0.1487 -0.4695  0.6642
28253SOL    HW190722  11.616   8.985   5.747  2.2669 -0.7811 -1.8821
28253SOL    HW290723  11.561   8.962   5.607 -2.2962  0.3791 -0.4430
28254SOL     OW90724   0.473   2.944  10.577  0.1848 -0.8780  0.6021
28254SOL    HW190725   0.426   2.868  10.542 -1.9941 -0.9522  3.3163
28254SOL    HW290726   0.548   2.907  10.622  0.2999 -1.2211  0.1364
28255SOL     OW90727  12.094   0.079   8.245  0.4717 -0.1298 -0.3345
28255SOL    HW190728  12.138   0.033   8.316 -0.5344  0.1330  0.4876
28255SOL    HW290729  12.155   0.147   8.218  0.6943  0.0290  0.5593
28256SOL     OW90730  11.673   4.322   0.119  0.7198 -0.4483 -0.0524
28256SOL    HW190731  11.740   4.353   0.180 -0.9537 -0.6344  2.0131
28256SOL    HW290732  11.689   4.228   0.112 -0.0254 -0.7387  1.5006
28257SOL     OW90733   4.093  11.735   3.614  0.6315  0.1272 -0.4480
28257SOL    HW190734   4.103  11.646   3.580  0.5775 -0.0671  0.0321
28257SOL    HW290735   4.149  11.737   3.692  0.1282  0.3024 -0.0825
28258SOL     OW90736   6.256   0.174   6.514  0.2717 -0.0577 -0.1053
28258SOL    HW190737   6.257   0.268   6.536 -0.0863  0.1469 -0.9361
28258SOL    HW290738   6.221   0.132   6.592 -0.9682  0.6545 -0.2462
28259SOL     OW90739   8.226   3.048   8.476 -0.5930 -0.3836  0.3334
28259SOL    HW190740   8.170   3.099   8.418  0.7371  0.8320  0.0714
28259SOL    HW290741   8.282   2.997   8.418 -0.6683 -0.7474  0.5742
28260SOL     OW90742   7.916   1.830   6.421 -0.3590  0.0199 -0.2983
28260SOL    HW190743   7.854   1.769   6.462  1.3340 -1.7624 -0.2302
28260SOL    HW290744   7.950   1.882   6.494 -0.1594 -0.5364  0.0165
28261SOL     OW90745   6.952   2.357   5.647 -0.5407  0.1607  0.0106
28261SOL    HW190746   6.967   2.263   5.633  0.5595  0.4685 -1.1098
28261SOL    HW290747   6.938   2.365   5.741 -1.5130 -1.2233  0.0196
28262SOL     OW90748   0.301   6.549   6.342  0.2283 -0.8537  0.2227
28262SOL    HW190749   0.300   6.486   6.415 -1.0791 -0.0704  0.9301
28262SOL    HW290750   0.215   6.591   6.346  0.9275  0.7224 -0.4581
28263SOL     OW90751  10.401   9.878   1.838 -0.2024  0.0657  0.3423
28263SOL    HW190752  10.342   9.804   1.822  0.7905 -0.7017  0.0976
28263SOL    HW290753  10.432   9.903   1.751  0.2543  0.1031  0.5153
28264SOL     OW90754   7.465   4.534   0.134  0.0692  0.3976  0.1330
28264SOL    HW190755   7.495   4.625   0.132  1.3648 -0.0220  0.0874
28264SOL    HW290756   7.377   4.539   0.172  0.6197  1.5469  1.3289
28265SOL     OW90757   7.823   4.585   4.051 -0.0349  0.5441  0.3412
28265SOL    HW190758   7.842   4.671   4.090  1.8277  0.0726  0.5792
28265SOL    HW290759   7.816   4.602   3.957  1.4730  0.8187  0.2532
28266SOL     OW90760   5.515   5.877   0.327 -0.3373  0.2479 -0.2320
28266SOL    HW190761   5.548   5.890   0.238 -0.2311  1.2797 -0.0566
28266SOL    HW290762   5.425   5.911   0.324 -0.2510  0.5147  0.1046
28267SOL     OW90763  11.419   4.038   7.338  0.4264  0.4217  0.2540
28267SOL    HW190764  11.374   3.981   7.400  0.1975  1.4943  1.0896
28267SOL    HW290765  11.402   3.998   7.252 -0.8466 -0.0202  0.6996
28268SOL     OW90766  11.810   9.367   8.004  0.5629  0.6094  0.0007
28268SOL    HW190767  11.889   9.315   7.991  0.7673  1.1805 -1.0534
28268SOL    HW290768  11.761   9.357   7.923 -1.0085 -0.6412  1.0261
28269SOL     OW90769   3.375   6.066   7.018  0.2580  0.6857 -0.0128
28269SOL    HW190770   3.399   6.125   7.090 -0.0547  0.5086  0.2390
28269SOL    HW290771   3.445   6.077   6.954  0.8236  0.4506  0.5497
28270SOL     OW90772   7.534   6.548   7.706 -0.0427 -0.4267 -0.0129
28270SOL    HW190773   7.527   6.456   7.731 -0.3977 -0.1914  0.7983
28270SOL    HW290774   7.496   6.596   7.780  0.4600  0.3886 -0.2692
28271SOL     OW90775   3.400   4.249   4.299  0.9752  0.5088  0.2699
28271SOL    HW190776   3.412   4.166   4.345 -0.0627  0.0033 -0.3319
28271SOL    HW290777   3.447   4.313   4.352  0.6955 -0.2337  1.4513
28272SOL     OW90778   1.073  12.419   7.981 -0.7107  0.8387  0.2248
28272SOL    HW190779   1.033  12.505   7.984  3.6793  3.1618  0.5901
28272SOL    HW290780   1.103  12.403   8.071 -1.0836 -0.9187  0.0745
28273SOL     OW90781   9.884  10.262   1.705 -0.2289 -0.1689 -0.0122
28273SOL    HW190782   9.837  10.346   1.708 -1.0283 -0.6375  1.4206
28273SOL    HW290783   9.894  10.244   1.612 -1.3402  0.8093 -0.3498
28274SOL     OW90784   6.303  12.076   3.004 -0.6583  0.2144  0.3429
28274SOL    HW190785   6.364  12.149   2.991 -1.3759  0.5461 -1.5486
28274SOL    HW290786   6.288  12.074   3.099  1.7597  0.5117  0.7926
28275SOL     OW90787   7.289  11.826  11.110  0.5589 -0.0426  0.0524
28275SOL    HW190788   7.201  11.850  11.081  0.3798  1.0867  1.4537
28275SOL    HW290789   7.340  11.906  11.103  1.1398 -0.3639  0.5067
28276SOL     OW90790   8.233  11.757   7.535  0.6473  0.1584 -0.5059
28276SOL    HW190791   8.239  11.827   7.601  0.1097 -0.1990 -0.0777
28276SOL    HW290792   8.323  11.749   7.502  0.5150  1.8591 -1.4161
28277SOL     OW90793   1.206  11.586   3.324  0.1339  0.0003  0.4293
28277SOL    HW190794   1.281  11.641   3.346  0.5084  0.0552 -0.9011
28277SOL    HW290795   1.171  11.624   3.244 -0.7422 -0.5921  0.5178
28278SOL     OW90796   8.128   6.349   3.173  0.2163  0.1100  0.0311
28278SOL    HW190797   8.212   6.386   3.148 -0.3918  1.0246 -0.7631
28278SOL    HW290798   8.116   6.376   3.264  0.8769 -0.2342  0.2274
28279SOL     OW90799   7.623  11.530   1.527  0.0490  0.5206  0.4311
28279SOL    HW190800   7.654  11.587   1.457  0.2599 -1.3384 -1.0557
28279SOL    HW290801   7.549  11.578   1.565  0.5295  2.0016 -0.3949
28280SOL     OW90802   9.761   1.226   5.730  0.2499  0.5746  0.1731
28280SOL    HW190803   9.768   1.321   5.718 -0.2155  0.7775  1.3494
28280SOL    HW290804   9.844   1.191   5.697 -0.0114  1.2668 -1.2873
28281SOL     OW90805   0.493   5.317   1.885  0.8869 -0.2646  0.4440
28281SOL    HW190806   0.437   5.356   1.818  1.1467 -1.5856 -0.5977
28281SOL    HW290807   0.537   5.391   1.926 -2.6488  0.9645  2.3688
28282SOL     OW90808   9.272   0.434   4.196  0.1549 -0.4887 -0.1072
28282SOL    HW190809   9.261   0.345   4.228 -0.2125 -0.1367  0.7887
28282SOL    HW290810   9.199   0.483   4.236  0.8250  0.3804  0.0920
28283SOL     OW90811   3.239   3.324   8.678 -0.4416  0.2658  0.1269
28283SOL    HW190812   3.290   3.288   8.606  1.1760  0.0379  1.3213
28283SOL    HW290813   3.223   3.415   8.655  1.8904  0.7957  0.3806
28284SOL     OW90814  10.270   9.758   5.494  0.1899  1.0334  0.3636
28284SOL    HW190815  10.201   9.824   5.496  0.8951  1.8019  0.1275
28284SOL    HW290816  10.263   9.719   5.406 -0.2156  0.7983  0.4973
28285SOL     OW90817   0.421   9.443  10.696 -0.8308 -0.1866  0.2841
28285SOL    HW190818   0.376   9.514  10.742 -2.5320 -0.8525 -0.2672
28285SOL    HW290819   0.351   9.395  10.652  0.6882  0.3549 -2.9790
28286SOL     OW90820   2.197   6.422   0.205  0.2015  0.2329  0.5427
28286SOL    HW190821   2.171   6.497   0.151  1.1425  0.1173 -0.0717
28286SOL    HW290822   2.115   6.394   0.247 -0.2882  1.1598  0.2302
28287SOL     OW90823   1.479   0.465   9.867  0.3573 -0.0022 -0.1465
28287SOL    HW190824   1.430   0.472   9.949  0.6194 -0.2525  0.0332
28287SOL    HW290825   1.482   0.554   9.832 -1.9826 -0.2362 -1.1803
28288SOL     OW90826   0.695  11.947   0.444 -0.0362 -0.4223 -0.2448
28288SOL    HW190827   0.616  12.001   0.447 -0.4484 -1.0549  0.9397
28288SOL    HW290828   0.694  11.906   0.357 -0.5023  0.2927 -0.5845
28289SOL     OW90829   7.320   8.324   2.918  0.6482  0.5182  0.0365
28289SOL    HW190830   7.347   8.349   3.006 -2.2803  1.2561  0.8241
28289SOL    HW290831   7.266   8.246   2.931  1.7132 -0.5048 -1.3599
28290SOL     OW90832  10.760  12.478   2.010 -0.1219 -0.3222  0.0714
28290SOL    HW190833  10.833  12.440   1.962  0.5736 -0.3234  1.1092
28290SOL    HW290834  10.784  12.468   2.102  1.5602  5.1285  0.5708
28291SOL     OW90835   7.164   3.200   7.002 -0.4437  0.0327 -0.2860
28291SOL    HW190836   7.087   3.204   7.059 -0.7483  0.2352 -0.7141
28291SOL    HW290837   7.238   3.214   7.062 -0.5565 -2.2982  0.4990
28292SOL     OW90838   2.698   7.638   3.384 -0.6941 -0.5284  0.1769
28292SOL    HW190839   2.672   7.700   3.451 -0.2460  1.8582 -1.7272
28292SOL    HW290840   2.628   7.572   3.384 -1.7425  0.5228  1.5586
28293SOL     OW90841   3.268   0.810   1.183  0.2646 -0.1411  0.4437
28293SOL    HW190842   3.357   0.838   1.205  0.5839 -0.7621 -0.0078
28293SOL    HW290843   3.274   0.779   1.092 -0.3919 -0.2704  0.4356
28294SOL     OW90844   8.499   2.667   5.378  0.3205 -0.2435 -0.1692
28294SOL    HW190845   8.546   2.588   5.402 -0.3445 -0.0797  1.8787
28294SOL    HW290846   8.435   2.639   5.312  0.1364 -1.3916  0.4850
28295SOL     OW90847   9.441   2.493   6.764  0.0776  0.0124 -0.2263
28295SOL    HW190848   9.515   2.433   6.757  0.9504  1.0902 -0.4004
28295SOL    HW290849   9.367   2.444   6.727  0.0043 -2.1431  2.4871
28296SOL     OW90850   2.506  11.731   9.720 -0.4781  0.3905  0.4042
28296SOL    HW190851   2.455  11.752   9.642  0.2232 -0.3104 -0.2734
28296SOL    HW290852   2.535  11.816   9.754 -1.1423  0.7249  0.1418
28297SOL     OW90853   8.772   2.143   5.944 -0.0984 -0.5012  0.0071
28297SOL    HW190854   8.719   2.191   6.008 -1.9139  0.0715 -1.8005
28297SOL    HW290855   8.742   2.176   5.859  1.1506 -2.2845 -1.2001
28298SOL     OW90856   1.122   9.248   4.694  0.0072  0.1806  0.5163
28298SOL    HW190857   1.033   9.274   4.718  1.3280  2.4137  3.6864
28298SOL    HW290858   1.118   9.152   4.688 -2.2787  0.0700  2.3009
28299SOL     OW90859   6.432   5.290   9.199 -0.4107  0.4783  0.1694
28299SOL    HW190860   6.469   5.208   9.230  1.8209  1.4746  0.3540
28299SOL    HW290861   6.425   5.279   9.104 -0.4166 -0.0470  0.2303
28300SOL     OW90862   9.855   4.903   8.883  0.3311 -0.1157 -0.7218
28300SOL    HW190863   9.834   4.819   8.843  0.9075  0.0132 -1.3209
28300SOL    HW290864   9.938   4.928   8.843 -0.0054  0.9011 -0.8124
28301SOL     OW90865   3.192   2.889  11.093  0.2606 -0.0666 -0.2178
28301SOL    HW190866   3.285   2.868  11.084  0.0091 -0.3309 -3.4233
28301SOL    HW290867   3.163   2.907  11.003 -2.6492  0.6495  0.7639
28302SOL     OW90868  10.014   7.060   4.857 -0.4404  0.1012 -0.0021
28302SOL    HW190869   9.997   6.966   4.849  0.8468 -0.1489  0.0655
28302SOL    HW290870   9.928   7.100   4.844 -0.8336 -1.0197 -1.1220
28303SOL     OW90871  10.977   5.513  10.893 -0.1184 -0.0476 -0.3083
28303SOL    HW190872  10.919   5.504  10.817 -0.5416  1.0391 -0.1418
28303SOL    HW290873  11.048   5.569  10.863 -0.2173  0.2790  0.0559
28304SOL     OW90874   1.799   7.537   8.907  0.8739 -0.5166 -0.5557
28304SOL    HW190875   1.763   7.449   8.914  1.7873 -0.8950 -0.4051
28304SOL    HW290876   1.836   7.541   8.819  4.2639 -1.7005  0.6452
28305SOL     OW90877   8.074   4.310   6.895  0.5085  0.0042 -0.0949
28305SOL    HW190878   8.101   4.272   6.979  1.5703 -1.2598 -0.9694
28305SOL    HW290879   7.980   4.291   6.890  0.9140 -2.3515 -0.3441
28306SOL     OW90880   7.333   7.940   0.801  0.1924 -0.1554  0.4054
28306SOL    HW190881   7.415   7.891   0.806  0.7900  0.7449 -0.3295
28306SOL    HW290882   7.311   7.941   0.708 -0.3121  0.1637  0.5277
28307SOL     OW90883   3.875   0.703   6.325 -0.7686  0.0969 -0.1087
28307SOL    HW190884   3.839   0.765   6.388 -1.3463 -0.9215  0.5914
28307SOL    HW290885   3.931   0.756   6.267 -3.0258  1.6493 -0.9775
28308SOL     OW90886  10.262   1.672  11.290  0.4298  1.1590  0.3405
28308SOL    HW190887  10.353   1.651  11.312  0.3886 -0.4460 -0.8173
28308SOL    HW290888  10.248   1.628  11.206 -1.9167 -0.0749  1.2969
28309SOL     OW90889   8.594  12.442  10.129  0.1597  0.8053 -0.2579
28309SOL    HW190890   8.649  12.431  10.206  1.0895  0.0066 -1.0069
28309SOL    HW290891   8.505  12.430  10.161  0.4240  1.7396  0.9054
28310SOL     OW90892   7.219   9.870  10.230 -0.5832  0.5295  0.1397
28310SOL    HW190893   7.211   9.777  10.208 -0.1475  0.8820 -1.6339
28310SOL    HW290894   7.129   9.898  10.248 -0.6981 -0.2526  0.8601
28311SOL     OW90895   9.195   1.218  11.280  0.3465 -0.2441  0.2454
28311SOL    HW190896   9.125   1.157  11.302  2.6762 -3.1029  0.3500
28311SOL    HW290897   9.196   1.221  11.184  0.7136 -1.0598  0.2148
28312SOL     OW90898  10.472   2.558   7.719 -0.1386 -0.0459 -0.1819
28312SOL    HW190899  10.469   2.639   7.769 -2.1591 -0.6812  0.8488
28312SOL    HW290900  10.545   2.509   7.757  0.0105  0.5771  0.3456
28313SOL     OW90901  10.343   1.406   0.016  0.8412 -0.1911  0.1007
28313SOL    HW190902  10.417   1.348   0.030  0.8097 -0.5938 -1.3020
28313SOL    HW290903  10.376   1.493   0.040  1.7667 -0.3664 -0.4820
28314SOL     OW90904  12.191  11.303   8.404  0.1222  0.0988 -0.5407
28314SOL    HW190905  12.271  11.284   8.452  0.2659 -0.8192 -1.1225
28314SOL    HW290906  12.205  11.390   8.367 -0.3353  1.1983  1.7430
28315SOL     OW90907  11.487   9.375   2.381  0.4973 -0.2201 -0.1675
28315SOL    HW190908  11.565   9.321   2.374  0.3856 -0.2218 -1.7795
28315SOL    HW290909  11.480   9.419   2.296 -0.6653  0.5920  0.3150
28316SOL     OW90910  10.610   6.938   0.185 -0.1566 -0.0959  0.0255
28316SOL    HW190911  10.663   7.006   0.143 -1.2865 -0.4831 -2.1744
28316SOL    HW290912  10.649   6.856   0.156 -1.0166 -0.3752 -0.3756
28317SOL     OW90913   7.163   5.585  11.840  0.3326  0.6347  0.4338
28317SOL    HW190914   7.083   5.590  11.788  0.3884  1.6602  0.4299
28317SOL    HW290915   7.233   5.609  11.779  0.6014  0.2027  0.5607
28318SOL     OW90916   7.917  11.750  10.159  0.3420  0.4626  0.1231
28318SOL    HW190917   7.828  11.771  10.188  0.5921  2.5003 -0.3843
28318SOL    HW290918   7.907  11.725  10.067  0.1710 -0.5543  0.4088
28319SOL     OW90919   3.841   0.822   6.745  0.0519  0.5554 -0.1372
28319SOL    HW190920   3.794   0.764   6.805  0.6843  0.7547  0.5590
28319SOL    HW290921   3.928   0.830   6.783  0.5482  0.4705 -1.2246
28320SOL     OW90922   9.576   2.238   9.122  0.2054 -0.1977 -0.5843
28320SOL    HW190923   9.512   2.282   9.067 -1.0403 -0.7637  0.3592
28320SOL    HW290924   9.626   2.309   9.163 -1.3162  0.3651  0.3900
28321SOL     OW90925   6.341  10.159  10.075 -0.2533  0.4968  0.4639
28321SOL    HW190926   6.433  10.156  10.100  0.2274  1.7997 -1.0065
28321SOL    HW290927   6.295  10.187  10.155  0.6616  0.2605  1.0849
28322SOL     OW90928   9.636   3.513   2.527 -0.0730 -0.0075 -0.6328
28322SOL    HW190929   9.625   3.605   2.551 -1.5383 -0.0972 -0.9153
28322SOL    HW290930   9.640   3.513   2.432 -1.2448 -0.3424 -0.6918
28323SOL     OW90931   5.858   9.664   8.613 -0.0004  0.4981 -0.0374
28323SOL    HW190932   5.891   9.582   8.650 -0.4461  0.5299  0.4390
28323SOL    HW290933   5.901   9.670   8.527  0.6508  0.1717  0.2584
28324SOL     OW90934   8.996   1.849   5.692 -0.5106  0.0306  0.1123
28324SOL    HW190935   9.079   1.886   5.662 -0.0496 -0.6396  0.5322
28324SOL    HW290936   9.005   1.755   5.676 -0.8269 -0.1557  0.9834
28325SOL     OW90937   2.452   8.483   2.409 -0.4240 -0.4548 -0.0576
28325SOL    HW190938   2.547   8.492   2.395 -0.7086  0.5570 -1.4971
28325SOL    HW290939   2.430   8.399   2.368 -0.4487  0.2512 -1.5756
28326SOL     OW90940   9.523   0.933  12.160 -0.2060  0.3045  0.9205
28326SOL    HW190941   9.587   0.980  12.213  0.2523  1.2333 -0.4228
28326SOL    HW290942   9.536   0.965  12.071 -2.1251  0.0658  0.5039
28327SOL     OW90943   0.558   7.588   2.619 -0.3226 -0.4356  0.1534
28327SOL    HW190944   0.559   7.654   2.550  2.2712  0.7727  1.2117
28327SOL    HW290945   0.644   7.548   2.616 -1.3604 -2.8717  0.4635
28328SOL     OW90946   7.461   5.259   9.290  0.5917 -0.2105 -0.2156
28328SOL    HW190947   7.474   5.215   9.374 -0.2785 -1.0462 -0.5034
28328SOL    HW290948   7.466   5.352   9.310  0.0082 -0.3949  0.8357
28329SOL     OW90949   7.441   3.804   6.734 -0.1058 -0.2787  0.1165
28329SOL    HW190950   7.347   3.816   6.719  0.1298  1.3699 -0.2255
28329SOL    HW290951   7.462   3.723   6.687 -1.0085  0.3191 -1.3946
28330SOL     OW90952   6.403   8.154   1.804  0.2911  0.3768 -0.0077
28330SOL    HW190953   6.343   8.084   1.831 -1.4265  1.5496 -0.6445
28330SOL    HW290954   6.458   8.114   1.737 -0.5657 -0.4183 -0.2527
28331SOL     OW90955   3.608   3.561  10.272  0.2727  0.5575  0.4709
28331SOL    HW190956   3.661   3.637  10.297  0.3792  1.1711 -1.4593
28331SOL    HW290957   3.668   3.505  10.223 -0.2995  0.1886  0.1803
28332SOL     OW90958   1.496   5.364   2.777  0.3312 -0.7413  0.1085
28332SOL    HW190959   1.479   5.458   2.775  1.7366 -0.4457  0.4253
28332SOL    HW290960   1.427   5.328   2.832  0.1428  0.2024  0.5137
28333SOL     OW90961   2.259  11.099   4.147 -0.1989  0.7435  0.5583
28333SOL    HW190962   2.305  11.136   4.222  0.2381  1.3771 -0.0139
28333SOL    HW290963   2.321  11.107   4.075 -0.4827 -0.1763  0.1971
28334SOL     OW90964  10.381   4.790   3.033  0.2376  0.2779  0.2360
28334SOL    HW190965  10.399   4.804   2.940  0.1347 -1.6198 -0.1130
28334SOL    HW290966  10.412   4.870   3.076 -1.0675  1.8347 -1.5595
28335SOL     OW90967  10.210   1.008   2.374 -0.1330  0.7043 -0.4016
28335SOL    HW190968  10.169   0.924   2.395  1.4451 -0.4744 -1.7825
28335SOL    HW290969  10.303   0.987   2.361 -0.0422  2.2750 -2.8447
28336SOL     OW90970   9.412   2.897   9.971  0.7053 -0.3223  0.2489
28336SOL    HW190971   9.434   2.976   9.922  1.0510  0.4600  1.5983
28336SOL    HW290972   9.468   2.901  10.049  0.0988 -1.4447  0.7641
28337SOL     OW90973   9.558   8.737   7.972  0.6390 -0.5089 -0.3213
28337SOL    HW190974   9.549   8.657   7.921  1.4135  0.2737 -1.7463
28337SOL    HW290975   9.648   8.734   8.006 -0.5565 -2.2079  3.1994
28338SOL     OW90976   8.815   8.959   0.516 -0.3043 -0.1563 -0.4326
28338SOL    HW190977   8.894   8.926   0.475  0.7231 -0.0648  1.3868
28338SOL    HW290978   8.807   8.908   0.597  0.4098  2.7900  1.6300
28339SOL     OW90979  12.319   6.415   2.054  0.9026 -0.3417  0.0857
28339SOL    HW190980  12.362   6.331   2.037  1.8423  0.0285  0.5980
28339SOL    HW290981  12.336   6.467   1.975  1.0489 -0.3293  0.1265
28340SOL     OW90982   2.607   5.220   7.129 -0.1550 -0.5893 -0.2317
28340SOL    HW190983   2.534   5.197   7.187  0.1133 -0.7979  0.0240
28340SOL    HW290984   2.574   5.200   7.041 -1.6774  2.5285 -0.4994
28341SOL     OW90985   2.109   1.209   5.480 -0.3468 -0.1271 -0.3325
28341SOL    HW190986   2.093   1.269   5.407 -1.7230 -0.5632 -0.4275
28341SOL    HW290987   2.108   1.266   5.557 -0.4830  0.1299 -0.5194
28342SOL     OW90988  10.604   0.225   0.954  0.1244  0.0885  0.1156
28342SOL    HW190989  10.636   0.167   0.885  1.1469  0.0688  0.6028
28342SOL    HW290990  10.508   0.223   0.943  0.2447 -0.2284 -1.0362
28343SOL     OW90991   3.960   2.248   4.771 -0.0158  0.4683  0.3758
28343SOL    HW190992   3.957   2.269   4.678  1.1338  0.0131  0.2185
28343SOL    HW290993   3.923   2.161   4.778  0.0354  0.4427  0.3236
28344SOL     OW90994   4.675  12.014  11.266  0.0160  0.1344  0.0887
28344SOL    HW190995   4.714  12.033  11.181 -0.0664 -1.2929 -0.2992
28344SOL    HW290996   4.581  12.026  11.253  0.1859  3.5105  1.0062
28345SOL     OW90997   1.818   8.698  11.488  0.1381  0.2362  0.0411
28345SOL    HW190998   1.723   8.692  11.486 -0.0396  2.5284 -1.1931
28345SOL    HW290999   1.839   8.730  11.576 -0.0990 -1.3544  0.7079
28346SOL     OW91000   0.278   4.638   2.904  0.6316  0.7746  0.2734
28346SOL    HW191001   0.257   4.548   2.881  1.5399  1.0478 -1.8618
28346SOL    HW291002   0.219   4.659   2.976  1.4485 -1.9817  1.8964
28347SOL     OW91003   6.626   6.606   6.252 -0.0427 -0.5470  0.0487
28347SOL    HW191004   6.720   6.615   6.237 -0.0317 -0.4115  0.2045
28347SOL    HW291005   6.618   6.578   6.343 -0.1511 -0.6211  0.0182
28348SOL     OW91006   9.880   1.764   4.437  0.0292 -0.0873 -0.6615
28348SOL    HW191007   9.909   1.682   4.396  0.3849 -0.0897 -0.4117
28348SOL    HW291008   9.785   1.764   4.426 -0.0076 -0.7060 -0.3509
28349SOL     OW91009  11.713   8.682   0.841  0.0187  0.4877 -0.0233
28349SOL    HW191010  11.727   8.666   0.748 -0.9729 -0.0457 -0.1031
28349SOL    HW291011  11.657   8.760   0.844  1.6594  1.7031  0.2216
28350SOL     OW91012  11.823   8.935  10.965  0.5437 -0.2760  0.6330
28350SOL    HW191013  11.773   9.017  10.961 -1.9621 -1.7500 -0.5907
28350SOL    HW291014  11.897   8.950  10.906  0.4948  1.3205  0.9316
28351SOL     OW91015  11.168   0.171  11.620  0.4075 -0.1976  0.1482
28351SOL    HW191016  11.141   0.242  11.561 -2.2534 -0.0487  1.3596
28351SOL    HW291017  11.163   0.210  11.708 -1.3068 -1.8387  0.8650
28352SOL     OW91018  10.185   6.950   0.907 -0.5455 -0.1958 -0.1481
28352SOL    HW191019  10.092   6.928   0.896 -0.9382  1.0851  0.3898
28352SOL    HW291020  10.186   7.045   0.917  0.7747 -0.2460  0.4581
28353SOL     OW91021   8.808   5.720   7.584 -0.6032 -0.0311  0.2778
28353SOL    HW191022   8.748   5.688   7.517 -1.4043  1.9635 -0.0285
28353SOL    HW291023   8.757   5.718   7.665 -0.5218  0.1070  0.3328
28354SOL     OW91024   9.381   8.437   5.526 -0.2750 -0.5635 -0.3453
28354SOL    HW191025   9.463   8.485   5.537 -0.2519 -0.7684  0.4122
28354SOL    HW291026   9.351   8.420   5.616 -1.9976  0.9798 -0.5610
28355SOL     OW91027  12.336   2.373   8.902 -0.1596 -0.5116  0.2413
28355SOL    HW191028  12.407   2.395   8.964  0.9075  0.2504 -1.1895
28355SOL    HW291029  12.377   2.315   8.839 -1.0673 -0.7697 -0.1185
28356SOL     OW91030   5.835   3.397   4.723 -0.4812  0.0853 -0.1031
28356SOL    HW191031   5.811   3.312   4.686  2.4587 -1.6804  1.6746
28356SOL    HW291032   5.754   3.431   4.760 -2.3583 -0.5072 -3.3094
28357SOL     OW91033   9.602  11.815   4.755 -0.8392 -0.0080  0.6830
28357SOL    HW191034   9.517  11.794   4.793 -1.8713 -0.0519 -1.5353
28357SOL    HW291035   9.593  11.905   4.724 -0.8291 -0.6789 -1.4191
28358SOL     OW91036   8.170   2.350   2.407  0.4238 -0.3386  0.6973
28358SOL    HW191037   8.112   2.293   2.456  2.6702 -1.5062  2.1629
28358SOL    HW291038   8.170   2.432   2.456  1.7980 -1.1331  2.0769
28359SOL     OW91039   8.802   9.545  11.505 -0.0515  0.0597  0.4747
28359SOL    HW191040   8.886   9.500  11.510  1.5625  2.7849 -0.2298
28359SOL    HW291041   8.773   9.533  11.415  0.6303  0.8077  0.1467
28360SOL     OW91042   2.261   5.504  11.537  0.2480  0.0001  0.6155
28360SOL    HW191043   2.350   5.536  11.523  0.1061  0.8227  1.4841
28360SOL    HW291044   2.224   5.563  11.602 -1.0848 -0.0741 -0.0368
28361SOL     OW91045   1.352   2.315   5.115  0.3876 -0.3649  0.4236
28361SOL    HW191046   1.428   2.367   5.090  0.6595 -0.5225  0.9096
28361SOL    HW291047   1.384   2.224   5.112  0.6850 -0.3523  2.1490
28362SOL     OW91048   6.656  11.843   1.889 -0.4682  0.4767  0.3421
28362SOL    HW191049   6.567  11.816   1.866 -0.3748  0.2923  0.1915
28362SOL    HW291050   6.651  11.938   1.895 -0.7419  0.4452  0.6233
28363SOL     OW91051   9.729   9.718   0.021  0.1858 -0.5225 -0.1346
28363SOL    HW191052   9.723   9.637   0.073 -2.2219  0.0210  0.5501
28363SOL    HW291053   9.640   9.751   0.018  1.3081  3.1431  1.2210
28364SOL     OW91054   8.932   9.491   0.699 -0.1884 -0.4250  0.0990
28364SOL    HW191055   8.984   9.435   0.642 -1.0009 -0.1145 -0.9827
28364SOL    HW291056   8.953   9.463   0.788  0.3140 -1.6234 -0.3907
28365SOL     OW91057   0.864   6.621   2.133  0.0003 -0.1494 -0.4512
28365SOL    HW191058   0.801   6.560   2.095  1.5064 -1.1461 -1.4771
28365SOL    HW291059   0.863   6.601   2.227  0.6316 -2.0011 -0.7869
28366SOL     OW91060   8.314   8.403   3.512  0.2172  0.0010 -0.0469
28366SOL    HW191061   8.235   8.418   3.562  0.4788  0.4195  0.2432
28366SOL    HW291062   8.332   8.486   3.468 -0.1884 -0.4543 -1.0977
28367SOL     OW91063  11.520   6.098   2.328  0.2636 -0.3408  0.0421
28367SOL    HW191064  11.562   6.026   2.281 -1.2419 -0.5801 -1.0366
28367SOL    HW291065  11.592   6.152   2.360  1.4178 -0.2397 -2.4787
28368SOL     OW91066   6.351   0.670  11.550  0.1892  0.8022 -0.7938
28368SOL    HW191067   6.346   0.710  11.637  0.2628  1.6735 -1.1790
28368SOL    HW291068   6.406   0.729  11.499 -0.9116  0.9994 -1.8019
28369SOL     OW91069   1.756   9.794  10.047  0.0908  0.4132  0.2018
28369SOL    HW191070   1.667   9.829  10.051 -0.3416 -0.4376 -1.2852
28369SOL    HW291071   1.792   9.808  10.135 -1.7434  0.1258  1.0314
28370SOL     OW91072  11.379   1.288  11.100  0.3285 -0.2102 -0.2004
28370SOL    HW191073  11.349   1.297  11.191  1.3284  0.1822  0.1032
28370SOL    HW291074  11.298   1.288  11.048 -0.2128  0.9714  0.5815
28371SOL     OW91075   2.951   8.766   0.722  0.5290 -0.2390 -0.0712
28371SOL    HW191076   3.020   8.783   0.786  0.0902  1.1024  0.0807
28371SOL    HW291077   2.870   8.791   0.767  0.3397  2.0855 -1.5810
28372SOL     OW91078   4.749  10.498   9.499 -0.0034 -0.0596 -0.1209
28372SOL    HW191079   4.805  10.500   9.577 -2.4498 -0.6914  1.7531
28372SOL    HW291080   4.679  10.560   9.517 -0.9294 -0.6267 -1.5845
28373SOL     OW91081   2.872   6.885   7.503  0.0803  0.2320 -0.4796
28373SOL    HW191082   2.910   6.841   7.578 -0.3758 -0.1677 -0.4794
28373SOL    HW291083   2.942   6.885   7.437  0.6659  1.0717  0.1269
28374SOL     OW91084   8.082   4.650   7.162 -0.5534  0.5093  0.1080
28374SOL    HW191085   8.027   4.683   7.091  0.9126  0.1919 -1.2388
28374SOL    HW291086   8.068   4.555   7.160  0.2037  0.3981 -0.4178
28375SOL     OW91087  12.324  11.645   5.321  0.2047  0.5165 -0.5582
28375SOL    HW191088  12.360  11.628   5.234 -0.0411  0.4576 -0.6493
28375SOL    HW291089  12.399  11.640   5.379  0.1378 -1.0393 -0.5588
28376SOL     OW91090   6.311   6.870   1.704 -0.5128 -0.0061  0.5887
28376SOL    HW191091   6.259   6.807   1.654  0.5083 -0.9962  0.7481
28376SOL    HW291092   6.400   6.835   1.703  0.7346  2.7837 -1.6224
28377SOL     OW91093  11.293   3.410   5.141  0.1688 -0.2209 -0.2584
28377SOL    HW191094  11.348   3.356   5.197  0.7880 -1.1761 -1.7353
28377SOL    HW291095  11.339   3.493   5.133 -0.7609  0.5863  1.9805
28378SOL     OW91096   2.055   8.883  10.846 -0.4697  0.0536 -0.0049
28378SOL    HW191097   2.116   8.926  10.785 -0.6854  0.6186  0.1631
28378SOL    HW291098   2.067   8.931  10.929  0.0067 -0.8745  0.4717
28379SOL     OW91099   0.034  10.101   8.653  0.5381 -0.5111  0.5019
28379SOL    HW191100   0.035  10.190   8.689  0.2799 -0.7775  1.1911
28379SOL    HW291101   0.040  10.113   8.558 -3.3703  0.4529  0.2231
28380SOL     OW91102   0.736   6.166   6.603 -0.1012  0.2803 -0.0626
28380SOL    HW191103   0.693   6.082   6.583 -0.1211 -0.2569  2.0446
28380SOL    HW291104   0.707   6.224   6.532 -0.0291 -1.4800 -1.6247
28381SOL     OW91105  11.639   6.742   8.354  0.2141 -0.1525 -0.0537
28381SOL    HW191106  11.715   6.800   8.359 -0.4227  0.6213  1.3260
28381SOL    HW291107  11.647   6.699   8.269  0.9229  1.6727 -0.9809
28382SOL     OW91108   8.907  12.031   5.684  0.1560 -0.5007  0.9488
28382SOL    HW191109   8.818  11.997   5.692  0.5099 -1.9854 -0.8034
28382SOL    HW291110   8.914  12.060   5.593  0.8006  1.7119  1.6376
28383SOL     OW91111   6.137   4.429  12.443 -1.0180  0.0369 -0.5084
28383SOL    HW191112   6.190   4.502  12.411 -2.3838  0.4521 -1.9609
28383SOL    HW291113   6.047   4.461  12.439 -1.4141 -0.5492  2.1731
28384SOL     OW91114   8.729   3.496   7.689  0.0698  0.2374 -0.1074
28384SOL    HW191115   8.743   3.585   7.722  1.0026 -0.0987  0.4570
28384SOL    HW291116   8.654   3.504   7.630 -1.3131  0.9660  1.6684
28385SOL     OW91117   4.538  10.379  11.943 -0.2305  0.0913  0.5369
28385SOL    HW191118   4.520  10.364  12.035 -0.7793  1.7087  0.7324
28385SOL    HW291119   4.624  10.340  11.928 -0.9430 -1.8867  1.2350
28386SOL     OW91120   5.984  10.724  12.259  0.2662 -0.2209  0.1012
28386SOL    HW191121   5.929  10.647  12.245  0.8474 -0.5992 -0.1695
28386SOL    HW291122   5.923  10.797  12.268 -0.2457 -0.4121 -1.5394
28387SOL     OW91123   2.062   8.052   2.510  0.6698  0.2225 -0.7631
28387SOL    HW191124   1.989   7.993   2.495 -0.1138  0.8543  0.4590
28387SOL    HW291125   2.123   8.032   2.439 -0.4041 -0.7331 -1.4578
28388SOL     OW91126   2.695   7.169   7.018  0.2421 -0.0105  0.0533
28388SOL    HW191127   2.750   7.240   7.051  0.4341  0.1923 -0.6798
28388SOL    HW291128   2.714   7.166   6.925  1.2540 -1.9357  0.2943
28389SOL     OW91129  11.223   5.465   8.903 -0.3233  0.2199 -0.5633
28389SOL    HW191130  11.152   5.501   8.849 -0.8728 -2.7177 -1.9882
28389SOL    HW291131  11.197   5.375   8.921  2.6098 -0.7019 -0.3813
28390SOL     OW91132   2.652   0.820   9.449  0.5211 -0.2125  0.2771
28390SOL    HW191133   2.677   0.842   9.360  1.1133 -0.3962  0.3960
28390SOL    HW291134   2.649   0.724   9.450 -0.4396 -0.1930  0.1989
28391SOL     OW91135   8.401   3.007  10.314 -0.0104 -0.0360  0.2246
28391SOL    HW191136   8.406   2.959  10.396  0.8089  0.3642  0.4252
28391SOL    HW291137   8.491   3.008  10.282 -0.5134 -1.3703 -1.3865
28392SOL     OW91138   1.337  11.701   5.243  0.3475  0.1959 -0.2091
28392SOL    HW191139   1.338  11.646   5.164 -2.3893 -2.3409  1.3370
28392SOL    HW291140   1.402  11.661   5.300  0.8190  0.7492 -0.3447
28393SOL     OW91141   8.723   4.450  10.093  0.0009  0.4371 -0.2046
28393SOL    HW191142   8.647   4.503  10.069 -1.1687 -1.5157 -0.9542
28393SOL    HW291143   8.796   4.492  10.047 -0.2187  3.3109  1.7753
28394SOL     OW91144   8.825   0.874   8.218  0.2975  0.5218  0.1085
28394SOL    HW191145   8.743   0.894   8.173  0.7491 -1.3551 -1.6554
28394SOL    HW291146   8.797   0.842   8.304 -0.8714 -0.4388 -0.5916
28395SOL     OW91147   5.438   5.882   4.935 -0.1436  0.3536  0.4457
28395SOL    HW191148   5.369   5.947   4.927 -0.0075  0.3177 -1.4446
28395SOL    HW291149   5.512   5.929   4.974 -0.3191  1.1126 -0.1251
28396SOL     OW91150   3.261   7.962   1.031 -0.3571 -0.3823  0.0681
28396SOL    HW191151   3.249   7.876   0.990 -0.0210 -0.4945  0.1968
28396SOL    HW291152   3.175   8.005   1.023 -0.3122 -0.4223 -0.6859
28397SOL     OW91153   7.776   1.412   0.992  0.1094 -0.4415  0.0023
28397SOL    HW191154   7.717   1.432   0.918  0.0279  2.4837  0.7176
28397SOL    HW291155   7.843   1.480   0.987  0.1435 -0.2124  2.5597
28398SOL     OW91156   4.591   0.749   1.133 -0.4017  0.0447 -0.5624
28398SOL    HW191157   4.648   0.797   1.073  2.1428 -1.0978  0.7454
28398SOL    HW291158   4.510   0.799   1.135  0.9627  2.4914 -1.6381
28399SOL     OW91159   9.412   6.465   8.519  0.1996  0.0868 -0.0601
28399SOL    HW191160   9.495   6.419   8.533 -0.0331  0.0184  1.1875
28399SOL    HW291161   9.350   6.397   8.494  0.8767  0.3530 -2.8295
28400SOL     OW91162   9.574   0.760   3.704 -0.1297  0.2256 -0.4309
28400SOL    HW191163   9.591   0.839   3.654 -0.9347  0.5863 -0.1533
28400SOL    HW291164   9.617   0.690   3.654 -1.9670  0.3716 -2.3349
28401SOL     OW91165   3.906   3.823   1.454  0.2615  0.1795  0.4232
28401SOL    HW191166   3.869   3.886   1.392  1.0151  2.4169  2.0924
28401SOL    HW291167   3.998   3.848   1.460  0.7747 -1.6329  0.5648
28402SOL     OW91168   4.179   7.561   2.131  0.4039 -0.3690 -0.3619
28402SOL    HW191169   4.262   7.602   2.154  0.6129  0.3309 -2.1817
28402SOL    HW291170   4.201   7.498   2.063 -0.5168 -0.3718 -0.6749
28403SOL     OW91171   1.810  12.057   6.447  0.1079 -0.0733  0.0528
28403SOL    HW191172   1.878  12.086   6.386  0.6649  1.8711  1.4945
28403SOL    HW291173   1.749  12.007   6.394  1.4782  0.0697 -1.7318
28404SOL     OW91174   0.511   4.003   2.046 -0.1239  0.0205  0.8527
28404SOL    HW191175   0.531   3.909   2.045 -1.1340 -0.2147  1.5788
28404SOL    HW291176   0.593   4.044   2.072  0.0163 -0.7537  1.6935
28405SOL     OW91177   8.257   9.971   2.978 -0.0325  0.3541 -0.4629
28405SOL    HW191178   8.176  10.021   2.980 -0.8789 -0.9437 -1.1830
28405SOL    HW291179   8.255   9.924   2.895 -1.0110 -3.5840  1.5134
28406SOL     OW91180   1.667  10.582  10.170 -0.0936 -0.2104 -0.0196
28406SOL    HW191181   1.658  10.621  10.083 -0.0748  0.9824  0.4971
28406SOL    HW291182   1.758  10.600  10.195 -0.4136  0.4837  0.7121
28407SOL     OW91183  10.604   7.866   7.933  0.0858  0.1278 -0.6865
28407SOL    HW191184  10.603   7.959   7.912  0.3521 -0.0008 -1.2793
28407SOL    HW291185  10.598   7.822   7.848 -2.7098 -0.4233 -0.3116
28408SOL     OW91186   5.311   3.644   5.485  0.1825  0.2167 -0.0378
28408SOL    HW191187   5.384   3.705   5.496 -0.5129  1.1768 -0.4693
28408SOL    HW291188   5.233   3.700   5.489 -0.4355 -0.4420 -1.6996
28409SOL     OW91189   8.133   3.138   7.431  0.3021  0.3590 -0.1803
28409SOL    HW191190   8.073   3.079   7.477  0.5879 -0.2391 -0.5602
28409SOL    HW291191   8.078   3.178   7.363  0.0193  0.8067  0.3109
28410SOL     OW91192   7.292   6.155   2.361  0.3449 -0.4327 -0.2936
28410SOL    HW191193   7.288   6.129   2.269  0.5296 -1.7322  0.0459
28410SOL    HW291194   7.298   6.072   2.409 -1.5598  0.1219  1.0061
28411SOL     OW91195   4.922   1.371   9.689  0.7364 -0.0081  0.3653
28411SOL    HW191196   4.914   1.368   9.594 -1.1442 -1.0779  0.5010
28411SOL    HW291197   4.978   1.296   9.711  0.1400 -0.5283  0.1526
28412SOL     OW91198  11.413   7.103   5.857  0.2794  0.0526 -0.4351
28412SOL    HW191199  11.402   7.095   5.762  1.2360  0.8286 -0.6335
28412SOL    HW291200  11.504   7.079   5.872  0.7449  1.9166 -0.0007
28413SOL     OW91201   2.857   7.940  10.645  0.0601  0.0315 -0.3285
28413SOL    HW191202   2.880   7.857  10.686 -0.1191  0.0708 -0.1503
28413SOL    HW291203   2.880   7.928  10.553  0.1698 -0.1633 -0.2765
28414SOL     OW91204   9.547   8.509   6.920 -0.1468  0.4184  0.0158
28414SOL    HW191205   9.641   8.490   6.920 -0.4515 -1.5828  2.0379
28414SOL    HW291206   9.510   8.447   6.857 -0.3038 -0.2919  0.7886
28415SOL     OW91207   2.850   4.526  11.068  0.2538 -0.4591  0.0140
28415SOL    HW191208   2.922   4.539  11.006 -1.1108 -0.6539 -1.7025
28415SOL    HW291209   2.841   4.610  11.113  2.4627 -0.8665  1.3527
28416SOL     OW91210   8.387  11.398  12.012 -0.1503  0.0990  0.0373
28416SOL    HW191211   8.314  11.458  12.026  0.5711  1.2731 -1.0184
28416SOL    HW291212   8.464  11.447  12.043  0.1743 -1.2301  1.4169
28417SOL     OW91213   4.444   6.784   2.752  0.1516  0.2397  0.0983
28417SOL    HW191214   4.511   6.823   2.696  2.1833 -2.5314  0.3490
28417SOL    HW291215   4.471   6.692   2.761 -3.0996 -0.7574  1.1887
28418SOL     OW91216   5.292   7.907   3.375  0.1037  0.3024  0.1228
28418SOL    HW191217   5.345   7.870   3.304  0.8357 -0.8744  1.2506
28418SOL    HW291218   5.288   8.001   3.355  1.1806  0.1534 -0.9080
28419SOL     OW91219   7.829   5.399   9.770  0.1493 -0.1195 -0.5512
28419SOL    HW191220   7.863   5.310   9.775  0.0684 -0.1468 -0.4690
28419SOL    HW291221   7.839   5.425   9.679  1.6441  0.3757 -0.2722
28420SOL     OW91222  11.453   2.016  11.554  0.5594 -0.1506 -0.0944
28420SOL    HW191223  11.495   1.936  11.522  0.0072 -1.0940  1.4588
28420SOL    HW291224  11.505   2.041  11.630  0.2867  0.5625 -0.1398
28421SOL     OW91225   9.783   6.234   5.117  0.2230  0.4923  0.1596
28421SOL    HW191226   9.812   6.316   5.077 -0.8535  0.8206  0.0196
28421SOL    HW291227   9.756   6.258   5.206  0.3700  0.2035  0.2837
28422SOL     OW91228   1.704   2.828   3.278  0.0708  0.3239 -0.2709
28422SOL    HW191229   1.704   2.883   3.200  0.4419  1.4901  0.5107
28422SOL    HW291230   1.611   2.821   3.302 -0.0528 -0.1247 -0.8594
28423SOL     OW91231   3.058   8.786  10.174 -0.2512  0.3251 -0.3059
28423SOL    HW191232   3.140   8.799  10.222 -0.0792  2.2453 -1.0322
28423SOL    HW291233   3.068   8.838  10.095 -1.8284 -0.1385 -0.8502
28424SOL     OW91234   7.337   6.483   8.850  0.3675  0.1953  0.0055
28424SOL    HW191235   7.292   6.443   8.925 -0.1543  0.3436 -0.2242
28424SOL    HW291236   7.340   6.415   8.784  3.7778 -1.0813  1.2625
28425SOL     OW91237   7.600   8.166   9.585  0.0193  0.7233  0.5414
28425SOL    HW191238   7.584   8.072   9.582  2.6169  0.1682  1.4921
28425SOL    HW291239   7.599   8.194   9.493  2.8893 -1.0208 -0.1352
28426SOL     OW91240   1.311   5.562   0.767 -0.4364 -0.0744 -0.5866
28426SOL    HW191241   1.321   5.507   0.689 -0.5062 -0.7933 -0.0964
28426SOL    HW291242   1.256   5.635   0.738 -1.9517 -1.2478 -0.7643
28427SOL     OW91243   1.421   0.332   4.056 -0.2839 -0.3319 -0.2720
28427SOL    HW191244   1.503   0.290   4.082  0.0559  0.3223 -0.2661
28427SOL    HW291245   1.433   0.352   3.963  0.1374  1.0499  0.0604
28428SOL     OW91246   1.161   3.591   2.847 -0.2966  0.6108  0.3194
28428SOL    HW191247   1.114   3.508   2.847  0.9991 -0.1565  0.0602
28428SOL    HW291248   1.162   3.618   2.756 -0.5485  0.8235  0.3774
28429SOL     OW91249  10.322  11.641  10.107 -0.0275 -0.2290 -0.0515
28429SOL    HW191250  10.356  11.599  10.186 -1.2584 -0.4642  0.3712
28429SOL    HW291251  10.322  11.734  10.127  1.3509 -0.1084 -0.4639
28430SOL     OW91252   1.708   1.455   8.169  0.6941  0.2387  0.0254
28430SOL    HW191253   1.673   1.423   8.252  0.8738 -1.1923 -0.4237
28430SOL    HW291254   1.777   1.393   8.147  0.4117  0.3917 -1.3733
28431SOL     OW91255   4.428   8.602   6.206 -0.4627 -0.5994 -0.0185
28431SOL    HW191256   4.520   8.626   6.213 -0.5752  0.1858 -0.9805
28431SOL    HW291257   4.410   8.601   6.112 -2.1674  2.3892  0.1289
28432SOL     OW91258   2.842   1.781   1.225 -0.3490 -0.4518 -0.7119
28432SOL    HW191259   2.932   1.791   1.194 -0.5659  0.4757 -1.0733
28432SOL    HW291260   2.850   1.776   1.320  0.0184  0.5476 -0.6809
28433SOL     OW91261  10.206   3.530   3.314 -0.0062 -0.2169 -0.4395
28433SOL    HW191262  10.157   3.551   3.234 -0.2923 -0.3739 -0.3067
28433SOL    HW291263  10.278   3.476   3.284  0.5960  0.7331 -0.7550
28434SOL     OW91264   2.236   1.271   0.029 -0.3157  0.0938 -0.6315
28434SOL    HW191265   2.194   1.342  -0.020 -0.9050  0.8936  0.9430
28434SOL    HW291266   2.201   1.280   0.118  1.2383 -0.8343  0.1173
28435SOL     OW91267   1.451   2.401   2.546 -0.5678 -0.2886 -0.2368
28435SOL    HW191268   1.466   2.309   2.570 -0.7244 -1.2145 -3.2799
28435SOL    HW291269   1.395   2.397   2.469  0.6127  2.2911 -1.3553
28436SOL     OW91270   8.153   5.938   7.796 -0.7161 -0.3115  0.1414
28436SOL    HW191271   8.225   5.907   7.852 -0.9312 -1.6863 -0.2979
28436SOL    HW291272   8.154   6.033   7.806  0.9668 -0.3231  0.3919
28437SOL     OW91273   8.091   5.978   4.934  0.4591  0.0877  0.0225
28437SOL    HW191274   8.148   5.955   4.861  0.4379  1.5390 -0.5018
28437SOL    HW291275   8.052   6.062   4.907 -0.6871 -0.0865  1.0606
28438SOL     OW91276   3.331   1.876   1.290 -0.1407 -0.2096  0.3817
28438SOL    HW191277   3.350   1.949   1.231  1.0660 -0.4742  0.4213
28438SOL    HW291278   3.287   1.811   1.235  0.6896 -0.3214 -0.1641
28439SOL     OW91279   3.787  10.432   4.963 -0.3222  0.0564 -0.1169
28439SOL    HW191280   3.847  10.492   4.919  1.4845 -2.8413 -1.9870
28439SOL    HW291281   3.719  10.414   4.898 -1.7795  1.2652  1.0241
28440SOL     OW91282   1.704  10.748   4.973  0.3541  0.0223 -0.1785
28440SOL    HW191283   1.772  10.682   4.983  0.0281 -0.4659 -1.1011
28440SOL    HW291284   1.660  10.726   4.892 -0.2733  0.9178 -0.1041
28441SOL     OW91285   8.176  11.673   8.663 -0.6705 -0.1584 -0.1674
28441SOL    HW191286   8.240  11.744   8.672 -0.0030 -0.9646  2.3822
28441SOL    HW291287   8.220  11.596   8.700 -2.4573 -1.1635 -0.0265
28442SOL     OW91288   0.110   8.160   3.539 -0.4122 -0.0519  0.6236
28442SOL    HW191289   0.147   8.091   3.593  0.0361  1.1022  1.8616
28442SOL    HW291290   0.131   8.241   3.586  1.5057  1.2121 -2.0599
28443SOL     OW91291  11.051   2.504   4.140 -0.1076 -0.0374 -0.1941
28443SOL    HW191292  11.039   2.494   4.234 -0.6533 -1.1770 -0.3650
28443SOL    HW291293  10.962   2.515   4.106 -0.0976 -1.3683 -0.7354
28444SOL     OW91294  10.936   1.603   3.669  0.5210  0.9653  0.1491
28444SOL    HW191295  10.906   1.512   3.660  0.3970  0.9888  0.3222
28444SOL    HW291296  11.020   1.605   3.623  1.3053  0.3683  1.4856
28445SOL     OW91297   8.257   5.274   8.081 -0.5526  0.1588  0.5747
28445SOL    HW191298   8.269   5.204   8.017 -0.2275  0.3197  0.4557
28445SOL    HW291299   8.229   5.350   8.030 -1.2730  0.0182  0.7498
28446SOL     OW91300   5.390   3.236  10.762  0.3188  0.1729 -0.1233
28446SOL    HW191301   5.328   3.171  10.795  2.5139 -1.1265  1.7142
28446SOL    HW291302   5.335   3.300  10.717 -2.1066 -2.0915 -0.6422
28447SOL     OW91303  11.787   6.962   7.289 -0.0298 -0.0350  0.4140
28447SOL    HW191304  11.747   7.022   7.226 -0.8021  1.0947  1.9070
28447SOL    HW291305  11.714   6.909   7.320  0.6154 -1.7128 -0.7657
28448SOL     OW91306   6.774   4.275   6.536 -0.0848  0.3600  0.4451
28448SOL    HW191307   6.701   4.309   6.484 -0.6034 -2.4454 -0.8580
28448SOL    HW291308   6.852   4.302   6.489 -0.4839 -0.3600 -0.6779
28449SOL     OW91309   2.067   3.149   8.217  0.0880 -0.0999  0.6737
28449SOL    HW191310   2.099   3.193   8.139 -1.3478  0.2710  0.2653
28449SOL    HW291311   2.061   3.057   8.192 -1.9973  0.2348 -0.2776
28450SOL     OW91312   7.494   6.204   4.012 -0.1290  0.1677 -0.1995
28450SOL    HW191313   7.544   6.180   4.090 -0.4812 -0.8861 -0.2774
28450SOL    HW291314   7.411   6.238   4.046 -0.3043 -0.3403 -0.1009
28451SOL     OW91315  12.467   8.451   5.891  0.2975 -0.1411 -0.1283
28451SOL    HW191316  12.532   8.404   5.943 -0.2294 -1.5558 -0.6958
28451SOL    HW291317  12.447   8.529   5.942  0.7648 -0.8334  1.1530
28452SOL     OW91318   1.671   2.252   0.523 -0.1798  0.0080 -0.3090
28452SOL    HW191319   1.730   2.192   0.569 -0.6602  0.5841  1.1060
28452SOL    HW291320   1.592   2.200   0.506  0.0548 -0.2473 -0.6398
28453SOL     OW91321   6.953   3.788   6.042 -0.0479 -0.2632  0.5153
28453SOL    HW191322   6.961   3.837   6.124 -0.1319  1.5322 -0.4945
28453SOL    HW291323   6.961   3.854   5.974  2.2464 -1.9672 -1.0172
28454SOL     OW91324   6.877   4.029   0.648 -0.7424 -0.5577 -0.5200
28454SOL    HW191325   6.914   4.117   0.649 -2.7405  0.3391  0.3607
28454SOL    HW291326   6.830   4.024   0.564 -0.5425 -0.8410 -0.6174
28455SOL     OW91327   9.990  10.416   6.401  0.2607  0.2486  0.1528
28455SOL    HW191328   9.974  10.423   6.495 -1.0126  0.7181 -0.0721
28455SOL    HW291329  10.021  10.502   6.375  0.7394  0.0804  0.1635
28456SOL     OW91330   8.897   0.252   9.379 -0.0350  0.6003 -0.3665
28456SOL    HW191331   8.850   0.325   9.419  0.2639  0.0500  1.0740
28456SOL    HW291332   8.989   0.268   9.400 -0.1518 -1.2505  1.9026
28457SOL     OW91333   0.435   1.172   4.794  0.3147 -0.2123  0.4091
28457SOL    HW191334   0.372   1.170   4.866  0.5197 -0.5286  0.5807
28457SOL    HW291335   0.383   1.155   4.715 -0.2407  1.9775  0.2360
28458SOL     OW91336   1.244   8.797   0.896  0.1620 -0.1633  0.2805
28458SOL    HW191337   1.157   8.815   0.931 -0.6207 -2.0488 -0.5390
28458SOL    HW291338   1.267   8.712   0.933  0.5657 -0.8275 -1.3882
28459SOL     OW91339   7.557  10.756   2.957  0.4791  0.0719 -0.3499
28459SOL    HW191340   7.625  10.779   2.894  2.9930  0.6839  2.3514
28459SOL    HW291341   7.525  10.841   2.989  1.6446 -0.1302  1.4981
28460SOL     OW91342   2.397  11.524   7.191  0.1855  0.5851 -0.0737
28460SOL    HW191343   2.348  11.605   7.205 -0.1706  0.2143  0.8993
28460SOL    HW291344   2.488  11.553   7.179 -0.0092  1.1566 -0.2124
28461SOL     OW91345   7.401   5.925   7.189  0.1508 -0.2226 -0.3042
28461SOL    HW191346   7.488   5.943   7.225 -0.0363  2.0444 -0.8393
28461SOL    HW291347   7.340   5.953   7.259 -0.1684  2.0515 -1.4039
28462SOL     OW91348   7.197   5.975   0.951  0.2467 -0.1940 -0.3599
28462SOL    HW191349   7.221   5.893   0.908 -0.1364 -0.4521 -0.0838
28462SOL    HW291350   7.185   6.037   0.878 -1.4036 -0.8901 -0.7196
28463SOL     OW91351  10.754   6.495  11.371  0.0085  0.0482 -0.0880
28463SOL    HW191352  10.830   6.452  11.411 -1.3820 -1.0215  1.5136
28463SOL    HW291353  10.704   6.528  11.445 -2.1364 -1.0627 -0.9774
28464SOL     OW91354   9.865   4.660   3.635 -1.1048  0.2496  0.3653
28464SOL    HW191355   9.859   4.746   3.675 -0.2397  0.2479  0.5267
28464SOL    HW291356   9.855   4.598   3.707  0.3547  0.2462  0.5956
28465SOL     OW91357   1.213   7.411   7.361  0.3273 -0.2172 -0.4709
28465SOL    HW191358   1.194   7.375   7.274  0.5918  0.2711 -0.7411
28465SOL    HW291359   1.160   7.360   7.421 -1.5070  0.8010 -1.1485
28466SOL     OW91360  10.988   9.789   9.126 -0.2976 -0.4158  0.5984
28466SOL    HW191361  10.896   9.817   9.122  0.1905  1.2343  0.0315
28466SOL    HW291362  10.985   9.695   9.107 -1.8921 -0.4655  0.9277
28467SOL     OW91363   1.513   8.326   9.089 -0.2889 -0.0811  0.5057
28467SOL    HW191364   1.602   8.315   9.122  0.2456 -2.8345 -1.4717
28467SOL    HW291365   1.458   8.278   9.152 -0.2223  0.5254  1.0338
28468SOL     OW91366   4.523   5.121   4.719  0.2272 -0.2622 -0.3917
28468SOL    HW191367   4.594   5.128   4.783 -0.1073 -0.6385  0.0247
28468SOL    HW291368   4.544   5.187   4.653 -0.8592  2.1121  1.4985
28469SOL     OW91369   2.845  11.970   7.257 -0.0431  0.5059 -0.5500
28469SOL    HW191370   2.764  11.933   7.221 -1.3716  3.1997 -0.6191
28469SOL    HW291371   2.908  11.963   7.185 -1.2848  1.4842 -1.8133
28470SOL     OW91372   9.454   8.261   5.963 -0.5388 -0.3994  0.2096
28470SOL    HW191373   9.501   8.345   5.968 -0.3971 -0.4503 -0.2408
28470SOL    HW291374   9.443   8.245   5.870 -1.1537 -0.5619  0.3033
28471SOL     OW91375   0.428   3.452   8.614 -0.3038  0.1615 -0.6838
28471SOL    HW191376   0.511   3.478   8.656  0.7859 -2.1016 -1.2726
28471SOL    HW291377   0.364   3.456   8.684  0.6345  0.4134  0.1900
28472SOL     OW91378   1.941   6.209   6.677  0.5300  0.4707 -0.2876
28472SOL    HW191379   1.873   6.196   6.611  1.0839 -0.2616 -0.7377
28472SOL    HW291380   2.022   6.185   6.632  0.8207 -1.0414  0.9527
28473SOL     OW91381   1.229   7.956   7.429  0.1496  0.1785  0.5815
28473SOL    HW191382   1.251   8.023   7.494  2.0861  1.3994 -1.1978
28473SOL    HW291383   1.314   7.924   7.398 -0.7346 -1.9988  0.2300
28474SOL     OW91384  10.512   5.448  12.445  0.5128  0.0779 -0.3646
28474SOL    HW191385  10.554   5.527  12.411 -0.7754  1.1101  0.3366
28474SOL    HW291386  10.580   5.406  12.498  0.6876  1.7630  0.8370
28475SOL     OW91387   1.362   9.159  10.303 -0.3435  0.2143  0.0925
28475SOL    HW191388   1.338   9.088  10.243 -1.7745 -0.9041  1.8958
28475SOL    HW291389   1.335   9.239  10.258  0.7640 -0.3883 -1.7336
28476SOL     OW91390  10.176  12.303   4.304 -0.1114  1.0020  0.1176
28476SOL    HW191391  10.224  12.336   4.380 -1.3792  2.5174  0.3108
28476SOL    HW291392  10.084  12.302   4.333 -0.7725  2.6916 -1.7011
28477SOL     OW91393   4.971   7.021   2.042 -0.3013  0.2661  0.6425
28477SOL    HW191394   4.930   7.082   1.981  0.9772  1.6623  1.1352
28477SOL    HW291395   5.054   6.999   2.001 -0.7817 -1.2837  0.4188
28478SOL     OW91396   9.440  11.435   9.452  0.2780 -0.4817 -0.3740
28478SOL    HW191397   9.493  11.514   9.442  0.7391 -0.8710 -1.1160
28478SOL    HW291398   9.409  11.416   9.363 -1.3295 -0.1303  0.0662
28479SOL     OW91399  12.464  11.341  11.974 -0.2252 -0.1285  0.6305
28479SOL    HW191400  12.527  11.273  11.998 -0.0823  0.5097  2.2093
28479SOL    HW291401  12.503  11.385  11.898  0.2257 -1.0572  0.3155
28480SOL     OW91402   9.261   5.339   9.635 -0.0182 -0.2480  0.3904
28480SOL    HW191403   9.196   5.324   9.567 -0.3549 -1.1980  0.8979
28480SOL    HW291404   9.308   5.256   9.641  1.7619  0.6403 -0.4782
28481SOL     OW91405   6.314   6.944   2.686 -0.5262 -0.0102 -0.5902
28481SOL    HW191406   6.278   7.025   2.722  0.4164  0.0666  0.2119
28481SOL    HW291407   6.408   6.961   2.679 -0.4202 -0.7796 -1.1078
28482SOL     OW91408   7.308   3.391   1.193 -0.1049  0.1563  0.2775
28482SOL    HW191409   7.234   3.419   1.137 -0.2136 -0.5784  0.0414
28482SOL    HW291410   7.365   3.467   1.196 -0.4966  0.4789 -0.1803
28483SOL     OW91411   3.982   8.706   9.596  0.4426  0.2435 -0.0070
28483SOL    HW191412   3.888   8.703   9.615  0.7470  0.1100  1.5445
28483SOL    HW291413   3.986   8.727   9.502 -1.1364 -0.6352 -0.3033
28484SOL     OW91414  12.319   1.040   8.915  0.0355 -0.1650  0.4499
28484SOL    HW191415  12.225   1.026   8.912 -0.2383  1.4166  0.5132
28484SOL    HW291416  12.357   0.966   8.867 -1.1692 -1.2196  1.0751
28485SOL     OW91417   6.834   0.086   6.967  0.5663  0.0194  0.4981
28485SOL    HW191418   6.885   0.087   7.048  0.4688 -1.0353  0.5827
28485SOL    HW291419   6.864   0.164   6.919 -0.5623  1.6249  2.2473
28486SOL     OW91420  12.261   9.466   7.757  0.3385  0.0691 -0.4796
28486SOL    HW191421  12.286   9.554   7.786  1.5774 -0.6579  0.8181
28486SOL    HW291422  12.342   9.430   7.720 -0.4449 -0.1406 -2.0342
28487SOL     OW91423   5.190   1.935   0.034  0.0348  0.2817  0.3929
28487SOL    HW191424   5.200   1.875   0.107 -0.2323 -1.0585 -0.6353
28487SOL    HW291425   5.159   1.880  -0.038  2.4134  1.1009 -1.3734
28488SOL     OW91426   0.483   9.355   1.482 -0.1328  0.2452  0.3648
28488SOL    HW191427   0.572   9.341   1.451 -0.3631 -0.0176 -0.2047
28488SOL    HW291428   0.428   9.306   1.419 -0.8130  1.8616 -0.3517
28489SOL     OW91429   5.142   8.690   9.038 -0.3152 -0.2026 -0.0039
28489SOL    HW191430   5.146   8.681   9.133 -0.1666  0.5709  0.0701
28489SOL    HW291431   5.227   8.658   9.007 -0.2779 -0.2480  0.1451
28490SOL     OW91432   1.978   4.837   2.009  0.0986  0.1053 -0.0365
28490SOL    HW191433   1.910   4.867   2.069 -1.0914 -0.7168 -0.9348
28490SOL    HW291434   2.015   4.918   1.974  0.8198  0.6004  1.7602
28491SOL     OW91435  11.490   8.229   4.159  0.2876  0.2221  0.2420
28491SOL    HW191436  11.414   8.203   4.210 -2.1158  3.2693 -1.4015
28491SOL    HW291437  11.485   8.176   4.080  0.8041 -0.6669  0.7980
28492SOL     OW91438   8.711   1.940   6.315  0.7908 -0.3063 -0.3319
28492SOL    HW191439   8.727   1.890   6.234  0.8806  0.8685 -1.0630
28492SOL    HW291440   8.797   1.976   6.338  1.3353 -2.6659  1.7422
28493SOL     OW91441   4.806   9.440   1.612  0.8984  0.3019 -0.2774
28493SOL    HW191442   4.753   9.383   1.555  0.1086  2.2633 -1.5956
28493SOL    HW291443   4.848   9.379   1.674 -0.7169 -1.5907 -0.9376
28494SOL     OW91444   0.277   5.411   2.573  0.1270  0.0590 -0.6196
28494SOL    HW191445   0.331   5.413   2.652  1.8583 -0.5692 -1.7246
28494SOL    HW291446   0.334   5.441   2.503 -1.8891  2.3588 -1.4329
28495SOL     OW91447   0.937   6.861   7.373  0.2695 -0.1394  0.6346
28495SOL    HW191448   0.862   6.918   7.391  0.7822  0.3950  1.1129
28495SOL    HW291449   0.962   6.881   7.283 -0.6568 -0.9084  0.1850
28496SOL     OW91450   1.865  12.120   5.963  0.6220 -0.0939  0.0347
28496SOL    HW191451   1.880  12.026   5.952 -0.0615 -0.0456 -1.4410
28496SOL    HW291452   1.902  12.160   5.885 -0.8191  0.6777 -0.2853
28497SOL     OW91453   6.815   7.288   8.188  0.0088  0.2739  0.4812
28497SOL    HW191454   6.816   7.292   8.092 -0.3122  0.9704  0.5006
28497SOL    HW291455   6.747   7.224   8.208 -0.9425  1.1860  0.2541
28498SOL     OW91456   1.068   8.248   1.767 -0.1829 -0.0533 -0.5274
28498SOL    HW191457   1.161   8.230   1.781 -0.4957 -1.8499 -0.6027
28498SOL    HW291458   1.068   8.327   1.712  1.2608  0.4701  0.1524
28499SOL     OW91459   6.406   2.759   5.440  0.1252 -0.2970 -0.0894
28499SOL    HW191460   6.441   2.828   5.383  1.0825  0.7550  1.6958
28499SOL    HW291461   6.425   2.788   5.529 -3.4356 -0.7064  0.9735
28500SOL     OW91462   0.087   2.447   7.488  0.7678  0.3129  0.4742
28500SOL    HW191463   0.045   2.468   7.571  1.3437  1.0951  0.5770
28500SOL    HW291464   0.061   2.518   7.429 -1.8251 -1.5415 -0.8505
28501SOL     OW91465   2.350  11.901  12.371 -0.3727  0.3127 -0.3669
28501SOL    HW191466   2.390  11.852  12.299  2.7223 -1.6059  2.3484
28501SOL    HW291467   2.272  11.851  12.394  0.2348 -0.7528 -0.5495
28502SOL     OW91468   5.132   9.815   5.474  0.6001 -0.7667  0.3230
28502SOL    HW191469   5.041   9.784   5.475  0.2478  0.2646  1.2045
28502SOL    HW291470   5.156   9.813   5.381  0.6371 -3.6954  0.3079
28503SOL     OW91471   6.151   4.871   4.516  0.1946 -0.1053  0.2494
28503SOL    HW191472   6.218   4.856   4.449  0.1666 -0.0464  0.2083
28503SOL    HW291473   6.091   4.797   4.507 -0.0094  0.0916 -0.0309
28504SOL     OW91474   1.223  11.074   0.271  0.0269  0.7706 -0.5130
28504SOL    HW191475   1.289  11.042   0.333 -0.6785 -1.1228 -0.7062
28504SOL    HW291476   1.268  11.146   0.226  1.3812  0.6290  0.5046
28505SOL     OW91477   5.467   9.646   6.965  0.8218  0.2114  0.1053
28505SOL    HW191478   5.490   9.674   7.054  1.0805  3.4349 -0.8511
28505SOL    HW291479   5.372   9.639   6.967  0.9502 -2.0799  1.1691
28506SOL     OW91480   5.887   1.456   5.189  0.2189  0.0941 -0.2049
28506SOL    HW191481   5.922   1.542   5.167 -0.5824  0.7483  0.9740
28506SOL    HW291482   5.960   1.396   5.176  1.3234  1.2051  0.6796
28507SOL     OW91483   1.174   9.006  11.291 -0.0488 -0.2834 -0.4085
28507SOL    HW191484   1.246   8.989  11.230  1.4689 -3.1364  1.9318
28507SOL    HW291485   1.118   8.929  11.283  0.3074 -0.8504  1.8005
28508SOL     OW91486   0.352  11.430  10.280 -0.2676  0.2902  0.7125
28508SOL    HW191487   0.357  11.440  10.375 -0.5820  1.6126  0.6214
28508SOL    HW291488   0.398  11.507  10.246 -1.4411  0.6298 -0.1751
28509SOL     OW91489   5.700   0.518   2.019 -0.0255 -0.1464  0.2189
28509SOL    HW191490   5.748   0.588   1.974 -2.4695  1.3889 -0.1479
28509SOL    HW291491   5.769   0.458   2.048  1.8670 -0.0895 -3.5538
28510SOL     OW91492   3.523   7.951   4.770  0.3146  0.3004 -0.2599
28510SOL    HW191493   3.481   7.934   4.686 -1.2572 -0.5001  0.6303
28510SOL    HW291494   3.591   7.884   4.777 -1.1011 -1.1778  0.0799
28511SOL     OW91495  10.708   9.915   9.084 -0.2767  0.3920  0.1060
28511SOL    HW191496  10.627   9.892   9.038 -0.4439 -0.9613  1.0099
28511SOL    HW291497  10.738   9.995   9.041 -1.8479  0.6720 -0.5441
28512SOL     OW91498   7.068   5.382   5.549 -0.0307 -0.5236 -0.1222
28512SOL    HW191499   7.051   5.453   5.611 -1.7248  0.0165 -1.1164
28512SOL    HW291500   7.078   5.304   5.603 -0.7972  0.0501  0.8704
28513SOL     OW91501   2.860   3.904   2.283 -0.7485 -0.0408 -0.6441
28513SOL    HW191502   2.811   3.849   2.344  0.3082 -0.7545 -0.4160
28513SOL    HW291503   2.910   3.964   2.340 -0.5762  0.0001 -0.8356
28514SOL     OW91504   4.196  10.646   9.040 -0.1838  0.0381  1.0595
28514SOL    HW191505   4.189  10.649   9.136  2.7096  0.8088  1.3481
28514SOL    HW291506   4.243  10.726   9.017  1.9790 -1.5688 -0.6076
28515SOL     OW91507  12.131   0.549   3.691 -0.4841 -0.1702  0.0047
28515SOL    HW191508  12.146   0.531   3.598 -1.0715 -0.8868  0.0417
28515SOL    HW291509  12.208   0.600   3.718  1.2556 -2.5601 -0.1396
28516SOL     OW91510  11.904   7.453   4.633  0.3677  0.2877  0.3050
28516SOL    HW191511  11.910   7.371   4.584 -1.9174 -0.4121  1.0726
28516SOL    HW291512  11.951   7.517   4.579  1.4056 -1.3114 -0.7552
28517SOL     OW91513   0.205   4.201  12.065 -0.3467  0.1770 -0.0885
28517SOL    HW191514   0.271   4.247  12.013 -0.7211  0.4521 -0.3224
28517SOL    HW291515   0.183   4.262  12.135  0.2116 -0.2218  0.4488
28518SOL     OW91516   6.388   9.573   7.172  0.2570  0.0066 -0.7119
28518SOL    HW191517   6.452   9.569   7.243 -0.9269 -1.4121  0.3344
28518SOL    HW291518   6.442   9.569   7.092  1.5194 -0.5236  0.1203
28519SOL     OW91519   8.198   5.056   5.424  0.0229  0.0320  0.5668
28519SOL    HW191520   8.185   4.984   5.362 -0.4977  1.5943 -1.2143
28519SOL    HW291521   8.253   5.018   5.493  0.8405 -1.7152 -0.9584
28520SOL     OW91522   1.358   1.348   6.607 -0.3614 -0.1215 -0.2593
28520SOL    HW191523   1.305   1.277   6.642  0.4689 -0.0365  1.2867
28520SOL    HW291524   1.307   1.384   6.535 -1.9155 -0.7154  0.5072
28521SOL     OW91525   2.998   1.325   1.620  0.3264 -0.8202  0.0254
28521SOL    HW191526   3.025   1.374   1.542  1.0196 -1.0325  0.1244
28521SOL    HW291527   3.009   1.387   1.693 -1.4068 -0.2423 -0.1506
28522SOL     OW91528   9.860   2.198  11.812 -0.3441 -0.0495 -0.2721
28522SOL    HW191529   9.883   2.278  11.765  1.8318 -0.7701 -0.5432
28522SOL    HW291530   9.875   2.128  11.748  0.3710 -0.8655  0.7565
28523SOL     OW91531  10.938   8.375   0.359 -0.1908  0.0438  0.0263
28523SOL    HW191532  10.933   8.365   0.454 -1.7998 -0.0087 -0.0330
28523SOL    HW291533  10.955   8.468   0.345 -0.1888  0.0947  0.3736
28524SOL     OW91534  10.857   8.989   1.043  0.1025 -0.9133 -0.1773
28524SOL    HW191535  10.815   9.068   1.076  1.3232  0.1877 -1.1478
28524SOL    HW291536  10.822   8.918   1.098  0.4105  0.5159  1.9859
28525SOL     OW91537  11.290   3.768   6.048  0.3508  0.4238 -0.2252
28525SOL    HW191538  11.294   3.831   5.977  1.6149  0.7740  0.1391
28525SOL    HW291539  11.349   3.803   6.115 -0.2087 -0.2955  0.6741
28526SOL     OW91540   9.667   6.349  10.146 -0.2558 -0.5736  0.0483
28526SOL    HW191541   9.655   6.269  10.197  0.0842 -0.6521  0.0089
28526SOL    HW291542   9.579   6.386  10.139 -0.3886 -0.8482  0.2222
28527SOL     OW91543   8.996   4.938   5.285 -0.5351  0.4985  0.4061
28527SOL    HW191544   8.955   4.852   5.300  1.3709 -0.4222  0.6157
28527SOL    HW291545   9.024   4.966   5.372  1.3648 -0.0298  0.0113
28528SOL     OW91546   9.877   7.210   2.005  0.6743  0.1010  0.7455
28528SOL    HW191547   9.876   7.242   1.915  2.6819  1.1304  1.0122
28528SOL    HW291548   9.873   7.115   1.998  2.1770  0.0940 -0.5473
28529SOL     OW91549   5.090   6.438   8.530  0.2296  0.4032  0.1853
28529SOL    HW191550   5.169   6.478   8.492 -0.9347  1.6090 -1.0816
28529SOL    HW291551   5.083   6.353   8.486  2.3686 -1.0816  2.4299
28530SOL     OW91552   1.486   8.708  11.179 -0.5215  0.0125  0.2163
28530SOL    HW191553   1.576   8.706  11.210 -0.6519  0.7139  0.6645
28530SOL    HW291554   1.438   8.656  11.244 -0.1717 -1.8985 -0.9969
28531SOL     OW91555   7.767  11.426   0.276 -0.1917 -0.6282  0.0982
28531SOL    HW191556   7.839  11.366   0.295  0.6000  0.5614  1.0173
28531SOL    HW291557   7.787  11.462   0.190  0.4484 -0.1305  0.4491
28532SOL     OW91558  10.691   7.697  11.750  0.1552 -0.0577  0.9154
28532SOL    HW191559  10.638   7.702  11.829  0.3453  1.9460  0.9581
28532SOL    HW291560  10.734   7.612  11.756 -1.7306 -1.0253  1.7066
28533SOL     OW91561   3.422  12.119   9.794  0.1648 -0.2005 -0.4550
28533SOL    HW191562   3.355  12.059   9.829  1.0134  0.0503  1.7767
28533SOL    HW291563   3.444  12.175   9.868  3.3160 -0.7108 -0.8776
28534SOL     OW91564   3.470   6.189   7.860  0.4938 -0.2937  0.4456
28534SOL    HW191565   3.392   6.170   7.911 -0.3507 -1.1274 -1.0921
28534SOL    HW291566   3.438   6.233   7.782  1.5132 -0.9277 -0.3598
28535SOL     OW91567   4.899   6.218  11.982  0.3997  0.5028  0.3383
28535SOL    HW191568   4.879   6.230  12.075 -2.5095 -0.8925 -0.0094
28535SOL    HW291569   4.884   6.305  11.943 -1.9947  0.3105  0.6802
28536SOL     OW91570   4.444   0.766  11.033  0.4171 -0.7093  0.2557
28536SOL    HW191571   4.367   0.803  11.077  0.5668  0.2248 -0.2388
28536SOL    HW291572   4.506   0.839  11.028 -0.0086 -0.4314 -2.4512
28537SOL     OW91573   3.855  10.843   4.964  0.5040  0.0832  0.7454
28537SOL    HW191574   3.789  10.774   4.973  0.1463  0.4179  0.7014
28537SOL    HW291575   3.806  10.925   4.977  0.7964  0.3637  0.1175
28538SOL     OW91576   2.445   5.608   8.957 -0.3714 -0.0252 -0.0361
28538SOL    HW191577   2.387   5.532   8.959 -1.2495  0.6040  2.3793
28538SOL    HW291578   2.499   5.599   9.035 -0.6438  1.8845  0.4195
28539SOL     OW91579   2.566   4.241   4.736  0.7031 -0.1124  0.7546
28539SOL    HW191580   2.565   4.251   4.831 -0.4350 -0.8197  0.8346
28539SOL    HW291581   2.635   4.300   4.707  1.5094 -0.3665  2.0685
28540SOL     OW91582   8.759   7.447   4.336  0.9490  0.0243 -0.1644
28540SOL    HW191583   8.786   7.456   4.245 -1.0121 -0.8469 -0.8737
28540SOL    HW291584   8.728   7.357   4.344 -0.9372  0.7099  0.7694
28541SOL     OW91585  11.971   0.092   8.569 -0.0154 -0.2802 -0.1464
28541SOL    HW191586  11.903   0.072   8.632 -0.6404 -0.4998 -0.8766
28541SOL    HW291587  12.048   0.045   8.601  0.1686  0.9731  1.3719
28542SOL     OW91588   1.455   5.973   4.662  0.6528 -0.1927  0.0666
28542SOL    HW191589   1.465   6.062   4.696  0.3963 -0.2952  0.4173
28542SOL    HW291590   1.493   5.916   4.729 -1.4142 -0.5239  1.0494
28543SOL     OW91591  10.706  11.353   3.710 -0.3021  0.2308 -0.4547
28543SOL    HW191592  10.799  11.373   3.711 -0.4947  1.2503 -1.3245
28543SOL    HW291593  10.693  11.295   3.785  0.9893  0.2304 -0.2133
28544SOL     OW91594   1.488   3.949   9.056 -0.9202 -0.2954  0.0748
28544SOL    HW191595   1.545   3.959   8.980  0.1261 -1.0584  0.7239
28544SOL    HW291596   1.448   4.035   9.068  0.3907  0.3799 -0.1967
28545SOL     OW91597   0.103   7.895   8.180 -0.5022 -0.4160  0.2294
28545SOL    HW191598   0.091   7.971   8.237 -1.7482 -0.9470  0.7107
28545SOL    HW291599   0.092   7.930   8.091  1.6463  0.4483  0.2567
28546SOL     OW91600   4.804   8.991  10.211  0.3604  0.3925 -0.0867
28546SOL    HW191601   4.731   8.929  10.217  0.5966  0.1704  0.5115
28546SOL    HW291602   4.803   9.020  10.119 -0.4545  0.3637 -0.0893
28547SOL     OW91603   4.400   5.436   4.672 -0.3939  0.1009  0.0967
28547SOL    HW191604   4.433   5.453   4.760  0.6977  0.9468 -0.4455
28547SOL    HW291605   4.478   5.411   4.622 -1.0077 -0.4249 -0.6135
28548SOL     OW91606   5.736   6.133  10.102 -0.2524  0.1073 -0.4389
28548SOL    HW191607   5.725   6.065  10.169  1.5379  0.1186 -0.0647
28548SOL    HW291608   5.767   6.085  10.025 -3.5091 -0.0924 -1.7951
28549SOL     OW91609   4.918   5.970   5.545 -0.4717 -0.2709 -0.4017
28549SOL    HW191610   4.990   6.030   5.564  1.2578 -2.2753 -0.3701
28549SOL    HW291611   4.906   5.977   5.450  0.3721 -0.5620 -0.5379
28550SOL     OW91612   5.526   0.330   2.050  0.0759  0.5220 -0.2066
28550SOL    HW191613   5.591   0.396   2.027 -1.1055  2.1245  0.8790
28550SOL    HW291614   5.446   0.357   2.005 -0.7213  0.4786  1.1169
28551SOL     OW91615  10.395   5.777   9.691 -0.2262 -0.3758 -0.0735
28551SOL    HW191616  10.453   5.835   9.641  0.8199 -1.0690  0.2795
28551SOL    HW291617  10.366   5.830   9.765  0.7958 -0.3223  0.3019
28552SOL     OW91618   7.893  12.223  10.414  0.0556  0.3363 -0.3915
28552SOL    HW191619   7.967  12.280  10.436  1.3485 -1.4670  0.1172
28552SOL    HW291620   7.905  12.204  10.321  0.8721 -0.7661 -0.0891
28553SOL     OW91621   0.822   0.551   2.308  0.1712 -0.0419  0.0085
28553SOL    HW191622   0.883   0.492   2.262 -0.7390  0.4324 -1.8721
28553SOL    HW291623   0.869   0.634   2.314  0.4940 -0.2481  0.4562
28554SOL     OW91624   6.861   8.802   0.799  0.1213  0.0471 -0.5845
28554SOL    HW191625   6.950   8.833   0.782 -0.0814  0.4183 -0.9882
28554SOL    HW291626   6.835   8.846   0.880  0.9604 -1.4543  0.5529
28555SOL     OW91627   4.880   5.044   3.716 -0.0188  0.4412  0.5612
28555SOL    HW191628   4.907   5.026   3.626 -1.0586  0.8402  0.1489
28555SOL    HW291629   4.789   5.073   3.708 -0.8427 -1.5324  1.9250
28556SOL     OW91630   1.964   0.933   5.593 -0.2209 -0.8643  0.3142
28556SOL    HW191631   2.041   0.903   5.640  0.1785  0.5398  0.6229
28556SOL    HW291632   1.912   0.980   5.659  0.8141  1.9775 -0.7085
28557SOL     OW91633   2.930   3.902   2.022  0.1659 -0.1341  0.2019
28557SOL    HW191634   2.905   3.904   2.114 -0.9858 -1.7314 -0.0344
28557SOL    HW291635   2.878   3.971   1.981 -0.3914 -0.3668  0.5104
28558SOL     OW91636   7.995   3.639   0.617  0.3541 -0.2910 -0.7937
28558SOL    HW191637   7.963   3.577   0.551 -2.8212 -0.3058  0.6161
28558SOL    HW291638   7.920   3.656   0.673  2.3157  1.4976  1.5030
28559SOL     OW91639   7.604   5.817  10.821  0.1367  0.1579 -0.1075
28559SOL    HW191640   7.673   5.826  10.887  0.1147 -1.5597  0.2143
28559SOL    HW291641   7.651   5.807  10.739  0.3214 -1.2301  0.1385
28560SOL     OW91642   3.266   3.047   4.154 -0.5420 -0.7741  0.5577
28560SOL    HW191643   3.240   3.138   4.172 -2.0509 -1.2249  0.8240
28560SOL    HW291644   3.183   2.999   4.151  0.1514 -1.9644 -0.6441
28561SOL     OW91645   5.518   4.227   5.629  0.3176 -0.7678  0.1125
28561SOL    HW191646   5.541   4.288   5.699  0.7440 -0.6323 -0.1437
28561SOL    HW291647   5.552   4.143   5.659  2.6092 -0.3049 -0.9476
28562SOL     OW91648  11.738   5.100   0.516  0.3982  0.2821 -0.1309
28562SOL    HW191649  11.698   5.115   0.602  1.2466  1.7434  0.0314
28562SOL    HW291650  11.801   5.030   0.530  0.4298  0.4173  0.4120
28563SOL     OW91651  10.951   8.373   2.323  0.0532  0.3721  0.0881
28563SOL    HW191652  10.874   8.332   2.284  0.0325  0.7758 -0.3043
28563SOL    HW291653  10.922   8.461   2.346  0.5791  0.7617 -0.6835
28564SOL     OW91654   4.395   4.296   8.269 -0.2035  0.7739  0.1708
28564SOL    HW191655   4.307   4.259   8.256 -1.2632  3.5408 -1.3922
28564SOL    HW291656   4.442   4.274   8.189 -0.4294  1.6543 -0.2164
28565SOL     OW91657   9.848   4.284   4.042  0.4710 -0.3770  0.3075
28565SOL    HW191658   9.838   4.226   4.118 -0.4646 -0.2739  0.2737
28565SOL    HW291659   9.886   4.229   3.974  1.3527 -0.4627  0.8609
28566SOL     OW91660   4.850   6.300  10.412 -0.5731 -0.3265  0.2304
28566SOL    HW191661   4.859   6.339  10.499 -1.0449 -0.2575  0.2501
28566SOL    HW291662   4.887   6.366  10.353 -1.0854  0.0231  0.2933
28567SOL     OW91663   2.019   7.220  10.623  0.1064  0.2604 -0.1273
28567SOL    HW191664   1.982   7.168  10.553  1.5603 -0.7750 -0.1599
28567SOL    HW291665   2.078   7.161  10.670 -0.6021  0.9825  1.8193
28568SOL     OW91666   4.256   1.225  10.315  0.0910  0.2430 -0.0379
28568SOL    HW191667   4.265   1.156  10.249  1.5798  0.0830  0.3045
28568SOL    HW291668   4.333   1.280  10.303 -0.7609  1.5104  0.1097
28569SOL     OW91669   3.653   3.133   8.978 -0.2809  0.4347  0.1198
28569SOL    HW191670   3.603   3.193   8.923 -0.6944  1.5130  1.6000
28569SOL    HW291671   3.611   3.048   8.966  1.5110 -0.1479 -3.5464
28570SOL     OW91672   9.251   7.541   7.061 -0.0771  0.1498  0.4202
28570SOL    HW191673   9.283   7.464   7.108 -0.6435  0.2658  1.0077
28570SOL    HW291674   9.181   7.508   7.005  1.8770 -0.3725 -1.9444
28571SOL     OW91675   8.913   5.581   0.429 -0.4719 -0.1955  0.1201
28571SOL    HW191676   8.907   5.668   0.469 -0.2639 -0.2192  0.2043
28571SOL    HW291677   8.880   5.592   0.340 -2.2939 -0.4291  0.7186
28572SOL     OW91678   1.365   7.647   6.550 -0.2874 -0.2472  0.1377
28572SOL    HW191679   1.382   7.707   6.622 -2.0084  0.6443 -0.1337
28572SOL    HW291680   1.271   7.631   6.554 -0.5217  0.2194 -2.1715
28573SOL     OW91681   4.580  10.058   5.143 -0.1255  0.8655 -0.0863
28573SOL    HW191682   4.674  10.075   5.145 -0.1565  1.1029 -0.6466
28573SOL    HW291683   4.559  10.047   5.051 -0.3644 -0.8129  0.1401
28574SOL     OW91684   2.470   5.254  10.796 -0.6091  0.2272  0.1910
28574SOL    HW191685   2.431   5.309  10.864 -2.0375  0.1281 -0.5110
28574SOL    HW291686   2.532   5.198  10.843 -1.1148  0.5865  1.3132
28575SOL     OW91687   8.523   1.453   7.624 -0.6244 -0.3043  0.3489
28575SOL    HW191688   8.559   1.521   7.568 -1.6523 -0.4209 -0.4713
28575SOL    HW291689   8.597   1.426   7.679  0.7592 -1.0820 -1.7940
28576SOL     OW91690  10.664  11.444   3.457 -0.1619  0.7562  0.2429
28576SOL    HW191691  10.721  11.521   3.452  1.7805 -0.6240  0.0489
28576SOL    HW291692  10.678  11.410   3.546 -2.1096  1.3606  0.8449
28577SOL     OW91693   5.901   0.176   7.641  0.7679 -0.7285 -0.0524
28577SOL    HW191694   5.900   0.254   7.586 -0.1915  0.0793  1.0558
28577SOL    HW291695   5.908   0.210   7.730  1.6925 -1.9801  0.3757
28578SOL     OW91696   5.314   7.371   3.831  0.1876 -0.5877 -0.1171
28578SOL    HW191697   5.245   7.435   3.817 -0.1953 -0.6686  1.2555
28578SOL    HW291698   5.365   7.407   3.903  1.2358 -0.8237 -0.7192
28579SOL     OW91699   5.747   5.585   8.246  0.6626 -0.1146  0.3861
28579SOL    HW191700   5.791   5.538   8.175 -1.2010 -0.7429 -0.4262
28579SOL    HW291701   5.758   5.677   8.224  0.3773 -0.2929 -0.5632
28580SOL     OW91702  10.893  11.095   6.610  0.3549 -0.0522 -0.6385
28580SOL    HW191703  10.876  11.183   6.645 -0.5489 -1.0259  1.5765
28580SOL    HW291704  10.823  11.080   6.546 -0.8630  0.0215  0.6335
28581SOL     OW91705   0.330   5.252   2.155 -0.0919  0.3938 -0.4945
28581SOL    HW191706   0.422   5.264   2.130 -0.0039 -2.3226 -1.8954
28581SOL    HW291707   0.309   5.164   2.125 -3.1443  0.8698 -0.0514
28582SOL     OW91708   4.516  10.177   1.396  0.1736 -0.1789  0.6809
28582SOL    HW191709   4.568  10.182   1.316 -0.4762 -0.6935  0.2119
28582SOL    HW291710   4.549  10.099   1.441 -0.5935 -0.8851  0.0682
28583SOL     OW91711   5.339   8.518   8.368 -0.2339 -0.0423 -0.2396
28583SOL    HW191712   5.282   8.441   8.363  0.1896 -0.4225  0.4938
28583SOL    HW291713   5.327   8.562   8.284 -0.9968 -0.5438 -0.4087
28584SOL     OW91714  12.136  11.469   4.466 -0.1611  0.4789  0.0603
28584SOL    HW191715  12.231  11.463   4.456 -0.2848 -0.5204 -0.5977
28584SOL    HW291716  12.121  11.447   4.558  0.2261  0.3512  0.0975
28585SOL     OW91717   7.743   6.691  10.636 -0.2214  0.3220  0.4846
28585SOL    HW191718   7.728   6.597  10.639  0.5792  0.2300  2.3042
28585SOL    HW291719   7.742   6.719  10.727  1.2763  1.8029  0.0905
28586SOL     OW91720   7.796   8.070   0.358 -0.5892 -0.2254 -0.0734
28586SOL    HW191721   7.731   8.029   0.415  0.4113 -0.9093  0.6092
28586SOL    HW291722   7.880   8.035   0.389 -0.0023 -0.4246 -1.8188
28587SOL     OW91723   2.947   1.713   1.481 -0.2637 -0.1671 -0.6471
28587SOL    HW191724   2.994   1.636   1.448  1.8567  0.0440  1.6027
28587SOL    HW291725   3.009   1.785   1.471 -1.5079  0.9047 -0.9531
28588SOL     OW91726   5.213   5.140  11.861 -0.8527  0.4426  0.6148
28588SOL    HW191727   5.307   5.156  11.856 -1.0607  1.4640 -0.3081
28588SOL    HW291728   5.201   5.092  11.944  0.4891  0.1232  0.6406
28589SOL     OW91729   0.977   6.971   9.198  0.0427  0.1275  0.3592
28589SOL    HW191730   1.061   7.011   9.222  0.2311 -1.4728  2.7018
28589SOL    HW291731   0.912   7.038   9.215  0.7323  1.0222 -0.4257
28590SOL     OW91732  10.259   0.532   8.508 -0.4342 -0.6315 -0.0974
28590SOL    HW191733  10.330   0.492   8.559 -0.7355 -0.2142  0.6647
28590SOL    HW291734  10.296   0.544   8.421  1.4737  2.1638  0.9494
28591SOL     OW91735   3.983   4.516  12.176  0.0272  0.1128  0.5560
28591SOL    HW191736   4.014   4.452  12.241 -0.3765 -0.6292  0.0288
28591SOL    HW291737   3.970   4.596  12.227 -0.3849 -0.4825  1.4170
28592SOL     OW91738   8.023   5.665   1.198  0.6527  0.4893 -0.4187
28592SOL    HW191739   8.083   5.685   1.127 -0.1883 -0.4836 -1.4446
28592SOL    HW291740   7.937   5.691   1.164  0.0063 -1.5188 -0.4544
28593SOL     OW91741  10.989   3.829   3.097 -0.4648 -0.0826 -0.4653
28593SOL    HW191742  11.051   3.890   3.058 -0.0121  0.0906  0.4980
28593SOL    HW291743  11.009   3.831   3.190 -3.6339  2.0235  0.3504
28594SOL     OW91744   4.250   9.893   7.865 -0.3562  0.0351 -0.5653
28594SOL    HW191745   4.256   9.921   7.774 -1.1888  0.0874 -0.6059
28594SOL    HW291746   4.159   9.909   7.890 -0.0435  0.3783  0.3963
28595SOL     OW91747  11.303   0.616   2.958 -0.1191  0.2471 -0.0908
28595SOL    HW191748  11.332   0.660   3.038  1.8818 -0.3340 -0.4515
28595SOL    HW291749  11.284   0.687   2.897  0.9949  0.6601  0.0289
28596SOL     OW91750   2.989   2.826   9.773  0.1996 -0.0377  0.6952
28596SOL    HW191751   2.893   2.825   9.782 -0.1555  0.3176 -2.1597
28596SOL    HW291752   3.012   2.919   9.771  0.6204 -0.1227  1.1799
28597SOL     OW91753   6.388   7.759  10.013 -0.0339  0.0074  0.0278
28597SOL    HW191754   6.442   7.745  10.090 -2.5031  2.9375  2.5686
28597SOL    HW291755   6.427   7.834   9.969 -1.1301  1.2553  1.1003
28598SOL     OW91756  10.059   6.885   6.815 -0.3528 -0.3379  0.1747
28598SOL    HW191757  10.002   6.900   6.890 -0.5836 -0.5291  0.0373
28598SOL    HW291758  10.090   6.973   6.791  0.5762 -0.3848  1.1554
28599SOL     OW91759   1.973   4.121   8.760 -0.5369 -0.1550  0.0786
28599SOL    HW191760   1.981   4.096   8.668  1.5046  0.4825  0.0527
28599SOL    HW291761   1.972   4.037   8.807  0.7384 -0.4435 -0.3761
28600SOL     OW91762   5.874   8.754   9.362  0.3973  0.4132 -0.3456
28600SOL    HW191763   5.930   8.715   9.428  1.3345  0.0045 -1.3457
28600SOL    HW291764   5.811   8.807   9.411 -0.1247 -1.3354  0.9924
28601SOL     OW91765  11.992   8.163   8.472 -0.2408 -0.3098 -0.2100
28601SOL    HW191766  12.047   8.115   8.410  0.5559  0.5614 -0.2025
28601SOL    HW291767  12.053   8.221   8.517 -1.1081  0.3708  0.1007
28602SOL     OW91768   0.989   6.519   7.844  0.0307  0.0435 -0.1273
28602SOL    HW191769   1.042   6.485   7.772  0.5328  0.3756  0.0763
28602SOL    HW291770   0.953   6.442   7.887  0.1435 -0.1740 -0.4215
28603SOL     OW91771  10.906   4.529   5.233  0.0178  0.4509 -0.7536
28603SOL    HW191772  10.926   4.594   5.166  0.3469 -0.9543 -2.0660
28603SOL    HW291773  10.821   4.556   5.267  0.5186  2.0366 -0.6414
28604SOL     OW91774   0.125   9.259  12.047  0.2330  0.0825  0.2703
28604SOL    HW191775   0.097   9.343  12.010  0.3872 -0.1977 -0.4913
28604SOL    HW291776   0.188   9.224  11.984 -0.7645 -1.2043 -0.0380
28605SOL     OW91777  11.604   5.525   0.325 -0.1331  0.4104  0.2032
28605SOL    HW191778  11.618   5.553   0.416 -0.2758 -0.0816  0.3811
28605SOL    HW291779  11.655   5.587   0.273  0.7636  0.1067  0.6874
28606SOL     OW91780   8.092   7.736   0.637 -0.4264 -0.3167 -0.2654
28606SOL    HW191781   8.082   7.830   0.650 -1.2237 -0.4294 -0.0383
28606SOL    HW291782   8.004   7.704   0.620 -0.8109 -1.5695  3.2435
28607SOL     OW91783   9.337  12.359   7.267  0.0182  0.2488 -0.3562
28607SOL    HW191784   9.300  12.375   7.354 -0.3716 -0.8630 -0.2994
28607SOL    HW291785   9.264  12.323   7.216  0.7951 -1.2518 -0.4665
28608SOL     OW91786   7.006   7.082   4.688  0.1267 -0.5549  0.0914
28608SOL    HW191787   7.082   7.139   4.676 -0.1746 -0.2210 -0.2561
28608SOL    HW291788   7.040   7.008   4.738  0.6497 -0.3429  0.0620
28609SOL     OW91789   9.235   4.730   9.491  0.2204  0.1825 -0.2786
28609SOL    HW191790   9.248   4.673   9.416  1.8231  1.0126 -0.6669
28609SOL    HW291791   9.314   4.720   9.544 -0.8045 -0.2802  1.2532
28610SOL     OW91792   6.976   7.158   8.711  0.0630  0.4576 -0.1066
28610SOL    HW191793   7.000   7.250   8.711  1.1391  0.2103  1.3489
28610SOL    HW291794   7.027   7.120   8.640  0.8611  0.7033  0.3224
28611SOL     OW91795   3.913   0.501   1.905 -0.0394 -0.2717  0.4653
28611SOL    HW191796   3.994   0.457   1.878 -0.1168 -0.1502  0.0154
28611SOL    HW291797   3.914   0.584   1.857 -0.5125 -0.3437  0.3277
28612SOL     OW91798   2.318   5.403   0.876 -0.1322  0.0544 -0.6559
28612SOL    HW191799   2.398   5.360   0.907  0.5300  0.7788 -1.3167
28612SOL    HW291800   2.255   5.389   0.947  0.2723 -1.3699 -0.5504
28613SOL     OW91801   2.889   1.078   6.951 -0.5078  0.2426 -0.0284
28613SOL    HW191802   2.907   1.025   7.029 -1.5747 -0.1736 -0.0475
28613SOL    HW291803   2.871   1.013   6.882 -0.2688  0.6172 -0.4510
28614SOL     OW91804  11.523   0.897   1.081  0.5396 -0.1173  0.0918
28614SOL    HW191805  11.463   0.839   1.035  1.3675 -0.5371 -0.4759
28614SOL    HW291806  11.475   0.979   1.091 -0.2125 -0.5257 -0.1326
28615SOL     OW91807  10.773   2.491   9.375  0.3061  0.2101 -0.0017
28615SOL    HW191808  10.816   2.554   9.317 -0.7512  0.8101 -0.1619
28615SOL    HW291809  10.684   2.484   9.341 -0.2975  0.4407  1.4376
28616SOL     OW91810   1.087   5.399   0.638 -0.8061 -0.0285 -0.2882
28616SOL    HW191811   1.073   5.386   0.544 -3.7629  0.1168  0.0623
28616SOL    HW291812   1.000   5.398   0.676  0.2235  1.2077  2.3327
28617SOL     OW91813   9.341   0.747  11.066 -0.1756 -0.6258  0.1061
28617SOL    HW191814   9.262   0.774  11.018  0.7708 -0.4999 -1.4361
28617SOL    HW291815   9.397   0.825  11.066  1.1076 -1.4961 -1.3085
28618SOL     OW91816   6.571  12.116  10.447  0.4274 -0.5602  0.0433
28618SOL    HW191817   6.521  12.198  10.442 -1.0128 -1.2869  1.6119
28618SOL    HW291818   6.662  12.144  10.448  0.0229  0.9117 -1.2142
28619SOL     OW91819   2.368   2.022  12.190  0.0523  0.3518 -0.0531
28619SOL    HW191820   2.419   1.953  12.232  3.0556  2.3869 -0.0649
28619SOL    HW291821   2.390   2.015  12.097 -2.3180 -0.7202 -0.6067
28620SOL     OW91822   3.034   0.810   5.675 -0.3893 -0.1570 -0.0768
28620SOL    HW191823   3.015   0.903   5.663  0.2524 -0.1842 -1.5106
28620SOL    HW291824   3.106   0.808   5.737 -1.5373  0.1937  1.3139
28621SOL     OW91825   3.307   8.602   4.126 -0.0521 -0.0871 -0.3756
28621SOL    HW191826   3.294   8.535   4.194  1.3063  0.1566  0.1550
28621SOL    HW291827   3.218   8.633   4.107 -0.7814 -2.3043 -0.9496
28622SOL     OW91828   3.474   3.445   1.076  0.0997 -0.6208 -0.3906
28622SOL    HW191829   3.513   3.434   1.163  1.9128 -1.5271 -1.2510
28622SOL    HW291830   3.460   3.355   1.045  0.6479 -0.3420 -1.5011
28623SOL     OW91831  12.217  10.829  12.092  0.3839 -0.2375 -0.2631
28623SOL    HW191832  12.274  10.904  12.080  0.6860 -0.7466 -2.4559
28623SOL    HW291833  12.274  10.761  12.128  0.6780 -0.1045 -0.4687
28624SOL     OW91834  11.129   4.852  11.855 -0.2357  0.2730  0.3226
28624SOL    HW191835  11.056   4.887  11.803  0.0757 -0.3970 -0.6008
28624SOL    HW291836  11.205   4.900  11.825 -0.3580  1.4126  1.7315
28625SOL     OW91837   6.146  10.065   7.512  0.1331  0.1925 -0.4373
28625SOL    HW191838   6.227  10.105   7.543 -0.1419  1.1389 -0.8881
28625SOL    HW291839   6.104  10.133   7.459  0.1671 -1.0588 -2.1560
28626SOL     OW91840   9.335  11.539   5.078 -0.7856  0.0171 -0.1371
28626SOL    HW191841   9.426  11.524   5.104 -0.5153  1.3474 -0.2196
28626SOL    HW291842   9.284  11.481   5.135 -0.0890  1.5286  2.1988
28627SOL     OW91843   7.953   0.568   1.549  0.4003  0.4371 -0.0682
28627SOL    HW191844   7.918   0.653   1.522 -0.2005 -0.5023 -2.5436
28627SOL    HW291845   8.047   0.583   1.562  0.5268  1.2641 -1.6988
28628SOL     OW91846  11.826  12.165   6.792  0.3131  0.0146  0.2581
28628SOL    HW191847  11.813  12.209   6.876 -0.7204  0.4343 -0.1037
28628SOL    HW291848  11.783  12.222   6.729  1.7523  0.1024 -0.6843
28629SOL     OW91849  10.469   8.504  12.347 -0.2706  0.3834 -0.0256
28629SOL    HW191850  10.444   8.443  12.277  1.0155  1.3943 -1.4422
28629SOL    HW291851  10.564   8.505  12.344 -0.0730 -0.8303  2.9611
28630SOL     OW91852   8.494  10.943   4.587 -0.3038  0.0386 -0.2026
28630SOL    HW191853   8.470  10.862   4.633 -0.6609 -0.7417 -1.6926
28630SOL    HW291854   8.430  10.950   4.517  0.8757  0.5772 -1.2707
28631SOL     OW91855   0.262   8.207   4.427  0.7419 -0.1117 -0.2964
28631SOL    HW191856   0.299   8.142   4.487  0.1378 -0.2600 -0.0811
28631SOL    HW291857   0.295   8.290   4.460  0.6757 -0.2194  0.0496
28632SOL     OW91858   4.335  10.992   3.230 -0.2068  0.4875 -0.4484
28632SOL    HW191859   4.285  10.968   3.152  1.1032  0.3954 -1.2867
28632SOL    HW291860   4.319  11.085   3.241 -1.2846  0.2816 -0.1581
28633SOL     OW91861   8.314   0.553   0.338 -0.0525  0.0681  0.0190
28633SOL    HW191862   8.403   0.583   0.319 -0.2911  0.3211 -0.7053
28633SOL    HW291863   8.320   0.516   0.426  0.7443  0.1903  0.0229
28634SOL     OW91864  10.313  11.828   0.483 -0.4743  0.2932  0.2572
28634SOL    HW191865  10.228  11.783   0.485  0.2366 -1.0654  1.0215
28634SOL    HW291866  10.358  11.798   0.562  1.2929 -0.1329 -0.8520
28635SOL     OW91867   1.116   9.842   3.377 -0.0612  0.5575  0.5142
28635SOL    HW191868   1.050   9.861   3.443  0.6160  0.9536  1.0912
28635SOL    HW291869   1.187   9.799   3.425  1.1268  2.2544  0.3866
28636SOL     OW91870   1.131   7.472   5.058 -0.7381  0.4504 -0.1716
28636SOL    HW191871   1.074   7.549   5.056 -0.2390  0.8119 -0.9145
28636SOL    HW291872   1.219   7.507   5.039 -0.5771 -0.3651 -1.0081
28637SOL     OW91873   3.334   5.059   5.601  0.1101 -0.1174  0.0697
28637SOL    HW191874   3.376   5.091   5.681  0.3852 -2.0517  0.7606
28637SOL    HW291875   3.406   5.018   5.552 -0.4463 -0.8913 -0.1114
28638SOL     OW91876   3.196   0.224   9.952  0.3298 -0.1357  0.6419
28638SOL    HW191877   3.124   0.282   9.977  0.8239 -0.0546  1.9040
28638SOL    HW291878   3.177   0.142   9.997 -0.1790 -0.8852 -0.8570
28639SOL     OW91879  12.234   4.081  11.143  0.1899  0.0259 -0.8341
28639SOL    HW191880  12.239   4.136  11.221 -0.8885  0.6432 -1.1726
28639SOL    HW291881  12.254   4.140  11.071 -0.4357 -0.1462 -1.1567
28640SOL     OW91882   4.907   5.071   4.702  0.3353 -0.7573 -1.0992
28640SOL    HW191883   4.963   5.102   4.631  1.1614  0.4997  0.0360
28640SOL    HW291884   4.912   4.976   4.698  3.3671 -0.7117 -0.4730
28641SOL     OW91885   8.782   6.602  12.054  0.6124 -0.1853 -0.0084
28641SOL    HW191886   8.825   6.633  12.134 -1.6411  0.0283  1.1986
28641SOL    HW291887   8.689   6.611  12.072  0.0148  0.4726 -2.9347
28642SOL     OW91888   0.687   2.338   4.488 -0.0998 -0.2433  0.3257
28642SOL    HW191889   0.740   2.395   4.433 -0.3417 -0.3341 -0.0028
28642SOL    HW291890   0.715   2.358   4.577 -0.8120  1.0649  0.2916
28643SOL     OW91891  11.416  11.317   0.111  1.1926 -0.1833 -0.3961
28643SOL    HW191892  11.325  11.289   0.123  1.5160 -0.7927  0.8915
28643SOL    HW291893  11.466  11.235   0.106  2.0013  0.0686  2.0529
28644SOL     OW91894  11.944   6.551   2.550  0.1209  0.5409 -0.0909
28644SOL    HW191895  11.943   6.486   2.480  0.0840 -0.9296  1.2305
28644SOL    HW291896  11.878   6.616   2.523 -0.6210 -0.5181 -0.9247
28645SOL     OW91897   8.034   7.400   8.984  0.0804 -0.6487  0.0877
28645SOL    HW191898   7.965   7.440   8.931 -0.4414 -0.5509  0.8168
28645SOL    HW291899   8.114   7.444   8.956 -0.1949 -0.5478 -0.5594
28646SOL     OW91900   8.930   3.415   9.051 -0.4651  0.3413 -0.0140
28646SOL    HW191901   8.965   3.504   9.058  0.0415  0.2651 -1.2148
28646SOL    HW291902   8.835   3.426   9.044 -0.3175  0.9133 -1.5352
28647SOL     OW91903   2.967  10.753   3.146  0.4277 -0.3766 -0.2885
28647SOL    HW191904   2.878  10.754   3.110  0.3197 -1.7725 -0.1236
28647SOL    HW291905   2.991  10.845   3.153 -0.6515  0.0031 -1.2095
28648SOL     OW91906   4.717   7.548   6.534  0.0575  0.3166 -0.1633
28648SOL    HW191907   4.745   7.628   6.579 -1.0140  0.9102 -0.5039
28648SOL    HW291908   4.705   7.484   6.604 -0.1367  0.7843  0.2356
28649SOL     OW91909   6.001   1.045  10.944 -0.5681  0.7110 -0.8341
28649SOL    HW191910   6.050   1.092  10.876  0.6414  0.7084  0.0029
28649SOL    HW291911   6.046   1.067  11.026 -0.9592 -0.6246 -0.2236
28650SOL     OW91912   2.914   0.942  10.327 -0.0162  0.1352  0.3826
28650SOL    HW191913   2.954   0.947  10.413 -0.0906 -0.5906  0.4697
28650SOL    HW291914   2.952   0.863  10.288 -0.5435  0.0445  0.0466
28651SOL     OW91915   3.845   9.707   1.981 -0.1951 -0.1796  0.2611
28651SOL    HW191916   3.887   9.781   1.937 -0.0617 -0.6347 -0.3916
28651SOL    HW291917   3.914   9.669   2.035 -0.4026  0.4802  1.0111
28652SOL     OW91918   8.306   0.056   7.629  0.1511 -0.1547  0.3239
28652SOL    HW191919   8.269   0.033   7.544  1.7371  0.0096 -0.4445
28652SOL    HW291920   8.323  -0.028   7.672 -3.0847 -0.2704  1.6722
28653SOL     OW91921   6.205   5.998   0.129 -0.1737 -0.0661 -0.1580
28653SOL    HW191922   6.297   6.000   0.104 -0.5872 -0.5955 -1.8776
28653SOL    HW291923   6.158   6.020   0.049 -1.5867 -1.0853  0.3423
28654SOL     OW91924   5.590   5.447  10.277  0.0792 -0.1894  0.1105
28654SOL    HW191925   5.626   5.428  10.364 -1.6680 -1.9436  0.5291
28654SOL    HW291926   5.615   5.371  10.224 -2.0075 -0.9917  0.1591
28655SOL     OW91927  10.528   6.028  10.418 -0.7478 -0.3701  0.3197
28655SOL    HW191928  10.528   6.081  10.498  1.9448  1.4871 -0.7727
28655SOL    HW291929  10.599   5.964  10.431  0.9302  1.0781 -1.1536
28656SOL     OW91930   4.589   0.483   1.033 -0.7395 -0.8193 -0.0803
28656SOL    HW191931   4.547   0.419   1.090 -0.0252 -0.5304  0.8130
28656SOL    HW291932   4.572   0.568   1.075  0.0056 -0.6258 -0.1436
28657SOL     OW91933   3.741   3.701   9.977  0.1805 -0.5169 -0.2699
28657SOL    HW191934   3.786   3.622  10.006  0.6057  0.1480  0.9433
28657SOL    HW291935   3.688   3.672   9.903 -2.0862 -2.6738  1.9834
28658SOL     OW91936   9.979   6.126   9.952  0.2433  0.2632  0.4836
28658SOL    HW191937   9.975   6.031   9.941  1.0381  0.2898 -0.1162
28658SOL    HW291938  10.068   6.142   9.984 -0.0405  0.7666  1.0281
28659SOL     OW91939   8.525  11.869   2.001  0.4470 -0.5236  0.0872
28659SOL    HW191940   8.551  11.789   2.047  1.0535  0.1299  0.9000
28659SOL    HW291941   8.607  11.907   1.969  0.2919  0.3280  0.6479
28660SOL     OW91942  11.356  12.263  12.453  0.0719  0.4120 -0.4619
28660SOL    HW191943  11.378  12.356  12.451 -0.4241  0.5234 -2.1724
28660SOL    HW291944  11.261  12.261  12.464 -0.2417  0.2289 -2.6579
28661SOL     OW91945  10.740   6.353   6.346  0.2085  0.2610  0.3461
28661SOL    HW191946  10.712   6.311   6.427  0.3648  1.0612  0.8289
28661SOL    HW291947  10.835   6.352   6.350  0.2216 -0.0957 -0.0399
28662SOL     OW91948   1.061   1.648   5.984  0.4093 -0.5885 -0.2415
28662SOL    HW191949   1.009   1.717   6.023  1.7631  1.2120 -1.4691
28662SOL    HW291950   1.002   1.604   5.923 -0.0974  0.3913 -0.4582
28663SOL     OW91951   7.716  10.744   9.229 -0.0555  0.3039  0.0165
28663SOL    HW191952   7.709  10.785   9.143  1.0529 -0.9708 -0.7250
28663SOL    HW291953   7.810  10.745   9.248  0.2960 -3.4079 -0.8700
28664SOL     OW91954   8.210   5.963   0.512  0.3336 -0.1452  0.1710
28664SOL    HW191955   8.157   6.036   0.541  0.0111 -0.9724  1.7757
28664SOL    HW291956   8.150   5.888   0.510  0.4515 -0.2563 -2.2452
28665SOL     OW91957  10.442   9.273   6.219  0.0098 -0.3906 -0.3609
28665SOL    HW191958  10.369   9.302   6.274 -0.8682 -0.4453 -1.4802
28665SOL    HW291959  10.408   9.274   6.130  1.6399  0.3884 -1.0095
28666SOL     OW91960   9.139  12.341   2.101  0.9322  0.0607  0.3509
28666SOL    HW191961   9.143  12.356   2.007  0.3414 -0.1595  0.2852
28666SOL    HW291962   9.126  12.428   2.139  0.9361  0.1223  0.2116
28667SOL     OW91963   3.904  10.253   1.957 -0.2290  0.2546 -0.0766
28667SOL    HW191964   3.911  10.273   2.051  1.1182  1.0782 -0.3316
28667SOL    HW291965   3.816  10.282   1.933 -0.4749  0.3249  0.8635
28668SOL     OW91966   4.525   1.726  10.372  0.1296 -0.3666 -0.3767
28668SOL    HW191967   4.598   1.767  10.325 -0.9839  1.7520 -0.3642
28668SOL    HW291968   4.557   1.721  10.463 -0.2482  2.1046 -0.0215
28669SOL     OW91969  12.294   4.298   7.230 -0.1029  0.4278 -0.0944
28669SOL    HW191970  12.237   4.262   7.298 -0.5799  0.4215 -0.4931
28669SOL    HW291971  12.362   4.344   7.279  0.4563 -0.8983  0.4208
28670SOL     OW91972  10.539   3.340   2.250  0.3302 -0.0265 -0.2436
28670SOL    HW191973  10.540   3.393   2.330  1.3064 -1.8302  1.0346
28670SOL    HW291974  10.576   3.256   2.278 -1.1938 -1.4049 -2.1370
28671SOL     OW91975  10.421   0.008   5.799  0.3965  0.1737 -0.3058
28671SOL    HW191976  10.510   0.015   5.765  0.5368 -0.9184 -0.1748
28671SOL    HW291977  10.415  -0.080   5.835 -0.2574  0.7417  1.0640
28672SOL     OW91978  11.928   2.139   1.636 -0.1252 -0.4036 -0.0084
28672SOL    HW191979  11.972   2.139   1.721  1.4026 -2.8613 -0.7112
28672SOL    HW291980  11.908   2.231   1.620  2.9189  0.6268  1.3347
28673SOL     OW91981   8.633   2.080   0.108 -0.1802  0.2965 -0.5283
28673SOL    HW191982   8.572   2.148   0.080  1.0953  0.6336 -2.6261
28673SOL    HW291983   8.583   1.998   0.100 -1.5630  0.8384  1.5604
28674SOL     OW91984  11.919   3.461  11.692 -0.5059 -0.2908  0.1018
28674SOL    HW191985  11.984   3.528  11.675  0.1213 -1.3763 -2.2683
28674SOL    HW291986  11.967   3.391  11.736  0.0404 -1.1653 -1.8046
28675SOL     OW91987   2.772   8.059  12.244  0.3904 -0.5881  0.4836
28675SOL    HW191988   2.735   7.974  12.223  0.3471 -0.1289 -1.4015
28675SOL    HW291989   2.740   8.118  12.176  1.1737  0.7379  1.2134
28676SOL     OW91990  11.274  11.339   0.838  0.1455  0.0265  0.4698
28676SOL    HW191991  11.272  11.245   0.826  2.8237  0.0606 -0.8153
28676SOL    HW291992  11.201  11.372   0.785  0.4980 -1.1688 -0.7798
28677SOL     OW91993  11.470   1.466  11.563  0.7027 -0.3596 -0.0710
28677SOL    HW191994  11.549   1.511  11.593  0.6860 -0.7392  0.5757
28677SOL    HW291995  11.406   1.484  11.632  0.3718 -0.4683 -0.3482
28678SOL     OW91996   0.323  11.174   1.180  0.3040  0.2068  0.0527
28678SOL    HW191997   0.267  11.210   1.250  0.3677 -0.1707  0.2999
28678SOL    HW291998   0.406  11.220   1.191  0.1885  0.4368 -0.0250
28679SOL     OW91999   9.632   7.948   4.916 -0.4459  0.1337 -0.6676
28679SOL    HW192000   9.694   8.016   4.889 -0.8805  0.3732 -1.0629
28679SOL    HW292001   9.621   7.961   5.010 -1.2591  1.2123 -0.9015
28680SOL     OW92002   8.541   6.584   8.181  0.1676  0.0835 -0.3822
28680SOL    HW192003   8.557   6.663   8.231 -2.1116  0.2819  0.1214
28680SOL    HW292004   8.446   6.579   8.172  0.3135 -1.8995 -1.5380
28681SOL     OW92005  10.258  11.212   5.383 -0.6876  0.6657  0.6860
28681SOL    HW192006  10.283  11.221   5.291  0.1629 -1.6716  0.5930
28681SOL    HW292007  10.268  11.299   5.420  1.6506  1.1370 -0.8435
28682SOL     OW92008   7.987  10.272   3.795  0.0564  0.2583 -0.5438
28682SOL    HW192009   7.921  10.275   3.865 -2.0047  0.8521 -2.3812
28682SOL    HW292010   7.997  10.179   3.776 -0.2405  0.1558 -0.2237
28683SOL     OW92011   0.808   9.325   5.979  0.3635  0.2679 -0.0152
28683SOL    HW192012   0.838   9.369   5.900  0.4611  0.0551 -0.0963
28683SOL    HW292013   0.834   9.234   5.968  0.8819  0.3470  0.5204
28684SOL     OW92014   7.833  10.015   1.044  0.1071 -0.2816  0.0109
28684SOL    HW192015   7.899   9.946   1.045  0.3480 -0.0556  0.0831
28684SOL    HW292016   7.751   9.971   1.064  0.3135 -0.4924  0.4106
28685SOL     OW92017   1.588   7.759   4.364  0.2299  0.0249  0.4404
28685SOL    HW192018   1.626   7.699   4.428 -0.5157  0.7023  1.5412
28685SOL    HW292019   1.499   7.727   4.350  0.6512 -0.6262 -0.9384
28686SOL     OW92020   1.569   2.230  12.359  0.0465  0.4880 -0.0307
28686SOL    HW192021   1.606   2.192  12.279 -2.3798 -1.4770 -0.3557
28686SOL    HW292022   1.619   2.310  12.374  3.0794 -0.9975 -1.3797
28687SOL     OW92023   6.000   8.683   4.867 -0.2959  0.1571 -0.3904
28687SOL    HW192024   5.941   8.697   4.941  1.5694  2.8928  0.7346
28687SOL    HW292025   6.087   8.678   4.907  0.7904  1.9701 -2.3910
28688SOL     OW92026   8.727   1.330  11.847  0.2423  0.8789 -0.4549
28688SOL    HW192027   8.815   1.299  11.870  0.6599  2.0350 -0.4236
28688SOL    HW292028   8.668   1.266  11.886  1.0529  0.5417  0.2448
28689SOL     OW92029   3.788  12.257   4.677  0.0710  0.2573  0.2224
28689SOL    HW192030   3.827  12.244   4.763 -1.2980  3.6033  1.5286
28689SOL    HW292031   3.858  12.292   4.623  0.2441  0.9381  0.8764
28690SOL     OW92032   7.686  10.425   8.385 -0.8821  0.2286  0.0765
28690SOL    HW192033   7.730  10.357   8.437 -1.1651 -0.8082 -0.9765
28690SOL    HW292034   7.676  10.499   8.444 -0.9011 -0.7929  1.3851
28691SOL     OW92035   1.667   5.644  12.431  0.5074  0.0150 -0.1968
28691SOL    HW192036   1.603   5.712  12.454  0.8867  0.0808  0.6905
28691SOL    HW292037   1.736   5.691  12.383 -0.3077 -0.1305 -1.5667
28692SOL     OW92038   5.389   8.656   0.808 -0.0254 -0.3597 -0.0748
28692SOL    HW192039   5.391   8.670   0.714 -0.8470 -1.1240 -0.2186
28692SOL    HW292040   5.430   8.735   0.845  0.6830 -0.2384 -1.0713
28693SOL     OW92041   6.150  10.537   8.226  0.2310 -0.2611 -0.1853
28693SOL    HW192042   6.111  10.460   8.184 -0.6430 -0.8318  1.5397
28693SOL    HW292043   6.211  10.500   8.290  1.4032  0.5673 -0.7934
28694SOL     OW92044   0.426   9.009   7.336  0.7405  0.2553 -0.2209
28694SOL    HW192045   0.341   9.016   7.293  0.4182  0.8125  0.4925
28694SOL    HW292046   0.484   8.975   7.268  0.0420  0.2517 -0.8311
28695SOL     OW92047   0.303   9.465   9.332  0.6226  0.2402 -0.5472
28695SOL    HW192048   0.272   9.399   9.394  0.6467  0.8291  0.1068
28695SOL    HW292049   0.375   9.421   9.285 -0.3685 -0.7169 -1.2289
28696SOL     OW92050   1.886   1.424   5.765 -0.0670  0.4864  0.0741
28696SOL    HW192051   1.794   1.413   5.789 -0.3178  0.0444 -1.0292
28696SOL    HW292052   1.932   1.354   5.811 -0.3316  0.4755  0.3234
28697SOL     OW92053  11.225   3.365   8.490  0.3507  0.1844 -0.3466
28697SOL    HW192054  11.143   3.318   8.477 -0.0566  0.6088  0.5627
28697SOL    HW292055  11.280   3.341   8.416  0.2544 -1.9305  0.2128
28698SOL     OW92056   0.841   5.255   2.651  0.1151  0.8778  0.3419
28698SOL    HW192057   0.886   5.221   2.574 -0.8648  1.2354 -0.4167
28698SOL    HW292058   0.891   5.222   2.726 -1.3874 -3.3142 -0.2280
28699SOL     OW92059   7.851   2.137  10.069  0.1338  0.5240 -0.5242
28699SOL    HW192060   7.876   2.228  10.051  0.7233  0.6738  0.9355
28699SOL    HW292061   7.755   2.137  10.060  0.0264  1.5415  0.4691
28700SOL     OW92062   1.092   6.608   1.725 -0.1396 -0.0915 -0.3161
28700SOL    HW192063   1.070   6.699   1.706 -1.6078 -0.0632  1.2108
28700SOL    HW292064   1.166   6.588   1.668  0.5332  2.1996 -0.3354
28701SOL     OW92065   2.768   1.352   4.121  0.1858 -0.3685  0.8007
28701SOL    HW192066   2.691   1.389   4.164 -0.0277  0.1741 -0.0296
28701SOL    HW292067   2.811   1.301   4.190 -0.4713 -0.0190  1.4914
28702SOL     OW92068   2.611   0.166   9.846 -0.7431  0.0371  0.3760
28702SOL    HW192069   2.584   0.101   9.782  0.4228 -0.6694  0.5686
28702SOL    HW292070   2.666   0.227   9.797  0.0976 -0.4681  0.6671
28703SOL     OW92071   3.826   5.607   1.258 -0.3432  0.0526  0.1611
28703SOL    HW192072   3.845   5.551   1.334 -0.2618  2.3486  1.9580
28703SOL    HW292073   3.909   5.612   1.211 -0.1953 -0.8475  0.3065
28704SOL     OW92074   1.603   3.508  10.333  0.4591 -0.1973  0.1269
28704SOL    HW192075   1.533   3.452  10.367 -0.8778  1.1935 -0.1766
28704SOL    HW292076   1.684   3.463  10.357 -0.5257 -1.7764  0.6695
28705SOL     OW92077   6.219   5.003   2.027  0.1075 -0.0347 -0.0375
28705SOL    HW192078   6.130   5.035   2.014  0.2697  0.8641  0.9370
28705SOL    HW292079   6.212   4.945   2.102 -0.1820 -2.4035 -1.7820
28706SOL     OW92080   8.363  10.282   5.665 -0.0487 -0.4045  0.2337
28706SOL    HW192081   8.278  10.242   5.645  0.0406  0.5833 -2.5531
28706SOL    HW292082   8.421  10.254   5.594  1.6469 -0.0802  1.4299
28707SOL     OW92083   7.833   3.800   8.825  0.3383  0.1828 -0.1119
28707SOL    HW192084   7.859   3.792   8.917  2.7225  0.9191 -0.6391
28707SOL    HW292085   7.842   3.893   8.806 -2.4669  0.4547 -0.5358
28708SOL     OW92086  10.067   6.214   3.544  0.0068  0.4536  0.2032
28708SOL    HW192087  10.011   6.223   3.467 -0.2899  1.6647  0.5305
28708SOL    HW292088  10.146   6.263   3.522  0.0053  0.6332  0.5815
28709SOL     OW92089   4.601   9.561   0.290  0.2733 -0.0823 -0.1445
28709SOL    HW192090   4.517   9.559   0.335 -0.0575  0.8054 -0.6898
28709SOL    HW292091   4.627   9.654   0.290  3.1941 -0.6653  3.4878
28710SOL     OW92092   9.204   7.729   5.954 -0.1745 -0.0087  0.5643
28710SOL    HW192093   9.206   7.770   5.868 -1.5848  0.8815  0.9200
28710SOL    HW292094   9.191   7.802   6.015 -0.0922 -0.7230  1.4529
28711SOL     OW92095   9.521   7.220   3.096  0.0350  0.4700 -0.0232
28711SOL    HW192096   9.501   7.135   3.058 -0.4698  0.1543  0.9017
28711SOL    HW292097   9.436   7.263   3.105  0.2592  0.9641 -0.2341
28712SOL     OW92098   6.491  10.716   9.971  0.3694  0.0610  0.4825
28712SOL    HW192099   6.511  10.744  10.061 -0.4757 -0.3676  0.8200
28712SOL    HW292100   6.497  10.621   9.973 -1.4319 -0.0908  0.5766
28713SOL     OW92101   4.967   4.678   1.138  0.0398  0.0223  0.2557
28713SOL    HW192102   4.919   4.622   1.200  0.4700 -2.7395 -1.6993
28713SOL    HW292103   4.930   4.656   1.053  2.0001  0.8455 -0.8826
28714SOL     OW92104   9.381   4.148   7.029  0.1355  0.1055  0.4521
28714SOL    HW192105   9.407   4.114   7.115 -2.7910 -1.3864  0.8966
28714SOL    HW292106   9.321   4.220   7.050  0.8838  0.9874 -0.3967
28715SOL     OW92107   0.930   7.656   5.707  0.0233  0.1633 -0.1600
28715SOL    HW192108   0.989   7.699   5.769 -0.2523 -0.4017  0.5058
28715SOL    HW292109   0.904   7.575   5.751 -0.1630 -0.2556 -1.0260
28716SOL     OW92110   6.200   5.756   4.338 -0.3095  0.0472  0.5157
28716SOL    HW192111   6.262   5.800   4.281 -0.8754  0.2428  0.0363
28716SOL    HW292112   6.229   5.665   4.340 -0.6230 -0.0882 -0.5695
28717SOL     OW92113   3.633   2.355   5.844  0.2457  0.6435  0.0358
28717SOL    HW192114   3.639   2.408   5.923  1.5772  1.7577 -0.7622
28717SOL    HW292115   3.540   2.342   5.831 -0.1142  2.4173  0.5239
28718SOL     OW92116  11.264   8.432  11.041 -0.5318  0.1999 -0.3056
28718SOL    HW192117  11.325   8.378  10.991 -0.0824  0.0883  0.3398
28718SOL    HW292118  11.312   8.512  11.060 -0.3545 -0.1286  0.7186
28719SOL     OW92119   0.944   5.908   5.790  0.1966  0.2104 -0.8974
28719SOL    HW192120   1.024   5.957   5.812 -1.4037  1.5363  2.8479
28719SOL    HW292121   0.965   5.817   5.811  0.1288  0.8735  2.7958
28720SOL     OW92122   5.421  10.761   8.648 -0.6336  0.4857  0.1200
28720SOL    HW192123   5.407  10.667   8.638  0.6479  0.4201 -1.3887
28720SOL    HW292124   5.334  10.799   8.633 -0.7833 -0.3512 -1.3352
28721SOL     OW92125   0.434  11.713   5.758  0.0476  0.4126  0.1355
28721SOL    HW192126   0.427  11.618   5.747  1.7751  0.3428 -0.7133
28721SOL    HW292127   0.395  11.749   5.678 -0.8390  0.4532  0.5703
28722SOL     OW92128  10.869   8.958   7.711  0.0050 -0.0617  0.5204
28722SOL    HW192129  10.810   8.999   7.647 -0.9730  0.1482  1.5292
28722SOL    HW292130  10.941   8.923   7.658 -1.3343 -0.9132 -0.8294
28723SOL     OW92131   0.136   8.876   6.245  0.5158 -0.1011  0.5696
28723SOL    HW192132   0.133   8.861   6.150 -0.0841  1.4435  0.3096
28723SOL    HW292133   0.054   8.840   6.277  1.1372 -1.4926  0.6721
28724SOL     OW92134   8.344   3.693   3.028 -0.0777  0.2813  0.2764
28724SOL    HW192135   8.355   3.756   2.956  0.3042 -0.7866 -0.6375
28724SOL    HW292136   8.323   3.610   2.984 -1.8273  0.0214  1.5112
28725SOL     OW92137  11.704   7.548   0.762 -0.9792  0.1143  0.0103
28725SOL    HW192138  11.740   7.467   0.726  0.9460  1.2646 -0.7929
28725SOL    HW292139  11.743   7.555   0.850  0.1160  0.9208 -0.5214
28726SOL     OW92140   6.974  11.839  10.190  0.4180 -0.1723 -0.2321
28726SOL    HW192141   6.997  11.912  10.248  0.4013 -2.7337  3.3290
28726SOL    HW292142   7.053  11.785  10.187 -0.3788 -1.3680 -0.4867
28727SOL     OW92143  11.370   4.349   6.221  0.2687  0.1859  0.6868
28727SOL    HW192144  11.460   4.383   6.217 -0.0213  0.8469 -0.6956
28727SOL    HW292145  11.375   4.265   6.176 -0.4193  1.7712 -2.6754
28728SOL     OW92146  11.773   4.946   8.825  0.1613  0.1620 -0.2999
28728SOL    HW192147  11.829   4.898   8.764  0.5923  1.4561 -0.9482
28728SOL    HW292148  11.788   5.038   8.805 -0.5437  0.5897  1.0151
28729SOL     OW92149   0.068   2.691   9.184 -0.3935  0.5905  0.8481
28729SOL    HW192150   0.054   2.709   9.277 -3.0551  0.4427  0.5554
28729SOL    HW292151  -0.020   2.694   9.146  0.6844  1.2332 -1.7888
28730SOL     OW92152   7.276   5.044  10.969 -0.2348  0.2779 -0.0404
28730SOL    HW192153   7.279   5.031  10.874 -0.6365 -0.0508 -0.0098
28730SOL    HW292154   7.197   5.096  10.984 -0.8686 -0.7334  0.2267
28731SOL     OW92155  10.511   2.294  10.369  0.0319 -0.3792  0.1146
28731SOL    HW192156  10.584   2.285  10.308  0.4413  0.3182  0.4842
28731SOL    HW292157  10.483   2.384  10.359 -0.8649 -0.6740 -0.1024
28732SOL     OW92158   3.020  10.065  10.873 -0.3969  0.1249  0.5640
28732SOL    HW192159   2.973   9.982  10.884  0.4977 -0.3102  1.3766
28732SOL    HW292160   3.107  10.039  10.843 -0.7781  0.9420 -1.3692
28733SOL     OW92161   8.911   8.678   4.646 -0.4577 -0.2122  0.0390
28733SOL    HW192162   9.005   8.666   4.657 -0.5086 -0.1830  0.5463
28733SOL    HW292163   8.872   8.624   4.715 -0.8563 -1.3433 -1.0268
28734SOL     OW92164   3.247  11.647   5.071 -0.1566  0.2515  0.0484
28734SOL    HW192165   3.279  11.674   4.984  0.7453 -0.6537  0.0822
28734SOL    HW292166   3.200  11.724   5.104  0.9832  1.2238 -0.5154
28735SOL     OW92167   9.894   2.949   1.914 -0.2872  0.2354 -0.0629
28735SOL    HW192168   9.971   3.004   1.903  0.8261 -1.2257  0.1543
28735SOL    HW292169   9.865   2.930   1.825 -0.9205  1.4431 -0.1411
28736SOL     OW92170   7.492   5.646   9.361  0.0530 -0.7941 -0.2026
28736SOL    HW192171   7.507   5.659   9.455 -0.6032 -0.7840 -0.0991
28736SOL    HW292172   7.578   5.662   9.321 -0.5057  3.9620 -0.0800
28737SOL     OW92173  11.893  10.253  11.818 -0.3669  0.0416  0.1016
28737SOL    HW192174  11.971  10.306  11.800 -0.7476  0.1204 -1.4894
28737SOL    HW292175  11.850  10.244  11.733 -1.1384 -1.5400  0.6141
28738SOL     OW92176   1.342   0.671  11.788 -0.3239 -0.1358  0.4031
28738SOL    HW192177   1.257   0.714  11.790 -0.7094 -0.8975  1.7057
28738SOL    HW292178   1.402   0.733  11.829  0.2191  1.2364 -2.2572
28739SOL     OW92179   9.411   4.365   6.499 -0.2834 -0.6879  0.4156
28739SOL    HW192180   9.399   4.369   6.404  0.4453  0.7050  0.3444
28739SOL    HW292181   9.334   4.320   6.532 -1.6893  0.8041 -0.6500
28740SOL     OW92182   5.071   6.863   9.421 -0.5959  0.1510 -1.0567
28740SOL    HW192183   5.145   6.807   9.399 -0.3726 -0.5003  1.1119
28740SOL    HW292184   4.995   6.804   9.419 -0.9449  0.6035 -2.2964
28741SOL     OW92185   7.087   1.015   3.820  0.0828  0.2896  0.1498
28741SOL    HW192186   7.039   1.067   3.884  0.2671  0.5397  0.0871
28741SOL    HW292187   7.039   1.026   3.739  0.0932  0.3233  0.1480
28742SOL     OW92188   7.345   4.832  11.735  0.3882  0.0765  0.5685
28742SOL    HW192189   7.304   4.760  11.689  2.1468 -0.6892  0.1154
28742SOL    HW292190   7.416   4.792  11.785 -0.6668  1.0458  3.0095
28743SOL     OW92191  10.837   3.923   4.818 -0.3180 -0.4874 -0.2345
28743SOL    HW192192  10.873   3.995   4.767  0.7420 -0.9616 -0.1804
28743SOL    HW292193  10.905   3.902   4.882 -1.8739  0.5544  1.8878
28744SOL     OW92194   8.773   2.849   6.548 -0.1958 -0.7333 -0.0705
28744SOL    HW192195   8.766   2.824   6.640 -0.2701  0.1350  0.1702
28744SOL    HW292196   8.864   2.873   6.536 -0.0376 -1.4833 -0.3985
28745SOL     OW92197   2.934   2.957   0.541  0.7710 -0.2719 -0.3050
28745SOL    HW192198   2.997   3.018   0.503 -1.0732  1.8737 -0.1888
28745SOL    HW292199   2.851   2.978   0.498 -0.4659 -0.9375  1.5743
28746SOL     OW92200   8.527   0.069   2.331  0.2345 -0.1483 -0.7799
28746SOL    HW192201   8.592   0.018   2.284 -0.4586 -1.9481  0.1117
28746SOL    HW292202   8.461   0.005   2.357  0.1312  0.8841  1.8094
28747SOL     OW92203   2.945  10.423   2.287 -0.2056 -0.2186  0.0333
28747SOL    HW192204   2.936  10.491   2.354 -0.7768 -1.9779  1.8466
28747SOL    HW292205   2.856  10.408   2.255 -0.4187 -1.5139  1.1549
28748SOL     OW92206   4.208   0.840   1.901 -0.5637  0.2320  0.0717
28748SOL    HW192207   4.287   0.786   1.895 -1.4005 -1.0262 -0.0158
28748SOL    HW292208   4.230   0.920   1.855  1.0489  0.3852  1.0424
28749SOL     OW92209  12.286   5.833  11.394 -0.6324  0.0157 -0.0069
28749SOL    HW192210  12.298   5.819  11.488 -2.7788  0.1680  0.3339
28749SOL    HW292211  12.336   5.913  11.376  0.7532 -0.6440  0.7366
28750SOL     OW92212  11.018   2.291   0.749 -0.1873 -0.0724 -0.5695
28750SOL    HW192213  11.078   2.220   0.774 -0.2531  0.7742  2.3804
28750SOL    HW292214  10.942   2.246   0.712  1.1694 -1.2879 -2.0603
28751SOL     OW92215  12.107   0.213  12.176 -0.2352 -0.2270  0.4957
28751SOL    HW192216  12.061   0.139  12.138  0.9111 -1.2289  0.9916
28751SOL    HW292217  12.038   0.267  12.215 -1.0584 -1.2220  0.4605
28752SOL     OW92218   5.868   9.191   3.833  0.7084  0.4272 -0.7320
28752SOL    HW192219   5.839   9.165   3.745  1.7901  0.0938 -1.0088
28752SOL    HW292220   5.877   9.108   3.880 -0.2318  0.6267 -0.1707
28753SOL     OW92221   3.598   8.945   8.695 -0.0938  0.5194 -0.6084
28753SOL    HW192222   3.516   8.929   8.743 -0.3409  1.1375 -0.8198
28753SOL    HW292223   3.649   8.866   8.710 -0.2890  0.5703  0.4297
28754SOL     OW92224   2.602   5.813  10.401  0.2379  0.4585  0.9975
28754SOL    HW192225   2.610   5.790  10.308  1.4628 -1.5761  1.5652
28754SOL    HW292226   2.513   5.849  10.408  0.1246  0.7004 -0.9511
28755SOL     OW92227   6.730   5.522   1.096  0.3051 -0.3605  0.2926
28755SOL    HW192228   6.806   5.509   1.152  0.3621 -0.7247  0.1346
28755SOL    HW292229   6.659   5.476   1.141  0.1290  0.1406  0.5374
28756SOL     OW92230   4.503   0.555   4.619 -0.3360 -0.4785 -0.0924
28756SOL    HW192231   4.448   0.478   4.634  0.8509 -1.4050 -0.2914
28756SOL    HW292232   4.462   0.624   4.671 -0.7099 -1.5827  1.1474
28757SOL     OW92233  11.892   8.163   1.055 -0.2453 -0.2064  0.6776
28757SOL    HW192234  11.941   8.126   1.129  0.0635  1.8771  1.5887
28757SOL    HW292235  11.955   8.220   1.011 -0.6411 -0.8720 -0.7849
28758SOL     OW92236  11.587   3.410   6.975 -0.5284  0.1083 -0.4488
28758SOL    HW192237  11.530   3.486   6.969 -1.2178 -0.3901 -0.2888
28758SOL    HW292238  11.528   3.336   6.984  0.1549 -0.3878  0.0453
28759SOL     OW92239  10.638   5.072   8.037 -0.6509  0.5351  0.3766
28759SOL    HW192240  10.643   4.981   8.006 -0.7503  0.1387  1.4837
28759SOL    HW292241  10.589   5.117   7.968 -1.8466 -0.5648  0.4633
28760SOL     OW92242   6.044  11.819   6.131  0.1908  0.4673  0.3983
28760SOL    HW192243   5.976  11.825   6.198 -0.3168  1.3208 -0.1790
28760SOL    HW292244   6.012  11.751   6.071 -0.7961  1.6947 -0.5422
28761SOL     OW92245   6.526   3.167  12.153 -0.1979 -0.3432  0.8466
28761SOL    HW192246   6.595   3.183  12.089  0.1469 -0.8215  1.0906
28761SOL    HW292247   6.563   3.101  12.212 -0.1335  0.8212  2.1507
28762SOL     OW92248   5.385   7.994  12.428 -0.0560  0.0558 -0.8109
28762SOL    HW192249   5.472   8.030  12.443 -0.7125  1.2781  0.2747
28762SOL    HW292250   5.387   7.965  12.337  1.8953 -1.2122 -0.4156
28763SOL     OW92251   7.152   0.740   3.722 -0.0903  0.1151  0.2022
28763SOL    HW192252   7.056   0.741   3.723 -0.0866  0.1102  1.5256
28763SOL    HW292253   7.174   0.703   3.636 -1.2677  0.0746 -0.1004
28764SOL     OW92254   2.352  10.229   8.398  0.2791 -0.4659 -0.2984
28764SOL    HW192255   2.257  10.219   8.388  0.4127 -1.9080 -0.4624
28764SOL    HW292256   2.371  10.193   8.484  0.3947  2.3172  0.9304
28765SOL     OW92257  11.096  11.747  11.954 -0.5696  0.1218 -0.0000
28765SOL    HW192258  11.178  11.790  11.978 -0.6661  0.4029 -0.1722
28765SOL    HW292259  11.033  11.777  12.020 -0.2767 -0.9756  0.8085
28766SOL     OW92260  11.334   7.745   1.281  0.6488  0.5368  0.3891
28766SOL    HW192261  11.243   7.765   1.301  0.7309  1.0015  0.3084
28766SOL    HW292262  11.335   7.650   1.264  0.0661  0.6299 -0.2098
28767SOL     OW92263  10.259  11.940  10.533 -0.1655 -0.1327 -0.5551
28767SOL    HW192264  10.164  11.929  10.526 -0.1974  0.5205 -1.2995
28767SOL    HW292265  10.292  11.925  10.444  0.3127  0.6623 -0.5221
28768SOL     OW92266   3.921   3.344   4.207  0.3748 -0.0514 -0.0280
28768SOL    HW192267   3.951   3.259   4.174  0.4631 -0.8897  2.0368
28768SOL    HW292268   3.906   3.397   4.129 -1.7070 -2.6058 -1.5114
28769SOL     OW92269   2.946  12.250  10.272 -0.0003 -0.6383 -0.4651
28769SOL    HW192270   2.997  12.200  10.336 -0.1115 -0.9794 -0.6433
28769SOL    HW292271   2.864  12.270  10.318  0.3110 -0.0375 -0.1570
28770SOL     OW92272   7.555   8.313  12.075  0.1191  0.1194 -0.4447
28770SOL    HW192273   7.486   8.271  12.127  1.9027 -1.3195  0.9045
28770SOL    HW292274   7.611   8.241  12.048  1.8595  1.3708 -0.3039
28771SOL     OW92275  10.119   4.967  10.511 -0.0610 -0.0297  0.4039
28771SOL    HW192276  10.154   5.050  10.479 -0.5588  0.1952  0.4297
28771SOL    HW292277  10.196   4.913  10.529  0.2894  0.6557  1.0044
28772SOL     OW92278   7.768  12.229  10.979 -0.1209  0.3328 -0.1131
28772SOL    HW192279   7.723  12.224  11.064 -0.2586  1.6007 -0.0876
28772SOL    HW292280   7.854  12.192  10.995  0.3207  1.7125  0.9436
28773SOL     OW92281   7.441  11.651  10.994  0.3785  0.0805 -0.3798
28773SOL    HW192282   7.375  11.697  11.045  0.8936  0.1613  0.2202
28773SOL    HW292283   7.451  11.704  10.915  1.9664  1.8218  0.8954
28774SOL     OW92284   6.734   9.924   3.684  0.0624 -0.2818  0.9447
28774SOL    HW192285   6.706   9.864   3.754 -0.5549 -0.1443  0.8224
28774SOL    HW292286   6.715  10.011   3.719  0.9142 -0.1535  1.1023
28775SOL     OW92287   2.097   3.869   5.812 -0.7712  0.2420 -0.4015
28775SOL    HW192288   2.060   3.851   5.898  0.7032 -0.7663  0.0560
28775SOL    HW292289   2.084   3.788   5.763  1.3000 -0.3756 -0.0262
28776SOL     OW92290   2.556   0.151   8.583  0.4428  0.0227  0.6746
28776SOL    HW192291   2.574   0.106   8.500  1.5841 -2.0438  1.9368
28776SOL    HW292292   2.561   0.081   8.649 -1.3513  1.4084  2.4179
28777SOL     OW92293   3.902   0.306   8.415 -0.4668  0.2389  0.3202
28777SOL    HW192294   3.852   0.385   8.435 -0.6832 -0.7787  4.7844
28777SOL    HW292295   3.836   0.241   8.390 -0.8060  0.3621  0.8785
28778SOL     OW92296   4.555  10.999   8.593  0.2974 -0.2390 -0.5859
28778SOL    HW192297   4.616  11.054   8.544  0.7271 -0.1994 -0.0209
28778SOL    HW292298   4.518  11.057   8.660 -0.1099 -0.3472 -0.7131
28779SOL     OW92299   8.311   1.357   6.969  0.4319  0.4457 -0.1326
28779SOL    HW192300   8.347   1.403   7.044 -0.1348  1.7975 -0.6448
28779SOL    HW292301   8.238   1.306   7.004  0.6289  0.4820  0.3357
28780SOL     OW92302  11.825  10.384   5.182  0.2554 -0.0419 -0.3690
28780SOL    HW192303  11.884  10.337   5.242  1.5928 -0.1768 -1.7322
28780SOL    HW292304  11.877  10.459   5.151 -0.5356  0.2283 -1.0781
28781SOL     OW92305   1.597   5.215  11.557  0.0851 -0.2765 -0.2339
28781SOL    HW192306   1.612   5.275  11.484 -1.8791  0.2093 -0.2935
28781SOL    HW292307   1.503   5.195  11.553 -0.1846  0.0970  2.3807
28782SOL     OW92308   2.401   3.682  10.916  0.3193 -0.3585  0.4365
28782SOL    HW192309   2.475   3.628  10.890 -0.0065 -1.7175  2.1681
28782SOL    HW292310   2.411   3.694  11.010 -2.1496 -1.4484  0.9182
28783SOL     OW92311   5.457   3.542   0.361 -0.2305 -0.6166  0.3648
28783SOL    HW192312   5.467   3.449   0.380 -2.1573 -1.1480 -0.9340
28783SOL    HW292313   5.369   3.550   0.324 -0.4619  1.8566  1.2166
28784SOL     OW92314   9.885   5.102   6.777 -0.1486 -0.1591  0.1262
28784SOL    HW192315   9.894   5.035   6.710 -1.5551  1.1517 -1.4851
28784SOL    HW292316   9.797   5.089   6.812 -0.6670  1.1404 -0.6110
28785SOL     OW92317   2.016   3.843   7.603 -0.1045  0.0368  0.5302
28785SOL    HW192318   1.997   3.780   7.673 -1.0466 -0.9157 -0.5434
28785SOL    HW292319   2.111   3.852   7.605 -0.0453 -0.6039  1.4011
28786SOL     OW92320   9.454   5.353  10.811  0.0902  0.5079  0.9045
28786SOL    HW192321   9.368   5.350  10.768 -0.0821  1.2316  1.1665
28786SOL    HW292322   9.510   5.299  10.757 -0.8175 -0.9668  1.3842
28787SOL     OW92323   0.096   3.817   1.772 -0.1726 -0.0813  0.5062
28787SOL    HW192324   0.099   3.902   1.816 -2.7606  0.9198 -0.9877
28787SOL    HW292325   0.018   3.822   1.716  1.3039 -2.3064 -1.9944
28788SOL     OW92326  12.081   7.746   2.976  0.4031 -0.4309  0.1577
28788SOL    HW192327  12.174   7.738   2.996  1.1563  2.8271 -1.4436
28788SOL    HW292328  12.078   7.789   2.890 -2.5866 -0.4706  0.1343
28789SOL     OW92329   6.022   1.209   4.159 -0.1031 -0.0735 -0.0063
28789SOL    HW192330   5.938   1.210   4.113 -1.3644  1.5611  2.1040
28789SOL    HW292331   6.017   1.132   4.215 -0.6193  0.4735  0.7312
28790SOL     OW92332   1.223   8.718   3.375  0.2112  0.4630 -0.3421
28790SOL    HW192333   1.155   8.655   3.350  0.1379 -0.1022  1.1646
28790SOL    HW292334   1.305   8.671   3.362  0.1935  0.3250  0.0266
28791SOL     OW92335   9.005   8.073   7.441  0.8324 -0.1621 -0.2191
28791SOL    HW192336   8.999   8.051   7.348 -1.4842  1.5861 -0.5792
28791SOL    HW292337   8.978   8.165   7.445  0.1482 -0.4041  2.2576
28792SOL     OW92338   9.570   6.790   2.766  0.2204 -0.4692 -0.1587
28792SOL    HW192339   9.655   6.748   2.770 -0.0475 -0.9669  0.7789
28792SOL    HW292340   9.527   6.765   2.848 -0.3459  0.7983 -0.0341
28793SOL     OW92341   4.724  11.797   3.944  0.7185 -0.3935  0.0507
28793SOL    HW192342   4.695  11.883   3.975 -1.8554 -1.6350  1.4346
28793SOL    HW292343   4.725  11.805   3.849  2.5005  1.6735  0.1624
28794SOL     OW92344   4.116  11.630   0.093  0.4725 -0.1120 -0.3218
28794SOL    HW192345   4.061  11.554   0.112  2.8690 -1.4027  2.4198
28794SOL    HW292346   4.061  11.706   0.113 -0.9572 -1.2361  0.2090
28795SOL     OW92347   5.765   0.346  11.844 -0.2996 -0.1091 -0.5830
28795SOL    HW192348   5.807   0.305  11.920  0.8204  2.9334  0.6222
28795SOL    HW292349   5.673   0.352  11.869 -0.4190 -1.4645 -0.6340
28796SOL     OW92350   0.969   7.559   3.779  0.2721 -0.2907  1.1956
28796SOL    HW192351   0.957   7.652   3.797 -0.4786 -0.1108 -0.1225
28796SOL    HW292352   0.880   7.524   3.772  0.5488 -1.0522  1.3631
28797SOL     OW92353   5.979  12.311   3.424 -0.4898 -0.0449 -0.0331
28797SOL    HW192354   5.889  12.343   3.431 -0.6230  0.7921 -3.7966
28797SOL    HW292355   6.034  12.386   3.447 -0.7975  0.5460 -1.1800
28798SOL     OW92356   0.726   6.055   5.858 -0.4226  0.5375 -0.1815
28798SOL    HW192357   0.740   6.142   5.819 -0.6830  0.7492  0.1892
28798SOL    HW292358   0.807   6.008   5.840  0.0170  1.1073  0.2475
28799SOL     OW92359  12.132   8.145   6.766  0.0778 -0.4432  0.1045
28799SOL    HW192360  12.206   8.195   6.732 -0.1069  0.9997  1.6763
28799SOL    HW292361  12.130   8.066   6.712  1.5278  0.3860 -1.2700
28800SOL     OW92362  10.551   3.189  10.391  0.1532 -0.0844  0.5713
28800SOL    HW192363  10.543   3.276  10.432  0.5695  0.5911 -0.7442
28800SOL    HW292364  10.478   3.185  10.330  0.6540 -0.2893 -0.0209
28801SOL     OW92365   9.827   6.925   7.147 -0.1794 -0.4986  0.2230
28801SOL    HW192366   9.760   6.928   7.079  0.8514 -2.3953 -0.9875
28801SOL    HW292367   9.800   6.853   7.204  0.9901 -1.5677 -0.5240
28802SOL     OW92368   9.033   9.544   3.183  0.3420 -0.5953  0.0125
28802SOL    HW192369   8.999   9.558   3.271 -0.0457  0.4235 -0.2861
28802SOL    HW292370   9.091   9.469   3.192  2.8414  1.3742  1.8448
28803SOL     OW92371   5.536  11.387   2.937 -0.7353  0.3068  0.0100
28803SOL    HW192372   5.571  11.313   2.987  0.1678  0.5882 -0.1948
28803SOL    HW292373   5.484  11.346   2.868  1.6236 -0.2736 -1.5319
28804SOL     OW92374   9.505   3.167   0.834  0.4878 -0.4706 -0.1441
28804SOL    HW192375   9.429   3.115   0.809  0.3203 -1.0273  1.3829
28804SOL    HW292376   9.580   3.109   0.818  0.3998 -0.7448  0.4134
28805SOL     OW92377  10.816   5.092   8.406 -0.4459 -0.3633  0.2934
28805SOL    HW192378  10.748   5.156   8.382 -1.2902 -1.6328 -0.8840
28805SOL    HW292379  10.821   5.097   8.501 -0.7861  1.1432  0.2652
28806SOL     OW92380  12.178   5.626   0.425  0.5886 -0.0299 -0.0067
28806SOL    HW192381  12.258   5.668   0.457  0.7155  1.3833 -1.9974
28806SOL    HW292382  12.131   5.695   0.379  0.1506 -1.6939 -2.2600
28807SOL     OW92383   0.930   2.748  11.983  0.1524 -0.3726 -0.2251
28807SOL    HW192384   0.875   2.744  11.905  0.3063  0.8964 -0.4151
28807SOL    HW292385   1.010   2.792  11.954  0.5792 -0.6864  0.4449
28808SOL     OW92386   7.044   4.691   3.049 -0.0409  0.1985 -0.1990
28808SOL    HW192387   7.078   4.779   3.029 -0.4256  0.5537  0.6343
28808SOL    HW292388   6.949   4.701   3.044 -0.0668 -0.4530 -1.1816
28809SOL     OW92389  12.032   9.854   6.033 -0.5182 -0.0718 -0.3635
28809SOL    HW192390  11.994   9.942   6.023  1.0052  0.4318 -2.2306
28809SOL    HW292391  11.984   9.800   5.971 -2.0425 -0.8574  1.3750
28810SOL     OW92392   6.022   9.494  10.705 -0.2925  0.5540  0.5831
28810SOL    HW192393   6.077   9.427  10.747 -0.6437  0.8591  1.5605
28810SOL    HW292394   5.950   9.445  10.667 -0.7209  0.3810  1.5738
28811SOL     OW92395   2.267  10.358   8.083 -0.1610 -0.5198  0.4167
28811SOL    HW192396   2.309  10.426   8.135  0.2638 -1.0036  0.7155
28811SOL    HW292397   2.206  10.316   8.143 -0.2456 -0.5602  0.3029
28812SOL     OW92398   1.670   0.249   4.092 -0.3577 -0.0010  0.1207
28812SOL    HW192399   1.740   0.306   4.123 -1.1067  0.5087  0.9097
28812SOL    HW292400   1.712   0.195   4.025  0.2714  1.8015 -1.0174
28813SOL     OW92401   1.643   0.655   0.054  0.3345 -0.3969  0.4390
28813SOL    HW192402   1.698   0.586   0.091 -0.4802 -0.3983  1.6971
28813SOL    HW292403   1.616   0.707   0.130 -0.0448  0.5850 -0.3564
28814SOL     OW92404   4.018   6.874  11.141  0.8164  0.1324  0.5479
28814SOL    HW192405   4.047   6.868  11.050 -0.9604  0.9822 -0.1201
28814SOL    HW292406   4.071   6.944  11.179 -0.6685  2.0693 -0.8087
28815SOL     OW92407   2.502   2.131   1.200 -0.8911 -0.4175  0.1010
28815SOL    HW192408   2.449   2.131   1.280 -0.3408 -0.5503  0.4674
28815SOL    HW292409   2.550   2.214   1.203 -1.4640 -0.0551 -0.4928
28816SOL     OW92410   7.453   0.935  11.941 -0.1118 -0.6002 -0.0958
28816SOL    HW192411   7.460   0.853  11.892  0.2563 -1.2307  0.9901
28816SOL    HW292412   7.394   0.989  11.888  0.1901 -1.2956 -1.1760
28817SOL     OW92413   7.030   9.762   1.784 -0.7506  0.0660 -0.0691
28817SOL    HW192414   7.051   9.693   1.847 -1.8543 -0.9319 -0.7405
28817SOL    HW292415   6.936   9.754   1.770 -1.1443  2.4934  0.6873
28818SOL     OW92416   1.376   6.213   2.037 -0.2117  0.0551 -0.0487
28818SOL    HW192417   1.323   6.133   2.029 -0.7259  0.3868  0.0219
28818SOL    HW292418   1.450   6.199   1.978 -0.2621 -0.5033  0.0139
28819SOL     OW92419   8.458   4.978   7.006  0.4581  0.1752  0.3823
28819SOL    HW192420   8.472   5.043   6.937 -0.0179  0.6513  0.7257
28819SOL    HW292421   8.390   5.017   7.062  0.4098 -0.4723  0.7777
28820SOL     OW92422  10.142   4.325   2.938 -0.1801 -0.0903 -0.3176
28820SOL    HW192423  10.133   4.404   2.883  1.2814  0.1459 -0.2518
28820SOL    HW292424  10.147   4.253   2.875  0.2166  0.0517 -0.4519
28821SOL     OW92425   7.439   0.384  11.959  0.0660  0.0594 -0.3992
28821SOL    HW192426   7.344   0.380  11.951 -0.1294  0.1581  1.3235
28821SOL    HW292427   7.460   0.322  12.029  1.2292  0.2781 -0.5211
28822SOL     OW92428   3.677   1.402  12.328  0.4560 -0.2671 -0.5183
28822SOL    HW192429   3.710   1.478  12.376  3.5740 -1.3000 -0.7855
28822SOL    HW292430   3.706   1.416  12.238 -1.8195 -0.2621 -1.2991
28823SOL     OW92431   4.071   8.205   4.552  0.1115  0.2602 -0.7084
28823SOL    HW192432   4.021   8.202   4.470 -0.6783 -1.8927 -0.2301
28823SOL    HW292433   4.005   8.224   4.619 -0.2068 -2.5895 -0.0708
28824SOL     OW92434   7.191   5.013  10.217 -0.2708  0.2219 -0.2981
28824SOL    HW192435   7.132   4.939  10.199 -1.9756  0.9581  1.7754
28824SOL    HW292436   7.150   5.058  10.291  2.6509  1.1384  0.8936
28825SOL     OW92437   3.672  11.994   1.432  0.4313  0.1228  0.1127
28825SOL    HW192438   3.766  12.012   1.430  0.2372  1.2259  0.3774
28825SOL    HW292439   3.661  11.923   1.368  1.5674 -0.7241  0.8134
28826SOL     OW92440   9.632   1.375   0.936 -0.1408 -0.5219 -0.6779
28826SOL    HW192441   9.622   1.464   0.904  1.3408  0.2039  0.7494
28826SOL    HW292442   9.584   1.374   1.019  1.5459 -0.3853  0.3578
28827SOL     OW92443   1.801  11.422   1.934  0.8213  0.1294  0.2401
28827SOL    HW192444   1.749  11.361   1.883 -0.4012  2.5008 -1.5689
28827SOL    HW292445   1.784  11.399   2.025 -0.8594 -1.1814 -0.3628
28828SOL     OW92446   0.082   7.103  10.669  0.1896  0.8957  0.1557
28828SOL    HW192447   0.119   7.114  10.757  1.4565 -1.2801 -0.0277
28828SOL    HW292448  -0.013   7.111  10.682  0.1852 -1.0922  2.0979
28829SOL     OW92449   2.178   8.834   5.335  0.1511 -0.1813  0.2660
28829SOL    HW192450   2.200   8.916   5.290 -1.4177 -0.2079 -0.6086
28829SOL    HW292451   2.170   8.859   5.427 -1.1007  0.8444 -0.0869
28830SOL     OW92452  11.370   6.625   6.407  0.1659  0.6731 -1.0387
28830SOL    HW192453  11.374   6.620   6.502 -0.9522 -0.4113 -1.0296
28830SOL    HW292454  11.323   6.707   6.389  0.0591  0.6954 -0.6516
28831SOL     OW92455   9.270   4.652   7.463 -0.2456  0.0544 -0.1082
28831SOL    HW192456   9.230   4.590   7.402  0.0646  0.5535 -0.8318
28831SOL    HW292457   9.341   4.602   7.504  0.0665 -0.0409 -0.7570
28832SOL     OW92458   5.885   3.416   1.470 -0.1878 -0.0643  0.1006
28832SOL    HW192459   5.957   3.394   1.528  0.1006  0.6913  0.0337
28832SOL    HW292460   5.829   3.475   1.521  0.8033  1.7663 -0.8190
28833SOL     OW92461   7.383   2.477   5.495 -0.2645  0.0107 -0.5382
28833SOL    HW192462   7.332   2.540   5.444 -0.5878 -1.0245 -1.5229
28833SOL    HW292463   7.471   2.515   5.498 -0.3743  0.3517 -1.4098
28834SOL     OW92464  12.289   1.328   8.566  0.0210 -0.1811  0.8516
28834SOL    HW192465  12.253   1.401   8.616  0.4036  0.2397  0.5177
28834SOL    HW292466  12.355   1.367   8.509 -1.1447 -0.4913 -0.7685
28835SOL     OW92467  10.123   9.840   2.365  0.1143  0.0685  0.1945
28835SOL    HW192468  10.122   9.936   2.369 -1.8099  0.1448 -1.0106
28835SOL    HW292469  10.098   9.819   2.275 -2.9981 -1.5348  1.2706
28836SOL     OW92470   0.172   0.905   7.142  0.3036  0.5558  0.3049
28836SOL    HW192471   0.254   0.942   7.175 -0.1682  0.6925  1.3376
28836SOL    HW292472   0.195   0.874   7.054  2.0210 -1.2470  1.2923
28837SOL     OW92473   1.418   2.897   8.960  0.1903  0.0428  0.1895
28837SOL    HW192474   1.340   2.947   8.983  0.1301 -0.1622  0.4423
28837SOL    HW292475   1.385   2.812   8.929  0.2466  0.5033 -1.1859
28838SOL     OW92476   3.312  11.945   9.333  0.1473  0.4958  0.0615
28838SOL    HW192477   3.377  12.004   9.295  0.7599 -0.1160  0.1406
28838SOL    HW292478   3.351  11.915   9.415 -0.4955  0.5859  0.4098
28839SOL     OW92479   2.056   0.684  12.035 -0.1895 -0.5494  0.0575
28839SOL    HW192480   2.073   0.608  12.090  0.7814 -0.7094 -0.4531
28839SOL    HW292481   2.139   0.702  11.990 -0.6227  0.3143 -0.4421
28840SOL     OW92482   3.703   9.638   6.431  0.2189  0.5730 -1.0414
28840SOL    HW192483   3.695   9.718   6.379 -1.0335  1.3886  0.3532
28840SOL    HW292484   3.682   9.665   6.520 -1.2635 -1.4838 -0.6995
28841SOL     OW92485   9.916   0.646  10.395 -0.6746 -0.0108 -0.5100
28841SOL    HW192486   9.944   0.708  10.462  3.0097  0.7858 -2.5099
28841SOL    HW292487   9.958   0.564  10.418 -0.7163 -0.1746 -0.9943
28842SOL     OW92488   3.358   9.337   9.336 -0.0288 -0.6107  0.2812
28842SOL    HW192489   3.370   9.301   9.249  1.1813 -0.0079  0.1716
28842SOL    HW292490   3.383   9.266   9.395  0.0865 -0.7093  0.1139
28843SOL     OW92491   6.020   5.213  12.339 -0.5767 -0.6102  0.1783
28843SOL    HW192492   6.046   5.186  12.251 -1.6053 -0.7662 -0.0906
28843SOL    HW292493   5.934   5.255  12.327  0.4789  1.8711  0.7082
28844SOL     OW92494  10.992   0.167   7.094  0.6705  0.1753  0.5596
28844SOL    HW192495  10.952   0.160   7.181 -0.3510  2.0447  0.3043
28844SOL    HW292496  11.021   0.259   7.089 -2.3705  1.1675 -2.2788
28845SOL     OW92497   6.241   6.684  11.822  0.4699  0.0256  0.1509
28845SOL    HW192498   6.322   6.720  11.858  1.4182 -1.1894 -0.6706
28845SOL    HW292499   6.233   6.597  11.862  0.3014 -0.3916 -0.7515
28846SOL     OW92500   3.732   3.331   5.413 -0.3998 -0.1913  0.5657
28846SOL    HW192501   3.816   3.374   5.397 -0.5134 -0.7780 -1.9782
28846SOL    HW292502   3.754   3.244   5.446 -0.0298 -0.0696  0.6367
28847SOL     OW92503  12.317   6.207   5.195  0.1682 -0.2419  0.6550
28847SOL    HW192504  12.264   6.197   5.116  0.4061 -0.3928  0.5126
28847SOL    HW292505  12.261   6.257   5.256 -0.0829 -0.2837  0.4589
28848SOL     OW92506   8.388   1.980   3.252  1.2179  0.3304  0.0998
28848SOL    HW192507   8.345   1.899   3.224 -0.6368  1.2294  0.1593
28848SOL    HW292508   8.420   2.020   3.171 -0.0999  0.7300 -0.2447
28849SOL     OW92509   8.174   2.160   1.765 -0.1587  0.2149  0.0703
28849SOL    HW192510   8.237   2.187   1.698 -0.2850  1.0584  0.2902
28849SOL    HW292511   8.217   2.087   1.810 -0.6419 -1.3567 -1.8494
28850SOL     OW92512   4.807  11.509   2.846 -0.4458 -0.6551  0.5332
28850SOL    HW192513   4.847  11.531   2.762 -0.0246 -0.1184  0.8714
28850SOL    HW292514   4.794  11.593   2.890  1.7844 -1.0554  2.1189
28851SOL     OW92515   4.481   9.605   3.600 -0.1041  0.1688  0.0779
28851SOL    HW192516   4.420   9.633   3.668 -0.1811 -1.0084  0.5120
28851SOL    HW292517   4.566   9.639   3.630 -0.4996  1.7339 -0.4853
28852SOL     OW92518   8.844   6.984   8.782 -0.1230 -0.2750 -0.0269
28852SOL    HW192519   8.900   6.950   8.712  0.6873  0.1161  0.4175
28852SOL    HW292520   8.893   7.057   8.819 -0.1438 -0.9856  1.4970
28853SOL     OW92521   7.584   3.900  12.473  0.1742  0.1734 -0.1838
28853SOL    HW192522   7.634   3.820  12.452  0.4731  0.4905 -0.6937
28853SOL    HW292523   7.500   3.867  12.507  0.1073 -0.3548 -0.8430
28854SOL     OW92524   2.758   7.721   6.929  0.5585 -0.3115  0.0374
28854SOL    HW192525   2.782   7.635   6.896  0.7475 -0.6098  0.9293
28854SOL    HW292526   2.736   7.771   6.850  2.6299 -0.4803 -0.7134
28855SOL     OW92527   6.391   0.846  11.823 -0.3217  0.2510 -0.0378
28855SOL    HW192528   6.404   0.837  11.917  0.7103  0.4062 -0.1577
28855SOL    HW292529   6.296   0.856  11.813 -0.6197 -1.4570  0.8225
28856SOL     OW92530   7.042  11.946   7.214  0.3431 -0.5290  0.0183
28856SOL    HW192531   6.973  11.955   7.280  0.2166 -0.0045 -0.1818
28856SOL    HW292532   7.115  11.998   7.248  0.4026 -0.5421 -0.0903
28857SOL     OW92533   1.322   2.651  10.105  0.6039 -0.2368 -0.0519
28857SOL    HW192534   1.358   2.728  10.061  0.5199 -0.9846 -1.4882
28857SOL    HW292535   1.290   2.595  10.034 -0.1523 -1.2002  1.0041
28858SOL     OW92536   1.338   6.302   9.090 -0.5098  0.1563 -0.1832
28858SOL    HW192537   1.330   6.225   9.034 -0.1365 -1.0117  1.2915
28858SOL    HW292538   1.433   6.314   9.100 -0.5498  1.2224 -0.9064
28859SOL     OW92539   0.966   2.547   2.496  0.3069 -0.5895  0.2807
28859SOL    HW192540   0.919   2.595   2.564 -1.1079 -0.2144 -0.8969
28859SOL    HW292541   0.999   2.615   2.437  0.2227 -0.9470 -0.1899
28860SOL     OW92542   3.584   9.255   9.826 -0.3482 -0.1292 -0.2446
28860SOL    HW192543   3.608   9.165   9.845 -1.7979 -0.1980  1.4140
28860SOL    HW292544   3.568   9.295   9.911 -1.3707  1.2275 -1.0267
28861SOL     OW92545   8.197   0.620   9.873  0.3390 -0.5944 -0.3086
28861SOL    HW192546   8.224   0.678   9.944  0.5725 -0.2897 -0.6457
28861SOL    HW292547   8.125   0.569   9.910  0.2520 -0.2199  0.0450
28862SOL     OW92548   3.093   3.496   6.995  0.4654  0.4067  0.1461
28862SOL    HW192549   3.163   3.431   6.983 -1.4655 -2.0728  1.3966
28862SOL    HW292550   3.035   3.482   6.920  2.1185  3.8772 -2.0722
28863SOL     OW92551   7.982  12.011  10.572 -0.1863 -0.1433  0.0498
28863SOL    HW192552   7.948  12.098  10.554 -1.0304 -0.7883 -1.7160
28863SOL    HW292553   8.073  12.025  10.596  0.0258  1.1519 -1.3835
28864SOL     OW92554  11.847   9.147  12.329  0.0537 -0.0289 -0.0661
28864SOL    HW192555  11.908   9.200  12.277  1.1029  0.0740  1.2226
28864SOL    HW292556  11.761   9.184  12.309  0.5816  0.9650 -0.5959
28865SOL     OW92557   5.147   4.864  11.716 -0.0323  0.4245 -0.6636
28865SOL    HW192558   5.227   4.915  11.729 -0.6759  1.0227  1.1847
28865SOL    HW292559   5.084   4.927  11.680  0.0863  0.1408 -1.3853
28866SOL     OW92560   0.569   2.928  11.613  0.5723  0.1574  0.0052
28866SOL    HW192561   0.570   3.023  11.617  1.4609  0.2616 -1.9775
28866SOL    HW292562   0.517   2.907  11.536 -0.5241 -1.0363  0.9991
28867SOL     OW92563   8.864   6.491   4.299 -0.8277  0.0492 -0.0863
28867SOL    HW192564   8.905   6.541   4.229  0.1873 -1.2907 -0.4758
28867SOL    HW292565   8.880   6.543   4.378  2.1340 -0.6330 -0.1290
28868SOL     OW92566  10.341   1.555   9.260 -0.5883 -0.1678  0.3592
28868SOL    HW192567  10.369   1.642   9.233 -1.8340  0.1511  0.0137
28868SOL    HW292568  10.419   1.516   9.301  0.1934  0.8199 -0.1421
28869SOL     OW92569   8.487  11.759  10.759 -0.1660  0.7030 -0.1020
28869SOL    HW192570   8.470  11.666  10.750 -0.3737  0.7898 -0.6973
28869SOL    HW292571   8.503  11.773  10.852 -1.3327  0.2697  0.1779
28870SOL     OW92572   0.498  11.935   2.995  0.6609 -0.0567  0.1625
28870SOL    HW192573   0.516  11.849   3.032 -0.4808 -1.4536 -2.2736
28870SOL    HW292574   0.577  11.956   2.944  0.6980  0.0571  0.2667
28871SOL     OW92575   6.490   6.437   1.791  0.4271  0.1795  0.0123
28871SOL    HW192576   6.404   6.477   1.805  0.0870 -0.7755  0.7470
28871SOL    HW292577   6.494   6.365   1.854  2.3918  1.1422  1.0892
28872SOL     OW92578  10.194  10.581   2.840  0.2628  0.6754  0.2408
28872SOL    HW192579  10.122  10.624   2.793 -0.7612 -0.6499  0.5306
28872SOL    HW292580  10.238  10.652   2.886 -0.2218  1.6615 -0.7688
28873SOL     OW92581   6.816   0.459   0.299 -0.0957  0.0278  0.1188
28873SOL    HW192582   6.799   0.553   0.303  1.2870  0.4524 -2.1618
28873SOL    HW292583   6.909   0.450   0.320 -0.1325 -0.7998 -0.0039
28874SOL     OW92584  11.113   3.182   7.760 -0.1681  0.5637  0.3384
28874SOL    HW192585  11.207   3.165   7.764 -0.2419  0.0756  0.1701
28874SOL    HW292586  11.105   3.277   7.767  0.4390  0.7634 -1.1978
28875SOL     OW92587   3.826   7.544   3.798 -0.4330  0.2745  0.1942
28875SOL    HW192588   3.739   7.583   3.793 -1.6627 -2.3511 -2.1531
28875SOL    HW292589   3.810   7.450   3.802  2.3171 -0.2740  0.6590
28876SOL     OW92590   5.156  11.258   8.950  0.0836  0.2604  0.3674
28876SOL    HW192591   5.216  11.263   8.875 -1.5418  0.1038 -1.0153
28876SOL    HW292592   5.071  11.283   8.914 -1.0427 -1.2469  1.8252
28877SOL     OW92593   6.056   1.626  12.107  0.3845  0.1215 -0.1968
28877SOL    HW192594   5.963   1.644  12.090  0.4117  0.1413 -0.3289
28877SOL    HW292595   6.092   1.608  12.020  0.5159  0.1671 -0.1507
28878SOL     OW92596  10.792   2.659   1.914 -0.2389  0.2018 -0.2457
28878SOL    HW192597  10.852   2.591   1.884  1.2053  0.4102  1.9108
28878SOL    HW292598  10.790   2.648   2.009 -1.8625  1.6661 -0.0669
28879SOL     OW92599   2.728   2.690  11.534  0.1626 -0.5023  0.5909
28879SOL    HW192600   2.658   2.632  11.504  0.9968 -1.2261 -0.0251
28879SOL    HW292601   2.730   2.761  11.471  0.6700 -1.0353 -0.0043
28880SOL     OW92602   8.929   6.054   6.466 -0.3737 -0.4536  0.1717
28880SOL    HW192603   8.839   6.084   6.476 -0.8882 -0.4419 -3.1397
28880SOL    HW292604   8.982   6.134   6.471 -0.7392 -0.2303  0.4844
28881SOL     OW92605   8.059   8.701  11.830 -0.3775  0.1261 -0.4661
28881SOL    HW192606   8.093   8.790  11.843 -1.1130  0.2586  0.7249
28881SOL    HW292607   7.982   8.697  11.887 -0.7882 -1.0344 -1.0848
28882SOL     OW92608  10.326   7.963   4.229 -0.2445 -0.4114  0.0446
28882SOL    HW192609  10.233   7.973   4.250 -0.2624 -0.2519 -0.1073
28882SOL    HW292610  10.363   7.918   4.305 -0.6151 -1.2846 -0.2815
28883SOL     OW92611  10.084   1.415   6.419 -0.0951 -0.3749  0.0460
28883SOL    HW192612  10.165   1.365   6.410  0.2896  0.3955 -1.0480
28883SOL    HW292613  10.046   1.413   6.331 -1.2634 -0.7081  0.5418
28884SOL     OW92614   6.416   7.131   0.314  0.3355 -0.4100 -0.0214
28884SOL    HW192615   6.434   7.195   0.246  0.2157  0.8683  1.1123
28884SOL    HW292616   6.502   7.099   0.340  0.4482 -0.1677 -0.0908
28885SOL     OW92617  10.003   4.132   7.612 -0.2089 -0.2730  0.6030
28885SOL    HW192618  10.044   4.094   7.534 -2.9421 -2.0365 -0.1324
28885SOL    HW292619   9.924   4.175   7.579 -0.4012  0.7008  2.2020
28886SOL     OW92620   3.705  10.392   0.845 -0.0689  0.1828 -0.9703
28886SOL    HW192621   3.794  10.359   0.844  0.5079  1.5837  0.1925
28886SOL    HW292622   3.655  10.325   0.892  0.6046 -0.0949 -0.6480
28887SOL     OW92623  11.073   5.394   4.838 -0.1688 -0.1997  0.0668
28887SOL    HW192624  10.996   5.357   4.796 -1.4487 -0.6128  2.5974
28887SOL    HW292625  11.072   5.486   4.812 -0.5798 -0.5346 -1.1931
28888SOL     OW92626   0.811   3.977   1.498  0.3112 -0.2103 -0.0316
28888SOL    HW192627   0.800   3.897   1.447 -0.0617 -0.1050 -0.1222
28888SOL    HW292628   0.892   3.964   1.548 -0.9671 -1.6539  1.8108
28889SOL     OW92629   5.822  11.601   3.884  0.1123  0.3060 -0.0379
28889SOL    HW192630   5.781  11.541   3.822  1.1823  0.9063 -1.3908
28889SOL    HW292631   5.759  11.608   3.956 -1.5322  0.1835 -1.3975
28890SOL     OW92632   1.369   6.252   3.531 -0.0075  0.4507 -0.1297
28890SOL    HW192633   1.460   6.265   3.560  0.3765  1.2657 -1.6032
28890SOL    HW292634   1.316   6.277   3.606  0.9795  0.8107  0.4651
28891SOL     OW92635   8.918   8.542   8.099  0.4786  0.2947  0.2242
28891SOL    HW192636   8.885   8.465   8.146 -1.4853  0.7255 -0.3669
28891SOL    HW292637   9.009   8.550   8.127  0.4419 -1.6584  1.0520
28892SOL     OW92638   9.089   6.534   9.869  0.4236 -0.3176 -0.3163
28892SOL    HW192639   9.173   6.534   9.822 -0.2387  1.2998 -1.6041
28892SOL    HW292640   9.073   6.442   9.889  2.9230 -0.6090  0.7994
28893SOL     OW92641  10.168   9.198   0.413  0.1612  0.0543 -0.0092
28893SOL    HW192642  10.194   9.149   0.336  1.3238  0.4562  0.1085
28893SOL    HW292643  10.196   9.288   0.396 -1.3677  0.5774  0.0434
28894SOL     OW92644   9.789   9.284   7.842 -0.3212  0.3309 -0.0774
28894SOL    HW192645   9.838   9.364   7.822  1.3294 -0.5486  0.2663
28894SOL    HW292646   9.737   9.307   7.920 -1.0890  1.5164 -0.9065
28895SOL     OW92647   4.535   2.977   7.580  0.2804 -0.0060 -0.2468
28895SOL    HW192648   4.493   2.898   7.547  0.6200  0.3894 -1.6795
28895SOL    HW292649   4.602   2.945   7.641  0.9544 -0.8812 -1.4093
28896SOL     OW92650   6.143  11.699   2.095  0.1691  0.7434  0.8315
28896SOL    HW192651   6.101  11.641   2.159  0.3805 -1.5960 -1.0121
28896SOL    HW292652   6.138  11.786   2.135  1.7010 -0.7420  4.7370
28897SOL     OW92653   9.208   6.542   1.970  0.0094  0.3906  0.0266
28897SOL    HW192654   9.206   6.544   2.065 -0.8478  0.6772  0.0115
28897SOL    HW292655   9.254   6.622   1.945 -0.1743  0.5492  0.1928
28898SOL     OW92656  11.699  10.215   6.578  0.0705  0.5589 -0.7450
28898SOL    HW192657  11.607  10.199   6.556  0.0792  0.1865 -0.5177
28898SOL    HW292658  11.747  10.201   6.497 -0.0177  0.2411 -0.7440
28899SOL     OW92659   4.522  12.146   9.487  0.6220  0.2411 -0.1672
28899SOL    HW192660   4.592  12.210   9.476  0.2397  0.6949  0.0354
28899SOL    HW292661   4.459  12.167   9.418  0.6181 -0.0867 -0.2693
28900SOL     OW92662  12.093   7.766   7.299 -0.3822  0.4541 -0.2497
28900SOL    HW192663  12.027   7.739   7.363  0.3935 -0.0898  0.3327
28900SOL    HW292664  12.171   7.717   7.323  0.5283  1.8459 -0.3159
28901SOL     OW92665  10.872   3.391  12.058 -0.1380 -0.1180  0.4840
28901SOL    HW192666  10.810   3.347  12.000 -0.1212 -1.0248  1.1342
28901SOL    HW292667  10.833   3.478  12.072  0.0247  0.2372 -1.1114
28902SOL     OW92668   2.111   1.829   2.717  0.0394  0.3319 -0.7683
28902SOL    HW192669   2.057   1.852   2.793 -1.2799  1.0714 -1.9033
28902SOL    HW292670   2.178   1.898   2.714  0.1405  0.2646 -0.2517
28903SOL     OW92671   8.908   1.409  11.065 -0.1934 -0.3345  0.6036
28903SOL    HW192672   8.909   1.491  11.115 -0.9542 -0.7634  1.3516
28903SOL    HW292673   8.962   1.427  10.988 -1.1073  1.1735  0.2741
28904SOL     OW92674   5.507   5.087   4.907  0.7488  0.5528 -0.2439
28904SOL    HW192675   5.552   5.171   4.918  4.4609 -1.2766  0.0708
28904SOL    HW292676   5.497   5.078   4.812  0.1836  1.4072 -0.2709
28905SOL     OW92677  10.655  11.907   2.547 -0.1847 -0.0481 -0.1314
28905SOL    HW192678  10.683  11.817   2.530 -1.2679 -0.3243 -0.4966
28905SOL    HW292679  10.722  11.961   2.505  0.1250 -0.6898 -0.4761
28906SOL     OW92680   4.157   4.964  11.484 -0.7636 -0.3106 -0.0144
28906SOL    HW192681   4.201   5.048  11.497 -0.1365 -0.5197 -0.6940
28906SOL    HW292682   4.217   4.900  11.524 -0.5822 -0.5685 -0.6909
28907SOL     OW92683   3.910   4.288   3.204 -0.5683 -0.2364  0.1099
28907SOL    HW192684   3.837   4.226   3.203 -1.0007  0.2208 -1.9322
28907SOL    HW292685   3.929   4.303   3.112 -1.9487  4.3344  0.3110
28908SOL     OW92686   8.272   8.347  12.125  0.0660 -0.5735  0.1855
28908SOL    HW192687   8.250   8.255  12.112 -0.4616 -0.3897 -0.2514
28908SOL    HW292688   8.207   8.378  12.188  0.1764 -0.4686  0.2481
28909SOL     OW92689   9.070   5.012   5.522 -0.0358  0.0272 -0.0084
28909SOL    HW192690   9.163   4.990   5.515  0.1594  0.6085  0.6210
28909SOL    HW292691   9.041   4.966   5.601 -0.7315 -1.5955 -1.1613
28910SOL     OW92692   1.708  11.359   1.429  0.4302  0.2740 -0.2451
28910SOL    HW192693   1.764  11.289   1.461  0.7495  0.3273 -0.6865
28910SOL    HW292694   1.748  11.388   1.348  1.2476  2.0675  0.7320
28911SOL     OW92695   8.508   3.087   2.197  0.2717  0.0846 -0.0905
28911SOL    HW192696   8.543   3.144   2.128 -3.3770  2.4962 -0.2264
28911SOL    HW292697   8.462   3.018   2.150 -0.1751  0.3451 -0.0387
28912SOL     OW92698  11.885  10.235  10.828 -0.5498 -0.0633 -0.3453
28912SOL    HW192699  11.858  10.319  10.866  2.5219  0.0477  1.9346
28912SOL    HW292700  11.969  10.255  10.786  0.0097 -1.9137 -0.1603
28913SOL     OW92701  12.397   7.096   8.572 -0.3144  0.2515 -0.1109
28913SOL    HW192702  12.348   7.164   8.619  1.2346  0.1509  1.7624
28913SOL    HW292703  12.489   7.119   8.585  0.2067 -0.5994 -1.9493
28914SOL     OW92704   5.006   6.959   5.609 -0.6268 -0.2064  0.0775
28914SOL    HW192705   5.073   6.909   5.562  0.3521 -0.0363  1.2213
28914SOL    HW292706   4.972   6.898   5.675  0.7704  0.6149  1.6658
28915SOL     OW92707  10.917   5.464  10.499 -0.5622 -0.0069 -0.2662
28915SOL    HW192708  10.882   5.467  10.588 -0.6748  1.2392 -0.3356
28915SOL    HW292709  10.858   5.519  10.447  0.2169  0.3102 -0.8469
28916SOL     OW92710   4.773   3.031   0.222 -0.1117 -0.0912 -0.1240
28916SOL    HW192711   4.849   2.997   0.270 -0.0665 -0.1186 -0.2168
28916SOL    HW292712   4.788   3.006   0.131 -0.7788 -1.1203  0.0214
28917SOL     OW92713  11.828   7.314   0.689  0.0573  0.3150 -0.7561
28917SOL    HW192714  11.889   7.250   0.726  1.9299  1.1889 -2.1785
28917SOL    HW292715  11.811   7.282   0.601 -3.1072 -0.8951  0.1433
28918SOL     OW92716  11.207   0.190  10.150 -0.4028 -0.0979 -0.2618
28918SOL    HW192717  11.210   0.285  10.152 -1.9001 -0.0300  1.4214
28918SOL    HW292718  11.291   0.163  10.187  0.6409  0.4964 -2.0912
28919SOL     OW92719   8.608   1.230   2.993  0.8595  0.0402  0.0027
28919SOL    HW192720   8.555   1.236   3.072  0.5953  0.0040 -0.1729
28919SOL    HW292721   8.546   1.209   2.923  0.9131  1.2795 -0.4322
28920SOL     OW92722  11.995  10.187   2.389 -0.3555 -0.4831  1.1402
28920SOL    HW192723  12.003  10.104   2.436  2.4867  0.3698  2.3628
28920SOL    HW292724  12.014  10.254   2.455  1.3016  0.8958 -0.6305
28921SOL     OW92725   4.562  10.761   0.694 -0.4344 -0.4218 -0.1734
28921SOL    HW192726   4.491  10.793   0.639 -0.5632 -0.7985 -0.2316
28921SOL    HW292727   4.633  10.824   0.681  0.0566 -1.2766 -1.8932
28922SOL     OW92728   7.123   2.061  12.349  0.1457  0.1187 -0.0640
28922SOL    HW192729   7.133   2.156  12.346 -1.4882  0.4989  2.9393
28922SOL    HW292730   7.106   2.036  12.258  1.1366  2.5788 -1.0317
28923SOL     OW92731   4.917   0.003  12.281  0.0587  0.4098 -0.2775
28923SOL    HW192732   4.882   0.073  12.337  0.1589  1.7583 -1.8224
28923SOL    HW292733   5.012   0.015  12.287  0.0730  0.4413 -0.5820
28924SOL     OW92734  11.495   5.226   5.745 -0.1179 -0.3582 -0.1826
28924SOL    HW192735  11.425   5.219   5.681  0.7263  0.4061 -1.2403
28924SOL    HW292736  11.575   5.236   5.693  0.6469 -0.0734  0.9768
28925SOL     OW92737  11.341   8.067  11.549 -0.1358  0.7350  0.1462
28925SOL    HW192738  11.337   7.996  11.485  1.6821  1.6787 -1.1078
28925SOL    HW292739  11.285   8.136  11.513  2.0415  1.8550 -1.3177
28926SOL     OW92740   5.561   8.146   1.195  0.5237  0.2150  0.2424
28926SOL    HW192741   5.496   8.211   1.169  0.8628  0.4072 -0.1487
28926SOL    HW292742   5.642   8.197   1.204  0.8499 -0.2000 -0.3369
28927SOL     OW92743  10.477   0.268   1.703  0.0592  0.3277  0.4327
28927SOL    HW192744  10.386   0.294   1.714 -0.1503 -0.1958 -0.0278
28927SOL    HW292745  10.484   0.184   1.747  0.6183  0.9012  1.4890
28928SOL     OW92746   0.336  12.214   3.119 -0.2624 -0.2653  0.4990
28928SOL    HW192747   0.306  12.133   3.160 -1.0705 -1.3415 -2.0408
28928SOL    HW292748   0.406  12.186   3.059  1.7226  1.4101  1.8766
28929SOL     OW92749   0.507   5.229  10.630 -0.0499 -0.2703 -0.1679
28929SOL    HW192750   0.597   5.252  10.653 -0.3980  2.6235 -1.2608
28929SOL    HW292751   0.468   5.199  10.712  0.9414  1.9881  1.2313
28930SOL     OW92752   3.734   5.487   3.267 -0.0869  0.2242 -0.4042
28930SOL    HW192753   3.695   5.480   3.354  0.6650 -2.4295 -0.1986
28930SOL    HW292754   3.668   5.531   3.214 -2.1177 -1.4311  0.6321
28931SOL     OW92755   3.613   9.789   2.112 -0.3184 -0.0465 -0.5581
28931SOL    HW192756   3.577   9.843   2.041  0.3350  0.3744 -0.5760
28931SOL    HW292757   3.699   9.762   2.080  0.5214  1.1781  0.5637
28932SOL     OW92758  10.770  12.432   2.300 -0.4835 -0.3430  0.0667
28932SOL    HW192759  10.767  12.518   2.342  0.5571  0.3404 -1.2015
28932SOL    HW292760  10.680  12.401   2.303 -0.6804  0.2502  1.5846
28933SOL     OW92761   4.659   6.545   3.066 -0.1644 -0.1866  0.1797
28933SOL    HW192762   4.564   6.531   3.065 -0.0976 -0.6191 -0.4855
28933SOL    HW292763   4.673   6.606   3.138 -0.8407 -0.8824  0.9169
28934SOL     OW92764  12.108   8.278   7.150  0.5436 -0.1754 -0.3164
28934SOL    HW192765  12.082   8.366   7.124  0.9627 -0.2961 -1.1852
28934SOL    HW292766  12.192   8.264   7.105 -1.1975 -2.3672 -3.2295
28935SOL     OW92767   9.005   8.029  11.723  0.0138 -0.8570 -0.0520
28935SOL    HW192768   9.072   8.075  11.673 -0.9562 -1.2158 -1.7396
28935SOL    HW292769   8.936   8.008  11.659 -1.1791 -1.5298  1.3812
28936SOL     OW92770   9.022   6.248  11.669  0.2915 -0.3024  0.0191
28936SOL    HW192771   8.963   6.308  11.715 -0.8512 -1.3789  0.0139
28936SOL    HW292772   9.098   6.301  11.648 -1.3288  1.6140 -1.4061
28937SOL     OW92773   2.520  11.375   3.373  0.2249  0.6539  0.3971
28937SOL    HW192774   2.528  11.280   3.384  1.2561  0.7528  0.6464
28937SOL    HW292775   2.514  11.388   3.279  3.0271  0.4931  0.1120
28938SOL     OW92776   3.487   9.491   0.003  0.2421 -0.1770  0.3389
28938SOL    HW192777   3.557   9.484  -0.062 -0.7755  1.1457 -0.9626
28938SOL    HW292778   3.508   9.570   0.053  0.1781 -0.3072  0.5735
28939SOL     OW92779   4.797   9.850   9.395  0.0298  0.0964 -0.2276
28939SOL    HW192780   4.839   9.853   9.481 -0.7650 -1.6627  0.2644
28939SOL    HW292781   4.868   9.832   9.334  0.5095  0.7337  0.1352
28940SOL     OW92782   4.370   5.168   6.504 -0.6294  0.0967  0.1550
28940SOL    HW192783   4.325   5.182   6.587  0.1629 -0.6288  0.7237
28940SOL    HW292784   4.305   5.123   6.449 -0.6687 -0.8350  0.9270
28941SOL     OW92785   5.617   7.599   8.410 -0.3729  0.1261 -0.1334
28941SOL    HW192786   5.709   7.623   8.402 -0.4547  0.4874  0.0030
28941SOL    HW292787   5.580   7.618   8.323 -0.2667 -0.2428 -0.2595
28942SOL     OW92788   4.192  12.221   5.911  0.6330 -0.4500  0.1873
28942SOL    HW192789   4.265  12.182   5.863 -0.3946 -2.2323 -0.0262
28942SOL    HW292790   4.223  12.307   5.937  2.6213 -0.9669 -0.3332
28943SOL     OW92791   9.079   8.847   0.586  0.0153 -0.3922 -0.0323
28943SOL    HW192792   9.022   8.828   0.660  1.4925 -2.1055  0.7536
28943SOL    HW292793   9.139   8.773   0.582  1.3153  0.6568 -1.6675
28944SOL     OW92794   8.777   3.532   8.023 -0.1031  1.0414  0.7365
28944SOL    HW192795   8.755   3.465   7.959 -0.7323  0.6332  1.3614
28944SOL    HW292796   8.872   3.531   8.028  0.1285  2.6394 -1.8235
28945SOL     OW92797   9.402   2.715   6.533  0.1815 -0.0139 -0.1073
28945SOL    HW192798   9.354   2.654   6.589 -1.0879  0.3064 -0.8077
28945SOL    HW292799   9.405   2.672   6.448  0.0178  0.5133 -0.3873
28946SOL     OW92800   9.634  11.212   7.663  0.1143  0.6450  0.4122
28946SOL    HW192801   9.721  11.248   7.647  0.8624 -0.7801  1.0528
28946SOL    HW292802   9.620  11.223   7.758 -0.0405  0.0932  0.4559
28947SOL     OW92803   3.619   1.523   6.652  0.2744 -0.2798  0.0482
28947SOL    HW192804   3.647   1.485   6.569 -0.9994 -0.9348 -0.1086
28947SOL    HW292805   3.674   1.601   6.662  1.3139 -0.8767 -0.7804
28948SOL     OW92806   0.359   8.693  10.602 -0.4326 -0.6131  0.0519
28948SOL    HW192807   0.382   8.786  10.605  2.9704 -1.2770 -0.9006
28948SOL    HW292808   0.330   8.678  10.512  2.8519 -1.0691 -1.0751
28949SOL     OW92809   9.914  11.016   7.163 -0.0064 -0.1947  0.8022
28949SOL    HW192810   9.948  10.972   7.085 -1.8105  0.8118 -0.6453
28949SOL    HW292811   9.974  10.991   7.233  2.8911  0.4149 -1.2738
28950SOL     OW92812  11.320  11.794   7.470 -0.6407  0.0348  0.5547
28950SOL    HW192813  11.242  11.848   7.455 -0.5410  0.0191 -0.0551
28950SOL    HW292814  11.393  11.854   7.459 -0.4307 -0.5608 -2.0708
28951SOL     OW92815   7.638   9.114   3.588  0.0304  0.2222  0.5092
28951SOL    HW192816   7.650   9.114   3.493 -1.0710  0.9860  0.3478
28951SOL    HW292817   7.668   9.200   3.617  1.9973 -0.6234  1.1171
28952SOL     OW92818   6.512   9.026  10.526 -0.5220 -0.1061  0.6606
28952SOL    HW192819   6.596   9.070  10.537  0.0118 -1.5023  2.6208
28952SOL    HW292820   6.455   9.093  10.487  1.6304  0.6535 -1.4694
28953SOL     OW92821  10.214   4.629   6.732 -0.1438  0.4776  0.0384
28953SOL    HW192822  10.300   4.647   6.771 -0.3628  0.5413  0.5081
28953SOL    HW292823  10.171   4.715   6.730 -0.2836  0.4065  0.0277
28954SOL     OW92824   4.368  12.015  11.315 -0.4561 -0.3789 -0.4173
28954SOL    HW192825   4.278  11.988  11.332 -0.6823  0.3054 -0.4807
28954SOL    HW292826   4.412  12.007  11.400 -1.4989  2.7066  0.5826
28955SOL     OW92827   8.091   2.239   4.380 -0.1107  0.1244  0.4798
28955SOL    HW192828   8.038   2.160   4.380  0.8840 -0.5652 -0.2089
28955SOL    HW292829   8.141   2.234   4.462 -0.8218  0.5879  0.9495
28956SOL     OW92830   3.145   1.853   6.467  0.3656 -0.0077  0.5104
28956SOL    HW192831   3.120   1.763   6.484 -1.7171  0.4821  0.3003
28956SOL    HW292832   3.112   1.871   6.379  0.6733  0.9909  0.5800
28957SOL     OW92833   2.277   3.698   5.092 -0.4744  0.1852  0.0176
28957SOL    HW192834   2.212   3.635   5.125 -0.4724  0.3795  0.4057
28957SOL    HW292835   2.356   3.646   5.078 -0.4483  0.1149  0.4166
28958SOL     OW92836   6.580   2.832   7.176 -0.0548 -0.0853  0.5460
28958SOL    HW192837   6.531   2.814   7.095 -0.3636  0.5550  0.5839
28958SOL    HW292838   6.657   2.776   7.170 -0.7313 -1.0502  0.4377
28959SOL     OW92839   4.178  12.441  11.792 -0.0824 -0.1327 -0.2161
28959SOL    HW192840   4.106  12.471  11.736 -1.3830 -1.6652  0.5335
28959SOL    HW292841   4.140  12.438  11.880  1.2880  0.1962  0.4165
28960SOL     OW92842   8.714   7.689   2.852 -0.2712 -0.0543 -0.8292
28960SOL    HW192843   8.628   7.657   2.877  0.7902 -2.3625  0.1535
28960SOL    HW292844   8.711   7.697   2.757 -1.7267  0.5346 -0.7591
28961SOL     OW92845   8.718  12.124   9.543 -0.3989  0.4702  0.4375
28961SOL    HW192846   8.643  12.126   9.483 -0.1007 -0.4697  0.0094
28961SOL    HW292847   8.786  12.078   9.494  0.1732  0.5462  1.1471
28962SOL     OW92848  12.231  12.430   1.072 -0.1242 -0.3131  0.6966
28962SOL    HW192849  12.246  12.515   1.030  0.4342  0.0071  1.5023
28962SOL    HW292850  12.137  12.427   1.088  0.1564  1.6068  3.5336
28963SOL     OW92851  10.292   5.014  10.282  0.1502 -0.3041  0.3405
28963SOL    HW192852  10.311   5.055  10.197  0.7035 -0.0299  0.5881
28963SOL    HW292853  10.227   4.947  10.263  0.5258 -0.4796 -0.3608
28964SOL     OW92854   6.972   7.344   4.911  0.0992 -0.4547  0.4364
28964SOL    HW192855   7.007   7.430   4.887  1.1605 -0.7572  0.8270
28964SOL    HW292856   7.025   7.318   4.986  0.2081 -1.7169 -0.0658
28965SOL     OW92857  10.671   3.841   3.564 -0.0143  0.2491  0.7474
28965SOL    HW192858  10.673   3.788   3.485  0.1174  0.6414  0.4826
28965SOL    HW292859  10.581   3.874   3.568  0.8163  3.1593 -1.2443
28966SOL     OW92860  11.339   4.154   2.618 -0.0204  0.6328 -0.4301
28966SOL    HW192861  11.392   4.230   2.643 -1.2170  1.4279 -0.2147
28966SOL    HW292862  11.253   4.170   2.658 -0.5889 -0.3646 -1.1899
28967SOL     OW92863   7.748   1.380   9.465 -0.1894  0.2793  0.3629
28967SOL    HW192864   7.668   1.432   9.455 -0.0883  0.4914  0.6461
28967SOL    HW292865   7.819   1.440   9.442  0.0194  0.6580  1.8791
28968SOL     OW92866  11.617   9.951   3.967 -0.4546  0.0170  0.6291
28968SOL    HW192867  11.635   9.997   3.885  0.9542 -0.8104  0.4400
28968SOL    HW292868  11.697   9.901   3.984 -0.0141  1.4945  3.4205
28969SOL     OW92869   8.498   7.552   7.880 -0.6994 -0.1642 -0.2169
28969SOL    HW192870   8.434   7.616   7.850 -2.2078 -0.2708  2.5116
28969SOL    HW292871   8.488   7.479   7.819 -3.5700 -0.3705  0.3609
28970SOL     OW92872  10.954  10.511  11.448 -0.1897 -0.2117 -0.0666
28970SOL    HW192873  10.996  10.578  11.395  0.9594 -1.0486 -0.2509
28970SOL    HW292874  10.971  10.539  11.539  0.2347 -0.2064 -0.1429
28971SOL     OW92875   5.934   4.158   4.577  0.0118  0.1777  0.1360
28971SOL    HW192876   5.916   4.201   4.661 -0.9385  0.6425 -0.2991
28971SOL    HW292877   6.030   4.148   4.576  0.0123 -0.2809  1.4849
28972SOL     OW92878   0.172  10.301   4.872  0.0087  0.0480  0.0206
28972SOL    HW192879   0.128  10.372   4.826 -0.1459  1.1402  1.7466
28972SOL    HW292880   0.219  10.253   4.804  0.1405  1.8349 -1.2135
28973SOL     OW92881   4.044   2.166   9.927 -0.1865  0.1901  0.0254
28973SOL    HW192882   4.026   2.090   9.983  1.4102  0.8912  1.5634
28973SOL    HW292883   4.070   2.235   9.987 -0.0543  1.4980 -1.4740
28974SOL     OW92884   8.263   1.749   7.320  0.0904 -0.2875  0.4631
28974SOL    HW192885   8.253   1.831   7.273 -0.4460 -0.4054  0.3579
28974SOL    HW292886   8.198   1.754   7.391  0.5904 -0.2932  0.9324
28975SOL     OW92887  12.214   2.952   4.211 -0.1828  0.3494 -0.0122
28975SOL    HW192888  12.132   2.926   4.254 -0.7347  0.6896 -0.8337
28975SOL    HW292889  12.193   3.034   4.167  1.1227  1.4306  1.2700
28976SOL     OW92890  10.375   9.145   9.945 -0.7586  0.2381 -0.3147
28976SOL    HW192891  10.283   9.149   9.973 -0.8776 -0.0635 -0.6533
28976SOL    HW292892  10.402   9.055   9.966 -0.9989 -0.1578 -1.5930
28977SOL     OW92893   1.964   8.285   6.704 -0.5040  0.1902 -0.2794
28977SOL    HW192894   1.916   8.360   6.738 -0.6817 -0.1815  0.3060
28977SOL    HW292895   2.045   8.283   6.754  0.6107  1.4089 -1.9500
28978SOL     OW92896   1.326   5.610   2.464  0.7809  0.7160 -0.2444
28978SOL    HW192897   1.381   5.614   2.542  0.3694 -1.2518  0.2196
28978SOL    HW292898   1.241   5.579   2.496  0.6205 -0.1963 -1.4470
28979SOL     OW92899   1.215   1.121   2.043 -0.1299 -0.5292  0.1786
28979SOL    HW192900   1.290   1.079   2.003  0.1646 -1.1582  1.3297
28979SOL    HW292901   1.239   1.131   2.135 -1.2689 -0.3054  0.4742
28980SOL     OW92902   9.483   4.742   8.318  0.0856 -0.4581 -0.1310
28980SOL    HW192903   9.517   4.725   8.405  2.1012 -1.0245 -0.9788
28980SOL    HW292904   9.453   4.657   8.286 -3.1465  0.1558  0.9233
28981SOL     OW92905   8.648  12.469  11.354  0.6864 -0.0042 -0.2934
28981SOL    HW192906   8.681  12.537  11.295  0.7860 -0.5215 -0.8443
28981SOL    HW292907   8.714  12.400  11.350  0.8907  0.1203  0.7416
28982SOL     OW92908   8.479   8.928   0.957  0.1613 -0.2960 -0.0702
28982SOL    HW192909   8.475   9.020   0.981 -0.6826 -0.2247 -0.4400
28982SOL    HW292910   8.570   8.913   0.934  0.2938  0.4590 -0.0554
28983SOL     OW92911   9.265   1.712   8.697  1.0820  0.4475 -0.0321
28983SOL    HW192912   9.289   1.675   8.782 -0.8116 -0.0797  0.3140
28983SOL    HW292913   9.210   1.788   8.719 -0.6270 -0.5398 -0.7573
28984SOL     OW92914   2.532  11.418   6.734 -0.3877 -0.0515 -0.3097
28984SOL    HW192915   2.482  11.363   6.795 -1.5159 -0.2041 -1.3433
28984SOL    HW292916   2.593  11.357   6.692  1.7924  0.3660  1.9645
28985SOL     OW92917   8.423   5.026   6.344  0.3882  0.3705  0.3882
28985SOL    HW192918   8.382   5.062   6.423 -0.6831  2.9379 -1.2072
28985SOL    HW292919   8.513   5.007   6.371 -0.7106 -1.9031  3.0091
28986SOL     OW92920   3.056   1.162   8.821  0.2066  0.4128  0.2700
28986SOL    HW192921   3.111   1.084   8.808  0.3423  0.4067  0.8487
28986SOL    HW292922   3.054   1.204   8.735 -0.6343 -0.7153 -0.2884
28987SOL     OW92923   4.232   6.352   1.387  0.4099  0.4691  0.1307
28987SOL    HW192924   4.189   6.374   1.304  2.5650  1.7823 -0.7424
28987SOL    HW292925   4.302   6.292   1.362 -0.9935 -1.8793  1.5513
28988SOL     OW92926   2.985   6.699  12.244 -0.1486 -0.0077 -0.4008
28988SOL    HW192927   2.983   6.614  12.200  0.1787 -0.2910  0.1307
28988SOL    HW292928   2.920   6.752  12.196 -0.1453 -0.4619 -0.9113
28989SOL     OW92929   5.851  11.367   2.885 -0.0643  0.1569 -0.0448
28989SOL    HW192930   5.825  11.319   2.806 -0.1443  0.5522 -0.2626
28989SOL    HW292931   5.834  11.458   2.863 -0.9335  0.1986  0.7544
28990SOL     OW92932  10.295   7.917   6.931 -0.2145  0.0095 -0.2888
28990SOL    HW192933  10.277   8.005   6.965 -1.0596 -0.7155  1.2203
28990SOL    HW292934  10.365   7.930   6.867 -0.2484  1.7646 -0.0105
28991SOL     OW92935   9.623   2.869   0.521  0.1283  0.4651  0.3133
28991SOL    HW192936   9.529   2.878   0.537 -0.5291  1.3425 -3.1330
28991SOL    HW292937   9.655   2.959   0.514  0.8852  0.1719 -0.0870
28992SOL     OW92938  10.933  11.856  12.400  0.1141 -0.0094  0.6882
28992SOL    HW192939  10.982  11.888  12.325 -0.3185  0.2353  0.5094
28992SOL    HW292940  10.898  11.934  12.442 -0.1939 -0.1856  0.7691
28993SOL     OW92941   4.976   3.967   9.644  0.3954 -0.4274 -0.0516
28993SOL    HW192942   5.003   3.876   9.631  0.8694 -0.1692 -0.9389
28993SOL    HW292943   5.019   3.993   9.725  1.9636 -0.3590 -0.8781
28994SOL     OW92944   3.631  10.589  11.197  0.2026 -0.4761 -0.2229
28994SOL    HW192945   3.629  10.625  11.109 -0.1279 -0.5804 -0.2626
28994SOL    HW292946   3.622  10.665  11.255 -1.5190 -0.5487 -0.3265
28995SOL     OW92947   5.930   9.122  10.416 -0.1489 -0.2831  0.8390
28995SOL    HW192948   5.921   9.030  10.391  0.7518 -0.7350  2.0940
28995SOL    HW292949   6.006   9.124  10.474 -1.3950  0.8971  2.5251
28996SOL     OW92950   4.558   0.877   5.578 -0.0776  0.2843  0.6562
28996SOL    HW192951   4.502   0.936   5.528 -0.1948  0.3047  0.8142
28996SOL    HW292952   4.596   0.819   5.512 -0.7054 -0.0827  0.6128
28997SOL     OW92953   4.247   5.192   7.127  0.4531  0.1696 -0.0953
28997SOL    HW192954   4.158   5.225   7.140  0.9635  1.5734  0.0172
28997SOL    HW292955   4.235   5.103   7.094 -0.9777  0.1395  0.4500
28998SOL     OW92956  10.570   4.371  11.666  0.4382 -0.6991 -0.1416
28998SOL    HW192957  10.630   4.385  11.739 -3.0417  1.7581  2.6012
28998SOL    HW292958  10.605   4.425  11.595  1.4201  0.7398  1.3816
28999SOL     OW92959  11.982   6.967   6.788 -0.1833  0.0336 -0.1115
28999SOL    HW192960  12.014   7.015   6.864  1.9087 -1.3368 -0.0303
28999SOL    HW292961  11.948   7.034   6.730  3.4512  1.8726 -0.4132
29000SOL     OW92962   8.744   5.486   5.861 -0.2667  0.3521 -0.1033
29000SOL    HW192963   8.716   5.569   5.900  0.6860  1.8960 -2.4467
29000SOL    HW292964   8.676   5.467   5.796 -0.0034 -0.2269 -0.2131
29001SOL     OW92965   9.963   6.689   3.611  0.1162  0.4380  0.2578
29001SOL    HW192966  10.051   6.703   3.645 -0.1334 -0.0819  1.1603
29001SOL    HW292967   9.969   6.610   3.559  0.7614  1.8699 -1.9695
29002SOL     OW92968   4.527   4.332   2.719 -0.1785 -0.1889  0.4429
29002SOL    HW192969   4.567   4.354   2.635 -1.5487  2.1858  0.3243
29002SOL    HW292970   4.580   4.260   2.753  0.5239 -1.1133 -2.3429
29003SOL     OW92971   3.593   2.356  10.420 -0.8719 -0.0925 -0.0114
29003SOL    HW192972   3.671   2.324  10.373 -0.7370 -0.3116  0.3554
29003SOL    HW292973   3.609   2.332  10.511 -1.0544  0.4858  0.1741
29004SOL     OW92974  10.596  10.382   6.061  0.3491  0.6839  0.0806
29004SOL    HW192975  10.550  10.457   6.100  0.8238  1.3121 -0.5369
29004SOL    HW292976  10.546  10.362   5.983 -0.5691 -0.5393  0.9495
29005SOL     OW92977   2.428   6.648   0.884  0.3112  0.4683 -0.4909
29005SOL    HW192978   2.421   6.598   0.803 -0.0696 -0.5925  0.1708
29005SOL    HW292979   2.359   6.612   0.940  1.4010  0.2753  0.7633
29006SOL     OW92980   3.559  11.239   4.500 -0.2083 -0.1257 -0.1763
29006SOL    HW192981   3.585  11.147   4.504 -1.1332 -0.3727  2.8315
29006SOL    HW292982   3.625  11.285   4.552 -0.5722  0.6893 -0.4148
29007SOL     OW92983   8.729   7.516   5.931  0.3549 -0.3106  0.0036
29007SOL    HW192984   8.754   7.582   5.995  0.3434 -1.1459  0.8905
29007SOL    HW292985   8.634   7.507   5.941  0.4947 -1.2096  0.6471
29008SOL     OW92986   4.087  10.813   5.111 -0.2621  0.8402 -1.0541
29008SOL    HW192987   4.013  10.844   5.059  0.1637  0.6021 -1.8185
29008SOL    HW292988   4.163  10.829   5.055  0.1582  0.1376 -0.6943
29009SOL     OW92989  11.085   6.514  11.422 -0.6958 -0.2058 -0.3658
29009SOL    HW192990  11.178   6.533  11.435 -1.0388  0.7803  0.9565
29009SOL    HW292991  11.080   6.420  11.410  0.5505 -0.1622 -1.3732
29010SOL     OW92992   1.086   2.858   3.727 -0.6568  0.3354 -0.1376
29010SOL    HW192993   1.073   2.763   3.727  1.5273 -0.1665  3.5388
29010SOL    HW292994   0.998   2.895   3.734 -1.4930 -1.4118 -0.8887
29011SOL     OW92995   8.096  10.676   0.966  0.2727 -0.6055  0.4625
29011SOL    HW192996   8.161  10.628   1.018  0.8911  1.7273  2.0150
29011SOL    HW292997   8.013  10.636   0.989  0.9464 -2.4330 -0.1237
29012SOL     OW92998  10.175   7.064  10.028  0.8614 -0.4788 -0.2587
29012SOL    HW192999  10.101   7.048   9.969  0.0648  0.0977  0.5684
29012SOL    HW293000  10.211   7.148   9.998  0.5226 -0.2385 -0.0035
29013SOL     OW93001   8.259   5.302   9.962 -0.3848 -0.4010 -0.1493
29013SOL    HW193002   8.307   5.270   9.886  0.5686 -1.1622  0.7277
29013SOL    HW293003   8.327   5.340  10.018 -1.2825  1.6718 -0.4046
29014SOL     OW93004  11.414   1.971   0.872 -0.0765 -0.7421 -0.5464
29014SOL    HW193005  11.423   1.931   0.959  0.5889  2.5050  1.0160
29014SOL    HW293006  11.501   1.964   0.834  0.2883 -0.0570  0.1150
29015SOL     OW93007  11.999   0.842  10.027  0.4853 -0.1045  0.5167
29015SOL    HW193008  11.928   0.792  10.068  0.0787 -0.8447 -1.0072
29015SOL    HW293009  11.989   0.826   9.933  1.9479  0.7557  0.1730
29016SOL     OW93010   7.824   3.118   1.377 -0.2494  0.0702 -0.1800
29016SOL    HW193011   7.911   3.080   1.390 -0.4091 -0.1636  0.2287
29016SOL    HW293012   7.840   3.212   1.369 -0.0789  0.1623  1.1164
29017SOL     OW93013   8.764   8.218   9.880 -0.3622 -0.1099  0.1489
29017SOL    HW193014   8.769   8.204   9.786 -0.1108 -0.3035  0.1918
29017SOL    HW293015   8.708   8.295   9.890  1.0546  1.0002 -0.2429
29018SOL     OW93016  11.051  10.096   1.444  0.0436  0.6682 -0.0741
29018SOL    HW193017  11.079  10.110   1.354  0.4821  1.1013  0.1249
29018SOL    HW293018  10.967  10.141   1.451  0.6746  1.8489  0.1135
29019SOL     OW93019   4.308   8.364   3.721 -0.6236  0.0480  0.1054
29019SOL    HW193020   4.228   8.417   3.718  0.0386  1.0258 -0.9353
29019SOL    HW293021   4.336   8.367   3.812 -1.0615  0.7899  0.2238
29020SOL     OW93022   1.167   6.319   7.208 -0.1498 -0.4122 -0.1481
29020SOL    HW193023   1.204   6.407   7.209 -0.7590 -0.1457 -0.6200
29020SOL    HW293024   1.113   6.315   7.287 -0.8294 -0.0483 -0.5873
29021SOL     OW93025   7.801   4.086   8.862  0.0807 -0.1398 -0.5791
29021SOL    HW193026   7.839   4.082   8.774 -2.2851 -1.1616 -1.6442
29021SOL    HW293027   7.735   4.155   8.857 -0.9483 -1.0490 -0.0149
29022SOL     OW93028   9.606  11.704   8.761  0.0563  0.4719  0.6162
29022SOL    HW193029   9.660  11.779   8.735 -0.4528 -0.0690 -2.3172
29022SOL    HW293030   9.669  11.631   8.767  0.0918  0.4783  0.3157
29023SOL     OW93031   6.002   5.224   2.292  0.0238 -0.3705 -0.2709
29023SOL    HW193032   6.042   5.308   2.317 -1.8432 -0.1808  2.6120
29023SOL    HW293033   6.018   5.167   2.367 -0.0053 -2.1773 -1.5712
29024SOL     OW93034   3.786  11.228   0.310 -0.2065  0.6332  0.1817
29024SOL    HW193035   3.717  11.292   0.327 -0.2169  0.4158  1.0049
29024SOL    HW293036   3.792  11.177   0.390 -0.3881 -0.5912 -0.5565
29025SOL     OW93037   2.258   2.826   0.417  0.4215 -0.2196 -0.1894
29025SOL    HW193038   2.312   2.875   0.479  1.4114  0.0764 -1.2468
29025SOL    HW293039   2.234   2.890   0.351  0.0307 -0.7087 -0.5301
29026SOL     OW93040   5.353   9.123   0.126 -1.0153  0.1692  0.5893
29026SOL    HW193041   5.380   9.060   0.059  0.0401  0.8238  0.3797
29026SOL    HW293042   5.269   9.089   0.158 -0.5124 -1.2915  0.4324
29027SOL     OW93043   1.155   6.949   9.491  0.5395  0.2400  0.1521
29027SOL    HW193044   1.160   6.871   9.435  0.8650  0.4745 -0.1462
29027SOL    HW293045   1.152   7.023   9.430 -1.3844  0.4085  0.3850
29028SOL     OW93046   0.670  11.280   4.967  0.0311  0.4947  0.0056
29028SOL    HW193047   0.627  11.195   4.976  1.7081 -0.5006 -0.9020
29028SOL    HW293048   0.627  11.336   5.032 -1.1916 -0.9973  0.5324
29029SOL     OW93049   6.030   7.762  11.162 -0.4400  0.1211  0.0357
29029SOL    HW193050   5.986   7.688  11.120  0.7831 -1.0354  0.7346
29029SOL    HW293051   6.025   7.833  11.097 -1.6858 -0.5341 -0.6155
29030SOL     OW93052   2.281  10.516  10.460 -0.4598 -0.1584 -0.2076
29030SOL    HW193053   2.361  10.560  10.430  0.5560 -1.8849 -0.1352
29030SOL    HW293054   2.240  10.579  10.519  0.4659  1.0406 -0.8013
29031SOL     OW93055   3.095   6.099   5.868  0.2520  0.0536  0.3453
29031SOL    HW193056   3.124   6.183   5.832  0.0655  0.8157  1.8650
29031SOL    HW293057   3.174   6.046   5.872  0.2100 -0.2098 -1.4916
29032SOL     OW93058   4.875   6.980   4.601 -0.1829 -1.2997  0.2202
29032SOL    HW193059   4.953   7.004   4.552 -0.2134 -0.7823  0.4072
29032SOL    HW293060   4.898   6.997   4.693 -0.9751  0.2847  0.1772
29033SOL     OW93061  11.461  12.318   4.657  0.7509  0.0410 -0.4700
29033SOL    HW193062  11.401  12.344   4.727 -0.0890 -0.0879 -1.1353
29033SOL    HW293063  11.529  12.267   4.701  0.4740  0.3385  0.3120
29034SOL     OW93064   2.483   9.197   6.243 -0.0146 -0.0479 -0.6209
29034SOL    HW193065   2.403   9.196   6.191  0.7214 -0.0250 -1.8012
29034SOL    HW293066   2.517   9.286   6.233  1.2818 -0.6617 -1.9570
29035SOL     OW93067  12.050   3.691   9.294 -0.2335  0.2031  0.3965
29035SOL    HW193068  12.120   3.723   9.352 -0.0959  1.5236 -0.4413
29035SOL    HW293069  12.016   3.614   9.338  2.0946 -0.7986  0.5995
29036SOL     OW93070   3.215   4.157   8.867  0.3115 -0.7670 -0.1752
29036SOL    HW193071   3.178   4.125   8.949 -1.5289  3.1126  0.7530
29036SOL    HW293072   3.308   4.171   8.886 -0.3668  1.6355  1.9917
29037SOL     OW93073   3.132   4.886   5.291 -0.4437  0.2249 -0.3131
29037SOL    HW193074   3.038   4.884   5.272 -0.6736  0.5116  0.7233
29037SOL    HW293075   3.156   4.794   5.299 -1.1803  0.1554  1.8132
29038SOL     OW93076   6.930   1.693   2.054 -0.7915  0.0902  0.0983
29038SOL    HW193077   6.999   1.723   2.113 -2.0286  2.0941  0.6342
29038SOL    HW293078   6.906   1.607   2.088  0.4164  0.0132  0.8098
29039SOL     OW93079   7.934   7.738  12.104  0.0193 -0.0014  0.0264
29039SOL    HW193080   7.969   7.693  12.027  0.8649 -0.3268  0.5932
29039SOL    HW293081   7.985   7.704  12.177  0.6285  1.7848  0.4887
29040SOL     OW93082   1.556   2.882   6.086 -0.3698 -0.4320 -0.2009
29040SOL    HW193083   1.510   2.909   6.166 -2.9569 -0.8047 -1.4889
29040SOL    HW293084   1.542   2.788   6.081  1.1023 -0.6646 -0.3407
29041SOL     OW93085   5.220   6.264   1.293  0.3898 -0.4665  0.2519
29041SOL    HW193086   5.241   6.175   1.265  1.2737  0.1659 -1.1613
29041SOL    HW293087   5.297   6.316   1.269 -0.5833  0.8971 -0.0019
29042SOL     OW93088   7.757  12.197  11.981 -0.6820  0.3886 -0.6143
29042SOL    HW193089   7.732  12.250  12.057  2.6479  1.6580 -0.2304
29042SOL    HW293090   7.684  12.137  11.968 -1.2782 -0.1545  3.8132
29043SOL     OW93091   5.231   2.156   0.533 -0.2151  0.1995  0.2187
29043SOL    HW193092   5.141   2.141   0.563 -0.7223  2.0385 -0.2628
29043SOL    HW293093   5.282   2.161   0.614 -1.1852  2.7132  0.7966
29044SOL     OW93094   3.569   6.464   8.071  0.0104  0.6914  0.2639
29044SOL    HW193095   3.621   6.424   8.001 -1.6485 -0.2492 -0.4799
29044SOL    HW293096   3.597   6.418   8.151 -1.1336 -1.3262 -0.4348
29045SOL     OW93097   3.402   2.562  11.576 -0.2781  0.6677 -0.6410
29045SOL    HW193098   3.368   2.480  11.539  0.2596  0.9189 -1.7240
29045SOL    HW293099   3.354   2.573  11.658  0.9204 -1.6826  0.4786
29046SOL     OW93100   9.990   0.432   7.956  0.3937 -0.1100  0.5635
29046SOL    HW193101   9.921   0.385   7.909 -0.8063  1.0692  1.0694
29046SOL    HW293102   9.980   0.405   8.047  1.2479 -0.6668  0.5010
29047SOL     OW93103   6.396   8.876   2.072  0.2478  0.2024  0.3227
29047SOL    HW193104   6.416   8.954   2.020  0.7724  0.1385  0.4286
29047SOL    HW293105   6.479   8.829   2.078  0.7341  1.2382  2.9544
29048SOL     OW93106   3.839   9.445   0.983  0.1785  0.5495  0.0622
29048SOL    HW193107   3.859   9.466   1.075 -3.1235  2.0697  0.5729
29048SOL    HW293108   3.748   9.415   0.985  0.2807 -0.1814 -2.6684
29049SOL     OW93109  11.311   0.702  11.478 -0.4546  0.3810 -0.0908
29049SOL    HW193110  11.345   0.788  11.452  0.2908  0.1634  0.1451
29049SOL    HW293111  11.264   0.671  11.400 -1.9037  1.5812  0.2647
29050SOL     OW93112  12.216   6.805   6.367  0.3954 -0.2233  0.0735
29050SOL    HW193113  12.209   6.727   6.421 -0.2452  1.3364  2.4035
29050SOL    HW293114  12.126   6.828   6.345  0.5617  0.0224 -0.3821
29051SOL     OW93115   5.429   1.618   0.271 -0.4965  0.3558 -0.1595
29051SOL    HW193116   5.512   1.607   0.223 -0.2770 -0.0293  0.2999
29051SOL    HW293117   5.448   1.686   0.336  0.1448 -1.2950  1.4389
29052SOL     OW93118   1.908   5.211   8.208 -0.4467  0.2589 -0.1100
29052SOL    HW193119   1.995   5.223   8.170 -1.0178  0.6385 -1.3419
29052SOL    HW293120   1.923   5.154   8.284  0.8099 -0.0646 -0.5718
29053SOL     OW93121   3.655   0.607   9.305 -0.4434 -0.2329  0.4122
29053SOL    HW193122   3.609   0.680   9.264  0.5220  0.4897  0.5706
29053SOL    HW293123   3.600   0.583   9.380 -0.3769  0.8952  0.8550
29054SOL     OW93124   6.287   5.279   9.762  0.2138 -0.3940 -0.5663
29054SOL    HW193125   6.277   5.312   9.672 -0.2592 -0.9957 -0.7390
29054SOL    HW293126   6.343   5.203   9.754  1.8174  0.6923 -0.0830
29055SOL     OW93127   8.480   3.493  10.137  0.2686  0.0644 -0.0834
29055SOL    HW193128   8.528   3.563  10.182 -0.1725  0.7512 -0.6723
29055SOL    HW293129   8.421   3.538  10.077 -2.2539 -0.6876  1.6597
29056SOL     OW93130   4.378   2.800   9.027  0.5090  0.4621  0.0919
29056SOL    HW193131   4.456   2.855   9.036  2.1911 -1.3572 -2.0466
29056SOL    HW293132   4.343   2.823   8.940 -0.6052  0.3352  0.4907
29057SOL     OW93133   0.616   2.909   4.564 -0.2924  0.5163  0.0207
29057SOL    HW193134   0.583   2.885   4.477  0.7776 -0.1701 -0.2170
29057SOL    HW293135   0.615   3.004   4.564 -0.9929  0.5238 -0.4634
29058SOL     OW93136  11.717   2.459   9.579  0.4320 -0.0616 -0.1635
29058SOL    HW193137  11.691   2.376   9.620 -1.3918  0.6477  0.2115
29058SOL    HW293138  11.809   2.446   9.555  0.3611 -1.9691  0.4240
29059SOL     OW93139   1.418   9.463   8.616 -0.2462  0.7897  0.1793
29059SOL    HW193140   1.386   9.450   8.526 -1.7031  0.1552  0.7679
29059SOL    HW293141   1.433   9.558   8.622  0.3948  0.7808 -0.8846
29060SOL     OW93142  10.241   9.622   7.155  0.2541  0.2288  0.4559
29060SOL    HW193143  10.326   9.594   7.120  0.7440  1.2700  0.7818
29060SOL    HW293144  10.191   9.541   7.165  0.8611 -0.3065 -0.6408
29061SOL     OW93145   3.159   2.839   2.254  0.5048  0.0044 -0.4892
29061SOL    HW193146   3.104   2.776   2.301 -0.8642  0.1051 -1.8543
29061SOL    HW293147   3.248   2.805   2.264 -0.0541 -1.4157 -0.0683
29062SOL     OW93148   8.506  12.099   1.502  0.0513 -0.1586 -0.3075
29062SOL    HW193149   8.480  12.007   1.492 -0.1126 -0.0393 -1.1141
29062SOL    HW293150   8.424  12.146   1.516 -0.1630  0.1326 -2.1841
29063SOL     OW93151   5.782   5.253   6.577  0.2271  0.4157  0.4601
29063SOL    HW193152   5.802   5.240   6.670 -0.4255  0.0106  0.5585
29063SOL    HW293153   5.796   5.167   6.538 -0.4532  0.3354  0.3789
29064SOL     OW93154   7.049   5.915   2.653  0.2199  0.8139 -0.0639
29064SOL    HW193155   7.066   6.003   2.621  2.7820  0.7687  0.8884
29064SOL    HW293156   7.054   5.923   2.748  0.9577 -0.4052  0.0248
29065SOL     OW93157   8.852   1.670  10.002 -0.0463 -0.0687  0.1662
29065SOL    HW193158   8.824   1.623   9.924 -1.2053 -0.0772  0.5570
29065SOL    HW293159   8.793   1.746  10.006  1.2671  1.0137 -0.0188
29066SOL     OW93160   9.867   9.440   8.434 -0.4526 -0.3200  0.1851
29066SOL    HW193161   9.888   9.532   8.453 -0.4249  0.1032 -1.6913
29066SOL    HW293162   9.816   9.444   8.353 -1.2439 -1.9166  0.5726
29067SOL     OW93163   1.298   7.678   7.479  0.1972 -0.2207  0.0474
29067SOL    HW193164   1.259   7.766   7.480  0.2029 -0.2106 -0.2775
29067SOL    HW293165   1.255   7.634   7.405 -0.4663 -0.7945  0.7578
29068SOL     OW93166   3.083  10.654   9.358  0.3417  0.0293 -0.0038
29068SOL    HW193167   3.087  10.684   9.267 -0.2677  0.4650  0.1105
29068SOL    HW293168   3.055  10.562   9.351  1.6643 -0.3653 -0.3213
29069SOL     OW93169   0.312   8.857   2.043  0.0593 -0.2058  0.0661
29069SOL    HW193170   0.288   8.948   2.061 -2.2247 -0.7009 -0.1456
29069SOL    HW293171   0.357   8.860   1.959 -0.2090  0.6984 -0.0531
29070SOL     OW93172   7.341   5.970   3.969 -0.4221  0.1523  0.1314
29070SOL    HW193173   7.275   5.907   3.997 -0.3143  0.2088  0.5183
29070SOL    HW293174   7.392   5.989   4.048  0.2453 -0.1165 -0.2188
29071SOL     OW93175   2.765   2.861  11.306 -0.3321 -0.0119 -0.6016
29071SOL    HW193176   2.795   2.951  11.292  3.0113 -1.0676 -1.1130
29071SOL    HW293177   2.790   2.814  11.227  0.8275 -2.0064  0.8561
29072SOL     OW93178   9.424   1.729   6.278 -0.0151 -0.2507 -0.0330
29072SOL    HW193179   9.457   1.728   6.368  0.0097 -0.1172 -0.0405
29072SOL    HW293180   9.334   1.760   6.285 -0.3141 -1.1058  0.0444
29073SOL     OW93181  10.124  12.324   4.683  0.2712  0.0321  0.0565
29073SOL    HW193182  10.147  12.276   4.604  0.7768  1.2148 -0.5411
29073SOL    HW293183  10.056  12.385   4.655  0.3868  0.3918  0.5505
29074SOL     OW93184  10.060   1.565   8.379 -0.2670  0.4759  0.1012
29074SOL    HW193185  10.046   1.639   8.438 -1.4838  2.3178 -2.3254
29074SOL    HW293186  10.124   1.596   8.315  0.9795 -1.4425  0.3119
29075SOL     OW93187   1.984   7.472   5.808  0.3713  0.0590 -0.2216
29075SOL    HW193188   2.030   7.545   5.766 -1.6144  1.9130  0.5775
29075SOL    HW293189   1.986   7.493   5.902 -0.7786 -0.5720 -0.0383
29076SOL     OW93190   6.051   1.394   6.243 -0.4068  0.1752  0.4068
29076SOL    HW193191   5.977   1.340   6.215  0.2535 -0.9431  0.7504
29076SOL    HW293192   6.011   1.476   6.272 -1.5099 -0.3806  0.5284
29077SOL     OW93193   1.278   0.450  10.681 -0.2956  0.1818  0.3167
29077SOL    HW193194   1.289   0.540  10.649  1.5653 -0.8358 -2.2193
29077SOL    HW293195   1.366   0.413  10.678 -1.4393 -2.7254 -2.0001
29078SOL     OW93196   8.180   6.506   8.351  0.4024 -0.2870 -0.4323
29078SOL    HW193197   8.257   6.544   8.395 -0.0785  0.9399 -0.6180
29078SOL    HW293198   8.145   6.578   8.298 -0.0642 -1.2351 -1.4516
29079SOL     OW93199   6.947   3.415  10.169  0.2446 -0.8775 -0.6482
29079SOL    HW193200   6.911   3.346  10.225  1.0932 -0.7331  0.1003
29079SOL    HW293201   6.913   3.496  10.207  2.0596 -0.6723  0.6540
29080SOL     OW93202   1.599  12.178   6.029  0.5401  0.4344 -0.1600
29080SOL    HW193203   1.687  12.147   6.009  0.6395  0.3027  0.4477
29080SOL    HW293204   1.603  12.202   6.122 -1.2036 -3.6333  1.1779
29081SOL     OW93205   1.223   0.796   1.389 -0.5697 -0.5708  0.1355
29081SOL    HW193206   1.268   0.820   1.471  0.1422  0.4988 -0.5385
29081SOL    HW293207   1.280   0.730   1.349 -0.9718 -1.1724  0.5385
29082SOL     OW93208  10.908   7.392   3.750 -0.1132 -0.2288  0.4281
29082SOL    HW193209  10.860   7.436   3.680 -0.8949  0.2075  1.2213
29082SOL    HW293210  10.952   7.462   3.798 -1.3476 -0.2638  1.6884
29083SOL     OW93211   5.556   6.907   0.224  0.5413 -0.1582  0.0260
29083SOL    HW193212   5.650   6.886   0.226  0.8252  1.0610  0.1236
29083SOL    HW293213   5.530   6.908   0.316  0.8866  1.3674  0.1316
29084SOL     OW93214   2.830   1.538   0.711 -0.2638  0.0162 -0.2485
29084SOL    HW193215   2.926   1.543   0.713 -0.1785 -0.1424 -2.4653
29084SOL    HW293216   2.802   1.599   0.779  1.4011 -0.1857  0.6772
29085SOL     OW93217  11.983   2.885  10.654 -0.8632 -0.0706 -0.1759
29085SOL    HW193218  11.995   2.831  10.576 -1.6946  0.0632 -0.4050
29085SOL    HW293219  11.977   2.823  10.726 -0.3783 -0.2097 -0.2539
29086SOL     OW93220  10.604   7.338   5.975 -0.4303 -0.5801  0.3692
29086SOL    HW193221  10.616   7.369   5.885 -1.3947  1.9261  1.0144
29086SOL    HW293222  10.691   7.341   6.013  0.0084 -1.7821 -0.4667
29087SOL     OW93223   7.207   1.231   8.419 -0.6206 -0.4333 -0.3491
29087SOL    HW193224   7.187   1.278   8.500 -1.5357  1.4761 -1.6028
29087SOL    HW293225   7.222   1.140   8.446 -2.5230 -0.1913  1.7397
29088SOL     OW93226   1.081   7.933   1.255 -0.2287 -0.2030 -0.0372
29088SOL    HW193227   0.991   7.909   1.278 -1.2094  3.0794  0.0877
29088SOL    HW293228   1.105   7.873   1.184 -2.6825 -0.8768 -0.3855
29089SOL     OW93229   4.720   1.876  12.351 -0.0312 -0.1953  0.6239
29089SOL    HW193230   4.629   1.879  12.381  0.3394 -1.0021  1.8789
29089SOL    HW293231   4.761   1.953  12.392 -0.0681 -0.0081  0.3125
29090SOL     OW93232   0.158  11.351   6.837  0.0936 -0.1384  0.0869
29090SOL    HW193233   0.107  11.292   6.782 -0.6327 -0.6044  1.2016
29090SOL    HW293234   0.092  11.411   6.873  0.5106  0.0181  0.6011
29091SOL     OW93235   3.072   2.651   1.069  0.0722  0.2258 -0.0908
29091SOL    HW193236   3.065   2.590   1.142  0.9196 -1.7321 -1.5703
29091SOL    HW293237   2.982   2.682   1.056 -0.1322  0.4594  1.5907
29092SOL     OW93238  11.755   5.228   9.854 -0.1357 -0.2990 -0.4977
29092SOL    HW193239  11.667   5.225   9.817 -0.6017  0.0809  0.5440
29092SOL    HW293240  11.762   5.148   9.906  0.9189 -1.3941 -2.2263
29093SOL     OW93241   7.257   1.914   8.600 -0.3634  0.2844 -0.2405
29093SOL    HW193242   7.206   1.836   8.582 -0.5319  0.0547  1.1053
29093SOL    HW293243   7.332   1.908   8.541 -1.3558  0.1218 -1.5240
29094SOL     OW93244   0.090   6.518   7.045 -0.2917  0.2943 -0.7492
29094SOL    HW193245   0.104   6.439   7.097  0.6134  1.8934  1.5946
29094SOL    HW293246   0.144   6.505   6.967  1.8226 -0.4078  0.7287
29095SOL     OW93247   6.155  12.201   9.733  0.3205 -0.1430  0.1816
29095SOL    HW193248   6.115  12.150   9.803 -0.9748  0.5270 -0.0372
29095SOL    HW293249   6.150  12.292   9.763 -0.2514  0.1554 -0.7577
29096SOL     OW93250   9.702   1.299   4.201  0.2370  0.1577 -0.4890
29096SOL    HW193251   9.685   1.254   4.118  1.1643  2.5884 -2.0996
29096SOL    HW293252   9.772   1.248   4.242 -0.4189 -1.2338 -1.0353
29097SOL     OW93253   3.950   7.379   6.840 -0.6545 -0.5074  0.5605
29097SOL    HW193254   3.870   7.431   6.846 -0.6915 -0.6400  1.3142
29097SOL    HW293255   3.919   7.289   6.825 -0.5694 -0.2148 -1.6698
29098SOL     OW93256   7.813   1.053   2.877 -0.6385 -0.1999  0.2780
29098SOL    HW193257   7.769   1.075   2.958  0.2638 -0.1992  0.7773
29098SOL    HW293258   7.893   1.106   2.877 -0.4610 -0.4466 -0.4441
29099SOL     OW93259   6.374   9.266  10.571  0.3395  0.5074 -0.4941
29099SOL    HW193260   6.387   9.271  10.665 -1.1278  0.9858 -0.2991
29099SOL    HW293261   6.422   9.341  10.536  0.5958  0.5263 -0.0991
29100SOL     OW93262   5.018   1.827   6.282  0.1708  0.3721 -0.0630
29100SOL    HW193263   4.956   1.755   6.296  1.3528 -0.2995  2.1238
29100SOL    HW293264   5.094   1.786   6.243  0.1959  0.7576 -0.4256
29101SOL     OW93265   2.710   6.492   2.094 -0.1478  0.0946  0.1777
29101SOL    HW193266   2.676   6.403   2.103 -0.0067 -0.1920 -1.7539
29101SOL    HW293267   2.786   6.494   2.152  0.2908 -1.2805 -0.3099
29102SOL     OW93268  10.489  10.293  11.276 -0.2775  0.4127 -0.2359
29102SOL    HW193269  10.428  10.238  11.226  0.0367 -0.8820  0.7578
29102SOL    HW293270  10.548  10.231  11.319  0.2286  1.5400  0.7613
29103SOL     OW93271   2.783   2.990   6.783 -0.3931 -0.0297  0.1992
29103SOL    HW193272   2.774   3.049   6.858  0.4182 -0.6100  0.7771
29103SOL    HW293273   2.833   3.040   6.719  0.0873 -0.0037  0.5908
29104SOL     OW93274   1.827   5.111  12.190 -0.0353  0.0050  0.0598
29104SOL    HW193275   1.748   5.120  12.137 -1.6996 -1.9539  1.9884
29104SOL    HW293276   1.807   5.157  12.271  0.7003 -0.7167  0.6687
29105SOL     OW93277   6.387   0.653   0.745  0.2744  0.1905  0.1051
29105SOL    HW193278   6.364   0.570   0.703 -1.0227  1.8678 -2.8039
29105SOL    HW293279   6.483   0.656   0.742  0.3692 -1.4334  0.8392
29106SOL     OW93280   1.543   4.239   9.529 -0.3216 -0.2343  0.2070
29106SOL    HW193281   1.509   4.328   9.530  0.9192  0.2970  2.5183
29106SOL    HW293282   1.617   4.241   9.590  1.1005 -2.3562 -1.3159
29107SOL     OW93283   9.602   9.066  10.060  0.1570 -0.1950  0.1089
29107SOL    HW193284   9.565   9.138  10.112  0.3265 -0.4051  0.5219
29107SOL    HW293285   9.640   9.110   9.983  0.3036  0.1665  0.3830
29108SOL     OW93286   5.252   4.392   9.248  0.2407  0.3989 -0.0376
29108SOL    HW193287   5.333   4.342   9.244  0.6069  0.9519  0.1979
29108SOL    HW293288   5.226   4.390   9.340 -0.9626 -1.2157 -0.3682
29109SOL     OW93289   8.678   8.939   7.515  0.1459 -0.9245 -0.4713
29109SOL    HW193290   8.739   8.965   7.584  1.1588 -0.8785 -1.3393
29109SOL    HW293291   8.596   8.983   7.536  0.5531 -0.5989  0.4752
29110SOL     OW93292   5.230  12.418  11.252  0.2003 -0.4696  0.6133
29110SOL    HW193293   5.197  12.451  11.168 -0.4085 -1.9892  0.2354
29110SOL    HW293294   5.314  12.463  11.263 -0.8733  1.7338  0.4814
29111SOL     OW93295   6.487  10.266   2.508  0.3440 -0.4901  0.2167
29111SOL    HW193296   6.401  10.254   2.549 -0.0755  1.6496  0.0560
29111SOL    HW293297   6.537  10.317   2.572  0.7002  0.2702 -0.6478
29112SOL     OW93298   6.139  10.480   9.280  0.5748  0.4279  0.1008
29112SOL    HW193299   6.186  10.423   9.341  0.1906  0.8238  0.7756
29112SOL    HW293300   6.204  10.545   9.253  0.2202  1.5130  1.7222
29113SOL     OW93301   2.586   4.030  11.238 -0.4107 -0.1895  0.4270
29113SOL    HW193302   2.497   4.066  11.244 -0.0018  1.0215 -0.4025
29113SOL    HW293303   2.633   4.091  11.182  0.8342 -1.0694  0.4646
29114SOL     OW93304  11.288   3.697  10.936 -0.0862 -0.4112 -0.4376
29114SOL    HW193305  11.276   3.602  10.932  0.0720 -0.4556  0.0794
29114SOL    HW293306  11.199   3.732  10.947 -0.0540 -0.5697  0.4511
29115SOL     OW93307   3.454   1.175   6.070 -0.0093  0.4552  0.0405
29115SOL    HW193308   3.449   1.079   6.067  0.6541  0.4321 -0.8392
29115SOL    HW293309   3.541   1.193   6.104  0.3611  0.7289 -1.0123
29116SOL     OW93310   3.243   9.083   0.722  1.3348  0.3915 -0.2733
29116SOL    HW193311   3.328   9.127   0.726  2.0895 -1.0213 -0.2187
29116SOL    HW293312   3.235   9.038   0.806  2.1316 -2.2465 -1.4813
29117SOL     OW93313  12.215   1.862   3.635 -0.0963  0.3171  0.0090
29117SOL    HW193314  12.205   1.922   3.708 -0.0959 -2.5990  2.6308
29117SOL    HW293315  12.140   1.802   3.642  0.0626 -0.2579 -2.2516
29118SOL     OW93316   4.058   7.555   1.320  0.2580 -0.8543  0.5615
29118SOL    HW193317   4.100   7.641   1.328  1.0966 -1.1902 -0.0774
29118SOL    HW293318   4.121   7.494   1.358  0.9905 -1.5214 -1.5491
29119SOL     OW93319   4.661   2.957   4.205  0.1225  0.1933 -0.5481
29119SOL    HW193320   4.717   2.890   4.165  0.7940  0.2195  0.3144
29119SOL    HW293321   4.572   2.921   4.199  0.5078 -0.9080  0.1365
29120SOL     OW93322   4.394   6.622  11.828 -0.1749  0.3864 -0.4899
29120SOL    HW193323   4.467   6.637  11.767  0.1078  0.4099 -0.1500
29120SOL    HW293324   4.332   6.692  11.808  0.0381  0.5548 -0.5752
29121SOL     OW93325   6.701   2.239   0.473 -0.2050  0.0363  0.5687
29121SOL    HW193326   6.606   2.243   0.464 -0.1843  1.1216  0.7112
29121SOL    HW293327   6.735   2.262   0.387 -0.0703 -0.5286  0.4692
29122SOL     OW93328   3.197   4.259   1.790 -0.0057 -0.1041 -0.0776
29122SOL    HW193329   3.263   4.287   1.853  0.0112 -1.5862  0.6069
29122SOL    HW293330   3.223   4.170   1.766 -1.5087 -0.5644 -0.1028
29123SOL     OW93331   2.632   4.128   9.220  0.3838  0.0333 -0.0163
29123SOL    HW193332   2.630   4.100   9.312 -1.7591 -2.1564 -0.6237
29123SOL    HW293333   2.651   4.049   9.171 -2.9445  0.0575 -1.6665
29124SOL     OW93334   6.184  10.382   6.449  0.0230 -0.7237 -0.7165
29124SOL    HW193335   6.117  10.319   6.476  0.3974 -1.1602 -0.7975
29124SOL    HW293336   6.231  10.404   6.529 -2.0871  1.8705 -0.0690
29125SOL     OW93337   3.073   8.954   5.194  0.8466  0.2937 -0.0911
29125SOL    HW193338   3.085   8.907   5.277 -2.8236  2.1253  1.7514
29125SOL    HW293339   3.142   9.019   5.193  1.1628  0.0229  1.4025
29126SOL     OW93340   4.304   2.208   3.436 -0.0015  0.3574 -1.3544
29126SOL    HW193341   4.336   2.292   3.469 -0.3441  0.0216 -0.1135
29126SOL    HW293342   4.263   2.166   3.512  0.4280 -1.0675 -1.8718
29127SOL     OW93343   6.377  10.826   3.708 -0.2422 -0.0074  0.4272
29127SOL    HW193344   6.363  10.762   3.778 -1.2465  1.2056  1.3820
29127SOL    HW293345   6.463  10.803   3.672  0.0817 -0.9710  1.7252
29128SOL     OW93346   9.784   8.207   3.317 -0.2617  0.2868 -0.2515
29128SOL    HW193347   9.850   8.141   3.340 -0.1985  0.8747  1.3575
29128SOL    HW293348   9.833   8.273   3.269 -0.0124 -0.0831 -0.5119
29129SOL     OW93349   6.607   9.372   1.137  0.3712  0.2309  0.1670
29129SOL    HW193350   6.520   9.405   1.160 -0.0615 -0.5467 -0.3092
29129SOL    HW293351   6.597   9.343   1.046  1.8222  2.5243 -0.8203
29130SOL     OW93352   9.174   4.267   5.729  0.2130 -0.2884  0.1728
29130SOL    HW193353   9.202   4.358   5.720  2.1044 -0.7811  0.5929
29130SOL    HW293354   9.144   4.260   5.820  0.8827 -0.2720  0.4018
29131SOL     OW93355   6.799   2.576   1.204 -0.0779 -0.1024 -0.3153
29131SOL    HW193356   6.810   2.670   1.191  4.0953 -0.6008 -2.0581
29131SOL    HW293357   6.716   2.555   1.161 -0.9795  2.7141 -0.0890
29132SOL     OW93358   5.168   4.303   0.840  0.0203  0.0417 -0.1180
29132SOL    HW193359   5.143   4.286   0.749 -0.2787 -1.7762  0.2582
29132SOL    HW293360   5.087   4.329   0.883  0.2570  1.4150 -0.4461
29133SOL     OW93361   0.083   8.295   8.824 -0.5068  0.0965 -0.0754
29133SOL    HW193362   0.107   8.202   8.827 -1.9634 -0.2959  0.3595
29133SOL    HW293363   0.083   8.323   8.915  2.4129  1.2628 -0.3330
29134SOL     OW93364   1.558   0.545  12.037 -0.1186 -0.0817 -0.4360
29134SOL    HW193365   1.500   0.600  11.983  0.8886  0.7493 -0.7065
29134SOL    HW293366   1.645   0.582  12.024 -0.0377  1.6513  3.4892
29135SOL     OW93367   2.212   6.766   3.853  0.3713  0.3405  0.3174
29135SOL    HW193368   2.304   6.741   3.844  0.6835  0.3975  2.5691
29135SOL    HW293369   2.210   6.820   3.932 -1.2296  2.5019 -1.0752
29136SOL     OW93370   9.117   8.795  10.416 -0.0068 -0.0007 -0.3756
29136SOL    HW193371   9.173   8.872  10.431 -1.1179  0.4127  2.1619
29136SOL    HW293372   9.070   8.816  10.335  0.2262  1.6885 -0.1158
29137SOL     OW93373   6.563   6.717   3.744  0.0163 -0.0941  0.0343
29137SOL    HW193374   6.499   6.762   3.688  0.2225  0.1464 -0.0080
29137SOL    HW293375   6.561   6.766   3.826  0.5953  0.2959 -0.1775
29138SOL     OW93376   3.218   2.028   8.220  0.3712  0.1688 -0.1651
29138SOL    HW193377   3.259   1.944   8.242 -1.4429 -0.6625  0.2103
29138SOL    HW293378   3.239   2.041   8.128 -0.2314 -1.2599 -0.5302
29139SOL     OW93379   1.229   0.624   6.683  0.1457  0.0231  0.0371
29139SOL    HW193380   1.289   0.637   6.756 -0.3435  1.1301  0.2480
29139SOL    HW293381   1.244   0.699   6.626  0.0441 -0.4885 -0.6719
29140SOL     OW93382   9.336   3.939   5.147 -0.5536  0.0188  0.2547
29140SOL    HW193383   9.352   3.850   5.115  0.6730  0.2351  0.2030
29140SOL    HW293384   9.393   3.946   5.224 -0.2472  0.9250 -0.0470
29141SOL     OW93385   1.423   9.401  10.524 -0.1304 -0.3591 -0.4572
29141SOL    HW193386   1.347   9.457  10.508  0.0287  0.6560  1.9015
29141SOL    HW293387   1.486   9.459  10.567  1.4038 -1.5494 -1.0085
29142SOL     OW93388   1.528   0.848   8.804 -0.7034 -0.1057  0.5057
29142SOL    HW193389   1.570   0.925   8.840 -0.9352  0.1012  0.3407
29142SOL    HW293390   1.513   0.870   8.711 -0.2607 -0.5649  0.3245
29143SOL     OW93391   9.330   8.176   8.023 -0.1942  0.1804 -0.2695
29143SOL    HW193392   9.301   8.097   7.977  2.2631 -0.5304 -0.6925
29143SOL    HW293393   9.327   8.245   7.956 -0.7808  0.1053 -0.3281
29144SOL     OW93394   7.774   1.594   9.079 -0.2907 -0.2520  0.2546
29144SOL    HW193395   7.684   1.562   9.090  0.0209 -0.3147  3.5753
29144SOL    HW293396   7.821   1.518   9.044 -0.8234 -1.5236  2.1238
29145SOL     OW93397   6.863   0.880   5.573  0.0051 -0.7631  0.0240
29145SOL    HW193398   6.890   0.911   5.487 -2.2048  0.3547 -0.3452
29145SOL    HW293399   6.940   0.835   5.608  1.8782  1.1835 -1.3526
29146SOL     OW93400   0.634   1.104   7.800 -0.4994 -0.6161 -0.1907
29146SOL    HW193401   0.706   1.139   7.852 -0.3371 -0.5120 -0.4788
29146SOL    HW293402   0.674   1.082   7.716 -0.8935 -0.0989 -0.5230
29147SOL     OW93403   8.745  10.940   9.012  0.3628  0.1378  0.2012
29147SOL    HW193404   8.737  10.913   8.921  0.4103  1.5758 -0.2653
29147SOL    HW293405   8.655  10.954   9.041  0.3568 -0.1201  0.3030
29148SOL     OW93406   6.398   0.604   4.395  0.2539  0.1409 -0.1032
29148SOL    HW193407   6.479   0.555   4.407  0.4536  0.7580  1.2420
29148SOL    HW293408   6.329   0.542   4.420  0.3066 -0.2907 -0.9759
29149SOL     OW93409   3.826   9.306   4.625 -0.4142  0.3769  0.4205
29149SOL    HW193410   3.906   9.301   4.678  0.4927 -0.8386 -0.9951
29149SOL    HW293411   3.759   9.268   4.681  0.2160  0.4816  1.2720
29150SOL     OW93412   5.560  12.363   7.863 -0.2371 -0.0497  0.3614
29150SOL    HW193413   5.511  12.444   7.851 -1.8626 -1.1867 -1.1415
29150SOL    HW293414   5.603  12.349   7.779 -0.5392 -1.0974  0.3707
29151SOL     OW93415   8.533   9.833   2.241 -0.5078  0.1812  0.0792
29151SOL    HW193416   8.619   9.856   2.277 -0.8718 -0.2604  1.2978
29151SOL    HW293417   8.525   9.886   2.162 -0.7156  3.2324  1.9949
29152SOL     OW93418   4.657   4.066   7.209 -0.0191  0.1925  0.1374
29152SOL    HW193419   4.661   4.010   7.131  0.0729 -0.3156  0.4982
29152SOL    HW293420   4.566   4.063   7.237  0.3243 -1.3443  1.2540
29153SOL     OW93421   2.104   5.226   6.802  0.7135 -0.0380  0.1079
29153SOL    HW193422   2.073   5.314   6.783 -2.7539 -0.8305  1.4225
29153SOL    HW293423   2.075   5.173   6.727 -1.4868 -0.8310  1.4374
29154SOL     OW93424   1.366   5.091  11.741  0.4025 -0.1496 -0.2968
29154SOL    HW193425   1.444   5.035  11.740  0.0605 -0.6384  0.2564
29154SOL    HW293426   1.294   5.031  11.722  0.3193  0.5859 -2.7387
29155SOL     OW93427   4.529   1.536   0.375 -0.3021  0.8113  0.3570
29155SOL    HW193428   4.609   1.531   0.428 -0.1364 -2.2041  0.0088
29155SOL    HW293429   4.559   1.573   0.292  1.1229 -1.4543 -0.2398
29156SOL     OW93430   0.734   8.033   7.779 -0.0329  0.0378 -0.0085
29156SOL    HW193431   0.801   8.097   7.804  0.8912 -0.7727 -0.3790
29156SOL    HW293432   0.782   7.963   7.735 -1.0654 -0.7989  0.1542
29157SOL     OW93433   0.463   8.662   1.527  0.2246  0.1619  0.3795
29157SOL    HW193434   0.416   8.616   1.596  1.7192 -2.6218 -0.2961
29157SOL    HW293435   0.433   8.620   1.446  2.2530 -0.2473 -0.2135
29158SOL     OW93436   5.939   6.793   0.458  0.1467  0.0611 -0.1191
29158SOL    HW193437   5.918   6.742   0.380  0.3956 -0.3022  0.0472
29158SOL    HW293438   5.963   6.879   0.424  0.2120 -0.0804 -0.4411
29159SOL     OW93439  11.300   9.379   8.949 -0.3832 -0.4150  0.3298
29159SOL    HW193440  11.307   9.401   9.042  0.7574  0.9597 -0.0611
29159SOL    HW293441  11.251   9.451   8.910  0.6219 -0.1182 -0.4205
29160SOL     OW93442   3.591   2.239   3.223 -0.7016 -0.1347  0.0024
29160SOL    HW193443   3.678   2.215   3.253 -0.3835 -0.4119 -1.0783
29160SOL    HW293444   3.534   2.227   3.299  0.5079  2.1765  1.3837
29161SOL     OW93445   6.083   1.305   7.046 -0.0074 -0.0061  0.3482
29161SOL    HW193446   6.156   1.367   7.042  1.2786 -1.4800  0.0345
29161SOL    HW293447   6.110   1.241   7.112 -2.3444  0.9698  2.4041
29162SOL     OW93448   5.431   2.561   0.227 -0.6608 -0.4350 -0.3150
29162SOL    HW193449   5.486   2.530   0.155  1.1614  0.4245  0.6274
29162SOL    HW293450   5.424   2.485   0.285  2.1310  0.1725  1.0094
29163SOL     OW93451   5.858   3.891   3.850 -0.0761  0.4788  0.3046
29163SOL    HW193452   5.885   3.852   3.933  0.2727 -0.9028 -0.4255
29163SOL    HW293453   5.833   3.816   3.796  0.2391  1.3058 -1.0218
29164SOL     OW93454   7.722   2.409   7.338 -0.4498  0.1642  0.1671
29164SOL    HW193455   7.648   2.469   7.329 -1.3002 -0.8493  0.2593
29164SOL    HW293456   7.796   2.465   7.362 -1.2330  1.1647  0.2762
29165SOL     OW93457   2.803   6.462   1.516 -0.4772  0.3266  0.7025
29165SOL    HW193458   2.816   6.391   1.454 -2.0512 -0.2015  0.9274
29165SOL    HW293459   2.842   6.539   1.474  1.0396 -0.5920  0.3617
29166SOL     OW93460   1.677  10.156   9.576  0.1049  0.9304 -0.1491
29166SOL    HW193461   1.658  10.225   9.639  0.8774 -0.0032  1.1570
29166SOL    HW293462   1.772  10.154   9.571  0.0646  0.7228 -1.0730
29167SOL     OW93463   8.168   9.106   5.166  0.3742 -0.3341  0.2130
29167SOL    HW193464   8.244   9.050   5.150  1.3892  0.4842  1.8224
29167SOL    HW293465   8.113   9.056   5.227  1.6205  0.5724  2.2128
29168SOL     OW93466   4.434   8.696   2.472 -0.0320  0.0995 -0.1187
29168SOL    HW193467   4.465   8.764   2.412 -0.2248 -0.8388 -1.3240
29168SOL    HW293468   4.471   8.720   2.557 -0.0121  1.6398 -0.5394
29169SOL     OW93469   5.063  10.086   9.669 -0.4260  0.1698  0.1511
29169SOL    HW193470   5.121  10.036   9.611 -0.3994 -0.1099  0.4152
29169SOL    HW293471   5.045  10.026   9.742 -0.3342  0.5721  0.5065
29170SOL     OW93472   0.599   1.640   0.803 -0.0299  0.1269 -0.3030
29170SOL    HW193473   0.526   1.588   0.772  0.6813  0.2319 -2.2607
29170SOL    HW293474   0.637   1.589   0.875 -0.3324 -1.2817 -1.1073
29171SOL     OW93475   8.532   0.544   6.798 -0.1241 -0.0015  0.1298
29171SOL    HW193476   8.452   0.550   6.746  0.7872 -0.5857 -1.4170
29171SOL    HW293477   8.601   0.526   6.734  1.3538  1.0751  1.3310
29172SOL     OW93478   9.007   5.839   4.650 -0.0187  0.6975 -0.0585
29172SOL    HW193479   8.966   5.804   4.729  1.4051  1.1300  0.9227
29172SOL    HW293480   8.952   5.809   4.578  0.0961 -1.9664  0.8736
29173SOL     OW93481   7.076   3.463   5.481 -0.0164 -0.2325  0.3142
29173SOL    HW193482   7.126   3.463   5.399  1.7518 -0.4818  1.3270
29173SOL    HW293483   6.998   3.514   5.461  1.8449  2.4745 -0.7063
29174SOL     OW93484   2.411   6.704   9.509 -0.1065  0.2516 -0.1655
29174SOL    HW193485   2.392   6.732   9.419 -0.8383 -1.9998 -0.7653
29174SOL    HW293486   2.476   6.634   9.499  0.8060  0.8670  1.1892
29175SOL     OW93487  10.246   7.613   3.062 -0.5231  0.2765 -0.3117
29175SOL    HW193488  10.304   7.583   3.131 -2.0480  0.5132  1.1271
29175SOL    HW293489  10.200   7.535   3.032  1.1972 -0.1015 -2.1904
29176SOL     OW93490   9.692   4.560   6.290 -0.2725  0.0191 -0.7964
29176SOL    HW193491   9.760   4.601   6.343  0.1603 -1.2939 -0.2894
29176SOL    HW293492   9.687   4.470   6.322 -1.0183 -0.4087 -2.0125
29177SOL     OW93493   2.299   9.883   4.558  0.3178  0.0302 -0.4919
29177SOL    HW193494   2.341   9.797   4.565 -0.0679 -0.1412 -0.3003
29177SOL    HW293495   2.364   9.944   4.593  0.5789 -0.1857 -0.5964
29178SOL     OW93496   3.259   1.309   3.666 -0.3398 -0.0189  0.2194
29178SOL    HW193497   3.237   1.256   3.590  0.9177 -0.3477  0.0797
29178SOL    HW293498   3.354   1.303   3.675 -0.3917  0.5220  1.4421
29179SOL     OW93499   6.243  11.573   7.013 -0.2454  0.1696 -0.4008
29179SOL    HW193500   6.185  11.512   6.966  0.0591  0.1486 -0.7603
29179SOL    HW293501   6.212  11.660   6.987  0.5891  0.1596 -1.5067
29180SOL     OW93502   7.229  10.567   9.860  0.0459  0.3150  0.0004
29180SOL    HW193503   7.209  10.577   9.953 -1.1303 -0.1864 -0.1764
29180SOL    HW293504   7.299  10.502   9.857 -0.0134  0.2223  0.5330
29181SOL     OW93505   5.146   6.123   3.928  0.1947  0.0238  0.0162
29181SOL    HW193506   5.225   6.169   3.898 -0.0494 -0.8820 -2.2098
29181SOL    HW293507   5.110   6.084   3.849 -0.4376 -2.7533  1.5596
29182SOL     OW93508   0.822   2.698   1.109 -0.0645  0.2770 -0.3583
29182SOL    HW193509   0.830   2.750   1.029  0.1191 -0.5516 -0.8966
29182SOL    HW293510   0.834   2.607   1.080 -0.2766 -0.0631  0.5669
29183SOL     OW93511   5.513   2.669   8.009  0.1984 -0.4699 -0.0056
29183SOL    HW193512   5.451   2.631   7.946  0.9064  0.3559 -1.2399
29183SOL    HW293513   5.590   2.612   8.003  0.4044 -0.1755 -0.1655
29184SOL     OW93514   2.731   2.851   9.808 -0.1948 -0.1475  0.4481
29184SOL    HW193515   2.687   2.928   9.772 -1.0173 -0.7869  0.0553
29184SOL    HW293516   2.662   2.786   9.816  0.5734 -0.9858  0.3846
29185SOL     OW93517   3.571  10.775   2.611 -0.6557  0.1762 -0.3506
29185SOL    HW193518   3.532  10.851   2.569 -1.8075 -1.0804 -1.6711
29185SOL    HW293519   3.594  10.716   2.539  2.5113  0.2346  0.4377
29186SOL     OW93520  11.548   1.119   2.614 -0.3390 -0.0014  0.0957
29186SOL    HW193521  11.573   1.172   2.689 -1.7704  1.6438 -0.5168
29186SOL    HW293522  11.455   1.140   2.600 -0.0097  0.1047 -2.3662
29187SOL     OW93523   4.208   1.191   4.505 -0.5151  0.6038  0.1644
29187SOL    HW193524   4.225   1.286   4.506 -1.2254  0.7889 -1.3395
29187SOL    HW293525   4.119   1.183   4.469  0.3019 -0.6726 -1.7674
29188SOL     OW93526   4.268   1.238  11.226  0.0161 -0.6031 -0.6460
29188SOL    HW193527   4.176   1.214  11.229  0.2785 -1.5859 -0.1793
29188SOL    HW293528   4.315   1.155  11.233  0.9374 -0.2567 -2.2324
29189SOL     OW93529   3.107   2.961   2.606  0.0037 -0.0535 -0.0827
29189SOL    HW193530   3.176   2.904   2.574  1.0956  1.2286 -0.1363
29189SOL    HW293531   3.121   3.044   2.560  0.0603  1.0420  1.7703
29190SOL     OW93532   2.075   8.643   8.161  0.2311  0.0680  0.0338
29190SOL    HW193533   2.133   8.684   8.226 -0.2228  1.8962 -0.6428
29190SOL    HW293534   2.132   8.624   8.086  0.2724  0.3206  0.0012
29191SOL     OW93535  11.499   5.366   6.731 -0.0348  0.0467  0.1527
29191SOL    HW193536  11.441   5.294   6.757 -0.6151  0.6028  0.4064
29191SOL    HW293537  11.473   5.440   6.785  0.0761  0.6569 -0.6015
29192SOL     OW93538   9.439   9.244   1.109  0.0085  0.4988  0.0290
29192SOL    HW193539   9.524   9.244   1.064  0.8330  1.4789  1.5080
29192SOL    HW293540   9.375   9.236   1.038  1.3478 -2.2856 -1.0093
29193SOL     OW93541  12.319   0.036   9.753 -0.1190 -0.3242 -0.3366
29193SOL    HW193542  12.332  -0.006   9.668  0.5398  0.1590 -0.4793
29193SOL    HW293543  12.401   0.020   9.801 -0.8307 -1.4182  0.5790
29194SOL     OW93544  10.664   4.095   2.805  0.3286  0.3004 -0.4419
29194SOL    HW193545  10.606   4.104   2.880  1.1183  1.1254  0.0930
29194SOL    HW293546  10.717   4.017   2.825  1.9541  1.6707  0.8908
29195SOL     OW93547   4.381   1.460   4.680 -0.1633  0.2367  0.1086
29195SOL    HW193548   4.356   1.375   4.717 -1.3857  0.1721 -0.7743
29195SOL    HW293549   4.371   1.521   4.752  1.5087 -0.4625  0.9724
29196SOL     OW93550   5.722   7.393   0.195 -0.2278 -0.0248  0.2036
29196SOL    HW193551   5.758   7.463   0.141  0.4329  0.5889  1.3993
29196SOL    HW293552   5.798   7.348   0.230 -0.6069  0.2915  1.4905
29197SOL     OW93553   3.236  11.960   3.851 -0.6403 -0.3044  0.0334
29197SOL    HW193554   3.163  11.935   3.795 -1.6176 -0.5886  1.3956
29197SOL    HW293555   3.275  12.036   3.808 -0.3393 -1.4706 -1.8737
29198SOL     OW93556   1.101   6.864   8.961 -1.0490 -0.2677  0.0028
29198SOL    HW193557   1.022   6.814   8.938 -0.6881 -1.3236  1.0008
29198SOL    HW293558   1.083   6.899   9.048  0.2080 -1.9205  0.9729
29199SOL     OW93559   7.717   2.133  10.740  0.2879  0.1717 -0.0901
29199SOL    HW193560   7.720   2.228  10.750 -0.7200  0.2646 -0.5101
29199SOL    HW293561   7.712   2.099  10.829 -2.1073  0.6617  0.0190
29200SOL     OW93562   4.150   2.043  10.269 -0.4741 -0.6973  0.3977
29200SOL    HW193563   4.195   2.014  10.348 -2.3921 -1.1617  1.3859
29200SOL    HW293564   4.200   2.004  10.197 -0.6346 -3.1484  1.5223
29201SOL     OW93565  11.868  11.021   7.646  0.3940 -0.4145  0.5159
29201SOL    HW193566  11.815  10.985   7.575 -0.1868  0.7375  0.3304
29201SOL    HW293567  11.897  11.106   7.613  0.3195  0.0337  1.5719
29202SOL     OW93568   3.960   2.170   7.455  0.3449 -0.1761 -0.1791
29202SOL    HW193569   3.975   2.076   7.445  2.6882  0.2458 -1.3789
29202SOL    HW293570   4.029   2.211   7.402 -0.2589  2.2285  0.7694
29203SOL     OW93571   9.514   0.385   7.755 -0.1111  0.1923 -0.6943
29203SOL    HW193572   9.483   0.408   7.668  1.3878 -1.0754 -1.6217
29203SOL    HW293573   9.551   0.466   7.790 -0.4897  0.6506 -1.3456
29204SOL     OW93574   6.518   0.333   1.293 -0.1026 -0.0335  0.0884
29204SOL    HW193575   6.546   0.401   1.355 -0.5246  0.2559 -0.0369
29204SOL    HW293576   6.457   0.377   1.234 -0.3530 -0.5147 -0.0179
29205SOL     OW93577   4.543   3.861   1.043  0.5881 -0.0952 -0.1628
29205SOL    HW193578   4.464   3.851   0.991  1.3190  0.5740 -1.4676
29205SOL    HW293579   4.612   3.881   0.979  1.6721  0.0645  0.9947
29206SOL     OW93580  10.798   1.020   7.384 -0.1760  0.8369  0.0246
29206SOL    HW193581  10.830   1.064   7.306 -0.7907 -0.3440 -0.9282
29206SOL    HW293582  10.702   1.019   7.374 -0.1605 -1.5636 -0.5186
29207SOL     OW93583   0.897  12.360  11.929 -0.1378  0.5532  0.1863
29207SOL    HW193584   0.810  12.370  11.889  0.0678 -0.1990 -0.4827
29207SOL    HW293585   0.955  12.343  11.855  0.2463 -0.9401  0.7895
29208SOL     OW93586   2.154   1.157   3.603 -0.5315  0.2145 -0.2634
29208SOL    HW193587   2.071   1.151   3.555 -0.0377 -0.4854 -1.0414
29208SOL    HW293588   2.221   1.143   3.537  0.2603  1.7070  0.1846
29209SOL     OW93589   4.065   3.275   0.896  0.0419 -0.3497  0.4253
29209SOL    HW193590   4.074   3.326   0.976  0.2115  0.1483  0.0951
29209SOL    HW293591   4.007   3.327   0.840  1.4014  0.2372 -0.5065
29210SOL     OW93592  11.156   6.038  10.452  0.4215  0.1957 -1.1685
29210SOL    HW193593  11.151   6.132  10.435  0.3464  0.7488  1.5042
29210SOL    HW293594  11.067   6.006  10.440  0.5943  0.2666 -2.8728
29211SOL     OW93595   6.860  11.556   3.492 -0.1131 -0.0528 -0.6059
29211SOL    HW193596   6.869  11.612   3.415  1.1989  0.1860 -0.2919
29211SOL    HW293597   6.948  11.548   3.527 -0.3799 -1.7224 -0.2067
29212SOL     OW93598   0.846   6.366  12.179  0.0527 -0.2531 -0.2488
29212SOL    HW193599   0.891   6.438  12.224 -0.1222 -0.3892  0.1483
29212SOL    HW293600   0.911   6.331  12.118 -0.0247  0.5771 -0.8221
29213SOL     OW93601   5.806   9.296   8.339 -0.0932  0.0988  0.5693
29213SOL    HW193602   5.841   9.207   8.341  1.0320  0.4914 -0.5746
29213SOL    HW293603   5.879   9.352   8.365  0.1545  0.9136 -1.6405
29214SOL     OW93604  11.462   8.470   2.036  0.3931  0.4067 -0.0607
29214SOL    HW193605  11.497   8.529   2.103 -0.6024  0.5492  0.3540
29214SOL    HW293606  11.368   8.466   2.055  0.1035  0.4203 -1.4254
29215SOL     OW93607   0.431   3.113  10.359 -0.1691 -0.5318  0.1284
29215SOL    HW193608   0.415   3.206  10.377  0.9088  0.0622 -1.6926
29215SOL    HW293609   0.445   3.074  10.445 -1.5593  0.7939  1.0072
29216SOL     OW93610   9.273   3.375   3.844 -0.3126 -0.5746 -0.7900
29216SOL    HW193611   9.312   3.433   3.779 -1.3502  2.4329  1.0307
29216SOL    HW293612   9.285   3.422   3.927 -2.9770 -2.0555  0.5444
29217SOL     OW93613   4.390   3.350   1.401 -0.0775 -0.2832 -0.2528
29217SOL    HW193614   4.405   3.260   1.428 -0.7210 -0.8626 -1.7115
29217SOL    HW293615   4.307   3.374   1.441  0.9243  0.3146  1.5932
29218SOL     OW93616   0.303   0.758   1.152 -0.5047 -0.0618 -0.7674
29218SOL    HW193617   0.368   0.764   1.081  0.8727 -3.8829 -0.0388
29218SOL    HW293618   0.222   0.732   1.109  0.3159 -2.3370 -1.0410
29219SOL     OW93619   8.435   7.719   4.203 -0.2553  0.1034 -0.4042
29219SOL    HW193620   8.483   7.669   4.136 -0.8251  0.1565 -0.8593
29219SOL    HW293621   8.504   7.759   4.256  0.2064 -0.0644 -0.8626
29220SOL     OW93622   7.019   5.116  10.755 -0.2151 -0.4053 -0.3519
29220SOL    HW193623   6.926   5.107  10.734 -0.1944 -1.3639 -0.1084
29220SOL    HW293624   7.041   5.207  10.733 -1.0273 -0.3829 -1.1188
29221SOL     OW93625   7.486   1.684   0.656 -0.2996 -0.3855 -0.2014
29221SOL    HW193626   7.430   1.730   0.718 -1.2295 -0.1904 -1.1553
29221SOL    HW293627   7.533   1.754   0.610 -0.0792 -0.4943 -0.1414
29222SOL     OW93628   1.207   6.313   1.753 -0.4599  0.6384  0.2038
29222SOL    HW193629   1.119   6.342   1.731 -0.9069  0.6830  1.9546
29222SOL    HW293630   1.230   6.362   1.831  0.7636 -0.0463  0.2953
29223SOL     OW93631   3.617   0.970   3.370 -0.0326  0.1297 -0.3570
29223SOL    HW193632   3.691   0.949   3.426 -0.6465 -0.1978  0.3505
29223SOL    HW293633   3.562   0.892   3.373  0.2774 -0.1846 -2.0223
29224SOL     OW93634  11.063   5.257   8.976  0.1252  0.1881  0.0953
29224SOL    HW193635  11.016   5.262   8.893  0.8937  0.0943 -0.3484
29224SOL    HW293636  11.018   5.319   9.033 -1.5789 -1.0495  0.2056
29225SOL     OW93637   4.769   6.801   3.888  0.9160 -0.2606 -0.0443
29225SOL    HW193638   4.755   6.803   3.794  2.2290  0.0302 -0.2559
29225SOL    HW293639   4.843   6.860   3.903  2.0173 -1.7884  0.9150
29226SOL     OW93640   3.176  10.565   9.066 -0.8016 -0.0807 -0.0419
29226SOL    HW193641   3.193  10.657   9.083 -1.3405 -0.1011  0.6387
29226SOL    HW293642   3.240  10.541   8.998 -1.6935  1.1769 -1.3694
29227SOL     OW93643   8.191   6.531   3.807  0.0884 -0.0347 -0.1619
29227SOL    HW193644   8.105   6.560   3.778  0.5682  0.5096 -1.1162
29227SOL    HW293645   8.241   6.612   3.818  0.3246 -0.3179  0.9127
29228SOL     OW93646   1.232   5.010   3.382  0.5824  0.0442 -0.1163
29228SOL    HW193647   1.223   5.062   3.462 -0.8900  0.1906 -0.3371
29228SOL    HW293648   1.242   4.920   3.413 -0.4561  0.0382  0.2559
29229SOL     OW93649   1.038   5.309   2.864 -0.2138  0.3654 -0.1400
29229SOL    HW193650   0.987   5.273   2.937 -0.9485 -0.7102 -1.1247
29229SOL    HW293651   1.115   5.253   2.859 -1.7199 -1.7309 -2.1473
29230SOL     OW93652   7.737   6.794  11.817 -0.1048  0.3719 -0.5666
29230SOL    HW193653   7.735   6.884  11.786 -1.5019  1.1550  1.6442
29230SOL    HW293654   7.788   6.797  11.898  1.5359 -1.2293 -1.4352
29231SOL     OW93655   1.341  10.232   0.645 -0.3798  0.1150 -0.2619
29231SOL    HW193656   1.259  10.226   0.694 -0.5368  1.5115 -0.3113
29231SOL    HW293657   1.374  10.320   0.664  0.9657 -0.3097 -0.4838
29232SOL     OW93658   8.846   7.004   2.009  0.6193  0.5655  0.7272
29232SOL    HW193659   8.826   6.925   2.060 -0.5356  1.5921  1.9392
29232SOL    HW293660   8.781   7.003   1.938  0.6364  0.4033  0.7127
29233SOL     OW93661   0.613   6.133   3.411  0.1504  0.0349 -0.1222
29233SOL    HW193662   0.522   6.117   3.385  0.1395 -2.8723  1.3461
29233SOL    HW293663   0.664   6.107   3.334 -0.1869  0.6828 -0.5800
29234SOL     OW93664  11.763   3.347   3.835  0.2681 -0.4803  0.0752
29234SOL    HW193665  11.733   3.359   3.925 -1.3378  0.6679 -0.5608
29234SOL    HW293666  11.845   3.395   3.831 -1.6574  3.2200 -0.0471
29235SOL     OW93667   5.285   1.900   5.053  0.4603  0.0504  0.4929
29235SOL    HW193668   5.282   1.830   4.988  0.4185 -0.0494  0.6031
29235SOL    HW293669   5.292   1.855   5.137 -0.2418  0.1601  0.6143
29236SOL     OW93670   7.922   3.104  12.373  0.3848  0.3755  0.2806
29236SOL    HW193671   7.846   3.136  12.325  0.4751 -2.9084 -2.4224
29236SOL    HW293672   7.886   3.048  12.441  0.3265 -0.0590 -0.1016
29237SOL     OW93673   1.386   8.397   8.619  0.1254 -0.4195  0.0018
29237SOL    HW193674   1.459   8.349   8.657 -0.2692 -1.2915 -0.3086
29237SOL    HW293675   1.392   8.379   8.525 -0.1479 -0.0233 -0.0953
29238SOL     OW93676  11.051   2.756   8.904  0.1564 -0.2440  0.1406
29238SOL    HW193677  11.135   2.800   8.903  0.4166 -0.7158  0.7833
29238SOL    HW293678  11.013   2.777   8.989  0.9302 -2.4082  1.1017
29239SOL     OW93679   4.562   2.828  10.470 -0.0699  0.5339 -0.5087
29239SOL    HW193680   4.515   2.774  10.406  1.5038 -0.8434 -0.5479
29239SOL    HW293681   4.525   2.804  10.554  0.6374 -0.6485 -0.5246
29240SOL     OW93682   4.654   7.474  10.939  0.8103 -0.3867 -0.5122
29240SOL    HW193683   4.733   7.487  10.991 -0.7298 -1.8973  2.5306
29240SOL    HW293684   4.596   7.546  10.964  0.3068 -0.7329 -0.6520
29241SOL     OW93685   9.409  10.861   0.514  0.0637  0.4396 -0.3209
29241SOL    HW193686   9.341  10.903   0.461  1.1831  2.6334 -0.1609
29241SOL    HW293687   9.388  10.768   0.511 -1.9144  0.8592 -1.7066
29242SOL     OW93688  11.231  10.287   1.886  0.3158  0.0278 -0.2746
29242SOL    HW193689  11.174  10.213   1.907 -1.6262  1.3413 -0.7134
29242SOL    HW293690  11.192  10.326   1.808  1.7782  1.0493 -0.5397
29243SOL     OW93691   0.560   4.595   2.673 -0.4846  0.3902 -0.9023
29243SOL    HW193692   0.476   4.635   2.651 -0.1469  2.1902  0.7593
29243SOL    HW293693   0.625   4.653   2.632 -0.0270  0.4051 -0.1791
29244SOL     OW93694   6.609   0.521  11.423  0.3877 -0.1948 -0.6527
29244SOL    HW193695   6.638   0.609  11.400  1.2243 -0.2774 -0.0109
29244SOL    HW293696   6.546   0.534  11.494 -0.3930 -0.0584 -1.3688
29245SOL     OW93697   6.379   4.053   9.986 -0.3064 -0.3557  0.1236
29245SOL    HW193698   6.313   4.114   9.953  0.0806  0.3800  0.6782
29245SOL    HW293699   6.372   4.060  10.081 -0.9843 -1.9874  0.2227
29246SOL     OW93700  11.551   9.253   6.977 -0.1649 -0.0954 -0.1165
29246SOL    HW193701  11.576   9.162   6.961 -0.5552 -0.6354  2.0673
29246SOL    HW293702  11.469   9.264   6.929 -1.0276 -1.4620  0.9407
29247SOL     OW93703  12.106  11.925   6.070  0.3084  0.2318 -0.0817
29247SOL    HW193704  12.070  11.938   6.158  0.5432  0.6663 -0.0444
29247SOL    HW293705  12.091  11.833   6.051  0.9008 -0.0464  0.7142
29248SOL     OW93706   3.100   6.849   7.349 -0.1095  0.1848 -0.1466
29248SOL    HW193707   3.133   6.790   7.282 -0.5269 -0.1005 -0.1013
29248SOL    HW293708   3.174   6.861   7.409 -0.2532 -0.9182  0.2780
29249SOL     OW93709   4.571   6.329   6.216  0.2363 -0.1402  0.1830
29249SOL    HW193710   4.659   6.346   6.250 -0.1295  1.7691  0.3053
29249SOL    HW293711   4.513   6.371   6.279 -0.6267  0.5949 -1.0639
29250SOL     OW93712   0.881   7.826   1.406  0.1602 -0.0835  0.1372
29250SOL    HW193713   0.940   7.802   1.478  2.6537 -1.1015 -2.0720
29250SOL    HW293714   0.835   7.745   1.384 -0.7337  0.2697  0.6825
29251SOL     OW93715   2.392   1.135   2.555 -0.3540  0.3539  0.0264
29251SOL    HW193716   2.373   1.187   2.633 -3.1036 -0.1920 -0.1737
29251SOL    HW293717   2.358   1.186   2.482  3.7391  1.6970 -1.2368
29252SOL     OW93718  10.663   6.056  12.153 -0.4255 -0.4089  0.4168
29252SOL    HW193719  10.657   6.068  12.058 -1.5467  1.2951  0.6656
29252SOL    HW293720  10.629   5.968  12.168 -1.7033 -0.1214 -0.6354
29253SOL     OW93721  10.754   5.664   3.941 -0.1502 -0.2772  0.1963
29253SOL    HW193722  10.830   5.721   3.952  1.1522 -1.7385 -0.8909
29253SOL    HW293723  10.748   5.615   4.023  0.8888 -1.0617 -0.1751
29254SOL     OW93724   6.379   9.827   2.580  0.1605  0.2296 -0.6048
29254SOL    HW193725   6.458   9.813   2.632 -0.6103 -1.6008  0.1696
29254SOL    HW293726   6.337   9.741   2.577 -2.0380  1.2367 -0.5921
29255SOL     OW93727   0.903   1.493   3.059 -0.5107  0.0640 -0.2073
29255SOL    HW193728   0.949   1.425   3.109 -1.0040 -0.9623 -1.0864
29255SOL    HW293729   0.960   1.570   3.065 -0.2365 -0.2282  1.3390
29256SOL     OW93730   5.172  10.408  11.328  0.5521  0.0075  0.7696
29256SOL    HW193731   5.232  10.427  11.400  1.7980  0.0755 -0.2426
29256SOL    HW293732   5.226  10.413  11.250 -0.5238 -1.1590 -0.1015
29257SOL     OW93733   8.966   4.430   9.048 -0.4387  0.0063 -0.1060
29257SOL    HW193734   8.936   4.352   9.094  0.5388 -0.0962  0.3815
29257SOL    HW293735   8.955   4.501   9.112 -0.3458  0.0927 -0.1860
29258SOL     OW93736   1.538   2.047   3.959 -0.2503 -0.3919 -0.5142
29258SOL    HW193737   1.518   2.024   3.868  0.7209  2.4446 -1.5511
29258SOL    HW293738   1.621   2.001   3.976  0.3616  0.2309 -1.6345
29259SOL     OW93739   9.193   6.398   1.617  0.1048  0.6841 -0.2445
29259SOL    HW193740   9.116   6.388   1.673  0.3386  1.3560  0.2050
29259SOL    HW293741   9.259   6.342   1.656  0.2722  1.1641  0.1643
29260SOL     OW93742   2.930   2.285   8.590 -0.1091 -0.1893 -0.2179
29260SOL    HW193743   2.981   2.236   8.525  0.7105  1.1045 -0.5757
29260SOL    HW293744   2.890   2.356   8.540  1.6100  1.6371  0.8496
29261SOL     OW93745  11.819   5.766   1.866 -0.1485 -0.4435  0.0712
29261SOL    HW193746  11.759   5.745   1.795  0.9570 -1.2707 -0.6489
29261SOL    HW293747  11.817   5.689   1.923 -0.2314 -0.2147  0.3838
29262SOL     OW93748   7.458   2.167   3.124  0.4316 -0.1451  0.2679
29262SOL    HW193749   7.406   2.106   3.177  1.0086 -0.6931  0.2182
29262SOL    HW293750   7.549   2.143   3.142  0.6990 -2.2598 -3.0889
29263SOL     OW93751  11.672   7.116   7.086  0.2961 -1.0038 -0.4417
29263SOL    HW193752  11.673   7.201   7.130  1.0426 -1.7067  0.9578
29263SOL    HW293753  11.655   7.137   6.994 -0.1124  0.6035 -0.0294
29264SOL     OW93754   2.240   0.312   5.552  0.1339  0.5210  0.2616
29264SOL    HW193755   2.202   0.397   5.573  2.6958  1.7308  0.3231
29264SOL    HW293756   2.289   0.327   5.471  3.0403 -0.0510  1.7996
29265SOL     OW93757   8.635   0.969   3.712 -0.2594  0.1547  0.2351
29265SOL    HW193758   8.559   1.006   3.758 -0.9036  1.3798 -1.6754
29265SOL    HW293759   8.604   0.885   3.680 -0.0145 -0.4119  1.4332
29266SOL     OW93760  11.936   6.006   8.543  0.0289  0.2911 -0.3734
29266SOL    HW193761  11.940   6.012   8.448  0.6419 -0.1069 -0.3728
29266SOL    HW293762  12.027   5.996   8.571 -0.0101  1.7190  0.3461
29267SOL     OW93763   2.953  10.158   2.931 -0.4295 -0.7204  0.1677
29267SOL    HW193764   2.970  10.064   2.939 -0.7264 -1.0619 -2.2852
29267SOL    HW293765   2.903  10.166   2.849 -1.8445  1.4183  1.1498
29268SOL     OW93766   9.533   3.147  10.469  0.4574  0.4810  0.0649
29268SOL    HW193767   9.592   3.104  10.532  0.5224  0.6883  0.1469
29268SOL    HW293768   9.453   3.095  10.471  0.2316  0.8417  0.7772
29269SOL     OW93769   9.765  10.663   6.294 -0.6993 -0.0575 -0.4525
29269SOL    HW193770   9.803  10.622   6.217 -1.0511  0.8762 -1.1423
29269SOL    HW293771   9.837  10.669   6.356 -0.3980 -0.7619 -0.7249
29270SOL     OW93772   8.993   2.910   4.705  0.6484 -0.2105 -0.0908
29270SOL    HW193773   8.966   2.821   4.727  0.1734 -0.2950 -0.9838
29270SOL    HW293774   8.944   2.965   4.766  1.7591 -0.5900  1.2046
29271SOL     OW93775   0.007   7.404   4.350 -0.2554 -0.4116 -0.1622
29271SOL    HW193776   0.011   7.319   4.393  0.9593  0.2646  1.1316
29271SOL    HW293777   0.097   7.436   4.348 -0.6826  0.8657 -0.5794
29272SOL     OW93778   5.857   1.493   1.800 -0.8009  0.2489 -0.4976
29272SOL    HW193779   5.900   1.456   1.722 -0.0950 -0.7014  0.3163
29272SOL    HW293780   5.873   1.428   1.869 -0.9218  1.3358  0.5813
29273SOL     OW93781   3.374   9.043  10.432  0.4945  0.0096 -0.1859
29273SOL    HW193782   3.406   9.095  10.358  1.5701 -2.2024 -1.3688
29273SOL    HW293783   3.314   9.102  10.478 -0.1520  1.5193 -2.7510
29274SOL     OW93784  11.856   2.726  11.983 -0.4143  0.1539 -0.5773
29274SOL    HW193785  11.884   2.738  11.892  0.4231 -1.4894 -0.5823
29274SOL    HW293786  11.894   2.800  12.031 -0.0530  0.5066 -1.3948
29275SOL     OW93787   0.276   1.387   1.642 -0.7169  0.3941  0.8992
29275SOL    HW193788   0.312   1.368   1.555 -0.7906 -0.6687  1.0886
29275SOL    HW293789   0.182   1.393   1.629 -0.8977 -1.2971  1.1242
29276SOL     OW93790   7.895   6.122  11.363 -0.2388  0.0437  0.3932
29276SOL    HW193791   7.987   6.100  11.352 -0.2880  0.0614 -0.0911
29276SOL    HW293792   7.894   6.187  11.433 -0.0074 -0.8500  1.2337
29277SOL     OW93793   6.540   3.466   0.290 -0.4357  0.1887  0.3629
29277SOL    HW193794   6.613   3.424   0.335  0.2782 -0.0616 -0.9896
29277SOL    HW293795   6.578   3.502   0.210 -1.8431 -0.1635 -0.5032
29278SOL     OW93796   4.902   8.666   9.928  0.2991  0.1861 -0.0855
29278SOL    HW193797   4.983   8.689   9.883  0.5038  1.4704  0.8722
29278SOL    HW293798   4.833   8.710   9.878  0.4126  0.7099  0.2087
29279SOL     OW93799   7.260   4.223   4.259  0.4507 -1.1697  0.0786
29279SOL    HW193800   7.344   4.187   4.286  1.4809  0.5849 -0.6499
29279SOL    HW293801   7.264   4.316   4.283  0.1259 -0.2420 -2.9879
29280SOL     OW93802   9.437   3.195   9.025  0.2457 -0.3760  0.5246
29280SOL    HW193803   9.433   3.143   8.945 -0.3097 -2.5641  1.8891
29280SOL    HW293804   9.350   3.186   9.064  0.0652  1.7712  0.7628
29281SOL     OW93805   4.687   9.888   2.755 -0.4343 -0.0142 -0.3427
29281SOL    HW193806   4.684   9.874   2.661  0.9479 -1.2205 -0.2303
29281SOL    HW293807   4.770   9.933   2.770 -0.4202 -0.2590  0.3472
29282SOL     OW93808   7.995   4.565   9.103 -0.4314 -0.5309  0.2412
29282SOL    HW193809   8.031   4.547   9.190 -0.6191  0.3959  0.5164
29282SOL    HW293810   7.904   4.535   9.108 -0.2062 -1.2792  0.0799
29283SOL     OW93811   7.007   5.120  11.549  0.8053  0.0172  0.0880
29283SOL    HW193812   7.099   5.097  11.558  1.2567  1.4557 -0.6136
29283SOL    HW293813   7.006   5.196  11.491 -0.7209  0.7511  0.9857
29284SOL     OW93814   7.905   0.283   6.050  0.6428 -0.1083  0.3820
29284SOL    HW193815   7.876   0.211   6.106  1.1503 -0.1641  0.5755
29284SOL    HW293816   7.828   0.339   6.042 -0.0909 -1.1951 -0.6227
29285SOL     OW93817   6.941  10.799   4.225 -0.3447  0.1250  0.4529
29285SOL    HW193818   7.021  10.835   4.264 -1.8313  1.8850  2.1046
29285SOL    HW293819   6.924  10.854   4.148  0.1314 -0.3949 -0.0311
29286SOL     OW93820   9.204   6.610  11.900  0.1494  0.7126  0.2736
29286SOL    HW193821   9.230   6.622  11.809  0.3434 -1.3236  0.0119
29286SOL    HW293822   9.198   6.699  11.935  1.5988  1.4890 -1.2837
29287SOL     OW93823  12.052   7.227   3.728  0.0737  0.2911 -0.2224
29287SOL    HW193824  12.045   7.160   3.796  1.1806  0.6663  0.2841
29287SOL    HW293825  12.140   7.263   3.739 -0.5938  2.0330 -0.2907
29288SOL     OW93826   6.166   3.165   1.452  0.3992 -0.2926 -0.5403
29288SOL    HW193827   6.166   3.149   1.546 -0.0504  1.6427 -0.1721
29288SOL    HW293828   6.108   3.098   1.416  1.3327 -1.6780  0.4070
29289SOL     OW93829   6.567   2.030   9.747  0.3161  0.1596 -0.3184
29289SOL    HW193830   6.534   1.940   9.747  0.3200  0.1582 -0.2294
29289SOL    HW293831   6.598   2.044   9.657  1.5103 -0.3612 -0.0097
29290SOL     OW93832   1.553   8.582   0.802 -0.1856  0.3351 -0.1152
29290SOL    HW193833   1.486   8.571   0.735 -0.2512  0.2275 -0.0313
29290SOL    HW293834   1.571   8.494   0.834 -0.3817  0.4198  0.2289
29291SOL     OW93835   1.005   0.678   4.795 -0.4146  0.2095  0.1547
29291SOL    HW193836   1.019   0.591   4.833 -1.1528 -0.1448 -0.3698
29291SOL    HW293837   1.086   0.726   4.814  0.3573 -0.8764 -0.3237
29292SOL     OW93838   6.502  11.686   3.518 -0.3822  0.0548 -0.0664
29292SOL    HW193839   6.418  11.643   3.500 -1.0934  1.4279 -0.2454
29292SOL    HW293840   6.549  11.625   3.575 -0.2699 -2.0382 -2.2493
29293SOL     OW93841   8.677  11.784   3.796 -0.3289  0.3048 -0.4738
29293SOL    HW193842   8.666  11.743   3.882  2.0314 -0.8574 -0.6353
29293SOL    HW293843   8.682  11.711   3.735 -0.9332  1.0788 -1.4840
29294SOL     OW93844   4.099   1.907   8.779  0.3913 -0.4243 -0.2472
29294SOL    HW193845   4.112   1.896   8.685  0.4869 -1.4641 -0.1256
29294SOL    HW293846   4.040   1.836   8.804 -2.1831  1.6526 -0.0263
29295SOL     OW93847   4.777  10.261  11.888  0.1069  0.5252  0.0194
29295SOL    HW193848   4.777  10.172  11.924 -0.4566  1.0314  1.3675
29295SOL    HW293849   4.870  10.285  11.885  0.2656 -0.1130 -0.3736
29296SOL     OW93850   6.284   1.412   1.975 -0.2817  0.3216  0.5432
29296SOL    HW193851   6.303   1.329   1.933  0.5001  0.2823  0.9513
29296SOL    HW293852   6.269   1.473   1.903  0.0944  0.0424  0.2228
29297SOL     OW93853   4.031   8.253  12.319  0.0795  0.3642  0.1858
29297SOL    HW193854   3.972   8.310  12.369  1.1069  0.6392  1.1350
29297SOL    HW293855   4.019   8.167  12.360 -0.3991  0.1974 -0.2927
29298SOL     OW93856   4.576  10.670   2.512  0.1517  0.2385  0.3350
29298SOL    HW193857   4.558  10.714   2.429  0.2763  1.4918  0.9478
29298SOL    HW293858   4.637  10.600   2.489  0.6150  0.9045 -0.5600
29299SOL     OW93859  10.409  10.031  11.985 -0.0358  0.5547 -0.0261
29299SOL    HW193860  10.319  10.061  11.974 -0.6924  0.1903  3.2774
29299SOL    HW293861  10.463  10.108  11.970 -0.9107  0.9184 -1.4639
29300SOL     OW93862   1.072   7.790   7.277  0.0576  0.6814  0.1054
29300SOL    HW193863   1.128   7.780   7.199  0.4418 -1.5173  0.5810
29300SOL    HW293864   1.109   7.864   7.324 -0.1541  2.0414 -1.7630
29301SOL     OW93865   7.804  10.271  11.914 -0.2811 -0.0517  0.0387
29301SOL    HW193866   7.886  10.317  11.898 -0.2428  0.1451  0.7371
29301SOL    HW293867   7.821  10.218  11.992 -0.1722 -1.6597 -1.0299
29302SOL     OW93868  10.701   0.713   1.918  0.2493  0.2861  0.9024
29302SOL    HW193869  10.612   0.695   1.947 -0.1800  2.8637  1.4109
29302SOL    HW293870  10.691   0.738   1.826 -0.2319  4.2038  1.8317
29303SOL     OW93871   6.937   1.916   8.044  0.0210 -0.0353 -0.1887
29303SOL    HW193872   6.964   1.955   8.127 -0.1879  0.8452 -0.5266
29303SOL    HW293873   6.865   1.857   8.067  1.1051 -1.1469  0.4842
29304SOL     OW93874  12.046   2.442   2.971  0.4751 -0.0097  0.7774
29304SOL    HW193875  12.090   2.361   2.946  2.1431  0.8067  0.9682
29304SOL    HW293876  12.005   2.473   2.890  1.2759 -0.1685  0.3080
29305SOL     OW93877   9.614   9.499   2.992 -0.5439 -0.7320 -0.0711
29305SOL    HW193878   9.579   9.449   2.918 -0.9998  0.3900 -0.6351
29305SOL    HW293879   9.691   9.543   2.956 -1.8212  1.3007 -0.4391
29306SOL     OW93880   3.374  11.396   7.836  0.0091  0.1073  0.0414
29306SOL    HW193881   3.353  11.326   7.898 -0.2825  0.5380  0.4364
29306SOL    HW293882   3.372  11.354   7.750 -2.9480  0.2101 -0.0170
29307SOL     OW93883   5.456   4.151  11.963  0.3267  0.1090  0.1612
29307SOL    HW193884   5.548   4.170  11.979  0.7011 -1.4736  0.0139
29307SOL    HW293885   5.421   4.232  11.926  1.2830  1.2349  1.6052
29308SOL     OW93886   2.130   6.380   2.326  0.3736 -0.0975 -0.1737
29308SOL    HW193887   2.114   6.411   2.236 -0.0562 -2.4315 -0.9711
29308SOL    HW293888   2.196   6.311   2.316  0.4192 -0.3011  1.3224
29309SOL     OW93889   7.893  12.274   0.191  0.0243 -0.6732  0.2980
29309SOL    HW193890   7.894  12.193   0.140  1.4346  0.3868 -1.4745
29309SOL    HW293891   7.881  12.245   0.282 -1.0226 -2.7345 -0.4262
29310SOL     OW93892   8.256   5.077  11.635 -0.1931  0.6346 -0.2602
29310SOL    HW193893   8.299   4.992  11.636 -0.1486  0.6562 -0.3340
29310SOL    HW293894   8.233   5.091  11.544  1.1527  1.3829 -0.5159
29311SOL     OW93895  11.921   8.534   4.232 -0.1577  0.2483  0.2496
29311SOL    HW193896  11.825   8.528   4.227 -0.0975 -0.3350 -0.3697
29311SOL    HW293897  11.944   8.478   4.306 -0.2832  0.2530  0.2928
29312SOL     OW93898   0.124   2.267   5.738  0.7923 -0.2236 -0.1999
29312SOL    HW193899   0.219   2.257   5.731  0.8340  0.0052  0.0424
29312SOL    HW293900   0.090   2.181   5.714  0.9977  0.0785 -1.7311
29313SOL     OW93901   5.539  12.424   8.663 -0.3844 -0.2290  0.1614
29313SOL    HW193902   5.485  12.411   8.740 -1.1668  2.1370  0.0988
29313SOL    HW293903   5.585  12.506   8.679 -0.2317  0.0944 -1.6983
29314SOL     OW93904  10.169  10.768   9.957  0.7015 -0.0177  0.5708
29314SOL    HW193905  10.234  10.703   9.984  1.0469 -0.2191 -0.6792
29314SOL    HW293906  10.210  10.814   9.884 -0.9359 -0.8194 -0.9242
29315SOL     OW93907   1.269  11.069   3.791  0.2870 -0.0295 -0.6677
29315SOL    HW193908   1.236  11.001   3.850  2.5438 -1.3173 -0.7679
29315SOL    HW293909   1.265  11.150   3.842  0.1181 -0.7355  0.4659
29316SOL     OW93910   4.985   2.835  10.957  0.2126  0.2725  0.0000
29316SOL    HW193911   5.015   2.926  10.966 -1.0501  0.5825  1.6116
29316SOL    HW293912   4.928   2.837  10.880  0.8457  0.6442 -0.4731
29317SOL     OW93913  11.692  10.564   0.112 -0.2149 -0.1520 -0.0967
29317SOL    HW193914  11.602  10.531   0.102 -0.5250  0.1840  1.2836
29317SOL    HW293915  11.744  10.512   0.051 -1.5954  0.8299 -2.2427
29318SOL     OW93916   4.509   3.361   6.747 -0.5260  0.4577  0.3960
29318SOL    HW193917   4.554   3.378   6.665 -1.7478 -1.3620 -0.7191
29318SOL    HW293918   4.515   3.444   6.795  1.7037  1.0539 -0.7514
29319SOL     OW93919  12.239   5.158   5.003  0.5003  0.0932  0.2304
29319SOL    HW193920  12.223   5.246   4.967  2.0095  0.5669  0.6343
29319SOL    HW293921  12.295   5.116   4.938  1.2376  0.0731  0.8761
29320SOL     OW93922   9.579  12.467   3.661  0.3932  0.2328 -0.3177
29320SOL    HW193923   9.595  12.462   3.755 -0.6763 -1.6212 -0.1909
29320SOL    HW293924   9.651  12.521   3.627  0.9136  0.7536  1.5092
29321SOL     OW93925   1.821  10.986  10.209 -0.3141  0.2151 -0.4461
29321SOL    HW193926   1.734  10.946  10.221  0.6728 -1.9729 -0.1087
29321SOL    HW293927   1.840  11.027  10.293 -0.5230 -0.3735 -0.1031
29322SOL     OW93928   9.441   6.319   3.110 -0.0781 -0.7940 -0.3388
29322SOL    HW193929   9.347   6.321   3.128 -0.4028  1.5516 -1.7914
29322SOL    HW293930   9.481   6.303   3.195 -1.7599 -1.1500  0.4392
29323SOL     OW93931   1.449   1.637   7.581  0.5672 -0.3702  0.4230
29323SOL    HW193932   1.464   1.542   7.585  0.2022 -0.5087 -0.9096
29323SOL    HW293933   1.517   1.674   7.638  2.1291 -1.3152 -0.7292
29324SOL     OW93934  11.794  11.641   7.773 -1.0779 -0.8009  0.2533
29324SOL    HW193935  11.713  11.622   7.726 -0.1252 -1.4782 -1.2083
29324SOL    HW293936  11.853  11.570   7.748  0.2478  0.1455  0.5674
29325SOL     OW93937  11.591   2.849  11.024  0.5592 -0.4800  0.2114
29325SOL    HW193938  11.567   2.801  10.945  1.6962 -1.1606  0.2565
29325SOL    HW293939  11.508   2.864  11.069  0.2131 -3.2114  0.6561
29326SOL     OW93940   6.065   9.485   1.153  0.2064  0.1033  0.0461
29326SOL    HW193941   6.159   9.501   1.157  0.2566 -0.3410  1.2096
29326SOL    HW293942   6.026   9.572   1.152  0.6091  0.2936  0.4209
29327SOL     OW93943   6.223   4.708   4.777  0.3409 -0.0840 -0.1182
29327SOL    HW193944   6.220   4.753   4.693 -0.5594 -0.5148 -0.3339
29327SOL    HW293945   6.143   4.737   4.822  0.0735 -0.9754 -0.0095
29328SOL     OW93946  10.360  11.654   9.610 -0.4352 -0.0179 -0.2745
29328SOL    HW193947  10.419  11.599   9.662 -0.8628  1.5266  1.9719
29328SOL    HW293948  10.393  11.743   9.622 -0.8529  0.4514 -2.3060
29329SOL     OW93949  10.419   6.741   4.314  0.0653 -0.1351 -1.5899
29329SOL    HW193950  10.512   6.756   4.294  0.5924 -1.2429 -0.1315
29329SOL    HW293951  10.414   6.648   4.332 -0.0343  0.6402  4.2439
29330SOL     OW93952   1.820   4.447   1.438  0.2672  0.0057  0.6669
29330SOL    HW193953   1.816   4.426   1.532 -0.6872 -2.6219  0.1447
29330SOL    HW293954   1.728   4.459   1.413  0.3232 -1.3825 -0.2929
29331SOL     OW93955  10.317   0.157   4.934 -0.0808  0.3089 -0.2269
29331SOL    HW193956  10.290   0.244   4.963  0.2883 -0.0201  1.1965
29331SOL    HW293957  10.358   0.172   4.849 -1.6392  1.2592 -0.8484
29332SOL     OW93958   1.575   4.717  10.498 -0.2488 -0.1489  0.1037
29332SOL    HW193959   1.495   4.769  10.508 -0.1488  0.3381 -1.3871
29332SOL    HW293960   1.639   4.778  10.462  0.0163 -1.1559 -1.2327
29333SOL     OW93961   6.304   4.876   6.700 -0.3445 -0.0553  0.3259
29333SOL    HW193962   6.350   4.877   6.784  2.0572 -1.4371 -0.8559
29333SOL    HW293963   6.358   4.929   6.642 -0.9458 -0.6510 -0.8120
29334SOL     OW93964   7.641   6.211   1.621  0.4480 -0.2778  0.4058
29334SOL    HW193965   7.712   6.266   1.655  0.3239 -0.3188  0.7306
29334SOL    HW293966   7.658   6.125   1.658  2.1233 -1.1389 -2.1116
29335SOL     OW93967   4.538   6.482   8.497 -0.0168  0.2075 -0.1193
29335SOL    HW193968   4.596   6.426   8.446  1.7911  2.5518 -0.8289
29335SOL    HW293969   4.505   6.426   8.566  0.2615 -2.1577 -1.7879
29336SOL     OW93970  12.431   2.185  11.411 -0.2959  0.4705 -0.3094
29336SOL    HW193971  12.423   2.173  11.506 -0.2821 -0.3575 -0.4089
29336SOL    HW293972  12.389   2.270  11.395  0.3279  0.9656  0.5230
29337SOL     OW93973  10.028   4.698   8.032  0.2600 -0.8111 -0.5335
29337SOL    HW193974   9.963   4.704   8.102 -2.0240  1.3365 -2.6219
29337SOL    HW293975  10.005   4.617   7.986 -0.4228 -0.5041 -0.7497
29338SOL     OW93976   1.572   3.255   7.551  0.3898  0.2481  0.4043
29338SOL    HW193977   1.546   3.163   7.548 -0.2853  0.4395  0.2584
29338SOL    HW293978   1.523   3.291   7.626 -0.2026  0.7373 -0.2051
29339SOL     OW93979   7.093   8.171   0.630  0.0754  0.5740  0.7305
29339SOL    HW193980   7.010   8.214   0.609  0.6898  1.3126 -0.2962
29339SOL    HW293981   7.089   8.087   0.584 -0.1294  0.5649  0.7620
29340SOL     OW93982   3.832   9.592   7.287 -0.1445  0.5290  0.4176
29340SOL    HW193983   3.832   9.556   7.376  2.5373  1.5541  0.9341
29340SOL    HW293984   3.743   9.579   7.256 -0.4200 -2.6367  2.1076
29341SOL     OW93985   0.391   2.295   9.259  0.2148 -0.6292 -0.2532
29341SOL    HW193986   0.436   2.370   9.220  0.3824 -0.8920 -0.5711
29341SOL    HW293987   0.448   2.221   9.241 -0.0364 -0.8634 -0.0958
29342SOL     OW93988  11.719  11.009   4.445 -0.2114  0.2564 -0.2463
29342SOL    HW193989  11.630  11.045   4.443 -0.5515 -0.5842 -0.9101
29342SOL    HW293990  11.767  11.060   4.380 -0.1757  0.7625  0.1672
29343SOL     OW93991   8.170   1.096  11.197  0.1410 -0.0602 -0.5419
29343SOL    HW193992   8.122   1.015  11.180 -0.1143 -0.1194  0.3790
29343SOL    HW293993   8.102   1.163  11.205 -0.1805 -0.5800  3.4571
29344SOL     OW93994   0.824   6.920   5.388 -0.7220 -0.0261 -0.2594
29344SOL    HW193995   0.915   6.895   5.405 -0.4386 -0.2319 -1.8574
29344SOL    HW293996   0.824   6.945   5.295 -2.1887  0.4942 -0.1387
29345SOL     OW93997   4.360   5.715   7.004 -0.6460  0.0833 -0.2803
29345SOL    HW193998   4.312   5.636   6.981  0.0112 -0.7158  0.9897
29345SOL    HW293999   4.406   5.693   7.085  2.0441  0.7252 -1.5318
29346SOL     OW94000   2.453   1.239   8.895 -0.3857 -0.2993 -0.3004
29346SOL    HW194001   2.475   1.299   8.824  1.1303  0.4362  0.7551
29346SOL    HW294002   2.372   1.197   8.865  0.4982 -0.4705 -2.7287
29347SOL     OW94003   8.159   1.969   3.521 -0.1945 -0.9075 -0.1058
29347SOL    HW194004   8.241   1.955   3.569 -0.6663 -2.3509  0.3026
29347SOL    HW294005   8.186   1.979   3.430  0.4936 -0.6191  0.1214
29348SOL     OW94006   6.876   5.085   2.900  0.4149 -0.1775 -0.0129
29348SOL    HW194007   6.800   5.030   2.919  0.0842  0.2968  0.0534
29348SOL    HW294008   6.853   5.170   2.937  1.4903 -0.3422  1.1049
29349SOL     OW94009  10.490  10.411   8.414 -0.5937  0.6394  0.3862
29349SOL    HW194010  10.576  10.418   8.372 -1.5534  0.4817 -1.7613
29349SOL    HW294011  10.507  10.365   8.496  1.3126  0.2708 -0.1612
29350SOL     OW94012   2.959  12.293  12.012 -0.0359  0.3739  0.0183
29350SOL    HW194013   2.927  12.230  12.077  0.4613  1.0269  0.9232
29350SOL    HW294014   3.027  12.342  12.058  0.0883  1.0854 -0.8992
29351SOL     OW94015   2.266   6.983   2.266  0.5458 -0.6820 -0.1064
29351SOL    HW194016   2.172   6.994   2.251  0.2348 -0.2774  1.8790
29351SOL    HW294017   2.277   6.889   2.283  0.4196 -0.6477  0.1662
29352SOL     OW94018  10.382   6.751  11.821 -0.9049  0.2166 -0.4552
29352SOL    HW194019  10.440   6.743  11.896 -2.2149 -1.4533  0.4424
29352SOL    HW294020  10.441   6.754  11.745  0.3974 -1.2637  0.4331
29353SOL     OW94021   5.795   9.031   8.116  0.0492  0.4993 -0.0129
29353SOL    HW194022   5.799   9.114   8.069 -0.4840  0.0276 -0.9233
29353SOL    HW294023   5.813   8.965   8.049  1.9512 -0.0540  0.9814
29354SOL     OW94024  11.597   2.712  11.797  0.3188 -0.2530  0.6666
29354SOL    HW194025  11.612   2.659  11.875 -0.8232  0.0214  1.1046
29354SOL    HW294026  11.565   2.796  11.831  0.9814  0.3077 -0.0607
29355SOL     OW94027   9.251   1.351   1.029  0.0536 -0.1741  0.2858
29355SOL    HW194028   9.171   1.374   1.076 -0.3497  1.9429 -1.2906
29355SOL    HW294029   9.246   1.256   1.019 -2.1378 -0.1381  0.4766
29356SOL     OW94030  11.122   8.268   3.721  0.0332 -0.1438 -0.1166
29356SOL    HW194031  11.078   8.267   3.806  0.7958  1.1330  0.3260
29356SOL    HW294032  11.188   8.337   3.729  0.0678  0.0573 -1.7798
29357SOL     OW94033   2.738   1.348  12.380  0.3531  0.5267  0.2559
29357SOL    HW194034   2.819   1.342  12.330  1.4701  1.9051  1.7990
29357SOL    HW294035   2.744   1.277  12.444 -0.6676 -0.6741 -0.9102
29358SOL     OW94036   8.996   4.406   8.478 -0.2306 -0.0645 -0.1447
29358SOL    HW194037   9.078   4.357   8.472 -0.5932 -0.6517 -0.3721
29358SOL    HW294038   8.986   4.424   8.571  0.4370  0.5010 -0.1742
29359SOL     OW94039   2.437   3.576  10.407 -0.0385 -0.1397 -0.3372
29359SOL    HW194040   2.495   3.511  10.445 -1.2365 -0.5797  0.8297
29359SOL    HW294041   2.458   3.576  10.314  2.7204  0.6842  0.1952
29360SOL     OW94042  12.383   1.586  11.022 -0.1694  0.1811  0.4217
29360SOL    HW194043  12.352   1.552  10.938  0.8650  2.3000 -0.8990
29360SOL    HW294044  12.305   1.590  11.077 -1.4533  1.3274 -1.3853
29361SOL     OW94045   8.934   2.703   2.717 -0.2718  0.5268 -0.1632
29361SOL    HW194046   8.883   2.692   2.798  0.3359 -1.6922 -0.0241
29361SOL    HW294047   8.889   2.649   2.653  0.1253  1.0742 -0.9171
29362SOL     OW94048   6.614   3.528  10.777  0.1448 -0.5546 -0.2405
29362SOL    HW194049   6.573   3.548  10.861 -0.1108  0.5874 -0.6169
29362SOL    HW294050   6.689   3.472  10.800 -1.4521 -2.5236  0.4722
29363SOL     OW94051  11.067   7.349   8.503  0.1275 -0.1615  0.1666
29363SOL    HW194052  11.066   7.303   8.419  1.5752 -0.0729  0.0602
29363SOL    HW294053  11.122   7.295   8.559 -0.4583  0.0189  0.9218
29364SOL     OW94054   8.827   5.942  10.453  0.1470 -0.0288 -0.0209
29364SOL    HW194055   8.889   5.894  10.508  2.6080  2.8808  0.0087
29364SOL    HW294056   8.874   5.956  10.370 -1.3949  0.3260 -0.8874
29365SOL     OW94057   7.955   7.266   5.111 -0.0364  0.1927 -0.3003
29365SOL    HW194058   7.892   7.331   5.078  0.7081  1.1144  0.0608
29365SOL    HW294059   7.902   7.207   5.164 -0.7903  0.2782 -0.9346
29366SOL     OW94060   4.598   2.561  12.138 -0.8356  0.6640  0.0760
29366SOL    HW194061   4.553   2.485  12.100 -0.3596  0.7310 -0.6534
29366SOL    HW294062   4.689   2.551  12.109 -0.6961  1.3199  0.2793
29367SOL     OW94063   0.283   2.338   2.944  0.5161  0.0742 -0.0770
29367SOL    HW194064   0.378   2.346   2.952  0.4896  0.4100 -0.0898
29367SOL    HW294065   0.249   2.376   3.025  0.3462  1.1693 -0.6427
29368SOL     OW94066   6.462   4.618  12.270 -0.1124  0.3773 -0.2236
29368SOL    HW194067   6.374   4.652  12.253 -0.1201  0.6470  0.3401
29368SOL    HW294068   6.514   4.646  12.194 -0.8446 -1.0361 -1.2840
29369SOL     OW94069  12.127  12.009   6.651 -0.1745  0.1466  0.0575
29369SOL    HW194070  12.061  12.054   6.599  0.0162  1.2295  0.7345
29369SOL    HW294071  12.205  12.009   6.595  0.3708  2.3244  0.7190
29370SOL     OW94072   3.909   0.526   5.887 -0.3164  0.6674 -0.0343
29370SOL    HW194073   3.918   0.524   5.792 -0.6049  0.3832 -0.0572
29370SOL    HW294074   3.870   0.442   5.909  0.2598  0.5062  0.3913
29371SOL     OW94075  11.749   6.325   2.096 -0.3882 -0.0868 -0.2413
29371SOL    HW194076  11.839   6.301   2.121  0.0025 -0.1368 -1.6385
29371SOL    HW294077  11.731   6.405   2.145  1.2696  1.2027 -1.6451
29372SOL     OW94078   3.159   4.892   5.674 -0.2446  0.1764  0.5803
29372SOL    HW194079   3.225   4.953   5.643  0.4747 -1.4831 -1.3605
29372SOL    HW294080   3.095   4.887   5.602 -0.9553 -0.4053  1.2325
29373SOL     OW94081  11.097   2.144   6.499 -0.0001 -0.2269  0.2614
29373SOL    HW194082  11.107   2.114   6.409  1.2171  0.9773 -0.0418
29373SOL    HW294083  11.170   2.105   6.546 -0.2348 -0.2907  0.5810
29374SOL     OW94084   1.884   5.504   0.041 -0.1072 -0.3959  0.0884
29374SOL    HW194085   1.954   5.550  -0.005  1.1038 -1.9932  0.2269
29374SOL    HW294086   1.804   5.553   0.020  0.8743  0.7475 -1.1044
29375SOL     OW94087   5.509   2.374   8.685  0.0188  0.1173 -0.5592
29375SOL    HW194088   5.499   2.446   8.747  0.4333 -0.1837 -0.1316
29375SOL    HW294089   5.423   2.333   8.681  0.2164 -0.5020  0.6414
29376SOL     OW94090   9.419  10.862   4.854 -0.1532 -0.0312 -0.5256
29376SOL    HW194091   9.431  10.781   4.904  2.2840  0.0055 -0.9164
29376SOL    HW294092   9.335  10.897   4.884  0.1838 -1.1111  1.9414
29377SOL     OW94093   1.605   0.303   2.045 -0.2755  0.5241 -0.9043
29377SOL    HW194094   1.661   0.378   2.068  0.7243 -0.9670  2.0091
29377SOL    HW294095   1.652   0.260   1.973  1.8190  0.0066  0.6629
29378SOL     OW94096   0.866  10.469   1.018  0.0411 -0.2477  0.0443
29378SOL    HW194097   0.824  10.503   0.938 -0.6593  2.0919  1.3082
29378SOL    HW294098   0.938  10.530   1.035 -0.6190  0.0881  1.8556
29379SOL     OW94099   8.076  10.361   6.243 -0.5895  0.2642 -0.6127
29379SOL    HW194100   8.136  10.350   6.170 -0.6683 -0.6083 -0.5530
29379SOL    HW294101   8.016  10.430   6.214 -1.2071 -0.7178 -1.7768
29380SOL     OW94102   0.154   5.364   0.460  0.0642  0.0886  0.1255
29380SOL    HW194103   0.156   5.428   0.389 -0.5998 -1.1602 -1.0565
29380SOL    HW294104   0.144   5.417   0.539 -0.2913  1.4582 -0.8057
29381SOL     OW94105   0.387   4.756   6.390  0.4174  0.0434 -0.3249
29381SOL    HW194106   0.343   4.775   6.308 -0.9310  2.2959  0.8464
29381SOL    HW294107   0.319   4.719   6.446  1.1948 -0.9442  0.0034
29382SOL     OW94108   6.732   5.120   5.712  0.1832 -0.3600 -0.5000
29382SOL    HW194109   6.723   5.179   5.637 -1.2651 -1.7194 -1.4867
29382SOL    HW294110   6.741   5.033   5.672 -1.7852 -1.2685  0.8563
29383SOL     OW94111   8.913   0.140   7.143  0.5376 -0.0241  0.1491
29383SOL    HW194112   9.003   0.132   7.175  0.5507 -1.7112 -0.2298
29383SOL    HW294113   8.887   0.050   7.123 -1.7951  0.1977  1.7717
29384SOL     OW94114   6.958   1.455   0.039  0.1785  0.3382 -0.2204
29384SOL    HW194115   7.021   1.501   0.094  0.8374 -1.3696  0.5232
29384SOL    HW294116   6.877   1.505   0.047  1.5326  3.0047 -1.7411
29385SOL     OW94117   3.365   7.391   1.553 -0.2644  0.0698  0.7287
29385SOL    HW194118   3.439   7.403   1.493  1.8397 -2.7672  2.4843
29385SOL    HW294119   3.308   7.328   1.509  0.0013 -0.1346  0.6760
29386SOL     OW94120   1.231  11.277   3.944  0.0774  0.1164 -0.0266
29386SOL    HW194121   1.225  11.280   4.040 -0.8282 -0.2914 -0.0593
29386SOL    HW294122   1.250  11.367   3.919  2.0580 -0.0754  0.6235
29387SOL     OW94123  11.284   7.303  11.526  0.1186  0.0377  0.8385
29387SOL    HW194124  11.362   7.353  11.503 -1.1570  1.3503 -0.9112
29387SOL    HW294125  11.312   7.212  11.521  1.2205  0.4136 -1.2648
29388SOL     OW94126   5.813  10.311   3.821 -0.0252 -0.3248 -0.2418
29388SOL    HW194127   5.902  10.302   3.786 -0.4399 -1.0946 -1.1437
29388SOL    HW294128   5.767  10.233   3.790 -0.9430 -0.0851  0.4651
29389SOL     OW94129   6.653   3.834   2.992  0.2032 -0.1235 -0.4156
29389SOL    HW194130   6.729   3.849   3.048  0.1068 -2.0382  0.2806
29389SOL    HW294131   6.677   3.758   2.939 -0.5252  0.3861 -1.5193
29390SOL     OW94132  12.326   7.352   7.105 -0.3103 -0.0290  0.5456
29390SOL    HW194133  12.405   7.331   7.156  0.1210  0.2659  0.0168
29390SOL    HW294134  12.359   7.367   7.016 -1.0563 -0.5549  0.1753
29391SOL     OW94135   1.315   4.985   8.076 -0.5283  0.1934 -0.0134
29391SOL    HW194136   1.371   4.910   8.055 -0.9610  0.0419 -0.6380
29391SOL    HW294137   1.241   4.947   8.123  0.7386  0.5937  2.5046
29392SOL     OW94138   8.042   8.968  11.927  0.3019  0.0405  0.1491
29392SOL    HW194139   7.960   8.936  11.890  1.0625  0.0823 -1.6855
29392SOL    HW294140   8.053   9.055  11.890  1.2301 -0.0100  0.2696
29393SOL     OW94141  10.023   0.927   4.324  0.0239 -0.3425 -0.3912
29393SOL    HW194142   9.975   0.844   4.323  0.3759 -0.5869 -2.7361
29393SOL    HW294143  10.115   0.903   4.318  0.2491  0.2099  0.5729
29394SOL     OW94144   6.966   9.749   3.753  0.0039  0.0642 -0.2578
29394SOL    HW194145   6.895   9.807   3.727  0.8342  0.3813 -1.9798
29394SOL    HW294146   6.954   9.670   3.700 -0.1653 -0.6788  0.8565
29395SOL     OW94147   9.786   2.336   6.129  0.1665 -0.5510  0.3686
29395SOL    HW194148   9.771   2.242   6.135 -0.7179 -0.4402 -0.0484
29395SOL    HW294149   9.852   2.346   6.060  0.3487 -0.8724  0.4976
29396SOL     OW94150   0.364   4.383   1.125 -0.7055 -0.1574 -0.2108
29396SOL    HW194151   0.274   4.406   1.148 -0.6156 -1.7064  1.9962
29396SOL    HW294152   0.414   4.400   1.204  0.4415 -1.8512 -0.5148
29397SOL     OW94153   9.236   7.998  12.238  0.0063  0.6365  0.2173
29397SOL    HW194154   9.182   8.076  12.221 -0.8300 -0.5854 -4.2420
29397SOL    HW294155   9.176   7.925  12.224  1.3959 -0.8568  1.6815
29398SOL     OW94156   8.247   6.511   6.874 -0.2653  0.5709  0.3920
29398SOL    HW194157   8.151   6.510   6.867 -0.2379 -0.9648 -0.3510
29398SOL    HW294158   8.274   6.425   6.840  1.3437  0.7300  1.1665
29399SOL     OW94159   8.414   5.398   7.461  0.0370 -0.3216  0.6042
29399SOL    HW194160   8.320   5.407   7.479 -0.0080 -1.4385  0.9741
29399SOL    HW294161   8.440   5.485   7.428 -0.4831  0.9384  3.2653
29400SOL     OW94162   8.667   6.704  11.451  0.8117 -0.8845  0.5371
29400SOL    HW194163   8.584   6.747  11.469 -0.0167 -2.5138  0.7555
29400SOL    HW294164   8.705   6.688  11.537  1.2872 -0.2942  0.4435
29401SOL     OW94165   3.139   5.447   3.071 -0.6209 -0.1085  0.2335
29401SOL    HW194166   3.072   5.381   3.089  0.0889 -0.9974 -0.3265
29401SOL    HW294167   3.144   5.498   3.152  0.9726 -2.6740  1.8965
29402SOL     OW94168   7.734   6.388   6.308  0.1613  0.5950 -0.1042
29402SOL    HW194169   7.798   6.443   6.262  0.3410  0.9781  0.5911
29402SOL    HW294170   7.672   6.451   6.346 -0.1287  0.2705 -0.0395
29403SOL     OW94171   7.923   6.051   1.622 -0.4564  0.3744 -0.0686
29403SOL    HW194172   7.884   5.967   1.645  0.5750  0.2079  1.1256
29403SOL    HW294173   8.011   6.030   1.591 -0.4957  0.9503 -0.5956
29404SOL     OW94174   2.146   3.942   1.440 -0.0091 -0.6391  0.0032
29404SOL    HW194175   2.197   4.018   1.470  0.4404 -0.6397 -0.7285
29404SOL    HW294176   2.212   3.875   1.422 -0.4089 -1.2358  0.7035
29405SOL     OW94177  10.440  10.294   3.035 -0.3679 -0.2852 -0.1842
29405SOL    HW194178  10.365  10.348   3.060  0.4106 -0.6204  3.3703
29405SOL    HW294179  10.415  10.205   3.061  0.7740 -0.6121 -0.1515
29406SOL     OW94180   6.754   0.408   5.486 -0.4762  0.7836  0.2527
29406SOL    HW194181   6.840   0.367   5.475 -0.6239  0.2509  1.0136
29406SOL    HW294182   6.695   0.334   5.505 -0.7243  1.3593  1.8065
29407SOL     OW94183   4.502   4.232   8.978  0.0832  0.0802  0.9403
29407SOL    HW194184   4.508   4.210   8.885  1.8642  1.2975  0.7160
29407SOL    HW294185   4.529   4.153   9.024  0.6948 -0.0673  0.3488
29408SOL     OW94186   4.807   4.850   8.687  0.1549 -0.4619  0.4493
29408SOL    HW194187   4.787   4.940   8.713  1.4088  0.4390 -1.4987
29408SOL    HW294188   4.901   4.850   8.670 -0.2354 -1.4134 -2.1149
29409SOL     OW94189   4.003   3.047   5.483 -0.1419 -0.3993  0.1396
29409SOL    HW194190   3.966   3.076   5.399 -1.4448 -0.7022  0.5804
29409SOL    HW294191   4.075   2.989   5.459  0.8152  1.0760 -0.7535
29410SOL     OW94192   7.807   3.030   5.465  0.1389 -0.6175  0.3350
29410SOL    HW194193   7.834   2.967   5.531 -0.6715  1.2637  2.6391
29410SOL    HW294194   7.734   3.077   5.506 -1.3456 -0.2423 -2.4809
29411SOL     OW94195   5.683   7.673  11.746 -0.2568 -0.2173  0.6215
29411SOL    HW194196   5.733   7.743  11.788 -0.8336  1.2398 -1.0105
29411SOL    HW294197   5.747   7.625  11.695  0.1050 -0.7886  1.5817
29412SOL     OW94198   4.166   5.547   9.143  0.0085  0.4153 -0.0586
29412SOL    HW194199   4.106   5.530   9.216 -1.0072  2.5874 -0.3332
29412SOL    HW294200   4.118   5.520   9.065  0.6434 -0.7833 -0.0660
29413SOL     OW94201   5.578  10.743   7.902  0.3536 -0.1170  0.4342
29413SOL    HW194202   5.643  10.742   7.833 -1.7450 -0.0597 -1.6649
29413SOL    HW294203   5.512  10.679   7.874 -0.2848 -0.5749  2.7157
29414SOL     OW94204   0.067  12.178  12.418  0.4555 -0.5137  0.1400
29414SOL    HW194205   0.146  12.176  12.472  0.9803 -0.8059 -0.6397
29414SOL    HW294206   0.098  12.181  12.328 -0.4219 -0.2520 -0.1689
29415SOL     OW94207   6.096  12.353  11.341  0.1095  0.5211  0.2149
29415SOL    HW194208   6.069  12.378  11.253  0.7662  0.3438 -0.0380
29415SOL    HW294209   6.140  12.430  11.376 -2.4387  1.5542  1.3924
29416SOL     OW94210   0.348   2.691   8.879  0.1631  0.2618  0.1019
29416SOL    HW194211   0.380   2.602   8.889 -1.9435 -0.5573  0.0872
29416SOL    HW294212   0.349   2.727   8.968  0.7254  0.1218  0.1548
29417SOL     OW94213   0.301   5.139   1.191  0.1770  0.2571  0.0980
29417SOL    HW194214   0.322   5.050   1.161 -1.8856 -0.4914  0.7710
29417SOL    HW294215   0.233   5.128   1.257 -0.9296  2.4186 -0.5834
29418SOL     OW94216  10.769   7.433   1.006  0.2791  0.3248  0.4161
29418SOL    HW194217  10.775   7.455   1.099  2.7962  0.8338  0.2187
29418SOL    HW294218  10.686   7.470   0.977 -1.0654 -0.7567  2.6417
29419SOL     OW94219   8.496  10.823  11.166  0.4209 -0.1038  0.1553
29419SOL    HW194220   8.499  10.904  11.116 -0.3031 -0.5064 -0.5661
29419SOL    HW294221   8.431  10.840  11.235 -0.6585 -0.4628 -0.7443
29420SOL     OW94222   8.010   9.494   9.017  0.0394  0.3264 -0.4853
29420SOL    HW194223   7.994   9.497   9.111 -0.7688 -1.0328 -0.5577
29420SOL    HW294224   8.019   9.401   8.997 -0.6475  0.5295 -1.8691
29421SOL     OW94225   9.509  11.422   5.529  0.1822 -0.2338 -0.3160
29421SOL    HW194226   9.577  11.486   5.552  0.3539 -0.0342 -1.3294
29421SOL    HW294227   9.520  11.408   5.435  1.1842 -2.9606  0.1084
29422SOL     OW94228   2.681  10.756   1.460 -0.2942 -0.1865  0.3033
29422SOL    HW194229   2.774  10.760   1.479 -0.4657  1.6047  0.9834
29422SOL    HW294230   2.639  10.805   1.531 -1.5375  1.0210 -1.1717
29423SOL     OW94231   6.748   6.776   4.763 -0.0048 -0.0386 -0.5296
29423SOL    HW194232   6.831   6.755   4.808  0.4897 -0.5659 -1.6577
29423SOL    HW294233   6.734   6.869   4.781 -0.2777 -0.4123  1.4272
29424SOL     OW94234   6.661   1.754   2.191 -0.8955 -0.1880  0.9994
29424SOL    HW194235   6.591   1.751   2.126  0.1849 -0.4778 -0.1916
29424SOL    HW294236   6.741   1.767   2.140  0.1523 -1.6852  2.1530
29425SOL     OW94237  10.339   5.333   7.646  0.0059  0.5151  0.2544
29425SOL    HW194238  10.324   5.424   7.622  0.6974  0.7639  0.7290
29425SOL    HW294239  10.367   5.290   7.565 -1.0368  0.5419 -0.1381
29426SOL     OW94240  11.186   7.662   9.782  0.1217  0.2394  0.5367
29426SOL    HW194241  11.129   7.667   9.706  1.5957 -1.9113 -0.8208
29426SOL    HW294242  11.134   7.700   9.854 -2.4117 -0.3015 -0.8986
29427SOL     OW94243   4.819   1.483   1.408 -0.2586 -0.5970 -0.2927
29427SOL    HW194244   4.846   1.509   1.496  0.6049  1.4642 -1.1162
29427SOL    HW294245   4.902   1.468   1.361 -0.6818 -0.7651 -1.0043
29428SOL     OW94246  11.859   9.822   4.061 -0.3881  0.5359 -0.6921
29428SOL    HW194247  11.833   9.790   4.148 -0.3817  0.0787 -0.8572
29428SOL    HW294248  11.877   9.742   4.011  0.6571  0.8220 -0.7842
29429SOL     OW94249   8.667  11.904   8.737 -0.8198 -0.1054  0.5008
29429SOL    HW194250   8.667  11.992   8.776 -1.1640 -1.1349  3.0454
29429SOL    HW294251   8.735  11.908   8.670 -1.8256  2.4859 -0.5015
29430SOL     OW94252   1.921   0.695   0.955  0.1327 -0.3353  0.1610
29430SOL    HW194253   1.937   0.709   1.048  0.8004 -1.0421  0.1623
29430SOL    HW294254   1.847   0.635   0.951  1.6237 -2.3095  0.3299
29431SOL     OW94255   1.704   0.706   2.358  0.0669 -0.7281  0.2668
29431SOL    HW194256   1.785   0.750   2.383  0.3763 -1.7386  1.1286
29431SOL    HW294257   1.669   0.671   2.440 -0.5774 -1.3908 -0.2755
29432SOL     OW94258   5.755   1.038   9.438  0.4023  0.8049  0.1066
29432SOL    HW194259   5.750   1.112   9.377  2.5969  2.2841  1.5101
29432SOL    HW294260   5.750   1.079   9.525  2.6710 -0.4959  0.9582
29433SOL     OW94261   5.747   0.280   3.331  0.1026  0.6405 -0.2427
29433SOL    HW194262   5.775   0.191   3.352  1.4006  0.5765 -1.9680
29433SOL    HW294263   5.708   0.313   3.412  1.5143 -0.7630  1.0794
29434SOL     OW94264   2.808   8.271   3.073 -0.1418 -0.3382 -0.1762
29434SOL    HW194265   2.713   8.272   3.068 -0.1207 -1.0611 -0.9692
29434SOL    HW294266   2.833   8.361   3.094 -0.9711 -0.0557 -0.4001
29435SOL     OW94267   4.203   5.264   9.841  0.3417  0.3232  0.1779
29435SOL    HW194268   4.269   5.231   9.902  0.0196 -0.0468  0.3302
29435SOL    HW294269   4.191   5.355   9.867 -0.1320  0.0436  0.9729
29436SOL     OW94270  10.261   1.612  11.016  0.1809  0.4244  0.2147
29436SOL    HW194271  10.319   1.673  10.971  1.8549 -0.8861  0.5007
29436SOL    HW294272  10.182   1.610  10.962  1.7960 -0.4877 -2.3020
29437SOL     OW94273   7.153   9.436  10.587  0.2384  0.3606 -0.0191
29437SOL    HW194274   7.184   9.448  10.677  0.0687  3.0546 -0.2244
29437SOL    HW294275   7.057   9.441  10.595  0.2211  0.5145 -0.3213
29438SOL     OW94276  10.493  12.016  12.140  0.4742  0.1731 -0.7482
29438SOL    HW194277  10.466  11.924  12.133 -1.3284  0.5259  0.8099
29438SOL    HW294278  10.463  12.055  12.058  0.8275 -0.5198 -1.2228
29439SOL     OW94279  10.802   0.022   9.838  0.2379  1.0698 -0.4476
29439SOL    HW194280  10.856   0.081   9.890  0.9505 -0.2972  0.4299
29439SOL    HW294281  10.861  -0.012   9.770  0.2522  0.2654 -0.0455
29440SOL     OW94282   6.451   8.839   0.808 -0.6073 -0.3195 -0.0393
29440SOL    HW194283   6.527   8.833   0.749 -0.6288 -1.6806  0.0544
29440SOL    HW294284   6.489   8.840   0.896 -0.6403  0.5417 -0.0203
29441SOL     OW94285   6.891  12.446  12.231  0.0147  0.1309 -0.1417
29441SOL    HW194286   6.853  12.360  12.214  1.6183 -0.5426 -0.4137
29441SOL    HW294287   6.840  12.481  12.304  1.1338 -2.2556  1.9240
29442SOL     OW94288   1.967   5.732   5.606  0.8184 -0.1486 -0.2714
29442SOL    HW194289   1.997   5.675   5.535  2.1932  0.8293 -0.5182
29442SOL    HW294290   1.872   5.723   5.606  0.9800 -2.4527 -0.2721
29443SOL     OW94291   4.964   9.512   6.905 -0.1563  0.1342 -0.0013
29443SOL    HW194292   4.970   9.419   6.884  0.8521 -0.0608  1.0875
29443SOL    HW294293   4.877   9.537   6.874 -0.8749 -1.4223  0.6185
29444SOL     OW94294   9.955  11.751  10.129 -0.4651 -0.0332  0.3012
29444SOL    HW194295   9.946  11.699  10.049  0.0177 -0.2840  0.4022
29444SOL    HW294296  10.016  11.700  10.183  0.2913  0.8014  0.2615
29445SOL     OW94297  12.116   7.384  10.934  0.1632  0.0174 -0.5015
29445SOL    HW194298  12.207   7.411  10.946  0.5078 -1.1096 -0.4896
29445SOL    HW294299  12.115   7.341  10.848  0.0928 -1.6915  0.3016
29446SOL     OW94300  11.400   7.700   8.460 -0.2322  0.3639  0.0867
29446SOL    HW194301  11.460   7.655   8.399 -1.1188  0.9079 -1.2241
29446SOL    HW294302  11.433   7.789   8.464  0.3274  0.1202  1.0969
29447SOL     OW94303  12.383   7.415   5.504  0.5500  0.1566  0.7284
29447SOL    HW194304  12.289   7.402   5.491  0.7079 -0.0689 -0.2898
29447SOL    HW294305  12.418   7.428   5.415  1.4499  0.4488  1.1122
29448SOL     OW94306   8.803   6.446   9.127  0.1957 -0.4926  0.0777
29448SOL    HW194307   8.724   6.490   9.096 -0.0402  0.6712  2.1267
29448SOL    HW294308   8.774   6.356   9.147 -0.0871 -0.6859 -1.1561
29449SOL     OW94309   1.941   1.046   6.887 -0.1216  0.2180  0.2272
29449SOL    HW194310   1.870   1.083   6.835 -1.1231 -2.1793 -0.2277
29449SOL    HW294311   2.015   1.041   6.826 -0.9929 -1.6277 -0.7595
29450SOL     OW94312   0.467  12.147  11.978 -0.2816  0.6625 -0.1326
29450SOL    HW194313   0.444  12.181  12.064 -1.3140  0.8328 -0.4600
29450SOL    HW294314   0.544  12.198  11.952  0.3986  0.2077  0.9214
29451SOL     OW94315  12.437   7.229   5.025 -0.2634 -0.8257  0.3934
29451SOL    HW194316  12.504   7.162   5.038 -1.0208 -1.6507  0.1510
29451SOL    HW294317  12.370   7.186   4.972 -0.7053  0.1699  0.1154
29452SOL     OW94318   6.058   5.215   1.446 -0.0889 -0.9744  0.6468
29452SOL    HW194319   5.979   5.243   1.493 -0.0059 -0.1733  0.3201
29452SOL    HW294320   6.129   5.265   1.486  0.2123 -1.4919  0.7557
29453SOL     OW94321   8.594  10.505   4.959  0.1839  0.6167 -0.2884
29453SOL    HW194322   8.563  10.461   4.880 -0.0878  0.2730  0.0065
29453SOL    HW294323   8.689  10.515   4.945  0.0353  1.2059 -0.9645
29454SOL     OW94324   1.239   3.078  11.555 -0.1214  0.4185  0.3410
29454SOL    HW194325   1.194   3.133  11.491  0.3622  1.6831  1.0392
29454SOL    HW294326   1.261   3.138  11.627  1.8045 -0.3519  0.4462
29455SOL     OW94327  10.663   0.298   8.232 -0.3196 -0.1446 -0.1451
29455SOL    HW194328  10.704   0.292   8.145 -0.1910 -0.7084 -0.0506
29455SOL    HW294329  10.734   0.325   8.290 -0.8506  2.2830 -0.5340
29456SOL     OW94330   6.704  12.233  12.149  0.3735 -0.4331  0.0995
29456SOL    HW194331   6.610  12.244  12.131  0.2489 -0.7520  0.5333
29456SOL    HW294332   6.744  12.227  12.063  0.1889  1.2495 -0.1349
29457SOL     OW94333   7.115   5.560   4.062  0.8124  0.6017  0.1410
29457SOL    HW194334   7.035   5.509   4.049 -0.9309  2.5724  2.1951
29457SOL    HW294335   7.131   5.602   3.978 -1.1797  1.2523  0.0374
29458SOL     OW94336   1.833   1.998   6.721  0.2283 -0.0175  0.4714
29458SOL    HW194337   1.769   2.064   6.696  0.0130 -0.3949 -0.0019
29458SOL    HW294338   1.801   1.917   6.680  0.8691 -0.2635  0.4436
29459SOL     OW94339  11.186  10.755   6.202 -0.0195  0.2364  0.1798
29459SOL    HW194340  11.255  10.808   6.242 -0.1212 -0.1414  0.8530
29459SOL    HW294341  11.214  10.746   6.111  0.6275  0.4061  0.3547
29460SOL     OW94342   4.291   7.584  11.940 -0.3936  0.5332 -0.0427
29460SOL    HW194343   4.249   7.630  11.868  0.6396  1.9336  0.2167
29460SOL    HW294344   4.370   7.634  11.959  0.6202 -1.1728  0.4859
29461SOL     OW94345   8.378   4.248   5.275 -0.2167  0.1550 -0.2994
29461SOL    HW194346   8.376   4.231   5.369  0.8704 -2.3819 -0.6444
29461SOL    HW294347   8.403   4.164   5.236  1.9842  1.7793 -2.6845
29462SOL     OW94348   3.559   1.723  10.287 -0.1920 -0.0067 -0.0325
29462SOL    HW194349   3.494   1.719  10.217 -0.6667 -0.8016  0.4381
29462SOL    HW294350   3.524   1.789  10.348 -0.3917 -0.1921  0.0544
29463SOL     OW94351   1.057   8.624   1.970 -0.0821 -0.6181  0.0096
29463SOL    HW194352   0.965   8.601   1.987 -0.7419  1.1417 -0.9179
29463SOL    HW294353   1.073   8.595   1.880  0.1245 -0.5038  0.0088
29464SOL     OW94354   2.653   7.479   2.978 -0.4026 -0.3079  0.3184
29464SOL    HW194355   2.671   7.476   2.884  0.7800 -3.0968  0.5316
29464SOL    HW294356   2.557   7.477   2.984 -0.5359  1.2468 -0.7947
29465SOL     OW94357   8.018   6.471   7.191  0.2107  0.5646  0.2159
29465SOL    HW194358   7.962   6.393   7.200  0.1672 -0.3365 -4.6754
29465SOL    HW294359   8.102   6.444   7.227 -0.3803 -1.0215  0.5180
29466SOL     OW94360  10.628  10.259   7.402  0.2057 -0.1212  0.6269
29466SOL    HW194361  10.668  10.331   7.450 -1.2194 -0.0411  1.7579
29466SOL    HW294362  10.547  10.240   7.450 -0.9317 -0.5230 -1.3474
29467SOL     OW94363   1.634   0.171  11.596  0.3380 -0.0421 -0.2464
29467SOL    HW194364   1.547   0.138  11.576  0.1191  0.7134 -0.5797
29467SOL    HW294365   1.686   0.152  11.518  0.3331 -0.0194 -0.2548
29468SOL     OW94366   9.788   3.888   5.401 -0.6547 -0.7121  0.0252
29468SOL    HW194367   9.883   3.893   5.403 -0.5091 -2.3316 -0.8261
29468SOL    HW294368   9.759   3.979   5.406  0.9871 -0.0166 -1.9328
29469SOL     OW94369  12.015   4.165   7.113 -0.2953 -0.0400 -0.4666
29469SOL    HW194370  12.048   4.245   7.073 -1.6407  0.7771 -0.0301
29469SOL    HW294371  11.929   4.152   7.073 -0.5346 -0.6700  0.2273
29470SOL     OW94372   2.870   0.476   4.810 -0.2091  0.3187  0.1105
29470SOL    HW194373   2.787   0.485   4.857  0.2890 -0.0369  1.0909
29470SOL    HW294374   2.864   0.538   4.738 -0.6865  1.4546  1.1074
29471SOL     OW94375  12.327   8.027   8.114  0.4121  0.6338  0.3457
29471SOL    HW194376  12.277   8.106   8.136 -0.4549 -0.1011  1.0678
29471SOL    HW294377  12.407   8.060   8.073 -1.2571  1.8440 -2.2189
29472SOL     OW94378  11.264   6.602   5.746 -0.6365 -0.3640 -0.1248
29472SOL    HW194379  11.265   6.634   5.655  0.6320 -0.7453 -0.2698
29472SOL    HW294380  11.273   6.507   5.738 -0.6661 -0.4098  0.3948
29473SOL     OW94381  11.522   5.640   3.408  0.6062  0.2471  0.3212
29473SOL    HW194382  11.579   5.563   3.409  2.1089  1.2703 -1.4369
29473SOL    HW294383  11.570   5.707   3.456 -0.0639  0.5270  0.6178
29474SOL     OW94384   9.428   1.847   1.735  0.2136 -0.1104 -0.2777
29474SOL    HW194385   9.406   1.755   1.720 -1.0372 -0.1639  1.5760
29474SOL    HW294386   9.478   1.872   1.658  0.5472 -2.3256 -0.8578
29475SOL     OW94387  10.009   0.842   7.843 -0.4572 -0.0943 -0.3266
29475SOL    HW194388   9.930   0.837   7.897 -0.8452 -0.0553 -0.8804
29475SOL    HW294389   9.978   0.822   7.754  0.6205 -2.8648 -0.1467
29476SOL     OW94390  12.414   4.160   4.207 -0.0735  0.2151  0.0649
29476SOL    HW194391  12.423   4.196   4.295 -0.4782 -1.0262  0.6427
29476SOL    HW294392  12.344   4.095   4.215  2.6692 -3.0202 -0.1235
29477SOL     OW94393  11.378  12.212  10.619 -0.1879 -0.0647  0.0836
29477SOL    HW194394  11.348  12.251  10.536 -0.4146  0.9343  0.6165
29477SOL    HW294395  11.407  12.124  10.595  0.2186  0.3820 -1.1475
29478SOL     OW94396  11.035   5.998   3.871  0.1427  0.2690 -0.2586
29478SOL    HW194397  10.991   6.081   3.852  0.5371  0.5185 -0.1014
29478SOL    HW294398  10.978   5.955   3.936  0.3931  0.8229  0.3381
29479SOL     OW94399   6.038  10.738   8.946  0.3040  0.1635  0.1254
29479SOL    HW194400   6.128  10.758   8.971  0.2401  1.6134 -0.7146
29479SOL    HW294401   6.005  10.819   8.908 -1.4745 -0.2468  0.7173
29480SOL     OW94402   6.228   1.792   8.503  0.3649 -0.5697 -0.3199
29480SOL    HW194403   6.180   1.726   8.453  0.9715 -0.0455 -1.6592
29480SOL    HW294404   6.178   1.873   8.490  0.9922 -0.2490 -0.8134
29481SOL     OW94405   1.028   3.935   2.513 -0.2674  0.0713 -0.0518
29481SOL    HW194406   0.969   3.893   2.576 -0.1637 -0.1017 -0.0675
29481SOL    HW294407   0.971   3.987   2.457 -0.2779  0.9541  0.7458
29482SOL     OW94408  11.430   5.329  10.079 -1.0947  0.1899 -0.6369
29482SOL    HW194409  11.427   5.402  10.017 -2.8168  1.1673  0.4955
29482SOL    HW294410  11.391   5.256  10.031  0.9738 -0.1512 -1.9081
29483SOL     OW94411   5.834  10.827   6.512 -0.3029  0.0750 -0.3296
29483SOL    HW194412   5.771  10.888   6.472 -0.8862 -0.2974  0.0046
29483SOL    HW294413   5.823  10.746   6.464  0.4814  0.2218 -0.7783
29484SOL     OW94414  10.061   6.413   4.368  0.1186 -0.5737 -0.1662
29484SOL    HW194415  10.115   6.412   4.447  1.5463  2.1177 -1.0117
29484SOL    HW294416  10.122   6.426   4.296 -1.4370  0.5914 -1.3595
29485SOL     OW94417   7.198  12.446   5.521  0.3059  0.0032 -0.0831
29485SOL    HW194418   7.151  12.374   5.478 -1.7055  1.8790 -1.2019
29485SOL    HW294419   7.229  12.501   5.449  0.2336  1.1977  0.7739
29486SOL     OW94420   4.371   1.465   7.069 -0.1188  0.2372  0.1401
29486SOL    HW194421   4.434   1.393   7.075  0.7724  1.1042  1.7914
29486SOL    HW294422   4.386   1.503   6.983 -0.5146 -1.4358 -0.7084
29487SOL     OW94423   7.363   8.421   8.203  0.2067  0.2054 -0.0427
29487SOL    HW194424   7.365   8.505   8.250 -0.6154  1.1173 -1.5411
29487SOL    HW294425   7.300   8.368   8.251  0.6699  0.4691  0.8722
29488SOL     OW94426   7.041   3.961   9.692  0.3821 -0.0756  0.3048
29488SOL    HW194427   7.067   3.869   9.683 -1.0358 -0.6821  1.7790
29488SOL    HW294428   6.998   3.981   9.609  0.0047 -1.0293  0.2489
29489SOL     OW94429  10.245  11.358   7.239 -0.2827 -0.3764 -0.7075
29489SOL    HW194430  10.205  11.302   7.306 -2.7062 -0.1796 -1.8724
29489SOL    HW294431  10.293  11.297   7.182  1.5051 -0.5808  0.9052
29490SOL     OW94432   0.610  12.093   5.636 -0.1602  0.2402  0.3089
29490SOL    HW194433   0.542  12.073   5.701  0.9824 -0.4199  1.3611
29490SOL    HW294434   0.586  12.179   5.601 -1.9291 -0.3027  0.0941
29491SOL     OW94435   1.918   2.865  11.383 -0.2524  0.6034  0.5201
29491SOL    HW194436   1.898   2.772  11.380 -0.6053  0.6239  1.7596
29491SOL    HW294437   1.848   2.907  11.333  0.1812  0.1882 -0.4784
29492SOL     OW94438  11.695   3.115   6.341 -0.1748  0.0555  0.2849
29492SOL    HW194439  11.670   3.056   6.270 -0.1064  0.6811 -0.2630
29492SOL    HW294440  11.627   3.182   6.343 -0.3572 -0.1341  1.0319
29493SOL     OW94441   3.830   5.530   1.657 -0.2541  0.2913 -0.6519
29493SOL    HW194442   3.850   5.560   1.569  1.1602  0.3675 -0.3387
29493SOL    HW294443   3.847   5.436   1.655 -0.4641  0.2497 -0.5259
29494SOL     OW94444   2.361   4.777   6.719 -0.0267 -0.2489  0.1736
29494SOL    HW194445   2.335   4.786   6.811 -1.2919  1.4298 -0.2818
29494SOL    HW294446   2.456   4.791   6.720  0.0550 -0.7332  1.2646
29495SOL     OW94447   0.463   3.656  11.931  0.4699  0.3170  0.4520
29495SOL    HW194448   0.512   3.715  11.988 -0.6284  0.6591  1.0809
29495SOL    HW294449   0.512   3.574  11.934  1.2149  0.7584  0.7372
29496SOL     OW94450   0.814   8.145   2.742 -0.0792  0.2201  0.0195
29496SOL    HW194451   0.876   8.180   2.807 -1.9989  0.9970  1.5431
29496SOL    HW294452   0.836   8.192   2.661  0.7906  1.0748  0.7172
29497SOL     OW94453   8.432   8.678   6.011 -0.3538  0.1112  0.2476
29497SOL    HW194454   8.399   8.761   6.045 -0.2128  0.5699 -0.7151
29497SOL    HW294455   8.509   8.660   6.064  0.6056  1.4612 -0.6209
29498SOL     OW94456   5.410  11.847   3.787  0.1904  0.2945  0.2315
29498SOL    HW194457   5.458  11.775   3.745  0.8199  1.5146 -1.2492
29498SOL    HW294458   5.472  11.883   3.851 -0.1911 -0.5685  1.1033
29499SOL     OW94459   4.284   0.107   4.671 -0.0492  0.0464 -0.1927
29499SOL    HW194460   4.216   0.118   4.605 -0.0803  1.0417 -0.0032
29499SOL    HW294461   4.358   0.070   4.622  0.1499  1.3621 -0.9546
29500SOL     OW94462   0.341   6.519   0.937 -0.4718  0.5073  0.3053
29500SOL    HW194463   0.347   6.428   0.909  0.9857  0.1067  1.7454
29500SOL    HW294464   0.248   6.537   0.941 -0.7931 -0.9617  0.1069
29501SOL     OW94465   9.087  10.591   5.823  0.2980 -0.3226 -0.5396
29501SOL    HW194466   9.174  10.566   5.790  0.1980  0.0488 -1.1137
29501SOL    HW294467   9.105  10.663   5.884  0.4191 -0.4311 -0.4468
29502SOL     OW94468   0.717   5.846   3.199  0.1881 -0.2383  0.4538
29502SOL    HW194469   0.653   5.857   3.129 -2.0633 -0.9152  2.2654
29502SOL    HW294470   0.790   5.902   3.175 -0.3872 -0.6046 -2.4924
29503SOL     OW94471   2.716   5.008   0.304  0.3067 -0.2294  0.1270
29503SOL    HW194472   2.662   4.936   0.336 -0.5683  0.7289  0.8650
29503SOL    HW294473   2.703   5.078   0.368  1.6847  0.3560 -0.1976
29504SOL     OW94474   6.342  11.151   3.809 -0.2560 -0.3740 -0.2423
29504SOL    HW194475   6.356  11.236   3.768  1.0992  0.0067  0.9609
29504SOL    HW294476   6.404  11.093   3.764 -0.0825 -0.3754  0.0002
29505SOL     OW94477   8.166   7.467   7.318  0.0884 -0.0677  0.1960
29505SOL    HW194478   8.221   7.420   7.381  1.4172  1.4961  0.2898
29505SOL    HW294479   8.101   7.512   7.372 -0.2578 -0.6120  0.2337
29506SOL     OW94480   6.047  10.703   7.719  0.1546 -0.1440  0.4326
29506SOL    HW194481   5.987  10.770   7.754  0.5060  1.2824 -1.5336
29506SOL    HW294482   6.019  10.692   7.628  1.2627 -1.3932  0.2221
29507SOL     OW94483   3.625   3.577   9.761  0.3364  0.7521 -0.2510
29507SOL    HW194484   3.539   3.539   9.778  0.0421  1.3060 -0.4519
29507SOL    HW294485   3.661   3.524   9.689 -0.6802  1.7122 -1.5313
29508SOL     OW94486   7.579  10.012   3.697 -0.3917  0.4688 -0.1554
29508SOL    HW194487   7.486   9.989   3.690 -0.4767  0.5580  0.6102
29508SOL    HW294488   7.607  10.023   3.606 -1.2213  0.7917 -0.3859
29509SOL     OW94489  10.218   3.742   4.320 -0.3848 -0.2114  0.1693
29509SOL    HW194490  10.265   3.726   4.239  0.1572 -0.0124  0.4376
29509SOL    HW294491  10.267   3.693   4.386  0.1053  0.8966  0.6480
29510SOL     OW94492   3.847   5.560   0.709 -0.0241 -0.0157  0.2857
29510SOL    HW194493   3.891   5.487   0.666  1.1799  0.5778  0.4665
29510SOL    HW294494   3.785   5.518   0.769  0.5852 -0.8855  0.3314
29511SOL     OW94495  11.693  11.326   7.390 -0.7659  0.4359 -0.5849
29511SOL    HW194496  11.687  11.235   7.362 -0.9976  0.2260  0.1280
29511SOL    HW294497  11.750  11.367   7.325 -1.3035 -0.0256 -1.3670
29512SOL     OW94498  11.005   0.360  12.452  0.5297 -0.3194 -0.1843
29512SOL    HW194499  11.088   0.402  12.428  1.5993 -1.9836  0.4562
29512SOL    HW294500  10.939   0.428  12.436  2.1547  1.6206  0.7916
29513SOL     OW94501   9.767   4.723   8.492  0.2711 -0.0617  0.3355
29513SOL    HW194502   9.767   4.712   8.397  1.3113 -0.8339  0.4082
29513SOL    HW294503   9.692   4.780   8.509  0.0410  0.0575 -0.9385
29514SOL     OW94504   8.470   3.334  10.718  0.1399  0.5345 -0.2401
29514SOL    HW194505   8.517   3.345  10.800  0.4537  0.5113 -0.4158
29514SOL    HW294506   8.506   3.402  10.660 -1.2079  1.6152  0.1378
29515SOL     OW94507   5.452   4.747   1.351  0.2439 -0.5098  0.3560
29515SOL    HW194508   5.434   4.679   1.415 -0.2082 -0.9498 -0.2316
29515SOL    HW294509   5.477   4.823   1.403 -0.1697 -0.8465  1.0535
29516SOL     OW94510   9.487   5.243   4.194  0.3190 -0.2364  0.2519
29516SOL    HW194511   9.501   5.306   4.265  0.4923 -0.9455  0.8551
29516SOL    HW294512   9.405   5.200   4.216  1.1817 -1.5946  0.8930
29517SOL     OW94513  12.454   9.732   5.061  0.2713  0.2463 -0.0398
29517SOL    HW194514  12.403   9.656   5.034  1.9815 -0.0250 -2.8787
29517SOL    HW294515  12.393   9.805   5.056 -0.6194 -0.5014 -0.2978
29518SOL     OW94516   2.018  10.271   8.808  0.2098 -0.1232 -0.3013
29518SOL    HW194517   1.936  10.320   8.812  0.1148 -0.3682  1.7808
29518SOL    HW294518   1.997  10.186   8.847  1.1486 -0.6800 -0.9577
29519SOL     OW94519   1.509  11.709   4.715  0.2409  0.5698 -0.2315
29519SOL    HW194520   1.455  11.642   4.674  0.2172  0.4074  0.0624
29519SOL    HW294521   1.469  11.792   4.690  0.4097  0.4835 -0.7953
29520SOL     OW94522  11.525   8.584   2.274 -0.4936  0.3154 -0.6457
29520SOL    HW194523  11.491   8.538   2.351 -0.8405  1.2980 -0.2062
29520SOL    HW294524  11.605   8.626   2.306 -0.0184 -0.2088 -1.1244
29521SOL     OW94525  10.886   5.755   8.963  0.1174 -0.3351 -0.6211
29521SOL    HW194526  10.872   5.849   8.958 -0.9167 -0.5276 -1.8913
29521SOL    HW294527  10.799   5.717   8.948  0.6834 -1.4895 -1.0907
29522SOL     OW94528   7.260  11.375  10.217 -0.1362 -0.3163  0.1306
29522SOL    HW194529   7.194  11.320  10.174  1.6256 -1.1980 -1.5808
29522SOL    HW294530   7.317  11.405  10.146  0.3876  1.7659  1.3532
29523SOL     OW94531   7.356   4.878   2.660  0.3191  0.5990  1.0120
29523SOL    HW194532   7.351   4.973   2.660 -1.1575  0.5554  0.0476
29523SOL    HW294533   7.376   4.855   2.751 -0.1298  1.7914  1.4356
29524SOL     OW94534   1.912   6.278   9.168 -0.2648 -0.2022  0.5694
29524SOL    HW194535   1.982   6.284   9.233  1.9766 -0.6471 -1.6232
29524SOL    HW294536   1.899   6.184   9.156 -2.3115 -0.1533  1.9177
29525SOL     OW94537   3.855   6.812   2.490  1.1261  0.3220 -0.1525
29525SOL    HW194538   3.917   6.839   2.559  1.3717 -1.7757  0.5331
29525SOL    HW294539   3.862   6.716   2.488 -0.5474  0.1779 -1.5668
29526SOL     OW94540   5.873   4.434  12.489  0.0494 -0.6469 -0.6845
29526SOL    HW194541   5.813   4.500  12.523 -0.7443 -1.1302 -1.1032
29526SOL    HW294542   5.880   4.370  12.560 -0.9878 -1.2575 -1.1096
29527SOL     OW94543  12.213   2.359   2.689  0.2708 -0.1222  0.0980
29527SOL    HW194544  12.237   2.443   2.727  0.9884 -0.8048  1.2109
29527SOL    HW294545  12.254   2.294   2.746  0.7105 -1.2083 -1.3947
29528SOL     OW94546   2.955   5.760   4.114  0.1614  0.2525  0.5366
29528SOL    HW194547   3.033   5.745   4.061 -0.0899 -1.7812  0.6577
29528SOL    HW294548   2.989   5.772   4.203  0.3191 -1.3276  0.7050
29529SOL     OW94549   7.740  10.922   5.616 -0.1661 -1.1021  0.2077
29529SOL    HW194550   7.741  10.826   5.617 -0.2333 -1.1029  0.2093
29529SOL    HW294551   7.818  10.947   5.666 -1.1775 -1.1547  1.8920
29530SOL     OW94552   3.044   8.471   6.133 -0.1708 -0.6423 -0.4034
29530SOL    HW194553   2.983   8.542   6.153  2.0838  1.6034 -0.9493
29530SOL    HW294554   2.993   8.411   6.078 -2.5502 -0.1953  1.1402
29531SOL     OW94555   8.075  11.790   3.725 -0.5072 -0.5104 -0.3782
29531SOL    HW194556   8.107  11.739   3.650  0.2229  0.8962 -1.0478
29531SOL    HW294557   8.132  11.866   3.729 -0.5828 -0.5132  1.5845
29532SOL     OW94558   7.070  10.773   2.138  0.1899  0.2847 -0.1088
29532SOL    HW194559   7.138  10.759   2.072  1.4333 -0.7360  1.3027
29532SOL    HW294560   7.082  10.701   2.200 -1.2699  0.9053  0.9554
29533SOL     OW94561   1.451   2.071   5.149 -0.7659  0.0712  0.2655
29533SOL    HW194562   1.488   2.029   5.071  1.5485 -0.1533  1.4197
29533SOL    HW294563   1.395   2.004   5.188 -3.6878  0.8437 -2.2154
29534SOL     OW94564   0.870   3.929   2.142  0.3227  0.4535 -0.9502
29534SOL    HW194565   0.830   3.994   2.085  3.6776  0.7755 -3.1996
29534SOL    HW294566   0.945   3.974   2.180  1.1145 -1.2963 -0.3349
29535SOL     OW94567   8.697  12.057   7.929  0.1309  0.7434 -0.2514
29535SOL    HW194568   8.745  12.062   8.011  0.7490  0.1593 -0.5649
29535SOL    HW294569   8.605  12.066   7.954  0.3991  2.1898  0.3189
29536SOL     OW94570   7.722   6.440  11.080 -0.2300 -0.3509 -0.0265
29536SOL    HW194571   7.668   6.517  11.102 -1.1184 -1.4123  1.7292
29536SOL    HW294572   7.745   6.403  11.165  1.8442 -0.9470 -0.7969
29537SOL     OW94573   8.538   1.119   7.822 -0.4127 -0.5834  0.3655
29537SOL    HW194574   8.535   1.051   7.755 -1.0723  0.5006 -0.7317
29537SOL    HW294575   8.581   1.194   7.779 -1.2026  0.2588  1.0108
29538SOL     OW94576   8.483   9.851   1.831  0.0886  0.2669  0.3267
29538SOL    HW194577   8.549   9.893   1.887  1.4192 -0.6890 -0.4722
29538SOL    HW294578   8.529   9.832   1.750 -1.6032  0.9324 -0.8472
29539SOL     OW94579  12.320   3.835   1.621 -0.4620 -0.0777  0.3515
29539SOL    HW194580  12.249   3.772   1.608  1.2594 -2.2106  0.5955
29539SOL    HW294581  12.280   3.907   1.669 -2.8059 -0.4054 -0.9469
29540SOL     OW94582   8.900   3.674  11.271 -0.0412  0.0032 -0.4786
29540SOL    HW194583   8.867   3.747  11.219  0.5625  1.2547  0.8249
29540SOL    HW294584   8.857   3.597  11.235 -4.4740  1.4519  1.0586
29541SOL     OW94585   5.139   6.490   9.355  0.3976 -0.2436  0.3252
29541SOL    HW194586   5.152   6.544   9.277 -1.6750  1.6557  1.1708
29541SOL    HW294587   5.117   6.404   9.322 -1.4501  0.7643 -1.2756
29542SOL     OW94588   2.300   6.835   9.262  0.3873  0.1064  0.3013
29542SOL    HW194589   2.235   6.780   9.219  0.5669  0.3027 -0.2287
29542SOL    HW294590   2.300   6.916   9.211 -0.3175  0.8447  1.4305
29543SOL     OW94591   8.402   4.981   5.047 -0.6115  0.2448 -0.0017
29543SOL    HW194592   8.350   4.923   5.102 -0.8956 -0.2439 -0.7718
29543SOL    HW294593   8.419   4.931   4.967  0.6379  0.5686  0.0283
29544SOL     OW94594   9.853   6.649   9.411 -0.4550  0.4140 -0.3310
29544SOL    HW194595   9.843   6.567   9.460 -1.4069 -0.1833 -1.4508
29544SOL    HW294596   9.907   6.704   9.466 -2.7698  0.3953  2.1734
29545SOL     OW94597   0.690   5.390   2.411  0.5753 -0.3652  0.4682
29545SOL    HW194598   0.753   5.450   2.372 -0.1439  0.5569  0.6791
29545SOL    HW294599   0.704   5.399   2.505 -0.6024  0.7100  0.5712
29546SOL     OW94600   7.522   0.645   8.534 -0.2265  0.2011  0.9028
29546SOL    HW194601   7.531   0.553   8.560  0.8718 -0.4774 -1.5661
29546SOL    HW294602   7.606   0.667   8.495 -1.3829  1.3685 -1.0795
29547SOL     OW94603   6.026  11.435  10.989  0.4849  0.1170 -0.2501
29547SOL    HW194604   6.002  11.506  11.048  0.9606 -1.0345  1.3839
29547SOL    HW294605   6.121  11.432  10.993  0.4201 -2.0264  1.5235
29548SOL     OW94606   4.457   0.052  11.499  0.2105 -0.2950  0.0755
29548SOL    HW194607   4.385   0.049  11.562 -0.6098  0.4508 -0.7870
29548SOL    HW294608   4.442  -0.023  11.442 -0.8547  0.7531 -1.0848
29549SOL     OW94609   9.473  12.215   6.610  0.2761  0.1855 -0.0523
29549SOL    HW194610   9.557  12.257   6.592  0.3884  0.4023  0.8923
29549SOL    HW294611   9.484  12.175   6.696 -0.1133 -1.0750 -0.5695
29550SOL     OW94612  10.917   2.822   0.448  0.3353  0.2177  0.2836
29550SOL    HW194613  10.877   2.817   0.361  0.7453  0.7528  0.0578
29550SOL    HW294614  10.897   2.738   0.489 -4.2009  1.6230  1.5766
29551SOL     OW94615   5.829   2.662   6.437  0.4255  0.5458 -0.2597
29551SOL    HW194616   5.784   2.647   6.353 -0.1224 -2.9103  0.5233
29551SOL    HW294617   5.916   2.624   6.425 -0.6030 -2.7024  1.4939
29552SOL     OW94618   6.289   0.381   0.981 -0.1246 -0.9128 -0.0302
29552SOL    HW194619   6.243   0.465   0.979 -1.2229 -1.4745  0.6022
29552SOL    HW294620   6.381   0.405   0.979 -0.3797  0.3776  1.3792
29553SOL     OW94621   5.860   2.394   3.573 -0.8445 -0.8986 -0.1468
29553SOL    HW194622   5.820   2.444   3.644 -0.5078 -0.3187 -0.3542
29553SOL    HW294623   5.947   2.370   3.606 -0.2655  0.2837 -0.7306
29554SOL     OW94624   4.083   4.296  10.579 -0.0613 -0.3158 -0.2738
29554SOL    HW194625   4.151   4.360  10.556  1.0146 -1.0366  0.7933
29554SOL    HW294626   4.043   4.331  10.658 -2.2822  1.0556 -1.8642
29555SOL     OW94627  11.519  10.250  11.923  0.6555 -0.1434  0.0364
29555SOL    HW194628  11.522  10.192  11.846 -0.9828 -0.5755  0.2443
29555SOL    HW294629  11.425  10.259  11.941  0.9517  1.4114  0.9076
29556SOL     OW94630   3.829   5.506  11.239  0.2380 -0.1807 -0.1943
29556SOL    HW194631   3.842   5.425  11.289 -1.9668 -0.6021 -0.1802
29556SOL    HW294632   3.810   5.572  11.306 -2.8699 -0.7771 -0.3502
29557SOL     OW94633   0.420  11.025   6.393  0.1021  0.3700 -0.4638
29557SOL    HW194634   0.468  11.083   6.452  0.9037 -0.7210  0.0019
29557SOL    HW294635   0.332  11.062   6.388  0.2166  0.8595  0.8700
29558SOL     OW94636   5.181   3.206   4.016  0.0996  0.0963  0.0525
29558SOL    HW194637   5.090   3.237   4.011 -0.3514 -1.1243  0.3467
29558SOL    HW294638   5.198   3.199   4.110 -0.0299 -1.1120  0.0016
29559SOL     OW94639   6.311   4.988  11.056  0.3306  0.0059  0.0455
29559SOL    HW194640   6.373   4.972  10.986 -1.0187  2.7446 -1.9440
29559SOL    HW294641   6.242   4.923  11.043  1.5447 -1.4838  0.7974
29560SOL     OW94642  10.340  10.423   3.681 -0.4475 -0.2216  0.1653
29560SOL    HW194643  10.264  10.480   3.675 -2.4664 -2.8593 -1.4921
29560SOL    HW294644  10.380  10.427   3.595 -0.6995 -1.3725 -0.0196
29561SOL     OW94645   1.551   1.372   1.637  0.2409 -0.1456 -0.3115
29561SOL    HW194646   1.492   1.397   1.707 -1.8553  1.0977 -2.3695
29561SOL    HW294647   1.596   1.453   1.612  0.4829 -0.4336 -0.8344
29562SOL     OW94648   9.481   0.562   8.417  0.0337  0.3912  0.0227
29562SOL    HW194649   9.389   0.582   8.429 -0.3644 -1.7208  0.9480
29562SOL    HW294650   9.526   0.646   8.425 -1.5491  1.1039  2.4972
29563SOL     OW94651  11.846   5.633   8.347 -0.4925  0.3180  0.0272
29563SOL    HW194652  11.801   5.705   8.390 -1.8348 -0.4341 -0.0766
29563SOL    HW294653  11.797   5.617   8.267 -0.0724 -0.5363 -0.0780
29564SOL     OW94654  12.362   5.639   7.996  0.0336 -0.1426 -0.5202
29564SOL    HW194655  12.425   5.567   7.991 -1.9501 -1.9007 -2.4786
29564SOL    HW294656  12.307   5.617   8.071  1.3369  1.1308  0.8811
29565SOL     OW94657  12.081   1.885   4.539  0.0596 -0.4326  0.2810
29565SOL    HW194658  12.135   1.807   4.527 -0.6558 -0.9198  0.1695
29565SOL    HW294659  12.029   1.866   4.617 -0.9453 -0.5628 -0.4037
29566SOL     OW94660   7.356   4.021   8.601  0.1547  0.3372 -0.1098
29566SOL    HW194661   7.291   3.966   8.644  2.2132 -0.7530  1.8164
29566SOL    HW294662   7.361   4.099   8.655  0.8876  0.1171  0.1561
29567SOL     OW94663   8.510  10.247   8.761 -0.1418 -0.6169 -0.7615
29567SOL    HW194664   8.539  10.171   8.711 -0.2017 -1.8751  1.0392
29567SOL    HW294665   8.502  10.215   8.851 -0.8439  1.3507 -0.0800
29568SOL     OW94666   5.541  10.347  12.279 -0.2971 -0.5137 -0.1718
29568SOL    HW194667   5.566  10.262  12.245  0.4231 -0.4986  0.2944
29568SOL    HW294668   5.593  10.358  12.359  0.9892  1.1175 -1.1634
29569SOL     OW94669   7.088   7.089  11.713 -0.0781 -0.1819  0.2130
29569SOL    HW194670   7.125   7.165  11.758  0.5113  0.1887 -0.8578
29569SOL    HW294671   7.012   7.065  11.766  1.7424 -1.0864  2.6102
29570SOL     OW94672   1.666   2.418   6.003 -0.4342 -0.0591 -0.2800
29570SOL    HW194673   1.746   2.468   5.988 -1.1358  1.7428  1.5364
29570SOL    HW294674   1.600   2.462   5.949 -0.7715  0.2154  0.3407
29571SOL     OW94675   8.029   8.437   8.598  0.1459 -0.3325  0.4499
29571SOL    HW194676   8.101   8.406   8.653  0.0462  0.9244  1.3348
29571SOL    HW294677   7.984   8.502   8.652 -2.2760 -1.7572  0.3197
29572SOL     OW94678   1.879   8.344   0.950 -0.4665 -0.2902 -0.4109
29572SOL    HW194679   1.933   8.404   0.897  0.9794 -0.1918  1.0792
29572SOL    HW294680   1.907   8.257   0.923  1.0920 -0.2437  0.9022
29573SOL     OW94681   0.030   1.610   2.771  0.3330  0.5234 -0.8869
29573SOL    HW194682   0.101   1.639   2.714  0.5031 -1.2507 -1.6361
29573SOL    HW294683   0.027   1.515   2.759  0.5965 -0.0024  2.3219
29574SOL     OW94684   7.429   2.255   8.717 -0.3221 -0.7176 -0.4254
29574SOL    HW194685   7.516   2.242   8.681 -0.5409 -1.8799 -0.5627
29574SOL    HW294686   7.430   2.209   8.802  0.5035  2.7906  1.6677
29575SOL     OW94687   0.511   5.885   8.063  0.1463 -0.0860  0.1933
29575SOL    HW194688   0.512   5.923   8.152 -1.1184 -0.4715  0.3873
29575SOL    HW294689   0.602   5.890   8.035  0.3879  1.0971  1.0704
29576SOL     OW94690   1.848   3.593   6.068  0.0953 -0.4020  0.0680
29576SOL    HW194691   1.911   3.525   6.045  1.4206  0.6525  0.4231
29576SOL    HW294692   1.801   3.611   5.986  2.0872  0.6100 -0.9362
29577SOL     OW94693  10.414   3.636   4.493  0.1764 -0.1289  0.4486
29577SOL    HW194694  10.458   3.720   4.477 -1.4614  0.5831 -0.6873
29577SOL    HW294695  10.466   3.594   4.561  0.4692  2.2693  1.8143
29578SOL     OW94696   1.878   3.785  10.465 -0.1000  0.1456 -0.2535
29578SOL    HW194697   1.810   3.740  10.416  0.5638 -1.6947  0.3917
29578SOL    HW294698   1.904   3.722  10.533  0.4391  1.7905  1.1504
29579SOL     OW94699   1.307   2.023   9.726  0.2281 -0.0284 -0.4929
29579SOL    HW194700   1.379   1.972   9.689  1.2236  0.7006  0.3738
29579SOL    HW294701   1.230   1.994   9.677  0.9410 -1.5138 -0.8162
29580SOL     OW94702   0.692   3.179  10.854 -0.5727  0.3369  0.1590
29580SOL    HW194703   0.604   3.193  10.820 -0.2372  1.2317 -0.3617
29580SOL    HW294704   0.746   3.245  10.811  0.0968  0.7258  1.5237
29581SOL     OW94705   4.469   9.769   2.868  0.4200  0.5772 -0.1831
29581SOL    HW194706   4.563   9.782   2.858  0.7371 -1.7175 -0.8470
29581SOL    HW294707   4.438   9.752   2.779 -0.1160 -1.2681  0.3099
29582SOL     OW94708  11.693   9.613   7.082 -0.5301  0.1458  0.3337
29582SOL    HW194709  11.669   9.603   7.174  0.2978 -0.4416  0.5006
29582SOL    HW294710  11.745   9.693   7.079  1.0034 -0.7904  0.7287
29583SOL     OW94711  11.544   8.013   0.167 -0.2725 -0.0942  0.1000
29583SOL    HW194712  11.594   7.991   0.088  0.6395  1.2353  0.2782
29583SOL    HW294713  11.453   8.016   0.137  0.1175  0.9845 -1.0508
29584SOL     OW94714   4.728   4.182   4.498 -0.1177 -0.1647  0.0053
29584SOL    HW194715   4.776   4.142   4.571 -1.3285  0.9404  1.4654
29584SOL    HW294716   4.795   4.229   4.449  0.4247  0.9610  1.7244
29585SOL     OW94717   6.449   2.061  11.213  0.6563  0.1586  0.2732
29585SOL    HW194718   6.446   1.976  11.170  1.3462  0.5693 -0.6242
29585SOL    HW294719   6.494   2.118  11.150 -1.8041  1.7590 -0.1947
29586SOL     OW94720   2.870   5.442   1.869  0.0827  0.3738  0.1872
29586SOL    HW194721   2.811   5.499   1.820  2.5113  1.6544 -1.4757
29586SOL    HW294722   2.904   5.497   1.939  0.1276  0.0097  0.4513
29587SOL     OW94723   6.913   4.373   4.185  0.1292 -0.0551  0.1949
29587SOL    HW194724   6.835   4.326   4.213  0.0750  0.2577  0.5833
29587SOL    HW294725   6.890   4.413   4.101  0.3533 -1.1604 -0.4083
29588SOL     OW94726  11.118   7.659   8.062 -0.2584  0.0918  0.3910
29588SOL    HW194727  11.034   7.704   8.068 -1.0963 -1.4930  0.9439
29588SOL    HW294728  11.097   7.570   8.035  1.0394 -0.8616  2.3017
29589SOL     OW94729  11.147   6.061  11.551  0.7243  0.1016  0.4164
29589SOL    HW194730  11.199   6.138  11.576  0.9813  0.2951 -0.6518
29589SOL    HW294731  11.197   5.987  11.585 -0.3362  0.4326  2.8822
29590SOL     OW94732   8.903   0.317   3.478 -0.3991 -0.0559 -0.5941
29590SOL    HW194733   8.910   0.390   3.539  1.2703  0.4491 -1.3339
29590SOL    HW294734   8.868   0.245   3.531 -0.8116  0.8991  0.4685
29591SOL     OW94735   9.838  12.314   8.706  0.1084  0.7038 -0.1961
29591SOL    HW194736   9.919  12.272   8.676  0.8324  2.5122 -0.9104
29591SOL    HW294737   9.857  12.408   8.701 -1.7530  1.1455  0.4627
29592SOL     OW94738  12.397   2.182  11.107 -0.1300  0.4274 -0.1687
29592SOL    HW194739  12.359   2.266  11.134 -2.1684 -0.0706 -1.2767
29592SOL    HW294740  12.342   2.117  11.151 -0.1301 -0.3351 -1.2717
29593SOL     OW94741   8.644   2.311   5.055 -0.1451  0.5788 -0.4574
29593SOL    HW194742   8.575   2.272   5.003  1.3428 -2.7160 -0.2284
29593SOL    HW294743   8.601   2.341   5.135 -1.4754 -0.2727 -0.8376
29594SOL     OW94744   5.122   0.814   9.647 -0.0348 -0.3737 -0.3761
29594SOL    HW194745   5.198   0.761   9.672 -0.3293 -0.7939 -0.3431
29594SOL    HW294746   5.155   0.903   9.640  0.1919 -0.3454  0.8795
29595SOL     OW94747   7.486   3.697   4.220  0.2881 -0.7683  0.0790
29595SOL    HW194748   7.411   3.637   4.223  0.4057 -0.9120  2.4440
29595SOL    HW294749   7.448   3.784   4.232  0.3690 -0.6647 -0.3960
29596SOL     OW94750   9.217  12.327   5.068 -0.1769 -0.0107  0.2359
29596SOL    HW194751   9.209  12.409   5.020 -0.7938 -0.0988  0.1903
29596SOL    HW294752   9.205  12.259   5.002  0.8850 -0.1560  0.1687
29597SOL     OW94753   7.168   8.317   2.002 -0.3973  0.3621 -0.1994
29597SOL    HW194754   7.162   8.313   2.098 -3.2533  0.5494 -0.2693
29597SOL    HW294755   7.164   8.411   1.982 -1.3695  0.2700 -0.5044
29598SOL     OW94756   2.155   5.488   4.712  0.3485 -0.1228 -0.1827
29598SOL    HW194757   2.079   5.445   4.672  0.6723  0.4694 -1.4840
29598SOL    HW294758   2.118   5.541   4.782 -0.3584 -0.4437 -0.3038
29599SOL     OW94759   2.373  10.853  12.360  0.0489  0.4300  0.4347
29599SOL    HW194760   2.431  10.778  12.358  0.9717  1.1366 -0.3347
29599SOL    HW294761   2.290  10.820  12.326 -0.4279 -0.8977  2.7060
29600SOL     OW94762  11.938   5.295   1.530 -0.3311  0.4653 -0.4371
29600SOL    HW194763  11.922   5.215   1.580  2.0506  1.1639  1.6696
29600SOL    HW294764  11.975   5.264   1.447 -0.2252 -0.6422 -0.0017
29601SOL     OW94765  10.609   0.249   4.196 -0.2814  0.3336  0.0496
29601SOL    HW194766  10.646   0.164   4.171  0.4279  0.0566  1.8820
29601SOL    HW294767  10.679   0.312   4.180  0.3239  0.0972  1.6169
29602SOL     OW94768   8.109   2.345  11.127  0.0287  0.9905 -0.8234
29602SOL    HW194769   8.095   2.408  11.198  1.7857 -0.5717  1.0164
29602SOL    HW294770   8.174   2.387  11.070  0.5809  1.1760 -0.0625
29603SOL     OW94771   2.764   6.657   0.045  0.0232  0.0035 -0.1529
29603SOL    HW194772   2.788   6.745   0.017  1.1128 -0.4754 -0.8202
29603SOL    HW294773   2.721   6.618  -0.031 -1.2513  0.2428  0.4351
29604SOL     OW94774  10.297   4.692   0.194  0.5036  0.2415  0.2603
29604SOL    HW194775  10.293   4.692   0.290 -0.3397 -0.2661  0.2340
29604SOL    HW294776  10.336   4.607   0.172 -0.7562 -0.3193  0.1182
29605SOL     OW94777   5.056   2.751   3.713  0.9373  0.8693  0.0551
29605SOL    HW194778   5.072   2.836   3.753 -0.0521  1.9011 -1.6488
29605SOL    HW294779   4.974   2.721   3.751  0.8043  1.1102 -0.0441
29606SOL     OW94780  10.957   2.718   2.203 -0.1843  0.5167 -0.5265
29606SOL    HW194781  10.865   2.734   2.182 -0.2236  1.6557  0.4616
29606SOL    HW294782  10.962   2.623   2.214 -1.5659  0.5553  0.8281
29607SOL     OW94783   6.403   5.126   1.409  0.5025  0.0056 -0.3836
29607SOL    HW194784   6.369   5.045   1.447 -0.1936  0.8880  0.9435
29607SOL    HW294785   6.339   5.149   1.341 -0.2077  0.3298  0.3883
29608SOL     OW94786  11.146   0.453   7.570 -0.5289  0.6186  0.1597
29608SOL    HW194787  11.097   0.512   7.628 -2.5430 -1.3995  0.6801
29608SOL    HW294788  11.079   0.413   7.514  0.6710 -1.3582  0.0367
29609SOL     OW94789   6.515   6.550   7.123  0.3312 -0.6426 -0.5744
29609SOL    HW194790   6.531   6.548   7.218  1.1158 -0.2642 -0.6902
29609SOL    HW294791   6.564   6.626   7.092 -0.8107 -0.1098 -1.1353
29610SOL     OW94792   5.865   7.376   4.181  0.4074  0.2587 -0.4368
29610SOL    HW194793   5.932   7.415   4.237  0.0632  0.7121 -0.3337
29610SOL    HW294794   5.882   7.414   4.094 -0.4528  1.3311 -0.1633
29611SOL     OW94795   3.117   9.350   7.210  0.0688 -0.0386 -0.7025
29611SOL    HW194796   3.138   9.290   7.282  1.1624  0.2911 -0.7221
29611SOL    HW294797   3.178   9.326   7.140  0.9988  1.4993 -0.4727
29612SOL     OW94798   6.054   2.445  10.602  0.2839  0.3099 -0.0395
29612SOL    HW194799   6.005   2.486  10.674  1.3127  0.1830  0.7587
29612SOL    HW294800   6.028   2.353  10.604 -0.7422  0.5679 -0.7419
29613SOL     OW94801   9.945   0.689  10.888  0.3466  0.0578 -0.5645
29613SOL    HW194802   9.942   0.678  10.983  2.1213 -1.4774 -0.6334
29613SOL    HW294803  10.004   0.620  10.857 -0.4195  0.3295 -2.8278
29614SOL     OW94804   4.047   3.025   1.116 -0.1820 -0.2704  0.1550
29614SOL    HW194805   4.135   3.031   1.153  1.0658  3.3792 -2.7950
29614SOL    HW294806   4.058   2.973   1.037 -0.9586 -0.7588  0.3607
29615SOL     OW94807   5.524   0.150   0.921 -0.0340 -0.0637  0.0690
29615SOL    HW194808   5.565   0.076   0.966  0.2884 -0.8717 -1.4997
29615SOL    HW294809   5.492   0.206   0.992  1.7337 -0.5527  1.3276
29616SOL     OW94810  12.335  12.352   6.014 -0.2409 -0.1846 -0.0815
29616SOL    HW194811  12.293  12.417   5.957 -0.7363 -0.4067  0.0344
29616SOL    HW294812  12.418  12.394   6.039 -0.5875  0.4375  0.0514
29617SOL     OW94813   7.660   4.914   6.885  0.0993  0.0034 -0.5716
29617SOL    HW194814   7.610   4.912   6.804  0.0449 -0.1978 -0.5333
29617SOL    HW294815   7.684   5.006   6.896  0.3462 -0.0115 -0.9623
29618SOL     OW94816   9.928   4.516   1.008 -0.3417 -0.0041 -0.0194
29618SOL    HW194817   9.926   4.549   1.097 -0.4096 -0.2593  0.0736
29618SOL    HW294818   9.929   4.594   0.953  0.7743  0.1672  0.2259
29619SOL     OW94819   2.633   1.716   9.837  0.6310  0.4845  0.1668
29619SOL    HW194820   2.627   1.631   9.793  0.8232  1.0150 -0.9186
29619SOL    HW294821   2.573   1.709   9.911 -0.8602  0.0539 -1.0242
29620SOL     OW94822   2.625   1.127   2.891  0.3468 -0.4265  0.0263
29620SOL    HW194823   2.659   1.073   2.963  0.1574 -0.6925 -0.0826
29620SOL    HW294824   2.556   1.073   2.852 -0.6689  0.3628  0.6661
29621SOL     OW94825   8.934   8.395   9.445 -0.4279  0.3025 -0.4589
29621SOL    HW194826   8.945   8.440   9.529 -0.8448 -0.7908  0.2099
29621SOL    HW294827   9.022   8.377   9.415 -0.2723  0.0273  0.1378
29622SOL     OW94828   4.089   3.830  11.298  0.5158  0.4636 -0.4103
29622SOL    HW194829   4.051   3.776  11.367  0.8635  1.6357  0.7279
29622SOL    HW294830   4.183   3.812  11.302  0.5220  0.4406 -0.6539
29623SOL     OW94831   2.773   6.594  10.335  0.1058 -0.1867 -0.2452
29623SOL    HW194832   2.813   6.658  10.393 -0.7652  1.1807 -1.1135
29623SOL    HW294833   2.707   6.551  10.390  2.2017 -2.0494  1.0190
29624SOL     OW94834   2.862   0.268   2.239 -0.0953  0.0353  0.3240
29624SOL    HW194835   2.824   0.181   2.236 -0.0838  0.0033  1.0311
29624SOL    HW294836   2.796   0.322   2.281  0.3268  0.1373  0.8680
29625SOL     OW94837   9.397   4.912   2.185  0.0478 -0.1572  0.1892
29625SOL    HW194838   9.361   4.832   2.223  0.5283 -0.4284  0.0808
29625SOL    HW294839   9.386   4.901   2.090  1.3607 -0.7265  0.0739
29626SOL     OW94840   5.836   2.693   3.258  0.3125  0.0270  0.9660
29626SOL    HW194841   5.820   2.605   3.292  1.5912 -0.1265  1.2396
29626SOL    HW294842   5.848   2.680   3.164 -0.6642  0.0915  0.8185
29627SOL     OW94843   4.552   8.250   6.703 -0.0662  0.0965 -0.4812
29627SOL    HW194844   4.551   8.267   6.797 -0.2525 -1.7688 -0.1104
29627SOL    HW294845   4.628   8.298   6.670  1.7199 -1.4943  1.1197
29628SOL     OW94846  10.391   8.631   6.513 -0.3756 -0.1842 -0.1129
29628SOL    HW194847  10.325   8.631   6.444 -0.3891 -1.6768 -0.1420
29628SOL    HW294848  10.359   8.695   6.577 -1.1915  0.0375 -0.7297
29629SOL     OW94849   1.608   5.247   5.042  0.0026 -0.1289 -0.2173
29629SOL    HW194850   1.697   5.237   5.075  0.2743 -1.0124 -1.1618
29629SOL    HW294851   1.596   5.341   5.035  0.5671  0.0248  0.6813
29630SOL     OW94852  11.837   9.968   2.763 -0.2854 -0.1028 -0.3627
29630SOL    HW194853  11.760  10.025   2.764  1.7755  2.8921 -0.1347
29630SOL    HW294854  11.869   9.971   2.853  1.5338  0.8437 -1.0105
29631SOL     OW94855   3.951   5.318   3.478  0.4090 -0.5185 -0.0285
29631SOL    HW194856   3.902   5.261   3.418 -0.7509 -0.4257  0.7973
29631SOL    HW294857   3.915   5.405   3.463  1.1004 -0.2495 -0.1792
29632SOL     OW94858  12.332   7.794   3.147 -0.0093 -0.0314 -0.8175
29632SOL    HW194859  12.284   7.827   3.223  2.2303  1.5949 -0.0071
29632SOL    HW294860  12.378   7.871   3.112  2.3710 -1.5571 -1.2328
29633SOL     OW94861   7.204   8.658   0.766  0.2011  0.0342 -0.4097
29633SOL    HW194862   7.228   8.570   0.735 -1.3048  0.0934 -1.8715
29633SOL    HW294863   7.247   8.665   0.851  1.1377 -1.7520 -0.6716
29634SOL     OW94864   6.748   1.258   9.270  0.3207  0.6337  0.7153
29634SOL    HW194865   6.745   1.233   9.363  2.0142 -1.5737  0.2589
29634SOL    HW294866   6.659   1.288   9.251 -1.0844 -2.1897  2.2160
29635SOL     OW94867   4.648   9.729   8.367  0.0618 -0.0944 -0.0874
29635SOL    HW194868   4.621   9.775   8.287 -2.6449  0.0066  0.7563
29635SOL    HW294869   4.701   9.793   8.414 -0.7814  0.9566 -0.5056
29636SOL     OW94870  10.905   3.732   2.673 -0.0215  0.0792  0.3047
29636SOL    HW194871  10.951   3.797   2.620 -1.6872 -0.0528 -1.3753
29636SOL    HW294872  10.883   3.662   2.612 -2.2804  0.0643  1.0446
29637SOL     OW94873   8.238   3.903   0.605 -0.2241 -0.4856 -0.0896
29637SOL    HW194874   8.216   3.863   0.521 -0.5220  0.1120 -0.3041
29637SOL    HW294875   8.169   3.969   0.618  0.6155  0.4082 -0.0624
29638SOL     OW94876  11.376   8.113  11.864  0.1199 -0.0678  0.2998
29638SOL    HW194877  11.287   8.116  11.897 -0.0785 -1.5588 -0.0171
29638SOL    HW294878  11.366   8.098  11.770  0.6898 -1.2140  0.4046
29639SOL     OW94879   5.285   0.145   1.986  0.6952  0.2261 -0.2181
29639SOL    HW194880   5.205   0.093   1.996  0.1280  1.0664 -0.2669
29639SOL    HW294881   5.311   0.167   2.075 -0.7753  2.3755 -0.2720
29640SOL     OW94882   5.925   3.486   0.683  0.2978 -0.2416 -0.5794
29640SOL    HW194883   5.988   3.482   0.611 -1.6097  0.7376 -2.4192
29640SOL    HW294884   5.976   3.465   0.761  2.8860  0.5374 -1.9496
29641SOL     OW94885   0.971   7.932  11.213 -0.0785 -0.2118  0.4487
29641SOL    HW194886   1.019   7.888  11.143 -1.0698 -0.9223  0.2057
29641SOL    HW294887   0.969   8.024  11.185  1.8280  0.0067  0.8669
29642SOL     OW94888  10.214  11.720   3.786  0.5851 -0.0975  0.0103
29642SOL    HW194889  10.146  11.747   3.724  2.0965  1.4457 -1.0674
29642SOL    HW294890  10.173  11.727   3.872 -0.3763  1.6395 -0.5477
29643SOL     OW94891   2.532   9.488   9.451  0.2171  0.2916 -0.4025
29643SOL    HW194892   2.454   9.456   9.405  0.6196 -0.3209 -0.6564
29643SOL    HW294893   2.526   9.584   9.442 -0.6731  0.2764 -0.1390
29644SOL     OW94894   8.385  10.971   0.809 -0.4755 -0.1502  0.3027
29644SOL    HW194895   8.403  11.064   0.795  0.4154 -0.2522  0.7143
29644SOL    HW294896   8.371  10.935   0.722 -2.4588  0.6668  0.2135
29645SOL     OW94897   9.060   2.314   8.365 -0.4090 -0.3035  0.7768
29645SOL    HW194898   9.051   2.238   8.423 -0.7280  0.6516  2.0302
29645SOL    HW294899   9.129   2.367   8.405  1.4502 -0.9966 -1.3334
29646SOL     OW94900   3.796  11.158   1.211  0.3651 -0.9505 -0.3238
29646SOL    HW194901   3.779  11.185   1.301  1.2570 -2.2300  0.2556
29646SOL    HW294902   3.853  11.227   1.176  0.9351 -1.0069  0.4627
29647SOL     OW94903   3.913   3.421  11.669 -0.1509 -0.2690 -0.6757
29647SOL    HW194904   3.849   3.407  11.740 -0.4757  1.5574 -0.5612
29647SOL    HW294905   3.864   3.402  11.589 -0.3441 -0.4934 -0.5059
29648SOL     OW94906   4.663   9.947   1.412  0.1768 -0.1451  0.3131
29648SOL    HW194907   4.708   9.883   1.357  0.1618  0.7992 -0.8481
29648SOL    HW294908   4.729   9.975   1.475  0.5011 -0.5160  0.1456
29649SOL     OW94909   4.836   4.776  11.500 -0.6291 -0.4994 -0.2493
29649SOL    HW194910   4.906   4.827  11.458 -1.9363  1.2121 -0.4527
29649SOL    HW294911   4.879   4.732  11.573  0.6881  0.4233 -0.4287
29650SOL     OW94912   6.000  10.757   6.226  0.2284  0.2772  0.0007
29650SOL    HW194913   5.977  10.689   6.290  0.7032 -0.6993 -0.8252
29650SOL    HW294914   6.058  10.816   6.273  2.3132 -1.6017 -0.0564
29651SOL     OW94915   4.664   8.311   2.060  0.5404  0.2980  0.1020
29651SOL    HW194916   4.709   8.297   1.976 -0.1295 -0.2970 -0.1666
29651SOL    HW294917   4.578   8.272   2.048  0.7372 -0.5979  1.3670
29652SOL     OW94918  12.035  11.098   9.427  0.0206 -0.0426  0.1351
29652SOL    HW194919  12.025  11.005   9.447  1.7671 -0.4996 -0.8906
29652SOL    HW294920  12.123  11.120   9.459  0.9366  0.4035 -2.4624
29653SOL     OW94921   9.846  10.171   8.329 -0.3571 -1.2378  0.5988
29653SOL    HW194922   9.760  10.146   8.363 -0.5946 -0.7057  0.4029
29653SOL    HW294923   9.831  10.256   8.287  0.1037 -1.4825 -0.0860
29654SOL     OW94924   7.440   1.506   4.930 -0.3628 -0.0746 -0.0676
29654SOL    HW194925   7.381   1.546   4.867 -0.4103 -0.2922 -0.1644
29654SOL    HW294926   7.383   1.470   4.998 -0.4958 -1.7986 -1.0117
29655SOL     OW94927   8.541   1.089   7.339  0.1439 -0.2838  0.0222
29655SOL    HW194928   8.553   1.135   7.256 -1.8914 -0.3388 -0.3782
29655SOL    HW294929   8.475   1.141   7.385 -0.6117 -1.6094  0.4863
29656SOL     OW94930   5.199   6.903  10.811  0.0012 -0.2107  0.1515
29656SOL    HW194931   5.214   6.896  10.716  0.4994 -0.6681  0.2638
29656SOL    HW294932   5.143   6.981  10.820 -0.1721 -0.2472 -0.5299
29657SOL     OW94933   6.012   2.774   0.993 -0.0377  0.4158 -0.4348
29657SOL    HW194934   6.009   2.850   0.935 -0.6211  0.3245 -0.5375
29657SOL    HW294935   5.944   2.791   1.058  1.6761  1.2642  1.1985
29658SOL     OW94936  11.247   5.467  11.874 -0.1235 -0.6050  0.7687
29658SOL    HW194937  11.209   5.423  11.950  0.9131 -0.4354  1.3970
29658SOL    HW294938  11.316   5.522  11.910  1.7301 -2.0142 -0.4555
29659SOL     OW94939   0.314   9.191   7.045 -0.3335  0.0800 -0.2081
29659SOL    HW194940   0.365   9.243   7.107 -0.0281  0.6807 -0.9445
29659SOL    HW294941   0.242   9.249   7.019  0.0447  0.1704 -1.0864
29660SOL     OW94942  10.063  11.939   3.374 -0.8876  0.3331  0.4437
29660SOL    HW194943  10.098  11.853   3.399 -3.6697 -0.4541  2.0876
29660SOL    HW294944  10.047  11.932   3.280  0.6054 -0.2576  0.2041
29661SOL     OW94945   5.445   9.489   8.903  0.1602 -0.4025 -0.7725
29661SOL    HW194946   5.385   9.482   8.829  0.9953 -0.9340 -1.4120
29661SOL    HW294947   5.519   9.432   8.880  1.0628  0.4820 -0.1477
29662SOL     OW94948   6.994   4.499   0.765 -0.2830  0.0846  0.2126
29662SOL    HW194949   7.061   4.456   0.712 -0.6066 -0.1585 -0.0042
29662SOL    HW294950   7.002   4.592   0.743 -1.1509 -0.1301 -1.1213
29663SOL     OW94951   3.512  10.122  11.999 -0.0588  0.3117  0.1423
29663SOL    HW194952   3.426  10.155  11.972 -1.0879 -1.2434  1.3633
29663SOL    HW294953   3.560  10.111  11.916 -1.0749  1.0274 -0.5712
29664SOL     OW94954  11.525   2.029  10.091 -0.5384  0.2532 -0.1780
29664SOL    HW194955  11.592   2.093  10.067 -0.9534  0.1077 -1.8815
29664SOL    HW294956  11.560   1.985  10.168  0.2493  1.7661  0.3868
29665SOL     OW94957   0.212   4.975  10.982  0.6802 -0.4184 -0.1967
29665SOL    HW194958   0.198   4.958  10.889 -1.7571 -1.9512  0.3674
29665SOL    HW294959   0.267   4.903  11.012 -0.6568 -1.3834  0.0171
29666SOL     OW94960   7.750   6.490   8.952  0.5397  0.2036  0.0445
29666SOL    HW194961   7.813   6.450   9.012 -0.9928  0.2356  1.7717
29666SOL    HW294962   7.770   6.451   8.867  0.9329 -2.1279  1.1164
29667SOL     OW94963   2.125  11.839   3.430  0.5864  0.5587  0.2368
29667SOL    HW194964   2.141  11.920   3.381 -0.7636  0.6709 -0.0648
29667SOL    HW294965   2.185  11.775   3.392 -0.9009  0.4350 -2.1219
29668SOL     OW94966   2.775   3.537   6.533 -0.1022  0.4309  0.2180
29668SOL    HW194967   2.848   3.579   6.579  0.2407 -0.1822  0.2424
29668SOL    HW294968   2.735   3.479   6.598 -0.3167  0.4052  0.0665
29669SOL     OW94969   5.145   6.605   1.215 -0.2156  0.6743 -0.7193
29669SOL    HW194970   5.184   6.580   1.299 -0.9569 -3.1365 -1.3109
29669SOL    HW294971   5.218   6.639   1.164  1.0450 -0.3423  0.3095
29670SOL     OW94972   1.903   8.765   2.896  0.8867  0.0031 -0.5829
29670SOL    HW194973   1.830   8.759   2.958 -0.3767 -0.4972 -2.0711
29670SOL    HW294974   1.940   8.677   2.894  1.5640  0.2623  0.1874
29671SOL     OW94975   0.651  11.162   0.693  0.2568 -0.1596  0.0737
29671SOL    HW194976   0.646  11.162   0.598 -0.5702 -0.0911  0.1098
29671SOL    HW294977   0.710  11.234   0.715 -0.0760  0.2432 -0.3598
29672SOL     OW94978   8.730   8.091   4.700 -0.3200  0.0299  0.0708
29672SOL    HW194979   8.818   8.109   4.666 -0.9680  1.3757 -0.9768
29672SOL    HW294980   8.745   8.063   4.790  1.1988  0.0501 -0.1480
29673SOL     OW94981   2.580   3.994   6.454  0.1857  0.1065 -0.2419
29673SOL    HW194982   2.542   4.081   6.444  0.2160  0.0956 -0.4484
29673SOL    HW294983   2.531   3.939   6.393  1.6316  0.4263 -1.7731
29674SOL     OW94984   1.080  11.069  11.123  0.6036  0.1255 -0.0386
29674SOL    HW194985   1.012  11.050  11.188 -0.0245 -0.4836 -0.8520
29674SOL    HW294986   1.032  11.109  11.050  1.0739 -0.5831 -0.7426
29675SOL     OW94987   5.868   7.485  10.347  0.0935 -0.2821 -0.2537
29675SOL    HW194988   5.799   7.486  10.281  0.8197  2.2348 -1.1063
29675SOL    HW294989   5.942   7.441  10.305  0.0465 -0.0669 -0.5678
29676SOL     OW94990  11.661   8.888   8.649  0.0764 -0.5978  0.4427
29676SOL    HW194991  11.579   8.856   8.687 -0.5363  0.5783  0.1600
29676SOL    HW294992  11.712   8.809   8.631 -0.4492 -1.2750  1.8221
29677SOL     OW94993  10.177  12.023   2.993  0.1978  0.0255 -0.6387
29677SOL    HW194994  10.166  11.985   2.906 -0.5788  0.3145 -0.6657
29677SOL    HW294995  10.149  11.954   3.053 -1.4084  0.5990 -0.6937
29678SOL     OW94996   8.944   6.471   3.433  0.0483  0.5995  0.2744
29678SOL    HW194997   8.982   6.548   3.477  0.8944  0.3835 -0.0541
29678SOL    HW294998   9.013   6.441   3.375 -0.2310 -0.4857  0.4824
29679SOL     OW94999   2.889   7.893   2.483 -0.9205 -0.0587  0.4878
29679SOL    HW195000   2.812   7.925   2.437 -0.6972 -0.5974 -0.2980
29679SOL    HW295001   2.859   7.876   2.572 -1.4267  0.7808  0.4896
29680SOL     OW95002  10.164   0.928   1.174 -0.4804 -0.2704 -0.4544
29680SOL    HW195003  10.081   0.970   1.196 -0.8735 -1.7859  1.1932
29680SOL    HW295004  10.138   0.851   1.122 -0.1987 -1.0511  0.5202
29681SOL     OW95005   5.922  10.352   2.553  0.5433  0.1171  0.4901
29681SOL    HW195006   5.898  10.363   2.462 -1.1974 -0.9165  0.7864
29681SOL    HW295007   5.956  10.438   2.580  0.1551  0.7082 -0.8478
29682SOL     OW95008   0.635   6.638   0.274 -0.0259  0.0107  0.2929
29682SOL    HW195009   0.580   6.625   0.351 -0.2047 -0.4024  0.0955
29682SOL    HW295010   0.641   6.552   0.233  0.1161  0.2148 -0.1251
29683SOL     OW95011   5.558  10.528   4.289 -0.4898 -0.2958 -0.2133
29683SOL    HW195012   5.549  10.608   4.238  0.3275 -1.0024 -1.5171
29683SOL    HW295013   5.644  10.534   4.330 -1.2391  0.3853  1.3690
29684SOL     OW95014  11.442   1.922  10.761 -0.0110  0.5763  0.4638
29684SOL    HW195015  11.386   1.853  10.795 -0.5097  0.4039 -0.6991
29684SOL    HW295016  11.525   1.878  10.741 -0.2421  0.3625 -0.0301
29685SOL     OW95017  11.277  10.617   3.166 -0.7990 -0.2631 -0.1234
29685SOL    HW195018  11.230  10.538   3.142 -0.1997 -0.1604 -1.7594
29685SOL    HW295019  11.226  10.655   3.237 -2.5903 -0.7069 -1.1079
29686SOL     OW95020   8.066  12.248   1.046  0.0553  0.0317 -0.1736
29686SOL    HW195021   8.106  12.288   0.969 -0.0658  1.2264  0.3736
29686SOL    HW295022   8.128  12.264   1.117 -0.7906  0.7776  0.4154
29687SOL     OW95023  10.831   1.495   1.287 -0.5309  0.3197  0.0047
29687SOL    HW195024  10.749   1.542   1.272 -1.6928 -1.3011  1.0441
29687SOL    HW295025  10.840   1.436   1.212  0.4725  1.4984 -0.8460
29688SOL     OW95026  12.210   4.944   0.915 -0.1637 -0.1862 -0.1824
29688SOL    HW195027  12.229   4.884   0.987 -0.2016 -0.9019 -0.7547
29688SOL    HW295028  12.208   4.888   0.837  3.1796  1.0188 -1.2693
29689SOL     OW95029   4.709   9.833   3.569  0.0907  0.1434 -1.0542
29689SOL    HW195030   4.712   9.882   3.487 -2.2792 -0.8931 -1.8629
29689SOL    HW295031   4.676   9.895   3.633  1.4186  0.8049 -0.9889
29690SOL     OW95032   4.874  11.476   8.992  0.1919  0.3638 -0.2942
29690SOL    HW195033   4.847  11.400   9.043 -0.9499 -1.0289 -2.7589
29690SOL    HW295034   4.800  11.536   8.997 -0.1124  0.0252 -0.6638
29691SOL     OW95035   8.785   6.167   3.399  0.1399 -0.1607  0.1066
29691SOL    HW195036   8.757   6.232   3.464 -2.2381 -0.6373 -0.3356
29691SOL    HW295037   8.779   6.083   3.444 -0.1299 -0.3602 -0.2869
29692SOL     OW95038   0.646   9.121   4.396  0.1180 -0.2075 -0.4756
29692SOL    HW195039   0.606   9.055   4.453  0.7402 -1.2365 -1.2034
29692SOL    HW295040   0.644   9.201   4.448 -2.2649 -0.3562 -0.2150
29693SOL     OW95041  10.667  12.262   1.068  0.3331  0.4892  0.1525
29693SOL    HW195042  10.635  12.187   1.119  0.2308  1.4460  1.5633
29693SOL    HW295043  10.672  12.333   1.132  0.6818  1.6207 -1.0993
29694SOL     OW95044   2.128  12.210   2.851  0.4868  0.0685 -0.0057
29694SOL    HW195045   2.062  12.191   2.785  0.8585  1.1070 -0.6929
29694SOL    HW295046   2.210  12.177   2.814  0.8365  1.3896 -0.4418
29695SOL     OW95047   4.873   3.644  10.426  0.3086 -0.5690 -1.2171
29695SOL    HW195048   4.958   3.609  10.400  0.3294 -2.0701  0.6973
29695SOL    HW295049   4.833   3.575  10.478 -1.2977  0.8271 -0.4976
29696SOL     OW95050   2.002  10.146   5.603 -0.0519 -0.1291 -0.0417
29696SOL    HW195051   1.913  10.113   5.597  0.7925 -2.4290 -0.8196
29696SOL    HW295052   2.033  10.115   5.689  0.2876 -0.1214 -0.1602
29697SOL     OW95053   8.633   3.607   1.895  0.5252 -0.5814  0.0817
29697SOL    HW195054   8.615   3.680   1.836 -2.4585 -1.6475 -0.5126
29697SOL    HW295055   8.702   3.557   1.852  1.0430  0.6522 -0.5781
29698SOL     OW95056   1.379   5.685   1.832 -0.5017  0.4461 -0.1809
29698SOL    HW195057   1.333   5.603   1.813  0.1763  0.4803 -2.1720
29698SOL    HW295058   1.413   5.714   1.747  1.6746  1.3514  0.9259
29699SOL     OW95059  11.542  12.175   7.054 -0.3654 -0.5431 -0.8055
29699SOL    HW195060  11.554  12.089   7.095  0.0656  0.5845  1.6760
29699SOL    HW295061  11.469  12.164   6.994 -2.0253 -2.1043  1.3250
29700SOL     OW95062   3.327   5.294   1.321  0.4468  0.3467  0.5121
29700SOL    HW195063   3.388   5.351   1.369  0.5025  2.0016 -1.4113
29700SOL    HW295064   3.262   5.353   1.284 -1.1079 -1.1667  0.6921
29701SOL     OW95065   2.241   8.517   3.748  0.2368 -0.3607  0.3984
29701SOL    HW195066   2.279   8.529   3.661 -0.4042  0.0791  0.1736
29701SOL    HW295067   2.166   8.577   3.750  0.1477 -0.4883  1.1927
29702SOL     OW95068   1.491   9.537   6.130  0.2136 -0.1459  0.1909
29702SOL    HW195069   1.412   9.496   6.165 -0.9896  1.7676 -0.1046
29702SOL    HW295070   1.510   9.609   6.190  0.2237  0.9668 -1.0915
29703SOL     OW95071  11.437  12.404   6.115  0.0333 -0.1624 -0.0802
29703SOL    HW195072  11.368  12.342   6.136  0.7544 -0.7169  0.7283
29703SOL    HW295073  11.392  12.478   6.074 -1.3095  0.4471  2.3093
29704SOL     OW95074   7.400   2.151   7.594  0.3997  0.5999  0.2660
29704SOL    HW195075   7.493   2.172   7.597  0.4455  0.6287 -0.8942
29704SOL    HW295076   7.397   2.059   7.566  0.0773  0.8469 -0.5473
29705SOL     OW95077  11.776   6.419   0.189  0.2143  0.3005  0.4003
29705SOL    HW195078  11.828   6.470   0.250  0.9199  1.0795 -0.8101
29705SOL    HW295079  11.728   6.484   0.137 -1.1739 -0.3716  0.7762
29706SOL     OW95080   4.610   8.304  10.723  0.1404 -0.0222 -0.6288
29706SOL    HW195081   4.675   8.267  10.783  0.4330  1.0375 -0.2793
29706SOL    HW295082   4.526   8.289  10.765  0.1742 -1.0558 -0.8990
29707SOL     OW95083   2.517   9.880  10.434 -0.0803  0.6702  0.0805
29707SOL    HW195084   2.434   9.928  10.426  0.5419  1.6617 -0.6261
29707SOL    HW295085   2.557   9.915  10.514  0.2350  1.1201 -0.2708
29708SOL     OW95086   5.291  12.206   4.344 -0.0973 -0.2310  0.3398
29708SOL    HW195087   5.238  12.214   4.423 -0.0555  2.4586  0.1698
29708SOL    HW295088   5.378  12.184   4.376 -0.5057 -1.2015  0.8506
29709SOL     OW95089   5.297   3.613   8.291 -0.0418  0.3336 -0.3963
29709SOL    HW195090   5.270   3.544   8.231  2.0035 -0.3679 -0.5797
29709SOL    HW295091   5.299   3.571   8.377 -0.2969  0.5956 -0.2600
29710SOL     OW95092   4.125   0.716   7.300 -0.2034 -0.0857 -0.2593
29710SOL    HW195093   4.042   0.751   7.331 -0.4011 -1.4162  0.8017
29710SOL    HW295094   4.175   0.793   7.274 -0.5046  1.0497  2.2734
29711SOL     OW95095   4.193   3.877   6.567  0.0354  0.9439  0.0209
29711SOL    HW195096   4.283   3.909   6.567 -0.0981  1.3220 -0.3607
29711SOL    HW295097   4.189   3.818   6.492  1.2423 -2.7613  2.5779
29712SOL     OW95098   9.285   0.531  11.764 -0.1698 -0.1913  0.1949
29712SOL    HW195099   9.279   0.626  11.776 -2.0793 -0.0843 -1.2139
29712SOL    HW295100   9.331   0.520  11.681 -1.3655 -0.4325 -0.4472
29713SOL     OW95101   7.815   2.987   3.708  0.1579  0.2644 -0.0109
29713SOL    HW195102   7.896   2.962   3.753 -0.4176 -4.2187 -1.0118
29713SOL    HW295103   7.846   3.038   3.632  1.6767  1.5393  1.3720
29714SOL     OW95104   5.102   1.529  10.918 -0.3730  0.3180 -0.0829
29714SOL    HW195105   5.089   1.434  10.919  0.6986  0.1481  1.7062
29714SOL    HW295106   5.024   1.564  10.961 -0.8174  0.2829 -0.8343
29715SOL     OW95107   0.448   5.968   9.818 -0.2093 -0.7276 -0.0175
29715SOL    HW195108   0.458   6.040   9.880 -1.7001 -0.1112 -0.4467
29715SOL    HW295109   0.484   5.892   9.863  0.9654  0.1844  0.6243
29716SOL     OW95110   8.217   8.568   1.272 -0.0429  0.3320 -0.4316
29716SOL    HW195111   8.290   8.582   1.212  0.9994  0.0209  0.7260
29716SOL    HW295112   8.255   8.580   1.359 -1.4800  0.5969  0.1763
29717SOL     OW95113  10.699   7.008   4.080  0.1092  0.3506  0.0947
29717SOL    HW195114  10.666   7.070   4.015  1.3420 -0.8676 -1.8308
29717SOL    HW295115  10.763   7.057   4.131 -0.4307  1.1830 -0.0172
29718SOL     OW95116   4.208  11.557   5.808 -0.1668 -0.0578 -0.6462
29718SOL    HW195117   4.170  11.625   5.864  1.2796  0.8805 -0.7414
29718SOL    HW295118   4.149  11.551   5.733 -0.1801  1.3027 -0.7679
29719SOL     OW95119   1.899   2.321   1.514 -0.6107 -0.3649 -0.1232
29719SOL    HW195120   1.918   2.372   1.593  1.5377  2.7632 -2.4368
29719SOL    HW295121   1.808   2.341   1.494 -0.8829 -0.4203  0.9910
29720SOL     OW95122  11.763  10.898   1.913 -0.3563 -0.4198 -0.8692
29720SOL    HW195123  11.790  10.810   1.936 -1.3359 -0.7933 -1.0960
29720SOL    HW295124  11.676  10.908   1.951 -0.5900  0.1583 -1.5192
29721SOL     OW95125  10.183   8.801   9.277  0.1568  0.1794 -0.4107
29721SOL    HW195126  10.138   8.884   9.292 -0.0447  0.0479 -0.2747
29721SOL    HW295127  10.239   8.790   9.354 -0.4387 -0.2129 -0.0224
29722SOL     OW95128   1.310   2.320   2.330  0.6328 -0.3049  0.8407
29722SOL    HW195129   1.294   2.347   2.240  1.1869  1.3701  1.1932
29722SOL    HW295130   1.366   2.243   2.324 -0.0020 -0.6978 -0.2391
29723SOL     OW95131   2.972  10.995   8.950 -0.0699 -0.1316  0.2463
29723SOL    HW195132   3.018  10.995   8.866  0.1577  0.0283  0.3701
29723SOL    HW295133   2.882  10.971   8.928 -1.2905  4.3098 -0.7705
29724SOL     OW95134  10.277   7.750   7.641 -0.0482  0.1859  0.4426
29724SOL    HW195135  10.350   7.723   7.696 -1.1226 -2.1931  0.8530
29724SOL    HW295136  10.304   7.726   7.552  0.3268  0.9018  0.3541
29725SOL     OW95137   7.491  12.111  10.156 -0.6513  0.6296 -0.5072
29725SOL    HW195138   7.403  12.132  10.126 -1.2974 -1.2116 -0.0465
29725SOL    HW295139   7.484  12.105  10.251  0.2479  1.5593 -0.3608
29726SOL     OW95140   0.702  10.691   3.167  0.0720  0.3196 -0.1967
29726SOL    HW195141   0.629  10.703   3.228  1.4631  0.2460  1.5550
29726SOL    HW295142   0.735  10.779   3.151  1.0874  0.1787  0.9682
29727SOL     OW95143   7.506   2.627   7.094  0.6930 -0.0764 -0.1383
29727SOL    HW195144   7.582   2.603   7.042 -0.5166 -0.4852 -1.7999
29727SOL    HW295145   7.446   2.553   7.086 -1.0049  1.3253 -1.1798
29728SOL     OW95146   0.459   2.301   5.245  0.1223  0.2536  0.1939
29728SOL    HW195147   0.364   2.287   5.248 -0.2997  2.0240 -2.1405
29728SOL    HW295148   0.495   2.213   5.233 -1.3153 -0.3553  0.0941
29729SOL     OW95149   5.048   5.585   0.879 -0.2152 -0.3751 -0.1558
29729SOL    HW195150   5.002   5.604   0.798 -1.8547  1.1692  1.0686
29729SOL    HW295151   5.098   5.505   0.860  0.4262  0.6117 -3.0039
29730SOL     OW95152   8.395   0.499   9.738  0.0325 -0.0346  0.2933
29730SOL    HW195153   8.331   0.561   9.771 -0.0230 -0.2196  0.5396
29730SOL    HW295154   8.389   0.424   9.797 -2.1118 -1.6386 -1.7592
29731SOL     OW95155   5.252   8.864   4.873 -0.0042  0.5254 -0.4869
29731SOL    HW195156   5.330   8.917   4.884 -0.8324  1.5637  0.6342
29731SOL    HW295157   5.263   8.790   4.932  0.3546  0.3878 -0.7254
29732SOL     OW95158   6.768   7.568   7.814 -0.3586 -0.3612 -0.1302
29732SOL    HW195159   6.775   7.473   7.819 -0.2019 -0.3128  0.9914
29732SOL    HW295160   6.800   7.598   7.899  0.5056  0.7533 -0.8260
29733SOL     OW95161  10.136   4.654   9.263 -0.6279 -0.0865  0.0492
29733SOL    HW195162  10.043   4.633   9.267 -0.0710 -2.7921  1.4259
29733SOL    HW295163  10.178   4.571   9.239  1.3469  1.5052 -2.5900
29734SOL     OW95164   2.711  11.843   8.417 -0.2386  0.6248 -0.0004
29734SOL    HW195165   2.722  11.893   8.498  2.2815  1.0567 -0.5210
29734SOL    HW295166   2.788  11.786   8.413 -0.6274  0.1656 -1.7626
29735SOL     OW95167   4.991   5.288   1.300 -0.5187  0.0178  0.1126
29735SOL    HW195168   4.974   5.357   1.236 -1.5519 -0.2232  0.1075
29735SOL    HW295169   4.904   5.261   1.330 -0.1447 -1.3674  0.0296
29736SOL     OW95170  11.875  10.896   7.273 -0.1975 -0.1147  0.3529
29736SOL    HW195171  11.963  10.903   7.312 -0.0373  1.7898 -0.2654
29736SOL    HW295172  11.868  10.972   7.216 -1.6482 -1.1296 -0.8985
29737SOL     OW95173   2.120   8.630  11.934  0.0907 -0.4782  0.1360
29737SOL    HW195174   2.035   8.617  11.975 -1.6561  2.6368 -2.0775
29737SOL    HW295175   2.130   8.556  11.875 -1.2964 -0.6721  0.1177
29738SOL     OW95176  12.334   4.964   4.751  0.4169  0.2164  0.1662
29738SOL    HW195177  12.241   4.957   4.731  0.2116  1.8037  0.3906
29738SOL    HW295178  12.352   4.892   4.811 -0.8864  0.3949  0.8128
29739SOL     OW95179   5.995   0.808   5.071 -0.2508  0.5286 -0.3007
29739SOL    HW195180   5.952   0.823   5.156 -1.1568 -2.2004 -0.1866
29739SOL    HW295181   6.088   0.814   5.090 -0.4360 -0.0626  0.9105
29740SOL     OW95182   8.573   0.553   8.860  0.2145 -0.1469 -0.5485
29740SOL    HW195183   8.493   0.505   8.839  0.3447 -0.1994 -0.9322
29740SOL    HW295184   8.579   0.549   8.955 -1.6328  2.0596 -0.2557
29741SOL     OW95185   4.516   8.013   6.586 -0.7132  0.5564  0.0799
29741SOL    HW195186   4.549   8.099   6.614  0.6428 -0.8379  3.3379
29741SOL    HW295187   4.424   8.028   6.568 -0.6487  2.6266  1.0848
29742SOL     OW95188   1.388   4.920   0.694  0.4911  0.6462 -0.4390
29742SOL    HW195189   1.296   4.925   0.719  0.9881  0.9876  1.4790
29742SOL    HW295190   1.407   5.006   0.655  0.3922  1.1744  0.6629
29743SOL     OW95191   3.222   5.144   9.134  0.0561  0.2107  0.5536
29743SOL    HW195192   3.200   5.224   9.182 -0.2695  0.6526 -0.3145
29743SOL    HW295193   3.299   5.167   9.082  0.0228 -0.0676  0.3762
29744SOL     OW95194   5.110   7.343   5.079  0.1402 -0.1930  0.1429
29744SOL    HW195195   5.201   7.336   5.051  1.1324  1.1195  2.7428
29744SOL    HW295196   5.060   7.354   4.998  2.2874 -0.8001 -1.3269
29745SOL     OW95197  11.656   7.885   7.541  0.2143 -0.0821 -0.1368
29745SOL    HW195198  11.700   7.936   7.473 -0.3079  0.3105 -0.1812
29745SOL    HW295199  11.691   7.921   7.623  0.1392  0.0851 -0.1766
29746SOL     OW95200   1.647   0.414   5.716 -0.5609  0.4638 -0.2696
29746SOL    HW195201   1.593   0.340   5.691  1.1623 -0.0885 -2.7767
29746SOL    HW295202   1.585   0.486   5.731 -2.1838 -1.1542  1.2560
29747SOL     OW95203   2.978   6.918  11.323  0.4541  0.3348 -0.4066
29747SOL    HW195204   3.017   6.880  11.402 -0.5113  0.0122 -0.0723
29747SOL    HW295205   3.048   6.972  11.286 -0.0749  3.5024  2.6220
29748SOL     OW95206   7.248   2.647   3.020 -0.0789  0.1267 -0.3158
29748SOL    HW195207   7.301   2.589   2.966  1.2338  0.9866  0.0030
29748SOL    HW295208   7.216   2.592   3.092  1.1638 -0.2123 -0.0028
29749SOL     OW95209   6.272   6.827  10.878 -0.0509  0.4130  0.6649
29749SOL    HW195210   6.300   6.773  10.952  0.4176  2.0920  1.7749
29749SOL    HW295211   6.349   6.836  10.823  0.1867  0.8759  1.0716
29750SOL     OW95212   5.510   0.341   5.665 -0.0036  0.1355  0.0101
29750SOL    HW195213   5.591   0.308   5.703  0.7295  0.0856 -1.5355
29750SOL    HW295214   5.473   0.267   5.617 -0.8149  0.2502  0.4326
29751SOL     OW95215   1.759   6.158   5.870 -0.1457 -0.2648 -0.4311
29751SOL    HW195216   1.844   6.119   5.850  0.8785 -0.5421  3.6112
29751SOL    HW295217   1.761   6.243   5.826  1.6443 -0.7953 -1.4954
29752SOL     OW95218   8.334  10.308   9.940 -0.3617  0.1501  0.0399
29752SOL    HW195219   8.267  10.278  10.002  1.8601 -1.7450  1.6747
29752SOL    HW295220   8.416  10.303   9.989  0.9541  3.2668 -1.5941
29753SOL     OW95221   8.998   7.412   1.001  0.1845 -0.0129  0.2228
29753SOL    HW195222   9.090   7.428   1.022 -0.2161  1.3346  1.1176
29753SOL    HW295223   8.969   7.349   1.067  0.2528  0.2172  0.4735
29754SOL     OW95224   2.084   5.021   3.401 -0.0740 -0.4175  0.2100
29754SOL    HW195225   2.148   4.964   3.357 -1.0111 -1.3603  0.0320
29754SOL    HW295226   2.006   4.967   3.410 -0.8222  0.6874  0.5255
29755SOL     OW95227   4.485  10.619   2.057 -0.5233 -0.0250 -0.7810
29755SOL    HW195228   4.430  10.587   1.985 -0.8425 -3.1709  0.7012
29755SOL    HW295229   4.574  10.602   2.028 -0.5820  0.0436 -1.0051
29756SOL     OW95230  11.819   1.706   4.974 -0.4510  0.2243 -0.4183
29756SOL    HW195231  11.844   1.707   4.881  1.6176 -2.4427 -0.0156
29756SOL    HW295232  11.781   1.619   4.987 -0.1291  0.3259  1.3515
29757SOL     OW95233   5.492   0.792   4.924 -1.0127  0.4314  0.5567
29757SOL    HW195234   5.536   0.713   4.955 -0.9816  0.3045  0.1970
29757SOL    HW295235   5.411   0.796   4.975 -1.4064 -0.2792  0.0120
29758SOL     OW95236   3.075   6.841   4.129 -0.1106  0.6694 -0.5306
29758SOL    HW195237   3.133   6.911   4.099 -0.6088  1.1049 -0.4951
29758SOL    HW295238   3.134   6.775   4.166  0.2784  1.6938  0.7266
29759SOL     OW95239  10.528   6.850  12.333 -0.3592  1.1256  0.5111
29759SOL    HW195240  10.615   6.887  12.315 -0.8864  2.8287  1.3266
29759SOL    HW295241  10.476   6.924  12.364 -2.0210  0.0612  0.3698
29760SOL     OW95242   2.517   1.901   7.050 -0.3316 -0.1448  0.5347
29760SOL    HW195243   2.431   1.909   7.091 -0.2576 -0.6577  0.8040
29760SOL    HW295244   2.498   1.872   6.960 -0.5066  1.2839  0.0849
29761SOL     OW95245   0.215   0.179   6.974 -0.3712 -0.3991 -0.1407
29761SOL    HW195246   0.171   0.134   7.047 -1.1900 -0.5060 -0.6850
29761SOL    HW295247   0.270   0.113   6.934 -0.0230 -0.3768  0.2968
29762SOL     OW95248   7.611   6.459   1.114  0.3904 -0.4575 -0.4220
29762SOL    HW195249   7.589   6.477   1.205 -1.2200 -3.4524 -0.1113
29762SOL    HW295250   7.702   6.489   1.105 -0.0880  1.9171  1.4654
29763SOL     OW95251   1.804  12.248   1.266  0.0804 -0.5917 -0.7848
29763SOL    HW195252   1.758  12.331   1.252  0.9672 -0.0450 -0.5677
29763SOL    HW295253   1.763  12.187   1.205 -2.4725 -0.7661  0.9532
29764SOL     OW95254  12.265  11.725   6.434 -0.0842  0.3631  0.0298
29764SOL    HW195255  12.337  11.752   6.378  0.1283  0.2190  0.2312
29764SOL    HW295256  12.300  11.732   6.523 -0.3644  0.4284  0.1364
29765SOL     OW95257   2.424   0.879  10.548  0.2658 -0.2285 -0.1776
29765SOL    HW195258   2.444   0.819  10.476  1.0631 -1.6554  1.1883
29765SOL    HW295259   2.509   0.907  10.580 -0.0171 -1.0141  1.3381
29766SOL     OW95260   8.735   7.865   4.081  0.4223  0.0560 -0.5774
29766SOL    HW195261   8.805   7.926   4.058  0.0859  0.1576 -1.3362
29766SOL    HW295262   8.721   7.879   4.175  0.8943  0.5727 -0.5810
29767SOL     OW95263   1.046   2.322  11.092  0.6961 -0.3094 -0.4465
29767SOL    HW195264   0.994   2.400  11.072 -1.4750 -2.3539 -3.9005
29767SOL    HW295265   1.010   2.290  11.175 -2.0893 -0.3384 -1.5443
29768SOL     OW95266   9.369   3.145  11.275 -0.8585 -0.2434  0.0207
29768SOL    HW195267   9.317   3.208  11.226  1.6480  2.1864  0.2217
29768SOL    HW295268   9.456   3.149  11.234  0.0365 -1.6711  1.6665
29769SOL     OW95269   5.948   0.499   4.430  0.0587 -0.3063 -0.7165
29769SOL    HW195270   5.862   0.460   4.441  0.5750 -1.5243 -0.7966
29769SOL    HW295271   6.007   0.425   4.418  1.5853  0.2766  2.1814
29770SOL     OW95272   4.427   8.261  10.944  0.0225  0.4732 -0.1720
29770SOL    HW195273   4.354   8.323  10.942  0.0957  0.6150  1.2645
29770SOL    HW295274   4.384   8.175  10.942 -0.3065  0.5236  2.1857
29771SOL     OW95275   7.575   9.705   7.636  0.4244 -0.0613 -0.1693
29771SOL    HW195276   7.655   9.754   7.657  1.7429 -1.6551 -1.2144
29771SOL    HW295277   7.513   9.772   7.608  1.3637  1.2279  0.6865
29772SOL     OW95278   2.309   9.916  10.765 -0.6001  0.3378 -0.0042
29772SOL    HW195279   2.351   9.992  10.726 -0.6097  0.2338 -0.2212
29772SOL    HW295280   2.215   9.936  10.761 -0.5776  0.5302  0.3943
29773SOL     OW95281   2.238   0.976   0.088 -0.3418  0.3585 -0.2750
29773SOL    HW195282   2.222   1.049   0.027 -3.0571 -0.3083 -0.4659
29773SOL    HW295283   2.326   0.946   0.065  0.0766  2.2966 -1.5394
29774SOL     OW95284   4.896  11.757   7.343  0.4184  0.5678  0.3540
29774SOL    HW195285   4.893  11.850   7.367 -1.2700  0.5656  0.2354
29774SOL    HW295286   4.975  11.749   7.290 -0.0541  2.2207 -0.6858
29775SOL     OW95287   7.884   9.251   3.209  0.5201  0.5051  0.0792
29775SOL    HW195288   7.829   9.201   3.148 -1.0317 -0.2619  1.9989
29775SOL    HW295289   7.821   9.302   3.261  1.7803  1.1415  1.0183
29776SOL     OW95290  10.207   6.394   1.780  0.5974  0.2911 -0.2748
29776SOL    HW195291  10.126   6.442   1.762  1.6588  2.5044  0.4056
29776SOL    HW295292  10.187   6.303   1.758 -2.7364  0.3120  1.8775
29777SOL     OW95293  11.185   2.682  10.493  0.5560  0.7793 -0.6040
29777SOL    HW195294  11.205   2.601  10.447  2.0008  1.8639 -1.9902
29777SOL    HW295295  11.260   2.739  10.475 -0.5673  2.5395  0.0664
29778SOL     OW95296   5.377   4.190   4.850 -0.7494  0.1716  0.2446
29778SOL    HW195297   5.388   4.273   4.803  0.6568 -0.2823 -0.3065
29778SOL    HW295298   5.459   4.179   4.898 -0.9345 -0.8625  0.3481
29779SOL     OW95299   4.811  10.241   6.887  0.8136 -1.0426 -0.0866
29779SOL    HW195300   4.893  10.284   6.910  0.1700  0.3777 -0.3923
29779SOL    HW295301   4.745  10.286   6.939 -0.1380 -0.3698 -1.8277
29780SOL     OW95302   5.009  12.327   5.380 -0.3391 -0.2981 -0.6804
29780SOL    HW195303   4.961  12.281   5.449 -0.1968 -1.2127 -1.1774
29780SOL    HW295304   5.061  12.258   5.337  1.1350  0.5989 -0.3954
29781SOL     OW95305   7.840   0.637   2.215  0.5436 -0.6349 -0.0264
29781SOL    HW195306   7.779   0.563   2.207  2.3859 -2.2435  0.0607
29781SOL    HW295307   7.836   0.661   2.307  2.8465 -3.3875  0.9314
29782SOL     OW95308   6.849  12.399   2.902  0.0927  0.4428 -0.1585
29782SOL    HW195309   6.757  12.390   2.927  0.6330  0.7295  2.2358
29782SOL    HW295310   6.893  12.326   2.945  0.8890 -0.1715 -1.9639
29783SOL     OW95311   4.081   1.462   6.928  0.9567 -0.4081 -0.1070
29783SOL    HW195312   4.141   1.522   6.883 -0.1763 -0.0257 -1.1405
29783SOL    HW295313   4.073   1.388   6.868  1.8940 -1.3653  0.9054
29784SOL     OW95314   7.664   6.904  12.390  0.0358  0.1461  0.5647
29784SOL    HW195315   7.584   6.944  12.425 -0.2189  0.5707 -0.4485
29784SOL    HW295316   7.735   6.950  12.434 -0.2738  0.8078  0.3866
29785SOL     OW95317   4.655  11.993   8.596  0.8515 -0.4162  0.1478
29785SOL    HW195318   4.646  12.058   8.667 -3.2523  1.3439 -1.6308
29785SOL    HW295319   4.720  12.030   8.537 -1.1654  2.1302 -0.6572
29786SOL     OW95320   9.098   8.702  11.385 -0.3068 -0.2282 -0.5140
29786SOL    HW195321   9.109   8.710  11.290  0.8263  0.0178 -0.3762
29786SOL    HW295322   9.009   8.666  11.396  0.3269 -2.3779 -1.7513
29787SOL     OW95323   5.517   7.921   4.785 -0.2444  0.1296  0.2641
29787SOL    HW195324   5.465   7.879   4.853  0.9404  0.9245  1.7146
29787SOL    HW295325   5.523   8.012   4.812  0.6019  0.3751 -0.6802
29788SOL     OW95326  10.760   3.035   5.483  0.5012  0.1278  0.6476
29788SOL    HW195327  10.820   3.048   5.557 -0.1093  0.8830  1.0190
29788SOL    HW295328  10.818   3.026   5.407  1.1359 -0.6483  1.2003
29789SOL     OW95329   8.949   7.691  11.764 -0.0473 -0.2869 -0.3451
29789SOL    HW195330   8.917   7.764  11.710 -1.8203 -0.3409  0.5866
29789SOL    HW295331   8.907   7.613  11.727 -1.4241 -0.3070  1.1530
29790SOL     OW95332  11.145   7.509   2.506  0.3619 -0.1204 -0.2880
29790SOL    HW195333  11.100   7.462   2.575  1.8030 -0.0664  0.7253
29790SOL    HW295334  11.156   7.598   2.540  0.5378  0.0785 -0.8434
29791SOL     OW95335  11.313   2.018   5.884 -0.2523 -0.2421  0.7616
29791SOL    HW195336  11.257   1.994   5.810 -0.4351  1.5219  0.2722
29791SOL    HW295337  11.337   2.110   5.867 -2.2556  1.0787  4.0350
29792SOL     OW95338   9.908  11.269   0.826  0.1961  0.2168  0.0126
29792SOL    HW195339   9.965  11.342   0.853  0.1736  0.0920  0.4062
29792SOL    HW295340   9.920  11.203   0.894 -2.0527  1.0446  1.2951
29793SOL     OW95341   8.754  12.007   8.444 -0.3830  0.2425  0.2109
29793SOL    HW195342   8.802  12.004   8.361 -3.2404  0.3317 -1.5712
29793SOL    HW295343   8.789  12.084   8.489  0.4566  0.8551 -1.4118
29794SOL     OW95344   2.260  10.188   9.601 -0.5029 -0.3310 -0.1148
29794SOL    HW195345   2.336  10.141   9.636 -1.5314 -1.4412  0.6824
29794SOL    HW295346   2.234  10.138   9.523 -0.4746 -0.0040 -0.3352
29795SOL     OW95347   6.881   7.163   9.461 -0.0812 -0.0021 -0.0011
29795SOL    HW195348   6.973   7.160   9.437 -0.0216  2.8482 -0.4401
29795SOL    HW295349   6.871   7.245   9.509 -2.6325  0.4716 -1.1474
29796SOL     OW95350   2.134   2.174   6.278  0.0650 -0.6872  0.5612
29796SOL    HW195351   2.101   2.101   6.330  1.2208 -1.2303  0.5825
29796SOL    HW295352   2.080   2.248   6.303 -2.0761 -1.8027 -0.4733
29797SOL     OW95353   4.427  11.811  11.823  0.1293 -0.1188  0.6102
29797SOL    HW195354   4.440  11.902  11.852  0.2877 -0.0066  0.1963
29797SOL    HW295355   4.504  11.765  11.857  0.4071  0.0503  0.2244
29798SOL     OW95356   8.087   1.179   0.334 -0.2688  0.4108 -0.5471
29798SOL    HW195357   8.001   1.138   0.346  0.5002 -1.6834 -1.6723
29798SOL    HW295358   8.087   1.211   0.244 -0.1417  1.1178 -0.3002
29799SOL     OW95359   4.712  11.160   8.420 -0.3435  0.6231  0.3200
29799SOL    HW195360   4.784  11.101   8.398 -0.5193  0.6209 -0.2636
29799SOL    HW295361   4.645  11.143   8.353 -1.0075  0.4164  1.0213
29800SOL     OW95362   8.977  11.903   5.400  0.2079  0.0644 -0.0397
29800SOL    HW195363   8.982  11.895   5.305 -0.9794  2.0088 -0.3251
29800SOL    HW295364   8.918  11.832   5.427  0.0177 -0.0867 -0.8330
29801SOL     OW95365   5.663   1.657   9.990  0.5059  0.0479 -0.0255
29801SOL    HW195366   5.615   1.578  10.015 -2.0705  1.7013  0.6511
29801SOL    HW295367   5.640   1.721  10.057  2.4380  1.4511 -0.6063
29802SOL     OW95368   6.796   0.181   0.674 -0.1949  0.8058  0.7353
29802SOL    HW195369   6.721   0.123   0.686 -0.6043  0.9835 -0.8151
29802SOL    HW295370   6.810   0.184   0.579 -0.5030  3.6168  0.6846
29803SOL     OW95371  11.816   0.981   7.443 -0.4264 -0.8535  0.2104
29803SOL    HW195372  11.846   1.050   7.502  2.6482 -2.1481  0.3426
29803SOL    HW295373  11.777   0.916   7.501 -0.2136 -0.7455  0.4780
29804SOL     OW95374   9.617   5.876  12.167  0.0652 -0.2644 -0.0575
29804SOL    HW195375   9.566   5.796  12.183  0.7009 -0.6019  0.2917
29804SOL    HW295376   9.656   5.863  12.081  1.2847 -0.9336  0.5844
29805SOL     OW95377   0.009   4.172   6.216  0.9620 -0.1815  0.2100
29805SOL    HW195378  -0.052   4.201   6.148  1.0442  1.6301  0.8353
29805SOL    HW295379   0.084   4.139   6.168 -0.3348 -2.1765 -0.5757
29806SOL     OW95380   7.995   9.727   2.865 -0.2570 -0.0697 -0.0861
29806SOL    HW195381   7.991   9.668   2.940 -0.4430 -0.4506 -0.3862
29806SOL    HW295382   7.921   9.701   2.810 -1.1581  1.3555  0.4131
29807SOL     OW95383   0.826   4.486   4.211  0.3010 -0.1805 -0.5198
29807SOL    HW195384   0.849   4.551   4.277  1.2027  0.4726 -1.4511
29807SOL    HW295385   0.909   4.443   4.190  0.2788  0.5122 -2.1554
29808SOL     OW95386   9.530   5.060  12.017 -0.3250 -0.3040  0.4564
29808SOL    HW195387   9.593   5.058  12.089  0.3585 -1.7042 -0.1547
29808SOL    HW295388   9.583   5.043  11.939 -1.2364  0.0202 -0.2443
29809SOL     OW95389   0.195   4.890   0.244  0.0192  0.5662 -0.2454
29809SOL    HW195390   0.134   4.960   0.221  1.3610  0.8544 -3.4130
29809SOL    HW295391   0.280   4.933   0.252  0.4949 -0.3905  0.0722
29810SOL     OW95392   8.431   2.279   5.975 -0.1287 -0.6605 -0.2730
29810SOL    HW195393   8.387   2.355   6.015 -0.5224 -0.6804 -0.6574
29810SOL    HW295394   8.493   2.250   6.042  0.0369  0.0082 -0.1233
29811SOL     OW95395   2.416  11.949   4.359 -0.4578 -0.2002  0.2931
29811SOL    HW195396   2.385  11.991   4.279  1.3330 -0.8384 -0.7689
29811SOL    HW295397   2.508  11.930   4.343 -0.3279 -1.3369  2.1000
29812SOL     OW95398   3.306   5.073   3.635 -0.2688  0.1118  0.0350
29812SOL    HW195399   3.377   5.021   3.597  0.8909  1.4701  0.2602
29812SOL    HW295400   3.304   5.047   3.727 -0.3089 -0.1675 -0.0413
29813SOL     OW95401   5.811  11.472   7.973  0.5374 -0.1200 -0.6266
29813SOL    HW195402   5.840  11.564   7.974 -0.7463  0.2988 -0.3603
29813SOL    HW295403   5.755  11.466   7.896 -0.3517 -0.3646  0.0312
29814SOL     OW95404   1.967   0.362  10.123  0.1575 -0.0963 -0.7086
29814SOL    HW195405   1.913   0.430  10.084  2.7490  1.6485 -1.5105
29814SOL    HW295406   1.988   0.302  10.051 -0.9109 -0.9701 -0.3245
29815SOL     OW95407   5.129   9.212   0.307 -0.6859  0.3293 -0.5398
29815SOL    HW195408   5.096   9.217   0.397 -0.4755  0.1250 -0.4511
29815SOL    HW295409   5.080   9.280   0.260 -1.6904 -0.3885 -0.5551
29816SOL     OW95410   0.264  10.989   6.693  0.2142  0.3359 -0.0927
29816SOL    HW195411   0.258  10.895   6.711 -0.8004  0.0861 -1.5292
29816SOL    HW295412   0.355  11.012   6.714 -0.1593 -0.3791  2.7337
29817SOL     OW95413  10.673  10.622   2.570  0.0357 -0.3470  0.1740
29817SOL    HW195414  10.582  10.598   2.589 -0.4108 -0.3015 -1.6993
29817SOL    HW295415  10.722  10.541   2.586 -0.3343 -0.3893  1.1480
29818SOL     OW95416   9.093   7.467   6.414 -0.4252  0.4653 -0.0972
29818SOL    HW195417   9.022   7.516   6.373 -0.6875 -1.0864 -1.5713
29818SOL    HW295418   9.170   7.488   6.361 -0.3747 -0.0716 -0.2418
29819SOL     OW95419  11.346   3.132   0.277 -0.4191 -0.4515 -0.4564
29819SOL    HW195420  11.272   3.187   0.304 -0.5730  0.0325 -1.7922
29819SOL    HW295421  11.372   3.167   0.192 -0.4724 -2.3855 -1.3268
29820SOL     OW95422   8.535  11.017   6.466 -0.3026  0.1658 -0.1725
29820SOL    HW195423   8.613  11.072   6.455  1.8196 -2.6550 -0.3718
29820SOL    HW295424   8.556  10.936   6.419 -2.8926 -1.1808  0.7775
29821SOL     OW95425   4.023  11.434  11.359 -0.4358 -0.2153 -0.4836
29821SOL    HW195426   4.069  11.497  11.413 -0.4572 -0.4282 -0.2145
29821SOL    HW295427   4.087  11.364  11.344 -0.2922  0.0437 -1.0889
29822SOL     OW95428  12.243   7.740   2.382 -0.0073  0.1312 -0.0543
29822SOL    HW195429  12.329   7.768   2.417 -0.0170 -0.9712  0.9167
29822SOL    HW295430  12.241   7.645   2.396 -0.8615 -0.0505 -1.2829
29823SOL     OW95431   2.790   7.288   3.695  0.2619 -0.1966  0.2321
29823SOL    HW195432   2.741   7.368   3.713 -0.4566 -1.0829  2.5789
29823SOL    HW295433   2.753   7.256   3.612  0.1804  1.5791 -0.4498
29824SOL     OW95434   9.539   5.367   7.921  0.0318  0.0684 -0.3624
29824SOL    HW195435   9.547   5.444   7.978 -1.0929 -1.1520  1.5750
29824SOL    HW295436   9.597   5.302   7.960 -0.3526 -0.6339 -0.9323
29825SOL     OW95437   0.077   8.486  11.966  0.8673  0.1765  0.4005
29825SOL    HW195438   0.032   8.487  11.881  0.8054  1.4403  0.4165
29825SOL    HW295439   0.168   8.505  11.945  1.3252 -1.7819  0.4295
29826SOL     OW95440   1.743   8.471   2.902 -0.4236  0.0542  0.1519
29826SOL    HW195441   1.835   8.482   2.877 -0.5404 -0.8237 -0.7094
29826SOL    HW295442   1.694   8.503   2.826 -0.8234 -0.3393  0.2435
29827SOL     OW95443  10.513   4.967   8.291 -0.2331 -0.1902 -0.2724
29827SOL    HW195444  10.426   5.005   8.304 -0.0367  0.0711  0.3112
29827SOL    HW295445  10.544   5.008   8.210 -0.4026  0.1815 -0.1524
29828SOL     OW95446   0.995  11.412   0.305 -0.1773  0.2508 -0.7805
29828SOL    HW195447   1.026  11.331   0.347  2.0503  0.6704 -1.5158
29828SOL    HW295448   0.945  11.382   0.229  2.5019 -0.5286 -2.3697
29829SOL     OW95449   9.542   3.802   8.575 -0.2981  0.1540  0.7355
29829SOL    HW195450   9.498   3.826   8.657 -1.3107  0.7988  0.0200
29829SOL    HW295451   9.549   3.707   8.579  0.3150  0.2302  1.8915
29830SOL     OW95452   6.313   3.837   0.281 -0.0269 -0.3224 -0.5456
29830SOL    HW195453   6.226   3.822   0.318 -1.6038  1.5215 -3.1411
29830SOL    HW295454   6.300   3.832   0.186  2.8367 -0.4960 -1.0295
29831SOL     OW95455   4.959   2.304   0.212  0.1604  0.2073  0.1948
29831SOL    HW195456   4.916   2.363   0.150  0.5797  0.1752 -0.1265
29831SOL    HW295457   5.034   2.269   0.165  1.0112  0.8835  1.0147
29832SOL     OW95458  11.966  11.648   0.211  0.8633  0.3430 -0.2482
29832SOL    HW195459  11.894  11.662   0.149 -2.4394  0.5205  3.2517
29832SOL    HW295460  11.995  11.736   0.235 -0.3981  0.4226  1.0674
29833SOL     OW95461   1.725   0.395   6.294  0.4649  0.7171  0.5423
29833SOL    HW195462   1.809   0.430   6.323  0.0521  0.8489  1.6311
29833SOL    HW295463   1.674   0.471   6.268  0.8413  0.5981 -0.6186
29834SOL     OW95464   3.254   0.866   5.858  0.1781  0.0026 -0.5896
29834SOL    HW195465   3.325   0.904   5.909  1.9097 -1.4381 -1.7992
29834SOL    HW295466   3.247   0.776   5.890 -2.6832  0.7101  1.0525
29835SOL     OW95467   9.690   9.136   9.764 -0.0349  0.0539  0.0404
29835SOL    HW195468   9.601   9.134   9.728 -0.9410 -2.1403  2.0987
29835SOL    HW295469   9.728   9.052   9.737  1.2414  0.7344 -0.3458
29836SOL     OW95470  12.218   6.463   8.844 -0.0080 -0.5685 -0.1604
29836SOL    HW195471  12.128   6.480   8.872  0.1052 -1.0452  0.5228
29836SOL    HW295472  12.209   6.427   8.755 -0.5020 -0.7224 -0.0537
29837SOL     OW95473   7.178  10.444  10.482  0.0720  0.2712 -0.0293
29837SOL    HW195474   7.191  10.356  10.515 -1.4735 -1.3302 -3.2191
29837SOL    HW295475   7.084  10.461  10.496  0.5646  1.9749  1.6208
29838SOL     OW95476   8.165  10.511   4.380  0.1529 -0.7800  0.0093
29838SOL    HW195477   8.188  10.586   4.325 -0.1031 -0.2053  0.6629
29838SOL    HW295478   8.070  10.503   4.370 -0.2411  0.6018  1.8546
29839SOL     OW95479   7.695   6.211   0.740 -0.6479 -0.0402  0.3170
29839SOL    HW195480   7.728   6.196   0.829 -1.1713  1.4847  0.7941
29839SOL    HW295481   7.601   6.223   0.750 -0.7198  0.1068 -0.4509
29840SOL     OW95482   2.031   0.374   0.120  0.0942 -0.3009  0.1241
29840SOL    HW195483   1.973   0.338   0.188 -0.6989  1.7589  0.6335
29840SOL    HW295484   2.013   0.320   0.043  0.6984 -2.4302  1.3748
29841SOL     OW95485   2.107   7.065   4.427 -0.3999 -0.0388 -0.0517
29841SOL    HW195486   2.185   7.119   4.440  0.0068 -0.6523  0.0349
29841SOL    HW295487   2.136   6.975   4.441 -0.6290 -0.4823 -2.0270
29842SOL     OW95488   8.099   8.830  10.698  0.1332  0.2599 -0.5675
29842SOL    HW195489   8.077   8.794  10.785  0.1247  2.1827  0.2745
29842SOL    HW295490   8.014   8.850  10.659  0.1476 -0.3220 -0.9071
29843SOL     OW95491   9.098   5.919   9.475  0.3947 -0.3818  0.0945
29843SOL    HW195492   9.071   5.987   9.413 -1.3960  1.5052  2.7445
29843SOL    HW295493   9.076   5.837   9.432  0.3282  0.7547 -2.2034
29844SOL     OW95494   5.632  11.754   9.719 -0.3300  0.0473 -0.3031
29844SOL    HW195495   5.660  11.830   9.770 -1.4954  0.0855  0.3198
29844SOL    HW295496   5.545  11.732   9.754 -1.5636  0.5730 -2.7757
29845SOL     OW95497   3.520  11.418   1.640 -0.1450  0.0389 -0.4552
29845SOL    HW195498   3.567  11.334   1.644 -1.2766 -0.6696 -1.4083
29845SOL    HW295499   3.491  11.433   1.730  1.1495  0.0547 -0.0228
29846SOL     OW95500   6.165   6.132  10.496 -0.4524 -0.1542  0.8339
29846SOL    HW195501   6.188   6.225  10.504 -1.1796 -0.0592  2.0599
29846SOL    HW295502   6.217   6.101  10.422  0.3678  1.0460  0.8770
29847SOL     OW95503   3.374   1.548   9.494 -0.3119 -0.0165 -0.3463
29847SOL    HW195504   3.391   1.612   9.425  1.0016 -0.1495 -0.1799
29847SOL    HW295505   3.457   1.500   9.502  0.1775  1.1365  2.5246
29848SOL     OW95506   0.848  11.552  10.613 -0.4372 -0.4887  0.3269
29848SOL    HW195507   0.772  11.605  10.639  0.0353 -0.4638  1.7161
29848SOL    HW295508   0.820  11.461  10.627 -0.3659 -0.4993  0.3982
29849SOL     OW95509   7.280   1.384   3.168 -0.3525  0.3100 -0.4526
29849SOL    HW195510   7.207   1.406   3.225 -0.1093 -0.4831  0.1951
29849SOL    HW295511   7.253   1.413   3.081 -0.1151  2.9518  0.2695
29850SOL     OW95512   0.768   7.061   6.256 -0.0774  0.0150  0.5522
29850SOL    HW195513   0.834   7.128   6.275 -0.6596  0.5695  0.6627
29850SOL    HW295514   0.818   6.982   6.236  0.6352  0.6253 -0.1183
29851SOL     OW95515   8.276   3.302   5.978  0.1364  0.1386  0.2285
29851SOL    HW195516   8.361   3.271   6.007 -0.9044 -0.5765  2.7797
29851SOL    HW295517   8.227   3.222   5.956  0.2750  0.5716 -1.9367
29852SOL     OW95518   1.392   8.519   1.647 -0.0347  0.2303 -0.1060
29852SOL    HW195519   1.407   8.548   1.557  2.5004 -0.2106  0.0877
29852SOL    HW295520   1.423   8.592   1.700 -0.6721  0.1211  0.4256
29853SOL     OW95521   6.061   0.259   2.765  0.5853 -0.4434 -0.5710
29853SOL    HW195522   6.109   0.202   2.825  0.8694 -0.0715 -0.4478
29853SOL    HW295523   6.051   0.206   2.686 -0.5039 -1.2508  0.0725
29854SOL     OW95524   6.282   5.645   8.177 -0.6810 -0.3710  0.0533
29854SOL    HW195525   6.271   5.727   8.225 -0.1095 -0.8798  1.0924
29854SOL    HW295526   6.221   5.584   8.218 -0.2467 -0.7940  0.0796
29855SOL     OW95527   9.675   3.139   0.490  0.0237  0.3438 -1.0070
29855SOL    HW195528   9.667   3.176   0.402 -0.7983  0.5798 -0.8381
29855SOL    HW295529   9.645   3.209   0.549 -0.7681 -0.2981 -0.6320
29856SOL     OW95530   8.208  12.401   5.118 -0.5763  0.0384 -0.0361
29856SOL    HW195531   8.240  12.486   5.088 -2.2666  1.2496  1.3563
29856SOL    HW295532   8.253  12.388   5.202 -0.0648 -0.6128 -0.4105
29857SOL     OW95533   8.962   5.361  12.139  0.1338  0.6103 -0.1485
29857SOL    HW195534   8.923   5.429  12.084 -0.2484  1.5792  1.2493
29857SOL    HW295535   8.902   5.353  12.214  0.0688 -1.4332 -0.3603
29858SOL     OW95536   3.356   6.335   1.276  0.0087  0.1693  0.2689
29858SOL    HW195537   3.349   6.384   1.193  1.1938  0.0534  0.0830
29858SOL    HW295538   3.318   6.393   1.341  2.0454  1.7118  0.1765
29859SOL     OW95539   2.335   2.123   1.388  0.3444 -0.3506  0.1470
29859SOL    HW195540   2.272   2.054   1.366  0.5976 -0.6496  0.3436
29859SOL    HW295541   2.297   2.165   1.465  1.5548 -2.1484  1.8337
29860SOL     OW95542   1.889   4.392   7.052  0.5427  0.1659 -0.0241
29860SOL    HW195543   1.880   4.428   7.141 -0.5102  0.4188 -0.2279
29860SOL    HW295544   1.808   4.416   7.008  0.8435 -0.4066 -0.9065
29861SOL     OW95545   4.064   9.505  11.290  0.3514 -0.2092 -0.1459
29861SOL    HW195546   4.095   9.595  11.279 -1.9249  0.7178  0.4689
29861SOL    HW295547   4.031   9.501  11.380 -1.1128 -1.1278 -0.6701
29862SOL     OW95548   3.287   3.467  11.154 -0.8351 -0.4497 -0.0399
29862SOL    HW195549   3.215   3.501  11.206  0.1981  1.9733 -0.0844
29862SOL    HW295550   3.299   3.531  11.085  0.9272 -1.1485 -0.4297
29863SOL     OW95551  10.389   2.929   1.619 -0.8683 -0.1015 -0.1029
29863SOL    HW195552  10.350   2.956   1.702 -0.8870 -1.3308  0.3074
29863SOL    HW295553  10.460   2.869   1.644 -0.5563 -0.1044 -0.9501
29864SOL     OW95554   9.287   0.119   1.948  0.4170  0.0085  0.1153
29864SOL    HW195555   9.211   0.067   1.921  0.7157 -0.2091 -0.3164
29864SOL    HW295556   9.287   0.194   1.890  0.3932  0.1305  0.2728
29865SOL     OW95557   4.335   5.397  12.191 -0.1460 -0.2117 -0.3507
29865SOL    HW195558   4.253   5.440  12.167 -0.8516 -0.9782  0.6358
29865SOL    HW295559   4.349   5.331  12.124  0.7468  1.2339 -1.6644
29866SOL     OW95560  12.157  12.238   6.847  0.3300  0.2433  0.3769
29866SOL    HW195561  12.240  12.242   6.893  1.0597  0.0906 -0.8668
29866SOL    HW295562  12.171  12.290   6.767  0.1628 -1.9545 -1.1892
29867SOL     OW95563  11.095   6.359  10.086 -0.8021  0.3574 -0.0702
29867SOL    HW195564  11.014   6.340  10.134 -0.5410  1.1488  0.7185
29867SOL    HW295565  11.106   6.454  10.095 -0.3518  0.4054 -1.0890
29868SOL     OW95566   3.058   3.246   3.610 -0.2017 -0.1025 -0.5592
29868SOL    HW195567   2.985   3.283   3.660 -0.3121 -0.8298 -0.1677
29868SOL    HW295568   3.107   3.194   3.674  1.3827  1.3433 -0.5153
29869SOL     OW95569   6.561   4.788   2.740  0.4039  0.1239  0.1450
29869SOL    HW195570   6.643   4.782   2.790 -0.8589 -1.7222  2.1587
29869SOL    HW295571   6.555   4.880   2.715  2.9798  0.3513  0.0896
29870SOL     OW95572   1.694  10.091  12.419  0.7031  0.5567 -0.3860
29870SOL    HW195573   1.718  10.000  12.405  0.8282  0.4376  0.5576
29870SOL    HW295574   1.625  10.089  12.484 -0.4341  1.0469 -1.5303
29871SOL     OW95575   7.772   8.193   2.733  0.0478 -0.2085  0.4702
29871SOL    HW195576   7.810   8.267   2.684 -0.2445 -0.6907 -0.5205
29871SOL    HW295577   7.834   8.122   2.719  0.5397 -0.0654  1.7633
29872SOL     OW95578   9.892   5.410   0.159 -0.0036  0.3258 -0.4808
29872SOL    HW195579   9.836   5.487   0.168  0.9082  1.0424 -0.8386
29872SOL    HW295580   9.832   5.339   0.137 -0.9738  0.7318  0.7487
29873SOL     OW95581   3.256   6.896   4.938 -0.6664  0.2236  0.0311
29873SOL    HW195582   3.181   6.950   4.962 -1.3890 -1.0671  0.7890
29873SOL    HW295583   3.222   6.806   4.938  0.6568 -0.3059 -0.5295
29874SOL     OW95584   8.812   7.746   0.387  0.0390 -0.0957 -0.1803
29874SOL    HW195585   8.756   7.815   0.423  2.3024  1.5783  0.4044
29874SOL    HW295586   8.843   7.698   0.464  0.9477  0.2709 -0.3063
29875SOL     OW95587   4.204   8.173   6.127  0.0702 -0.1341  0.0069
29875SOL    HW195588   4.132   8.143   6.182  0.0059 -0.2132 -0.1193
29875SOL    HW295589   4.230   8.257   6.164 -1.0207  0.5907 -0.7934
29876SOL     OW95590   1.677   0.053   4.309 -0.5029  0.5196 -0.0143
29876SOL    HW195591   1.769   0.047   4.335 -0.1875 -0.9959 -1.2496
29876SOL    HW295592   1.628   0.013   4.381  0.0350 -0.6065 -0.2446
29877SOL     OW95593   2.957   2.064  11.257  0.2410 -0.3201 -0.7091
29877SOL    HW195594   2.894   2.107  11.198  1.0192 -0.9006 -2.0160
29877SOL    HW295595   3.025   2.031  11.198  1.9330  0.5272  0.6705
29878SOL     OW95596  10.724   6.718   8.760 -0.1668  0.7851 -0.0707
29878SOL    HW195597  10.631   6.741   8.759 -0.4748 -0.1040 -3.3098
29878SOL    HW295598  10.763   6.772   8.692  0.6022 -2.2614 -2.2857
29879SOL     OW95599  11.024  10.023   4.095  0.2896 -0.0320  0.0143
29879SOL    HW195600  10.986  10.084   4.159 -0.5750 -1.9981  1.4637
29879SOL    HW295601  11.111  10.059   4.078 -0.1369  1.5390  0.9043
29880SOL     OW95602   7.335   2.032   3.314  0.7537 -0.1028 -0.2379
29880SOL    HW195603   7.240   2.038   3.326  0.7200  0.8279 -0.8018
29880SOL    HW295604   7.361   1.952   3.360 -0.5761 -1.4536 -1.7146
29881SOL     OW95605   2.291  11.441   3.090 -0.1051 -0.4354 -0.0578
29881SOL    HW195606   2.383  11.462   3.070  0.4354 -1.2021  1.4309
29881SOL    HW295607   2.245  11.524   3.080  1.2208  0.5673  1.6796
29882SOL     OW95608   1.794   2.339   4.802 -0.0098 -0.1833  0.0872
29882SOL    HW195609   1.770   2.414   4.856 -1.0882  0.3045 -1.0161
29882SOL    HW295610   1.728   2.273   4.822  0.7692 -0.7564  0.8398
29883SOL     OW95611   1.722   8.825  10.899  0.3796 -0.5362  0.4933
29883SOL    HW195612   1.732   8.762  10.970 -0.7304  0.9946  2.0952
29883SOL    HW295613   1.631   8.853  10.904  0.4355  0.0873 -1.1586
29884SOL     OW95614   7.315   5.357   9.101 -0.0995  0.0397  0.0849
29884SOL    HW195615   7.374   5.301   9.150 -0.3799 -0.2337  0.1133
29884SOL    HW295616   7.228   5.320   9.117 -0.2541  0.3050 -0.1336
29885SOL     OW95617  12.484   9.064   3.323 -0.0179 -0.4020 -0.3388
29885SOL    HW195618  12.541   9.065   3.245 -2.1730 -0.3771 -2.0116
29885SOL    HW295619  12.462   8.971   3.335 -3.1727 -0.0922 -2.5804
29886SOL     OW95620   8.233  11.375   5.966 -0.5606  0.1151 -0.6993
29886SOL    HW195621   8.270  11.459   5.992 -0.3062 -0.1326 -0.2528
29886SOL    HW295622   8.260  11.365   5.874  0.6619 -0.1377 -0.3337
29887SOL     OW95623   9.138   8.435   1.198 -0.6126 -0.3346 -0.2613
29887SOL    HW195624   9.164   8.487   1.274 -1.3946 -1.6800  0.9647
29887SOL    HW295625   9.205   8.454   1.133 -1.2778  2.7858 -0.1779
29888SOL     OW95626  11.009   7.937  11.401 -0.4790  0.1028  0.1687
29888SOL    HW195627  10.930   7.917  11.452 -0.4320 -1.2435 -0.2629
29888SOL    HW295628  10.989   7.907  11.312  0.0222  1.0070 -0.2643
29889SOL     OW95629   1.509   8.307   7.747  0.0327  0.3550 -0.4466
29889SOL    HW195630   1.552   8.249   7.809 -2.1754 -2.1909 -1.0931
29889SOL    HW295631   1.467   8.374   7.802  0.2183 -0.3476  0.5807
29890SOL     OW95632  10.251   6.760   4.628  0.1761  0.4506  0.1074
29890SOL    HW195633  10.267   6.674   4.588  1.5060  0.0248  1.4272
29890SOL    HW295634  10.178   6.744   4.689 -0.3524  0.5562 -0.4884
29891SOL     OW95635   2.090   7.701   1.373  0.0334 -0.3750  0.0125
29891SOL    HW195636   2.120   7.761   1.304  0.9620 -1.3234 -0.4549
29891SOL    HW295637   2.022   7.749   1.419 -0.1272  0.5550 -1.1362
29892SOL     OW95638   1.279  11.112  10.609  0.1782  0.2675 -0.5005
29892SOL    HW195639   1.281  11.124  10.514  1.1281 -1.3419 -0.7088
29892SOL    HW295640   1.327  11.188  10.643  2.7645 -0.8004 -1.5292
29893SOL     OW95641   7.024   5.195   8.835  0.3054  0.0986  0.8961
29893SOL    HW195642   6.976   5.199   8.918 -4.3975  1.8151 -1.5645
29893SOL    HW295643   7.052   5.285   8.819  1.8806 -0.3598  0.8574
29894SOL     OW95644   0.833   4.051   4.213 -0.2329 -0.3364  0.3567
29894SOL    HW195645   0.787   3.967   4.211  0.6471 -0.8104 -1.5934
29894SOL    HW295646   0.795   4.102   4.142  1.0711 -0.1107 -0.2120
29895SOL     OW95647  12.488  11.456   7.735 -0.1317  0.3049  0.0592
29895SOL    HW195648  12.464  11.429   7.646  0.8052 -0.2356 -0.0489
29895SOL    HW295649  12.521  11.545   7.725  2.5806 -0.6534 -0.6557
29896SOL     OW95650   1.373  10.728   8.940  0.0972  0.0525  0.1136
29896SOL    HW195651   1.294  10.705   8.891  0.1276  0.2605 -0.0357
29896SOL    HW295652   1.343  10.740   9.030  0.1789 -1.1112  0.3028
29897SOL     OW95653   2.594   4.425  10.284  0.3884  0.0800  0.0896
29897SOL    HW195654   2.619   4.501  10.337  0.0039 -0.5363  1.1887
29897SOL    HW295655   2.571   4.358  10.348 -1.5321 -0.2205 -0.8363
29898SOL     OW95656   8.657   1.080   9.444 -1.1205  0.1240  0.5151
29898SOL    HW195657   8.676   1.081   9.537  0.0256  0.2209  0.2950
29898SOL    HW295658   8.726   1.133   9.404 -0.0662 -1.9650 -0.6450
29899SOL     OW95659   2.269   6.270  11.424 -0.0163  0.4371 -0.3913
29899SOL    HW195660   2.316   6.338  11.376 -0.3556  1.6051  0.8562
29899SOL    HW295661   2.196   6.247  11.368  0.2575  0.9097 -0.9539
29900SOL     OW95662  11.556   5.383  11.955 -0.0664  0.3597  0.1999
29900SOL    HW195663  11.631   5.426  11.914  0.7360 -2.4692 -1.5749
29900SOL    HW295664  11.495   5.454  11.974  3.1143  2.8571  2.1215
29901SOL     OW95665   5.110   6.006   8.190  0.7451 -0.2946 -0.2263
29901SOL    HW195666   5.096   5.987   8.283 -0.4629 -0.5906 -0.4636
29901SOL    HW295667   5.184   5.950   8.165  0.9563 -0.3510  0.4973
29902SOL     OW95668   9.710  11.798  11.436 -0.0655 -0.2322  0.2503
29902SOL    HW195669   9.803  11.798  11.458 -0.0979 -2.0311  0.5401
29902SOL    HW295670   9.669  11.846  11.508  0.5521 -0.1230  0.5367
29903SOL     OW95671   9.772   2.420   4.103 -0.2376  0.6824 -0.6218
29903SOL    HW195672   9.682   2.450   4.095  0.0908  1.9538  0.1989
29903SOL    HW295673   9.772   2.369   4.184  0.0323  1.7533  0.0749
29904SOL     OW95674   6.437   6.073   7.686  0.1415 -0.0027  0.1118
29904SOL    HW195675   6.399   6.002   7.739 -1.5867 -0.1612 -1.2457
29904SOL    HW295676   6.469   6.029   7.607 -0.9509  0.7062 -0.7431
29905SOL     OW95677   8.912  12.477   2.711 -0.4295 -0.1157 -0.0195
29905SOL    HW195678   8.859  12.523   2.776  0.4190  0.1070  0.5296
29905SOL    HW295679   8.944  12.546   2.653 -0.2147 -0.1730  0.0316
29906SOL     OW95680   6.864   9.032   2.622 -0.0771 -0.1706  0.0470
29906SOL    HW195681   6.779   9.023   2.666 -0.0623  0.4575  0.2107
29906SOL    HW295682   6.846   9.087   2.546  0.0807 -0.5027 -0.2352
29907SOL     OW95683   0.083   4.407  10.139  0.6437 -0.0917  0.1989
29907SOL    HW195684   0.042   4.378  10.220 -2.8156  1.4317 -0.8120
29907SOL    HW295685   0.102   4.500  10.154  1.5609 -0.1970 -0.2114
29908SOL     OW95686   6.848   2.009   9.549 -0.2367  0.4657  0.0877
29908SOL    HW195687   6.772   2.067   9.546  1.4094  2.7439 -1.3134
29908SOL    HW295688   6.891   2.021   9.465 -0.2731 -3.6876 -0.7082
29909SOL     OW95689   6.171  12.090   1.006 -0.0262  0.0841 -0.2812
29909SOL    HW195690   6.255  12.050   1.025  0.8099  1.2210 -1.4145
29909SOL    HW295691   6.127  12.097   1.091  0.4124 -1.8114  0.1359
29910SOL     OW95692  10.852   8.718   7.956  0.6833 -0.0806  0.3088
29910SOL    HW195693  10.940   8.683   7.970  1.5397  1.8351 -0.0762
29910SOL    HW295694  10.845   8.730   7.862  0.4750  0.9249  0.4453
29911SOL     OW95695  10.793   8.942   0.717 -0.2911  0.0054 -0.4507
29911SOL    HW195696  10.804   8.847   0.713 -0.7078 -0.0245 -1.0760
29911SOL    HW295697  10.792   8.962   0.811  0.0751 -0.5713 -0.3169
29912SOL     OW95698   2.657  10.260  11.077 -0.5126  0.1336 -0.0139
29912SOL    HW195699   2.623  10.178  11.113 -0.0568 -0.8614 -1.6796
29912SOL    HW295700   2.735  10.233  11.028 -0.5848  1.4975 -0.9360
29913SOL     OW95701   5.413   5.273   9.095  0.4473 -0.3017  0.3402
29913SOL    HW195702   5.422   5.191   9.047 -0.5423 -0.5309  0.5335
29913SOL    HW295703   5.458   5.258   9.178 -0.0704 -0.7956  0.5385
29914SOL     OW95704   3.696   3.458   5.644  0.3572  0.1509  0.3214
29914SOL    HW195705   3.719   3.407   5.566 -0.0145 -0.9385  0.8953
29914SOL    HW295706   3.704   3.549   5.617 -0.3206 -0.1996 -1.1481
29915SOL     OW95707   4.131   1.618   3.119  0.0220  0.6068  0.2390
29915SOL    HW195708   4.039   1.594   3.123  0.6517 -2.4406 -0.6492
29915SOL    HW295709   4.178   1.534   3.123  2.7129  1.9453 -0.5954
29916SOL     OW95710   5.718  11.004   6.078 -0.0712  0.2771 -0.2163
29916SOL    HW195711   5.696  10.994   6.170 -1.2392  0.7678 -0.4293
29916SOL    HW295712   5.672  11.083   6.050  0.7220  0.4533 -1.0859
29917SOL     OW95713   6.230   2.428   4.844 -0.0555 -0.5103 -0.3066
29917SOL    HW195714   6.310   2.376   4.852 -1.5691 -2.9541  0.0885
29917SOL    HW295715   6.238   2.495   4.912  1.7791 -0.4587 -0.5244
29918SOL     OW95716   2.161  10.418   5.854 -0.5473  0.0756 -0.3444
29918SOL    HW195717   2.239  10.414   5.799  0.1885 -0.8661  0.7183
29918SOL    HW295718   2.127  10.328   5.855  0.6782 -0.4532  2.3752
29919SOL     OW95719   4.822   1.650   5.470  0.0038 -0.6172  0.2042
29919SOL    HW195720   4.895   1.658   5.409  0.6864  0.5480  1.1327
29919SOL    HW295721   4.744   1.651   5.415  0.5192  1.8131 -0.6130
29920SOL     OW95722  12.387  12.413   0.338 -0.1692  0.6228 -0.3464
29920SOL    HW195723  12.334  12.483   0.376 -1.8098 -0.5026 -0.4582
29920SOL    HW295724  12.368  12.416   0.245  0.2860  0.4669 -0.4440
29921SOL     OW95725   0.559   9.565   5.665  0.6705 -0.0338 -0.4988
29921SOL    HW195726   0.607   9.523   5.594 -0.2274 -1.3246 -0.3767
29921SOL    HW295727   0.469   9.534   5.655  0.5581 -0.4187  1.3173
29922SOL     OW95728  10.015  11.977   2.226 -0.7745 -0.7211  0.5676
29922SOL    HW195729  10.075  11.941   2.160 -2.8694 -0.2385 -1.7570
29922SOL    HW295730   9.947  11.911   2.234 -1.6166  0.1460  0.6875
29923SOL     OW95731   0.979   1.733   6.818 -0.0806  0.5824  0.0875
29923SOL    HW195732   1.010   1.818   6.787  1.8226  0.6742  2.0210
29923SOL    HW295733   1.011   1.670   6.753  1.8461  0.9862  0.5813
29924SOL     OW95734   5.607   2.310  11.241 -0.0741  0.6369  0.0233
29924SOL    HW195735   5.574   2.319  11.331 -0.4026 -0.8721  0.0826
29924SOL    HW295736   5.534   2.271  11.193  0.4243  0.5668 -0.6821
29925SOL     OW95737   5.631   0.402   6.839  0.3554  0.9300 -0.2658
29925SOL    HW195738   5.645   0.496   6.851  4.3834  0.6647 -1.1399
29925SOL    HW295739   5.641   0.365   6.927 -0.8615  1.2392  0.0208
29926SOL     OW95740   6.544  11.999   3.905 -0.3923 -0.1360 -0.0239
29926SOL    HW195741   6.603  11.973   3.834 -1.9200  1.4478 -1.9956
29926SOL    HW295742   6.530  11.918   3.955  4.5975 -0.3412  1.6392
29927SOL     OW95743   8.425   7.944   5.280 -0.4926  0.5327  0.2691
29927SOL    HW195744   8.410   7.861   5.326 -0.4355  0.9469  1.0629
29927SOL    HW295745   8.383   7.933   5.195 -2.0631  0.3330  1.0410
29928SOL     OW95746  11.300  11.127   8.213 -0.3282 -0.0970 -0.0307
29928SOL    HW195747  11.228  11.190   8.222  0.2431  0.5088  0.3732
29928SOL    HW295748  11.335  11.118   8.301  0.7154  0.3720 -0.3839
29929SOL     OW95749   0.292  11.350   6.530 -0.2542  0.0256 -0.2276
29929SOL    HW195750   0.383  11.324   6.538 -0.4522 -1.1741 -1.5341
29929SOL    HW295751   0.270  11.388   6.615  1.2516 -0.3075  0.3318
29930SOL     OW95752   6.215   2.641   0.042 -0.2806  0.3900 -0.8893
29930SOL    HW195753   6.198   2.727   0.005 -0.2029  1.2265  0.9228
29930SOL    HW295754   6.132   2.594   0.035 -0.6799  1.0684 -0.7653
29931SOL     OW95755   3.336   8.597  12.028  0.1806  0.0269  0.3472
29931SOL    HW195756   3.350   8.688  12.001 -4.0923  0.3450 -1.5575
29931SOL    HW295757   3.323   8.549  11.947 -1.3499 -1.4792  1.4084
29932SOL     OW95758   1.277  10.978   9.964 -0.1820 -0.1428 -0.2386
29932SOL    HW195759   1.183  10.969   9.978 -0.1660 -0.4388 -0.3176
29932SOL    HW295760   1.292  11.073   9.959 -0.6171 -0.1129 -1.1688
29933SOL     OW95761   6.108   1.870   4.799  0.2063 -0.2824 -0.0641
29933SOL    HW195762   6.187   1.899   4.845 -0.6889  0.6205  0.9464
29933SOL    HW295763   6.070   1.804   4.856  0.1526 -0.6330 -0.4988
29934SOL     OW95764   6.184   5.032   7.623 -0.2093 -0.5956  0.0842
29934SOL    HW195765   6.254   5.081   7.579 -0.5075  0.6604  0.9761
29934SOL    HW295766   6.224   5.000   7.703 -0.5126 -0.2941  0.3588
29935SOL     OW95767  11.147   6.932  10.438  0.4357 -0.2290 -0.0376
29935SOL    HW195768  11.232   6.963  10.407  0.9054 -1.5026 -0.0473
29935SOL    HW295769  11.108   7.009  10.480  1.4780  0.4333 -0.2455
29936SOL     OW95770   3.267   2.601  11.836  0.4092 -0.0987  0.0747
29936SOL    HW195771   3.292   2.580  11.926  0.3410  2.6694  0.8235
29936SOL    HW295772   3.175   2.576  11.830 -0.0856  1.3233  1.3695
29937SOL     OW95773  10.423   7.574  10.052  0.0097 -0.3173 -0.0065
29937SOL    HW195774  10.415   7.614  10.139 -2.2739 -1.3805  0.3517
29937SOL    HW295775  10.505   7.525  10.055  0.4346  0.4201  1.2073
29938SOL     OW95776   4.621   2.060  10.738 -0.7902 -0.6627  0.5155
29938SOL    HW195777   4.622   2.133  10.800 -0.5785 -0.0273 -0.2100
29938SOL    HW295778   4.553   2.085  10.674  1.0483  0.1997 -1.2127
29939SOL     OW95779   6.530   4.682   0.498 -0.1047 -0.2528 -0.5200
29939SOL    HW195780   6.619   4.686   0.533 -0.1705  0.2622 -0.4067
29939SOL    HW295781   6.482   4.629   0.562 -0.0104 -0.0700 -0.2964
29940SOL     OW95782   6.441   3.061   1.598  0.4552  0.8811  0.7206
29940SOL    HW195783   6.447   3.113   1.678  0.7059 -0.8956  1.9136
29940SOL    HW295784   6.354   3.021   1.602  0.3188  1.0819 -0.1029
29941SOL     OW95785   1.368   3.388  12.384  0.0246 -0.0333 -0.1599
29941SOL    HW195786   1.375   3.355  12.474 -0.2778 -0.3670 -0.2554
29941SOL    HW295787   1.282   3.358  12.354  0.0932  0.1380 -0.5363
29942SOL     OW95788   6.870   3.779   2.785 -1.0394  0.1129 -0.1307
29942SOL    HW195789   6.904   3.689   2.791 -0.7070  0.3200  1.6260
29942SOL    HW295790   6.945   3.831   2.758 -0.6697  0.1393  0.8891
29943SOL     OW95791   2.971   4.371   8.194  0.4790  0.3317  0.0592
29943SOL    HW195792   2.954   4.458   8.157 -0.6293  0.4335  0.7575
29943SOL    HW295793   2.948   4.380   8.287  3.1492  0.0750  0.8204
29944SOL     OW95794  11.807  10.210   5.525 -0.2949  0.3423 -0.5111
29944SOL    HW195795  11.866  10.216   5.450  0.6786  0.2889  0.2416
29944SOL    HW295796  11.724  10.182   5.487  0.8604 -2.3559 -1.2773
29945SOL     OW95797   0.385  12.106  11.123 -0.4563  0.5645  0.3598
29945SOL    HW195798   0.366  12.030  11.179  1.4199 -1.1135 -1.1344
29945SOL    HW295799   0.474  12.132  11.148 -1.2221  2.5966  1.1343
29946SOL     OW95800   1.288   3.258   3.992  0.3200 -0.5473 -0.4097
29946SOL    HW195801   1.222   3.250   4.060  0.4499  0.9351 -0.0843
29946SOL    HW295802   1.306   3.352   3.985 -0.8302 -0.4360 -3.6030
29947SOL     OW95803   5.312   2.291   2.435  0.2322  0.4541 -0.0954
29947SOL    HW195804   5.380   2.224   2.439  0.4362  0.7010  0.7807
29947SOL    HW295805   5.296   2.315   2.527 -1.2273  0.2063 -0.2608
29948SOL     OW95806  11.777   1.215   2.352 -0.2398  0.4483  0.3284
29948SOL    HW195807  11.713   1.282   2.376 -0.6099 -0.3571  1.7032
29948SOL    HW295808  11.862   1.255   2.371 -0.2249  1.8789 -2.4159
29949SOL     OW95809   2.096  11.046   2.613 -0.2409  0.2495  0.3838
29949SOL    HW195810   2.189  11.021   2.616 -0.2764 -0.0824  4.2041
29949SOL    HW295811   2.097  11.139   2.591  0.9762  0.1561 -0.0386
29950SOL     OW95812   1.101   9.539  10.950 -0.0576  0.4041 -0.6776
29950SOL    HW195813   1.111   9.544  10.855  1.5933 -1.8562 -0.7144
29950SOL    HW295814   1.016   9.497  10.963 -0.4116  0.9705 -1.1331
29951SOL     OW95815   4.056  10.856  10.820 -0.7791 -0.3268  0.1884
29951SOL    HW195816   4.000  10.789  10.780 -1.3487  0.2474  0.0099
29951SOL    HW295817   3.999  10.932  10.831  0.1039  0.4773 -0.5530
29952SOL     OW95818   4.311   2.215   6.954  0.3725  0.7319  0.3035
29952SOL    HW195819   4.385   2.155   6.944 -1.0867 -1.5792  2.2562
29952SOL    HW295820   4.340   2.277   7.021  1.0937  0.8431 -0.1015
29953SOL     OW95821  11.426   6.869   4.357  0.5194  0.2161  0.0400
29953SOL    HW195822  11.441   6.778   4.331  0.2294  0.1954 -0.0609
29953SOL    HW295823  11.403   6.913   4.276 -0.6126  0.1033  0.2843
29954SOL     OW95824   4.958   9.038   1.974  0.4333  0.5857 -0.3328
29954SOL    HW195825   4.980   9.104   1.908  1.5708 -1.4442 -2.1187
29954SOL    HW295826   5.018   8.966   1.956 -1.4763 -1.3999  0.8145
29955SOL     OW95827   1.448   5.763   2.931 -0.2424  0.0440 -0.1196
29955SOL    HW195828   1.460   5.842   2.984 -0.1115 -0.0552  0.0021
29955SOL    HW295829   1.488   5.693   2.984  0.5823  0.0693 -0.6811
29956SOL     OW95830   7.339   1.746   7.109 -0.4176  0.1215 -0.4435
29956SOL    HW195831   7.358   1.790   7.026  0.9119 -1.5268 -1.0703
29956SOL    HW295832   7.424   1.719   7.142 -0.7743  1.8298  2.1740
29957SOL     OW95833   2.480   7.097   4.990 -0.2087 -0.1388 -0.4605
29957SOL    HW195834   2.501   7.080   5.082 -0.6086 -1.7566 -0.6293
29957SOL    HW295835   2.452   7.189   4.988  0.7637  0.2085  0.8428
29958SOL     OW95836  11.513   4.369   0.712 -0.6642  0.3346 -0.4014
29958SOL    HW195837  11.571   4.420   0.656  0.2956  1.9671  1.9270
29958SOL    HW295838  11.426   4.381   0.673  0.2332 -0.5869 -2.8483
29959SOL     OW95839   6.160   6.688   2.125 -0.4764  0.7170 -0.1435
29959SOL    HW195840   6.221   6.763   2.132  0.1259  0.3105 -0.8903
29959SOL    HW295841   6.186   6.630   2.197 -0.3375  0.7987 -0.1264
29960SOL     OW95842   1.056   0.623   7.850  0.6611  0.6559  0.0326
29960SOL    HW195843   1.093   0.711   7.837 -0.1970  0.9200 -0.7351
29960SOL    HW295844   0.961   0.635   7.843  0.5323 -0.3356 -0.1005
29961SOL     OW95845   9.820  11.710  10.422  0.1999  0.3694 -0.1050
29961SOL    HW195846   9.758  11.770  10.463 -0.5157 -0.2189 -0.3085
29961SOL    HW295847   9.769  11.631  10.403  0.8493  0.1085 -0.8485
29962SOL     OW95848  11.511   7.597   5.262 -0.0687  0.4725  0.3033
29962SOL    HW195849  11.600   7.570   5.240  0.0289 -0.7658  1.9514
29962SOL    HW295850  11.464   7.598   5.178  0.5557 -2.6609 -0.2178
29963SOL     OW95851  10.465   3.632   1.503 -0.2506  0.4999  0.2310
29963SOL    HW195852  10.425   3.709   1.542 -1.8961 -0.2695  0.1731
29963SOL    HW295853  10.437   3.560   1.559 -0.3493 -0.2833 -0.7819
29964SOL     OW95854   4.090   5.686   3.702 -0.6502 -0.4052  0.4867
29964SOL    HW195855   3.997   5.668   3.718 -0.8262 -1.8009 -1.7416
29964SOL    HW295856   4.136   5.614   3.746 -0.9164 -2.0441 -1.7595
29965SOL     OW95857  12.467  12.165  10.447 -0.3130 -0.5007  0.7373
29965SOL    HW195858  12.381  12.206  10.432  0.2805  1.0857  1.4189
29965SOL    HW295859  12.459  12.078  10.408 -1.6264  0.2834 -0.8895
29966SOL     OW95860   9.916   9.294   9.831 -0.2141 -0.2833 -0.0874
29966SOL    HW195861   9.837   9.248   9.800  1.2762 -1.3089 -2.6761
29966SOL    HW295862   9.973   9.224   9.864  0.1545  0.3065  0.5529
29967SOL     OW95863   7.057  11.214  10.118 -0.1646  0.1684  0.0117
29967SOL    HW195864   6.991  11.157  10.158 -0.4333 -0.1726 -0.8859
29967SOL    HW295865   7.023  11.231  10.031  1.4759 -0.9575 -0.9133
29968SOL     OW95866   7.944   3.093  10.216  0.1891  0.2730  0.3943
29968SOL    HW195867   8.001   3.107  10.292  1.8617  0.1047 -0.7715
29968SOL    HW295868   7.988   3.139  10.145 -0.1504 -1.4257 -0.9806
29969SOL     OW95869  11.169   6.889   4.648 -0.2591 -0.2868  0.1560
29969SOL    HW195870  11.102   6.853   4.706  0.2439  0.3655  1.1594
29969SOL    HW295871  11.246   6.835   4.663  0.0858  0.3303  0.6424
29970SOL     OW95872   6.074   4.988   8.636  0.3672  0.3333 -0.5681
29970SOL    HW195873   5.979   4.984   8.626  0.0792 -0.8142  1.8169
29970SOL    HW295874   6.088   5.069   8.685  0.2361 -0.9427  1.7153
29971SOL     OW95875   5.181   3.779   6.440 -0.0511  0.1908 -0.3777
29971SOL    HW195876   5.163   3.827   6.359  0.7218  0.3184 -0.4797
29971SOL    HW295877   5.165   3.687   6.417  2.7327 -0.1154 -1.5001
29972SOL     OW95878   4.168  10.136   2.679  0.1153  0.6007  0.2195
29972SOL    HW195879   4.249  10.133   2.627 -0.9863 -0.8192 -1.5405
29972SOL    HW295880   4.157  10.046   2.711 -0.8904  0.7159  0.2161
29973SOL     OW95881   4.749   5.909   6.432 -0.4639  0.4551  0.5278
29973SOL    HW195882   4.812   5.868   6.491  0.8146  3.4651  1.4544
29973SOL    HW295883   4.685   5.841   6.414  2.2756 -2.3517  0.6489
29974SOL     OW95884   8.595  11.199   8.653 -0.1020 -0.0435 -0.0821
29974SOL    HW195885   8.546  11.147   8.717 -0.4511  2.2497  1.6368
29974SOL    HW295886   8.528  11.250   8.608  0.4705  4.0892  3.1664
29975SOL     OW95887  10.314   8.120   7.108  0.4943 -0.8598  0.6900
29975SOL    HW195888  10.368   8.096   7.184 -0.3341  0.5851  1.7766
29975SOL    HW295889  10.244   8.174   7.144  1.4186  1.9287 -1.3658
29976SOL     OW95890   8.441   1.378   1.307 -0.2864 -0.0926  0.8680
29976SOL    HW195891   8.454   1.287   1.333  1.1513  0.2702  1.4695
29976SOL    HW295892   8.493   1.429   1.369  0.6805  0.9934 -0.7616
29977SOL     OW95893  10.859  11.933  10.345  0.0746 -0.1493 -0.7795
29977SOL    HW195894  10.920  11.910  10.275 -0.2262  0.0932 -1.1267
29977SOL    HW295895  10.831  12.023  10.324  1.9729  0.9484  1.0860
29978SOL     OW95896   9.299  11.166   7.672  0.0050  0.0018 -0.6025
29978SOL    HW195897   9.381  11.217   7.675  0.4886 -0.7695 -0.5665
29978SOL    HW295898   9.272  11.171   7.581 -1.0983  2.0856 -0.2316
29979SOL     OW95899   4.426   9.052   4.657  0.0055  0.2201  0.6860
29979SOL    HW195900   4.468   8.972   4.624 -1.5796 -1.3770  2.2984
29979SOL    HW295901   4.395   9.097   4.578  0.3060 -1.1400 -0.2414
29980SOL     OW95902   3.229  12.000  10.230 -0.5099 -0.3651 -0.4081
29980SOL    HW195903   3.298  12.066  10.243 -0.3801 -0.4612 -0.5952
29980SOL    HW295904   3.274  11.916  10.240 -0.8352 -0.4272  0.6269
29981SOL     OW95905  12.031  11.365   6.319 -0.0508  0.4843 -0.0221
29981SOL    HW195906  12.119  11.391   6.291  0.6770 -0.6719  1.1216
29981SOL    HW295907  12.001  11.438   6.374  1.5312 -0.4679  2.2414
29982SOL     OW95908   7.538   1.467   3.938  0.1115  0.1071  0.5603
29982SOL    HW195909   7.564   1.390   3.888  1.1747 -1.0607  2.7869
29982SOL    HW295910   7.475   1.435   4.002  1.2062  0.8435  2.0916
29983SOL     OW95911   1.925   9.199   0.882 -0.1195  1.1878  0.4451
29983SOL    HW195912   2.019   9.216   0.868 -0.1393  0.1900 -1.0675
29983SOL    HW295913   1.922   9.145   0.961  0.3293  3.5156  2.1772
29984SOL     OW95914   6.134  10.161   6.676  0.3386  0.0482 -0.0521
29984SOL    HW195915   6.147  10.109   6.597  0.4102  0.6413 -0.4332
29984SOL    HW295916   6.086  10.103   6.735  0.3719 -0.4307 -0.4904
29985SOL     OW95917   3.788   1.974  10.275 -0.5678  0.4386  0.5035
29985SOL    HW195918   3.745   1.897  10.239  0.5688  0.4623 -1.0008
29985SOL    HW295919   3.785   1.961  10.370 -3.6083  0.3453  0.4814
29986SOL     OW95920  11.105   5.606   1.299  0.7466 -0.3821  0.1139
29986SOL    HW195921  11.099   5.700   1.283 -2.2203 -0.4290  0.3778
29986SOL    HW295922  11.059   5.593   1.382  0.9908 -2.0729  0.0248
29987SOL     OW95923   9.015   1.110   8.235 -0.0290 -0.5358 -0.2063
29987SOL    HW195924   8.937   1.082   8.188  0.1150 -0.5558 -0.4330
29987SOL    HW295925   8.989   1.110   8.327 -0.2100 -0.8271 -0.2581
29988SOL     OW95926   1.127   1.515   0.823 -0.1688 -0.3346 -0.4147
29988SOL    HW195927   1.051   1.515   0.881  0.1079  0.0002 -0.0467
29988SOL    HW295928   1.161   1.604   0.828  0.6145 -0.6401 -0.0892
29989SOL     OW95929   2.175  10.507   4.254  0.0484 -0.1293 -0.0802
29989SOL    HW195930   2.220  10.455   4.188 -0.5749 -1.0954  0.2349
29989SOL    HW295931   2.091  10.462   4.268  0.1483  0.0710  1.3438
29990SOL     OW95932   8.287   5.244   0.044 -0.6807 -0.9311 -0.2613
29990SOL    HW195933   8.377   5.214   0.034 -0.4881 -0.6454  0.5536
29990SOL    HW295934   8.254   5.199   0.121 -0.5523  0.5183  0.6764
29991SOL     OW95935   3.320   6.350   6.615  0.4517 -0.4771  0.0533
29991SOL    HW195936   3.400   6.335   6.665  0.1020 -1.3979  0.3598
29991SOL    HW295937   3.253   6.299   6.661 -0.8477  2.0560  1.1444
29992SOL     OW95938   7.280   9.053   3.370 -0.6141 -0.0390  0.0833
29992SOL    HW195939   7.259   8.973   3.322 -0.2743  0.3207 -0.6810
29992SOL    HW295940   7.213   9.116   3.343 -2.0775 -0.5877  2.1603
29993SOL     OW95941   9.478  11.554   7.784 -0.3058  0.5067 -0.0047
29993SOL    HW195942   9.553  11.530   7.838  0.5787 -0.3456 -1.5337
29993SOL    HW295943   9.407  11.497   7.815 -0.2265  1.0207  1.1708
29994SOL     OW95944   2.680   2.480   1.770  0.2009 -0.4720  0.6069
29994SOL    HW195945   2.666   2.564   1.727  0.2284 -0.6620  0.2174
29994SOL    HW295946   2.671   2.498   1.863 -0.2788 -0.1356  0.4958
29995SOL     OW95947   9.965   7.346   7.789  0.0775  0.0301  0.2262
29995SOL    HW195948  10.025   7.340   7.863 -0.4668 -0.1946  0.6591
29995SOL    HW295949   9.890   7.395   7.824 -0.0570  0.1741 -0.2601
29996SOL     OW95950   1.518   1.652   1.577 -0.0420  0.4893 -0.0307
29996SOL    HW195951   1.504   1.656   1.672 -1.0933  1.5506 -0.2027
29996SOL    HW295952   1.603   1.693   1.564  0.1396  0.2790  0.4577
29997SOL     OW95953   6.211   5.687   1.088 -0.2236 -0.4216  0.3909
29997SOL    HW195954   6.174   5.740   1.018  1.4379  1.0771  0.5744
29997SOL    HW295955   6.275   5.631   1.045 -0.8011 -1.1373  0.4329
29998SOL     OW95956   7.833  10.357   9.643 -0.2884  0.1673 -0.3058
29998SOL    HW195957   7.789  10.294   9.585 -1.5298  1.5805 -0.9712
29998SOL    HW295958   7.924  10.360   9.611 -0.3828 -0.7927 -0.6815
29999SOL     OW95959   9.781  11.441   5.626 -0.5318 -0.2695  0.0690
29999SOL    HW195960   9.867  11.416   5.591 -1.0856 -1.3808 -0.5173
29999SOL    HW295961   9.793  11.532   5.653  1.1436 -0.7002  0.9851
30000SOL     OW95962   5.753  12.400   5.140  0.3983  0.1537  0.2750
30000SOL    HW195963   5.779  12.370   5.227 -0.7786  2.4418  1.5088
30000SOL    HW295964   5.794  12.487   5.132  1.3351 -0.4232 -1.9166
30001SOL     OW95965   8.612   1.302   2.326  0.4391 -0.1399 -0.5738
30001SOL    HW195966   8.642   1.388   2.354  0.3784 -0.1296 -0.5405
30001SOL    HW295967   8.535   1.320   2.271  1.1607 -0.0969 -1.5913
30002SOL     OW95968   6.578   4.698   6.131  0.0192 -0.7251 -0.2119
30002SOL    HW195969   6.655   4.723   6.080 -0.5111 -1.0580 -1.1968
30002SOL    HW295970   6.563   4.606   6.108 -3.3359  0.4293 -3.6594
30003SOL     OW95971   1.710   4.018   0.290  0.0310  0.4455  0.2921
30003SOL    HW195972   1.776   4.075   0.249 -1.0019  0.2643 -1.7399
30003SOL    HW295973   1.688   3.954   0.222 -0.7673 -0.7636  1.6402
30004SOL     OW95974   4.225   8.975   8.798  0.6847 -0.3860  0.1001
30004SOL    HW195975   4.178   8.902   8.758  2.5225 -0.6057 -1.8731
30004SOL    HW295976   4.160   9.020   8.851 -1.9547 -0.2470 -2.9536
30005SOL     OW95977   0.534   2.555   5.161 -0.0707  0.1375 -0.1707
30005SOL    HW195978   0.519   2.470   5.204 -1.6042 -0.1701 -1.2381
30005SOL    HW295979   0.466   2.612   5.198  0.5225  0.7267  0.0299
30006SOL     OW95980   9.314   6.097   7.455  0.1696 -0.1558 -0.2220
30006SOL    HW195981   9.399   6.095   7.499  1.5626 -0.9936 -2.7731
30006SOL    HW295982   9.289   6.004   7.447 -1.1457  0.0846  0.7041
30007SOL     OW95983   8.883   8.190   2.974  0.1998  0.2671 -0.2975
30007SOL    HW195984   8.826   8.116   2.954 -1.0317  1.1107 -0.0429
30007SOL    HW295985   8.962   8.173   2.924  0.2623 -1.6054  0.3615
30008SOL     OW95986   0.337   0.903   0.082  0.0461 -0.2881 -0.5467
30008SOL    HW195987   0.242   0.916   0.081  0.1312  0.6995  0.7801
30008SOL    HW295988   0.373   0.992   0.078  0.8892 -0.6110 -0.3768
30009SOL     OW95989   1.953   2.546   5.777  0.4308 -0.4690  0.0137
30009SOL    HW195990   1.983   2.492   5.704 -1.1347  0.0683 -1.0713
30009SOL    HW295991   1.961   2.490   5.854  1.2771 -1.3420 -0.6848
30010SOL     OW95992   2.310  11.712   1.413  0.3310  0.4880  1.0388
30010SOL    HW195993   2.251  11.745   1.481  0.0824  1.1495  0.5079
30010SOL    HW295994   2.393  11.758   1.429  0.0973  1.0898  0.5334
30011SOL     OW95995   4.240   5.356  10.177  0.3680  0.2409  0.1973
30011SOL    HW195996   4.173   5.388  10.237 -0.8328 -0.6104 -0.6510
30011SOL    HW295997   4.261   5.268  10.209 -0.3662 -0.2652 -0.6788
30012SOL     OW95998   5.472   9.475   1.221  0.2969  0.2002 -0.8293
30012SOL    HW195999   5.563   9.472   1.192  1.4216  1.2230  2.2088
30012SOL    HW296000   5.451   9.568   1.225  0.2636  0.1549  1.4550
30013SOL     OW96001   3.535   9.500   4.507 -0.2103 -0.1499  0.2407
30013SOL    HW196002   3.465   9.479   4.445 -0.7420  0.0702  0.7622
30013SOL    HW296003   3.535   9.426   4.569  0.4004 -0.4301 -0.0870
30014SOL     OW96004   1.064  10.940   8.197  0.2149 -0.0739  0.4445
30014SOL    HW196005   1.140  10.964   8.250  0.6752 -0.0006 -0.2287
30014SOL    HW296006   1.087  10.968   8.108 -0.0441 -1.2602 -0.0149
30015SOL     OW96007   0.063   0.448   3.397 -0.1779  0.3262 -0.1370
30015SOL    HW196008   0.095   0.425   3.310  0.3962  0.3100  0.0780
30015SOL    HW296009   0.007   0.375   3.422  2.0287 -1.1613  0.7582
30016SOL     OW96010   7.020   2.717   1.632 -0.8733 -0.0665 -0.0424
30016SOL    HW196011   7.041   2.679   1.546 -0.6891  0.4199 -0.2132
30016SOL    HW296012   6.977   2.645   1.680 -0.9697 -0.3412 -0.5354
30017SOL     OW96013  10.678   9.773  12.066 -0.0366 -0.0098 -0.5249
30017SOL    HW196014  10.638   9.791  11.981  0.3503  1.7254 -0.3779
30017SOL    HW296015  10.756   9.722  12.045 -0.9106 -1.1982 -1.0248
30018SOL     OW96016  10.217   1.686   3.351 -0.3634  0.3502 -0.0093
30018SOL    HW196017  10.253   1.744   3.418 -0.5898 -1.2279  1.5359
30018SOL    HW296018  10.241   1.598   3.379  0.4988 -0.3457 -2.6076
30019SOL     OW96019   2.438   2.117  11.701 -0.5297 -0.2134 -0.0374
30019SOL    HW196020   2.444   2.073  11.616 -0.1429  0.0200 -0.1325
30019SOL    HW296021   2.427   2.210  11.679 -0.9821 -0.2156  0.1656
30020SOL     OW96022   1.030   7.566   4.650 -0.1640  0.0121 -0.1529
30020SOL    HW196023   1.070   7.574   4.563  0.1714 -0.4857 -0.0504
30020SOL    HW296024   1.037   7.654   4.688 -0.1004  0.1761 -0.5359
30021SOL     OW96025   9.840   5.182   2.987  0.1839  0.2556 -0.0831
30021SOL    HW196026   9.910   5.120   3.008 -0.1163  0.7021  2.4693
30021SOL    HW296027   9.761   5.143   3.025 -0.2371  1.6141  0.4765
30022SOL     OW96028   1.410   8.852  12.194  0.6672 -0.4538  0.2427
30022SOL    HW196029   1.321   8.823  12.212  0.8288 -0.9496  0.2610
30022SOL    HW296030   1.462   8.772  12.192  0.8965 -0.2984 -1.0701
30023SOL     OW96031   8.811   2.460   5.802  0.1120 -0.0261  0.0592
30023SOL    HW196032   8.786   2.551   5.819 -0.9902 -0.0698 -1.2248
30023SOL    HW296033   8.906   2.464   5.787  0.5378  0.5149  2.4698
30024SOL     OW96034   0.868   8.366   3.869 -0.4167 -0.5016  0.2411
30024SOL    HW196035   0.773   8.360   3.872 -0.3287 -2.7486  3.1308
30024SOL    HW296036   0.890   8.426   3.940  0.3366  0.5376 -0.8417
30025SOL     OW96037   3.892   8.120  11.623  0.0979  0.0168  0.0267
30025SOL    HW196038   3.911   8.164  11.706  0.3971 -1.1072  0.5814
30025SOL    HW296039   3.966   8.144  11.566 -0.0457  0.6912  0.1103
30026SOL     OW96040   0.320  11.929   6.382  0.1417 -0.1787 -0.4673
30026SOL    HW196041   0.297  11.839   6.358 -0.2862 -0.4658  0.9366
30026SOL    HW296042   0.397  11.949   6.328  0.7274 -1.6652 -0.2363
30027SOL     OW96043  10.486   4.126   8.657  0.0288  0.4955 -0.3424
30027SOL    HW196044  10.463   4.192   8.592  0.6907  1.1795  0.0980
30027SOL    HW296045  10.548   4.170   8.715  0.0035 -0.3248  0.3293
30028SOL     OW96046   7.190  10.375   2.689 -0.0358 -0.1488 -0.0125
30028SOL    HW196047   7.154  10.288   2.672 -0.0330 -0.9053  3.2574
30028SOL    HW296048   7.262  10.361   2.750 -1.0157  2.2259  1.8611
30029SOL     OW96049   3.601   6.138   1.502  0.5490 -0.0789 -0.0577
30029SOL    HW196050   3.601   6.048   1.536  0.0453  0.2238  0.7598
30029SOL    HW296051   3.517   6.147   1.458  0.9487 -0.2704 -0.8884
30030SOL     OW96052   5.253   4.360   7.879 -0.4371  0.0032  0.4627
30030SOL    HW196053   5.264   4.316   7.964 -2.1659  0.9159  1.2025
30030SOL    HW296054   5.265   4.453   7.900 -1.3824  0.2763 -0.2005
30031SOL     OW96055   8.162  10.258   4.714 -0.1242  0.1273  0.5284
30031SOL    HW196056   8.162  10.313   4.793 -0.8409 -0.1945  0.7542
30031SOL    HW296057   8.077  10.273   4.674 -0.1756 -0.5259  0.3845
30032SOL     OW96058   2.927   5.294   5.053  0.1539 -0.3263 -0.4496
30032SOL    HW196059   2.866   5.225   5.077  0.3256  0.1975  1.6696
30032SOL    HW296060   3.009   5.271   5.097  0.1025  1.3721  0.6439
30033SOL     OW96061   0.658   4.521   8.610 -0.4173 -0.0285 -0.0032
30033SOL    HW196062   0.686   4.470   8.534  0.2771  0.5849 -0.1679
30033SOL    HW296063   0.739   4.548   8.652 -0.7794  0.7362  0.2153
30034SOL     OW96064   4.783   2.667   7.354  0.1445  0.0036  0.4628
30034SOL    HW196065   4.807   2.675   7.447 -0.1413 -0.7322  0.6019
30034SOL    HW296066   4.820   2.746   7.314  1.7383 -0.4869  0.8907
30035SOL     OW96067   3.794   1.180   3.559  0.3460 -0.1939 -0.0017
30035SOL    HW196068   3.813   1.091   3.529 -2.8794 -0.7344 -0.8247
30035SOL    HW296069   3.809   1.177   3.654 -1.6309 -2.3217  0.3395
30036SOL     OW96070   2.648  12.268   0.309 -0.2170 -0.0253  0.2022
30036SOL    HW196071   2.600  12.197   0.266 -3.0418  1.4984  0.6054
30036SOL    HW296072   2.649  12.339   0.246 -0.7307  0.8218  1.1127
30037SOL     OW96073  10.770   0.979   1.637 -0.1866  0.3709  0.5505
30037SOL    HW196074  10.695   0.920   1.649  0.6013 -0.9886 -0.9244
30037SOL    HW296075  10.847   0.923   1.650  0.6260  0.4423 -2.9544
30038SOL     OW96076  11.994   4.458  12.355  0.0605 -0.1839 -0.0437
30038SOL    HW196077  11.939   4.472  12.278  0.4916  1.4042 -0.0922
30038SOL    HW296078  11.993   4.363  12.368 -2.2027 -0.2646 -0.3872
30039SOL     OW96079   4.904   0.318   2.073  0.2325 -0.2198 -0.0153
30039SOL    HW196080   4.963   0.281   2.008 -0.1755 -0.6291 -0.1551
30039SOL    HW296081   4.833   0.357   2.022  0.1744 -0.0838  0.1663
30040SOL     OW96082  12.378   0.486   8.870  0.5270  0.3167  0.0868
30040SOL    HW196083  12.362   0.421   8.801  0.9825 -0.5383  0.7549
30040SOL    HW296084  12.391   0.433   8.949 -0.0470  1.2836  0.8425
30041SOL     OW96085   4.538   9.700   2.290  0.0472 -0.4865 -0.2491
30041SOL    HW196086   4.610   9.662   2.239 -0.3016 -0.5745 -0.6796
30041SOL    HW296087   4.471   9.632   2.292  0.8718 -1.3189  2.1340
30042SOL     OW96088   1.389  12.151   8.904  0.3826  0.0667  0.4671
30042SOL    HW196089   1.409  12.075   8.849 -0.5853 -0.1955  0.4613
30042SOL    HW296090   1.445  12.221   8.870  0.4380 -0.3349 -0.2784
30043SOL     OW96091   5.684   2.472   5.585  0.1362 -0.2411  0.5887
30043SOL    HW196092   5.739   2.549   5.594  0.4029 -0.4286  0.5709
30043SOL    HW296093   5.618   2.496   5.520 -1.3275  0.8689  2.3952
30044SOL     OW96094   7.022   7.091   4.146  0.0045  0.1424  0.4920
30044SOL    HW196095   6.963   7.154   4.105 -1.3705 -1.0420  0.5968
30044SOL    HW296096   7.004   7.099   4.240  1.2259  0.9430  0.6854
30045SOL     OW96097   5.737   2.778  11.565  0.8061  0.1977 -0.4805
30045SOL    HW196098   5.665   2.720  11.543 -0.4090  2.1125 -1.8049
30045SOL    HW296099   5.727   2.794  11.659 -1.1496  1.2114 -0.8134
30046SOL     OW96100  11.140   0.208   1.564 -0.2280  0.0423 -0.6493
30046SOL    HW196101  11.050   0.184   1.542 -0.1634  0.4088 -1.3362
30046SOL    HW296102  11.180   0.125   1.591 -1.2279  0.1525  1.3926
30047SOL     OW96103  10.769   3.154   8.818 -0.3086 -0.2305  0.0832
30047SOL    HW196104  10.760   3.125   8.727 -1.1253  0.0100  0.0843
30047SOL    HW296105  10.732   3.242   8.820 -0.1351 -0.1627  0.6173
30048SOL     OW96106   4.654   4.912  10.910  0.3184  0.1768  0.1068
30048SOL    HW196107   4.671   4.977  10.979  1.4384  1.0316 -0.9349
30048SOL    HW296108   4.738   4.869  10.897 -0.0771 -0.5067 -0.2045
30049SOL     OW96109   5.581   5.560  12.281  0.0677 -0.4696  0.2206
30049SOL    HW196110   5.543   5.533  12.365 -2.3753  0.0877 -0.6256
30049SOL    HW296111   5.511   5.608  12.237  1.6034  0.1046 -1.7495
30050SOL     OW96112   6.154   6.448   3.996  0.3534  0.1864  0.1655
30050SOL    HW196113   6.219   6.428   4.064  1.4546 -0.3715 -1.0170
30050SOL    HW296114   6.105   6.367   3.985  0.6423  0.0614 -0.2005
30051SOL     OW96115   3.435   7.567   1.030  0.1389  0.1700  0.0471
30051SOL    HW196116   3.411   7.574   1.122 -2.1065 -0.6675 -0.4003
30051SOL    HW296117   3.382   7.634   0.986  0.9716  0.3703 -0.6828
30052SOL     OW96118   0.249   6.033   2.133  0.1728 -0.2895 -0.4988
30052SOL    HW196119   0.281   5.944   2.144 -0.3893 -0.5663 -1.0754
30052SOL    HW296120   0.310   6.087   2.184  0.0726 -1.0733  0.4702
30053SOL     OW96121   1.242  12.238  12.006 -0.3447  0.3620 -0.2954
30053SOL    HW196122   1.250  12.326  11.969 -1.1618  0.4501 -0.2877
30053SOL    HW296123   1.186  12.191  11.943 -0.0021 -0.1229 -0.2436
30054SOL     OW96124  11.812   9.575   8.929 -0.3776  0.0782  0.3772
30054SOL    HW196125  11.806   9.488   8.890  0.8040 -0.4068  1.2357
30054SOL    HW296126  11.846   9.630   8.858 -0.1587 -0.3619  0.1375
30055SOL     OW96127   5.932   6.775   3.227  0.2766  0.1230 -0.2841
30055SOL    HW196128   5.934   6.823   3.310 -0.2277  1.0245 -0.7700
30055SOL    HW296129   5.931   6.683   3.252 -0.0139  0.3835  0.7115
30056SOL     OW96130  11.243   7.966   3.712 -0.2047 -0.2912 -1.3717
30056SOL    HW196131  11.304   7.983   3.640  0.1292 -0.9653 -1.2561
30056SOL    HW296132  11.165   8.017   3.690  1.4442  3.2324  0.0414
30057SOL     OW96133   8.511   3.112   3.279 -0.7237 -0.0340  0.1095
30057SOL    HW196134   8.586   3.116   3.220 -0.6242  2.2596  0.2929
30057SOL    HW296135   8.476   3.201   3.280 -0.8211  0.0209  3.3361
30058SOL     OW96136  12.150   9.171   9.107 -0.3909 -0.2373  1.2028
30058SOL    HW196137  12.166   9.079   9.087 -1.5515 -0.2189  0.0698
30058SOL    HW296138  12.211   9.191   9.179  1.3300 -1.3086  0.1109
30059SOL     OW96139   3.703   4.619   0.439  0.1810  0.6756 -0.2274
30059SOL    HW196140   3.667   4.681   0.502 -0.3171 -0.6174  0.8018
30059SOL    HW296141   3.790   4.654   0.419  0.8440  0.5522  2.0913
30060SOL     OW96142  11.117   0.912   2.617 -0.3392  0.1394 -0.1866
30060SOL    HW196143  11.028   0.884   2.599 -0.3180 -0.7817  1.0403
30060SOL    HW296144  11.108   0.980   2.684 -0.1090 -0.2229  0.2197
30061SOL     OW96145  10.293   7.865   2.613  0.4586 -0.3022 -0.4216
30061SOL    HW196146  10.311   7.807   2.687 -0.5103  1.2668  1.1146
30061SOL    HW296147  10.214   7.828   2.572  1.2950 -1.4686 -1.0437
30062SOL     OW96148   5.574   3.820   2.030  0.0654 -0.2862  0.5494
30062SOL    HW196149   5.510   3.844   1.962 -0.8786  0.2667  1.6103
30062SOL    HW296150   5.635   3.894   2.033  0.1112 -0.3134  0.3093
30063SOL     OW96151   4.934   2.311   4.918  0.6123  0.3192  0.3573
30063SOL    HW196152   4.956   2.271   4.834 -1.3178 -1.0470  0.4442
30063SOL    HW296153   4.944   2.240   4.982 -1.0262  0.4695  0.8036
30064SOL     OW96154   3.607   4.159   4.712 -0.0473  0.0171 -0.0785
30064SOL    HW196155   3.513   4.168   4.702 -0.1004 -1.1796 -1.0102
30064SOL    HW296156   3.635   4.240   4.755 -1.2383  1.2251 -1.4663
30065SOL     OW96157  11.563   1.219   7.283 -0.5304 -0.0762  0.6304
30065SOL    HW196158  11.502   1.271   7.231  1.4642 -0.0001 -1.8375
30065SOL    HW296159  11.529   1.129   7.278  0.2846 -0.3199 -2.0916
30066SOL     OW96160  10.472   8.926   4.547 -0.4345 -0.1189  0.1325
30066SOL    HW196161  10.544   8.961   4.494  0.4554  0.0038  1.3709
30066SOL    HW296162  10.406   8.899   4.483  0.1253  1.0382 -0.9808
30067SOL     OW96163   8.984  11.665  11.131  0.0387 -0.6704 -0.0485
30067SOL    HW196164   8.902  11.690  11.087  0.1690 -0.8253 -0.3881
30067SOL    HW296165   9.040  11.742  11.124  0.3909 -0.9973 -0.9714
30068SOL     OW96166   2.631   0.757   2.361  0.1957 -0.1372 -0.4869
30068SOL    HW196167   2.641   0.749   2.455  0.2731 -1.5759 -0.5911
30068SOL    HW296168   2.538   0.743   2.345 -0.1008  1.6902 -0.5066
30069SOL     OW96169   1.909  10.409   9.275 -0.1172 -0.2177  0.0954
30069SOL    HW196170   1.923  10.425   9.368 -1.0030 -0.8427  0.3566
30069SOL    HW296171   1.996  10.412   9.236  0.2198  0.4782  0.8713
30070SOL     OW96172   8.878   4.511   2.904  0.4386  0.0341 -0.4100
30070SOL    HW196173   8.890   4.440   2.840  0.5667 -0.3450  0.0293
30070SOL    HW296174   8.966   4.534   2.930  0.3558 -0.5386  0.4135
30071SOL     OW96175  11.184   2.533   4.944 -0.4757  0.1650  0.1437
30071SOL    HW196176  11.163   2.488   4.862 -0.3552  1.6906 -0.7659
30071SOL    HW296177  11.267   2.578   4.926 -0.2327  0.1773  1.2448
30072SOL     OW96178   5.289   1.298   8.535 -0.4888 -0.8147 -0.0425
30072SOL    HW196179   5.375   1.310   8.575 -0.7234  3.3759 -0.3343
30072SOL    HW296180   5.227   1.311   8.607 -0.8551 -0.8423 -0.3492
30073SOL     OW96181  12.201   6.658   7.837 -0.6968  0.1381  0.0438
30073SOL    HW196182  12.221   6.698   7.922  2.7341 -0.6839 -0.2208
30073SOL    HW296183  12.216   6.728   7.773  2.9382 -0.6697 -0.2250
30074SOL     OW96184  12.442   2.187   1.501  0.4307 -0.5260 -0.1066
30074SOL    HW196185  12.522   2.221   1.462  1.2008 -0.0737  1.7297
30074SOL    HW296186  12.415   2.255   1.563  0.1589 -1.8160  1.2467
30075SOL     OW96187   6.768  10.427   7.563  0.2889  0.3722 -0.1120
30075SOL    HW196188   6.800  10.430   7.653 -1.1412  0.4932  0.4000
30075SOL    HW296189   6.678  10.397   7.569  0.1816  0.3202 -1.5164
30076SOL     OW96190   2.382   7.732   8.298 -0.0890 -0.0054 -0.0706
30076SOL    HW196191   2.311   7.669   8.289 -0.6190  0.5306  0.3396
30076SOL    HW296192   2.345   7.804   8.348 -0.1723  1.6769 -2.3861
30077SOL     OW96193   6.337   8.041  11.711 -0.1874 -0.3895  0.1725
30077SOL    HW196194   6.363   8.089  11.632  0.8036  0.4570  0.9928
30077SOL    HW296195   6.354   7.949  11.689 -0.0451 -0.1796 -0.6365
30078SOL     OW96196  10.398   5.781   8.104 -0.3319 -0.2216 -0.3665
30078SOL    HW196197  10.460   5.741   8.165  0.5961  0.5418 -0.7673
30078SOL    HW296198  10.312   5.762   8.140  0.1943  0.6342  1.4438
30079SOL     OW96199   4.911   0.986  10.598 -0.5787 -0.2538  0.4420
30079SOL    HW196200   4.902   1.081  10.591  0.7716 -0.1239  0.2920
30079SOL    HW296201   4.824   0.957  10.626 -0.8473  1.0791  1.1034
30080SOL     OW96202   1.179  10.410   8.457  0.2026  0.0109  0.3639
30080SOL    HW196203   1.123  10.479   8.494 -0.5148  0.1112 -0.8581
30080SOL    HW296204   1.255  10.408   8.515  0.0360  1.5242  0.6835
30081SOL     OW96205   7.594  11.474   8.737  0.1441 -0.2850 -0.2973
30081SOL    HW196206   7.678  11.516   8.755 -1.0027  1.1217  2.2763
30081SOL    HW296207   7.615  11.380   8.733  1.9362  0.0949 -0.4439
30082SOL     OW96208   5.050   6.660  10.030  0.2239 -0.1262  0.1865
30082SOL    HW196209   5.079   6.740  10.073 -2.1067  1.1615 -0.4872
30082SOL    HW296210   5.036   6.598  10.102  1.4719  0.2228  0.7607
30083SOL     OW96211   5.314   3.465   1.090 -0.6031  0.3753  0.1942
30083SOL    HW196212   5.375   3.536   1.074 -0.3679  0.3750  1.0265
30083SOL    HW296213   5.240   3.483   1.033  0.6288 -0.2269 -1.6819
30084SOL     OW96214   4.278   5.879   0.487 -0.1165  0.1463 -0.5337
30084SOL    HW196215   4.208   5.875   0.552 -0.6454  2.3529 -0.8497
30084SOL    HW296216   4.238   5.843   0.407  0.3198 -1.9436  0.1567
30085SOL     OW96217   1.913   3.773  10.854 -0.8000 -0.4851 -0.3869
30085SOL    HW196218   1.819   3.760  10.848 -0.7476 -0.6642 -0.8704
30085SOL    HW296219   1.943   3.713  10.922 -1.0134 -0.5281 -0.3330
30086SOL     OW96220   1.936   4.708  10.569 -0.0382 -0.1530 -0.0392
30086SOL    HW196221   1.870   4.767  10.532  0.2013  1.2610  1.6401
30086SOL    HW296222   1.928   4.720  10.664  2.1799 -0.4232  0.2312
30087SOL     OW96223   7.646   8.125   6.112  0.1926 -0.5058 -0.0085
30087SOL    HW196224   7.731   8.164   6.093  1.0298 -1.8941  0.6949
30087SOL    HW296225   7.583   8.181   6.066  1.5374  0.1244 -1.1700
30088SOL     OW96226   7.480  12.305   7.509  0.3762 -0.1917  0.2916
30088SOL    HW196227   7.469  12.395   7.479 -0.0593  0.2768  1.7712
30088SOL    HW296228   7.542  12.266   7.447 -0.8491  0.5478 -1.4779
30089SOL     OW96229   8.211   5.532  11.819  0.1319 -0.0792  0.5331
30089SOL    HW196230   8.128   5.488  11.802 -0.6161  1.7022 -0.8599
30089SOL    HW296231   8.278   5.467  11.798 -0.9076 -0.6835 -1.1139
30090SOL     OW96232   5.319   0.658   0.027 -0.5343  0.4841  0.1837
30090SOL    HW196233   5.334   0.605  -0.051  1.0530 -0.4841  1.0819
30090SOL    HW296234   5.236   0.627   0.062  0.6223 -1.9167  1.0106
30091SOL     OW96235   9.823   1.033   9.759 -0.0101  0.1872 -0.6726
30091SOL    HW196236   9.857   1.090   9.691  0.2266  1.6267  0.6033
30091SOL    HW296237   9.728   1.032   9.744  0.2163 -1.4809 -2.4459
30092SOL     OW96238   2.564   3.252   4.640  0.6945 -0.5407  0.3610
30092SOL    HW196239   2.555   3.347   4.633  0.2980 -0.5690  0.4448
30092SOL    HW296240   2.494   3.218   4.584 -0.1809 -0.7767  1.5762
30093SOL     OW96241   2.423   3.443   9.337  0.7553  0.0134  0.5411
30093SOL    HW196242   2.372   3.404   9.266  0.5837 -2.7051  2.0342
30093SOL    HW296243   2.364   3.506   9.377 -0.0765 -0.3149 -0.1359
30094SOL     OW96244  12.017   2.882  11.265  0.2394 -0.0502 -0.1596
30094SOL    HW196245  11.928   2.846  11.267 -0.7246  2.1625  0.0411
30094SOL    HW296246  12.067   2.826  11.325 -0.4155 -2.6508 -1.8630
30095SOL     OW96247   0.407   7.896  10.417  0.2113 -0.0508 -0.4390
30095SOL    HW196248   0.416   7.991  10.426  0.5012 -0.0183 -1.0230
30095SOL    HW296249   0.481   7.870  10.362 -1.2333 -0.2614 -2.3795
30096SOL     OW96250   2.732   4.398   1.993  0.3636  0.2914  0.6207
30096SOL    HW196251   2.653   4.452   1.986  0.1197 -0.0821  0.4102
30096SOL    HW296252   2.777   4.410   1.910  0.6127  0.6323  0.8048
30097SOL     OW96253   7.757  11.711   6.402 -0.0213 -0.1922  0.1464
30097SOL    HW196254   7.687  11.646   6.403  0.1350 -0.3714 -0.2185
30097SOL    HW296255   7.755  11.747   6.313 -1.1243  1.4292  0.7777
30098SOL     OW96256   8.866  10.610   8.236 -0.3666  0.4259  0.6973
30098SOL    HW196257   8.800  10.552   8.196  0.6607 -0.1766 -0.1973
30098SOL    HW296258   8.834  10.626   8.324 -1.5895 -0.0462  0.3613
30099SOL     OW96259   7.211   6.094   4.752  0.5511  0.7300 -0.2466
30099SOL    HW196260   7.227   6.027   4.819  1.2572 -0.6671 -1.7378
30099SOL    HW296261   7.149   6.154   4.793 -0.8180 -1.3177  0.8842
30100SOL     OW96262   2.804   7.092   5.670  0.0966 -0.3223 -0.3636
30100SOL    HW196263   2.877   7.136   5.627  1.2955 -0.8793  0.9982
30100SOL    HW296264   2.803   7.004   5.634 -0.3072 -0.1385 -0.8172
30101SOL     OW96265   5.211   3.816   6.708  0.2479  0.0948 -0.1045
30101SOL    HW196266   5.166   3.900   6.706 -0.4712 -0.2867 -1.4449
30101SOL    HW296267   5.218   3.790   6.616 -2.4272 -2.7763  0.3340
30102SOL     OW96268   4.267   6.068   3.102 -0.1135 -0.2933 -0.1665
30102SOL    HW196269   4.333   6.051   3.169 -0.9981  1.0317  1.1143
30102SOL    HW296270   4.253   6.162   3.106 -1.5712 -0.4549 -0.9017
30103SOL     OW96271   7.866  10.481   9.929 -0.4928 -0.0735  0.1750
30103SOL    HW196272   7.867  10.458   9.836 -0.0958  0.5212  0.0248
30103SOL    HW296273   7.874  10.577   9.930  3.8823 -0.2489  0.8531
30104SOL     OW96274  12.015   4.963   3.071  0.5087 -0.4973 -0.1375
30104SOL    HW196275  11.993   5.053   3.095 -1.3202 -1.1063  0.6293
30104SOL    HW296276  11.973   4.909   3.138  1.3994 -1.9470 -0.6954
30105SOL     OW96277   0.888  12.201   0.397 -0.2833  0.2701  0.4730
30105SOL    HW196278   0.850  12.255   0.466 -0.9873 -0.9779  1.1003
30105SOL    HW296279   0.873  12.111   0.426  1.2738 -0.2774 -0.3023
30106SOL     OW96280   0.238   9.307  11.255  0.8119  0.3997 -0.0169
30106SOL    HW196281   0.150   9.317  11.217  1.1486  1.3884 -0.5802
30106SOL    HW296282   0.267   9.397  11.269  1.1102  0.0627  1.6650
30107SOL     OW96283  10.250   6.199   5.773  0.4411 -0.2127  0.0181
30107SOL    HW196284  10.265   6.294   5.773  0.3880 -0.2025  0.2792
30107SOL    HW296285  10.159   6.189   5.798  0.2961 -0.3164 -0.5409
30108SOL     OW96286   7.294   6.245   4.239  0.5158  0.3598 -0.1290
30108SOL    HW196287   7.201   6.255   4.259  0.3618  0.8159 -1.0679
30108SOL    HW296288   7.332   6.331   4.254  0.3211  0.8279 -2.1621
30109SOL     OW96289   7.400   2.161   7.168  0.3456 -0.2292 -0.0455
30109SOL    HW196290   7.331   2.097   7.183 -0.7868  1.0254  0.3303
30109SOL    HW296291   7.481   2.110   7.162 -0.5854 -1.7128 -0.2856
30110SOL     OW96292   4.358   0.315  11.258  0.4533  0.6521 -0.4744
30110SOL    HW196293   4.366   0.404  11.292 -0.2536  0.6190 -0.2045
30110SOL    HW296294   4.396   0.319  11.170  2.1949  0.7684  0.2350
30111SOL     OW96295   3.912   0.680   9.766  0.4105 -0.2554  0.3523
30111SOL    HW196296   3.824   0.692   9.802 -0.0865  0.5269 -1.0595
30111SOL    HW296297   3.898   0.655   9.675  1.6472  0.8476 -0.1727
30112SOL     OW96298  11.202   2.413   0.143  0.3596 -0.5365 -0.0074
30112SOL    HW196299  11.264   2.458   0.201 -1.4362  0.4302  1.2439
30112SOL    HW296300  11.199   2.468   0.064  1.4607 -0.8844 -0.3110
30113SOL     OW96301   1.708   2.030  10.304  0.1927 -0.6175  0.1588
30113SOL    HW196302   1.741   1.980  10.379  1.1749  0.0415  0.1817
30113SOL    HW296303   1.787   2.061  10.259 -0.3949  0.1756 -0.3556
30114SOL     OW96304  11.583   6.676  11.876 -0.3341  0.0100 -0.0585
30114SOL    HW196305  11.559   6.632  11.958 -0.7629  1.6122  0.7286
30114SOL    HW296306  11.659   6.628  11.844 -2.0936 -2.7206 -0.4952
30115SOL     OW96307   6.363   3.686   5.432 -0.3184  0.2289 -0.1583
30115SOL    HW196308   6.299   3.752   5.459 -2.3232 -0.0561 -3.7081
30115SOL    HW296309   6.338   3.607   5.481 -0.2378  1.0673  1.3037
30116SOL     OW96310   8.295   0.207   5.070 -0.5104 -0.9103 -0.3745
30116SOL    HW196311   8.353   0.140   5.033 -0.5040 -0.3245 -1.4641
30116SOL    HW296312   8.248   0.242   4.995  0.8573  1.6614 -0.1418
30117SOL     OW96313   3.318  10.730   7.445 -0.1316  0.5076 -0.5739
30117SOL    HW196314   3.386  10.725   7.512 -0.6611  2.3225  0.1576
30117SOL    HW296315   3.312  10.824   7.424 -2.4578  0.4040 -0.5557
30118SOL     OW96316   6.725   7.832   2.100  0.4461 -0.2034  0.3417
30118SOL    HW196317   6.794   7.776   2.135  0.2385 -1.3401 -0.9378
30118SOL    HW296318   6.769   7.883   2.031  0.2961  0.0597  0.4412
30119SOL     OW96319   3.850   7.048   7.880 -0.2391  0.1687  0.0258
30119SOL    HW196320   3.783   7.110   7.852 -0.0902  0.3496  0.0660
30119SOL    HW296321   3.890   7.017   7.799 -1.3837 -1.0888 -0.0829
30120SOL     OW96322   2.584   3.454   4.185 -0.1348 -0.2563  0.6608
30120SOL    HW196323   2.632   3.536   4.187  0.9472 -0.7993 -0.8127
30120SOL    HW296324   2.648   3.388   4.213 -0.8043 -0.6830  1.2265
30121SOL     OW96325  11.792   6.303   9.742 -0.2538 -0.5073 -0.2348
30121SOL    HW196326  11.759   6.377   9.793 -2.8199 -0.9743 -1.0346
30121SOL    HW296327  11.781   6.330   9.651 -1.3730 -1.8461 -0.5400
30122SOL     OW96328   9.742   7.840  11.305 -0.0726  0.0176  0.3856
30122SOL    HW196329   9.812   7.896  11.338  0.1570 -1.1119  1.9510
30122SOL    HW296330   9.730   7.867  11.214  2.8735 -0.2411 -0.1762
30123SOL     OW96331  12.026  11.668   1.565 -0.4487  0.7024  0.4531
30123SOL    HW196332  11.981  11.749   1.589 -0.7627  1.8562 -3.3887
30123SOL    HW296333  11.959  11.601   1.570 -1.7255  1.7272 -1.4184
30124SOL     OW96334   1.731   5.975   0.735 -0.4362 -0.6867 -0.2259
30124SOL    HW196335   1.768   5.888   0.722  1.9978  0.1794  0.3184
30124SOL    HW296336   1.721   5.983   0.830  0.7966  0.1298 -0.1408
30125SOL     OW96337   0.221   2.268   1.560 -0.3007  0.0924 -0.4486
30125SOL    HW196338   0.236   2.338   1.623 -1.6860  0.9856 -1.0647
30125SOL    HW296339   0.307   2.229   1.545  0.5771  1.9380 -0.4133
30126SOL     OW96340   9.219  11.347   0.790 -0.0652 -0.3142  0.0027
30126SOL    HW196341   9.176  11.262   0.781 -0.5692 -0.2588  1.4933
30126SOL    HW296342   9.160  11.409   0.748 -0.5022 -0.4906  0.3538
30127SOL     OW96343   7.083   1.722   8.215  0.9161  0.2612  0.0625
30127SOL    HW196344   7.137   1.791   8.255  2.7840 -1.5121  0.7456
30127SOL    HW296345   7.043   1.678   8.290  0.1726  0.2368 -0.3420
30128SOL     OW96346   2.124   3.500   5.187 -0.5304  0.3591 -0.0613
30128SOL    HW196347   2.126   3.410   5.154 -0.7834  0.2775  0.1419
30128SOL    HW296348   2.105   3.491   5.281 -0.8157  0.6367 -0.0889
30129SOL     OW96349   4.677   4.944   6.007 -0.1631 -0.1633  0.9819
30129SOL    HW196350   4.749   4.912   6.061  1.4714 -0.1403 -1.0668
30129SOL    HW296351   4.650   4.868   5.955  0.5218  0.5683 -0.4922
30130SOL     OW96352   6.789   3.212   6.588  0.1807  0.3695  0.3368
30130SOL    HW196353   6.780   3.284   6.651 -0.1451  0.9190 -0.3214
30130SOL    HW296354   6.722   3.230   6.522  0.6490 -0.0895 -0.2679
30131SOL     OW96355   5.150   7.294   6.455 -0.1527 -0.1707  0.0391
30131SOL    HW196356   5.229   7.255   6.416 -0.5704  0.7607 -1.8365
30131SOL    HW296357   5.170   7.387   6.463 -1.4372  0.2851 -1.5677
30132SOL     OW96358   2.325   1.270   5.749 -0.0207 -0.7690  0.6499
30132SOL    HW196359   2.276   1.298   5.826 -0.0461  0.3437  0.2504
30132SOL    HW296360   2.278   1.308   5.675  1.5116  0.4912  0.2645
30133SOL     OW96361   0.881   3.620   6.462  0.2886 -0.4958 -0.1343
30133SOL    HW196362   0.886   3.652   6.552  1.2083  2.3009 -1.0883
30133SOL    HW296363   0.808   3.558   6.463 -0.2016  0.0167  2.3499
30134SOL     OW96364  12.379   1.490   0.336  0.1013 -0.7007  0.1026
30134SOL    HW196365  12.396   1.521   0.247  0.4352 -1.1864 -0.0089
30134SOL    HW296366  12.305   1.543   0.367 -1.1474 -1.7095 -1.0893
30135SOL     OW96367   5.628   6.972  11.565 -0.0396  0.5058 -0.5855
30135SOL    HW196368   5.613   6.881  11.539  0.8293 -0.1072  0.9077
30135SOL    HW296369   5.723   6.977  11.581  0.0145  1.8383 -1.2008
30136SOL     OW96370  10.758   2.294  10.182  0.7913 -0.4005 -0.1392
30136SOL    HW196371  10.830   2.339  10.227  0.9857 -0.1074 -0.7237
30136SOL    HW296372  10.791   2.205  10.169  1.9756  0.2861 -2.3345
30137SOL     OW96373   6.608   3.856   3.735 -0.3354 -0.1800 -0.1360
30137SOL    HW196374   6.601   3.872   3.641  0.6675 -0.2515 -0.2279
30137SOL    HW296375   6.582   3.765   3.745 -0.3090 -0.2142 -0.3619
30138SOL     OW96376   3.818  10.785  11.669 -0.2324  0.2485 -0.2559
30138SOL    HW196377   3.911  10.800  11.648 -0.4410  0.0396 -1.4193
30138SOL    HW296378   3.772  10.856  11.623 -0.8044 -0.8339 -1.3948
30139SOL     OW96379   0.348   1.613  11.785 -0.0052 -0.6626 -0.3286
30139SOL    HW196380   0.360   1.556  11.709  0.1208 -0.3936 -0.5123
30139SOL    HW296381   0.412   1.582  11.849 -1.5774 -2.3109  0.5148
30140SOL     OW96382   4.184  10.727   5.958 -0.3195  0.0329  0.0790
30140SOL    HW196383   4.229  10.657   5.910  1.9714  0.6508  1.2325
30140SOL    HW296384   4.179  10.799   5.895 -0.0179 -0.1593 -0.1688
30141SOL     OW96385   0.527  10.316   4.547  0.3309  0.0459  0.1757
30141SOL    HW196386   0.613  10.352   4.526  0.7601  0.1282  1.8930
30141SOL    HW296387   0.539  10.221   4.544 -0.0149  0.0257 -1.3583
30142SOL     OW96388   9.973   9.408  11.716 -0.0606 -0.2249  0.0761
30142SOL    HW196389   9.951   9.462  11.793  0.5478  0.2806 -0.0912
30142SOL    HW296390   9.891   9.400  11.668  0.2420  2.5003 -1.0795
30143SOL     OW96391   8.979   4.956   0.402  0.3788 -0.2983  0.2289
30143SOL    HW196392   9.044   4.904   0.355  1.6150  0.1056  1.4288
30143SOL    HW296393   8.908   4.895   0.421  0.0248 -0.5638 -1.7646
30144SOL     OW96394   0.186  12.215   3.692  0.1888 -0.1177 -0.2823
30144SOL    HW196395   0.170  12.282   3.626 -0.6533 -1.0676 -1.0691
30144SOL    HW296396   0.110  12.158   3.688 -0.1745  0.1198  1.9435
30145SOL     OW96397  10.302   3.389   4.479  0.3911 -0.7163 -1.2253
30145SOL    HW196398  10.370   3.454   4.458  2.3703 -2.2633  0.0148
30145SOL    HW296399  10.293   3.338   4.398  0.8212 -0.5889 -1.3587
30146SOL     OW96400  10.770   3.743   6.871  0.2040 -0.1559  0.4579
30146SOL    HW196401  10.710   3.670   6.857 -1.2378  1.0800 -0.0729
30146SOL    HW296402  10.723   3.819   6.836  2.1194  0.8509 -0.0279
30147SOL     OW96403  10.463   4.053  10.202  0.2398 -0.3084  0.3932
30147SOL    HW196404  10.414   4.068  10.283 -2.2119  0.1515 -1.0535
30147SOL    HW296405  10.440   4.127  10.146 -1.1456 -2.3549 -2.0063
30148SOL     OW96406  11.927   1.153   5.385  0.3340  0.0853  0.1558
30148SOL    HW196407  11.910   1.246   5.371 -0.2266 -0.2338 -1.4766
30148SOL    HW296408  11.968   1.149   5.471 -1.0731  1.6774  0.9632
30149SOL     OW96409   5.682  10.594   1.553  0.3051 -0.3033  0.3534
30149SOL    HW196410   5.635  10.519   1.516  0.2307 -0.6738  1.1626
30149SOL    HW296411   5.704  10.648   1.478 -0.4039 -0.7078 -0.1600
30150SOL     OW96412   6.924   9.720   4.439 -0.4799 -0.6280 -0.3566
30150SOL    HW196413   6.965   9.758   4.362  1.3137 -2.2476 -0.2904
30150SOL    HW296414   6.864   9.654   4.404  0.1755 -1.2139 -0.4086
30151SOL     OW96415   3.932   8.809   1.611 -0.7193 -0.6037  0.1060
30151SOL    HW196416   4.011   8.838   1.565 -1.6922  0.8095 -0.7536
30151SOL    HW296417   3.882   8.762   1.544 -3.5396  3.9363 -1.4605
30152SOL     OW96418   2.937   9.857   3.648 -0.3016 -0.3888 -0.2951
30152SOL    HW196419   3.004   9.870   3.581 -0.3308 -2.3747 -0.7940
30152SOL    HW296420   2.973   9.788   3.704 -0.5589  0.7854  1.3897
30153SOL     OW96421  10.777  11.791   6.151 -0.0348  0.3691 -0.3252
30153SOL    HW196422  10.853  11.802   6.207  0.7155  1.1637 -1.4656
30153SOL    HW296423  10.705  11.772   6.212  1.0035 -0.1296  0.7825
30154SOL     OW96424   0.824   7.219   0.306 -0.3046 -0.0966  0.1174
30154SOL    HW196425   0.899   7.162   0.316 -1.4961 -1.9865 -1.0863
30154SOL    HW296426   0.757   7.164   0.266 -1.0313  2.5313 -2.6556
30155SOL     OW96427  10.876   0.289   9.299 -0.1127 -0.3137  0.3615
30155SOL    HW196428  10.816   0.262   9.369  0.3778 -0.9440  0.5446
30155SOL    HW296429  10.822   0.343   9.241 -0.1727  1.5727  2.0526
30156SOL     OW96430   6.289   8.202   3.962  0.8362 -0.0679  0.6423
30156SOL    HW196431   6.330   8.178   3.878 -1.4812  1.5495 -1.0701
30156SOL    HW296432   6.206   8.155   3.962  0.7188  0.1240  1.9665
30157SOL     OW96433   4.795   4.852   7.291 -0.5911  0.3013  0.4825
30157SOL    HW196434   4.727   4.840   7.224 -0.8078 -0.3837  0.8133
30157SOL    HW296435   4.789   4.774   7.345  1.3641 -0.4168 -0.2647
30158SOL     OW96436   2.896   3.421   2.462  0.3408 -0.5899 -0.3201
30158SOL    HW196437   2.928   3.405   2.373 -0.9226  0.1466 -0.9389
30158SOL    HW296438   2.827   3.356   2.475 -0.7148  0.4270 -0.5951
30159SOL     OW96439  11.863   7.942   7.363  0.1161  0.1663  0.4929
30159SOL    HW196440  11.852   8.009   7.295 -3.0006 -0.3494  0.3296
30159SOL    HW296441  11.952   7.910   7.351  1.5072  3.6930  0.0917
30160SOL     OW96442   2.620   0.703   3.567  0.1802  0.1613 -0.7381
30160SOL    HW196443   2.612   0.796   3.588  0.1679 -0.1631  0.7750
30160SOL    HW296444   2.530   0.672   3.561  0.1767 -0.0873  0.3993
30161SOL     OW96445   3.213   4.552   4.890 -0.5370  0.3190  0.5102
30161SOL    HW196446   3.163   4.513   4.819 -0.7255  0.2443  0.6816
30161SOL    HW296447   3.164   4.632   4.912  0.3393  1.1464 -0.4477
30162SOL     OW96448   5.794   4.670   8.804  0.0614  0.1576  0.1081
30162SOL    HW196449   5.764   4.626   8.724 -0.5721  3.8240 -1.8793
30162SOL    HW296450   5.888   4.679   8.792 -0.1358  1.4346 -0.7344
30163SOL     OW96451  10.218   9.480   3.434 -0.0179 -0.5094  0.7883
30163SOL    HW196452  10.224   9.545   3.504 -0.1157 -0.5002  0.7879
30163SOL    HW296453  10.155   9.416   3.466 -1.4366  0.4206 -0.0267
30164SOL     OW96454   2.253  11.997   0.174 -0.3148  0.3364 -0.1336
30164SOL    HW196455   2.212  11.967   0.093  0.7611  1.3174 -1.0773
30164SOL    HW296456   2.188  12.055   0.214 -0.2345  1.1489 -1.1427
30165SOL     OW96457   2.977   0.207   7.639  0.6015 -0.2028  0.7472
30165SOL    HW196458   3.045   0.242   7.582  2.0374  0.4091  2.7284
30165SOL    HW296459   2.989   0.112   7.634  0.6619 -0.1605  0.0031
30166SOL     OW96460   9.866   8.446   2.807  0.0865  0.4828  0.3959
30166SOL    HW196461   9.893   8.530   2.843 -0.6450  0.8600  0.0931
30166SOL    HW296462   9.934   8.424   2.744  0.1917  0.9394  0.3457
30167SOL     OW96463  12.008   7.111   0.777 -0.2246 -0.4532  0.3130
30167SOL    HW196464  12.011   7.016   0.765  1.6715 -0.5858  1.4315
30167SOL    HW296465  12.068   7.145   0.711  0.8172 -0.2330  1.3525
30168SOL     OW96466   0.734  10.556  10.715 -0.3449 -0.1141 -0.5944
30168SOL    HW196467   0.795  10.484  10.701  1.7083  1.6695 -1.3257
30168SOL    HW296468   0.771  10.628  10.665 -2.8193  1.2147 -0.6352
30169SOL     OW96469   6.156  12.307   4.746 -0.0224  0.4256 -0.1476
30169SOL    HW196470   6.156  12.343   4.835  0.4981 -2.3179  1.0869
30169SOL    HW296471   6.123  12.378   4.691 -1.7378  1.7921  2.4142
30170SOL     OW96472   7.160   3.540   6.014  0.4524  0.0572 -0.2135
30170SOL    HW196473   7.162   3.594   6.093  1.4162 -0.2895  0.0127
30170SOL    HW296474   7.154   3.602   5.942 -0.1211  0.3874  0.1094
30171SOL     OW96475   7.364   2.890   4.563 -0.0172  0.1342  0.1715
30171SOL    HW196476   7.385   2.975   4.601  0.4584  1.0281 -1.9930
30171SOL    HW296477   7.437   2.870   4.505  0.4319 -2.3177  1.4206
30172SOL     OW96478   3.206   1.629  11.678  0.3506 -0.4562 -0.5297
30172SOL    HW196479   3.245   1.662  11.759  0.3246  2.8268 -1.7000
30172SOL    HW296480   3.121   1.673  11.674  0.2827 -0.7079 -2.2410
30173SOL     OW96481  11.997   5.553   7.737 -0.6243  0.3045 -0.1406
30173SOL    HW196482  12.085   5.561   7.698  0.4732 -2.4414  1.5013
30173SOL    HW296483  11.949   5.496   7.677  0.0631 -1.3943  0.8518
30174SOL     OW96484   3.777   2.373   8.517  0.3570 -0.0751  0.2937
30174SOL    HW196485   3.848   2.318   8.484  2.0336  1.9543  0.3244
30174SOL    HW296486   3.759   2.338   8.605 -1.7266 -3.2772 -1.1983
30175SOL     OW96487   7.225   9.937   4.052 -0.3056  0.3707 -0.0801
30175SOL    HW196488   7.311   9.956   4.015 -0.2728  1.5015  0.5330
30175SOL    HW296489   7.206   9.847   4.024  0.4904  0.5671 -1.3054
30176SOL     OW96490   3.807   0.953  11.671 -0.4763 -0.3522 -0.1970
30176SOL    HW196491   3.718   0.976  11.697 -0.7345 -1.2177 -0.2782
30176SOL    HW296492   3.803   0.948  11.576 -0.2203  0.0752 -0.2314
30177SOL     OW96493   1.430   9.956   0.954  0.2489 -0.0532 -0.2326
30177SOL    HW196494   1.452   9.892   1.022  2.2847  1.5079  0.6521
30177SOL    HW296495   1.338   9.977   0.971 -0.1029 -1.7692  0.2381
30178SOL     OW96496  11.201   0.880   9.301  0.4180 -0.2243  0.0455
30178SOL    HW196497  11.283   0.881   9.350 -0.0303  0.0640  0.7900
30178SOL    HW296498  11.200   0.964   9.254  0.1542  0.1496  0.7060
30179SOL     OW96499  11.582   4.943  11.947  0.8511  0.3046 -0.0688
30179SOL    HW196500  11.572   4.943  12.042  0.4907 -0.6722 -0.0978
30179SOL    HW296501  11.509   4.889  11.916  1.4665 -0.0917 -0.8439
30180SOL     OW96502   3.234   1.827   3.508 -0.1724 -0.2884  0.3178
30180SOL    HW196503   3.256   1.777   3.429 -0.7301  0.0096 -0.0275
30180SOL    HW296504   3.248   1.764   3.580  3.2111  0.2536  0.3154
30181SOL     OW96505   5.704   8.779   2.641  0.8622 -0.1489  0.3046
30181SOL    HW196506   5.779   8.813   2.592  0.7376 -1.8196 -1.1203
30181SOL    HW296507   5.741   8.717   2.703  0.6515 -1.4354 -0.8160
30182SOL     OW96508   6.000   9.001   8.820  0.4898  0.4713  0.6138
30182SOL    HW196509   6.081   8.976   8.865 -0.1194 -0.6016  1.1594
30182SOL    HW296510   5.933   8.945   8.859 -0.2359  0.1997 -0.9675
30183SOL     OW96511   9.074   6.324   7.119 -0.2434  0.0519  0.1562
30183SOL    HW196512   9.048   6.267   7.192  2.1222  1.7275  2.5169
30183SOL    HW296513   9.158   6.288   7.089 -0.8037 -0.1398 -1.2154
30184SOL     OW96514   8.802   2.747   1.085 -0.5834 -0.2961 -0.2427
30184SOL    HW196515   8.859   2.670   1.092  0.5424  0.5003 -0.4562
30184SOL    HW296516   8.779   2.752   0.993  3.5609  2.4830 -1.4018
30185SOL     OW96517   4.237   2.849   6.112 -0.0434 -0.3280 -0.3677
30185SOL    HW196518   4.258   2.937   6.080  0.6911 -0.0294  0.8623
30185SOL    HW296519   4.228   2.860   6.207  0.2017 -1.6127 -0.1840
30186SOL     OW96520   9.861  12.193   5.373 -0.0609 -0.0449  0.1538
30186SOL    HW196521   9.930  12.220   5.434 -0.7908  1.0575  0.5170
30186SOL    HW296522   9.889  12.107   5.343  1.0416  0.0061  0.9498
30187SOL     OW96523   3.166   8.217   8.538 -0.0813 -0.0072  0.4108
30187SOL    HW196524   3.197   8.264   8.616 -0.7288  1.2493 -0.0538
30187SOL    HW296525   3.182   8.125   8.557 -0.5687  0.2452  2.1886
30188SOL     OW96526  12.478  12.072   8.914 -0.1654 -0.0556  0.2865
30188SOL    HW196527  12.463  12.003   8.848 -0.4356 -0.0068  0.2961
30188SOL    HW296528  12.509  12.147   8.863  1.1487 -0.5004  0.3840
30189SOL     OW96529   7.514  12.257   7.793  0.6076 -0.7349 -0.2056
30189SOL    HW196530   7.517  12.255   7.698 -2.1842 -0.5442 -0.3985
30189SOL    HW296531   7.569  12.332   7.817 -0.1987  0.4478 -1.8354
30190SOL     OW96532  11.719   2.607  12.413 -0.2438 -0.1375 -0.0518
30190SOL    HW196533  11.720   2.513  12.432  0.1075 -0.4204 -1.4009
30190SOL    HW296534  11.628   2.633  12.430  0.1233 -0.2036  2.5153
30191SOL     OW96535   9.945   6.821   4.786  0.2176 -0.2637  0.4915
30191SOL    HW196536   9.982   6.733   4.782 -0.1392 -0.3942 -0.0693
30191SOL    HW296537   9.855   6.808   4.817 -0.2851 -0.2570 -0.8752
30192SOL     OW96538   2.598   4.654   4.276 -0.1990  0.3059 -0.3222
30192SOL    HW196539   2.693   4.654   4.282 -0.0532 -2.3054 -1.3771
30192SOL    HW296540   2.571   4.735   4.319  2.5084  1.4606 -0.6176
30193SOL     OW96541   4.842   8.478   1.090  0.2647  0.3112  0.0259
30193SOL    HW196542   4.873   8.519   1.009 -1.7959 -0.7538 -1.3729
30193SOL    HW296543   4.815   8.552   1.145  0.8160  1.0172 -0.6243
30194SOL     OW96544  11.847  10.970   9.011 -0.3706 -0.0268  0.5721
30194SOL    HW196545  11.832  11.038   9.077 -3.2560  0.3241 -0.3014
30194SOL    HW296546  11.920  10.918   9.046  0.3123  2.0323  2.4357
30195SOL     OW96547   3.400   6.110  12.471 -0.1071 -0.2110 -0.2751
30195SOL    HW196548   3.405   6.015  12.469 -0.3428 -0.2196 -0.9703
30195SOL    HW296549   3.331   6.130  12.534  1.4115 -0.4147  1.5276
30196SOL     OW96550   5.486   1.181   4.649 -0.1948  0.1952 -0.0325
30196SOL    HW196551   5.565   1.196   4.597 -0.9842  1.0883 -0.9949
30196SOL    HW296552   5.472   1.263   4.695 -0.5478  0.0218  0.1736
30197SOL     OW96553  10.857   6.340  11.614 -0.2866 -0.4677 -0.3026
30197SOL    HW196554  10.766   6.367  11.602  0.0525  0.9216  0.0944
30197SOL    HW296555  10.873   6.351  11.708 -0.4725 -3.2691  0.1384
30198SOL     OW96556   7.614   3.119   4.333 -0.5141 -0.2815  0.1571
30198SOL    HW196557   7.592   3.032   4.366 -1.8639  0.0986  0.3284
30198SOL    HW296558   7.538   3.173   4.356  0.5118  1.0727  0.5405
30199SOL     OW96559   1.862   6.753   4.379  0.3756  0.6261 -0.0444
30199SOL    HW196560   1.894   6.695   4.309 -0.5394 -0.5857  0.4959
30199SOL    HW296561   1.785   6.796   4.341 -1.8775 -2.1450  0.9935
30200SOL     OW96562   8.236   5.553  11.492  0.1155  0.0525 -0.6633
30200SOL    HW196563   8.273   5.468  11.467  0.6191  0.0149  0.1765
30200SOL    HW296564   8.142   5.537  11.502  0.3809 -0.7374  0.7972
30201SOL     OW96565   1.486  12.188   9.556  0.6239 -0.4136 -0.2693
30201SOL    HW196566   1.456  12.244   9.627 -2.4900 -0.7525 -1.1569
30201SOL    HW296567   1.527  12.248   9.494  2.0606  0.0821  1.0962
30202SOL     OW96568   9.313   0.398  11.468 -0.0772 -0.0722  0.0811
30202SOL    HW196569   9.289   0.416  11.377 -0.4081  0.5032  0.2734
30202SOL    HW296570   9.298   0.304  11.479 -3.8898  0.4534  0.6372
30203SOL     OW96571  12.078   7.446   7.060  0.3750  0.2389  0.0773
30203SOL    HW196572  12.089   7.535   7.094  0.3657  0.2071  0.1657
30203SOL    HW296573  12.166   7.409   7.062  0.2345 -0.0757  0.9615
30204SOL     OW96574   1.461   0.420   3.028  0.6395  0.2167  0.6966
30204SOL    HW196575   1.531   0.378   2.977 -0.0782 -0.2780  0.1085
30204SOL    HW296576   1.386   0.362   3.019  0.0810  0.8488  1.1613
30205SOL     OW96577  11.181   3.215   6.905  0.0287  0.7195  0.2607
30205SOL    HW196578  11.178   3.300   6.859 -3.0622  0.1758 -0.7994
30205SOL    HW296579  11.274   3.195   6.913  0.8335  3.7238 -0.3565
30206SOL     OW96580   4.003   1.765   4.484  0.8395  0.3317 -0.5003
30206SOL    HW196581   3.915   1.796   4.465  0.9908 -0.3994 -2.6537
30206SOL    HW296582   3.990   1.694   4.547 -0.0189  0.6746 -0.2668
30207SOL     OW96583   4.856   8.481   0.175 -0.2444  0.0019  0.0250
30207SOL    HW196584   4.778   8.527   0.144 -1.2410 -0.5800  1.5575
30207SOL    HW296585   4.909   8.469   0.097 -2.4047 -0.9878 -1.3965
30208SOL     OW96586   6.055   8.332  10.303 -0.2487 -0.3178 -0.3919
30208SOL    HW196587   5.966   8.321  10.337  0.3745  0.8913  1.7937
30208SOL    HW296588   6.109   8.274  10.356  0.9296  2.4939  1.6984
30209SOL     OW96589   3.606   8.763  11.846 -0.1588 -0.0809 -0.4754
30209SOL    HW196590   3.606   8.686  11.904  1.4035  1.3636  1.5984
30209SOL    HW296591   3.686   8.754  11.794  1.6548  1.4681  1.8448
30210SOL     OW96592   8.500   2.995   9.167 -0.1335  0.0590  0.5069
30210SOL    HW196593   8.426   2.973   9.222 -0.1905 -1.0581  0.0227
30210SOL    HW296594   8.468   2.982   9.077 -0.0352  1.7932  0.1963
30211SOL     OW96595   7.107   9.115  10.896 -0.0581 -0.7184  0.0537
30211SOL    HW196596   7.130   9.198  10.938 -0.2635 -0.2369 -0.7608
30211SOL    HW296597   7.145   9.048  10.952  0.5126 -0.0531  0.4742
30212SOL     OW96598  11.851   8.288   2.218 -0.0315  0.6287  0.0677
30212SOL    HW196599  11.765   8.261   2.185  0.6051 -2.0016  0.3080
30212SOL    HW296600  11.912   8.261   2.149  0.6574  2.1264  0.0590
30213SOL     OW96601   7.113   7.784   6.175  0.4680  0.0361 -0.4815
30213SOL    HW196602   7.189   7.842   6.174 -0.3014  1.1018  0.2720
30213SOL    HW296603   7.100   7.760   6.084  0.5154  1.4811 -0.9054
30214SOL     OW96604   8.236   3.266   6.294  0.7619  0.4595  0.1798
30214SOL    HW196605   8.277   3.185   6.261 -2.5919 -2.0430  1.5654
30214SOL    HW296606   8.164   3.283   6.233  1.1981  2.2802  0.1213
30215SOL     OW96607   2.732   2.617   7.106  0.3525  0.1759  0.3561
30215SOL    HW196608   2.740   2.543   7.166  1.3304 -1.8172 -2.0824
30215SOL    HW296609   2.822   2.647   7.093  0.0672  1.1289  0.4806
30216SOL     OW96610   6.081   9.070   1.714  0.1571 -0.4210  1.0561
30216SOL    HW196611   6.133   9.142   1.749 -0.1589  0.1783  0.3230
30216SOL    HW296612   6.135   9.033   1.644  0.3126 -0.8964  1.4204
30217SOL     OW96613   2.989   6.553   2.787 -0.2705 -0.4272 -0.8101
30217SOL    HW196614   2.988   6.500   2.866  0.3518 -0.8988 -1.1080
30217SOL    HW296615   2.951   6.497   2.719  0.0429 -0.3556 -1.0459
30218SOL     OW96616   7.669   0.553   2.860 -0.0069 -0.2951  0.6580
30218SOL    HW196617   7.704   0.620   2.801 -1.6469 -0.7501 -0.9461
30218SOL    HW296618   7.632   0.602   2.933  0.5943  0.4170  0.4921
30219SOL     OW96619   6.256   0.696   7.912  0.1007  0.3198  0.4366
30219SOL    HW196620   6.295   0.750   7.981  0.3890 -1.1657  1.4717
30219SOL    HW296621   6.190   0.753   7.872  1.6065  2.0449  0.2744
30220SOL     OW96622   3.896   1.399   9.780  0.3508  0.3658  0.3259
30220SOL    HW196623   3.934   1.387   9.867 -0.3297  1.1345  0.7359
30220SOL    HW296624   3.898   1.493   9.765 -0.2741  0.3082 -0.1581
30221SOL     OW96625   6.816  12.205  11.894 -0.2139  0.1319  0.1796
30221SOL    HW196626   6.767  12.227  11.815 -0.0373  3.3086  0.8223
30221SOL    HW296627   6.897  12.255  11.886  0.7912 -1.2308  1.3981
30222SOL     OW96628   5.614   3.350   2.055  0.4849 -0.2216 -0.3540
30222SOL    HW196629   5.577   3.380   1.972 -1.3894  1.5493  1.0288
30222SOL    HW296630   5.699   3.393   2.061  0.7992 -0.6523 -1.4805
30223SOL     OW96631   5.190   8.112   9.740  0.8006  0.2290  0.1289
30223SOL    HW196632   5.170   8.064   9.660 -1.5631  0.1974  0.6667
30223SOL    HW296633   5.254   8.057   9.786 -1.1127 -2.0285  0.2919
30224SOL     OW96634  11.465   9.660   8.964  0.5613  0.0343 -0.5867
30224SOL    HW196635  11.470   9.598   8.891  2.4099  0.3887 -0.8157
30224SOL    HW296636  11.524   9.624   9.030 -0.3944  0.1964  0.3883
30225SOL     OW96637   3.715  12.016   0.980 -0.4512  0.6409 -0.1087
30225SOL    HW196638   3.672  12.034   0.896  0.5599  1.1031 -0.5528
30225SOL    HW296639   3.806  12.041   0.965 -0.4844  1.8213  1.4914
30226SOL     OW96640   1.064   3.825   1.923 -0.1860 -0.0418  0.0467
30226SOL    HW196641   1.019   3.819   2.007  1.1355 -0.8638  0.7325
30226SOL    HW296642   1.118   3.903   1.930  0.3482 -0.4151  0.2011
30227SOL     OW96643   2.305   7.971  11.791 -0.2073 -0.2624  0.1357
30227SOL    HW196644   2.335   7.910  11.858  0.1264 -1.7349 -1.2870
30227SOL    HW296645   2.360   8.048  11.802  0.6280 -0.9360  0.8006
30228SOL     OW96646   1.419   2.564   7.113  0.4958 -0.2150 -0.1176
30228SOL    HW196647   1.401   2.588   7.204  0.7808  1.1175 -0.3904
30228SOL    HW296648   1.439   2.647   7.069  1.4999 -0.9636 -1.1453
30229SOL     OW96649   4.649   0.466   9.753 -0.1181 -0.3631  1.1523
30229SOL    HW196650   4.563   0.431   9.732 -0.8821  1.0947  1.7238
30229SOL    HW296651   4.695   0.471   9.669 -2.4113  3.5209 -0.1301
30230SOL     OW96652   8.212   3.384  10.953 -0.1758 -0.2535  0.3556
30230SOL    HW196653   8.299   3.400  10.916 -0.1128 -1.6834 -0.1899
30230SOL    HW296654   8.228   3.367  11.046  0.5580 -3.2996 -0.2152
30231SOL     OW96655   5.169   9.270   4.360 -0.6334  0.0984  0.2383
30231SOL    HW196656   5.152   9.323   4.282 -0.6761 -0.1607  0.0686
30231SOL    HW296657   5.082   9.253   4.396 -0.5471  1.0581  0.9094
30232SOL     OW96658   4.778   8.394   9.278 -0.1478  0.0996 -0.4496
30232SOL    HW196659   4.771   8.439   9.194  1.6031  0.4980 -0.4271
30232SOL    HW296660   4.725   8.315   9.267 -1.1106  0.8499 -1.4170
30233SOL     OW96661   5.434  11.505   4.701  0.3286 -0.4327 -0.1381
30233SOL    HW196662   5.449  11.439   4.633 -3.9170  1.0775 -2.9760
30233SOL    HW296663   5.398  11.456   4.775  2.9148 -1.8448  0.3002
30234SOL     OW96664   6.520   8.751   8.123 -0.2252  0.0788  0.2335
30234SOL    HW196665   6.569   8.669   8.118 -0.5829 -0.1349  0.2061
30234SOL    HW296666   6.428   8.724   8.127 -0.2710  0.3867  2.3368
30235SOL     OW96667   9.924   8.107  11.167  0.0331 -0.1751 -0.1610
30235SOL    HW196668   9.945   8.033  11.109  0.7143  0.3178 -0.5507
30235SOL    HW296669   9.849   8.149  11.126  1.0174  0.6607 -1.1531
30236SOL     OW96670   2.758   7.695   7.951  0.3527 -0.9823 -0.2035
30236SOL    HW196671   2.707   7.673   8.029 -0.4523 -2.5857 -1.1222
30236SOL    HW296672   2.837   7.641   7.957  0.0794 -1.4525 -0.6876
30237SOL     OW96673   6.396   7.852   8.856 -0.1319  0.1036 -0.0732
30237SOL    HW196674   6.394   7.771   8.908 -0.3544 -0.5758 -1.1081
30237SOL    HW296675   6.305   7.872   8.838 -0.2319  1.7430  1.8422
30238SOL     OW96676   2.770   4.938   4.766  0.1147 -0.7041 -0.6111
30238SOL    HW196677   2.839   4.992   4.804  1.0207 -0.6063 -2.2926
30238SOL    HW296678   2.711   5.001   4.725 -0.4792 -0.8477 -0.0049
30239SOL     OW96679   6.382   1.287   5.205 -0.1976  0.2881 -0.1255
30239SOL    HW196680   6.333   1.242   5.275  1.8456 -0.9443  0.6012
30239SOL    HW296681   6.416   1.216   5.150 -0.6614  1.1946 -1.6392
30240SOL     OW96682   7.239   3.848  11.820  0.1167 -0.3349  0.3097
30240SOL    HW196683   7.192   3.927  11.794 -0.4432 -0.1375  1.7748
30240SOL    HW296684   7.330   3.866  11.798  0.2275  1.3622  1.9075
30241SOL     OW96685   4.193  12.363   6.709  0.2915 -0.1040 -0.1541
30241SOL    HW196686   4.265  12.369   6.647 -0.2009  0.9374 -0.6418
30241SOL    HW296687   4.129  12.428   6.679 -1.6335 -2.1517 -0.7459
30242SOL     OW96688   8.372   4.467   1.073 -0.0979  0.2694 -0.6397
30242SOL    HW196689   8.442   4.476   1.137  0.9076 -0.1832 -1.6385
30242SOL    HW296690   8.409   4.412   1.004 -1.6214 -0.4351 -0.9407
30243SOL     OW96691   2.659  11.951   4.251 -0.1601 -0.3516  0.2615
30243SOL    HW196692   2.603  11.924   4.179 -0.5195  0.5171  0.1930
30243SOL    HW296693   2.713  12.021   4.215 -0.3238  0.0714  0.8206
30244SOL     OW96694   2.085  11.492   8.392 -0.2067 -0.1058 -0.0274
30244SOL    HW196695   2.045  11.476   8.306  0.7679 -0.4660 -0.4389
30244SOL    HW296696   2.020  11.461   8.455 -1.3643  1.1117 -0.5883
30245SOL     OW96697   4.993  11.544   5.416  0.3344  0.0179 -0.0701
30245SOL    HW196698   4.950  11.625   5.388  0.3339  0.1179  0.2119
30245SOL    HW296699   5.079  11.573   5.447  0.2409 -0.0538  0.2674
30246SOL     OW96700   2.140   7.059   7.539  0.1767  0.6755  0.0712
30246SOL    HW196701   2.232   7.082   7.540  0.4893 -0.1689 -2.7607
30246SOL    HW296702   2.135   6.979   7.592  0.7201  1.6121  1.6167
30247SOL     OW96703  11.189   7.056   7.799 -0.0620  0.4565 -0.3378
30247SOL    HW196704  11.205   7.039   7.892  2.1105  0.7791 -0.6057
30247SOL    HW296705  11.097   7.083   7.796 -0.9526 -1.9336  1.3566
30248SOL     OW96706   8.050  11.278   4.763 -0.2079  0.2861  0.3380
30248SOL    HW196707   7.956  11.298   4.757 -0.9487 -2.8686 -0.4596
30248SOL    HW296708   8.087  11.351   4.813 -3.0742  1.6313  0.6964
30249SOL     OW96709   8.694  11.145   1.175  0.1800  0.6137 -0.2942
30249SOL    HW196710   8.617  11.162   1.120 -0.8405  1.3373  1.2996
30249SOL    HW296711   8.733  11.232   1.188 -0.2427  0.6191  1.0350
30250SOL     OW96712   7.867   6.653   1.947 -0.1233 -0.0538  0.0505
30250SOL    HW196713   7.853   6.684   1.857  1.8517  1.8139  0.3076
30250SOL    HW296714   7.822   6.717   2.001  0.7740  0.2320  0.4693
30251SOL     OW96715   6.561   6.687   9.346  0.3303  0.2625 -0.1588
30251SOL    HW196716   6.646   6.728   9.329  0.2210 -0.2296 -2.2329
30251SOL    HW296717   6.510   6.706   9.267 -1.0486 -0.5565  0.4958
30252SOL     OW96718   9.443   0.516  12.114  0.1006  0.6550 -0.4420
30252SOL    HW196719   9.354   0.493  12.088  0.1934 -0.6755  0.3560
30252SOL    HW296720   9.500   0.468  12.054  0.2907 -0.8671  0.9111
30253SOL     OW96721   8.053  11.873   5.750 -0.1137  0.0918 -0.1543
30253SOL    HW196722   8.062  11.840   5.839  2.9019  1.8208  0.3125
30253SOL    HW296723   7.991  11.946   5.757  0.2416  0.3335  0.5779
30254SOL     OW96724   5.147   6.101   5.606 -0.6651 -0.3218 -0.6649
30254SOL    HW196725   5.182   6.169   5.548  1.0656 -0.8157 -0.2649
30254SOL    HW296726   5.163   6.134   5.694 -3.1359  0.3520 -0.3780
30255SOL     OW96727   7.759   4.407   5.268 -0.3572  0.5150 -0.2690
30255SOL    HW196728   7.782   4.368   5.353  1.4842  1.5797 -0.2383
30255SOL    HW296729   7.697   4.344   5.230 -0.3375 -0.5639  1.3472
30256SOL     OW96730   1.932   4.830   3.870 -0.1030 -0.3074 -0.0675
30256SOL    HW196731   1.857   4.803   3.817 -1.1183 -1.4593  1.8652
30256SOL    HW296732   1.938   4.925   3.856 -1.5882 -0.2729 -0.6604
30257SOL     OW96733   0.624  11.162   5.528  0.8736  0.4474  0.4878
30257SOL    HW196734   0.583  11.118   5.454  0.7564  2.3921 -0.6505
30257SOL    HW296735   0.717  11.167   5.505  0.7803  1.3714  0.2981
30258SOL     OW96736   2.635   7.994   2.599 -0.6539  0.5191 -0.1521
30258SOL    HW196737   2.647   8.065   2.662  0.2873  1.1562 -1.0227
30258SOL    HW296738   2.542   7.995   2.579 -1.2887 -0.6654  2.3061
30259SOL     OW96739  10.929   6.431   3.199  0.4745 -0.0983  0.3530
30259SOL    HW196740  10.843   6.422   3.156 -0.2099  0.6817  1.5191
30259SOL    HW296741  10.984   6.474   3.133  0.1674 -1.1709 -0.6374
30260SOL     OW96742   0.938   4.177   9.952  0.4748  0.1233 -0.3108
30260SOL    HW196743   0.973   4.264   9.935 -1.6984  1.5710  1.8362
30260SOL    HW296744   0.930   4.136   9.866  1.4997  2.0714 -1.3801
30261SOL     OW96745   6.900   1.352   2.359 -0.4909 -0.2345  0.1051
30261SOL    HW196746   6.966   1.321   2.421  0.3021 -0.0657 -0.6233
30261SOL    HW296747   6.817   1.323   2.395 -0.0378 -0.2316  1.1821
30262SOL     OW96748   5.412   9.967  10.939  0.3293  0.3585  0.1848
30262SOL    HW196749   5.359   9.891  10.916 -0.5047  1.2351 -0.9455
30262SOL    HW296750   5.453   9.994  10.856 -0.0141  1.5881  0.3936
30263SOL     OW96751   4.898   1.836   8.777  0.0557 -1.0127  0.3120
30263SOL    HW196752   4.970   1.870   8.724  0.5506 -1.8219  0.4583
30263SOL    HW296753   4.936   1.762   8.825 -0.6272 -0.8725  1.0919
30264SOL     OW96754  10.573   7.623   4.465  0.1030 -0.2997 -0.2566
30264SOL    HW196755  10.637   7.686   4.433  1.0959  0.0955  2.3145
30264SOL    HW296756  10.534   7.665   4.542 -2.1237 -1.1950 -0.8173
30265SOL     OW96757   4.045   4.386  10.865  0.2948 -0.3010  0.2175
30265SOL    HW196758   4.016   4.325  10.933 -0.4600 -1.5070 -1.1333
30265SOL    HW296759   4.140   4.391  10.877  0.2375 -0.8976  1.0277
30266SOL     OW96760   6.680   3.746   4.402 -0.1216  0.2002 -0.3221
30266SOL    HW196761   6.643   3.793   4.476 -1.9037  0.2002 -1.1516
30266SOL    HW296762   6.659   3.654   4.419 -2.0067  0.3436 -1.5299
30267SOL     OW96763  10.529  11.138   3.954 -0.4404 -0.0928 -0.0474
30267SOL    HW196764  10.500  11.225   3.924 -0.1242  0.1737  0.4151
30267SOL    HW296765  10.623  11.139   3.941 -0.7174 -1.5585 -3.1170
30268SOL     OW96766   1.066   2.718   2.305 -0.5909 -0.0698  0.0013
30268SOL    HW196767   1.088   2.693   2.215  0.1397 -0.7338  0.3491
30268SOL    HW296768   1.141   2.771   2.333 -0.1478 -1.0381  0.6807
30269SOL     OW96769   9.089   4.359  10.025  0.1741  0.0830 -0.3978
30269SOL    HW196770   9.095   4.298   9.951  0.2179  0.7128 -0.9202
30269SOL    HW296771   9.027   4.426   9.996 -0.5876 -0.1968  0.5305
30270SOL     OW96772  12.046   8.738   9.607 -0.4257 -0.0019 -0.0687
30270SOL    HW196773  11.989   8.771   9.677 -2.4080  0.9049 -2.0276
30270SOL    HW296774  11.987   8.700   9.543  1.4488 -2.3099 -0.5830
30271SOL     OW96775   0.397   4.682   6.979  0.1169 -0.6431  0.2296
30271SOL    HW196776   0.471   4.647   7.028  0.9855  0.4745 -0.2286
30271SOL    HW296777   0.359   4.606   6.935  1.6186 -1.1196 -0.3163
30272SOL     OW96778   9.262   5.813   2.078  0.8516  0.3142 -0.2523
30272SOL    HW196779   9.313   5.734   2.061  0.3499  0.1805 -1.2096
30272SOL    HW296780   9.223   5.799   2.164 -1.2023 -1.5946 -1.3982
30273SOL     OW96781  11.193   1.135  10.121 -0.6410  0.0654  0.5164
30273SOL    HW196782  11.205   1.177  10.207  0.6514  2.7409 -0.8412
30273SOL    HW296783  11.279   1.098  10.101 -0.5696  0.5549 -0.1215
30274SOL     OW96784   2.650   4.670   6.060 -0.2101  0.1895 -0.0332
30274SOL    HW196785   2.655   4.628   5.974  0.1616  0.1562  0.0035
30274SOL    HW296786   2.633   4.762   6.041  2.1926  0.6477 -0.2502
30275SOL     OW96787   8.799   1.326   7.692  0.3412 -0.0819 -0.2997
30275SOL    HW196788   8.829   1.236   7.704  1.6530  0.4502  0.7544
30275SOL    HW296789   8.851   1.358   7.618  1.4938  0.4395  0.6977
30276SOL     OW96790   9.509   4.670   3.235 -0.1986  0.0839 -0.5941
30276SOL    HW196791   9.585   4.660   3.179 -1.3809 -2.4185 -1.9284
30276SOL    HW296792   9.449   4.726   3.186 -0.6546 -0.9327 -1.2181
30277SOL     OW96793   6.323   9.533   5.735  0.2335  0.3238 -1.0517
30277SOL    HW196794   6.315   9.614   5.685 -1.1193 -0.0094 -1.4379
30277SOL    HW296795   6.343   9.561   5.824  2.5095  0.9333 -1.6969
30278SOL     OW96796  11.762   0.292   8.978  0.3042  0.5363 -0.0096
30278SOL    HW196797  11.698   0.339   8.925  0.5647 -0.4537 -1.2373
30278SOL    HW296798  11.725   0.293   9.067 -1.6152 -0.3417 -0.7523
30279SOL     OW96799   0.964   8.194   7.800 -0.0013 -0.3273 -0.0246
30279SOL    HW196800   1.054   8.161   7.794  0.2901  0.6732 -1.7955
30279SOL    HW296801   0.971   8.270   7.858  0.2971 -0.2173 -0.2026
30280SOL     OW96802  10.392   6.470  10.912  0.1433  0.0939  0.4690
30280SOL    HW196803  10.435   6.472  10.997  1.3773 -0.0021 -0.1349
30280SOL    HW296804  10.343   6.388  10.912  0.5971 -0.1797  0.8637
30281SOL     OW96805  12.123   8.724   2.874 -0.1492  0.7674  0.3673
30281SOL    HW196806  12.103   8.704   2.782 -1.5178  2.6120  0.2155
30281SOL    HW296807  12.157   8.642   2.909  1.7814  0.3831 -2.1395
30282SOL     OW96808   7.955   0.811   4.997  0.1553 -0.0117  0.1695
30282SOL    HW196809   7.874   0.813   5.050 -0.3477  0.7681 -0.6009
30282SOL    HW296810   7.984   0.902   4.995  1.6336 -0.4307  1.2732
30283SOL     OW96811   9.501   9.587   7.953  0.4054 -0.0835 -0.0504
30283SOL    HW196812   9.559   9.653   7.990  2.7703 -2.0048 -0.0459
30283SOL    HW296813   9.501   9.605   7.859  0.5341  0.3008  0.0225
30284SOL     OW96814   5.702  10.206  10.887  0.1414 -0.0311 -0.0413
30284SOL    HW196815   5.705  10.115  10.858 -0.2798 -0.2138  0.4699
30284SOL    HW296816   5.789  10.222  10.924  0.6314  0.1573 -1.2235
30285SOL     OW96817   9.033   9.141   8.231 -0.5786 -0.2685  0.2615
30285SOL    HW196818   9.020   9.047   8.222  0.1240 -0.3116 -0.3625
30285SOL    HW296819   9.103   9.162   8.170  0.2374  0.4303  1.3977
30286SOL     OW96820   3.037   1.284  12.322  0.0701  0.5915 -0.3679
30286SOL    HW196821   2.997   1.210  12.368  0.0893  1.8138  1.7517
30286SOL    HW296822   3.127   1.286  12.354 -0.0128  1.6840 -0.1672
30287SOL     OW96823   1.931   7.016   1.389  0.0592  0.4853 -0.2150
30287SOL    HW196824   1.933   7.101   1.344  0.1326  0.7630  0.3095
30287SOL    HW296825   2.005   6.968   1.352  1.5027  1.5350  1.1902
30288SOL     OW96826   9.975   2.015   8.574 -0.4699 -0.0259 -0.8434
30288SOL    HW196827   9.911   1.993   8.506  0.8065 -1.5285 -1.6043
30288SOL    HW296828   9.938   1.978   8.654 -1.8051  1.4391 -0.7281
30289SOL     OW96829   2.505   4.059   9.507  0.2812 -0.2797 -0.6394
30289SOL    HW196830   2.435   4.124   9.496  0.8287  0.2750 -0.8815
30289SOL    HW296831   2.570   4.104   9.561  0.1893 -1.0041  0.0980
30290SOL     OW96832   0.149  10.150   2.766  0.0960 -0.0636 -0.0166
30290SOL    HW196833   0.198  10.069   2.757 -0.2799 -0.6374  2.2703
30290SOL    HW296834   0.210  10.211   2.807 -0.6892 -0.4754  1.9150
30291SOL     OW96835   5.770  10.559   2.373 -0.5322  0.1775 -0.0227
30291SOL    HW196836   5.704  10.609   2.323  0.9972  1.1174 -1.2143
30291SOL    HW296837   5.848  10.614   2.370  0.9023 -1.7693 -0.3664
30292SOL     OW96838   9.716  11.858   2.077 -0.6659  0.2495 -0.1251
30292SOL    HW196839   9.681  11.895   2.158 -2.9412 -0.8384 -0.5236
30292SOL    HW296840   9.706  11.927   2.012  0.1211  0.7392  0.2607
30293SOL     OW96841   3.421   4.329  10.578  0.0965  0.0178  0.8762
30293SOL    HW196842   3.474   4.329  10.499  1.0223 -0.8051  1.4612
30293SOL    HW296843   3.336   4.363  10.551  0.4037 -0.2322 -0.4538
30294SOL     OW96844  11.545   1.628   5.508  0.1210  0.0356 -0.3075
30294SOL    HW196845  11.483   1.566   5.547  0.0196  1.4115  1.8919
30294SOL    HW296846  11.622   1.576   5.488  0.6165 -0.6620  2.8734
30295SOL     OW96847   1.299   0.699   9.412  0.2741  0.7759  0.2807
30295SOL    HW196848   1.248   0.760   9.359 -1.0758  0.2006  0.8555
30295SOL    HW296849   1.263   0.613   9.389  1.1900  0.3244  0.5050
30296SOL     OW96850   9.344   0.070   0.985 -0.4260 -0.2324  0.3027
30296SOL    HW196851   9.306  -0.010   0.950  0.4600  1.1656 -4.6519
30296SOL    HW296852   9.269   0.130   0.994 -0.6293 -0.5228  0.5835
30297SOL     OW96853   9.077  11.074   2.359  0.5465  0.0546 -0.0328
30297SOL    HW196854   9.122  11.145   2.314 -0.3102 -0.5710 -2.0451
30297SOL    HW296855   9.124  11.062   2.441  1.3318  2.2397 -0.1208
30298SOL     OW96856  11.339   9.381   3.147  0.1450 -0.5232  0.2276
30298SOL    HW196857  11.321   9.457   3.091 -0.0675 -0.4713  0.3693
30298SOL    HW296858  11.413   9.338   3.104 -0.3048 -0.7331 -0.3452
30299SOL     OW96859   7.569   5.575  10.948 -0.0273 -0.9370 -0.2999
30299SOL    HW196860   7.505   5.534  10.890 -0.3581  0.1841 -0.7570
30299SOL    HW296861   7.564   5.669  10.927 -1.3006 -0.2584  2.6562
30300SOL     OW96862   1.717  11.368   6.716 -0.1042  0.3504  0.0117
30300SOL    HW196863   1.624  11.350   6.702  0.1220 -0.6401 -0.3045
30300SOL    HW296864   1.724  11.463   6.710 -0.9763  0.3860 -0.7146
30301SOL     OW96865   9.288   4.580   7.912 -0.0294 -0.5789  0.3226
30301SOL    HW196866   9.267   4.496   7.953  1.5663 -0.3201  1.7799
30301SOL    HW296867   9.330   4.556   7.829 -1.5895 -1.1418 -0.3433
30302SOL     OW96868   2.761   2.716   3.572 -0.3085 -0.7662  0.0282
30302SOL    HW196869   2.790   2.693   3.484  0.0224  0.7296 -0.2803
30302SOL    HW296870   2.773   2.810   3.578 -2.1843 -0.5392  1.0146
30303SOL     OW96871   4.502  11.284   1.789  0.1581 -0.7064 -0.0118
30303SOL    HW196872   4.424  11.286   1.844 -1.8414 -1.5315 -2.5904
30303SOL    HW296873   4.575  11.270   1.850 -1.7748 -0.8081  2.4219
30304SOL     OW96874  11.340   0.572   9.417  0.4571  0.2573 -0.3488
30304SOL    HW196875  11.251   0.538   9.409 -0.5987  2.7718 -0.3724
30304SOL    HW296876  11.347   0.602   9.507  0.4019  2.1870 -0.9392
30305SOL     OW96877   7.641  11.898  10.059  0.1077  0.6152  0.0604
30305SOL    HW196878   7.639  11.891   9.964  1.6528 -1.3612  0.1047
30305SOL    HW296879   7.594  11.979  10.078 -1.7070  0.2282 -2.2623
30306SOL     OW96880   4.776   5.825   0.604 -0.4059 -0.3445 -0.4449
30306SOL    HW196881   4.750   5.837   0.513 -0.4926 -1.2883 -0.5565
30306SOL    HW296882   4.703   5.775   0.643 -0.6135  0.5018  0.2778
30307SOL     OW96883   1.233   5.120   3.631  0.4432  0.2203 -0.0245
30307SOL    HW196884   1.239   5.027   3.650 -0.7955 -0.1059 -1.0646
30307SOL    HW296885   1.313   5.158   3.667 -0.1750 -0.8116  2.6972
30308SOL     OW96886   9.556  10.629   2.141 -0.0263  0.5279 -0.3290
30308SOL    HW196887   9.598  10.706   2.102  0.5882  0.6036  0.4555
30308SOL    HW296888   9.487  10.665   2.196 -1.1649  0.4037 -1.6084
30309SOL     OW96889   2.097   9.129   9.639  0.8348 -0.1244  0.3466
30309SOL    HW196890   2.109   9.125   9.544  2.2168  1.0664  0.4420
30309SOL    HW296891   2.063   9.217   9.656 -0.1832 -0.5982  0.9070
30310SOL     OW96892  10.413   6.836  11.438  0.4665  0.4312  0.3592
30310SOL    HW196893  10.473   6.776  11.483 -1.5735 -0.9585  1.4253
30310SOL    HW296894  10.437   6.830  11.346  0.6995 -1.7031  0.4963
30311SOL     OW96895  10.488   4.763   2.764 -0.0425 -0.0107  0.1721
30311SOL    HW196896  10.555   4.831   2.769  0.4185 -0.3621 -0.9970
30311SOL    HW296897  10.528   4.686   2.804  0.0898 -0.0961 -0.1247
30312SOL     OW96898   4.175   0.602  11.276 -0.0934 -0.0159  0.4694
30312SOL    HW196899   4.113   0.622  11.345 -0.2039 -0.9441  0.6527
30312SOL    HW296900   4.183   0.683  11.226 -0.5894  0.4363  1.1132
30313SOL     OW96901   6.625   4.457   1.832  0.8082 -0.0484  0.2155
30313SOL    HW196902   6.594   4.427   1.747  1.7142  1.0847 -0.5390
30313SOL    HW296903   6.675   4.383   1.867  0.1657 -0.6350 -0.0852
30314SOL     OW96904  10.755   8.946   1.573  0.1123  0.3060  0.3311
30314SOL    HW196905  10.715   8.916   1.655 -0.0816  1.8551  0.8438
30314SOL    HW296906  10.833   8.993   1.601  0.7337 -0.2288 -0.4803
30315SOL     OW96907  10.599   6.176   0.232  0.2861 -0.1955  0.1057
30315SOL    HW196908  10.558   6.092   0.208 -1.2010  0.9578 -1.7381
30315SOL    HW296909  10.567   6.237   0.165  2.3543  1.5772  0.6459
30316SOL     OW96910   1.307   4.181   8.480 -0.7556  0.6012  0.4167
30316SOL    HW196911   1.219   4.143   8.481 -1.4056  2.0365  1.0303
30316SOL    HW296912   1.322   4.209   8.570 -0.5068  2.1598 -0.0713
30317SOL     OW96913   4.712   6.348   3.346 -0.4764 -0.4385  0.9168
30317SOL    HW196914   4.767   6.363   3.269 -1.4033 -0.1503  0.3013
30317SOL    HW296915   4.759   6.390   3.417 -0.2571  0.4558  0.2590
30318SOL     OW96916   7.571  12.254   9.741 -0.2318 -0.2490  0.0332
30318SOL    HW196917   7.494  12.227   9.690  0.2363  0.0976 -0.8808
30318SOL    HW296918   7.540  12.326   9.796 -1.0554 -1.4338  1.1881
30319SOL     OW96919   8.805   5.469   1.445  0.2395 -0.0889 -0.2594
30319SOL    HW196920   8.893   5.453   1.412 -0.2713  0.1531 -1.8209
30319SOL    HW296921   8.779   5.551   1.403  0.0019  0.9328  1.7497
30320SOL     OW96922  11.933   8.440  12.220  0.1048  0.1767  0.3768
30320SOL    HW196923  11.847   8.421  12.258 -0.2625  0.2449 -0.3875
30320SOL    HW296924  11.979   8.489  12.288 -0.3544 -0.1102  0.9050
30321SOL     OW96925  10.867   4.405   9.652  0.6061  0.5175  0.4216
30321SOL    HW196926  10.835   4.359   9.730  0.9485  1.2715  1.0250
30321SOL    HW296927  10.865   4.339   9.583  0.8142 -0.3260  1.1944
30322SOL     OW96928   5.853   0.051  12.124  0.3005 -0.4131 -0.0085
30322SOL    HW196929   5.762   0.027  12.142 -0.0354  0.6336 -0.2653
30322SOL    HW296930   5.855   0.146  12.130  0.6227 -0.0935 -3.1066
30323SOL     OW96931   4.510   5.519   1.151  0.2163 -0.0219 -0.3283
30323SOL    HW196932   4.491   5.514   1.244 -0.8842 -0.3165 -0.5579
30323SOL    HW296933   4.431   5.486   1.108  0.8776 -0.3086 -1.3563
30324SOL     OW96934   9.787   6.454   3.995  0.0947  0.4951 -0.1364
30324SOL    HW196935   9.845   6.529   3.980 -0.0263  1.0106  1.7095
30324SOL    HW296936   9.701   6.494   4.011  0.2231  0.0607  1.8220
30325SOL     OW96937   0.643  10.077   8.959 -0.0385 -0.7192 -0.3379
30325SOL    HW196938   0.611  10.157   8.918 -0.4346 -0.5166  0.3549
30325SOL    HW296939   0.623  10.088   9.052 -0.4465 -1.7965 -0.2892
30326SOL     OW96940   8.112   4.377   0.173 -0.4316  0.0563  0.5160
30326SOL    HW196941   8.168   4.360   0.249  0.4443  1.7467  0.2888
30326SOL    HW296942   8.031   4.329   0.192  0.3941 -0.9338  1.7129
30327SOL     OW96943   8.439   9.776   9.234  0.2087  0.0598 -0.7588
30327SOL    HW196944   8.487   9.693   9.236 -0.3129 -0.2611  2.2401
30327SOL    HW296945   8.348   9.751   9.218  0.0164 -0.0114  0.3617
30328SOL     OW96946   0.799   1.617   9.459  0.5555 -0.4687  0.2089
30328SOL    HW196947   0.877   1.614   9.514  1.4548  0.1646 -0.9816
30328SOL    HW296948   0.775   1.710   9.457 -0.3650 -0.6814  0.7264
30329SOL     OW96949   0.190   1.274   9.205  0.2783 -0.2115 -0.8489
30329SOL    HW196950   0.249   1.199   9.212  0.4418  0.0626  1.6209
30329SOL    HW296951   0.107   1.237   9.176 -0.0757 -1.7056  1.7210
30330SOL     OW96952  11.428   9.598   7.641 -0.0480 -0.2958  0.5108
30330SOL    HW196953  11.444   9.676   7.695  0.6654 -0.7172  0.9313
30330SOL    HW296954  11.508   9.588   7.590  0.3629 -1.4322  1.3402
30331SOL     OW96955   8.702  11.935   2.667 -0.2591 -0.7841  0.3637
30331SOL    HW196956   8.617  11.976   2.682 -0.1294  0.4070 -1.7808
30331SOL    HW296957   8.744  11.935   2.753 -0.2990  3.5659  0.5986
30332SOL     OW96958   4.161   0.874   7.611 -0.3352  0.3695  0.1387
30332SOL    HW196959   4.203   0.901   7.693 -1.4234 -3.4286  2.2334
30332SOL    HW296960   4.068   0.888   7.626 -0.5335 -0.2521 -0.4625
30333SOL     OW96961   1.392   3.794   0.885  0.0331 -0.3605  0.0565
30333SOL    HW196962   1.384   3.806   0.790  2.9716 -3.6795 -0.8320
30333SOL    HW296963   1.304   3.769   0.913 -0.8395  0.4174 -1.8139
30334SOL     OW96964  10.096   0.988   5.265  0.1611 -0.2077 -0.8494
30334SOL    HW196965  10.016   0.935   5.262 -0.5518  0.7108  0.6489
30334SOL    HW296966  10.066   1.073   5.297  1.8029  0.0551  0.0545
30335SOL     OW96967   7.572   9.723  10.630 -0.2355  0.1825  0.7900
30335SOL    HW196968   7.510   9.714  10.558  1.5113  2.2611 -1.1452
30335SOL    HW296969   7.560   9.812  10.662  1.4590  0.5345  0.5679
30336SOL     OW96970   2.425   0.340   2.086 -0.1779  1.0002  0.5171
30336SOL    HW196971   2.445   0.420   2.037 -0.5800  0.5452 -0.4272
30336SOL    HW296972   2.348   0.362   2.137 -0.7595  0.9980 -0.3369
30337SOL     OW96973   6.244  12.425   7.904  0.5958 -0.1204 -0.1604
30337SOL    HW196974   6.226  12.463   7.818 -1.4900 -0.9209 -0.1389
30337SOL    HW296975   6.268  12.334   7.885 -0.0196 -0.3414  0.0984
30338SOL     OW96976   3.583   3.772   3.903 -0.0537 -0.0464  0.0595
30338SOL    HW196977   3.536   3.736   3.978 -0.2254  0.3516  0.1453
30338SOL    HW296978   3.540   3.856   3.886 -0.3032 -0.3291 -0.7553
30339SOL     OW96979   8.816   5.147   3.546  0.4993 -0.6598  0.8416
30339SOL    HW196980   8.866   5.228   3.557  0.5041 -0.6983  1.1185
30339SOL    HW296981   8.766   5.161   3.466  0.8671 -0.5765  0.6239
30340SOL     OW96982  10.951   0.378   0.892  0.4324  0.0150 -0.1692
30340SOL    HW196983  10.898   0.299   0.897 -0.4824  0.6687  0.9361
30340SOL    HW296984  10.891   0.446   0.862  0.2920  1.0176  2.1586
30341SOL     OW96985   4.912  11.042   8.741 -0.2457 -0.1284 -0.3294
30341SOL    HW196986   4.913  11.137   8.729  0.3691 -0.1599 -0.5602
30341SOL    HW296987   4.861  11.029   8.821  0.6534  0.4896  0.3780
30342SOL     OW96988   0.028   5.738   1.704 -0.4364 -0.0799 -0.0599
30342SOL    HW196989  -0.058   5.702   1.682 -0.1870 -1.4223  1.0451
30342SOL    HW296990   0.009   5.828   1.731 -1.6856 -0.7306  1.3746
30343SOL     OW96991  12.320   8.892   5.667 -0.0443  0.3091  0.5039
30343SOL    HW196992  12.260   8.965   5.651  0.4643  0.6234 -0.0179
30343SOL    HW296993  12.396   8.912   5.613  0.2980 -0.3714  0.7279
30344SOL     OW96994   1.838   5.969  10.789  0.9379 -0.3786 -0.3015
30344SOL    HW196995   1.820   5.998  10.700  1.2473 -1.5289 -0.7552
30344SOL    HW296996   1.752   5.949  10.825  0.8318 -0.1630 -0.4347
30345SOL     OW96997   5.610   2.612   7.025 -0.4305 -0.1339 -0.0431
30345SOL    HW196998   5.557   2.641   6.951  0.3187 -0.9263 -0.9135
30345SOL    HW296999   5.585   2.521   7.039  0.3964 -0.4007 -0.2158
30346SOL     OW97000   9.315   2.629  11.878 -0.3549  0.1449  0.3160
30346SOL    HW197001   9.252   2.680  11.929  0.3197  0.7468  0.5622
30346SOL    HW297002   9.263   2.590  11.808 -0.7682  1.7449 -0.3054
30347SOL     OW97003   6.986   6.337   2.707 -0.3299 -0.6563  0.0038
30347SOL    HW197004   7.077   6.309   2.710 -0.3633 -0.7591  0.0816
30347SOL    HW297005   6.988   6.423   2.665 -0.0178  0.0536  1.4242
30348SOL     OW97006   9.420  10.035  11.776 -0.1715  0.0364  0.1996
30348SOL    HW197007   9.412  10.040  11.681 -1.7171 -2.2792  0.1154
30348SOL    HW297008   9.423   9.941  11.795  0.2091  0.4355  2.4427
30349SOL     OW97009   0.985   3.765   6.040  0.9870 -0.5021  0.0443
30349SOL    HW197010   0.975   3.753   6.134 -0.1462  0.1908  0.0265
30349SOL    HW297011   1.065   3.718   6.018  0.8897 -1.2565  1.2389
30350SOL     OW97012  11.939   8.728   7.300 -0.4584 -0.0412 -0.4316
30350SOL    HW197013  11.939   8.704   7.207  0.4340  1.0631 -0.7393
30350SOL    HW297014  12.022   8.694   7.333 -0.4280  0.2354 -0.2211
30351SOL     OW97015   2.166   4.391   7.100  0.1763 -0.1303  0.6221
30351SOL    HW197016   2.113   4.458   7.057  0.4409 -0.1248  0.2968
30351SOL    HW297017   2.130   4.384   7.188 -0.4721 -0.2393  0.3580
30352SOL     OW97018   8.090   2.828   7.925  0.1368 -0.0349  0.0950
30352SOL    HW197019   8.158   2.878   7.880  0.7116 -0.8925 -0.0199
30352SOL    HW297020   8.127   2.807   8.010  0.1645 -0.7821 -0.0892
30353SOL     OW97021   0.582   8.388   5.954  0.2436  0.0296  0.0279
30353SOL    HW197022   0.597   8.359   5.864  0.7173  1.1205 -0.2539
30353SOL    HW297023   0.654   8.348   6.004  1.3576  1.3142 -0.4945
30354SOL     OW97024   6.729   8.674   0.415 -0.2009  0.1513 -0.4361
30354SOL    HW197025   6.664   8.608   0.387  0.3489 -0.5827 -0.0212
30354SOL    HW297026   6.813   8.634   0.394  0.2000  0.0172  1.2939
30355SOL     OW97027   9.603   6.452   6.537  0.3357  0.0589  0.3576
30355SOL    HW197028   9.590   6.438   6.631  0.6512  0.7862  0.5156
30355SOL    HW297029   9.517   6.481   6.505 -0.4188 -2.3384 -0.0296
30356SOL     OW97030   9.420   5.212  11.555  0.3933  0.2510 -0.2724
30356SOL    HW197031   9.420   5.181  11.645  2.1900  0.0346 -0.3189
30356SOL    HW297032   9.410   5.133  11.502  2.8472 -0.0860 -0.3271
30357SOL     OW97033   8.722   5.449   9.439 -0.5706  0.0263 -0.4851
30357SOL    HW197034   8.654   5.517   9.443 -1.4354 -0.8308 -0.0178
30357SOL    HW297035   8.732   5.430   9.346 -1.3162 -0.1623 -0.5326
30358SOL     OW97036   5.717   7.950   5.378 -0.1648 -1.0679 -0.3355
30358SOL    HW197037   5.701   7.890   5.305  0.2425 -1.4714 -0.1006
30358SOL    HW297038   5.636   7.947   5.429 -0.3779 -0.9358 -0.6665
30359SOL     OW97039   3.933   3.248   5.877  0.1840  0.2006  0.3431
30359SOL    HW197040   3.965   3.235   5.966 -1.9781  0.8427  1.2885
30359SOL    HW297041   3.955   3.167   5.831  4.0772  0.9975  0.4935
30360SOL     OW97042   3.700   4.067   6.993 -0.1449 -0.2574 -0.2935
30360SOL    HW197043   3.789   4.094   7.016  0.1900  0.1397 -1.9484
30360SOL    HW297044   3.649   4.085   7.071  1.5646 -2.3718  1.4514
30361SOL     OW97045   0.374  10.783   5.358 -0.1973 -0.2769  0.3594
30361SOL    HW197046   0.356  10.783   5.452  1.0278 -1.0059  0.6216
30361SOL    HW297047   0.305  10.837   5.320 -1.5229 -1.0729  1.5226
30362SOL     OW97048   2.964   8.930   9.506 -0.2302 -0.1211 -0.3056
30362SOL    HW197049   2.877   8.891   9.492 -1.4111  2.2343  0.0573
30362SOL    HW297050   2.991   8.959   9.419 -0.2018 -0.0629 -0.2764
30363SOL     OW97051   9.321   7.147   4.815  0.1349  0.1460 -0.0425
30363SOL    HW197052   9.323   7.165   4.909  0.3643 -0.7149  0.1235
30363SOL    HW297053   9.283   7.060   4.807 -2.3513  1.2349 -0.9379
30364SOL     OW97054   2.035   5.626   4.930 -0.2224 -0.4313  0.0645
30364SOL    HW197055   2.069   5.681   5.000  0.7866  0.8025 -1.3238
30364SOL    HW297056   1.981   5.686   4.877 -0.9098 -1.3138 -0.2707
30365SOL     OW97057   5.423   4.931   0.159  0.0357  0.1160 -0.0116
30365SOL    HW197058   5.363   4.925   0.085 -1.4113  0.8329  1.0665
30365SOL    HW297059   5.367   4.928   0.237  0.9608  4.0240  1.0284
30366SOL     OW97060   7.222   9.822   9.847  0.0469 -0.2152 -0.1491
30366SOL    HW197061   7.154   9.840   9.913  1.3365  1.5857  0.7808
30366SOL    HW297062   7.267   9.745   9.881 -1.0318 -0.9630 -0.3770
30367SOL     OW97063   8.052   5.593   8.356 -0.7443 -0.1959  0.0314
30367SOL    HW197064   8.055   5.669   8.298 -1.7568  0.0849  0.3191
30367SOL    HW297065   8.127   5.605   8.415  0.0237 -0.2513 -0.9158
30368SOL     OW97066   3.379   0.622  11.715 -0.7720  0.4255  0.1123
30368SOL    HW197067   3.289   0.625  11.748 -0.5222  1.8009  0.7920
30368SOL    HW297068   3.432   0.602  11.793 -0.5546 -1.5538 -0.5028
30369SOL     OW97069   6.834   8.638   1.841 -0.6796 -0.0997 -0.0414
30369SOL    HW197070   6.809   8.662   1.752  0.1114  0.4351 -0.1303
30369SOL    HW297071   6.855   8.544   1.835  0.0108  0.0804 -0.5707
30370SOL     OW97072   2.888   8.496   0.682 -0.4106 -0.3488  0.3085
30370SOL    HW197073   2.911   8.587   0.700 -2.1324  0.1052  0.3919
30370SOL    HW297074   2.972   8.453   0.664  0.4330  1.2356  0.2810
30371SOL     OW97075   2.220   0.841   9.320 -0.0658  0.8482 -0.0927
30371SOL    HW197076   2.160   0.901   9.363 -0.0503 -0.1098  1.3497
30371SOL    HW297077   2.170   0.803   9.248 -0.8182  0.9152  0.3906
30372SOL     OW97078   3.699   3.090   2.168  0.0782 -0.0372 -0.4034
30372SOL    HW197079   3.668   3.030   2.099  0.4104  1.4986 -1.9543
30372SOL    HW297080   3.621   3.136   2.197 -0.0618 -0.6850  0.2696
30373SOL     OW97081   4.814   2.928  10.417 -0.0676  0.4672 -0.1329
30373SOL    HW197082   4.722   2.910  10.436 -0.2070  1.6534  0.3939
30373SOL    HW297083   4.860   2.849  10.446 -0.9036 -0.0972 -0.3072
30374SOL     OW97084  12.237   2.214   1.301 -0.4578  0.4300  0.8066
30374SOL    HW197085  12.170   2.157   1.339 -1.4539  1.2725  0.3458
30374SOL    HW297086  12.309   2.210   1.364 -1.5333  0.7068  2.1094
30375SOL     OW97087   2.012   0.815   7.478  0.5233  0.0799 -0.6558
30375SOL    HW197088   1.986   0.840   7.566 -0.7570 -1.0646 -0.6735
30375SOL    HW297089   2.107   0.821   7.478  0.5214  0.3426  0.7174
30376SOL     OW97090   7.950   4.720   7.481 -0.0849  0.0584 -0.0187
30376SOL    HW197091   7.854   4.723   7.479 -0.1300 -1.3542 -1.3132
30376SOL    HW297092   7.976   4.712   7.389  1.2064 -1.1731  0.4230
30377SOL     OW97093   5.021   2.019  10.461  0.0496 -0.3422 -0.0762
30377SOL    HW197094   5.050   2.049  10.375  1.6707  0.0105  0.5779
30377SOL    HW297095   5.013   1.924  10.451 -1.4355 -0.1619 -1.0647
30378SOL     OW97096   8.068   1.789   9.680 -0.5629 -0.2390 -0.1541
30378SOL    HW197097   8.090   1.883   9.679 -0.4744 -0.2496 -1.8801
30378SOL    HW297098   8.153   1.745   9.680 -0.5771 -0.2911 -0.9848
30379SOL     OW97099   6.978   2.755   6.541  0.4043  0.2779 -0.6016
30379SOL    HW197100   6.985   2.661   6.524  0.9977  0.1636  0.1927
30379SOL    HW297101   6.958   2.760   6.635  2.2965  0.9774 -0.1911
30380SOL     OW97102   5.248   3.808   0.647 -0.4814 -0.2852  0.1904
30380SOL    HW197103   5.266   3.781   0.737  0.0918 -3.1176 -0.6690
30380SOL    HW297104   5.333   3.811   0.605 -0.6458  1.9674 -0.0997
30381SOL     OW97105   2.870  10.648   8.853 -0.0450  0.3996 -0.1285
30381SOL    HW197106   2.823  10.564   8.854  2.4662 -1.1416 -1.1733
30381SOL    HW297107   2.957  10.626   8.886  0.8435  2.5271 -0.9198
30382SOL     OW97108   6.767   6.047   7.109 -0.3280 -0.1272  0.5805
30382SOL    HW197109   6.697   5.989   7.139 -0.8514 -0.2372 -0.8134
30382SOL    HW297110   6.842   5.989   7.093 -1.1163 -0.6263 -1.6862
30383SOL     OW97111  10.903   2.372   9.159 -0.5598 -0.2266  0.1828
30383SOL    HW197112  10.890   2.321   9.239 -0.7892 -1.1201 -0.4079
30383SOL    HW297113  10.824   2.426   9.152  0.5358  1.7008  1.8489
30384SOL     OW97114  12.252   3.434  11.992  0.1092 -0.6545  0.0854
30384SOL    HW197115  12.304   3.360  11.961  1.6931  1.0499 -1.5913
30384SOL    HW297116  12.252   3.496  11.919 -0.9696  1.1007  1.4837
30385SOL     OW97117   2.827  11.191   3.244  0.0446  0.4955 -0.0229
30385SOL    HW197118   2.735  11.177   3.266 -0.1337 -2.1365 -1.9538
30385SOL    HW297119   2.828  11.206   3.150  1.6146 -0.1123 -0.1476
30386SOL     OW97120   7.113  11.118  12.301  0.2119 -0.2420 -0.0012
30386SOL    HW197121   7.118  11.074  12.386  1.3784 -2.0794 -0.9391
30386SOL    HW297122   7.082  11.050  12.241  1.5902  0.3259 -1.4350
30387SOL     OW97123  11.404   7.735   9.622  0.2757  0.2373  0.3376
30387SOL    HW197124  11.476   7.798   9.611 -0.6433  1.2837  0.0871
30387SOL    HW297125  11.329   7.778   9.580 -0.4790 -0.8609  0.5400
30388SOL     OW97126   8.343   8.903   5.108 -1.0531  0.3537  0.2238
30388SOL    HW197127   8.408   8.925   5.042 -1.2211  1.2719  0.3549
30388SOL    HW297128   8.280   8.847   5.062 -0.9543  0.6611 -0.2892
30389SOL     OW97129   4.588   1.446   2.299  0.1927  0.1589 -0.1208
30389SOL    HW197130   4.528   1.391   2.249  0.5875  0.4686 -0.9434
30389SOL    HW297131   4.665   1.457   2.243  0.4130  0.9780  0.3156
30390SOL     OW97132   9.767  10.949   0.570  0.0902 -0.0489 -0.0680
30390SOL    HW197133   9.853  10.937   0.530 -0.0226  0.1769 -0.3794
30390SOL    HW297134   9.720  11.006   0.510 -0.1564  0.1163  0.2768
30391SOL     OW97135   8.784   4.703  12.121 -0.0994 -0.3182  0.5890
30391SOL    HW197136   8.759   4.657  12.202 -1.9496  1.8245  1.3421
30391SOL    HW297137   8.879   4.713  12.129 -0.1386 -0.7754  2.1577
30392SOL     OW97138   5.192  11.703   3.868 -0.4167 -0.2483  0.2840
30392SOL    HW197139   5.179  11.689   3.962  0.2485 -0.0883  0.4063
30392SOL    HW297140   5.286  11.719   3.859 -0.2477 -1.5952 -0.5850
30393SOL     OW97141   5.734   8.328   5.453  0.4939  0.0937 -0.1099
30393SOL    HW197142   5.755   8.412   5.412  0.4713  0.3084  0.3138
30393SOL    HW297143   5.770   8.263   5.393  2.4442  0.4445  0.6004
30394SOL     OW97144   2.777   8.819   6.943 -0.2827 -0.1180 -0.1387
30394SOL    HW197145   2.776   8.728   6.912 -1.8095 -0.8700  1.8994
30394SOL    HW297146   2.845   8.821   7.011  0.2464  0.4828 -0.6664
30395SOL     OW97147   1.366  12.188   0.319  0.8708 -0.3870  0.3332
30395SOL    HW197148   1.290  12.215   0.268  1.9088  0.4553 -0.8398
30395SOL    HW297149   1.331  12.129   0.385 -0.9352  0.7783  0.4869
30396SOL     OW97150  11.959   9.381   4.005 -0.6182 -0.0583  0.4676
30396SOL    HW197151  11.866   9.360   4.005 -1.2248  2.2876 -0.7113
30396SOL    HW297152  11.963   9.475   3.986  2.0102 -0.1476  0.1270
30397SOL     OW97153   3.429   6.627  10.631  0.1315 -0.1014 -0.1243
30397SOL    HW197154   3.471   6.541  10.633 -0.1491 -0.2609 -0.8391
30397SOL    HW297155   3.430   6.656  10.722 -0.3362 -1.1358  0.2275
30398SOL     OW97156   3.827  10.330   9.270 -0.0111  0.1124  0.0899
30398SOL    HW197157   3.750  10.387   9.261 -1.8938 -2.5048 -1.8715
30398SOL    HW297158   3.812  10.281   9.351  0.0985  0.2619  0.2020
30399SOL     OW97159   7.936  11.618  10.734 -0.0010  0.0714  0.1255
30399SOL    HW197160   7.846  11.586  10.728  0.2058 -0.5775  0.4334
30399SOL    HW297161   7.964  11.626  10.643  0.0458 -0.9197  0.0470
30400SOL     OW97162   1.729   4.530   4.203  0.1186 -0.5986 -0.7819
30400SOL    HW197163   1.729   4.500   4.294  0.5058  0.5134 -0.4086
30400SOL    HW297164   1.646   4.498   4.168 -1.0238  0.7371  0.5717
30401SOL     OW97165  11.079   1.245   4.821  0.1063  0.1621 -0.8599
30401SOL    HW197166  10.992   1.216   4.848 -0.3191  0.9336 -1.3526
30401SOL    HW297167  11.083   1.336   4.850  1.7746 -0.5817  1.5370
30402SOL     OW97168   7.692   4.883   2.604  0.1811 -0.5615  0.0182
30402SOL    HW197169   7.648   4.931   2.534  1.8545  0.0969 -0.6344
30402SOL    HW297170   7.654   4.796   2.601  0.0831 -0.4857 -1.5897
30403SOL     OW97171   9.666   6.125   1.790 -0.7178  0.0892  0.1523
30403SOL    HW197172   9.661   6.090   1.879  1.0631 -0.3765  0.1021
30403SOL    HW297173   9.685   6.048   1.736 -0.5812  0.5556 -0.4677
30404SOL     OW97174   2.841   6.322   2.895 -0.2298  0.1189  0.3409
30404SOL    HW197175   2.898   6.349   2.967  0.1704 -0.1720  0.1399
30404SOL    HW297176   2.753   6.319   2.933 -0.1652  0.9152  0.5654
30405SOL     OW97177  10.002   8.782   3.485  0.1537 -0.0206 -0.3719
30405SOL    HW197178   9.992   8.687   3.480  1.0872 -0.0830 -1.3843
30405SOL    HW297179   9.921   8.817   3.448 -1.6129 -0.3327  2.8265
30406SOL     OW97180   4.291   4.508  11.778 -0.0917  0.5504 -0.0608
30406SOL    HW197181   4.384   4.526  11.786  0.0003  1.0761 -1.8741
30406SOL    HW297182   4.256   4.583  11.729 -1.3874  0.1709  0.2416
30407SOL     OW97183   6.137   0.226   0.458 -0.1077 -0.6152  0.0189
30407SOL    HW197184   6.079   0.225   0.534 -3.3813  0.6807 -2.2560
30407SOL    HW297185   6.147   0.318   0.436  0.4499 -0.9698 -1.3503
30408SOL     OW97186   9.762   9.940   4.483 -0.0587  0.1970  0.5398
30408SOL    HW197187   9.835  10.001   4.486  0.3789 -0.3459  1.9774
30408SOL    HW297188   9.794   9.862   4.530 -1.0022 -0.6761 -0.2159
30409SOL     OW97189   3.531   2.908   0.923  0.1672  0.8812 -0.0938
30409SOL    HW197190   3.452   2.878   0.970 -0.8459  1.1382 -1.5755
30409SOL    HW297191   3.603   2.887   0.983 -0.5507 -3.2031 -0.3626
30410SOL     OW97192   2.285   4.314   9.509  0.6427  0.1466 -0.5708
30410SOL    HW197193   2.250   4.316   9.419 -0.5066  0.9128 -0.1377
30410SOL    HW297194   2.237   4.383   9.554 -0.5114 -1.7280  1.2415
30411SOL     OW97195   7.402   5.503  10.663  0.2150  0.4208  0.1816
30411SOL    HW197196   7.341   5.451  10.611 -0.5596  1.5242 -0.0595
30411SOL    HW297197   7.363   5.505  10.750  0.6372 -0.0201  0.3851
30412SOL     OW97198   8.015   1.718   8.763  0.3044  0.1877  0.1153
30412SOL    HW197199   7.921   1.710   8.747  0.2809 -0.0393  0.3551
30412SOL    HW297200   8.048   1.769   8.689 -0.0032  0.2488  0.0181
30413SOL     OW97201   0.904  10.503  10.249 -0.4706  0.7911  0.3647
30413SOL    HW197202   0.926  10.410  10.255  0.5853  1.1099  1.7950
30413SOL    HW297203   0.988  10.548  10.245 -0.9639  1.7275  0.1663
30414SOL     OW97204   9.271   7.510  10.969  0.0355  0.1917  0.2915
30414SOL    HW197205   9.338   7.441  10.972 -0.2164 -0.0363  0.7042
30414SOL    HW297206   9.222   7.492  10.889 -0.3614 -0.4218  0.6668
30415SOL     OW97207   5.351   5.466  10.687  0.1877  0.0675  0.3407
30415SOL    HW197208   5.407   5.390  10.679  0.3474  0.3423 -1.6805
30415SOL    HW297209   5.278   5.448  10.628  0.2386  1.4720 -0.1831
30416SOL     OW97210  12.358  11.129   5.234  0.3922 -0.3747 -0.1953
30416SOL    HW197211  12.263  11.127   5.238  0.4384 -1.3563  1.4433
30416SOL    HW297212  12.382  11.217   5.262 -0.0289  0.0921 -1.2592
30417SOL     OW97213   5.146   1.685  11.228 -0.8034 -0.1100  0.1037
30417SOL    HW197214   5.127   1.697  11.321  0.0070 -0.3461  0.3055
30417SOL    HW297215   5.074   1.728  11.183 -1.9625 -1.2149  0.8416
30418SOL     OW97216  10.893   9.698   4.802 -0.4439  0.0044  0.0717
30418SOL    HW197217  10.940   9.736   4.877  0.0449 -0.8925  0.2294
30418SOL    HW297218  10.945   9.721   4.726 -0.5912  0.3535  0.0752
30419SOL     OW97219   7.443   8.512   3.432  1.3292  0.0393 -0.2858
30419SOL    HW197220   7.443   8.467   3.516  1.5017 -1.1874 -0.9306
30419SOL    HW297221   7.535   8.513   3.405  1.3458  0.8984 -0.2252
30420SOL     OW97222   9.836   9.073   6.369  0.4714 -0.0893  0.5251
30420SOL    HW197223   9.902   9.046   6.433 -1.7125 -1.2769  2.4318
30420SOL    HW297224   9.770   9.003   6.372 -1.3369  1.4772 -0.5537
30421SOL     OW97225   7.483  11.356  10.699  0.0135 -0.5746  0.1756
30421SOL    HW197226   7.435  11.383  10.620 -0.0944 -1.1540  0.0414
30421SOL    HW297227   7.516  11.438  10.735 -1.0333 -0.1622  0.2433
30422SOL     OW97228  11.066   1.025   2.043  0.2524  0.4735  0.4611
30422SOL    HW197229  11.131   0.958   2.065  1.4066  0.1923 -3.1507
30422SOL    HW297230  10.982   0.986   2.066  0.9575 -2.0136 -0.8299
30423SOL     OW97231   9.728   3.982   9.629  0.6550 -0.0669  0.0273
30423SOL    HW197232   9.683   4.062   9.604  0.4711 -0.2478 -0.2352
30423SOL    HW297233   9.718   3.924   9.552 -1.5004 -1.3037  1.1386
30424SOL     OW97234   3.867   8.258   4.738 -0.1181  0.2587  0.1300
30424SOL    HW197235   3.777   8.289   4.751  0.3200  1.7376 -0.2294
30424SOL    HW297236   3.870   8.174   4.784 -1.4354  0.6105  0.9010
30425SOL     OW97237   1.110   1.883   0.019  0.3447  0.5090 -0.6770
30425SOL    HW197238   1.129   1.959  -0.037  1.1410  0.6595 -0.2072
30425SOL    HW297239   1.176   1.818  -0.005  0.5964  0.5186 -0.0220
30426SOL     OW97240   2.087   2.284   4.058  0.1826 -0.4450  0.2690
30426SOL    HW197241   2.029   2.249   3.990  0.6357 -0.2210 -0.2293
30426SOL    HW297242   2.080   2.379   4.050  1.3918 -0.4065 -0.4551
30427SOL     OW97243  12.314  12.029   4.787 -0.6300 -0.2034  0.2875
30427SOL    HW197244  12.240  12.035   4.848  0.6240 -0.5790  1.9137
30427SOL    HW297245  12.358  12.113   4.794 -0.3714 -0.3153  0.0099
30428SOL     OW97246  11.625   8.439   5.912 -0.0349  0.7321 -0.0103
30428SOL    HW197247  11.564   8.472   5.846 -0.9474  0.6152  0.7403
30428SOL    HW297248  11.597   8.481   5.994 -0.7814 -1.2741  0.8325
30429SOL     OW97249   9.516   8.254  11.849  0.6748 -0.1235  0.0358
30429SOL    HW197250   9.548   8.309  11.922  1.5533 -1.0814  0.3995
30429SOL    HW297251   9.422   8.248  11.863  0.7345  0.3190  0.6760
30430SOL     OW97252   6.363  10.081  11.683  0.4023 -0.3169 -0.0100
30430SOL    HW197253   6.434  10.145  11.698  0.0785  0.1552 -0.4289
30430SOL    HW297254   6.324  10.109  11.600 -0.8178 -0.0739  0.6244
30431SOL     OW97255   0.431   2.558   0.965 -0.1455 -0.4445 -0.1209
30431SOL    HW197256   0.417   2.651   0.981 -1.5054 -0.6797  0.1875
30431SOL    HW297257   0.507   2.555   0.906  0.3982  0.8029  0.4816
30432SOL     OW97258   4.371  10.954   6.875  0.4497 -0.2049 -0.3577
30432SOL    HW197259   4.304  10.924   6.813  0.0196  1.0342 -0.5320
30432SOL    HW297260   4.352  11.048   6.886  1.4768 -0.0815  0.4584
30433SOL     OW97261  11.609   7.994   4.733 -0.3507  0.0782  0.9594
30433SOL    HW197262  11.638   7.961   4.818  2.6501 -0.7298 -0.2571
30433SOL    HW297263  11.632   7.925   4.671 -0.3490  1.5851 -0.8012
30434SOL     OW97264   5.926   1.600  12.379  0.0346  0.3189  0.1673
30434SOL    HW197265   5.839   1.574  12.408 -0.3755  0.8947 -0.5330
30434SOL    HW297266   5.921   1.602  12.284  1.1173 -0.6697  0.0622
30435SOL     OW97267  11.286   1.280   1.240 -0.0288 -0.3374 -0.6186
30435SOL    HW197268  11.275   1.220   1.166 -0.7977 -1.7352  0.5705
30435SOL    HW297269  11.246   1.361   1.211  0.4648 -0.5791 -2.0473
30436SOL     OW97270   2.142   0.549   5.656  0.3278  0.0963  0.3066
30436SOL    HW197271   2.181   0.617   5.602  1.2449 -0.3987  0.3168
30436SOL    HW297272   2.193   0.551   5.737 -0.6179  0.4031  0.9198
30437SOL     OW97273   0.263   1.328  10.534 -0.4140  0.1938 -0.7869
30437SOL    HW197274   0.191   1.337  10.597 -1.1378  0.1045 -1.5855
30437SOL    HW297275   0.305   1.414  10.533  0.4164 -0.1628  0.7636
30438SOL     OW97276   3.657   0.899   4.409  0.8317  0.2646  0.0915
30438SOL    HW197277   3.605   0.912   4.329  1.9026  2.2385 -0.3353
30438SOL    HW297278   3.599   0.929   4.479 -0.3766 -2.1131  0.2242
30439SOL     OW97279   6.842   1.300   5.474  1.0214 -0.2132  0.4192
30439SOL    HW197280   6.792   1.254   5.541 -0.6352 -0.9066 -1.1951
30439SOL    HW297281   6.834   1.393   5.496  1.0236 -0.4625  1.4932
30440SOL     OW97282   6.259  11.585   2.600  0.1639 -0.2102 -0.0850
30440SOL    HW197283   6.305  11.550   2.523  0.2061 -1.0224  0.3023
30440SOL    HW297284   6.177  11.534   2.604  0.3198 -0.4174  0.6034
30441SOL     OW97285  10.276   7.476  11.043  0.4254 -0.7998  0.1511
30441SOL    HW197286  10.219   7.504  11.115 -2.2832 -3.7075 -0.6724
30441SOL    HW297287  10.305   7.558  11.002 -3.1594  0.8916  0.6484
30442SOL     OW97288  10.212   8.240  10.007  0.1197 -0.5020 -0.6796
30442SOL    HW197289  10.280   8.294  10.047 -0.1769 -0.7454  0.1911
30442SOL    HW297290  10.193   8.174  10.074  0.6679 -1.8545 -1.8174
30443SOL     OW97291   4.841   7.241   3.431  0.2063  0.1531  0.0901
30443SOL    HW197292   4.783   7.308   3.468 -0.1198 -0.5390  0.8705
30443SOL    HW297293   4.783   7.167   3.412  0.7260 -0.2888  0.2055
30444SOL     OW97294   6.432   5.911   5.963  0.0595 -0.6143  0.4117
30444SOL    HW197295   6.396   5.898   5.875 -0.8294  0.9245  0.5149
30444SOL    HW297296   6.413   5.828   6.008 -0.3241 -1.0780 -0.5621
30445SOL     OW97297   9.716   3.155   2.822  0.4120 -0.3806  0.0858
30445SOL    HW197298   9.741   3.162   2.730  1.3921  3.1199  0.4604
30445SOL    HW297299   9.790   3.192   2.870 -0.2376 -1.7661  2.2856
30446SOL     OW97300   6.687   5.707   0.513  0.3834  0.0191 -0.0628
30446SOL    HW197301   6.629   5.771   0.555 -0.4207 -0.1127 -0.9597
30446SOL    HW297302   6.707   5.645   0.583 -1.2126 -0.3818  0.0736
30447SOL     OW97303   4.619   1.803   3.319 -0.4897 -0.0722 -0.7009
30447SOL    HW197304   4.528   1.774   3.317 -0.3544 -0.4884 -0.7813
30447SOL    HW297305   4.613   1.897   3.339 -0.8609 -0.4601  1.1923
30448SOL     OW97306   5.008   9.690   8.617  0.6008 -0.4637  0.6437
30448SOL    HW197307   4.988   9.599   8.592  1.7687 -0.7158  0.5978
30448SOL    HW297308   4.922   9.727   8.638 -0.1265 -1.0146 -1.1182
30449SOL     OW97309  10.236   2.600   1.457 -0.1302  0.7285  0.3468
30449SOL    HW197310  10.275   2.543   1.524 -1.2125  0.8199  1.0779
30449SOL    HW297311  10.308   2.657   1.429  0.2099  1.0984  1.8715
30450SOL     OW97312  10.970   7.177  11.458  0.1268 -0.2042 -0.3422
30450SOL    HW197313  10.960   7.155  11.550  1.4041 -1.7741 -0.5330
30450SOL    HW297314  11.002   7.267  11.458  0.5294 -0.3357  0.7485
30451SOL     OW97315   9.714   8.536   2.392 -0.1423 -0.0089 -0.3025
30451SOL    HW197316   9.645   8.478   2.360 -0.4760  0.3742 -0.2727
30451SOL    HW297317   9.784   8.527   2.327  0.0181 -0.8367 -0.0332
30452SOL     OW97318   3.064   6.612   5.724  0.0523 -0.6436  0.1208
30452SOL    HW197319   2.995   6.604   5.790 -0.2493  0.6675 -0.0167
30452SOL    HW297320   3.143   6.634   5.774 -0.3304  1.1082  0.0268
30453SOL     OW97321   3.187  10.975   7.024  0.7400 -0.5136  0.2940
30453SOL    HW197322   3.172  11.054   6.972 -2.3316 -0.4666  1.0349
30453SOL    HW297323   3.168  10.902   6.964  1.0089 -0.5965  0.3081
30454SOL     OW97324  11.696   6.114   7.650 -0.1162  0.0262 -1.1671
30454SOL    HW197325  11.698   6.171   7.574 -3.0515  1.6406 -0.1992
30454SOL    HW297326  11.712   6.171   7.725 -0.6903 -0.8383 -0.3407
30455SOL     OW97327   8.503   4.832   0.724 -0.9540  0.4009  0.0142
30455SOL    HW197328   8.452   4.754   0.703 -0.6766  0.1729  0.1859
30455SOL    HW297329   8.438   4.900   0.739 -1.1900  0.8395 -2.5482
30456SOL     OW97330   2.792   8.162  11.033 -0.0607  0.3256  0.2730
30456SOL    HW197331   2.870   8.158  11.087  0.5586  2.5984 -0.3354
30456SOL    HW297332   2.730   8.216  11.082 -0.2342  0.7478 -0.3840
30457SOL     OW97333   0.060   4.334  12.298 -0.6441  0.1583  0.1024
30457SOL    HW197334   0.018   4.407  12.342 -0.8451  0.4154 -0.5172
30457SOL    HW297335   0.111   4.291  12.367  0.3933  1.5404  0.2461
30458SOL     OW97336   8.529   4.322   9.437  0.2160  0.1016  0.2849
30458SOL    HW197337   8.495   4.410   9.453  2.1944  1.0723 -0.5372
30458SOL    HW297338   8.530   4.280   9.523 -3.5038 -0.2585  0.3010
30459SOL     OW97339   1.455  11.933   5.005 -0.2454 -0.4644 -0.3196
30459SOL    HW197340   1.374  11.888   5.030 -0.9325  1.3756  0.9978
30459SOL    HW297341   1.427  12.020   4.976  1.1919 -0.1022 -0.7159
30460SOL     OW97342   5.095   0.011   9.131 -0.5876 -0.3584 -0.4629
30460SOL    HW197343   5.018   0.020   9.075 -1.2856 -0.3200  0.4659
30460SOL    HW297344   5.150  -0.054   9.087 -0.1403  1.1175 -2.2127
30461SOL     OW97345   4.068   5.753  11.841  0.4260  0.4165 -0.0361
30461SOL    HW197346   4.108   5.799  11.915  0.9703 -0.0992 -0.0008
30461SOL    HW297347   4.036   5.822  11.784 -0.1161  0.8241  0.7409
30462SOL     OW97348   1.186   0.999  11.542 -0.0205  0.0545  0.5016
30462SOL    HW197349   1.219   1.049  11.468  2.1392 -1.5642  0.2805
30462SOL    HW297350   1.108   0.956  11.509  0.5730 -0.1695 -0.6730
30463SOL     OW97351  11.474   6.140   6.681 -0.3622 -0.1986  0.1159
30463SOL    HW197352  11.523   6.081   6.739  2.1072  1.3745 -0.2047
30463SOL    HW297353  11.436   6.205   6.740  2.3491  1.5426  0.1277
30464SOL     OW97354   9.338  11.225   2.448  0.6216  0.0455  0.0792
30464SOL    HW197355   9.280  11.194   2.517  0.1560 -0.6752 -0.6183
30464SOL    HW297356   9.289  11.294   2.404  1.4548  1.4610  1.3051
30465SOL     OW97357  12.451   8.339  12.401 -0.0932 -0.3204  0.5683
30465SOL    HW197358  12.529   8.337  12.345 -0.4574 -2.6842  0.0725
30465SOL    HW297359  12.406   8.420  12.375  1.8467  0.7847  0.4465
30466SOL     OW97360   9.388   4.127  11.896  0.1450  0.3017  0.1526
30466SOL    HW197361   9.429   4.193  11.840  0.0490 -0.9516 -1.4598
30466SOL    HW297362   9.437   4.132  11.978 -0.1333  2.6322  0.2626
30467SOL     OW97363   7.596  12.247   9.246  0.4710  0.5111  0.2719
30467SOL    HW197364   7.534  12.182   9.213  0.8133  0.8899 -1.1860
30467SOL    HW297365   7.563  12.331   9.213  0.5432  0.9784  1.3560
30468SOL     OW97366  11.602   7.290   2.043  0.0068 -0.2256  0.3179
30468SOL    HW197367  11.665   7.357   2.070  0.3047  0.1191 -1.1644
30468SOL    HW297368  11.632   7.210   2.085  0.7918  0.1701  0.5290
30469SOL     OW97369  10.276   3.818   7.575  0.1148  0.0483  0.3755
30469SOL    HW197370  10.193   3.785   7.610 -0.2028  0.9267  0.4679
30469SOL    HW297371  10.262   3.822   7.481  0.4236 -0.8133  0.2894
30470SOL     OW97372   2.791   2.427   2.865 -0.2403  0.1614 -0.1908
30470SOL    HW197373   2.704   2.388   2.874  0.3728 -1.1698  0.3896
30470SOL    HW297374   2.799   2.447   2.771 -0.9147 -0.3414 -0.3641
30471SOL     OW97375   2.852  11.683   1.885  0.8171  0.5647  0.2162
30471SOL    HW197376   2.930  11.738   1.879  0.4674  1.3073  1.8164
30471SOL    HW297377   2.821  11.695   1.975 -0.0724 -1.1866  0.1961
30472SOL     OW97378   3.212   7.930   6.976  0.4500  0.4301 -0.2108
30472SOL    HW197379   3.208   7.923   6.881  0.7262 -0.0773 -0.1874
30472SOL    HW297380   3.235   8.022   6.992  1.0253  0.3696 -0.6532
30473SOL     OW97381   2.825  10.993   3.830 -0.7334 -0.2579  0.0370
30473SOL    HW197382   2.740  10.973   3.790 -2.0355 -0.3148  2.6409
30473SOL    HW297383   2.885  10.928   3.793 -2.1115 -1.0332 -0.9279
30474SOL     OW97384  11.015   5.605   8.347 -0.6363  0.3327 -0.6346
30474SOL    HW197385  10.926   5.578   8.324 -1.0769  2.2626 -1.3206
30474SOL    HW297386  11.005   5.690   8.389  0.9104  0.6855 -0.9063
30475SOL     OW97387   6.577  10.106  10.188  0.2113 -0.0691 -0.2184
30475SOL    HW197388   6.619  10.039  10.134 -0.8649 -1.2587  0.3652
30475SOL    HW297389   6.585  10.073  10.278  0.6806  1.1628  0.2036
30476SOL     OW97390   0.703   4.472   5.943  0.0343  0.0651 -0.1796
30476SOL    HW197391   0.695   4.382   5.976 -0.4854 -0.1683 -0.9127
30476SOL    HW297392   0.797   4.485   5.930 -0.0082 -2.1580 -4.7621
30477SOL     OW97393   4.219   6.941   7.184 -0.8186 -0.0618 -0.5396
30477SOL    HW197394   4.253   6.858   7.151 -0.1441  0.2881 -0.7525
30477SOL    HW297395   4.294   6.981   7.229 -1.0794  0.5148 -0.6025
30478SOL     OW97396   8.150   6.610   6.016  0.2629 -0.5982  0.0740
30478SOL    HW197397   8.225   6.590   5.960 -0.4660  0.5706 -1.3641
30478SOL    HW297398   8.190   6.640   6.098  1.3713 -0.9039 -0.3362
30479SOL     OW97399  10.887   6.944   8.988 -0.4655  0.4741  0.2078
30479SOL    HW197400  10.898   7.023   8.935 -0.2261  0.8641  0.8218
30479SOL    HW297401  10.794   6.945   9.012 -0.4527  0.6029  0.2567
30480SOL     OW97402   2.034   7.219   3.596  0.7595 -0.0703  0.4275
30480SOL    HW197403   2.061   7.196   3.507 -1.2733 -1.1756  0.0474
30480SOL    HW297404   2.051   7.140   3.648 -1.0627 -0.5940  0.2957
30481SOL     OW97405  10.409   0.396   8.671  0.1606  0.4835  0.0520
30481SOL    HW197406  10.321   0.365   8.693  0.5210 -0.9818 -0.4487
30481SOL    HW297407  10.437   0.446   8.747 -0.7756  0.2234  0.5811
30482SOL     OW97408   7.322   8.196   2.563  0.1427  0.2938 -0.1163
30482SOL    HW197409   7.417   8.186   2.568  0.0275 -0.4501  1.2734
30482SOL    HW297410   7.304   8.276   2.613  0.0225  0.2796 -0.1366
30483SOL     OW97411   1.683   8.367   2.153 -0.1177 -0.3854 -0.0074
30483SOL    HW197412   1.595   8.333   2.163 -0.4145  0.1493 -0.6526
30483SOL    HW297413   1.671   8.461   2.138  0.5291 -0.3730 -0.5333
30484SOL     OW97414   2.877  12.237   0.785 -0.0104  0.1681 -0.4790
30484SOL    HW197415   2.791  12.244   0.827  0.1682  1.3237 -0.2785
30484SOL    HW297416   2.933  12.295   0.837  1.5382 -2.4412  0.9744
30485SOL     OW97417   4.035  11.798  10.081  0.0382 -0.0626 -0.1526
30485SOL    HW197418   4.083  11.791   9.999 -0.9758 -1.0534 -0.7011
30485SOL    HW297419   4.073  11.873  10.126  3.4114 -1.8583  0.3374
30486SOL     OW97420  10.644   4.347   4.990 -0.2577  0.2791 -0.6378
30486SOL    HW197421  10.616   4.272   4.938  0.7246 -0.6762  0.1522
30486SOL    HW297422  10.733   4.325   5.018  0.2347  1.9409 -0.7507
30487SOL     OW97423   6.922   6.108   1.485  0.3663  0.5583  0.3967
30487SOL    HW197424   6.880   6.079   1.566  0.2907 -0.4309  0.0268
30487SOL    HW297425   7.007   6.064   1.486  1.5585  2.7675  1.2779
30488SOL     OW97426   1.726   3.438   7.964  0.4767 -0.2607 -0.0195
30488SOL    HW197427   1.772   3.516   7.934  1.6971 -0.7856  0.4261
30488SOL    HW297428   1.776   3.408   8.041 -0.0396 -1.4017 -0.1011
30489SOL     OW97429   1.686   7.926  10.469  0.1230  0.3929 -0.2947
30489SOL    HW197430   1.731   7.848  10.439  1.1285  0.3140  1.3259
30489SOL    HW297431   1.740   7.960  10.540 -0.7441  2.0766 -0.3737
30490SOL     OW97432   5.017  12.365   8.839 -0.0576  0.2225  0.8538
30490SOL    HW197433   4.927  12.391   8.821 -0.8736 -1.1442  2.6936
30490SOL    HW297434   5.030  12.285   8.788  0.3405  0.7332  0.1320
30491SOL     OW97435   1.392   0.904   0.547  0.4024 -0.0060 -0.0615
30491SOL    HW197436   1.423   0.969   0.484 -0.6409  0.5770  0.0054
30491SOL    HW297437   1.304   0.881   0.517  0.3019 -0.5136  0.5852
30492SOL     OW97438   3.402  11.400  11.538  0.5040  0.1561  0.4791
30492SOL    HW197439   3.487  11.420  11.500 -0.3530 -0.2479 -1.8866
30492SOL    HW297440   3.339  11.442  11.479 -0.9626 -0.4681  1.5193
30493SOL     OW97441   2.999   9.226   8.661 -0.0403  0.2147  0.6835
30493SOL    HW197442   2.977   9.319   8.650 -0.4361  0.0868  0.3918
30493SOL    HW297443   2.946   9.198   8.736 -1.3398 -0.2325 -0.3560
30494SOL     OW97444   2.092  10.844  11.031  0.0045 -0.0640 -0.1420
30494SOL    HW197445   2.077  10.756  11.065 -0.1656  0.2808  0.7189
30494SOL    HW297446   2.183  10.845  11.004  0.1382 -0.3673  0.2878
30495SOL     OW97447   1.973   6.916   6.317 -0.2513  0.0773 -0.0010
30495SOL    HW197448   2.055   6.915   6.269  0.0833  2.3014  0.4163
30495SOL    HW297449   1.974   6.835   6.368  0.9699 -0.6439 -1.1199
30496SOL     OW97450  12.492   1.370   3.069 -0.3189 -0.0689 -0.2820
30496SOL    HW197451  12.514   1.410   3.153 -0.7132 -0.4008 -0.0167
30496SOL    HW297452  12.524   1.280   3.077 -1.0960 -0.3374 -0.1759
30497SOL     OW97453   1.626  10.775   8.982 -0.1617 -0.3971 -0.5759
30497SOL    HW197454   1.659  10.704   9.037 -0.8390 -0.6982 -0.5549
30497SOL    HW297455   1.532  10.759   8.976 -0.0320 -0.7506 -2.3399
30498SOL     OW97456   7.420   8.084   3.048 -0.0945  0.3068 -0.0471
30498SOL    HW197457   7.338   8.073   3.002 -0.3027  0.1870  0.3471
30498SOL    HW297458   7.416   8.021   3.120  1.4132 -1.5255 -1.4770
30499SOL     OW97459   7.399  11.006   0.011  0.1489  0.5882 -0.1716
30499SOL    HW197460   7.424  10.966   0.094 -0.9072 -0.2509 -0.2259
30499SOL    HW297461   7.442  11.091   0.011 -0.2626  0.8331  1.4875
30500SOL     OW97462   9.179   2.425  10.885  0.0195  0.1629  0.4893
30500SOL    HW197463   9.089   2.428  10.919 -0.0784 -0.4084  0.2863
30500SOL    HW297464   9.212   2.339  10.913 -0.5196 -0.9343 -2.0063
30501SOL     OW97465  11.548   4.507   7.702 -0.3968  0.0152  0.4005
30501SOL    HW197466  11.583   4.528   7.788 -0.6441  2.2374  0.0122
30501SOL    HW297467  11.624   4.476   7.652  0.2827  1.1979  0.6762
30502SOL     OW97468   2.944   2.822   8.507 -0.0504  0.0197  0.2109
30502SOL    HW197469   3.036   2.795   8.512 -0.3764 -1.1001  0.4606
30502SOL    HW297470   2.934   2.858   8.419  0.2838 -1.1959 -0.3406
30503SOL     OW97471   2.649   1.800   5.304  0.1421  0.2515  0.1007
30503SOL    HW197472   2.629   1.836   5.391  1.7242  0.2556  0.4987
30503SOL    HW297473   2.605   1.715   5.303  0.0706  0.2707  0.8974
30504SOL     OW97474  11.718   4.950   8.490 -0.0349 -0.5956  0.3875
30504SOL    HW197475  11.806   4.912   8.492  0.5203  0.5493 -1.0174
30504SOL    HW297476  11.720   5.018   8.558  0.0180 -0.8877  0.6778
30505SOL     OW97477  10.371   4.344   3.395 -0.4230  0.1332 -0.1690
30505SOL    HW197478  10.451   4.377   3.437  0.1499 -0.4102 -0.7919
30505SOL    HW297479  10.387   4.356   3.301 -1.4676  0.8706 -0.2670
30506SOL     OW97480  10.592   0.001  10.730 -0.2009  0.5170 -0.5914
30506SOL    HW197481  10.619  -0.089  10.748  0.3024  0.5451 -1.1723
30506SOL    HW297482  10.673   0.052  10.739 -0.3068  0.7865 -1.1045
30507SOL     OW97483   2.175   3.051   9.779  0.0159  0.0948 -0.0327
30507SOL    HW197484   2.136   3.121   9.727  1.7371  0.4947 -0.8709
30507SOL    HW297485   2.265   3.045   9.747  0.9257 -0.1981  2.3749
30508SOL     OW97486  11.332   4.509   3.718 -0.1235  0.5396 -0.5793
30508SOL    HW197487  11.421   4.474   3.730 -1.9041 -3.8588  2.1067
30508SOL    HW297488  11.302   4.530   3.806 -1.9273  1.6060 -1.3840
30509SOL     OW97489   3.027  11.271   3.441 -0.4207 -0.1994  0.4564
30509SOL    HW197490   2.949  11.242   3.393 -1.9926 -0.7981  3.1870
30509SOL    HW297491   2.994  11.340   3.499  1.4412  0.5945  0.6203
30510SOL     OW97492  10.256   1.147   4.192 -0.0121  0.1171 -0.0520
30510SOL    HW197493  10.273   1.071   4.136  0.0100  0.0791  0.0068
30510SOL    HW297494  10.161   1.159   4.187 -0.2165 -0.8575  1.1703
30511SOL     OW97495   8.139   6.844   4.431  0.0384 -0.2835  0.9811
30511SOL    HW197496   8.105   6.922   4.475  0.1340 -0.5230  1.4870
30511SOL    HW297497   8.107   6.851   4.341  0.4750  0.5933  0.8893
30512SOL     OW97498   5.556   6.067  11.640 -0.6120 -0.3982 -0.2436
30512SOL    HW197499   5.592   6.113  11.715 -0.3424 -0.4804 -0.3223
30512SOL    HW297500   5.609   5.988  11.632 -0.9965 -0.6651 -0.1816
30513SOL     OW97501   8.023   1.527  12.337  0.3669  0.6490 -0.0714
30513SOL    HW197502   7.956   1.581  12.294  1.5289  1.1560 -1.2998
30513SOL    HW297503   7.995   1.522  12.429  0.2706  3.4380  0.1199
30514SOL     OW97504   0.690   3.738   4.597 -0.3043  0.0863  0.5193
30514SOL    HW197505   0.747   3.807   4.564 -1.9154  1.0035 -0.4995
30514SOL    HW297506   0.745   3.660   4.598  1.0196  0.9644 -0.1959
30515SOL     OW97507   5.834   7.519  11.055 -0.0628 -0.3174  0.5863
30515SOL    HW197508   5.892   7.444  11.065 -0.1749 -0.5680 -0.5326
30515SOL    HW297509   5.795   7.531  11.142  1.9070  0.0931  1.4865
30516SOL     OW97510   6.764  10.947   1.924  0.1913  0.2696  0.5281
30516SOL    HW197511   6.727  10.964   2.010 -0.5767  2.2271 -0.1357
30516SOL    HW297512   6.717  10.870   1.892 -1.7451  1.3418  0.6393
30517SOL     OW97513   3.486   5.695   3.715  0.0682 -0.1068  0.4158
30517SOL    HW197514   3.475   5.600   3.718  0.6763 -0.2510 -0.8822
30517SOL    HW297515   3.397   5.730   3.718 -0.0995 -0.5597  3.3873
30518SOL     OW97516   8.394   7.332   4.722 -0.0409  0.2594  0.3988
30518SOL    HW197517   8.382   7.266   4.654 -0.3803  1.3316 -0.6259
30518SOL    HW297518   8.306   7.366   4.739  0.0965  0.2757  1.0795
30519SOL     OW97519   0.691   9.661  11.717 -0.0798  0.3031 -0.1474
30519SOL    HW197520   0.724   9.676  11.628  0.8334  1.3987  0.3577
30519SOL    HW297521   0.682   9.566  11.723  1.0560  0.1160 -1.0032
30520SOL     OW97522   1.339   1.778   2.785  0.0519 -0.2151  0.1047
30520SOL    HW197523   1.356   1.786   2.691 -2.1063 -1.1880 -0.4176
30520SOL    HW297524   1.363   1.863   2.821  0.9080  0.1769 -1.3078
30521SOL     OW97525  12.402   9.978   1.588  0.5435 -0.0472 -0.0738
30521SOL    HW197526  12.319   9.975   1.634  1.1457 -0.5248  1.0181
30521SOL    HW297527  12.466   9.948   1.652  1.7576  1.6096 -0.4633
30522SOL     OW97528  11.292   2.795   6.716 -0.4751 -0.2789 -0.2251
30522SOL    HW197529  11.239   2.821   6.641 -0.0769 -1.2743 -0.8704
30522SOL    HW297530  11.228   2.777   6.786 -0.8968 -0.1242 -0.5659
30523SOL     OW97531   5.710  10.749  12.020  0.3577 -0.3267 -0.1423
30523SOL    HW197532   5.703  10.786  12.108 -2.2444 -0.5892 -0.1800
30523SOL    HW297533   5.732  10.824  11.964  0.5966  0.1053  0.5233
30524SOL     OW97534   5.854   7.836   5.100  0.0645  0.0198  0.0002
30524SOL    HW197535   5.946   7.862   5.096  0.8157 -1.9989  2.0507
30524SOL    HW297536   5.848   7.761   5.040 -0.5616  0.8337 -0.9936
30525SOL     OW97537   3.955  12.282   2.292  1.2197  0.0010  0.4726
30525SOL    HW197538   3.895  12.226   2.243  0.2902  1.6768 -0.4134
30525SOL    HW297539   4.042  12.261   2.258  0.8763 -0.7684  0.0591
30526SOL     OW97540   6.144   1.591  11.849 -0.2983 -0.2190 -0.1752
30526SOL    HW197541   6.162   1.672  11.802  1.8556  0.1865  1.2102
30526SOL    HW297542   6.075   1.548  11.798 -1.6651  2.5462 -0.8365
30527SOL     OW97543   0.271   3.429   2.223  0.2631  0.1025 -0.2970
30527SOL    HW197544   0.192   3.390   2.185  0.7126 -0.2424 -0.8936
30527SOL    HW297545   0.333   3.433   2.150  1.6600 -1.9070  0.6845
30528SOL     OW97546   9.183  11.628   9.079  1.1456 -0.0740 -0.2393
30528SOL    HW197547   9.190  11.586   8.993 -0.4648 -0.2069 -0.3276
30528SOL    HW297548   9.270  11.617   9.118  0.9256 -3.1514 -0.4003
30529SOL     OW97549   5.687   3.227  11.121 -0.2623 -0.5152  0.1754
30529SOL    HW197550   5.656   3.254  11.034 -0.6820 -0.1411  0.4351
30529SOL    HW297551   5.781   3.243  11.118  0.1190 -2.5847 -0.9599
30530SOL     OW97552  11.934   9.296   0.553 -0.4737 -0.1385  0.1150
30530SOL    HW197553  11.996   9.369   0.550 -2.2240  1.4415  0.6352
30530SOL    HW297554  11.961   9.239   0.482 -0.5506  2.3112 -2.0265
30531SOL     OW97555  11.657   7.346   4.448 -0.6115 -0.4751  0.7177
30531SOL    HW197556  11.692   7.257   4.443  0.7288  0.0790 -0.3204
30531SOL    HW297557  11.667   7.381   4.360  2.0243  1.8282  1.7963
30532SOL     OW97558   0.890  12.398   9.741 -0.0352  0.4567  1.0885
30532SOL    HW197559   0.922  12.385   9.831 -0.1867 -1.9688  0.8423
30532SOL    HW297560   0.804  12.356   9.739  0.8137 -1.3536 -0.6776
30533SOL     OW97561   9.893   2.489   7.255 -0.0471  0.4374 -0.1428
30533SOL    HW197562   9.942   2.434   7.193  2.1465  0.5658  1.3681
30533SOL    HW297563   9.915   2.453   7.341 -0.2810  2.3557  0.7652
30534SOL     OW97564   6.930   7.894   0.755 -0.1775  0.6105  0.2725
30534SOL    HW197565   6.874   7.953   0.806 -0.2029 -0.1667  1.1522
30534SOL    HW297566   6.995   7.863   0.817  1.8969  2.2585 -0.9435
30535SOL     OW97567  12.075   5.305   9.419 -0.1836  0.6158 -0.0295
30535SOL    HW197568  12.103   5.317   9.328  1.3188 -1.3150  0.1182
30535SOL    HW297569  12.130   5.366   9.469  0.5857  0.0651 -0.1960
30536SOL     OW97570   9.085   2.090   1.155  0.5367 -0.5650  0.8820
30536SOL    HW197571   9.174   2.093   1.192  0.1762  0.9569  1.7166
30536SOL    HW297572   9.045   2.012   1.195  1.1564 -0.6621  1.3278
30537SOL     OW97573   2.068   4.879  10.972  0.4891  0.1377  0.0881
30537SOL    HW197574   1.993   4.838  10.930  0.6112 -0.7439  0.7240
30537SOL    HW297575   2.036   4.966  10.998  0.4358  0.7832 -1.8864
30538SOL     OW97576  10.999   4.895   2.384  0.0842  0.5408 -0.1022
30538SOL    HW197577  10.913   4.852   2.386 -1.8041  3.5480 -3.7325
30538SOL    HW297578  11.007   4.936   2.470 -2.5414  0.7913  0.1021
30539SOL     OW97579   5.652   3.226  11.392 -0.0794  0.0943  0.3117
30539SOL    HW197580   5.611   3.142  11.414  1.3643 -0.8451 -0.4408
30539SOL    HW297581   5.672   3.220  11.299 -3.5780  2.9185 -0.8115
30540SOL     OW97582   3.953   5.370   0.556 -0.3045  1.1906 -0.3317
30540SOL    HW197583   4.033   5.327   0.585 -0.3649  1.3028  0.0120
30540SOL    HW297584   3.961   5.375   0.461 -0.0423  0.9298 -0.3246
30541SOL     OW97585   1.526   3.748   7.869 -0.0187 -0.6682 -0.3827
30541SOL    HW197586   1.596   3.811   7.886  0.8642 -1.7302 -0.0026
30541SOL    HW297587   1.521   3.742   7.774 -0.1137 -0.0431 -0.4250
30542SOL     OW97588   2.601   3.509   5.329  0.1364 -0.1410  0.0782
30542SOL    HW197589   2.594   3.588   5.382  2.0809 -0.2870  0.6371
30542SOL    HW297590   2.687   3.515   5.287  0.4123 -2.0339  0.2678
30543SOL     OW97591   2.649   1.408   5.963 -0.0080 -0.5208 -0.0913
30543SOL    HW197592   2.668   1.373   5.876 -1.6915 -0.6326 -0.4588
30543SOL    HW297593   2.728   1.391   6.014  0.8374 -0.8702 -1.4682
30544SOL     OW97594   4.047   9.780   5.578  0.1401  0.2774 -0.4474
30544SOL    HW197595   3.963   9.823   5.563  0.7923  1.1828 -1.6658
30544SOL    HW297596   4.055   9.777   5.674 -1.2792  0.1342 -0.3105
30545SOL     OW97597   1.475  11.244   9.148  0.0376  0.4102  0.1712
30545SOL    HW197598   1.564  11.226   9.118 -0.4852  0.4530 -1.5113
30545SOL    HW297599   1.478  11.335   9.175  0.4010  0.5709 -0.3724
30546SOL     OW97600  10.475   9.268   0.998  0.2546 -0.2888 -0.5770
30546SOL    HW197601  10.431   9.220   1.068 -0.1685  0.1490 -0.5442
30546SOL    HW297602  10.427   9.350   0.991  1.7034  0.6686  0.1919
30547SOL     OW97603   6.831   6.285   0.442  0.3049 -0.5348  0.6730
30547SOL    HW197604   6.841   6.350   0.373  0.1654 -1.2496 -0.0316
30547SOL    HW297605   6.878   6.322   0.517  0.1398  0.4136  0.3143
30548SOL     OW97606   2.159   3.810   9.246 -0.1558 -0.3252  0.2997
30548SOL    HW197607   2.203   3.818   9.161 -0.2198  0.1977  0.3101
30548SOL    HW297608   2.074   3.771   9.226 -0.9172  1.4416 -0.1398
30549SOL     OW97609   7.961   7.116   3.949  0.0646  0.3154 -0.3088
30549SOL    HW197610   7.981   7.186   3.886  0.3564 -0.7083 -1.3853
30549SOL    HW297611   7.867   7.100   3.937 -0.0305  0.6116  0.0336
30550SOL     OW97612   3.083   6.445   8.917 -0.2301 -0.2502 -0.4494
30550SOL    HW197613   3.138   6.470   8.843  0.7069 -0.2455  0.2442
30550SOL    HW297614   3.042   6.363   8.890  1.0891 -0.9143 -0.4666
30551SOL     OW97615   5.674  12.444   1.053  0.6458  0.0911 -0.0849
30551SOL    HW197616   5.716  12.361   1.030  0.0327 -0.8296  1.9522
30551SOL    HW297617   5.734  12.485   1.116  0.7979  1.0956 -0.8409
30552SOL     OW97618   8.038   3.185   8.584  0.2850 -0.1273 -0.3772
30552SOL    HW197619   8.082   3.236   8.652  0.3075  0.7131 -1.0048
30552SOL    HW297620   8.109   3.138   8.540  0.0979 -2.1861  1.3519
30553SOL     OW97621   6.236   4.372   8.832  0.2437  0.0431  0.3308
30553SOL    HW197622   6.141   4.376   8.829  0.2860  0.5073 -0.9698
30553SOL    HW297623   6.258   4.392   8.923 -0.8598  0.9854  0.4120
30554SOL     OW97624   1.090   1.612   2.140 -0.5554  0.3717  0.1726
30554SOL    HW197625   1.034   1.632   2.215  1.0600  2.4751  0.9223
30554SOL    HW297626   1.159   1.557   2.176  0.9578  2.4685  0.6014
30555SOL     OW97627  12.318   2.989   3.287 -0.0689  0.5402  0.3413
30555SOL    HW197628  12.286   3.075   3.260 -2.2054 -0.0831  0.7160
30555SOL    HW297629  12.309   2.988   3.382  0.4245  0.0743  0.3913
30556SOL     OW97630   1.350   8.908   5.218 -0.0043  0.6431  0.1577
30556SOL    HW197631   1.326   9.001   5.222 -1.0573  0.3509  0.7524
30556SOL    HW297632   1.313   8.877   5.136 -0.4774  0.5152  0.4217
30557SOL     OW97633   0.716   5.877   3.767 -0.4389 -0.3354  0.0441
30557SOL    HW197634   0.670   5.958   3.748  0.4098  0.1316 -0.0554
30557SOL    HW297635   0.802   5.905   3.798  0.2899 -1.2077 -1.0985
30558SOL     OW97636   4.551   5.362   6.411  0.3565 -0.4441 -0.1070
30558SOL    HW197637   4.608   5.300   6.366  0.1453 -1.2828  0.7329
30558SOL    HW297638   4.500   5.308   6.471 -0.4994  0.4392 -0.0156
30559SOL     OW97639   6.534   3.888   5.609 -0.1681  0.7900  0.0851
30559SOL    HW197640   6.504   3.815   5.555  0.5417 -0.1439  0.9294
30559SOL    HW297641   6.603   3.929   5.557 -0.2118  0.5424 -0.1720
30560SOL     OW97642   2.280   4.480  11.161 -0.8774 -0.1806 -0.1889
30560SOL    HW197643   2.255   4.572  11.163 -0.1699  0.0273 -0.6839
30560SOL    HW297644   2.201   4.434  11.133 -2.2301 -0.0924  2.9970
30561SOL     OW97645   0.402   0.485   3.252 -0.3294  0.2333 -0.3018
30561SOL    HW197646   0.379   0.436   3.331 -1.5716  0.4741 -0.4954
30561SOL    HW297647   0.433   0.569   3.285 -0.4020  0.1695 -0.0623
30562SOL     OW97648   9.832  10.840   6.563 -0.1705 -0.1113 -0.0413
30562SOL    HW197649   9.786  10.848   6.479 -0.0443  0.1473 -0.0874
30562SOL    HW297650   9.843  10.930   6.592  0.2106 -0.1795  0.0243
30563SOL     OW97651   1.811  12.173   0.596  0.1904  0.1399 -0.2947
30563SOL    HW197652   1.898  12.211   0.598 -0.0635  0.7748 -0.8820
30563SOL    HW297653   1.754  12.244   0.566 -0.3052 -0.6760 -1.3594
30564SOL     OW97654   1.127   8.222   9.096  0.5617  0.7368 -0.6763
30564SOL    HW197655   1.138   8.130   9.074  1.3845  0.6415  0.0831
30564SOL    HW297656   1.182   8.268   9.033  1.4845  0.5853  0.0003
30565SOL     OW97657  11.158   0.517   5.997  0.0855  0.3788 -0.2926
30565SOL    HW197658  11.064   0.499   5.986  0.0448  0.3202  0.1335
30565SOL    HW297659  11.190   0.444   6.050  0.1369  1.0031  0.5549
30566SOL     OW97660   9.447  10.673   5.051 -0.2762  0.3817 -0.0111
30566SOL    HW197661   9.469  10.615   5.124  1.0294 -1.0113 -1.4480
30566SOL    HW297662   9.397  10.619   4.990 -2.4856  1.8725  0.3383
30567SOL     OW97663   5.335   7.562   2.859  0.5111 -0.0808  0.2681
30567SOL    HW197664   5.363   7.514   2.780  1.2888 -1.0329  1.0942
30567SOL    HW297665   5.398   7.634   2.866  0.1310  0.3074 -0.2572
30568SOL     OW97666   8.184  10.939   0.999 -0.4152  0.0451 -0.4043
30568SOL    HW197667   8.251  10.953   0.931 -0.0931 -0.0125 -0.1014
30568SOL    HW297668   8.152  10.850   0.983 -0.5097  0.1171 -0.6260
30569SOL     OW97669   9.725   3.843   6.824 -0.8663 -0.2312  0.5087
30569SOL    HW197670   9.685   3.930   6.815  0.6548  0.4006 -0.5336
30569SOL    HW297671   9.770   3.847   6.909  0.6639  0.6707 -0.3014
30570SOL     OW97672   5.594   8.979   4.256 -0.0137  0.3900 -0.0476
30570SOL    HW197673   5.587   8.903   4.199 -0.4582  0.0699  0.4223
30570SOL    HW297674   5.543   9.047   4.213  0.0413  0.2933 -0.2626
30571SOL     OW97675   8.279   9.493  11.770 -0.5061  0.2778 -0.1915
30571SOL    HW197676   8.257   9.507  11.678  1.3335 -2.0545 -1.0936
30571SOL    HW297677   8.259   9.400  11.786  1.3200  0.0376  1.0566
30572SOL     OW97678   2.002   4.353   4.223  0.2159  0.3788  0.2730
30572SOL    HW197679   1.937   4.394   4.280 -0.7598  0.5634 -0.9312
30572SOL    HW297680   1.958   4.345   4.139  1.4522 -0.3505 -0.3267
30573SOL     OW97681   2.656   2.508   6.873  0.0872 -0.4663  0.5613
30573SOL    HW197682   2.721   2.526   6.805 -0.8117  0.1960 -0.1439
30573SOL    HW297683   2.692   2.548   6.953  0.5131 -0.0373  0.1582
30574SOL     OW97684   6.965   4.740   4.496  0.1379  0.1467 -0.1710
30574SOL    HW197685   7.009   4.825   4.491  0.5803 -0.1567 -1.9767
30574SOL    HW297686   6.969   4.705   4.407 -0.6744 -1.4593  0.3820
30575SOL     OW97687   3.348   6.591  12.226  0.4708 -0.2842  0.4336
30575SOL    HW197688   3.383   6.507  12.258  4.7273  0.8951 -0.4542
30575SOL    HW297689   3.344   6.646  12.305  1.9789 -0.1157  0.4336
30576SOL     OW97690   1.842  11.454  11.886  0.2048 -0.1135 -0.0402
30576SOL    HW197691   1.914  11.454  11.948  0.0193 -0.8721  0.1910
30576SOL    HW297692   1.774  11.507  11.928  0.5224  0.3656 -0.1331
30577SOL     OW97693   9.723   6.327   9.268 -0.7744 -0.4232  0.7640
30577SOL    HW197694   9.635   6.364   9.259 -0.1561  0.7804 -0.8501
30577SOL    HW297695   9.709   6.233   9.279 -2.2459 -0.5935 -1.7463
30578SOL     OW97696   6.426   1.248   2.462  0.2587 -0.7107  0.8473
30578SOL    HW197697   6.365   1.228   2.391  0.3443 -1.1998  0.9073
30578SOL    HW297698   6.373   1.293   2.527  0.4163  0.7716 -0.0124
30579SOL     OW97699   4.888   4.019  10.028  0.0589 -0.3120  0.0560
30579SOL    HW197700   4.856   3.992  10.114  0.5487  1.7179  0.9397
30579SOL    HW297701   4.821   4.079   9.995 -0.4113 -1.5266 -1.2791
30580SOL     OW97702   6.576   6.091   1.577 -0.7701  0.2682 -0.0716
30580SOL    HW197703   6.563   5.999   1.554  0.0526 -0.3907  1.9037
30580SOL    HW297704   6.653   6.090   1.634 -1.2810  2.0688  0.6963
30581SOL     OW97705   0.921   7.983   3.431 -0.6099 -0.3059  0.0242
30581SOL    HW197706   0.866   7.910   3.403  0.2954 -1.5792  1.4325
30581SOL    HW297707   0.882   8.060   3.389 -3.5393 -1.0981  1.0828
30582SOL     OW97708  12.436   5.616   4.549 -0.0234 -0.3820  0.4914
30582SOL    HW197709  12.451   5.556   4.476  1.5580 -1.1125  1.3405
30582SOL    HW297710  12.457   5.703   4.515 -1.4098 -0.4029 -0.4897
30583SOL     OW97711   5.644   1.570  10.692 -0.0442  0.2967 -0.0208
30583SOL    HW197712   5.689   1.593  10.773  0.8617  0.7264 -0.6273
30583SOL    HW297713   5.713   1.568  10.626 -0.6676 -0.6737 -0.6734
30584SOL     OW97714   0.731  12.472   2.361 -0.1302 -0.2900  0.1331
30584SOL    HW197715   0.817  12.441   2.332 -0.2989  1.2397 -2.2926
30584SOL    HW297716   0.745  12.564   2.383 -0.7845 -0.5313  1.6738
30585SOL     OW97717   0.328  10.079   3.034  0.5514 -0.0689 -0.0084
30585SOL    HW197718   0.353  10.133   2.959 -1.1255 -0.7927 -1.1876
30585SOL    HW297719   0.273  10.136   3.088 -1.0853 -0.4559 -1.1690
30586SOL     OW97720   8.213   6.986   3.375  0.5501  0.0546  0.8003
30586SOL    HW197721   8.247   7.060   3.325  1.4192 -1.1129 -0.3909
30586SOL    HW297722   8.234   7.007   3.466  0.0523  1.6314  0.5972
30587SOL     OW97723   2.955   9.155   4.110 -0.3229  0.3591 -0.3356
30587SOL    HW197724   2.960   9.247   4.136 -0.2882  0.8206 -1.8705
30587SOL    HW297725   3.045   9.125   4.112 -0.2301  0.6114 -0.6802
30588SOL     OW97726  11.054   7.401   7.962 -0.1044  0.6283  0.6612
30588SOL    HW197727  10.999   7.347   7.905  0.0861  0.9857  0.1343
30588SOL    HW297728  11.119   7.339   7.997 -1.2986  0.0461  1.9043
30589SOL     OW97729   6.465   5.455   4.872  0.5121  0.3954  0.6020
30589SOL    HW197730   6.408   5.428   4.800  0.5692  0.8224  0.3948
30589SOL    HW297731   6.490   5.373   4.915 -0.0001  0.1828  0.5012
30590SOL     OW97732   0.583   0.605  10.903 -0.0992  0.2398  0.0034
30590SOL    HW197733   0.598   0.607  10.998 -1.7321 -0.4567  0.3151
30590SOL    HW297734   0.617   0.521  10.875  1.2593  0.8398 -0.2218
30591SOL     OW97735   2.611   7.107  10.232 -0.0826  0.0715 -0.4182
30591SOL    HW197736   2.569   7.026  10.261 -0.6122  0.7107  0.6736
30591SOL    HW297737   2.690   7.078  10.187 -0.8096 -1.0859 -0.9973
30592SOL     OW97738   7.283   4.457   7.486  0.8572 -0.1881  0.1049
30592SOL    HW197739   7.262   4.392   7.553  1.0157  0.5727  0.9117
30592SOL    HW297740   7.376   4.443   7.468  1.0953  0.3222  0.8685
30593SOL     OW97741  10.309   6.458   1.120  0.4375 -0.0022  0.1000
30593SOL    HW197742  10.290   6.498   1.035  0.1769 -0.8085 -0.2258
30593SOL    HW297743  10.237   6.486   1.176  0.2305 -0.0573 -0.1382
30594SOL     OW97744   2.122   2.831   2.867 -0.1926 -0.2923  0.0161
30594SOL    HW197745   2.080   2.910   2.832  0.0462 -0.3510 -0.4098
30594SOL    HW297746   2.114   2.840   2.961 -0.0795  0.2972 -0.0234
30595SOL     OW97747   0.932   1.275   1.243 -0.0193  0.1902 -0.6606
30595SOL    HW197748   1.000   1.223   1.288 -0.9667 -1.3013 -0.8784
30595SOL    HW297749   0.868   1.295   1.311 -0.6988 -0.7573 -1.0064
30596SOL     OW97750  12.420   1.231  11.484  0.6614  0.0355 -0.0369
30596SOL    HW197751  12.378   1.213  11.400  0.6060  1.2417 -0.2857
30596SOL    HW297752  12.389   1.318  11.508  2.8244  0.9027 -0.1232
30597SOL     OW97753   4.221   0.087   8.342 -1.0350 -0.6417 -0.4018
30597SOL    HW197754   4.174   0.154   8.292 -2.4858 -1.1918  0.1416
30597SOL    HW297755   4.177   0.086   8.427  1.4370  0.3652  0.9867
30598SOL     OW97756   2.093   0.313  11.608  0.1307 -0.5229 -0.0020
30598SOL    HW197757   2.156   0.385  11.612  1.6494 -1.6665 -1.6383
30598SOL    HW297758   2.118   0.254  11.678  0.5171 -0.6813 -0.2702
30599SOL     OW97759   3.280   2.334  10.750 -0.0389 -0.5802 -0.3148
30599SOL    HW197760   3.349   2.341  10.816 -0.0932 -0.1191 -0.3023
30599SOL    HW297761   3.304   2.399  10.684 -0.7505 -0.0286 -0.0394
30600SOL     OW97762   1.914   5.607  10.260  0.4250  0.3148  0.4713
30600SOL    HW197763   1.841   5.627  10.319 -0.6825 -0.5621 -0.5418
30600SOL    HW297764   1.983   5.574  10.318  0.6872  2.7574  1.6543
30601SOL     OW97765   4.452  12.155   2.928 -0.2554  0.5819  0.5273
30601SOL    HW197766   4.475  12.136   3.019  1.6555  1.4338  0.2691
30601SOL    HW297767   4.367  12.114   2.916  0.1527 -0.8795  2.2360
30602SOL     OW97768   8.431  10.891   4.125 -0.3765 -0.7036  0.2515
30602SOL    HW197769   8.431  10.796   4.114  0.5429 -1.0669  2.8166
30602SOL    HW297770   8.371  10.923   4.057 -1.7785 -3.2111  0.1990
30603SOL     OW97771  11.962  11.563   5.576  0.1179  0.0993  0.0258
30603SOL    HW197772  11.992  11.517   5.498 -0.8219  0.2657 -0.4460
30603SOL    HW297773  11.867  11.570   5.566 -0.0493 -0.0319  1.2674
30604SOL     OW97774  10.894   3.175   4.184  0.2250 -0.2871 -0.2454
30604SOL    HW197775  10.935   3.093   4.210 -0.4209 -0.4451  0.3130
30604SOL    HW297776  10.965   3.239   4.185  0.6172 -0.7169 -0.0994
30605SOL     OW97777  11.962   0.813  11.480  0.8372 -0.2785  0.4575
30605SOL    HW197778  11.906   0.890  11.471 -0.5926 -1.3511 -0.3060
30605SOL    HW297779  11.905   0.747  11.519  2.2572 -0.7414  1.8408
30606SOL     OW97780   4.992   4.019   1.993  0.0132  0.0861 -0.3226
30606SOL    HW197781   5.028   3.968   2.066 -0.5305  0.5717  0.2999
30606SOL    HW297782   5.065   4.073   1.962  0.2260 -0.0691 -0.0951
30607SOL     OW97783   2.347   0.619   5.285 -0.4914  0.4366 -0.3094
30607SOL    HW197784   2.260   0.650   5.314 -1.3519 -0.1632 -2.0993
30607SOL    HW297785   2.378   0.687   5.226  0.8750  1.2513  1.2586
30608SOL     OW97786   3.919   2.111   8.777 -0.0654  0.0875 -0.0946
30608SOL    HW197787   3.946   2.159   8.698 -2.2033  0.6048 -0.5629
30608SOL    HW297788   3.987   2.045   8.789  0.7936  0.5952 -1.8403
30609SOL     OW97789  10.768   3.888   8.668  0.1774 -0.2814 -0.3488
30609SOL    HW197790  10.675   3.888   8.689  0.3028  0.7043  0.2499
30609SOL    HW297791  10.772   3.906   8.574 -0.2281  0.0363 -0.3059
30610SOL     OW97792  11.752   8.007  10.790  0.2711 -0.4258 -0.1272
30610SOL    HW197793  11.826   8.047  10.745  0.1336 -1.0220 -0.9048
30610SOL    HW297794  11.725   7.935  10.733 -0.2338 -0.8812  0.6642
30611SOL     OW97795   1.994  10.995  10.784  0.1410  0.2212  0.5300
30611SOL    HW197796   2.009  10.953  10.868 -1.1093  2.7702  2.1583
30611SOL    HW297797   2.022  11.086  10.797 -2.1125  1.2474 -1.0710
30612SOL     OW97798  10.842   2.770   3.685  0.1402  0.3262  0.1396
30612SOL    HW197799  10.803   2.684   3.700  3.4717 -1.5250 -0.9566
30612SOL    HW297800  10.795   2.804   3.608 -0.3908 -1.0832 -0.1900
30613SOL     OW97801   2.038   5.260   3.896  0.0998 -0.1564 -0.1281
30613SOL    HW197802   2.105   5.328   3.906  0.4320 -0.5070  0.0574
30613SOL    HW297803   1.958   5.308   3.873  0.0461  0.3895  1.1634
30614SOL     OW97804   5.581   9.663  11.121  0.1704 -0.0643 -0.9106
30614SOL    HW197805   5.575   9.622  11.035 -0.0491  0.2861 -1.0627
30614SOL    HW297806   5.623   9.597  11.176  1.9961  0.3521 -1.7151
30615SOL     OW97807   3.877   9.027   4.192  0.0241 -0.0981 -0.1543
30615SOL    HW197808   3.831   8.959   4.143 -0.8436 -0.2152  0.8052
30615SOL    HW297809   3.961   9.035   4.147  1.0072 -3.2184  0.8640
30616SOL     OW97810   4.083   4.209   5.269 -0.4043  0.5286 -0.4599
30616SOL    HW197811   4.063   4.295   5.306 -1.7125  0.4025 -0.8468
30616SOL    HW297812   4.169   4.187   5.306 -0.5054  1.5502  0.4372
30617SOL     OW97813   0.212   8.637  12.228  0.0260 -0.4875 -0.0968
30617SOL    HW197814   0.292   8.684  12.249  0.2627 -1.7064  1.9670
30617SOL    HW297815   0.145   8.706  12.223  1.0177  0.4452 -0.9659
30618SOL     OW97816   7.031   1.424   6.516  0.9369 -0.3573 -0.1944
30618SOL    HW197817   6.938   1.444   6.531  0.8128  1.5434 -2.7866
30618SOL    HW297818   7.029   1.339   6.472  0.4240 -0.3478 -0.2001
30619SOL     OW97819   8.170   7.656   2.961  0.3464 -0.7381  0.2337
30619SOL    HW197820   8.156   7.635   2.869 -0.4099 -1.5468  0.5142
30619SOL    HW297821   8.119   7.735   2.976  2.1304  0.6329 -0.5097
30620SOL     OW97822   1.363   1.972   2.580  0.1446  0.0673 -0.3116
30620SOL    HW197823   1.291   2.009   2.528  0.2018 -0.1659 -0.5562
30620SOL    HW297824   1.403   2.048   2.623 -0.8962  0.0995  0.6593
30621SOL     OW97825   5.678   4.435   1.220 -0.3473 -0.6558  0.1177
30621SOL    HW197826   5.763   4.479   1.212 -0.5188 -0.3481  0.0122
30621SOL    HW297827   5.701   4.343   1.234  0.0375 -0.3945  1.3253
30622SOL     OW97828  10.907  10.480   0.505 -0.0165  0.2523 -0.2297
30622SOL    HW197829  10.863  10.452   0.584  1.1541 -0.2554  0.2693
30622SOL    HW297830  10.837  10.493   0.441 -0.8912 -0.2436  0.6078
30623SOL     OW97831  11.440   4.317   0.307 -0.5874  0.2149  0.3193
30623SOL    HW197832  11.496   4.393   0.293  0.9281 -0.8294  0.4965
30623SOL    HW297833  11.494   4.255   0.356 -1.7992 -0.9569  0.2462
30624SOL     OW97834   2.623   4.805   6.736 -0.4383 -0.8374  0.2177
30624SOL    HW197835   2.714   4.824   6.711 -0.5132 -0.2098  0.4067
30624SOL    HW297836   2.621   4.710   6.750  0.0922 -0.9074 -0.1754
30625SOL     OW97837   4.749   4.489   4.696  0.1555 -0.3750  0.2305
30625SOL    HW197838   4.781   4.510   4.608 -0.5607 -0.9648 -0.1895
30625SOL    HW297839   4.742   4.573   4.740 -0.2350  0.0079 -0.5469
30626SOL     OW97840   6.721  10.481   9.400 -0.2536  0.2926  0.1419
30626SOL    HW197841   6.709  10.493   9.494 -2.3319  0.5414 -0.1129
30626SOL    HW297842   6.694  10.390   9.384  1.1752 -0.1233 -0.0872
30627SOL     OW97843   1.332   3.807   1.629  0.5503  0.1138  0.1636
30627SOL    HW197844   1.411   3.755   1.647 -0.2490 -0.4369  2.4223
30627SOL    HW297845   1.360   3.872   1.566  2.7791 -0.1883  0.7517
30628SOL     OW97846   8.284  12.122   7.224  0.0265  0.3170 -0.1814
30628SOL    HW197847   8.355  12.062   7.248  0.3701  1.8468  3.1781
30628SOL    HW297848   8.326  12.188   7.170  0.4637 -0.3640 -0.6973
30629SOL     OW97849   6.778   9.725   8.172  0.5954  0.0181 -0.6007
30629SOL    HW197850   6.724   9.801   8.153  0.1287 -0.0896  0.2456
30629SOL    HW297851   6.732   9.652   8.129 -0.2492 -0.1634  0.5739
30630SOL     OW97852   0.202   1.455  11.378 -0.6944  0.1473 -0.6305
30630SOL    HW197853   0.158   1.486  11.457 -1.3107 -1.9929 -0.0517
30630SOL    HW297854   0.260   1.526  11.353 -1.2561  1.3057  1.1516
30631SOL     OW97855   8.674   8.463   6.715 -0.1834 -0.2051  0.3566
30631SOL    HW197856   8.633   8.511   6.787 -0.7881  0.2721 -0.3028
30631SOL    HW297857   8.727   8.528   6.669  1.4791 -0.8385  1.2818
30632SOL     OW97858   4.064   6.127   9.720  0.1462  0.0056 -0.6064
30632SOL    HW197859   3.982   6.098   9.681  0.5091 -1.3530 -0.3978
30632SOL    HW297860   4.063   6.092   9.809 -0.0062  1.8246  0.1538
30633SOL     OW97861   9.825   5.490   5.627 -0.1420  0.0066  0.1058
30633SOL    HW197862   9.881   5.426   5.671  0.8142 -1.6701 -3.2009
30633SOL    HW297863   9.768   5.437   5.571 -1.5842  1.9280 -0.3417
30634SOL     OW97864   1.572  12.181   4.352  0.1287  0.4941 -0.1143
30634SOL    HW197865   1.573  12.113   4.419 -0.5722  0.1679 -0.4265
30634SOL    HW297866   1.509  12.246   4.385 -0.2206  0.3306 -0.4592
30635SOL     OW97867   0.650   5.768   1.232 -0.5597  0.1749 -0.0092
30635SOL    HW197868   0.668   5.836   1.297 -0.2951  1.3622 -1.2663
30635SOL    HW297869   0.626   5.816   1.153  0.4810 -1.1528 -1.1994
30636SOL     OW97870   4.831   7.416   7.378 -0.1325  0.0256  0.3104
30636SOL    HW197871   4.834   7.322   7.399  0.1485  0.0564  0.4030
30636SOL    HW297872   4.819   7.419   7.283  0.3837 -0.1001  0.2420
30637SOL     OW97873  11.640  10.523   2.783  0.0415  0.0597 -0.1113
30637SOL    HW197874  11.601  10.495   2.865  0.0811 -0.3391 -0.2284
30637SOL    HW297875  11.612  10.458   2.719  2.1276 -1.1152  0.0912
30638SOL     OW97876   6.048   4.231   2.794  0.4218  0.0169  0.4042
30638SOL    HW197877   6.052   4.198   2.704 -1.0760  0.2106  0.2420
30638SOL    HW297878   6.124   4.192   2.837  0.5611 -0.9433 -0.6624
30639SOL     OW97879   3.105  10.874   2.270  0.1154 -0.3137  0.1121
30639SOL    HW197880   3.015  10.839   2.274  0.3543 -0.9195  0.4139
30639SOL    HW297881   3.157  10.810   2.319  0.8498 -0.3978 -0.7675
30640SOL     OW97882   5.374   0.547  12.262  0.4497 -0.2604  0.2603
30640SOL    HW197883   5.442   0.607  12.231 -0.6911  0.6015 -0.6562
30640SOL    HW297884   5.302   0.559  12.201  0.2060 -2.6928 -0.0314
30641SOL     OW97885   6.835  12.013   7.384  0.6531  0.3649  0.4431
30641SOL    HW197886   6.748  12.048   7.402  0.9533  0.3505  2.0254
30641SOL    HW297887   6.855  11.958   7.460  1.6832 -0.3479 -0.3187
30642SOL     OW97888  11.753  11.904   0.585  0.5131 -0.0924 -0.2012
30642SOL    HW197889  11.816  11.841   0.619  0.6780  1.7101  3.3412
30642SOL    HW297890  11.668  11.874   0.619  0.5199  1.1444  1.0383
30643SOL     OW97891   1.468   6.162   5.326 -0.0610 -0.8199  0.4599
30643SOL    HW197892   1.382   6.175   5.367 -0.6757  0.7452 -1.1631
30643SOL    HW297893   1.451   6.172   5.232  1.7671 -1.3604  0.0381
30644SOL     OW97894  10.778   2.586   6.823  0.3423 -0.4260  0.5937
30644SOL    HW197895  10.694   2.629   6.809  0.9123  0.5108 -0.0805
30644SOL    HW297896  10.777   2.513   6.761  0.0162 -0.4316  0.6025
30645SOL     OW97897   8.756  12.296   5.675 -0.1258  0.0276  0.2716
30645SOL    HW197898   8.757  12.368   5.612 -0.9121  0.7272  1.0435
30645SOL    HW297899   8.812  12.229   5.635 -0.6541  0.4219 -1.2021
30646SOL     OW97900   0.599   6.243   4.683 -0.0720  0.0364  0.4339
30646SOL    HW197901   0.600   6.173   4.748 -1.7927  0.5943  1.0975
30646SOL    HW297902   0.629   6.321   4.730 -1.8625  0.5661  0.7472
30647SOL     OW97903   4.557   4.994   4.104 -0.5238  0.8297  0.0917
30647SOL    HW197904   4.647   4.965   4.087 -1.6703 -2.1850 -1.6686
30647SOL    HW297905   4.530   4.942   4.180 -1.4302  0.0335 -0.7524
30648SOL     OW97906   5.299   0.532   4.807 -0.3197 -0.2482  0.1190
30648SOL    HW197907   5.329   0.501   4.721  2.4398  2.2087  0.0570
30648SOL    HW297908   5.360   0.493   4.869  0.0263  0.9111  0.5361
30649SOL     OW97909   9.726   4.591   6.018  0.2852 -0.3457  0.0068
30649SOL    HW197910   9.731   4.580   6.113 -0.1835 -0.1818  0.0505
30649SOL    HW297911   9.710   4.684   6.005 -2.2417 -0.7342 -0.1325
30650SOL     OW97912   3.271  10.871  10.794  0.4060  0.6673  0.3565
30650SOL    HW197913   3.236  10.914  10.716  1.1082 -0.5114 -0.6428
30650SOL    HW297914   3.198  10.822  10.830  0.0284  1.3724  0.5851
30651SOL     OW97915   7.778   9.286   6.661  0.2018 -0.2385  0.0683
30651SOL    HW197916   7.837   9.254   6.593 -0.1069  1.4871 -1.0809
30651SOL    HW297917   7.796   9.231   6.737  1.0795 -1.7436 -1.1824
30652SOL     OW97918   4.402   5.592   2.982  0.1991  0.2371 -0.4738
30652SOL    HW197919   4.355   5.653   3.039  0.2958  0.0898 -0.2344
30652SOL    HW297920   4.348   5.587   2.903  1.3468  2.4600 -1.4982
30653SOL     OW97921   8.505   1.702   3.004  0.0063 -0.5381  0.0392
30653SOL    HW197922   8.581   1.671   3.053  0.4492 -1.4086 -1.1341
30653SOL    HW297923   8.537   1.780   2.958 -0.2491 -0.0459  0.6836
30654SOL     OW97924  10.805   0.272   4.665 -0.0045  0.5219  0.2655
30654SOL    HW197925  10.836   0.214   4.595 -1.4547  0.5857 -0.4807
30654SOL    HW297926  10.823   0.360   4.633  0.2595  0.5341  0.4425
30655SOL     OW97927   6.074   9.853   3.685  0.1871 -0.1609 -0.5483
30655SOL    HW197928   6.060   9.795   3.760 -0.0931 -0.9554 -1.2034
30655SOL    HW297929   6.158   9.895   3.703 -0.7016  1.0223  1.0787
30656SOL     OW97930  11.661   5.510   8.181  0.3312 -0.0312  0.0916
30656SOL    HW197931  11.741   5.482   8.137  0.8945  0.1565  0.9748
30656SOL    HW297932  11.652   5.452   8.256  1.3638  1.8441  1.7835
30657SOL     OW97933   5.261   3.594   4.888 -0.0511  0.4044 -0.2957
30657SOL    HW197934   5.282   3.510   4.848  0.5161  0.8671 -1.0028
30657SOL    HW297935   5.321   3.656   4.846  0.6308  0.9014  1.3588
30658SOL     OW97936   5.880   3.475   5.737  0.8422  0.1077 -0.2048
30658SOL    HW197937   5.965   3.490   5.695  0.3868  0.4630 -1.0247
30658SOL    HW297938   5.862   3.382   5.722  0.9294  0.1116 -0.3370
30659SOL     OW97939   1.819  11.455   7.870 -0.5889 -0.3122 -0.1170
30659SOL    HW197940   1.738  11.506   7.879 -2.0675 -1.4348 -4.5169
30659SOL    HW297941   1.873  11.507   7.811 -0.7631 -2.2650 -2.0945
30660SOL     OW97942   9.919   0.409  11.845 -0.1653  0.5114 -0.4557
30660SOL    HW197943   9.923   0.503  11.829 -1.1363  0.6190 -0.1183
30660SOL    HW297944   9.839   0.396  11.896  1.3015 -0.1715  1.8098
30661SOL     OW97945   0.507   7.594   7.655  0.3908 -0.1323 -0.0819
30661SOL    HW197946   0.536   7.646   7.580  2.3945 -0.4355  0.4197
30661SOL    HW297947   0.502   7.656   7.727  2.2559 -0.4653  0.3899
30662SOL     OW97948   1.735  10.181  11.277 -0.0213  0.7595  0.5929
30662SOL    HW197949   1.767  10.230  11.352 -0.7786  2.2399 -0.0193
30662SOL    HW297950   1.764  10.232  11.201  1.8087 -1.3159 -0.2465
30663SOL     OW97951   3.381   0.003   9.350 -0.0670  0.1590 -0.2407
30663SOL    HW197952   3.343   0.006   9.263 -0.5709 -2.2533 -0.1837
30663SOL    HW297953   3.461  -0.049   9.339 -0.6973 -1.1246  0.8478
30664SOL     OW97954   9.225  11.867  11.087  0.4921 -0.4758  0.8602
30664SOL    HW197955   9.289  11.909  11.030 -0.3206  0.1896  0.4394
30664SOL    HW297956   9.273  11.854  11.170  0.7511  1.2944  1.0165
30665SOL     OW97957   4.541  10.142   7.127 -0.4597 -0.3102  0.3457
30665SOL    HW197958   4.614  10.198   7.154 -0.1033 -0.8997  0.6097
30665SOL    HW297959   4.531  10.079   7.198 -1.6530  0.1575  0.6217
30666SOL     OW97960  12.294   6.145   3.909 -0.3108 -0.2705  0.2564
30666SOL    HW197961  12.279   6.080   3.840  1.0812  0.5042 -0.8373
30666SOL    HW297962  12.240   6.115   3.983 -1.9873 -1.0251 -1.2082
30667SOL     OW97963  10.122   1.532   9.465 -0.1921 -0.6049 -0.5394
30667SOL    HW197964  10.166   1.455   9.500 -0.6411 -0.6468 -0.0641
30667SOL    HW297965  10.162   1.545   9.379  1.0383 -0.3976  0.0527
30668SOL     OW97966   3.430  10.395  11.114 -0.0412 -0.7344 -0.8075
30668SOL    HW197967   3.486  10.430  11.184  0.8984 -3.0166 -0.3220
30668SOL    HW297968   3.391  10.472  11.074  0.5664  0.7401  1.2594
30669SOL     OW97969   1.403  11.462  10.407  0.0840  0.3592 -0.5331
30669SOL    HW197970   1.376  11.371  10.421  0.9152  0.0577 -0.8322
30669SOL    HW297971   1.341  11.497  10.344  1.0317 -0.6709 -2.1049
30670SOL     OW97972  12.026   1.755   6.947  0.0915 -0.3696 -0.0432
30670SOL    HW197973  12.057   1.821   6.885  1.2745 -0.2609  0.6345
30670SOL    HW297974  12.020   1.802   7.031  1.8063 -1.2696  0.6440
30671SOL     OW97975   0.587   3.910  10.067  0.4534  0.0844 -0.3833
30671SOL    HW197976   0.675   3.926  10.103  0.6366  1.2227 -1.2800
30671SOL    HW297977   0.586   3.816  10.048  1.1485 -0.1110  0.4898
30672SOL     OW97978  12.384   0.677  10.516  0.2824  0.1644 -0.1464
30672SOL    HW197979  12.352   0.751  10.463  1.5533  1.2930  0.6055
30672SOL    HW297980  12.478   0.692  10.524  0.8497 -2.3434 -1.1571
30673SOL     OW97981   8.058   8.285   1.677 -0.1184  0.3058  0.3756
30673SOL    HW197982   8.001   8.353   1.641 -0.8595 -0.5470 -0.0909
30673SOL    HW297983   8.018   8.203   1.649  0.5463 -0.3351  1.2653
30674SOL     OW97984   7.583  12.202  11.213 -0.3862 -0.4213 -0.3782
30674SOL    HW197985   7.529  12.273  11.177 -0.1167 -0.3791 -0.7064
30674SOL    HW297986   7.640  12.244  11.276  1.9411  0.2447 -2.7473
30675SOL     OW97987   9.222   8.878   4.294 -1.2900 -0.5986 -0.0064
30675SOL    HW197988   9.177   8.946   4.244 -0.8157 -0.4953 -0.2966
30675SOL    HW297989   9.278   8.926   4.356 -0.3033 -0.7057 -0.7894
30676SOL     OW97990   1.740  10.782   9.305  1.0497  0.5851  0.3140
30676SOL    HW197991   1.742  10.696   9.262 -0.2877 -0.0789  1.4874
30676SOL    HW297992   1.658  10.781   9.355  1.8101  1.9195  1.6493
30677SOL     OW97993   4.606   7.600  11.537 -0.2746  0.1110  0.0330
30677SOL    HW197994   4.664   7.533  11.501  1.4282  1.4056  0.2731
30677SOL    HW297995   4.531   7.600  11.477  0.6132 -0.6155 -1.1289
30678SOL     OW97996   7.377   9.619  11.291 -0.3534  0.0017 -0.1977
30678SOL    HW197997   7.292   9.582  11.316 -0.8281  1.3771  0.3388
30678SOL    HW297998   7.370   9.632  11.196 -1.3782  1.5395  0.0437
30679SOL     OW97999   1.165   2.345   7.349  0.1646  0.0551 -0.6089
30679SOL    HW198000   1.236   2.298   7.304  1.0522  0.6182  0.1740
30679SOL    HW298001   1.193   2.437   7.348 -0.5971  0.2938 -0.3630
30680SOL     OW98002   4.791   7.121   7.470  0.1461 -0.4728  0.0140
30680SOL    HW198003   4.784   7.062   7.545  1.4757 -0.5890  0.0682
30680SOL    HW298004   4.797   7.063   7.394 -0.0693 -0.3805 -0.0737
30681SOL     OW98005   9.134   2.546  11.362 -0.1223  0.0021 -0.4513
30681SOL    HW198006   9.226   2.566  11.349 -0.2919  1.8378  0.7100
30681SOL    HW298007   9.128   2.515  11.453 -0.6414 -0.1925 -0.5424
30682SOL     OW98008  10.217   5.672   2.818  0.1609 -0.6521  0.0772
30682SOL    HW198009  10.196   5.683   2.911  0.0971 -1.2347  0.1327
30682SOL    HW298010  10.284   5.739   2.801 -0.3518 -0.0484  0.3582
30683SOL     OW98011   8.122   9.409   9.986 -0.7113 -0.6102 -0.1678
30683SOL    HW198012   8.186   9.480   9.978  1.1438 -1.9421  1.6641
30683SOL    HW298013   8.091   9.394   9.897  1.0383  0.5600 -1.0305
30684SOL     OW98014   3.027   8.887  10.795 -0.6724 -0.2623 -0.2841
30684SOL    HW198015   2.962   8.957  10.789 -2.0358 -1.5098 -0.4713
30684SOL    HW298016   3.048   8.867  10.704  0.1685  0.2808 -0.2236
30685SOL     OW98017   3.328   6.664   5.235 -0.3409  0.2459  0.0500
30685SOL    HW198018   3.341   6.572   5.211 -0.2707 -0.2888  1.9672
30685SOL    HW298019   3.416   6.701   5.238 -0.3923  0.4914 -1.0590
30686SOL     OW98020   5.036   9.454   0.148  0.3809  0.2191  0.7352
30686SOL    HW198021   5.077   9.540   0.151  1.2423 -0.1964  1.5413
30686SOL    HW298022   4.985   9.448   0.229  0.6359 -0.1562  0.8765
30687SOL     OW98023   8.149   4.023   5.440 -0.1862  0.2730  0.2523
30687SOL    HW198024   8.150   3.965   5.516  1.7191 -0.0095  0.0449
30687SOL    HW298025   8.216   3.989   5.382 -0.3182  1.5907 -0.7286
30688SOL     OW98026   4.200   6.002  10.244  0.1345 -0.1274 -0.1790
30688SOL    HW198027   4.151   5.927  10.277  1.6159 -0.8937  0.3696
30688SOL    HW298028   4.289   5.990  10.278  0.1823  2.4461  0.8682
30689SOL     OW98029   8.781   9.333   1.955  0.3746 -0.3005  0.2964
30689SOL    HW198030   8.830   9.276   1.896  0.3147 -0.6039  0.5363
30689SOL    HW298031   8.808   9.422   1.931  0.2293 -0.4146 -0.2861
30690SOL     OW98032  11.813   7.376  11.911  0.3126  0.0828 -0.1383
30690SOL    HW198033  11.906   7.354  11.913  0.0608 -1.0587 -0.3058
30690SOL    HW298034  11.798   7.408  11.821  0.8622  1.8624  0.3614
30691SOL     OW98035   7.064   0.691   7.061  0.0397  0.0001  0.4413
30691SOL    HW198036   7.028   0.666   7.146 -0.9499  1.5636  0.5283
30691SOL    HW298037   7.073   0.786   7.066  1.4737 -0.0440 -0.6558
30692SOL     OW98038   6.809   1.075   1.256 -0.2152  0.2976 -0.4277
30692SOL    HW198039   6.894   1.090   1.214 -0.4419 -0.6287 -1.2494
30692SOL    HW298040   6.749   1.057   1.183 -0.7683 -0.6413  0.2406
30693SOL     OW98041   6.050   0.686   2.133  0.1142 -0.5287  0.0155
30693SOL    HW198042   6.003   0.640   2.202  1.7517 -1.5627  0.5233
30693SOL    HW298043   5.996   0.674   2.055 -0.3972 -1.7855  0.5335
30694SOL     OW98044   3.076  12.030   4.872  0.1341  0.0652  0.2432
30694SOL    HW198045   3.071  11.962   4.939  2.4614  0.7060  1.1723
30694SOL    HW298046   3.155  12.080   4.894  1.6090 -0.2679 -3.4814
30695SOL     OW98047   9.179  12.419   0.792  0.5250 -0.3527  0.0950
30695SOL    HW198048   9.141  12.439   0.706  0.1581 -2.4587 -0.2820
30695SOL    HW298049   9.105  12.385   0.843  1.3850 -2.3317  0.1026
30696SOL     OW98050   9.884   5.585   9.009 -0.2347 -0.2225  0.0436
30696SOL    HW198051   9.927   5.665   9.038 -0.7193  0.4859 -1.1042
30696SOL    HW298052   9.870   5.598   8.915 -1.0354 -1.3145 -0.0101
30697SOL     OW98053   0.023   9.417   2.643 -0.2292 -0.0940 -1.2498
30697SOL    HW198054   0.065   9.342   2.684 -1.6976 -0.2261  0.1096
30697SOL    HW298055  -0.022   9.381   2.567  0.4071 -0.2913 -1.5416
30698SOL     OW98056  10.966   5.734   2.194 -0.1366 -0.1994 -0.1013
30698SOL    HW198057  11.055   5.700   2.207 -0.4010 -0.9866 -0.3057
30698SOL    HW298058  10.935   5.690   2.115 -0.3807  0.7696 -0.5552
30699SOL     OW98059   4.620  11.095   0.088 -0.0575 -0.4362  0.1656
30699SOL    HW198060   4.650  11.051   0.167  1.6610 -0.6273 -0.5495
30699SOL    HW298061   4.672  11.175   0.083 -1.0444  0.2067 -0.1215
30700SOL     OW98062   3.336  10.191   8.765  0.3645 -0.3836 -0.2555
30700SOL    HW198063   3.319  10.104   8.800 -3.1021  0.2948  0.0919
30700SOL    HW298064   3.308  10.251   8.835  0.9760  0.9940 -1.1476
30701SOL     OW98065   9.265   3.963   2.559  0.0902 -0.1304 -0.8874
30701SOL    HW198066   9.263   3.880   2.512 -0.4909  0.1290 -1.3255
30701SOL    HW298067   9.193   3.956   2.623  1.8522 -1.1361  1.1289
30702SOL     OW98068   1.014  11.068   7.522  0.3505  0.2873 -0.3644
30702SOL    HW198069   1.086  11.036   7.468  0.6649 -0.2298  0.3488
30702SOL    HW298070   1.016  11.163   7.511  0.6728  0.2192 -0.9282
30703SOL     OW98071   1.555   2.989   7.577 -0.0594 -0.1340 -0.3005
30703SOL    HW198072   1.597   2.957   7.498  2.5065 -0.7063  1.1926
30703SOL    HW298073   1.529   2.910   7.625  1.7809  0.0411  1.0878
30704SOL     OW98074   2.097  10.833   1.032 -0.2312 -0.1151  0.5786
30704SOL    HW198075   2.074  10.809   0.942  2.0546  0.1469 -0.1179
30704SOL    HW298076   2.189  10.858   1.028 -0.0559 -0.1427  3.0150
30705SOL     OW98077   1.379   7.208   0.536 -0.2756 -0.1286 -0.0217
30705SOL    HW198078   1.353   7.139   0.597  1.2904  1.2270  2.3885
30705SOL    HW298079   1.474   7.201   0.532 -0.1107  1.6659  0.0599
30706SOL     OW98080   7.253   4.805   4.398  0.1289 -0.3006  0.4748
30706SOL    HW198081   7.272   4.782   4.489 -0.1972 -0.7453  0.4328
30706SOL    HW298082   7.187   4.875   4.404  0.8215  0.3632  0.5934
30707SOL     OW98083  11.973   1.950  11.628 -0.2856  0.0664 -0.7355
30707SOL    HW198084  12.054   1.982  11.667 -1.4116  1.1006  0.8677
30707SOL    HW298085  11.993   1.941  11.535  2.3153 -1.8448 -0.0940
30708SOL     OW98086   5.118  10.283   6.817  0.3322  0.5366  0.1525
30708SOL    HW198087   5.166  10.364   6.799 -0.9791  1.4395  0.4611
30708SOL    HW298088   5.156  10.250   6.898  2.4489 -0.4691 -1.1707
30709SOL     OW98089   9.352   0.240   9.346  0.3100 -0.2143  0.0115
30709SOL    HW198090   9.299   0.211   9.420  4.0023  0.4229  3.2207
30709SOL    HW298091   9.320   0.327   9.326 -0.4266 -0.1744  1.2682
30710SOL     OW98092  12.061   5.548   9.979  0.2898 -0.1818  0.1495
30710SOL    HW198093  11.996   5.500  10.030  0.6611 -1.1119 -0.2288
30710SOL    HW298094  12.073   5.496   9.900  0.2576  0.8649 -0.5619
30711SOL     OW98095   9.318   8.641   7.016 -0.1443  0.3998  0.1896
30711SOL    HW198096   9.397   8.599   6.981 -0.7715 -0.6305 -0.0275
30711SOL    HW298097   9.280   8.687   6.941 -0.2871  0.0602  0.0533
30712SOL     OW98098   5.048   2.177   7.374 -0.1768 -0.4278  0.1355
30712SOL    HW198099   5.101   2.202   7.298 -0.3795 -1.9224 -0.5249
30712SOL    HW298100   4.991   2.252   7.389 -0.0632 -0.0652 -1.1267
30713SOL     OW98101   2.757   6.007   2.331  0.1740 -0.7283 -0.2606
30713SOL    HW198102   2.787   6.010   2.422 -1.7626 -1.7733  0.4801
30713SOL    HW298103   2.771   5.916   2.304 -0.6077 -0.7819 -0.5028
30714SOL     OW98104  11.149   0.657  11.234  0.2631  0.1302 -0.3650
30714SOL    HW198105  11.171   0.691  11.147 -1.3736  2.9302  0.1971
30714SOL    HW298106  11.086   0.587  11.217 -0.6242  1.1500 -1.4604
30715SOL     OW98107   1.440   5.395   4.577  0.8069  0.3578 -0.2374
30715SOL    HW198108   1.489   5.363   4.652 -1.0628 -0.8874  0.5451
30715SOL    HW298109   1.470   5.342   4.503  0.2389 -0.8443  0.3584
30716SOL     OW98110   4.019   1.040   9.096  0.4134 -0.3728 -0.0862
30716SOL    HW198111   4.087   1.107   9.085 -1.8272  1.7959 -1.8314
30716SOL    HW298112   4.001   1.039   9.190 -0.9842  3.2716 -0.1508
30717SOL     OW98113   8.507   8.961   3.558  0.1257  0.0507  0.4396
30717SOL    HW198114   8.542   8.878   3.589  0.1859  0.7488  2.3981
30717SOL    HW298115   8.427   8.937   3.511 -0.2173 -1.1039  1.5434
30718SOL     OW98116  11.418   5.585   3.970 -0.2260  0.0915 -0.3461
30718SOL    HW198117  11.357   5.648   4.008  0.5865 -0.3527  1.8436
30718SOL    HW298118  11.365   5.507   3.954 -0.3029 -0.2818  1.5157
30719SOL     OW98119   2.973   8.274   2.749 -0.6692  0.3626  0.5122
30719SOL    HW198120   3.025   8.225   2.685 -2.0074 -1.4434  0.7158
30719SOL    HW298121   3.030   8.283   2.825 -0.3506 -0.8577  0.4340
30720SOL     OW98122   2.070   8.011  11.998 -0.6282 -0.4240  0.3261
30720SOL    HW198123   2.154   7.965  11.997 -0.4971 -0.3372  2.6640
30720SOL    HW298124   2.025   7.977  12.075 -3.2569 -1.2570 -1.4230
30721SOL     OW98125   4.864   6.799   5.769 -0.1720 -0.2334  0.5788
30721SOL    HW198126   4.898   6.713   5.793  3.4141  1.0158  0.6666
30721SOL    HW298127   4.769   6.790   5.771  0.0671 -3.7988  1.8400
30722SOL     OW98128   0.254   4.678   9.320  0.1352  0.3197 -0.2474
30722SOL    HW198129   0.173   4.715   9.285  0.2653 -0.6409 -1.6199
30722SOL    HW298130   0.311   4.669   9.244  1.5246  0.8836  0.6767
30723SOL     OW98131   4.329   7.217   6.690 -0.0071  0.2778 -0.6631
30723SOL    HW198132   4.422   7.223   6.715  0.0824  0.9452 -1.1204
30723SOL    HW298133   4.290   7.161   6.757 -0.0670  3.1001  1.9135
30724SOL     OW98134   7.922   2.609   1.599 -0.2981 -0.0501 -0.0108
30724SOL    HW198135   8.015   2.609   1.621 -0.8291  0.2787  2.5529
30724SOL    HW298136   7.894   2.518   1.610  0.3485 -0.9896 -4.3857
30725SOL     OW98137   3.593   0.635   3.198  0.0323  0.1228  0.2053
30725SOL    HW198138   3.551   0.606   3.117 -1.1028 -1.2951  1.2496
30725SOL    HW298139   3.686   0.631   3.179 -0.1976 -0.6348 -0.8967
30726SOL     OW98140   9.059   2.505   3.585  0.5567 -0.3523  0.0415
30726SOL    HW198141   8.973   2.464   3.574 -0.7190  1.3190  2.7417
30726SOL    HW298142   9.099   2.501   3.498 -2.5063 -0.6102 -1.4782
30727SOL     OW98143   9.386  10.839   6.831 -0.1062 -0.7032 -0.4011
30727SOL    HW198144   9.370  10.922   6.876  0.7980 -1.3967  1.2815
30727SOL    HW298145   9.302  10.793   6.834 -0.5930  0.0868 -1.2792
30728SOL     OW98146  10.199   0.421   9.130 -0.3410  0.3871 -0.3409
30728SOL    HW198147  10.204   0.333   9.168  1.5729  0.0082 -1.3705
30728SOL    HW298148  10.229   0.479   9.200  0.0505  0.0355 -0.2151
30729SOL     OW98149   0.731   5.824   2.864 -0.0402  0.3415  0.3366
30729SOL    HW198150   0.754   5.917   2.872  0.2705  0.2146  0.9476
30729SOL    HW298151   0.789   5.779   2.925  1.1550 -0.4954 -1.3182
30730SOL     OW98152   2.147   5.296   0.622 -0.5357 -0.0534  0.6897
30730SOL    HW198153   2.185   5.233   0.684  1.2964 -1.5331 -1.7702
30730SOL    HW298154   2.201   5.375   0.633 -1.7132  0.5553  2.5339
30731SOL     OW98155   9.643   1.965   5.506 -0.2064  0.5044 -0.0411
30731SOL    HW198156   9.655   2.035   5.441  1.4335 -0.2045 -0.5678
30731SOL    HW298157   9.581   2.001   5.570 -0.8616  1.7023 -1.3087
30732SOL     OW98158   9.148  10.988   4.392  0.3605 -0.0854 -0.0118
30732SOL    HW198159   9.063  10.994   4.349 -0.7275  0.8571  2.0755
30732SOL    HW298160   9.206  11.042   4.339 -0.7109  0.3924 -0.7184
30733SOL     OW98161   7.331   7.907   9.107 -0.1192 -0.8536  0.4230
30733SOL    HW198162   7.342   7.915   9.201  1.2165 -1.2649  0.3277
30733SOL    HW298163   7.268   7.837   9.095 -0.6395 -0.4889  1.0126
30734SOL     OW98164   0.133   5.172   3.212  0.2144 -0.3725  0.2861
30734SOL    HW198165   0.112   5.146   3.302 -1.7256  0.4429  0.1095
30734SOL    HW298166   0.177   5.257   3.221 -1.6031  0.5972  0.4176
30735SOL     OW98167   6.262   9.939  10.310 -0.0003  0.0941 -0.1208
30735SOL    HW198168   6.290   9.868  10.253  0.0610 -1.4880  1.7557
30735SOL    HW298169   6.338   9.958  10.364 -0.1968  1.2052 -0.2178
30736SOL     OW98170   2.401  10.864  10.613  0.2592  0.4621 -0.0115
30736SOL    HW198171   2.315  10.891  10.579 -0.3348  0.5406  1.4909
30736SOL    HW298172   2.463  10.894  10.547 -0.9226 -0.3624 -1.5626
30737SOL     OW98173   4.472   9.170  11.995 -0.0671  0.0831  0.6928
30737SOL    HW198174   4.386   9.208  12.013 -0.7534 -1.2116  0.2695
30737SOL    HW298175   4.514   9.233  11.937 -1.4339 -0.0653 -0.5240
30738SOL     OW98176   4.123   7.392  10.735  0.0267 -0.0845  0.1205
30738SOL    HW198177   4.197   7.450  10.751 -0.1384  0.0307  0.4706
30738SOL    HW298178   4.137   7.318  10.794 -0.3791  0.1560  0.5149
30739SOL     OW98179   1.715   9.324   5.613  0.1929  0.2450  0.0336
30739SOL    HW198180   1.694   9.380   5.539 -1.9997  0.2382  0.5838
30739SOL    HW298181   1.707   9.234   5.580  0.7825  0.2361 -0.0996
30740SOL     OW98182   4.548   9.659   8.924  0.7165 -0.3314 -0.2275
30740SOL    HW198183   4.600   9.579   8.932 -0.4290 -1.0603  0.3060
30740SOL    HW298184   4.461   9.634   8.956 -0.3692  0.4407 -2.3796
30741SOL     OW98185   3.307   5.049  11.063  0.2559  0.0971  0.8489
30741SOL    HW198186   3.339   5.117  11.003  0.5694  0.3074  1.2506
30741SOL    HW298187   3.278   4.978  11.005 -0.2455  0.6426  0.4210
30742SOL     OW98188   2.200   3.376   3.421 -0.5690  0.3138 -0.3479
30742SOL    HW198189   2.131   3.441   3.430 -1.7955 -0.5398 -2.7435
30742SOL    HW298190   2.188   3.317   3.496 -2.4612  0.1938 -0.6934
30743SOL     OW98191   1.444   4.288   0.489 -0.4429  0.6346  0.0549
30743SOL    HW198192   1.538   4.305   0.480 -0.0564 -0.5022  1.5323
30743SOL    HW298193   1.436   4.194   0.472 -1.2793  0.6799  0.1938
30744SOL     OW98194  11.602   4.723   3.794 -0.1148  0.3159 -0.0872
30744SOL    HW198195  11.551   4.699   3.872  1.0277  0.5746  0.7548
30744SOL    HW298196  11.542   4.777   3.742 -1.2780 -0.7805  0.0384
30745SOL     OW98197  10.604  11.718   4.564 -0.2136  0.0685  0.3782
30745SOL    HW198198  10.571  11.702   4.475 -0.3162 -2.0976  0.7541
30745SOL    HW298199  10.539  11.678   4.621  0.3355  0.5972  1.3926
30746SOL     OW98200   5.206   3.110   7.333 -0.1453 -0.1143  0.2076
30746SOL    HW198201   5.188   3.017   7.314 -0.1612 -0.3877  1.4604
30746SOL    HW298202   5.271   3.135   7.267  2.0400 -1.8493  1.5031
30747SOL     OW98203   5.775   0.796   2.897 -0.1550 -0.1244 -0.1209
30747SOL    HW198204   5.829   0.724   2.864  0.7193  0.5652 -0.2562
30747SOL    HW298205   5.799   0.870   2.841  0.4331  0.7555  1.2437
30748SOL     OW98206   0.153   2.821  10.341  0.1653  0.1491  0.1890
30748SOL    HW198207   0.073   2.859  10.379  0.9794  1.3941  0.7154
30748SOL    HW298208   0.180   2.885  10.275 -0.3949 -1.2668 -1.4767
30749SOL     OW98209   8.044   2.954   4.367  0.0479  0.5404  0.1076
30749SOL    HW198210   8.132   2.991   4.377  0.5831 -0.8737  1.0226
30749SOL    HW298211   7.986   3.022   4.399  0.9887  0.6834  1.6179
30750SOL     OW98212   1.048   1.282   3.967  0.3912  0.1867  0.2668
30750SOL    HW198213   1.027   1.225   4.041 -0.0443  0.4134  0.3199
30750SOL    HW298214   1.083   1.361   4.009 -1.0364  0.8316  0.3084
30751SOL     OW98215   2.293   2.685   2.711  0.0328 -0.0901 -0.2988
30751SOL    HW198216   2.294   2.726   2.625 -1.7087 -0.6588 -0.6372
30751SOL    HW298217   2.225   2.732   2.759 -0.7694 -1.3787 -0.1086
30752SOL     OW98218   2.156   3.941   0.851 -0.6036 -0.0328  0.1418
30752SOL    HW198219   2.206   4.023   0.845 -0.1340 -0.3109  0.1484
30752SOL    HW298220   2.187   3.900   0.932  0.9785 -1.3616 -1.0570
30753SOL     OW98221  11.621   7.534   2.977  1.1164  0.0009 -0.2963
30753SOL    HW198222  11.579   7.496   3.054  0.5893  0.0519 -0.5544
30753SOL    HW298223  11.561   7.602   2.947  0.0786 -1.6074 -2.1627
30754SOL     OW98224   4.467   9.821   9.683  0.3337 -0.3651  0.0749
30754SOL    HW198225   4.421   9.883   9.740  0.6451 -0.9222  0.9362
30754SOL    HW298226   4.445   9.735   9.718  0.1467 -0.7473 -0.9369
30755SOL     OW98227   1.156  11.875   6.477  0.1034  0.3818 -0.1805
30755SOL    HW198228   1.162  11.891   6.571  0.9119  1.6173 -0.4235
30755SOL    HW298229   1.151  11.779   6.470 -1.5561  0.2966  1.1727
30756SOL     OW98230  10.951   8.769  10.328 -0.4621 -0.3254 -0.6140
30756SOL    HW198231  10.934   8.680  10.296 -1.4272 -0.8219  1.1946
30756SOL    HW298232  10.983   8.757  10.417  1.6299  1.0574 -1.1084
30757SOL     OW98233   3.855  11.057   6.401 -0.3475 -0.1720 -0.0243
30757SOL    HW198234   3.923  11.033   6.338  0.1234  0.7942  0.1038
30757SOL    HW298235   3.903  11.075   6.482 -0.2093  4.3539 -0.8843
30758SOL     OW98236   2.146   6.084   6.247  0.0167  0.0581 -0.1347
30758SOL    HW198237   2.138   6.170   6.207  0.2620  0.2261  0.1778
30758SOL    HW298238   2.113   6.023   6.180 -0.8288  0.4531 -0.0863
30759SOL     OW98239   9.501   3.544   8.094 -0.3844  0.3236  0.2378
30759SOL    HW198240   9.467   3.562   8.182 -0.1044 -1.3945  0.7228
30759SOL    HW298241   9.590   3.511   8.109 -0.5482 -0.5452 -0.6424
30760SOL     OW98242   4.890   5.530   8.642  0.1277  0.2899 -0.0705
30760SOL    HW198243   4.894   5.493   8.730 -0.2514 -2.8880 -1.2750
30760SOL    HW298244   4.981   5.529   8.612  0.0657 -0.0478 -0.2480
30761SOL     OW98245   1.675  11.362   2.648  0.0003 -0.0157  0.6007
30761SOL    HW198246   1.723  11.367   2.731 -0.1359  0.4829  0.6556
30761SOL    HW298247   1.590  11.325   2.672  1.1798 -3.3500  0.1236
30762SOL     OW98248   5.177   4.396   9.798  0.4781  0.2861 -0.4032
30762SOL    HW198249   5.085   4.408   9.824  0.2670  0.4706 -1.2235
30762SOL    HW298250   5.218   4.480   9.815  0.4620  0.2452 -0.1637
30763SOL     OW98251   0.462   8.863   2.571 -0.1593 -0.0963 -0.1715
30763SOL    HW198252   0.436   8.877   2.480 -0.2147 -0.5174 -0.2198
30763SOL    HW298253   0.424   8.778   2.594  0.2305 -0.1943  0.1079
30764SOL     OW98254  11.852   9.691   2.719  0.3059  0.0074 -0.6738
30764SOL    HW198255  11.848   9.786   2.711  0.4042  0.1717  0.9339
30764SOL    HW298256  11.945   9.672   2.730  0.2566 -0.2548 -0.7009
30765SOL     OW98257   4.435   8.739  12.181  0.5004  0.6333 -0.3788
30765SOL    HW198258   4.478   8.802  12.124 -1.0526  1.2910 -0.8969
30765SOL    HW298259   4.440   8.656  12.133  3.5523  0.0128  0.8069
30766SOL     OW98260   8.484   0.854   1.425 -0.1739  0.0819 -0.1194
30766SOL    HW198261   8.555   0.828   1.484  0.0837 -0.8665 -0.8280
30766SOL    HW298262   8.407   0.808   1.458  0.3695 -2.0280 -1.6234
30767SOL     OW98263  10.913   2.385   3.397  0.9858  0.0366  0.0608
30767SOL    HW198264  10.914   2.470   3.354  1.8969 -0.3112 -0.6242
30767SOL    HW298265  10.829   2.346   3.370 -0.2451  1.3496  1.7272
30768SOL     OW98266   4.350  12.064   8.845 -0.2935  0.0642  0.0218
30768SOL    HW198267   4.297  11.986   8.828 -0.2396 -0.0073  0.1819
30768SOL    HW298268   4.417  12.061   8.777 -0.4912  0.1525 -0.1794
30769SOL     OW98269   6.986   0.644   1.218 -0.1768  0.5518  0.0498
30769SOL    HW198270   7.049   0.572   1.222 -0.3070  0.3981 -0.5276
30769SOL    HW298271   7.024   0.713   1.271 -0.3132 -0.1475  1.0716
30770SOL     OW98272   5.206   5.448  12.132 -0.0481 -0.1387  0.7895
30770SOL    HW198273   5.251   5.428  12.051  0.1498 -0.4753  0.9792
30770SOL    HW298274   5.114   5.426  12.115 -0.2146  0.8950  0.2859
30771SOL     OW98275  10.279  10.770   6.929 -0.5498  0.1043 -0.2440
30771SOL    HW198276  10.336  10.697   6.906 -0.2516 -0.0295  0.8561
30771SOL    HW298277  10.272  10.822   6.849 -0.6678 -1.0620 -1.0045
30772SOL     OW98278   1.165   8.793   4.472  0.2523  0.2223 -0.9403
30772SOL    HW198279   1.216   8.736   4.414  1.6399  2.1072 -1.6778
30772SOL    HW298280   1.220   8.870   4.484 -1.2390  1.1076  0.6197
30773SOL     OW98281  10.115   5.311   7.285 -0.1630 -0.3638  0.1079
30773SOL    HW198282  10.144   5.399   7.310  0.1917 -1.0629  2.4420
30773SOL    HW298283  10.049   5.326   7.218  0.9400  1.5850 -0.6519
30774SOL     OW98284   8.778   9.764   3.030  0.0845  0.3605  0.0126
30774SOL    HW198285   8.689   9.796   3.015  0.5933  1.5853 -0.5343
30774SOL    HW298286   8.767   9.690   3.090 -1.1802  1.3460  1.0674
30775SOL     OW98287   1.550   1.617   8.008 -0.5198  0.3711  0.1429
30775SOL    HW198288   1.623   1.562   8.038  0.2596  1.3948  0.1824
30775SOL    HW298289   1.502   1.562   7.946  0.6040 -0.1452 -0.2938
30776SOL     OW98290  10.385   2.548   1.801 -0.4996 -0.2539 -0.2800
30776SOL    HW198291  10.305   2.596   1.824  0.6944  1.4785  0.5237
30776SOL    HW298292  10.357   2.484   1.736 -2.3093  1.1754 -1.0039
30777SOL     OW98293   4.366   2.235  10.019 -0.0774 -0.0386 -0.1643
30777SOL    HW198294   4.390   2.283  10.098 -1.0898  0.5050 -0.1779
30777SOL    HW298295   4.381   2.297   9.948  1.7119 -0.8171 -0.5270
30778SOL     OW98296   2.134  10.750   4.379  0.1882  0.5086  0.3168
30778SOL    HW198297   2.159  10.671   4.330  0.7913  0.6325  0.4214
30778SOL    HW298298   2.062  10.721   4.436 -1.6798  0.7216 -1.7851
30779SOL     OW98299   5.360  11.547  11.916  0.5048  0.2155  0.1378
30779SOL    HW198300   5.444  11.582  11.887  0.2176  1.0317  0.2604
30779SOL    HW298301   5.372  11.530  12.010  0.5889  0.1451  0.1150
30780SOL     OW98302   9.147   7.851   5.712 -0.3074  0.1765  0.3744
30780SOL    HW198303   9.087   7.792   5.666  0.9279 -1.2111  0.4781
30780SOL    HW298304   9.101   7.935   5.714 -1.4881 -0.3846 -1.1044
30781SOL     OW98305   2.687   1.449   7.732 -0.6341  0.5759 -0.6732
30781SOL    HW198306   2.655   1.537   7.712 -0.7065  0.5447 -0.6966
30781SOL    HW298307   2.656   1.396   7.658 -0.9123  0.4568 -0.4703
30782SOL     OW98308   1.952   6.779  11.596 -0.0076  0.0960  0.7578
30782SOL    HW198309   1.987   6.861  11.630  1.2602  0.6442 -1.6803
30782SOL    HW298310   1.896   6.804  11.523  0.0808 -1.1770  0.2217
30783SOL     OW98311  10.660   4.071  10.557 -0.3284  0.0495  0.2610
30783SOL    HW198312  10.644   3.978  10.573 -2.6552  0.4168  0.4046
30783SOL    HW298313  10.621   4.116  10.632 -0.9745  1.2035 -0.7092
30784SOL     OW98314   6.662   1.109  12.361  0.2687 -0.4513 -0.1879
30784SOL    HW198315   6.683   1.181  12.302  0.5726  0.7752  1.3385
30784SOL    HW298316   6.669   1.147  12.449 -0.7707 -2.0306  0.6338
30785SOL     OW98317   1.577   1.965  11.335 -0.2195  0.3105 -0.1989
30785SOL    HW198318   1.557   2.040  11.392 -0.7288 -0.6975  1.0009
30785SOL    HW298319   1.576   1.889  11.394  1.5015 -0.5090 -1.1534
30786SOL     OW98320   0.024   8.554   8.741  0.0236 -0.4145  0.6785
30786SOL    HW198321  -0.065   8.549   8.704  0.0231  1.8461  0.1925
30786SOL    HW298322   0.046   8.464   8.765 -2.1152 -1.1337  0.1387
30787SOL     OW98323   5.707   8.939  10.973  0.0470 -0.5061  0.7045
30787SOL    HW198324   5.773   8.928  10.905 -1.7427 -2.8992 -0.8071
30787SOL    HW298325   5.757   8.937  11.055  2.0958  0.8912 -0.4168
30788SOL     OW98326   0.381   3.589   9.588 -0.2678 -0.1498 -0.2677
30788SOL    HW198327   0.442   3.540   9.533 -0.1351 -0.9721  0.5705
30788SOL    HW298328   0.295   3.552   9.567  0.0090 -2.0825  1.6279
30789SOL     OW98329   1.063   7.220   5.083  0.6804 -0.4503 -0.0454
30789SOL    HW198330   0.969   7.199   5.087  0.8476 -1.2151  0.0804
30789SOL    HW298331   1.066   7.315   5.074 -0.1032 -0.3749  0.4021
30790SOL     OW98332   6.264   8.758   9.984 -0.1188  0.4181 -0.1134
30790SOL    HW198333   6.294   8.785  10.071 -0.0699  1.1111 -0.3403
30790SOL    HW298334   6.234   8.839   9.943 -0.0884  0.1039 -0.7641
30791SOL     OW98335  10.567   4.008   9.476  0.3790  0.0764 -0.3758
30791SOL    HW198336  10.524   4.069   9.417  1.0913  0.2175 -0.7570
30791SOL    HW298337  10.591   3.934   9.421 -1.2027 -0.9529  0.2240
30792SOL     OW98338   3.586   4.451   1.830 -0.0606  0.1245 -0.2156
30792SOL    HW198339   3.547   4.496   1.755  1.8397 -0.5897 -1.7065
30792SOL    HW298340   3.615   4.521   1.888  0.4213  0.7513 -1.2043
30793SOL     OW98341   2.575   0.746   8.177 -0.0376  0.0548  0.1717
30793SOL    HW198342   2.548   0.685   8.109  0.7077  0.4137 -0.4556
30793SOL    HW298343   2.600   0.826   8.130  1.1371  0.0781  0.7855
30794SOL     OW98344   9.387   8.071   8.322  0.0825 -0.1073 -0.5697
30794SOL    HW198345   9.384   8.121   8.240  2.1417  0.2547 -0.4718
30794SOL    HW298346   9.474   8.032   8.323 -0.6153 -1.7475  0.5369
30795SOL     OW98347   5.574   8.414  12.222 -0.7628 -0.1506 -0.2046
30795SOL    HW198348   5.622   8.426  12.140 -0.3235  0.2905  0.1074
30795SOL    HW298349   5.635   8.442  12.290 -1.7342  1.2246  0.1511
30796SOL     OW98350   6.917   5.038   6.612  0.8546  0.1122 -0.2460
30796SOL    HW198351   6.915   5.059   6.519  0.6458 -1.3704 -0.6033
30796SOL    HW298352   6.837   5.076   6.648  1.4542  1.6153 -0.4389
30797SOL     OW98353   8.486   1.001   4.231 -0.2389  0.3496  0.6399
30797SOL    HW198354   8.393   0.984   4.244 -0.6069 -0.5355 -2.4100
30797SOL    HW298355   8.520   1.015   4.319 -3.3896  1.5945  1.8023
30798SOL     OW98356   1.203   8.980   7.501  0.3317  0.1253 -0.1281
30798SOL    HW198357   1.192   8.916   7.572  1.1499  0.2223  0.0968
30798SOL    HW298358   1.239   8.930   7.428  1.6510  0.4402  0.2795
30799SOL     OW98359   6.622  12.467   0.612  0.1683 -0.0346 -0.1743
30799SOL    HW198360   6.571  12.412   0.551  0.3276  1.3692 -1.6166
30799SOL    HW298361   6.709  12.429   0.611  0.0562 -0.2920 -0.4797
30800SOL     OW98362   6.179   3.321   7.049 -0.4191 -0.0650  0.4149
30800SOL    HW198363   6.118   3.318   7.124 -0.3041 -0.0786  0.5081
30800SOL    HW298364   6.137   3.268   6.982 -0.1526 -0.7124  0.7510
30801SOL     OW98365  12.015   7.539   7.932  0.5352 -0.0022 -0.4339
30801SOL    HW198366  11.944   7.540   7.996  0.7061 -0.6531 -0.2215
30801SOL    HW298367  11.972   7.545   7.847  0.2303 -0.3063 -0.3030
30802SOL     OW98368  12.084   5.257   6.454 -0.3152 -0.1694 -0.3917
30802SOL    HW198369  12.145   5.238   6.525 -0.0586  0.7111 -0.3728
30802SOL    HW298370  12.003   5.211   6.480  0.4385 -1.7137 -0.6394
30803SOL     OW98371  10.390   3.907   2.449  0.5430 -0.0453  0.0885
30803SOL    HW198372  10.450   3.927   2.378  0.1730  2.6846  0.4532
30803SOL    HW298373  10.440   3.923   2.528  0.6727 -2.2144  0.5184
30804SOL     OW98374   5.411   0.877   0.752  0.2802  0.6004  0.3581
30804SOL    HW198375   5.443   0.938   0.686 -0.8394  0.6545 -0.1539
30804SOL    HW298376   5.482   0.872   0.816  0.5147  2.2060  0.2669
30805SOL     OW98377   4.426   4.360   7.447  0.0154  0.5510 -0.3884
30805SOL    HW198378   4.510   4.405   7.437 -0.1151  1.0633  0.7135
30805SOL    HW298379   4.388   4.397   7.526  0.3290 -2.1689  1.1530
30806SOL     OW98380   4.833   4.766   6.159  0.1722 -0.4699  0.3476
30806SOL    HW198381   4.754   4.715   6.175  0.2895 -0.6633  0.3141
30806SOL    HW298382   4.898   4.701   6.131  0.1689 -0.2337 -0.2176
30807SOL     OW98383   2.105  12.360   2.027 -0.0124 -0.3222 -0.2219
30807SOL    HW198384   2.024  12.322   2.061  1.3402 -1.6358  1.7058
30807SOL    HW298385   2.125  12.432   2.086  1.5728 -1.6947  1.0285
30808SOL     OW98386  10.348  10.787   7.207 -0.0687 -0.2718  0.0052
30808SOL    HW198387  10.309  10.827   7.130 -0.9488  1.0424  1.0982
30808SOL    HW298388  10.379  10.701   7.176 -1.2599 -0.1853 -1.5625
30809SOL     OW98389  10.120   9.081   7.578 -0.3692 -0.2715 -0.1541
30809SOL    HW198390  10.207   9.107   7.608  0.4437 -1.9776 -0.8791
30809SOL    HW298391  10.079   9.042   7.655 -0.7934  1.1554  0.3751
30810SOL     OW98392   0.187   4.950   8.401 -0.8843 -0.0614 -0.3084
30810SOL    HW198393   0.199   4.857   8.418 -0.6520 -0.0345 -0.3239
30810SOL    HW298394   0.274   4.989   8.414 -1.0550  0.2078  0.0584
30811SOL     OW98395  12.238  11.693   1.744 -0.4005  0.8048  0.4394
30811SOL    HW198396  12.177  11.645   1.688 -1.1248  1.6994  0.4422
30811SOL    HW298397  12.193  11.700   1.828 -1.2292  3.2245 -0.1267
30812SOL     OW98398   8.033  10.658   1.346  0.1759 -0.2419 -1.0532
30812SOL    HW198399   8.000  10.667   1.435 -1.6053 -2.3308 -1.4240
30812SOL    HW298400   8.081  10.575   1.346 -0.1881 -0.4643 -2.1143
30813SOL     OW98401   6.293   3.465  11.924 -0.0292  0.1100  0.8489
30813SOL    HW198402   6.233   3.484  11.851 -0.0854 -0.9699  0.5988
30813SOL    HW298403   6.278   3.372  11.943 -1.6558  0.8695  3.7425
30814SOL     OW98404   0.902  10.788   5.095 -0.6101  0.1320  0.3170
30814SOL    HW198405   0.987  10.743   5.101 -0.8644 -0.3299  0.4720
30814SOL    HW298406   0.921  10.866   5.043 -0.2788 -0.4327 -0.4362
30815SOL     OW98407   2.101   1.741   7.619  0.2005 -0.1801 -0.3369
30815SOL    HW198408   2.114   1.803   7.691 -1.4915 -2.5330  2.1946
30815SOL    HW298409   2.050   1.789   7.555 -0.3550  1.3190  1.1603
30816SOL     OW98410   6.424  11.225   7.996 -0.4614 -0.0044 -0.3914
30816SOL    HW198411   6.473  11.297   8.036 -0.5066 -0.0234 -0.3033
30816SOL    HW298412   6.333  11.243   8.017 -0.3924 -0.6480  0.5472
30817SOL     OW98413   1.361   4.196   8.764  0.0858 -0.1250 -0.5134
30817SOL    HW198414   1.411   4.116   8.777 -0.5974 -0.6587 -1.0884
30817SOL    HW298415   1.344   4.229   8.853  1.0365 -0.1890 -0.3056
30818SOL     OW98416   6.276   1.579   4.464  0.2383 -0.2041  0.3594
30818SOL    HW198417   6.347   1.526   4.427  0.2200  0.1429 -0.1881
30818SOL    HW298418   6.318   1.630   4.533  0.3767 -0.5035  0.4986
30819SOL     OW98419  10.149   3.470   5.217 -0.4818 -0.4048 -0.2845
30819SOL    HW198420  10.056   3.492   5.205 -0.5728 -1.5361 -1.9221
30819SOL    HW298421  10.148   3.383   5.257 -0.1398 -0.7004 -0.9074
30820SOL     OW98422  10.712   6.539   8.095  0.1226  0.1259 -0.0535
30820SOL    HW198423  10.746   6.501   8.176 -3.7413 -0.0858  1.6812
30820SOL    HW298424  10.729   6.632   8.103  0.6362 -0.0106  0.5247
30821SOL     OW98425   8.528   8.667  11.040  0.3347 -0.1497  0.2897
30821SOL    HW198426   8.614   8.668  10.999  1.1220  2.1231  1.7499
30821SOL    HW298427   8.474   8.724  10.984  1.0213  1.8050  1.4880
30822SOL     OW98428   7.636  11.668   9.318 -0.0669  0.6941 -0.2516
30822SOL    HW198429   7.581  11.745   9.332 -0.8145  0.0593  0.4130
30822SOL    HW298430   7.609  11.606   9.387  3.5830  1.4648  2.2023
30823SOL     OW98431  10.160   9.004   2.316 -0.0382 -0.1725  0.0820
30823SOL    HW198432  10.068   8.994   2.338 -0.1097  0.0365 -0.1221
30823SOL    HW298433  10.185   8.922   2.274 -0.1566 -0.1927  0.0529
30824SOL     OW98434   9.989   1.382   9.868 -0.1763 -0.1746  0.4011
30824SOL    HW198435  10.027   1.458   9.824  1.2505 -0.5641  0.8915
30824SOL    HW298436  10.064   1.325   9.887 -1.2722 -2.0957 -0.6661
30825SOL     OW98437  11.850   0.332   6.878 -0.5564 -0.0700 -0.1234
30825SOL    HW198438  11.858   0.237   6.882 -2.4400 -0.2828 -0.3120
30825SOL    HW298439  11.907   0.358   6.805 -1.8464 -1.3520 -1.6561
30826SOL     OW98440   7.111   2.003   1.935  0.1846 -0.3311 -0.3064
30826SOL    HW198441   7.106   1.910   1.914 -2.6596 -0.3559  0.0554
30826SOL    HW298442   7.174   2.007   2.007  1.8320 -1.6757 -1.5997
30827SOL     OW98443   2.629   1.326   9.076  0.0234 -0.7178  0.0244
30827SOL    HW198444   2.697   1.259   9.082  0.4035 -0.5753 -1.9630
30827SOL    HW298445   2.568   1.291   9.011 -1.3234 -0.4135  1.0923
30828SOL     OW98446  12.290   0.152  11.285  0.1395  0.0871  0.2619
30828SOL    HW198447  12.224   0.158  11.216 -1.9528  0.1188  2.1595
30828SOL    HW298448  12.311   0.244  11.306  1.8681  0.0932 -1.2195
30829SOL     OW98449   8.305   1.466   9.344  0.0055  0.0291  0.2230
30829SOL    HW198450   8.361   1.540   9.370  1.0042 -0.2370 -1.0800
30829SOL    HW298451   8.358   1.389   9.363 -0.7755 -0.3405  0.9453
30830SOL     OW98452   3.866   5.191   5.899 -0.1398  0.0536 -0.9210
30830SOL    HW198453   3.915   5.113   5.926 -0.3959  0.5437  1.1295
30830SOL    HW298454   3.900   5.260   5.955 -0.8602  1.1336 -1.7898
30831SOL     OW98455   4.539   1.263  10.502 -0.0430 -0.2036  0.1767
30831SOL    HW198456   4.509   1.337  10.448 -1.0715 -0.1612  0.7693
30831SOL    HW298457   4.593   1.304  10.569 -1.0354  0.1004  0.8150
30832SOL     OW98458   1.364   1.144  12.109 -0.6841  0.5282 -0.2408
30832SOL    HW198459   1.320   1.062  12.131 -0.1780  0.7710  1.8629
30832SOL    HW298460   1.293   1.208  12.100 -1.0586 -0.0339 -1.6343
30833SOL     OW98461   2.838   7.780   4.349  0.2432  0.4509 -0.3276
30833SOL    HW198462   2.802   7.702   4.308 -1.5309  2.4762 -3.0402
30833SOL    HW298463   2.925   7.789   4.310  0.3586 -0.0292 -0.1845
30834SOL     OW98464  10.936   0.780  11.611  0.0626 -0.2198 -0.2096
30834SOL    HW198465  10.882   0.708  11.578 -1.3083  0.8995 -0.5267
30834SOL    HW298466  10.933   0.770  11.706 -0.5392 -0.3040 -0.2319
30835SOL     OW98467   6.058   3.642   3.627 -0.0709 -0.2332  0.2149
30835SOL    HW198468   6.077   3.655   3.534 -0.2813 -0.7481  0.0957
30835SOL    HW298469   6.117   3.572   3.653 -0.6928 -0.7526  0.2314
30836SOL     OW98470   9.607   9.552   3.290  0.4461 -0.0600  0.2323
30836SOL    HW198471   9.630   9.490   3.221  1.2721 -0.2322  0.6453
30836SOL    HW298472   9.686   9.604   3.303  0.0679  0.4477  0.5528
30837SOL     OW98473   0.093   6.544   3.554  0.0197 -0.1000  0.2622
30837SOL    HW198474   0.161   6.483   3.524  1.7878  0.9848  1.8130
30837SOL    HW298475   0.095   6.537   3.649 -3.6869 -1.6547  0.3621
30838SOL     OW98476   8.960   4.648  11.022  0.2134  1.0306  0.6696
30838SOL    HW198477   8.988   4.614  10.937  0.4985  2.9117 -0.0324
30838SOL    HW298478   8.898   4.717  11.002 -1.8897 -0.2964  2.1222
30839SOL     OW98479   9.049   8.001   6.732  0.1227  0.2553  0.0566
30839SOL    HW198480   8.989   8.065   6.695 -2.7940 -1.9420  0.6342
30839SOL    HW298481   9.053   8.022   6.825 -0.4398 -0.0964  0.1619
30840SOL     OW98482  11.625   3.472   7.313 -0.1458  0.1930 -0.3754
30840SOL    HW198483  11.611   3.564   7.290 -0.4323  0.2188 -0.1135
30840SOL    HW298484  11.582   3.422   7.243  0.8811  0.2416 -1.0600
30841SOL     OW98485  10.941   7.283   8.192  0.6034 -0.1707 -0.3202
30841SOL    HW198486  10.881   7.349   8.226 -0.0968 -1.0405  0.1529
30841SOL    HW298487  10.987   7.328   8.121  0.2006  0.8504  0.0411
30842SOL     OW98488   3.542  10.954   9.751 -0.5350  0.2975 -0.1314
30842SOL    HW198489   3.470  11.005   9.786 -1.6173 -1.6529  0.6672
30842SOL    HW298490   3.574  10.902   9.825  0.3195 -0.3776 -0.9389
30843SOL     OW98491   8.111   2.371   3.899 -0.0990 -0.4499 -0.1882
30843SOL    HW198492   8.095   2.374   3.993  0.3047  0.9662 -0.1433
30843SOL    HW298493   8.109   2.277   3.877 -2.6999 -0.7003  0.7669
30844SOL     OW98494  10.527  12.085   9.844 -0.0774 -0.4811 -0.7807
30844SOL    HW198495  10.616  12.115   9.822  0.0898 -0.0793  0.4015
30844SOL    HW298496  10.531  12.066   9.937 -1.3353 -0.1540 -0.6494
30845SOL     OW98497   0.272   8.984  10.085  0.0412 -0.2567 -0.3326
30845SOL    HW198498   0.302   9.021  10.168 -0.5845  1.4471 -0.8209
30845SOL    HW298499   0.347   8.933  10.053  0.8429  0.3439  0.5361
30846SOL     OW98500   9.825   7.349  10.783  0.5650 -0.5212  0.1216
30846SOL    HW198501   9.838   7.423  10.842 -0.2542 -1.0518  0.9903
30846SOL    HW298502   9.863   7.378  10.700  3.2657 -0.3818  1.3053
30847SOL     OW98503   5.889  10.065  11.642  0.3073 -0.1593  0.0920
30847SOL    HW198504   5.922   9.995  11.586  1.0535 -1.2221  1.7578
30847SOL    HW298505   5.968  10.109  11.674 -0.1646  2.1159 -1.6455
30848SOL     OW98506  12.008   2.318  11.375 -0.8769  0.4479 -0.7259
30848SOL    HW198507  11.935   2.258  11.394 -0.9812  0.7256 -0.2359
30848SOL    HW298508  12.079   2.287  11.430 -0.5527  0.0513 -1.3593
30849SOL     OW98509   4.598   6.184   5.495  0.1550  0.6013  0.0956
30849SOL    HW198510   4.597   6.195   5.400  0.3988 -0.4599 -0.0439
30849SOL    HW298511   4.647   6.260   5.528  0.0913  0.9598 -0.6224
30850SOL     OW98512   5.958   4.423   4.019  0.3583  0.4906  0.5190
30850SOL    HW198513   5.992   4.493   4.075  1.3369  0.1292  0.3973
30850SOL    HW298514   5.868   4.450   3.998  0.0596  0.7718  2.0246
30851SOL     OW98515   6.934   3.404   0.784 -0.3774  0.7000  0.7036
30851SOL    HW198516   6.869   3.467   0.817  0.2532  1.3250  0.7682
30851SOL    HW298517   6.991   3.456   0.728  0.0442  0.1434  0.6118
30852SOL     OW98518   0.945  10.015   4.389  0.1955 -0.2654 -0.3144
30852SOL    HW198519   0.882   9.975   4.449 -0.9663  0.5974 -0.9079
30852SOL    HW298520   0.921   9.982   4.303  1.5670 -1.1415 -0.3737
30853SOL     OW98521  11.720   9.067   7.716 -0.3199  0.4282  0.3870
30853SOL    HW198522  11.789   9.092   7.779 -1.5332 -0.7770  2.2958
30853SOL    HW298523  11.740   8.977   7.693  0.4587  1.0400 -1.5312
30854SOL     OW98524   0.457   0.861  10.715  0.1771 -0.0495 -0.5080
30854SOL    HW198525   0.458   0.957  10.720 -0.0841 -0.0937  0.9730
30854SOL    HW298526   0.473   0.841  10.623 -1.2384  1.4546 -1.1322
30855SOL     OW98527   0.652  11.985  10.940  0.5428 -0.1950 -0.3538
30855SOL    HW198528   0.708  12.054  10.905  0.6823 -0.2296 -0.1989
30855SOL    HW298529   0.609  12.025  11.016  1.1010 -0.4727  0.1151
30856SOL     OW98530   8.352   4.079   7.501  0.4669  0.6169 -0.3972
30856SOL    HW198531   8.271   4.080   7.552 -0.0135  0.1021 -1.1258
30856SOL    HW298532   8.323   4.065   7.411  1.2698  1.8283 -0.8682
30857SOL     OW98533   3.258   8.441  10.422  0.6386 -0.2456  0.2188
30857SOL    HW198534   3.230   8.350  10.414 -1.8818  0.4492  0.1902
30857SOL    HW298535   3.211   8.487  10.352  1.0655  1.2296  0.8553
30858SOL     OW98536   7.594   7.633   7.116  0.3137 -0.2555  0.3623
30858SOL    HW198537   7.551   7.549   7.133  0.7829 -1.1094 -2.2230
30858SOL    HW298538   7.629   7.660   7.201 -1.2819 -1.8250  1.5930
30859SOL     OW98539   8.282   4.690   3.287  0.6020  0.0758 -0.1542
30859SOL    HW198540   8.305   4.711   3.377 -0.4933 -0.7693  0.3492
30859SOL    HW298541   8.333   4.611   3.266  0.2675 -0.1886  0.0104
30860SOL     OW98542  10.318   3.143  10.189  0.2232 -0.8515 -0.0720
30860SOL    HW198543  10.401   3.161  10.143  0.0120 -0.8577 -0.4610
30860SOL    HW298544  10.303   3.049  10.174  0.1145 -0.8361 -0.0558
30861SOL     OW98545   0.381   3.732  10.138 -0.7476  0.0871  0.1348
30861SOL    HW198546   0.359   3.741  10.045 -0.0554 -0.8804 -0.1352
30861SOL    HW298547   0.463   3.684  10.139 -0.7797  0.0257  1.2606
30862SOL     OW98548   4.226   4.235   2.668 -0.3933 -0.1780  0.1284
30862SOL    HW198549   4.246   4.296   2.739  0.5637  0.7896 -0.9273
30862SOL    HW298550   4.164   4.283   2.612 -1.2036 -0.9616  0.3272
30863SOL     OW98551   5.480   7.190   4.144 -0.7710 -0.6391 -0.7403
30863SOL    HW198552   5.400   7.202   4.092 -1.7429 -1.9158  0.3794
30863SOL    HW298553   5.550   7.221   4.087 -2.1040  1.2264 -1.4920
30864SOL     OW98554   9.003  10.416   7.537 -0.0507  0.0692  0.3107
30864SOL    HW198555   8.937  10.376   7.593 -1.5771  1.9657 -0.0109
30864SOL    HW298556   8.978  10.392   7.448  1.4114 -1.5628  0.2893
30865SOL     OW98557   2.348   0.023   8.313  0.2384  0.4814 -0.7193
30865SOL    HW198558   2.264   0.067   8.304 -0.0313 -0.1741 -1.5050
30865SOL    HW298559   2.355   0.004   8.407  0.0613  1.5882 -0.4731
30866SOL     OW98560   8.720   8.452   1.780  0.7036 -0.0613  0.2185
30866SOL    HW198561   8.777   8.407   1.717 -1.4669 -1.9914 -0.4719
30866SOL    HW298562   8.668   8.382   1.820 -2.5415  1.7006 -0.5903
30867SOL     OW98563   8.924   9.576   4.939 -0.0724 -0.2989 -0.6840
30867SOL    HW198564   8.930   9.516   5.014  1.5646  0.2699 -0.3188
30867SOL    HW298565   8.880   9.525   4.871 -0.5478 -1.2190  0.2831
30868SOL     OW98566   7.488   5.943   3.736 -0.2706 -0.2608 -0.4231
30868SOL    HW198567   7.419   5.920   3.797  0.3418 -1.8640 -0.2882
30868SOL    HW298568   7.470   5.891   3.658  1.8058 -2.2314  0.3161
30869SOL     OW98569  11.418  11.915   5.359 -0.3491 -0.0664 -0.4152
30869SOL    HW198570  11.421  11.966   5.440  0.0291 -0.1204 -0.3946
30869SOL    HW298571  11.338  11.944   5.316 -0.7168 -0.2663  0.1243
30870SOL     OW98572   2.699  10.720  11.778 -0.0162 -0.4126 -0.8433
30870SOL    HW198573   2.740  10.638  11.749  1.4711 -0.1198  0.3155
30870SOL    HW298574   2.757  10.753  11.846  0.0737  2.2328 -2.0700
30871SOL     OW98575   0.749   2.429   7.149  0.1333 -0.3028  0.2795
30871SOL    HW198576   0.657   2.448   7.166  0.1041 -0.5326  0.3750
30871SOL    HW298577   0.778   2.377   7.224  0.3226 -0.2894  0.2176
30872SOL     OW98578   1.436  10.700  11.285  0.2174  0.3005 -0.3259
30872SOL    HW198579   1.494  10.628  11.263  1.0748  0.4304  1.4244
30872SOL    HW298580   1.492  10.764  11.329 -0.4829  2.1277 -1.9196
30873SOL     OW98581   8.025   0.846   7.294 -0.0153 -0.3826 -0.5309
30873SOL    HW198582   7.935   0.844   7.325  0.1293 -1.6399 -0.1253
30873SOL    HW298583   8.021   0.892   7.210 -0.5333  2.4454  0.8975
30874SOL     OW98584  12.275   7.340  11.590  0.0654 -0.4866  0.2163
30874SOL    HW198585  12.322   7.341  11.673 -0.8825 -2.6554  0.8416
30874SOL    HW298586  12.187   7.369  11.611 -0.4396 -1.9145  0.2017
30875SOL     OW98587  10.401   9.299  12.486 -0.3303 -0.1697  0.4636
30875SOL    HW198588  10.423   9.216  12.527 -0.3540  0.1129  1.0486
30875SOL    HW298589  10.484   9.345  12.476 -0.2170 -0.5518 -0.5217
30876SOL     OW98590   1.120   8.846   6.824  0.6114  0.5493 -0.1188
30876SOL    HW198591   1.153   8.781   6.887  0.6308 -0.4888 -1.1728
30876SOL    HW298592   1.156   8.819   6.740 -1.0162  0.7389 -0.9279
30877SOL     OW98593   3.068   1.649   5.439 -0.3188 -0.4698 -0.2669
30877SOL    HW198594   3.071   1.723   5.500  1.2126 -0.8667  0.1771
30877SOL    HW298595   3.110   1.577   5.486  0.7060 -0.8467 -1.7159
30878SOL     OW98596   6.911   7.645   0.604  0.5095  0.4239 -0.5370
30878SOL    HW198597   6.828   7.642   0.557  0.4780 -1.2746 -0.4006
30878SOL    HW298598   6.907   7.726   0.655 -0.8946  0.5435 -0.8132
30879SOL     OW98599   2.916   9.489   8.553  0.3067  0.0594  0.0228
30879SOL    HW198600   2.928   9.505   8.459 -1.0878 -1.0984 -0.3782
30879SOL    HW298601   2.825   9.513   8.570  0.4627 -0.0136  1.0359
30880SOL     OW98602   5.397   3.502   7.797 -0.0652 -0.2784 -0.2580
30880SOL    HW198603   5.323   3.562   7.789 -0.8290 -1.3307 -1.3203
30880SOL    HW298604   5.439   3.503   7.712 -0.9366 -2.2810 -0.7745
30881SOL     OW98605   7.915  11.082   8.458 -0.3921  0.0353 -0.2510
30881SOL    HW198606   8.001  11.099   8.496  0.2370  0.9322 -1.9358
30881SOL    HW298607   7.881  11.007   8.506  2.2268 -1.6901 -0.8769
30882SOL     OW98608   2.045  11.335   4.071  0.1880  0.1873 -0.3562
30882SOL    HW198609   2.065  11.248   4.036  3.3026  0.6728 -0.0202
30882SOL    HW298610   1.987  11.374   4.005 -1.1125 -1.9907 -0.6092
30883SOL     OW98611   7.235   0.415   2.102  0.1105  0.1015 -0.4206
30883SOL    HW198612   7.313   0.364   2.081 -1.3902 -2.3206 -0.4732
30883SOL    HW298613   7.225   0.404   2.197 -0.4007  0.0567 -0.4806
30884SOL     OW98614   6.964  11.424   5.080  0.3300 -0.0833  0.7513
30884SOL    HW198615   6.926  11.512   5.079  2.2557  0.8037  1.2484
30884SOL    HW298616   6.889  11.365   5.082 -1.0308  1.5190 -0.5642
30885SOL     OW98617   3.029  12.203  11.713  0.0336  0.0101 -0.1607
30885SOL    HW198618   3.023  12.259  11.790  1.9449 -2.3073  1.8573
30885SOL    HW298619   2.945  12.157  11.710  0.6401 -1.3649  1.8794
30886SOL     OW98620   9.389   4.729   5.503 -0.5439 -0.0149 -0.4829
30886SOL    HW198621   9.451   4.698   5.437 -0.6973 -1.5432  0.0559
30886SOL    HW298622   9.316   4.668   5.499 -1.7970  1.4392 -0.7229
30887SOL     OW98623  10.807   1.399   1.918  0.2121 -0.4150 -0.4678
30887SOL    HW198624  10.883   1.358   1.877  0.0828 -2.9636  1.5585
30887SOL    HW298625  10.732   1.366   1.868  0.2691  0.1566 -0.9499
30888SOL     OW98626   2.504   8.294   8.498  0.9113 -0.7832  0.6563
30888SOL    HW198627   2.493   8.263   8.588  0.7442 -0.2494  0.8235
30888SOL    HW298628   2.599   8.300   8.486  0.9470 -1.3915  0.6073
30889SOL     OW98629   6.380   8.152   2.984 -0.0434 -0.6191  0.1342
30889SOL    HW198630   6.402   8.209   3.057  1.2186 -2.0820  0.9625
30889SOL    HW298631   6.450   8.166   2.920  1.0294 -2.1060  0.9041
30890SOL     OW98632   8.513   9.728  11.546 -0.3221  0.2528 -0.3933
30890SOL    HW198633   8.440   9.768  11.498 -0.6547  0.2379  0.0977
30890SOL    HW298634   8.543   9.797  11.605 -0.7504 -0.1390  0.2932
30891SOL     OW98635   0.652  10.666   1.393 -1.0203 -0.1803 -0.1673
30891SOL    HW198636   0.629  10.613   1.469 -0.2595 -0.4240 -0.0964
30891SOL    HW298637   0.585  10.734   1.389  0.3771  1.4610  2.2831
30892SOL     OW98638  10.034   3.810   4.556 -0.2904  0.2353  0.0245
30892SOL    HW198639  10.050   3.718   4.575 -1.1787  0.3571  1.5132
30892SOL    HW298640  10.081   3.826   4.474 -1.1085 -1.8090 -0.8971
30893SOL     OW98641   9.696  10.975   5.189  0.3274  0.1588  0.6236
30893SOL    HW198642   9.692  10.995   5.096  1.3922 -3.1348 -0.2680
30893SOL    HW298643   9.605  10.976   5.218 -0.2622 -1.0831 -1.0590
30894SOL     OW98644   5.619   8.597   0.436  0.3160 -0.0206 -0.2045
30894SOL    HW198645   5.661   8.587   0.521  1.0287  0.3717 -0.5009
30894SOL    HW298646   5.692   8.600   0.374 -0.0869  1.5220 -0.6445
30895SOL     OW98647  10.325   7.596   5.211 -0.2121 -0.0580  0.3760
30895SOL    HW198648  10.406   7.546   5.212 -0.9598 -1.3333  0.1608
30895SOL    HW298649  10.318   7.630   5.122 -0.0624 -0.1922  0.3131
30896SOL     OW98650   5.625   5.625   5.112  0.4023  0.0372  0.1574
30896SOL    HW198651   5.629   5.631   5.017 -0.5446 -0.2243  0.0917
30896SOL    HW298652   5.607   5.532   5.129  1.2171 -0.0439  0.6204
30897SOL     OW98653   5.173   6.698  11.118  0.4287 -0.0649 -0.1338
30897SOL    HW198654   5.206   6.784  11.144 -1.6059  0.5427  0.6122
30897SOL    HW298655   5.226   6.675  11.042  2.0141  1.1630  0.5234
30898SOL     OW98656  11.972   3.352   9.147  0.9806 -0.0867  0.2884
30898SOL    HW198657  11.939   3.439   9.126  1.6925  0.1147 -0.0159
30898SOL    HW298658  12.059   3.349   9.108  1.6168 -0.3537  1.6576
30899SOL     OW98659  10.105  11.692   6.234 -0.2751  0.1765 -0.0259
30899SOL    HW198660  10.026  11.644   6.257  0.7222 -1.4339  0.2220
30899SOL    HW298661  10.081  11.743   6.157 -1.4447 -0.6168 -0.2069
30900SOL     OW98662   1.258   5.616  11.564 -0.2196 -0.5650 -0.4493
30900SOL    HW198663   1.243   5.538  11.512 -0.1488 -0.4718 -0.6086
30900SOL    HW298664   1.353   5.622  11.572 -0.1734  0.0927 -1.3299
30901SOL     OW98665   5.954   0.127   5.052  0.5592  0.4868  0.6899
30901SOL    HW198666   5.990   0.038   5.053  1.0631  0.6973  1.7228
30901SOL    HW298667   6.026   0.183   5.080  0.4431  1.3168 -0.5769
30902SOL     OW98668   1.160   4.796   5.613 -0.5878  0.0708  0.1658
30902SOL    HW198669   1.251   4.793   5.644 -0.4772 -0.4766 -0.2065
30902SOL    HW298670   1.110   4.825   5.690 -0.2990 -1.1206  0.8313
30903SOL     OW98671   4.688   9.420   8.933 -0.2955  0.2485  0.1708
30903SOL    HW198672   4.687   9.325   8.929  1.1355  0.2603 -2.2932
30903SOL    HW298673   4.775   9.442   8.967 -0.9505  0.6930  1.6096
30904SOL     OW98674   8.048  11.566   7.577  0.6011 -0.8126 -0.8940
30904SOL    HW198675   8.042  11.534   7.487 -0.6064  1.3830 -1.6668
30904SOL    HW298676   8.105  11.643   7.572 -0.2383 -0.0981  0.0136
30905SOL     OW98677   4.677   1.738   4.290  0.3061  0.2216 -0.5490
30905SOL    HW198678   4.624   1.719   4.212 -0.0004  0.7108 -0.4657
30905SOL    HW298679   4.768   1.728   4.260  0.2122  1.1036 -1.1713
30906SOL     OW98680  10.177   3.756   6.700 -0.5883  0.1373 -0.0230
30906SOL    HW198681  10.157   3.752   6.794  1.0042  0.3011  0.3509
30906SOL    HW298682  10.119   3.825   6.666 -0.1318  1.1306  1.1326
30907SOL     OW98683   8.255   1.557   1.200  0.5334 -0.2230  0.6574
30907SOL    HW198684   8.234   1.507   1.121  1.2007  0.6353 -0.0699
30907SOL    HW298685   8.318   1.502   1.247  1.3211 -0.0342 -0.1735
30908SOL     OW98686   4.437   5.696   4.264  0.7136 -0.2765  0.3206
30908SOL    HW198687   4.367   5.670   4.324  0.2822  1.0118  0.4056
30908SOL    HW298688   4.490   5.618   4.254 -1.1854 -1.5557 -0.3808
30909SOL     OW98689  11.605   7.064   5.547  0.0465 -0.1282  0.0768
30909SOL    HW198690  11.566   6.977   5.544  0.4256 -0.3500  1.2376
30909SOL    HW298691  11.698   7.048   5.565  0.1302  0.5153  0.2304
30910SOL     OW98692   5.632   8.584   5.122 -0.2834  0.1873  0.3108
30910SOL    HW198693   5.589   8.669   5.112 -0.3426  0.1507  0.2526
30910SOL    HW298694   5.649   8.555   5.032 -2.8026 -1.1663  0.2001
30911SOL     OW98695   0.031   3.692  11.745 -0.4726  0.9276  0.1735
30911SOL    HW198696  -0.015   3.661  11.667 -0.2788  0.4107  0.2541
30911SOL    HW298697   0.018   3.622  11.809  0.6064  0.6582  0.1254
30912SOL     OW98698   9.281   1.429  11.658 -0.0019 -0.1913 -0.2484
30912SOL    HW198699   9.258   1.510  11.704 -0.0002  0.1340 -0.8128
30912SOL    HW298700   9.273   1.450  11.565  0.2251 -0.7741 -0.4091
30913SOL     OW98701   0.218  11.889   8.110  0.1145 -0.0771 -1.0070
30913SOL    HW198702   0.213  11.968   8.164  0.4886 -0.6271 -0.1409
30913SOL    HW298703   0.130  11.852   8.113  0.7731 -1.7658  1.8672
30914SOL     OW98704  12.222   8.972   2.740  0.2511 -0.0617 -0.1459
30914SOL    HW198705  12.223   8.907   2.810 -1.7027 -0.8551 -0.7980
30914SOL    HW298706  12.131   9.002   2.735  0.7212  1.3396 -1.1231
30915SOL     OW98707   8.454  10.701   1.330 -0.0475  0.0881 -0.1181
30915SOL    HW198708   8.513  10.753   1.385  0.2360 -0.8173  0.4563
30915SOL    HW298709   8.421  10.763   1.265 -1.2848  1.4939  1.7306
30916SOL     OW98710   2.723   3.447  10.990 -0.1883  0.0617 -0.0418
30916SOL    HW198711   2.658   3.435  11.059 -0.0048  1.9133  0.5142
30916SOL    HW298712   2.785   3.511  11.026  1.2879 -0.7663 -1.0080
30917SOL     OW98713   8.597  12.067   0.481 -0.4184 -0.2254  0.4816
30917SOL    HW198714   8.575  12.064   0.388  0.7194  0.1203  0.1883
30917SOL    HW298715   8.530  12.013   0.524 -0.7514 -0.6559 -0.5640
30918SOL     OW98716   6.587   4.289   8.178  0.4920  0.1557  0.4105
30918SOL    HW198717   6.626   4.241   8.105 -0.7404 -0.5576  0.1897
30918SOL    HW298718   6.653   4.287   8.246  1.1100 -0.4181 -0.1903
30919SOL     OW98719   6.591   8.578   9.283 -0.1422  0.1712  0.3274
30919SOL    HW198720   6.503   8.556   9.252  0.5345 -2.5585  0.1500
30919SOL    HW298721   6.648   8.512   9.244  2.2513  2.5368 -0.5555
30920SOL     OW98722   6.461   3.504   0.700 -0.4996  0.5380  0.5675
30920SOL    HW198723   6.528   3.493   0.632  0.9203  1.8089  1.7022
30920SOL    HW298724   6.398   3.565   0.662 -2.4189 -2.3815 -1.4159
30921SOL     OW98725   2.716   2.362  12.114 -0.5051 -0.5161  0.2191
30921SOL    HW198726   2.688   2.278  12.150 -1.9040  0.1849  0.8501
30921SOL    HW298727   2.770   2.402  12.182  0.1142 -0.8717 -0.0590
30922SOL     OW98728  10.391   7.749   5.642 -0.1459  0.7619 -0.1361
30922SOL    HW198729  10.425   7.661   5.625 -1.4008 -0.0679  1.3477
30922SOL    HW298730  10.320   7.761   5.578 -1.3332 -0.1853  0.9411
30923SOL     OW98731   2.221   7.796  11.377  0.4530  0.1819 -0.5093
30923SOL    HW198732   2.286   7.802  11.307  1.5658  1.3944  0.5859
30923SOL    HW298733   2.249   7.860  11.442 -0.0077 -1.5506  1.5034
30924SOL     OW98734   1.104   1.225   1.025 -0.3729  0.2913 -0.1287
30924SOL    HW198735   1.035   1.208   1.089  0.4837  0.3889  0.8425
30924SOL    HW298736   1.096   1.318   1.005 -0.9131  0.1701 -0.4986
30925SOL     OW98737   9.458   0.516   0.744 -0.2979  0.0327 -0.4674
30925SOL    HW198738   9.455   0.489   0.835 -0.0944  1.1966 -0.1007
30925SOL    HW298739   9.550   0.540   0.729 -0.8518  2.7472 -0.0641
30926SOL     OW98740   1.451  12.183   2.332 -0.4036 -0.1466  0.1481
30926SOL    HW198741   1.406  12.138   2.260  0.4605 -0.5142 -0.1777
30926SOL    HW298742   1.540  12.150   2.328 -0.1496  0.4313  0.9029
30927SOL     OW98743   9.027  11.846   7.547 -0.4914  0.0562  0.2735
30927SOL    HW198744   9.013  11.940   7.531 -1.4607 -0.1732 -0.2873
30927SOL    HW298745   8.945  11.805   7.520  0.8877 -1.2815 -2.2548
30928SOL     OW98746   9.544   7.466   6.208 -0.2994  0.1119  0.7769
30928SOL    HW198747   9.564   7.372   6.208 -2.1572 -0.3364 -0.2478
30928SOL    HW298748   9.589   7.500   6.130 -2.6797 -0.7506 -1.1088
30929SOL     OW98749   5.228   9.868   6.680  0.1366 -0.2044 -0.2849
30929SOL    HW198750   5.135   9.853   6.661  0.0919 -1.1750  0.6106
30929SOL    HW298751   5.230   9.891   6.772  0.6962  0.9072 -0.5628
30930SOL     OW98752  11.799   4.936   2.527 -0.2733 -0.5363 -0.5122
30930SOL    HW198753  11.721   4.983   2.498 -0.2246  0.0130  0.2217
30930SOL    HW298754  11.848   4.919   2.447 -1.1971 -0.9937 -0.9935
30931SOL     OW98755   6.059   0.272   1.778 -0.8748  0.1353  0.0403
30931SOL    HW198756   6.011   0.233   1.705 -0.8778 -0.3799  0.3118
30931SOL    HW298757   6.135   0.215   1.790 -0.6124  0.5001  0.1239
30932SOL     OW98758   5.269  12.187   7.386 -0.3346  0.4508 -0.1788
30932SOL    HW198759   5.362  12.198   7.402  0.2569 -3.2631 -0.3210
30932SOL    HW298760   5.260  12.196   7.291 -0.2748  1.4094 -0.1070
30933SOL     OW98761   6.227   0.965   0.337  0.3242 -0.1800  0.3077
30933SOL    HW198762   6.251   0.872   0.348  0.7876 -0.0796  0.1553
30933SOL    HW298763   6.310   1.009   0.317  0.0693  0.2328  0.1519
30934SOL     OW98764   3.864   2.947   4.391 -0.0439 -0.2403 -0.5502
30934SOL    HW198765   3.812   2.868   4.399 -0.6662  0.2858  1.0564
30934SOL    HW298766   3.807   3.010   4.346 -0.0075 -0.3130 -0.6988
30935SOL     OW98767   5.889   7.086   1.372 -0.2599  0.5174  0.0056
30935SOL    HW198768   5.879   7.096   1.277  0.4144  1.3487  0.0106
30935SOL    HW298769   5.935   7.003   1.383  0.2862  0.7564 -0.4371
30936SOL     OW98770  10.550  11.986   6.459  0.2673  0.3545  0.2998
30936SOL    HW198771  10.480  11.999   6.522  0.4052 -0.1463  0.5680
30936SOL    HW298772  10.624  12.035   6.494  0.3515  0.0554  0.5454
30937SOL     OW98773  11.555   3.869   9.592 -0.3571  0.2614  0.6402
30937SOL    HW198774  11.569   3.887   9.499 -0.6737 -1.5410  0.1988
30937SOL    HW298775  11.460   3.869   9.601 -0.3229  0.7595  1.0579
30938SOL     OW98776   8.214  10.357   6.006 -0.4348 -0.0688  0.0975
30938SOL    HW198777   8.165  10.305   5.941 -1.3277 -0.6133  1.1648
30938SOL    HW298778   8.302  10.321   6.003  0.1851  1.4005 -2.3715
30939SOL     OW98779   5.669  10.552   2.631 -0.5553  0.8009 -0.1622
30939SOL    HW198780   5.706  10.562   2.544  3.2683 -3.6696  0.4989
30939SOL    HW298781   5.714  10.618   2.684  0.7674  0.4861 -0.8369
30940SOL     OW98782  10.617   3.740  11.445 -0.5684 -0.4539 -0.1364
30940SOL    HW198783  10.635   3.653  11.482 -0.2035 -0.0882  0.5525
30940SOL    HW298784  10.634   3.730  11.352  1.3561 -0.6380  0.1995
30941SOL     OW98785   8.642   5.485   3.117  0.2468  0.0747  0.2152
30941SOL    HW198786   8.639   5.419   3.048 -0.3047  0.8291 -0.4938
30941SOL    HW298787   8.732   5.518   3.114  0.2651  0.0033 -0.0486
30942SOL     OW98788   6.557   3.499   4.443  0.3366  0.5106  0.0501
30942SOL    HW198789   6.495   3.565   4.476  0.2579  0.3477  0.2301
30942SOL    HW298790   6.555   3.430   4.509  0.9815  0.6663  0.2380
30943SOL     OW98791  12.412   4.635  11.091 -0.2145  0.1322 -0.4729
30943SOL    HW198792  12.419   4.650  11.185 -0.2040 -0.1980 -0.4210
30943SOL    HW298793  12.488   4.680  11.053  0.2162 -0.4119 -0.2500
30944SOL     OW98794   4.846   8.319   0.504 -0.3042 -0.4312 -0.4295
30944SOL    HW198795   4.941   8.330   0.505 -0.4128  0.8734 -1.5883
30944SOL    HW298796   4.833   8.228   0.477  0.6066 -0.6045 -0.3247
30945SOL     OW98797   5.333   2.174   4.559 -0.2808  0.1700 -0.4806
30945SOL    HW198798   5.409   2.151   4.612 -0.4291 -0.6326 -0.6024
30945SOL    HW298799   5.301   2.090   4.526  0.5956  0.7241 -2.9484
30946SOL     OW98800   3.906  10.516  10.982 -0.5267  0.4751  0.4169
30946SOL    HW198801   3.996  10.513  10.949 -0.9706 -0.5383 -0.7825
30946SOL    HW298802   3.861  10.576  10.922 -0.6301  1.0807  1.0933
30947SOL     OW98803   6.370   6.189   3.411  0.3190 -0.1074  0.0048
30947SOL    HW198804   6.379   6.281   3.436 -2.3558  0.1771  0.2378
30947SOL    HW298805   6.360   6.191   3.316  0.0624 -0.1160  0.0298
30948SOL     OW98806   0.147   3.777   7.368 -0.2453  0.5615 -0.0510
30948SOL    HW198807   0.170   3.686   7.349 -1.9404  0.1563 -0.3936
30948SOL    HW298808   0.126   3.778   7.461 -2.0751  0.1071 -0.4058
30949SOL     OW98809   6.200   3.188   0.944 -0.0508 -0.4845 -0.1388
30949SOL    HW198810   6.255   3.158   0.872 -0.9379 -1.3019 -0.4952
30949SOL    HW298811   6.259   3.236   1.002  1.0028 -1.2713 -0.5508
30950SOL     OW98812   2.639   6.018   7.640 -0.2695  0.5586 -0.6721
30950SOL    HW198813   2.599   5.931   7.643 -0.7394  0.7627 -0.9821
30950SOL    HW298814   2.590   6.070   7.703  0.4540  0.4257  0.0241
30951SOL     OW98815   7.478   1.602   2.704  0.1692 -0.0375  0.8003
30951SOL    HW198816   7.421   1.671   2.670  0.5896 -0.3258 -0.5505
30951SOL    HW298817   7.516   1.561   2.626  0.3462 -1.4511  1.5908
30952SOL     OW98818   0.940   1.119   6.479  0.1864  0.4426  0.3325
30952SOL    HW198819   0.873   1.164   6.428 -0.1051 -0.6146 -0.2507
30952SOL    HW298820   0.892   1.075   6.550  0.5018  1.2720  1.0817
30953SOL     OW98821   2.683  11.914   6.118 -0.1316 -0.2407 -0.2215
30953SOL    HW198822   2.612  11.931   6.056  1.4658  1.1820 -1.7585
30953SOL    HW298823   2.658  11.963   6.196 -1.3581 -0.6743 -0.3134
30954SOL     OW98824   7.106   8.001   6.503  0.0514 -0.6593  0.2875
30954SOL    HW198825   7.117   8.087   6.462 -0.5904 -0.1398  1.1691
30954SOL    HW298826   7.153   8.008   6.586 -1.8989 -0.3576  1.4310
30955SOL     OW98827   0.680   4.740   1.957  0.0838  0.7101  0.1535
30955SOL    HW198828   0.614   4.804   1.930  0.9737  2.0416  0.9937
30955SOL    HW298829   0.764   4.780   1.931  0.6167 -0.6809 -0.3774
30956SOL     OW98830   3.963  10.244   4.722  0.4219  0.1244 -0.1239
30956SOL    HW198831   3.955  10.158   4.763 -1.2753  0.2594 -0.1199
30956SOL    HW298832   3.929  10.233   4.633  2.6831  0.1920 -1.0758
30957SOL     OW98833   4.590   1.279   5.603  0.2451  0.0480  0.0632
30957SOL    HW198834   4.647   1.283   5.526  1.0104 -0.7657  0.5807
30957SOL    HW298835   4.503   1.299   5.568  0.8034  1.1879 -0.7502
30958SOL     OW98836   2.798   3.229   8.438  0.0756 -0.5167  0.6011
30958SOL    HW198837   2.726   3.291   8.424 -0.5010 -1.5711 -1.5694
30958SOL    HW298838   2.873   3.270   8.395 -0.2670 -1.2230 -0.6975
30959SOL     OW98839  10.283   4.355   5.727  0.1912  0.0854 -0.1658
30959SOL    HW198840  10.232   4.431   5.700  0.2926  0.4596  0.6751
30959SOL    HW298841  10.219   4.292   5.758  0.0690 -0.3665 -1.3039
30960SOL     OW98842   8.783   1.168   5.667  0.0135 -0.4390 -0.0651
30960SOL    HW198843   8.832   1.248   5.681  0.7902 -0.7665 -0.8439
30960SOL    HW298844   8.746   1.147   5.753 -0.0793  0.6623  0.1747
30961SOL     OW98845  11.282   8.596   5.683 -0.1170  0.3291 -0.2636
30961SOL    HW198846  11.207   8.655   5.678  1.0131  1.7442 -1.3862
30961SOL    HW298847  11.274   8.540   5.606 -1.1725 -1.0458  0.7854
30962SOL     OW98848   3.505   0.147  10.904  0.8302 -0.1103  0.1979
30962SOL    HW198849   3.554   0.229  10.904  1.2034 -0.3142  1.5605
30962SOL    HW298850   3.505   0.120  10.812  0.1084  1.7343 -0.4047
30963SOL     OW98851   2.734   2.257   1.094  0.0976  0.0089  0.1847
30963SOL    HW198852   2.760   2.231   1.006 -1.2369  1.2637 -0.6267
30963SOL    HW298853   2.798   2.215   1.151  2.3279  0.8657 -1.5074
30964SOL     OW98854   7.231   1.118  11.738 -0.3000  0.1554 -0.1551
30964SOL    HW198855   7.185   1.136  11.656 -0.4408  0.1754 -0.0713
30964SOL    HW298856   7.219   1.024  11.752 -1.8123  0.4414  0.7669
30965SOL     OW98857  11.996   6.828   8.434  0.0824 -0.0725 -0.8686
30965SOL    HW198858  12.014   6.822   8.340  2.9323 -2.3734 -0.3290
30965SOL    HW298859  12.057   6.894   8.466  1.4709 -1.5687 -0.2699
30966SOL     OW98860   1.187   1.188   3.614  0.1789  0.1151  0.0953
30966SOL    HW198861   1.223   1.213   3.699 -1.9310 -0.7008  1.3109
30966SOL    HW298862   1.093   1.179   3.630 -0.2556 -0.1838 -2.3127
30967SOL     OW98863   6.877   5.183   4.884 -0.2301  0.2615 -0.2121
30967SOL    HW198864   6.913   5.099   4.912 -0.5116 -0.3910 -1.7007
30967SOL    HW298865   6.953   5.240   4.875 -0.2102  0.8838  2.8997
30968SOL     OW98866   0.721  12.184   2.587 -0.2922 -0.2479 -0.0715
30968SOL    HW198867   0.711  12.222   2.500  1.1946 -1.2021 -0.7044
30968SOL    HW298868   0.666  12.105   2.585  0.6343 -0.9113 -0.6004
30969SOL     OW98869  11.475   5.457   7.354 -0.0841  0.1933  0.0200
30969SOL    HW198870  11.449   5.427   7.267 -0.5988 -1.6431  0.7589
30969SOL    HW298871  11.392   5.466   7.402  0.2747 -0.4710  0.7988
30970SOL     OW98872   2.678   9.465  10.002  0.2998  0.0404  0.3600
30970SOL    HW198873   2.755   9.521  10.016 -0.1215  0.8716 -0.5205
30970SOL    HW298874   2.692   9.427   9.915  0.3812 -0.9231  0.7821
30971SOL     OW98875  11.547  10.458  11.619 -0.4687 -0.2966 -0.2865
30971SOL    HW198876  11.552  10.531  11.558 -1.0574 -0.5654 -0.6666
30971SOL    HW298877  11.622  10.403  11.598  0.0350  0.2529  0.0716
30972SOL     OW98878   3.676   8.673   6.709 -0.0207  0.5105 -0.1140
30972SOL    HW198879   3.583   8.653   6.720 -0.2040  0.7861 -1.0477
30972SOL    HW298880   3.687   8.760   6.746 -0.2561  0.7036 -0.4881
30973SOL     OW98881   7.131   6.388   8.223  0.6351  0.5369 -0.0741
30973SOL    HW198882   7.141   6.445   8.299  1.5854 -0.3954  0.5413
30973SOL    HW298883   7.167   6.438   8.150 -0.6272  1.5850  0.0005
30974SOL     OW98884   6.871   3.289   9.390  0.2225  0.7561  0.2476
30974SOL    HW198885   6.848   3.366   9.443 -0.5462  0.4347  0.3958
30974SOL    HW298886   6.959   3.265   9.419  1.3908  2.8347 -1.2915
30975SOL     OW98887  12.376   2.316   4.734  0.3930  0.1034 -0.0889
30975SOL    HW198888  12.319   2.267   4.675  0.6560 -1.1106  0.6248
30975SOL    HW298889  12.448   2.346   4.678  0.7094 -1.1366 -0.3823
30976SOL     OW98890   3.347   8.046   4.962  0.1838  0.4961 -0.2588
30976SOL    HW198891   3.303   7.963   4.979 -1.4931  1.3846 -0.1026
30976SOL    HW298892   3.419   8.023   4.903 -0.2346 -1.0625 -0.2009
30977SOL     OW98893   5.868   2.065   0.312  0.4451  0.3639 -0.5981
30977SOL    HW198894   5.911   1.985   0.343  1.2095  0.6594 -0.8700
30977SOL    HW298895   5.814   2.093   0.385  0.5837 -0.1085 -0.3068
30978SOL     OW98896   4.478   4.089   3.980  0.2075 -0.7797  0.0603
30978SOL    HW198897   4.478   4.095   3.884  0.1288 -0.9337  0.0502
30978SOL    HW298898   4.403   4.033   4.001 -0.1412 -0.2503  0.2470
30979SOL     OW98899   9.883   9.048   2.367  0.4446  0.4821 -0.0825
30979SOL    HW198900   9.860   9.006   2.450  2.4250  0.1836  0.3741
30979SOL    HW298901   9.870   9.141   2.383  0.1679  0.3721  0.3476
30980SOL     OW98902  11.485  11.055   3.821  0.4340  0.1350  0.1450
30980SOL    HW198903  11.579  11.039   3.819  0.5346  0.6680  0.4259
30980SOL    HW298904  11.472  11.125   3.758  0.1547 -0.2605 -0.2441
30981SOL     OW98905   3.388   1.498  12.300  0.2720  0.4739  0.1627
30981SOL    HW198906   3.328   1.547  12.357 -3.3672 -1.1679 -1.9198
30981SOL    HW298907   3.383   1.408  12.333  2.0953  0.3670  0.2320
30982SOL     OW98908   0.561   1.348   3.305  0.0129 -0.3986 -0.4376
30982SOL    HW198909   0.522   1.286   3.367  0.5829 -0.4812 -0.1477
30982SOL    HW298910   0.487   1.397   3.269 -0.3816 -0.7886 -0.1653
30983SOL     OW98911   2.494   6.254   7.402 -0.1058  0.1005  0.2452
30983SOL    HW198912   2.468   6.175   7.355  0.4968 -0.5668  1.0023
30983SOL    HW298913   2.428   6.263   7.471 -0.4261  0.5195 -0.1075
30984SOL     OW98914   0.484   2.206   1.470  0.5607  0.1312 -0.6280
30984SOL    HW198915   0.555   2.209   1.534  1.4891 -0.8523 -1.5551
30984SOL    HW298916   0.527   2.182   1.388 -0.7259  0.4377 -1.4195
30985SOL     OW98917  11.585   0.008  10.085 -0.2513  0.2689  0.4388
30985SOL    HW198918  11.630  -0.000  10.169  0.6327  1.5625  0.1017
30985SOL    HW298919  11.646   0.054  10.028 -0.7179 -0.8425 -1.0333
30986SOL     OW98920   0.744   3.741   5.888 -1.0726  0.2294 -0.1379
30986SOL    HW198921   0.815   3.733   5.951  1.0386  2.5028 -2.0315
30986SOL    HW298922   0.782   3.714   5.804 -1.3368  4.2878 -1.7946
30987SOL     OW98923   7.267  11.553   2.200 -0.2090  0.2876 -0.2129
30987SOL    HW198924   7.196  11.595   2.152  0.9444  0.5171 -1.7606
30987SOL    HW298925   7.223  11.485   2.251 -1.5319  0.3101 -1.2606
30988SOL     OW98926  11.088   9.751   4.481  0.1549  0.3312  0.0977
30988SOL    HW198927  11.151   9.687   4.449  0.4059  0.6287  0.0000
30988SOL    HW298928  11.109   9.832   4.435 -0.4174  0.3865 -0.0779
30989SOL     OW98929   2.213   2.743  10.402  0.4806 -0.0062 -0.0328
30989SOL    HW198930   2.229   2.834  10.377  2.4300 -0.3202 -0.1383
30989SOL    HW298931   2.164   2.706  10.329 -1.1059  1.1481  0.3953
30990SOL     OW98932   4.558  11.607   0.424  0.0357  0.2977  0.0508
30990SOL    HW198933   4.476  11.608   0.375 -0.2537 -0.6568  0.4872
30990SOL    HW298934   4.586  11.516   0.422  1.0578  0.6024 -0.0316
30991SOL     OW98935   8.404   3.435  11.392 -0.0373 -0.1939  0.4282
30991SOL    HW198936   8.443   3.521  11.380  0.5567 -0.4283  0.6465
30991SOL    HW298937   8.416   3.416  11.485 -0.3229 -0.4385  0.4168
30992SOL     OW98938   5.723   4.303   8.669 -0.0317  0.4250  0.0524
30992SOL    HW198939   5.741   4.304   8.763  2.0682 -0.9487 -0.2730
30992SOL    HW298940   5.748   4.390   8.638  0.7764  0.3735  0.5390
30993SOL     OW98941   8.641   1.430  11.097  0.0364  0.1711 -0.3359
30993SOL    HW198942   8.644   1.482  11.178 -0.5508  3.7801 -2.4191
30993SOL    HW298943   8.733   1.424  11.070  0.0693  0.5949 -0.3310
30994SOL     OW98944   4.276   1.017   2.745 -0.0808 -0.6067 -0.5036
30994SOL    HW198945   4.243   1.015   2.835  0.1255 -2.0800 -0.4301
30994SOL    HW298946   4.214   0.963   2.696 -0.8923  1.1900 -1.5279
30995SOL     OW98947   4.170  11.697   1.826 -0.1207  0.2667 -0.3752
30995SOL    HW198948   4.220  11.666   1.750 -0.6667  0.8347 -0.9841
30995SOL    HW298949   4.132  11.618   1.864 -0.4875  0.0426 -1.1810
30996SOL     OW98950  11.906   1.637   2.409  0.1454  0.4307 -0.4707
30996SOL    HW198951  11.841   1.703   2.433  0.3858  0.1144  1.1725
30996SOL    HW298952  11.989   1.684   2.408  0.0029  0.7189 -2.0545
30997SOL     OW98953   3.053  12.474   6.209  0.6869  0.7480 -0.3108
30997SOL    HW198954   3.007  12.464   6.126  2.0332  0.4276 -1.0454
30997SOL    HW298955   3.141  12.440   6.193  0.6761 -0.3398  1.5529
30998SOL     OW98956   7.487  11.071   3.900  0.4855  0.2250  0.1502
30998SOL    HW198957   7.402  11.109   3.876 -0.7548 -0.3629  3.1234
30998SOL    HW298958   7.551  11.139   3.877 -0.9013  1.2208 -0.9875
30999SOL     OW98959  11.320   2.441  11.947  0.2236  0.1331 -0.2348
30999SOL    HW198960  11.377   2.457  12.022  1.5944  0.6926 -1.3609
30999SOL    HW298961  11.378   2.408  11.878 -0.7906  0.7262 -1.4256
31000SOL     OW98962   1.082   8.559  10.486  0.0387 -0.3758  0.3440
31000SOL    HW198963   1.088   8.533  10.394  1.0318 -1.8217  0.7879
31000SOL    HW298964   1.057   8.651  10.483 -0.7451 -0.6044 -1.3568
31001SOL     OW98965   5.474   5.879   7.296 -0.6317  0.0336 -0.1074
31001SOL    HW198966   5.533   5.810   7.265  0.4887  0.2875  1.3166
31001SOL    HW298967   5.427   5.839   7.369 -0.0613  0.7148  0.6509
31002SOL     OW98968   1.934   3.593  10.634  0.0031  0.1230 -0.7659
31002SOL    HW198969   2.025   3.565  10.626 -0.0487  0.2614 -2.1258
31002SOL    HW298970   1.933   3.651  10.710  0.9780 -0.1637 -0.5262
31003SOL     OW98971   9.454   7.201  11.784  0.2511  0.7576  0.3297
31003SOL    HW198972   9.538   7.157  11.769  0.1391  0.3417  0.8867
31003SOL    HW298973   9.457   7.278  11.728  0.5661  0.1821 -0.4616
31004SOL     OW98974  11.782   0.038   4.628 -0.1358 -0.2697 -0.5449
31004SOL    HW198975  11.777   0.066   4.719  0.1175 -1.1663 -0.2465
31004SOL    HW298976  11.876   0.043   4.607 -0.3448  1.3446 -1.2258
31005SOL     OW98977   3.224   8.074   1.920  0.3681 -0.0627 -0.6556
31005SOL    HW198978   3.236   8.154   1.971  1.9288  0.0410 -1.1477
31005SOL    HW298979   3.256   8.004   1.977  0.0573 -0.2064 -0.6563
31006SOL     OW98980   5.044  11.065  12.220 -0.0314 -0.6888  0.4935
31006SOL    HW198981   5.003  11.122  12.285  0.3855 -1.6627  1.6499
31006SOL    HW298982   4.994  11.080  12.140 -0.6885  0.3967  1.0845
31007SOL     OW98983   3.835   6.828   8.887 -0.0385 -0.3942 -0.5064
31007SOL    HW198984   3.890   6.763   8.930  0.5355  0.6693  0.4133
31007SOL    HW298985   3.856   6.820   8.794  2.1724  0.4207 -0.1297
31008SOL     OW98986   8.139   3.845   6.232  0.4580 -0.2696 -0.0287
31008SOL    HW198987   8.123   3.764   6.280 -1.4311 -0.2705 -0.5536
31008SOL    HW298988   8.101   3.913   6.288 -0.2595 -0.0773 -0.7270
31009SOL     OW98989   6.390   0.452   7.128  0.0459 -0.2989 -0.3367
31009SOL    HW198990   6.463   0.507   7.102  0.1194 -0.4307 -0.4115
31009SOL    HW298991   6.372   0.398   7.051 -1.4298  1.1123 -1.0456
31010SOL     OW98992   2.029  10.101  11.613 -0.3168 -0.4769 -0.5467
31010SOL    HW198993   1.980  10.037  11.664 -1.5035  0.1452 -0.8710
31010SOL    HW298994   2.090  10.048  11.560  1.3511 -1.0996  1.8423
31011SOL     OW98995   1.025   2.082   7.616 -0.3114 -0.0561  0.1322
31011SOL    HW198996   1.115   2.115   7.619 -0.0642 -0.4060 -2.0075
31011SOL    HW298997   0.971   2.161   7.617  0.0040  0.1629  1.2628
31012SOL     OW98998   5.043   6.107  10.835  0.0825  0.1425 -0.5072
31012SOL    HW198999   5.018   6.059  10.914  1.6228 -0.2570 -0.2309
31012SOL    HW299000   4.998   6.061  10.764 -1.6863  0.7798  0.1409
31013SOL     OW99001   9.926  10.460   3.085  0.2366  0.5198  0.3385
31013SOL    HW199002   9.862  10.389   3.075 -1.8144  2.2508  0.5003
31013SOL    HW299003   9.981  10.454   3.007 -0.4962 -0.6600 -0.1158
31014SOL     OW99004   7.665   6.527   3.199 -0.0547  0.5254  0.5696
31014SOL    HW199005   7.720   6.575   3.261  0.4127  0.5997  0.1028
31014SOL    HW299006   7.723   6.461   3.162 -0.0241  1.1791 -0.5907
31015SOL     OW99007   4.194  11.334   1.215  0.5757 -0.3971  0.7918
31015SOL    HW199008   4.231  11.321   1.127  0.9164  2.9600  0.2952
31015SOL    HW299009   4.102  11.357   1.199  0.6389  0.2243  1.2698
31016SOL     OW99010   0.643   6.285  10.651  0.0318  0.5297 -0.0556
31016SOL    HW199011   0.732   6.292  10.616 -0.6430  1.6921 -1.6558
31016SOL    HW299012   0.604   6.370  10.635 -1.9246 -0.4699 -0.9502
31017SOL     OW99013  10.413  11.399  12.153  0.3219 -0.1298 -0.3461
31017SOL    HW199014  10.359  11.321  12.135 -1.9207  0.7267  2.0986
31017SOL    HW299015  10.426  11.397  12.248 -1.3782  3.3668  0.0918
31018SOL     OW99016   4.266   5.257   4.474 -0.5251 -0.1878 -0.4326
31018SOL    HW199017   4.342   5.207   4.443 -0.4354 -0.8598  0.8234
31018SOL    HW299018   4.304   5.330   4.523 -0.6859 -0.5610  0.2528
31019SOL     OW99019  11.308  11.597   1.240  0.1919 -0.4382  0.0339
31019SOL    HW199020  11.340  11.530   1.180  0.5260 -0.3067  0.0642
31019SOL    HW299021  11.214  11.579   1.248 -0.0795  0.2059 -1.3868
31020SOL     OW99022   5.954   9.853   2.730 -0.1207 -0.4748 -0.2676
31020SOL    HW199023   6.026   9.905   2.764 -1.8045  1.7563  0.1124
31020SOL    HW299024   5.941   9.885   2.640 -1.4370  0.1424  0.1081
31021SOL     OW99025   1.503   5.551  10.876 -0.2878 -0.2150 -0.0760
31021SOL    HW199026   1.498   5.472  10.822  0.2067  0.9011 -1.8399
31021SOL    HW299027   1.566   5.607  10.831  0.3586  0.6875  1.8409
31022SOL     OW99028   8.017   0.526   1.033 -0.5096  0.5413 -0.2090
31022SOL    HW199029   8.008   0.449   1.089 -1.2762  0.5324 -0.3348
31022SOL    HW299030   7.965   0.506   0.955  0.6382  0.4991 -0.9999
31023SOL     OW99031   0.351   2.569   0.060  0.5325 -0.2776 -0.0873
31023SOL    HW199032   0.275   2.514   0.044  0.1956  0.0137  0.4702
31023SOL    HW299033   0.324   2.656   0.031  0.7508 -0.2291 -0.1485
31024SOL     OW99034   5.732   9.836   0.425 -0.1095 -0.3696  0.1045
31024SOL    HW199035   5.643   9.816   0.453  0.4687 -0.5027  1.9248
31024SOL    HW299036   5.757   9.914   0.475  0.2996  0.5788 -1.4757
31025SOL     OW99037   3.270   2.918  12.233 -0.0576 -0.0293 -0.0521
31025SOL    HW199038   3.208   2.884  12.298  0.8681 -1.7347 -0.0170
31025SOL    HW299039   3.252   2.868  12.154  1.1894 -0.4848 -0.0705
31026SOL     OW99040   0.366  11.737   1.785  0.2478  0.4277 -0.0992
31026SOL    HW199041   0.398  11.772   1.701 -0.0884  0.6264 -0.1469
31026SOL    HW299042   0.294  11.796   1.809 -0.5456 -0.4073 -0.3416
31027SOL     OW99043   1.716   0.161   2.296 -0.0018 -0.1960 -0.3214
31027SOL    HW199044   1.668   0.240   2.273 -0.2996 -0.7275 -1.5984
31027SOL    HW299045   1.790   0.160   2.235  1.3752  0.3308  1.2549
31028SOL     OW99046  11.731   6.286   2.767  0.1096 -0.2968  0.2291
31028SOL    HW199047  11.788   6.357   2.796  0.4142 -0.5063  0.1393
31028SOL    HW299048  11.784   6.207   2.775  0.8664 -0.1801 -2.6636
31029SOL     OW99049   1.310  10.462   3.963  0.0856  0.0890  0.0846
31029SOL    HW199050   1.386  10.404   3.963  1.4097  1.5474  3.3403
31029SOL    HW299051   1.345  10.549   3.943 -1.2515  0.3971 -1.1235
31030SOL     OW99052  10.883   7.868  11.821 -0.2740  0.1467 -0.2155
31030SOL    HW199053  10.948   7.799  11.829 -2.3563 -1.8556  0.4091
31030SOL    HW299054  10.809   7.827  11.776 -1.5002  2.0445 -0.0511
31031SOL     OW99055   6.656  11.304  10.654  0.1264  0.4628 -0.2926
31031SOL    HW199056   6.601  11.228  10.676  0.2951  0.6253  0.7157
31031SOL    HW299057   6.614  11.341  10.576 -0.8277  0.2135  0.0857
31032SOL     OW99058   9.064   5.880   3.322 -0.0564  0.6554  0.3216
31032SOL    HW199059   8.979   5.837   3.312  0.1379  0.7161 -2.3225
31032SOL    HW299060   9.127   5.808   3.322 -0.0502  0.6206  2.1329
31033SOL     OW99061  12.200   0.553   4.897 -0.1659  0.2713 -0.2067
31033SOL    HW199062  12.257   0.629   4.907  1.6117 -0.9551 -0.4565
31033SOL    HW299063  12.204   0.532   4.803 -0.7139 -0.0716 -0.1588
31034SOL     OW99064   2.602  11.502  10.947  0.6544  0.3437  0.2893
31034SOL    HW199065   2.656  11.488  10.869 -1.0948  2.3498 -1.4292
31034SOL    HW299066   2.515  11.471  10.921 -0.0041  1.1976  1.3611
31035SOL     OW99067   1.715   8.011   5.568  0.2780  0.1173 -0.0365
31035SOL    HW199068   1.776   7.998   5.496 -1.8878 -2.9422 -1.5643
31035SOL    HW299069   1.628   8.006   5.527 -1.0586  0.7850  2.4797
31036SOL     OW99070   2.005   5.894  11.855  0.7734 -0.7551  0.1306
31036SOL    HW199071   2.051   5.959  11.908  2.1269 -0.8605 -0.8631
31036SOL    HW299072   1.929   5.940  11.820  0.7703 -0.2216  0.8309
31037SOL     OW99073  11.531   0.972   3.617 -0.3625 -0.2496  0.0632
31037SOL    HW199074  11.553   1.065   3.620 -2.5681  0.3520 -0.7783
31037SOL    HW299075  11.471   0.960   3.691 -0.0772 -1.0007  0.1738
31038SOL     OW99076   9.932  10.029  12.029 -0.3006 -0.1205 -0.6015
31038SOL    HW199077   9.908  10.122  12.027 -0.2827 -0.0428  1.1242
31038SOL    HW299078   9.980  10.015  11.948 -0.0686  1.4538 -0.7731
31039SOL     OW99079  10.806   6.359   2.719 -0.3741  0.1317 -0.3102
31039SOL    HW199080  10.748   6.405   2.779  0.7986  1.3446 -0.0448
31039SOL    HW299081  10.770   6.271   2.712 -1.2428  0.3458  1.1887
31040SOL     OW99082  10.278   1.689   0.050 -0.0178 -0.3596  0.1253
31040SOL    HW199083  10.316   1.776   0.064  1.9304 -1.2566  0.7755
31040SOL    HW299084  10.252   1.688  -0.042 -1.2542  1.3233  0.4196
31041SOL     OW99085   8.329   9.158   6.393 -0.0864  0.1443 -0.9414
31041SOL    HW199086   8.377   9.217   6.334 -0.2664 -1.1906 -2.5144
31041SOL    HW299087   8.380   9.077   6.393  0.4140  0.3963  1.5557
31042SOL     OW99088   0.569  10.746   1.734  0.6078 -0.5890  0.3446
31042SOL    HW199089   0.483  10.763   1.773  0.4033  0.8125 -0.6546
31042SOL    HW299090   0.556  10.664   1.686  0.2220 -1.0976  1.2741
31043SOL     OW99091   8.521   3.243   6.050 -0.2227  0.2881 -0.4264
31043SOL    HW199092   8.545   3.158   6.013 -1.7941 -1.7147  2.7448
31043SOL    HW299093   8.600   3.273   6.094 -0.4749 -1.1398  1.0910
31044SOL     OW99094   9.808   5.530   6.464  0.1159 -0.2140  0.0194
31044SOL    HW199095   9.778   5.615   6.432  0.6516  0.0608  0.2212
31044SOL    HW299096   9.786   5.468   6.395 -2.9661 -0.4486  1.0579
31045SOL     OW99097   1.934   2.060   7.618 -0.0108 -0.2720 -0.3205
31045SOL    HW199098   1.904   2.111   7.694 -0.1175  0.5308 -0.8971
31045SOL    HW299099   1.909   2.113   7.542 -3.5416 -2.8030 -1.2054
31046SOL     OW99100  10.765   6.459   9.758 -0.4085  0.7251  0.5310
31046SOL    HW199101  10.837   6.477   9.697 -0.5378  1.7624  0.6748
31046SOL    HW299102  10.806   6.464   9.844 -0.2078 -0.8307  0.5541
31047SOL     OW99103   0.137   8.466   1.252 -0.1441 -0.0939  0.1516
31047SOL    HW199104   0.070   8.425   1.198 -0.6573  0.1505  0.5938
31047SOL    HW299105   0.110   8.448   1.342  0.7795 -0.6253  0.3357
31048SOL     OW99106   2.191  10.266   5.460 -0.5858  0.1741 -0.0264
31048SOL    HW199107   2.123  10.213   5.501  0.3760 -1.2606 -0.2039
31048SOL    HW299108   2.175  10.355   5.491 -2.1665 -0.2331  0.3963
31049SOL     OW99109   2.306   6.678   4.329 -0.0404 -0.3111  0.5579
31049SOL    HW199110   2.270   6.609   4.274  0.6804  0.2073 -0.6123
31049SOL    HW299111   2.230   6.731   4.354 -0.2904  0.0702 -0.8760
31050SOL     OW99112   1.591  11.153   5.855 -0.1125 -0.1513  0.0395
31050SOL    HW199113   1.571  11.244   5.832 -0.2328  0.1612  1.3162
31050SOL    HW299114   1.510  11.118   5.890  0.7272  0.2673  2.5976
31051SOL     OW99115   8.167   3.376  11.254  0.0051  0.4227 -0.0110
31051SOL    HW199116   8.185   3.289  11.218 -0.8649 -0.4956  1.6557
31051SOL    HW299117   8.237   3.392  11.317 -0.7558  0.1669  0.9216
31052SOL     OW99118  10.416   4.833   4.097 -0.1384 -0.2301 -0.4119
31052SOL    HW199119  10.421   4.819   4.192 -1.8597  0.3011 -0.2027
31052SOL    HW299120  10.499   4.800   4.063 -0.1793 -2.0036  1.0863
31053SOL     OW99121   6.027  10.102   8.977 -0.2417  0.3277  0.0713
31053SOL    HW199122   6.077  10.049   9.038  0.7472  1.3835  0.1924
31053SOL    HW299123   6.086  10.116   8.903  0.3163  2.9615  0.9262
31054SOL     OW99124   2.159   1.577   7.033 -0.3258  0.2508 -0.1774
31054SOL    HW199125   2.251   1.602   7.033 -0.6259  1.5194  1.4374
31054SOL    HW299126   2.112   1.658   7.014 -1.1850  0.3613  2.0768
31055SOL     OW99127   6.643   4.538   9.226  0.6070 -0.2007  0.1303
31055SOL    HW199128   6.572   4.485   9.263  0.3428  0.1282  0.1001
31055SOL    HW299129   6.707   4.474   9.195  1.0330 -0.4943  1.5342
31056SOL     OW99130   3.196   2.550  10.884  0.3974 -0.4973 -0.4838
31056SOL    HW199131   3.209   2.465  10.841  1.1544  0.1643 -1.6363
31056SOL    HW299132   3.245   2.544  10.965 -0.2588 -1.4458 -0.1359
31057SOL     OW99133   7.350   2.055   5.988 -0.1973 -0.5008 -0.4296
31057SOL    HW199134   7.422   2.106   5.952  0.7285  0.2394  2.2035
31057SOL    HW299135   7.393   1.988   6.042 -1.3696  0.5844  2.0378
31058SOL     OW99136   5.633  11.558  11.869  0.0735 -0.1847 -0.3056
31058SOL    HW199137   5.648  11.524  11.957 -1.6338  1.8582  0.8701
31058SOL    HW299138   5.638  11.482  11.812  2.3405 -1.4133  1.3699
31059SOL     OW99139   5.269   9.447   1.448  0.3390 -0.4475 -0.2351
31059SOL    HW199140   5.312   9.505   1.510  1.3504 -0.0763 -1.2482
31059SOL    HW299141   5.322   9.453   1.369  0.4794 -2.7456 -0.3849
31060SOL     OW99142   5.472   2.552   1.585  0.1294  0.4381  0.4184
31060SOL    HW199143   5.493   2.498   1.661 -0.4181 -0.2219  0.1080
31060SOL    HW299144   5.431   2.630   1.622 -2.0030 -0.7521  0.7404
31061SOL     OW99145   6.415   7.868   6.372  0.6309 -0.0625 -0.4242
31061SOL    HW199146   6.398   7.955   6.406  1.0239 -0.2421  0.2410
31061SOL    HW299147   6.366   7.809   6.429  2.9258 -0.5439  1.1802
31062SOL     OW99148   7.269   1.232   5.291 -0.3276 -0.0867 -0.2016
31062SOL    HW199149   7.358   1.209   5.318 -0.2546  0.7681  0.3195
31062SOL    HW299150   7.220   1.235   5.373 -0.7038  0.0126 -0.4284
31063SOL     OW99151   2.992  11.851   9.488 -0.0480 -0.3953 -0.3981
31063SOL    HW199152   3.026  11.930   9.529 -0.2618  0.4376 -1.7765
31063SOL    HW299153   2.993  11.785   9.558 -1.8131  1.3445  1.3596
31064SOL     OW99154   6.469   9.421   2.531 -0.2340  0.3534  0.1910
31064SOL    HW199155   6.502   9.476   2.603 -1.2021  1.8461 -0.4583
31064SOL    HW299156   6.434   9.343   2.575 -0.6917  1.1693  1.3412
31065SOL     OW99157   1.951   4.994   3.136  0.0290 -0.2960 -0.1963
31065SOL    HW199158   2.009   5.023   3.065  0.9885 -0.5934  0.4542
31065SOL    HW299159   1.914   4.911   3.104  0.1255 -0.2178 -0.5208
31066SOL     OW99160  11.714   9.460   1.999  0.1418  0.1551 -0.2809
31066SOL    HW199161  11.693   9.547   1.967 -2.1766  0.1649  1.0707
31066SOL    HW299162  11.677   9.457   2.088  1.7836 -1.5911  0.4181
31067SOL     OW99163   2.626   7.528  11.701  0.4282  0.0167 -0.0416
31067SOL    HW199164   2.570   7.566  11.767  0.0420 -0.5105 -0.0565
31067SOL    HW299165   2.624   7.590  11.628  0.4040  0.3205  0.2154
31068SOL     OW99166   7.852   3.720   3.126  0.1484  0.4089 -0.1096
31068SOL    HW199167   7.883   3.658   3.060 -0.8747 -0.1436 -0.0956
31068SOL    HW299168   7.890   3.688   3.208  0.0557  0.1070 -0.1810
31069SOL     OW99169   6.479   1.463   2.283  0.0173 -0.6429  0.3382
31069SOL    HW199170   6.460   1.404   2.356 -0.2886  0.0056  0.7949
31069SOL    HW299171   6.499   1.405   2.209 -0.4033 -1.3096  0.7416
31070SOL     OW99172  12.347   8.813   7.954  0.5525  0.1014  0.3264
31070SOL    HW199173  12.357   8.785   8.045 -0.7792 -1.7936 -0.0488
31070SOL    HW299174  12.260   8.852   7.949  1.6442  2.7669  0.3892
31071SOL     OW99175   7.697   2.831   2.859 -0.1095  0.0160 -0.3340
31071SOL    HW199176   7.725   2.911   2.814 -1.4100  0.3112 -0.6773
31071SOL    HW299177   7.602   2.841   2.868 -0.2322 -1.2792  0.0499
31072SOL     OW99178   2.565   5.359   4.566 -0.3994  0.0805  0.5831
31072SOL    HW199179   2.480   5.367   4.524 -0.4479  2.1420  0.9903
31072SOL    HW299180   2.616   5.433   4.533  1.0977 -0.8338  0.7184
31073SOL     OW99181   7.647   7.268   4.098 -0.8708 -0.5412  0.2617
31073SOL    HW199182   7.671   7.201   4.034 -0.1764 -1.5096  1.5011
31073SOL    HW299183   7.576   7.317   4.055 -0.8627 -1.5568 -0.9842
31074SOL     OW99184   8.172   1.286  10.197  0.4773 -0.5071 -0.0738
31074SOL    HW199185   8.083   1.292  10.231  0.1978  0.4492 -0.9304
31074SOL    HW299186   8.162   1.243  10.111  0.5030  1.7082 -1.2565
31075SOL     OW99187   3.705  10.277  12.135 -0.2022  0.2490  0.7696
31075SOL    HW199188   3.635  10.226  12.094 -1.4436  2.8814 -0.7149
31075SOL    HW299189   3.660  10.330  12.201  0.2413  2.1241 -0.3357
31076SOL     OW99190   6.133   2.743   5.441 -0.4635  0.1556 -0.5132
31076SOL    HW199191   6.157   2.653   5.416 -2.1098 -0.7017  0.7322
31076SOL    HW299192   6.205   2.773   5.495 -0.3994 -0.8738 -0.0069
31077SOL     OW99193   9.411   8.322   4.468 -0.5134 -0.3623 -0.4742
31077SOL    HW199194   9.336   8.364   4.425  1.3947  0.6008 -3.1717
31077SOL    HW299195   9.390   8.229   4.467 -0.7572 -0.3767 -3.4143
31078SOL     OW99196   3.014   6.832  10.304  0.0819  0.2585  0.0817
31078SOL    HW199197   2.973   6.860  10.386  0.3615 -0.3047  0.4151
31078SOL    HW299198   3.102   6.804  10.329  1.7307  3.8938 -0.9565
31079SOL     OW99199   1.565  10.985   6.187 -0.0395 -0.3469 -0.2587
31079SOL    HW199200   1.506  10.998   6.114  0.2284 -1.0935 -0.6150
31079SOL    HW299201   1.628  10.919   6.157  0.1902 -0.5253  0.5658
31080SOL     OW99202   8.821   6.946  10.107  0.0994  0.1182 -0.1864
31080SOL    HW199203   8.775   7.006  10.049  2.2162  3.0116  0.8809
31080SOL    HW299204   8.756   6.923  10.174 -1.3901 -0.6387 -1.8177
31081SOL     OW99205  10.789   5.698   8.046 -0.1018 -0.1080 -0.8809
31081SOL    HW199206  10.779   5.618   7.994  0.0710  0.2509 -1.4790
31081SOL    HW299207  10.722   5.690   8.114  0.2206 -0.9724 -0.6471
31082SOL     OW99208   0.248   5.136   5.163 -0.5596  0.0996  0.2141
31082SOL    HW199209   0.221   5.206   5.222 -1.9085  0.0305 -0.3013
31082SOL    HW299210   0.220   5.164   5.076 -0.2850 -0.6572 -0.1312
31083SOL     OW99211  11.860   5.074  10.311 -0.5142 -0.5269  0.4772
31083SOL    HW199212  11.831   5.131  10.382  0.3421 -0.5282  0.8409
31083SOL    HW299213  11.886   4.993  10.355  0.3744 -0.3960  0.2191
31084SOL     OW99214   1.091   0.235  11.843 -0.4467  0.1565  0.4825
31084SOL    HW199215   1.011   0.234  11.897 -0.5812  0.8531  0.3080
31084SOL    HW299216   1.148   0.299  11.885 -0.6727  0.9380 -0.3513
31085SOL     OW99217   8.496   7.356  10.100  0.6103  0.7217 -0.6668
31085SOL    HW199218   8.531   7.435  10.059  0.6439  1.0911  0.0389
31085SOL    HW299219   8.511   7.370  10.194 -0.0515  0.2074 -0.4746
31086SOL     OW99220   3.694   0.858   3.856 -0.0641  0.2115 -0.0171
31086SOL    HW199221   3.712   0.766   3.839  2.4116 -0.1124  3.4282
31086SOL    HW299222   3.629   0.857   3.927  0.9264  1.0061  0.9484
31087SOL     OW99223  10.280   1.791   4.696  0.6015 -0.2607 -0.4706
31087SOL    HW199224  10.262   1.753   4.610  1.2971  0.5809 -1.0067
31087SOL    HW299225  10.339   1.864   4.677 -0.6707  1.0590  0.5297
31088SOL     OW99226  10.835   0.122   7.321  0.2656  0.1099  0.2778
31088SOL    HW199227  10.778   0.199   7.319  0.4827  0.2786  0.5258
31088SOL    HW299228  10.776   0.050   7.343 -0.3731 -0.1962 -2.1032
31089SOL     OW99229   2.694   4.577   1.590 -0.6190 -0.6492  0.7836
31089SOL    HW199230   2.625   4.578   1.524  0.4045  1.1188 -0.3546
31089SOL    HW299231   2.670   4.647   1.651 -0.5769 -0.9836  1.1855
31090SOL     OW99232   8.018   8.836   5.845 -0.6194  0.3245 -0.2233
31090SOL    HW199233   8.065   8.907   5.888 -0.0790  0.2880 -0.7433
31090SOL    HW299234   8.086   8.777   5.814 -0.9524  0.5676 -1.5123
31091SOL     OW99235   0.639   1.553   3.000 -0.0894  0.1319  0.0177
31091SOL    HW199236   0.727   1.540   3.037 -0.4467  0.4485  1.0227
31091SOL    HW299237   0.613   1.467   2.969  1.2322  0.3334 -1.8477
31092SOL     OW99238  11.937   8.439   0.859 -0.3684 -0.4103  0.0688
31092SOL    HW199239  11.960   8.433   0.767  0.2074  1.3479  0.0533
31092SOL    HW299240  11.854   8.487   0.860 -1.0100 -1.4911  0.4296
31093SOL     OW99241   0.774  11.157   4.396 -0.0702 -0.2546 -0.6553
31093SOL    HW199242   0.794  11.242   4.434 -1.7664 -0.3826  0.6542
31093SOL    HW299243   0.738  11.179   4.310 -1.0203  0.4189 -0.1108
31094SOL     OW99244   6.601  11.198   0.746 -0.2144  0.1771 -0.1247
31094SOL    HW199245   6.566  11.108   0.743  0.4222 -0.0858  0.1538
31094SOL    HW299246   6.576  11.236   0.662  1.3501 -0.9747 -1.1721
31095SOL     OW99247   1.120   3.901   7.579 -0.0114  0.4579  0.1071
31095SOL    HW199248   1.154   3.984   7.544  0.5068  0.3839  0.4328
31095SOL    HW299249   1.157   3.895   7.667 -0.0684 -0.1068  0.0950
31096SOL     OW99250   2.375   8.095   1.565 -0.1578  0.1434 -0.5276
31096SOL    HW199251   2.357   8.083   1.658 -2.3678  1.0203 -0.7694
31096SOL    HW299252   2.380   8.190   1.553  2.1273  0.0096 -1.0162
31097SOL     OW99253  11.738   5.443   3.805  0.3413  0.3797 -0.1017
31097SOL    HW199254  11.650   5.436   3.768  0.5383 -0.1199 -0.4795
31097SOL    HW299255  11.766   5.353   3.818  0.5657  0.5429  0.5890
31098SOL     OW99256   4.054   0.157   2.006 -0.2380  0.0964  0.5363
31098SOL    HW199257   4.068   0.166   1.912 -2.0777  1.6143  0.3510
31098SOL    HW299258   4.136   0.189   2.045 -0.0722  1.0205 -0.5278
31099SOL     OW99259   5.668  10.265  11.781  0.0794  0.1605 -0.0550
31099SOL    HW199260   5.667  10.180  11.825 -0.6571  1.1737  1.9877
31099SOL    HW299261   5.601  10.316  11.826  3.5671  3.3713  1.9785
31100SOL     OW99262   2.302  11.072   0.262 -0.4299 -0.1276 -0.0487
31100SOL    HW199263   2.374  11.129   0.291 -0.8589 -0.4102  1.7142
31100SOL    HW299264   2.244  11.066   0.338 -2.2476 -0.0584 -1.3787
31101SOL     OW99265   9.268  10.575   2.929 -0.4372  0.3846  0.8393
31101SOL    HW199266   9.330  10.507   2.955 -1.5967 -1.1309 -0.1998
31101SOL    HW299267   9.318  10.657   2.936  0.8047 -0.4664  2.7354
31102SOL     OW99268   2.976  10.565   5.407 -0.0191  0.3215  0.1751
31102SOL    HW199269   3.010  10.640   5.456 -1.4628  1.1371 -0.0104
31102SOL    HW299270   2.881  10.580   5.403 -0.2390 -1.0895 -0.5902
31103SOL     OW99271   7.738   5.705   7.779  0.1517 -0.3816 -0.6005
31103SOL    HW199272   7.717   5.752   7.860 -0.4612  0.0685 -1.0112
31103SOL    HW299273   7.824   5.739   7.753  1.2482 -1.8923  0.8421
31104SOL     OW99274   1.731   4.134   6.348  0.2741  0.0721 -0.0805
31104SOL    HW199275   1.782   4.155   6.269  0.7521  0.1605  0.2462
31104SOL    HW299276   1.797   4.110   6.413 -0.2020 -1.4793 -0.1472
31105SOL     OW99277   4.118   2.845  12.025 -0.1496 -0.3621  0.1958
31105SOL    HW199278   4.100   2.923  12.078 -2.1190 -0.7072  0.1392
31105SOL    HW299279   4.208   2.855  11.997 -0.0515  1.4177  0.9863
31106SOL     OW99280  10.031   5.858  10.084  0.1544  0.0933  0.2127
31106SOL    HW199281  10.038   5.850  10.179  2.3584 -0.1599  0.0949
31106SOL    HW299282   9.939   5.877  10.068 -0.1981  0.5413  2.4257
31107SOL     OW99283   5.050   4.571   8.670  0.2216 -0.2684  0.1718
31107SOL    HW199284   5.109   4.647   8.677  1.3973 -1.0806 -0.5279
31107SOL    HW299285   5.000   4.572   8.751  0.5376  0.9936  0.3753
31108SOL     OW99286  10.709   6.726  10.870 -1.2683 -0.9593  0.0655
31108SOL    HW199287  10.618   6.736  10.898 -1.7623  0.1584 -1.7668
31108SOL    HW299288  10.703   6.696  10.779  0.2240 -2.0458  0.2829
31109SOL     OW99289   5.463  12.457   0.684 -0.1157  0.0908 -0.0834
31109SOL    HW199290   5.429  12.370   0.701 -0.0128 -0.1750 -1.1667
31109SOL    HW299291   5.527  12.445   0.614  0.6141  0.8983  0.4281
31110SOL     OW99292   4.738   2.627  11.425  0.1247  0.5178  0.4923
31110SOL    HW199293   4.771   2.644  11.337  1.6797  2.2767  1.3318
31110SOL    HW299294   4.673   2.695  11.440 -0.9543 -0.4565  0.3318
31111SOL     OW99295   4.568  10.908  11.581 -0.2084 -0.0612  0.0328
31111SOL    HW199296   4.652  10.912  11.626 -0.5152 -0.1262  0.6286
31111SOL    HW299297   4.550  10.814  11.573 -0.3982 -0.0453  0.2531
31112SOL     OW99298   1.583   6.556   3.125 -0.1231 -0.1344  0.0409
31112SOL    HW199299   1.600   6.462   3.134 -0.0036 -0.1115  0.0538
31112SOL    HW299300   1.668   6.597   3.140 -0.0640 -0.0562 -0.4663
31113SOL     OW99301   8.683   8.544   6.370  0.1897  0.3385  0.6076
31113SOL    HW199302   8.742   8.573   6.440 -1.1608 -1.1995  2.5004
31113SOL    HW299303   8.694   8.449   6.368 -0.5542  0.2581 -0.5983
31114SOL     OW99304  11.007   4.685  12.173  0.9199  0.4600  0.0141
31114SOL    HW199305  10.977   4.733  12.251  1.1780  0.7980 -0.0913
31114SOL    HW299306  11.002   4.593  12.199  0.4662  0.5447  0.2378
31115SOL     OW99307   5.292  10.817   3.400  0.7144 -0.4970  0.0417
31115SOL    HW199308   5.243  10.744   3.362  1.0172 -0.4964 -0.3592
31115SOL    HW299309   5.373  10.778   3.432 -0.1671 -0.7540  2.0489
31116SOL     OW99310   7.564   8.448   2.391  0.0190  0.2003 -0.4612
31116SOL    HW199311   7.640   8.434   2.334 -0.3098 -0.6481 -0.7038
31116SOL    HW299312   7.579   8.391   2.466 -1.3867 -1.6360 -1.5099
31117SOL     OW99313   2.663   7.520   1.417 -0.0133  0.1237 -0.2225
31117SOL    HW199314   2.646   7.575   1.494  0.4812  1.2627 -0.8913
31117SOL    HW299315   2.759   7.517   1.411 -0.0351 -0.8837 -0.1601
31118SOL     OW99316  10.294   9.841   6.271  0.0259  0.1891  1.0006
31118SOL    HW199317  10.237   9.888   6.212  1.9872  0.5423 -0.7306
31118SOL    HW299318  10.261   9.862   6.359 -2.6975 -0.0086  0.1066
31119SOL     OW99319  10.406  10.899  11.914 -0.9515 -0.0467  0.7812
31119SOL    HW199320  10.323  10.850  11.911 -0.3232 -1.2402 -2.7297
31119SOL    HW299321  10.390  10.976  11.858  0.0724  0.0876  0.6541
31120SOL     OW99322   3.993   1.511   3.591  0.3534  0.3975 -0.2773
31120SOL    HW199323   3.910   1.546   3.558  0.4161 -0.9314 -2.0010
31120SOL    HW299324   3.970   1.470   3.674 -0.1848  2.2637  0.5367
31121SOL     OW99325  11.753  11.306  12.318  0.4222  0.9313 -0.3062
31121SOL    HW199326  11.766  11.286  12.411 -3.1122  0.3346  0.2115
31121SOL    HW299327  11.827  11.264  12.274  1.0118 -0.7271  2.0504
31122SOL     OW99328   2.367   2.262   4.485 -0.2432  0.3005  0.1655
31122SOL    HW199329   2.285   2.254   4.437  0.1613 -0.9071 -0.3599
31122SOL    HW299330   2.353   2.335   4.545 -1.0463  1.3021 -1.2003
31123SOL     OW99331  11.900   1.523   0.379  0.1129 -0.3386 -0.4012
31123SOL    HW199332  11.964   1.532   0.449 -0.2135 -1.1678  0.0219
31123SOL    HW299333  11.949   1.487   0.305  0.6082  1.2042 -0.8514
31124SOL     OW99334  11.425   7.187  12.169 -0.9720  0.4412 -0.0312
31124SOL    HW199335  11.484   7.152  12.103 -0.7099 -0.4938  0.6869
31124SOL    HW299336  11.481   7.236  12.229 -0.8960 -0.4266  0.6372
31125SOL     OW99337   7.014  10.515   4.181 -0.2279  0.4588 -0.1997
31125SOL    HW199338   7.014  10.610   4.174  1.4043  0.4405 -0.7817
31125SOL    HW299339   6.954  10.497   4.254  0.7252  2.0251  1.0436
31126SOL     OW99340   3.372   7.160   8.482  0.6806 -0.0281 -0.4823
31126SOL    HW199341   3.331   7.192   8.402 -1.1177  0.6799  0.6346
31126SOL    HW299342   3.323   7.081   8.504  0.8190  0.0573  0.1534
31127SOL     OW99343   4.524   0.817   1.860  0.0465  0.1494 -0.2197
31127SOL    HW199344   4.579   0.810   1.938 -0.8525 -1.0570  0.3510
31127SOL    HW299345   4.583   0.801   1.787  1.0253  1.9003  0.1407
31128SOL     OW99346   1.529   5.230   4.347  0.6174  0.5341 -0.2651
31128SOL    HW199347   1.544   5.135   4.346  2.4148  0.7760 -0.9722
31128SOL    HW299348   1.527   5.255   4.254 -0.9775  1.0636 -0.1179
31129SOL     OW99349   2.076   2.947   2.090  0.1541  0.1656 -0.1888
31129SOL    HW199350   2.149   2.885   2.088  0.3947  0.4404  0.1092
31129SOL    HW299351   2.104   3.015   2.151  0.0809  0.7991 -0.8533
31130SOL     OW99352  10.194   4.084   4.240 -0.2467  0.3212 -0.3976
31130SOL    HW199353  10.213   4.125   4.155 -1.2862 -1.8229 -1.7629
31130SOL    HW299354  10.251   4.007   4.242 -0.4726  0.1652  0.7420
31131SOL     OW99355   3.604   4.664  11.805 -0.1784  0.5387 -0.2675
31131SOL    HW199356   3.630   4.686  11.716  1.3078 -1.3077 -0.3412
31131SOL    HW299357   3.682   4.624  11.844 -0.9052  0.9515  1.7574
31132SOL     OW99358   3.861   8.772   4.024 -0.0791 -0.0090 -0.1624
31132SOL    HW199359   3.953   8.745   4.022  0.7738  2.6007  0.3328
31132SOL    HW299360   3.820   8.723   3.953  1.5504 -1.6253 -0.0664
31133SOL     OW99361   9.101   0.875  10.972  0.0627 -0.3135 -0.6677
31133SOL    HW199362   9.059   0.956  11.001 -1.1371 -1.2604  0.3826
31133SOL    HW299363   9.056   0.852  10.891  0.7502  0.3227 -1.2360
31134SOL     OW99364  11.495  11.142  12.277 -0.4800  0.1336  0.0576
31134SOL    HW199365  11.575  11.195  12.272  0.3640 -1.0570  0.7231
31134SOL    HW299366  11.472  11.140  12.370 -1.2548  0.3859 -0.1135
31135SOL     OW99367   2.242  10.385   6.116 -0.2283 -0.3367  0.5242
31135SOL    HW199368   2.209  10.396   6.027  0.2681 -1.6040  0.1648
31135SOL    HW299369   2.287  10.467   6.135 -2.1811  0.8073  0.4478
31136SOL     OW99370   2.683   2.805  11.770  0.2029 -0.1540 -0.5578
31136SOL    HW199371   2.696   2.740  11.701  1.1532  0.0549 -0.5810
31136SOL    HW299372   2.610   2.858  11.739 -0.8569 -1.4312 -0.3620
31137SOL     OW99373   2.472   0.615   5.529  0.0830 -0.3424  0.1399
31137SOL    HW199374   2.445   0.582   5.444 -0.3109 -2.5945  1.0742
31137SOL    HW299375   2.452   0.709   5.526 -0.6080 -0.5112 -1.9504
31138SOL     OW99376  10.965  10.192   3.081 -0.3786  0.0463  0.0706
31138SOL    HW199377  10.893  10.141   3.045 -0.9489  1.0219 -0.2173
31138SOL    HW299378  11.040  10.132   3.082 -1.2595 -1.0876  0.6779
31139SOL     OW99379  11.720   2.671   2.943  0.5448  0.0054 -0.2720
31139SOL    HW199380  11.742   2.605   3.008 -2.0180 -1.8332 -1.1363
31139SOL    HW299381  11.704   2.751   2.993 -3.1930 -1.7746  1.7244
31140SOL     OW99382   7.881   0.321   2.387 -0.5695  0.9558 -0.5511
31140SOL    HW199383   7.929   0.321   2.469  0.9551 -1.5055 -1.3438
31140SOL    HW299384   7.945   0.349   2.321 -1.2735  1.1574 -1.1687
31141SOL     OW99385  12.241   5.382   9.174 -0.0978  0.8240  0.3612
31141SOL    HW199386  12.331   5.373   9.143 -0.5468 -1.5110 -0.4637
31141SOL    HW299387  12.205   5.455   9.124  0.6692  0.2797 -1.0274
31142SOL     OW99388   7.376   0.351   6.686 -0.4602  0.1664 -0.0310
31142SOL    HW199389   7.314   0.324   6.753 -0.3051  1.5841  0.7270
31142SOL    HW299390   7.366   0.446   6.680  1.4612  0.4204 -0.0301
31143SOL     OW99391   0.472   8.006   8.226 -0.1713  0.8190 -0.1581
31143SOL    HW199392   0.412   7.932   8.239  0.8500  0.2435  1.7296
31143SOL    HW299393   0.479   8.015   8.131 -0.0719 -1.7846 -0.4766
31144SOL     OW99394   2.978   9.713   9.539  0.4390 -0.0584  0.1425
31144SOL    HW199395   2.943   9.631   9.503  0.6525 -0.8913  1.7408
31144SOL    HW299396   3.070   9.693   9.559  0.6515  0.7567  0.0054
31145SOL     OW99397   5.997   2.339   8.642 -0.2954 -0.0467  0.0779
31145SOL    HW199398   5.909   2.308   8.662  0.1551 -2.6942 -1.5951
31145SOL    HW299399   5.983   2.423   8.597 -1.7870  0.5262  1.4872
31146SOL     OW99400   8.394   2.739   2.509 -0.2494  0.4832 -0.2909
31146SOL    HW199401   8.329   2.682   2.549 -0.6475 -0.1125 -1.7442
31146SOL    HW299402   8.459   2.753   2.578  0.2101 -2.2740 -0.0709
31147SOL     OW99403  11.981   9.186   2.410 -0.6914  0.2955 -0.0191
31147SOL    HW199404  12.047   9.247   2.376 -0.1353  0.2538  0.9615
31147SOL    HW299405  11.995   9.185   2.504 -0.7493 -1.2779  0.0009
31148SOL     OW99406   6.162   3.978   5.992  0.4243 -0.8745 -0.4601
31148SOL    HW199407   6.209   3.919   5.933  1.8880  0.6710 -0.9252
31148SOL    HW299408   6.152   4.059   5.943  0.0088 -0.1486  0.7590
31149SOL     OW99409   5.159  11.715   8.569  0.4198  0.7425  0.3867
31149SOL    HW199410   5.231  11.663   8.603 -0.0115  0.9733  1.7075
31149SOL    HW299411   5.095  11.718   8.640 -1.1814  0.0423 -0.9283
31150SOL     OW99412   0.187   4.220   0.024  0.0619 -0.0316  0.0999
31150SOL    HW199413   0.269   4.197  -0.020  1.0548  1.3346  1.1513
31150SOL    HW299414   0.137   4.139   0.024  0.6795 -0.4891 -2.0657
31151SOL     OW99415   8.026   5.618  11.115 -0.0307 -0.4803  0.2952
31151SOL    HW199416   8.068   5.692  11.159  1.6572 -1.1978 -0.0124
31151SOL    HW299417   7.953   5.594  11.172  0.3142  0.4783  1.1636
31152SOL     OW99418   0.020   2.180   2.912  0.0330 -0.1106  0.0681
31152SOL    HW199419   0.112   2.175   2.936 -0.1941 -3.1259  0.7033
31152SOL    HW299420  -0.011   2.262   2.951  2.3462  0.8741 -0.0043
31153SOL     OW99421   5.419   7.968   2.146 -0.5747 -0.4507 -0.4587
31153SOL    HW199422   5.400   7.920   2.066 -0.8294 -1.1325 -0.0020
31153SOL    HW299423   5.345   7.949   2.204  0.0987 -0.7992  0.3069
31154SOL     OW99424   2.358   6.004   3.349  0.4453  0.3382 -0.1125
31154SOL    HW199425   2.273   6.036   3.319 -0.2874  0.0163  1.5033
31154SOL    HW299426   2.375   6.053   3.430  2.1574  0.9146 -0.7688
31155SOL     OW99427   4.608   2.271   9.698 -0.2176 -0.2010 -0.1256
31155SOL    HW199428   4.677   2.204   9.691 -0.5247 -0.5933  0.5681
31155SOL    HW299429   4.561   2.250   9.778 -1.0455  0.1725 -0.4959
31156SOL     OW99430   8.866  10.681   0.998 -0.0957 -0.7760  0.0296
31156SOL    HW199431   8.939  10.627   1.030 -0.3080 -1.1530 -0.1222
31156SOL    HW299432   8.805  10.619   0.960 -0.0052 -0.3573 -0.8145
31157SOL     OW99433  12.371   5.845   0.491  0.5970  0.0148  0.2771
31157SOL    HW199434  12.385   5.922   0.435 -0.1301 -0.3435 -0.4230
31157SOL    HW299435  12.438   5.853   0.559  1.0693  0.8311 -0.2530
31158SOL     OW99436  10.802   5.720   0.348  0.2574  0.0357 -0.8296
31158SOL    HW199437  10.835   5.808   0.333 -0.1081 -0.0869 -2.5695
31158SOL    HW299438  10.722   5.715   0.295 -2.8981  0.4420  3.3855
31159SOL     OW99439  10.221   5.281   9.852  0.5067  0.6417  0.0175
31159SOL    HW199440  10.233   5.375   9.843  0.9616  0.4825 -1.1928
31159SOL    HW299441  10.132   5.265   9.820 -0.0027  0.7838  1.2958
31160SOL     OW99442  11.049  12.368   2.401 -0.2131 -0.1089 -0.6369
31160SOL    HW199443  11.077  12.277   2.393  0.1065 -0.1919  1.0372
31160SOL    HW299444  10.958  12.369   2.371 -1.0992 -1.5412  1.7523
31161SOL     OW99445   5.443  11.811   6.214 -0.2547 -0.0587  0.2708
31161SOL    HW199446   5.403  11.813   6.301  0.3043 -0.9654  0.5692
31161SOL    HW299447   5.381  11.856   6.157 -0.4707  0.8429  1.2010
31162SOL     OW99448   2.883   8.657  12.005 -0.3980  0.0026  0.1468
31162SOL    HW199449   2.816   8.592  11.983  0.2537 -0.4295 -0.6182
31162SOL    HW299450   2.834   8.730  12.042 -1.5192  0.4375 -2.0490
31163SOL     OW99451   9.616   3.467  11.944 -0.5526  0.0710  0.1588
31163SOL    HW199452   9.648   3.556  11.931  2.1845 -0.7854  0.5296
31163SOL    HW299453   9.600   3.434  11.855  1.4702 -0.0544 -0.2050
31164SOL     OW99454   0.115  11.968   3.930 -0.2547  0.2504 -0.5122
31164SOL    HW199455   0.023  11.967   3.954 -0.4647  0.1421 -1.3231
31164SOL    HW299456   0.147  12.053   3.961 -0.5555  0.1864 -0.0115
31165SOL     OW99457   4.736  10.444   2.483 -0.4085 -0.5375  0.3219
31165SOL    HW199458   4.694  10.374   2.532  0.5538 -1.3852 -0.0311
31165SOL    HW299459   4.823  10.454   2.523 -0.7120  0.8354  0.7145
31166SOL     OW99460   2.712  12.297   8.747  0.1908  0.0832  0.2636
31166SOL    HW199461   2.674  12.297   8.659  2.1921  0.1238 -0.6518
31166SOL    HW299462   2.665  12.366   8.793 -1.2127 -0.2439 -0.5996
31167SOL     OW99463   6.224   9.922   9.945 -0.3113 -0.6028  0.0133
31167SOL    HW199464   6.172   9.956   9.872  0.3502 -0.0582 -0.2073
31167SOL    HW299465   6.244   9.999   9.998 -1.6091 -1.1179  1.3158
31168SOL     OW99466   8.803   3.415   3.347  0.0723  0.5326  0.0972
31168SOL    HW199467   8.826   3.322   3.343  0.0067  0.5041  0.3615
31168SOL    HW299468   8.746   3.429   3.271 -1.0247  0.0427  0.7959
31169SOL     OW99469  11.193   0.902   0.838  0.3264 -0.0364 -0.3646
31169SOL    HW199470  11.238   0.835   0.891  0.7475  0.0935 -0.5597
31169SOL    HW299471  11.248   0.914   0.761 -1.0217 -1.3208 -1.6101
31170SOL     OW99472  10.128  11.422   3.866  0.2193  0.1941 -0.2351
31170SOL    HW199473  10.111  11.495   3.806 -0.5287 -0.5689 -0.9814
31170SOL    HW299474  10.054  11.423   3.926  0.2374  0.0765 -0.2114
31171SOL     OW99475   2.047  10.686  10.680  0.0650  0.7207  0.1570
31171SOL    HW199476   2.116  10.662  10.742 -0.6655  0.1618  0.7816
31171SOL    HW299477   1.983  10.615  10.686  0.4230  0.1669 -1.9732
31172SOL     OW99478   8.771  10.624   8.726  0.2345  0.0572 -0.4312
31172SOL    HW199479   8.864  10.643   8.724  0.0605  0.9617 -0.1786
31172SOL    HW299480   8.728  10.709   8.732 -0.6342 -0.3076 -1.0931
31173SOL     OW99481  10.717  10.134   8.277  0.4959  0.7952  0.0368
31173SOL    HW199482  10.681  10.144   8.365 -0.2270  0.8387 -0.2556
31173SOL    HW299483  10.741  10.041   8.272 -0.3121  0.5814 -0.0283
31174SOL     OW99484  12.134   0.533   9.437 -0.1711  0.4959  0.1194
31174SOL    HW199485  12.058   0.520   9.493  0.6170 -2.8882  0.5956
31174SOL    HW299486  12.199   0.575   9.493 -0.5655  0.3271  0.7057
31175SOL     OW99487   7.406   0.931   6.774  0.4508 -0.2238 -0.4787
31175SOL    HW199488   7.461   1.008   6.763 -1.0154  0.8812 -0.4393
31175SOL    HW299489   7.422   0.902   6.864 -1.5252  2.2094  0.7977
31176SOL     OW99490   5.231   5.889   2.779  0.2582  0.1763 -0.2934
31176SOL    HW199491   5.173   5.836   2.834 -0.4608  2.1969  0.9895
31176SOL    HW299492   5.208   5.866   2.689  0.0240 -1.6929  0.2102
31177SOL     OW99493  11.134   1.709   6.556 -0.2199  0.3091  0.2809
31177SOL    HW199494  11.106   1.793   6.518  2.0898  1.1397  0.3062
31177SOL    HW299495  11.161   1.730   6.645  1.5134 -0.2030 -0.0955
31178SOL     OW99496   6.220   6.991   3.622 -0.1015  0.5997 -0.1992
31178SOL    HW199497   6.212   7.012   3.529  0.2009  0.2855 -0.2964
31178SOL    HW299498   6.135   7.016   3.659 -0.2181  0.7404 -0.5548
31179SOL     OW99499   1.211   2.441   8.015  0.2915 -0.6059  0.4021
31179SOL    HW199500   1.219   2.346   8.004  0.2955 -0.5650  0.0485
31179SOL    HW299501   1.119   2.459   7.998 -0.0111 -0.7080  1.7430
31180SOL     OW99502   1.951   9.577   2.163  0.3955  0.0208 -0.1500
31180SOL    HW199503   1.879   9.638   2.149 -0.3794 -0.4007  1.7637
31180SOL    HW299504   2.024   9.632   2.193 -0.2490  0.0631  1.4119
31181SOL     OW99505   9.093   7.129  11.074 -0.2659 -0.2264  0.2588
31181SOL    HW199506   9.066   7.220  11.085 -1.1787 -0.7570  3.1289
31181SOL    HW299507   9.155   7.113  11.146 -0.9201 -2.1445  0.4561
31182SOL     OW99508   1.912   1.043  10.425 -0.2601  0.1707 -0.9317
31182SOL    HW199509   2.005   1.039  10.446 -0.7902  0.3456  1.9561
31182SOL    HW299510   1.887   0.953  10.407  0.2446 -0.0889 -0.3633
31183SOL     OW99511   1.340   2.655  11.521 -0.1577  0.4540  0.2632
31183SOL    HW199512   1.389   2.736  11.506  0.1947  0.2798  0.4724
31183SOL    HW299513   1.278   2.678  11.590  1.6225 -0.1052  2.1588
31184SOL     OW99514   6.709   4.950   4.778 -0.7257 -0.0305  0.3209
31184SOL    HW199515   6.653   4.941   4.701  2.5770 -0.4746 -2.2540
31184SOL    HW299516   6.730   5.044   4.780  1.8103 -0.4740 -1.4875
31185SOL     OW99517  10.491   3.788  10.976  0.1627  0.4037 -0.5783
31185SOL    HW199518  10.548   3.759  11.048  2.6913 -1.0946 -2.9819
31185SOL    HW299519  10.413   3.734  10.985  2.3851 -3.3646 -1.5509
31186SOL     OW99520   1.600  11.493   6.997  0.1705 -0.0558 -0.0532
31186SOL    HW199521   1.525  11.551   7.012  0.1518 -0.4171  1.3704
31186SOL    HW299522   1.584  11.418   7.054  0.6663 -1.0461 -1.1731
31187SOL     OW99523  10.885   1.064   5.463 -0.3414  0.0076  0.3724
31187SOL    HW199524  10.856   1.073   5.372  2.0681 -0.8940 -0.5584
31187SOL    HW299525  10.911   1.152   5.489 -0.9768  0.2594  0.1730
31188SOL     OW99526   4.647   2.319   6.968  0.3107 -0.3278 -0.0865
31188SOL    HW199527   4.618   2.365   6.889  1.2644  1.6375  0.6335
31188SOL    HW299528   4.743   2.316   6.959  0.3929 -0.4359  0.8174
31189SOL     OW99529  11.492  11.895   9.160  0.4276 -0.4482  0.0783
31189SOL    HW199530  11.511  11.988   9.152  0.6440 -0.3950  1.0465
31189SOL    HW299531  11.560  11.852   9.107  1.1856 -0.1063  0.7474
31190SOL     OW99532  10.751   4.704  11.938  0.3972 -0.1365 -0.0485
31190SOL    HW199533  10.829   4.701  11.994 -0.6721  0.4964  1.5697
31190SOL    HW299534  10.685   4.749  11.991 -1.1984 -0.9735 -1.2013
31191SOL     OW99535  11.319   0.426   1.489  0.6524 -0.2155  0.3554
31191SOL    HW199536  11.274   0.341   1.484  0.6670 -0.1830 -0.3134
31191SOL    HW299537  11.266   0.477   1.550  0.0381 -0.3365 -0.0696
31192SOL     OW99538  11.818  11.602  10.887 -0.3609 -0.7533  0.0335
31192SOL    HW199539  11.722  11.594  10.893 -0.7569  2.6628  0.7056
31192SOL    HW299540  11.851  11.542  10.954 -2.2163 -0.1449  1.6174
31193SOL     OW99541   7.248   1.977   8.853  0.4901  0.1070 -0.0959
31193SOL    HW199542   7.243   1.953   8.761 -0.4752 -1.0612  0.2330
31193SOL    HW299543   7.160   1.961   8.887  0.6976  0.9928  0.9240
31194SOL     OW99544   8.874  11.263   8.547 -0.0337 -0.6141 -0.2709
31194SOL    HW199545   8.892  11.188   8.491 -0.2007  0.4935 -1.8593
31194SOL    HW299546   8.780  11.256   8.567 -0.4002 -0.0114 -1.6978
31195SOL     OW99547   7.223  12.095   3.937 -0.7202  0.1412  0.1708
31195SOL    HW199548   7.149  12.058   3.985 -1.9542  2.0514 -0.1710
31195SOL    HW299549   7.279  12.020   3.918 -2.5482 -1.3612  0.4590
31196SOL     OW99550   9.836   4.864  10.336  0.0663  0.0121 -0.8819
31196SOL    HW199551   9.911   4.913  10.370 -0.2308  0.8717 -1.4452
31196SOL    HW299552   9.845   4.777  10.375  1.3782  0.0909 -0.9798
31197SOL     OW99553   8.302  10.893   0.200 -0.0762 -0.3017  0.0750
31197SOL    HW199554   8.231  10.877   0.263 -0.0201  0.2881  0.2906
31197SOL    HW299555   8.285  10.980   0.165  0.5146 -0.1732  0.0913
31198SOL     OW99556   8.420   7.957   8.739  0.2279  0.7175  0.2180
31198SOL    HW199557   8.348   7.940   8.678  0.0230  1.2987  0.2848
31198SOL    HW299558   8.477   8.017   8.692  1.0672 -0.3187 -0.1185
31199SOL     OW99559   5.365   1.685   4.666 -0.2986 -0.3586 -0.3612
31199SOL    HW199560   5.323   1.602   4.648 -0.8030  0.1423 -1.5769
31199SOL    HW299561   5.459   1.664   4.668 -0.3126 -0.7121 -2.1835
31200SOL     OW99562   2.498  10.092   9.757  0.0697  0.0851  0.2312
31200SOL    HW199563   2.501  10.052   9.844  1.0432 -0.2607  0.0463
31200SOL    HW299564   2.528  10.182   9.771  0.3002  0.0070  0.2441
31201SOL     OW99565   3.903   4.447  11.153 -0.4388 -0.3758 -0.6395
31201SOL    HW199566   3.816   4.451  11.192  0.3127 -0.7544  1.1828
31201SOL    HW299567   3.941   4.366  11.188  0.8891  0.1364 -0.8539
31202SOL     OW99568   6.059   4.298   2.343  1.0370  0.3915 -0.1415
31202SOL    HW199569   5.976   4.340   2.368  1.3172  0.7268  0.2371
31202SOL    HW299570   6.068   4.224   2.403  1.0673  0.4239 -0.1057
31203SOL     OW99571   3.836   5.993   0.403  0.1540 -0.0898 -0.0504
31203SOL    HW199572   3.747   6.024   0.384 -0.0489 -0.6269  0.0081
31203SOL    HW299573   3.824   5.905   0.439  0.6564  0.2281  0.9034
31204SOL     OW99574  10.013   8.046   6.407  0.4623  0.5868  0.2755
31204SOL    HW199575  10.064   8.101   6.347  0.7992  1.3025  1.1992
31204SOL    HW299576  10.071   8.030   6.481 -0.6771  1.5780  1.4327
31205SOL     OW99577   1.745   0.081   1.868 -0.0969  0.0092 -0.0078
31205SOL    HW199578   1.823   0.068   1.813  0.3997  2.1902  0.1017
31205SOL    HW299579   1.760   0.026   1.945  0.7076 -0.5927 -0.5776
31206SOL     OW99580   2.761   7.224  11.413  0.1721  0.2561 -0.1858
31206SOL    HW199581   2.796   7.135  11.402  1.3168  0.6825 -0.0918
31206SOL    HW299582   2.810   7.260  11.487  1.6194  1.8795 -1.8468
31207SOL     OW99583   7.309  12.022   3.017  0.0239  0.1404  0.3145
31207SOL    HW199584   7.395  12.032   3.059 -0.6747 -2.1936  2.5615
31207SOL    HW299585   7.324  11.960   2.947  0.5445  1.4702 -0.8015
31208SOL     OW99586   8.903   5.488   6.958  0.1903  0.0145  0.1131
31208SOL    HW199587   8.957   5.430   6.904  0.7122 -0.5012  1.1737
31208SOL    HW299588   8.954   5.502   7.037  0.4451  2.6033 -0.4255
31209SOL     OW99589   7.762   6.154  10.345  0.4724  0.2063 -0.8822
31209SOL    HW199590   7.761   6.058  10.351  1.0165  0.1459 -1.6460
31209SOL    HW299591   7.840   6.180  10.394 -1.1093  0.4616  1.6420
31210SOL     OW99592  10.230   6.904   7.740 -0.3828  0.4466  0.5623
31210SOL    HW199593  10.148   6.889   7.786 -1.5982  1.8498 -1.0398
31210SOL    HW299594  10.210   6.885   7.648  1.4598 -0.4446  0.2947
31211SOL     OW99595  10.587   1.085   7.727  0.0578 -0.6331 -0.2561
31211SOL    HW199596  10.560   1.085   7.635 -1.5681 -2.8184  0.1564
31211SOL    HW299597  10.668   1.137   7.728  0.7929 -1.5412 -3.1255
31212SOL     OW99598   7.879  10.231   5.982  0.4663 -0.4841 -0.2314
31212SOL    HW199599   7.952  10.219   5.921  0.5369 -0.1944 -0.2073
31212SOL    HW299600   7.836  10.311   5.952  0.5084 -0.3349  0.1052
31213SOL     OW99601   5.596   7.536   9.802 -0.2361  0.3648  0.2563
31213SOL    HW199602   5.531   7.509   9.867  0.2482 -1.1711  0.1301
31213SOL    HW299603   5.550   7.599   9.747 -2.4312 -2.3688 -1.2996
31214SOL     OW99604  12.144   6.694  12.446  0.3126 -0.4986 -0.4336
31214SOL    HW199605  12.052   6.709  12.423  0.2069  4.5550  1.8688
31214SOL    HW299606  12.146   6.698  12.541  2.9040 -0.3859 -0.4221
31215SOL     OW99607   5.139   8.024   4.790  0.2006  0.2053 -0.0864
31215SOL    HW199608   5.161   7.940   4.749  0.6357  0.2018  0.1436
31215SOL    HW299609   5.141   8.087   4.719 -0.2049  0.0100 -0.2746
31216SOL     OW99610   8.622  10.212  11.628  0.2292 -0.0879 -0.1724
31216SOL    HW199611   8.569  10.133  11.619  2.2227 -1.3254 -2.2982
31216SOL    HW299612   8.606  10.261  11.548  2.1513 -0.4953 -0.8791
31217SOL     OW99613   5.038   3.761   4.065 -0.1491 -0.0588  0.4552
31217SOL    HW199614   5.031   3.853   4.089 -1.1380  0.2792 -1.0222
31217SOL    HW299615   5.022   3.714   4.147  1.0114  1.0481  1.3772
31218SOL     OW99616  11.369  10.220   2.961 -0.0961 -0.3275  0.0704
31218SOL    HW199617  11.348  10.129   2.977 -0.2048 -0.1169  1.1470
31218SOL    HW299618  11.413  10.219   2.875 -1.6879 -1.1389 -0.7895
31219SOL     OW99619  12.053   4.072   2.620  0.0219 -0.6200 -0.3087
31219SOL    HW199620  11.966   4.031   2.623  0.1861 -0.9390  0.5593
31219SOL    HW299621  12.083   4.069   2.711 -1.2985  4.2913  0.6160
31220SOL     OW99622   4.597  11.390  12.279 -0.4800  0.3332 -0.3922
31220SOL    HW199623   4.597  11.297  12.301 -2.7282  0.0153 -1.4542
31220SOL    HW299624   4.582  11.392  12.185  0.1650  1.7878 -0.4924
31221SOL     OW99625   8.367   1.535   4.076  0.4979 -0.3258  0.9157
31221SOL    HW199626   8.353   1.448   4.038  0.4435 -0.8654  2.1402
31221SOL    HW299627   8.304   1.541   4.147 -0.1816  1.1266  0.2433
31222SOL     OW99628  12.267  10.009   8.969 -0.2854  0.1160  0.4761
31222SOL    HW199629  12.328  10.082   8.975  1.6858 -1.5156  1.5360
31222SOL    HW299630  12.205  10.023   9.041 -0.1737  0.9109  0.4282
31223SOL     OW99631  11.471   4.574   8.847  0.2794  0.6695 -0.0064
31223SOL    HW199632  11.390   4.524   8.840  1.6416 -1.6898  0.0132
31223SOL    HW299633  11.467   4.638   8.776 -1.5484  0.5558 -0.0385
31224SOL     OW99634  11.624   6.978  11.025 -0.0834 -0.1003  0.2678
31224SOL    HW199635  11.638   6.898  10.973  0.9436  0.1715  0.1100
31224SOL    HW299636  11.536   6.967  11.063 -0.2955 -0.9131 -0.4388
31225SOL     OW99637   3.087  11.810  12.260 -0.3076 -0.2907  0.0252
31225SOL    HW199638   3.014  11.871  12.270  0.8269  1.1770 -0.3949
31225SOL    HW299639   3.058  11.731  12.306 -1.1653  1.1084  2.0460
31226SOL     OW99640   4.734   3.426  11.064  0.4902  0.3227  0.1799
31226SOL    HW199641   4.764   3.419  10.973  0.4921  0.4818  0.1667
31226SOL    HW299642   4.639   3.425  11.058  0.4747  1.2516  0.0933
31227SOL     OW99643   5.447   1.156   5.202  0.4179  0.2038 -0.6330
31227SOL    HW199644   5.444   1.112   5.287 -0.6129  1.7019  0.1574
31227SOL    HW299645   5.540   1.166   5.183  0.6842 -1.8972 -0.6590
31228SOL     OW99646  11.154   6.837   7.650 -0.3436  0.2692  0.2087
31228SOL    HW199647  11.170   6.904   7.716 -0.0752 -0.4918  0.9447
31228SOL    HW299648  11.061   6.818   7.656 -0.4642  0.7346 -0.1632
31229SOL     OW99649   1.432   0.718   6.859  0.3604  0.0021  0.4477
31229SOL    HW199650   1.410   0.664   6.935 -0.6409  1.9318  1.6159
31229SOL    HW299651   1.455   0.803   6.896  1.7728  0.4590 -1.3245
31230SOL     OW99652   0.066   7.414   0.340  0.4994 -0.0077  0.1211
31230SOL    HW199653   0.014   7.479   0.387 -1.2364 -0.8133 -0.5855
31230SOL    HW299654   0.153   7.421   0.378  0.4699  2.9103 -0.1302
31231SOL     OW99655   4.054   1.138   6.457 -0.2284  0.0582 -0.5676
31231SOL    HW199656   4.031   1.219   6.503 -0.9303  0.8095 -2.1352
31231SOL    HW299657   4.061   1.072   6.526  0.9589  1.5545  0.8218
31232SOL     OW99658   9.651   4.754  12.314  0.2377  0.0767 -0.4072
31232SOL    HW199659   9.618   4.664  12.321  0.7856 -0.3788 -2.8902
31232SOL    HW299660   9.730   4.755  12.369 -0.0193 -0.8095  0.0033
31233SOL     OW99661  10.388   3.072   9.681  0.3038 -0.5975  0.5439
31233SOL    HW199662  10.383   3.078   9.586  1.1173 -0.8252  0.4824
31233SOL    HW299663  10.367   2.981   9.701  1.0440 -0.7802  0.5098
31234SOL     OW99664   9.529   1.420   2.999  0.4141 -0.1668  0.1636
31234SOL    HW199665   9.604   1.479   3.007  0.6225 -0.4968  0.7036
31234SOL    HW299666   9.567   1.333   2.999  0.1136 -0.3027 -0.7321
31235SOL     OW99667  10.182   2.927   0.746 -0.0841 -0.3514  0.0813
31235SOL    HW199668  10.160   3.020   0.742  0.4951 -0.2446 -2.5609
31235SOL    HW299669  10.131   2.887   0.676  1.6235 -1.5563 -0.5324
31236SOL     OW99670   6.165   6.082   4.123 -0.4242  0.1964  0.5457
31236SOL    HW199671   6.098   6.142   4.092 -1.6567 -0.8517  1.1046
31236SOL    HW299672   6.167   6.012   4.058  0.0161  0.1366  0.6164
31237SOL     OW99673   9.483   7.909  10.101 -0.1956  0.2811  0.1755
31237SOL    HW199674   9.395   7.884  10.074  0.5877 -1.1545 -1.2035
31237SOL    HW299675   9.477   7.916  10.196 -1.6860 -0.2831  0.1530
31238SOL     OW99676  10.477   9.701   1.120 -0.2313 -0.0840 -0.4993
31238SOL    HW199677  10.509   9.716   1.032 -0.9676 -0.8777 -0.9193
31238SOL    HW299678  10.416   9.628   1.112 -0.3351 -0.1544  0.6617
31239SOL     OW99679   7.002   5.389   0.491  0.3113 -0.0564 -0.1275
31239SOL    HW199680   6.958   5.451   0.549 -0.5600  0.9607 -1.7827
31239SOL    HW299681   7.079   5.436   0.459 -0.1076  0.0277 -1.0400
31240SOL     OW99682   7.072   2.367  10.271 -0.1549  0.0419 -0.4924
31240SOL    HW199683   7.109   2.280  10.257  0.6888  0.3036  0.0880
31240SOL    HW299684   7.145   2.427  10.257 -0.7147  0.6660 -0.8268
31241SOL     OW99685  11.708   2.463   9.053  0.0163  0.0575 -0.5410
31241SOL    HW199686  11.756   2.472   8.971 -0.4391  0.7458 -0.7488
31241SOL    HW299687  11.616   2.469   9.027 -0.1640 -0.7221 -0.0940
31242SOL     OW99688   7.361   4.822   2.944  0.3470  0.7616  0.5843
31242SOL    HW199689   7.298   4.883   2.983  1.7468  1.2480  2.2113
31242SOL    HW299690   7.345   4.739   2.989  1.0471  0.9720  1.2502
31243SOL     OW99691   7.293   0.222   4.458  0.6077  0.1692 -0.1200
31243SOL    HW199692   7.244   0.140   4.472 -0.3658  0.3924 -1.8269
31243SOL    HW299693   7.225   0.286   4.436  1.5392  0.8698 -1.0350
31244SOL     OW99694   8.819  10.347   1.980  0.4103 -0.1184 -0.5197
31244SOL    HW199695   8.829  10.269   2.035  0.1815 -0.8234 -1.4563
31244SOL    HW299696   8.905  10.358   1.939  0.2479 -0.3005 -0.9194
31245SOL     OW99697   4.034   4.706   9.092  0.9734  0.0581  0.1597
31245SOL    HW199698   4.088   4.752   9.028 -0.9261  0.2813 -1.3637
31245SOL    HW299699   4.075   4.620   9.100  2.2292  0.6130 -0.0243
31246SOL     OW99700   9.478   8.391  10.241 -0.0094 -0.3699  0.4712
31246SOL    HW199701   9.416   8.355  10.178  0.5798  1.1118 -1.0560
31246SOL    HW299702   9.423   8.435  10.306 -0.6149 -1.1684  0.5122
31247SOL     OW99703   8.798   1.550   7.188  0.1082  0.1342 -0.0293
31247SOL    HW199704   8.842   1.609   7.249 -0.4128 -1.1266  1.6300
31247SOL    HW299705   8.852   1.553   7.109  1.7842  0.4967  1.0732
31248SOL     OW99706   0.177   5.837   3.774 -0.0226 -0.2990 -0.5995
31248SOL    HW199707   0.105   5.820   3.835  1.1681  1.1773  1.3225
31248SOL    HW299708   0.150   5.793   3.694 -1.7443 -2.2103  0.9054
31249SOL     OW99709   6.379   3.811   2.486 -0.9655 -0.4163  0.2849
31249SOL    HW199710   6.354   3.733   2.535 -1.2129  0.0031  0.8399
31249SOL    HW299711   6.422   3.867   2.550 -0.7214 -0.1231 -0.1273
31250SOL     OW99712   8.802   3.065   8.374  0.0427  0.0616 -0.6479
31250SOL    HW199713   8.865   3.117   8.324  2.5635 -0.9384  1.2622
31250SOL    HW299714   8.739   3.129   8.407  1.1321  1.4053 -1.0824
31251SOL     OW99715  11.218   1.537  10.725  0.4043 -0.0008 -0.5110
31251SOL    HW199716  11.242   1.471  10.790 -1.6813  2.2863  2.8809
31251SOL    HW299717  11.141   1.501  10.682  0.6052 -0.7036 -0.2944
31252SOL     OW99718  10.259  11.333   4.633 -0.1277  0.5669 -0.3869
31252SOL    HW199719  10.184  11.273   4.634  0.4900 -0.2789 -1.9126
31252SOL    HW299720  10.236  11.400   4.698 -0.9568 -1.1557  1.2015
31253SOL     OW99721   1.485   9.628  11.068 -0.0234 -0.3216 -0.1824
31253SOL    HW199722   1.493   9.658  10.977 -0.1881 -1.4937 -0.6000
31253SOL    HW299723   1.469   9.708  11.118 -1.0548  0.2185 -1.3322
31254SOL     OW99724   5.450   1.862   1.971 -0.0051  0.0717 -0.2844
31254SOL    HW199725   5.467   1.782   2.021 -2.0386 -0.1193  0.1771
31254SOL    HW299726   5.364   1.890   2.000  0.4416  2.1515 -0.8536
31255SOL     OW99727  10.871   6.322   2.431 -0.0381 -0.5961 -0.0378
31255SOL    HW199728  10.959   6.288   2.448 -0.6920 -0.9183  3.4799
31255SOL    HW299729  10.845   6.363   2.514 -3.2276 -0.5552 -0.9455
31256SOL     OW99730   1.961  12.289   5.006 -0.1328 -0.3334 -0.5889
31256SOL    HW199731   2.002  12.372   5.031 -2.0534  0.1121  1.3778
31256SOL    HW299732   1.908  12.311   4.930 -1.5867  0.6220  0.6284
31257SOL     OW99733   9.530   6.506   7.271 -0.0756 -0.2031 -0.2558
31257SOL    HW199734   9.541   6.515   7.366  0.1180 -0.0165 -0.2971
31257SOL    HW299735   9.469   6.432   7.262 -0.7401  0.2914  0.0386
31258SOL     OW99736   2.762   1.556  11.030  0.0339  0.5687  0.4555
31258SOL    HW199737   2.783   1.644  11.001 -0.5034 -0.6574 -4.6882
31258SOL    HW299738   2.667   1.548  11.015  0.0992 -0.9309  0.6786
31259SOL     OW99739   6.142  12.001   6.684  0.0136 -0.1478 -0.3575
31259SOL    HW199740   6.050  11.993   6.659  0.2541  1.2938 -1.8400
31259SOL    HW299741   6.146  12.081   6.737  0.3122 -0.6049  0.3315
31260SOL     OW99742   8.725   3.260   6.492  0.5701 -0.5687 -0.6908
31260SOL    HW199743   8.659   3.190   6.499  1.2102 -1.0798  0.3237
31260SOL    HW299744   8.678   3.339   6.518  0.0252 -0.7094 -1.1965
31261SOL     OW99745  10.368   1.387   7.625  0.5436  0.4729  0.0708
31261SOL    HW199746  10.337   1.364   7.537  1.4688  1.2795 -0.4837
31261SOL    HW299747  10.422   1.312   7.651  2.0965  1.1491 -1.0032
31262SOL     OW99748   3.025   9.950   8.762  0.7048 -0.3784 -0.8696
31262SOL    HW199749   2.944   9.900   8.772 -0.6347  1.7371 -0.5782
31262SOL    HW299750   3.066   9.913   8.684 -2.2489  0.6232 -3.0817
31263SOL     OW99751   0.139   1.794   9.521 -0.4202  0.0363  0.0650
31263SOL    HW199752   0.059   1.792   9.470 -0.2551  2.9666 -0.4732
31263SOL    HW299753   0.208   1.771   9.459 -0.4783  1.2430 -0.4725
31264SOL     OW99754   3.043   0.207   2.064 -0.1018 -0.3003  0.2642
31264SOL    HW199755   2.989   0.232   2.138 -0.1503 -3.2810  1.3867
31264SOL    HW299756   3.002   0.126   2.031  0.0799  0.7534 -2.8794
31265SOL     OW99757   7.414   4.300   2.638  0.1652  0.0072  0.2018
31265SOL    HW199758   7.381   4.233   2.697  1.9547  0.1366  1.4128
31265SOL    HW299759   7.430   4.376   2.694  2.4710 -0.0569 -0.2834
31266SOL     OW99760   2.116   1.397   6.809 -0.2935 -0.9746  0.5935
31266SOL    HW199761   2.159   1.438   6.884 -0.9347  0.6082  0.1256
31266SOL    HW299762   2.023   1.411   6.823 -0.3778  2.1289 -1.9130
31267SOL     OW99763   2.628   7.519   5.191 -0.0627 -0.2079 -0.1023
31267SOL    HW199764   2.718   7.507   5.221 -1.2319 -1.5217  3.4440
31267SOL    HW299765   2.622   7.613   5.171  2.0821 -0.1132 -0.5571
31268SOL     OW99766   7.064   7.210   8.272 -0.2061 -0.2009  0.0662
31268SOL    HW199767   6.985   7.240   8.227  0.3681  0.3468 -0.5982
31268SOL    HW299768   7.031   7.158   8.346 -1.2222  1.4227  0.8092
31269SOL     OW99769   2.568   3.531   7.484  0.4437 -0.2359 -0.3887
31269SOL    HW199770   2.604   3.479   7.556  0.2944  0.6232  0.3229
31269SOL    HW299771   2.644   3.575   7.446  0.4315 -0.1531 -0.3168
31270SOL     OW99772   3.827   2.444   7.195 -0.2169  0.0409  0.4607
31270SOL    HW199773   3.787   2.402   7.118 -0.9788  1.0176  0.3072
31270SOL    HW299774   3.781   2.405   7.269 -0.2365 -0.1101  0.3714
31271SOL     OW99775   5.823   8.216   0.147  0.2081  0.1658  0.5259
31271SOL    HW199776   5.853   8.200   0.236  1.3463 -1.5059 -0.1147
31271SOL    HW299777   5.904   8.232   0.097 -0.5020  2.9046  0.0720
31272SOL     OW99778  10.261   7.012  11.576  0.2126  0.2752  0.0474
31272SOL    HW199779  10.320   6.964  11.517  0.0381  0.8789 -0.6372
31272SOL    HW299780  10.241   6.950  11.646 -0.9426 -1.0744 -1.4101
31273SOL     OW99781   4.126   9.581  12.023 -0.2967 -0.0345  0.3990
31273SOL    HW199782   4.107   9.617  12.110  0.7787  1.5064  0.0355
31273SOL    HW299783   4.222   9.584  12.016 -0.3703  2.9844 -1.9975
31274SOL     OW99784   2.084  12.460   2.303 -0.2078  0.3827 -0.4450
31274SOL    HW199785   2.083  12.421   2.391  0.0195  0.2875 -0.4841
31274SOL    HW299786   2.022  12.532   2.308 -0.6512 -0.0015 -0.3775
31275SOL     OW99787   9.533   6.753  11.064  0.3898 -0.2156  0.1727
31275SOL    HW199788   9.494   6.666  11.076  1.6444 -0.7208  0.7436
31275SOL    HW299789   9.464   6.805  11.022 -0.5218 -1.3646  0.2113
31276SOL     OW99790   2.538  11.888   4.862 -0.1346 -0.0354  0.0709
31276SOL    HW199791   2.590  11.880   4.782 -0.3182 -0.4373 -0.0137
31276SOL    HW299792   2.548  11.802   4.905 -0.7439 -0.1248  0.0399
31277SOL     OW99793   1.062  10.612   8.609 -0.6710  0.0327  0.1674
31277SOL    HW199794   1.069  10.704   8.582 -1.0141 -0.1468 -0.5665
31277SOL    HW299795   0.968  10.597   8.616 -0.6031 -0.1603  0.6642
31278SOL     OW99796   1.587   3.034   3.132  0.2222 -0.3596 -0.2610
31278SOL    HW199797   1.504   3.078   3.149  0.0614 -1.1707  1.1753
31278SOL    HW299798   1.629   3.087   3.064 -0.0447  1.8830  1.2187
31279SOL     OW99799  10.583  11.759   7.829 -0.0897 -0.2280 -0.1997
31279SOL    HW199800  10.576  11.696   7.901 -0.7278  1.6754  1.5225
31279SOL    HW299801  10.512  11.735   7.770 -1.4621 -0.1369  1.3200
31280SOL     OW99802  11.651   2.910   4.487 -0.5332  0.3371  0.0841
31280SOL    HW199803  11.649   2.959   4.405 -0.5183  1.7393  0.8921
31280SOL    HW299804  11.594   2.835   4.471  0.4675 -0.1094 -1.6075
31281SOL     OW99805   7.950   6.381  10.601 -0.4779 -0.3013 -0.5403
31281SOL    HW199806   7.900   6.449  10.646 -1.1662 -1.3343  0.3383
31281SOL    HW299807   8.022   6.361  10.660  0.9994  1.1437 -1.7848
31282SOL     OW99808   3.770   1.340  10.067  0.4551 -0.1481 -0.0800
31282SOL    HW199809   3.799   1.339   9.976 -3.1113 -0.8705 -1.3855
31282SOL    HW299810   3.794   1.254  10.101 -0.5492 -0.9208 -1.2586
31283SOL     OW99811  11.481  11.655   5.401  0.3601 -0.4743  0.0651
31283SOL    HW199812  11.506  11.624   5.315  1.5383  1.1823 -0.2409
31283SOL    HW299813  11.450  11.745   5.387 -0.2476 -0.4624  1.2575
31284SOL     OW99814   9.630   3.197   6.695  0.3918  0.2837  0.3258
31284SOL    HW199815   9.629   3.217   6.602  1.4600 -1.1186 -0.0180
31284SOL    HW299816   9.573   3.120   6.704 -1.1027  1.4259  1.1259
31285SOL     OW99817   1.585  10.662   5.600 -0.0726 -0.0197  0.0967
31285SOL    HW199818   1.582  10.738   5.542  1.8357 -1.0381 -1.4788
31285SOL    HW299819   1.494  10.635   5.610 -0.6057  1.3406 -0.8618
31286SOL     OW99820   0.598  11.481   1.772 -0.0366  0.4666  0.2685
31286SOL    HW199821   0.656  11.550   1.804 -0.8843  0.0558  2.9084
31286SOL    HW299822   0.651  11.401   1.778  0.2903  0.5779 -0.8856
31287SOL     OW99823   0.103   5.627   8.299  0.6453  0.0829 -0.0643
31287SOL    HW199824   0.064   5.715   8.297  1.4672  0.5423  1.8192
31287SOL    HW299825   0.156   5.623   8.220 -0.9986  0.4758 -1.2470
31288SOL     OW99826   2.862  12.289   7.183 -0.5040  0.1545  0.8955
31288SOL    HW199827   2.937  12.284   7.242  0.0924  2.1589  0.3934
31288SOL    HW299828   2.823  12.202   7.186  0.0366 -0.0757  3.5124
31289SOL     OW99829   1.534   3.962   2.904 -0.1667 -0.7172 -0.6397
31289SOL    HW199830   1.564   3.957   2.813  1.3362  0.7042 -0.2651
31289SOL    HW299831   1.524   3.871   2.931 -0.6333 -1.1605 -2.2042
31290SOL     OW99832   1.419   2.173   0.840 -0.0583  0.2285  0.4032
31290SOL    HW199833   1.422   2.228   0.761  1.8843 -0.7484 -0.2776
31290SOL    HW299834   1.350   2.110   0.822 -0.2082  0.5425 -0.1679
31291SOL     OW99835   2.670   3.576   7.048  0.1265  0.5722 -0.1594
31291SOL    HW199836   2.615   3.505   7.016  0.5947  0.3507 -0.4754
31291SOL    HW299837   2.610   3.630   7.100 -0.1322 -0.3022  0.4841
31292SOL     OW99838  12.431   6.880   0.561 -0.3429  0.1518  0.5114
31292SOL    HW199839  12.420   6.972   0.585 -2.9392  0.0988 -0.2148
31292SOL    HW299840  12.363   6.864   0.495  0.1372 -2.2583  0.5184
31293SOL     OW99841   7.122  10.199   1.931  0.4239  0.3786  0.3774
31293SOL    HW199842   7.080  10.126   1.977  0.6336 -0.5058 -0.7939
31293SOL    HW299843   7.214  10.195   1.959  0.3198  0.5497  0.7479
31294SOL     OW99844   7.619   8.307   6.497 -0.2114  0.0035 -0.3675
31294SOL    HW199845   7.700   8.297   6.448  0.0874 -0.0247  0.1304
31294SOL    HW299846   7.598   8.401   6.490  2.2018  1.0090  3.1015
31295SOL     OW99847  11.228   6.287   6.592 -0.3201 -0.3618 -0.2977
31295SOL    HW199848  11.256   6.258   6.505  2.5567 -0.7408  0.6522
31295SOL    HW299849  11.236   6.210   6.647 -2.0551 -0.1087  0.3661
31296SOL     OW99850  12.401   8.344   1.788  0.4023  0.2838  0.3944
31296SOL    HW199851  12.478   8.402   1.790  0.4496  0.2583 -0.3950
31296SOL    HW299852  12.395   8.309   1.877  1.3588  0.2187  0.4398
31297SOL     OW99853  11.112   9.491  11.890  0.8425  0.3225  0.0663
31297SOL    HW199854  11.136   9.401  11.868 -1.5192  0.0541 -1.7106
31297SOL    HW299855  11.183   9.544  11.853  0.9867 -0.6521 -1.0859
31298SOL     OW99856   5.303   1.792   9.805 -0.0185 -0.1646 -0.1461
31298SOL    HW199857   5.393   1.807   9.778 -0.2946 -0.1693 -1.0991
31298SOL    HW299858   5.277   1.712   9.760 -0.7300  0.2370 -0.4662
31299SOL     OW99859   6.317   0.235   0.714  0.0105  0.0038 -0.2076
31299SOL    HW199860   6.265   0.162   0.681 -0.8198  0.5458 -0.1203
31299SOL    HW299861   6.311   0.227   0.810 -0.7357  0.6283 -0.1918
31300SOL     OW99862   7.741   4.043   9.864  0.2315 -0.1054  0.5067
31300SOL    HW199863   7.815   4.081   9.912  0.1641  0.8811 -0.1458
31300SOL    HW299864   7.666   4.096   9.890  0.5096  1.7098 -2.0894
31301SOL     OW99865   0.304   6.094   3.776  0.0801  0.8056  0.3149
31301SOL    HW199866   0.270   6.147   3.848 -1.5022  1.2194 -0.6786
31301SOL    HW299867   0.260   6.010   3.786  2.3187 -0.2842  1.6805
31302SOL     OW99868  11.398   4.274   3.006  0.5245 -0.3640  0.2695
31302SOL    HW199869  11.491   4.268   2.984 -0.0337  2.4457 -3.8758
31302SOL    HW299870  11.380   4.367   3.010 -2.3234 -0.8195  0.0024
31303SOL     OW99871  10.587   5.617   3.237  0.0022 -0.1855 -0.1521
31303SOL    HW199872  10.504   5.572   3.254  0.0025 -0.6195 -1.2031
31303SOL    HW299873  10.637   5.607   3.318 -1.4793  1.2958  1.0218
31304SOL     OW99874  10.251  12.321   3.315 -0.2820 -0.8008 -0.7548
31304SOL    HW199875  10.223  12.381   3.384  1.0245  1.9691 -2.4409
31304SOL    HW299876  10.170  12.290   3.275 -1.0227  0.5971 -0.4036
31305SOL     OW99877  10.963   3.147   1.519 -0.5943  0.0953  0.2166
31305SOL    HW199878  10.885   3.185   1.479 -1.9973 -3.5470 -0.9739
31305SOL    HW299879  10.934   3.119   1.606  0.3247  1.3719  0.9691
31306SOL     OW99880   4.845   1.452   4.383  0.2792  0.3991 -0.1973
31306SOL    HW199881   4.802   1.464   4.298  2.1376 -0.0021 -1.2420
31306SOL    HW299882   4.919   1.513   4.382  0.9235 -0.3286  0.7087
31307SOL     OW99883   1.857   5.574   2.187  0.3052  0.1935  1.2936
31307SOL    HW199884   1.788   5.633   2.156  0.8730  1.0263  1.5653
31307SOL    HW299885   1.811   5.500   2.224 -0.4465  0.7383  1.4647
31308SOL     OW99886   2.916   3.744   5.351 -0.2080 -0.2526 -0.4749
31308SOL    HW199887   2.903   3.831   5.389  1.0510  0.2095 -1.0431
31308SOL    HW299888   2.920   3.685   5.426  1.8523  0.5834  0.1377
31309SOL     OW99889   1.255  12.135   4.021 -0.1983  0.1627 -0.2484
31309SOL    HW199890   1.209  12.094   3.948 -2.8285  1.8103  0.3498
31309SOL    HW299891   1.330  12.180   3.981  1.8213 -3.5310 -1.1216
31310SOL     OW99892   0.347  11.654  12.158 -0.0603  0.2441 -0.5209
31310SOL    HW199893   0.435  11.684  12.181 -0.2914 -0.0657  0.8176
31310SOL    HW299894   0.294  11.672  12.235 -0.9092 -0.7093 -0.8595
31311SOL     OW99895   9.474   1.802   1.997  0.0280  0.1727 -0.0210
31311SOL    HW199896   9.402   1.800   2.060  0.3527 -1.1986  0.3342
31311SOL    HW299897   9.432   1.819   1.913 -0.5185  1.0062  0.4102
31312SOL     OW99898   1.635   6.033  10.565 -0.3346  0.5798 -0.7573
31312SOL    HW199899   1.550   5.989  10.569  0.2249 -0.5195 -0.4600
31312SOL    HW299900   1.678   5.993  10.489  1.5815 -2.1183  1.5432
31313SOL     OW99901   3.273   3.605   3.909 -0.2345  0.0414  0.3975
31313SOL    HW199902   3.298   3.689   3.872 -1.4000 -0.2653 -1.2029
31313SOL    HW299903   3.209   3.627   3.977 -1.7101  0.4407 -1.0437
31314SOL     OW99904   2.985   3.010   9.031 -0.5147 -1.0401 -0.2675
31314SOL    HW199905   3.057   2.948   9.022  0.4872 -0.0753  0.7800
31314SOL    HW299906   2.991   3.041   9.122 -2.7005 -1.4594  0.0801
31315SOL     OW99907   1.943  11.220   8.410  0.2684 -0.1202  0.2198
31315SOL    HW199908   1.978  11.136   8.437  1.8044  0.1238 -0.8584
31315SOL    HW299909   1.960  11.224   8.315  0.0991  1.3169  0.2205
31316SOL     OW99910   9.362   0.912   0.092 -0.1824  0.1889  0.0979
31316SOL    HW199911   9.305   0.848   0.050 -1.2148  1.0100  0.2165
31316SOL    HW299912   9.443   0.864   0.110 -0.7109 -0.9050 -0.3681
31317SOL     OW99913   6.685  12.152   5.080  0.4803  0.1958  0.1640
31317SOL    HW199914   6.676  12.058   5.093  2.1669 -0.0759 -0.3756
31317SOL    HW299915   6.599  12.188   5.102 -0.0414 -1.4029  0.8664
31318SOL     OW99916   7.396   0.205   5.594 -0.0960 -0.4186  0.1939
31318SOL    HW199917   7.430   0.291   5.571 -0.2752 -0.1062  1.0844
31318SOL    HW299918   7.359   0.171   5.511 -0.2787  0.4684 -0.1001
31319SOL     OW99919   2.692   3.943   4.099 -0.8750 -0.2130  0.3317
31319SOL    HW199920   2.672   4.029   4.134  1.0945  1.4045 -2.1951
31319SOL    HW299921   2.718   3.891   4.175  1.3357  2.5110  1.5676
31320SOL     OW99922  11.213   1.839  10.234 -0.8219 -0.7169  0.4436
31320SOL    HW199923  11.162   1.765  10.200 -0.1771 -0.7111 -0.5575
31320SOL    HW299924  11.275   1.800  10.295  0.8196 -1.3060 -1.4948
31321SOL     OW99925  12.383   9.138   0.134 -0.0464  0.1997 -0.5970
31321SOL    HW199926  12.431   9.100   0.207  1.3586  1.8323 -0.6053
31321SOL    HW299927  12.311   9.186   0.174 -1.3125 -1.6532 -0.5391
31322SOL     OW99928  12.039   3.703  11.683  0.2685  0.3890  0.0059
31322SOL    HW199929  12.087   3.745  11.612  0.1209 -0.6779 -0.7515
31322SOL    HW299930  11.976   3.770  11.712 -0.0048  0.6763 -1.2004
31323SOL     OW99931   9.816   0.404   2.164  0.2448  0.1019  0.2292
31323SOL    HW199932   9.822   0.341   2.236 -0.4725 -0.2704 -0.0329
31323SOL    HW299933   9.738   0.456   2.184  0.6399  0.6915  0.2657
31324SOL     OW99934   3.648   2.694   4.153  0.0693 -0.0321 -0.2910
31324SOL    HW199935   3.743   2.701   4.151  0.1358 -0.9203 -1.4510
31324SOL    HW299936   3.620   2.754   4.222  1.5824 -1.0927  1.3257
31325SOL     OW99937  10.465   1.519   4.736 -0.0106 -0.6078 -0.3420
31325SOL    HW199938  10.418   1.463   4.798 -0.1836 -1.5623 -1.3219
31325SOL    HW299939  10.502   1.588   4.791  0.7144 -1.9912  0.9920
31326SOL     OW99940   2.857   5.118   2.764 -0.1508  0.1524 -0.5572
31326SOL    HW199941   2.791   5.051   2.780  0.3409 -0.1816  0.1280
31326SOL    HW299942   2.929   5.096   2.824 -0.7198  2.3240  1.0563
31327SOL     OW99943   1.825   2.285  10.160  0.7780 -0.4798  0.3573
31327SOL    HW199944   1.904   2.231  10.154  2.1801  1.2029  2.1682
31327SOL    HW299945   1.828   2.322  10.248 -0.4106  2.0209 -0.5647
31328SOL     OW99946   0.550  11.771   7.453 -0.6091 -0.0930  0.2159
31328SOL    HW199947   0.618  11.714   7.417 -0.8078 -0.1893 -0.0103
31328SOL    HW299948   0.539  11.840   7.388  0.0816  0.5655  0.7819
31329SOL     OW99949   4.370   1.719  11.749  0.1407  0.0405 -0.2956
31329SOL    HW199950   4.433   1.726  11.678  0.2143 -0.7830 -0.3294
31329SOL    HW299951   4.330   1.806  11.756  0.6927  0.3393 -0.8162
31330SOL     OW99952   0.983   5.528   1.317 -0.1103  0.0136  0.2052
31330SOL    HW199953   0.995   5.610   1.364  2.7488 -0.7079  0.9196
31330SOL    HW299954   0.915   5.547   1.252 -1.6061  2.0557  2.2185
31331SOL     OW99955   7.952   3.497  12.213  0.0079 -0.0297 -0.1031
31331SOL    HW199956   7.858   3.483  12.207 -0.0924  0.7358 -0.4699
31331SOL    HW299957   7.967   3.581  12.170  0.8404 -0.0703  0.0775
31332SOL     OW99958   9.420   5.258   1.068  0.0482  0.3565  0.2529
31332SOL    HW199959   9.405   5.166   1.048 -0.4784  0.5564 -0.3071
31332SOL    HW299960   9.515   5.269   1.062  0.0851 -0.0833  0.0262
31333SOL     OW99961   3.437   5.864  11.910  0.1497  1.0387 -0.8146
31333SOL    HW199962   3.467   5.807  11.981  1.7822 -0.1440 -2.3511
31333SOL    HW299963   3.342   5.866  11.919  0.3173  1.1401  1.5217
31334SOL     OW99964   9.942   1.823   7.658  0.2286  0.6820  0.1834
31334SOL    HW199965   9.931   1.796   7.750 -0.7123 -0.4159 -0.2320
31334SOL    HW299966   9.864   1.875   7.640  0.0289  0.2469 -0.2153
31335SOL     OW99967   7.869   3.802  12.078 -0.5571 -0.3238  0.0785
31335SOL    HW199968   7.883   3.896  12.068 -0.6465 -0.3202 -0.0094
31335SOL    HW299969   7.952   3.769  12.114 -1.2837  0.1346  2.2955
31336SOL     OW99970  11.645   8.337   1.340  0.6698 -0.5105 -0.2069
31336SOL    HW199971  11.553   8.316   1.358  0.2927  0.4189 -0.9855
31336SOL    HW299972  11.694   8.278   1.397 -0.4159  0.2945  1.6633
31337SOL     OW99973  10.015   0.656   8.224  0.2843  0.0374 -0.1414
31337SOL    HW199974  10.012   0.561   8.229 -2.0266  0.1127  1.7225
31337SOL    HW299975   9.957   0.678   8.152 -0.1002  0.0408  0.1642
31338SOL     OW99976   4.166   1.082  10.753  0.3705  0.3938  0.9554
31338SOL    HW199977   4.260   1.079  10.765  0.5659  0.2601 -0.3944
31338SOL    HW299978   4.153   1.134  10.674 -0.3020 -3.5864 -1.9306
31339SOL     OW99979   6.665   4.363   7.125 -0.0466 -0.1899  0.6784
31339SOL    HW199980   6.639   4.375   7.216 -0.5718 -0.3254  0.5459
31339SOL    HW299981   6.677   4.269   7.115 -0.6772 -0.2470  0.4235
31340SOL     OW99982   9.056   8.370   5.733  0.0426  0.2064 -0.3311
31340SOL    HW199983   9.059   8.403   5.823 -0.8109  0.0734 -0.2486
31340SOL    HW299984   8.998   8.430   5.687  1.6376  1.1665 -1.1881
31341SOL     OW99985   0.600   3.121   9.068 -0.2416 -0.6305 -0.0527
31341SOL    HW199986   0.568   3.089   8.984  0.5687  1.5020 -1.2588
31341SOL    HW299987   0.669   3.058   9.093  1.3642  0.0785 -2.3629
31342SOL     OW99988   0.434   1.805  10.741 -0.1082 -0.3540  0.8655
31342SOL    HW199989   0.429   1.883  10.796  1.3719  2.0169 -2.0639
31342SOL    HW299990   0.527   1.782  10.740 -0.5856 -2.6009  2.1260
31343SOL     OW99991  12.255   9.016   4.849 -0.4610 -0.4093  0.4200
31343SOL    HW199992  12.254   9.086   4.784 -0.9944 -1.2771 -0.5237
31343SOL    HW299993  12.334   8.966   4.830 -0.4933 -0.5274  0.5939
31344SOL     OW99994   7.042   7.543   1.697  0.0052  0.1371 -0.4443
31344SOL    HW199995   6.991   7.484   1.640  1.2819 -0.0417 -1.4464
31344SOL    HW299996   7.109   7.579   1.639  1.7297 -0.4918  1.0868
31345SOL     OW99997   7.745   3.709   2.283 -0.2669 -0.2542  0.0533
31345SOL    HW199998   7.792   3.720   2.366  1.4230 -1.7009 -0.6397
31345SOL    HW299999   7.791   3.768   2.222 -0.6921 -0.1428 -0.1634
31346SOL     OW    0   6.377   6.042   0.496 -0.5881 -0.2561 -0.3762
31346SOL    HW1    1   6.291   6.078   0.475 -0.5777 -0.0015  0.0008
31346SOL    HW2    2   6.439   6.108   0.467 -0.5277 -0.3620 -0.4880
31347SOL     OW    3  11.691   9.535   0.418 -0.0262  0.0373 -0.2784
31347SOL    HW1    4  11.732   9.612   0.456 -2.7625  1.7335 -0.4887
31347SOL    HW2    5  11.734   9.523   0.333  0.5720  1.2003 -0.1521
31348SOL     OW    6   1.093  11.903   5.305  0.0219  0.6672 -0.3474
31348SOL    HW1    7   1.171  11.859   5.272  0.3494  0.5245  0.5917
31348SOL    HW2    8   1.076  11.973   5.241  0.4092  0.1694 -1.0115
31349SOL     OW    9  11.453   8.354   0.645  0.2379 -0.3266  0.3291
31349SOL    HW1   10  11.527   8.356   0.584 -0.6777 -0.5949 -0.8074
31349SOL    HW2   11  11.490   8.385   0.728  1.2374  1.1441 -0.6320
31350SOL     OW   12   8.750  10.961   4.648 -0.0472 -0.2810 -0.3737
31350SOL    HW1   13   8.754  11.047   4.690 -2.2287 -0.6560  0.7298
31350SOL    HW2   14   8.660  10.955   4.616 -0.6222 -2.9898  1.4825
31351SOL     OW   15   1.755   1.990  11.917  0.2051  0.2112 -0.4945
31351SOL    HW1   16   1.813   2.050  11.964 -0.6565 -0.6645  1.8433
31351SOL    HW2   17   1.795   1.904  11.928 -0.5301 -0.1419 -0.5084
31352SOL     OW   18   9.327   9.097  12.459  0.3327  0.0565  0.4052
31352SOL    HW1   19   9.293   9.119  12.546 -1.6720 -0.3202 -0.2457
31352SOL    HW2   20   9.323   9.002  12.455  0.7377  0.0531  0.0035
31353SOL     OW   21  10.540   0.002   6.417  0.0450 -0.2264  0.3592
31353SOL    HW1   22  10.464  -0.048   6.446 -0.9471  0.4934 -0.9104
31353SOL    HW2   23  10.508   0.056   6.345  1.4647  1.0274  0.6013
31354SOL     OW   24   3.308   8.270   5.917  0.3451 -0.1004 -0.6538
31354SOL    HW1   25   3.389   8.306   5.952 -0.7036  1.9764 -0.2035
31354SOL    HW2   26   3.294   8.189   5.965  0.0076  1.6254  2.3846
31355SOL     OW   27  10.238   5.756   5.502  0.8690  0.0312 -0.6457
31355SOL    HW1   28  10.143   5.748   5.503  0.7962  0.5198 -1.8968
31355SOL    HW2   29  10.255   5.842   5.542  0.8740 -0.5690  0.6858
31356SOL     OW   30   4.487   8.900  10.073 -0.1540 -0.0279 -0.1877
31356SOL    HW1   31   4.531   8.983  10.053 -1.6149  1.3127  1.7322
31356SOL    HW2   32   4.421   8.891  10.004  0.9968 -0.4464 -1.2841
31357SOL     OW   33  11.909   8.615   4.615  0.2845  0.0683 -0.4251
31357SOL    HW1   34  11.823   8.589   4.650  0.1668 -1.4337 -1.7108
31357SOL    HW2   35  11.944   8.535   4.575  2.2800  0.6687  0.0196
31358SOL     OW   36   2.525   8.921   6.982  0.1870 -0.6756 -0.7041
31358SOL    HW1   37   2.461   8.856   6.954 -0.6544  0.2023 -0.8443
31358SOL    HW2   38   2.609   8.887   6.951 -0.2503 -1.6512 -0.8409
31359SOL     OW   39   9.898   0.943  10.506  0.9171 -0.5266  0.7327
31359SOL    HW1   40   9.932   0.962  10.419  0.8298 -2.0941  0.3282
31359SOL    HW2   41   9.973   0.909  10.554  0.7342 -0.6306  0.9478
31360SOL     OW   42   1.485  11.859   0.621 -0.1984 -0.4332 -0.2650
31360SOL    HW1   43   1.546  11.800   0.665 -0.1702 -0.5758 -0.4893
31360SOL    HW2   44   1.419  11.880   0.687  0.0411 -0.3565 -0.0489
31361SOL     OW   45   6.506   9.841   6.232 -0.4797  0.0315 -0.5322
31361SOL    HW1   46   6.550   9.769   6.186  0.7710  0.7968 -0.5625
31361SOL    HW2   47   6.464   9.891   6.162  1.4058  1.1827 -0.9131
31362SOL     OW   48   9.272   9.834   5.213  0.2894  0.1697 -0.4759
31362SOL    HW1   49   9.300   9.776   5.143  2.2379 -0.3263  0.6411
31362SOL    HW2   50   9.185   9.801   5.237  0.1944 -0.5335 -1.6904
31363SOL     OW   51   7.507   7.171   1.417 -0.1140  0.4805  0.4201
31363SOL    HW1   52   7.445   7.147   1.487  0.2868  1.6237  1.1868
31363SOL    HW2   53   7.497   7.101   1.352 -0.2496 -0.8186  1.7663
31364SOL     OW   54   6.281   4.622   1.186 -0.3723 -0.1893  0.4247
31364SOL    HW1   55   6.253   4.660   1.102 -0.3170 -0.1973  0.4028
31364SOL    HW2   56   6.242   4.535   1.186 -1.1178  0.1385  0.8052
31365SOL     OW   57  10.413   0.494   3.574  0.2892  0.4114  0.0339
31365SOL    HW1   58  10.343   0.552   3.603  0.7951  1.1545 -0.2102
31365SOL    HW2   59  10.399   0.413   3.623 -1.7681 -0.0906 -1.2708
31366SOL     OW   60  11.503  11.068   8.772  0.2533 -0.0513 -0.0524
31366SOL    HW1   61  11.466  10.980   8.766  2.1612 -1.1789  2.5420
31366SOL    HW2   62  11.594  11.058   8.743 -0.3096  1.8540 -2.8346
31367SOL     OW   63  10.014   2.938   0.048  0.3932  0.0345 -0.4021
31367SOL    HW1   64  10.017   2.966  -0.043  1.0823 -1.2840 -0.8056
31367SOL    HW2   65   9.930   2.893   0.056  0.8650 -0.9396 -0.7430
31368SOL     OW   66   2.311   5.643   1.215  0.4043  0.1922 -0.5097
31368SOL    HW1   67   2.393   5.625   1.260  2.1129  0.9760 -3.0808
31368SOL    HW2   68   2.332   5.716   1.156 -0.9974 -2.0201 -4.0431
31369SOL     OW   69  11.745   5.058   7.734  0.8689 -0.3289 -0.1406
31369SOL    HW1   70  11.676   5.123   7.745  0.9937  0.0333 -1.3361
31369SOL    HW2   71  11.826   5.108   7.733  1.1935 -0.7692  1.3997
31370SOL     OW   72  11.018   6.012   7.618 -0.0964 -0.1104  0.2739
31370SOL    HW1   73  11.054   5.926   7.596 -1.6983 -1.0628  1.1908
31370SOL    HW2   74  10.979   6.001   7.704  0.9856  1.9774  1.1174
31371SOL     OW   75  10.801   4.575  10.975 -0.0019  0.2931 -0.1013
31371SOL    HW1   76  10.740   4.557  10.904  0.7573 -0.9763 -0.4516
31371SOL    HW2   77  10.873   4.624  10.934  0.8550 -1.1794 -0.4249
31372SOL     OW   78   5.001   7.525   3.990 -0.3421  0.1684  0.4545
31372SOL    HW1   79   5.061   7.579   3.939 -0.1840 -1.0800 -0.7431
31372SOL    HW2   80   4.914   7.556   3.966 -0.3205 -1.1174 -1.5044
31373SOL     OW   81   1.261   8.689   9.477  0.2435  0.1875 -0.3180
31373SOL    HW1   82   1.310   8.673   9.397  0.5693  1.3301 -0.3699
31373SOL    HW2   83   1.189   8.626   9.475 -0.4027  0.9170 -2.0678
31374SOL     OW   84   3.271   2.827   2.857  0.0947 -0.1295 -0.5421
31374SOL    HW1   85   3.230   2.804   2.774  0.2230  0.3998 -0.7543
31374SOL    HW2   86   3.254   2.921   2.868  0.0087 -0.2093  0.0689
31375SOL     OW   87  11.878   8.578   9.432  0.3479  0.0160 -0.0806
31375SOL    HW1   88  11.923   8.498   9.404 -1.8677 -0.7455 -1.8396
31375SOL    HW2   89  11.890   8.639   9.359  0.3072  0.5547  0.3582
31376SOL     OW   90   2.514   3.011   1.581 -0.3296 -0.6199 -0.1515
31376SOL    HW1   91   2.563   3.092   1.569 -0.1397 -0.5975  0.7433
31376SOL    HW2   92   2.569   2.943   1.541 -0.0996 -0.4275 -0.1626
31377SOL     OW   93   4.205   4.124   9.695 -0.5571 -0.4741  0.1987
31377SOL    HW1   94   4.114   4.119   9.667 -0.7327 -0.8325  0.7967
31377SOL    HW2   95   4.256   4.102   9.617 -0.8577  2.1632 -0.8450
31378SOL     OW   96   3.347   2.412   0.302 -0.3359  0.3008  0.0807
31378SOL    HW1   97   3.399   2.490   0.283  1.2939 -0.2640  1.9092
31378SOL    HW2   98   3.277   2.443   0.360  0.7213  0.3239  1.3796
31379SOL     OW   99   9.665   4.913   5.629 -0.2424 -0.1632 -0.1852
31379SOL    HW1  100   9.686   4.839   5.572  0.6405 -0.6986  0.7911
31379SOL    HW2  101   9.610   4.970   5.575 -1.3324 -1.7385 -0.8074
31380SOL     OW  102   4.783   3.475   0.259 -0.0850  0.3471  0.3176
31380SOL    HW1  103   4.737   3.554   0.287  0.0889  0.1449  1.1995
31380SOL    HW2  104   4.719   3.404   0.269 -0.2000  0.3481 -0.3484
31381SOL     OW  105   2.950   9.512  10.589  0.1054  0.2302  0.0687
31381SOL    HW1  106   2.944   9.424  10.625  0.5644  0.3142  0.3642
31381SOL    HW2  107   3.004   9.560  10.652 -1.3531  1.1332  0.6973
31382SOL     OW  108   2.871   6.679   5.462 -0.0184 -0.0109 -0.0875
31382SOL    HW1  109   2.877   6.639   5.375 -1.7350 -0.8254  0.1199
31382SOL    HW2  110   2.865   6.604   5.521 -0.9945  0.5421  0.5275
31383SOL     OW  111   9.906   7.920   1.583 -0.0362 -0.2287  0.6034
31383SOL    HW1  112   9.846   7.992   1.601  2.0607  1.5699  0.8579
31383SOL    HW2  113   9.992   7.955   1.606  1.1299 -2.6692  0.2355
31384SOL     OW  114   8.775  11.752   7.513 -0.0700 -0.0319 -0.1505
31384SOL    HW1  115   8.717  11.684   7.480  0.5643  0.5393 -2.6326
31384SOL    HW2  116   8.718  11.810   7.564 -1.4000 -0.3282 -1.2466
31385SOL     OW  117   7.041   9.243  12.169 -0.2240 -0.7028  0.1411
31385SOL    HW1  118   7.078   9.254  12.256  0.4253 -1.3735 -0.0369
31385SOL    HW2  119   6.948   9.229  12.184 -0.2766  0.1210  0.6589
31386SOL     OW  120   8.610   0.810   6.686  0.0388  0.3282  0.6180
31386SOL    HW1  121   8.612   0.902   6.661  0.1358  0.2945  0.4950
31386SOL    HW2  122   8.639   0.764   6.607  0.4676  0.2246  0.8326
31387SOL     OW  123   9.268   1.286   6.976 -0.6071  0.8631 -0.2699
31387SOL    HW1  124   9.183   1.246   6.958 -0.5149  0.6439 -0.2242
31387SOL    HW2  125   9.248   1.379   6.989 -0.8262  0.8305 -0.3563
31388SOL     OW  126  10.262   3.158   1.416  0.1476 -0.4973 -0.2230
31388SOL    HW1  127  10.314   3.088   1.455 -1.9830 -1.8821  0.3151
31388SOL    HW2  128  10.285   3.157   1.323  1.8705 -0.2729  0.1728
31389SOL     OW  129   8.699   1.519   5.473 -0.4170  0.0329  0.3351
31389SOL    HW1  130   8.787   1.507   5.436 -1.1152 -1.1018 -1.0458
31389SOL    HW2  131   8.703   1.605   5.515  0.8843  0.7456 -1.1166
31390SOL     OW  132   1.325   0.789   6.478  0.5432  0.0581  0.3867
31390SOL    HW1  133   1.292   0.739   6.403 -1.9332  1.4779  0.4331
31390SOL    HW2  134   1.312   0.880   6.454  2.1729  0.6370  1.5184
31391SOL     OW  135   6.735   2.389   3.781  0.0960 -0.3170 -0.6819
31391SOL    HW1  136   6.646   2.420   3.802  0.0353 -0.9860  0.1408
31391SOL    HW2  137   6.740   2.303   3.824  1.7010  0.4132  0.7103
31392SOL     OW  138   3.094   2.860  11.466 -0.0215 -0.1196  0.3242
31392SOL    HW1  139   3.185   2.888  11.465 -0.1902  0.4960  0.9518
31392SOL    HW2  140   3.089   2.790  11.401  0.6001  0.7629 -0.7142
31393SOL     OW  141   6.830   5.999   6.440  0.0938  0.4820 -0.5251
31393SOL    HW1  142   6.916   5.959   6.450 -0.0288 -0.4042 -2.4134
31393SOL    HW2  143   6.774   5.927   6.408 -1.3447  1.0510  0.5667
31394SOL     OW  144   9.012  12.049   0.869 -0.2971  0.3187  0.0297
31394SOL    HW1  145   8.981  12.101   0.943  2.1783  2.0379 -0.0245
31394SOL    HW2  146   9.101  12.025   0.893  0.1571 -0.0533 -1.9073
31395SOL     OW  147   7.190   4.248   7.635  0.2553  0.0194 -0.1667
31395SOL    HW1  148   7.135   4.177   7.602 -1.2775  0.5366  1.1400
31395SOL    HW2  149   7.202   4.228   7.728  2.1462  0.0383 -0.3696
31396SOL     OW  150   2.786  11.673   4.105  0.2039  0.0355  0.1880
31396SOL    HW1  151   2.820  11.625   4.180  0.3152  1.1909  0.8994
31396SOL    HW2  152   2.790  11.765   4.131 -2.4355  0.3281 -0.1051
31397SOL     OW  153   1.517   1.700  11.757 -0.5331  0.2583  0.2642
31397SOL    HW1  154   1.561   1.647  11.823 -1.0730 -0.2187  0.2481
31397SOL    HW2  155   1.437   1.651  11.736 -1.1523  1.1695  0.4036
31398SOL     OW  156   5.395   0.719   2.954 -0.2072  0.0028  0.1116
31398SOL    HW1  157   5.441   0.779   2.895 -0.5686  0.4133  0.2440
31398SOL    HW2  158   5.302   0.729   2.931 -0.6667  2.1538  2.5111
31399SOL     OW  159   5.371   6.307   0.239 -0.9099 -0.3242  0.0776
31399SOL    HW1  160   5.327   6.300   0.155  0.2241 -0.7619 -0.5005
31399SOL    HW2  161   5.464   6.318   0.217 -0.6925  0.4645  1.2500
31400SOL     OW  162   4.378  11.041   5.717 -0.1977 -0.3566  0.3440
31400SOL    HW1  163   4.419  10.996   5.644  1.4520 -0.2261  1.1563
31400SOL    HW2  164   4.364  11.131   5.686  0.3442 -0.3462  0.1235
31401SOL     OW  165   1.363  11.740   7.950  0.0259 -0.2088 -0.0707
31401SOL    HW1  166   1.311  11.661   7.936 -2.4220  1.4681 -1.1106
31401SOL    HW2  167   1.368  11.749   8.045 -3.4971  0.6121  0.1693
31402SOL     OW  168   4.693   7.770   9.390  0.7098 -0.0579 -0.1849
31402SOL    HW1  169   4.611   7.778   9.439 -0.4006  0.2611 -2.0039
31402SOL    HW2  170   4.731   7.857   9.391 -0.1341  0.3384 -1.2253
31403SOL     OW  171  10.472   0.574  11.808  0.3192 -0.4166  0.2242
31403SOL    HW1  172  10.524   0.649  11.779  0.6260 -0.0515  1.6893
31403SOL    HW2  173  10.408   0.610  11.869  0.0333 -1.2465  0.4317
31404SOL     OW  174   3.220   8.685   6.868 -0.6439  0.1760  0.0107
31404SOL    HW1  175   3.245   8.777   6.859  2.5578 -0.5285  0.5575
31404SOL    HW2  176   3.209   8.654   6.777 -1.7181  1.0364 -0.1757
31405SOL     OW  177   3.940  11.332   5.828  0.1994  0.3523 -0.0253
31405SOL    HW1  178   3.892  11.309   5.908 -0.2314 -0.8113 -0.5986
31405SOL    HW2  179   3.921  11.425   5.816  0.4595  0.6107  1.3399
31406SOL     OW  180  10.263   8.519   5.054  0.1343  0.2690  0.3762
31406SOL    HW1  181  10.204   8.494   4.983  0.7338 -1.0330  0.3140
31406SOL    HW2  182  10.239   8.461   5.127  0.0878  1.0138  0.9700
31407SOL     OW  183   4.882   0.253   4.435 -0.6963 -0.2786 -0.0826
31407SOL    HW1  184   4.918   0.238   4.522  1.1927  1.7378 -0.4228
31407SOL    HW2  185   4.824   0.329   4.445 -2.6375 -1.6998 -0.1169
31408SOL     OW  186   3.324  11.350   6.041  0.0580 -0.8835 -0.1151
31408SOL    HW1  187   3.299  11.439   6.066 -2.5121 -1.5304 -0.0225
31408SOL    HW2  188   3.419  11.350   6.042  0.1459  1.9127 -0.3071
31409SOL     OW  189   7.002   6.807   4.292 -0.4034  0.5975  0.5928
31409SOL    HW1  190   7.017   6.885   4.238 -1.3215  0.0664 -0.4674
31409SOL    HW2  191   7.072   6.809   4.357  1.5027  0.6303 -1.3584
31410SOL     OW  192   2.316   1.783   7.208  0.4762  0.0454  0.6217
31410SOL    HW1  193   2.372   1.812   7.281  0.1921 -0.6036  1.0998
31410SOL    HW2  194   2.363   1.709   7.170 -0.5435 -1.2127  1.7032
31411SOL     OW  195   6.676   7.883   4.018  0.1475  0.3690 -0.2126
31411SOL    HW1  196   6.681   7.792   3.988  0.1205  0.3125 -0.0452
31411SOL    HW2  197   6.586   7.910   3.999  0.7292  1.0684 -2.3050
31412SOL     OW  198   1.504  10.135   5.801  0.0033  0.1319 -0.0697
31412SOL    HW1  199   1.531  10.159   5.889  0.2623 -1.7837  0.4222
31412SOL    HW2  200   1.444  10.062   5.813 -0.1155 -0.0305 -1.4714
31413SOL     OW  201  10.135   7.944   0.518  0.4068 -0.0971  0.3496
31413SOL    HW1  202  10.103   7.892   0.592  0.4250 -2.1861 -1.0258
31413SOL    HW2  203  10.229   7.954   0.535  0.4020 -0.5121  0.6501
31414SOL     OW  204   1.447   5.847   7.619 -0.2880  0.0077 -0.4650
31414SOL    HW1  205   1.360   5.886   7.607 -0.6637 -1.0552 -1.3424
31414SOL    HW2  206   1.433   5.753   7.606  0.5263 -0.5121  1.9447
31415SOL     OW  207   1.950  10.288   8.546 -0.3357 -0.5361 -0.3922
31415SOL    HW1  208   1.979  10.199   8.524 -3.3942 -2.3046  1.9552
31415SOL    HW2  209   1.971  10.298   8.639  1.4369  1.9703 -0.9609
31416SOL     OW  210   7.772   0.101   3.339  0.2493 -0.2158 -0.3806
31416SOL    HW1  211   7.848   0.144   3.378  0.3606 -0.0736 -0.7480
31416SOL    HW2  212   7.756   0.149   3.258  0.3688 -0.8682 -0.7970
31417SOL     OW  213  12.080   4.599   6.320 -0.5101  0.1303 -0.4568
31417SOL    HW1  214  12.110   4.550   6.244 -0.6235  0.1089 -0.4888
31417SOL    HW2  215  11.991   4.567   6.336 -0.0348 -0.7887  0.4761
31418SOL     OW  216  10.389   2.129  11.910  0.1405 -0.0175 -0.0497
31418SOL    HW1  217  10.418   2.220  11.902  2.1445 -0.7138 -1.2831
31418SOL    HW2  218  10.311   2.134  11.965 -0.4212  2.5662 -0.9313
31419SOL     OW  219   3.527   1.358   1.100 -0.1046  0.4546  0.4231
31419SOL    HW1  220   3.615   1.394   1.112 -0.6825  1.5549  1.5358
31419SOL    HW2  221   3.499   1.391   1.015  0.3224  0.5872  0.3290
31420SOL     OW  222   1.569   4.066   9.988  0.2783 -0.1722  0.1378
31420SOL    HW1  223   1.598   4.012  10.062 -0.6221  0.7362  1.1906
31420SOL    HW2  224   1.524   4.140  10.029  1.7223  1.5630 -1.2421
31421SOL     OW  225   6.024  10.294   2.813  0.4444  0.1336  0.2385
31421SOL    HW1  226   5.968  10.304   2.736  1.1641 -1.2823 -0.5198
31421SOL    HW2  227   5.976  10.233   2.870  0.5167  0.1363  0.3034
31422SOL     OW  228   0.979  10.049   3.267 -0.1979  0.4422  0.1472
31422SOL    HW1  229   0.910   9.986   3.246  1.0796 -0.6652 -0.9552
31422SOL    HW2  230   1.041   9.999   3.320 -0.1932  1.4053  1.0715
31423SOL     OW  231  11.021   3.244   6.182 -0.0007 -0.2100  0.8187
31423SOL    HW1  232  10.983   3.165   6.219 -0.8175 -0.1803  0.0743
31423SOL    HW2  233  10.948   3.304   6.171  0.4273  0.2448  0.3591
31424SOL     OW  234   8.312   7.920  11.442  0.6724 -0.7150  1.3776
31424SOL    HW1  235   8.216   7.919  11.450  0.2550 -1.4704 -1.9655
31424SOL    HW2  236   8.343   7.863  11.512 -1.4265 -1.4423  1.7896
31425SOL     OW  237   9.827  12.463   1.092 -0.3767  0.0220  0.0870
31425SOL    HW1  238   9.865  12.383   1.130  0.7583 -0.4625 -1.9235
31425SOL    HW2  239   9.889  12.488   1.024 -2.4527  0.6512 -1.6780
31426SOL     OW  240   4.313   1.915  10.893  0.0660  0.1850  0.2344
31426SOL    HW1  241   4.255   1.928  10.817  0.7651  1.7147 -0.0780
31426SOL    HW2  242   4.259   1.941  10.968  0.2657  1.4932 -0.0442
31427SOL     OW  243  11.895   1.904   8.040 -0.4862 -0.0065 -0.0121
31427SOL    HW1  244  11.896   1.951   7.956  1.6036 -0.2469 -0.1788
31427SOL    HW2  245  11.889   1.974   8.105  0.5206  0.3780 -0.3120
31428SOL     OW  246   1.280   6.993   8.754  0.4827  0.2400 -0.3748
31428SOL    HW1  247   1.213   6.998   8.822 -0.0048  2.7202 -0.9482
31428SOL    HW2  248   1.235   6.959   8.677  0.5146 -0.5072 -0.0689
31429SOL     OW  249   3.520   5.526   5.717  0.2743 -0.4390  0.2387
31429SOL    HW1  250   3.425   5.519   5.728  0.4678 -1.7034  1.3731
31429SOL    HW2  251   3.556   5.457   5.773  1.8613 -0.1352 -0.3478
31430SOL     OW  252  12.139   2.415   9.994 -0.2474 -0.4450  0.0358
31430SOL    HW1  253  12.054   2.441   9.959 -0.2524 -0.5553 -0.0342
31430SOL    HW2  254  12.195   2.403   9.917  0.2420  1.0270  0.1344
31431SOL     OW  255   2.524   4.557   8.079  0.1368 -0.2274  0.2852
31431SOL    HW1  256   2.441   4.510   8.073 -1.2297  1.9991  0.5833
31431SOL    HW2  257   2.575   4.508   8.143 -1.8721 -0.3820  1.8540
31432SOL     OW  258   8.179   7.012  10.166  0.2511  0.1056 -0.3449
31432SOL    HW1  259   8.096   7.059  10.170 -0.0058 -0.3233 -0.5810
31432SOL    HW2  260   8.184   6.964  10.249  0.5558  0.6146 -0.0635
31433SOL     OW  261   7.470   4.564   4.736 -0.8193 -0.1133 -0.3554
31433SOL    HW1  262   7.472   4.492   4.799 -0.6739  0.3082  0.1409
31433SOL    HW2  263   7.527   4.535   4.665 -1.2550 -0.7404 -0.4538
31434SOL     OW  264   6.924   1.965   5.951 -0.1627 -0.1662 -0.6652
31434SOL    HW1  265   6.993   1.904   5.976  1.2630  2.0854  1.3752
31434SOL    HW2  266   6.971   2.044   5.924 -1.9308  0.7464 -1.2234
31435SOL     OW  267  10.377   8.066   8.675 -0.5781  0.0646 -0.1569
31435SOL    HW1  268  10.427   7.992   8.708 -0.7028  0.4918  1.0521
31435SOL    HW2  269  10.443   8.130   8.649 -0.4859  0.0426  0.0258
31436SOL     OW  270   4.021   6.661   9.034  0.0845 -0.1670 -0.1782
31436SOL    HW1  271   4.042   6.612   9.114 -0.8995  0.5783  0.5642
31436SOL    HW2  272   4.082   6.734   9.035 -1.5928  1.2981  1.3129
31437SOL     OW  273   7.020   4.957   6.049  0.1422  0.8582 -1.0876
31437SOL    HW1  274   7.054   4.943   6.138 -1.6132  2.2474 -0.1495
31437SOL    HW2  275   7.090   5.006   6.005  0.5382  1.2229 -0.0933
31438SOL     OW  276   1.662   7.819   6.144  0.1515 -0.0685  0.5218
31438SOL    HW1  277   1.672   7.747   6.082 -0.3595  0.0982  0.2469
31438SOL    HW2  278   1.568   7.829   6.155  0.1970 -1.2632  2.6719
31439SOL     OW  279  10.790  11.845   1.041  0.3256 -0.3745 -0.5390
31439SOL    HW1  280  10.830  11.876   1.122 -0.9441  0.0391 -0.0372
31439SOL    HW2  281  10.698  11.831   1.064 -0.7443  2.3946 -2.5422
31440SOL     OW  282   6.744   8.744   9.042 -0.5888 -0.0211  0.0144
31440SOL    HW1  283   6.686   8.668   9.050  0.6857 -0.9344  1.2377
31440SOL    HW2  284   6.783   8.752   9.129  0.0378  1.4477 -0.3849
31441SOL     OW  285   2.676  10.500   8.649 -0.4805 -0.3702 -0.1385
31441SOL    HW1  286   2.737  10.571   8.634 -0.1416 -0.4762  0.6953
31441SOL    HW2  287   2.672  10.453   8.566 -0.6167  0.5412 -0.6558
31442SOL     OW  288  10.211   4.721   7.025  0.0617  0.1372 -0.3177
31442SOL    HW1  289  10.237   4.811   7.007 -3.2371  1.2411 -0.0626
31442SOL    HW2  290  10.200   4.682   6.938  1.5656 -0.1365 -0.4286
31443SOL     OW  291  11.962   1.492   9.720  0.1767  0.1087  0.2058
31443SOL    HW1  292  11.935   1.415   9.670 -0.0139  1.0290 -1.1684
31443SOL    HW2  293  11.892   1.556   9.705  0.8222  0.8974  0.4814
31444SOL     OW  294   9.786   2.754   8.608  0.4035 -0.4206  0.6629
31444SOL    HW1  295   9.805   2.669   8.568 -0.3096 -0.8484  1.2105
31444SOL    HW2  296   9.730   2.733   8.683  0.5982  0.4933  1.0780
31445SOL     OW  297   2.871  12.054  12.121 -0.5392 -0.2795  0.7925
31445SOL    HW1  298   2.823  12.044  12.039  0.5362 -0.2919  0.1540
31445SOL    HW2  299   2.893  11.964  12.147  1.4202 -0.1696 -0.3166
31446SOL     OW  300   4.606   7.535  12.184  0.5808 -0.1640 -0.8788
31446SOL    HW1  301   4.577   7.603  12.123  0.7275 -0.5880 -1.4321
31446SOL    HW2  302   4.648   7.469  12.128 -1.7503 -1.9419 -0.6916
31447SOL     OW  303   6.440   6.253   4.549 -0.4250  0.1711  0.0545
31447SOL    HW1  304   6.386   6.176   4.530 -0.6101  0.4650 -0.6534
31447SOL    HW2  305   6.393   6.325   4.508  0.9600  0.3031 -1.3740
31448SOL     OW  306   0.087   9.397   3.628 -0.1472 -0.2135 -0.1156
31448SOL    HW1  307   0.079   9.403   3.533  0.8971 -1.0937 -0.2787
31448SOL    HW2  308   0.086   9.303   3.646 -2.5785 -0.0485  0.9801
31449SOL     OW  309   2.540  10.225  12.078 -0.4952 -0.3328  0.1017
31449SOL    HW1  310   2.621  10.248  12.123 -0.3735 -0.8989  0.1880
31449SOL    HW2  311   2.560  10.233  11.985 -0.5839  0.3090  0.1352
31450SOL     OW  312   2.915   9.916   6.586 -0.3909 -0.1304 -0.1618
31450SOL    HW1  313   2.917  10.011   6.599 -2.1611 -0.3573  2.8311
31450SOL    HW2  314   3.006   9.888   6.597 -0.1401  1.0643  1.0635
31451SOL     OW  315   8.079   2.201   7.147 -0.1404  0.3165  0.7955
31451SOL    HW1  316   8.100   2.287   7.183 -0.8752  0.0510  1.9261
31451SOL    HW2  317   7.997   2.214   7.099  0.2340  0.4276  0.1729
31452SOL     OW  318   1.250   5.815   0.096  0.7828 -0.3664  0.0158
31452SOL    HW1  319   1.231   5.887   0.156  2.2316  0.4717 -0.4933
31452SOL    HW2  320   1.338   5.787   0.119  1.3721 -0.0246 -1.7068
31453SOL     OW  321   0.539   0.092   3.568 -0.5443  0.1104  0.7955
31453SOL    HW1  322   0.498   0.032   3.630 -0.8917 -0.6956 -0.1863
31453SOL    HW2  323   0.611   0.041   3.529 -1.3716 -0.0052 -0.6707
31454SOL     OW  324   5.115   6.925   3.334 -0.0427  0.1743  0.1090
31454SOL    HW1  325   5.136   6.839   3.300  0.3420  0.6961 -1.0067
31454SOL    HW2  326   5.187   6.946   3.394  0.1806 -0.0296 -0.0875
31455SOL     OW  327   2.906   5.264   7.032  0.3423  0.3716 -0.4708
31455SOL    HW1  328   2.822   5.291   6.996 -0.8807 -1.1677  1.0408
31455SOL    HW2  329   2.920   5.175   6.999  1.5716  0.7160 -0.9594
31456SOL     OW  330   9.811   4.448   3.812 -0.2560 -0.1628  0.4906
31456SOL    HW1  331   9.831   4.410   3.898  1.0684  1.0736  0.7613
31456SOL    HW2  332   9.783   4.374   3.759  2.5907 -1.6635  0.8776
31457SOL     OW  333   5.682   1.741   8.501  0.5822 -0.1029  0.0817
31457SOL    HW1  334   5.737   1.811   8.536  1.2522 -0.0091 -1.0934
31457SOL    HW2  335   5.727   1.713   8.421 -1.2494  0.2057 -1.1272
31458SOL     OW  336   8.905   3.154   3.327  0.3317 -0.0178  0.4169
31458SOL    HW1  337   8.991   3.133   3.292  0.1866 -1.5170  0.8657
31458SOL    HW2  338   8.843   3.113   3.266 -0.1259  1.8691 -0.4377
31459SOL     OW  339   7.329   6.997  10.268 -0.2757  0.0843  0.4473
31459SOL    HW1  340   7.300   6.962  10.352 -1.4055  0.6864  0.3383
31459SOL    HW2  341   7.329   7.092  10.280 -2.6177  0.3194 -0.8292
31460SOL     OW  342   9.667   4.187   2.496 -0.0444  0.4013 -0.3863
31460SOL    HW1  343   9.664   4.279   2.522 -0.2995  0.5872 -1.0520
31460SOL    HW2  344   9.624   4.140   2.568  1.2316  0.6446  0.5712
31461SOL     OW  345   0.330   9.799  12.070  0.3336  0.5405 -0.3249
31461SOL    HW1  346   0.338   9.772  12.162 -0.3785  1.6356  0.0892
31461SOL    HW2  347   0.401   9.862  12.058 -0.4743  1.5211 -0.0690
31462SOL     OW  348   8.913   7.968   1.792 -0.2753  0.0457 -0.0637
31462SOL    HW1  349   8.825   7.966   1.829 -0.2591  0.7343  0.0255
31462SOL    HW2  350   8.971   7.966   1.869 -0.1653 -1.7656 -0.1451
31463SOL     OW  351   7.951   4.344   1.959  0.5432  0.2638  0.5467
31463SOL    HW1  352   7.978   4.361   1.869  1.4932  0.2204  0.8106
31463SOL    HW2  353   7.886   4.411   1.978  0.6285  0.5166 -0.0377
31464SOL     OW  354  11.678   0.110   7.132  0.4880  0.1715  0.1637
31464SOL    HW1  355  11.699   0.069   7.216  1.1038 -0.6668 -0.3852
31464SOL    HW2  356  11.613   0.177   7.154  0.4853 -0.1743  1.2768
31465SOL     OW  357   7.447   5.604  11.742  0.0214 -0.4105  0.1400
31465SOL    HW1  358   7.520   5.592  11.682 -1.8516 -0.6715 -2.2675
31465SOL    HW2  359   7.395   5.674  11.703 -1.9654 -1.4885  0.6912
31466SOL     OW  360   7.828   8.520  12.086  0.3452  0.1377  0.2957
31466SOL    HW1  361   7.757   8.552  12.032  0.7355  0.0407 -0.2801
31466SOL    HW2  362   7.800   8.537  12.176 -0.0494  0.8172  0.0428
31467SOL     OW  363   5.220   6.985   6.673 -0.4418  0.1913  0.5401
31467SOL    HW1  364   5.240   6.900   6.634  0.3074  0.2531  0.7928
31467SOL    HW2  365   5.135   6.972   6.716  0.1201 -0.7049  1.4045
31468SOL     OW  366   9.433   4.207  12.172 -1.1570  0.2357 -0.1767
31468SOL    HW1  367   9.367   4.228  12.239  0.1256 -0.0415  1.2222
31468SOL    HW2  368   9.480   4.132  12.207 -0.3756  0.1571 -1.3515
31469SOL     OW  369   9.582  11.503   5.191  0.3892 -0.1828 -0.3480
31469SOL    HW1  370   9.669  11.466   5.206  0.0211 -0.5652  0.9884
31469SOL    HW2  371   9.594  11.598   5.202  0.3639 -0.3556  1.4027
31470SOL     OW  372  11.926   1.452  11.898 -0.2473  0.5111  0.1385
31470SOL    HW1  373  11.901   1.382  11.959  1.7438  0.7689  1.3409
31470SOL    HW2  374  11.853   1.456  11.836 -1.2501 -1.4033  1.0781
31471SOL     OW  375   4.923  11.841   1.626 -0.3529  0.3806 -0.0790
31471SOL    HW1  376   4.850  11.882   1.673 -1.2792  0.4021 -1.4802
31471SOL    HW2  377   4.950  11.907   1.562  2.4436  1.3004  1.8448
31472SOL     OW  378   4.063   8.849   7.205  0.0654 -0.2354 -0.1997
31472SOL    HW1  379   4.098   8.938   7.194 -1.3824  0.3112 -0.5454
31472SOL    HW2  380   3.974   8.863   7.237  0.3465 -1.6023  1.3090
31473SOL     OW  381   9.107   8.880   1.007  0.4577  0.0465 -0.1960
31473SOL    HW1  382   9.090   8.949   1.072 -0.8760  1.1090 -1.6147
31473SOL    HW2  383   9.044   8.811   1.029  1.0469 -0.2745  0.5477
31474SOL     OW  384   7.895   9.086   9.832 -0.1346 -0.3034  0.1756
31474SOL    HW1  385   7.984   9.084   9.867 -0.8298 -0.7020  2.0370
31474SOL    HW2  386   7.861   8.999   9.851 -0.9405 -0.1481 -0.5189
31475SOL     OW  387  10.240   7.111   7.229  0.0972 -0.0375  0.4582
31475SOL    HW1  388  10.291   7.042   7.271 -1.3040 -0.0777  2.2025
31475SOL    HW2  389  10.263   7.191   7.277  0.0272  0.3009 -0.0637
31476SOL     OW  390   2.679   1.088   3.913  0.1989  0.3796  0.4678
31476SOL    HW1  391   2.627   1.065   3.990  1.1822  0.0748  1.0562
31476SOL    HW2  392   2.769   1.067   3.937  0.6405  1.1329 -0.4405
31477SOL     OW  393   0.064   8.650   9.103 -0.3575 -0.2885  0.6389
31477SOL    HW1  394  -0.012   8.706   9.092  0.3839  0.3534 -1.8646
31477SOL    HW2  395   0.137   8.700   9.067  0.8747 -1.7094  1.0272
31478SOL     OW  396   5.541   4.852   2.023  0.2719  0.2007 -0.9004
31478SOL    HW1  397   5.448   4.862   2.041  0.1898 -0.3417 -1.0027
31478SOL    HW2  398   5.554   4.896   1.939  0.0202 -0.1211 -1.1088
31479SOL     OW  399   9.365  12.213   0.858  0.1647 -0.2926 -0.2073
31479SOL    HW1  400   9.322  12.289   0.819  1.0763 -0.7787 -2.2585
31479SOL    HW2  401   9.295  12.168   0.907 -0.6557  1.1625 -0.0052
31480SOL     OW  402   3.277  11.478   3.692 -0.0948  0.5231 -0.3405
31480SOL    HW1  403   3.274  11.420   3.768  1.3847 -1.7786 -1.8913
31480SOL    HW2  404   3.187  11.507   3.681 -0.5931 -0.1742  1.4867
31481SOL     OW  405   4.284   3.902   2.912 -0.0484 -0.2706  0.7463
31481SOL    HW1  406   4.261   3.809   2.916 -0.3109 -0.2528 -0.0785
31481SOL    HW2  407   4.374   3.906   2.944 -0.1193 -0.7774  1.0203
31482SOL     OW  408   8.235   4.030   1.517 -0.3961 -0.0010  0.4710
31482SOL    HW1  409   8.327   4.003   1.527 -0.2040  0.6485  0.5030
31482SOL    HW2  410   8.192   3.953   1.481  0.4543  0.1591 -0.9626
31483SOL     OW  411   8.259   8.136   7.283 -0.3540 -0.4451 -0.1710
31483SOL    HW1  412   8.320   8.141   7.210  0.0030 -1.0522  0.0799
31483SOL    HW2  413   8.273   8.216   7.333  0.9309 -1.0176  0.4227
31484SOL     OW  414  12.098   3.165   4.072 -0.4391 -0.6353  0.2691
31484SOL    HW1  415  12.005   3.146   4.068 -1.0141  1.8876 -0.5489
31484SOL    HW2  416  12.126   3.169   3.981 -0.2163  1.1964  0.3632
31485SOL     OW  417   9.536   9.138   6.249 -0.2688  0.2168  0.2665
31485SOL    HW1  418   9.486   9.064   6.285  3.4152 -1.8837  1.5823
31485SOL    HW2  419   9.547   9.198   6.323  1.7613 -0.9319  0.9753
31486SOL     OW  420  12.011   4.704   7.535 -0.3120  0.2197 -0.5370
31486SOL    HW1  421  12.025   4.620   7.491  1.3228 -0.1612  0.6287
31486SOL    HW2  422  11.917   4.707   7.550 -0.3846 -1.5105 -0.4198
31487SOL     OW  423  11.456   9.353  10.041 -0.2389  0.1103 -0.3639
31487SOL    HW1  424  11.439   9.418  10.109 -1.3130 -0.1570 -0.3542
31487SOL    HW2  425  11.380   9.295  10.044  1.2357 -1.8857  0.4501
31488SOL     OW  426   0.960   4.916   6.684  0.5813 -0.4560 -0.2789
31488SOL    HW1  427   0.913   4.976   6.741 -0.3172 -0.9424 -0.4887
31488SOL    HW2  428   0.957   4.957   6.597  0.9321 -0.2794 -0.2105
31489SOL     OW  429   9.524   2.755   5.408  0.1657 -0.3804 -0.0371
31489SOL    HW1  430   9.454   2.701   5.373  1.3811 -2.3708  0.4448
31489SOL    HW2  431   9.494   2.781   5.494 -0.0189 -1.1913  0.1515
31490SOL     OW  432   5.835   2.366   6.290 -0.4961 -0.2386 -0.7671
31490SOL    HW1  433   5.920   2.381   6.331 -0.8602 -1.2996  0.4603
31490SOL    HW2  434   5.787   2.314   6.354 -1.2282 -1.6798 -2.3864
31491SOL     OW  435   5.748   3.179   8.763  0.8101 -0.0426 -0.1837
31491SOL    HW1  436   5.768   3.111   8.699  2.7191  0.9506 -0.7267
31491SOL    HW2  437   5.758   3.136   8.848  1.2259 -0.6321 -0.5259
31492SOL     OW  438   4.959   4.876   1.466  0.1833 -0.7855  1.0744
31492SOL    HW1  439   5.003   4.917   1.392 -0.4623 -0.5560  0.8093
31492SOL    HW2  440   4.989   4.925   1.542 -1.6759  1.1982  0.6364
31493SOL     OW  441   3.061   0.018   4.636 -0.0330 -0.2296  0.4176
31493SOL    HW1  442   3.144   0.046   4.676 -0.2341  1.7178 -0.4168
31493SOL    HW2  443   2.994   0.053   4.694 -0.2788 -0.7041  0.4165
31494SOL     OW  444   4.613  12.271   2.741  0.2907 -0.5594 -0.2197
31494SOL    HW1  445   4.682  12.208   2.759 -0.1646 -1.0257 -0.0932
31494SOL    HW2  446   4.544  12.251   2.803 -0.3565 -0.7231 -0.9722
31495SOL     OW  447   6.660   7.364   8.614 -0.1414  0.1981 -0.1655
31495SOL    HW1  448   6.674   7.401   8.526 -1.4305  0.2938 -0.3508
31495SOL    HW2  449   6.585   7.412   8.648  1.1198  1.0590  1.5289
31496SOL     OW  450   6.097  10.252   3.129  0.3260  0.4203 -0.0691
31496SOL    HW1  451   6.053  10.328   3.166 -1.8479  0.0173 -1.6337
31496SOL    HW2  452   6.188  10.279   3.118  0.1171  1.9372  1.5917
31497SOL     OW  453   8.000  11.839   7.783  0.1716  0.0034 -0.2439
31497SOL    HW1  454   8.005  11.891   7.864  1.2789 -0.5176  0.0400
31497SOL    HW2  455   8.019  11.750   7.811 -1.3770 -0.5229 -0.7850
31498SOL     OW  456   7.108   5.282   7.628  0.1202 -0.1903  0.0632
31498SOL    HW1  457   7.115   5.197   7.672  2.4873  0.3454  0.8670
31498SOL    HW2  458   7.142   5.266   7.540 -0.0374 -0.2037  0.0042
31499SOL     OW  459  10.632   3.197   8.590 -0.2674 -0.0816 -0.2291
31499SOL    HW1  460  10.599   3.279   8.629  1.1454 -0.0448  0.9734
31499SOL    HW2  461  10.672   3.224   8.508  0.4257  0.5067  0.2836
31500SOL     OW  462   0.367  11.522   5.990  0.0069  0.4066 -0.8540
31500SOL    HW1  463   0.289  11.474   6.016  0.4156  0.3342  0.3183
31500SOL    HW2  464   0.377  11.505   5.897 -0.8948 -0.2704 -0.8289
31501SOL     OW  465   8.944  12.158   0.614 -0.1063 -0.1926  0.5824
31501SOL    HW1  466   9.010  12.224   0.594  0.6754 -0.9801  0.5331
31501SOL    HW2  467   8.967  12.126   0.701 -0.8478  0.0247  0.8682
31502SOL     OW  468   5.232   0.584  11.994  0.2058 -0.4001  0.0166
31502SOL    HW1  469   5.153   0.632  11.969  0.0381 -1.3175 -1.3371
31502SOL    HW2  470   5.295   0.603  11.924  0.4282 -1.4131 -0.0746
31503SOL     OW  471   5.085   2.571   8.045  0.1720 -0.6972 -0.1960
31503SOL    HW1  472   4.999   2.531   8.062  0.7200 -1.7163  0.2587
31503SOL    HW2  473   5.112   2.606   8.130 -0.5801  1.2621 -0.7158
31504SOL     OW  474   1.276  10.323  10.544  0.6397 -0.3630  0.0821
31504SOL    HW1  475   1.283  10.418  10.532 -0.1906 -0.3334 -0.3126
31504SOL    HW2  476   1.228  10.312  10.626 -0.9889 -0.3657 -0.8066
31505SOL     OW  477   4.392   8.120   8.036  1.1489 -0.6179  0.1102
31505SOL    HW1  478   4.392   8.190   7.972  2.3771 -1.9453 -1.4154
31505SOL    HW2  479   4.304   8.083   8.030  0.8109  0.1492  0.2227
31506SOL     OW  480   5.236   8.168   0.257  0.1505  0.6317 -0.1765
31506SOL    HW1  481   5.251   8.085   0.303 -1.3390  0.1924 -0.4266
31506SOL    HW2  482   5.222   8.142   0.166 -0.7250  1.1029 -0.1844
31507SOL     OW  483   0.557   2.618  10.765 -0.2041  0.1848 -0.2208
31507SOL    HW1  484   0.612   2.598  10.689 -1.4141 -2.5680 -0.4778
31507SOL    HW2  485   0.481   2.663  10.728  0.5199  1.4661 -0.2155
31508SOL     OW  486   6.437   4.697  10.066 -0.6366 -0.4449 -0.3134
31508SOL    HW1  487   6.362   4.665  10.017 -2.3521  3.2527 -0.4248
31508SOL    HW2  488   6.431   4.653  10.151 -1.7098 -1.7001 -1.0060
31509SOL     OW  489  10.285  11.809   8.783 -0.6760 -0.0398  0.4500
31509SOL    HW1  490  10.228  11.740   8.748 -1.5978 -0.5408  2.7317
31509SOL    HW2  491  10.225  11.871   8.824  0.1787  1.9386 -1.1482
31510SOL     OW  492   0.875   3.135   7.544 -0.9376 -0.6029 -0.1237
31510SOL    HW1  493   0.898   3.044   7.563 -0.9320 -0.4576  0.5996
31510SOL    HW2  494   0.789   3.130   7.503 -1.0689 -0.9136  0.1833
31511SOL     OW  495   2.158   5.957  11.342 -0.1294 -0.3113  0.0703
31511SOL    HW1  496   2.167   5.911  11.258  0.2822  0.8931 -0.5768
31511SOL    HW2  497   2.120   6.042  11.318 -1.7707 -0.6446  1.3375
31512SOL     OW  498   5.796   2.763   7.184  0.5053 -0.3669  0.2632
31512SOL    HW1  499   5.732   2.814   7.233  1.0242  0.5653 -0.0221
31512SOL    HW2  500   5.744   2.713   7.121 -0.0203 -0.4058  0.7196
31513SOL     OW  501   7.126  11.572  10.916 -0.4831  0.0517 -0.1801
31513SOL    HW1  502   7.195  11.506  10.927  0.7154  1.2227 -0.4006
31513SOL    HW2  503   7.060  11.549  10.981  1.4059  0.5189  2.0448
31514SOL     OW  504  11.685  11.409   6.425 -0.2639 -0.4937 -0.7708
31514SOL    HW1  505  11.690  11.499   6.456  1.2225 -0.4146 -1.1620
31514SOL    HW2  506  11.729  11.410   6.340  1.2478 -1.8682 -0.0671
31515SOL     OW  507  11.356   9.893   5.914  0.5631  0.0554 -0.3300
31515SOL    HW1  508  11.366   9.808   5.957  0.1251  0.3476  0.3597
31515SOL    HW2  509  11.347   9.955   5.985  2.6972  0.9477 -0.7585
31516SOL     OW  510   2.572   9.840   3.934 -0.4101 -0.5737  0.1581
31516SOL    HW1  511   2.610   9.853   4.021 -1.2538  0.0969  0.4491
31516SOL    HW2  512   2.636   9.877   3.873  0.4592 -1.5899  0.4429
31517SOL     OW  513   0.087   0.463   2.076 -0.2649 -0.5756  0.0587
31517SOL    HW1  514   0.177   0.497   2.074 -0.1008 -1.0171 -1.4648
31517SOL    HW2  515   0.033   0.539   2.055 -0.2964 -0.2220  1.3534
31518SOL     OW  516   7.918  12.326   9.935  0.2165 -0.1933 -0.0029
31518SOL    HW1  517   7.827  12.329   9.964  0.2377 -1.6931  0.3167
31518SOL    HW2  518   7.955  12.411   9.960 -0.9587  0.2367  0.3006
31519SOL     OW  519   7.683  11.043  11.043  0.4994  0.0119  0.4052
31519SOL    HW1  520   7.723  10.977  10.985  0.3547  1.4259 -1.3656
31519SOL    HW2  521   7.594  11.053  11.011 -0.1585 -0.3934  1.9922
31520SOL     OW  522  10.619   4.583   1.147  0.2258 -0.1557 -0.9341
31520SOL    HW1  523  10.605   4.640   1.223  0.1520 -1.4076  0.0196
31520SOL    HW2  524  10.642   4.498   1.184  1.3328 -0.5115 -2.3458
31521SOL     OW  525   8.432  11.300   9.921  0.0901 -0.2265 -0.1850
31521SOL    HW1  526   8.391  11.372   9.969  0.5799 -0.7742  1.0673
31521SOL    HW2  527   8.516  11.286   9.964  0.3472 -1.0324 -0.9238
31522SOL     OW  528   5.128  10.702   2.403  1.2986  0.1148  0.2264
31522SOL    HW1  529   5.186  10.627   2.392  1.0227 -0.5722  2.7077
31522SOL    HW2  530   5.041  10.668   2.382  1.2901 -0.0280  0.4834
31523SOL     OW  531   9.374  11.871  10.306 -0.3173  0.6586  0.0393
31523SOL    HW1  532   9.331  11.861  10.391 -3.2516 -0.3357 -1.4338
31523SOL    HW2  533   9.376  11.965  10.290 -1.4224  0.7573  0.4233
31524SOL     OW  534   5.725   7.149   8.685 -0.2481  0.4726 -0.4627
31524SOL    HW1  535   5.763   7.159   8.773 -1.5235  2.2548 -0.0327
31524SOL    HW2  536   5.781   7.202   8.629  0.7907 -0.9717 -0.8453
31525SOL     OW  537   1.865   0.782  10.284  0.3587 -0.4616 -0.8134
31525SOL    HW1  538   1.953   0.748  10.267  0.3353 -0.2414 -1.4160
31525SOL    HW2  539   1.817   0.707  10.320  1.0608 -0.3157  0.4688
31526SOL     OW  540   7.748   7.199   8.445 -0.9289 -0.3231 -0.2450
31526SOL    HW1  541   7.800   7.202   8.525 -1.9989 -0.3384  0.4648
31526SOL    HW2  542   7.809   7.224   8.376 -0.3133  1.0294  0.7411
31527SOL     OW  543  12.344   2.213   1.831 -0.3480  0.2086 -0.5149
31527SOL    HW1  544  12.267   2.168   1.865 -0.5747 -0.0964 -1.3902
31527SOL    HW2  545  12.359   2.286   1.891  0.4724 -1.4198  1.3796
31528SOL     OW  546   7.530   9.570   4.851 -0.2159  0.0650 -0.1156
31528SOL    HW1  547   7.541   9.568   4.756 -0.8419  0.1704 -0.1986
31528SOL    HW2  548   7.558   9.657   4.877 -1.7634  0.6917 -0.4498
31529SOL     OW  549   3.712   9.086  10.913  0.0356  0.6024 -0.2234
31529SOL    HW1  550   3.645   9.104  10.979  1.1823  1.4193  0.7562
31529SOL    HW2  551   3.666   9.036  10.846 -0.8272 -1.5541  1.8433
31530SOL     OW  552   5.186   6.720   5.853 -0.4158 -0.4511 -0.3271
31530SOL    HW1  553   5.129   6.643   5.851 -0.3758 -0.4743 -1.3159
31530SOL    HW2  554   5.261   6.695   5.798  0.4332 -0.3224  0.7252
31531SOL     OW  555  10.751   5.739   4.463  0.0470 -0.4978  0.5526
31531SOL    HW1  556  10.713   5.725   4.376  1.7704 -1.4939 -0.0937
31531SOL    HW2  557  10.683   5.711   4.524 -1.4585  0.8958 -0.4284
31532SOL     OW  558   4.489   0.028   4.531 -0.2419  0.1669  0.1732
31532SOL    HW1  559   4.567  -0.018   4.562 -0.2350  0.5036  0.6588
31532SOL    HW2  560   4.519   0.080   4.457  0.1784  0.9312  0.8652
31533SOL     OW  561   5.727   2.509   3.810 -0.3819 -0.1978  0.1814
31533SOL    HW1  562   5.678   2.580   3.766 -0.6367 -0.0474  0.7024
31533SOL    HW2  563   5.667   2.434   3.807 -0.9908  0.2123  1.5479
31534SOL     OW  564  10.056   8.580   5.910 -0.1985  0.1573  0.1278
31534SOL    HW1  565  10.049   8.573   6.005 -0.2987  1.8432  0.2715
31534SOL    HW2  566  10.130   8.639   5.896 -1.2654  1.3127 -0.7857
31535SOL     OW  567   0.798   4.866   8.322 -0.2926 -0.3010 -0.4665
31535SOL    HW1  568   0.768   4.782   8.290 -0.3402  0.3881 -2.3412
31535SOL    HW2  569   0.893   4.857   8.329 -0.3310 -0.6037 -0.3353
31536SOL     OW  570   3.316   3.769   5.733 -0.0526 -0.5844  0.2741
31536SOL    HW1  571   3.243   3.715   5.704 -1.3569  1.5242 -0.6140
31536SOL    HW2  572   3.380   3.763   5.661 -0.2037 -0.8919  0.1639
31537SOL     OW  573   6.392   8.514  12.272 -0.1965  0.1007 -0.0683
31537SOL    HW1  574   6.299   8.537  12.261 -0.4509 -0.9965 -0.3404
31537SOL    HW2  575   6.422   8.494  12.183 -0.6199 -2.8251  0.3605
31538SOL     OW  576   6.464   5.153   3.794  0.0725 -0.1819  0.3267
31538SOL    HW1  577   6.460   5.060   3.776  0.5999  0.0391 -1.0285
31538SOL    HW2  578   6.402   5.193   3.733  0.1545  0.3858  0.6032
31539SOL     OW  579  10.796   3.872   5.640 -0.2369 -0.2241 -0.1324
31539SOL    HW1  580  10.764   3.934   5.706 -0.1973  0.2483 -0.5505
31539SOL    HW2  581  10.835   3.927   5.573  1.2842 -0.7706  0.2602
31540SOL     OW  582   9.131   2.683  12.342  0.1573  0.0791  0.3788
31540SOL    HW1  583   9.194   2.755  12.338  1.4711 -1.0638  0.0915
31540SOL    HW2  584   9.155   2.625  12.270 -1.7346 -0.0090 -0.2457
31541SOL     OW  585   5.311   9.568   9.118  0.2031  0.0464 -0.0894
31541SOL    HW1  586   5.368   9.533   9.049 -1.1856  0.4672 -1.5292
31541SOL    HW2  587   5.224   9.570   9.078 -0.4232  1.6024  1.2246
31542SOL     OW  588  10.199   6.045   8.981  0.1494  0.0498 -0.0040
31542SOL    HW1  589  10.275   6.033   8.924  0.6342  0.9019  0.4327
31542SOL    HW2  590  10.160   6.127   8.951 -0.8732 -0.6023 -0.5115
31543SOL     OW  591  10.376   2.844  11.793  0.5024 -0.3423  0.2605
31543SOL    HW1  592  10.360   2.859  11.700  0.5531  1.2750  0.4919
31543SOL    HW2  593  10.410   2.927  11.825 -1.0605 -0.3337  2.0693
31544SOL     OW  594  12.195   1.326   7.381 -0.1254 -0.2465  0.1880
31544SOL    HW1  595  12.210   1.268   7.456  0.5549 -0.2362  0.0674
31544SOL    HW2  596  12.184   1.413   7.419  0.7155 -0.1565  0.2617
31545SOL     OW  597   6.345   3.727  12.187 -0.0678 -0.4636  0.2014
31545SOL    HW1  598   6.372   3.639  12.160  1.0337 -0.8826  2.3956
31545SOL    HW2  599   6.424   3.781  12.177 -0.0260 -0.3219  1.1615
31546SOL     OW  600   3.806   7.485   2.064  0.1558  0.0699 -0.1750
31546SOL    HW1  601   3.878   7.520   2.116  0.4378 -1.8334  0.7747
31546SOL    HW2  602   3.813   7.531   1.981 -0.2834  3.1923  1.3592
31547SOL     OW  603   2.403  12.083   9.304  0.1731  0.4515 -0.4409
31547SOL    HW1  604   2.369  12.103   9.391 -0.9403  0.6260 -0.9056
31547SOL    HW2  605   2.495  12.109   9.308  0.3738 -0.3415  0.9389
31548SOL     OW  606   6.683   5.559   8.178 -0.1606 -0.5794  0.2360
31548SOL    HW1  607   6.646   5.498   8.243  0.4855 -0.4883  0.6949
31548SOL    HW2  608   6.758   5.513   8.142 -0.4285 -0.5661 -0.3511
31549SOL     OW  609   9.438  12.012  12.354 -0.4889  0.3405 -0.3835
31549SOL    HW1  610   9.350  12.019  12.318 -0.3117 -0.6777 -1.0728
31549SOL    HW2  611   9.468  11.926  12.327  0.3583  0.2773  0.6875
31550SOL     OW  612  10.524   3.553   3.870 -0.1559 -0.7451  0.0789
31550SOL    HW1  613  10.454   3.489   3.868 -0.6667 -0.1844 -0.3507
31550SOL    HW2  614  10.592   3.517   3.813 -0.8883 -0.4128 -1.0374
31551SOL     OW  615   2.955   9.372   4.254 -0.2153 -0.2666  0.1334
31551SOL    HW1  616   2.911   9.448   4.216  1.2034  0.8274  0.6029
31551SOL    HW2  617   2.960   9.391   4.348 -1.1958 -1.6601  0.5035
31552SOL     OW  618   5.230   8.885  12.132  0.2785  0.2973 -0.1493
31552SOL    HW1  619   5.179   8.909  12.210  1.8578  0.1016  0.9946
31552SOL    HW2  620   5.312   8.851  12.167  1.4410  1.1291 -1.9245
31553SOL     OW  621  12.470   9.149   9.655 -0.3546 -0.3763 -0.4634
31553SOL    HW1  622  12.434   9.078   9.602 -0.5708 -1.3008  0.8692
31553SOL    HW2  623  12.557   9.118   9.680 -0.4645 -0.2022  0.1568
31554SOL     OW  624   3.246   3.985  11.008 -0.1351  0.1460  0.1247
31554SOL    HW1  625   3.337   4.004  11.029  0.1006 -1.5968  0.8686
31554SOL    HW2  626   3.250   3.931  10.929 -0.5667  0.4867 -0.1375
31555SOL     OW  627  12.129   5.559   3.309  0.2152 -0.0905  0.6740
31555SOL    HW1  628  12.148   5.606   3.227 -1.5896 -0.6332 -0.1090
31555SOL    HW2  629  12.042   5.590   3.335  0.1954 -0.9324  1.6679
31556SOL     OW  630   2.090  10.086   3.721  0.0725  0.1977 -0.3879
31556SOL    HW1  631   2.014  10.123   3.766  0.8758 -0.2435  1.4413
31556SOL    HW2  632   2.147  10.162   3.704 -0.0561  0.3165 -0.2843
31557SOL     OW  633  10.474   6.741  12.081 -0.1755  0.1896 -0.2361
31557SOL    HW1  634  10.555   6.692  12.067 -1.9309 -2.7374 -1.1045
31557SOL    HW2  635  10.472   6.760  12.175  0.0493 -2.6565  0.4198
31558SOL     OW  636   2.769  10.248   3.565  0.2863 -0.2880  0.8232
31558SOL    HW1  637   2.688  10.289   3.596 -0.7256 -2.0017  0.6367
31558SOL    HW2  638   2.817  10.318   3.521  0.1848  1.4110  3.2380
31559SOL     OW  639   1.489   7.812   8.164  0.6792 -0.7067  0.2282
31559SOL    HW1  640   1.536   7.895   8.173 -0.9150  0.4687 -1.4127
31559SOL    HW2  641   1.493   7.793   8.070  0.3204 -2.0626  0.4770
31560SOL     OW  642   1.778   3.341   0.637  0.1360  0.2919 -0.2269
31560SOL    HW1  643   1.738   3.427   0.652  1.7070  0.7360  1.9555
31560SOL    HW2  644   1.870   3.360   0.617  0.4228 -0.8722 -0.1096
31561SOL     OW  645   4.142   0.921   5.341 -0.0326 -0.1776  0.1412
31561SOL    HW1  646   4.203   0.948   5.409 -0.7370 -1.1440  1.1914
31561SOL    HW2  647   4.197   0.888   5.270  0.7442  1.6384 -0.1565
31562SOL     OW  648  10.560   5.483   8.568 -0.2166 -0.1186 -0.6346
31562SOL    HW1  649  10.555   5.573   8.601  1.0531  0.3739 -1.6786
31562SOL    HW2  650  10.469   5.456   8.556 -0.7015  0.0625  2.1442
31563SOL     OW  651   2.000   0.707   6.171  0.0260  0.2827  0.4045
31563SOL    HW1  652   2.095   0.716   6.169  0.2929 -1.8424  0.9478
31563SOL    HW2  653   1.984   0.642   6.240 -1.7035 -0.4459 -0.6200
31564SOL     OW  654   4.406   2.832  10.700  0.3731 -0.2642  0.3748
31564SOL    HW1  655   4.398   2.895  10.771 -0.4757  1.5812 -1.2516
31564SOL    HW2  656   4.318   2.798  10.687 -0.0461  1.3146 -1.3565
31565SOL     OW  657   2.897   7.071   1.783 -0.4675 -0.2443  0.6149
31565SOL    HW1  658   2.936   7.154   1.810 -1.2749  0.3907 -0.1057
31565SOL    HW2  659   2.867   7.086   1.693 -1.1710 -1.1225  0.6816
31566SOL     OW  660   3.402  11.455   1.902  0.4896 -0.5472  0.7309
31566SOL    HW1  661   3.318  11.437   1.859  0.7807 -0.9818  0.3242
31566SOL    HW2  662   3.419  11.377   1.956 -0.1901  0.2796  2.1677
31567SOL     OW  663   6.473   6.422   3.225  0.8782  0.1010 -0.1747
31567SOL    HW1  664   6.562   6.421   3.262  1.4451  0.3033 -1.4553
31567SOL    HW2  665   6.437   6.506   3.252  1.3182  0.2939 -0.1647
31568SOL     OW  666  11.349   6.868   9.311 -0.6559 -0.4634 -0.9667
31568SOL    HW1  667  11.415   6.891   9.377 -0.5083  1.3386 -1.6962
31568SOL    HW2  668  11.282   6.820   9.360 -0.0368 -0.0859  0.2864
31569SOL     OW  669   2.935   1.383  11.660 -0.1188  0.2098  0.8560
31569SOL    HW1  670   3.016   1.349  11.699 -1.5381  0.4567  4.2841
31569SOL    HW2  671   2.883   1.306  11.642  0.3253  0.1288 -0.1576
31570SOL     OW  672   7.347   9.137   1.540  0.1089  0.4302 -0.4282
31570SOL    HW1  673   7.352   9.104   1.451  0.8220  0.9153 -0.5748
31570SOL    HW2  674   7.293   9.216   1.534 -0.8855 -0.2113 -0.2154
31571SOL     OW  675  10.185  11.308   4.925  0.2207 -0.0496 -0.0938
31571SOL    HW1  676  10.159  11.387   4.879 -1.9155 -1.8814 -2.2819
31571SOL    HW2  677  10.103  11.266   4.951  1.2341 -1.9634  0.2481
31572SOL     OW  678   3.232  11.772   5.360  0.1637 -0.2341  0.2144
31572SOL    HW1  679   3.138  11.769   5.341  0.0622 -0.8896  0.7961
31572SOL    HW2  680   3.258  11.862   5.338 -0.3531 -0.3798 -1.0755
31573SOL     OW  681   8.673   5.091   4.469  0.1467 -0.3169  0.2481
31573SOL    HW1  682   8.634   5.144   4.538 -2.1197  0.7241 -1.7021
31573SOL    HW2  683   8.626   5.008   4.472 -1.6525  0.5719 -1.4504
31574SOL     OW  684   9.050   3.834   5.161  0.3535  0.1520  0.2637
31574SOL    HW1  685   9.106   3.808   5.088  0.5590 -0.9537  0.7874
31574SOL    HW2  686   9.107   3.884   5.219  0.3329  0.5493 -0.0526
31575SOL     OW  687   6.551   8.577   4.316 -0.8332 -0.2100 -0.5551
31575SOL    HW1  688   6.610   8.626   4.258 -1.0106 -0.3703 -0.8717
31575SOL    HW2  689   6.470   8.568   4.265 -1.2026  0.1809 -0.0497
31576SOL     OW  690   4.425   1.310   2.113 -0.4739  0.4600  0.6507
31576SOL    HW1  691   4.461   1.221   2.109 -0.0764  0.5642  1.5943
31576SOL    HW2  692   4.336   1.302   2.080 -0.3835 -0.2587  0.5678
31577SOL     OW  693   6.022   2.951   7.342  0.3807  0.1925 -0.4861
31577SOL    HW1  694   6.073   2.978   7.265  1.0255 -1.6432 -0.7682
31577SOL    HW2  695   6.030   3.024   7.403 -0.3966  1.8298 -2.2501
31578SOL     OW  696   9.516   2.125   6.568  0.1390  0.4157 -0.2205
31578SOL    HW1  697   9.547   2.155   6.482 -0.2789  1.1632 -0.1219
31578SOL    HW2  698   9.564   2.180   6.631  0.5090 -0.1895  0.0309
31579SOL     OW  699   2.249   5.048   5.336  0.1018  0.7510  0.3444
31579SOL    HW1  700   2.241   5.040   5.431  0.8996 -0.0256  0.3596
31579SOL    HW2  701   2.321   4.989   5.312 -1.4349 -0.7058 -0.9874
31580SOL     OW  702   8.781   2.294  11.731 -0.2163 -0.8463 -0.6251
31580SOL    HW1  703   8.800   2.280  11.824  0.5005  1.6114 -0.3339
31580SOL    HW2  704   8.769   2.389  11.723 -1.2053 -1.0970 -2.8999
31581SOL     OW  705  12.323   2.567  11.989 -0.4560 -0.1190 -0.6872
31581SOL    HW1  706  12.322   2.477  12.022  0.6837  0.3653  0.7627
31581SOL    HW2  707  12.358   2.560  11.901 -0.7718 -1.1345 -0.7459
31582SOL     OW  708   1.605   2.798   1.917 -0.1580  0.2294 -0.1321
31582SOL    HW1  709   1.656   2.815   1.838 -0.9149  0.8182 -0.5123
31582SOL    HW2  710   1.670   2.780   1.984  0.4720 -1.3412 -1.1159
31583SOL     OW  711   8.265   2.524  10.161 -0.1102 -0.1135  0.0204
31583SOL    HW1  712   8.337   2.586  10.156 -1.1998  1.1920  0.0082
31583SOL    HW2  713   8.201   2.556  10.098 -2.0571  0.6435  2.2119
31584SOL     OW  714   4.607   3.992  10.253  0.3239  0.4890 -0.3049
31584SOL    HW1  715   4.562   3.959  10.176  1.2848  1.9448 -1.5525
31584SOL    HW2  716   4.617   4.086  10.237 -0.5140  1.0875  2.1592
31585SOL     OW  717  11.517   2.028  10.513 -0.1536  0.6089  0.6413
31585SOL    HW1  718  11.426   2.045  10.487  0.1950  1.4231 -0.1144
31585SOL    HW2  719  11.517   2.041  10.608 -0.4424  2.6360  0.4255
31586SOL     OW  720   0.480   2.251   4.737 -0.7287 -0.0849 -1.1663
31586SOL    HW1  721   0.442   2.266   4.650 -0.4902  1.4884 -1.0157
31586SOL    HW2  722   0.421   2.295   4.797  0.4343  0.9861 -0.7767
31587SOL     OW  723   5.542   4.008   5.264 -0.4181  0.1355 -0.2411
31587SOL    HW1  724   5.555   3.936   5.326  1.1239 -0.1023 -0.7905
31587SOL    HW2  725   5.521   3.964   5.181 -1.3651  0.4120 -0.1627
31588SOL     OW  726  11.079   8.297   0.144 -0.2411 -0.0982 -0.2305
31588SOL    HW1  727  11.035   8.230   0.092  1.2622 -0.7363 -0.7332
31588SOL    HW2  728  11.013   8.326   0.207 -2.2618  0.9987 -2.6768
31589SOL     OW  729   7.759   1.513  11.526  0.0461 -0.3499 -0.3919
31589SOL    HW1  730   7.753   1.567  11.447  0.1307 -1.3874 -1.1141
31589SOL    HW2  731   7.770   1.577  11.597  1.0794  0.5384 -1.3218
31590SOL     OW  732  11.472   9.026   7.211  0.5973 -0.0459 -0.0152
31590SOL    HW1  733  11.534   9.064   7.273  0.9867 -0.2523 -0.2781
31590SOL    HW2  734  11.498   8.934   7.204  0.7446  0.0447 -0.7208
31591SOL     OW  735   8.134   2.532  11.362  0.3353  0.3091 -0.7834
31591SOL    HW1  736   8.111   2.550  11.453 -1.9214 -0.5589 -1.1217
31591SOL    HW2  737   8.229   2.544  11.358  0.8153 -1.5685  2.1597
31592SOL     OW  738   3.978   6.333   8.840  0.0588  0.4768 -0.3459
31592SOL    HW1  739   4.035   6.265   8.876 -1.0605 -0.2700  0.0452
31592SOL    HW2  740   4.039   6.399   8.806  1.2156 -1.1896 -1.7006
31593SOL     OW  741   1.182   3.924   8.543 -0.0440  0.1024 -0.1320
31593SOL    HW1  742   1.273   3.943   8.563 -0.0743 -0.4800  0.6045
31593SOL    HW2  743   1.181   3.834   8.512 -0.8986 -1.7793  4.5686
31594SOL     OW  744   3.002   9.533   7.781 -0.6229  0.0426 -0.2930
31594SOL    HW1  745   2.958   9.593   7.841  1.1453  0.6012  0.4931
31594SOL    HW2  746   3.083   9.578   7.757  0.3513 -1.6803 -0.3496
31595SOL     OW  747   9.155   6.491   7.906  0.1612  0.2963  0.2486
31595SOL    HW1  748   9.206   6.411   7.893 -0.2652  0.0386  0.1514
31595SOL    HW2  749   9.079   6.481   7.848 -0.7701  0.0030  1.4704
31596SOL     OW  750   8.312  10.540  11.975  0.0709 -0.3736  0.4462
31596SOL    HW1  751   8.336  10.489  11.898 -0.5170 -0.5120  0.3508
31596SOL    HW2  752   8.385  10.528  12.036  0.7219  0.0605 -0.2369
31597SOL     OW  753   7.327  10.018   4.578  0.4083 -0.3874  1.0320
31597SOL    HW1  754   7.365  10.068   4.506  1.6639 -0.8471  1.3595
31597SOL    HW2  755   7.376  10.046   4.655 -0.1839 -0.7148  1.5383
31598SOL     OW  756   1.567   5.138   6.911 -0.4525  0.5517 -0.3405
31598SOL    HW1  757   1.525   5.067   6.862  1.1064 -0.5560 -0.1611
31598SOL    HW2  758   1.552   5.216   6.858 -0.4552 -0.2816 -1.6057
31599SOL     OW  759   6.007   5.004  10.045  0.1559 -0.0286  0.0984
31599SOL    HW1  760   5.983   5.002  10.137  0.7402 -0.1235  0.2529
31599SOL    HW2  761   5.939   4.951  10.002 -0.1790  0.1065  0.4547
31600SOL     OW  762   7.790   4.841   0.411  0.1101  0.1220  0.1880
31600SOL    HW1  763   7.847   4.767   0.389  0.5750  0.2639  0.8801
31600SOL    HW2  764   7.851   4.911   0.433 -0.3267  0.6730 -0.3099
31601SOL     OW  765   3.966   4.026   1.977  0.2056 -0.0806 -0.7415
31601SOL    HW1  766   3.941   4.108   2.020  1.5107  0.5790 -1.1848
31601SOL    HW2  767   3.953   3.959   2.044  1.5798  0.8428  0.5069
31602SOL     OW  768   9.048   4.194   3.051  0.4760 -0.2593  0.3050
31602SOL    HW1  769   9.107   4.205   3.125  0.7398  0.6071 -0.0142
31602SOL    HW2  770   9.090   4.244   2.980 -1.1756  1.3201  0.3815
31603SOL     OW  771   0.251  11.209  12.284  0.1364  0.2761 -0.3176
31603SOL    HW1  772   0.215  11.189  12.197  1.1624 -0.6152 -0.5534
31603SOL    HW2  773   0.182  11.182  12.345  0.1770 -0.9176 -0.7781
31604SOL     OW  774   8.592  10.107   9.004  0.0236  0.1854  0.3398
31604SOL    HW1  775   8.551  10.105   9.091  2.6086  1.9897  1.7687
31604SOL    HW2  776   8.682  10.079   9.021  0.7081  1.0167 -1.6861
31605SOL     OW  777  10.134   0.282   8.748  0.1990  0.3816  0.1872
31605SOL    HW1  778  10.070   0.319   8.810 -0.3756  0.2818 -0.3424
31605SOL    HW2  779  10.092   0.290   8.663  0.0812 -1.4310  0.0470
31606SOL     OW  780   4.489  11.302   7.267 -0.0656  0.0807  0.3428
31606SOL    HW1  781   4.551  11.293   7.339 -0.2646 -1.3047  0.3699
31606SOL    HW2  782   4.540  11.287   7.188 -0.0391  0.6615  0.2412
31607SOL     OW  783   1.212   9.601   7.425 -0.3142  0.7772  0.5146
31607SOL    HW1  784   1.200   9.686   7.382  1.4796  1.0342  0.4357
31607SOL    HW2  785   1.212   9.537   7.354 -0.4054  0.8532  0.4461
31608SOL     OW  786  12.438   3.156   7.289  0.1663  0.4385 -0.3250
31608SOL    HW1  787  12.418   3.187   7.377 -1.5909 -1.7156  0.1357
31608SOL    HW2  788  12.531   3.134   7.292 -0.2072 -1.1969  1.5987
31609SOL     OW  789   2.412  11.792   3.112  0.2329  0.2720 -0.1011
31609SOL    HW1  790   2.410  11.756   3.201  0.9981 -2.0318 -0.9296
31609SOL    HW2  791   2.498  11.834   3.105  0.6371 -0.5262 -0.0751
31610SOL     OW  792   6.413   4.398   8.635 -0.5411  0.5399  0.0897
31610SOL    HW1  793   6.369   4.381   8.719 -0.1661  1.2645  0.4372
31610SOL    HW2  794   6.342   4.424   8.576 -0.7966  0.1039  0.1966
31611SOL     OW  795   9.049  10.274   2.854 -0.2191 -0.3359  0.0847
31611SOL    HW1  796   9.015  10.209   2.793 -1.7231 -0.7012  1.2528
31611SOL    HW2  797   8.972  10.301   2.905  0.7570  0.8880  0.9547
31612SOL     OW  798   6.146   0.883   2.965  0.1005  0.0648  0.2228
31612SOL    HW1  799   6.115   0.842   3.045 -1.0453  0.6721  0.1058
31612SOL    HW2  800   6.118   0.975   2.971  1.8482  0.6557  0.0842
31613SOL     OW  801  12.316   8.392   1.111  0.4019  0.3545  0.1073
31613SOL    HW1  802  12.278   8.376   1.024 -0.3169 -0.8051  0.6138
31613SOL    HW2  803  12.387   8.327   1.118 -1.0796 -1.2260  1.2933
31614SOL     OW  804  10.126   5.417   3.196  0.0434 -0.2131 -0.1339
31614SOL    HW1  805  10.126   5.506   3.163 -1.1846 -0.9872 -2.4709
31614SOL    HW2  806  10.189   5.371   3.141  2.0017 -0.4851  2.1920
31615SOL     OW  807  12.395   1.443   2.437 -0.0705 -0.5651 -0.2275
31615SOL    HW1  808  12.359   1.484   2.358  0.4063 -0.3281 -0.3246
31615SOL    HW2  809  12.389   1.349   2.420  2.5169 -0.5392 -1.7208
31616SOL     OW  810   1.716   1.409  12.261 -0.3352 -0.2549  0.1840
31616SOL    HW1  811   1.725   1.320  12.226  2.0401 -0.6670  1.6708
31616SOL    HW2  812   1.685   1.397  12.351  2.1255  0.2206  1.1574
31617SOL     OW  813   8.414   3.992   3.333  0.7685  0.1808 -0.1806
31617SOL    HW1  814   8.474   3.922   3.360 -1.6903 -1.9746  0.1320
31617SOL    HW2  815   8.422   4.059   3.400  0.1856 -1.7419  1.9530
31618SOL     OW  816   8.518  11.817   1.337 -0.1932  0.7444  0.4996
31618SOL    HW1  817   8.477  11.770   1.409 -0.1684 -0.4240 -0.2283
31618SOL    HW2  818   8.448  11.830   1.273 -0.2970  2.0716  0.8406
31619SOL     OW  819   0.496   0.596   6.503  0.5502  0.4808 -0.3147
31619SOL    HW1  820   0.542   0.645   6.571 -0.5190 -0.5905  1.2601
31619SOL    HW2  821   0.465   0.663   6.441  0.2620  1.6758  1.0595
31620SOL     OW  822   9.321   4.752  10.458 -0.3194 -0.1574  0.0001
31620SOL    HW1  823   9.392   4.812  10.482  0.3520  0.1546 -2.4847
31620SOL    HW2  824   9.347   4.668  10.494  1.6732 -0.1790 -1.3075
31621SOL     OW  825   1.945   8.375   5.561  0.6787  0.2900 -0.3217
31621SOL    HW1  826   1.854   8.357   5.539  0.5469  0.9423 -0.3420
31621SOL    HW2  827   1.994   8.355   5.482  0.4867  0.4508 -0.4816
31622SOL     OW  828   8.403   2.210   2.545 -0.4745 -0.0988 -0.7947
31622SOL    HW1  829   8.342   2.236   2.476 -2.1880 -0.3891  0.5407
31622SOL    HW2  830   8.379   2.265   2.620 -0.2871 -1.4314  0.2924
31623SOL     OW  831   2.610   2.679   0.650  0.3639 -0.0339  0.4188
31623SOL    HW1  832   2.599   2.658   0.558  0.2236 -1.6563  0.7769
31623SOL    HW2  833   2.543   2.745   0.668 -1.6293 -1.8351  0.0171
31624SOL     OW  834  10.137  11.375   1.708 -0.4167  0.6384 -0.3600
31624SOL    HW1  835  10.222  11.335   1.728 -0.8151  0.7787  1.9522
31624SOL    HW2  836  10.152  11.469   1.716 -0.7813  0.6623  0.0601
31625SOL     OW  837   2.426   8.368   6.561  0.0185 -0.3222  0.0084
31625SOL    HW1  838   2.499   8.348   6.502 -0.2382 -0.2568 -0.3386
31625SOL    HW2  839   2.381   8.441   6.518 -0.5400 -0.6882 -0.0374
31626SOL     OW  840   0.580   0.598  10.308  0.1047  0.2645  0.1274
31626SOL    HW1  841   0.518   0.578  10.237  0.7168  0.5066 -0.4875
31626SOL    HW2  842   0.575   0.522  10.366  1.1063 -0.9244 -1.2630
31627SOL     OW  843   5.697   9.322   0.923 -0.2533 -0.3030 -0.4098
31627SOL    HW1  844   5.720   9.375   0.999  0.4164  0.0442 -0.8451
31627SOL    HW2  845   5.667   9.239   0.960  2.2337 -0.9920  0.1991
31628SOL     OW  846   1.322   0.134  10.586  0.0964  0.2405 -0.1344
31628SOL    HW1  847   1.339   0.040  10.590  1.9032  0.5114 -0.5303
31628SOL    HW2  848   1.382   0.172  10.650 -0.0867  1.1766 -0.5028
31629SOL     OW  849   7.130   4.791   8.687  0.2689 -0.0066 -0.1942
31629SOL    HW1  850   7.195   4.723   8.705 -0.7048 -1.4156 -1.6964
31629SOL    HW2  851   7.047   4.753   8.714 -0.6857 -0.6683 -3.6086
31630SOL     OW  852   9.903  10.311   8.938  0.2530 -0.3705  0.2424
31630SOL    HW1  853   9.930  10.361   8.861 -0.2870  1.6456  1.3216
31630SOL    HW2  854   9.813  10.337   8.954  0.1361 -1.2606  1.1924
31631SOL     OW  855   2.572   2.063   2.280  0.4739  0.1814  0.0250
31631SOL    HW1  856   2.566   1.968   2.290  0.8963  0.1467 -0.0382
31631SOL    HW2  857   2.610   2.094   2.362  1.8638  0.1225 -0.5769
31632SOL     OW  858   9.540   0.367   3.155  0.1567  0.4156  0.1670
31632SOL    HW1  859   9.635   0.369   3.165  0.7344 -0.8252 -3.3566
31632SOL    HW2  860   9.508   0.326   3.235  2.7970 -0.8280  0.6968
31633SOL     OW  861   1.382   3.846  12.427  0.4175 -0.3354  0.4093
31633SOL    HW1  862   1.445   3.788  12.385  1.5567  1.2049 -0.0979
31633SOL    HW2  863   1.371   3.811  12.515  1.1222 -1.2657  0.1379
31634SOL     OW  864  12.412  11.527  11.534 -0.4693  0.0331  0.0954
31634SOL    HW1  865  12.409  11.458  11.468 -4.1252 -0.1403  0.2745
31634SOL    HW2  866  12.342  11.587  11.510  0.6119  2.0559  1.6931
31635SOL     OW  867   1.301   8.706  10.266  0.4412  0.1642 -0.2629
31635SOL    HW1  868   1.359   8.781  10.247  0.6804 -0.3176 -1.5517
31635SOL    HW2  869   1.215   8.745  10.276  0.8090  0.7804  0.6604
31636SOL     OW  870   2.395   0.321   4.911  0.5086 -0.0106 -0.0686
31636SOL    HW1  871   2.300   0.333   4.915  0.6308  1.1241  4.5661
31636SOL    HW2  872   2.431   0.409   4.910  1.6338 -0.4187 -1.9811
31637SOL     OW  873   1.302  10.266   0.362  0.0688 -0.1679 -0.1026
31637SOL    HW1  874   1.307  10.254   0.457  0.3578  1.9438  0.2076
31637SOL    HW2  875   1.264  10.185   0.329  1.6487 -1.7021  1.6092
31638SOL     OW  876   8.001   8.497  10.589  0.2290 -0.7218 -0.4279
31638SOL    HW1  877   7.942   8.472  10.518  0.7606 -2.0686 -0.4328
31638SOL    HW2  878   8.061   8.560  10.550 -0.2714 -0.4885 -0.8276
31639SOL     OW  879   2.816   2.170   3.058  0.8768  0.1133  0.7609
31639SOL    HW1  880   2.802   2.077   3.079 -0.1921  0.2885  0.9114
31639SOL    HW2  881   2.851   2.169   2.969 -3.2679 -0.3473 -1.0891
31640SOL     OW  882  11.921  10.639   6.260 -0.3586  0.0287 -0.2003
31640SOL    HW1  883  11.971  10.704   6.211 -1.1435  0.2357 -0.7547
31640SOL    HW2  884  11.981  10.608   6.327  0.4771  0.3321 -0.7907
31641SOL     OW  885   0.506   3.496   5.763  0.2702  0.2345  0.2671
31641SOL    HW1  886   0.503   3.514   5.857 -0.8836  0.7984  0.1382
31641SOL    HW2  887   0.534   3.404   5.757  0.7010  0.3026  1.1434
31642SOL     OW  888   4.386   3.779   1.745 -0.4450  0.1526  0.3042
31642SOL    HW1  889   4.344   3.864   1.760 -0.7255 -0.0630  0.7602
31642SOL    HW2  890   4.462   3.780   1.803 -0.4117  0.1190  0.2611
31643SOL     OW  891   3.842   2.393   2.171 -0.8695 -0.1916  0.0042
31643SOL    HW1  892   3.894   2.353   2.102 -1.6876 -0.2936 -0.5613
31643SOL    HW2  893   3.801   2.320   2.217 -0.5590 -0.1098  0.4231
31644SOL     OW  894   6.172   3.217  12.249  0.6526  0.2386 -0.2054
31644SOL    HW1  895   6.235   3.271  12.295  0.3139 -0.3032  0.9225
31644SOL    HW2  896   6.131   3.164  12.317 -0.2910 -0.1519 -1.0478
31645SOL     OW  897   6.868  10.330   5.500 -0.5574 -0.0752 -0.4020
31645SOL    HW1  898   6.860  10.244   5.540 -1.3043 -0.4680 -1.3451
31645SOL    HW2  899   6.958  10.333   5.467 -0.0084  0.1658  1.0370
31646SOL     OW  900   6.139   4.214   7.642  0.4141 -0.1429  0.0918
31646SOL    HW1  901   6.109   4.127   7.667 -1.1540  0.1575 -0.6088
31646SOL    HW2  902   6.202   4.239   7.710 -0.5545 -1.0477  1.3674
31647SOL     OW  903   3.805   8.126   2.440  0.3183  0.4784  0.3908
31647SOL    HW1  904   3.749   8.049   2.436  1.1121 -0.2208  2.0602
31647SOL    HW2  905   3.838   8.137   2.350  1.8036 -2.3466  0.4987
31648SOL     OW  906   8.762  10.940  10.804  0.9517  0.6651 -0.6706
31648SOL    HW1  907   8.796  11.013  10.857  1.3101  0.3963 -0.5209
31648SOL    HW2  908   8.715  10.982  10.732 -1.4244  1.0701  1.0133
31649SOL     OW  909  11.699   5.297  10.893 -0.3252  0.1411 -0.1448
31649SOL    HW1  910  11.649   5.366  10.850  1.8733  1.2871 -1.0313
31649SOL    HW2  911  11.779   5.341  10.923  1.3825 -2.0952 -1.1586
31650SOL     OW  912   8.652   4.712  11.722  0.2452  0.3058  0.2426
31650SOL    HW1  913   8.609   4.664  11.650  0.3041 -0.8235  0.9340
31650SOL    HW2  914   8.665   4.646  11.790 -1.8519  1.8107  2.2224
31651SOL     OW  915  11.145   3.192   0.530 -0.0326  0.2596  0.7708
31651SOL    HW1  916  11.116   3.244   0.604 -2.1584 -0.3984  0.4758
31651SOL    HW2  917  11.171   3.256   0.463 -1.1632  0.9130  0.9500
31652SOL     OW  918   7.396   2.422  12.393  0.4610  0.2162 -0.3799
31652SOL    HW1  919   7.430   2.340  12.357  2.0011  0.3811  0.6225
31652SOL    HW2  920   7.456   2.489  12.360 -1.8995  1.2903 -2.8393
31653SOL     OW  921   7.956   4.032  10.037  0.5870  0.5831  0.1463
31653SOL    HW1  922   7.956   4.080  10.119 -1.0129  0.8067  0.0528
31653SOL    HW2  923   7.990   3.946  10.059  0.7001  0.8192  0.9146
31654SOL     OW  924   6.379   6.025  11.066  0.3451 -0.1715 -0.2114
31654SOL    HW1  925   6.425   6.106  11.044  0.8633  0.1242  1.7060
31654SOL    HW2  926   6.331   6.047  11.146 -0.4772 -1.4243 -0.3433
31655SOL     OW  927   0.211   9.964   3.708  0.5948  0.4157 -0.2756
31655SOL    HW1  928   0.175   9.892   3.655  0.3049 -0.2909  0.8436
31655SOL    HW2  929   0.254   9.920   3.781  0.6845  1.3831  0.2603
31656SOL     OW  930   5.707   2.014   2.813  0.4042  0.4659  0.5930
31656SOL    HW1  931   5.611   2.022   2.814  0.4065  0.9401 -0.9876
31656SOL    HW2  932   5.738   2.091   2.860  0.0291  1.1934 -0.3243
31657SOL     OW  933   6.917  10.192   7.233 -0.1554  0.1277 -0.6191
31657SOL    HW1  934   6.870  10.274   7.248 -0.0459 -0.0094  0.4956
31657SOL    HW2  935   6.957  10.171   7.317  3.2017  1.0187 -1.8357
31658SOL     OW  936   4.406   1.543   1.197  0.4078 -0.1105  0.5892
31658SOL    HW1  937   4.341   1.587   1.251 -0.1086  1.0752 -0.9508
31658SOL    HW2  938   4.488   1.589   1.216  0.1463  0.5860  0.0707
31659SOL     OW  939   3.030   6.442   7.156 -0.3886  0.7351  0.2678
31659SOL    HW1  940   3.075   6.363   7.187  0.4600  1.3603  0.6850
31659SOL    HW2  941   2.938   6.416   7.149 -0.0776 -0.3883  0.0598
31660SOL     OW  942   4.476   3.262   2.987 -0.5602 -0.0784 -0.3198
31660SOL    HW1  943   4.427   3.217   3.056 -1.9960  0.4164 -0.9584
31660SOL    HW2  944   4.508   3.342   3.028 -1.3794  0.1969 -0.1923
31661SOL     OW  945   9.836   8.218  11.441 -0.2246 -0.0803 -0.0569
31661SOL    HW1  946   9.746   8.210  11.472  0.6570 -1.0648  2.5818
31661SOL    HW2  947   9.887   8.236  11.521  2.1507 -1.7551 -1.0698
31662SOL     OW  948   7.262   6.997  10.005  0.1068 -0.1090 -0.3154
31662SOL    HW1  949   7.220   7.083  10.003  1.9343  0.8385 -0.3758
31662SOL    HW2  950   7.299   6.991  10.093 -0.8746 -1.2980  0.0329
31663SOL     OW  951  11.770   6.150   0.627  0.0501  0.5558  0.2668
31663SOL    HW1  952  11.765   6.206   0.704 -1.3520 -2.9538  3.0269
31663SOL    HW2  953  11.692   6.173   0.576  1.2322  3.2300 -0.5239
31664SOL     OW  954   1.901  11.143   5.556  0.5793  0.2939 -0.6371
31664SOL    HW1  955   1.894  11.048   5.545  2.4385 -0.0500  0.6721
31664SOL    HW2  956   1.971  11.169   5.497 -0.3237  0.9867 -1.4438
31665SOL     OW  957  10.260   0.906  12.250 -0.2480 -0.6171  0.0906
31665SOL    HW1  958  10.306   0.898  12.167  0.5551 -0.1424  0.4810
31665SOL    HW2  959  10.267   0.999  12.273 -1.2610 -0.5580  0.2462
31666SOL     OW  960   9.682   2.329   8.750 -0.2603  0.1379  0.0602
31666SOL    HW1  961   9.774   2.334   8.722  0.0593  0.0782  1.0566
31666SOL    HW2  962   9.678   2.386   8.826 -0.8559 -0.5292  0.5303
31667SOL     OW  963   2.546   3.829   6.934 -0.2489 -0.2235  0.2045
31667SOL    HW1  964   2.457   3.806   6.907  0.2259 -1.7316 -0.1732
31667SOL    HW2  965   2.550   3.805   7.027 -1.1678  2.8324  1.1722
31668SOL     OW  966  11.387   2.014   1.642 -0.0950  0.4551  0.2278
31668SOL    HW1  967  11.340   2.097   1.635  0.6395  0.8400 -0.3978
31668SOL    HW2  968  11.363   1.966   1.562 -0.0450  0.3191  0.2940
31669SOL     OW  969   3.557   2.667  12.021  0.5638  0.2367 -0.0521
31669SOL    HW1  970   3.626   2.612  12.057 -0.8806 -1.3105  0.4716
31669SOL    HW2  971   3.476   2.619  12.038 -0.9963  3.2198  1.8726
31670SOL     OW  972   9.854   4.542   2.430 -0.3066  0.1076 -0.1961
31670SOL    HW1  973   9.793   4.486   2.478 -1.1074  0.0326 -1.2638
31670SOL    HW2  974   9.831   4.631   2.458  0.2954 -0.0176  0.7389
31671SOL     OW  975   1.604   4.470   3.737 -0.8354 -0.4695 -0.4289
31671SOL    HW1  976   1.606   4.375   3.728  3.5235 -0.7950  1.4381
31671SOL    HW2  977   1.569   4.486   3.824  1.8297 -0.7827  0.8046
31672SOL     OW  978   4.589   5.804  12.041  0.1554  0.3491  0.0975
31672SOL    HW1  979   4.607   5.890  12.079  0.3932 -0.1044  1.0318
31672SOL    HW2  980   4.665   5.786  11.986  0.3252  0.5303  0.2709
31673SOL     OW  981   2.312  12.356  10.910  0.2212  0.6203 -0.5760
31673SOL    HW1  982   2.272  12.441  10.893  0.8656  1.1011  0.2161
31673SOL    HW2  983   2.337  12.323  10.824 -0.6516  0.9156 -0.9537
31674SOL     OW  984  12.012   1.180   6.643  0.2425  0.0629  0.8343
31674SOL    HW1  985  11.953   1.139   6.707 -0.2643  0.0139  0.3450
31674SOL    HW2  986  12.099   1.159   6.675  0.0222  0.9632  2.1133
31675SOL     OW  987   8.778   7.440   4.796 -0.1096  0.0636 -0.0088
31675SOL    HW1  988   8.763   7.494   4.719  1.3276 -1.2565 -1.2647
31675SOL    HW2  989   8.730   7.359   4.780  0.4738 -0.3576  0.3371
31676SOL     OW  990   0.973   1.999   9.745 -0.3721  0.5563  0.7007
31676SOL    HW1  991   0.883   1.990   9.712  0.9026 -1.8963 -2.6710
31676SOL    HW2  992   1.000   2.086   9.717 -1.0685  0.5490 -0.0278
31677SOL     OW  993   2.836   5.244  10.639 -0.0547 -0.8341  0.0240
31677SOL    HW1  994   2.931   5.252  10.627 -0.2240 -0.0787 -0.9854
31677SOL    HW2  995   2.814   5.159  10.602  0.1768 -0.8273 -0.1298
31678SOL     OW  996  12.239  11.597   8.306 -0.0012  0.0312 -0.4533
31678SOL    HW1  997  12.319  11.607   8.356 -0.4140 -1.7528  0.6494
31678SOL    HW2  998  12.216  11.687   8.279 -0.1083  1.2200  3.0997
31679SOL     OW  999  10.933   2.920   8.626 -0.0062 -0.2094 -0.1901
31679SOL    HW1 1000  10.839   2.899   8.621 -0.0546  0.2748 -2.3111
31679SOL    HW2 1001  10.972   2.842   8.664 -1.1364 -0.9263 -0.4255
31680SOL     OW 1002   6.867  12.346   0.622  0.3786 -0.4132  0.5264
31680SOL    HW1 1003   6.951  12.367   0.581  0.3754  0.4981  0.9428
31680SOL    HW2 1004   6.885  12.351   0.716 -0.1186 -0.2711  0.6175
31681SOL     OW 1005   6.188   3.427   2.760  0.1622 -0.2745 -0.0534
31681SOL    HW1 1006   6.208   3.467   2.845 -1.5965  1.6884 -0.4837
31681SOL    HW2 1007   6.234   3.482   2.697 -1.1608  0.2822 -0.5673
31682SOL     OW 1008   5.632   1.931   1.049 -0.7662  0.9249 -0.0440
31682SOL    HW1 1009   5.606   2.023   1.062 -3.2719  0.4992 -1.3042
31682SOL    HW2 1010   5.691   1.912   1.122  0.0365  3.5888  0.1128
31683SOL     OW 1011   6.776  10.158   6.216  0.2385 -0.0383 -0.0353
31683SOL    HW1 1012   6.726  10.076   6.218  0.0825  0.0599  0.2235
31683SOL    HW2 1013   6.732  10.214   6.280  0.7799 -0.0023  0.3118
31684SOL     OW 1014   2.359   8.475   4.288  0.1683 -0.5863 -0.5581
31684SOL    HW1 1015   2.403   8.432   4.361 -0.1689  1.7771  1.1504
31684SOL    HW2 1016   2.375   8.418   4.213  3.4910 -1.3678  0.5959
31685SOL     OW 1017   8.609   7.931   1.899 -0.1164 -0.3865  0.2912
31685SOL    HW1 1018   8.539   7.869   1.877 -1.3610  1.3191 -0.7129
31685SOL    HW2 1019   8.605   7.938   1.994 -1.7486  0.1364  0.2129
31686SOL     OW 1020   1.801   2.481   7.753  0.0371 -0.3720 -0.1164
31686SOL    HW1 1021   1.815   2.517   7.841  1.0690 -0.5028 -0.2082
31686SOL    HW2 1022   1.835   2.392   7.758  1.2757  0.0259 -0.9620
31687SOL     OW 1023   2.224   4.295   0.059  0.0293  0.0435  0.2803
31687SOL    HW1 1024   2.271   4.330   0.135 -1.0994 -0.0618  1.0562
31687SOL    HW2 1025   2.155   4.359   0.042 -0.5056 -0.5605  0.1398
31688SOL     OW 1026   7.197  11.894  11.888 -0.2836 -0.3556 -0.3532
31688SOL    HW1 1027   7.228  11.984  11.880 -0.6031 -0.1672  0.4916
31688SOL    HW2 1028   7.135  11.883  11.816 -0.2840  0.1184 -0.4242
31689SOL     OW 1029  11.330   4.244   8.932  0.2484 -0.1427  0.3101
31689SOL    HW1 1030  11.237   4.224   8.923  0.0303  1.4801 -1.7477
31689SOL    HW2 1031  11.372   4.195   8.862  0.7630  0.1928  0.3785
31690SOL     OW 1032  10.609   7.298   6.665  0.4142  0.1347 -0.0044
31690SOL    HW1 1033  10.625   7.241   6.740  0.0909 -2.1177 -1.5458
31690SOL    HW2 1034  10.514   7.306   6.660  0.4256  0.0870 -0.3156
31691SOL     OW 1035   5.914   5.824   3.366 -0.1851 -0.4271  0.2782
31691SOL    HW1 1036   5.866   5.841   3.285  0.2281  3.0285  0.6288
31691SOL    HW2 1037   5.863   5.867   3.434  1.6636  0.4661  1.1690
31692SOL     OW 1038   7.239   6.096   3.257 -0.1032  0.2320  0.8488
31692SOL    HW1 1039   7.201   6.008   3.264  2.1890 -0.7691  1.5315
31692SOL    HW2 1040   7.245   6.112   3.163  0.6109 -0.9013  0.6859
31693SOL     OW 1041   7.699   8.484  11.670  0.3430 -0.1181  0.0800
31693SOL    HW1 1042   7.771   8.494  11.607  0.3208 -1.0939 -0.1208
31693SOL    HW2 1043   7.707   8.393  11.700  0.2057  0.2633  1.3052
31694SOL     OW 1044  11.317  10.493   5.637  0.1839  0.3201  0.1737
31694SOL    HW1 1045  11.380  10.509   5.708 -0.6985 -0.4236  1.1670
31694SOL    HW2 1046  11.370  10.462   5.564  1.0670  0.5606  0.6986
31695SOL     OW 1047  10.817   1.001   1.376  0.2579 -0.3970  0.1334
31695SOL    HW1 1048  10.893   0.965   1.331  0.9550  0.6050  0.4836
31695SOL    HW2 1049  10.824   0.969   1.466  0.3490 -0.1805  0.2033
31696SOL     OW 1050   9.685   7.615   3.364  0.7044  0.3755 -0.2683
31696SOL    HW1 1051   9.768   7.577   3.339  1.3095 -0.8252  3.0841
31696SOL    HW2 1052   9.707   7.703   3.395  0.2289  1.1410 -1.9493
31697SOL     OW 1053   9.323   3.735   4.226  0.2414  0.1734  0.2933
31697SOL    HW1 1054   9.372   3.707   4.304  0.4580 -0.7872 -0.1729
31697SOL    HW2 1055   9.391   3.763   4.164  0.5435 -3.6500 -1.3719
31698SOL     OW 1056   0.366   4.785   2.626  0.4719  0.8114 -0.4099
31698SOL    HW1 1057   0.355   4.749   2.714 -1.3245  2.1724 -0.0154
31698SOL    HW2 1058   0.316   4.866   2.627  1.5393  1.5539 -2.3009
31699SOL     OW 1059   5.993   8.923   3.170  0.3470 -0.1060  0.5405
31699SOL    HW1 1060   6.026   9.006   3.203  0.8119  0.3259 -0.9166
31699SOL    HW2 1061   6.037   8.857   3.223  0.9504  0.5529  0.8744
31700SOL     OW 1062   2.773   5.241   4.152  0.1189 -0.5290  0.1780
31700SOL    HW1 1063   2.808   5.330   4.147  0.0462 -0.5141 -0.0456
31700SOL    HW2 1064   2.684   5.248   4.119 -0.8275 -0.1748  2.5984
31701SOL     OW 1065   6.098   8.572   6.372 -0.2798 -0.0708  0.3812
31701SOL    HW1 1066   6.162   8.573   6.301  0.0230  1.3252  0.6396
31701SOL    HW2 1067   6.142   8.617   6.444 -1.0811 -0.2421  0.9872
31702SOL     OW 1068   0.602   4.146   1.589 -0.5278  0.6380  0.1572
31702SOL    HW1 1069   0.543   4.075   1.615 -0.5025  1.3834  2.5126
31702SOL    HW2 1070   0.678   4.103   1.552 -0.7137 -0.5412  1.1130
31703SOL     OW 1071   7.792   6.462  10.825 -0.1434  0.2300 -0.0823
31703SOL    HW1 1072   7.794   6.373  10.790  1.8823  0.3210 -0.3468
31703SOL    HW2 1073   7.779   6.450  10.919 -0.1058 -0.3362 -0.1460
31704SOL     OW 1074  12.199   3.480   5.383  0.1347 -0.1750  0.0754
31704SOL    HW1 1075  12.129   3.456   5.444 -0.1890  0.5356 -0.0038
31704SOL    HW2 1076  12.159   3.543   5.324  0.2721 -1.3062 -1.2883
31705SOL     OW 1077   7.793   3.363   0.295 -0.0835  0.3072  0.4219
31705SOL    HW1 1078   7.770   3.436   0.352  0.5057  1.4073 -0.6991
31705SOL    HW2 1079   7.882   3.383   0.265  0.5127 -1.4144  0.9044
31706SOL     OW 1080   6.419   7.544   5.229 -0.0461  0.1604  0.2248
31706SOL    HW1 1081   6.413   7.508   5.317  1.1382 -0.2579  0.1600
31706SOL    HW2 1082   6.359   7.619   5.229 -0.8360 -0.4513  1.0559
31707SOL     OW 1083  10.450   5.249  11.279  0.0089  0.3875 -0.5549
31707SOL    HW1 1084  10.522   5.190  11.296 -0.4219  0.0312  0.0561
31707SOL    HW2 1085  10.422   5.280  11.365  1.0550  2.5040 -0.8965
31708SOL     OW 1086  10.389   5.799   7.601 -0.1029 -0.9524  0.0806
31708SOL    HW1 1087  10.474   5.826   7.565  0.2958 -0.9494  1.0018
31708SOL    HW2 1088  10.410   5.759   7.685 -0.8701 -2.4153 -0.3975
31709SOL     OW 1089   4.888   4.926   2.814 -0.0351  0.0192  0.2334
31709SOL    HW1 1090   4.904   5.012   2.774 -0.3327  0.3845  0.8722
31709SOL    HW2 1091   4.925   4.935   2.902  1.6316 -1.1356 -0.3073
31710SOL     OW 1092   4.479   1.713   2.269 -0.0322 -0.2331 -0.0781
31710SOL    HW1 1093   4.555   1.772   2.270 -0.6091  0.5306  0.5620
31710SOL    HW2 1094   4.485   1.667   2.186  0.6318  0.4891 -0.4448
31711SOL     OW 1095   2.546  10.945   2.440 -0.2709 -0.1639  0.2119
31711SOL    HW1 1096   2.636  10.962   2.467  0.6015 -2.5084 -0.9276
31711SOL    HW2 1097   2.530  10.854   2.466 -2.2900  0.1651  0.2819
31712SOL     OW 1098   7.970  11.608  12.437  0.5049  0.8987  0.2829
31712SOL    HW1 1099   8.066  11.610  12.433  0.6994  1.3580  3.1672
31712SOL    HW2 1100   7.948  11.515  12.433  1.1975  0.6958  0.9223
31713SOL     OW 1101  11.490   1.835   1.124 -0.2961 -0.3253 -0.1218
31713SOL    HW1 1102  11.552   1.870   1.188 -0.3648  0.3122 -0.3917
31713SOL    HW2 1103  11.544   1.794   1.057 -0.1334  0.6199 -0.5838
31714SOL     OW 1104   7.599   9.387   4.512  0.5855 -0.2369 -0.1281
31714SOL    HW1 1105   7.564   9.450   4.450  0.8340 -1.2248 -1.3104
31714SOL    HW2 1106   7.524   9.331   4.534 -0.7810  2.7237  4.0788
31715SOL     OW 1107   3.068   1.782   1.795  0.2180 -0.8099  0.0984
31715SOL    HW1 1108   3.054   1.766   1.702 -1.7936 -0.1794  0.2523
31715SOL    HW2 1109   3.042   1.700   1.838 -1.2837 -0.2969  0.2399
31716SOL     OW 1110   1.251   7.381   3.404 -0.5620  0.1084  0.0409
31716SOL    HW1 1111   1.189   7.453   3.413  0.2614  1.3399 -2.9757
31716SOL    HW2 1112   1.216   7.328   3.332  0.1118 -1.1542  0.6151
31717SOL     OW 1113   0.395   8.054   8.951 -0.4014 -0.7800 -0.0271
31717SOL    HW1 1114   0.325   8.033   8.889 -0.0671  1.5895 -1.3302
31717SOL    HW2 1115   0.351   8.094   9.025 -0.4801  1.2080 -1.0756
31718SOL     OW 1116   6.441   0.759  12.067  0.0544 -0.0344  0.5361
31718SOL    HW1 1117   6.468   0.673  12.036 -0.3123  0.7618 -2.3242
31718SOL    HW2 1118   6.507   0.784  12.131  0.9870 -1.8164  0.3236
31719SOL     OW 1119   1.363   3.926   6.019  0.5645 -0.0892  0.1419
31719SOL    HW1 1120   1.296   3.943   6.085  1.4447  0.8876  0.8332
31719SOL    HW2 1121   1.403   3.843   6.047  0.1977 -0.2429  0.2098
31720SOL     OW 1122  12.004   3.371   5.085 -0.9848  0.4622  0.1692
31720SOL    HW1 1123  12.041   3.448   5.127 -1.4310  1.7266 -1.6246
31720SOL    HW2 1124  11.910   3.386   5.086 -1.0171  0.4410 -1.0552
31721SOL     OW 1125   8.607   9.560   6.702 -0.6805  0.6445 -0.7675
31721SOL    HW1 1126   8.693   9.520   6.690 -0.8284  0.5182 -1.4532
31721SOL    HW2 1127   8.582   9.537   6.791 -0.6642 -0.6006 -1.0653
31722SOL     OW 1128   8.403   0.995  10.392 -0.2495 -0.1862 -0.0079
31722SOL    HW1 1129   8.313   0.983  10.361  0.6880 -0.8955 -2.6887
31722SOL    HW2 1130   8.457   0.952  10.327  2.1054  0.7343  1.2178
31723SOL     OW 1131   4.216   4.208   9.967 -0.3885 -0.0463 -0.1691
31723SOL    HW1 1132   4.217   4.189   9.874  1.4871 -0.1120 -0.1700
31723SOL    HW2 1133   4.283   4.276   9.979 -0.3849 -0.2445  1.1586
31724SOL     OW 1134  11.346   9.166   0.096  0.1349  0.0585  0.0521
31724SOL    HW1 1135  11.429   9.119   0.102  0.5414  0.8078  0.3926
31724SOL    HW2 1136  11.309   9.138   0.012  0.1316 -1.2434  0.4657
31725SOL     OW 1137   1.973   0.324   0.523  0.2143  0.0089  0.3075
31725SOL    HW1 1138   1.939   0.381   0.593  0.6476  0.6835 -0.0228
31725SOL    HW2 1139   2.048   0.372   0.488 -0.1655 -0.1851 -0.8077
31726SOL     OW 1140   6.105  11.976   9.469 -0.0429  0.1904 -0.8399
31726SOL    HW1 1141   6.198  11.998   9.482  0.4222 -1.3996 -1.2493
31726SOL    HW2 1142   6.073  11.955   9.556  0.2006 -0.0387 -0.8045
31727SOL     OW 1143   4.116   0.165   6.172  0.3931  0.4923  0.0947
31727SOL    HW1 1144   4.151   0.227   6.109  0.3133  0.5919  0.1488
31727SOL    HW2 1145   4.160   0.186   6.254 -1.6434  2.3283  0.8152
31728SOL     OW 1146   7.102   6.989   8.522  0.0401 -0.6161  0.2254
31728SOL    HW1 1147   7.193   7.008   8.498 -0.1061 -0.3219 -0.1016
31728SOL    HW2 1148   7.084   6.904   8.481 -0.4090  0.1680 -1.2946
31729SOL     OW 1149  12.137   4.190   4.415  0.4478 -0.4130  0.0206
31729SOL    HW1 1150  12.113   4.140   4.493  0.7095 -0.9265 -0.2206
31729SOL    HW2 1151  12.218   4.235   4.439 -0.9985  1.8282  1.0540
31730SOL     OW 1152   2.491  10.714   4.811 -0.6397 -0.2612 -0.4173
31730SOL    HW1 1153   2.414  10.658   4.820  0.5873 -1.8958  0.3867
31730SOL    HW2 1154   2.527  10.718   4.900  0.7562 -0.3601 -0.9620
31731SOL     OW 1155  11.252   2.990   0.991 -0.0503  0.0281 -0.7444
31731SOL    HW1 1156  11.314   2.949   0.930  0.1272 -1.4466  0.3725
31731SOL    HW2 1157  11.175   3.009   0.938  0.2508 -0.8352 -1.5201
31732SOL     OW 1158   9.261  11.332   5.992  0.7153  0.3630  0.0094
31732SOL    HW1 1159   9.216  11.314   6.074  0.9232  1.2627  0.3373
31732SOL    HW2 1160   9.265  11.248   5.947 -0.4370  0.0835  0.3996
31733SOL     OW 1161   7.637   5.246   0.456 -0.2012 -0.2969 -0.3706
31733SOL    HW1 1162   7.634   5.217   0.365  0.2609  1.7784 -1.1207
31733SOL    HW2 1163   7.545   5.250   0.483 -0.3966 -0.0460 -1.0621
31734SOL     OW 1164   7.437   9.594  11.605 -0.5301 -0.0823  0.3868
31734SOL    HW1 1165   7.342   9.588  11.613 -0.7633  2.3881  0.0292
31734SOL    HW2 1166   7.468   9.605  11.695 -0.7534  0.8954  0.3484
31735SOL     OW 1167   0.043  12.092   1.492 -0.6415  0.3353  0.2811
31735SOL    HW1 1168  -0.016  12.168   1.485 -0.6726  0.2534 -0.4924
31735SOL    HW2 1169  -0.007  12.029   1.544 -0.4593  0.9752  1.2712
31736SOL     OW 1170   6.707   7.252   1.792 -0.3184  0.1779  0.3821
31736SOL    HW1 1171   6.627   7.236   1.741 -2.4295 -0.8635  3.7072
31736SOL    HW2 1172   6.725   7.168   1.835 -0.5796  1.6741  3.7343
31737SOL     OW 1173   2.536   9.578   3.214 -0.0972 -0.6372  0.1413
31737SOL    HW1 1174   2.519   9.508   3.277 -0.9649  0.2324  0.9237
31737SOL    HW2 1175   2.528   9.658   3.266  1.3198  0.0382 -0.6354
31738SOL     OW 1176   5.773   7.324  10.658 -0.2213  0.0073  0.3007
31738SOL    HW1 1177   5.733   7.265  10.593  2.5279  2.0789 -3.6242
31738SOL    HW2 1178   5.736   7.410  10.639  2.0018  0.9955  0.1741
31739SOL     OW 1179   1.439   8.462   6.465 -0.2206 -0.6355  0.2736
31739SOL    HW1 1180   1.401   8.375   6.475 -0.2447 -0.5277  1.1693
31739SOL    HW2 1181   1.365   8.521   6.476 -0.4213 -0.5142 -1.4496
31740SOL     OW 1182   7.490   3.716   5.543  0.2000 -0.4117  0.2117
31740SOL    HW1 1183   7.440   3.711   5.462  0.0860 -0.7139  0.2976
31740SOL    HW2 1184   7.575   3.753   5.517 -0.2671  0.6663  0.1668
31741SOL     OW 1185   2.269   5.181   9.782  0.1726  0.2969  0.4280
31741SOL    HW1 1186   2.293   5.109   9.841  0.4517 -0.1550 -0.2178
31741SOL    HW2 1187   2.220   5.138   9.711  2.0483  0.4166 -1.0140
31742SOL     OW 1188  10.649   5.831   1.337 -0.1673  0.2115 -0.1922
31742SOL    HW1 1189  10.736   5.870   1.338 -0.4643  0.9530 -1.1396
31742SOL    HW2 1190  10.608   5.862   1.417  0.7525 -0.9396  0.7586
31743SOL     OW 1191  11.850   0.933   7.870 -0.1740  0.2285 -0.1519
31743SOL    HW1 1192  11.847   1.020   7.910 -0.8332  0.8687 -1.5306
31743SOL    HW2 1193  11.777   0.886   7.911 -0.8169  0.8596 -0.5488
31744SOL     OW 1194  12.195   9.889   0.471 -0.3182 -0.0807  0.3820
31744SOL    HW1 1195  12.150   9.956   0.419 -1.6653 -0.7492  0.6635
31744SOL    HW2 1196  12.127   9.849   0.524  0.6356 -1.0381  0.9289
31745SOL     OW 1197   9.888   5.112   5.304 -0.8692  0.3646 -0.1103
31745SOL    HW1 1198   9.873   5.055   5.379 -1.1187 -3.7476 -3.0012
31745SOL    HW2 1199   9.983   5.108   5.290 -0.9213  0.4711 -0.4899
31746SOL     OW 1200   5.557   1.806   9.701 -0.1196  0.8080 -0.2470
31746SOL    HW1 1201   5.630   1.784   9.760 -1.1375  0.8401  1.0632
31746SOL    HW2 1202   5.594   1.797   9.613  0.9329 -1.0798  0.3402
31747SOL     OW 1203   3.486   4.648   1.612  0.2373 -0.1509 -0.2499
31747SOL    HW1 1204   3.550   4.609   1.552 -0.5078 -2.9957  0.6543
31747SOL    HW2 1205   3.407   4.659   1.559 -0.4092 -2.6260  0.0670
31748SOL     OW 1206   0.854  10.672   1.227 -0.2077 -0.1574 -0.6367
31748SOL    HW1 1207   0.807  10.703   1.150  0.9520  2.3352 -0.4288
31748SOL    HW2 1208   0.787  10.671   1.296 -0.7368 -0.1454 -1.1402
31749SOL     OW 1209   4.604   4.968   5.687  0.7485  0.6467 -0.1929
31749SOL    HW1 1210   4.527   4.985   5.634 -0.5603 -3.0437  0.2298
31749SOL    HW2 1211   4.578   4.991   5.776  1.7134  3.3640 -0.5012
31750SOL     OW 1212   7.745   3.527   5.039 -0.7618 -0.1444 -0.0019
31750SOL    HW1 1213   7.785   3.591   4.980 -0.5101 -0.1578  0.1516
31750SOL    HW2 1214   7.738   3.573   5.123  0.0764 -0.5442  0.2977
31751SOL     OW 1215   3.320   5.073   5.243 -0.3138 -0.7014 -0.1727
31751SOL    HW1 1216   3.402   5.052   5.287 -1.2594  0.6098  2.4926
31751SOL    HW2 1217   3.265   4.995   5.257  0.4945 -1.6728 -2.1641
31752SOL     OW 1218   3.354  12.041  10.804  0.2475  0.5344  0.5503
31752SOL    HW1 1219   3.404  12.017  10.882 -0.0065  2.3463  1.3249
31752SOL    HW2 1220   3.302  11.963  10.785 -1.7841  0.8559  3.9137
31753SOL     OW 1221   1.013  10.503   9.196 -0.4120  0.2581 -0.4928
31753SOL    HW1 1222   0.947  10.507   9.265  0.3312  0.9010  0.2029
31753SOL    HW2 1223   1.077  10.440   9.227 -0.0186  0.6308 -0.5343
31754SOL     OW 1224   3.924   9.913  11.437  0.1373 -0.0696 -0.2532
31754SOL    HW1 1225   3.921   9.923  11.532  0.2512 -1.8371 -0.0388
31754SOL    HW2 1226   3.903  10.000  11.403 -0.9429  0.3420  1.3770
31755SOL     OW 1227   5.258   2.646   1.306 -0.0811  0.3270 -0.3089
31755SOL    HW1 1228   5.268   2.552   1.319  1.9959  0.0355 -3.0893
31755SOL    HW2 1229   5.176   2.655   1.256  0.2852 -0.1411 -1.0056
31756SOL     OW 1230  12.019   3.546   5.888 -0.2535 -0.1233 -0.2961
31756SOL    HW1 1231  11.949   3.602   5.921 -0.3034 -1.5978  2.3699
31756SOL    HW2 1232  11.979   3.459   5.882  0.9371 -0.6922 -0.2064
31757SOL     OW 1233  11.110   7.788   9.232 -0.2836 -0.4716  0.1755
31757SOL    HW1 1234  11.164   7.763   9.158  0.1930 -1.3435  0.8019
31757SOL    HW2 1235  11.024   7.749   9.213 -0.1500 -0.7314  0.1024
31758SOL     OW 1236   1.820   1.124  11.104 -0.1300 -0.7605 -0.0171
31758SOL    HW1 1237   1.756   1.079  11.158  1.1007 -1.4310  0.9463
31758SOL    HW2 1238   1.810   1.086  11.017 -3.2950  1.5051 -0.8273
31759SOL     OW 1239   6.109  10.264   8.195  0.0765  0.6233  0.6601
31759SOL    HW1 1240   6.119  10.211   8.273  0.5894  0.2265  0.3364
31759SOL    HW2 1241   6.054  10.212   8.136  1.4002 -0.0224 -0.0519
31760SOL     OW 1242   2.305  10.271  11.335 -0.3341 -0.1678 -0.5180
31760SOL    HW1 1243   2.245  10.266  11.261 -1.9688 -0.7616  0.7827
31760SOL    HW2 1244   2.269  10.341  11.390  1.5526  1.1101 -0.8450
31761SOL     OW 1245   2.740   8.560  10.757 -0.0588 -0.6594 -0.2931
31761SOL    HW1 1246   2.725   8.547  10.663 -0.1261 -2.7750 -0.0531
31761SOL    HW2 1247   2.653   8.550  10.796 -0.4435  2.4171 -0.1106
31762SOL     OW 1248   0.356   2.142   7.783 -0.1723  0.2689 -0.2869
31762SOL    HW1 1249   0.440   2.096   7.786 -0.6978 -0.7088 -0.1381
31762SOL    HW2 1250   0.327   2.145   7.875 -0.2582  0.6778 -0.3261
31763SOL     OW 1251   2.548   1.818  12.291  0.0691  0.6583 -0.0374
31763SOL    HW1 1252   2.626   1.765  12.272  0.4966  1.5402 -0.8326
31763SOL    HW2 1253   2.556   1.840  12.384  0.5840  0.4303 -0.0225
31764SOL     OW 1254   9.550   8.262   4.682  0.1951  0.3438  0.2112
31764SOL    HW1 1255   9.516   8.318   4.611  1.3611  0.4423 -0.2940
31764SOL    HW2 1256   9.473   8.218   4.717 -0.6226  1.5191 -0.0471
31765SOL     OW 1257  11.059   7.801   7.355  0.5647  0.2507 -0.7279
31765SOL    HW1 1258  11.082   7.712   7.329  0.9349  0.3368 -0.7024
31765SOL    HW2 1259  10.989   7.826   7.295  0.0491 -0.2693 -0.3489
31766SOL     OW 1260   4.133  10.717   2.314  0.3541  0.4143  0.0949
31766SOL    HW1 1261   4.051  10.762   2.293  0.6413 -0.1168 -2.5042
31766SOL    HW2 1262   4.193  10.788   2.339 -0.7990  0.8091  1.9468
31767SOL     OW 1263   1.422  11.207   0.541  0.0143  0.0093  0.1379
31767SOL    HW1 1264   1.426  11.289   0.589 -1.7086 -1.1034  2.3486
31767SOL    HW2 1265   1.498  11.157   0.572  0.1363  0.1316  0.0373
31768SOL     OW 1266   3.441   8.143   3.481 -0.0664  0.1370  0.0363
31768SOL    HW1 1267   3.383   8.194   3.425  0.8164  0.6149 -0.4667
31768SOL    HW2 1268   3.390   8.127   3.560 -0.7449  0.8847 -0.2351
31769SOL     OW 1269   5.804   2.407   9.097  0.1443  0.2128  0.3584
31769SOL    HW1 1270   5.818   2.330   9.041  0.4237 -1.5644  2.6873
31769SOL    HW2 1271   5.713   2.433   9.080 -0.6127 -1.8857  0.8595
31770SOL     OW 1272   9.666  11.685   1.541 -0.1085  0.3906 -0.1034
31770SOL    HW1 1273   9.660  11.610   1.601 -2.2254  0.4063 -0.2308
31770SOL    HW2 1274   9.648  11.761   1.596  1.7483  0.8462 -0.0392
31771SOL     OW 1275   1.864   8.662   0.183  1.0072 -0.0840  0.4549
31771SOL    HW1 1276   1.806   8.667   0.259 -0.3901 -1.9985 -0.4284
31771SOL    HW2 1277   1.922   8.588   0.202 -2.2011 -3.5838 -2.0729
31772SOL     OW 1278   9.785   2.014   8.798  0.6074  0.4683 -0.1235
31772SOL    HW1 1279   9.731   1.959   8.741  0.1198 -0.8424  1.5329
31772SOL    HW2 1280   9.735   2.096   8.805 -1.8285 -1.0542  2.1773
31773SOL     OW 1281   0.861  12.028   9.658 -0.0904  0.0598  0.9986
31773SOL    HW1 1282   0.811  11.951   9.631  2.3984 -0.9905 -1.0735
31773SOL    HW2 1283   0.808  12.102   9.628 -0.1507 -1.0061 -1.8839
31774SOL     OW 1284   5.241   3.813   7.406  0.0068  0.0676  0.2958
31774SOL    HW1 1285   5.267   3.844   7.320 -2.3948  2.2126  0.2283
31774SOL    HW2 1286   5.226   3.719   7.394 -3.1492  0.7293 -2.5395
31775SOL     OW 1287  12.254   6.059   3.604  0.4529 -0.2931 -0.5202
31775SOL    HW1 1288  12.247   6.155   3.597  0.9117 -0.2432 -0.3255
31775SOL    HW2 1289  12.177   6.026   3.558 -1.0571  0.2088  1.5142
31776SOL     OW 1290   9.061   4.783   1.043 -0.2405  0.2959 -0.0876
31776SOL    HW1 1291   9.083   4.750   0.956  0.2170 -2.0545  0.8320
31776SOL    HW2 1292   8.999   4.854   1.027 -1.3940 -1.0888 -2.2873
31777SOL     OW 1293   0.279   8.403   0.498  0.5366  0.1777 -0.1784
31777SOL    HW1 1294   0.224   8.427   0.572 -0.1390 -0.3514 -0.4902
31777SOL    HW2 1295   0.306   8.486   0.459 -0.5072  0.4388 -0.3529
31778SOL     OW 1296   9.781   4.901   1.749  0.4073 -0.1919 -0.4522
31778SOL    HW1 1297   9.719   4.835   1.780  0.7625  0.0319  0.8076
31778SOL    HW2 1298   9.799   4.877   1.658 -1.1317 -0.5448 -0.6918
31779SOL     OW 1299  10.286   7.080   8.267 -0.0900 -0.4188  0.4148
31779SOL    HW1 1300  10.294   7.097   8.174  0.2675 -1.1130  0.3134
31779SOL    HW2 1301  10.367   7.113   8.305 -0.8543  1.2371  0.7041
31780SOL     OW 1302   4.072   2.878   8.561  0.0788 -0.6164  0.6034
31780SOL    HW1 1303   4.113   2.819   8.497 -1.1651 -1.1960  0.3078
31780SOL    HW2 1304   4.051   2.957   8.510 -0.7868 -1.0244  0.3066
31781SOL     OW 1305   0.918   6.769   8.477  0.3081  0.1494 -0.4424
31781SOL    HW1 1306   0.903   6.773   8.383  3.2124 -1.3495 -1.0781
31781SOL    HW2 1307   0.884   6.683   8.503  0.8319 -0.0624 -0.4384
31782SOL     OW 1308   7.632   4.383   8.639  0.4352 -0.6687 -0.3100
31782SOL    HW1 1309   7.674   4.400   8.555 -0.1995 -2.3539 -1.0150
31782SOL    HW2 1310   7.539   4.393   8.622  0.3098 -0.8602  0.2296
31783SOL     OW 1311   1.117  11.039   7.097 -0.3987  0.2869 -0.6375
31783SOL    HW1 1312   1.166  11.067   7.020  0.1071 -0.8988 -0.7755
31783SOL    HW2 1313   1.061  11.113   7.119 -0.0243  0.9042 -1.7136
31784SOL     OW 1314   4.486   7.907   2.618  0.0254  0.7687  0.0726
31784SOL    HW1 1315   4.533   7.889   2.536 -0.5549 -0.1510 -0.0728
31784SOL    HW2 1316   4.494   8.001   2.630  1.0309  0.7691 -0.4857
31785SOL     OW 1317   3.068   0.308   3.216 -0.2017  0.1107  0.0917
31785SOL    HW1 1318   3.038   0.227   3.175 -0.4368  0.1085  0.2665
31785SOL    HW2 1319   3.145   0.333   3.166 -0.5326  0.1474 -0.4084
31786SOL     OW 1320   0.625   3.756   9.409 -0.2120  0.1482 -0.0121
31786SOL    HW1 1321   0.568   3.808   9.353 -1.3937  0.0968  1.1119
31786SOL    HW2 1322   0.604   3.666   9.387  0.6509  0.1207 -0.7786
31787SOL     OW 1323   2.070   0.806   0.756 -0.3611  0.1798  0.1103
31787SOL    HW1 1324   2.015   0.763   0.821  0.5192  0.4437  1.0439
31787SOL    HW2 1325   2.127   0.736   0.723  0.0017  0.2950  0.4895
31788SOL     OW 1326   3.763  12.040  11.738  0.4919  0.3345 -0.1365
31788SOL    HW1 1327   3.842  12.068  11.691  0.1896  0.8007 -0.3771
31788SOL    HW2 1328   3.784  12.053  11.831  0.1221  2.0943 -0.2501
31789SOL     OW 1329   0.673   6.570   8.896  0.1672  0.4441  0.2445
31789SOL    HW1 1330   0.712   6.499   8.845  0.6662  0.6105  0.3923
31789SOL    HW2 1331   0.675   6.539   8.986 -1.2319 -0.0854  0.1194
31790SOL     OW 1332   5.780  11.191   4.226 -0.5535 -0.0456  0.2520
31790SOL    HW1 1333   5.689  11.171   4.244 -0.8889  0.3189 -0.9150
31790SOL    HW2 1334   5.812  11.115   4.177 -0.9961  0.9121 -1.6126
31791SOL     OW 1335   8.661   2.679   4.988  0.0395 -0.1421  0.8231
31791SOL    HW1 1336   8.599   2.750   5.003 -0.0134 -0.1236  0.5297
31791SOL    HW2 1337   8.638   2.645   4.902  0.3957 -0.1782  0.7385
31792SOL     OW 1338   8.830   8.534   7.849  0.4423  0.4112  0.1433
31792SOL    HW1 1339   8.874   8.518   7.933  0.1473  1.3139  0.4825
31792SOL    HW2 1340   8.738   8.544   7.872  0.2035 -0.4498 -0.4375
31793SOL     OW 1341  11.803   8.167   3.934 -0.2306 -1.1835 -0.4359
31793SOL    HW1 1342  11.853   8.103   3.986  0.0904 -0.6959 -0.1432
31793SOL    HW2 1343  11.745   8.209   3.997  1.0396  0.2930 -0.1998
31794SOL     OW 1344   6.505   3.671  10.965  0.2843 -0.0962  0.2975
31794SOL    HW1 1345   6.548   3.757  10.957  0.2934 -0.1650 -0.4235
31794SOL    HW2 1346   6.417   3.691  10.995 -0.5300  0.3840 -2.1896
31795SOL     OW 1347   0.195   5.464   9.512  0.0642  0.0335  0.0294
31795SOL    HW1 1348   0.227   5.373   9.516 -1.4434 -0.6137 -1.3554
31795SOL    HW2 1349   0.244   5.509   9.581  0.4363 -1.9585  1.1797
31796SOL     OW 1350  10.002   9.410  12.222  0.1134 -0.1821 -0.6718
31796SOL    HW1 1351   9.945   9.337  12.248 -0.3739  0.4888  0.1823
31796SOL    HW2 1352  10.091   9.376  12.232 -0.0735 -0.2101  1.1261
31797SOL     OW 1353   7.420   0.806   7.031 -0.3316 -0.1543  0.9361
31797SOL    HW1 1354   7.363   0.729   7.036 -0.0696 -0.3950  0.3521
31797SOL    HW2 1355   7.508   0.770   7.020 -0.0584  0.2144  1.8003
31798SOL     OW 1356   9.323   8.991   1.715  0.1554  0.2784  0.3230
31798SOL    HW1 1357   9.315   8.979   1.621 -1.4127 -0.1082  0.4829
31798SOL    HW2 1358   9.379   9.068   1.725  3.9129 -2.0397 -0.8339
31799SOL     OW 1359   3.112   9.857  10.101  0.4657 -0.1094  0.0875
31799SOL    HW1 1360   3.167   9.908  10.160  1.7075 -0.4719 -0.7318
31799SOL    HW2 1361   3.040   9.917  10.078  2.0366  1.4085 -1.0931
31800SOL     OW 1362   3.951   5.903   2.962 -0.2118  0.0483 -0.3373
31800SOL    HW1 1363   3.904   5.829   3.001 -1.7552  1.3682  0.3708
31800SOL    HW2 1364   3.898   5.979   2.981  2.5170  1.7593  1.0802
31801SOL     OW 1365   6.297   2.567  10.646 -0.0028 -0.1295 -0.7201
31801SOL    HW1 1366   6.203   2.560  10.628 -0.5339  1.3563  1.2112
31801SOL    HW2 1367   6.313   2.499  10.711 -0.1424  0.7635  0.2690
31802SOL     OW 1368   4.908   6.145   0.037  0.4062  0.4256  0.0681
31802SOL    HW1 1369   4.958   6.151   0.118 -1.0030  1.8409  0.8883
31802SOL    HW2 1370   4.867   6.058   0.040  3.0445 -0.9482 -0.8363
31803SOL     OW 1371   0.194   2.212  11.012  0.3938  0.8119 -0.2906
31803SOL    HW1 1372   0.102   2.186  11.019  0.7977 -0.3053  1.2008
31803SOL    HW2 1373   0.205   2.279  11.080  0.8075  0.5658 -0.1131
31804SOL     OW 1374   3.205   1.518   4.782  0.7123  0.0061 -0.2438
31804SOL    HW1 1375   3.181   1.608   4.758  0.0996 -0.3706 -1.1116
31804SOL    HW2 1376   3.285   1.527   4.832  0.1547  1.1185  0.4862
31805SOL     OW 1377  11.252  10.319   5.419 -0.0346  0.6418 -1.0920
31805SOL    HW1 1378  11.292  10.235   5.395  1.8946  1.8176 -2.2591
31805SOL    HW2 1379  11.279  10.379   5.350 -1.2101  2.3044 -0.1861
31806SOL     OW 1380   2.515   0.001   2.646  0.3795 -0.0139 -0.4415
31806SOL    HW1 1381   2.581  -0.068   2.661 -0.1715 -0.1966  1.3445
31806SOL    HW2 1382   2.526   0.061   2.720 -0.1754  1.0073 -1.1710
31807SOL     OW 1383   0.598   9.106   7.517  0.0986 -0.2978  0.7822
31807SOL    HW1 1384   0.530   9.075   7.457 -0.2349  2.1827 -0.2203
31807SOL    HW2 1385   0.669   9.043   7.506 -1.4976 -2.2298  0.8990
31808SOL     OW 1386   7.680   0.025  11.536  0.0793 -0.3265  0.0513
31808SOL    HW1 1387   7.714   0.114  11.523 -0.0773 -0.0308  1.5195
31808SOL    HW2 1388   7.755  -0.032  11.515  0.3762  0.1775 -0.2808
31809SOL     OW 1389   1.338   0.249   1.372  0.0712  0.7305 -0.4108
31809SOL    HW1 1390   1.337   0.170   1.318  1.2924 -0.8593  1.7557
31809SOL    HW2 1391   1.412   0.299   1.338  0.7768 -0.2029 -0.2975
31810SOL     OW 1392   3.883   0.273  11.999 -0.0051 -0.2999  0.6874
31810SOL    HW1 1393   3.842   0.296  11.915 -1.2329 -0.7842  1.1297
31810SOL    HW2 1394   3.976   0.293  11.987 -0.3629  0.8610 -0.3513
31811SOL     OW 1395  10.330  12.457  12.169  0.4211 -0.1737  0.2273
31811SOL    HW1 1396  10.328  12.507  12.251 -0.8263  0.1265  0.0251
31811SOL    HW2 1397  10.375  12.514  12.107 -0.8062  0.6310  0.0529
31812SOL     OW 1398   7.631   8.270   9.836 -0.4064 -0.2033  0.4148
31812SOL    HW1 1399   7.628   8.213   9.760 -1.1099  0.8708 -0.3903
31812SOL    HW2 1400   7.559   8.241   9.891 -1.6602  0.7702 -0.6550
31813SOL     OW 1401  12.006   0.818   9.729  0.1120 -0.3708  0.5724
31813SOL    HW1 1402  12.024   0.764   9.651 -0.6732 -1.5421  1.1726
31813SOL    HW2 1403  12.090   0.858   9.750  0.5163 -0.6632 -0.4182
31814SOL     OW 1404   4.170  10.446  12.475  0.1237 -0.3164 -0.0660
31814SOL    HW1 1405   4.164  10.472  12.383  0.4584  1.0218  0.2620
31814SOL    HW2 1406   4.084  10.409  12.495 -0.3346  0.3934 -0.6395
31815SOL     OW 1407   7.757   5.299   1.399  0.0108 -0.2126 -0.3105
31815SOL    HW1 1408   7.769   5.358   1.324 -2.6177  1.2900  0.3141
31815SOL    HW2 1409   7.668   5.266   1.390  0.4335 -1.8324  0.9607
31816SOL     OW 1410   6.566   9.838   2.157  0.0593 -0.0216  0.1369
31816SOL    HW1 1411   6.536   9.929   2.167  1.2194  0.2128  1.7276
31816SOL    HW2 1412   6.643   9.844   2.101 -1.2225 -0.3387 -1.7602
31817SOL     OW 1413   0.814   5.103   6.834  0.1459 -0.2399  0.0798
31817SOL    HW1 1414   0.749   5.162   6.795 -1.1098 -1.7928 -0.3204
31817SOL    HW2 1415   0.836   5.143   6.918 -0.1140  1.1556 -0.4987
31818SOL     OW 1416   3.583   6.112   2.196 -0.4140 -0.3165  0.1792
31818SOL    HW1 1417   3.577   6.168   2.118 -1.5600 -0.9483 -0.2110
31818SOL    HW2 1418   3.674   6.084   2.198 -0.4111 -0.5007 -1.1126
31819SOL     OW 1419  10.276   5.615   0.803 -0.4854  0.3806 -0.4009
31819SOL    HW1 1420  10.357   5.605   0.854 -0.7753 -1.2892 -0.2175
31819SOL    HW2 1421  10.306   5.637   0.715  0.2045 -0.4470 -0.3891
31820SOL     OW 1422   1.286   6.539   1.540 -0.0872  0.3883 -0.0444
31820SOL    HW1 1423   1.320   6.628   1.548  1.8369 -0.0692 -2.2369
31820SOL    HW2 1424   1.362   6.482   1.552 -1.0738 -0.9271  0.2071
31821SOL     OW 1425   0.061   1.835   6.487  0.2402 -0.0684 -0.3542
31821SOL    HW1 1426   0.011   1.912   6.458 -0.3639 -0.3158  0.0187
31821SOL    HW2 1427  -0.002   1.782   6.535  0.5564 -0.9930 -0.9395
31822SOL     OW 1428  12.490   1.910   1.264 -0.3819 -0.1821  0.0983
31822SOL    HW1 1429  12.552   1.884   1.196  1.4874 -1.3286  2.1337
31822SOL    HW2 1430  12.518   1.999   1.288  0.6821 -0.7815  1.1692
31823SOL     OW 1431   8.081   1.469   9.972  0.0423  0.3566 -0.2949
31823SOL    HW1 1432   8.010   1.533   9.971 -1.0549 -0.8094 -0.0870
31823SOL    HW2 1433   8.096   1.451  10.065  1.0841  1.0635 -0.3036
31824SOL     OW 1434   3.796  12.103  11.324 -0.0703 -0.7473  0.4897
31824SOL    HW1 1435   3.732  12.080  11.392 -0.9225  0.2269  0.0332
31824SOL    HW2 1436   3.770  12.050  11.249 -1.2304  0.6392 -0.1398
31825SOL     OW 1437   2.286   9.228   1.398 -0.1614  0.0081 -0.2182
31825SOL    HW1 1438   2.277   9.258   1.488  0.2928 -0.4956  0.0034
31825SOL    HW2 1439   2.197   9.220   1.366 -0.4239 -1.7872  0.8582
31826SOL     OW 1440   4.930   7.780   8.133  0.1154 -0.6487 -0.1213
31826SOL    HW1 1441   4.950   7.687   8.123  2.4981 -0.0529 -1.6733
31826SOL    HW2 1442   4.862   7.798   8.069 -0.1390 -1.2597 -0.0249
31827SOL     OW 1443  11.718  10.467   5.900  0.2475 -0.2469 -0.0859
31827SOL    HW1 1444  11.735  10.515   5.819  0.6066  0.6203  0.4938
31827SOL    HW2 1445  11.680  10.533   5.959  1.7331 -0.4032  1.0821
31828SOL     OW 1446  10.463   7.181  10.999  0.3301  0.7154  0.4938
31828SOL    HW1 1447  10.506   7.097  11.014 -0.4835  0.6111  2.4333
31828SOL    HW2 1448  10.406   7.165  10.923  0.6703 -0.2811  0.4343
31829SOL     OW 1449   0.992   9.685   2.277  0.1861 -0.0879 -0.3161
31829SOL    HW1 1450   0.911   9.727   2.247  0.4968 -0.0515 -1.1152
31829SOL    HW2 1451   1.041   9.756   2.320  0.0549  0.0277 -0.3547
31830SOL     OW 1452   9.242  11.834   6.501  0.2405 -0.5080 -0.7842
31830SOL    HW1 1453   9.191  11.818   6.421  0.4233 -0.2534 -0.9549
31830SOL    HW2 1454   9.257  11.928   6.501  0.0803 -0.4823 -0.3471
31831SOL     OW 1455  11.932  12.165   3.693 -0.2252 -0.1558  0.1456
31831SOL    HW1 1456  12.017  12.137   3.659 -1.4311 -1.6525 -1.8288
31831SOL    HW2 1457  11.887  12.202   3.617 -1.3040  0.7401  1.1921
31832SOL     OW 1458  12.295   4.503  10.695 -0.1015  0.5510  0.4931
31832SOL    HW1 1459  12.247   4.432  10.651  0.2046 -0.3481  1.5615
31832SOL    HW2 1460  12.380   4.465  10.715 -0.3814  0.7858  2.2234
31833SOL     OW 1461   6.273   2.232   0.997 -0.2908  0.3322  0.5712
31833SOL    HW1 1462   6.234   2.299   1.053 -0.5294 -0.8495  1.8866
31833SOL    HW2 1463   6.365   2.231   1.022 -0.3995 -0.2030  0.9773
31834SOL     OW 1464   3.798   7.307   5.211 -0.2419 -0.2536  0.0261
31834SOL    HW1 1465   3.874   7.302   5.269  1.7014  2.3640 -2.0196
31834SOL    HW2 1466   3.812   7.239   5.146 -0.2948 -0.5688  0.3442
31835SOL     OW 1467  10.503   9.483   0.270 -0.0765  0.3709  1.0253
31835SOL    HW1 1468  10.570   9.454   0.209 -0.5209  0.1593  0.6357
31835SOL    HW2 1469  10.474   9.567   0.235 -1.4265 -0.4601  0.0613
31836SOL     OW 1470  10.997   6.710   8.770  0.0054 -0.1447 -0.0145
31836SOL    HW1 1471  11.059   6.683   8.838  0.5154  0.7921 -0.1039
31836SOL    HW2 1472  10.912   6.712   8.815  0.5586  2.0279  1.0553
31837SOL     OW 1473   2.366  10.708   1.056  0.6902  0.4579  0.3299
31837SOL    HW1 1474   2.432  10.718   1.125 -0.9669  3.1358  1.6727
31837SOL    HW2 1475   2.384  10.780   0.996 -1.0237  1.2841  0.7630
31838SOL     OW 1476   8.944   5.088  12.390 -0.1112  0.4669 -0.3803
31838SOL    HW1 1477   8.904   5.087  12.477  1.3694  2.0959  0.3732
31838SOL    HW2 1478   8.987   5.002  12.382 -1.2351 -0.1490 -0.0264
31839SOL     OW 1479  11.805  12.322   2.372 -0.1486 -0.2339  0.2578
31839SOL    HW1 1480  11.803  12.295   2.280 -2.2371 -1.0945  0.4882
31839SOL    HW2 1481  11.727  12.280   2.411 -0.3834  1.6278  1.9719
31840SOL     OW 1482   3.712  12.437   5.245 -0.6852 -0.0621 -0.3309
31840SOL    HW1 1483   3.627  12.473   5.271 -0.9489 -0.0378 -1.1912
31840SOL    HW2 1484   3.721  12.463   5.153  0.4131  0.2287 -0.1500
31841SOL     OW 1485   5.507  11.394   7.851 -0.6954 -0.0899 -1.6913
31841SOL    HW1 1486   5.510  11.349   7.767 -1.8655 -3.3759 -0.1454
31841SOL    HW2 1487   5.416  11.422   7.860 -0.6658 -0.1020 -1.3448
31842SOL     OW 1488   0.037   8.452   9.674  0.4060 -0.5648  0.0831
31842SOL    HW1 1489  -0.041   8.507   9.682  0.7197  0.3844 -2.5672
31842SOL    HW2 1490   0.110   8.510   9.693  0.6299 -0.5384 -0.8088
31843SOL     OW 1491   3.128   3.223   2.519 -0.0878  0.2885  0.4189
31843SOL    HW1 1492   3.057   3.278   2.554  0.2083  0.9357  0.0261
31843SOL    HW2 1493   3.208   3.271   2.542  0.1935 -0.1580  0.3718
31844SOL     OW 1494   8.429   4.735  10.620  0.6938  0.1079  0.0392
31844SOL    HW1 1495   8.342   4.726  10.581  0.6996  1.1362 -0.2398
31844SOL    HW2 1496   8.433   4.666  10.687 -0.4819  0.2894  0.3170
31845SOL     OW 1497   3.623   0.010   3.180 -0.2929 -0.0866  0.6720
31845SOL    HW1 1498   3.621  -0.074   3.226  2.3804 -0.7217 -0.1843
31845SOL    HW2 1499   3.697   0.003   3.120 -0.7767  2.4390 -0.3603
31846SOL     OW 1500  11.811   4.907   7.290 -0.1196 -0.2908 -0.5348
31846SOL    HW1 1501  11.867   4.917   7.367 -0.3247 -2.0019 -0.1139
31846SOL    HW2 1502  11.743   4.973   7.300 -0.5594 -0.9382  1.1549
31847SOL     OW 1503  10.362   0.893   9.276  0.5891  0.3762  0.2127
31847SOL    HW1 1504  10.444   0.941   9.284  0.1763  1.1861 -0.2800
31847SOL    HW2 1505  10.320   0.902   9.362  0.4935  0.9481  0.1102
31848SOL     OW 1506   0.878   4.655   4.429 -0.8331  0.8267 -0.3322
31848SOL    HW1 1507   0.823   4.603   4.488  0.5273 -0.3253 -0.0420
31848SOL    HW2 1508   0.932   4.708   4.487 -0.1174  0.3548 -0.5655
31849SOL     OW 1509   0.995   5.600   5.504 -0.1975  0.6773 -0.4022
31849SOL    HW1 1510   0.990   5.534   5.435 -1.7343 -1.8807  1.9543
31849SOL    HW2 1511   1.075   5.579   5.551 -1.2384 -0.3291  1.0138
31850SOL     OW 1512   1.338   2.217  11.801 -0.0369 -0.2220 -0.4225
31850SOL    HW1 1513   1.388   2.287  11.759 -1.8114 -0.3921 -3.0728
31850SOL    HW2 1514   1.401   2.145  11.809  1.3635  1.0604  0.7953
31851SOL     OW 1515   8.222   1.770  12.285  0.7331 -0.6875 -0.2423
31851SOL    HW1 1516   8.148   1.748  12.229 -0.7889  1.8955  0.5528
31851SOL    HW2 1517   8.241   1.690  12.333  0.1760 -2.1216 -2.3095
31852SOL     OW 1518  10.364  12.394   8.607 -0.0852  0.6954  0.1107
31852SOL    HW1 1519  10.332  12.309   8.637  1.3754 -0.1973 -0.7595
31852SOL    HW2 1520  10.358  12.450   8.685 -1.1307 -0.1751  0.6813
31853SOL     OW 1521   4.598   3.686   4.168  0.1017 -0.1473 -0.4352
31853SOL    HW1 1522   4.527   3.622   4.162  0.2161 -0.2587 -0.5889
31853SOL    HW2 1523   4.667   3.652   4.111 -0.2842  0.6976 -1.4554
31854SOL     OW 1524   4.939   9.128   5.757  0.2315 -0.7586 -0.1650
31854SOL    HW1 1525   4.971   9.188   5.824  2.1330 -0.8753 -0.8796
31854SOL    HW2 1526   4.900   9.056   5.806 -0.4318  0.1985  0.7424
31855SOL     OW 1527   6.066  11.502   3.297  0.7779  0.0176  0.3849
31855SOL    HW1 1528   6.086  11.544   3.380 -0.6001  1.2594  0.1295
31855SOL    HW2 1529   5.981  11.459   3.311  0.1075  0.9576 -0.5921
31856SOL     OW 1530   4.256   1.518   9.910  0.5363  0.0000  0.2445
31856SOL    HW1 1531   4.220   1.602   9.882 -0.3576  0.0417  1.4024
31856SOL    HW2 1532   4.308   1.539   9.988 -1.1054 -0.6845  1.5991
31857SOL     OW 1533   8.549   7.970  10.173  0.1721  0.0867 -0.2729
31857SOL    HW1 1534   8.560   7.903  10.240 -0.4622  1.7431  1.6108
31857SOL    HW2 1535   8.633   8.016  10.171 -0.3075  1.0616  0.6386
31858SOL     OW 1536   5.397  11.206  11.429 -0.0050  0.7170  0.0034
31858SOL    HW1 1537   5.463  11.274  11.422  0.3335  0.9114  3.5604
31858SOL    HW2 1538   5.431  11.144  11.493 -1.9061 -0.9148 -0.4188
31859SOL     OW 1539   3.242   0.599   5.974 -0.2149  0.1428 -0.2263
31859SOL    HW1 1540   3.180   0.636   6.036 -0.9825 -0.5109 -0.5982
31859SOL    HW2 1541   3.214   0.509   5.961  0.3771  0.0487 -0.9573
31860SOL     OW 1542  11.094   5.934   0.928 -0.1008  0.1292  0.0696
31860SOL    HW1 1543  11.138   5.995   0.869 -0.9153  0.6503 -0.0086
31860SOL    HW2 1544  11.055   5.868   0.870  2.0560 -1.3958  0.2101
31861SOL     OW 1545   8.929   5.375   5.695 -0.1162 -0.1129 -0.6384
31861SOL    HW1 1546   8.997   5.386   5.761 -0.5202 -3.1104  0.4289
31861SOL    HW2 1547   8.847   5.383   5.744 -0.4719  0.2712 -1.2889
31862SOL     OW 1548   1.815  11.168   2.504  0.0167 -0.0733 -0.2405
31862SOL    HW1 1549   1.744  11.222   2.540  0.4457  0.5652 -0.3226
31862SOL    HW2 1550   1.895  11.204   2.543  0.4537  0.3849 -1.5053
31863SOL     OW 1551   0.675   7.979  10.187  0.1410 -0.2875  0.1507
31863SOL    HW1 1552   0.692   8.000  10.279  0.4424 -0.2407  0.0863
31863SOL    HW2 1553   0.596   8.028  10.165 -0.8006 -1.4632  0.8030
31864SOL     OW 1554   2.663   1.019   2.460  0.2357 -0.1877 -0.0375
31864SOL    HW1 1555   2.636   0.931   2.434 -0.4315 -0.5236  1.6256
31864SOL    HW2 1556   2.580   1.065   2.477  0.6058  0.1255  1.0026
31865SOL     OW 1557   5.046   0.203   0.051  0.2103  0.2893 -0.1550
31865SOL    HW1 1558   4.980   0.167   0.110  0.3442 -0.3424 -0.3829
31865SOL    HW2 1559   5.007   0.283   0.017 -0.9509 -0.6794 -1.2044
31866SOL     OW 1560   6.633  11.487   5.236  0.0199  0.1459 -0.2097
31866SOL    HW1 1561   6.703  11.433   5.272  1.2045  1.6986 -0.0719
31866SOL    HW2 1562   6.679  11.550   5.179 -1.1050  2.0398  0.9020
31867SOL     OW 1563   1.212   8.611   6.952 -0.0370  0.6424 -0.0505
31867SOL    HW1 1564   1.147   8.543   6.966 -1.8272  2.1226 -0.6736
31867SOL    HW2 1565   1.249   8.628   7.038 -0.9847  0.2245  0.4523
31868SOL     OW 1566   7.031   1.683   6.363 -0.8289  0.4310  0.1283
31868SOL    HW1 1567   7.023   1.602   6.413 -1.6692  1.6404  2.0740
31868SOL    HW2 1568   6.963   1.678   6.296  1.3567 -1.9412 -2.1559
31869SOL     OW 1569   4.056   4.441   0.446 -0.4486  0.0060  0.0078
31869SOL    HW1 1570   4.136   4.480   0.410 -0.6867  0.4288 -0.0641
31869SOL    HW2 1571   4.018   4.510   0.500 -0.8955 -0.1087 -0.1560
31870SOL     OW 1572   7.736   6.249   5.633 -0.0677  0.8334 -0.0741
31870SOL    HW1 1573   7.794   6.313   5.594  1.1181  0.9815  1.8307
31870SOL    HW2 1574   7.794   6.179   5.664 -0.6647  1.4946  2.8760
31871SOL     OW 1575   1.529   6.804   0.883  0.2462  0.5854 -0.0807
31871SOL    HW1 1576   1.436   6.805   0.908  0.8941  1.4344  2.5992
31871SOL    HW2 1577   1.548   6.894   0.857  0.6015  0.6949  0.5508
31872SOL     OW 1578   3.617   8.298  11.479 -0.0757 -0.6172 -0.6638
31872SOL    HW1 1579   3.572   8.279  11.562 -0.8456 -0.8193 -1.1158
31872SOL    HW2 1580   3.648   8.213  11.449  1.5201 -0.3530  0.1366
31873SOL     OW 1581   3.968   9.134   5.309 -0.0213  0.4783  0.0037
31873SOL    HW1 1582   4.020   9.079   5.251 -0.4744  0.3600 -0.2956
31873SOL    HW2 1583   4.021   9.143   5.388 -0.7211 -1.9565  0.8294
31874SOL     OW 1584   0.812   7.489   2.374 -0.2672  0.4865  0.2580
31874SOL    HW1 1585   0.738   7.548   2.357  0.4819  0.9787 -1.5075
31874SOL    HW2 1586   0.873   7.505   2.302  0.8280 -1.1072  0.7718
31875SOL     OW 1587   6.912   1.866  11.542 -0.0186  0.2183  1.0174
31875SOL    HW1 1588   6.940   1.776  11.557 -1.9342 -0.6913 -0.4480
31875SOL    HW2 1589   6.895   1.901  11.630 -2.7049 -2.0845  1.5711
31876SOL     OW 1590   8.711   7.492   0.578 -0.1095  0.5000 -0.1090
31876SOL    HW1 1591   8.749   7.577   0.601 -1.2430  0.6530  1.3345
31876SOL    HW2 1592   8.737   7.435   0.650  0.2989 -0.2870 -0.8692
31877SOL     OW 1593   3.635  10.214  10.348  0.3662  0.6292  0.0289
31877SOL    HW1 1594   3.599  10.245  10.430 -1.0792 -2.4859  0.7362
31877SOL    HW2 1595   3.559  10.199  10.292  1.2155  1.2691 -1.3651
31878SOL     OW 1596   5.825   4.811   3.880 -0.2199 -0.0216 -0.1235
31878SOL    HW1 1597   5.900   4.870   3.869 -0.3464  1.0237  3.3804
31878SOL    HW2 1598   5.864   4.724   3.889  0.4049  0.2221 -0.4037
31879SOL     OW 1599   5.462  11.948   3.001 -0.4563  0.0712 -0.0761
31879SOL    HW1 1600   5.434  11.953   2.910  0.7634  0.8470 -0.4374
31879SOL    HW2 1601   5.554  11.976   2.999  0.3199 -2.1657  1.0526
31880SOL     OW 1602  12.445   3.693   9.686  0.2615  0.4285 -0.8829
31880SOL    HW1 1603  12.535   3.668   9.709  0.8013  0.7486 -2.4633
31880SOL    HW2 1604  12.456   3.752   9.611 -1.1880  1.9830  0.0458
31881SOL     OW 1605  12.301   5.669  10.005 -0.0612 -0.3953 -0.1161
31881SOL    HW1 1606  12.211   5.648   9.981 -0.4438  0.7264  0.2779
31881SOL    HW2 1607  12.350   5.590   9.985 -1.7854 -2.6559  3.4800
31882SOL     OW 1608   1.244   5.753   7.851 -0.4105  0.0343 -0.5393
31882SOL    HW1 1609   1.168   5.696   7.839  0.0657 -0.6699 -0.2746
31882SOL    HW2 1610   1.233   5.822   7.786 -1.1942 -0.1462 -0.6097
31883SOL     OW 1611   8.426   7.224   7.196  0.1258 -0.0940 -0.5692
31883SOL    HW1 1612   8.519   7.208   7.205 -0.2419 -1.8107  0.6094
31883SOL    HW2 1613   8.393   7.226   7.285 -1.2397 -1.4846 -0.9949
31884SOL     OW 1614   1.187  10.783   6.968 -0.3239 -0.1047  0.1173
31884SOL    HW1 1615   1.105  10.788   6.918 -0.3917  1.9541  0.3710
31884SOL    HW2 1616   1.176  10.846   7.039  0.3631 -1.8942  1.9239
31885SOL     OW 1617   5.885   3.103  11.986  0.6268 -0.1487  0.4081
31885SOL    HW1 1618   5.800   3.143  11.966 -0.5341 -2.4218  0.4741
31885SOL    HW2 1619   5.941   3.131  11.914 -1.2209 -1.4884 -1.6940
31886SOL     OW 1620   2.082   7.030   1.910 -0.4415 -0.1894 -0.1370
31886SOL    HW1 1621   2.100   7.101   1.972  0.2616 -0.4067 -0.0783
31886SOL    HW2 1622   2.032   6.966   1.961  0.2794 -0.4449  0.2655
31887SOL     OW 1623   2.588   0.232   6.003  0.2008 -0.4882 -0.0268
31887SOL    HW1 1624   2.624   0.321   6.012 -1.8587  0.2735  1.7512
31887SOL    HW2 1625   2.606   0.191   6.088  0.3387 -1.4891 -0.5243
31888SOL     OW 1626   8.612   8.387   2.152  0.2329  0.0258  0.0675
31888SOL    HW1 1627   8.549   8.437   2.101 -1.1974 -2.3633 -0.6712
31888SOL    HW2 1628   8.617   8.433   2.236  0.1804  2.1916 -1.0406
31889SOL     OW 1629   5.162   1.442   6.267 -0.0176 -0.5386 -0.0040
31889SOL    HW1 1630   5.175   1.519   6.323 -2.7349 -1.0806  1.5954
31889SOL    HW2 1631   5.127   1.477   6.185  1.6253  0.0899 -0.4742
31890SOL     OW 1632  11.331   6.612   3.961  0.0372  0.4637  0.6843
31890SOL    HW1 1633  11.269   6.593   3.891  1.6764 -0.4480 -0.5837
31890SOL    HW2 1634  11.416   6.584   3.927  0.9274  0.1322  2.9837
31891SOL     OW 1635   8.379   0.489   7.226  0.3767 -0.0134  0.0440
31891SOL    HW1 1636   8.308   0.554   7.222  0.4683  0.0435 -1.3739
31891SOL    HW2 1637   8.352   0.428   7.295 -0.6407  0.4749  0.1079
31892SOL     OW 1638   2.138   7.213   6.854 -0.0178  0.4497  0.1317
31892SOL    HW1 1639   2.104   7.240   6.939  0.5337  1.4667  0.0332
31892SOL    HW2 1640   2.232   7.226   6.859  0.1687 -0.5797 -0.2535
31893SOL     OW 1641   0.207   4.510   2.450 -0.2897 -0.3776 -0.5616
31893SOL    HW1 1642   0.230   4.446   2.517 -0.2331  0.4731  0.2507
31893SOL    HW2 1643   0.288   4.557   2.432 -0.5998  0.3110 -0.2133
31894SOL     OW 1644   9.639   5.300   0.569 -0.2279  0.6237 -0.5192
31894SOL    HW1 1645   9.673   5.262   0.488  0.2712 -1.6968  0.6754
31894SOL    HW2 1646   9.545   5.284   0.566 -0.2720  0.9325 -0.8250
31895SOL     OW 1647   1.415   8.585   8.229 -0.2971 -0.6552 -0.5431
31895SOL    HW1 1648   1.498   8.536   8.226 -0.7787 -1.4691 -0.9949
31895SOL    HW2 1649   1.436   8.665   8.276  0.8269 -0.7034 -0.9444
31896SOL     OW 1650   7.168   6.899   6.943 -0.0852 -0.1926  0.0730
31896SOL    HW1 1651   7.150   6.933   7.031 -1.8854  0.8183 -0.6297
31896SOL    HW2 1652   7.108   6.947   6.886  1.6890 -0.1380 -1.8653
31897SOL     OW 1653   1.358   6.593   3.690  0.1316  0.0998 -0.3288
31897SOL    HW1 1654   1.440   6.544   3.698  1.0693  1.6089 -0.1895
31897SOL    HW2 1655   1.381   6.681   3.720 -1.8684  0.2565  0.8557
31898SOL     OW 1656   6.597   2.555   4.102  0.0541 -0.1167  0.4879
31898SOL    HW1 1657   6.691   2.548   4.084 -0.2251  0.3360 -1.3361
31898SOL    HW2 1658   6.592   2.599   4.187  1.4893 -1.1580  1.1524
31899SOL     OW 1659   4.062   3.916   4.815  0.8341  0.3183  0.2720
31899SOL    HW1 1660   4.122   3.863   4.763 -1.1149  0.8264 -2.7271
31899SOL    HW2 1661   4.028   3.857   4.881  1.0004 -1.3275 -1.0562
31900SOL     OW 1662   7.123   0.713   5.390 -0.1588 -0.0755 -0.1989
31900SOL    HW1 1663   7.095   0.627   5.420  1.1460 -0.6090 -0.4176
31900SOL    HW2 1664   7.169   0.750   5.466  1.8876 -0.8352 -0.9835
31901SOL     OW 1665  10.231   8.645  10.367  0.0799  0.0817 -0.1950
31901SOL    HW1 1666  10.217   8.721  10.424  0.3847 -0.7039  0.9843
31901SOL    HW2 1667  10.178   8.662  10.290  0.1661  1.5040  0.0321
31902SOL     OW 1668   0.249  11.588   3.322 -0.0491  0.5135 -0.3701
31902SOL    HW1 1669   0.263  11.599   3.416 -1.8618  0.0090  0.0030
31902SOL    HW2 1670   0.297  11.509   3.300  1.6167  1.4391 -0.2026
31903SOL     OW 1671   1.649   0.095   0.835 -0.2459 -0.9459  0.5345
31903SOL    HW1 1672   1.583   0.065   0.772 -0.4709 -1.7013  1.1121
31903SOL    HW2 1673   1.732   0.081   0.791 -0.4474  0.0112 -0.2027
31904SOL     OW 1674   3.122   7.156   4.105  0.3322 -0.7856  0.3847
31904SOL    HW1 1675   3.125   7.136   4.199 -1.3339 -0.6764  0.4758
31904SOL    HW2 1676   3.099   7.249   4.101  1.2782 -0.5562 -0.1486
31905SOL     OW 1677   0.111   6.662   7.739 -0.6128  0.8495 -0.3404
31905SOL    HW1 1678   0.187   6.716   7.718 -1.8673  1.6390 -3.3008
31905SOL    HW2 1679   0.049   6.722   7.780 -0.4833  0.6742  0.1290
31906SOL     OW 1680   3.735  11.570   1.223 -0.0310 -0.5401  0.5321
31906SOL    HW1 1681   3.695  11.601   1.305 -0.1031 -2.4327  1.2493
31906SOL    HW2 1682   3.700  11.482   1.211  0.3621 -0.4705 -1.3012
31907SOL     OW 1683   8.312   5.613   8.120  0.1092  0.2255  0.6231
31907SOL    HW1 1684   8.366   5.568   8.186 -1.8125  0.2804  2.3542
31907SOL    HW2 1685   8.226   5.571   8.128 -0.7310  1.6980 -0.3620
31908SOL     OW 1686  10.754   5.711   5.845 -0.4064 -0.3769  0.2730
31908SOL    HW1 1687  10.676   5.722   5.791 -0.4999 -0.1807  0.4458
31908SOL    HW2 1688  10.813   5.656   5.793  0.9377  2.5683 -1.5082
31909SOL     OW 1689   3.082   3.541   3.547  0.4471 -0.0455 -0.5962
31909SOL    HW1 1690   3.086   3.446   3.539 -1.2606 -0.2432  0.5179
31909SOL    HW2 1691   3.002   3.566   3.501  0.3795  0.7468 -0.0707
31910SOL     OW 1692   4.976   7.461   3.196 -0.2355  0.3630 -0.3786
31910SOL    HW1 1693   5.031   7.539   3.180 -0.0111  0.4315  0.6893
31910SOL    HW2 1694   4.987   7.409   3.116  2.6307 -0.3550  0.3556
31911SOL     OW 1695   3.348  10.516  12.328 -0.4776 -0.7062 -0.2580
31911SOL    HW1 1696   3.314  10.563  12.252  0.3605  0.9505  0.3321
31911SOL    HW2 1697   3.275  10.516  12.390 -0.4755 -0.0864 -0.2421
31912SOL     OW 1698   7.974   2.002   0.283 -0.0754 -0.5524  0.1719
31912SOL    HW1 1699   7.970   2.091   0.249  0.7926 -0.5317  0.0897
31912SOL    HW2 1700   8.064   1.974   0.266  0.2235 -0.7573  1.9090
31913SOL     OW 1701   9.151   7.071   1.977 -0.1561 -0.4835 -0.2935
31913SOL    HW1 1702   9.056   7.060   1.981 -0.4755  1.8234  2.6929
31913SOL    HW2 1703   9.186   7.005   2.037  0.0998 -0.9658 -0.9635
31914SOL     OW 1704   5.571   2.337   2.622  0.1244 -0.5278  1.1720
31914SOL    HW1 1705   5.565   2.280   2.545 -0.3905  2.2857 -1.0644
31914SOL    HW2 1706   5.481   2.350   2.650  0.3364 -1.8661  2.5933
31915SOL     OW 1707   1.569   5.296   2.126 -0.0481 -0.1746  0.5275
31915SOL    HW1 1708   1.560   5.374   2.070  1.2500  1.1215  2.0211
31915SOL    HW2 1709   1.622   5.235   2.074  0.3838  0.6440 -0.0100
31916SOL     OW 1710   4.154   1.348   2.315 -0.1586 -0.2329  0.0529
31916SOL    HW1 1711   4.227   1.296   2.348 -0.4201 -2.3896 -2.3992
31916SOL    HW2 1712   4.132   1.407   2.387  2.8832 -0.6309  1.4842
31917SOL     OW 1713   5.916   4.444   8.951  0.3604  0.1705 -0.5712
31917SOL    HW1 1714   5.918   4.523   8.897 -2.3185  0.8367  0.1451
31917SOL    HW2 1715   5.974   4.463   9.024  0.2030  1.2798 -0.7113
31918SOL     OW 1716   8.826   7.109   3.149  0.4578  0.0676 -0.0651
31918SOL    HW1 1717   8.794   7.036   3.201 -1.8486 -0.0326 -1.4709
31918SOL    HW2 1718   8.779   7.185   3.183  0.3977  0.3290 -0.7100
31919SOL     OW 1719  11.729   3.178   9.978 -0.1297 -0.3591  0.6803
31919SOL    HW1 1720  11.647   3.225   9.961  0.1469 -0.0710  0.1202
31919SOL    HW2 1721  11.774   3.232  10.043 -0.4054 -0.5481  1.0330
31920SOL     OW 1722   6.734   4.050   7.577  0.3711 -0.7737  0.8224
31920SOL    HW1 1723   6.790   4.099   7.517 -0.9878  0.6981  0.6708
31920SOL    HW2 1724   6.766   3.960   7.572  0.6664 -0.5999 -1.6566
31921SOL     OW 1725   9.309   9.184   1.338  0.0605  0.0847 -0.1244
31921SOL    HW1 1726   9.245   9.146   1.278  0.5901 -0.9003 -0.0983
31921SOL    HW2 1727   9.377   9.220   1.281  0.3218 -0.4146 -0.1384
31922SOL     OW 1728   7.582   2.783  12.445  0.8964  0.3097  0.3924
31922SOL    HW1 1729   7.547   2.853  12.390  1.9437 -0.2901 -1.1061
31922SOL    HW2 1730   7.518   2.774  12.515  0.3392  2.2329  0.2067
31923SOL     OW 1731   4.460   5.247   8.514 -0.0450  0.0897 -0.1076
31923SOL    HW1 1732   4.555   5.248   8.502 -0.1912  1.0778 -1.5776
31923SOL    HW2 1733   4.446   5.299   8.593  0.6686 -0.6796  0.5416
31924SOL     OW 1734   3.904  12.414   9.368 -0.3723 -0.0107  0.3101
31924SOL    HW1 1735   3.845  12.361   9.423 -2.0642 -0.7023 -2.0163
31924SOL    HW2 1736   3.971  12.352   9.339 -1.4456 -0.5838 -1.1069
31925SOL     OW 1737   0.839  10.281   6.151 -0.1465  0.1501 -0.0250
31925SOL    HW1 1738   0.764  10.332   6.180  0.1725  0.2757  0.5969
31925SOL    HW2 1739   0.853  10.308   6.060 -1.2300 -0.3388 -0.3442
31926SOL     OW 1740   0.582   9.462   9.668 -0.1239 -0.4676  0.1905
31926SOL    HW1 1741   0.552   9.431   9.753 -0.1709 -1.4412 -0.1579
31926SOL    HW2 1742   0.626   9.386   9.629  0.7540  0.2473 -0.2561
31927SOL     OW 1743   4.402   3.098  10.064 -0.2656  0.2032 -0.0936
31927SOL    HW1 1744   4.310   3.093  10.037 -0.8481  2.2473  1.3073
31927SOL    HW2 1745   4.400   3.087  10.159  0.8348  1.0851  0.0553
31928SOL     OW 1746  11.275   7.313   3.053  0.0957 -0.5994 -0.1408
31928SOL    HW1 1747  11.309   7.381   3.110 -0.0549 -0.6886  0.0569
31928SOL    HW2 1748  11.213   7.264   3.108 -0.0348 -0.6972 -0.3727
31929SOL     OW 1749  12.166   4.017   3.744  0.3067 -0.4537 -0.0836
31929SOL    HW1 1750  12.244   4.009   3.689  0.2600  0.9113 -0.3627
31929SOL    HW2 1751  12.190   4.081   3.811 -0.2143 -0.8393  0.4835
31930SOL     OW 1752   0.955   8.244  10.788 -0.9135  0.3144  0.1422
31930SOL    HW1 1753   0.913   8.179  10.732  0.2709 -0.7626  0.4585
31930SOL    HW2 1754   1.033   8.272  10.739 -1.2794  1.3455  0.1149
31931SOL     OW 1755   4.210   5.526   1.766 -0.6034  0.3423 -0.2419
31931SOL    HW1 1756   4.231   5.449   1.820  1.5451  0.3633 -0.9497
31931SOL    HW2 1757   4.132   5.500   1.717 -0.5219 -1.0143  0.2983
31932SOL     OW 1758   6.891   7.149   6.359 -0.0940  0.2622 -0.8740
31932SOL    HW1 1759   6.810   7.111   6.391 -0.6227  0.9759 -1.3466
31932SOL    HW2 1760   6.955   7.129   6.428 -0.6647 -0.2703 -0.4832
31933SOL     OW 1761   4.195   0.223  11.447 -0.2559  0.2296 -0.8866
31933SOL    HW1 1762   4.241   0.219  11.531 -0.4328 -1.3387 -0.8387
31933SOL    HW2 1763   4.258   0.264  11.387  0.6845 -0.5941 -0.4852
31934SOL     OW 1764   4.125   5.006   2.520 -0.0450 -0.1785  0.0944
31934SOL    HW1 1765   4.156   4.920   2.547  1.7467  0.3254 -0.1835
31934SOL    HW2 1766   4.186   5.067   2.562 -2.0331  1.0647  1.3493
31935SOL     OW 1767  12.206   6.818   4.329  0.5619 -0.4742 -0.0126
31935SOL    HW1 1768  12.174   6.728   4.321 -3.1256  0.6784 -0.4469
31935SOL    HW2 1769  12.271   6.826   4.259  0.1300 -2.5016 -0.7312
31936SOL     OW 1770  12.463   9.469   6.041  0.0632 -0.2120  0.2115
31936SOL    HW1 1771  12.445   9.558   6.011 -1.5752 -0.2203  1.0186
31936SOL    HW2 1772  12.557   9.459   6.033  0.0788  0.9860 -1.5121
31937SOL     OW 1773   2.622  12.358  10.631  0.0505 -0.0353 -0.3886
31937SOL    HW1 1774   2.607  12.329  10.720  0.1053  0.6525 -0.1496
31937SOL    HW2 1775   2.535  12.372  10.595  0.0427  0.7150 -0.0917
31938SOL     OW 1776   1.801   6.238   2.012 -0.1872 -0.2549 -0.4942
31938SOL    HW1 1777   1.844   6.280   1.938 -2.0289 -1.0743 -2.1334
31938SOL    HW2 1778   1.747   6.306   2.051  1.3819  0.3889  0.6633
31939SOL     OW 1779   6.395   0.113   6.281  0.2084  0.1873  0.7888
31939SOL    HW1 1780   6.356   0.139   6.365 -2.2176 -1.7436  0.3501
31939SOL    HW2 1781   6.347   0.163   6.215 -0.2719 -0.8545  0.3425
31940SOL     OW 1782   5.191   5.649   9.178  0.1772  0.3768 -0.1308
31940SOL    HW1 1783   5.282   5.633   9.152  0.3280  1.7628 -0.5043
31940SOL    HW2 1784   5.179   5.743   9.169 -1.3435  0.2048 -0.1933
31941SOL     OW 1785   6.266  11.186  11.167  0.1446 -0.1934 -0.1215
31941SOL    HW1 1786   6.186  11.135  11.156  2.7741 -4.6457 -1.3588
31941SOL    HW2 1787   6.291  11.173  11.259  1.0837 -1.8272 -0.5609
31942SOL     OW 1788  11.225   1.461   8.302 -0.2731 -0.5144  0.1294
31942SOL    HW1 1789  11.203   1.368   8.311  0.5914 -1.2708 -3.7275
31942SOL    HW2 1790  11.306   1.471   8.353  0.1664 -2.1718 -0.1680
31943SOL     OW 1791  11.801   5.022   2.106  0.0604  0.2046  0.5779
31943SOL    HW1 1792  11.807   4.956   2.175 -0.4240  0.3552  0.7733
31943SOL    HW2 1793  11.742   5.089   2.142  1.0701  1.0836  0.6475
31944SOL     OW 1794   2.065   6.867   3.643  0.4019 -0.3993 -0.0601
31944SOL    HW1 1795   2.098   6.823   3.722 -1.6507  0.0402  1.1271
31944SOL    HW2 1796   2.072   6.801   3.574 -3.2565 -3.1208  1.7965
31945SOL     OW 1797  10.392   8.681   1.980  0.5167 -0.8420 -0.1302
31945SOL    HW1 1798  10.326   8.705   1.915 -0.9168 -0.2572  1.4933
31945SOL    HW2 1799  10.366   8.726   2.059  3.3406  0.0591  0.3912
31946SOL     OW 1800   7.981   6.236  12.357 -0.0537 -0.1874 -0.3256
31946SOL    HW1 1801   7.895   6.209  12.325  0.1590 -1.6298  0.2628
31946SOL    HW2 1802   8.029   6.155  12.370  1.0206  0.5377  0.4541
31947SOL     OW 1803  10.355   7.429  12.421  0.0641 -0.0178 -0.0688
31947SOL    HW1 1804  10.357   7.509  12.368  0.5180  0.7782  1.1110
31947SOL    HW2 1805  10.293   7.372  12.376 -0.1442  0.9305 -1.0242
31948SOL     OW 1806   0.653   2.149  11.888 -0.2741 -0.3419 -0.6834
31948SOL    HW1 1807   0.638   2.149  11.983  0.9726  1.3928 -0.4492
31948SOL    HW2 1808   0.718   2.217  11.874 -0.8092 -0.2154 -2.8617
31949SOL     OW 1809  12.112  10.865   5.033  0.3406  0.4519  0.3680
31949SOL    HW1 1810  12.027  10.851   4.993 -0.8455  2.7915  1.8543
31949SOL    HW2 1811  12.165  10.904   4.963 -0.7116  1.5370  0.1294
31950SOL     OW 1812   8.885   9.453   5.349 -0.1967 -0.0082  0.2741
31950SOL    HW1 1813   8.876   9.421   5.259  0.6325  1.6493 -0.4423
31950SOL    HW2 1814   8.948   9.393   5.390 -0.7553 -0.9077 -0.1667
31951SOL     OW 1815   2.716   0.923   3.045 -0.1641 -0.7755  0.2753
31951SOL    HW1 1816   2.703   0.900   3.137 -0.6926  0.4339  0.5307
31951SOL    HW2 1817   2.807   0.900   3.027 -0.1859 -1.4370  0.9666
31952SOL     OW 1818   3.999   0.401   4.734 -1.0784  0.2273 -0.0452
31952SOL    HW1 1819   4.005   0.461   4.808 -0.6136  2.7309 -2.0028
31952SOL    HW2 1820   4.082   0.354   4.734  0.4375  2.7294 -0.9308
31953SOL     OW 1821   9.855   3.914   7.048  0.2580  0.4855 -0.2839
31953SOL    HW1 1822   9.827   4.006   7.040  2.7901  1.2539 -1.0871
31953SOL    HW2 1823   9.831   3.890   7.137 -0.6386  1.8474 -0.1159
31954SOL     OW 1824   7.250   3.385   1.646  0.2705  0.2332  0.0769
31954SOL    HW1 1825   7.236   3.338   1.564  1.0233  0.1174  0.0159
31954SOL    HW2 1826   7.344   3.380   1.662  0.2288  0.8880  0.5711
31955SOL     OW 1827  10.299   0.063   2.829 -0.2796  0.1457  0.2252
31955SOL    HW1 1828  10.240   0.124   2.875 -0.4836 -1.0344  1.6180
31955SOL    HW2 1829  10.274  -0.023   2.862  1.7208 -0.4691  0.2638
31956SOL     OW 1830   2.485   7.591   1.882  0.4112 -0.3819 -0.3039
31956SOL    HW1 1831   2.523   7.504   1.891  1.5623  0.0829 -0.4972
31956SOL    HW2 1832   2.520   7.640   1.957  0.6778  0.2216 -0.8134
31957SOL     OW 1833   0.734   6.817   3.989 -0.0090 -0.2659 -0.4825
31957SOL    HW1 1834   0.713   6.748   3.925 -0.1454  2.6545 -3.8537
31957SOL    HW2 1835   0.827   6.833   3.978  0.2103 -0.4428  0.9200
31958SOL     OW 1836  12.155  11.659  11.552 -0.1690  0.6481  0.0573
31958SOL    HW1 1837  12.086  11.689  11.492 -0.9512  1.1884  1.1771
31958SOL    HW2 1838  12.184  11.739  11.596  0.9093  0.3634 -0.1064
31959SOL     OW 1839   9.594   6.566   4.460 -0.4453 -0.0321  0.2026
31959SOL    HW1 1840   9.686   6.562   4.435 -0.3555 -0.0289  0.5338
31959SOL    HW2 1841   9.572   6.659   4.454  0.1020  0.2441  2.0150
31960SOL     OW 1842  10.760   0.412   6.941 -0.2688 -0.2675  0.2959
31960SOL    HW1 1843  10.666   0.426   6.936 -0.0886  0.6781 -1.2095
31960SOL    HW2 1844  10.770   0.317   6.930 -1.0243 -0.3016 -0.1816
31961SOL     OW 1845   8.124  10.011   7.147 -0.4819  0.1659  0.1487
31961SOL    HW1 1846   8.040  10.056   7.154 -1.2609 -1.0488 -1.0706
31961SOL    HW2 1847   8.138  10.001   7.053  1.2482  0.7066  0.3101
31962SOL     OW 1848   2.843   5.769   7.107  0.0551 -0.2265 -0.0188
31962SOL    HW1 1849   2.815   5.860   7.095 -0.6963 -0.4906 -0.2981
31962SOL    HW2 1850   2.838   5.731   7.020 -2.1168 -1.2255  0.4708
31963SOL     OW 1851   2.504  12.378   8.138  0.1850  0.3758 -0.4711
31963SOL    HW1 1852   2.424  12.416   8.174  0.2547 -0.4043  0.5343
31963SOL    HW2 1853   2.500  12.286   8.162  1.7098  0.4612  0.2140
31964SOL     OW 1854   7.753  10.270   6.654  0.2693 -0.1117  0.2621
31964SOL    HW1 1855   7.807  10.301   6.727  0.0413 -0.4660  0.5798
31964SOL    HW2 1856   7.810  10.277   6.578  0.2135  1.1461  0.3149
31965SOL     OW 1857  10.051   0.335   6.085 -0.5839 -0.3024 -0.1851
31965SOL    HW1 1858   9.982   0.279   6.122  1.5404 -1.1612  2.8686
31965SOL    HW2 1859  10.106   0.275   6.035 -1.4978  0.2232 -1.8845
31966SOL     OW 1860   9.642   5.318   0.838  0.7779 -0.3856  0.0849
31966SOL    HW1 1861   9.658   5.310   0.744  1.6177 -2.7034  0.3703
31966SOL    HW2 1862   9.691   5.397   0.864 -1.3759  1.6871 -1.7377
31967SOL     OW 1863   2.136   3.836   7.989 -0.0573 -0.5908  0.1390
31967SOL    HW1 1864   2.051   3.799   7.965 -0.4375  0.4119 -0.1048
31967SOL    HW2 1865   2.119   3.930   7.999  0.6984 -0.5769  1.5729
31968SOL     OW 1866   9.280   1.069   1.012 -0.3944 -0.6605 -0.5315
31968SOL    HW1 1867   9.234   1.008   0.954 -1.8110  0.0671 -0.2259
31968SOL    HW2 1868   9.273   1.030   1.099 -0.4292 -0.5527 -0.4852
31969SOL     OW 1869   7.936  10.321  10.718 -0.1132  0.2475 -0.1877
31969SOL    HW1 1870   7.986  10.247  10.751  0.3752 -0.0324 -1.4864
31969SOL    HW2 1871   7.886  10.353  10.794 -1.2011 -2.0966  0.1580
31970SOL     OW 1872   0.269   3.541   2.783  0.3814  0.3416  0.4055
31970SOL    HW1 1873   0.274   3.447   2.802 -1.3445  0.1741  0.1356
31970SOL    HW2 1874   0.313   3.550   2.698  1.9112  0.0403  1.1346
31971SOL     OW 1875   6.951   2.444   8.283 -0.2166  0.8356  0.4998
31971SOL    HW1 1876   6.980   2.405   8.366 -0.0040  0.1944  0.1334
31971SOL    HW2 1877   6.858   2.459   8.295 -0.4137 -0.2980  0.4578
31972SOL     OW 1878   1.682   9.759   2.332 -0.4127  0.3997 -0.1429
31972SOL    HW1 1879   1.621   9.743   2.404 -0.2967 -0.2433 -0.1800
31972SOL    HW2 1880   1.766   9.773   2.374 -0.1146 -1.0955 -0.1781
31973SOL     OW 1881   9.886   6.311   0.700 -0.0899  0.2358  0.0145
31973SOL    HW1 1882   9.879   6.228   0.748 -1.4908  0.6203  0.5383
31973SOL    HW2 1883   9.826   6.301   0.626 -0.3841  0.8180  0.1665
31974SOL     OW 1884   2.039   8.141  11.105 -0.0989 -0.1563  0.4091
31974SOL    HW1 1885   1.972   8.122  11.171 -0.4192 -0.5671 -0.0230
31974SOL    HW2 1886   1.991   8.189  11.037  0.4110  1.0323  0.8613
31975SOL     OW 1887   2.515  10.349   9.467  0.1626  0.2313  0.9269
31975SOL    HW1 1888   2.480  10.295   9.537  0.5824 -0.0938  0.8916
31975SOL    HW2 1889   2.595  10.304   9.439  0.5108  0.8560  0.8882
31976SOL     OW 1890   9.906   7.422   7.145 -0.1400 -0.2230 -1.0413
31976SOL    HW1 1891   9.901   7.517   7.139 -1.4527 -0.3426 -2.7821
31976SOL    HW2 1892   9.852   7.391   7.073 -0.6493 -2.3035  0.1408
31977SOL     OW 1893   4.271   4.212   1.538  0.0118 -0.3414 -0.0305
31977SOL    HW1 1894   4.291   4.305   1.550 -1.8794  0.1402 -0.2723
31977SOL    HW2 1895   4.270   4.176   1.627  0.3693 -0.0598  0.0911
31978SOL     OW 1896   5.136   8.822   1.908 -0.3216  0.7056  0.6026
31978SOL    HW1 1897   5.198   8.854   1.843 -0.9542 -1.2390 -1.0552
31978SOL    HW2 1898   5.188   8.762   1.963 -0.4861 -0.2470 -0.2450
31979SOL     OW 1899   9.279   4.914  12.002 -0.0909  0.3046  0.1018
31979SOL    HW1 1900   9.309   4.974  11.934  0.5424  1.2458  1.1763
31979SOL    HW2 1901   9.334   4.837  11.992  1.1589  1.0982  0.5751
31980SOL     OW 1902   5.407   1.051   5.453 -0.0470  0.6143 -0.1396
31980SOL    HW1 1903   5.329   0.998   5.467  0.6448 -0.3969  0.0213
31980SOL    HW2 1904   5.382   1.139   5.480 -0.9032  0.1606  0.5903
31981SOL     OW 1905   7.231   1.034  10.471 -0.0733 -0.1198  0.3045
31981SOL    HW1 1906   7.311   1.073  10.506  0.9893 -1.7023 -0.2686
31981SOL    HW2 1907   7.220   0.953  10.521 -0.7000 -0.4782 -0.3961
31982SOL     OW 1908  10.634   6.163   7.317  0.2439 -0.3649 -0.0636
31982SOL    HW1 1909  10.598   6.251   7.305  0.7243 -0.2216 -0.4787
31982SOL    HW2 1910  10.633   6.125   7.229  1.9084 -0.0403 -0.2544
31983SOL     OW 1911  10.153   8.648   5.577 -0.3620  0.4553  1.0516
31983SOL    HW1 1912  10.239   8.688   5.580 -0.4037  0.6065  0.4119
31983SOL    HW2 1913  10.122   8.665   5.488 -0.2246 -1.3095  0.6343
31984SOL     OW 1914   8.141   4.773   2.210  0.4077 -0.4328 -0.8774
31984SOL    HW1 1915   8.178   4.722   2.282 -0.2484 -0.1635 -0.3375
31984SOL    HW2 1916   8.101   4.708   2.153  0.6860 -0.6230 -0.8596
31985SOL     OW 1917   3.345   7.836   3.808 -0.4623 -0.0851  0.5991
31985SOL    HW1 1918   3.346   7.917   3.758 -0.9136  1.6675  3.2220
31985SOL    HW2 1919   3.270   7.787   3.772 -2.4395  2.2821  1.2185
31986SOL     OW 1920  11.612   6.315  12.092 -0.2898  0.4823  0.7033
31986SOL    HW1 1921  11.615   6.230  12.048  2.4419  2.2414 -3.0568
31986SOL    HW2 1922  11.682   6.310  12.157  0.8088  0.2376 -0.4568
31987SOL     OW 1923  11.052  12.381   0.967 -0.2125 -0.1333 -0.5164
31987SOL    HW1 1924  11.133  12.333   0.987 -1.3236 -1.2740  1.5401
31987SOL    HW2 1925  11.059  12.462   1.019 -0.5609 -0.4332  0.0061
31988SOL     OW 1926   7.091   5.888   2.304 -0.5291 -0.0712 -0.7269
31988SOL    HW1 1927   7.182   5.861   2.321 -0.6697 -0.0709  0.0845
31988SOL    HW2 1928   7.070   5.946   2.378 -0.4173  1.8435 -2.1235
31989SOL     OW 1929   3.278  11.766   2.549  0.3752 -0.2933  0.0043
31989SOL    HW1 1930   3.283  11.674   2.524  0.4609  0.1416 -1.7225
31989SOL    HW2 1931   3.356  11.805   2.510  0.0974  0.5968  0.3282
31990SOL     OW 1932   8.299  12.013   5.704 -0.6429  0.3358 -0.0112
31990SOL    HW1 1933   8.348  11.933   5.685  0.3381  0.4668  1.7341
31990SOL    HW2 1934   8.212  11.982   5.731 -0.3132 -0.1629  0.5141
31991SOL     OW 1935   0.163   7.372   1.932 -0.3110 -0.3445 -0.7561
31991SOL    HW1 1936   0.072   7.397   1.942 -0.3172 -1.0069  1.2071
31991SOL    HW2 1937   0.195   7.425   1.859 -1.2799  2.5919  0.8100
31992SOL     OW 1938   8.529   7.720  10.311 -0.0539  0.3573 -0.5821
31992SOL    HW1 1939   8.580   7.639  10.312 -1.6625 -0.7076 -0.6371
31992SOL    HW2 1940   8.515   7.740  10.403  0.9368  0.9988 -0.5523
31993SOL     OW 1941   4.207  10.892  11.041 -0.1499 -0.2219 -0.4242
31993SOL    HW1 1942   4.173  10.826  11.101 -1.9340  1.6401  0.7318
31993SOL    HW2 1943   4.156  10.880  10.961  1.8704 -2.3597 -1.5241
31994SOL     OW 1944   7.010  11.111  11.163 -0.6350 -0.1914 -0.4141
31994SOL    HW1 1945   6.929  11.161  11.173  0.0257  0.7699  0.3498
31994SOL    HW2 1946   7.079  11.175  11.179  0.2791 -0.9956 -1.0624
31995SOL     OW 1947   0.531   4.032   4.391 -0.9347  0.1380 -0.9338
31995SOL    HW1 1948   0.514   4.053   4.483  0.2258 -0.0026 -0.6760
31995SOL    HW2 1949   0.544   4.117   4.349 -1.9964  0.2404 -1.1041
31996SOL     OW 1950   6.984  10.162  12.329  0.3930  0.7865  1.0895
31996SOL    HW1 1951   6.988  10.156  12.424 -0.9017 -0.5841  1.0947
31996SOL    HW2 1952   6.893  10.185  12.310  0.2761 -0.3372  0.1558
31997SOL     OW 1953   7.625   4.429  12.134 -0.1766 -0.4634 -0.1775
31997SOL    HW1 1954   7.539   4.457  12.167  0.3135 -0.3967  1.1090
31997SOL    HW2 1955   7.664   4.509  12.099  1.0765  0.5733  3.1647
31998SOL     OW 1956  10.421   5.306   2.610  0.6937 -0.4469 -0.6999
31998SOL    HW1 1957  10.416   5.219   2.569 -1.7329 -0.7536  0.0663
31998SOL    HW2 1958  10.330   5.327   2.632  1.4973  1.1819  1.4311
31999SOL     OW 1959   0.121  10.803   3.398 -0.7355 -0.3021  0.6324
31999SOL    HW1 1960   0.155  10.719   3.430  2.8099  1.1151  0.9885
31999SOL    HW2 1961   0.115  10.858   3.475 -0.7848  0.4760  0.0873
32000SOL     OW 1962   6.761   7.278   7.646 -0.7374 -0.3320 -0.4424
32000SOL    HW1 1963   6.705   7.338   7.597 -1.0012 -0.3739 -0.1936
32000SOL    HW2 1964   6.700   7.215   7.684 -0.3863 -1.5009 -1.7153
32001SOL     OW 1965   2.214   2.934   5.396  0.4179  0.3485  0.0430
32001SOL    HW1 1966   2.289   2.943   5.337  0.9620 -2.8829  0.0685
32001SOL    HW2 1967   2.139   2.965   5.343  0.9410 -2.0218 -2.2924
32002SOL     OW 1968   7.538   2.938   4.928 -0.6598 -0.0420 -0.2572
32002SOL    HW1 1969   7.450   2.906   4.947 -0.0226 -0.0981  3.1075
32002SOL    HW2 1970   7.551   3.012   4.988  1.6678 -0.2006 -0.4545
32003SOL     OW 1971   2.165   1.487   8.788 -0.0905  0.1299 -0.0287
32003SOL    HW1 1972   2.202   1.543   8.719  0.9223 -0.3913  0.0732
32003SOL    HW2 1973   2.121   1.417   8.740  0.2111  0.0263 -0.1613
32004SOL     OW 1974   3.219   6.378  10.963  0.2440  0.1199 -0.4100
32004SOL    HW1 1975   3.225   6.288  10.932 -2.3623  0.7000 -3.0636
32004SOL    HW2 1976   3.125   6.393  10.976  0.6401  2.3082  0.4633
32005SOL     OW 1977   0.495   7.290  12.175  0.4186 -0.8851  0.1424
32005SOL    HW1 1978   0.539   7.261  12.255  1.6464  0.1336 -0.1245
32005SOL    HW2 1979   0.529   7.234  12.106 -0.9423 -2.0305  0.3629
32006SOL     OW 1980   1.214   0.030   2.844  0.0842  0.0153 -0.3521
32006SOL    HW1 1981   1.231  -0.024   2.921 -3.8399  1.1529  1.5464
32006SOL    HW2 1982   1.186  -0.032   2.777 -1.4389 -0.6162  0.8249
32007SOL     OW 1983   1.788   1.191   1.153 -0.2049 -0.0195 -0.0209
32007SOL    HW1 1984   1.846   1.152   1.088  0.6413 -1.1247  1.3237
32007SOL    HW2 1985   1.714   1.130   1.158  0.0359 -0.2796  0.4763
32008SOL     OW 1986   9.120  11.404   4.402  0.8902 -0.2447  0.1822
32008SOL    HW1 1987   9.157  11.383   4.316 -0.2538  0.5890 -0.5435
32008SOL    HW2 1988   9.027  11.381   4.394  0.8272 -0.4153  1.2924
32009SOL     OW 1989   6.485   5.415   1.784 -1.1429  0.1862 -0.2025
32009SOL    HW1 1990   6.452   5.388   1.869 -0.3595 -2.4490 -0.6631
32009SOL    HW2 1991   6.488   5.335   1.732 -0.1241  1.4413 -2.2339
32010SOL     OW 1992   6.521   2.845   8.177 -0.5552 -0.4696 -0.1971
32010SOL    HW1 1993   6.558   2.761   8.151 -1.8634 -1.7779  1.9009
32010SOL    HW2 1994   6.597   2.903   8.187  0.8421 -2.5269  2.1489
32011SOL     OW 1995  10.694   9.516   1.530  0.0570  0.1124  0.2800
32011SOL    HW1 1996  10.661   9.461   1.459  1.0837  0.1708 -0.2623
32011SOL    HW2 1997  10.687   9.605   1.495 -1.7895  0.3868  1.2300
32012SOL     OW 1998   1.039   1.054  10.218 -0.0818  0.2275  0.3390
32012SOL    HW1 1999   1.080   1.014  10.141 -1.8269 -0.3830 -0.3135
32012SOL    HW2 2000   1.082   1.012  10.292 -1.1217 -2.1960 -0.3196
32013SOL     OW 2001  10.706  10.196   5.666 -0.0062  0.9956  0.0896
32013SOL    HW1 2002  10.703  10.119   5.722 -0.0889  1.1716  0.3302
32013SOL    HW2 2003  10.616  10.230   5.668  0.3400  1.9225  1.1578
32014SOL     OW 2004   8.646   1.422  12.385  0.1168  0.2919 -0.2415
32014SOL    HW1 2005   8.680   1.373  12.310  1.8405  2.7886 -1.2287
32014SOL    HW2 2006   8.722   1.435  12.442 -0.5815  0.7292  0.6233
32015SOL     OW 2007   8.960  11.511  11.828  0.6152 -0.0507  0.1124
32015SOL    HW1 2008   8.921  11.598  11.828  0.6156 -0.0321 -0.7980
32015SOL    HW2 2009   9.046  11.523  11.788  0.8945 -0.3584  0.6164
32016SOL     OW 2010   5.798  10.186   1.858  0.4404  0.6645  0.4629
32016SOL    HW1 2011   5.749  10.144   1.929 -0.5560  0.0138 -0.5802
32016SOL    HW2 2012   5.843  10.114   1.814 -0.9305  0.6901 -1.0701
32017SOL     OW 2013  10.104   5.236   7.757  0.6624 -0.5733 -0.1092
32017SOL    HW1 2014  10.075   5.149   7.729 -0.3454  0.1648 -1.4847
32017SOL    HW2 2015  10.184   5.251   7.707  0.7410 -0.6206 -0.0001
32018SOL     OW 2016   8.978   0.014  10.864  0.5150 -0.4753 -0.2145
32018SOL    HW1 2017   9.073   0.024  10.851  0.2736  0.7411 -1.2385
32018SOL    HW2 2018   8.969  -0.011  10.956  1.7701  0.7897  0.2919
32019SOL     OW 2019   9.017   6.415   0.842  0.0024  0.2600  0.0918
32019SOL    HW1 2020   8.964   6.341   0.813  0.1063 -0.5189  1.7914
32019SOL    HW2 2021   8.975   6.492   0.803 -1.8177 -0.4223  0.6063
32020SOL     OW 2022   4.333   4.549   0.448 -0.5815  0.1197 -0.5911
32020SOL    HW1 2023   4.331   4.583   0.358 -1.1755 -1.4048 -1.1859
32020SOL    HW2 2024   4.396   4.476   0.445 -1.9990 -1.1708 -0.2600
32021SOL     OW 2025   0.387   4.181   9.191  0.3749  0.6269 -0.3893
32021SOL    HW1 2026   0.431   4.209   9.272  1.7567 -3.4153  0.4811
32021SOL    HW2 2027   0.298   4.162   9.218  0.8859 -0.9111  0.3032
32022SOL     OW 2028   1.873   6.278   6.262 -0.4590 -0.4998  0.1907
32022SOL    HW1 2029   1.907   6.353   6.310  2.1738 -0.6370 -1.2357
32022SOL    HW2 2030   1.864   6.209   6.327  0.9494 -0.0650  0.8825
32023SOL     OW 2031  10.407  10.247  12.252  0.2697 -0.3163  0.6425
32023SOL    HW1 2032  10.333  10.213  12.202 -0.7234  0.7370  1.3494
32023SOL    HW2 2033  10.422  10.182  12.321  0.3844 -0.8040  0.1673
32024SOL     OW 2034   5.705   6.974  10.769 -1.1774 -0.6237 -0.5925
32024SOL    HW1 2035   5.686   7.056  10.815  1.7209 -0.0106 -0.2546
32024SOL    HW2 2036   5.666   6.906  10.823 -1.8960  0.4046  0.2298
32025SOL     OW 2037   9.755   5.788   0.769 -0.4089  0.7885  0.3856
32025SOL    HW1 2038   9.665   5.817   0.783 -1.0609 -0.6735 -0.5297
32025SOL    HW2 2039   9.768   5.795   0.675  0.9219  2.2254  0.6274
32026SOL     OW 2040   6.499   3.166   7.705 -0.1949  0.5105  0.1199
32026SOL    HW1 2041   6.499   3.079   7.745  2.7604  0.6017  0.5445
32026SOL    HW2 2042   6.491   3.227   7.779  2.7779  0.6298  0.4287
32027SOL     OW 2043   5.252   4.895   7.525 -0.8120 -0.0135 -0.0591
32027SOL    HW1 2044   5.328   4.953   7.516 -1.1487  0.9655  2.5356
32027SOL    HW2 2045   5.289   4.808   7.538 -0.2227  0.0647 -1.1192
32028SOL     OW 2046   2.219   2.897   6.141 -0.3586  0.0331 -0.4051
32028SOL    HW1 2047   2.188   2.806   6.137 -2.0382  0.6088 -1.1644
32028SOL    HW2 2048   2.202   2.923   6.232  2.5181 -1.1440  0.6008
32029SOL     OW 2049  10.250   8.369   4.200 -0.5755 -0.0408  0.0672
32029SOL    HW1 2050  10.306   8.353   4.276 -0.4418  0.6031  0.1038
32029SOL    HW2 2051  10.232   8.281   4.165 -0.8650 -0.3712  1.0064
32030SOL     OW 2052   2.100  10.375   9.067  0.2370 -0.1502  0.1439
32030SOL    HW1 2053   2.125  10.335   8.984  1.3103 -0.0471  0.4031
32030SOL    HW2 2054   2.156  10.332   9.132 -0.0404  0.3240  0.7066
32031SOL     OW 2055   3.041   0.646   1.497 -0.1024  0.4377  0.0973
32031SOL    HW1 2056   2.992   0.600   1.429 -0.8486  1.2485  0.0790
32031SOL    HW2 2057   3.122   0.595   1.506 -1.4926 -1.7560  1.1244
32032SOL     OW 2058   2.639  10.396   4.864 -0.2309  0.3195  0.1926
32032SOL    HW1 2059   2.712  10.359   4.913 -0.6422 -0.8607 -0.0503
32032SOL    HW2 2060   2.562  10.377   4.918 -0.4840  0.5229 -0.0955
32033SOL     OW 2061  10.978   3.705   2.262  0.5891  0.3547 -0.6444
32033SOL    HW1 2062  10.991   3.650   2.184  1.5533  0.8767 -0.8698
32033SOL    HW2 2063  11.053   3.764   2.262  0.3501  0.6742  0.4307
32034SOL     OW 2064   0.689   5.552   4.436  0.0792 -0.1958  0.1139
32034SOL    HW1 2065   0.734   5.556   4.521  1.3196 -0.8983 -0.4724
32034SOL    HW2 2066   0.621   5.486   4.448  0.3606 -0.4178  0.5264
32035SOL     OW 2067   9.077   0.355   8.609 -0.6382  0.4222 -0.0693
32035SOL    HW1 2068   9.154   0.406   8.633 -0.2802  0.3356 -0.9989
32035SOL    HW2 2069   9.014   0.372   8.679  1.0985 -1.5321  2.1665
32036SOL     OW 2070   6.345   9.586  10.899 -0.2983 -0.2791  0.3698
32036SOL    HW1 2071   6.425   9.592  10.847  0.3701  1.1402  1.4951
32036SOL    HW2 2072   6.280   9.638  10.851 -0.8977 -2.2200 -1.0517
32037SOL     OW 2073   1.359  11.983   0.065  0.4141  0.5120 -0.4571
32037SOL    HW1 2074   1.378  12.031   0.146  0.3329  0.9795 -0.7085
32037SOL    HW2 2075   1.444  11.978   0.020  1.3448 -3.0772  1.3541
32038SOL     OW 2076  10.360   5.505   1.949  0.0895 -0.4365  0.1174
32038SOL    HW1 2077  10.290   5.471   2.006 -0.1522 -0.2088 -0.0409
32038SOL    HW2 2078  10.316   5.568   1.892  0.8290  1.4456  1.5354
32039SOL     OW 2079   7.202   8.255  10.846 -0.0611 -0.4292  0.4187
32039SOL    HW1 2080   7.155   8.185  10.801 -0.7647 -1.2598  2.3642
32039SOL    HW2 2081   7.295   8.238  10.828 -0.2695 -1.4306  0.2720
32040SOL     OW 2082   9.083   1.443   4.364  1.0291  0.5933  0.5257
32040SOL    HW1 2083   9.102   1.397   4.445  1.2220  0.1541  0.2329
32040SOL    HW2 2084   9.026   1.383   4.315  0.5608  1.0329  0.5167
32041SOL     OW 2085   2.776   1.792   2.437  0.1616  0.1972 -0.1432
32041SOL    HW1 2086   2.705   1.786   2.373  0.5341 -0.0830 -0.5334
32041SOL    HW2 2087   2.731   1.806   2.521 -0.3887 -0.6054 -0.2892
32042SOL     OW 2088  10.849   3.351  11.597 -0.1911  0.5547  0.0012
32042SOL    HW1 2089  10.779   3.396  11.644 -0.1477 -0.4949  1.1109
32042SOL    HW2 2090  10.897   3.303  11.664 -0.6922 -1.7426 -1.1481
32043SOL     OW 2091   1.758   4.411   4.459  0.6394  0.1524 -0.0483
32043SOL    HW1 2092   1.664   4.426   4.447  0.6888  1.1034  0.6094
32043SOL    HW2 2093   1.767   4.316   4.464 -0.7141  0.0935  3.0135
32044SOL     OW 2094   2.969   0.774   6.395 -0.2816  0.0732  0.0854
32044SOL    HW1 2095   2.969   0.862   6.356 -2.6199 -0.6655 -1.8750
32044SOL    HW2 2096   2.894   0.774   6.454  0.5041 -0.2484  1.1154
32045SOL     OW 2097   0.146  11.148  11.985  0.1577  0.2335  1.0340
32045SOL    HW1 2098   0.145  11.068  11.933 -0.2980  0.5882  0.4756
32045SOL    HW2 2099   0.236  11.178  11.982  0.3238 -0.2380  1.2202
32046SOL     OW 2100  11.580   8.060   6.874  0.5745  0.4924 -0.0328
32046SOL    HW1 2101  11.561   8.008   6.796  1.4381  0.8318 -0.4793
32046SOL    HW2 2102  11.676   8.065   6.877  0.5100  2.3158 -0.1837
32047SOL     OW 2103  10.338   0.957   0.293  0.5488 -0.0840  0.1330
32047SOL    HW1 2104  10.320   0.925   0.382 -0.9216 -0.3499 -0.2416
32047SOL    HW2 2105  10.256   0.944   0.246  1.0258  0.9399 -1.0152
32048SOL     OW 2106  10.762   3.292   8.064  0.3243 -0.2734 -0.2534
32048SOL    HW1 2107  10.691   3.295   8.000  0.5592 -0.4762 -0.5247
32048SOL    HW2 2108  10.835   3.335   8.021  0.2483  0.3024  0.1820
32049SOL     OW 2109   0.251   6.035   5.218  0.6983  0.1692 -0.0952
32049SOL    HW1 2110   0.183   6.100   5.237  0.3344 -0.4926  0.9288
32049SOL    HW2 2111   0.321   6.055   5.280  1.1549  0.4121 -0.6805
32050SOL     OW 2112  11.324   9.661   6.056 -0.3780  0.2982  0.3740
32050SOL    HW1 2113  11.416   9.635   6.062 -0.0427  1.5163  0.7272
32050SOL    HW2 2114  11.288   9.646   6.144 -0.8916 -1.4458 -0.0990
32051SOL     OW 2115   7.926   7.972   4.643  0.6186  0.2910 -0.3401
32051SOL    HW1 2116   7.979   8.037   4.596 -0.8379  0.2091 -2.2203
32051SOL    HW2 2117   7.927   7.895   4.587  0.4003 -0.5205  0.7360
32052SOL     OW 2118   5.804   2.428   9.886  0.3140 -0.1664  0.1626
32052SOL    HW1 2119   5.882   2.407   9.937  0.9407 -0.2195 -0.7868
32052SOL    HW2 2120   5.835   2.489   9.819 -0.3324 -0.6333 -0.5779
32053SOL     OW 2121   2.087   3.442   6.711 -0.0871  0.0388  0.0759
32053SOL    HW1 2122   2.029   3.365   6.712  0.0308 -0.0494  0.0947
32053SOL    HW2 2123   2.055   3.497   6.782  0.0513 -0.1566  0.2890
32054SOL     OW 2124   0.507   4.229   6.900 -0.2639  0.1007  0.0608
32054SOL    HW1 2125   0.534   4.191   6.984 -1.8424 -0.2600  0.4297
32054SOL    HW2 2126   0.477   4.153   6.849 -0.1255  0.4289 -0.5100
32055SOL     OW 2127   9.242   2.206   5.317  0.0765  0.2010  0.6713
32055SOL    HW1 2128   9.222   2.217   5.224 -0.9440  0.1398  0.8740
32055SOL    HW2 2129   9.172   2.150   5.351 -0.5570  1.6260  1.8278
32056SOL     OW 2130   9.903   1.164   3.878 -0.0716  0.5051 -0.7800
32056SOL    HW1 2131   9.810   1.180   3.893 -0.1197 -1.4213  1.7815
32056SOL    HW2 2132   9.947   1.230   3.932 -0.1451 -1.6660  2.1843
32057SOL     OW 2133   5.001   4.382   7.321 -0.1682  0.5325 -0.2277
32057SOL    HW1 2134   4.938   4.314   7.344  0.4958  0.1745  0.6026
32057SOL    HW2 2135   5.048   4.347   7.246 -0.7322  0.6646 -0.6494
32058SOL     OW 2136   8.813   2.605  10.968  0.3422 -0.0417  0.1999
32058SOL    HW1 2137   8.760   2.526  10.955 -2.4159  1.7718 -0.6174
32058SOL    HW2 2138   8.886   2.576  11.023 -1.9615 -2.6165  2.2218
32059SOL     OW 2139   4.233   0.859   8.282  0.5517  0.8205  0.0757
32059SOL    HW1 2140   4.186   0.941   8.286 -0.2195  0.3742  0.3710
32059SOL    HW2 2141   4.193   0.805   8.351  2.5097  0.9583  1.4098
32060SOL     OW 2142   0.784   4.595   2.414 -0.7401 -0.3668 -0.2672
32060SOL    HW1 2143   0.736   4.670   2.448  1.7557  0.2667  2.2764
32060SOL    HW2 2144   0.761   4.523   2.473 -0.3696 -0.6651 -0.4807
32061SOL     OW 2145   7.882   8.415  10.345 -0.0763 -0.1366  0.0551
32061SOL    HW1 2146   7.817   8.356  10.308 -0.0873  0.9459 -1.7919
32061SOL    HW2 2147   7.964   8.388  10.304 -0.1168  1.2136 -0.9699
32062SOL     OW 2148   8.438   0.357   8.585 -0.1299 -0.6769 -0.0879
32062SOL    HW1 2149   8.525   0.321   8.568  0.9736  1.9383 -0.4848
32062SOL    HW2 2150   8.434   0.437   8.533 -3.5582 -1.6262 -1.6164
32063SOL     OW 2151   0.062   7.149  12.309  0.1314  0.2546  0.6302
32063SOL    HW1 2152  -0.014   7.207  12.319 -0.4442 -0.0418 -1.5000
32063SOL    HW2 2153   0.089   7.129  12.399 -3.6567 -1.4112  1.6187
32064SOL     OW 2154   9.294   7.269   2.856  0.2033  0.2078  0.3157
32064SOL    HW1 2155   9.327   7.350   2.893  0.3727 -0.4359  1.6187
32064SOL    HW2 2156   9.201   7.267   2.879  0.4677 -0.5450  1.4238
32065SOL     OW 2157   7.048   6.548   2.542 -0.3099  0.1986  0.0357
32065SOL    HW1 2158   6.986   6.620   2.534  0.8976  1.2698 -0.1070
32065SOL    HW2 2159   7.134   6.590   2.536  0.4817 -1.5337 -2.8694
32066SOL     OW 2160   3.294  11.559   6.832 -0.5342 -0.8042  0.4169
32066SOL    HW1 2161   3.347  11.597   6.762 -1.1185  0.0690  0.4276
32066SOL    HW2 2162   3.205  11.591   6.813 -0.3659  1.4151  2.8370
32067SOL     OW 2163   9.758   2.357  11.342 -0.0141 -0.2257 -0.6982
32067SOL    HW1 2164   9.844   2.391  11.366 -0.9173  1.7396 -0.0159
32067SOL    HW2 2165   9.746   2.281  11.399  1.4971 -0.8845 -1.2295
32068SOL     OW 2166   7.285  11.362  11.228  0.5367  0.0376 -0.6961
32068SOL    HW1 2167   7.291  11.450  11.265 -0.1564 -0.6945  1.3084
32068SOL    HW2 2168   7.279  11.376  11.134  2.2837  2.0362 -0.5902
32069SOL     OW 2169   7.615   4.384   3.002 -0.0775 -0.1414  0.0917
32069SOL    HW1 2170   7.566   4.308   3.033 -0.4685  0.0908  0.0624
32069SOL    HW2 2171   7.689   4.391   3.062  0.5297 -1.1377 -0.5194
32070SOL     OW 2172   9.090   6.210  11.290 -0.0971 -0.2380  0.2685
32070SOL    HW1 2173   9.034   6.247  11.358 -1.4943 -0.8618 -0.4950
32070SOL    HW2 2174   9.102   6.119  11.315  0.0281 -0.2709  0.0881
32071SOL     OW 2175  11.944   8.321   9.333  0.3134  0.2082 -0.5286
32071SOL    HW1 2176  11.856   8.282   9.326  0.8783 -1.5541  1.2286
32071SOL    HW2 2177  11.977   8.318   9.243 -0.7087 -0.9492 -0.9137
32072SOL     OW 2178   5.430   0.020   6.154  0.0603  0.3432 -0.1201
32072SOL    HW1 2179   5.466   0.097   6.110  1.2201  0.3800  0.8280
32072SOL    HW2 2180   5.456   0.030   6.246 -0.8872 -0.5363  0.2731
32073SOL     OW 2181  10.943   1.723   5.001 -0.1596 -0.5975 -0.0093
32073SOL    HW1 2182  10.968   1.692   5.088  0.2579 -2.0575 -0.6058
32073SOL    HW2 2183  11.005   1.793   4.981 -1.5128  1.1713  1.6390
32074SOL     OW 2184   7.836  10.009   4.683  0.1022 -0.2417 -0.0667
32074SOL    HW1 2185   7.866   9.987   4.771  0.2078 -0.3290 -0.1248
32074SOL    HW2 2186   7.752  10.052   4.696 -0.5028 -1.4135 -0.0074
32075SOL     OW 2187   0.880   6.747   8.862 -0.4220 -0.6508 -0.2706
32075SOL    HW1 2188   0.882   6.803   8.784 -1.3358  0.4805  0.4892
32075SOL    HW2 2189   0.798   6.698   8.855 -0.5325 -0.5064  0.0084
32076SOL     OW 2190   3.884   8.227   3.354 -0.1118  0.1321  0.2089
32076SOL    HW1 2191   3.872   8.138   3.320 -1.2529  0.4565 -0.2942
32076SOL    HW2 2192   3.863   8.220   3.447 -0.5833 -0.0546  0.0938
32077SOL     OW 2193   8.501   1.610   8.654  0.1365 -0.0780 -0.0090
32077SOL    HW1 2194   8.432   1.558   8.695  0.1197 -0.1666 -0.1473
32077SOL    HW2 2195   8.466   1.698   8.648  0.6931  0.2905  1.5335
32078SOL     OW 2196   6.676  12.072   4.318  0.6186  0.4054 -0.1398
32078SOL    HW1 2197   6.760  12.107   4.289  0.2363  1.6175  0.1766
32078SOL    HW2 2198   6.683  11.978   4.301  2.0690  0.4646 -0.0406
32079SOL     OW 2199  11.824   6.938   2.384  0.3342 -0.1969 -0.0029
32079SOL    HW1 2200  11.815   6.938   2.480 -0.8560 -1.2616 -0.0882
32079SOL    HW2 2201  11.862   6.853   2.364 -1.0563 -0.7003 -0.5889
32080SOL     OW 2202  10.467  12.277   5.601 -0.0000 -0.8688 -0.0427
32080SOL    HW1 2203  10.400  12.344   5.607 -1.2724 -1.9022 -1.9156
32080SOL    HW2 2204  10.435  12.206   5.656 -0.3893 -1.2963 -0.8063
32081SOL     OW 2205   4.119   1.611   2.754 -0.2029 -0.2819  0.5747
32081SOL    HW1 2206   4.174   1.687   2.772  1.4465 -1.1193 -0.6652
32081SOL    HW2 2207   4.156   1.541   2.808  0.1638 -0.9167 -0.4637
32082SOL     OW 2208   1.897  10.649   2.358  0.0492  0.3931 -0.5485
32082SOL    HW1 2209   1.849  10.730   2.374 -1.4693 -0.2383 -1.6462
32082SOL    HW2 2210   1.987  10.676   2.343 -0.3442  1.8204 -0.4289
32083SOL     OW 2211   8.520   7.771   6.779  0.6376 -0.3979 -0.1146
32083SOL    HW1 2212   8.493   7.756   6.869 -1.8273  0.7818 -0.5636
32083SOL    HW2 2213   8.543   7.864   6.776  0.1459 -0.2890 -0.8083
32084SOL     OW 2214   3.035  10.372   2.556  0.3841 -0.0542 -0.9236
32084SOL    HW1 2215   2.976  10.442   2.529 -0.6361 -0.6316 -0.2715
32084SOL    HW2 2216   2.977  10.304   2.591  1.1477 -2.0507 -3.2262
32085SOL     OW 2217   6.258  10.543   6.963 -0.7522  0.0531 -0.3065
32085SOL    HW1 2218   6.269  10.613   7.026  1.6768  0.4692 -1.1145
32085SOL    HW2 2219   6.183  10.570   6.910 -1.8025  0.4693  1.3208
32086SOL     OW 2220  10.599   8.572   9.363 -0.4729  0.7430  0.5759
32086SOL    HW1 2221  10.606   8.606   9.452  1.5282 -2.0247  1.6173
32086SOL    HW2 2222  10.583   8.478   9.374 -0.1518  0.3190 -1.9563
32087SOL     OW 2223   9.816   8.889   8.524  0.5623 -0.3574  0.0244
32087SOL    HW1 2224   9.821   8.793   8.523 -0.8108 -0.4439 -1.1648
32087SOL    HW2 2225   9.821   8.914   8.432  1.6842  0.7876  0.3743
32088SOL     OW 2226   7.220   0.988   8.743  0.0039 -0.1022 -0.5660
32088SOL    HW1 2227   7.241   0.950   8.828  0.4571  2.1466  0.4193
32088SOL    HW2 2228   7.302   0.986   8.695 -0.1392 -0.9539 -0.7850
32089SOL     OW 2229  11.907   1.249  10.171 -0.0089 -0.1373 -0.3221
32089SOL    HW1 2230  11.889   1.330  10.219 -1.3462  0.0737 -1.1440
32089SOL    HW2 2231  11.838   1.188  10.200  1.1081 -1.0876  0.4610
32090SOL     OW 2232   6.060   1.052   9.123 -0.0634  0.1924 -0.0372
32090SOL    HW1 2233   5.976   1.033   9.082 -0.0884 -1.1280  0.5847
32090SOL    HW2 2234   6.097   0.966   9.145  1.5827  0.7269 -0.5490
32091SOL     OW 2235   5.552   6.239   1.920  0.4301  0.3309 -0.0400
32091SOL    HW1 2236   5.463   6.206   1.914  0.8373 -0.6491 -0.9252
32091SOL    HW2 2237   5.584   6.208   2.005  0.6036 -1.0830 -0.6011
32092SOL     OW 2238   2.660  11.237   8.640  0.6987 -0.5849 -0.1594
32092SOL    HW1 2239   2.637  11.311   8.584  0.6481  0.2043  0.8721
32092SOL    HW2 2240   2.653  11.160   8.583 -2.9443 -0.2830 -0.3397
32093SOL     OW 2241   9.731   6.636   5.528 -0.2641  0.0721  0.0693
32093SOL    HW1 2242   9.679   6.716   5.525 -0.6783 -0.2043 -0.6978
32093SOL    HW2 2243   9.807   6.657   5.582 -0.3738  0.9778 -0.1181
32094SOL     OW 2244   8.591   3.836   2.638 -0.3467  0.1394 -0.2166
32094SOL    HW1 2245   8.505   3.823   2.677  0.5616  0.2765  1.9892
32094SOL    HW2 2246   8.589   3.924   2.602 -0.4628  1.0579  1.8684
32095SOL     OW 2247  10.269  12.053  11.882 -0.7534  0.1529 -0.7401
32095SOL    HW1 2248  10.295  12.144  11.872  0.2618 -0.1708 -1.1865
32095SOL    HW2 2249  10.344  12.003  11.850 -0.7566 -0.8535  0.7114
32096SOL     OW 2250   6.084   0.731   9.162 -0.0117 -0.5018 -0.2836
32096SOL    HW1 2251   6.030   0.669   9.211 -0.4040 -3.3765 -3.9504
32096SOL    HW2 2252   6.023   0.774   9.102  0.5917  2.2592  0.9018
32097SOL     OW 2253  11.473   1.153   1.906 -0.0588 -0.2318  0.3475
32097SOL    HW1 2254  11.436   1.157   1.994 -2.4174 -0.3204 -0.5545
32097SOL    HW2 2255  11.460   1.241   1.871 -1.6059 -0.8327 -0.7522
32098SOL     OW 2256   1.834   0.665   9.567  0.0636 -0.4044 -0.1733
32098SOL    HW1 2257   1.893   0.721   9.618  1.5107 -1.3201 -0.7796
32098SOL    HW2 2258   1.747   0.690   9.596  0.7760  0.2539  1.5427
32099SOL     OW 2259   6.058   2.001   8.007 -0.3981 -0.3211  0.2104
32099SOL    HW1 2260   6.061   1.929   7.944 -0.4422 -1.0378  1.0011
32099SOL    HW2 2261   6.117   1.973   8.078 -0.1767  0.5602  0.3874
32100SOL     OW 2262   4.996   6.783   3.648 -0.1680  0.5852 -0.1436
32100SOL    HW1 2263   4.979   6.710   3.707  1.8570 -0.9125 -1.2713
32100SOL    HW2 2264   5.090   6.776   3.628 -0.1183  2.9378 -1.0410
32101SOL     OW 2265  11.821   2.319   1.403 -0.2858 -0.5414 -0.5054
32101SOL    HW1 2266  11.895   2.324   1.342  0.2912 -1.2867  0.1207
32101SOL    HW2 2267  11.797   2.411   1.418 -2.6500 -0.3395 -4.4292
32102SOL     OW 2268   7.960   7.849   7.558 -0.8393  0.0591  0.2521
32102SOL    HW1 2269   8.014   7.891   7.624 -1.4723  1.3963 -0.0511
32102SOL    HW2 2270   7.881   7.902   7.553 -1.3531 -0.7435 -0.6804
32103SOL     OW 2271   0.995   9.676   3.789  0.0047  0.0154  0.1369
32103SOL    HW1 2272   0.900   9.672   3.785 -0.2355  0.7261  2.9493
32103SOL    HW2 2273   1.024   9.586   3.771 -1.0777  0.0114 -1.7865
32104SOL     OW 2274  11.956   0.941  10.314  0.2934  0.1532  0.4889
32104SOL    HW1 2275  11.965   0.975  10.402 -1.8501  1.5003  0.2584
32104SOL    HW2 2276  12.023   0.987  10.263 -0.7622  2.0758  0.7489
32105SOL     OW 2277   0.132   3.461   4.636 -0.0925 -0.2172 -0.0619
32105SOL    HW1 2278   0.193   3.396   4.672  0.0916 -0.1562 -0.2619
32105SOL    HW2 2279   0.110   3.428   4.549  0.4253  0.2632 -0.3813
32106SOL     OW 2280  11.979   3.929   6.350  0.1277 -0.1690  0.5245
32106SOL    HW1 2281  11.911   3.907   6.413  0.4208 -0.1210  0.8589
32106SOL    HW2 2282  12.011   4.015   6.378  0.2798 -0.1612  0.3277
32107SOL     OW 2283   7.744   5.015   2.082  0.2343  0.0488  0.0201
32107SOL    HW1 2284   7.739   5.070   2.004 -2.7525 -0.7590 -0.4694
32107SOL    HW2 2285   7.830   5.034   2.119  0.3449  3.1062 -1.5081
32108SOL     OW 2286   5.452   0.051   6.472 -0.2146  0.3955 -0.1194
32108SOL    HW1 2287   5.471   0.094   6.555 -1.8491  1.3090 -0.1848
32108SOL    HW2 2288   5.392  -0.019   6.496  1.2656 -0.9844 -0.2284
32109SOL     OW 2289   5.834   8.096  10.520  0.6851 -0.4140  0.8227
32109SOL    HW1 2290   5.802   8.149  10.447  2.1481 -1.0789 -0.3619
32109SOL    HW2 2291   5.763   8.037  10.541  0.8309 -1.3959 -1.2579
32110SOL     OW 2292   4.568   1.064  10.327 -1.1248 -0.0164 -0.0823
32110SOL    HW1 2293   4.527   1.085  10.243 -0.7877 -1.7974 -0.7404
32110SOL    HW2 2294   4.560   1.144  10.378 -1.4213  1.0940 -1.7789
32111SOL     OW 2295   4.449   1.178  10.086 -0.0093 -0.0420  0.7098
32111SOL    HW1 2296   4.433   1.133  10.003 -1.6203 -1.0524  1.5199
32111SOL    HW2 2297   4.544   1.193  10.087  0.1210 -0.4710 -1.0535
32112SOL     OW 2298   3.182   9.484   2.222  0.0759 -0.3925  0.1854
32112SOL    HW1 2299   3.171   9.578   2.204 -0.0140 -0.1457  1.4742
32112SOL    HW2 2300   3.110   9.462   2.281  0.6269 -1.0757  0.6150
32113SOL     OW 2301   4.247   3.200   6.798  0.8791  0.4279 -0.0866
32113SOL    HW1 2302   4.337   3.173   6.816  1.3999  1.7154 -0.6507
32113SOL    HW2 2303   4.244   3.293   6.821 -0.2995  0.4098 -0.0929
32114SOL     OW 2304   3.436   7.808  12.491 -0.2267 -0.0528  0.2063
32114SOL    HW1 2305   3.425   7.830  12.399  1.1149 -0.5180 -0.0982
32114SOL    HW2 2306   3.516   7.854  12.517 -0.9214  0.5771  1.3266
32115SOL     OW 2307  12.091   5.482   2.123 -0.5852  0.4277 -0.1904
32115SOL    HW1 2308  12.091   5.388   2.142 -1.0449  0.7943  1.9122
32115SOL    HW2 2309  12.168   5.516   2.168 -1.1585  1.2462  0.1950
32116SOL     OW 2310   5.773  12.412   8.052 -0.1961  0.3015  0.3729
32116SOL    HW1 2311   5.691  12.395   8.005 -1.6281  1.7372  2.1605
32116SOL    HW2 2312   5.835  12.349   8.016 -1.9854 -0.6257 -1.3029
32117SOL     OW 2313   8.817   6.854   1.247  0.3194  0.4744  0.0933
32117SOL    HW1 2314   8.766   6.782   1.282  0.0501  0.3925 -0.4440
32117SOL    HW2 2315   8.847   6.904   1.323  1.2241 -0.6758  0.5169
32118SOL     OW 2316   1.424  11.520   4.321  0.4640  0.2751  0.0027
32118SOL    HW1 2317   1.396  11.431   4.298  2.8100 -0.7511  0.8552
32118SOL    HW2 2318   1.382  11.576   4.255 -1.6809 -1.3381 -0.0963
32119SOL     OW 2319   7.292   9.633   5.540 -0.0785  0.1244 -0.2243
32119SOL    HW1 2320   7.199   9.645   5.558 -0.0315  0.3539 -0.1206
32119SOL    HW2 2321   7.324   9.722   5.522  0.1739  0.0828  0.0185
32120SOL     OW 2322  11.214  12.391   3.132 -0.2969  0.0509 -0.0996
32120SOL    HW1 2323  11.235  12.297   3.135 -1.4502 -0.2081  1.8006
32120SOL    HW2 2324  11.294  12.434   3.162  0.3049 -0.2757 -1.1633
32121SOL     OW 2325   8.646   1.984   7.092 -0.2233 -0.5430 -0.0925
32121SOL    HW1 2326   8.591   2.062   7.088  0.0014 -0.4163 -1.2935
32121SOL    HW2 2327   8.672   1.969   7.001  1.4771 -0.7791  0.3998
32122SOL     OW 2328   4.570   6.462   1.199 -0.2495 -0.4906 -0.0341
32122SOL    HW1 2329   4.563   6.424   1.287 -0.1091  0.6241  0.4659
32122SOL    HW2 2330   4.541   6.552   1.209  0.7253 -0.0583 -0.9297
32123SOL     OW 2331  11.497   3.495   0.835 -0.3098 -0.1560 -0.7185
32123SOL    HW1 2332  11.478   3.584   0.807 -0.3681  0.1626  0.3068
32123SOL    HW2 2333  11.592   3.489   0.836 -0.3023 -0.0198 -0.5466
32124SOL     OW 2334   7.905   5.362   5.837 -0.3943 -0.2587 -1.1677
32124SOL    HW1 2335   7.901   5.419   5.914  2.4198 -1.9401  0.4160
32124SOL    HW2 2336   7.842   5.293   5.855 -0.5643 -0.0453 -0.9186
32125SOL     OW 2337   8.430   7.571   2.537  0.1647 -0.2480  0.2048
32125SOL    HW1 2338   8.396   7.589   2.449 -1.2591  1.1786  0.9852
32125SOL    HW2 2339   8.517   7.610   2.538 -0.6191  1.6172  0.0287
32126SOL     OW 2340   4.028   6.631   9.754 -0.4929  0.1767  0.0984
32126SOL    HW1 2341   4.021   6.536   9.759  0.4701  0.1627  2.0673
32126SOL    HW2 2342   4.110   6.647   9.707 -0.8570  0.0692 -0.5949
32127SOL     OW 2343   3.608   7.943   3.422  0.4645  0.3557 -0.5365
32127SOL    HW1 2344   3.533   8.003   3.433 -1.0525 -0.9284 -3.0421
32127SOL    HW2 2345   3.641   7.962   3.335  0.1652 -2.1345 -1.2711
32128SOL     OW 2346   1.475   6.464   8.365  0.0062  0.3002  0.2842
32128SOL    HW1 2347   1.398   6.412   8.338 -1.4458  3.2809 -1.8706
32128SOL    HW2 2348   1.546   6.400   8.369 -1.5713 -1.8738 -2.3953
32129SOL     OW 2349   1.199  10.804   5.787 -0.2454  0.7792  0.3732
32129SOL    HW1 2350   1.164  10.891   5.771 -0.3634  0.5780 -0.5000
32129SOL    HW2 2351   1.262  10.816   5.858  0.4562  1.7366 -0.3967
32130SOL     OW 2352  12.420   4.461   4.072 -0.0861 -0.1974  0.0466
32130SOL    HW1 2353  12.468   4.509   4.004  1.1090 -1.2491  0.1122
32130SOL    HW2 2354  12.439   4.369   4.055 -2.1291 -0.6776  0.0750
32131SOL     OW 2355   6.260   0.048   3.672  0.6811 -0.1292  0.4281
32131SOL    HW1 2356   6.265  -0.027   3.614  1.0923  0.9083 -0.9365
32131SOL    HW2 2357   6.231   0.120   3.616 -0.8624  0.5006  1.9414
32132SOL     OW 2358  12.010   9.698   4.342  0.1988  0.4193  0.2941
32132SOL    HW1 2359  11.924   9.666   4.314 -0.1291  2.2591 -0.9828
32132SOL    HW2 2360  12.071   9.630   4.313 -0.8805 -1.8331  2.8450
32133SOL     OW 2361   1.957   7.930   3.848 -0.0165  0.1919  0.0081
32133SOL    HW1 2362   1.969   7.836   3.840 -1.5241  0.0643 -1.4117
32133SOL    HW2 2363   1.864   7.944   3.827  0.3454  2.0414 -0.5628
32134SOL     OW 2364   5.222   1.717   2.817 -0.0548 -0.0476  0.7644
32134SOL    HW1 2365   5.290   1.780   2.792 -1.2228  0.8699 -0.2050
32134SOL    HW2 2366   5.149   1.736   2.758 -0.5646 -2.1050  0.6826
32135SOL     OW 2367  11.572   4.676   1.150  0.0965  0.1611 -0.0002
32135SOL    HW1 2368  11.648   4.619   1.133 -0.5802 -1.0196  0.7883
32135SOL    HW2 2369  11.599   4.732   1.222 -0.0781 -0.9058  0.9222
32136SOL     OW 2370   1.124   6.437   0.560 -0.5371 -0.2278 -1.1143
32136SOL    HW1 2371   1.074   6.426   0.640  0.4214 -0.7765 -0.5693
32136SOL    HW2 2372   1.074   6.500   0.508 -1.4002 -0.2168 -0.2859
32137SOL     OW 2373   9.067   5.449   1.364 -1.0774  0.2560  0.0359
32137SOL    HW1 2374   9.095   5.481   1.278  1.5695  0.7189  0.9816
32137SOL    HW2 2375   9.132   5.382   1.386 -2.2801 -0.5370  1.2780
32138SOL     OW 2376   2.095   6.105   5.360  0.0734  1.3045  0.3666
32138SOL    HW1 2377   2.136   6.184   5.396 -0.5320  1.4744  0.6954
32138SOL    HW2 2378   2.163   6.038   5.366  1.0978  2.1298 -1.2487
32139SOL     OW 2379   8.450   8.361   1.158  0.1271  0.2850 -0.0934
32139SOL    HW1 2380   8.496   8.440   1.184  0.2561  0.3276 -0.4472
32139SOL    HW2 2381   8.384   8.390   1.095 -0.2795  0.2038  0.2959
32140SOL     OW 2382   6.147   1.439  10.239  0.5180 -0.4758 -0.5045
32140SOL    HW1 2383   6.147   1.509  10.174 -0.5424  1.4066  1.4147
32140SOL    HW2 2384   6.238   1.434  10.269  0.7730 -0.5548 -1.2586
32141SOL     OW 2385   2.752   9.042   4.664  0.2927  0.1669 -0.0782
32141SOL    HW1 2386   2.759   8.947   4.664  1.2247  0.1650 -2.8199
32141SOL    HW2 2387   2.742   9.066   4.572  1.3696  2.7947  0.4043
32142SOL     OW 2388   7.774   5.992   5.329  0.4149 -0.0962  0.4014
32142SOL    HW1 2389   7.767   6.026   5.240  2.0247  0.7545  0.5565
32142SOL    HW2 2390   7.738   5.904   5.324 -1.2559  0.6012 -0.6552
32143SOL     OW 2391   8.655   4.241   2.878  0.1094  0.3127 -0.2143
32143SOL    HW1 2392   8.660   4.180   2.951  0.0967  1.5634  0.8715
32143SOL    HW2 2393   8.571   4.222   2.836  0.6973 -1.2992 -0.7518
32144SOL     OW 2394  11.875  10.947   1.351 -0.1747  1.1238  0.4420
32144SOL    HW1 2395  11.949  11.000   1.380  0.9315  0.0904 -0.4141
32144SOL    HW2 2396  11.914  10.872   1.307 -1.7534  1.3558 -1.5080
32145SOL     OW 2397  10.405  10.151   2.038 -0.4663 -0.1076  0.3141
32145SOL    HW1 2398  10.456  10.071   2.024  0.5639  0.2530  1.7874
32145SOL    HW2 2399  10.315  10.121   2.046 -0.3606 -0.8976 -1.0592
32146SOL     OW 2400   1.496   0.956   4.362  0.1411 -0.3297 -0.2137
32146SOL    HW1 2401   1.430   1.001   4.308 -0.2691 -0.6943 -0.0234
32146SOL    HW2 2402   1.579   0.994   4.334 -0.2548  1.0873  0.4845
32147SOL     OW 2403  10.096  10.937  12.116  0.0485 -0.1528 -0.1901
32147SOL    HW1 2404  10.153  11.012  12.100  1.3996 -0.8072  1.3276
32147SOL    HW2 2405  10.009  10.968  12.092  0.4766  2.0632  0.8630
32148SOL     OW 2406   6.084   7.563   8.376  0.3273 -0.0587  0.1598
32148SOL    HW1 2407   6.078   7.650   8.336  0.5906 -0.1553 -0.0882
32148SOL    HW2 2408   6.174   7.558   8.409  0.7344 -0.7425 -0.9924
32149SOL     OW 2409   4.259  11.191   6.933  0.7291 -0.0870  0.5692
32149SOL    HW1 2410   4.279  11.280   6.903 -0.7094 -0.1109 -0.5591
32149SOL    HW2 2411   4.170  11.197   6.967  0.4031 -1.2192 -0.0608
32150SOL     OW 2412   4.322   5.870   9.422 -0.3543 -0.2246  0.2916
32150SOL    HW1 2413   4.344   5.954   9.462  0.2109 -1.2732  2.3696
32150SOL    HW2 2414   4.228   5.859   9.438 -0.7222  0.5785 -1.1898
32151SOL     OW 2415   6.071   5.368   7.964 -0.0004 -0.5520 -0.0711
32151SOL    HW1 2416   6.144   5.306   7.970 -1.3179 -2.0902  0.8949
32151SOL    HW2 2417   6.062   5.385   7.870  0.8784 -1.2239 -0.2896
32152SOL     OW 2418   8.773  12.147   8.919 -0.3225 -0.5269  0.4207
32152SOL    HW1 2419   8.790  12.229   8.965 -1.1157  2.0090 -3.2748
32152SOL    HW2 2420   8.859  12.109   8.904  0.5398  1.7585 -1.0371
32153SOL     OW 2421  10.545   2.578  12.242  0.0308 -0.7476  0.2395
32153SOL    HW1 2422  10.473   2.616  12.292 -1.1888 -1.2130 -1.0595
32153SOL    HW2 2423  10.616   2.568  12.305 -0.3987  1.4148  1.1627
32154SOL     OW 2424   0.584   0.542  12.126 -0.1929  0.0453  0.3525
32154SOL    HW1 2425   0.556   0.485  12.054 -1.6876  0.0977  0.8493
32154SOL    HW2 2426   0.586   0.630  12.089 -0.3224 -0.0136  0.2062
32155SOL     OW 2427   5.750   0.728   4.079  0.4612  0.1421  0.3372
32155SOL    HW1 2428   5.726   0.685   3.997 -1.1129 -1.4877  1.5805
32155SOL    HW2 2429   5.733   0.663   4.147 -0.5255  2.1915  2.1980
32156SOL     OW 2430  11.466   8.350   4.863 -0.1498  0.0339  0.3555
32156SOL    HW1 2431  11.437   8.268   4.824  2.3050 -2.0730  2.5908
32156SOL    HW2 2432  11.414   8.359   4.942 -0.6213  0.8592 -0.0283
32157SOL     OW 2433   8.436   7.706   0.924  0.0162  0.3184 -0.1099
32157SOL    HW1 2434   8.494   7.770   0.883  0.3151 -1.4589 -2.7288
32157SOL    HW2 2435   8.494   7.638   0.957 -0.2726  1.3897  2.9050
32158SOL     OW 2436   2.388   3.228   5.779  0.0334 -0.3918  0.4223
32158SOL    HW1 2437   2.386   3.228   5.683  0.1325  1.2419  0.3870
32158SOL    HW2 2438   2.307   3.184   5.805 -1.4581  1.6727 -0.4580
32159SOL     OW 2439   5.086   4.620   2.320  0.3468  0.1494  0.0827
32159SOL    HW1 2440   5.094   4.525   2.312  0.1623  0.0885  0.5737
32159SOL    HW2 2441   5.159   4.646   2.376  0.3593  0.2931  0.0025
32160SOL     OW 2442   5.476   9.532   0.254 -0.5007 -0.7735 -0.1094
32160SOL    HW1 2443   5.500   9.441   0.270 -0.8807 -0.8502  0.0366
32160SOL    HW2 2444   5.462   9.536   0.159  1.1244 -0.4704 -0.3685
32161SOL     OW 2445   6.790  11.230   9.415  0.0383  0.4053  0.5577
32161SOL    HW1 2446   6.853  11.291   9.378 -1.5958  1.3542 -0.8369
32161SOL    HW2 2447   6.825  11.144   9.395  0.5767  0.9115 -0.8087
32162SOL     OW 2448   6.001   2.199  10.710  0.7075  0.3928  0.3551
32162SOL    HW1 2449   6.013   2.203  10.805  0.0826 -1.8809  0.5693
32162SOL    HW2 2450   6.066   2.135  10.680 -0.5809 -0.6042 -0.4254
32163SOL     OW 2451   1.137   1.455   4.798 -0.4655  0.2293 -0.7119
32163SOL    HW1 2452   1.135   1.374   4.849  2.3075  0.0954 -0.6794
32163SOL    HW2 2453   1.097   1.520   4.856  0.1181 -0.4850  0.5337
32164SOL     OW 2454  12.318   3.681  12.283 -0.2665  0.6325  0.5272
32164SOL    HW1 2455  12.263   3.627  12.340 -0.4613 -0.0931 -0.3386
32164SOL    HW2 2456  12.402   3.636  12.281 -0.3262  0.5350  0.0740
32165SOL     OW 2457   9.187  12.047   5.773 -0.7206 -0.6246  0.2116
32165SOL    HW1 2458   9.110  11.991   5.767 -1.9636  0.7358  2.2540
32165SOL    HW2 2459   9.191  12.092   5.688 -0.1680 -3.0860 -1.1543
32166SOL     OW 2460   2.844   4.191   3.949  0.5139  0.2156  0.3013
32166SOL    HW1 2461   2.874   4.104   3.976  0.6884  0.5356  1.1802
32166SOL    HW2 2462   2.764   4.175   3.900  1.8546 -0.6387 -1.7579
32167SOL     OW 2463   3.540   4.862  10.352 -0.3811 -0.4088  0.2010
32167SOL    HW1 2464   3.600   4.824  10.287  0.7698 -0.8872  1.4829
32167SOL    HW2 2465   3.453   4.852  10.313  0.2213 -1.1509 -1.0389
32168SOL     OW 2466   9.559   6.070   8.648 -0.2575 -0.9158 -0.8175
32168SOL    HW1 2467   9.596   6.054   8.735  0.8804  4.3120 -0.0340
32168SOL    HW2 2468   9.470   6.100   8.665  0.1771  0.7353 -1.3174
32169SOL     OW 2469   8.211   1.097   9.175 -0.0513 -0.1293 -0.3664
32169SOL    HW1 2470   8.191   1.014   9.219  0.3320  0.5136  1.0743
32169SOL    HW2 2471   8.293   1.126   9.215  0.1232  0.6685 -1.2693
32170SOL     OW 2472  10.108   1.793   2.232 -0.6183 -0.1847 -0.5560
32170SOL    HW1 2473  10.021   1.823   2.258 -0.2748  0.0773  0.3265
32170SOL    HW2 2474  10.106   1.796   2.136 -1.1278  1.1618 -0.5303
32171SOL     OW 2475   6.539   8.251   9.077  0.3024 -0.3421 -0.4318
32171SOL    HW1 2476   6.558   8.170   9.125 -1.0354 -0.8411 -0.7090
32171SOL    HW2 2477   6.623   8.298   9.076  1.4178 -2.2149 -1.2077
32172SOL     OW 2478   4.224   9.590   4.004 -0.0351  0.3550  0.5503
32172SOL    HW1 2479   4.164   9.647   4.051 -1.2921 -1.4309  1.2152
32172SOL    HW2 2480   4.309   9.604   4.048  0.1238  2.9101 -0.4152
32173SOL     OW 2481   5.075   4.816  11.395 -0.4750  0.7112  0.4492
32173SOL    HW1 2482   5.117   4.756  11.335 -3.2092 -0.6384 -0.2623
32173SOL    HW2 2483   5.134   4.891  11.399  2.0680 -1.1266 -0.1971
32174SOL     OW 2484  12.184   8.649   4.338 -0.0628  0.0309 -0.1177
32174SOL    HW1 2485  12.112   8.610   4.289  0.7880 -1.9965  0.1202
32174SOL    HW2 2486  12.247   8.675   4.270  0.8352 -2.1926 -0.2207
32175SOL     OW 2487   2.933   4.571  10.615 -0.0148 -0.1416 -0.0126
32175SOL    HW1 2488   2.987   4.524  10.552  0.1595 -0.5066  0.4072
32175SOL    HW2 2489   2.990   4.585  10.691 -0.3636 -0.1239  0.2534
32176SOL     OW 2490  12.420   8.768  12.260 -0.6977 -0.0397  0.4446
32176SOL    HW1 2491  12.412   8.848  12.208  0.5887  0.2249  0.5959
32176SOL    HW2 2492  12.424   8.799  12.350 -2.3759 -0.4560  0.6930
32177SOL     OW 2493   5.127   6.884  11.843 -0.1433  0.0063  0.2635
32177SOL    HW1 2494   5.214   6.894  11.882 -0.3820 -0.9756  1.0731
32177SOL    HW2 2495   5.144   6.845  11.757  0.3204  1.3752 -0.2953
32178SOL     OW 2496  10.901   1.694   9.680  0.1568  0.4129  0.8549
32178SOL    HW1 2497  10.981   1.738   9.708 -0.0695  1.2878  0.1372
32178SOL    HW2 2498  10.833   1.730   9.737  0.2203 -0.1533  1.3015
32179SOL     OW 2499   8.968   9.801   7.241  0.2491  0.5545  0.0305
32179SOL    HW1 2500   8.949   9.711   7.267 -1.5387  0.6453 -0.7790
32179SOL    HW2 2501   9.014   9.839   7.315  0.0122 -0.6971  0.8427
32180SOL     OW 2502   9.333  11.882   8.082  0.5696 -0.2094  0.1703
32180SOL    HW1 2503   9.420  11.913   8.058  0.2891  0.7698  0.3844
32180SOL    HW2 2504   9.274  11.952   8.055  0.0292 -0.0719  1.6137
32181SOL     OW 2505  10.306   7.005   6.105 -0.0668 -0.3473  0.3009
32181SOL    HW1 2506  10.343   7.086   6.138 -0.6191 -1.0390  2.8335
32181SOL    HW2 2507  10.376   6.940   6.116 -0.2755 -0.6019  0.1424
32182SOL     OW 2508   8.193   5.814   3.849 -0.0461 -0.2495  0.2079
32182SOL    HW1 2509   8.144   5.734   3.831 -2.8006  1.0146  1.4815
32182SOL    HW2 2510   8.171   5.873   3.778  0.9788 -0.1827 -0.0709
32183SOL     OW 2511   3.918   1.907  11.729  0.3687  0.5081 -0.0073
32183SOL    HW1 2512   3.830   1.881  11.703  0.1164  1.2859  0.0358
32183SOL    HW2 2513   3.905   1.972  11.799  0.9469  1.1030 -0.4299
32184SOL     OW 2514   8.340   2.032   8.489  0.9147 -0.2464 -0.2893
32184SOL    HW1 2515   8.407   2.092   8.521  2.0844 -1.3899 -0.4989
32184SOL    HW2 2516   8.319   2.063   8.401 -1.7786  2.4770  1.1306
32185SOL     OW 2517   7.152   1.526   9.646 -0.0601 -0.0130 -0.3252
32185SOL    HW1 2518   7.176   1.605   9.694 -0.4795  1.2203 -2.0695
32185SOL    HW2 2519   7.235   1.479   9.635  0.3799  0.7122 -0.1919
32186SOL     OW 2520   9.849   8.347   7.218 -0.0841 -0.1305 -0.3439
32186SOL    HW1 2521   9.783   8.279   7.204 -0.3008 -0.1708  0.7518
32186SOL    HW2 2522   9.808   8.407   7.281 -0.1063  1.3302 -1.6921
32187SOL     OW 2523   4.590   3.278   0.299  0.3294 -0.0386  0.3915
32187SOL    HW1 2524   4.645   3.201   0.282  0.5699  0.2911 -0.3739
32187SOL    HW2 2525   4.511   3.262   0.248  0.2212  0.0558  0.5295
32188SOL     OW 2526  11.114   9.774   1.755  0.3641 -0.0637 -0.2043
32188SOL    HW1 2527  11.148   9.771   1.845 -0.1873  0.4720  0.0284
32188SOL    HW2 2528  11.142   9.860   1.722  1.5427 -0.7000 -0.9524
32189SOL     OW 2529   9.828   3.472   1.237  0.4949 -0.2779 -0.3294
32189SOL    HW1 2530   9.827   3.519   1.154 -0.1221  1.8775  0.8216
32189SOL    HW2 2531   9.751   3.415   1.233 -1.7513  2.4713  0.0878
32190SOL     OW 2532   3.204   1.689   4.509 -0.1721  0.3245 -0.1452
32190SOL    HW1 2533   3.125   1.689   4.563 -0.1948 -1.1473 -0.1425
32190SOL    HW2 2534   3.223   1.597   4.494  0.6185  0.6852 -1.5323
32191SOL     OW 2535   7.318   4.882   3.803  0.2771 -0.2092 -0.6288
32191SOL    HW1 2536   7.324   4.815   3.870  0.5904  1.5866  1.2434
32191SOL    HW2 2537   7.319   4.965   3.851  1.2874  1.2022 -2.8892
32192SOL     OW 2538   7.407   1.824   1.456 -0.1165  0.1139  0.6614
32192SOL    HW1 2539   7.408   1.883   1.380 -0.4117 -2.5854 -1.6230
32192SOL    HW2 2540   7.498   1.821   1.485  0.8667 -1.6374 -2.1293
32193SOL     OW 2541   3.438   7.021   4.626 -0.2832  0.0299 -0.4141
32193SOL    HW1 2542   3.425   6.932   4.657 -0.3204  0.5178  1.0405
32193SOL    HW2 2543   3.359   7.068   4.655 -0.3413  0.5075 -1.2992
32194SOL     OW 2544   7.618   0.052   2.145  0.0542 -0.7337  0.4165
32194SOL    HW1 2545   7.712   0.056   2.160 -0.0325 -0.3542  0.9129
32194SOL    HW2 2546   7.594  -0.039   2.166  0.3867 -0.9788 -0.2433
32195SOL     OW 2547   1.112   9.089   2.863  0.1207  0.0076  0.0722
32195SOL    HW1 2548   1.051   9.158   2.836  0.9809  0.1289 -1.6824
32195SOL    HW2 2549   1.103   9.022   2.795  1.2193 -0.4182  0.3319
32196SOL     OW 2550   6.161   3.304   1.209  0.3098 -0.4001  0.1745
32196SOL    HW1 2551   6.220   3.378   1.195  0.0932 -0.4517 -1.2197
32196SOL    HW2 2552   6.195   3.261   1.287  1.2023  0.4402  0.2743
32197SOL     OW 2553  11.004   8.916   2.922 -0.2305  0.6502 -0.1467
32197SOL    HW1 2554  11.007   8.990   2.862  0.2439  0.7315 -0.0301
32197SOL    HW2 2555  11.084   8.866   2.902  1.0915  1.8117  1.8371
32198SOL     OW 2556   4.480   9.133   8.521  0.6474 -0.6389 -0.4131
32198SOL    HW1 2557   4.539   9.092   8.459 -0.1345 -1.1787 -0.8173
32198SOL    HW2 2558   4.496   9.087   8.604 -1.0191 -2.6417 -1.1055
32199SOL     OW 2559   8.471  12.285   1.852 -0.0359 -0.5262  0.1974
32199SOL    HW1 2560   8.418  12.317   1.925  0.3252  0.7253 -0.0684
32199SOL    HW2 2561   8.451  12.192   1.848 -0.7599 -0.4469  1.3105
32200SOL     OW 2562   6.059   6.057   6.635 -0.1774 -0.2744 -0.0850
32200SOL    HW1 2563   5.994   5.992   6.660 -0.5559  0.6039  1.3433
32200SOL    HW2 2564   6.143   6.012   6.643 -0.5392 -1.1353 -1.0107
32201SOL     OW 2565   3.822  10.925   2.874 -0.2607  0.3918 -0.1526
32201SOL    HW1 2566   3.903  10.943   2.922 -0.1846  0.1577 -0.1922
32201SOL    HW2 2567   3.822  10.830   2.862  0.4705  0.5742 -1.9396
32202SOL     OW 2568   1.767  11.975   1.551  0.0300 -0.3345  0.1905
32202SOL    HW1 2569   1.710  12.037   1.505 -0.3247 -0.4110  0.5190
32202SOL    HW2 2570   1.836  11.954   1.488  0.7754  1.2320  0.4510
32203SOL     OW 2571   3.941   7.955   3.241  0.7478  0.6377  0.0997
32203SOL    HW1 2572   3.895   7.872   3.231  0.7715  0.6366 -0.0011
32203SOL    HW2 2573   3.962   7.983   3.151  2.2667 -0.0999  0.1892
32204SOL     OW 2574   4.389  11.538   7.797 -0.5795 -0.1018  0.2147
32204SOL    HW1 2575   4.364  11.592   7.722 -2.0475 -0.7187  0.2280
32204SOL    HW2 2576   4.426  11.458   7.758 -2.0255 -0.7481  0.0787
32205SOL     OW 2577   3.816   9.224   7.899  0.0802  0.6294  0.5359
32205SOL    HW1 2578   3.850   9.212   7.811 -2.0905  2.7415 -0.7117
32205SOL    HW2 2579   3.876   9.286   7.941  0.3770  0.6545  0.0723
32206SOL     OW 2580   6.541  11.182   1.924  0.5747  0.0472  0.5595
32206SOL    HW1 2581   6.596  11.185   1.845 -1.0927 -0.0153 -0.6434
32206SOL    HW2 2582   6.601  11.206   1.995  2.2567 -0.4392 -0.6314
32207SOL     OW 2583   3.414   5.102   4.248 -0.2758  0.7595  0.3827
32207SOL    HW1 2584   3.494   5.113   4.299  0.2679 -1.1318  0.0402
32207SOL    HW2 2585   3.431   5.148   4.166  0.7636 -0.1619  0.0530
32208SOL     OW 2586   3.863   3.735   7.172  0.3527  0.2138  0.3820
32208SOL    HW1 2587   3.814   3.803   7.218  1.1283 -0.5117  2.3973
32208SOL    HW2 2588   3.810   3.716   7.095  0.1817  3.1496 -0.3388
32209SOL     OW 2589   9.800   5.670   8.748 -0.2659  0.4658  0.3695
32209SOL    HW1 2590   9.744   5.747   8.735  1.3980  1.8281  0.8827
32209SOL    HW2 2591   9.745   5.596   8.724 -1.9954  1.7996  0.0280
32210SOL     OW 2592  10.721   8.771  11.440  0.1108  0.0583  0.3611
32210SOL    HW1 2593  10.785   8.726  11.495 -0.5098  1.8784  2.7108
32210SOL    HW2 2594  10.650   8.707  11.428  1.3291 -1.2031 -0.4391
32211SOL     OW 2595   7.103   9.836   4.272 -0.6585  0.1073 -0.6400
32211SOL    HW1 2596   7.152   9.754   4.281 -0.2611  0.5310  1.6975
32211SOL    HW2 2597   7.163   9.894   4.224 -0.8483 -0.8698 -2.0951
32212SOL     OW 2598   8.152   6.536   0.401 -0.0141  0.1286 -0.2643
32212SOL    HW1 2599   8.065   6.538   0.361 -1.1224 -1.4391  1.8456
32212SOL    HW2 2600   8.143   6.592   0.478  1.0975  0.5560 -0.4312
32213SOL     OW 2601   9.232   7.053  11.806  0.1769  0.1204  0.2122
32213SOL    HW1 2602   9.308   7.108  11.791 -0.2214  0.4558 -0.6457
32213SOL    HW2 2603   9.160   7.099  11.763 -0.2744 -0.7801 -0.0262
32214SOL     OW 2604   4.629   1.344   5.288  0.2566  0.2382  0.2153
32214SOL    HW1 2605   4.553   1.301   5.249  1.6231 -1.7620 -0.4739
32214SOL    HW2 2606   4.653   1.412   5.226  0.0764 -0.3249 -0.4884
32215SOL     OW 2607  10.016  11.285  11.276  0.3959 -0.4806 -0.0175
32215SOL    HW1 2608   9.941  11.307  11.221 -0.7698  0.3214  1.7674
32215SOL    HW2 2609  10.016  11.189  11.280 -2.2579 -0.5103  2.0385
32216SOL     OW 2610   9.523   7.697   1.457  0.3332 -0.0679  0.3357
32216SOL    HW1 2611   9.527   7.792   1.441 -1.5533  0.4679  2.4043
32216SOL    HW2 2612   9.611   7.665   1.437  1.1123  2.1858 -0.1105
32217SOL     OW 2613  11.036   2.498   4.411  0.0706 -0.2241 -0.5535
32217SOL    HW1 2614  11.008   2.440   4.481  0.8026  0.1307  0.0576
32217SOL    HW2 2615  11.120   2.533   4.441 -0.4033  1.2403 -0.8458
32218SOL     OW 2616   2.143  10.511   0.130 -0.0504 -0.4545  0.0918
32218SOL    HW1 2617   2.128  10.522   0.224  0.8312  0.3759  0.1568
32218SOL    HW2 2618   2.235  10.484   0.124 -0.0800 -0.4207 -0.5393
32219SOL     OW 2619   4.746   5.751   9.411  0.4707 -0.2156 -0.1239
32219SOL    HW1 2620   4.793   5.769   9.329  0.5409 -2.5509 -0.6762
32219SOL    HW2 2621   4.814   5.730   9.474  0.3543  0.5371  0.2647
32220SOL     OW 2622   4.251   4.007   2.373  0.3897  0.2703 -0.1538
32220SOL    HW1 2623   4.195   4.064   2.320 -0.9443 -2.8493 -2.4397
32220SOL    HW2 2624   4.199   3.986   2.450 -0.0431  0.3869 -0.4142
32221SOL     OW 2625  12.387   3.324  11.266  0.0019  0.8425 -0.1521
32221SOL    HW1 2626  12.461   3.292  11.213 -1.3957 -0.0436 -1.6718
32221SOL    HW2 2627  12.330   3.368  11.203 -1.9068 -0.5706  0.5103
32222SOL     OW 2628   1.785   9.694   4.364  0.0447 -0.1064  0.9019
32222SOL    HW1 2629   1.876   9.724   4.369  0.1458 -0.3319  0.4941
32222SOL    HW2 2630   1.772   9.672   4.272 -0.5363  0.2579  0.8944
32223SOL     OW 2631   2.241   1.187   4.042  0.4329 -0.0325 -0.3948
32223SOL    HW1 2632   2.303   1.174   4.114 -1.2801 -1.4453  0.9151
32223SOL    HW2 2633   2.260   1.276   4.010  0.9793  0.8316  2.0830
32224SOL     OW 2634   1.155   9.782  10.297  0.0628  0.5481  0.4930
32224SOL    HW1 2635   1.143   9.871  10.262 -0.6709  0.4218  0.4127
32224SOL    HW2 2636   1.182   9.730  10.221 -0.1683  0.5617  0.4013
32225SOL     OW 2637   0.103   6.947  10.151 -0.3041  0.4196  0.0054
32225SOL    HW1 2638   0.135   6.877  10.094 -2.2463 -0.4405 -0.0823
32225SOL    HW2 2639   0.081   7.018  10.091  0.7742  0.7872  0.0145
32226SOL     OW 2640  10.045   5.537   5.313 -0.0261  0.0146 -0.0409
32226SOL    HW1 2641   9.978   5.507   5.252  0.5257 -0.6328 -0.3428
32226SOL    HW2 2642  10.102   5.594   5.261 -0.5556  0.8664  0.3082
32227SOL     OW 2643   9.352   8.996   2.925 -0.0157 -0.0600  0.4130
32227SOL    HW1 2644   9.338   8.942   2.847  1.9947 -0.4549  0.2860
32227SOL    HW2 2645   9.444   9.021   2.921 -0.0205  0.4294  2.3582
32228SOL     OW 2646   4.446   1.340   8.949  0.2621 -0.2283 -1.0364
32228SOL    HW1 2647   4.421   1.391   8.873 -2.3140 -3.8151 -2.9483
32228SOL    HW2 2648   4.522   1.289   8.921  2.1959  1.6418  0.5011
32229SOL     OW 2649   0.820  12.156  10.264 -0.0474 -0.0537 -0.2186
32229SOL    HW1 2650   0.760  12.086  10.237  1.0271 -1.1301  0.1148
32229SOL    HW2 2651   0.763  12.230  10.283 -1.2711 -1.0232  0.0089
32230SOL     OW 2652   5.929   1.352   3.111  0.0826  0.3526 -0.0162
32230SOL    HW1 2653   5.911   1.338   3.204 -0.3566  0.0048 -0.1490
32230SOL    HW2 2654   5.948   1.446   3.105  0.3432  0.3361  0.4572
32231SOL     OW 2655   5.315   5.182   8.142  0.4911  0.3230  0.0186
32231SOL    HW1 2656   5.371   5.247   8.099  1.5677  0.6010  1.7242
32231SOL    HW2 2657   5.238   5.231   8.171  0.1912  0.3205 -0.7488
32232SOL     OW 2658  10.839   9.080   6.067  0.1193  0.0223 -0.6933
32232SOL    HW1 2659  10.837   8.999   6.118 -1.2026  0.6144  0.2426
32232SOL    HW2 2660  10.865   9.147   6.130  1.6467  0.2994 -1.5611
32233SOL     OW 2661   4.199   3.143  10.735 -0.0496 -0.2050  0.1208
32233SOL    HW1 2662   4.146   3.218  10.710 -1.3020 -0.8168  0.8414
32233SOL    HW2 2663   4.160   3.112  10.816  0.0321 -2.0161 -0.4888
32234SOL     OW 2664   1.194   7.238  10.732 -0.7038  0.2129 -0.0116
32234SOL    HW1 2665   1.123   7.275  10.784 -0.3017 -0.1109  0.7820
32234SOL    HW2 2666   1.231   7.169  10.788  0.4903  0.6462 -0.2474
32235SOL     OW 2667   6.375   4.217   6.126  0.2437 -0.0175 -0.3996
32235SOL    HW1 2668   6.329   4.194   6.045 -0.5854 -1.9415  0.5503
32235SOL    HW2 2669   6.309   4.206   6.195  1.3625 -0.0270  0.7082
32236SOL     OW 2670   6.483   1.820  11.834 -0.1778 -0.0737 -0.0186
32236SOL    HW1 2671   6.555   1.765  11.802 -1.2389 -0.0963 -2.6555
32236SOL    HW2 2672   6.512   1.910  11.818 -0.3770 -0.0597 -0.3252
32237SOL     OW 2673   3.493   2.805  11.728  0.1402 -0.5250  0.4078
32237SOL    HW1 2674   3.539   2.843  11.653 -1.8552  2.0175  0.3284
32237SOL    HW2 2675   3.414   2.765  11.690 -0.4032 -0.0636  1.0155
32238SOL     OW 2676   9.544  12.048   7.951  0.1012 -0.1148  0.3602
32238SOL    HW1 2677   9.577  12.135   7.974  0.8335 -0.8751  2.4228
32238SOL    HW2 2678   9.617  11.989   7.970 -0.7058 -1.2809 -0.0928
32239SOL     OW 2679   8.780   7.936  11.297 -0.6528 -0.3184  0.2915
32239SOL    HW1 2680   8.690   7.951  11.267  0.0720 -1.0754 -2.5440
32239SOL    HW2 2681   8.830   7.925  11.217  2.1266  0.6388  1.7755
32240SOL     OW 2682   6.934   5.171  12.227  0.1596 -0.2801  0.3418
32240SOL    HW1 2683   6.934   5.114  12.150  1.1316 -0.2836  0.3332
32240SOL    HW2 2684   6.937   5.110  12.302 -3.1064 -0.3747  0.5156
32241SOL     OW 2685   5.913  12.142   7.538 -0.3581  0.7660 -0.4032
32241SOL    HW1 2686   5.897  12.150   7.444 -0.3120  1.1161 -0.3796
32241SOL    HW2 2687   5.851  12.203   7.578 -0.1877  0.8151 -0.2175
32242SOL     OW 2688   2.918   2.293   5.463  0.0722 -0.0223  0.0871
32242SOL    HW1 2689   2.881   2.380   5.480  0.3436  0.0575  0.2607
32242SOL    HW2 2690   2.843   2.234   5.467  0.0368  0.0756  0.9139
32243SOL     OW 2691   9.346   7.531   2.971  0.1197  0.5666 -0.1560
32243SOL    HW1 2692   9.334   7.488   3.056  0.7436  0.6516 -0.0209
32243SOL    HW2 2693   9.296   7.612   2.979  0.9380  1.0231  0.4777
32244SOL     OW 2694   1.155   3.938   4.877 -0.1341  0.0231 -0.3429
32244SOL    HW1 2695   1.060   3.939   4.886 -0.0027  1.7303  1.4204
32244SOL    HW2 2696   1.185   3.881   4.947  0.2050  1.0037  0.3276
32245SOL     OW 2697   1.092  10.878  10.871 -0.1000  0.2241 -0.0938
32245SOL    HW1 2698   1.137  10.856  10.790  2.6307  2.7246  0.6050
32245SOL    HW2 2699   1.054  10.964  10.855 -0.7860  0.1205  0.8667
32246SOL     OW 2700   8.604   4.395   8.479 -0.1174  0.0917  0.4137
32246SOL    HW1 2701   8.611   4.478   8.527  0.5628  1.3855 -1.7685
32246SOL    HW2 2702   8.525   4.353   8.514 -1.4694  2.4870  0.4585
32247SOL     OW 2703   6.671   9.835   5.080 -0.0103 -0.4027  0.4148
32247SOL    HW1 2704   6.630   9.907   5.033  1.1801  0.0879  0.1140
32247SOL    HW2 2705   6.628   9.836   5.166  0.4374  1.0815  0.6467
32248SOL     OW 2706   8.422  11.137   7.037  0.1981 -0.1303 -0.5884
32248SOL    HW1 2707   8.453  11.125   6.948 -2.2543 -0.0602 -1.5463
32248SOL    HW2 2708   8.425  11.232   7.051  1.2394 -0.1941 -0.3109
32249SOL     OW 2709   9.309   4.897   0.182  0.4660  0.3225 -0.0174
32249SOL    HW1 2710   9.383   4.957   0.191  1.6741 -1.0369 -0.6991
32249SOL    HW2 2711   9.280   4.882   0.272  1.7732 -0.0482  0.3626
32250SOL     OW 2712   9.433  11.372  11.583  0.1286  0.1211 -0.1186
32250SOL    HW1 2713   9.420  11.465  11.567  0.7956  0.1920 -0.3059
32250SOL    HW2 2714   9.415  11.360  11.676 -1.3546  0.1711 -0.3802
32251SOL     OW 2715   7.671   5.911   1.839 -0.1998  0.2237  0.0085
32251SOL    HW1 2716   7.688   5.837   1.781 -1.0684  0.1418 -0.1475
32251SOL    HW2 2717   7.752   5.920   1.890  0.7171  0.5259 -1.4393
32252SOL     OW 2718   3.017   3.771   1.451  0.1076  0.0039 -0.1208
32252SOL    HW1 2719   3.040   3.679   1.464 -0.4554  0.1226  1.9881
32252SOL    HW2 2720   3.084   3.804   1.390  1.4076 -1.3484  0.5164
32253SOL     OW 2721  10.610   0.202   8.680 -0.0319  0.4693  0.0106
32253SOL    HW1 2722  10.673   0.242   8.620 -0.0309  0.9902  0.3560
32253SOL    HW2 2723  10.529   0.250   8.665  0.1131  0.9882  0.8315
32254SOL     OW 2724   4.955   4.603   0.017 -0.6892 -0.1168 -0.4091
32254SOL    HW1 2725   4.875   4.644   0.050  0.2075  0.9158  0.5655
32254SOL    HW2 2726   4.958   4.628  -0.076 -0.3582  1.7760  0.0720
32255SOL     OW 2727   8.758   9.766   7.546 -0.1130  0.0954  0.0825
32255SOL    HW1 2728   8.802   9.847   7.520  1.1663 -0.5743  0.0600
32255SOL    HW2 2729   8.790   9.700   7.484 -1.4889 -0.3504 -0.1916
32256SOL     OW 2730  10.674   5.461   7.944 -0.2408 -0.4036 -0.0271
32256SOL    HW1 2731  10.716   5.375   7.934  2.3844  0.5687  1.4200
32256SOL    HW2 2732  10.604   5.447   8.008  1.1827 -1.2424  1.4345
32257SOL     OW 2733   1.431   1.856   9.525  0.6491 -0.5674  0.2485
32257SOL    HW1 2734   1.451   1.768   9.557 -1.7986 -1.0923  0.5482
32257SOL    HW2 2735   1.361   1.844   9.462 -0.8806  1.2695  1.4786
32258SOL     OW 2736   9.374   1.966  10.013 -0.1474  0.3762  0.1665
32258SOL    HW1 2737   9.418   2.050  10.011  1.5688 -0.4934  0.0651
32258SOL    HW2 2738   9.391   1.931  10.100  0.1644 -0.3744 -0.1838
32259SOL     OW 2739   3.499  10.294   8.128 -0.1956  0.6800  0.5812
32259SOL    HW1 2740   3.538  10.381   8.130  0.9985  0.1980 -0.2826
32259SOL    HW2 2741   3.550  10.247   8.062 -0.7086 -0.7186  1.1455
32260SOL     OW 2742   7.722   0.755   1.324  0.1598  0.6690  0.4026
32260SOL    HW1 2743   7.733   0.691   1.254 -0.3992 -1.7254  2.3847
32260SOL    HW2 2744   7.811   0.775   1.352  0.3435  0.8886 -0.3048
32261SOL     OW 2745   7.958  11.004   6.498  0.1133  0.3152 -0.0673
32261SOL    HW1 2746   7.875  11.038   6.531  0.5843  0.8427  0.6108
32261SOL    HW2 2747   8.001  10.968   6.576 -0.0031 -1.0792 -0.6242
32262SOL     OW 2748   1.659   8.285   5.941 -0.3708  0.3415 -0.1324
32262SOL    HW1 2749   1.712   8.348   5.989 -0.3605 -0.0309  0.3578
32262SOL    HW2 2750   1.722   8.229   5.896 -0.3891  0.9541 -0.9338
32263SOL     OW 2751   9.968   7.623   6.087 -0.1200  0.8805 -0.4490
32263SOL    HW1 2752   9.999   7.618   5.996  1.1618  1.3004 -0.0555
32263SOL    HW2 2753  10.047   7.617   6.140 -0.9623 -0.9965  0.7215
32264SOL     OW 2754  11.554   1.489  10.775 -0.7013  0.3681 -0.3284
32264SOL    HW1 2755  11.557   1.450  10.862 -0.9796 -0.0443 -0.5007
32264SOL    HW2 2756  11.610   1.566  10.781 -0.3534  0.0835  0.0863
32265SOL     OW 2757   9.477   4.104   9.267  0.1197  0.9533 -0.6236
32265SOL    HW1 2758   9.512   4.124   9.354 -1.4514  2.1073 -0.2265
32265SOL    HW2 2759   9.382   4.108   9.278 -0.1882 -1.4955 -1.8073
32266SOL     OW 2760   7.591   6.684  11.480  0.3413 -0.3106 -0.1749
32266SOL    HW1 2761   7.609   6.762  11.428  1.8766 -1.1362 -0.9544
32266SOL    HW2 2762   7.669   6.630  11.471 -1.0969 -2.4695 -0.6042
32267SOL     OW 2763   1.020   8.890   8.665  0.2217  0.0261  0.6737
32267SOL    HW1 2764   0.927   8.907   8.655  0.1686 -0.7349 -0.1969
32267SOL    HW2 2765   1.060   8.923   8.585  0.8306  1.1512  1.4141
32268SOL     OW 2766   3.295   0.242   4.497 -0.3001 -0.0698 -0.2824
32268SOL    HW1 2767   3.370   0.234   4.438 -0.6981 -1.2652 -0.6394
32268SOL    HW2 2768   3.326   0.300   4.567  0.3419  0.9416 -1.3734
32269SOL     OW 2769   1.387   7.216   4.778 -0.3860  0.2276  0.1194
32269SOL    HW1 2770   1.323   7.218   4.706 -0.7494  1.2316  0.4590
32269SOL    HW2 2771   1.362   7.139   4.829 -0.4535 -0.1908 -0.5278
32270SOL     OW 2772   9.287   3.703   2.423  0.4002 -0.2197 -0.5675
32270SOL    HW1 2773   9.311   3.650   2.499  1.5349 -0.7779 -1.2854
32270SOL    HW2 2774   9.203   3.667   2.394  0.7468 -1.0588 -0.5388
32271SOL     OW 2775  10.927   8.263   5.138  0.4922  0.2576  0.4628
32271SOL    HW1 2776  10.993   8.267   5.069  1.6161  2.8639  1.5612
32271SOL    HW2 2777  10.964   8.206   5.204  1.2240  0.8953  0.6150
32272SOL     OW 2778   0.448   0.434   8.288 -0.0041  0.5784  0.2619
32272SOL    HW1 2779   0.449   0.345   8.322  0.7027  0.2444 -0.5992
32272SOL    HW2 2780   0.493   0.486   8.355 -0.9208  0.4027  1.0306
32273SOL     OW 2781   4.568   0.010  10.145  0.3246 -0.3142 -0.4455
32273SOL    HW1 2782   4.517   0.076  10.098 -0.2431 -0.0027  0.5823
32273SOL    HW2 2783   4.639   0.060  10.187 -0.9944 -0.0592  1.6223
32274SOL     OW 2784   6.689   4.252   2.842 -0.1825 -0.1365 -0.6200
32274SOL    HW1 2785   6.597   4.277   2.852 -0.4456 -1.4798  0.5800
32274SOL    HW2 2786   6.735   4.301   2.910 -0.1879 -0.3607 -0.4549
32275SOL     OW 2787  10.932   5.982  12.237  0.0232  0.3069  0.1993
32275SOL    HW1 2788  10.841   5.982  12.205 -0.3838 -1.4351  1.2057
32275SOL    HW2 2789  10.974   5.910  12.190  1.6333  2.5412 -2.0178
32276SOL     OW 2790  10.089   6.029  10.975 -0.2775 -0.3452  0.3247
32276SOL    HW1 2791  10.057   5.942  10.996 -1.8249 -0.3095 -1.6010
32276SOL    HW2 2792  10.011   6.085  10.979 -0.0477  0.2522 -1.8664
32277SOL     OW 2793  10.694   0.398   7.715  0.1674  0.4673  0.5404
32277SOL    HW1 2794  10.674   0.485   7.681  1.4180  1.3148  1.8836
32277SOL    HW2 2795  10.731   0.351   7.640  0.0400  1.2796 -0.0397
32278SOL     OW 2796   7.641   2.044   4.771  0.1530  0.6683 -0.1751
32278SOL    HW1 2797   7.653   1.978   4.839  1.3389  2.0610  1.0332
32278SOL    HW2 2798   7.549   2.035   4.745  0.2925 -1.4880 -0.1509
32279SOL     OW 2799  12.296  12.197  12.201  0.1677  0.1243  0.0642
32279SOL    HW1 2800  12.328  12.287  12.213  2.4416 -0.3512 -1.7378
32279SOL    HW2 2801  12.320  12.175  12.111 -1.1856 -1.9969  0.1582
32280SOL     OW 2802  11.831   9.244   1.308  0.1529 -0.0207  0.5595
32280SOL    HW1 2803  11.876   9.323   1.277  0.6929 -0.2936  0.6326
32280SOL    HW2 2804  11.819   9.191   1.230 -1.5455  0.7640  0.2479
32281SOL     OW 2805  10.394   8.463   7.212  0.0001  0.4409 -0.2230
32281SOL    HW1 2806  10.453   8.466   7.137  1.9273  0.0810  1.2043
32281SOL    HW2 2807  10.314   8.505   7.181  1.0960  1.2427 -2.1532
32282SOL     OW 2808  10.696   3.754   3.862  0.3339  0.4582 -0.6672
32282SOL    HW1 2809  10.686   3.785   3.772  0.3700  0.3235 -0.7180
32282SOL    HW2 2810  10.610   3.719   3.885  0.6580 -0.6663 -1.0917
32283SOL     OW 2811   2.328   5.645   8.686  0.0941  0.5776 -0.0408
32283SOL    HW1 2812   2.335   5.725   8.633 -1.4017  0.4107 -0.5249
32283SOL    HW2 2813   2.390   5.659   8.758  0.0708  2.0456 -0.2706
32284SOL     OW 2814  11.031   8.797   9.267  1.0709 -0.0061  0.2622
32284SOL    HW1 2815  11.002   8.720   9.316  2.6123 -0.3227  0.7302
32284SOL    HW2 2816  11.009   8.872   9.323  0.7006 -0.1807  0.3571
32285SOL     OW 2817   4.831   3.593   7.794  0.3417  0.3412  0.5579
32285SOL    HW1 2818   4.737   3.602   7.776  0.2127 -1.0993  0.3623
32285SOL    HW2 2819   4.852   3.504   7.767  1.2825 -0.1709  2.7476
32286SOL     OW 2820  10.190   1.593   7.885  0.2139 -0.0832  0.5228
32286SOL    HW1 2821  10.102   1.585   7.846 -0.2838  0.6733  1.4641
32286SOL    HW2 2822  10.204   1.509   7.928  0.1223 -0.3477  0.0523
32287SOL     OW 2823   3.229   1.627   6.224 -0.8710 -0.0373 -0.2805
32287SOL    HW1 2824   3.255   1.604   6.313 -0.8038  1.1414  0.0265
32287SOL    HW2 2825   3.253   1.551   6.171 -3.2071 -1.8250  1.0622
32288SOL     OW 2826  10.457   2.297   9.015 -0.1725 -0.7389  0.3204
32288SOL    HW1 2827  10.409   2.372   9.048  0.2165 -1.1323  1.8320
32288SOL    HW2 2828  10.443   2.300   8.920  0.8857  1.9457  0.1863
32289SOL     OW 2829   7.797   7.734   0.365 -0.1307 -0.0833 -0.3794
32289SOL    HW1 2830   7.839   7.663   0.316  0.3383 -0.2815  0.2987
32289SOL    HW2 2831   7.842   7.813   0.336  0.4583 -0.2520  0.0661
32290SOL     OW 2832   3.212   6.252  11.679 -0.6497  0.0651 -0.0475
32290SOL    HW1 2833   3.280   6.264  11.745 -0.3026 -0.0030 -0.3857
32290SOL    HW2 2834   3.170   6.337  11.672  0.1203  0.4085 -0.6137
32291SOL     OW 2835  12.097   7.762   1.729  0.1083  0.0098  0.2332
32291SOL    HW1 2836  12.059   7.780   1.643  0.8066 -1.6052 -0.4675
32291SOL    HW2 2837  12.022   7.755   1.788 -0.2880  3.7509  0.4083
32292SOL     OW 2838  11.946   6.845   7.899  0.3005 -0.1187  0.1047
32292SOL    HW1 2839  11.930   6.754   7.876  0.7507 -0.5079  1.2381
32292SOL    HW2 2840  12.000   6.880   7.828 -0.2350 -0.6067 -0.5464
32293SOL     OW 2841   3.973   2.554  10.640  0.0423 -0.1808  0.0674
32293SOL    HW1 2842   3.882   2.583  10.629  0.7710  2.2544 -0.0893
32293SOL    HW2 2843   3.974   2.465  10.603 -1.7800  0.5702 -2.0460
32294SOL     OW 2844   1.292   2.765   9.761 -0.0368  0.0993  0.1322
32294SOL    HW1 2845   1.264   2.674   9.772 -0.3076 -0.0573 -1.6003
32294SOL    HW2 2846   1.384   2.765   9.789 -0.3985 -0.4041  1.3819
32295SOL     OW 2847   8.267   1.225  10.476  0.4633  0.3838 -0.1981
32295SOL    HW1 2848   8.347   1.173  10.467  0.1363 -0.2210  0.3416
32295SOL    HW2 2849   8.214   1.201  10.400  0.3646  0.0157 -0.0133
32296SOL     OW 2850   8.889   3.208   7.985  0.6442 -0.5334 -0.4341
32296SOL    HW1 2851   8.924   3.280   7.934 -0.7082  1.7196  1.6093
32296SOL    HW2 2852   8.802   3.237   8.012  1.4003 -1.2985  3.4532
32297SOL     OW 2853   0.678   9.085  10.137  0.1353 -0.1578 -0.2945
32297SOL    HW1 2854   0.598   9.131  10.161  0.4712  0.5230 -0.4578
32297SOL    HW2 2855   0.699   9.032  10.214 -1.1813 -1.3696 -0.7318
32298SOL     OW 2856   3.134   5.853   6.542  0.0944 -0.1519 -0.3148
32298SOL    HW1 2857   3.058   5.799   6.564 -0.0081  0.6437  1.4801
32298SOL    HW2 2858   3.110   5.941   6.571  1.4442  0.2437 -0.3268
32299SOL     OW 2859   8.413   0.474   2.428  0.0047  0.8037 -0.1095
32299SOL    HW1 2860   8.351   0.415   2.470  1.2353  0.1752  0.8796
32299SOL    HW2 2861   8.417   0.550   2.485  0.1337  0.8399 -0.1656
32300SOL     OW 2862   3.694   2.727   0.451 -0.1745 -0.0089 -0.0627
32300SOL    HW1 2863   3.693   2.662   0.521  3.4966 -0.0470  0.1561
32300SOL    HW2 2864   3.710   2.811   0.495 -0.8497  0.4483 -0.6568
32301SOL     OW 2865   8.135   4.058   0.299 -0.3044  0.3015 -0.4280
32301SOL    HW1 2866   8.184   3.977   0.307 -0.1670  0.3675 -0.5981
32301SOL    HW2 2867   8.044   4.031   0.286  0.0200  0.1236 -2.7515
32302SOL     OW 2868   2.924   2.150  11.923 -1.0129 -0.3591 -0.1801
32302SOL    HW1 2869   2.896   2.143  11.832 -0.0992  0.1859 -0.5235
32302SOL    HW2 2870   3.020   2.150  11.919 -0.8819 -2.8220  0.9951
32303SOL     OW 2871   0.591   7.240  11.131  0.1329  0.1139 -0.0568
32303SOL    HW1 2872   0.624   7.311  11.185 -0.2580  0.3258 -0.0923
32303SOL    HW2 2873   0.608   7.161  11.181  0.5670  0.2325 -0.0146
32304SOL     OW 2874   6.788   5.630   3.386 -0.6909 -0.2186  0.4355
32304SOL    HW1 2875   6.869   5.594   3.422 -0.2855 -0.2012 -0.4211
32304SOL    HW2 2876   6.796   5.725   3.399  0.8882  0.1538 -2.3430
32305SOL     OW 2877   4.460   2.472  11.028  1.0498  0.4717  0.4417
32305SOL    HW1 2878   4.370   2.456  11.000  1.6106 -1.7697 -0.3353
32305SOL    HW2 2879   4.461   2.450  11.121  0.6776  1.1254  0.6060
32306SOL     OW 2880   5.503   0.047  11.298  0.0056 -0.6191 -0.2709
32306SOL    HW1 2881   5.486   0.137  11.270 -0.4422 -0.9309 -0.9962
32306SOL    HW2 2882   5.499   0.051  11.394  2.7844  0.7089 -0.0954
32307SOL     OW 2883   9.425  10.480   5.257 -0.5932  0.1251  0.2779
32307SOL    HW1 2884   9.483  10.484   5.334 -0.7331  1.6041  0.3426
32307SOL    HW2 2885   9.433  10.391   5.225 -0.7041 -0.6026  2.1549
32308SOL     OW 2886   1.931   6.896   7.888  0.4739  0.3363  0.3707
32308SOL    HW1 2887   1.900   6.847   7.965 -0.6879 -0.0347 -0.3119
32308SOL    HW2 2888   1.878   6.976   7.888 -0.1512 -0.0610 -0.5090
32309SOL     OW 2889   3.650   9.577   2.278 -0.0718 -0.1794 -0.4119
32309SOL    HW1 2890   3.628   9.667   2.253  0.1218 -0.0732 -0.2015
32309SOL    HW2 2891   3.745   9.578   2.291 -0.3663  0.2352  2.1890
32310SOL     OW 2892   0.827   6.620   6.442  0.9417  0.3579 -0.3031
32310SOL    HW1 2893   0.750   6.664   6.477  1.6839  0.9961  0.5847
32310SOL    HW2 2894   0.875   6.589   6.519  1.6916  0.2000 -0.8173
32311SOL     OW 2895   8.665   7.670  10.995  0.2049  0.3579 -0.2895
32311SOL    HW1 2896   8.709   7.744  11.037 -1.6037 -0.6495  3.8525
32311SOL    HW2 2897   8.599   7.710  10.938 -0.2407  1.9845  1.2824
32312SOL     OW 2898   5.674  12.301   2.999 -0.5298 -0.0946  0.1712
32312SOL    HW1 2899   5.657  12.263   3.086  2.2257 -1.1300  0.3548
32312SOL    HW2 2900   5.617  12.252   2.940 -2.3693  0.5494  1.3336
32313SOL     OW 2901   1.176   8.141   1.462 -0.0279 -0.2638  0.1571
32313SOL    HW1 2902   1.129   8.064   1.428 -0.3871 -0.1493  0.3843
32313SOL    HW2 2903   1.259   8.141   1.415 -0.5124 -0.1085 -0.7221
32314SOL     OW 2904   7.520  10.456  12.337  0.6318 -0.2064  0.1333
32314SOL    HW1 2905   7.484  10.469  12.249  2.1412  0.0723 -0.4729
32314SOL    HW2 2906   7.614  10.446  12.323  0.8461 -0.5853  1.6891
32315SOL     OW 2907   5.398  11.197   6.515  0.0739  0.0543 -0.3174
32315SOL    HW1 2908   5.474  11.144   6.491  0.2467 -0.3075  0.9666
32315SOL    HW2 2909   5.394  11.265   6.447  2.0986  0.6538  0.0975
32316SOL     OW 2910   7.654  11.462   5.953 -0.6124 -0.0077 -0.1701
32316SOL    HW1 2911   7.707  11.456   6.033 -1.6043  0.1826  0.5144
32316SOL    HW2 2912   7.649  11.556   5.934 -0.3557 -0.0541 -0.4783
32317SOL     OW 2913   8.292   7.028   8.310 -0.2656  0.3458  0.3646
32317SOL    HW1 2914   8.220   7.052   8.369 -0.0920  1.2664  0.2177
32317SOL    HW2 2915   8.371   7.047   8.360 -0.1108  1.5536 -0.2928
32318SOL     OW 2916   2.100  11.793   1.563 -0.0776 -0.0020 -0.0984
32318SOL    HW1 2917   2.024  11.742   1.537 -0.0344 -0.0025 -0.2242
32318SOL    HW2 2918   2.095  11.797   1.659  0.2112 -0.6997 -0.0517
32319SOL     OW 2919  11.486   8.744  10.706 -0.3322 -0.1544  0.5419
32319SOL    HW1 2920  11.436   8.825  10.701  0.4453  0.2673 -1.0778
32319SOL    HW2 2921  11.515   8.739  10.798 -1.5045  0.6816  0.9808
32320SOL     OW 2922   0.112  11.878  10.800  0.2228  0.1020  0.3554
32320SOL    HW1 2923   0.098  11.966  10.764  0.6974 -0.1649 -0.5150
32320SOL    HW2 2924   0.207  11.865  10.797  0.0454 -1.4023 -1.9950
32321SOL     OW 2925   7.841  10.090   0.185 -0.3496  0.0909  0.7248
32321SOL    HW1 2926   7.875  10.034   0.254  0.9139  1.2312  1.0616
32321SOL    HW2 2927   7.870  10.048   0.104  0.1416 -0.0182  0.9548
32322SOL     OW 2928  11.725   3.333  11.088  0.1458 -0.1641 -0.0329
32322SOL    HW1 2929  11.805   3.385  11.084 -0.9764  1.7015  0.4374
32322SOL    HW2 2930  11.671   3.367  11.016 -0.6505 -0.6084  0.3402
32323SOL     OW 2931   2.366   5.746   9.781  0.0862 -0.4305 -0.7411
32323SOL    HW1 2932   2.410   5.787   9.706  1.7172 -1.1526 -0.2199
32323SOL    HW2 2933   2.436   5.698   9.826 -0.6126  0.8956  1.8978
32324SOL     OW 2934   2.159   0.177  12.353  0.3350  0.1499 -0.0564
32324SOL    HW1 2935   2.122   0.107  12.300 -0.5524 -0.2201  1.0205
32324SOL    HW2 2936   2.117   0.168  12.439 -1.6612  3.4723 -0.5023
32325SOL     OW 2937   3.487  11.690   2.992 -0.8209  0.5811 -0.2029
32325SOL    HW1 2938   3.553  11.671   3.058  0.2570 -0.3531 -1.4842
32325SOL    HW2 2939   3.538  11.702   2.911 -2.2749 -1.7634 -1.5830
32326SOL     OW 2940   9.604   1.298   6.948  0.7319 -0.6460 -0.2318
32326SOL    HW1 2941   9.560   1.377   6.916  0.7405 -0.6694 -0.3000
32326SOL    HW2 2942   9.591   1.301   7.043 -0.7169 -1.4253 -0.3714
32327SOL     OW 2943   6.440   9.892  11.041 -0.0081 -0.2225 -0.3458
32327SOL    HW1 2944   6.391   9.872  10.962  0.5431 -0.6163 -0.5916
32327SOL    HW2 2945   6.465   9.807  11.077  0.4360 -0.0259 -0.1860
32328SOL     OW 2946   7.977  11.151   3.321 -0.1682  0.1270 -0.3923
32328SOL    HW1 2947   8.014  11.123   3.238  0.2330  0.0884 -0.2000
32328SOL    HW2 2948   7.899  11.096   3.332  0.0060 -0.1529 -0.5457
32329SOL     OW 2949  11.297   5.604   4.318  0.3233  0.2852  0.1056
32329SOL    HW1 2950  11.241   5.615   4.395  0.9846  1.8378  0.3931
32329SOL    HW2 2951  11.353   5.682   4.317  1.3651 -0.4399 -1.0978
32330SOL     OW 2952   0.155   5.157  12.414  0.1513 -0.0459 -0.3015
32330SOL    HW1 2953   0.160   5.251  12.433  1.2242 -0.1120 -0.2001
32330SOL    HW2 2954   0.106   5.120  12.488 -0.5661  0.4713 -0.5096
32331SOL     OW 2955   8.178   4.707   5.804 -0.3075 -0.7348 -0.0549
32331SOL    HW1 2956   8.189   4.801   5.812  2.6231 -0.8705 -1.3870
32331SOL    HW2 2957   8.133   4.695   5.721  0.0587 -0.5249 -0.2851
32332SOL     OW 2958   8.077   0.547   3.228  0.0636 -0.5564 -0.0980
32332SOL    HW1 2959   8.085   0.545   3.324 -0.6664  1.3325  0.0413
32332SOL    HW2 2960   7.986   0.526   3.211 -0.1901  0.6454 -0.2711
32333SOL     OW 2961   4.626   1.665   1.311 -0.1435 -0.2224 -0.1399
32333SOL    HW1 2962   4.695   1.616   1.357  1.1559  1.2484 -0.4664
32333SOL    HW2 2963   4.597   1.730   1.375  0.1287  0.4115 -0.6589
32334SOL     OW 2964   3.737  11.056   8.007  0.0479  0.4565 -0.0078
32334SOL    HW1 2965   3.813  11.034   7.953  1.3266  0.6179  1.6015
32334SOL    HW2 2966   3.761  11.024   8.094 -1.2620  1.5194  0.7775
32335SOL     OW 2967  10.306  11.934   1.177 -0.0737  0.0874  0.3225
32335SOL    HW1 2968  10.268  11.859   1.130 -0.5066  1.0776 -0.9936
32335SOL    HW2 2969  10.276  11.924   1.267 -0.3262 -1.1904  0.1100
32336SOL     OW 2970   9.893   7.587   4.775 -0.0144 -0.1168  0.7418
32336SOL    HW1 2971   9.968   7.536   4.806 -0.3928 -0.4656  1.0965
32336SOL    HW2 2972   9.840   7.524   4.725 -0.3412 -0.0044  0.9432
32337SOL     OW 2973   2.485   2.943  11.350  0.8881 -0.7930 -0.8226
32337SOL    HW1 2974   2.575   2.910  11.344  0.6703 -2.5358  2.9124
32337SOL    HW2 2975   2.431   2.865  11.359 -0.9677  0.2853 -1.8936
32338SOL     OW 2976   0.146   8.450   8.450  0.5706 -0.5279 -0.5259
32338SOL    HW1 2977   0.052   8.447   8.463  0.7033 -0.8073  0.4150
32338SOL    HW2 2978   0.169   8.543   8.455  0.5219 -0.5626  0.6328
32339SOL     OW 2979   8.596   1.271   8.180  0.6360  0.0340 -0.3810
32339SOL    HW1 2980   8.687   1.293   8.203 -0.1628  0.3984  2.8985
32339SOL    HW2 2981   8.560   1.353   8.146  0.9915  0.4340  0.1937
32340SOL     OW 2982  11.597   9.335  11.388 -0.2119 -0.2253 -0.3111
32340SOL    HW1 2983  11.654   9.309  11.460  0.6828  0.3367 -0.7902
32340SOL    HW2 2984  11.573   9.426  11.410  1.0001  0.3571 -1.2576
32341SOL     OW 2985  10.484   7.963   6.724  0.2089  0.8726  0.3739
32341SOL    HW1 2986  10.515   7.876   6.698 -1.6816  0.1591  0.3447
32341SOL    HW2 2987  10.558   8.002   6.771  1.4397 -0.3471 -0.4826
32342SOL     OW 2988  10.359   7.556   3.346  0.1401 -0.6979 -0.0717
32342SOL    HW1 2989  10.315   7.471   3.341  0.3380 -0.7377 -1.4161
32342SOL    HW2 2990  10.381   7.566   3.438 -0.7553 -1.6610  0.2662
32343SOL     OW 2991   8.957   9.658   6.983  0.1792 -0.2885  0.1368
32343SOL    HW1 2992   9.048   9.687   6.973  0.1460 -0.5312 -1.0207
32343SOL    HW2 2993   8.928   9.697   7.066  0.9574  0.8032 -0.0841
32344SOL     OW 2994   6.627   9.610  10.859  0.3329  0.5142 -0.3544
32344SOL    HW1 2995   6.684   9.672  10.906 -2.1853  0.6841  2.8213
32344SOL    HW2 2996   6.657   9.524  10.888  0.6961  0.4517 -0.8943
32345SOL     OW 2997  10.507   1.177   3.682  0.2263 -0.5424  0.5242
32345SOL    HW1 2998  10.458   1.240   3.629 -0.3470 -0.8215  0.7160
32345SOL    HW2 2999  10.510   1.098   3.629  1.2392 -0.2689  0.1374
32346SOL     OW 3000   1.293   1.901   5.303 -0.3734  0.3421  0.2914
32346SOL    HW1 3001   1.271   1.822   5.351  0.2752 -0.4824 -0.7176
32346SOL    HW2 3002   1.212   1.925   5.258 -0.3301 -0.3201 -0.1600
32347SOL     OW 3003   1.988   8.908   0.120 -0.3006 -0.1072  0.0917
32347SOL    HW1 3004   2.077   8.890   0.150 -0.2917 -0.4281 -0.1222
32347SOL    HW2 3005   1.939   8.829   0.141 -0.5019  0.0122  0.0749
32348SOL     OW 3006   5.833   6.883   7.156 -0.4988 -0.2646 -0.1846
32348SOL    HW1 3007   5.819   6.976   7.139  0.2398 -0.6101 -3.1699
32348SOL    HW2 3008   5.769   6.838   7.101  1.1560 -1.5252 -1.1908
32349SOL     OW 3009  10.066  11.887  11.988 -0.3542  0.8276 -0.5825
32349SOL    HW1 3010  10.087  11.794  11.978  1.3376  1.0522  0.4479
32349SOL    HW2 3011  10.137  11.933  11.942 -0.5254  1.6194 -0.0783
32350SOL     OW 3012   3.028   3.399   1.749 -0.0328 -0.2829 -0.0342
32350SOL    HW1 3013   3.063   3.351   1.824  1.3141 -0.9679 -1.0653
32350SOL    HW2 3014   3.059   3.489   1.761  0.9320 -0.5815 -0.2035
32351SOL     OW 3015   2.167   0.196  10.602 -0.1106  0.1624  0.0616
32351SOL    HW1 3016   2.139   0.207  10.511  2.4721  2.3387 -0.6226
32351SOL    HW2 3017   2.170   0.285  10.637  0.0113 -0.5328  1.9700
32352SOL     OW 3018   2.579   8.319   0.381 -0.0313 -0.3843 -0.0670
32352SOL    HW1 3019   2.518   8.391   0.397  0.5637  0.4297 -1.2558
32352SOL    HW2 3020   2.632   8.314   0.460  0.2294  0.8122 -0.1475
32353SOL     OW 3021  12.001   5.354  10.350  0.1842  0.2995  0.0594
32353SOL    HW1 3022  11.999   5.450  10.349  0.8018  0.3136 -1.2643
32353SOL    HW2 3023  11.953   5.328  10.272  3.1072 -0.3423 -1.6724
32354SOL     OW 3024   0.294   6.991   0.697 -0.3572  0.3934  0.0260
32354SOL    HW1 3025   0.377   7.017   0.736 -0.7976  1.6333  0.1960
32354SOL    HW2 3026   0.307   6.900   0.670  0.9854  0.5127  0.2075
32355SOL     OW 3027  10.761   6.733   0.088  0.1792 -0.5178  0.2358
32355SOL    HW1 3028  10.850   6.762   0.108 -0.1561  0.2325  0.6668
32355SOL    HW2 3029  10.764   6.638   0.098  0.7222 -0.4200  1.1094
32356SOL     OW 3030   5.765   2.117   9.204  0.3230  0.0938  0.5482
32356SOL    HW1 3031   5.723   2.195   9.240 -0.8930 -0.3734  0.2031
32356SOL    HW2 3032   5.715   2.044   9.240  0.9284 -0.4956  0.2202
32357SOL     OW 3033   8.681   8.643  10.450  0.4591 -0.5797  0.2567
32357SOL    HW1 3034   8.610   8.609  10.504  1.0139 -2.1263  0.0656
32357SOL    HW2 3035   8.659   8.615  10.361  0.5665  0.2306 -0.0366
32358SOL     OW 3036   1.398   8.671   6.771  0.7209  0.4077  0.5077
32358SOL    HW1 3037   1.468   8.606   6.762 -1.2166 -1.6202 -0.9962
32358SOL    HW2 3038   1.332   8.628   6.826 -0.4473  1.2373 -0.2140
32359SOL     OW 3039   9.109   4.302   4.525 -0.2993  0.4440  0.3147
32359SOL    HW1 3040   9.124   4.270   4.436 -0.7735  2.2266 -0.4544
32359SOL    HW2 3041   9.093   4.223   4.576 -1.9629 -0.5455 -1.5684
32360SOL     OW 3042   6.223   1.900  11.907 -0.1638 -1.0672  0.5752
32360SOL    HW1 3043   6.307   1.860  11.887 -0.2466 -1.6870  1.4324
32360SOL    HW2 3044   6.235   1.940  11.993 -0.6838 -0.9968  0.6185
32361SOL     OW 3045   6.536   5.204  10.283  0.3879  0.1435 -0.0250
32361SOL    HW1 3046   6.544   5.147  10.206 -0.5995 -0.3383  0.2183
32361SOL    HW2 3047   6.460   5.258  10.265  0.4944  0.4244  0.3669
32362SOL     OW 3048   2.329  11.696   0.923 -0.3290 -1.0754  0.5928
32362SOL    HW1 3049   2.283  11.715   1.004 -0.7202 -1.9344  0.5850
32362SOL    HW2 3050   2.395  11.764   0.916 -1.1177 -0.2443  0.9819
32363SOL     OW 3051   0.055   7.167   9.960  0.3063  0.3579  0.0790
32363SOL    HW1 3052  -0.020   7.225   9.952  0.0831  0.0687  0.0507
32363SOL    HW2 3053   0.122   7.219  10.003  0.2066  0.7282 -0.2118
32364SOL     OW 3054   6.488   7.524   4.339 -0.1176  0.5276  0.2002
32364SOL    HW1 3055   6.452   7.580   4.407 -0.1362 -0.2985  0.8943
32364SOL    HW2 3056   6.440   7.441   4.349 -0.4596  0.5416 -1.1293
32365SOL     OW 3057   2.927   5.737   0.766 -0.7122  0.2943  0.4405
32365SOL    HW1 3058   2.892   5.779   0.687 -1.5390 -0.1350  0.5715
32365SOL    HW2 3059   2.855   5.683   0.798  0.2440 -1.0118  0.4320
32366SOL     OW 3060  11.263   4.676  12.392  0.4366 -0.0396  0.1660
32366SOL    HW1 3061  11.339   4.662  12.336 -0.1603 -0.2562 -0.5970
32366SOL    HW2 3062  11.189   4.684  12.332 -0.0461  0.9235  0.8582
32367SOL     OW 3063   8.345   3.006   7.371  0.3068  0.4727  0.3260
32367SOL    HW1 3064   8.258   3.033   7.401 -1.0104 -3.0593  0.0643
32367SOL    HW2 3065   8.394   2.989   7.452 -0.1420 -0.1283  0.4701
32368SOL     OW 3066   5.284   0.621   3.225 -0.7820 -0.0026 -0.4705
32368SOL    HW1 3067   5.331   0.630   3.143 -0.3360 -2.1449 -0.5132
32368SOL    HW2 3068   5.202   0.668   3.211 -0.9251 -0.7228 -2.3245
32369SOL     OW 3069   0.225   9.599   9.685  0.0629 -0.2798 -0.2556
32369SOL    HW1 3070   0.211   9.666   9.618 -1.6535  1.0349  1.3233
32369SOL    HW2 3071   0.153   9.612   9.747  0.5633 -2.6243  0.9052
32370SOL     OW 3072  11.926   0.640   8.689  0.1002 -0.0188 -0.0153
32370SOL    HW1 3073  11.847   0.608   8.734  1.1189 -0.6658  1.3845
32370SOL    HW2 3074  11.996   0.628   8.752  1.1404  1.7177 -0.7835
32371SOL     OW 3075  11.684   8.389   4.066  0.3348  0.4114 -0.2854
32371SOL    HW1 3076  11.623   8.431   4.004  0.1338 -0.7906 -0.9261
32371SOL    HW2 3077  11.627   8.338   4.124  0.4708  1.9220  1.2793
32372SOL     OW 3078  10.747   2.746   2.630  0.0273  0.3889 -0.7907
32372SOL    HW1 3079  10.776   2.704   2.549  0.9484 -2.8170  0.9959
32372SOL    HW2 3080  10.828   2.760   2.680 -0.7015 -0.3953  0.6910
32373SOL     OW 3081   4.795   9.294   3.469  0.2780 -0.1630  0.0762
32373SOL    HW1 3082   4.843   9.220   3.432 -0.9866 -0.2940 -1.4006
32373SOL    HW2 3083   4.851   9.370   3.452 -0.0163 -0.3020 -1.6589
32374SOL     OW 3084   8.094   0.938   2.475  0.2388 -0.4962 -0.0666
32374SOL    HW1 3085   8.138   0.959   2.557  1.0524  1.4172 -0.9441
32374SOL    HW2 3086   8.022   1.001   2.469 -0.3989 -1.2369 -0.3809
32375SOL     OW 3087   3.698   1.835   5.801 -0.0725  0.6340  0.0899
32375SOL    HW1 3088   3.776   1.787   5.773 -0.7151 -1.2136  1.3063
32375SOL    HW2 3089   3.703   1.918   5.754  1.9334  0.0321 -0.8626
32376SOL     OW 3090   1.372   6.047   9.331 -0.2597 -0.0517 -0.1562
32376SOL    HW1 3091   1.453   6.092   9.303 -0.9980  1.6631  0.3055
32376SOL    HW2 3092   1.375   5.963   9.286  2.0567 -0.2871  0.2894
32377SOL     OW 3093   6.246   2.767   3.033 -0.4410 -0.2688  0.1197
32377SOL    HW1 3094   6.262   2.822   3.110 -1.4743  1.4656 -0.8235
32377SOL    HW2 3095   6.269   2.679   3.061 -0.7711  0.2950  2.4126
32378SOL     OW 3096   2.648   1.334   2.493  0.5522 -0.1892 -0.1364
32378SOL    HW1 3097   2.674   1.346   2.401 -0.5379 -0.1474 -0.4521
32378SOL    HW2 3098   2.555   1.356   2.495  0.8084  0.8933  1.2124
32379SOL     OW 3099  10.010  11.983   7.358 -0.0303 -0.0882  0.5252
32379SOL    HW1 3100  10.063  12.046   7.309  1.5160 -1.6318  0.0898
32379SOL    HW2 3101   9.924  11.986   7.316  0.4996  0.5221 -0.5688
32380SOL     OW 3102   0.963   0.692   6.397  0.3835  0.5555 -0.0885
32380SOL    HW1 3103   1.002   0.611   6.431 -1.4503  0.7094  2.6743
32380SOL    HW2 3104   0.927   0.667   6.312 -0.2699 -1.5879  0.7633
32381SOL     OW 3105   7.103   8.620   6.388 -0.1579 -0.0296 -0.2268
32381SOL    HW1 3106   7.111   8.539   6.439  0.2271  0.3012  0.2474
32381SOL    HW2 3107   7.102   8.590   6.297 -0.9362 -0.6318 -0.0324
32382SOL     OW 3108  10.931  10.074   3.818 -0.5877  0.3055  0.3380
32382SOL    HW1 3109  10.962  10.053   3.906  0.7819  0.0113 -0.1803
32382SOL    HW2 3110  10.865  10.008   3.799  0.2557 -0.6280  0.5508
32383SOL     OW 3111   9.551   9.826   4.388 -0.5602  0.4712  0.1957
32383SOL    HW1 3112   9.618   9.887   4.418 -0.8087  0.4081  0.8952
32383SOL    HW2 3113   9.566   9.746   4.438 -0.2727 -0.0398 -0.6744
32384SOL     OW 3114   7.780  10.687   4.996  0.2000 -0.4558 -0.1269
32384SOL    HW1 3115   7.697  10.647   5.020  0.3055  0.1032  1.2558
32384SOL    HW2 3116   7.769  10.780   5.014  1.4962 -0.5241  1.3349
32385SOL     OW 3117  11.075  11.112   9.332 -0.2391  0.1428 -0.0427
32385SOL    HW1 3118  11.048  11.172   9.402 -0.0037  0.8047 -0.5054
32385SOL    HW2 3119  11.025  11.032   9.348  0.0540  0.1683  1.0651
32386SOL     OW 3120   5.138   1.332   4.248  0.0031 -0.7201  0.4156
32386SOL    HW1 3121   5.056   1.285   4.232 -0.1214  0.1239 -1.7626
32386SOL    HW2 3122   5.200   1.265   4.275 -0.9453 -1.6597  0.3006
32387SOL     OW 3123  10.520   5.249   4.885  0.1240 -0.0903 -0.3748
32387SOL    HW1 3124  10.486   5.167   4.849 -0.4122  0.4636 -1.1562
32387SOL    HW2 3125  10.523   5.235   4.980 -0.8804 -0.6654 -0.4212
32388SOL     OW 3126  10.167  11.687   3.458 -0.0680 -0.6180 -0.2704
32388SOL    HW1 3127  10.122  11.625   3.515  0.6830 -0.6496  0.2982
32388SOL    HW2 3128  10.238  11.636   3.419  0.3333 -0.2030 -0.0783
32389SOL     OW 3129   5.128   8.763   3.877  0.3756 -0.3478 -0.1435
32389SOL    HW1 3130   5.184   8.777   3.953  0.7819 -1.4406 -0.2339
32389SOL    HW2 3131   5.156   8.679   3.841  0.1327  0.1041 -1.4546
32390SOL     OW 3132   7.716   5.814  10.584  0.1397  0.4737  0.3882
32390SOL    HW1 3133   7.747   5.776  10.502 -1.2912  0.8114 -0.3393
32390SOL    HW2 3134   7.777   5.886  10.602  1.5474 -0.7327  0.6120
32391SOL     OW 3135   9.482   7.505   0.636 -0.2985 -0.0839  0.2632
32391SOL    HW1 3136   9.501   7.412   0.631  0.6543  0.0706  0.7859
32391SOL    HW2 3137   9.567   7.546   0.654 -0.7816  0.8350  0.5072
32392SOL     OW 3138  10.601   6.614   5.857 -0.2915 -0.1839  0.5181
32392SOL    HW1 3139  10.624   6.659   5.939 -0.4895  1.6480 -0.3750
32392SOL    HW2 3140  10.680   6.566   5.833 -0.0079 -0.2038  1.4455
32393SOL     OW 3141  11.284   3.084  12.131  0.0143 -0.0626 -0.4852
32393SOL    HW1 3142  11.278   3.052  12.041  0.1209  0.0747 -0.5409
32393SOL    HW2 3143  11.205   3.052  12.174 -0.2648  0.2733 -0.7531
32394SOL     OW 3144  11.092  11.325   3.351  0.0186 -0.4762 -0.1894
32394SOL    HW1 3145  11.139  11.399   3.390 -0.5564  0.1170 -0.5942
32394SOL    HW2 3146  11.046  11.363   3.276 -0.7770 -1.1200 -0.0414
32395SOL     OW 3147   8.044  11.660  11.165 -0.3239  0.2347  0.5549
32395SOL    HW1 3148   8.019  11.581  11.118  1.4619  1.1584 -2.1938
32395SOL    HW2 3149   8.086  11.629  11.245 -0.7075 -1.5327  0.0993
32396SOL     OW 3150   7.225   0.114  10.772  0.2704  0.2369 -0.2994
32396SOL    HW1 3151   7.141   0.087  10.735  1.1435  0.9384 -3.0089
32396SOL    HW2 3152   7.203   0.187  10.830 -1.2727 -1.5859  1.5762
32397SOL     OW 3153  10.241   1.082   1.962  0.3235  0.3904  0.2785
32397SOL    HW1 3154  10.208   1.132   2.037  1.8004  0.2882  1.0400
32397SOL    HW2 3155  10.307   1.139   1.923  0.0312  0.1656 -0.5662
32398SOL     OW 3156   6.429   3.431   8.216 -0.2829  0.1996 -0.2389
32398SOL    HW1 3157   6.438   3.363   8.283  0.0341 -0.3754 -0.8549
32398SOL    HW2 3158   6.496   3.497   8.239 -0.7746  0.4492  0.5152
32399SOL     OW 3159   5.458   4.370   0.402 -0.4201 -0.2683  0.2094
32399SOL    HW1 3160   5.543   4.349   0.361 -0.6478 -0.6315 -0.0836
32399SOL    HW2 3161   5.429   4.286   0.438 -1.5825 -0.5977 -1.4032
32400SOL     OW 3162   4.721   5.499   7.987 -0.2476  0.0029  0.1214
32400SOL    HW1 3163   4.732   5.591   8.012  1.2911  0.0909 -0.8080
32400SOL    HW2 3164   4.777   5.451   8.048 -1.1869 -0.3798  0.7257
32401SOL     OW 3165  11.370   1.505   8.049 -0.0454 -0.3213  0.6419
32401SOL    HW1 3166  11.318   1.505   8.130 -1.0437  0.5244  0.0170
32401SOL    HW2 3167  11.315   1.460   7.985 -0.2319  1.0112 -0.1638
32402SOL     OW 3168  11.179   2.861  11.627 -0.0729 -0.3502  0.0224
32402SOL    HW1 3169  11.271   2.888  11.621 -0.3101  0.6180  0.4954
32402SOL    HW2 3170  11.140   2.889  11.544  0.4477 -2.4557 -0.9986
32403SOL     OW 3171   0.558  12.180  11.514  0.1762  0.2260 -0.2418
32403SOL    HW1 3172   0.467  12.160  11.539  0.6395  0.2737  1.6485
32403SOL    HW2 3173   0.559  12.275  11.504 -0.2346  0.1197 -1.4867
32404SOL     OW 3174   1.663  10.361   5.704  0.1158  0.1774  0.3911
32404SOL    HW1 3175   1.602  10.325   5.640  0.3565  0.5634 -0.0579
32404SOL    HW2 3176   1.667  10.295   5.773  0.3271 -0.5120 -0.2762
32405SOL     OW 3177  11.657   1.448   2.419  0.1805  0.2200  0.5982
32405SOL    HW1 3178  11.582   1.480   2.368  0.1698 -0.3504  0.2478
32405SOL    HW2 3179  11.726   1.513   2.402  0.1418  0.0982 -0.0613
32406SOL     OW 3180   4.277  12.072   5.465 -0.0901 -0.6354  0.1113
32406SOL    HW1 3181   4.290  12.166   5.453  2.0150 -1.0515 -1.4538
32406SOL    HW2 3182   4.226  12.045   5.388 -0.3310 -0.8569  0.3453
32407SOL     OW 3183   1.288  10.841   5.104 -0.0302 -0.3456  0.0548
32407SOL    HW1 3184   1.379  10.866   5.087  0.1262 -1.9385 -1.7820
32407SOL    HW2 3185   1.294  10.767   5.164 -0.0712 -0.9581 -0.6965
32408SOL     OW 3186   7.629   1.393   7.611 -0.7851 -0.2223  0.5818
32408SOL    HW1 3187   7.674   1.323   7.564 -0.2197  0.8589 -0.5377
32408SOL    HW2 3188   7.590   1.447   7.543  2.7023  3.2053  0.9751
32409SOL     OW 3189   0.291   9.688   2.425 -0.0647 -0.4525  0.2678
32409SOL    HW1 3190   0.315   9.775   2.392  0.7153 -1.2132 -1.2766
32409SOL    HW2 3191   0.368   9.659   2.474  1.1199 -1.6390 -2.1290
32410SOL     OW 3192   9.578  12.204   1.172 -0.1704  0.2837 -0.0596
32410SOL    HW1 3193   9.600  12.182   1.263 -1.5766  0.2917  0.3072
32410SOL    HW2 3194   9.603  12.126   1.122  0.3960  0.1885  0.3616
32411SOL     OW 3195   6.475   6.388  11.221  0.0350 -0.1596  0.1553
32411SOL    HW1 3196   6.437   6.467  11.184  1.0647  0.3760  0.2056
32411SOL    HW2 3197   6.504   6.337  11.145  1.6945  0.7104  0.1567
32412SOL     OW 3198   7.869  12.076   7.140  0.1445  0.0641 -0.1023
32412SOL    HW1 3199   7.931  12.028   7.194  0.6735 -0.6128 -1.2576
32412SOL    HW2 3200   7.913  12.084   7.055 -1.2217 -0.1923 -0.8638
32413SOL     OW 3201   1.843   4.683   6.536  0.6909  0.1827 -0.1750
32413SOL    HW1 3202   1.905   4.611   6.542  0.5976  0.0960 -0.2629
32413SOL    HW2 3203   1.774   4.661   6.599  0.4175 -0.0427 -0.5545
32414SOL     OW 3204   7.499   8.349   2.074 -0.0734 -0.1186  0.7199
32414SOL    HW1 3205   7.552   8.427   2.094  0.3276 -0.2747  0.2888
32414SOL    HW2 3206   7.513   8.335   1.980  1.6928 -2.0455  1.2037
32415SOL     OW 3207   2.628   7.139   3.897 -0.7239 -0.4753 -0.0688
32415SOL    HW1 3208   2.561   7.188   3.848 -1.3209 -1.1200  0.0858
32415SOL    HW2 3209   2.707   7.193   3.890 -1.6313  1.0854  1.0485
32416SOL     OW 3210  11.007   1.120   3.956 -0.3583  0.0090  0.2126
32416SOL    HW1 3211  11.003   1.047   3.894 -0.6813  1.5056 -1.6536
32416SOL    HW2 3212  11.076   1.096   4.018  0.3047 -1.3820 -0.9967
32417SOL     OW 3213   2.934  11.636   2.388 -0.2227  0.5341 -0.1559
32417SOL    HW1 3214   2.994  11.705   2.360  0.4666  0.1009  0.2283
32417SOL    HW2 3215   2.912  11.657   2.478  1.4637 -0.7200  0.6010
32418SOL     OW 3216   3.566   6.823   0.877  0.2290 -0.0718  0.6516
32418SOL    HW1 3217   3.476   6.847   0.898 -0.2778 -2.4826  1.4650
32418SOL    HW2 3218   3.576   6.844   0.784 -1.0514  0.4692  0.6232
32419SOL     OW 3219  11.642  11.188  10.832 -0.3913  0.2868 -0.0019
32419SOL    HW1 3220  11.653  11.184  10.927 -3.3359  0.8759  0.4592
32419SOL    HW2 3221  11.730  11.175  10.797  0.6875 -0.5787  2.7706
32420SOL     OW 3222  12.420   7.332  11.805 -0.1814  0.3814 -0.1880
32420SOL    HW1 3223  12.483   7.397  11.836  0.0564 -0.1996  0.5836
32420SOL    HW2 3224  12.444   7.252  11.851 -0.5694 -0.2195 -1.0053
32421SOL     OW 3225   9.269   4.574   0.233 -0.3633 -0.4274 -0.1377
32421SOL    HW1 3226   9.319   4.637   0.285 -0.4123 -1.0547  0.6903
32421SOL    HW2 3227   9.179   4.605   0.236 -0.3087 -0.2703 -0.1404
32422SOL     OW 3228  11.182   5.010   6.297  0.1369  0.6435  0.2848
32422SOL    HW1 3229  11.275   5.031   6.291  0.1691  1.2991  2.1799
32422SOL    HW2 3230  11.164   4.957   6.220  2.6811 -1.6437  1.0776
32423SOL     OW 3231   2.095   9.343  12.403 -0.1489  0.7043 -0.0040
32423SOL    HW1 3232   2.006   9.314  12.384  0.0393  0.6587 -0.8885
32423SOL    HW2 3233   2.145   9.320  12.324  0.9970 -0.7383  1.0743
32424SOL     OW 3234   7.919  12.098   6.386 -0.0910  0.2162  0.1236
32424SOL    HW1 3235   7.979  12.062   6.320 -0.2917  0.2644 -0.0881
32424SOL    HW2 3236   7.949  12.188   6.399 -0.2401  0.3070 -0.1361
32425SOL     OW 3237   2.488   4.889   4.890 -0.4608  0.1884 -0.2557
32425SOL    HW1 3238   2.501   4.834   4.968  2.6696  0.0760 -0.7152
32425SOL    HW2 3239   2.544   4.965   4.905 -0.8573  0.8220 -1.8244
32426SOL     OW 3240   0.907   9.083   5.991 -0.2550 -0.0055 -0.4852
32426SOL    HW1 3241   0.996   9.051   5.974 -1.0420 -1.9825 -1.1981
32426SOL    HW2 3242   0.881   9.039   6.072 -0.4387  0.9249 -0.0243
32427SOL     OW 3243   1.484  12.469   1.456 -0.1498 -0.2274  0.5115
32427SOL    HW1 3244   1.515  12.380   1.435 -0.3470 -0.2016  0.1122
32427SOL    HW2 3245   1.411  12.455   1.516 -0.0783 -0.3311  0.5745
32428SOL     OW 3246   0.967  11.413   6.573 -0.0964  0.1298 -0.6788
32428SOL    HW1 3247   0.892  11.412   6.632  0.7246 -1.6757  0.3986
32428SOL    HW2 3248   0.943  11.352   6.503  0.0280  0.2347 -0.8156
32429SOL     OW 3249   1.433   6.457   0.459  0.0516 -0.5455  0.2476
32429SOL    HW1 3250   1.517   6.464   0.414 -0.3328 -0.5881 -0.4989
32429SOL    HW2 3251   1.380   6.526   0.420 -0.2852 -0.5576  0.6725
32430SOL     OW 3252   7.923   4.085  12.002 -0.3250  0.3323 -0.5271
32430SOL    HW1 3253   7.974   4.106  11.924  0.6025 -0.7622 -0.2439
32430SOL    HW2 3254   7.929   4.164  12.056  1.1649  0.2121 -0.4662
32431SOL     OW 3255  10.257   1.540   3.842  0.0663  0.4816 -0.3702
32431SOL    HW1 3256  10.293   1.472   3.899  0.2131 -0.9024 -2.0499
32431SOL    HW2 3257  10.191   1.583   3.896  0.6103 -0.3667  1.0419
32432SOL     OW 3258   4.343  11.383   4.056 -0.5190 -0.0767 -0.1816
32432SOL    HW1 3259   4.437  11.370   4.046 -0.4072  1.2190 -1.1462
32432SOL    HW2 3260   4.313  11.410   3.969 -1.7749 -0.4365  0.1186
32433SOL     OW 3261   8.813   2.032  10.987  0.7570  0.3508 -0.1326
32433SOL    HW1 3262   8.849   1.956  11.033  2.4199  1.0166 -0.2703
32433SOL    HW2 3263   8.795   2.000  10.899  0.8590 -0.0508 -0.0113
32434SOL     OW 3264   8.178   1.633   4.971 -0.5695 -0.0819  0.1674
32434SOL    HW1 3265   8.090   1.669   4.980 -0.6746 -0.5342  0.9517
32434SOL    HW2 3266   8.236   1.707   4.991 -0.7419  0.4732 -1.2656
32435SOL     OW 3267   6.507   8.386   8.361  0.0189  0.0296  0.0971
32435SOL    HW1 3268   6.537   8.431   8.440 -2.4206 -1.0924  1.7874
32435SOL    HW2 3269   6.485   8.457   8.300 -0.8996  1.0631  1.5635
32436SOL     OW 3270  12.255   1.465   1.406 -0.0220  0.5507 -0.4517
32436SOL    HW1 3271  12.167   1.499   1.419  0.6313  1.7552  1.2006
32436SOL    HW2 3272  12.307   1.542   1.383  1.3589  0.6894  2.6754
32437SOL     OW 3273   9.593  12.306   8.009  0.2191  0.2013 -0.3215
32437SOL    HW1 3274   9.537  12.351   8.072  0.6820 -0.2442  0.4229
32437SOL    HW2 3275   9.681  12.339   8.026  0.2340  0.7067 -1.3130
32438SOL     OW 3276  11.680  11.074   4.731  0.2476  0.4300 -0.1183
32438SOL    HW1 3277  11.621  11.012   4.775  0.0361  0.0340 -0.9409
32438SOL    HW2 3278  11.691  11.038   4.643  1.7108  0.5051  0.0021
32439SOL     OW 3279   8.133   2.749   1.790 -0.1767  0.0093 -0.3254
32439SOL    HW1 3280   8.125   2.842   1.812  0.5368  0.3693 -1.4683
32439SOL    HW2 3281   8.086   2.704   1.859  1.8882  1.0281  1.8740
32440SOL     OW 3282   7.622  11.954   7.066  0.3837 -0.0793 -0.1256
32440SOL    HW1 3283   7.716  11.941   7.072  0.4003 -0.1750 -0.5432
32440SOL    HW2 3284   7.611  12.031   7.010  0.2310  0.3559  0.5018
32441SOL     OW 3285  11.420  10.189   6.493 -0.2464 -0.2736 -0.0077
32441SOL    HW1 3286  11.385  10.151   6.574  1.2205  0.8959  1.2229
32441SOL    HW2 3287  11.351  10.247   6.463 -1.1044 -1.2606 -0.0151
32442SOL     OW 3288   2.502   9.063   5.961 -0.7791 -0.1502 -0.4867
32442SOL    HW1 3289   2.509   8.968   5.967 -1.6267 -0.1898  0.1821
32442SOL    HW2 3290   2.582   9.091   5.916  0.2849 -1.0250  0.7865
32443SOL     OW 3291   9.210   0.754   2.021 -0.2025  0.0856 -0.3454
32443SOL    HW1 3292   9.302   0.775   2.003 -0.1945  1.2961  0.9717
32443SOL    HW2 3293   9.160   0.812   1.964 -0.1437  0.4575 -0.0257
32444SOL     OW 3294   7.500   5.777  11.331 -0.1761 -0.3805  0.2325
32444SOL    HW1 3295   7.559   5.723  11.382 -0.9397 -2.2760 -0.7951
32444SOL    HW2 3296   7.453   5.716  11.274  0.4926  1.5532 -2.6520
32445SOL     OW 3297   7.581   6.971   3.101  0.1217  0.0868  0.6021
32445SOL    HW1 3298   7.595   7.000   3.011  1.2477  0.1756  0.7862
32445SOL    HW2 3299   7.552   6.880   3.094 -3.0381  1.0299  0.0309
32446SOL     OW 3300   1.432   7.666   1.465  0.2996 -0.4938 -0.4244
32446SOL    HW1 3301   1.382   7.585   1.471  0.1271 -0.3508  0.0546
32446SOL    HW2 3302   1.521   7.641   1.491  0.1795 -0.4688  0.0208
32447SOL     OW 3303   5.248   5.042   2.671 -0.1021 -0.1484  0.1199
32447SOL    HW1 3304   5.197   5.082   2.741 -0.2829  1.0836 -0.6837
32447SOL    HW2 3305   5.254   4.950   2.695 -0.2746  0.2258  1.6701
32448SOL     OW 3306   3.954   0.932  10.580 -0.2144  0.1271  0.7606
32448SOL    HW1 3307   3.993   0.998  10.636  2.6014  0.9809 -1.8873
32448SOL    HW2 3308   3.937   0.977  10.497  1.0860 -2.1449 -0.8933
32449SOL     OW 3309   4.853   2.374   6.412 -0.0103 -0.2262  0.3401
32449SOL    HW1 3310   4.943   2.386   6.382  0.0914  0.9621  1.0304
32449SOL    HW2 3311   4.817   2.306   6.356  1.2879 -0.6471 -0.0124
32450SOL     OW 3312   3.382   7.197   6.390  0.2206  0.2483  0.3446
32450SOL    HW1 3313   3.415   7.111   6.416  0.8504 -0.4888 -2.5811
32450SOL    HW2 3314   3.444   7.259   6.429  1.4877 -0.7957  0.0767
32451SOL     OW 3315   2.510   6.615   2.403 -0.1376 -0.5121  0.0123
32451SOL    HW1 3316   2.510   6.632   2.309  4.2574  1.2707  0.0601
32451SOL    HW2 3317   2.438   6.668   2.437 -0.6964  0.2505 -2.1891
32452SOL     OW 3318   3.340  10.665  11.043 -0.0275  0.1481  0.2841
32452SOL    HW1 3319   3.270  10.676  11.108 -0.6100  1.1572 -0.4790
32452SOL    HW2 3320   3.302  10.698  10.961  1.3438  0.7191 -0.1517
32453SOL     OW 3321   2.973   5.082   8.478 -0.3746  0.2779  0.0068
32453SOL    HW1 3322   3.021   5.123   8.551 -0.0948 -0.4784  0.2592
32453SOL    HW2 3323   3.033   5.089   8.404 -0.0334 -0.2841  0.2194
32454SOL     OW 3324  11.290  11.869   6.397 -0.4267  0.0180  0.1577
32454SOL    HW1 3325  11.350  11.857   6.324  0.8365  0.1827  1.1309
32454SOL    HW2 3326  11.228  11.796   6.390  0.2073 -0.4665 -0.5599
32455SOL     OW 3327   4.817  12.049   6.510  0.4163 -0.3870 -0.5505
32455SOL    HW1 3328   4.903  12.022   6.476  0.5872  0.0454 -0.4595
32455SOL    HW2 3329   4.801  12.134   6.470 -0.1645 -0.6557 -0.9023
32456SOL     OW 3330   1.999   5.879   1.894  0.1298 -0.4570 -0.2398
32456SOL    HW1 3331   2.012   5.934   1.972  0.0026 -2.3945  1.2229
32456SOL    HW2 3332   2.014   5.938   1.821 -1.9337  2.0325  1.1665
32457SOL     OW 3333  12.204   7.964   8.749  0.2047 -0.4968 -0.0732
32457SOL    HW1 3334  12.121   7.916   8.753  0.5908 -1.4635 -2.2155
32457SOL    HW2 3335  12.256   7.917   8.684  0.5682  2.8639 -2.4832
32458SOL     OW 3336  11.206  11.221  10.907 -0.4328 -0.0960 -0.8504
32458SOL    HW1 3337  11.269  11.265  10.850 -0.0630 -0.6998 -0.9106
32458SOL    HW2 3338  11.238  11.132  10.914 -1.2269 -0.3829 -0.7999
32459SOL     OW 3339   7.445  10.564   2.702 -0.4209 -0.1895 -0.0671
32459SOL    HW1 3340   7.469  10.517   2.782 -2.5550  0.1366  0.8272
32459SOL    HW2 3341   7.359  10.529   2.679 -1.4504  2.2617 -0.1596
32460SOL     OW 3342   8.148   1.324   6.611 -0.3034  0.0093  0.3261
32460SOL    HW1 3343   8.064   1.291   6.578 -0.7921  0.8296  0.7198
32460SOL    HW2 3344   8.124   1.379   6.686  0.6414 -0.3027  0.8765
32461SOL     OW 3345   3.194   8.211   6.969  0.2159 -0.5428 -0.1252
32461SOL    HW1 3346   3.141   8.273   6.919 -0.5562  0.0403  1.3305
32461SOL    HW2 3347   3.284   8.244   6.962  0.1430 -0.5508 -1.1948
32462SOL     OW 3348   5.660  11.725   6.488  0.6308  0.1386  0.4529
32462SOL    HW1 3349   5.575  11.683   6.500  0.0896  1.0397 -0.0760
32462SOL    HW2 3350   5.724  11.662   6.521 -0.2298 -0.6306  0.6681
32463SOL     OW 3351   9.528   2.482   2.890  0.4519  0.1409  0.3306
32463SOL    HW1 3352   9.495   2.448   2.807  1.3838  1.0705 -0.4519
32463SOL    HW2 3353   9.535   2.405   2.946  1.0801 -0.7194 -0.8886
32464SOL     OW 3354   4.778  10.280  11.276 -0.3364 -0.0491 -0.1517
32464SOL    HW1 3355   4.703  10.262  11.219  0.9331  0.8389 -2.2144
32464SOL    HW2 3356   4.781  10.206  11.336 -1.4010 -1.3372 -1.6177
32465SOL     OW 3357   5.095   9.075  11.001  0.6204 -0.1634 -0.4730
32465SOL    HW1 3358   5.131   9.012  11.063 -0.1571  0.1264  0.2977
32465SOL    HW2 3359   5.128   9.047  10.916  2.2882 -0.1489  0.1477
32466SOL     OW 3360   1.698   6.043   0.993 -0.2084  0.1233 -0.1431
32466SOL    HW1 3361   1.618   5.999   1.023 -0.6425  0.7112 -0.4152
32466SOL    HW2 3362   1.764   6.021   1.059 -0.2530 -1.4003 -0.5630
32467SOL     OW 3363  11.120   3.340   1.395 -0.0063 -0.7470 -0.7435
32467SOL    HW1 3364  11.081   3.259   1.430  0.5633  0.0548  1.9611
32467SOL    HW2 3365  11.074   3.410   1.441  1.3267  0.3719 -1.0747
32468SOL     OW 3366   2.110   6.069   5.083 -0.4179 -0.4207  0.1971
32468SOL    HW1 3367   2.044   6.104   5.024  0.7400  0.9263 -0.3755
32468SOL    HW2 3368   2.085   6.100   5.169 -0.4467  0.2373 -0.0427
32469SOL     OW 3369  10.261  11.562   4.147  0.0472  0.7511 -0.4087
32469SOL    HW1 3370  10.184  11.592   4.195  1.2896  0.0526  2.1864
32469SOL    HW2 3371  10.243  11.470   4.128 -0.5937  1.1172 -1.6679
32470SOL     OW 3372   0.965   7.057   9.690 -0.0389 -0.3646  0.2122
32470SOL    HW1 3373   1.041   7.029   9.640  1.3700  2.0829  0.8162
32470SOL    HW2 3374   0.994   7.054   9.781 -0.4955  0.9366  0.4252
32471SOL     OW 3375  11.883   7.663  11.559 -0.5335 -0.0621  0.0872
32471SOL    HW1 3376  11.941   7.619  11.621 -0.8418  0.5815  0.8725
32471SOL    HW2 3377  11.894   7.756  11.579  0.6003  0.2944 -1.9704
32472SOL     OW 3378   1.434   8.946  10.114 -0.3239 -0.1852  0.5318
32472SOL    HW1 3379   1.440   8.895  10.033  0.3089  1.7664 -0.7190
32472SOL    HW2 3380   1.489   9.023  10.098 -0.0940  0.1904  2.8832
32473SOL     OW 3381   9.454   2.939   9.373  0.1361  0.1063 -0.2469
32473SOL    HW1 3382   9.511   2.981   9.309  1.8193 -0.6380  0.6827
32473SOL    HW2 3383   9.365   2.954   9.340  0.8742  0.8744 -2.0274
32474SOL     OW 3384   2.993  10.717   0.288  0.0216 -0.4434  0.1494
32474SOL    HW1 3385   3.085  10.703   0.265 -0.4827 -0.5266 -2.0432
32474SOL    HW2 3386   2.945  10.654   0.235 -1.3025 -0.8470  1.7343
32475SOL     OW 3387   6.990   6.378   3.711 -0.8519 -0.4224 -0.2477
32475SOL    HW1 3388   6.937   6.381   3.790 -0.0841 -0.9163  0.3003
32475SOL    HW2 3389   6.972   6.461   3.667 -0.5578  0.3006  0.9450
32476SOL     OW 3390   2.964   3.245   9.582 -0.5577 -0.1630 -0.0474
32476SOL    HW1 3391   3.039   3.198   9.617 -0.5655  1.1072  1.7629
32476SOL    HW2 3392   2.914   3.178   9.534  0.2555 -1.6360  1.0904
32477SOL     OW 3393   9.430   7.598   4.738 -0.5755  0.2725 -0.1883
32477SOL    HW1 3394   9.508   7.649   4.762 -1.6649  2.1666 -0.5168
32477SOL    HW2 3395   9.363   7.626   4.800 -1.2774 -0.6325 -0.5134
32478SOL     OW 3396   5.369   3.305   1.424  0.5093 -0.2655 -0.8476
32478SOL    HW1 3397   5.404   3.320   1.512 -0.9559  1.1771 -0.4506
32478SOL    HW2 3398   5.405   3.376   1.371  0.3073 -0.3315 -1.0754
32479SOL     OW 3399   5.555   7.776   5.170 -0.1710 -0.3681 -0.0841
32479SOL    HW1 3400   5.470   7.778   5.215 -0.0854  0.1194  0.0631
32479SOL    HW2 3401   5.549   7.701   5.111 -1.1924  0.4244 -1.0251
32480SOL     OW 3402  11.755   8.619   3.019  0.1001  0.2321 -0.2105
32480SOL    HW1 3403  11.741   8.532   3.055 -1.8133  0.6803  0.2529
32480SOL    HW2 3404  11.795   8.605   2.934  0.0814 -1.0728 -0.0116
32481SOL     OW 3405   7.428  12.137   1.949 -0.3348 -0.1752 -0.5877
32481SOL    HW1 3406   7.404  12.112   2.038  1.2206 -0.5701 -0.2530
32481SOL    HW2 3407   7.362  12.095   1.893 -0.0468 -1.7665  0.2264
32482SOL     OW 3408   0.207   4.563   4.424  0.3657  0.3155  0.3879
32482SOL    HW1 3409   0.266   4.635   4.402  0.0955  0.3104 -0.4147
32482SOL    HW2 3410   0.258   4.484   4.403  0.9395  0.2334  1.9849
32483SOL     OW 3411   8.171   6.678  10.110 -0.3622  0.4737  0.3313
32483SOL    HW1 3412   8.264   6.676  10.088 -0.6351 -0.5528 -0.9001
32483SOL    HW2 3413   8.164   6.739  10.183  1.4558 -0.4732  1.3524
32484SOL     OW 3414   0.628   3.431   2.248 -0.1480 -0.1816  0.1140
32484SOL    HW1 3415   0.694   3.435   2.178 -1.3448 -0.0185 -1.0472
32484SOL    HW2 3416   0.604   3.523   2.263  0.7686 -0.1397  1.4193
32485SOL     OW 3417  12.337  12.424   0.069 -0.1066  0.5759  0.7512
32485SOL    HW1 3418  12.319  12.335   0.040  0.3972 -0.0353  2.2215
32485SOL    HW2 3419  12.281  12.479   0.014  0.3574 -0.5416 -0.8950
32486SOL     OW 3420   4.816  10.821  12.160  0.3826 -0.2377 -0.1572
32486SOL    HW1 3421   4.766  10.766  12.220  0.3965 -0.7131 -0.5765
32486SOL    HW2 3422   4.750  10.866  12.107  0.3834 -0.7799 -0.6343
32487SOL     OW 3423   6.574   8.912   1.512  0.6635  0.0061  0.4683
32487SOL    HW1 3424   6.608   8.999   1.533  1.4663 -0.2879  0.4448
32487SOL    HW2 3425   6.643   8.852   1.541  1.1607 -0.5051 -1.5667
32488SOL     OW 3426   7.338   3.842   0.056 -0.1639  0.1818 -0.1931
32488SOL    HW1 3427   7.271   3.897   0.015 -0.7381  0.2224  0.7816
32488SOL    HW2 3428   7.299   3.755   0.061  0.0353  0.1006 -0.0436
32489SOL     OW 3429   9.282  10.091  11.165 -0.2663  0.1923  0.0397
32489SOL    HW1 3430   9.366  10.105  11.208  0.5097 -1.7038 -0.7322
32489SOL    HW2 3431   9.284  10.147  11.088  1.0847 -1.0870 -0.9206
32490SOL     OW 3432  11.326   0.787   2.740  0.2903  0.4694 -0.8373
32490SOL    HW1 3433  11.268   0.826   2.675 -0.2591 -1.0487 -1.2986
32490SOL    HW2 3434  11.400   0.754   2.689  1.4509  2.0855 -0.2918
32491SOL     OW 3435  11.865   2.256   8.553  0.0820 -0.1504 -0.9365
32491SOL    HW1 3436  11.781   2.285   8.589 -0.1103 -1.8690  0.0868
32491SOL    HW2 3437  11.925   2.327   8.575 -0.4665 -0.2410  1.0254
32492SOL     OW 3438   4.143   9.155   5.532 -0.7758 -0.3378  0.0588
32492SOL    HW1 3439   4.203   9.229   5.537  0.6270 -1.4222 -0.1136
32492SOL    HW2 3440   4.134   9.126   5.623 -0.5996 -0.4938  0.0289
32493SOL     OW 3441   6.919   6.431   3.999 -0.5331  0.0608  0.4709
32493SOL    HW1 3442   6.881   6.407   4.084 -2.4769 -0.7688 -0.5728
32493SOL    HW2 3443   6.844   6.447   3.943  0.6861 -0.6599 -1.4570
32494SOL     OW 3444   5.158   2.114  11.983  0.4062 -0.1460  0.6544
32494SOL    HW1 3445   5.064   2.100  11.974  0.5088  0.4403 -2.5636
32494SOL    HW2 3446   5.194   2.026  11.996 -0.3926 -0.8222 -1.2774
32495SOL     OW 3447   8.636   8.184   6.340 -0.6103 -0.2182  0.3881
32495SOL    HW1 3448   8.625   8.098   6.299  0.1184 -1.0807  1.9206
32495SOL    HW2 3449   8.728   8.187   6.365 -0.2309  1.6924 -1.0325
32496SOL     OW 3450   4.526   0.175   0.802 -0.2780  0.3976 -0.1108
32496SOL    HW1 3451   4.552   0.103   0.744 -0.9137  0.8433 -0.9786
32496SOL    HW2 3452   4.517   0.251   0.744 -1.6399  0.6930  0.4397
32497SOL     OW 3453   2.388   3.346   8.325  0.3330 -0.2402 -0.6838
32497SOL    HW1 3454   2.345   3.328   8.409  2.9199 -0.0381  0.7871
32497SOL    HW2 3455   2.363   3.272   8.270 -1.9200 -0.0805 -0.0056
32498SOL     OW 3456   1.495  10.207   6.514 -0.2592  0.2395  0.3229
32498SOL    HW1 3457   1.476  10.125   6.559 -0.8259  0.2113  0.0438
32498SOL    HW2 3458   1.498  10.183   6.421 -1.1837  0.6622  0.1752
32499SOL     OW 3459   7.867   3.878   6.949  0.2058  0.2783  0.2837
32499SOL    HW1 3460   7.866   3.957   6.895  1.1848 -0.0273 -0.2136
32499SOL    HW2 3461   7.798   3.823   6.912  0.6216  0.2246 -0.4261
32500SOL     OW 3462   0.500  12.210   8.227 -0.0540 -0.0073 -0.1453
32500SOL    HW1 3463   0.506  12.166   8.312 -0.3743  2.3887  1.2108
32500SOL    HW2 3464   0.407  12.211   8.207  0.0003 -0.3776 -0.4202
32501SOL     OW 3465   7.982   2.013   5.976  0.3522 -0.0803 -0.0595
32501SOL    HW1 3466   7.944   1.997   6.063  0.6965  5.2110  1.3795
32501SOL    HW2 3467   7.907   2.023   5.918 -0.0085 -0.0657  0.4057
32502SOL     OW 3468   8.926   6.760   3.047 -0.5181  0.6101  0.6719
32502SOL    HW1 3469   8.911   6.728   3.136 -1.4759  1.2617  0.7621
32502SOL    HW2 3470   9.010   6.805   3.052  1.4981 -2.7605  0.2691
32503SOL     OW 3471   2.902   8.281   1.911  0.7258 -0.2921 -0.7178
32503SOL    HW1 3472   2.936   8.236   1.989 -1.7365 -1.5738 -0.2701
32503SOL    HW2 3473   2.930   8.227   1.838 -0.2591 -1.3031 -0.3683
32504SOL     OW 3474  10.450   1.576   8.410  0.4555  0.0789 -0.5402
32504SOL    HW1 3475  10.465   1.483   8.393 -0.8294 -0.6758  2.0862
32504SOL    HW2 3476  10.479   1.590   8.499 -0.4964  1.9278 -0.4641
32505SOL     OW 3477   4.027   9.289   4.819  0.3722  0.8337  0.2929
32505SOL    HW1 3478   4.085   9.220   4.853 -1.5785 -0.2878  1.5553
32505SOL    HW2 3479   4.072   9.371   4.839  1.5053  0.0108  1.2581
32506SOL     OW 3480   2.135   1.837  11.421 -0.4252  0.0996 -0.7582
32506SOL    HW1 3481   2.061   1.776  11.421  0.1334 -0.6095 -1.9433
32506SOL    HW2 3482   2.099   1.918  11.456 -1.7715 -0.2443 -1.2743
32507SOL     OW 3483   4.107   7.657   4.762  0.1621 -0.6829  0.0939
32507SOL    HW1 3484   4.161   7.675   4.685  1.1038 -1.2162  0.6103
32507SOL    HW2 3485   4.101   7.562   4.767 -0.9180 -0.6361  0.0004
32508SOL     OW 3486   7.683   9.489  11.076  0.1393 -0.1066 -0.6605
32508SOL    HW1 3487   7.695   9.478  10.982  1.4800  0.1827 -0.5483
32508SOL    HW2 3488   7.772   9.484  11.112 -0.3839 -0.5649  0.6311
32509SOL     OW 3489   5.876  11.723   0.897  0.4716 -0.0494  0.2823
32509SOL    HW1 3490   5.907  11.798   0.846  0.3957 -0.6141 -0.6085
32509SOL    HW2 3491   5.948  11.702   0.956  0.2696  1.0959  0.9667
32510SOL     OW 3492  10.629   5.003   6.209 -0.4366  0.2220 -0.0172
32510SOL    HW1 3493  10.600   5.092   6.192  1.8448  0.8784 -0.8567
32510SOL    HW2 3494  10.589   4.951   6.139  0.7143  1.1762 -1.4563
32511SOL     OW 3495   3.506   2.790  12.294 -0.2809 -0.0964  0.2306
32511SOL    HW1 3496   3.572   2.799  12.225 -0.1508 -2.0574  0.0499
32511SOL    HW2 3497   3.439   2.855  12.272  2.2062  3.0529  1.2386
32512SOL     OW 3498   0.081   3.964  12.488 -0.3890 -0.0503  0.1127
32512SOL    HW1 3499   0.085   3.934  12.397  0.4050  1.2472 -0.3153
32512SOL    HW2 3500   0.111   3.888  12.539  0.0948 -0.4826 -0.7825
32513SOL     OW 3501   0.618  10.024  10.229  0.4516  0.1852  0.2435
32513SOL    HW1 3502   0.575   9.973  10.297 -0.1749 -1.7386 -1.5075
32513SOL    HW2 3503   0.574  10.109  10.231 -1.9051 -0.9596  0.0290
32514SOL     OW 3504   6.707   7.485   8.356  0.8239  0.4662 -0.5048
32514SOL    HW1 3505   6.630   7.511   8.305  0.4590  1.1763  0.3854
32514SOL    HW2 3506   6.752   7.421   8.300  1.0039  1.9772 -2.1775
32515SOL     OW 3507   6.533  11.226   1.491 -0.0249 -0.1530  0.4922
32515SOL    HW1 3508   6.578  11.288   1.435 -1.9847  0.3921 -0.5844
32515SOL    HW2 3509   6.590  11.217   1.567  3.1343 -1.5109 -1.8138
32516SOL     OW 3510   2.399   8.102   5.022  0.1484  0.1920  0.1502
32516SOL    HW1 3511   2.325   8.146   4.981 -0.7877 -1.0596  0.4323
32516SOL    HW2 3512   2.406   8.143   5.109 -0.4653  0.0697  0.2637
32517SOL     OW 3513  10.726   8.408  12.420 -0.0125 -0.9518  0.3928
32517SOL    HW1 3514  10.717   8.330  12.365  0.0409  0.3390 -1.5688
32517SOL    HW2 3515  10.798   8.458  12.380  0.4173 -0.2140  2.0084
32518SOL     OW 3516   9.030   4.131   8.994  0.3797 -0.4207 -0.7019
32518SOL    HW1 3517   8.938   4.141   8.970 -0.4577 -1.2087  1.8091
32518SOL    HW2 3518   9.061   4.220   9.009 -0.9337 -0.2305  1.3387
32519SOL     OW 3519   4.256  10.777   8.201 -0.0230 -0.3259 -0.4960
32519SOL    HW1 3520   4.297  10.714   8.142 -0.8411 -1.3085 -0.0574
32519SOL    HW2 3521   4.166  10.744   8.211 -0.0865  0.1913  0.7640
32520SOL     OW 3522   8.247   7.031   3.631  0.1189  0.8137 -0.5261
32520SOL    HW1 3523   8.283   7.116   3.659  1.6546  0.7321 -2.1367
32520SOL    HW2 3524   8.320   6.970   3.639 -1.4499 -0.8949  2.4902
32521SOL     OW 3525   5.606   8.885   8.619 -0.2311 -0.2354  0.1245
32521SOL    HW1 3526   5.592   8.891   8.525  0.5128 -0.2129  0.0070
32521SOL    HW2 3527   5.641   8.971   8.644  2.3372 -1.1192 -0.0971
32522SOL     OW 3528   6.840   9.535   1.128 -0.0275  0.3115 -0.1252
32522SOL    HW1 3529   6.765   9.478   1.148  1.4827 -1.6667  0.2408
32522SOL    HW2 3530   6.891   9.485   1.064  0.8966  1.6840 -0.4897
32523SOL     OW 3531   0.878   5.395   1.084 -0.1201 -0.0603  0.4214
32523SOL    HW1 3532   0.904   5.308   1.053 -0.4756 -0.3871  1.0096
32523SOL    HW2 3533   0.802   5.378   1.140 -1.6762  0.8754 -1.3109
32524SOL     OW 3534   3.304   2.557   6.169 -0.1671 -0.4792  0.0961
32524SOL    HW1 3535   3.353   2.559   6.086 -0.2563  0.3724  0.0517
32524SOL    HW2 3536   3.237   2.491   6.156  1.3356 -2.1181  0.3770
32525SOL     OW 3537   6.739   1.702  11.775  0.0539  0.6264  0.3902
32525SOL    HW1 3538   6.810   1.761  11.800 -0.4979  1.2211  0.5745
32525SOL    HW2 3539   6.769   1.616  11.801  0.7539  0.8576  0.3709
32526SOL     OW 3540   0.627   2.871   6.226 -0.1123  0.1705 -0.0180
32526SOL    HW1 3541   0.582   2.904   6.148 -2.8342  1.0126  1.7805
32526SOL    HW2 3542   0.562   2.816   6.270  1.6533 -1.0276  1.2560
32527SOL     OW 3543  10.787  12.215   3.077 -0.4063  0.5663  0.4182
32527SOL    HW1 3544  10.805  12.198   3.169  0.9263 -0.0053  0.0635
32527SOL    HW2 3545  10.729  12.292   3.079  1.0943  1.7534  1.6821
32528SOL     OW 3546   2.338  12.216   4.506 -0.5343  0.2965  0.2054
32528SOL    HW1 3547   2.430  12.236   4.524 -0.7924  2.3476 -0.5739
32528SOL    HW2 3548   2.342  12.137   4.452  0.7359  0.2249  0.3535
32529SOL     OW 3549  10.722   7.044  10.899  0.1822  0.3560 -0.3168
32529SOL    HW1 3550  10.782   7.094  10.955 -2.0910  1.3991  1.3805
32529SOL    HW2 3551  10.739   6.953  10.922  1.2074  0.5992 -0.0218
32530SOL     OW 3552   3.283  10.283   9.032 -0.3476 -0.4434 -0.1127
32530SOL    HW1 3553   3.269  10.308   9.124  1.2065 -1.7631  0.5435
32530SOL    HW2 3554   3.200  10.243   9.006 -1.4559  1.6172  0.0767
32531SOL     OW 3555  10.993  11.484  11.895  0.1126  0.3695  0.0740
32531SOL    HW1 3556  10.995  11.580  11.891  0.4989  0.4296  1.3929
32531SOL    HW2 3557  10.935  11.464  11.968  0.6589 -0.3891  0.3089
32532SOL     OW 3558   9.966   3.438   8.121 -0.1584 -0.6553  0.6100
32532SOL    HW1 3559  10.048   3.440   8.071 -0.2857  0.1072  0.4263
32532SOL    HW2 3560   9.987   3.483   8.203 -0.9090  1.4004 -0.2592
32533SOL     OW 3561   0.917  10.076   3.958  0.2994  0.3989  0.6057
32533SOL    HW1 3562   0.876  10.017   4.021  0.6351  1.1269  1.5438
32533SOL    HW2 3563   0.844  10.123   3.918  0.1023  0.2572  0.7997
32534SOL     OW 3564  11.371   8.403  11.354  0.0802  0.3823 -0.2726
32534SOL    HW1 3565  11.435   8.336  11.331 -0.5603 -0.8986  1.5305
32534SOL    HW2 3566  11.414   8.455  11.422 -0.1640  0.6016 -0.2819
32535SOL     OW 3567  11.695   0.057   3.712 -0.1691  0.0936 -0.1217
32535SOL    HW1 3568  11.754   0.129   3.736 -0.9426  0.4457  0.7621
32535SOL    HW2 3569  11.689   0.063   3.616 -0.0356  1.0543 -0.0829
32536SOL     OW 3570   2.453   9.796  11.826  0.2363 -0.6988  0.1141
32536SOL    HW1 3571   2.465   9.736  11.900 -5.7524 -0.8239  1.4732
32536SOL    HW2 3572   2.399   9.866  11.861 -1.8843 -0.1097 -3.7975
32537SOL     OW 3573   8.175   4.813  10.810  0.0096  0.0524 -0.1434
32537SOL    HW1 3574   8.114   4.747  10.778 -1.4544  0.9930  0.5427
32537SOL    HW2 3575   8.140   4.896  10.776  0.7279  0.6443  0.5147
32538SOL     OW 3576   4.417   0.521   8.391  0.0610  0.3587 -0.3609
32538SOL    HW1 3577   4.348   0.457   8.409 -1.3876  1.6378 -1.0985
32538SOL    HW2 3578   4.427   0.569   8.473 -2.1805  2.1691 -1.0345
32539SOL     OW 3579   4.274   8.083  12.427 -0.1565  0.5538 -0.4945
32539SOL    HW1 3580   4.312   7.996  12.422 -0.5240  0.4192 -1.0975
32539SOL    HW2 3581   4.325   8.128  12.494 -2.5608 -1.4171  2.9713
32540SOL     OW 3582   8.470   5.990   1.450  0.0079 -0.1938 -0.2607
32540SOL    HW1 3583   8.473   6.007   1.545  3.0329 -1.5211 -0.0132
32540SOL    HW2 3584   8.435   5.901   1.443 -1.5661  0.4171 -0.5410
32541SOL     OW 3585   2.557   9.535   4.172 -0.4624 -0.5914 -0.0326
32541SOL    HW1 3586   2.568   9.441   4.182 -1.6407 -0.7391 -0.0314
32541SOL    HW2 3587   2.471   9.554   4.209 -0.0991  0.5406  0.2883
32542SOL     OW 3588  11.723   2.786   5.026 -0.1258  0.6310  0.0216
32542SOL    HW1 3589  11.702   2.870   5.068  2.2281  0.4204  1.7799
32542SOL    HW2 3590  11.690   2.796   4.937  0.5967  3.6725 -0.0204
32543SOL     OW 3591   0.262  10.485   9.200  0.1911 -0.1640  0.1773
32543SOL    HW1 3592   0.183  10.538   9.196  0.0805 -0.4164 -1.4090
32543SOL    HW2 3593   0.292  10.494   9.291 -0.1451  2.1141  0.1235
32544SOL     OW 3594   4.021   8.249   3.916 -0.0967  0.2203  0.9025
32544SOL    HW1 3595   3.992   8.211   3.833  0.2681  0.9273  0.4373
32544SOL    HW2 3596   4.114   8.226   3.922  0.5642  2.2965 -0.1722
32545SOL     OW 3597  11.350   7.412   2.800  0.1459 -0.0108  0.7470
32545SOL    HW1 3598  11.259   7.411   2.770  0.3753  0.5537  0.0199
32545SOL    HW2 3599  11.343   7.424   2.895 -0.5679 -1.3417  0.8901
32546SOL     OW 3600   8.401   9.521  12.029  0.0120 -0.0027 -0.1566
32546SOL    HW1 3601   8.355   9.540  11.947 -1.3163  0.3669  0.6312
32546SOL    HW2 3602   8.482   9.571  12.024  0.3643 -0.6602 -1.5957
32547SOL     OW 3603  10.501   1.749  11.547 -0.6575 -0.2704 -0.4503
32547SOL    HW1 3604  10.494   1.724  11.639  0.9700  0.3744 -0.1209
32547SOL    HW2 3605  10.437   1.819  11.536  1.0479  1.6480  0.9725
32548SOL     OW 3606   6.114   8.023   0.757  0.8953 -0.4443  0.5670
32548SOL    HW1 3607   6.100   8.026   0.852 -0.1664  0.9074  0.3974
32548SOL    HW2 3608   6.145   7.934   0.740 -0.8670 -1.3886  1.9406
32549SOL     OW 3609   4.209   5.763   4.042  0.2445  0.1218  0.8290
32549SOL    HW1 3610   4.193   5.802   4.128 -1.4191 -1.5416  1.3636
32549SOL    HW2 3611   4.221   5.670   4.060  2.1179  0.0343 -0.5657
32550SOL     OW 3612   3.783   3.147   6.768  0.8087  0.0601 -0.3349
32550SOL    HW1 3613   3.836   3.191   6.703  1.1062  0.8576  0.4301
32550SOL    HW2 3614   3.834   3.153   6.849  1.3962 -2.6646 -0.4106
32551SOL     OW 3615  11.957   6.726   3.560  0.0566 -0.0654  0.0687
32551SOL    HW1 3616  11.962   6.754   3.651 -1.1017 -1.4515  0.6043
32551SOL    HW2 3617  11.909   6.795   3.515 -0.5632  0.0019  0.8143
32552SOL     OW 3618   4.487   2.950   6.285 -0.1907  0.3326  0.4565
32552SOL    HW1 3619   4.408   2.915   6.325 -0.0874  2.4950  2.7706
32552SOL    HW2 3620   4.486   3.044   6.307  1.4988  1.0540 -2.0580
32553SOL     OW 3621   1.947   7.618   4.740  0.7795 -0.2733  0.0921
32553SOL    HW1 3622   1.981   7.529   4.754  0.0987 -0.6823 -0.7667
32553SOL    HW2 3623   2.023   7.668   4.709  0.5750 -1.2652 -2.1774
32554SOL     OW 3624   7.205   3.987   2.393 -0.0636  0.0780 -0.0555
32554SOL    HW1 3625   7.290   4.021   2.362  0.5792 -1.7431 -0.4072
32554SOL    HW2 3626   7.179   3.924   2.326 -0.3468 -1.3764  1.3708
32555SOL     OW 3627   3.539   0.845   2.626 -0.2849  0.1015  0.0602
32555SOL    HW1 3628   3.624   0.856   2.667 -0.6037 -0.1846  0.8245
32555SOL    HW2 3629   3.554   0.863   2.533  0.9854 -1.6666 -0.1342
32556SOL     OW 3630   5.270   2.180   1.863 -0.1959  0.2082 -0.0206
32556SOL    HW1 3631   5.291   2.087   1.879 -0.0211  0.2853  0.2113
32556SOL    HW2 3632   5.181   2.190   1.898 -0.3772  0.0322 -0.4205
32557SOL     OW 3633   9.808   3.411   0.053 -0.1047 -0.5239 -0.0454
32557SOL    HW1 3634   9.724   3.400   0.009  0.2715  1.1781 -1.3073
32557SOL    HW2 3635   9.869   3.359   0.001  0.0588  0.2801 -0.6870
32558SOL     OW 3636   8.202  10.874   1.272  0.3800  0.3738  0.1374
32558SOL    HW1 3637   8.143  10.801   1.290  1.0360 -0.3749 -0.6489
32558SOL    HW2 3638   8.179  10.902   1.183 -0.7499  2.0107  0.8947
32559SOL     OW 3639   3.157   2.103   9.364  0.0001 -0.1916  0.6396
32559SOL    HW1 3640   3.241   2.148   9.375  1.2334 -2.8407  2.9985
32559SOL    HW2 3641   3.167   2.052   9.284  0.2003  0.3123  0.3369
32560SOL     OW 3642  11.759  11.773  10.651  0.4094  0.2004 -0.0722
32560SOL    HW1 3643  11.816  11.706  10.688  0.3795  0.3443  0.2396
32560SOL    HW2 3644  11.715  11.730  10.578  0.2389 -0.1786  0.2476
32561SOL     OW 3645   6.756  11.646   7.509  0.5614  0.0231 -0.3100
32561SOL    HW1 3646   6.815  11.711   7.549  1.1445 -0.5320 -0.2618
32561SOL    HW2 3647   6.668  11.676   7.534  0.6547  2.0199 -2.0615
32562SOL     OW 3648   3.937  11.577   6.671 -0.8515  1.0137 -0.2390
32562SOL    HW1 3649   3.954  11.495   6.716  0.6734  1.5038  0.1250
32562SOL    HW2 3650   4.023  11.619   6.662 -1.1899  1.3363 -2.8788
32563SOL     OW 3651   5.581   2.775   3.361  0.3770  0.4114  0.2229
32563SOL    HW1 3652   5.525   2.794   3.286  1.4797  1.3678 -0.3898
32563SOL    HW2 3653   5.666   2.754   3.323  0.3961 -1.3480  1.1199
32564SOL     OW 3654   8.573   0.904  11.809 -0.2634  0.2833  0.3555
32564SOL    HW1 3655   8.632   0.946  11.871  0.3378 -1.5158  1.0436
32564SOL    HW2 3656   8.490   0.897  11.856  0.1827 -1.0503  0.9891
32565SOL     OW 3657   2.043  10.454  11.736  0.0903 -0.3655  0.1138
32565SOL    HW1 3658   1.983  10.493  11.800 -0.2634 -0.9040  0.1223
32565SOL    HW2 3659   2.001  10.371  11.712 -0.0542  0.0806 -1.2408
32566SOL     OW 3660   2.365   3.183  11.401  0.2177 -0.3178 -0.1574
32566SOL    HW1 3661   2.270   3.183  11.396  0.2925 -0.3830 -2.5749
32566SOL    HW2 3662   2.391   3.094  11.376  0.9345 -0.0663 -0.3529
32567SOL     OW 3663   3.248  11.758  10.709  0.1302  0.1769 -0.2151
32567SOL    HW1 3664   3.261  11.690  10.775 -0.5010  1.0022  0.7880
32567SOL    HW2 3665   3.324  11.751  10.652  1.5504  0.4910  1.5435
32568SOL     OW 3666   3.552   4.175  11.189  0.0115 -0.9147 -0.0226
32568SOL    HW1 3667   3.501   4.153  11.267 -0.4878  1.1356  0.3014
32568SOL    HW2 3668   3.623   4.229  11.221 -1.5858  2.1085 -1.1118
32569SOL     OW 3669   7.994   7.848   1.719  0.2200 -0.2678  0.2567
32569SOL    HW1 3670   7.983   7.768   1.668 -1.4457  0.5800 -0.8173
32569SOL    HW2 3671   8.080   7.880   1.694  0.2308 -0.8876 -0.5531
32570SOL     OW 3672   9.773   9.345   6.379  0.1600  0.2664 -0.0709
32570SOL    HW1 3673   9.811   9.258   6.368 -0.6664 -0.4426  2.1597
32570SOL    HW2 3674   9.829   9.387   6.445 -0.5106  0.7264  0.2093
32571SOL     OW 3675   9.441   0.496   7.502  0.2275  0.4057  0.0320
32571SOL    HW1 3676   9.524   0.540   7.521 -1.2201  2.2880  2.5031
32571SOL    HW2 3677   9.391   0.561   7.451  0.2034 -0.6993 -1.4132
32572SOL     OW 3678  11.405   1.187   0.037  0.4385  0.9260 -0.7606
32572SOL    HW1 3679  11.430   1.238   0.114  0.7294  1.1936 -1.0253
32572SOL    HW2 3680  11.484   1.137   0.016  0.0683  0.1626 -0.3438
32573SOL     OW 3681   5.840   2.113   8.140 -0.4148  0.3212 -0.3409
32573SOL    HW1 3682   5.912   2.077   8.087 -1.6814  1.7476 -3.2189
32573SOL    HW2 3683   5.792   2.036   8.170  0.2163 -0.5458 -1.4824
32574SOL     OW 3684  10.758   1.813   8.262  0.7413 -0.0544 -0.1870
32574SOL    HW1 3685  10.783   1.726   8.230  0.6567 -0.0195 -0.3515
32574SOL    HW2 3686  10.808   1.873   8.207  0.1878  0.0206 -0.6205
32575SOL     OW 3687   4.722   9.836  12.302  0.1022 -0.2125  0.0321
32575SOL    HW1 3688   4.673   9.758  12.328 -0.3222  0.1702  0.3744
32575SOL    HW2 3689   4.809   9.802  12.278  0.2738 -0.6605  1.2276
32576SOL     OW 3690   6.239   8.605   8.590 -0.2488 -0.2541 -0.6759
32576SOL    HW1 3691   6.322   8.611   8.542 -0.9269 -0.6763 -1.9578
32576SOL    HW2 3692   6.255   8.652   8.671  0.6721  1.3126 -1.7058
32577SOL     OW 3693   2.415  10.180   5.918 -0.7002  0.4117 -0.7145
32577SOL    HW1 3694   2.410  10.084   5.923 -0.7865  0.4443 -0.1037
32577SOL    HW2 3695   2.335  10.210   5.961 -1.2983  0.7488 -2.0019
32578SOL     OW 3696  11.630   7.962   8.618  0.0882 -0.1010  0.1537
32578SOL    HW1 3697  11.585   7.983   8.536  1.2113  1.0468 -0.2131
32578SOL    HW2 3698  11.719   7.940   8.591  0.2028 -0.6975  0.9868
32579SOL     OW 3699   5.665   9.878   1.748 -0.4138 -0.2468 -0.3281
32579SOL    HW1 3700   5.638   9.814   1.814  1.0960  0.3963  0.9648
32579SOL    HW2 3701   5.761   9.878   1.751 -0.2812 -0.0848 -2.4509
32580SOL     OW 3702   5.775  11.803   3.513  0.5860  0.1142 -0.4757
32580SOL    HW1 3703   5.826  11.836   3.440  0.4638  2.4400  0.4238
32580SOL    HW2 3704   5.840  11.779   3.579  0.6167 -0.0670 -0.5700
32581SOL     OW 3705   9.893  11.271   4.992 -0.1197 -0.1783 -0.1815
32581SOL    HW1 3706   9.878  11.350   5.045  0.5064  0.5014 -0.9843
32581SOL    HW2 3707   9.891  11.199   5.056 -1.8387  0.3368  0.4133
32582SOL     OW 3708  10.493  10.356  10.016 -0.5357  0.6878 -0.2932
32582SOL    HW1 3709  10.435  10.302   9.963  1.9642 -0.4153 -2.1591
32582SOL    HW2 3710  10.541  10.293  10.071  0.5443  1.2524 -0.5472
32583SOL     OW 3711   5.343   3.833   0.189 -0.3399 -0.2242 -0.1890
32583SOL    HW1 3712   5.430   3.801   0.166  0.2921  0.5191  1.0828
32583SOL    HW2 3713   5.358   3.896   0.259 -2.1360 -2.7949  2.7789
32584SOL     OW 3714   2.993   7.095   9.883  0.5226 -0.3666  0.1478
32584SOL    HW1 3715   3.052   7.047   9.825  0.1698  0.9632 -1.4169
32584SOL    HW2 3716   2.911   7.102   9.833  0.5404  1.7426  0.3206
32585SOL     OW 3717   9.985   3.506  10.965  0.6312  0.0194  0.0354
32585SOL    HW1 3718  10.036   3.543  11.037 -1.2831  1.4035  0.7559
32585SOL    HW2 3719  10.027   3.542  10.886  2.0195 -0.5640  0.4808
32586SOL     OW 3720   5.893   5.641   9.705  0.3277 -0.1736 -0.4587
32586SOL    HW1 3721   5.912   5.548   9.696  0.9669 -0.2754  1.4642
32586SOL    HW2 3722   5.975   5.685   9.679  0.5109 -0.2229  0.0311
32587SOL     OW 3723   0.501   3.816   5.203 -0.0008  0.5199 -0.2445
32587SOL    HW1 3724   0.476   3.873   5.131  2.0132  0.8300 -0.7477
32587SOL    HW2 3725   0.557   3.870   5.259  1.1561 -0.6488 -0.2243
32588SOL     OW 3726   8.893   2.540   7.247 -0.2168 -0.2312  0.3065
32588SOL    HW1 3727   8.930   2.621   7.284  0.4805  0.2611 -1.3969
32588SOL    HW2 3728   8.799   2.548   7.263 -0.1836  1.0120  0.0334
32589SOL     OW 3729   6.035   1.440  11.083  0.1518 -0.2233 -0.2742
32589SOL    HW1 3730   6.089   1.375  11.128 -0.8606 -0.4419  0.6485
32589SOL    HW2 3731   6.024   1.511  11.147  1.9881  1.3508 -1.5497
32590SOL     OW 3732   2.107   6.800   0.791 -0.2313 -0.4045 -0.1832
32590SOL    HW1 3733   2.020   6.819   0.826 -0.6597  1.1068 -1.9156
32590SOL    HW2 3734   2.162   6.792   0.868 -2.1083 -2.8049  1.0426
32591SOL     OW 3735   0.882   1.962   0.629 -0.4268  0.6293  0.2731
32591SOL    HW1 3736   0.813   1.959   0.563  0.1474 -2.8114 -0.3594
32591SOL    HW2 3737   0.835   1.960   0.712 -1.2080 -1.7825 -0.1398
32592SOL     OW 3738  10.320  11.269   0.982 -0.0852 -0.1392 -0.4104
32592SOL    HW1 3739  10.353  11.182   1.003  1.3802  0.2096 -1.1153
32592SOL    HW2 3740  10.398  11.325   0.985 -0.7945  0.9157 -1.1702
32593SOL     OW 3741   4.785   8.105   7.267 -0.1924 -0.4795 -0.3052
32593SOL    HW1 3742   4.719   8.038   7.287 -1.8336  1.6561  2.1886
32593SOL    HW2 3743   4.852   8.094   7.335 -0.9355  0.8515  0.7086
32594SOL     OW 3744   3.740   9.418   9.625 -0.2887 -0.1536 -0.1206
32594SOL    HW1 3745   3.813   9.359   9.603  0.4890  0.2989  1.1073
32594SOL    HW2 3746   3.692   9.372   9.693 -0.9154 -0.2680 -0.6373
32595SOL     OW 3747   7.499   9.756   2.804  0.0159 -0.9065  0.1229
32595SOL    HW1 3748   7.535   9.784   2.888 -2.0348 -0.2656  0.8635
32595SOL    HW2 3749   7.427   9.817   2.788 -0.6935 -2.0532 -1.2759
32596SOL     OW 3750  11.785   1.868   5.526 -0.0256 -0.0779 -0.8607
32596SOL    HW1 3751  11.835   1.832   5.599  1.3761  0.3399 -1.5587
32596SOL    HW2 3752  11.694   1.864   5.554  0.2755 -1.9834 -0.0090
32597SOL     OW 3753   1.722   0.414   5.044  0.0240 -0.1085 -0.0752
32597SOL    HW1 3754   1.737   0.507   5.030  1.7465 -0.3988 -0.4201
32597SOL    HW2 3755   1.660   0.388   4.976  1.4398  0.3051 -1.5931
32598SOL     OW 3756   5.781   8.949   5.349 -0.1795  0.2532 -0.5137
32598SOL    HW1 3757   5.804   8.934   5.440  0.1708 -1.1401 -0.8087
32598SOL    HW2 3758   5.689   8.976   5.351 -0.1517  0.3131  0.2400
32599SOL     OW 3759   6.241  11.458   1.933 -0.2143 -0.2340  0.4827
32599SOL    HW1 3760   6.205  11.544   1.955 -1.8142 -1.0280  1.0546
32599SOL    HW2 3761   6.298  11.475   1.858  1.1643  1.6616  1.8533
32600SOL     OW 3762  11.342   7.253   3.949  0.0227  0.5097  0.4127
32600SOL    HW1 3763  11.356   7.338   3.990  0.6690  0.1954  0.8534
32600SOL    HW2 3764  11.273   7.269   3.885 -0.6362  1.1170  1.2516
32601SOL     OW 3765   2.605   4.817   9.932  0.0592 -0.1575 -0.2438
32601SOL    HW1 3766   2.594   4.768  10.013  2.3556  0.9152  0.8003
32601SOL    HW2 3767   2.665   4.763   9.880 -0.8785 -0.5156 -0.9893
32602SOL     OW 3768   9.991   4.748   0.846 -0.1240  0.3293  0.2971
32602SOL    HW1 3769   9.946   4.830   0.830 -1.3896 -0.3610  0.2131
32602SOL    HW2 3770   9.952   4.686   0.784 -0.1162 -0.6400  1.2265
32603SOL     OW 3771   4.299   2.938   9.556 -0.0401 -0.0479 -0.0995
32603SOL    HW1 3772   4.311   3.032   9.543  1.1433 -0.0018  1.0045
32603SOL    HW2 3773   4.349   2.897   9.485 -1.9668  0.1075 -1.6200
32604SOL     OW 3774   4.787   4.644   6.799  0.5151  0.2335  0.1766
32604SOL    HW1 3775   4.705   4.644   6.750  0.6720 -0.5029 -0.0982
32604SOL    HW2 3776   4.831   4.724   6.771 -0.9131  1.6434  1.7341
32605SOL     OW 3777   6.674   3.524   2.938 -0.2018  0.6307 -0.0534
32605SOL    HW1 3778   6.660   3.496   3.028 -0.4093  0.5157 -0.1201
32605SOL    HW2 3779   6.684   3.443   2.888 -0.3416  0.6848 -0.1726
32606SOL     OW 3780  11.859   9.222   4.328  0.0735 -0.2392 -0.1286
32606SOL    HW1 3781  11.876   9.137   4.287  0.0619 -0.1655 -0.2856
32606SOL    HW2 3782  11.798   9.266   4.269  0.7834  0.2502 -0.5113
32607SOL     OW 3783   6.701   9.642   4.913 -0.6438  0.2040  0.5239
32607SOL    HW1 3784   6.687   9.700   4.987 -0.9063  1.7353 -0.6725
32607SOL    HW2 3785   6.618   9.641   4.866  0.6785  2.9915 -2.2351
32608SOL     OW 3786   1.693   4.097   0.643  0.3698 -0.2993 -0.1301
32608SOL    HW1 3787   1.601   4.079   0.663  1.0221 -2.2728  1.3433
32608SOL    HW2 3788   1.718   4.167   0.703  1.2132 -3.4584  3.5481
32609SOL     OW 3789   1.587  12.316  10.214 -0.7554  0.0860  0.1419
32609SOL    HW1 3790   1.582  12.237  10.267  0.0514  0.1522  0.3391
32609SOL    HW2 3791   1.614  12.285  10.127 -1.3436  0.0537 -0.0324
32610SOL     OW 3792   6.316   6.282   4.198 -0.1631 -0.3486  0.3402
32610SOL    HW1 3793   6.270   6.319   4.273 -1.0782  0.0180 -0.3869
32610SOL    HW2 3794   6.275   6.196   4.184  1.7438 -1.6072  1.8313
32611SOL     OW 3795   2.562   7.224   0.058  0.0735 -0.4347  0.3474
32611SOL    HW1 3796   2.478   7.178   0.059  0.1828 -0.6825 -0.6462
32611SOL    HW2 3797   2.627   7.154   0.058  0.2926 -0.2442  1.0528
32612SOL     OW 3798  12.029   3.449  11.309 -0.1742  0.7262  0.0151
32612SOL    HW1 3799  12.020   3.429  11.215  1.6795 -2.9533  0.4392
32612SOL    HW2 3800  11.946   3.419  11.347 -0.1780  0.4196 -0.2274
32613SOL     OW 3801   0.844   1.385   1.532  0.4204 -0.3974  0.3607
32613SOL    HW1 3802   0.886   1.353   1.612  2.2086 -0.8832 -0.7086
32613SOL    HW2 3803   0.777   1.320   1.513 -1.5530  0.8370  2.5793
32614SOL     OW 3804   8.175   1.606   2.648 -0.1423 -0.0407  0.2972
32614SOL    HW1 3805   8.231   1.536   2.613 -0.9904 -1.1472  1.0901
32614SOL    HW2 3806   8.132   1.643   2.570  1.4593  0.6584 -0.2950
32615SOL     OW 3807   5.151  11.092   1.250 -0.6787 -0.4562 -0.6428
32615SOL    HW1 3808   5.214  11.157   1.217  1.0594 -1.9893 -0.4755
32615SOL    HW2 3809   5.199  11.045   1.318 -2.7771 -0.2271  1.0808
32616SOL     OW 3810   9.115   7.830  10.966  0.1364  0.1203 -0.0200
32616SOL    HW1 3811   9.036   7.851  11.016  0.0881 -2.4626  1.1469
32616SOL    HW2 3812   9.085   7.768  10.900  1.2187 -1.2847  0.7580
32617SOL     OW 3813   3.288  10.058   3.419  0.2162  0.4040 -0.2440
32617SOL    HW1 3814   3.311  10.147   3.395  0.8199  0.2286 -0.3477
32617SOL    HW2 3815   3.271  10.014   3.335 -1.5994  0.8001 -0.1255
32618SOL     OW 3816  10.114  11.839   2.010  0.1934 -0.0051 -0.3844
32618SOL    HW1 3817  10.052  11.849   1.938  1.5055 -0.3940 -1.6209
32618SOL    HW2 3818  10.098  11.750   2.043 -1.7881  0.8773  1.1959
32619SOL     OW 3819  11.070   9.233   9.798  0.0914  0.7142  0.5087
32619SOL    HW1 3820  11.014   9.211   9.872  0.3329  0.5442  0.6410
32619SOL    HW2 3821  11.152   9.186   9.815  0.2825  0.9769  0.3290
32620SOL     OW 3822   2.609   3.756   5.910  0.6137 -0.0161 -0.4344
32620SOL    HW1 3823   2.597   3.718   5.997 -1.6718  0.7066 -0.3614
32620SOL    HW2 3824   2.570   3.692   5.850 -1.2976  1.1667 -0.5134
32621SOL     OW 3825  10.431   5.821   0.373  0.2502  0.0359 -0.0419
32621SOL    HW1 3826  10.463   5.748   0.320  1.4619  0.7264 -0.2873
32621SOL    HW2 3827  10.434   5.897   0.315  0.7059  0.6245  0.7259
32622SOL     OW 3828   2.965   5.393   4.519  0.1447 -0.1238 -0.1237
32622SOL    HW1 3829   2.924   5.315   4.481  0.1837 -0.4122  0.4224
32622SOL    HW2 3830   2.960   5.380   4.614  0.0489  0.5942 -0.0257
32623SOL     OW 3831   0.558  10.083  12.028 -0.5940  0.1252 -0.2955
32623SOL    HW1 3832   0.597  10.004  11.989 -2.8500 -1.5231  0.5946
32623SOL    HW2 3833   0.544  10.060  12.119 -1.3776  1.5644 -0.0245
32624SOL     OW 3834  12.423   9.241   4.646  0.3636  0.2420 -0.0696
32624SOL    HW1 3835  12.517   9.253   4.660  0.4153 -0.9523  0.8363
32624SOL    HW2 3836  12.416   9.204   4.558  0.8725 -0.8719  0.3407
32625SOL     OW 3837   7.884   4.252   5.505  0.2443 -0.3820 -0.4880
32625SOL    HW1 3838   7.965   4.301   5.522 -0.5409  0.2434  1.8915
32625SOL    HW2 3839   7.857   4.221   5.592 -1.6329 -1.2797 -1.3530
32626SOL     OW 3840  11.919   8.729   8.049 -0.0592 -0.3003  0.1675
32626SOL    HW1 3841  11.867   8.791   8.101  0.6692 -1.3176  2.2086
32626SOL    HW2 3842  12.001   8.776   8.032  0.1317 -0.3352  0.9239
32627SOL     OW 3843   8.960   4.783   6.542  0.4749 -0.2036 -0.1689
32627SOL    HW1 3844   8.902   4.733   6.600  2.2148 -3.4746 -1.0609
32627SOL    HW2 3845   8.915   4.781   6.457  0.9267 -1.0143 -0.3963
32628SOL     OW 3846   8.360   2.104  10.279 -0.0938  0.1874  0.2801
32628SOL    HW1 3847   8.344   2.045  10.352 -0.5763  1.2021  1.0162
32628SOL    HW2 3848   8.450   2.133  10.291  0.1855 -0.4628 -0.1515
32629SOL     OW 3849  11.120   4.990   9.606  0.1656  0.2265  0.4825
32629SOL    HW1 3850  11.166   4.907   9.592 -2.0451 -0.9110 -0.5300
32629SOL    HW2 3851  11.187   5.057   9.593  2.1179 -1.3639  1.7566
32630SOL     OW 3852   6.715   9.628   0.358 -0.0013 -0.2515 -0.0805
32630SOL    HW1 3853   6.635   9.608   0.310 -0.0587 -0.0016 -0.0868
32630SOL    HW2 3854   6.762   9.544   0.361 -0.2174 -0.3767 -0.1570
32631SOL     OW 3855   5.533   9.889   3.020  0.3242  0.1508  0.5048
32631SOL    HW1 3856   5.609   9.849   3.063  0.8517 -1.5142 -1.7929
32631SOL    HW2 3857   5.460   9.873   3.080  1.2767 -0.6681  1.4834
32632SOL     OW 3858   2.337   4.024   9.986  0.9209  0.0828  0.3816
32632SOL    HW1 3859   2.401   4.087  10.020 -1.0655  1.7665  1.1723
32632SOL    HW2 3860   2.268   4.020  10.052 -0.9361  0.1226 -1.4475
32633SOL     OW 3861   3.866  11.945  12.029  0.0384  0.1721  0.7461
32633SOL    HW1 3862   3.889  12.034  12.001  0.4973 -0.2165 -0.1633
32633SOL    HW2 3863   3.807  11.958  12.103  1.9748  1.2422  2.2242
32634SOL     OW 3864  10.166  11.450   1.418  0.1600  0.3299  0.3782
32634SOL    HW1 3865  10.133  11.427   1.505  0.6418 -0.9734  0.2469
32634SOL    HW2 3866  10.170  11.545   1.418 -2.9381  0.5469  0.6418
32635SOL     OW 3867   5.606   2.956   2.634  0.2218 -0.3277  0.2529
32635SOL    HW1 3868   5.578   2.960   2.726  0.3425 -1.0607  0.3301
32635SOL    HW2 3869   5.526   2.942   2.584  0.2367 -0.6452  0.3147
32636SOL     OW 3870   9.429   6.500   4.663 -0.2677  0.0938 -0.5477
32636SOL    HW1 3871   9.486   6.534   4.594  1.7262 -2.4864 -0.3027
32636SOL    HW2 3872   9.379   6.430   4.621 -2.3491  1.3704 -0.3826
32637SOL     OW 3873   0.130  10.655   1.019  0.1930 -0.0570  0.5736
32637SOL    HW1 3874   0.205  10.613   0.976 -0.2071 -0.8915  0.6696
32637SOL    HW2 3875   0.130  10.744   0.985  0.7283 -0.2923 -0.0753
32638SOL     OW 3876   9.675   3.224   6.942  0.1552  0.3908 -0.4063
32638SOL    HW1 3877   9.658   3.242   6.850  0.5583  0.0428 -0.5504
32638SOL    HW2 3878   9.700   3.308   6.979 -1.3143  0.8045 -0.3153
32639SOL     OW 3879  12.380   9.970   9.631 -0.0219  0.5070  0.4776
32639SOL    HW1 3880  12.326   9.896   9.658  0.0482  0.6669  1.0612
32639SOL    HW2 3881  12.466   9.932   9.612 -0.1635  0.3466  0.1443
32640SOL     OW 3882   2.068   1.509   6.167 -0.1218 -0.9141  0.4685
32640SOL    HW1 3883   1.986   1.476   6.204 -1.2612  1.0863 -0.1214
32640SOL    HW2 3884   2.041   1.560   6.091  1.6550  0.1117  0.4717
32641SOL     OW 3885   9.274   5.463  11.505 -0.1712  0.5023 -0.5945
32641SOL    HW1 3886   9.322   5.381  11.514 -1.3559 -0.0980  0.6397
32641SOL    HW2 3887   9.298   5.513  11.583  0.9261  1.5737 -1.5791
32642SOL     OW 3888   5.408   6.674   5.434 -0.2577  0.2302 -0.0835
32642SOL    HW1 3889   5.401   6.759   5.391 -1.2364 -0.2578 -0.9552
32642SOL    HW2 3890   5.487   6.635   5.398  1.3363  1.5408  1.8194
32643SOL     OW 3891   7.942   2.543   0.558 -0.0674  0.1760  0.1774
32643SOL    HW1 3892   7.941   2.638   0.552 -0.8722  0.2636  1.3627
32643SOL    HW2 3893   7.856   2.520   0.594 -0.4114 -1.1024 -1.3465
32644SOL     OW 3894   0.697  10.330   5.252  0.6630  0.7799  0.1463
32644SOL    HW1 3895   0.612  10.351   5.215  0.8584  1.8337  0.2701
32644SOL    HW2 3896   0.688  10.241   5.285 -1.7907  2.2808  4.1722
32645SOL     OW 3897  10.242   9.765  10.653 -0.0090 -0.1653 -0.0632
32645SOL    HW1 3898  10.198   9.816  10.584 -0.7293 -0.9081 -0.1671
32645SOL    HW2 3899  10.192   9.785  10.733 -0.2527 -0.6496 -0.0921
32646SOL     OW 3900   6.940   3.042   5.927  0.2043 -0.0652  0.0924
32646SOL    HW1 3901   6.951   2.999   5.842 -1.2098 -1.8866  0.7526
32646SOL    HW2 3902   6.889   2.980   5.979 -2.7944  2.7486  0.8792
32647SOL     OW 3903   7.229  11.762   3.329 -0.4895  0.2791 -0.2534
32647SOL    HW1 3904   7.278  11.725   3.255 -0.3920  0.0904 -0.0958
32647SOL    HW2 3905   7.143  11.720   3.324 -0.3302 -0.0882  0.0142
32648SOL     OW 3906  11.908   5.080   6.530  0.4078 -0.3965  0.4540
32648SOL    HW1 3907  11.860   5.066   6.612 -1.5628 -0.1486 -0.5853
32648SOL    HW2 3908  11.941   4.994   6.507  1.7935 -0.3044  1.9517
32649SOL     OW 3909   4.879   0.859   4.668  0.0661  0.7902  0.2268
32649SOL    HW1 3910   4.951   0.796   4.672 -1.4414 -1.0151  0.4041
32649SOL    HW2 3911   4.880   0.891   4.577 -0.9433 -1.8150 -0.7857
32650SOL     OW 3912   5.050  10.577   1.100 -0.0935 -0.7034 -0.4566
32650SOL    HW1 3913   5.102  10.656   1.112 -0.5790 -0.3019 -0.9222
32650SOL    HW2 3914   4.960  10.605   1.120 -0.1817 -1.2873 -0.0317
32651SOL     OW 3915  12.364   8.709   2.512 -0.7760  0.9401 -0.5817
32651SOL    HW1 3916  12.286   8.662   2.541  0.2031 -1.1687 -1.1822
32651SOL    HW2 3917  12.331   8.786   2.466 -2.4372  1.2013  0.9400
32652SOL     OW 3918   8.726   9.518   1.176  0.3534 -0.6084  0.0485
32652SOL    HW1 3919   8.653   9.535   1.236  0.9363  0.5859  0.4431
32652SOL    HW2 3920   8.737   9.599   1.127  0.9684 -1.0193 -0.5190
32653SOL     OW 3921   5.607   8.113   2.688  0.1310 -0.6796  0.2901
32653SOL    HW1 3922   5.608   8.195   2.639  0.0296 -1.1981 -0.6214
32653SOL    HW2 3923   5.593   8.138   2.779 -2.1891  0.1734 -0.2497
32654SOL     OW 3924   6.978   4.424  12.373  0.5430  0.2826  0.3668
32654SOL    HW1 3925   6.889   4.435  12.407  0.4545  1.3713 -0.1762
32654SOL    HW2 3926   6.965   4.389  12.285  0.6431  0.6729  0.1973
32655SOL     OW 3927   7.833  10.734   7.510 -0.0019 -0.4959  0.1996
32655SOL    HW1 3928   7.917  10.731   7.466 -0.1072  0.3946 -0.0892
32655SOL    HW2 3929   7.822  10.647   7.549  0.7224 -0.8376 -0.3538
32656SOL     OW 3930   3.661   4.906   4.576 -0.3127 -0.6529  0.5196
32656SOL    HW1 3931   3.641   4.958   4.654 -0.3083  0.4984 -0.2178
32656SOL    HW2 3932   3.675   4.971   4.507  1.5170 -1.5567 -0.0309
32657SOL     OW 3933   3.177   8.852   0.103  0.0159 -0.5440  0.0603
32657SOL    HW1 3934   3.111   8.801   0.057 -0.3371 -0.5576  0.5706
32657SOL    HW2 3935   3.137   8.871   0.188 -1.5262  3.8915 -1.3682
32658SOL     OW 3936   7.493   3.345   9.516 -0.5816 -0.2885  0.3630
32658SOL    HW1 3937   7.532   3.329   9.602  0.5689  1.3632  0.1918
32658SOL    HW2 3938   7.497   3.440   9.505  0.7480 -0.5493 -2.1543
32659SOL     OW 3939   5.245   3.273   8.706 -0.0318  0.0684  0.1598
32659SOL    HW1 3940   5.260   3.274   8.801  0.1418  2.0639  0.1510
32659SOL    HW2 3941   5.250   3.180   8.682  0.7039 -0.4068  1.9770
32660SOL     OW 3942   0.479   5.543  11.462  0.1983 -0.2295 -0.5147
32660SOL    HW1 3943   0.526   5.531  11.379 -0.2754 -0.7073 -0.7194
32660SOL    HW2 3944   0.425   5.464  11.470  0.4341 -0.3049  0.3804
32661SOL     OW 3945   4.220   0.773  10.670 -0.4362 -0.2719 -0.2582
32661SOL    HW1 3946   4.224   0.737  10.581  1.1635 -0.2661 -0.2102
32661SOL    HW2 3947   4.232   0.867  10.658  0.5925 -0.3581  0.0043
32662SOL     OW 3948   3.657  11.702  11.381  0.8282 -0.4971 -0.3786
32662SOL    HW1 3949   3.658  11.631  11.446  0.3191  0.4248  0.6584
32662SOL    HW2 3950   3.591  11.763  11.413  2.9386  1.7006  0.1220
32663SOL     OW 3951   2.483   4.767  11.850  0.4230 -0.4718  0.5287
32663SOL    HW1 3952   2.559   4.729  11.894  1.8505  2.9732  1.3492
32663SOL    HW2 3953   2.409   4.714  11.881  2.3188 -3.9470 -0.2661
32664SOL     OW 3954  11.043   9.734   7.884 -0.0303 -0.8440 -0.3773
32664SOL    HW1 3955  11.118   9.676   7.871  0.7157 -0.2713  1.0773
32664SOL    HW2 3956  11.048   9.796   7.812  2.9344  1.2198  1.3773
32665SOL     OW 3957   4.944   3.149   8.251  0.5854  0.5375  0.3978
32665SOL    HW1 3958   5.014   3.158   8.186 -0.3881 -1.0475 -0.9355
32665SOL    HW2 3959   4.909   3.061   8.238 -1.9004  1.3841  0.7685
32666SOL     OW 3960   9.690   5.472   3.466 -0.2017 -0.0387 -0.0918
32666SOL    HW1 3961   9.720   5.461   3.375  0.7510  1.4943 -0.0140
32666SOL    HW2 3962   9.744   5.412   3.517 -0.7910 -0.9605 -0.5258
32667SOL     OW 3963   8.053   7.346   8.260  0.3486  0.1077 -0.4552
32667SOL    HW1 3964   7.967   7.382   8.240 -0.5600 -1.5824  0.2594
32667SOL    HW2 3965   8.065   7.361   8.354  1.2209  1.0612 -0.6932
32668SOL     OW 3966  10.380   4.306   3.108  0.5653 -0.2467 -0.3909
32668SOL    HW1 3967  10.289   4.296   3.077  0.4564 -0.2998 -0.0557
32668SOL    HW2 3968  10.421   4.222   3.090  0.2760 -0.5520  0.3524
32669SOL     OW 3969  10.534   8.585  11.029  0.5457  0.2073 -0.2339
32669SOL    HW1 3970  10.540   8.510  10.971  0.2703 -0.2472  0.3197
32669SOL    HW2 3971  10.615   8.634  11.014  0.1128  0.5535 -1.6023
32670SOL     OW 3972   4.046   4.429   2.520 -0.1201  0.0239  0.3093
32670SOL    HW1 3973   4.046   4.488   2.595 -0.7768  1.8653 -1.0761
32670SOL    HW2 3974   4.061   4.486   2.444 -0.8188 -1.5893 -1.1021
32671SOL     OW 3975  12.392   9.781   7.557 -0.7831 -0.2164  0.0800
32671SOL    HW1 3976  12.392   9.792   7.652  2.5006 -0.0795  0.1904
32671SOL    HW2 3977  12.420   9.867   7.523 -0.1435 -0.7738 -0.8501
32672SOL     OW 3978   5.287   2.432   4.461  0.0893 -0.1888 -0.5787
32672SOL    HW1 3979   5.370   2.455   4.502  0.0390  0.4292 -0.8246
32672SOL    HW2 3980   5.288   2.336   4.459  0.5334 -0.2025 -0.0518
32673SOL     OW 3981   5.644   8.574   1.589 -0.5628  0.6304  0.1871
32673SOL    HW1 3982   5.590   8.654   1.590 -1.1843  0.2387 -0.7202
32673SOL    HW2 3983   5.638   8.543   1.499 -1.3576 -1.1472  0.8237
32674SOL     OW 3984   3.987   0.046   1.254 -0.4545 -0.3248 -0.0129
32674SOL    HW1 3985   3.962   0.139   1.255  0.5349 -0.0151 -1.2596
32674SOL    HW2 3986   4.076   0.046   1.218 -0.5618 -1.7880 -0.3283
32675SOL     OW 3987   8.296   3.070   4.360 -0.1093 -0.3048  1.0109
32675SOL    HW1 3988   8.272   3.138   4.296  0.7755 -1.5147 -0.6884
32675SOL    HW2 3989   8.391   3.072   4.363 -0.1306 -0.3684  2.2343
32676SOL     OW 3990   6.997   5.073   1.905 -0.1694 -0.0013 -0.2028
32676SOL    HW1 3991   6.937   5.120   1.848 -0.8148 -0.5674 -0.0097
32676SOL    HW2 3992   6.943   5.042   1.978  0.1775 -1.1850 -0.4105
32677SOL     OW 3993   5.285   8.665   2.634  0.1827  0.0253  0.0640
32677SOL    HW1 3994   5.263   8.576   2.662  0.1135 -0.2686 -0.8978
32677SOL    HW2 3995   5.202   8.702   2.602 -0.3762  1.3605  2.7712
32678SOL     OW 3996  12.225   7.805  11.552  0.2802 -0.6563  0.0776
32678SOL    HW1 3997  12.145   7.854  11.532  0.4029 -0.5089 -0.0537
32678SOL    HW2 3998  12.214   7.722  11.506 -0.3756 -1.1628  1.1096
32679SOL     OW 3999  11.369   6.600   5.990  0.3037  0.9644 -0.0595
32679SOL    HW1 4000  11.453   6.632   5.955 -0.2757 -0.1262 -2.6443
32679SOL    HW2 4001  11.310   6.602   5.916 -0.8414 -2.3135  0.6284
32680SOL     OW 4002   8.226  10.764  11.408 -0.6409  0.7709 -0.0635
32680SOL    HW1 4003   8.160  10.732  11.347 -1.4233  1.4155  0.4369
32680SOL    HW2 4004   8.290  10.692  11.413 -1.4736 -0.0027 -0.2664
32681SOL     OW 4005   7.148   1.858   2.190  0.2987 -0.1192 -0.0681
32681SOL    HW1 4006   7.165   1.806   2.269 -0.3965  0.8468  0.7599
32681SOL    HW2 4007   7.137   1.947   2.224 -1.4772  0.0848 -1.0874
32682SOL     OW 4008   6.331  11.259   6.602  0.2367  0.4066 -0.2666
32682SOL    HW1 4009   6.404  11.220   6.650 -0.1997  0.8171  0.7567
32682SOL    HW2 4010   6.356  11.251   6.510  0.3685 -1.8501 -0.0759
32683SOL     OW 4011  11.638  11.593   6.722 -0.0837  0.4246 -0.6374
32683SOL    HW1 4012  11.688  11.537   6.782 -0.6135  0.1698 -0.4259
32683SOL    HW2 4013  11.593  11.655   6.780 -2.2900 -1.1293 -0.5218
32684SOL     OW 4014  10.104   8.355  11.016 -0.1338  0.5739 -0.1498
32684SOL    HW1 4015  10.031   8.358  10.954  0.2564 -1.4997 -0.7709
32684SOL    HW2 4016  10.136   8.265  11.012  0.0951  0.4155  2.8696
32685SOL     OW 4017   8.678   3.107  10.271  0.4339  0.0310 -0.0214
32685SOL    HW1 4018   8.692   3.065  10.186  0.3824  0.7953 -0.4211
32685SOL    HW2 4019   8.694   3.200  10.254  0.5937  0.1705  0.8493
32686SOL     OW 4020   8.813   9.242   4.560  0.7753  0.0486  0.7587
32686SOL    HW1 4021   8.774   9.276   4.479  2.2275  0.6307  0.2858
32686SOL    HW2 4022   8.795   9.147   4.557  0.2754  0.1558  0.0686
32687SOL     OW 4023   7.422   5.595  10.209  0.2672 -0.5418 -0.1167
32687SOL    HW1 4024   7.497   5.536  10.215  2.0408  1.3190 -2.1011
32687SOL    HW2 4025   7.420   5.640  10.293  0.7281 -1.3257  0.3228
32688SOL     OW 4026   4.399   9.807   0.261  0.0064 -0.5599 -0.0658
32688SOL    HW1 4027   4.482   9.843   0.294 -0.2120  1.2051 -1.3283
32688SOL    HW2 4028   4.355   9.774   0.340  0.0830  2.2798  1.2857
32689SOL     OW 4029   5.757   8.173   4.747 -0.4438  0.2192  1.1379
32689SOL    HW1 4030   5.733   8.136   4.662  1.4162  2.5669 -0.5554
32689SOL    HW2 4031   5.674   8.179   4.795 -1.3966 -2.0646 -0.0780
32690SOL     OW 4032   6.460   2.191   2.328  0.1916  0.3780  0.3211
32690SOL    HW1 4033   6.395   2.195   2.398  1.8698  0.5624  1.9428
32690SOL    HW2 4034   6.494   2.281   2.322  0.3815  0.2620 -0.4244
32691SOL     OW 4035   1.870   5.529  11.410  0.7182  0.0487  0.2659
32691SOL    HW1 4036   1.961   5.524  11.438  0.4610  0.3889  1.1921
32691SOL    HW2 4037   1.819   5.535  11.491 -0.0228  1.3222 -0.2527
32692SOL     OW 4038   1.960  10.465   9.566 -0.1709 -0.3695  0.1969
32692SOL    HW1 4039   1.905  10.539   9.591 -0.1552 -0.5836  0.8968
32692SOL    HW2 4040   2.050  10.495   9.581 -0.1163 -0.2206 -0.3954
32693SOL     OW 4041  12.181   2.867   7.761 -0.2956 -0.0798 -0.0791
32693SOL    HW1 4042  12.137   2.786   7.787 -0.3364 -0.2522 -0.6904
32693SOL    HW2 4043  12.111   2.932   7.757 -0.1228  0.2564  1.4439
32694SOL     OW 4044   9.043   3.627   5.963  0.1735  0.0863 -0.1099
32694SOL    HW1 4045   9.132   3.610   5.992  0.7242 -0.1974 -1.8849
32694SOL    HW2 4046   8.990   3.615   6.042  1.4992 -1.3928  0.6178
32695SOL     OW 4047   0.345   2.148   6.376  0.4814 -0.5600 -0.1498
32695SOL    HW1 4048   0.427   2.174   6.417 -0.2641  2.9159 -0.5364
32695SOL    HW2 4049   0.371   2.113   6.291  1.5913  1.3803 -0.6672
32696SOL     OW 4050   9.806   5.398   7.086 -0.2366 -0.5050  0.1814
32696SOL    HW1 4051   9.750   5.435   7.018  0.4911  0.6820  0.1896
32696SOL    HW2 4052   9.795   5.459   7.160  1.0214 -0.2596  0.1870
32697SOL     OW 4053  12.278   4.471  11.328  0.4023 -0.3633 -0.2642
32697SOL    HW1 4054  12.214   4.515  11.383  0.5713 -0.5758  0.1008
32697SOL    HW2 4055  12.362   4.512  11.349  0.2844  0.4532 -1.3001
32698SOL     OW 4056   9.999   8.487   3.742 -0.8452 -0.2182  0.3185
32698SOL    HW1 4057  10.008   8.493   3.647 -0.8465  1.3899  0.3931
32698SOL    HW2 4058  10.087   8.468   3.773 -0.7616 -0.3197  0.0246
32699SOL     OW 4059  12.260   2.875   2.659  0.2422 -0.4897 -0.8614
32699SOL    HW1 4060  12.324   2.944   2.640  0.1805 -0.5151 -1.1582
32699SOL    HW2 4061  12.196   2.917   2.716  1.7864 -1.0791  1.4578
32700SOL     OW 4062   7.142   9.404  11.423  0.1143 -0.3137 -0.3870
32700SOL    HW1 4063   7.054   9.381  11.453  0.8055  1.0607  3.3171
32700SOL    HW2 4064   7.137   9.497  11.404  0.9818  0.0765  1.1346
32701SOL     OW 4065  11.891   4.571  10.768 -0.2020 -0.7997 -1.0392
32701SOL    HW1 4066  11.881   4.514  10.692  0.3764 -1.3376 -0.7184
32701SOL    HW2 4067  11.931   4.651  10.733 -0.6152 -0.7545 -1.4164
32702SOL     OW 4068   6.520  10.247  12.136  0.0902  0.2717  0.2237
32702SOL    HW1 4069   6.536  10.311  12.067  1.1878 -1.3327 -1.0865
32702SOL    HW2 4070   6.531  10.296  12.217  1.8746  1.5496 -0.7148
32703SOL     OW 4071   9.791   0.881  11.592  0.0360 -0.5078  0.5260
32703SOL    HW1 4072   9.700   0.851  11.595  0.5763 -2.2031  0.9264
32703SOL    HW2 4073   9.804   0.907  11.501 -1.3239  1.4658  0.8228
32704SOL     OW 4074  10.345   6.347   9.859  0.1565  0.4691 -0.4682
32704SOL    HW1 4075  10.324   6.285   9.928 -1.5042  1.5686  0.0945
32704SOL    HW2 4076  10.403   6.299   9.800 -0.0779 -1.1873  0.5757
32705SOL     OW 4077   0.659   1.168  11.071 -0.3336  0.5466  0.0457
32705SOL    HW1 4078   0.625   1.087  11.033 -0.4454 -0.1640  1.5844
32705SOL    HW2 4079   0.701   1.213  10.997 -2.5308  0.3606 -1.4076
32706SOL     OW 4080  10.883   9.702   3.045 -0.2242 -0.3761 -0.2266
32706SOL    HW1 4081  10.868   9.749   2.963 -1.1964  0.1608  0.2340
32706SOL    HW2 4082  10.828   9.748   3.109  2.0721  0.5433  1.2238
32707SOL     OW 4083   5.898   0.099   4.326 -0.2638 -0.1888  0.1790
32707SOL    HW1 4084   5.992   0.087   4.309 -0.1332 -0.1259  0.8638
32707SOL    HW2 4085   5.870   0.160   4.258  0.6782  1.6186  1.3409
32708SOL     OW 4086   2.717   1.801   2.055 -0.0348  0.4636  0.0163
32708SOL    HW1 4087   2.809   1.811   2.078 -0.0311  1.2554 -0.3046
32708SOL    HW2 4088   2.698   1.875   1.997 -0.6979 -0.0702 -0.4635
32709SOL     OW 4089   6.114   9.330   2.709  0.7734  0.5702  0.5295
32709SOL    HW1 4090   6.120   9.250   2.656 -0.5283  0.0233  1.1722
32709SOL    HW2 4091   6.133   9.302   2.798 -0.6490  0.7588  0.9199
32710SOL     OW 4092   1.805   9.602   8.926 -0.5987 -0.2901 -0.5143
32710SOL    HW1 4093   1.891   9.563   8.908  0.1315  1.5850 -1.3562
32710SOL    HW2 4094   1.792   9.589   9.020  0.3048 -1.1706 -0.4918
32711SOL     OW 4095   6.024   3.239   1.873  0.2823 -0.0975  0.3531
32711SOL    HW1 4096   6.081   3.179   1.824  0.1973 -0.2477  0.4383
32711SOL    HW2 4097   6.046   3.222   1.965 -1.2707 -1.5602  0.5076
32712SOL     OW 4098   4.789   5.820   1.834 -0.3047 -0.2094  0.0164
32712SOL    HW1 4099   4.827   5.899   1.796  0.4053 -0.0431  1.0337
32712SOL    HW2 4100   4.839   5.748   1.794 -0.3003 -0.0942 -0.1877
32713SOL     OW 4101   7.719   4.669   1.082  0.8137  0.3556 -0.3884
32713SOL    HW1 4102   7.685   4.683   0.993 -1.0591  1.8567  0.5107
32713SOL    HW2 4103   7.651   4.618   1.126  1.7844 -0.4792  0.1891
32714SOL     OW 4104   7.685   0.044   7.206 -0.3265  0.2211 -0.0547
32714SOL    HW1 4105   7.739   0.081   7.136  0.9516  0.1335  0.8510
32714SOL    HW2 4106   7.675  -0.048   7.181 -0.1212  0.2554 -0.2739
32715SOL     OW 4107  11.081   2.389   1.013  0.0969 -0.3623  0.0500
32715SOL    HW1 4108  11.090   2.298   1.041 -0.3598 -0.2435  0.5850
32715SOL    HW2 4109  11.115   2.390   0.923  0.1805 -1.0403  0.0724
32716SOL     OW 4110   4.987   6.725   8.393  0.5819  0.6453  0.3959
32716SOL    HW1 4111   5.082   6.714   8.397  0.3886 -1.8026 -0.3818
32716SOL    HW2 4112   4.963   6.766   8.477  2.1627  0.0927  1.1387
32717SOL     OW 4113   5.434   3.013   8.856 -0.4319  0.3831  0.0823
32717SOL    HW1 4114   5.460   3.002   8.948 -0.9112  0.7889  0.2720
32717SOL    HW2 4115   5.401   3.103   8.851 -0.8497  0.2099 -0.3763
32718SOL     OW 4116   0.548   6.615  11.616  0.0106 -0.1417 -0.4599
32718SOL    HW1 4117   0.458   6.589  11.597 -0.0677 -0.2322  0.0293
32718SOL    HW2 4118   0.597   6.532  11.618 -0.1060 -0.1922  0.3923
32719SOL     OW 4119  11.115  10.710   1.685  0.0242  0.2483 -0.1848
32719SOL    HW1 4120  11.143  10.638   1.629 -1.1135 -1.0868  0.8738
32719SOL    HW2 4121  11.090  10.780   1.625  0.0982 -0.6519 -1.2878
32720SOL     OW 4122  11.189   8.657  10.759  0.0363  0.0396 -0.1805
32720SOL    HW1 4123  11.156   8.568  10.770  0.2525  0.1495  1.7619
32720SOL    HW2 4124  11.284   8.647  10.757  0.1113  0.2860  1.1409
32721SOL     OW 4125   0.320  10.079   9.435 -0.6123  0.9717  0.0032
32721SOL    HW1 4126   0.280  10.148   9.488  0.1669  0.8664  0.7461
32721SOL    HW2 4127   0.347  10.013   9.499  2.4341  1.8497 -0.2063
32722SOL     OW 4128   6.317   2.378  10.860 -0.8751 -0.4130 -0.2380
32722SOL    HW1 4129   6.274   2.321  10.924 -1.1342 -0.2925 -0.3009
32722SOL    HW2 4130   6.394   2.411  10.904 -0.1914 -1.5669 -0.5208
32723SOL     OW 4131   9.624  12.418   3.922 -0.4750  0.8041 -0.3197
32723SOL    HW1 4132   9.712  12.394   3.950 -0.3487  0.2565 -1.1367
32723SOL    HW2 4133   9.566  12.379   3.988 -0.1738 -0.1346 -0.5874
32724SOL     OW 4134   1.107   8.924   3.509  0.3567  0.2165  0.6319
32724SOL    HW1 4135   1.133   8.928   3.601 -0.0755 -0.9582  0.8244
32724SOL    HW2 4136   1.158   8.851   3.473 -1.1164 -0.8049  0.5251
32725SOL     OW 4137  11.411   1.904   3.238 -0.7408  0.1257 -0.2012
32725SOL    HW1 4138  11.400   1.980   3.295 -0.0128 -0.1929  0.3790
32725SOL    HW2 4139  11.364   1.833   3.284 -0.6940  0.0210 -0.3153
32726SOL     OW 4140   6.988  10.447   6.343 -0.0462  0.3743  0.6834
32726SOL    HW1 4141   6.926  10.484   6.281 -0.6994  1.4660  1.9247
32726SOL    HW2 4142   7.032  10.377   6.295 -0.1335  1.5111 -1.1611
32727SOL     OW 4143   3.302   0.179   9.708  0.2019 -0.2702  0.1659
32727SOL    HW1 4144   3.389   0.145   9.727 -0.1770 -0.5946  1.3677
32727SOL    HW2 4145   3.259   0.188   9.793 -0.2422  1.8280 -0.2156
32728SOL     OW 4146   3.171   2.909   9.344 -0.3250 -0.1911  0.0897
32728SOL    HW1 4147   3.102   2.972   9.325  0.5876  0.4814 -1.1482
32728SOL    HW2 4148   3.195   2.874   9.259  1.4455  0.2260  0.3860
32729SOL     OW 4149  10.715   1.298   8.216 -0.1215  0.4898 -0.0373
32729SOL    HW1 4150  10.754   1.224   8.265  1.1282  1.3011  0.2477
32729SOL    HW2 4151  10.623   1.297   8.241 -0.6005 -2.1639 -1.5379
32730SOL     OW 4152  11.651   1.067   0.034 -0.1529 -0.2452  0.0580
32730SOL    HW1 4153  11.705   1.037  -0.039  2.1150 -1.1287  1.9461
32730SOL    HW2 4154  11.688   1.152   0.059 -0.0239 -0.5532  0.9659
32731SOL     OW 4155   5.979  10.454   0.848  0.4413 -0.8164  0.1381
32731SOL    HW1 4156   6.004  10.500   0.928  2.1720 -0.7679 -0.3847
32731SOL    HW2 4157   6.040  10.486   0.782 -0.8689 -0.9607 -1.1909
32732SOL     OW 4158  12.109   7.812   8.010  0.1229  0.7709 -0.0653
32732SOL    HW1 4159  12.185   7.836   8.064  0.0706  0.4917  0.1327
32732SOL    HW2 4160  12.121   7.718   7.993  0.0667  0.8273 -0.4240
32733SOL     OW 4161   8.429   1.500   0.241 -0.3680 -0.3657 -0.3792
32733SOL    HW1 4162   8.471   1.436   0.299  0.4260 -0.1642 -0.7123
32733SOL    HW2 4163   8.501   1.555   0.211 -1.3162  2.4031  1.9623
32734SOL     OW 4164   7.511   4.298  12.478 -0.2321 -0.1533 -0.3577
32734SOL    HW1 4165   7.482   4.370  12.536  0.3039  1.0415 -1.5305
32734SOL    HW2 4166   7.432   4.276  12.428 -0.0197  0.7632 -1.1382
32735SOL     OW 4167   3.651   5.479   2.428  0.1267  0.2357  0.0416
32735SOL    HW1 4168   3.562   5.504   2.403  0.5277  1.3009 -0.3503
32735SOL    HW2 4169   3.694   5.457   2.345  0.4253  0.3864  0.1540
32736SOL     OW 4170   8.624  10.789   6.790 -0.7716 -0.1707 -0.2194
32736SOL    HW1 4171   8.661  10.813   6.705 -1.3489  0.1587 -0.3832
32736SOL    HW2 4172   8.685  10.725   6.826  1.2375  2.0093  0.5326
32737SOL     OW 4173   8.994  11.805   3.644  0.2648  0.2502 -0.3271
32737SOL    HW1 4174   9.087  11.783   3.639  0.1173 -1.9642  3.1182
32737SOL    HW2 4175   8.951  11.737   3.593  0.4435  0.7013 -1.1007
32738SOL     OW 4176   0.796   4.258  11.484 -0.0407 -0.2031 -0.3673
32738SOL    HW1 4177   0.784   4.352  11.498 -0.6754 -0.2644 -0.4554
32738SOL    HW2 4178   0.772   4.245  11.392  0.7247 -0.3447 -0.5525
32739SOL     OW 4179  11.722   0.071   3.439  0.1694  0.1246  0.1631
32739SOL    HW1 4180  11.666   0.148   3.429  1.0457  0.8516  0.6806
32739SOL    HW2 4181  11.765   0.061   3.354  0.7259  0.7646  0.3561
32740SOL     OW 4182   3.453   6.700   6.333  0.5673 -0.6500  0.5090
32740SOL    HW1 4183   3.541   6.705   6.296  0.4121 -1.1206  0.0561
32740SOL    HW2 4184   3.395   6.717   6.259  0.2765 -0.0766  0.8598
32741SOL     OW 4185   5.811  11.170   8.707  0.0236  0.1048 -0.2998
32741SOL    HW1 4186   5.795  11.243   8.648  0.2842 -0.4679 -1.0990
32741SOL    HW2 4187   5.852  11.209   8.784 -1.1631  0.9956 -0.0788
32742SOL     OW 4188   1.751   8.670   6.259 -0.2778  0.0368 -0.1522
32742SOL    HW1 4189   1.697   8.716   6.323 -0.0768  0.5395 -0.3366
32742SOL    HW2 4190   1.835   8.657   6.304 -0.3176 -0.1109 -0.1189
32743SOL     OW 4191   6.342  10.514   3.776  0.1201 -0.1138 -0.1612
32743SOL    HW1 4192   6.315  10.445   3.836  1.3715 -1.6064 -1.2585
32743SOL    HW2 4193   6.433  10.531   3.797 -0.2472  1.4999  0.3158
32744SOL     OW 4194   2.589  11.104   3.339  0.7357  0.0782 -0.0516
32744SOL    HW1 4195   2.618  11.056   3.262  1.7607  0.1556  0.2725
32744SOL    HW2 4196   2.534  11.041   3.387 -1.8440  0.7232 -1.9186
32745SOL     OW 4197   4.278   9.186   3.022  0.0333  0.3379  0.2894
32745SOL    HW1 4198   4.221   9.113   3.048 -2.3142  2.7257  2.4046
32745SOL    HW2 4199   4.346   9.188   3.090  0.3207 -0.0321  0.0235
32746SOL     OW 4200   4.122  10.022   6.687 -0.6158 -0.0854  0.1495
32746SOL    HW1 4201   4.036  10.031   6.645 -0.0241 -2.1916 -1.6628
32746SOL    HW2 4202   4.102   9.989   6.775 -1.7112  1.3048  0.4714
32747SOL     OW 4203   9.113   8.474   4.882 -0.6606  0.0450 -0.1557
32747SOL    HW1 4204   9.153   8.523   4.810 -1.0027 -1.6459 -1.5646
32747SOL    HW2 4205   9.080   8.542   4.941  0.9701  1.4949 -0.7901
32748SOL     OW 4206  11.929  10.322   3.384  0.0674 -0.3410 -0.1820
32748SOL    HW1 4207  11.867  10.394   3.376  2.2371  2.0369  2.3276
32748SOL    HW2 4208  11.975  10.321   3.300 -1.1220  0.0638 -0.8608
32749SOL     OW 4209   5.571   8.598   0.085  0.2498  0.3370 -0.1312
32749SOL    HW1 4210   5.535   8.527   0.139 -0.6912  0.1852 -0.9228
32749SOL    HW2 4211   5.587   8.669   0.146  0.8365 -0.4148  0.6166
32750SOL     OW 4212   0.614  11.887   8.858 -0.4845  0.0593  0.8647
32750SOL    HW1 4213   0.585  11.831   8.930  0.2484 -0.7819  0.5133
32750SOL    HW2 4214   0.632  11.827   8.786 -1.0621  0.8783  0.0128
32751SOL     OW 4215   3.807   3.005   7.688 -0.3044 -0.0645 -0.1767
32751SOL    HW1 4216   3.727   2.957   7.707  0.2308 -0.6096  0.8132
32751SOL    HW2 4217   3.779   3.095   7.675 -0.8887  0.2400  2.5233
32752SOL     OW 4218   0.542   2.576   7.351  0.2314 -0.2176  0.0925
32752SOL    HW1 4219   0.481   2.646   7.328  0.0706  0.6615  2.8793
32752SOL    HW2 4220   0.518   2.504   7.293 -2.3064  0.6815 -0.0924
32753SOL     OW 4221   7.801   4.134   3.963 -0.3280 -0.2234 -0.6488
32753SOL    HW1 4222   7.888   4.149   3.925  0.0697  2.8079  1.1443
32753SOL    HW2 4223   7.815   4.064   4.027  1.0788  0.9386  0.3731
32754SOL     OW 4224   0.168   9.653   2.737  0.1772  0.2939 -0.0368
32754SOL    HW1 4225   0.123   9.678   2.818 -0.5575  1.0468 -0.6722
32754SOL    HW2 4226   0.139   9.564   2.720  0.8836 -0.1403  0.8964
32755SOL     OW 4227   9.299  11.742   0.815  0.2077 -0.3051  0.3101
32755SOL    HW1 4228   9.229  11.689   0.778 -0.5922  0.5406  0.5846
32755SOL    HW2 4229   9.295  11.825   0.767 -0.0150  0.3354  1.4040
32756SOL     OW 4230   5.450  11.858  10.955 -0.1990  0.2639  0.4406
32756SOL    HW1 4231   5.408  11.944  10.948  1.4967  1.1269  0.3520
32756SOL    HW2 4232   5.486  11.842  10.868  0.9367  0.2628  0.8894
32757SOL     OW 4233   5.466   9.085   7.300 -0.3563  0.2630  0.5428
32757SOL    HW1 4234   5.445   9.128   7.217 -0.9962 -0.5743  0.2523
32757SOL    HW2 4235   5.441   8.994   7.286 -0.9006  0.1971  1.7995
32758SOL     OW 4236   1.001   0.004  12.135 -0.2002 -0.0661 -0.2268
32758SOL    HW1 4237   0.959  -0.058  12.075 -0.7476  0.6295 -0.5807
32758SOL    HW2 4238   0.936   0.073  12.147  0.4141  0.4615  0.1228
32759SOL     OW 4239   7.626   5.821   8.301 -0.7302 -0.1235  0.0874
32759SOL    HW1 4240   7.685   5.879   8.350  1.0751 -1.8080 -0.0011
32759SOL    HW2 4241   7.553   5.878   8.276  1.1593  2.2564 -0.4243
32760SOL     OW 4242   0.121   3.781   8.663  0.0747 -0.2125  0.0365
32760SOL    HW1 4243   0.197   3.810   8.613 -1.0177  0.7919 -1.1302
32760SOL    HW2 4244   0.047   3.799   8.605 -0.9849 -1.9869  0.7638
32761SOL     OW 4245   0.353  10.666   1.889  0.2715 -0.1647 -0.5940
32761SOL    HW1 4246   0.434  10.640   1.932  1.2425  0.5021 -1.9350
32761SOL    HW2 4247   0.318  10.736   1.944  1.6022  0.8240 -0.9548
32762SOL     OW 4248   1.999   6.315   0.376 -0.2097  0.5226  0.8439
32762SOL    HW1 4249   2.078   6.266   0.400 -1.1908 -1.7768 -0.4113
32762SOL    HW2 4250   1.927   6.266   0.416 -1.1456  1.6442  0.5829
32763SOL     OW 4251   2.383   8.515   6.315  0.1465  0.1539  0.5753
32763SOL    HW1 4252   2.353   8.577   6.381  1.0598  0.2486  0.9251
32763SOL    HW2 4253   2.307   8.461   6.295 -0.3352  0.6092  1.1588
32764SOL     OW 4254  11.104  11.660   5.174  0.0421  0.3928  0.1046
32764SOL    HW1 4255  11.018  11.702   5.172  0.1679  0.8633  2.3242
32764SOL    HW2 4256  11.126  11.654   5.267  3.2205  1.9184 -0.4103
32765SOL     OW 4257   7.726   4.781   1.717  0.1174 -0.6916 -0.3412
32765SOL    HW1 4258   7.658   4.735   1.667 -1.5941 -0.3053  1.5036
32765SOL    HW2 4259   7.772   4.834   1.652 -2.1731 -0.0222 -1.5038
32766SOL     OW 4260   2.681   3.018   5.321 -0.1297  0.3446 -0.1416
32766SOL    HW1 4261   2.638   3.104   5.321  1.5224  1.2506  1.4751
32766SOL    HW2 4262   2.769   3.036   5.356 -0.3473 -2.2823  2.0468
32767SOL     OW 4263   2.951  10.561  11.328  0.2193  0.0596 -0.4331
32767SOL    HW1 4264   2.970  10.484  11.381 -0.2800  1.6327  2.2266
32767SOL    HW2 4265   3.037  10.594  11.303  0.5459  0.0173  0.5795
32768SOL     OW 4266   5.914  11.291   4.482 -0.5064  0.0779 -0.4922
32768SOL    HW1 4267   5.991  11.340   4.455  0.1324  0.0275  1.1017
32768SOL    HW2 4268   5.880  11.252   4.401  1.6663 -0.6391 -1.1212
32769SOL     OW 4269   3.785   4.204   7.709  0.8998  0.2475 -0.0177
32769SOL    HW1 4270   3.833   4.286   7.720  0.2178  0.5204  1.1377
32769SOL    HW2 4271   3.848   4.136   7.733  1.6014  0.3778 -1.4002
32770SOL     OW 4272   5.681   3.919   5.703  0.2032  0.2569  0.1824
32770SOL    HW1 4273   5.741   3.894   5.773  1.5707 -0.3769 -1.1515
32770SOL    HW2 4274   5.727   3.988   5.655  0.9418 -1.7363 -2.1925
32771SOL     OW 4275   2.341   4.051   6.168  0.7842 -0.2519 -0.4698
32771SOL    HW1 4276   2.324   4.060   6.262 -2.3698  1.1595 -1.0376
32771SOL    HW2 4277   2.354   4.141   6.138  1.8677 -0.7003 -1.3990
32772SOL     OW 4278   3.549   5.147  10.891  0.7838 -0.5027 -0.2468
32772SOL    HW1 4279   3.591   5.117  10.971 -0.0091 -0.0611  0.3463
32772SOL    HW2 4280   3.548   5.243  10.899 -3.6982 -0.4926  1.6094
32773SOL     OW 4281   5.166   8.738   9.740  0.0970 -0.4987  0.0016
32773SOL    HW1 4282   5.140   8.815   9.690 -1.9233 -0.9569  0.2309
32773SOL    HW2 4283   5.118   8.666   9.700  0.4988 -1.3123  0.9338
32774SOL     OW 4284   4.561  11.557   9.147  0.2282 -0.4997 -0.4887
32774SOL    HW1 4285   4.582  11.479   9.199 -1.1550 -0.4369  0.2131
32774SOL    HW2 4286   4.637  11.615   9.160  1.1151 -1.5660 -0.7393
32775SOL     OW 4287  10.506   4.270   6.980  0.5944 -0.2267  0.2046
32775SOL    HW1 4288  10.500   4.312   7.067  1.4551 -1.3554  0.8269
32775SOL    HW2 4289  10.416   4.272   6.947  0.7441  3.2658 -0.4019
32776SOL     OW 4290  11.361   7.926   9.150 -0.1755 -1.0804 -0.6538
32776SOL    HW1 4291  11.414   7.955   9.224 -1.3860 -1.6146  0.4839
32776SOL    HW2 4292  11.409   7.853   9.113  0.6670 -0.5264 -0.6776
32777SOL     OW 4293  10.909   5.911   1.377  0.0683  0.0153 -0.5810
32777SOL    HW1 4294  11.002   5.892   1.368  0.4929  2.0751 -1.1879
32777SOL    HW2 4295  10.888   5.888   1.467  0.9102 -1.3662 -0.7042
32778SOL     OW 4296   9.115   6.818   8.313 -0.0916 -0.0207 -0.2460
32778SOL    HW1 4297   9.121   6.832   8.219  0.1757  0.1989 -0.1966
32778SOL    HW2 4298   9.184   6.873   8.350 -1.0060  0.9032  0.1638
32779SOL     OW 4299   0.660   0.938   7.204  0.4071  0.3444 -0.6062
32779SOL    HW1 4300   0.674   0.974   7.117  1.0464 -0.4537 -0.8534
32779SOL    HW2 4301   0.748   0.936   7.244  0.0107  1.4986  0.3933
32780SOL     OW 4302   5.704   6.929  12.479  0.5275  0.3065 -0.1280
32780SOL    HW1 4303   5.622   6.968  12.508  0.1833  0.3791 -1.1614
32780SOL    HW2 4304   5.679   6.864  12.414  1.1730 -0.9775  0.8454
32781SOL     OW 4305   3.013   4.056  11.148  0.4316 -0.1863 -0.1269
32781SOL    HW1 4306   3.002   4.151  11.148  1.8952  0.0182  1.4287
32781SOL    HW2 4307   3.089   4.040  11.092  2.7745  0.0069  2.7584
32782SOL     OW 4308   5.015   1.772  11.468 -0.7308 -0.1550 -0.3673
32782SOL    HW1 4309   4.936   1.825  11.457 -1.6335 -1.1749  1.0694
32782SOL    HW2 4310   5.061   1.812  11.542 -0.5397 -0.3559 -0.3762
32783SOL     OW 4311  12.111  11.240   7.039 -0.1205 -0.4017 -0.0230
32783SOL    HW1 4312  12.049  11.304   7.074  1.5166  1.3247 -0.1172
32783SOL    HW2 4313  12.166  11.290   6.978  0.6116 -2.1216 -0.8538
32784SOL     OW 4314   3.979  11.363   0.173 -0.3570 -0.2787 -0.3428
32784SOL    HW1 4315   3.914  11.309   0.219 -1.1270  0.2892 -0.7451
32784SOL    HW2 4316   4.063  11.330   0.205 -0.8510  0.4506  1.9347
32785SOL     OW 4317   9.827  11.122  11.575 -0.2808  0.5418  0.1894
32785SOL    HW1 4318   9.771  11.175  11.517 -1.1920  0.1166  0.6619
32785SOL    HW2 4319   9.794  11.140  11.663 -1.4180 -1.6846  0.2951
32786SOL     OW 4320   3.090  10.693  10.895 -0.3681  0.5627  0.0678
32786SOL    HW1 4321   3.003  10.722  10.868 -0.5695 -0.4493 -0.4050
32786SOL    HW2 4322   3.084  10.597  10.897  0.9579  0.4316 -0.7881
32787SOL     OW 4323   3.385   9.172   4.989  0.0791  0.5223 -0.1242
32787SOL    HW1 4324   3.323   9.148   4.920  0.5448  0.9427 -0.7005
32787SOL    HW2 4325   3.334   9.168   5.070 -0.7207  0.9133 -0.5937
32788SOL     OW 4326  11.823   0.917  12.081  1.1603  0.3787  0.1436
32788SOL    HW1 4327  11.729   0.924  12.101  1.3495  0.6974  0.9883
32788SOL    HW2 4328  11.834   0.828  12.046  0.4506  0.5480 -0.5267
32789SOL     OW 4329   6.400   1.121  12.474 -0.4651  0.7038  0.1689
32789SOL    HW1 4330   6.467   1.084  12.417 -0.4863 -0.6523  0.9792
32789SOL    HW2 4331   6.378   1.205  12.433 -1.9620 -1.0403 -3.0288
32790SOL     OW 4332   0.261   2.746  12.346 -0.4096  0.5285 -0.2364
32790SOL    HW1 4333   0.252   2.665  12.296 -0.2408  0.2793  0.1290
32790SOL    HW2 4334   0.174   2.760  12.385 -0.3385  0.3238 -0.0021
32791SOL     OW 4335   9.756   6.044   3.534  0.0008  0.3027 -0.0581
32791SOL    HW1 4336   9.691   6.107   3.564 -0.2875  0.2017 -0.4569
32791SOL    HW2 4337   9.806   6.091   3.467 -1.2299 -0.3616 -1.4945
32792SOL     OW 4338  10.266   8.721   3.652  0.3923 -0.4969 -0.0083
32792SOL    HW1 4339  10.292   8.813   3.655  0.6821 -0.5030 -1.5072
32792SOL    HW2 4340  10.237   8.707   3.562 -4.1267 -0.7386  1.2465
32793SOL     OW 4341   7.548  11.404  11.060 -0.4560 -0.1221 -0.4192
32793SOL    HW1 4342   7.527  11.497  11.046 -1.1680 -0.2017  0.0445
32793SOL    HW2 4343   7.588  11.401  11.146  1.5338  0.0180 -1.2895
32794SOL     OW 4344   5.585  11.302   1.076  0.1203 -0.0706  0.5235
32794SOL    HW1 4345   5.545  11.248   1.008 -0.7786 -1.7845  2.2967
32794SOL    HW2 4346   5.678  11.283   1.071  0.0499 -0.2717 -0.1260
32795SOL     OW 4347   1.697   4.374   0.488  0.1483  0.0358  0.7631
32795SOL    HW1 4348   1.743   4.454   0.513 -0.4246  0.4348  0.5576
32795SOL    HW2 4349   1.745   4.341   0.412 -0.3667  0.8773  0.0590
32796SOL     OW 4350   0.855   2.111   5.604 -0.2230 -0.1919  0.8867
32796SOL    HW1 4351   0.868   2.193   5.557 -0.9967 -0.6026 -0.0748
32796SOL    HW2 4352   0.941   2.091   5.641  0.9704 -0.7802 -1.8921
32797SOL     OW 4353  12.065   7.374   1.030 -0.1302 -0.2798 -0.1902
32797SOL    HW1 4354  11.973   7.345   1.026 -0.5981  0.9492  0.8652
32797SOL    HW2 4355  12.078   7.426   0.951 -0.2750 -0.6136 -0.4378
32798SOL     OW 4356  10.774   0.189   1.632  0.0158  0.1494  0.3800
32798SOL    HW1 4357  10.695   0.150   1.671 -0.2254 -0.8655 -1.0343
32798SOL    HW2 4358  10.744   0.271   1.593 -0.4535 -0.4462 -0.5347
32799SOL     OW 4359   6.048   2.112   7.072  0.2826 -0.0150  0.8275
32799SOL    HW1 4360   6.120   2.084   7.129 -0.1200 -0.9353  0.8931
32799SOL    HW2 4361   6.090   2.128   6.988  0.4446 -1.4566  0.6097
32800SOL     OW 4362  10.883  11.933   4.071  0.3241  0.0644  0.0062
32800SOL    HW1 4363  10.966  11.914   4.113  0.5739 -0.2044 -0.6066
32800SOL    HW2 4364  10.841  11.848   4.059 -0.7084  0.2879  1.6299
32801SOL     OW 4365   9.987   7.087   8.146  0.2075  0.4272  0.1524
32801SOL    HW1 4366  10.035   7.051   8.220  2.6785 -0.8414 -1.9039
32801SOL    HW2 4367   9.896   7.091   8.176  0.8784 -1.2338  2.7645
32802SOL     OW 4368   1.926   1.778   6.391  0.3072 -0.0232 -0.1955
32802SOL    HW1 4369   1.883   1.701   6.354  1.3394  0.3647 -2.3164
32802SOL    HW2 4370   1.897   1.851   6.337  2.0420  0.5327 -0.4503
32803SOL     OW 4371   3.144   6.544   2.460 -0.1564  0.1827 -0.5157
32803SOL    HW1 4372   3.171   6.616   2.518  0.9336 -0.1267 -0.6156
32803SOL    HW2 4373   3.154   6.465   2.513 -2.1381  0.1348 -0.1384
32804SOL     OW 4374   5.062   2.934   2.149 -0.4346 -0.2319  0.0336
32804SOL    HW1 4375   5.132   2.886   2.104 -0.9835 -1.6782  0.6702
32804SOL    HW2 4376   5.109   2.988   2.213  0.2674  0.9351 -1.4094
32805SOL     OW 4377   7.711   8.576   1.288 -0.2566 -0.3614 -0.1882
32805SOL    HW1 4378   7.714   8.652   1.346 -1.6919  1.0415 -1.8002
32805SOL    HW2 4379   7.800   8.568   1.253  0.2201 -0.2462  0.9675
32806SOL     OW 4380   0.653   7.969   9.836  0.4026 -0.5050  0.0594
32806SOL    HW1 4381   0.610   8.052   9.816  1.9300  0.1983 -0.4949
32806SOL    HW2 4382   0.727   7.993   9.892 -0.4177 -1.7871  1.8005
32807SOL     OW 4383   7.672   8.820  11.188  0.7312 -0.0161  0.1384
32807SOL    HW1 4384   7.739   8.772  11.140 -0.1383  0.7413 -1.9462
32807SOL    HW2 4385   7.685   8.911  11.162  0.1678  0.4134  1.3045
32808SOL     OW 4386   1.633  10.492   1.521 -0.0204 -0.2817  0.5374
32808SOL    HW1 4387   1.702  10.549   1.486  2.1456 -3.7753 -1.4590
32808SOL    HW2 4388   1.555  10.515   1.470  0.4458  1.5652  0.5831
32809SOL     OW 4389  10.024   7.346   5.691  0.2873 -0.1128 -0.0766
32809SOL    HW1 4390   9.997   7.259   5.722  2.4686 -0.6151  0.5284
32809SOL    HW2 4391  10.013   7.341   5.596  0.2305 -0.9949 -0.0337
32810SOL     OW 4392   4.233   9.434   3.468 -0.0192  0.1568 -0.0439
32810SOL    HW1 4393   4.159   9.495   3.466  0.2983  0.5642  0.3501
32810SOL    HW2 4394   4.198   9.352   3.433 -1.5959 -0.6735  3.1073
32811SOL     OW 4395   1.487  10.705   8.612  0.3140 -0.3537  0.3693
32811SOL    HW1 4396   1.441  10.663   8.685  1.2327 -0.5526  0.8459
32811SOL    HW2 4397   1.433  10.685   8.535 -0.8302  0.1235  1.0327
32812SOL     OW 4398   8.582   8.743   5.536  0.0755 -0.1645 -0.5725
32812SOL    HW1 4399   8.487   8.746   5.521  0.1806  0.4274 -1.1601
32812SOL    HW2 4400   8.620   8.762   5.451  0.7243  0.0734 -0.2351
32813SOL     OW 4401   7.515   2.072   5.520  0.1084 -0.2461  0.1861
32813SOL    HW1 4402   7.599   2.030   5.500 -0.2445 -0.7141 -0.3317
32813SOL    HW2 4403   7.482   2.102   5.435 -1.5724 -2.5711 -0.0659
32814SOL     OW 4404   2.368   4.461   3.951 -0.0538 -0.1795 -0.2704
32814SOL    HW1 4405   2.297   4.489   3.893 -1.1973 -1.4369  0.4841
32814SOL    HW2 4406   2.328   4.453   4.037  1.6007  1.5442  0.7238
32815SOL     OW 4407   1.896   8.022   4.578  0.2491  0.4173 -0.0425
32815SOL    HW1 4408   1.901   8.096   4.517 -0.4501  0.1642 -0.4203
32815SOL    HW2 4409   1.912   7.945   4.524  0.4860  0.2527  0.2583
32816SOL     OW 4410   2.711   4.050   4.501 -0.4075 -0.2293 -0.8080
32816SOL    HW1 4411   2.803   4.048   4.527 -0.3265  0.5709 -0.9915
32816SOL    HW2 4412   2.713   4.076   4.409 -0.7851 -1.1224 -1.0806
32817SOL     OW 4413   7.865   3.949   2.131 -0.5636  0.0277 -0.0893
32817SOL    HW1 4414   7.933   4.016   2.137 -0.5557 -0.0023  0.1453
32817SOL    HW2 4415   7.837   3.952   2.040 -0.7678  0.5536 -0.0130
32818SOL     OW 4416   3.204  11.647  10.160  0.0066  0.0352 -0.2078
32818SOL    HW1 4417   3.182  11.670  10.070  0.1230  0.7359 -0.0638
32818SOL    HW2 4418   3.121  11.622  10.200 -0.3822  1.5986  0.0231
32819SOL     OW 4419   9.456   1.231   5.664 -0.0935  0.2716 -0.2296
32819SOL    HW1 4420   9.383   1.286   5.636  0.4980  0.0160 -2.4172
32819SOL    HW2 4421   9.532   1.289   5.665  0.3542 -0.2345 -1.6560
32820SOL     OW 4422  10.487   7.665   4.078 -0.4086 -0.2503  0.0863
32820SOL    HW1 4423  10.501   7.741   4.022  1.6380 -0.2822  0.4854
32820SOL    HW2 4424  10.571   7.652   4.122 -1.7432 -0.5087  2.8151
32821SOL     OW 4425   2.452   1.228   9.673 -0.3305 -0.7687 -0.2516
32821SOL    HW1 4426   2.380   1.219   9.735  2.3374  0.7905  3.4633
32821SOL    HW2 4427   2.483   1.138   9.660 -0.0097 -1.0731  2.1157
32822SOL     OW 4428  11.900   1.209   1.826 -0.2517 -0.6326  0.1806
32822SOL    HW1 4429  11.860   1.229   1.911  1.0135  1.2903  0.3592
32822SOL    HW2 4430  11.992   1.195   1.845  0.1761  0.5139 -0.9677
32823SOL     OW 4431   3.005   4.800  12.380  0.8486 -0.1635  0.4894
32823SOL    HW1 4432   3.092   4.836  12.400  0.8344 -0.3049  0.8041
32823SOL    HW2 4433   2.953   4.876  12.355  0.3722  0.2628  2.6374
32824SOL     OW 4434   5.479   4.157  10.113 -0.3708 -0.4359 -0.4357
32824SOL    HW1 4435   5.413   4.165  10.183 -0.5646  2.1482 -0.8103
32824SOL    HW2 4436   5.428   4.136  10.035 -0.2020 -2.8554  0.0158
32825SOL     OW 4437   6.687   0.609   4.116  0.2111  0.1522 -0.0667
32825SOL    HW1 4438   6.595   0.603   4.090 -0.5244  0.1849  2.2986
32825SOL    HW2 4439   6.732   0.545   4.060 -0.9750  1.0528 -2.1690
32826SOL     OW 4440   5.711   3.176  10.434 -0.1026  0.3970 -0.5978
32826SOL    HW1 4441   5.658   3.118  10.380  0.6669 -0.0459 -0.8986
32826SOL    HW2 4442   5.794   3.129  10.445 -0.3148  0.3762  1.1601
32827SOL     OW 4443   6.858   8.762   8.054  0.1962 -0.3737  0.2648
32827SOL    HW1 4444   6.803   8.733   8.127  2.0572  0.4328  2.0922
32827SOL    HW2 4445   6.946   8.770   8.092  0.5480  3.8807 -0.9873
32828SOL     OW 4446   9.511  11.281   9.810 -0.1853 -0.6696  0.3176
32828SOL    HW1 4447   9.503  11.368   9.848 -2.5316  0.0006 -1.4823
32828SOL    HW2 4448   9.589  11.286   9.755  0.6398 -0.2735  1.4748
32829SOL     OW 4449   8.455   9.913   1.223  0.7348  0.5123 -0.2512
32829SOL    HW1 4450   8.402   9.851   1.273 -0.4162  2.0550  0.5640
32829SOL    HW2 4451   8.402   9.931   1.145  1.8520 -0.7779 -1.3450
32830SOL     OW 4452   6.902   3.932   4.580 -0.1244  0.5735 -0.4903
32830SOL    HW1 4453   6.813   3.913   4.552 -0.7514  0.7453  1.2673
32830SOL    HW2 4454   6.950   3.851   4.565 -1.4488 -0.7299  1.8109
32831SOL     OW 4455  11.094   3.136   5.660 -0.5158  0.4295 -0.6626
32831SOL    HW1 4456  10.999   3.148   5.671 -0.5937 -1.5477  1.4178
32831SOL    HW2 4457  11.131   3.219   5.689 -1.5297  0.3277  1.0777
32832SOL     OW 4458   9.684   6.260   2.689  0.5971 -0.4747 -0.2553
32832SOL    HW1 4459   9.632   6.240   2.767  2.0914  1.3711  1.3010
32832SOL    HW2 4460   9.629   6.320   2.639  0.1492 -0.6684 -0.0049
32833SOL     OW 4461   8.038  10.159   6.740  0.0303  0.0600  0.3064
32833SOL    HW1 4462   8.117  10.168   6.794 -0.6729 -0.5773  1.4812
32833SOL    HW2 4463   7.979  10.227   6.773  0.0916  0.5989 -0.6335
32834SOL     OW 4464   0.682  11.971  11.366  0.2812 -0.2840  0.0845
32834SOL    HW1 4465   0.651  12.061  11.360 -0.0323 -0.4401 -0.8346
32834SOL    HW2 4466   0.604  11.917  11.348  0.3787 -0.7567  0.9898
32835SOL     OW 4467  10.314   8.568   8.761 -0.3527  0.2347 -0.6934
32835SOL    HW1 4468  10.398   8.589   8.721  0.3871 -1.6460 -0.2338
32835SOL    HW2 4469  10.298   8.639   8.824  1.8716 -0.3632  0.6368
32836SOL     OW 4470   0.690  11.100   9.035 -0.4230 -0.3032  0.4258
32836SOL    HW1 4471   0.602  11.119   9.068 -1.4267 -0.5030 -1.9198
32836SOL    HW2 4472   0.689  11.006   9.018  0.0413 -0.2142 -0.1372
32837SOL     OW 4473   1.253   4.444   6.265  0.0819 -0.6568 -0.2636
32837SOL    HW1 4474   1.251   4.539   6.254 -0.3499 -0.5810  0.3787
32837SOL    HW2 4475   1.163   4.422   6.291  0.7122 -0.9178  1.9671
32838SOL     OW 4476  11.536   4.265  11.201 -0.1632  0.0979  0.2894
32838SOL    HW1 4477  11.510   4.315  11.123  2.3004  0.2568 -0.5078
32838SOL    HW2 4478  11.484   4.185  11.196 -1.9952  1.2285 -0.0192
32839SOL     OW 4479   6.868   0.902   8.849 -0.1229  0.3241 -0.4198
32839SOL    HW1 4480   6.872   0.979   8.907  0.8536 -0.4668  0.6048
32839SOL    HW2 4481   6.952   0.859   8.861 -0.9267 -1.3120 -0.4182
32840SOL     OW 4482   4.007   3.724  12.115 -0.4415 -0.5379 -0.0530
32840SOL    HW1 4483   3.918   3.705  12.086 -2.0964  4.9375  0.3233
32840SOL    HW2 4484   4.002   3.717  12.211 -0.7818  0.5705  0.0243
32841SOL     OW 4485   8.279  10.405   9.378 -0.3385  0.4475 -0.5310
32841SOL    HW1 4486   8.281  10.310   9.363 -2.7335  0.3925 -0.9291
32841SOL    HW2 4487   8.247  10.441   9.295  1.9470  1.7986 -0.8914
32842SOL     OW 4488  10.758   7.098   4.564  0.2291 -0.0809 -0.4357
32842SOL    HW1 4489  10.824   7.144   4.616 -0.5935  0.3491  0.2512
32842SOL    HW2 4490  10.681   7.094   4.620  0.3333 -2.6055 -0.3485
32843SOL     OW 4491  12.358   0.365   3.042  0.3610  0.7842 -0.3883
32843SOL    HW1 4492  12.294   0.328   3.103 -0.8269 -0.0225 -2.0274
32843SOL    HW2 4493  12.439   0.372   3.093  0.1232 -2.2158  0.6186
32844SOL     OW 4494   2.965   0.680   2.298  0.3173 -0.2333 -0.0908
32844SOL    HW1 4495   2.962   0.634   2.214 -0.0571  0.1227 -0.2750
32844SOL    HW2 4496   3.058   0.687   2.318  0.4253 -0.0442 -0.6344
32845SOL     OW 4497   5.434   0.574   6.186 -0.2801 -0.5586 -0.0991
32845SOL    HW1 4498   5.419   0.585   6.092  1.3119  0.5523 -0.2802
32845SOL    HW2 4499   5.519   0.616   6.201  0.4946 -2.5451  1.4838
32846SOL     OW 4500   1.060   9.303   0.283  0.3982 -0.1651 -1.2145
32846SOL    HW1 4501   1.147   9.263   0.288  0.2951 -0.3579 -0.9420
32846SOL    HW2 4502   1.010   9.244   0.226  0.0536 -0.7914 -0.2862
32847SOL     OW 4503   9.313   7.176  10.344  0.0327 -0.9909 -0.8704
32847SOL    HW1 4504   9.309   7.133  10.429  2.8440 -1.1874 -0.7533
32847SOL    HW2 4505   9.334   7.267  10.364  1.4235 -1.1861 -1.3357
32848SOL     OW 4506   7.398  10.852   0.700  0.1927 -0.5013 -0.0914
32848SOL    HW1 4507   7.492  10.867   0.694  0.3171 -1.4143 -0.7010
32848SOL    HW2 4508   7.378  10.858   0.793  0.5735  1.1869 -0.0936
32849SOL     OW 4509   6.915   6.423   5.707 -0.1355 -0.2162  0.5088
32849SOL    HW1 4510   6.858   6.429   5.630 -0.7141 -0.5210  0.9082
32849SOL    HW2 4511   6.992   6.375   5.676 -0.1498  0.0779 -0.0000
32850SOL     OW 4512   6.606   1.358  11.402 -0.1897  0.1694  0.1439
32850SOL    HW1 4513   6.686   1.406  11.380  1.0704 -1.8716  0.0289
32850SOL    HW2 4514   6.577   1.395  11.485  0.8882  0.9286  0.1874
32851SOL     OW 4515   5.853   4.138   5.634  0.1876  0.4057  1.0052
32851SOL    HW1 4516   5.845   4.218   5.582  0.1464  1.6199  2.7946
32851SOL    HW2 4517   5.943   4.110   5.622  0.2628  0.8340  0.5317
32852SOL     OW 4518   8.988   0.111  11.329 -0.1507 -0.0445  0.2121
32852SOL    HW1 4519   8.961   0.198  11.358 -1.1374 -0.3298  0.1923
32852SOL    HW2 4520   9.035   0.075  11.404  0.7177  0.6839  0.0398
32853SOL     OW 4521   8.821   2.443   3.491 -0.0149 -0.7242 -0.7418
32853SOL    HW1 4522   8.735   2.446   3.533  0.4038 -1.2979  0.1797
32853SOL    HW2 4523   8.806   2.399   3.407 -0.4725 -1.5535 -0.2291
32854SOL     OW 4524   7.896   9.899   2.019  0.1487  0.1179 -0.2543
32854SOL    HW1 4525   7.941   9.841   1.957 -1.7204 -1.1489 -0.5215
32854SOL    HW2 4526   7.862   9.970   1.964  0.3948  0.1957 -0.3091
32855SOL     OW 4527   7.453   6.892   1.541 -0.2324  0.1983  0.0355
32855SOL    HW1 4528   7.460   6.849   1.627 -0.7981 -0.8625 -0.4353
32855SOL    HW2 4529   7.544   6.903   1.513 -0.0702 -1.0236  0.0224
32856SOL     OW 4530   0.529   6.122  11.106 -0.1778  0.2329 -0.3275
32856SOL    HW1 4531   0.566   6.189  11.164 -1.3761  0.5145  0.1639
32856SOL    HW2 4532   0.500   6.171  11.029  1.2523 -0.1172 -1.1165
32857SOL     OW 4533   9.689  10.901  10.925  0.0312  0.1940 -0.2628
32857SOL    HW1 4534   9.691  10.969  10.992  0.6264 -0.0022 -0.0655
32857SOL    HW2 4535   9.609  10.851  10.943  0.1345  0.2062  0.2454
32858SOL     OW 4536   0.194   7.691   9.717  0.4110  0.1268  0.2398
32858SOL    HW1 4537   0.178   7.668   9.809  0.5298  0.5641  0.3721
32858SOL    HW2 4538   0.258   7.763   9.721 -0.8206  1.2753 -0.1153
32859SOL     OW 4539   1.969   3.701   6.344 -0.2673  0.0364 -0.6925
32859SOL    HW1 4540   1.966   3.739   6.257 -0.8317  1.5888 -0.0354
32859SOL    HW2 4541   1.956   3.608   6.330  2.2606 -0.1527 -2.4751
32860SOL     OW 4542   7.456   7.365  11.310  0.4704 -0.2864  0.1588
32860SOL    HW1 4543   7.507   7.388  11.387  2.3497  0.1491 -1.1311
32860SOL    HW2 4544   7.405   7.443  11.289  1.8600  0.4927 -0.4376
32861SOL     OW 4545   0.885   7.181  10.461  0.6000  0.2885  0.2974
32861SOL    HW1 4546   0.939   7.120  10.512  1.9723  0.4691 -0.8555
32861SOL    HW2 4547   0.876   7.258  10.517  2.6154  0.7399  0.0722
32862SOL     OW 4548   6.886   4.883   2.340  0.4440 -0.0623 -0.1754
32862SOL    HW1 4549   6.930   4.810   2.296  2.2453  0.1788  1.1473
32862SOL    HW2 4550   6.957   4.937   2.374 -0.8727  0.8105  1.3110
32863SOL     OW 4551   7.522   0.928   8.229 -0.3312 -0.2529  0.3015
32863SOL    HW1 4552   7.569   0.943   8.147  1.1517  0.4464  1.2303
32863SOL    HW2 4553   7.504   1.016   8.262  0.5511 -0.4916  1.4906
32864SOL     OW 4554   9.364  10.290   7.705  0.2842  0.0136 -0.1712
32864SOL    HW1 4555   9.418  10.213   7.686 -0.1640 -0.4097  0.2287
32864SOL    HW2 4556   9.315  10.265   7.784 -0.4683  0.3991 -0.5069
32865SOL     OW 4557   8.817   3.670   5.212  0.7217  0.5954  0.5761
32865SOL    HW1 4558   8.827   3.588   5.164  0.0948  0.8579 -0.0196
32865SOL    HW2 4559   8.880   3.730   5.171  0.1471  0.8358  0.0271
32866SOL     OW 4560   0.242   3.821   6.130 -0.2429  0.2566 -0.5620
32866SOL    HW1 4561   0.324   3.774   6.143 -0.6657 -0.0844  1.0452
32866SOL    HW2 4562   0.202   3.779   6.054  0.9120  0.2318 -1.1762
32867SOL     OW 4563   9.578  10.132  11.277  0.2562  0.4171 -0.3016
32867SOL    HW1 4564   9.624  10.052  11.253 -0.9049 -0.5826  0.6946
32867SOL    HW2 4565   9.619  10.200  11.223  1.1525 -0.8568 -1.2869
32868SOL     OW 4566  12.163   6.438   0.801  0.1557 -0.5098  0.7435
32868SOL    HW1 4567  12.169   6.533   0.812 -2.6689 -0.2732  0.9804
32868SOL    HW2 4568  12.131   6.407   0.886 -0.7814 -1.4079  0.0851
32869SOL     OW 4569   6.330   4.596   4.494  0.1412 -0.1023 -0.0374
32869SOL    HW1 4570   6.273   4.525   4.464  0.2316 -0.7124  1.2007
32869SOL    HW2 4571   6.409   4.552   4.526  0.0891  0.5200  0.9997
32870SOL     OW 4572   1.740  10.354  11.049  0.2861 -0.5280 -0.3902
32870SOL    HW1 4573   1.669  10.347  10.984 -0.0283 -0.1805 -0.0869
32870SOL    HW2 4574   1.819  10.369  10.997  0.4930 -2.9190 -0.8986
32871SOL     OW 4575  10.600   6.529   7.632 -0.5254  0.6179  0.1589
32871SOL    HW1 4576  10.647   6.523   7.715  0.8974 -1.2024 -0.6856
32871SOL    HW2 4577  10.551   6.448   7.626 -1.5037  1.2265 -0.2951
32872SOL     OW 4578   1.867   7.756   2.873 -0.1506  0.6055  0.6102
32872SOL    HW1 4579   1.867   7.719   2.785 -2.0736  2.3277 -0.1849
32872SOL    HW2 4580   1.888   7.682   2.930  0.7604 -0.6312 -1.2328
32873SOL     OW 4581   6.030  10.963   2.896  0.0575 -0.0195 -0.7166
32873SOL    HW1 4582   6.061  11.046   2.932  0.8606  0.0219 -1.4680
32873SOL    HW2 4583   6.107  10.906   2.899  0.0818 -0.0933 -2.0819
32874SOL     OW 4584   6.132   5.237   7.032 -1.0734  0.1292 -0.0652
32874SOL    HW1 4585   6.074   5.180   7.083 -1.4726  1.1402  0.6342
32874SOL    HW2 4586   6.135   5.319   7.081  1.9842 -0.2791  0.6500
32875SOL     OW 4587   8.115  10.557   0.306 -0.0390 -0.3926  0.0068
32875SOL    HW1 4588   8.061  10.636   0.302  0.6408  0.3078  2.5452
32875SOL    HW2 4589   8.134  10.536   0.215 -2.1089  1.0416 -0.8350
32876SOL     OW 4590   6.800   1.347   3.586  0.0801  0.0821  0.1762
32876SOL    HW1 4591   6.834   1.293   3.514  0.4729  0.3405  0.1675
32876SOL    HW2 4592   6.785   1.285   3.657 -0.4841 -0.2037 -0.1859
32877SOL     OW 4593   7.307   5.027   6.485  0.8377  0.0445  0.4259
32877SOL    HW1 4594   7.310   5.101   6.425 -0.4512 -0.8682 -0.8454
32877SOL    HW2 4595   7.317   5.066   6.572  0.2996  1.6969 -0.2064
32878SOL     OW 4596  10.223  11.466  11.360 -0.1141 -0.5737 -0.0838
32878SOL    HW1 4597  10.289  11.467  11.290 -0.2956  0.3313 -0.2575
32878SOL    HW2 4598  10.161  11.399  11.332  0.6632 -1.3545  0.0254
32879SOL     OW 4599   8.227  12.373  12.320 -0.4052 -0.0680  0.5015
32879SOL    HW1 4600   8.298  12.433  12.343 -0.6718  0.3675  0.1894
32879SOL    HW2 4601   8.155  12.397  12.378 -0.4152 -0.2836  0.5805
32880SOL     OW 4602   7.934   7.153   4.849 -0.6577 -0.1206  0.3114
32880SOL    HW1 4603   7.955   7.198   4.930  0.4753 -0.8193  0.4238
32880SOL    HW2 4604   7.996   7.081   4.845 -2.7020 -1.9756  0.3616
32881SOL     OW 4605   2.723  11.140  11.742  0.7498 -0.3985  0.1169
32881SOL    HW1 4606   2.662  11.207  11.711  1.5539  0.5787  0.5833
32881SOL    HW2 4607   2.697  11.061  11.696  0.3054  0.4237 -1.1037
32882SOL     OW 4608  12.351   3.369   1.793  0.3488 -0.1059  0.5068
32882SOL    HW1 4609  12.370   3.414   1.711 -0.0572 -0.0853  0.4219
32882SOL    HW2 4610  12.320   3.437   1.852 -1.8462 -0.4795 -0.1239
32883SOL     OW 4611  10.806   5.147   7.667 -0.6144  0.7693 -0.1349
32883SOL    HW1 4612  10.720   5.125   7.633 -0.0428 -1.3315 -0.3484
32883SOL    HW2 4613  10.867   5.118   7.599  0.2964  2.1320  0.0521
32884SOL     OW 4614   0.408   2.222   8.895  0.1542 -0.1909  0.5249
32884SOL    HW1 4615   0.427   2.130   8.914 -0.4937 -0.1304  1.5601
32884SOL    HW2 4616   0.313   2.225   8.886  0.3001  0.0608 -1.4272
32885SOL     OW 4617   2.327  12.311   2.287  0.2793  0.1847  0.7036
32885SOL    HW1 4618   2.390  12.383   2.293  2.0362 -1.3499  1.7960
32885SOL    HW2 4619   2.242  12.354   2.280  1.2819  2.3480  0.9705
32886SOL     OW 4620   2.636   0.882   1.068 -0.1896  0.3418 -0.2162
32886SOL    HW1 4621   2.692   0.911   1.140 -0.6013 -1.1643  0.7642
32886SOL    HW2 4622   2.560   0.843   1.111 -1.0151  0.4721 -1.4981
32887SOL     OW 4623   4.393   1.129   3.139  0.3469  0.0616 -0.1602
32887SOL    HW1 4624   4.434   1.060   3.191 -0.3447 -0.3177 -0.1056
32887SOL    HW2 4625   4.318   1.086   3.098  0.4044  0.5702 -0.8098
32888SOL     OW 4626  12.363  11.406  10.646 -0.7440 -0.1096  0.7340
32888SOL    HW1 4627  12.370  11.501  10.650  0.1783 -0.1686  0.6589
32888SOL    HW2 4628  12.275  11.387  10.679 -0.2295  0.6371  2.6788
32889SOL     OW 4629  10.030   3.677   9.451  0.1144 -0.2171  0.4779
32889SOL    HW1 4630   9.955   3.698   9.506 -0.5100  0.3262 -0.5458
32889SOL    HW2 4631  10.022   3.583   9.433  0.6605 -0.5302  1.7766
32890SOL     OW 4632   9.130   3.152   3.103  0.4775 -0.0612 -0.8869
32890SOL    HW1 4633   9.220   3.134   3.131 -0.3046 -0.3291  1.7221
32890SOL    HW2 4634   9.111   3.084   3.038  1.9225 -0.3702 -1.0209
32891SOL     OW 4635   2.929   6.228   8.879  0.1161 -0.5748  0.6917
32891SOL    HW1 4636   2.908   6.223   8.972  1.1408 -1.7676  0.8944
32891SOL    HW2 4637   2.941   6.136   8.853  1.0581 -0.1875 -0.3129
32892SOL     OW 4638  10.400  11.215   6.646 -0.4660 -0.3736  0.1881
32892SOL    HW1 4639  10.456  11.268   6.702 -1.2651  0.5584  0.1344
32892SOL    HW2 4640  10.459  11.149   6.609 -0.3381 -2.8137  4.1489
32893SOL     OW 4641   9.418   0.033   5.180 -0.5362 -0.1214 -0.2384
32893SOL    HW1 4642   9.404  -0.054   5.141  0.8608  0.0658 -1.2853
32893SOL    HW2 4643   9.370   0.032   5.262  0.1213 -2.2027  0.1766
32894SOL     OW 4644  10.833  10.407   2.599  0.0840  0.3020 -0.2069
32894SOL    HW1 4645  10.841  10.372   2.510  0.9434 -0.4703  0.1487
32894SOL    HW2 4646  10.848  10.331   2.656 -3.2963  0.1456  0.6472
32895SOL     OW 4647   8.184   9.716   9.200  0.8054 -0.4134  0.1210
32895SOL    HW1 4648   8.200   9.659   9.275  0.1877 -0.7662 -0.0016
32895SOL    HW2 4649   8.089   9.727   9.198  0.8024 -0.4690 -0.6443
32896SOL     OW 4650   9.819   2.900  10.490 -0.1399  0.0722 -0.3655
32896SOL    HW1 4651   9.850   2.881  10.579 -3.0110 -1.3614  0.4590
32896SOL    HW2 4652   9.868   2.978  10.464  0.6753  0.6708  2.5456
32897SOL     OW 4653   0.412   2.096   3.123 -0.4734  0.0874  0.1038
32897SOL    HW1 4654   0.355   2.072   3.051 -0.2007  2.0797 -0.8509
32897SOL    HW2 4655   0.364   2.070   3.202 -0.8238 -2.0065 -0.7478
32898SOL     OW 4656   8.310   7.085   7.003 -0.1760 -0.0970 -0.2720
32898SOL    HW1 4657   8.291   6.997   7.036 -0.5336 -0.1794 -0.6859
32898SOL    HW2 4658   8.343   7.132   7.080 -1.4804 -0.1365  0.3473
32899SOL     OW 4659  12.343   9.725   1.796 -0.0028  0.5809  0.4241
32899SOL    HW1 4660  12.259   9.751   1.756 -0.9701 -1.1847  1.1816
32899SOL    HW2 4661  12.383   9.807   1.823 -1.7686  1.4501  0.5626
32900SOL     OW 4662   9.355   3.167   8.416  0.4360  0.3878  0.1911
32900SOL    HW1 4663   9.289   3.197   8.478 -0.3350 -0.9044  0.0286
32900SOL    HW2 4664   9.326   3.200   8.332 -0.8948 -1.4355 -0.1292
32901SOL     OW 4665   1.966   3.904   7.086 -0.3017 -0.0275 -0.1246
32901SOL    HW1 4666   1.927   3.983   7.123 -0.5457  0.1530 -0.7498
32901SOL    HW2 4667   1.978   3.924   6.993 -0.9234 -0.9347 -0.4142
32902SOL     OW 4668   1.842   3.746   3.596 -0.1224 -0.2377  0.1157
32902SOL    HW1 4669   1.813   3.665   3.638 -0.7002 -0.2134 -0.2231
32902SOL    HW2 4670   1.799   3.745   3.510  0.2474  0.1975 -0.0784
32903SOL     OW 4671   4.084   0.845   4.242  0.0672 -0.3052  0.5234
32903SOL    HW1 4672   4.118   0.832   4.153 -0.2279  0.6605  0.2506
32903SOL    HW2 4673   4.022   0.918   4.233  3.4519  3.1469  2.2906
32904SOL     OW 4674  11.992   7.004   9.129 -0.2113  0.4045 -0.2187
32904SOL    HW1 4675  12.077   7.034   9.161 -0.4200  1.0292 -0.2196
32904SOL    HW2 4676  12.010   6.920   9.086  0.2350  0.0523  0.6468
32905SOL     OW 4677   6.272   7.704   0.347 -0.2243 -0.1985  0.0059
32905SOL    HW1 4678   6.286   7.626   0.292  0.8356 -0.9695  1.2904
32905SOL    HW2 4679   6.190   7.687   0.392 -0.8355  0.1998 -0.9412
32906SOL     OW 4680   8.289   4.988   5.861 -0.2581  0.1045  0.4182
32906SOL    HW1 4681   8.226   5.060   5.861 -0.2840  0.1108 -1.0019
32906SOL    HW2 4682   8.301   4.967   5.954  0.1458  2.2559  0.9212
32907SOL     OW 4683   0.598   5.112   7.047 -0.0801 -0.1993 -0.1310
32907SOL    HW1 4684   0.670   5.099   7.107 -0.0291  0.2622 -0.0892
32907SOL    HW2 4685   0.633   5.087   6.961  0.0005 -0.3741 -0.0469
32908SOL     OW 4686   9.780  12.185  11.632 -1.0902  0.4812  0.3621
32908SOL    HW1 4687   9.757  12.112  11.689  0.1806  0.4856  0.9113
32908SOL    HW2 4688   9.709  12.248  11.644 -0.3425  0.9904  2.8713
32909SOL     OW 4689   2.961   4.631   2.175 -0.0120  0.1966 -0.0691
32909SOL    HW1 4690   2.880   4.681   2.183 -0.6196 -0.9845  1.6617
32909SOL    HW2 4691   2.938   4.542   2.203  1.3714 -0.7434 -1.6607
32910SOL     OW 4692  11.213   2.134   9.222  0.0288 -0.0950 -0.4080
32910SOL    HW1 4693  11.233   2.131   9.316  0.6952 -0.1186 -0.5423
32910SOL    HW2 4694  11.191   2.226   9.206 -2.9478 -0.5712  0.3041
32911SOL     OW 4695   7.855   4.412   9.440  0.1010  0.4420  0.7071
32911SOL    HW1 4696   7.785   4.449   9.493 -0.1154  1.3493 -0.1746
32911SOL    HW2 4697   7.811   4.348   9.383 -0.1041  1.3347 -0.1581
32912SOL     OW 4698   9.942   9.316   9.118 -0.5680 -0.4985  0.5875
32912SOL    HW1 4699  10.027   9.335   9.158  0.8904 -2.7440 -1.2157
32912SOL    HW2 4700   9.951   9.344   9.027 -1.0457 -2.4932 -0.1165
32913SOL     OW 4701  11.218   1.403   4.225  0.4008  0.5950 -0.1038
32913SOL    HW1 4702  11.239   1.431   4.136 -0.5143 -0.6394 -0.7473
32913SOL    HW2 4703  11.161   1.471   4.260  0.4097  0.8647 -0.6140
32914SOL     OW 4704  10.398  11.320   2.550 -0.0690  0.0417 -0.0601
32914SOL    HW1 4705  10.386  11.226   2.562  0.3607 -0.1154 -0.8124
32914SOL    HW2 4706  10.324  11.360   2.595 -0.9957 -0.7129 -0.8997
32915SOL     OW 4707   0.951   1.571   3.899  0.3546 -0.8575  0.4272
32915SOL    HW1 4708   0.994   1.555   3.983  0.6087 -0.1992  0.4284
32915SOL    HW2 4709   0.864   1.533   3.909  0.1493 -0.2041  1.2262
32916SOL     OW 4710   2.950   4.048   5.080 -0.3275  0.1041 -0.2468
32916SOL    HW1 4711   2.938   4.038   5.175 -1.7587  2.3168 -0.1240
32916SOL    HW2 4712   3.008   4.124   5.071 -0.5664  0.1954 -1.1300
32917SOL     OW 4713   7.914  11.243   4.071 -0.5046  0.0459  0.0746
32917SOL    HW1 4714   7.902  11.183   3.998  0.5312  1.4435 -1.3027
32917SOL    HW2 4715   7.960  11.318   4.034  0.6557  0.5386  2.2877
32918SOL     OW 4716   0.032   9.677   6.278 -0.0566  0.0430 -0.1406
32918SOL    HW1 4717  -0.025   9.601   6.287 -0.5096  0.4966  0.9397
32918SOL    HW2 4718  -0.028   9.751   6.265  0.3847  0.2124 -1.3706
32919SOL     OW 4719   7.461  12.206   8.497  0.4022  0.5540  0.1123
32919SOL    HW1 4720   7.381  12.164   8.465  0.5245 -0.0249  0.5383
32919SOL    HW2 4721   7.494  12.255   8.422 -1.2197  2.1447  0.3680
32920SOL     OW 4722   5.346   7.679   7.944 -0.1412 -0.1898  0.0461
32920SOL    HW1 4723   5.265   7.655   7.899 -0.8391  0.7712  0.7573
32920SOL    HW2 4724   5.389   7.595   7.962 -0.9346 -0.7069 -0.4056
32921SOL     OW 4725   8.309   8.303   0.157  0.3960  0.0034 -0.0950
32921SOL    HW1 4726   8.265   8.279   0.075  0.9350  1.3445 -0.7974
32921SOL    HW2 4727   8.249   8.363   0.200 -0.8671 -2.2973  1.5783
32922SOL     OW 4728   7.096  10.893   8.562 -0.6843  0.1271 -0.3431
32922SOL    HW1 4729   7.191  10.895   8.556 -0.7142  1.2795 -0.6985
32922SOL    HW2 4730   7.067  10.860   8.477 -0.5897 -0.5426 -0.1129
32923SOL     OW 4731   0.141  10.090   9.926  0.1840 -0.2755  0.6511
32923SOL    HW1 4732   0.077  10.161   9.940 -1.0211 -1.5525  1.9064
32923SOL    HW2 4733   0.206  10.102   9.995  0.4200  0.0735  0.3695
32924SOL     OW 4734  11.417   6.166   7.541  0.1053  0.0615 -0.6453
32924SOL    HW1 4735  11.478   6.189   7.611  0.4913 -0.9435 -0.6226
32924SOL    HW2 4736  11.428   6.071   7.531 -2.0757 -0.3188 -0.0277
32925SOL     OW 4737   7.052   8.255  12.203  0.0716  0.2274 -0.5351
32925SOL    HW1 4738   6.999   8.254  12.283  1.2958  1.5528  0.3496
32925SOL    HW2 4739   7.104   8.335  12.210 -0.3101  0.7570 -3.0350
32926SOL     OW 4740   5.739   3.648  10.760  0.1439 -0.1871  0.4237
32926SOL    HW1 4741   5.834   3.649  10.743 -0.2749 -1.0579 -2.6542
32926SOL    HW2 4742   5.709   3.565  10.724 -1.8396  0.0968  1.2762
32927SOL     OW 4743   3.098   5.340   2.386  0.0826  0.4064  0.5639
32927SOL    HW1 4744   3.081   5.392   2.464 -2.5025  1.5310 -0.6412
32927SOL    HW2 4745   3.052   5.257   2.402  1.0611 -0.0765  0.9419
32928SOL     OW 4746   1.657   9.465   5.383  0.1227 -0.6347 -0.2164
32928SOL    HW1 4747   1.733   9.513   5.351 -0.9162  1.0175 -0.3293
32928SOL    HW2 4748   1.589   9.482   5.318 -0.7262 -0.9635  0.5682
32929SOL     OW 4749   1.356   8.932   5.491 -0.1394 -0.1984  0.0175
32929SOL    HW1 4750   1.335   8.891   5.407 -1.3338 -1.3792  0.8395
32929SOL    HW2 4751   1.398   8.862   5.542 -1.7536 -0.3152  1.2702
32930SOL     OW 4752   6.335  11.438   5.496 -0.1256 -0.1444 -0.7362
32930SOL    HW1 4753   6.328  11.402   5.584  1.2257 -1.4402 -1.1086
32930SOL    HW2 4754   6.363  11.528   5.508  1.5091 -0.7332  0.1571
32931SOL     OW 4755   0.051   1.057   8.566 -0.0966  0.2159  0.3556
32931SOL    HW1 4756   0.102   0.982   8.595  1.0382  0.6243 -0.4934
32931SOL    HW2 4757  -0.021   1.019   8.515 -1.1143 -0.4033  2.1704
32932SOL     OW 4758   7.062   0.116   8.141 -0.2636 -0.0684 -0.3751
32932SOL    HW1 4759   7.037   0.106   8.049  3.6212  0.7890 -1.7273
32932SOL    HW2 4760   7.047   0.208   8.160  0.7280  0.2006 -0.8325
32933SOL     OW 4761   4.646   6.226   0.227  0.1163  0.2464  0.4177
32933SOL    HW1 4762   4.736   6.237   0.257  0.2685 -1.2524  0.5699
32933SOL    HW2 4763   4.604   6.310   0.247  1.4325  0.9228  0.4589
32934SOL     OW 4764   7.343   5.772   2.190 -0.1257  0.5288  0.0813
32934SOL    HW1 4765   7.423   5.783   2.242 -0.3121  0.3788  0.4035
32934SOL    HW2 4766   7.348   5.841   2.124  0.7410 -0.0736 -0.5087
32935SOL     OW 4767   8.025   8.722   0.974  0.5913 -0.4216 -0.0843
32935SOL    HW1 4768   8.110   8.754   0.943  0.8988  1.4682  2.4499
32935SOL    HW2 4769   8.018   8.633   0.937  2.8576 -0.0079 -1.7245
32936SOL     OW 4770   0.804   4.103   2.773 -0.6479  0.4860  0.0572
32936SOL    HW1 4771   0.769   4.191   2.778  1.1517  1.2410  0.3340
32936SOL    HW2 4772   0.871   4.100   2.842  1.5318 -0.0028 -1.9510
32937SOL     OW 4773  10.539   8.149   9.632  0.0413 -0.3281 -0.7651
32937SOL    HW1 4774  10.559   8.056   9.631  0.7134 -0.2998  2.2000
32937SOL    HW2 4775  10.545   8.175   9.724 -3.5988  1.9172 -0.9383
32938SOL     OW 4776   7.710   0.404  10.519  0.0574 -0.6150  0.8965
32938SOL    HW1 4777   7.632   0.443  10.557  0.8301  1.1072  0.7749
32938SOL    HW2 4778   7.677   0.327  10.472 -1.5877  0.1757  0.6775
32939SOL     OW 4779  10.903   5.245  11.279 -1.0872  0.3147 -0.1720
32939SOL    HW1 4780  10.844   5.291  11.339 -2.1981 -1.4248  0.1546
32939SOL    HW2 4781  10.867   5.262  11.192 -1.2202  0.4605 -0.0885
32940SOL     OW 4782   3.731   6.877   1.137 -0.8889  0.3190  0.2216
32940SOL    HW1 4783   3.719   6.829   1.056 -1.7459  0.7386  0.0922
32940SOL    HW2 4784   3.665   6.946   1.135 -1.7881 -0.4361  1.8595
32941SOL     OW 4785  10.857   3.653   1.779 -0.2643 -0.1612  0.7509
32941SOL    HW1 4786  10.877   3.562   1.801 -0.3518  0.1693  2.3440
32941SOL    HW2 4787  10.942   3.692   1.757  0.5076  0.3679  4.1294
32942SOL     OW 4788   8.689   2.263   7.523  0.2698  0.1142 -0.0279
32942SOL    HW1 4789   8.650   2.347   7.503  1.9668  0.8296 -0.5461
32942SOL    HW2 4790   8.765   2.284   7.577  1.2659 -0.9516 -0.9376
32943SOL     OW 4791   7.881   2.714   6.816  0.0869  0.1564  0.3611
32943SOL    HW1 4792   7.917   2.803   6.816  0.4083  0.0570 -1.1409
32943SOL    HW2 4793   7.906   2.678   6.731 -0.0047 -1.4024  0.9584
32944SOL     OW 4794   5.829   5.697   9.958  0.3091 -0.3447  0.0427
32944SOL    HW1 4795   5.856   5.646   9.882 -0.4360  1.5008 -1.5136
32944SOL    HW2 4796   5.912   5.716  10.004  1.1344  0.7992 -1.8083
32945SOL     OW 4797   5.411   9.776   4.329 -0.1930 -0.2216  0.1342
32945SOL    HW1 4798   5.316   9.768   4.340 -0.0394 -2.7505  0.2690
32945SOL    HW2 4799   5.448   9.733   4.406  1.0039 -1.9440 -1.3253
32946SOL     OW 4800   3.757   2.201   0.915  0.9710  0.9477 -0.5262
32946SOL    HW1 4801   3.711   2.118   0.905  1.2750  0.6150  0.7291
32946SOL    HW2 4802   3.829   2.182   0.976  0.4335  2.3473  0.5926
32947SOL     OW 4803   6.241   2.956   7.710  0.1537  0.5812 -0.3469
32947SOL    HW1 4804   6.321   2.972   7.660  0.4738 -0.3137 -0.1397
32947SOL    HW2 4805   6.269   2.906   7.786 -0.7909 -1.1348 -1.0738
32948SOL     OW 4806  11.536   9.297   2.961 -0.3601 -0.1687 -0.3633
32948SOL    HW1 4807  11.568   9.363   2.900  2.3405 -0.9613  0.0515
32948SOL    HW2 4808  11.497   9.230   2.905 -1.1650  0.7375 -0.9214
32949SOL     OW 4809   6.643   6.923   5.057  0.1624  0.2971 -0.3775
32949SOL    HW1 4810   6.693   6.935   5.138 -1.4708  1.3698  0.5577
32949SOL    HW2 4811   6.694   6.967   4.990  0.3556  1.6352  0.6020
32950SOL     OW 4812   0.159  10.808  10.024  0.0737  0.0096 -0.8465
32950SOL    HW1 4813   0.234  10.858   9.993  0.3752 -0.4979 -0.9529
32950SOL    HW2 4814   0.154  10.827  10.118  1.0845 -0.8804 -0.5826
32951SOL     OW 4815   0.900   6.405  10.676  0.0905 -0.1357 -0.5693
32951SOL    HW1 4816   0.988   6.439  10.686  0.1894 -0.2073 -1.1396
32951SOL    HW2 4817   0.881   6.359  10.758  0.3427  0.4141 -0.2037
32952SOL     OW 4818   7.955   4.567   1.583 -0.3473  0.1381 -0.0163
32952SOL    HW1 4819   8.017   4.629   1.620  0.0365 -1.0747  1.4668
32952SOL    HW2 4820   7.886   4.560   1.648 -1.3199  0.3628 -0.9898
32953SOL     OW 4821   8.490   5.175   8.197  0.0114 -0.1221 -0.0572
32953SOL    HW1 4822   8.406   5.191   8.155 -0.6934  0.1481  1.3629
32953SOL    HW2 4823   8.484   5.085   8.229 -0.5463  0.4867  1.6940
32954SOL     OW 4824   3.129   8.846   2.554  0.1453 -0.0675 -0.1482
32954SOL    HW1 4825   3.206   8.819   2.604  1.3820 -0.2282 -2.0286
32954SOL    HW2 4826   3.154   8.932   2.518  0.4272 -1.1129 -2.6248
32955SOL     OW 4827   5.855   2.586   9.684 -0.3418  0.2122  0.2504
32955SOL    HW1 4828   5.794   2.650   9.719 -0.0422 -0.4445  2.1101
32955SOL    HW2 4829   5.937   2.635   9.674 -0.0383  0.0955  1.9243
32956SOL     OW 4830   3.222   0.659   5.049 -0.4942 -0.2880 -0.3244
32956SOL    HW1 4831   3.231   0.699   4.963 -0.4781 -0.2262 -0.2942
32956SOL    HW2 4832   3.205   0.733   5.108 -0.7921 -0.3596 -0.3186
32957SOL     OW 4833   3.663   5.820  11.646  0.0377 -0.2143 -0.1550
32957SOL    HW1 4834   3.654   5.909  11.679 -1.3492 -0.5596  0.5111
32957SOL    HW2 4835   3.674   5.766  11.725 -0.4248 -0.7441 -0.4373
32958SOL     OW 4836   7.352   9.653   2.358  0.7308 -0.1847 -0.1735
32958SOL    HW1 4837   7.407   9.622   2.430  0.7220 -0.4823 -0.2938
32958SOL    HW2 4838   7.395   9.732   2.327  0.2789  0.4304  0.7120
32959SOL     OW 4839   5.431   5.521   6.304 -0.4278  0.0686  0.1964
32959SOL    HW1 4840   5.469   5.448   6.354  0.0571  0.7347  0.8264
32959SOL    HW2 4841   5.337   5.508   6.311 -0.3419 -0.6015  0.1464
32960SOL     OW 4842  10.871   3.968   0.209 -0.3127 -0.1210 -0.4673
32960SOL    HW1 4843  10.923   3.899   0.167 -2.2157 -1.1997 -1.1870
32960SOL    HW2 4844  10.842   4.023   0.136 -1.2573 -0.3087 -0.2394
32961SOL     OW 4845   6.209   9.098   1.470  0.3775 -0.5779 -0.1517
32961SOL    HW1 4846   6.230   9.154   1.396 -0.0282 -0.0157  0.1539
32961SOL    HW2 4847   6.123   9.061   1.447 -0.0804  0.1512  0.3499
32962SOL     OW 4848  10.135   0.696  12.418 -0.3338 -0.3171  0.2156
32962SOL    HW1 4849  10.182   0.769  12.377 -0.2959 -0.5440 -0.1464
32962SOL    HW2 4850  10.051   0.693  12.373 -1.3659  1.0956  1.9202
32963SOL     OW 4851  10.071   9.440   9.665 -0.5146  0.3142  1.0657
32963SOL    HW1 4852   9.998   9.402   9.713  0.7365 -1.4208  1.6991
32963SOL    HW2 4853  10.083   9.526   9.704  0.0546 -0.7881  3.5218
32964SOL     OW 4854   0.516   4.890   3.285 -0.1225  0.0238  0.3235
32964SOL    HW1 4855   0.567   4.881   3.366  1.1941 -1.0060 -0.5801
32964SOL    HW2 4856   0.514   4.802   3.248 -0.6317  0.5017 -0.8199
32965SOL     OW 4857   8.664   4.915   2.543 -0.5491  0.4531 -0.1186
32965SOL    HW1 4858   8.729   4.904   2.474  0.6281  0.2083  0.9735
32965SOL    HW2 4859   8.581   4.889   2.504  0.3033 -0.9565 -1.0420
32966SOL     OW 4860   9.186   2.889   7.177  0.3329  0.0436  0.3315
32966SOL    HW1 4861   9.266   2.906   7.128 -0.1303  0.3269 -0.3414
32966SOL    HW2 4862   9.191   2.796   7.200 -0.3463 -0.6362 -1.9979
32967SOL     OW 4863   1.675   4.154   7.512  0.4276 -0.5052  0.1185
32967SOL    HW1 4864   1.704   4.089   7.449  1.2568 -1.0113  1.0059
32967SOL    HW2 4865   1.746   4.159   7.576 -0.5057 -0.1792  1.1482
32968SOL     OW 4866  12.281  12.191   1.221 -0.2028  0.1040  0.2316
32968SOL    HW1 4867  12.277  12.267   1.164 -2.9953 -0.2806 -0.2217
32968SOL    HW2 4868  12.309  12.225   1.306  0.8082  1.2228 -0.5386
32969SOL     OW 4869   1.169   3.506   3.378  0.1371  0.2843  0.3529
32969SOL    HW1 4870   1.100   3.571   3.389 -0.4413 -0.5030  1.5156
32969SOL    HW2 4871   1.130   3.439   3.322  1.1654  1.4934 -1.9779
32970SOL     OW 4872  11.680   7.257   2.965  0.0491  0.0427 -0.1651
32970SOL    HW1 4873  11.622   7.298   3.029 -0.4685  0.6184 -0.9741
32970SOL    HW2 4874  11.698   7.327   2.901  1.0605 -0.3353 -0.3136
32971SOL     OW 4875   4.554   4.964   6.588 -0.1455  0.0670 -0.1458
32971SOL    HW1 4876   4.636   5.014   6.585  0.3844 -0.8185 -1.3028
32971SOL    HW2 4877   4.490   5.020   6.545  0.0192  0.4767  0.1377
32972SOL     OW 4878   4.284   8.093   3.818  0.4735  0.0319 -0.2008
32972SOL    HW1 4879   4.329   8.157   3.763  0.1487 -2.1216 -3.2461
32972SOL    HW2 4880   4.353   8.033   3.846  0.2364 -0.4391 -0.6190
32973SOL     OW 4881   0.557   0.554  12.389  0.0359 -0.6978  0.8952
32973SOL    HW1 4882   0.551   0.526  12.297 -0.8106  0.5554  0.5288
32973SOL    HW2 4883   0.625   0.621  12.389 -0.9006  0.2881  0.8836
32974SOL     OW 4884   1.881   6.936   2.995 -0.3642 -0.0035  0.2222
32974SOL    HW1 4885   1.895   6.977   3.080  0.1951  0.4589 -0.0816
32974SOL    HW2 4886   1.786   6.935   2.984 -0.4277  0.2060  0.7170
32975SOL     OW 4887   7.761   8.970  10.183 -0.3362 -0.0039  0.1327
32975SOL    HW1 4888   7.791   8.915  10.111 -0.1803  0.8483 -0.4700
32975SOL    HW2 4889   7.674   8.935  10.205 -0.9575  0.5154 -1.3486
32976SOL     OW 4890   0.138   4.488   7.074 -0.2748 -0.0488 -0.3934
32976SOL    HW1 4891   0.202   4.478   7.004  1.0866 -1.8956  1.0138
32976SOL    HW2 4892   0.091   4.405   7.075  0.8924 -0.7569  1.9029
32977SOL     OW 4893   7.333  10.369   3.804 -0.3233  0.4213  0.4111
32977SOL    HW1 4894   7.301  10.298   3.748  0.6481 -1.5185  2.1786
32977SOL    HW2 4895   7.256  10.420   3.826 -1.4463 -1.3564  0.7876
32978SOL     OW 4896  11.761  12.472  12.023 -0.6595 -0.1621 -0.0132
32978SOL    HW1 4897  11.703  12.459  12.098  1.5899 -0.9705  1.7412
32978SOL    HW2 4898  11.782  12.384  11.994  1.1400 -0.0145  0.6817
32979SOL     OW 4899   6.963   0.515   2.156 -0.2402  0.1039  0.0307
32979SOL    HW1 4900   7.038   0.480   2.109  0.2838 -0.3892  1.1923
32979SOL    HW2 4901   6.999   0.546   2.239 -0.8655  2.4546 -0.4919
32980SOL     OW 4902  10.327  12.020   2.015 -0.0663 -0.5811  0.4280
32980SOL    HW1 4903  10.263  11.949   2.016 -0.4412 -0.2476  0.8530
32980SOL    HW2 4904  10.288  12.087   1.958 -0.4168 -0.1024  1.2061
32981SOL     OW 4905  12.116   2.720   4.552 -0.1310  0.2865  0.2793
32981SOL    HW1 4906  12.145   2.651   4.492  0.5069  0.0881  0.8032
32981SOL    HW2 4907  12.057   2.774   4.499 -0.9672 -0.8797 -0.0399
32982SOL     OW 4908   5.021   3.355   4.299  0.1463  0.3437 -0.1759
32982SOL    HW1 4909   4.988   3.277   4.343  1.3889 -0.4808 -0.6519
32982SOL    HW2 4910   4.984   3.350   4.211  0.4509  0.1198 -0.2958
32983SOL     OW 4911   9.973   1.187   9.598 -0.6142 -0.3113 -0.1081
32983SOL    HW1 4912  10.033   1.168   9.670  2.1365  1.2593 -1.7824
32983SOL    HW2 4913  10.024   1.168   9.519 -3.7011 -2.5489 -1.7691
32984SOL     OW 4914   9.902   6.150   9.683  0.1290  0.6008  0.2499
32984SOL    HW1 4915   9.882   6.061   9.713 -1.2942  0.4408 -1.0337
32984SOL    HW2 4916   9.889   6.204   9.760  0.2719 -0.2096  0.8606
32985SOL     OW 4917   3.669   4.872   0.204 -0.0491  0.2611  0.0689
32985SOL    HW1 4918   3.658   4.778   0.194  1.4466  0.0224  0.3838
32985SOL    HW2 4919   3.594   4.900   0.255 -1.5791 -0.4101 -1.7207
32986SOL     OW 4920  10.000   0.581   0.736 -0.2114 -0.6865  0.0498
32986SOL    HW1 4921  10.037   0.656   0.690  0.4972 -0.4210  1.0070
32986SOL    HW2 4922   9.920   0.559   0.688  0.2770 -0.1652 -1.0277
32987SOL     OW 4923   2.970  12.338   2.912  0.4083  0.0158  0.0493
32987SOL    HW1 4924   2.875  12.342   2.910  0.4303  0.7472 -0.0765
32987SOL    HW2 4925   2.991  12.246   2.895 -0.2801 -0.2368  0.5340
32988SOL     OW 4926   9.303   6.129   2.098  0.2203  0.4566  0.7594
32988SOL    HW1 4927   9.302   6.039   2.065 -0.4369  0.5238  0.6011
32988SOL    HW2 4928   9.386   6.134   2.147  0.6152 -0.0087  0.1666
32989SOL     OW 4929  11.772   4.057   6.968  0.2257  0.6398 -0.2933
32989SOL    HW1 4930  11.736   4.123   6.908  0.5740 -0.4767 -1.8091
32989SOL    HW2 4931  11.696   4.014   7.006 -0.0737  3.2792  2.4504
32990SOL     OW 4932   9.828   9.378   5.108  0.0120 -0.5625  0.1565
32990SOL    HW1 4933   9.849   9.304   5.165 -0.5539  0.3469  1.6233
32990SOL    HW2 4934   9.845   9.455   5.163  0.4333  0.3940 -1.2722
32991SOL     OW 4935   3.521   4.075   7.863  0.2381 -0.3098 -0.6226
32991SOL    HW1 4936   3.544   4.163   7.833  0.7443 -0.3498 -0.3635
32991SOL    HW2 4937   3.496   4.029   7.783 -0.8588  0.3061 -0.6532
32992SOL     OW 4938   7.940   0.764   3.820  0.2633  0.1600 -0.0297
32992SOL    HW1 4939   7.878   0.827   3.784  0.1022 -0.1611 -0.3173
32992SOL    HW2 4940   7.909   0.678   3.790  1.1187  0.0315 -0.5959
32993SOL     OW 4941   0.645   2.959  12.297 -0.2998 -0.1619  0.1888
32993SOL    HW1 4942   0.714   2.910  12.341 -0.1853 -0.6700 -0.5347
32993SOL    HW2 4943   0.669   2.955  12.204 -0.5476  0.8639  0.0772
32994SOL     OW 4944   0.858   2.045   6.005 -0.2499 -0.2962  0.0519
32994SOL    HW1 4945   0.903   2.011   5.928  1.0554  0.7934  0.3005
32994SOL    HW2 4946   0.909   2.122   6.031 -1.8383  0.5421  0.8110
32995SOL     OW 4947  10.788   7.622   0.786 -0.6766 -0.0845  0.3483
32995SOL    HW1 4948  10.826   7.552   0.839  1.6643  0.0960 -0.9732
32995SOL    HW2 4949  10.812   7.601   0.696 -0.4729  2.0546 -0.1649
32996SOL     OW 4950   3.169   6.129   2.374  0.2664 -0.7557 -0.1609
32996SOL    HW1 4951   3.184   6.192   2.444 -1.5539 -1.4091  0.8747
32996SOL    HW2 4952   3.248   6.075   2.372  0.0206 -1.2723  1.9912
32997SOL     OW 4953   8.197   5.019   2.100 -0.0417  0.2561 -0.3901
32997SOL    HW1 4954   8.179   4.927   2.123  0.7950  0.0670 -0.4730
32997SOL    HW2 4955   8.292   5.025   2.100 -0.0994  1.3459  0.4471
32998SOL     OW 4956   6.170   4.006   4.937  0.4464 -0.1795  0.0605
32998SOL    HW1 4957   6.088   4.052   4.956  0.3245  0.0505 -0.9528
32998SOL    HW2 4958   6.209   3.989   5.023 -0.0261  0.8775  0.4993
32999SOL     OW 4959   5.330   8.022   3.104  0.5861 -0.2683  0.9355
32999SOL    HW1 4960   5.418   8.047   3.076  0.6779 -0.0995  1.3657
32999SOL    HW2 4961   5.288   7.988   3.025  0.9834 -0.1978  0.6936
33000SOL     OW 4962   2.023   3.108   5.683  0.3886  0.1610  0.2185
33000SOL    HW1 4963   2.010   3.024   5.638 -0.9981 -0.4714  1.6976
33000SOL    HW2 4964   2.074   3.086   5.761  1.4608  0.9995 -0.2272
33001SOL     OW 4965   8.551   0.159   1.632 -0.4316 -0.2130 -0.2453
33001SOL    HW1 4966   8.629   0.108   1.611  0.2143  0.8019 -0.3546
33001SOL    HW2 4967   8.563   0.242   1.587 -1.7641 -0.1789 -0.5847
33002SOL     OW 4968   4.767   6.468   9.922  0.1921  0.5290 -0.3987
33002SOL    HW1 4969   4.692   6.474   9.863 -0.0723  1.8303  0.0320
33002SOL    HW2 4970   4.730   6.480  10.009  0.6418 -0.9045  0.0189
33003SOL     OW 4971   6.752   2.927   2.521 -0.4189 -0.4456  0.4740
33003SOL    HW1 4972   6.712   2.962   2.441  0.4983  0.0997  0.2329
33003SOL    HW2 4973   6.813   2.996   2.549  1.5195 -1.8444 -0.0726
33004SOL     OW 4974   5.436   8.786   6.684  0.0295  0.0872  0.1362
33004SOL    HW1 4975   5.404   8.816   6.769  0.2914  1.6610 -0.2880
33004SOL    HW2 4976   5.399   8.848   6.622  0.8150 -0.3378 -0.7727
33005SOL     OW 4977   7.998   5.229   0.294  0.0596  0.0468 -0.7866
33005SOL    HW1 4978   7.978   5.184   0.376 -0.0014  0.4023 -0.6038
33005SOL    HW2 4979   8.068   5.177   0.254 -0.0307 -0.2224 -0.5899
33006SOL     OW 4980  10.965   4.352   1.574 -0.0068  0.3050  0.3153
33006SOL    HW1 4981  10.932   4.439   1.550  0.1341  1.0537  2.6102
33006SOL    HW2 4982  11.051   4.368   1.610  0.3178 -0.9066  0.1202
33007SOL     OW 4983   7.703   2.058  10.464  0.1063 -0.1076  0.5210
33007SOL    HW1 4984   7.765   2.113  10.417 -0.6858 -0.3045 -0.8331
33007SOL    HW2 4985   7.696   2.097  10.550 -0.3440  1.8682 -0.3560
33008SOL     OW 4986   9.651   9.756   6.278 -0.5509  0.2805 -0.1404
33008SOL    HW1 4987   9.614   9.669   6.293 -1.8853  0.9694  0.7695
33008SOL    HW2 4988   9.715   9.767   6.348 -0.7771  0.2421  0.0738
33009SOL     OW 4989   4.980   2.662   1.250  0.3738 -0.4693  0.0851
33009SOL    HW1 4990   4.954   2.670   1.342 -1.8933 -3.3548 -0.1320
33009SOL    HW2 4991   4.909   2.705   1.202  0.2457 -1.1697 -0.3587
33010SOL     OW 4992   0.197   9.902   4.475  0.0255  0.0001  0.5531
33010SOL    HW1 4993   0.176   9.836   4.408 -1.8598  1.4272 -0.3832
33010SOL    HW2 4994   0.292   9.907   4.475  0.1190 -0.1019 -2.0469
33011SOL     OW 4995  10.684   4.360   4.311  0.5236 -0.0425  0.1907
33011SOL    HW1 4996  10.596   4.334   4.282  0.5570  2.0816 -2.2542
33011SOL    HW2 4997  10.677   4.367   4.406 -1.6251 -1.0322  0.1574
33012SOL     OW 4998   0.914   7.987   6.633  0.2195 -0.3348 -0.4599
33012SOL    HW1 4999   0.888   8.057   6.574  0.7545  0.3938  0.1586
33012SOL    HW2 5000   0.869   8.007   6.715  1.3481 -0.0153  0.0968
33013SOL     OW 5001  10.404  10.632   0.252  0.2272  0.5570 -0.4788
33013SOL    HW1 5002  10.463  10.705   0.235  0.4769  0.0556 -1.8661
33013SOL    HW2 5003  10.434  10.596   0.335 -0.0448  2.1473  0.3562
33014SOL     OW 5004   3.368   4.801  10.608 -0.1529  0.2925  0.3427
33014SOL    HW1 5005   3.374   4.838  10.520 -2.3176 -0.0523 -0.0106
33014SOL    HW2 5006   3.453   4.759  10.622 -0.5042 -1.6836 -2.5539
33015SOL     OW 5007   9.272   1.847   4.495 -0.2867 -0.0127 -0.4223
33015SOL    HW1 5008   9.266   1.858   4.590  1.5474  0.6516 -0.3316
33015SOL    HW2 5009   9.189   1.808   4.470 -1.3721  1.0935  1.2576
33016SOL     OW 5010   6.297   1.946   4.966 -0.5056  0.2930 -0.2535
33016SOL    HW1 5011   6.342   1.873   5.009 -0.3400 -0.4124 -1.5786
33016SOL    HW2 5012   6.306   2.019   5.027  1.4377 -0.1452  0.0321
33017SOL     OW 5013   9.724   3.349   8.109  0.6977  0.1359  0.4004
33017SOL    HW1 5014   9.815   3.377   8.115  0.7497  0.2103 -0.5900
33017SOL    HW2 5015   9.715   3.315   8.020 -0.3077  0.3694  0.3979
33018SOL     OW 5016  10.355   3.911   4.810  0.7740  0.1791  0.4541
33018SOL    HW1 5017  10.371   3.944   4.899 -2.3006 -1.0698  1.5952
33018SOL    HW2 5018  10.349   3.816   4.821 -0.0787  0.0440 -0.9974
33019SOL     OW 5019   5.171  10.069   8.444 -0.3165  0.0474  0.2991
33019SOL    HW1 5020   5.130   9.996   8.398 -0.4036  0.0038  0.4469
33019SOL    HW2 5021   5.148  10.146   8.392 -0.8232  0.0585  0.5417
33020SOL     OW 5022   9.544   2.737  11.641  0.7127 -0.3330 -0.0697
33020SOL    HW1 5023   9.458   2.771  11.668 -0.0327 -1.8575 -0.4200
33020SOL    HW2 5024   9.603   2.764  11.711  0.6203  3.3170 -1.1993
33021SOL     OW 5025   7.563   0.852  10.654 -0.3907  0.0508 -0.4712
33021SOL    HW1 5026   7.514   0.933  10.642  0.1869  0.2945 -1.2211
33021SOL    HW2 5027   7.618   0.845  10.577 -0.2547 -0.9397 -0.3011
33022SOL     OW 5028   0.536   4.222  12.186  0.1979 -0.2722  0.4462
33022SOL    HW1 5029   0.446   4.252  12.198 -0.1484 -1.6528  1.6322
33022SOL    HW2 5030   0.550   4.160  12.258  1.8025 -0.7582 -0.2422
33023SOL     OW 5031  12.486   6.980  11.176 -0.0339  0.0508  0.5674
33023SOL    HW1 5032  12.447   6.894  11.188  0.7024 -0.2650  0.8023
33023SOL    HW2 5033  12.430   7.024  11.113 -0.8353 -0.3276  0.9996
33024SOL     OW 5034   1.933   0.510   0.714  0.1867  0.0658  0.4146
33024SOL    HW1 5035   1.855   0.562   0.695 -0.4783 -0.4068  1.7146
33024SOL    HW2 5036   1.972   0.553   0.790  0.5596 -0.3630  0.4696
33025SOL     OW 5037  11.634   9.829   9.510 -0.3999 -0.3670 -0.4927
33025SOL    HW1 5038  11.619   9.835   9.415 -1.2787 -1.8739 -0.4819
33025SOL    HW2 5039  11.723   9.862   9.522 -0.0666 -0.6668 -1.9223
33026SOL     OW 5040   4.227   3.928   0.316  0.1995 -0.0858 -0.2807
33026SOL    HW1 5041   4.215   3.990   0.388  1.5656 -0.1417  0.0067
33026SOL    HW2 5042   4.149   3.940   0.261 -0.7512  0.1257  1.0712
33027SOL     OW 5043   4.738   3.541  11.920 -0.6729 -0.3769  0.4438
33027SOL    HW1 5044   4.725   3.538  11.825  0.1515  1.9030  0.1880
33027SOL    HW2 5045   4.764   3.452  11.943 -3.5601 -1.7264 -0.9759
33028SOL     OW 5046   4.007   4.834  10.078 -0.0966 -0.3390 -0.4029
33028SOL    HW1 5047   4.101   4.822  10.065  0.1189 -1.2021  1.6330
33028SOL    HW2 5048   3.974   4.856   9.991  2.0785  0.7179 -1.0426
33029SOL     OW 5049   5.373   9.234   1.111 -0.0639 -0.0753 -0.2750
33029SOL    HW1 5050   5.415   9.317   1.136 -0.4532  0.3493 -0.9853
33029SOL    HW2 5051   5.407   9.170   1.173  1.9053  0.1897 -0.9897
33030SOL     OW 5052  11.542   4.601   1.572  0.3430  0.4197 -0.6036
33030SOL    HW1 5053  11.583   4.517   1.554  1.7093  0.4673  1.8227
33030SOL    HW2 5054  11.449   4.587   1.554  0.5333 -1.6140 -0.2066
33031SOL     OW 5055   0.722   1.309   1.945  0.2106  0.4296  0.3230
33031SOL    HW1 5056   0.788   1.269   2.002 -1.5134 -0.5221  1.7708
33031SOL    HW2 5057   0.699   1.241   1.883 -2.0503 -0.6249  2.1986
33032SOL     OW 5058  11.872   9.191   6.718  0.1987  0.1362 -0.0535
33032SOL    HW1 5059  11.965   9.168   6.727  0.1462 -0.2467 -0.4745
33032SOL    HW2 5060  11.871   9.255   6.646  0.2825  1.0893  0.7718
33033SOL     OW 5061   5.545   5.897   0.055 -0.1518  0.3262  0.2133
33033SOL    HW1 5062   5.507   5.933  -0.025 -0.9198 -0.0135  0.4124
33033SOL    HW2 5063   5.638   5.886   0.035  0.0847  2.2425  0.0901
33034SOL     OW 5064   5.001  10.983  10.504 -0.0671  0.4158 -0.3637
33034SOL    HW1 5065   4.993  10.920  10.433 -0.5706  0.5816 -0.4548
33034SOL    HW2 5066   4.933  10.958  10.566  0.8962 -0.2434  0.4658
33035SOL     OW 5067   5.970   6.402   1.842  0.7732 -0.1604 -0.6837
33035SOL    HW1 5068   5.995   6.325   1.791 -0.1240 -2.4875  2.0880
33035SOL    HW2 5069   5.915   6.367   1.912  2.4663  2.6345  2.3167
33036SOL     OW 5070   5.231  11.769   9.681 -1.1165 -0.9242  0.3767
33036SOL    HW1 5071   5.140  11.798   9.681 -0.3127  1.8683  0.7677
33036SOL    HW2 5072   5.260  11.779   9.590 -1.1319 -1.6460  0.2855
33037SOL     OW 5073   0.165   7.559   0.844 -0.1706  0.5292 -0.4588
33037SOL    HW1 5074   0.136   7.468   0.853 -0.6342  0.7523  0.4360
33037SOL    HW2 5075   0.238   7.567   0.906  1.1203  0.2777 -1.8905
33038SOL     OW 5076   6.270   1.280   7.430  0.0379  0.3444 -0.1301
33038SOL    HW1 5077   6.184   1.261   7.466  0.6304  2.9549  3.1086
33038SOL    HW2 5078   6.255   1.349   7.365 -0.3515  0.4875  0.1133
33039SOL     OW 5079  10.538   8.765   8.635 -0.3051 -0.6083  0.3075
33039SOL    HW1 5080  10.623   8.722   8.639  0.3676  0.7150  0.7675
33039SOL    HW2 5081  10.558   8.859   8.638 -1.7038 -0.2274 -0.7843
33040SOL     OW 5082   9.793   4.330   2.935 -0.0052 -0.3313  0.2259
33040SOL    HW1 5083   9.741   4.251   2.925 -0.4370  0.1029 -1.3128
33040SOL    HW2 5084   9.856   4.327   2.863 -0.2675  0.8790 -0.0789
33041SOL     OW 5085   0.712   2.251   1.678  0.0752  0.1116 -0.1919
33041SOL    HW1 5086   0.696   2.157   1.686  0.5713  0.0318 -0.0908
33041SOL    HW2 5087   0.648   2.291   1.736 -0.7144 -0.1116 -0.8858
33042SOL     OW 5088   8.566   8.561   2.581 -0.2478 -0.5326  0.3876
33042SOL    HW1 5089   8.495   8.593   2.637  0.3929  0.2197  0.7931
33042SOL    HW2 5090   8.574   8.468   2.602 -0.2532 -0.3379  1.2807
33043SOL     OW 5091   2.952   0.655  10.258  0.8785 -0.6383  0.5032
33043SOL    HW1 5092   3.015   0.664  10.330  2.6439  1.8379 -1.1851
33043SOL    HW2 5093   3.000   0.605  10.191  0.2272 -0.6358  0.0339
33044SOL     OW 5094   5.488   9.214   0.771  0.7154  0.2793  0.2085
33044SOL    HW1 5095   5.520   9.304   0.779 -0.3156  0.5558  1.6068
33044SOL    HW2 5096   5.513   9.188   0.682  2.3977  1.3882  0.2995
33045SOL     OW 5097   2.789   2.565  10.064 -0.4473  0.1259  0.2476
33045SOL    HW1 5098   2.854   2.552  10.133  0.5901  1.5898 -0.4042
33045SOL    HW2 5099   2.705   2.563  10.109  0.1604  0.2362  1.4190
33046SOL     OW 5100   1.130   7.833   0.073  0.3091 -0.3119  0.1189
33046SOL    HW1 5101   1.069   7.893   0.116  1.2285 -0.9685  2.4968
33046SOL    HW2 5102   1.214   7.880   0.072  0.5884 -0.7970  0.1994
33047SOL     OW 5103   9.278   6.990   8.471  0.2976 -0.5537 -0.0255
33047SOL    HW1 5104   9.263   7.083   8.454  3.3976 -0.2917 -2.2194
33047SOL    HW2 5105   9.345   6.988   8.539 -0.5197 -1.2593  0.7891
33048SOL     OW 5106   9.947   3.292   2.879  0.0250 -0.5704 -0.3924
33048SOL    HW1 5107   9.988   3.284   2.793  0.3629 -1.0067 -0.1933
33048SOL    HW2 5108   9.951   3.386   2.899 -0.9556 -0.3177 -1.2856
33049SOL     OW 5109  11.918   7.629   6.712  0.2562 -0.1909 -0.3879
33049SOL    HW1 5110  11.870   7.574   6.774 -1.8991 -0.8419 -2.4690
33049SOL    HW2 5111  11.943   7.706   6.762  1.5222 -2.0432  2.0887
33050SOL     OW 5112  11.741   4.590   8.574 -0.4227 -0.2545 -0.3419
33050SOL    HW1 5113  11.776   4.539   8.647  0.8044  2.2358  0.9451
33050SOL    HW2 5114  11.656   4.550   8.554 -1.5226 -0.1838  3.4832
33051SOL     OW 5115   2.556   2.419   1.359  0.5652 -0.1381 -0.2173
33051SOL    HW1 5116   2.490   2.470   1.313  0.8877 -0.6354 -1.2528
33051SOL    HW2 5117   2.511   2.386   1.437 -0.0958  0.3979 -0.3664
33052SOL     OW 5118   3.600   6.697   9.674 -0.1517 -0.0082 -0.3024
33052SOL    HW1 5119   3.613   6.628   9.739  0.9396  0.3911 -0.0680
33052SOL    HW2 5120   3.683   6.745   9.674 -1.0308  1.5460 -0.1720
33053SOL     OW 5121   1.830   1.183   5.294 -0.3440  0.0391  0.0530
33053SOL    HW1 5122   1.868   1.118   5.352  1.8497 -0.1029 -1.4439
33053SOL    HW2 5123   1.858   1.267   5.331 -0.1041  0.0030 -0.0491
33054SOL     OW 5124   4.847   9.964   4.876  0.8304  0.1874 -0.7161
33054SOL    HW1 5125   4.901   9.904   4.823 -1.0536 -1.6669 -0.6608
33054SOL    HW2 5126   4.790  10.007   4.812  0.2056 -0.2495 -0.4571
33055SOL     OW 5127   4.592  12.430   0.312 -0.0905  0.1877  0.1043
33055SOL    HW1 5128   4.506  12.397   0.284  0.1364 -1.2839  1.0065
33055SOL    HW2 5129   4.604  12.392   0.399  0.8254  1.6227  0.6331
33056SOL     OW 5130   0.470  12.275   7.506  0.1918  0.1890 -0.5678
33056SOL    HW1 5131   0.454  12.327   7.585  0.2500 -0.5325 -0.0706
33056SOL    HW2 5132   0.491  12.188   7.539  0.2135 -0.1212 -1.3867
33057SOL     OW 5133   7.886  11.883   1.598  0.2281  0.7164 -0.2250
33057SOL    HW1 5134   7.968  11.896   1.551  0.7781  0.3765  0.6076
33057SOL    HW2 5135   7.825  11.945   1.559  1.4446  2.4019  0.4795
33058SOL     OW 5136   7.523  11.494   2.019 -0.3225 -0.4047  0.1330
33058SOL    HW1 5137   7.524  11.589   2.022 -0.6776 -0.4001  0.1443
33058SOL    HW2 5138   7.456  11.468   2.083 -0.1842 -0.6631  0.1771
33059SOL     OW 5139   9.355   8.837   3.525  0.3135  0.8134  0.2801
33059SOL    HW1 5140   9.312   8.764   3.481 -0.6609  0.6073  1.5233
33059SOL    HW2 5141   9.445   8.808   3.538 -0.7453 -1.5417  3.5124
33060SOL     OW 5142   5.226  11.875   8.863 -0.2653 -1.0494  0.3680
33060SOL    HW1 5143   5.292  11.840   8.922  0.8703 -0.8033 -0.7227
33060SOL    HW2 5144   5.143  11.841   8.897  0.2373 -0.1550  2.6403
33061SOL     OW 5145   4.420  12.045   1.775 -0.3111 -0.5741 -0.7388
33061SOL    HW1 5146   4.437  11.954   1.749  0.5044 -0.9719  1.0806
33061SOL    HW2 5147   4.336  12.041   1.820 -0.0849 -0.4956 -0.3104
33062SOL     OW 5148   1.143   7.043   1.270  0.0368 -0.2931 -0.2066
33062SOL    HW1 5149   1.238   7.056   1.277  0.3465 -2.4368  0.0780
33062SOL    HW2 5150   1.132   6.948   1.261 -2.2376 -0.4354  2.6482
33063SOL     OW 5151   2.262   7.917   3.281 -0.1099 -0.7223  0.0492
33063SOL    HW1 5152   2.248   7.925   3.376  0.5791  1.2844  0.0283
33063SOL    HW2 5153   2.357   7.911   3.271  0.0150  1.5522 -0.6023
33064SOL     OW 5154   5.317   0.578  10.525  0.0234  0.1596  0.1809
33064SOL    HW1 5155   5.272   0.503  10.486 -0.1533  2.0167 -3.6842
33064SOL    HW2 5156   5.247   0.633  10.559 -0.1944  0.3215 -0.5041
33065SOL     OW 5157   8.336   9.970   0.983  0.1397 -0.8044 -0.1325
33065SOL    HW1 5158   8.250   9.969   0.941 -0.5171  0.3329  1.1058
33065SOL    HW2 5159   8.383  10.041   0.940  0.0915 -0.7604 -0.1123
33066SOL     OW 5160   8.812  12.041   7.087 -0.0302  0.4778  0.1231
33066SOL    HW1 5161   8.812  12.007   6.998 -2.1033 -2.0424  0.9646
33066SOL    HW2 5162   8.898  12.018   7.121 -0.5012 -1.9624 -0.1335
33067SOL     OW 5163   0.193   0.804  11.240 -0.0563  0.1388 -0.3197
33067SOL    HW1 5164   0.287   0.796  11.223  0.2158 -1.3536  1.5586
33067SOL    HW2 5165   0.188   0.868  11.311 -0.3805 -0.3555  0.1091
33068SOL     OW 5166   1.589   1.915   8.029 -0.6831 -0.3183  0.1804
33068SOL    HW1 5167   1.618   1.828   8.004  0.7329  0.5094 -1.2455
33068SOL    HW2 5168   1.561   1.956   7.947  1.3762  1.4902  0.2565
33069SOL     OW 5169  10.264   3.470  12.340 -0.4455  0.1690  0.3200
33069SOL    HW1 5170  10.347   3.516  12.344 -1.3413  1.8612  0.4388
33069SOL    HW2 5171  10.199   3.535  12.369 -1.8231 -1.0393  0.0737
33070SOL     OW 5172  12.011   9.041   7.528 -0.1326 -0.2353  0.3667
33070SOL    HW1 5173  11.964   9.120   7.554  0.1311 -0.1137  0.4909
33070SOL    HW2 5174  12.086   9.073   7.478  0.0328 -0.4005  0.5063
33071SOL     OW 5175   1.360   6.688   3.193  0.4019 -0.3543 -0.1811
33071SOL    HW1 5176   1.438   6.641   3.163 -0.1060 -0.1294 -1.9161
33071SOL    HW2 5177   1.318   6.627   3.255  1.3811 -0.8989 -0.0349
33072SOL     OW 5178  11.335  10.723   5.463  0.0560  0.4922 -1.0891
33072SOL    HW1 5179  11.290  10.662   5.522 -1.1454  2.3880  0.0919
33072SOL    HW2 5180  11.267  10.753   5.403  0.7935  0.1487 -2.1150
33073SOL     OW 5181   9.876  12.317  10.996 -0.2717  0.3716 -0.4565
33073SOL    HW1 5182   9.879  12.227  10.965 -1.1404 -0.4775  1.7040
33073SOL    HW2 5183   9.958  12.328  11.044 -1.6511 -0.5895  2.3695
33074SOL     OW 5184   6.994   4.953   5.016 -0.5802  0.1775 -0.5317
33074SOL    HW1 5185   7.078   4.928   4.978  0.2102  1.2446  0.4219
33074SOL    HW2 5186   7.008   4.949   5.111 -1.8862 -0.4729 -0.3347
33075SOL     OW 5187   1.025   2.015   4.615  0.2070 -0.3284  0.3573
33075SOL    HW1 5188   1.025   1.922   4.639  1.2310 -0.4487 -0.0563
33075SOL    HW2 5189   0.948   2.025   4.559  1.3917 -1.4974 -1.6026
33076SOL     OW 5190   7.949   1.176   6.496 -0.2023 -0.3073  0.2318
33076SOL    HW1 5191   7.920   1.182   6.405  0.0363 -0.4338  0.1458
33076SOL    HW2 5192   7.956   1.082   6.512 -1.4465 -0.3213  0.7657
33077SOL     OW 5193   9.309   3.812   3.524 -0.0829  0.3713 -0.2762
33077SOL    HW1 5194   9.378   3.862   3.568 -1.3425  0.1956  2.0262
33077SOL    HW2 5195   9.228   3.856   3.548 -1.1098 -1.8349  0.5608
33078SOL     OW 5196   4.174   0.833  11.115  0.7626  0.1783 -0.1999
33078SOL    HW1 5197   4.115   0.906  11.133  0.5393 -0.4671  1.9878
33078SOL    HW2 5198   4.150   0.803  11.028 -1.5174  0.5209  0.2638
33079SOL     OW 5199   9.388   3.895   2.222  0.7617 -0.1796  0.2780
33079SOL    HW1 5200   9.426   3.965   2.274 -0.9374  0.6549  0.4513
33079SOL    HW2 5201   9.358   3.831   2.286 -1.2366  0.8008  0.3863
33080SOL     OW 5202   1.897   4.510  10.820 -0.5030  0.3426  0.2892
33080SOL    HW1 5203   1.990   4.529  10.833 -0.5685 -0.3578  2.0315
33080SOL    HW2 5204   1.892   4.414  10.822 -1.3043  0.3878  0.5755
33081SOL     OW 5205   8.042   7.390  11.746  0.2462  0.5203 -0.1522
33081SOL    HW1 5206   8.028   7.479  11.778 -0.6907  0.8619 -1.4501
33081SOL    HW2 5207   8.009   7.390  11.657 -1.8540 -1.6918  0.4961
33082SOL     OW 5208   9.961   8.826   4.164  0.3186  0.5958 -0.9839
33082SOL    HW1 5209   9.869   8.798   4.172  0.2992  0.7423 -0.7087
33082SOL    HW2 5210  10.009   8.745   4.151  0.2195  0.4600 -0.5224
33083SOL     OW 5211   3.145   5.241  11.683  0.0748 -0.2562 -0.1745
33083SOL    HW1 5212   3.217   5.233  11.746  0.2508 -2.0724 -0.5621
33083SOL    HW2 5213   3.188   5.245  11.598 -0.2530 -0.4284 -0.3483
33084SOL     OW 5214  11.077   7.040  12.348 -0.0563  0.4587  0.7464
33084SOL    HW1 5215  11.143   7.005  12.408 -0.3012 -0.6867  0.3608
33084SOL    HW2 5216  11.039   6.963  12.306  1.4462  1.2599 -2.3596
33085SOL     OW 5217   9.011   5.374   9.488 -0.1391 -0.0982 -0.0591
33085SOL    HW1 5218   9.059   5.426   9.423 -0.3678  0.5458  0.2764
33085SOL    HW2 5219   8.925   5.416   9.492  0.1092  0.3132  1.1905
33086SOL     OW 5220   9.579   8.041   5.177 -0.0874 -0.2019  0.0059
33086SOL    HW1 5221   9.546   7.965   5.225  2.5602 -0.7606  1.1227
33086SOL    HW2 5222   9.536   8.116   5.219 -3.3829 -0.9680 -1.6444
33087SOL     OW 5223   3.398   1.416   4.062 -0.5408 -0.1173 -0.1915
33087SOL    HW1 5224   3.308   1.416   4.093  0.0578 -1.6620  1.7574
33087SOL    HW2 5225   3.435   1.497   4.095 -0.7580 -0.3107  0.5449
33088SOL     OW 5226  10.999  12.064   2.193  0.1352 -0.1765 -0.3913
33088SOL    HW1 5227  10.936  11.993   2.181 -1.4418  0.7403  1.7189
33088SOL    HW2 5228  11.069  12.026   2.246 -0.0181 -0.5183 -0.4327
33089SOL     OW 5229   6.716   9.823   2.399  0.2977 -0.3233  0.1042
33089SOL    HW1 5230   6.682   9.734   2.395  1.1329 -0.6347 -0.4700
33089SOL    HW2 5231   6.654   9.875   2.348 -2.2182  0.1667  3.3671
33090SOL     OW 5232   4.442   3.689   9.635 -0.6358  0.0080 -0.1280
33090SOL    HW1 5233   4.419   3.747   9.562 -0.8913 -0.1336 -0.1599
33090SOL    HW2 5234   4.504   3.627   9.598 -0.3142  0.2957 -0.0799
33091SOL     OW 5235   7.535   1.088   5.321 -0.4927 -0.3494  0.4535
33091SOL    HW1 5236   7.562   1.109   5.411 -0.8358 -1.5232  0.8458
33091SOL    HW2 5237   7.605   1.124   5.266 -1.2312  2.1484  1.0153
33092SOL     OW 5238   3.930   1.660   1.336  0.6444  0.3227  0.5809
33092SOL    HW1 5239   3.895   1.691   1.420 -1.7458 -0.6075  0.0017
33092SOL    HW2 5240   3.870   1.695   1.271  1.3719 -0.5458 -0.5886
33093SOL     OW 5241   9.857   2.750   8.196 -0.1254 -0.7814 -0.1125
33093SOL    HW1 5242   9.778   2.747   8.142 -1.5956  0.4387  1.8280
33093SOL    HW2 5243   9.911   2.677   8.165 -0.9259 -0.2442 -3.0514
33094SOL     OW 5244   6.513   6.051   5.435 -0.4300  0.0578 -0.1282
33094SOL    HW1 5245   6.574   6.025   5.504 -0.0479 -1.0523 -0.8629
33094SOL    HW2 5246   6.557   6.028   5.353  0.8423  4.7598 -1.0805
33095SOL     OW 5247   6.649   0.580   3.409 -0.1956  0.0461  0.7486
33095SOL    HW1 5248   6.701   0.549   3.484 -1.2950  1.3751  2.1348
33095SOL    HW2 5249   6.672   0.672   3.400  0.0268 -0.1237 -0.6869
33096SOL     OW 5250  11.870   9.500  11.108  0.0344 -0.8816 -0.4963
33096SOL    HW1 5251  11.833   9.571  11.056  0.4505 -0.2909 -0.0099
33096SOL    HW2 5252  11.963   9.521  11.114  0.6000 -2.6296 -2.1670
33097SOL     OW 5253   9.784   2.332   2.878  0.4382  0.4470  0.2351
33097SOL    HW1 5254   9.865   2.380   2.894  1.5436 -1.2053 -0.2066
33097SOL    HW2 5255   9.740   2.381   2.808  2.1499  0.1244 -1.1138
33098SOL     OW 5256   2.749  11.405  10.725  0.3837 -0.7107  0.1259
33098SOL    HW1 5257   2.754  11.330  10.667  1.2003 -0.1954 -0.4927
33098SOL    HW2 5258   2.834  11.407  10.768 -0.0180 -0.7627  0.9475
33099SOL     OW 5259  12.139   6.396   9.729  0.5712  0.3050  0.0990
33099SOL    HW1 5260  12.151   6.413   9.823 -1.0587  0.7625  0.2607
33099SOL    HW2 5261  12.174   6.308   9.716 -1.1707 -0.6947  1.6465
33100SOL     OW 5262   7.606   0.388   3.809  0.2003  0.6472  0.0974
33100SOL    HW1 5263   7.639   0.321   3.749  1.8816  0.9424  0.6152
33100SOL    HW2 5264   7.545   0.341   3.866  1.4976 -0.5281  0.5734
33101SOL     OW 5265   3.689   7.475   6.961  0.2825  0.4383  0.7302
33101SOL    HW1 5266   3.692   7.535   7.036 -1.1374  0.8515  0.4784
33101SOL    HW2 5267   3.622   7.411   6.985  1.3614 -0.7296  0.7342
33102SOL     OW 5268   3.390   6.473   8.435 -0.2354 -0.3696  0.0337
33102SOL    HW1 5269   3.395   6.383   8.405 -1.5005 -0.1066 -1.0750
33102SOL    HW2 5270   3.380   6.466   8.530 -0.6357 -1.4099 -0.0766
33103SOL     OW 5271   6.099  11.504   7.970  0.1623  0.0435  0.1846
33103SOL    HW1 5272   6.041  11.462   8.034  1.4039 -0.4691  1.0108
33103SOL    HW2 5273   6.057  11.588   7.951 -1.3045 -0.6827  0.0697
33104SOL     OW 5274  11.904   8.356   3.717  0.3627  0.2959  0.2210
33104SOL    HW1 5275  11.855   8.281   3.750 -0.5186  0.3409 -0.9127
33104SOL    HW2 5276  11.943   8.395   3.795  1.2090 -1.5716  0.7829
33105SOL     OW 5277   0.526  11.660   3.043  0.3362 -0.3324 -0.3464
33105SOL    HW1 5278   0.596  11.630   2.984  2.4063  0.0775  1.7516
33105SOL    HW2 5279   0.530  11.599   3.117 -1.2679 -0.0157  0.0305
33106SOL     OW 5280   7.951   9.539   5.068  0.2142  0.3375 -0.0379
33106SOL    HW1 5281   7.977   9.447   5.057  1.1662  0.4918  0.7537
33106SOL    HW2 5282   7.997   9.567   5.147 -1.9832  0.8031  1.1454
33107SOL     OW 5283  10.773   5.135   4.866 -0.6065  0.1279  0.1686
33107SOL    HW1 5284  10.727   5.186   4.799  0.0393  2.7275  1.5867
33107SOL    HW2 5285  10.703   5.099   4.921 -1.0587 -0.0159 -0.4901
33108SOL     OW 5286  12.066   1.987  12.093 -0.3829 -0.0419  0.5385
33108SOL    HW1 5287  12.127   1.928  12.048 -0.1388  1.0636 -0.6292
33108SOL    HW2 5288  11.989   1.933  12.109 -0.8863 -0.2612 -2.1482
33109SOL     OW 5289   2.534   1.667   9.187 -0.4960 -0.0204  0.2254
33109SOL    HW1 5290   2.488   1.636   9.110  0.7087 -1.2018 -0.0700
33109SOL    HW2 5291   2.601   1.601   9.203  1.6795  1.9867  0.0948
33110SOL     OW 5292   7.973   5.163   2.188  0.4504 -0.0997 -0.1624
33110SOL    HW1 5293   8.068   5.151   2.189  0.4350 -0.6786 -1.9949
33110SOL    HW2 5294   7.942   5.112   2.262  1.3682 -2.2505 -1.1849
33111SOL     OW 5295   2.095   5.407   9.368 -0.0719  0.2896  0.7648
33111SOL    HW1 5296   2.168   5.421   9.308  0.0846 -1.5297  0.4761
33111SOL    HW2 5297   2.136   5.402   9.455 -0.2243  2.2353  0.9916
33112SOL     OW 5298   7.715   7.429   2.623 -0.9074 -0.4657  0.3275
33112SOL    HW1 5299   7.648   7.361   2.631 -2.5706  0.9471 -0.6552
33112SOL    HW2 5300   7.678   7.491   2.560  0.3963  1.4784  1.3641
33113SOL     OW 5301   2.594   6.680   4.293  0.2659  0.8138  0.1547
33113SOL    HW1 5302   2.643   6.634   4.224 -0.4619  0.0759  0.1184
33113SOL    HW2 5303   2.502   6.666   4.271  0.0144  0.3318  1.4324
33114SOL     OW 5304  10.148   1.083   9.799 -0.1283  0.5068  0.1660
33114SOL    HW1 5305  10.150   0.994   9.835 -0.1202  0.4953  0.1371
33114SOL    HW2 5306  10.174   1.139   9.872  2.4431  0.2825 -0.4767
33115SOL     OW 5307  11.629   5.713   3.804  0.1351 -0.3872  0.1178
33115SOL    HW1 5308  11.568   5.657   3.853  1.2048 -1.0748  0.6830
33115SOL    HW2 5309  11.690   5.652   3.762  1.0877  0.3289  0.4271
33116SOL     OW 5310  12.186   4.039  10.461  0.6525  0.1906  0.5208
33116SOL    HW1 5311  12.156   3.983  10.390  1.1638  0.7997 -0.1949
33116SOL    HW2 5312  12.243   3.983  10.514 -1.1130 -0.7780  1.4918
33117SOL     OW 5313   0.341   2.514   9.456 -0.4519 -0.5912 -0.0451
33117SOL    HW1 5314   0.404   2.497   9.526  1.4793  0.7779 -1.3598
33117SOL    HW2 5315   0.325   2.428   9.417  0.5744 -0.9803  0.3568
33118SOL     OW 5316  12.323   7.525   3.106  0.4734 -0.4119  0.2453
33118SOL    HW1 5317  12.387   7.482   3.050 -0.3955  0.9288 -1.9213
33118SOL    HW2 5318  12.352   7.617   3.108  0.2285 -0.3541  1.6490
33119SOL     OW 5319   2.568  10.288   0.256  0.2456  0.0287 -0.2251
33119SOL    HW1 5320   2.664  10.288   0.263  0.1663 -1.6575  1.7044
33119SOL    HW2 5321   2.545  10.197   0.241 -1.0881  0.3150 -0.0299
33120SOL     OW 5322   3.233   2.825   0.946 -0.4573  0.3288  0.0746
33120SOL    HW1 5323   3.287   2.767   0.892 -0.6437  0.7041 -0.5225
33120SOL    HW2 5324   3.169   2.766   0.987 -0.7530  0.1251 -0.6613
33121SOL     OW 5325   5.727   8.390   3.765 -0.4338 -0.1056 -0.3930
33121SOL    HW1 5326   5.815   8.355   3.758  0.8677  2.1381  2.5765
33121SOL    HW2 5327   5.721   8.453   3.694  0.9320  0.7112  0.1756
33122SOL     OW 5328   3.376   1.360   0.173  0.3982  0.2235  0.4223
33122SOL    HW1 5329   3.370   1.319   0.259  0.9412 -0.3280  0.2033
33122SOL    HW2 5330   3.292   1.339   0.131 -0.3144  1.4221  1.2039
33123SOL     OW 5331   2.063   2.869   8.466 -0.8547  0.9553 -0.3196
33123SOL    HW1 5332   2.075   2.776   8.483 -1.0017  1.2248  1.4718
33123SOL    HW2 5333   1.976   2.876   8.427 -1.1994  0.4272  0.3483
33124SOL     OW 5334   3.481   7.853   0.759  0.6965 -0.2575  0.2313
33124SOL    HW1 5335   3.489   7.944   0.787  2.7777  0.8200 -3.2928
33124SOL    HW2 5336   3.395   7.849   0.716  1.4623  0.6829 -1.4521
33125SOL     OW 5337  10.554  10.223  11.652  0.2268 -0.4040 -0.0027
33125SOL    HW1 5338  10.616  10.203  11.722 -1.6483  0.8879  2.1636
33125SOL    HW2 5339  10.601  10.286  11.597  0.5631  1.3749  2.1831
33126SOL     OW 5340   8.683   7.347   0.186 -0.3262  0.4454  0.3441
33126SOL    HW1 5341   8.610   7.407   0.197 -1.3401 -0.5652 -0.5667
33126SOL    HW2 5342   8.718   7.368   0.099  0.1314  0.5716  0.5569
33127SOL     OW 5343   8.449   7.998  12.305  0.5156 -0.0344 -0.5579
33127SOL    HW1 5344   8.491   8.073  12.263  0.9369  1.2913  1.9983
33127SOL    HW2 5345   8.497   7.987  12.387 -1.3123 -1.3306  0.4161
33128SOL     OW 5346   1.501  11.619   3.685  0.2567 -0.0028 -0.1518
33128SOL    HW1 5347   1.573  11.669   3.724  1.3661  0.1340 -2.2569
33128SOL    HW2 5348   1.543  11.548   3.637 -1.1352 -1.0382  0.0800
33129SOL     OW 5349  11.552   2.125   9.338 -0.4163 -0.3892  0.4979
33129SOL    HW1 5350  11.585   2.062   9.274  1.4718 -1.7922  2.6371
33129SOL    HW2 5351  11.613   2.199   9.332 -1.0211  0.0577 -0.1908
33130SOL     OW 5352   1.823   8.212   8.818 -0.2036 -0.1486  0.0626
33130SOL    HW1 5353   1.848   8.173   8.902  0.8581 -0.4793 -0.3891
33130SOL    HW2 5354   1.830   8.140   8.756  0.0249  0.3349 -0.4811
33131SOL     OW 5355   5.089  10.527   0.569 -0.1218 -0.1141  0.0148
33131SOL    HW1 5356   5.173  10.522   0.615 -0.2931  0.7850  0.4460
33131SOL    HW2 5357   5.112  10.515   0.477  0.5480  0.6501  0.0769
33132SOL     OW 5358   1.379   7.301   8.144 -0.2014 -0.0185  0.2827
33132SOL    HW1 5359   1.296   7.348   8.132  0.6803  1.4052 -0.6409
33132SOL    HW2 5360   1.391   7.299   8.238 -1.1328  0.0353  0.4195
33133SOL     OW 5361   2.147   0.068   7.068 -0.5558  0.0161  0.0881
33133SOL    HW1 5362   2.130   0.076   7.162 -0.1019  2.5677  0.0093
33133SOL    HW2 5363   2.242   0.063   7.061 -0.3084  3.2454 -0.3148
33134SOL     OW 5364   9.015  10.033   5.160 -0.0667 -0.0768 -0.2475
33134SOL    HW1 5365   9.092  10.065   5.113 -0.9292  1.7675 -0.5004
33134SOL    HW2 5366   8.995   9.949   5.120  1.0967 -0.0209 -0.9909
33135SOL     OW 5367   3.213   4.913   8.629 -0.4864  0.3349 -0.7310
33135SOL    HW1 5368   3.284   4.973   8.606 -0.3326  0.0064 -1.1215
33135SOL    HW2 5369   3.138   4.942   8.577 -0.2395 -0.1858 -1.3924
33136SOL     OW 5370   8.318  12.035  11.144  0.1714 -0.0772 -0.5428
33136SOL    HW1 5371   8.318  12.011  11.237  0.9255 -0.9966 -0.7563
33136SOL    HW2 5372   8.246  12.097  11.135 -0.6602 -0.8695  0.4234
33137SOL     OW 5373   4.392   4.315  11.607  0.6057 -0.1562  0.3445
33137SOL    HW1 5374   4.315   4.354  11.649  0.3308 -0.1326 -0.1640
33137SOL    HW2 5375   4.372   4.320  11.513  1.5029  0.4229  0.1766
33138SOL     OW 5376   7.989  10.846  10.195 -0.3513 -0.2997 -0.4032
33138SOL    HW1 5377   7.937  10.785  10.143  1.0884 -0.0237 -2.3143
33138SOL    HW2 5378   7.946  10.849  10.280 -1.6991 -2.2977 -0.9492
33139SOL     OW 5379   7.620   2.481   8.177 -0.6440  0.2842 -0.4149
33139SOL    HW1 5380   7.577   2.558   8.138 -0.2234  1.0357  0.5842
33139SOL    HW2 5381   7.551   2.440   8.229 -0.7505  0.2347 -0.5938
33140SOL     OW 5382  10.100   9.859   9.433  0.5390  0.6804 -0.3676
33140SOL    HW1 5383  10.142   9.774   9.422 -0.5816 -0.0345  0.5841
33140SOL    HW2 5384  10.013   9.849   9.394  0.1606  1.1771  0.3193
33141SOL     OW 5385   5.775   1.550   0.851 -0.0925  0.3586  0.4563
33141SOL    HW1 5386   5.699   1.492   0.858 -0.2196  0.1889 -1.6351
33141SOL    HW2 5387   5.739   1.631   0.815  0.4356  0.9555  1.2523
33142SOL     OW 5388   9.635  11.976   0.963 -0.0631  0.3656 -0.2088
33142SOL    HW1 5389   9.571  11.914   0.998  1.5538 -0.4836  1.4775
33142SOL    HW2 5390   9.614  11.983   0.870 -0.2628 -2.8938 -0.5387
33143SOL     OW 5391  10.868   9.282   8.249  0.3366 -0.1856  0.5224
33143SOL    HW1 5392  10.915   9.345   8.195 -0.3111 -0.5593 -0.5104
33143SOL    HW2 5393  10.936   9.224   8.283  0.6855 -0.3962 -0.5110
33144SOL     OW 5394   0.126   4.502   1.257 -0.2959  0.2953  0.4587
33144SOL    HW1 5395   0.138   4.581   1.205  0.3676 -0.4080 -0.4856
33144SOL    HW2 5396   0.165   4.523   1.342  0.3842  0.7829  0.0292
33145SOL     OW 5397   8.399  10.912  10.403  0.5527  0.3136 -0.0061
33145SOL    HW1 5398   8.338  10.859  10.454  0.2134  0.4706 -0.2460
33145SOL    HW2 5399   8.486  10.878  10.426  0.5007  1.1646  1.6094
33146SOL     OW 5400   7.787   9.745  12.076 -0.2232 -0.4666 -0.5922
33146SOL    HW1 5401   7.728   9.691  12.025 -1.7749 -1.6888  2.2706
33146SOL    HW2 5402   7.842   9.683  12.124  0.1170  0.5432  0.3756
33147SOL     OW 5403  11.595   8.441   0.929 -0.3443 -0.2379  0.4205
33147SOL    HW1 5404  11.523   8.447   0.992 -1.2365  0.4454 -0.6272
33147SOL    HW2 5405  11.631   8.529   0.925  1.2713 -0.7725  1.6869
33148SOL     OW 5406   3.366   5.842   5.000 -0.6346  0.0834 -0.7246
33148SOL    HW1 5407   3.459   5.858   4.983 -0.4222 -1.1100 -0.7905
33148SOL    HW2 5408   3.323   5.865   4.917 -0.4142  0.7210 -0.6675
33149SOL     OW 5409   6.890   3.516  12.054  0.2137 -0.2732 -0.5390
33149SOL    HW1 5410   6.917   3.425  12.062  3.2405  0.5469  0.0312
33149SOL    HW2 5411   6.913   3.541  11.964 -0.6520 -0.0690 -0.7141
33150SOL     OW 5412   3.348  11.345   9.956 -0.0701  0.7498 -0.2909
33150SOL    HW1 5413   3.318  11.413   9.895  0.5286 -1.0706 -2.7357
33150SOL    HW2 5414   3.288  11.353  10.031 -2.2719  1.6799 -2.0293
33151SOL     OW 5415   1.592   1.690   0.288 -0.1074  0.2787  0.1887
33151SOL    HW1 5416   1.605   1.599   0.316 -0.7604  0.2099  0.2805
33151SOL    HW2 5417   1.520   1.722   0.342 -0.7311  0.4514 -0.7251
33152SOL     OW 5418   9.788   0.208   2.351 -0.6203 -0.0395  0.8219
33152SOL    HW1 5419   9.710   0.198   2.297 -0.7146 -1.5681  1.1744
33152SOL    HW2 5420   9.773   0.147   2.424  1.1052 -0.7168  0.6424
33153SOL     OW 5421  10.238   9.768   1.263 -0.2895  0.0232 -0.6096
33153SOL    HW1 5422  10.228   9.846   1.209  0.3079 -1.0643 -2.3645
33153SOL    HW2 5423  10.324   9.732   1.239  0.7810  0.3637  2.2872
33154SOL     OW 5424   6.272   5.986   4.963 -0.2590  0.5322 -0.1246
33154SOL    HW1 5425   6.252   5.892   4.967 -0.5027  0.6021  0.4069
33154SOL    HW2 5426   6.350   5.991   4.908  0.9800 -0.2000  1.4584
33155SOL     OW 5427   4.523  10.073   0.507 -0.7256  0.2603  0.0106
33155SOL    HW1 5428   4.608  10.084   0.549 -0.8703  2.4970 -0.1645
33155SOL    HW2 5429   4.539  10.096   0.415 -1.6018  1.2313  0.0877
33156SOL     OW 5430   9.543   0.173   7.054  0.4784  0.1451 -0.7234
33156SOL    HW1 5431   9.485   0.248   7.049 -0.2567 -0.2572  1.0464
33156SOL    HW2 5432   9.514   0.115   6.984  0.6310  1.2081 -1.6836
33157SOL     OW 5433   5.048   8.506   6.253  0.2762  0.0475  0.4320
33157SOL    HW1 5434   5.100   8.584   6.276  0.6422  0.6370 -2.1497
33157SOL    HW2 5435   4.959   8.540   6.240  0.3119 -0.0762 -0.1237
33158SOL     OW 5436   0.248   9.646   6.445  0.1129 -0.1755 -0.4587
33158SOL    HW1 5437   0.255   9.731   6.487 -1.4325  0.1876 -0.8749
33158SOL    HW2 5438   0.182   9.658   6.376 -0.1580 -1.7049 -0.5113
33159SOL     OW 5439   0.085   7.751   8.798 -0.4055 -0.0603 -0.4005
33159SOL    HW1 5440   0.101   7.787   8.885  1.3848 -0.2048 -0.6334
33159SOL    HW2 5441   0.101   7.657   8.808 -0.2696 -0.0890 -0.8702
33160SOL     OW 5442   2.415   8.906   8.416  0.0180 -0.1305 -0.2549
33160SOL    HW1 5443   2.511   8.904   8.421 -0.0157 -0.0477  0.5007
33160SOL    HW2 5444   2.394   8.999   8.420 -0.0547 -0.0821 -1.4230
33161SOL     OW 5445   0.134   6.960   0.050 -0.4358  0.1967  0.1585
33161SOL    HW1 5446   0.113   6.901   0.122  0.8747  0.4722  0.8018
33161SOL    HW2 5447   0.180   7.033   0.091  0.6667  0.1901 -0.9922
33162SOL     OW 5448  10.878  11.977   5.964 -0.1288  0.0741 -0.3861
33162SOL    HW1 5449  10.838  11.915   6.026 -1.3452  1.1463 -0.0586
33162SOL    HW2 5450  10.805  12.011   5.913 -0.0438  3.5475  1.5194
33163SOL     OW 5451  10.644   8.647   0.896  0.2098 -0.1454 -0.2827
33163SOL    HW1 5452  10.588   8.724   0.887 -0.8999 -0.9903 -0.7671
33163SOL    HW2 5453  10.687   8.638   0.811 -0.3759 -0.5996 -0.5335
33164SOL     OW 5454   8.541   5.707   2.526 -0.2039  0.4069  0.7299
33164SOL    HW1 5455   8.510   5.796   2.538 -0.0532  0.4435  0.8532
33164SOL    HW2 5456   8.469   5.662   2.480  0.0016  0.7594  0.0652
33165SOL     OW 5457   7.942  10.671   1.599  0.2449  0.3958 -0.0332
33165SOL    HW1 5458   7.999  10.621   1.658  0.4527  0.5380 -0.1129
33165SOL    HW2 5459   7.881  10.715   1.657 -0.7618 -0.9567 -0.0289
33166SOL     OW 5460   1.299  10.988   4.295  0.0141  0.8694  0.1556
33166SOL    HW1 5461   1.208  11.017   4.296 -0.5843 -0.8667  0.0101
33166SOL    HW2 5462   1.295  10.896   4.322  1.6688  0.6111 -0.3734
33167SOL     OW 5463   2.899   8.342  10.126 -0.3132  0.2125  0.0703
33167SOL    HW1 5464   2.942   8.403  10.186 -0.2642  1.3436 -1.0651
33167SOL    HW2 5465   2.858   8.398  10.060  0.7244 -1.0008 -1.6918
33168SOL     OW 5466   1.698  10.938   1.606  0.0490  0.5703 -0.1206
33168SOL    HW1 5467   1.699  10.930   1.701 -0.3623 -1.0583 -0.2074
33168SOL    HW2 5468   1.634  10.871   1.577  0.3582  0.8464 -1.5413
33169SOL     OW 5469   0.565   2.791   5.516 -0.3579  0.2227 -0.5054
33169SOL    HW1 5470   0.656   2.761   5.513 -0.7565 -1.0344 -0.5489
33169SOL    HW2 5471   0.558   2.854   5.444  0.9068  1.6894  0.5793
33170SOL     OW 5472  11.840   3.404   3.412 -0.2737  0.0603  0.0049
33170SOL    HW1 5473  11.925   3.413   3.369 -0.4519  0.5037 -0.2617
33170SOL    HW2 5474  11.834   3.481   3.469 -1.5411  1.3789 -1.8103
33171SOL     OW 5475   0.899   6.790   4.691 -0.2595  0.1352 -0.3375
33171SOL    HW1 5476   0.991   6.765   4.692  0.0273  1.1576  0.0614
33171SOL    HW2 5477   0.861   6.743   4.617  0.6348 -0.0906 -0.6563
33172SOL     OW 5478   8.858   3.666  10.420  0.0830  0.1659  0.0212
33172SOL    HW1 5479   8.853   3.706  10.506  0.7728 -0.8706  0.5689
33172SOL    HW2 5480   8.910   3.727  10.367 -0.6454  0.9766  0.2221
33173SOL     OW 5481  10.265   2.859   5.507  0.0404 -0.0603  0.3543
33173SOL    HW1 5482  10.208   2.880   5.433 -1.1975 -2.3647  0.5547
33173SOL    HW2 5483  10.242   2.923   5.574 -3.3820 -1.6504  0.8942
33174SOL     OW 5484   2.022   8.631   1.562  0.2804  0.4755  0.5399
33174SOL    HW1 5485   1.983   8.550   1.529 -0.7195  0.7457  1.0047
33174SOL    HW2 5486   2.030   8.687   1.485  0.7024  0.0480  0.2668
33175SOL     OW 5487   8.763   1.554  11.341  0.1958 -0.2305 -0.3833
33175SOL    HW1 5488   8.717   1.637  11.350 -0.6364 -0.4436 -2.1817
33175SOL    HW2 5489   8.755   1.513  11.428 -4.6827 -1.0374 -0.9206
33176SOL     OW 5490  11.678   0.153  11.763  0.0563  0.7770 -0.1328
33176SOL    HW1 5491  11.672   0.058  11.756  1.9126  0.4172  1.9146
33176SOL    HW2 5492  11.738   0.179  11.694  1.0146  0.1824  0.4550
33177SOL     OW 5493  11.594   0.869   5.644 -0.1451 -0.2965  0.4804
33177SOL    HW1 5494  11.579   0.839   5.734 -1.6129  1.5121  0.8839
33177SOL    HW2 5495  11.634   0.955   5.653  1.7969 -1.0144 -0.6466
33178SOL     OW 5496   5.164   6.734   6.457 -0.3399  0.2322  0.6253
33178SOL    HW1 5497   5.223   6.702   6.388  1.4547  0.0031  2.1931
33178SOL    HW2 5498   5.097   6.782   6.410 -0.6111 -2.0049 -1.4863
33179SOL     OW 5499   9.411   4.567   6.822 -0.0414 -0.6989  0.6134
33179SOL    HW1 5500   9.462   4.486   6.814 -1.5436 -1.5277 -1.3825
33179SOL    HW2 5501   9.329   4.548   6.776 -0.2181  2.1447 -0.4137
33180SOL     OW 5502  10.270   6.991   4.414  0.1630 -0.9366 -0.0216
33180SOL    HW1 5503  10.217   6.991   4.494  0.2096  0.4428  0.0366
33180SOL    HW2 5504  10.298   6.900   4.403 -0.3814 -1.2624  1.1717
33181SOL     OW 5505   8.143   1.999   7.803 -0.5353 -0.0949  0.1388
33181SOL    HW1 5506   8.186   1.983   7.719  1.6395 -0.7612  1.2863
33181SOL    HW2 5507   8.074   2.062   7.784  0.5706  0.5529 -1.9733
33182SOL     OW 5508  11.129   5.720  10.773 -0.0127  0.3614  0.2814
33182SOL    HW1 5509  11.181   5.706  10.693  1.0976  0.1363  1.0109
33182SOL    HW2 5510  11.191   5.705  10.844 -0.8948  0.8998  1.1893
33183SOL     OW 5511   4.562   6.566   7.246  0.6521  0.0387  0.4632
33183SOL    HW1 5512   4.543   6.616   7.325  1.2434 -0.0021  0.6308
33183SOL    HW2 5513   4.475   6.545   7.210  0.3735 -0.3325  1.3379
33184SOL     OW 5514   8.829   7.661   6.942  0.2964  0.0594 -0.4048
33184SOL    HW1 5515   8.864   7.745   6.913 -2.5827  1.0760 -1.3613
33184SOL    HW2 5516   8.794   7.679   7.030  1.4417 -0.7298  0.2381
33185SOL     OW 5517   1.137   2.941   3.461 -0.4810 -0.7201  0.1713
33185SOL    HW1 5518   1.130   3.027   3.503  1.9216 -0.0370 -0.6793
33185SOL    HW2 5519   1.194   2.891   3.519  0.0557 -0.9209 -0.5134
33186SOL     OW 5520   7.464   9.539   9.568 -0.1062 -0.2499  0.1142
33186SOL    HW1 5521   7.384   9.532   9.516 -0.9081  0.0050  1.2739
33186SOL    HW2 5522   7.527   9.583   9.510  0.7753 -4.4683 -2.5150
33187SOL     OW 5523   6.145   1.028   1.853 -0.1355 -0.9234  0.1514
33187SOL    HW1 5524   6.108   1.002   1.937 -0.3686 -1.7278 -0.2004
33187SOL    HW2 5525   6.208   0.960   1.831 -1.3625 -1.6859 -1.1827
33188SOL     OW 5526  10.849   4.863   3.423  0.1920 -0.4029  0.4949
33188SOL    HW1 5527  10.854   4.933   3.358 -0.8177 -0.3534  0.4529
33188SOL    HW2 5528  10.771   4.813   3.398 -0.9934  0.3977  2.4295
33189SOL     OW 5529   8.431  10.912   1.800  0.1460 -0.3129  0.5816
33189SOL    HW1 5530   8.358  10.857   1.773 -1.5244  0.9706  2.2003
33189SOL    HW2 5531   8.509  10.868   1.766 -1.3346 -1.9170 -0.9145
33190SOL     OW 5532  11.985   8.485  11.373 -0.1251  0.2341 -0.4861
33190SOL    HW1 5533  11.929   8.434  11.313  1.1439 -1.7484 -0.0973
33190SOL    HW2 5534  12.061   8.508  11.320  0.1498  0.0959 -0.1521
33191SOL     OW 5535   6.418   4.003   9.664  0.0524  0.5025 -0.3220
33191SOL    HW1 5536   6.468   3.995   9.583 -0.8308 -0.3099 -0.8032
33191SOL    HW2 5537   6.374   3.919   9.674  1.7011 -0.1825  2.0728
33192SOL     OW 5538  10.540   0.053   9.835 -0.1204 -0.3873 -0.0043
33192SOL    HW1 5539  10.634   0.034   9.827 -0.3489 -1.5694 -0.1856
33192SOL    HW2 5540  10.524   0.054   9.929  0.0536 -0.2769  0.0264
33193SOL     OW 5541  12.195   5.073  11.285 -0.3648  0.4526  0.8599
33193SOL    HW1 5542  12.108   5.070  11.326 -2.4759 -0.0020 -3.0802
33193SOL    HW2 5543  12.189   5.010  11.213  2.9855  1.0122 -0.0652
33194SOL     OW 5544   5.730   2.433   0.648 -0.1652 -0.4183  0.5233
33194SOL    HW1 5545   5.645   2.467   0.622  1.1025  1.8031 -0.9738
33194SOL    HW2 5546   5.738   2.456   0.741 -1.3969 -1.1982  0.8492
33195SOL     OW 5547   2.481   6.053   0.842 -0.1944 -0.0084 -0.3403
33195SOL    HW1 5548   2.541   5.981   0.821 -0.3670 -0.1658 -0.2948
33195SOL    HW2 5549   2.524   6.100   0.913  2.1741  2.6742 -3.2759
33196SOL     OW 5550   2.089  12.178   7.978  0.2514 -0.3880 -0.7905
33196SOL    HW1 5551   2.026  12.132   7.923 -0.2333  0.1946 -0.7343
33196SOL    HW2 5552   2.161  12.199   7.920 -0.1267 -0.0354 -1.1336
33197SOL     OW 5553   7.513   3.617   9.515 -0.8504  0.1411  0.1112
33197SOL    HW1 5554   7.512   3.683   9.585 -0.0926  0.5188 -0.2226
33197SOL    HW2 5555   7.449   3.649   9.452 -0.1772  0.7992 -0.2540
33198SOL     OW 5556  10.975   9.299   6.836 -0.1965  0.1566  0.4438
33198SOL    HW1 5557  10.883   9.276   6.853  0.2311 -1.6819  0.4174
33198SOL    HW2 5558  11.003   9.343   6.916 -1.4826  2.1153 -0.0983
33199SOL     OW 5559   3.011   1.305   9.636  0.3432 -0.1947 -0.1488
33199SOL    HW1 5560   3.058   1.325   9.555 -0.2855 -0.2653 -0.5362
33199SOL    HW2 5561   3.080   1.285   9.699  0.8131 -0.8895 -0.8675
33200SOL     OW 5562  11.055  11.229   9.572  0.1117  0.4912 -0.2347
33200SOL    HW1 5563  11.083  11.320   9.562 -0.5619  0.5890 -1.4373
33200SOL    HW2 5564  10.988  11.233   9.641 -1.4589  1.2994 -1.7095
33201SOL     OW 5565   1.140   3.144   5.359 -0.2937 -0.4105  0.0078
33201SOL    HW1 5566   1.089   3.213   5.316 -0.9098 -1.2386 -0.6260
33201SOL    HW2 5567   1.207   3.120   5.294 -2.0184 -2.5664 -1.1241
33202SOL     OW 5568   2.257   9.140   2.035 -0.0806 -0.4007  0.0169
33202SOL    HW1 5569   2.269   9.096   2.119  0.6447  0.6582  0.4951
33202SOL    HW2 5570   2.162   9.154   2.029 -0.2169 -1.1505  0.2948
33203SOL     OW 5571   9.050   8.426   2.401  0.3155 -0.4370  0.0691
33203SOL    HW1 5572   9.073   8.510   2.363  1.9719 -1.1963 -0.6868
33203SOL    HW2 5573   8.976   8.395   2.349 -0.6746  0.7635  0.7056
33204SOL     OW 5574   6.002  11.775  11.422  0.2317  0.2978  0.1997
33204SOL    HW1 5575   5.913  11.785  11.456 -0.1770 -1.3297 -0.2657
33204SOL    HW2 5576   5.989  11.745  11.331  1.2762  2.0778 -0.5734
33205SOL     OW 5577  11.015   5.882  11.397  0.7129 -0.3315  0.3203
33205SOL    HW1 5578  11.067   5.943  11.449 -3.4373  3.8757  0.3141
33205SOL    HW2 5579  11.027   5.911  11.307  2.1560 -2.7038 -0.3217
33206SOL     OW 5580   3.776   2.263   3.540  0.1951 -0.1751  0.2508
33206SOL    HW1 5581   3.788   2.358   3.538  0.9003 -0.2389  0.8733
33206SOL    HW2 5582   3.699   2.250   3.595 -0.0305  0.0502 -0.0131
33207SOL     OW 5583   1.975   3.183  10.419  0.2715 -0.3337  0.2523
33207SOL    HW1 5584   1.944   3.097  10.444 -0.9059 -0.2831 -0.9091
33207SOL    HW2 5585   2.060   3.167  10.378 -0.3555 -1.0941 -0.8122
33208SOL     OW 5586   2.901  12.442   4.208 -0.5127 -0.5528 -0.2691
33208SOL    HW1 5587   2.934  12.440   4.118 -0.2800 -1.6384 -0.1816
33208SOL    HW2 5588   2.973  12.480   4.259 -0.4244 -0.4553 -0.4652
33209SOL     OW 5589   3.505   2.108   2.157 -0.1296 -0.0653 -0.1932
33209SOL    HW1 5590   3.520   2.102   2.063 -0.7618 -0.4766 -0.2788
33209SOL    HW2 5591   3.410   2.114   2.165  0.0161  2.5462  0.2972
33210SOL     OW 5592   4.586  12.355   5.198  0.3962  0.0034  0.0014
33210SOL    HW1 5593   4.600  12.267   5.233  1.5734 -0.2049 -0.9496
33210SOL    HW2 5594   4.623  12.413   5.264 -1.3882 -0.0993  1.1790
33211SOL     OW 5595   1.001   5.499   7.092  0.1903 -0.9715  0.2852
33211SOL    HW1 5596   1.046   5.583   7.083  1.8624 -1.6740  1.4895
33211SOL    HW2 5597   0.994   5.466   7.002 -2.3328  1.2764 -0.4618
33212SOL     OW 5598   6.546  11.952   4.746  0.2143  0.0624  0.4104
33212SOL    HW1 5599   6.623  12.003   4.771 -0.7226  0.8640  1.7899
33212SOL    HW2 5600   6.472  12.002   4.778 -0.7808 -1.9431  1.4640
33213SOL     OW 5601   1.681   5.026   0.431 -0.4610  0.1447  0.3449
33213SOL    HW1 5602   1.622   4.955   0.406  1.0070 -1.3411  0.9354
33213SOL    HW2 5603   1.736   5.039   0.353  1.1542 -1.3937  1.1673
33214SOL     OW 5604   9.767   5.376   7.515 -0.2061  0.4039 -0.5446
33214SOL    HW1 5605   9.682   5.350   7.551 -0.1664 -0.9409 -1.3589
33214SOL    HW2 5606   9.821   5.393   7.592 -1.1296  1.0535 -0.0127
33215SOL     OW 5607   8.731   0.075   4.473  0.3430  0.1011  0.1044
33215SOL    HW1 5608   8.817   0.107   4.446  1.5726 -3.8343 -1.4173
33215SOL    HW2 5609   8.670   0.117   4.413  1.3580  1.7450  0.1611
33216SOL     OW 5610   5.658   0.461   0.065 -0.5559  0.2391  0.0591
33216SOL    HW1 5611   5.751   0.442   0.081 -0.4896  0.4404 -0.0787
33216SOL    HW2 5612   5.636   0.408  -0.012 -0.1706  1.2685 -0.7886
33217SOL     OW 5613   6.324   4.353   9.886 -0.2207  0.0706 -0.0225
33217SOL    HW1 5614   6.271   4.324   9.812  0.9646 -1.1749 -0.4131
33217SOL    HW2 5615   6.294   4.442   9.903 -1.2639 -0.0083 -1.2937
33218SOL     OW 5616   5.210  11.167   4.740  0.1232  0.1542  0.0697
33218SOL    HW1 5617   5.211  11.227   4.815  0.2786  1.0091 -0.5999
33218SOL    HW2 5618   5.194  11.081   4.779  2.2180  0.2500  1.2950
33219SOL     OW 5619  12.122   1.776   1.096  0.3979  0.1089 -0.6384
33219SOL    HW1 5620  12.045   1.766   1.150  0.9126 -0.6318 -0.0314
33219SOL    HW2 5621  12.192   1.799   1.157  0.3193  2.6756 -1.3720
33220SOL     OW 5622   2.533   3.132   9.063  0.1173 -0.0640 -0.1877
33220SOL    HW1 5623   2.446   3.152   9.029  0.7321 -0.0935 -1.8754
33220SOL    HW2 5624   2.570   3.069   9.000  1.6619  0.5908 -0.0002
33221SOL     OW 5625  12.359   6.442   0.264 -0.2601  0.3003 -0.0304
33221SOL    HW1 5626  12.314   6.378   0.319  0.6583 -0.1090  0.2599
33221SOL    HW2 5627  12.446   6.450   0.303  0.6559 -0.4857 -1.8036
33222SOL     OW 5628   3.441   6.152  10.687 -0.3975  0.1135  0.3932
33222SOL    HW1 5629   3.358   6.181  10.724  0.9443  1.9422  2.2060
33222SOL    HW2 5630   3.497   6.138  10.763  2.0967  2.6730 -0.7852
33223SOL     OW 5631   1.670  12.229   8.036 -0.2318 -0.0218 -0.0589
33223SOL    HW1 5632   1.738  12.187   8.087 -0.8637 -0.1070  0.7349
33223SOL    HW2 5633   1.607  12.260   8.101 -0.9182  0.1109 -0.7720
33224SOL     OW 5634   2.163   3.730   9.905 -0.6134  0.4059  0.0064
33224SOL    HW1 5635   2.185   3.637   9.902 -2.0917  0.0542 -2.3372
33224SOL    HW2 5636   2.213   3.770   9.834 -1.0744  1.1424  0.0788
33225SOL     OW 5637  10.704   9.581  11.035 -0.3817  0.4228  0.7101
33225SOL    HW1 5638  10.768   9.545  10.973 -1.2317  3.2641 -2.0880
33225SOL    HW2 5639  10.741   9.664  11.062 -1.5881  0.7676  1.3746
33226SOL     OW 5640   1.200  11.366   2.944 -0.4661  0.0297  0.3858
33226SOL    HW1 5641   1.276  11.424   2.936  0.1023 -0.5740  1.2303
33226SOL    HW2 5642   1.183  11.361   3.038 -2.2303  0.9858  0.1739
33227SOL     OW 5643   4.186   7.813   6.450  0.4665 -0.7425  0.3352
33227SOL    HW1 5644   4.163   7.791   6.360  0.5159 -2.1782  0.6394
33227SOL    HW2 5645   4.126   7.883   6.475 -0.8638 -1.6511 -0.1971
33228SOL     OW 5646  12.091  11.754   1.978 -1.0076  0.2043 -0.4181
33228SOL    HW1 5647  12.078  11.678   2.035  1.0185  0.8905  1.1108
33228SOL    HW2 5648  12.032  11.820   2.012 -0.5931  0.2551  0.2186
33229SOL     OW 5649   5.188  11.204   0.291  0.2407 -0.2168  0.4207
33229SOL    HW1 5650   5.264  11.263   0.284 -0.4824  0.8649  1.3854
33229SOL    HW2 5651   5.116  11.261   0.316 -0.5022 -1.5139  1.3355
33230SOL     OW 5652  10.514   3.043  11.413  0.1134  0.2295 -0.3482
33230SOL    HW1 5653  10.543   2.956  11.440  0.2597  0.3840 -0.0006
33230SOL    HW2 5654  10.421   3.032  11.393  0.1845 -0.0568 -0.5315
33231SOL     OW 5655   2.104   5.503  10.834 -0.1451 -0.0338  0.0230
33231SOL    HW1 5656   2.025   5.558  10.839 -0.1008 -0.0392  0.8406
33231SOL    HW2 5657   2.083   5.427  10.887 -0.0925 -0.6856 -0.8651
33232SOL     OW 5658   4.175  11.962   1.868  0.9190  0.0115  0.6084
33232SOL    HW1 5659   4.109  12.009   1.816  0.0869  0.8159  2.3091
33232SOL    HW2 5660   4.150  11.870   1.858 -0.6842  0.3103  1.4318
33233SOL     OW 5661  10.776   3.552   8.372 -0.2678 -0.6434 -0.6667
33233SOL    HW1 5662  10.733   3.609   8.308 -0.9331  0.1290  0.4358
33233SOL    HW2 5663  10.765   3.597   8.456  0.1104 -1.8863  0.0829
33234SOL     OW 5664   8.853  12.337  11.508  0.1995  0.5991 -0.1985
33234SOL    HW1 5665   8.839  12.432  11.503  0.3964  0.7786  1.7270
33234SOL    HW2 5666   8.834  12.315  11.599 -0.1905 -1.2899 -0.7004
33235SOL     OW 5667   9.612   1.134   6.633  0.1371  0.4576  1.0086
33235SOL    HW1 5668   9.667   1.056   6.641 -1.1063 -0.5329  0.2088
33235SOL    HW2 5669   9.674   1.207   6.640  1.5455 -0.6122  0.3084
33236SOL     OW 5670   0.339   5.157   7.746  0.2060 -0.4575  0.3683
33236SOL    HW1 5671   0.382   5.242   7.753 -0.2942 -0.0619 -0.9934
33236SOL    HW2 5672   0.410   5.096   7.726  0.5539 -0.3577  1.2621
33237SOL     OW 5673   3.664   4.507   3.291  0.5110  0.2742  0.1971
33237SOL    HW1 5674   3.649   4.468   3.205 -2.5053  0.6424  0.4464
33237SOL    HW2 5675   3.650   4.435   3.352  0.1521  0.5883  0.4809
33238SOL     OW 5676   4.458  12.040   3.834 -0.3026  0.2810  0.4653
33238SOL    HW1 5677   4.517  12.023   3.907 -0.2895 -1.0032  0.1765
33238SOL    HW2 5678   4.512  12.088   3.770  0.5857 -1.2408  0.0206
33239SOL     OW 5679   8.569   9.043   0.444 -0.0334 -0.1974  0.3682
33239SOL    HW1 5680   8.621   9.097   0.384 -0.7384  0.7962  0.6405
33239SOL    HW2 5681   8.634   8.990   0.491  0.6087 -0.1520 -0.4440
33240SOL     OW 5682  10.809   5.658   2.002 -0.4389  0.3332 -0.1648
33240SOL    HW1 5683  10.864   5.675   1.925  0.1560 -0.0136  0.1785
33240SOL    HW2 5684  10.729   5.706   1.984 -1.5270 -2.0322 -2.4006
33241SOL     OW 5685   2.080   1.094   2.087 -0.2743 -0.0410  0.0027
33241SOL    HW1 5686   1.997   1.112   2.131 -0.3511 -0.9870  0.2794
33241SOL    HW2 5687   2.108   1.178   2.052  0.2538  0.9417  2.6161
33242SOL     OW 5688   5.405   5.665   0.095 -0.4081  0.2649  0.0855
33242SOL    HW1 5689   5.477   5.728   0.093  0.6874 -0.9127  0.5193
33242SOL    HW2 5690   5.333   5.709   0.050  0.9902  0.9857 -1.5764
33243SOL     OW 5691   1.855   9.058   6.748  0.6662  0.2775  0.6875
33243SOL    HW1 5692   1.834   9.096   6.833  0.6388  1.7084  0.0758
33243SOL    HW2 5693   1.943   9.091   6.728 -0.0984  1.6746 -0.7036
33244SOL     OW 5694   0.848   7.610   9.627  0.3719 -0.6415  0.1559
33244SOL    HW1 5695   0.848   7.701   9.597 -2.7906 -0.8417 -0.7539
33244SOL    HW2 5696   0.873   7.615   9.719  2.3837  0.8568 -0.4050
33245SOL     OW 5697   7.087  11.836   1.684  0.2757  0.2459 -0.0506
33245SOL    HW1 5698   7.162  11.799   1.638  0.1481  0.2423 -0.2592
33245SOL    HW2 5699   7.015  11.828   1.621 -0.2003 -0.9485  0.6153
33246SOL     OW 5700   9.613   7.896  11.056  0.2345  0.2344 -0.6226
33246SOL    HW1 5701   9.548   7.829  11.077  1.7003 -1.1379 -0.1563
33246SOL    HW2 5702   9.633   7.883  10.964  0.2149  0.3087 -0.6371
33247SOL     OW 5703   0.024  10.934  10.963 -0.4232  0.1608  0.0712
33247SOL    HW1 5704   0.034  10.847  10.926  0.1274  0.9342 -1.7382
33247SOL    HW2 5705  -0.059  10.966  10.928 -0.7882  0.2509  0.9931
33248SOL     OW 5706   8.335   2.394   8.147 -0.5003 -0.0065 -0.2163
33248SOL    HW1 5707   8.365   2.303   8.151 -1.2249 -0.2355  0.3208
33248SOL    HW2 5708   8.402   2.444   8.191 -1.3286 -0.6330  1.8770
33249SOL     OW 5709   7.624   1.561   0.005  0.3941  0.0803 -0.3250
33249SOL    HW1 5710   7.588   1.507   0.076 -3.0947  1.1962 -1.0876
33249SOL    HW2 5711   7.606   1.511  -0.075 -1.0795  1.3844 -0.8609
33250SOL     OW 5712   6.844   3.419   3.833  0.0692 -0.1638  0.3273
33250SOL    HW1 5713   6.886   3.424   3.747 -0.6076 -2.7430 -0.2351
33250SOL    HW2 5714   6.776   3.487   3.831 -0.8184 -1.0568 -1.7189
33251SOL     OW 5715   6.753  10.388   3.775  0.5217  0.0559 -0.0145
33251SOL    HW1 5716   6.833  10.406   3.824  1.3139 -0.2296 -1.1553
33251SOL    HW2 5717   6.686  10.441   3.819  1.2474  0.0236  1.1828
33252SOL     OW 5718   6.480   0.287   8.143 -0.0940 -0.3280  0.0067
33252SOL    HW1 5719   6.425   0.209   8.150 -0.4075 -0.4375 -2.6910
33252SOL    HW2 5720   6.420   0.360   8.155 -0.3602 -0.4763 -0.4097
33253SOL     OW 5721   4.207   1.099   7.412  0.0606  0.4418  0.5333
33253SOL    HW1 5722   4.232   1.167   7.475  1.0338  0.5972 -0.0077
33253SOL    HW2 5723   4.189   1.022   7.466  1.0891  0.5141  0.9991
33254SOL     OW 5724   8.542   5.697   4.176 -0.3023  0.0439 -0.6194
33254SOL    HW1 5725   8.508   5.768   4.231 -0.9988 -0.9346  0.2468
33254SOL    HW2 5726   8.470   5.678   4.116  0.3542  0.9162 -1.7289
33255SOL     OW 5727   7.865   8.363   0.754 -0.7056 -0.4171 -0.5844
33255SOL    HW1 5728   7.817   8.368   0.671 -1.4581  2.1712 -0.0865
33255SOL    HW2 5729   7.822   8.428   0.810  1.0113 -0.7244  1.1866
33256SOL     OW 5730   3.338   4.400   3.362 -0.4590 -0.1683  0.4756
33256SOL    HW1 5731   3.258   4.354   3.337 -0.1933 -0.1510 -0.4339
33256SOL    HW2 5732   3.406   4.360   3.308  0.2897 -0.6900  1.7577
33257SOL     OW 5733   7.244   8.975   8.154 -0.1814  0.2345 -0.3124
33257SOL    HW1 5734   7.252   8.999   8.062 -1.7715  0.4931 -0.4220
33257SOL    HW2 5735   7.275   8.884   8.158 -0.3130  0.1422 -1.1523
33258SOL     OW 5736   1.603  11.934   2.998 -0.1939 -0.0119  0.4590
33258SOL    HW1 5737   1.674  11.966   3.053  0.4466  1.3310 -1.0505
33258SOL    HW2 5738   1.525  11.977   3.033  0.2975  1.3253 -0.0086
33259SOL     OW 5739   9.271  11.731   0.202 -0.6657  0.6240  0.2405
33259SOL    HW1 5740   9.194  11.687   0.165 -0.7511  1.0866 -0.1552
33259SOL    HW2 5741   9.345  11.687   0.161 -0.7595  1.1000 -0.4816
33260SOL     OW 5742  12.117   2.552   3.617 -0.4656 -0.5520 -0.2165
33260SOL    HW1 5743  12.180   2.615   3.654 -1.4543  0.8959 -0.8776
33260SOL    HW2 5744  12.167   2.472   3.605  1.5436  0.7850 -1.5604
33261SOL     OW 5745   0.332   3.894   9.914  0.3234 -0.3137  0.6331
33261SOL    HW1 5746   0.379   3.924   9.992 -0.9471 -1.0447  1.7218
33261SOL    HW2 5747   0.268   3.963   9.897  0.4430 -0.2667  0.3626
33262SOL     OW 5748   4.733   7.141   3.143 -0.2506 -0.2683 -0.5432
33262SOL    HW1 5749   4.669   7.114   3.208  1.7688 -1.9816  0.8662
33262SOL    HW2 5750   4.750   7.233   3.161  0.1234 -0.6680  1.2738
33263SOL     OW 5751   1.523   5.182   7.836 -0.4012 -0.5339  0.0748
33263SOL    HW1 5752   1.596   5.244   7.829 -0.3350 -0.6756 -0.4911
33263SOL    HW2 5753   1.458   5.228   7.890 -0.1416 -0.1707  0.0808
33264SOL     OW 5754   9.914   6.155   7.805 -0.1748  0.5096 -0.6054
33264SOL    HW1 5755  10.001   6.137   7.770 -0.1953 -0.8033 -0.0365
33264SOL    HW2 5756   9.891   6.241   7.770  2.7334  2.5016  1.8378
33265SOL     OW 5757  10.513   4.958   6.736  0.1442 -0.3769  0.3705
33265SOL    HW1 5758  10.493   4.986   6.647 -0.5905 -0.2619  0.5645
33265SOL    HW2 5759  10.472   4.873   6.745  0.1243 -0.3403  0.6362
33266SOL     OW 5760   3.413   4.465   7.093 -0.7371 -0.3728  0.2193
33266SOL    HW1 5761   3.347   4.396   7.104 -1.0878  0.1662  1.6419
33266SOL    HW2 5762   3.473   4.453   7.167 -0.4541  0.4659  0.1363
33267SOL     OW 5763   9.918   1.664   3.438 -0.3526 -0.6058  0.1105
33267SOL    HW1 5764  10.010   1.655   3.413 -0.2198  0.8568 -0.0143
33267SOL    HW2 5765   9.893   1.577   3.469  0.8273 -1.2405 -0.6467
33268SOL     OW 5766  12.454   5.704   1.372 -0.5193 -0.6793 -0.2422
33268SOL    HW1 5767  12.528   5.762   1.391  0.3487 -1.2229 -1.7493
33268SOL    HW2 5768  12.387   5.727   1.437  0.1200  1.3995 -0.2618
33269SOL     OW 5769   1.017  11.529   1.270  0.0462  0.0422  0.4110
33269SOL    HW1 5770   0.937  11.569   1.235 -0.6456 -2.8037 -1.6859
33269SOL    HW2 5771   1.056  11.597   1.324 -3.5333  1.7419  1.1967
33270SOL     OW 5772  10.298   3.505  12.055 -0.1345  0.1660  0.4833
33270SOL    HW1 5773  10.282   3.464  12.140  0.4679  0.9326  0.9819
33270SOL    HW2 5774  10.233   3.465  11.996  0.7288 -1.8548  0.8089
33271SOL     OW 5775   3.531   5.911   6.299  0.5700 -0.6921 -0.3158
33271SOL    HW1 5776   3.470   5.982   6.276  1.9699  0.3204 -1.0379
33271SOL    HW2 5777   3.493   5.871   6.377  0.3558  1.6750  0.8765
33272SOL     OW 5778  11.245  11.606   8.229  0.1245 -0.3292  0.2664
33272SOL    HW1 5779  11.172  11.628   8.288 -0.5962  1.3816 -1.1908
33272SOL    HW2 5780  11.285  11.690   8.208  2.3117 -1.1899  0.6710
33273SOL     OW 5781   2.649   6.048  11.599  0.1446 -0.1842  0.5850
33273SOL    HW1 5782   2.691   6.066  11.683 -0.4895 -0.1453  0.8928
33273SOL    HW2 5783   2.557   6.068  11.612 -0.1940 -1.4162  0.2654
33274SOL     OW 5784   7.250   8.638   8.868 -0.6349 -0.2836  0.3879
33274SOL    HW1 5785   7.329   8.655   8.816 -1.7551  1.1351 -0.9304
33274SOL    HW2 5786   7.253   8.544   8.884  0.0383 -0.7184 -1.8347
33275SOL     OW 5787   9.528   5.345   7.637 -0.1963 -0.5387  0.2685
33275SOL    HW1 5788   9.540   5.346   7.732 -0.8123 -0.0990  0.3504
33275SOL    HW2 5789   9.436   5.323   7.625 -0.8226  2.0147 -0.1286
33276SOL     OW 5790   7.601   5.818   4.731 -0.1004  0.0643 -0.5335
33276SOL    HW1 5791   7.514   5.791   4.760 -0.6855  1.3182 -1.0608
33276SOL    HW2 5792   7.656   5.810   4.809 -1.0419  0.7911  0.2229
33277SOL     OW 5793   5.655  10.189   2.601 -0.6542 -0.1544  0.3908
33277SOL    HW1 5794   5.733  10.243   2.597 -1.1977  0.6625  0.5443
33277SOL    HW2 5795   5.661  10.143   2.685 -0.4746  0.1224  0.5313
33278SOL     OW 5796  10.165   2.629   8.045  0.1589 -0.1457 -0.9833
33278SOL    HW1 5797  10.090   2.570   8.049  0.3645 -0.3609  0.0832
33278SOL    HW2 5798  10.238   2.577   8.079  0.7280  0.1606 -1.7241
33279SOL     OW 5799   8.898   0.376   4.617  0.0257 -0.0504 -0.4367
33279SOL    HW1 5800   8.907   0.456   4.669 -2.6133 -0.2760  0.5237
33279SOL    HW2 5801   8.804   0.356   4.620  0.6553 -3.6140  0.0380
33280SOL     OW 5802   0.140   6.597   4.916 -0.0475 -0.3104 -0.2325
33280SOL    HW1 5803   0.066   6.553   4.957  0.8225 -1.3956  0.2147
33280SOL    HW2 5804   0.208   6.598   4.983  0.8465 -0.6805 -1.1005
33281SOL     OW 5805   5.904   8.394   1.009  0.4729  0.8454 -0.4093
33281SOL    HW1 5806   5.908   8.486   0.982 -0.0146  0.7550 -0.7892
33281SOL    HW2 5807   5.934   8.345   0.933  0.1790  0.6529 -0.4016
33282SOL     OW 5808   4.495  10.404   6.666 -0.2254 -0.2353  0.0971
33282SOL    HW1 5809   4.462  10.347   6.597  1.6171 -1.9508  0.5436
33282SOL    HW2 5810   4.553  10.466   6.621 -1.3543  0.6166 -0.2360
33283SOL     OW 5811   5.047   2.324   0.836 -0.1091 -0.3468 -0.6346
33283SOL    HW1 5812   4.995   2.248   0.861  0.9529 -0.5491  1.1288
33283SOL    HW2 5813   5.069   2.367   0.918  2.4938 -0.2946 -1.2584
33284SOL     OW 5814   0.606   8.262   5.295 -0.9207 -0.0449  0.4110
33284SOL    HW1 5815   0.654   8.288   5.373 -1.1035 -0.0493  0.5247
33284SOL    HW2 5816   0.514   8.274   5.317 -0.9542  0.4716  0.0079
33285SOL     OW 5817   9.082  11.097   0.663  0.3795  0.1210 -0.0882
33285SOL    HW1 5818   9.036  11.025   0.622 -0.4900  0.6603 -0.0876
33285SOL    HW2 5819   9.095  11.069   0.754 -0.6528  0.2708  0.1186
33286SOL     OW 5820  11.521   1.854   5.720 -0.1479  0.2341  0.0985
33286SOL    HW1 5821  11.427   1.872   5.715 -0.8472 -2.6754  0.6242
33286SOL    HW2 5822  11.534   1.780   5.660  1.0984 -1.5950  2.4693
33287SOL     OW 5823   8.165  12.202   6.585 -0.5705 -0.2523  0.2354
33287SOL    HW1 5824   8.199  12.209   6.496  1.3550 -0.6442  0.8825
33287SOL    HW2 5825   8.182  12.287   6.624 -2.8400  0.4609 -0.1708
33288SOL     OW 5826   4.465  12.211   1.568  0.7122 -0.3307 -0.2149
33288SOL    HW1 5827   4.418  12.163   1.499  2.2129 -2.4511  0.1378
33288SOL    HW2 5828   4.432  12.175   1.650 -2.6035  3.6054  0.5126
33289SOL     OW 5829   9.451   8.725   6.623  0.3059  0.0614 -0.0172
33289SOL    HW1 5830   9.382   8.755   6.682 -0.4608 -0.8256 -0.4357
33289SOL    HW2 5831   9.412   8.650   6.578  1.1525  0.2424 -1.0750
33290SOL     OW 5832   8.556   4.742   5.929 -0.4456 -0.6389  0.2748
33290SOL    HW1 5833   8.504   4.813   5.967  1.1552  1.3041 -0.9720
33290SOL    HW2 5834   8.580   4.688   6.004 -0.7169  0.8119  1.4639
33291SOL     OW 5835  11.330   1.728   7.233  0.5460  0.5053 -0.1240
33291SOL    HW1 5836  11.303   1.666   7.300  2.6490  0.1064  0.4203
33291SOL    HW2 5837  11.249   1.773   7.208 -0.3013  0.7156  2.6990
33292SOL     OW 5838   0.190   4.086   1.487 -0.0327  0.1289 -0.4053
33292SOL    HW1 5839   0.193   4.149   1.558  0.6303 -1.4305  1.0134
33292SOL    HW2 5840   0.128   4.123   1.424 -0.6288  1.5433  0.9703
33293SOL     OW 5841   1.728   8.502  11.215  0.0844  0.0848  0.2069
33293SOL    HW1 5842   1.767   8.451  11.144  2.6336 -0.8982  2.1684
33293SOL    HW2 5843   1.759   8.591  11.201  2.3347 -0.4935  1.1502
33294SOL     OW 5844  11.020   3.028   5.004  0.0745 -0.3030  0.4828
33294SOL    HW1 5845  11.028   3.060   4.914 -0.8103 -0.4139  0.3532
33294SOL    HW2 5846  10.976   2.943   4.996  0.3541 -0.5007  0.9928
33295SOL     OW 5847   0.539   9.676   2.172 -0.1354  0.6317  0.1863
33295SOL    HW1 5848   0.493   9.716   2.098  0.0155  0.0031 -0.2624
33295SOL    HW2 5849   0.558   9.748   2.231  0.5178  1.2879 -0.7992
33296SOL     OW 5850   7.967   8.997   8.719  0.0949  0.1617 -0.1395
33296SOL    HW1 5851   8.048   9.041   8.745  0.8121 -1.5994  0.7757
33296SOL    HW2 5852   7.915   8.992   8.799 -1.4651  2.2745 -0.9526
33297SOL     OW 5853   4.721   5.603  11.553 -0.3021  0.1896 -0.2430
33297SOL    HW1 5854   4.629   5.583  11.536 -0.1490 -0.3514 -0.4565
33297SOL    HW2 5855   4.736   5.687  11.510 -1.0165  0.9019  0.8543
33298SOL     OW 5856   4.534   6.443  10.225 -0.6212  0.4612 -0.5134
33298SOL    HW1 5857   4.597   6.378  10.195  1.6510  1.7859  1.1277
33298SOL    HW2 5858   4.455   6.392  10.246  0.6839 -1.6102 -0.3589
33299SOL     OW 5859  10.611   3.173   0.223  0.1312  0.2107 -0.0137
33299SOL    HW1 5860  10.626   3.173   0.317  0.6349 -0.5415 -0.0846
33299SOL    HW2 5861  10.618   3.265   0.198  3.5374  0.1348  0.1830
33300SOL     OW 5862   4.993   6.191   7.017  0.4999  0.0045  0.3952
33300SOL    HW1 5863   4.999   6.104   7.056 -0.6501  0.0015  0.5933
33300SOL    HW2 5864   4.937   6.179   6.940 -0.0541  0.6455  0.6874
33301SOL     OW 5865  10.036  11.841  12.279 -0.3255  0.4253 -0.3510
33301SOL    HW1 5866  10.031  11.847  12.184  0.1740  1.1242 -0.3358
33301SOL    HW2 5867  10.079  11.922  12.306  0.3743 -0.1798  0.3990
33302SOL     OW 5868   1.892   8.771   2.290 -0.6082  0.1823 -0.5474
33302SOL    HW1 5869   1.956   8.730   2.348  1.3684  1.5392 -1.6677
33302SOL    HW2 5870   1.831   8.815   2.350  0.2931  0.0080  0.5416
33303SOL     OW 5871   5.779   6.796   6.896 -0.3794 -1.0447 -0.5949
33303SOL    HW1 5872   5.860   6.837   6.867  1.0646 -1.0245  2.9981
33303SOL    HW2 5873   5.710   6.845   6.851  1.4553  2.0306 -0.3268
33304SOL     OW 5874  10.681   9.027   4.376  0.3824 -0.0342  0.2517
33304SOL    HW1 5875  10.671   9.109   4.326 -2.1336 -0.1495  0.4189
33304SOL    HW2 5876  10.755   9.043   4.433 -1.1285  2.9219  1.6252
33305SOL     OW 5877   4.623   5.780   3.712  0.5315 -0.7631 -0.2178
33305SOL    HW1 5878   4.541   5.776   3.762 -0.0246  1.1517 -0.8782
33305SOL    HW2 5879   4.606   5.725   3.635 -0.4400  0.1731 -0.7093
33306SOL     OW 5880  11.759   2.206  10.058 -0.3785  0.0389  0.0518
33306SOL    HW1 5881  11.828   2.241  10.114 -0.0943 -0.3530 -0.0482
33306SOL    HW2 5882  11.806   2.168   9.983 -0.5391 -2.1716  1.0091
33307SOL     OW 5883   4.595   3.668   5.649 -0.4349  0.3624 -0.3813
33307SOL    HW1 5884   4.673   3.713   5.679  1.4895 -2.5433 -0.6324
33307SOL    HW2 5885   4.574   3.607   5.719 -0.4603 -1.1805 -1.6746
33308SOL     OW 5886   9.000   0.942   1.610  0.5903 -0.3091  0.3266
33308SOL    HW1 5887   8.911   0.909   1.598  1.2724 -2.1677  0.0279
33308SOL    HW2 5888   9.012   1.004   1.538 -0.2116 -0.5473 -0.0282
33309SOL     OW 5889   3.764   8.526   2.520 -0.0521 -0.8113 -0.0348
33309SOL    HW1 5890   3.675   8.554   2.541  0.1697 -0.8399  1.0025
33309SOL    HW2 5891   3.782   8.457   2.583  0.3631 -1.4779 -0.8667
33310SOL     OW 5892   5.491   0.739  12.111 -0.1769  0.2574 -0.3304
33310SOL    HW1 5893   5.521   0.756  12.022  1.1498 -0.3251 -0.0210
33310SOL    HW2 5894   5.533   0.807  12.164  1.7104 -1.3115  0.2928
33311SOL     OW 5895   2.551   1.296   7.042 -0.2638 -0.2904 -0.6759
33311SOL    HW1 5896   2.618   1.360   7.069 -1.5381  1.1123 -0.7040
33311SOL    HW2 5897   2.538   1.313   6.949 -1.2673  0.0630 -0.4849
33312SOL     OW 5898  10.934   2.982   7.874  0.3053  0.4973  0.0584
33312SOL    HW1 5899  10.989   2.905   7.861 -0.7970 -0.3647  0.2963
33312SOL    HW2 5900  10.966   3.046   7.811 -0.6789 -1.2230 -2.3094
33313SOL     OW 5901   4.071   9.180   1.515  0.4836  0.6809  0.3272
33313SOL    HW1 5902   4.028   9.165   1.599  0.3728  0.5157  0.2425
33313SOL    HW2 5903   4.084   9.274   1.511 -0.6558  0.8323 -0.0289
33314SOL     OW 5904   5.119   6.231   0.289  0.1012  0.4271 -0.3845
33314SOL    HW1 5905   5.092   6.315   0.327 -0.4764 -0.1218  0.4341
33314SOL    HW2 5906   5.215   6.238   0.281  0.3151  0.3712  1.6613
33315SOL     OW 5907   4.076   4.337  12.370 -0.1346 -0.0684  0.4201
33315SOL    HW1 5908   4.145   4.334  12.437  0.1493 -0.6670  0.1062
33315SOL    HW2 5909   4.077   4.250  12.331 -1.5137 -0.2996  0.8502
33316SOL     OW 5910   7.041   0.568   5.150 -0.5906 -0.0058  0.5844
33316SOL    HW1 5911   7.112   0.606   5.202 -0.6686  1.5799 -0.4278
33316SOL    HW2 5912   7.027   0.629   5.078 -2.5303 -0.6258  0.3657
33317SOL     OW 5913  10.049   2.084   6.568 -0.1487  0.1903 -0.0689
33317SOL    HW1 5914  10.104   2.101   6.492  0.5029  1.0248  0.5674
33317SOL    HW2 5915  10.015   2.170   6.593 -1.0448 -0.1987  0.0652
33318SOL     OW 5916  11.461  10.538   8.442  0.0032  0.1585  0.4877
33318SOL    HW1 5917  11.460  10.631   8.465 -1.0448  0.3409 -0.2484
33318SOL    HW2 5918  11.508  10.497   8.514 -1.7573  0.9236  2.1562
33319SOL     OW 5919   9.873   7.001   3.546  0.7393 -0.6204 -0.3508
33319SOL    HW1 5920   9.847   6.914   3.516  1.2184 -1.5113  1.6392
33319SOL    HW2 5921   9.881   7.053   3.466  2.7345 -2.9980 -1.8357
33320SOL     OW 5922  12.474   2.373  12.290  0.1539 -0.0939 -0.3712
33320SOL    HW1 5923  12.389   2.409  12.315 -0.4329 -2.1963  0.9182
33320SOL    HW2 5924  12.484   2.295  12.344  2.0184 -1.0230 -1.9200
33321SOL     OW 5925   8.391   7.271   7.740 -0.1148 -0.1224  0.3271
33321SOL    HW1 5926   8.447   7.193   7.741 -0.0450 -0.0715  0.4908
33321SOL    HW2 5927   8.335   7.261   7.817  0.5288  0.4453  0.8826
33322SOL     OW 5928   8.164  10.435   7.214  0.4523 -0.9655  0.1107
33322SOL    HW1 5929   8.141  10.438   7.307 -0.2059 -0.5405 -0.0547
33322SOL    HW2 5930   8.245  10.485   7.208 -0.6703  0.9600  0.1497
33323SOL     OW 5931   2.781  11.673   8.890 -0.0874 -0.5995  0.4845
33323SOL    HW1 5932   2.694  11.664   8.851  0.1319 -0.0513 -0.1742
33323SOL    HW2 5933   2.840  11.674   8.814  0.4534 -0.5950  0.9044
33324SOL     OW 5934  10.599   0.589   9.186  0.3439 -0.3368  0.8231
33324SOL    HW1 5935  10.530   0.568   9.249  1.2003  0.7049  2.1764
33324SOL    HW2 5936  10.565   0.663   9.136  0.0638 -0.4932  0.7849
33325SOL     OW 5937   6.170   2.492   3.500 -0.1851  0.1712  0.2061
33325SOL    HW1 5938   6.084   2.456   3.523  0.4843 -0.9037  1.1060
33325SOL    HW2 5939   6.219   2.418   3.465  0.5225  0.6900  0.0748
33326SOL     OW 5940   6.199   1.155   2.325 -0.3184 -0.1263  0.2681
33326SOL    HW1 5941   6.144   1.092   2.279 -0.3220 -0.0800  0.2082
33326SOL    HW2 5942   6.152   1.238   2.316  0.4431  0.1972 -0.9999
33327SOL     OW 5943  12.267  10.982  10.856  0.2742 -0.5168 -0.4095
33327SOL    HW1 5944  12.249  11.010  10.946 -1.7352  1.5933 -1.3701
33327SOL    HW2 5945  12.193  10.926  10.834  1.4269 -2.1196 -0.3862
33328SOL     OW 5946   9.210   7.877   9.726 -0.4206  0.1283  0.5682
33328SOL    HW1 5947   9.273   7.806   9.742  1.4851  1.5124 -0.2992
33328SOL    HW2 5948   9.261   7.943   9.679 -2.5792  1.3417 -0.1825
33329SOL     OW 5949   5.483  11.765  10.685  0.2502 -0.1522 -0.1461
33329SOL    HW1 5950   5.461  11.779  10.592 -0.4408  0.8382  0.1492
33329SOL    HW2 5951   5.400  11.773  10.730  1.0213  3.0671  0.9540
33330SOL     OW 5952   9.349   4.662   2.341  0.6329  0.3585  0.0294
33330SOL    HW1 5953   9.271   4.702   2.380  0.7742  0.8943 -0.2238
33330SOL    HW2 5954   9.367   4.586   2.396 -0.2686  0.0291 -0.1104
33331SOL     OW 5955   7.039   4.317  10.890  0.1042 -0.1803 -0.8272
33331SOL    HW1 5956   6.990   4.392  10.925  0.7141 -0.0539 -0.2030
33331SOL    HW2 5957   7.131   4.342  10.901  0.3587 -1.7016  0.9344
33332SOL     OW 5958   2.482   6.990   7.119 -0.0706  0.1540  0.0582
33332SOL    HW1 5959   2.482   6.895   7.106 -0.7710  0.1174  0.3225
33332SOL    HW2 5960   2.566   7.018   7.083  1.2602 -0.8454  2.1858
33333SOL     OW 5961   0.430   0.690   8.675  0.4714  0.0514 -0.1615
33333SOL    HW1 5962   0.457   0.756   8.611 -1.7575  0.5528 -0.6546
33333SOL    HW2 5963   0.339   0.711   8.695  0.0545 -2.1733  0.5748
33334SOL     OW 5964   9.652  10.682   7.858  0.2704 -0.6112 -0.3217
33334SOL    HW1 5965   9.634  10.734   7.936  1.4502 -0.2468 -0.2742
33334SOL    HW2 5966   9.566  10.661   7.823 -0.2513  0.7313  0.0917
33335SOL     OW 5967   8.880   2.625  10.696 -0.2894 -0.4072 -0.0998
33335SOL    HW1 5968   8.866   2.531  10.708 -0.1181 -0.5212 -0.7739
33335SOL    HW2 5969   8.974   2.635  10.688 -0.3674 -0.3090 -1.0227
33336SOL     OW 5970   2.780   1.092   0.768 -0.3977 -0.1293  0.4330
33336SOL    HW1 5971   2.847   1.065   0.831 -1.3973 -1.9945  0.7841
33336SOL    HW2 5972   2.742   1.171   0.806  1.4842  0.9259  0.2663
33337SOL     OW 5973   8.174   0.930   4.352 -0.1317  0.3757  0.7817
33337SOL    HW1 5974   8.096   0.914   4.298 -1.8182  0.5257  2.9952
33337SOL    HW2 5975   8.204   0.842   4.375  0.0242  0.3184  0.3650
33338SOL     OW 5976   2.988   1.849   3.421 -0.2024  0.3441 -0.3053
33338SOL    HW1 5977   3.076   1.841   3.458  0.2287  0.9120 -1.1689
33338SOL    HW2 5978   2.947   1.919   3.472 -0.1708  0.0564  0.1205
33339SOL     OW 5979   7.755   5.431   2.506 -0.1694  0.0128  0.1574
33339SOL    HW1 5980   7.748   5.413   2.412  0.5790  0.6354 -0.0348
33339SOL    HW2 5981   7.692   5.373   2.547 -1.4427  0.6304 -0.8474
33340SOL     OW 5982   5.673   2.979  12.274 -0.3395 -0.5545  0.0770
33340SOL    HW1 5983   5.650   3.042  12.342  0.7871 -0.5552  0.4768
33340SOL    HW2 5984   5.767   2.989  12.262 -0.2324 -1.7634 -0.2573
33341SOL     OW 5985   4.444   4.876   0.120  0.2010  0.3135 -0.4347
33341SOL    HW1 5986   4.361   4.909   0.087  0.6320 -0.6733 -2.6932
33341SOL    HW2 5987   4.495   4.857   0.041  1.9568 -0.6576  0.8679
33342SOL     OW 5988   6.663   8.204  10.649 -0.1448 -0.2885  0.2122
33342SOL    HW1 5989   6.579   8.161  10.659  1.0090 -2.4136  1.6113
33342SOL    HW2 5990   6.718   8.140  10.603  0.9855  0.6510  0.1928
33343SOL     OW 5991   5.025   9.737   9.574  0.2139  0.1551  0.4257
33343SOL    HW1 5992   5.080   9.681   9.628 -0.7445  1.3571  2.7793
33343SOL    HW2 5993   4.947   9.684   9.556 -0.0268  0.1798  1.3516
33344SOL     OW 5994   2.270   9.163   8.404 -0.0870 -0.2342 -0.6150
33344SOL    HW1 5995   2.191   9.218   8.401  0.1505  0.0891 -1.0325
33344SOL    HW2 5996   2.338   9.221   8.437 -0.1836 -0.7182  0.4493
33345SOL     OW 5997   0.737  11.550  11.172 -0.0138  0.3629  0.0284
33345SOL    HW1 5998   0.776  11.619  11.225  0.7645  0.4237 -0.6133
33345SOL    HW2 5999   0.812  11.501  11.137 -0.5265  0.1030 -0.7213
33346SOL     OW 6000   7.550  11.827   3.196 -0.6331 -0.2603 -0.3528
33346SOL    HW1 6001   7.637  11.803   3.167  0.7749  2.0422  1.6248
33346SOL    HW2 6002   7.493  11.757   3.161  2.0500 -2.2706 -1.0312
33347SOL     OW 6003   7.703   5.130   9.122  0.5120 -0.3744 -0.6763
33347SOL    HW1 6004   7.638   5.197   9.144  1.6870  0.9474 -1.0644
33347SOL    HW2 6005   7.738   5.102   9.206  1.6068  1.1810 -0.5773
33348SOL     OW 6006   8.039   3.681   7.028  0.3086 -0.2244  0.7535
33348SOL    HW1 6007   7.973   3.740   6.992 -1.7009 -2.5004  0.4836
33348SOL    HW2 6008   8.111   3.683   6.964 -0.4744  0.5526 -0.1290
33349SOL     OW 6009   8.408   3.840   9.603  0.0144 -0.6969  0.2700
33349SOL    HW1 6010   8.429   3.840   9.509  0.2054 -1.1099  0.3097
33349SOL    HW2 6011   8.354   3.762   9.615 -3.1053  1.2071 -0.1552
33350SOL     OW 6012   9.857   6.519   0.209 -0.4028 -0.2455 -0.2206
33350SOL    HW1 6013   9.765   6.530   0.184 -0.6526  0.8216  1.0938
33350SOL    HW2 6014   9.901   6.594   0.170  0.0873 -1.1615 -1.5099
33351SOL     OW 6015   0.579   6.102   1.351  0.1778 -0.7131 -0.0734
33351SOL    HW1 6016   0.528   6.035   1.397  0.7559 -0.7326  0.5583
33351SOL    HW2 6017   0.669   6.070   1.354  0.2226 -0.7678 -1.3348
33352SOL     OW 6018   3.140   3.105   9.715  0.5684 -0.0059 -0.3328
33352SOL    HW1 6019   3.158   3.141   9.802  1.4860 -1.8363  0.2779
33352SOL    HW2 6020   3.226   3.095   9.675  0.0825  2.2707 -2.1271
33353SOL     OW 6021   6.047   8.666   4.103  0.0595 -0.6123 -0.5680
33353SOL    HW1 6022   6.124   8.660   4.047 -0.0764 -2.7003 -0.6292
33353SOL    HW2 6023   5.975   8.630   4.051 -0.2939 -1.5617  0.5087
33354SOL     OW 6024   9.425   5.536   3.620  0.3663  0.1201  0.2986
33354SOL    HW1 6025   9.438   5.475   3.693 -0.1230 -0.2199  0.1102
33354SOL    HW2 6026   9.506   5.528   3.569 -0.4298 -1.8655 -0.7870
33355SOL     OW 6027   5.626  10.543   0.691 -0.3140  0.3998  0.1274
33355SOL    HW1 6028   5.588  10.620   0.733  1.3290  1.3166  0.0127
33355SOL    HW2 6029   5.627  10.476   0.760  0.8001  1.3606  1.0722
33356SOL     OW 6030  12.234  11.233   0.532 -0.3630 -0.1947  0.6811
33356SOL    HW1 6031  12.229  11.280   0.615 -0.4645  1.2919 -0.1274
33356SOL    HW2 6032  12.143  11.214   0.509 -0.3320 -0.6437  0.9314
33357SOL     OW 6033   6.916  11.212   0.566 -0.0861  0.6348  0.2369
33357SOL    HW1 6034   6.860  11.290   0.572  0.4996  1.0553  0.2820
33357SOL    HW2 6035   6.859  11.140   0.592 -0.0734  1.3000  2.2811
33358SOL     OW 6036  11.419   0.558   7.620  0.1964 -0.5695 -0.3273
33358SOL    HW1 6037  11.335   0.530   7.657  0.6101 -1.4823 -0.0504
33358SOL    HW2 6038  11.396   0.628   7.558 -0.6466 -0.0722  0.5282
33359SOL     OW 6039   6.265  11.606   8.348 -0.0553 -0.0971 -0.3328
33359SOL    HW1 6040   6.235  11.688   8.386  0.2669 -0.2864  0.3474
33359SOL    HW2 6041   6.193  11.545   8.362  0.2275 -0.2777  0.3618
33360SOL     OW 6042   1.343   5.636   8.092 -0.0992 -0.3685 -0.5302
33360SOL    HW1 6043   1.315   5.643   8.001  1.8894 -1.4120 -1.2864
33360SOL    HW2 6044   1.431   5.674   8.093  0.6220 -1.9757  0.5474
33361SOL     OW 6045  12.247   0.047   2.622  0.1385  0.8908  0.4086
33361SOL    HW1 6046  12.229   0.063   2.529  0.2891  1.7634  0.5198
33361SOL    HW2 6047  12.201   0.118   2.667  1.0285  1.1516  0.9240
33362SOL     OW 6048  10.613   5.853   3.815  0.5660  0.3739 -0.1947
33362SOL    HW1 6049  10.660   5.789   3.868 -0.4282  0.8717  1.3389
33362SOL    HW2 6050  10.527   5.813   3.800 -0.2084  1.4866  1.1236
33363SOL     OW 6051   4.460  11.740   4.089  0.0437 -0.1211 -0.1645
33363SOL    HW1 6052   4.532  11.681   4.068 -0.7936 -1.0563 -0.4730
33363SOL    HW2 6053   4.498  11.804   4.149  1.7042  0.7635 -2.0456
33364SOL     OW 6054   0.493  12.321   2.387 -0.1422 -0.5439 -0.2731
33364SOL    HW1 6055   0.581  12.352   2.369  0.1751 -2.1415 -1.7252
33364SOL    HW2 6056   0.437  12.398   2.371  0.7865 -0.1187 -1.6486
33365SOL     OW 6057   0.136   5.290   2.371 -0.4576  0.1193  0.4458
33365SOL    HW1 6058   0.190   5.308   2.294 -0.4009  0.2298  0.5116
33365SOL    HW2 6059   0.175   5.341   2.441 -0.3546 -0.1847  0.6123
33366SOL     OW 6060   6.214   8.367   0.915 -0.3845 -0.4036 -0.1939
33366SOL    HW1 6061   6.229   8.459   0.893  0.0682 -0.3532  0.3099
33366SOL    HW2 6062   6.129   8.347   0.875 -0.6939  0.3510  0.0526
33367SOL     OW 6063   3.276   3.198  12.130 -0.0675  0.4170  0.2557
33367SOL    HW1 6064   3.288   3.107  12.156  0.6525 -0.0284 -1.4703
33367SOL    HW2 6065   3.183   3.206  12.111  0.1589 -0.5530 -1.4799
33368SOL     OW 6066   1.103  12.242   7.232 -0.3568 -0.4352 -0.1723
33368SOL    HW1 6067   1.044  12.316   7.225 -0.5713 -0.4519  1.2620
33368SOL    HW2 6068   1.063  12.184   7.297  0.8734 -0.7817  0.3087
33369SOL     OW 6069   2.253   1.848   5.467 -0.1131  0.2271 -0.0676
33369SOL    HW1 6070   2.200   1.920   5.433 -0.4873  0.6222  1.2797
33369SOL    HW2 6071   2.190   1.787   5.505  0.2751 -0.2337 -0.1562
33370SOL     OW 6072   4.376   2.187   2.580  0.8470 -0.3349 -0.4381
33370SOL    HW1 6073   4.375   2.221   2.669  0.2538 -1.1735 -0.1217
33370SOL    HW2 6074   4.324   2.250   2.530  0.9306 -0.0296 -0.1403
33371SOL     OW 6075  11.597   4.104  10.870 -0.0266 -0.1355 -0.0023
33371SOL    HW1 6076  11.629   4.023  10.831 -1.3468 -0.2635 -0.8647
33371SOL    HW2 6077  11.561   4.078  10.954 -0.5200 -0.4709 -0.3114
33372SOL     OW 6078   0.483   3.350   0.469 -0.3189  0.1682  0.4492
33372SOL    HW1 6079   0.553   3.320   0.412 -2.6177  0.1566 -2.6186
33372SOL    HW2 6080   0.496   3.445   0.473  0.7409  0.0111  1.2536
33373SOL     OW 6081   7.329   2.201   8.970 -0.4749  0.3605  0.1820
33373SOL    HW1 6082   7.265   2.229   9.034 -0.9329 -0.9604  0.3310
33373SOL    HW2 6083   7.300   2.114   8.942  1.3007 -0.3389  0.3491
33374SOL     OW 6084  12.468   9.287   8.330 -0.0688 -0.4683  0.4356
33374SOL    HW1 6085  12.517   9.360   8.367  0.2369  0.0461 -0.9395
33374SOL    HW2 6086  12.404   9.328   8.272  0.3155 -1.2916 -0.5963
33375SOL     OW 6087   7.582   2.182   3.963  0.3637 -0.1182 -0.4100
33375SOL    HW1 6088   7.677   2.178   3.969  0.2849 -0.7302  0.6114
33375SOL    HW2 6089   7.552   2.094   3.984 -0.4568  0.2750  0.1546
33376SOL     OW 6090  10.281   0.306  12.209  0.4585  0.1709 -0.2178
33376SOL    HW1 6091  10.374   0.297  12.187  0.4301 -0.3505 -0.1293
33376SOL    HW2 6092  10.236   0.296  12.125  0.4408 -0.2998 -0.1538
33377SOL     OW 6093   6.608   2.213   7.357 -0.1909  0.1310 -0.2280
33377SOL    HW1 6094   6.564   2.243   7.436  0.3026  0.2899 -0.0043
33377SOL    HW2 6095   6.653   2.132   7.384 -0.2100  0.0630 -0.4023
33378SOL     OW 6096  10.289   6.418  12.143 -0.4108  0.6792  0.2355
33378SOL    HW1 6097  10.373   6.441  12.184  0.3191 -2.4022  0.7341
33378SOL    HW2 6098  10.304   6.331  12.106 -3.3724  0.0428  0.3085
33379SOL     OW 6099   2.789   3.224   4.979  0.3254  0.3488  0.8715
33379SOL    HW1 6100   2.806   3.289   4.911  0.4532  0.4432  0.9919
33379SOL    HW2 6101   2.712   3.257   5.025 -1.2070 -0.8721 -0.6647
33380SOL     OW 6102   1.953  11.077   2.033 -0.4895 -0.0151 -0.8555
33380SOL    HW1 6103   1.948  11.150   2.093  0.6295 -0.8450  0.3062
33380SOL    HW2 6104   1.970  11.117   1.947 -2.3359  1.1915 -0.7099
33381SOL     OW 6105  10.191   8.096   2.185  0.3570  0.3765 -0.5044
33381SOL    HW1 6106  10.249   8.084   2.260 -0.0164  1.2932 -0.0521
33381SOL    HW2 6107  10.155   8.184   2.197 -1.0120 -0.1153 -0.8477
33382SOL     OW 6108   0.118   0.138   6.298 -0.3947 -1.2102 -0.3240
33382SOL    HW1 6109   0.208   0.128   6.269  0.0496  0.6454  0.2869
33382SOL    HW2 6110   0.070   0.164   6.219 -0.2408 -1.3659 -0.4698
33383SOL     OW 6111   1.083  11.911  10.790  0.1922  0.1025 -0.1466
33383SOL    HW1 6112   1.057  11.961  10.868  1.3939 -1.2868  1.2012
33383SOL    HW2 6113   1.177  11.926  10.782  0.3734 -1.0814 -0.3514
33384SOL     OW 6114   2.851   6.183   1.668  0.4265 -0.2302  0.1633
33384SOL    HW1 6115   2.758   6.169   1.656  0.5426  0.1687 -1.6246
33384SOL    HW2 6116   2.866   6.271   1.633  1.5188 -0.4474  0.0416
33385SOL     OW 6117   6.446   7.926   2.187  0.2591  0.3787 -0.0894
33385SOL    HW1 6118   6.372   7.929   2.248  0.8195 -1.5687  0.7450
33385SOL    HW2 6119   6.418   7.866   2.118  0.7560  0.2517 -0.1840
33386SOL     OW 6120   0.264   6.703   1.777 -0.2384  0.5655 -0.0692
33386SOL    HW1 6121   0.322   6.775   1.804  2.0079 -0.5949 -1.4711
33386SOL    HW2 6122   0.204   6.692   1.851  1.2819  1.8870  1.4677
33387SOL     OW 6123   4.711   2.855   7.755 -0.1705  0.6425 -0.1439
33387SOL    HW1 6124   4.756   2.804   7.688  1.1825  1.4804  0.0896
33387SOL    HW2 6125   4.778   2.874   7.821 -1.2777  0.5093  1.0727
33388SOL     OW 6126  10.863  10.218   0.040 -0.5622 -0.0298 -0.1460
33388SOL    HW1 6127  10.889  10.214  -0.052  2.0895 -1.0954  0.5575
33388SOL    HW2 6128  10.885  10.132   0.075  3.1300  1.7355  2.5279
33389SOL     OW 6129   0.687   9.539   5.406  0.8167  0.2620 -0.2309
33389SOL    HW1 6130   0.741   9.514   5.331  0.1122  0.3693 -0.7877
33389SOL    HW2 6131   0.607   9.576   5.366 -1.1523 -2.8336  0.4775
33390SOL     OW 6132   1.083   2.280   6.837  0.2648  0.2848  0.5110
33390SOL    HW1 6133   0.988   2.280   6.834  0.2059  0.5911  1.8333
33390SOL    HW2 6134   1.109   2.341   6.767 -0.5975  1.9559  1.5765
33391SOL     OW 6135   9.185   7.682   1.783 -0.1583  0.1123 -0.6994
33391SOL    HW1 6136   9.113   7.683   1.846 -0.2609 -1.5404 -0.7383
33391SOL    HW2 6137   9.190   7.772   1.750 -0.8184  0.7390  0.8450
33392SOL     OW 6138  10.688   6.485   3.651  0.0668  0.0749 -0.1582
33392SOL    HW1 6139  10.636   6.410   3.680 -0.4656  0.8119  0.8342
33392SOL    HW2 6140  10.687   6.479   3.556  0.6310 -1.5818 -0.0933
33393SOL     OW 6141   8.764  10.772   3.024  0.6206  0.0334  0.1720
33393SOL    HW1 6142   8.852  10.746   2.997  0.6548  2.1079 -2.1194
33393SOL    HW2 6143   8.771  10.788   3.118  3.5457  2.8560 -0.3586
33394SOL     OW 6144   2.855   9.417   2.541 -0.5893  0.6022  0.0298
33394SOL    HW1 6145   2.817   9.330   2.552 -0.0302  0.3868  0.2858
33394SOL    HW2 6146   2.780   9.476   2.537 -0.9454  0.3761  2.2254
33395SOL     OW 6147   2.404  11.480   9.396  0.4138  0.3731 -0.1126
33395SOL    HW1 6148   2.403  11.422   9.472  0.6382 -0.5937 -0.8247
33395SOL    HW2 6149   2.401  11.420   9.320 -1.7467  1.3178 -0.8746
33396SOL     OW 6150   6.853   1.749  10.618  0.0453  0.2935  0.6897
33396SOL    HW1 6151   6.948   1.738  10.630  0.4351 -0.4983 -2.4227
33396SOL    HW2 6152   6.833   1.831  10.663  1.7886 -0.4820  3.0895
33397SOL     OW 6153   6.706  12.327   0.282 -0.5286  0.2569  0.0737
33397SOL    HW1 6154   6.717  12.232   0.284  2.0798  0.5058  0.4428
33397SOL    HW2 6155   6.639  12.345   0.348  0.5247 -1.1706  1.6059
33398SOL     OW 6156   4.333   9.099   5.948  0.1108 -0.0910 -0.5195
33398SOL    HW1 6157   4.313   9.177   5.998  1.2617  0.7322 -1.2862
33398SOL    HW2 6158   4.357   9.033   6.013  0.8024  0.7189  0.0600
33399SOL     OW 6159   0.831   8.351   9.919 -0.2332  0.5730  0.8536
33399SOL    HW1 6160   0.844   8.294   9.843 -1.2735  1.5948 -0.1381
33399SOL    HW2 6161   0.890   8.317   9.985  0.9536 -0.1651 -0.5291
33400SOL     OW 6162   4.279   8.433   2.102  0.1339  0.6337  0.2092
33400SOL    HW1 6163   4.227   8.488   2.160  0.6656  0.6785  0.6527
33400SOL    HW2 6164   4.366   8.474   2.102 -0.1764  1.4181 -1.6589
33401SOL     OW 6165   0.283   0.876   4.520  0.5024  0.0656 -0.1301
33401SOL    HW1 6166   0.231   0.862   4.441  0.2010 -0.6004  0.1829
33401SOL    HW2 6167   0.222   0.861   4.592  0.6720  1.0538  0.2397
33402SOL     OW 6168  10.971   1.865   9.446  0.6511  0.0602  0.2324
33402SOL    HW1 6169  11.055   1.841   9.407  1.0278  0.9248  0.4700
33402SOL    HW2 6170  10.974   1.829   9.534 -0.3902 -2.2918 -0.6343
33403SOL     OW 6171   5.545   9.018   3.775 -0.7255  0.4573  0.3948
33403SOL    HW1 6172   5.619   8.993   3.831 -0.9367 -1.4894 -0.1180
33403SOL    HW2 6173   5.493   9.077   3.829  0.8827  1.4046  0.9721
33404SOL     OW 6174  10.744   1.048   6.642  0.5732 -0.2437  0.1088
33404SOL    HW1 6175  10.821   1.091   6.604  1.0209 -1.4234 -0.3579
33404SOL    HW2 6176  10.771   0.957   6.654 -0.5621 -0.5443  0.4796
33405SOL     OW 6177   5.984   2.537   9.276 -0.8385  0.2730  0.0051
33405SOL    HW1 6178   5.943   2.472   9.219  0.2475  0.2183 -0.7436
33405SOL    HW2 6179   5.930   2.615   9.267 -1.0631  0.0502 -0.5672
33406SOL     OW 6180  10.684   4.030   4.590 -0.5259  0.3435  0.5001
33406SOL    HW1 6181  10.613   3.991   4.539  0.5532 -0.0946 -0.7306
33406SOL    HW2 6182  10.756   3.967   4.582 -0.0494  0.6740  1.8886
33407SOL     OW 6183   3.805   5.898   5.672  0.0172  0.0247 -0.3875
33407SOL    HW1 6184   3.817   5.993   5.663  0.8892  0.4145  3.4588
33407SOL    HW2 6185   3.716   5.888   5.706 -0.0817 -0.5849 -0.7944
33408SOL     OW 6186  11.760   5.814   7.993  0.5897 -1.0743  0.8414
33408SOL    HW1 6187  11.850   5.846   7.991  1.0387 -2.1781 -1.9793
33408SOL    HW2 6188  11.768   5.719   7.990 -0.6159 -1.1805  0.0779
33409SOL     OW 6189   6.843   6.931   3.382 -0.1538  0.0330  0.1046
33409SOL    HW1 6190   6.837   7.024   3.360 -2.4716 -0.2298 -0.6081
33409SOL    HW2 6191   6.821   6.927   3.475 -1.4823  0.0981 -0.1864
33410SOL     OW 6192  10.211   0.929   3.517 -0.3691 -0.6914 -0.2202
33410SOL    HW1 6193  10.186   0.969   3.600 -1.8395 -1.0453 -0.4654
33410SOL    HW2 6194  10.183   0.991   3.450 -0.1066 -0.8562 -0.4868
33411SOL     OW 6195  11.492  10.679   2.325  0.4548  0.1776 -0.3486
33411SOL    HW1 6196  11.443  10.680   2.407  1.0534 -1.7114  0.0752
33411SOL    HW2 6197  11.581  10.704   2.349  0.4970  0.2086 -0.5303
33412SOL     OW 6198   9.925   1.174   6.368  0.9282 -0.5093  0.2164
33412SOL    HW1 6199   9.936   1.134   6.454 -0.2411 -0.1211  0.5746
33412SOL    HW2 6200   9.854   1.237   6.381  0.4698 -0.7283 -1.1293
33413SOL     OW 6201   4.045   0.103  10.384  0.1922 -0.5147 -0.4041
33413SOL    HW1 6202   3.983   0.133  10.450 -0.9528 -2.2339 -0.6198
33413SOL    HW2 6203   3.992   0.093  10.305  1.2732  0.2545 -1.2620
33414SOL     OW 6204   9.775   7.446   5.125  0.2165  0.1515 -0.2452
33414SOL    HW1 6205   9.841   7.443   5.056  0.0397  1.2944 -0.4799
33414SOL    HW2 6206   9.821   7.483   5.200  1.0634 -3.2342  1.0559
33415SOL     OW 6207   9.490  10.047   2.498 -0.3693  0.1180  0.6425
33415SOL    HW1 6208   9.432  10.047   2.574  0.2474  0.5213  1.1284
33415SOL    HW2 6209   9.495  10.139   2.471 -0.1461  0.0569  0.4688
33416SOL     OW 6210   4.757   7.791   4.976 -0.2568  0.4732  0.4871
33416SOL    HW1 6211   4.723   7.702   4.982 -1.3570  0.9591  1.9421
33416SOL    HW2 6212   4.801   7.795   4.891 -0.5957 -1.3068  0.2102
33417SOL     OW 6213   2.234   8.421  11.748 -0.4880 -0.6705  0.3486
33417SOL    HW1 6214   2.295   8.358  11.712 -0.1023  0.8699 -1.8683
33417SOL    HW2 6215   2.190   8.459  11.672 -0.2407  2.1462  1.4864
33418SOL     OW 6216   9.061   0.747   5.048 -0.7116 -0.2991 -0.3531
33418SOL    HW1 6217   9.033   0.684   5.115  0.7008  0.2919  0.8325
33418SOL    HW2 6218   9.155   0.759   5.063 -0.5486  0.5817 -1.8431
33419SOL     OW 6219   3.762  11.585   9.441  0.6770  0.1357 -0.0300
33419SOL    HW1 6220   3.747  11.660   9.383 -0.9784  1.0787  1.5057
33419SOL    HW2 6221   3.826  11.616   9.504  0.0976  0.2437  0.5200
33420SOL     OW 6222  10.833   7.146   7.572 -0.4625 -0.1178  0.8473
33420SOL    HW1 6223  10.866   7.132   7.484  1.7427  3.5408  0.8838
33420SOL    HW2 6224  10.741   7.170   7.560  0.3162  2.4194 -0.8170
33421SOL     OW 6225   9.372   0.757   6.857 -0.2740  0.2338  0.0027
33421SOL    HW1 6226   9.317   0.737   6.781 -0.8462 -0.0401  0.4784
33421SOL    HW2 6227   9.343   0.844   6.884 -0.6017  0.0124  0.3643
33422SOL     OW 6228   3.238   9.104  11.707  0.7930  0.6228  0.1656
33422SOL    HW1 6229   3.301   9.064  11.766  2.8662 -0.7703 -2.7221
33422SOL    HW2 6230   3.200   9.031  11.660 -0.7612  1.6650 -0.2749
33423SOL     OW 6231   6.854   4.221   7.804 -0.0862 -0.2048 -0.0550
33423SOL    HW1 6232   6.830   4.133   7.773 -3.3124  0.5597 -0.1094
33423SOL    HW2 6233   6.875   4.269   7.724 -0.4320 -0.3848 -0.2606
33424SOL     OW 6234   1.653   2.547   4.016  0.1305  0.5160  0.2672
33424SOL    HW1 6235   1.682   2.456   4.023 -1.6338 -0.0007  1.5594
33424SOL    HW2 6236   1.641   2.561   3.922 -2.5021 -1.6257  0.1552
33425SOL     OW 6237  11.621   0.390   7.228  0.4367 -0.2890  0.3845
33425SOL    HW1 6238  11.557   0.440   7.177  0.5898 -0.5444 -0.0621
33425SOL    HW2 6239  11.600   0.410   7.319 -0.9803 -1.2118  0.2938
33426SOL     OW 6240   3.888   3.027  12.369  0.2820  0.2212 -0.0126
33426SOL    HW1 6241   3.926   3.051  12.453  0.1518 -2.3101  0.8526
33426SOL    HW2 6242   3.802   2.992  12.391  0.5614 -1.2286 -1.0715
33427SOL     OW 6243   2.697  11.367   1.191  0.3436 -0.2907  0.5698
33427SOL    HW1 6244   2.675  11.460   1.186  3.1686  0.3928 -2.3141
33427SOL    HW2 6245   2.647  11.326   1.120  0.4557 -0.6545  0.6954
33428SOL     OW 6246   9.219   6.014   6.148  0.4582  0.0577 -0.3574
33428SOL    HW1 6247   9.184   6.085   6.094  2.0896  1.5452  0.4229
33428SOL    HW2 6248   9.144   5.981   6.196 -0.3709  1.2403 -0.7901
33429SOL     OW 6249   9.489   7.755   4.430  0.1588  0.1309  0.5723
33429SOL    HW1 6250   9.414   7.714   4.386  0.7070  0.4715 -0.7248
33429SOL    HW2 6251   9.564   7.703   4.401  0.8167  1.7460 -0.7680
33430SOL     OW 6252   2.179   6.484   4.173  0.4878 -0.5056 -0.3710
33430SOL    HW1 6253   2.142   6.414   4.119  1.0790  0.3453 -1.9599
33430SOL    HW2 6254   2.238   6.439   4.233 -1.2644 -1.6261  0.5922
33431SOL     OW 6255   9.561  11.084   6.393  0.1987 -0.1851  0.3950
33431SOL    HW1 6256   9.516  11.168   6.406  2.2663  0.7989  1.8439
33431SOL    HW2 6257   9.515  11.023   6.451 -1.5171 -0.1911 -0.8999
33432SOL     OW 6258   1.555   0.699   5.295  0.1010 -0.0117 -0.0311
33432SOL    HW1 6259   1.625   0.731   5.352  2.2628 -0.0224 -2.5042
33432SOL    HW2 6260   1.514   0.778   5.261  2.3281  0.2062 -2.4659
33433SOL     OW 6261   9.081   9.413  11.238  0.2670 -0.0501  0.6867
33433SOL    HW1 6262   9.079   9.398  11.333  1.0918  1.2386  0.9430
33433SOL    HW2 6263   9.165   9.375  11.210 -0.9952 -2.5592  0.0129
33434SOL     OW 6264  11.228   0.397  10.783  0.2866  0.2434 -0.3740
33434SOL    HW1 6265  11.229   0.383  10.877 -0.4694  0.5923 -0.3024
33434SOL    HW2 6266  11.290   0.334  10.748  1.4234  0.8603  0.4550
33435SOL     OW 6267   6.348   2.784   7.901  0.2855  0.5000  0.3025
33435SOL    HW1 6268   6.398   2.723   7.848 -0.7181  0.9618 -1.2369
33435SOL    HW2 6269   6.306   2.730   7.967 -0.1176 -0.4021 -0.6742
33436SOL     OW 6270   8.047   2.183   2.646 -0.0167  0.1087 -0.4093
33436SOL    HW1 6271   7.985   2.111   2.657  0.2779  0.0360  1.0561
33436SOL    HW2 6272   8.076   2.203   2.736  1.2321  0.8652 -0.9511
33437SOL     OW 6273   3.890   8.195   3.701 -0.0139  0.3359 -0.1062
33437SOL    HW1 6274   3.837   8.123   3.736 -0.4427  0.0310 -1.3437
33437SOL    HW2 6275   3.830   8.271   3.702  0.2122  0.5154  0.5101
33438SOL     OW 6276   6.362   6.448   3.509  0.1376  0.0227 -0.4341
33438SOL    HW1 6277   6.304   6.497   3.452  0.8169  1.3712 -0.0191
33438SOL    HW2 6278   6.443   6.499   3.510  0.4166 -0.3982  1.0864
33439SOL     OW 6279  11.878   9.740  12.424 -0.4016  0.1557  0.0805
33439SOL    HW1 6280  11.874   9.794  12.345 -0.4620 -0.6943 -0.5095
33439SOL    HW2 6281  11.803   9.681  12.418  1.3246 -2.1027 -0.8793
33440SOL     OW 6282   5.035   1.160   0.012  0.4582 -0.2362  0.4926
33440SOL    HW1 6283   5.034   1.256   0.016 -0.0393 -0.1612 -0.8496
33440SOL    HW2 6284   5.075   1.133   0.095  1.6091  1.1657  0.4436
33441SOL     OW 6285   0.134  11.879   6.814  0.2896 -0.1761 -0.3825
33441SOL    HW1 6286   0.153  11.837   6.730  1.4169 -0.0953 -0.1818
33441SOL    HW2 6287   0.090  11.812   6.865  1.0798 -0.7780 -0.4663
33442SOL     OW 6288   2.449   5.376   3.565  0.5342 -0.2571 -0.4210
33442SOL    HW1 6289   2.385   5.349   3.499  0.3485  1.1202 -0.8405
33442SOL    HW2 6290   2.527   5.324   3.545  0.3243 -0.2126 -1.4418
33443SOL     OW 6291   4.210   1.148  12.079 -0.3597  0.2698  0.8620
33443SOL    HW1 6292   4.249   1.234  12.063 -1.2582  0.8930  1.9186
33443SOL    HW2 6293   4.189   1.115  11.992 -0.7474  1.4740  0.4832
33444SOL     OW 6294   7.016   8.435   8.968  0.2486 -0.4215 -0.2808
33444SOL    HW1 6295   7.090   8.377   8.983  1.9690  0.9572 -2.7500
33444SOL    HW2 6296   6.978   8.405   8.885  0.0507  0.7940 -0.6623
33445SOL     OW 6297   9.423   5.641   2.842  0.3368 -0.1697 -0.3163
33445SOL    HW1 6298   9.327   5.643   2.835  0.3084  0.2677  0.1628
33445SOL    HW2 6299   9.453   5.627   2.752 -0.2333 -3.0036 -0.1770
33446SOL     OW 6300   3.426   2.676  10.762  0.5153  0.2400  0.4766
33446SOL    HW1 6301   3.332   2.674  10.780  0.4465 -1.8465  0.1081
33446SOL    HW2 6302   3.441   2.760  10.720 -0.8240  1.4506  2.2755
33447SOL     OW 6303   0.058  12.038   2.455 -0.3407  0.8039  0.4655
33447SOL    HW1 6304   0.002  12.065   2.382 -0.8685 -1.2723  0.0292
33447SOL    HW2 6305   0.141  12.082   2.439 -1.0364  1.8900 -0.3157
33448SOL     OW 6306  10.397   4.456   0.082 -0.5961  0.5841  0.4068
33448SOL    HW1 6307  10.480   4.458   0.129 -1.9086  2.3540  2.8500
33448SOL    HW2 6308  10.388   4.365   0.053  2.3153  0.4155 -0.3153
33449SOL     OW 6309   6.390  11.180   5.016  0.1605  0.8163  0.3528
33449SOL    HW1 6310   6.421  11.215   5.099  0.4771 -0.8345  0.9672
33449SOL    HW2 6311   6.304  11.143   5.035  0.4271  0.0269  0.0719
33450SOL     OW 6312   9.911   8.571   4.633  0.1093 -0.5308  0.0243
33450SOL    HW1 6313   9.917   8.642   4.697 -0.5555  0.0392 -0.5350
33450SOL    HW2 6314   9.844   8.512   4.668  1.1366 -1.2624  0.8319
33451SOL     OW 6315   1.554   9.957   2.972 -0.7435 -0.0712  0.1824
33451SOL    HW1 6316   1.599  10.030   2.929 -0.9969  1.0946  1.7981
33451SOL    HW2 6317   1.463   9.964   2.942 -1.1302  1.3074  1.5128
33452SOL     OW 6318   5.435   5.278   9.722  0.2477  0.2154 -0.0786
33452SOL    HW1 6319   5.504   5.336   9.689 -1.9121  2.4141 -1.0227
33452SOL    HW2 6320   5.361   5.294   9.664 -0.9788 -2.3959  0.6134
33453SOL     OW 6321   5.100   4.029   8.364  0.1810  0.0809 -0.2558
33453SOL    HW1 6322   5.053   3.947   8.352  0.5830  0.1496 -2.8070
33453SOL    HW2 6323   5.036   4.097   8.341 -0.5274  0.6607  2.9655
33454SOL     OW 6324   1.828  10.746   8.790  0.8386 -0.4005  0.5750
33454SOL    HW1 6325   1.743  10.775   8.823  0.4225 -1.1776  0.2254
33454SOL    HW2 6326   1.873  10.711   8.868  1.4493  1.3357  1.0470
33455SOL     OW 6327   0.518   1.531   6.134  0.0359 -0.4916 -0.5069
33455SOL    HW1 6328   0.559   1.445   6.142 -0.1012 -0.7285 -1.9850
33455SOL    HW2 6329   0.428   1.517   6.162  0.2994 -0.5569  0.3335
33456SOL     OW 6330  10.379   2.073   3.038  0.3333  0.4452  0.4402
33456SOL    HW1 6331  10.469   2.049   3.017  0.0255  0.4352 -0.9226
33456SOL    HW2 6332  10.340   1.993   3.073  0.6652  0.2641  0.3918
33457SOL     OW 6333   9.292   1.293   9.460  0.2095  0.3697 -0.1797
33457SOL    HW1 6334   9.343   1.316   9.382  1.5218  1.1480  0.8742
33457SOL    HW2 6335   9.238   1.370   9.477  0.6237  0.5738  0.2236
33458SOL     OW 6336   6.792   3.618  10.311  0.5495 -0.3457 -0.3204
33458SOL    HW1 6337   6.737   3.695  10.298  0.5258 -0.2240  0.4435
33458SOL    HW2 6338   6.836   3.634  10.395  0.3176 -1.2967 -0.0067
33459SOL     OW 6339   8.640  10.680   3.902 -0.4274  0.4182  0.1254
33459SOL    HW1 6340   8.660  10.685   3.996 -2.5109  1.1224  0.5779
33459SOL    HW2 6341   8.725  10.691   3.860  0.8299 -1.5739  1.9107
33460SOL     OW 6342  12.032  12.039   2.105 -0.9193 -0.1191  0.0663
33460SOL    HW1 6343  12.002  11.973   2.168 -1.3889  0.1779  0.1621
33460SOL    HW2 6344  12.123  12.055   2.128 -1.3940  0.8132  1.4141
33461SOL     OW 6345   4.261   6.974   4.716 -0.1462  0.7644  0.0785
33461SOL    HW1 6346   4.342   6.950   4.761  0.7620  2.9028 -0.3243
33461SOL    HW2 6347   4.265   6.925   4.634  0.2176  0.0713  0.4909
33462SOL     OW 6348   3.234  11.531   2.423  0.0641 -0.3866  0.0193
33462SOL    HW1 6349   3.238  11.436   2.424  4.4543 -0.3863 -0.1835
33462SOL    HW2 6350   3.206  11.554   2.334  0.8069 -1.5000 -0.5107
33463SOL     OW 6351   1.791   5.731   5.248 -0.1900 -0.1594 -0.2081
33463SOL    HW1 6352   1.818   5.813   5.288  2.7884  0.0304 -2.3267
33463SOL    HW2 6353   1.777   5.672   5.322 -0.2959  1.6307  1.2601
33464SOL     OW 6354   1.832   0.841   9.342  0.1204  0.4455  0.0855
33464SOL    HW1 6355   1.883   0.917   9.370 -0.2603  0.6201  0.3102
33464SOL    HW2 6356   1.846   0.776   9.411 -0.2164  0.6085  0.3103
33465SOL     OW 6357   7.065   4.487   7.755  0.2414 -0.5579 -0.4334
33465SOL    HW1 6358   7.071   4.534   7.838  0.5196  0.3587 -0.9567
33465SOL    HW2 6359   7.091   4.398   7.775 -1.8616 -0.9336  0.9362
33466SOL     OW 6360  10.568   5.146  10.299  0.1200  0.2076 -0.1414
33466SOL    HW1 6361  10.497   5.164  10.237 -0.3915  0.7824  0.5955
33466SOL    HW2 6362  10.644   5.128  10.243 -1.0484 -2.5340 -0.9922
33467SOL     OW 6363   0.459   8.340   2.788 -0.3439 -0.1963  0.2212
33467SOL    HW1 6364   0.385   8.330   2.847  0.8397 -0.8305  1.6668
33467SOL    HW2 6365   0.534   8.355   2.846  0.8975 -1.0531 -1.1061
33468SOL     OW 6366   2.712   2.091   4.920 -0.4080  0.2084 -0.6386
33468SOL    HW1 6367   2.628   2.128   4.892 -0.9250 -0.2918  0.1957
33468SOL    HW2 6368   2.729   2.133   5.005 -0.4264 -0.5848 -0.2345
33469SOL     OW 6369   1.126   2.271   0.820 -0.4312 -0.1845  0.3636
33469SOL    HW1 6370   1.112   2.178   0.801 -0.2917 -0.3482  1.0246
33469SOL    HW2 6371   1.191   2.299   0.756 -0.2584 -0.6190  0.3453
33470SOL     OW 6372   9.668   9.225  11.499 -0.3119  0.2128  0.2876
33470SOL    HW1 6373   9.686   9.311  11.535  0.7578  1.3264 -2.6158
33470SOL    HW2 6374   9.610   9.242  11.424  0.3202 -1.5199 -0.6503
33471SOL     OW 6375   2.581  12.099   0.551  0.2494 -0.0257 -0.1645
33471SOL    HW1 6376   2.668  12.102   0.590  0.3854 -0.4071 -0.4266
33471SOL    HW2 6377   2.592  12.140   0.465 -0.0840  0.9627  0.2537
33472SOL     OW 6378   4.964   8.102   7.471 -0.6828  0.7259  0.2646
33472SOL    HW1 6379   4.922   8.096   7.557 -0.1896  0.5435  0.4901
33472SOL    HW2 6380   5.024   8.028   7.467  0.8108  1.8664  0.5835
33473SOL     OW 6381   9.792   1.041   1.921  0.0177  0.1532  0.5274
33473SOL    HW1 6382   9.781   1.136   1.919  1.2931  0.3193  1.0693
33473SOL    HW2 6383   9.802   1.019   2.013 -0.4342 -0.5428  0.4245
33474SOL     OW 6384   6.657   0.684   9.305  0.5852 -0.4873  0.1572
33474SOL    HW1 6385   6.593   0.612   9.302 -0.1475  0.1560  0.0033
33474SOL    HW2 6386   6.715   0.668   9.230  0.1509 -0.6661 -0.1468
33475SOL     OW 6387   4.319   5.436   6.921 -0.2578 -0.0706 -0.3581
33475SOL    HW1 6388   4.347   5.370   6.984 -1.6418  0.5320  0.9437
33475SOL    HW2 6389   4.398   5.458   6.873  0.2512 -2.6840 -0.8831
33476SOL     OW 6390   1.195   4.839  11.226 -0.4120  0.2303  0.3626
33476SOL    HW1 6391   1.213   4.932  11.214 -1.1829  0.1862 -1.6309
33476SOL    HW2 6392   1.249   4.795  11.160 -0.7216 -0.6497  0.6809
33477SOL     OW 6393   7.604   1.528   6.872  0.5547  0.0044 -0.1794
33477SOL    HW1 6394   7.547   1.485   6.936  0.9947 -0.5514 -0.1499
33477SOL    HW2 6395   7.573   1.618   6.869  0.4607  0.0153  0.7538
33478SOL     OW 6396   6.503   5.171   0.430  0.0852  0.0757  0.1879
33478SOL    HW1 6397   6.596   5.165   0.412 -0.1826  0.3702 -1.4982
33478SOL    HW2 6398   6.468   5.227   0.360 -1.1844  0.9329  1.4427
33479SOL     OW 6399   8.352   0.627  10.451  0.4716 -0.0598  0.5322
33479SOL    HW1 6400   8.301   0.704  10.425  1.1372  0.5417  0.9713
33479SOL    HW2 6401   8.443   0.650  10.430  0.6278 -0.9124  0.2321
33480SOL     OW 6402   6.581   1.609   1.862 -0.1834 -0.3300  0.1842
33480SOL    HW1 6403   6.497   1.598   1.906  0.0556 -0.2182  0.6754
33480SOL    HW2 6404   6.559   1.651   1.779 -0.3611  2.4575  1.5138
33481SOL     OW 6405   9.345  12.457   9.142 -0.0680  0.3006 -0.0811
33481SOL    HW1 6406   9.411  12.495   9.200 -0.2543 -0.6412  0.7784
33481SOL    HW2 6407   9.302  12.391   9.196 -1.3417  0.5168 -0.8068
33482SOL     OW 6408   1.514   0.864  10.432  0.0026  0.0241  0.1662
33482SOL    HW1 6409   1.530   0.906  10.348  0.0833 -3.1944 -1.6044
33482SOL    HW2 6410   1.599   0.865  10.476  0.0154  1.5403  0.1691
33483SOL     OW 6411  11.000   5.402   1.981 -0.4185  0.4796  0.3408
33483SOL    HW1 6412  11.095   5.398   1.986 -0.3489 -0.5776 -1.1077
33483SOL    HW2 6413  10.981   5.482   1.932 -0.2015  0.0751 -0.4198
33484SOL     OW 6414   2.947   0.409  11.451  0.1152  0.2871  0.3608
33484SOL    HW1 6415   2.854   0.390  11.453  0.4345 -1.9135 -1.6355
33484SOL    HW2 6416   2.988   0.333  11.491  1.1333 -0.0277 -1.1774
33485SOL     OW 6417  11.679  11.767   3.220 -0.0575  0.1921 -0.1809
33485SOL    HW1 6418  11.745  11.720   3.169 -0.4980  0.3090 -0.8741
33485SOL    HW2 6419  11.725  11.845   3.251 -0.0855  0.6967 -1.3621
33486SOL     OW 6420   3.602   1.352   8.464 -0.0677 -0.0176  0.4820
33486SOL    HW1 6421   3.557   1.278   8.425  0.5297 -0.1415  0.0233
33486SOL    HW2 6422   3.596   1.336   8.559 -1.6519  0.3685  0.4816
33487SOL     OW 6423   2.499   6.379   4.242 -0.1875 -0.0888  0.0742
33487SOL    HW1 6424   2.429   6.339   4.294 -1.1775 -0.0486 -1.1630
33487SOL    HW2 6425   2.575   6.323   4.258 -1.0321 -1.3502 -0.0790
33488SOL     OW 6426   6.464   9.527   0.253 -0.4183  0.1105  0.1609
33488SOL    HW1 6427   6.451   9.453   0.194 -0.3877  0.8287 -0.7726
33488SOL    HW2 6428   6.407   9.509   0.328 -2.1821  0.2420 -1.0879
33489SOL     OW 6429   2.556   8.604   6.688  0.1952  0.2681  0.1929
33489SOL    HW1 6430   2.526   8.525   6.642  0.6390 -0.3333  0.9282
33489SOL    HW2 6431   2.571   8.667   6.618  1.9939 -0.9942 -0.6449
33490SOL     OW 6432  10.394   7.663   8.358  0.0344 -0.2085  0.6383
33490SOL    HW1 6433  10.454   7.663   8.283 -0.0709 -3.3046  0.3962
33490SOL    HW2 6434  10.411   7.746   8.402  2.0838  0.5077 -1.2696
33491SOL     OW 6435   5.048   5.598   9.953 -0.3007  0.1779  0.4751
33491SOL    HW1 6436   4.973   5.615  10.011  0.4599  1.1316  1.2281
33491SOL    HW2 6437   5.085   5.517   9.986 -1.6971 -0.9827 -0.6852
33492SOL     OW 6438   7.255   6.123   2.988 -0.3076 -0.1633 -0.1247
33492SOL    HW1 6439   7.233   6.168   2.907  1.3048 -1.7569 -1.5254
33492SOL    HW2 6440   7.227   6.032   2.973 -1.2745 -0.2206  1.6889
33493SOL     OW 6441   6.202  11.103   5.732 -0.3942  0.7819 -0.1148
33493SOL    HW1 6442   6.266  11.053   5.681 -1.1757 -1.6697  1.1508
33493SOL    HW2 6443   6.230  11.194   5.722  0.6689  0.2549 -3.1707
33494SOL     OW 6444   3.323   3.360   2.650  0.1758 -0.2154 -0.0157
33494SOL    HW1 6445   3.399   3.407   2.616  1.0662 -0.7887  1.0903
33494SOL    HW2 6446   3.354   3.271   2.665 -0.8989 -0.6320 -0.1309
33495SOL     OW 6447   0.593   5.155   2.312 -0.0674  0.2492  0.3615
33495SOL    HW1 6448   0.665   5.124   2.257 -0.5798 -1.4543  0.5892
33495SOL    HW2 6449   0.625   5.237   2.350 -0.3878  2.6139 -3.9193
33496SOL     OW 6450   1.290   6.045   9.584 -0.4491 -0.2282 -0.1044
33496SOL    HW1 6451   1.358   6.102   9.621 -0.0405 -0.6112 -0.2574
33496SOL    HW2 6452   1.313   6.037   9.492 -0.8582 -0.1424 -0.2133
33497SOL     OW 6453   5.107   6.168   3.398 -0.4138  0.0365 -0.1345
33497SOL    HW1 6454   5.176   6.141   3.338 -0.6037  0.9946 -0.8003
33497SOL    HW2 6455   5.026   6.145   3.353 -0.5813 -1.9127  1.0180
33498SOL     OW 6456  12.357   2.574   9.740 -0.5698  0.1856 -0.3321
33498SOL    HW1 6457  12.263   2.575   9.753 -0.7955  2.1575 -1.7320
33498SOL    HW2 6458  12.369   2.553   9.647  0.5399 -2.7322  0.3513
33499SOL     OW 6459  10.010   4.275   6.153 -0.0794 -0.4697  0.2365
33499SOL    HW1 6460   9.997   4.360   6.195 -2.6732 -0.2427 -0.8291
33499SOL    HW2 6461  10.041   4.295   6.065  2.3162 -0.8266  0.9241
33500SOL     OW 6462  11.452   2.103   7.800 -0.2688  0.0781  0.7098
33500SOL    HW1 6463  11.461   2.011   7.773 -1.1956  0.4057 -0.8611
33500SOL    HW2 6464  11.374   2.104   7.855 -0.1034 -0.1205  0.9486
33501SOL     OW 6465   6.906   5.182   0.705  0.3645 -0.2133  0.3062
33501SOL    HW1 6466   6.942   5.131   0.778 -0.3135 -0.6101  0.3659
33501SOL    HW2 6467   6.843   5.241   0.746 -0.8900 -1.2475 -0.0804
33502SOL     OW 6468   8.525   9.539   1.364  0.3477  0.1025  0.3057
33502SOL    HW1 6469   8.559   9.619   1.404 -0.1434  0.5940 -0.2474
33502SOL    HW2 6470   8.523   9.475   1.435 -0.4063  0.9272  1.0320
33503SOL     OW 6471  11.842   4.979   3.690  0.0170 -0.3072 -0.1533
33503SOL    HW1 6472  11.789   4.938   3.621  0.0357 -1.9167  0.7388
33503SOL    HW2 6473  11.780   5.030   3.741 -0.0438  0.6796 -1.1782
33504SOL     OW 6474   8.655   3.822   9.159  0.0129  0.0979  0.3389
33504SOL    HW1 6475   8.629   3.731   9.176  0.4090 -0.1009 -0.0801
33504SOL    HW2 6476   8.744   3.828   9.194  0.7606 -0.2550 -1.3949
33505SOL     OW 6477   2.966   4.398   6.067  0.2533  0.6861 -0.4407
33505SOL    HW1 6478   2.876   4.382   6.094  0.2977  1.6673  0.3078
33505SOL    HW2 6479   2.981   4.491   6.084  1.4284  0.5218 -0.4881
33506SOL     OW 6480   3.138   1.133   7.498 -0.4664  0.4279  0.0366
33506SOL    HW1 6481   3.132   1.174   7.412  0.0678 -1.0712 -0.7596
33506SOL    HW2 6482   3.220   1.166   7.534  0.7699 -1.0783 -1.2641
33507SOL     OW 6483   1.174  10.784   2.552 -0.9448 -0.1131 -0.1766
33507SOL    HW1 6484   1.223  10.731   2.615 -1.1130 -0.9214 -0.7126
33507SOL    HW2 6485   1.111  10.724   2.514 -1.3924  0.5683 -0.5335
33508SOL     OW 6486  10.947   9.782  10.819 -0.1359 -0.4750  0.5748
33508SOL    HW1 6487  10.878   9.847  10.805  0.6552 -0.1797 -2.7398
33508SOL    HW2 6488  11.020   9.832  10.857 -0.1676  0.2359 -0.2702
33509SOL     OW 6489  10.522   4.452  10.177 -0.5708 -0.2617  0.0251
33509SOL    HW1 6490  10.435   4.412  10.182  0.1842 -2.7952 -3.3269
33509SOL    HW2 6491  10.514   4.520  10.110 -0.1327  0.1080  0.3378
33510SOL     OW 6492   6.505   3.017   7.926 -0.2258  0.2067  0.2460
33510SOL    HW1 6493   6.481   2.932   7.962 -0.1946 -0.2590 -0.7830
33510SOL    HW2 6494   6.480   3.080   7.993  0.9060 -0.6920  1.5732
33511SOL     OW 6495   0.195  10.375   1.667  0.2461  0.0371  0.2883
33511SOL    HW1 6496   0.137  10.303   1.691 -0.8971  0.4719 -1.0210
33511SOL    HW2 6497   0.159  10.451   1.713  0.7948 -0.0010  0.7940
33512SOL     OW 6498   9.316  10.984  10.231 -0.0454 -0.1854  0.4981
33512SOL    HW1 6499   9.320  10.901  10.278  0.6975 -2.3336 -2.9638
33512SOL    HW2 6500   9.389  10.980  10.170  0.0364  3.1113  0.2447
33513SOL     OW 6501   5.298   3.251   8.960  0.6018 -0.2949 -0.2150
33513SOL    HW1 6502   5.227   3.235   9.023  0.1994 -1.7189 -1.0075
33513SOL    HW2 6503   5.329   3.339   8.982 -1.1438  0.2090  0.4123
33514SOL     OW 6504   8.145   6.110   8.976  0.2371 -0.5299 -0.1090
33514SOL    HW1 6505   8.160   6.077   8.887  0.1838  0.1092 -0.3676
33514SOL    HW2 6506   8.078   6.053   9.013 -0.5349 -0.1456 -0.8769
33515SOL     OW 6507   9.292   5.284   6.070  0.1815 -0.3760 -0.4184
33515SOL    HW1 6508   9.287   5.360   6.127  2.1715 -0.3575 -0.2049
33515SOL    HW2 6509   9.273   5.209   6.127  0.8648 -0.2435 -0.0061
33516SOL     OW 6510   3.126   9.447   2.519 -0.5675 -0.0992  0.6304
33516SOL    HW1 6511   3.120   9.542   2.509 -0.6424 -0.1437  0.2487
33516SOL    HW2 6512   3.036   9.417   2.525 -0.5210  0.0248  2.4578
33517SOL     OW 6513   7.828   8.086  11.152 -0.2437  0.3996 -0.1106
33517SOL    HW1 6514   7.812   8.047  11.066 -0.8556  0.3370  0.0317
33517SOL    HW2 6515   7.763   8.046  11.209  0.2314  0.3581  0.4127
33518SOL     OW 6516   0.284   5.670   6.525 -0.4114 -0.3132 -0.1704
33518SOL    HW1 6517   0.265   5.725   6.450 -0.5471 -0.7001 -0.4231
33518SOL    HW2 6518   0.198   5.648   6.561 -0.4023 -1.1099 -0.6183
33519SOL     OW 6519  11.680   7.283   4.944  0.0327 -0.0170  0.4258
33519SOL    HW1 6520  11.695   7.218   5.012  0.7276 -0.5543 -0.2221
33519SOL    HW2 6521  11.752   7.270   4.883 -1.2987 -0.4604 -1.1140
33520SOL     OW 6522   8.601   6.120   0.046 -0.0126  0.4184  0.0143
33520SOL    HW1 6523   8.621   6.107  -0.047 -0.2244 -1.9258  0.2484
33520SOL    HW2 6524   8.507   6.135   0.049 -0.1617 -0.5003 -0.0645
33521SOL     OW 6525  10.848   4.805  10.796  0.0369  0.4216  0.0212
33521SOL    HW1 6526  10.877   4.885  10.751 -0.9860  1.4205  1.0606
33521SOL    HW2 6527  10.815   4.836  10.880  1.1187 -1.3039  1.1395
33522SOL     OW 6528   9.834  12.394   0.474 -0.3993  0.2850  0.6030
33522SOL    HW1 6529   9.866  12.352   0.555 -1.2482  1.1953  1.4388
33522SOL    HW2 6530   9.847  12.328   0.406  0.8778 -0.2945  1.3732
33523SOL     OW 6531   9.431   4.005   3.893  0.2621  0.2820  0.0144
33523SOL    HW1 6532   9.434   4.009   3.798 -1.8812  0.9979 -0.0906
33523SOL    HW2 6533   9.343   4.038   3.915  0.8361  0.4696  2.2461
33524SOL     OW 6534  12.069   1.095   0.397 -0.3516  0.5008  0.3506
33524SOL    HW1 6535  12.108   1.040   0.465 -1.0439 -0.1371  0.2439
33524SOL    HW2 6536  12.120   1.076   0.318 -0.0544  0.6510  0.5020
33525SOL     OW 6537   3.580   7.938   4.250  0.6212  0.0704  0.2681
33525SOL    HW1 6538   3.491   7.921   4.220 -0.0342  0.8195  1.6808
33525SOL    HW2 6539   3.584   8.033   4.260  1.2727 -0.0261  1.0824
33526SOL     OW 6540   4.138   6.922   8.925 -0.0034 -0.5977  0.1447
33526SOL    HW1 6541   4.128   6.951   8.834 -1.8680  0.0128  0.5020
33526SOL    HW2 6542   4.231   6.935   8.944  0.1518  0.6087 -1.2330
33527SOL     OW 6543  12.047  10.106  10.128  0.1215  0.1881  0.0446
33527SOL    HW1 6544  11.977  10.119  10.191 -0.6915  2.2084 -1.1799
33527SOL    HW2 6545  12.027  10.167  10.057  1.7726 -0.9675 -1.5061
33528SOL     OW 6546   1.622   5.751  10.758 -0.2198 -0.2495  0.3720
33528SOL    HW1 6547   1.572   5.781  10.682 -0.5622 -0.1793  0.6241
33528SOL    HW2 6548   1.594   5.808  10.830  0.2788 -0.1555  0.5017
33529SOL     OW 6549   5.426   5.820  10.539 -0.0279 -0.3441 -0.3816
33529SOL    HW1 6550   5.485   5.766  10.487 -1.9385 -1.1936 -1.8008
33529SOL    HW2 6551   5.346   5.767  10.547 -0.7861  0.9407  1.0432
33530SOL     OW 6552   4.469   0.763   8.206 -0.1955 -0.1490 -0.7249
33530SOL    HW1 6553   4.477   0.696   8.274  0.7756  0.2670 -0.4103
33530SOL    HW2 6554   4.398   0.820   8.237  0.0365 -0.1341 -0.2081
33531SOL     OW 6555   5.082  10.444   8.028 -0.1622  0.6338  0.2579
33531SOL    HW1 6556   4.995  10.469   8.058 -0.5820 -0.8642  0.4122
33531SOL    HW2 6557   5.125  10.526   8.003 -1.1102  1.5423  1.5108
33532SOL     OW 6558  10.484   7.693  11.935  0.2827  0.0203  0.0291
33532SOL    HW1 6559  10.405   7.644  11.915  0.1031  0.3062  0.0348
33532SOL    HW2 6560  10.537   7.634  11.989  0.0092 -0.1114  0.1503
33533SOL     OW 6561   7.921   4.108   1.173  0.7406  0.6587 -0.0856
33533SOL    HW1 6562   7.870   4.155   1.240 -1.0961  0.6786 -1.4284
33533SOL    HW2 6563   8.006   4.152   1.172  0.4222  1.3829  1.4136
33534SOL     OW 6564  11.587  12.318   8.150  0.1093  0.0467  0.0989
33534SOL    HW1 6565  11.577  12.361   8.235  0.3591 -2.7030  1.6282
33534SOL    HW2 6566  11.670  12.271   8.156  0.8492  0.8870 -2.2621
33535SOL     OW 6567   4.736   4.865   1.261  0.3715 -0.3872 -0.5543
33535SOL    HW1 6568   4.793   4.863   1.338  0.2226  1.0923 -0.3778
33535SOL    HW2 6569   4.776   4.931   1.203 -0.8356  0.2906 -0.6556
33536SOL     OW 6570   7.561   0.099  11.894  0.1392 -0.0645  0.0211
33536SOL    HW1 6571   7.544   0.008  11.869  2.3931 -0.5290  0.0035
33536SOL    HW2 6572   7.489   0.121  11.952 -1.3480 -1.3086 -1.2291
33537SOL     OW 6573   7.072   1.873   5.569  0.3139 -0.2015  0.1209
33537SOL    HW1 6574   7.103   1.783   5.560  0.8346  0.0400 -0.6343
33537SOL    HW2 6575   7.142   1.916   5.619  1.5857  0.4907 -2.0920
33538SOL     OW 6576  11.586   0.420  11.689  0.4476  0.2218 -0.3554
33538SOL    HW1 6577  11.522   0.441  11.756  2.0779  3.4974  0.3597
33538SOL    HW2 6578  11.620   0.334  11.714 -3.6250 -1.7837 -0.9206
33539SOL     OW 6579  10.109  10.588   7.118 -0.6525  0.1819  0.1360
33539SOL    HW1 6580  10.187  10.622   7.074  0.1530 -1.8811 -0.1518
33539SOL    HW2 6581  10.046  10.574   7.047 -0.5375 -0.0708  0.0823
33540SOL     OW 6582   8.215   1.935   8.059 -0.3592 -0.0057 -0.2844
33540SOL    HW1 6583   8.199   1.941   7.965  0.3244  0.0556 -0.3984
33540SOL    HW2 6584   8.305   1.966   8.070 -0.8483  1.1921  0.5269
33541SOL     OW 6585   6.080   3.153   8.915 -0.0002 -0.1446 -0.2440
33541SOL    HW1 6586   6.093   3.248   8.906  0.7099 -0.3177 -1.2391
33541SOL    HW2 6587   6.114   3.117   8.833 -2.4240 -1.0731 -0.9211
33542SOL     OW 6588   0.485   7.909  10.810 -0.1197  0.0538 -0.0207
33542SOL    HW1 6589   0.493   7.816  10.790  0.2528  0.3101 -1.0786
33542SOL    HW2 6590   0.396   7.931  10.782  0.6037  0.5508 -2.0702
33543SOL     OW 6591   6.666   0.553  11.103  0.5288  0.7494 -0.4137
33543SOL    HW1 6592   6.734   0.492  11.131 -0.1076 -0.1779 -0.8507
33543SOL    HW2 6593   6.644   0.525  11.015 -2.0233 -0.4457  0.5159
33544SOL     OW 6594   9.729  11.541   1.156  0.3030 -0.9011 -0.7800
33544SOL    HW1 6595   9.753  11.580   1.072 -4.0848  0.6989 -1.5066
33544SOL    HW2 6596   9.728  11.614   1.217 -3.5938 -0.5077 -1.1245
33545SOL     OW 6597   3.283  12.338   6.147  0.4817 -0.3136 -0.4682
33545SOL    HW1 6598   3.350  12.270   6.137 -0.1197 -1.0719  0.4767
33545SOL    HW2 6599   3.238  12.315   6.228 -1.5797 -0.3985 -1.5756
33546SOL     OW 6600   9.855   4.562   6.961 -0.2424  0.1875  0.1267
33546SOL    HW1 6601   9.810   4.569   7.045 -1.2234 -0.0040 -0.3654
33546SOL    HW2 6602   9.948   4.557   6.984 -0.5881 -1.7976  1.3135
33547SOL     OW 6603  10.032   6.590  10.499  0.1816 -0.0065  0.0948
33547SOL    HW1 6604  10.071   6.629  10.577  0.7521  1.0552 -0.7032
33547SOL    HW2 6605  10.067   6.641  10.426 -2.8109  1.1507 -0.6679
33548SOL     OW 6606   2.729  10.528   6.926 -0.0145  0.3523 -0.5512
33548SOL    HW1 6607   2.670  10.563   6.859  0.6206  1.4844 -0.5351
33548SOL    HW2 6608   2.774  10.456   6.882 -0.7386  0.0609 -0.8387
33549SOL     OW 6609   8.450  11.375  10.368  0.1060  0.4084 -0.5725
33549SOL    HW1 6610   8.474  11.393  10.277 -1.1915 -1.0859 -1.2421
33549SOL    HW2 6611   8.506  11.301  10.393 -1.3293 -0.8848 -1.0441
33550SOL     OW 6612   9.166   6.761   7.715 -0.2034 -0.1598 -0.0707
33550SOL    HW1 6613   9.086   6.728   7.755  0.0820  0.5955  1.1945
33550SOL    HW2 6614   9.195   6.831   7.774  2.0295 -1.2058  0.1896
33551SOL     OW 6615   2.398   0.901   6.354 -0.2761  0.0584  0.1740
33551SOL    HW1 6616   2.341   0.979   6.353  0.6276  0.7309 -0.8909
33551SOL    HW2 6617   2.409   0.882   6.447 -2.3399 -0.1885  0.4220
33552SOL     OW 6618   7.072   1.212  10.331  0.3112  0.4936  0.4514
33552SOL    HW1 6619   7.126   1.149  10.379  0.0885  0.5051  0.7216
33552SOL    HW2 6620   7.133   1.255  10.271  0.3357 -0.4654 -0.2334
33553SOL     OW 6621   8.510   1.053   8.317 -0.0440  0.0007 -0.1968
33553SOL    HW1 6622   8.600   1.028   8.333  0.1388  1.4321  1.2234
33553SOL    HW2 6623   8.516   1.129   8.259 -0.3247  0.1334 -0.0575
33554SOL     OW 6624   4.240  10.728   0.371 -0.1787  0.4441 -0.0000
33554SOL    HW1 6625   4.176  10.706   0.302  0.1504  1.5891 -0.7024
33554SOL    HW2 6626   4.234  10.655   0.433 -1.7737  0.2491 -0.3249
33555SOL     OW 6627   5.128   8.293   1.742  0.4802 -0.2770 -0.4917
33555SOL    HW1 6628   5.212   8.340   1.737  0.9591 -1.0886 -0.1970
33555SOL    HW2 6629   5.143   8.213   1.692  0.1072 -0.7575  0.1561
33556SOL     OW 6630   0.537   5.149   9.043  0.2561 -0.3552  0.8288
33556SOL    HW1 6631   0.465   5.104   9.000  0.3078  0.1900  0.1425
33556SOL    HW2 6632   0.559   5.221   8.984  0.4743  0.2939  1.6803
33557SOL     OW 6633  11.892  10.808   4.917 -0.6817 -0.2117  0.0564
33557SOL    HW1 6634  11.838  10.732   4.895  0.5885 -0.9638 -0.6210
33557SOL    HW2 6635  11.910  10.850   4.833  0.7103 -0.6475  0.1038
33558SOL     OW 6636   6.784   4.040  11.784  0.7529  0.5163  0.6721
33558SOL    HW1 6637   6.693   4.032  11.814  0.6896 -0.1216  0.3325
33558SOL    HW2 6638   6.820   3.952  11.794  0.5795  0.1320 -1.5618
33559SOL     OW 6639  11.734   2.583   5.646 -1.0116  0.1681  0.9330
33559SOL    HW1 6640  11.783   2.539   5.575  0.7254 -0.0038  2.1841
33559SOL    HW2 6641  11.725   2.673   5.616 -2.0390 -0.3318 -0.3658
33560SOL     OW 6642   6.194   6.860   1.110 -0.1696  0.0328 -0.0302
33560SOL    HW1 6643   6.238   6.932   1.155  0.3483 -0.8357  0.8892
33560SOL    HW2 6644   6.168   6.897   1.025  1.2418  0.9244 -0.1009
33561SOL     OW 6645   8.061  10.982   4.154  0.5509  0.1473  0.2333
33561SOL    HW1 6646   8.118  11.016   4.085 -1.0296 -0.1657 -1.2847
33561SOL    HW2 6647   8.014  11.060   4.186  0.2356  0.0803 -0.0617
33562SOL     OW 6648  12.144   9.287   2.054 -0.8007  0.1056  0.4154
33562SOL    HW1 6649  12.222   9.306   2.106 -0.1973 -2.5305  0.6147
33562SOL    HW2 6650  12.168   9.211   2.001 -2.4473  0.7539 -1.4043
33563SOL     OW 6651   5.732   5.805   1.002  0.0903  0.1496  0.4248
33563SOL    HW1 6652   5.670   5.765   1.062  0.1641 -0.5612  0.0449
33563SOL    HW2 6653   5.787   5.860   1.057 -0.5594  0.4011  0.8339
33564SOL     OW 6654   9.076   1.545   8.038 -0.0423  0.1815 -0.5173
33564SOL    HW1 6655   9.025   1.471   8.002  0.8973  0.1281 -1.8076
33564SOL    HW2 6656   9.167   1.518   8.028  0.2831  0.7193  0.8126
33565SOL     OW 6657  11.034   8.823  10.621 -0.2786 -0.2466 -0.4622
33565SOL    HW1 6658  11.080   8.747  10.656  1.1683  1.2400  1.0687
33565SOL    HW2 6659  11.080   8.898  10.658 -2.9378  1.3940 -0.1847
33566SOL     OW 6660   6.522   0.183  11.967 -0.2077 -0.3282  0.1619
33566SOL    HW1 6661   6.473   0.148  12.041  0.3619 -0.5780  0.4312
33566SOL    HW2 6662   6.612   0.190  11.999  0.1330 -0.8663 -0.6406
33567SOL     OW 6663   8.775   3.736   1.613 -0.8825 -0.6019 -0.0524
33567SOL    HW1 6664   8.718   3.690   1.552  0.2894 -0.2132 -1.4921
33567SOL    HW2 6665   8.801   3.815   1.566  1.9797 -1.4469 -0.0823
33568SOL     OW 6666   6.758   9.161   2.408 -0.0541  0.2689 -0.1052
33568SOL    HW1 6667   6.783   9.233   2.349  0.1348  0.9033  0.7369
33568SOL    HW2 6668   6.713   9.098   2.351  1.0337  0.3863 -1.1199
33569SOL     OW 6669   8.659   1.060  11.612  0.2287 -0.3188 -0.5578
33569SOL    HW1 6670   8.641   1.003  11.687 -0.5926 -0.2729 -0.7053
33569SOL    HW2 6671   8.572   1.086  11.581  0.5553 -0.4606 -1.6225
33570SOL     OW 6672   5.258   3.278   6.457 -0.0038  0.6995  0.0552
33570SOL    HW1 6673   5.192   3.232   6.509  0.5392  1.1498  1.1653
33570SOL    HW2 6674   5.339   3.230   6.474  0.7217  2.3915  1.7816
33571SOL     OW 6675   4.693  10.079   3.184 -0.2783  0.4307 -0.5093
33571SOL    HW1 6676   4.662  10.077   3.093 -1.4071 -2.4729 -0.1817
33571SOL    HW2 6677   4.747  10.001   3.192 -0.3714  0.5160  1.3658
33572SOL     OW 6678   5.107   5.845   1.055 -0.3167  0.3388 -0.0869
33572SOL    HW1 6679   5.135   5.775   0.995  2.0714  1.7142 -0.7273
33572SOL    HW2 6680   5.012   5.849   1.045 -0.1970 -0.8410 -2.2713
33573SOL     OW 6681   6.050   3.397   8.445  0.0601 -0.0394  0.0923
33573SOL    HW1 6682   6.053   3.485   8.482 -0.7715 -0.2713  0.7372
33573SOL    HW2 6683   5.958   3.374   8.445  0.1198 -0.3452 -1.4749
33574SOL     OW 6684   5.351   1.249   6.189  0.3886 -0.0513 -0.5507
33574SOL    HW1 6685   5.273   1.300   6.212 -0.4978 -2.0480  1.1678
33574SOL    HW2 6686   5.343   1.233   6.095 -0.8357  0.4712 -0.5557
33575SOL     OW 6687   6.511   1.981   1.283  0.2723 -0.7344 -0.0009
33575SOL    HW1 6688   6.599   2.015   1.297 -0.4967  0.8299  1.3156
33575SOL    HW2 6689   6.456   2.029   1.345 -1.2743 -2.7600  0.3097
33576SOL     OW 6690   5.879   8.228   3.286 -0.0678  0.9963  0.0753
33576SOL    HW1 6691   5.938   8.258   3.355  0.6165  1.8388 -0.8389
33576SOL    HW2 6692   5.937   8.193   3.219 -0.7572 -0.3052  0.1400
33577SOL     OW 6693   6.639   5.939   9.491 -0.4400 -0.1065  0.2399
33577SOL    HW1 6694   6.583   5.866   9.467 -0.3643 -0.1897  0.3176
33577SOL    HW2 6695   6.714   5.899   9.534  1.6844 -0.3889 -3.3105
33578SOL     OW 6696  11.594   4.086  11.635  0.0542 -0.5533 -0.0970
33578SOL    HW1 6697  11.656   4.034  11.687  1.4974 -1.5075 -2.5609
33578SOL    HW2 6698  11.604   4.051  11.546 -2.0453  1.1765 -1.0867
33579SOL     OW 6699  11.592   7.720   1.920 -0.2176 -0.0497  0.0254
33579SOL    HW1 6700  11.683   7.694   1.932  0.0052  0.4152 -0.6205
33579SOL    HW2 6701  11.567   7.682   1.836 -1.0538 -1.3398  0.8082
33580SOL     OW 6702   4.339   3.460   7.894 -0.4708 -0.2912 -0.4426
33580SOL    HW1 6703   4.431   3.433   7.890 -0.6036 -0.6870 -1.0840
33580SOL    HW2 6704   4.318   3.460   7.988 -0.2796 -1.8465 -0.3724
33581SOL     OW 6705   6.376   4.719   5.493 -0.4925  0.7982  0.5428
33581SOL    HW1 6706   6.465   4.716   5.458  0.7470  0.5471  3.3690
33581SOL    HW2 6707   6.336   4.636   5.466  0.2684  0.7399 -0.4394
33582SOL     OW 6708  11.181  11.058   7.745  0.8080 -0.4253  0.5854
33582SOL    HW1 6709  11.116  11.012   7.798 -0.7123  2.1854  1.1902
33582SOL    HW2 6710  11.255  11.071   7.804  1.4444 -2.3486  0.2729
33583SOL     OW 6711   2.339   9.346   8.739  0.7362  0.1562 -0.5454
33583SOL    HW1 6712   2.386   9.328   8.658  0.2659  1.9910 -1.2839
33583SOL    HW2 6713   2.390   9.415   8.782  0.1566  0.2847 -0.0368
33584SOL     OW 6714  10.167   4.522   3.479 -0.1926  0.0344  0.0787
33584SOL    HW1 6715  10.170   4.514   3.575  1.4691  0.6538  0.1094
33584SOL    HW2 6716  10.243   4.473   3.448  0.0957  1.0102 -0.8207
33585SOL     OW 6717  11.750   7.753   0.563  0.3502 -0.4260 -0.5146
33585SOL    HW1 6718  11.710   7.819   0.620  1.0370 -0.2772 -0.1927
33585SOL    HW2 6719  11.748   7.673   0.615  1.2179 -0.2304 -0.1698
33586SOL     OW 6720   2.282   8.666   2.503  0.0102 -0.0885  0.3629
33586SOL    HW1 6721   2.351   8.607   2.475  1.4794  1.1144  1.2957
33586SOL    HW2 6722   2.201   8.617   2.488  1.1326 -2.2178  0.8938
33587SOL     OW 6723   8.471   8.501  10.515 -0.1587 -0.0971  0.4978
33587SOL    HW1 6724   8.397   8.540  10.561 -0.9988  0.3270 -1.1615
33587SOL    HW2 6725   8.442   8.412  10.492 -0.3314  0.2217 -0.5401
33588SOL     OW 6726   3.404   2.590   5.914  0.0398  0.2971  0.1009
33588SOL    HW1 6727   3.484   2.644   5.914  0.9015 -0.8989 -1.4873
33588SOL    HW2 6728   3.369   2.599   5.826 -0.9642 -0.1052  0.4435
33589SOL     OW 6729   7.672  12.229   7.237  0.0849  0.0319  0.0346
33589SOL    HW1 6730   7.731  12.260   7.306 -0.0079 -1.1732  0.6784
33589SOL    HW2 6731   7.727  12.174   7.182 -0.0967  0.1217 -0.2371
33590SOL     OW 6732   2.704   4.449  10.744 -0.0866 -0.1556 -0.3962
33590SOL    HW1 6733   2.771   4.488  10.688 -0.4791  0.9033 -0.1452
33590SOL    HW2 6734   2.621   4.469  10.700 -0.2824 -1.0971 -0.4891
33591SOL     OW 6735   0.392   2.678   4.670  0.3748  0.4064 -0.4081
33591SOL    HW1 6736   0.436   2.755   4.634 -2.1017  1.6575 -1.0339
33591SOL    HW2 6737   0.413   2.607   4.609  3.8458  0.0915  0.9198
33592SOL     OW 6738   2.719   0.102   1.742 -0.0660  0.0951 -0.0241
33592SOL    HW1 6739   2.677   0.123   1.659 -0.2585  0.6904  0.2211
33592SOL    HW2 6740   2.647   0.091   1.804  0.1140  1.1278  0.3980
33593SOL     OW 6741   5.453   2.765   9.642 -0.1177  0.1201  0.0917
33593SOL    HW1 6742   5.396   2.734   9.713 -1.2172 -0.9456 -1.2086
33593SOL    HW2 6743   5.425   2.856   9.628 -0.2450  0.1764  0.6754
33594SOL     OW 6744   0.866   3.882   7.082  0.0650 -0.1230 -0.6831
33594SOL    HW1 6745   0.813   3.850   7.009 -1.1745 -0.2727  0.2529
33594SOL    HW2 6746   0.844   3.824   7.155 -2.4897  2.8683  1.1878
33595SOL     OW 6747  10.466  12.121   4.133  0.2725  0.1106 -0.2253
33595SOL    HW1 6748  10.560  12.104   4.129  0.0593 -0.9358 -1.7736
33595SOL    HW2 6749  10.427  12.055   4.075 -1.3133  1.2321 -0.5088
33596SOL     OW 6750   9.857  11.451  12.334 -0.0998  0.6326 -0.1472
33596SOL    HW1 6751   9.853  11.438  12.239 -2.4679 -0.5879  0.0238
33596SOL    HW2 6752   9.905  11.375  12.367 -1.8419 -0.5324 -0.1958
33597SOL     OW 6753   1.554   7.248   7.751  0.5430 -0.2371 -0.2454
33597SOL    HW1 6754   1.522   7.337   7.742  0.3854 -0.1941  0.6510
33597SOL    HW2 6755   1.484   7.202   7.797  0.1993 -1.0815 -1.5439
33598SOL     OW 6756   0.255  10.808   7.221  0.0646 -0.1694 -0.6899
33598SOL    HW1 6757   0.173  10.857   7.215  2.0427  3.4839 -0.8490
33598SOL    HW2 6758   0.285  10.801   7.130  0.4539 -0.5039 -0.5374
33599SOL     OW 6759   4.063   0.805   6.872 -0.4885 -0.0375  0.1009
33599SOL    HW1 6760   4.067   0.735   6.937 -0.9163 -0.5786 -0.4438
33599SOL    HW2 6761   4.154   0.831   6.859 -0.5174  1.7022  2.6157
33600SOL     OW 6762   7.988   3.680   3.424  0.1400  0.2134  0.0528
33600SOL    HW1 6763   8.074   3.679   3.466  0.4327 -0.5986 -0.5338
33600SOL    HW2 6764   7.952   3.592   3.440 -0.6460  0.5897  0.4127
33601SOL     OW 6765   4.499  10.185   9.466 -0.6822 -0.1400  0.4840
33601SOL    HW1 6766   4.576  10.213   9.418 -0.4217 -0.0014  0.9762
33601SOL    HW2 6767   4.505  10.090   9.469 -0.5884 -0.1353  0.4229
33602SOL     OW 6768   5.075   9.824   8.333  0.1291  0.5144  0.3785
33602SOL    HW1 6769   4.990   9.836   8.291 -0.4750 -2.2540  0.6043
33602SOL    HW2 6770   5.054   9.784   8.417  1.6308 -0.0762  0.4940
33603SOL     OW 6771   1.358   5.375   5.800  0.2266  0.2610  0.3133
33603SOL    HW1 6772   1.446   5.344   5.821  0.1465  0.4072  0.8927
33603SOL    HW2 6773   1.313   5.299   5.764 -0.0452 -0.3865  1.9345
33604SOL     OW 6774   7.972  10.866   0.244 -0.1508 -0.6086 -0.1378
33604SOL    HW1 6775   7.919  10.815   0.305 -0.7566  0.7872  0.5373
33604SOL    HW2 6776   7.917  10.873   0.165 -0.7666  0.3662  0.3614
33605SOL     OW 6777   0.837   4.006   5.944  0.1018  0.2312 -0.1345
33605SOL    HW1 6778   0.861   4.064   6.017 -0.7890 -0.6937  0.9209
33605SOL    HW2 6779   0.846   3.918   5.979  0.5554 -0.2718 -1.4496
33606SOL     OW 6780   6.007   6.524   9.501 -0.4939  0.0407 -0.3235
33606SOL    HW1 6781   5.997   6.430   9.485  2.9652 -0.9095  1.8369
33606SOL    HW2 6782   5.979   6.535   9.592  0.1134  0.8425 -0.2250
33607SOL     OW 6783   8.136   0.644   0.649  0.1892  0.3559  0.3970
33607SOL    HW1 6784   8.097   0.590   0.580  2.2529  0.9438 -1.3572
33607SOL    HW2 6785   8.124   0.734   0.618 -0.2522  0.7359  1.6235
33608SOL     OW 6786   4.147   4.587   9.919  0.2060  0.4521  0.1471
33608SOL    HW1 6787   4.125   4.539   9.839 -0.4932 -0.6854  1.0002
33608SOL    HW2 6788   4.100   4.670   9.911  1.1903  0.9094 -1.2099
33609SOL     OW 6789   1.091  12.026   2.360  0.5726 -0.3802 -0.1899
33609SOL    HW1 6790   1.153  11.957   2.337 -1.2804 -2.1198 -0.3202
33609SOL    HW2 6791   1.014  11.978   2.393  0.2985  1.7261  2.6262
33610SOL     OW 6792   2.723   0.616  11.071 -0.0679 -0.7207 -0.0185
33610SOL    HW1 6793   2.758   0.609  11.160 -0.0659 -1.8867 -0.0970
33610SOL    HW2 6794   2.722   0.526  11.038  1.6414 -0.1287 -1.8665
33611SOL     OW 6795   9.457   9.369  11.372  0.3634  0.8173 -0.7143
33611SOL    HW1 6796   9.505   9.442  11.411  1.4108  0.2213 -0.8579
33611SOL    HW2 6797   9.426   9.317  11.447 -1.9352  2.3173 -0.5278
33612SOL     OW 6798  10.492   3.568   5.517 -0.5022 -0.1572 -0.6786
33612SOL    HW1 6799  10.436   3.619   5.574  0.5079  1.1946 -0.8450
33612SOL    HW2 6800  10.462   3.589   5.428  0.7941  1.2743 -0.8100
33613SOL     OW 6801   7.414   7.006   4.155  0.1317  0.3630  0.6562
33613SOL    HW1 6802   7.367   7.025   4.073  2.3497  0.4116 -0.6852
33613SOL    HW2 6803   7.431   6.912   4.152  3.1767  0.8224 -0.7470
33614SOL     OW 6804   5.706  11.498   7.231 -0.1690 -0.2196  0.1758
33614SOL    HW1 6805   5.648  11.524   7.302 -0.7414 -1.5158  0.2049
33614SOL    HW2 6806   5.670  11.542   7.154 -0.1537  0.3684  0.4997
33615SOL     OW 6807   0.903  12.208   8.575  0.4051  0.2888 -0.4463
33615SOL    HW1 6808   0.845  12.221   8.650  1.3489  2.8797 -0.0804
33615SOL    HW2 6809   0.873  12.271   8.510  1.4458  0.1510 -1.0859
33616SOL     OW 6810   6.662   3.914   1.362  0.0526  0.5934 -0.1718
33616SOL    HW1 6811   6.733   3.895   1.300 -0.0774  0.8347 -0.3989
33616SOL    HW2 6812   6.619   3.992   1.326  0.8418  1.5958  0.9635
33617SOL     OW 6813  10.213  10.014   2.724 -0.2826 -0.4391 -0.3885
33617SOL    HW1 6814  10.137  10.044   2.675  0.7673  2.7144 -0.3217
33617SOL    HW2 6815  10.258   9.954   2.664 -2.2482 -1.5864 -0.7895
33618SOL     OW 6816   7.621   3.459   4.301 -0.5421  0.1051  0.2468
33618SOL    HW1 6817   7.608   3.553   4.309 -0.5927  0.0312  1.1486
33618SOL    HW2 6818   7.534   3.424   4.280 -0.4371  0.2949 -0.5385
33619SOL     OW 6819   1.283   7.909   1.670 -0.1962  0.2728 -0.0654
33619SOL    HW1 6820   1.200   7.872   1.641 -0.3839 -0.9060  1.8083
33619SOL    HW2 6821   1.259   7.971   1.739  0.4983 -1.2274  1.6134
33620SOL     OW 6822   3.327   7.419  10.110 -0.6674 -0.2011  0.0090
33620SOL    HW1 6823   3.274   7.441  10.187 -3.7819 -3.5247 -0.9010
33620SOL    HW2 6824   3.356   7.329  10.126  1.8626  0.3153 -1.1713
33621SOL     OW 6825   5.183   6.376   7.108 -0.3680 -0.5614 -0.0307
33621SOL    HW1 6826   5.118   6.312   7.080  0.2412 -0.6590 -1.2665
33621SOL    HW2 6827   5.224   6.407   7.027 -1.5206  2.3771  0.3982
33622SOL     OW 6828   7.603  11.620   3.602 -0.1174  1.0070 -0.0595
33622SOL    HW1 6829   7.608  11.597   3.509  1.7034  0.8620  0.0298
33622SOL    HW2 6830   7.532  11.566   3.636  0.1671 -0.0699 -1.0765
33623SOL     OW 6831   8.771   2.933   4.295 -0.5835  0.3285 -0.2212
33623SOL    HW1 6832   8.866   2.941   4.297 -0.5746  0.6023 -1.3212
33623SOL    HW2 6833   8.755   2.844   4.263 -0.6977  0.5535 -0.7885
33624SOL     OW 6834   5.364   6.794   2.729 -0.2911  0.1329 -0.1007
33624SOL    HW1 6835   5.341   6.886   2.746 -0.0265  0.0090  0.9896
33624SOL    HW2 6836   5.279   6.750   2.718 -0.4001  0.6540 -1.5189
33625SOL     OW 6837   9.369   5.667   7.927 -0.3283  0.0525  0.2974
33625SOL    HW1 6838   9.438   5.644   7.989 -1.0530  0.3312  1.2441
33625SOL    HW2 6839   9.337   5.583   7.895  0.0235 -0.0992  0.3390
33626SOL     OW 6840   4.584   4.656  11.531  0.3369  0.0133  0.6211
33626SOL    HW1 6841   4.668   4.702  11.531  0.1994  0.3707 -1.3119
33626SOL    HW2 6842   4.606   4.566  11.506  0.1011  0.2548 -0.4958
33627SOL     OW 6843   1.719   5.905  12.186 -0.4055 -0.2240 -0.3073
33627SOL    HW1 6844   1.778   5.832  12.167 -1.7952 -0.9118 -2.3459
33627SOL    HW2 6845   1.759   5.981  12.144 -0.0708 -0.2848 -0.1018
33628SOL     OW 6846   7.116  10.938   8.238  0.2668 -0.0480 -0.3425
33628SOL    HW1 6847   7.168  10.859   8.228 -1.3686 -1.4764  1.7217
33628SOL    HW2 6848   7.038  10.911   8.287 -0.4174  2.7963  0.3621
33629SOL     OW 6849   9.785  11.645   0.915 -0.4083  0.0403 -0.3497
33629SOL    HW1 6850   9.855  11.698   0.877 -1.4388  1.4264 -0.4130
33629SOL    HW2 6851   9.773  11.573   0.853  0.3626  0.2623 -0.7767
33630SOL     OW 6852   2.758   6.761   2.358 -0.1310 -0.2129 -0.5568
33630SOL    HW1 6853   2.673   6.724   2.383  0.8079 -0.1608  3.2722
33630SOL    HW2 6854   2.814   6.684   2.345 -0.3434 -0.2132 -1.5603
33631SOL     OW 6855   3.003   2.742   4.957  0.0246  0.5845 -0.1884
33631SOL    HW1 6856   3.017   2.799   5.033 -1.0706  1.8026 -0.8644
33631SOL    HW2 6857   2.926   2.778   4.914 -1.4248 -2.0853 -0.0414
33632SOL     OW 6858  10.413   3.774   9.560  0.4864 -0.3689  0.6907
33632SOL    HW1 6859  10.430   3.746   9.650  0.2052 -0.5014  0.7050
33632SOL    HW2 6860  10.456   3.859   9.552  1.7450 -0.9907  0.5131
33633SOL     OW 6861   8.004   0.986   7.726  0.0508 -0.4983 -0.1929
33633SOL    HW1 6862   7.912   0.982   7.702  0.0055  1.9670 -0.6849
33633SOL    HW2 6863   8.035   0.896   7.716 -2.5011 -1.6224  0.9819
33634SOL     OW 6864  10.373   0.911   0.885 -0.0097 -0.2011  0.1194
33634SOL    HW1 6865  10.434   0.883   0.953 -0.9919 -0.0260  1.1150
33634SOL    HW2 6866  10.308   0.841   0.882  0.1837 -0.3383 -0.8464
33635SOL     OW 6867  11.058  10.761  11.893  0.1965  0.3714  0.4011
33635SOL    HW1 6868  11.102  10.696  11.838 -0.4836  0.6925 -0.5432
33635SOL    HW2 6869  11.031  10.711  11.970  0.7299 -0.1961  0.2403
33636SOL     OW 6870   9.241   6.604   4.857  0.2794  0.2129 -0.0135
33636SOL    HW1 6871   9.250   6.554   4.938 -1.9453  0.5975  0.5222
33636SOL    HW2 6872   9.305   6.565   4.798  1.5146 -0.4931  1.7027
33637SOL     OW 6873   1.950   3.767   6.705 -0.0832  0.0386 -0.3447
33637SOL    HW1 6874   1.958   3.691   6.763  1.3387  0.3651 -0.0814
33637SOL    HW2 6875   1.866   3.755   6.661 -0.5267 -0.9493  0.7378
33638SOL     OW 6876   9.907   0.706  12.274  0.2131 -0.1865  0.5403
33638SOL    HW1 6877   9.829   0.759  12.258  0.5238  0.2333  0.3964
33638SOL    HW2 6878   9.956   0.710  12.192  2.0758  2.4188  1.6378
33639SOL     OW 6879   4.824   1.724   9.922 -0.0492  0.3460  0.0679
33639SOL    HW1 6880   4.815   1.815   9.894  2.0224  0.4276 -0.5187
33639SOL    HW2 6881   4.882   1.685   9.856 -0.9021 -1.4133  0.3083
33640SOL     OW 6882  10.187   6.879   1.998 -0.1757  0.2288  0.6359
33640SOL    HW1 6883  10.237   6.826   2.060  0.1745 -0.8095 -0.4806
33640SOL    HW2 6884  10.239   6.958   1.985  0.6633 -0.3693  0.2952
33641SOL     OW 6885   9.205   9.210   5.918  0.5406  0.1397 -0.0620
33641SOL    HW1 6886   9.277   9.253   5.963 -0.1116  1.0295  0.1624
33641SOL    HW2 6887   9.153   9.170   5.988  1.8157 -2.2006 -0.3290
33642SOL     OW 6888   9.256   0.149   2.896  0.1661  0.3296 -0.3273
33642SOL    HW1 6889   9.208   0.230   2.885  1.1105  0.9000 -0.4008
33642SOL    HW2 6890   9.264   0.137   2.990 -1.0202 -0.3408 -0.2863
33643SOL     OW 6891   4.326   6.100   9.252 -0.4518  0.7232  0.0462
33643SOL    HW1 6892   4.281   6.103   9.337 -0.6340 -0.5225  0.0095
33643SOL    HW2 6893   4.366   6.013   9.249 -1.1964  0.4022 -1.5157
33644SOL     OW 6894   1.603   7.584   3.995  0.2422 -0.2508 -0.6203
33644SOL    HW1 6895   1.568   7.526   3.928 -0.5306  0.5244 -0.9039
33644SOL    HW2 6896   1.698   7.571   3.990  0.0579 -2.1464 -0.0540
33645SOL     OW 6897   9.992   6.843   9.558 -0.0522  0.3512 -0.3736
33645SOL    HW1 6898   9.975   6.911   9.493 -0.7929  0.6253  0.0983
33645SOL    HW2 6899   9.978   6.887   9.643 -1.6355 -0.6409 -0.0751
33646SOL     OW 6900   0.054   0.322   7.799  0.3676  0.0193  0.3938
33646SOL    HW1 6901  -0.028   0.326   7.848 -0.3015 -0.5516 -0.6428
33646SOL    HW2 6902   0.028   0.333   7.707  1.3071 -1.3673 -0.0648
33647SOL     OW 6903   1.225   3.556   6.809  0.0993 -0.7293  0.0754
33647SOL    HW1 6904   1.131   3.561   6.825  0.2683 -0.6457  1.1593
33647SOL    HW2 6905   1.263   3.545   6.897  1.0056 -2.0794 -0.4485
33648SOL     OW 6906   0.785   7.192   9.044 -0.3833  0.5096 -0.0393
33648SOL    HW1 6907   0.723   7.119   9.040 -0.9347  0.9929 -0.6258
33648SOL    HW2 6908   0.839   7.181   8.966  0.1202  0.2205  0.3490
33649SOL     OW 6909   6.848   1.294   5.193  0.4508  0.0062 -0.4299
33649SOL    HW1 6910   6.840   1.286   5.288 -1.1848 -0.4007 -0.5810
33649SOL    HW2 6911   6.920   1.235   5.170 -0.4819 -1.5029  0.3502
33650SOL     OW 6912   0.151  11.231  10.324 -0.4745 -0.6109  0.3454
33650SOL    HW1 6913   0.214  11.301  10.311  0.3795 -0.9143  2.5081
33650SOL    HW2 6914   0.065  11.272  10.311  0.0669  0.2596 -0.6456
33651SOL     OW 6915   4.737   2.710   8.077 -0.2732  0.5283  0.1484
33651SOL    HW1 6916   4.661   2.719   8.019  0.2109  0.7809 -0.4440
33651SOL    HW2 6917   4.749   2.615   8.084 -0.9845  0.4671  0.7007
33652SOL     OW 6918   3.439   5.734   1.863 -0.3895 -0.0695 -0.1086
33652SOL    HW1 6919   3.419   5.810   1.917 -0.3782  0.0083 -0.2137
33652SOL    HW2 6920   3.355   5.710   1.823 -0.4289 -0.2195  0.0610
33653SOL     OW 6921   8.015  11.440   6.669 -0.1604  0.1522  0.1762
33653SOL    HW1 6922   8.080  11.394   6.722  0.5713  0.4567 -0.4500
33653SOL    HW2 6923   7.949  11.468   6.732  1.7842  2.4826  1.3248
33654SOL     OW 6924   0.566   5.351   0.906  0.1459  0.5754  0.4318
33654SOL    HW1 6925   0.498   5.384   0.965 -1.7936 -0.5672 -1.0351
33654SOL    HW2 6926   0.526   5.356   0.819  1.5332 -1.1673 -0.3558
33655SOL     OW 6927  12.134   0.821  12.481 -0.0281 -0.1492 -0.3619
33655SOL    HW1 6928  12.160   0.820  12.573 -3.5458 -2.0246  0.8026
33655SOL    HW2 6929  12.145   0.912  12.454  0.5442  0.5794  2.0736
33656SOL     OW 6930   5.330   7.468   6.235 -0.3402 -0.6532 -0.3674
33656SOL    HW1 6931   5.360   7.540   6.181 -0.8082 -0.1840 -0.0096
33656SOL    HW2 6932   5.312   7.508   6.320  1.6077 -1.5886  0.5553
33657SOL     OW 6933   6.518   7.006   1.943  0.4477 -0.0454 -0.1492
33657SOL    HW1 6934   6.511   7.067   2.017 -3.0573 -0.6626  0.1991
33657SOL    HW2 6935   6.561   6.929   1.980  1.6117  0.8229  0.3662
33658SOL     OW 6936   1.200   6.123   8.228 -0.5038 -0.1209 -0.5089
33658SOL    HW1 6937   1.268   6.100   8.292 -1.5107 -1.0493  0.2481
33658SOL    HW2 6938   1.186   6.043   8.179 -0.6197  0.2506 -1.0906
33659SOL     OW 6939   7.205   7.290  10.535  0.0003  0.0804 -0.3012
33659SOL    HW1 6940   7.253   7.306  10.454 -0.0313 -0.4561 -0.4249
33659SOL    HW2 6941   7.163   7.374  10.554  0.9660  0.5560 -0.1951
33660SOL     OW 6942   6.165   3.333  11.722  0.1781  0.3714 -0.3466
33660SOL    HW1 6943   6.085   3.355  11.770 -0.6132 -1.4597 -0.7417
33660SOL    HW2 6944   6.138   3.330  11.630  0.8000  0.1501 -0.5276
33661SOL     OW 6945   5.237   7.980   1.074  0.1047 -0.5266 -0.9334
33661SOL    HW1 6946   5.310   8.023   1.029  0.6462 -0.1889  0.2205
33661SOL    HW2 6947   5.268   7.892   1.093  0.7316 -0.0299  0.6097
33662SOL     OW 6948  11.506   7.272   9.170 -0.1473  0.3958 -0.1532
33662SOL    HW1 6949  11.426   7.219   9.164 -1.3681  2.0601  0.4063
33662SOL    HW2 6950  11.558   7.229   9.238 -0.8982 -0.3264 -0.0152
33663SOL     OW 6951  11.478  10.525   9.436  0.3790 -0.0987  0.2063
33663SOL    HW1 6952  11.544  10.571   9.487  0.6305 -1.4378  1.1465
33663SOL    HW2 6953  11.398  10.530   9.489  0.3499 -0.5365  0.2117
33664SOL     OW 6954   5.921   9.873   1.814  0.1773  0.3422 -0.2559
33664SOL    HW1 6955   5.936   9.900   1.905 -1.3050 -0.6664  0.3333
33664SOL    HW2 6956   5.980   9.798   1.802  1.8072  1.6413 -0.8048
33665SOL     OW 6957   4.264   4.644   7.997 -0.3324  0.3019 -1.1629
33665SOL    HW1 6958   4.231   4.555   7.986 -1.2770  0.5214 -0.2067
33665SOL    HW2 6959   4.346   4.632   8.046 -0.8029  0.0024 -0.4362
33666SOL     OW 6960   0.835   6.350   0.389  0.3104 -0.0723  0.2743
33666SOL    HW1 6961   0.847   6.421   0.327 -0.3229 -2.1185 -2.3653
33666SOL    HW2 6962   0.787   6.390   0.462 -0.1326  2.1524 -1.1400
33667SOL     OW 6963  12.394   5.563   1.159  0.0971  0.0189  0.1185
33667SOL    HW1 6964  12.302   5.590   1.153  0.4151  1.3106  0.6908
33667SOL    HW2 6965  12.429   5.616   1.231  1.3703 -0.2249 -0.3054
33668SOL     OW 6966   5.643   1.490  11.649  0.0741  0.2287  0.2307
33668SOL    HW1 6967   5.560   1.512  11.691  0.2474  0.5232  0.4155
33668SOL    HW2 6968   5.628   1.403  11.611 -0.8432  0.9227 -1.1018
33669SOL     OW 6969  11.581  10.060   2.625  0.1339 -0.0854 -0.2145
33669SOL    HW1 6970  11.531   9.979   2.633 -0.1717 -0.1483 -2.3503
33669SOL    HW2 6971  11.654  10.039   2.567  0.5705  0.9535 -0.0764
33670SOL     OW 6972   7.832   3.660  10.323  0.7421  0.6233  0.7733
33670SOL    HW1 6973   7.867   3.600  10.389 -0.3543 -0.4668  0.4098
33670SOL    HW2 6974   7.738   3.642  10.322  0.6473  1.0877 -0.6075
33671SOL     OW 6975   1.149   2.054  11.064  0.2030 -0.4990 -0.5015
33671SOL    HW1 6976   1.170   2.082  10.975 -0.3831 -0.4519 -0.6268
33671SOL    HW2 6977   1.083   2.117  11.094  0.1711 -0.6983 -0.1485
33672SOL     OW 6978   7.613   4.877   4.556  0.7186  0.3210  0.5767
33672SOL    HW1 6979   7.646   4.938   4.621  0.7729  0.7178  0.1790
33672SOL    HW2 6980   7.531   4.845   4.592 -0.4343  2.2710 -0.1675
33673SOL     OW 6981   8.211   2.809   4.142  0.2913  0.4492 -0.1558
33673SOL    HW1 6982   8.271   2.819   4.067  1.4709  0.1198  0.7132
33673SOL    HW2 6983   8.268   2.787   4.215 -1.0243 -1.1604  0.4540
33674SOL     OW 6984  11.820   3.814   1.415  0.3743 -0.3555 -0.6681
33674SOL    HW1 6985  11.792   3.905   1.402 -1.5041 -0.1539  3.3901
33674SOL    HW2 6986  11.756   3.762   1.366 -0.8975  0.4528  0.0776
33675SOL     OW 6987   8.961   7.735   7.560  0.4352  0.3197  0.1247
33675SOL    HW1 6988   8.967   7.828   7.584 -0.7471  0.2833  0.6712
33675SOL    HW2 6989   9.030   7.693   7.610  0.3934  0.7901  0.5901
33676SOL     OW 6990   3.963   6.449  10.815 -0.0024  0.0028 -0.0729
33676SOL    HW1 6991   3.993   6.468  10.904  0.0328 -1.0291  0.1457
33676SOL    HW2 6992   3.890   6.387  10.827 -1.3190  1.3751 -0.6643
33677SOL     OW 6993  11.146   1.349  12.365  0.8901  0.4657  0.5909
33677SOL    HW1 6994  11.190   1.314  12.287 -0.1485  1.0572 -0.2970
33677SOL    HW2 6995  11.189   1.306  12.438  0.5574 -1.6703 -0.3855
33678SOL     OW 6996   2.512   6.243   0.629 -0.0476 -0.2136 -0.0945
33678SOL    HW1 6997   2.601   6.268   0.655 -0.5484  0.6596  0.8980
33678SOL    HW2 6998   2.488   6.173   0.690 -0.6977  0.8479  0.9290
33679SOL     OW 6999   0.867   2.825  10.176 -0.2541 -0.0552  0.1697
33679SOL    HW1 7000   0.946   2.836  10.122  0.1378 -2.1211  0.2371
33679SOL    HW2 7001   0.795   2.825  10.114  0.2199 -2.7591 -0.5148
33680SOL     OW 7002   0.067   1.711   3.360  0.2868 -0.4818 -0.3853
33680SOL    HW1 7003   0.012   1.773   3.312  0.2219  0.7593  1.1977
33680SOL    HW2 7004   0.146   1.703   3.306  0.0338  0.4940 -0.9443
33681SOL     OW 7005   6.684   2.339   8.066  0.3585  0.0166  0.4153
33681SOL    HW1 7006   6.690   2.275   8.137  1.5608 -1.4757 -0.9731
33681SOL    HW2 7007   6.631   2.296   7.999 -0.7315  1.3928  0.3549
33682SOL     OW 7008   3.344   0.116   6.083 -0.4937 -0.1692 -0.0368
33682SOL    HW1 7009   3.295   0.037   6.106 -0.0599 -0.1508  0.9918
33682SOL    HW2 7010   3.436   0.092   6.096 -0.3078  0.2499 -0.5436
33683SOL     OW 7011   8.893  12.295   3.054  0.3527 -0.3759 -0.3432
33683SOL    HW1 7012   8.937  12.284   2.970 -0.2549 -0.4546 -0.6608
33683SOL    HW2 7013   8.962  12.319   3.115  0.4311  3.4254 -1.6014
33684SOL     OW 7014  11.926   6.337   1.630  0.1583  0.3122 -0.6532
33684SOL    HW1 7015  11.858   6.310   1.568 -1.2270 -3.1853  2.0527
33684SOL    HW2 7016  11.883   6.399   1.689 -0.3504 -0.8245  0.2105
33685SOL     OW 7017   3.740  11.845   2.200 -0.6778  0.0150  0.2418
33685SOL    HW1 7018   3.682  11.860   2.125 -0.4702 -0.2506  0.0223
33685SOL    HW2 7019   3.681  11.832   2.274 -0.9351 -1.2552 -0.1640
33686SOL     OW 7020  12.150   1.383  11.792  0.3768  0.0286 -0.1294
33686SOL    HW1 7021  12.110   1.314  11.739  2.6487 -0.8208 -0.8488
33686SOL    HW2 7022  12.080   1.411  11.852 -0.6714 -2.7989  0.1061
33687SOL     OW 7023   1.689   4.414   6.082 -0.1442  0.8086 -0.4007
33687SOL    HW1 7024   1.711   4.436   5.991 -1.4567 -0.5950 -1.0953
33687SOL    HW2 7025   1.700   4.319   6.087 -0.0787  0.8647  0.9334
33688SOL     OW 7026   7.615   3.174   8.333  0.0125 -0.5585  0.1559
33688SOL    HW1 7027   7.662   3.095   8.359  0.0698 -0.6587 -0.2540
33688SOL    HW2 7028   7.667   3.246   8.368  0.9957 -0.6244 -1.0985
33689SOL     OW 7029  12.285  10.129   2.653 -0.3349 -0.0590 -0.3747
33689SOL    HW1 7030  12.350  10.071   2.692 -0.0108 -0.9965 -2.1832
33689SOL    HW2 7031  12.333  10.210   2.636  1.0630 -1.3900 -3.5236
33690SOL     OW 7032   3.798   2.129   2.278  0.0494 -0.2936  0.0323
33690SOL    HW1 7033   3.877   2.085   2.248  1.0428 -0.4799  2.6610
33690SOL    HW2 7034   3.728   2.089   2.226  1.6640  0.5866 -3.0992
33691SOL     OW 7035   9.844   7.143   3.064 -0.3860  0.2035  0.0004
33691SOL    HW1 7036   9.822   7.050   3.063 -0.9114  0.2966  1.2158
33691SOL    HW2 7037   9.922   7.148   3.120  0.2397  0.3892 -0.8648
33692SOL     OW 7038   8.146   1.857   8.545 -0.1983 -0.1592 -0.2883
33692SOL    HW1 7039   8.197   1.931   8.511  0.6401  0.3630  1.8795
33692SOL    HW2 7040   8.190   1.780   8.510  1.7134  0.3019  0.8900
33693SOL     OW 7041   2.143   6.865  10.019 -0.1631 -0.2621 -0.1966
33693SOL    HW1 7042   2.165   6.955  10.046  1.0639 -0.6930  0.3011
33693SOL    HW2 7043   2.156   6.865   9.925 -2.0277  0.5714 -0.5121
33694SOL     OW 7044  12.363   2.446   6.067 -0.4629  0.2749 -0.7712
33694SOL    HW1 7045  12.457   2.445   6.052 -0.2918 -0.6774  0.2272
33694SOL    HW2 7046  12.330   2.374   6.013 -0.5019  0.0855 -0.4982
33695SOL     OW 7047   4.580  10.213   2.593  0.1250  0.5781 -0.0340
33695SOL    HW1 7048   4.605  10.188   2.504  0.5894  0.9112 -0.0006
33695SOL    HW2 7049   4.523  10.142   2.623  1.8172 -0.7155  0.2561
33696SOL     OW 7050  12.474   7.412   1.380  0.2543 -0.1463  0.4478
33696SOL    HW1 7051  12.430   7.328   1.389  0.2754  0.0130  2.2795
33696SOL    HW2 7052  12.550   7.405   1.438  0.7260  0.8320 -0.0341
33697SOL     OW 7053   2.363   8.163   5.861 -0.3240  0.1067 -0.3386
33697SOL    HW1 7054   2.283   8.209   5.836 -1.0227  0.5078  2.3171
33697SOL    HW2 7055   2.430   8.197   5.802 -1.8329  0.7596 -1.7386
33698SOL     OW 7056   1.424   4.652   5.102 -0.0240 -0.2367 -0.3759
33698SOL    HW1 7057   1.418   4.696   5.017  1.2522  0.3753 -0.1768
33698SOL    HW2 7058   1.412   4.722   5.166  0.0788 -0.5181 -0.0470
33699SOL     OW 7059   4.979  10.685   6.732 -0.0209 -0.4523 -0.3133
33699SOL    HW1 7060   4.959  10.752   6.797 -2.2178 -1.9757  0.7309
33699SOL    HW2 7061   5.012  10.733   6.656  1.0430  1.5189  1.3254
33700SOL     OW 7062   0.336   9.941   6.269 -0.3676  0.4843 -0.9131
33700SOL    HW1 7063   0.425   9.953   6.304 -0.8524  2.4915 -0.2525
33700SOL    HW2 7064   0.279   9.961   6.343 -1.3724  1.1416 -1.8459
33701SOL     OW 7065   6.714   5.838  10.914  0.3513  0.0189 -0.1389
33701SOL    HW1 7066   6.619   5.838  10.919  0.3426 -0.1548 -0.2789
33701SOL    HW2 7067   6.733   5.831  10.820  0.5014  0.4828 -0.1412
33702SOL     OW 7068   3.975   9.320   5.879 -0.1697 -0.7265  0.3590
33702SOL    HW1 7069   4.052   9.376   5.894  0.4993 -1.1729 -1.2128
33702SOL    HW2 7070   3.906   9.381   5.854  0.5817 -0.5514 -1.4571
33703SOL     OW 7071   3.131   2.263   4.531 -0.0735 -0.1208 -0.4285
33703SOL    HW1 7072   3.162   2.317   4.457 -1.6885 -1.4524 -2.1878
33703SOL    HW2 7073   3.108   2.327   4.598 -1.3297  1.4285 -2.2028
33704SOL     OW 7074  12.307  10.792   5.214 -0.3933 -0.0434 -0.1022
33704SOL    HW1 7075  12.256  10.712   5.227 -1.7405  0.7872 -0.1133
33704SOL    HW2 7076  12.250  10.849   5.164  1.0345  0.4758 -1.2131
33705SOL     OW 7077   3.190   4.578  10.696 -0.5948  0.3243 -0.0251
33705SOL    HW1 7078   3.174   4.550  10.606 -0.0967  0.6864 -0.2371
33705SOL    HW2 7079   3.259   4.644  10.688  0.4028 -0.5941  0.7580
33706SOL     OW 7080  11.700   2.682   3.830  0.3202  0.3458 -0.2246
33706SOL    HW1 7081  11.616   2.722   3.806  0.3790 -0.2720 -1.5560
33706SOL    HW2 7082  11.742   2.663   3.746  2.6824  2.4023  0.3675
33707SOL     OW 7083   5.819   5.276   9.984  0.0401 -0.7828  0.4474
33707SOL    HW1 7084   5.894   5.329  10.010 -0.1643  0.3191 -1.1045
33707SOL    HW2 7085   5.856   5.208   9.927 -0.0681 -0.5382  0.0822
33708SOL     OW 7086   5.158   5.864   2.209 -0.0623 -0.0106  0.2026
33708SOL    HW1 7087   5.183   5.838   2.120 -0.6522  0.3057 -0.0539
33708SOL    HW2 7088   5.179   5.957   2.214  0.6384 -0.1769  0.6377
33709SOL     OW 7089   6.407  10.568   8.112  0.0710 -0.3289  0.0415
33709SOL    HW1 7090   6.480  10.528   8.160  2.3292  1.7633 -1.3974
33709SOL    HW2 7091   6.331  10.558   8.170  1.4124 -2.7808  1.5298
33710SOL     OW 7092  10.056   8.563   6.869  0.5241 -0.5444  0.2879
33710SOL    HW1 7093  10.044   8.635   6.807  0.6996 -0.4274  0.3855
33710SOL    HW2 7094  10.088   8.490   6.817  0.5064 -0.4991  0.2139
33711SOL     OW 7095   0.628   5.956   5.157 -0.1266  0.7872  0.1955
33711SOL    HW1 7096   0.716   5.989   5.174  0.0486  0.1157  0.6327
33711SOL    HW2 7097   0.572   6.034   5.162  0.3278  1.0854  0.8419
33712SOL     OW 7098   9.964   9.034   8.262 -0.2693 -0.4623  0.2033
33712SOL    HW1 7099   9.935   9.027   8.171 -2.7233 -1.1704  0.9726
33712SOL    HW2 7100   9.970   8.943   8.292 -0.3295 -0.2128  0.9954
33713SOL     OW 7101   4.787   7.167   1.593 -0.0617  0.1327 -0.3504
33713SOL    HW1 7102   4.710   7.188   1.540 -0.2844 -0.8734 -0.4513
33713SOL    HW2 7103   4.860   7.209   1.548 -0.2787 -0.5306 -1.3410
33714SOL     OW 7104   1.576  11.133  10.009 -0.1244  0.0493 -0.0151
33714SOL    HW1 7105   1.634  11.203  10.038  1.0692 -0.1106 -1.8040
33714SOL    HW2 7106   1.634  11.058   9.997 -1.2908 -1.1144  1.3459
33715SOL     OW 7107   6.966   1.910   9.281 -0.1367  0.1228  0.0906
33715SOL    HW1 7108   7.049   1.957   9.294  0.0256 -0.7035  2.6031
33715SOL    HW2 7109   6.991   1.832   9.232  0.4700  0.2141  0.2417
33716SOL     OW 7110  11.592   9.553   6.839 -0.1878  0.0495 -0.2518
33716SOL    HW1 7111  11.637   9.574   6.921  0.8722  0.3290 -0.9031
33716SOL    HW2 7112  11.542   9.474   6.860 -0.8648  0.7557  0.9913
33717SOL     OW 7113  12.485   4.869  11.565  0.3336  0.0718  0.2516
33717SOL    HW1 7114  12.447   4.937  11.511  3.1137  1.4877 -0.1311
33717SOL    HW2 7115  12.553   4.914  11.615 -0.6598 -1.5964  3.3686
33718SOL     OW 7116   5.491   0.844   8.495 -0.1281 -0.0104  0.5760
33718SOL    HW1 7117   5.438   0.914   8.455 -0.6274 -0.3633  0.6143
33718SOL    HW2 7118   5.428   0.793   8.546  0.3164 -0.2268  0.9051
33719SOL     OW 7119   4.353  11.262   6.549 -0.0827  0.1273  0.3961
33719SOL    HW1 7120   4.400  11.183   6.521  0.4864  0.5114  0.2418
33719SOL    HW2 7121   4.417  11.310   6.602  0.6627  1.9368 -1.9693
33720SOL     OW 7122   1.982   7.153   9.174 -0.3294 -0.2012  0.0143
33720SOL    HW1 7123   1.892   7.162   9.145 -0.6896 -1.1103  0.7735
33720SOL    HW2 7124   1.975   7.140   9.269  0.6306  0.2011  0.1496
33721SOL     OW 7125   2.172   1.850   4.454 -0.2281 -0.1074  0.6409
33721SOL    HW1 7126   2.251   1.796   4.448 -0.3780 -0.2854  0.2090
33721SOL    HW2 7127   2.183   1.917   4.386 -0.2745  0.0962  0.8341
33722SOL     OW 7128   7.583   7.923   1.697 -0.2036 -0.7128 -0.6510
33722SOL    HW1 7129   7.608   8.012   1.721 -2.2914 -0.1899 -0.2563
33722SOL    HW2 7130   7.621   7.867   1.765 -1.5859  0.2179  0.9292
33723SOL     OW 7131   4.971   5.840   7.515  0.6088 -0.2620  0.0533
33723SOL    HW1 7132   5.026   5.828   7.593 -0.7814 -0.8729  0.9753
33723SOL    HW2 7133   4.975   5.757   7.469  0.3754 -0.3373  0.1706
33724SOL     OW 7134   2.979   8.432   6.960  0.4172 -0.7936  0.4872
33724SOL    HW1 7135   2.936   8.505   6.915 -0.9390 -0.3502  2.3418
33724SOL    HW2 7136   2.908   8.387   7.006  1.6160 -1.5413  1.6885
33725SOL     OW 7137   3.244  10.474   9.748 -0.2153 -0.2621  0.4307
33725SOL    HW1 7138   3.243  10.379   9.739 -0.9708 -0.1681 -0.6144
33725SOL    HW2 7139   3.337  10.496   9.758  0.0845 -1.0072 -0.5741
33726SOL     OW 7140   9.607   2.969   4.485 -0.1260  0.2951 -0.4491
33726SOL    HW1 7141   9.624   3.020   4.564  0.5582 -0.1911 -0.2707
33726SOL    HW2 7142   9.515   2.945   4.491 -0.0667  0.2169  0.2252
33727SOL     OW 7143   3.014   2.737   5.367  0.0302 -0.0527 -0.1989
33727SOL    HW1 7144   2.974   2.758   5.452 -2.3958 -0.5424 -1.1613
33727SOL    HW2 7145   2.973   2.655   5.340  0.8941 -0.0038 -1.7807
33728SOL     OW 7146  10.841   9.547   3.496  0.3777 -0.2360 -0.3709
33728SOL    HW1 7147  10.806   9.501   3.420 -2.7176 -0.8866  1.2906
33728SOL    HW2 7148  10.799   9.632   3.495  0.4640 -0.1714  0.4963
33729SOL     OW 7149   2.268   3.769   4.783  0.0611  0.4084  0.2843
33729SOL    HW1 7150   2.226   3.746   4.700 -1.0578 -0.9700  1.1882
33729SOL    HW2 7151   2.267   3.688   4.833 -0.6438  1.5584  2.2268
33730SOL     OW 7152  11.852   0.644  10.866 -0.2481  0.4518  0.5805
33730SOL    HW1 7153  11.816   0.659  10.779 -0.6077 -0.2279  0.6033
33730SOL    HW2 7154  11.784   0.596  10.913  0.8002 -1.2015  0.4943
33731SOL     OW 7155   4.409   6.635  10.926  0.3618 -0.4412 -0.4272
33731SOL    HW1 7156   4.357   6.607  10.850 -1.1617  1.3289 -0.1141
33731SOL    HW2 7157   4.436   6.553  10.967 -0.6827 -1.4412 -1.6288
33732SOL     OW 7158   7.432  10.184   9.535 -0.2085 -0.5257  0.2617
33732SOL    HW1 7159   7.402  10.175   9.625  0.4856  0.1291  0.5774
33732SOL    HW2 7160   7.357  10.222   9.488 -0.4927 -0.6438  0.6164
33733SOL     OW 7161   8.151   2.285   2.890  0.3177 -0.2467  0.0263
33733SOL    HW1 7162   8.143   2.279   2.985  0.5021  2.6990  0.3105
33733SOL    HW2 7163   8.075   2.337   2.862  0.3718 -0.8915 -1.4429
33734SOL     OW 7164   3.435   5.433  11.273 -0.0053 -0.3650 -0.5898
33734SOL    HW1 7165   3.503   5.472  11.326  1.1502 -1.6401 -1.0749
33734SOL    HW2 7166   3.475   5.354  11.236 -0.7718  0.3822 -3.2383
33735SOL     OW 7167   1.218   8.496   7.706  0.0062 -0.1061  0.1279
33735SOL    HW1 7168   1.129   8.467   7.727  0.0745  0.2520  0.9102
33735SOL    HW2 7169   1.221   8.493   7.610 -1.0637  0.5147  0.0580
33736SOL     OW 7170   0.115  11.924   5.322 -0.2647 -0.3260 -0.8212
33736SOL    HW1 7171   0.138  11.916   5.229  0.2148 -0.3233 -0.7060
33736SOL    HW2 7172   0.151  12.009   5.349 -0.6048 -0.2213 -0.6887
33737SOL     OW 7173   4.094  10.678   9.924  0.1119 -0.3341  0.1230
33737SOL    HW1 7174   4.025  10.627   9.967 -0.9676  1.5676  0.7668
33737SOL    HW2 7175   4.170  10.668   9.981 -0.2863 -0.6565  0.6074
33738SOL     OW 7176   4.130   3.426   8.284  0.6973 -0.2053 -0.2809
33738SOL    HW1 7177   4.199   3.470   8.234  1.0947  0.8040  1.1032
33738SOL    HW2 7178   4.165   3.337   8.299  1.5255  0.1629  0.0504
33739SOL     OW 7179   0.674  10.820   8.232  0.0685  0.0777  0.3161
33739SOL    HW1 7180   0.633  10.777   8.157  0.1484 -1.0769  0.9088
33739SOL    HW2 7181   0.601  10.855   8.283 -0.0400  0.0284  0.1942
33740SOL     OW 7182   8.960   8.681   0.015 -0.1514  0.0338 -0.1882
33740SOL    HW1 7183   8.935   8.708   0.103  1.0637  0.2106  0.1326
33740SOL    HW2 7184   8.906   8.734  -0.043  2.1524  3.4072  0.4215
33741SOL     OW 7185   8.819   7.455  11.729  0.3289  0.3090 -0.4394
33741SOL    HW1 7186   8.823   7.452  11.824  1.5584 -0.9311 -0.5025
33741SOL    HW2 7187   8.755   7.389  11.705  1.5188 -0.8396 -0.5289
33742SOL     OW 7188   8.094   5.493   0.432 -0.1221 -0.1759  0.2065
33742SOL    HW1 7189   8.128   5.509   0.344 -0.5117  0.3100  0.1378
33742SOL    HW2 7190   8.134   5.411   0.459  0.3735 -0.0839 -0.2368
33743SOL     OW 7191   7.023   5.327  11.378  0.0221  0.0372  0.0556
33743SOL    HW1 7192   7.049   5.324  11.286 -0.7506 -1.7642 -0.1516
33743SOL    HW2 7193   6.965   5.403  11.384 -0.4295 -0.1896 -1.1029
33744SOL     OW 7194   5.494   6.907   4.083  0.4800 -0.5889  0.1479
33744SOL    HW1 7195   5.586   6.884   4.075  0.7681  0.9116 -1.3038
33744SOL    HW2 7196   5.495   6.998   4.113 -0.5564 -0.8459  1.0406
33745SOL     OW 7197  11.031   5.374  12.170 -0.4062  0.2659  0.5463
33745SOL    HW1 7198  11.087   5.306  12.206  0.4962  0.3924 -0.5765
33745SOL    HW2 7199  11.009   5.343  12.082  1.1135  1.9768 -0.5139
33746SOL     OW 7200   0.001   9.031   8.140  0.1712  0.3463  0.5250
33746SOL    HW1 7201  -0.001   8.986   8.225  1.7404  2.4752  1.8018
33746SOL    HW2 7202  -0.072   9.093   8.145  0.4045  0.6314  0.4196
33747SOL     OW 7203   7.665  11.649   5.425  0.0129 -0.6782  0.2422
33747SOL    HW1 7204   7.633  11.561   5.405  0.9179 -0.9547 -0.0258
33747SOL    HW2 7205   7.696  11.644   5.515 -0.2396 -0.5414  0.3385
33748SOL     OW 7206   0.530   0.813  11.929  0.1345 -0.5513 -0.0556
33748SOL    HW1 7207   0.454   0.758  11.909  0.2837 -0.3988 -1.0989
33748SOL    HW2 7208   0.590   0.799  11.855  0.3104  0.7747 -0.1898
33749SOL     OW 7209   1.167  11.760   1.791 -0.3439  0.4225  0.1405
33749SOL    HW1 7210   1.109  11.689   1.762  0.2206 -0.3757  0.8819
33749SOL    HW2 7211   1.114  11.811   1.852 -1.5515  2.1403 -2.2262
33750SOL     OW 7212   8.666   2.174   1.884 -0.2079  0.0987 -0.9086
33750SOL    HW1 7213   8.721   2.185   1.961 -0.1567 -2.1297 -0.5573
33750SOL    HW2 7214   8.577   2.191   1.916 -0.1464 -0.4311 -0.4266
33751SOL     OW 7215   7.885  12.391   2.634  0.0376 -0.3058  0.8123
33751SOL    HW1 7216   7.834  12.463   2.596  0.6865  0.1096  0.6924
33751SOL    HW2 7217   7.911  12.423   2.721 -0.8512 -0.9712  1.3415
33752SOL     OW 7218  11.468   7.399  10.658 -0.1761 -0.0481  0.3872
33752SOL    HW1 7219  11.547   7.350  10.681 -0.5854 -1.2114 -0.5841
33752SOL    HW2 7220  11.489   7.490  10.678  0.7323 -0.5678  1.9109
33753SOL     OW 7221   8.696   1.761  11.069  0.6287  0.0635 -0.2800
33753SOL    HW1 7222   8.770   1.710  11.101 -0.6841 -1.7843 -0.0781
33753SOL    HW2 7223   8.645   1.782  11.147  2.0622  3.4453 -0.0470
33754SOL     OW 7224   8.969   8.590  10.504 -0.2474 -0.3914  0.2932
33754SOL    HW1 7225   8.878   8.611  10.488 -0.6043 -1.8570  0.2594
33754SOL    HW2 7226   9.018   8.655  10.454 -1.2634  0.2951  0.1605
33755SOL     OW 7227  11.966   6.684  10.660 -0.3221  0.5165  0.0797
33755SOL    HW1 7228  11.949   6.711  10.569  0.0616  2.2289  0.4777
33755SOL    HW2 7229  12.051   6.641  10.657 -0.4652  0.2609 -0.4219
33756SOL     OW 7230   7.930   4.225  10.236 -0.6179 -0.4312  0.1420
33756SOL    HW1 7231   7.935   4.319  10.254 -0.5051 -0.1685 -1.1745
33756SOL    HW2 7232   7.836   4.205  10.243 -0.8191  0.0727 -0.8678
33757SOL     OW 7233   9.070   4.582   6.900  0.2748  0.1999  0.0418
33757SOL    HW1 7234   9.095   4.549   6.814 -1.1948  0.3489 -0.4686
33757SOL    HW2 7235   8.979   4.610   6.890  0.4008  1.1854  1.3742
33758SOL     OW 7236   1.997   2.577   5.483  0.3207 -0.2878  0.3735
33758SOL    HW1 7237   2.081   2.565   5.440 -0.0043 -0.1588 -0.3188
33758SOL    HW2 7238   1.938   2.516   5.438 -1.1271  2.8931 -2.5200
33759SOL     OW 7239   8.224  12.423   9.101 -0.2322 -0.5189  0.2059
33759SOL    HW1 7240   8.141  12.440   9.058  0.3833  0.7634 -0.5190
33759SOL    HW2 7241   8.265  12.509   9.111  1.0664 -1.1302  0.4208
33760SOL     OW 7242   0.173  11.918   4.324  0.0203  0.1516  0.2133
33760SOL    HW1 7243   0.251  11.973   4.328  1.0543 -1.1826 -0.5411
33760SOL    HW2 7244   0.101  11.979   4.313  0.9536  1.4268  0.9856
33761SOL     OW 7245   9.969   9.192   8.825 -0.3859  0.6278  0.0244
33761SOL    HW1 7246   9.925   9.125   8.774 -1.3957  0.6426  0.8635
33761SOL    HW2 7247  10.061   9.187   8.797 -0.0301 -2.3291  1.3364
33762SOL     OW 7248   8.064   1.183  11.701  0.2519 -0.0193  0.0821
33762SOL    HW1 7249   8.095   1.263  11.743  1.5138  0.5159 -1.7428
33762SOL    HW2 7250   7.976   1.170  11.735  0.7052  1.1044  1.8118
33763SOL     OW 7251  10.633   4.798   7.978 -0.1572 -0.5572  0.6610
33763SOL    HW1 7252  10.677   4.750   7.908 -0.8452 -2.2929  1.3622
33763SOL    HW2 7253  10.549   4.753   7.989 -0.5969  0.4614  1.7514
33764SOL     OW 7254   8.078   2.115   3.139 -0.4140  0.3997 -0.2485
33764SOL    HW1 7255   8.160   2.084   3.176 -1.1922 -1.3599  0.1070
33764SOL    HW2 7256   8.017   2.042   3.150 -2.4256  2.0784  0.7391
33765SOL     OW 7257   9.502   0.454  10.128  0.5778 -0.6516  0.0147
33765SOL    HW1 7258   9.428   0.515  10.123  0.9918  0.0799  1.8286
33765SOL    HW2 7259   9.575   0.508  10.158  1.6321 -1.5512 -0.8759
33766SOL     OW 7260   7.140   6.244   0.425  0.3087  0.4664 -0.0576
33766SOL    HW1 7261   7.093   6.313   0.472 -2.7412 -0.6736 -1.1859
33766SOL    HW2 7262   7.198   6.291   0.366 -0.9562  2.0878 -0.1037
33767SOL     OW 7263  12.336   9.980   4.370  0.1771 -0.1623 -0.2069
33767SOL    HW1 7264  12.391   9.909   4.335 -0.3118 -0.8919  0.4909
33767SOL    HW2 7265  12.248   9.958   4.340  0.2963  1.3117 -1.8115
33768SOL     OW 7266   0.564   4.506   3.727  0.1565  0.4448 -0.2610
33768SOL    HW1 7267   0.621   4.477   3.798  0.0631  0.1526 -0.3014
33768SOL    HW2 7268   0.613   4.576   3.683 -0.3324  1.5443  0.8859
33769SOL     OW 7269  12.105   5.229  11.961  0.5344 -0.0403  0.2783
33769SOL    HW1 7270  12.140   5.183  12.037  0.7496 -0.1605  0.1081
33769SOL    HW2 7271  12.079   5.159  11.900 -3.2218 -0.1443  1.7290
33770SOL     OW 7272   0.479   9.226   8.234  0.2383  0.0661  0.3517
33770SOL    HW1 7273   0.454   9.237   8.326  2.0046  1.0977  0.7502
33770SOL    HW2 7274   0.473   9.132   8.219 -2.5458  0.1034  0.7395
33771SOL     OW 7275   5.939   6.601   7.923  0.5886  0.1089  0.1258
33771SOL    HW1 7276   5.994   6.522   7.919  1.7509  0.9417 -0.9721
33771SOL    HW2 7277   5.946   6.631   8.013  0.6230 -0.6987  0.3995
33772SOL     OW 7278   8.403   2.409   5.502  0.6950  0.2223 -0.1014
33772SOL    HW1 7279   8.370   2.452   5.423  1.8231 -2.3084 -2.0848
33772SOL    HW2 7280   8.443   2.328   5.471  0.8423 -1.1112  3.1373
33773SOL     OW 7281   1.839   9.153   2.427  0.6208  0.0436  0.0422
33773SOL    HW1 7282   1.764   9.093   2.425  0.9496 -0.6625  3.1829
33773SOL    HW2 7283   1.820   9.218   2.359 -2.2818 -0.7123 -0.0123
33774SOL     OW 7284   3.357  11.929   9.609 -0.3806  0.2300 -0.2783
33774SOL    HW1 7285   3.345  11.849   9.661 -0.7420 -0.6202 -1.5982
33774SOL    HW2 7286   3.406  11.988   9.666 -0.5008 -0.7635  0.9012
33775SOL     OW 7287   7.372   3.012   1.354  0.0645 -0.1146  0.2072
33775SOL    HW1 7288   7.459   2.997   1.317 -0.4332  0.5218 -1.3017
33775SOL    HW2 7289   7.324   2.931   1.338  0.7901 -1.0476  2.4152
33776SOL     OW 7290   1.437   2.654   0.740  0.1497 -0.0633 -0.4349
33776SOL    HW1 7291   1.529   2.680   0.742 -0.3150  1.8283 -1.3960
33776SOL    HW2 7292   1.415   2.650   0.647 -0.7616 -0.4479 -0.2150
33777SOL     OW 7293  11.220   8.444   0.502 -0.1720 -0.0846 -0.4209
33777SOL    HW1 7294  11.288   8.456   0.569  0.8361 -0.2741 -1.3684
33777SOL    HW2 7295  11.232   8.518   0.442 -2.3000  1.1468  0.5869
33778SOL     OW 7296   4.952   0.172   7.948 -0.4156 -0.1418  0.0255
33778SOL    HW1 7297   4.949   0.170   8.044 -0.8535 -1.7350  0.0193
33778SOL    HW2 7298   4.917   0.258   7.924 -0.0998  0.3592  1.2947
33779SOL     OW 7299   4.554   2.832   8.625  0.5585  0.0815  0.1752
33779SOL    HW1 7300   4.592   2.812   8.540  0.8991 -0.4336  0.4408
33779SOL    HW2 7301   4.482   2.769   8.635  0.6986 -0.0513  0.3818
33780SOL     OW 7302   4.141   6.598   0.955 -0.1006 -0.1784 -0.4699
33780SOL    HW1 7303   4.066   6.656   0.943  1.9099  2.8996  0.6832
33780SOL    HW2 7304   4.144   6.583   1.050  1.8380  1.4542 -0.2248
33781SOL     OW 7305   3.838   4.621  10.419 -0.6876  0.0856  0.3376
33781SOL    HW1 7306   3.775   4.560  10.380 -1.1597  0.6104  0.2625
33781SOL    HW2 7307   3.914   4.616  10.362 -1.3450  0.7857 -0.6264
33782SOL     OW 7308   5.891  10.556   6.393 -0.1403 -0.1993  0.0070
33782SOL    HW1 7309   5.911  10.463   6.388 -0.3339 -0.2101 -0.5762
33782SOL    HW2 7310   5.798  10.560   6.415  0.4264 -0.1491  2.7573
33783SOL     OW 7311  11.605   3.673   3.800 -0.1212 -0.2223  0.1235
33783SOL    HW1 7312  11.528   3.728   3.813 -1.0214 -1.7763  1.7722
33783SOL    HW2 7313  11.571   3.591   3.765  1.0848 -0.1581 -1.3007
33784SOL     OW 7314   0.761  10.446   7.352 -0.4419 -0.4445 -0.2034
33784SOL    HW1 7315   0.783  10.428   7.260  2.9806 -0.4447  0.4588
33784SOL    HW2 7316   0.726  10.535   7.352  1.7294  0.4936 -1.3538
33785SOL     OW 7317  11.788   4.847   4.903  0.2524 -0.5918  0.3388
33785SOL    HW1 7318  11.781   4.930   4.949 -1.1610 -1.0813  1.0723
33785SOL    HW2 7319  11.748   4.783   4.962  0.8725 -1.7165 -0.4126
33786SOL     OW 7320  10.547   9.632   5.872 -0.0195  0.6049  0.1746
33786SOL    HW1 7321  10.454   9.640   5.852 -0.2072 -0.5741  0.5386
33786SOL    HW2 7322  10.590   9.683   5.803 -0.9206  1.0821 -0.0492
33787SOL     OW 7323   5.902   2.527  11.890  0.5889  0.0509 -0.2822
33787SOL    HW1 7324   5.967   2.554  11.824  0.9742  0.2087  0.1522
33787SOL    HW2 7325   5.835   2.481  11.840  0.4818  0.8432 -0.8919
33788SOL     OW 7326   8.588   2.647   2.280  0.1044 -0.7853  0.4158
33788SOL    HW1 7327   8.567   2.676   2.369 -1.4868  0.9698 -0.4461
33788SOL    HW2 7328   8.645   2.716   2.246  1.8972 -2.1761  0.5058
33789SOL     OW 7329   3.045   3.664   9.234 -0.2235 -0.2131 -0.1776
33789SOL    HW1 7330   2.961   3.618   9.242  0.8301 -1.9873  1.4366
33789SOL    HW2 7331   3.027   3.735   9.173 -2.2412 -2.1456 -2.0440
33790SOL     OW 7332   8.688   1.223   6.373  0.3188  0.3027  0.0225
33790SOL    HW1 7333   8.701   1.202   6.281 -1.0623  0.0427 -0.1407
33790SOL    HW2 7334   8.737   1.304   6.387 -1.5882  1.8261 -1.6390
33791SOL     OW 7335   0.566   1.404   2.603  0.3982  0.1893 -0.4412
33791SOL    HW1 7336   0.481   1.438   2.632  0.3477  0.1871 -0.5823
33791SOL    HW2 7337   0.549   1.313   2.580  0.7065 -0.1673  0.6935
33792SOL     OW 7338   0.792   7.208   8.067 -0.0097 -0.0075 -0.2525
33792SOL    HW1 7339   0.744   7.128   8.083  0.8232 -0.6307 -0.7978
33792SOL    HW2 7340   0.806   7.245   8.155 -2.0392  0.5560 -0.1342
33793SOL     OW 7341   3.775  10.638   6.585  0.5766 -0.1646 -0.0497
33793SOL    HW1 7342   3.821  10.632   6.501  0.4389 -0.1444 -0.1263
33793SOL    HW2 7343   3.825  10.703   6.635  0.8497 -0.4105  0.0057
33794SOL     OW 7344  10.840   4.938   8.839  0.0940  0.7376  0.0439
33794SOL    HW1 7345  10.825   4.873   8.908  1.2197  0.3439 -0.0621
33794SOL    HW2 7346  10.805   5.020   8.875 -3.1955 -0.2405 -0.6013
33795SOL     OW 7347   6.828   5.050   4.281 -0.2533  0.2794  0.1884
33795SOL    HW1 7348   6.741   5.022   4.251  0.4607 -0.0084 -1.7400
33795SOL    HW2 7349   6.868   5.090   4.204  1.2478  0.6446  1.1203
33796SOL     OW 7350   2.141  11.959   9.614 -0.2723  0.3407  0.1773
33796SOL    HW1 7351   2.113  11.906   9.689 -1.9491 -0.4005 -0.9115
33796SOL    HW2 7352   2.203  11.904   9.567 -0.6709  0.0316  0.0050
33797SOL     OW 7353   9.633   0.041   8.891 -0.2460 -0.4455 -0.2789
33797SOL    HW1 7354   9.634   0.051   8.986 -1.9551 -0.6829 -0.2129
33797SOL    HW2 7355   9.561   0.096   8.861 -0.2797 -1.0336 -1.3489
33798SOL     OW 7356   2.791   9.759   1.713 -0.3847  0.6512  0.4176
33798SOL    HW1 7357   2.825   9.672   1.737  1.5912  1.7016  1.6443
33798SOL    HW2 7358   2.793   9.759   1.618  1.0419 -0.1461  0.4101
33799SOL     OW 7359   4.935   6.283   5.347 -0.3917  0.1503  0.3956
33799SOL    HW1 7360   4.889   6.304   5.428 -1.3854  2.4041 -0.6716
33799SOL    HW2 7361   4.949   6.368   5.304  0.3332 -0.9359 -1.6702
33800SOL     OW 7362   3.950   4.492   3.375 -0.1447 -0.8204 -0.3693
33800SOL    HW1 7363   3.864   4.499   3.416  0.8844 -0.9871  1.9670
33800SOL    HW2 7364   3.937   4.428   3.305 -1.9092 -0.8462 -0.0773
33801SOL     OW 7365  10.895   0.227   2.747  0.2099 -0.0620 -0.1134
33801SOL    HW1 7366  10.948   0.192   2.676  0.3627 -0.1175  0.0265
33801SOL    HW2 7367  10.936   0.311   2.768  0.6007 -0.3751  0.3900
33802SOL     OW 7368   1.137   0.556   4.082 -0.6471 -0.0746  0.1153
33802SOL    HW1 7369   1.213   0.609   4.107  0.1424 -0.0304 -2.1339
33802SOL    HW2 7370   1.155   0.469   4.118  0.1688  0.1007  0.1525
33803SOL     OW 7371   5.246   7.778  10.243 -0.0577 -0.8068  0.6166
33803SOL    HW1 7372   5.257   7.732  10.326  2.2205  0.6727  1.2241
33803SOL    HW2 7373   5.250   7.871  10.266 -0.5245 -0.3353 -1.0433
33804SOL     OW 7374   7.521   4.907   7.310 -0.3346  0.0158  0.0889
33804SOL    HW1 7375   7.454   4.870   7.253  0.1858  0.3242 -0.7431
33804SOL    HW2 7376   7.519   5.001   7.292  0.2618  0.0367  0.1099
33805SOL     OW 7377   8.607   2.284   5.355 -0.1670 -0.3906  0.1075
33805SOL    HW1 7378   8.641   2.213   5.409  0.0469  0.0326  0.5362
33805SOL    HW2 7379   8.638   2.364   5.398  2.5204 -0.0370 -2.2195
33806SOL     OW 7380   5.001  12.230   9.828 -0.1350 -0.2857  0.0185
33806SOL    HW1 7381   5.062  12.223   9.755  0.0815  1.6790 -0.0422
33806SOL    HW2 7382   4.963  12.143   9.836  0.8185 -0.8891 -1.5724
33807SOL     OW 7383   2.069  12.238  11.860  0.0909 -0.7170 -0.4121
33807SOL    HW1 7384   2.020  12.222  11.779  1.5578 -0.3167 -1.4251
33807SOL    HW2 7385   2.028  12.181  11.925  0.6652 -3.2798 -2.1408
33808SOL     OW 7386   9.729   5.824   6.783 -0.4928 -0.0260  0.0868
33808SOL    HW1 7387   9.640   5.790   6.795  0.0684 -1.2679  0.8236
33808SOL    HW2 7388   9.718   5.895   6.719 -1.7736 -1.2287 -1.1000
33809SOL     OW 7389   3.981  11.299   1.894 -0.1208 -0.6244 -0.3391
33809SOL    HW1 7390   4.037  11.313   1.818  0.5875 -1.8750 -0.0797
33809SOL    HW2 7391   3.961  11.205   1.893 -2.4299 -0.1763 -0.5432
33810SOL     OW 7392   9.812   2.868   1.636 -0.5232 -0.0919 -0.2209
33810SOL    HW1 7393   9.744   2.802   1.647  1.4851 -1.9595  1.9239
33810SOL    HW2 7394   9.873   2.829   1.573 -0.9771  1.2654 -1.5827
33811SOL     OW 7395   0.704   9.572   3.267  0.2866 -0.3015  0.1438
33811SOL    HW1 7396   0.770   9.507   3.289  0.5169 -0.3445 -0.6477
33811SOL    HW2 7397   0.661   9.537   3.189 -2.0786 -1.2997  1.7626
33812SOL     OW 7398   7.208   9.068   4.073 -0.1975 -0.3964  0.2218
33812SOL    HW1 7399   7.256   9.023   4.142 -0.3915  2.3504  2.3145
33812SOL    HW2 7400   7.275   9.106   4.017  0.1454  1.0322  1.5141
33813SOL     OW 7401   8.469   2.017   0.682 -0.2639  0.1847  1.0294
33813SOL    HW1 7402   8.529   2.088   0.704 -0.0734  0.2170  0.4263
33813SOL    HW2 7403   8.400   2.059   0.631  0.7138 -0.2908 -0.8050
33814SOL     OW 7404   0.878   6.655   5.166  0.0276 -0.0531  0.9769
33814SOL    HW1 7405   0.895   6.595   5.239  0.7102 -0.1365  0.7514
33814SOL    HW2 7406   0.878   6.599   5.088  0.6066  0.2222  0.7733
33815SOL     OW 7407   6.722  11.624   4.534 -0.4780 -0.0401  1.0430
33815SOL    HW1 7408   6.632  11.634   4.502 -0.4501 -1.5998  0.3995
33815SOL    HW2 7409   6.768  11.580   4.462  1.1718  1.9346  0.7936
33816SOL     OW 7410   1.985   9.565   2.614 -0.1749 -0.1243  0.3211
33816SOL    HW1 7411   2.061   9.521   2.652  0.2195 -0.2869 -0.6264
33816SOL    HW2 7412   2.007   9.576   2.521 -1.4471 -0.5165 -0.0582
33817SOL     OW 7413   2.415   9.102  11.706 -0.2486 -0.1892  0.1076
33817SOL    HW1 7414   2.437   9.180  11.756  1.1931 -1.2258  1.1782
33817SOL    HW2 7415   2.320   9.105  11.696 -0.1022  2.4665 -1.2649
33818SOL     OW 7416  10.420   0.157   9.034 -0.2167 -0.1437  0.0431
33818SOL    HW1 7417  10.415   0.062   9.037  2.0511 -0.3546 -0.7012
33818SOL    HW2 7418  10.368   0.187   9.109 -0.5914 -1.9639  0.5464
33819SOL     OW 7419   2.297   9.985   0.952 -0.1584 -0.1695  0.2390
33819SOL    HW1 7420   2.366  10.007   1.014 -0.5526 -1.4629  1.1872
33819SOL    HW2 7421   2.219  10.030   0.984 -0.3643 -0.8454  0.7215
33820SOL     OW 7422   5.834  11.315   7.487 -0.2376  0.0803  0.1050
33820SOL    HW1 7423   5.768  11.356   7.543 -2.1675 -1.3304 -1.0158
33820SOL    HW2 7424   5.823  11.221   7.501  2.3459 -0.2181  0.7051
33821SOL     OW 7425   4.952   5.101   9.550 -0.4093 -0.6161 -0.1642
33821SOL    HW1 7426   4.860   5.129   9.556 -0.2423  0.8290 -2.8494
33821SOL    HW2 7427   4.959   5.062   9.463  1.0485 -2.8369  0.8759
33822SOL     OW 7428   0.028   1.812  10.163 -0.3248 -0.0498 -0.2961
33822SOL    HW1 7429   0.056   1.846  10.248  1.8856  1.6225 -1.5726
33822SOL    HW2 7430   0.077   1.731  10.153  0.7592  0.6251 -0.6506
33823SOL     OW 7431   1.822   3.411  10.435 -0.2750 -0.0271 -0.3106
33823SOL    HW1 7432   1.881   3.478  10.470  0.1509 -1.9848  3.1976
33823SOL    HW2 7433   1.876   3.333  10.429 -1.9079 -1.2984  0.7452
33824SOL     OW 7434   7.551   1.519  11.924 -0.1731 -0.3524  0.4513
33824SOL    HW1 7435   7.627   1.493  11.976 -0.5098  0.8093  1.6113
33824SOL    HW2 7436   7.480   1.465  11.957 -1.2337  2.7279  3.9723
33825SOL     OW 7437   1.358   4.704   2.155 -0.5285 -0.0779  0.2569
33825SOL    HW1 7438   1.313   4.780   2.192 -2.0110  0.9233 -3.1922
33825SOL    HW2 7439   1.436   4.740   2.114 -0.5777 -0.6092 -0.3157
33826SOL     OW 7440   0.779   6.857  10.115 -0.4896  0.5324  0.0193
33826SOL    HW1 7441   0.732   6.875  10.196 -0.7972  0.6221 -0.1806
33826SOL    HW2 7442   0.817   6.941  10.090 -0.5093  0.5335 -0.0057
33827SOL     OW 7443   3.002   7.712   2.737  0.7824  0.3141  0.1856
33827SOL    HW1 7444   2.947   7.688   2.812 -0.7457  1.4284 -0.5197
33827SOL    HW2 7445   3.059   7.782   2.770 -1.9989  3.0624 -0.3294
33828SOL     OW 7446   3.037  11.574   7.161  0.5278  0.8100  0.6691
33828SOL    HW1 7447   2.952  11.576   7.204  0.5378  0.0420  0.7404
33828SOL    HW2 7448   3.045  11.659   7.118 -1.5866 -0.1111 -1.8499
33829SOL     OW 7449   3.950   7.345   0.839  0.4351  0.3430 -0.4633
33829SOL    HW1 7450   3.887   7.285   0.879  2.2004 -0.9629  0.5081
33829SOL    HW2 7451   3.968   7.411   0.906  0.2821  0.5732 -0.6466
33830SOL     OW 7452   5.518  10.014  10.703 -0.0864  0.4571  0.1940
33830SOL    HW1 7453   5.604   9.977  10.684 -0.9960 -0.7443 -1.9947
33830SOL    HW2 7454   5.461   9.978  10.635 -1.3321  4.9918 -1.5309
33831SOL     OW 7455   8.137   7.594   6.343  0.2258 -0.0074 -0.2972
33831SOL    HW1 7456   8.092   7.552   6.416 -2.0002 -1.2890 -2.2694
33831SOL    HW2 7457   8.227   7.559   6.347 -0.5501 -2.1102  0.3317
33832SOL     OW 7458   0.980   9.856  10.051 -0.4894  0.1371  0.3627
33832SOL    HW1 7459   0.901   9.822  10.094  0.4234 -2.1933  0.3656
33832SOL    HW2 7460   1.038   9.880  10.123 -0.2487 -0.5493  0.4016
33833SOL     OW 7461   8.275   2.162   5.804 -0.5458 -0.2341  0.2214
33833SOL    HW1 7462   8.221   2.100   5.853 -1.6306  0.6330  0.1565
33833SOL    HW2 7463   8.326   2.208   5.870  1.0429 -1.8452  0.2109
33834SOL     OW 7464   5.002   9.556   5.757 -0.1071  0.8405  0.0502
33834SOL    HW1 7465   4.991   9.490   5.688  0.3528 -0.4688  1.1945
33834SOL    HW2 7466   5.084   9.600   5.733 -0.1423  0.6469 -0.4499
33835SOL     OW 7467   5.809   4.680   4.589 -0.1846 -0.4502 -0.1225
33835SOL    HW1 7468   5.840   4.595   4.557 -1.5013 -0.7193 -0.7331
33835SOL    HW2 7469   5.732   4.660   4.641 -0.8397  0.4049 -0.7328
33836SOL     OW 7470   2.829   0.978   8.536 -0.2811 -0.0427 -0.3175
33836SOL    HW1 7471   2.794   1.012   8.454  1.2728  2.0254 -0.2000
33836SOL    HW2 7472   2.907   1.031   8.553 -0.5757 -0.3568  2.5196
33837SOL     OW 7473   1.940   5.295   7.765  0.8035 -0.0870  0.0649
33837SOL    HW1 7474   1.947   5.247   7.847  0.5855  0.2695  0.2955
33837SOL    HW2 7475   1.924   5.228   7.699 -1.8107 -0.1980  0.6782
33838SOL     OW 7476   0.962   2.433   1.172  0.7371  0.4281 -0.8577
33838SOL    HW1 7477   0.876   2.468   1.199  1.3209  1.5511 -0.3845
33838SOL    HW2 7478   0.957   2.340   1.191 -0.5515  0.3895 -1.2729
33839SOL     OW 7479   8.477  12.354  10.780 -0.1988 -0.3348 -0.4317
33839SOL    HW1 7480   8.499  12.300  10.704  0.2959  0.2821 -0.7384
33839SOL    HW2 7481   8.448  12.292  10.847 -1.4817 -0.8104 -1.4141
33840SOL     OW 7482   8.980   8.610   5.289 -0.2042  0.1979 -0.4843
33840SOL    HW1 7483   9.003   8.540   5.229  1.2702  1.2575 -1.2018
33840SOL    HW2 7484   9.049   8.675   5.278 -0.8787  1.2264  1.0496
33841SOL     OW 7485   3.945   1.672   9.793 -0.1716 -0.7166  0.0770
33841SOL    HW1 7486   3.876   1.707   9.850  0.7733  0.0576  0.7660
33841SOL    HW2 7487   4.026   1.709   9.827  0.6346 -1.8473 -0.5368
33842SOL     OW 7488  11.630   2.089   3.593  0.1891 -0.0387 -0.4920
33842SOL    HW1 7489  11.587   2.132   3.667  0.6778  0.5560 -0.5408
33842SOL    HW2 7490  11.577   2.113   3.517  0.2096  0.1268 -0.4559
33843SOL     OW 7491  10.669   3.869   5.125  0.8470  0.5330 -0.1362
33843SOL    HW1 7492  10.738   3.861   5.191  0.1472 -0.1932  0.5306
33843SOL    HW2 7493  10.671   3.785   5.078  0.0518  0.2661  0.2785
33844SOL     OW 7494   8.614   4.788   9.407 -0.0894 -0.0562 -0.3777
33844SOL    HW1 7495   8.600   4.880   9.430 -0.2708 -0.0834 -0.3744
33844SOL    HW2 7496   8.705   4.771   9.431 -0.1498  0.0327 -0.0703
33845SOL     OW 7497   0.921   9.301   9.363 -0.5379  0.0628  0.4890
33845SOL    HW1 7498   0.970   9.221   9.383 -0.2886  0.2030  0.4377
33845SOL    HW2 7499   0.944   9.322   9.273  0.5256  0.9891  0.9523
33846SOL     OW 7500  12.088  11.923   7.683  0.0722 -0.0308 -0.9994
33846SOL    HW1 7501  12.105  11.906   7.776 -0.5490 -0.5992 -0.9825
33846SOL    HW2 7502  12.175  11.936   7.645  0.2801  1.5153 -0.1069
33847SOL     OW 7503   2.266   0.446   6.051  0.4991  0.1275 -0.2480
33847SOL    HW1 7504   2.308   0.483   5.973  1.2474  1.2155  0.6402
33847SOL    HW2 7505   2.287   0.508   6.121 -1.3116 -0.1027  0.5498
33848SOL     OW 7506   4.858   9.820   1.769  0.2761 -0.1321  0.4437
33848SOL    HW1 7507   4.947   9.801   1.798 -0.2221  0.0058  2.1544
33848SOL    HW2 7508   4.815   9.735   1.766  0.4373 -0.1894 -0.2965
33849SOL     OW 7509  11.121   9.407  11.487 -0.2951  0.5100 -0.2842
33849SOL    HW1 7510  11.196   9.368  11.443 -0.5684 -0.2045 -0.1303
33849SOL    HW2 7511  11.093   9.341  11.550 -1.3922  0.5265 -0.7291
33850SOL     OW 7512   2.859   3.084   8.813  0.3334 -0.1675 -0.1309
33850SOL    HW1 7513   2.923   3.106   8.746 -0.3986 -0.4904 -0.9480
33850SOL    HW2 7514   2.912   3.066   8.891  1.1729  0.4698 -0.5399
33851SOL     OW 7515   6.937   4.866   8.443  0.1381  0.5193  0.8811
33851SOL    HW1 7516   6.926   4.929   8.515  0.4690 -0.2042  1.5751
33851SOL    HW2 7517   7.027   4.836   8.451 -0.6255 -1.6460  1.8968
33852SOL     OW 7518   8.530   4.282   5.838  0.0568 -0.1723  0.6843
33852SOL    HW1 7519   8.479   4.362   5.831 -0.6317 -0.7071 -0.6463
33852SOL    HW2 7520   8.621   4.312   5.832 -0.2208  0.3673 -1.8462
33853SOL     OW 7521  10.331   6.885   2.416  0.6797 -0.2844  0.7679
33853SOL    HW1 7522  10.333   6.975   2.382 -2.0467  0.4556  2.2989
33853SOL    HW2 7523  10.312   6.831   2.339 -2.7803  1.0739  0.4958
33854SOL     OW 7524   6.621   5.454   5.172 -0.1563  0.3119 -0.2820
33854SOL    HW1 7525   6.709   5.435   5.206 -0.5637  0.2010  0.7438
33854SOL    HW2 7526   6.566   5.463   5.250 -1.3892 -1.2204 -0.9010
33855SOL     OW 7527   9.784   1.896   0.159 -0.3549 -0.0435  0.3488
33855SOL    HW1 7528   9.705   1.885   0.213 -0.1087  1.8511  1.1879
33855SOL    HW2 7529   9.853   1.851   0.209 -0.0135  2.1409  2.0203
33856SOL     OW 7530   8.545   4.782  11.345  0.7786  0.8615 -0.4335
33856SOL    HW1 7531   8.485   4.719  11.305 -0.4028  1.5026  0.2726
33856SOL    HW2 7532   8.557   4.849  11.279 -0.2581  1.3392 -0.1486
33857SOL     OW 7533   4.398   1.479  11.182 -0.1377  0.6058  0.0711
33857SOL    HW1 7534   4.349   1.505  11.260 -0.3474 -0.2521  0.2368
33857SOL    HW2 7535   4.360   1.395  11.156  2.2961 -0.9678  1.1986
33858SOL     OW 7536   0.593   7.678   6.459  0.4379  0.1212 -0.5411
33858SOL    HW1 7537   0.568   7.770   6.450  0.6278  0.3482  0.9909
33858SOL    HW2 7538   0.513   7.633   6.486  0.7597  0.1916  0.5973
33859SOL     OW 7539  11.554   6.136   4.292  0.0253 -0.4591  0.4842
33859SOL    HW1 7540  11.615   6.078   4.248  1.2824  1.4596 -0.4407
33859SOL    HW2 7541  11.595   6.156   4.376 -0.6430 -1.2658  1.0168
33860SOL     OW 7542   1.765   9.487   9.173  0.6673  0.4240  0.0337
33860SOL    HW1 7543   1.859   9.493   9.155  0.9215 -2.6239 -0.1863
33860SOL    HW2 7544   1.760   9.457   9.264  0.1374 -2.8256 -0.9504
33861SOL     OW 7545  11.392  10.448   6.125  0.0377  0.3212  0.2586
33861SOL    HW1 7546  11.390  10.363   6.169 -0.2649  1.2149  2.1196
33861SOL    HW2 7547  11.480  10.454   6.089 -0.3922 -1.3512 -1.2042
33862SOL     OW 7548   5.986   8.834   3.692 -0.1099  0.4880  0.1695
33862SOL    HW1 7549   6.044   8.893   3.741  0.9957 -2.0071  2.0690
33862SOL    HW2 7550   5.899   8.851   3.726 -0.2837  2.7669 -1.1841
33863SOL     OW 7551  11.510   0.789   5.872  0.1978  0.2112 -0.3614
33863SOL    HW1 7552  11.435   0.822   5.922  0.1100 -1.3706  0.6358
33863SOL    HW2 7553  11.572   0.759   5.939  0.4130 -1.2622 -1.1665
33864SOL     OW 7554   9.962   6.341   1.528 -0.9321  0.4320  0.4510
33864SOL    HW1 7555   9.889   6.341   1.467  0.6790  1.1492 -1.6028
33864SOL    HW2 7556   9.938   6.406   1.594 -2.6498 -0.2269  0.5259
33865SOL     OW 7557   2.449  10.636  10.977  0.1340 -1.0184  0.0590
33865SOL    HW1 7558   2.529  10.652  10.927  0.5659 -1.4625  0.5834
33865SOL    HW2 7559   2.400  10.572  10.925 -0.1323 -0.3530 -0.5169
33866SOL     OW 7560   9.299   8.749   8.086  0.1832  0.0311 -0.3472
33866SOL    HW1 7561   9.255   8.785   8.009  0.9884 -0.5407 -1.0885
33866SOL    HW2 7562   9.392   8.765   8.070  0.3024  0.7252  0.9401
33867SOL     OW 7563   0.372  10.527   8.948  0.0392  0.6140 -0.1939
33867SOL    HW1 7564   0.287  10.551   8.911 -0.7995 -1.9531 -0.0956
33867SOL    HW2 7565   0.351  10.492   9.035  1.3480  1.0012  0.3058
33868SOL     OW 7566  12.138   8.542   6.699 -0.6433  0.1785 -0.2424
33868SOL    HW1 7567  12.058   8.497   6.672 -0.3283  0.6255 -2.1182
33868SOL    HW2 7568  12.164   8.593   6.621  0.3588  1.6377  0.9801
33869SOL     OW 7569  10.808   1.639   0.563  0.3257 -0.3844 -0.1294
33869SOL    HW1 7570  10.768   1.573   0.507 -0.2514  0.0693 -0.2626
33869SOL    HW2 7571  10.902   1.629   0.548  0.3462 -2.0801  0.8877
33870SOL     OW 7572  10.091   6.297   7.539 -0.1727 -0.0717 -0.4597
33870SOL    HW1 7573  10.006   6.277   7.501 -0.3837 -0.3372  0.1325
33870SOL    HW2 7574  10.088   6.391   7.556 -0.8344 -0.2757  0.6861
33871SOL     OW 7575   5.300   1.481   8.339 -0.4584 -0.4802  0.3428
33871SOL    HW1 7576   5.395   1.470   8.326 -0.5315  0.2625 -0.9208
33871SOL    HW2 7577   5.277   1.411   8.401  0.6327 -1.7276 -0.5935
33872SOL     OW 7578   0.145   1.555   8.468  0.2679  0.0877  0.6117
33872SOL    HW1 7579   0.132   1.468   8.430 -0.5969 -0.3175  1.7437
33872SOL    HW2 7580   0.171   1.538   8.559  1.0135  1.0149  0.5871
33873SOL     OW 7581   7.689   5.628   9.871  0.1243 -0.2128  0.3059
33873SOL    HW1 7582   7.719   5.546   9.832 -0.4182  0.1720 -0.9491
33873SOL    HW2 7583   7.762   5.657   9.926  1.0873 -0.5425 -0.7805
33874SOL     OW 7584   6.890   6.517   4.576  0.2771 -0.0982 -0.0019
33874SOL    HW1 7585   6.824   6.452   4.550 -1.2158  0.9223  1.0187
33874SOL    HW2 7586   6.889   6.515   4.672  1.6417  0.0511  0.0268
33875SOL     OW 7587   0.987   8.262  11.723  0.0081  0.2140 -0.5784
33875SOL    HW1 7588   0.968   8.355  11.713 -0.4060  0.1185 -0.6531
33875SOL    HW2 7589   0.971   8.224  11.637 -0.4087 -0.0300 -0.3963
33876SOL     OW 7590   2.939   8.750   7.234 -0.4408  0.3233 -0.3462
33876SOL    HW1 7591   3.027   8.713   7.226 -0.3873 -0.0548  1.6860
33876SOL    HW2 7592   2.954   8.842   7.258 -0.5515 -0.1398  1.6554
33877SOL     OW 7593   0.410   5.558   1.664  0.0545  0.2212 -0.2426
33877SOL    HW1 7594   0.436   5.518   1.581  0.9534 -1.1450  0.6547
33877SOL    HW2 7595   0.472   5.631   1.675  1.3710 -0.9139  0.2201
33878SOL     OW 7596   9.885   5.433   7.744  0.0749  0.0060 -0.4536
33878SOL    HW1 7597   9.815   5.433   7.809 -0.3118  0.1483 -0.8624
33878SOL    HW2 7598   9.960   5.392   7.789 -0.6163 -1.2350 -0.3859
33879SOL     OW 7599   9.536  11.395  12.337  0.3051  0.3684  0.1654
33879SOL    HW1 7600   9.632  11.392  12.336  0.2896 -0.5199 -0.3202
33879SOL    HW2 7601   9.510  11.315  12.291 -0.6697 -1.0973  2.9735
33880SOL     OW 7602   1.657   2.459   3.605  0.1716 -0.3158  0.6332
33880SOL    HW1 7603   1.574   2.422   3.574  1.0989  0.9003 -4.1050
33880SOL    HW2 7604   1.634   2.545   3.639 -0.5573  0.4306 -1.5600
33881SOL     OW 7605  10.709   5.584   2.328  0.3103 -0.7034 -0.2432
33881SOL    HW1 7606  10.762   5.659   2.301 -0.2612  0.1174  0.8068
33881SOL    HW2 7607  10.704   5.528   2.251  4.6694 -2.0579  0.2149
33882SOL     OW 7608   3.491   6.927   2.540 -0.2775  0.0714 -0.6430
33882SOL    HW1 7609   3.486   6.832   2.538 -0.8786  0.0956 -0.5319
33882SOL    HW2 7610   3.477   6.954   2.449 -1.8977  0.1186 -0.4035
33883SOL     OW 7611   3.184   9.564  12.162 -0.5038 -0.0640 -0.5571
33883SOL    HW1 7612   3.262   9.582  12.108 -0.7678 -0.2605 -1.0098
33883SOL    HW2 7613   3.219   9.545  12.249  0.0098 -0.8880 -0.9368
33884SOL     OW 7614  11.401   3.375   6.589  0.2381  0.3016  0.4901
33884SOL    HW1 7615  11.313   3.349   6.614 -0.3625 -0.0172 -1.7483
33884SOL    HW2 7616  11.403   3.470   6.603 -0.7413  0.4332 -0.2165
33885SOL     OW 7617   6.663   1.138   7.771 -0.1422  0.3545  0.3483
33885SOL    HW1 7618   6.569   1.137   7.789  0.0756  0.8961  1.6564
33885SOL    HW2 7619   6.699   1.200   7.835  0.9244  1.2774 -1.0762
33886SOL     OW 7620   4.298  10.374  11.115  0.3883 -0.2135 -0.2391
33886SOL    HW1 7621   4.329  10.287  11.088  1.3288 -0.2739  0.9543
33886SOL    HW2 7622   4.376  10.417  11.150 -0.2622  0.7921  0.0178
33887SOL     OW 7623   6.256   6.712   1.489  0.0004 -0.9390  0.5673
33887SOL    HW1 7624   6.319   6.683   1.423  0.3829  0.2800  0.3652
33887SOL    HW2 7625   6.178   6.736   1.439 -0.0478 -0.9053  0.6579
33888SOL     OW 7626   7.410   3.457  12.107 -0.1815  0.1758 -0.2923
33888SOL    HW1 7627   7.406   3.520  12.035 -0.6007 -0.4457 -0.8195
33888SOL    HW2 7628   7.333   3.402  12.096  0.0559 -0.2936  0.2994
33889SOL     OW 7629  11.038   5.125   4.554  0.0645 -0.2803  0.1881
33889SOL    HW1 7630  11.034   5.221   4.551  3.1672 -0.0609 -2.2996
33889SOL    HW2 7631  11.073   5.104   4.640 -2.4884  0.5989  1.5328
33890SOL     OW 7632   9.000   9.031   5.643 -0.4471  0.2910 -0.0452
33890SOL    HW1 7633   8.957   8.952   5.677 -0.6958  0.9788  1.3012
33890SOL    HW2 7634   9.019   9.010   5.552 -2.3766 -0.5559 -0.3020
33891SOL     OW 7635   0.187   0.518   8.266  0.0756  0.0069  0.2512
33891SOL    HW1 7636   0.271   0.493   8.306 -0.1131  0.7280  1.1120
33891SOL    HW2 7637   0.137   0.557   8.337 -0.3424  1.1619 -0.6547
33892SOL     OW 7638  11.302   7.701   1.760  0.5736  0.0698 -1.0123
33892SOL    HW1 7639  11.391   7.666   1.760  0.5923  0.1136 -0.5694
33892SOL    HW2 7640  11.284   7.721   1.852 -0.1615 -0.6170 -0.9959
33893SOL     OW 7641   0.514   0.466   1.063 -0.4809 -0.6386  0.1886
33893SOL    HW1 7642   0.480   0.476   1.152 -1.5470  0.9241 -0.3535
33893SOL    HW2 7643   0.444   0.422   1.015  1.3633 -4.7082  0.7937
33894SOL     OW 7644   9.073   0.581  11.331  0.0657 -0.3098 -0.3186
33894SOL    HW1 7645   9.152   0.634  11.345 -1.2830  1.9133 -0.7281
33894SOL    HW2 7646   9.062   0.580  11.236  0.4494 -2.0316 -0.3924
33895SOL     OW 7647  11.630   2.209  12.047 -0.0590  0.2364 -1.0527
33895SOL    HW1 7648  11.643   2.200  12.141  0.0089  2.3583 -0.8083
33895SOL    HW2 7649  11.688   2.281  12.022  0.4767 -0.7591 -2.8801
33896SOL     OW 7650  11.816   0.082   8.785  0.4175  0.4116  0.0091
33896SOL    HW1 7651  11.798   0.011   8.846 -3.1740  0.1486 -1.1651
33896SOL    HW2 7652  11.813   0.161   8.839 -0.5726  0.0203  0.5464
33897SOL     OW 7653   5.023   7.232  10.235 -0.9538  0.1190  0.7251
33897SOL    HW1 7654   5.040   7.323  10.261  1.3662 -0.0661  0.0255
33897SOL    HW2 7655   5.029   7.183  10.316 -0.7600  0.4067  0.8881
33898SOL     OW 7656   6.598   3.029  11.206 -0.2486  0.4291  0.2143
33898SOL    HW1 7657   6.578   3.043  11.299 -0.4495 -1.6194  0.5268
33898SOL    HW2 7658   6.513   3.013  11.165  0.0370 -1.4728  0.2538
33899SOL     OW 7659   2.320   2.758   9.870  0.2266 -0.4117  0.3829
33899SOL    HW1 7660   2.341   2.691   9.804  1.7854  1.7349 -1.4599
33899SOL    HW2 7661   2.386   2.746   9.938  0.7951 -0.4647 -0.1694
33900SOL     OW 7662   0.132  10.199   9.577  0.5090 -0.2055  0.8846
33900SOL    HW1 7663   0.091  10.283   9.597  0.4670 -0.1334  0.5069
33900SOL    HW2 7664   0.173  10.172   9.659  0.8565  0.3717  0.9108
33901SOL     OW 7665   5.314   1.387   5.303 -0.2792  0.3443 -0.1887
33901SOL    HW1 7666   5.362   1.316   5.260 -0.1454 -0.0885  0.6564
33901SOL    HW2 7667   5.225   1.353   5.315  0.1138 -0.2053  1.3907
33902SOL     OW 7668  12.354   2.818   8.072 -0.5134 -0.4172 -0.5073
33902SOL    HW1 7669  12.317   2.745   8.121 -0.7561 -0.8203 -1.2816
33902SOL    HW2 7670  12.437   2.784   8.038 -0.5628 -0.2843 -0.7588
33903SOL     OW 7671   3.001  11.642   9.319 -0.7994 -0.1580 -0.3118
33903SOL    HW1 7672   2.981  11.696   9.395  2.5279  0.1103  0.5399
33903SOL    HW2 7673   2.949  11.680   9.248 -1.7784  1.4390  1.1682
33904SOL     OW 7674   9.907  12.301   4.407 -0.3742  0.4889  0.4397
33904SOL    HW1 7675   9.812  12.295   4.396 -0.7179 -0.0074  2.9702
33904SOL    HW2 7676   9.922  12.391   4.437 -0.1041  0.4464  0.4332
33905SOL     OW 7677   8.858   1.837   7.143  0.0568 -0.5116  0.2783
33905SOL    HW1 7678   8.780   1.892   7.140  1.2491  1.2818  0.8526
33905SOL    HW2 7679   8.867   1.804   7.053 -0.6949  0.2331 -0.0866
33906SOL     OW 7680  12.052   2.117   3.146 -0.0156  0.2492 -0.0940
33906SOL    HW1 7681  11.962   2.087   3.156  1.0115 -4.4503 -2.0231
33906SOL    HW2 7682  12.067   2.115   3.051  1.7979  2.2469  0.0813
33907SOL     OW 7683  10.761  10.299   8.003 -0.1745  0.2550  0.0194
33907SOL    HW1 7684  10.848  10.264   7.984 -0.7208 -0.5997 -1.0623
33907SOL    HW2 7685  10.708  10.221   8.021 -0.8143  0.7326  0.2062
33908SOL     OW 7686   7.996   2.501  12.203 -0.3009 -0.2422 -0.2834
33908SOL    HW1 7687   8.048   2.527  12.280 -1.7321  1.5002  0.1563
33908SOL    HW2 7688   7.906   2.502  12.234 -0.7833 -1.0247 -1.6160
33909SOL     OW 7689  10.571   1.631   2.062  0.7810 -0.2817  0.4469
33909SOL    HW1 7690  10.544   1.605   1.974  1.1007  0.0959  0.2362
33909SOL    HW2 7691  10.494   1.614   2.117  0.1961  0.5361 -0.1000
33910SOL     OW 7692   3.974   2.246   4.471 -0.4855 -0.0561 -0.3127
33910SOL    HW1 7693   3.929   2.204   4.397 -0.2634 -0.1448 -0.3982
33910SOL    HW2 7694   3.948   2.338   4.465  2.5777  0.8345 -2.9070
33911SOL     OW 7695   0.234   0.288   5.951  0.4913 -0.2459 -0.3170
33911SOL    HW1 7696   0.284   0.206   5.956 -0.8366 -1.0167  1.3402
33911SOL    HW2 7697   0.182   0.279   5.871 -0.3357 -1.4849  0.3160
33912SOL     OW 7698   2.754   3.903   0.506 -0.1430 -0.4371  0.0471
33912SOL    HW1 7699   2.691   3.946   0.448  0.1014 -1.0024 -0.6584
33912SOL    HW2 7700   2.839   3.928   0.472  0.0659  0.9759  1.4772
33913SOL     OW 7701   0.982   2.851  10.976  0.3028  0.1083 -0.2761
33913SOL    HW1 7702   1.033   2.928  10.952  2.6091 -0.9035  1.0979
33913SOL    HW2 7703   1.011   2.829  11.064  0.9428 -3.2290 -1.1680
33914SOL     OW 7704   2.618   7.011  11.079 -0.2952  0.2756  0.2952
33914SOL    HW1 7705   2.682   7.044  11.016  0.4381  1.3185  1.5344
33914SOL    HW2 7706   2.611   6.918  11.059  1.5496  0.1427  0.0462
33915SOL     OW 7707   2.992   2.610   1.574  0.3543  0.2644  0.8945
33915SOL    HW1 7708   2.946   2.577   1.498  0.5310  0.1621  0.8310
33915SOL    HW2 7709   2.962   2.701   1.583 -1.4061 -0.3842  2.0606
33916SOL     OW 7710   3.854   7.207   1.423  0.0718  0.0515  0.0213
33916SOL    HW1 7711   3.790   7.177   1.487 -0.8716 -2.4800 -1.9678
33916SOL    HW2 7712   3.864   7.300   1.442 -0.6600 -0.4019  3.3535
33917SOL     OW 7713   3.900  11.338   2.286 -1.2402  0.2577  0.2959
33917SOL    HW1 7714   3.890  11.250   2.323 -2.2482 -0.0544 -0.6654
33917SOL    HW2 7715   3.876  11.328   2.194 -0.3065  1.3315 -0.0818
33918SOL     OW 7716   1.586  12.219  12.355 -0.1714 -0.5059  0.4571
33918SOL    HW1 7717   1.543  12.254  12.434 -0.7164  0.2236 -0.1446
33918SOL    HW2 7718   1.673  12.258  12.356 -0.2796 -0.2627  0.5482
33919SOL     OW 7719   5.378   6.170   3.224  0.0240  0.3708 -0.1567
33919SOL    HW1 7720   5.365   6.082   3.188  0.5545  0.4445 -0.5398
33919SOL    HW2 7721   5.413   6.220   3.150  0.4969  0.6979  0.2898
33920SOL     OW 7722   6.039   8.995   0.789 -0.3418  0.0592  0.0198
33920SOL    HW1 7723   5.969   9.060   0.779 -1.0668 -0.9970 -2.8619
33920SOL    HW2 7724   6.028   8.936   0.714  2.2070 -1.5544  0.7770
33921SOL     OW 7725   1.370   2.037   6.978  0.0753  0.5400 -0.0760
33921SOL    HW1 7726   1.393   2.122   6.939  0.6541  0.2307 -0.4218
33921SOL    HW2 7727   1.417   1.973   6.925 -1.2294 -0.0923 -0.5049
33922SOL     OW 7728   1.161  10.026  11.398 -0.0859 -0.0138  0.4311
33922SOL    HW1 7729   1.235  10.013  11.457  0.1629 -0.8950 -0.0626
33922SOL    HW2 7730   1.094  10.067  11.452  0.8651  1.1004  0.8064
33923SOL     OW 7731   2.150  12.190   7.562 -0.2107 -0.4395 -0.5033
33923SOL    HW1 7732   2.183  12.234   7.483 -2.0959  0.6576 -0.7564
33923SOL    HW2 7733   2.125  12.103   7.532  0.8997 -0.7267 -0.6510
33924SOL     OW 7734  10.090   4.994   0.245 -0.3844 -0.3356  0.1410
33924SOL    HW1 7735  10.084   4.959   0.334 -0.8560  1.5843  0.9091
33924SOL    HW2 7736  10.137   5.076   0.254 -0.2385 -0.2084 -1.4432
33925SOL     OW 7737   0.408   5.463   0.652  0.0917  0.3621  0.2132
33925SOL    HW1 7738   0.315   5.487   0.648  0.3062  1.1190 -0.9254
33925SOL    HW2 7739   0.451   5.538   0.692  0.3607  0.5773 -0.4503
33926SOL     OW 7740   8.067  10.099   3.323  0.1010  0.1774 -0.6362
33926SOL    HW1 7741   8.053  10.154   3.246 -0.8134  1.1387  0.1790
33926SOL    HW2 7742   8.046  10.156   3.397  0.9583 -0.7179  0.3378
33927SOL     OW 7743   5.186   3.626  12.045  0.4994 -0.4418  0.5990
33927SOL    HW1 7744   5.135   3.640  11.966 -1.4856 -0.6172  1.7768
33927SOL    HW2 7745   5.224   3.711  12.065  1.3159 -0.4711 -0.6861
33928SOL     OW 7746   4.446   6.051   3.829  0.4265  0.1065 -0.4421
33928SOL    HW1 7747   4.532   6.040   3.871  0.1916  3.5198  1.2892
33928SOL    HW2 7748   4.385   6.059   3.903 -1.0319  0.0316 -1.6008
33929SOL     OW 7749   0.973   3.845   0.459 -0.1336  0.3672 -0.2517
33929SOL    HW1 7750   0.992   3.894   0.379  0.3835 -0.4652 -0.6592
33929SOL    HW2 7751   0.885   3.871   0.483 -1.1246 -0.8769 -2.2473
33930SOL     OW 7752   1.447   4.750   1.495  0.6686  0.0430  0.4994
33930SOL    HW1 7753   1.468   4.671   1.446  0.7695 -0.2448  0.9971
33930SOL    HW2 7754   1.351   4.756   1.492  0.6261 -0.3881  0.8992
33931SOL     OW 7755   0.913   4.607  10.836  0.3578 -0.4907  0.2041
33931SOL    HW1 7756   0.830   4.611  10.883  0.4993 -1.8777  0.6190
33931SOL    HW2 7757   0.977   4.580  10.903  0.6978 -1.7639 -0.5903
33932SOL     OW 7758   8.667  10.170   0.452 -0.0664  0.3316 -0.0328
33932SOL    HW1 7759   8.719  10.091   0.468 -2.8662 -1.5675  0.2908
33932SOL    HW2 7760   8.608  10.146   0.381  0.8234  3.1396 -1.9021
33933SOL     OW 7761   6.462  11.902   1.467  0.6322  0.2369  0.4382
33933SOL    HW1 7762   6.536  11.869   1.416 -1.7316 -0.9185 -2.6280
33933SOL    HW2 7763   6.420  11.965   1.409 -3.0076 -2.1401  0.1587
33934SOL     OW 7764  11.547   0.794  10.162  0.1322 -0.4418  0.3541
33934SOL    HW1 7765  11.533   0.844  10.242 -0.2277 -1.2731  0.8281
33934SOL    HW2 7766  11.459   0.765  10.137  0.4507 -1.8343  0.7654
33935SOL     OW 7767   1.162   4.919   8.297 -0.2473  0.2849 -0.1434
33935SOL    HW1 7768   1.117   4.979   8.356  0.6599  0.3277  0.5383
33935SOL    HW2 7769   1.233   4.882   8.351 -0.2799 -0.7581 -0.7949
33936SOL     OW 7770   3.379  11.477   4.518  0.7877 -1.1350 -0.3630
33936SOL    HW1 7771   3.419  11.393   4.540 -1.0264 -2.2300 -1.0613
33936SOL    HW2 7772   3.288  11.457   4.500  0.0224  1.1865  0.5539
33937SOL     OW 7773  11.733   0.543   5.822 -0.1675 -0.0245  0.2916
33937SOL    HW1 7774  11.793   0.618   5.829 -0.8958  0.6504 -0.6062
33937SOL    HW2 7775  11.646   0.582   5.819 -0.6626 -0.9955  1.4047
33938SOL     OW 7776   9.426   0.455   1.015  0.4144  0.5337 -0.2318
33938SOL    HW1 7777   9.449   0.372   1.056 -1.3497 -0.0111 -0.2443
33938SOL    HW2 7778   9.487   0.519   1.053 -0.2191 -0.1980  2.1890
33939SOL     OW 7779   7.704  11.797   5.189 -1.0727 -0.2238  0.0761
33939SOL    HW1 7780   7.619  11.834   5.165 -1.6226 -1.1233  0.5774
33939SOL    HW2 7781   7.692  11.767   5.279  0.2936  1.1448  0.7696
33940SOL     OW 7782   6.064   7.288   1.341  0.1285 -0.5826 -0.5373
33940SOL    HW1 7783   6.141   7.234   1.324  0.4400 -0.0876 -0.6772
33940SOL    HW2 7784   5.994   7.224   1.358  0.3200 -1.0439 -1.4569
33941SOL     OW 7785   1.963   3.451  12.049  0.5035  0.0421  0.2354
33941SOL    HW1 7786   2.010   3.393  11.989  0.0803  1.7012 -1.8054
33941SOL    HW2 7787   1.917   3.512  11.992 -1.9342  0.2152  2.2136
33942SOL     OW 7788  11.199   8.950   7.868 -0.5236 -0.1111  0.2125
33942SOL    HW1 7789  11.211   8.867   7.820 -0.3679  0.7178 -1.2537
33942SOL    HW2 7790  11.270   9.005   7.836 -0.1473  0.3497  1.7727
33943SOL     OW 7791   8.292  11.174   0.113  0.0097  0.1157 -0.0459
33943SOL    HW1 7792   8.273  11.251   0.166 -0.3394  0.7547 -1.0701
33943SOL    HW2 7793   8.384  11.182   0.091 -0.6266  1.8208 -2.5221
33944SOL     OW 7794   9.007   7.966   7.023  0.0353 -0.3043 -0.3236
33944SOL    HW1 7795   9.068   7.908   7.068  0.3419 -1.1094 -1.6883
33944SOL    HW2 7796   8.924   7.955   7.069  0.9514  1.0148  1.7389
33945SOL     OW 7797   3.615   3.814   3.142  0.2784  1.1329 -0.5032
33945SOL    HW1 7798   3.704   3.838   3.118  0.1706  0.8469 -1.2238
33945SOL    HW2 7799   3.602   3.727   3.104  0.1896  0.5236  0.8660
33946SOL     OW 7800   3.865   9.294   3.589 -0.0767 -1.0738  0.1747
33946SOL    HW1 7801   3.922   9.219   3.603  0.5365 -0.8621 -1.0071
33946SOL    HW2 7802   3.788   9.258   3.544 -0.4577 -1.2091  0.9182
33947SOL     OW 7803   6.866  12.129   9.863  0.1256 -0.5344 -0.7380
33947SOL    HW1 7804   6.828  12.041   9.859 -0.7671 -0.2661  0.9587
33947SOL    HW2 7805   6.947  12.118   9.913  0.3097 -0.4686 -1.0167
33948SOL     OW 7806  12.117   5.037   3.627  0.2785  0.5746  0.3407
33948SOL    HW1 7807  12.025   5.042   3.653 -0.4585  1.1617 -2.1574
33948SOL    HW2 7808  12.157   4.980   3.692 -2.0572 -0.4999  0.9363
33949SOL     OW 7809   2.859  11.493   4.595 -0.3461  0.3917 -0.1315
33949SOL    HW1 7810   2.920  11.521   4.663 -1.8309 -0.1853  1.5121
33949SOL    HW2 7811   2.915  11.472   4.520  1.3163  1.4031  0.7577
33950SOL     OW 7812   2.075   1.892   2.263 -0.6027  0.3359 -0.2063
33950SOL    HW1 7813   2.020   1.872   2.339  0.3854 -0.1520  0.4016
33950SOL    HW2 7814   2.142   1.951   2.298  0.3047 -0.4940 -0.5184
33951SOL     OW 7815  10.389   8.568   0.562  0.1894 -0.0159 -0.4017
33951SOL    HW1 7816  10.382   8.644   0.504 -1.0027  0.1175 -0.1087
33951SOL    HW2 7817  10.329   8.588   0.634  0.3489 -0.9551 -0.0017
33952SOL     OW 7818  12.266   8.963   4.012 -0.0537 -0.2610  0.6566
33952SOL    HW1 7819  12.322   9.040   4.021  0.9729 -0.8770 -0.1975
33952SOL    HW2 7820  12.184   8.996   3.976  0.3325  0.4406  0.4115
33953SOL     OW 7821   5.582   3.466   3.151 -0.1299  0.3667  0.7338
33953SOL    HW1 7822   5.514   3.509   3.100 -0.3367 -0.1215  0.5929
33953SOL    HW2 7823   5.660   3.470   3.095 -0.4969 -0.6733  0.1198
33954SOL     OW 7824   9.674   4.134   6.699  0.3195 -0.3906  0.0430
33954SOL    HW1 7825   9.736   4.204   6.677  1.8128 -1.5341  0.4219
33954SOL    HW2 7826   9.633   4.111   6.615  1.7183 -0.8021 -0.5576
33955SOL     OW 7827   9.433   4.632   3.918  0.7873 -0.2426 -0.3992
33955SOL    HW1 7828   9.370   4.564   3.941  1.2144 -0.6115 -0.3162
33955SOL    HW2 7829   9.399   4.670   3.837 -0.6817  1.0047  0.7245
33956SOL     OW 7830  11.567   8.330   8.176  0.3241 -0.2704 -0.8195
33956SOL    HW1 7831  11.626   8.405   8.181  1.7519 -1.3062 -1.2013
33956SOL    HW2 7832  11.505   8.342   8.247  0.4396  1.3312 -0.9694
33957SOL     OW 7833   9.224   5.126   1.958 -0.0828  0.4614  0.2562
33957SOL    HW1 7834   9.258   5.040   1.934  0.4426  0.4591  0.9725
33957SOL    HW2 7835   9.301   5.178   1.979 -0.3797  1.1906 -0.4056
33958SOL     OW 7836   3.258   2.426   1.174  0.1147  0.0084  0.0071
33958SOL    HW1 7837   3.341   2.433   1.126  0.6715 -3.9715  0.0452
33958SOL    HW2 7838   3.215   2.349   1.137 -2.0776  0.0897  2.1414
33959SOL     OW 7839   1.897   1.217   7.387  0.3165 -0.4414  0.5751
33959SOL    HW1 7840   1.867   1.237   7.299 -1.2731  1.2934  1.4320
33959SOL    HW2 7841   1.980   1.263   7.397 -1.2106  2.4395  1.0722
33960SOL     OW 7842   3.144   0.438   4.884  0.0011  0.1900  0.4249
33960SOL    HW1 7843   3.158   0.494   4.961 -0.5686  1.7542 -0.5493
33960SOL    HW2 7844   3.059   0.465   4.851 -0.3470 -1.3851 -0.0298
33961SOL     OW 7845   6.549   3.072   1.352 -0.0539  0.0728  0.4057
33961SOL    HW1 7846   6.507   3.073   1.438 -1.3293  0.6319 -0.1940
33961SOL    HW2 7847   6.599   3.153   1.348 -0.2406  0.1933  0.5059
33962SOL     OW 7848   9.507   5.727   1.716  0.6992  0.4058 -0.6228
33962SOL    HW1 7849   9.531   5.677   1.793 -1.6176  0.4153  0.1816
33962SOL    HW2 7850   9.464   5.664   1.658 -0.1794  0.9844 -0.6158
33963SOL     OW 7851   8.234   0.400   9.166 -0.1192 -0.4554 -0.1185
33963SOL    HW1 7852   8.289   0.468   9.204 -0.4811  0.4912 -1.2285
33963SOL    HW2 7853   8.222   0.427   9.075 -0.0518 -2.1423 -0.6664
33964SOL     OW 7854  10.809  10.366   3.243  0.2797  0.2830 -0.1347
33964SOL    HW1 7855  10.879  10.321   3.196  0.8007 -0.0680  0.9294
33964SOL    HW2 7856  10.853  10.436   3.290  0.0790 -0.4468  1.2074
33965SOL     OW 7857   2.866  10.607   2.500 -0.3474 -0.5234 -0.0285
33965SOL    HW1 7858   2.879  10.680   2.440  1.6022 -0.1288  0.7883
33965SOL    HW2 7859   2.849  10.649   2.585  0.3128 -0.9998  0.3528
33966SOL     OW 7860  12.335  11.264  11.683 -0.3774  0.5559 -0.5864
33966SOL    HW1 7861  12.375  11.285  11.768 -0.5399 -2.4390  0.3570
33966SOL    HW2 7862  12.272  11.335  11.669 -0.0675  1.3731  1.6291
33967SOL     OW 7863   3.965  11.732   2.115 -0.2142  0.4854  0.5920
33967SOL    HW1 7864   4.027  11.789   2.160  0.8661 -0.6840  0.6589
33967SOL    HW2 7865   3.880  11.755   2.151  0.2298  1.8266  0.8273
33968SOL     OW 7866   0.731   1.107   5.299  0.0592 -0.3860 -0.3430
33968SOL    HW1 7867   0.728   1.090   5.205 -1.9559  0.9145 -0.5795
33968SOL    HW2 7868   0.653   1.063   5.334 -0.2031  0.6350  0.4114
33969SOL     OW 7869   9.057   1.617   1.800 -0.4536 -0.7084  0.0451
33969SOL    HW1 7870   9.070   1.563   1.722 -1.2674  0.1429 -0.7100
33969SOL    HW2 7871   9.043   1.706   1.766  2.1756  0.2914  1.3029
33970SOL     OW 7872   4.676  11.520   2.472 -0.0797 -0.0309  0.5383
33970SOL    HW1 7873   4.702  11.563   2.390 -0.7488  0.3749  0.5324
33970SOL    HW2 7874   4.585  11.544   2.484 -0.0807 -0.3581  1.2409
33971SOL     OW 7875   6.079   2.540  11.686  0.0999 -0.0479  0.0273
33971SOL    HW1 7876   6.062   2.469  11.625  1.3135  0.3971 -0.8758
33971SOL    HW2 7877   6.157   2.584  11.651  1.1774 -0.0908  2.1713
33972SOL     OW 7878   9.918   0.280   1.044  0.2551  0.0752 -0.3721
33972SOL    HW1 7879  10.013   0.295   1.038  0.1778  0.8813  0.2424
33972SOL    HW2 7880   9.903   0.203   0.990  1.4723 -0.9274  0.6489
33973SOL     OW 7881   6.414   6.810   8.276  0.0179  0.0197  0.2404
33973SOL    HW1 7882   6.378   6.754   8.344  0.3219 -0.6506 -0.1417
33973SOL    HW2 7883   6.390   6.899   8.302  3.1318  0.2154  3.1886
33974SOL     OW 7884  11.162   5.977   6.315 -0.1513 -0.0331 -0.5572
33974SOL    HW1 7885  11.130   6.002   6.402  1.1107 -1.6289  0.4413
33974SOL    HW2 7886  11.083   5.958   6.265 -0.9186  1.2237  0.1181
33975SOL     OW 7887   4.237   3.513   6.007  0.2522  0.1299  0.5322
33975SOL    HW1 7888   4.149   3.477   6.016 -0.1472  0.6759 -0.8321
33975SOL    HW2 7889   4.273   3.469   5.929  1.6931 -1.0372  1.8026
33976SOL     OW 7890   7.281   7.374   8.225  0.0946  0.4632 -0.1763
33976SOL    HW1 7891   7.356   7.329   8.265 -0.2022 -1.6219 -1.7982
33976SOL    HW2 7892   7.208   7.312   8.235 -0.7073  1.2054 -1.1937
33977SOL     OW 7893   8.858   9.573   7.358  0.3215 -0.2682  0.2987
33977SOL    HW1 7894   8.772   9.564   7.316 -0.1667 -0.0284  1.2271
33977SOL    HW2 7895   8.910   9.502   7.321  0.1033  0.2906 -1.1619
33978SOL     OW 7896   2.161  11.281  10.515 -0.4502 -0.2007 -0.0469
33978SOL    HW1 7897   2.226  11.271  10.445 -0.5677  0.9275 -0.3446
33978SOL    HW2 7898   2.089  11.330  10.474 -0.8879 -0.2506  0.6470
33979SOL     OW 7899   2.829   8.261   7.109 -0.1347  0.2313  0.2937
33979SOL    HW1 7900   2.764   8.209   7.061  0.5986  0.5809 -1.0944
33979SOL    HW2 7901   2.896   8.198   7.134  1.8820  0.7125 -3.2847
33980SOL     OW 7902  11.918   9.365   5.721 -0.3096 -0.5818  0.3466
33980SOL    HW1 7903  11.894   9.282   5.761 -2.5459  0.2928  0.9672
33980SOL    HW2 7904  11.992   9.396   5.773  1.3136 -2.6527 -0.6145
33981SOL     OW 7905   2.912   5.830  10.187  0.0052 -0.3343 -0.0149
33981SOL    HW1 7906   2.930   5.906  10.242  1.5695 -0.8770  0.2727
33981SOL    HW2 7907   2.961   5.758  10.228  0.2860 -1.0113 -1.4561
33982SOL     OW 7908   8.684  10.929  10.175  0.0642 -0.2668  0.4802
33982SOL    HW1 7909   8.754  10.994  10.175 -1.4513  1.4395  0.9001
33982SOL    HW2 7910   8.698  10.879  10.094  2.0459 -0.3293  0.8186
33983SOL     OW 7911   6.275   1.300   2.898 -0.0176 -0.8711 -0.4383
33983SOL    HW1 7912   6.322   1.336   2.974 -0.4844 -0.3556 -0.3927
33983SOL    HW2 7913   6.223   1.228   2.935  1.2844 -1.9328 -0.6096
33984SOL     OW 7914   0.537   9.376   8.503  0.4615 -0.2014  0.0316
33984SOL    HW1 7915   0.536   9.443   8.572  0.0603  0.3757 -0.5264
33984SOL    HW2 7916   0.545   9.425   8.422  1.1326 -0.8959 -0.3270
33985SOL     OW 7917   0.316  12.376   9.281 -0.0593  0.2708  0.5102
33985SOL    HW1 7918   0.411  12.385   9.286 -0.1955  2.2971  0.3848
33985SOL    HW2 7919   0.285  12.402   9.368 -0.5751  1.6448 -0.0517
33986SOL     OW 7920   9.450   9.119   9.638 -0.3350  0.0167  0.1940
33986SOL    HW1 7921   9.442   9.095   9.545  2.5207 -0.0112 -0.1132
33986SOL    HW2 7922   9.401   9.050   9.683 -1.3566 -0.2604 -1.2285
33987SOL     OW 7923   2.668   0.903   8.877 -0.0011 -0.2228  0.4253
33987SOL    HW1 7924   2.578   0.903   8.910  0.3228  0.8829  1.3653
33987SOL    HW2 7925   2.717   0.849   8.939 -0.3063 -2.3339 -1.0648
33988SOL     OW 7926   9.133   9.028  10.842 -0.1272 -0.5499 -0.5724
33988SOL    HW1 7927   9.051   8.995  10.878  0.0395 -1.9700 -1.4185
33988SOL    HW2 7928   9.111   9.060  10.755  0.1102 -0.3701 -0.5670
33989SOL     OW 7929   3.115   7.041   4.344 -0.3199  0.0845  0.1929
33989SOL    HW1 7930   3.117   7.099   4.419  1.0183  0.7817 -0.3574
33989SOL    HW2 7931   3.087   6.956   4.379 -1.1045  0.7457  1.2032
33990SOL     OW 7932   1.685  12.120   4.645 -0.1739 -0.1170 -0.4624
33990SOL    HW1 7933   1.765  12.078   4.614 -0.4581 -0.5538 -0.6153
33990SOL    HW2 7934   1.712  12.208   4.670  0.4656 -0.4447  0.0316
33991SOL     OW 7935   7.635   1.057   7.978 -0.5252  0.1300 -0.0809
33991SOL    HW1 7936   7.707   1.118   7.997 -1.6157  2.0826 -1.8053
33991SOL    HW2 7937   7.659   1.017   7.894 -1.7279  1.3879 -1.0800
33992SOL     OW 7938   7.864   5.901   6.214 -0.4832 -0.5473  0.8820
33992SOL    HW1 7939   7.828   5.984   6.182  0.7485  1.0613  3.4258
33992SOL    HW2 7940   7.799   5.836   6.187 -2.5866  1.4965  0.6667
33993SOL     OW 7941  11.690   3.954   4.921 -0.0328 -0.1122  0.0656
33993SOL    HW1 7942  11.642   3.874   4.943 -0.4751  0.2852  0.5733
33993SOL    HW2 7943  11.631   4.002   4.862  0.7800 -0.7619 -1.3343
33994SOL     OW 7944   8.149  11.712   3.453 -0.3726 -0.4568 -0.0671
33994SOL    HW1 7945   8.205  11.672   3.387 -0.0455  0.5712 -0.4398
33994SOL    HW2 7946   8.072  11.655   3.458  0.7396 -1.9910  0.5685
33995SOL     OW 7947  11.954  12.389  11.490  0.2426  0.0719 -0.1829
33995SOL    HW1 7948  11.929  12.479  11.467 -0.2591  0.0638  0.3098
33995SOL    HW2 7949  12.005  12.359  11.415  0.4252  0.7710 -0.3513
33996SOL     OW 7950  11.841   3.262   6.989  0.0433  0.0378 -0.7360
33996SOL    HW1 7951  11.766   3.319   6.970 -0.1384  0.4377  1.0052
33996SOL    HW2 7952  11.812   3.174   6.966 -0.9408  0.2051 -0.1588
33997SOL     OW 7953  11.394   2.890   1.201  0.0996 -0.2080  0.1736
33997SOL    HW1 7954  11.344   2.823   1.249 -0.5686 -0.3771 -0.7474
33997SOL    HW2 7955  11.328   2.941   1.155  0.7709 -0.4345 -1.0720
33998SOL     OW 7956   3.351  10.806   8.727 -0.2724 -0.1408  0.6144
33998SOL    HW1 7957   3.367  10.826   8.819 -0.8415 -0.8175  0.8656
33998SOL    HW2 7958   3.400  10.874   8.679  0.6474 -0.2282  1.3948
33999SOL     OW 7959   4.676   4.554   4.391  0.2680 -0.1345 -0.4486
33999SOL    HW1 7960   4.650   4.644   4.412 -0.3557 -0.2539 -0.6839
33999SOL    HW2 7961   4.594   4.506   4.382  0.4568 -0.1747 -2.7816
34000SOL     OW 7962   5.134   2.307   6.368  0.3310 -0.0935 -0.2191
34000SOL    HW1 7963   5.227   2.331   6.367  0.1207  0.8585  0.7374
34000SOL    HW2 7964   5.104   2.321   6.278  1.0462 -0.1372 -0.4693
34001SOL     OW 7965   5.203  12.463   9.681 -0.0136 -0.0880 -0.3501
34001SOL    HW1 7966   5.165  12.474   9.595 -0.5772 -1.7131 -0.3451
34001SOL    HW2 7967   5.251  12.544   9.697 -1.1153  0.8337 -1.5500
34002SOL     OW 7968   5.270   1.560  12.123 -0.3035 -0.4322  0.3783
34002SOL    HW1 7969   5.329   1.496  12.164 -0.3365 -0.0831  0.9856
34002SOL    HW2 7970   5.218   1.508  12.061  2.8455 -0.2339 -2.6991
34003SOL     OW 7971   2.526   8.887  10.845  0.0680  0.0416 -0.0169
34003SOL    HW1 7972   2.486   8.846  10.921  0.3990  1.4103  0.9462
34003SOL    HW2 7973   2.515   8.824  10.774 -4.0153  0.4367  0.0827
34004SOL     OW 7974   8.636   8.095   1.673 -0.4862 -0.1384 -0.2002
34004SOL    HW1 7975   8.649   8.022   1.734  1.3778  0.4723  0.1960
34004SOL    HW2 7976   8.595   8.163   1.725  0.0036 -0.0492  0.0780
34005SOL     OW 7977   1.452   6.112   4.049  0.2338  0.3582  0.0261
34005SOL    HW1 7978   1.538   6.090   4.014  0.4691  0.3978  0.5680
34005SOL    HW2 7979   1.429   6.194   4.005  0.6577  0.5657  0.1827
34006SOL     OW 7980   8.057   2.672  11.584  0.0254  0.4098 -0.1679
34006SOL    HW1 7981   7.964   2.693  11.593 -0.6271 -2.2719  0.2919
34006SOL    HW2 7982   8.094   2.689  11.671 -0.4872 -0.2567  0.1968
34007SOL     OW 7983   3.106  11.048   2.043  0.3887 -0.2511  0.6358
34007SOL    HW1 7984   3.111  10.989   2.119  1.3980 -0.5599  0.3519
34007SOL    HW2 7985   3.039  11.112   2.066  0.4553 -0.5319  1.6539
34008SOL     OW 7986   1.106   3.608   0.038 -0.5632 -0.3140  0.0245
34008SOL    HW1 7987   1.131   3.619   0.130  0.9107  1.9885 -0.5650
34008SOL    HW2 7988   1.120   3.515   0.020 -0.0349 -0.6361  1.8997
34009SOL     OW 7989  11.519   8.281   0.120 -0.5816 -0.3590  0.0358
34009SOL    HW1 7990  11.602   8.327   0.134  0.3892 -1.6547 -1.1321
34009SOL    HW2 7991  11.523   8.206   0.178 -0.7520 -0.6558 -0.3331
34010SOL     OW 7992  11.128   4.164   3.085 -0.3451  0.2172  0.2697
34010SOL    HW1 7993  11.200   4.223   3.064 -0.4988  0.4822  0.4897
34010SOL    HW2 7994  11.155   4.079   3.050  0.0761  0.3148  0.3628
34011SOL     OW 7995  10.469   2.085   1.162 -0.2144  0.0208  0.7891
34011SOL    HW1 7996  10.560   2.074   1.134 -1.1458 -0.8577 -2.2451
34011SOL    HW2 7997  10.441   2.166   1.120 -1.1464 -0.2873  0.8016
34012SOL     OW 7998  10.573   3.144   3.760 -0.3245 -0.5511 -0.1986
34012SOL    HW1 7999  10.622   3.226   3.746 -0.3178 -0.5265 -0.0365
34012SOL    HW2 8000  10.602   3.114   3.847  0.6100 -1.3763 -0.7701
34013SOL     OW 8001   8.362   8.453  10.007  0.5035 -0.2038 -0.3873
34013SOL    HW1 8002   8.443   8.422  10.048  0.4426  0.8928  0.6406
34013SOL    HW2 8003   8.300   8.461  10.079 -0.2451 -0.1452 -1.0197
34014SOL     OW 8004  10.738   9.210   2.993  0.6101 -0.2758 -0.6219
34014SOL    HW1 8005  10.815   9.200   2.937  0.3607  1.4023 -1.3196
34014SOL    HW2 8006  10.715   9.302   2.986 -0.7255 -0.4825  0.5741
34015SOL     OW 8007   7.222   0.106   9.150 -0.3803  0.8338  0.2537
34015SOL    HW1 8008   7.163   0.073   9.082 -0.6087 -1.0406  1.2899
34015SOL    HW2 8009   7.167   0.163   9.203 -1.2386 -0.6017  0.9906
34016SOL     OW 8010   6.435  11.792   1.149  0.2518  0.1749  0.3448
34016SOL    HW1 8011   6.445  11.843   1.069  0.3489  1.6161  1.2539
34016SOL    HW2 8012   6.504  11.824   1.207  0.0042 -0.6519  1.1147
34017SOL     OW 8013   4.917   1.558   2.745  0.1083 -0.0626  0.2725
34017SOL    HW1 8014   4.922   1.615   2.822 -1.0693 -0.7805  0.9015
34017SOL    HW2 8015   4.942   1.615   2.672 -0.2113  1.0303  0.9952
34018SOL     OW 8016   3.724   1.522   7.508  0.2900  0.4513 -0.4126
34018SOL    HW1 8017   3.819   1.518   7.513  0.3594  0.0743 -1.7079
34018SOL    HW2 8018   3.705   1.532   7.414 -0.9270  1.1403 -0.1164
34019SOL     OW 8019   9.353   7.231   4.150  0.0927 -0.0101  0.1128
34019SOL    HW1 8020   9.372   7.294   4.220  1.1621  0.4240 -0.5456
34019SOL    HW2 8021   9.436   7.184   4.138  0.4160  0.9686 -1.8962
34020SOL     OW 8022   9.984   1.583   7.516  0.2173  0.5264  0.2833
34020SOL    HW1 8023  10.077   1.582   7.495  0.7703 -0.0744  2.4342
34020SOL    HW2 8024   9.961   1.676   7.517  0.1697  0.6148 -2.4465
34021SOL     OW 8025   4.418   3.784  11.630  0.4195 -0.0759 -0.5606
34021SOL    HW1 8026   4.423   3.695  11.596 -1.3504 -0.0040 -1.1363
34021SOL    HW2 8027   4.325   3.797  11.650  0.0068  2.6434 -3.4394
34022SOL     OW 8028   8.483  10.576  10.241 -0.2476  0.2101  0.3314
34022SOL    HW1 8029   8.406  10.579  10.297 -0.2105  0.2223  0.3811
34022SOL    HW2 8030   8.448  10.572  10.152 -0.3393 -1.6641  0.4077
34023SOL     OW 8031   3.384   2.529  10.330  0.0810  0.1733  0.2847
34023SOL    HW1 8032   3.453   2.484  10.379 -1.3567 -0.4025  1.8694
34023SOL    HW2 8033   3.422   2.615  10.309  0.7090  0.5507  2.6419
34024SOL     OW 8034   3.737   1.040   4.788 -0.1360 -0.2146  0.4759
34024SOL    HW1 8035   3.805   1.015   4.726 -0.2819 -0.3842  0.3837
34024SOL    HW2 8036   3.781   1.099   4.849 -0.6575  2.4082 -1.4971
34025SOL     OW 8037   7.119   1.000   9.974 -0.4073 -0.1024 -0.0308
34025SOL    HW1 8038   7.109   0.936   9.904  1.7400  0.0323 -0.5387
34025SOL    HW2 8039   7.192   0.967  10.026 -0.9234  0.6383  1.2130
34026SOL     OW 8040   0.876  10.937  12.246 -0.0425  0.1632 -0.2841
34026SOL    HW1 8041   0.877  11.013  12.305  0.4158 -0.0722  0.0143
34026SOL    HW2 8042   0.893  10.862  12.303  1.0099 -0.0131 -0.8008
34027SOL     OW 8043   2.337   8.043   0.671 -0.0693  0.1484 -0.1158
34027SOL    HW1 8044   2.403   8.041   0.602  0.2610  1.1004  0.1585
34027SOL    HW2 8045   2.387   8.047   0.753 -0.4621 -0.2637  0.1549
34028SOL     OW 8046   4.778   0.358  10.167  0.4575  0.3613  0.0831
34028SOL    HW1 8047   4.814   0.273  10.138 -0.8195 -0.5313  1.0143
34028SOL    HW2 8048   4.727   0.337  10.245 -1.2635  1.7266 -0.6063
34029SOL     OW 8049   2.125   1.521  12.187 -0.2827  0.4582 -0.3856
34029SOL    HW1 8050   2.191   1.469  12.142 -0.1794  0.5541 -0.3461
34029SOL    HW2 8051   2.101   1.468  12.263  1.1557  1.2597  0.6653
34030SOL     OW 8052   6.800   1.146   5.986 -0.7118 -0.2602 -0.4910
34030SOL    HW1 8053   6.776   1.221   6.041  0.8941 -1.6618  2.3527
34030SOL    HW2 8054   6.733   1.080   6.005 -0.6085 -0.4757 -0.8647
34031SOL     OW 8055   3.657   6.557   5.768  0.0764 -0.7695 -0.0027
34031SOL    HW1 8056   3.702   6.570   5.851  2.0185 -1.6956 -0.8301
34031SOL    HW2 8057   3.564   6.567   5.788  0.4317 -1.7379  2.4330
34032SOL     OW 8058   6.560  11.419   9.340  0.3882  0.0234 -0.2641
34032SOL    HW1 8059   6.600  11.436   9.255 -0.6168 -0.7897 -0.9267
34032SOL    HW2 8060   6.616  11.353   9.381  0.0975 -0.6434 -0.9176
34033SOL     OW 8061   8.318  11.009  11.370  0.1865  0.0359  0.1824
34033SOL    HW1 8062   8.290  11.060  11.294  2.1218 -0.2046 -0.7425
34033SOL    HW2 8063   8.273  10.925  11.360 -0.1980  0.2879 -0.2634
34034SOL     OW 8064   6.582   8.207   2.193  0.1950  0.4328  0.5426
34034SOL    HW1 8065   6.543   8.120   2.185 -1.6390  1.2976 -0.3699
34034SOL    HW2 8066   6.591   8.238   2.103  0.0435  1.5217  0.8856
34035SOL     OW 8067   8.541  12.113   4.995  0.0230 -0.6940 -0.2970
34035SOL    HW1 8068   8.501  12.028   4.976 -1.3334 -0.3591  0.8696
34035SOL    HW2 8069   8.521  12.167   4.919  0.0972 -1.1393 -0.6379
34036SOL     OW 8070   0.166   0.340   9.031 -0.0378  0.4121  0.5402
34036SOL    HW1 8071   0.224   0.384   9.093  0.2528 -0.4022  0.8589
34036SOL    HW2 8072   0.078   0.369   9.055  0.1893  1.3399  0.3096
34037SOL     OW 8073   4.949   1.230  10.790  0.0688  0.4794  0.4455
34037SOL    HW1 8074   5.037   1.195  10.778  0.3814  1.0931  0.8605
34037SOL    HW2 8075   4.922   1.255  10.701 -1.1650 -2.9807 -0.3062
34038SOL     OW 8076   7.147  12.367   6.098 -0.8428 -0.0393 -0.0231
34038SOL    HW1 8077   7.068  12.418   6.116 -1.8055 -1.6120  0.3791
34038SOL    HW2 8078   7.187  12.353   6.184 -1.5846 -1.4821  0.1170
34039SOL     OW 8079   5.923   1.318  12.065 -0.6425  0.3039  0.1543
34039SOL    HW1 8080   5.993   1.339  12.127 -1.5481  0.5475  1.1271
34039SOL    HW2 8081   5.969   1.289  11.986  0.5431 -0.6955  1.1679
34040SOL     OW 8082   6.418   1.928   2.981  0.0967  0.2546 -0.0771
34040SOL    HW1 8083   6.468   1.973   2.913 -0.5090  1.4725  0.2465
34040SOL    HW2 8084   6.328   1.926   2.948  0.0730 -0.5651  0.0052
34041SOL     OW 8085   6.789   8.458   4.166  0.0507 -0.5422 -0.0923
34041SOL    HW1 8086   6.708   8.414   4.139  1.1339 -2.3533 -0.5103
34041SOL    HW2 8087   6.857   8.392   4.156  1.8458  1.3737 -1.1370
34042SOL     OW 8088   7.596   4.784   3.824 -0.5242  0.3497 -0.1645
34042SOL    HW1 8089   7.515   4.814   3.783 -1.0312  0.1523  0.6874
34042SOL    HW2 8090   7.568   4.727   3.895  0.4008 -1.2232 -1.0015
34043SOL     OW 8091   7.225   2.981  10.638  0.0112 -0.3804  0.1435
34043SOL    HW1 8092   7.264   2.934  10.712  0.4657  0.4673  0.4607
34043SOL    HW2 8093   7.212   3.070  10.671  0.3267  0.0364 -0.8318
34044SOL     OW 8094   8.532   2.715   6.795  0.0797  0.3622  0.2443
34044SOL    HW1 8095   8.572   2.801   6.805  0.0577  0.2489  1.4192
34044SOL    HW2 8096   8.459   2.715   6.858 -1.8640  0.5921 -1.8590
34045SOL     OW 8097   4.151   8.486   4.126 -0.0689 -0.3557  0.1150
34045SOL    HW1 8098   4.114   8.500   4.039 -0.6002 -0.4303  0.3275
34045SOL    HW2 8099   4.223   8.425   4.111 -0.6570 -0.9931 -0.1642
34046SOL     OW 8100   1.178  10.624   6.174 -0.3999  0.2062  0.0417
34046SOL    HW1 8101   1.187  10.580   6.090  0.6058 -1.1535  0.8359
34046SOL    HW2 8102   1.266  10.622   6.212 -0.9476  0.3334  1.3605
34047SOL     OW 8103   9.966   7.540   4.138  0.3650  0.3561  0.3366
34047SOL    HW1 8104  10.009   7.498   4.063 -0.8506  0.5928 -0.5156
34047SOL    HW2 8105   9.919   7.468   4.182 -2.5231  0.8526 -1.6809
34048SOL     OW 8106   5.013   3.664   4.323  0.3347  0.5690 -0.2002
34048SOL    HW1 8107   5.078   3.639   4.389  0.1747 -0.1409 -0.2967
34048SOL    HW2 8108   4.956   3.587   4.316 -0.2070  0.9927 -0.4896
34049SOL     OW 8109   7.172   6.013   1.219  0.7076 -0.1052 -0.0982
34049SOL    HW1 8110   7.201   6.022   1.128 -0.0835 -0.2392 -0.3718
34049SOL    HW2 8111   7.085   6.053   1.221  0.8485  0.1835  0.6752
34050SOL     OW 8112   8.244   0.978  12.392  0.5794  0.3571 -0.6455
34050SOL    HW1 8113   8.196   0.981  12.475  0.9626  1.0402 -0.4390
34050SOL    HW2 8114   8.213   0.898  12.349  2.0342 -1.3005  1.1806
34051SOL     OW 8115   9.269   2.921   2.882  0.2650  0.3183 -0.2249
34051SOL    HW1 8116   9.279   2.851   2.817  4.1929  0.5185 -0.0916
34051SOL    HW2 8117   9.288   3.002   2.833 -0.7569  0.9363  0.3639
34052SOL     OW 8118  10.089   1.029   0.013  0.8149 -0.5511 -0.3818
34052SOL    HW1 8119  10.105   1.035  -0.081 -1.9143  0.2588 -0.8896
34052SOL    HW2 8120  10.088   1.120   0.043 -1.8148 -0.5070 -0.3429
34053SOL     OW 8121   1.588   4.634   4.637 -0.1723 -0.6029  0.2777
34053SOL    HW1 8122   1.537   4.672   4.708  0.6524 -0.5805  0.8700
34053SOL    HW2 8123   1.533   4.645   4.559 -0.4990  0.6182  0.6663
34054SOL     OW 8124   6.389   3.242   9.404  0.4702  0.1938  0.7412
34054SOL    HW1 8125   6.463   3.294   9.372 -1.1289  0.4651 -3.1677
34054SOL    HW2 8126   6.385   3.167   9.344 -1.1121 -0.9783  2.2269
34055SOL     OW 8127   7.853   7.451   4.237  0.1665  0.3620  0.0704
34055SOL    HW1 8128   7.941   7.455   4.199  0.5652  3.0158  1.0361
34055SOL    HW2 8129   7.795   7.434   4.163  1.2453  1.5964 -1.1032
34056SOL     OW 8130   0.839  10.101  11.188  0.1098 -0.2180  0.4620
34056SOL    HW1 8131   0.876  10.069  11.107 -1.7068 -2.2864  0.3598
34056SOL    HW2 8132   0.877  10.189  11.199  1.8436 -0.6365 -1.5862
34057SOL     OW 8133   9.172   6.670   3.880 -0.1755  0.3958  0.1735
34057SOL    HW1 8134   9.197   6.755   3.918 -1.3419  0.7509  0.1719
34057SOL    HW2 8135   9.234   6.608   3.919  1.3066  1.3686 -0.5522
34058SOL     OW 8136   8.534   7.012   7.714 -0.1242  0.3208  0.1212
34058SOL    HW1 8137   8.590   7.004   7.638  0.1259  0.6532  0.2656
34058SOL    HW2 8138   8.592   6.996   7.789 -0.1085  1.1020  0.2938
34059SOL     OW 8139   9.200   9.321   3.285 -0.0051 -0.4184  0.9567
34059SOL    HW1 8140   9.189   9.229   3.310 -1.0788 -0.8396 -0.9363
34059SOL    HW2 8141   9.174   9.370   3.363  1.8478 -1.6826  2.4655
34060SOL     OW 8142   2.939  10.831   1.475  0.2851 -0.1939 -0.1900
34060SOL    HW1 8143   2.966  10.817   1.385 -0.0501  1.0426 -0.4931
34060SOL    HW2 8144   3.017  10.865   1.519 -0.1173  1.2015 -0.5242
34061SOL     OW 8145   8.981   0.213   2.553 -0.0220  0.0234  0.1586
34061SOL    HW1 8146   9.016   0.231   2.466 -0.0216  0.2219  0.1987
34061SOL    HW2 8147   9.001   0.292   2.603  0.3540 -0.2546  0.4547
34062SOL     OW 8148   8.911   5.966   7.205  0.0584 -0.0786  0.2719
34062SOL    HW1 8149   8.929   5.967   7.299 -0.9156  0.5246  0.4677
34062SOL    HW2 8150   8.823   6.003   7.197 -0.2293 -0.9319 -0.8057
34063SOL     OW 8151   2.916   6.168   0.677  0.5819 -0.1255 -0.0941
34063SOL    HW1 8152   2.853   6.237   0.698  1.6052  0.6757  0.4251
34063SOL    HW2 8153   2.970   6.205   0.607 -0.7198 -1.5470 -1.9672
34064SOL     OW 8154   3.130  10.742   4.190 -0.1006 -0.6526 -0.0176
34064SOL    HW1 8155   3.103  10.826   4.226  0.2796 -1.1692  1.5611
34064SOL    HW2 8156   3.219  10.757   4.159 -0.4765 -0.1651 -0.8797
34065SOL     OW 8157   1.335   4.583   3.832  0.4079 -0.4301  0.4852
34065SOL    HW1 8158   1.352   4.619   3.920 -1.7764  0.8447  0.4875
34065SOL    HW2 8159   1.302   4.495   3.849  0.9584 -0.5675  0.8705
34066SOL     OW 8160   1.908   6.422   4.364 -0.4123  0.1251 -0.0878
34066SOL    HW1 8161   1.992   6.460   4.337  0.5903  0.9559  3.5507
34066SOL    HW2 8162   1.923   6.328   4.364  0.3166  0.2341 -0.1593
34067SOL     OW 8163   3.993  10.899   0.855 -0.4392 -0.0735  0.2190
34067SOL    HW1 8164   4.031  10.914   0.768 -1.0192 -0.1480 -0.0533
34067SOL    HW2 8165   3.952  10.982   0.878  0.8175  0.3529  0.9936
34068SOL     OW 8166   6.696   2.276   4.260  0.1983  0.8393 -0.4809
34068SOL    HW1 8167   6.645   2.206   4.219 -0.2994  1.4721 -0.9434
34068SOL    HW2 8168   6.634   2.322   4.315  1.1121 -0.8028  2.1127
34069SOL     OW 8169   5.410   8.222  11.455  0.2784  0.1794 -0.3625
34069SOL    HW1 8170   5.499   8.186  11.454 -0.1314 -0.9140 -1.7784
34069SOL    HW2 8171   5.360   8.163  11.399 -2.3386 -1.6477  3.4843
34070SOL     OW 8172   3.458  10.423   9.182  0.1251  0.5846  0.1547
34070SOL    HW1 8173   3.536  10.474   9.201  1.8873 -1.5917 -0.8808
34070SOL    HW2 8174   3.445  10.431   9.088 -0.0629 -0.2241  0.1059
34071SOL     OW 8175   4.087   5.594   0.261  0.5654 -0.0808  0.1767
34071SOL    HW1 8176   4.113   5.653   0.191  0.1847 -1.2054 -0.9552
34071SOL    HW2 8177   3.991   5.601   0.265  0.3310 -1.8122 -1.1392
34072SOL     OW 8178   6.971   2.695   2.921  0.5182  0.0554  0.1567
34072SOL    HW1 8179   7.031   2.714   2.850  1.6169  1.2100  1.3390
34072SOL    HW2 8180   7.022   2.642   2.982 -0.3120 -0.6602  0.2502
34073SOL     OW 8181   5.590   2.694   5.977  0.4837  0.1554  0.1573
34073SOL    HW1 8182   5.528   2.655   5.915  2.1438 -2.0878 -0.2148
34073SOL    HW2 8183   5.535   2.729   6.047 -1.2352 -1.0939 -0.4965
34074SOL     OW 8184   3.340   2.587   8.596 -0.0109 -0.3116  0.2826
34074SOL    HW1 8185   3.266   2.602   8.537 -0.2032  0.2470  0.6571
34074SOL    HW2 8186   3.339   2.492   8.611  0.9957 -0.7193 -1.8292
34075SOL     OW 8187   2.398   9.276   0.192 -0.4435  0.3441 -0.0654
34075SOL    HW1 8188   2.455   9.343   0.229 -0.5265 -0.2991  1.3078
34075SOL    HW2 8189   2.412   9.199   0.248 -1.1676 -0.4383 -0.9209
34076SOL     OW 8190  11.708   3.905  11.080  0.2068 -0.1400 -0.8663
34076SOL    HW1 8191  11.659   3.827  11.053  1.0448 -1.3626  0.9384
34076SOL    HW2 8192  11.787   3.904  11.025  0.6452 -1.1104 -0.2522
34077SOL     OW 8193   0.484   3.311   7.101 -0.3510  0.2801  0.4767
34077SOL    HW1 8194   0.411   3.286   7.045  1.3371 -0.3836 -1.5569
34077SOL    HW2 8195   0.446   3.372   7.165 -3.0024 -1.4456  0.6889
34078SOL     OW 8196   8.848   6.202   5.732  0.4067  0.1322 -0.7608
34078SOL    HW1 8197   8.823   6.294   5.722  0.3815  0.3078  0.6829
34078SOL    HW2 8198   8.921   6.190   5.670  1.6661  1.6516  0.3579
34079SOL     OW 8199  12.298   4.282  12.247 -0.1484 -0.3329 -0.0822
34079SOL    HW1 8200  12.270   4.278  12.339 -0.7367 -1.1321 -0.2849
34079SOL    HW2 8201  12.394   4.283  12.252 -0.1379 -1.7061  0.5180
34080SOL     OW 8202   2.348   8.079   8.089 -0.4340 -0.4209 -0.1276
34080SOL    HW1 8203   2.390   8.014   8.033 -1.1793  0.0347 -1.2751
34080SOL    HW2 8204   2.406   8.089   8.164  0.2135 -1.6200 -0.4580
34081SOL     OW 8205   9.041   9.184   8.507  0.0085 -0.6818  0.2127
34081SOL    HW1 8206   9.133   9.195   8.531  0.2625 -1.4716 -0.3736
34081SOL    HW2 8207   9.043   9.141   8.422 -0.9050 -3.0431  1.3092
34082SOL     OW 8208   1.639   2.731   3.776 -0.0527  0.2942  0.1374
34082SOL    HW1 8209   1.696   2.801   3.743  1.0964 -0.0576  1.2858
34082SOL    HW2 8210   1.568   2.778   3.820  0.1828  0.7489  0.0492
34083SOL     OW 8211   3.991   1.967   2.208  0.2360 -0.0065  0.2493
34083SOL    HW1 8212   3.976   1.886   2.258 -0.6263  0.9327  1.5771
34083SOL    HW2 8213   4.086   1.979   2.212  0.3381 -0.7556  0.3535
34084SOL     OW 8214   3.584   1.501   1.513 -0.8124  0.3127 -0.5394
34084SOL    HW1 8215   3.506   1.451   1.489 -0.0370 -0.2880 -1.9090
34084SOL    HW2 8216   3.611   1.543   1.431  1.5058 -1.1861 -0.6104
34085SOL     OW 8217   3.263  11.635   3.462  0.2862  0.2270 -0.0879
34085SOL    HW1 8218   3.297  11.566   3.404 -1.1335 -1.0457  0.5231
34085SOL    HW2 8219   3.248  11.591   3.546 -1.8622  0.9370 -0.0358
34086SOL     OW 8220   3.090   0.413   0.529  0.1394  0.0336  0.9275
34086SOL    HW1 8221   3.155   0.375   0.588 -0.2723 -0.1338  1.2782
34086SOL    HW2 8222   3.141   0.440   0.452  0.6220 -0.0956  1.1941
34087SOL     OW 8223   1.610   0.259  12.100  0.0338  0.2605 -0.2558
34087SOL    HW1 8224   1.556   0.221  12.031 -2.8715  1.0174  1.4691
34087SOL    HW2 8225   1.588   0.352  12.099  1.6730  0.6915  0.2540
34088SOL     OW 8226   5.510   8.705  12.166 -0.3380  0.2226  0.2830
34088SOL    HW1 8227   5.562   8.760  12.108  0.9449 -0.9160  0.2875
34088SOL    HW2 8228   5.460   8.648  12.107 -0.0726 -0.0118  0.2828
34089SOL     OW 8229   8.888   0.107   7.949  0.0747  0.1520 -0.4374
34089SOL    HW1 8230   8.926   0.158   7.878 -0.1847  1.0306  0.0458
34089SOL    HW2 8231   8.867   0.023   7.909  2.0249 -0.1910 -0.8570
34090SOL     OW 8232  12.245   9.092   2.418  0.0127  0.1194 -0.4419
34090SOL    HW1 8233  12.267   9.014   2.365  1.3377  0.8341 -1.0045
34090SOL    HW2 8234  12.158   9.073   2.453 -0.1989 -1.1145 -1.5236
34091SOL     OW 8235   2.565   2.247   4.076 -0.2669 -0.4117  0.0755
34091SOL    HW1 8236   2.478   2.286   4.072 -0.0595  0.2850  1.6035
34091SOL    HW2 8237   2.595   2.247   3.985 -1.7750 -0.4953 -0.4440
34092SOL     OW 8238   7.981   1.712   3.527 -0.0453 -0.5567 -0.3600
34092SOL    HW1 8239   8.068   1.729   3.562 -0.3405  1.1740 -0.3750
34092SOL    HW2 8240   7.984   1.620   3.500  1.7972 -0.5125 -0.4601
34093SOL     OW 8241   8.482   6.677   6.799 -0.0374 -0.5970  0.2211
34093SOL    HW1 8242   8.397   6.633   6.796 -1.3542  1.7962 -1.1083
34093SOL    HW2 8243   8.545   6.606   6.810 -2.1722 -2.4787  1.2060
34094SOL     OW 8244   3.582   3.750   6.294 -0.0337  0.3255 -0.4481
34094SOL    HW1 8245   3.584   3.668   6.244  0.6609  0.6186 -0.9332
34094SOL    HW2 8246   3.503   3.794   6.265 -0.1895  0.0111 -0.5015
34095SOL     OW 8247   5.007   8.028   5.033 -0.5434  0.2734  0.1045
34095SOL    HW1 8248   5.046   8.015   4.946  0.5397 -1.2386  0.7722
34095SOL    HW2 8249   4.926   8.076   5.016 -0.5519 -0.3304 -1.7906
34096SOL     OW 8250   7.183   8.895   8.952  0.8646 -0.4639 -0.3695
34096SOL    HW1 8251   7.189   8.932   8.864  0.0666 -0.9341 -0.6277
34096SOL    HW2 8252   7.196   8.801   8.940  0.6149 -0.5464 -0.0062
34097SOL     OW 8253   8.333   3.171   9.777 -0.4423 -0.5262  0.4348
34097SOL    HW1 8254   8.292   3.232   9.715  0.0941 -1.9581 -1.4279
34097SOL    HW2 8255   8.288   3.088   9.761  2.1137 -1.7957 -0.6396
34098SOL     OW 8256   6.101   8.248   1.638 -0.2926  0.9648 -0.4345
34098SOL    HW1 8257   6.074   8.159   1.616  0.8806 -0.3309  2.7310
34098SOL    HW2 8258   6.059   8.303   1.572 -0.7321 -1.9358 -2.7613
34099SOL     OW 8259   2.448   9.197   3.624  0.6523  0.1250 -0.2470
34099SOL    HW1 8260   2.368   9.145   3.635  0.7843  0.3061  2.1994
34099SOL    HW2 8261   2.486   9.166   3.542 -1.6795 -0.2806 -1.2439
34100SOL     OW 8262   1.330  12.424   2.003  0.1146 -0.2247  0.4091
34100SOL    HW1 8263   1.314  12.507   1.957  2.7950  1.2880  1.9704
34100SOL    HW2 8264   1.307  12.443   2.094 -1.1519 -1.8942  0.4822
34101SOL     OW 8265   6.850   2.657  11.564  0.2846  0.1946 -0.3849
34101SOL    HW1 8266   6.889   2.735  11.525  0.1319  0.1275 -0.6800
34101SOL    HW2 8267   6.861   2.668  11.658  0.8813  0.2456 -0.4609
34102SOL     OW 8268   7.656   0.177   9.086 -0.6699  0.0991  0.2701
34102SOL    HW1 8269   7.729   0.115   9.086 -1.3322 -0.7212  1.4253
34102SOL    HW2 8270   7.583   0.127   9.123 -1.4278  1.3502  0.5058
34103SOL     OW 8271   3.673   6.998   4.768 -0.2408  0.3017 -0.1650
34103SOL    HW1 8272   3.610   6.985   4.839  0.9698  1.1362  1.1162
34103SOL    HW2 8273   3.622   7.037   4.697 -2.1069 -3.0975 -0.9186
34104SOL     OW 8274   1.066   5.142   8.445  0.3910  0.1568  0.2919
34104SOL    HW1 8275   1.075   5.121   8.538 -0.7659 -3.8783 -0.2979
34104SOL    HW2 8276   0.972   5.157   8.432  0.5841  1.0325 -0.2124
34105SOL     OW 8277  10.064   2.440  10.684  0.3258  0.2015  0.5169
34105SOL    HW1 8278  10.054   2.419  10.777 -0.0494  1.0694  0.6882
34105SOL    HW2 8279  10.087   2.533  10.684  0.6461  0.1249 -0.2525
34106SOL     OW 8280   8.408   9.784  10.308  0.2164  0.3779  0.5487
34106SOL    HW1 8281   8.452   9.773  10.392  2.0908  0.2686 -0.3838
34106SOL    HW2 8282   8.431   9.873  10.280 -0.3122  0.3853  0.1147
34107SOL     OW 8283   9.820   2.747   7.267  0.2686  0.5512 -0.3218
34107SOL    HW1 8284   9.837   2.653   7.274 -3.5325 -0.3080 -0.0145
34107SOL    HW2 8285   9.902   2.785   7.236  1.7949 -2.9296 -0.9795
34108SOL     OW 8286   3.862   0.091   6.193 -0.4725  0.0738 -0.5715
34108SOL    HW1 8287   3.949   0.072   6.160 -1.0703  1.1254 -2.9965
34108SOL    HW2 8288   3.860   0.054   6.281  1.4610 -2.5082 -1.5048
34109SOL     OW 8289   4.106   5.006   4.044  0.1359 -0.2129  0.3292
34109SOL    HW1 8290   4.015   5.029   4.065  0.2481  0.1125  0.4684
34109SOL    HW2 8291   4.157   5.080   4.077  0.3377  0.2226 -0.9129
34110SOL     OW 8292   3.283   3.704  11.013 -0.7975 -0.2337  0.0167
34110SOL    HW1 8293   3.209   3.694  10.953  0.6851 -1.0415 -1.7756
34110SOL    HW2 8294   3.272   3.791  11.050 -0.8551  1.1023 -2.8369
34111SOL     OW 8295   8.248   9.968  10.557 -0.2171  0.0587  0.3413
34111SOL    HW1 8296   8.244  10.054  10.517 -1.3899  0.5091  1.3444
34111SOL    HW2 8297   8.341   9.949  10.565  0.0518  1.1292 -0.0961
34112SOL     OW 8298   7.629   4.205   7.144  0.0656  0.0156 -0.3754
34112SOL    HW1 8299   7.628   4.265   7.219 -0.4730  1.2836 -1.3732
34112SOL    HW2 8300   7.537   4.186   7.127  0.1411  0.3517 -1.1910
34113SOL     OW 8301   4.963   8.062   2.029 -0.2654 -0.0275  0.5626
34113SOL    HW1 8302   4.931   8.119   1.959 -0.7492 -1.4768 -0.4476
34113SOL    HW2 8303   5.056   8.083   2.037  0.5544 -1.7488 -2.5561
34114SOL     OW 8304   2.024   2.843   5.531 -0.0367  0.1123 -0.0014
34114SOL    HW1 8305   2.108   2.866   5.492  0.7225 -0.5466  1.1737
34114SOL    HW2 8306   2.001   2.759   5.491  1.9107 -1.8064  2.4765
34115SOL     OW 8307   3.721  11.807   9.283 -0.6903 -0.8943 -0.9334
34115SOL    HW1 8308   3.781  11.856   9.227 -1.7804  1.1276 -0.4354
34115SOL    HW2 8309   3.636  11.817   9.240 -1.0405 -1.8296 -0.4655
34116SOL     OW 8310   6.683   9.884   3.087  0.4200  0.3405  0.2854
34116SOL    HW1 8311   6.624   9.810   3.100 -1.3333  1.6727  0.3062
34116SOL    HW2 8312   6.645   9.954   3.141  0.7476  1.9190 -1.4537
34117SOL     OW 8313   3.793   5.020   9.608 -0.0868 -0.0990  0.3899
34117SOL    HW1 8314   3.795   5.011   9.704  1.4348  1.0123  0.4967
34117SOL    HW2 8315   3.707   4.985   9.583 -1.5581  1.7162  2.4073
34118SOL     OW 8316   8.145   2.818   5.753  0.4895  0.2186 -0.0088
34118SOL    HW1 8317   8.159   2.842   5.661 -0.4012 -2.0282 -0.7869
34118SOL    HW2 8318   8.090   2.740   5.749  2.4718 -1.4351  2.3546
34119SOL     OW 8319   0.731   2.655   4.259  1.0003  0.2879  0.3326
34119SOL    HW1 8320   0.825   2.638   4.267  0.8547 -0.4332  0.5012
34119SOL    HW2 8321   0.718   2.738   4.306  1.7548  1.0673 -0.7597
34120SOL     OW 8322   2.848   3.384   3.686 -0.7215 -0.5652 -0.0007
34120SOL    HW1 8323   2.763   3.361   3.723 -0.8213  1.1387  0.9627
34120SOL    HW2 8324   2.828   3.450   3.619 -0.2114 -0.5127 -0.1097
34121SOL     OW 8325   0.375   7.334   9.136  0.6177 -0.4440  0.0331
34121SOL    HW1 8326   0.417   7.248   9.138  0.9650 -0.2625  0.6532
34121SOL    HW2 8327   0.446   7.394   9.113  0.9378 -0.0079  2.0261
34122SOL     OW 8328   3.124   5.123  10.550 -0.0885 -0.2548  0.2938
34122SOL    HW1 8329   3.119   5.173  10.468 -0.6344  0.2143  0.6037
34122SOL    HW2 8330   3.204   5.154  10.592 -0.6951  0.7891  0.7362
34123SOL     OW 8331  10.771   1.722   1.860 -0.1199 -0.0785  0.2676
34123SOL    HW1 8332  10.708   1.708   1.931  1.1198  0.0866  1.4200
34123SOL    HW2 8333  10.826   1.644   1.860 -1.5085 -1.1729 -2.0638
34124SOL     OW 8334   5.730   2.095   6.007  0.6892  0.2122  0.0529
34124SOL    HW1 8335   5.731   2.012   6.056 -0.8451 -0.3172 -0.7499
34124SOL    HW2 8336   5.806   2.142   6.040  1.0665 -1.1164  1.2247
34125SOL     OW 8337   0.165   2.169   6.603  0.6901 -0.1753  0.3655
34125SOL    HW1 8338   0.165   2.264   6.586  1.6999 -0.2620 -0.2092
34125SOL    HW2 8339   0.215   2.132   6.530 -0.3184 -1.2321  0.1932
34126SOL     OW 8340  10.181   3.430   2.420 -0.3119 -0.1194 -0.2262
34126SOL    HW1 8341  10.229   3.501   2.379  0.2524  0.4448  1.3386
34126SOL    HW2 8342  10.089   3.457   2.415 -0.3760 -0.5801 -2.0402
34127SOL     OW 8343  12.105   5.981   3.136 -0.8488  0.2406  0.3512
34127SOL    HW1 8344  12.166   5.911   3.158 -1.2865 -0.5184 -0.7264
34127SOL    HW2 8345  12.019   5.938   3.135 -1.0950  0.7321 -0.5722
34128SOL     OW 8346   6.982   3.989  10.015 -0.3727 -0.6135 -0.3297
34128SOL    HW1 8347   6.991   4.046   9.938  0.6720  1.4692  1.2208
34128SOL    HW2 8348   6.890   3.965  10.016 -1.0892  1.7915 -0.6337
34129SOL     OW 8349   2.484  10.938   8.806 -0.0101  0.4368  0.6943
34129SOL    HW1 8350   2.436  10.876   8.861  0.8852  1.6091  2.8923
34129SOL    HW2 8351   2.575  10.907   8.809  0.6731  2.4711  2.8309
34130SOL     OW 8352   1.713  10.649   0.114 -0.2266  0.0380  0.2596
34130SOL    HW1 8353   1.700  10.741   0.137 -1.2170 -0.4877  1.9468
34130SOL    HW2 8354   1.756  10.610   0.190  2.2862 -0.4728 -1.2931
34131SOL     OW 8355   6.436   7.541   5.541  0.1178  0.1404  0.1308
34131SOL    HW1 8356   6.531   7.553   5.551  0.0837 -0.0488  0.7345
34131SOL    HW2 8357   6.426   7.452   5.510  0.2209  0.7108 -1.6399
34132SOL     OW 8358   8.486   8.493   4.580  0.0088  0.5012  0.0255
34132SOL    HW1 8359   8.435   8.480   4.500  0.0178 -0.8087  0.2079
34132SOL    HW2 8360   8.568   8.447   4.564  0.1665  0.5584  0.6378
34133SOL     OW 8361   7.837   3.907   8.173 -0.1769 -0.7626  0.0888
34133SOL    HW1 8362   7.781   3.984   8.177  0.8600 -0.0125  0.4844
34133SOL    HW2 8363   7.897   3.924   8.101 -2.2496 -2.8586 -2.3255
34134SOL     OW 8364   4.526   5.435  11.142 -0.1329  0.2848 -0.6128
34134SOL    HW1 8365   4.564   5.362  11.092 -1.2124  0.4119 -1.6433
34134SOL    HW2 8366   4.589   5.506  11.131  0.1447 -0.0068 -0.9411
34135SOL     OW 8367   0.152   3.130   3.779 -0.1424  0.4654 -0.3358
34135SOL    HW1 8368   0.157   3.226   3.773 -1.5245  0.4975 -1.5559
34135SOL    HW2 8369   0.074   3.114   3.833  0.6627  0.0130  0.7231
34136SOL     OW 8370   3.707   6.896   1.913 -0.1180 -0.4554 -0.5111
34136SOL    HW1 8371   3.719   6.885   1.819 -3.2057  1.7360 -1.3504
34136SOL    HW2 8372   3.682   6.988   1.923  0.5399 -0.5020  2.5328
34137SOL     OW 8373   7.826   3.080   0.358 -0.1618  0.2765  0.1395
34137SOL    HW1 8374   7.841   3.172   0.339 -2.6062  0.2896 -2.2622
34137SOL    HW2 8375   7.755   3.080   0.422  1.3675  0.0106  1.9331
34138SOL     OW 8376   5.508   8.173   6.337 -0.2915  0.3044  0.2295
34138SOL    HW1 8377   5.554   8.216   6.265  0.9711 -0.5360  0.4942
34138SOL    HW2 8378   5.497   8.241   6.403  0.5597  0.5425  0.1379
34139SOL     OW 8379  12.069   8.338   8.038 -0.5166 -0.3736 -0.2642
34139SOL    HW1 8380  11.987   8.290   8.054 -0.6360 -0.3933 -0.9001
34139SOL    HW2 8381  12.106   8.297   7.960  0.1704 -0.4448  0.0937
34140SOL     OW 8382  10.397   0.474   7.768 -0.2112  0.3135 -0.5593
34140SOL    HW1 8383  10.463   0.410   7.743  1.2977  1.3766  0.5560
34140SOL    HW2 8384  10.369   0.513   7.685 -0.2059 -0.8426 -1.1323
34141SOL     OW 8385   2.295   4.547   1.151  0.7073 -0.1341  0.3172
34141SOL    HW1 8386   2.386   4.522   1.162  0.7830  0.0628  0.1435
34141SOL    HW2 8387   2.246   4.481   1.200  0.8677 -0.9194 -0.5418
34142SOL     OW 8388   2.336   5.773  10.499 -0.0111 -0.3683 -0.8351
34142SOL    HW1 8389   2.307   5.790  10.589  0.3921  0.5546 -0.8668
34142SOL    HW2 8390   2.415   5.720  10.509  1.5275  1.8044 -0.4821
34143SOL     OW 8391  11.978   3.628   7.692  0.1606 -0.3807 -0.4452
34143SOL    HW1 8392  11.901   3.685   7.688  0.6074  0.3601  0.8228
34143SOL    HW2 8393  12.048   3.684   7.728  1.1639 -1.1658 -1.1143
34144SOL     OW 8394   0.130   3.873   2.708  0.2771  0.1569  0.0194
34144SOL    HW1 8395   0.044   3.883   2.749  0.6716  2.2788  0.4327
34144SOL    HW2 8396   0.190   3.860   2.781  0.8644  3.1312  0.1886
34145SOL     OW 8397   9.017   5.448   9.212 -0.0482  0.2185 -0.0670
34145SOL    HW1 8398   9.100   5.433   9.165 -1.8056  0.9978 -3.7478
34145SOL    HW2 8399   8.967   5.367   9.198 -0.6797  0.5206  0.4172
34146SOL     OW 8400   4.826   5.596  10.112 -0.3430 -0.0257 -0.2797
34146SOL    HW1 8401   4.762   5.528  10.134 -0.8652  0.7573  0.7408
34146SOL    HW2 8402   4.777   5.659  10.058  0.1859 -0.5325 -1.3764
34147SOL     OW 8403   6.714   4.880   1.850  0.0584  0.0658 -0.3008
34147SOL    HW1 8404   6.756   4.924   1.924 -0.2669  0.7221 -0.5033
34147SOL    HW2 8405   6.626   4.859   1.880 -0.0356  0.2298 -0.4552
34148SOL     OW 8406  10.506   4.968   7.204  0.3052 -0.1242 -0.0137
34148SOL    HW1 8407  10.453   4.968   7.284 -0.9361  0.2194 -0.8256
34148SOL    HW2 8408  10.566   5.042   7.215  0.0559  0.0003  0.5378
34149SOL     OW 8409  10.385  10.247   2.621  0.3007  0.4348 -0.3898
34149SOL    HW1 8410  10.361  10.172   2.676  0.6659  0.5529 -0.0623
34149SOL    HW2 8411  10.453  10.213   2.562  1.2033  0.7530  0.4395
34150SOL     OW 8412   0.696  11.166  11.269  0.3763 -0.3429  0.4961
34150SOL    HW1 8413   0.742  11.240  11.309  1.1690  0.1512 -1.2288
34150SOL    HW2 8414   0.750  11.090  11.292  1.6018  0.1134 -0.6973
34151SOL     OW 8415   3.470   9.687   5.763  0.2159  0.3036 -0.3003
34151SOL    HW1 8416   3.467   9.762   5.704 -0.7229 -0.3090 -1.0584
34151SOL    HW2 8417   3.559   9.689   5.798  1.1659  0.1238 -2.5044
34152SOL     OW 8418   5.233   7.541   1.137  0.2191  0.0963  0.3183
34152SOL    HW1 8419   5.265   7.463   1.182  0.0264 -0.5477 -0.6309
34152SOL    HW2 8420   5.247   7.612   1.200 -1.3486 -0.9654  1.9721
34153SOL     OW 8421   2.148   8.727   3.046 -0.0516  0.0684  0.1704
34153SOL    HW1 8422   2.155   8.731   2.950  0.4279  1.0349  0.2386
34153SOL    HW2 8423   2.112   8.812   3.071 -0.7294 -0.3883  0.8155
34154SOL     OW 8424   8.053  10.350   2.387  0.3218 -0.0605 -0.0459
34154SOL    HW1 8425   7.985  10.376   2.450 -0.2899 -0.5612 -0.4797
34154SOL    HW2 8426   8.030  10.260   2.364  0.4414  0.1683 -1.1096
34155SOL     OW 8427   1.521   0.315   6.002  0.1927 -0.6855  0.0381
34155SOL    HW1 8428   1.485   0.282   5.919  1.4254  0.5741 -1.0520
34155SOL    HW2 8429   1.611   0.282   6.004  0.6308  0.4522  0.1465
34156SOL     OW 8430   4.203  11.949  12.310 -0.4265  0.2507 -0.3251
34156SOL    HW1 8431   4.129  11.998  12.345 -0.4493  0.3852 -0.5577
34156SOL    HW2 8432   4.197  11.961  12.215  1.7130  2.9342 -0.2220
34157SOL     OW 8433   5.291   2.243   6.942  0.2080 -0.3442  0.5773
34157SOL    HW1 8434   5.222   2.232   7.008 -0.3906 -1.5609 -0.2120
34157SOL    HW2 8435   5.287   2.336   6.919 -0.4843 -0.1861  1.2745
34158SOL     OW 8436   3.379   7.710   2.778  0.0817 -0.1370 -0.4284
34158SOL    HW1 8437   3.407   7.675   2.863 -0.7418 -0.9256 -0.4786
34158SOL    HW2 8438   3.343   7.796   2.799  0.2000 -0.1807 -0.0252
34159SOL     OW 8439   2.998   0.198  12.069  0.8413  0.0149 -0.2392
34159SOL    HW1 8440   3.009   0.172  12.161 -0.8880 -1.0780 -0.3081
34159SOL    HW2 8441   3.058   0.141  12.021  1.7370  0.5724  0.1966
34160SOL     OW 8442   1.321  10.322   5.226 -0.6498  0.1318  0.0466
34160SOL    HW1 8443   1.246  10.289   5.177 -0.2891  0.4953 -0.7799
34160SOL    HW2 8444   1.351  10.398   5.176  0.6090 -0.3432  0.0210
34161SOL     OW 8445   3.792   4.045   0.047  0.5276  0.1659 -0.3968
34161SOL    HW1 8446   3.755   4.093   0.121  0.4470  1.0635 -1.0086
34161SOL    HW2 8447   3.718   4.002   0.006  0.2198  1.4670 -1.2577
34162SOL     OW 8448   3.477  11.430   5.082  0.0750  0.2702  0.2059
34162SOL    HW1 8449   3.435  11.478   5.153 -1.6731  0.0807 -0.6589
34162SOL    HW2 8450   3.414  11.363   5.057  1.3499 -0.7439 -0.4397
34163SOL     OW 8451   4.926   6.028   2.313  0.5270 -0.0818 -0.7765
34163SOL    HW1 8452   4.880   6.047   2.231  1.0411 -0.4161 -1.1495
34163SOL    HW2 8453   4.906   5.936   2.331  2.8683 -0.9648 -2.1815
34164SOL     OW 8454   8.954  11.321   0.088  0.9787  0.5957  0.4095
34164SOL    HW1 8455   8.867  11.299   0.120  1.1127  1.9072  1.8378
34164SOL    HW2 8456   8.975  11.253   0.025 -0.5729 -0.4443  0.9592
34165SOL     OW 8457   5.067  11.657  11.557  0.5261  0.4424  0.5119
34165SOL    HW1 8458   5.155  11.695  11.547  0.6217 -0.0729 -0.7958
34165SOL    HW2 8459   5.082  11.563  11.564  0.0165  0.1713 -1.4326
34166SOL     OW 8460   9.199  11.769   4.738  0.4123 -0.5422  0.5328
34166SOL    HW1 8461   9.145  11.848   4.732 -0.3054 -0.9786  1.0948
34166SOL    HW2 8462   9.274  11.795   4.791  0.5153 -0.0636  0.1621
34167SOL     OW 8463   9.642   6.732   1.341 -0.6335 -0.1025  0.4672
34167SOL    HW1 8464   9.607   6.684   1.416  1.2035 -1.1383  0.7135
34167SOL    HW2 8465   9.642   6.669   1.269  1.5774 -0.4617  0.7269
34168SOL     OW 8466   1.817   2.085  11.281 -0.8458  0.2172 -0.2370
34168SOL    HW1 8467   1.750   2.018  11.282  0.2606 -0.9325 -0.7228
34168SOL    HW2 8468   1.769   2.168  11.281 -2.2292 -0.5646  0.2102
34169SOL     OW 8469   7.893   5.151  10.105 -0.9424  0.5261 -0.0698
34169SOL    HW1 8470   7.819   5.199  10.067 -2.0064  0.4234  1.7705
34169SOL    HW2 8471   7.963   5.217  10.111 -0.0838  0.1593 -3.6646
34170SOL     OW 8472  10.168   1.617   1.718 -0.2819 -0.1255  0.0294
34170SOL    HW1 8473  10.122   1.681   1.663  2.2856  2.1180  0.2888
34170SOL    HW2 8474  10.216   1.562   1.657 -1.1459 -0.7247 -0.1248
34171SOL     OW 8475   3.106  11.861   5.117 -0.0396  0.3232  0.5988
34171SOL    HW1 8476   3.180  11.915   5.147  0.5538  0.3222 -0.7885
34171SOL    HW2 8477   3.029  11.906   5.152  0.5026  1.5039  0.3400
34172SOL     OW 8478   0.310   1.009   1.741  0.3092  0.1363  0.4635
34172SOL    HW1 8479   0.405   1.000   1.732  0.3045  1.4395 -1.5283
34172SOL    HW2 8480   0.297   1.031   1.833  2.0989  1.5649  0.4395
34173SOL     OW 8481   7.922   3.168   2.407  0.3624  0.3025 -0.0681
34173SOL    HW1 8482   7.913   3.111   2.330  1.4502  1.3325 -0.9928
34173SOL    HW2 8483   7.924   3.108   2.481 -0.1799 -0.7562 -0.8788
34174SOL     OW 8484   6.084   8.593  11.360 -0.2800  0.0020 -0.5030
34174SOL    HW1 8485   6.136   8.521  11.395 -3.1714 -2.2137 -0.3417
34174SOL    HW2 8486   6.094   8.664  11.423  1.9858 -0.5225 -0.2071
34175SOL     OW 8487   4.499   7.345   2.479 -0.0560  0.6777  0.3065
34175SOL    HW1 8488   4.475   7.291   2.404 -0.8147 -0.7684  1.5318
34175SOL    HW2 8489   4.572   7.299   2.520  1.8184  2.5759 -0.6885
34176SOL     OW 8490   2.426  12.096  11.654  0.1394 -0.1632  0.3459
34176SOL    HW1 8491   2.478  12.016  11.648 -0.9624 -0.8629 -0.5494
34176SOL    HW2 8492   2.460  12.152  11.584 -0.1163 -0.5051 -0.0580
34177SOL     OW 8493  11.006   0.643   4.079  0.9294  0.1060  0.2767
34177SOL    HW1 8494  11.041   0.554   4.076 -0.1950 -0.3590 -1.6190
34177SOL    HW2 8495  10.996   0.667   3.986 -1.0201  1.2622  0.7337
34178SOL     OW 8496   1.135  10.003   8.368  0.1689  0.2594  0.3220
34178SOL    HW1 8497   1.146   9.993   8.273  0.0686 -0.4812  0.3813
34178SOL    HW2 8498   1.065  10.068   8.377 -0.4546 -0.3350 -0.1291
34179SOL     OW 8499   7.696   6.513   7.475 -0.3498 -0.1492 -0.0077
34179SOL    HW1 8500   7.736   6.594   7.445 -0.3001  0.0533  0.5964
34179SOL    HW2 8501   7.634   6.539   7.543 -0.3455 -0.6129  0.1830
34180SOL     OW 8502   2.484   2.935  12.091  0.2487  0.2212 -0.1192
34180SOL    HW1 8503   2.404   2.985  12.109 -0.8407 -1.5724  0.2375
34180SOL    HW2 8504   2.536   2.993  12.035 -1.0339  1.6500  0.0964
34181SOL     OW 8505  10.219   6.577   7.694  0.1039  0.1198 -0.0986
34181SOL    HW1 8506  10.130   6.597   7.667 -0.4798  0.4702  1.9459
34181SOL    HW2 8507  10.273   6.645   7.653 -0.6301  0.2527 -0.8660
34182SOL     OW 8508   7.127   1.375   2.939 -0.8360 -0.0482  0.5137
34182SOL    HW1 8509   7.036   1.345   2.936 -1.0834  0.7471 -0.1110
34182SOL    HW2 8510   7.122   1.470   2.950 -0.0643 -0.1255  1.7252
34183SOL     OW 8511   5.954  12.155   8.441  0.4156 -0.1265 -0.1525
34183SOL    HW1 8512   6.031  12.203   8.411  0.7854 -0.0271  0.9409
34183SOL    HW2 8513   5.887  12.175   8.376  0.8601  1.0389 -0.2696
34184SOL     OW 8514   4.261   8.130   6.533  0.3494  0.1223 -0.1431
34184SOL    HW1 8515   4.249   8.211   6.483  2.5478 -0.3611 -1.6101
34184SOL    HW2 8516   4.172   8.098   6.548 -0.7100  3.4153  1.6688
34185SOL     OW 8517   3.215   5.927   9.745 -0.3020 -0.0773 -0.1027
34185SOL    HW1 8518   3.155   5.976   9.688 -0.4764 -0.8675 -0.6297
34185SOL    HW2 8519   3.161   5.901   9.819 -1.0958 -2.1030 -1.2968
34186SOL     OW 8520   6.086   7.243  11.595  0.1900 -0.0114  0.1799
34186SOL    HW1 8521   6.077   7.260  11.689 -1.2226  3.3015 -0.4007
34186SOL    HW2 8522   6.167   7.288  11.570 -0.1925  0.3731 -0.4050
34187SOL     OW 8523  12.419   6.710   8.250 -0.8071  0.4067  0.6361
34187SOL    HW1 8524  12.470   6.760   8.314 -0.8087  1.6607 -0.3145
34187SOL    HW2 8525  12.401   6.627   8.294  1.1425  0.3351  1.4018
34188SOL     OW 8526   2.860  10.119   2.279  0.5614  0.6858  0.2350
34188SOL    HW1 8527   2.812  10.075   2.349  0.9941 -0.8056 -0.3572
34188SOL    HW2 8528   2.826  10.208   2.278 -1.5141 -0.0519  0.4539
34189SOL     OW 8529   1.979  11.325   4.328 -0.0873  0.0091 -0.3828
34189SOL    HW1 8530   1.912  11.394   4.325 -0.5703 -0.4733 -0.9210
34189SOL    HW2 8531   2.013  11.321   4.239  0.8679  0.4377 -0.0455
34190SOL     OW 8532   2.928   0.352   6.627  0.3612  0.5121  0.1409
34190SOL    HW1 8533   2.907   0.292   6.699 -0.8738  0.3926 -0.2961
34190SOL    HW2 8534   2.995   0.307   6.577  0.4837  0.1411  0.6310
34191SOL     OW 8535   3.453   0.306   4.290  0.0503  0.3023  0.0963
34191SOL    HW1 8536   3.520   0.369   4.264  0.4403 -0.6642 -1.3885
34191SOL    HW2 8537   3.397   0.297   4.212  0.8517 -2.2162 -0.2882
34192SOL     OW 8538   5.381   3.000   4.041  0.3364  0.3716  0.0213
34192SOL    HW1 8539   5.356   3.092   4.045 -2.3880 -0.1927 -1.4259
34192SOL    HW2 8540   5.455   2.998   3.980 -0.7177  1.4554 -1.3569
34193SOL     OW 8541   3.543  12.137   3.238 -0.5178  0.2067  0.3011
34193SOL    HW1 8542   3.634  12.122   3.212 -0.1590 -1.3043  2.2318
34193SOL    HW2 8543   3.493  12.072   3.188 -0.1721 -0.8252  1.2592
34194SOL     OW 8544  11.392   3.860   1.124 -0.3774 -0.2331  0.5311
34194SOL    HW1 8545  11.371   3.770   1.101 -1.0447  0.1125 -0.2572
34194SOL    HW2 8546  11.357   3.913   1.052 -0.6296  0.7129  1.3170
34195SOL     OW 8547  11.972   4.067   3.538  0.3597  0.0887 -0.6249
34195SOL    HW1 8548  12.037   4.065   3.608  0.5313 -0.0214 -0.7874
34195SOL    HW2 8549  12.011   4.122   3.470  0.8273 -1.0017 -1.2560
34196SOL     OW 8550   2.453   4.520   0.122  0.1403 -0.0719 -0.0107
34196SOL    HW1 8551   2.495   4.551   0.202  1.4983 -0.7291 -0.4309
34196SOL    HW2 8552   2.513   4.453   0.088  1.3640  2.3949 -3.3189
34197SOL     OW 8553   6.706   7.567   9.520  0.2322 -0.3680  0.7001
34197SOL    HW1 8554   6.700   7.508   9.446  0.4294 -0.8999  1.1049
34197SOL    HW2 8555   6.767   7.525   9.580 -1.2937 -0.8401  1.9794
34198SOL     OW 8556   8.374   1.492   7.290 -0.2184  0.0184  0.1768
34198SOL    HW1 8557   8.444   1.497   7.225 -0.8316  0.6530 -0.4521
34198SOL    HW2 8558   8.364   1.582   7.322 -0.2107 -0.2118  0.8568
34199SOL     OW 8559   9.957   8.028   8.630 -0.8180 -0.1626 -0.1649
34199SOL    HW1 8560   9.909   7.989   8.703  1.6903 -2.8481  0.2112
34199SOL    HW2 8561   9.998   8.107   8.667 -2.9961  0.9167  0.0734
34200SOL     OW 8562   7.504   5.485   7.075 -0.0756  0.1734 -0.5078
34200SOL    HW1 8563   7.502   5.421   7.146 -0.1939  0.8209  0.0695
34200SOL    HW2 8564   7.428   5.540   7.090 -0.5184 -0.1282 -1.5546
34201SOL     OW 8565   4.227   9.896  11.614  0.1047 -0.5174 -0.3611
34201SOL    HW1 8566   4.262   9.983  11.592 -1.0287  0.1038  0.1803
34201SOL    HW2 8567   4.300   9.836  11.599  1.6958  0.8147  1.5729
34202SOL     OW 8568   1.932   3.520   6.907  0.5966 -0.5728  0.3176
34202SOL    HW1 8569   1.878   3.443   6.888  1.5824 -0.9330 -1.1768
34202SOL    HW2 8570   1.955   3.510   7.000 -0.1228 -1.5311  0.4120
34203SOL     OW 8571  10.972   0.158  11.897 -0.3169  0.7383  0.0789
34203SOL    HW1 8572  10.951   0.082  11.844 -0.9543  0.2120  1.0520
34203SOL    HW2 8573  11.064   0.147  11.921 -0.3480  0.3882  0.0337
34204SOL     OW 8574   8.036  10.684   1.953  0.0596 -0.6518 -0.0994
34204SOL    HW1 8575   8.052  10.613   1.890 -0.1612 -1.4356  0.7027
34204SOL    HW2 8576   8.036  10.641   2.038 -0.9306  0.1714  0.3441
34205SOL     OW 8577   9.747   2.984   7.424  0.3046  0.0044 -0.1643
34205SOL    HW1 8578   9.795   2.957   7.502  0.8001  0.5873 -0.2570
34205SOL    HW2 8579   9.770   2.919   7.357 -1.9947 -1.9233  0.7770
34206SOL     OW 8580   7.868  10.366   4.351 -0.7247  0.3010 -0.0656
34206SOL    HW1 8581   7.908  10.299   4.296 -4.2851 -1.9392 -0.2996
34206SOL    HW2 8582   7.877  10.332   4.440  0.1846  1.1268  0.1659
34207SOL     OW 8583   3.640   7.868  10.978 -0.5130  0.3895  0.3229
34207SOL    HW1 8584   3.579   7.832  11.043 -1.4694  0.8672 -0.2720
34207SOL    HW2 8585   3.583   7.902  10.909  0.3783  1.8772  0.2685
34208SOL     OW 8586   5.271   0.724   8.601 -0.0443 -0.2048 -0.2721
34208SOL    HW1 8587   5.241   0.749   8.689 -0.4834  0.8935 -0.7144
34208SOL    HW2 8588   5.288   0.630   8.607 -2.6530 -0.7169  0.3028
34209SOL     OW 8589  10.962   8.960  11.535  0.3810  0.4197  0.3192
34209SOL    HW1 8590  10.909   8.940  11.612  0.1392  0.6053  0.1999
34209SOL    HW2 8591  10.899   8.982  11.467  0.5547 -0.5091 -0.1576
34210SOL     OW 8592   0.233   7.047   2.231 -0.3316 -0.7135  0.2652
34210SOL    HW1 8593   0.276   7.121   2.188  0.9194 -1.8067 -0.4569
34210SOL    HW2 8594   0.165   7.086   2.285  0.7187  1.0119  0.4029
34211SOL     OW 8595   4.215   6.429   3.681  0.7005 -0.4735  0.2257
34211SOL    HW1 8596   4.187   6.520   3.673 -2.1019 -1.3586 -1.6174
34211SOL    HW2 8597   4.184   6.387   3.601  1.1057 -3.2316  1.4002
34212SOL     OW 8598  10.523   0.502  12.136 -0.3141  0.1843  0.1883
34212SOL    HW1 8599  10.548   0.473  12.048  0.9440  0.0127  0.5840
34212SOL    HW2 8600  10.540   0.426  12.192  0.5382  0.8397  0.8388
34213SOL     OW 8601  11.791   7.522   5.466 -0.4594 -0.3741 -0.0906
34213SOL    HW1 8602  11.716   7.464   5.482 -1.1004  0.0213 -1.4996
34213SOL    HW2 8603  11.769   7.567   5.384  0.8273  0.5651  0.0563
34214SOL     OW 8604   7.937   7.210  12.186  0.2422 -0.5095  0.8893
34214SOL    HW1 8605   7.970   7.133  12.234 -2.9364 -1.9458  1.0307
34214SOL    HW2 8606   7.917   7.274  12.255  2.0209  0.1674  0.8390
34215SOL     OW 8607  11.866   3.587   8.999  0.0311  0.0547 -0.2235
34215SOL    HW1 8608  11.876   3.670   8.953 -0.6552  0.6640  0.6836
34215SOL    HW2 8609  11.887   3.520   8.933 -0.9579  0.8805 -1.4168
34216SOL     OW 8610   3.892   9.034   0.846 -0.7742  0.4339  0.4483
34216SOL    HW1 8611   3.871   9.005   0.935 -0.1895  0.7710  0.7034
34216SOL    HW2 8612   3.977   8.994   0.827 -0.9632  0.2482 -0.0138
34217SOL     OW 8613   1.988   9.887   9.609 -0.3626 -0.4105 -0.1287
34217SOL    HW1 8614   1.956   9.827   9.542 -0.5891  1.0400 -1.3768
34217SOL    HW2 8615   1.959   9.973   9.580  0.1409  0.3438  1.4871
34218SOL     OW 8616   5.440   4.358   0.851  0.1793 -0.4039 -0.3136
34218SOL    HW1 8617   5.489   4.291   0.898 -0.0490 -0.7342 -0.5401
34218SOL    HW2 8618   5.349   4.327   0.852 -0.0607  0.2763  0.2394
34219SOL     OW 8619  12.136   9.670   9.296 -0.2896 -0.1465  0.0758
34219SOL    HW1 8620  12.197   9.734   9.260  0.7748  0.2355  2.3955
34219SOL    HW2 8621  12.178   9.585   9.279 -0.2855 -0.0389 -0.4480
34220SOL     OW 8622   2.525   8.004   1.181  0.1541  0.2114 -0.6671
34220SOL    HW1 8623   2.435   8.035   1.192  0.6601  0.9013  2.1963
34220SOL    HW2 8624   2.517   7.927   1.124 -2.2014  0.3895 -0.6585
34221SOL     OW 8625   2.194  11.036   9.645 -0.0498 -0.0277  0.5587
34221SOL    HW1 8626   2.163  11.088   9.719 -1.1489  0.5339 -0.2688
34221SOL    HW2 8627   2.129  11.051   9.576  0.9628 -0.5133 -0.5314
34222SOL     OW 8628   3.398   5.986   2.346  0.0766  0.3818  0.3436
34222SOL    HW1 8629   3.470   6.008   2.286  1.7391 -1.8402  1.3833
34222SOL    HW2 8630   3.433   6.006   2.432 -0.4849 -0.8673  0.8827
34223SOL     OW 8631  10.795  11.858   0.771  0.1050  0.0752  0.2418
34223SOL    HW1 8632  10.789  11.844   0.865  1.2035  0.1016  0.3224
34223SOL    HW2 8633  10.886  11.882   0.755  0.6558 -2.5056 -1.1426
34224SOL     OW 8634  11.842   7.018  11.708  0.7072 -0.8059  0.4905
34224SOL    HW1 8635  11.901   6.993  11.637  0.8720  0.2473  0.2490
34224SOL    HW2 8636  11.759   7.038  11.664  1.2984  1.6250  0.3253
34225SOL     OW 8637   5.068   6.407  12.258 -0.1535 -0.1052 -0.4128
34225SOL    HW1 8638   5.089   6.482  12.202 -1.8603  1.0747  0.4396
34225SOL    HW2 8639   4.979   6.424  12.289  0.4596 -1.0207  2.1295
34226SOL     OW 8640   6.129   4.498   5.114 -0.3262 -0.0665 -0.3437
34226SOL    HW1 8641   6.097   4.469   5.199 -3.3415  0.2249 -1.2623
34226SOL    HW2 8642   6.200   4.436   5.093  1.0945  0.3628  2.6485
34227SOL     OW 8643   6.312   0.360   9.833  0.0610 -0.2954 -0.3621
34227SOL    HW1 8644   6.359   0.326   9.909  0.9893 -0.2274 -0.8844
34227SOL    HW2 8645   6.377   0.359   9.762 -0.3166  1.1065 -0.7687
34228SOL     OW 8646   3.479   6.972   6.502  0.0685 -0.0520  0.2722
34228SOL    HW1 8647   3.449   6.899   6.448 -1.9126  0.4680  0.6153
34228SOL    HW2 8648   3.539   6.932   6.565  1.6411 -0.8284 -1.5937
34229SOL     OW 8649   0.837  10.418   7.956 -0.3908 -0.6642 -0.5409
34229SOL    HW1 8650   0.859  10.398   8.047 -0.0829  1.2300 -0.1654
34229SOL    HW2 8651   0.742  10.410   7.952 -0.4012 -0.8005 -0.0716
34230SOL     OW 8652   4.481   9.402   7.370 -0.3486  0.4847 -0.0562
34230SOL    HW1 8653   4.433   9.467   7.421  0.2164  0.2635  0.7852
34230SOL    HW2 8654   4.413   9.345   7.333 -0.8081  1.1404 -0.2440
34231SOL     OW 8655  10.674   8.487  11.661  0.1471 -0.6324  0.2463
34231SOL    HW1 8656  10.756   8.523  11.629  0.3531 -0.7398  0.6371
34231SOL    HW2 8657  10.605   8.540  11.620  0.4525  1.2527  2.0080
34232SOL     OW 8658   3.053   5.207   0.134 -0.5348 -0.0899  0.1304
34232SOL    HW1 8659   3.094   5.279   0.182 -0.4119 -0.8513  1.1979
34232SOL    HW2 8660   3.035   5.141   0.200 -2.4700 -0.2504 -0.4815
34233SOL     OW 8661   1.828   0.631  11.889 -0.5128 -0.3411  0.1771
34233SOL    HW1 8662   1.833   0.546  11.846 -1.1503  0.5561 -1.7735
34233SOL    HW2 8663   1.915   0.642  11.930  0.4776 -0.8545 -1.6907
34234SOL     OW 8664   9.010   5.848  12.315 -0.0095 -0.0005 -0.2958
34234SOL    HW1 8665   9.003   5.880  12.405  1.4354 -1.7776  0.5051
34234SOL    HW2 8666   9.095   5.880  12.285  0.6672 -1.5049 -0.0881
34235SOL     OW 8667  11.905   2.611  11.473 -0.2821 -0.0909 -0.2439
34235SOL    HW1 8668  11.940   2.543  11.531 -3.7191 -0.4420  1.6710
34235SOL    HW2 8669  11.884   2.683  11.532 -2.1649  0.2954 -1.3251
34236SOL     OW 8670   8.010   1.479   7.647 -0.3188  0.0451 -0.0770
34236SOL    HW1 8671   8.101   1.464   7.675 -0.1402  0.2168 -0.5615
34236SOL    HW2 8672   7.960   1.413   7.694  0.2173 -0.8744 -0.7742
34237SOL     OW 8673   0.059  11.116  12.456 -0.0845 -0.9277 -0.3332
34237SOL    HW1 8674   0.097  11.057  12.522 -1.1650  0.0425  1.2134
34237SOL    HW2 8675   0.031  11.057  12.386 -0.1450 -2.1605  0.6778
34238SOL     OW 8676  11.351   1.022   2.920  0.3425 -0.5320 -0.3199
34238SOL    HW1 8677  11.260   1.050   2.915  0.8723  1.5573  0.5314
34238SOL    HW2 8678  11.367   0.976   2.838  0.0628  4.0900 -3.3148
34239SOL     OW 8679  10.998   9.659  12.277  0.2501  0.0519  0.3980
34239SOL    HW1 8680  10.989   9.730  12.341 -1.5140 -1.1390  1.5378
34239SOL    HW2 8681  11.065   9.602  12.313 -0.8334 -0.6880  1.3278
34240SOL     OW 8682   6.729   1.314   1.414 -0.0687  0.1377 -0.3662
34240SOL    HW1 8683   6.749   1.314   1.508 -0.5893 -1.1067 -0.2375
34240SOL    HW2 8684   6.753   1.227   1.384 -0.3558  0.3637 -1.2983
34241SOL     OW 8685   9.740   9.612   4.939 -0.1168 -0.3804  1.0385
34241SOL    HW1 8686   9.782   9.589   5.022 -0.8990 -0.6131  1.3770
34241SOL    HW2 8687   9.653   9.574   4.945 -0.2022 -0.3461  0.1279
34242SOL     OW 8688  12.075   4.005   2.888 -0.1033 -0.9019  0.6216
34242SOL    HW1 8689  12.053   3.941   2.956 -1.5192  0.7126  1.7729
34242SOL    HW2 8690  12.049   4.089   2.925  0.8953  0.2710 -1.1805
34243SOL     OW 8691   8.682   4.655   2.639 -0.5828  0.3871  0.3525
34243SOL    HW1 8692   8.664   4.663   2.733  0.3838  0.9492  0.5004
34243SOL    HW2 8693   8.702   4.744   2.611  1.1247 -0.0677  0.0360
34244SOL     OW 8694   6.965  10.493   0.928 -0.1232  0.0630 -0.5560
34244SOL    HW1 8695   6.983  10.574   0.976  1.7616  0.0122 -1.1185
34244SOL    HW2 8696   7.049  10.469   0.889 -0.9936 -1.3687 -1.6264
34245SOL     OW 8697   2.275   0.460   9.843  0.7743 -0.2298  0.0434
34245SOL    HW1 8698   2.306   0.543   9.806  0.7119  0.3603  1.2766
34245SOL    HW2 8699   2.190   0.445   9.802  0.7155  0.3922 -0.0667
34246SOL     OW 8700   9.303   6.447   5.078 -0.1263  0.0457 -0.4294
34246SOL    HW1 8701   9.313   6.358   5.046 -1.1095  0.2517 -1.3934
34246SOL    HW2 8702   9.232   6.443   5.141  0.7998 -0.0904  0.6300
34247SOL     OW 8703   8.910   8.379  11.488 -0.2389 -0.0997 -0.5386
34247SOL    HW1 8704   8.886   8.469  11.467 -1.2092  0.0707  1.0491
34247SOL    HW2 8705   8.958   8.385  11.571 -0.3387 -1.0273 -0.3946
34248SOL     OW 8706   1.966   7.567   6.320 -0.0192  0.3881 -0.4090
34248SOL    HW1 8707   1.979   7.534   6.231 -0.8711 -0.7258 -0.1388
34248SOL    HW2 8708   1.885   7.526   6.350  0.8633 -0.2189  1.3108
34249SOL     OW 8709   8.189   6.825   7.589 -0.1189  0.3150  0.1305
34249SOL    HW1 8710   8.101   6.788   7.595 -0.4074  1.0281  0.4443
34249SOL    HW2 8711   8.181   6.897   7.526  0.2118  0.4606  0.2503
34250SOL     OW 8712   7.106   9.834   2.724  0.5656 -0.0258  0.6783
34250SOL    HW1 8713   7.092   9.793   2.809 -0.2895 -0.3850  0.3821
34250SOL    HW2 8714   7.120   9.761   2.664 -0.6074  0.1151  0.2075
34251SOL     OW 8715   1.268   4.681   2.878 -0.2719  0.2181 -0.1700
34251SOL    HW1 8716   1.228   4.596   2.897 -0.6834  0.7625  1.6440
34251SOL    HW2 8717   1.223   4.742   2.937  1.5811  1.2809  0.2192
34252SOL     OW 8718   8.805   1.039  10.224 -0.4418  0.5604  0.1485
34252SOL    HW1 8719   8.792   0.999  10.310 -1.1201  1.8860  0.6758
34252SOL    HW2 8720   8.893   1.076  10.227  0.1894 -0.8077 -0.3398
34253SOL     OW 8721   7.919   8.983   0.487  0.2023  0.1659  0.0279
34253SOL    HW1 8722   8.010   8.965   0.508  0.3942 -0.0802 -0.9547
34253SOL    HW2 8723   7.870   8.911   0.526  0.6722 -0.9456 -1.3537
34254SOL     OW 8724   6.719   4.926   1.138 -0.0005  0.0813  0.1301
34254SOL    HW1 8725   6.752   4.885   1.058 -0.6764 -1.0316  0.4058
34254SOL    HW2 8726   6.630   4.893   1.147 -0.2859  1.0015  0.8018
34255SOL     OW 8727   7.969   8.437   8.319  0.0345 -0.0757  0.6630
34255SOL    HW1 8728   8.004   8.436   8.408  0.7647  2.8126  0.5150
34255SOL    HW2 8729   7.874   8.435   8.331  0.0618  2.1017  1.6836
34256SOL     OW 8730   2.779   4.328   2.250 -0.1136 -1.0488  0.3261
34256SOL    HW1 8731   2.872   4.307   2.259 -0.2119 -1.8042 -0.2711
34256SOL    HW2 8732   2.768   4.346   2.156 -0.7213 -1.8380  0.2305
34257SOL     OW 8733   7.574  11.127   5.503  0.6151 -0.2524  0.5010
34257SOL    HW1 8734   7.641  11.190   5.476  1.5664 -2.0462 -1.5954
34257SOL    HW2 8735   7.623  11.059   5.548  0.1194 -1.2304 -0.4108
34258SOL     OW 8736   7.234   4.396   0.624  0.5537  0.4315 -0.1486
34258SOL    HW1 8737   7.210   4.465   0.562 -1.3086 -0.8016 -0.8860
34258SOL    HW2 8738   7.278   4.330   0.571  0.3294  0.0570  0.1310
34259SOL     OW 8739   2.470   0.459   1.184  0.4105  0.3183 -0.7410
34259SOL    HW1 8740   2.523   0.401   1.130 -1.1271 -2.1020  0.2163
34259SOL    HW2 8741   2.470   0.420   1.271 -1.0718  1.4848 -0.1552
34260SOL     OW 8742   1.250   1.513   0.203  0.5360 -0.6943  0.1885
34260SOL    HW1 8743   1.226   1.433   0.249 -0.0252  0.4268  1.9135
34260SOL    HW2 8744   1.169   1.541   0.160 -0.1043  0.5525  2.1162
34261SOL     OW 8745  10.051   2.166  11.287  0.0053  0.1941 -0.3358
34261SOL    HW1 8746  10.089   2.247  11.252  0.5077  1.1379  2.1753
34261SOL    HW2 8747  10.105   2.096  11.250 -0.2483  0.9725 -2.3227
34262SOL     OW 8748   7.705   8.529   0.882  0.5465 -0.9286 -0.1005
34262SOL    HW1 8749   7.723   8.621   0.866  0.7048 -1.1253 -1.1220
34262SOL    HW2 8750   7.623   8.529   0.932 -0.5494 -0.2935 -1.8206
34263SOL     OW 8751  11.205   8.394   8.630 -0.4004  0.1500 -0.2632
34263SOL    HW1 8752  11.156   8.474   8.613 -0.7625  0.1435  0.6926
34263SOL    HW2 8753  11.154   8.348   8.697  0.7977  0.0547  0.6211
34264SOL     OW 8754   8.286   4.349  12.001 -0.5631 -0.0774 -0.1387
34264SOL    HW1 8755   8.264   4.438  11.977  0.5289  0.0328 -0.8018
34264SOL    HW2 8756   8.357   4.325  11.942 -0.6184 -1.2683  0.2506
34265SOL     OW 8757   3.472  11.132  10.276 -0.2887  0.0361 -0.0993
34265SOL    HW1 8758   3.407  11.202  10.267  1.0447  1.5820  1.3736
34265SOL    HW2 8759   3.422  11.057  10.309 -1.5680  0.6761 -0.5086
34266SOL     OW 8760   1.092   6.159   9.747 -0.3070  0.1630 -0.0757
34266SOL    HW1 8761   1.148   6.124   9.677  0.9596  1.9491 -0.0401
34266SOL    HW2 8762   1.081   6.085   9.808 -0.0848 -0.9503 -1.3346
34267SOL     OW 8763  12.327   0.786   6.255 -0.2834 -0.3948  0.3511
34267SOL    HW1 8764  12.418   0.770   6.278 -0.2421 -0.3102  0.2444
34267SOL    HW2 8765  12.318   0.752   6.166 -0.4521 -0.7531  0.5058
34268SOL     OW 8766   9.566   1.672   4.996  0.6380 -0.0104  0.0871
34268SOL    HW1 8767   9.624   1.604   4.961  0.5032 -1.1167  1.8574
34268SOL    HW2 8768   9.483   1.625   5.012  0.6561  0.4710  1.6787
34269SOL     OW 8769   9.080  11.993   4.625 -0.1600  0.2032  0.0755
34269SOL    HW1 8770   8.991  11.969   4.649 -0.1701 -1.3771 -1.3787
34269SOL    HW2 8771   9.070  12.045   4.545  0.1622  1.4027  0.7797
34270SOL     OW 8772   2.634   1.089   1.450 -0.0662 -0.1660 -0.1861
34270SOL    HW1 8773   2.693   1.026   1.492  0.0661 -1.0100 -1.5528
34270SOL    HW2 8774   2.546   1.052   1.463 -0.0137 -0.5026 -0.7200
34271SOL     OW 8775   6.764   8.869   3.399 -0.1395  0.4254 -0.2050
34271SOL    HW1 8776   6.823   8.827   3.462 -0.5104 -0.8577 -0.6715
34271SOL    HW2 8777   6.679   8.868   3.441 -0.3088 -0.0669 -0.5470
34272SOL     OW 8778   8.541   3.706   8.736 -0.4820 -0.0034 -1.0339
34272SOL    HW1 8779   8.584   3.762   8.672 -0.3430  0.3078 -0.6732
34272SOL    HW2 8780   8.454   3.743   8.747  0.2152  1.2852  0.5758
34273SOL     OW 8781  12.174  11.559   0.410 -0.8307  0.5602  0.1289
34273SOL    HW1 8782  12.171  11.518   0.496 -2.2929 -0.0919 -0.2039
34273SOL    HW2 8783  12.082  11.577   0.389 -0.3997  1.8346 -0.7711
34274SOL     OW 8784   0.733   9.785   6.743  0.3076  0.1746 -0.2211
34274SOL    HW1 8785   0.806   9.797   6.682 -0.4645  1.5233 -0.9146
34274SOL    HW2 8786   0.686   9.708   6.711  0.1582  0.6158 -1.0829
34275SOL     OW 8787   2.927   0.501   9.900  0.0766  0.2179  0.2233
34275SOL    HW1 8788   2.928   0.414   9.940  1.5563 -0.0272 -0.3065
34275SOL    HW2 8789   2.978   0.555   9.960  0.0733  0.4740 -0.0035
34276SOL     OW 8790  11.860   1.468  10.342  0.2756  0.3138  0.3118
34276SOL    HW1 8791  11.779   1.494  10.386 -0.3555  0.2670 -0.7875
34276SOL    HW2 8792  11.900   1.550  10.314 -0.3749  0.2568 -0.8283
34277SOL     OW 8793   5.016   0.922   7.097  0.1086 -0.0484 -0.3122
34277SOL    HW1 8794   5.034   0.845   7.044 -0.6535  1.2645 -2.6361
34277SOL    HW2 8795   5.074   0.913   7.173  1.5701 -1.8373 -1.5400
34278SOL     OW 8796   6.562   8.746   1.057 -0.0912  0.3359  0.4681
34278SOL    HW1 8797   6.552   8.788   1.142  0.0218 -2.1082  1.7647
34278SOL    HW2 8798   6.535   8.655   1.071  0.0298 -0.1811 -2.0954
34279SOL     OW 8799   1.477   9.824   5.427 -0.4775  0.1533  0.0765
34279SOL    HW1 8800   1.426   9.758   5.380 -1.9487  0.1779  1.5111
34279SOL    HW2 8801   1.519   9.776   5.498  1.0636  0.2463 -0.7421
34280SOL     OW 8802   3.238  12.048   1.948  0.0703 -0.0670  0.7958
34280SOL    HW1 8803   3.241  12.134   1.989  1.8547 -0.1387  0.9087
34280SOL    HW2 8804   3.313  12.047   1.889  0.6091 -1.8308  1.4373
34281SOL     OW 8805   2.193   2.922   4.298  0.2924  0.3708 -0.4649
34281SOL    HW1 8806   2.283   2.891   4.305 -0.0973 -0.5286  1.1953
34281SOL    HW2 8807   2.198   3.016   4.316  0.8782  0.2891 -0.1817
34282SOL     OW 8808   2.021  12.319   6.971 -0.5701 -0.6439 -0.0237
34282SOL    HW1 8809   2.067  12.400   6.993 -2.1370  0.2761 -0.0016
34282SOL    HW2 8810   2.064  12.288   6.892 -0.5528  0.7337 -0.5872
34283SOL     OW 8811   4.799   2.065   1.534 -0.0539  0.0420  0.2822
34283SOL    HW1 8812   4.772   2.157   1.531 -0.2536  0.0435  1.6117
34283SOL    HW2 8813   4.843   2.051   1.451 -1.2458  0.9570 -0.5475
34284SOL     OW 8814  11.943   5.978   3.492  0.1064 -0.4153 -0.1495
34284SOL    HW1 8815  11.953   6.034   3.416  1.2060  0.5383  0.6712
34284SOL    HW2 8816  11.888   6.028   3.552  0.1176 -0.7127  0.1115
34285SOL     OW 8817  10.339  10.183   9.147 -0.3555 -0.0665 -0.9827
34285SOL    HW1 8818  10.337  10.245   9.075  1.4355 -1.8302 -2.6698
34285SOL    HW2 8819  10.262  10.128   9.134 -0.2266 -0.1572 -1.3903
34286SOL     OW 8820   5.814   9.540   0.521  0.0167  0.5049  0.0137
34286SOL    HW1 8821   5.782   9.620   0.479  1.1390  0.9531 -0.0214
34286SOL    HW2 8822   5.758   9.529   0.598  0.1727  1.6093  0.2995
34287SOL     OW 8823  11.499   6.249   2.875 -0.0161  0.3434 -0.2385
34287SOL    HW1 8824  11.582   6.290   2.849  0.5191 -0.6692 -0.2236
34287SOL    HW2 8825  11.470   6.203   2.796  0.0467 -0.2509  0.0759
34288SOL     OW 8826  10.873   5.435   7.640 -0.4658 -0.0926  0.0819
34288SOL    HW1 8827  10.963   5.411   7.618  0.4564  1.9547  1.3151
34288SOL    HW2 8828  10.834   5.355   7.674  0.4632 -1.3352 -1.6392
34289SOL     OW 8829   0.484   6.147   7.908  0.0921 -0.1957 -0.5585
34289SOL    HW1 8830   0.500   6.078   7.971  1.4082 -0.1998 -0.8720
34289SOL    HW2 8831   0.561   6.203   7.913  0.1241 -0.0695 -1.9837
34290SOL     OW 8832  12.064   6.973   9.865  0.3217  0.1118  0.1177
34290SOL    HW1 8833  12.055   6.878   9.854  0.1761  0.2952 -1.5480
34290SOL    HW2 8834  12.071   6.985   9.960 -1.6871 -1.3917  0.5260
34291SOL     OW 8835   3.578   2.282  10.036 -0.1479  0.4897 -0.2284
34291SOL    HW1 8836   3.563   2.374  10.015 -0.5316  0.4555 -0.1092
34291SOL    HW2 8837   3.551   2.274  10.127  0.8953  0.4933  0.0890
34292SOL     OW 8838   4.407   5.498  10.471 -0.2057  0.6742  0.5075
34292SOL    HW1 8839   4.390   5.575  10.416 -2.4810 -0.5140 -0.5858
34292SOL    HW2 8840   4.334   5.497  10.533  0.1088 -0.2880  0.8686
34293SOL     OW 8841   9.777   8.850   9.464 -0.4826  0.1252 -0.2400
34293SOL    HW1 8842   9.765   8.912   9.393  1.6864  0.3076 -0.5060
34293SOL    HW2 8843   9.714   8.780   9.446 -2.0778  1.5946 -0.6300
34294SOL     OW 8844   0.163   5.273   4.937  0.0487  0.1489  0.3453
34294SOL    HW1 8845   0.159   5.366   4.916  2.8274  0.6955  1.6714
34294SOL    HW2 8846   0.171   5.230   4.852 -0.6617  1.1615 -0.2584
34295SOL     OW 8847   9.907   7.950   0.806  0.5680 -0.7851  0.7141
34295SOL    HW1 8848   9.989   7.919   0.767  0.6860 -1.5439  1.5379
34295SOL    HW2 8849   9.865   7.870   0.839  0.3804 -0.1858  1.9458
34296SOL     OW 8850   7.381   8.455   0.432  0.0254  0.1546  0.6597
34296SOL    HW1 8851   7.434   8.379   0.406 -0.5979 -0.2725  0.6016
34296SOL    HW2 8852   7.415   8.527   0.380 -0.5323 -0.4647 -0.6006
34297SOL     OW 8853   7.815   0.513   3.138 -0.1816  0.1143  0.2395
34297SOL    HW1 8854   7.808   0.580   3.070 -0.5412 -0.3095 -0.1421
34297SOL    HW2 8855   7.740   0.530   3.196  0.2029  0.5625  0.6218
34298SOL     OW 8856   8.927   1.873   9.371 -0.3803 -0.2088  0.5655
34298SOL    HW1 8857   9.018   1.855   9.394 -0.4275 -0.5442  0.4913
34298SOL    HW2 8858   8.920   1.844   9.280 -0.4712  0.1368  0.4614
34299SOL     OW 8859   5.547   5.948   8.498  0.5100 -0.8201 -0.6013
34299SOL    HW1 8860   5.511   6.036   8.509 -0.5807 -0.8609 -3.1895
34299SOL    HW2 8861   5.478   5.890   8.530  0.4582 -0.7770 -0.6353
34300SOL     OW 8862   8.767   1.177   6.105  0.2720  1.1129 -0.7173
34300SOL    HW1 8863   8.698   1.215   6.050 -3.2935 -1.5783  1.4900
34300SOL    HW2 8864   8.779   1.089   6.071  1.2056  0.8743  0.2006
34301SOL     OW 8865   0.807   0.355   6.628 -0.5745  0.0049 -0.0751
34301SOL    HW1 8866   0.898   0.384   6.622 -0.6781  1.6367  3.4284
34301SOL    HW2 8867   0.811   0.260   6.621  1.4309  0.0483  0.0120
34302SOL     OW 8868  11.235  11.778   5.763  0.7669 -0.5484  0.2097
34302SOL    HW1 8869  11.307  11.836   5.790  1.8652 -0.8565 -1.8327
34302SOL    HW2 8870  11.279  11.705   5.719 -0.6300 -2.5971  2.0065
34303SOL     OW 8871  10.717  11.283   8.958  0.4898 -0.5718  0.7741
34303SOL    HW1 8872  10.669  11.351   8.911 -1.2652 -3.5328 -2.0931
34303SOL    HW2 8873  10.654  11.212   8.970  2.4665 -2.1411  2.7599
34304SOL     OW 8874   5.937   4.304   4.827 -0.4347  0.0074  0.0612
34304SOL    HW1 8875   5.913   4.281   4.917 -1.6739 -0.3849 -0.3580
34304SOL    HW2 8876   6.033   4.312   4.830 -0.2633 -1.7733  1.0181
34305SOL     OW 8877   2.944   7.842   4.898  0.5181  0.6288  0.2177
34305SOL    HW1 8878   2.919   7.865   4.809  0.8949  0.7224  0.1330
34305SOL    HW2 8879   3.039   7.836   4.895  0.5640  1.0601  0.7170
34306SOL     OW 8880   0.360   7.020   2.665 -0.7423 -0.3486 -0.0600
34306SOL    HW1 8881   0.347   6.928   2.641  0.5894 -0.5681 -0.0036
34306SOL    HW2 8882   0.272   7.051   2.688 -0.8486 -2.3958  2.8093
34307SOL     OW 8883   7.741   5.543   6.586  0.1147  0.4880  0.1581
34307SOL    HW1 8884   7.784   5.463   6.557  1.0511  0.9399  0.2808
34307SOL    HW2 8885   7.722   5.591   6.506  0.4066  0.5745  0.1414
34308SOL     OW 8886  11.174  12.055   6.067  0.5831  0.1402 -0.2918
34308SOL    HW1 8887  11.139  12.095   5.988  1.2811  0.4570 -0.4460
34308SOL    HW2 8888  11.101  12.006   6.104 -0.0400  0.8631 -0.5597
34309SOL     OW 8889   1.233  11.707   1.358 -0.3483  0.2909  0.3371
34309SOL    HW1 8890   1.232  11.739   1.268 -1.0131  0.3332  0.3550
34309SOL    HW2 8891   1.223  11.786   1.412  1.3186  0.4218  0.5112
34310SOL     OW 8892  11.743   1.010   9.664 -0.0554  0.5323 -0.4366
34310SOL    HW1 8893  11.738   0.941   9.598  0.0925  2.0180 -2.0855
34310SOL    HW2 8894  11.664   1.063   9.649 -1.0194 -0.1283  1.8615
34311SOL     OW 8895   2.821   2.342   7.885  0.2111 -0.1822  0.5721
34311SOL    HW1 8896   2.748   2.399   7.908  0.6102  0.1445  1.0709
34311SOL    HW2 8897   2.868   2.389   7.816 -0.0987 -0.4356  0.1848
34312SOL     OW 8898   9.819  12.000   1.153 -0.7330 -0.0026 -0.2021
34312SOL    HW1 8899   9.768  11.991   1.072  0.4857 -0.7593 -0.9067
34312SOL    HW2 8900   9.783  11.934   1.212 -0.2807 -0.8624 -0.8645
34313SOL     OW 8901   3.928   2.538   4.429 -0.1242 -0.5068  0.4930
34313SOL    HW1 8902   4.002   2.585   4.469 -0.5950 -0.4497  1.3185
34313SOL    HW2 8903   3.913   2.583   4.346  0.3429 -0.0934  0.6297
34314SOL     OW 8904   8.743   0.244   1.915 -0.3692  0.2774 -0.2187
34314SOL    HW1 8905   8.731   0.261   1.822  0.0744 -1.8363 -0.7156
34314SOL    HW2 8906   8.837   0.226   1.924 -0.6283 -0.8653  0.3772
34315SOL     OW 8907  11.371  10.529  10.010 -0.1732 -0.2407 -0.2156
34315SOL    HW1 8908  11.298  10.470  10.025  0.0640 -1.2380 -2.6062
34315SOL    HW2 8909  11.407  10.545  10.097 -2.2228 -0.9928  0.8422
34316SOL     OW 8910   2.871  11.526  11.879 -0.1431  0.1390  0.0891
34316SOL    HW1 8911   2.941  11.580  11.916  0.7353 -0.3063 -0.8562
34316SOL    HW2 8912   2.860  11.455  11.942 -0.7041  0.9261  0.9077
34317SOL     OW 8913   3.435   8.577   3.893 -0.1026  0.2424  0.1455
34317SOL    HW1 8914   3.403   8.590   3.982  0.2877  0.5983  0.2424
34317SOL    HW2 8915   3.382   8.507   3.858 -1.1657  0.9940  0.2014
34318SOL     OW 8916   6.259   2.499   7.592 -0.4850 -0.0937  0.0285
34318SOL    HW1 8917   6.209   2.556   7.650 -0.0370  0.0298  0.2942
34318SOL    HW2 8918   6.312   2.559   7.539 -0.8173 -0.2084 -0.4461
34319SOL     OW 8919  11.523   3.423  10.787 -0.4271  0.0367 -0.2447
34319SOL    HW1 8920  11.569   3.348  10.748  0.2881  0.4647 -0.2335
34319SOL    HW2 8921  11.557   3.499  10.740 -1.5036  0.3270 -0.5949
34320SOL     OW 8922   5.338   4.351   8.791 -0.0324 -0.0232 -0.5348
34320SOL    HW1 8923   5.407   4.306   8.743  0.2386 -0.9037  0.6241
34320SOL    HW2 8924   5.273   4.283   8.809  0.1664  0.1282  0.8487
34321SOL     OW 8925   9.397   5.212   0.554 -0.3063  0.5730  0.2312
34321SOL    HW1 8926   9.353   5.170   0.628  0.3673  1.8178  1.3803
34321SOL    HW2 8927   9.325   5.237   0.496 -0.7270 -2.5033 -0.7748
34322SOL     OW 8928   7.342   7.484   3.020 -0.4846 -0.0242 -0.2756
34322SOL    HW1 8929   7.376   7.573   3.032  0.8533 -0.5132 -0.2332
34322SOL    HW2 8930   7.417   7.428   3.038 -1.1190 -1.1384 -1.0196
34323SOL     OW 8931   8.006   6.596   9.856 -0.7135 -0.1364  0.3061
34323SOL    HW1 8932   8.001   6.678   9.808 -1.7476  0.0071  0.6378
34323SOL    HW2 8933   8.027   6.622   9.946 -1.7765 -0.1648  0.5730
34324SOL     OW 8934   8.553   3.024   3.901 -0.7098 -0.3536  0.6126
34324SOL    HW1 8935   8.597   2.944   3.929  1.0034  0.4875  0.4985
34324SOL    HW2 8936   8.590   3.043   3.815  1.6779  2.3906  2.0602
34325SOL     OW 8937  10.100   8.804   6.309  0.2348 -0.2437  0.1004
34325SOL    HW1 8938  10.076   8.837   6.222  0.8833  1.1662  0.4242
34325SOL    HW2 8939  10.177   8.750   6.294 -0.0156 -0.5035 -0.2737
34326SOL     OW 8940   8.321   3.901   8.714  0.2704 -0.6128 -0.4089
34326SOL    HW1 8941   8.232   3.869   8.701  0.0949 -0.1091 -0.4776
34326SOL    HW2 8942   8.332   3.969   8.647 -0.2324  1.1859  1.2368
34327SOL     OW 8943   9.558  10.074   1.834 -0.0344  0.3636 -0.0711
34327SOL    HW1 8944   9.500  10.110   1.766  0.3371  0.9092 -0.1108
34327SOL    HW2 8945   9.525  10.112   1.915  0.9092  1.5522 -0.2117
34328SOL     OW 8946   7.171   5.809   4.128  0.1318  0.5072 -0.4583
34328SOL    HW1 8947   7.175   5.715   4.110 -0.4575  0.0168  1.7301
34328SOL    HW2 8948   7.078   5.831   4.120  0.2405  0.8773 -0.7648
34329SOL     OW 8949  12.274   4.087   1.990  0.1866  0.7889  0.0900
34329SOL    HW1 8950  12.221   4.138   1.929  1.0437  0.9158 -0.5797
34329SOL    HW2 8951  12.235   4.103   2.076 -0.3400  1.5403 -0.2804
34330SOL     OW 8952   1.716   6.438   0.604 -0.1253  0.2048  0.4771
34330SOL    HW1 8953   1.739   6.522   0.564 -0.3187 -0.0523 -0.1710
34330SOL    HW2 8954   1.662   6.394   0.539  0.4563 -0.6740  0.5788
34331SOL     OW 8955   4.703   2.905   3.026 -0.0001 -0.1259 -0.0999
34331SOL    HW1 8956   4.738   2.944   2.946  2.9139 -0.4435  0.8894
34331SOL    HW2 8957   4.619   2.867   3.000 -0.0721  1.4665 -2.4928
34332SOL     OW 8958   1.652   7.438   2.241 -0.4177 -0.2175 -0.2138
34332SOL    HW1 8959   1.684   7.365   2.188 -0.5114 -1.8225  1.7696
34332SOL    HW2 8960   1.594   7.487   2.183 -2.8653 -3.5243 -0.8974
34333SOL     OW 8961   1.212   7.498   4.436  0.2974  0.2644 -0.1308
34333SOL    HW1 8962   1.281   7.512   4.501 -0.1573  2.3019 -0.0288
34333SOL    HW2 8963   1.242   7.546   4.358 -0.5538  0.3568 -0.4128
34334SOL     OW 8964  11.176   2.113   3.239 -0.0920 -0.1072  0.0696
34334SOL    HW1 8965  11.177   2.185   3.302  0.5229 -1.5007  1.7424
34334SOL    HW2 8966  11.084   2.092   3.227 -0.3643  1.7917 -1.4890
34335SOL     OW 8967   7.800  10.899   7.961 -0.1615 -0.3965 -0.7660
34335SOL    HW1 8968   7.792  10.925   8.053 -0.5620  1.5034 -1.2908
34335SOL    HW2 8969   7.728  10.838   7.947  0.5195 -1.5315  0.4125
34336SOL     OW 8970  11.372   1.862   3.575 -0.1422  0.0768 -0.2943
34336SOL    HW1 8971  11.424   1.787   3.544 -0.7170 -1.6864  2.6530
34336SOL    HW2 8972  11.402   1.935   3.521  1.9946 -1.8028 -1.8831
34337SOL     OW 8973   7.378   9.048   6.177  0.1225 -0.3427  0.3334
34337SOL    HW1 8974   7.430   8.968   6.184  0.6854  0.1286  2.2176
34337SOL    HW2 8975   7.404   9.087   6.094 -1.4905 -2.9507 -1.5608
34338SOL     OW 8976   7.490   9.866   7.209 -0.0435  0.1064  0.0959
34338SOL    HW1 8977   7.569   9.812   7.212 -0.7434 -1.3093 -2.9513
34338SOL    HW2 8978   7.523   9.955   7.191  0.9150 -0.2298  0.1610
34339SOL     OW 8979   9.783   1.501   4.910 -0.5202  0.3748 -0.1476
34339SOL    HW1 8980   9.735   1.471   4.833  0.9383 -0.8155 -0.6399
34339SOL    HW2 8981   9.848   1.433   4.926  0.5651  1.5899  0.8904
34340SOL     OW 8982   0.576   2.380   2.535  0.1546 -0.1450  0.4141
34340SOL    HW1 8983   0.545   2.408   2.621  0.3587  1.0561  0.1179
34340SOL    HW2 8984   0.517   2.308   2.510 -0.9042  0.5370  0.8779
34341SOL     OW 8985   8.109   3.183   6.527  0.6294 -0.7521 -0.1547
34341SOL    HW1 8986   8.030   3.145   6.489 -1.0496  0.6895  1.6224
34341SOL    HW2 8987   8.156   3.220   6.453 -0.7667 -0.9664 -1.1906
34342SOL     OW 8988   5.450   3.775   8.106 -0.0899  0.8880  0.1301
34342SOL    HW1 8989   5.418   3.692   8.141  2.3271 -0.2281 -0.0841
34342SOL    HW2 8990   5.515   3.804   8.169 -0.4374  2.3182 -0.1428
34343SOL     OW 8991  11.292   8.981  11.592  0.4814 -0.4016  0.0419
34343SOL    HW1 8992  11.288   9.077  11.596 -2.0848 -0.4771  2.3846
34343SOL    HW2 8993  11.370   8.957  11.642  0.8300  0.4385 -0.0878
34344SOL     OW 8994   2.326   1.579   0.481  0.4226 -0.2675  0.2405
34344SOL    HW1 8995   2.377   1.555   0.559  0.7542 -1.2236 -0.2441
34344SOL    HW2 8996   2.311   1.495   0.437 -0.4166  0.1740 -0.3305
34345SOL     OW 8997  10.653   5.862   9.057 -0.0817  0.4534 -0.9100
34345SOL    HW1 8998  10.618   5.790   9.109 -0.4743  0.0474 -1.7315
34345SOL    HW2 8999  10.609   5.855   8.973 -0.9876  2.3420 -0.6461
34346SOL     OW 9000   0.257  11.618   3.585  0.2767  0.5802 -0.6276
34346SOL    HW1 9001   0.352  11.616   3.581  0.3035 -0.4075  0.0302
34346SOL    HW2 9002   0.235  11.708   3.610  0.9570  1.1644 -2.0174
34347SOL     OW 9003   8.148   4.928  11.165  0.1736 -0.2427  0.1923
34347SOL    HW1 9004   8.084   4.950  11.098  0.4992  1.3788  0.3685
34347SOL    HW2 9005   8.227   4.905  11.116  0.3202  0.6378 -0.0024
34348SOL     OW 9006   6.565  10.398  12.384  0.0819  0.5570 -0.6975
34348SOL    HW1 9007   6.608  10.315  12.405 -2.2877 -0.2517  1.6432
34348SOL    HW2 9008   6.608  10.462  12.441  0.6827  0.5579 -1.1484
34349SOL     OW 9009   9.065   7.177   1.452  0.6429 -0.4547 -0.5195
34349SOL    HW1 9010   9.143   7.170   1.507  0.0366 -3.3585  0.1274
34349SOL    HW2 9011   9.090   7.132   1.371  0.4437  0.9277 -1.3895
34350SOL     OW 9012   2.843   7.263  12.138  0.1162  0.9378 -0.3373
34350SOL    HW1 9013   2.827   7.261  12.233  1.4251 -1.9312 -0.0694
34350SOL    HW2 9014   2.843   7.171  12.112  1.4378  1.5658 -2.8334
34351SOL     OW 9015   9.008  10.906   5.787  0.0315  0.6979  0.6748
34351SOL    HW1 9016   8.921  10.904   5.827  0.1891 -1.2102  1.0215
34351SOL    HW2 9017   9.063  10.857   5.848  1.0415  0.6894 -0.2210
34352SOL     OW 9018   3.844   4.041   4.284 -0.2773 -0.0955  0.2273
34352SOL    HW1 9019   3.810   4.081   4.204 -0.3303  0.1875  0.3890
34352SOL    HW2 9020   3.806   4.093   4.355 -0.3708 -0.4512  0.4428
34353SOL     OW 9021  10.462   6.227   9.215  0.7794  0.4285  0.1658
34353SOL    HW1 9022  10.423   6.266   9.293  0.3880 -1.3562  0.9173
34353SOL    HW2 9023  10.407   6.257   9.143 -0.2354  0.3005  0.8651
34354SOL     OW 9024   7.066   3.553  11.366 -0.2525  0.1089 -0.0398
34354SOL    HW1 9025   7.019   3.551  11.283 -1.9893  0.9388  0.8440
34354SOL    HW2 9026   7.119   3.474  11.366  0.7505  0.6927 -2.4157
34355SOL     OW 9027   2.909   5.735   3.325  0.3051 -0.4288  0.6191
34355SOL    HW1 9028   2.963   5.760   3.251 -0.2378 -1.2155 -0.0656
34355SOL    HW2 9029   2.870   5.817   3.356  0.4971 -0.1027  0.0042
34356SOL     OW 9030   4.166   9.614   6.638  0.4526 -0.0922  0.3174
34356SOL    HW1 9031   4.188   9.694   6.686  0.3852  1.3062 -1.8434
34356SOL    HW2 9032   4.220   9.618   6.559 -1.7744 -0.5527 -1.3502
34357SOL     OW 9033   8.321   0.015   1.643  0.0587  0.5257  0.4766
34357SOL    HW1 9034   8.310  -0.012   1.735  0.7432 -1.3514  0.0374
34357SOL    HW2 9035   8.399   0.071   1.644  0.9287 -0.6564  0.8412
34358SOL     OW 9036   6.236   1.347   5.976  0.2282 -0.0156 -0.1772
34358SOL    HW1 9037   6.215   1.440   5.977 -0.6347 -0.1801 -1.0407
34358SOL    HW2 9038   6.311   1.340   5.917  2.5904  0.5194  2.5676
34359SOL     OW 9039   2.104   4.266  11.099  1.0916 -0.2524 -0.0360
34359SOL    HW1 9040   2.026   4.270  11.044  0.6699 -0.5560  0.5295
34359SOL    HW2 9041   2.144   4.182  11.078  1.6297  0.1863 -0.8023
34360SOL     OW 9042   8.951   8.313   0.447  0.2106  0.0796  0.3355
34360SOL    HW1 9043   8.978   8.222   0.436  0.2399 -0.1178  1.7660
34360SOL    HW2 9044   9.029   8.357   0.480 -0.0826  0.3823  0.6291
34361SOL     OW 9045   1.992   2.921   7.203 -0.0798  0.1528  0.3795
34361SOL    HW1 9046   2.086   2.931   7.218 -0.2847  1.0435  1.2180
34361SOL    HW2 9047   1.973   2.832   7.232  0.3316  0.3335  1.2538
34362SOL     OW 9048  11.713   0.801   9.472  0.0892 -0.0829  0.4274
34362SOL    HW1 9049  11.679   0.785   9.383  0.5148  1.3739 -0.0286
34362SOL    HW2 9050  11.805   0.775   9.467  0.2651  0.5449  0.2541
34363SOL     OW 9051  11.734   4.505   3.028 -0.3586 -0.3023 -0.4404
34363SOL    HW1 9052  11.755   4.482   2.937  0.8083  0.1949 -0.3218
34363SOL    HW2 9053  11.671   4.439   3.055  0.4472 -1.4027 -1.1362
34364SOL     OW 9054   8.952   6.400   6.866  0.2721  0.5320  0.5526
34364SOL    HW1 9055   9.007   6.383   6.943 -2.1704  0.6179  2.4445
34364SOL    HW2 9056   8.940   6.495   6.867 -1.6746  0.3216  1.5462
34365SOL     OW 9057   8.368   4.563  11.263  0.2348 -0.7914 -0.1524
34365SOL    HW1 9058   8.273   4.566  11.257  0.3015 -1.5160 -2.1809
34365SOL    HW2 9059   8.391   4.471  11.250  1.2744 -0.3984 -1.2843
34366SOL     OW 9060   8.906   5.250   8.292  0.0255  0.0843  0.0487
34366SOL    HW1 9061   8.851   5.234   8.369  1.1289  0.2208  0.8846
34366SOL    HW2 9062   8.877   5.336   8.260 -0.5569 -0.0518  0.1955
34367SOL     OW 9063   3.381   5.758   6.444 -0.0736  0.0018  0.2481
34367SOL    HW1 9064   3.310   5.792   6.499  1.3219  1.6010  1.1419
34367SOL    HW2 9065   3.351   5.671   6.417 -3.1034  1.2540 -0.7910
34368SOL     OW 9066   9.339   3.876   2.865 -0.3469  0.4543 -0.3719
34368SOL    HW1 9067   9.296   3.796   2.896  2.2395 -0.7546  0.3747
34368SOL    HW2 9068   9.403   3.896   2.932  1.2756  1.2840 -2.0832
34369SOL     OW 9069   7.015  12.171   8.060 -0.0170  0.0827  0.0323
34369SOL    HW1 9070   6.951  12.241   8.078 -0.5499  0.0328 -1.5068
34369SOL    HW2 9071   7.090  12.193   8.115 -1.2441  0.2802  1.7145
34370SOL     OW 9072   3.667  10.571   3.355 -0.1768 -0.0021  0.0291
34370SOL    HW1 9073   3.634  10.587   3.267  1.1573 -1.5547 -0.7990
34370SOL    HW2 9074   3.729  10.643   3.371 -1.4698  1.0800  0.2981
34371SOL     OW 9075   0.226   5.814  11.373  0.0009  0.0417  0.2859
34371SOL    HW1 9076   0.309   5.852  11.402  0.0747  0.7181 -0.7494
34371SOL    HW2 9077   0.165   5.832  11.444  0.8073 -0.7887  1.2293
34372SOL     OW 9078  11.089  10.157   7.589 -1.2290  0.2529  0.3443
34372SOL    HW1 9079  11.080  10.234   7.532  2.0653  1.3014  1.0338
34372SOL    HW2 9080  11.001  10.121   7.594 -2.2696  1.9648 -2.7903
34373SOL     OW 9081   5.419  11.086   2.124  0.3098 -0.2027  0.2064
34373SOL    HW1 9082   5.441  11.035   2.046  0.5775  0.4768 -0.1689
34373SOL    HW2 9083   5.356  11.032   2.171 -0.6383 -0.1900 -0.9898
34374SOL     OW 9084   6.747  11.087   9.090  0.2340  0.2234  0.7151
34374SOL    HW1 9085   6.822  11.146   9.101  2.3391 -1.7154 -1.9242
34374SOL    HW2 9086   6.783  11.011   9.044 -3.7558  0.1723 -2.8926
34375SOL     OW 9087   2.357   5.669   3.175  0.6819 -0.7351  0.0236
34375SOL    HW1 9088   2.433   5.728   3.177  0.9483 -1.0910  0.5261
34375SOL    HW2 9089   2.394   5.583   3.193  0.4305 -1.2142 -1.5612
34376SOL     OW 9090   2.085  10.854   6.922  0.6839  0.3746  0.8188
34376SOL    HW1 9091   2.107  10.946   6.907 -0.6905  0.3652 -1.8816
34376SOL    HW2 9092   1.997  10.857   6.960  0.8024  0.1855  1.1076
34377SOL     OW 9093  10.175   4.597   4.693 -0.1855  0.2522  0.1834
34377SOL    HW1 9094  10.101   4.587   4.633  0.6763  1.2495 -1.0908
34377SOL    HW2 9095  10.248   4.555   4.647  0.0876 -0.6212  1.3750
34378SOL     OW 9096   0.941   9.940   2.105  0.0542 -0.0469 -0.4479
34378SOL    HW1 9097   1.018   9.943   2.049  0.7601 -1.2602  0.4032
34378SOL    HW2 9098   0.879   9.885   2.057  0.0953  0.1213 -0.6945
34379SOL     OW 9099   2.053   2.674   3.538 -0.6070 -0.3318  0.3199
34379SOL    HW1 9100   2.117   2.687   3.468  0.9233 -0.7650  1.5816
34379SOL    HW2 9101   1.996   2.751   3.534  0.4971  0.4650 -0.3359
34380SOL     OW 9102  10.262   6.854   9.141  0.0339 -0.3877  0.0635
34380SOL    HW1 9103  10.240   6.787   9.205 -1.3516  1.3315  1.4704
34380SOL    HW2 9104  10.201   6.839   9.069 -0.9195 -0.0858  0.7879
34381SOL     OW 9105   9.060  11.442  10.452  0.5878 -0.1236  0.2201
34381SOL    HW1 9106   9.017  11.527  10.443 -1.9747 -1.3410  0.3222
34381SOL    HW2 9107   9.106  11.430  10.369 -0.1981  0.7233 -0.3552
34382SOL     OW 9108   6.876   1.609   3.927 -0.0249  0.0932  0.0663
34382SOL    HW1 9109   6.808   1.612   3.859 -0.8356  2.0798  0.9092
34382SOL    HW2 9110   6.955   1.641   3.883 -0.0008 -0.7051 -0.4952
34383SOL     OW 9111  10.768   1.904   5.236  0.2434  0.0072 -0.1798
34383SOL    HW1 9112  10.787   1.814   5.207 -0.5156  0.3763 -1.9247
34383SOL    HW2 9113  10.761   1.897   5.332  0.4156 -1.7517 -0.2629
34384SOL     OW 9114  10.445   8.073   8.146 -0.4706  0.5715 -0.3368
34384SOL    HW1 9115  10.488   8.031   8.221 -0.5719  0.8380 -0.1304
34384SOL    HW2 9116  10.488   8.158   8.138 -0.0307  0.2961 -0.9672
34385SOL     OW 9117   4.673   1.584   8.045  0.2208  0.2870 -0.8433
34385SOL    HW1 9118   4.729   1.516   8.082  1.2202  1.9662  0.9086
34385SOL    HW2 9119   4.728   1.663   8.044 -1.7341  1.7633 -0.0814
34386SOL     OW 9120  10.407   9.593   4.378  0.0336 -0.7117  0.0440
34386SOL    HW1 9121  10.503   9.589   4.377  0.0730  0.1681 -0.2719
34386SOL    HW2 9122  10.380   9.501   4.378  0.8477 -1.0214 -2.2348
34387SOL     OW 9123   2.819   5.837   6.231 -0.1193 -0.0116  0.5220
34387SOL    HW1 9124   2.891   5.894   6.205 -0.0373  0.0594  0.9060
34387SOL    HW2 9125   2.841   5.752   6.191 -0.5296  0.3539 -0.5296
34388SOL     OW 9126  11.882  10.748   9.194 -0.4041 -0.0417 -0.2219
34388SOL    HW1 9127  11.976  10.763   9.205 -0.4646  1.4995 -1.4784
34388SOL    HW2 9128  11.851  10.726   9.282  1.2028 -1.2148  0.1175
34389SOL     OW 9129   5.847   5.604   5.407 -0.4711 -0.1995  0.0909
34389SOL    HW1 9130   5.834   5.551   5.328  0.7178  0.0190 -0.2762
34389SOL    HW2 9131   5.854   5.539   5.478  0.2379 -0.5093 -0.2506
34390SOL     OW 9132   3.357  11.675   7.954  0.1321 -0.5180 -0.1345
34390SOL    HW1 9133   3.382  11.599   7.901  1.5841  0.0499 -0.3205
34390SOL    HW2 9134   3.381  11.651   8.044 -1.3477 -1.0625  0.1537
34391SOL     OW 9135  12.142   0.154   0.006 -0.3540 -0.0458 -0.0871
34391SOL    HW1 9136  12.059   0.200   0.017  0.4012  0.8426  3.0171
34391SOL    HW2 9137  12.205   0.223  -0.014 -0.3082 -0.7495 -2.7353
34392SOL     OW 9138  10.724  11.512  10.982  0.2173 -0.1733 -0.0639
34392SOL    HW1 9139  10.718  11.535  10.889 -1.1721  0.7102  0.2229
34392SOL    HW2 9140  10.660  11.443  10.994 -1.5714  1.5486  0.7450
34393SOL     OW 9141   9.083   2.802   8.107  0.2039  0.0242  0.0593
34393SOL    HW1 9142   9.013   2.868   8.115  0.5001  0.5444 -1.2730
34393SOL    HW2 9143   9.036   2.719   8.097 -0.3383  0.5323 -2.3306
34394SOL     OW 9144  10.145  11.692   8.136  0.4784 -0.8458 -0.0103
34394SOL    HW1 9145  10.213  11.758   8.125  0.2391 -0.1505  2.2300
34394SOL    HW2 9146  10.132  11.657   8.048  0.7134  1.9897 -1.3073
34395SOL     OW 9147   4.495   7.724   7.189 -0.0270  0.4566 -0.0380
34395SOL    HW1 9148   4.495   7.629   7.200  3.3728  0.2873 -0.3751
34395SOL    HW2 9149   4.481   7.737   7.095  2.3803  0.0190 -0.5294
34396SOL     OW 9150   0.154  12.446   6.538 -0.0762 -0.0713  0.5429
34396SOL    HW1 9151   0.226  12.384   6.530 -0.9054 -0.9660 -0.2206
34396SOL    HW2 9152   0.181  12.521   6.484  1.3393  0.6964  2.2059
34397SOL     OW 9153   5.262   1.798   7.437  0.1844  0.0573  0.3267
34397SOL    HW1 9154   5.169   1.818   7.447  0.6200  2.9458 -0.3142
34397SOL    HW2 9155   5.268   1.761   7.349 -0.2059  1.5922 -0.3938
34398SOL     OW 9156   9.601   1.764   9.727 -0.0637 -0.2437  0.2911
34398SOL    HW1 9157   9.655   1.807   9.660  1.4860 -1.2612  0.8160
34398SOL    HW2 9158   9.581   1.833   9.790 -1.8887  0.8269 -1.3721
34399SOL     OW 9159   7.612   9.046   4.209  0.1571 -0.6951  0.0481
34399SOL    HW1 9160   7.670   9.118   4.234 -0.8252 -0.0905  0.6383
34399SOL    HW2 9161   7.636   9.027   4.118  1.8004 -0.9891  0.5114
34400SOL     OW 9162   1.548   6.296   6.336  0.0199  0.2375  0.2936
34400SOL    HW1 9163   1.569   6.297   6.242  3.1020  0.5612  0.8620
34400SOL    HW2 9164   1.612   6.356   6.375 -2.6484  1.9328  2.4059
34401SOL     OW 9165  11.004   6.176   1.322  0.0066  0.2475  0.0585
34401SOL    HW1 9166  10.983   6.219   1.405 -0.5364 -2.1269  1.2493
34401SOL    HW2 9167  10.967   6.088   1.331 -0.5988  0.0859 -2.9771
34402SOL     OW 9168  10.211   0.169  10.436 -0.3265 -0.3778 -1.0101
34402SOL    HW1 9169  10.208   0.261  10.407  0.9483  0.7368  2.0083
34402SOL    HW2 9170  10.304   0.150  10.446 -0.5968 -0.6024  2.1156
34403SOL     OW 9171  12.242  11.404   6.854  0.1319 -0.3050 -0.4259
34403SOL    HW1 9172  12.244  11.404   6.758  1.4191  1.5405 -0.4551
34403SOL    HW2 9173  12.330  11.431   6.879 -0.1078 -1.0198  1.3006
34404SOL     OW 9174   4.113   8.149   2.739  0.3546 -0.0472  0.3396
34404SOL    HW1 9175   4.112   8.182   2.829  0.9352  1.2319 -0.1025
34404SOL    HW2 9176   4.174   8.075   2.741  1.3809  0.7886  0.7392
34405SOL     OW 9177   6.830   1.614  10.911  0.2965 -0.5783  0.1494
34405SOL    HW1 9178   6.758   1.555  10.935  0.6812 -2.0880 -2.0669
34405SOL    HW2 9179   6.796   1.702  10.930 -1.8320 -1.2859 -0.0648
34406SOL     OW 9180  12.125   0.063   6.233 -0.3885  0.0227  0.1730
34406SOL    HW1 9181  12.159   0.142   6.190 -1.5988  0.4166 -0.1050
34406SOL    HW2 9182  12.201   0.024   6.276  0.3365  1.0461 -0.1501
34407SOL     OW 9183  10.444   4.207   9.364 -0.4924  0.3023  0.1511
34407SOL    HW1 9184  10.484   4.251   9.289 -0.6085  0.0204 -0.0809
34407SOL    HW2 9185  10.374   4.265   9.393 -1.6500 -0.4122 -1.1058
34408SOL     OW 9186  11.118   5.966   0.086 -0.2943 -0.3896  0.1767
34408SOL    HW1 9187  11.168   6.018   0.148 -1.0246 -0.7571  1.0932
34408SOL    HW2 9188  11.043   6.021   0.064 -0.3924 -0.5365  0.1450
34409SOL     OW 9189   3.466  10.244   4.183  0.0732 -0.1981 -0.8278
34409SOL    HW1 9190   3.480  10.330   4.144 -2.1703  0.1044 -1.0825
34409SOL    HW2 9191   3.436  10.262   4.272  1.7875 -0.8067 -0.0911
34410SOL     OW 9192   9.940   4.664   3.355 -0.0052  0.3899  0.2916
34410SOL    HW1 9193   9.933   4.669   3.451  1.5042  0.6679  0.4146
34410SOL    HW2 9194   9.934   4.755   3.326  1.1128  0.4714  0.2728
34411SOL     OW 9195   5.733   9.004   3.296  0.4034  0.0369 -0.0500
34411SOL    HW1 9196   5.811   9.048   3.262  0.4500  1.3669  1.6185
34411SOL    HW2 9197   5.661   9.041   3.245  0.7944 -0.9829 -1.4007
34412SOL     OW 9198   3.773   2.627   2.632 -0.4426 -0.6254  0.1074
34412SOL    HW1 9199   3.828   2.672   2.696  1.6419 -0.8033 -1.4250
34412SOL    HW2 9200   3.788   2.534   2.648 -0.7062 -0.6814  0.0278
34413SOL     OW 9201   9.074   9.354  10.399 -0.3172 -0.6254 -0.2588
34413SOL    HW1 9202   8.979   9.341  10.405  0.0180 -3.9336 -0.3909
34413SOL    HW2 9203   9.098   9.315  10.315  1.1487  0.7997 -0.5559
34414SOL     OW 9204   6.181   5.252  11.089  0.2377  0.0943  0.0397
34414SOL    HW1 9205   6.223   5.196  11.023  1.4227  0.7992  0.1531
34414SOL    HW2 9206   6.153   5.192  11.158 -0.6010 -0.6057 -0.8772
34415SOL     OW 9207   8.175   5.174   8.871 -0.4771  0.2929 -0.4891
34415SOL    HW1 9208   8.180   5.087   8.910 -0.1547 -0.0185 -1.2150
34415SOL    HW2 9209   8.099   5.169   8.812  0.5602 -0.0470 -1.8400
34416SOL     OW 9210   3.840   7.301   8.702  0.5546  0.5691  0.3912
34416SOL    HW1 9211   3.782   7.235   8.740  1.5808 -0.5782  0.0375
34416SOL    HW2 9212   3.811   7.310   8.612  0.1108  0.9714  0.5691
34417SOL     OW 9213   5.905   9.072   9.990  0.9162  0.1889 -0.6120
34417SOL    HW1 9214   5.982   9.016   9.993  0.4346 -0.4344  1.0073
34417SOL    HW2 9215   5.940   9.161   9.989  1.6841 -0.0800  0.5096
34418SOL     OW 9216   4.030   3.189   6.939  0.2585 -0.7710 -0.4827
34418SOL    HW1 9217   4.042   3.282   6.955  0.3038 -0.7770 -0.4836
34418SOL    HW2 9218   4.098   3.166   6.876 -1.4559 -0.2005 -2.6650
34419SOL     OW 9219   7.222   2.673   8.983 -0.0220 -0.1883 -0.0923
34419SOL    HW1 9220   7.191   2.594   8.938 -0.0987 -0.2127  0.0045
34419SOL    HW2 9221   7.145   2.705   9.030 -0.0353  0.0379 -0.2667
34420SOL     OW 9222   2.589   4.222   5.008 -0.4690 -0.3114  0.7527
34420SOL    HW1 9223   2.498   4.252   5.010 -0.7905 -1.0095 -1.2403
34420SOL    HW2 9224   2.633   4.275   5.074 -1.5806  2.5606 -0.6385
34421SOL     OW 9225  11.513   5.732   9.295  0.0167  0.4973  0.1867
34421SOL    HW1 9226  11.538   5.822   9.316 -0.2181  0.5593  0.1928
34421SOL    HW2 9227  11.574   5.706   9.225  1.4820 -0.0557  1.6131
34422SOL     OW 9228  10.486   6.181  11.104  0.7027 -0.0367 -0.2627
34422SOL    HW1 9229  10.570   6.135  11.111  0.8133  0.3651  1.9219
34422SOL    HW2 9230  10.508   6.273  11.120 -0.2635 -0.0961  1.7628
34423SOL     OW 9231   2.799   4.702   6.280 -0.4496 -0.1929  0.5480
34423SOL    HW1 9232   2.844   4.621   6.304  2.2591  1.2924  0.9390
34423SOL    HW2 9233   2.744   4.678   6.206  3.1637 -1.7633 -1.9331
34424SOL     OW 9234   0.099   7.727   1.636 -0.1501  0.4464  0.1127
34424SOL    HW1 9235   0.011   7.755   1.611 -0.0880  2.1629  1.6238
34424SOL    HW2 9236   0.157   7.796   1.603  0.7867 -1.0611 -1.5826
34425SOL     OW 9237  10.481   4.585  11.951  0.0906  0.3264  0.1733
34425SOL    HW1 9238  10.521   4.564  12.035  1.4792  2.4887  0.1364
34425SOL    HW2 9239  10.423   4.658  11.970  1.7337  2.0250 -0.9437
34426SOL     OW 9240   1.738   4.762   6.853  0.0350 -0.6439  0.3712
34426SOL    HW1 9241   1.777   4.840   6.815 -0.0309 -0.2623  1.0609
34426SOL    HW2 9242   1.713   4.789   6.942 -0.2596 -1.3614  0.5121
34427SOL     OW 9243   6.401   6.686   3.316 -0.1154 -0.3276 -0.0849
34427SOL    HW1 9244   6.340   6.729   3.257 -1.3410 -0.3374  1.1415
34427SOL    HW2 9245   6.488   6.716   3.287 -0.6105 -1.0130 -2.3999
34428SOL     OW 9246   0.336   8.584  11.911 -0.4827 -0.2628 -0.2931
34428SOL    HW1 9247   0.338   8.654  11.976 -1.6293 -0.4161 -0.0670
34428SOL    HW2 9248   0.392   8.615  11.840 -0.6070  0.6785  0.0044
34429SOL     OW 9249  11.926   3.958   7.641 -0.4128  0.1072  0.3997
34429SOL    HW1 9250  11.907   4.051   7.632 -1.0584 -0.1014 -0.6206
34429SOL    HW2 9251  11.908   3.922   7.554  0.7503 -0.8133  0.5258
34430SOL     OW 9252   5.548   6.921   2.409 -0.0460  0.6136 -0.1163
34430SOL    HW1 9253   5.473   6.962   2.453  0.3772  1.4437 -0.1482
34430SOL    HW2 9254   5.608   6.993   2.391  0.8528 -0.0600  0.0791
34431SOL     OW 9255   5.594   2.671   7.574  0.0114 -0.1555 -0.4343
34431SOL    HW1 9256   5.587   2.637   7.485  0.1815  1.2360 -1.0111
34431SOL    HW2 9257   5.660   2.740   7.568  0.3507 -0.3287  0.8720
34432SOL     OW 9258   3.891  11.014   8.223 -0.4781  0.1005  0.0388
34432SOL    HW1 9259   3.907  10.925   8.254  0.0956 -0.7566 -2.4259
34432SOL    HW2 9260   3.977  11.055   8.219 -0.4254 -0.0790 -1.0600
34433SOL     OW 9261   3.786  11.883   0.393 -0.1976 -0.5903 -0.2722
34433SOL    HW1 9262   3.711  11.823   0.402 -0.5707  0.0851  1.6977
34433SOL    HW2 9263   3.846  11.856   0.462  0.2736  0.3970 -0.2846
34434SOL     OW 9264   1.891   0.965   0.583  0.4506  0.5076 -0.3102
34434SOL    HW1 9265   1.883   0.891   0.523 -1.4432 -0.4964  1.0916
34434SOL    HW2 9266   1.951   0.934   0.651  0.7683  0.8013 -0.4504
34435SOL     OW 9267   5.332   8.255   2.867  0.0116  0.4155  0.0695
34435SOL    HW1 9268   5.317   8.204   2.787  1.5246  1.1688 -0.7339
34435SOL    HW2 9269   5.265   8.323   2.865 -0.2713  0.1286 -0.3012
34436SOL     OW 9270   7.966   0.202   0.302 -0.2166 -0.0957 -0.3800
34436SOL    HW1 9271   8.018   0.133   0.342 -2.9811 -2.5072 -0.6555
34436SOL    HW2 9272   8.009   0.219   0.218  1.9802  0.4929  0.7701
34437SOL     OW 9273  12.324   6.182   3.191  0.3735 -0.8320  0.1638
34437SOL    HW1 9274  12.267   6.109   3.165  0.1976 -0.9159  0.7748
34437SOL    HW2 9275  12.264   6.250   3.222  0.5660 -0.6410  0.1191
34438SOL     OW 9276   3.348   6.700   5.582  1.0631 -0.4474  0.0255
34438SOL    HW1 9277   3.356   6.627   5.521 -0.6446 -0.0873 -0.6939
34438SOL    HW2 9278   3.350   6.659   5.669 -1.2685 -1.5849 -0.3766
34439SOL     OW 9279   5.920  11.233   6.256  0.2914  0.4159 -0.0610
34439SOL    HW1 9280   5.903  11.145   6.288 -0.0005  0.3305 -0.4346
34439SOL    HW2 9281   5.864  11.241   6.179  0.7577  0.7147 -0.3764
34440SOL     OW 9282   1.976   4.241   6.780  0.3494 -0.3791  0.3738
34440SOL    HW1 9283   2.015   4.265   6.863 -1.2149  0.9506  0.7768
34440SOL    HW2 9284   1.894   4.198   6.804  0.7735 -1.7246 -0.4692
34441SOL     OW 9285   1.383  10.586   7.090  0.6052 -0.4498  0.1693
34441SOL    HW1 9286   1.335  10.660   7.055  0.2316  0.4316  2.3686
34441SOL    HW2 9287   1.316  10.525   7.120  0.8323 -0.0647  1.5359
34442SOL     OW 9288   2.136   9.449   3.478 -0.0897 -0.0205  0.5515
34442SOL    HW1 9289   2.218   9.452   3.528  0.4989 -1.2974 -0.2880
34442SOL    HW2 9290   2.094   9.368   3.505 -0.5848  0.1148  0.2032
34443SOL     OW 9291   1.994   6.108   0.800  0.5061 -0.0928  0.0966
34443SOL    HW1 9292   1.944   6.029   0.780 -1.0942 -0.0208  3.2502
34443SOL    HW2 9293   1.930   6.179   0.797  1.4496  0.7716 -0.3987
34444SOL     OW 9294  11.008   6.841   7.075  0.5765 -0.2802 -0.2201
34444SOL    HW1 9295  10.969   6.756   7.055 -0.1084 -0.4093  1.4998
34444SOL    HW2 9296  11.027   6.837   7.168  0.8652  1.3368 -0.1835
34445SOL     OW 9297   6.824   4.728   6.565 -0.3295  0.0739 -0.3776
34445SOL    HW1 9298   6.884   4.799   6.541 -1.3027  0.2520 -2.6072
34445SOL    HW2 9299   6.737   4.768   6.561 -0.7067 -0.1553  2.8720
34446SOL     OW 9300   9.569   7.057   8.029 -0.4175 -0.1277 -0.0143
34446SOL    HW1 9301   9.566   7.124   7.961  1.7830 -1.0331 -1.1321
34446SOL    HW2 9302   9.515   6.986   7.995 -0.9958  0.2331  0.1530
34447SOL     OW 9303   6.046   0.890   1.002  0.3838 -0.0256 -0.2435
34447SOL    HW1 9304   5.953   0.866   1.004  0.3942 -0.3760 -1.8719
34447SOL    HW2 9305   6.046   0.984   0.983  0.3172 -0.2906 -1.7375
34448SOL     OW 9306   8.490  12.269   4.748  0.7184 -0.1478 -0.7180
34448SOL    HW1 9307   8.431  12.218   4.692 -0.5973  0.1898  0.2937
34448SOL    HW2 9308   8.505  12.350   4.700 -2.5350  1.2940  0.4244
34449SOL     OW 9309  11.411   4.810   3.102  0.2067 -0.7230 -0.2222
34449SOL    HW1 9310  11.491   4.863   3.101 -0.0398 -0.3130  0.6470
34449SOL    HW2 9311  11.342   4.871   3.077 -0.3950 -0.0125  2.7962
34450SOL     OW 9312   0.727   6.935   8.673  0.1768  0.0671 -0.2366
34450SOL    HW1 9313   0.665   6.868   8.645 -2.2196  1.2751  1.8135
34450SOL    HW2 9314   0.720   7.004   8.607  0.7336 -0.5720 -0.9780
34451SOL     OW 9315  10.672   5.318   5.911  0.1956 -0.3590 -0.8283
34451SOL    HW1 9316  10.704   5.407   5.928 -0.9312 -0.1585  0.4960
34451SOL    HW2 9317  10.747   5.262   5.928  0.4661  0.2397  0.0140
34452SOL     OW 9318   1.827   5.498   9.300 -0.5356  0.1529  0.5221
34452SOL    HW1 9319   1.914   5.461   9.315 -0.1357  0.5240 -0.7626
34452SOL    HW2 9320   1.775   5.424   9.268 -0.4668  0.1053  0.5197
34453SOL     OW 9321  12.219   9.459   9.674  0.5745  0.0736 -0.7310
34453SOL    HW1 9322  12.196   9.420   9.758  0.6644  1.8091  0.1384
34453SOL    HW2 9323  12.202   9.390   9.610 -2.5451 -0.3327  0.3565
34454SOL     OW 9324  11.939   8.528   0.412 -0.0517  0.3003  0.7257
34454SOL    HW1 9325  11.881   8.477   0.469 -1.9265  1.7449  0.2307
34454SOL    HW2 9326  12.011   8.555   0.469  0.6104 -2.2238  1.1650
34455SOL     OW 9327   9.180   9.654  11.051  0.2049  1.0986 -0.1753
34455SOL    HW1 9328   9.203   9.568  11.016 -0.9609  0.4687  0.5423
34455SOL    HW2 9329   9.087   9.663  11.033  0.1251  1.8290  0.5471
34456SOL     OW 9330  10.121   6.816   3.338 -0.6905 -0.1368  0.4250
34456SOL    HW1 9331  10.029   6.813   3.312 -0.5615 -0.1883 -0.0382
34456SOL    HW2 9332  10.160   6.738   3.297 -0.1042  0.7327 -0.7321
34457SOL     OW 9333   9.181  10.437   9.247  0.3868 -0.5384 -0.4423
34457SOL    HW1 9334   9.260  10.412   9.296  1.8510  3.7699 -0.1692
34457SOL    HW2 9335   9.215  10.468   9.163 -1.2315 -0.4404 -1.0805
34458SOL     OW 9336  11.942   8.281  11.738 -0.7829  0.1022 -0.3810
34458SOL    HW1 9337  11.915   8.191  11.757  1.6213 -0.4222  1.0472
34458SOL    HW2 9338  11.950   8.322  11.825 -0.6698  1.3224 -0.9467
34459SOL     OW 9339   8.998  10.706  11.319 -0.2293 -0.5605  0.5461
34459SOL    HW1 9340   9.012  10.623  11.364  0.1359 -1.5861 -1.3703
34459SOL    HW2 9341   8.904  10.708  11.302 -0.2116 -0.6523  0.4421
34460SOL     OW 9342   5.330   5.613   4.877 -0.3734 -0.0153  0.3356
34460SOL    HW1 9343   5.365   5.692   4.917 -0.8066 -0.2771  1.2508
34460SOL    HW2 9344   5.407   5.560   4.855 -0.1481 -0.1190  1.3497
34461SOL     OW 9345   4.174   3.101   7.870 -0.0172 -0.9505  0.0397
34461SOL    HW1 9346   4.132   3.028   7.827 -0.5853 -1.1882  0.9695
34461SOL    HW2 9347   4.255   3.065   7.907  1.1158 -0.4713 -1.8339
34462SOL     OW 9348  10.351   9.139   4.834  0.1148 -0.0603  1.0886
34462SOL    HW1 9349  10.443   9.115   4.845  0.3012  0.2517  0.2365
34462SOL    HW2 9350  10.350   9.234   4.835 -0.1760 -0.0588  0.8694
34463SOL     OW 9351   2.265   1.258  11.868  0.0907 -0.6514 -0.0356
34463SOL    HW1 9352   2.341   1.211  11.833  0.2667  0.2607 -0.9089
34463SOL    HW2 9353   2.297   1.295  11.951 -0.0023 -1.8937  0.5813
34464SOL     OW 9354   6.121   3.148   7.845  0.5636 -0.2384 -0.6998
34464SOL    HW1 9355   6.032   3.132   7.816  0.3970 -1.0411  0.1875
34464SOL    HW2 9356   6.177   3.104   7.781  0.3545  0.6709 -1.5202
34465SOL     OW 9357  12.395   2.210   8.664 -0.0080 -0.0103 -0.0620
34465SOL    HW1 9358  12.419   2.274   8.597  2.5443  0.0927  0.8392
34465SOL    HW2 9359  12.445   2.131   8.641  1.0167  0.0595  1.7256
34466SOL     OW 9360   1.269   9.485   7.164  0.4979 -0.0138 -0.2224
34466SOL    HW1 9361   1.305   9.524   7.084  0.2781  0.2731 -0.1838
34466SOL    HW2 9362   1.243   9.396   7.138 -0.4233  0.3820 -0.7138
34467SOL     OW 9363   8.893   1.178   9.336  0.0758  0.3911  0.3574
34467SOL    HW1 9364   8.946   1.249   9.299 -0.2459  1.1513  1.3139
34467SOL    HW2 9365   8.917   1.101   9.284  1.5232  0.8803  0.2547
34468SOL     OW 9366   3.526   4.401   8.868 -0.1175 -0.3096  0.2145
34468SOL    HW1 9367   3.521   4.461   8.794 -0.6204 -1.5936 -0.8243
34468SOL    HW2 9368   3.558   4.455   8.941 -0.0976  1.0863 -0.7996
34469SOL     OW 9369   3.230   2.254  11.677  0.4208  0.5533 -0.0830
34469SOL    HW1 9370   3.216   2.163  11.649  1.7837  0.6857 -1.2958
34469SOL    HW2 9371   3.250   2.247  11.770 -2.6099 -0.0522  0.6608
34470SOL     OW 9372   6.483   7.874   1.368  0.7734  0.4619  0.5088
34470SOL    HW1 9373   6.541   7.949   1.379  1.6538 -0.2070  0.6495
34470SOL    HW2 9374   6.491   7.826   1.451  1.1712 -0.4023 -0.0143
34471SOL     OW 9375   2.657  12.428   0.545 -0.1564 -0.1182 -0.5138
34471SOL    HW1 9376   2.667  12.361   0.478 -0.9708 -0.6772 -0.0969
34471SOL    HW2 9377   2.747  12.455   0.567  0.1444 -0.5958 -1.1546
34472SOL     OW 9378   7.709   8.133   2.999  0.0981 -0.4812 -0.0626
34472SOL    HW1 9379   7.751   8.171   2.922  0.0428 -1.0811 -0.3948
34472SOL    HW2 9380   7.620   8.112   2.969  0.3319 -1.4836 -0.0865
34473SOL     OW 9381   9.008  11.343   7.753 -0.0288  0.1087 -0.7770
34473SOL    HW1 9382   8.971  11.294   7.826 -0.8344  1.9115  0.0955
34473SOL    HW2 9383   8.951  11.420   7.745  1.2765  0.9996 -1.9387
34474SOL     OW 9384   2.012   6.050   4.068  0.1862  0.5544  0.3855
34474SOL    HW1 9385   2.020   6.073   4.160  1.6747  1.0425  0.1594
34474SOL    HW2 9386   2.070   5.975   4.056 -0.7477 -0.1397  0.0328
34475SOL     OW 9387   7.708   8.692   0.364 -0.1105  0.0690  0.1153
34475SOL    HW1 9388   7.639   8.674   0.428 -0.9878  0.5400 -0.6869
34475SOL    HW2 9389   7.784   8.717   0.417 -0.6397 -0.1555  0.9932
34476SOL     OW 9390   4.936   5.292  11.037  0.0356 -0.1213 -0.0791
34476SOL    HW1 9391   4.911   5.267  11.126 -0.3450  2.7603  0.7311
34476SOL    HW2 9392   5.031   5.280  11.034 -0.1042 -1.4597  0.2513
34477SOL     OW 9393   4.131   6.705   3.679  0.7793  0.4594  0.5236
34477SOL    HW1 9394   4.140   6.758   3.600 -0.8523  1.0216  0.6905
34477SOL    HW2 9395   4.119   6.769   3.750  0.4730 -0.0939  0.9756
34478SOL     OW 9396   0.403   6.178   6.277 -0.6021  0.6007 -0.3284
34478SOL    HW1 9397   0.443   6.202   6.194  0.6745 -1.2762 -0.3201
34478SOL    HW2 9398   0.310   6.164   6.256 -0.9471  3.1296 -0.7392
34479SOL     OW 9399   5.703   6.333   5.152  0.1057 -0.8805 -0.2839
34479SOL    HW1 9400   5.768   6.305   5.216  1.5593  2.9198  0.1975
34479SOL    HW2 9401   5.750   6.333   5.068  0.0345 -0.3036 -0.3285
34480SOL     OW 9402   9.538  11.132   1.088  0.3256  0.0742  0.4711
34480SOL    HW1 9403   9.556  11.217   1.128  0.5640  0.6081 -0.7048
34480SOL    HW2 9404   9.489  11.154   1.008 -0.6730 -0.9812  0.7736
34481SOL     OW 9405  10.077   2.265   5.213 -0.2202 -0.4559  0.0660
34481SOL    HW1 9406  10.150   2.214   5.249  0.1917  0.2433  0.2417
34481SOL    HW2 9407  10.047   2.215   5.137  0.0976 -1.0144  0.3025
34482SOL     OW 9408   3.447  12.414   1.116  0.7115 -0.3857  0.0584
34482SOL    HW1 9409   3.475  12.497   1.155  0.9614  0.3513 -1.5599
34482SOL    HW2 9410   3.491  12.346   1.166  4.0175  0.6266 -1.1980
34483SOL     OW 9411   6.647   6.400  12.309  0.3481  0.3673  0.3561
34483SOL    HW1 9412   6.594   6.349  12.369 -0.3355  0.8717  0.1886
34483SOL    HW2 9413   6.590   6.471  12.281  1.1329  0.9572  0.2260
34484SOL     OW 9414   3.009   9.110   4.409 -0.2681  1.0532 -0.5464
34484SOL    HW1 9415   3.046   9.164   4.478  2.4605  1.5423 -2.2483
34484SOL    HW2 9416   2.976   9.172   4.345 -3.4461  0.6190  0.4695
34485SOL     OW 9417  12.027   1.868  12.388  0.1869 -0.3556  0.0083
34485SOL    HW1 9418  12.105   1.843  12.338  1.4158  0.3155  1.5195
34485SOL    HW2 9419  12.034   1.818  12.470  1.2822  2.7117  1.9345
34486SOL     OW 9420   8.720  10.306   8.425 -0.2081 -0.2465 -0.2628
34486SOL    HW1 9421   8.740  10.397   8.449  0.9617 -0.6549  0.3786
34486SOL    HW2 9422   8.641  10.313   8.371  1.3497  1.4508 -2.5640
34487SOL     OW 9423  11.051   0.906   4.360 -0.3279 -0.0139  0.1870
34487SOL    HW1 9424  11.000   0.903   4.280 -0.6900 -1.3426  0.4333
34487SOL    HW2 9425  10.989   0.933   4.428 -0.4458 -0.5340  0.2937
34488SOL     OW 9426   0.286   2.979   9.674 -0.2077  0.0669 -0.0324
34488SOL    HW1 9427   0.382   2.976   9.679 -0.1855 -1.3501 -0.8390
34488SOL    HW2 9428   0.266   3.070   9.652  0.9244  0.4604  0.4747
34489SOL     OW 9429  12.051   0.609   0.410  0.3688  0.2026  0.5082
34489SOL    HW1 9430  11.986   0.652   0.355 -0.7022 -1.3069  0.5273
34489SOL    HW2 9431  12.020   0.625   0.500 -0.3010 -0.9247  0.5045
34490SOL     OW 9432   2.835   5.189  12.138  0.0684 -0.0062  0.0811
34490SOL    HW1 9433   2.807   5.258  12.078 -0.3025  0.4733  0.8005
34490SOL    HW2 9434   2.927   5.207  12.155 -0.4428  1.3422  1.6179
34491SOL     OW 9435   3.461   4.750  12.048  0.2397 -0.0501  0.0891
34491SOL    HW1 9436   3.510   4.715  11.974 -1.6996 -0.2430 -1.1895
34491SOL    HW2 9437   3.408   4.677  12.080  0.7800  0.1246  1.4606
34492SOL     OW 9438   7.758   0.893   4.658  0.1749  0.0094  0.5853
34492SOL    HW1 9439   7.825   0.832   4.689  0.9210  0.3112 -0.4053
34492SOL    HW2 9440   7.797   0.980   4.670  0.4913  0.1408 -1.1417
34493SOL     OW 9441  11.017   8.007   8.630  0.0843 -0.1701  0.3360
34493SOL    HW1 9442  11.036   7.965   8.715  2.0495 -0.0560 -0.0064
34493SOL    HW2 9443  11.026   7.937   8.566  0.9763  0.2417 -0.0017
34494SOL     OW 9444   1.323   4.690  11.427 -0.2909 -0.0793 -0.3674
34494SOL    HW1 9445   1.302   4.769  11.377  0.0556 -0.9095 -1.8891
34494SOL    HW2 9446   1.237   4.657  11.454 -0.3852  1.6181  1.6757
34495SOL     OW 9447  11.790  11.925   5.892 -0.0444  0.4819  0.1535
34495SOL    HW1 9448  11.734  11.964   5.958 -0.5051 -1.1295  0.7598
34495SOL    HW2 9449  11.865  11.984   5.886 -1.5008  2.3936 -0.2865
34496SOL     OW 9450   9.112   3.920  12.012 -0.1096  0.0378 -0.0316
34496SOL    HW1 9451   9.135   3.838  12.057  2.0098  0.0032 -1.0671
34496SOL    HW2 9452   9.093   3.981  12.083  0.4959 -0.7490  0.8394
34497SOL     OW 9453  10.663   9.880   0.933  0.1732 -0.5873 -0.4034
34497SOL    HW1 9454  10.646   9.806   0.875 -0.0331 -1.9529  1.3293
34497SOL    HW2 9455  10.726   9.847   0.996 -0.3583  0.5243  0.7519
34498SOL     OW 9456   4.818  10.271  10.509 -0.1813  0.2581  0.3536
34498SOL    HW1 9457   4.902  10.288  10.467  0.2218 -1.9301  0.1618
34498SOL    HW2 9458   4.839  10.257  10.601 -0.3034 -0.4664  0.2757
34499SOL     OW 9459   9.543   8.075   3.227  0.5694  0.6783  0.2797
34499SOL    HW1 9460   9.533   8.062   3.132  0.5765  0.8421  0.2575
34499SOL    HW2 9461   9.633   8.103   3.238  0.9927 -0.6596  0.4680
34500SOL     OW 9462   3.887   1.311  11.323  0.3032 -0.3333 -0.1580
34500SOL    HW1 9463   3.837   1.352  11.394 -1.7029 -0.8100 -1.2046
34500SOL    HW2 9464   3.943   1.247  11.366 -0.9996 -0.7348  1.0102
34501SOL     OW 9465  10.732   9.122   7.526  0.3251 -0.3548 -0.0222
34501SOL    HW1 9466  10.752   9.117   7.433 -0.3908  1.2359 -0.2952
34501SOL    HW2 9467  10.652   9.070   7.536  1.0828 -1.5543 -0.0531
34502SOL     OW 9468   2.313   3.848   3.517 -0.0657 -0.0531 -0.4920
34502SOL    HW1 9469   2.369   3.842   3.440 -0.7450 -2.2940 -0.8706
34502SOL    HW2 9470   2.313   3.760   3.554 -2.0689  0.2741  0.4090
34503SOL     OW 9471   8.497   5.449  11.277 -0.2931 -0.1438  0.3853
34503SOL    HW1 9472   8.449   5.527  11.250 -0.2039  0.8030  2.7616
34503SOL    HW2 9473   8.459   5.379  11.224 -1.6182  1.1997 -0.5383
34504SOL     OW 9474  12.447   4.837   9.809  0.7277 -0.5736 -0.2865
34504SOL    HW1 9475  12.396   4.892   9.870  0.5782 -0.1048 -0.8283
34504SOL    HW2 9476  12.382   4.778   9.770  0.9682 -1.5043  0.6744
34505SOL     OW 9477   1.388   8.042   0.710  0.2181  0.6187 -0.0399
34505SOL    HW1 9478   1.413   7.987   0.636  0.3319 -0.1352  0.5517
34505SOL    HW2 9479   1.357   8.123   0.670 -1.2586 -0.3710 -0.9973
34506SOL     OW 9480   1.743   9.860   6.059 -0.3608  0.0910 -0.5915
34506SOL    HW1 9481   1.830   9.862   6.097 -0.8689 -1.7719  0.7874
34506SOL    HW2 9482   1.758   9.841   5.966  0.6745 -2.2005 -0.0273
34507SOL     OW 9483   0.460   7.401   5.634  0.0628  0.0213 -0.1547
34507SOL    HW1 9484   0.497   7.416   5.547 -0.3311 -1.7583 -0.6684
34507SOL    HW2 9485   0.393   7.335   5.620 -0.6366  0.3671  1.3797
34508SOL     OW 9486   0.210   2.492  12.252  0.1401  0.1067 -0.4953
34508SOL    HW1 9487   0.219   2.536  12.167  2.5568  0.0602 -0.3435
34508SOL    HW2 9488   0.120   2.460  12.253 -0.9576  2.8273 -1.6933
34509SOL     OW 9489   3.393  11.726  11.735 -0.2296  0.2034  0.2199
34509SOL    HW1 9490   3.321  11.663  11.725  0.9118 -0.8218 -2.7541
34509SOL    HW2 9491   3.472  11.671  11.740  0.5181  1.3466  1.6817
34510SOL     OW 9492   0.934   5.805   4.515  0.2066 -0.4867 -0.5073
34510SOL    HW1 9493   0.916   5.854   4.434  1.5379 -0.0238 -0.5584
34510SOL    HW2 9494   0.966   5.871   4.576  2.0051 -1.2441 -0.5644
34511SOL     OW 9495   6.971   6.620   3.027  0.4228  0.2429  0.5617
34511SOL    HW1 9496   6.940   6.613   2.937  1.5306  1.2235  0.0717
34511SOL    HW2 9497   6.953   6.711   3.052  0.4887  0.0918  1.1793
34512SOL     OW 9498   7.436  10.433   5.390  0.7506 -0.2688  0.7775
34512SOL    HW1 9499   7.346  10.461   5.369  0.1009 -3.2448 -0.9309
34512SOL    HW2 9500   7.491  10.503   5.355 -0.8232  0.3135 -0.6920
34513SOL     OW 9501   1.414  11.103   5.500 -0.0783 -0.0037 -0.5233
34513SOL    HW1 9502   1.323  11.102   5.528  0.3536  0.5381  0.9872
34513SOL    HW2 9503   1.439  11.195   5.501  0.2981 -0.0823 -1.6039
34514SOL     OW 9504   6.329   0.906   9.568 -0.1523 -0.5683 -0.1056
34514SOL    HW1 9505   6.425   0.904   9.569 -0.0922  1.0682 -0.0435
34514SOL    HW2 9506   6.305   0.878   9.480  0.2893 -2.7693  0.4346
34515SOL     OW 9507   3.188   9.773   3.507 -0.4667 -0.3205 -0.4694
34515SOL    HW1 9508   3.213   9.766   3.415  0.6574  2.4255 -0.4735
34515SOL    HW2 9509   3.255   9.830   3.545 -0.2861 -2.2222  2.3407
34516SOL     OW 9510   7.688   3.441   2.708 -0.2167  0.1255 -0.0291
34516SOL    HW1 9511   7.743   3.378   2.662  2.1721  1.6301  0.6191
34516SOL    HW2 9512   7.666   3.506   2.641  2.0796  1.5543  0.4951
34517SOL     OW 9513  12.374   5.311   8.797 -0.0514  0.4320 -0.2410
34517SOL    HW1 9514  12.438   5.274   8.736  1.3379 -1.1493  2.0198
34517SOL    HW2 9515  12.418   5.310   8.882 -2.7376  0.1813  1.2653
34518SOL     OW 9516   6.383  10.421   7.886  0.1843  0.0903  0.4050
34518SOL    HW1 9517   6.289  10.423   7.873  0.1487 -0.4419  0.5754
34518SOL    HW2 9518   6.398  10.471   7.966 -0.1655 -1.5901  1.5693
34519SOL     OW 9519   1.121   7.834   2.135  0.4329 -0.0994 -0.4736
34519SOL    HW1 9520   1.128   7.928   2.150 -0.0315 -0.2731  1.0950
34519SOL    HW2 9521   1.032   7.821   2.103 -0.4825 -0.2352  1.9268
34520SOL     OW 9522   2.459   6.156   3.039 -0.1974  0.1752  0.3346
34520SOL    HW1 9523   2.523   6.085   3.043 -0.1510  0.1826 -0.1707
34520SOL    HW2 9524   2.497   6.219   2.978 -0.9208 -0.0648 -0.3853
34521SOL     OW 9525   0.560  11.517  11.728  0.2947  0.5282  0.3372
34521SOL    HW1 9526   0.603  11.437  11.759 -0.9061 -0.7196 -1.0555
34521SOL    HW2 9527   0.592  11.528  11.639 -1.0275  0.4544 -0.1733
34522SOL     OW 9528   4.642  11.502  10.290  0.5255  0.6866  0.0997
34522SOL    HW1 9529   4.694  11.576  10.258  0.4207 -0.0799 -1.9675
34522SOL    HW2 9530   4.557  11.512  10.248 -0.0201  0.2473  1.0644
34523SOL     OW 9531   2.840  11.683   7.337  0.3114  0.1865  0.0730
34523SOL    HW1 9532   2.768  11.694   7.399  0.4664  1.1099  0.1062
34523SOL    HW2 9533   2.865  11.772   7.313  3.2421  0.0991  2.1612
34524SOL     OW 9534   4.188   3.656   2.414  0.1191 -0.3123 -0.0456
34524SOL    HW1 9535   4.273   3.626   2.448  0.2982 -0.0746 -0.2728
34524SOL    HW2 9536   4.190   3.632   2.321  1.2304  2.3541 -0.8198
34525SOL     OW 9537   9.195   8.486  11.547  0.0559  0.5243 -0.4516
34525SOL    HW1 9538   9.176   8.574  11.515 -0.5153  0.8240  0.6500
34525SOL    HW2 9539   9.220   8.498  11.639  1.0125 -0.3624 -0.5706
34526SOL     OW 9540   2.841   1.337   0.535  0.6529 -0.2864  0.0544
34526SOL    HW1 9541   2.761   1.286   0.527  0.4228  0.1474 -0.4885
34526SOL    HW2 9542   2.824   1.397   0.608  1.1203 -1.3089  1.0473
34527SOL     OW 9543   1.539   0.265   0.556 -0.4570  0.2989 -0.1916
34527SOL    HW1 9544   1.505   0.184   0.518  0.2369 -1.2988  2.2597
34527SOL    HW2 9545   1.585   0.235   0.635  1.5442  2.9207 -0.2473
34528SOL     OW 9546  10.482   0.697   6.098  0.1802 -0.4409 -0.6735
34528SOL    HW1 9547  10.474   0.602   6.093  1.2366 -0.6333  0.8363
34528SOL    HW2 9548  10.564   0.717   6.053  1.1931 -0.5195  1.0649
34529SOL     OW 9549   1.743   7.390   6.887  0.2193  0.1028 -0.2834
34529SOL    HW1 9550   1.695   7.436   6.818  0.9498  0.5351 -0.5194
34529SOL    HW2 9551   1.676   7.343   6.936 -0.4769  0.9065 -0.4375
34530SOL     OW 9552  12.364   2.141   9.902 -0.1962  0.9255  0.2576
34530SOL    HW1 9553  12.352   2.188   9.985  0.8206 -0.4910  1.2729
34530SOL    HW2 9554  12.284   2.088   9.894  1.0775 -1.5169  2.1933
34531SOL     OW 9555   5.858   0.920   8.616 -0.5496 -0.4520 -0.7222
34531SOL    HW1 9556   5.846   0.890   8.525  0.4027 -2.2225 -0.3128
34531SOL    HW2 9557   5.797   0.867   8.666 -0.2542 -0.2929 -0.1920
34532SOL     OW 9558   0.287   9.602   7.104  0.1139  0.6654  0.0760
34532SOL    HW1 9559   0.241   9.596   7.020 -0.4841  0.7773  0.3946
34532SOL    HW2 9560   0.225   9.645   7.163  0.5744  0.6962  0.5497
34533SOL     OW 9561   6.950  10.851   6.550  0.6615 -0.7344 -0.1592
34533SOL    HW1 9562   7.043  10.862   6.529  0.4018  0.2400 -0.8701
34533SOL    HW2 9563   6.942  10.760   6.577  1.9200 -0.6951  0.4253
34534SOL     OW 9564   0.999   7.200   4.033 -0.1558 -0.2936  0.2554
34534SOL    HW1 9565   1.022   7.275   4.089  1.7152 -2.1860  2.1847
34534SOL    HW2 9566   0.962   7.136   4.093  0.2313 -1.7471 -1.0089
34535SOL     OW 9567   6.714   5.274   3.786  0.2652 -0.1786  0.3467
34535SOL    HW1 9568   6.645   5.209   3.804  0.6676 -0.0926  2.3944
34535SOL    HW2 9569   6.677   5.328   3.717 -1.5416 -0.4444  1.0345
34536SOL     OW 9570   7.215   2.531   8.304  0.7753 -0.6593  0.4490
34536SOL    HW1 9571   7.124   2.503   8.295  0.2959  1.1400 -0.7945
34536SOL    HW2 9572   7.223   2.559   8.395  0.0144 -0.5734  0.4945
34537SOL     OW 9573   0.378   6.527   8.921 -0.0523  0.9957 -0.0763
34537SOL    HW1 9574   0.444   6.549   8.986  1.2326  1.5009 -1.4747
34537SOL    HW2 9575   0.427   6.486   8.850 -1.5189 -0.2957 -0.3909
34538SOL     OW 9576   8.457   2.830   0.871 -0.3719  0.0045 -0.1706
34538SOL    HW1 9577   8.543   2.832   0.830 -0.6339 -0.9604 -0.7995
34538SOL    HW2 9578   8.470   2.781   0.952 -0.3407 -0.1953 -0.2958
34539SOL     OW 9579  10.225   2.138   9.630 -0.8402  0.3002 -0.1263
34539SOL    HW1 9580  10.302   2.191   9.610  0.9863 -1.3891  1.9240
34539SOL    HW2 9581  10.211   2.150   9.724 -1.4521 -1.4278  0.0441
34540SOL     OW 9582   8.013   5.070   6.113  0.1232  0.3579 -0.7051
34540SOL    HW1 9583   7.956   5.017   6.056  0.8749 -0.8026 -0.4213
34540SOL    HW2 9584   7.952   5.126   6.162 -0.8985 -1.4499  0.2226
34541SOL     OW 9585  11.855   0.454   2.459  0.1794 -0.3956 -0.2842
34541SOL    HW1 9586  11.799   0.520   2.501  1.1055  0.6251 -0.6047
34541SOL    HW2 9587  11.861   0.384   2.524 -1.3627 -0.4827 -0.1995
34542SOL     OW 9588  12.182   7.780   2.031 -0.1436 -0.1470 -0.5013
34542SOL    HW1 9589  12.210   7.712   1.970 -0.9309 -0.2295 -0.7800
34542SOL    HW2 9590  12.241   7.853   2.014 -0.7526  0.0673 -1.8198
34543SOL     OW 9591   5.729   3.079   9.663  0.0086 -0.1005  0.4329
34543SOL    HW1 9592   5.758   3.156   9.712  1.5838 -0.6519  0.4417
34543SOL    HW2 9593   5.635   3.090   9.653  0.1365  1.6009  0.8235
34544SOL     OW 9594   8.891   6.038   1.631  0.0941  0.0089 -0.1335
34544SOL    HW1 9595   8.974   5.994   1.612 -0.2813 -0.7139 -0.1407
34544SOL    HW2 9596   8.915   6.112   1.687  0.4621 -1.7145  2.1108
34545SOL     OW 9597   1.445   2.513  11.180 -0.2049  0.2597  0.3332
34545SOL    HW1 9598   1.394   2.497  11.100 -0.4654 -1.1248  0.7470
34545SOL    HW2 9599   1.490   2.595  11.163 -0.5135  0.1629 -1.1127
34546SOL     OW 9600   1.165   8.254   5.161 -0.0352  0.0519  0.3432
34546SOL    HW1 9601   1.103   8.319   5.196  1.3997  1.2160  0.8246
34546SOL    HW2 9602   1.180   8.194   5.234 -0.3457 -0.0580  0.3211
34547SOL     OW 9603   8.909   8.041   8.964  0.3154 -0.1341  0.1938
34547SOL    HW1 9604   8.815   8.045   8.942 -0.0669 -3.1172  0.8233
34547SOL    HW2 9605   8.948   8.111   8.912 -2.2202  1.1231 -0.2156
34548SOL     OW 9606  10.425   5.133   8.687 -0.0971  0.1728  0.4038
34548SOL    HW1 9607  10.370   5.100   8.759 -0.1841 -1.0359 -0.1936
34548SOL    HW2 9608  10.450   5.055   8.638  0.3406  0.9332 -0.6243
34549SOL     OW 9609   5.532   3.278   9.337  0.4488 -0.6438 -0.5613
34549SOL    HW1 9610   5.513   3.295   9.245  0.3399  0.8062 -0.3094
34549SOL    HW2 9611   5.477   3.203   9.360  1.0779 -1.5328 -1.8641
34550SOL     OW 9612   7.265   3.909  11.522  0.4460 -0.1278  0.0394
34550SOL    HW1 9613   7.336   3.939  11.578  0.1074 -0.9983  0.9600
34550SOL    HW2 9614   7.308   3.877  11.443  1.0526 -0.2888  0.4320
34551SOL     OW 9615   0.237   4.067   1.094  0.1800  0.2835 -0.1662
34551SOL    HW1 9616   0.174   4.127   1.135 -1.4439 -0.3600 -1.5872
34551SOL    HW2 9617   0.221   4.077   1.000  0.5546 -1.6446 -0.4685
34552SOL     OW 9618   9.777  11.431  12.060  0.2334 -0.4981  0.4157
34552SOL    HW1 9619   9.801  11.508  12.009  3.6219 -1.9853 -0.5266
34552SOL    HW2 9620   9.682  11.424  12.051 -0.2079  3.4116  0.4815
34553SOL     OW 9621   8.643   6.436   5.119  0.2201 -0.1859  0.3063
34553SOL    HW1 9622   8.625   6.512   5.065  0.0100 -0.5119 -0.0874
34553SOL    HW2 9623   8.714   6.390   5.074 -0.0787 -0.5552  0.2135
34554SOL     OW 9624   3.065   4.114  11.742  0.0191 -0.1203 -0.4108
34554SOL    HW1 9625   3.056   4.209  11.741  0.7391 -0.0498 -0.7866
34554SOL    HW2 9626   3.159   4.099  11.750 -0.0965 -0.8032 -0.2863
34555SOL     OW 9627   3.010   4.769   1.711  0.4302  0.6926  0.0448
34555SOL    HW1 9628   2.998   4.683   1.752 -2.9309  1.8897  1.9887
34555SOL    HW2 9629   3.091   4.803   1.749 -0.4345  0.0528  2.7081
34556SOL     OW 9630   0.889  11.717  11.322 -0.3892  0.1123 -0.2815
34556SOL    HW1 9631   0.873  11.805  11.287 -2.9968 -0.2230 -0.1601
34556SOL    HW2 9632   0.880  11.728  11.417 -3.0225 -0.5578 -0.3567
34557SOL     OW 9633   9.443  11.515   0.061  0.1489 -0.1016 -0.2924
34557SOL    HW1 9634   9.482  11.482  -0.021 -0.1480  0.1171 -0.5225
34557SOL    HW2 9635   9.354  11.540   0.037 -0.3707 -1.2297  0.3834
34558SOL     OW 9636   8.052   1.916   2.137 -0.0791  0.2614 -0.1660
34558SOL    HW1 9637   8.009   1.905   2.221  0.6399  0.1763  0.1974
34558SOL    HW2 9638   8.096   2.001   2.144 -2.5090  1.7529 -1.5757
34559SOL     OW 9639   7.193   4.871   5.639  0.3590  0.0003 -0.0765
34559SOL    HW1 9640   7.246   4.792   5.648 -0.1524 -0.6681 -2.3172
34559SOL    HW2 9641   7.103   4.839   5.629  0.1121  0.8541 -0.7298
34560SOL     OW 9642   4.650   3.542   9.240  1.1443  0.1013  0.0033
34560SOL    HW1 9643   4.691   3.467   9.197  1.0033  1.0463 -1.8769
34560SOL    HW2 9644   4.598   3.583   9.172 -0.5357  0.6803  1.5717
34561SOL     OW 9645  11.332   6.400   4.214 -0.2557  0.2645  0.0424
34561SOL    HW1 9646  11.287   6.445   4.142  1.4402  0.0597 -1.1961
34561SOL    HW2 9647  11.410   6.362   4.174  0.6050 -0.0891  1.9518
34562SOL     OW 9648   1.412   7.224   5.414 -0.6135 -0.1341  0.1122
34562SOL    HW1 9649   1.382   7.315   5.411 -0.5902  0.0262  2.7061
34562SOL    HW2 9650   1.336   7.173   5.387 -0.7699  0.5876 -0.8993
34563SOL     OW 9651   6.066   5.944  11.815 -0.3292  0.8649  0.3155
34563SOL    HW1 9652   6.053   5.985  11.901  0.5281  1.7156  0.0467
34563SOL    HW2 9653   6.032   6.007  11.752 -0.5199  0.4491 -0.0041
34564SOL     OW 9654   1.258   4.561   5.475 -0.2848 -0.3181 -0.2427
34564SOL    HW1 9655   1.192   4.630   5.467  0.4511  0.4329  0.0141
34564SOL    HW2 9656   1.266   4.548   5.570  1.0593  0.7190 -0.1913
34565SOL     OW 9657   4.402  11.690   1.208 -0.2119 -0.0362  0.1583
34565SOL    HW1 9658   4.338  11.759   1.189 -0.7042 -0.8243 -1.1968
34565SOL    HW2 9659   4.476  11.709   1.151  0.6549  0.6884  1.4913
34566SOL     OW 9660   4.054   4.094   9.053 -0.1996 -0.2571  0.0794
34566SOL    HW1 9661   4.134   4.042   9.056  0.0970  0.1171 -1.0238
34566SOL    HW2 9662   4.015   4.073   8.968 -0.9656  0.0204  0.3554
34567SOL     OW 9663   1.320   2.280   3.826 -0.2597 -0.1282  0.5080
34567SOL    HW1 9664   1.291   2.290   3.735 -1.4987 -0.4683  0.8513
34567SOL    HW2 9665   1.413   2.260   3.819 -0.1872  0.5171 -0.6575
34568SOL     OW 9666   2.365  10.328  10.025 -0.3179 -0.6974  0.1949
34568SOL    HW1 9667   2.317  10.269   9.968  0.5447  0.3220 -1.6699
34568SOL    HW2 9668   2.321  10.321  10.110 -0.7526 -3.3372 -0.1623
34569SOL     OW 9669   3.621  12.136  12.145  0.6620  0.4445 -0.6711
34569SOL    HW1 9670   3.616  12.198  12.218  0.6682 -0.1049 -0.1999
34569SOL    HW2 9671   3.648  12.189  12.070  1.1575  0.9187 -0.1604
34570SOL     OW 9672  11.769   0.187  10.745  0.3747 -0.8819 -0.6809
34570SOL    HW1 9673  11.777   0.274  10.707  0.5921 -0.9235 -0.7378
34570SOL    HW2 9674  11.701   0.143  10.693  0.1288 -0.6805 -0.5264
34571SOL     OW 9675   3.723   3.032   6.121 -0.0842 -0.4132  0.2142
34571SOL    HW1 9676   3.654   3.091   6.151 -0.2298 -0.8448  0.7267
34571SOL    HW2 9677   3.789   3.090   6.083 -1.3389 -0.0685 -1.5711
34572SOL     OW 9678   9.282   0.152   9.647  0.3664 -0.6855 -0.1340
34572SOL    HW1 9679   9.238   0.122   9.567 -0.1746  0.0634 -0.1296
34572SOL    HW2 9680   9.216   0.140   9.716 -0.0843  0.9893 -0.2195
34573SOL     OW 9681  11.551  11.913   2.777 -0.0676 -0.7164 -0.1563
34573SOL    HW1 9682  11.562  11.927   2.871 -0.6369 -0.6960 -0.0903
34573SOL    HW2 9683  11.581  11.823   2.762  0.1022 -0.6901  0.0306
34574SOL     OW 9684  10.022   8.492   8.662  0.8103 -0.2187  0.5893
34574SOL    HW1 9685  10.082   8.561   8.691 -0.7383  0.7274  1.6447
34574SOL    HW2 9686  10.023   8.427   8.732 -0.2795  0.3828  1.1859
34575SOL     OW 9687   0.762  10.954   3.050 -0.1231  0.0019 -0.1500
34575SOL    HW1 9688   0.703  11.008   2.997 -1.0006 -1.0243 -0.2451
34575SOL    HW2 9689   0.812  11.017   3.102  1.2936  1.1077 -2.6761
34576SOL     OW 9690   5.523  10.273   0.761  0.6059  0.1596 -0.3731
34576SOL    HW1 9691   5.537  10.181   0.784 -0.4399 -0.1919 -1.0689
34576SOL    HW2 9692   5.470  10.270   0.681  0.0400  1.3671 -0.0671
34577SOL     OW 9693   4.683   9.243   1.402 -0.3758  0.2970 -0.3238
34577SOL    HW1 9694   4.753   9.201   1.453  0.0181  1.0879 -0.2035
34577SOL    HW2 9695   4.606   9.188   1.417  0.5304 -1.4494 -1.6240
34578SOL     OW 9696  10.825   6.751   1.431  0.3846 -0.6388 -0.6087
34578SOL    HW1 9697  10.808   6.660   1.458 -0.5219  0.2951  2.2756
34578SOL    HW2 9698  10.752   6.771   1.371  2.0662 -2.5409 -3.5768
34579SOL     OW 9699   4.773   5.437   0.310 -0.3621 -0.4661 -0.4795
34579SOL    HW1 9700   4.862   5.403   0.302  0.7988  2.3421 -0.7330
34579SOL    HW2 9701   4.764   5.460   0.402 -0.2974  0.4775 -0.6969
34580SOL     OW 9702   3.814   2.429  11.552  0.1402 -0.1663  0.0565
34580SOL    HW1 9703   3.834   2.364  11.485  1.4149  1.1033 -0.8635
34580SOL    HW2 9704   3.820   2.513  11.506 -0.2691  0.6671  1.4736
34581SOL     OW 9705   7.116  10.564   0.420  0.0695  0.1478 -0.4531
34581SOL    HW1 9706   7.046  10.628   0.428  1.0323  1.0831  0.8623
34581SOL    HW2 9707   7.074  10.480   0.437 -1.0390  0.5110 -1.3442
34582SOL     OW 9708  11.578  11.013   5.698  0.0427  0.3732 -0.6074
34582SOL    HW1 9709  11.668  10.992   5.676 -0.3306 -1.3369 -0.5946
34582SOL    HW2 9710  11.526  10.947   5.653 -1.1812  0.9820 -0.1375
34583SOL     OW 9711   1.783   2.714   9.667  0.3872 -0.7565 -0.1650
34583SOL    HW1 9712   1.843   2.690   9.597 -0.5255 -1.4130 -0.7476
34583SOL    HW2 9713   1.831   2.778   9.719  1.8792 -1.8180 -0.1691
34584SOL     OW 9714   0.970   7.056  11.564  0.2022  0.2359  0.4584
34584SOL    HW1 9715   0.922   7.040  11.483  0.7651 -1.2195  0.3745
34584SOL    HW2 9716   0.935   6.992  11.626  0.4424  0.6867  1.0687
34585SOL     OW 9717   3.849   8.017   7.995 -0.3099  0.5686 -0.1835
34585SOL    HW1 9718   3.826   8.022   7.903 -1.5686  1.0896  0.1284
34585SOL    HW2 9719   3.879   7.927   8.009 -1.8813 -0.0770 -0.7310
34586SOL     OW 9720  10.266  10.782   0.542 -0.0302  0.2358  0.3856
34586SOL    HW1 9721  10.290  10.851   0.479  0.9766 -0.5392 -0.0931
34586SOL    HW2 9722  10.216  10.719   0.490  1.1807 -0.6297  0.2406
34587SOL     OW 9723   3.122   1.571   6.499  0.0370 -0.0974 -0.0153
34587SOL    HW1 9724   3.111   1.478   6.477 -1.3258  0.3774 -1.5334
34587SOL    HW2 9725   3.207   1.575   6.543  1.0608 -1.7781 -1.6972
34588SOL     OW 9726  11.729   3.775  12.168  0.3143 -0.0423 -0.6032
34588SOL    HW1 9727  11.799   3.710  12.180  0.5372  0.5721  2.2926
34588SOL    HW2 9728  11.649   3.724  12.173  0.5152 -0.3048  0.0708
34589SOL     OW 9729   8.023   2.252  10.606  0.1526  0.1602  0.6321
34589SOL    HW1 9730   7.939   2.263  10.651 -0.0695 -1.9730  0.8587
34589SOL    HW2 9731   8.073   2.192  10.662  0.9957 -0.2614 -0.5292
34590SOL     OW 9732   6.195   2.489   1.755  0.3456  0.5010  0.1975
34590SOL    HW1 9733   6.246   2.534   1.688  1.1380  0.0561  0.4957
34590SOL    HW2 9734   6.112   2.537   1.757  0.0058  0.0810 -1.6219
34591SOL     OW 9735   7.914  12.418   5.968  0.1548  0.6136 -0.2829
34591SOL    HW1 9736   7.872  12.495   6.006  0.7584  0.7541  0.1238
34591SOL    HW2 9737   7.875  12.410   5.881 -0.8636  0.5948  0.1649
34592SOL     OW 9738   0.773   6.776   3.580 -0.2890  0.1599 -0.0185
34592SOL    HW1 9739   0.752   6.869   3.570 -0.6358  0.4832  2.8870
34592SOL    HW2 9740   0.706   6.742   3.640  0.9572 -1.4835  0.5397
34593SOL     OW 9741   8.429   9.851  10.843  0.0004 -0.0651 -0.6409
34593SOL    HW1 9742   8.337   9.863  10.864 -0.0071  0.4788 -0.9402
34593SOL    HW2 9743   8.471   9.932  10.873  0.6752 -0.9856  1.0591
34594SOL     OW 9744   0.991  10.121   9.912 -0.2466  0.2012 -0.2862
34594SOL    HW1 9745   0.959  10.044   9.958 -1.1583  1.4553  1.2893
34594SOL    HW2 9746   0.936  10.129   9.834 -3.1479  1.6353  1.7533
34595SOL     OW 9747   1.711   4.436  11.253  0.6953 -1.0433 -0.5342
34595SOL    HW1 9748   1.626   4.394  11.242  0.9685 -1.5518 -0.7490
34595SOL    HW2 9749   1.691   4.518  11.297  0.0578 -1.0061 -0.8725
34596SOL     OW 9750   5.971   6.878   1.770  0.5164 -0.1156  0.2813
34596SOL    HW1 9751   6.012   6.825   1.839  1.1428  0.9507  0.7555
34596SOL    HW2 9752   6.015   6.963   1.776 -0.1396  0.3122 -0.7696
34597SOL     OW 9753   1.224   2.607   4.605  0.0292 -0.5120 -0.1348
34597SOL    HW1 9754   1.263   2.557   4.534 -0.7160  0.8771 -1.5772
34597SOL    HW2 9755   1.137   2.631   4.573  0.6013  2.2760  0.1600
34598SOL     OW 9756   0.985   3.357   7.412 -0.0040  0.4295 -0.1892
34598SOL    HW1 9757   0.966   3.276   7.458  0.1009  0.2147 -0.5246
34598SOL    HW2 9758   1.067   3.340   7.365 -1.5528 -0.3605 -2.8285
34599SOL     OW 9759   7.907  11.015   5.815  0.0969 -0.0831 -0.0907
34599SOL    HW1 9760   7.865  11.075   5.876  2.1453 -0.2621  1.6021
34599SOL    HW2 9761   7.967  11.071   5.765  0.1572 -0.3097 -0.2726
34600SOL     OW 9762   9.370   0.214   9.039 -0.3571  0.2405 -0.5550
34600SOL    HW1 9763   9.300   0.151   9.050 -1.6806  1.1517 -2.9484
34600SOL    HW2 9764   9.432   0.195   9.110 -3.0657 -0.4744  1.8113
34601SOL     OW 9765   7.647   6.800  10.869  0.0482  0.0290  0.0298
34601SOL    HW1 9766   7.572   6.761  10.823 -0.4064 -0.1012  0.8660
34601SOL    HW2 9767   7.629   6.783  10.961 -0.0763  2.0847  0.4185
34602SOL     OW 9768  10.327  11.378  11.614  0.1956  0.1288 -0.1689
34602SOL    HW1 9769  10.302  11.364  11.523  0.0104 -3.2185  0.2720
34602SOL    HW2 9770  10.255  11.341  11.665  1.0135  0.5062  1.3157
34603SOL     OW 9771   5.059   5.207   2.476  0.2533 -0.3599  0.4805
34603SOL    HW1 9772   5.071   5.282   2.417 -0.0890 -0.2963  0.4864
34603SOL    HW2 9773   5.128   5.216   2.541  0.5260 -0.3316  0.1886
34604SOL     OW 9774   9.556   7.925   4.641 -0.1228  0.3953 -0.1610
34604SOL    HW1 9775   9.578   7.921   4.734 -1.9768 -0.3122  0.2868
34604SOL    HW2 9776   9.521   7.838   4.620  1.7075  0.0206 -1.9419
34605SOL     OW 9777   0.243   4.022   3.542  0.5545 -0.3172  0.2731
34605SOL    HW1 9778   0.197   4.105   3.542  0.5342 -0.3290  0.6301
34605SOL    HW2 9779   0.312   4.033   3.476 -1.7930 -1.3388 -2.5897
34606SOL     OW 9780   2.768   6.471   6.810 -0.0325 -0.1183  0.2126
34606SOL    HW1 9781   2.748   6.563   6.830 -0.3739  0.5645 -2.6923
34606SOL    HW2 9782   2.683   6.434   6.783  0.1820 -1.1709  0.9491
34607SOL     OW 9783   1.107  10.425   0.826  0.7163  0.0794  0.3062
34607SOL    HW1 9784   1.065  10.344   0.853  0.2092 -0.2296 -1.2890
34607SOL    HW2 9785   1.061  10.450   0.746  0.6096  2.1521  0.9615
34608SOL     OW 9786   3.368   5.529   0.463 -0.1252  0.3805 -0.2092
34608SOL    HW1 9787   3.373   5.611   0.413 -2.1338 -0.2608 -1.6242
34608SOL    HW2 9788   3.393   5.552   0.552 -1.0066  2.6258 -0.4963
34609SOL     OW 9789   4.301   1.693  10.613 -0.3007 -0.0722  0.4469
34609SOL    HW1 9790   4.301   1.598  10.597 -3.5135 -0.5442  2.4215
34609SOL    HW2 9791   4.375   1.707  10.672  1.0319 -1.0705 -0.9051
34610SOL     OW 9792  11.249   8.447   5.917  0.6927  0.2969 -0.0776
34610SOL    HW1 9793  11.282   8.511   5.854  0.7166  1.4787  1.0971
34610SOL    HW2 9794  11.255   8.363   5.871  0.2772  1.1680 -1.7977
34611SOL     OW 9795   9.874   0.878   0.748  0.8080  0.1995 -0.3757
34611SOL    HW1 9796   9.966   0.857   0.738  1.0527 -0.5337  2.5644
34611SOL    HW2 9797   9.872   0.973   0.760  1.0610  0.3166 -1.1924
34612SOL     OW 9798   3.157   3.035   6.123  0.1196 -0.0286 -0.2376
34612SOL    HW1 9799   3.222   2.964   6.119  0.4670  0.1399  1.6874
34612SOL    HW2 9800   3.086   2.999   6.176  0.4454  1.1595  1.0284
34613SOL     OW 9801   9.664   4.260   7.819  0.3472 -0.7827  0.3984
34613SOL    HW1 9802   9.707   4.231   7.899 -0.9368 -0.5501  1.2036
34613SOL    HW2 9803   9.582   4.210   7.816 -0.9357  1.1977  0.7221
34614SOL     OW 9804   0.319  10.850   2.141 -0.1380  0.4483  0.0159
34614SOL    HW1 9805   0.343  10.878   2.229  1.4919 -0.7200 -0.0031
34614SOL    HW2 9806   0.284  10.929   2.100 -0.7137  1.0645  1.6139
34615SOL     OW 9807   5.692   0.569   5.429  0.0927 -0.2058 -0.2799
34615SOL    HW1 9808   5.613   0.574   5.483  0.7483  0.4548  0.6719
34615SOL    HW2 9809   5.759   0.615   5.481  0.3419  2.1088 -2.4164
34616SOL     OW 9810  12.080  11.965   5.673  0.1405 -0.3776  0.2286
34616SOL    HW1 9811  12.062  12.017   5.751 -1.4383  1.4527 -1.2265
34616SOL    HW2 9812  12.151  12.012   5.629 -1.0739  0.4432 -0.9351
34617SOL     OW 9813   6.256   3.202  11.989  0.3920 -0.2064  0.0979
34617SOL    HW1 9814   6.209   3.185  12.070  0.9304 -2.3629  0.0350
34617SOL    HW2 9815   6.349   3.195  12.012  0.6809  1.9634 -0.1861
34618SOL     OW 9816  11.415   6.586  12.356 -0.4301  0.5282 -0.3313
34618SOL    HW1 9817  11.321   6.571  12.370 -0.0439 -0.7990  1.1052
34618SOL    HW2 9818  11.427   6.571  12.262 -1.7426  1.3833 -0.6755
34619SOL     OW 9819   3.913   6.343   9.962 -0.1011 -0.0405 -0.3890
34619SOL    HW1 9820   3.920   6.269  10.022  0.1906  0.1581 -0.1717
34619SOL    HW2 9821   4.000   6.351   9.923 -1.0442 -2.1002 -3.2083
34620SOL     OW 9822   5.833   0.315  12.191  0.3940  0.1409 -0.5802
34620SOL    HW1 9823   5.917   0.361  12.189  1.4416 -1.6430  0.4452
34620SOL    HW2 9824   5.771   0.377  12.151  1.8725  2.1042  0.0312
34621SOL     OW 9825   9.249  10.154   7.097 -0.0926 -0.0459  0.4538
34621SOL    HW1 9826   9.314  10.103   7.145  1.6110  3.4348  2.2408
34621SOL    HW2 9827   9.286  10.163   7.009  0.3973 -0.4761  0.6090
34622SOL     OW 9828   0.336   2.020  10.869  1.0055 -0.2482 -0.4393
34622SOL    HW1 9829   0.266   1.987  10.814  0.6754 -1.9649  0.9355
34622SOL    HW2 9830   0.307   2.107  10.896 -0.0566 -0.4703 -0.8428
34623SOL     OW 9831   5.098   5.873   4.273 -0.1887 -0.0966 -0.1983
34623SOL    HW1 9832   5.007   5.845   4.267 -0.8366  1.3502  1.9085
34623SOL    HW2 9833   5.094   5.968   4.283  1.6038  0.0878 -0.8092
34624SOL     OW 9834   3.194   5.088   5.993 -0.3896 -0.5115 -0.1437
34624SOL    HW1 9835   3.125   5.087   5.926  0.6140 -1.9971 -1.2128
34624SOL    HW2 9836   3.166   5.156   6.055 -2.6960 -0.9151 -0.6420
34625SOL     OW 9837   0.960   5.876   2.665 -0.0752 -0.1035 -0.9332
34625SOL    HW1 9838   0.898   5.807   2.692  0.4743 -1.1160 -2.1275
34625SOL    HW2 9839   1.046   5.839   2.684  0.2404  1.5487  1.3105
34626SOL     OW 9840   2.764   5.218   1.044  0.9690  0.0271  0.3927
34626SOL    HW1 9841   2.700   5.227   0.973  1.4602  0.7877  0.0329
34626SOL    HW2 9842   2.731   5.146   1.097  0.8455 -0.8972 -0.8873
34627SOL     OW 9843   2.647   7.378  12.311  0.1541 -0.0544 -0.2696
34627SOL    HW1 9844   2.631   7.465  12.348 -2.2921 -1.3136  2.0043
34627SOL    HW2 9845   2.652   7.320  12.387  0.7661 -2.0591 -1.7381
34628SOL     OW 9846   7.717   7.124   7.620  0.0065  0.4993  0.5374
34628SOL    HW1 9847   7.803   7.167   7.621  0.2454  0.2181 -1.7429
34628SOL    HW2 9848   7.723   7.055   7.686  0.0090  3.0998  3.5051
34629SOL     OW 9849   7.307   5.114   6.736  0.4342 -0.1252  0.2937
34629SOL    HW1 9850   7.320   5.036   6.789 -0.1485  0.0178  0.6513
34629SOL    HW2 9851   7.370   5.178   6.771 -1.4983  0.7414  2.3741
34630SOL     OW 9852   5.233   1.141   7.812 -0.2214 -0.2387 -0.4862
34630SOL    HW1 9853   5.259   1.090   7.735  1.2906  0.3229 -0.3826
34630SOL    HW2 9854   5.233   1.077   7.883 -0.9326 -0.6164 -0.8142
34631SOL     OW 9855   4.058   4.767   7.783  0.0418  0.6761 -0.0783
34631SOL    HW1 9856   4.103   4.744   7.865  0.4554 -0.7668 -0.6860
34631SOL    HW2 9857   3.997   4.695   7.767 -0.8279  1.4782 -0.4934
34632SOL     OW 9858   5.419  11.056   5.948 -0.1394  0.1600  0.0031
34632SOL    HW1 9859   5.439  11.081   5.858  0.6526  0.4793  0.2567
34632SOL    HW2 9860   5.448  11.130   6.001 -0.9658  0.1457  0.4953
34633SOL     OW 9861   9.678   3.774   6.518 -0.1875 -0.4968 -0.3139
34633SOL    HW1 9862   9.636   3.855   6.490 -1.6804 -1.2653 -0.4351
34633SOL    HW2 9863   9.745   3.801   6.580 -0.5020  0.8317 -0.5276
34634SOL     OW 9864   1.922   2.163  12.033 -0.0136  0.4671  0.1820
34634SOL    HW1 9865   1.973   2.234  11.995  0.4061 -0.3583 -0.8513
34634SOL    HW2 9866   1.983   2.116  12.089  0.2055 -0.1333 -0.5451
34635SOL     OW 9867   6.722   8.963   4.526 -0.2206 -0.2392 -0.0281
34635SOL    HW1 9868   6.772   8.943   4.447  0.0319  1.2925 -0.2826
34635SOL    HW2 9869   6.788   8.977   4.593 -0.4335 -1.4542  0.4769
34636SOL     OW 9870   5.178   9.722   3.391  0.4592  0.1121 -0.4067
34636SOL    HW1 9871   5.144   9.667   3.321  0.4381  0.0567 -0.3534
34636SOL    HW2 9872   5.192   9.662   3.464 -2.2782  0.5614  0.6250
34637SOL     OW 9873   1.422   7.486   4.890 -0.3588 -0.0971 -0.1679
34637SOL    HW1 9874   1.503   7.499   4.939 -1.1022 -1.1003  1.3837
34637SOL    HW2 9875   1.415   7.391   4.879 -1.6789 -0.0786  0.3446
34638SOL     OW 9876   7.489   5.153   1.410  0.0875 -0.3445 -0.3562
34638SOL    HW1 9877   7.460   5.063   1.427 -0.5211 -0.0596  0.1510
34638SOL    HW2 9878   7.502   5.191   1.496  1.3120 -0.2334 -0.5685
34639SOL     OW 9879   6.003   4.797   0.526  0.1999  0.4352 -0.0385
34639SOL    HW1 9880   6.053   4.878   0.541 -0.2306  0.8914 -0.9784
34639SOL    HW2 9881   5.999   4.789   0.431 -1.9419  0.6675  0.0047
34640SOL     OW 9882   9.296   0.559   8.779  0.6655 -0.3289  0.2075
34640SOL    HW1 9883   9.275   0.603   8.696  0.1437 -0.8636  0.0470
34640SOL    HW2 9884   9.354   0.620   8.824 -4.1742  3.3328  2.4843
34641SOL     OW 9885   8.852   9.447   4.717 -0.0568  0.1069 -0.5045
34641SOL    HW1 9886   8.857   9.379   4.650  0.2936  0.3616 -0.7417
34641SOL    HW2 9887   8.763   9.481   4.712 -0.9974 -1.8970  1.1778
34642SOL     OW 9888   0.720   8.152   8.240 -0.6576  0.0144  0.3757
34642SOL    HW1 9889   0.787   8.090   8.269  0.0317  0.6236  0.0940
34642SOL    HW2 9890   0.638   8.101   8.242 -0.2619 -0.6111  1.1252
34643SOL     OW 9891   4.816   1.909   9.215 -0.3674  0.2785 -0.5279
34643SOL    HW1 9892   4.731   1.947   9.237 -1.3437 -0.4362 -2.8215
34643SOL    HW2 9893   4.856   1.971   9.154  0.5620  0.3467  0.1148
34644SOL     OW 9894   5.232  11.244   0.006  0.1697  0.6420 -0.1913
34644SOL    HW1 9895   5.218  11.220   0.098  2.0407 -0.4199 -0.1280
34644SOL    HW2 9896   5.145  11.264  -0.027 -0.7840 -0.7381  1.3376
34645SOL     OW 9897   9.684   5.713   1.322 -0.2813  0.1284  0.1194
34645SOL    HW1 9898   9.657   5.787   1.267 -0.5120 -0.9244 -1.2473
34645SOL    HW2 9899   9.708   5.644   1.259  2.2080 -0.1941  1.2842
34646SOL     OW 9900   5.685   1.767   0.682 -0.3187  0.3690 -0.7390
34646SOL    HW1 9901   5.741   1.844   0.678 -0.3477  0.3799 -0.9845
34646SOL    HW2 9902   5.623   1.779   0.609 -0.4364  0.2038 -0.6664
34647SOL     OW 9903  10.525   6.453   0.329  0.3214 -0.5417  0.1260
34647SOL    HW1 9904  10.437   6.421   0.311  0.4749 -1.1080  0.3438
34647SOL    HW2 9905  10.512   6.528   0.388 -0.0484 -0.1438 -0.4511
34648SOL     OW 9906   5.962   0.324   2.026  0.4505 -0.0444 -0.3134
34648SOL    HW1 9907   5.998   0.305   1.939  1.3527 -0.6482  0.1647
34648SOL    HW2 9908   5.893   0.259   2.038  1.0196 -0.6319 -0.1752
34649SOL     OW 9909   4.847   5.467  11.853 -0.2095 -0.4805 -0.7350
34649SOL    HW1 9910   4.918   5.434  11.798  1.9802  0.5419  1.2630
34649SOL    HW2 9911   4.839   5.559  11.830  0.6854 -0.0574  0.5136
34650SOL     OW 9912   7.335   3.505   7.829 -0.1008  0.1703  0.0216
34650SOL    HW1 9913   7.365   3.582   7.878  0.4199 -0.3550  0.5484
34650SOL    HW2 9914   7.246   3.489   7.861  0.2718 -0.2292  0.8892
34651SOL     OW 9915   8.309   7.753   7.822  0.0882  0.4978  0.2770
34651SOL    HW1 9916   8.268   7.735   7.907  0.9164  0.4156  0.6710
34651SOL    HW2 9917   8.255   7.706   7.759  0.4067 -0.8293  0.9524
34652SOL     OW 9918   8.413   4.151   3.868  0.3331 -0.5345 -0.6020
34652SOL    HW1 9919   8.461   4.227   3.837 -0.8012 -0.5926 -2.6798
34652SOL    HW2 9920   8.343   4.187   3.923  0.4833 -0.1628 -0.6525
34653SOL     OW 9921  10.063   7.513   9.793 -0.3861 -0.1538  0.2935
34653SOL    HW1 9922   9.975   7.497   9.760 -0.9188  1.3501  0.9316
34653SOL    HW2 9923  10.051   7.536   9.885  0.5132  1.4761  0.0321
34654SOL     OW 9924   6.964   4.643   6.888 -0.5637  0.2814 -0.1378
34654SOL    HW1 9925   6.974   4.729   6.847 -0.4017  0.1547 -0.3710
34654SOL    HW2 9926   6.891   4.602   6.841 -1.0462  0.5308  0.3917
34655SOL     OW 9927  11.742   1.674   2.780  0.0321 -0.1904  0.2605
34655SOL    HW1 9928  11.745   1.579   2.770  1.9415 -0.0929 -0.5596
34655SOL    HW2 9929  11.682   1.704   2.712 -1.1658 -0.8311  1.0030
34656SOL     OW 9930  12.040   0.678   1.343  0.2865  0.1468 -0.1903
34656SOL    HW1 9931  12.073   0.700   1.430  2.8985 -1.6278 -0.6097
34656SOL    HW2 9932  11.947   0.700   1.347  0.1767 -0.3350  3.1921
34657SOL     OW 9933   0.122   5.389   1.452  0.6294  0.0548 -0.6201
34657SOL    HW1 9934   0.036   5.426   1.433  0.2973 -0.5383 -0.3040
34657SOL    HW2 9935   0.122   5.304   1.409  1.4103  0.4314 -1.4002
34658SOL     OW 9936  10.305   7.195   6.423  0.4423  0.1786 -0.1807
34658SOL    HW1 9937  10.233   7.133   6.421 -0.0726  0.7455  0.4359
34658SOL    HW2 9938  10.352   7.180   6.341  0.6375 -1.3773  0.1962
34659SOL     OW 9939   2.722   5.149   5.193  0.3542 -0.2210 -0.6995
34659SOL    HW1 9940   2.703   5.141   5.287  0.1034  3.3036 -0.3165
34659SOL    HW2 9941   2.638   5.133   5.151  0.2898 -1.0683 -0.2595
34660SOL     OW 9942   6.249  11.643   3.881 -0.0142  0.2316 -0.0345
34660SOL    HW1 9943   6.241  11.598   3.797  1.0324  1.3142 -0.7319
34660SOL    HW2 9944   6.212  11.730   3.866  0.4102  0.5218  0.5477
34661SOL     OW 9945  10.410   7.989   5.343 -0.0768  0.4594 -0.7048
34661SOL    HW1 9946  10.446   8.009   5.429  1.9505  0.4318 -1.4715
34661SOL    HW2 9947  10.320   8.019   5.346 -0.0074  0.5947  1.3594
34662SOL     OW 9948   3.717  10.301   6.069  0.3104 -0.5006  0.3990
34662SOL    HW1 9949   3.664  10.249   6.009  1.4487 -1.0657 -0.1456
34662SOL    HW2 9950   3.756  10.368   6.014  1.2263 -0.9171  0.5309
34663SOL     OW 9951   9.965   8.003   6.768  0.7908 -0.3603  0.6724
34663SOL    HW1 9952  10.051   8.001   6.725  1.0376  0.5306  1.1202
34663SOL    HW2 9953   9.983   8.027   6.858 -0.0246  0.9254  0.5148
34664SOL     OW 9954  11.989   1.171  11.666 -0.3976  0.5661  0.1559
34664SOL    HW1 9955  11.926   1.232  11.626 -0.2481  0.3971 -0.3390
34664SOL    HW2 9956  11.936   1.116  11.724 -0.8645 -0.2088 -0.9826
34665SOL     OW 9957   3.517   9.163   9.548  0.1257 -0.1140 -0.7001
34665SOL    HW1 9958   3.560   9.078   9.544  2.1536  0.8850 -2.3490
34665SOL    HW2 9959   3.532   9.194   9.637 -0.0253 -1.1712 -0.3019
34666SOL     OW 9960  11.561   3.617   9.347 -0.0508 -0.0439  0.0395
34666SOL    HW1 9961  11.629   3.582   9.405  1.9111  1.3068 -1.3616
34666SOL    HW2 9962  11.609   3.659   9.276 -2.3740  0.8799 -1.0632
34667SOL     OW 9963   3.381   2.013   6.995 -0.2618  0.2007  0.1506
34667SOL    HW1 9964   3.401   2.104   7.021  1.6238 -0.3075  0.6651
34667SOL    HW2 9965   3.345   1.973   7.075  2.1029 -0.3662  1.0243
34668SOL     OW 9966   7.968   4.595   7.777  0.8359 -0.1460 -0.3885
34668SOL    HW1 9967   8.052   4.550   7.787  1.8216  1.2831 -1.8043
34668SOL    HW2 9968   7.991   4.686   7.761 -1.0029  0.3175 -0.6281
34669SOL     OW 9969  11.559  12.196  11.813 -0.4094  0.2991  0.2872
34669SOL    HW1 9970  11.630  12.183  11.876  0.2010  1.7173 -0.0717
34669SOL    HW2 9971  11.575  12.283  11.777 -1.7913  0.2467 -0.5078
34670SOL     OW 9972  12.001   5.372   2.767  0.0849  0.3163 -0.5343
34670SOL    HW1 9973  12.016   5.466   2.780  0.6524  0.4356 -1.8639
34670SOL    HW2 9974  12.043   5.353   2.684  1.6796 -1.5463  0.6382
34671SOL     OW 9975   9.278   1.455   1.533  0.3419  0.1404 -0.3300
34671SOL    HW1 9976   9.293   1.422   1.445  1.9936 -0.6283  0.1899
34671SOL    HW2 9977   9.204   1.403   1.566 -0.8570  1.0200 -1.5067
34672SOL     OW 9978   7.478   3.995   9.583 -0.2548 -0.2060  0.4256
34672SOL    HW1 9979   7.537   3.947   9.642 -2.0034  0.3274  2.7497
34672SOL    HW2 9980   7.399   3.941   9.580 -0.5999  0.3356 -0.5934
34673SOL     OW 9981   4.950   6.697  12.061 -0.2207  0.3813 -0.2572
34673SOL    HW1 9982   4.905   6.752  11.998 -0.2547 -0.1940 -0.7499
34673SOL    HW2 9983   4.900   6.615  12.062  0.0756  0.1992  0.1343
34674SOL     OW 9984   1.523   6.176  12.455 -0.1450 -0.5417 -0.4784
34674SOL    HW1 9985   1.481   6.095  12.484 -1.1687 -0.0088 -0.4083
34674SOL    HW2 9986   1.450   6.231  12.427  0.3584  0.9694  0.9991
34675SOL     OW 9987   5.461   0.345  11.868  0.1849  0.6116  0.4390
34675SOL    HW1 9988   5.436   0.289  11.794 -0.9067 -0.5686  1.6282
34675SOL    HW2 9989   5.396   0.416  11.867  0.6648  1.0522 -0.1913
34676SOL     OW 9990   9.221   0.105   4.282  0.1235 -0.4305 -0.0131
34676SOL    HW1 9991   9.132   0.071   4.291  0.0863 -0.1179  0.9828
34676SOL    HW2 9992   9.263   0.084   4.365  0.9594 -0.5124 -0.4507
34677SOL     OW 9993  11.903  10.706   8.123  0.7244  0.0985 -0.8442
34677SOL    HW1 9994  11.940  10.726   8.037 -1.5730  0.8499 -1.7623
34677SOL    HW2 9995  11.809  10.694   8.106  0.3284 -0.5984  1.4459
34678SOL     OW 9996   5.517  11.089   4.264 -0.2218 -0.4225  0.3894
34678SOL    HW1 9997   5.513  10.993   4.260 -0.8859 -0.3716 -0.3085
34678SOL    HW2 9998   5.425  11.117   4.268 -0.1663  0.2689 -1.8469
34679SOL     OW 9999   7.071   7.969  11.221  0.7788  0.6278 -0.0657
34679SOL    HW110000   7.017   8.017  11.284  0.5814  0.6272 -0.2357
34679SOL    HW210001   7.087   7.884  11.263  0.9821  0.7746  0.1587
34680SOL     OW10002   7.568   6.383  11.982 -0.7312  0.1438 -0.4117
34680SOL    HW110003   7.495   6.363  11.923 -0.6548  1.5116 -1.0021
34680SOL    HW210004   7.630   6.432  11.928 -0.3989  0.9422  0.6662
34681SOL     OW10005   5.947   0.662  10.077  0.0155  0.0642 -0.2543
34681SOL    HW110006   5.880   0.720  10.041 -1.1790 -0.5131  1.0042
34681SOL    HW210007   6.018   0.665  10.012 -2.0909 -1.0583 -2.7706
34682SOL     OW10008   3.079  10.906  11.634  0.4572 -0.0550  0.1699
34682SOL    HW110009   2.997  10.926  11.589  0.8938 -0.7386 -0.9607
34682SOL    HW210010   3.052  10.874  11.721 -0.4240  0.5693  0.1289
34683SOL     OW10011  11.655  11.983   3.508  0.7120 -0.2514 -0.2322
34683SOL    HW110012  11.600  11.906   3.522  0.0957  0.1164 -0.6195
34683SOL    HW210013  11.596  12.049   3.471  1.1450  0.5316  0.4222
34684SOL     OW10014  11.815   1.718   3.971  0.6072  0.1381 -0.0845
34684SOL    HW110015  11.830   1.770   3.892  1.0492  0.2273  0.0520
34684SOL    HW210016  11.725   1.736   3.996  0.6568  0.5843 -0.2257
34685SOL     OW10017   6.435   9.116   1.935  0.4019  0.1563 -0.5783
34685SOL    HW110018   6.528   9.125   1.914  0.7589 -3.0065 -0.7676
34685SOL    HW210019   6.390   9.166   1.866  1.9035  1.7438 -0.4712
34686SOL     OW10020   1.890   7.258   8.222 -0.3893 -0.5473 -0.2403
34686SOL    HW110021   1.893   7.336   8.278 -0.7472 -0.5150 -0.2643
34686SOL    HW210022   1.811   7.212   8.249  0.4929 -1.5870  0.6704
34687SOL     OW10023  10.650   6.705  10.579 -0.0132  0.1108  0.3390
34687SOL    HW110024  10.591   6.775  10.553  0.3141 -0.2590 -1.5115
34687SOL    HW210025  10.738   6.742  10.568  0.2047 -0.9518 -1.9325
34688SOL     OW10026   6.533   5.860   8.307 -0.0185 -0.3800 -0.0631
34688SOL    HW110027   6.500   5.773   8.328 -0.6940 -0.1783 -0.2711
34688SOL    HW210028   6.455   5.911   8.284  0.1746  0.7177  1.5180
34689SOL     OW10029   0.062   1.285   1.518  0.0487 -0.6987  0.3679
34689SOL    HW110030   0.055   1.317   1.427  0.1052 -1.0281  0.2470
34689SOL    HW210031   0.027   1.196   1.514 -2.1667  0.0617  1.1147
34690SOL     OW10032  12.430   8.499   7.352 -0.2458  0.8437 -0.5749
34690SOL    HW110033  12.491   8.546   7.409  0.4863 -1.7501  0.9416
34690SOL    HW210034  12.487   8.448   7.294 -0.9504 -0.8059  0.1512
34691SOL     OW10035   8.677   7.286   3.270 -0.3698 -0.2476  0.2201
34691SOL    HW110036   8.604   7.277   3.331  0.3110 -0.5865  1.0002
34691SOL    HW210037   8.644   7.345   3.202 -0.5075  1.7970  1.9634
34692SOL     OW10038   2.385   4.833   8.515 -0.4624  0.3473  0.1251
34692SOL    HW110039   2.404   4.866   8.427  0.9172  0.8484  0.5789
34692SOL    HW210040   2.468   4.842   8.562 -1.4362  1.0701  1.7998
34693SOL     OW10041   7.669   8.502   3.621  0.0257  0.2208  0.5834
34693SOL    HW110042   7.712   8.495   3.706 -0.1839 -0.9624  0.6132
34693SOL    HW210043   7.634   8.415   3.605 -0.4327  0.5812 -0.4610
34694SOL     OW10044   6.828   3.404   6.311  0.3743  0.4052  0.2911
34694SOL    HW110045   6.862   3.343   6.245 -0.7121  0.5537 -0.4365
34694SOL    HW210046   6.906   3.438   6.354  1.0993  0.0273 -0.6692
34695SOL     OW10047   8.952   2.980   5.581  0.5055 -0.0771 -0.2961
34695SOL    HW110048   9.007   2.995   5.504  0.3751 -1.2110 -0.6314
34695SOL    HW210049   8.989   2.902   5.622 -0.4952 -0.5168 -0.2038
34696SOL     OW10050   6.338   1.015   2.789 -0.5721  0.2940 -0.0865
34696SOL    HW110051   6.281   1.042   2.717 -0.8015 -0.8588 -0.3543
34696SOL    HW210052   6.281   0.969   2.850 -0.0345 -0.5051 -0.1568
34697SOL     OW10053   1.270   1.642   5.794 -0.1002  0.1136 -0.3274
34697SOL    HW110054   1.350   1.683   5.825 -0.9369  2.3767 -0.9732
34697SOL    HW210055   1.201   1.679   5.849 -0.7106 -2.0879  0.4833
34698SOL     OW10056   1.250   0.842   3.853  0.6711 -0.1832  0.1205
34698SOL    HW110057   1.181   0.826   3.788  2.1408  1.2159 -1.8954
34698SOL    HW210058   1.203   0.871   3.931 -1.0585  0.5045 -1.1014
34699SOL     OW10059  10.357   2.172  10.557  0.2311 -0.2077  0.1987
34699SOL    HW110060  10.268   2.194  10.529 -0.8135  0.4729  3.6602
34699SOL    HW210061  10.414   2.225  10.501 -1.6425  1.2560 -0.4028
34700SOL     OW10062   6.778   6.209  10.665  0.2703  0.4814 -0.5111
34700SOL    HW110063   6.861   6.193  10.709 -0.2595 -1.8044 -0.2530
34700SOL    HW210064   6.801   6.214  10.572  0.8407  1.2656 -0.3451
34701SOL     OW10065   5.186  10.611  12.185  0.6380  0.5688  0.3299
34701SOL    HW110066   5.110  10.669  12.184 -1.0356 -1.5055  1.1222
34701SOL    HW210067   5.233  10.631  12.104 -1.8277  0.5266 -1.1892
34702SOL     OW10068   8.086   3.530   5.900 -0.2702 -0.6479  0.2688
34702SOL    HW110069   8.159   3.468   5.907  1.1201  0.5153 -2.5305
34702SOL    HW210070   8.122   3.614   5.928 -0.5979 -0.1158 -0.8543
34703SOL     OW10071   8.900   6.946   1.487 -0.1451 -0.3473  0.0558
34703SOL    HW110072   8.936   6.867   1.527 -0.7839 -0.6397  0.0606
34703SOL    HW210073   8.971   7.010   1.493  0.5733 -1.0772 -0.4411
34704SOL     OW10074   9.710   4.841   5.884  0.2998 -0.5285  0.0626
34704SOL    HW110075   9.631   4.861   5.935 -0.2132 -1.3667 -0.3717
34704SOL    HW210076   9.687   4.866   5.795  0.0967 -1.8057 -0.2674
34705SOL     OW10077  10.762   1.493   5.955  0.2076  0.5476  0.0650
34705SOL    HW110078  10.834   1.430   5.953 -0.6495 -0.4617 -1.9491
34705SOL    HW210079  10.688   1.446   5.917 -0.0980  3.1950 -3.0108
34706SOL     OW10080   0.791   0.214   5.802 -0.0347 -0.0089  0.4049
34706SOL    HW110081   0.727   0.160   5.756  0.7668 -0.9340  0.3574
34706SOL    HW210082   0.865   0.220   5.742  0.7119 -0.5824  1.2581
34707SOL     OW10083   9.299   6.099   0.699 -1.0179 -0.8335 -0.3202
34707SOL    HW110084   9.282   6.193   0.705 -0.3562 -0.7222 -0.1171
34707SOL    HW210085   9.255   6.062   0.775 -1.5692 -0.7379 -0.5836
34708SOL     OW10086  11.406   4.362   6.509 -0.0760 -0.2899  0.1488
34708SOL    HW110087  11.378   4.361   6.417 -2.0642 -0.2055  0.7001
34708SOL    HW210088  11.339   4.415   6.553  0.4686 -0.9082  1.7568
34709SOL     OW10089  12.479  12.152   0.254  0.4263  0.1455 -0.3098
34709SOL    HW110090  12.462  12.246   0.248 -0.6166 -0.0265 -0.2043
34709SOL    HW210091  12.501  12.125   0.165  3.0384  0.8764  0.0087
34710SOL     OW10092  10.065   6.445   0.422 -0.5397 -0.8596  0.2578
34710SOL    HW110093  10.001   6.476   0.357  0.9650  2.6135  0.2253
34710SOL    HW210094  10.029   6.474   0.506 -0.3194 -1.3943  0.5415
34711SOL     OW10095   9.795  10.541  12.147  0.3483  0.5155  0.5467
34711SOL    HW110096   9.867  10.604  12.153  0.5766  0.4569 -1.1328
34711SOL    HW210097   9.834  10.464  12.106 -1.0547  1.2666 -2.5201
34712SOL     OW10098   5.864   3.069  10.790 -0.1391  0.3235 -0.0957
34712SOL    HW110099   5.788   3.094  10.737 -0.6610  2.5963  1.5562
34712SOL    HW210100   5.828   3.021  10.864  0.2273 -0.0068 -0.1263
34713SOL     OW10101  10.942   0.273   2.446  0.4066 -0.2095  0.2205
34713SOL    HW110102  10.949   0.354   2.497  0.0544 -0.4121  0.5954
34713SOL    HW210103  10.868   0.289   2.388 -1.0855 -1.0534  1.7912
34714SOL     OW10104  10.041   0.080   3.823  0.1405  0.2723 -0.2520
34714SOL    HW110105  10.036  -0.016   3.824  0.2386  0.2659 -0.3690
34714SOL    HW210106  10.057   0.104   3.915  1.0633  0.1251 -0.3672
34715SOL     OW10107   5.254  10.833   2.617 -0.3162 -0.0835  0.1948
34715SOL    HW110108   5.191  10.811   2.685 -1.7066  1.4613 -0.5193
34715SOL    HW210109   5.222  10.789   2.539  0.4389 -0.6446  0.1950
34716SOL     OW10110   5.778   9.194   9.719  0.0818 -0.7753  0.2825
34716SOL    HW110111   5.834   9.150   9.655  0.1584 -2.1579  1.2466
34716SOL    HW210112   5.820   9.278   9.734 -1.1844  0.6561 -3.1719
34717SOL     OW10113   3.549   9.751   0.145  1.0796 -0.0242 -0.4254
34717SOL    HW110114   3.555   9.742   0.240 -2.2797 -1.9660 -0.2264
34717SOL    HW210115   3.554   9.845   0.129 -3.4727  0.9733  2.3842
34718SOL     OW10116   5.178  10.466  10.592 -0.4806 -0.4814 -0.1640
34718SOL    HW110117   5.101  10.507  10.630 -0.8975 -0.7141 -0.7570
34718SOL    HW210118   5.252  10.510  10.636 -0.9063  0.8534 -0.7315
34719SOL     OW10119   0.768   9.447   1.020 -0.3911  0.3901  0.3973
34719SOL    HW110120   0.763   9.393   1.099 -1.0369  2.0205  1.5506
34719SOL    HW210121   0.678   9.477   1.006 -0.1199  0.8463 -0.4376
34720SOL     OW10122   4.216   8.096   5.860 -0.0094  0.4929 -0.1918
34720SOL    HW110123   4.193   8.104   5.952  1.8053  0.2609  0.3178
34720SOL    HW210124   4.266   8.175   5.840 -2.2940  1.6915 -1.6600
34721SOL     OW10125   1.956   7.576   3.082  0.2012 -0.2972 -0.5474
34721SOL    HW110126   2.002   7.651   3.121  0.1240  0.1475 -1.2706
34721SOL    HW210127   2.026   7.524   3.041  0.0828  0.5013 -1.8486
34722SOL     OW10128   3.128   2.505   3.936 -0.4062  0.2804 -0.4073
34722SOL    HW110129   3.141   2.531   4.028  0.1950 -2.0963  0.2591
34722SOL    HW210130   3.212   2.468   3.910 -0.4063  1.4140 -2.1449
34723SOL     OW10131   0.091  11.438   6.321 -0.2258  0.2655  0.5809
34723SOL    HW110132   0.041  11.364   6.286  1.6288 -1.9676  2.3195
34723SOL    HW210133   0.041  11.466   6.398  0.6951 -1.5028  1.9055
34724SOL     OW10134   3.708   4.066   3.589 -0.4777  0.1558 -0.2050
34724SOL    HW110135   3.727   4.013   3.667 -0.1421  1.3849  0.5737
34724SOL    HW210136   3.659   4.007   3.531 -1.5664 -0.4824  1.3275
34725SOL     OW10137   9.799   2.600  10.012 -0.0605 -0.3022  0.2397
34725SOL    HW110138   9.752   2.527  10.053 -0.3067  0.0965  0.6848
34725SOL    HW210139   9.731   2.646   9.962 -0.4221  0.8781  1.7050
34726SOL     OW10140   6.436   9.202  10.847  0.5954  0.1901 -0.1936
34726SOL    HW110141   6.507   9.139  10.849 -0.7504 -1.3760  0.5190
34726SOL    HW210142   6.458   9.265  10.916  1.6219  0.1504 -0.4747
34727SOL     OW10143  10.291   5.348   9.289  0.5851 -0.0276  0.5267
34727SOL    HW110144  10.205   5.309   9.275  0.3615  0.1304  1.4327
34727SOL    HW210145  10.351   5.274   9.289  0.5655 -0.0815 -0.8316
34728SOL     OW10146   9.917   6.577   8.507  0.0037  0.0203  0.4645
34728SOL    HW110147   9.860   6.583   8.583 -0.5694 -1.4820  0.1804
34728SOL    HW210148   9.969   6.498   8.522  2.3951  1.5843  0.9379
34729SOL     OW10149   6.421   3.989   7.134  0.0760  0.3386 -0.4806
34729SOL    HW110150   6.339   4.023   7.097  0.1354 -0.7902 -1.7297
34729SOL    HW210151   6.405   3.895   7.143  1.0468  0.1972 -0.1850
34730SOL     OW10152  11.861   4.547  11.905  0.2760 -0.0238  0.5222
34730SOL    HW110153  11.885   4.479  11.969  1.4023  1.1671  1.4140
34730SOL    HW210154  11.944   4.581  11.873 -0.2067  1.7256  0.9858
34731SOL     OW10155   4.936  10.519   9.696 -0.2958 -0.1406 -0.2586
34731SOL    HW110156   4.960  10.480   9.780  0.7006 -0.1579 -0.5341
34731SOL    HW210157   5.013  10.506   9.641 -0.7025  0.4282 -0.9795
34732SOL     OW10158   1.741   5.413   1.636 -0.1768  0.5878  0.1817
34732SOL    HW110159   1.742   5.453   1.549  1.8981  2.5277  0.9925
34732SOL    HW210160   1.794   5.333   1.626  0.7966  1.2582 -0.1773
34733SOL     OW10161   5.086   8.682  11.067 -0.1105 -0.0190  0.2061
34733SOL    HW110162   5.138   8.604  11.088  1.1759  0.9459  0.7561
34733SOL    HW210163   5.109   8.702  10.976 -1.5248 -1.0611 -0.4162
34734SOL     OW10164  10.769   7.690   8.268 -0.7160 -0.3977  0.5808
34734SOL    HW110165  10.692   7.748   8.267 -1.0018 -0.7654  0.7075
34734SOL    HW210166  10.822   7.719   8.195 -0.2861  0.7747  1.3220
34735SOL     OW10167   8.809  11.348   3.121  0.5670 -0.1684 -0.0385
34735SOL    HW110168   8.781  11.327   3.210  0.2597 -2.1617 -0.5621
34735SOL    HW210169   8.901  11.323   3.118  0.2352 -1.4041 -0.6317
34736SOL     OW10170   1.905   8.376   8.584  0.3194 -0.2241  0.0264
34736SOL    HW110171   1.861   8.459   8.563  1.0022 -0.0586 -0.8278
34736SOL    HW210172   1.859   8.343   8.661  1.9530  2.4577  2.3495
34737SOL     OW10173   5.869   1.403   2.542  0.1870 -0.0929  0.0775
34737SOL    HW110174   5.774   1.418   2.547  0.2243 -0.3025  2.1913
34737SOL    HW210175   5.886   1.336   2.607  2.0023  1.0509  0.8440
34738SOL     OW10176   3.649  12.347   6.638 -0.0201 -0.3203 -0.6245
34738SOL    HW110177   3.649  12.261   6.680  2.2989 -0.1267 -0.0793
34738SOL    HW210178   3.676  12.407   6.708 -0.2792  0.6451 -1.3404
34739SOL     OW10179   1.126   1.975   0.287  0.3474  0.2930 -0.1263
34739SOL    HW110180   1.034   1.966   0.263  0.4943 -1.4694 -0.2094
34739SOL    HW210181   1.168   2.013   0.210 -0.2359  0.7023 -0.2487
34740SOL     OW10182   3.477   0.563   2.477 -0.2222 -0.0379 -0.0419
34740SOL    HW110183   3.492   0.469   2.466  0.5240  0.0949 -0.2056
34740SOL    HW210184   3.547   0.605   2.428 -1.4170  0.6377 -1.2546
34741SOL     OW10185   7.054  10.208  10.603 -0.0528 -0.1423  0.1306
34741SOL    HW110186   7.032  10.247  10.687 -0.5738 -1.8333  0.8186
34741SOL    HW210187   7.103  10.129  10.625  3.3691  1.4018 -1.2773
34742SOL     OW10188   8.366   5.892   6.340 -0.0154  0.3699 -0.4996
34742SOL    HW110189   8.436   5.872   6.278 -0.2727  2.4911 -1.5670
34742SOL    HW210190   8.398   5.967   6.391 -0.1623 -0.7858  1.4094
34743SOL     OW10191   6.032   0.962   7.457  0.1834  0.0516  0.1953
34743SOL    HW110192   5.976   0.885   7.463 -0.8818  0.7492 -0.5010
34743SOL    HW210193   6.120   0.926   7.443 -0.3047 -1.0441 -0.2305
34744SOL     OW10194  10.704   9.758   1.342  0.4762 -0.0353  0.0915
34744SOL    HW110195  10.647   9.702   1.290 -0.2276 -0.3588  1.1782
34744SOL    HW210196  10.649   9.832   1.368  0.4557 -0.4643  1.3410
34745SOL     OW10197   6.655   4.863   0.867  0.0398  0.3252 -0.1308
34745SOL    HW110198   6.703   4.875   0.785 -1.5992 -0.9594 -1.3511
34745SOL    HW210199   6.612   4.778   0.857  0.3389 -0.1801  2.3733
34746SOL     OW10200  10.666   3.361   5.747 -0.1551  0.4308 -0.1486
34746SOL    HW110201  10.691   3.447   5.715  0.7521  0.2542  0.0406
34746SOL    HW210202  10.612   3.324   5.678 -0.9623  1.3360 -0.0203
34747SOL     OW10203   6.920  12.468   1.738 -0.1961 -0.4498 -0.0666
34747SOL    HW110204   6.900  12.375   1.732  0.5411 -0.6570  0.4804
34747SOL    HW210205   6.931  12.485   1.832  1.1538 -0.1535 -0.2548
34748SOL     OW10206   8.107   8.062   8.120  0.1125  0.6535 -0.0628
34748SOL    HW110207   8.122   8.143   8.071  0.9127  0.5187 -0.0650
34748SOL    HW210208   8.193   8.020   8.122 -0.1944  0.0333  0.3483
34749SOL     OW10209   0.585   7.631   0.006  0.8444 -0.0718 -0.3063
34749SOL    HW110210   0.651   7.641  -0.063  0.6586 -0.2252 -0.5080
34749SOL    HW210211   0.503   7.620  -0.041  1.0003 -2.4298 -0.1285
34750SOL     OW10212   8.441   1.484   3.757 -0.0851  0.2024  0.5308
34750SOL    HW110213   8.516   1.510   3.811 -0.1502 -0.5180  0.9841
34750SOL    HW210214   8.420   1.395   3.786  0.2647 -0.4556 -1.1296
34751SOL     OW10215   2.908   9.999   6.086 -0.6494  0.1278 -0.0747
34751SOL    HW110216   2.835   9.974   6.029 -2.8515  2.2696  1.6064
34751SOL    HW210217   2.902   9.940   6.161 -0.5574  0.1804 -0.0260
34752SOL     OW10218   9.814   3.727   5.617  0.3328 -0.1747  0.1945
34752SOL    HW110219   9.792   3.635   5.602 -1.6580  0.2116  0.4618
34752SOL    HW210220   9.779   3.773   5.541 -0.8108  0.6000  1.1362
34753SOL     OW10221   2.331   7.666  10.091  0.6562 -0.1585 -0.2008
34753SOL    HW110222   2.378   7.689  10.172  0.1266 -2.1959  0.7547
34753SOL    HW210223   2.362   7.578  10.070 -1.8528 -1.1233 -0.1563
34754SOL     OW10224   0.629   3.060  10.151 -0.5797 -0.0154  0.1485
34754SOL    HW110225   0.595   3.035  10.065 -0.8804  3.0413 -0.7338
34754SOL    HW210226   0.551   3.081  10.202 -0.3647 -1.2336  1.0148
34755SOL     OW10227   5.584   2.462   9.632 -0.3108  0.2431  0.1853
34755SOL    HW110228   5.672   2.498   9.638  0.3817 -1.3560  0.2306
34755SOL    HW210229   5.545   2.479   9.718 -0.3822  1.7013 -0.1100
34756SOL     OW10230   0.257   5.844   9.520  0.3922  0.1619 -0.0979
34756SOL    HW110231   0.182   5.873   9.571 -1.1566 -1.1831 -1.4801
34756SOL    HW210232   0.330   5.896   9.552 -0.9448  0.9033  1.9066
34757SOL     OW10233   3.204   1.271   8.221 -0.6835 -0.3003 -0.5399
34757SOL    HW110234   3.129   1.316   8.182 -1.5495 -0.9937  0.2846
34757SOL    HW210235   3.170   1.232   8.301  0.5131 -0.8235 -0.2601
34758SOL     OW10236   9.950  10.474  11.839 -0.6839 -0.4646 -0.3067
34758SOL    HW110237  10.021  10.494  11.900 -1.7557  0.0103  0.8469
34758SOL    HW210238   9.970  10.524  11.760 -0.5448  0.9113  0.5767
34759SOL     OW10239   4.657  12.435   6.944 -0.0473  0.4826 -0.0951
34759SOL    HW110240   4.689  12.377   6.875 -0.2269  0.7929 -0.4450
34759SOL    HW210241   4.737  12.469   6.985  0.0804 -1.0646  1.0439
34760SOL     OW10242   0.913   0.010   3.623  0.1076 -0.3463  0.4510
34760SOL    HW110243   0.913  -0.048   3.700  0.5948 -0.8171  0.1070
34760SOL    HW210244   0.916   0.098   3.659 -4.2303 -0.2710  1.1344
34761SOL     OW10245   6.154  11.943   2.224  0.5246 -0.1836  0.0118
34761SOL    HW110246   6.236  11.986   2.200  0.4268  1.4510  2.2898
34761SOL    HW210247   6.146  11.959   2.318 -2.0635 -0.8919 -0.0356
34762SOL     OW10248   6.550   1.632   4.863 -0.4191 -0.2898  0.3686
34762SOL    HW110249   6.584   1.549   4.897  1.9299  0.4456 -0.0513
34762SOL    HW210250   6.548   1.690   4.939 -2.3986 -0.7648  0.7381
34763SOL     OW10251   5.710   7.271   8.013 -0.0540 -0.1799 -0.3218
34763SOL    HW110252   5.724   7.276   8.107 -0.2403  2.2709 -0.3573
34763SOL    HW210253   5.718   7.178   7.992 -0.7801 -0.8911  2.2132
34764SOL     OW10254   5.596  11.631   7.530  0.0506 -0.6606 -0.2708
34764SOL    HW110255   5.544  11.706   7.560 -1.1330 -0.6721 -2.1488
34764SOL    HW210256   5.532  11.568   7.499  1.0980 -1.9515  0.0983
34765SOL     OW10257   7.610   5.693  11.995 -0.3494  1.0983 -0.2227
34765SOL    HW110258   7.658   5.715  11.915  0.1626 -1.8151 -0.8292
34765SOL    HW210259   7.525   5.664  11.964 -0.3346  0.4652  0.3140
34766SOL     OW10260   8.842   5.680   3.352  0.4848  0.6104  0.5334
34766SOL    HW110261   8.795   5.610   3.398  0.6332 -0.9228 -1.5170
34766SOL    HW210262   8.773   5.739   3.321  0.1386 -0.0320  0.0667
34767SOL     OW10263   4.807  11.753   5.019  0.0779  0.2268  0.1396
34767SOL    HW110264   4.899  11.734   5.039 -0.6717 -1.3680  2.5408
34767SOL    HW210265   4.802  11.849   5.018  1.4246  0.3644  1.9405
34768SOL     OW10266  12.160   0.279  10.829  0.0729 -0.3089  0.0551
34768SOL    HW110267  12.136   0.372  10.830 -3.3145 -1.0226 -0.8297
34768SOL    HW210268  12.246   0.276  10.788 -0.4748  2.3269 -1.5019
34769SOL     OW10269   7.675   6.736   4.402  0.2887 -0.1650 -0.6268
34769SOL    HW110270   7.700   6.684   4.326  1.2993 -2.1033  0.9357
34769SOL    HW210271   7.751   6.734   4.460 -0.9254  0.0113  1.0714
34770SOL     OW10272   0.334   9.002  11.797  0.6811 -0.2946  0.1403
34770SOL    HW110273   0.370   9.076  11.847  0.3717  0.3956 -0.6333
34770SOL    HW210274   0.392   8.929  11.817 -0.1644 -0.3933  2.5258
34771SOL     OW10275  12.303   6.184   0.692 -0.5891 -0.1795 -0.0626
34771SOL    HW110276  12.260   6.251   0.746  0.6560  0.5978 -0.0108
34771SOL    HW210277  12.317   6.111   0.751  1.3817  0.9137  0.9289
34772SOL     OW10278   3.545   0.078   1.564  0.2890  0.2978 -0.2749
34772SOL    HW110279   3.556   0.167   1.530 -0.8529  0.9434  0.9693
34772SOL    HW210280   3.551   0.087   1.659 -0.3606 -0.8793 -0.1026
34773SOL     OW10281   6.696   6.072   2.506  0.7939  0.6263  0.0689
34773SOL    HW110282   6.773   6.070   2.449 -0.2754  0.0647 -1.4209
34773SOL    HW210283   6.668   6.164   2.505  1.2778  0.7822  0.4078
34774SOL     OW10284  10.663   5.116   2.897 -0.3864 -0.2611 -0.0819
34774SOL    HW110285  10.752   5.102   2.928 -0.4332 -0.3169  0.0303
34774SOL    HW210286  10.659   5.209   2.874 -1.6438  1.1160  4.4509
34775SOL     OW10287  10.892  12.073  11.890 -0.0439 -0.4330 -0.0278
34775SOL    HW110288  10.962  12.089  11.827 -0.2705 -1.2442 -0.5016
34775SOL    HW210289  10.812  12.093  11.842 -0.1379  0.7357  0.5889
34776SOL     OW10290   3.128  10.326   4.776  0.2975  0.2582  0.1031
34776SOL    HW110291   3.064  10.282   4.721 -1.2871  1.5957  0.7900
34776SOL    HW210292   3.138  10.270   4.853 -1.6810  0.9693  0.9579
34777SOL     OW10293   3.190   9.069  11.085  0.0475  0.2033 -0.0683
34777SOL    HW110294   3.191   9.108  10.998  0.6684  1.0278  0.2925
34777SOL    HW210295   3.101   9.083  11.118 -0.4039 -0.7681 -0.8474
34778SOL     OW10296   5.000   5.455   8.914 -0.2531  0.0824 -0.5068
34778SOL    HW110297   5.028   5.393   8.981 -0.9458 -0.7411 -0.9607
34778SOL    HW210298   5.076   5.511   8.900 -0.1137  0.2971  0.9876
34779SOL     OW10299   7.896   1.342   4.961 -0.3875 -0.7761 -0.2873
34779SOL    HW110300   7.980   1.302   4.984 -0.8538 -2.0179 -0.6679
34779SOL    HW210301   7.830   1.281   4.994 -1.1206 -0.4167 -1.0496
34780SOL     OW10302   8.921   4.839   1.653 -0.1111 -0.2432 -0.2411
34780SOL    HW110303   8.874   4.921   1.641  0.4238  0.0127 -0.6745
34780SOL    HW210304   9.013   4.862   1.641 -0.0257 -1.0836 -1.4218
34781SOL     OW10305   0.701   8.797   0.681  0.1159  0.0210 -0.2225
34781SOL    HW110306   0.690   8.841   0.765 -1.6509 -1.1202  0.1926
34781SOL    HW210307   0.791   8.819   0.654  0.4262  1.0966  1.5366
34782SOL     OW10308   6.023   9.453   8.401  0.5799 -0.0083 -0.3175
34782SOL    HW110309   6.106   9.472   8.356  0.9920  0.8278  0.7506
34782SOL    HW210310   6.048   9.427   8.489 -0.2732 -0.3873 -0.1756
34783SOL     OW10311   4.004   3.887   2.238  0.6192  0.3959 -0.4163
34783SOL    HW110312   4.012   3.956   2.304  2.0329  0.0381 -0.1826
34783SOL    HW210313   4.055   3.814   2.273  1.7696  0.3539 -2.0607
34784SOL     OW10314   3.439   8.966   9.259 -0.2972 -0.2530 -0.2776
34784SOL    HW110315   3.372   8.971   9.327 -0.8690 -1.0348 -0.7737
34784SOL    HW210316   3.431   8.878   9.222  0.0655  0.1166 -1.2890
34785SOL     OW10317   1.418   1.433  11.313  0.0240 -0.4241  0.2214
34785SOL    HW110318   1.413   1.452  11.219  0.9842 -0.4462  0.1569
34785SOL    HW210319   1.346   1.483  11.351 -0.9540 -1.1382 -0.6299
34786SOL     OW10320   7.224  11.409   1.894  0.2935  0.8248  0.0227
34786SOL    HW110321   7.225  11.361   1.977  2.3222  0.0733 -0.3930
34786SOL    HW210322   7.134  11.403   1.864 -0.5159  1.1720  2.1967
34787SOL     OW10323   9.298   0.876  10.706  0.4267  0.0649  0.0332
34787SOL    HW110324   9.355   0.912  10.638  0.2352 -1.2189 -0.8334
34787SOL    HW210325   9.307   0.781  10.698  0.0994 -0.1344  1.5599
34788SOL     OW10326   9.108   5.054   8.992  0.5186 -0.1827 -0.3763
34788SOL    HW110327   9.193   5.013   9.007  0.9302  1.1080  0.9228
34788SOL    HW210328   9.059   5.038   9.072 -0.0953  0.0037 -0.7077
34789SOL     OW10329   7.447   7.649   8.368  0.3088 -0.2155  0.4697
34789SOL    HW110330   7.509   7.641   8.440  0.7788 -2.2319 -0.0839
34789SOL    HW210331   7.375   7.591   8.392 -0.3904  0.4881  0.1306
34790SOL     OW10332   1.793   9.523  10.418  0.4124 -0.2185  0.8070
34790SOL    HW110333   1.783   9.606  10.370  1.4779  0.4046  1.5956
34790SOL    HW210334   1.801   9.457  10.350  0.5721  0.4664  0.1363
34791SOL     OW10335   1.219   7.869   8.234 -0.4661 -0.4558 -0.0874
34791SOL    HW110336   1.289   7.834   8.178 -0.1545 -1.3181  0.8070
34791SOL    HW210337   1.197   7.953   8.195 -0.0075 -0.8695 -1.2928
34792SOL     OW10338  12.075   7.564   8.707 -0.1069  0.6535 -0.5390
34792SOL    HW110339  12.164   7.585   8.736  0.7347 -0.3054 -2.2755
34792SOL    HW210340  12.022   7.639   8.736  1.5273  1.9539 -0.7548
34793SOL     OW10341   4.618   5.446  10.240  0.1859  0.8870 -0.0718
34793SOL    HW110342   4.655   5.412  10.321  2.7678 -2.4879 -2.3181
34793SOL    HW210343   4.557   5.378  10.211 -0.4335  1.8382 -1.0826
34794SOL     OW10344   0.729   1.661   0.529  0.2540  0.4187  0.1210
34794SOL    HW110345   0.728   1.698   0.617 -0.8996 -1.0954  0.7860
34794SOL    HW210346   0.819   1.629   0.518  0.3768  0.5135  0.7942
34795SOL     OW10347   3.115   6.072   6.941 -0.1269 -0.4193 -0.0277
34795SOL    HW110348   3.210   6.075   6.946 -0.1082 -0.5636 -0.2644
34795SOL    HW210349   3.093   5.979   6.953 -0.4563 -0.0118  3.4309
34796SOL     OW10350  10.000   7.132  11.434  0.1333  0.5949  0.1976
34796SOL    HW110351  10.090   7.098  11.435 -0.2818 -0.5235  0.4787
34796SOL    HW210352   9.952   7.076  11.495 -0.6012  1.6483  0.6221
34797SOL     OW10353   6.351  11.668   6.414 -0.2108  0.0890  0.1889
34797SOL    HW110354   6.282  11.701   6.472 -0.0526 -0.7213  0.8586
34797SOL    HW210355   6.347  11.725   6.337 -1.0719  0.5717  0.5759
34798SOL     OW10356   6.370  11.254   6.308 -0.3083 -0.7133 -0.2143
34798SOL    HW110357   6.284  11.295   6.315 -0.3253 -0.8579  0.5690
34798SOL    HW210358   6.358  11.180   6.249 -1.2341 -1.9947  1.4991
34799SOL     OW10359   6.219   0.498   8.960  0.3157  0.8708  0.2319
34799SOL    HW110360   6.226   0.414   8.915 -1.3062  0.0786  1.3548
34799SOL    HW210361   6.237   0.478   9.052  2.0566  2.1786  0.2315
34800SOL     OW10362   4.483   4.229   7.039 -0.1549 -0.2288  0.3692
34800SOL    HW110363   4.475   4.135   7.052  0.7484 -0.6533 -1.7561
34800SOL    HW210364   4.425   4.268   7.105 -3.4154 -2.3743 -0.9967
34801SOL     OW10365   0.788   6.561   7.655  0.7369  0.2579 -0.5868
34801SOL    HW110366   0.705   6.602   7.679  0.2529 -0.5879 -0.7795
34801SOL    HW210367   0.838   6.558   7.736  0.4463  0.4623 -0.3989
34802SOL     OW10368   8.741   1.504   2.453  0.0634 -0.1181  0.0427
34802SOL    HW110369   8.724   1.597   2.437  1.1507 -0.1701 -1.6094
34802SOL    HW210370   8.767   1.500   2.545  0.0622  1.2169  0.1185
34803SOL     OW10371   3.322  10.299   1.526  0.1380 -0.2957  0.2953
34803SOL    HW110372   3.394  10.279   1.587  0.3669 -2.3572 -0.5387
34803SOL    HW210373   3.243  10.287   1.578  0.3348 -1.8216  0.2958
34804SOL     OW10374   7.801   2.957   5.879 -0.1049  0.4695  0.4080
34804SOL    HW110375   7.741   3.031   5.881 -0.8867 -0.1201 -0.2477
34804SOL    HW210376   7.812   2.932   5.971  0.7984  1.8612  0.7125
34805SOL     OW10377   0.244   4.423   9.043  0.0372 -0.6628 -0.9379
34805SOL    HW110378   0.175   4.397   9.104 -0.6651 -1.3359 -1.9736
34805SOL    HW210379   0.223   4.513   9.018 -0.3940 -0.8195 -1.1415
34806SOL     OW10380   8.571   3.339   1.357  0.3530  0.2856 -0.4355
34806SOL    HW110381   8.638   3.286   1.314  0.6312  0.0081  0.3208
34806SOL    HW210382   8.503   3.275   1.381  0.4980  0.3274  0.1043
34807SOL     OW10383   9.199   5.472   8.264  0.0350  0.1255  0.8858
34807SOL    HW110384   9.285   5.451   8.302  0.5474 -0.0743 -0.3254
34807SOL    HW210385   9.211   5.457   8.170 -1.3280  0.1257  0.7005
34808SOL     OW10386   1.789   9.617   8.100  0.4673  0.1259  0.3764
34808SOL    HW110387   1.840   9.539   8.125 -0.6080 -1.3358 -1.7067
34808SOL    HW210388   1.708   9.582   8.064 -1.2271  2.3395  1.7808
34809SOL     OW10389   8.025   2.950   6.876  0.0017 -0.3407  0.0945
34809SOL    HW110390   8.089   2.996   6.929  0.3639 -1.0248  0.2684
34809SOL    HW210391   7.953   3.012   6.865  0.3599  0.1609  0.5382
34810SOL     OW10392   5.207  11.992   4.832  0.5061 -0.2199  0.0636
34810SOL    HW110393   5.226  11.906   4.795  0.3429 -0.6700  1.0092
34810SOL    HW210394   5.292  12.032   4.847  0.5917  0.5519 -2.0584
34811SOL     OW10395   7.834   7.988   6.572  0.7073  0.1502  0.3717
34811SOL    HW110396   7.906   7.937   6.609  0.8591  1.1440  1.5188
34811SOL    HW210397   7.876   8.047   6.509  0.4003 -1.8245 -1.8090
34812SOL     OW10398  10.740   6.264   0.427  0.3599 -0.2448 -0.2625
34812SOL    HW110399  10.683   6.243   0.353  0.9773  0.8950 -1.0740
34812SOL    HW210400  10.710   6.350   0.457  1.7595  0.4651 -0.8299
34813SOL     OW10401   4.965   2.223  11.319  0.3030  0.0745  0.2199
34813SOL    HW110402   4.895   2.288  11.331  1.5109  1.8754 -1.7559
34813SOL    HW210403   4.926   2.140  11.349 -2.5820  1.0251 -0.5755
34814SOL     OW10404   3.807   0.162   5.771 -0.0030 -0.3154  0.2186
34814SOL    HW110405   3.811   0.205   5.856 -2.2071  1.3601 -0.4272
34814SOL    HW210406   3.756   0.083   5.786  0.2424 -0.4012  0.5919
34815SOL     OW10407   5.933   3.492   8.042 -0.0240  0.6364  0.7519
34815SOL    HW110408   5.863   3.510   8.106 -0.0945 -1.1972  1.2460
34815SOL    HW210409   6.009   3.471   8.095  0.7205  1.8074  0.1991
34816SOL     OW10410   5.682   8.969   6.825 -0.2571 -0.5273 -0.0274
34816SOL    HW110411   5.586   8.965   6.818 -0.4152  0.3743  1.2523
34816SOL    HW210412   5.706   9.050   6.781 -0.4356  0.8313  2.1951
34817SOL     OW10413   2.172   5.439   1.099 -0.4116  0.1839 -0.0334
34817SOL    HW110414   2.223   5.512   1.135 -1.7081  1.1368 -0.0897
34817SOL    HW210415   2.198   5.364   1.152  0.5453  0.7803  0.3782
34818SOL     OW10416   8.026   2.555  10.856 -0.4798  0.3839 -0.2472
34818SOL    HW110417   8.063   2.521  10.937  1.3991  2.7703  0.0053
34818SOL    HW210418   7.949   2.605  10.883  0.1970  1.2551  0.1266
34819SOL     OW10419   5.614   5.078   5.571  0.0971  0.0804 -0.2099
34819SOL    HW110420   5.647   5.140   5.637 -1.6245  1.2397 -0.3683
34819SOL    HW210421   5.601   4.996   5.619 -0.5894  0.7475  0.7879
34820SOL     OW10422  10.905   9.925   2.897 -0.1222 -0.5600 -0.5018
34820SOL    HW110423  10.849  10.001   2.913  1.9973  0.5893  2.3333
34820SOL    HW210424  10.976   9.959   2.842 -0.1471 -0.9802 -0.7976
34821SOL     OW10425   1.767   7.314   4.263 -0.0255  0.7490  0.0001
34821SOL    HW110426   1.750   7.314   4.358 -2.7707 -0.7300 -0.3828
34821SOL    HW210427   1.811   7.231   4.246 -0.3103  0.6155 -0.1010
34822SOL     OW10428   9.439  11.080   3.525  0.4731 -0.6782 -0.0078
34822SOL    HW110429   9.483  11.120   3.450  1.8657 -0.0091  1.1413
34822SOL    HW210430   9.485  10.998   3.540  0.3470 -0.7013  0.2663
34823SOL     OW10431   8.205  11.102   8.520 -0.4252 -0.1709  0.1503
34823SOL    HW110432   8.289  11.061   8.502  0.6798  1.8531  0.3814
34823SOL    HW210433   8.175  11.135   8.435 -1.2334 -1.2364 -0.0081
34824SOL     OW10434   8.696   8.988   7.980 -0.6133  0.4901  0.2577
34824SOL    HW110435   8.690   8.991   8.076  3.6103  0.6936  0.6961
34824SOL    HW210436   8.774   8.935   7.963 -0.0316  2.1727 -3.0262
34825SOL     OW10437   2.833   1.910  10.113  0.5382 -0.0403  0.1830
34825SOL    HW110438   2.861   2.001  10.128 -0.5683  0.4130 -0.4170
34825SOL    HW210439   2.886   1.881  10.039 -1.4998  1.3205 -1.9505
34826SOL     OW10440   6.031  10.015   2.035 -0.1778  0.3462 -0.6332
34826SOL    HW110441   5.992  10.075   2.099 -0.4101 -1.1712  0.7297
34826SOL    HW210442   6.114  10.056   2.011 -0.5562  1.4438 -0.1409
34827SOL     OW10443   0.825  10.996   7.982 -0.1263  0.0483 -0.2603
34827SOL    HW110444   0.741  11.023   8.020 -0.0950 -0.9004  0.5224
34827SOL    HW210445   0.834  10.904   8.006  0.6029 -0.1830 -1.3344
34828SOL     OW10446  10.391   5.720   1.303  0.3434 -0.3903  0.2328
34828SOL    HW110447  10.368   5.760   1.220 -1.2566  0.7056  1.1563
34828SOL    HW210448  10.485   5.739   1.314  0.2470  0.6672 -0.6602
34829SOL     OW10449  10.756   0.892   7.799 -0.5707 -0.5485  0.4613
34829SOL    HW110450  10.675   0.936   7.771 -0.5460 -1.6504 -1.5670
34829SOL    HW210451  10.826   0.946   7.764 -0.5400 -2.4228 -2.7832
34830SOL     OW10452   6.244   6.912  10.492 -0.2095  0.8564 -0.2111
34830SOL    HW110453   6.195   6.986  10.528  0.4188 -0.0574  2.7618
34830SOL    HW210454   6.177   6.844  10.480 -0.3734  1.0610 -0.4718
34831SOL     OW10455  10.984   4.445   0.397  0.8619 -0.3881  0.0920
34831SOL    HW110456  11.032   4.403   0.468 -0.2846 -1.7665  0.0920
34831SOL    HW210457  10.956   4.373   0.341 -1.0812  0.3703  0.0178
34832SOL     OW10458   0.091  11.731  11.951 -0.2526  0.0708  0.1248
34832SOL    HW110459   0.037  11.754  12.026 -0.0199  2.7525 -0.3934
34832SOL    HW210460   0.028  11.712  11.881 -0.5808  1.7296 -0.0771
34833SOL     OW10461  10.613   1.281   3.918 -0.1468 -0.3675  0.1397
34833SOL    HW110462  10.537   1.316   3.964 -0.1125 -0.4425  0.2533
34833SOL    HW210463  10.578   1.254   3.833 -0.0186  0.6547 -0.2494
34834SOL     OW10464   0.616   7.306   7.370 -0.0646  0.1430  0.6919
34834SOL    HW110465   0.556   7.309   7.445 -1.1373  0.9469 -0.1631
34834SOL    HW210466   0.603   7.219   7.333  0.5620 -0.3068  1.4849
34835SOL     OW10467  11.066   7.102   9.426 -0.2365  0.3893  0.3023
34835SOL    HW110468  11.155   7.139   9.428 -0.3743  0.7132  0.3942
34835SOL    HW210469  11.075   7.017   9.468 -0.0233  0.5388  0.5625
34836SOL     OW10470   3.019  10.826   5.582 -0.1066 -0.8931  0.5203
34836SOL    HW110471   3.008  10.886   5.509 -2.9099 -0.9263  0.8093
34836SOL    HW210472   2.997  10.878   5.660 -0.5173 -1.7314  0.9807
34837SOL     OW10473   7.649  10.851   1.159 -0.0879 -0.3606  0.4968
34837SOL    HW110474   7.705  10.928   1.149  0.3864 -0.5222  1.7654
34837SOL    HW210475   7.674  10.793   1.087  0.2409  0.2382  0.1169
34838SOL     OW10476   2.796   2.190   6.770  0.4264  0.5269  0.0447
34838SOL    HW110477   2.797   2.170   6.864 -1.3685  1.3823  0.2951
34838SOL    HW210478   2.707   2.220   6.753  0.1812 -1.3289 -2.3443
34839SOL     OW10479   1.852  10.439   5.251  0.1686 -0.1333 -0.0976
34839SOL    HW110480   1.896  10.504   5.306  0.5780  0.4630 -1.1039
34839SOL    HW210481   1.762  10.435   5.286  0.0201  1.2849 -0.2792
34840SOL     OW10482   6.389   7.266  11.081 -0.1661 -0.1893  0.1204
34840SOL    HW110483   6.359   7.180  11.113 -0.1776 -0.7533 -1.3221
34840SOL    HW210484   6.312   7.323  11.090 -0.7548 -0.8266 -0.6366
34841SOL     OW10485  10.498   7.238   9.879  0.5256  0.0510 -0.0160
34841SOL    HW110486  10.549   7.298   9.825  0.3381 -1.3095 -1.7839
34841SOL    HW210487  10.558   7.210   9.947  1.4787  0.1108 -0.8127
34842SOL     OW10488   1.050   7.182   5.625 -0.1541 -0.0837  0.1764
34842SOL    HW110489   1.063   7.088   5.612 -2.9785 -0.4899 -0.4158
34842SOL    HW210490   1.019   7.214   5.540  0.9145  1.4506  0.3221
34843SOL     OW10491   4.523   4.566  10.923  0.5350  0.0161  0.1289
34843SOL    HW110492   4.494   4.590  11.012  0.9865  1.0240  0.0179
34843SOL    HW210493   4.491   4.638  10.868  0.1661 -0.6568 -0.5497
34844SOL     OW10494   4.151   1.328   8.144 -0.0259 -0.4149 -0.3861
34844SOL    HW110495   4.097   1.251   8.158  0.0413 -0.3482  0.2880
34844SOL    HW210496   4.225   1.297   8.092 -0.3997 -0.6315 -0.7954
34845SOL     OW10497   5.408   5.855   3.624  0.6777  0.0311 -0.1480
34845SOL    HW110498   5.476   5.837   3.559  0.8083  0.4666 -0.1384
34845SOL    HW210499   5.407   5.778   3.680  0.0049 -0.7110 -1.1431
34846SOL     OW10500  10.543   3.340   1.836 -0.7292  0.2943 -0.2062
34846SOL    HW110501  10.630   3.304   1.820 -1.1675 -1.2603  0.6369
34846SOL    HW210502  10.514   3.297   1.916 -2.5518  0.1922 -0.8654
34847SOL     OW10503   1.663  11.112   0.927  0.3812  0.0285  0.2025
34847SOL    HW110504   1.728  11.084   0.992  0.6006 -0.2786 -0.1454
34847SOL    HW210505   1.585  11.061   0.947  0.3082  0.2521  0.4952
34848SOL     OW10506  11.180   0.738   1.831  0.1273 -0.6402 -0.2168
34848SOL    HW110507  11.107   0.677   1.819 -0.2570 -0.3168  0.4015
34848SOL    HW210508  11.227   0.737   1.748 -0.2989 -1.2269 -0.4545
34849SOL     OW10509   3.063   0.706   6.157 -0.4721  0.2347  0.1994
34849SOL    HW110510   2.987   0.759   6.134 -0.1869  0.5919  0.0687
34849SOL    HW210511   3.068   0.712   6.253  0.2309  1.4007  0.1128
34850SOL     OW10512   1.695   2.914   7.332 -0.1293 -0.2418 -0.0115
34850SOL    HW110513   1.720   2.821   7.326  1.1313  0.1836 -2.4076
34850SOL    HW210514   1.776   2.960   7.352 -0.5718  0.4448  0.2538
34851SOL     OW10515   0.790  11.545   4.959 -0.1317 -0.4048 -0.0826
34851SOL    HW110516   0.811  11.558   5.052 -2.3808  0.8463  0.3077
34851SOL    HW210517   0.760  11.454   4.954 -2.1852  0.1635  0.9203
34852SOL     OW10518  11.616   0.529  12.104  0.5937 -0.2994 -0.0269
34852SOL    HW110519  11.619   0.542  12.198  1.5342 -0.6153 -0.0031
34852SOL    HW210520  11.677   0.457  12.087  1.7651  0.8734 -1.0496
34853SOL     OW10521   7.640  10.696  10.087  0.8349 -0.4300  0.3214
34853SOL    HW110522   7.726  10.660  10.104  0.6991 -1.0626 -0.3074
34853SOL    HW210523   7.645  10.786  10.120  1.2979 -0.8831  1.5187
34854SOL     OW10524   2.810   1.528   6.585 -0.0378  0.3517 -0.9508
34854SOL    HW110525   2.766   1.606   6.617 -0.2106  0.0681 -0.4800
34854SOL    HW210526   2.891   1.560   6.545 -1.3407  1.0442 -3.2356
34855SOL     OW10527   3.654  11.230   7.775 -0.3351  0.4119  0.0045
34855SOL    HW110528   3.564  11.240   7.743 -0.9622 -2.1322  0.8014
34855SOL    HW210529   3.646  11.177   7.854  1.9859 -1.0553 -0.6541
34856SOL     OW10530   5.284   1.778   5.322  0.3391  0.0559 -0.3630
34856SOL    HW110531   5.354   1.726   5.360  1.1139 -0.0506 -1.8661
34856SOL    HW210532   5.228   1.800   5.396  1.1168 -1.1539  0.6246
34857SOL     OW10533   8.190  10.363   7.840 -0.2516  1.1268 -0.0102
34857SOL    HW110534   8.175  10.393   7.751  2.0580  0.4351 -0.6729
34857SOL    HW210535   8.260  10.299   7.834 -0.0410  1.0311  2.3007
34858SOL     OW10536   4.239   6.013  11.576  0.3998  0.4126 -0.9140
34858SOL    HW110537   4.154   6.012  11.620 -0.1111 -3.7578 -1.5344
34858SOL    HW210538   4.303   6.003  11.647  0.1579  0.8933 -0.6275
34859SOL     OW10539   9.444   3.845   5.388 -0.1806 -0.1411 -0.4482
34859SOL    HW110540   9.350   3.847   5.410 -0.7065 -1.2146 -2.3957
34859SOL    HW210541   9.477   3.768   5.435 -0.8690 -1.2601 -1.7167
34860SOL     OW10542   8.888  10.154  11.243  0.4489 -0.4504  0.1851
34860SOL    HW110543   8.965  10.137  11.297  1.6844  0.7973 -1.0921
34860SOL    HW210544   8.911  10.231  11.191 -1.2710 -0.6559 -0.9811
34861SOL     OW10545  10.359   3.235   4.775 -0.2372 -0.0411  0.8069
34861SOL    HW110546  10.273   3.210   4.741 -1.4642  1.9354  2.2332
34861SOL    HW210547  10.359   3.204   4.865  1.2748 -1.5269  0.3321
34862SOL     OW10548  11.247   4.455   4.270  0.3078 -0.0564  0.0059
34862SOL    HW110549  11.290   4.379   4.310  1.4418  0.8124  0.5211
34862SOL    HW210550  11.293   4.530   4.307  0.2205  0.8439 -1.6153
34863SOL     OW10551  10.258   1.760   0.698 -0.1368 -0.1209  0.0958
34863SOL    HW110552  10.260   1.785   0.606  0.5319 -1.1076 -0.1683
34863SOL    HW210553  10.205   1.680   0.700  0.2410 -0.3603  0.5024
34864SOL     OW10554  11.597   6.809   2.145 -0.0567 -0.2296  0.2082
34864SOL    HW110555  11.510   6.784   2.113 -0.3406  1.2669 -0.2916
34864SOL    HW210556  11.606   6.901   2.120  1.0120  0.1158  1.6955
34865SOL     OW10557  10.308   7.422   0.579 -0.3818 -0.0059 -0.3970
34865SOL    HW110558  10.371   7.408   0.509  2.4448  0.5647  1.8376
34865SOL    HW210559  10.297   7.336   0.620  0.7924  0.2603  0.5652
34866SOL     OW10560   4.519   3.295   1.054 -0.4194 -0.8328  0.4086
34866SOL    HW110561   4.465   3.274   0.978  1.2844 -1.4987 -0.6718
34866SOL    HW210562   4.500   3.387   1.072  0.9749  0.0915 -2.4190
34867SOL     OW10563   7.996   6.515   3.363  0.0099 -0.8496  0.3672
34867SOL    HW110564   7.909   6.549   3.386 -0.0569 -0.5889 -0.2346
34867SOL    HW210565   8.046   6.593   3.338  0.1728 -1.0797 -0.0333
34868SOL     OW10566   8.232   1.055   2.048  0.5501 -0.1637 -0.1560
34868SOL    HW110567   8.155   1.003   2.022 -0.2614  0.9286 -0.0155
34868SOL    HW210568   8.306   1.008   2.010 -0.0699 -1.8249  0.5660
34869SOL     OW10569   9.765   8.660   5.831 -0.0656 -0.0413  0.6379
34869SOL    HW110570   9.774   8.743   5.784  0.0589  0.2721  1.2010
34869SOL    HW210571   9.853   8.623   5.832  0.0566  0.2520  1.1542
34870SOL     OW10572   1.102   0.374   0.889  0.2600  0.4218 -0.0174
34870SOL    HW110573   1.063   0.459   0.910 -0.8014  0.2134 -1.0190
34870SOL    HW210574   1.194   0.394   0.873  0.3158  1.1531  1.0867
34871SOL     OW10575   9.417   6.882   1.253 -0.2890 -0.1106 -0.3151
34871SOL    HW110576   9.467   6.812   1.294 -1.8840 -0.4663  1.1570
34871SOL    HW210577   9.430   6.870   1.159  1.0457 -1.1553 -0.0177
34872SOL     OW10578   6.830   8.164  11.262 -1.0455  0.5341 -0.0293
34872SOL    HW110579   6.886   8.142  11.337 -0.7235 -0.6213 -0.5828
34872SOL    HW210580   6.801   8.254  11.279  1.4937  1.4358 -0.0359
34873SOL     OW10581  11.630  11.958   7.678  0.1167  0.6454 -0.3385
34873SOL    HW110582  11.616  12.038   7.627 -0.6406 -0.2496 -1.5842
34873SOL    HW210583  11.642  11.889   7.612 -1.4294 -0.6430  0.6534
34874SOL     OW10584   1.244  10.274  10.281 -0.0498 -0.2087  0.4654
34874SOL    HW110585   1.224  10.366  10.264 -0.6461 -0.2012  1.1597
34874SOL    HW210586   1.240  10.266  10.376 -0.9571 -1.1477  0.3725
34875SOL     OW10587   3.535   1.658  10.957  0.0942 -0.3460 -0.1165
34875SOL    HW110588   3.532   1.739  10.905 -1.4296  0.2908  0.8997
34875SOL    HW210589   3.523   1.588  10.893  1.6084  0.1750 -1.0392
34876SOL     OW10590   2.782   0.615  11.367 -0.0363  0.1115  0.0766
34876SOL    HW110591   2.865   0.575  11.393 -0.1714 -1.3200 -1.5045
34876SOL    HW210592   2.716   0.575  11.423 -0.1547 -1.9527 -1.3942
34877SOL     OW10593  11.818   3.066   4.002  0.2695  0.4975  0.3549
34877SOL    HW110594  11.797   2.984   4.047  1.5457  0.4354  0.8814
34877SOL    HW210595  11.736   3.092   3.960 -0.0756 -1.2612 -0.1751
34878SOL     OW10596  10.670   9.401   0.042 -0.1858  0.5899  0.1716
34878SOL    HW110597  10.740   9.454   0.080 -0.0740  1.1911 -0.8530
34878SOL    HW210598  10.704   9.371  -0.042 -0.4596 -0.6873  0.4897
34879SOL     OW10599   5.423   8.741  11.872 -0.2807  0.2893 -0.2007
34879SOL    HW110600   5.491   8.797  11.908 -0.4609  0.3040  0.1168
34879SOL    HW210601   5.373   8.798  11.814 -0.6331  0.5323  0.3316
34880SOL     OW10602  10.729  10.419   0.714 -1.3240  0.0127 -0.2905
34880SOL    HW110603  10.724  10.332   0.756 -0.1329 -0.2172 -0.6002
34880SOL    HW210604  10.679  10.476   0.772 -0.2743 -0.4382  1.1213
34881SOL     OW10605   2.709   8.018   3.157 -0.1157  0.0362  0.0412
34881SOL    HW110606   2.760   8.099   3.159  1.6844 -1.0580  1.0399
34881SOL    HW210607   2.671   8.015   3.069  0.6729  1.4356 -0.3716
34882SOL     OW10608  11.094   9.629   3.220 -0.1427 -0.2236 -0.3572
34882SOL    HW110609  11.156   9.592   3.157 -1.1568  0.8625 -2.0749
34882SOL    HW210610  11.022   9.661   3.167 -0.8146  1.2385  1.3369
34883SOL     OW10611  11.082   4.861  10.134 -0.0191 -0.1645 -0.5223
34883SOL    HW110612  11.177   4.863  10.122 -0.0957  0.0581 -1.1456
34883SOL    HW210613  11.057   4.953  10.146 -0.3822  0.0060 -2.3530
34884SOL     OW10614  10.965  11.741   4.756 -0.5329 -0.5404 -0.0262
34884SOL    HW110615  10.888  11.785   4.721  0.3443 -0.8591 -2.5282
34884SOL    HW210616  10.958  11.753   4.851 -2.1295  1.9161 -0.3743
34885SOL     OW10617  10.358   7.395   4.822  0.3620  0.9365  0.1747
34885SOL    HW110618  10.439   7.435   4.852  0.3911  0.9189  0.1203
34885SOL    HW210619  10.374   7.373   4.730 -0.1210  2.0139 -0.1765
34886SOL     OW10620   2.874   6.263   1.335  0.5047  0.6548  0.3938
34886SOL    HW110621   2.951   6.225   1.378 -0.1531 -0.6643  0.4686
34886SOL    HW210622   2.885   6.240   1.243  0.4473  0.9079  0.3235
34887SOL     OW10623  10.597   9.961   2.022 -0.6113 -0.3605 -0.0573
34887SOL    HW110624  10.529   9.907   1.982  0.7720 -1.0906 -1.5228
34887SOL    HW210625  10.632   9.906   2.092 -0.5512 -0.5598 -0.2420
34888SOL     OW10626  10.604   2.672   5.316  0.3195 -0.0410 -0.3186
34888SOL    HW110627  10.609   2.725   5.396  0.4543 -0.5300  0.0044
34888SOL    HW210628  10.622   2.582   5.346 -2.2959 -0.6778 -0.4298
34889SOL     OW10629   5.760   1.115  11.076 -0.4568 -0.2150 -0.0880
34889SOL    HW110630   5.760   1.183  11.008 -0.2105  0.9184  1.0206
34889SOL    HW210631   5.835   1.059  11.054  0.1332  0.6352 -0.2762
34890SOL     OW10632   5.547   5.655  11.814  0.0483 -0.6327 -0.5312
34890SOL    HW110633   5.637   5.624  11.826  0.0611 -0.2291  0.5221
34890SOL    HW210634   5.548   5.744  11.848 -0.5500 -0.3032 -1.3411
34891SOL     OW10635  11.462   8.848  12.123  0.1746 -0.4104 -0.0284
34891SOL    HW110636  11.524   8.776  12.131  0.2244 -0.3403  0.2458
34891SOL    HW210637  11.477   8.883  12.035  1.3365  0.3432  0.4418
34892SOL     OW10638   2.314   7.264   1.198 -0.2058 -0.2288 -0.1243
34892SOL    HW110639   2.286   7.355   1.210  0.1610 -0.0934 -0.2838
34892SOL    HW210640   2.320   7.229   1.287  1.2834  0.4002  0.0547
34893SOL     OW10641  11.563   7.851   1.115  0.2461  0.6213  0.5494
34893SOL    HW110642  11.511   7.799   1.176 -0.1405  0.3277 -0.0242
34893SOL    HW210643  11.625   7.788   1.077  0.2494  0.7268  0.3793
34894SOL     OW10644   6.192   7.814   3.904  0.3930 -0.5157 -0.1380
34894SOL    HW110645   6.181   7.749   3.833  1.0512  0.5785 -1.2798
34894SOL    HW210646   6.226   7.763   3.978  2.9109 -1.2082 -1.6404
34895SOL     OW10647   1.799   4.174   3.272 -0.1264 -0.0559  0.0695
34895SOL    HW110648   1.730   4.162   3.337 -0.9055  2.4455 -0.1857
34895SOL    HW210649   1.863   4.106   3.292 -1.4307 -0.8032  1.9687
34896SOL     OW10650  11.261  11.811   1.642  0.0874  0.1866 -0.9161
34896SOL    HW110651  11.282  11.868   1.716  1.2392  0.9046 -1.7601
34896SOL    HW210652  11.345  11.775   1.615 -0.4984 -1.1753 -1.0209
34897SOL     OW10653   0.294  11.913   0.677 -0.3374  0.1369  0.3679
34897SOL    HW110654   0.300  11.877   0.588 -0.1035  0.2756  0.3261
34897SOL    HW210655   0.200  11.923   0.692 -0.3652  0.7968 -0.1521
34898SOL     OW10656  10.045   8.655   7.323 -0.7955 -0.2925 -0.3074
34898SOL    HW110657  10.059   8.580   7.381 -1.2771 -1.2918 -1.4501
34898SOL    HW210658  10.079   8.627   7.239 -0.3391  1.0531 -0.5928
34899SOL     OW10659   3.279   3.878   7.079  0.3917 -0.3085  0.0552
34899SOL    HW110660   3.199   3.895   7.028  0.1048  0.8832  0.8440
34899SOL    HW210661   3.348   3.875   7.013  0.0487  1.3195 -0.4430
34900SOL     OW10662   7.793   2.990   7.146  0.2862 -0.1436 -0.4711
34900SOL    HW110663   7.886   2.979   7.169  0.7210 -0.1034 -2.1308
34900SOL    HW210664   7.752   2.909   7.176  1.1058 -0.7410 -0.9185
34901SOL     OW10665  10.887   2.275   5.531  0.4491 -0.2662 -1.0595
34901SOL    HW110666  10.964   2.248   5.481  0.6937  0.4679 -1.0997
34901SOL    HW210667  10.917   2.350   5.583 -0.7570  1.4381 -2.6833
34902SOL     OW10668   3.799   0.555   8.002  0.3521 -0.0525  0.2392
34902SOL    HW110669   3.878   0.598   8.035  0.6538  0.4866 -1.1120
34902SOL    HW210670   3.753   0.527   8.080  1.7191 -0.0807  1.0759
34903SOL     OW10671  11.127  11.228   7.317  0.0846  0.3281 -0.1412
34903SOL    HW110672  11.048  11.224   7.263  1.4276  0.5137 -2.2050
34903SOL    HW210673  11.096  11.263   7.401 -2.3171 -1.2402 -0.2502
34904SOL     OW10674   3.121   8.567   1.880 -0.4249  0.3495  0.2840
34904SOL    HW110675   3.037   8.553   1.836 -0.4529  1.2792  0.0075
34904SOL    HW210676   3.145   8.481   1.914 -0.6338 -0.3032 -1.1409
34905SOL     OW10677   3.260   9.094   9.449 -0.4861  0.7111  0.5332
34905SOL    HW110678   3.325   9.107   9.518 -0.3043  2.4991  0.0884
34905SOL    HW210679   3.175   9.108   9.492 -0.4558  0.4140  0.6879
34906SOL     OW10680   0.147   0.530   4.511  0.2680 -0.2983 -0.3735
34906SOL    HW110681   0.237   0.507   4.535  0.9401  1.9589 -0.5640
34906SOL    HW210682   0.140   0.506   4.419  1.1705  0.8329 -0.7593
34907SOL     OW10683   4.171   1.785   9.866 -0.7409  0.5692  0.7958
34907SOL    HW110684   4.200   1.848   9.800  0.0485 -0.6696 -0.0962
34907SOL    HW210685   4.216   1.812   9.947 -0.3527  1.1006  0.4070
34908SOL     OW10686   8.166   6.228   6.208 -0.1079  0.4248  0.0899
34908SOL    HW110687   8.097   6.295   6.204 -0.1527  0.3268 -1.3751
34908SOL    HW210688   8.131   6.162   6.268 -0.5663  1.1510  0.6468
34909SOL     OW10689   2.523  11.133   4.492  0.0891  0.2849  0.0492
34909SOL    HW110690   2.557  11.195   4.556  0.1445 -0.9991  1.3259
34909SOL    HW210691   2.531  11.047   4.535  2.4112 -0.9893 -2.5635
34910SOL     OW10692   9.290   1.371   2.578 -0.3189 -0.1341  0.3315
34910SOL    HW110693   9.317   1.315   2.651 -2.0232 -0.6324  0.6123
34910SOL    HW210694   9.207   1.334   2.549 -0.8554  1.5068 -0.3163
34911SOL     OW10695   8.065   6.967  10.810 -0.9195 -0.3174 -0.1213
34911SOL    HW110696   8.066   6.875  10.782 -0.4037 -0.2609 -0.2915
34911SOL    HW210697   8.156   6.987  10.830 -0.7321  0.6352 -1.7010
34912SOL     OW10698   0.867   9.268  10.052 -0.5470  0.3506  0.0416
34912SOL    HW110699   0.887   9.205   9.983  1.4869  0.2026  0.6814
34912SOL    HW210700   0.792   9.230  10.098 -0.8269 -0.4181 -1.0174
34913SOL     OW10701   1.918  11.792   3.975  0.5100  0.7170  0.1560
34913SOL    HW110702   1.860  11.717   3.993  1.1106 -0.3775 -2.0882
34913SOL    HW210703   1.979  11.793   4.048 -0.5607  0.0742  1.0880
34914SOL     OW10704  10.087   7.642  10.695  0.2527  0.1342  0.1249
34914SOL    HW110705  10.036   7.605  10.767  0.3805  0.5929  0.4510
34914SOL    HW210706  10.119   7.726  10.728  0.5014  0.2435 -0.3843
34915SOL     OW10707  11.747  11.686   0.052  0.1299 -0.3949  0.1718
34915SOL    HW110708  11.779  11.632  -0.020 -0.1399  0.3377 -0.5101
34915SOL    HW210709  11.656  11.705   0.029 -0.1807 -0.7510  1.0725
34916SOL     OW10710   9.881   4.781  12.453 -0.2151 -0.0010 -0.0334
34916SOL    HW110711   9.917   4.857  12.498 -0.5307 -0.6212  1.2997
34916SOL    HW210712   9.956   4.741  12.410  0.2819  0.0201  0.7948
34917SOL     OW10713   9.561   6.346   6.793 -0.3376  0.4264 -0.4004
34917SOL    HW110714   9.486   6.391   6.831 -0.3503 -1.5978  2.2416
34917SOL    HW210715   9.635   6.373   6.848 -0.0090 -1.1529 -0.0122
34918SOL     OW10716   3.254   7.716   0.166 -0.1245  0.8311  0.0952
34918SOL    HW110717   3.333   7.741   0.117 -0.0228 -0.1447 -0.2700
34918SOL    HW210718   3.260   7.620   0.173 -0.7472  0.8458  0.9833
34919SOL     OW10719   9.453   5.682   2.334  0.3186 -0.0164 -0.7439
34919SOL    HW110720   9.392   5.755   2.338 -0.5777 -0.7918  0.7733
34919SOL    HW210721   9.483   5.680   2.243  0.2135  2.0762 -0.8617
34920SOL     OW10722   6.312   1.339   3.711 -0.3126  0.0123 -0.1256
34920SOL    HW110723   6.227   1.298   3.725  0.2068 -1.2280 -0.4395
34920SOL    HW210724   6.321   1.402   3.782 -1.8809  0.8299 -0.6150
34921SOL     OW10725   4.430  11.660   2.452  0.1828 -0.5775  0.1647
34921SOL    HW110726   4.471  11.743   2.428  0.3665 -0.8216 -0.3774
34921SOL    HW210727   4.341  11.684   2.479  0.1986 -0.2202 -0.1008
34922SOL     OW10728   9.070   7.615   5.590  0.3304 -0.7176 -0.4124
34922SOL    HW110729   9.102   7.525   5.595  0.0188 -0.8042  0.1428
34922SOL    HW210730   8.976   7.608   5.609  0.3206 -0.2672 -0.2812
34923SOL     OW10731  11.917  10.901   0.016  0.5274  0.0914  0.3088
34923SOL    HW110732  11.942  10.809   0.030  0.2685 -0.0270 -0.0057
34923SOL    HW210733  11.825  10.897  -0.007  0.7924  0.3271 -0.8614
34924SOL     OW10734   1.193   2.524   9.840 -0.0385  0.3814 -0.0601
34924SOL    HW110735   1.117   2.519   9.898 -0.7041  1.1759 -0.8277
34924SOL    HW210736   1.242   2.444   9.857 -1.2466 -0.3287  0.1934
34925SOL     OW10737   1.653   5.221   8.580  0.1253  0.4850 -0.5193
34925SOL    HW110738   1.577   5.236   8.636 -0.4478 -1.7518 -0.6288
34925SOL    HW210739   1.652   5.295   8.519 -0.5001  1.8038  1.0019
34926SOL     OW10740  12.447  10.550   5.663  1.0074 -0.2201 -0.0853
34926SOL    HW110741  12.475  10.507   5.582 -0.8411  1.8681 -1.9752
34926SOL    HW210742  12.473  10.642   5.651 -0.4278  0.3724  1.1204
34927SOL     OW10743  10.453   6.565   7.270 -0.5219  0.1506  0.0954
34927SOL    HW110744  10.373   6.575   7.219  0.0538 -3.6436 -1.8735
34927SOL    HW210745  10.447   6.478   7.309  1.9488  0.3685  1.2038
34928SOL     OW10746   7.244  11.669   9.758  0.1660  0.5758 -0.1846
34928SOL    HW110747   7.250  11.745   9.700  0.2942  0.6788 -0.0359
34928SOL    HW210748   7.215  11.705   9.842  2.2746  0.7764  0.5123
34929SOL     OW10749   9.912   0.587   1.239 -0.4007  0.0580  0.2255
34929SOL    HW110750   9.940   0.583   1.330 -0.6846  0.9472  0.3623
34929SOL    HW210751   9.914   0.496   1.209  0.4460 -0.1484  0.8836
34930SOL     OW10752   1.805   9.162   7.021 -0.7204 -0.6255  0.4550
34930SOL    HW110753   1.846   9.236   7.067 -0.4520 -1.1702  1.1017
34930SOL    HW210754   1.712   9.182   7.022 -0.6058 -0.0606  0.2036
34931SOL     OW10755   6.280   4.019  11.778 -0.4664  0.0862  0.5255
34931SOL    HW110756   6.241   3.990  11.696 -0.8947 -1.2909  1.1870
34931SOL    HW210757   6.334   4.094  11.754  0.4347 -1.0697 -1.2320
34932SOL     OW10758   8.305   3.621   9.356  0.0443  0.6440  0.8190
34932SOL    HW110759   8.322   3.709   9.323 -1.2607  0.5264 -0.2875
34932SOL    HW210760   8.240   3.633   9.425 -1.9039  0.4329 -0.8697
34933SOL     OW10761   5.910  11.935   4.152  0.3287 -0.2031 -0.0396
34933SOL    HW110762   5.839  11.875   4.174  0.1160  0.4614  1.1966
34933SOL    HW210763   5.899  12.008   4.213  1.9461  0.0069  0.0443
34934SOL     OW10764  10.582   9.731   9.529  0.1861 -0.3510 -0.1264
34934SOL    HW110765  10.512   9.673   9.500 -0.8148  0.6673  0.2063
34934SOL    HW210766  10.557   9.818   9.499  0.1088  0.4193  1.9867
34935SOL     OW10767   8.105   6.779  11.808  0.5881  0.0253  1.0662
34935SOL    HW110768   8.051   6.704  11.784  0.5701 -0.0938  1.4628
34935SOL    HW210769   8.065   6.812  11.888  1.4970 -0.4798  1.7512
34936SOL     OW10770  10.654   7.843   2.627  0.4271  0.5486 -0.3224
34936SOL    HW110771  10.571   7.842   2.580 -0.2113 -0.1214  0.8002
34936SOL    HW210772  10.648   7.772   2.690  1.4430  1.1436  0.4872
34937SOL     OW10773   7.092  10.857  12.414 -0.6305  0.0930  0.0535
34937SOL    HW110774   7.115  10.873  12.506 -0.2233  2.2023 -0.3688
34937SOL    HW210775   7.174  10.835  12.371 -0.3866  1.4187 -0.2198
34938SOL     OW10776   3.839   1.079   3.809 -0.0364 -0.0981 -0.3851
34938SOL    HW110777   3.811   1.153   3.863  0.2283 -1.4073  1.6584
34938SOL    HW210778   3.792   1.004   3.845 -0.9115 -0.8583 -2.9151
34939SOL     OW10779   1.842   1.172   9.137  0.1074  0.1335  0.2218
34939SOL    HW110780   1.924   1.123   9.147  1.4103  2.1882  0.2511
34939SOL    HW210781   1.869   1.255   9.098 -1.8010  1.3293  1.2964
34940SOL     OW10782   5.438   0.298   4.917  0.2548 -0.6227  0.2168
34940SOL    HW110783   5.430   0.284   5.011 -3.1852  1.0965  0.3144
34940SOL    HW210784   5.385   0.228   4.878  0.8414 -0.7312 -0.4069
34941SOL     OW10785   4.371   9.618   5.901  0.1602 -0.1480  0.0573
34941SOL    HW110786   4.290   9.643   5.856 -0.5501 -2.5752 -0.1689
34941SOL    HW210787   4.427   9.584   5.831  0.5477 -0.4428  0.5113
34942SOL     OW10788   5.564  11.983   6.416 -0.3402  0.0170 -0.3411
34942SOL    HW110789   5.573  11.895   6.454 -1.1261 -0.0769 -0.3637
34942SOL    HW210790   5.518  11.969   6.333 -1.2159  0.5309  0.0452
34943SOL     OW10791  12.217   8.788  11.410  0.0203 -0.1895  0.2633
34943SOL    HW110792  12.282   8.758  11.474  0.3552  0.0337  0.0288
34943SOL    HW210793  12.138   8.802  11.462  0.2123 -0.2739  0.5842
34944SOL     OW10794   0.398   3.557   5.071  0.0876  0.0502  0.0919
34944SOL    HW110795   0.382   3.634   5.125 -0.7211  0.3591 -0.5669
34944SOL    HW210796   0.412   3.486   5.134  0.4085  0.6469  0.7010
34945SOL     OW10797   3.351   2.763   4.162  0.2208 -0.0155 -0.3165
34945SOL    HW110798   3.340   2.858   4.165 -3.0204 -0.2479 -1.1966
34945SOL    HW210799   3.426   2.746   4.219  0.0288  2.9388  1.0073
34946SOL     OW10800   5.081   5.839   6.887 -0.0917 -0.3587  0.4756
34946SOL    HW110801   5.118   5.764   6.840  0.6503 -1.5796  2.8282
34946SOL    HW210802   5.140   5.912   6.866 -0.9232 -0.3177 -1.9826
34947SOL     OW10803   2.767  12.078   8.235  0.1692  0.6644  0.0936
34947SOL    HW110804   2.763  11.994   8.281 -0.3674  1.8293  2.3644
34947SOL    HW210805   2.679  12.091   8.201 -0.1034  0.8347  0.8336
34948SOL     OW10806   6.613  11.978  10.714 -0.0810  0.2848  0.0055
34948SOL    HW110807   6.701  11.940  10.722 -0.0040  0.5240  0.3159
34948SOL    HW210808   6.606  12.003  10.622  0.5340  1.1172  0.1722
34949SOL     OW10809   3.631   2.972  11.477 -0.3479 -0.5721 -0.0484
34949SOL    HW110810   3.726   2.973  11.488 -0.4583 -0.4190  1.0812
34949SOL    HW210811   3.604   3.061  11.500 -0.5909  0.0088 -2.3855
34950SOL     OW10812   6.100   1.578  10.749  0.6185  0.1621  0.8335
34950SOL    HW110813   6.098   1.534  10.664 -0.5711  0.4959  0.6809
34950SOL    HW210814   6.184   1.551  10.788  1.0429 -0.2143 -0.3188
34951SOL     OW10815  11.552   0.398   1.880 -0.2612  0.3811 -0.2602
34951SOL    HW110816  11.480   0.352   1.835  1.4814 -2.8029 -0.1193
34951SOL    HW210817  11.509   0.464   1.933 -3.3809 -2.5778  1.3025
34952SOL     OW10818   6.445  11.215   7.169 -0.1010  0.1484  0.8568
34952SOL    HW110819   6.411  11.147   7.111  0.6774  0.7007 -0.2910
34952SOL    HW210820   6.367  11.252   7.210 -0.6997 -0.1254  0.0076
34953SOL     OW10821   8.326   9.005   0.349  0.1212  0.1389 -0.2002
34953SOL    HW110822   8.288   9.080   0.394  1.6807  1.2305 -0.6506
34953SOL    HW210823   8.413   8.995   0.386  1.0141  0.3618 -2.1128
34954SOL     OW10824   6.090  10.653   3.169 -0.0826 -0.3824 -1.0127
34954SOL    HW110825   6.048  10.578   3.210  0.9961 -0.1976  0.5204
34954SOL    HW210826   6.109  10.624   3.080 -0.7653 -1.4871 -0.8167
34955SOL     OW10827   1.005   8.740  10.725 -0.9366  0.4118 -0.0464
34955SOL    HW110828   1.082   8.693  10.693 -1.1764 -0.6828  0.9157
34955SOL    HW210829   1.040   8.824  10.757 -0.0414 -0.2819  0.8755
34956SOL     OW10830   3.302   2.282   0.609 -0.1384 -0.0109  0.3174
34956SOL    HW110831   3.229   2.341   0.588 -0.6180 -1.0218 -1.0233
34956SOL    HW210832   3.354   2.280   0.529  1.1108  0.3229  1.1046
34957SOL     OW10833   2.118   3.692   8.562  0.2408 -0.1868 -0.0954
34957SOL    HW110834   2.088   3.640   8.488 -1.8333  2.5542 -1.3668
34957SOL    HW210835   2.125   3.781   8.528 -3.9309  1.9364  3.4901
34958SOL     OW10836   8.700   6.838   9.363 -0.2353 -0.2706  0.2904
34958SOL    HW110837   8.777   6.801   9.320 -0.5696  0.7230 -1.2769
34958SOL    HW210838   8.731   6.870   9.447 -0.0365 -4.4740  2.0112
34959SOL     OW10839   1.895  10.552   4.940 -0.0983  0.1780  0.1635
34959SOL    HW110840   1.943  10.530   5.020 -0.8625 -0.3736  0.4920
34959SOL    HW210841   1.931  10.494   4.873 -0.4368 -0.3822  0.4557
34960SOL     OW10842   0.394   3.870  12.348  0.3675  0.1279 -0.0087
34960SOL    HW110843   0.365   3.779  12.344  3.9716 -1.1425 -1.6332
34960SOL    HW210844   0.359   3.910  12.269 -2.3191  0.6839  1.3292
34961SOL     OW10845  11.419   1.603   3.104  0.0337 -0.1453 -0.0165
34961SOL    HW110846  11.372   1.575   3.182  1.2567 -0.2581  0.7069
34961SOL    HW210847  11.488   1.537   3.093  2.5355  2.0824  1.3021
34962SOL     OW10848   0.746   1.312   9.643 -0.5048 -0.3623 -0.4083
34962SOL    HW110849   0.710   1.246   9.703 -0.7835 -1.2292 -1.4990
34962SOL    HW210850   0.669   1.351   9.601 -0.3859  1.2051  0.7513
34963SOL     OW10851  10.234   5.241   0.360  0.0896 -0.2725  0.0552
34963SOL    HW110852  10.327   5.219   0.359  0.1446 -0.0295 -0.3614
34963SOL    HW210853  10.229   5.323   0.409  0.1802  0.0708 -0.4972
34964SOL     OW10854   2.620   5.277  12.289  0.3830 -0.2746  0.5962
34964SOL    HW110855   2.609   5.353  12.231 -0.4212  1.4192  2.8372
34964SOL    HW210856   2.699   5.234  12.256  0.0571  0.6653 -1.6294
34965SOL     OW10857  11.294   0.227  12.381  0.3791  0.6423  0.4914
34965SOL    HW110858  11.266   0.317  12.363 -1.1126  0.4488  1.5996
34965SOL    HW210859  11.218   0.187  12.423  0.8846 -1.2602 -0.3030
34966SOL     OW10860   4.552   1.391   7.626  0.5543 -0.1046 -0.1034
34966SOL    HW110861   4.618   1.456   7.600 -0.1106  0.3776 -0.6299
34966SOL    HW210862   4.469   1.434   7.607  0.0200 -0.0046  2.1714
34967SOL     OW10863   5.621  10.580   6.464 -0.4003  0.1130 -0.2865
34967SOL    HW110864   5.557  10.645   6.437 -0.5066 -0.6332 -1.9646
34967SOL    HW210865   5.569  10.508   6.499 -0.8059 -1.4345 -3.6016
34968SOL     OW10866   0.698   6.834  11.153  0.0095 -0.8323  0.4005
34968SOL    HW110867   0.753   6.797  11.083  0.4788  1.4193 -0.4866
34968SOL    HW210868   0.610   6.839  11.114  0.3246  0.6731 -0.1742
34969SOL     OW10869   9.420   5.412   9.149  0.0702  0.0290 -0.1868
34969SOL    HW110870   9.345   5.409   9.090 -0.4941  0.9027  0.4566
34969SOL    HW210871   9.465   5.494   9.128  0.4567 -0.1589 -0.1095
34970SOL     OW10872   5.502   7.430   7.494 -0.5020  0.2743 -0.2676
34970SOL    HW110873   5.509   7.393   7.582  0.1107  0.6039 -0.1722
34970SOL    HW210874   5.412   7.463   7.489 -0.2767  1.0693  0.5735
34971SOL     OW10875   2.553   1.404   5.450  0.0658 -0.0605  0.5452
34971SOL    HW110876   2.488   1.452   5.399 -0.7752 -0.1172  1.5170
34971SOL    HW210877   2.622   1.469   5.468 -0.3731  0.3868  0.6403
34972SOL     OW10878   7.008   5.471   3.536  0.4287 -0.2264  0.0028
34972SOL    HW110879   7.064   5.421   3.477  0.8323 -0.1732  0.3446
34972SOL    HW210880   7.055   5.553   3.551 -0.6642  0.7066 -1.3326
34973SOL     OW10881   7.468  10.166   1.446  0.5775  0.1850 -0.0863
34973SOL    HW110882   7.378  10.135   1.441  0.0920  1.4213  0.4173
34973SOL    HW210883   7.460  10.261   1.458  1.9376  0.2650  0.4274
34974SOL     OW10884   7.238   4.891   0.940 -0.5018  0.0820  0.6685
34974SOL    HW110885   7.276   4.853   1.020  1.6999 -0.0954 -0.3748
34974SOL    HW210886   7.306   4.951   0.908 -1.1133 -0.2318 -1.3362
34975SOL     OW10887   4.258   0.110  10.188 -0.3588 -0.0172 -0.2159
34975SOL    HW110888   4.174   0.125  10.232 -0.1765  2.3205 -0.5164
34975SOL    HW210889   4.314   0.070  10.255 -1.6371 -1.4228  0.0424
34976SOL     OW10890   7.425   4.226   5.992 -0.3899  0.2726 -0.3882
34976SOL    HW110891   7.504   4.209   5.941 -0.8514 -0.7765 -0.7837
34976SOL    HW210892   7.457   4.245   6.080  0.2592 -1.8912 -0.0965
34977SOL     OW10893   2.107   4.321   9.730 -0.0412 -0.4147  0.2637
34977SOL    HW110894   2.084   4.407   9.767 -1.0663  0.0355 -1.3218
34977SOL    HW210895   2.025   4.289   9.692  0.2932 -2.2040  0.9874
34978SOL     OW10896   8.451   6.438   7.535 -0.2637  0.0592  0.5845
34978SOL    HW110897   8.464   6.529   7.561 -0.6670  0.0892  0.6866
34978SOL    HW210898   8.521   6.390   7.580  0.2657  0.3800  0.1339
34979SOL     OW10899   3.497   2.444   7.658  0.6038  0.1784 -0.1816
34979SOL    HW110900   3.485   2.522   7.602 -0.4157 -1.2084 -2.0342
34979SOL    HW210901   3.589   2.420   7.647  0.6929  0.5859 -0.3447
34980SOL     OW10902  11.118   6.314   3.656 -0.0524 -0.4137 -0.3488
34980SOL    HW110903  11.135   6.225   3.626 -0.0969 -0.7952  0.7444
34980SOL    HW210904  11.150   6.369   3.584  2.7252 -1.2031  0.1738
34981SOL     OW10905  10.610   5.752  12.161 -0.2735  0.4096  0.4333
34981SOL    HW110906  10.549   5.678  12.153  0.0471  0.1015  0.8270
34981SOL    HW210907  10.672   5.740  12.089 -1.4300  1.4489 -0.7884
34982SOL     OW10908  12.227  10.558  12.391 -0.3131 -0.2525  0.0233
34982SOL    HW110909  12.282  10.561  12.312 -1.5722  1.0475 -0.8470
34982SOL    HW210910  12.141  10.530  12.359 -1.0437  1.0231  0.7997
34983SOL     OW10911  10.339  10.669   1.279 -0.1445 -0.1624  0.1625
34983SOL    HW110912  10.250  10.637   1.265 -0.1005 -0.5188  0.6738
34983SOL    HW210913  10.340  10.698   1.371  0.8098 -2.0130  0.7861
34984SOL     OW10914   3.045   0.416  12.267 -0.0247  0.3043  0.1836
34984SOL    HW110915   2.969   0.467  12.292 -0.6495 -0.7438  0.4978
34984SOL    HW210916   3.057   0.353  12.339  0.9062  0.2123 -0.0354
34985SOL     OW10917   1.807   5.511   6.504 -0.0539 -0.1646 -0.9928
34985SOL    HW110918   1.737   5.571   6.532 -0.5555 -1.0508 -0.3065
34985SOL    HW210919   1.790   5.496   6.411 -0.4880 -0.0021 -0.9417
34986SOL     OW10920   1.417   8.642   3.797  0.6354 -0.0930  0.1649
34986SOL    HW110921   1.365   8.619   3.720 -0.0512 -0.3985  0.7083
34986SOL    HW210922   1.506   8.617   3.773  0.7338  1.3952 -1.1700
34987SOL     OW10923   6.223   5.684   2.526 -0.1495  0.3129  0.1416
34987SOL    HW110924   6.247   5.745   2.456 -0.5301  0.9593  0.5693
34987SOL    HW210925   6.291   5.616   2.522  0.1424  0.6304 -0.4965
34988SOL     OW10926   0.971   6.011   9.960 -0.4371  0.1647 -0.3054
34988SOL    HW110927   0.927   5.927   9.946 -1.1024  0.3193  0.7643
34988SOL    HW210928   1.018   6.000  10.042  0.0194  0.6233 -0.5044
34989SOL     OW10929   9.749   0.454  12.060 -0.1376 -0.2654 -0.3471
34989SOL    HW110930   9.783   0.467  12.149  0.3478 -0.7322 -0.4596
34989SOL    HW210931   9.733   0.542  12.027  2.0148  0.0588 -0.6937
34990SOL     OW10932   3.002   3.981   7.639  0.1652 -0.0720 -0.1092
34990SOL    HW110933   3.076   3.940   7.593  1.9696  2.9790 -0.2245
34990SOL    HW210934   2.990   4.065   7.594 -0.5775  1.3553  2.5403
34991SOL     OW10935  11.122  10.871   2.089  0.5418  0.1010 -0.1720
34991SOL    HW110936  11.179  10.908   2.156 -2.3848  0.1528  2.5126
34991SOL    HW210937  11.106  10.942   2.028  0.4620  1.2123  1.1063
34992SOL     OW10938  12.341   9.890   5.445 -0.6514  0.3311  0.7396
34992SOL    HW110939  12.264   9.926   5.401  0.4311  0.7750 -0.8307
34992SOL    HW210940  12.305   9.822   5.502 -2.1218 -0.2666 -0.8152
34993SOL     OW10941  10.001   6.552   6.527  0.4591 -0.1805 -0.3090
34993SOL    HW110942  10.084   6.557   6.479  0.2927 -0.5450 -0.6500
34993SOL    HW210943  10.026   6.534   6.617  0.8241  1.5034 -0.0460
34994SOL     OW10944  11.684   7.590   3.965 -0.4849 -0.6149 -0.4836
34994SOL    HW110945  11.702   7.559   3.877 -1.2300  1.0375 -1.2549
34994SOL    HW210946  11.618   7.658   3.954 -1.0873 -0.8258  1.4224
34995SOL     OW10947  10.616   2.303   7.365 -0.4587  0.0293 -0.3120
34995SOL    HW110948  10.701   2.324   7.403 -1.1776  1.1305  0.7429
34995SOL    HW210949  10.575   2.245   7.429 -2.2212  2.9522  1.4348
34996SOL     OW10950   1.238   8.663   5.598  0.2062 -0.2552 -0.1129
34996SOL    HW110951   1.187   8.647   5.519  0.8882 -0.3458 -0.5461
34996SOL    HW210952   1.195   8.738   5.640 -0.0970 -0.1328 -0.6324
34997SOL     OW10953   9.380   5.492   5.348 -0.4777 -0.1822  0.3497
34997SOL    HW110954   9.326   5.425   5.390  0.7760 -1.5528 -0.1428
34997SOL    HW210955   9.320   5.566   5.335 -1.4515 -0.5153  2.5159
34998SOL     OW10956   1.743   0.108   8.571 -0.1896 -0.2126  0.4229
34998SOL    HW110957   1.816   0.048   8.590 -1.1003 -1.3603  0.4405
34998SOL    HW210958   1.677   0.086   8.637 -0.4466  0.9990  0.5767
34999SOL     OW10959   9.481  11.373   1.671 -0.1294  0.0883  0.3439
34999SOL    HW110960   9.474  11.309   1.600 -0.1641  1.2778 -0.7773
34999SOL    HW210961   9.575  11.393   1.676 -0.3428  1.8313 -1.1434
35000SOL     OW10962   8.323   9.714   1.380  0.4150 -0.4881 -0.8382
35000SOL    HW110963   8.240   9.698   1.425 -0.0492  1.0579 -1.0947
35000SOL    HW210964   8.368   9.629   1.382 -0.0862 -0.7756  1.5037
35001SOL     OW10965   2.861  10.266   0.259  0.2340  0.1783  0.0990
35001SOL    HW110966   2.887  10.178   0.229 -1.0677  0.2149 -1.2954
35001SOL    HW210967   2.931  10.293   0.318  0.3889 -2.0352  1.0471
35002SOL     OW10968   3.426   2.370   7.279 -0.3227 -0.5333  0.2863
35002SOL    HW110969   3.426   2.466   7.274 -0.2154 -0.4168  1.9372
35002SOL    HW210970   3.508   2.349   7.325 -0.1444 -1.4454 -0.4324
35003SOL     OW10971   1.504   8.906  12.444 -0.9009 -0.7036 -0.0363
35003SOL    HW110972   1.437   8.969  12.473  1.9963  1.6336  2.2191
35003SOL    HW210973   1.507   8.916  12.349 -3.5065 -0.7114 -0.1843
35004SOL     OW10974   9.021   5.124   3.182 -0.1115  0.4635 -0.4378
35004SOL    HW110975   9.015   5.194   3.246 -3.3688  0.3200 -0.4370
35004SOL    HW210976   8.930   5.099   3.164  0.7448 -0.9938 -3.4825
35005SOL     OW10977   6.730   3.106   0.806  0.5117  0.1592 -0.7111
35005SOL    HW110978   6.768   3.108   0.894  1.2296  0.6120 -1.0250
35005SOL    HW210979   6.659   3.171   0.809  3.0190  3.2144 -1.5368
35006SOL     OW10980   2.102   9.072   0.316  0.1111 -0.3232 -0.5659
35006SOL    HW110981   2.022   9.027   0.289 -0.8428  0.5927  0.6440
35006SOL    HW210982   2.085   9.165   0.298  0.1845  0.0961  1.3240
35007SOL     OW10983   6.910   0.317   6.792  0.3810  0.1962  0.0147
35007SOL    HW110984   7.006   0.313   6.796  0.3203 -0.2775  1.8046
35007SOL    HW210985   6.890   0.411   6.791  0.8519  0.3183  0.8822
35008SOL     OW10986   4.101   6.611   3.184 -0.2938 -0.7268 -0.0270
35008SOL    HW110987   4.014   6.582   3.156 -0.6597 -1.2440  1.5124
35008SOL    HW210988   4.128   6.545   3.248  1.3359 -0.6866 -0.6304
35009SOL     OW10989   3.757   0.369   1.663 -0.0138 -0.6901  0.2850
35009SOL    HW110990   3.790   0.287   1.701  2.0740 -0.2478 -0.4605
35009SOL    HW210991   3.828   0.401   1.609 -1.9607  0.0197 -2.0151
35010SOL     OW10992   6.264   1.241   9.691  0.1599 -0.0102  0.5994
35010SOL    HW110993   6.311   1.294   9.756 -0.9968  1.5543  0.2091
35010SOL    HW210994   6.331   1.215   9.628  0.8768  0.4077  1.1741
35011SOL     OW10995   8.185   4.247   2.919  0.4473  0.4024 -0.4537
35011SOL    HW110996   8.102   4.272   2.878  0.2564 -0.2800 -0.5007
35011SOL    HW210997   8.163   4.172   2.974  0.6815  1.3699  1.0040
35012SOL     OW10998   7.324   5.785   4.785 -0.5080  0.1738 -0.1207
35012SOL    HW110999   7.314   5.693   4.806 -1.7853  0.4345  0.5501
35012SOL    HW211000   7.315   5.789   4.690  2.0460 -0.6459 -0.4551
35013SOL     OW11001   8.320   0.192  11.559  0.6041 -0.1140  0.2458
35013SOL    HW111002   8.399   0.179  11.613  1.1155 -0.1499 -0.5018
35013SOL    HW211003   8.296   0.104  11.529 -1.4877 -0.5730  2.8494
35014SOL     OW11004   0.765   9.755   4.483 -0.1505 -1.1059  0.1085
35014SOL    HW111005   0.819   9.679   4.504  1.0419 -0.2537  0.2491
35014SOL    HW211006   0.706   9.725   4.414  0.2887 -2.1598  0.1809
35015SOL     OW11007   3.164   4.497   9.315 -0.3324  0.0201  0.2119
35015SOL    HW111008   3.221   4.480   9.240 -0.1981  1.3639 -0.0230
35015SOL    HW211009   3.199   4.442   9.385 -0.5449 -1.3595 -0.7367
35016SOL     OW11010   8.518   9.330   9.639  0.7328  0.4019 -0.5323
35016SOL    HW111011   8.524   9.321   9.734  1.3093  0.6340 -0.5454
35016SOL    HW211012   8.465   9.409   9.626  2.3444  1.5571 -0.3794
35017SOL     OW11013   3.557   0.729   6.011  0.2398 -0.1974  0.3398
35017SOL    HW111014   3.631   0.760   5.959 -1.0093  0.5323 -1.0498
35017SOL    HW211015   3.517   0.661   5.957 -0.8018  0.2453  0.5454
35018SOL     OW11016   3.175   8.875  11.551 -0.0542 -0.2521  0.4354
35018SOL    HW111017   3.084   8.849  11.536 -0.5270  2.1883 -1.7826
35018SOL    HW211018   3.207   8.901  11.465  2.1405  0.7074  1.4595
35019SOL     OW11019   7.878   8.244  12.403 -0.1840 -0.0023  0.5004
35019SOL    HW111020   7.787   8.270  12.386  0.0887  0.3774 -0.4331
35019SOL    HW211021   7.883   8.153  12.376 -0.6273 -0.4493  1.8598
35020SOL     OW11022   4.153  10.736   4.079 -0.2786 -0.1165  0.0477
35020SOL    HW111023   4.092  10.771   4.144 -2.5897 -0.0834 -2.0367
35020SOL    HW211024   4.140  10.789   4.001  1.2553 -1.1737 -0.9979
35021SOL     OW11025   8.399   7.172   8.609  0.4889  0.1438 -0.1500
35021SOL    HW111026   8.320   7.188   8.660 -0.8862 -0.6764 -1.9375
35021SOL    HW211027   8.456   7.121   8.668 -0.7607 -0.2084  0.7886
35022SOL     OW11028   9.257   1.301   0.455  0.4688 -0.8729  0.2541
35022SOL    HW111029   9.236   1.348   0.536 -0.7510 -1.9213  0.5870
35022SOL    HW211030   9.212   1.351   0.386  1.3125 -0.1170  0.2292
35023SOL     OW11031   9.477   7.073  11.404  0.1637 -0.4536  0.2345
35023SOL    HW111032   9.538   7.026  11.347 -0.1908 -0.1304 -0.4177
35023SOL    HW211033   9.433   7.005  11.454  1.7815 -0.6597  1.4821
35024SOL     OW11034  11.785  11.713   4.586 -0.2756  0.1418 -0.7437
35024SOL    HW111035  11.710  11.654   4.585  1.3692 -2.0750 -0.6475
35024SOL    HW211036  11.833  11.691   4.507 -0.2951  2.3810 -1.4373
35025SOL     OW11037   2.062   9.144  11.923 -0.1663 -0.0369 -0.2785
35025SOL    HW111038   2.114   9.065  11.904  1.3129  0.8975 -0.3034
35025SOL    HW211039   2.112   9.190  11.990 -2.0884 -0.1210  1.2770
35026SOL     OW11040  10.175   0.913   2.698  0.8247  0.1929  0.4051
35026SOL    HW111041  10.131   0.875   2.621  0.6666  0.3626  0.4110
35026SOL    HW211042  10.257   0.948   2.664  0.4081  0.9601  0.1667
35027SOL     OW11043   1.113   4.131   0.502 -0.3914  0.1474  0.0116
35027SOL    HW111044   1.138   4.223   0.496 -0.3472  0.1148 -0.3003
35027SOL    HW211045   1.022   4.129   0.472 -0.1410 -0.0276 -0.7671
35028SOL     OW11046  10.660   8.702   0.280 -0.0506  0.3368  0.1077
35028SOL    HW111047  10.753   8.702   0.303 -0.1542  0.8084  0.5454
35028SOL    HW211048  10.616   8.732   0.359 -0.6532 -0.7081  0.1877
35029SOL     OW11049   7.027  11.363   1.339 -0.5806 -0.1867 -0.3617
35029SOL    HW111050   7.093  11.347   1.271 -1.7374 -1.0729 -1.3098
35029SOL    HW211051   7.007  11.277   1.375 -0.9517  0.1174  0.1809
35030SOL     OW11052   7.727   8.175  10.604  0.1080 -0.2408  0.8374
35030SOL    HW111053   7.766   8.233  10.669  3.3764 -0.3841 -0.7586
35030SOL    HW211054   7.785   8.098  10.604 -0.4343 -0.7091 -1.3999
35031SOL     OW11055  11.118   2.089   9.662  0.0500  0.3055 -0.4303
35031SOL    HW111056  11.181   2.113   9.594  1.0773  0.3489  0.5010
35031SOL    HW211057  11.132   2.154   9.731  0.2866 -0.7861  0.5754
35032SOL     OW11058   0.938   8.686   4.575  0.4180 -0.3075  0.0668
35032SOL    HW111059   0.886   8.757   4.537  0.9212  0.1097  0.1520
35032SOL    HW211060   1.029   8.712   4.562  0.6212 -1.1982 -0.3835
35033SOL     OW11061   0.430   8.097  10.106 -0.3009 -0.4602  0.5499
35033SOL    HW111062   0.364   8.050  10.054  0.6969 -0.5543 -0.6679
35033SOL    HW211063   0.433   8.184  10.067 -1.1683  0.2342  1.9409
35034SOL     OW11064   2.850   9.667  10.363  0.6589  0.4048 -0.2911
35034SOL    HW111065   2.773   9.631  10.409 -0.0335  2.5393  0.3258
35034SOL    HW211066   2.918   9.671  10.430  0.8459 -0.0679 -0.4504
35035SOL     OW11067   4.707   6.182   6.500  0.5549  0.2890 -0.0503
35035SOL    HW111068   4.661   6.101   6.476 -2.0934  1.8776 -0.6811
35035SOL    HW211069   4.767   6.197   6.428 -0.9556  0.3051 -1.3654
35036SOL     OW11070  12.437   7.673  12.041 -0.4200 -0.4502  0.2964
35036SOL    HW111071  12.486   7.607  11.993 -0.4920 -0.0253 -0.3702
35036SOL    HW211072  12.357   7.628  12.068  0.0806 -0.9849  0.9129
35037SOL     OW11073   8.069   8.252   7.606 -0.2862  0.1981  0.1847
35037SOL    HW111074   8.038   8.336   7.639  0.8515  0.7115 -0.0119
35037SOL    HW211075   8.155   8.271   7.568 -0.2769 -0.9396 -0.4013
35038SOL     OW11076   8.978   0.276   5.064  0.3640 -0.2516  0.3275
35038SOL    HW111077   8.887   0.294   5.089  0.7065 -0.1505  1.5470
35038SOL    HW211078   8.996   0.190   5.101  1.1194  0.2149  1.0495
35039SOL     OW11079   0.562  11.776   1.991 -0.3488  0.4149  0.4660
35039SOL    HW111080   0.492  11.755   1.929 -0.6778 -0.0480  0.9866
35039SOL    HW211081   0.517  11.812   2.067  0.1326  2.1686 -0.0294
35040SOL     OW11082   9.855   0.448  12.376 -0.2601 -0.0402 -0.3747
35040SOL    HW111083   9.865   0.449  12.471  1.1516 -0.5035 -0.4912
35040SOL    HW211084   9.876   0.538  12.349  0.6172 -0.2291 -0.3450
35041SOL     OW11085   8.994   2.474   1.600 -0.1677  0.3525 -0.6028
35041SOL    HW111086   9.044   2.424   1.534 -0.1760 -1.6838  0.8459
35041SOL    HW211087   8.920   2.418   1.621  0.2536  0.5742  1.7035
35042SOL     OW11088   8.700   7.576   1.867 -0.3983 -0.3309  0.2604
35042SOL    HW111089   8.717   7.617   1.783  3.8074  2.0216  1.9565
35042SOL    HW211090   8.627   7.626   1.905  0.0571  0.9659 -0.5387
35043SOL     OW11091   6.164   1.161  11.155  0.1038 -0.3892  0.0718
35043SOL    HW111092   6.123   1.114  11.227 -0.9995 -0.8882 -0.8489
35043SOL    HW211093   6.247   1.193  11.191 -1.6464  1.8881  2.4473
35044SOL     OW11094   7.890   8.084   1.556  0.6837  0.2814 -0.9177
35044SOL    HW111095   7.929   7.998   1.571 -0.7104 -0.1737  0.3089
35044SOL    HW211096   7.843   8.075   1.473  1.2308  0.1285 -1.2158
35045SOL     OW11097  12.293   9.654  11.351 -0.1484 -0.6725 -0.1869
35045SOL    HW111098  12.206   9.616  11.342  0.1706 -1.5475  0.3383
35045SOL    HW211099  12.296   9.689  11.440 -0.7876  1.5467 -0.9645
35046SOL     OW11100   6.370  11.354   9.082  0.0245  0.0217 -0.3148
35046SOL    HW111101   6.311  11.338   9.156 -0.6182  0.8626 -0.6331
35046SOL    HW211102   6.360  11.447   9.063 -0.2661 -0.3042 -1.8546
35047SOL     OW11103  10.351   7.341   8.858  0.1901  0.2762 -0.6486
35047SOL    HW111104  10.354   7.422   8.806  0.9658 -0.5100 -1.8680
35047SOL    HW211105  10.432   7.296   8.837  0.3090 -0.3009  0.9211
35048SOL     OW11106  12.261   7.241   2.653  0.1948 -0.1483  0.1968
35048SOL    HW111107  12.354   7.256   2.637 -0.0429  0.9173 -0.3030
35048SOL    HW211108  12.228   7.326   2.682 -0.7067 -0.4005 -0.0515
35049SOL     OW11109  10.376   1.541  10.033 -0.1605  0.2834  0.0014
35049SOL    HW111110  10.394   1.583  10.117  1.5084 -0.5094  0.0859
35049SOL    HW211111  10.355   1.613   9.974  1.7714  1.2069  0.3597
35050SOL     OW11112   0.738   0.585   2.726  0.3205 -0.5933  0.3385
35050SOL    HW111113   0.778   0.631   2.800  0.7811  2.7343 -1.7215
35050SOL    HW211114   0.646   0.612   2.728  0.6922  1.0525 -1.1632
35051SOL     OW11115   2.934  12.360   6.455 -0.6411  0.0020  0.1963
35051SOL    HW111116   2.980  12.405   6.385 -1.4448  1.5676  0.6304
35051SOL    HW211117   2.919  12.271   6.421  3.0486 -0.7960  0.2400
35052SOL     OW11118   3.584  11.871   7.114  0.3019 -0.8286 -0.2161
35052SOL    HW111119   3.496  11.880   7.078  0.4158 -2.1053 -0.8511
35052SOL    HW211120   3.641  11.914   7.050  0.1284  0.3524  0.3884
35053SOL     OW11121   9.365   5.786   7.685  0.7486 -0.5245 -0.2021
35053SOL    HW111122   9.323   5.738   7.756  1.6096  1.1567  1.5451
35053SOL    HW211123   9.433   5.727   7.653 -0.6120 -1.8925 -0.7067
35054SOL     OW11124   5.528   2.650   7.267 -0.7093 -0.2699  0.1522
35054SOL    HW111125   5.553   2.643   7.174 -1.2324 -1.2120  0.0697
35054SOL    HW211126   5.449   2.596   7.274 -1.0675  0.3504  1.0091
35055SOL     OW11127   7.274   8.432   3.969 -0.4183 -0.2317 -0.0104
35055SOL    HW111128   7.324   8.492   4.024 -1.6744 -0.3865  1.3426
35055SOL    HW211129   7.185   8.465   3.972 -0.8796 -1.3915 -0.3439
35056SOL     OW11130   1.804   5.458  11.068  0.0291 -0.1512  0.2231
35056SOL    HW111131   1.884   5.421  11.103  0.2029 -1.1944 -1.2037
35056SOL    HW211132   1.734   5.404  11.105 -0.2105  1.6166  2.6025
35057SOL     OW11133   6.130   7.652   5.192 -0.6993 -0.0172 -0.2693
35057SOL    HW111134   6.129   7.673   5.286 -1.2402 -0.2222 -0.2226
35057SOL    HW211135   6.182   7.721   5.152 -0.0061 -0.2223  0.2511
35058SOL     OW11136   4.421   5.745   7.523 -0.4890  0.4468  0.2336
35058SOL    HW111137   4.349   5.804   7.545 -0.2139  0.1457  2.0557
35058SOL    HW211138   4.380   5.659   7.513 -0.5297  0.4648  0.2462
35059SOL     OW11139   0.586   8.142  10.889  0.8171 -0.6311 -0.3462
35059SOL    HW111140   0.622   8.138  10.977 -0.7928  0.8249  0.4248
35059SOL    HW211141   0.563   8.052  10.868 -0.8217 -0.7488  1.6381
35060SOL     OW11142   8.641   0.887   5.485 -0.1771 -0.7932 -0.0468
35060SOL    HW111143   8.617   0.921   5.398  0.8284  0.5769  0.1850
35060SOL    HW211144   8.656   0.794   5.470 -1.4702 -0.8778 -1.0358
35061SOL     OW11145   5.878   2.793   2.941 -0.3037  0.5812  0.3411
35061SOL    HW111146   5.913   2.865   2.887 -0.9956  0.7812  0.1389
35061SOL    HW211147   5.796   2.828   2.976 -0.9979 -0.3382 -0.3062
35062SOL     OW11148  11.199   8.589  10.020 -0.1535  0.6110  0.0167
35062SOL    HW111149  11.270   8.534  10.055 -0.5570 -1.2572 -1.8785
35062SOL    HW211150  11.232   8.678  10.028  1.1290  0.0438  1.9371
35063SOL     OW11151   8.643   6.332   0.711 -0.6074  0.6067 -0.2232
35063SOL    HW111152   8.620   6.335   0.804  0.7084  1.0036  0.1231
35063SOL    HW211153   8.560   6.324   0.665 -1.2754  0.3623  0.9919
35064SOL     OW11154  11.610   1.323  11.313 -0.9079  0.4671 -0.1940
35064SOL    HW111155  11.682   1.339  11.374 -1.5468  0.2535  0.6327
35064SOL    HW211156  11.532   1.355  11.358 -1.2397  1.5527 -1.4470
35065SOL     OW11157  11.071   6.475   0.480  0.1296 -0.1525 -0.7678
35065SOL    HW111158  10.992   6.529   0.487 -0.1260 -0.5329 -0.6982
35065SOL    HW211159  11.134   6.517   0.539 -0.6582 -0.9622  0.7123
35066SOL     OW11160  11.619   6.803   3.992  0.4966 -0.1269 -0.8216
35066SOL    HW111161  11.610   6.753   4.073  1.0051  0.6803 -0.2504
35066SOL    HW211162  11.688   6.758   3.943 -0.0261 -0.7937 -0.9392
35067SOL     OW11163   2.178   4.697  11.989 -0.1789 -0.1419 -0.4570
35067SOL    HW111164   2.226   4.739  12.060 -1.4722  0.5639  0.0295
35067SOL    HW211165   2.096   4.745  11.984 -0.8609 -1.3429 -1.2327
35068SOL     OW11166   8.767   1.890   7.843 -1.0754  0.4655  0.2385
35068SOL    HW111167   8.674   1.916   7.845 -1.3002 -0.0359 -1.8183
35068SOL    HW211168   8.767   1.805   7.799  0.2620 -0.1843  1.4336
35069SOL     OW11169  10.711   7.199   6.904  0.1165  0.5837  0.3958
35069SOL    HW111170  10.798   7.179   6.869 -0.7320 -2.1861 -0.3652
35069SOL    HW211171  10.709   7.155   6.989 -0.9394 -0.4999 -0.1642
35070SOL     OW11172   9.571   0.274   6.034  0.4065  0.6863 -0.6262
35070SOL    HW111173   9.581   0.313   5.947  2.1708 -1.6759 -1.5947
35070SOL    HW211174   9.495   0.218   6.026  1.5396 -0.8321 -1.2504
35071SOL     OW11175   3.999   0.420  12.212  0.3578  0.0713 -0.3558
35071SOL    HW111176   4.070   0.409  12.149 -0.3125 -0.2355 -1.0697
35071SOL    HW211177   3.919   0.405  12.162 -0.2206  0.4175  0.4336
35072SOL     OW11178   4.143   2.828   8.125 -0.0586 -0.3879  0.0133
35072SOL    HW111179   4.108   2.801   8.039  0.7342  0.2259 -0.5145
35072SOL    HW211180   4.230   2.788   8.128 -0.2351 -0.7347  0.7159
35073SOL     OW11181   3.422   2.003   0.705  0.0994 -0.4692 -0.7438
35073SOL    HW111182   3.433   2.091   0.670 -0.3145 -1.1028 -2.5344
35073SOL    HW211183   3.378   2.017   0.789  0.2427  1.0327 -0.8824
35074SOL     OW11184   8.896   8.517   5.543 -0.6853 -0.2520 -0.3201
35074SOL    HW111185   8.960   8.552   5.481 -0.7302 -0.7179 -0.6335
35074SOL    HW211186   8.845   8.454   5.492  1.1664 -2.8711  0.8561
35075SOL     OW11187   8.201   4.934   9.409 -0.1712 -0.3577 -0.2182
35075SOL    HW111188   8.270   4.930   9.475  0.0563  0.2619 -0.4121
35075SOL    HW211189   8.166   4.845   9.404 -0.8390 -0.2224  1.4209
35076SOL     OW11190  11.150  11.277   0.057 -0.2858  0.7461 -0.2216
35076SOL    HW111191  11.176  11.185   0.052 -1.8269  0.1529  1.5686
35076SOL    HW211192  11.111  11.295  -0.028 -0.4674 -0.4305 -0.4111
35077SOL     OW11193   6.917   3.305   9.112  0.3825  0.2209 -0.1316
35077SOL    HW111194   6.969   3.228   9.088 -0.6299  0.0646 -2.0161
35077SOL    HW211195   6.912   3.302   9.207  0.4175 -2.0265 -0.1430
35078SOL     OW11196  11.561  11.251   3.105 -0.1629 -0.3570  0.0354
35078SOL    HW111197  11.565  11.335   3.059  1.3029 -1.4042 -1.9060
35078SOL    HW211198  11.624  11.261   3.177  0.3817  0.0612 -0.4832
35079SOL     OW11199   5.665   6.210  11.857  0.2683 -0.0938  0.7484
35079SOL    HW111200   5.753   6.237  11.882  0.1472  1.0947 -0.0043
35079SOL    HW211201   5.608   6.278  11.893 -0.0736  0.6302 -1.0740
35080SOL     OW11202   4.956  11.573  10.586  0.5451  0.4633  0.3211
35080SOL    HW111203   4.903  11.651  10.573  1.3515  0.8082 -1.0938
35080SOL    HW211204   4.994  11.584  10.673  1.5357  2.2231 -0.2864
35081SOL     OW11205   5.514   2.166   1.126  0.5312  0.3643 -0.0043
35081SOL    HW111206   5.486   2.193   1.214 -0.9583 -2.9765  0.7121
35081SOL    HW211207   5.452   2.208   1.067 -1.5666 -1.1193  1.0132
35082SOL     OW11208  10.409   7.299   3.862  0.7556 -0.1998 -0.0654
35082SOL    HW111209  10.380   7.210   3.880 -1.2941  0.6966  1.4212
35082SOL    HW211210  10.499   7.302   3.894  0.7749 -1.6654  0.0591
35083SOL     OW11211   8.615  12.484   9.502 -0.0987  0.2287  0.6653
35083SOL    HW111212   8.675  12.454   9.570  0.1547  0.8801  0.7335
35083SOL    HW211213   8.669  12.491   9.423 -0.1156  0.6742  0.6912
35084SOL     OW11214  10.332   8.651  11.194  0.1533 -0.0801  0.1543
35084SOL    HW111215  10.397   8.622  11.129  0.4181 -2.0940  1.2257
35084SOL    HW211216  10.253   8.601  11.172  0.4989 -1.4535  1.8137
35085SOL     OW11217   9.801   5.900   0.515  0.7277 -0.6638 -0.8624
35085SOL    HW111218   9.884   5.856   0.498  1.4254  0.0789  0.3854
35085SOL    HW211219   9.825   5.993   0.526 -0.1039 -0.5717  0.4302
35086SOL     OW11220   3.803   0.989  11.399  0.3172 -0.1339  0.9984
35086SOL    HW111221   3.768   1.063  11.450  0.8333  0.7123  0.1652
35086SOL    HW211222   3.789   1.014  11.308  0.8856 -0.8835  0.6972
35087SOL     OW11223   7.232   3.934   8.358  0.1780  0.0122 -0.2877
35087SOL    HW111224   7.137   3.929   8.348  0.1431  0.5011 -0.2111
35087SOL    HW211225   7.245   3.972   8.445  0.4465 -0.2120 -0.2283
35088SOL     OW11226   6.415   1.736   5.098  0.7064  0.5936 -0.0908
35088SOL    HW111227   6.447   1.786   5.172  2.3450 -0.2025 -0.2137
35088SOL    HW211228   6.437   1.645   5.119 -1.0138  0.0381 -0.4606
35089SOL     OW11229   6.400   7.065  11.586  0.5255  0.6733  0.1438
35089SOL    HW111230   6.431   6.982  11.549  2.6305  1.8841 -0.9797
35089SOL    HW211231   6.464   7.086  11.654  0.5000  1.7823 -0.1635
35090SOL     OW11232   3.878   1.859   3.559 -0.0814  0.4143 -0.4524
35090SOL    HW111233   3.955   1.831   3.608  0.7714  0.8466 -1.4875
35090SOL    HW211234   3.810   1.794   3.580 -0.5633  1.8678  3.1139
35091SOL     OW11235  11.433   3.107   5.298  0.1417 -0.0189 -0.1925
35091SOL    HW111236  11.388   3.102   5.214  1.5356  1.9621 -1.1514
35091SOL    HW211237  11.506   3.045   5.290  2.0710  2.2680 -1.7459
35092SOL     OW11238   3.029   4.155   6.789 -0.4503 -0.0348 -0.0487
35092SOL    HW111239   3.026   4.201   6.705  0.9693  0.1345 -0.0283
35092SOL    HW211240   3.079   4.076   6.771 -0.7292 -0.3401  0.4896
35093SOL     OW11241   3.180   4.773   6.426  0.2835 -0.1569  0.2305
35093SOL    HW111242   3.105   4.826   6.400  0.0651  0.0468  1.2476
35093SOL    HW211243   3.164   4.752   6.518  2.6302  1.9117  1.2110
35094SOL     OW11244   7.757   1.300  11.739 -0.1190  0.1396 -0.0192
35094SOL    HW111245   7.662   1.293  11.745 -0.0840 -0.1786  0.2127
35094SOL    HW211246   7.773   1.352  11.660 -0.4784 -0.0695 -0.2300
35095SOL     OW11247   9.073  10.448   7.813  0.2306  0.1311 -0.1727
35095SOL    HW111248   9.154  10.405   7.787  0.7518 -0.0058  1.5373
35095SOL    HW211249   9.091  10.542   7.804  0.6922  0.1098  0.4943
35096SOL     OW11250   5.309   4.950   1.197  0.1360 -0.1967 -0.0172
35096SOL    HW111251   5.218   4.952   1.169  0.8073  0.6095 -2.4045
35096SOL    HW211252   5.317   5.025   1.257 -0.8349 -0.5465  0.5755
35097SOL     OW11253  10.513  11.681   2.770  0.2232  0.2785  0.2491
35097SOL    HW111254  10.571  11.613   2.735  1.3931 -0.1290  2.7554
35097SOL    HW211255  10.565  11.761   2.767 -0.3905  0.6516 -0.7454
35098SOL     OW11256   4.133   3.474   7.653 -0.5661 -0.2303 -0.2104
35098SOL    HW111257   4.180   3.469   7.736  0.5314  2.3933 -0.5669
35098SOL    HW211258   4.201   3.494   7.588 -1.5724 -0.9953 -1.5545
35099SOL     OW11259   1.721   9.151  10.885 -0.8018  0.3239 -0.1100
35099SOL    HW111260   1.741   9.104  10.965  1.4548  0.0997 -0.7424
35099SOL    HW211261   1.787   9.122  10.822 -0.4054  2.9623 -1.0654
35100SOL     OW11262  11.758   6.284   7.850 -0.2115 -0.3890  0.1611
35100SOL    HW111263  11.825   6.345   7.818  0.4000  0.7785  3.2831
35100SOL    HW211264  11.783   6.268   7.941 -1.7672 -3.4581  0.1412
35101SOL     OW11265   2.981   6.507   4.201  0.0518 -0.5159 -0.5283
35101SOL    HW111266   2.937   6.497   4.285  3.3073 -0.8380  1.3190
35101SOL    HW211267   2.919   6.554   4.146 -2.4857 -0.9123  1.7873
35102SOL     OW11268   5.068   0.372   5.226 -0.1441 -0.2989 -0.0338
35102SOL    HW111269   5.064   0.383   5.131 -1.4703  0.6461  0.1113
35102SOL    HW211270   5.154   0.331   5.242 -0.0449 -0.7857 -1.6507
35103SOL     OW11271   2.095   3.426   8.077 -0.4409  0.2973  0.1867
35103SOL    HW111272   2.054   3.371   8.010 -0.6807  0.5351  0.1361
35103SOL    HW211273   2.127   3.502   8.029  1.3627 -0.5313 -0.0248
35104SOL     OW11274  11.554  10.258   4.681 -0.6449 -1.0122 -0.1580
35104SOL    HW111275  11.469  10.285   4.716 -0.3376 -1.3797  0.9075
35104SOL    HW211276  11.557  10.298   4.594 -0.4847  1.8730  1.0508
35105SOL     OW11277   7.145  10.283   6.149 -0.4384  0.7113 -0.1149
35105SOL    HW111278   7.223  10.296   6.095  1.2528 -0.7615  1.7808
35105SOL    HW211279   7.079  10.250   6.089  1.1140 -0.1458 -1.4330
35106SOL     OW11280   5.874   7.416   9.461  0.2352 -0.2847  0.2694
35106SOL    HW111281   5.873   7.350   9.530  1.0018 -1.0628 -0.4304
35106SOL    HW211282   5.879   7.365   9.379 -1.0845  0.6006 -0.3899
35107SOL     OW11283  10.996   1.019   7.026  0.3443 -0.5591  0.0801
35107SOL    HW111284  10.977   1.107   7.059 -0.7118 -0.1552 -1.4912
35107SOL    HW211285  10.914   0.991   6.985  0.4905 -2.5183  0.9978
35108SOL     OW11286   2.776   0.304   9.674 -0.0491 -0.2566  0.2678
35108SOL    HW111287   2.804   0.392   9.701  2.1590 -1.6003  2.8569
35108SOL    HW211288   2.792   0.302   9.580  2.4788  1.3419  0.5474
35109SOL     OW11289   7.923   1.699   9.871 -0.0437  0.7877 -0.1931
35109SOL    HW111290   7.967   1.755   9.936  1.1067 -0.5906  0.2958
35109SOL    HW211291   7.960   1.726   9.787 -0.3614  1.5141 -0.1104
35110SOL     OW11292   9.621   7.930   9.132 -0.2616  0.1340  0.0295
35110SOL    HW111293   9.531   7.897   9.128  0.2893 -1.3895 -0.3861
35110SOL    HW211294   9.611   8.023   9.152 -1.8592 -0.4083  2.1263
35111SOL     OW11295   1.296  11.297   8.910 -0.1059 -0.6522 -0.7394
35111SOL    HW111296   1.244  11.221   8.883 -2.0623  0.8248 -1.3325
35111SOL    HW211297   1.335  11.271   8.993 -0.4762 -2.4115 -1.0677
35112SOL     OW11298   5.771   7.444   5.464 -0.2582  0.4841  0.7210
35112SOL    HW111299   5.850   7.399   5.494 -0.1659 -0.4365 -0.7763
35112SOL    HW211300   5.799   7.534   5.446 -0.0749  0.7538  2.2158
35113SOL     OW11301  10.951   4.648   5.550  0.0986  0.3116 -0.1131
35113SOL    HW111302  10.997   4.574   5.589 -3.7544 -1.2030  2.1841
35113SOL    HW211303  10.877   4.608   5.503 -1.3490  2.5909  0.0496
35114SOL     OW11304  10.197   2.520   5.181 -0.1319 -0.3561  0.0719
35114SOL    HW111305  10.244   2.524   5.264 -0.8951  2.0629  0.4502
35114SOL    HW211306  10.137   2.446   5.190  0.3522 -0.6095  1.3459
35115SOL     OW11307   0.753   2.261   6.247  0.0563  0.3521  0.4664
35115SOL    HW111308   0.817   2.238   6.180 -0.0825 -1.7811  0.9834
35115SOL    HW211309   0.668   2.237   6.209  0.1279 -3.1059  2.1006
35116SOL     OW11310   3.471   0.928  10.061  0.1254 -0.2286  0.3391
35116SOL    HW111311   3.499   0.837  10.048  0.0555 -0.2610  0.4185
35116SOL    HW211312   3.382   0.921  10.094 -0.2003 -0.1088 -0.4750
35117SOL     OW11313   0.662   2.753   9.559  0.1113 -0.4922 -0.3584
35117SOL    HW111314   0.750   2.752   9.523  0.6255 -1.3712  0.8504
35117SOL    HW211315   0.604   2.745   9.483  0.9919  1.2024 -1.2695
35118SOL     OW11316   8.988  11.785   9.209  0.5800 -0.3620 -0.1927
35118SOL    HW111317   8.965  11.739   9.290 -2.1726 -0.3358 -0.8838
35118SOL    HW211318   9.049  11.726   9.164 -1.2799 -2.4441 -0.1122
35119SOL     OW11319   3.808  12.187   2.842  0.2602 -0.3852 -0.5820
35119SOL    HW111320   3.831  12.114   2.784  2.3922 -0.3089  0.0547
35119SOL    HW211321   3.869  12.257   2.818  0.6370 -0.0550  1.1409
35120SOL     OW11322   9.512   1.341   1.881  0.2195 -0.2744 -0.2349
35120SOL    HW111323   9.498   1.358   1.974  1.0037  1.8123 -0.4346
35120SOL    HW211324   9.607   1.345   1.870  0.0825  3.2944 -1.6342
35121SOL     OW11325   4.226   0.698  10.400 -0.0269 -0.3597 -0.0677
35121SOL    HW111326   4.221   0.788  10.368  0.5079  0.6570  2.5201
35121SOL    HW211327   4.162   0.650  10.347 -0.3910  1.5386 -1.4285
35122SOL     OW11328   4.194   2.524  10.268 -0.2161 -0.5271  0.2736
35122SOL    HW111329   4.264   2.555  10.211 -1.6506  1.3154 -0.5829
35122SOL    HW211330   4.165   2.601  10.316 -0.6724 -1.5619  1.7311
35123SOL     OW11331   8.530   3.418   7.451 -0.3421  1.0584 -0.0588
35123SOL    HW111332   8.457   3.430   7.390 -0.0657 -0.9587 -0.8836
35123SOL    HW211333   8.581   3.347   7.412  1.4008  1.6076  1.1295
35124SOL     OW11334   7.179   4.192   1.651 -0.6209  0.6757  0.4576
35124SOL    HW111335   7.183   4.157   1.741  0.2310  1.4710  0.7431
35124SOL    HW211336   7.107   4.144   1.610 -0.0580 -0.7719  1.1055
35125SOL     OW11337   9.649   8.894   3.155 -0.5620 -0.1856  0.2947
35125SOL    HW111338   9.594   8.951   3.100  0.2809  1.4364  1.0428
35125SOL    HW211339   9.738   8.907   3.120 -0.4182 -1.5800  0.0789
35126SOL     OW11340  11.738   4.097   1.360  0.5448 -0.6440 -0.0738
35126SOL    HW111341  11.685   4.112   1.282 -1.2739 -1.1252  1.0016
35126SOL    HW211342  11.683   4.128   1.432  1.3044 -2.0814  1.1746
35127SOL     OW11343   1.313   3.704   5.694 -0.0676  0.3839  0.0276
35127SOL    HW111344   1.385   3.640   5.689 -0.3507 -0.1560  2.0843
35127SOL    HW211345   1.353   3.783   5.730 -0.2292  0.5768 -0.2070
35128SOL     OW11346   2.650   8.667   1.893  0.4475 -0.1057  0.1587
35128SOL    HW111347   2.627   8.599   1.957  0.9137 -0.4083  0.0091
35128SOL    HW211348   2.568   8.686   1.848 -0.5264  1.9613  2.5558
35129SOL     OW11349   4.723  11.562   6.422 -0.6197 -0.3796  0.4266
35129SOL    HW111350   4.690  11.647   6.393 -0.2591 -0.0397  0.9947
35129SOL    HW211351   4.815  11.578   6.442 -0.5589 -0.8956  0.5731
35130SOL     OW11352  12.076  11.468   3.010  0.0721 -0.4222  0.0492
35130SOL    HW111353  12.162  11.429   2.996 -0.4082 -0.6000 -3.3833
35130SOL    HW211354  12.093  11.562   3.020  0.6899 -0.3785 -1.1783
35131SOL     OW11355   7.400   4.613   5.663  0.3635 -0.2945 -0.4791
35131SOL    HW111356   7.493   4.631   5.647 -0.0255  1.9615 -0.6185
35131SOL    HW211357   7.386   4.639   5.754  0.1024 -1.8536 -0.0458
35132SOL     OW11358   0.807   1.690   2.821 -0.1609 -0.0022 -0.1939
35132SOL    HW111359   0.868   1.655   2.886  1.4633 -1.4229 -2.3273
35132SOL    HW211360   0.752   1.752   2.869  0.0909 -1.9076  2.7440
35133SOL     OW11361   0.903   6.132  10.579  0.1838 -0.6763  0.4211
35133SOL    HW111362   0.955   6.192  10.525  0.2304  0.0240  1.2120
35133SOL    HW211363   0.940   6.046  10.562  0.8844 -0.3297  0.1349
35134SOL     OW11364   6.408   7.945   7.619  0.1493  0.3140  0.0448
35134SOL    HW111365   6.362   7.990   7.690 -0.6756 -0.1431 -0.1943
35134SOL    HW211366   6.409   7.853   7.645  1.1765  0.3488  0.1749
35135SOL     OW11367  11.104  12.365  12.125  0.0112  0.1735  0.2398
35135SOL    HW111368  11.036  12.347  12.191  0.6749 -1.1955  0.6051
35135SOL    HW211369  11.126  12.278  12.090  0.6549  0.7384 -0.8051
35136SOL     OW11370   6.186  10.790  12.421  0.2950 -0.4928  0.2545
35136SOL    HW111371   6.102  10.775  12.377 -0.2876  1.4378  0.6518
35136SOL    HW211372   6.242  10.827  12.353 -0.0930  0.9271  0.6773
35137SOL     OW11373   8.932  11.015   8.745  0.7974 -0.1418 -0.1375
35137SOL    HW111374   8.904  11.106   8.749  1.2248 -0.0032 -0.2234
35137SOL    HW211375   8.966  10.995   8.832 -0.7283 -0.7060  0.3648
35138SOL     OW11376  10.785  11.881   2.067  0.4695 -0.2751  0.0919
35138SOL    HW111377  10.729  11.809   2.097 -0.1441  0.0485 -0.2652
35138SOL    HW211378  10.791  11.869   1.972  3.4443 -2.0543  0.3654
35139SOL     OW11379   0.197   9.600   1.908  0.6360  0.1320 -0.1614
35139SOL    HW111380   0.126   9.567   1.853  0.5988 -1.1367  0.6056
35139SOL    HW211381   0.238   9.521   1.944  1.7430  0.8827  0.2683
35140SOL     OW11382  10.087   2.382   3.310 -0.2817  0.1030  0.0966
35140SOL    HW111383  10.110   2.468   3.276  0.1668  0.1449  0.5051
35140SOL    HW211384  10.137   2.320   3.257  0.0655  0.1435  0.3740
35141SOL     OW11385   4.664   7.889   4.310 -0.2201 -0.1164 -0.8030
35141SOL    HW111386   4.664   7.974   4.354  2.3203 -0.4021 -0.0267
35141SOL    HW211387   4.673   7.909   4.217  1.1666  0.5033 -0.5592
35142SOL     OW11388   0.484  12.112   9.981  0.6358  0.1129  0.1854
35142SOL    HW111389   0.441  12.195   9.966 -0.3111 -0.2057  1.0047
35142SOL    HW211390   0.576  12.128   9.961  0.5046  1.4156  0.5636
35143SOL     OW11391   3.011   7.034  10.545 -0.2885  0.2967 -0.1910
35143SOL    HW111392   2.923   7.039  10.582  0.1078 -0.6107  0.9509
35143SOL    HW211393   3.062   6.987  10.611  0.9701  0.4854 -0.9897
35144SOL     OW11394   6.952   6.641   7.352  0.2380 -0.1010 -0.3349
35144SOL    HW111395   7.031   6.595   7.381 -0.2767 -0.4596  0.5602
35144SOL    HW211396   6.912   6.673   7.433  0.7744  2.3206 -0.9542
35145SOL     OW11397   1.284   0.267   3.729  0.3721  0.4052  0.1712
35145SOL    HW111398   1.307   0.175   3.718  1.2116  0.6420 -0.1157
35145SOL    HW211399   1.206   0.266   3.784 -0.5092 -0.5475 -1.0404
35146SOL     OW11400   9.205   4.359   1.725 -0.2313 -0.4360  0.2367
35146SOL    HW111401   9.228   4.450   1.746 -1.2296 -0.0477 -0.2852
35146SOL    HW211402   9.272   4.331   1.663 -0.3194  0.1763 -0.1388
35147SOL     OW11403  11.244   8.530   9.166  0.2070  0.4236 -0.0238
35147SOL    HW111404  11.170   8.528   9.226 -0.6020  1.0847 -0.9755
35147SOL    HW211405  11.318   8.499   9.219 -0.6344  0.2178  1.0759
35148SOL     OW11406   0.981   1.368  10.743  0.0030 -0.2554 -0.1754
35148SOL    HW111407   1.023   1.337  10.663 -0.9785 -0.1224 -0.7645
35148SOL    HW211408   0.998   1.463  10.744 -0.4032 -0.1726 -0.5050
35149SOL     OW11409   6.503   6.936   3.960  0.5329 -0.2363  0.1864
35149SOL    HW111410   6.483   7.024   3.929 -0.8149 -0.9557 -1.0928
35149SOL    HW211411   6.420   6.888   3.951  1.4212 -1.8238  0.1807
35150SOL     OW11412   3.615   1.839   3.090  0.5833  0.1545 -0.3254
35150SOL    HW111413   3.707   1.865   3.086  0.4481  0.6721 -0.1764
35150SOL    HW211414   3.604   1.802   3.177  0.4654  0.8558 -0.0287
35151SOL     OW11415   9.067   4.763  12.125  0.4125 -0.4839  0.3643
35151SOL    HW111416   9.121   4.702  12.175  1.5519  0.6136  0.5231
35151SOL    HW211417   9.130   4.813  12.072 -0.7108 -1.3198 -1.8951
35152SOL     OW11418  10.740   3.386   2.489  0.2287  0.0281  0.2067
35152SOL    HW111419  10.694   3.401   2.572  0.3617 -0.2678  0.3357
35152SOL    HW211420  10.724   3.465   2.438 -1.0120 -0.3508 -0.0243
35153SOL     OW11421   2.758  10.009  11.271  0.1193 -0.4584  0.1615
35153SOL    HW111422   2.677  10.002  11.220 -0.4925  1.1793  0.8556
35153SOL    HW211423   2.731  10.047  11.354  1.2088 -2.5124  1.5323
35154SOL     OW11424   3.328  12.230   0.436  0.0607 -0.4436  0.1909
35154SOL    HW111425   3.397  12.164   0.424 -0.4394 -1.2461  1.4267
35154SOL    HW211426   3.358  12.281   0.512  0.7041  1.1446 -1.0818
35155SOL     OW11427  11.603   1.989   8.703  0.2685 -0.2567 -0.3937
35155SOL    HW111428  11.593   1.998   8.798  2.0352 -1.0300 -0.0934
35155SOL    HW211429  11.514   1.996   8.669 -0.4091  0.0093  1.3202
35156SOL     OW11430   8.799   9.968   4.718  0.4885  0.3374 -0.0644
35156SOL    HW111431   8.878   9.933   4.676 -0.3295  0.0080 -1.3740
35156SOL    HW211432   8.800  10.061   4.696  0.1539  0.1990 -0.6727
35157SOL     OW11433   1.554   2.504   5.029 -0.0127 -0.2291 -0.4989
35157SOL    HW111434   1.640   2.532   4.997 -0.7306  0.8152 -1.6183
35157SOL    HW211435   1.546   2.544   5.115 -0.1326  1.3012 -1.1870
35158SOL     OW11436   9.989   4.333   0.549  0.4038  0.0398  0.3295
35158SOL    HW111437   9.976   4.365   0.459 -0.5609  2.0435  1.1344
35158SOL    HW211438  10.036   4.251   0.538  0.9577  0.5982 -1.9863
35159SOL     OW11439   5.288   5.535   2.974 -0.3198 -0.4071  0.1053
35159SOL    HW111440   5.218   5.600   2.963 -0.5965 -0.7446 -0.1441
35159SOL    HW211441   5.320   5.549   3.063  0.9243  1.3587 -0.5640
35160SOL     OW11442   4.120   1.830   3.666 -0.5632 -0.1089 -0.3848
35160SOL    HW111443   4.212   1.820   3.642 -0.4581 -1.1300  0.3667
35160SOL    HW211444   4.107   1.924   3.673  0.1843  0.0845 -1.3568
35161SOL     OW11445   1.867  10.131  10.429 -0.2322  0.4846  0.8624
35161SOL    HW111446   1.930  10.196  10.398  0.2700 -1.4191 -2.6154
35161SOL    HW211447   1.921  10.056  10.456 -0.9247  0.2422  1.6326
35162SOL     OW11448   2.929   0.715   5.067  0.3076  0.1066 -0.1633
35162SOL    HW111449   2.986   0.762   5.129  0.7222  1.0661 -1.2402
35162SOL    HW211450   2.988   0.678   5.003 -0.2722  2.2150 -2.0516
35163SOL     OW11451   2.659  10.848  11.143  0.2546 -0.5808 -0.3279
35163SOL    HW111452   2.663  10.839  11.238 -0.7352  1.0982 -0.0939
35163SOL    HW211453   2.666  10.758  11.110  0.4642 -1.1991  1.3321
35164SOL     OW11454   9.279   6.915   6.853 -0.0065  0.1670 -0.1658
35164SOL    HW111455   9.246   6.992   6.900  0.2464  0.8982 -1.1471
35164SOL    HW211456   9.254   6.930   6.762  1.9580  0.1732 -0.7576
35165SOL     OW11457   4.048  11.805   4.731 -0.0015  0.0682 -0.4659
35165SOL    HW111458   3.986  11.747   4.776  0.3641 -0.1362 -0.2227
35165SOL    HW211459   4.002  11.831   4.651 -0.3328 -0.2271 -0.3767
35166SOL     OW11460   7.153   4.177   6.512  0.4973  0.4269 -0.6441
35166SOL    HW111461   7.090   4.152   6.580  0.6645  1.6426 -0.0164
35166SOL    HW211462   7.195   4.095   6.487  0.5598 -0.0324  0.8682
35167SOL     OW11463   7.598   6.845   9.746 -0.0668 -0.5033 -0.0267
35167SOL    HW111464   7.583   6.782   9.816 -1.6525 -0.4821 -0.3250
35167SOL    HW211465   7.557   6.925   9.777 -2.0780 -0.8841 -1.5450
35168SOL     OW11466   9.093   0.565   0.575 -0.4674 -0.4022  0.2105
35168SOL    HW111467   9.014   0.569   0.629 -0.0570 -1.1907  0.8879
35168SOL    HW211468   9.126   0.476   0.586 -0.3676 -0.5968 -1.3613
35169SOL     OW11469  10.359   0.555  11.150  0.2555 -0.0358  0.4540
35169SOL    HW111470  10.369   0.632  11.094 -0.3040  0.4316  0.9875
35169SOL    HW211471  10.281   0.511  11.116  0.9355 -0.7195 -0.2506
35170SOL     OW11472  12.477   2.681   4.303 -0.7201  0.6866 -0.3514
35170SOL    HW111473  12.568   2.680   4.272 -0.4121  1.1551  0.5273
35170SOL    HW211474  12.441   2.762   4.266  0.2162  2.2999  2.0404
35171SOL     OW11475   7.007   3.762   9.272  0.3189 -0.2075 -0.1717
35171SOL    HW111476   7.074   3.698   9.293  1.8103  1.2321 -0.2733
35171SOL    HW211477   7.048   3.819   9.207 -0.4116  1.6338  0.8812
35172SOL     OW11478   1.325   1.224   1.511  0.5967  0.3025 -0.3582
35172SOL    HW111479   1.385   1.288   1.549  0.4317  0.4117 -0.2823
35172SOL    HW211480   1.293   1.264   1.431  0.4024  0.3658 -0.2500
35173SOL     OW11481   7.101   4.761   4.798  0.3199  0.3736  0.5821
35173SOL    HW111482   7.111   4.667   4.811 -0.3743  0.3760  1.2334
35173SOL    HW211483   7.006   4.775   4.797  0.3712  0.8236 -1.4703
35174SOL     OW11484  12.191   0.333   6.086 -0.0539 -0.0595  0.3872
35174SOL    HW111485  12.101   0.317   6.056  0.4642 -0.1198 -1.2159
35174SOL    HW211486  12.199   0.428   6.091 -0.4582 -0.0622  1.4186
35175SOL     OW11487   6.780   8.104   9.648  0.1629 -0.1649 -0.3535
35175SOL    HW111488   6.872   8.119   9.626 -0.1198  1.1072 -0.7849
35175SOL    HW211489   6.767   8.010   9.636  1.5489 -0.4651  0.2923
35176SOL     OW11490   7.445   1.670  10.222  0.0539 -0.1292 -0.2109
35176SOL    HW111491   7.386   1.624  10.282 -2.0017  1.3407 -0.9490
35176SOL    HW211492   7.456   1.756  10.262  0.1669  0.2370 -1.0119
35177SOL     OW11493   2.588   3.427   2.709  0.7115  0.5473  0.0481
35177SOL    HW111494   2.636   3.483   2.771  0.3324  0.5977  0.3020
35177SOL    HW211495   2.499   3.464   2.708  0.6788  0.4611 -0.4214
35178SOL     OW11496   4.449   6.808  12.092 -0.6129 -0.1820  0.7277
35178SOL    HW111497   4.390   6.836  12.162  0.8196  0.0674  1.8915
35178SOL    HW211498   4.508   6.745  12.134  0.8648  0.6722  0.0209
35179SOL     OW11499  11.724   0.644   7.958 -0.0278  0.2096 -0.5268
35179SOL    HW111500  11.721   0.570   7.898 -0.5851  0.7558 -1.1844
35179SOL    HW211501  11.757   0.606   8.040  0.5190 -0.5858 -1.0950
35180SOL     OW11502  10.800   7.784   9.141  0.1460 -0.0845  0.0747
35180SOL    HW111503  10.733   7.722   9.112 -1.8098  2.3570 -0.9775
35180SOL    HW211504  10.752   7.853   9.187  2.0596  1.2342  0.2402
35181SOL     OW11505   8.916  11.684   3.400  0.1421 -0.5975 -0.0611
35181SOL    HW111506   8.848  11.678   3.332  0.2756 -1.1025 -0.1527
35181SOL    HW211507   8.976  11.612   3.380  0.6143 -0.2592  0.1219
35182SOL     OW11508   3.490   3.428   2.420 -0.3862 -0.0095 -0.5935
35182SOL    HW111509   3.502   3.520   2.396  0.4511 -0.3427 -1.5516
35182SOL    HW211510   3.472   3.385   2.336 -1.6515 -0.5981 -0.0432
35183SOL     OW11511   1.539   8.722  11.513 -0.0325  0.1543  0.0958
35183SOL    HW111512   1.462   8.683  11.470 -1.1870  0.6945  1.5743
35183SOL    HW211513   1.531   8.816  11.496 -1.4918  0.6197  2.8155
35184SOL     OW11514   9.683  10.465   1.733  0.6097 -0.0759  0.0499
35184SOL    HW111515   9.667  10.446   1.826  0.8666  1.2461  0.3895
35184SOL    HW211516   9.599  10.450   1.691 -0.1421  1.4610  0.8978
35185SOL     OW11517   4.206   2.470  12.337  0.1603  0.6158  0.3298
35185SOL    HW111518   4.131   2.478  12.278 -0.1471  0.3602  0.6890
35185SOL    HW211519   4.186   2.527  12.410  0.7369  1.2660 -0.0025
35186SOL     OW11520   1.006  11.214   9.664 -0.7205  0.2871  0.1883
35186SOL    HW111521   0.938  11.190   9.602  0.0735  1.5826 -1.2736
35186SOL    HW211522   1.083  11.163   9.638 -1.1241 -1.2990  1.9325
35187SOL     OW11523   8.547   8.955   5.298  0.1685  0.2416 -0.0077
35187SOL    HW111524   8.628   8.910   5.275 -0.3130 -1.6812  1.7219
35187SOL    HW211525   8.484   8.928   5.231  0.6752  0.8889 -0.7532
35188SOL     OW11526   6.391   3.030   6.435  0.4611 -0.4965  0.1299
35188SOL    HW111527   6.397   3.063   6.525 -0.1325  0.7530 -0.2718
35188SOL    HW211528   6.465   3.069   6.389  0.0956 -0.1933 -0.2059
35189SOL     OW11529   6.328   1.057   8.930  0.9090  0.1112 -0.0037
35189SOL    HW111530   6.310   1.151   8.937  0.5406  0.0246  0.2760
35189SOL    HW211531   6.344   1.030   9.021 -0.3041 -0.3479  0.0836
35190SOL     OW11532   8.121   2.190   0.125  0.5487 -0.6053 -0.5604
35190SOL    HW111533   8.140   2.149   0.041  1.0085  1.0877 -1.3137
35190SOL    HW211534   8.195   2.168   0.181  0.8252 -0.7403 -0.9803
35191SOL     OW11535   3.495   3.201   0.960 -0.2001  0.9932  0.2059
35191SOL    HW111536   3.488   3.156   1.044  0.9177  1.0836  0.3563
35191SOL    HW211537   3.469   3.135   0.895 -1.0195  0.9127  0.6022
35192SOL     OW11538   2.146   6.095   2.103 -0.1467  0.0438 -0.2803
35192SOL    HW111539   2.165   6.185   2.131 -2.6487  0.7886 -0.7157
35192SOL    HW211540   2.230   6.061   2.074  0.6833  2.7345 -1.3700
35193SOL     OW11541   6.880   0.154   4.158 -0.4196 -0.3002 -0.4108
35193SOL    HW111542   6.793   0.119   4.142 -0.3276  0.0023 -1.6393
35193SOL    HW211543   6.864   0.241   4.196 -0.6511 -0.2519 -0.6170
35194SOL     OW11544  11.372   5.656   5.513  0.6337  0.3507  0.9080
35194SOL    HW111545  11.460   5.619   5.503  0.7995  0.8523  0.4206
35194SOL    HW211546  11.375   5.738   5.463  0.2456  0.9709  1.8705
35195SOL     OW11547   1.754   9.252   0.114 -0.1338 -0.0677  0.1892
35195SOL    HW111548   1.742   9.201   0.194 -0.0073 -0.8090 -0.2573
35195SOL    HW211549   1.844   9.234   0.087 -0.8997 -1.7771 -1.4407
35196SOL     OW11550   7.489  12.488   9.433 -0.1408  0.2414 -0.9145
35196SOL    HW111551   7.576  12.470   9.469  0.1242  0.9920 -1.1716
35196SOL    HW211552   7.440  12.407   9.448  0.1873  0.2682  0.4647
35197SOL     OW11553   6.812   3.185   9.927  0.1566 -0.6804 -0.8636
35197SOL    HW111554   6.906   3.185   9.908  0.3817 -1.6883  0.1044
35197SOL    HW211555   6.804   3.237  10.007  0.3950 -3.3329  1.0047
35198SOL     OW11556   1.955   0.212   2.157 -0.2755  0.0796  0.4100
35198SOL    HW111557   2.014   0.180   2.088 -0.9647  0.3556 -0.3222
35198SOL    HW211558   1.908   0.285   2.116  0.4855  1.3454  1.7076
35199SOL     OW11559  11.011   2.463   8.870  0.3379 -0.1299  0.2604
35199SOL    HW111560  11.053   2.549   8.871  0.5078 -0.2107  1.3014
35199SOL    HW211561  11.009   2.436   8.962 -0.2697 -0.9715  0.0124
35200SOL     OW11562   5.415   8.759  12.410  0.1238  0.0323 -0.2476
35200SOL    HW111563   5.443   8.745  12.319  0.2472  0.7131 -0.3184
35200SOL    HW211564   5.489   8.730  12.463  0.7931  1.3417 -0.4209
35201SOL     OW11565   2.951   6.049  10.361 -0.4160 -0.3769 -0.3513
35201SOL    HW111566   3.028   6.092  10.399 -0.0409 -2.0177  0.8768
35201SOL    HW211567   2.887   6.119  10.351  0.0186  0.4548  1.9616
35202SOL     OW11568   1.399   0.754   9.843 -0.0487  0.6749  0.2730
35202SOL    HW111569   1.333   0.785   9.782 -1.0477 -0.0827  0.9187
35202SOL    HW211570   1.387   0.808   9.921 -1.7503 -1.1654  1.3743
35203SOL     OW11571  12.224   1.840   8.517  0.5834  0.0543  0.2832
35203SOL    HW111572  12.222   1.929   8.480  2.4712  0.2292  0.5187
35203SOL    HW211573  12.293   1.795   8.468  0.8191 -0.7567  1.3366
35204SOL     OW11574   6.609   0.651  10.631 -0.1777 -0.3726  0.0105
35204SOL    HW111575   6.614   0.745  10.647  2.8630 -0.2327 -1.1392
35204SOL    HW211576   6.537   0.641  10.568 -1.3857  0.9811  1.1209
35205SOL     OW11577   9.367   6.328   6.149 -0.2523  0.3331 -0.3851
35205SOL    HW111578   9.292   6.387   6.142 -0.6101 -0.1279 -0.4845
35205SOL    HW211579   9.384   6.300   6.059  0.1676  0.5847 -0.3894
35206SOL     OW11580   2.255   8.676   4.781  0.2579 -0.4565 -0.0204
35206SOL    HW111581   2.320   8.667   4.712  0.1816  0.3133 -0.2043
35206SOL    HW211582   2.266   8.766   4.812  0.5580 -0.9109  1.2442
35207SOL     OW11583  10.348   3.464   5.036 -0.2639 -0.0782 -0.0006
35207SOL    HW111584  10.397   3.382   5.043  0.8419  0.6805  1.8960
35207SOL    HW211585  10.269   3.449   5.088  0.3780  0.3239  1.1267
35208SOL     OW11586   7.610   6.651   4.088 -0.0533  0.0090 -0.0590
35208SOL    HW111587   7.650   6.737   4.086 -1.5472  0.7574  0.6329
35208SOL    HW211588   7.671   6.594   4.041  0.3306  1.7031 -1.6894
35209SOL     OW11589  12.185   9.337  12.477  0.2831  0.0034 -0.6134
35209SOL    HW111590  12.198   9.391  12.555  0.1562 -2.1897  1.0076
35209SOL    HW211591  12.268   9.289  12.467 -0.2295 -0.8255 -0.9554
35210SOL     OW11592   5.951   1.604  11.280  0.1189 -0.1479 -0.5191
35210SOL    HW111593   5.867   1.566  11.307 -0.3570  1.1465 -0.1378
35210SOL    HW211594   5.961   1.682  11.333  0.8749  0.5144 -1.5884
35211SOL     OW11595   8.693   2.534   6.968 -0.4358 -0.1345  0.5048
35211SOL    HW111596   8.788   2.517   6.974 -0.2088  0.7583 -0.2586
35211SOL    HW211597   8.685   2.595   6.895 -1.5953 -0.0402  0.6983
35212SOL     OW11598   9.301   3.349   7.602 -0.4965 -0.2270 -0.5763
35212SOL    HW111599   9.331   3.259   7.589 -0.3807 -0.3485  0.4164
35212SOL    HW211600   9.330   3.371   7.691 -2.2420  0.0961 -0.0552
35213SOL     OW11601  11.526   0.130   4.598 -0.1823  0.5327 -0.3215
35213SOL    HW111602  11.616   0.116   4.572  0.6165  0.3309  2.2309
35213SOL    HW211603  11.506   0.057   4.658 -2.1232  0.4362 -1.0093
35214SOL     OW11604   5.175   6.499   8.795  0.4585  0.4917 -1.0156
35214SOL    HW111605   5.193   6.593   8.796  4.7046 -0.1220 -1.7836
35214SOL    HW211606   5.126   6.484   8.714 -2.2526  2.1380  0.1547
35215SOL     OW11607   7.929   7.129   2.287 -0.2650  0.4702 -0.0073
35215SOL    HW111608   7.968   7.196   2.344  1.2777 -0.8297  0.5211
35215SOL    HW211609   7.835   7.149   2.289 -0.0766  1.4553  1.6921
35216SOL     OW11610   6.017   1.164   6.008  0.3705  0.2676 -0.4335
35216SOL    HW111611   5.945   1.202   6.058 -0.9810  0.7540 -2.5801
35216SOL    HW211612   6.077   1.236   5.993  1.7785 -0.3030  1.9920
35217SOL     OW11613   9.775  10.728   3.540  0.0547  0.3456  0.6168
35217SOL    HW111614   9.744  10.642   3.509  0.0844  0.4320  0.3406
35217SOL    HW211615   9.749  10.731   3.632  1.6188 -0.7154  1.1400
35218SOL     OW11616   6.888   3.914   1.149  0.0002  0.6870 -0.6875
35218SOL    HW111617   6.886   3.829   1.106 -0.2270  1.3466 -2.0345
35218SOL    HW211618   6.841   3.972   1.090 -1.4662  1.3863  1.0578
35219SOL     OW11619   8.042   5.528   7.806  0.2015  0.2570 -0.3299
35219SOL    HW111620   7.967   5.585   7.788 -0.8830 -0.8503  0.5210
35219SOL    HW211621   8.068   5.550   7.895 -2.2927 -2.6745  1.3095
35220SOL     OW11622  10.115   0.438   0.239 -0.6313  0.2787 -0.1841
35220SOL    HW111623  10.169   0.374   0.286  0.3128  1.5818  0.5611
35220SOL    HW211624  10.178   0.494   0.193 -1.4690  0.2961 -1.3690
35221SOL     OW11625   4.738   8.620   1.326  0.4978 -0.3190 -0.0431
35221SOL    HW111626   4.832   8.624   1.341  0.4313 -1.6477  0.9156
35221SOL    HW211627   4.704   8.701   1.364  1.3219  0.5923 -1.1807
35222SOL     OW11628   7.918   4.314  11.219 -0.3353  0.2460 -0.6812
35222SOL    HW111629   8.004   4.340  11.186  0.2623  0.7838  1.1456
35222SOL    HW211630   7.862   4.390  11.205  0.1375  0.7830  0.2778
35223SOL     OW11631   3.776   7.356   8.444  0.6314  0.5816  0.0258
35223SOL    HW111632   3.726   7.275   8.445 -1.5937  1.8143  2.5018
35223SOL    HW211633   3.814   7.360   8.357 -0.7885 -2.1497 -0.8267
35224SOL     OW11634   7.080   3.666   9.626 -0.2787 -0.1824 -0.3090
35224SOL    HW111635   7.003   3.611   9.609  1.5563 -2.6712 -1.1983
35224SOL    HW211636   7.128   3.618   9.694  0.1669  1.7146  0.7748
35225SOL     OW11637   6.363  10.156   5.469  0.4456 -0.4209  0.3020
35225SOL    HW111638   6.399  10.080   5.423 -0.5678 -0.7598  0.0457
35225SOL    HW211639   6.439  10.213   5.483  0.8846 -0.5136 -1.3894
35226SOL     OW11640  11.922   1.078   9.888 -0.5284 -0.0316  0.6836
35226SOL    HW111641  11.862   1.046   9.821  1.4996  0.6747 -1.6442
35226SOL    HW211642  11.911   1.018   9.962 -0.5169 -2.9727 -1.5170
35227SOL     OW11643   5.449   0.397   7.340  0.3993 -0.7273 -0.0768
35227SOL    HW111644   5.395   0.466   7.303 -1.6043 -2.7186 -1.1342
35227SOL    HW211645   5.522   0.442   7.381 -1.2960  2.0307  0.1131
35228SOL     OW11646   0.980  12.280   6.028  0.0637  0.1392 -0.4323
35228SOL    HW111647   1.024  12.219   5.969  0.6565  0.0611  0.0762
35228SOL    HW211648   1.020  12.365   6.009 -0.1438  0.2155 -0.5340
35229SOL     OW11649   1.913   5.622   2.809  0.4324  0.1536 -0.5067
35229SOL    HW111650   1.873   5.695   2.856 -0.3093 -0.6423  0.1174
35229SOL    HW211651   2.003   5.621   2.840  1.2644  2.4365 -2.4805
35230SOL     OW11652   6.393  11.321   0.902  0.1497 -0.2251  0.3758
35230SOL    HW111653   6.449  11.279   0.836 -1.1392  0.4699 -1.2367
35230SOL    HW211654   6.445  11.395   0.934  0.4883 -0.0715 -0.5042
35231SOL     OW11655   0.545   3.280   6.243  0.5067 -0.1238 -0.0162
35231SOL    HW111656   0.637   3.288   6.217  1.7349  0.9024  4.0214
35231SOL    HW211657   0.501   3.351   6.196  1.8143 -0.3470 -1.6623
35232SOL     OW11658   4.869   4.470   0.470  0.1143 -0.3580  0.5863
35232SOL    HW111659   4.776   4.478   0.492 -0.0739 -1.2204  0.1453
35232SOL    HW211660   4.871   4.463   0.375  0.8755  2.6592  0.2836
35233SOL     OW11661   9.518   8.943   5.794 -0.1368  0.5636 -0.1179
35233SOL    HW111662   9.544   9.035   5.801 -1.8462  1.0804 -0.1099
35233SOL    HW211663   9.422   8.945   5.792 -0.2849 -1.3203  1.5458
35234SOL     OW11664   4.164   4.753   3.987  0.1996  0.5136 -0.0401
35234SOL    HW111665   4.255   4.729   4.004  0.1467 -0.1362 -0.6399
35234SOL    HW211666   4.161   4.848   4.003  1.2073  0.7141 -0.9235
35235SOL     OW11667   5.663   6.146   2.897  0.7005 -0.1613 -0.6920
35235SOL    HW111668   5.708   6.096   2.965  2.9739  0.6072 -1.5239
35235SOL    HW211669   5.649   6.233   2.936  0.2595 -0.2917 -0.5580
35236SOL     OW11670   2.930   9.701   0.243 -0.1575  0.2296 -0.1675
35236SOL    HW111671   2.878   9.650   0.305  1.3954  1.3815  2.2588
35236SOL    HW211672   3.012   9.718   0.289  0.8516  1.7400 -2.3313
35237SOL     OW11673   1.408   0.423   0.992  0.1656 -0.7445  0.2035
35237SOL    HW111674   1.403   0.333   1.023 -0.2658 -1.0439 -0.7067
35237SOL    HW211675   1.424   0.416   0.898  0.2777  0.1332  0.1396
35238SOL     OW11676   9.282   4.962  12.277 -0.0578 -0.2173  0.1566
35238SOL    HW111677   9.313   5.053  12.281  0.3780 -0.3885  0.8004
35238SOL    HW211678   9.272   4.944  12.184 -2.0754  1.1349  0.0453
35239SOL     OW11679  12.400   4.019   4.693  0.0003  0.1680  0.2046
35239SOL    HW111680  12.365   3.979   4.613 -1.2381  1.9453 -0.2073
35239SOL    HW211681  12.487   4.051   4.668  1.2182 -2.4713  0.6633
35240SOL     OW11682   0.491   4.402   1.704 -0.1087 -0.1570  0.4524
35240SOL    HW111683   0.523   4.341   1.638  1.2461  0.6180  0.3715
35240SOL    HW211684   0.558   4.401   1.772 -1.3090 -0.6799  1.6827
35241SOL     OW11685  11.077   8.535   7.948  0.1610 -0.4864 -0.6201
35241SOL    HW111686  11.144   8.602   7.936 -0.2425  0.0332 -0.0583
35241SOL    HW211687  11.085   8.478   7.871 -0.7051  1.2712 -2.0808
35242SOL     OW11688  11.930   2.170   3.785 -0.6146 -0.5423  0.0065
35242SOL    HW111689  11.940   2.183   3.879 -0.4695  1.0689 -0.1961
35242SOL    HW211690  11.858   2.108   3.776 -0.6959 -0.6295  1.1742
35243SOL     OW11691  12.299   2.714  11.684 -0.0393 -0.4554 -0.6884
35243SOL    HW111692  12.301   2.791  11.741  0.2413 -1.6470  1.0018
35243SOL    HW211693  12.265   2.746  11.601  0.9095  1.6581 -0.3277
35244SOL     OW11694   6.594  12.190   4.550  0.2760 -0.1082 -0.3495
35244SOL    HW111695   6.608  12.120   4.486 -0.7718 -0.5887 -0.0749
35244SOL    HW211696   6.614  12.150   4.634  0.1396  0.0645 -0.2357
35245SOL     OW11697   1.920   1.709   4.984  0.0798 -0.4292 -0.1925
35245SOL    HW111698   2.005   1.697   4.943  0.6388 -0.0237  0.8299
35245SOL    HW211699   1.857   1.696   4.913  0.9684 -1.1800 -0.8564
35246SOL     OW11700  11.013  11.696   0.983  0.6970 -0.6021 -0.5945
35246SOL    HW111701  11.060  11.778   1.000  0.8808 -0.9189  0.4977
35246SOL    HW211702  10.921  11.719   0.993  0.7999 -0.8251  1.2398
35247SOL     OW11703   4.374   9.591   9.836  0.5971 -0.0195  0.3564
35247SOL    HW111704   4.355   9.508   9.794 -0.7161  0.9404 -1.0251
35247SOL    HW211705   4.416   9.567   9.919 -0.1808 -2.0474  0.2085
35248SOL     OW11706   8.468   0.493   4.062 -0.4284  0.1864  0.2473
35248SOL    HW111707   8.461   0.425   3.995 -1.1378 -0.1135  0.6124
35248SOL    HW211708   8.505   0.447   4.138 -2.1933 -0.1509  0.9499
35249SOL     OW11709   0.216   1.461   9.758 -0.4619 -0.1518  0.3663
35249SOL    HW111710   0.176   1.407   9.690  1.0787  0.8974 -1.4778
35249SOL    HW211711   0.167   1.543   9.755 -0.6036 -0.2193  0.7713
35250SOL     OW11712   6.151   1.172  10.198  0.1702 -0.7021  0.0360
35250SOL    HW111713   6.139   1.267  10.190  1.7607 -0.5642 -1.0374
35250SOL    HW211714   6.098   1.136  10.127  1.8679 -0.3982 -1.4550
35251SOL     OW11715   3.943   3.315   9.759  0.4638  0.5290  0.2029
35251SOL    HW111716   4.019   3.338   9.814  0.5184  0.1729  0.2737
35251SOL    HW211717   3.968   3.343   9.671 -0.2499  2.5971  0.5993
35252SOL     OW11718   4.378   8.220  10.276 -0.1667  0.0392 -0.2951
35252SOL    HW111719   4.440   8.208  10.349 -0.7567 -0.6401  0.1103
35252SOL    HW211720   4.415   8.168  10.205  0.6576  1.0816 -0.6482
35253SOL     OW11721   5.830   9.623  10.450  0.6252 -0.2514  0.1719
35253SOL    HW111722   5.924   9.610  10.447  0.9472  1.9543 -1.7383
35253SOL    HW211723   5.803   9.629  10.359 -1.4037 -0.8672  0.6686
35254SOL     OW11724   7.731   6.171   4.541 -0.4798 -0.4434 -0.3938
35254SOL    HW111725   7.749   6.250   4.490  0.3421 -0.2500  0.1875
35254SOL    HW211726   7.638   6.178   4.564 -0.4819  0.2079 -0.5853
35255SOL     OW11727   0.606   6.275  12.379 -0.2902 -0.1332 -0.4596
35255SOL    HW111728   0.668   6.303  12.312 -0.9369 -0.7653 -1.3596
35255SOL    HW211729   0.520   6.302  12.345 -0.6172 -0.3584  0.1681
35256SOL     OW11730   4.857  11.307   2.533 -0.2365 -0.1092  0.2337
35256SOL    HW111731   4.911  11.385   2.544 -1.7824  0.9618  0.5556
35256SOL    HW211732   4.775  11.340   2.496 -0.7703 -1.6536 -0.0349
35257SOL     OW11733   2.288   0.705   9.720 -0.0103 -0.1945 -0.2354
35257SOL    HW111734   2.321   0.701   9.630  1.1743 -2.5735  0.2099
35257SOL    HW211735   2.224   0.776   9.719  1.3722  1.1379 -2.4582
35258SOL     OW11736   8.292   4.645   4.658 -0.2132 -0.1318  0.3613
35258SOL    HW111737   8.357   4.579   4.685 -0.5202 -0.2477  0.8344
35258SOL    HW211738   8.223   4.639   4.724  0.2849  1.4654  1.0821
35259SOL     OW11739  12.270   7.000   3.233 -0.7492  0.1857 -0.0349
35259SOL    HW111740  12.361   6.994   3.262 -0.7366  2.2047  0.5007
35259SOL    HW211741  12.263   7.087   3.192 -2.3460 -0.0746 -0.4048
35260SOL     OW11742   4.569   4.849   4.648  0.3965 -0.2104  0.6455
35260SOL    HW111743   4.546   4.940   4.667  1.6425  0.3289 -0.2898
35260SOL    HW211744   4.650   4.834   4.696  0.5799 -0.5959  0.2216
35261SOL     OW11745  11.443   9.365   1.050  0.0031 -0.0811 -0.0650
35261SOL    HW111746  11.441   9.460   1.042 -0.9677 -0.1691 -1.0897
35261SOL    HW211747  11.534   9.341   1.033  0.3026  0.6664  0.4168
35262SOL     OW11748   8.384  10.154   4.600 -0.3398  0.0357 -0.5204
35262SOL    HW111749   8.311  10.195   4.647 -0.0122  0.8170 -0.6720
35262SOL    HW211750   8.373  10.060   4.615 -0.5318  0.2423  0.6826
35263SOL     OW11751   1.123  10.350  11.444 -0.1993 -0.3993 -0.1693
35263SOL    HW111752   1.042  10.340  11.394  0.1128 -1.7195 -0.4556
35263SOL    HW211753   1.190  10.370  11.378  0.1011 -1.5519 -0.2461
35264SOL     OW11754   3.976   7.045   0.618  0.2232  0.2486 -0.7542
35264SOL    HW111755   3.901   7.023   0.562  0.1503 -0.0148 -0.5572
35264SOL    HW211756   3.941   7.041   0.707  0.9956 -2.1292 -0.4938
35265SOL     OW11757   2.611   8.932   2.417  0.4075 -0.1938 -0.6380
35265SOL    HW111758   2.613   8.856   2.359 -0.9137 -0.5137 -0.2992
35265SOL    HW211759   2.567   8.901   2.496 -0.0682  0.8858 -0.4623
35266SOL     OW11760  11.035   4.100   7.353 -0.1194 -0.4324  0.0772
35266SOL    HW111761  11.068   4.017   7.319  1.1478 -0.2783  0.8780
35266SOL    HW211762  10.941   4.099   7.332  0.2069 -1.2911 -1.4393
35267SOL     OW11763   0.493   7.467  10.462 -0.0673  0.2541  0.4305
35267SOL    HW111764   0.464   7.432  10.547 -0.1999  2.8450  1.5610
35267SOL    HW211765   0.561   7.530  10.485  2.0881 -1.1231 -1.6962
35268SOL     OW11766   8.192  11.165   5.752  0.0357 -0.1755 -0.7551
35268SOL    HW111767   8.252  11.132   5.685 -0.2382 -1.5368 -0.3487
35268SOL    HW211768   8.222  11.125   5.834  0.4688  1.5869  0.0078
35269SOL     OW11769   7.392   2.550   1.072  0.6271  0.1240  0.3714
35269SOL    HW111770   7.435   2.470   1.043  2.7243  1.0846  0.6089
35269SOL    HW211771   7.301   2.524   1.089  0.9242 -1.8836 -0.7685
35270SOL     OW11772   0.401   6.845   0.247 -0.1884 -0.0396 -0.1587
35270SOL    HW111773   0.309   6.851   0.275 -0.5141  1.9422 -1.4339
35270SOL    HW211774   0.439   6.779   0.304 -2.5540 -1.3785  0.0083
35271SOL     OW11775   2.844   5.057   0.597 -0.2856  0.0102 -0.3157
35271SOL    HW111776   2.882   4.975   0.566 -2.3324 -0.7498 -1.0067
35271SOL    HW211777   2.826   5.041   0.690 -0.2435 -0.1659 -0.3372
35272SOL     OW11778  11.665   5.820   2.451  0.4040  0.0400  0.4058
35272SOL    HW111779  11.722   5.888   2.487  1.3588 -0.6012  0.1304
35272SOL    HW211780  11.582   5.831   2.498 -0.6578  3.5330 -1.9080
35273SOL     OW11781  10.507   8.637   5.238  0.7920  0.3497 -0.1991
35273SOL    HW111782  10.430   8.689   5.216  0.1817 -1.0692 -1.5671
35273SOL    HW211783  10.580   8.685   5.201  0.3016  0.5434 -0.9275
35274SOL     OW11784  11.682   9.730  11.837 -0.6472  1.1790  0.2189
35274SOL    HW111785  11.658   9.687  11.919  0.2503 -1.2356 -0.6984
35274SOL    HW211786  11.598   9.744  11.793 -0.9617 -1.2352 -0.1335
35275SOL     OW11787   7.776  10.285   3.351 -0.3117 -0.3337 -0.6039
35275SOL    HW111788   7.738  10.370   3.375  1.0051  0.2909 -0.6455
35275SOL    HW211789   7.834  10.263   3.424  1.8981  0.4347 -2.0076
35276SOL     OW11790  11.080   4.787   6.952 -0.4159 -0.7655  0.1540
35276SOL    HW111791  10.984   4.788   6.953 -0.4411  1.3748 -0.5614
35276SOL    HW211792  11.106   4.830   7.033 -0.0594 -0.8961  0.1109
35277SOL     OW11793  11.544   5.252   1.422 -0.5219 -0.2145 -0.2112
35277SOL    HW111794  11.618   5.256   1.362 -1.2392  1.6111 -1.0588
35277SOL    HW211795  11.524   5.159   1.430  1.3598 -0.6787 -0.5576
35278SOL     OW11796   9.840   0.165   9.929 -0.3756  0.7799  0.5772
35278SOL    HW111797   9.824   0.152   9.835  0.4812 -1.6297  0.6923
35278SOL    HW211798   9.769   0.119   9.972  1.0215 -1.0448  1.0541
35279SOL     OW11799   8.160   5.227   5.752 -0.3624 -0.1324 -0.1101
35279SOL    HW111800   8.204   5.270   5.679 -1.2464 -0.8760 -1.1374
35279SOL    HW211801   8.067   5.230   5.728 -0.6154 -0.8830  0.7166
35280SOL     OW11802   9.588   6.337   3.338 -0.4633 -0.1914 -0.4317
35280SOL    HW111803   9.682   6.329   3.321 -0.6273 -0.2333 -1.3462
35280SOL    HW211804   9.578   6.312   3.430  0.3278 -0.8745 -0.5216
35281SOL     OW11805  11.898   8.030   5.913 -0.0682 -0.3870 -0.2619
35281SOL    HW111806  11.825   8.092   5.903 -1.8689 -2.1825  0.9406
35281SOL    HW211807  11.909   7.993   5.825  1.1213  1.6099 -1.0316
35282SOL     OW11808   6.965   9.443   6.192  0.5579  0.7225 -0.7843
35282SOL    HW111809   6.892   9.490   6.153  0.1526  0.3763 -0.4508
35282SOL    HW211810   7.022   9.421   6.117  0.8385  1.8660 -0.9202
35283SOL     OW11811   2.027   7.825  11.138 -0.5423 -0.0300  0.0230
35283SOL    HW111812   2.090   7.766  11.180  0.8003  1.3058 -0.0181
35283SOL    HW211813   2.029   7.904  11.192  0.7879  1.5178 -2.1123
35284SOL     OW11814  11.689   8.937   4.840 -0.2828  0.2946  0.2835
35284SOL    HW111815  11.597   8.920   4.818 -0.7516  0.8357  1.7316
35284SOL    HW211816  11.690   9.028   4.871  0.2060 -0.5145  2.8818
35285SOL     OW11817   2.911   5.977   2.913 -0.3331 -0.0645  0.5406
35285SOL    HW111818   2.935   6.045   2.976 -1.9398  0.1372  0.9810
35285SOL    HW211819   2.818   5.963   2.928 -0.0978 -2.2441  0.3427
35286SOL     OW11820  12.340  11.997  10.127 -0.7348 -0.6618 -0.1718
35286SOL    HW111821  12.395  12.069  10.095 -1.9470  1.0715  1.3583
35286SOL    HW211822  12.318  11.947  10.049  1.0589 -0.0360 -1.1434
35287SOL     OW11823   7.415   4.046   2.218 -0.1533 -0.2235  0.2550
35287SOL    HW111824   7.413   3.986   2.144  0.8240  1.5051 -1.2424
35287SOL    HW211825   7.493   4.020   2.267 -0.3326 -0.8416  0.2200
35288SOL     OW11826   7.603   5.914   1.482  0.9217  0.0851  0.0278
35288SOL    HW111827   7.552   5.904   1.402  1.3188  1.5898 -0.4547
35288SOL    HW211828   7.693   5.927   1.452  1.3200 -0.7880  0.7913
35289SOL     OW11829   3.765   0.349   1.073 -0.5071  0.3732 -0.2639
35289SOL    HW111830   3.671   0.351   1.092 -0.6224  1.9822 -0.7910
35289SOL    HW211831   3.772   0.306   0.988 -1.0228  2.1177 -1.2375
35290SOL     OW11832   7.045  10.865  10.555 -0.3454  0.3786  0.4568
35290SOL    HW111833   7.140  10.865  10.561 -0.3987  1.2328  1.3103
35290SOL    HW211834   7.028  10.844  10.463  0.6144 -1.9985  0.7472
35291SOL     OW11835   6.398   2.982   7.328 -0.2957 -0.3355  0.6179
35291SOL    HW111836   6.425   3.074   7.323 -0.8565 -0.1516  0.8580
35291SOL    HW211837   6.445   2.939   7.256  0.2347  0.0672  0.7183
35292SOL     OW11838   7.513   1.704   8.599 -0.4177 -0.3482  0.3684
35292SOL    HW111839   7.494   1.741   8.685 -0.6474 -0.8351  0.5326
35292SOL    HW211840   7.526   1.780   8.542 -0.8147 -0.0221  0.7087
35293SOL     OW11841   4.697   3.771   4.455  0.2115 -0.3020  0.1362
35293SOL    HW111842   4.670   3.749   4.366 -1.8818  0.8267  0.4231
35293SOL    HW211843   4.782   3.815   4.444 -0.2134  0.2282 -1.3596
35294SOL     OW11844   9.214  10.562  10.879 -0.6015  0.0564  0.4702
35294SOL    HW111845   9.197  10.608  10.961  0.1681 -2.1369  1.9653
35294SOL    HW211846   9.136  10.578  10.826 -1.4747  0.9124  1.9328
35295SOL     OW11847   9.283   3.828   4.684  0.2943 -0.0820  0.1263
35295SOL    HW111848   9.327   3.906   4.717 -0.2657  0.2504  0.1036
35295SOL    HW211849   9.352   3.762   4.678  0.7198  0.3317  0.4024
35296SOL     OW11850   8.342  12.121   0.804 -0.0603 -0.0670  0.1828
35296SOL    HW111851   8.293  12.084   0.731 -0.8484  0.1016  0.6161
35296SOL    HW211852   8.287  12.193   0.836  0.1177 -0.3407  1.1405
35297SOL     OW11853   2.107   3.014   0.261  0.3170  0.1686 -0.1175
35297SOL    HW111854   2.156   3.007   0.179  0.2208 -3.6182 -0.0079
35297SOL    HW211855   2.022   3.050   0.236 -0.0294 -1.7414 -1.9037
35298SOL     OW11856   4.198   2.380   4.771 -0.6952 -0.1951  0.5759
35298SOL    HW111857   4.170   2.471   4.780  1.1539  0.3098  1.6163
35298SOL    HW211858   4.118   2.329   4.785 -1.3380  1.1929  2.2629
35299SOL     OW11859   0.209   3.167   4.975 -0.5749 -0.1886  0.2995
35299SOL    HW111860   0.278   3.230   4.954 -0.3526 -0.2225  0.8956
35299SOL    HW211861   0.213   3.159   5.071 -0.4349 -1.2987  0.2090
35300SOL     OW11862  11.023   6.719   4.818 -0.3681  0.1456  0.1297
35300SOL    HW111863  10.955   6.712   4.885 -0.5033 -2.6333 -0.1809
35300SOL    HW211864  11.010   6.642   4.763  1.4080  0.9520 -1.5185
35301SOL     OW11865   2.945   3.816   4.707 -0.1444  0.3918  0.6807
35301SOL    HW111866   2.955   3.899   4.660 -3.2681 -0.1131 -1.1372
35301SOL    HW211867   2.959   3.749   4.640 -0.7184 -0.4493  1.3823
35302SOL     OW11868   7.419  10.284   5.137  0.2135  0.4257 -0.0360
35302SOL    HW111869   7.443  10.324   5.221 -0.1516  2.4199 -0.8279
35302SOL    HW211870   7.500  10.244   5.106  1.3877  2.8896 -0.4116
35303SOL     OW11871   0.907   0.519   2.953 -0.4387  0.0482  0.0276
35303SOL    HW111872   0.938   0.578   3.022  0.4193  0.2834 -0.5464
35303SOL    HW211873   0.961   0.441   2.962 -0.5230 -0.0363 -0.2012
35304SOL     OW11874   9.275   1.632   1.178  0.0796 -0.2689  0.0609
35304SOL    HW111875   9.186   1.603   1.198  0.2530 -0.7772  0.1335
35304SOL    HW211876   9.264   1.716   1.134 -0.3307  0.6221  1.8134
35305SOL     OW11877   2.151  11.890  10.362  0.0540 -0.2038 -0.5700
35305SOL    HW111878   2.102  11.815  10.394 -1.6673  1.1569  0.2077
35305SOL    HW211879   2.229  11.893  10.417  0.2440 -1.5117 -0.7423
35306SOL     OW11880   9.370   4.465  10.568 -0.1251  0.0510  0.4642
35306SOL    HW111881   9.329   4.384  10.599  0.6063  0.1160  1.6284
35306SOL    HW211882   9.450   4.436  10.524  0.7818  0.1900  1.9575
35307SOL     OW11883   8.993   5.360   3.337  0.7406 -0.3004  0.1411
35307SOL    HW111884   9.077   5.406   3.328  0.9838 -0.7426  0.1380
35307SOL    HW211885   8.973   5.364   3.430  0.4030  0.4314  0.0492
35308SOL     OW11886   8.497  10.758   6.341 -0.2753  0.2915 -0.6284
35308SOL    HW111887   8.490  10.663   6.337 -0.9949  0.3788 -2.9331
35308SOL    HW211888   8.411  10.788   6.370 -0.0178  0.2722  0.1994
35309SOL     OW11889   5.708   4.448   0.726  0.0753  0.0517  0.3673
35309SOL    HW111890   5.627   4.398   0.736  0.2058 -0.9326 -2.6040
35309SOL    HW211891   5.776   4.392   0.764  0.0983 -1.8471 -2.2053
35310SOL     OW11892   8.379   1.390   8.432  0.0690  0.0813 -0.0824
35310SOL    HW111893   8.379   1.484   8.453  0.8439  0.0173  0.2473
35310SOL    HW211894   8.449   1.380   8.368 -0.2780 -0.2122 -0.4163
35311SOL     OW11895   0.876   2.573  12.214  0.2943 -0.6217  0.1951
35311SOL    HW111896   0.954   2.519  12.200  0.7520  0.1115 -0.0782
35311SOL    HW211897   0.883   2.643  12.151 -0.1876 -0.1068  0.7033
35312SOL     OW11898   1.042   6.887   5.852 -0.6290  0.1573  0.3755
35312SOL    HW111899   1.114   6.835   5.890 -0.5467  0.4123  0.5727
35312SOL    HW211900   1.061   6.977   5.880 -0.9172  0.2528  0.2589
35313SOL     OW11901  11.241   5.139  10.023  0.2213  0.5714 -0.5362
35313SOL    HW111902  11.224   5.147  10.117 -0.5943  3.8895 -0.8283
35313SOL    HW211903  11.156   5.117   9.985  0.3133  0.3445 -0.6145
35314SOL     OW11904   1.798   0.915   7.263  0.4799  0.1468 -0.3843
35314SOL    HW111905   1.824   0.852   7.330 -0.0605  0.8882  0.5445
35314SOL    HW211906   1.736   0.972   7.307 -0.9982 -0.2117 -1.9133
35315SOL     OW11907  11.453  10.854   0.888  0.2016  0.6240  0.1222
35315SOL    HW111908  11.374  10.801   0.897  0.8512 -0.5071 -0.6523
35315SOL    HW211909  11.487  10.861   0.977 -0.5531  0.7891  0.4060
35316SOL     OW11910   8.289   5.390   3.370  0.0036 -0.5127  0.0554
35316SOL    HW111911   8.216   5.447   3.393 -1.1382 -1.0472 -2.0138
35316SOL    HW211912   8.249   5.306   3.348  1.3662 -1.2082  0.0965
35317SOL     OW11913   2.337  10.168   5.245  0.0834  0.3461  0.2339
35317SOL    HW111914   2.427  10.175   5.277 -0.1936  2.5080  0.6429
35317SOL    HW211915   2.289  10.234   5.294 -1.3365  0.5477 -1.3659
35318SOL     OW11916   1.859   7.326   5.501  0.5400  0.0991  0.5387
35318SOL    HW111917   1.851   7.376   5.582  1.8457 -0.0338  0.7691
35318SOL    HW211918   1.791   7.259   5.508  0.5892  0.1288  1.5025
35319SOL     OW11919   9.756   3.544   8.974  0.3220  0.3245 -0.1340
35319SOL    HW111920   9.781   3.612   8.912 -0.7140 -0.5055 -1.5354
35319SOL    HW211921   9.753   3.464   8.921  1.5379 -0.8499  1.4576
35320SOL     OW11922   5.361   5.528   9.945  0.1622  0.5349  0.1766
35320SOL    HW111923   5.443   5.482   9.929  0.1693  0.6583 -0.1526
35320SOL    HW211924   5.294   5.460   9.939  0.0100  0.8092 -1.9067
35321SOL     OW11925   5.442  10.792   6.075  0.7510  0.2617  0.2843
35321SOL    HW111926   5.364  10.739   6.055  1.5887 -0.5108 -1.0630
35321SOL    HW211927   5.428  10.874   6.029  0.5598  0.2801  0.3714
35322SOL     OW11928   3.243   8.580   4.558 -0.2728  0.0567  0.1908
35322SOL    HW111929   3.171   8.541   4.607 -0.0585  1.0639  1.3722
35322SOL    HW211930   3.212   8.668   4.537  0.0366 -0.0222 -0.6301
35323SOL     OW11931   3.931   0.011   0.933 -1.0056 -0.1350 -0.2066
35323SOL    HW111932   3.898   0.014   1.023 -0.3347 -4.4023  0.4082
35323SOL    HW211933   4.026   0.017   0.942 -0.9925  0.8896 -0.8397
35324SOL     OW11934   5.115   3.503   6.373  0.0995 -0.2907  0.3998
35324SOL    HW111935   5.125   3.519   6.279 -0.6819 -1.0220  0.1776
35324SOL    HW211936   5.171   3.427   6.390 -0.8841 -1.0839  0.2111
35325SOL     OW11937   4.029   1.154   9.628  0.0410 -0.6736  0.4239
35325SOL    HW111938   3.988   1.084   9.578  1.1159 -1.6149  0.8275
35325SOL    HW211939   3.956   1.201   9.668 -0.6740 -2.7937  1.7851
35326SOL     OW11940   9.687   2.300   5.650  0.3134  0.3505 -0.2531
35326SOL    HW111941   9.749   2.267   5.716  1.1355  4.4884  1.3334
35326SOL    HW211942   9.740   2.313   5.571  0.7521  0.9025  0.1254
35327SOL     OW11943   3.540  12.462   0.038  0.7367 -0.7085  0.1148
35327SOL    HW111944   3.538  12.540   0.094 -2.0651  0.1980 -1.0795
35327SOL    HW211945   3.550  12.389   0.099 -2.5457  0.2052  1.9960
35328SOL     OW11946  12.405   7.848   9.736  0.1490  0.7252 -0.2080
35328SOL    HW111947  12.360   7.921   9.693 -1.3183 -0.5958 -1.0117
35328SOL    HW211948  12.495   7.852   9.703 -0.0754  1.7582 -0.7400
35329SOL     OW11949   6.933   9.111   4.134  0.8693  0.1762  0.7081
35329SOL    HW111950   6.955   9.063   4.214  0.1427  0.4676  1.0917
35329SOL    HW211951   7.008   9.097   4.076 -0.2907 -3.4473 -0.1603
35330SOL     OW11952   1.442   6.129   8.018  0.3470  0.3824  0.0865
35330SOL    HW111953   1.408   6.132   7.929  1.0008 -1.7187 -0.2876
35330SOL    HW211954   1.471   6.039   8.030 -1.2047  0.1339  2.9881
35331SOL     OW11955   3.488   9.752   9.686 -0.4141  0.4161  0.5770
35331SOL    HW111956   3.513   9.744   9.778  0.5097 -0.4046  0.2654
35331SOL    HW211957   3.395   9.731   9.685 -0.5162  0.7774  1.3713
35332SOL     OW11958   2.877   4.514   0.849 -0.6113 -0.4659  0.6000
35332SOL    HW111959   2.887   4.442   0.912 -0.9188 -1.5929 -0.5816
35332SOL    HW211960   2.888   4.593   0.900 -1.0743 -1.3407  2.1028
35333SOL     OW11961   4.118   0.769   2.864 -0.1647 -0.3703 -0.4126
35333SOL    HW111962   4.042   0.713   2.852 -1.8677  1.7313  0.0136
35333SOL    HW211963   4.133   0.807   2.777 -1.4815  1.4304  0.1027
35334SOL     OW11964   7.090   3.566   3.966 -0.3910 -0.6517 -0.1676
35334SOL    HW111965   7.124   3.544   3.880  0.1427  2.8136 -0.9948
35334SOL    HW211966   6.999   3.593   3.950 -0.3484 -0.1689  0.3716
35335SOL     OW11967   2.802   9.694   6.474 -0.4530 -0.5506  0.2416
35335SOL    HW111968   2.826   9.784   6.497 -0.7270 -0.2034 -0.7879
35335SOL    HW211969   2.784   9.697   6.380 -0.5580 -1.6666  0.2115
35336SOL     OW11970  10.760   6.407   7.862  0.2126 -0.5051  0.2459
35336SOL    HW111971  10.724   6.320   7.878 -0.9883  0.2676  2.0326
35336SOL    HW211972  10.747   6.454   7.944 -1.3985  2.1288 -1.3737
35337SOL     OW11973   2.740   8.216  10.502 -0.2803 -0.1194  0.1306
35337SOL    HW111974   2.814   8.194  10.444  1.6873  4.0570  0.6722
35337SOL    HW211975   2.757   8.167  10.582 -0.1195 -1.8835 -0.9153
35338SOL     OW11976   5.112   8.543   0.669  0.4146 -0.0895  0.2363
35338SOL    HW111977   5.041   8.554   0.606 -1.3618  0.2064  2.1580
35338SOL    HW211978   5.192   8.549   0.617 -0.9409  0.3445 -1.9213
35339SOL     OW11979  10.721   9.557  10.117  0.5216  0.4011  0.0512
35339SOL    HW111980  10.804   9.601  10.134 -0.7749  2.4386  1.6260
35339SOL    HW211981  10.672   9.618  10.061  0.4584 -1.2950 -1.8786
35340SOL     OW11982   9.852  12.360   1.482 -0.2225  0.5768  0.3850
35340SOL    HW111983   9.800  12.431   1.444  0.5907  0.7984 -0.3525
35340SOL    HW211984   9.917  12.339   1.414  0.6105  0.2783  1.2476
35341SOL     OW11985   6.665   0.481   6.114 -0.0518  0.1195  0.5311
35341SOL    HW111986   6.721   0.403   6.114  0.6618  0.6137  1.1985
35341SOL    HW211987   6.599   0.464   6.181 -0.4379 -0.2730  0.0609
35342SOL     OW11988   2.863   2.796   3.925  0.1705 -0.1060 -0.0241
35342SOL    HW111989   2.821   2.882   3.915  0.0393 -0.2658 -1.0058
35342SOL    HW211990   2.791   2.733   3.920  0.0982 -0.2350  2.0857
35343SOL     OW11991   4.931   8.018   6.132 -0.1196 -0.0272  0.7965
35343SOL    HW111992   4.912   8.093   6.077  2.9803  2.0571  2.3120
35343SOL    HW211993   4.976   8.054   6.209  0.9703 -3.3427  1.9149
35344SOL     OW11994   2.980   8.120   1.678  0.1506 -0.2567  0.1723
35344SOL    HW111995   2.888   8.142   1.662 -0.3796 -1.2172  1.6688
35344SOL    HW211996   3.017   8.107   1.591 -0.9324  0.8839 -0.4896
35345SOL     OW11997  10.822   5.463   3.738 -0.5560 -0.0302  0.0053
35345SOL    HW111998  10.792   5.539   3.788 -1.0100  0.0450 -0.3811
35345SOL    HW211999  10.916   5.476   3.728 -0.3947 -0.2101  1.1291
35346SOL     OW12000   7.396   2.856   0.787  0.1089 -0.2014 -0.3588
35346SOL    HW112001   7.388   2.840   0.880 -0.4342 -0.5136 -0.4573
35346SOL    HW212002   7.489   2.845   0.768  0.5173  1.5158  0.4498
35347SOL     OW12003   3.520   8.080   0.906  0.2181  0.4908 -0.3182
35347SOL    HW112004   3.482   8.034   0.980  2.5994  0.5066  1.0095
35347SOL    HW212005   3.511   8.173   0.928  1.6079  0.4877  0.3835
35348SOL     OW12006  10.532   1.635   9.645  0.3018 -0.1650 -0.3988
35348SOL    HW112007  10.601   1.570   9.637 -0.1835 -0.6707 -0.5201
35348SOL    HW212008  10.480   1.626   9.565 -0.5023 -0.4894  0.1503
35349SOL     OW12009   9.498   3.032  11.477  0.1719  0.0772  0.4608
35349SOL    HW112010   9.438   2.976  11.526 -1.6343  2.8332  1.6196
35349SOL    HW212011   9.441   3.082  11.419  1.7734  0.4325 -0.8727
35350SOL     OW12012   4.532   5.063   9.788  0.4970  0.0862 -0.1789
35350SOL    HW112013   4.601   4.997   9.798 -0.8369 -1.0187  3.5259
35350SOL    HW212014   4.454   5.012   9.767  0.0032  0.8139 -0.1131
35351SOL     OW12015   4.703   3.895   8.155  0.7615 -0.0594 -0.0723
35351SOL    HW112016   4.646   3.865   8.084  1.1459 -0.1171 -0.3625
35351SOL    HW212017   4.791   3.892   8.117  0.9870 -0.2412  0.4586
35352SOL     OW12018   6.534  10.106   2.262 -0.4402  0.6912 -0.0846
35352SOL    HW112019   6.595  10.180   2.258 -0.3977  0.7467  1.2414
35352SOL    HW212020   6.523  10.089   2.356 -0.5678 -0.8953 -0.3668
35353SOL     OW12021   4.700   9.759   4.245 -0.6327 -1.3179  0.4551
35353SOL    HW112022   4.701   9.843   4.198 -0.6784  0.9697  4.1243
35353SOL    HW212023   4.790   9.728   4.240  0.5282  1.3022  2.5657
35354SOL     OW12024   0.172   9.206   2.772  0.7998  0.1780  0.0662
35354SOL    HW112025   0.252   9.173   2.732 -0.0610 -0.5786 -1.1029
35354SOL    HW212026   0.106   9.139   2.753  0.3252 -0.2312  2.7896
35355SOL     OW12027   4.390   4.684   4.834 -0.2048 -0.1086 -0.1443
35355SOL    HW112028   4.479   4.720   4.831  0.7828 -2.0693  2.4222
35355SOL    HW212029   4.386   4.625   4.758  0.9240 -0.4735  0.0606
35356SOL     OW12030   3.555   4.424   4.441 -0.1687  0.3135 -0.0577
35356SOL    HW112031   3.540   4.493   4.377 -0.1011 -0.1596 -0.5961
35356SOL    HW212032   3.628   4.456   4.495  0.3161  0.3740 -0.7359
35357SOL     OW12033  11.909   8.129   4.797 -0.2442 -0.3172 -0.4720
35357SOL    HW112034  11.917   8.070   4.723 -1.0223 -0.4690 -0.4456
35357SOL    HW212035  11.850   8.198   4.767 -0.8909 -0.5915  0.1153
35358SOL     OW12036   6.555   7.782   2.629  0.1006  0.1076  0.2649
35358SOL    HW112037   6.619   7.731   2.678 -0.0054  1.1438  1.5144
35358SOL    HW212038   6.600   7.804   2.547  2.0227  2.1907  1.7707
35359SOL     OW12039   5.660   1.029   5.820  1.0599  0.3437  0.0503
35359SOL    HW112040   5.746   1.000   5.849  0.2704 -1.2238  0.9365
35359SOL    HW212041   5.600   0.997   5.887 -0.1950  1.7018 -0.3707
35360SOL     OW12042   3.657   4.714   4.909  0.3568 -0.1305 -0.4232
35360SOL    HW112043   3.565   4.698   4.887  0.2013 -0.0390  0.1646
35360SOL    HW212044   3.678   4.797   4.866  0.1279 -0.0823 -0.4429
35361SOL     OW12045   2.018   0.973   5.079 -0.0422 -0.2405  0.3300
35361SOL    HW112046   1.992   0.930   4.998 -0.7323 -1.0597  0.9644
35361SOL    HW212047   1.935   1.005   5.116  0.4153  1.3771  0.0379
35362SOL     OW12048   7.353  11.238   9.741 -0.2056 -0.5722  0.4326
35362SOL    HW112049   7.405  11.175   9.692  0.1283  0.5973 -0.7645
35362SOL    HW212050   7.315  11.296   9.674 -0.6844  0.3575  1.4706
35363SOL     OW12051   1.326  11.408   7.522  0.2684 -0.2831 -0.3932
35363SOL    HW112052   1.323  11.500   7.547 -1.6641 -0.3927 -0.0574
35363SOL    HW212053   1.353  11.362   7.602  1.0576 -0.0448 -0.5134
35364SOL     OW12054   6.955   5.895   7.397 -0.5669  0.6127  0.2987
35364SOL    HW112055   7.029   5.851   7.356 -0.2552  0.1323  1.3538
35364SOL    HW212056   6.878   5.849   7.363 -0.4497  1.3847 -1.1370
35365SOL     OW12057   6.893   9.986   8.325 -0.1465  0.3302  0.1202
35365SOL    HW112058   6.921   9.926   8.257 -0.2779  0.7834 -0.3385
35365SOL    HW212059   6.947   9.964   8.401 -1.1096 -1.2433  0.3781
35366SOL     OW12060  11.437   9.764   1.513 -0.1154 -0.2705 -0.0811
35366SOL    HW112061  11.379   9.710   1.566 -1.6590  0.9862 -0.4097
35366SOL    HW212062  11.470   9.831   1.574  0.1985 -0.3775 -0.1293
35367SOL     OW12063   2.384   9.586   7.946 -0.3262  0.5292  0.1902
35367SOL    HW112064   2.298   9.618   7.973 -0.4860  1.3065 -1.1551
35367SOL    HW212065   2.367   9.502   7.904 -0.2624  0.0615  1.0880
35368SOL     OW12066   8.215   8.874   6.216 -0.2861 -0.3498 -0.0523
35368SOL    HW112067   8.283   8.932   6.251 -0.3696  0.1827 -0.7461
35368SOL    HW212068   8.165   8.930   6.157 -1.6652 -0.5844  0.8463
35369SOL     OW12069   4.077   4.325   0.772  0.0595  0.2499  0.3917
35369SOL    HW112070   4.047   4.366   0.853  0.3145 -0.9794  1.1361
35369SOL    HW212071   4.048   4.384   0.703 -0.8766  0.9189  1.3249
35370SOL     OW12072   2.692   9.970   8.152  0.5117 -0.0940  0.1343
35370SOL    HW112073   2.722   9.880   8.144  0.7416  0.0762 -1.0205
35370SOL    HW212074   2.680  10.000   8.062  0.4556  1.0359  0.5011
35371SOL     OW12075   8.423   0.715   5.921 -0.2986  0.6549 -0.2669
35371SOL    HW112076   8.441   0.661   5.998 -0.5813  0.9971  0.0431
35371SOL    HW212077   8.500   0.772   5.914 -0.1964  0.5094 -0.3413
35372SOL     OW12078   1.095   1.957   5.867  0.3375 -0.2170 -0.2405
35372SOL    HW112079   1.141   1.974   5.784  0.0178  1.0996 -0.1618
35372SOL    HW212080   1.160   1.975   5.934  0.0415  0.5467 -0.1579
35373SOL     OW12081   7.667   4.126  12.330 -0.0584 -0.9145  0.3866
35373SOL    HW112082   7.643   4.047  12.379 -1.4010  0.0737  1.3952
35373SOL    HW212083   7.614   4.195  12.368  0.1211  0.2496 -1.3473
35374SOL     OW12084   7.300   0.576   6.456  0.1351  0.5608  0.3399
35374SOL    HW112085   7.233   0.637   6.485 -1.2423 -0.0830 -1.2781
35374SOL    HW212086   7.348   0.624   6.389 -0.3977  0.1837 -0.3254
35375SOL     OW12087   5.845  10.099   8.382 -0.3469 -0.0193 -0.1906
35375SOL    HW112088   5.885  10.136   8.461  0.3318  1.2787 -1.1187
35375SOL    HW212089   5.912  10.041   8.347 -0.5036 -0.2979 -0.0359
35376SOL     OW12090   8.980   3.990   7.014 -0.2646 -0.1686 -0.0096
35376SOL    HW112091   8.936   3.937   6.947 -0.8381 -0.0737  0.2868
35376SOL    HW212092   8.960   3.947   7.097 -0.9760  0.6586  0.2634
35377SOL     OW12093   7.124   5.497   4.398 -0.3466  0.1425  0.1246
35377SOL    HW112094   7.106   5.536   4.313  0.1091 -0.8758 -0.4626
35377SOL    HW212095   7.202   5.443   4.384 -1.5405 -1.8330  0.6065
35378SOL     OW12096   3.602   5.465   6.256  0.2656 -0.1682 -0.6395
35378SOL    HW112097   3.613   5.380   6.213 -0.5435  0.7003 -2.6652
35378SOL    HW212098   3.603   5.528   6.185  1.9036  1.6774  0.9061
35379SOL     OW12099   4.095   0.997   6.118  0.7411  0.3829 -0.5322
35379SOL    HW112100   4.126   0.941   6.190 -1.7964  2.1731  2.1899
35379SOL    HW212101   4.096   1.086   6.154 -2.1857  1.1779 -2.0738
35380SOL     OW12102   2.337   9.593  10.757 -0.3506 -0.2683  0.1240
35380SOL    HW112103   2.352   9.687  10.740  1.3674 -0.7696 -1.4684
35380SOL    HW212104   2.249   9.577  10.725 -1.1755  1.0244  1.5797
35381SOL     OW12105   2.990   9.888   1.018  0.2248 -0.0354  0.5364
35381SOL    HW112106   3.072   9.911   1.062 -1.0959  1.3154  2.4688
35381SOL    HW212107   2.993   9.935   0.935  2.6258 -2.3477 -0.8155
35382SOL     OW12108   6.271  10.341  10.320  0.1813  0.1444 -0.3875
35382SOL    HW112109   6.321  10.415  10.286  1.4921 -1.1830 -1.4676
35382SOL    HW212110   6.321  10.311  10.396 -0.4850  0.4856  0.2076
35383SOL     OW12111   6.820   3.820   8.587 -0.0758 -0.0727 -0.2574
35383SOL    HW112112   6.726   3.836   8.600  0.0489  0.7652 -0.3186
35383SOL    HW212113   6.824   3.764   8.509 -0.5387 -0.4153 -0.0421
35384SOL     OW12114   5.339  11.593  10.100 -0.1817 -0.3255 -0.1482
35384SOL    HW112115   5.391  11.597  10.180 -0.6802  0.4561  0.1549
35384SOL    HW212116   5.314  11.501  10.092  1.2292 -0.7196 -0.3045
35385SOL     OW12117   7.577   4.432   7.959 -0.8127  0.2001 -0.3346
35385SOL    HW112118   7.664   4.471   7.966 -0.8925  0.1363  2.1686
35385SOL    HW212119   7.570   4.402   7.869  2.0725 -0.4824 -0.4147
35386SOL     OW12120   0.266   4.207  11.644  0.6799  0.5631  0.2441
35386SOL    HW112121   0.293   4.293  11.613  0.3158  2.0492  3.6119
35386SOL    HW212122   0.346   4.168  11.680  0.1866  1.1387  2.0705
35387SOL     OW12123   2.171   3.496   7.519 -0.3742 -0.2760  0.4496
35387SOL    HW112124   2.198   3.546   7.596  0.6759  0.2583 -0.2430
35387SOL    HW212125   2.076   3.502   7.519 -0.3643  0.1041  1.4476
35388SOL     OW12126   9.658  10.397   8.222  0.3697  0.3092 -0.1317
35388SOL    HW112127   9.639  10.474   8.169  1.2376 -0.8910 -2.3506
35388SOL    HW212128   9.674  10.328   8.158  0.9615 -1.3915  1.7453
35389SOL     OW12129   3.250   2.212   3.175 -0.3823  0.4973  0.5826
35389SOL    HW112130   3.175   2.154   3.164 -0.2241  0.5046 -0.6539
35389SOL    HW212131   3.239   2.279   3.107  0.6738  0.5643  0.4646
35390SOL     OW12132   4.483   2.655   5.569 -0.3391  0.0661  0.4272
35390SOL    HW112133   4.506   2.747   5.562 -2.4367  0.6874  0.9308
35390SOL    HW212134   4.453   2.644   5.660 -1.4171 -0.7550  0.0016
35391SOL     OW12135   0.153   4.317   0.410 -0.1078  0.0333 -0.2481
35391SOL    HW112136   0.241   4.339   0.442 -1.2545  1.1952  2.4562
35391SOL    HW212137   0.134   4.232   0.449  0.2834 -0.8721 -1.9588
35392SOL     OW12138   7.877   3.517   8.740  0.2722  0.5920 -0.0842
35392SOL    HW112139   7.968   3.495   8.759  0.4547  1.0504 -0.3806
35392SOL    HW212140   7.873   3.612   8.753 -0.2639  0.5119  0.3183
35393SOL     OW12141  10.622   0.322   1.924 -0.5705 -0.0097  0.0320
35393SOL    HW112142  10.546   0.295   1.975 -0.9812  1.4211  0.2117
35393SOL    HW212143  10.588   0.337   1.836 -0.6532  1.2150  0.2487
35394SOL     OW12144   3.234   5.450   3.527  0.1472 -0.1087  0.0240
35394SOL    HW112145   3.297   5.397   3.478  0.1884  1.3506 -1.5739
35394SOL    HW212146   3.170   5.386   3.560  2.1221 -1.5705  1.3042
35395SOL     OW12147   0.714   5.554   9.483  0.8864  0.9362 -0.0143
35395SOL    HW112148   0.694   5.533   9.392 -1.0678  1.0805  0.3297
35395SOL    HW212149   0.796   5.508   9.501  1.9168  1.8129 -2.1322
35396SOL     OW12150   1.976   3.955   3.434 -0.2459 -0.7429  0.8163
35396SOL    HW112151   1.974   4.043   3.471  1.0493 -0.7695  0.9666
35396SOL    HW212152   1.941   3.899   3.503  1.7534 -0.7397  1.8782
35397SOL     OW12153   1.567  12.455   4.525 -0.2894  0.1626  0.4544
35397SOL    HW112154   1.631  12.432   4.593  0.0523 -0.5465 -0.0911
35397SOL    HW212155   1.482  12.446   4.568 -0.0998 -0.8181  0.6435
35398SOL     OW12156   8.764  11.991   1.928  0.6935 -0.5104 -0.0627
35398SOL    HW112157   8.856  11.965   1.929  0.5459 -1.0628 -0.5158
35398SOL    HW212158   8.735  11.975   1.838  0.7194  1.7082 -0.5274
35399SOL     OW12159   2.622   7.598   6.134 -0.2994  0.5815 -0.2367
35399SOL    HW112160   2.594   7.689   6.127  0.9492  1.0211  0.2359
35399SOL    HW212161   2.606   7.575   6.225  1.6730  1.1386  0.2862
35400SOL     OW12162   6.269   3.754  11.085 -0.1775 -0.4540  0.2246
35400SOL    HW112163   6.216   3.833  11.079  0.8554  0.3838  1.5335
35400SOL    HW212164   6.233   3.706  11.159 -2.1713 -2.3597 -1.8264
35401SOL     OW12165   4.820  10.107   0.395  1.0766 -0.5832  0.1558
35401SOL    HW112166   4.799  10.195   0.366  0.7049 -1.1430 -1.4206
35401SOL    HW212167   4.850  10.117   0.485  0.9533  1.1228  0.0361
35402SOL     OW12168   0.924   0.319   8.440  0.7379  0.3038  0.2367
35402SOL    HW112169   0.957   0.381   8.375  0.6471  0.9243  0.7776
35402SOL    HW212170   0.928   0.366   8.523 -0.4176 -0.0066  0.4859
35403SOL     OW12171   5.796   2.791   8.658  0.3726 -0.5059 -0.0337
35403SOL    HW112172   5.843   2.870   8.630 -1.8186  0.5008 -1.1082
35403SOL    HW212173   5.808   2.788   8.752  0.0939  1.4168  0.1007
35404SOL     OW12174   6.891   0.304   4.527 -0.3374  0.4069 -0.5471
35404SOL    HW112175   6.973   0.309   4.578 -0.3850  1.6064 -0.5746
35404SOL    HW212176   6.856   0.218   4.549  0.2300  0.4312  0.5654
35405SOL     OW12177  10.485  11.326   4.258 -0.5937 -0.1661 -0.4285
35405SOL    HW112178  10.554  11.263   4.240 -0.2145 -0.3954  1.6719
35405SOL    HW212179  10.409  11.293   4.209 -0.1592 -1.7689 -0.0783
35406SOL     OW12180  11.954   9.277  11.004 -0.0492  0.1369  0.1925
35406SOL    HW112181  11.902   9.348  11.043  0.4614 -0.6912  2.5771
35406SOL    HW212182  11.889   9.208  10.986 -0.2441  0.3907 -0.0878
35407SOL     OW12183   7.427   1.260   3.721  0.0398  0.5030  0.1811
35407SOL    HW112184   7.347   1.289   3.764 -1.4147 -1.7548 -0.8016
35407SOL    HW212185   7.445   1.326   3.655 -1.2418  0.8450  0.1588
35408SOL     OW12186   1.000   2.292   3.278 -0.0533  0.2135  0.2674
35408SOL    HW112187   1.088   2.262   3.257  0.5171  2.0061 -0.0246
35408SOL    HW212188   0.963   2.221   3.331  0.9987 -1.2363 -0.8616
35409SOL     OW12189  10.320   3.966   2.960  0.0433  0.0772  0.1142
35409SOL    HW112190  10.401   4.015   2.971 -0.6699  1.6001 -1.0211
35409SOL    HW212191  10.314   3.950   2.866 -0.4277 -1.0276  0.3163
35410SOL     OW12192   7.617   0.736   4.986  0.3951  0.0245  0.1890
35410SOL    HW112193   7.664   0.812   5.021 -0.0997 -0.4994  2.1267
35410SOL    HW212194   7.685   0.673   4.964  0.7546  0.5783 -0.3021
35411SOL     OW12195   2.591   6.149   1.690  0.3626 -0.5343 -0.2332
35411SOL    HW112196   2.527   6.101   1.638  0.6405 -0.7425 -0.3877
35411SOL    HW212197   2.594   6.102   1.773  0.5465 -0.7129 -0.3410
35412SOL     OW12198  11.424   5.263   0.751 -0.2945  0.3540  0.3391
35412SOL    HW112199  11.382   5.220   0.676  0.4990  0.7461 -0.3509
35412SOL    HW212200  11.501   5.209   0.769  0.0323  0.7909  0.2648
35413SOL     OW12201   2.397  11.589   1.911  0.0836 -0.9326  0.1506
35413SOL    HW112202   2.315  11.626   1.942  0.8124  1.7636 -0.8630
35413SOL    HW212203   2.377  11.556   1.823  0.0921 -0.2241 -0.1191
35414SOL     OW12204   2.362   4.648   5.746 -0.1355 -0.0614  0.4544
35414SOL    HW112205   2.436   4.695   5.707  0.8967 -0.5451  1.7379
35414SOL    HW212206   2.304   4.629   5.672  2.2595 -1.9704 -1.1117
35415SOL     OW12207  11.291  11.055   0.783 -0.2146 -0.1276  0.2657
35415SOL    HW112208  11.368  11.002   0.803 -0.3850  0.4015  2.6618
35415SOL    HW212209  11.224  10.991   0.760  0.2591 -0.7928  0.6649
35416SOL     OW12210   1.088  12.105   8.318  0.1093 -0.3004 -0.0155
35416SOL    HW112211   1.128  12.054   8.388 -0.4072 -0.6938  0.0035
35416SOL    HW212212   1.114  12.196   8.335 -1.3136 -0.1632  1.6266
35417SOL     OW12213   6.363   1.490   5.518 -0.2294 -0.6250 -0.0742
35417SOL    HW112214   6.409   1.449   5.445  0.4053  0.9481 -0.5862
35417SOL    HW212215   6.292   1.539   5.477 -2.1912 -2.6357  0.6691
35418SOL     OW12216   3.493   3.446  10.544  0.0676 -0.1605 -0.2165
35418SOL    HW112217   3.554   3.511  10.577 -1.1476  0.4270  0.9820
35418SOL    HW212218   3.456   3.484  10.465  0.6115 -0.1456 -0.4631
35419SOL     OW12219   2.630   6.147   1.359  0.1367 -0.6827  0.7615
35419SOL    HW112220   2.707   6.202   1.343 -1.1604  1.6478  1.9007
35419SOL    HW212221   2.665   6.060   1.375  2.4061 -0.0225 -0.2165
35420SOL     OW12222   0.495   0.703   7.206 -0.4603  0.1899  0.4229
35420SOL    HW112223   0.519   0.718   7.298 -0.0956 -0.3031  0.4114
35420SOL    HW212224   0.522   0.783   7.161 -0.2136  0.2441  0.6634
35421SOL     OW12225   0.981   7.304  10.892 -0.4175 -0.1216 -0.3500
35421SOL    HW112226   0.981   7.327  10.984 -1.1129  0.0711 -0.3956
35421SOL    HW212227   0.918   7.232  10.885  0.7092 -1.1357 -0.4356
35422SOL     OW12228   5.445   8.563  10.405 -0.5032  0.5438  0.0381
35422SOL    HW112229   5.410   8.624  10.340  0.6725  0.2083 -0.9423
35422SOL    HW212230   5.380   8.494  10.411 -0.7694  0.7305 -0.5654
35423SOL     OW12231   0.425   5.291  11.577  0.7513  0.3746 -0.0960
35423SOL    HW112232   0.496   5.280  11.640  1.6268  1.8194 -0.8021
35423SOL    HW212233   0.385   5.204  11.572  0.1773  0.3353  2.9684
35424SOL     OW12234   7.963   4.854   0.735 -0.2182  0.1016  0.0449
35424SOL    HW112235   8.017   4.804   0.674 -0.7916 -0.5943  0.0955
35424SOL    HW212236   7.907   4.908   0.680  1.1301  1.5256 -0.0077
35425SOL     OW12237  12.418   7.720   5.413  0.2924  0.5512 -0.0401
35425SOL    HW112238  12.488   7.772   5.375  1.1003  1.3016  2.2733
35425SOL    HW212239  12.452   7.631   5.416  2.3056  1.2737  3.2820
35426SOL     OW12240   1.837   3.668   5.418  0.0777  0.4661 -0.1746
35426SOL    HW112241   1.875   3.645   5.503 -2.2225 -0.0564  0.7840
35426SOL    HW212242   1.891   3.741   5.388  0.9846  0.6563  1.7198
35427SOL     OW12243   3.923   2.413   3.083 -0.0650  0.4772  0.2446
35427SOL    HW112244   3.873   2.339   3.051 -2.0232  1.8746 -0.1247
35427SOL    HW212245   3.967   2.380   3.162 -1.7171 -0.7945  0.6905
35428SOL     OW12246   0.451   5.416   6.100  0.5024 -0.3818 -0.0221
35428SOL    HW112247   0.534   5.424   6.053 -0.0038 -1.9081 -1.2368
35428SOL    HW212248   0.390   5.471   6.051  0.6113  0.1623  0.4449
35429SOL     OW12249   7.776  12.036  11.691 -0.2226  0.0413  0.0687
35429SOL    HW112250   7.745  12.064  11.605  0.1370  0.7529  0.1673
35429SOL    HW212251   7.825  12.111  11.725  0.5463 -0.6192  0.4418
35430SOL     OW12252   6.649   1.357   1.064 -0.2290  0.1561  0.1626
35430SOL    HW112253   6.733   1.314   1.075 -0.5828 -0.2964  1.2303
35430SOL    HW212254   6.588   1.285   1.046 -0.5737  0.3581  0.5127
35431SOL     OW12255   0.256   0.124   4.404  0.1121  0.1061 -0.6566
35431SOL    HW112256   0.311   0.147   4.479 -1.2765  1.4604 -0.0097
35431SOL    HW212257   0.310   0.063   4.353  3.2426  3.1694 -1.3914
35432SOL     OW12258   9.799   5.165   9.551  0.3496 -0.0925  0.3145
35432SOL    HW112259   9.741   5.241   9.549  1.4250  0.7313 -0.7515
35432SOL    HW212260   9.803   5.134   9.461  0.3714 -1.0787  0.6414
35433SOL     OW12261  12.275   1.098   5.664 -0.1731 -0.7958 -0.2556
35433SOL    HW112262  12.194   1.146   5.648  0.3518 -0.2521 -1.4128
35433SOL    HW212263  12.342   1.166   5.669  0.0931 -1.1541  1.7326
35434SOL     OW12264   0.485   4.936   3.757  0.1888 -0.2365 -0.3087
35434SOL    HW112265   0.430   4.897   3.690 -0.8092 -0.6286  0.7177
35434SOL    HW212266   0.571   4.946   3.715  0.1037 -2.2097 -1.0526
35435SOL     OW12267   6.545   1.972   1.913 -0.3262 -0.2846  0.0954
35435SOL    HW112268   6.487   2.048   1.914  0.0849  0.0438  0.7806
35435SOL    HW212269   6.633   2.010   1.923 -0.2078 -0.9035  1.6647
35436SOL     OW12270   6.704   1.655   3.728 -0.2296  0.5642 -0.3598
35436SOL    HW112271   6.719   1.746   3.702  2.5192 -0.1669 -1.7072
35436SOL    HW212272   6.676   1.612   3.647 -2.0539  0.2448  0.3877
35437SOL     OW12273  11.601   7.133   7.917  0.1962 -0.2569 -0.2875
35437SOL    HW112274  11.567   7.075   7.850  1.7396 -0.7798 -0.6502
35437SOL    HW212275  11.562   7.219   7.897 -1.2635 -0.9079 -0.3681
35438SOL     OW12276   9.306  10.143  10.499 -0.3396 -0.3331 -0.2758
35438SOL    HW112277   9.293  10.107  10.586  0.6033 -1.1141 -0.4418
35438SOL    HW212278   9.280  10.073  10.439 -0.2641 -0.0797 -0.6126
35439SOL     OW12279   2.738   7.358   7.752 -0.2461 -0.0992 -0.3121
35439SOL    HW112280   2.658   7.385   7.797 -0.2695  0.3817 -0.6313
35439SOL    HW212281   2.772   7.285   7.804 -0.3969  0.2938  0.3496
35440SOL     OW12282   9.865   0.991   2.835  0.0833 -0.0294  0.7186
35440SOL    HW112283   9.892   0.901   2.820 -1.3331 -0.2024 -1.3600
35440SOL    HW212284   9.776   0.984   2.871 -0.0933  0.5096  0.4111
35441SOL     OW12285   6.001   9.472   7.452  0.2428  0.7070  0.0302
35441SOL    HW112286   5.924   9.472   7.509  0.4809  1.0014  0.3553
35441SOL    HW212287   6.063   9.413   7.494  0.6000  1.2843  0.3343
35442SOL     OW12288  11.910   2.601   8.113 -0.2393 -0.4731  0.2216
35442SOL    HW112289  11.973   2.537   8.081 -0.1810 -0.6380  0.6670
35442SOL    HW212290  11.855   2.620   8.037  0.4848 -0.1588 -0.2355
35443SOL     OW12291   5.096   9.544  11.033 -0.3257 -0.2443  0.0393
35443SOL    HW112292   5.071   9.455  11.057  2.2250 -1.3880 -1.1163
35443SOL    HW212293   5.088   9.546  10.937  1.5866  0.0127 -0.1626
35444SOL     OW12294   5.606  10.099  12.218 -0.0820  0.2517  0.1472
35444SOL    HW112295   5.681  10.072  12.272 -0.1777  0.1460  0.2284
35444SOL    HW212296   5.638  10.091  12.128 -0.5645 -1.5457  0.0934
35445SOL     OW12297   2.152   5.481   4.246  0.6678  0.3869 -0.1583
35445SOL    HW112298   2.069   5.460   4.288  1.9891  0.4834  2.7906
35445SOL    HW212299   2.176   5.401   4.199 -1.0773  0.3976 -1.1453
35446SOL     OW12300   4.990  10.791   1.656  0.2324 -0.6976 -0.0654
35446SOL    HW112301   5.047  10.724   1.693  1.0422  0.0918  0.1589
35446SOL    HW212302   4.999  10.781   1.561  1.4921  0.0032 -0.0451
35447SOL     OW12303   0.795   6.565   1.723 -0.0561 -0.3070 -0.1034
35447SOL    HW112304   0.876   6.605   1.690  1.0298 -1.1065  1.4508
35447SOL    HW212305   0.737   6.639   1.740  1.4776  0.5770  1.6038
35448SOL     OW12306   8.148   1.040   6.229  0.2389  0.4736  0.6227
35448SOL    HW112307   8.139   1.053   6.135 -0.2035  0.3396  0.6410
35448SOL    HW212308   8.191   1.119   6.261  4.6156 -1.2693 -0.2837
35449SOL     OW12309   0.970   4.960   5.157  0.0103  0.1107  0.1748
35449SOL    HW112310   0.903   4.893   5.152  0.8856 -0.7501 -0.3040
35449SOL    HW212311   1.004   4.953   5.247  0.0083  0.0029  0.1668
35450SOL     OW12312   0.806   6.758   2.851 -0.1214 -0.0147  0.3700
35450SOL    HW112313   0.773   6.700   2.782  0.4277 -1.0265  0.9400
35450SOL    HW212314   0.741   6.750   2.921  0.5264 -0.8224  0.8898
35451SOL     OW12315   4.448   6.324   4.068  0.1317  0.3089 -0.0139
35451SOL    HW112316   4.386   6.252   4.081  1.7607 -0.8372  2.1914
35451SOL    HW212317   4.394   6.398   4.041 -1.9553 -1.0715  0.1677
35452SOL     OW12318   8.590  11.140   0.024  0.3452  0.0142  0.0696
35452SOL    HW112319   8.680  11.142   0.055  0.5495 -1.0961 -0.4104
35452SOL    HW212320   8.586  11.065  -0.035 -0.6015  0.7381 -0.8343
35453SOL     OW12321   4.131   9.222  11.721  0.2090  0.1989 -0.1721
35453SOL    HW112322   4.124   9.132  11.753  1.6106 -0.0808 -0.5916
35453SOL    HW212323   4.175   9.214  11.637  0.6764  1.2985 -0.0442
35454SOL     OW12324   1.651   4.425   7.896 -0.0644 -0.2692  0.3191
35454SOL    HW112325   1.588   4.364   7.935 -0.3425 -0.3118 -0.1880
35454SOL    HW212326   1.610   4.453   7.815  0.8767 -0.8392 -0.3800
35455SOL     OW12327  10.678   4.506   3.738 -0.2726  0.4279  0.0655
35455SOL    HW112328  10.680   4.474   3.648  0.5605 -0.2328  0.3019
35455SOL    HW212329  10.587   4.534   3.752 -0.7551 -0.7529 -0.5443
35456SOL     OW12330   4.206   7.137   2.546  0.1619  0.1671 -0.1387
35456SOL    HW112331   4.130   7.143   2.488  1.3472  1.4035 -1.6716
35456SOL    HW212332   4.198   7.212   2.604  1.8804  2.4224 -2.5760
35457SOL     OW12333   7.256   1.649   1.603  0.2630  0.6601 -0.0787
35457SOL    HW112334   7.291   1.715   1.543  2.4107 -0.3581 -0.0494
35457SOL    HW212335   7.162   1.645   1.582  0.8705  0.3355 -3.4247
35458SOL     OW12336   0.464  10.401  10.480 -0.0377 -0.0687  0.3673
35458SOL    HW112337   0.402  10.329  10.467  1.9093 -1.9550  1.0369
35458SOL    HW212338   0.528  10.366  10.542  1.5769  1.8947 -0.1124
35459SOL     OW12339  11.283  12.233  10.153 -0.4994  0.4885  0.0330
35459SOL    HW112340  11.204  12.277  10.184 -0.5429  0.2686  0.2344
35459SOL    HW212341  11.270  12.141  10.176 -0.1256  0.4722  0.1887
35460SOL     OW12342   0.640   2.178   5.747 -0.1630 -0.1520  0.1547
35460SOL    HW112343   0.708   2.147   5.687 -0.5152 -2.5115  0.8564
35460SOL    HW212344   0.677   2.255   5.789  1.4321 -0.4538 -0.6375
35461SOL     OW12345   1.385   7.703   9.025 -0.3652  0.5040 -0.1054
35461SOL    HW112346   1.424   7.710   8.938 -0.2763 -0.1641 -0.1186
35461SOL    HW212347   1.457   7.674   9.081 -0.7308 -0.3420 -0.0566
35462SOL     OW12348   3.044   8.722   2.095 -0.8850 -0.4911  0.3180
35462SOL    HW112349   3.084   8.712   2.009 -0.8844  0.7264  0.1512
35462SOL    HW212350   2.956   8.687   2.085 -0.6838 -0.9130 -0.0015
35463SOL     OW12351   3.585   4.849   6.236 -0.1999  0.5152 -0.0404
35463SOL    HW112352   3.622   4.855   6.148 -0.1193 -0.2719 -0.0707
35463SOL    HW212353   3.491   4.843   6.222 -0.1591 -0.0501 -0.1042
35464SOL     OW12354  11.039   1.790   3.490  0.0747 -0.1930  0.0272
35464SOL    HW112355  11.091   1.783   3.571  0.5645  0.6955 -0.2006
35464SOL    HW212356  10.999   1.876   3.494 -0.4664 -0.4230 -0.3506
35465SOL     OW12357   8.749   9.005   7.239 -0.2864 -0.4293  0.3841
35465SOL    HW112358   8.754   8.993   7.334  0.0428  0.0696  0.4352
35465SOL    HW212359   8.674   9.062   7.226 -0.7058 -0.9917  0.2902
35466SOL     OW12360   7.177  11.108   5.912 -0.2184 -0.1947 -0.3715
35466SOL    HW112361   7.220  11.190   5.885 -1.4143 -0.4416 -3.5331
35466SOL    HW212362   7.085  11.133   5.924 -0.3409 -0.8191 -0.0186
35467SOL     OW12363   8.284   5.339   5.527 -0.3308  0.6456 -0.0766
35467SOL    HW112364   8.298   5.314   5.436 -1.4085 -0.9138  0.1440
35467SOL    HW212365   8.247   5.427   5.522 -2.2785 -0.1609 -1.3185
35468SOL     OW12366   4.260   3.948   3.996  0.6401 -0.4579 -0.8050
35468SOL    HW112367   4.187   3.900   4.036 -0.4980  0.9959 -1.0255
35468SOL    HW212368   4.218   4.003   3.929  1.9071  0.6332 -0.7351
35469SOL     OW12369  12.460   8.441   4.896 -0.4174  0.2212  0.3782
35469SOL    HW112370  12.436   8.504   4.828  0.0288  0.3491  0.3311
35469SOL    HW212371  12.485   8.495   4.971  0.5088  0.1289  0.1528
35470SOL     OW12372   3.616   6.304  11.658 -0.2506 -0.3758 -0.4858
35470SOL    HW112373   3.643   6.391  11.687 -2.0151  0.9947 -2.6685
35470SOL    HW212374   3.550   6.277  11.722 -1.2252  0.8513 -0.9382
35471SOL     OW12375   9.411   8.207  11.391  0.2087 -0.8730  0.3224
35471SOL    HW112376   9.464   8.149  11.337  0.1979 -1.6940  1.1558
35471SOL    HW212377   9.347   8.244  11.331  1.9775  0.4981 -0.7905
35472SOL     OW12378   1.112  10.647   8.239 -0.7377  0.3389 -0.1677
35472SOL    HW112379   1.031  10.612   8.275 -1.9189  0.5377 -2.4081
35472SOL    HW212380   1.084  10.722   8.185  0.9221  0.4182 -0.9927
35473SOL     OW12381   6.411   6.557   1.028  0.0947  0.2190  0.2764
35473SOL    HW112382   6.479   6.491   1.014  1.0059  0.6797  2.1624
35473SOL    HW212383   6.372   6.571   0.942  1.0779 -1.4789 -0.4845
35474SOL     OW12384   7.555   7.007   4.739  0.2461  0.7415 -0.6505
35474SOL    HW112385   7.487   6.978   4.678  0.5810 -1.6367  0.0064
35474SOL    HW212386   7.627   7.036   4.683  1.2700 -3.0857 -1.5731
35475SOL     OW12387   0.620   3.265   3.828  0.6372  0.7061 -0.5542
35475SOL    HW112388   0.675   3.289   3.902 -1.0957  1.6344  0.5179
35475SOL    HW212389   0.602   3.172   3.840 -2.3348  1.4211  2.2783
35476SOL     OW12390   7.619   7.316  11.861  0.3356  0.2263 -0.0675
35476SOL    HW112391   7.549   7.345  11.920 -0.8040  1.2322 -1.8347
35476SOL    HW212392   7.698   7.322  11.914 -0.5309  1.8350  1.1622
35477SOL     OW12393   0.230   5.876   6.347  0.3552  0.1852  0.0501
35477SOL    HW112394   0.232   5.836   6.261 -1.1650  1.1694 -0.4915
35477SOL    HW212395   0.195   5.964   6.332  0.8777  0.6799  1.5566
35478SOL     OW12396   2.306   2.560   0.395  0.0162 -0.4329 -0.0570
35478SOL    HW112397   2.397   2.566   0.366  0.1506 -1.0404  0.2132
35478SOL    HW212398   2.282   2.650   0.416  0.0769 -0.0414 -1.5390
35479SOL     OW12399  10.907   6.158   4.652  0.2768 -0.3339  0.1356
35479SOL    HW112400  10.948   6.238   4.683 -1.3257  0.7036 -0.2775
35479SOL    HW212401  10.975   6.113   4.603  1.4245  0.3901  1.0231
35480SOL     OW12402   6.069   6.141  11.006  0.0142  0.6500 -0.2655
35480SOL    HW112403   6.089   6.191  11.085 -1.0114  1.0950 -0.2636
35480SOL    HW212404   6.115   6.188  10.936 -0.0795  0.9837 -0.1071
35481SOL     OW12405  10.655   2.756   2.160 -0.2070 -0.3468  0.1682
35481SOL    HW112406  10.569   2.775   2.198  0.0125  0.0230  0.4903
35481SOL    HW212407  10.649   2.787   2.069 -0.8825 -1.6503 -0.2497
35482SOL     OW12408   0.170   6.553   0.208 -0.2755 -0.2223 -0.3609
35482SOL    HW112409   0.229   6.561   0.134  1.1280 -1.0804  0.6238
35482SOL    HW212410   0.134   6.641   0.220 -0.2062  0.0213 -1.7719
35483SOL     OW12411   7.732   9.113  12.002  0.1991  0.2483 -0.3356
35483SOL    HW112412   7.698   9.064  12.076 -0.1461  1.4413  0.3168
35483SOL    HW212413   7.754   9.046  11.937  0.7325 -0.8364  0.9162
35484SOL     OW12414  11.905  12.313   5.369 -0.2342  0.3189  0.0310
35484SOL    HW112415  11.970  12.248   5.394 -1.9733 -1.3456  0.4914
35484SOL    HW212416  11.919  12.327   5.276 -0.4615 -1.5556 -0.3270
35485SOL     OW12417   7.309   0.693   2.157  0.2226 -0.0374 -0.3364
35485SOL    HW112418   7.301   0.605   2.193 -0.1139  0.4536  0.8403
35485SOL    HW212419   7.219   0.724   2.150  0.3824  0.6676  0.4801
35486SOL     OW12420   5.682   6.695   2.666 -0.3324 -0.1336 -0.0604
35486SOL    HW112421   5.718   6.683   2.578 -1.4734 -1.1539 -0.4078
35486SOL    HW212422   5.719   6.778   2.696 -0.4091  0.5361 -1.7363
35487SOL     OW12423   6.165   1.932   2.828 -0.0048 -0.2598 -0.2766
35487SOL    HW112424   6.134   1.936   2.737  1.8849 -0.9461 -1.0103
35487SOL    HW212425   6.138   1.846   2.859 -0.2335 -0.2161 -0.3517
35488SOL     OW12426   3.268   6.849   6.812  0.4532 -0.6865 -0.0193
35488SOL    HW112427   3.173   6.854   6.824  0.3704  1.4117 -0.9914
35488SOL    HW212428   3.285   6.758   6.788 -1.5020 -0.8435 -1.0269
35489SOL     OW12429   3.548   5.671   6.058 -0.4817 -0.1592 -0.3685
35489SOL    HW112430   3.475   5.717   6.016 -0.0853 -1.1025 -2.1880
35489SOL    HW212431   3.617   5.737   6.066 -0.9539  0.3163 -0.1505
35490SOL     OW12432   3.674   0.286  12.395 -0.7697  0.3353  0.4932
35490SOL    HW112433   3.670   0.234  12.315  1.0417  1.4063 -0.3492
35490SOL    HW212434   3.706   0.371  12.367 -0.5527  0.9008  2.3061
35491SOL     OW12435   7.146   1.703   0.682  0.6148 -0.5750 -1.1942
35491SOL    HW112436   7.107   1.781   0.643 -3.4704 -1.8487 -0.0845
35491SOL    HW212437   7.203   1.737   0.750  0.1205  1.4608 -1.7253
35492SOL     OW12438  11.900   0.717   4.121 -0.1904 -0.2573  0.2491
35492SOL    HW112439  11.979   0.732   4.069 -0.6075  0.3495 -0.2338
35492SOL    HW212440  11.882   0.802   4.161 -2.2047  0.4804 -1.9492
35493SOL     OW12441  12.051  11.403   0.107 -0.3714  0.4814 -0.1066
35493SOL    HW112442  12.137  11.424   0.069 -0.3160 -0.8564 -0.7726
35493SOL    HW212443  12.025  11.484   0.152  1.7267  0.5874  1.0691
35494SOL     OW12444   6.755   4.110   6.819  0.5403 -0.0921  0.2470
35494SOL    HW112445   6.722   4.081   6.904 -0.9883  0.0048 -0.2835
35494SOL    HW212446   6.743   4.205   6.819  1.8164  0.0792  0.4397
35495SOL     OW12447   9.389   1.297   4.919  0.5296  0.1730 -0.9325
35495SOL    HW112448   9.398   1.226   4.855  0.8059 -1.7985  1.1504
35495SOL    HW212449   9.295   1.311   4.926  0.4006 -0.7925 -0.5872
35496SOL     OW12450   9.563  10.145   8.389 -0.0226  0.3713  0.0580
35496SOL    HW112451   9.546  10.235   8.416  0.3660  0.2344  0.7788
35496SOL    HW212452   9.523  10.138   8.302 -0.6402  1.0386  0.2781
35497SOL     OW12453   7.067   2.407   4.824  0.0965 -0.6568 -0.0019
35497SOL    HW112454   7.076   2.362   4.909 -0.5349 -0.6097  0.0988
35497SOL    HW212455   7.046   2.497   4.847 -2.8606 -1.1931 -0.1350
35498SOL     OW12456   0.855   7.634   1.798 -0.8974 -0.3353 -0.3188
35498SOL    HW112457   0.775   7.684   1.787 -0.9312 -0.2922  0.1132
35498SOL    HW212458   0.855   7.608   1.891  0.0742  0.5029 -0.0681
35499SOL     OW12459   8.799  11.279  11.979 -0.4573 -0.3250 -0.0247
35499SOL    HW112460   8.737  11.211  12.006 -1.1623  0.9228  1.5879
35499SOL    HW212461   8.885  11.235  11.980 -1.0827 -1.6245 -0.7113
35500SOL     OW12462   5.098   0.030   9.432 -0.0524 -0.4360  0.0812
35500SOL    HW112463   5.014   0.070   9.456  0.6550  0.5885  0.9453
35500SOL    HW212464   5.105   0.044   9.338 -0.5845  0.0003  0.0971
35501SOL     OW12465  12.001  11.569   9.686  0.2095  0.0214 -0.4577
35501SOL    HW112466  12.023  11.656   9.655 -0.5011  0.1315 -0.6828
35501SOL    HW212467  11.982  11.519   9.607  0.7193 -0.3746 -0.3386
35502SOL     OW12468   4.401   0.507   7.231  0.1357  0.5181 -0.4768
35502SOL    HW112469   4.378   0.469   7.146 -1.0487  0.7493 -0.2799
35502SOL    HW212470   4.487   0.546   7.217  1.1886 -1.7577 -0.8252
35503SOL     OW12471   0.720  11.108   2.677 -0.2894 -0.0668 -0.0439
35503SOL    HW112472   0.654  11.083   2.613  0.0088 -0.1426 -0.3251
35503SOL    HW212473   0.779  11.166   2.629  0.3241 -0.6725 -0.0306
35504SOL     OW12474   7.590   9.053   2.821  0.4029 -0.1289 -0.1565
35504SOL    HW112475   7.501   9.017   2.821  0.4029 -0.3767  2.6942
35504SOL    HW212476   7.577   9.147   2.833  0.4955 -0.2317  0.8383
35505SOL     OW12477  11.702   0.204   1.497 -1.1488  0.1565 -0.0828
35505SOL    HW112478  11.703   0.181   1.404  0.0701  1.0339 -0.3092
35505SOL    HW212479  11.698   0.299   1.498 -2.1848  0.1307  0.8013
35506SOL     OW12480   9.636  12.054   7.422 -0.6766  0.2547 -0.1146
35506SOL    HW112481   9.599  11.995   7.356  0.3655  0.7280 -1.1773
35506SOL    HW212482   9.621  12.010   7.505  1.2811 -2.2564 -0.9489
35507SOL     OW12483   7.354  11.431   4.190 -0.1547 -0.2296  0.4256
35507SOL    HW112484   7.278  11.373   4.190 -0.2191 -0.1994 -0.9798
35507SOL    HW212485   7.417  11.388   4.248 -0.9665 -0.6418  1.0117
35508SOL     OW12486   2.640   1.147   2.216  0.1721 -0.6663  0.6598
35508SOL    HW112487   2.685   1.110   2.140 -0.2218 -1.4998  0.8210
35508SOL    HW212488   2.690   1.118   2.292  0.1081 -0.5093  0.7637
35509SOL     OW12489  10.857   8.981   9.822 -0.2657  0.3270  0.4369
35509SOL    HW112490  10.919   8.967   9.751 -1.2832  1.4603 -0.7118
35509SOL    HW212491  10.893   8.931   9.895 -0.1417 -2.4171 -1.3659
35510SOL     OW12492   0.556   6.360   6.092 -0.3049  0.4428  0.5461
35510SOL    HW112493   0.474   6.390   6.053  1.0218  1.1640 -1.9199
35510SOL    HW212494   0.599   6.440   6.124  0.1769  0.3031  0.2665
35511SOL     OW12495   2.315   2.872   8.122 -1.1702  0.1205  0.1238
35511SOL    HW112496   2.391   2.823   8.088  0.4777  1.8022  1.1718
35511SOL    HW212497   2.257   2.804   8.157 -0.0138 -1.2097 -0.4285
35512SOL     OW12498   7.130   7.256   3.592 -0.3221 -0.0200  0.0665
35512SOL    HW112499   7.066   7.255   3.663  1.5903  1.4302  1.9389
35512SOL    HW212500   7.201   7.201   3.623  1.0898  1.6189 -0.1497
35513SOL     OW12501  11.057   8.759   5.711  0.8050  0.0431  0.0782
35513SOL    HW112502  11.026   8.700   5.780  2.0404  0.4585  1.0131
35513SOL    HW212503  11.045   8.846   5.748 -0.7550  0.4256 -1.1908
35514SOL     OW12504   1.149   8.911   5.727 -0.6680  0.1784  0.2195
35514SOL    HW112505   1.177   8.934   5.816  0.2434  0.0102 -0.0128
35514SOL    HW212506   1.199   8.971   5.671 -0.5471 -0.3346 -0.2252
35515SOL     OW12507   8.511   1.284   0.394  0.4451 -0.0571  0.5031
35515SOL    HW112508   8.444   1.297   0.461 -0.6980 -0.2883 -0.5500
35515SOL    HW212509   8.488   1.201   0.353  1.5189 -0.2484  0.2679
35516SOL     OW12510   8.347   3.010   1.092  0.2856 -0.0507 -0.1309
35516SOL    HW112511   8.258   2.979   1.073  0.9195 -0.9332 -1.9189
35516SOL    HW212512   8.398   2.987   1.014  1.9236  1.1530  0.5109
35517SOL     OW12513   0.980  12.060   6.707  0.3888 -0.2378 -0.3239
35517SOL    HW112514   1.075  12.062   6.713  0.4697  0.0239 -1.4030
35517SOL    HW212515   0.961  11.980   6.658 -0.0001 -0.7437  0.6453
35518SOL     OW12516  11.356  10.493   1.494  0.9257  0.7801 -0.0954
35518SOL    HW112517  11.428  10.522   1.551  1.6337 -0.6804 -0.2057
35518SOL    HW212518  11.294  10.451   1.553  1.8874 -1.1679 -0.4057
35519SOL     OW12519   9.549   0.404   5.771 -0.0517  0.1684 -0.1820
35519SOL    HW112520   9.591   0.488   5.754  1.8919 -0.7958 -0.4556
35519SOL    HW212521   9.522   0.373   5.685 -1.3454  0.7539 -0.0140
35520SOL     OW12522   7.196   5.604   0.112  0.3055 -0.4095 -0.0454
35520SOL    HW112523   7.125   5.588   0.049 -0.3032 -1.1493  0.7916
35520SOL    HW212524   7.151   5.612   0.197  1.1221  0.3569  0.3363
35521SOL     OW12525   6.597   6.538   6.519  0.3189  0.2691 -0.2506
35521SOL    HW112526   6.627   6.452   6.550  0.2846  0.2263 -0.3363
35521SOL    HW212527   6.638   6.601   6.579  0.6466  0.2143 -0.4149
35522SOL     OW12528   5.490   3.386  10.466  0.4646 -0.0388 -0.4472
35522SOL    HW112529   5.565   3.442  10.486  1.2827 -1.3951  0.4952
35522SOL    HW212530   5.529   3.300  10.448 -0.9382 -1.4134  2.4719
35523SOL     OW12531   2.739   2.166   2.494 -0.0070  0.6119  0.1040
35523SOL    HW112532   2.741   2.261   2.501 -2.4882  0.9203 -1.8172
35523SOL    HW212533   2.699   2.137   2.576  0.4746  1.2245  0.5673
35524SOL     OW12534   1.981   0.291  10.904  0.1636 -0.4272 -0.8813
35524SOL    HW112535   1.889   0.285  10.930  0.3927  0.2626  0.1562
35524SOL    HW212536   2.011   0.375  10.940  1.6816 -1.4891  0.5111
35525SOL     OW12537   3.050   4.079   7.921 -0.3578 -0.0711  0.4684
35525SOL    HW112538   3.101   4.068   7.841  0.1752  1.3422  0.5852
35525SOL    HW212539   3.003   4.162   7.909 -0.5455 -0.0131  1.4705
35526SOL     OW12540   7.334   7.593  11.216 -0.1674 -0.8843  0.6193
35526SOL    HW112541   7.324   7.626  11.127 -2.2563  0.5278  1.3043
35526SOL    HW212542   7.420   7.625  11.243 -0.2631  0.2259 -0.2891
35527SOL     OW12543   3.971   8.536   6.690 -0.1331  0.5267  0.2803
35527SOL    HW112544   3.900   8.579   6.737  0.1313  1.3657 -0.0621
35527SOL    HW212545   4.007   8.604   6.633 -0.8732 -0.6209 -1.6578
35528SOL     OW12546   0.079  11.094   6.945  0.0103 -0.4302 -0.0677
35528SOL    HW112547   0.038  11.171   6.985 -2.6629 -1.0599 -1.3143
35528SOL    HW212548   0.132  11.130   6.873 -2.6859  0.3209 -1.8506
35529SOL     OW12549  10.107   1.547   0.680 -0.0256  0.0056  0.2718
35529SOL    HW112550  10.078   1.466   0.638 -1.9504 -0.1472  1.7688
35529SOL    HW212551  10.112   1.526   0.773 -3.9189  2.3359  1.2356
35530SOL     OW12552   6.424   2.261  11.586 -0.0508  0.4506 -0.2024
35530SOL    HW112553   6.425   2.304  11.672 -1.5692  1.2229 -0.5316
35530SOL    HW212554   6.378   2.178  11.601  0.3806  0.2178 -0.1329
35531SOL     OW12555   2.523   6.109   9.364  0.0662  0.3247 -0.3010
35531SOL    HW112556   2.444   6.098   9.311  0.2613 -0.1041 -0.5154
35531SOL    HW212557   2.576   6.172   9.315  1.1353 -1.5412 -1.7196
35532SOL     OW12558   5.510   7.539   6.949 -0.2985  0.1193  0.4703
35532SOL    HW112559   5.582   7.595   6.979 -0.1682 -0.9550  2.2629
35532SOL    HW212560   5.497   7.476   7.019 -1.7946 -0.8606 -0.6225
35533SOL     OW12561  11.615   0.096   3.036 -0.2468  0.0548  0.4570
35533SOL    HW112562  11.598   0.189   3.051  1.8636  0.4923  0.5382
35533SOL    HW212563  11.612   0.087   2.941  0.3167  0.4130  0.3943
35534SOL     OW12564   4.726   8.599   9.559  0.4313 -0.2725 -0.0980
35534SOL    HW112565   4.707   8.510   9.587 -0.2402  0.0345  0.4601
35534SOL    HW212566   4.820   8.608   9.570  0.4968 -0.8972 -0.1127
35535SOL     OW12567   8.280   7.977   3.238  0.2597 -0.5855 -0.2655
35535SOL    HW112568   8.300   7.968   3.145 -3.6074 -0.5739 -1.2732
35535SOL    HW212569   8.284   8.072   3.255  1.6057 -0.6385 -0.1974
35536SOL     OW12570   0.673   6.764   5.731  0.3265  0.0923  0.1284
35536SOL    HW112571   0.636   6.684   5.769 -1.2604  1.9170  2.6651
35536SOL    HW212572   0.750   6.783   5.785 -0.6325  1.4875  1.0469
35537SOL     OW12573   8.402   1.851   0.458  0.1404  0.7135 -0.0150
35537SOL    HW112574   8.491   1.817   0.451 -0.5767 -1.9354  1.8069
35537SOL    HW212575   8.392   1.872   0.551 -1.3631  0.0926 -0.0019
35538SOL     OW12576   2.661   2.794  11.008  0.0795 -0.0490  0.4932
35538SOL    HW112577   2.731   2.732  11.029  2.1562  2.6182  2.1078
35538SOL    HW212578   2.581   2.742  11.010  1.6885 -2.6533  1.7537
35539SOL     OW12579   1.527  11.936   9.476 -0.4859  0.3779  0.0819
35539SOL    HW112580   1.517  12.026   9.507  1.5899  0.4703  0.6815
35539SOL    HW212581   1.551  11.887   9.554  1.3765 -0.0660 -0.7080
35540SOL     OW12582   3.281   1.442   1.233  0.1335 -0.7439  0.0871
35540SOL    HW112583   3.245   1.499   1.166  0.0170 -2.3894 -1.3267
35540SOL    HW212584   3.374   1.432   1.209 -0.0363 -1.7971 -0.2098
35541SOL     OW12585   1.550  11.962  11.710  0.3517 -0.0475 -0.2719
35541SOL    HW112586   1.561  11.923  11.623  1.1241  1.4070 -0.8626
35541SOL    HW212587   1.556  12.056  11.695  0.9847  0.2181  1.4171
35542SOL     OW12588   5.436   5.928   4.638 -0.1226 -0.4921 -0.4549
35542SOL    HW112589   5.440   5.903   4.730  0.7010  0.4258 -0.2275
35542SOL    HW212590   5.506   5.878   4.597  1.5153  1.2958 -0.0025
35543SOL     OW12591   0.731   3.258   5.960  0.3918  0.2888  0.3629
35543SOL    HW112592   0.809   3.241   5.907 -0.5499 -0.8306 -0.7348
35543SOL    HW212593   0.661   3.267   5.896 -0.5858  0.0815  1.3763
35544SOL     OW12594   9.295   9.983   0.836  0.0363 -0.0201 -0.4951
35544SOL    HW112595   9.235   9.920   0.877  0.1824  0.8466  1.1285
35544SOL    HW212596   9.381   9.941   0.840  0.2907  0.5925  1.4032
35545SOL     OW12597   8.999   9.411   2.755 -0.1057 -0.3596  0.1830
35545SOL    HW112598   9.056   9.462   2.698 -0.3885 -0.6532 -0.3793
35545SOL    HW212599   8.929   9.471   2.780 -0.3082 -0.4005 -0.2804
35546SOL     OW12600   3.656   5.412  10.893 -0.2193  0.9961 -0.0996
35546SOL    HW112601   3.642   5.468  10.969  1.4295  1.4739 -0.1220
35546SOL    HW212602   3.717   5.345  10.923  0.0827  0.9167 -0.8753
35547SOL     OW12603   6.472   0.171  10.018 -0.3052  0.8704  0.3220
35547SOL    HW112604   6.557   0.203   9.987  0.0740 -0.0027  0.4491
35547SOL    HW212605   6.468   0.081   9.987 -2.1453  1.5341 -1.6335
35548SOL     OW12606   0.119   0.007   4.664  0.0932 -0.3070  0.4948
35548SOL    HW112607   0.155   0.044   4.584  0.8703  1.8601  1.7620
35548SOL    HW212608   0.025   0.023   4.658 -0.2364 -2.3452 -0.9956
35549SOL     OW12609   8.254  10.970   3.435  0.0477 -0.0996  0.0364
35549SOL    HW112610   8.187  11.028   3.472 -1.2362 -0.2445 -1.9064
35549SOL    HW212611   8.204  10.905   3.386  1.6057  0.1236 -1.9519
35550SOL     OW12612   7.769   0.282   6.505  0.9673 -0.7237  0.4551
35550SOL    HW112613   7.698   0.242   6.456 -1.4188  0.8390  2.3913
35550SOL    HW212614   7.800   0.353   6.450 -1.5554  0.8999  0.9883
35551SOL     OW12615   6.889   4.498   4.605  0.3533  0.0262 -0.5894
35551SOL    HW112616   6.958   4.446   4.644  0.3811  1.9500  2.2610
35551SOL    HW212617   6.932   4.580   4.580 -0.8366  1.3972  1.5599
35552SOL     OW12618   3.975   7.523   1.052 -0.0997 -0.7514 -0.1720
35552SOL    HW112619   3.881   7.539   1.053  0.2548  1.6092 -0.0852
35552SOL    HW212620   4.001   7.525   1.144  0.1039 -0.9571 -0.2240
35553SOL     OW12621   9.982   2.297   5.908 -0.5165  0.1192  0.2477
35553SOL    HW112622   9.927   2.237   5.858 -1.1620 -0.4095  1.5408
35553SOL    HW212623  10.033   2.240   5.966 -0.4385  0.7535  0.8166
35554SOL     OW12624  10.402  11.586   0.319  0.0890  0.1051 -0.1588
35554SOL    HW112625  10.421  11.662   0.374 -1.2227  1.1912 -1.1564
35554SOL    HW212626  10.466  11.520   0.348  0.7585  1.2979  1.2576
35555SOL     OW12627   0.025   2.330   3.964 -0.1542  0.3002  0.3022
35555SOL    HW112628   0.087   2.342   3.892  0.1865  3.2639  0.9504
35555SOL    HW212629  -0.061   2.329   3.922  0.1750 -1.1279 -0.3730
35556SOL     OW12630   1.204   0.160   1.889  0.0261 -0.3977 -0.4401
35556SOL    HW112631   1.292   0.168   1.851  0.0915 -0.7096 -0.3548
35556SOL    HW212632   1.163   0.245   1.873  1.5212  1.0326  2.5131
35557SOL     OW12633   2.662   2.513   9.511 -0.1666 -0.1195 -0.2969
35557SOL    HW112634   2.591   2.455   9.537 -0.0245 -1.0121 -1.7725
35557SOL    HW212635   2.734   2.454   9.488  0.5060  0.7065 -0.3670
35558SOL     OW12636   1.007   5.683   8.222 -0.4001 -0.0126  0.4765
35558SOL    HW112637   1.029   5.593   8.244 -1.0634 -0.3784 -0.2815
35558SOL    HW212638   0.911   5.684   8.218 -0.3639  0.4367 -0.6602
35559SOL     OW12639   1.347   1.945   4.866  0.3854 -0.0782  0.6698
35559SOL    HW112640   1.352   1.931   4.772 -1.1757  0.0134  0.5478
35559SOL    HW212641   1.367   1.860   4.905 -1.1410 -0.6741  0.1769
35560SOL     OW12642  11.726  11.945   8.868 -0.1444 -0.3918  0.1132
35560SOL    HW112643  11.781  11.932   8.790  0.1754 -1.1574  0.4544
35560SOL    HW212644  11.781  11.916   8.940 -0.5103  0.1390  0.6079
35561SOL     OW12645   9.146  11.104   1.734  0.1311  0.3285 -0.0542
35561SOL    HW112646   9.157  11.169   1.665 -0.3398  0.2425 -0.2122
35561SOL    HW212647   9.051  11.092   1.741  0.2090 -0.2928  0.0136
35562SOL     OW12648  10.882   6.231   2.111 -0.4294  0.3066  0.2427
35562SOL    HW112649  10.840   6.238   2.197 -1.6950  0.9845 -0.4052
35562SOL    HW212650  10.974   6.216   2.131 -0.7763 -0.0722  1.7183
35563SOL     OW12651   6.337   5.305   8.225  0.5961 -0.0233  0.0764
35563SOL    HW112652   6.321   5.267   8.138 -1.0026 -0.4168  0.5046
35563SOL    HW212653   6.272   5.263   8.281  1.3508  0.5279  1.3851
35564SOL     OW12654  10.962  10.719  10.252  0.0153  0.5982 -0.2961
35564SOL    HW112655  10.911  10.799  10.257 -2.2600 -0.8008  0.7094
35564SOL    HW212656  10.928  10.673  10.175 -2.0583 -1.3711  1.6159
35565SOL     OW12657   5.793  12.116   7.234  0.2695 -0.4400  0.1289
35565SOL    HW112658   5.774  12.040   7.179  0.7312 -1.1682  0.9511
35565SOL    HW212659   5.813  12.186   7.172 -2.7031 -0.2359 -0.7475
35566SOL     OW12660   5.360   1.283   2.906  0.2282  0.0206  0.1667
35566SOL    HW112661   5.265   1.273   2.908  0.3019 -0.6397  0.9511
35566SOL    HW212662   5.376   1.370   2.941 -0.0502 -0.2001  0.8504
35567SOL     OW12663  11.494   8.720   7.141 -0.1123 -0.1067 -0.3125
35567SOL    HW112664  11.452   8.651   7.090 -0.4506 -0.6768  0.7217
35567SOL    HW212665  11.556   8.673   7.198 -1.8051  0.1884  1.8891
35568SOL     OW12666  10.740  12.235   0.658 -0.7085  0.0318  0.2058
35568SOL    HW112667  10.785  12.195   0.732 -1.0214 -1.4743 -0.3942
35568SOL    HW212668  10.809  12.249   0.593 -0.9854 -1.9150 -0.5616
35569SOL     OW12669   4.571   3.614   7.704  0.1271  0.5705 -0.2466
35569SOL    HW112670   4.536   3.666   7.632 -0.2082 -0.4708 -0.8448
35569SOL    HW212671   4.551   3.524   7.682 -0.3882  0.2498  1.3669
35570SOL     OW12672   3.905   4.682  11.513 -0.0415  0.1922 -0.6404
35570SOL    HW112673   3.943   4.731  11.586  1.1336  2.1342 -2.4392
35570SOL    HW212674   3.970   4.614  11.493  0.2283  0.4501 -0.6484
35571SOL     OW12675  10.080   6.593   4.790  0.1444  0.4041 -0.6124
35571SOL    HW112676  10.114   6.519   4.740  1.6498 -0.1734  1.1548
35571SOL    HW212677  10.074   6.561   4.880 -1.9480  1.5746 -0.2805
35572SOL     OW12678   0.758  11.876   6.329  0.2214  0.2483 -0.0937
35572SOL    HW112679   0.817  11.888   6.255 -1.3928  1.2858 -1.2926
35572SOL    HW212680   0.687  11.938   6.313 -0.8511 -0.4550  1.6347
35573SOL     OW12681   0.295   8.805   5.466 -0.0830  0.0020  0.7017
35573SOL    HW112682   0.383   8.832   5.490  0.0790  1.6788 -1.4864
35573SOL    HW212683   0.262   8.760   5.543  2.7942 -1.0137  1.4756
35574SOL     OW12684   9.177   3.349   7.988  0.2425  0.2977  0.0183
35574SOL    HW112685   9.100   3.378   7.939 -0.1045 -0.2247  0.2482
35574SOL    HW212686   9.250   3.360   7.928 -0.2049 -0.5363 -0.6835
35575SOL     OW12687  10.103  10.114   2.305 -0.0750 -0.6785  0.7710
35575SOL    HW112688  10.009  10.099   2.309  0.1119 -2.5556 -0.4287
35575SOL    HW212689  10.125  10.107   2.212  1.2647 -0.3276  1.0283
35576SOL     OW12690   3.727   8.267   1.700 -0.5926  0.2909 -0.0403
35576SOL    HW112691   3.715   8.320   1.778  0.6963  0.8671 -0.1984
35576SOL    HW212692   3.775   8.190   1.730 -0.7262  0.1704 -0.1384
35577SOL     OW12693  11.174   4.095   1.581 -0.2724  0.2692  0.6878
35577SOL    HW112694  11.129   4.064   1.660 -1.3863 -1.5393 -0.5853
35577SOL    HW212695  11.115   4.161   1.544 -0.3970  0.1463  0.6655
35578SOL     OW12696   6.558   2.950   1.022 -0.2301 -0.0003  0.6001
35578SOL    HW112697   6.553   3.013   0.950 -1.5047  1.6101  2.0286
35578SOL    HW212698   6.479   2.897   1.014  1.0913 -1.8877 -0.9150
35579SOL     OW12699   9.930   6.063   4.816 -0.0753  0.1882 -0.1159
35579SOL    HW112700   9.866   5.999   4.847 -1.8028  2.1267  0.4846
35579SOL    HW212701   9.999   6.063   4.883 -0.4033 -0.5137  0.2324
35580SOL     OW12702   9.758   4.171   3.295  0.3105 -0.3807 -0.3598
35580SOL    HW112703   9.834   4.114   3.310  0.4583  0.5499  3.7411
35580SOL    HW212704   9.795   4.250   3.254  1.2751 -0.6405 -0.0229
35581SOL     OW12705   9.844  11.712   7.692 -0.2499 -0.0830 -0.3680
35581SOL    HW112706   9.821  11.804   7.687 -1.8331 -0.5160 -2.8992
35581SOL    HW212707   9.797  11.679   7.768  1.7048  1.4556  1.6203
35582SOL     OW12708  11.334   9.018   1.733 -0.3129  0.5408 -0.0353
35582SOL    HW112709  11.425   9.003   1.759 -1.0832 -0.4584  2.3311
35582SOL    HW212710  11.308   8.938   1.688 -0.2978  0.4600  0.1008
35583SOL     OW12711  11.775   0.369   5.114 -0.0939 -0.1635 -0.6979
35583SOL    HW112712  11.796   0.282   5.148 -0.1257  0.6452  1.5170
35583SOL    HW212713  11.680   0.369   5.103 -0.1079 -0.3607 -0.5662
35584SOL     OW12714   2.390   2.236   8.701 -0.0514  0.5421 -0.5056
35584SOL    HW112715   2.342   2.202   8.776 -1.1253  1.6542 -0.6539
35584SOL    HW212716   2.471   2.185   8.699 -0.3555 -0.0458  0.9236
35585SOL     OW12717   5.191   9.322   6.677 -0.3405 -0.0324  0.1170
35585SOL    HW112718   5.230   9.407   6.697 -0.9629  0.2970 -0.0518
35585SOL    HW212719   5.192   9.318   6.581  0.3115 -0.5138  0.1362
35586SOL     OW12720   4.755   1.411   3.064  0.0157 -0.4186 -0.0691
35586SOL    HW112721   4.848   1.432   3.072 -0.1516 -0.1479  1.3250
35586SOL    HW212722   4.713   1.459   3.135 -1.0995 -1.1304 -0.2260
35587SOL     OW12723   4.437   0.977   2.250 -0.2312 -0.2051  0.3506
35587SOL    HW112724   4.463   0.973   2.158  3.0204 -1.1707  1.1786
35587SOL    HW212725   4.499   1.039   2.289  0.0657 -1.6194  2.2855
35588SOL     OW12726  11.767   8.413   5.172 -0.3570 -0.4103 -0.6854
35588SOL    HW112727  11.854   8.373   5.164  0.0331 -0.8567  3.5039
35588SOL    HW212728  11.783   8.507   5.164  0.9963 -0.3180  2.0866
35589SOL     OW12729   5.544   9.350   9.188  0.6281 -0.0339  0.2981
35589SOL    HW112730   5.577   9.440   9.184 -1.9468  1.2367  3.3699
35589SOL    HW212731   5.471   9.350   9.126  1.1760 -0.3280 -0.3626
35590SOL     OW12732   5.789   1.753   7.785  0.0872 -0.5774 -0.3200
35590SOL    HW112733   5.881   1.726   7.793 -0.0083 -1.3266 -1.4981
35590SOL    HW212734   5.740   1.681   7.827  0.0270 -0.1151  0.4270
35591SOL     OW12735   7.364   1.718   5.327  0.2690 -0.0446 -0.5174
35591SOL    HW112736   7.351   1.786   5.260 -1.1769 -1.0036 -1.2424
35591SOL    HW212737   7.453   1.735   5.360  0.4633  1.3497 -1.6356
35592SOL     OW12738   0.003   9.871  10.926 -0.3430  0.5554 -0.3775
35592SOL    HW112739  -0.071   9.848  10.982  0.7582 -2.4207  0.0366
35592SOL    HW212740  -0.027   9.851  10.837  0.5399 -2.6942 -0.0350
35593SOL     OW12741  11.431   4.578   3.228  0.2734 -0.2464 -0.1096
35593SOL    HW112742  11.346   4.537   3.212  0.1098 -0.3268  0.9278
35593SOL    HW212743  11.432   4.654   3.170 -0.4905 -0.2698 -0.1632
35594SOL     OW12744  11.784   8.389  11.984 -0.4943  0.2903 -1.0128
35594SOL    HW112745  11.725   8.314  11.980  0.1404 -0.3537  0.7669
35594SOL    HW212746  11.832   8.378  12.066  2.3578  0.5868 -2.5273
35595SOL     OW12747  12.379   1.753   9.437 -0.0052  0.3438 -0.1308
35595SOL    HW112748  12.359   1.833   9.389 -0.9102  0.5652  0.5883
35595SOL    HW212749  12.327   1.760   9.517 -0.6798 -1.3174 -0.3942
35596SOL     OW12750   1.084   4.559  11.381  0.4373  0.4071  0.5384
35596SOL    HW112751   1.090   4.469  11.349 -1.5512  0.6399 -0.7053
35596SOL    HW212752   1.053   4.551  11.471 -0.8000 -0.1574  0.0820
35597SOL     OW12753   3.850   3.322   3.474  0.7655 -0.1397 -0.2297
35597SOL    HW112754   3.772   3.351   3.425  0.2130 -0.9184  0.1744
35597SOL    HW212755   3.918   3.383   3.447  0.4442 -0.4512 -1.8877
35598SOL     OW12756   3.662   5.610   8.690  0.1836  0.1204 -0.1269
35598SOL    HW112757   3.697   5.554   8.759  0.0579 -1.0102 -0.9543
35598SOL    HW212758   3.569   5.618   8.711  0.5736  1.8375  1.1924
35599SOL     OW12759   8.662   7.621   8.797  0.2384 -0.3582  0.4958
35599SOL    HW112760   8.739   7.580   8.836  0.2731 -1.6021 -0.8087
35599SOL    HW212761   8.679   7.620   8.703 -1.0420  0.0407  0.2400
35600SOL     OW12762   7.192   4.140   0.468 -0.1967  0.0479 -0.2387
35600SOL    HW112763   7.237   4.139   0.383 -1.4350  0.4507 -0.9282
35600SOL    HW212764   7.124   4.207   0.458 -0.1475  0.3400  1.1956
35601SOL     OW12765   9.540  10.544   4.668 -0.3273 -0.3064  0.1004
35601SOL    HW112766   9.562  10.525   4.577 -0.7584  1.5763 -0.4420
35601SOL    HW212767   9.613  10.598   4.700 -0.0234 -1.2172  0.9769
35602SOL     OW12768   7.523   6.575   9.122  0.2900 -0.7269 -0.2517
35602SOL    HW112769   7.601   6.551   9.072  1.5717 -1.0215  1.7626
35602SOL    HW212770   7.525   6.517   9.198 -2.0042 -0.8421 -0.1997
35603SOL     OW12771   7.793   2.648  10.645  0.9052 -0.1212 -0.1657
35603SOL    HW112772   7.864   2.710  10.662  0.8505 -0.3837  1.1899
35603SOL    HW212773   7.716   2.703  10.634  0.8588  0.0873  1.0112
35604SOL     OW12774  10.611   1.831   7.799  0.5241  0.0330  0.3627
35604SOL    HW112775  10.522   1.795   7.793  0.7699 -0.4360 -0.9296
35604SOL    HW212776  10.598   1.926   7.794  0.0237  0.0410  1.5092
35605SOL     OW12777   1.864   5.797   8.617  0.0814 -0.3182 -0.3340
35605SOL    HW112778   1.931   5.765   8.678 -0.7466  2.8142  2.5554
35605SOL    HW212779   1.782   5.759   8.650 -0.2636  0.6884  0.0070
35606SOL     OW12780   8.278   3.173   7.701  0.0084 -0.3699 -0.1658
35606SOL    HW112781   8.223   3.160   7.623 -1.6436  1.2717  0.6453
35606SOL    HW212782   8.294   3.267   7.704 -1.8888 -0.0111  2.6303
35607SOL     OW12783   2.189   3.707   3.943  0.7567 -0.0993  0.8193
35607SOL    HW112784   2.265   3.703   4.000 -0.0152  0.9893  1.9571
35607SOL    HW212785   2.150   3.792   3.960 -1.0552 -0.8668  0.7003
35608SOL     OW12786  11.964  10.589   8.781 -0.1579  0.4974  0.1703
35608SOL    HW112787  11.991  10.547   8.700  1.0685  0.2840  0.6739
35608SOL    HW212788  11.932  10.675   8.753 -0.6785  0.0607 -0.6300
35609SOL     OW12789   6.579   0.189   5.222 -0.2137 -0.4563 -0.1929
35609SOL    HW112790   6.579   0.263   5.162  0.3798 -0.2972  0.0056
35609SOL    HW212791   6.670   0.161   5.228 -0.6619 -2.6358 -2.0189
35610SOL     OW12792   8.210  12.040   0.564  0.3842 -0.2933 -0.1208
35610SOL    HW112793   8.144  12.038   0.495  0.1064  2.1198  0.0112
35610SOL    HW212794   8.252  12.125   0.556  1.3387 -0.5110  1.8024
35611SOL     OW12795   1.216   6.404   4.876 -0.2085  0.0891 -0.7700
35611SOL    HW112796   1.132   6.375   4.911  0.2387 -1.4337 -0.8931
35611SOL    HW212797   1.231   6.488   4.918  0.1046 -1.4239  2.4091
35612SOL     OW12798   5.587   5.284  11.172  0.2925 -0.1796 -0.3446
35612SOL    HW112799   5.585   5.362  11.117  0.4072 -0.1058 -0.2428
35612SOL    HW212800   5.497   5.251  11.170  0.3005 -0.1882 -0.5915
35613SOL     OW12801   3.643   3.599   0.648 -0.2173  0.4068 -0.2387
35613SOL    HW112802   3.672   3.652   0.574  0.8055 -0.5555 -0.5438
35613SOL    HW212803   3.634   3.662   0.720 -0.0405  1.1544 -0.8540
35614SOL     OW12804   1.189   4.782   6.710 -0.2916  0.3433 -0.9367
35614SOL    HW112805   1.111   4.827   6.679 -0.9760 -0.3207 -0.2416
35614SOL    HW212806   1.173   4.690   6.689  1.1176  0.3921 -2.4156
35615SOL     OW12807   0.083   4.233   2.093 -0.3615  0.6863 -0.5192
35615SOL    HW112808   0.107   4.162   2.152 -0.4507  0.0060 -1.2933
35615SOL    HW212809   0.085   4.312   2.149  0.3642  0.1794  0.1953
35616SOL     OW12810   4.380   1.292   7.316 -0.1293  0.2574 -0.4875
35616SOL    HW112811   4.359   1.360   7.252  0.7452 -0.1001 -1.1785
35616SOL    HW212812   4.299   1.240   7.325 -0.7355  1.2468 -0.1045
35617SOL     OW12813  12.071   0.633  11.314  0.0842  0.4062  0.1183
35617SOL    HW112814  12.165   0.649  11.304  0.2746  0.3414  1.6469
35617SOL    HW212815  12.044   0.691  11.385 -0.5874 -1.0470  1.1078
35618SOL     OW12816   6.754   4.433   7.561 -0.2502 -0.6970  0.2769
35618SOL    HW112817   6.693   4.385   7.505 -1.9911  1.2655  0.3711
35618SOL    HW212818   6.706   4.512   7.586  2.4815  1.1637  0.0524
35619SOL     OW12819   4.994   1.098   0.957 -0.2337 -0.3450 -0.1877
35619SOL    HW112820   4.985   1.183   0.913  1.3878 -0.2339 -0.3889
35619SOL    HW212821   5.061   1.053   0.906  1.1349 -0.5273  1.6825
35620SOL     OW12822   0.009   4.462   3.004 -0.5274 -0.1420 -0.1849
35620SOL    HW112823  -0.067   4.440   3.059 -0.0899 -0.0663  0.4667
35620SOL    HW212824   0.079   4.479   3.067  0.3832 -1.4795 -0.7991
35621SOL     OW12825   8.968   8.458   6.186  0.1405 -0.6962 -0.7631
35621SOL    HW112826   9.046   8.405   6.172  0.3578 -0.8714  0.8926
35621SOL    HW212827   8.904   8.424   6.123  0.9031 -1.5759 -1.0904
35622SOL     OW12828   1.494  10.218   2.210  0.0934  0.9085 -0.3812
35622SOL    HW112829   1.476  10.257   2.296 -1.1816  0.6988 -0.5299
35622SOL    HW212830   1.564  10.155   2.227  0.7119  1.7437  0.2602
35623SOL     OW12831   5.705   5.566   5.837 -0.1586 -0.1116 -0.7654
35623SOL    HW112832   5.699   5.617   5.757 -1.6975 -0.0794 -0.6521
35623SOL    HW212833   5.618   5.571   5.876  0.4531 -0.4248  0.7323
35624SOL     OW12834  12.370   8.562   2.204  0.2935  0.4625 -0.1077
35624SOL    HW112835  12.292   8.587   2.253  1.5009  2.5449  0.8742
35624SOL    HW212836  12.355   8.595   2.115 -0.1170  0.4541 -0.0430
35625SOL     OW12837   1.732   9.644  12.080 -0.1864  0.5015  0.1186
35625SOL    HW112838   1.790   9.624  12.154 -0.2742  2.5021  0.7751
35625SOL    HW212839   1.661   9.580  12.087  0.4574 -0.1408  1.0028
35626SOL     OW12840   2.944   4.292   4.327  0.6429  0.2105  0.2957
35626SOL    HW112841   2.927   4.376   4.284  0.3244  0.1209  0.2476
35626SOL    HW212842   3.034   4.270   4.302  0.3767  0.0379 -0.5209
35627SOL     OW12843   7.387  12.396   6.279 -0.4638  0.1954  0.4918
35627SOL    HW112844   7.448  12.342   6.230 -0.2728 -1.0213  2.0127
35627SOL    HW212845   7.425  12.484   6.276  1.0749 -0.4249  0.8965
35628SOL     OW12846   4.132   6.550   6.577  0.4784  0.0411  0.1190
35628SOL    HW112847   4.152   6.484   6.642  0.6404 -0.5292 -0.4967
35628SOL    HW212848   4.038   6.540   6.560  0.7611 -0.9616 -0.9614
35629SOL     OW12849   4.572   7.162   8.307 -0.5202 -0.1761 -0.1966
35629SOL    HW112850   4.666   7.150   8.319 -0.2917  1.0015 -0.6236
35629SOL    HW212851   4.565   7.235   8.245 -1.6843 -1.8603 -2.1722
35630SOL     OW12852   9.006   6.149   6.753  0.7188 -0.3528 -0.3193
35630SOL    HW112853   9.022   6.165   6.661  1.6540 -1.5101 -0.3862
35630SOL    HW212854   8.992   6.236   6.791 -0.2155  0.0926 -1.6208
35631SOL     OW12855   8.303   4.064   2.685  0.0263  0.6656  0.1682
35631SOL    HW112856   8.356   4.103   2.616 -0.1349  0.4031 -0.1047
35631SOL    HW212857   8.271   4.139   2.735 -0.6660  0.9162 -0.6339
35632SOL     OW12858   9.363   7.669   9.125  0.2496  0.3722 -0.0651
35632SOL    HW112859   9.298   7.600   9.133  0.3420  0.2091 -0.6917
35632SOL    HW212860   9.356   7.718   9.207  2.3085 -2.1984  1.8348
35633SOL     OW12861  12.465   0.056   4.377  0.4342  0.0542  0.5309
35633SOL    HW112862  12.559   0.060   4.393  0.8694 -0.8395 -1.4860
35633SOL    HW212863  12.443   0.142   4.339  0.5466  0.0355  0.4255
35634SOL     OW12864   2.401  10.668   3.334  0.0389 -0.3692 -0.7070
35634SOL    HW112865   2.313  10.659   3.372  1.2255 -1.7624  1.9434
35634SOL    HW212866   2.399  10.610   3.258 -1.5557  0.2456 -1.1813
35635SOL     OW12867   0.012   9.063   0.696  0.6049  0.1273 -0.1217
35635SOL    HW112868   0.059   8.991   0.654 -0.2310  0.5197 -1.8266
35635SOL    HW212869  -0.010   9.123   0.624  0.1808  1.4632  1.0738
35636SOL     OW12870   6.008   8.414   5.211 -0.1799  0.7628  0.6844
35636SOL    HW112871   5.959   8.332   5.206 -1.3094  1.3962  0.8338
35636SOL    HW212872   5.948   8.474   5.257  0.2151  1.9376 -0.2947
35637SOL     OW12873   5.624   4.666   7.496  0.2010 -0.5271  0.3169
35637SOL    HW112874   5.533   4.636   7.496 -0.3561  1.0185 -0.6166
35637SOL    HW212875   5.647   4.674   7.403  0.9932 -0.0429  0.5417
35638SOL     OW12876   6.045   5.874   5.199 -0.3180 -0.3027  0.6096
35638SOL    HW112877   6.064   5.820   5.123 -2.1106  1.1759 -0.9881
35638SOL    HW212878   6.129   5.881   5.245  1.2286  0.0298 -2.0996
35639SOL     OW12879  10.209  12.401   6.885 -0.2263  0.6414  0.2842
35639SOL    HW112880  10.283  12.461   6.886 -0.3939  0.8516  0.3946
35639SOL    HW212881  10.194  12.384   6.792 -0.0107  0.5621  0.2647
35640SOL     OW12882   6.108   9.754   8.448  0.5893 -0.3008  0.8071
35640SOL    HW112883   6.090   9.812   8.374 -1.6205 -1.9476 -0.0555
35640SOL    HW212884   6.187   9.706   8.422  1.4556  1.0693  0.8012
35641SOL     OW12885  10.900  12.038   6.842  0.5268 -0.1227  0.0899
35641SOL    HW112886  10.891  12.133   6.847  0.8569 -0.0580 -0.4174
35641SOL    HW212887  10.833  12.004   6.900  0.2963  0.4212  0.1458
35642SOL     OW12888   5.120   5.324   9.111  0.4728  0.2728  0.1016
35642SOL    HW112889   5.214   5.322   9.131  0.2000 -0.8430  1.3471
35642SOL    HW212890   5.081   5.374   9.182 -0.1627 -1.4545  1.0425
35643SOL     OW12891   4.751   9.877   9.686  0.5816  0.1238  0.3502
35643SOL    HW112892   4.663   9.848   9.708  1.1954 -1.6240  0.6978
35643SOL    HW212893   4.741   9.970   9.664 -0.8409  0.8294  3.4092
35644SOL     OW12894   4.701   9.059   5.034 -0.2288  0.1717  0.4494
35644SOL    HW112895   4.752   9.068   4.953 -2.1195  0.6175 -0.7505
35644SOL    HW212896   4.690   9.149   5.064  1.3092 -0.0551  1.7998
35645SOL     OW12897   9.609   2.635   1.650  0.0126 -0.1945  0.2324
35645SOL    HW112898   9.619   2.623   1.745 -0.8932 -0.5266  0.2993
35645SOL    HW212899   9.514   2.633   1.636  0.0356  1.5840 -0.4612
35646SOL     OW12900   1.331   6.804  10.728 -0.1932 -0.6065  0.7916
35646SOL    HW112901   1.295   6.820  10.641  0.0224 -0.2422  0.7642
35646SOL    HW212902   1.425   6.797  10.714 -0.0774  0.1965  1.0811
35647SOL     OW12903   2.415   3.693  10.165 -0.5242  0.0852  0.4595
35647SOL    HW112904   2.462   3.768  10.200  0.4309 -0.7946  1.1149
35647SOL    HW212905   2.427   3.698  10.070 -1.4017  1.3573  0.4033
35648SOL     OW12906   0.947   0.449   7.217  0.2572 -0.4211  0.0646
35648SOL    HW112907   0.926   0.466   7.125  0.3316 -0.0769  0.1100
35648SOL    HW212908   1.043   0.453   7.220  0.5216 -3.7171 -0.4950
35649SOL     OW12909   1.821   9.944   0.760  0.4876 -0.2567 -0.5804
35649SOL    HW112910   1.846  10.024   0.714  0.8261  0.1620  0.3134
35649SOL    HW212911   1.769   9.974   0.835  0.8586 -0.8522 -0.0754
35650SOL     OW12912  10.170   4.725  11.827  0.1500  0.2062  0.3528
35650SOL    HW112913  10.113   4.765  11.761 -0.1916 -0.4948  0.2177
35650SOL    HW212914  10.200   4.643  11.786 -0.9177 -0.7759  1.4687
35651SOL     OW12915   6.807   3.825   4.834 -0.7573  0.0006 -0.4681
35651SOL    HW112916   6.811   3.911   4.876 -1.9005 -0.9860  1.8772
35651SOL    HW212917   6.877   3.826   4.770  0.2298  2.1605  0.5444
35652SOL     OW12918   2.470   5.513   2.778  0.0466 -0.1160  0.2747
35652SOL    HW112919   2.400   5.535   2.715 -0.2570  0.2815  0.7389
35652SOL    HW212920   2.474   5.418   2.778  0.4942 -0.1099 -0.8267
35653SOL     OW12921   3.560   4.142   7.210  0.2292  0.5525  0.2784
35653SOL    HW112922   3.498   4.120   7.279 -0.4365  1.5989  0.0369
35653SOL    HW212923   3.598   4.225   7.237  0.7255  0.4550 -0.1094
35654SOL     OW12924  11.973   0.075   7.396  0.0902 -0.3505 -0.2701
35654SOL    HW112925  11.901   0.039   7.447  0.9835 -1.5898  0.1631
35654SOL    HW212926  12.051   0.030   7.429  1.3083  2.0468  0.3736
35655SOL     OW12927   6.257   0.847   7.599  0.2021  0.8083  0.0308
35655SOL    HW112928   6.346   0.857   7.565 -0.2768 -0.4988 -1.7879
35655SOL    HW212929   6.267   0.800   7.681  1.0908 -2.3627 -1.7196
35656SOL     OW12930  12.088   1.935   2.789  0.2252  0.0653 -0.1003
35656SOL    HW112931  12.043   1.898   2.865 -0.3823 -0.6287 -0.7924
35656SOL    HW212932  12.159   1.874   2.771  1.0297  0.7774  0.5347
35657SOL     OW12933   2.019  12.066   3.760 -0.0998  0.1629  0.1382
35657SOL    HW112934   1.974  12.046   3.842  0.5941 -0.3433  0.4008
35657SOL    HW212935   1.958  12.035   3.692 -1.6539  2.5245  0.3462
35658SOL     OW12936   9.677   0.335  10.621  0.1902  0.0839  0.0452
35658SOL    HW112937   9.634   0.420  10.629 -0.0859  0.2073 -2.0988
35658SOL    HW212938   9.769   0.357  10.605 -0.0422  0.0754 -1.5115
35659SOL     OW12939   6.172   4.440   8.486  0.4633  0.3857 -0.3078
35659SOL    HW112940   6.106   4.509   8.477  0.3609  0.4047  0.5379
35659SOL    HW212941   6.129   4.372   8.538  0.5543 -0.3312 -1.1504
35660SOL     OW12942   4.082   5.770   4.965  0.7909  0.3170  0.1124
35660SOL    HW112943   4.017   5.823   4.921 -1.0295 -3.2906 -2.0283
35660SOL    HW212944   4.037   5.735   5.042  1.0182 -0.2150  0.0130
35661SOL     OW12945   6.008   7.972   7.841  0.0929 -0.0831 -0.0696
35661SOL    HW112946   6.071   7.912   7.880 -1.3295  0.2622  3.0761
35661SOL    HW212947   5.943   7.915   7.799 -0.9548 -0.8430  2.4229
35662SOL     OW12948  10.101   2.656  12.338 -0.3127 -0.0599 -0.4304
35662SOL    HW112949  10.139   2.569  12.321  0.1142  0.2930 -1.3455
35662SOL    HW212950  10.151   2.715  12.282 -2.9347  0.2883 -2.6424
35663SOL     OW12951  11.758   1.178  10.983 -0.3381  0.3757 -0.0892
35663SOL    HW112952  11.851   1.169  10.966 -0.3797  0.2216 -0.2277
35663SOL    HW212953  11.716   1.117  10.923 -0.4404 -0.7317  1.0813
35664SOL     OW12954   4.200   2.784  11.488  0.1724 -0.6264 -0.0165
35664SOL    HW112955   4.141   2.815  11.419  0.6582  0.1341 -0.1002
35664SOL    HW212956   4.202   2.856  11.552  0.7023 -0.8101  0.1762
35665SOL     OW12957   5.744   0.319   9.362 -0.5189  0.3975  0.8828
35665SOL    HW112958   5.696   0.341   9.283 -0.2625  0.9631  0.8806
35665SOL    HW212959   5.721   0.228   9.379 -1.1448  0.4906  0.5695
35666SOL     OW12960   4.704  11.577   4.072  0.1676 -0.7565  0.4938
35666SOL    HW112961   4.701  11.654   4.015  0.8157 -1.7477 -0.9497
35666SOL    HW212962   4.797  11.556   4.080  0.0356 -1.0472  1.3531
35667SOL     OW12963   6.658   4.293   8.730  0.1285 -0.2533 -0.0555
35667SOL    HW112964   6.579   4.328   8.689 -0.9175 -1.4617  0.8774
35667SOL    HW212965   6.704   4.371   8.764 -0.1300  0.5415 -1.4619
35668SOL     OW12966   9.763   5.504   4.465 -0.2588 -0.4624 -0.1653
35668SOL    HW112967   9.740   5.411   4.454 -1.6487 -0.1740  0.1057
35668SOL    HW212968   9.846   5.514   4.419  0.5730 -2.1234  0.8790
35669SOL     OW12969   8.132   5.278   1.714  0.1421  0.4909 -0.0568
35669SOL    HW112970   8.094   5.236   1.791  1.2730  1.8688  1.3307
35669SOL    HW212971   8.063   5.337   1.683 -0.5794 -0.5941 -0.5607
35670SOL     OW12972  12.163   9.987   3.107 -0.1913 -0.3769  0.3587
35670SOL    HW112973  12.180   9.952   3.019 -0.4291  2.3335 -0.8641
35670SOL    HW212974  12.213   9.931   3.165  1.8786 -0.8718 -1.7529
35671SOL     OW12975   4.118  12.015   6.091  0.2779 -0.2611  0.3035
35671SOL    HW112976   4.022  12.012   6.101  0.2402  0.9081  0.3730
35671SOL    HW212977   4.133  12.080   6.023  1.0084 -0.9104 -0.1732
35672SOL     OW12978   8.883   6.244   8.685  0.1256  0.3813  0.3529
35672SOL    HW112979   8.898   6.261   8.592  1.3315 -1.4520  0.1459
35672SOL    HW212980   8.970   6.250   8.725 -0.1810 -0.1220  1.1237
35673SOL     OW12981   0.638   0.732   5.187 -0.4011  0.0278  0.5721
35673SOL    HW112982   0.621   0.659   5.128 -0.6423  0.2622  0.3474
35673SOL    HW212983   0.568   0.795   5.168  0.5161  0.8772 -0.1494
35674SOL     OW12984   7.206   5.277   9.498  0.3458  0.2806 -0.1789
35674SOL    HW112985   7.287   5.226   9.505  1.6982  2.3103 -0.3300
35674SOL    HW212986   7.225   5.359   9.543 -2.2173  0.2004  1.2307
35675SOL     OW12987   1.447   1.876   1.045  0.1280 -0.0120 -0.2993
35675SOL    HW112988   1.513   1.945   1.039 -0.4520  0.5333 -0.4675
35675SOL    HW212989   1.493   1.802   1.086  0.4043  0.9081  1.1285
35676SOL     OW12990   9.452  10.698   5.497 -0.0112 -0.8354 -0.0623
35676SOL    HW112991   9.390  10.750   5.445 -0.2771 -0.1804  0.8915
35676SOL    HW212992   9.537  10.741   5.484  0.2289 -1.6223 -1.2205
35677SOL     OW12993  12.188  11.130   2.577  0.2996 -0.4439 -0.4536
35677SOL    HW112994  12.116  11.166   2.629 -1.0341  0.4870 -2.7927
35677SOL    HW212995  12.174  11.035   2.581  1.0579 -0.5309  1.8982
35678SOL     OW12996  11.708  11.063   8.494 -0.2222 -0.2061 -0.5365
35678SOL    HW112997  11.739  11.070   8.584 -0.5514  0.0961 -0.4465
35678SOL    HW212998  11.787  11.074   8.441  0.0720 -0.9874 -0.2775
35679SOL     OW12999   0.803   6.850   9.527  0.1869  0.1815  0.2976
35679SOL    HW113000   0.812   6.761   9.561  0.3661 -0.5532 -1.5859
35679SOL    HW213001   0.890   6.871   9.493 -0.6873 -0.3878 -2.5722
35680SOL     OW13002   2.798   3.061   9.398 -0.4014  0.1681  0.0668
35680SOL    HW113003   2.774   2.970   9.417 -0.7712 -0.1516 -1.7459
35680SOL    HW213004   2.718   3.111   9.410 -0.1943  0.2853  1.0810
35681SOL     OW13005   5.809   0.545   5.799 -0.3957  0.0932 -0.1525
35681SOL    HW113006   5.798   0.589   5.715 -0.9379 -0.8955 -0.6163
35681SOL    HW213007   5.903   0.548   5.816 -0.3127  0.5073 -0.6763
35682SOL     OW13008   0.657   6.396   2.966  0.3087 -0.0704 -0.1102
35682SOL    HW113009   0.574   6.443   2.975 -0.0872 -0.5833 -0.9119
35682SOL    HW213010   0.710   6.427   3.039 -0.9209 -0.4335  0.9878
35683SOL     OW13011   9.549  11.398   3.145  0.5892  0.0664 -1.0813
35683SOL    HW113012   9.485  11.421   3.213 -0.0763 -0.8850 -1.3585
35683SOL    HW213013   9.603  11.476   3.135  1.0027  0.0649  0.8651
35684SOL     OW13014   3.510  11.346   9.659  0.5233 -0.0994  0.2738
35684SOL    HW113015   3.521  11.329   9.753  0.2937  0.0672  0.3319
35684SOL    HW213016   3.416  11.335   9.644 -0.4371  4.7692  1.0847
35685SOL     OW13017  10.416  10.210   4.173 -0.5059  0.3265 -0.4215
35685SOL    HW113018  10.391  10.121   4.198  1.3401  0.0898  0.7071
35685SOL    HW213019  10.454  10.201   4.085  0.5272 -0.1581  0.0680
35686SOL     OW13020   9.473   1.291  10.330 -0.0318 -0.1017  0.1619
35686SOL    HW113021   9.464   1.326  10.241 -0.8573 -0.7755 -0.0240
35686SOL    HW213022   9.513   1.363  10.379 -1.8628  1.1977 -0.1689
35687SOL     OW13023   2.050   3.591   3.054 -0.3760 -0.2878  0.6993
35687SOL    HW113024   2.068   3.685   3.053  0.2890 -0.3214 -2.9064
35687SOL    HW213025   1.957   3.584   3.075 -1.0991  1.4575 -1.5021
35688SOL     OW13026  10.320   8.586  11.626 -0.6638  0.5798  0.8368
35688SOL    HW113027  10.227   8.593  11.605 -0.8390 -1.0520  0.9449
35688SOL    HW213028  10.323   8.524  11.699  0.5510  0.0989  0.3983
35689SOL     OW13029   2.957   0.807   3.654 -0.2432  0.1369 -0.4372
35689SOL    HW113030   2.971   0.896   3.621 -0.3830  0.3251  0.0119
35689SOL    HW213031   2.894   0.817   3.725  1.3114 -0.0385  1.0400
35690SOL     OW13032   9.644   4.173   6.959  0.1121 -0.2290 -0.2428
35690SOL    HW113033   9.556   4.143   6.979  0.0130  0.0107 -0.3107
35690SOL    HW213034   9.648   4.176   6.864  0.5646 -1.3068 -0.2703
35691SOL     OW13035  12.318   9.257   0.559  0.2722  0.3406 -0.1654
35691SOL    HW113036  12.276   9.183   0.603  0.3973 -1.0757 -2.3052
35691SOL    HW213037  12.316   9.235   0.466  3.5930  1.2934 -0.6089
35692SOL     OW13038   1.244   6.117   5.952 -0.3640 -0.2365 -0.3669
35692SOL    HW113039   1.174   6.169   5.911 -2.3083 -2.0963  0.4334
35692SOL    HW213040   1.323   6.168   5.936 -1.8802  2.0210 -1.2597
35693SOL     OW13041   0.901  10.488   4.730 -0.0788 -0.4572 -0.1903
35693SOL    HW113042   0.985  10.446   4.711  0.5528  0.5017  0.3858
35693SOL    HW213043   0.869  10.443   4.808  1.4007  1.1429  1.4472
35694SOL     OW13044   5.107   2.661   7.802 -0.0033 -0.6394  0.2833
35694SOL    HW113045   5.191   2.668   7.756 -0.7655 -1.7983 -1.3995
35694SOL    HW213046   5.128   2.618   7.885  1.0378 -1.1266 -0.2089
35695SOL     OW13047   4.467   0.480   2.128 -0.2652 -0.0186 -0.0378
35695SOL    HW113048   4.393   0.540   2.119  0.7452  1.0712 -1.4075
35695SOL    HW213049   4.465   0.454   2.221 -2.7563 -0.6108 -0.1769
35696SOL     OW13050   3.889   8.734   4.311  0.0428 -1.1469 -0.1285
35696SOL    HW113051   3.910   8.645   4.339  2.9363 -0.8774 -1.0452
35696SOL    HW213052   3.856   8.724   4.222 -0.5658 -1.3504  0.1146
35697SOL     OW13053   1.895   3.782   1.365 -0.6595 -0.0127  0.1459
35697SOL    HW113054   1.832   3.828   1.422 -0.8685 -1.2539  0.9647
35697SOL    HW213055   1.974   3.835   1.370 -0.7654  0.0776  1.3850
35698SOL     OW13056  11.208   4.127   6.694 -0.2326 -0.0768 -0.4919
35698SOL    HW113057  11.221   4.207   6.642 -0.1049  1.9445  2.3926
35698SOL    HW213058  11.296   4.093   6.708 -0.1277  0.2435 -0.3532
35699SOL     OW13059  10.910   8.816  12.280 -0.1695  0.3166 -0.7150
35699SOL    HW113060  10.865   8.798  12.363 -0.7502  0.7849 -0.9162
35699SOL    HW213061  11.000   8.835  12.305 -0.6076  1.7097 -0.0334
35700SOL     OW13062   1.366   0.860   2.403 -0.5945  0.1619  0.3094
35700SOL    HW113063   1.403   0.849   2.491 -1.8163  0.6359  0.9070
35700SOL    HW213064   1.281   0.901   2.418 -0.9701 -0.0616 -1.0807
35701SOL     OW13065  11.705   1.401   7.073 -0.3811 -0.2369  0.1902
35701SOL    HW113066  11.785   1.440   7.110 -0.8872  0.4075  0.6270
35701SOL    HW213067  11.637   1.467   7.087 -1.0700 -0.9182  0.1400
35702SOL     OW13068  10.727   6.080  11.856  0.5537  0.0144 -0.1603
35702SOL    HW113069  10.696   6.047  11.771  2.9402 -0.8747 -0.7674
35702SOL    HW213070  10.816   6.108  11.839  0.8478  0.4780  1.9365
35703SOL     OW13071   4.138   9.211   2.541 -0.3460  0.0184 -0.3003
35703SOL    HW113072   4.229   9.183   2.531  0.6937  2.5086  1.1152
35703SOL    HW213073   4.110   9.172   2.624 -0.0198  0.4742  0.0312
35704SOL     OW13074   9.383  11.126  10.514 -0.1763 -0.2832  0.0415
35704SOL    HW113075   9.292  11.112  10.489  0.2096 -1.3862 -0.8753
35704SOL    HW213076   9.433  11.091  10.440  0.9968 -0.3114  0.8223
35705SOL     OW13077  10.725   9.667   1.877  0.6490 -0.4861 -0.3017
35705SOL    HW113078  10.744   9.719   1.800  0.4849 -1.2190 -0.8537
35705SOL    HW213079  10.810   9.630   1.902  1.4881  2.6923  2.1617
35706SOL     OW13080   4.775   6.615   8.294 -0.0712  0.2225 -0.4918
35706SOL    HW113081   4.731   6.697   8.317  0.8785  0.8339 -0.7564
35706SOL    HW213082   4.868   6.632   8.312 -0.0633 -1.5588  1.5824
35707SOL     OW13083   8.799   4.862  10.887  0.2124  0.0234  0.0637
35707SOL    HW113084   8.810   4.956  10.902 -1.2499  0.3197 -0.5427
35707SOL    HW213085   8.714   4.841  10.927  0.3516 -0.9682 -0.1248
35708SOL     OW13086   2.892   5.829   1.899  0.0750 -0.4820 -0.2353
35708SOL    HW113087   2.958   5.782   1.949  1.0459  1.5411  0.4980
35708SOL    HW213088   2.913   5.921   1.912 -2.6530  0.2579 -0.2829
35709SOL     OW13089   1.572   6.146   9.672  0.1714 -0.0821  0.1039
35709SOL    HW113090   1.588   6.073   9.613 -0.2138 -1.0374  1.1377
35709SOL    HW213091   1.646   6.144   9.733 -0.2060 -0.0644  0.5714
35710SOL     OW13092   5.124   9.806  11.647  0.5959  1.3623 -0.6715
35710SOL    HW113093   5.184   9.880  11.638  0.8649  1.2630  0.1825
35710SOL    HW213094   5.124   9.787  11.741 -0.0294  0.7412 -0.7906
35711SOL     OW13095   8.101  11.340   5.543 -0.8365 -0.0649  0.1607
35711SOL    HW113096   8.097  11.248   5.569  0.2063 -0.3936 -0.7866
35711SOL    HW213097   8.171  11.377   5.596  0.5922 -0.4933 -1.3363
35712SOL     OW13098   9.775   4.653   5.510 -0.7273 -0.3851  0.3544
35712SOL    HW113099   9.811   4.615   5.591 -1.5838 -0.2227  0.8144
35712SOL    HW213100   9.712   4.588   5.479 -1.0034 -0.0763  0.2650
35713SOL     OW13101   2.412   6.728   7.162 -0.3228 -0.2749 -0.3172
35713SOL    HW113102   2.466   6.652   7.182 -0.0339 -0.2196 -0.8636
35713SOL    HW213103   2.325   6.704   7.192  0.2260  0.1237  1.7634
35714SOL     OW13104  12.109   6.521   2.210 -0.4616  0.3542  0.1833
35714SOL    HW113105  12.064   6.437   2.206 -0.8512  0.4725  1.6302
35714SOL    HW213106  12.197   6.503   2.178 -0.2015 -0.8611  1.5219
35715SOL     OW13107   1.880   4.231  10.790 -0.1453 -0.5645 -0.1734
35715SOL    HW113108   1.881   4.165  10.859  0.5298 -1.4841 -1.0257
35715SOL    HW213109   1.882   4.180  10.708  1.4844  0.4984 -0.8583
35716SOL     OW13110   3.654   4.610   0.175 -0.7057 -0.1042  0.1780
35716SOL    HW113111   3.673   4.603   0.269 -1.9020  0.5564  0.4922
35716SOL    HW213112   3.693   4.531   0.137 -0.0991 -0.3236  1.2054
35717SOL     OW13113  10.641  10.655   4.730 -0.4082 -0.4586 -0.8303
35717SOL    HW113114  10.610  10.655   4.820 -0.9639  0.0822 -1.0165
35717SOL    HW213115  10.734  10.632   4.737 -0.4663 -0.5039 -0.1339
35718SOL     OW13116   4.383   7.810  12.368  0.0907 -0.8097 -0.2635
35718SOL    HW113117   4.467   7.837  12.331 -2.3488  1.7462 -4.7441
35718SOL    HW213118   4.389   7.714  12.372  3.5308 -0.7000  0.8878
35719SOL     OW13119  12.422   1.228  12.136  0.1061  0.0631 -0.3229
35719SOL    HW113120  12.512   1.247  12.161 -0.1430  2.5012 -1.0449
35719SOL    HW213121  12.408   1.278  12.055 -1.7116 -0.7163 -0.5446
35720SOL     OW13122   9.373   2.137   8.463 -0.4615  0.1386  0.1112
35720SOL    HW113123   9.424   2.079   8.407 -0.1433  0.4338  0.0915
35720SOL    HW213124   9.283   2.105   8.455 -0.3111 -0.2542 -0.0171
35721SOL     OW13125   8.600   6.652   0.231 -0.6684 -0.3763 -0.2796
35721SOL    HW113126   8.507   6.675   0.233 -0.4583  0.5583 -0.7983
35721SOL    HW213127   8.600   6.556   0.238 -1.8071 -0.6208 -2.5558
35722SOL     OW13128   6.401   8.597  10.796  0.7572 -0.1427  0.3534
35722SOL    HW113129   6.423   8.687  10.769 -1.2281  1.5054  3.6257
35722SOL    HW213130   6.459   8.579  10.870  0.8694 -1.4554 -0.0263
35723SOL     OW13131   2.720   0.021   4.459 -1.1399  0.1511 -0.2517
35723SOL    HW113132   2.706   0.015   4.553 -0.4449 -0.2192 -0.1658
35723SOL    HW213133   2.759  -0.064   4.435 -0.8190  0.4411 -0.7825
35724SOL     OW13134   7.956   6.320   8.840 -0.4054 -0.2178  0.3421
35724SOL    HW113135   8.000   6.308   8.924 -1.0486 -0.7254  0.6088
35724SOL    HW213136   8.014   6.379   8.791 -0.3464  0.6171  1.3822
35725SOL     OW13137   3.881   4.860   9.829  0.2741 -0.3937 -0.0152
35725SOL    HW113138   3.838   4.779   9.803  0.2163 -0.5550  0.5621
35725SOL    HW213139   3.814   4.908   9.878 -0.2738  0.8363 -1.8909
35726SOL     OW13140   7.568   4.596   7.647  0.2405  0.1824 -0.0372
35726SOL    HW113141   7.655   4.627   7.670  0.0139 -0.3802  1.6797
35726SOL    HW213142   7.573   4.501   7.652 -0.3657  0.1220 -0.3819
35727SOL     OW13143   5.221   0.178   0.945  0.0014 -0.0485 -0.5723
35727SOL    HW113144   5.157   0.118   0.984  1.6226 -1.3993  0.0915
35727SOL    HW213145   5.192   0.265   0.973 -0.9200 -0.7078  0.6099
35728SOL     OW13146   5.144   2.265  12.234  0.2496  0.2742  0.5980
35728SOL    HW113147   5.163   2.260  12.141 -0.2825 -1.0199  0.5294
35728SOL    HW213148   5.061   2.218  12.244  0.0241  0.8600  1.6454
35729SOL     OW13149   3.858   9.235  11.612 -0.0980  0.1348  0.7018
35729SOL    HW113150   3.949   9.244  11.639 -0.1386  1.7785  0.3840
35729SOL    HW213151   3.862   9.202  11.522  0.1986  0.7455  0.4918
35730SOL     OW13152   1.846   0.108   9.703 -0.2321  0.3106  0.0053
35730SOL    HW113153   1.776   0.163   9.668 -0.3785  0.4181  0.4665
35730SOL    HW213154   1.858   0.040   9.637 -2.7411 -1.3926  1.1642
35731SOL     OW13155   6.099  11.400   8.364  0.3370 -0.2467 -0.0143
35731SOL    HW113156   6.109  11.344   8.441 -0.6302  0.7436  0.8608
35731SOL    HW213157   6.010  11.383   8.333  0.2319  0.3804 -0.0742
35732SOL     OW13158  11.449   1.832   7.755  0.2243 -0.0509 -0.0938
35732SOL    HW113159  11.361   1.800   7.777  0.6070 -1.4632 -0.4628
35732SOL    HW213160  11.454   1.822   7.660  1.7030 -2.6518  0.1619
35733SOL     OW13161   6.604   1.326   6.832 -0.7703  0.2801  0.3532
35733SOL    HW113162   6.693   1.323   6.795  0.2990 -0.6782  2.7796
35733SOL    HW213163   6.593   1.416   6.860  0.0777  0.0963  1.3607
35734SOL     OW13164   4.256  10.292   3.647 -0.2523 -1.0037  0.0228
35734SOL    HW113165   4.164  10.292   3.622 -0.3546 -0.1879  0.3671
35734SOL    HW213166   4.254  10.299   3.743  0.1631 -0.8533  0.0212
35735SOL     OW13167   2.083  10.416   1.840  0.4365  0.7255 -0.0821
35735SOL    HW113168   2.117  10.404   1.929 -0.0854 -0.4854 -0.0307
35735SOL    HW213169   2.009  10.476   1.851 -0.9695 -1.0627  0.6415
35736SOL     OW13170   7.683   0.118   5.335  0.7191  0.2295 -0.0690
35736SOL    HW113171   7.721   0.037   5.301 -0.6930 -0.4677 -0.0822
35736SOL    HW213172   7.621   0.145   5.267  1.4003  1.5001 -0.1979
35737SOL     OW13173   1.479   6.764   5.778 -0.3791 -0.2573  0.3106
35737SOL    HW113174   1.465   6.786   5.686 -0.8592 -0.5325  0.3147
35737SOL    HW213175   1.484   6.849   5.823 -1.4975 -0.1304  0.2219
35738SOL     OW13176   0.211   2.114  10.145  0.3690  0.3902 -0.2501
35738SOL    HW113177   0.147   2.111  10.216  0.8417 -0.2234  0.1509
35738SOL    HW213178   0.206   2.204  10.113 -0.1281  0.5652  0.2996
35739SOL     OW13179   2.854   4.643   3.483 -0.0821 -0.2980  0.0923
35739SOL    HW113180   2.829   4.735   3.483  1.7642  0.2599  1.2418
35739SOL    HW213181   2.771   4.595   3.484 -1.1027  1.2871 -2.1902
35740SOL     OW13182   5.847   4.569   9.751  0.4840 -0.2893 -0.2642
35740SOL    HW113183   5.913   4.569   9.682  1.0614  0.2728  0.2761
35740SOL    HW213184   5.819   4.478   9.757  1.4726 -0.6072 -0.2626
35741SOL     OW13185  12.408   5.277   6.427 -0.4465 -0.4124  0.1697
35741SOL    HW113186  12.320   5.305   6.400 -0.5404 -0.2911  0.6037
35741SOL    HW213187  12.400   5.182   6.435 -1.0882 -0.2331  2.1411
35742SOL     OW13188   9.342   4.709  12.454  0.0276  0.3112 -0.8790
35742SOL    HW113189   9.404   4.752  12.395 -2.0014  1.3723 -2.3625
35742SOL    HW213190   9.337   4.766  12.530  0.0717  0.7937 -1.2306
35743SOL     OW13191   4.393   7.097  12.402 -0.4573  0.3827  0.1561
35743SOL    HW113192   4.463   7.105  12.467  1.8625 -0.9587 -2.0176
35743SOL    HW213193   4.387   7.003  12.384 -0.8967  0.7122 -1.6556
35744SOL     OW13194   4.208  12.149   0.951 -0.2029 -0.5373 -0.2491
35744SOL    HW113195   4.294  12.155   0.909 -0.2168 -3.5927 -0.9591
35744SOL    HW213196   4.149  12.196   0.891  0.6526 -0.0436 -0.7276
35745SOL     OW13197   7.556   5.661   6.825  0.1611  0.0782 -0.5141
35745SOL    HW113198   7.550   5.605   6.902  1.6375  0.1795 -0.3066
35745SOL    HW213199   7.620   5.617   6.769 -0.3655  0.3811 -1.3724
35746SOL     OW13200   5.718   1.758   0.040 -0.2678  0.0508  0.1725
35746SOL    HW113201   5.723   1.849   0.011 -2.6368  0.7064  1.5951
35746SOL    HW213202   5.667   1.714  -0.028 -1.7700  0.5135  0.9761
35747SOL     OW13203   3.079   4.834   3.888 -0.0800 -0.0362 -0.2147
35747SOL    HW113204   3.069   4.780   3.966  0.2002 -1.5755 -1.2118
35747SOL    HW213205   3.139   4.904   3.915 -2.4035  1.3461  1.8322
35748SOL     OW13206   9.254   4.745   3.073 -0.0463  0.2395 -0.1533
35748SOL    HW113207   9.245   4.835   3.042 -0.3953  0.2065 -0.1483
35748SOL    HW213208   9.208   4.744   3.157  0.0372  0.0800 -0.1094
35749SOL     OW13209   5.104   9.408  12.010 -0.0669 -0.2304  0.4378
35749SOL    HW113210   5.122   9.499  11.985 -0.8233 -0.2476 -0.1999
35749SOL    HW213211   5.157   9.394  12.088  1.0194  0.3779 -0.1621
35750SOL     OW13212   7.688   1.820  10.006  0.1016 -0.0629 -0.2376
35750SOL    HW113213   7.769   1.776  10.033  1.5862  2.2188 -0.6739
35750SOL    HW213214   7.618   1.759  10.029  1.7135 -0.9256  2.8547
35751SOL     OW13215   3.544  11.984  11.015  0.2642 -0.0861 -0.1558
35751SOL    HW113216   3.520  12.037  11.091 -1.3215  0.0068 -0.6870
35751SOL    HW213217   3.583  11.905  11.053  1.2304  0.7648  0.6807
35752SOL     OW13218  11.375   9.017  10.452 -0.0855 -0.0254  0.2080
35752SOL    HW113219  11.424   8.938  10.430  1.6352  1.0456  0.0081
35752SOL    HW213220  11.378   9.020  10.548 -1.2522 -0.8267  0.2970
35753SOL     OW13221  10.550   5.893   1.569  0.2468 -0.2386 -0.5044
35753SOL    HW113222  10.477   5.950   1.590  1.4863  0.4656  2.5101
35753SOL    HW213223  10.528   5.810   1.611 -0.5111 -1.3706 -2.9463
35754SOL     OW13224   9.683   9.937   0.707 -0.2338 -0.2945  0.8703
35754SOL    HW113225   9.683  10.030   0.729 -0.4774 -0.6620  2.6392
35754SOL    HW213226   9.741   9.930   0.632  1.1976  1.0641  1.7881
35755SOL     OW13227   5.147   0.467   2.605 -0.1737  0.3364 -0.2951
35755SOL    HW113228   5.192   0.462   2.520  0.2785  0.3201 -0.0597
35755SOL    HW213229   5.061   0.428   2.589  0.4067 -0.9453 -0.4271
35756SOL     OW13230   2.791   5.355  11.903 -0.2674  0.2690 -0.1833
35756SOL    HW113231   2.831   5.433  11.864  0.5015  0.6111  1.2125
35756SOL    HW213232   2.857   5.286  11.891 -0.0332  0.3715  0.4425
35757SOL     OW13233   7.680   3.394   8.860 -0.4131 -0.0633  0.0156
35757SOL    HW113234   7.765   3.406   8.819  1.1272 -0.9482  2.7315
35757SOL    HW213235   7.640   3.481   8.859  1.2679  0.7401  0.1867
35758SOL     OW13236   2.915   5.108   2.446  0.0815  0.2387  0.0003
35758SOL    HW113237   2.836   5.139   2.489 -1.0908 -1.1919 -1.0231
35758SOL    HW213238   2.941   5.031   2.497  0.6922  0.5509  0.1769
35759SOL     OW13239   8.337   0.461   1.210 -0.4310  0.5019 -0.0307
35759SOL    HW113240   8.269   0.522   1.238 -0.2420  0.5299  0.3653
35759SOL    HW213241   8.354   0.407   1.287 -1.9170 -1.2962 -0.8891
35760SOL     OW13242   4.708   2.192  10.000  0.5914 -0.6613  1.1330
35760SOL    HW113243   4.765   2.117   9.984  0.1391 -1.0123  1.1588
35760SOL    HW213244   4.645   2.162  10.065  0.0633 -0.4445  0.7364
35761SOL     OW13245   3.635   2.498  10.751 -0.4604 -0.0022  0.2800
35761SOL    HW113246   3.661   2.512  10.660 -0.4192 -0.5613  0.2002
35761SOL    HW213247   3.571   2.567  10.769  0.3170  0.7671  0.1606
35762SOL     OW13248   8.970   5.343   0.982  0.0141 -0.4954  0.2783
35762SOL    HW113249   8.915   5.415   1.013 -1.3098 -2.1250  1.8452
35762SOL    HW213250   8.982   5.286   1.058  3.0050 -0.7943 -0.2897
35763SOL     OW13251   2.774  12.018   6.924  0.1848 -0.2423 -0.5633
35763SOL    HW113252   2.712  12.000   6.995 -1.6934  1.6979 -1.5902
35763SOL    HW213253   2.726  12.075   6.865  2.1353 -0.7422 -2.7670
35764SOL     OW13254   1.477   6.150  11.254  0.6246  0.5884 -0.3964
35764SOL    HW113255   1.561   6.175  11.216  1.0389  0.5128  0.4258
35764SOL    HW213256   1.449   6.228  11.302 -0.0999  0.8300 -1.1905
35765SOL     OW13257   4.756   1.930  10.911 -0.0970 -0.5331  0.2659
35765SOL    HW113258   4.696   1.972  10.850 -0.9653 -1.7198  0.2601
35765SOL    HW213259   4.794   2.002  10.961 -0.8760  0.3120 -0.3280
35766SOL     OW13260   3.339  10.341   7.043  0.4777 -0.4734  0.0904
35766SOL    HW113261   3.343  10.314   6.952  0.0534 -1.5304  0.3740
35766SOL    HW213262   3.387  10.273   7.091  0.6107  0.0143  0.6658
35767SOL     OW13263   6.409   0.062  12.168  0.4159 -0.3208 -0.0047
35767SOL    HW113264   6.460  -0.015  12.194 -1.8800 -1.4424  1.5014
35767SOL    HW213265   6.324   0.050  12.211 -2.0959  0.1108 -4.2604
35768SOL     OW13266   5.236   6.748   2.265  0.0062 -0.0731 -0.6145
35768SOL    HW113267   5.325   6.772   2.239  0.0389 -1.7806 -2.3231
35768SOL    HW213268   5.181   6.816   2.228  0.4147 -0.3455 -1.7563
35769SOL     OW13269  10.015   4.522   8.989 -0.4350  0.1291  0.3437
35769SOL    HW113270   9.936   4.570   9.013 -1.4387  0.8311 -3.6335
35769SOL    HW213271  10.004   4.502   8.896  2.7753 -2.3913  0.3195
35770SOL     OW13272   8.832   2.961   8.070  0.0964 -0.0964 -0.4729
35770SOL    HW113273   8.878   2.949   7.987 -1.1420  0.6118 -1.2799
35770SOL    HW213274   8.827   3.056   8.081 -1.6451 -0.1449 -0.6846
35771SOL     OW13275  10.552   7.890   2.264  0.0492 -0.1980 -0.1421
35771SOL    HW113276  10.592   7.909   2.179 -0.6274  1.2626 -0.1672
35771SOL    HW213277  10.595   7.950   2.325 -1.4452  0.7975 -0.0082
35772SOL     OW13278  12.289   6.910  11.948  0.3366  0.2770  0.0871
35772SOL    HW113279  12.372   6.958  11.942  0.8448 -0.5302  0.3610
35772SOL    HW213280  12.254   6.934  12.034  0.5784  0.1898  0.2129
35773SOL     OW13281   4.980   5.888   8.663 -0.6448 -0.5472 -0.4220
35773SOL    HW113282   4.897   5.919   8.701  0.2974  1.1995  0.2947
35773SOL    HW213283   5.028   5.852   8.737  0.4142  1.1199 -0.2640
35774SOL     OW13284  10.054   8.083   2.793  0.1300  0.7669  0.3212
35774SOL    HW113285  10.061   7.988   2.788  1.8325  0.8668  0.4428
35774SOL    HW213286   9.960   8.099   2.808  0.0441 -0.9664  2.1168
35775SOL     OW13287  11.209  11.576   9.978 -0.0595 -0.2448 -0.2909
35775SOL    HW113288  11.231  11.648   9.919 -0.8084 -0.3826 -0.7557
35775SOL    HW213289  11.257  11.500   9.944  0.5846 -0.0233  0.0918
35776SOL     OW13290   3.470   0.446   0.446 -0.0623  0.6241  0.4946
35776SOL    HW113291   3.474   0.405   0.532 -0.5556  0.2408  0.3442
35776SOL    HW213292   3.539   0.404   0.396  0.2139  0.8343  0.6947
35777SOL     OW13293   7.365   6.520  10.358  0.5127 -0.1524 -0.3725
35777SOL    HW113294   7.402   6.565  10.434 -0.5969 -1.0767  0.7518
35777SOL    HW213295   7.274   6.500  10.383  0.4527 -1.4586 -1.4944
35778SOL     OW13296   6.037   1.881   0.388  0.2632 -0.1429  0.4497
35778SOL    HW113297   6.042   1.833   0.305  0.1245  1.7477 -0.7091
35778SOL    HW213298   5.995   1.820   0.448 -1.6715 -0.8531 -1.4701
35779SOL     OW13299   9.406   9.877   3.842 -0.4114 -0.2081  0.2470
35779SOL    HW113300   9.470   9.810   3.821 -1.5643 -0.6767 -2.1248
35779SOL    HW213301   9.346   9.878   3.767 -0.7416  3.1404  0.3920
35780SOL     OW13302   7.463   3.562   0.017  0.5252  0.0109 -0.2943
35780SOL    HW113303   7.501   3.508   0.085  0.7478 -0.6863 -0.9578
35780SOL    HW213304   7.537   3.586  -0.039  0.2755  0.1749 -0.5606
35781SOL     OW13305  11.149   6.162   4.115  0.0063  0.6843  0.3378
35781SOL    HW113306  11.218   6.148   4.050 -0.6571 -0.2872 -0.1805
35781SOL    HW213307  11.108   6.245   4.089 -0.0228  0.4858 -0.2727
35782SOL     OW13308   9.806   1.500   9.104 -0.1787 -0.1568  0.0494
35782SOL    HW113309   9.842   1.454   9.028 -0.6293  0.0718 -0.3067
35782SOL    HW213310   9.721   1.533   9.074 -0.5235 -0.3821  0.7679
35783SOL     OW13311   6.245   6.516   0.359  0.3099  0.3708 -0.8051
35783SOL    HW113312   6.329   6.471   0.348 -0.3123 -0.9721 -0.2799
35783SOL    HW213313   6.202   6.470   0.431 -0.9127  0.9828 -1.1164
35784SOL     OW13314   5.880   5.805  11.516  0.4005 -0.1350  0.2379
35784SOL    HW113315   5.975   5.793  11.519  0.4962  0.5547  0.2255
35784SOL    HW213316   5.854   5.776  11.428  0.6186 -0.1971  0.1946
35785SOL     OW13317   6.058   2.077   9.924  0.4237  0.5035 -0.0048
35785SOL    HW113318   5.978   2.055   9.971 -0.3658  0.3303 -1.3818
35785SOL    HW213319   6.108   1.996   9.922  0.7104  0.6434  0.9681
35786SOL     OW13320   9.910   7.652   9.987 -0.2675 -0.0772 -0.0694
35786SOL    HW113321   9.878   7.742   9.990  0.0889  0.0708 -0.7218
35786SOL    HW213322   9.830   7.599   9.993 -0.8020  0.2896 -2.7922
35787SOL     OW13323   5.577   9.073  10.636 -0.5643 -0.8856  0.1982
35787SOL    HW113324   5.530   9.026  10.704  1.0255 -2.9226  0.0076
35787SOL    HW213325   5.591   9.008  10.567  1.0142  0.0949 -0.4685
35788SOL     OW13326   8.358   3.217   6.762 -0.3918 -0.3938 -0.5531
35788SOL    HW113327   8.272   3.217   6.805  0.8511  1.5710  2.2286
35788SOL    HW213328   8.373   3.126   6.737 -2.7222 -0.9866  0.0142
35789SOL     OW13329  11.196   8.906  12.154 -0.3809  0.7058 -0.4807
35789SOL    HW113330  11.183   8.811  12.153 -2.0157  0.8474  1.3003
35789SOL    HW213331  11.277   8.920  12.106 -0.1779 -1.5733 -0.9056
35790SOL     OW13332   2.328  10.557  12.376  0.0212  0.0483  0.0788
35790SOL    HW113333   2.235  10.548  12.396 -0.4709 -0.2747 -2.0986
35790SOL    HW213334   2.371  10.496  12.435 -1.1980 -0.1941  0.7488
35791SOL     OW13335   3.580   9.870   7.940 -0.3181 -0.7707  0.0549
35791SOL    HW113336   3.638   9.797   7.918  0.2258 -0.2137 -0.4082
35791SOL    HW213337   3.514   9.869   7.871 -0.1829 -0.7058 -0.0791
35792SOL     OW13338   6.998  10.754   5.632 -0.1784 -0.0106 -0.2818
35792SOL    HW113339   7.069  10.818   5.634 -0.0717 -0.1367  0.0482
35792SOL    HW213340   7.017  10.695   5.705 -0.7918  0.1347 -0.0020
35793SOL     OW13341   5.547  11.656   2.777 -0.2718 -0.2189  0.5334
35793SOL    HW113342   5.501  11.599   2.839 -1.0723  0.9443  1.0351
35793SOL    HW213343   5.636  11.620   2.775 -1.1851 -2.6870 -0.6738
35794SOL     OW13344  12.274   1.561   5.038  0.5223  0.5313  0.0028
35794SOL    HW113345  12.280   1.626   4.969  1.0212  0.4387 -0.0386
35794SOL    HW213346  12.344   1.583   5.099  0.7015  0.0207 -0.0169
35795SOL     OW13347   1.676   2.892   4.412  0.0194  0.6419 -0.1059
35795SOL    HW113348   1.760   2.932   4.390  0.5406  0.7275  1.7915
35795SOL    HW213349   1.674   2.810   4.363  1.4788  0.3755  0.2361
35796SOL     OW13350  10.045   4.016   2.979  0.6581 -0.1513 -0.1678
35796SOL    HW113351  10.138   4.013   2.956  0.4401 -1.4375 -1.0185
35796SOL    HW213352  10.008   3.939   2.936 -0.6650 -0.0754  0.7885
35797SOL     OW13353  11.912  11.598   4.386 -0.0580  0.3060  0.5671
35797SOL    HW113354  11.917  11.619   4.293 -1.3603  0.8152  0.5894
35797SOL    HW213355  11.998  11.563   4.408 -0.2989 -1.5434 -1.2337
35798SOL     OW13356   8.512   0.495  11.720  0.2960  0.1685  0.7609
35798SOL    HW113357   8.589   0.479  11.774 -0.4615  0.9216  2.1125
35798SOL    HW213358   8.514   0.589  11.702  0.7097 -0.1111 -0.8553
35799SOL     OW13359   3.046   6.076   9.584 -0.2318 -0.1923  0.2951
35799SOL    HW113360   3.029   6.167   9.563  0.3631 -0.0879  0.2530
35799SOL    HW213361   2.960   6.038   9.598 -0.7561 -0.4500 -2.9384
35800SOL     OW13362   5.119   7.471   5.823 -0.8448 -0.4442  0.0321
35800SOL    HW113363   5.024   7.482   5.818 -0.8428 -0.4642 -0.0466
35800SOL    HW213364   5.132   7.412   5.898 -0.8271  0.4597  0.7539
35801SOL     OW13365  12.175  11.538   7.350  0.6363  0.5008 -0.1459
35801SOL    HW113366  12.113  11.471   7.321 -0.2788  0.8955  0.8216
35801SOL    HW213367  12.142  11.619   7.311  1.1597  0.5569 -0.4846
35802SOL     OW13368   9.097   6.047   8.369 -0.3088  0.5708 -0.1723
35802SOL    HW113369   9.058   5.962   8.348 -0.6874  0.4848  0.7927
35802SOL    HW213370   9.039   6.111   8.327 -1.4343  0.4375  1.1028
35803SOL     OW13371   1.812   7.712   6.856 -0.4180 -0.0523  0.0189
35803SOL    HW113372   1.778   7.653   6.788 -3.2332 -0.0583  1.3109
35803SOL    HW213373   1.750   7.785   6.858  0.7137  0.9209  1.2559
35804SOL     OW13374  11.824   8.839  11.789  0.0985 -0.1067 -0.0364
35804SOL    HW113375  11.794   8.749  11.774  0.2369  0.0176 -1.1186
35804SOL    HW213376  11.891   8.831  11.857 -1.6683 -0.5005  1.7545
35805SOL     OW13377   5.140  12.109   4.570  0.2994  0.1014 -0.1083
35805SOL    HW113378   5.140  12.071   4.658 -0.9151 -0.1793 -0.2077
35805SOL    HW213379   5.194  12.050   4.518  0.8534  0.1536  0.3933
35806SOL     OW13380   6.436   3.676  11.804  0.0945  0.0833 -0.3903
35806SOL    HW113381   6.418   3.582  11.814 -0.7544  0.3559  0.7808
35806SOL    HW213382   6.350   3.718  11.807  0.5052  0.9478 -0.3717
35807SOL     OW13383   1.120   3.051   1.515 -0.2703 -0.0674  0.8457
35807SOL    HW113384   1.170   3.112   1.460 -0.4826  0.2702  1.0257
35807SOL    HW213385   1.186   2.991   1.549  0.0014  0.3085  0.9906
35808SOL     OW13386   4.180   7.953   9.783 -0.0366 -0.5877 -0.0105
35808SOL    HW113387   4.139   7.983   9.864  1.2276 -0.1321  0.5013
35808SOL    HW213388   4.127   7.879   9.755  1.3379 -2.9903  3.0718
35809SOL     OW13389   6.961   2.993  10.098 -0.3312 -0.6830  0.0518
35809SOL    HW113390   7.016   2.942  10.038 -2.9322 -0.3771 -2.8369
35809SOL    HW213391   6.871   2.969  10.075 -1.7405  4.1680 -0.6739
35810SOL     OW13392   9.542   8.821   4.515  0.4330  0.4504  0.6757
35810SOL    HW113393   9.558   8.786   4.602  0.5546  0.3769  0.6241
35810SOL    HW213394   9.628   8.845   4.482  0.4955 -0.3175  0.2414
35811SOL     OW13395   0.022   8.258   0.766  0.1468 -0.0932  0.3856
35811SOL    HW113396   0.110   8.220   0.767 -0.3314 -1.2613  0.4223
35811SOL    HW213397   0.036   8.352   0.777  1.5692  0.0998 -2.2583
35812SOL     OW13398  12.349   4.436   8.341  0.1941 -0.0011 -0.6046
35812SOL    HW113399  12.281   4.470   8.283 -0.7024  0.4332  0.6438
35812SOL    HW213400  12.401   4.513   8.365 -0.4558  0.1354  0.4421
35813SOL     OW13401  10.503   4.876   3.437  0.2240 -0.0517  0.3686
35813SOL    HW113402  10.415   4.839   3.428  0.6437 -0.7303 -1.4067
35813SOL    HW213403  10.556   4.824   3.377  1.5633  1.2605  0.3822
35814SOL     OW13404   9.495   7.999   2.452  0.3289  0.2383  0.1871
35814SOL    HW113405   9.425   8.064   2.441 -1.3170 -0.8945  3.0561
35814SOL    HW213406   9.542   8.028   2.530 -1.2404 -2.5017  2.3314
35815SOL     OW13407  11.097   4.588   8.425 -0.1935 -0.0673 -0.6877
35815SOL    HW113408  11.071   4.511   8.475 -1.7071  0.9058  0.1235
35815SOL    HW213409  11.040   4.588   8.348 -0.6195  0.5439 -0.3809
35816SOL     OW13410   3.703   2.836   7.438 -0.0121  0.0685  0.3804
35816SOL    HW113411   3.752   2.789   7.370 -1.6801 -0.5537 -0.4705
35816SOL    HW213412   3.684   2.922   7.399  0.8078  0.4900  0.8995
35817SOL     OW13413  11.384   9.993  11.709 -0.2086  0.0912 -0.2476
35817SOL    HW113414  11.290   9.982  11.726 -0.4071 -0.2863 -1.4609
35817SOL    HW213415  11.388  10.026  11.619  0.8469 -0.7713 -0.5389
35818SOL     OW13416   5.616   5.489   2.181  0.3335  0.1790  0.1946
35818SOL    HW113417   5.599   5.566   2.126 -0.4930  0.0017  0.1884
35818SOL    HW213418   5.684   5.517   2.242 -0.2777  1.0557  0.4819
35819SOL     OW13419  11.220   7.202   2.015 -0.3146  0.2720  0.2541
35819SOL    HW113420  11.185   7.156   2.091 -0.5078  1.5596  0.9697
35819SOL    HW213421  11.244   7.288   2.048  1.3993  0.2067 -0.7299
35820SOL     OW13422   0.966   8.471   0.381  0.3209 -0.5508  0.6176
35820SOL    HW113423   0.919   8.475   0.465  1.1970 -2.0344  1.2195
35820SOL    HW213424   0.960   8.379   0.354 -0.5847  0.0410 -1.3641
35821SOL     OW13425   4.837   2.554   4.480 -0.5513  0.1794  0.1997
35821SOL    HW113426   4.787   2.523   4.556  0.2757 -0.7982  0.3777
35821SOL    HW213427   4.819   2.489   4.412  2.1177 -1.4848  0.9247
35822SOL     OW13428  11.415   9.338   0.301  0.4183 -0.0770  0.3465
35822SOL    HW113429  11.501   9.374   0.323  0.5214  0.2221 -0.5296
35822SOL    HW213430  11.432   9.273   0.233  0.2159 -1.7174  1.7857
35823SOL     OW13431   9.775   0.105   1.348  0.5221  0.5029 -0.5327
35823SOL    HW113432   9.867   0.128   1.365  0.3856  0.2030  0.7109
35823SOL    HW213433   9.777   0.059   1.264  1.4685  0.7614 -0.6656
35824SOL     OW13434   1.347   4.087  12.108  0.0198 -0.0855 -0.1715
35824SOL    HW113435   1.352   4.151  12.037 -0.3574 -1.4856 -1.5190
35824SOL    HW213436   1.379   4.005  12.069 -3.3105 -1.7373  0.2103
35825SOL     OW13437   4.691  11.732   4.732 -0.0683  0.5403  0.1672
35825SOL    HW113438   4.737  11.689   4.660 -1.1883  0.7779 -0.7004
35825SOL    HW213439   4.754  11.729   4.805  0.6333 -0.7383 -0.4616
35826SOL     OW13440   5.428   9.573   5.513 -0.5383  0.0945 -0.1369
35826SOL    HW113441   5.489   9.611   5.576 -0.6190  0.1368 -0.0837
35826SOL    HW213442   5.364   9.527   5.568  0.9988 -2.3555 -0.2509
35827SOL     OW13443  11.451   8.914  12.386 -0.4778 -0.4344 -0.0791
35827SOL    HW113444  11.356   8.912  12.399 -0.3781 -1.5875  0.5922
35827SOL    HW213445  11.463   8.907  12.291 -1.0372 -3.5735 -0.0068
35828SOL     OW13446   8.795   0.877   4.013 -0.3711  0.6482 -0.4157
35828SOL    HW113447   8.871   0.820   4.017 -0.9264 -0.0923 -0.0711
35828SOL    HW213448   8.792   0.907   3.922  0.3374  0.7070 -0.4252
35829SOL     OW13449   5.014   6.659  10.770  0.0632  0.3830  0.0394
35829SOL    HW113450   5.084   6.724  10.773 -0.4930  0.9536  1.0385
35829SOL    HW213451   4.993   6.641  10.861 -1.3249  0.4916 -0.2285
35830SOL     OW13452  10.681   3.380   9.435  0.1402  0.4672 -0.2378
35830SOL    HW113453  10.623   3.408   9.506  0.4274 -0.1998  0.2660
35830SOL    HW213454  10.622   3.343   9.369 -0.0502  0.2049  0.0770
35831SOL     OW13455   4.655   2.083  11.865 -0.0773 -0.1887 -0.0843
35831SOL    HW113456   4.649   2.045  11.777 -2.3241 -0.5057  0.1389
35831SOL    HW213457   4.564   2.106  11.887  0.5579  0.6831  1.8128
35832SOL     OW13458   7.723   0.958   7.701  0.3548 -0.1869 -0.0208
35832SOL    HW113459   7.719   1.028   7.636  0.4479  0.2777  0.4682
35832SOL    HW213460   7.632   0.940   7.723  0.3434 -0.0148  0.0712
35833SOL     OW13461   4.746   0.842   3.470  0.2354  0.2353  0.3329
35833SOL    HW113462   4.660   0.811   3.439  0.3238  2.5111 -2.5862
35833SOL    HW213463   4.799   0.762   3.473 -0.8626 -0.7149 -2.0465
35834SOL     OW13464   6.071   9.853   3.131 -0.0199 -0.0282  0.2832
35834SOL    HW113465   6.102   9.882   3.217  1.4160 -0.2318 -0.1461
35834SOL    HW213466   6.142   9.874   3.071 -0.2326 -1.5808 -0.5624
35835SOL     OW13467  12.093   2.453   4.380  0.3682  0.1845 -0.1105
35835SOL    HW113468  12.104   2.389   4.451 -1.2729 -0.0025  0.0068
35835SOL    HW213469  12.141   2.416   4.306 -0.9023 -1.4352 -0.1825
35836SOL     OW13470   8.351  11.514   3.098 -0.6512  0.1946  0.2616
35836SOL    HW113471   8.355  11.438   3.155 -0.5371  1.0007  1.3634
35836SOL    HW213472   8.275  11.563   3.128 -0.4767  0.7376 -0.1507
35837SOL     OW13473   4.093   2.953  10.565  0.2702  0.0385 -0.0743
35837SOL    HW113474   4.020   3.004  10.528  0.1367 -0.4975 -0.5555
35837SOL    HW213475   4.138   3.015  10.622 -0.5998  0.3631  0.2836
35838SOL     OW13476   8.384   9.848   6.158  0.2627 -0.4469  0.0304
35838SOL    HW113477   8.391   9.897   6.239  2.2265  0.1785 -0.4483
35838SOL    HW213478   8.381   9.915   6.089  1.9983 -0.9175 -0.5739
35839SOL     OW13479   7.946  11.234   0.326  0.1759  0.3161  0.4224
35839SOL    HW113480   7.956  11.208   0.234 -0.6207 -0.6493  0.5911
35839SOL    HW213481   7.998  11.170   0.374  0.3636  0.6500  0.6579
35840SOL     OW13482   0.266   2.963   0.511 -0.2241 -0.0859  0.1868
35840SOL    HW113483   0.280   3.046   0.465 -0.2705 -1.4023 -2.4020
35840SOL    HW213484   0.174   2.966   0.538 -0.4097  0.4762 -0.4689
35841SOL     OW13485   0.131   2.737   4.817 -0.2247 -0.7557  0.5815
35841SOL    HW113486   0.100   2.794   4.747 -2.5944 -2.8450 -0.2328
35841SOL    HW213487   0.189   2.675   4.774  2.9655  1.3108  1.5930
35842SOL     OW13488   0.468   4.414  11.996  0.4645  0.2681 -0.2030
35842SOL    HW113489   0.524   4.460  11.933  0.8002 -0.6797 -0.6173
35842SOL    HW213490   0.528   4.357  12.043  0.1274  0.5899  0.6347
35843SOL     OW13491   4.630   4.679   0.496  0.2381 -0.1453 -0.2118
35843SOL    HW113492   4.599   4.590   0.481  2.6751 -1.0314 -0.4309
35843SOL    HW213493   4.571   4.734   0.444 -0.6833 -1.7262 -0.9004
35844SOL     OW13494  11.465   8.729   7.653 -0.1024  0.5068  0.0947
35844SOL    HW113495  11.552   8.701   7.684 -0.5639  1.4201  2.4817
35844SOL    HW213496  11.473   8.823   7.639 -0.6135  0.5372 -0.0271
35845SOL     OW13497   2.658   0.115   6.876 -0.2765 -0.5510 -0.0777
35845SOL    HW113498   2.706   0.033   6.874  1.0344  0.1937 -0.1758
35845SOL    HW213499   2.632   0.131   6.785  0.9148 -0.0493 -0.3466
35846SOL     OW13500   1.323   0.397  11.891 -0.0035 -0.1430  0.6789
35846SOL    HW113501   1.305   0.478  11.844 -0.3538  1.3616  3.2288
35846SOL    HW213502   1.417   0.381  11.876 -0.2744 -0.2653 -1.2005
35847SOL     OW13503   4.991   0.136   1.379  0.1074 -0.3221 -0.1209
35847SOL    HW113504   4.989   0.047   1.414  1.7998 -0.3782 -0.1010
35847SOL    HW213505   4.902   0.151   1.348 -0.8745 -1.1039  2.0968
35848SOL     OW13506   7.310   4.391  11.147 -0.0521 -0.2695 -0.8237
35848SOL    HW113507   7.245   4.453  11.114  1.1951  0.5485 -1.8114
35848SOL    HW213508   7.342   4.346  11.069  0.5745 -0.6761 -0.3417
35849SOL     OW13509   8.993   8.338   7.450 -0.0333 -0.5468 -0.0770
35849SOL    HW113510   9.051   8.395   7.501  0.3299 -0.0236 -1.0504
35849SOL    HW213511   8.934   8.398   7.405 -0.3166 -0.9937 -0.3093
35850SOL     OW13512   3.122   9.794  11.717  0.0489 -0.2079  0.3363
35850SOL    HW113513   3.096   9.703  11.704 -0.1695 -0.4662  2.3245
35850SOL    HW213514   3.067   9.844  11.656  0.6376 -1.4244 -1.2641
35851SOL     OW13515   5.240  11.750   9.245 -0.2985  0.4120  0.0069
35851SOL    HW113516   5.218  11.808   9.318 -0.0907 -1.3273  1.5218
35851SOL    HW213517   5.315  11.791   9.203  0.0188  1.1013  1.2026
35852SOL     OW13518   9.056   8.851   2.496  0.5839  0.4932  0.1167
35852SOL    HW113519   9.041   8.871   2.588  0.0632 -0.6101  0.2889
35852SOL    HW213520   9.050   8.936   2.451 -2.8055  0.6367  0.6214
35853SOL     OW13521   0.704   6.856   9.166  0.1252  0.3206  0.1157
35853SOL    HW113522   0.799   6.846   9.179  0.4495 -2.1131 -2.9542
35853SOL    HW213523   0.668   6.770   9.188 -1.3383  1.0625  0.7316
35854SOL     OW13524   0.158   3.441   9.062  0.3790 -0.2435  0.5154
35854SOL    HW113525   0.106   3.445   9.142  1.8605 -1.1505  1.5565
35854SOL    HW213526   0.098   3.471   8.993 -1.1668 -0.2171  1.8254
35855SOL     OW13527  11.403  10.878   3.343  0.5253  0.3946  0.4664
35855SOL    HW113528  11.351  10.881   3.262  0.7363 -2.9168  0.0454
35855SOL    HW213529  11.362  10.943   3.400 -1.5313  0.7311 -1.2540
35856SOL     OW13530   8.876   1.562   2.028 -0.1494 -0.1497 -0.6959
35856SOL    HW113531   8.917   1.539   1.945 -1.2203  0.3973 -1.3872
35856SOL    HW213532   8.842   1.650   2.015 -0.9371 -0.3256  0.0978
35857SOL     OW13533   6.243   3.958  11.510  0.6688  0.5260  0.4372
35857SOL    HW113534   6.195   3.903  11.448 -0.1443  1.6562  0.0475
35857SOL    HW213535   6.333   3.924  11.506  0.5203  0.2259 -0.9503
35858SOL     OW13536  11.807   9.318  11.878 -0.5161  0.6476 -0.0801
35858SOL    HW113537  11.771   9.288  11.795  0.0782  0.4731 -0.2823
35858SOL    HW213538  11.871   9.385  11.854 -0.8863  1.1422  0.2879
35859SOL     OW13539   8.969   9.149   6.970  0.1078  0.1532 -0.3821
35859SOL    HW113540   9.014   9.138   7.054  1.4738  0.2639 -1.0765
35859SOL    HW213541   8.902   9.215   6.988  0.4165  0.2186  0.6037
35860SOL     OW13542   4.406   4.814  10.838 -0.4781 -1.0051  0.4753
35860SOL    HW113543   4.336   4.867  10.877 -1.1780 -1.0912 -0.6107
35860SOL    HW213544   4.487   4.857  10.867 -0.9600 -0.9141  1.7658
35861SOL     OW13545  11.371   5.763   9.976  0.0414  0.3908  0.0462
35861SOL    HW113546  11.460   5.786   9.948 -0.2129  2.2472  0.6080
35861SOL    HW213547  11.327   5.848   9.987 -0.8977 -0.3520  2.7133
35862SOL     OW13548   4.687   8.520   9.049  0.2580 -0.5181 -0.2348
35862SOL    HW113549   4.739   8.505   8.971  1.4694 -0.3507  0.5067
35862SOL    HW213550   4.599   8.538   9.017  0.8949  0.3330 -1.6030
35863SOL     OW13551   7.783  12.292   1.790  0.3900 -0.2392 -0.2258
35863SOL    HW113552   7.702  12.332   1.758  0.4565 -0.6176 -0.8920
35863SOL    HW213553   7.816  12.353   1.856  0.4021  0.7158 -1.0917
35864SOL     OW13554   9.996   7.367   8.483 -0.1648  0.1302 -0.6233
35864SOL    HW113555   9.931   7.301   8.461 -0.4287  0.0936  0.2093
35864SOL    HW213556   9.955   7.450   8.460  0.2328  0.0032 -1.8259
35865SOL     OW13557   0.365   0.516   5.002  0.2458  0.3581  0.2126
35865SOL    HW113558   0.299   0.552   4.943  0.2104  2.4209  1.4514
35865SOL    HW213559   0.332   0.532   5.090  1.2323 -0.8814  0.8584
35866SOL     OW13560   5.317   4.410   2.471  0.4519 -0.2194 -0.3342
35866SOL    HW113561   5.304   4.503   2.492  2.6769  0.1011 -0.0329
35866SOL    HW213562   5.341   4.410   2.378  1.5657 -0.3358 -0.0600
35867SOL     OW13563  11.786  10.980   5.094  0.3757 -0.9135  0.0364
35867SOL    HW113564  11.827  10.906   5.051  4.3840  0.4690  1.0564
35867SOL    HW213565  11.858  11.040   5.113 -2.2433  2.0008  1.7738
35868SOL     OW13566  12.350   4.196   1.138  0.1648  0.2815  0.1017
35868SOL    HW113567  12.324   4.104   1.130  2.5553 -0.5696  1.2960
35868SOL    HW213568  12.327   4.235   1.054  1.7956 -2.1497 -1.5786
35869SOL     OW13569   0.294   9.924   9.102 -0.3260 -0.3381 -0.1213
35869SOL    HW113570   0.273   9.836   9.072 -1.0259 -0.5422  0.9017
35869SOL    HW213571   0.253   9.930   9.189  0.9681  0.4671  0.4631
35870SOL     OW13572   3.032   1.595   7.034 -0.4455  0.2843 -0.9064
35870SOL    HW113573   3.033   1.504   7.003 -1.9611  0.5068 -1.7106
35870SOL    HW213574   2.950   1.631   7.000 -0.5967  1.5302  0.6686
35871SOL     OW13575   9.559   2.821   2.334  0.0219  0.2800  0.4015
35871SOL    HW113576   9.541   2.733   2.367 -0.3857  0.4721  0.6871
35871SOL    HW213577   9.644   2.812   2.289 -0.5111 -0.4933 -0.4949
35872SOL     OW13578   2.852   4.897   6.632 -0.0080 -0.3010  0.0349
35872SOL    HW113579   2.926   4.912   6.690  0.4664 -0.9844 -0.3794
35872SOL    HW213580   2.891   4.885   6.546 -0.6733  0.2660 -0.3602
35873SOL     OW13581   7.587   0.749   1.828  0.2159 -0.2893  0.1560
35873SOL    HW113582   7.659   0.688   1.844 -0.7527 -1.6603 -0.5322
35873SOL    HW213583   7.604   0.785   1.742 -0.4325 -1.4215 -0.4771
35874SOL     OW13584   5.795   7.273   3.490 -0.5256 -0.1050  0.3898
35874SOL    HW113585   5.822   7.222   3.567  0.5800 -0.4796 -0.2159
35874SOL    HW213586   5.721   7.325   3.520 -0.8747 -1.1309  1.3796
35875SOL     OW13587   9.710  12.117   4.982  0.4848 -0.1472 -0.4718
35875SOL    HW113588   9.726  12.210   4.964  1.2352 -0.0478  0.5712
35875SOL    HW213589   9.616  12.107   4.973  0.6629  0.0160 -3.5819
35876SOL     OW13590   3.136   1.208   1.109 -0.4233 -0.0902  0.0312
35876SOL    HW113591   3.220   1.167   1.128  0.2340  0.5413 -1.3709
35876SOL    HW213592   3.159   1.293   1.070 -1.6613 -0.5148 -1.7167
35877SOL     OW13593   9.423   8.327   3.291  0.5556  0.2851 -0.0184
35877SOL    HW113594   9.453   8.381   3.218  1.8271 -0.7020 -0.2627
35877SOL    HW213595   9.472   8.246   3.283 -0.0643 -0.2604  1.3269
35878SOL     OW13596   6.651   5.733   7.588  0.3039  0.0711 -0.0960
35878SOL    HW113597   6.673   5.794   7.658 -0.1038  0.0916  0.0182
35878SOL    HW213598   6.660   5.646   7.628  0.5394  0.0648 -0.1585
35879SOL     OW13599   3.694   5.274   5.181 -0.1974 -0.5101  0.6893
35879SOL    HW113600   3.618   5.229   5.145 -0.4123  0.6456 -0.3878
35879SOL    HW213601   3.678   5.277   5.275 -1.9312  0.4734  0.4055
35880SOL     OW13602   8.239   8.414  11.486  0.3823 -0.0302 -0.7541
35880SOL    HW113603   8.201   8.502  11.480  1.8698  0.6738 -0.2469
35880SOL    HW213604   8.185   8.368  11.550  2.3303  2.0790  2.7227
35881SOL     OW13605  12.126   2.071   1.899 -0.2055  0.3808  0.1425
35881SOL    HW113606  12.158   2.103   1.983  1.1234 -0.0239 -0.1967
35881SOL    HW213607  12.089   1.985   1.919  1.9751 -0.6411  0.0040
35882SOL     OW13608   1.547   8.640   8.576 -0.1364  0.0867  0.5781
35882SOL    HW113609   1.630   8.636   8.624 -0.9443 -0.8725  1.9959
35882SOL    HW213610   1.567   8.688   8.496  1.8572 -0.4139  0.7274
35883SOL     OW13611   0.969   6.828  11.252 -0.6448  0.1010  0.3527
35883SOL    HW113612   0.877   6.838  11.226 -1.0383 -2.4398  0.4419
35883SOL    HW213613   1.019   6.852  11.174 -1.5065 -0.4724 -0.4037
35884SOL     OW13614   4.086   0.174   4.500  0.5404 -0.4086 -0.5181
35884SOL    HW113615   4.107   0.266   4.517 -0.3168 -0.1194 -0.9477
35884SOL    HW213616   4.068   0.171   4.406 -1.5903 -0.5423 -0.1600
35885SOL     OW13617  11.855  11.301   8.158  0.5861 -0.2431  0.6663
35885SOL    HW113618  11.763  11.282   8.179  0.4961 -0.7862 -0.2058
35885SOL    HW213619  11.851  11.372   8.094  0.7996 -0.0640  0.8451
35886SOL     OW13620   0.564   1.655  12.186  0.1201  0.1277 -0.4789
35886SOL    HW113621   0.492   1.656  12.248 -0.0956 -1.0939 -0.7039
35886SOL    HW213622   0.569   1.746  12.154 -0.2149  0.6096  0.7740
35887SOL     OW13623   2.298   0.220   6.773 -0.1705 -0.5747  0.2048
35887SOL    HW113624   2.310   0.185   6.861  0.1981 -1.1691 -0.0770
35887SOL    HW213625   2.354   0.166   6.718 -2.1384 -1.7119 -0.7717
35888SOL     OW13626   3.888  11.926   1.876 -0.6265 -0.4494 -0.1149
35888SOL    HW113627   3.809  11.885   1.840  0.5595 -1.8285 -1.3022
35888SOL    HW213628   3.936  11.854   1.917  0.4509  0.1792 -0.2352
35889SOL     OW13629   0.768  10.844   4.449 -0.4801 -0.3362 -0.2143
35889SOL    HW113630   0.700  10.912   4.450  0.2344  0.3912  0.3651
35889SOL    HW213631   0.837  10.881   4.394 -0.1802 -0.7005 -0.0840
35890SOL     OW13632   9.668   0.677   7.248 -0.1668  0.3126  0.3958
35890SOL    HW113633   9.649   0.765   7.279 -1.1959 -0.1392  1.1131
35890SOL    HW213634   9.711   0.634   7.321 -0.0926  0.0722  0.2135
35891SOL     OW13635   9.202   2.977   6.307  0.4789 -0.5627  0.1546
35891SOL    HW113636   9.169   2.893   6.273 -1.4299  0.2423 -0.1290
35891SOL    HW213637   9.188   2.972   6.401  0.4128 -0.5962  0.1434
35892SOL     OW13638   2.693   7.236   6.286  0.5422  0.0468  0.2715
35892SOL    HW113639   2.768   7.270   6.238  0.2417 -0.8055 -0.8456
35892SOL    HW213640   2.628   7.218   6.218 -0.1918 -0.4487  1.0894
35893SOL     OW13641   8.090   2.592   4.916 -0.0095  0.1429 -0.0018
35893SOL    HW113642   8.144   2.656   4.962 -0.2686  0.0952  0.3817
35893SOL    HW213643   8.132   2.508   4.936 -0.8388 -0.0078  1.2212
35894SOL     OW13644  10.532   2.858   5.550 -0.1393 -0.1916 -0.5242
35894SOL    HW113645  10.443   2.875   5.520 -0.2650 -0.2418 -0.1844
35894SOL    HW213646  10.572   2.944   5.557 -0.4718 -0.0958  0.2661
35895SOL     OW13647  10.823   0.962  10.714 -0.3597  0.1609  0.4038
35895SOL    HW113648  10.744   0.923  10.751 -0.0347  0.0030  0.9577
35895SOL    HW213649  10.843   0.907  10.638 -0.8926  0.3258  0.1426
35896SOL     OW13650   4.457   0.812  12.056  0.4802 -0.0590  0.2106
35896SOL    HW113651   4.539   0.859  12.064  1.1020 -0.7472 -1.5759
35896SOL    HW213652   4.395   0.877  12.021  0.7714 -0.0080 -0.2182
35897SOL     OW13653  11.513   8.102   2.916 -0.3291  0.0739  0.2880
35897SOL    HW113654  11.463   8.066   2.844 -0.6874  0.5059  0.3184
35897SOL    HW213655  11.448   8.147   2.971  0.1434  1.0388  0.0826
35898SOL     OW13656   7.764   3.772   5.520  0.1657  0.0715 -0.1908
35898SOL    HW113657   7.856   3.761   5.495  0.0789 -1.5478  0.0648
35898SOL    HW213658   7.766   3.834   5.593  1.0923 -0.1066 -0.0550
35899SOL     OW13659   1.222  10.866  11.947 -0.4742 -0.0233  0.4655
35899SOL    HW113660   1.286  10.851  12.017  0.2504  1.8204  0.2683
35899SOL    HW213661   1.209  10.780  11.907  1.3286 -0.5811  0.9941
35900SOL     OW13662   9.652   0.158   7.971 -0.3610 -0.6879 -0.3445
35900SOL    HW113663   9.733   0.111   7.990 -0.1652  0.1744  1.1972
35900SOL    HW213664   9.663   0.192   7.882 -0.1676 -2.7841 -1.1620
35901SOL     OW13665   0.241   8.239   8.083  0.4159  0.9885 -0.4139
35901SOL    HW113666   0.281   8.159   8.047  0.4974  1.3281 -1.0850
35901SOL    HW213667   0.294   8.310   8.047  0.5344  1.3378  0.4348
35902SOL     OW13668   0.822   2.268   8.675 -0.1505  0.0285 -0.4331
35902SOL    HW113669   0.862   2.331   8.615  0.1046 -1.4643 -1.8818
35902SOL    HW213670   0.834   2.308   8.762  1.6440  1.1136 -1.1098
35903SOL     OW13671   3.242   3.873   2.437  0.1688  0.2338 -0.3558
35903SOL    HW113672   3.194   3.791   2.424  1.7463 -1.1128  1.5716
35903SOL    HW213673   3.299   3.880   2.360  1.8291 -1.9045  0.5680
35904SOL     OW13674   4.935  12.466   6.993 -0.0857 -0.5118 -0.0441
35904SOL    HW113675   4.943  12.532   7.062  0.2465 -0.0150 -0.5442
35904SOL    HW213676   4.948  12.383   7.037 -0.6203 -0.2549  0.6213
35905SOL     OW13677   0.566   3.653   5.522  0.0831 -0.3471 -0.2494
35905SOL    HW113678   0.590   3.606   5.602 -3.2033  1.3032  1.9760
35905SOL    HW213679   0.497   3.600   5.482 -1.7754  1.0957  0.8491
35906SOL     OW13680  11.359  12.426   9.991  0.3801  0.0382  0.0674
35906SOL    HW113681  11.430  12.466  10.042  0.3686  1.2505 -0.8229
35906SOL    HW213682  11.338  12.345  10.038  0.2851  1.1582  2.0654
35907SOL     OW13683  10.692   1.340   7.452 -0.5519  0.3144  0.5319
35907SOL    HW113684  10.652   1.426   7.464 -0.6044  0.3978 -0.2214
35907SOL    HW213685  10.618   1.280   7.443 -0.5480  0.5557 -1.5004
35908SOL     OW13686   1.414  10.614   4.373  0.0150  0.0679  0.1490
35908SOL    HW113687   1.452  10.530   4.401  1.0352  0.7546  0.9445
35908SOL    HW213688   1.410  10.665   4.454  0.6413  1.2306 -0.5311
35909SOL     OW13689  10.345   7.140   2.333 -0.4944 -0.4700 -0.0744
35909SOL    HW113690  10.339   7.220   2.386  1.0321  0.0758 -0.6872
35909SOL    HW213691  10.341   7.170   2.243 -0.2528 -1.1300 -0.3092
35910SOL     OW13692  11.901   7.688   7.483 -0.1252  0.4285 -0.0041
35910SOL    HW113693  11.959   7.696   7.559  0.8889 -0.9214 -0.5823
35910SOL    HW213694  11.826   7.743   7.503 -1.1423 -1.8169  3.1386
35911SOL     OW13695   2.884   7.967   6.328 -0.6273  0.0698  0.0208
35911SOL    HW113696   2.848   8.043   6.375  1.7946  1.8393 -0.8104
35911SOL    HW213697   2.954   8.003   6.274 -0.2620 -2.6005 -1.4483
35912SOL     OW13698  10.619   9.337   5.461 -0.1730  0.2402  0.0324
35912SOL    HW113699  10.655   9.362   5.546  0.0299 -0.5463  0.1913
35912SOL    HW213700  10.673   9.382   5.396  1.3706 -1.1895  0.2493
35913SOL     OW13701  10.341   8.238   0.396  0.1037  0.1768  0.7806
35913SOL    HW113702  10.312   8.173   0.332 -0.9086 -0.2365  1.6338
35913SOL    HW213703  10.432   8.257   0.371  0.1373 -0.9150 -0.0026
35914SOL     OW13704   8.233  10.188   4.378 -0.5519 -0.0654 -0.4057
35914SOL    HW113705   8.240  10.282   4.363 -0.0018  0.0587  0.5849
35914SOL    HW213706   8.301  10.168   4.442 -1.2031 -0.9946  0.0265
35915SOL     OW13707   0.633   5.742   4.876  0.0922  0.2497  0.5354
35915SOL    HW113708   0.678   5.658   4.879  0.3497  0.2919 -1.0640
35915SOL    HW213709   0.554   5.730   4.928  1.0922 -0.3502  1.9646
35916SOL     OW13710   8.255  10.190   7.401  0.7110 -0.0269  0.0459
35916SOL    HW113711   8.219  10.116   7.451  1.9353 -0.4999  0.2520
35916SOL    HW213712   8.211  10.267   7.438  1.0687 -0.4384  1.3841
35917SOL     OW13713   0.643   4.697   6.668  0.1921  0.2244 -0.1097
35917SOL    HW113714   0.623   4.610   6.701 -0.1310  0.2494 -0.2319
35917SOL    HW213715   0.739   4.702   6.667  0.2121 -0.2119 -0.3254
35918SOL     OW13716   1.342  10.907   9.708 -0.4336 -0.3228 -0.0777
35918SOL    HW113717   1.277  10.943   9.648  0.3596 -0.1916 -0.8708
35918SOL    HW213718   1.298  10.908   9.794 -2.6898 -3.1266 -0.9993
35919SOL     OW13719   4.989   5.867   7.146 -0.7764  0.0955 -0.5558
35919SOL    HW113720   4.894   5.869   7.159 -0.8956 -2.1152 -0.5546
35919SOL    HW213721   5.000   5.840   7.055 -0.1150  1.4931 -0.9072
35920SOL     OW13722  12.483   7.913   6.488  0.4592  0.0517 -0.1508
35920SOL    HW113723  12.439   7.910   6.403  1.2995  0.8742 -0.6376
35920SOL    HW213724  12.513   7.824   6.503 -0.8586 -0.4034 -0.0673
35921SOL     OW13725   5.248   4.932  12.043  0.0881  0.0697 -0.0618
35921SOL    HW113726   5.301   5.011  12.055  0.6472 -0.2343 -0.4706
35921SOL    HW213727   5.281   4.870  12.109 -0.8662  0.4230  0.7780
35922SOL     OW13728   5.243   5.269   3.002  0.4881 -0.0809  0.1139
35922SOL    HW113729   5.246   5.363   2.983 -0.5893  0.2119  1.1928
35922SOL    HW213730   5.317   5.232   2.954  0.0574  1.0853 -1.5513
35923SOL     OW13731   2.372   2.637   5.234 -0.1449 -0.8557  0.5688
35923SOL    HW113732   2.292   2.677   5.200 -0.1475  0.0662  1.5746
35923SOL    HW213733   2.412   2.706   5.288  0.1541 -2.0305  1.9046
35924SOL     OW13734   9.070  10.140   8.983 -0.2694 -0.2475 -0.3628
35924SOL    HW113735   9.051  10.167   9.073  1.6112  0.4089 -0.1284
35924SOL    HW213736   8.991  10.162   8.934 -1.5753 -1.2026  1.2178
35925SOL     OW13737   3.597   8.479   1.185 -0.7772 -0.1523  0.0152
35925SOL    HW113738   3.599   8.463   1.280 -2.5195 -0.2932  0.0627
35925SOL    HW213739   3.678   8.439   1.152 -0.5795 -0.8896  1.3286
35926SOL     OW13740   7.667   9.476   0.361 -0.2253 -0.6260  0.1670
35926SOL    HW113741   7.648   9.498   0.270  0.1143  0.0076  0.2459
35926SOL    HW213742   7.746   9.422   0.357  0.4957  0.4040  0.1674
35927SOL     OW13743   9.232  11.872   6.047  0.0840  0.2254 -0.5664
35927SOL    HW113744   9.308  11.930   6.042  0.5400 -0.3860 -0.9078
35927SOL    HW213745   9.213  11.849   5.956  1.3371 -1.9476 -0.3380
35928SOL     OW13746  11.575  10.329   0.489  0.7438  0.6682 -0.1375
35928SOL    HW113747  11.505  10.371   0.439  1.6154 -0.0346 -2.0399
35928SOL    HW213748  11.559  10.235   0.478  1.4465  0.5046  0.1936
35929SOL     OW13749  12.300   8.341   4.013 -0.0079 -0.6280  0.2469
35929SOL    HW113750  12.295   8.316   4.105 -0.1001  1.3894  0.8274
35929SOL    HW213751  12.209   8.340   3.983  0.0159 -1.2108  0.1669
35930SOL     OW13752   9.056   3.901   1.332 -0.6485  0.4279 -0.0399
35930SOL    HW113753   9.137   3.892   1.382 -0.5631  0.1734 -0.2203
35930SOL    HW213754   9.052   3.822   1.278 -2.1703 -0.7207  1.6340
35931SOL     OW13755   2.760   1.910   3.998 -0.6249  0.1348 -0.2992
35931SOL    HW113756   2.803   1.986   3.959  0.7342 -1.0083 -1.1123
35931SOL    HW213757   2.796   1.904   4.086 -0.0412 -0.0683 -0.5439
35932SOL     OW13758   2.838   3.370   4.731  0.3638 -0.3726 -0.5723
35932SOL    HW113759   2.905   3.341   4.669 -0.7541  1.0036 -2.5426
35932SOL    HW213760   2.755   3.345   4.691 -0.4925  2.3114 -0.6934
35933SOL     OW13761   4.525  10.497   3.922  0.4021  0.0039 -0.8957
35933SOL    HW113762   4.529  10.563   3.853 -0.4781  0.4875 -0.5057
35933SOL    HW213763   4.471  10.537   3.990  0.7902 -0.6827 -0.1679
35934SOL     OW13764   5.898   6.542   3.358  0.4192 -0.3509 -0.0179
35934SOL    HW113765   5.856   6.457   3.369 -0.5745  0.2362  0.8915
35934SOL    HW213766   5.910   6.575   3.447  2.0809 -0.1297 -0.2946
35935SOL     OW13767   1.589   5.147  10.910 -0.0871  0.7984  0.4131
35935SOL    HW113768   1.574   5.189  10.994  0.0670  1.9019 -0.0957
35935SOL    HW213769   1.564   5.056  10.924  0.9485  0.7189  1.9500
35936SOL     OW13770  10.971   4.942   5.455 -0.1757 -0.5390 -0.2456
35936SOL    HW113771  10.924   4.951   5.537 -1.3120 -1.8330 -0.7246
35936SOL    HW213772  11.030   5.018   5.453 -0.4710 -0.2233  1.5088
35937SOL     OW13773   5.324   0.761   2.235  0.0952 -0.1556 -0.3376
35937SOL    HW113774   5.301   0.668   2.225  0.1664 -0.0702 -1.3602
35937SOL    HW213775   5.417   0.765   2.216 -0.1482  0.2950 -1.5230
35938SOL     OW13776   8.775   2.322   1.681  0.5892 -0.3220  0.2097
35938SOL    HW113777   8.743   2.243   1.637 -2.0454  1.3877 -1.2808
35938SOL    HW213778   8.764   2.303   1.774 -1.7988 -1.1351 -0.1510
35939SOL     OW13779   6.117   5.809  10.311 -0.2310 -0.2035  0.4950
35939SOL    HW113780   6.086   5.752  10.241  1.7037 -0.1591 -0.4535
35939SOL    HW213781   6.057   5.792  10.384 -0.8220 -2.0443 -0.3575
35940SOL     OW13782   0.833   0.784   2.001 -0.2442 -0.8021 -0.2091
35940SOL    HW113783   0.923   0.800   2.029 -0.2605  0.0680 -0.6319
35940SOL    HW213784   0.804   0.867   1.963 -1.4252 -0.8821  0.4556
35941SOL     OW13785   0.425   2.023   7.115  0.4461  0.3494 -0.4848
35941SOL    HW113786   0.343   2.072   7.115  0.1001 -0.2140 -0.2303
35941SOL    HW213787   0.490   2.083   7.150 -0.2075  0.2495  0.9658
35942SOL     OW13788   9.032  10.110  10.846  0.3404 -0.0386  0.8169
35942SOL    HW113789   9.092  10.175  10.883 -0.3346  0.8563  0.3574
35942SOL    HW213790   9.084  10.065  10.779  0.1283  1.6766 -0.5608
35943SOL     OW13791  11.183   2.821   3.800  0.5649 -0.8751  0.0153
35943SOL    HW113792  11.099   2.860   3.825  0.1004 -0.6721 -1.6877
35943SOL    HW213793  11.188   2.739   3.849 -1.0430 -1.2976 -0.4741
35944SOL     OW13794   6.489   7.779  10.965 -0.2186 -0.0807 -0.3901
35944SOL    HW113795   6.439   7.790  11.046  0.4851  1.3927 -0.1154
35944SOL    HW213796   6.426   7.802  10.896 -1.0665 -2.1360 -0.3715
35945SOL     OW13797   1.817   3.306   4.357  0.5199 -0.2065 -0.0516
35945SOL    HW113798   1.910   3.309   4.381  0.2511 -1.1544  1.2384
35945SOL    HW213799   1.809   3.230   4.300  0.8518  1.0285 -1.8091
35946SOL     OW13800   0.073   5.664   8.715  0.4345 -0.1617  0.3205
35946SOL    HW113801   0.087   5.583   8.666  1.0967 -0.4906  1.0276
35946SOL    HW213802  -0.017   5.657   8.747  0.3239 -0.3906 -0.0312
35947SOL     OW13803   4.165   2.724   2.136  0.4808 -0.0854  0.3877
35947SOL    HW113804   4.223   2.716   2.212  0.0248 -0.9164  0.6630
35947SOL    HW213805   4.080   2.693   2.168  0.3516 -0.7146 -0.5405
35948SOL     OW13806  12.376  11.410   2.150  0.3889 -0.2302  0.3929
35948SOL    HW113807  12.392  11.338   2.211  0.7766  0.9082  1.6887
35948SOL    HW213808  12.446  11.473   2.168  1.5143 -0.5622 -2.4249
35949SOL     OW13809  11.183   7.991   6.974 -0.0759 -0.7894 -0.2847
35949SOL    HW113810  11.267   7.981   7.019  2.1440 -0.3005 -3.9146
35949SOL    HW213811  11.200   7.962   6.884 -2.7317  2.7707 -2.2017
35950SOL     OW13812  10.335   4.837  11.998  0.1986 -0.3038  0.4098
35950SOL    HW113813  10.282   4.799  11.929 -0.0176  1.3026 -0.3614
35950SOL    HW213814  10.272   4.863  12.065  0.1054  0.6294 -0.0287
35951SOL     OW13815  11.254  10.251   0.783  0.3736 -0.5791 -0.2346
35951SOL    HW113816  11.214  10.320   0.730  1.2850  0.2061  0.0706
35951SOL    HW213817  11.306  10.199   0.722  2.5824  1.1725  0.0276
35952SOL     OW13818   7.228  10.871   5.585 -0.2957  0.8171  0.5063
35952SOL    HW113819   7.293  10.873   5.655  0.5781  0.6633 -0.2864
35952SOL    HW213820   7.264  10.927   5.517  0.1466 -1.0904 -0.9167
35953SOL     OW13821   9.056   1.942   9.108 -0.2546 -0.5170  0.4435
35953SOL    HW113822   8.972   1.986   9.091  0.1842  0.8392  1.6425
35953SOL    HW213823   9.116   2.012   9.131  0.7828 -1.6434  1.3090
35954SOL     OW13824   6.265   9.668   5.278 -0.7548  0.5001 -0.3013
35954SOL    HW113825   6.244   9.602   5.212  2.3245 -0.0648 -0.8484
35954SOL    HW213826   6.223   9.636   5.358 -1.4980 -0.7123 -1.1444
35955SOL     OW13827   4.544   2.060   1.259 -0.1222 -0.0025  0.4957
35955SOL    HW113828   4.502   2.028   1.179 -0.2524 -1.5010  1.1238
35955SOL    HW213829   4.615   2.117   1.227  0.5542 -1.4466 -0.7543
35956SOL     OW13830   1.997   0.617   0.270 -0.4286 -0.3273  0.0924
35956SOL    HW113831   1.906   0.595   0.251 -0.4412 -1.7814  1.6176
35956SOL    HW213832   2.049   0.556   0.217 -0.3796 -0.5011  0.3363
35957SOL     OW13833   3.587   7.422  11.169  0.4643 -0.2669 -0.5952
35957SOL    HW113834   3.567   7.475  11.246 -0.5613  0.8847 -1.6068
35957SOL    HW213835   3.652   7.474  11.121  1.9960 -1.5252  0.0463
35958SOL     OW13836   2.215   4.852   9.467  0.0227 -0.0578 -0.2775
35958SOL    HW113837   2.163   4.826   9.391  0.0073  0.1976 -0.3530
35958SOL    HW213838   2.151   4.883   9.531 -0.0170 -0.8222  0.0646
35959SOL     OW13839   7.497   2.713   2.109  0.2386  0.4773  0.3593
35959SOL    HW113840   7.431   2.749   2.049  1.5216  2.3950  0.0273
35959SOL    HW213841   7.446   2.663   2.173 -1.4352  0.9654 -0.5328
35960SOL     OW13842   9.358   3.999   6.722 -0.1012 -0.1816  0.1368
35960SOL    HW113843   9.279   3.947   6.733 -1.2811  1.3984 -0.5916
35960SOL    HW213844   9.354   4.065   6.792  0.8627 -0.4097  0.4309
35961SOL     OW13845   8.368  11.068  12.035  0.6579 -0.2376 -0.1178
35961SOL    HW113846   8.367  11.163  12.023  0.3908 -0.2951 -0.5830
35961SOL    HW213847   8.281  11.047  12.070  0.8646 -0.2633  0.3910
35962SOL     OW13848   8.890  11.407   3.661  0.6933 -0.2199  0.2978
35962SOL    HW113849   8.879  11.315   3.684  1.1788 -0.1877  0.6629
35962SOL    HW213850   8.967  11.435   3.710 -0.2308  0.7334  1.2613
35963SOL     OW13851   5.864   7.969   2.661  0.0219 -0.3482  0.2466
35963SOL    HW113852   5.815   7.910   2.718  0.2914 -0.3086  0.5284
35963SOL    HW213853   5.799   8.028   2.625 -0.1557 -0.3730  0.5217
35964SOL     OW13854   5.954   0.357   3.920 -0.4582  0.0365  0.1196
35964SOL    HW113855   6.021   0.289   3.930 -0.1887  0.2600 -0.1226
35964SOL    HW213856   5.999   0.426   3.871 -1.3387 -0.5144 -1.5432
35965SOL     OW13857  12.418  10.666   3.207  0.1014  0.3526 -0.1174
35965SOL    HW113858  12.328  10.693   3.187 -0.0490  0.4785  0.7233
35965SOL    HW213859  12.411  10.572   3.226  0.3146  0.1361 -1.0580
35966SOL     OW13860   9.065   9.770  11.821  0.5836  0.4660 -0.4000
35966SOL    HW113861   9.134   9.809  11.874  0.6379  0.1210 -0.2155
35966SOL    HW213862   9.020   9.709  11.879 -0.2561  1.1103 -0.3519
35967SOL     OW13863   5.945  11.595   5.426 -0.0901 -0.6440 -0.0841
35967SOL    HW113864   5.953  11.518   5.370  1.2752  0.4219 -1.4389
35967SOL    HW213865   6.016  11.653   5.398 -1.0867  1.1224  0.8656
35968SOL     OW13866   0.613   2.467   4.087  0.0411  0.6048 -0.0248
35968SOL    HW113867   0.676   2.395   4.097 -1.9681 -1.1822  0.4383
35968SOL    HW213868   0.642   2.532   4.151  1.1072 -0.3992  0.5695
35969SOL     OW13869  10.425  12.371   7.609  0.0186 -0.2051 -0.2049
35969SOL    HW113870  10.479  12.442   7.644 -0.4628 -0.8622  2.0522
35969SOL    HW213871  10.480  12.293   7.617 -0.1464 -0.3947 -0.8703
35970SOL     OW13872  10.202   8.941   4.120  0.2249 -0.2553  0.0636
35970SOL    HW113873  10.111   8.923   4.145  0.0929  0.9890  0.5118
35970SOL    HW213874  10.202   8.932   4.025 -0.4572  0.0967  0.0202
35971SOL     OW13875   0.541   9.122   1.160  1.1265  0.2116  0.1673
35971SOL    HW113876   0.626   9.160   1.182  0.6444  0.6767  1.3143
35971SOL    HW213877   0.519   9.067   1.235  0.4985 -0.0531 -0.2055
35972SOL     OW13878  12.022  11.543  10.343 -0.3952 -0.2769 -0.3527
35972SOL    HW113879  12.072  11.463  10.355  0.7848  0.2011 -1.8431
35972SOL    HW213880  11.973  11.553  10.425  1.4904 -1.0860  0.9528
35973SOL     OW13881  12.385  11.142   8.673 -0.0180 -0.1649  0.2178
35973SOL    HW113882  12.433  11.089   8.736 -1.6756 -1.4908  0.4366
35973SOL    HW213883  12.338  11.078   8.619  0.0026  1.0031 -1.2608
35974SOL     OW13884   4.805  10.719   6.416  0.3434 -0.0518  0.1843
35974SOL    HW113885   4.722  10.739   6.459  0.6091  1.2125  0.1492
35974SOL    HW213886   4.862  10.792   6.440  1.7298 -1.3223  0.9344
35975SOL     OW13887   8.073   7.595   4.909 -0.1160 -0.1240  0.7275
35975SOL    HW113888   8.079   7.556   4.822  1.3114 -0.5302  0.9856
35975SOL    HW213889   7.994   7.650   4.905  0.6179  0.9027 -1.2308
35976SOL     OW13890   0.335   3.092   4.473 -0.3522  0.0454  0.2422
35976SOL    HW113891   0.399   3.033   4.434 -1.4707 -2.5658  2.0668
35976SOL    HW213892   0.259   3.086   4.415 -0.2806  0.1469  0.1362
35977SOL     OW13893  11.839   5.386  10.091  0.1410  0.1339  0.2922
35977SOL    HW113894  11.806   5.387  10.001  0.5206 -0.7367  0.1406
35977SOL    HW213895  11.765   5.355  10.143 -0.2235  1.0665  0.3510
35978SOL     OW13896  10.305   8.866  11.496  0.2622  0.1702 -0.0119
35978SOL    HW113897  10.350   8.790  11.534 -0.6871 -0.4535 -0.0816
35978SOL    HW213898  10.371   8.908  11.441  0.8239 -0.5963  0.0480
35979SOL     OW13899   7.159   2.193   8.629  0.1633  0.8383 -0.4688
35979SOL    HW113900   7.249   2.218   8.646  0.0686  0.7325  0.2221
35979SOL    HW213901   7.160   2.097   8.631  0.2038  0.8115 -1.3853
35980SOL     OW13902   0.904   1.910  10.846 -0.4003  0.2088 -0.3706
35980SOL    HW113903   0.863   1.965  10.913  0.2137  0.9637 -0.5939
35980SOL    HW213904   0.946   1.973  10.786  1.6965 -0.5228  0.2442
35981SOL     OW13905   7.536   2.511   0.153 -0.0105 -0.0426  0.4969
35981SOL    HW113906   7.441   2.512   0.142  0.0624  0.0619 -0.2232
35981SOL    HW213907   7.564   2.433   0.104  0.3913  0.7044 -0.5059
35982SOL     OW13908   2.152   5.569  10.424 -0.1412  0.3340  0.4686
35982SOL    HW113909   2.187   5.649  10.464 -1.6226 -0.1677  3.0102
35982SOL    HW213910   2.208   5.554  10.348  1.2630  2.8222  0.8818
35983SOL     OW13911   9.850   1.460   6.899  0.5124  0.0799  0.0406
35983SOL    HW113912   9.763   1.421   6.902  0.5511  0.0257  0.8449
35983SOL    HW213913   9.839   1.541   6.850 -0.3241  0.8459  1.4366
35984SOL     OW13914   8.866  11.599   5.737 -0.1785  0.7696 -0.2430
35984SOL    HW113915   8.943  11.544   5.751 -0.2774  1.2209  2.6991
35984SOL    HW213916   8.795  11.537   5.724  0.0136  0.2098  1.2189
35985SOL     OW13917  11.296   6.619   0.541 -0.1159  0.0263 -0.2780
35985SOL    HW113918  11.311   6.645   0.632 -1.4810 -1.7027  0.4748
35985SOL    HW213919  11.382   6.588   0.511  0.0112 -0.8313  0.9170
35986SOL     OW13920   7.676   0.711   8.187  0.2817 -0.1286  0.2042
35986SOL    HW113921   7.637   0.689   8.102 -0.3123 -0.7576  0.6223
35986SOL    HW213922   7.623   0.784   8.218  0.9089  0.5265 -0.2451
35987SOL     OW13923   9.069   2.178  11.712 -0.0982  0.6098 -0.1432
35987SOL    HW113924   9.027   2.119  11.775  0.8419 -0.0342 -0.0901
35987SOL    HW213925   9.029   2.156  11.628  2.8833 -3.0578 -0.9309
35988SOL     OW13926   4.417   3.539   7.147 -0.3076 -0.1220  0.3493
35988SOL    HW113927   4.490   3.567   7.203  1.8610 -1.3339 -1.6947
35988SOL    HW213928   4.440   3.571   7.060 -1.9665 -0.9940 -0.4512
35989SOL     OW13929   3.486   8.496  12.269 -0.4862  0.0117  0.2013
35989SOL    HW113930   3.521   8.461  12.351  0.6565  1.3735  0.3242
35989SOL    HW213931   3.472   8.589  12.286 -1.3328  0.0940 -0.8145
35990SOL     OW13932   0.570   7.629   1.574  0.0500  0.1030 -0.4317
35990SOL    HW113933   0.660   7.597   1.561  0.1886 -0.1497  1.0543
35990SOL    HW213934   0.526   7.559   1.622 -1.0180  0.1403 -1.3152
35991SOL     OW13935   1.694   3.083   3.379 -0.1906  0.2004  0.0498
35991SOL    HW113936   1.638   3.071   3.302  0.0759 -1.9177  0.1295
35991SOL    HW213937   1.643   3.048   3.452  0.2276  0.6498  0.5687
35992SOL     OW13938   5.637   4.916   0.001  0.0707 -0.4516  0.1527
35992SOL    HW113939   5.596   4.898  -0.083 -1.2738  2.3278  0.0964
35992SOL    HW213940   5.564   4.934   0.061  1.0342  1.5837  0.8345
35993SOL     OW13941   4.075   5.734   8.663  0.4201 -0.1417  0.1090
35993SOL    HW113942   4.002   5.742   8.725 -0.5334  0.6513 -1.0684
35993SOL    HW213943   4.038   5.762   8.579  2.2134  0.7648 -0.4283
35994SOL     OW13944   7.642   2.367  11.259  0.0780 -0.1161  0.5828
35994SOL    HW113945   7.666   2.314  11.183  1.8001  1.9437 -0.4103
35994SOL    HW213946   7.549   2.350  11.272 -0.4397 -0.0441 -2.4228
35995SOL     OW13947  12.463   8.069   2.648  0.2058  0.6256  0.4578
35995SOL    HW113948  12.543   8.052   2.697 -0.3637 -1.1787  0.8467
35995SOL    HW213949  12.480   8.033   2.561 -0.0165  0.6628  0.3986
35996SOL     OW13950   3.675   2.283   7.388 -0.0946  0.1325  0.1419
35996SOL    HW113951   3.722   2.286   7.471  0.3620 -0.6287 -0.0805
35996SOL    HW213952   3.691   2.195   7.354 -1.0404  0.1205 -0.3161
35997SOL     OW13953   8.937   6.596   8.058  0.6911  0.4463  0.1771
35997SOL    HW113954   9.027   6.571   8.036  0.2637 -0.3476 -0.7355
35997SOL    HW213955   8.918   6.671   8.002  0.1371 -0.6113 -1.1180
35998SOL     OW13956   5.285  10.120   3.905  0.2878  0.4586  0.3590
35998SOL    HW113957   5.375  10.109   3.937  0.4382 -2.8137 -0.8149
35998SOL    HW213958   5.286  10.080   3.818 -1.9938  1.6726 -0.2781
35999SOL     OW13959   6.871   7.602   4.427  0.0559 -0.1987 -0.1757
35999SOL    HW113960   6.943   7.660   4.450 -0.5266  1.0395 -1.3561
35999SOL    HW213961   6.818   7.652   4.365 -1.7309 -1.1179  0.5124
36000SOL     OW13962   4.815  12.326   6.457 -0.6877 -0.3041  0.3433
36000SOL    HW113963   4.906  12.343   6.431 -0.4048 -1.3198  0.6109
36000SOL    HW213964   4.762  12.363   6.387 -0.1251  1.3697  0.7548
36001SOL     OW13965   5.025   9.428   1.331  0.2924 -0.4915 -0.5015
36001SOL    HW113966   5.116   9.436   1.362  0.3270 -1.4052 -0.3567
36001SOL    HW213967   4.982   9.375   1.398 -0.4092  0.1167 -0.4639
36002SOL     OW13968   8.260   3.392  12.281 -0.4180 -0.4476  0.0686
36002SOL    HW113969   8.274   3.484  12.261 -1.2840 -0.6887 -1.8178
36002SOL    HW213970   8.245   3.390  12.376 -1.1831  1.4555  0.0284
36003SOL     OW13971   6.007   1.972   6.683 -0.2845 -0.2716  0.1853
36003SOL    HW113972   6.032   1.927   6.602 -0.2029  0.1782 -0.0441
36003SOL    HW213973   5.971   1.903   6.739 -0.6533 -0.5351 -0.3666
36004SOL     OW13974   1.773   8.429   6.129 -0.3358 -0.4699 -0.2276
36004SOL    HW113975   1.737   8.490   6.194  0.8891  1.1789 -1.0025
36004SOL    HW213976   1.760   8.343   6.168 -0.5103  0.3865  1.7742
36005SOL     OW13977  10.991   2.675   3.384  0.3546  0.6084  0.3228
36005SOL    HW113978  11.015   2.765   3.365 -0.2602  0.7562  0.2177
36005SOL    HW213979  10.897   2.678   3.400 -0.0411 -0.2948 -1.5374
36006SOL     OW13980   8.384   0.856   0.214 -0.2950  0.1094 -0.3578
36006SOL    HW113981   8.386   0.919   0.286 -2.2121 -0.6330  0.4029
36006SOL    HW213982   8.296   0.863   0.178 -0.0888 -1.1364 -1.1660
36007SOL     OW13983  11.787   9.345   8.298 -0.2169  0.5766 -0.1277
36007SOL    HW113984  11.797   9.435   8.329 -2.4580  0.8393  0.0272
36007SOL    HW213985  11.781   9.354   8.203  0.3735  0.4957 -0.1725
36008SOL     OW13986   7.293   2.047   2.837  0.0248  0.3737  0.2136
36008SOL    HW113987   7.238   2.017   2.909 -1.5186  0.6126 -0.8038
36008SOL    HW213988   7.311   2.139   2.857  2.4518 -0.3898  1.9424
36009SOL     OW13989   8.346   1.896  10.444  0.5253  0.0443 -0.5468
36009SOL    HW113990   8.273   1.860  10.494  0.6213  1.9060  1.0519
36009SOL    HW213991   8.422   1.888  10.502  1.3069 -0.5182 -1.6078
36010SOL     OW13992   5.191   5.353   4.680  0.5463  0.2967 -0.1224
36010SOL    HW113993   5.221   5.324   4.766  1.8709 -0.2570 -0.7390
36010SOL    HW213994   5.127   5.287   4.653  1.0848 -0.2573 -0.0884
36011SOL     OW13995   7.121  10.355   7.712 -0.0875 -0.3855  0.0430
36011SOL    HW113996   7.058  10.379   7.780 -0.2641  0.3430 -0.3647
36011SOL    HW213997   7.205  10.384   7.746 -0.1214 -0.3959  0.1351
36012SOL     OW13998   9.843   5.043   1.944 -0.5816  0.6859 -0.6942
36012SOL    HW113999   9.823   4.983   1.872 -0.2464  1.4964 -1.4907
36012SOL    HW214000   9.938   5.033   1.956 -0.6586  0.4586 -0.2701
36013SOL     OW14001  11.935   7.195   2.655 -0.0657  0.4504  0.0479
36013SOL    HW114002  11.927   7.287   2.629  0.1631  0.7241  0.9284
36013SOL    HW214003  12.029   7.182   2.668  0.0558 -0.2590 -1.2642
36014SOL     OW14004   5.387   8.225   7.675 -0.1167  0.1192  0.2357
36014SOL    HW114005   5.325   8.241   7.746 -1.6957  0.4654 -1.1612
36014SOL    HW214006   5.374   8.133   7.651 -0.0553  0.1718 -0.0091
36015SOL     OW14007   9.131   7.235   6.036  0.5981  0.7753  0.4557
36015SOL    HW114008   9.055   7.235   5.978  1.4747  1.9017 -0.7607
36015SOL    HW214009   9.096   7.217   6.123 -0.7565 -0.9936 -0.4053
36016SOL     OW14010  10.956   5.863   2.827  0.2529  0.1074  0.2594
36016SOL    HW114011  10.873   5.825   2.800 -1.5341  3.0191  1.1947
36016SOL    HW214012  11.002   5.883   2.745 -0.5935 -0.2341 -0.3086
36017SOL     OW14013   0.986   9.367   5.587 -0.1204 -0.4614  0.3455
36017SOL    HW114014   0.894   9.340   5.580 -0.0276 -0.6821 -0.0151
36017SOL    HW214015   1.031   9.319   5.518  0.2340 -0.2018  0.3929
36018SOL     OW14016   9.345   4.201  10.660  0.2295 -0.5986  0.1032
36018SOL    HW114017   9.278   4.138  10.685  1.0023 -1.3870  0.2352
36018SOL    HW214018   9.402   4.153  10.600  1.7902 -0.5525  1.5017
36019SOL     OW14019   7.898  11.898   5.419 -0.5879  0.3167 -0.0236
36019SOL    HW114020   7.930  11.988   5.415  0.7413 -0.1606 -0.5322
36019SOL    HW214021   7.890  11.871   5.327 -1.6287  0.1199  0.1067
36020SOL     OW14022   8.794  11.487   2.329 -0.6809 -0.1101 -0.0376
36020SOL    HW114023   8.833  11.405   2.361  2.1041  1.4681  0.8906
36020SOL    HW214024   8.782  11.540   2.407  0.1734  1.4108 -0.9103
36021SOL     OW14025   6.419   4.346   1.090  0.6606 -0.4117 -0.2371
36021SOL    HW114026   6.395   4.333   0.999 -1.6642 -1.3664  0.4242
36021SOL    HW214027   6.468   4.428   1.092 -0.2945  0.2429 -2.1641
36022SOL     OW14028   0.559   5.892   7.209  0.2086  0.5075 -0.3046
36022SOL    HW114029   0.560   5.918   7.301 -2.6354  5.9697 -1.4150
36022SOL    HW214030   0.649   5.907   7.180  0.7086  0.5684  1.1608
36023SOL     OW14031   2.367   9.081   9.331 -0.1009 -0.0187 -0.5302
36023SOL    HW114032   2.454   9.084   9.293  0.8958  0.9100  1.6555
36023SOL    HW214033   2.353   8.988   9.351  1.3387  0.0497  1.0345
36024SOL     OW14034  10.796   0.528  11.500 -0.1539  0.2744 -0.0421
36024SOL    HW114035  10.855   0.501  11.429 -1.7617 -0.5340 -1.1301
36024SOL    HW214036  10.790   0.452  11.557  0.7265  0.7473  0.6996
36025SOL     OW14037   8.437   4.816   1.484  0.1863  0.2278 -0.1842
36025SOL    HW114038   8.364   4.847   1.430 -0.5702 -0.7312  0.2688
36025SOL    HW214039   8.419   4.723   1.497  2.2834 -0.3887 -1.3048
36026SOL     OW14040   7.684   6.576   2.283 -0.5721 -0.2601  0.7404
36026SOL    HW114041   7.594   6.608   2.277 -0.3763  0.8591  2.8328
36026SOL    HW214042   7.738   6.650   2.258 -0.2032 -0.3949  1.1137
36027SOL     OW14043   4.413   6.951   8.290 -0.1880 -0.1795  0.4667
36027SOL    HW114044   4.358   7.011   8.239 -0.8378 -0.5812  0.6726
36027SOL    HW214045   4.491   7.001   8.310  0.6185 -0.3793 -1.8942
36028SOL     OW14046   5.529   1.798   6.500  0.0350  0.0387  0.5255
36028SOL    HW114047   5.606   1.741   6.495  1.3327  1.5719  1.9409
36028SOL    HW214048   5.464   1.746   6.549 -0.0516 -1.4247 -1.0363
36029SOL     OW14049   6.178   9.798   0.274 -0.5148  0.2698 -0.1769
36029SOL    HW114050   6.153   9.713   0.238 -0.6487 -0.4098  1.4239
36029SOL    HW214051   6.126   9.806   0.354  1.0685  0.8806  0.8343
36030SOL     OW14052   9.238   5.900   0.200  0.4533 -0.4765  0.4260
36030SOL    HW114053   9.236   5.867   0.290  2.6905 -2.5819 -0.1619
36030SOL    HW214054   9.324   5.873   0.167  0.1142  1.1193 -2.0463
36031SOL     OW14055   5.221   8.688   6.380 -0.2482  0.6161  0.5584
36031SOL    HW114056   5.313   8.664   6.374 -0.2363  0.4971  1.1349
36031SOL    HW214057   5.222   8.778   6.415 -0.2924  1.4578 -1.4624
36032SOL     OW14058  10.974   7.465   9.905  0.5287  0.2977  0.2089
36032SOL    HW114059  10.998   7.514   9.984 -1.7887  1.0663  0.5137
36032SOL    HW214060  11.021   7.508   9.834  0.8013  1.1203  0.8781
36033SOL     OW14061   4.173   9.017   2.779  0.4120  0.0054 -0.4655
36033SOL    HW114062   4.143   9.004   2.868 -0.1305  1.3378 -0.4390
36033SOL    HW214063   4.187   8.928   2.745 -1.1754 -0.5671  0.3144
36034SOL     OW14064   2.228  10.444   7.714 -0.1527 -0.5371  0.1884
36034SOL    HW114065   2.194  10.488   7.791  1.0253 -0.0205  0.4350
36034SOL    HW214066   2.284  10.509   7.671 -0.5127 -0.9266 -0.9234
36035SOL     OW14067   6.960   5.438   7.333  0.2651 -0.1313 -0.1516
36035SOL    HW114068   6.928   5.359   7.289  0.9061  0.2023 -1.2649
36035SOL    HW214069   6.960   5.415   7.426 -2.9868 -0.1916 -0.0635
36036SOL     OW14070   9.886   9.655   7.080  0.5747 -0.4421  0.0438
36036SOL    HW114071   9.820   9.681   7.144  0.2710  0.5877 -0.6739
36036SOL    HW214072   9.963   9.707   7.102  0.2253  0.5031 -0.8874
36037SOL     OW14073   7.994   1.887   8.966 -0.5392  0.3283 -0.2693
36037SOL    HW114074   7.996   1.838   9.048 -1.7800  0.8232  0.0768
36037SOL    HW214075   8.000   1.820   8.898  1.4527 -0.0256  0.1956
36038SOL     OW14076   8.448   9.696   0.928  0.0356 -0.5745  0.0391
36038SOL    HW114077   8.461   9.787   0.899  0.0134 -0.1509  1.3001
36038SOL    HW214078   8.385   9.703   0.999  0.5899 -1.5028  0.6303
36039SOL     OW14079   7.626   8.895   3.821  0.2780  0.0448 -0.0472
36039SOL    HW114080   7.644   8.820   3.877 -2.0890  0.2351  1.0783
36039SOL    HW214081   7.618   8.858   3.733 -1.8427 -1.2605  0.6242
36040SOL     OW14082  12.085   4.535   1.002  0.0565  0.3551  0.3636
36040SOL    HW114083  12.149   4.541   1.073  0.0420  2.8973  0.2653
36040SOL    HW214084  12.134   4.561   0.924 -0.1222 -1.6768 -0.4956
36041SOL     OW14085   2.358   4.421   1.531 -0.7004  0.4158  0.1707
36041SOL    HW114086   2.397   4.416   1.618  0.1545 -0.4893 -0.2502
36041SOL    HW214087   2.426   4.459   1.476 -0.0735 -1.8695 -0.7300
36042SOL     OW14088   1.726   2.182   3.432 -0.0137  0.1190 -0.5619
36042SOL    HW114089   1.762   2.252   3.378 -1.0350  0.1309 -1.2649
36042SOL    HW214090   1.672   2.227   3.497  1.6516  0.1434  0.8792
36043SOL     OW14091   2.669   8.343   5.022  0.2060  0.0996 -0.1927
36043SOL    HW114092   2.581   8.375   5.001  0.3343  0.6868  0.1455
36043SOL    HW214093   2.661   8.248   5.020 -0.3861  0.1503 -0.3692
36044SOL     OW14094   6.199   8.018   4.969 -0.0852  0.0930  0.9216
36044SOL    HW114095   6.173   7.997   5.059 -0.8081  1.2937  1.0158
36044SOL    HW214096   6.199   8.113   4.966  2.3061  0.1355  0.2991
36045SOL     OW14097   2.371   3.399  11.581 -0.3173 -0.1165  0.0947
36045SOL    HW114098   2.447   3.457  11.589  0.4009 -1.2392  1.8081
36045SOL    HW214099   2.393   3.341  11.508  0.2137 -0.0786  0.2224
36046SOL     OW14100   9.636   0.298   0.524 -0.0271 -0.3208  0.5282
36046SOL    HW114101   9.596   0.282   0.610  0.2294 -0.3093  0.6501
36046SOL    HW214102   9.649   0.210   0.487  0.1596 -0.3402  0.6379
36047SOL     OW14103   5.498   3.038   5.678  0.2694 -0.1657  0.4213
36047SOL    HW114104   5.536   3.083   5.602 -0.0129  1.7996  1.3915
36047SOL    HW214105   5.566   2.976   5.705  1.5246  1.0644  0.2142
36048SOL     OW14106   6.504   3.649   4.133 -0.1565 -0.2734 -0.0289
36048SOL    HW114107   6.409   3.637   4.131 -0.5302  1.5535  2.3801
36048SOL    HW214108   6.530   3.620   4.220  0.8304  2.8858  0.8630
36049SOL     OW14109   3.652  10.370   3.902 -0.2939 -0.1110 -0.2264
36049SOL    HW114110   3.736  10.361   3.947  0.2950  2.3072 -0.7070
36049SOL    HW214111   3.587  10.372   3.973  0.1674 -0.6809  0.2259
36050SOL     OW14112  11.333   0.406   2.172 -0.9859  0.0478  0.4023
36050SOL    HW114113  11.284   0.325   2.154  0.2390 -0.4252 -1.0400
36050SOL    HW214114  11.345   0.406   2.267 -3.3420 -0.0304  0.7648
36051SOL     OW14115   6.988   7.942   0.499 -0.2363  0.0061 -0.3807
36051SOL    HW114116   6.963   7.924   0.589 -1.4045 -2.2459 -1.0755
36051SOL    HW214117   6.907   7.969   0.456  0.5543  2.3818 -0.5371
36052SOL     OW14118   9.973   0.195   3.401  0.3995  0.4188  0.2476
36052SOL    HW114119  10.061   0.164   3.376 -0.0873 -0.4713 -0.4346
36052SOL    HW214120   9.944   0.245   3.325 -0.1308 -0.2599 -0.0053
36053SOL     OW14121   8.592   2.793   5.628  0.2328 -0.2379 -0.0094
36053SOL    HW114122   8.601   2.888   5.618 -1.6378 -0.2614 -2.8289
36053SOL    HW214123   8.583   2.759   5.539 -1.8908 -2.7210  0.9997
36054SOL     OW14124   9.346   2.600   4.304 -0.4775  0.0085 -0.1198
36054SOL    HW114125   9.333   2.656   4.227  0.2711 -0.8472 -0.9000
36054SOL    HW214126   9.282   2.631   4.367 -0.9206  0.9278 -0.9886
36055SOL     OW14127   2.565   3.296   7.979  0.2446  0.0139 -0.2034
36055SOL    HW114128   2.545   3.390   7.978  0.4206  0.0704  0.5898
36055SOL    HW214129   2.492   3.256   8.026  1.5764  0.1561  2.2029
36056SOL     OW14130   2.078   4.152   6.055  0.5778  0.6919 -0.0064
36056SOL    HW114131   2.118   4.238   6.059 -0.5411  1.2674 -0.6476
36056SOL    HW214132   2.138   4.095   6.104  1.1126  1.9098  0.8032
36057SOL     OW14133   2.970  12.327   0.414 -1.2892  0.3742  0.1009
36057SOL    HW114134   2.980  12.403   0.472  0.7681 -0.1339  0.4723
36057SOL    HW214135   3.040  12.336   0.350 -1.3672 -0.9078 -0.1945
36058SOL     OW14136   6.170   5.414   9.027  0.3180 -0.7743 -0.6741
36058SOL    HW114137   6.155   5.506   9.004 -2.8668 -0.5625  1.5712
36058SOL    HW214138   6.159   5.366   8.945  0.7881  0.7031 -1.6398
36059SOL     OW14139  12.125   9.890   3.850 -0.4344  0.2086 -0.3408
36059SOL    HW114140  12.196   9.933   3.897 -1.2733  2.7301 -1.2119
36059SOL    HW214141  12.156   9.801   3.834  2.5239  1.2185 -0.6867
36060SOL     OW14142   8.564   9.311   8.158  0.4762 -0.4494  0.1833
36060SOL    HW114143   8.553   9.400   8.125  1.0874 -0.2026  0.6371
36060SOL    HW214144   8.659   9.296   8.156  0.3824 -1.0720  0.1552
36061SOL     OW14145  12.456   0.417   7.518 -0.5478  0.2901  0.2665
36061SOL    HW114146  12.499   0.496   7.484 -1.2326  0.1882 -0.8819
36061SOL    HW214147  12.479   0.348   7.454  0.6158 -0.6261  1.6098
36062SOL     OW14148   4.069   1.280   7.150 -0.3155  0.0693 -0.1602
36062SOL    HW114149   4.001   1.233   7.103 -0.0899 -1.0910  0.6393
36062SOL    HW214150   4.083   1.360   7.098 -0.6050 -0.8015 -1.6330
36063SOL     OW14151   8.571  11.129  10.349 -0.2634  0.2407 -0.0793
36063SOL    HW114152   8.485  11.089  10.358 -0.4393  0.7295  0.5341
36063SOL    HW214153   8.603  11.100  10.264 -0.4775 -1.0048  0.2496
36064SOL     OW14154  11.842   5.114   5.034 -0.0475 -0.4731 -0.1253
36064SOL    HW114155  11.879   5.157   4.956 -0.4341 -1.3214 -0.7804
36064SOL    HW214156  11.854   5.179   5.104  1.0473 -0.0141 -0.7041
36065SOL     OW14157   9.874  10.999   7.737 -0.0464 -1.0205  0.2242
36065SOL    HW114158   9.946  10.942   7.765  1.1466  0.5336  0.4343
36065SOL    HW214159   9.831  11.024   7.818  2.7166  2.5683  0.8233
36066SOL     OW14160   2.983   0.347  11.146 -0.3776 -0.2664 -0.7471
36066SOL    HW114161   2.980   0.377  11.237  2.2428  1.1784 -1.0395
36066SOL    HW214162   3.023   0.260  11.150  3.4332  1.2854 -0.6206
36067SOL     OW14163   2.189   6.984   7.989 -0.5391 -0.0650 -0.4523
36067SOL    HW114164   2.110   6.942   7.954  0.2356 -2.9198  0.9430
36067SOL    HW214165   2.161   7.020   8.073 -0.2329 -1.8102  0.4329
36068SOL     OW14166  11.914   3.295  10.850  0.2930  0.2476  0.1401
36068SOL    HW114167  11.873   3.210  10.867 -0.7703  0.8547  0.6824
36068SOL    HW214168  11.939   3.292  10.758 -0.3792 -0.3912 -0.0245
36069SOL     OW14169  11.619   6.044  11.941 -0.2950  0.3396 -0.0503
36069SOL    HW114170  11.710   6.038  11.970 -0.6189  1.3970  1.2724
36069SOL    HW214171  11.622   6.103  11.866  0.2580 -0.6568 -0.8432
36070SOL     OW14172   0.552   3.380   9.885  0.0010 -0.2988  0.1955
36070SOL    HW114173   0.526   3.469   9.908 -0.9577 -0.4925 -0.1064
36070SOL    HW214174   0.470   3.333   9.871  0.5029 -1.0641 -0.2956
36071SOL     OW14175   6.208  11.248   9.298  0.0960 -0.0315 -0.4734
36071SOL    HW114176   6.123  11.220   9.333  0.7342 -0.7901  0.5135
36071SOL    HW214177   6.254  11.166   9.279  0.7093  0.3721 -0.7600
36072SOL     OW14178   1.874  11.654   5.546  0.3060 -0.5702 -0.7511
36072SOL    HW114179   1.957  11.612   5.567  0.3154 -0.8749 -1.3641
36072SOL    HW214180   1.835  11.597   5.479  0.8896  1.0488 -2.5596
36073SOL     OW14181   5.667   9.438   9.885  0.3823  0.1674  0.1526
36073SOL    HW114182   5.762   9.436   9.879  0.3650 -1.4575  0.0424
36073SOL    HW214183   5.645   9.366   9.944 -0.8031  0.2347 -0.1768
36074SOL     OW14184   3.700   5.112   8.227  0.5199  0.9039 -0.4518
36074SOL    HW114185   3.622   5.143   8.181 -0.2504  1.7073  1.3196
36074SOL    HW214186   3.702   5.162   8.309  1.7248 -0.5906  0.4912
36075SOL     OW14187   7.756   9.988  11.949 -0.6268  0.3655  0.1048
36075SOL    HW114188   7.667  10.001  11.917 -0.1770 -0.7783 -1.7643
36075SOL    HW214189   7.755   9.899  11.986 -0.9138  1.3456  2.6799
36076SOL     OW14190   4.442   8.795   0.205  0.1594 -0.0620  0.1987
36076SOL    HW114191   4.386   8.859   0.249  0.1796 -0.1715  0.3870
36076SOL    HW214192   4.496   8.759   0.275  1.4496  1.0407 -0.1998
36077SOL     OW14193   1.141   8.893   8.411  0.2828 -0.1096  0.4280
36077SOL    HW114194   1.214   8.892   8.349 -1.3406  0.6302 -1.6075
36077SOL    HW214195   1.131   8.985   8.435  0.4625 -0.3056  1.3210
36078SOL     OW14196   1.121   6.998   0.880  0.4300  0.1760  0.3071
36078SOL    HW114197   1.195   6.969   0.934 -0.6145  2.5837  3.3318
36078SOL    HW214198   1.061   6.924   0.882  2.5272 -1.7795 -2.0930
36079SOL     OW14199   9.803   5.402   6.717  0.8480  0.4058 -0.4921
36079SOL    HW114200   9.741   5.408   6.790  3.3752 -1.2524  1.9961
36079SOL    HW214201   9.817   5.493   6.690 -1.2609  0.9485  0.0769
36080SOL     OW14202   6.282   8.079  11.065 -0.1455 -0.3595  0.3279
36080SOL    HW114203   6.298   8.087  10.971 -1.2035 -0.2988  0.1461
36080SOL    HW214204   6.351   8.133  11.105  1.8744 -2.3569 -0.2663
36081SOL     OW14205   0.080   6.603   8.039 -0.5332 -0.0585  0.0311
36081SOL    HW114206   0.023   6.631   8.110  0.6360 -0.9250  1.3833
36081SOL    HW214207   0.055   6.512   8.023 -0.5633  0.0297 -0.4400
36082SOL     OW14208   1.856   0.825   3.291  0.2636  0.4016 -0.2302
36082SOL    HW114209   1.885   0.898   3.236  3.1551 -0.3732  0.1077
36082SOL    HW214210   1.843   0.752   3.230 -1.7281  0.8675 -0.4476
36083SOL     OW14211   0.392  11.923  10.870  0.0717 -0.3838  0.4019
36083SOL    HW114212   0.351  12.007  10.889  1.0499  0.4680 -1.0941
36083SOL    HW214213   0.486  11.938  10.886  0.4994 -0.5999 -1.6715
36084SOL     OW14214   6.584   6.846   2.447  0.5068  0.2275 -0.3051
36084SOL    HW114215   6.668   6.818   2.411  0.6251  0.5872 -0.3053
36084SOL    HW214216   6.535   6.764   2.458  0.3402  0.1361 -1.6011
36085SOL     OW14217   4.841   2.707   9.814  0.3330 -0.2494 -0.6874
36085SOL    HW114218   4.779   2.713   9.741 -2.1653 -0.8622  1.2350
36085SOL    HW214219   4.838   2.615   9.840  1.0243  0.0009  0.3054
36086SOL     OW14220   3.410  11.639   8.217 -0.3539  0.1466 -0.1451
36086SOL    HW114221   3.356  11.657   8.294  0.9394  1.8656  0.4373
36086SOL    HW214222   3.472  11.572   8.246 -0.2230  0.3963  0.1718
36087SOL     OW14223   5.809   4.479   9.353  0.1260 -0.2900  0.4242
36087SOL    HW114224   5.727   4.511   9.317 -1.3911 -0.9692  3.0366
36087SOL    HW214225   5.801   4.383   9.351  1.9897 -0.4973 -1.5895
36088SOL     OW14226   5.101   7.397   6.892 -0.2463  0.2104 -0.2764
36088SOL    HW114227   5.056   7.481   6.888 -0.2731  0.2604  0.7092
36088SOL    HW214228   5.173   7.405   6.830 -0.6501  0.7086 -0.6895
36089SOL     OW14229   3.217   7.439  10.365  0.4423  0.0992  0.7471
36089SOL    HW114230   3.140   7.408  10.412 -0.0661  0.2607  0.0293
36089SOL    HW214231   3.290   7.389  10.403 -0.3504 -2.1304 -0.4329
36090SOL     OW14232   1.177   9.287  10.068 -0.1680  0.5765 -0.5504
36090SOL    HW114233   1.124   9.249  10.139 -0.2062  1.3977 -0.1253
36090SOL    HW214234   1.164   9.228   9.994 -0.1652 -0.2689  0.1111
36091SOL     OW14235   4.818   9.268  10.606 -0.8602  0.1022  0.3369
36091SOL    HW114236   4.772   9.255  10.523  0.5400  0.4832 -0.5308
36091SOL    HW214237   4.869   9.188  10.618  1.1367  1.1526 -0.6588
36092SOL     OW14238   5.791   7.578   7.178  0.4046 -0.3961 -0.5559
36092SOL    HW114239   5.867   7.599   7.231 -0.7802  1.9181  0.3657
36092SOL    HW214240   5.766   7.489   7.206  0.3645  0.3847  2.1466
36093SOL     OW14241   1.585   1.440   4.974  0.4585  0.1648  0.0345
36093SOL    HW114242   1.597   1.534   4.963  1.6687  0.0001 -0.1869
36093SOL    HW214243   1.496   1.431   5.008  0.4703  1.4117  0.4360
36094SOL     OW14244   7.605   0.219   7.404  0.2382 -0.4971  0.0379
36094SOL    HW114245   7.581   0.305   7.371 -0.2757 -0.4777  0.4616
36094SOL    HW214246   7.634   0.171   7.326  1.0742  0.2294 -0.1203
36095SOL     OW14247   2.614   4.557   7.248  0.4325  0.1121  0.4409
36095SOL    HW114248   2.621   4.548   7.343  0.3407  1.8673  0.6480
36095SOL    HW214249   2.532   4.515   7.226  1.1753 -1.6633  0.9122
36096SOL     OW14250  11.865   6.785  11.866 -0.0911  0.6871 -0.2656
36096SOL    HW114251  11.837   6.865  11.821  1.1126  0.3253 -1.7460
36096SOL    HW214252  11.954   6.771  11.836 -0.7751 -2.0661 -1.3207
36097SOL     OW14253   0.346   8.531   1.829  0.0349  0.3409 -0.1532
36097SOL    HW114254   0.392   8.525   1.912  2.5900 -2.0620 -1.5609
36097SOL    HW214255   0.342   8.624   1.809  0.9839  0.8317  1.8027
36098SOL     OW14256  11.183   2.158   8.758 -0.4266  0.2225 -0.1180
36098SOL    HW114257  11.093   2.190   8.753 -0.1822  1.4783  2.2808
36098SOL    HW214258  11.174   2.064   8.774 -1.3840  0.5140  1.2812
36099SOL     OW14259   3.511   4.680   6.027  0.4739 -0.1590 -0.0336
36099SOL    HW114260   3.446   4.711   6.090 -1.6033 -0.3798 -1.9220
36099SOL    HW214261   3.547   4.600   6.066 -0.2668  0.0545  1.1282
36100SOL     OW14262   2.253   4.770   7.996 -0.0139 -0.0511  0.2605
36100SOL    HW114263   2.245   4.675   7.992  1.2256 -0.3429  2.5923
36100SOL    HW214264   2.345   4.787   7.978 -0.3212  0.7702 -0.5929
36101SOL     OW14265  12.170   7.817   4.869 -0.1303  0.2462 -0.2873
36101SOL    HW114266  12.202   7.895   4.824 -0.6307  0.6295  0.0112
36101SOL    HW214267  12.091   7.846   4.915  0.6338 -0.0105  1.2488
36102SOL     OW14268   4.467   4.075   2.566 -0.3124 -0.1293 -0.1828
36102SOL    HW114269   4.418   4.054   2.486  0.2341  1.5718 -1.0231
36102SOL    HW214270   4.420   4.150   2.603 -0.2807 -0.6113  0.8662
36103SOL     OW14271   1.857   1.811   3.206 -0.1035 -0.1718 -0.7673
36103SOL    HW114272   1.859   1.890   3.258 -1.7181  0.7471 -1.9916
36103SOL    HW214273   1.948   1.784   3.197  0.5100  1.7918 -0.6757
36104SOL     OW14274   7.980   9.945  10.479 -0.0184  0.6252 -0.2211
36104SOL    HW114275   7.946   9.956  10.568 -1.9131 -2.4169 -0.4361
36104SOL    HW214276   8.075   9.934  10.491 -0.3408 -0.5847  1.5559
36105SOL     OW14277   7.277   8.403   0.684 -0.8254 -0.3201 -0.6818
36105SOL    HW114278   7.300   8.422   0.593 -1.0609 -0.0923 -0.6934
36105SOL    HW214279   7.215   8.330   0.678 -1.7018  0.4132 -0.7750
36106SOL     OW14280   0.211   3.193   9.002 -0.4411  0.4296 -0.1685
36106SOL    HW114281   0.271   3.147   9.061  0.3156  1.0790 -0.4040
36106SOL    HW214282   0.208   3.282   9.037 -0.7644  0.5676 -0.5420
36107SOL     OW14283   1.846  11.276   9.905 -0.2398  0.2603 -0.1540
36107SOL    HW114284   1.929  11.232   9.888  0.7937  1.7743  0.8350
36107SOL    HW214285   1.869  11.357   9.949 -2.2965  0.3904  0.8212
36108SOL     OW14286   5.413   6.914  11.835 -0.3600 -0.2509 -0.8409
36108SOL    HW114287   5.449   6.997  11.803  0.4505  0.0862  0.8203
36108SOL    HW214288   5.424   6.854  11.762  1.4306  0.4613 -1.2177
36109SOL     OW14289  12.039   0.460   3.304 -0.7148  0.0719  0.0785
36109SOL    HW114290  11.996   0.516   3.241 -1.2520 -0.5090 -0.0843
36109SOL    HW214291  12.098   0.518   3.352 -1.6495  0.8759  0.2857
36110SOL     OW14292  10.779  12.414   7.920  0.4601 -0.3494 -0.0941
36110SOL    HW114293  10.779  12.323   7.892 -0.1153 -0.1737 -0.6962
36110SOL    HW214294  10.787  12.410   8.015 -0.1975 -1.0506 -0.0595
36111SOL     OW14295   1.162   1.282   5.686  0.2058 -0.2118  0.2524
36111SOL    HW114296   1.146   1.272   5.780 -1.0538 -1.4772 -0.0637
36111SOL    HW214297   1.090   1.339   5.656 -0.0983 -0.7915 -0.1356
36112SOL     OW14298  10.863   5.528   2.790 -0.3030  0.4301  0.0726
36112SOL    HW114299  10.883   5.477   2.711  1.7131  1.2704 -0.0160
36112SOL    HW214300  10.835   5.613   2.757  3.1599  1.7469  0.1373
36113SOL     OW14301  10.995   5.692   6.153 -0.5501 -0.6849  0.2903
36113SOL    HW114302  10.914   5.674   6.201 -1.2767 -0.5982 -0.8592
36113SOL    HW214303  10.987   5.641   6.072  0.4816 -0.5495  0.0879
36114SOL     OW14304   8.509   7.469   1.111 -0.3290 -0.4209  0.0311
36114SOL    HW114305   8.604   7.480   1.114 -0.2214 -1.1389 -0.4596
36114SOL    HW214306   8.489   7.415   1.188 -0.4757  0.5733  0.7079
36115SOL     OW14307  10.355   0.823   0.530  0.6738 -0.4188  0.1494
36115SOL    HW114308  10.402   0.745   0.504 -0.7621 -0.9645 -0.9646
36115SOL    HW214309  10.413   0.867   0.592  1.9022 -1.8738  0.0823
36116SOL     OW14310   2.949  11.427   3.984  0.6580  0.2155 -0.5085
36116SOL    HW114311   2.930  11.506   3.934 -1.2194  0.4449  0.4810
36116SOL    HW214312   3.043  11.413   3.971  1.3621  3.3414  0.3040
36117SOL     OW14313  10.705   5.049  11.247  0.0587  0.2062 -0.4231
36117SOL    HW114314  10.789   5.091  11.266  0.5459  0.2195 -2.4518
36117SOL    HW214315  10.715   5.011  11.160 -2.4317  1.3083 -1.2929
36118SOL     OW14316   0.672   6.896  11.942 -0.0616  0.1033  0.2360
36118SOL    HW114317   0.596   6.947  11.969  0.1885 -0.0448  1.2624
36118SOL    HW214318   0.715   6.872  12.024  1.3782  0.6138 -0.3353
36119SOL     OW14319   1.725   3.122   9.072 -0.2608 -0.1472 -0.1465
36119SOL    HW114320   1.650   3.139   9.016  0.3592  1.5404 -0.5439
36119SOL    HW214321   1.722   3.192   9.138  1.7821  0.9078 -1.0944
36120SOL     OW14322   7.519   2.729  10.954 -0.4303  0.1924 -0.1789
36120SOL    HW114323   7.536   2.801  10.894 -1.4341  0.2131 -0.4569
36120SOL    HW214324   7.488   2.657  10.899 -1.4755  0.2511  0.3021
36121SOL     OW14325  10.787   8.856   1.269 -0.0639  0.0827 -0.7825
36121SOL    HW114326  10.841   8.777   1.269  2.4555  1.6825 -1.4528
36121SOL    HW214327  10.799   8.893   1.356  0.5168  0.7871 -1.1487
36122SOL     OW14328   6.513   8.539   5.647 -0.0782  0.1650  0.1556
36122SOL    HW114329   6.448   8.576   5.708  1.3014  3.4037 -0.1307
36122SOL    HW214330   6.597   8.561   5.686  0.8326  0.5847 -1.9501
36123SOL     OW14331   1.824  10.213   5.084  0.1239 -0.9981  0.1888
36123SOL    HW114332   1.823  10.294   5.135  0.0626 -1.4298  0.8921
36123SOL    HW214333   1.916  10.187   5.081  0.4245  0.1618 -1.7944
36124SOL     OW14334   7.974   7.826   8.076  0.0103  0.0451  0.1171
36124SOL    HW114335   8.047   7.765   8.085  0.9056  0.9634 -0.7049
36124SOL    HW214336   8.012   7.911   8.100 -1.5858  0.1132  2.7791
36125SOL     OW14337  10.994   0.944  12.249  0.3804 -0.6986  0.7069
36125SOL    HW114338  10.961   0.868  12.298  0.0036 -1.3471 -0.5025
36125SOL    HW214339  10.964   0.929  12.160  4.1196 -1.4684 -0.5966
36126SOL     OW14340   8.503  12.136  12.388 -0.2009  0.0153 -0.0550
36126SOL    HW114341   8.588  12.181  12.385 -0.8293  1.2671  0.2639
36126SOL    HW214342   8.440  12.202  12.357 -1.3299 -0.1840  1.6837
36127SOL     OW14343   5.850   5.488   6.136  0.1440 -0.0899  0.5090
36127SOL    HW114344   5.819   5.500   6.226 -0.5813  0.4121  0.2006
36127SOL    HW214345   5.805   5.410   6.106  0.5708 -0.3958  0.6560
36128SOL     OW14346   3.073   6.849   9.309  0.2001  0.1674 -0.1577
36128SOL    HW114347   2.994   6.824   9.357  1.2391  2.7238  3.3374
36128SOL    HW214348   3.130   6.772   9.315 -1.3351 -1.1390 -1.3433
36129SOL     OW14349   6.390   4.933   0.434 -0.1852  0.1822 -0.1983
36129SOL    HW114350   6.424   5.021   0.449  0.4452 -0.2561  1.0820
36129SOL    HW214351   6.461   4.875   0.462 -0.3176 -0.7488 -1.6784
36130SOL     OW14352   1.937  10.643  10.208 -0.4946  0.1388 -0.7542
36130SOL    HW114353   1.983  10.592  10.141  0.8617 -1.1577  1.0416
36130SOL    HW214354   2.007  10.691  10.253 -1.3530  0.8995 -0.1888
36131SOL     OW14355   0.137   1.789   5.390  0.5097 -0.1397 -0.0726
36131SOL    HW114356   0.190   1.737   5.329  0.2824 -1.2476  0.6372
36131SOL    HW214357   0.118   1.729   5.462  0.4505  1.0244  0.9158
36132SOL     OW14358   9.084   1.594  12.204 -0.1783 -0.1874  0.0203
36132SOL    HW114359   9.053   1.677  12.239  0.7082 -0.3827  1.3145
36132SOL    HW214360   9.154   1.618  12.143 -0.5553  0.0490 -0.3312
36133SOL     OW14361  10.368   6.684   8.101  0.1179  0.6898  0.4543
36133SOL    HW114362  10.424   6.736   8.044 -1.1403  1.4616 -0.1373
36133SOL    HW214363  10.384   6.718   8.188 -1.3440  2.7896 -0.0152
36134SOL     OW14364   3.063   2.362   5.840  0.2132  0.0879 -0.6279
36134SOL    HW114365   3.105   2.375   5.925  0.4767  2.2241 -1.0409
36134SOL    HW214366   3.130   2.318   5.787  0.0583 -1.2320  0.2131
36135SOL     OW14367  12.085   5.229  10.909 -0.3183  0.5433 -0.1790
36135SOL    HW114368  12.052   5.318  10.918  0.2302  0.7643 -0.3809
36135SOL    HW214369  12.174   5.232  10.945 -0.4460 -0.0146  0.2016
36136SOL     OW14370   4.878   9.568   5.275 -0.4493  0.2328  0.2068
36136SOL    HW114371   4.877   9.640   5.212 -0.9067  0.1279  0.0885
36136SOL    HW214372   4.856   9.491   5.223 -1.5648  0.2542  0.6196
36137SOL     OW14373  10.069   3.847   1.277 -0.4457  0.4871  0.3834
36137SOL    HW114374  10.082   3.756   1.303  2.8994  0.7418  0.0212
36137SOL    HW214375  10.033   3.843   1.189  1.3025 -0.5605 -0.3182
36138SOL     OW14376   1.053   3.180   3.536  0.0092  0.1395 -0.0616
36138SOL    HW114377   1.087   3.251   3.589  0.0248 -0.1341  0.3027
36138SOL    HW214378   0.960   3.174   3.559  0.1005 -0.2251  0.2148
36139SOL     OW14379   0.903   4.999   1.599  0.5819  0.1830  0.2401
36139SOL    HW114380   0.822   5.049   1.610  0.4927 -0.2473  1.8760
36139SOL    HW214381   0.968   5.064   1.573 -0.0720  0.7000 -0.1352
36140SOL     OW14382  11.458   0.556   5.343 -0.3746  0.2773 -0.2079
36140SOL    HW114383  11.424   0.467   5.330  0.2162  0.0231 -0.0625
36140SOL    HW214384  11.442   0.574   5.435 -1.3554  0.7018 -0.4456
36141SOL     OW14385  10.600   2.973   3.556  0.7589 -0.3460  0.1028
36141SOL    HW114386  10.557   2.917   3.620  0.5742 -0.0137  0.2704
36141SOL    HW214387  10.641   3.043   3.608  1.6252 -0.7398 -0.0440
36142SOL     OW14388   3.899   8.341   7.045  0.0228  0.5103 -0.0697
36142SOL    HW114389   3.936   8.278   6.984  0.5002  0.3348  0.3905
36142SOL    HW214390   3.973   8.369   7.099 -0.2745  1.1244  0.0276
36143SOL     OW14391   6.621   3.257   2.940  0.7020 -0.3689 -0.5089
36143SOL    HW114392   6.668   3.175   2.950  1.1389 -0.2096 -1.1915
36143SOL    HW214393   6.537   3.242   2.982  0.9568 -1.0075 -0.2159
36144SOL     OW14394   5.334   1.293   5.570  0.5228  0.7771 -0.1300
36144SOL    HW114395   5.397   1.307   5.641  1.1583  2.0213 -0.8879
36144SOL    HW214396   5.356   1.361   5.505 -1.8551  1.5107 -0.2674
36145SOL     OW14397  11.484   7.650   7.565 -0.3508 -0.2912  0.2013
36145SOL    HW114398  11.540   7.728   7.570  0.2164 -0.6158 -0.7940
36145SOL    HW214399  11.402   7.677   7.605  0.3806  0.3179  1.3551
36146SOL     OW14400   3.140   2.080   6.866 -0.3166 -0.1135  0.0399
36146SOL    HW114401   3.095   2.107   6.947 -0.2052 -2.4121  0.9423
36146SOL    HW214402   3.228   2.056   6.894 -0.0421 -0.2410 -0.8968
36147SOL     OW14403   6.912   8.403   0.382 -0.6337 -0.2730  0.6834
36147SOL    HW114404   6.990   8.437   0.424 -0.8793  0.8446  0.2661
36147SOL    HW214405   6.872   8.346   0.448  1.5406 -2.4763  0.2264
36148SOL     OW14406   5.884  10.521   4.983  0.2253  0.7585  0.6959
36148SOL    HW114407   5.914  10.475   4.905  0.6896  0.0060  1.3028
36148SOL    HW214408   5.788  10.514   4.980  0.2957 -1.2836  1.3459
36149SOL     OW14409   4.435   1.267   5.962 -0.7901 -0.6939 -0.4220
36149SOL    HW114410   4.478   1.243   6.044 -0.8872  0.7082  0.0673
36149SOL    HW214411   4.504   1.309   5.910 -0.8695 -1.0684 -0.8382
36150SOL     OW14412   9.887   7.152   0.102 -0.1145  0.7717 -0.3507
36150SOL    HW114413   9.835   7.190   0.173  0.0009  0.7470 -0.2511
36150SOL    HW214414   9.900   7.061   0.129  1.9599  1.3335  0.7933
36151SOL     OW14415   8.163   2.091  10.780  0.2780 -0.3254  0.0817
36151SOL    HW114416   8.246   2.076  10.734  0.7534  0.0899  0.7741
36151SOL    HW214417   8.124   2.004  10.788  0.4680 -0.4756 -0.5862
36152SOL     OW14418   1.635   4.511   1.877  0.6100  0.4285  0.4304
36152SOL    HW114419   1.577   4.466   1.940 -0.4761  0.6836 -0.3574
36152SOL    HW214420   1.655   4.445   1.811  1.5724  0.2241  0.9129
36153SOL     OW14421  11.199   8.001   8.950  0.0416 -0.4048  0.2594
36153SOL    HW114422  11.209   7.907   8.965 -2.1228 -0.8356 -0.6192
36153SOL    HW214423  11.200   8.039   9.038 -1.7216 -1.6098  0.8745
36154SOL     OW14424   9.569  10.869   3.248  0.4387  0.1935  0.0507
36154SOL    HW114425   9.508  10.797   3.264  1.7648 -1.8368 -3.0725
36154SOL    HW214426   9.513  10.943   3.226 -0.9756 -0.9411 -0.3420
36155SOL     OW14427  12.403   3.063  11.076 -0.0435  0.4435 -0.6407
36155SOL    HW114428  12.497   3.084  11.075  0.0695  0.1610  1.3062
36155SOL    HW214429  12.398   2.981  11.125 -1.4473  1.2525  0.6148
36156SOL     OW14430   5.759   5.366  12.267  0.3838 -0.5875  0.1080
36156SOL    HW114431   5.704   5.443  12.255  0.1236 -0.8357 -0.3080
36156SOL    HW214432   5.726   5.324  12.346 -0.0918 -0.7914 -0.1976
36157SOL     OW14433   6.407   9.644   7.522  0.0815 -0.4690 -0.3408
36157SOL    HW114434   6.369   9.560   7.548  0.2823 -0.5702 -0.3782
36157SOL    HW214435   6.338   9.708   7.541 -0.2709 -0.7012 -0.7992
36158SOL     OW14436   9.852  10.269  11.579  0.1467  0.2872  0.0582
36158SOL    HW114437   9.894  10.318  11.509 -0.3255  1.3575  0.5037
36158SOL    HW214438   9.881  10.311  11.659  1.1332 -1.2842  0.5763
36159SOL     OW14439   0.414   4.147   2.266 -0.2985 -0.0190 -0.1466
36159SOL    HW114440   0.336   4.096   2.287 -0.9955  0.6903 -0.9301
36159SOL    HW214441   0.459   4.096   2.198 -0.4293 -0.1123 -0.1636
36160SOL     OW14442   3.558   9.368   3.415  0.3507  0.0808  0.4649
36160SOL    HW114443   3.617   9.417   3.472 -0.0314  0.4666  0.5269
36160SOL    HW214444   3.471   9.379   3.454  0.2921 -0.8279  0.6080
36161SOL     OW14445  10.151   6.001   9.255  0.4205  0.1543  0.0345
36161SOL    HW114446  10.090   5.930   9.235  0.9304 -0.4971  0.7362
36161SOL    HW214447  10.189   6.025   9.171 -1.2247  0.9871 -0.5197
36162SOL     OW14448   6.469   3.427   7.394  1.1427 -0.1283 -0.3748
36162SOL    HW114449   6.450   3.518   7.371  0.8696 -0.2961 -0.8247
36162SOL    HW214450   6.563   3.426   7.411  1.0751  0.3218  0.0419
36163SOL     OW14451  11.468   9.846   7.794 -0.4581  0.0875  0.2307
36163SOL    HW114452  11.544   9.860   7.850  0.2067  0.8476 -0.8172
36163SOL    HW214453  11.397   9.894   7.836  0.7132  3.0985 -1.0071
36164SOL     OW14454   4.016   7.711   3.925  0.3425  0.4418  0.8077
36164SOL    HW114455   3.930   7.681   3.896  0.2882  1.4201 -0.1061
36164SOL    HW214456   4.051   7.758   3.849  0.9842  1.4854  1.7295
36165SOL     OW14457   5.461   2.530   6.598  0.2202  0.0086  0.2910
36165SOL    HW114458   5.496   2.448   6.632  1.1722 -0.4334 -1.6225
36165SOL    HW214459   5.517   2.598   6.636 -1.0246 -0.0935  2.4746
36166SOL     OW14460  10.128   7.419  12.045 -0.4196  0.7778 -0.3988
36166SOL    HW114461  10.067   7.459  12.107 -0.3197 -0.6075  0.6368
36166SOL    HW214462  10.142   7.331  12.078  1.1373  0.6227 -1.3473
36167SOL     OW14463   2.243   8.253  11.994  0.2345 -0.2746 -0.1591
36167SOL    HW114464   2.165   8.199  11.980  0.4137 -0.1396 -1.9009
36167SOL    HW214465   2.248   8.308  11.915  1.4372  0.5352  0.4644
36168SOL     OW14466   2.646   5.476  10.693  0.1415  0.4118  0.1596
36168SOL    HW114467   2.719   5.414  10.695  1.4337  1.8946  0.7638
36168SOL    HW214468   2.570   5.424  10.721  0.4665 -1.6883 -2.3944
36169SOL     OW14469   6.653   8.326  10.928 -0.2937  0.2516 -0.1841
36169SOL    HW114470   6.744   8.305  10.950  0.1053  0.5166 -1.4957
36169SOL    HW214471   6.621   8.249  10.882 -0.3664  0.6083 -0.7328
36170SOL     OW14472   5.279   0.469   3.725  0.2570 -0.3675 -0.1575
36170SOL    HW114473   5.279   0.502   3.635 -2.3301 -1.5878 -0.6895
36170SOL    HW214474   5.342   0.525   3.770  0.6634  1.1481 -2.4058
36171SOL     OW14475   6.815   5.613   4.198 -0.0048 -0.1726 -0.5271
36171SOL    HW114476   6.739   5.602   4.142 -0.2186  1.0098 -0.4944
36171SOL    HW214477   6.819   5.707   4.216 -0.1750 -0.5252  1.7452
36172SOL     OW14478   3.393   1.689   7.283 -0.2098  0.2035  0.0556
36172SOL    HW114479   3.383   1.600   7.316  0.8320  0.5446  1.3653
36172SOL    HW214480   3.479   1.690   7.241 -0.5196  0.4124 -0.5870
36173SOL     OW14481   7.148   2.066  11.854 -0.1693  0.6595  0.6243
36173SOL    HW114482   7.238   2.035  11.841 -0.5894 -0.5720  0.5567
36173SOL    HW214483   7.147   2.153  11.815  1.0412  0.7624  0.7888
36174SOL     OW14484   8.239  10.234   3.695  0.1457  0.2818  0.7364
36174SOL    HW114485   8.283  10.316   3.673 -0.3109 -0.0187 -1.5634
36174SOL    HW214486   8.157  10.260   3.735  0.4248  0.9313  0.8911
36175SOL     OW14487   8.625   9.046   8.702 -0.3196  0.1457 -0.0095
36175SOL    HW114488   8.583   9.121   8.743  1.4153  0.7927  0.6963
36175SOL    HW214489   8.714   9.046   8.738 -0.5270 -2.7936  0.6737
36176SOL     OW14490   0.483   0.057   8.032 -0.1900  0.0648  0.0274
36176SOL    HW114491   0.418  -0.010   8.009  0.2079 -0.3060 -0.0399
36176SOL    HW214492   0.492   0.109   7.953 -0.6880  0.3612  0.1588
36177SOL     OW14493   8.301   1.680   3.227 -0.3582 -0.1763 -0.2775
36177SOL    HW114494   8.389   1.692   3.192 -0.5686  1.1520 -0.3967
36177SOL    HW214495   8.314   1.630   3.308  0.3610 -1.1263 -0.9573
36178SOL     OW14496  10.445  12.471   2.619  0.4109  0.0343  0.1088
36178SOL    HW114497  10.378  12.468   2.550  1.0538  1.3659 -0.6012
36178SOL    HW214498  10.396  12.487   2.700 -0.3535 -1.5242 -0.0021
36179SOL     OW14499  10.865   1.909   7.815 -0.0287  0.2705 -0.1767
36179SOL    HW114500  10.938   1.861   7.776 -0.7262 -0.8563 -0.1353
36179SOL    HW214501  10.787   1.863   7.784 -0.6582  0.5327  0.9756
36180SOL     OW14502   3.749   7.751   4.652 -0.3962 -0.2860  0.6252
36180SOL    HW114503   3.827   7.696   4.648 -0.9658 -1.1142  0.7680
36180SOL    HW214504   3.753   7.804   4.572 -0.2380 -1.0854  0.0896
36181SOL     OW14505   3.722   0.742  12.155  0.3557  0.3309 -0.4700
36181SOL    HW114506   3.786   0.799  12.199  1.0220  0.5317 -1.6668
36181SOL    HW214507   3.740   0.753  12.062 -0.4976 -0.7088 -0.7759
36182SOL     OW14508   3.987   0.938   9.810  0.3394 -0.1419 -0.3840
36182SOL    HW114509   3.991   0.970   9.720 -1.7715  0.0938 -0.4537
36182SOL    HW214510   3.987   0.843   9.802  1.2247 -0.1303 -0.5529
36183SOL     OW14511   8.850   7.591   0.158 -0.0726  0.0975  0.1622
36183SOL    HW114512   8.888   7.511   0.194 -2.4530 -0.1966  2.3205
36183SOL    HW214513   8.845   7.651   0.232  0.7755  1.9591 -1.2058
36184SOL     OW14514   4.177  11.142   8.787  0.2628 -0.5195 -0.6140
36184SOL    HW114515   4.116  11.080   8.828 -0.9000  0.8362 -0.1879
36184SOL    HW214516   4.178  11.117   8.695  0.1555 -1.4220 -0.3846
36185SOL     OW14517  10.568  12.065   1.214 -0.1978 -0.0401 -0.0919
36185SOL    HW114518  10.614  12.057   1.298 -0.3209  0.1237 -0.0077
36185SOL    HW214519  10.499  11.999   1.219 -0.2527  0.0217 -0.0326
36186SOL     OW14520   4.034   2.258   6.937 -0.1749 -0.7496  0.7397
36186SOL    HW114521   4.029   2.248   6.842 -0.1956 -0.8467  0.7500
36186SOL    HW214522   4.112   2.208   6.962  1.3014  1.3153  0.4968
36187SOL     OW14523   8.968   8.991   4.681 -0.4656  0.3944 -0.2598
36187SOL    HW114524   9.013   8.919   4.636 -0.8534  0.4411 -0.7294
36187SOL    HW214525   8.997   9.070   4.636 -0.2580  0.5152  0.0766
36188SOL     OW14526   6.086  12.454   5.763 -0.1865  0.2675  0.2756
36188SOL    HW114527   6.144  12.439   5.689 -1.3157 -1.2453 -0.3456
36188SOL    HW214528   6.129  12.524   5.813  0.9047  0.9044 -1.4503
36189SOL     OW14529   0.728   0.031  10.947  0.2737  0.1006 -0.0085
36189SOL    HW114530   0.745   0.121  10.971  0.4754 -0.1540  0.8377
36189SOL    HW214531   0.813  -0.005  10.924  0.0462  0.4218 -1.4519
36190SOL     OW14532   7.328  10.661   3.707 -0.0985  0.1102 -0.4744
36190SOL    HW114533   7.406  10.693   3.663 -0.5253  0.7212 -0.8009
36190SOL    HW214534   7.330  10.702   3.794 -0.2440  0.4198 -0.6154
36191SOL     OW14535   6.006   4.996   3.818 -0.2465 -0.4245 -0.1104
36191SOL    HW114536   6.046   4.985   3.904 -1.7393  0.5544  0.7516
36191SOL    HW214537   6.047   4.928   3.764  0.2981 -1.4501  1.5129
36192SOL     OW14538   8.288   6.446   4.910 -0.3996  0.3744 -0.2651
36192SOL    HW114539   8.223   6.491   4.856  0.3972 -0.0247 -1.6067
36192SOL    HW214540   8.287   6.355   4.879  0.0238  0.1112  0.4544
36193SOL     OW14541   2.962   5.584   2.083  0.1202  0.3427 -0.7955
36193SOL    HW114542   3.044   5.547   2.117 -1.4164 -1.0279  1.7504
36193SOL    HW214543   2.941   5.654   2.144 -2.2943 -1.6069  0.7839
36194SOL     OW14544   3.948  11.635  12.198  0.3377  0.1260 -0.3319
36194SOL    HW114545   3.932  11.556  12.250 -1.0515 -0.7549 -1.9936
36194SOL    HW214546   4.038  11.625  12.167  0.3861 -0.4927 -0.0154
36195SOL     OW14547  12.186   1.962   5.065 -0.2709 -0.2014 -0.3005
36195SOL    HW114548  12.199   2.040   5.119 -2.5786 -0.3495  0.6026
36195SOL    HW214549  12.247   1.973   4.992  0.1261  1.9959  0.2748
36196SOL     OW14550   3.710   9.784  11.988  0.0012  0.2713 -0.7532
36196SOL    HW114551   3.623   9.817  12.012 -0.3445  0.1058 -1.7210
36196SOL    HW214552   3.706   9.690  12.005  0.8411  0.5982  1.5851
36197SOL     OW14553  10.249   9.827   6.820  0.0021 -0.3574 -0.0484
36197SOL    HW114554  10.330   9.786   6.790  0.7030 -0.3015  1.6672
36197SOL    HW214555  10.271   9.920   6.827  0.1822 -0.4914  1.5374
36198SOL     OW14556   1.314   1.762   0.319 -0.3639  0.2872  0.1380
36198SOL    HW114557   1.227   1.800   0.331 -0.1434  1.3342 -1.3747
36198SOL    HW214558   1.300   1.686   0.262 -0.1563  1.1382 -1.0679
36199SOL     OW14559  12.408  11.299  11.268  0.4638 -0.5930 -0.3250
36199SOL    HW114560  12.383  11.214  11.233  0.9206 -0.5305 -0.8177
36199SOL    HW214561  12.346  11.361  11.227  0.7865 -0.5620 -0.7717
36200SOL     OW14562   5.219   4.672  11.192 -0.0501  0.5005 -0.0918
36200SOL    HW114563   5.266   4.588  11.198 -0.1010  0.4710 -0.1104
36200SOL    HW214564   5.166   4.664  11.113 -0.5038  0.3244  0.2241
36201SOL     OW14565   5.502   8.946   4.530 -0.2079 -0.1330  0.3342
36201SOL    HW114566   5.515   8.977   4.440  0.6200 -0.0947  0.4567
36201SOL    HW214567   5.450   8.867   4.521 -1.9358  0.9885 -0.0265
36202SOL     OW14568   7.014  10.462   1.948 -0.5202  0.2311 -0.1447
36202SOL    HW114569   7.058  10.378   1.946  0.4308  0.7252 -0.7019
36202SOL    HW214570   7.084  10.526   1.938 -1.3396  1.0549 -0.7729
36203SOL     OW14571   0.998   5.876  10.575  0.2632  0.0195  0.4007
36203SOL    HW114572   1.059   5.802  10.579 -0.4255 -0.7089 -1.3770
36203SOL    HW214573   0.914   5.835  10.553 -0.7048  1.0858  1.9542
36204SOL     OW14574   2.776   4.899   3.528  0.0320 -0.6915  0.1594
36204SOL    HW114575   2.720   4.892   3.605 -0.1150 -1.6187 -0.0190
36204SOL    HW214576   2.863   4.916   3.564 -0.3502  0.8724  0.4334
36205SOL     OW14577   0.569   3.477  10.520 -0.0851 -0.2741 -0.1079
36205SOL    HW114578   0.575   3.550  10.458 -1.2411 -0.6733 -0.7087
36205SOL    HW214579   0.647   3.425  10.502  2.0364  1.9539  1.9010
36206SOL     OW14580  11.023   1.822   0.007  0.1198  0.3569  0.1417
36206SOL    HW114581  11.103   1.824  -0.045  0.3491  0.9822  0.5090
36206SOL    HW214582  10.953   1.811  -0.058  0.4448  0.5390 -0.2472
36207SOL     OW14583   4.597   9.193   2.619 -0.0945  0.6099 -0.3383
36207SOL    HW114584   4.510   9.212   2.653  0.5358  2.3423  0.4220
36207SOL    HW214585   4.657   9.220   2.689  1.0635 -0.7762 -0.7406
36208SOL     OW14586   2.715   3.693   1.335  0.0273 -0.2896 -0.6946
36208SOL    HW114587   2.650   3.628   1.362  0.1705 -0.6572 -1.2417
36208SOL    HW214588   2.729   3.746   1.414  1.8795 -2.5192  0.6002
36209SOL     OW14589   8.011   7.649  11.834  0.4331  0.3278  0.4174
36209SOL    HW114590   7.936   7.650  11.774  1.0392 -0.6853 -0.3776
36209SOL    HW214591   8.070   7.716  11.800  0.3640  0.3988  0.4346
36210SOL     OW14592   1.081   4.962   8.952 -0.0571  0.8734  0.3039
36210SOL    HW114593   1.114   5.014   8.878  0.6418 -0.2310 -0.1855
36210SOL    HW214594   1.156   4.955   9.012  0.5283 -1.2585 -0.5952
36211SOL     OW14595   9.846   5.575  11.043 -0.3520  0.0649  0.1856
36211SOL    HW114596   9.836   5.639  11.114  1.1676 -0.8510  1.2813
36211SOL    HW214597   9.802   5.496  11.075  0.1961 -0.3002  0.0589
36212SOL     OW14598   1.975  11.002   0.796  0.2489  0.5072 -0.1220
36212SOL    HW114599   1.970  10.907   0.789  0.7361  0.4942 -0.3582
36212SOL    HW214600   1.988  11.019   0.889  0.4224  0.3282 -0.1137
36213SOL     OW14601   6.443   4.087   6.517 -0.0266 -0.3369  0.2836
36213SOL    HW114602   6.362   4.134   6.498 -0.1459 -0.8257 -0.4237
36213SOL    HW214603   6.489   4.144   6.580 -0.5155  0.3584  0.0242
36214SOL     OW14604   4.224   4.944   2.899 -0.0187  0.2224 -0.2687
36214SOL    HW114605   4.148   4.997   2.922 -1.4081 -0.8424 -2.1585
36214SOL    HW214606   4.236   4.885   2.973 -0.0043  1.4441  0.7445
36215SOL     OW14607   0.007   2.887   3.745 -0.4478 -0.4924 -0.1529
36215SOL    HW114608   0.083   2.928   3.703 -1.3821  0.5801 -0.8672
36215SOL    HW214609   0.037   2.866   3.833  1.7827 -3.3605 -1.4305
36216SOL     OW14610   7.733  10.535  12.035 -0.1722  0.2338 -0.4612
36216SOL    HW114611   7.795  10.465  12.016  1.0128  0.9056  0.7380
36216SOL    HW214612   7.736  10.545  12.130  0.7824  2.8525 -0.6896
36217SOL     OW14613   5.870   7.865   0.125  0.1075 -0.3280 -0.4564
36217SOL    HW114614   5.836   7.928   0.061 -2.0050 -0.6011  0.3240
36217SOL    HW214615   5.812   7.873   0.200  1.2239 -1.5663  0.5880
36218SOL     OW14616  12.045   0.492  11.997  0.1645 -0.1570  0.1650
36218SOL    HW114617  12.090   0.433  11.937 -0.3170 -1.1109  0.7179
36218SOL    HW214618  12.054   0.451  12.083  1.8985  1.7708  1.0104
36219SOL     OW14619  10.378   5.947   9.389 -0.1866  0.3488  0.1701
36219SOL    HW114620  10.415   6.027   9.352 -0.2690  0.5148  0.4395
36219SOL    HW214621  10.290   5.942   9.353  0.4924 -0.7159 -1.4781
36220SOL     OW14622   9.189   2.581   2.795  0.0559  0.6083  0.4768
36220SOL    HW114623   9.242   2.637   2.738  0.4445 -2.5512 -2.6475
36220SOL    HW214624   9.099   2.613   2.784  0.3156  0.9233 -0.9065
36221SOL     OW14625   8.117   3.677  12.065  0.2855  0.1584  0.6262
36221SOL    HW114626   8.177   3.630  12.123 -1.7642 -0.9898  1.9179
36221SOL    HW214627   8.162   3.677  11.980  1.9463 -0.9502  1.4462
36222SOL     OW14628   7.396   3.897   1.423 -0.8308  0.6864 -0.4318
36222SOL    HW114629   7.310   3.934   1.406 -0.1206  2.9214  0.4762
36222SOL    HW214630   7.398   3.882   1.518 -0.3823  0.1835 -0.5113
36223SOL     OW14631   2.305   0.416   0.194 -0.2675  0.6806 -0.5697
36223SOL    HW114632   2.295   0.509   0.176 -0.0151  0.2150 -3.7619
36223SOL    HW214633   2.227   0.376   0.156  0.7063 -0.5830 -1.3212
36224SOL     OW14634   6.637   6.946   7.350 -0.1801  1.2962  0.2498
36224SOL    HW114635   6.704   6.948   7.418  0.5642 -0.6461 -0.3513
36224SOL    HW214636   6.558   6.915   7.394  0.5275 -0.8415  0.1309
36225SOL     OW14637  11.184   7.243   1.447 -0.5084  0.3667 -0.0102
36225SOL    HW114638  11.212   7.215   1.534 -0.8679 -1.3638 -0.4065
36225SOL    HW214639  11.266   7.264   1.401 -0.1527 -0.6545  0.1333
36226SOL     OW14640   6.638   2.977   5.088  0.5683 -0.1521 -0.0601
36226SOL    HW114641   6.659   3.052   5.143  1.4232  0.1377 -0.7570
36226SOL    HW214642   6.637   3.012   4.999  0.2647 -0.8267 -0.3298
36227SOL     OW14643   6.482   3.717   0.504 -0.1217  0.0185 -0.0924
36227SOL    HW114644   6.401   3.741   0.457  1.1873  1.8474 -1.5706
36227SOL    HW214645   6.528   3.659   0.443  0.3520  0.1821  0.1114
36228SOL     OW14646  11.059   3.334   3.388 -0.2007  0.0443  0.1275
36228SOL    HW114647  11.055   3.314   3.294  2.1432 -1.2068  0.2196
36228SOL    HW214648  11.112   3.263   3.425 -3.0528 -0.8921  2.8410
36229SOL     OW14649   3.334   7.454   3.899 -0.7058 -0.4986 -0.3862
36229SOL    HW114650   3.248   7.437   3.939 -1.7598  0.8501 -1.9387
36229SOL    HW214651   3.315   7.514   3.827  1.8488  1.7264  0.6467
36230SOL     OW14652   7.485   0.941   8.551 -0.2809 -0.3293  0.3813
36230SOL    HW114653   7.418   0.964   8.486 -2.6677  0.9995  3.0353
36230SOL    HW214654   7.480   0.846   8.558  0.8125 -0.6260 -2.0450
36231SOL     OW14655   8.984   9.891   1.852  0.2082  0.1047 -0.3339
36231SOL    HW114656   9.039   9.967   1.870 -1.4593  1.2868  0.0711
36231SOL    HW214657   9.010   9.825   1.916  0.7599  0.8395  0.2044
36232SOL     OW14658   3.102   2.906   5.164  0.3738 -0.0944  0.1414
36232SOL    HW114659   3.194   2.914   5.188 -0.3650  1.0326  2.9461
36232SOL    HW214660   3.064   2.850   5.231 -0.6920 -2.2548 -2.0804
36233SOL     OW14661   3.671   7.402   3.605  0.1060  0.2914  0.4365
36233SOL    HW114662   3.585   7.364   3.623  0.7849 -0.9432  1.2573
36233SOL    HW214663   3.682   7.390   3.510  0.5016 -2.1806  0.7093
36234SOL     OW14664  10.558   3.524  12.374  0.0306 -0.5794 -0.0336
36234SOL    HW114665  10.618   3.539  12.301 -0.2897  0.0045 -0.1857
36234SOL    HW214666  10.572   3.433  12.399  0.8933 -0.4849 -0.1441
36235SOL     OW14667   9.335   1.415   8.045 -0.1858  0.1635  0.5119
36235SOL    HW114668   9.368   1.359   8.116  1.2039 -0.0657 -0.2936
36235SOL    HW214669   9.321   1.355   7.972 -2.4464  0.2448  0.7878
36236SOL     OW14670   4.080  10.993   0.113  0.5991  0.3237  0.1606
36236SOL    HW114671   4.047  10.976   0.024  1.2045 -1.1264  0.1903
36236SOL    HW214672   4.164  11.036   0.099  0.4526  0.5822  0.0497
36237SOL     OW14673   0.948  10.783   6.861  0.1917 -0.6933  0.5162
36237SOL    HW114674   0.870  10.731   6.881 -0.5606 -0.1818 -0.9350
36237SOL    HW214675   0.946  10.794   6.766  1.1231  0.7598  0.6317
36238SOL     OW14676  11.317   0.591   5.579  0.4792  0.0727  0.2183
36238SOL    HW114677  11.294   0.643   5.656 -5.4561 -0.0425 -1.0590
36238SOL    HW214678  11.292   0.501   5.601 -0.1082 -0.1848 -1.3347
36239SOL     OW14679   1.165  11.301  12.175  0.0464  0.8355 -0.2243
36239SOL    HW114680   1.121  11.228  12.132  1.3887 -0.2486  0.1599
36239SOL    HW214681   1.133  11.299  12.265 -0.9737  1.6229 -0.5528
36240SOL     OW14682  12.116   7.372  11.214  0.2789  0.1167 -0.1288
36240SOL    HW114683  12.137   7.284  11.246  0.4907 -0.4078 -1.6111
36240SOL    HW214684  12.114   7.362  11.118  0.5523  1.7784 -0.3280
36241SOL     OW14685   4.745   8.814   9.731  0.1800 -0.1744 -0.5650
36241SOL    HW114686   4.711   8.747   9.671  2.2582 -0.5043 -1.4543
36241SOL    HW214687   4.714   8.897   9.696  0.2227 -0.4649 -1.2940
36242SOL     OW14688   7.707  10.536   3.473  0.2082  0.3434 -0.0280
36242SOL    HW114689   7.782  10.532   3.533  0.9234 -1.2528 -0.9268
36242SOL    HW214690   7.746  10.561   3.389 -0.4718  0.7514 -0.2225
36243SOL     OW14691   1.500  10.110   4.171  0.3475  0.0567 -0.3045
36243SOL    HW114692   1.437  10.049   4.134  0.0437  0.6661 -0.8094
36243SOL    HW214693   1.478  10.194   4.132 -0.5123  0.9076  1.8688
36244SOL     OW14694   4.318   3.832   9.867  0.5712 -1.1717  0.3626
36244SOL    HW114695   4.274   3.883   9.799  2.1748  1.8485  1.4077
36244SOL    HW214696   4.360   3.760   9.820  0.5578  0.0879 -1.6836
36245SOL     OW14697  10.958   1.345   5.512  0.1779 -0.0475 -0.0131
36245SOL    HW114698  11.018   1.408   5.553 -0.7853 -0.6446  2.4941
36245SOL    HW214699  10.871   1.370   5.543 -0.6872 -0.3919 -1.9985
36246SOL     OW14700   2.621   7.783   3.598 -0.1993  0.0801 -0.2798
36246SOL    HW114701   2.709   7.760   3.629 -0.9262  0.6321  2.5422
36246SOL    HW214702   2.609   7.874   3.627 -2.2458 -0.5038  0.8993
36247SOL     OW14703  11.045   5.455  11.441 -0.1867 -0.1380 -0.1020
36247SOL    HW114704  11.094   5.502  11.509  3.1729 -0.8039 -1.8112
36247SOL    HW214705  10.979   5.518  11.411 -0.1584  1.0344  2.0778
36248SOL     OW14706   9.415   7.412   2.470 -0.1846  0.0375  0.2333
36248SOL    HW114707   9.476   7.361   2.417  0.4173  1.3235 -0.3555
36248SOL    HW214708   9.454   7.414   2.557 -0.3009 -0.6410  0.3012
36249SOL     OW14709   9.484  10.867   1.127 -0.1860  0.0377 -0.2818
36249SOL    HW114710   9.428  10.837   1.056  0.3868 -1.3620 -0.1857
36249SOL    HW214711   9.511  10.955   1.102  0.8126 -0.7894 -2.3132
36250SOL     OW14712   7.879   1.899   7.608 -0.1436  0.1065  0.0836
36250SOL    HW114713   7.891   1.975   7.665  1.1564 -1.0074  1.3303
36250SOL    HW214714   7.859   1.938   7.522 -0.7519  1.8288  0.9473
36251SOL     OW14715   2.347   0.587   9.459  0.0351  0.1291  0.3308
36251SOL    HW114716   2.325   0.662   9.403  0.1878  0.7275  1.0531
36251SOL    HW214717   2.265   0.538   9.467  0.2474 -0.5558 -1.2535
36252SOL     OW14718   5.045   5.163   4.478  0.9029  0.7051  0.5055
36252SOL    HW114719   5.057   5.257   4.466  0.8207  0.6408 -0.0912
36252SOL    HW214720   5.091   5.123   4.404 -1.7116  0.3931 -1.0606
36253SOL     OW14721  12.253   8.316   2.469  0.5920 -0.0804  0.5745
36253SOL    HW114722  12.227   8.243   2.414 -0.2172 -0.8495  1.9144
36253SOL    HW214723  12.207   8.392   2.432  1.0044 -0.3316 -0.4932
36254SOL     OW14724   9.400  10.135   3.873  0.3471  0.1088 -0.3745
36254SOL    HW114725   9.455  10.178   3.808 -0.7035  0.4739 -1.0491
36254SOL    HW214726   9.394  10.044   3.843  3.2030 -0.8272  1.4672
36255SOL     OW14727   6.798   0.979   7.989 -0.0482  0.3751 -0.4959
36255SOL    HW114728   6.818   0.996   8.081 -1.1333 -0.2637 -0.1232
36255SOL    HW214729   6.752   1.058   7.959 -2.7561 -0.7106  0.5048
36256SOL     OW14730  10.258   0.006   5.561  0.3398  0.4271  0.1360
36256SOL    HW114731  10.211  -0.077   5.556  2.2111 -0.6490 -1.4679
36256SOL    HW214732  10.247   0.035   5.651 -2.1497 -0.4259  0.1893
36257SOL     OW14733   4.298   3.398   5.768 -0.2411  0.4406 -0.3615
36257SOL    HW114734   4.208   3.399   5.737 -1.4597  1.0801  2.8504
36257SOL    HW214735   4.321   3.305   5.771 -0.9984  0.2386 -0.5744
36258SOL     OW14736   0.754   3.366   7.277  0.1805  0.1740  0.7590
36258SOL    HW114737   0.830   3.355   7.335 -0.6787 -3.6396  1.4179
36258SOL    HW214738   0.786   3.339   7.191 -0.2955 -1.2815  1.0062
36259SOL     OW14739   7.918   5.628   6.762 -0.5147 -0.0798 -0.4890
36259SOL    HW114740   7.864   5.601   6.836 -0.1507 -0.3323 -0.3134
36259SOL    HW214741   7.875   5.589   6.686 -1.5541  1.1335 -0.5680
36260SOL     OW14742  10.207   7.385   6.163 -0.1482  0.1884  0.2546
36260SOL    HW114743  10.257   7.353   6.088  0.1356  2.1136 -0.4279
36260SOL    HW214744  10.269   7.382   6.236  0.0248 -0.3116  0.0902
36261SOL     OW14745   9.289   4.043   7.961  0.2278  0.4265  0.2920
36261SOL    HW114746   9.195   4.052   7.948  0.3770 -0.7313 -2.0127
36261SOL    HW214747   9.298   3.967   8.019 -0.2740  2.7761  3.8069
36262SOL     OW14748   4.773   2.911   2.404  0.1536  0.0939 -0.6694
36262SOL    HW114749   4.679   2.929   2.407 -0.0345 -0.8598 -0.5573
36262SOL    HW214750   4.812   2.980   2.458 -0.6889 -0.6946  1.0243
36263SOL     OW14751   5.636   4.864   1.132  0.0913  0.0102  0.7408
36263SOL    HW114752   5.687   4.836   1.056 -0.3674 -1.5444  0.9793
36263SOL    HW214753   5.697   4.862   1.205 -0.3772 -2.4795  1.1522
36264SOL     OW14754   4.278   1.435   0.194  0.4239  0.1374  0.3051
36264SOL    HW114755   4.288   1.525   0.163  0.1248  0.1456  0.2357
36264SOL    HW214756   4.319   1.435   0.280 -1.9319  1.0110  1.5127
36265SOL     OW14757   3.856   3.072   1.327 -0.3108  0.4907 -0.1296
36265SOL    HW114758   3.774   3.118   1.310  0.6346  2.9984  1.6370
36265SOL    HW214759   3.905   3.079   1.244 -2.5791 -3.0678 -2.0483
36266SOL     OW14760   9.472  12.132  10.278 -0.3476 -0.1050 -0.4400
36266SOL    HW114761   9.392  12.178  10.252 -0.5332  0.4301  1.0225
36266SOL    HW214762   9.543  12.183  10.237 -0.6807  0.1760 -0.6743
36267SOL     OW14763   5.666   6.016   7.587 -0.2784  0.3660  0.0767
36267SOL    HW114764   5.683   6.020   7.681  2.0499 -0.6604 -0.2305
36267SOL    HW214765   5.687   5.926   7.563  1.1887  1.1448 -1.7489
36268SOL     OW14766   0.102   3.367   5.246  0.2354  0.6478  0.6479
36268SOL    HW114767   0.167   3.436   5.263  0.0986  1.2451 -1.0407
36268SOL    HW214768   0.039   3.375   5.317  0.4258  2.0433  0.6916
36269SOL     OW14769  10.891   6.352  10.252  0.2347  0.1820  0.0780
36269SOL    HW114770  10.802   6.318  10.245  0.5085 -0.9104  1.3682
36269SOL    HW214771  10.903   6.370  10.346  1.3794  0.2467 -0.0586
36270SOL     OW14772   5.467  11.307  10.740 -0.0043 -0.7471  0.0556
36270SOL    HW114773   5.391  11.363  10.757  0.5041  0.1843 -0.6150
36270SOL    HW214774   5.538  11.347  10.791  0.2081 -1.1741  0.0980
36271SOL     OW14775   0.443  10.644  10.242  0.2711 -0.2495 -0.3554
36271SOL    HW114776   0.509  10.690  10.190  0.9558 -0.3818  0.3636
36271SOL    HW214777   0.477  10.647  10.332 -0.3705 -0.9235 -0.0728
36272SOL     OW14778  10.611   8.393   8.813  0.6008  0.6440  0.3313
36272SOL    HW114779  10.562   8.407   8.894  0.4823 -0.5790  0.5006
36272SOL    HW214780  10.628   8.299   8.812 -0.3278  0.4479 -1.5941
36273SOL     OW14781   2.446   8.893   3.229 -0.6025 -0.2276  0.2239
36273SOL    HW114782   2.539   8.918   3.225 -0.6139 -0.1026  0.7284
36273SOL    HW214783   2.404   8.946   3.161  0.0998 -2.1180 -1.8481
36274SOL     OW14784  10.917   6.802   8.025  0.0652 -0.6140 -0.1659
36274SOL    HW114785  10.835   6.831   8.064  1.1008  1.0886  0.9365
36274SOL    HW214786  10.918   6.843   7.938 -0.3774 -0.8780 -0.2954
36275SOL     OW14787   8.112   6.365   4.416  1.0222 -0.0262  0.2960
36275SOL    HW114788   8.147   6.318   4.492  0.8368 -1.4834 -0.4848
36275SOL    HW214789   8.045   6.307   4.380  1.8907  0.0862 -1.6518
36276SOL     OW14790   6.328   0.869   9.832 -0.0812 -0.2812  0.0679
36276SOL    HW114791   6.373   0.934   9.886  1.5494 -0.1671 -1.3374
36276SOL    HW214792   6.332   0.906   9.743  0.6995 -2.1573 -0.7261
36277SOL     OW14793   1.837   3.154  10.706 -0.1046 -0.1905 -0.0861
36277SOL    HW114794   1.873   3.101  10.777  2.8928 -0.1693 -1.4514
36277SOL    HW214795   1.911   3.205  10.674 -2.3479  3.1844 -0.3770
36278SOL     OW14796   6.138  11.776   5.786 -0.4345  0.0591  0.3038
36278SOL    HW114797   6.121  11.682   5.793 -0.8989  0.2381  2.1453
36278SOL    HW214798   6.055  11.817   5.811 -0.2512  0.9725 -0.5390
36279SOL     OW14799   9.676   5.998   1.067  0.3162  0.2259 -0.2142
36279SOL    HW114800   9.643   6.058   1.000 -0.9298 -0.6183 -0.3903
36279SOL    HW214801   9.688   5.915   1.021 -0.4118 -0.3207  0.5665
36280SOL     OW14802   1.291   3.951   2.622  0.1448 -0.3674  0.1344
36280SOL    HW114803   1.206   3.920   2.590  1.2726 -2.7771 -0.8095
36280SOL    HW214804   1.352   3.930   2.551  1.4581  1.9954  0.4755
36281SOL     OW14805   8.784   4.600   0.382 -0.0578  0.0132 -0.3135
36281SOL    HW114806   8.744   4.533   0.327  0.0399  0.1849 -0.5964
36281SOL    HW214807   8.713   4.661   0.402 -0.0465  0.0630 -0.4237
36282SOL     OW14808   2.242   4.351   7.740  0.4461  0.0685  0.4564
36282SOL    HW114809   2.330   4.322   7.717  1.3578  1.6881  1.6410
36282SOL    HW214810   2.224   4.423   7.679  0.6271  0.7991  1.2511
36283SOL     OW14811  12.207   3.138  10.521 -0.2258  0.1772  0.5243
36283SOL    HW114812  12.220   3.087  10.601  0.2173  1.9274  1.6198
36283SOL    HW214813  12.122   3.180  10.534  0.9927  2.5859  1.3784
36284SOL     OW14814   2.975   2.553   0.121 -0.0218  0.0979  0.3639
36284SOL    HW114815   2.941   2.580   0.207 -0.7907 -3.8165  1.5225
36284SOL    HW214816   2.903   2.503   0.083  0.8752  0.4549 -1.9219
36285SOL     OW14817   8.902   2.354  10.796 -0.2815  0.4060  0.1463
36285SOL    HW114818   8.865   2.291  10.857 -1.9001  0.0717 -1.1058
36285SOL    HW214819   8.982   2.312  10.764  0.0182  0.1380  1.2318
36286SOL     OW14820   8.054   9.346  10.409 -0.8967  0.8117  0.1681
36286SOL    HW114821   7.994   9.292  10.461 -0.1350  1.2167  1.4997
36286SOL    HW214822   8.034   9.436  10.434  0.8255  0.9270  1.3106
36287SOL     OW14823  11.888   3.845   4.377  0.0996 -0.0363 -0.4274
36287SOL    HW114824  11.927   3.884   4.299  1.5109  1.5658  0.9907
36287SOL    HW214825  11.829   3.914   4.410  1.3810  0.3100  1.2335
36288SOL     OW14826   3.508   3.364  12.083  0.6511  0.6304 -0.1845
36288SOL    HW114827   3.427   3.318  12.106  0.7261  1.0433  0.9714
36288SOL    HW214828   3.497   3.452  12.120  0.0377  1.9983 -3.2796
36289SOL     OW14829   6.034   5.250  10.801 -0.9332 -0.0931  0.9204
36289SOL    HW114830   5.963   5.191  10.827 -0.4342 -1.5991 -0.9366
36289SOL    HW214831   6.111   5.194  10.797  0.3407  1.4427  2.5174
36290SOL     OW14832   9.463   8.865   7.205  0.3909  0.8004  0.0235
36290SOL    HW114833   9.540   8.813   7.180 -0.1711 -0.7309  1.2848
36290SOL    HW214834   9.391   8.829   7.154 -0.1678 -0.3068  1.5010
36291SOL     OW14835   3.303   9.260  12.473 -0.0655  0.6758  0.4512
36291SOL    HW114836   3.349   9.344  12.465 -0.4589  0.9207  0.7311
36291SOL    HW214837   3.365   9.203  12.518 -0.1277  1.0762  1.0478
36292SOL     OW14838  10.914  11.835   8.499  0.1033  0.7975  0.6178
36292SOL    HW114839  10.893  11.849   8.407 -0.3727 -0.6240  0.4842
36292SOL    HW214840  10.938  11.922   8.531 -0.1106  1.3934 -0.7377
36293SOL     OW14841   7.118   4.325   2.026  0.3428  0.2289  0.4453
36293SOL    HW114842   7.133   4.234   2.000  0.5034  0.1359  0.8553
36293SOL    HW214843   7.205   4.360   2.044  0.2357  0.2749  0.8988
36294SOL     OW14844  10.980   8.975   8.543  0.1300  0.3914 -0.1850
36294SOL    HW114845  11.017   9.048   8.495  1.3450 -0.2820 -0.3031
36294SOL    HW214846  10.918   8.934   8.482 -1.5890  2.0716  0.3353
36295SOL     OW14847   6.125   2.014   0.920 -0.2113  0.4377  0.3760
36295SOL    HW114848   6.088   2.037   0.835  0.8580  0.9125  0.0168
36295SOL    HW214849   6.183   2.088   0.941  1.4186 -0.7920  0.3679
36296SOL     OW14850   0.463   8.892   6.040 -0.4555  0.3709  0.3029
36296SOL    HW114851   0.484   8.906   5.947 -0.8100  2.2979  0.4624
36296SOL    HW214852   0.545   8.861   6.078 -0.5565 -1.4010 -0.7904
36297SOL     OW14853   1.292   7.395   9.211 -0.0114  0.0415 -0.2685
36297SOL    HW114854   1.339   7.442   9.280 -0.9779 -0.9908  1.1599
36297SOL    HW214855   1.358   7.376   9.145  1.6726 -1.4236  1.6988
36298SOL     OW14856   6.640  10.692   4.267 -0.2847 -0.1430 -0.4212
36298SOL    HW114857   6.716  10.749   4.257 -0.3343 -0.0649 -0.3578
36298SOL    HW214858   6.575  10.728   4.207 -0.1177 -0.4767 -0.8028
36299SOL     OW14859   3.392   7.063  11.514  0.4712 -0.2390 -0.0715
36299SOL    HW114860   3.429   7.055  11.602 -0.4511  2.5983  0.6698
36299SOL    HW214861   3.301   7.086  11.528  0.4742  0.9557 -1.7641
36300SOL     OW14862   0.843   7.692   3.255  0.0444  0.6308 -0.6533
36300SOL    HW114863   0.810   7.672   3.342 -0.2949  1.9920 -0.4448
36300SOL    HW214864   0.798   7.631   3.197 -0.2338  0.1652  0.0462
36301SOL     OW14865  10.625   1.211   2.785  0.5302  0.0087  0.7222
36301SOL    HW114866  10.542   1.217   2.833  0.1315 -2.3412  0.4610
36301SOL    HW214867  10.679   1.152   2.838  0.5045 -1.7140 -1.0304
36302SOL     OW14868  10.570   4.539  12.199  0.5685 -0.3451 -0.1095
36302SOL    HW114869  10.634   4.567  12.264 -1.0220 -0.0536  1.4070
36302SOL    HW214870  10.489   4.582  12.226 -0.0662  0.1171 -2.5438
36303SOL     OW14871   5.940   3.863  11.371 -0.0128 -0.1851  0.5507
36303SOL    HW114872   5.998   3.788  11.363 -0.4448 -1.0722  4.0779
36303SOL    HW214873   5.855   3.825  11.394 -0.5678  1.3347  1.1327
36304SOL     OW14874  10.597   9.956   8.658 -0.4180 -0.5717  0.1826
36304SOL    HW114875  10.640   9.892   8.601 -0.2540 -0.4905  0.2152
36304SOL    HW214876  10.590   9.912   8.743  1.7913  0.2499  0.8794
36305SOL     OW14877   1.941   3.530   4.001  0.2678 -0.4286  0.7654
36305SOL    HW114878   1.867   3.497   4.053 -0.6169  1.0373  0.4964
36305SOL    HW214879   1.925   3.624   3.994  1.8387 -0.1752  0.1459
36306SOL     OW14880   5.862   9.149   0.022  0.4732  0.1797 -0.0382
36306SOL    HW114881   5.816   9.224   0.060 -0.9137  0.4825 -2.1723
36306SOL    HW214882   5.799   9.078   0.025  0.7017 -0.0610 -0.7998
36307SOL     OW14883  11.173   8.775  11.785  0.1803  0.1552 -0.1352
36307SOL    HW114884  11.167   8.844  11.720  1.1405  0.3705 -0.0124
36307SOL    HW214885  11.262   8.742  11.777 -0.6284 -1.9414 -1.0502
36308SOL     OW14886   7.875   4.697  10.451 -0.4748 -0.2740  0.0113
36308SOL    HW114887   7.808   4.678  10.516  0.2286 -0.5913  0.6596
36308SOL    HW214888   7.839   4.665  10.369 -1.2023 -0.2413  0.3144
36309SOL     OW14889   6.807  11.285  11.164  0.3549 -0.4783  0.0039
36309SOL    HW114890   6.777  11.280  11.255  1.1370  0.0067  0.2985
36309SOL    HW214891   6.760  11.360  11.128 -1.6046 -1.9385 -0.6537
36310SOL     OW14892  10.653   5.962   3.585  0.2215  0.0238  0.5932
36310SOL    HW114893  10.664   5.884   3.531 -1.2125 -1.9836  3.0018
36310SOL    HW214894  10.634   5.928   3.672 -0.6340  3.0904  1.7089
36311SOL     OW14895   9.950   7.965   3.349  0.3144  0.6276 -0.3196
36311SOL    HW114896  10.001   7.886   3.363  0.3287  1.0171  2.1443
36311SOL    HW214897  10.015   8.036   3.345  0.1251  0.8885  0.8696
36312SOL     OW14898   3.597   5.025   9.107 -0.4650  0.6270 -0.2603
36312SOL    HW114899   3.651   5.048   9.182 -2.2898  0.6930  1.1108
36312SOL    HW214900   3.616   4.933   9.090 -0.6021  0.4025  0.7876
36313SOL     OW14901   2.697   4.189   4.262  0.6010 -0.0547  0.5206
36313SOL    HW114902   2.666   4.279   4.253  0.9338 -0.0388 -0.5530
36313SOL    HW214903   2.790   4.193   4.237  0.3030 -0.9150 -0.7910
36314SOL     OW14904  11.164   1.298  10.883  0.4611  0.1092  0.6860
36314SOL    HW114905  11.100   1.350  10.933 -0.1325 -0.5696  0.6500
36314SOL    HW214906  11.112   1.253  10.816  0.8951 -0.8051  0.9379
36315SOL     OW14907   5.822   9.354   4.818 -0.1537 -0.0305  0.1209
36315SOL    HW114908   5.867   9.284   4.769 -0.0599  0.1594 -0.0666
36315SOL    HW214909   5.780   9.406   4.750 -0.9562 -0.4065  0.3137
36316SOL     OW14910   9.809   7.180   8.463 -0.7013  0.2723 -0.1759
36316SOL    HW114911   9.734   7.215   8.512 -1.0109 -1.6959  0.8260
36316SOL    HW214912   9.774   7.166   8.375 -0.9837  1.0210 -0.1968
36317SOL     OW14913  11.551  12.283   2.917  0.0598 -0.0777 -0.8319
36317SOL    HW114914  11.623  12.328   2.874 -0.9640  0.6733 -1.8042
36317SOL    HW214915  11.474  12.337   2.899 -0.8440 -1.1451 -0.2926
36318SOL     OW14916   5.605   8.001   5.058 -0.3173 -0.4535 -0.0907
36318SOL    HW114917   5.588   7.920   5.107 -0.0076 -0.1556  0.5172
36318SOL    HW214918   5.694   7.990   5.025 -1.3169 -1.7449 -2.7593
36319SOL     OW14919   4.867   5.004   5.491 -0.6095  0.1013  0.4747
36319SOL    HW114920   4.817   5.005   5.572 -2.9120 -0.4595 -0.8673
36319SOL    HW214921   4.805   4.975   5.424  1.4977 -0.5585 -1.3156
36320SOL     OW14922   7.144   3.127   4.265  0.6256 -0.3562 -0.1454
36320SOL    HW114923   7.099   3.129   4.180  0.6602  1.0468 -0.1598
36320SOL    HW214924   7.164   3.035   4.279 -1.7559 -0.9898 -0.4045
36321SOL     OW14925   6.774  11.025   0.310 -0.1845  0.2406 -0.2259
36321SOL    HW114926   6.847  10.964   0.297  0.4637  0.7652  0.8268
36321SOL    HW214927   6.751  11.014   0.403 -1.4203  0.1156 -0.5366
36322SOL     OW14928   4.637   0.619   6.107 -0.0304  0.3982  0.2797
36322SOL    HW114929   4.682   0.702   6.093  0.2857  0.2601  0.4516
36322SOL    HW214930   4.685   0.578   6.179 -0.7531  0.4786  0.8157
36323SOL     OW14931   8.875   0.609   8.487 -0.1858  0.3568 -0.5951
36323SOL    HW114932   8.845   0.697   8.510  1.5046  0.8017  0.0375
36323SOL    HW214933   8.835   0.553   8.553  0.5414  0.9730  0.4024
36324SOL     OW14934   2.950  11.083   4.550 -0.1974  0.0200 -0.0094
36324SOL    HW114935   2.996  11.132   4.618  0.6170 -0.5148 -0.1550
36324SOL    HW214936   2.926  11.001   4.592 -2.2994  0.8212  0.4873
36325SOL     OW14937  10.817   3.880   0.517  0.2342 -0.1576  0.3057
36325SOL    HW114938  10.770   3.879   0.434  0.5102 -1.5466  0.1432
36325SOL    HW214939  10.753   3.911   0.581  0.5288  2.7374 -0.6722
36326SOL     OW14940   9.903   0.578  11.163  0.6858 -0.2650 -0.3480
36326SOL    HW114941   9.828   0.546  11.113  0.1029 -0.0902  0.3954
36326SOL    HW214942   9.883   0.670  11.179 -0.1000 -0.7667  1.8703
36327SOL     OW14943  12.487  10.121  11.424  0.2045 -0.2302  0.1501
36327SOL    HW114944  12.468  10.036  11.463  0.3704 -0.8332 -1.0177
36327SOL    HW214945  12.419  10.179  11.457 -0.9713 -1.2467 -0.3866
36328SOL     OW14946   1.686   8.282   3.089  0.5712 -0.7612  0.0592
36328SOL    HW114947   1.717   8.357   3.039 -0.0281 -0.6232 -0.1044
36328SOL    HW214948   1.724   8.206   3.045  1.8813 -0.5321  0.7163
36329SOL     OW14949   1.363   3.447   4.482 -0.3296 -0.3717 -0.1535
36329SOL    HW114950   1.436   3.392   4.453 -1.4755 -2.3378  0.4877
36329SOL    HW214951   1.397   3.536   4.478  2.2410 -1.2427  0.4984
36330SOL     OW14952   5.487   7.135   4.865  0.1264 -0.8856 -0.3383
36330SOL    HW114953   5.583   7.137   4.874  0.0310  0.3293  0.6855
36330SOL    HW214954   5.473   7.137   4.770  1.1415  1.3289 -0.5193
36331SOL     OW14955   0.250   5.594   1.301  0.7863 -0.4732  0.1521
36331SOL    HW114956   0.213   5.532   1.364 -0.4575 -2.1124 -2.0277
36331SOL    HW214957   0.176   5.645   1.270  1.0034 -0.9657 -1.2706
36332SOL     OW14958   0.201   3.908   3.773 -0.2642 -0.2536  0.5342
36332SOL    HW114959   0.225   3.992   3.813 -1.8769  0.4453  0.1402
36332SOL    HW214960   0.212   3.922   3.679  0.6122 -0.8950  0.5345
36333SOL     OW14961   6.225   3.504   6.095  0.0887  0.0948 -0.0023
36333SOL    HW114962   6.156   3.439   6.105  0.7147 -0.5102  0.4812
36333SOL    HW214963   6.185   3.587   6.121  0.1466 -0.5804  2.4383
36334SOL     OW14964  10.176   8.617   7.105 -0.1733  0.2824  0.5399
36334SOL    HW114965  10.140   8.592   7.020 -1.5560  0.8313  0.9339
36334SOL    HW214966  10.256   8.664   7.084  0.0091 -0.4157 -0.4095
36335SOL     OW14967   7.087   1.272   2.093  0.1542  0.4537  0.3890
36335SOL    HW114968   7.091   1.352   2.146  0.4380  0.8571 -0.2363
36335SOL    HW214969   7.175   1.263   2.056  0.5877 -0.9946  1.6655
36336SOL     OW14970  12.283  11.700   2.299 -0.4191  0.4122  0.6365
36336SOL    HW114971  12.240  11.639   2.359  1.7390 -3.4118 -1.2668
36336SOL    HW214972  12.375  11.697   2.324 -0.0449  1.9524 -0.3865
36337SOL     OW14973   3.225   7.128  12.004  0.0752 -0.3812  0.2720
36337SOL    HW114974   3.290   7.197  12.015 -1.3183  0.9011  0.7365
36337SOL    HW214975   3.189   7.114  12.092 -0.8784 -0.4387 -0.1138
36338SOL     OW14976   4.355   1.804   0.746 -0.1104  0.4604 -0.4841
36338SOL    HW114977   4.325   1.812   0.836 -1.7151 -0.0140 -0.9454
36338SOL    HW214978   4.439   1.758   0.752 -0.6680 -0.4424  0.7009
36339SOL     OW14979   5.402   1.792  10.717 -0.3434  0.0959  0.5486
36339SOL    HW114980   5.468   1.747  10.769 -0.3134  2.0190  2.3363
36339SOL    HW214981   5.324   1.736  10.723  0.1248 -0.4854  1.3744
36340SOL     OW14982   4.684   9.361   7.104  0.2807  0.6472 -0.8781
36340SOL    HW114983   4.599   9.334   7.068 -0.3188  2.2092 -0.7225
36340SOL    HW214984   4.690   9.454   7.084  1.1804  0.9560  0.6358
36341SOL     OW14985  12.304   5.798  10.265  0.1116 -0.5832  0.2618
36341SOL    HW114986  12.388   5.830  10.296 -0.4144  0.9399  0.2439
36341SOL    HW214987  12.321   5.765  10.177  0.3733  1.5158 -0.5260
36342SOL     OW14988   3.457   3.045   8.064  0.3012  0.3134 -0.4551
36342SOL    HW114989   3.460   3.016   8.155  3.4918 -0.9604 -0.8551
36342SOL    HW214990   3.425   2.969   8.016  2.0675 -0.2951 -0.7351
36343SOL     OW14991   4.415   3.632   4.535  0.4691 -0.1555 -0.3817
36343SOL    HW114992   4.414   3.577   4.457  0.0401  0.3963 -0.7770
36343SOL    HW214993   4.460   3.580   4.601 -1.3236 -1.6447 -0.2495
36344SOL     OW14994   6.986  10.664  11.766  0.2043 -0.2024 -0.8412
36344SOL    HW114995   7.022  10.659  11.678  0.9797  1.1125 -0.6193
36344SOL    HW214996   7.059  10.689  11.821 -0.6204  0.6296 -0.0838
36345SOL     OW14997   8.914  11.732   7.279  0.3530 -0.3149  0.1699
36345SOL    HW114998   8.892  11.674   7.206  0.6251  0.6907 -0.7396
36345SOL    HW214999   8.830  11.750   7.321 -0.1227  0.6755 -1.1305
36346SOL     OW15000  11.011  12.485  11.484  0.0142 -0.2415  0.2964
36346SOL    HW115001  11.076  12.510  11.549  0.5607 -0.7729 -0.0222
36346SOL    HW215002  10.992  12.393  11.503  0.4062 -0.4917 -0.4615
36347SOL     OW15003   1.783  10.991   9.124  0.1635 -0.0810  0.2997
36347SOL    HW115004   1.718  10.970   9.057 -1.1955 -1.2455  1.8959
36347SOL    HW215005   1.759  10.937   9.199  2.4671  0.1169  1.2827
36348SOL     OW15006  10.929  12.040  10.945 -0.5137  0.1885 -0.6203
36348SOL    HW115007  10.983  12.079  11.013 -1.5650  1.4661 -0.4783
36348SOL    HW215008  10.991  12.001  10.884  0.4612 -0.7474  0.9022
36349SOL     OW15009   4.601   8.860  12.020 -0.0990 -0.4634  0.0599
36349SOL    HW115010   4.628   8.952  12.026 -1.6070  0.0468 -0.4833
36349SOL    HW215011   4.677   8.815  11.983  1.3783  0.1803  2.1334
36350SOL     OW15012   1.805   5.518   5.395  0.3981  0.5452 -0.0547
36350SOL    HW115013   1.824   5.439   5.446 -0.6188  0.4520  0.2156
36350SOL    HW215014   1.867   5.516   5.323  1.2720  0.2077  0.6937
36351SOL     OW15015   2.005   7.338   5.063 -0.2025 -0.2639 -0.2044
36351SOL    HW115016   2.029   7.410   5.004 -0.0078 -0.9782 -1.0153
36351SOL    HW215017   2.005   7.378   5.150  1.9997  0.2388 -0.3688
36352SOL     OW15018  12.436  10.703   7.030  0.1181  0.6059 -0.4645
36352SOL    HW115019  12.448  10.777   7.089 -1.2891  0.2161  0.3738
36352SOL    HW215020  12.344  10.710   7.003  0.1376 -0.4949 -0.8461
36353SOL     OW15021  11.888   9.959   3.048  0.5976  0.2321 -0.1988
36353SOL    HW115022  11.849   9.890   3.101 -1.5995  0.6415 -1.1956
36353SOL    HW215023  11.978   9.965   3.081  0.0686 -1.2105  1.7494
36354SOL     OW15024  10.857   7.051   1.115  0.7015 -0.5511  0.1893
36354SOL    HW115025  10.922   7.030   1.182  1.6272  0.9273 -0.1890
36354SOL    HW215026  10.779   7.075   1.165  1.0616 -0.4660  0.7268
36355SOL     OW15027   2.447   9.487  10.483  0.3359  0.2261  0.4606
36355SOL    HW115028   2.474   9.398  10.465 -2.2673 -0.6152  0.2350
36355SOL    HW215029   2.428   9.488  10.577 -0.3546  0.3067  0.3261
36356SOL     OW15030   9.215   0.242   5.570  0.1205 -0.2618 -0.1459
36356SOL    HW115031   9.170   0.291   5.501  0.5460 -0.8563 -0.8582
36356SOL    HW215032   9.306   0.271   5.565  0.3012 -0.8333 -0.3338
36357SOL     OW15033   6.682   4.317  10.971  0.5863 -0.4271  0.3789
36357SOL    HW115034   6.750   4.385  10.969  0.4423 -0.1029  2.9555
36357SOL    HW215035   6.604   4.361  10.939  1.2056 -0.3667 -1.1382
36358SOL     OW15036   2.363   4.791   4.076 -0.0891  0.1904  0.1792
36358SOL    HW115037   2.302   4.819   4.144  0.4174  1.6642  0.0609
36358SOL    HW215038   2.419   4.727   4.120  0.5071  1.4324  1.3203
36359SOL     OW15039   3.835  11.887   4.302 -0.4094 -0.6668  0.0380
36359SOL    HW115040   3.930  11.874   4.311  0.1697 -0.4486 -3.9030
36359SOL    HW215041   3.816  11.961   4.360  1.9832 -0.1961  0.3460
36360SOL     OW15042   8.184   7.887   5.988  0.1993  0.2510 -0.4566
36360SOL    HW115043   8.208   7.814   5.931  0.4050 -0.2623  0.2693
36360SOL    HW215044   8.091   7.902   5.971  0.5468  0.9459 -1.8470
36361SOL     OW15045   6.297   0.298   4.221 -0.3291 -0.2425 -0.0775
36361SOL    HW115046   6.381   0.335   4.193 -0.5657  0.3099 -0.0713
36361SOL    HW215047   6.277   0.344   4.303 -0.6087 -0.4115 -0.0506
36362SOL     OW15048  12.412   7.766   5.905 -0.3829  0.3669  0.1294
36362SOL    HW115049  12.404   7.861   5.916  1.3253  0.4136  1.3742
36362SOL    HW215050  12.345   7.744   5.841  0.0229  2.6013 -1.1727
36363SOL     OW15051   3.072   6.784   6.549  0.2017  0.1120 -0.2809
36363SOL    HW115052   3.101   6.850   6.486  0.1373 -1.2672 -1.8070
36363SOL    HW215053   3.123   6.706   6.528 -0.8152 -0.7888  0.4762
36364SOL     OW15054   8.868   2.527   8.972 -0.0797  0.1125  0.1594
36364SOL    HW115055   8.821   2.460   8.922  1.9171 -0.2763 -1.3636
36364SOL    HW215056   8.843   2.609   8.931 -0.7233  0.0905  0.4914
36365SOL     OW15057   7.547   0.155   6.733  0.5213 -0.2686  0.6856
36365SOL    HW115058   7.480   0.216   6.702  1.0690 -0.2874 -0.6056
36365SOL    HW215059   7.520   0.133   6.822  1.2674  3.2565  1.9091
36366SOL     OW15060  11.336   5.705   9.058  0.3988  0.5343  0.8438
36366SOL    HW115061  11.382   5.777   9.016  2.1376 -0.7830  0.4069
36366SOL    HW215062  11.374   5.701   9.146  0.1688  0.2559  0.9321
36367SOL     OW15063   7.783   2.344   9.081  0.4200 -1.0432 -0.2103
36367SOL    HW115064   7.699   2.333   9.125  0.9929 -1.3815  0.8586
36367SOL    HW215065   7.799   2.260   9.039  0.4461 -1.1555  0.0177
36368SOL     OW15066  11.168   5.766   3.831 -0.0920  0.0762  0.0545
36368SOL    HW115067  11.201   5.776   3.921 -2.4802 -0.3129  1.0538
36368SOL    HW215068  11.135   5.853   3.808  0.2149  0.0939 -0.3229
36369SOL     OW15069   7.754   0.022   0.661  0.1519 -0.1674  0.1099
36369SOL    HW115070   7.821   0.077   0.702 -1.0190 -0.0526  2.0046
36369SOL    HW215071   7.676   0.078   0.658  0.0420 -0.3461 -1.9132
36370SOL     OW15072   4.896   3.749  10.812  1.0314  0.5578 -0.1495
36370SOL    HW115073   4.876   3.752  10.905 -1.3435  1.8839 -0.6066
36370SOL    HW215074   4.980   3.794  10.803  0.4074  2.0807  1.1848
36371SOL     OW15075   5.467  11.797  10.404 -0.0079 -0.2234 -0.1406
36371SOL    HW115076   5.419  11.853  10.343 -0.6662  2.2649  2.4455
36371SOL    HW215077   5.554  11.837  10.408 -0.6373  1.1030  2.1194
36372SOL     OW15078   5.953   9.291   5.610 -0.4207  0.8755 -0.2948
36372SOL    HW115079   5.867   9.332   5.600 -1.2110 -0.7826 -0.5955
36372SOL    HW215080   5.979   9.267   5.521  0.0693  0.8170 -0.1405
36373SOL     OW15081   0.834   0.429   8.107 -0.1969 -0.4178 -0.6403
36373SOL    HW115082   0.742   0.452   8.094 -0.2352 -1.0080 -1.4635
36373SOL    HW215083   0.860   0.479   8.185 -1.0213  0.2837 -0.7940
36374SOL     OW15084   1.424   3.148   6.273  0.3118 -0.6254 -0.1227
36374SOL    HW115085   1.385   3.227   6.311  3.2099  0.1882  1.4837
36374SOL    HW215086   1.462   3.178   6.190 -0.9898 -1.0437 -0.8970
36375SOL     OW15087   2.342   4.748   7.439  0.0949  0.3410  0.0879
36375SOL    HW115088   2.405   4.796   7.385  2.3045 -0.0080  2.1455
36375SOL    HW215089   2.383   4.746   7.526 -0.2969 -4.3470  0.4074
36376SOL     OW15090   6.174   4.278   5.917  0.1825  0.1593 -0.1802
36376SOL    HW115091   6.226   4.254   5.840  1.7159 -0.8305  1.1040
36376SOL    HW215092   6.179   4.374   5.920  1.5088  0.1180 -0.4006
36377SOL     OW15093   0.947   5.968   8.385 -0.0932 -0.0837 -0.8483
36377SOL    HW115094   0.873   5.929   8.338 -0.7904  0.8771 -0.6015
36377SOL    HW215095   1.012   5.898   8.391 -0.9308 -0.9147 -1.1913
36378SOL     OW15096  12.193   4.670   1.809 -0.7266  0.0293 -0.4433
36378SOL    HW115097  12.246   4.744   1.839 -0.3952 -0.6542  0.7465
36378SOL    HW215098  12.213   4.600   1.871 -2.2014 -0.5918 -0.6246
36379SOL     OW15099   4.991   7.419   1.600 -0.3571  0.3757 -0.0630
36379SOL    HW115100   4.999   7.387   1.690  0.6315  0.4824 -0.1023
36379SOL    HW215101   5.005   7.514   1.607 -0.8579  0.4677 -0.2626
36380SOL     OW15102  11.543   7.634  10.721 -0.0643 -0.1330  0.1983
36380SOL    HW115103  11.623   7.684  10.738  0.2069 -0.4626 -0.0928
36380SOL    HW215104  11.473   7.688  10.759  0.1999  0.5648 -0.2835
36381SOL     OW15105   6.518   2.715   4.604  0.3135 -0.6390  0.0331
36381SOL    HW115106   6.572   2.702   4.682 -0.5896  0.6390  0.8986
36381SOL    HW215107   6.430   2.728   4.638 -0.0651  0.1268 -1.1905
36382SOL     OW15108   4.660   9.451   8.338 -0.2293 -0.5987  0.1938
36382SOL    HW115109   4.644   9.545   8.348 -0.2804 -0.4177 -1.3407
36382SOL    HW215110   4.666   9.438   8.243  0.7960 -1.9729  0.4179
36383SOL     OW15111   5.319   4.800   5.100  0.0755  0.6491  0.2439
36383SOL    HW115112   5.379   4.873   5.084  1.8119 -0.8248 -0.4353
36383SOL    HW215113   5.361   4.750   5.170 -0.1919 -0.5555 -0.4217
36384SOL     OW15114   0.549  12.441   4.378  0.6701  0.2222 -0.3081
36384SOL    HW115115   0.525  12.417   4.467  1.3493  0.7564  0.0157
36384SOL    HW215116   0.473  12.414   4.325  0.4464 -0.4854  0.3628
36385SOL     OW15117   7.670   3.628  11.957  0.0954 -0.2699 -0.0612
36385SOL    HW115118   7.586   3.667  11.932  0.3669  0.1643 -0.3059
36385SOL    HW215119   7.715   3.697  12.005  0.5787 -0.2745 -0.4984
36386SOL     OW15120   0.307   3.658   3.754  0.4102  0.2012  0.9536
36386SOL    HW115121   0.266   3.744   3.761  0.3558  0.2614 -0.0199
36386SOL    HW215122   0.398   3.673   3.779  0.6230  0.7386 -0.0829
36387SOL     OW15123   9.012   0.319   7.827  0.0499 -0.3426  0.1441
36387SOL    HW115124   9.086   0.313   7.887 -1.8319 -3.0705  2.4466
36387SOL    HW215125   8.977   0.406   7.841  2.0351  0.5435 -0.0827
36388SOL     OW15126   1.575   5.721   8.323  0.6245 -0.5574  0.6301
36388SOL    HW115127   1.649   5.780   8.335 -0.2517  0.8736 -0.5393
36388SOL    HW215128   1.587   5.653   8.389  0.3730  2.2462  3.8384
36389SOL     OW15129   3.347  12.063  10.532  0.7569 -0.0748 -0.8118
36389SOL    HW115130   3.368  11.970  10.523 -1.0576 -0.6554  0.2762
36389SOL    HW215131   3.371  12.083  10.623  0.1636  0.2221 -0.7190
36390SOL     OW15132   9.172   0.552   6.200  0.4412 -0.4454  0.2928
36390SOL    HW115133   9.229   0.518   6.270 -0.1261 -0.3560  0.8093
36390SOL    HW215134   9.216   0.631   6.170  1.1559 -0.9729 -0.0806
36391SOL     OW15135   7.204  12.208  12.348 -0.2484  0.1867  0.1944
36391SOL    HW115136   7.268  12.271  12.382 -0.2829  0.1510  0.3277
36391SOL    HW215137   7.139  12.201  12.418 -1.0215  1.1071 -0.4094
36392SOL     OW15138   9.831   9.709   8.507 -0.2111  0.2569  0.0008
36392SOL    HW115139   9.775   9.721   8.584  0.2571 -0.8077  0.5366
36392SOL    HW215140   9.907   9.765   8.524  0.6811 -1.2037  1.1661
36393SOL     OW15141   7.188   8.808  10.886 -0.0812  0.2448  0.1424
36393SOL    HW115142   7.132   8.820  10.963  0.4606 -1.6501  0.8872
36393SOL    HW215143   7.187   8.714  10.871  1.4668  0.3745 -0.9376
36394SOL     OW15144   6.330   6.312   6.695 -1.0605  0.0319  0.4714
36394SOL    HW115145   6.395   6.367   6.739  1.3235 -1.7699 -0.5823
36394SOL    HW215146   6.316   6.238   6.755 -1.8406  0.1988  0.5045
36395SOL     OW15147  10.988   0.146   4.882 -0.7245 -0.4610  0.1662
36395SOL    HW115148  10.973   0.053   4.895 -1.4666 -0.2814  0.7009
36395SOL    HW215149  10.920   0.174   4.822 -1.6119  0.0603  1.3702
36396SOL     OW15150   9.004  10.872   4.608  0.2231 -0.2549  0.4648
36396SOL    HW115151   8.926  10.922   4.633  0.2082 -0.4782  0.8771
36396SOL    HW215152   9.045  10.924   4.539 -1.3451 -1.0843 -1.1838
36397SOL     OW15153   5.484   8.374   8.081  0.4270  0.3646 -0.1012
36397SOL    HW115154   5.432   8.364   8.161  0.3167 -0.2902 -0.2483
36397SOL    HW215155   5.438   8.442   8.032 -0.8064 -0.7769 -0.6040
36398SOL     OW15156  10.233   4.103   6.947 -0.2486 -0.3642 -0.1864
36398SOL    HW115157  10.203   4.071   6.861 -1.8263 -0.2871  0.2949
36398SOL    HW215158  10.223   4.198   6.942  0.7032 -0.2644 -0.2808
36399SOL     OW15159   8.679   9.245   6.553  0.1689 -0.0188 -0.0476
36399SOL    HW115160   8.612   9.270   6.617 -0.4733  0.1300 -0.7579
36399SOL    HW215161   8.761   9.252   6.600 -0.2456  0.6614  0.5921
36400SOL     OW15162   3.070   4.049   9.143 -0.3486 -0.2086 -0.1195
36400SOL    HW115163   3.003   4.117   9.151 -1.3296 -1.2597  0.9701
36400SOL    HW215164   3.027   3.978   9.096  0.4037 -0.4432 -0.4836
36401SOL     OW15165   7.072   1.676  10.774  0.0577  0.3177  0.0156
36401SOL    HW115166   6.998   1.644  10.825  0.2128  0.3901  0.2904
36401SOL    HW215167   7.103   1.599  10.727 -2.2178  0.9226 -2.7157
36402SOL     OW15168  10.709   9.922   5.792 -0.1938 -0.2176  0.1372
36402SOL    HW115169  10.649   9.903   5.720 -0.5917 -0.1283  0.4422
36402SOL    HW215170  10.793   9.886   5.764 -0.5793 -1.0784  0.0584
36403SOL     OW15171   9.844  12.421   9.477  0.2338  0.2450  0.1862
36403SOL    HW115172   9.807  12.338   9.510 -2.4056  1.2662  0.0509
36403SOL    HW215173   9.872  12.400   9.388 -2.4077 -0.0963 -0.6563
36404SOL     OW15174  10.925   7.525  11.117 -0.1584  0.3184 -0.4105
36404SOL    HW115175  11.017   7.524  11.141 -0.2702  1.1482  0.1090
36404SOL    HW215176  10.878   7.518  11.201 -0.5664 -0.7739 -0.7236
36405SOL     OW15177   4.192   0.854  12.215 -0.6049  0.0358  0.0513
36405SOL    HW115178   4.257   0.784  12.217 -0.1391  0.3789 -1.5455
36405SOL    HW215179   4.244   0.934  12.204 -1.0790  0.7647  2.4890
36406SOL     OW15180   8.732   1.782   2.418  0.3289  0.0249  0.3418
36406SOL    HW115181   8.697   1.869   2.439 -1.4883  0.2409 -2.9420
36406SOL    HW215182   8.781   1.795   2.337 -0.5939 -2.1077 -0.6278
36407SOL     OW15183   6.533   8.016   4.441  0.2052 -0.0965  0.4190
36407SOL    HW115184   6.594   7.957   4.399 -1.5817 -1.1006 -0.9120
36407SOL    HW215185   6.544   8.000   4.535  0.8793 -1.3793  0.1371
36408SOL     OW15186   7.248   4.543   5.337 -0.6764 -0.3791 -0.1963
36408SOL    HW115187   7.233   4.636   5.322  0.4370 -0.2853 -0.8666
36408SOL    HW215188   7.289   4.538   5.423 -1.5289 -0.3544  0.2308
36409SOL     OW15189   1.970   8.214   9.899  0.2594 -0.2985  0.0872
36409SOL    HW115190   1.929   8.132   9.926  0.5913  0.0735  1.8749
36409SOL    HW215191   2.059   8.208   9.934  0.4726  0.5713 -0.2851
36410SOL     OW15192   4.146   8.946   0.767  0.3362  0.0210 -0.5585
36410SOL    HW115193   4.209   8.999   0.717  0.6582 -0.1883 -0.3835
36410SOL    HW215194   4.131   8.869   0.712 -1.7428  1.2153 -1.8004
36411SOL     OW15195   9.611   5.389   5.498  0.1938 -0.1406  0.4006
36411SOL    HW115196   9.553   5.436   5.438  0.8123  0.1838  0.0474
36411SOL    HW215197   9.587   5.297   5.489  0.0418 -0.0519 -0.0810
36412SOL     OW15198   2.196   9.663   2.249  0.0408 -1.2427  0.0198
36412SOL    HW115199   2.245   9.719   2.188  0.5546 -1.2258  0.4403
36412SOL    HW215200   2.264   9.610   2.292 -0.3430 -1.4367  0.3859
36413SOL     OW15201   6.173   2.247   9.329  0.0504 -0.8453  0.8780
36413SOL    HW115202   6.126   2.192   9.392  1.2678 -3.3726 -0.2721
36413SOL    HW215203   6.140   2.219   9.244  0.5545  0.4131  0.2397
36414SOL     OW15204   5.984   3.403  12.074 -1.1824 -0.3690 -0.2962
36414SOL    HW115205   5.978   3.395  11.979 -0.1325 -1.3115 -0.3109
36414SOL    HW215206   6.069   3.364  12.096 -1.1051  0.4427  0.9624
36415SOL     OW15207  11.288   6.223   9.970  0.2957  0.3247 -0.0335
36415SOL    HW115208  11.217   6.269  10.015 -0.3682 -0.8774  0.1854
36415SOL    HW215209  11.268   6.230   9.877  0.5306  0.9935 -0.0369
36416SOL     OW15210   6.051   3.749   0.357 -0.0741  0.1617 -0.1109
36416SOL    HW115211   5.993   3.755   0.432  1.3133 -2.3091  1.2735
36416SOL    HW215212   5.993   3.755   0.281 -2.0298 -1.2154  1.1839
36417SOL     OW15213   5.326   0.319   5.194 -0.3172  0.2400 -0.3622
36417SOL    HW115214   5.411   0.364   5.197 -0.0553 -0.3084  1.7918
36417SOL    HW215215   5.330   0.256   5.265 -1.6655 -1.4475 -1.7067
36418SOL     OW15216   0.201  10.986   0.148  0.5170 -0.0396 -0.2910
36418SOL    HW115217   0.199  10.990   0.243  0.3208  0.5871 -0.3161
36418SOL    HW215218   0.265  10.918   0.128 -0.6085 -1.3312  0.3038
36419SOL     OW15219   2.702   3.907  10.992 -0.4030  0.2369 -0.2171
36419SOL    HW115220   2.787   3.862  10.990  0.2306  1.4068 -2.5388
36419SOL    HW215221   2.646   3.848  11.043  1.0793 -1.9042 -0.9022
36420SOL     OW15222  10.952   8.467   9.913 -0.2213 -0.7289  0.1068
36420SOL    HW115223  10.920   8.404   9.977  1.1531  1.0042  2.6613
36420SOL    HW215224  11.047   8.471   9.929 -0.1078  1.1159 -0.7512
36421SOL     OW15225  12.382   6.281   1.308 -0.2611 -0.0239 -0.0205
36421SOL    HW115226  12.392   6.208   1.369  1.2669  0.2858  0.1472
36421SOL    HW215227  12.437   6.257   1.233  0.0015  0.7971 -0.0977
36422SOL     OW15228   6.162   9.050   9.908 -0.0899 -0.1718  0.1035
36422SOL    HW115229   6.236   9.093   9.952 -0.0711 -0.5456  0.4386
36422SOL    HW215230   6.165   9.085   9.819  0.3529 -0.0056  0.1775
36423SOL     OW15231   6.924  12.048   9.542 -0.5512  0.1145 -0.3002
36423SOL    HW115232   6.834  12.066   9.514 -0.5355 -0.0396 -0.4530
36423SOL    HW215233   6.920  11.962   9.583 -0.2181 -0.5179 -1.5585
36424SOL     OW15234   0.865   2.548  11.080 -0.1365  0.0493  0.6087
36424SOL    HW115235   0.953   2.584  11.083  0.2243 -0.8910  2.3065
36424SOL    HW215236   0.818   2.594  11.150 -0.8740  0.1661  0.0607
36425SOL     OW15237  10.785   4.001   6.223 -0.0885  0.0958  0.5512
36425SOL    HW115238  10.823   4.086   6.241 -1.1486  0.4768  1.0932
36425SOL    HW215239  10.857   3.948   6.190  1.3624  0.2117  3.2424
36426SOL     OW15240  11.680   2.975  10.321  0.2494  0.6332  0.0485
36426SOL    HW115241  11.660   2.922  10.399  0.4197  1.3758  0.6112
36426SOL    HW215242  11.596   3.012  10.295  0.2734  0.7682  0.1645
36427SOL     OW15243   7.244  10.199   8.192  0.1970  0.0234  0.0363
36427SOL    HW115244   7.252  10.117   8.241  0.2563 -0.4318 -0.7195
36427SOL    HW215245   7.303  10.259   8.236  0.9745 -0.6617 -0.0453
36428SOL     OW15246   7.694   4.495   7.278  0.0781  0.2476  0.2400
36428SOL    HW115247   7.707   4.565   7.342 -0.9221  0.8331 -0.1764
36428SOL    HW215248   7.677   4.541   7.195  0.0655 -0.4969 -0.1791
36429SOL     OW15249   7.598   9.197  12.373  0.4999 -0.0988  0.0659
36429SOL    HW115250   7.569   9.138  12.442 -0.1783  0.4677  0.2684
36429SOL    HW215251   7.633   9.139  12.305 -0.1721 -0.7363  0.2589
36430SOL     OW15252   5.285   1.149  10.404  0.2131 -0.5720 -0.2829
36430SOL    HW115253   5.220   1.085  10.375  0.6373 -1.1567  0.0327
36430SOL    HW215254   5.330   1.106  10.476  0.9832 -0.1948 -0.5305
36431SOL     OW15255   5.033   5.707   5.202 -0.4842 -0.1461  0.5077
36431SOL    HW115256   5.014   5.648   5.275 -1.3553  0.7371  1.0208
36431SOL    HW215257   5.019   5.654   5.124 -1.2481 -0.6338  0.9580
36432SOL     OW15258   4.462  10.969   5.457 -0.3606 -0.2992 -0.1777
36432SOL    HW115259   4.409  10.986   5.378 -1.1928  0.8825  0.5987
36432SOL    HW215260   4.552  10.983   5.429 -0.7361  1.3662 -0.6301
36433SOL     OW15261  11.139   4.814   5.024  0.0983  0.4386  0.4113
36433SOL    HW115262  11.144   4.833   5.118 -0.6566  0.4569  0.4506
36433SOL    HW215263  11.046   4.820   5.003  0.2895  0.7068 -0.3989
36434SOL     OW15264   6.850   9.067  11.812  0.2674  0.4289 -0.0316
36434SOL    HW115265   6.802   9.049  11.731  0.3867 -0.5113  0.0950
36434SOL    HW215266   6.938   9.091  11.782 -0.1714  1.8616 -0.2502
36435SOL     OW15267  10.684  12.398  11.257 -0.1326  0.0547  0.7549
36435SOL    HW115268  10.731  12.472  11.297 -0.8955  1.0626 -0.1448
36435SOL    HW215269  10.748  12.327  11.256  1.0403  1.0736  0.5102
36436SOL     OW15270  10.993   6.145   9.460  0.3170 -0.3513 -0.0668
36436SOL    HW115271  11.058   6.080   9.437  2.4843  1.5984  0.1884
36436SOL    HW215272  10.989   6.204   9.385 -0.4661  0.0757  0.2890
36437SOL     OW15273   0.268   6.975   8.851 -0.3300 -0.2171 -0.1003
36437SOL    HW115274   0.176   6.959   8.826 -0.0664 -1.9798 -0.0171
36437SOL    HW215275   0.288   6.907   8.915  1.4234 -0.6703 -1.0785
36438SOL     OW15276  10.441   4.629   8.027 -0.1503 -0.5620  0.1685
36438SOL    HW115277  10.382   4.648   8.099 -1.2293 -3.3968  0.1719
36438SOL    HW215278  10.409   4.546   7.991  1.2460 -0.0063 -2.6369
36439SOL     OW15279   9.156   1.624   3.768 -0.0636  0.0259 -0.0967
36439SOL    HW115280   9.178   1.604   3.677 -0.9887  0.1501 -0.3543
36439SOL    HW215281   9.240   1.645   3.809  0.5819 -1.6028 -0.5102
36440SOL     OW15282   6.279   9.333   4.203 -0.0653 -0.0791 -0.6272
36440SOL    HW115283   6.233   9.376   4.275 -2.9641  1.2468 -3.0552
36440SOL    HW215284   6.356   9.388   4.187  0.9061 -0.6584  1.6149
36441SOL     OW15285   4.705   1.494   3.650 -0.4417 -0.7279 -0.5448
36441SOL    HW115286   4.626   1.534   3.686 -0.2724 -1.9939  1.3444
36441SOL    HW215287   4.740   1.440   3.721  0.9891 -1.8377 -2.0097
36442SOL     OW15288   3.515   8.981   1.332 -0.0672  0.3589 -0.5637
36442SOL    HW115289   3.578   9.048   1.305  1.4503 -0.0849  1.6323
36442SOL    HW215290   3.463   9.023   1.400 -0.1109 -0.2446 -0.2237
36443SOL     OW15291   3.249   4.162  11.379 -0.2156 -0.2916  0.3310
36443SOL    HW115292   3.177   4.171  11.318  2.3023 -0.3612 -2.9419
36443SOL    HW215293   3.255   4.068  11.397  0.7169 -0.6877 -1.7467
36444SOL     OW15294   9.945   7.634   1.114  0.4135  0.0558 -0.5654
36444SOL    HW115295  10.013   7.613   1.050  0.9042  0.3804 -0.1551
36444SOL    HW215296   9.876   7.675   1.062  0.1388 -1.0796 -1.1202
36445SOL     OW15297   7.552   8.265   0.328  0.2499 -0.6888  0.6262
36445SOL    HW115298   7.496   8.187   0.334  2.2623 -2.1206  1.6527
36445SOL    HW215299   7.625   8.239   0.273 -0.6107  1.5930 -1.8771
36446SOL     OW15300   6.953   6.553   3.482  0.6497 -0.2389  0.2822
36446SOL    HW115301   6.990   6.486   3.424 -0.3321 -0.7295  0.2059
36446SOL    HW215302   6.862   6.526   3.494  0.2414  1.0763  0.2536
36447SOL     OW15303   2.756   0.565   5.202  0.5685  0.1571 -0.4953
36447SOL    HW115304   2.741   0.635   5.266  0.4783  0.2496 -0.6165
36447SOL    HW215305   2.817   0.604   5.139  0.5717  0.1035 -0.5249
36448SOL     OW15306   2.624   7.285  10.543 -0.1906  0.0489 -0.0880
36448SOL    HW115307   2.535   7.260  10.569 -0.2785  0.8460  0.4247
36448SOL    HW215308   2.617   7.306  10.450 -0.7933  1.1864  0.1988
36449SOL     OW15309   6.045   4.976   1.316 -0.3968  0.5586  0.1932
36449SOL    HW115310   6.063   5.055   1.368  1.7180  1.0535 -1.1365
36449SOL    HW215311   6.041   5.007   1.226  2.4468 -1.0071 -0.5921
36450SOL     OW15312   3.442   9.828   1.857  0.8195 -0.3602  0.4800
36450SOL    HW115313   3.356   9.870   1.868 -0.4880 -2.7748  0.3154
36450SOL    HW215314   3.422   9.734   1.860  3.4778 -0.9861  0.3191
36451SOL     OW15315   3.224   4.918   4.584 -0.7858  0.2357  0.3622
36451SOL    HW115316   3.256   4.991   4.636  0.2286  0.2897 -0.3241
36451SOL    HW215317   3.130   4.917   4.601 -0.4400 -0.0179  2.5234
36452SOL     OW15318   9.027   8.556   0.813 -0.0961  0.0126  0.2174
36452SOL    HW115319   9.065   8.511   0.738  2.0634 -1.0041  1.7993
36452SOL    HW215320   8.977   8.489   0.859 -0.6600  0.3993  0.1821
36453SOL     OW15321  11.663   7.925   3.074 -0.3153 -0.1647  0.8434
36453SOL    HW115322  11.629   7.994   3.017 -1.2036 -0.2753  1.2141
36453SOL    HW215323  11.685   7.853   3.015 -2.1628 -0.6585  0.6876
36454SOL     OW15324   8.896   9.335   5.095  0.2897  0.3326 -0.4228
36454SOL    HW115325   8.971   9.278   5.113 -0.8532 -0.8538  0.7680
36454SOL    HW215326   8.850   9.291   5.024 -0.4308 -0.1130  0.3000
36455SOL     OW15327   0.937   7.200   2.722 -0.9362  0.6500  0.3488
36455SOL    HW115328   0.984   7.118   2.706  1.1033  1.7174  0.6099
36455SOL    HW215329   0.847   7.181   2.694 -0.2193 -1.2485 -0.9020
36456SOL     OW15330  10.261   1.581   8.207  0.1446 -0.3838  1.0056
36456SOL    HW115331  10.307   1.550   8.129  0.9671  2.8578  0.0325
36456SOL    HW215332  10.331   1.595   8.271  0.4200  2.6933  0.1798
36457SOL     OW15333   1.828   6.186   7.234  0.1149 -0.4431  0.1608
36457SOL    HW115334   1.772   6.252   7.196 -1.3152 -0.3832  2.2115
36457SOL    HW215335   1.775   6.106   7.234  1.2869 -1.2673 -0.9385
36458SOL     OW15336   4.889   5.781   3.316 -0.2374  0.1876 -0.0165
36458SOL    HW115337   4.825   5.801   3.248 -1.6763 -1.0945  0.8870
36458SOL    HW215338   4.865   5.837   3.390  1.0792  1.2959 -0.3972
36459SOL     OW15339   8.822   2.245   4.078 -0.2286 -0.4000  0.5254
36459SOL    HW115340   8.873   2.184   4.025 -1.2202 -0.8461  0.0562
36459SOL    HW215341   8.824   2.327   4.030  0.6916 -0.1846  0.9075
36460SOL     OW15342  10.701   6.577   3.356  0.6555  0.2106 -0.0223
36460SOL    HW115343  10.707   6.628   3.276  1.1187  1.1165  0.5746
36460SOL    HW215344  10.778   6.602   3.407  0.9277 -1.1143  0.2758
36461SOL     OW15345  11.971  10.904  12.065  0.0839 -0.0309 -0.0646
36461SOL    HW115346  11.922  10.844  12.121  1.6228 -1.1016  0.1938
36461SOL    HW215347  12.063  10.879  12.077  0.8679  2.7779  0.5591
36462SOL     OW15348  11.620   8.115  11.471  0.8528 -0.5749 -0.0997
36462SOL    HW115349  11.559   8.080  11.536 -1.1869  0.1849 -1.4843
36462SOL    HW215350  11.670   8.039  11.442 -0.1950 -1.4488  0.3042
36463SOL     OW15351   4.134   3.919   1.750  0.1283  0.3697 -0.0562
36463SOL    HW115352   4.108   3.955   1.834 -0.5639 -0.3824  0.0573
36463SOL    HW215353   4.078   3.842   1.737  0.6156  0.1398 -0.9340
36464SOL     OW15354   7.835  10.766   0.437  0.6877 -0.5718  0.4513
36464SOL    HW115355   7.889  10.727   0.505 -0.3176 -1.2823  0.8694
36464SOL    HW215356   7.747  10.731   0.453  0.0693  0.6328 -0.1297
36465SOL     OW15357   6.346  12.117   2.133  0.1577  0.2612 -0.5722
36465SOL    HW115358   6.328  12.210   2.119 -2.0944 -0.3160 -2.1599
36465SOL    HW215359   6.400  12.092   2.058 -0.8178 -0.0632 -1.1898
36466SOL     OW15360   0.952   8.459  12.223 -0.3394  0.1356  0.5945
36466SOL    HW115361   1.038   8.437  12.258 -0.0669  2.6806  1.7569
36466SOL    HW215362   0.922   8.379  12.181  3.7571 -0.1776 -2.3161
36467SOL     OW15363   1.685   2.708  10.329  0.1762  0.3812  0.5254
36467SOL    HW115364   1.723   2.767  10.264 -1.0968  0.1435 -0.4679
36467SOL    HW215365   1.642   2.640  10.277  1.0596 -1.0936  1.6360
36468SOL     OW15366   9.064   5.562  10.303 -0.1240  0.7850 -0.7161
36468SOL    HW115367   9.084   5.473  10.273 -0.6590  0.4408 -0.0851
36468SOL    HW215368   8.970   5.571  10.288 -0.4312  0.5606  0.9099
36469SOL     OW15369  11.501   4.997   1.522 -0.4875 -0.0735  0.3982
36469SOL    HW115370  11.419   4.958   1.554 -0.6663 -0.0753 -0.0490
36469SOL    HW215371  11.561   4.992   1.596 -0.8719 -0.1409  0.7081
36470SOL     OW15372  11.355   7.120   3.619  0.3181 -0.4719 -0.2152
36470SOL    HW115373  11.408   7.076   3.686 -1.9911 -0.7959  1.5308
36470SOL    HW215374  11.270   7.131   3.660 -0.5149  1.5286 -2.3016
36471SOL     OW15375   1.000   0.885  12.042 -0.4791 -0.1480 -0.3688
36471SOL    HW115376   0.961   0.797  12.046 -0.4127 -0.1447  0.3655
36471SOL    HW215377   1.077   0.874  11.986 -0.8851 -0.3965 -0.8925
36472SOL     OW15378   0.940   2.412   7.955 -0.3302  0.0888 -0.1627
36472SOL    HW115379   0.911   2.444   8.041  0.7669 -0.3006  0.3655
36472SOL    HW215380   0.861   2.376   7.916 -1.0907  1.2874  0.2134
36473SOL     OW15381   0.421   1.351   6.411 -0.2017 -0.1562  0.0935
36473SOL    HW115382   0.338   1.318   6.447 -0.4122  0.4435  0.1861
36473SOL    HW215383   0.411   1.342   6.316  0.1310 -1.2318  0.1543
36474SOL     OW15384   9.707   4.891  11.390  0.0281 -0.5072 -0.3983
36474SOL    HW115385   9.624   4.846  11.405 -1.0839  1.7126  0.6138
36474SOL    HW215386   9.683   4.972  11.344  1.5373  0.4491  0.3926
36475SOL     OW15387   5.895   0.080  12.417 -0.5568  0.0770  0.2064
36475SOL    HW115388   5.839   0.113  12.487  1.8725  0.6136  2.0395
36475SOL    HW215389   5.855   0.114  12.337 -2.6279  0.6872  1.4107
36476SOL     OW15390   4.473   5.953   7.350  0.3600  0.6430  0.4746
36476SOL    HW115391   4.438   5.869   7.381  1.0946  0.5043  0.9402
36476SOL    HW215392   4.398   5.995   7.307  0.3648 -0.9256 -1.1867
36477SOL     OW15393   3.920   8.657   0.112  0.2828  0.1818  0.1432
36477SOL    HW115394   3.987   8.719   0.083  0.0914 -0.6216 -2.1703
36477SOL    HW215395   3.868   8.706   0.175  0.9750  1.9105 -0.5678
36478SOL     OW15396   5.250   9.922   5.685 -0.0602  0.3357  0.7986
36478SOL    HW115397   5.219   9.861   5.752 -1.3248  1.2665  1.0830
36478SOL    HW215398   5.223   9.882   5.602 -1.5164  0.8236  1.0149
36479SOL     OW15399  10.807  10.146   8.915  0.6892 -0.0573  0.0262
36479SOL    HW115400  10.874  10.214   8.908  0.7723 -0.1324  0.0752
36479SOL    HW215401  10.757  10.152   8.833  1.1678 -0.4306 -0.3006
36480SOL     OW15402   2.044   9.391   1.947  0.4753 -0.0382  0.2608
36480SOL    HW115403   2.007   9.441   2.019  0.5724 -0.9099  0.9371
36480SOL    HW215404   2.011   9.302   1.960 -0.4348  0.0067 -1.4234
36481SOL     OW15405   5.584  11.663   7.977  0.0774 -0.2556  0.5301
36481SOL    HW115406   5.587  11.568   7.965 -0.5248 -0.5445  2.2794
36481SOL    HW215407   5.579  11.674   8.072  2.3841  1.6189  0.5149
36482SOL     OW15408   3.941  11.076   4.287 -0.2831  0.6438  0.0309
36482SOL    HW115409   3.977  11.156   4.325  1.8142  0.0279 -0.5126
36482SOL    HW215410   3.994  11.062   4.208  0.4786 -2.0651  0.9218
36483SOL     OW15411  10.651   1.208  10.519 -0.2780 -0.0486 -0.2452
36483SOL    HW115412  10.643   1.113  10.507 -0.5408  0.1285 -1.5682
36483SOL    HW215413  10.679   1.218  10.611  1.2422 -1.4659 -0.4990
36484SOL     OW15414   1.769  11.933   7.206 -0.3111 -0.2218 -0.7213
36484SOL    HW115415   1.856  11.967   7.186 -0.1610 -0.6400 -0.7716
36484SOL    HW215416   1.782  11.874   7.280 -0.4984 -0.5574 -0.9532
36485SOL     OW15417   5.311  11.995   4.161 -0.1943  0.0673  0.3595
36485SOL    HW115418   5.391  11.943   4.152 -0.6182 -0.4416 -0.5527
36485SOL    HW215419   5.281  11.977   4.250  0.6605  0.2159  0.6932
36486SOL     OW15420   0.913   0.558  10.142 -0.2194 -0.0183 -0.2040
36486SOL    HW115421   0.853   0.632  10.132 -0.8756 -0.7743 -2.5961
36486SOL    HW215422   0.993   0.586  10.096 -0.0279 -0.3267 -0.0600
36487SOL     OW15423   3.676   9.232  11.214 -0.0637  0.2976 -0.0040
36487SOL    HW115424   3.613   9.203  11.149 -0.9523  1.1500  0.4414
36487SOL    HW215425   3.666   9.327  11.217 -0.4242  0.2398  1.7301
36488SOL     OW15426   0.259  11.470   0.984 -0.0418 -0.2061 -0.6593
36488SOL    HW115427   0.351  11.488   1.001 -0.2040 -0.2843  0.3593
36488SOL    HW215428   0.229  11.545   0.933  1.0496 -1.1206 -2.7854
36489SOL     OW15429   4.655  12.378   3.732 -0.4349  0.2196  0.0029
36489SOL    HW115430   4.733  12.359   3.784 -1.1225  0.3999  1.1251
36489SOL    HW215431   4.657  12.313   3.662  1.4505  1.0931 -0.8164
36490SOL     OW15432  10.364  11.202   7.018  0.3574 -0.3371  0.4804
36490SOL    HW115433  10.443  11.247   6.992 -1.1029  0.8927 -2.2589
36490SOL    HW215434  10.377  11.112   6.988  1.1457 -0.4642  1.1553
36491SOL     OW15435  11.370   5.028   2.546  0.0907  0.3183 -0.1588
36491SOL    HW115436  11.368   4.992   2.635 -0.1574  1.2952  0.2390
36491SOL    HW215437  11.285   5.070   2.535  0.2956  0.5983 -0.6995
36492SOL     OW15438   6.246  10.447  10.708  0.0913 -0.6220 -0.1471
36492SOL    HW115439   6.282  10.407  10.628  1.5041  1.8222 -0.8467
36492SOL    HW215440   6.223  10.536  10.681 -2.3898 -0.6944  1.4572
36493SOL     OW15441   5.020   3.099   2.655  0.1783  0.0775  0.0849
36493SOL    HW115442   5.011   3.131   2.744 -0.3665 -0.4935  0.2465
36493SOL    HW215443   5.114   3.099   2.638  0.1893  2.7971 -0.3311
36494SOL     OW15444   5.202   9.229   8.714 -0.1532 -0.3562 -0.9122
36494SOL    HW115445   5.243   9.314   8.732 -0.7987  0.0562 -1.3567
36494SOL    HW215446   5.250   9.167   8.770 -0.7396  0.5585  0.6531
36495SOL     OW15447   4.588   3.998   9.250 -0.6405 -0.1545  0.2577
36495SOL    HW115448   4.654   4.041   9.195 -1.6432 -2.2393 -2.8441
36495SOL    HW215449   4.638   3.946   9.313  0.5989  0.6601 -0.0258
36496SOL     OW15450  10.500  10.440   1.333  0.1147  0.1506 -0.1930
36496SOL    HW115451  10.451  10.521   1.317  0.4106  0.1847 -1.0035
36496SOL    HW215452  10.559  10.462   1.405 -0.8241  0.1998  0.5774
36497SOL     OW15453   0.651   3.820   7.530  0.1820 -0.4094 -0.0053
36497SOL    HW115454   0.698   3.794   7.609 -1.4219 -2.2344  0.4435
36497SOL    HW215455   0.691   3.767   7.460  1.0543  0.5994 -0.2899
36498SOL     OW15456   2.415  11.404   2.644  0.3829 -0.0997 -0.1052
36498SOL    HW115457   2.370  11.360   2.573  0.7708 -1.1648  0.2862
36498SOL    HW215458   2.508  11.388   2.627  0.4445 -1.5869  1.3552
36499SOL     OW15459   7.049   7.526  10.526 -0.7302  0.0857 -0.4063
36499SOL    HW115460   7.005   7.586  10.586 -1.0189 -1.0706  0.5743
36499SOL    HW215461   7.022   7.556  10.439  0.2543  2.2308 -0.0392
36500SOL     OW15462   3.480   8.854   0.933  0.0692  0.1452 -1.1334
36500SOL    HW115463   3.550   8.834   0.996  0.9499  1.3071 -1.7080
36500SOL    HW215464   3.494   8.792   0.862  0.3346  0.1807 -1.1144
36501SOL     OW15465   2.487   4.398   1.776  0.0106 -0.4387 -0.7363
36501SOL    HW115466   2.535   4.326   1.816 -0.6926 -0.2242  0.5517
36501SOL    HW215467   2.493   4.469   1.840 -1.6101 -0.2594 -0.7333
36502SOL     OW15468   7.608   1.080   1.651 -0.5998 -0.8871  0.4073
36502SOL    HW115469   7.516   1.104   1.637 -0.5226 -0.1551  1.0702
36502SOL    HW215470   7.623   1.006   1.592 -0.5091  1.4625 -2.7592
36503SOL     OW15471   2.299   8.258   2.434 -0.3062  0.3513 -0.2410
36503SOL    HW115472   2.231   8.295   2.489 -0.2535  0.2790 -0.1281
36503SOL    HW215473   2.264   8.264   2.345 -0.0260  1.2915 -0.3035
36504SOL     OW15474  11.565  10.167   5.416  0.5554 -0.4272 -0.3074
36504SOL    HW115475  11.566  10.166   5.320  0.3802 -0.5685 -0.3084
36504SOL    HW215476  11.485  10.120   5.440  1.6800 -2.3412 -0.0635
36505SOL     OW15477   4.447   8.191   4.311  0.2396 -0.2505  0.2256
36505SOL    HW115478   4.531   8.173   4.352 -0.0072  0.1607  0.9347
36505SOL    HW215479   4.384   8.140   4.362 -0.1664  0.8259  0.8351
36506SOL     OW15480   2.431  11.946   1.574  0.6650  0.1033 -0.2481
36506SOL    HW115481   2.362  12.000   1.535  0.5433  2.0272  2.3277
36506SOL    HW215482   2.501  11.946   1.509 -0.8210  0.0615 -1.9403
36507SOL     OW15483   0.665  10.992   1.703 -0.0073  0.0732 -0.1190
36507SOL    HW115484   0.604  10.922   1.725 -0.3499  0.5140  0.3656
36507SOL    HW215485   0.749  10.948   1.688 -0.2184 -0.4371  0.2037
36508SOL     OW15486   0.714   8.770   3.506  0.9428 -0.2838 -0.2866
36508SOL    HW115487   0.725   8.705   3.436  0.6965 -0.8431  0.1862
36508SOL    HW215488   0.639   8.822   3.478  0.9973 -0.3496 -0.5562
36509SOL     OW15489   4.703   0.787   1.663 -0.2260 -0.2776 -0.3864
36509SOL    HW115490   4.774   0.797   1.725 -1.1435 -0.5136  0.7361
36509SOL    HW215491   4.744   0.798   1.577  1.1923 -0.6603  0.2171
36510SOL     OW15492   6.524   4.014  11.919  0.1414  0.1622  0.2098
36510SOL    HW115493   6.503   4.096  11.963  1.8491  1.7669 -1.7665
36510SOL    HW215494   6.445   3.994  11.868  0.4155  1.7370 -0.8941
36511SOL     OW15495   9.829  10.942   2.926 -0.3576 -0.3086  0.8807
36511SOL    HW115496   9.879  10.997   2.987  2.1785 -1.9139  0.3989
36511SOL    HW215497   9.809  10.863   2.975 -1.7655 -0.0143  0.8000
36512SOL     OW15498   8.774   2.212   2.597 -0.6419 -0.3715 -0.6793
36512SOL    HW115499   8.719   2.133   2.592 -0.5436 -0.4454 -0.5960
36512SOL    HW215500   8.711   2.285   2.595 -0.7718 -0.4676 -0.0932
36513SOL     OW15501   0.879   0.621  12.395  0.1133 -0.5373 -0.4581
36513SOL    HW115502   0.939   0.564  12.443  0.7362  0.7592  0.3624
36513SOL    HW215503   0.863   0.694  12.455 -1.2074 -0.1875 -1.2105
36514SOL     OW15504   6.701   0.953   3.107  0.1682  0.0518 -0.8033
36514SOL    HW115505   6.688   1.048   3.116  0.8089  0.4730 -3.4165
36514SOL    HW215506   6.690   0.936   3.013  1.0826 -2.2965 -0.5587
36515SOL     OW15507  10.119   2.751   7.372  0.4266  0.2766  0.2251
36515SOL    HW115508  10.104   2.820   7.308  0.3639  0.2552  0.2174
36515SOL    HW215509  10.177   2.791   7.437  2.6173 -0.4759 -1.1833
36516SOL     OW15510   2.631  11.295  11.100  0.5907 -1.0963 -0.1146
36516SOL    HW115511   2.576  11.280  11.177  1.0555 -0.8016  0.2831
36516SOL    HW215512   2.599  11.378  11.064  0.5589 -1.0920 -0.0772
36517SOL     OW15513   1.104   6.110  12.033  0.1499  0.0780  0.1376
36517SOL    HW115514   1.010   6.093  12.038 -0.0648  1.4017  0.7914
36517SOL    HW215515   1.113   6.177  11.965  0.7315 -0.6753 -0.5619
36518SOL     OW15516   5.879   5.872   2.331  0.2453 -0.6328 -0.2094
36518SOL    HW115517   5.915   5.957   2.358  2.0604 -1.9402  1.8162
36518SOL    HW215518   5.836   5.839   2.410  0.0305 -1.8275 -0.8050
36519SOL     OW15519   2.283  12.201   8.779 -0.3262 -0.1572  0.0058
36519SOL    HW115520   2.197  12.160   8.791  0.6043 -1.5354  2.7599
36519SOL    HW215521   2.290  12.265   8.849  1.1716 -0.6063  0.3149
36520SOL     OW15522   0.092   7.028   6.797 -0.4742 -0.2555 -0.2584
36520SOL    HW115523   0.121   6.968   6.866  1.6069 -0.1457 -0.9797
36520SOL    HW215524   0.034   6.975   6.742 -0.6594 -0.8749  0.5146
36521SOL     OW15525   9.361   1.557   4.712  0.6158 -0.2444 -0.0649
36521SOL    HW115526   9.351   1.646   4.745  0.5968 -0.3004  0.0818
36521SOL    HW215527   9.290   1.508   4.753  0.4744 -0.2722 -0.3408
36522SOL     OW15528   2.132   4.788   4.287 -0.1403  0.4895 -0.6656
36522SOL    HW115529   2.040   4.804   4.269 -0.9161 -1.5396  1.0001
36522SOL    HW215530   2.132   4.732   4.365  2.5713  1.8499  0.4617
36523SOL     OW15531   1.202  11.858   6.785 -0.4190  0.1950 -0.0460
36523SOL    HW115532   1.199  11.763   6.784  0.8453  0.1342 -0.4905
36523SOL    HW215533   1.260  11.880   6.858 -1.5196  0.6775  0.7090
36524SOL     OW15534   2.232   2.194   4.999  1.1180 -0.3589 -0.6117
36524SOL    HW115535   2.170   2.187   5.071  1.1072  0.3165 -0.5469
36524SOL    HW215536   2.178   2.191   4.920  0.8244  1.6664 -0.5351
36525SOL     OW15537  10.859   7.982   6.391  0.0314 -0.2054  0.3613
36525SOL    HW115538  10.887   8.061   6.344  1.6919 -0.3159  1.1007
36525SOL    HW215539  10.845   8.011   6.481  3.0719 -1.1239  1.2463
36526SOL     OW15540   9.047   9.936   1.582  0.3989  0.3419 -0.1179
36526SOL    HW115541   9.115   9.872   1.604 -0.1320  0.0247  0.6297
36526SOL    HW215542   8.969   9.904   1.627 -0.5656  0.0449 -1.9198
36527SOL     OW15543  12.166   0.202   7.571  0.3185  0.7749  0.3497
36527SOL    HW115544  12.227   0.241   7.634  1.7774 -1.2231  0.2740
36527SOL    HW215545  12.180   0.107   7.580 -0.0218  0.3965 -2.3889
36528SOL     OW15546   9.655   2.437   5.234  0.0100  0.4871  0.4907
36528SOL    HW115547   9.600   2.507   5.200 -0.0200  0.1456 -0.1854
36528SOL    HW215548   9.735   2.442   5.182  0.7540  1.1503  1.6410
36529SOL     OW15549   4.782   8.081   5.606 -0.3104  0.1120  0.3365
36529SOL    HW115550   4.796   8.173   5.631  2.3850  0.1102 -0.8136
36529SOL    HW215551   4.846   8.033   5.658 -0.3159 -0.8620 -0.5395
36530SOL     OW15552  11.088  12.145   9.085 -0.2347 -0.4166  0.2596
36530SOL    HW115553  11.135  12.061   9.089 -0.9069 -0.7653  0.9427
36530SOL    HW215554  11.097  12.172   8.993 -1.1816 -1.9293 -0.3369
36531SOL     OW15555   1.301   6.642   4.262  0.1565 -0.2818  0.2272
36531SOL    HW115556   1.269   6.625   4.351 -1.7948  1.6908 -0.0227
36531SOL    HW215557   1.387   6.682   4.275 -0.6029  1.0841  1.3247
36532SOL     OW15558   5.301   1.185   7.190  0.0172 -0.0871 -0.0131
36532SOL    HW115559   5.208   1.195   7.212  0.3933 -0.1882  1.7168
36532SOL    HW215560   5.317   1.090   7.195 -0.7560 -0.7231 -4.7265
36533SOL     OW15561   6.767   4.902   8.871  0.1664 -0.0362  0.2483
36533SOL    HW115562   6.720   4.928   8.950 -0.4025 -1.5490  0.4478
36533SOL    HW215563   6.698   4.883   8.808  0.5448 -0.8486  0.0676
36534SOL     OW15564   8.225   4.324   1.478 -0.2675 -0.0594 -0.0950
36534SOL    HW115565   8.182   4.339   1.394  0.6788 -0.1587 -0.6021
36534SOL    HW215566   8.223   4.229   1.490  0.2119 -0.1034 -0.3402
36535SOL     OW15567   2.809   6.478   5.859 -0.4809 -0.3953 -0.1068
36535SOL    HW115568   2.828   6.396   5.904  0.8088  1.2566  2.6224
36535SOL    HW215569   2.723   6.504   5.891  0.5126  0.8703  1.7461
36536SOL     OW15570  12.370   4.195  11.343 -0.0497  0.1614  0.2642
36536SOL    HW115571  12.462   4.173  11.329 -0.5692 -1.1038 -1.6116
36536SOL    HW215572  12.369   4.290  11.354  1.2920  0.5427 -2.2087
36537SOL     OW15573   9.342   3.874   6.202 -0.5341  0.6210 -0.1461
36537SOL    HW115574   9.414   3.886   6.140  2.0289 -1.0042  2.2468
36537SOL    HW215575   9.357   3.941   6.270 -0.5244 -0.4678  0.9672
36538SOL     OW15576  10.543   0.562   7.509  0.0945  0.4087 -0.0461
36538SOL    HW115577  10.606   0.591   7.443  0.5308 -0.1605  0.1130
36538SOL    HW215578  10.473   0.628   7.506  0.4060  0.7196 -0.6413
36539SOL     OW15579   7.340   5.304   7.935  0.2717  0.0803 -0.0150
36539SOL    HW115580   7.324   5.363   8.008 -0.5067 -0.4853  0.2847
36539SOL    HW215581   7.344   5.361   7.858 -1.3485  0.4530  0.1463
36540SOL     OW15582  11.038   3.875   7.206  0.1553 -0.5210 -0.5975
36540SOL    HW115583  10.965   3.820   7.179 -0.9623  1.4672 -1.9321
36540SOL    HW215584  11.092   3.819   7.261 -3.0888 -1.6992  1.6685
36541SOL     OW15585   0.728   9.013   4.136 -0.3062  0.5127  1.0313
36541SOL    HW115586   0.786   9.071   4.087 -3.7190  2.2116 -1.4330
36541SOL    HW215587   0.702   9.064   4.213 -0.2992  0.7032  0.9081
36542SOL     OW15588   9.279   8.129   4.755 -0.2166  0.0505 -0.5771
36542SOL    HW115589   9.314   8.057   4.807  2.6778  1.9502  0.3519
36542SOL    HW215590   9.184   8.116   4.758  0.1024 -3.0196  0.4831
36543SOL     OW15591  11.432   2.940   9.047 -0.1045  0.3001  0.5600
36543SOL    HW115592  11.486   2.979   9.116 -0.3613  1.0889  0.3247
36543SOL    HW215593  11.365   3.006   9.028  1.4220  1.2305 -2.1729
36544SOL     OW15594   4.022   1.180  12.300 -0.2253  0.4418  0.1378
36544SOL    HW115595   4.100   1.207  12.347  0.6323  0.5853 -1.3135
36544SOL    HW215596   4.044   1.189  12.208 -1.8360  0.1386 -0.3238
36545SOL     OW15597   3.370  10.043   6.487 -0.3045  0.1153 -0.7136
36545SOL    HW115598   3.364   9.948   6.499  0.3564  0.3583  2.4654
36545SOL    HW215599   3.463  10.060   6.475 -0.3804  0.3892 -0.9104
36546SOL     OW15600   6.179   8.255   5.607 -0.5190 -0.2997  0.1988
36546SOL    HW115601   6.222   8.270   5.691  0.4864 -0.1691 -0.3252
36546SOL    HW215602   6.213   8.169   5.579  0.9036  0.6299 -1.0927
36547SOL     OW15603   9.129  11.116   9.343  0.4479  0.2434  0.7320
36547SOL    HW115604   9.062  11.142   9.279 -1.4363 -0.8875  2.1559
36547SOL    HW215605   9.206  11.097   9.289 -1.4939 -2.2475 -1.5114
36548SOL     OW15606   7.692   0.870   5.469 -0.4880 -0.0004  0.2023
36548SOL    HW115607   7.628   0.858   5.539  0.8524  1.0441  1.6614
36548SOL    HW215608   7.749   0.940   5.500 -0.4181  1.1828 -2.3680
36549SOL     OW15609   0.194   5.093  10.007 -0.1678 -0.0046 -0.1301
36549SOL    HW115610   0.169   5.021   9.949  1.5538 -0.2098 -0.6931
36549SOL    HW215611   0.289   5.099   9.998 -0.1305  1.5629  0.8297
36550SOL     OW15612   2.377   1.182   6.756  0.4159 -0.0917  0.1246
36550SOL    HW115613   2.446   1.149   6.699  0.1124  1.0806 -0.9635
36550SOL    HW215614   2.399   1.274   6.770 -1.6598  0.7584 -1.4997
36551SOL     OW15615   1.137   6.170   6.226  0.9769  0.0636  0.0534
36551SOL    HW115616   1.044   6.178   6.207  0.9942  0.8978  0.2766
36551SOL    HW215617   1.178   6.154   6.141  0.5594 -1.1090  0.0573
36552SOL     OW15618   3.249   8.300   9.293 -0.3244 -0.2273  0.0834
36552SOL    HW115619   3.169   8.263   9.255  0.0662 -2.2535  1.1036
36552SOL    HW215620   3.296   8.225   9.328  2.0028  0.9259 -0.3717
36553SOL     OW15621   7.691   1.559   9.879  0.3564 -0.1391 -0.2567
36553SOL    HW115622   7.765   1.616   9.899 -0.8325  1.0749  0.9401
36553SOL    HW215623   7.730   1.481   9.839  2.3294  0.1625  0.9371
36554SOL     OW15624   7.477   9.429   4.045  0.2726  0.0945 -0.5065
36554SOL    HW115625   7.568   9.437   4.015  0.2885  1.8467 -0.0753
36554SOL    HW215626   7.481   9.445   4.139 -0.4583 -0.1521 -0.4282
36555SOL     OW15627  12.020   2.291   5.262  0.3454 -0.1564 -0.0861
36555SOL    HW115628  12.024   2.311   5.169 -0.1694 -2.4161 -0.6469
36555SOL    HW215629  12.112   2.292   5.291  0.6985 -1.3109 -1.0808
36556SOL     OW15630   6.751   3.244   8.386 -0.4779  0.2255 -0.5422
36556SOL    HW115631   6.790   3.275   8.468  2.5412 -0.2433 -1.6611
36556SOL    HW215632   6.675   3.192   8.413  1.4026 -1.3665  2.1260
36557SOL     OW15633   3.715   3.805   6.919  0.0120  0.3156  0.6046
36557SOL    HW115634   3.712   3.901   6.917  1.0612  0.4001  1.7552
36557SOL    HW215635   3.796   3.783   6.872 -0.5199 -0.0455 -0.1559
36558SOL     OW15636   1.246   5.411   6.860  0.3909  0.4765 -0.1082
36558SOL    HW115637   1.158   5.401   6.826 -1.1850  1.3432  3.2730
36558SOL    HW215638   1.260   5.506   6.863  0.2402  0.4767  1.9138
36559SOL     OW15639   0.400  10.171   9.811 -0.2085 -0.5512  0.2987
36559SOL    HW115640   0.381  10.081   9.786  1.5821 -0.6681 -0.8964
36559SOL    HW215641   0.485  10.189   9.770 -0.0518  1.3478  1.3509
36560SOL     OW15642  12.360   7.147  10.987 -0.0563 -0.7912 -0.1599
36560SOL    HW115643  12.345   7.240  11.006  0.3797 -0.2438 -2.2802
36560SOL    HW215644  12.276   7.116  10.954 -1.2847 -2.1361  3.7170
36561SOL     OW15645   8.963   8.368   0.086  0.2578 -0.7167 -0.2269
36561SOL    HW115646   8.984   8.421   0.009  0.0860  0.0091  0.2130
36561SOL    HW215647   8.926   8.431   0.148 -1.5206 -1.6290 -0.3024
36562SOL     OW15648   9.787   1.905   7.353  0.1351 -0.4145 -0.4526
36562SOL    HW115649   9.863   1.927   7.299  0.7006 -1.4762 -0.1183
36562SOL    HW215650   9.778   1.980   7.412  1.9730 -0.9806  0.6316
36563SOL     OW15651  10.737   0.345   2.293  0.7307  0.4994  0.0504
36563SOL    HW115652  10.662   0.397   2.320 -0.0748  0.0692 -1.2353
36563SOL    HW215653  10.767   0.387   2.212  0.0025 -0.9957 -1.0699
36564SOL     OW15654   3.732  10.027   1.503 -0.4956  0.5639 -0.2925
36564SOL    HW115655   3.827  10.032   1.491 -0.6851  2.2059 -1.6292
36564SOL    HW215656   3.720   9.978   1.584  1.4743 -0.0491 -0.3167
36565SOL     OW15657   8.490  10.263   3.908  0.1805  0.1891 -0.1936
36565SOL    HW115658   8.503  10.203   3.835 -0.5277  0.9930 -1.0160
36565SOL    HW215659   8.409  10.233   3.949  0.5206 -0.1964  0.2009
36566SOL     OW15660  11.470  12.430   1.299 -0.5886  0.1530 -0.2638
36566SOL    HW115661  11.469  12.484   1.220 -0.7974  2.0829  1.0165
36566SOL    HW215662  11.521  12.481   1.362 -0.6893 -1.2178  0.9679
36567SOL     OW15663   6.570   7.145  11.769 -0.3083 -0.2542 -0.5297
36567SOL    HW115664   6.576   7.106  11.856 -0.7648 -3.0179 -1.6556
36567SOL    HW215665   6.533   7.232  11.785  0.1199 -0.4553  2.0520
36568SOL     OW15666   7.256  11.504   4.626 -0.0681 -0.0561  0.0936
36568SOL    HW115667   7.206  11.561   4.684  0.4457  1.4697 -0.9004
36568SOL    HW215668   7.308  11.564   4.573  1.3102 -1.5089 -0.2768
36569SOL     OW15669   8.136   0.795   8.548  0.0863 -0.2750 -0.2140
36569SOL    HW115670   8.218   0.747   8.556  0.3860  0.4202  0.9705
36569SOL    HW215671   8.083   0.766   8.622  0.0257  0.7448  0.1575
36570SOL     OW15672  11.213   4.673   0.926  0.5422  0.0077  0.5478
36570SOL    HW115673  11.241   4.587   0.894  2.0398  0.6867 -0.0877
36570SOL    HW215674  11.234   4.672   1.019 -0.1666 -0.5841  0.7064
36571SOL     OW15675  12.139   5.385   2.530 -0.0329 -0.0136 -0.2420
36571SOL    HW115676  12.118   5.476   2.547 -0.8966 -0.4307  1.0981
36571SOL    HW215677  12.221   5.387   2.480 -1.5637  1.5803 -2.9137
36572SOL     OW15678   9.196   1.456  12.409  0.1329  0.6246  0.0816
36572SOL    HW115679   9.153   1.482  12.327 -2.5202 -1.2618  0.7302
36572SOL    HW215680   9.218   1.538  12.452 -1.0082  1.6791 -1.2587
36573SOL     OW15681   0.188   2.957  11.126 -1.2598 -0.2600 -0.1337
36573SOL    HW115682   0.277   2.923  11.136 -0.5788  1.8427  1.5199
36573SOL    HW215683   0.140   2.884  11.087  1.1261 -1.5079 -0.9680
36574SOL     OW15684   4.133   9.800   0.929 -0.1685 -0.3663 -0.1245
36574SOL    HW115685   4.143   9.893   0.907 -1.5899 -0.2434 -0.3381
36574SOL    HW215686   4.098   9.760   0.849 -0.2537 -0.9551  0.2018
36575SOL     OW15687   0.737   7.722   9.186  0.3793  0.6057 -0.0951
36575SOL    HW115688   0.745   7.649   9.248  0.9034  0.3607 -0.4472
36575SOL    HW215689   0.710   7.796   9.240  0.5707  0.3304  0.3844
36576SOL     OW15690   5.624  10.964  12.184 -0.2668 -0.3449 -0.3459
36576SOL    HW115691   5.657  10.951  12.273 -0.0625  2.8641  0.1577
36576SOL    HW215692   5.528  10.960  12.194 -0.3380  1.9737  0.4943
36577SOL     OW15693  10.992  10.929   4.689 -0.4078 -0.1787 -0.0713
36577SOL    HW115694  11.024  11.017   4.668  1.1794 -0.6582  0.1600
36577SOL    HW215695  10.907  10.943   4.731 -0.6304  1.1744 -0.9237
36578SOL     OW15696   0.403  11.326   6.918 -0.1600 -0.1869 -0.2328
36578SOL    HW115697   0.413  11.231   6.920  1.0114 -0.1581 -2.0121
36578SOL    HW215698   0.309  11.341   6.906 -0.8523 -0.9581  3.1528
36579SOL     OW15699   9.446   0.822   5.681 -0.3878 -0.1950  0.1154
36579SOL    HW115700   9.440   0.912   5.649 -2.0536 -0.2058  0.2731
36579SOL    HW215701   9.386   0.773   5.625  0.5231 -1.2295  0.0142
36580SOL     OW15702   2.588   8.547   3.289  0.3919 -0.2804  0.0301
36580SOL    HW115703   2.603   8.580   3.200 -0.4897 -1.0004 -0.3937
36580SOL    HW215704   2.670   8.565   3.334  0.7102  0.4778 -0.8059
36581SOL     OW15705   3.055   7.874  11.218  0.2429  0.4628 -0.5349
36581SOL    HW115706   3.028   7.863  11.127 -1.0225  1.1523 -0.2649
36581SOL    HW215707   3.086   7.787  11.244  0.7624  0.2955 -1.6484
36582SOL     OW15708   4.249   8.455   9.369 -0.0268  0.3362 -0.0298
36582SOL    HW115709   4.302   8.531   9.389  1.2671 -0.5056 -0.1194
36582SOL    HW215710   4.302   8.380   9.397 -2.3090 -0.5072  2.4790
36583SOL     OW15711   9.797   6.854   3.820  0.3801 -0.7503  0.5372
36583SOL    HW115712   9.846   6.821   3.745 -0.2524  0.6314 -0.5293
36583SOL    HW215713   9.797   6.949   3.810 -0.9630 -0.6042  1.4911
36584SOL     OW15714   3.680  11.574   5.344  0.1694 -0.5251 -0.3287
36584SOL    HW115715   3.704  11.610   5.429 -0.9370 -1.8341  0.5761
36584SOL    HW215716   3.746  11.608   5.284  0.3131  1.3711  0.8202
36585SOL     OW15717   2.757   5.971  12.140  0.3331 -0.1877 -0.0811
36585SOL    HW115718   2.790   5.958  12.229  0.9899 -2.1569 -0.5604
36585SOL    HW215719   2.725   6.061  12.139  0.9805  0.1107  1.9273
36586SOL     OW15720   2.945   7.003   7.172  0.8894 -0.4746 -0.0272
36586SOL    HW115721   2.922   7.091   7.203 -0.0035 -1.1885  1.4654
36586SOL    HW215722   3.015   6.974   7.231  0.2763 -1.2470  0.3478
36587SOL     OW15723   2.269   8.625   2.169 -0.0862 -0.0042  0.1964
36587SOL    HW115724   2.262   8.595   2.259  0.3965 -1.5362 -0.2427
36587SOL    HW215725   2.184   8.606   2.130  0.1716 -0.6934 -0.0432
36588SOL     OW15726   5.609   3.365   3.439  0.4212  0.4032 -0.2353
36588SOL    HW115727   5.529   3.363   3.491  0.3263  2.5281 -0.2264
36588SOL    HW215728   5.580   3.389   3.351  0.9470  0.1808 -0.4733
36589SOL     OW15729   4.778   3.400   1.642  0.2292 -0.5863 -0.0953
36589SOL    HW115730   4.753   3.451   1.719  1.8275  0.5923 -0.2982
36589SOL    HW215731   4.874   3.396   1.646  0.3451 -0.6213 -1.9383
36590SOL     OW15732   2.140   4.737   2.848 -0.2930  0.0530  0.0669
36590SOL    HW115733   2.050   4.747   2.879  0.8259  1.2149  3.3903
36590SOL    HW215734   2.176   4.826   2.850  1.4911 -0.6367  0.8469
36591SOL     OW15735   9.194   1.227   5.504 -0.0685 -0.3842 -0.1242
36591SOL    HW115736   9.155   1.195   5.585 -1.0927  0.7288 -0.1437
36591SOL    HW215737   9.240   1.152   5.467 -1.2807 -1.4463  0.4767
36592SOL     OW15738   4.583   3.437   0.735 -0.1841 -0.7773  0.1890
36592SOL    HW115739   4.658   3.457   0.791 -0.4408  0.2932  0.1854
36592SOL    HW215740   4.509   3.428   0.795 -0.2855 -0.5441  0.1040
36593SOL     OW15741   1.759   6.647   6.665  0.0436 -0.2277 -0.0649
36593SOL    HW115742   1.816   6.636   6.740  0.6745  1.6256 -0.2207
36593SOL    HW215743   1.704   6.722   6.687  0.7628  0.8387 -1.7177
36594SOL     OW15744   5.818   3.189   2.793  0.2149 -0.0785 -0.0802
36594SOL    HW115745   5.828   3.209   2.886  1.6009 -1.6105  0.1573
36594SOL    HW215746   5.730   3.218   2.771  0.2738  1.3590  1.4192
36595SOL     OW15747   1.718   3.456   4.157 -0.0526 -0.0617  0.4785
36595SOL    HW115748   1.737   3.430   4.248 -0.9333  0.9732  0.9817
36595SOL    HW215749   1.627   3.485   4.159  0.5870  2.2146 -0.1954
36596SOL     OW15750  10.286  11.429   6.114 -0.1417 -0.0012 -0.5315
36596SOL    HW115751  10.227  11.416   6.040 -1.9855  0.7024  0.7400
36596SOL    HW215752  10.233  11.477   6.178  1.8572  0.7083  0.6562
36597SOL     OW15753  12.189   1.521   1.910 -0.2516  0.0330 -0.0792
36597SOL    HW115754  12.180   1.454   1.842  0.4817 -0.3904  0.2202
36597SOL    HW215755  12.155   1.601   1.870 -2.2243 -0.7510 -0.0349
36598SOL     OW15756   5.600   7.249   5.402 -0.0538  0.4944  0.4067
36598SOL    HW115757   5.543   7.295   5.340 -0.3233  1.5934  1.4364
36598SOL    HW215758   5.661   7.317   5.433  1.3848 -0.4857 -0.1426
36599SOL     OW15759   2.161   3.086  12.302  0.2499 -0.0327 -0.3408
36599SOL    HW115760   2.153   3.172  12.259 -0.2482  0.8035  1.3321
36599SOL    HW215761   2.244   3.090  12.349 -0.0414 -0.2501  0.1987
36600SOL     OW15762   1.495  11.393   3.281  0.8067  0.0416  0.0791
36600SOL    HW115763   1.533  11.468   3.327 -0.1152  0.2500  0.5442
36600SOL    HW215764   1.449  11.344   3.350  1.3608 -0.9262 -0.2326
36601SOL     OW15765   1.272   6.310  11.670  0.2027  0.6240  0.1518
36601SOL    HW115766   1.180   6.334  11.687  0.2221  1.0280 -0.3065
36601SOL    HW215767   1.267   6.220  11.638 -0.3097  1.4654 -2.3754
36602SOL     OW15768   6.639   1.635   1.095  0.5382 -0.7400  0.3808
36602SOL    HW115769   6.734   1.650   1.090  0.4951 -0.3895  0.6091
36602SOL    HW215770   6.628   1.546   1.062  0.7947 -0.2704 -1.0942
36603SOL     OW15771   4.598   6.527  11.978 -0.5484 -0.1945  0.5935
36603SOL    HW115772   4.532   6.590  11.948  1.2783  2.6086  2.0826
36603SOL    HW215773   4.570   6.503  12.066 -1.4924 -1.9477 -0.1419
36604SOL     OW15774   5.631   9.329   3.912  1.0121  0.2371  0.3313
36604SOL    HW115775   5.648   9.387   3.986  2.8774  1.5249 -1.0179
36604SOL    HW215776   5.711   9.278   3.901  1.1601  0.7506 -1.3422
36605SOL     OW15777  12.277  10.828   0.063 -0.4125 -0.2081 -0.0615
36605SOL    HW115778  12.228  10.910   0.057 -0.9955 -0.6122 -1.2373
36605SOL    HW215779  12.282  10.796  -0.028  1.9993 -0.2193  0.0143
36606SOL     OW15780   9.872   8.196   5.453  0.0797 -0.0081  0.1977
36606SOL    HW115781   9.937   8.138   5.491 -0.1778 -1.9469 -2.0899
36606SOL    HW215782   9.790   8.148   5.459 -0.6350  1.1862  0.4550
36607SOL     OW15783   9.248   2.839   1.876 -0.2646  0.2734  0.2173
36607SOL    HW115784   9.278   2.867   1.963  1.3501  0.0035 -0.2077
36607SOL    HW215785   9.168   2.888   1.860  0.0382  1.1826  1.3821
36608SOL     OW15786  10.543   3.274   5.463 -0.1003 -0.1502 -0.7599
36608SOL    HW115787  10.567   3.359   5.425  0.6855  0.7435  1.5479
36608SOL    HW215788  10.616   3.217   5.440 -0.7952 -0.3506 -2.6308
36609SOL     OW15789   7.247   3.622  11.587 -0.4271 -0.1390 -0.6380
36609SOL    HW115790   7.191   3.605  11.511 -1.0055 -0.6285 -0.1112
36609SOL    HW215791   7.239   3.716  11.602 -0.1395 -0.0006 -1.3105
36610SOL     OW15792   4.833   8.387  12.305  0.2316 -0.2406  0.4604
36610SOL    HW115793   4.755   8.416  12.353 -0.7622 -1.0952 -0.5845
36610SOL    HW215794   4.906   8.413  12.361 -0.8199  0.0990  1.7386
36611SOL     OW15795   6.845   8.754  10.545 -0.0620  0.3048  0.0387
36611SOL    HW115796   6.898   8.828  10.576  0.5720 -0.3439  0.5279
36611SOL    HW215797   6.857   8.754  10.450  0.1158  0.6949  0.0593
36612SOL     OW15798   8.499   2.430  10.543 -0.0749 -0.3161  0.1972
36612SOL    HW115799   8.408   2.453  10.525 -0.0760  0.5296  1.1809
36612SOL    HW215800   8.548   2.508  10.517  0.6564 -1.5619 -2.4746
36613SOL     OW15801   6.219   8.130   3.362  0.1598 -0.4521 -0.0348
36613SOL    HW115802   6.209   8.056   3.302  0.6892 -1.3328  0.9388
36613SOL    HW215803   6.312   8.149   3.361  0.2408 -0.7893  0.8749
36614SOL     OW15804  11.421   9.438   8.011 -0.5587 -0.2631 -0.0591
36614SOL    HW115805  11.482   9.511   8.002 -1.6809  0.9051  1.4160
36614SOL    HW215806  11.427   9.412   8.103 -0.2878 -1.9727 -0.5218
36615SOL     OW15807   8.838   6.647   4.538 -0.0081 -0.4207  0.1342
36615SOL    HW115808   8.778   6.629   4.610 -0.6054  0.6833 -0.0628
36615SOL    HW215809   8.789   6.706   4.481  0.1083 -1.9543 -1.6571
36616SOL     OW15810   6.717   6.497   7.310 -0.3763  0.3137  0.4662
36616SOL    HW115811   6.802   6.539   7.316  0.4672 -1.1931 -0.1310
36616SOL    HW215812   6.737   6.410   7.273 -2.1155 -0.2310  0.7407
36617SOL     OW15813   7.640   2.066   9.568 -0.2722  0.3034  0.8529
36617SOL    HW115814   7.685   2.038   9.647 -0.1114  1.2601  1.1119
36617SOL    HW215815   7.694   2.138   9.534  1.8693 -2.4668 -2.2850
36618SOL     OW15816  10.676   6.669   6.564  0.0658  0.5119  0.3351
36618SOL    HW115817  10.636   6.677   6.478  2.8891 -0.3049 -1.2001
36618SOL    HW215818  10.644   6.745   6.613 -1.8648  0.8330 -1.2828
36619SOL     OW15819   1.321   1.407   1.849 -0.3757  0.1946 -0.6259
36619SOL    HW115820   1.289   1.423   1.938 -1.6667  1.6471 -1.3007
36619SOL    HW215821   1.274   1.328   1.821  0.8269 -0.8946  0.3116
36620SOL     OW15822   1.229   0.646  12.245  0.1151 -0.0863  0.3384
36620SOL    HW115823   1.197   0.737  12.251  0.5126  0.1710 -0.9940
36620SOL    HW215824   1.276   0.631  12.327  1.8679  1.6520 -0.2750
36621SOL     OW15825   7.498   1.209   0.764  0.0078  0.0291  0.0567
36621SOL    HW115826   7.483   1.170   0.850  1.8513  3.9139  2.4579
36621SOL    HW215827   7.412   1.213   0.723 -1.2452 -0.3819  2.4998
36622SOL     OW15828  10.938   3.985   0.939  0.1201 -0.0727  0.1873
36622SOL    HW115829  10.957   3.896   0.909 -1.0010 -0.1633 -0.3127
36622SOL    HW215830  10.903   3.973   1.027  1.8404  0.0600  0.9333
36623SOL     OW15831  11.941   8.745   1.004  0.2586  0.5612 -0.2931
36623SOL    HW115832  11.900   8.739   1.091  0.4649  0.9925 -0.1615
36623SOL    HW215833  11.868   8.734   0.943  0.1334  0.0970 -0.0695
36624SOL     OW15834   7.799   2.720   9.971 -0.5912 -0.3274 -0.3299
36624SOL    HW115835   7.720   2.733  10.023 -1.5333 -0.3162 -1.7174
36624SOL    HW215836   7.821   2.807   9.939 -0.9240 -0.5689 -1.2217
36625SOL     OW15837   6.953   9.305   8.157 -0.2953  0.6196 -0.1350
36625SOL    HW115838   6.942   9.232   8.096 -1.2617 -0.3847  1.1765
36625SOL    HW215839   7.022   9.275   8.217 -0.5783  0.8589  0.3106
36626SOL     OW15840  10.551  10.701   1.679  0.2296  0.0650  1.1236
36626SOL    HW115841  10.465  10.700   1.636  0.1137  0.9259  1.3127
36626SOL    HW215842  10.531  10.691   1.772  0.5346 -2.8631  0.9901
36627SOL     OW15843   6.794   3.890   7.907  0.3932 -0.5919 -0.1625
36627SOL    HW115844   6.838   3.826   7.964  0.1128 -0.7699 -0.1442
36627SOL    HW215845   6.815   3.861   7.818  0.6021 -0.4729 -0.1538
36628SOL     OW15846   0.888   7.765   8.962 -0.4413  0.1826 -0.0633
36628SOL    HW115847   0.838   7.766   9.043  0.8793 -1.5142  0.8345
36628SOL    HW215848   0.978   7.743   8.989 -0.0446 -0.8206 -2.0066
36629SOL     OW15849   3.945   6.260  12.447 -0.0015  0.5565 -0.1844
36629SOL    HW115850   3.964   6.338  12.499 -2.7367  0.2469  1.5039
36629SOL    HW215851   3.849   6.257  12.444  0.0465 -0.8511 -3.2058
36630SOL     OW15852   0.407   9.872   4.194 -0.5506 -0.4292  0.4573
36630SOL    HW115853   0.425   9.942   4.258  1.1523 -0.5156  0.1307
36630SOL    HW215854   0.393   9.918   4.112 -1.7828 -0.3710  0.6823
36631SOL     OW15855   4.688   8.665   6.210  0.6105 -0.0184  0.2663
36631SOL    HW115856   4.747   8.674   6.135  0.8697 -0.4901  0.4084
36631SOL    HW215857   4.732   8.714   6.280  1.2991 -1.1167  0.6288
36632SOL     OW15858   3.905   0.690   1.703 -0.1428 -0.5274 -0.5214
36632SOL    HW115859   3.926   0.782   1.717 -0.8818 -0.5405  0.8059
36632SOL    HW215860   3.811   0.684   1.717 -0.0814 -1.5030 -0.4429
36633SOL     OW15861   2.953   4.959   7.023 -0.2354  0.5785  0.1786
36633SOL    HW115862   3.029   4.962   7.081 -1.2002  1.4391  1.4412
36633SOL    HW215863   2.990   4.952   6.935  1.2838  0.6286  0.7914
36634SOL     OW15864  11.574   1.338   4.304  0.1903  0.0134  0.1596
36634SOL    HW115865  11.616   1.364   4.385  2.5786  2.9705 -1.8128
36634SOL    HW215866  11.525   1.415   4.276 -0.7848 -1.0179 -1.1220
36635SOL     OW15867   8.433   8.198   9.404  0.0762 -0.1735 -0.5334
36635SOL    HW115868   8.499   8.213   9.337 -0.6688  0.2039 -1.1851
36635SOL    HW215869   8.349   8.215   9.361 -0.5382 -1.7171 -0.0382
36636SOL     OW15870  10.092   6.106  10.559 -0.0981 -0.0053 -0.1800
36636SOL    HW115871  10.074   6.177  10.621 -0.8418  0.2777 -0.7190
36636SOL    HW215872  10.058   6.028  10.602 -1.2838  0.3013 -0.5383
36637SOL     OW15873   1.380  11.495   4.626  0.3572  0.3566 -0.1749
36637SOL    HW115874   1.352  11.410   4.658  0.7887  0.4888  0.5798
36637SOL    HW215875   1.365  11.491   4.531  1.0855 -0.8408 -0.2649
36638SOL     OW15876  11.019   1.981   6.843 -0.0827  0.3010  0.4770
36638SOL    HW115877  11.057   1.960   6.757  0.2684  0.1185  0.6780
36638SOL    HW215878  11.020   2.077   6.846 -0.3393  0.3155  0.1680
36639SOL     OW15879   4.897   3.179  11.372  0.6447 -0.2150  0.4992
36639SOL    HW115880   4.834   3.118  11.334  1.0395 -2.5465  3.2203
36639SOL    HW215881   4.982   3.151  11.338  0.7617 -0.9299  1.3159
36640SOL     OW15882   1.863   4.784   1.122 -0.9937  0.2649  0.4556
36640SOL    HW115883   1.806   4.798   1.198 -0.9744  0.6309  0.4001
36640SOL    HW215884   1.948   4.818   1.149 -0.5195 -1.1747  0.9107
36641SOL     OW15885   6.079   8.660   9.214  0.2417  0.1528 -0.1322
36641SOL    HW115886   6.138   8.735   9.213 -0.2780  0.7088  3.0043
36641SOL    HW215887   6.004   8.689   9.265 -2.0870 -1.0950 -2.5986
36642SOL     OW15888   0.143   5.376   6.659  0.2632  0.3361 -0.2636
36642SOL    HW115889   0.089   5.302   6.688 -1.0553  1.9215  1.5487
36642SOL    HW215890   0.102   5.405   6.577  0.3508 -0.4495 -0.5990
36643SOL     OW15891   6.444   6.775   0.073  0.0006 -0.0712 -0.3033
36643SOL    HW115892   6.415   6.685   0.082  0.3809 -0.0463  1.6002
36643SOL    HW215893   6.507   6.787   0.144  0.2936  1.5580 -0.7959
36644SOL     OW15894   4.229  11.732   1.495  0.5852  1.0284  0.2423
36644SOL    HW115895   4.324  11.715   1.497  0.6732  1.1800 -1.2546
36644SOL    HW215896   4.219  11.803   1.432 -0.4845  1.4199  0.8297
36645SOL     OW15897   4.298   7.938   2.814  0.0793 -0.0539 -0.1382
36645SOL    HW115898   4.362   7.959   2.882  0.7336  0.5180 -0.9148
36645SOL    HW215899   4.350   7.915   2.737 -0.6512 -0.2588 -0.5932
36646SOL     OW15900   0.664   0.317   5.069 -0.8444  0.1927  0.1326
36646SOL    HW115901   0.603   0.340   5.138  1.0347  0.6055  1.7398
36646SOL    HW215902   0.743   0.287   5.114  1.3053  2.5850 -1.6922
36647SOL     OW15903   4.247  12.317   8.999  0.6172 -0.0901  0.5044
36647SOL    HW115904   4.277  12.240   8.950 -1.6815 -0.1883 -0.9007
36647SOL    HW215905   4.191  12.365   8.937  1.7788  2.6310  1.4067
36648SOL     OW15906   8.288   5.359   3.971  0.3445  0.2340 -0.1461
36648SOL    HW115907   8.336   5.280   3.947 -0.1254  0.0601 -0.5190
36648SOL    HW215908   8.203   5.350   3.927  0.6317  1.3922 -0.9594
36649SOL     OW15909  10.676   3.551   2.075  0.3988 -0.2735 -0.2529
36649SOL    HW115910  10.766   3.523   2.061  0.1447 -0.8505 -0.8238
36649SOL    HW215911  10.629   3.470   2.095  0.3775  0.2680  2.1916
36650SOL     OW15912   3.844   1.055   7.010 -0.4354 -0.1155 -0.0702
36650SOL    HW115913   3.777   1.069   7.078 -0.6735  0.6334 -0.4518
36650SOL    HW215914   3.900   0.986   7.047 -1.2767 -0.6035  0.3553
36651SOL     OW15915   0.611   0.993   6.612 -0.0517 -0.0806  0.6789
36651SOL    HW115916   0.528   0.955   6.642 -1.3124  0.3805 -2.0006
36651SOL    HW215917   0.665   0.917   6.592 -0.7988 -0.4326 -0.0515
36652SOL     OW15918   3.841  11.018   9.110  0.0571  0.1583 -0.0629
36652SOL    HW115919   3.889  11.088   9.066  1.1030 -0.3817  0.1757
36652SOL    HW215920   3.894  10.999   9.187  0.4643 -1.7318 -0.7681
36653SOL     OW15921   2.072  12.123   9.054 -0.1916 -0.3939  0.2094
36653SOL    HW115922   2.159  12.085   9.063  0.4346  0.9974  0.2440
36653SOL    HW215923   2.020  12.080   9.122  0.5114 -1.0807  0.3337
36654SOL     OW15924   9.836  11.861  11.799  0.2258  0.0473  0.7403
36654SOL    HW115925   9.878  11.902  11.724 -1.3231 -0.2022 -0.3047
36654SOL    HW215926   9.903  11.864  11.868  1.2518  1.3966 -0.2512
36655SOL     OW15927   8.631   2.037   6.810  0.4054 -0.2374  0.4926
36655SOL    HW115928   8.546   2.056   6.769  0.7923 -1.6372 -1.1153
36655SOL    HW215929   8.672   2.122   6.823 -1.5898  0.5342  2.1631
36656SOL     OW15930  10.185   1.664   4.442 -0.1415  0.0601  0.3547
36656SOL    HW115931  10.224   1.719   4.374  0.3607  0.3023  0.8222
36656SOL    HW215932  10.141   1.594   4.395  1.2831 -0.5063 -0.2044
36657SOL     OW15933   2.495   9.321   8.179  0.1406  0.2154 -0.1203
36657SOL    HW115934   2.545   9.239   8.179 -1.4227 -0.7813 -0.8692
36657SOL    HW215935   2.558   9.387   8.209  1.3060 -1.3187  0.9793
36658SOL     OW15936   6.190   4.611   7.016  0.4770 -0.0583  0.1180
36658SOL    HW115937   6.160   4.563   7.093 -0.9862 -0.9727 -0.9579
36658SOL    HW215938   6.192   4.545   6.946  1.6797  0.7551 -0.6577
36659SOL     OW15939   2.497   4.986   3.332  0.7336  0.0690 -0.4354
36659SOL    HW115940   2.430   5.025   3.276 -0.3273 -0.3507  0.4858
36659SOL    HW215941   2.477   5.020   3.419  0.4398 -1.6433  0.2076
36660SOL     OW15942   7.533   0.865   2.830 -0.0909 -0.9703  0.1813
36660SOL    HW115943   7.538   0.940   2.771  0.6623 -1.9607 -1.0823
36660SOL    HW215944   7.463   0.811   2.794  0.6549 -1.7878 -0.0876
36661SOL     OW15945   7.572  12.279   8.249 -0.4110  0.0924 -0.3137
36661SOL    HW115946   7.647  12.334   8.273 -1.3728  0.7985  1.2159
36661SOL    HW215947   7.606  12.222   8.180  0.9053  1.9270 -1.2770
36662SOL     OW15948   8.600   3.233   8.953  0.0243  0.4337 -0.1220
36662SOL    HW115949   8.541   3.162   8.929  0.5993  0.2750 -1.0826
36662SOL    HW215950   8.549   3.313   8.936  0.5845  0.3528 -2.4464
36663SOL     OW15951   1.346   4.418   0.693 -0.0940  0.0122 -0.1279
36663SOL    HW115952   1.384   4.354   0.632  1.5150  3.1522 -2.7038
36663SOL    HW215953   1.258   4.434   0.658 -0.4878 -0.6730  0.5042
36664SOL     OW15954   8.205   8.326   9.318 -0.4330  0.0737  0.3704
36664SOL    HW115955   8.125   8.321   9.371 -1.0307  2.5481 -0.1577
36664SOL    HW215956   8.177   8.362   9.234  1.0663 -0.1813 -0.2792
36665SOL     OW15957   6.437   4.812   1.841 -0.2764 -0.2002 -0.6417
36665SOL    HW115958   6.375   4.884   1.850 -1.1192 -0.9170 -0.5831
36665SOL    HW215959   6.440   4.772   1.928  0.5043  0.0098 -0.5673
36666SOL     OW15960   6.098   3.189   2.571 -0.0069 -0.5635 -0.1910
36666SOL    HW115961   6.093   3.144   2.656  0.3608 -2.0487 -0.9083
36666SOL    HW215962   6.012   3.229   2.560 -0.7532 -2.0323  0.0267
36667SOL     OW15963   4.583   0.166  10.867  0.3116  0.4104  0.2746
36667SOL    HW115964   4.533   0.151  10.947 -3.1357  1.2217 -1.4952
36667SOL    HW215965   4.670   0.130  10.885 -0.3966  0.2289  4.1663
36668SOL     OW15966   5.835   1.827   4.309 -0.2606  0.3136  0.1741
36668SOL    HW115967   5.869   1.830   4.220 -0.5649 -1.0797 -0.0273
36668SOL    HW215968   5.907   1.858   4.364 -0.4198  2.1646 -0.6125
36669SOL     OW15969  12.384  10.166   3.813  0.1014  0.3579  0.3441
36669SOL    HW115970  12.460  10.210   3.851  1.2117 -1.1458 -0.0315
36669SOL    HW215971  12.353  10.109   3.883  0.7016 -0.6596 -0.1893
36670SOL     OW15972   6.609   7.031   1.306  0.3723 -0.1066  0.0713
36670SOL    HW115973   6.530   7.066   1.266  0.8407 -0.6105 -1.3615
36670SOL    HW215974   6.584   6.945   1.339  0.7143 -1.0650 -2.0140
36671SOL     OW15975   2.729   4.125   7.919  0.0715  0.5784 -0.6204
36671SOL    HW115976   2.670   4.053   7.896  0.2680  0.7646 -1.7771
36671SOL    HW215977   2.754   4.107   8.009 -0.2244 -0.5707 -0.7458
36672SOL     OW15978   2.373  11.885   5.150  0.1287 -0.2750 -0.5494
36672SOL    HW115979   2.300  11.939   5.122  0.8527  0.1630 -1.6738
36672SOL    HW215980   2.448  11.944   5.150  1.1463 -1.4308 -2.8034
36673SOL     OW15981   3.958  12.161  10.157 -0.6291  0.1068  0.2571
36673SOL    HW115982   3.896  12.171  10.229 -0.7555  1.6717 -0.0162
36673SOL    HW215983   4.025  12.102  10.191 -1.6468 -0.6658  0.9779
36674SOL     OW15984   1.301   9.457   1.631  0.2060  0.3670  0.7144
36674SOL    HW115985   1.238   9.526   1.612  0.3573 -0.1487 -2.0526
36674SOL    HW215986   1.371   9.501   1.680 -0.7630  1.6368  1.0053
36675SOL     OW15987   8.908   3.432  11.424 -0.2514 -0.3445 -0.1756
36675SOL    HW115988   8.941   3.518  11.448  0.8854 -0.8066 -0.0641
36675SOL    HW215989   8.870   3.398  11.504 -0.7639  0.0655 -0.2351
36676SOL     OW15990   5.636   9.602   2.360 -0.8018  0.4478  0.5901
36676SOL    HW115991   5.566   9.580   2.421 -0.1351 -1.4820  0.7403
36676SOL    HW215992   5.715   9.568   2.401 -0.1604  0.2011 -0.7775
36677SOL     OW15993   5.473   5.265   2.033 -0.3460  0.3490 -0.1556
36677SOL    HW115994   5.409   5.200   2.062  1.3179 -0.4333  2.1673
36677SOL    HW215995   5.485   5.322   2.109  1.9694  0.1909 -0.3218
36678SOL     OW15996  12.008   5.844  11.336  0.1470  0.6565 -0.2560
36678SOL    HW115997  12.100   5.850  11.359  0.5413 -2.6660 -0.4362
36678SOL    HW215998  11.987   5.751  11.343 -2.2074  0.6952 -3.7389
36679SOL     OW15999  11.126   9.424   8.604  0.3972 -0.0954  0.2990
36679SOL    HW116000  11.145   9.509   8.642  1.7195 -0.3308  0.2018
36679SOL    HW216001  11.135   9.362   8.677  0.5680 -0.2785  0.1255
36680SOL     OW16002   4.814   3.528   3.888  0.3195 -0.6871  0.2515
36680SOL    HW116003   4.794   3.608   3.936  0.7082  0.2252 -1.0510
36680SOL    HW216004   4.737   3.514   3.832  0.4367 -0.9780  0.1629
36681SOL     OW16005   5.898   8.171   0.440 -0.1839  0.3466  0.4349
36681SOL    HW116006   5.977   8.211   0.476  0.9810  0.1421 -1.7144
36681SOL    HW216007   5.897   8.082   0.475  0.8508  0.1837  0.0709
36682SOL     OW16008   0.041   7.529  10.640  0.1578 -0.3328  0.6265
36682SOL    HW116009  -0.015   7.473  10.586  1.1130 -2.0204  1.3094
36682SOL    HW216010   0.020   7.618  10.612 -0.8337 -1.0547 -1.0765
36683SOL     OW16011   0.977   6.799  10.311  0.2088  0.0154 -0.2333
36683SOL    HW116012   0.918   6.872  10.296 -0.5856 -0.0449  2.1309
36683SOL    HW216013   0.921   6.730  10.348  1.4982 -0.5565  0.7457
36684SOL     OW16014   3.087   5.776   6.903  0.2939  0.2102  0.1608
36684SOL    HW116015   3.038   5.774   6.821  1.0583  0.8736 -0.3323
36684SOL    HW216016   3.153   5.707   6.892  0.2936  0.1891  0.2897
36685SOL     OW16017   6.243  10.888  11.155 -0.2095 -0.1995 -0.2472
36685SOL    HW116018   6.187  10.963  11.175  1.7507  0.9430  1.4095
36685SOL    HW216019   6.190  10.832  11.098 -2.0432  2.0336 -0.8650
36686SOL     OW16020   5.524   6.352   8.399  0.0207  0.4769 -0.1831
36686SOL    HW116021   5.519   6.289   8.327  1.1036 -0.6492  0.6836
36686SOL    HW216022   5.445   6.405   8.390 -0.3649 -0.2924 -1.5949
36687SOL     OW16023  11.355  11.016   4.665 -0.4111  0.1016  0.4368
36687SOL    HW116024  11.320  10.940   4.619 -1.6708  0.4886  0.7166
36687SOL    HW216025  11.278  11.070   4.684  0.5523  1.9063 -0.5704
36688SOL     OW16026   2.758   2.396  11.409  0.0908  0.9273 -0.2062
36688SOL    HW116027   2.813   2.415  11.333  2.5110  0.0903  1.1851
36688SOL    HW216028   2.821   2.380  11.480 -2.0194  0.9836  1.8203
36689SOL     OW16029   7.661   4.762   1.988  0.4714  0.1576  0.5173
36689SOL    HW116030   7.676   4.855   2.005 -0.7749  0.2276  1.3626
36689SOL    HW216031   7.706   4.745   1.905  0.2324  1.6439  0.0568
36690SOL     OW16032  11.040  11.761   0.322 -0.3379  0.2102  0.2263
36690SOL    HW116033  11.028  11.697   0.252 -0.2838  0.3935  0.0501
36690SOL    HW216034  11.064  11.708   0.398  0.8761  0.1013 -0.2066
36691SOL     OW16035   8.640   0.401   4.601 -0.2833  0.5545  0.4707
36691SOL    HW116036   8.566   0.349   4.633  0.7550 -0.5287  1.1613
36691SOL    HW216037   8.603   0.452   4.529 -1.7031  0.0307  0.7936
36692SOL     OW16038   3.726  10.747   5.507  0.2236 -0.1703 -0.0030
36692SOL    HW116039   3.719  10.786   5.420  0.4858 -0.6875 -0.2648
36692SOL    HW216040   3.803  10.690   5.501  0.3618 -0.0609  0.6285
36693SOL     OW16041   3.861   8.874   8.973  0.2644  0.2881 -0.0594
36693SOL    HW116042   3.929   8.809   8.989 -0.2949 -0.5317 -0.8993
36693SOL    HW216043   3.805   8.834   8.907 -2.5492 -0.2269  2.4092
36694SOL     OW16044   8.103   3.554   7.558 -0.5181 -0.1993  0.3753
36694SOL    HW116045   8.029   3.515   7.604 -1.0451 -1.3200 -1.3186
36694SOL    HW216046   8.098   3.647   7.578 -1.0763 -0.5516  2.0377
36695SOL     OW16047   8.302   4.034   5.033  0.1946  1.0574 -0.6646
36695SOL    HW116048   8.389   4.007   5.003 -0.4026 -0.1363 -1.4016
36695SOL    HW216049   8.290   3.987   5.116 -0.2627  0.1568 -1.2254
36696SOL     OW16050  12.157   1.719   2.412 -0.0629  0.1980  0.3011
36696SOL    HW116051  12.197   1.661   2.347  0.3538 -0.0572  0.7769
36696SOL    HW216052  12.210   1.707   2.490 -0.4883  0.5926  0.6547
36697SOL     OW16053   0.699   4.547  10.187  0.3756  0.5089 -0.0961
36697SOL    HW116054   0.673   4.482  10.121  1.2434 -1.0060  1.0107
36697SOL    HW216055   0.794   4.538  10.193  0.4401  1.4787  0.5071
36698SOL     OW16056   0.217   7.797   2.967 -0.0346  0.2491 -0.6780
36698SOL    HW116057   0.254   7.766   3.050 -2.7262  2.4915  1.5698
36698SOL    HW216058   0.172   7.721   2.931  1.0633 -0.7356 -0.0586
36699SOL     OW16059   5.096   2.228   3.144  0.1136  0.2267 -0.6695
36699SOL    HW116060   5.154   2.283   3.196  0.1372  0.4821 -0.9643
36699SOL    HW216061   5.013   2.229   3.192  0.4364 -0.3909 -0.0838
36700SOL     OW16062   1.343   5.768   6.841 -0.0281 -0.6248  0.0139
36700SOL    HW116063   1.341   5.860   6.816 -2.5845 -0.7516 -0.5074
36700SOL    HW216064   1.295   5.723   6.771  0.1175 -2.2027  0.8817
36701SOL     OW16065   6.893  10.713   8.714 -0.7671  1.3407 -0.0085
36701SOL    HW116066   6.949  10.741   8.642  1.7746 -0.6832  1.0426
36701SOL    HW216067   6.860  10.627   8.688 -0.3885  0.9005  0.8948
36702SOL     OW16068   5.872   7.141   1.090  0.3963 -0.0969  0.6267
36702SOL    HW116069   5.845   7.230   1.111 -2.0166 -0.3654 -0.9570
36702SOL    HW216070   5.822   7.118   1.012  2.6286 -2.0648 -0.3747
36703SOL     OW16071   1.167   9.785   9.876 -0.6600  0.2682 -0.3200
36703SOL    HW116072   1.097   9.818   9.932  0.1453 -0.2718  1.0696
36703SOL    HW216073   1.130   9.706   9.835 -1.4033  0.9140 -0.9117
36704SOL     OW16074   4.188   9.780   4.316 -0.5093  1.0309  0.1565
36704SOL    HW116075   4.095   9.785   4.295 -0.4138  1.8087 -0.1151
36704SOL    HW216076   4.231   9.828   4.245  0.1425  0.2003 -0.0179
36705SOL     OW16077   4.446   2.356   4.661 -0.0038  0.0229 -0.0499
36705SOL    HW116078   4.407   2.278   4.622 -0.3684  0.4728 -0.6092
36705SOL    HW216079   4.395   2.373   4.740  0.2218 -0.4294  0.1966
36706SOL     OW16080   7.419   0.018   1.322  0.1186  0.0644  0.0201
36706SOL    HW116081   7.501   0.031   1.274  0.2544  1.1286  0.5181
36706SOL    HW216082   7.437  -0.056   1.380  1.2416  1.1877  1.1826
36707SOL     OW16083   3.058  11.575   0.527  0.6894 -0.2694 -0.1825
36707SOL    HW116084   3.126  11.542   0.469  0.8800  1.4590 -1.0099
36707SOL    HW216085   2.989  11.607   0.469  0.9017  1.5249  0.4644
36708SOL     OW16086  10.277  10.809   4.300  0.1617  0.1137 -0.8025
36708SOL    HW116087  10.237  10.798   4.386 -0.8139 -2.3402 -1.4602
36708SOL    HW216088  10.327  10.890   4.306 -0.0132  0.1062  1.9983
36709SOL     OW16089   2.277   0.411   0.956  0.8990  0.3178 -0.0074
36709SOL    HW116090   2.187   0.409   0.987  1.2839 -0.8829  1.1356
36709SOL    HW216091   2.329   0.436   1.033  1.6302  0.0772 -0.4093
36710SOL     OW16092  10.140   9.350   7.155 -0.0391  0.2938 -0.3753
36710SOL    HW116093  10.206   9.287   7.183 -1.4045 -1.1151 -0.2400
36710SOL    HW216094  10.085   9.363   7.232 -0.2252  1.0897 -0.6347
36711SOL     OW16095   5.745   0.814   8.394 -0.0833  0.3457  0.3804
36711SOL    HW116096   5.743   0.895   8.343  1.7834  0.0082 -0.3183
36711SOL    HW216097   5.661   0.812   8.440 -1.7816  0.8255 -2.4510
36712SOL     OW16098  10.927   6.589   4.567 -0.8132  0.3263 -0.3987
36712SOL    HW116099  10.942   6.674   4.525 -1.7076  0.2850 -0.8308
36712SOL    HW216100  10.831   6.579   4.567 -0.8630  0.3038  1.6142
36713SOL     OW16101   3.246   4.507   6.875  0.4086 -0.0054 -0.9473
36713SOL    HW116102   3.303   4.512   6.952 -0.5616 -0.3997 -0.1754
36713SOL    HW216103   3.168   4.463   6.907 -0.3018  0.4628 -1.9952
36714SOL     OW16104   4.032   2.888   7.742 -0.3693 -0.2793  0.4260
36714SOL    HW116105   3.953   2.937   7.719 -0.3289  0.3715  1.5687
36714SOL    HW216106   4.003   2.826   7.809  0.0907  0.0003  0.8922
36715SOL     OW16107   0.598   2.303  11.476 -0.2863  0.2598  0.8488
36715SOL    HW116108   0.602   2.245  11.552 -0.6760 -0.7441  0.1237
36715SOL    HW216109   0.655   2.261  11.411 -2.8605 -0.9792 -0.7501
36716SOL     OW16110  10.843   3.138   5.717 -0.1424 -0.1798  0.1792
36716SOL    HW116111  10.862   3.101   5.803 -0.1812  0.0585  0.2883
36716SOL    HW216112  10.762   3.188   5.729  0.7439  1.2452  0.4036
36717SOL     OW16113  11.417   5.910   5.368  0.0217  0.5000  0.7428
36717SOL    HW116114  11.457   5.897   5.281 -1.2218 -0.2258  0.2650
36717SOL    HW216115  11.374   5.995   5.361  1.7989  1.5090  1.4112
36718SOL     OW16116   2.134   4.241   3.331  0.3820 -0.5614  0.0482
36718SOL    HW116117   2.071   4.312   3.331 -0.1865 -1.0572  0.2319
36718SOL    HW216118   2.190   4.258   3.406  0.5807 -0.0272 -0.2150
36719SOL     OW16119   8.660   4.372   4.805 -0.3312 -0.6198  0.1201
36719SOL    HW116120   8.678   4.279   4.819  0.8928 -0.4135 -0.0411
36719SOL    HW216121   8.589   4.392   4.867 -2.1843 -2.1493 -1.3754
36720SOL     OW16122   3.133   3.669   9.485 -0.6513 -0.1032  0.0809
36720SOL    HW116123   3.054   3.620   9.509  0.3894 -2.1569 -0.4507
36720SOL    HW216124   3.120   3.691   9.393 -0.7506 -0.1696  0.0785
36721SOL     OW16125   8.272   9.687   3.171 -0.0200 -0.2769 -0.1758
36721SOL    HW116126   8.206   9.660   3.235  1.3778 -0.6421  1.1860
36721SOL    HW216127   8.321   9.756   3.215  0.5670 -0.0666 -1.1311
36722SOL     OW16128   2.208   0.447   6.903 -0.4516 -0.8928  0.3246
36722SOL    HW116129   2.224   0.380   6.837 -2.1950 -2.1117  1.0694
36722SOL    HW216130   2.172   0.521   6.855  0.0237 -1.0620 -0.3043
36723SOL     OW16131   4.761   1.505   7.497  0.1161 -0.2217 -0.5410
36723SOL    HW116132   4.844   1.521   7.542  0.1975 -1.7493 -0.0837
36723SOL    HW216133   4.783   1.505   7.404  0.1146  2.0466 -0.5858
36724SOL     OW16134   1.460   9.781   7.094 -0.2854 -0.0617 -0.4747
36724SOL    HW116135   1.373   9.788   7.134 -0.5748 -1.1917 -0.8897
36724SOL    HW216136   1.472   9.865   7.049 -0.4953  0.7173  0.8814
36725SOL     OW16137   4.065   5.680   0.788  0.1228  0.9637 -0.3016
36725SOL    HW116138   4.045   5.750   0.725 -0.5340 -0.2734 -1.5110
36725SOL    HW216139   3.987   5.624   0.787  1.4836 -1.0300 -1.0767
36726SOL     OW16140   3.238   1.987  12.117 -0.1336  0.1703 -0.8290
36726SOL    HW116141   3.156   1.941  12.134  0.0724 -0.0489 -0.4089
36726SOL    HW216142   3.293   1.968  12.194 -0.8799  3.0407  0.5561
36727SOL     OW16143  10.374   2.141   5.474 -0.3372 -0.1401 -0.5201
36727SOL    HW116144  10.326   2.067   5.438 -2.2867  0.1017  1.3899
36727SOL    HW216145  10.436   2.165   5.405 -0.3734 -2.8215 -1.6336
36728SOL     OW16146   5.654   7.975   1.561  0.0037 -0.0187  0.1581
36728SOL    HW116147   5.643   8.016   1.647  1.4596 -0.6119  0.6696
36728SOL    HW216148   5.749   7.966   1.551 -0.0979  0.4485 -1.7214
36729SOL     OW16149   1.368   7.618  10.613 -0.3557  0.1065  0.3849
36729SOL    HW116150   1.401   7.694  10.661  0.1971  0.0722  0.0746
36729SOL    HW216151   1.380   7.544  10.673  1.5100 -0.1443 -0.2305
36730SOL     OW16152   6.314   5.680   3.675  0.1551  0.6469  0.2371
36730SOL    HW116153   6.397   5.649   3.639 -1.8528 -3.0281 -1.8929
36730SOL    HW216154   6.256   5.684   3.599 -2.2502  0.5083  1.9650
36731SOL     OW16155  12.026   3.119   0.824  0.4697 -0.5110  0.1353
36731SOL    HW116156  12.070   3.200   0.850 -0.2030 -0.1467  0.1606
36731SOL    HW216157  11.942   3.148   0.789  0.9601 -1.0512 -1.6080
36732SOL     OW16158   4.006   9.686  10.120 -0.2257 -0.1048 -0.2888
36732SOL    HW116159   4.023   9.764  10.067  0.0599 -0.6031 -0.9462
36732SOL    HW216160   4.091   9.641  10.124 -0.1861  0.0554  0.8087
36733SOL     OW16161   6.600   1.109   9.080 -0.1188  0.5678 -0.6709
36733SOL    HW116162   6.542   1.185   9.083  0.1578  0.8265 -1.4838
36733SOL    HW216163   6.621   1.091   9.171  0.0126  1.6262 -0.4789
36734SOL     OW16164   6.507  10.786  11.288  0.5200 -0.3882  0.7018
36734SOL    HW116165   6.427  10.773  11.237  0.8785 -0.0527  0.0359
36734SOL    HW216166   6.557  10.849  11.236  0.7967  0.1303  1.5870
36735SOL     OW16167   7.526   4.787   9.941 -0.0246  0.2130 -0.8821
36735SOL    HW116168   7.467   4.761   9.870 -0.2027 -1.9669 -0.0034
36735SOL    HW216169   7.612   4.794   9.900 -0.5795  1.8918 -1.8592
36736SOL     OW16170  12.029   9.728   9.531  0.6844 -0.0282  0.0382
36736SOL    HW116171  11.975   9.803   9.503 -0.4629 -0.9509 -0.3218
36736SOL    HW216172  12.080   9.705   9.453 -0.2330 -0.6731 -0.3872
36737SOL     OW16173  12.322   6.770  10.949  0.1413  0.4632 -0.2997
36737SOL    HW116174  12.361   6.837  10.893 -0.8160  1.3724  0.0800
36737SOL    HW216175  12.375   6.692  10.935 -1.1314  0.0604 -3.9569
36738SOL     OW16176   2.324   0.475   2.971  0.7586 -0.4506  0.1225
36738SOL    HW116177   2.334   0.437   2.884 -1.9916  0.3979 -0.6616
36738SOL    HW216178   2.368   0.560   2.965  0.2323 -0.2132 -0.6195
36739SOL     OW16179   9.757   7.133   5.023 -0.1887 -0.0926 -0.1862
36739SOL    HW116180   9.801   7.068   5.078 -0.7250 -1.4581 -1.3442
36739SOL    HW216181   9.702   7.183   5.084 -0.4548 -1.3085  0.5911
36740SOL     OW16182   9.493   2.565   8.352  0.0777  0.5725  0.1012
36740SOL    HW116183   9.508   2.485   8.403 -0.4954  0.1911 -0.3084
36740SOL    HW216184   9.526   2.636   8.407 -0.2364  0.1359  0.8683
36741SOL     OW16185   6.647   5.726   6.770  0.0002  0.9429  0.2682
36741SOL    HW116186   6.739   5.721   6.745  0.0475  1.9827  0.1726
36741SOL    HW216187   6.613   5.800   6.720 -0.6412  1.1960  1.0525
36742SOL     OW16188   3.105   1.630   7.785 -0.1825  0.4613 -0.2069
36742SOL    HW116189   3.147   1.649   7.702  1.7210 -1.7449  0.1532
36742SOL    HW216190   3.053   1.551   7.769  0.7388 -0.3921  0.7907
36743SOL     OW16191   5.396  11.972   1.070 -0.2387 -0.2580  0.2753
36743SOL    HW116192   5.447  11.901   1.032  1.4299  2.3286 -2.9003
36743SOL    HW216193   5.449  12.003   1.144  1.9022  0.9523 -1.6139
36744SOL     OW16194   1.196   6.619   4.508  0.7622 -0.4760  0.1033
36744SOL    HW116195   1.122   6.564   4.533 -0.0013  0.3784 -0.2091
36744SOL    HW216196   1.202   6.683   4.579  0.6475 -0.0224 -0.2917
36745SOL     OW16197   0.100  10.945   1.211  0.1230 -0.1527 -0.4302
36745SOL    HW116198   0.051  10.863   1.216  0.9959 -0.8735 -2.3550
36745SOL    HW216199   0.107  10.975   1.301  0.1216 -2.4296  0.3959
36746SOL     OW16200   1.247   8.995   1.722 -0.1794  0.3606  0.2551
36746SOL    HW116201   1.182   8.968   1.657  1.1520 -2.0163 -0.1944
36746SOL    HW216202   1.282   9.077   1.687 -1.9506  0.9805 -0.1716
36747SOL     OW16203   4.206   1.154   8.493  0.1325 -0.0996 -0.8055
36747SOL    HW116204   4.143   1.134   8.562  0.0796  1.3667 -0.4000
36747SOL    HW216205   4.159   1.134   8.411 -1.6940  2.8688 -0.6290
36748SOL     OW16206   3.749   2.863   8.184 -0.3328 -0.3660  0.5137
36748SOL    HW116207   3.723   2.832   8.097 -0.9171  0.5676  0.3352
36748SOL    HW216208   3.826   2.811   8.206  0.5670  0.2047 -1.0865
36749SOL     OW16209   9.968   2.646   1.509 -0.2980 -0.2760 -0.2955
36749SOL    HW116210   9.927   2.593   1.440  0.8255  0.2205 -1.3710
36749SOL    HW216211  10.062   2.638   1.494 -0.0167 -0.0748  1.1403
36750SOL     OW16212   1.762   3.959   8.599  0.3397  0.4635 -0.1529
36750SOL    HW116213   1.838   3.931   8.548  0.4399  1.5133 -0.6034
36750SOL    HW216214   1.764   4.055   8.593 -0.8648  0.5076  0.0679
36751SOL     OW16215   4.502   2.804   4.721 -0.4139 -0.3683 -0.6678
36751SOL    HW116216   4.546   2.798   4.805  0.1717  0.2116 -0.9215
36751SOL    HW216217   4.416   2.841   4.742 -0.2626 -0.2076 -0.3225
36752SOL     OW16218   3.895   9.675   8.046 -0.5178 -0.0489  0.2632
36752SOL    HW116219   3.933   9.706   8.128 -1.5518 -0.5856  0.9638
36752SOL    HW216220   3.915   9.745   7.983  0.4280  0.2967  0.9147
36753SOL     OW16221  11.616   3.657   9.773  0.6150  0.5001 -0.1058
36753SOL    HW116222  11.555   3.591   9.739  1.2223  0.0450 -0.3397
36753SOL    HW216223  11.583   3.740   9.740 -0.0799  0.3000  0.0650
36754SOL     OW16224  11.217   5.010   3.067  0.4279  0.1663  0.0230
36754SOL    HW116225  11.206   5.094   3.023 -2.0364 -0.9865 -1.7861
36754SOL    HW216226  11.190   5.026   3.158 -0.4153  1.2298 -0.3973
36755SOL     OW16227   1.628  11.616   7.984  0.7407  0.1160  0.3535
36755SOL    HW116228   1.606  11.622   8.077  2.0815 -0.8783  0.7678
36755SOL    HW216229   1.545  11.628   7.939  0.4485  3.6150  1.5186
36756SOL     OW16230  12.372   6.384  12.153  0.1850  0.5387  0.6768
36756SOL    HW116231  12.393   6.473  12.126 -2.1551  1.1087  0.4974
36756SOL    HW216232  12.456   6.344  12.172  1.5345  1.9970 -1.6678
36757SOL     OW16233  10.515   2.488   3.461  0.1235 -0.0509  0.3251
36757SOL    HW116234  10.569   2.566   3.474  0.8354 -0.5466  0.3847
36757SOL    HW216235  10.450   2.515   3.396 -0.8309  1.1742  1.7235
36758SOL     OW16236   1.863   7.450  11.438 -0.4507 -0.1122  0.4320
36758SOL    HW116237   1.801   7.424  11.370  0.0133 -0.2034  0.0405
36758SOL    HW216238   1.853   7.545  11.444  2.2269  0.5109 -2.5339
36759SOL     OW16239   1.010   0.938   5.963 -0.0712  0.4735  0.0122
36759SOL    HW116240   0.959   0.871   6.009 -2.0093  2.4460  0.9147
36759SOL    HW216241   1.008   0.911   5.871  0.6409 -1.5442  0.5349
36760SOL     OW16242  10.986   3.559  11.447  0.4351 -0.1319 -0.1753
36760SOL    HW116243  11.019   3.607  11.523 -2.7103  0.8360  0.7066
36760SOL    HW216244  10.911   3.511  11.479 -1.5691  1.0093 -2.7663
36761SOL     OW16245   0.574   2.943   2.854 -0.3735  0.0221 -0.2647
36761SOL    HW116246   0.556   2.862   2.902 -1.2788  0.2950 -0.1190
36761SOL    HW216247   0.619   2.914   2.775 -0.1585 -0.5673  0.0699
36762SOL     OW16248   9.296   4.441  11.145 -0.3514  0.7888 -0.1806
36762SOL    HW116249   9.339   4.523  11.120 -0.7790  1.5136  1.3698
36762SOL    HW216250   9.231   4.427  11.076 -0.7028  2.0946 -0.1502
36763SOL     OW16251   2.413   2.393   5.297 -0.4443  0.4344 -0.6718
36763SOL    HW116252   2.416   2.384   5.393 -0.0647  2.1462 -0.4874
36763SOL    HW216253   2.412   2.488   5.282 -0.4126  0.1949 -2.3754
36764SOL     OW16254   4.130  10.175   7.040  0.2564 -0.2744  0.4707
36764SOL    HW116255   4.183  10.095   7.040  2.0716  0.8863  0.0670
36764SOL    HW216256   4.171  10.232   6.976 -0.7311  1.1788  1.0735
36765SOL     OW16257  10.251   9.467   5.136 -0.2839  0.1423  0.0309
36765SOL    HW116258  10.305   9.488   5.212 -0.0840 -1.5324  0.3842
36765SOL    HW216259  10.163   9.493   5.161  0.0368  1.1428  0.1741
36766SOL     OW16260   9.929   2.514   8.053  0.1790  0.0727  0.5495
36766SOL    HW116261   9.894   2.559   7.976 -1.8212  0.3338  1.5539
36766SOL    HW216262   9.887   2.428   8.051  1.2506 -0.4612  0.5720
36767SOL     OW16263   5.098   0.785  10.878  0.0925 -0.0177  0.3763
36767SOL    HW116264   5.129   0.702  10.840 -0.5894  0.8045 -2.2086
36767SOL    HW216265   5.177   0.828  10.911  1.1100  0.0522 -1.9655
36768SOL     OW16266   7.657   3.918   9.045  0.1772  0.2740  0.3848
36768SOL    HW116267   7.704   3.909   9.128 -0.1855 -1.7773  0.4194
36768SOL    HW216268   7.712   3.974   8.991  2.6635 -1.9089  0.4670
36769SOL     OW16269   5.171   1.660  10.679  0.0368  0.5740 -0.0715
36769SOL    HW116270   5.139   1.583  10.726 -1.6900  0.0931 -1.8979
36769SOL    HW216271   5.215   1.625  10.601 -0.9271  1.3994 -1.0184
36770SOL     OW16272  11.701   6.678   2.486  0.1142 -0.3684  0.5826
36770SOL    HW116273  11.632   6.614   2.505 -0.3379  0.2284  0.9950
36770SOL    HW216274  11.655   6.762   2.480  1.0507  0.4113  3.1018
36771SOL     OW16275  11.880   2.645   0.861  0.2132  0.0593 -0.4785
36771SOL    HW116276  11.975   2.636   0.866  0.0010 -1.8855  2.7545
36771SOL    HW216277  11.864   2.740   0.865  1.9856  0.4258 -1.3455
36772SOL     OW16278  10.259   0.160   6.586  0.3812 -0.0539 -0.5733
36772SOL    HW116279  10.186   0.131   6.640  0.3072  0.5580 -0.3270
36772SOL    HW216280  10.223   0.169   6.498  0.4687 -0.9329 -0.7082
36773SOL     OW16281   3.627   2.486   7.977  0.5073 -0.3512  0.0148
36773SOL    HW116282   3.642   2.408   7.923  0.7054  2.2018 -3.9996
36773SOL    HW216283   3.534   2.504   7.967 -0.1302 -1.3587  3.0878
36774SOL     OW16284   2.225   2.339  11.045 -0.1344  0.0359  0.0231
36774SOL    HW116285   2.235   2.334  11.140  0.4521  0.2217 -0.0311
36774SOL    HW216286   2.190   2.426  11.029  1.4435  0.6818 -0.0693
36775SOL     OW16287   0.222   9.968   8.065 -0.2414 -0.2431 -0.2979
36775SOL    HW116288   0.159   9.992   8.133  1.2705 -0.8482  1.4032
36775SOL    HW216289   0.283  10.041   8.061 -0.4874 -0.0697 -1.2708
36776SOL     OW16290   1.686   8.010   9.906  0.2838 -0.4869 -0.3232
36776SOL    HW116291   1.662   7.931   9.859  1.7383 -1.4508  0.4674
36776SOL    HW216292   1.760   7.984   9.961 -0.4123  0.9384  1.4094
36777SOL     OW16293   0.364  12.268   6.467  0.2694  0.7447 -0.0607
36777SOL    HW116294   0.435  12.243   6.526 -0.7393 -2.4150 -0.0130
36777SOL    HW216295   0.405  12.269   6.380  0.6319  0.1288  0.0946
36778SOL     OW16296   7.329  11.061   5.407  0.1965 -0.1603  0.4649
36778SOL    HW116297   7.271  11.133   5.431  0.0978  0.6301 -1.8910
36778SOL    HW216298   7.416  11.090   5.436 -0.3927 -1.1058  3.4948
36779SOL     OW16299   0.248   0.523   5.491  0.8512  0.4426  0.2675
36779SOL    HW116300   0.282   0.534   5.402 -0.3353  1.6557 -0.0681
36779SOL    HW216301   0.158   0.557   5.487 -0.4145 -2.4548  1.1345
36780SOL     OW16302   2.408   9.272  11.045 -0.9838 -0.2022  0.1157
36780SOL    HW116303   2.412   9.203  10.978 -1.9230 -1.1376  0.9845
36780SOL    HW216304   2.434   9.228  11.126 -3.0484  0.0434  0.9723
36781SOL     OW16305  11.464   7.503   0.635 -0.4043  0.5588  0.1828
36781SOL    HW116306  11.417   7.586   0.624 -0.4729  0.7499  1.6743
36781SOL    HW216307  11.538   7.525   0.692 -1.6072 -0.7734  2.3786
36782SOL     OW16308  12.082   2.520  11.692 -0.4510  0.0658 -0.1583
36782SOL    HW116309  12.142   2.593  11.682 -1.3290  0.7446 -0.6535
36782SOL    HW216310  12.094   2.490  11.782  0.8546 -0.0322 -0.3534
36783SOL     OW16311   8.513   8.372   5.468 -0.0359  0.1236 -0.3442
36783SOL    HW116312   8.606   8.349   5.470 -0.1701 -0.4879 -0.8379
36783SOL    HW216313   8.470   8.294   5.431 -0.5558  0.9958 -1.6300
36784SOL     OW16314   6.220   5.373   7.584  0.5867  0.1853 -0.1720
36784SOL    HW116315   6.217   5.469   7.585 -0.4827  0.2418 -2.3705
36784SOL    HW216316   6.300   5.351   7.632  1.1813  2.2030 -0.1462
36785SOL     OW16317   9.635   4.288   4.424 -0.3251 -0.2928 -0.4701
36785SOL    HW116318   9.549   4.300   4.464 -0.4590 -0.0901 -0.8132
36785SOL    HW216319   9.618   4.233   4.347 -0.2044  0.0691 -0.7559
36786SOL     OW16320   3.594  10.582   3.071 -0.0795 -0.8728  0.2837
36786SOL    HW116321   3.556  10.643   3.008 -0.0658 -0.3009  0.8182
36786SOL    HW216322   3.659  10.532   3.020  0.9932  0.5891  0.1545
36787SOL     OW16323   1.501  11.665   8.989 -0.2528 -0.6113 -0.3049
36787SOL    HW116324   1.478  11.645   8.899 -0.6630  2.2659 -0.9363
36787SOL    HW216325   1.423  11.706   9.025 -0.0393 -1.5639  1.3331
36788SOL     OW16326  10.731   2.614  11.792 -0.5433  0.2383  0.0658
36788SOL    HW116327  10.812   2.663  11.783  0.1346 -0.7038  0.7835
36788SOL    HW216328  10.703   2.629  11.883 -1.7342  1.3624 -0.4537
36789SOL     OW16329   3.634  12.316  12.326 -0.3579  0.1569  0.2243
36789SOL    HW116330   3.585  12.354  12.399  1.8369 -0.5106  2.1515
36789SOL    HW216331   3.689  12.388  12.294 -0.4390  0.1308  0.0265
36790SOL     OW16332   2.505  11.132   1.120 -0.3142 -0.5418  0.0401
36790SOL    HW116333   2.516  11.049   1.165 -0.9139 -0.3228  0.6195
36790SOL    HW216334   2.433  11.117   1.059 -0.9394 -0.2523  0.6846
36791SOL     OW16335   2.237   6.419  10.051 -0.8843  0.6099  0.0717
36791SOL    HW116336   2.283   6.338  10.071  0.8717  1.6035  0.2202
36791SOL    HW216337   2.146   6.392  10.035 -0.6367 -1.1998  1.4534
36792SOL     OW16338  10.960   8.523   3.017 -0.5092  0.1170 -0.3881
36792SOL    HW116339  10.873   8.546   3.048 -0.7617 -0.1383 -0.8918
36792SOL    HW216340  11.020   8.565   3.079 -0.9775  0.8903 -0.4371
36793SOL     OW16341   6.392   2.100   8.328 -0.0042 -0.1625  0.0927
36793SOL    HW116342   6.396   2.050   8.409  2.2652 -2.3469 -1.2217
36793SOL    HW216343   6.412   2.190   8.353 -0.8400 -0.4953  2.0957
36794SOL     OW16344   7.589  10.115   4.725 -0.4461  0.6976  0.5926
36794SOL    HW116345   7.533  10.086   4.796 -0.0891  0.3188  0.7237
36794SOL    HW216346   7.547  10.194   4.692 -1.3927  0.0889  0.2921
36795SOL     OW16347   0.424  11.301   4.512  0.4646 -0.1264 -0.5840
36795SOL    HW116348   0.476  11.354   4.573  1.8204 -0.2140 -1.6125
36795SOL    HW216349   0.470  11.217   4.508 -1.3111 -1.2329  0.5396
36796SOL     OW16350   6.016   9.590   4.167  0.8114 -0.3461 -0.0228
36796SOL    HW116351   5.945   9.585   4.103  0.3920  2.9509 -0.0008
36796SOL    HW216352   6.001   9.515   4.225 -3.2252  0.5558  0.4374
36797SOL     OW16353   9.723   1.285   3.552  0.3156  0.0409  0.1004
36797SOL    HW116354   9.727   1.315   3.461  0.1647  0.1412  0.1261
36797SOL    HW216355   9.643   1.324   3.587  1.4172  1.6819  0.8812
36798SOL     OW16356   3.067   1.463   1.393 -0.1587  0.1621  0.5280
36798SOL    HW116357   3.136   1.451   1.328  0.9346  3.3314  0.9143
36798SOL    HW216358   2.986   1.440   1.346  0.8285 -0.1045 -1.1393
36799SOL     OW16359   9.406   2.912   7.004 -0.4402 -0.3028 -0.0568
36799SOL    HW116360   9.428   2.821   6.983  0.3755  0.0657 -0.8894
36799SOL    HW216361   9.471   2.938   7.070  2.3666  1.0231 -3.0642
36800SOL     OW16362   3.382  11.566  10.844 -0.6757  0.1597  0.3842
36800SOL    HW116363   3.420  11.483  10.819 -2.3363 -0.8308  0.9601
36800SOL    HW216364   3.457  11.624  10.857  0.4496 -0.2150 -3.2743
36801SOL     OW16365   6.283   8.678   3.006  0.3394  0.4026  0.5458
36801SOL    HW116366   6.227   8.600   3.018 -0.7338  1.0008 -0.3972
36801SOL    HW216367   6.260   8.711   2.919  0.1500  2.2500  1.2463
36802SOL     OW16368   8.292  12.033   4.620  0.2029  0.3057 -0.1845
36802SOL    HW116369   8.284  12.048   4.526  0.1173 -0.7271 -0.3582
36802SOL    HW216370   8.360  11.967   4.628  0.0145  0.1789  0.4575
36803SOL     OW16371   3.695   6.158   0.036 -0.1861  0.4165 -0.0589
36803SOL    HW116372   3.606   6.136   0.010 -0.2673 -0.9471  1.2034
36803SOL    HW216373   3.685   6.216   0.111  0.0328  2.0069 -1.2049
36804SOL     OW16374   7.384   3.658  10.962  0.3326  0.7714 -0.0834
36804SOL    HW116375   7.398   3.731  11.022  1.8799  1.1632 -0.8665
36804SOL    HW216376   7.334   3.594  11.012  0.5063  1.6195  1.1981
36805SOL     OW16377   5.591  11.022   6.881 -0.1962 -0.8092 -0.1591
36805SOL    HW116378   5.512  11.029   6.935 -0.8408  1.7762 -1.2835
36805SOL    HW216379   5.662  11.050   6.939 -0.8898  2.0313 -0.5306
36806SOL     OW16380   7.670   3.173  12.309 -0.1153 -0.0039  0.8257
36806SOL    HW116381   7.611   3.171  12.384 -0.3652  0.0988  0.6351
36806SOL    HW216382   7.611   3.181  12.233  0.1431  0.0919  0.6350
36807SOL     OW16383   9.438  12.402   4.170 -0.7097  0.5025 -0.1892
36807SOL    HW116384   9.414  12.482   4.217 -0.1299 -0.3136  1.5758
36807SOL    HW216385   9.355  12.355   4.160 -0.8842  0.8195 -0.2498
36808SOL     OW16386   1.650   4.535   6.733 -0.2170 -0.6586 -0.5776
36808SOL    HW116387   1.663   4.470   6.803  2.1865  0.8265  0.4911
36808SOL    HW216388   1.653   4.619   6.779 -2.0263  0.3012 -2.0907
36809SOL     OW16389  11.141   0.441   4.727  0.4126  0.1065 -0.1726
36809SOL    HW116390  11.056   0.454   4.683  0.9197  3.7044 -0.4111
36809SOL    HW216391  11.165   0.529   4.757  1.6612 -1.5818  4.5378
36810SOL     OW16392   4.536   6.535   2.476 -0.2651  0.1448  0.4619
36810SOL    HW116393   4.494   6.528   2.562  1.1970 -0.4123  1.1576
36810SOL    HW216394   4.505   6.457   2.429 -1.5659  0.7742  0.2267
36811SOL     OW16395   2.965   5.168  11.857 -0.3719  0.6212 -0.0033
36811SOL    HW116396   3.031   5.188  11.791  0.6648 -0.2810  0.7292
36811SOL    HW216397   3.011   5.117  11.923 -1.2513  1.8829  1.6737
36812SOL     OW16398  10.860  10.750   2.215 -0.2018  0.3932 -0.4606
36812SOL    HW116399  10.824  10.788   2.136 -1.6528 -0.1938 -0.1051
36812SOL    HW216400  10.788  10.700   2.254  0.8526 -0.4433  0.5233
36813SOL     OW16401   4.846   3.680   8.641 -0.3144 -0.1358  0.1961
36813SOL    HW116402   4.796   3.753   8.605  1.4897  1.4664  0.8045
36813SOL    HW216403   4.827   3.681   8.734 -0.0285 -0.2460  0.2579
36814SOL     OW16404   3.168   0.582   3.963  0.5337  0.3356 -0.1699
36814SOL    HW116405   3.180   0.519   3.891  0.0601 -1.4522  1.2276
36814SOL    HW216406   3.085   0.555   4.003 -0.0979  2.3979  0.0143
36815SOL     OW16407   8.624  12.045  10.413 -0.3980  0.0531  0.3227
36815SOL    HW116408   8.558  11.990  10.371  0.4600 -0.7872  0.0297
36815SOL    HW216409   8.654  11.992  10.487 -0.1873  0.5099  0.5644
36816SOL     OW16410   1.946   5.574   9.704  0.1228  0.6756  0.2506
36816SOL    HW116411   1.912   5.496   9.747 -2.3406  0.2285 -2.2597
36816SOL    HW216412   1.987   5.541   9.624  1.4555  1.7879  0.4264
36817SOL     OW16413   9.563   4.689   9.913  0.0406  0.0258  0.2686
36817SOL    HW116414   9.469   4.675   9.908 -0.2710  1.1451  2.1311
36817SOL    HW216415   9.598   4.603   9.938 -0.4185 -0.4699 -0.7230
36818SOL     OW16416   8.891   8.141   6.400  0.0605  0.3413  0.3916
36818SOL    HW116417   8.978   8.138   6.362  0.2463 -1.7090  0.8574
36818SOL    HW216418   8.898   8.203   6.472  1.3662 -0.3612  0.9055
36819SOL     OW16419   8.514   0.930   3.229  0.5053 -0.5322  0.0965
36819SOL    HW116420   8.552   0.860   3.175 -2.4318 -0.6540 -2.0630
36819SOL    HW216421   8.445   0.886   3.278  0.0771  0.4712  0.3983
36820SOL     OW16422   4.741  12.427   4.695  0.2497 -0.4938  0.8526
36820SOL    HW116423   4.832  12.417   4.667  0.1789 -0.2714  0.5432
36820SOL    HW216424   4.746  12.427   4.791  0.6422  0.1607  0.8349
36821SOL     OW16425   4.382   6.238  12.324  0.8124  0.3312  0.3937
36821SOL    HW116426   4.309   6.297  12.340 -0.5096 -1.2090  0.2638
36821SOL    HW216427   4.388   6.185  12.403  1.4504  0.0745  0.1838
36822SOL     OW16428   8.466   6.254   5.513 -0.0181 -0.4195 -0.3689
36822SOL    HW116429   8.386   6.231   5.466 -0.7143 -0.7858  0.9385
36822SOL    HW216430   8.435   6.292   5.595  1.1279  2.0523 -0.9854
36823SOL     OW16431   0.160   8.753   5.984 -0.1675  0.5538 -0.1116
36823SOL    HW116432   0.235   8.702   6.016 -1.6266 -2.2731 -0.8743
36823SOL    HW216433   0.199   8.819   5.927  1.9417  1.3564  2.0749
36824SOL     OW16434   9.297  10.327   8.209  0.1429 -0.1762  0.7526
36824SOL    HW116435   9.358  10.262   8.175  1.2158  0.8352  0.6747
36824SOL    HW216436   9.224  10.325   8.147  0.3857 -0.9531  0.4738
36825SOL     OW16437   8.903  11.413   6.379 -0.0082 -0.1761 -0.1015
36825SOL    HW116438   8.997  11.412   6.363  0.2745  0.0508  1.3651
36825SOL    HW216439   8.895  11.407   6.475 -1.4148  1.9320 -0.0241
36826SOL     OW16440   0.132   8.717   0.127 -0.6598  0.0951 -0.3807
36826SOL    HW116441   0.179   8.647   0.082 -0.1040 -0.3641  0.8513
36826SOL    HW216442   0.164   8.797   0.085 -0.6138 -0.3354 -1.1920
36827SOL     OW16443   4.782   5.761   8.072  0.6587 -0.0140  0.8457
36827SOL    HW116444   4.721   5.817   8.121  0.0577 -0.7860  0.9925
36827SOL    HW216445   4.846   5.732   8.137 -0.6169 -1.7219  1.4129
36828SOL     OW16446   2.798   8.061   5.834 -0.1511  0.5385  0.6582
36828SOL    HW116447   2.822   7.971   5.811 -0.9879  0.4071  0.2442
36828SOL    HW216448   2.794   8.060   5.930 -2.0176 -0.4099  0.6287
36829SOL     OW16449   1.339   7.438  10.816 -0.0524  0.0406  0.0747
36829SOL    HW116450   1.364   7.402  10.901  0.0790  1.5262  0.7066
36829SOL    HW216451   1.281   7.372  10.777 -0.5013 -0.4530  1.5250
36830SOL     OW16452   1.091   8.632   5.368 -0.3765 -0.0283  0.4345
36830SOL    HW116453   1.064   8.541   5.383  1.1718 -0.3985  1.1881
36830SOL    HW216454   1.153   8.626   5.295 -0.9122  0.5624 -0.0823
36831SOL     OW16455   4.477   4.067   4.832  0.5883 -0.3435  0.3347
36831SOL    HW116456   4.500   4.000   4.768  0.9584 -0.0339  0.1399
36831SOL    HW216457   4.528   4.143   4.806  0.0281  0.0775  0.4393
36832SOL     OW16458   1.954   2.416   3.386 -0.7959  0.0962 -0.2502
36832SOL    HW116459   1.879   2.463   3.348 -1.2352 -0.8263 -0.5694
36832SOL    HW216460   1.978   2.467   3.463  0.2236  2.1159 -1.8140
36833SOL     OW16461   0.439   9.167   5.491 -0.0646  0.1545  0.3325
36833SOL    HW116462   0.461   9.076   5.511  0.2712  0.1424 -0.0666
36833SOL    HW216463   0.435   9.170   5.396  0.5084  0.6859  0.3186
36834SOL     OW16464   8.951   3.630   0.498 -0.1880  0.3175  0.2467
36834SOL    HW116465   9.032   3.631   0.448 -0.5804  0.6006 -0.3928
36834SOL    HW216466   8.912   3.717   0.484  0.3261  0.9090  2.1037
36835SOL     OW16467   5.106   5.178   7.098 -0.3728  0.1961  0.5494
36835SOL    HW116468   5.152   5.114   7.152 -0.4123  0.2349  0.6292
36835SOL    HW216469   5.171   5.207   7.034 -0.1427  0.5995  0.9586
36836SOL     OW16470   0.507   1.390   5.613 -0.2876  0.0069 -0.0420
36836SOL    HW116471   0.529   1.479   5.638  0.1636 -0.0662 -0.1504
36836SOL    HW216472   0.589   1.355   5.576 -0.5158 -0.3788 -0.1940
36837SOL     OW16473   7.617   8.248   3.597 -0.4209 -0.2839  0.0424
36837SOL    HW116474   7.627   8.218   3.688 -0.4169  1.0432  0.5013
36837SOL    HW216475   7.578   8.173   3.552 -0.3654 -0.9949  1.1205
36838SOL     OW16476   5.540  11.315   7.588  0.0854 -0.2148  0.1906
36838SOL    HW116477   5.484  11.388   7.562  0.9018  0.1661 -0.5500
36838SOL    HW216478   5.537  11.254   7.514  1.5567  0.3654 -0.3914
36839SOL     OW16479  11.080   5.011   4.010 -0.7485  0.0023  0.8598
36839SOL    HW116480  11.134   4.938   3.981 -0.2287  0.3509  0.9399
36839SOL    HW216481  11.016   4.971   4.069  1.0883 -0.0755  2.9347
36840SOL     OW16482   0.420  11.746   7.955  0.1259 -0.1503 -0.6306
36840SOL    HW116483   0.387  11.657   7.961  0.4441 -0.2590 -0.4816
36840SOL    HW216484   0.351  11.800   7.993  0.5996 -0.4844  0.7740
36841SOL     OW16485  11.866  11.860   9.129 -0.2719 -0.0513 -0.6869
36841SOL    HW116486  11.803  11.788   9.122  0.5695 -0.8674 -0.1849
36841SOL    HW216487  11.948  11.817   9.154  0.0360  1.1844  0.5513
36842SOL     OW16488   4.876   0.922   0.587 -0.0255  0.5233 -0.3071
36842SOL    HW116489   4.910   0.904   0.499  0.5268  1.3313 -0.2742
36842SOL    HW216490   4.862   0.836   0.626 -2.8318  0.0229 -2.1107
36843SOL     OW16491   5.629   1.944   2.213  0.1402 -0.1138 -0.2188
36843SOL    HW116492   5.554   1.889   2.194  0.0052 -0.0900  0.2362
36843SOL    HW216493   5.657   1.977   2.128 -0.7063  0.3244 -0.3359
36844SOL     OW16494   4.063   6.258   1.059 -0.2539 -0.4721  0.0826
36844SOL    HW116495   4.014   6.186   1.099 -1.1093 -0.2422 -0.5229
36844SOL    HW216496   3.995   6.318   1.027  0.4422  0.6572  0.6606
36845SOL     OW16497   4.748   4.452   5.959  0.0003 -0.0064 -0.0513
36845SOL    HW116498   4.818   4.445   5.893 -0.3711  2.5704 -0.8141
36845SOL    HW216499   4.793   4.478   6.039 -0.0891  3.1515 -0.8930
36846SOL     OW16500   4.338   3.292   0.850 -0.4668 -0.0927  0.1849
36846SOL    HW116501   4.253   3.258   0.877 -1.0395 -1.1574 -2.5667
36846SOL    HW216502   4.317   3.360   0.786  0.7027 -0.5776 -0.7578
36847SOL     OW16503   7.257   3.832   0.468  0.2384 -0.1004  0.1438
36847SOL    HW116504   7.329   3.856   0.526 -0.8023  2.3960  0.5605
36847SOL    HW216505   7.180   3.829   0.525 -0.1848 -1.6558 -0.4660
36848SOL     OW16506   9.697   2.787   6.594  0.2172  0.7003  1.0011
36848SOL    HW116507   9.605   2.763   6.584  0.2646  0.5277  0.9692
36848SOL    HW216508   9.701   2.833   6.677  0.0979  0.7240  0.9939
36849SOL     OW16509   8.069   1.762   9.200  0.6171 -0.2991  0.3365
36849SOL    HW116510   8.007   1.695   9.230  0.2004 -0.0528  0.0384
36849SOL    HW216511   8.090   1.812   9.279 -0.4551  0.3316  0.2444
36850SOL     OW16512   5.035   1.727   2.071 -0.2956 -0.2130 -0.1864
36850SOL    HW116513   5.044   1.647   2.123 -1.6358 -0.9304 -1.0056
36850SOL    HW216514   4.947   1.758   2.091  0.3227  1.2776  0.3822
36851SOL     OW16515   7.177   4.255   7.912  0.5653 -0.9141 -0.4834
36851SOL    HW116516   7.112   4.256   7.983 -0.5390 -2.1979 -1.4214
36851SOL    HW216517   7.260   4.272   7.956 -0.1574 -1.1443  1.0579
36852SOL     OW16518   5.793   3.194   9.408 -0.3143 -0.2868 -0.2979
36852SOL    HW116519   5.733   3.258   9.368  0.2998  0.6834  0.2876
36852SOL    HW216520   5.757   3.179   9.495  0.9596  1.3199  0.5680
36853SOL     OW16521   0.889   1.404   8.221  0.4918 -0.2339  0.0852
36853SOL    HW116522   0.950   1.399   8.295  0.1140 -0.7410  0.3686
36853SOL    HW216523   0.830   1.476   8.245  1.6694  1.0732 -0.7402
36854SOL     OW16524   0.860   8.201  12.155  0.3158 -0.5294  0.4067
36854SOL    HW116525   0.878   8.118  12.200  0.0276 -0.7802  0.0643
36854SOL    HW216526   0.809   8.176  12.078  0.1049 -0.0157  0.3779
36855SOL     OW16527  12.140   2.753  11.010  0.2665 -0.4018  0.2577
36855SOL    HW116528  12.102   2.791  11.089  1.1159  0.8022  0.1228
36855SOL    HW216529  12.235   2.756  11.026  0.4028 -1.0542 -0.4005
36856SOL     OW16530   5.369   6.078   2.266  0.4210  0.0365 -0.0988
36856SOL    HW116531   5.286   6.119   2.288  0.9385  1.0664 -0.0106
36856SOL    HW216532   5.363   6.060   2.172 -0.6733 -1.7678  0.2562
36857SOL     OW16533   4.118   5.936   0.947 -0.1497 -0.2626  0.6912
36857SOL    HW116534   4.209   5.955   0.925 -0.7829  0.4866 -1.6319
36857SOL    HW216535   4.082   5.897   0.867 -2.3826  1.4323  0.7672
36858SOL     OW16536   3.787   8.957   1.804 -0.8028  0.2230  0.0401
36858SOL    HW116537   3.825   9.043   1.788  0.6575 -0.2980  0.5679
36858SOL    HW216538   3.826   8.900   1.737  0.6495 -0.6565  1.5540
36859SOL     OW16539   9.168  12.228   0.499  0.0782  0.1765 -0.2231
36859SOL    HW116540   9.230  12.301   0.492  0.8939 -0.2875  1.5899
36859SOL    HW216541   9.196  12.167   0.431  0.6204  0.6847 -0.4740
36860SOL     OW16542   7.727   1.809   3.329  0.1102  0.0880 -0.4426
36860SOL    HW116543   7.765   1.738   3.381 -0.7662 -1.6196 -2.0200
36860SOL    HW216544   7.671   1.856   3.390 -1.8223 -2.5624  0.0107
36861SOL     OW16545   3.085  11.956  11.907  0.1589  0.5669 -0.3619
36861SOL    HW116546   3.115  12.025  11.848 -0.1509  0.4894 -0.6110
36861SOL    HW216547   3.080  11.997  11.993 -0.6808  1.0282 -0.6322
36862SOL     OW16548  10.850  12.003   7.234 -0.0599 -0.2290  0.3863
36862SOL    HW116549  10.864  12.006   7.329 -0.2100 -2.8813  0.5530
36862SOL    HW216550  10.925  12.052   7.198  1.2612 -1.1119  1.8062
36863SOL     OW16551   7.467   8.406   2.720  0.1716 -0.4058  0.6637
36863SOL    HW116552   7.414   8.387   2.797 -0.2590 -0.1108  0.4424
36863SOL    HW216553   7.415   8.468   2.669  0.2099 -0.9981 -0.1217
36864SOL     OW16554   4.126  12.481   0.137 -0.1857 -0.1813 -0.1781
36864SOL    HW116555   4.048  12.461   0.085  0.1901  1.6183 -1.5449
36864SOL    HW216556   4.092  12.507   0.223 -0.9074 -1.7567  0.0490
36865SOL     OW16557   1.359   0.292   5.580 -0.2821 -0.3052  0.0852
36865SOL    HW116558   1.290   0.356   5.562  0.8359  0.6660 -0.9581
36865SOL    HW216559   1.389   0.265   5.493  1.1084 -0.1887  0.5142
36866SOL     OW16560   2.046   5.606   1.799 -0.0587 -0.5868 -0.4151
36866SOL    HW116561   2.036   5.698   1.825  1.3743 -0.2252 -1.0839
36866SOL    HW216562   2.043   5.557   1.881 -2.3775 -0.1354 -0.1538
36867SOL     OW16563   5.488   9.698   3.745  0.6011  0.6985  0.3499
36867SOL    HW116564   5.430   9.636   3.789  0.5378  0.5933  0.1193
36867SOL    HW216565   5.576   9.676   3.776  0.7629 -0.5096 -0.9038
36868SOL     OW16566  12.314   3.851   4.035  0.6395  0.0436  0.0611
36868SOL    HW116567  12.241   3.905   4.066 -1.4820 -2.4478 -0.2462
36868SOL    HW216568  12.366   3.834   4.114 -1.1797 -1.0538  1.0993
36869SOL     OW16569   5.016   7.945   7.756  0.1500  0.3559  0.7637
36869SOL    HW116570   4.996   7.852   7.741  1.5949  0.0257  0.7485
36869SOL    HW216571   4.953   7.972   7.823  0.1140 -0.8104  1.2349
36870SOL     OW16572   2.043  10.160   0.304  0.3337 -0.5816  0.1701
36870SOL    HW116573   1.996  10.129   0.381 -0.5083  0.6870  0.1973
36870SOL    HW216574   2.100  10.229   0.337  0.1559 -0.2079 -0.3013
36871SOL     OW16575   3.367  10.417  12.031 -0.1384  0.0503  0.5792
36871SOL    HW116576   3.328  10.502  12.053 -0.0618  0.4274 -0.6689
36871SOL    HW216577   3.305  10.377  11.970  1.3720  0.6898 -1.5011
36872SOL     OW16578   0.610   7.775   5.542 -0.1078  0.1444 -0.0525
36872SOL    HW116579   0.527   7.821   5.537 -0.3514 -0.3980 -1.5826
36872SOL    HW216580   0.619   7.751   5.634 -1.3708  0.7055  0.2320
36873SOL     OW16581   0.527   4.405   4.639 -0.8231 -0.0873  0.5126
36873SOL    HW116582   0.523   4.310   4.643  0.4053 -0.1800  0.0951
36873SOL    HW216583   0.440   4.435   4.666 -1.2385 -1.3231  0.5745
36874SOL     OW16584  10.231   9.807   3.072  0.9593  0.6699  0.0244
36874SOL    HW116585  10.251   9.788   2.980  1.5281  0.1280  0.2561
36874SOL    HW216586  10.209   9.900   3.072  2.7293  1.1411 -0.3851
36875SOL     OW16587  11.457   4.497  10.099 -0.0275  0.5679  0.3139
36875SOL    HW116588  11.457   4.521  10.191 -0.7870  1.3295  0.1283
36875SOL    HW216589  11.539   4.534  10.065  0.1204  0.5283  0.6230
36876SOL     OW16590   0.231   8.964   4.589  0.4835 -0.1510  0.6722
36876SOL    HW116591   0.266   9.006   4.511  2.2993 -1.9967  0.4267
36876SOL    HW216592   0.282   9.003   4.661 -0.2935  0.6018  0.8329
36877SOL     OW16593  10.810   9.428   5.680  1.0581 -0.0083  0.6320
36877SOL    HW116594  10.869   9.498   5.651  0.0480  0.6144 -0.0138
36877SOL    HW216595  10.820   9.426   5.775 -0.1680  2.2659  0.8899
36878SOL     OW16596   3.232   4.319   7.583  0.1937  0.1840  0.5314
36878SOL    HW116597   3.155   4.265   7.566  0.6059 -0.1015 -0.4801
36878SOL    HW216598   3.205   4.377   7.654 -0.7368 -0.3531  0.6321
36879SOL     OW16599   7.198   3.536   0.082 -0.2376 -0.0139 -0.4053
36879SOL    HW116600   7.289   3.555   0.060 -0.0043  0.1328  0.6143
36879SOL    HW216601   7.153   3.532  -0.002  0.8227 -0.7291 -0.9620
36880SOL     OW16602   6.666   4.572   9.924  0.1821 -0.6264  0.1706
36880SOL    HW116603   6.726   4.622   9.869  0.7139 -2.2056 -0.7450
36880SOL    HW216604   6.594   4.632   9.942  0.3737  0.1892 -1.5887
36881SOL     OW16605   9.295   6.188   0.298 -0.0132 -0.6425 -0.1879
36881SOL    HW116606   9.310   6.142   0.214 -1.7055 -0.2622 -0.7310
36881SOL    HW216607   9.213   6.152   0.330 -0.0041  0.1143  0.7134
36882SOL     OW16608   8.439   6.569  10.064 -0.4270  0.4295  0.0472
36882SOL    HW116609   8.441   6.474  10.074  0.1020  0.2150 -1.6079
36882SOL    HW216610   8.530   6.592  10.044 -0.4988  1.3219  0.7259
36883SOL     OW16611   4.687  12.008  12.102 -0.0308  0.5859 -0.1108
36883SOL    HW116612   4.655  12.095  12.077 -2.4289 -0.4096 -0.8402
36883SOL    HW216613   4.759  11.990  12.042  0.2329  1.9151 -0.2041
36884SOL     OW16614   2.154   3.739   0.348  0.1332  0.0277 -0.8942
36884SOL    HW116615   2.244   3.760   0.374 -0.5178  1.1892  0.5391
36884SOL    HW216616   2.099   3.793   0.405 -1.5743 -2.6691  0.2073
36885SOL     OW16617   8.416   8.801  12.063  0.1201  0.0005 -0.0234
36885SOL    HW116618   8.459   8.861  12.003 -0.2162  0.3931  0.1236
36885SOL    HW216619   8.401   8.722  12.012 -0.3501  0.4026 -0.5171
36886SOL     OW16620  10.222   0.593   5.547 -0.2626 -0.0007 -0.0209
36886SOL    HW116621  10.133   0.578   5.579 -0.0684 -2.0197 -0.2730
36886SOL    HW216622  10.216   0.674   5.496 -1.5645  0.7921  1.3350
36887SOL     OW16623   9.863   8.374  10.286  0.2630 -0.2539  0.2124
36887SOL    HW116624   9.915   8.321  10.347  0.3690 -0.4981 -0.0859
36887SOL    HW216625   9.842   8.314  10.215  0.7936  0.2353 -0.3622
36888SOL     OW16626   8.681   5.607   8.659  0.1799 -0.6618 -0.0085
36888SOL    HW116627   8.631   5.538   8.702 -0.4856 -0.0862  0.1482
36888SOL    HW216628   8.706   5.569   8.575  2.4674 -2.2349  1.2644
36889SOL     OW16629  12.444  10.122   4.873  0.5734 -0.6674  0.1233
36889SOL    HW116630  12.455  10.033   4.839  1.4382 -0.5671  0.1211
36889SOL    HW216631  12.524  10.168   4.847 -0.1559  0.3097 -0.4818
36890SOL     OW16632   0.839   1.224   6.815  0.5886  0.0511 -0.0871
36890SOL    HW116633   0.882   1.140   6.800  0.1866  0.1496 -2.0911
36890SOL    HW216634   0.746   1.207   6.797  0.4191  0.8146  0.0201
36891SOL     OW16635   2.679   2.742   9.199 -0.1281  0.0345 -0.1943
36891SOL    HW116636   2.706   2.814   9.256  0.7905  0.9488 -1.7292
36891SOL    HW216637   2.742   2.743   9.127 -1.0815 -1.2723 -1.0948
36892SOL     OW16638   5.532  12.068   1.262 -0.3478  0.0736 -0.3528
36892SOL    HW116639   5.530  12.045   1.355  0.1116 -1.9101 -0.7874
36892SOL    HW216640   5.623  12.055   1.236 -0.2960  1.4097 -0.9202
36893SOL     OW16641  12.450   5.833   2.042  0.8287  0.2684  0.5776
36893SOL    HW116642  12.436   5.741   2.021  0.1900  0.2356  1.1183
36893SOL    HW216643  12.477   5.873   1.960 -1.5380  0.1507 -0.3216
36894SOL     OW16644   0.489  11.695   9.502  0.5384 -0.0239 -0.3803
36894SOL    HW116645   0.410  11.658   9.543  0.6058  1.0675  0.7616
36894SOL    HW216646   0.487  11.659   9.413 -1.3826  0.1584 -0.4645
36895SOL     OW16647  12.082   2.617   9.810 -0.4365 -0.3978 -0.7951
36895SOL    HW116648  12.015   2.579   9.867 -0.1627 -0.2172 -0.3529
36895SOL    HW216649  12.084   2.709   9.834  0.5263 -0.5485 -0.2385
36896SOL     OW16650   2.460   9.632  10.018 -0.4975 -0.7238  0.5119
36896SOL    HW116651   2.533   9.571  10.005  0.0269  0.1846 -1.0460
36896SOL    HW216652   2.461   9.650  10.112  0.9586 -1.1347  0.5987
36897SOL     OW16653   6.800   5.578   6.337  0.0124 -0.0889 -0.0732
36897SOL    HW116654   6.815   5.511   6.270 -1.4810 -1.4778  0.8802
36897SOL    HW216655   6.767   5.654   6.288 -1.2989 -1.1595 -0.9381
36898SOL     OW16656   7.400   7.953   0.245 -0.1153 -0.5281 -0.1038
36898SOL    HW116657   7.396   7.902   0.326 -0.2542 -1.1363 -0.4880
36898SOL    HW216658   7.332   7.915   0.189  1.0715 -1.2106 -1.1261
36899SOL     OW16659   4.473   5.627  12.264 -0.1371  0.2998 -0.0589
36899SOL    HW116660   4.519   5.660  12.186  1.3581 -0.2427  0.5676
36899SOL    HW216661   4.452   5.537  12.243  0.6034  0.0374  0.2899
36900SOL     OW16662  10.796   6.455   5.760 -0.0814 -0.5940 -0.4645
36900SOL    HW116663  10.764   6.434   5.672 -0.7643  0.8899 -0.6062
36900SOL    HW216664  10.868   6.517   5.745 -0.4313 -0.0614  0.0196
36901SOL     OW16665   3.203   6.770   8.760  0.4145 -0.5238 -0.1098
36901SOL    HW116666   3.181   6.776   8.853  1.8524  0.8582  0.1994
36901SOL    HW216667   3.287   6.724   8.758  0.5955 -0.1868 -0.6604
36902SOL     OW16668   5.203   5.796   5.546  0.0958 -0.0471 -0.5864
36902SOL    HW116669   5.237   5.882   5.519 -0.0789 -0.2362 -1.4215
36902SOL    HW216670   5.110   5.800   5.527 -0.1581  0.0370  0.5985
36903SOL     OW16671   4.737  11.990   5.474  0.0845  0.3187 -0.2445
36903SOL    HW116672   4.691  11.910   5.449  0.2251  0.9050 -2.6287
36903SOL    HW216673   4.682  12.060   5.440 -0.0153  1.2850  1.7815
36904SOL     OW16674   3.182  11.548  11.707  0.1338 -0.5294 -0.2634
36904SOL    HW116675   3.127  11.540  11.629  0.3170  2.9180 -0.9393
36904SOL    HW216676   3.121  11.549  11.780 -0.4814  0.3025 -0.7652
36905SOL     OW16677   1.591   4.708   7.463 -0.3600 -0.7767  0.0031
36905SOL    HW116678   1.635   4.624   7.448  1.4070  0.3728 -1.8216
36905SOL    HW216679   1.657   4.762   7.507 -0.5852  0.3954 -1.0353
36906SOL     OW16680   5.582   6.115   3.507 -0.1143  0.1474 -0.1854
36906SOL    HW116681   5.511   6.135   3.569  0.1523  1.7553 -0.3511
36906SOL    HW216682   5.539   6.111   3.422 -0.2102 -0.2442 -0.1187
36907SOL     OW16683   5.319   3.804  11.070  0.2786  0.3183  0.3218
36907SOL    HW116684   5.243   3.838  11.023  0.8297  0.4573 -0.4794
36907SOL    HW216685   5.393   3.852  11.034  0.7960 -0.1029  0.8102
36908SOL     OW16686   3.747   4.791   2.385 -0.1559  0.0132  0.6678
36908SOL    HW116687   3.808   4.760   2.451 -1.5660 -1.1104  1.4936
36908SOL    HW216688   3.676   4.727   2.385 -1.2182  1.1302 -0.4389
36909SOL     OW16689   2.515   9.844   1.089  0.6458  0.3682 -0.1356
36909SOL    HW116690   2.475   9.772   1.138  0.7036 -0.1367 -0.8233
36909SOL    HW216691   2.601   9.855   1.131  0.3551  0.5125  0.4299
36910SOL     OW16692   8.881   7.675   0.673  0.1973 -0.0359 -0.1359
36910SOL    HW116693   8.918   7.593   0.705 -0.4759 -0.7509 -1.1213
36910SOL    HW216694   8.863   7.726   0.752  1.4076 -0.4790  0.4478
36911SOL     OW16695  11.771   0.270   5.779 -0.2101  0.2602 -0.2314
36911SOL    HW116696  11.763   0.365   5.791  1.3135  0.2162  1.7184
36911SOL    HW216697  11.680   0.240   5.768 -0.7992  1.8371 -0.0194
36912SOL     OW16698   5.250   1.270   3.617 -0.4576  0.1582 -0.7349
36912SOL    HW116699   5.192   1.328   3.566  0.0667  0.0549 -1.4588
36912SOL    HW216700   5.310   1.330   3.662 -0.5739  0.2250 -0.6681
36913SOL     OW16701   1.270   2.358  12.294 -0.6604  0.5213 -0.1933
36913SOL    HW116702   1.346   2.307  12.267 -0.9076  0.3070 -0.4855
36913SOL    HW216703   1.208   2.293  12.326 -0.3523  0.7703  0.9670
36914SOL     OW16704   5.989   1.440   9.958 -0.1181  0.4368 -0.0315
36914SOL    HW116705   6.081   1.453   9.977 -0.2823  1.3137  0.2224
36914SOL    HW216706   5.963   1.519   9.910 -1.0309  0.8071  1.0166
36915SOL     OW16707   6.901   8.108   6.687  0.0380  0.3892  0.3307
36915SOL    HW116708   6.871   8.194   6.658 -0.5238  0.3220  0.6877
36915SOL    HW216709   6.997   8.114   6.687  0.0002  1.2947  1.1726
36916SOL     OW16710  12.106   6.870   7.658  0.2378  0.1171  0.7469
36916SOL    HW116711  12.163   6.804   7.621  0.4257 -0.1231  1.4403
36916SOL    HW216712  12.075   6.921   7.583  1.0460  0.0019  0.3249
36917SOL     OW16713   2.981   3.730  11.637  0.0485  0.1059  0.5055
36917SOL    HW116714   2.989   3.812  11.589 -1.5111  0.4196  0.7380
36917SOL    HW216715   3.040   3.740  11.712  1.3033  0.2321 -0.4732
36918SOL     OW16716   3.169  10.696   4.667 -0.1089 -0.5399 -0.0423
36918SOL    HW116717   3.080  10.729   4.680 -0.6325 -2.3584  1.3862
36918SOL    HW216718   3.158  10.622   4.607  0.6791  0.1841 -1.1100
36919SOL     OW16719   6.156   3.429   8.821  0.2260  0.0206  0.0633
36919SOL    HW116720   6.202   3.492   8.876 -0.7667  0.9103 -0.0861
36919SOL    HW216721   6.067   3.465   8.813 -0.7663 -2.0069  1.0157
36920SOL     OW16722   4.158   7.847  10.520  0.6306 -0.0924  0.3258
36920SOL    HW116723   4.248   7.834  10.552  1.0135  0.0757 -0.6453
36920SOL    HW216724   4.142   7.770  10.465  1.4332  1.4025 -2.1999
36921SOL     OW16725   7.118   4.962   2.978  0.3133 -0.1793 -0.2070
36921SOL    HW116726   7.035   5.001   2.951 -1.2515 -1.9175  1.7700
36921SOL    HW216727   7.168   5.035   3.014 -2.6171  0.2559  3.6612
36922SOL     OW16728   2.275   7.464  11.565 -0.7529 -0.3508 -0.4238
36922SOL    HW116729   2.227   7.460  11.482 -1.5427 -2.4629  0.0890
36922SOL    HW216730   2.218   7.422  11.628 -0.1518  1.2006  1.2407
36923SOL     OW16731   8.703  10.407   6.771 -0.2226  0.0812  0.5924
36923SOL    HW116732   8.698  10.412   6.676 -1.2843  0.1588  0.6404
36923SOL    HW216733   8.747  10.488   6.797  0.5296 -0.1817  0.1406
36924SOL     OW16734   6.648   3.685   2.682  0.1495  0.4380  0.0664
36924SOL    HW116735   6.706   3.750   2.721  0.8526 -0.4285  0.5139
36924SOL    HW216736   6.683   3.601   2.712 -1.7846 -0.1009  0.9976
36925SOL     OW16737   3.589   3.476   1.836  0.0977  0.2433 -0.4583
36925SOL    HW116738   3.618   3.561   1.871  1.8373 -0.5564  0.1422
36925SOL    HW216739   3.499   3.468   1.866  0.4475  1.1413  0.9508
36926SOL     OW16740   2.781   4.497  11.796 -0.1025  0.2105 -0.4431
36926SOL    HW116741   2.711   4.448  11.753  0.0058  0.6603 -1.1615
36926SOL    HW216742   2.746   4.520  11.881 -0.6029 -0.0826 -0.5654
36927SOL     OW16743  10.547   9.070  11.942 -0.3365  0.6169 -0.0217
36927SOL    HW116744  10.590   9.148  11.907 -5.6997  2.9364 -2.6236
36927SOL    HW216745  10.524   9.019  11.865 -1.1850 -1.0602  1.2723
36928SOL     OW16746   3.464  10.273   9.633 -0.3370  0.2386 -0.3731
36928SOL    HW116747   3.437  10.271   9.541  0.3511 -0.1705 -0.5724
36928SOL    HW216748   3.500  10.361   9.645  0.3258  0.0237 -0.7256
36929SOL     OW16749   2.395   6.103   2.534 -0.4255 -0.5741  0.0407
36929SOL    HW116750   2.337   6.060   2.596  0.1931 -1.5996 -0.0598
36929SOL    HW216751   2.480   6.061   2.548 -0.1657 -0.4757 -1.1480
36930SOL     OW16752   8.514   5.391   5.734  0.2366 -0.3641  0.3867
36930SOL    HW116753   8.478   5.400   5.645 -1.3585 -1.5918  0.8632
36930SOL    HW216754   8.441   5.413   5.792 -0.5646 -4.7658  1.4208
36931SOL     OW16755   9.891   8.489   0.099 -0.2162 -0.1714  0.5036
36931SOL    HW116756   9.906   8.526   0.012 -1.8945 -1.2788 -0.3076
36931SOL    HW216757   9.949   8.540   0.156  0.4514  1.0283 -1.1388
36932SOL     OW16758   8.337   6.475   4.300  0.1855 -0.1832 -0.3290
36932SOL    HW116759   8.263   6.433   4.345  0.4648 -0.8256 -0.4687
36932SOL    HW216760   8.357   6.418   4.227 -0.8846  1.3333 -1.8821
36933SOL     OW16761  11.024   2.047   1.673  0.6301  0.0556 -0.2893
36933SOL    HW116762  10.945   2.033   1.726 -0.5133  0.2640 -1.8564
36933SOL    HW216763  11.094   2.057   1.737 -0.6098 -0.1083  1.1652
36934SOL     OW16764   6.378   4.797   5.013  0.2657 -0.1153 -0.3868
36934SOL    HW116765   6.363   4.747   4.933 -0.5227 -1.4287  0.5511
36934SOL    HW216766   6.459   4.761   5.049  0.2920  0.0579 -0.2688
36935SOL     OW16767   0.261  10.166   9.004 -0.3736  0.3981  0.2831
36935SOL    HW116768   0.288  10.080   9.035  0.3657  0.4036 -0.3256
36935SOL    HW216769   0.319  10.227   9.049  0.6244  0.4153 -0.9779
36936SOL     OW16770   2.583   9.670   4.911 -0.2415  0.0846 -0.4977
36936SOL    HW116771   2.611   9.746   4.960  2.1325 -0.6047 -0.6760
36936SOL    HW216772   2.661   9.642   4.862 -1.8008 -0.7785 -2.6706
36937SOL     OW16773   4.760   3.859   2.805  0.9316 -0.0694  0.1983
36937SOL    HW116774   4.756   3.955   2.812 -1.6705  0.0308 -1.3417
36937SOL    HW216775   4.700   3.828   2.873 -0.4381 -0.4412 -1.1421
36938SOL     OW16776   7.634   8.205   9.323  0.0521 -0.1429  0.1726
36938SOL    HW116777   7.643   8.181   9.231  0.2876 -0.1043  0.1843
36938SOL    HW216778   7.618   8.299   9.322  0.1809 -0.1213  0.1774
36939SOL     OW16779   0.477   6.730   1.554  0.1488  0.4225  0.0610
36939SOL    HW116780   0.410   6.705   1.618  0.4151  0.0563  0.2013
36939SOL    HW216781   0.463   6.670   1.481 -0.7543  1.4420 -0.6344
36940SOL     OW16782   1.434  11.176   5.056  0.6416  0.0017  0.1392
36940SOL    HW116783   1.477  11.252   5.017 -0.4891 -0.2653 -1.7652
36940SOL    HW216784   1.380  11.140   4.985 -0.5614 -1.2787  1.6277
36941SOL     OW16785   1.055   2.230   9.664 -0.5361 -0.0237 -0.1948
36941SOL    HW116786   1.129   2.257   9.718 -0.1185 -0.5801 -0.4750
36941SOL    HW216787   0.977   2.256   9.714 -0.1539  0.1101  0.3348
36942SOL     OW16788   0.964   4.898  10.854 -0.7357 -0.1841  0.3746
36942SOL    HW116789   1.003   4.810  10.852  0.5078  0.3362 -1.3881
36942SOL    HW216790   0.976   4.931  10.765 -2.4968  1.2400  0.5998
36943SOL     OW16791   5.884   3.983   2.386  0.0985  0.1361  0.0942
36943SOL    HW116792   5.936   3.932   2.447 -2.2189 -1.1255  1.1522
36943SOL    HW216793   5.946   4.011   2.319  2.0728 -1.3520  1.1897
36944SOL     OW16794   7.010   7.024   7.813  0.0963  0.4377  0.6149
36944SOL    HW116795   7.059   6.942   7.822 -1.0962 -0.2309  1.2852
36944SOL    HW216796   7.074   7.093   7.830  1.0498 -0.3633  0.3416
36945SOL     OW16797   3.582   9.440   2.678 -0.0582 -0.4412 -0.8222
36945SOL    HW116798   3.573   9.347   2.657 -0.0329 -0.4257 -0.9030
36945SOL    HW216799   3.548   9.485   2.601 -0.4819 -0.3832 -0.6021
36946SOL     OW16800  11.430   1.040   0.768 -0.1671 -0.7506 -0.5565
36946SOL    HW116801  11.520   1.042   0.802  0.3303 -2.4912 -1.5964
36946SOL    HW216802  11.404   1.132   0.763  1.4083 -0.2260  0.1471
36947SOL     OW16803   0.135   4.201   4.641  0.3323 -0.2351  0.3035
36947SOL    HW116804   0.084   4.229   4.717  2.1460  2.7573  0.5525
36947SOL    HW216805   0.215   4.253   4.645  2.1930 -2.7054 -1.6220
36948SOL     OW16806   7.085   6.731   7.820  0.2240 -0.0712  0.0896
36948SOL    HW116807   7.146   6.680   7.766  0.3286  0.8231 -0.6612
36948SOL    HW216808   7.028   6.665   7.860  2.0389 -0.9755  1.2790
36949SOL     OW16809   6.439   2.096   7.178  0.3022  0.4005  0.2059
36949SOL    HW116810   6.358   2.114   7.227  0.5205 -0.3309  0.8524
36949SOL    HW216811   6.508   2.130   7.234  0.4917  0.4588 -0.0616
36950SOL     OW16812   8.527  10.120   2.873 -0.1028  0.0458 -0.2800
36950SOL    HW116813   8.443  10.165   2.863  0.6131  1.7277  0.8882
36950SOL    HW216814   8.505  10.038   2.919 -1.0526  0.7215  0.5123
36951SOL     OW16815   5.817  10.309   1.114  0.2562  0.2495 -0.1457
36951SOL    HW116816   5.892  10.302   1.054  3.2878 -0.1361  3.3158
36951SOL    HW216817   5.769  10.385   1.083  0.6954 -0.7747 -3.8559
36952SOL     OW16818   0.068   9.928   5.611  0.7631  0.4020  0.5398
36952SOL    HW116819  -0.005   9.912   5.552  0.6888 -1.9621  1.1791
36952SOL    HW216820   0.041  10.005   5.662  0.1207  1.4616 -1.3234
36953SOL     OW16821   2.925   6.288  12.059  0.0514  0.0074  0.2473
36953SOL    HW116822   2.982   6.258  12.130  0.2930 -0.3970 -0.1182
36953SOL    HW216823   2.916   6.382  12.075 -1.1028 -0.3045  1.6709
36954SOL     OW16824   4.218   5.737  10.093 -0.2742  0.0348 -0.5718
36954SOL    HW116825   4.303   5.705  10.123 -0.7696 -0.8184 -0.0317
36954SOL    HW216826   4.162   5.736  10.171 -0.7930  0.5611 -0.9216
36955SOL     OW16827   8.932   8.596   2.817  0.3737  0.0300 -0.2695
36955SOL    HW116828   8.868   8.526   2.829  0.8197 -0.0971  1.6776
36955SOL    HW216829   9.000   8.558   2.763 -0.6919 -0.1507 -1.5268
36956SOL     OW16830   4.481   2.820   2.887 -0.0237  0.1012  0.1595
36956SOL    HW116831   4.494   2.752   2.820  2.1996 -0.3120  0.9181
36956SOL    HW216832   4.465   2.900   2.838 -0.2060 -0.5253 -0.8266
36957SOL     OW16833  10.584  10.700   9.122 -0.3670 -0.1323  0.3105
36957SOL    HW116834  10.642  10.761   9.167  1.5791 -0.6038 -1.4189
36957SOL    HW216835  10.505  10.751   9.104  0.3866  1.2453  0.7434
36958SOL     OW16836  11.412   9.931   8.975  0.7069  0.4336  0.6609
36958SOL    HW116837  11.326   9.959   9.008 -0.2795 -0.3536 -1.1102
36958SOL    HW216838  11.418   9.839   9.000  0.4963  0.1703 -0.2269
36959SOL     OW16839   9.154   8.435   0.562 -0.1123  0.7472  0.4983
36959SOL    HW116840   9.231   8.382   0.583 -0.1868  1.1186  1.8240
36959SOL    HW216841   9.189   8.522   0.542 -0.0791  0.5127 -0.5168
36960SOL     OW16842   9.990   2.622   9.798 -0.1105  0.3790 -0.4961
36960SOL    HW116843   9.990   2.533   9.764  0.4289  0.2601 -0.1866
36960SOL    HW216844   9.914   2.625   9.856  0.7586 -0.3496  0.7069
36961SOL     OW16845  10.607   2.475   2.323 -0.4350 -0.1370 -0.1411
36961SOL    HW116846  10.701   2.461   2.324 -0.4827 -0.4946  0.9195
36961SOL    HW216847  10.594   2.547   2.261  0.6606  0.7495  0.6124
36962SOL     OW16848   0.994   3.244  11.813 -0.0986 -0.2550  0.0683
36962SOL    HW116849   0.961   3.271  11.727  2.2342  1.1867 -0.4762
36962SOL    HW216850   0.984   3.322  11.867  3.0992  0.6134 -0.4028
36963SOL     OW16851   7.607   9.466  10.737  0.3194 -0.2211  0.0658
36963SOL    HW116852   7.631   9.416  10.659  0.6396 -0.2434  0.1790
36963SOL    HW216853   7.586   9.553  10.704 -0.5923 -0.5150 -0.1805
36964SOL     OW16854   9.261   8.269  11.996 -0.6976 -0.0073  0.4270
36964SOL    HW116855   9.288   8.356  11.964  0.6434  0.4433  2.5513
36964SOL    HW216856   9.239   8.284  12.088  0.2991 -2.0436  1.0444
36965SOL     OW16857   7.687   5.698   1.630  0.8396  0.6090 -0.1127
36965SOL    HW116858   7.782   5.688   1.619  0.4404 -0.8528 -3.1882
36965SOL    HW216859   7.664   5.771   1.572 -0.0178  0.5421  0.1366
36966SOL     OW16860  12.154   6.343   8.601 -0.2404 -0.5042  0.0386
36966SOL    HW116861  12.068   6.347   8.559  0.3822 -0.4433 -1.2873
36966SOL    HW216862  12.166   6.250   8.622 -1.1004 -0.3471  1.2876
36967SOL     OW16863   4.043  12.222   6.886  0.1153  0.1708  0.1924
36967SOL    HW116864   4.076  12.267   6.809 -2.2653  1.3881 -0.2267
36967SOL    HW216865   4.042  12.129   6.862  0.8218  0.3782 -0.6648
36968SOL     OW16866   1.406   2.857   4.841 -0.0488 -0.3525  0.3572
36968SOL    HW116867   1.484   2.850   4.786  0.6177 -0.4562  1.2930
36968SOL    HW216868   1.377   2.948   4.831 -0.5536 -0.6295 -0.9556
36969SOL     OW16869   9.748   5.912   2.341  0.1830 -0.1817  0.5140
36969SOL    HW116870   9.830   5.920   2.391  0.7686 -0.6185 -0.3481
36969SOL    HW216871   9.775   5.871   2.259 -0.7728  0.4925 -0.1412
36970SOL     OW16872   8.768   0.813   1.849 -0.9464  0.1009  0.6091
36970SOL    HW116873   8.748   0.807   1.756 -0.4674 -3.6560  0.6076
36970SOL    HW216874   8.688   0.782   1.892 -0.4187 -0.2511  1.3481
36971SOL     OW16875   9.926  10.248   5.997  0.7096 -0.5539 -0.2101
36971SOL    HW116876   9.874  10.169   6.000  0.2032 -0.1863  1.1889
36971SOL    HW216877   9.985  10.235   5.922 -0.5618 -1.4670 -1.0971
36972SOL     OW16878   8.755   0.393   2.773  0.3981  0.5267  0.5279
36972SOL    HW116879   8.766   0.480   2.735  0.0025  0.5704  0.5138
36972SOL    HW216880   8.741   0.335   2.698  0.8270  0.4235  0.5257
36973SOL     OW16881   0.216   1.807   9.243 -0.1508  0.5418  0.0185
36973SOL    HW116882   0.174   1.878   9.195  0.4117  1.6051  1.0605
36973SOL    HW216883   0.156   1.733   9.234 -0.5870  1.0335 -1.3631
36974SOL     OW16884   5.469   1.941   6.145 -0.2095  0.4317 -0.1146
36974SOL    HW116885   5.445   1.954   6.237  0.5179  0.0914  0.1326
36974SOL    HW216886   5.563   1.920   6.148 -0.2713  0.0358 -0.9035
36975SOL     OW16887   6.042   0.909   1.359 -0.3967 -0.4786 -0.5798
36975SOL    HW116888   6.121   0.920   1.412 -0.7424  0.0964 -0.1707
36975SOL    HW216889   5.972   0.947   1.413 -0.7195  0.3645 -1.5571
36976SOL     OW16890  12.483   6.138  10.448 -0.0795 -0.6178 -0.4823
36976SOL    HW116891  12.560   6.167  10.496  0.4580  2.8514 -3.0284
36976SOL    HW216892  12.517   6.077  10.382 -0.0344 -1.4152  0.2660
36977SOL     OW16893   3.859   9.864   8.565  0.1110  0.6985  0.8333
36977SOL    HW116894   3.824   9.934   8.509 -1.0234  0.2744  0.9654
36977SOL    HW216895   3.862   9.787   8.507  0.9973  0.7647  0.7864
36978SOL     OW16896   0.022  10.938   7.203  0.0010 -0.2147 -0.8182
36978SOL    HW116897  -0.028  10.987   7.269  1.8944 -0.2429  0.7500
36978SOL    HW216898   0.020  10.994   7.125  0.0223  1.2202  0.1559
36979SOL     OW16899   5.404   5.980   1.572  0.4569  0.5870  0.1048
36979SOL    HW116900   5.312   5.952   1.567 -0.0344  2.2349 -0.7791
36979SOL    HW216901   5.399   6.074   1.590  1.9837  0.6712  0.2005
36980SOL     OW16902   1.048   1.334   3.234 -0.2033 -0.1601 -0.0299
36980SOL    HW116903   0.974   1.278   3.259  0.4188 -1.3902 -0.8113
36980SOL    HW216904   1.102   1.338   3.313 -1.0094  0.6188  0.4992
36981SOL     OW16905   7.405   0.611   8.797 -0.1032  0.5905  0.3778
36981SOL    HW116906   7.458   0.613   8.717 -2.7633  0.3147 -1.5077
36981SOL    HW216907   7.388   0.518   8.813 -0.2975  0.6965  0.8168
36982SOL     OW16908   9.499   1.254  11.591  0.2332  0.2723  0.1839
36982SOL    HW116909   9.412   1.294  11.593 -0.1569 -0.4979 -0.4536
36982SOL    HW216910   9.512   1.230  11.499  0.9179 -0.0413  0.3549
36983SOL     OW16911   7.762   1.206   9.041  0.5064  0.0486  0.3155
36983SOL    HW116912   7.692   1.268   9.060  1.1228  0.9878 -0.4199
36983SOL    HW216913   7.751   1.185   8.949  2.2543  1.6182 -0.3049
36984SOL     OW16914  10.104  10.269   8.359  0.2707  0.2501  0.4915
36984SOL    HW116915  10.082  10.320   8.281 -1.5652  1.3078  1.6252
36984SOL    HW216916  10.035  10.202   8.364  1.2803 -0.8218  0.3484
36985SOL     OW16917   4.278   6.625   1.425  0.0869 -0.0898  0.4312
36985SOL    HW116918   4.248   6.537   1.405 -1.1713  0.3610  0.2710
36985SOL    HW216919   4.320   6.655   1.345 -1.8545  0.4251 -0.4357
36986SOL     OW16920   1.365  10.686  10.767  0.1391  0.3407  0.2265
36986SOL    HW116921   1.304  10.660  10.698  0.7691 -0.7364  0.0593
36986SOL    HW216922   1.447  10.703  10.722  0.3846  0.2644  0.6393
36987SOL     OW16923  11.484   4.191   1.394 -0.2234  0.1290  0.2975
36987SOL    HW116924  11.519   4.278   1.376  0.4364 -0.0325  0.7680
36987SOL    HW216925  11.395   4.193   1.358 -0.9676  1.6497  2.0348
36988SOL     OW16926   4.856   8.649   5.971  0.4931  0.3049 -0.2087
36988SOL    HW116927   4.780   8.645   5.913 -0.3297 -0.1980  0.8884
36988SOL    HW216928   4.906   8.570   5.949  0.5832  0.5055 -0.7524
36989SOL     OW16929   2.796  12.233   3.545  0.5216  0.3807 -0.6730
36989SOL    HW116930   2.712  12.251   3.502  0.9386  1.3607 -1.1123
36989SOL    HW216931   2.858  12.227   3.472  0.6101 -1.8910 -0.4838
36990SOL     OW16932   2.508   3.949   7.900  0.2016  0.0411 -0.0416
36990SOL    HW116933   2.544   3.900   7.826  2.2534  0.6808  0.4492
36990SOL    HW216934   2.448   3.888   7.942  0.4211 -0.9842 -1.1454
36991SOL     OW16935   5.028   7.273  11.027 -0.9878 -0.5934 -0.4317
36991SOL    HW116936   4.973   7.197  11.010 -1.8551 -0.4001  1.3527
36991SOL    HW216937   4.968   7.340  11.058  0.2357 -0.4825  1.8843
36992SOL     OW16938   9.833   3.612   7.884 -0.9904  0.2926 -0.5805
36992SOL    HW116939   9.868   3.538   7.932  1.1151  1.5311 -0.0444
36992SOL    HW216940   9.876   3.688   7.922 -1.6325  1.6261 -2.3383
36993SOL     OW16941   3.928   7.518   6.313  0.0899  0.2785  0.2275
36993SOL    HW116942   3.948   7.491   6.403 -0.2528  0.2363  0.2931
36993SOL    HW216943   3.839   7.486   6.298 -0.0411  0.7209  0.0492
36994SOL     OW16944   8.748   1.168   5.017 -0.6829 -0.2021  0.4506
36994SOL    HW116945   8.757   1.122   4.933  1.6306 -1.5408  1.3194
36994SOL    HW216946   8.719   1.100   5.078 -2.3841  0.7660  0.7693
36995SOL     OW16947  11.534   2.438   5.012  0.5438  0.0082 -0.5060
36995SOL    HW116948  11.483   2.514   4.983 -0.2168  0.0207  0.7814
36995SOL    HW216949  11.541   2.383   4.935 -1.2926  0.0885 -0.7876
36996SOL     OW16950   9.579   6.099   2.208 -0.2223  0.3097 -0.1182
36996SOL    HW116951   9.630   6.048   2.272 -0.5370  0.8554  0.5783
36996SOL    HW216952   9.584   6.047   2.128  0.2712 -0.3399  0.3137
36997SOL     OW16953   7.969  11.027  11.806 -0.5487 -0.2142  0.0202
36997SOL    HW116954   7.942  11.111  11.768  0.6622  0.8989  1.5429
36997SOL    HW216955   8.028  10.989  11.740  0.8384  1.2839  0.3348
36998SOL     OW16956   4.938   3.459   2.315 -0.3501 -0.4183  0.5418
36998SOL    HW116957   4.948   3.475   2.409 -0.3809 -1.0151  0.6479
36998SOL    HW216958   4.957   3.366   2.304 -0.8425 -0.4607  0.0273
36999SOL     OW16959   8.927   5.550   7.236 -0.0498  0.1604  0.1162
36999SOL    HW116960   8.832   5.537   7.243  0.2083 -1.1538  1.6782
36999SOL    HW216961   8.965   5.477   7.283  1.8033  0.0949 -1.3765
37000SOL     OW16962   7.317   9.067  12.341 -0.2711 -0.3981  0.0692
37000SOL    HW116963   7.268   9.150  12.340 -1.8320 -1.2866 -0.0140
37000SOL    HW216964   7.366   9.069  12.423 -0.2090  0.6551  0.0175
37001SOL     OW16965   8.912   4.808   7.949  0.2528  0.0177  0.2908
37001SOL    HW116966   8.986   4.840   8.000  0.5160  1.4553 -0.9229
37001SOL    HW216967   8.945   4.802   7.859 -0.4988 -1.4226  0.0742
37002SOL     OW16968   9.333   2.290   3.622 -0.1568 -0.3287 -0.0646
37002SOL    HW116969   9.386   2.233   3.678  0.1866 -1.0257 -1.0583
37002SOL    HW216970   9.247   2.290   3.662 -0.2582 -1.8402 -0.2070
37003SOL     OW16971  12.458   5.392   8.245 -0.2001 -0.3499  0.0256
37003SOL    HW116972  12.518   5.460   8.278  0.1573 -0.2499 -0.8049
37003SOL    HW216973  12.374   5.437   8.234 -0.6409 -0.6550  1.8677
37004SOL     OW16974   6.355   1.590   5.907  0.1142 -0.1914  0.0489
37004SOL    HW116975   6.380   1.678   5.881 -1.3618  0.3673  0.4036
37004SOL    HW216976   6.420   1.533   5.867  0.3524  0.9561 -1.2540
37005SOL     OW16977   2.405   2.943   0.601  0.0858 -0.1290  0.1378
37005SOL    HW116978   2.479   3.003   0.613  0.3905 -0.4201 -0.2568
37005SOL    HW216979   2.390   2.906   0.687 -1.7486  2.3673  1.0292
37006SOL     OW16980   2.317  12.051   2.742 -0.0140  0.3128  0.6044
37006SOL    HW116981   2.352  12.045   2.654  0.3328  0.7592  0.7087
37006SOL    HW216982   2.249  11.984   2.746  1.0061 -0.7589  0.4890
37007SOL     OW16983  11.486  11.105   9.041 -0.6284  0.1680  0.1647
37007SOL    HW116984  11.523  11.107   8.952  1.5251 -1.3258  0.9403
37007SOL    HW216985  11.529  11.177   9.086  1.0155 -1.1820  0.8895
37008SOL     OW16986   2.465   1.014   4.958 -0.0919 -0.0947  0.1687
37008SOL    HW116987   2.374   0.997   4.936 -0.4745  2.9267 -1.0279
37008SOL    HW216988   2.475   0.980   5.047 -2.1373 -1.2308  0.0172
37009SOL     OW16989   6.795   2.237  11.049  0.0119  1.1764  0.0179
37009SOL    HW116990   6.795   2.323  11.091 -0.2740  0.8257  0.7502
37009SOL    HW216991   6.859   2.245  10.979  1.9058  1.2465  1.6647
37010SOL     OW16992   6.580   2.398   5.301  0.0413 -0.0057 -0.1002
37010SOL    HW116993   6.570   2.303   5.313 -3.3898  0.1154 -0.8921
37010SOL    HW216994   6.585   2.410   5.207 -2.1668  0.6581 -0.1986
37011SOL     OW16995   3.631  11.118   2.389  0.3777 -0.2828  0.6492
37011SOL    HW116996   3.584  11.168   2.323  0.2978 -0.0168  0.9041
37011SOL    HW216997   3.706  11.081   2.342  0.1401 -0.3714  0.3362
37012SOL     OW16998   5.524   6.403   7.446 -0.4358  0.0311 -0.1481
37012SOL    HW116999   5.433   6.422   7.469 -0.5584  0.9862 -1.3323
37012SOL    HW217000   5.526   6.308   7.434 -1.3367  0.0229 -0.3215
37013SOL     OW17001  10.142   6.529   7.296 -0.1661  0.1678 -0.0163
37013SOL    HW117002  10.066   6.472   7.287  0.7780 -1.1468 -0.1237
37013SOL    HW217003  10.119   6.608   7.248 -1.5879 -0.0630  0.2516
37014SOL     OW17004   0.022   3.841   5.679  0.0268  0.1834  0.2068
37014SOL    HW117005   0.001   3.748   5.669 -2.5770  0.7919 -0.5893
37014SOL    HW217006   0.103   3.841   5.730  0.9854 -2.5338 -1.1101
37015SOL     OW17007   2.022   9.885   0.014 -0.3442 -0.3789  0.0102
37015SOL    HW117008   2.072   9.804   0.002  0.9616  0.7439 -3.3143
37015SOL    HW217009   1.934   9.863  -0.017  0.3181 -0.3086 -2.0843
37016SOL     OW17010   3.316  10.149   8.252  0.1682 -0.4931  0.2363
37016SOL    HW117011   3.389  10.205   8.226  0.5751 -0.9728  0.3260
37016SOL    HW217012   3.293  10.179   8.340  0.6034 -0.6797  0.4181
37017SOL     OW17013   9.357   8.924   2.520 -0.3412  0.1732  0.3541
37017SOL    HW117014   9.281   8.867   2.507 -0.8566  0.6800  1.0556
37017SOL    HW217015   9.414   8.906   2.445 -0.8935 -0.6210  0.1122
37018SOL     OW17016  11.145   5.391  11.170  0.0082  0.2289  0.1087
37018SOL    HW117017  11.081   5.460  11.184 -1.1774 -0.9402  0.6039
37018SOL    HW217018  11.160   5.390  11.075  0.5269  1.5586  0.1612
37019SOL     OW17019   9.246   3.658   8.938 -0.1274 -0.2900 -0.3337
37019SOL    HW117020   9.215   3.729   8.995 -0.9702 -0.4200 -0.6130
37019SOL    HW217021   9.340   3.653   8.955 -0.5594 -1.4037  2.2808
37020SOL     OW17022   7.341   0.268   3.876 -0.0810 -0.2163 -0.2562
37020SOL    HW117023   7.295   0.226   3.804 -0.5967  1.0304 -0.6745
37020SOL    HW217024   7.369   0.196   3.932 -1.9804 -1.0429 -0.3177
37021SOL     OW17025   0.693  11.914   0.741 -0.6981  0.0936 -0.2619
37021SOL    HW117026   0.621  11.958   0.786 -0.9310 -1.2457  0.7304
37021SOL    HW217027   0.691  11.950   0.652 -2.6153  0.0619 -0.2723
37022SOL     OW17028   1.175   2.528   9.327 -0.1779  0.0809 -0.1152
37022SOL    HW117029   1.165   2.591   9.256 -0.6853  0.2383  0.0950
37022SOL    HW217030   1.267   2.500   9.322  0.4260  1.8094  0.6176
37023SOL     OW17031   7.209   1.547   7.999 -0.4037 -0.3957  0.0472
37023SOL    HW117032   7.274   1.611   8.030 -1.1368  1.4409 -1.9792
37023SOL    HW217033   7.229   1.468   8.049  2.1459  0.6618  0.9032
37024SOL     OW17034   6.856   3.920   9.459  0.0258 -0.3130 -0.1451
37024SOL    HW117035   6.901   3.871   9.389 -0.0889  0.3189 -0.6761
37024SOL    HW217036   6.868   4.012   9.434 -1.3021 -0.1223 -0.1347
37025SOL     OW17037   2.182   6.082   7.176 -0.4217  0.2988  0.1334
37025SOL    HW117038   2.139   6.070   7.091 -1.2935 -1.3885  0.7753
37025SOL    HW217039   2.186   5.995   7.214 -0.2639  1.0532  1.9491
37026SOL     OW17040   1.051   5.560   7.740 -0.0632 -0.4025 -0.5078
37026SOL    HW117041   1.106   5.483   7.724  2.2448  0.9799  0.3465
37026SOL    HW217042   0.996   5.566   7.662  2.7126 -0.5231 -2.6503
37027SOL     OW17043   1.725   0.507   0.253 -0.1323 -0.0520  0.1370
37027SOL    HW117044   1.755   0.417   0.250 -1.3096 -0.4373 -1.1743
37027SOL    HW217045   1.648   0.505   0.310 -0.1306  0.1357  0.1480
37028SOL     OW17046   0.250   5.464   0.236 -0.1130 -0.2547 -0.6378
37028SOL    HW117047   0.237   5.456   0.141  2.7837 -0.3180 -1.1187
37028SOL    HW217048   0.314   5.535   0.245  1.3408 -1.6904  1.0696
37029SOL     OW17049   8.887  10.604   5.013 -0.2172 -0.1969  0.3795
37029SOL    HW117050   8.922  10.628   4.927  2.5900  2.6914  2.0874
37029SOL    HW217051   8.954  10.546   5.051  0.3073  1.2524  1.7907
37030SOL     OW17052   5.482   4.404   2.735 -0.2604 -0.0740  0.0296
37030SOL    HW117053   5.446   4.345   2.668  0.5983  0.1103 -0.6101
37030SOL    HW217054   5.437   4.378   2.816 -2.3565  0.6125 -0.8388
37031SOL     OW17055   2.303   9.364   9.338  0.0992  0.1037 -0.3269
37031SOL    HW117056   2.311   9.268   9.343  1.8376  0.2768  1.1653
37031SOL    HW217057   2.268   9.380   9.251  1.1684 -1.8485 -1.1933
37032SOL     OW17058   5.244   9.340   5.490 -0.4292 -0.1477 -0.2874
37032SOL    HW117059   5.173   9.397   5.520  0.6907  0.9963  0.2550
37032SOL    HW217060   5.246   9.351   5.395 -0.8936 -0.0989 -0.2920
37033SOL     OW17061   4.670   5.934   0.350  0.2080  0.1319 -0.0162
37033SOL    HW117062   4.732   5.994   0.308 -0.2539 -0.2261 -1.2435
37033SOL    HW217063   4.593   5.936   0.294 -0.1320 -0.9614  0.3874
37034SOL     OW17064   2.581   6.559  11.782 -0.4606 -1.2077 -0.5397
37034SOL    HW117065   2.500   6.558  11.731 -0.9204 -1.8287  0.1913
37034SOL    HW217066   2.637   6.622  11.736 -1.9755  0.5399 -0.0830
37035SOL     OW17067   7.476   2.469   4.724 -0.5703 -0.4997  0.3545
37035SOL    HW117068   7.437   2.498   4.807 -1.4337 -0.8172  0.0744
37035SOL    HW217069   7.401   2.443   4.671  0.0471 -1.2788 -0.1511
37036SOL     OW17070  11.917   9.250   7.226 -0.0777 -0.1641 -0.2754
37036SOL    HW117071  12.012   9.249   7.222 -0.0672  0.7544 -0.4582
37036SOL    HW217072  11.890   9.307   7.154 -0.7588 -0.3917 -0.2086
37037SOL     OW17073   9.471   9.734  12.271 -0.1227 -0.4011  0.8548
37037SOL    HW117074   9.480   9.808  12.211  0.0583 -0.5202  0.7344
37037SOL    HW217075   9.417   9.671  12.223  0.8274 -0.9127  0.4109
37038SOL     OW17076   8.181   9.545  11.501  0.4469  0.2173  0.0596
37038SOL    HW117077   8.128   9.624  11.490  0.7986  0.4093 -0.3153
37038SOL    HW217078   8.174   9.500  11.417  1.8147  0.8437 -0.4258
37039SOL     OW17079   2.467   8.778   0.897  0.4888  0.2185 -0.1567
37039SOL    HW117080   2.436   8.792   0.808 -0.1300  0.8822  0.1502
37039SOL    HW217081   2.421   8.698   0.926  1.5028 -0.6146 -0.7811
37040SOL     OW17082   2.004  10.358   4.432  0.0519 -0.1791 -0.1884
37040SOL    HW117083   1.936  10.425   4.427  0.9613  0.7370 -0.6202
37040SOL    HW217084   2.073  10.397   4.485  0.4615 -0.8930 -0.1835
37041SOL     OW17085   1.023   0.535   3.817  0.1204  0.2554  0.0678
37041SOL    HW117086   1.081   0.541   3.892 -0.8776  0.1071  0.8689
37041SOL    HW217087   0.940   0.505   3.853 -1.2345  2.8863 -0.6375
37042SOL     OW17088   8.940   5.869   1.173 -0.1245  0.0763 -0.4180
37042SOL    HW117089   8.894   5.811   1.233  0.7288 -0.8461 -0.6371
37042SOL    HW217090   9.019   5.896   1.221 -0.1114  0.4188 -0.6235
37043SOL     OW17091  10.635   3.184   0.497  0.1537  0.2668 -0.1110
37043SOL    HW117092  10.694   3.211   0.568 -0.1831  0.1168  0.2320
37043SOL    HW217093  10.585   3.111   0.534  2.2750 -2.0729 -1.5935
37044SOL     OW17094   8.758   2.774   7.609  1.0534  0.0059  0.3979
37044SOL    HW117095   8.791   2.735   7.528  1.8156 -0.9425  1.1389
37044SOL    HW217096   8.716   2.702   7.655 -0.8966  0.9050  0.1078
37045SOL     OW17097  12.222   7.148  11.385  0.1278 -0.1513  0.1148
37045SOL    HW117098  12.241   7.212  11.453  2.4725 -0.8299  0.2034
37045SOL    HW217099  12.137   7.111  11.409  0.5251  0.1984  2.2419
37046SOL     OW17100   5.014   2.152   9.783  0.4607 -0.0191 -0.1749
37046SOL    HW117101   5.027   2.245   9.799 -1.3300  0.0767  0.9196
37046SOL    HW217102   5.068   2.108   9.849 -0.8343  0.3029  1.1384
37047SOL     OW17103   8.813   3.861   1.136  0.1458 -0.0477 -0.1795
37047SOL    HW117104   8.773   3.775   1.133 -0.4209  0.2318 -0.7299
37047SOL    HW217105   8.814   3.884   1.229  0.2392 -0.6125 -0.0388
37048SOL     OW17106   9.691  11.204   2.241  0.5116 -0.7022  1.0189
37048SOL    HW117107   9.670  11.111   2.230  0.8117 -0.5352 -1.6249
37048SOL    HW217108   9.653  11.246   2.164  0.1687  1.4318  2.2917
37049SOL     OW17109   3.238   1.270  12.012 -0.2715  0.0007  0.6219
37049SOL    HW117110   3.328   1.291  12.040  1.8154 -1.0974 -4.2130
37049SOL    HW217111   3.231   1.176  12.025 -0.6287  0.0341  0.6749
37050SOL     OW17112   0.762   0.767  10.151  0.0829  0.2223 -0.2514
37050SOL    HW117113   0.738   0.859  10.141  0.1935  0.3211  0.3244
37050SOL    HW217114   0.695   0.731  10.210 -0.8223 -0.4429 -1.6193
37051SOL     OW17115   1.610   1.387   6.201  0.1110  0.2861  0.1305
37051SOL    HW117116   1.532   1.405   6.253  0.6044 -2.0003  1.7813
37051SOL    HW217117   1.576   1.353   6.118 -0.6405  2.2444 -0.4256
37052SOL     OW17118   2.302   8.673   0.101  0.7528  0.3297 -0.4775
37052SOL    HW117119   2.299   8.769   0.100  0.4992  0.3255 -0.1220
37052SOL    HW217120   2.239   8.646   0.034 -0.1941  0.3915  0.3808
37053SOL     OW17121   4.504   7.648   4.439 -0.6279 -0.2561  0.4426
37053SOL    HW117122   4.494   7.606   4.354 -2.2585  1.0998 -0.0926
37053SOL    HW217123   4.545   7.732   4.419 -0.2883 -0.2602  1.0972
37054SOL     OW17124   5.056   0.806   7.803  0.4201 -0.0522  0.1211
37054SOL    HW117125   5.127   0.845   7.854  0.4973 -0.3849  0.2713
37054SOL    HW217126   5.073   0.712   7.806  0.8223 -0.0378 -1.1149
37055SOL     OW17127   8.394  10.010   3.704 -0.4079 -0.0162 -0.0350
37055SOL    HW117128   8.468  10.050   3.659 -0.2557  1.8864  1.7523
37055SOL    HW217129   8.325  10.076   3.700 -0.6595 -0.1306  1.7086
37056SOL     OW17130   2.827   2.867   0.803 -0.1885 -0.3919 -0.4754
37056SOL    HW117131   2.847   2.775   0.787 -0.5030 -0.7163  0.8719
37056SOL    HW217132   2.872   2.914   0.733 -0.3008 -1.5867 -1.3787
37057SOL     OW17133   3.197  10.542   7.207  0.4294 -0.5485  0.3900
37057SOL    HW117134   3.235  10.484   7.141  0.5933  0.1287 -0.1189
37057SOL    HW217135   3.273  10.583   7.249  0.2899  0.2184 -0.0954
37058SOL     OW17136   7.874   0.325   8.180 -0.1269  0.6852 -0.2498
37058SOL    HW117137   7.937   0.255   8.167  1.0012  1.5906  0.1506
37058SOL    HW217138   7.870   0.370   8.095 -0.0871  0.7320 -0.2279
37059SOL     OW17139   1.185   6.101  11.032 -0.3434 -0.2607  0.6265
37059SOL    HW117140   1.195   6.133  11.122 -1.6081  0.1434  0.6573
37059SOL    HW217141   1.092   6.114  11.013 -0.3131 -1.3465 -0.3699
37060SOL     OW17142   3.373   2.901   0.246  0.2885  0.3028  0.1752
37060SOL    HW117143   3.441   2.962   0.219  0.2812  0.8248  1.2607
37060SOL    HW217144   3.291   2.944   0.222  0.3016  0.4424  0.3758
37061SOL     OW17145   2.949   4.078   1.027  0.5415 -0.7449 -0.1086
37061SOL    HW117146   2.995   4.161   1.017 -0.7389 -0.1971 -1.9397
37061SOL    HW217147   2.929   4.073   1.121 -1.7436  2.4106 -0.2419
37062SOL     OW17148  10.226   5.044   4.509 -0.4549 -0.1376  0.0937
37062SOL    HW117149  10.273   5.082   4.435 -1.6904  0.1868 -0.5444
37062SOL    HW217150  10.169   4.978   4.470 -0.0088 -1.0673  0.9437
37063SOL     OW17151   2.827   9.411   2.177  0.1565 -0.5121  0.2927
37063SOL    HW117152   2.775   9.335   2.151 -2.9554  1.3906  0.3839
37063SOL    HW217153   2.842   9.460   2.096 -0.2344  0.1071  0.5863
37064SOL     OW17154  10.496   5.776   1.872  0.2497  0.2208 -0.0902
37064SOL    HW117155  10.475   5.798   1.963  2.3515 -0.5006  0.6126
37064SOL    HW217156  10.411   5.754   1.833 -0.5010 -1.2299  2.1822
37065SOL     OW17157   1.683  10.541   5.908  0.3446  0.0377  0.1928
37065SOL    HW117158   1.679  10.492   5.826  0.6621  0.8472 -0.3250
37065SOL    HW217159   1.621  10.496   5.966 -0.5482 -0.0314 -0.7809
37066SOL     OW17160   2.482   4.196   7.677 -0.3730  0.5390 -0.4273
37066SOL    HW117161   2.494   4.139   7.753  0.4518  0.4197 -0.6376
37066SOL    HW217162   2.443   4.139   7.610 -1.7536  0.8175  0.1215
37067SOL     OW17163   4.319   1.682   8.880 -0.0147 -0.5541 -0.5673
37067SOL    HW117164   4.366   1.723   8.808  0.4025 -0.0490 -0.0175
37067SOL    HW217165   4.371   1.703   8.958 -2.4627  2.3509  0.4907
37068SOL     OW17166  10.318  12.087  11.501  0.4027 -0.1531  0.6509
37068SOL    HW117167  10.363  12.114  11.421  0.5356  0.6035  0.9690
37068SOL    HW217168  10.230  12.124  11.493 -0.1439 -1.5048  0.0975
37069SOL     OW17169   0.636   9.411   4.481  0.1855  0.1835  0.4567
37069SOL    HW117170   0.613   9.493   4.437  0.8926  0.3823  0.4493
37069SOL    HW217171   0.554   9.382   4.521 -0.2616  0.4539 -0.2539
37070SOL     OW17172   7.739   6.989   1.509 -0.8656 -0.0353 -0.0978
37070SOL    HW117173   7.683   7.064   1.490  0.4354  0.8199 -0.6837
37070SOL    HW217174   7.817   7.002   1.454 -1.0990 -2.4336 -1.1358
37071SOL     OW17175   0.717   6.669   4.479  0.0067  0.4526 -0.4982
37071SOL    HW117176   0.678   6.647   4.395  1.9981  1.4563 -1.7601
37071SOL    HW217177   0.668   6.746   4.509  1.0271  1.8177 -2.1411
37072SOL     OW17178   7.946  11.238   5.253  0.4646 -0.2453 -1.0281
37072SOL    HW117179   7.969  11.330   5.262  0.6816 -0.3230 -0.7851
37072SOL    HW217180   7.872  11.237   5.191 -0.0683  0.1587 -0.4053
37073SOL     OW17181   8.673   5.163   2.024 -0.2580  0.2225 -0.1501
37073SOL    HW117182   8.757   5.139   1.985 -1.4402 -0.2321 -2.6615
37073SOL    HW217183   8.694   5.234   2.085  1.7556  1.3347 -1.9906
37074SOL     OW17184   2.377  12.422   3.166 -0.4681  0.1129 -0.4364
37074SOL    HW117185   2.386  12.333   3.132 -1.5084  0.4510 -1.6624
37074SOL    HW217186   2.378  12.478   3.089  2.4953  1.4319  0.4357
37075SOL     OW17187   7.521   7.177   6.335 -0.1647 -0.0763  0.1311
37075SOL    HW117188   7.539   7.140   6.249  0.5078 -0.7450  0.5432
37075SOL    HW217189   7.486   7.104   6.386 -1.9402  0.6554  0.0312
37076SOL     OW17190  10.769   6.842   2.728  0.5234  0.1707 -0.3936
37076SOL    HW117191  10.693   6.870   2.677 -0.0865 -0.8126 -0.0503
37076SOL    HW217192  10.808   6.771   2.677  1.4318  0.8890 -0.7355
37077SOL     OW17193  11.046   1.493   1.452  0.5679  0.0400 -0.8466
37077SOL    HW117194  11.083   1.505   1.364 -2.5932  0.6738 -2.2417
37077SOL    HW217195  10.956   1.525   1.444  0.3973  0.9736  2.9054
37078SOL     OW17196  10.910   1.463   8.731  0.3158  0.4090  0.9089
37078SOL    HW117197  10.866   1.429   8.654  1.4127 -1.8709  1.2175
37078SOL    HW217198  10.903   1.559   8.722  0.6531  0.2476 -2.1460
37079SOL     OW17199   2.791   3.695   7.358 -0.3394  0.3151 -0.1918
37079SOL    HW117200   2.756   3.736   7.437 -3.6072  0.5237 -1.5741
37079SOL    HW217201   2.806   3.768   7.298 -0.0935 -0.0110 -0.5288
37080SOL     OW17202   7.430   5.087   9.553  0.5789  0.0809  0.4477
37080SOL    HW117203   7.422   5.054   9.643  4.0208 -0.6222  0.6302
37080SOL    HW217204   7.455   5.010   9.502 -2.7379  0.1136 -1.5729
37081SOL     OW17205   5.784   7.857   3.246  0.2140 -0.3371 -0.1224
37081SOL    HW117206   5.825   7.883   3.328 -0.0256  0.4488 -0.2522
37081SOL    HW217207   5.840   7.786   3.213  1.7084  0.9590 -0.4877
37082SOL     OW17208   8.392   6.588   1.322 -0.6347  0.4338  0.1979
37082SOL    HW117209   8.373   6.547   1.406 -1.8389 -1.1261 -0.7817
37082SOL    HW217210   8.306   6.603   1.282 -0.0695  0.3059 -1.1328
37083SOL     OW17211   4.749   5.452   9.586  0.0362 -0.7293  0.1249
37083SOL    HW117212   4.665   5.497   9.578  0.5785  0.0067 -3.5048
37083SOL    HW217213   4.731   5.363   9.556  0.6230 -0.3236 -1.5663
37084SOL     OW17214   2.288   5.836   8.958  0.0665  0.1160 -0.8324
37084SOL    HW117215   2.205   5.790   8.947 -0.7587  0.6909  2.2438
37084SOL    HW217216   2.352   5.767   8.975 -0.8932 -0.1158  2.3169
37085SOL     OW17217   6.970  11.103   1.812 -0.1707 -0.4970 -0.6582
37085SOL    HW117218   6.913  11.112   1.735 -0.5975 -0.6313 -0.3653
37085SOL    HW217219   6.922  11.043   1.869 -0.6669  0.9008  0.4435
37086SOL     OW17220  11.106   1.410   2.417 -0.0172  0.3836 -0.7380
37086SOL    HW117221  11.020   1.443   2.392  0.8113  2.5908 -0.8555
37086SOL    HW217222  11.155   1.488   2.443  1.5765 -0.9664  0.4714
37087SOL     OW17223   9.264   6.917   0.547  0.3001 -0.1727 -0.5030
37087SOL    HW117224   9.302   6.980   0.608  0.7160 -0.9735  0.0807
37087SOL    HW217225   9.197   6.967   0.499 -1.8889 -0.0942  2.3582
37088SOL     OW17226   2.944   7.114   0.225  0.1567  0.9500  0.9569
37088SOL    HW117227   3.026   7.067   0.211  0.8421  2.1816  0.6897
37088SOL    HW217228   2.943   7.182   0.157 -1.7264  0.1383  0.1031
37089SOL     OW17229  11.142   9.807   8.508  0.0222  0.1519 -0.1838
37089SOL    HW117230  11.083   9.870   8.551 -2.4158 -0.3832 -2.4556
37089SOL    HW217231  11.218   9.859   8.483 -0.7881  1.6141  0.2302
37090SOL     OW17232   3.948   9.617   8.485 -0.1858 -1.2137 -0.2367
37090SOL    HW117233   3.911   9.540   8.528 -1.4334 -0.4331  0.1249
37090SOL    HW217234   4.027   9.636   8.536  0.5666 -2.6771 -0.7897
37091SOL     OW17235   8.835   1.685   6.903  0.6038  0.3504 -0.2093
37091SOL    HW117236   8.762   1.721   6.853  0.5994  1.3524  0.5053
37091SOL    HW217237   8.842   1.595   6.872 -1.8190 -0.2207  0.6755
37092SOL     OW17238   1.835   8.898   4.244 -0.1780  0.3080 -0.3342
37092SOL    HW117239   1.905   8.853   4.292  0.7443  1.5950 -0.4128
37092SOL    HW217240   1.790   8.949   4.311  1.4622  2.5490 -0.8272
37093SOL     OW17241   2.712   7.889  11.018  0.6071  0.0683  0.0211
37093SOL    HW117242   2.712   7.985  11.024  1.9781  0.0726  0.3390
37093SOL    HW217243   2.634   7.862  11.065  0.7627  0.9888  0.8493
37094SOL     OW17244  11.936   5.551   6.131 -0.4850 -0.1966 -0.2410
37094SOL    HW117245  11.906   5.462   6.152  0.6145 -0.8906 -1.4262
37094SOL    HW217246  11.867   5.587   6.075 -0.7936 -0.4284 -0.0073
37095SOL     OW17247   9.574   9.338   7.991 -0.2926  0.7435  0.0231
37095SOL    HW117248   9.538   9.294   7.914  0.4308  1.4991 -0.7630
37095SOL    HW217249   9.555   9.430   7.976  3.8965  1.5670 -1.6186
37096SOL     OW17250   9.511   5.065  10.306  0.7131 -0.0726  0.0615
37096SOL    HW117251   9.418   5.087  10.302  0.6437 -0.4579 -0.5144
37096SOL    HW217252   9.556   5.146  10.282  0.4873 -0.2878 -1.1181
37097SOL     OW17253  12.115   8.704   8.939  0.2602  0.3075  0.6366
37097SOL    HW117254  12.128   8.610   8.941  1.8004  0.4411 -0.7375
37097SOL    HW217255  12.021   8.716   8.950 -0.1753 -1.4750 -0.7726
37098SOL     OW17256  11.663  10.189   5.933 -0.0046  0.3260 -0.2734
37098SOL    HW117257  11.676  10.146   5.848  0.3936  2.1177 -1.1560
37098SOL    HW217258  11.683  10.281   5.917  0.9266  0.5768  1.9850
37099SOL     OW17259   5.721   3.705   8.834  0.0624  0.4743  0.3538
37099SOL    HW117260   5.671   3.738   8.759  1.2234  3.2215  0.6637
37099SOL    HW217261   5.659   3.703   8.906 -0.7087 -0.8157 -0.3072
37100SOL     OW17262   7.100   6.401   2.068 -0.1022  0.4597  0.7355
37100SOL    HW117263   7.031   6.360   2.015 -0.9885  1.2320  1.2698
37100SOL    HW217264   7.178   6.396   2.013 -0.2864 -1.4968  0.5918
37101SOL     OW17265  10.992  10.949   8.002 -0.3045 -0.0199  0.0354
37101SOL    HW117266  10.935  10.880   8.036  0.7591  0.2882  2.6281
37101SOL    HW217267  10.988  11.019   8.068  1.9743  0.5869 -0.3886
37102SOL     OW17268  12.469   9.181   5.841 -0.4704 -0.0578 -0.5325
37102SOL    HW117269  12.540   9.131   5.882  0.2444 -1.0839 -2.8829
37102SOL    HW217270  12.445   9.246   5.907  1.0766 -1.1520  1.2140
37103SOL     OW17271   6.222   2.799   2.246  0.3004 -0.0067 -0.4736
37103SOL    HW117272   6.316   2.817   2.253  0.2206  0.5832 -0.8176
37103SOL    HW217273   6.180   2.881   2.274 -0.1275 -0.4963  0.3789
37104SOL     OW17274   3.270   7.690  11.009  0.0127  0.1090 -0.1701
37104SOL    HW117275   3.178   7.717  10.997 -0.6142 -1.9941 -0.4955
37104SOL    HW217276   3.321   7.768  10.986 -1.6843  1.4649  0.4131
37105SOL     OW17277   4.975  11.694   8.757  0.3216 -0.0210  0.2265
37105SOL    HW117278   4.885  11.726   8.768  0.3088 -0.2004  0.6814
37105SOL    HW217279   4.983  11.624   8.822  0.4641 -0.7143 -0.5318
37106SOL     OW17280  10.491   9.449  10.886 -0.0831 -0.1397  0.2944
37106SOL    HW117281  10.567   9.474  10.938 -1.1007 -1.7332  2.7974
37106SOL    HW217282  10.467   9.527  10.837  1.5226  1.2313  1.5909
37107SOL     OW17283   9.932   0.026   0.231 -0.3613  0.2570 -0.0163
37107SOL    HW117284  10.017   0.002   0.268 -0.6782 -2.1008 -0.6899
37107SOL    HW217285   9.870   0.007   0.301 -0.4614  0.8996  0.0748
37108SOL     OW17286  11.080   8.685   3.679 -0.7609  0.0123  0.3976
37108SOL    HW117287  11.110   8.775   3.671 -2.0606  0.4239 -0.1030
37108SOL    HW217288  11.158   8.635   3.702  0.5561  0.8454 -1.8943
37109SOL     OW17289   9.446   2.170   7.746  0.2100 -0.0220 -0.2258
37109SOL    HW117290   9.364   2.207   7.713  0.0947 -0.3813 -0.3433
37109SOL    HW217291   9.508   2.243   7.744 -0.4542  0.6143  1.1180
37110SOL     OW17292   9.297   9.502   2.780  0.2777  0.1263 -0.0029
37110SOL    HW117293   9.290   9.519   2.874 -0.1258  1.8317 -0.3060
37110SOL    HW217294   9.381   9.457   2.770  0.5371  0.3154  1.1276
37111SOL     OW17295   1.774  12.304  11.557  0.1409  0.8013  0.4339
37111SOL    HW117296   1.803  12.385  11.516  0.3243  0.7163  0.3977
37111SOL    HW217297   1.700  12.330  11.612  0.1556  0.9814  0.3668
37112SOL     OW17298  12.169   4.829   9.039  0.9162 -0.0574 -0.9687
37112SOL    HW117299  12.175   4.921   9.066 -1.8493 -0.3183  0.8979
37112SOL    HW217300  12.168   4.832   8.943 -2.1501  2.2242 -1.0113
37113SOL     OW17301  11.356   7.772   0.566 -0.3222  0.7015  0.1718
37113SOL    HW117302  11.283   7.762   0.505  1.5718 -0.9294 -2.0017
37113SOL    HW217303  11.419   7.827   0.519  0.5541  0.7025  1.3145
37114SOL     OW17304   8.377   9.367   0.263 -0.2949  0.2555  0.2141
37114SOL    HW117305   8.442   9.399   0.326  0.4847 -0.1472 -0.3759
37114SOL    HW217306   8.407   9.279   0.239 -1.7344 -0.4649  0.8741
37115SOL     OW17307  11.423   4.315  10.754  0.0726 -0.6326 -0.6351
37115SOL    HW117308  11.459   4.302  10.666  2.5332  1.2824 -0.0258
37115SOL    HW217309  11.449   4.238  10.803  1.9914 -0.0432 -0.6615
37116SOL     OW17310   0.125   6.251   1.164  0.0048  0.0941 -0.0827
37116SOL    HW117311   0.176   6.213   1.235  1.0146 -0.3289 -0.9990
37116SOL    HW217312   0.160   6.340   1.154  1.6343 -0.6606 -1.6473
37117SOL     OW17313   0.784   8.258   8.697  0.2254 -0.3427 -0.3110
37117SOL    HW117314   0.763   8.238   8.788  1.5541  2.2679  0.6659
37117SOL    HW217315   0.758   8.180   8.648  0.3097 -2.1837  2.4068
37118SOL     OW17316   4.256   6.402   6.776  0.7717  0.5234 -0.3570
37118SOL    HW117317   4.318   6.471   6.797  0.4653  0.3666  1.1991
37118SOL    HW217318   4.304   6.321   6.790  0.5348  0.4112 -0.1860
37119SOL     OW17319   8.757   9.803   3.635 -0.2036  0.2277 -0.3035
37119SOL    HW117320   8.720   9.856   3.564  0.7853  1.3922  0.0179
37119SOL    HW217321   8.774   9.866   3.705 -0.9516 -0.8596  0.9134
37120SOL     OW17322   6.705   1.239   1.692 -0.3864 -0.0226  0.5558
37120SOL    HW117323   6.647   1.190   1.635  0.7701 -1.1295  0.2701
37120SOL    HW217324   6.728   1.178   1.762  0.7373  0.2288  0.4366
37121SOL     OW17325  11.111   8.570   4.787 -0.1838 -0.5671  0.8604
37121SOL    HW117326  11.023   8.603   4.769 -0.9218 -3.0731 -0.4937
37121SOL    HW217327  11.159   8.581   4.705  1.2921  1.9160  1.9040
37122SOL     OW17328   8.645   6.924  11.651  0.4930  0.1413  0.3422
37122SOL    HW117329   8.555   6.912  11.681 -0.0034  0.1445 -1.0765
37122SOL    HW217330   8.696   6.862  11.702 -0.2534  0.3475  1.3823
37123SOL     OW17331   7.603  11.598  11.864  0.7684  0.3449 -0.2116
37123SOL    HW117332   7.673  11.662  11.873  1.5261 -0.5518  0.4775
37123SOL    HW217333   7.640  11.516  11.897 -0.8959  0.0441  1.0886
37124SOL     OW17334   7.040   1.068   4.872  0.2272  0.4838  0.6051
37124SOL    HW117335   7.086   1.015   4.807  0.6685  0.7984  0.6524
37124SOL    HW217336   6.949   1.069   4.843  0.5207  1.0857 -0.3247
37125SOL     OW17337   8.681  10.408  11.807  0.3063  0.2704  0.4493
37125SOL    HW117338   8.668  10.321  11.769  0.6718  0.2488  0.3703
37125SOL    HW217339   8.670  10.396  11.901 -3.5573  0.8403  0.2162
37126SOL     OW17340   3.059   3.266   5.981 -0.7174  0.5222 -0.3329
37126SOL    HW117341   3.075   3.197   6.045  0.2630 -0.4656 -1.5917
37126SOL    HW217342   3.117   3.337   6.007 -1.7106  0.9140  0.9532
37127SOL     OW17343   9.913  11.641   0.354 -0.2153 -0.4119  0.0027
37127SOL    HW117344   9.971  11.565   0.347 -1.1036 -1.3450  2.0956
37127SOL    HW217345   9.852  11.631   0.281  2.0147  0.4771 -2.1257
37128SOL     OW17346  12.402   6.891   4.728  0.0766 -0.3443 -0.2407
37128SOL    HW117347  12.317   6.859   4.758  0.2433 -1.1312 -0.5622
37128SOL    HW217348  12.462   6.872   4.800 -0.1554  0.9357  0.3071
37129SOL     OW17349   0.415   0.658   4.171  0.4656  0.4797  0.1031
37129SOL    HW117350   0.489   0.597   4.171  1.2566  1.4171  0.5613
37129SOL    HW217351   0.343   0.608   4.209  1.0037 -0.2835  0.1409
37130SOL     OW17352  11.610   8.306   4.380  0.1557  0.0028  0.4310
37130SOL    HW117353  11.629   8.398   4.361 -0.5481  0.0144 -0.2426
37130SOL    HW217354  11.576   8.271   4.298 -0.1560 -0.7049  0.8567
37131SOL     OW17355   4.750  11.744   9.158  0.3700  0.4493 -0.2844
37131SOL    HW117356   4.746  11.807   9.230 -1.5964 -0.5641  0.5545
37131SOL    HW217357   4.698  11.783   9.089 -2.9986 -1.1722  1.1123
37132SOL     OW17358   5.441   4.248   9.071 -0.7588 -0.2093 -0.1544
37132SOL    HW117359   5.535   4.268   9.070 -0.6193 -0.7847 -2.2068
37132SOL    HW217360   5.399   4.332   9.051 -0.5886 -0.2790 -0.8261
37133SOL     OW17361   1.386   5.665   1.559  0.2079  0.2440 -0.5135
37133SOL    HW117362   1.472   5.652   1.518 -0.7400 -1.8947 -2.0340
37133SOL    HW217363   1.334   5.708   1.491 -0.1994  0.6620  0.0530
37134SOL     OW17364  10.447   3.049   8.324 -0.3783  0.4250  0.1474
37134SOL    HW117365  10.361   3.048   8.365 -0.1143  2.3117  0.8468
37134SOL    HW217366  10.496   3.116   8.372  0.8175  0.8359 -1.5435
37135SOL     OW17367  10.048   3.680   7.693 -0.0086  0.2584 -0.7159
37135SOL    HW117368  10.021   3.676   7.601  0.5325 -0.6311 -0.8432
37135SOL    HW217369   9.966   3.680   7.742 -0.2927  0.4348 -1.1816
37136SOL     OW17370  12.085   2.390   4.064 -0.5662  0.1277  0.3119
37136SOL    HW117371  12.017   2.456   4.049 -0.6499 -0.0829 -0.2654
37136SOL    HW217372  12.148   2.404   3.993 -0.5252 -0.3411  0.2527
37137SOL     OW17373   7.080  12.382   5.814  0.1591 -0.3987 -0.1137
37137SOL    HW117374   7.148  12.447   5.798 -0.3821 -0.1132 -1.4022
37137SOL    HW217375   7.090  12.359   5.906  1.3755  0.3383 -0.0355
37138SOL     OW17376   8.006  11.916  12.032 -0.4268  0.4116  0.3515
37138SOL    HW117377   7.928  11.892  11.983 -0.9267  1.2263  0.7217
37138SOL    HW217378   7.975  11.978  12.098  0.4284  0.2551  0.9194
37139SOL     OW17379   0.811   4.265   6.442  0.7571  0.1375  0.3705
37139SOL    HW117380   0.738   4.317   6.410  0.4535 -0.5066  0.0028
37139SOL    HW217381   0.824   4.198   6.376  3.1902  1.5912 -0.7701
37140SOL     OW17382   5.118   6.666   5.495  0.7672 -0.1355  0.4352
37140SOL    HW117383   5.213   6.658   5.498  0.7738 -0.6962 -0.7484
37140SOL    HW217384   5.087   6.613   5.568  1.3590  0.2676  0.9944
37141SOL     OW17385   2.244  11.732   5.730  0.7848  0.4536  0.8139
37141SOL    HW117386   2.290  11.757   5.650  0.3736  1.2015  0.8074
37141SOL    HW217387   2.164  11.785   5.730 -1.1313 -2.2025 -0.2130
37142SOL     OW17388  12.251   1.277   3.401 -0.1337  0.9411 -0.4593
37142SOL    HW117389  12.208   1.263   3.485 -0.5769 -0.4896 -0.8978
37142SOL    HW217390  12.345   1.274   3.422 -0.1591 -1.8186 -0.2716
37143SOL     OW17391  10.725  10.965  11.907  0.1412  0.6333  0.0831
37143SOL    HW117392  10.660  10.895  11.908  0.1077  0.6619 -0.1897
37143SOL    HW217393  10.676  11.045  11.928  0.0064  0.7246 -0.5697
37144SOL     OW17394   5.271   7.715   8.787  0.1593 -0.1766 -0.4434
37144SOL    HW117395   5.236   7.735   8.701  1.4750  1.6926 -0.6036
37144SOL    HW217396   5.213   7.759   8.848  0.5438  0.4690 -0.5347
37145SOL     OW17397   1.615   6.671   4.745  0.0947  0.0183  0.3617
37145SOL    HW117398   1.531   6.717   4.754 -0.2875 -0.9280  2.0396
37145SOL    HW217399   1.591   6.580   4.731  0.8653 -0.0337 -0.8094
37146SOL     OW17400   0.347   9.586   3.310 -0.1859 -0.5176  0.1894
37146SOL    HW117401   0.393   9.528   3.371  1.0032 -0.2241 -0.3891
37146SOL    HW217402   0.394   9.575   3.227 -0.2994  0.8466 -0.0707
37147SOL     OW17403   7.628   8.531  10.410 -0.1986 -0.6364 -0.1037
37147SOL    HW117404   7.563   8.468  10.379 -1.1060  0.5881 -0.7659
37147SOL    HW217405   7.710   8.500  10.373 -0.3137 -2.3719  0.9760
37148SOL     OW17406   1.093   9.062   7.182 -0.3665 -0.0078  0.4658
37148SOL    HW117407   1.164   9.098   7.235  0.4228 -0.3439 -0.3225
37148SOL    HW217408   1.064   8.983   7.229  1.0705 -0.9254 -0.1182
37149SOL     OW17409  10.813   8.850  11.744 -0.0823 -0.2551  0.2563
37149SOL    HW117410  10.864   8.870  11.822 -0.0100 -1.4228  0.5309
37149SOL    HW217411  10.722   8.861  11.770 -0.0335 -0.0285  0.3260
37150SOL     OW17412   6.412   3.721   3.136  0.1219  0.4068  0.6913
37150SOL    HW117413   6.465   3.774   3.076 -1.3345 -0.3634 -1.4006
37150SOL    HW217414   6.328   3.766   3.141 -0.4623 -0.6190  0.4823
37151SOL     OW17415   9.055   5.632   4.225  0.0703 -0.0796 -0.1194
37151SOL    HW117416   9.100   5.699   4.174 -0.8087 -0.3368 -1.2769
37151SOL    HW217417   9.032   5.565   4.161  1.2942 -1.7264  1.0680
37152SOL     OW17418   2.491   1.931   6.380 -0.7778  0.3775 -0.1703
37152SOL    HW117419   2.418   1.871   6.364  0.0465 -0.9704  0.8682
37152SOL    HW217420   2.568   1.883   6.351 -0.0908  0.9101  0.7334
37153SOL     OW17421   8.975   1.394   5.493 -0.1748  0.2001  0.3894
37153SOL    HW117422   9.009   1.449   5.564 -0.3226  0.6724  0.0929
37153SOL    HW217423   9.041   1.326   5.482  0.7364  1.1507 -0.2366
37154SOL     OW17424   1.313   0.604   5.223 -0.0208 -0.2343 -0.3550
37154SOL    HW117425   1.250   0.653   5.275 -0.9026 -0.7879 -0.8657
37154SOL    HW217426   1.395   0.652   5.232 -0.7178  1.0060 -0.3818
37155SOL     OW17427   0.171   9.606   7.520  0.3106 -0.0152  0.2945
37155SOL    HW117428   0.097   9.637   7.468 -0.6170  1.8319  2.5980
37155SOL    HW217429   0.236   9.676   7.514 -0.1348  0.6081  2.2159
37156SOL     OW17430   9.084   3.751   6.228 -0.7040  0.1049 -0.0139
37156SOL    HW117431   9.049   3.734   6.316  2.1233 -0.5403  1.0864
37156SOL    HW217432   9.171   3.787   6.242  0.9149 -2.3372 -2.4605
37157SOL     OW17433   8.350   0.356  10.040  0.4602  0.1758  0.2974
37157SOL    HW117434   8.423   0.296  10.058 -0.2358 -1.1300 -1.0103
37157SOL    HW217435   8.323   0.387  10.126  1.4180 -0.6942  0.9424
37158SOL     OW17436   6.590   8.568  10.214  0.3481 -0.0650 -0.2666
37158SOL    HW117437   6.600   8.656  10.250 -0.2097 -0.1168  0.0292
37158SOL    HW217438   6.572   8.582  10.122  0.6972  0.1117 -0.3111
37159SOL     OW17439   6.840   6.621   9.805  0.3221  0.1512 -0.8661
37159SOL    HW117440   6.808   6.577   9.884 -0.2853 -1.3358 -1.8929
37159SOL    HW217441   6.935   6.616   9.810  0.2688 -0.6592 -0.6155
37160SOL     OW17442   7.827  11.661   2.021 -0.0042 -0.6242 -0.0653
37160SOL    HW117443   7.785  11.623   1.945 -0.0309 -0.8793  0.0769
37160SOL    HW217444   7.913  11.689   1.990 -0.6494  0.8606 -0.6235
37161SOL     OW17445  10.840   4.820   7.760 -0.5684 -0.6952  0.8415
37161SOL    HW117446  10.787   4.848   7.685 -0.4744  1.1164  1.4161
37161SOL    HW217447  10.904   4.759   7.722 -0.5445  0.1583 -0.5621
37162SOL     OW17448   5.260   2.949  11.226 -0.2553  0.1256  0.2036
37162SOL    HW117449   5.274   2.871  11.279 -0.0195  0.5999  0.8447
37162SOL    HW217450   5.328   3.010  11.253 -1.1012  0.9671  0.5009
37163SOL     OW17451  12.038   3.356   6.228  0.3651  0.3360  0.0259
37163SOL    HW117452  11.947   3.371   6.204  0.3725 -0.6924 -0.7279
37163SOL    HW217453  12.035   3.310   6.311  0.2388  1.2572  0.5402
37164SOL     OW17454   7.582   7.665   2.810  0.4927 -0.5012 -0.0025
37164SOL    HW117455   7.546   7.585   2.770  0.0687  0.3090 -1.3158
37164SOL    HW217456   7.509   7.702   2.859 -0.5157  0.9883 -2.4296
37165SOL     OW17457   1.039   8.315   6.111 -0.0957  0.1094  0.3901
37165SOL    HW117458   1.088   8.250   6.162 -0.0010  0.3716  0.6308
37165SOL    HW217459   1.089   8.324   6.030 -2.2366 -3.2529 -1.5953
37166SOL     OW17460   3.561   6.068   0.423  0.2343 -0.2946  0.3423
37166SOL    HW117461   3.550   6.109   0.509  0.0121 -3.5670  2.0304
37166SOL    HW217462   3.472   6.064   0.387 -0.0237 -0.9228  1.0186
37167SOL     OW17463   1.274   3.712   8.331  0.2341 -0.8503 -0.1068
37167SOL    HW117464   1.235   3.647   8.273 -1.3252  2.1618 -2.7979
37167SOL    HW217465   1.368   3.696   8.326 -0.1103 -3.0631 -0.3457
37168SOL     OW17466  10.632  11.608   9.715 -0.1126  0.0022  0.3348
37168SOL    HW117467  10.604  11.590   9.805 -2.0599 -0.9808 -0.4098
37168SOL    HW217468  10.672  11.695   9.719  1.1750 -0.6165  2.3862
37169SOL     OW17469   5.695  12.336   4.873  0.2364 -0.2327  0.4718
37169SOL    HW117470   5.751  12.258   4.866 -1.2924 -1.4862  1.3826
37169SOL    HW217471   5.711  12.369   4.961 -0.9832 -1.0795  1.0433
37170SOL     OW17472   7.090   8.630   4.297 -0.1943  0.0503 -0.3812
37170SOL    HW117473   7.040   8.708   4.321  1.5201  0.6209  1.6286
37170SOL    HW217474   7.077   8.621   4.203  0.6046  3.5811 -0.9660
37171SOL     OW17475   3.610   0.305   1.452  0.2610 -0.4087 -0.5537
37171SOL    HW117476   3.577   0.387   1.416 -1.0713 -0.0762  1.2682
37171SOL    HW217477   3.670   0.332   1.522  0.9953 -1.0135 -0.9374
37172SOL     OW17478   0.603   4.580  11.803 -0.4559  0.2007 -0.6025
37172SOL    HW117479   0.674   4.565  11.866 -1.1113  0.0561  0.1226
37172SOL    HW217480   0.606   4.674  11.785 -1.3249  0.5719  0.9879
37173SOL     OW17481   3.468   2.250  11.248 -0.0877 -0.1789  0.2011
37173SOL    HW117482   3.542   2.307  11.226 -1.4566  1.3324 -0.7165
37173SOL    HW217483   3.488   2.167  11.203  0.7434  0.4047 -0.5541
37174SOL     OW17484   5.270   3.604   4.474  0.0403 -0.7145  0.4012
37174SOL    HW117485   5.352   3.602   4.425  0.0258 -0.7294  0.3777
37174SOL    HW217486   5.296   3.619   4.565  0.1442 -1.7523  0.5548
37175SOL     OW17487   5.726  10.925  10.837  0.1006 -0.3755  0.3535
37175SOL    HW117488   5.739  10.971  10.920 -1.8323 -0.3805  0.7061
37175SOL    HW217489   5.654  10.972  10.795 -0.0189 -1.3593 -0.5721
37176SOL     OW17490  11.099   6.910  10.999  0.0408  0.1365 -0.2975
37176SOL    HW117491  11.083   6.978  11.065 -2.1152 -0.5630 -0.0107
37176SOL    HW217492  11.084   6.828  11.045 -1.6813 -0.3642 -1.6600
37177SOL     OW17493   5.362   8.728   4.428 -0.5747  0.0181  0.0591
37177SOL    HW117494   5.411   8.651   4.455 -0.1355  0.0024 -0.7592
37177SOL    HW217495   5.325   8.705   4.343 -0.8313  0.5462  0.0230
37178SOL     OW17496   7.996  10.263   3.509  0.2668 -0.1138 -0.0335
37178SOL    HW117497   8.021  10.350   3.477  0.4961 -0.0253  0.3861
37178SOL    HW217498   7.978  10.276   3.602 -2.1554  0.0179 -0.4451
37179SOL     OW17499   0.610   0.299   9.713 -0.1366  0.1425 -0.0692
37179SOL    HW117500   0.680   0.364   9.719  0.3465 -0.3906  0.1185
37179SOL    HW217501   0.530   0.351   9.706  0.3572  0.7637 -1.4788
37180SOL     OW17502   8.330   4.472   3.546 -0.6850 -0.1072  0.3482
37180SOL    HW117503   8.389   4.527   3.493 -3.2250  0.8353 -1.7592
37180SOL    HW217504   8.324   4.519   3.629  1.0834  0.0348  0.4499
37181SOL     OW17505  12.303  10.911   9.113  0.4847  0.0227  0.5717
37181SOL    HW117506  12.299  10.850   9.039 -0.2437 -0.1215  0.7163
37181SOL    HW217507  12.233  10.974   9.096 -0.3311 -0.5637  1.5913
37182SOL     OW17508   0.521   3.326  11.081  0.1726 -0.5474 -0.4044
37182SOL    HW117509   0.455   3.297  11.018 -1.9361 -0.2894  1.5546
37182SOL    HW217510   0.523   3.422  11.072 -1.2428 -0.3735  0.9077
37183SOL     OW17511  10.917   5.667   7.053 -0.1824 -0.4118 -0.4887
37183SOL    HW117512  10.948   5.644   7.140  1.4121  2.6886 -0.1130
37183SOL    HW217513  10.844   5.727   7.068  0.5427  0.6991 -1.2286
37184SOL     OW17514   5.091   7.062   7.535  0.1129  0.3997 -0.3789
37184SOL    HW117515   5.024   7.115   7.492 -0.4797 -1.0712 -1.3452
37184SOL    HW217516   5.126   7.006   7.465  1.2322  0.0211  0.4483
37185SOL     OW17517   4.266   4.286   7.235 -0.0577  0.0983 -0.2101
37185SOL    HW117518   4.269   4.196   7.269  0.0952  0.1455 -0.0986
37185SOL    HW217519   4.326   4.335   7.290  0.9543 -0.0352 -1.1588
37186SOL     OW17520   3.736   7.861  12.421  0.1598  0.3181  0.1544
37186SOL    HW117521   3.816   7.911  12.402 -0.2580  0.5618 -1.0396
37186SOL    HW217522   3.724   7.806  12.343 -0.7248  0.1446  0.4095
37187SOL     OW17523   2.823   1.114   9.176 -0.0477  0.1883 -0.0570
37187SOL    HW117524   2.799   1.123   9.084 -0.3065  2.9205  0.2103
37187SOL    HW217525   2.917   1.133   9.178  0.1380 -0.7074  0.1614
37188SOL     OW17526   9.075   4.528   9.660  0.1184  0.0156  0.4212
37188SOL    HW117527   9.118   4.612   9.646 -0.3341  0.4108  1.3390
37188SOL    HW217528   9.027   4.538   9.742 -2.5162 -0.0415 -0.9892
37189SOL     OW17529   1.147   5.801   1.722  0.4185  0.2124 -0.5921
37189SOL    HW117530   1.217   5.798   1.788  2.3789 -1.7732 -2.5524
37189SOL    HW217531   1.138   5.893   1.701  0.9964  0.7108  1.1927
37190SOL     OW17532   2.685   0.127   6.274 -0.5525 -0.2090 -0.1467
37190SOL    HW117533   2.770   0.169   6.288 -0.3029 -0.9391  0.6837
37190SOL    HW217534   2.625   0.176   6.329 -0.5439 -0.0571 -0.2743
37191SOL     OW17535  10.849   9.031   0.046  0.0928 -0.1597  0.1925
37191SOL    HW117536  10.773   8.973   0.044 -0.2274  0.2713 -0.6327
37191SOL    HW217537  10.873   9.036   0.139 -0.7934 -0.4181  0.4451
37192SOL     OW17538   4.752   1.815   0.263  0.1115  0.0783 -0.1828
37192SOL    HW117539   4.797   1.779   0.186  0.7448  1.0393 -0.2847
37192SOL    HW217540   4.794   1.900   0.278 -0.9352  0.5190  0.3986
37193SOL     OW17541  11.882   1.263   8.400  0.4295  0.2492 -0.2674
37193SOL    HW117542  11.893   1.356   8.382  0.6091  0.1747 -0.5485
37193SOL    HW217543  11.941   1.219   8.338  1.9755  0.0306  1.2976
37194SOL     OW17544   5.621   1.783   4.469  0.6473 -0.6638  0.4470
37194SOL    HW117545   5.636   1.695   4.503  0.3358 -1.4632 -1.3848
37194SOL    HW217546   5.699   1.802   4.417  0.7081  0.1481  0.8172
37195SOL     OW17547   8.352  10.103   9.702 -0.1256  0.1145  0.2758
37195SOL    HW117548   8.446  10.098   9.721 -0.0079  0.5834 -0.1529
37195SOL    HW217549   8.312  10.125   9.786  0.2618  0.9524  0.2524
37196SOL     OW17550   8.406  10.613   4.120  0.0483  0.4533 -0.0517
37196SOL    HW117551   8.328  10.604   4.174  0.3558  2.0157  0.7353
37196SOL    HW217552   8.444  10.525   4.116 -2.2495 -0.5560 -1.2938
37197SOL     OW17553  10.633   5.477   4.304 -0.0700  0.2278  0.0651
37197SOL    HW117554  10.584   5.419   4.246 -0.8856 -0.0953  1.0399
37197SOL    HW217555  10.614   5.444   4.392  2.4524 -0.3331  0.4768
37198SOL     OW17556  12.221   9.373   8.213  0.2079  0.3106  0.2534
37198SOL    HW117557  12.236   9.467   8.221  0.9453  0.0746  2.1355
37198SOL    HW217558  12.126   9.363   8.217  0.1857  0.8825  1.4649
37199SOL     OW17559   2.146   4.761   1.253  0.6665 -0.1421 -0.2737
37199SOL    HW117560   2.165   4.680   1.206  1.3900 -0.6363  0.8062
37199SOL    HW217561   2.233   4.798   1.273  0.3772  0.1797  0.4367
37200SOL     OW17562   1.358  11.478   8.713  0.4026  0.9438  0.7856
37200SOL    HW117563   1.269  11.505   8.735  0.8080  2.0332  1.1632
37200SOL    HW217564   1.379  11.411   8.777  0.5481  2.0883  1.9821
37201SOL     OW17565   1.693   7.221  11.232  0.6665 -0.6260  0.4634
37201SOL    HW117566   1.734   7.241  11.147 -0.3056  1.0131  0.3342
37201SOL    HW217567   1.649   7.138  11.218 -1.9772  0.9615 -1.6630
37202SOL     OW17568   5.177   0.000   8.001 -0.1302 -0.1353 -0.1268
37202SOL    HW117569   5.105   0.052   7.964  0.5624  2.1266  1.5094
37202SOL    HW217570   5.252   0.021   7.945 -0.2990 -1.0813 -0.7344
37203SOL     OW17571   9.433   2.263   7.430  0.2264  0.3882  0.1877
37203SOL    HW117572   9.513   2.225   7.466  2.0979  3.0978 -0.7547
37203SOL    HW217573   9.461   2.304   7.348 -2.1398  1.4260 -0.1865
37204SOL     OW17574   1.861   8.447  10.143  0.4575 -0.0643 -0.2824
37204SOL    HW117575   1.800   8.454  10.070 -1.8586  1.1916  1.6367
37204SOL    HW217576   1.862   8.353  10.165  0.7633 -0.3685 -1.5392
37205SOL     OW17577   6.718   0.198  11.698 -0.5464  0.0902  0.5052
37205SOL    HW117578   6.657   0.162  11.634 -1.7357  1.9040  0.5621
37205SOL    HW217579   6.670   0.196  11.781 -0.8703  2.1947  0.4212
37206SOL     OW17580   2.317   1.276   2.778 -0.0336  0.2097 -0.0943
37206SOL    HW117581   2.379   1.325   2.833 -1.0302  2.5858 -0.9393
37206SOL    HW217582   2.234   1.323   2.788 -1.0764 -1.3689 -0.9761
37207SOL     OW17583  10.343  11.325   0.700  0.2378  0.4807 -0.3524
37207SOL    HW117584  10.313  11.311   0.790 -0.9868  0.9704 -0.6652
37207SOL    HW217585  10.391  11.244   0.678  1.8590  0.9441  1.2159
37208SOL     OW17586   8.689   5.803  11.047  0.0716 -0.1850  0.3209
37208SOL    HW117587   8.632   5.820  11.123 -0.1762 -0.6285  0.2379
37208SOL    HW217588   8.718   5.712  11.059  0.7426  0.0291  0.3453
37209SOL     OW17589   5.214   9.130  11.942  0.4940 -0.2002  0.1525
37209SOL    HW117590   5.217   9.066  12.012  1.8872 -1.0073 -0.6069
37209SOL    HW217591   5.205   9.214  11.987  0.6873 -0.7476  1.2558
37210SOL     OW17592   1.687  11.706   2.898  0.2857  0.3267  0.0682
37210SOL    HW117593   1.655  11.788   2.936 -1.2712 -0.0043 -0.4712
37210SOL    HW217594   1.763  11.683   2.952 -0.1104  1.3770  1.1254
37211SOL     OW17595   8.607   7.792   4.992  0.2483 -0.5105  0.2373
37211SOL    HW117596   8.543   7.770   4.925  0.6216 -0.4763 -0.1348
37211SOL    HW217597   8.624   7.885   4.980 -1.0242 -0.0674  1.5532
37212SOL     OW17598   8.993   1.929   4.570 -0.5851 -0.0234 -0.2296
37212SOL    HW117599   8.959   1.943   4.481 -0.3078 -0.6457 -0.4372
37212SOL    HW217600   8.978   1.836   4.587 -1.0814  0.1957  0.5683
37213SOL     OW17601  11.441   0.114   7.576  0.2548 -0.5720  0.6147
37213SOL    HW117602  11.496   0.160   7.638 -1.8256 -0.4739  2.5086
37213SOL    HW217603  11.401   0.183   7.523  0.9638 -0.5725  0.0590
37214SOL     OW17604   2.968   1.004   7.211  0.7344  0.1542 -0.1320
37214SOL    HW117605   2.927   1.089   7.226  1.8344  0.8769 -1.0065
37214SOL    HW217606   2.901   0.940   7.236 -0.2543  1.2686  0.1775
37215SOL     OW17607   0.779   7.575   4.530 -0.0406 -0.5608  0.0753
37215SOL    HW117608   0.870   7.572   4.561 -0.1122 -2.0358  0.2146
37215SOL    HW217609   0.743   7.655   4.568  1.0336 -0.2692  0.5000
37216SOL     OW17610   0.417   8.259   3.273 -0.0198 -0.2675 -0.0127
37216SOL    HW117611   0.425   8.164   3.267  0.9956 -0.1018 -2.5713
37216SOL    HW217612   0.336   8.273   3.322 -1.1153 -2.4997 -1.0252
37217SOL     OW17613  11.774   7.562   4.847 -0.0471 -0.4228 -0.7046
37217SOL    HW117614  11.805   7.514   4.770 -1.6385  0.0188 -1.6795
37217SOL    HW217615  11.780   7.499   4.919 -1.1602 -1.8017 -1.7584
37218SOL     OW17616   9.070   2.193   8.868  0.1167  0.2978  0.4774
37218SOL    HW117617   8.998   2.197   8.805  0.9575  0.1629 -0.5145
37218SOL    HW217618   9.146   2.225   8.820  1.5397 -2.9341  0.3407
37219SOL     OW17619  10.523   9.096   0.094 -0.2513  0.1254  0.1154
37219SOL    HW117620  10.567   9.019   0.056 -1.5772 -0.1559 -0.9325
37219SOL    HW217621  10.587   9.132   0.155  0.2605 -2.0489  0.9500
37220SOL     OW17622   3.996   1.807   4.119 -0.3163  0.4965  0.1459
37220SOL    HW117623   4.066   1.868   4.094 -0.2019  0.7170  0.9884
37220SOL    HW217624   4.013   1.787   4.211 -0.8214 -0.1849  0.0941
37221SOL     OW17625   3.509   9.672   9.983  0.6883 -0.0022  0.3486
37221SOL    HW117626   3.447   9.599   9.978 -1.7297  1.9946 -2.8300
37221SOL    HW217627   3.514   9.693  10.076 -0.7666 -2.4010  1.0446
37222SOL     OW17628   9.264   5.655   6.426  0.0682 -0.1916 -0.1256
37222SOL    HW117629   9.182   5.702   6.414 -0.8281 -1.6815 -0.1075
37222SOL    HW217630   9.305   5.655   6.339 -0.0868  0.2827 -0.2037
37223SOL     OW17631   2.959   7.039   3.429 -0.5816 -0.1339 -0.7188
37223SOL    HW117632   3.053   7.050   3.413 -0.4817  0.1863  0.0503
37223SOL    HW217633   2.919   7.119   3.395 -0.5112 -0.0061 -0.4987
37224SOL     OW17634   3.004   3.863   3.266  0.1771 -0.6158  0.1234
37224SOL    HW117635   2.961   3.857   3.181  1.4976  0.5497 -0.6822
37224SOL    HW217636   3.036   3.775   3.283 -1.2788 -1.1782  0.0864
37225SOL     OW17637   5.903   4.099  11.234  0.2787 -0.1929 -0.2460
37225SOL    HW117638   5.926   4.029  11.295 -1.2787  0.3884  1.0737
37225SOL    HW217639   5.947   4.177  11.269 -2.0766  0.5500  1.3162
37226SOL     OW17640   8.094   8.087  11.843 -0.3488 -0.6518  0.3967
37226SOL    HW117641   8.111   8.179  11.826 -1.6701 -0.6475 -1.1832
37226SOL    HW217642   8.179   8.051  11.868  0.3400  0.8287  0.3066
37227SOL     OW17643  11.780  11.065   1.702  0.4016 -0.2147  0.5125
37227SOL    HW117644  11.788  10.971   1.722 -1.8840 -0.2772  1.3568
37227SOL    HW217645  11.810  11.108   1.782 -0.6499 -0.2894  0.9571
37228SOL     OW17646  11.593   2.799   1.043  0.4911 -0.2583 -0.1755
37228SOL    HW117647  11.575   2.811   0.950  1.0970 -0.5888 -0.3378
37228SOL    HW217648  11.519   2.840   1.087  1.0298  1.4351 -0.7629
37229SOL     OW17649   8.674   2.003   3.161 -0.4481  0.1898 -0.0442
37229SOL    HW117650   8.766   2.021   3.140 -0.2430 -0.7701 -0.0199
37229SOL    HW217651   8.624   2.055   3.098  0.0865  1.6195  0.6829
37230SOL     OW17652  11.312   5.224   6.899  0.4264 -0.4785 -0.3926
37230SOL    HW117653  11.350   5.158   6.957 -0.1466  0.0785  0.6312
37230SOL    HW217654  11.232   5.182   6.865 -0.0032 -0.2811  0.3529
37231SOL     OW17655   5.219  11.322   9.200 -0.5879 -0.1069  0.3920
37231SOL    HW117656   5.184  11.310   9.112  1.2717 -2.0574 -0.1682
37231SOL    HW217657   5.289  11.386   9.189 -0.9847  0.3813  0.6594
37232SOL     OW17658   5.218  11.819   0.496 -0.1207  0.0486  0.2619
37232SOL    HW117659   5.194  11.768   0.419  1.4697 -0.0226 -0.2298
37232SOL    HW217660   5.243  11.904   0.462 -0.6506  0.4470  0.8474
37233SOL     OW17661   5.323   3.222  12.179 -0.0720  0.0268  0.3674
37233SOL    HW117662   5.376   3.301  12.170  0.9433 -0.6010  0.7056
37233SOL    HW217663   5.383   3.155  12.212 -0.6451 -1.1675 -0.8775
37234SOL     OW17664   1.036   0.205   3.425  0.0388  0.1893  0.1488
37234SOL    HW117665   0.993   0.127   3.461 -1.2432  0.2882 -1.0523
37234SOL    HW217666   0.997   0.278   3.472  2.3105  0.1131  2.3333
37235SOL     OW17667   9.093   6.577   3.628  0.2659 -0.4764  0.1746
37235SOL    HW117668   9.126   6.489   3.645  1.8625  0.0053 -0.2622
37235SOL    HW217669   9.104   6.623   3.711  1.1958 -0.1822 -0.0977
37236SOL     OW17670   8.699   5.503   4.303  0.1991  0.0312  0.0622
37236SOL    HW117671   8.645   5.430   4.274  0.2570  0.1764 -0.4216
37236SOL    HW217672   8.653   5.581   4.272  0.1396  0.2017  0.5736
37237SOL     OW17673   1.066   0.452   6.973  0.2623  0.5534 -0.3842
37237SOL    HW117674   1.160   0.469   6.982  0.4283 -0.2398 -0.6170
37237SOL    HW217675   1.060   0.365   6.935 -0.5733  0.6190 -0.4266
37238SOL     OW17676   2.564   2.865   2.053  0.1388 -0.1411  0.0199
37238SOL    HW117677   2.589   2.875   1.962 -0.0406 -1.3802 -0.1817
37238SOL    HW217678   2.646   2.848   2.100  0.4868  2.2602  0.4109
37239SOL     OW17679   5.087   6.680   6.970 -0.3807 -0.3164 -0.0173
37239SOL    HW117680   5.127   6.766   6.984 -2.8339  0.7653  0.9226
37239SOL    HW217681   5.155   6.629   6.926  1.4163  1.8573  0.0475
37240SOL     OW17682   2.651   0.302   5.348  0.1593  0.4628  0.0624
37240SOL    HW117683   2.708   0.378   5.354  1.0431 -0.1482 -0.2926
37240SOL    HW217684   2.673   0.249   5.425  0.4963 -0.0490 -0.3745
37241SOL     OW17685   2.854  11.644   1.140  0.0015 -0.3657  0.1618
37241SOL    HW117686   2.827  11.642   1.048 -1.0675  1.8640  0.3525
37241SOL    HW217687   2.918  11.574   1.147  1.0300  0.1453 -2.5709
37242SOL     OW17688   5.038   8.076   3.197  0.2003 -0.9019  0.0805
37242SOL    HW117689   5.001   8.097   3.111 -0.7796  1.9135  1.0684
37242SOL    HW217690   5.130   8.059   3.180  0.2931  0.8148 -1.4310
37243SOL     OW17691   0.748   7.194   1.326 -0.0171 -0.3182  0.1224
37243SOL    HW117692   0.798   7.274   1.342  0.9624 -0.6431 -1.1800
37243SOL    HW217693   0.657   7.223   1.319  0.1225  0.4548  1.1800
37244SOL     OW17694   7.672   5.032   6.569 -0.1329 -0.1767  1.1288
37244SOL    HW117695   7.586   4.990   6.576 -0.5663  0.6300  0.7661
37244SOL    HW217696   7.719   4.978   6.505 -0.7515 -0.0184  0.5236
37245SOL     OW17697   6.912   9.595   2.539  0.1906  0.3840  0.6288
37245SOL    HW117698   6.836   9.608   2.483  0.2295  0.0219  0.4860
37245SOL    HW217699   6.875   9.557   2.620  0.2179  0.1857  0.5503
37246SOL     OW17700   8.250   0.386  10.354  0.0843  0.1814  0.0104
37246SOL    HW117701   8.303   0.416  10.428 -0.2801  0.7729  0.0423
37246SOL    HW217702   8.170   0.439  10.359 -1.1706 -1.6688  0.8300
37247SOL     OW17703  12.233   8.537   1.683 -0.1275  0.5133  0.0213
37247SOL    HW117704  12.284   8.458   1.700 -0.6243 -0.2810 -1.9402
37247SOL    HW217705  12.156   8.528   1.739  0.0671 -0.1432  0.1948
37248SOL     OW17706   2.764   9.061   9.901  0.3289 -0.1384  0.3998
37248SOL    HW117707   2.834   9.007   9.865 -0.1425 -0.8070  0.4695
37248SOL    HW217708   2.804   9.105   9.976  0.3680 -1.4121  1.1473
37249SOL     OW17709  10.815   9.414  12.301 -0.4480 -0.1269  0.2374
37249SOL    HW117710  10.902   9.379  12.322 -0.5471  0.1390  1.1221
37249SOL    HW217711  10.820   9.507  12.327 -1.2109 -0.2767  0.9610
37250SOL     OW17712  12.142   6.775   3.855  0.5781  0.3766  0.3280
37250SOL    HW117713  12.127   6.686   3.821 -0.1338  0.8315 -0.5763
37250SOL    HW217714  12.231   6.796   3.828  0.8996 -0.2096  0.8979
37251SOL     OW17715   2.427   8.764   1.492  0.5155 -0.1822 -0.2332
37251SOL    HW117716   2.469   8.760   1.578  1.8324 -1.9422 -0.9052
37251SOL    HW217717   2.492   8.804   1.435 -0.0774  0.2967 -0.5876
37252SOL     OW17718   1.963   5.222   1.016 -0.0343  0.0661  0.2155
37252SOL    HW117719   1.953   5.315   1.039  0.0994 -0.0572  0.7827
37252SOL    HW217720   1.932   5.216   0.926 -0.7752  0.5148  0.4393
37253SOL     OW17721   0.015   5.641   9.096 -0.1924  0.2589 -0.5150
37253SOL    HW117722   0.100   5.661   9.136  0.3617 -1.5994 -0.6924
37253SOL    HW217723  -0.045   5.636   9.170  0.2605 -0.3810 -0.1842
37254SOL     OW17724  11.431   0.522  11.921  0.5449 -0.0917 -0.4744
37254SOL    HW117725  11.364   0.582  11.954 -0.4287 -1.2938 -0.1411
37254SOL    HW217726  11.504   0.529  11.982  0.0588  0.0688  0.0925
37255SOL     OW17727   5.438   9.207   2.708  0.0793 -0.0993 -0.0475
37255SOL    HW117728   5.479   9.161   2.781 -1.3812 -0.3405  0.6588
37255SOL    HW217729   5.511   9.231   2.650  1.1398 -0.9024  0.9191
37256SOL     OW17730   8.488  12.387   7.099 -0.4565  0.0874 -0.3834
37256SOL    HW117731   8.461  12.468   7.142  2.3262  1.2654 -0.6381
37256SOL    HW217732   8.465  12.399   7.007 -3.4961 -1.1092  0.0920
37257SOL     OW17733   2.919   5.023   6.104  0.0311  0.7388 -0.1082
37257SOL    HW117734   2.855   5.094   6.105  0.2589  1.0418 -2.2180
37257SOL    HW217735   2.953   5.023   6.015 -0.4370 -2.4608 -0.4099
37258SOL     OW17736  11.471   6.505   8.509  0.3114 -0.1011  0.3934
37258SOL    HW117737  11.562   6.507   8.479 -0.0500  0.1798 -0.7239
37258SOL    HW217738  11.441   6.416   8.491  0.2577 -0.0876  0.4146
37259SOL     OW17739   6.206   0.009   6.765 -0.3157 -0.3225 -0.8385
37259SOL    HW117740   6.270  -0.060   6.780 -0.8683 -0.6477  0.0445
37259SOL    HW217741   6.141  -0.002   6.834  0.2208  1.8354  0.1061
37260SOL     OW17742   1.933  11.118  10.446 -0.0822  0.2104 -0.5663
37260SOL    HW117743   1.982  11.157  10.518 -0.5035  0.1909 -0.2651
37260SOL    HW217744   1.843  11.115  10.477 -0.1074 -0.7383 -0.6948
37261SOL     OW17745   9.907   9.065   5.605  0.5599 -0.2658  0.7615
37261SOL    HW117746   9.985   9.061   5.550 -0.5549 -0.6213 -0.8711
37261SOL    HW217747   9.921   8.998   5.671  1.3823 -0.7263  0.1477
37262SOL     OW17748   2.905  11.143   8.340 -0.4118  0.2057  0.3657
37262SOL    HW117749   2.919  11.142   8.245  1.3778  0.1335  0.6035
37262SOL    HW217750   2.818  11.104   8.351 -1.5515  2.0783 -1.3451
37263SOL     OW17751   2.047   6.211  11.277  0.0551  0.3619  0.1823
37263SOL    HW117752   1.961   6.247  11.297  1.2060  2.2545  2.1930
37263SOL    HW217753   2.067   6.242  11.189 -0.9356  0.6528  0.0525
37264SOL     OW17754   0.229   4.467   0.148 -0.2431  0.1624 -0.2303
37264SOL    HW117755   0.195   4.489   0.235 -0.4814 -1.2466  0.0543
37264SOL    HW217756   0.186   4.385   0.125 -2.7553  2.0167 -3.1030
37265SOL     OW17757   0.877   1.913   9.239  0.2852  0.0808  0.5979
37265SOL    HW117758   0.926   1.838   9.203  0.5302  0.7493 -0.5196
37265SOL    HW217759   0.786   1.897   9.213  0.6613  1.2925 -1.7401
37266SOL     OW17760  10.636   8.488   1.814  0.0369  0.0096 -0.0992
37266SOL    HW117761  10.629   8.500   1.909  0.4180 -0.4042 -0.0129
37266SOL    HW217762  10.561   8.434   1.790  0.2097 -0.3029  0.0504
37267SOL     OW17763  11.385   5.310   3.908  0.3787 -0.4462  0.7221
37267SOL    HW117764  11.394   5.333   3.816  0.1997 -2.3264  0.2074
37267SOL    HW217765  11.451   5.242   3.923  1.7247  1.1198  2.5012
37268SOL     OW17766   0.372   4.418  10.725  0.2846  0.0126 -0.0122
37268SOL    HW117767   0.351   4.502  10.684 -0.6100 -0.5980 -0.8277
37268SOL    HW217768   0.465   4.405  10.705  0.3478  0.6473 -0.1659
37269SOL     OW17769   4.668   6.198  10.658  0.4345 -0.0932  0.1750
37269SOL    HW117770   4.713   6.247  10.727  2.7021 -0.8710 -0.6587
37269SOL    HW217771   4.659   6.262  10.586 -0.8964  0.3873  0.7361
37270SOL     OW17772   6.826   8.190   9.919 -0.1260  0.3516 -0.1921
37270SOL    HW117773   6.788   8.183   9.832 -2.6194  0.5136  0.7921
37270SOL    HW217774   6.870   8.105   9.933  0.5719  0.4400 -1.6648
37271SOL     OW17775   6.163   0.475  11.577  0.0030  0.0162 -0.4951
37271SOL    HW117776   6.202   0.434  11.655 -0.9872 -1.6363 -0.8174
37271SOL    HW217777   6.215   0.554  11.563  0.5996  0.0278  1.4725
37272SOL     OW17778  11.109   2.722   9.849 -0.2718  0.4186 -0.0770
37272SOL    HW117779  11.093   2.661   9.777  0.4590 -1.0734  0.9583
37272SOL    HW217780  11.103   2.809   9.809  2.1846 -0.3494 -2.3912
37273SOL     OW17781   4.147   7.050   6.298  0.2249 -0.0274 -0.5682
37273SOL    HW117782   4.092   6.972   6.300  0.5058 -0.2265 -0.5386
37273SOL    HW217783   4.207   7.039   6.372 -0.5463  0.8147  0.2147
37274SOL     OW17784   4.471   2.905   3.754  0.2865 -0.2543 -0.0373
37274SOL    HW117785   4.454   2.819   3.717 -0.7841  0.9068 -2.4892
37274SOL    HW217786   4.429   2.904   3.840  1.5429 -2.5808  0.6237
37275SOL     OW17787  12.047   9.043   8.824 -0.0471 -0.2624 -0.1990
37275SOL    HW117788  12.089   9.116   8.869 -0.4456 -0.2598  0.1695
37275SOL    HW217789  11.991   9.003   8.889  1.0120 -1.6058 -0.0584
37276SOL     OW17790   8.376   6.693   8.449 -0.4362 -0.0318  0.5982
37276SOL    HW117791   8.468   6.706   8.473  0.3638 -1.2277 -1.5918
37276SOL    HW217792   8.327   6.731   8.523  1.7789  0.4689  1.9147
37277SOL     OW17793   6.504   3.856  11.478 -0.0530  0.0183 -0.5165
37277SOL    HW117794   6.593   3.865  11.444  0.1477 -0.5196 -0.1488
37277SOL    HW217795   6.472   3.774  11.439  0.0137 -0.3626  0.2165
37278SOL     OW17796   4.834  11.609  12.439 -0.2105 -0.2913 -0.1880
37278SOL    HW117797   4.744  11.605  12.407 -1.4110 -0.8166  2.9415
37278SOL    HW217798   4.846  11.528  12.488  1.5205  0.3555  0.5357
37279SOL     OW17799   8.926  10.317   0.348  0.0200 -0.0003  0.1480
37279SOL    HW117800   8.916  10.376   0.423  0.1240 -0.5725  0.6178
37279SOL    HW217801   8.924  10.229   0.386 -0.9864 -0.3376 -0.6243
37280SOL     OW17802   5.217   8.268  11.639 -0.2080  0.2484 -0.0106
37280SOL    HW117803   5.271   8.255  11.561 -0.0531  0.1851  0.1089
37280SOL    HW217804   5.279   8.278  11.711 -0.3528  0.2052  0.1216
37281SOL     OW17805   1.273   6.073   2.729  0.0793 -0.2164 -0.1125
37281SOL    HW117806   1.357   6.102   2.694 -0.8136  1.1755 -1.2410
37281SOL    HW217807   1.270   6.109   2.818  0.2912  0.5181 -0.3996
37282SOL     OW17808   0.336   8.256   5.376 -0.3106 -0.6064  0.0994
37282SOL    HW117809   0.287   8.210   5.444  0.6149 -1.2205  0.3679
37282SOL    HW217810   0.283   8.245   5.297 -2.5475  1.9615  1.0424
37283SOL     OW17811  12.028   9.726   0.140  0.2029 -0.1155  0.6052
37283SOL    HW117812  12.000   9.814   0.162 -0.7567 -0.3699  0.4417
37283SOL    HW217813  12.002   9.714   0.049  0.6758 -0.4287  0.5108
37284SOL     OW17814  12.439   3.150  10.113  0.1881 -0.3462 -0.2561
37284SOL    HW117815  12.523   3.107  10.133 -0.1508 -0.3914  1.1440
37284SOL    HW217816  12.425   3.209  10.186 -1.5675 -1.1849  0.1285
37285SOL     OW17817   3.559   6.804  11.983  0.6832 -0.1807 -0.0914
37285SOL    HW117818   3.534   6.828  12.072 -1.1242 -2.3781  0.0615
37285SOL    HW217819   3.623   6.734  11.994  0.3260 -0.5772 -0.5305
37286SOL     OW17820   7.690   4.947   8.683 -0.1748 -0.0203 -0.3505
37286SOL    HW117821   7.734   4.971   8.764  0.6607 -0.2270 -0.7320
37286SOL    HW217822   7.620   5.012   8.674  0.4726  0.7425 -0.0783
37287SOL     OW17823   8.084   3.781   8.648 -0.1852  0.0928  0.0734
37287SOL    HW117824   7.996   3.806   8.676  0.2013  2.1068 -0.4011
37287SOL    HW217825   8.079   3.777   8.552  0.7007  2.3824 -0.1359
37288SOL     OW17826   2.435   7.902  12.268  0.1336  0.3090 -0.8224
37288SOL    HW117827   2.433   7.985  12.317 -1.5671 -0.2826  0.2292
37288SOL    HW217828   2.527   7.883  12.255  0.5672  2.0760 -0.5771
37289SOL     OW17829   4.551   2.431   0.142  0.1675 -0.1675 -0.3470
37289SOL    HW117830   4.568   2.524   0.156  1.3730 -0.4087 -0.0329
37289SOL    HW217831   4.483   2.409   0.205  0.3670  0.3495  0.0571
37290SOL     OW17832  10.166   3.000   5.020  0.0728 -0.9537 -0.0476
37290SOL    HW117833  10.114   2.928   5.055 -0.3408 -0.6220  0.0279
37290SOL    HW217834  10.102   3.067   4.997  0.3235 -1.1794 -1.5233
37291SOL     OW17835   0.782   1.580   5.553 -0.2543  0.5281  0.7456
37291SOL    HW117836   0.776   1.498   5.505 -1.0529  1.4251 -0.7798
37291SOL    HW217837   0.717   1.637   5.511  0.7828  2.1601  1.2646
37292SOL     OW17838   1.727   2.541   8.285 -0.1917  0.2432  0.1755
37292SOL    HW117839   1.637   2.546   8.319  0.2524  0.6349  1.3320
37292SOL    HW217840   1.768   2.472   8.336  0.6386  1.1839  0.8107
37293SOL     OW17841   4.569   7.100   3.357  0.1964  0.1207 -0.8656
37293SOL    HW117842   4.533   7.182   3.391 -0.0374  0.8251 -2.7267
37293SOL    HW217843   4.525   7.032   3.409 -0.1064  1.1385  0.2529
37294SOL     OW17844   4.410   6.622   7.890 -0.5529  0.5486  0.2034
37294SOL    HW117845   4.456   6.681   7.950  1.7026 -0.2542 -0.6456
37294SOL    HW217846   4.446   6.642   7.804 -1.4196 -0.5212 -0.4306
37295SOL     OW17847   6.608   2.502   4.441  0.1379  0.4564 -0.0026
37295SOL    HW117848   6.586   2.576   4.497  0.2298 -1.3311  2.5676
37295SOL    HW217849   6.703   2.495   4.446  0.0689 -0.2914  0.4456
37296SOL     OW17850   7.990   3.819   5.058  0.0605 -0.2640  0.0582
37296SOL    HW117851   7.980   3.873   5.136 -0.6307 -0.9298  0.4506
37296SOL    HW217852   8.039   3.742   5.089 -0.9205 -0.9124  0.0357
37297SOL     OW17853   1.414   4.814   7.301  0.1840 -0.0897 -0.1805
37297SOL    HW117854   1.478   4.757   7.343  0.3454 -0.1338 -0.4795
37297SOL    HW217855   1.420   4.793   7.208  0.1555  0.3237 -0.2814
37298SOL     OW17856   7.475   2.817  11.699  0.7530  0.0195 -0.3079
37298SOL    HW117857   7.523   2.742  11.735  1.2060  0.9114  1.0019
37298SOL    HW217858   7.543   2.875  11.665  0.6917  1.3104  1.6002
37299SOL     OW17859   2.612   1.090   3.497  0.4373 -0.3621  0.0099
37299SOL    HW117860   2.701   1.123   3.506 -0.5930  3.4246 -1.8133
37299SOL    HW217861   2.610   1.049   3.411  0.4561 -0.6258  0.1343
37300SOL     OW17862   9.957  11.868   9.399 -0.9732 -0.2116  0.3041
37300SOL    HW117863  10.037  11.842   9.353 -0.9518 -1.2635  0.9148
37300SOL    HW217864   9.902  11.907   9.330 -0.3302 -0.3505 -0.3039
37301SOL     OW17865   5.075   0.921   1.600  0.3413  0.3622 -0.1960
37301SOL    HW117866   4.995   0.971   1.584  1.2086  1.6925 -0.5626
37301SOL    HW217867   5.103   0.947   1.688 -0.0749 -0.7516  0.2781
37302SOL     OW17868   8.011  12.396   1.697  0.0423  0.5584  0.1717
37302SOL    HW117869   8.069  12.422   1.769 -0.1808  0.8939  0.2311
37302SOL    HW217870   7.953  12.330   1.736 -0.3651  1.0580  0.4165
37303SOL     OW17871   2.346   6.920   1.956 -0.0766  0.1730 -0.4402
37303SOL    HW117872   2.259   6.915   1.916  1.0023 -0.5398 -2.9034
37303SOL    HW217873   2.332   6.895   2.048 -2.3817 -0.4330 -0.8906
37304SOL     OW17874   6.081   8.810   8.455 -0.3548 -0.4840 -0.5728
37304SOL    HW117875   6.117   8.741   8.512 -0.3425 -0.5530 -0.6640
37304SOL    HW217876   6.156   8.839   8.403 -0.4825 -0.8036 -0.9419
37305SOL     OW17877   2.438   5.669   7.451 -0.5168 -0.4402  0.0941
37305SOL    HW117878   2.367   5.609   7.430 -1.7043  1.0224 -0.2348
37305SOL    HW217879   2.507   5.649   7.387 -0.7052 -1.7162  0.2695
37306SOL     OW17880   2.993   3.941   4.193 -0.3474 -0.2571  0.3468
37306SOL    HW117881   2.963   4.031   4.201  0.9446  0.3597 -1.1456
37306SOL    HW217882   3.053   3.942   4.118 -1.6946 -2.7196 -0.8834
37307SOL     OW17883  12.336   4.198  10.908 -0.1064  0.2751  0.2470
37307SOL    HW117884  12.397   4.259  10.866 -0.9276  1.0044  0.0784
37307SOL    HW217885  12.249   4.236  10.891 -0.8309 -1.9933 -1.6633
37308SOL     OW17886  10.423   4.746   4.983  0.5526  1.3082  0.0870
37308SOL    HW117887  10.425   4.793   5.067 -0.3638 -0.2205  1.0063
37308SOL    HW217888  10.430   4.653   5.007 -0.6414  0.7734 -1.4678
37309SOL     OW17889   3.849   5.879   3.924  0.0857  0.1399  0.5389
37309SOL    HW117890   3.757   5.853   3.916  0.7102 -1.6326 -2.9241
37309SOL    HW217891   3.890   5.808   3.975 -0.1173 -0.1746  0.2708
37310SOL     OW17892  11.625   0.616  11.382  0.0382  0.0725  0.4955
37310SOL    HW117893  11.594   0.666  11.307 -1.0355  0.6956  1.3134
37310SOL    HW217894  11.698   0.669  11.417  0.0544  0.1596  0.3317
37311SOL     OW17895   8.968   6.610  10.745 -0.6828  0.4334  0.1201
37311SOL    HW117896   8.969   6.521  10.780  1.2534  0.3416 -0.0635
37311SOL    HW217897   8.881   6.620  10.708 -0.5579 -1.8489 -0.9673
37312SOL     OW17898   3.252   1.028   4.966 -0.4365  0.0012  0.1279
37312SOL    HW117899   3.204   0.964   5.019  0.4685 -0.3827  0.5190
37312SOL    HW217900   3.317   0.975   4.919 -1.1683  0.3578 -1.3099
37313SOL     OW17901   2.892   9.677   1.143  0.0008 -0.1781 -0.3367
37313SOL    HW117902   2.860   9.688   1.232 -1.2327 -1.3594 -0.6036
37313SOL    HW217903   2.903   9.767   1.110 -2.5431  0.3353 -0.0192
37314SOL     OW17904   9.556   1.306  11.037  0.0369  0.1994  0.4590
37314SOL    HW117905   9.500   1.237  11.002 -0.4866  0.4650  0.7640
37314SOL    HW217906   9.630   1.310  10.977 -0.6720  0.4043 -0.4125
37315SOL     OW17907   7.425   2.834   6.917  0.4748 -0.6820  0.2514
37315SOL    HW117908   7.456   2.756   6.963 -0.0335 -1.2000 -0.2581
37315SOL    HW217909   7.330   2.828   6.922  0.4342 -0.0672  0.2457
37316SOL     OW17910   9.784   6.513  10.548  0.0986  0.0844  0.0965
37316SOL    HW117911   9.875   6.538  10.530  0.2349  0.5334  1.3280
37316SOL    HW217912   9.764   6.555  10.631 -0.6642 -1.4589  0.7257
37317SOL     OW17913  12.390   5.762  10.710  0.2455  0.5370  0.6684
37317SOL    HW117914  12.439   5.681  10.696 -0.1345  0.5849 -1.2136
37317SOL    HW217915  12.314   5.754  10.652 -0.3428  1.7999  1.2233
37318SOL     OW17916   5.387   2.009   7.512  0.4280 -0.5495  0.4509
37318SOL    HW117917   5.480   1.987   7.517  0.5490 -0.1620  0.0004
37318SOL    HW217918   5.345   1.930   7.479  0.7306 -0.4264 -0.2462
37319SOL     OW17919   6.500   6.685   8.705  0.2949  0.5662  0.6425
37319SOL    HW117920   6.581   6.682   8.654 -0.6131  1.2589 -0.9134
37319SOL    HW217921   6.481   6.593   8.725  0.2690  0.1908 -0.9742
37320SOL     OW17922   4.293   4.629   1.104  0.1055 -0.3781  0.2828
37320SOL    HW117923   4.253   4.553   1.145  0.5210 -0.1969  1.0436
37320SOL    HW217924   4.367   4.652   1.162 -0.3596  0.9367  0.3902
37321SOL     OW17925  10.360   9.806   2.597 -0.7275  0.2944  0.0219
37321SOL    HW117926  10.420   9.851   2.537 -1.1361  0.6934 -0.0899
37321SOL    HW217927  10.350   9.719   2.559 -2.5566  1.1488 -1.6398
37322SOL     OW17928   3.795   9.694  11.360  0.0967 -0.1359  0.4168
37322SOL    HW117929   3.842   9.777  11.357  0.8588 -0.5803 -0.2812
37322SOL    HW217930   3.849   9.638  11.416  0.7572 -0.8464 -0.8844
37323SOL     OW17931   6.041   5.623   2.706 -0.5401  0.5581  0.0963
37323SOL    HW117932   6.092   5.651   2.629  1.1062 -2.6753 -0.1826
37323SOL    HW217933   6.058   5.690   2.772  0.9066  1.6046 -1.2640
37324SOL     OW17934   7.408   8.635   5.928 -0.2575  0.1801  0.3727
37324SOL    HW117935   7.325   8.660   5.886  1.0078  0.3307 -2.2601
37324SOL    HW217936   7.418   8.542   5.907  0.5157  0.3095  0.1633
37325SOL     OW17937   5.814  10.672   1.299 -0.0253  0.1545 -0.8784
37325SOL    HW117938   5.802  10.738   1.230  0.9506  0.4509 -0.7798
37325SOL    HW217939   5.908  10.655   1.299 -0.0661 -0.1089  0.1463
37326SOL     OW17940   1.724  10.079   7.158  0.1565  0.6324 -0.7038
37326SOL    HW117941   1.730  10.053   7.250 -2.2013 -0.3460 -0.7392
37326SOL    HW217942   1.639  10.124   7.152  1.4854  3.1669 -1.8844
37327SOL     OW17943   6.429   6.934   2.244 -0.1440 -0.5389 -0.3029
37327SOL    HW117944   6.424   7.018   2.291  0.7137 -0.3050 -0.6219
37327SOL    HW217945   6.459   6.872   2.310  0.8478 -0.2547 -0.4718
37328SOL     OW17946   2.285   6.727   2.516 -0.2757  0.3608  0.1787
37328SOL    HW117947   2.262   6.809   2.561  1.1331  2.3265 -2.3892
37328SOL    HW217948   2.227   6.661   2.556 -1.6966  2.6208  2.1701
37329SOL     OW17949  12.268   8.124   6.418  0.3549  0.3519 -0.2053
37329SOL    HW117950  12.232   8.205   6.383  0.0046 -0.6877 -2.4059
37329SOL    HW217951  12.269   8.064   6.344 -0.1542 -1.9268  1.5181
37330SOL     OW17952   8.469   7.933   6.249 -0.3238 -0.3416  0.4839
37330SOL    HW117953   8.387   7.976   6.270  0.0641  0.2664  0.7999
37330SOL    HW217954   8.496   7.891   6.331  0.0687  0.1322  0.6045
37331SOL     OW17955   6.619   3.158   2.704  0.0739 -0.4551  0.5593
37331SOL    HW117956   6.625   3.188   2.794 -0.3887 -2.2941  1.2423
37331SOL    HW217957   6.609   3.063   2.710  3.2224 -1.1063 -1.5024
37332SOL     OW17958   5.243   9.388   0.593  0.1543 -0.2491 -0.1617
37332SOL    HW117959   5.221   9.454   0.527 -0.3244  2.3228  2.3365
37332SOL    HW217960   5.177   9.401   0.662  1.3425 -1.9410  1.3807
37333SOL     OW17961   1.570  11.395   4.948 -0.3580 -0.7992 -0.0075
37333SOL    HW117962   1.570  11.366   4.857 -0.7922 -1.9183  0.3300
37333SOL    HW217963   1.654  11.439   4.959  0.3863 -2.0477 -0.5295
37334SOL     OW17964  12.213  10.937   0.581 -0.2083 -0.0005  0.3420
37334SOL    HW117965  12.212  10.864   0.519 -1.8719  0.9870 -0.8532
37334SOL    HW217966  12.244  11.012   0.530 -1.4502  0.7984  0.7184
37335SOL     OW17967  11.824  11.655  10.193  0.0481 -0.1993 -0.1015
37335SOL    HW117968  11.835  11.732  10.136 -2.2560  0.3534  0.1380
37335SOL    HW217969  11.913  11.638  10.225  1.3446 -0.0369 -3.1677
37336SOL     OW17970   9.780   0.816   6.476  0.4278  0.1269 -1.0653
37336SOL    HW117971   9.740   0.749   6.531  0.8519  0.6216 -0.1318
37336SOL    HW217972   9.823   0.876   6.538 -1.5428  2.3750 -1.6872
37337SOL     OW17973   5.174   5.278   3.594  0.2238  0.3210  0.6905
37337SOL    HW117974   5.150   5.325   3.514 -0.1619  0.9627  1.1730
37337SOL    HW217975   5.237   5.212   3.565 -0.9244 -0.3665 -0.3546
37338SOL     OW17976   3.258   8.062   4.523  0.3397  0.0579  0.4537
37338SOL    HW117977   3.233   8.108   4.603  1.3624 -0.6295  1.1911
37338SOL    HW217978   3.234   7.971   4.539 -0.3689  0.0755 -0.4364
37339SOL     OW17979   6.373   0.568   3.882 -0.0169  0.6232  0.1212
37339SOL    HW117980   6.446   0.623   3.855  0.7412  0.3092  1.4613
37339SOL    HW217981   6.343   0.606   3.965  0.8138 -1.1916  1.3058
37340SOL     OW17982  12.229   7.480   2.423  0.1479 -0.4537  0.5125
37340SOL    HW117983  12.182   7.449   2.345 -1.2260 -0.4587  1.3178
37340SOL    HW217984  12.226   7.406   2.483  0.4210 -0.1404  0.9107
37341SOL     OW17985   2.814   2.787   8.974 -0.2588  0.2472  0.1353
37341SOL    HW117986   2.742   2.821   8.921  1.1580 -0.5664 -2.4721
37341SOL    HW217987   2.883   2.853   8.964 -0.0282  0.1772  1.1813
37342SOL     OW17988   8.555   3.051   6.518 -0.3413 -0.0324 -0.1680
37342SOL    HW117989   8.467   3.032   6.550  0.1747 -0.2026  1.2472
37342SOL    HW217990   8.610   2.983   6.558  0.4852  0.2773 -0.7424
37343SOL     OW17991   5.732   0.839   7.135 -0.7536  0.2478 -0.7931
37343SOL    HW117992   5.781   0.855   7.054 -1.5797  0.1570 -1.3165
37343SOL    HW217993   5.800   0.826   7.201 -0.0114  2.4659 -1.0192
37344SOL     OW17994   6.118   2.478   2.443 -0.1284  0.0395 -0.3805
37344SOL    HW117995   6.045   2.422   2.416 -2.2892  1.9221  1.1436
37344SOL    HW217996   6.101   2.498   2.535  1.1409  2.2444 -0.5441
37345SOL     OW17997   2.215   6.528   1.031 -0.4584  0.3321  0.7845
37345SOL    HW117998   2.123   6.547   1.015 -0.6853  0.9676  2.6170
37345SOL    HW217999   2.221   6.432   1.023 -1.2642  0.2865  0.6650
37346SOL     OW18000   5.358   7.121   0.240 -0.0121  0.0046 -0.2765
37346SOL    HW118001   5.373   7.216   0.236  0.6354 -0.0745  0.2697
37346SOL    HW218002   5.428   7.084   0.187 -0.0652 -0.1946 -0.2066
37347SOL     OW18003  11.101  10.281  11.433  0.3657 -0.0741  0.3236
37347SOL    HW118004  11.035  10.350  11.429 -0.4638 -0.8942 -0.6382
37347SOL    HW218005  11.052  10.199  11.421  1.6297 -0.6482 -1.3929
37348SOL     OW18006   5.814   3.560  11.256  0.0230 -0.2914  0.1738
37348SOL    HW118007   5.908   3.580  11.259  0.0466 -0.2305 -0.7430
37348SOL    HW218008   5.789   3.577  11.166 -0.8396 -0.4822  0.3713
37349SOL     OW18009   7.290   5.905  10.339 -0.0729 -0.3091  0.1173
37349SOL    HW118010   7.319   5.841  10.404  3.0051 -0.0866 -0.8977
37349SOL    HW218011   7.278   5.986  10.389 -1.1178 -0.9180  0.9117
37350SOL     OW18012  11.230   7.696   4.109 -0.5202  0.0929  0.3087
37350SOL    HW118013  11.290   7.622   4.120  1.2477  1.2182 -1.0465
37350SOL    HW218014  11.149   7.657   4.076 -0.5825 -1.4831  2.1724
37351SOL     OW18015   5.269  12.382   3.259 -0.2765  0.1849  0.1239
37351SOL    HW118016   5.281  12.450   3.193 -0.7000 -1.7867 -2.1285
37351SOL    HW218017   5.273  12.300   3.210  1.7990 -1.5581  2.9230
37352SOL     OW18018  10.903   4.085   6.698  0.3234  0.0475 -0.2548
37352SOL    HW118019  10.888   4.174   6.666  1.1476  0.6757  1.0015
37352SOL    HW218020  10.815   4.048   6.706  0.0090  0.4690 -1.5109
37353SOL     OW18021   2.201   2.247   7.629 -0.2131  0.2073 -0.3203
37353SOL    HW118022   2.174   2.242   7.537  0.1051  1.0945 -0.4798
37353SOL    HW218023   2.265   2.177   7.640  0.1273  0.4213 -0.9170
37354SOL     OW18024   8.885   9.693  10.955  0.4969  0.9666 -0.4214
37354SOL    HW118025   8.876   9.782  10.989 -2.1451  0.4063  0.5978
37354SOL    HW218026   8.824   9.689  10.881  0.9085  0.1271 -0.7269
37355SOL     OW18027   9.071   3.718   5.704 -0.1350 -0.2710 -0.0002
37355SOL    HW118028   9.072   3.687   5.794  2.8359  1.7821  0.8076
37355SOL    HW218029   9.018   3.798   5.706 -1.5440 -1.1478 -0.5204
37356SOL     OW18030  11.895  10.802   8.644  0.3029 -0.0455  0.7259
37356SOL    HW118031  11.919  10.762   8.560  0.7915 -1.6396  1.5962
37356SOL    HW218032  11.824  10.862   8.621 -0.6450 -1.5857 -0.6219
37357SOL     OW18033   9.216   3.106   9.827  0.0784 -0.8498  0.2795
37357SOL    HW118034   9.175   3.051   9.894 -0.8109  0.1612  0.5938
37357SOL    HW218035   9.239   3.046   9.757 -1.4681 -1.5314  0.3275
37358SOL     OW18036   3.474   3.241   1.655 -0.5945  0.8307  0.0842
37358SOL    HW118037   3.471   3.295   1.734  0.2328 -0.8464  1.3264
37358SOL    HW218038   3.401   3.180   1.665 -2.3668  2.4482 -1.9587
37359SOL     OW18039   6.166  11.796   4.808  0.3441  0.3573  0.7295
37359SOL    HW118040   6.149  11.813   4.901  0.7793  0.2487  0.8324
37359SOL    HW218041   6.138  11.876   4.764 -0.9179 -0.0045  0.8226
37360SOL     OW18042  11.517   0.429   0.566  0.2413 -0.7097 -0.0561
37360SOL    HW118043  11.590   0.490   0.565 -0.6953  0.4799  1.0183
37360SOL    HW218044  11.504   0.408   0.659  0.3868 -2.3720 -0.3783
37361SOL     OW18045   5.197   2.862   1.483  0.0610  0.2413 -0.4358
37361SOL    HW118046   5.195   2.795   1.415 -1.0203 -1.9214  1.5738
37361SOL    HW218047   5.146   2.935   1.447 -0.6196 -0.8993 -1.8682
37362SOL     OW18048   3.470   3.247   4.073  0.1808  0.2014 -0.2783
37362SOL    HW118049   3.393   3.297   4.045 -0.5682 -0.7609 -0.0064
37362SOL    HW218050   3.441   3.156   4.070  1.4680 -0.2135 -0.6138
37363SOL     OW18051  11.975   3.126   6.379  0.2062 -0.2988 -0.2617
37363SOL    HW118052  11.951   3.202   6.432 -0.9917  0.7684 -2.2077
37363SOL    HW218053  11.891   3.085   6.356  0.7796 -1.5553 -0.2149
37364SOL     OW18054   2.070   1.476   2.628 -0.7290 -0.9135  0.2838
37364SOL    HW118055   2.046   1.428   2.707 -2.7543 -0.2324  0.1358
37364SOL    HW218056   2.086   1.409   2.562  0.5135 -1.4692  1.1063
37365SOL     OW18057  10.951  12.206  10.346 -0.7948  0.2898  0.0888
37365SOL    HW118058  10.982  12.270  10.282 -2.0940  0.3273 -0.5417
37365SOL    HW218059  10.881  12.252  10.393  1.3749  0.9632  2.9459
37366SOL     OW18060   2.989   0.651   5.431  0.0957 -0.3398  0.1462
37366SOL    HW118061   2.991   0.704   5.352 -1.3890 -0.1796  0.2009
37366SOL    HW218062   3.008   0.712   5.502  0.6869 -0.3424 -0.0031
37367SOL     OW18063   6.976   8.511   0.631  0.2523 -0.3189 -0.6176
37367SOL    HW118064   7.038   8.579   0.657 -0.0051  0.2008 -1.3192
37367SOL    HW218065   6.917   8.502   0.705 -1.0194  1.7762 -1.2836
37368SOL     OW18066   1.154   5.046   9.551 -0.1093 -0.5386 -0.6766
37368SOL    HW118067   1.188   5.135   9.540 -1.8967  0.1350 -1.0254
37368SOL    HW218068   1.195   4.996   9.480  2.4381 -0.5290  0.6780
37369SOL     OW18069   3.928   1.684  10.840 -0.1052 -0.6041  0.8895
37369SOL    HW118070   3.859   1.650  10.784  0.1878 -1.0872  0.8146
37369SOL    HW218071   3.893   1.677  10.929 -0.8855  0.9033  0.7316
37370SOL     OW18072  12.314  10.879   4.197 -0.0093 -0.0125 -0.1702
37370SOL    HW118073  12.408  10.865   4.206 -0.0145 -0.5560 -0.9418
37370SOL    HW218074  12.299  10.965   4.237  0.1205 -1.7482  4.2550
37371SOL     OW18075   4.368   5.101   3.225  0.1831 -0.2162 -0.5862
37371SOL    HW118076   4.354   5.186   3.183 -0.4495  0.8596  1.6839
37371SOL    HW218077   4.417   5.121   3.304  0.2224 -2.0127 -0.1175
37372SOL     OW18078   4.675   7.722   9.867 -0.2347  0.0368 -0.1514
37372SOL    HW118079   4.648   7.644   9.818 -0.3529 -0.1011  0.1370
37372SOL    HW218080   4.766   7.736   9.839 -0.4524  0.2363 -0.7720
37373SOL     OW18081   2.939  10.622   3.579  0.2002 -0.0419 -0.1800
37373SOL    HW118082   2.912  10.713   3.576  1.3950  0.4208  1.6902
37373SOL    HW218083   2.906  10.584   3.497 -0.4796  1.9959 -0.8945
37374SOL     OW18084   9.367   5.827   9.527 -0.3464  0.6170 -0.4962
37374SOL    HW118085   9.280   5.842   9.491 -1.6980 -2.5603  1.0058
37374SOL    HW218086   9.353   5.822   9.622  1.8278  1.8358 -0.0643
37375SOL     OW18087  11.234  11.872   4.621  0.1008  0.2085 -0.6355
37375SOL    HW118088  11.275  11.953   4.591 -0.6432  1.4550  1.4921
37375SOL    HW218089  11.151  11.900   4.659  0.5101 -1.3260  1.5542
37376SOL     OW18090   4.332   3.562   8.168 -0.7665 -0.2724 -0.5272
37376SOL    HW118091   4.420   3.553   8.206 -0.8082 -0.9481 -0.5764
37376SOL    HW218092   4.320   3.656   8.157  0.5399 -0.2389 -1.8986
37377SOL     OW18093   4.335   5.490   0.397  0.5461  0.0616 -0.1558
37377SOL    HW118094   4.385   5.452   0.324  0.1406 -0.6639 -0.0660
37377SOL    HW218095   4.250   5.510   0.359  0.6084  0.4699 -0.0862
37378SOL     OW18096   0.911   4.131   8.557 -0.2225 -0.4163  0.2986
37378SOL    HW118097   0.979   4.171   8.612  0.1995  0.7631 -1.0342
37378SOL    HW218098   0.940   4.040   8.547  0.6064 -0.1982  0.6166
37379SOL     OW18099   6.470   9.541   4.014  0.1820  0.3086 -0.8782
37379SOL    HW118100   6.435   9.629   3.999  1.9239  0.7108 -3.2887
37379SOL    HW218101   6.552   9.555   4.061 -0.0313 -0.1134 -0.3738
37380SOL     OW18102   7.817   4.496   6.923 -0.1521 -0.3512  0.4553
37380SOL    HW118103   7.727   4.507   6.893  0.1771  1.0002 -0.0851
37380SOL    HW218104   7.843   4.582   6.954  1.2435 -0.5011 -0.2100
37381SOL     OW18105   9.948   5.068   4.085  0.1014  0.4911 -0.3931
37381SOL    HW118106   9.947   5.163   4.097  1.2725  0.3872  0.7181
37381SOL    HW218107   9.908   5.033   4.164  1.0027  0.0272 -0.1259
37382SOL     OW18108  12.457  10.843   9.843 -0.0338  0.6993  0.2268
37382SOL    HW118109  12.515  10.836   9.767  0.1585 -0.4093  0.4674
37382SOL    HW218110  12.500  10.793   9.911 -1.2869 -0.1853  0.4016
37383SOL     OW18111   5.219  10.707   7.984 -0.3556 -0.2215 -0.0593
37383SOL    HW118112   5.189  10.798   7.983 -0.7341 -0.3065  1.4000
37383SOL    HW218113   5.240  10.688   7.892 -0.3502  1.3006 -0.4076
37384SOL     OW18114   1.415   0.709   0.742 -0.2382 -0.3620  0.2763
37384SOL    HW118115   1.506   0.700   0.769 -0.5506 -1.1449  1.1018
37384SOL    HW218116   1.415   0.783   0.681  0.8209  0.1104  0.8358
37385SOL     OW18117   7.863  10.891  11.478 -0.4245 -0.1214 -0.3181
37385SOL    HW118118   7.895  10.831  11.546 -1.4050  0.1019  0.3713
37385SOL    HW218119   7.832  10.834  11.408  0.4275 -0.3615 -0.5121
37386SOL     OW18120   3.494   9.136   0.137 -0.3903  0.2175 -0.1080
37386SOL    HW118121   3.449   9.154   0.219 -2.7829  1.9244 -1.6537
37386SOL    HW218122   3.478   9.043   0.121  0.2550 -0.1783  1.3960
37387SOL     OW18123   0.118  11.002   0.593  0.6527  0.1590 -0.3871
37387SOL    HW118124   0.124  11.079   0.651 -0.0144 -0.9611  1.2477
37387SOL    HW218125   0.025  10.991   0.578  0.7368 -0.3886 -0.5220
37388SOL     OW18126   0.527  12.422   7.156  0.3303  0.5054 -0.0102
37388SOL    HW118127   0.454  12.366   7.182  1.4454 -1.3161 -0.6674
37388SOL    HW218128   0.585  12.423   7.232  0.0933  1.2006  0.1737
37389SOL     OW18129   6.915  10.260   8.388  0.1159 -0.3949 -0.0383
37389SOL    HW118130   6.929  10.308   8.306  0.3387 -1.3276 -0.5608
37389SOL    HW218131   6.882  10.174   8.360  1.7996 -1.3377  0.7481
37390SOL     OW18132   3.805   1.665  11.098  0.7648 -0.6320 -0.0119
37390SOL    HW118133   3.869   1.697  11.162 -0.3729  1.3545  0.2179
37390SOL    HW218134   3.720   1.680  11.140  0.0717 -1.3203 -1.1316
37391SOL     OW18135   3.024   5.040   4.828 -0.0449  0.0017  0.2248
37391SOL    HW118136   3.085   5.107   4.857 -0.2082  0.1477  0.2325
37391SOL    HW218137   2.992   5.071   4.744  1.0510 -0.8222 -0.5130
37392SOL     OW18138   3.539  11.702   1.853  0.3893  0.2498  0.4038
37392SOL    HW118139   3.623  11.662   1.831 -0.0149 -1.9771  2.5107
37392SOL    HW218140   3.488  11.631   1.892 -1.9574  1.9007  0.5379
37393SOL     OW18141   2.908   9.521  10.119  0.2927  0.1534  0.1504
37393SOL    HW118142   2.906   9.579  10.195 -1.9130  0.8823 -0.3882
37393SOL    HW218143   2.995   9.534  10.081  1.5900 -0.5152  2.7163
37394SOL     OW18144   2.525   2.586   4.000  0.5368  0.2780 -0.3167
37394SOL    HW118145   2.483   2.588   3.914 -1.4377  1.3213  0.5962
37394SOL    HW218146   2.465   2.536   4.055  0.9048  1.0586  0.8474
37395SOL     OW18147   3.299   9.496   9.974 -0.1183 -0.0451 -0.1142
37395SOL    HW118148   3.224   9.541   9.934 -1.6560 -0.0578  2.5137
37395SOL    HW218149   3.265   9.411   9.999  1.5006 -0.9705 -0.9223
37396SOL     OW18150  11.090   7.319   4.917 -0.0747  0.6252  0.1712
37396SOL    HW118151  11.076   7.384   4.987  0.5014 -0.0567  0.9416
37396SOL    HW218152  11.162   7.354   4.865  1.1473  0.0054  1.3775
37397SOL     OW18153   3.233   2.053  10.699 -0.8788 -0.2196  0.4595
37397SOL    HW118154   3.241   2.145  10.726 -0.5320  0.1860 -0.9396
37397SOL    HW218155   3.315   2.012  10.727 -0.2640  0.3357 -0.4757
37398SOL     OW18156   7.136   3.028  10.382 -0.0257  0.3081  0.1468
37398SOL    HW118157   7.066   2.983  10.335 -1.1032  0.5601  1.4221
37398SOL    HW218158   7.134   2.990  10.470  2.3435 -0.5924 -0.1236
37399SOL     OW18159   5.601   5.333  10.643  0.3994  0.0554 -0.2190
37399SOL    HW118160   5.605   5.279  10.722  2.0379 -0.5192 -0.6535
37399SOL    HW218161   5.618   5.422  10.673  0.8940 -0.1445  0.1000
37400SOL     OW18162  10.235  11.410  10.478  0.7979 -0.5618 -0.2076
37400SOL    HW118163  10.148  11.442  10.452  0.4829 -0.1590  1.2296
37400SOL    HW218164  10.291  11.427  10.402  0.6198  3.2505  0.3280
37401SOL     OW18165   3.607   1.009  12.122 -0.4095  0.2486 -0.2152
37401SOL    HW118166   3.697   1.039  12.107 -0.1916 -0.6382 -0.7921
37401SOL    HW218167   3.615   0.949  12.196 -0.7632  1.2192  0.6283
37402SOL     OW18168   7.444  10.215   1.086 -0.1375 -0.3268 -0.1138
37402SOL    HW118169   7.462  10.225   0.993  1.0563  0.1013  0.1456
37402SOL    HW218170   7.393  10.135   1.092 -0.7510 -0.0379 -1.1895
37403SOL     OW18171   9.476   5.928   9.979  0.6551  0.2756 -0.4222
37403SOL    HW118172   9.408   5.995   9.970 -1.1774 -1.2581  1.2046
37403SOL    HW218173   9.452   5.879  10.058  2.4727 -1.6664 -0.9731
37404SOL     OW18174   3.237   6.788   2.099  0.0677  0.2502  0.7962
37404SOL    HW118175   3.159   6.733   2.088  1.1580 -1.3183  0.4162
37404SOL    HW218176   3.212   6.855   2.162 -1.5291 -0.3124  0.7928
37405SOL     OW18177  12.301   1.688   7.954  0.6928  0.0820  0.1448
37405SOL    HW118178  12.238   1.719   7.888  0.6128  0.5737  0.4460
37405SOL    HW218179  12.276   1.734   8.034  1.0094 -0.2490  0.4351
37406SOL     OW18180  11.621   2.480   6.220  0.0934  0.2980 -0.0814
37406SOL    HW118181  11.530   2.474   6.192 -0.0548 -0.9680  0.5813
37406SOL    HW218182  11.648   2.569   6.197 -1.5459  0.9615  0.4191
37407SOL     OW18183   2.436   7.358   5.065  0.0573  0.6767  0.1361
37407SOL    HW118184   2.507   7.402   5.113  0.2336  0.9363 -0.3555
37407SOL    HW218185   2.367   7.346   5.130 -0.1099  1.9515  0.2097
37408SOL     OW18186   9.875   9.757   6.472  0.0134  0.1131 -0.8034
37408SOL    HW118187   9.910   9.674   6.441 -0.1877 -0.0677 -0.5547
37408SOL    HW218188   9.915   9.823   6.415  1.5348  0.0206  0.1141
37409SOL     OW18189  10.983   3.829   9.503  0.0668 -0.0582 -0.4590
37409SOL    HW118190  10.892   3.800   9.507  0.5499 -1.5205  0.5328
37409SOL    HW218191  11.005   3.826   9.409 -0.9727  0.6245 -0.7464
37410SOL     OW18192   4.975  10.017   7.766  0.3372  0.0691 -0.2581
37410SOL    HW118193   5.043  10.021   7.834 -0.4568 -1.6357  0.7061
37410SOL    HW218194   5.016   9.968   7.695  0.1145 -1.0935  0.3836
37411SOL     OW18195  11.976   0.800   6.973  0.3891  0.2340  0.2648
37411SOL    HW118196  11.907   0.753   7.019 -0.5902 -0.9243 -2.1591
37411SOL    HW218197  12.031   0.838   7.042 -0.9827 -1.2746  2.2977
37412SOL     OW18198   1.682   4.914   9.645  0.1362  0.1580 -0.1630
37412SOL    HW118199   1.708   4.823   9.635 -0.8187 -0.5425  2.9434
37412SOL    HW218200   1.587   4.914   9.635  0.3102  1.3547 -2.8754
37413SOL     OW18201   9.320   4.500  11.671  0.5783 -0.1345  0.1645
37413SOL    HW118202   9.273   4.551  11.604  1.0481  0.1456  0.0419
37413SOL    HW218203   9.257   4.491  11.743  0.2022 -0.1051 -0.1545
37414SOL     OW18204   0.339   4.305   5.671 -0.0843  0.5410 -0.5811
37414SOL    HW118205   0.266   4.328   5.614  0.5196  1.1138 -1.1432
37414SOL    HW218206   0.385   4.236   5.624  0.1529  0.6919 -0.5702
37415SOL     OW18207  11.831   3.963   5.193 -0.2343 -0.0725  0.4655
37415SOL    HW118208  11.818   3.957   5.099  2.9077  2.1086 -0.2789
37415SOL    HW218209  11.761   4.021   5.224 -1.1606 -0.6306 -0.5464
37416SOL     OW18210   5.976   2.205   2.418  0.3841 -0.2849  0.1111
37416SOL    HW118211   5.967   2.112   2.437  1.4084 -0.3606  0.2523
37416SOL    HW218212   5.905   2.246   2.467 -0.5039 -1.0452 -0.4899
37417SOL     OW18213   8.132   4.090   9.835 -0.0134  0.1496  0.4856
37417SOL    HW118214   8.116   4.184   9.825  0.1416  0.1764  0.4941
37417SOL    HW218215   8.079   4.065   9.911 -1.3520 -0.0961 -0.4901
37418SOL     OW18216   4.986  10.221   1.749 -0.0409  0.4448 -0.3853
37418SOL    HW118217   4.988  10.291   1.684 -0.8476 -0.0088 -0.9246
37418SOL    HW218218   4.955  10.263   1.829 -1.4537  0.5250 -0.9560
37419SOL     OW18219  11.272   3.144   5.082 -0.2523 -0.6565  0.6232
37419SOL    HW118220  11.191   3.104   5.050 -1.6905  0.2750  2.8201
37419SOL    HW218221  11.247   3.234   5.104  1.5545 -0.1601  0.7928
37420SOL     OW18222   6.200  10.116   4.961  0.3415  0.2313 -0.5974
37420SOL    HW118223   6.178  10.098   5.052 -1.0555  1.3888 -0.6583
37420SOL    HW218224   6.206  10.211   4.956  1.4276  0.1313 -1.5053
37421SOL     OW18225   7.979   6.425   2.041  0.4128  0.3843  0.3834
37421SOL    HW118226   7.955   6.501   1.987  0.4346  1.4342  1.7977
37421SOL    HW218227   8.014   6.463   2.121  1.8142 -1.1295  0.5422
37422SOL     OW18228   4.789   2.812   6.637 -0.0269 -0.0181  0.0249
37422SOL    HW118229   4.807   2.904   6.657 -0.3163 -0.2234  1.2657
37422SOL    HW218230   4.737   2.816   6.556 -1.0501  0.9809  0.6969
37423SOL     OW18231   5.103   9.043  11.360 -0.3110 -0.2445 -0.5176
37423SOL    HW118232   5.113   8.998  11.444 -2.9453 -1.1148 -0.5542
37423SOL    HW218233   5.149   8.988  11.297  3.0227  1.2019  0.4421
37424SOL     OW18234   8.966   9.681   9.631  0.1309  0.4015  0.4369
37424SOL    HW118235   9.035   9.728   9.583  1.0860 -0.1908  1.1916
37424SOL    HW218236   9.001   9.593   9.642 -0.6013  0.1940  1.1656
37425SOL     OW18237   1.404   4.514   5.725  0.0378 -0.7521 -0.3371
37425SOL    HW118238   1.346   4.519   5.801 -2.2326  0.5582 -2.0376
37425SOL    HW218239   1.403   4.421   5.700  0.0908 -1.0376  0.6772
37426SOL     OW18240  10.039   7.371   9.056 -0.2268  0.7568 -0.2345
37426SOL    HW118241  10.120   7.372   9.003 -0.3855 -0.3345 -0.5279
37426SOL    HW218242   9.969   7.374   8.991 -0.4198  0.5505 -0.0342
37427SOL     OW18243   1.266   0.372   0.255 -0.3674 -0.1414  0.0610
37427SOL    HW118244   1.241   0.357   0.346 -0.0040 -2.6168 -0.1857
37427SOL    HW218245   1.235   0.295   0.208 -1.4730  1.5279 -2.1557
37428SOL     OW18246   2.120   5.632   5.386  0.0358  0.9203  0.2815
37428SOL    HW118247   2.105   5.644   5.292  1.4662 -1.7562 -0.3904
37428SOL    HW218248   2.211   5.658   5.399 -0.0400  0.9109  0.8489
37429SOL     OW18249  10.744   4.322   9.886 -0.3932 -0.3555  0.0650
37429SOL    HW118250  10.722   4.229   9.897 -1.2839  0.0675  2.5735
37429SOL    HW218251  10.669   4.359   9.840 -0.6713 -0.6514  0.2733
37430SOL     OW18252   0.977   8.427   6.953  0.5004 -0.2496  0.1692
37430SOL    HW118253   0.983   8.377   6.872 -2.9630 -1.3819  0.4270
37430SOL    HW218254   0.946   8.364   7.018 -0.3364  1.3797  1.4464
37431SOL     OW18255   7.095  12.087  10.000 -0.3326 -0.1795  0.4986
37431SOL    HW118256   7.138  12.001   9.991  0.8309  0.4965 -0.8029
37431SOL    HW218257   7.100  12.106  10.093  1.7192 -0.4143  0.4877
37432SOL     OW18258  11.261   9.474   5.049  0.3490  0.3079  0.4627
37432SOL    HW118259  11.292   9.384   5.049 -0.6227 -0.1720 -2.8040
37432SOL    HW218260  11.324   9.521   4.994  0.9658  1.7470  2.2790
37433SOL     OW18261   0.406   6.235   2.562 -0.1273 -0.2054  0.2511
37433SOL    HW118262   0.373   6.171   2.625 -0.6717  0.9287  1.1521
37433SOL    HW218263   0.424   6.184   2.483 -3.1974 -1.1030  0.0030
37434SOL     OW18264   1.797  10.227   4.585  0.6508  0.2051  0.2917
37434SOL    HW118265   1.773  10.192   4.498  0.5912  0.1928  0.3129
37434SOL    HW218266   1.878  10.274   4.570  1.0456 -0.4391  0.3776
37435SOL     OW18267   6.285   8.613   6.121 -0.3974 -0.2315  0.2152
37435SOL    HW118268   6.367   8.661   6.129 -0.7447  0.2380  1.0760
37435SOL    HW218269   6.312   8.522   6.106  0.2724 -0.0128  0.0621
37436SOL     OW18270   9.402   9.477   0.751 -0.2330  0.4887 -0.1648
37436SOL    HW118271   9.389   9.384   0.770 -0.3922  0.8773  1.8997
37436SOL    HW218272   9.471   9.479   0.684  1.8663 -1.0790  1.7862
37437SOL     OW18273  10.877  11.324   4.244 -0.0717 -0.1796 -1.1442
37437SOL    HW118274  10.836  11.345   4.329 -2.2453 -1.1391 -1.8782
37437SOL    HW218275  10.949  11.265   4.267 -0.5418 -0.3276  0.0548
37438SOL     OW18276   5.939   5.210   4.180  0.2333 -0.1119  0.1376
37438SOL    HW118277   5.946   5.237   4.089  2.0867  0.9869  0.5555
37438SOL    HW218278   6.029   5.202   4.210 -0.3309 -0.0805  1.9718
37439SOL     OW18279   5.202  11.659   0.270  0.1293  0.2494 -0.2374
37439SOL    HW118280   5.227  11.668   0.178  1.9000 -0.1648  0.1751
37439SOL    HW218281   5.158  11.574   0.274 -0.1582  0.3717 -0.7380
37440SOL     OW18282   1.823   9.646   5.236 -0.7658 -0.3359  0.7474
37440SOL    HW118283   1.871   9.726   5.258 -2.0150  0.2094  1.6232
37440SOL    HW218284   1.773   9.669   5.158  1.4575 -1.3799 -1.1219
37441SOL     OW18285   5.071  11.327   6.739 -0.1257 -0.2270  0.1780
37441SOL    HW118286   4.999  11.323   6.802 -0.1018  0.4623  0.2561
37441SOL    HW218287   5.092  11.420   6.733 -1.2945 -0.0538 -2.2011
37442SOL     OW18288   2.220  12.118   6.408 -0.1363  0.0702 -0.5872
37442SOL    HW118289   2.141  12.155   6.368  0.4058 -0.4044 -2.1815
37442SOL    HW218290   2.187  12.052   6.469 -1.0185  1.3889  0.4221
37443SOL     OW18291   4.865   8.645  10.235  0.5690  0.4231  0.0807
37443SOL    HW118292   4.884   8.679  10.147 -1.1389 -0.8843 -0.8768
37443SOL    HW218293   4.855   8.551  10.222  1.5464  0.0280  1.9581
37444SOL     OW18294   8.784   2.330   8.137 -0.2304  0.1687  0.8099
37444SOL    HW118295   8.820   2.416   8.114 -1.3105  0.4256  0.0502
37444SOL    HW218296   8.805   2.274   8.063 -1.5364  0.3777  0.2469
37445SOL     OW18297   9.583   0.750   6.695  0.1981  0.5699  0.2621
37445SOL    HW118298   9.647   0.808   6.737  1.5957 -0.1977 -0.7193
37445SOL    HW218299   9.503   0.762   6.745  0.9367  2.0374  1.1545
37446SOL     OW18300   2.398  10.768   4.508  0.4685 -0.2300 -0.2875
37446SOL    HW118301   2.373  10.819   4.585  1.8729 -1.1552  0.8442
37446SOL    HW218302   2.319  10.764   4.455 -0.1387  1.6397  0.4137
37447SOL     OW18303   0.631   0.596   5.543  0.3699 -0.3156  0.5738
37447SOL    HW118304   0.541   0.626   5.532  0.6749 -0.1511 -2.1792
37447SOL    HW218305   0.624   0.502   5.555 -0.1555 -0.2535  0.7959
37448SOL     OW18306   6.654   3.850   8.269 -0.1531  0.4085 -0.1659
37448SOL    HW118307   6.672   3.759   8.293 -2.3393  0.5706  2.7565
37448SOL    HW218308   6.558   3.854   8.264 -0.0652  2.4053 -0.9165
37449SOL     OW18309  10.419   8.392   2.142 -0.1836 -0.2774 -0.7554
37449SOL    HW118310  10.489   8.328   2.130  0.3265  0.1197  0.0081
37449SOL    HW218311  10.422   8.446   2.063  0.4418 -0.2018 -0.6856
37450SOL     OW18312   3.139   8.397   0.615  0.2747 -0.8736 -0.3205
37450SOL    HW118313   3.208   8.350   0.661  1.7450  1.6217  0.2351
37450SOL    HW218314   3.131   8.353   0.531  1.6690 -1.9809  0.1012
37451SOL     OW18315   1.284   3.008   2.026 -0.4243 -0.4838 -0.7557
37451SOL    HW118316   1.249   2.939   1.970 -2.8036  1.2039 -1.5049
37451SOL    HW218317   1.329   3.068   1.966 -1.2265  0.2901 -0.6029
37452SOL     OW18318   7.917   7.417   4.509  0.2564  0.1304  0.2116
37452SOL    HW118319   7.908   7.385   4.419 -0.3470 -1.1672  0.7193
37452SOL    HW218320   7.826   7.431   4.538  0.3839 -0.8177  1.0910
37453SOL     OW18321   0.510   0.465   5.296 -0.7308 -0.3414 -1.1588
37453SOL    HW118322   0.537   0.407   5.367  0.1094 -1.2086 -2.1512
37453SOL    HW218323   0.571   0.538   5.300 -1.8271  0.5548  0.1310
37454SOL     OW18324  11.726   5.372   4.891 -0.3011 -0.2915 -0.4199
37454SOL    HW118325  11.814   5.346   4.865 -0.4925 -2.0201  0.5352
37454SOL    HW218326  11.688   5.411   4.813  0.6701 -1.2061 -1.3696
37455SOL     OW18327   5.540   1.767   4.993  0.4856  0.8553 -0.3268
37455SOL    HW118328   5.567   1.837   4.933  3.2093 -0.0918 -0.3169
37455SOL    HW218329   5.560   1.800   5.080  3.0948 -0.3284 -0.3806
37456SOL     OW18330   2.102  11.144   9.879 -0.1670 -0.0504  0.5098
37456SOL    HW118331   2.075  11.058   9.911  0.7892 -0.1234  1.1545
37456SOL    HW218332   2.131  11.191   9.957  0.4092  0.4483  0.0118
37457SOL     OW18333   7.923   7.119  10.153  0.3060  0.4802  0.4256
37457SOL    HW118334   7.881   7.118  10.239 -0.1804  3.0295  0.3051
37457SOL    HW218335   7.861   7.075  10.095 -0.5525  0.9995  0.9318
37458SOL     OW18336   6.174   4.894   4.042  0.5896 -0.3940  0.4224
37458SOL    HW118337   6.197   4.813   4.088  1.3190 -0.1112  0.5678
37458SOL    HW218338   6.251   4.915   3.990 -0.0379 -0.4352 -0.5552
37459SOL     OW18339   8.205   0.995   3.092  0.5165  0.2752 -0.2310
37459SOL    HW118340   8.277   0.938   3.064  2.3868  1.0759  2.5406
37459SOL    HW218341   8.134   0.934   3.114  0.9955 -0.6765 -1.2345
37460SOL     OW18342  12.267   4.405   5.280 -0.1891 -0.2550  0.2182
37460SOL    HW118343  12.295   4.477   5.336  0.4102 -1.2593  1.2408
37460SOL    HW218344  12.179   4.383   5.312 -0.2868 -0.1263  0.0426
37461SOL     OW18345   2.386  11.326   1.711 -0.9571  0.4540 -0.5705
37461SOL    HW118346   2.413  11.407   1.667 -1.1591  0.8308 -0.0156
37461SOL    HW218347   2.468  11.287   1.742 -0.8211  0.2280 -1.1967
37462SOL     OW18348   0.264   9.329   0.516 -0.1373  0.1818  0.1237
37462SOL    HW118349   0.205   9.401   0.540 -2.2951 -1.6234  0.5828
37462SOL    HW218350   0.246   9.314   0.423 -0.4409 -0.4014  0.2754
37463SOL     OW18351  10.293  12.442   7.867 -0.5020  0.9140 -0.1593
37463SOL    HW118352  10.370  12.498   7.876  0.7113 -0.7084 -0.0288
37463SOL    HW218353  10.309  12.392   7.787 -1.6696  0.8819 -0.3890
37464SOL     OW18354   3.654  10.606   8.232  0.3957  0.6197  0.2794
37464SOL    HW118355   3.627  10.694   8.258  0.1541  0.5882  0.1392
37464SOL    HW218356   3.594  10.582   8.161 -0.0793  0.0213  0.8610
37465SOL     OW18357   9.628   8.978  10.781 -0.1643  0.6050 -0.2263
37465SOL    HW118358   9.539   8.990  10.814  0.2611  1.5666  0.6068
37465SOL    HW218359   9.667   8.913  10.839 -0.3271  0.1492 -0.6196
37466SOL     OW18360   4.253   4.202   4.860 -0.2742 -0.1930 -0.2405
37466SOL    HW118361   4.176   4.158   4.824  1.0403 -1.4525 -1.6279
37466SOL    HW218362   4.327   4.154   4.824  1.2333  2.2943 -0.7254
37467SOL     OW18363  10.241   0.814   8.565 -0.5917 -0.2047 -0.2276
37467SOL    HW118364  10.204   0.825   8.477  0.2782  2.7115 -0.3525
37467SOL    HW218365  10.333   0.841   8.555 -0.4426  0.0052  1.5211
37468SOL     OW18366  11.975   1.484   7.133  0.4369  0.2178  0.0478
37468SOL    HW118367  12.060   1.514   7.101 -0.3637  0.9065 -1.5626
37468SOL    HW218368  11.986   1.390   7.145  1.4754  0.3227  0.0196
37469SOL     OW18369   6.626  11.162   5.996 -0.2188 -0.3609  0.2575
37469SOL    HW118370   6.623  11.146   5.902 -0.9500 -1.5217  0.4635
37469SOL    HW218371   6.535  11.183   6.019  0.2931  2.0864  0.3797
37470SOL     OW18372   6.994   8.692   9.938 -0.2300 -0.2198  0.3169
37470SOL    HW118373   6.999   8.653  10.026  0.2132  0.7320  0.7225
37470SOL    HW218374   6.974   8.618   9.881  1.6004 -1.2646  0.9314
37471SOL     OW18375   9.096   5.291   9.879 -0.0225  0.1041  0.3429
37471SOL    HW118376   9.016   5.340   9.899 -2.0768 -2.6445 -0.4875
37471SOL    HW218377   9.135   5.337   9.804 -0.8030  1.5064  0.7722
37472SOL     OW18378   6.732   7.076   0.457 -0.4618  0.4376 -0.2912
37472SOL    HW118379   6.774   7.152   0.418  1.2480 -0.8598 -1.1394
37472SOL    HW218380   6.727   7.096   0.551  2.5986  0.5103 -0.0445
37473SOL     OW18381   8.039   5.150   9.466  0.3395  0.0005 -0.5063
37473SOL    HW118382   8.070   5.217   9.405  1.7332  0.5878  0.8203
37473SOL    HW218383   8.093   5.073   9.447 -0.4618 -0.4194 -1.2120
37474SOL     OW18384   4.757  12.454   8.770 -0.0542  0.2984  0.6101
37474SOL    HW118385   4.784  12.532   8.720 -1.0179  0.7541  0.7772
37474SOL    HW218386   4.667  12.473   8.797  0.5996  0.3328  3.0191
37475SOL     OW18387  12.077   2.484   5.828  0.3479 -0.1078  0.0828
37475SOL    HW118388  12.138   2.531   5.770  1.7221 -0.0366  1.5239
37475SOL    HW218389  12.025   2.553   5.868  0.1518 -0.0712 -0.2319
37476SOL     OW18390  10.859  10.802  10.708 -0.2658  0.3560  0.2559
37476SOL    HW118391  10.852  10.715  10.749 -1.7585  0.8235  1.0422
37476SOL    HW218392  10.770  10.823  10.680  0.3030  1.1121 -1.0792
37477SOL     OW18393   0.143   7.874  10.221 -0.3924 -0.1071  0.0649
37477SOL    HW118394   0.190   7.890  10.303 -1.8106  2.1427  0.5191
37477SOL    HW218395   0.208   7.892  10.153  0.3581 -0.4597  0.6652
37478SOL     OW18396   5.928   8.819  11.780 -0.1918  0.1309 -0.3953
37478SOL    HW118397   5.983   8.788  11.707  0.2023 -1.4611  0.5463
37478SOL    HW218398   5.861   8.752  11.789 -1.0221  0.9861 -0.1203
37479SOL     OW18399   6.171   8.835  10.445 -0.4732 -0.0723 -0.2221
37479SOL    HW118400   6.170   8.786  10.527 -1.0058  0.3756  0.0406
37479SOL    HW218401   6.083   8.871  10.437  0.0436  1.2331 -0.1785
37480SOL     OW18402  12.191   5.710   4.640 -0.5210  0.3801 -0.5430
37480SOL    HW118403  12.210   5.802   4.657  0.1674 -0.0558  1.2208
37480SOL    HW218404  12.277   5.669   4.631 -0.7904 -0.3230  0.0123
37481SOL     OW18405   8.829  11.796  11.537  0.8549 -0.1256  0.3919
37481SOL    HW118406   8.893  11.831  11.599  1.2567 -1.9836  1.1164
37481SOL    HW218407   8.842  11.847  11.457  2.9625 -0.1589  0.6629
37482SOL     OW18408   1.451   1.989  10.408 -0.4191  0.2416  0.3285
37482SOL    HW118409   1.482   2.031  10.489  1.5581 -1.9126  0.7971
37482SOL    HW218410   1.529   1.977  10.355 -1.3160 -0.5462 -0.8849
37483SOL     OW18411  11.941   2.315   9.536  0.3613 -0.4499  0.3660
37483SOL    HW118412  11.916   2.227   9.510 -0.2582 -0.2279  0.1879
37483SOL    HW218413  12.023   2.304   9.585  0.2223 -1.1284  0.4480
37484SOL     OW18414  10.240   8.977   7.019  0.4911  0.1232  0.1947
37484SOL    HW118415  10.204   8.990   7.107  0.7766 -1.1264  0.5235
37484SOL    HW218416  10.304   8.906   7.030 -0.0488 -0.6107 -1.1715
37485SOL     OW18417   1.119   6.827   5.142 -0.0330 -0.3944 -0.4138
37485SOL    HW118418   1.143   6.803   5.232 -0.7761 -0.2073 -0.1562
37485SOL    HW218419   1.044   6.773   5.122 -1.1497  1.0042 -0.1625
37486SOL     OW18420   4.670   9.749   4.961 -0.2386  0.0123 -0.1339
37486SOL    HW118421   4.672   9.843   4.946 -0.0268  0.6234  3.0159
37486SOL    HW218422   4.763   9.724   4.966 -0.2848  0.0208  0.8944
37487SOL     OW18423   9.995   2.267   2.541 -0.2257  0.3990  0.3558
37487SOL    HW118424  10.037   2.196   2.492  0.8870 -0.4785  2.4876
37487SOL    HW218425   9.933   2.223   2.599  0.3291  1.1604  1.5617
37488SOL     OW18426  11.438   0.861   9.456 -0.2495  0.2199  0.2718
37488SOL    HW118427  11.533   0.848   9.457 -0.3383 -1.9215 -2.5919
37488SOL    HW218428  11.405   0.800   9.522  0.3480  0.7615  1.0802
37489SOL     OW18429   9.039  12.060  11.124 -0.0478 -0.2334  0.0915
37489SOL    HW118430   9.098  11.991  11.095 -1.2191 -1.7301  1.1041
37489SOL    HW218431   9.020  12.110  11.044  0.8150 -1.0971 -0.6803
37490SOL     OW18432  11.935  11.908   2.923 -0.1687  0.1114 -0.0279
37490SOL    HW118433  11.916  11.825   2.966  1.0946 -0.5331 -0.6570
37490SOL    HW218434  11.990  11.956   2.985 -0.8335  0.4712  0.3017
37491SOL     OW18435   5.698  11.558   1.661  0.2573 -0.0113 -0.4800
37491SOL    HW118436   5.729  11.645   1.638  0.1493  0.4053  0.8610
37491SOL    HW218437   5.746  11.536   1.741 -1.1484 -0.3458  0.2944
37492SOL     OW18438   4.692   6.451   5.226 -0.2898  0.2388 -0.2407
37492SOL    HW118439   4.719   6.531   5.181  1.8350 -0.6157 -0.6100
37492SOL    HW218440   4.643   6.481   5.303 -1.5020  1.7917 -1.5683
37493SOL     OW18441   8.073   4.406   4.602 -0.0785  0.0763 -0.4273
37493SOL    HW118442   8.122   4.350   4.663  1.2134  1.1705 -0.4012
37493SOL    HW218443   7.995   4.355   4.580  1.0898 -1.7744 -0.5029
37494SOL     OW18444   5.305  10.514   0.756 -0.6604 -0.0984  0.2245
37494SOL    HW118445   5.359  10.436   0.753  1.3968  1.2825 -2.6202
37494SOL    HW218446   5.336  10.563   0.833  1.2192  0.0058 -0.5674
37495SOL     OW18447   0.576   8.939   5.059 -0.0794  0.4458 -0.0440
37495SOL    HW118448   0.624   9.018   5.084 -1.5952  0.8445  1.8355
37495SOL    HW218449   0.609   8.871   5.117 -2.0361  0.8519  1.6776
37496SOL     OW18450   6.148   1.076  10.615 -0.2938  0.0069 -0.1560
37496SOL    HW118451   6.239   1.094  10.640 -0.3343  2.0308 -1.2967
37496SOL    HW218452   6.096   1.112  10.687 -0.2279 -1.6015  0.7432
37497SOL     OW18453   0.982   5.765   0.892  0.9818  0.5908 -0.0589
37497SOL    HW118454   0.897   5.736   0.927  0.3919  2.1801 -0.1228
37497SOL    HW218455   0.969   5.857   0.869  3.1245  1.2607  1.1726
37498SOL     OW18456   6.383  10.798   2.277  0.4405 -0.0070  0.1728
37498SOL    HW118457   6.415  10.887   2.295 -1.2138  0.4952  0.8004
37498SOL    HW218458   6.339  10.805   2.192 -0.4117 -0.0290  0.6105
37499SOL     OW18459   5.273  10.000  12.052  0.4256  0.4069 -0.3859
37499SOL    HW118460   5.300  10.090  12.068 -0.1554  0.6759 -0.8891
37499SOL    HW218461   5.325   9.972  11.976  0.3701  0.4196 -0.4275
37500SOL     OW18462   5.887  11.849   4.492 -0.1259  0.1050 -0.1065
37500SOL    HW118463   5.978  11.835   4.464  0.1371 -2.1487  1.5350
37500SOL    HW218464   5.837  11.782   4.444 -0.4885 -0.3218  0.8488
37501SOL     OW18465  10.506   8.847  11.785  0.1033 -0.5198 -0.0733
37501SOL    HW118466  10.429   8.833  11.730 -0.3345  1.0212  0.1053
37501SOL    HW218467  10.482   8.810  11.870 -0.8457  0.7908  0.2617
37502SOL     OW18468  11.138   9.806  12.044 -0.4467  0.0371  0.2746
37502SOL    HW118469  11.066   9.751  12.075 -0.3916 -0.7101 -0.8580
37502SOL    HW218470  11.205   9.743  12.015  0.4325  0.7136  0.7760
37503SOL     OW18471   9.888  12.201   0.252 -0.4964 -0.4148 -0.0155
37503SOL    HW118472   9.901  12.222   0.160  1.2564 -1.9120 -0.1814
37503SOL    HW218473   9.932  12.117   0.263 -0.6021 -0.2328  2.2159
37504SOL     OW18474   1.373   3.431   2.035 -0.3274 -0.2623 -0.0529
37504SOL    HW118475   1.331   3.503   1.987 -1.0414  1.8926  3.4957
37504SOL    HW218476   1.453   3.469   2.071  0.7175 -2.1133 -0.2469
37505SOL     OW18477  10.241   4.312   5.083  0.8772 -0.2730 -0.1019
37505SOL    HW118478  10.294   4.238   5.115  1.3665 -0.7623 -1.9257
37505SOL    HW218479  10.173   4.271   5.029  1.6135  0.5973 -1.7757
37506SOL     OW18480  10.808   9.579   3.852  0.3183 -0.1554 -0.0183
37506SOL    HW118481  10.822   9.538   3.767  1.1116 -1.6050  0.7580
37506SOL    HW218482  10.715   9.597   3.855  0.3134  0.1004 -1.2706
37507SOL     OW18483  11.963   6.250   1.063  0.1882 -0.1478  0.0619
37507SOL    HW118484  12.058   6.264   1.068  0.2863 -0.4822 -0.7459
37507SOL    HW218485  11.949   6.205   0.979 -0.9006  1.7973 -0.8754
37508SOL     OW18486   5.175   3.277   0.878  0.8706  0.4543 -0.4436
37508SOL    HW118487   5.253   3.224   0.859  0.0599 -1.1549  0.5068
37508SOL    HW218488   5.184   3.353   0.820  2.1202 -0.6798 -1.8381
37509SOL     OW18489   0.204   7.204   1.234  0.0190  0.1788 -0.6712
37509SOL    HW118490   0.255   7.205   1.152 -0.2624 -1.7483 -0.9047
37509SOL    HW218491   0.125   7.154   1.213  0.0500 -0.5506  0.8285
37510SOL     OW18492   9.695   8.755   4.193  0.5194  0.0765 -0.0564
37510SOL    HW118493   9.667   8.691   4.127  0.1164  0.3190 -0.1246
37510SOL    HW218494   9.645   8.834   4.171  0.5581  0.2260  0.4012
37511SOL     OW18495   6.691   1.956   1.652 -0.2526 -0.1157 -0.7744
37511SOL    HW118496   6.724   1.894   1.717 -0.3771 -0.3889 -0.9690
37511SOL    HW218497   6.597   1.959   1.667 -0.3538 -0.5789 -1.2773
37512SOL     OW18498   6.180   5.006   4.997 -0.2520 -0.2576 -0.4641
37512SOL    HW118499   6.252   4.942   4.998  0.5917  0.6782  0.0993
37512SOL    HW218500   6.211   5.078   5.052 -1.4512  0.3637 -0.5711
37513SOL     OW18501   9.265   6.604   3.028 -0.7182 -0.1602  0.2591
37513SOL    HW118502   9.358   6.589   3.013 -0.5078  2.1930 -1.2492
37513SOL    HW218503   9.223   6.569   2.949 -0.5822  2.9925 -1.3498
37514SOL     OW18504   3.923   5.317   2.821 -0.3206  0.1971 -0.0515
37514SOL    HW118505   3.863   5.274   2.761 -1.6991  0.8582  0.7882
37514SOL    HW218506   3.896   5.287   2.908  0.4370  0.6610  0.3624
37515SOL     OW18507   9.989   6.057   1.083 -0.1330  0.3716  0.3170
37515SOL    HW118508  10.052   6.005   1.034 -1.5991  0.2252 -1.5387
37515SOL    HW218509   9.905   6.039   1.041 -1.1529  1.9452  1.5368
37516SOL     OW18510   5.440   3.423   5.597 -0.0724 -0.2022  0.2566
37516SOL    HW118511   5.505   3.382   5.540 -0.1241  0.0091  0.0471
37516SOL    HW218512   5.398   3.490   5.543  1.1412  1.2758  1.0578
37517SOL     OW18513   6.204   2.813   2.781 -0.2005  0.4240 -0.4831
37517SOL    HW118514   6.220   2.783   2.871  1.2929  0.1357 -0.8043
37517SOL    HW218515   6.155   2.895   2.791  1.0749  1.1018  0.6755
37518SOL     OW18516  12.053   2.816   0.201  0.4369  0.0874 -0.1391
37518SOL    HW118517  11.966   2.777   0.189  0.4110 -0.0454  0.4477
37518SOL    HW218518  12.094   2.810   0.115  0.0489 -0.3072 -0.3012
37519SOL     OW18519   3.100   7.465   1.192  0.4881  0.2444  0.0446
37519SOL    HW118520   3.056   7.482   1.275 -1.2522 -0.2979 -0.7054
37519SOL    HW218521   3.161   7.393   1.210  1.5721  1.4179  1.2548
37520SOL     OW18522  12.280  11.545   3.988 -0.3704  0.1258  0.1806
37520SOL    HW118523  12.337  11.507   4.055 -0.9476  1.1901  1.3195
37520SOL    HW218524  12.323  11.523   3.905  0.5019 -1.0024  0.8978
37521SOL     OW18525   1.250  10.772   7.636 -0.3476  0.2128  0.1410
37521SOL    HW118526   1.326  10.791   7.691 -0.1839 -1.5263  0.5464
37521SOL    HW218527   1.183  10.833   7.666  0.4916  0.9236  0.6199
37522SOL     OW18528   8.031   6.854   3.877 -0.2316 -0.6961  0.0748
37522SOL    HW118529   7.968   6.859   3.806 -0.2301  1.4491  0.1500
37522SOL    HW218530   8.042   6.945   3.906  1.4008 -1.2458  1.3756
37523SOL     OW18531   4.744   4.545   8.731  0.1729 -0.6292 -0.2984
37523SOL    HW118532   4.741   4.631   8.689  1.9026 -0.3764  0.0235
37523SOL    HW218533   4.686   4.491   8.678  0.3237  0.3268 -1.4903
37524SOL     OW18534   2.229   4.088  12.094 -0.0821 -0.1270 -0.3956
37524SOL    HW118535   2.297   4.125  12.150  0.1596 -1.0870 -0.0327
37524SOL    HW218536   2.148   4.128  12.125 -0.1419 -1.5921  1.5683
37525SOL     OW18537   3.899   3.594   0.393 -0.1940 -0.3670  0.2600
37525SOL    HW118538   3.898   3.519   0.452  0.6620 -0.4606  0.1603
37525SOL    HW218539   3.902   3.556   0.305 -3.3154 -0.2847 -0.0068
37526SOL     OW18540  11.749   7.174   0.161 -0.3410  0.1578  0.3237
37526SOL    HW118541  11.839   7.181   0.130  0.0902  0.1009  1.5068
37526SOL    HW218542  11.709   7.257   0.137  0.3547  0.6307  0.7740
37527SOL     OW18543  11.404   3.646   6.663 -0.0520  0.2191 -0.2503
37527SOL    HW118544  11.394   3.728   6.614  0.9643  0.1194 -0.6526
37527SOL    HW218545  11.374   3.667   6.751  1.4217  1.4114  0.0039
37528SOL     OW18546   8.510   4.375   1.926  0.3059  0.2987  0.0685
37528SOL    HW118547   8.600   4.399   1.907  0.3446  0.4538  0.4479
37528SOL    HW218548   8.506   4.369   2.021  0.2375 -0.9558 -0.0014
37529SOL     OW18549   4.557   1.378   8.355 -0.0644  0.3600  0.3179
37529SOL    HW118550   4.466   1.405   8.344  0.0846  0.9048  0.3661
37529SOL    HW218551   4.553   1.298   8.406 -0.4994  0.5532  0.5889
37530SOL     OW18552   9.451   4.704  11.365  0.2021  0.2631  0.1637
37530SOL    HW118553   9.405   4.670  11.289  1.2399  1.0297 -0.8401
37530SOL    HW218554   9.409   4.662  11.440 -0.1768 -1.2969 -0.8806
37531SOL     OW18555   3.936  11.039   1.889  0.3421 -0.3872  0.2395
37531SOL    HW118556   3.904  11.011   1.974 -1.5916 -0.6419 -0.5206
37531SOL    HW218557   3.887  10.986   1.826 -1.2925  2.5263 -1.1602
37532SOL     OW18558  10.578   1.507   5.325 -0.1440  0.4108 -1.1607
37532SOL    HW118559  10.598   1.486   5.416 -1.1604 -0.6177 -1.1453
37532SOL    HW218560  10.662   1.501   5.280  0.3013  0.5332 -0.3587
37533SOL     OW18561   0.990   2.486  10.022 -0.1198 -0.1323 -0.0303
37533SOL    HW118562   1.025   2.440  10.098 -0.9468 -0.3571  0.2279
37533SOL    HW218563   0.896   2.495  10.041 -0.7447 -1.9700 -1.8813
37534SOL     OW18564   2.811   7.899   8.394  0.1286  0.5538 -0.2905
37534SOL    HW118565   2.735   7.920   8.448  0.3118 -0.4676  0.3877
37534SOL    HW218566   2.837   7.983   8.355 -0.8532  1.0500  0.0939
37535SOL     OW18567   4.972   3.910   4.465 -0.5232  0.7325  0.0561
37535SOL    HW118568   4.979   3.983   4.528  0.6775  1.3006 -0.6941
37535SOL    HW218569   5.040   3.848   4.492 -0.7041  0.4851 -0.0539
37536SOL     OW18570   5.031   7.096   8.020 -0.3135 -0.1451  0.5843
37536SOL    HW118571   5.116   7.053   8.018  0.2866  0.8169  2.2825
37536SOL    HW218572   4.971   7.031   8.057  0.0061 -0.3675  0.7121
37537SOL     OW18573   7.558   2.939   8.886 -0.6268  0.2255  0.2055
37537SOL    HW118574   7.599   2.990   8.815 -0.0359 -0.8782 -0.2665
37537SOL    HW218575   7.611   2.960   8.963 -0.3510  0.2904  0.0015
37538SOL     OW18576   8.051   3.218   3.233  0.6861  0.3264  0.5105
37538SOL    HW118577   7.962   3.192   3.213  0.4139  2.1108 -0.9457
37538SOL    HW218578   8.105   3.143   3.209 -0.3650 -0.5715  0.9027
37539SOL     OW18579   5.682  11.092  11.202 -0.0202 -0.0726 -0.3178
37539SOL    HW118580   5.660  11.138  11.283  0.8926 -0.5653  0.2248
37539SOL    HW218581   5.749  11.146  11.161  1.3360 -1.0677  0.5103
37540SOL     OW18582  12.100  11.093  11.687  0.2725  0.4719  0.0853
37540SOL    HW118583  12.121  11.186  11.689 -2.3343  1.1576  0.0151
37540SOL    HW218584  12.063  11.080  11.599  1.6668 -0.9399 -0.3356
37541SOL     OW18585  10.740   6.828   1.707 -0.3193 -0.5760  0.2685
37541SOL    HW118586  10.786   6.912   1.712  0.1438 -0.8142  0.0910
37541SOL    HW218587  10.755   6.798   1.617 -3.3905  0.7764 -0.8429
37542SOL     OW18588   7.390   0.298   1.253 -0.5381 -0.6552 -0.1716
37542SOL    HW118589   7.470   0.300   1.200 -0.1817 -1.0301  0.3361
37542SOL    HW218590   7.402   0.222   1.310  0.0836  0.9334  1.9576
37543SOL     OW18591   8.487   8.066   2.953 -0.7842 -0.2170  0.4978
37543SOL    HW118592   8.422   8.021   2.899 -1.7460 -0.8527  2.0942
37543SOL    HW218593   8.570   8.049   2.910 -1.6145  0.3769 -1.4562
37544SOL     OW18594  12.151   4.292   1.849  0.3614  0.1982  0.4769
37544SOL    HW118595  12.220   4.358   1.857 -0.2755  1.9321 -4.5706
37544SOL    HW218596  12.070   4.339   1.866  0.0483  0.3088 -1.1083
37545SOL     OW18597   7.316   7.157   8.767  1.1734 -0.0906  0.5013
37545SOL    HW118598   7.377   7.105   8.819  0.5283 -1.5729 -0.1869
37545SOL    HW218599   7.321   7.120   8.679 -0.8931 -0.4470  0.4799
37546SOL     OW18600   8.082   7.588   6.623 -0.0501  0.4717  0.5705
37546SOL    HW118601   8.024   7.526   6.667 -0.8050 -0.2160 -1.2976
37546SOL    HW218602   8.170   7.552   6.638 -0.0150  1.3774  3.1803
37547SOL     OW18603   4.447   7.401   8.727 -0.0145 -0.5297  0.8597
37547SOL    HW118604   4.481   7.369   8.811 -2.3792 -4.7183  0.4967
37547SOL    HW218605   4.352   7.400   8.738 -0.3357  0.0214 -1.4975
37548SOL     OW18606   4.246  10.138   1.764  0.3697  0.1451 -1.2246
37548SOL    HW118607   4.336  10.116   1.740  0.5335  0.5177 -0.9641
37548SOL    HW218608   4.250  10.155   1.858  0.4875  2.3672 -1.5800
37549SOL     OW18609   8.001   0.550   7.442 -0.1114  0.5721  0.1328
37549SOL    HW118610   8.095   0.538   7.455  0.3397  0.9888 -2.2663
37549SOL    HW218611   7.986   0.532   7.350 -2.8544 -1.8620  0.8872
37550SOL     OW18612   3.973   9.580   3.459 -0.1440 -0.4165 -0.1080
37550SOL    HW118613   4.001   9.664   3.423  1.4924 -1.3264 -1.0656
37550SOL    HW218614   3.921   9.541   3.389 -0.8744 -0.2391  0.3242
37551SOL     OW18615   3.874   3.842   3.917  0.4352  0.3060 -0.0767
37551SOL    HW118616   3.785   3.833   3.883  0.5877 -0.8309 -0.2058
37551SOL    HW218617   3.876   3.931   3.954 -0.6552  0.4548 -0.3260
37552SOL     OW18618  11.775   5.767   2.194  0.1311  0.6610 -0.1119
37552SOL    HW118619  11.732   5.764   2.279  0.2247  0.1791 -0.0812
37552SOL    HW218620  11.743   5.848   2.154  0.6517  1.2749  0.6825
37553SOL     OW18621   1.708   6.272   0.134 -0.2778  0.2975  0.2219
37553SOL    HW118622   1.749   6.198   0.180  1.9327  1.2222 -0.1225
37553SOL    HW218623   1.642   6.232   0.078 -1.5507 -1.0728  2.5266
37554SOL     OW18624   2.807   7.020   2.219  0.6553 -0.1568 -0.1482
37554SOL    HW118625   2.806   6.945   2.277 -0.7460  1.1262  1.6071
37554SOL    HW218626   2.843   6.987   2.136  2.1328 -2.1864  1.2311
37555SOL     OW18627   5.979   2.034   3.509  0.7098  0.0064 -0.8016
37555SOL    HW118628   5.938   2.004   3.590 -0.2438 -0.7155 -1.5248
37555SOL    HW218629   6.022   2.117   3.533  2.1735 -1.1596  0.9001
37556SOL     OW18630   4.853   8.998   9.423 -0.0489 -0.8008  0.0360
37556SOL    HW118631   4.873   9.082   9.381  1.8029 -1.4656 -0.5663
37556SOL    HW218632   4.760   8.985   9.408  0.1681 -0.1419 -2.3799
37557SOL     OW18633   8.965   9.133  12.056 -0.1713  0.6411  0.4588
37557SOL    HW118634   8.891   9.079  12.028 -0.4410  0.3868  1.5829
37557SOL    HW218635   8.926   9.218  12.077  0.2068  1.2126 -1.0156
37558SOL     OW18636   0.848   3.740   3.657 -0.6125 -0.0195  0.1259
37558SOL    HW118637   0.865   3.651   3.686  3.9334  0.4388 -0.4147
37558SOL    HW218638   0.831   3.788   3.738  1.8083 -0.5856  1.0508
37559SOL     OW18639  10.420   2.689   9.251  0.0247  0.2958 -0.0226
37559SOL    HW118640  10.431   2.615   9.311  1.4294  0.1955 -0.3648
37559SOL    HW218641  10.337   2.729   9.276 -1.7972 -2.5464 -1.1203
37560SOL     OW18642   8.080   7.473   3.151 -0.0305 -0.0623 -0.5874
37560SOL    HW118643   7.988   7.487   3.175 -0.1116  2.0403 -1.9829
37560SOL    HW218644   8.095   7.527   3.074  2.4784 -0.1380 -0.2535
37561SOL     OW18645   5.992  11.049   8.547  0.4574  0.5220  0.3384
37561SOL    HW118646   5.926  11.003   8.495  0.7745  0.1810  0.2373
37561SOL    HW218647   5.941  11.107   8.604 -0.0393 -1.0110  1.5201
37562SOL     OW18648   1.800   1.917   9.341 -0.6947  0.4162 -0.6960
37562SOL    HW118649   1.783   1.823   9.337 -0.7207  0.4474 -1.4758
37562SOL    HW218650   1.747   1.948   9.415  0.5976 -0.4354  0.6242
37563SOL     OW18651   5.815   4.152   3.821  0.4122 -0.1067  0.2591
37563SOL    HW118652   5.830   4.060   3.843  0.8279 -0.4302 -1.2606
37563SOL    HW218653   5.721   4.163   3.826 -0.0348 -1.5613 -2.7916
37564SOL     OW18654   9.959   6.507   3.408  0.0856  0.6852  0.3716
37564SOL    HW118655   9.991   6.532   3.322  1.0827  1.0269  0.8261
37564SOL    HW218656   9.915   6.423   3.395 -0.1897  0.9675 -0.5446
37565SOL     OW18657   4.250   3.721   0.633 -0.2395  0.3383  0.4059
37565SOL    HW118658   4.171   3.775   0.633  0.1408  0.9324  1.4736
37565SOL    HW218659   4.307   3.763   0.567 -0.0871  1.0429  0.9713
37566SOL     OW18660   9.488   1.149   4.346 -0.4426  0.3489 -0.3454
37566SOL    HW118661   9.405   1.137   4.300 -0.9737  0.0668  0.6734
37566SOL    HW218662   9.544   1.193   4.282 -1.5437  1.0385 -0.8682
37567SOL     OW18663   9.617   2.649   8.089  0.4199 -0.0738  0.6456
37567SOL    HW118664   9.571   2.606   8.161 -0.5549 -1.1805 -0.5927
37567SOL    HW218665   9.552   2.705   8.048 -0.2291 -2.3161 -1.6694
37568SOL     OW18666   2.449   5.795   2.431  0.3855  0.8026 -0.0040
37568SOL    HW118667   2.494   5.844   2.499 -0.2114  0.6892  0.4845
37568SOL    HW218668   2.357   5.793   2.460  0.1097  0.8027 -0.8335
37569SOL     OW18669   7.792   5.944  11.167  0.4141  0.9859  0.7412
37569SOL    HW118670   7.710   5.930  11.214 -0.0062  1.7274  0.2341
37569SOL    HW218671   7.820   6.031  11.193  2.3079 -0.1335  2.7988
37570SOL     OW18672  11.672   4.023   4.403  0.3775  0.0491 -0.2810
37570SOL    HW118673  11.623   3.957   4.354  0.5284  0.1078 -0.5116
37570SOL    HW218674  11.663   4.103   4.351  1.7140 -0.2156 -0.9420
37571SOL     OW18675   5.014   7.158   9.187  0.6021  0.1054  0.4385
37571SOL    HW118676   4.938   7.102   9.171  0.7283 -0.1365  0.6762
37571SOL    HW218677   5.040   7.137   9.276  0.3551  0.8968  0.7067
37572SOL     OW18678   8.394  12.162   2.687 -0.3364  0.0090  0.1999
37572SOL    HW118679   8.336  12.218   2.738 -1.0204  0.9112 -1.4816
37572SOL    HW218680   8.470  12.217   2.667 -0.7819  0.2247 -1.0289
37573SOL     OW18681   2.217   0.284   8.883 -0.1727 -0.4788  0.1961
37573SOL    HW118682   2.201   0.232   8.805  0.8267  0.3008 -0.5634
37573SOL    HW218683   2.307   0.317   8.872 -0.7543  1.4003  0.6133
37574SOL     OW18684   5.835   8.481   1.758  0.2813  0.0261  0.0590
37574SOL    HW118685   5.759   8.462   1.702  1.2432 -1.3133 -0.8418
37574SOL    HW218686   5.890   8.539   1.706  1.0109 -0.9421 -0.2712
37575SOL     OW18687   8.697  12.230  11.059  0.6047  0.5777 -0.0113
37575SOL    HW118688   8.763  12.291  11.090  0.7692  0.2715  0.2449
37575SOL    HW218689   8.747  12.156  11.025  0.4358  0.9130 -1.0310
37576SOL     OW18690   5.038   4.918   1.760  0.0386 -0.5286 -0.0537
37576SOL    HW118691   4.945   4.914   1.780  0.2314 -1.2806  0.7393
37576SOL    HW218692   5.080   4.864   1.827  0.8768 -1.7693 -1.5136
37577SOL     OW18693   0.425   9.372   7.220 -0.4039 -0.1694  0.3485
37577SOL    HW118694   0.385   9.457   7.200 -0.3778 -0.3415 -0.4885
37577SOL    HW218695   0.477   9.388   7.299 -0.0803  0.6903 -0.0197
37578SOL     OW18696   8.264   8.475   5.956  0.3183  0.4363  0.2254
37578SOL    HW118697   8.333   8.533   5.987  0.9026  0.0474 -0.3249
37578SOL    HW218698   8.291   8.387   5.983 -0.8557  0.4540  1.5814
37579SOL     OW18699   9.169   0.371   8.926  0.4238  0.4869  0.3028
37579SOL    HW118700   9.244   0.320   8.957  2.0987  1.5940 -1.7053
37579SOL    HW218701   9.207   0.445   8.879 -1.9430  2.2609  0.9750
37580SOL     OW18702   0.340   6.265   1.961  0.1459  0.1785  0.1743
37580SOL    HW118703   0.322   6.171   1.967 -0.8530  0.3467 -0.1532
37580SOL    HW218704   0.340   6.295   2.052  0.4689 -0.1312  0.2817
37581SOL     OW18705   3.497   0.027  10.657 -0.4705  0.0129  0.4802
37581SOL    HW118706   3.550   0.100  10.623 -0.2817 -0.8838 -1.2756
37581SOL    HW218707   3.415   0.032  10.608  0.4846 -2.3824 -1.5881
37582SOL     OW18708   0.732   5.258   0.396 -0.0812  0.4857  0.0996
37582SOL    HW118709   0.713   5.234   0.487 -0.0253  1.4115  0.3624
37582SOL    HW218710   0.825   5.282   0.396  0.1455 -0.3616 -0.3928
37583SOL     OW18711   8.669   2.733   8.582 -0.0917  0.4175 -0.6589
37583SOL    HW118712   8.735   2.727   8.513 -0.8590  0.0594 -1.3799
37583SOL    HW218713   8.654   2.827   8.593 -0.0496  0.4735 -1.0635
37584SOL     OW18714   2.786   4.498  11.415  0.2840 -0.1377  0.3796
37584SOL    HW118715   2.767   4.585  11.450  0.2176 -0.2186  0.5427
37584SOL    HW218716   2.881   4.497  11.404  0.3656 -0.3168  1.0947
37585SOL     OW18717   3.147   2.262   7.800  0.4645  0.2797 -0.3439
37585SOL    HW118718   3.066   2.310   7.778  0.2324 -0.5794 -1.4608
37585SOL    HW218719   3.203   2.274   7.723  0.4922 -1.0251 -0.5461
37586SOL     OW18720   7.286   6.257  12.267  0.0120  0.3080 -0.3732
37586SOL    HW118721   7.374   6.227  12.244 -0.4281 -0.2794 -1.3828
37586SOL    HW218722   7.243   6.179  12.304 -1.3861 -0.7137 -3.6968
37587SOL     OW18723   5.931  12.329   2.243  0.2479  0.3783 -0.3256
37587SOL    HW118724   5.841  12.312   2.214  0.2463 -1.9051  0.7691
37587SOL    HW218725   5.985  12.304   2.168  0.0192  1.3118 -0.8200
37588SOL     OW18726   2.447   4.397   5.854  0.1934  0.6715 -0.5573
37588SOL    HW118727   2.370   4.351   5.821  0.2651  0.4221 -0.3783
37588SOL    HW218728   2.438   4.486   5.819  0.6457  0.2263 -1.8722
37589SOL     OW18729  11.654   2.704   6.066  0.0512 -0.0983 -0.1270
37589SOL    HW118730  11.732   2.757   6.083 -0.9329  0.9978  1.2051
37589SOL    HW218731  11.618   2.739   5.985 -0.4277  1.1153  0.5884
37590SOL     OW18732   2.999   4.450   3.307  0.2900 -0.1596  0.7027
37590SOL    HW118733   2.953   4.367   3.299  0.6123 -0.4536  1.7859
37590SOL    HW218734   2.937   4.509   3.349  0.0954  0.1253  0.0239
37591SOL     OW18735   1.428   9.764  11.825 -0.5276 -0.3587  0.1447
37591SOL    HW118736   1.442   9.670  11.816 -3.1134 -0.7704 -0.4587
37591SOL    HW218737   1.452   9.783  11.916  1.5750 -1.2165 -0.1691
37592SOL     OW18738   2.912   0.269   7.201  0.2855  0.1550  0.3063
37592SOL    HW118739   2.862   0.188   7.191  2.2776 -0.8888 -2.3199
37592SOL    HW218740   2.973   0.252   7.272  0.6069 -0.6270 -0.1455
37593SOL     OW18741  10.189   2.757   6.647 -0.0884 -0.4097 -0.1288
37593SOL    HW118742  10.233   2.842   6.652  0.0842 -0.5619  1.3073
37593SOL    HW218743  10.259   2.694   6.662 -0.7452 -0.6538  2.3747
37594SOL     OW18744  11.144  10.825   1.050  0.0596 -0.5166  0.0129
37594SOL    HW118745  11.071  10.822   1.112  1.7627  0.0515  2.1642
37594SOL    HW218746  11.103  10.846   0.966 -2.2153 -0.0513  1.1533
37595SOL     OW18747   3.007  10.228   4.123  0.4407  0.5759  0.1345
37595SOL    HW118748   3.090  10.181   4.116  1.1141  1.6782  0.4375
37595SOL    HW218749   3.026  10.315   4.087  0.2394  1.8031  2.7834
37596SOL     OW18750   9.472   1.056   3.747 -0.1590 -0.0801 -0.5156
37596SOL    HW118751   9.391   1.089   3.708  1.1115  1.6665 -1.8383
37596SOL    HW218752   9.526   1.032   3.672  0.8877 -0.3475  0.3048
37597SOL     OW18753  11.451  11.550   8.041  0.5171  0.0343  0.1820
37597SOL    HW118754  11.374  11.583   8.088  0.2542  0.7962 -0.7556
37597SOL    HW218755  11.427  11.461   8.016  0.6101 -0.3395  1.3512
37598SOL     OW18756   6.324   1.496  10.887  0.1390  0.5339  0.6029
37598SOL    HW118757   6.301   1.543  10.967  0.2932  0.0271  0.9496
37598SOL    HW218758   6.385   1.428  10.916  0.8179  0.8421 -0.0620
37599SOL     OW18759   1.988   1.176   6.452  0.2931  1.4424 -0.1253
37599SOL    HW118760   1.898   1.200   6.432 -0.0452  0.6214  0.3557
37599SOL    HW218761   1.981   1.093   6.500  1.3876 -0.1355 -2.4405
37600SOL     OW18762   0.199   7.515   7.465 -0.2404 -0.1670  0.3818
37600SOL    HW118763   0.219   7.515   7.559  0.1636  2.1428  0.3711
37600SOL    HW218764   0.284   7.528   7.422 -0.3376 -1.8118 -0.3746
37601SOL     OW18765  11.484  11.622   5.132 -0.1304 -0.8409 -0.5391
37601SOL    HW118766  11.506  11.533   5.104 -0.2894 -0.6335 -1.3530
37601SOL    HW218767  11.410  11.646   5.077 -2.4361 -1.4758  2.0266
37602SOL     OW18768   3.519   5.428   4.302 -0.5327 -0.2360  0.0469
37602SOL    HW118769   3.526   5.501   4.363 -1.3218 -0.3078  0.2299
37602SOL    HW218770   3.582   5.363   4.335  0.3513  0.4444 -0.2606
37603SOL     OW18771   6.998  11.450   0.289 -0.0341 -0.9979  0.5562
37603SOL    HW118772   6.963  11.498   0.214  1.7862  1.2782  1.0723
37603SOL    HW218773   7.016  11.362   0.254  0.6529 -0.0445 -1.6964
37604SOL     OW18774  12.422  11.608   0.768 -0.0137 -0.1451  0.2643
37604SOL    HW118775  12.502  11.645   0.807 -0.6754  1.2248  0.3854
37604SOL    HW218776  12.421  11.643   0.679  1.0657 -2.6042 -0.8153
37605SOL     OW18777   7.570   8.237   8.127 -0.5936  0.7672  0.0764
37605SOL    HW118778   7.525   8.153   8.113 -0.4734  0.6082  0.6043
37605SOL    HW218779   7.500   8.302   8.123 -0.8594  0.5382  0.7141
37606SOL     OW18780   8.212   1.379  11.823 -0.1378 -0.1884  0.2503
37606SOL    HW118781   8.213   1.474  11.835  0.6343 -0.2332  0.5498
37606SOL    HW218782   8.259   1.345  11.899  0.8380 -0.7300 -0.5841
37607SOL     OW18783   3.889   0.923  12.276  0.4528 -0.3060  0.1828
37607SOL    HW118784   3.876   1.009  12.315  0.4049 -0.4153  0.4084
37607SOL    HW218785   3.982   0.904  12.290  0.1776 -0.8706  1.3255
37608SOL     OW18786  10.019   5.491   2.198  0.2145  0.0550  0.0328
37608SOL    HW118787  10.047   5.510   2.108  3.7546  0.5538  1.0945
37608SOL    HW218788  10.015   5.395   2.202  0.8544 -0.0011 -0.4642
37609SOL     OW18789   1.702  10.550   9.163 -0.4531 -0.3772 -0.0546
37609SOL    HW118790   1.621  10.500   9.153 -1.3707  0.6129  1.9144
37609SOL    HW218791   1.770  10.483   9.170 -0.8457 -1.2170 -3.0593
37610SOL     OW18792   3.270   9.979   6.763  0.5463  0.5837 -0.0946
37610SOL    HW118793   3.362   9.956   6.774  0.0717 -1.4943 -0.1110
37610SOL    HW218794   3.244   9.934   6.683 -0.8719 -0.2127  0.7784
37611SOL     OW18795  10.447  10.876   2.177  0.4280  0.3109  0.3089
37611SOL    HW118796  10.503  10.837   2.243 -0.9982 -2.2694  0.1106
37611SOL    HW218797  10.361  10.882   2.218 -0.6348 -1.8866 -1.3418
37612SOL     OW18798   9.970   3.064  10.931 -0.3996  0.2297 -0.2331
37612SOL    HW118799   9.989   3.097  11.019  1.3746 -0.1831 -0.4340
37612SOL    HW218800   9.955   3.142  10.878 -1.8928  0.4717  0.4895
37613SOL     OW18801  10.780   4.348   1.180 -0.1774  0.0390 -0.5300
37613SOL    HW118802  10.854   4.401   1.212  0.6991 -0.2014 -2.0182
37613SOL    HW218803  10.787   4.266   1.228  0.0953  0.2787 -0.1478
37614SOL     OW18804   2.928   6.379   5.217 -0.9602  0.0858 -0.3065
37614SOL    HW118805   2.988   6.452   5.230 -1.2629  0.0375  1.6248
37614SOL    HW218806   2.985   6.303   5.206 -0.6563  0.3449 -0.5231
37615SOL     OW18807   6.147   9.850  11.634  0.2309 -0.9583 -0.4872
37615SOL    HW118808   6.139   9.790  11.560  0.0558 -0.0945 -1.1895
37615SOL    HW218809   6.167   9.935  11.594  0.0660 -0.4621  0.4528
37616SOL     OW18810   1.502   3.872   2.449 -0.4255 -0.1623 -0.4173
37616SOL    HW118811   1.434   3.876   2.382 -0.4673  0.1038 -0.3636
37616SOL    HW218812   1.541   3.785   2.440  2.0036  1.0434 -3.1556
37617SOL     OW18813   0.380   5.200   0.326  0.4704 -0.1094  0.3058
37617SOL    HW118814   0.349   5.192   0.417  0.4807  0.9222  0.4083
37617SOL    HW218815   0.373   5.294   0.307 -1.3962 -0.5278 -1.4281
37618SOL     OW18816   6.204   1.153   8.351 -0.0231 -0.0704 -0.2203
37618SOL    HW118817   6.253   1.222   8.396 -0.3797 -0.0628  0.1574
37618SOL    HW218818   6.123   1.196   8.323 -0.2687 -0.3478  0.0597
37619SOL     OW18819  11.459   0.720   7.884  0.4246 -0.4805  0.0004
37619SOL    HW118820  11.550   0.705   7.906  0.4170 -0.2741  0.1722
37619SOL    HW218821  11.462   0.767   7.801  0.4110 -3.4524 -1.8459
37620SOL     OW18822   5.457  12.449   4.549 -0.4714  0.3086 -0.1163
37620SOL    HW118823   5.458  12.361   4.513  1.4405 -0.0518  0.7078
37620SOL    HW218824   5.509  12.501   4.488  1.4335  0.0354  1.1783
37621SOL     OW18825  10.370   3.910  11.990 -0.1242 -0.1530  0.2192
37621SOL    HW118826  10.418   3.829  11.976 -1.7027 -0.9869 -0.6028
37621SOL    HW218827  10.406   3.971  11.925  0.0092 -0.6862 -0.2148
37622SOL     OW18828  10.441   8.415   4.408  0.5625 -0.0037 -0.1711
37622SOL    HW118829  10.534   8.410   4.385  0.4418  0.6161 -0.8216
37622SOL    HW218830  10.436   8.488   4.471  0.1361  1.9213 -2.3030
37623SOL     OW18831   4.279   4.910  10.023 -0.0947  0.0968  0.3535
37623SOL    HW118832   4.280   4.965  10.101  1.2590  0.4266  0.1235
37623SOL    HW218833   4.367   4.871  10.019 -0.2252 -0.1368 -0.8426
37624SOL     OW18834   2.308   5.102   3.190 -0.5780 -0.6570  0.1524
37624SOL    HW118835   2.229   5.069   3.147 -0.2664 -0.4219 -0.6302
37624SOL    HW218836   2.350   5.157   3.123  0.7374 -1.5406  0.2115
37625SOL     OW18837   1.358   2.284   9.865 -0.0665  0.4275 -0.2060
37625SOL    HW118838   1.452   2.283   9.883 -0.4333  0.0806  1.9564
37625SOL    HW218839   1.340   2.199   9.826  0.3181 -0.0927  0.7075
37626SOL     OW18840   6.677  10.350   5.803 -0.3098  0.3263  0.8972
37626SOL    HW118841   6.602  10.362   5.861 -1.9167 -1.3041 -0.6986
37626SOL    HW218842   6.743  10.308   5.857 -0.9729  0.7318  2.0513
37627SOL     OW18843  11.987  10.482   9.046  0.1716 -0.3427 -0.0532
37627SOL    HW118844  11.974  10.502   8.954  0.1403 -1.7356 -0.3716
37627SOL    HW218845  11.940  10.552   9.092  0.1928  0.3691 -1.0725
37628SOL     OW18846   6.697  11.565  10.716 -0.7297 -0.6201  0.3496
37628SOL    HW118847   6.772  11.623  10.707 -0.9778 -0.5269 -1.3432
37628SOL    HW218848   6.730  11.478  10.693 -1.3749 -0.3826 -1.6716
37629SOL     OW18849   9.397   1.089   1.504  0.1307 -0.7354  0.4080
37629SOL    HW118850   9.451   1.165   1.483 -1.7835  0.5830 -0.1231
37629SOL    HW218851   9.374   1.100   1.597 -1.4598  0.3090 -0.0571
37630SOL     OW18852  11.297  10.905  10.048  0.0053 -0.2183 -0.1292
37630SOL    HW118853  11.357  10.952   9.991  0.8272 -1.4920 -0.3456
37630SOL    HW218854  11.354  10.859  10.109 -0.8355  0.3512  1.1262
37631SOL     OW18855   9.467   8.011   2.061  0.4616 -0.0187  0.0963
37631SOL    HW118856   9.509   7.960   2.130  0.1510  1.4034  1.3934
37631SOL    HW218857   9.374   8.010   2.084  0.5235  1.6188  0.5282
37632SOL     OW18858   1.747   0.387   3.780 -0.1153 -0.3092  0.5459
37632SOL    HW118859   1.792   0.454   3.831  1.7740 -1.6925  0.8004
37632SOL    HW218860   1.654   0.402   3.797  0.3422  1.0433  2.0776
37633SOL     OW18861   7.442   9.384   0.511 -0.4258  0.6427  0.2292
37633SOL    HW118862   7.411   9.460   0.560 -0.0705  0.5666  0.5773
37633SOL    HW218863   7.531   9.406   0.486  0.2085 -0.2419  1.6035
37634SOL     OW18864   5.791   3.946   4.169 -0.1923  0.5243  0.6378
37634SOL    HW118865   5.851   4.020   4.162  1.4468 -0.5673  2.3617
37634SOL    HW218866   5.847   3.870   4.183 -1.9272 -0.6688  1.4689
37635SOL     OW18867   2.243   1.998   1.139  0.0336 -0.3101  0.3348
37635SOL    HW118868   2.333   2.027   1.152  0.2567 -1.2095  0.9474
37635SOL    HW218869   2.216   2.037   1.056 -0.0758  2.4710  1.5889
37636SOL     OW18870   1.195   6.428   0.118 -0.2919  0.9245 -0.1399
37636SOL    HW118871   1.256   6.454   0.187  0.2692  0.0211 -0.2729
37636SOL    HW218872   1.109   6.435   0.159  0.1268 -1.5779  1.4034
37637SOL     OW18873   6.938   3.339   5.150  0.3922 -0.0801 -0.2861
37637SOL    HW118874   6.933   3.254   5.193  0.0062 -0.4258 -1.0059
37637SOL    HW218875   6.874   3.393   5.197  0.8475 -0.0976  0.3606
37638SOL     OW18876   9.356   2.952   9.625  0.2745 -0.3535  0.2525
37638SOL    HW118877   9.391   2.940   9.537 -0.8828 -0.0027 -0.2778
37638SOL    HW218878   9.429   2.986   9.676  0.5850  0.8281 -0.9342
37639SOL     OW18879  10.361   9.438   9.907  0.2048  0.0706 -0.0571
37639SOL    HW118880  10.266   9.428   9.896  0.1759 -0.9780  0.9812
37639SOL    HW218881  10.370   9.512   9.968  0.1632  1.6568 -1.8896
37640SOL     OW18882   2.907   3.644   2.738 -0.4869  0.0392 -0.0716
37640SOL    HW118883   3.000   3.625   2.755 -0.7163  0.1830  1.4941
37640SOL    HW218884   2.894   3.619   2.647  0.9971 -0.3637 -0.2047
37641SOL     OW18885   9.094   4.845  12.448 -0.2930  0.0402 -0.2908
37641SOL    HW118886   9.130   4.862  12.534  0.9166  0.3534 -0.8447
37641SOL    HW218887   9.168   4.851  12.388 -1.2032  0.4149 -1.4327
37642SOL     OW18888   2.787   5.149   8.291 -0.3573 -0.0901  0.0658
37642SOL    HW118889   2.855   5.150   8.224  0.3033  0.3837  0.7180
37642SOL    HW218890   2.835   5.134   8.373 -1.2356 -1.5536  0.3467
37643SOL     OW18891   6.059  11.925   1.633  0.1593 -0.3697 -0.5975
37643SOL    HW118892   6.147  11.962   1.634  0.1962 -0.3241  1.9965
37643SOL    HW218893   6.004  11.992   1.673 -0.8677 -0.8482 -1.1573
37644SOL     OW18894  12.266   3.622  11.829  0.1946  0.0086  0.1589
37644SOL    HW118895  12.345   3.676  11.830 -0.2768  0.7237  1.4915
37644SOL    HW218896  12.203   3.673  11.779  0.1286  0.1106  0.3465
37645SOL     OW18897  10.073   8.954   6.528  0.1655 -0.3475  0.3182
37645SOL    HW118898  10.095   8.900   6.452 -0.1369 -1.1195  0.7658
37645SOL    HW218899  10.108   9.041   6.507  1.1864 -0.8552 -0.1670
37646SOL     OW18900  11.226  11.928   0.212  0.0688  0.0454  0.2037
37646SOL    HW118901  11.149  11.883   0.247  0.4710 -1.5843 -0.9019
37646SOL    HW218902  11.286  11.857   0.187  0.6308  1.1866 -1.8570
37647SOL     OW18903   5.371   7.991   8.614 -0.2556 -0.3444  0.1086
37647SOL    HW118904   5.340   8.013   8.526  1.4638 -0.2354 -0.4875
37647SOL    HW218905   5.416   7.907   8.605 -0.3501 -0.5066  0.9675
37648SOL     OW18906  12.059   8.412  10.952 -0.4881  0.9231 -0.4947
37648SOL    HW118907  12.080   8.478  11.019 -1.6078  0.0034  0.8318
37648SOL    HW218908  12.016   8.342  11.001 -1.1437  0.1075 -2.1715
37649SOL     OW18909   9.600   2.940   3.516  0.6006 -1.3706  0.4169
37649SOL    HW118910   9.641   2.950   3.603 -0.7577 -1.6067  1.1128
37649SOL    HW218911   9.575   2.847   3.512 -1.7391 -0.8094  0.9105
37650SOL     OW18912   8.155   2.130  12.149  0.1978 -0.1949 -0.2810
37650SOL    HW118913   8.146   2.089  12.235  0.6130 -0.5013 -0.3808
37650SOL    HW218914   8.087   2.089  12.095  0.3277 -0.4297 -0.2624
37651SOL     OW18915   8.738  11.837  10.246 -0.0948 -0.3953 -0.3756
37651SOL    HW118916   8.780  11.913  10.286  0.8456 -1.3157  0.4412
37651SOL    HW218917   8.772  11.835  10.157  1.7898 -1.2056  0.3137
37652SOL     OW18918  12.386   8.512  12.162 -0.3162  0.2342 -0.5719
37652SOL    HW118919  12.436   8.510  12.081 -0.1235  1.1451 -0.4914
37652SOL    HW218920  12.409   8.596  12.202 -1.5299  0.4540 -0.2939
37653SOL     OW18921   0.271   8.952   3.443 -0.3590 -0.0827 -0.4603
37653SOL    HW118922   0.193   8.907   3.410 -1.3464  1.6041 -0.5144
37653SOL    HW218923   0.262   8.948   3.539 -0.8574  0.6737 -0.4715
37654SOL     OW18924   4.304   1.535   8.312 -1.0016  0.0705  0.3799
37654SOL    HW118925   4.270   1.446   8.302 -0.2173 -0.0374 -1.8937
37654SOL    HW218926   4.227   1.591   8.305 -1.4196 -0.3760  1.2063
37655SOL     OW18927  11.552   6.421   9.002  0.6521 -0.1571 -0.8458
37655SOL    HW118928  11.611   6.497   9.005 -0.8920  1.0957 -1.1781
37655SOL    HW218929  11.566   6.383   8.915 -0.9030  1.7169 -1.9686
37656SOL     OW18930   1.704  12.066   2.256 -0.1622 -0.0499 -0.2667
37656SOL    HW118931   1.751  12.027   2.330 -0.8229 -0.8057 -0.2236
37656SOL    HW218932   1.743  12.025   2.179 -0.1315  0.0113 -0.2836
37657SOL     OW18933  11.535  11.211   0.550 -0.1287 -0.0431  0.4509
37657SOL    HW118934  11.489  11.172   0.625  0.1395 -1.1890  0.0327
37657SOL    HW218935  11.561  11.136   0.497  3.4495  0.4063  1.3557
37658SOL     OW18936   3.940   3.735  11.080 -0.1748 -0.2527 -0.0695
37658SOL    HW118937   3.876   3.708  11.146 -1.5133 -1.0579 -1.6153
37658SOL    HW218938   4.009   3.779  11.129 -1.8135  0.4540  1.6901
37659SOL     OW18939   1.920   8.524  12.109 -0.3267 -0.1317 -0.1542
37659SOL    HW118940   1.950   8.439  12.077 -0.9149 -0.9588  1.4058
37659SOL    HW218941   1.862   8.503  12.182  0.0731  1.6280  0.7133
37660SOL     OW18942   0.037   0.156   8.410  0.0462  0.3631 -0.0694
37660SOL    HW118943   0.092   0.170   8.488 -0.2435 -1.2550  0.4690
37660SOL    HW218944  -0.051   0.183   8.438 -0.1162 -0.5064  0.2766
37661SOL     OW18945  11.581   9.187  11.150 -0.5586  0.4317  0.0984
37661SOL    HW118946  11.490   9.166  11.127 -0.3486 -1.1450  0.6053
37661SOL    HW218947  11.583   9.187  11.246 -0.1093  0.9060  0.0964
37662SOL     OW18948   9.442   7.606   8.028  0.6821 -0.3996 -0.1944
37662SOL    HW118949   9.358   7.624   8.072  1.2446 -0.1373  0.8083
37662SOL    HW218950   9.490   7.688   8.035  1.5630 -0.9594  0.4820
37663SOL     OW18951   6.581   1.968   4.652  0.2572 -0.0541 -0.4903
37663SOL    HW118952   6.553   1.993   4.740 -2.4927 -1.2085 -0.9245
37663SOL    HW218953   6.654   1.907   4.666 -0.0659 -0.1360  0.9846
37664SOL     OW18954   4.409   6.145   6.810 -0.0841  0.3476  0.0556
37664SOL    HW118955   4.409   6.049   6.808  1.7158  0.3058 -1.6711
37664SOL    HW218956   4.489   6.168   6.856 -0.8860  1.0645  1.1354
37665SOL     OW18957   5.625   2.205   6.455  0.3766  0.1221  0.0463
37665SOL    HW118958   5.586   2.120   6.435 -0.5220 -0.1296  2.4674
37665SOL    HW218959   5.575   2.237   6.531  1.0709  2.5547 -0.4292
37666SOL     OW18960   1.866   4.472   2.639 -0.1477 -0.6982  0.4026
37666SOL    HW118961   1.824   4.391   2.668 -0.4392 -0.2602  1.2436
37666SOL    HW218962   1.929   4.444   2.572 -1.5526 -1.3951 -0.6684
37667SOL     OW18963  11.033  10.660   2.923 -0.1009 -0.4496 -0.0041
37667SOL    HW118964  10.990  10.680   3.006  0.1895  2.2955 -0.4091
37667SOL    HW218965  11.029  10.742   2.874  3.5672 -0.6744 -0.9800
37668SOL     OW18966   3.334   7.720   7.482  1.0624 -0.2798 -0.3051
37668SOL    HW118967   3.354   7.745   7.391  2.1675  0.0481  0.0006
37668SOL    HW218968   3.313   7.803   7.525 -0.2565 -0.5330 -0.4327
37669SOL     OW18969   8.868   4.924   0.744  0.3712  0.1057 -0.3311
37669SOL    HW118970   8.813   4.904   0.668  0.2555  1.1719 -0.5534
37669SOL    HW218971   8.893   5.016   0.731 -0.8024  0.7634  1.6219
37670SOL     OW18972   3.181   0.767   4.805  0.7819  0.3098  0.3643
37670SOL    HW118973   3.090   0.787   4.781 -0.2064 -1.9559  1.9337
37670SOL    HW218974   3.229   0.774   4.722 -0.4290  3.1639 -0.2284
37671SOL     OW18975   8.807  11.523   7.702 -0.4729 -0.3929  0.2927
37671SOL    HW118976   8.722  11.490   7.731 -1.0114 -0.5646 -1.3521
37671SOL    HW218977   8.787  11.577   7.626  0.9870 -1.3525 -0.8378
37672SOL     OW18978   0.682   6.351   1.582 -0.2571 -0.1462 -0.0027
37672SOL    HW118979   0.588   6.355   1.602 -0.2950 -1.8061  0.3287
37672SOL    HW218980   0.714   6.440   1.595 -2.0536  0.7920 -1.5476
37673SOL     OW18981   0.109   2.525  10.326 -0.1435 -0.1863 -0.7799
37673SOL    HW118982   0.076   2.614  10.316 -0.3806 -0.1213  0.4366
37673SOL    HW218983   0.177   2.532  10.393 -1.0586 -1.1131  0.2941
37674SOL     OW18984  10.513   6.428   3.212  0.2267 -0.1425  0.3204
37674SOL    HW118985  10.568   6.404   3.137  0.3502 -2.5795  1.1199
37674SOL    HW218986  10.575   6.449   3.282  0.0988  0.7399  0.1904
37675SOL     OW18987   7.370   4.182   7.300  0.2278  0.0172 -0.8028
37675SOL    HW118988   7.411   4.129   7.231 -1.1559 -0.9355 -0.9242
37675SOL    HW218989   7.278   4.157   7.298 -0.1519  1.2487  0.2534
37676SOL     OW18990   9.512   8.373   2.285 -0.0317  0.4584 -0.7689
37676SOL    HW118991   9.507   8.316   2.208 -1.1524  0.2115 -0.5278
37676SOL    HW218992   9.431   8.355   2.334  0.8883  0.2002  0.7505
37677SOL     OW18993   5.857  11.073   4.628  0.3884  0.1671 -0.4740
37677SOL    HW118994   5.899  11.132   4.565  0.2461  0.6564 -0.1248
37677SOL    HW218995   5.814  11.006   4.575 -0.0831  0.8048 -0.9121
37678SOL     OW18996   0.215   9.334   5.586 -0.3792  0.1877  0.4596
37678SOL    HW118997   0.296   9.289   5.562 -0.0157  0.0469  1.8439
37678SOL    HW218998   0.202   9.312   5.678 -1.7546  0.5826  0.3895
37679SOL     OW18999   6.308   0.699   2.257  0.2216 -0.1556 -0.4934
37679SOL    HW119000   6.299   0.663   2.345  1.3967  0.3753 -0.1383
37679SOL    HW219001   6.220   0.731   2.235  0.2223  1.0545  1.0934
37680SOL     OW19002  11.863   6.298   8.570 -0.6693  0.3216 -0.8503
37680SOL    HW119003  11.790   6.332   8.519 -0.8469 -0.4211 -1.1120
37680SOL    HW219004  11.876   6.209   8.536  1.2610  0.9032 -1.7680
37681SOL     OW19005  12.138   8.209  10.458 -0.0734 -0.0207  0.5766
37681SOL    HW119006  12.157   8.298  10.431  0.0631 -0.5797 -1.3432
37681SOL    HW219007  12.197   8.193  10.532 -0.3080  1.5420  1.1282
37682SOL     OW19008   4.081   9.903   2.810  0.2233 -0.4820 -0.3991
37682SOL    HW119009   4.037   9.838   2.866 -1.0632  1.4868  1.0472
37682SOL    HW219010   4.012   9.936   2.753  0.7244 -0.0067 -0.7395
37683SOL     OW19011  11.042  11.528   9.598  0.4412 -0.0653 -0.0284
37683SOL    HW119012  11.036  11.574   9.514  0.9521  0.6613  0.3285
37683SOL    HW219013  11.131  11.544   9.628  0.5754 -1.1405  0.1981
37684SOL     OW19014   6.761   4.320   1.583  0.5643  0.4918  0.0152
37684SOL    HW119015   6.777   4.291   1.673 -1.7015  2.1692  1.0852
37684SOL    HW219016   6.687   4.265   1.554  0.6254  0.6503 -0.4369
37685SOL     OW19017   8.416   3.964   2.290  0.4679 -0.1406 -0.2360
37685SOL    HW119018   8.471   3.887   2.305  1.7532  0.6680 -0.5731
37685SOL    HW219019   8.431   3.987   2.198  0.1122  0.5050 -0.1409
37686SOL     OW19020   7.834   0.427   7.912 -0.3312  0.2080  0.3534
37686SOL    HW119021   7.793   0.510   7.890 -0.8240 -0.0720  0.2194
37686SOL    HW219022   7.923   0.434   7.875 -0.5495  0.4595 -0.1292
37687SOL     OW19023   2.802   6.643   5.034 -0.0027 -0.2199 -0.3819
37687SOL    HW119024   2.803   6.618   4.941 -0.9543  0.9930 -0.7520
37687SOL    HW219025   2.890   6.623   5.065  0.0083 -1.6625 -1.2540
37688SOL     OW19026   2.652   9.482   5.801  0.4618  0.3927  0.1001
37688SOL    HW119027   2.732   9.430   5.800  0.0611 -0.2679 -1.5690
37688SOL    HW219028   2.593   9.434   5.859  0.4218 -0.5231 -0.6762
37689SOL     OW19029   9.462   9.991   0.546  0.0983  0.5538  0.0850
37689SOL    HW119030   9.516   9.979   0.624  0.4977 -0.6385 -0.3589
37689SOL    HW219031   9.397   9.921   0.551  0.4196  0.1713 -0.8956
37690SOL     OW19032   5.133   1.928   3.044 -0.1341 -0.5440  0.1420
37690SOL    HW119033   5.193   1.884   3.104  1.0341 -0.3805 -0.8619
37690SOL    HW219034   5.153   2.021   3.054 -0.4421 -0.4616  0.0162
37691SOL     OW19035   6.670   5.637   2.277 -0.1874 -0.3071 -0.6099
37691SOL    HW119036   6.636   5.712   2.325 -1.2933 -0.6618 -0.8210
37691SOL    HW219037   6.750   5.670   2.235  0.1571  0.3234  0.5098
37692SOL     OW19038   1.413  10.609   6.323  0.5629  0.1487  0.5954
37692SOL    HW119039   1.405  10.694   6.365 -1.1095  0.3405 -0.0525
37692SOL    HW219040   1.384  10.546   6.388 -1.5033  0.3996 -0.0244
37693SOL     OW19041   4.797  10.043   1.630  0.1656  0.2649 -0.4429
37693SOL    HW119042   4.843  10.113   1.675 -2.1688  1.5106  0.2013
37693SOL    HW219043   4.834   9.962   1.666 -0.2841  1.2024  2.3663
37694SOL     OW19044   9.115   5.181  11.934  0.9705  0.0760  0.4464
37694SOL    HW119045   9.146   5.248  11.995  2.6576 -1.5504  1.4603
37694SOL    HW219046   9.091   5.107  11.989 -1.0137 -0.1618 -0.6424
37695SOL     OW19047   8.406   7.071   0.414 -0.3201 -0.8150  0.1857
37695SOL    HW119048   8.407   7.166   0.425 -1.5458 -0.5482 -1.5810
37695SOL    HW219049   8.414   7.036   0.503  3.2192  0.8554  0.6997
37696SOL     OW19050   1.629   7.859   4.926  0.3316 -0.3247 -0.0229
37696SOL    HW119051   1.657   7.933   4.872  0.8258  0.2498  0.9934
37696SOL    HW219052   1.610   7.898   5.012 -0.0913 -1.2679  0.3202
37697SOL     OW19053  11.272  11.480   6.313 -0.1988 -0.5518 -0.5392
37697SOL    HW119054  11.330  11.544   6.270 -0.3853 -0.8683 -1.2696
37697SOL    HW219055  11.330  11.432   6.372 -0.4027  1.6263  1.5972
37698SOL     OW19056   9.512   9.747   0.914 -0.0404 -0.0983  0.2764
37698SOL    HW119057   9.605   9.754   0.934 -0.3274  0.6831  1.4128
37698SOL    HW219058   9.502   9.660   0.875  1.2937  0.1621 -0.6900
37699SOL     OW19059   2.163   5.433   2.431  0.2689  0.2947 -0.2427
37699SOL    HW119060   2.147   5.527   2.422  0.6284  0.5653  1.4944
37699SOL    HW219061   2.088   5.401   2.481 -0.7026 -0.7015 -2.2354
37700SOL     OW19062  11.958   3.795   4.839  0.1069  0.1008 -0.2705
37700SOL    HW119063  11.877   3.829   4.877 -1.2901 -3.3020  0.0563
37700SOL    HW219064  11.931   3.729   4.776  2.6234 -1.0526 -0.2842
37701SOL     OW19065   6.329   2.319  12.133  0.3823  0.0883 -0.1351
37701SOL    HW119066   6.290   2.311  12.220  0.3618  0.7601 -0.0759
37701SOL    HW219067   6.261   2.359  12.080  0.9484  1.2355 -0.0390
37702SOL     OW19068   0.711   4.954  11.941 -0.0041 -0.3347  0.2155
37702SOL    HW119069   0.667   5.030  11.980 -0.6360 -0.6812  0.1963
37702SOL    HW219070   0.778   4.930  12.006  1.2613  1.1540 -0.4560
37703SOL     OW19071  10.146   5.702   3.072 -0.3524  0.3089 -0.0894
37703SOL    HW119072  10.083   5.707   3.143  0.2590  0.6751  0.4361
37703SOL    HW219073  10.211   5.769   3.093  1.0564 -1.0798  0.2037
37704SOL     OW19074   9.994   6.769   9.918 -0.4350  0.1855 -0.0198
37704SOL    HW119075   9.971   6.686   9.877  0.2794 -0.2675  0.4722
37704SOL    HW219076  10.009   6.747  10.010  3.7336 -0.0013 -0.5534
37705SOL     OW19077  10.257   3.525   3.035 -1.0039  0.1934 -1.2530
37705SOL    HW119078  10.284   3.614   3.011  0.6017  0.4400  1.1352
37705SOL    HW219079  10.302   3.469   2.972  0.9815  0.9275 -0.5618
37706SOL     OW19080   0.630  11.918  12.407 -0.3275 -0.3831  0.1562
37706SOL    HW119081   0.660  12.003  12.375 -0.6474 -0.6673 -0.9407
37706SOL    HW219082   0.711  11.871  12.427 -0.1278 -0.1215 -0.0242
37707SOL     OW19083  10.004  10.392   5.104  0.1542 -0.6266 -0.6171
37707SOL    HW119084  10.062  10.395   5.028 -0.4357 -0.6835 -1.0678
37707SOL    HW219085  10.028  10.470   5.155  1.5108 -1.3170 -0.1420
37708SOL     OW19086   4.521   2.047   3.415 -0.2679 -0.3555  0.4210
37708SOL    HW119087   4.595   2.103   3.438  0.5338 -0.6573 -1.3000
37708SOL    HW219088   4.444   2.102   3.427  0.3110  0.3283  1.1078
37709SOL     OW19089   7.290   0.460   4.040 -0.5747  0.4282 -0.4211
37709SOL    HW119090   7.302   0.396   3.970  0.8624  0.0820  0.1192
37709SOL    HW219091   7.267   0.409   4.117  3.1223  0.1725  0.6861
37710SOL     OW19092   6.091  11.107   5.279 -0.2223 -0.7453 -0.1104
37710SOL    HW119093   6.155  11.039   5.300  3.6135  2.3469 -0.6220
37710SOL    HW219094   6.075  11.098   5.185  0.1893 -0.9673 -0.1578
37711SOL     OW19095  10.539   4.929   8.581 -0.4140  0.1548  0.0931
37711SOL    HW119096  10.629   4.899   8.592  0.4110  2.1243 -0.7818
37711SOL    HW219097  10.524   4.923   8.486 -0.5638  1.4392  0.0187
37712SOL     OW19098   5.848   7.149   8.265  0.4347 -0.6686 -0.1402
37712SOL    HW119099   5.854   7.244   8.275 -1.4368 -0.7289  3.2117
37712SOL    HW219100   5.937   7.118   8.280  0.9948  0.4988 -0.8694
37713SOL     OW19101   7.563   2.191   1.368  0.0857 -0.5083  0.0054
37713SOL    HW119102   7.514   2.203   1.449 -1.9395 -2.0636 -0.8955
37713SOL    HW219103   7.647   2.155   1.395 -0.2121 -0.1435  1.4552
37714SOL     OW19104   7.610   9.539   0.099  0.2753  0.3978  0.5227
37714SOL    HW119105   7.673   9.583   0.042 -0.5320  1.1492  0.1877
37714SOL    HW219106   7.552   9.609   0.130 -1.4529 -0.4837 -0.5612
37715SOL     OW19107   0.585   9.553  10.110  0.1161 -0.4235  0.5991
37715SOL    HW119108   0.642   9.624  10.140  1.8954 -1.7288  0.5154
37715SOL    HW219109   0.522   9.595  10.052  2.8521  0.7713 -1.7761
37716SOL     OW19110   8.917   6.624  10.147  0.3866 -0.9687  0.3866
37716SOL    HW119111   8.921   6.677  10.227 -1.3568  0.6401 -0.5055
37716SOL    HW219112   8.973   6.671  10.085  0.1102 -1.0665  0.0634
37717SOL     OW19113   6.712   7.484  10.425 -0.1978 -0.1703  0.3649
37717SOL    HW119114   6.717   7.521  10.336  1.7195 -0.8605  0.1486
37717SOL    HW219115   6.675   7.555  10.478  0.2728  0.8777 -0.6586
37718SOL     OW19116   2.133   1.785   5.776  0.0741  0.3498  0.4333
37718SOL    HW119117   2.192   1.710   5.770 -0.1075  0.2949 -1.4167
37718SOL    HW219118   2.183   1.858   5.739 -1.2470  0.0843 -2.1337
37719SOL     OW19119   8.451   1.929   6.430  0.3235 -0.2803  0.1073
37719SOL    HW119120   8.486   1.931   6.520  0.4991  4.4160  0.2237
37719SOL    HW219121   8.530   1.928   6.375  0.3401  0.1746  0.1182
37720SOL     OW19122  10.783   8.610   0.640 -0.2277 -0.1134  0.2928
37720SOL    HW119123  10.821   8.614   0.552 -0.3863  0.9994  0.2541
37720SOL    HW219124  10.780   8.517   0.661 -2.5290 -0.6241 -1.8721
37721SOL     OW19125   5.511   3.814   9.666  0.4558 -0.2484  0.3648
37721SOL    HW119126   5.512   3.909   9.673  0.4696 -0.1668 -0.5690
37721SOL    HW219127   5.420   3.789   9.685  0.2609  0.0306 -0.1630
37722SOL     OW19128   1.811   9.935   4.721  0.1488 -0.3196  0.3095
37722SOL    HW119129   1.813  10.029   4.704  1.6834  0.2299  2.8996
37722SOL    HW219130   1.758   9.898   4.650 -1.2271  2.5676 -0.3002
37723SOL     OW19131   2.846   0.587   1.296  0.0009  0.0359  0.0308
37723SOL    HW119132   2.853   0.622   1.207  0.1134 -0.1543 -0.0376
37723SOL    HW219133   2.857   0.493   1.285 -0.5817 -0.0533  0.1796
37724SOL     OW19134  12.164   5.763   6.534 -0.3337  0.0314  0.4927
37724SOL    HW119135  12.084   5.722   6.502 -0.4511 -0.9309  1.9623
37724SOL    HW219136  12.230   5.741   6.468 -1.2734  0.9737 -0.8219
37725SOL     OW19137  10.575   7.820  11.020 -0.1018  0.7620 -0.1320
37725SOL    HW119138  10.606   7.839  10.931  0.7474 -1.3702 -0.3489
37725SOL    HW219139  10.500   7.763  11.007  0.2423  0.1514  0.5121
37726SOL     OW19140  10.635   5.302  10.025  0.2693 -0.4991 -0.0257
37726SOL    HW119141  10.683   5.222  10.046  0.6853 -0.6331 -1.3520
37726SOL    HW219142  10.678   5.335   9.946 -0.4761  0.5437 -0.0123
37727SOL     OW19143   8.307   5.894   2.870 -0.1718 -0.4497  0.5093
37727SOL    HW119144   8.357   5.975   2.875 -1.4615  0.4368 -0.4681
37727SOL    HW219145   8.366   5.827   2.906  1.1886  0.7791  0.6378
37728SOL     OW19146   9.705   8.232   3.621  0.2253 -0.6157 -0.0328
37728SOL    HW119147   9.712   8.184   3.538 -1.5258 -1.3288  0.1733
37728SOL    HW219148   9.642   8.302   3.602 -1.1870 -1.5594  0.9785
37729SOL     OW19149  10.567   9.775   7.218  0.3701 -0.2849 -0.3199
37729SOL    HW119150  10.551   9.681   7.210  2.1957 -0.5485 -1.3558
37729SOL    HW219151  10.591   9.803   7.130  1.2902  0.8460  0.2641
37730SOL     OW19152   0.554   7.833   5.205 -0.0516 -0.3089 -0.8764
37730SOL    HW119153   0.489   7.765   5.220 -0.7648  0.1968 -1.6153
37730SOL    HW219154   0.590   7.852   5.292 -3.1192  1.6166  0.1297
37731SOL     OW19155   3.414   1.110   1.116  0.2022 -0.3090 -0.2705
37731SOL    HW119156   3.452   1.196   1.134  0.9318 -0.8668  1.0173
37731SOL    HW219157   3.489   1.051   1.113 -0.3549 -1.0226 -0.3262
37732SOL     OW19158   9.606   8.678  11.956  0.2124  0.0965  0.1044
37732SOL    HW119159   9.577   8.767  11.939  0.6742 -0.0790 -1.8199
37732SOL    HW219160   9.700   8.679  11.937  0.3998 -0.6270  0.8969
37733SOL     OW19161   0.771   8.770   2.971  0.0396  0.9497 -0.3470
37733SOL    HW119162   0.865   8.755   2.973 -0.0247 -0.5898 -3.1200
37733SOL    HW219163   0.760   8.850   2.919 -0.2102  0.7643 -0.5809
37734SOL     OW19164   3.928  10.438   3.990 -0.0126  0.5436  0.1472
37734SOL    HW119165   4.004  10.412   4.042  0.2793  0.6143 -0.2436
37734SOL    HW219166   3.963  10.455   3.902 -0.5964 -0.1452 -0.2248
37735SOL     OW19167  12.162   5.425   5.126  0.0106  0.2528 -0.0126
37735SOL    HW119168  12.117   5.340   5.128  0.0191  0.2581  0.7219
37735SOL    HW219169  12.092   5.488   5.112  0.0319  0.1158 -0.8065
37736SOL     OW19170   2.161   5.030   2.927 -0.0843 -0.2845  0.1783
37736SOL    HW119171   2.251   5.047   2.898 -0.3263  0.1575 -0.3247
37736SOL    HW219172   2.109   5.099   2.887 -0.4943  0.1252  1.3694
37737SOL     OW19173   6.697   5.850  12.426 -0.6271 -0.9501  0.2790
37737SOL    HW119174   6.750   5.892  12.359 -0.6483 -1.4057 -0.0317
37737SOL    HW219175   6.755   5.840  12.501 -0.2076 -1.6242 -0.1263
37738SOL     OW19176   0.874   8.311   7.193  0.4312 -0.3786  0.6661
37738SOL    HW119177   0.815   8.241   7.168  1.0677 -1.0073  0.9008
37738SOL    HW219178   0.945   8.268   7.240  1.5340  0.2600 -0.3603
37739SOL     OW19179   3.483   8.056   2.737 -0.3002  0.5109 -0.3127
37739SOL    HW119180   3.532   8.070   2.818 -1.3212  0.8267  0.2687
37739SOL    HW219181   3.550   8.050   2.669  0.4912  2.0945  0.2889
37740SOL     OW19182   2.781   6.601   3.614 -0.9821  0.9092  0.5551
37740SOL    HW119183   2.828   6.578   3.533  1.2103  0.2357  1.9227
37740SOL    HW219184   2.786   6.696   3.619 -1.8011  1.0265 -0.4345
37741SOL     OW19185   5.295   5.128   0.954  0.3341  0.5152 -0.2223
37741SOL    HW119186   5.368   5.089   0.906 -0.8255 -2.4195  0.1577
37741SOL    HW219187   5.329   5.140   1.043  0.5076 -0.5512 -0.1217
37742SOL     OW19188   8.162   7.426   4.236  0.3785 -0.0411  0.0928
37742SOL    HW119189   8.118   7.342   4.227  0.2959 -0.1154  1.0782
37742SOL    HW219190   8.250   7.404   4.265  1.3224  0.0706 -2.4114
37743SOL     OW19191   4.471  10.939   7.875  0.1160  0.3130 -0.4666
37743SOL    HW119192   4.408  10.994   7.923 -0.3566 -0.5014 -0.1339
37743SOL    HW219193   4.525  11.001   7.827 -0.1815  1.0917  0.1836
37744SOL     OW19194   1.359   3.452   9.431 -0.2002  0.0892 -0.2285
37744SOL    HW119195   1.359   3.423   9.523  0.8939  0.2042 -0.1780
37744SOL    HW219196   1.367   3.547   9.436 -1.4657  0.2253 -0.4383
37745SOL     OW19197   7.436   1.600   8.146  0.6272  0.3789  0.2354
37745SOL    HW119198   7.513   1.547   8.130  0.5298  0.2685  0.1344
37745SOL    HW219199   7.395   1.561   8.224 -0.3358 -0.7116 -0.7787
37746SOL     OW19200  12.356   8.121   7.682 -0.0304 -0.3444 -0.4226
37746SOL    HW119201  12.411   8.045   7.700  0.1196 -0.5029 -1.5213
37746SOL    HW219202  12.415   8.184   7.641 -0.6512 -0.4998 -1.5784
37747SOL     OW19203   6.486   1.616  12.298 -0.2486  0.1675 -0.1611
37747SOL    HW119204   6.535   1.669  12.235  1.2189  0.9866  1.5671
37747SOL    HW219205   6.399   1.656  12.301  0.5387  1.9050  0.3954
37748SOL     OW19206   6.888   0.385   7.473  0.3147 -0.1735 -0.1047
37748SOL    HW119207   6.896   0.465   7.525  0.0376  0.1522 -0.5553
37748SOL    HW219208   6.794   0.364   7.477  0.6793 -1.7139  1.8347
37749SOL     OW19209   9.820   5.497   5.117  0.1952 -0.6288  0.2677
37749SOL    HW119210   9.725   5.504   5.127  0.1327  0.9676 -1.0264
37749SOL    HW219211   9.835   5.405   5.096 -1.1736 -0.7412 -0.3687
37750SOL     OW19212   5.850   4.566   2.124 -0.6011 -0.0115 -0.2066
37750SOL    HW119213   5.924   4.604   2.076 -1.0256  0.1164 -0.7616
37750SOL    HW219214   5.871   4.582   2.216  0.2759 -0.3511 -0.3320
37751SOL     OW19215   4.776   8.792  12.241 -0.0659  0.0631 -0.2071
37751SOL    HW119216   4.795   8.805  12.148 -1.0274  1.2471 -0.2648
37751SOL    HW219217   4.690   8.750  12.242  0.6058 -1.3584  0.1342
37752SOL     OW19218   1.697   5.317  11.312 -0.6097 -0.2755 -0.8746
37752SOL    HW119219   1.755   5.247  11.342 -0.5530 -0.1744 -0.7468
37752SOL    HW219220   1.743   5.398  11.336 -0.7248 -0.1947 -0.9251
37753SOL     OW19221   8.646   2.113  10.345  0.0390 -0.1752  0.8513
37753SOL    HW119222   8.703   2.078  10.276 -0.6129  1.9580 -0.8662
37753SOL    HW219223   8.705   2.162  10.402  0.2904 -0.2252  0.6377
37754SOL     OW19224   4.463   0.070   9.831  0.3039 -0.8045  0.4025
37754SOL    HW119225   4.414  -0.010   9.848 -1.0360  0.0455  0.6694
37754SOL    HW219226   4.411   0.140   9.870  2.9223 -0.0674  2.9235
37755SOL     OW19227   5.619   3.621   2.602  0.4740 -0.2155  0.1396
37755SOL    HW119228   5.530   3.652   2.585  0.6755  1.8903  2.4101
37755SOL    HW219229   5.660   3.618   2.515 -1.6976 -1.0628 -0.9451
37756SOL     OW19230   6.762  10.339   0.838 -0.3379  0.2089  0.0576
37756SOL    HW119231   6.675  10.374   0.818 -0.4555 -0.2014 -0.1740
37756SOL    HW219232   6.812  10.414   0.869 -0.5025  0.6391 -0.6937
37757SOL     OW19233   3.637   0.768  10.516  0.7113  0.2682  0.0033
37757SOL    HW119234   3.585   0.844  10.540  1.7732  1.1758 -0.4803
37757SOL    HW219235   3.702   0.760  10.586  2.1483  1.3264 -1.1366
37758SOL     OW19236   2.750   9.043   0.419 -0.7174 -0.0964 -0.2174
37758SOL    HW119237   2.829   9.005   0.457 -1.5233 -2.4919 -0.7124
37758SOL    HW219238   2.773   9.062   0.328 -0.8419 -1.3443 -0.5258
37759SOL     OW19239   1.864  11.240   9.251  0.6068 -0.2590  0.1887
37759SOL    HW119240   1.816  11.176   9.199 -0.2544  0.1702  0.4293
37759SOL    HW219241   1.944  11.257   9.201 -0.4794  0.6103 -1.3302
37760SOL     OW19242  12.060   4.899   4.656 -0.5552  0.3781  0.5562
37760SOL    HW119243  12.048   4.822   4.713 -0.8296 -0.3082 -0.4019
37760SOL    HW219244  11.973   4.916   4.620 -0.2113  0.2272 -0.3685
37761SOL     OW19245   3.296   4.808   1.754 -0.2240  0.0547  0.2545
37761SOL    HW119246   3.325   4.894   1.725  1.8369 -0.4390  0.6853
37761SOL    HW219247   3.357   4.746   1.713 -1.7088 -1.2359 -0.1225
37762SOL     OW19248   1.749  11.030   7.575  0.1302 -0.0340  0.2372
37762SOL    HW119249   1.700  11.103   7.536  0.4689  1.1764  1.9774
37762SOL    HW219250   1.702  11.010   7.656  1.3253 -0.2396  0.9016
37763SOL     OW19251   9.628   0.884   1.787 -0.0189  0.3138  0.4508
37763SOL    HW119252   9.632   0.890   1.692 -1.4864  1.3731  0.4130
37763SOL    HW219253   9.690   0.950   1.818 -0.5163  0.9174  0.1927
37764SOL     OW19254   1.665   3.920   4.362  0.0510  0.7420  0.1075
37764SOL    HW119255   1.605   3.935   4.290 -0.0147  0.3553  0.0826
37764SOL    HW219256   1.640   3.835   4.398  2.1743 -0.6376 -1.4762
37765SOL     OW19257   0.699   3.574  11.638  0.1583  0.5239 -0.2791
37765SOL    HW119258   0.645   3.652  11.642 -0.9676 -0.2301 -0.2452
37765SOL    HW219259   0.682   3.537  11.552 -1.1824 -0.9366  0.5549
37766SOL     OW19260   9.812   1.718   2.838  0.0446  0.0166 -0.1834
37766SOL    HW119261   9.893   1.743   2.884  0.9620 -0.8128 -1.2919
37766SOL    HW219262   9.836   1.641   2.787 -1.1629  0.4061 -1.4038
37767SOL     OW19263   5.326   9.932   8.193  0.6257  0.6489  0.5955
37767SOL    HW119264   5.371   9.975   8.265 -1.3297  0.9361  1.7199
37767SOL    HW219265   5.267   9.870   8.236  2.2152 -2.1249 -0.9065
37768SOL     OW19266   0.077   7.995   7.149 -0.3594 -0.7161 -0.1184
37768SOL    HW119267   0.010   8.049   7.107  1.8368  0.8129 -1.8958
37768SOL    HW219268   0.098   7.928   7.084 -1.0910 -2.0907  0.9940
37769SOL     OW19269   7.029   4.777   7.703 -0.1611 -0.3748 -0.1224
37769SOL    HW119270   7.037   4.684   7.678  0.3699 -0.5025  0.5054
37769SOL    HW219271   7.108   4.818   7.668  0.5709 -0.5463  1.2496
37770SOL     OW19272   1.438   2.229   8.515  0.4146  0.2646 -0.2078
37770SOL    HW119273   1.403   2.207   8.601  3.1237  2.2190  1.5811
37770SOL    HW219274   1.446   2.145   8.470 -2.1852 -0.6751  0.9174
37771SOL     OW19275   6.259  10.539   1.256 -0.2008  0.2338  0.2893
37771SOL    HW119276   6.332  10.582   1.212 -0.1614  0.4452  0.5616
37771SOL    HW219277   6.296  10.503   1.337 -0.3222  0.0376  0.2600
37772SOL     OW19278   1.568   9.531   1.390 -0.0538  0.3158 -0.6782
37772SOL    HW119279   1.529   9.613   1.360 -0.3592 -0.0486 -1.3047
37772SOL    HW219280   1.519   9.463   1.344  0.5229 -0.1989 -0.5463
37773SOL     OW19281  12.214   8.758   6.075 -0.0072 -0.5587 -0.3315
37773SOL    HW119282  12.194   8.847   6.103  2.5619  0.2418 -0.7903
37773SOL    HW219283  12.198   8.759   5.981  1.3676 -0.1240 -0.5797
37774SOL     OW19284   1.473   9.181   6.227  0.1531  0.6310  0.1302
37774SOL    HW119285   1.408   9.156   6.161  0.5288 -2.3906  0.7802
37774SOL    HW219286   1.440   9.142   6.308  1.9518  0.4343  0.8008
37775SOL     OW19287   8.177   2.291  10.265 -0.0423  0.2854 -0.2755
37775SOL    HW119288   8.239   2.219  10.253  0.3562  0.5620  0.1466
37775SOL    HW219289   8.209   2.360  10.208  0.1268  0.4883  0.0684
37776SOL     OW19290   8.404   1.068   1.764  0.9552 -0.0078 -0.5565
37776SOL    HW119291   8.352   1.100   1.691  1.3373 -0.3852 -1.0030
37776SOL    HW219292   8.373   0.978   1.778  0.9606  0.0255 -0.3332
37777SOL     OW19293   3.668   1.529   7.238  0.0367 -0.3560 -0.8396
37777SOL    HW119294   3.661   1.596   7.170 -0.6240  0.2372 -0.1976
37777SOL    HW219295   3.646   1.447   7.193 -0.7565  0.0789 -1.2727
37778SOL     OW19296   5.887   2.801   9.360 -0.2998  0.2274  0.3474
37778SOL    HW119297   5.922   2.857   9.430  1.2593  0.3376 -0.4798
37778SOL    HW219298   5.811   2.848   9.327  0.5998  1.5617  0.1068
37779SOL     OW19299   9.190   5.791   0.427 -0.1736 -0.1795 -0.2682
37779SOL    HW119300   9.268   5.740   0.447 -0.1228 -0.2288 -0.5960
37779SOL    HW219301   9.144   5.798   0.511  0.5003  0.3876  0.0725
37780SOL     OW19302   0.310   6.920   1.982 -0.2055  0.5504 -0.0956
37780SOL    HW119303   0.338   6.831   2.003  1.9685  1.1289 -0.3243
37780SOL    HW219304   0.271   6.953   2.063 -0.1808 -0.2936  0.2654
37781SOL     OW19305   1.431   2.940   4.228  0.2996  0.0505 -0.0607
37781SOL    HW119306   1.505   2.956   4.285 -1.3266 -1.5621  2.7091
37781SOL    HW219307   1.355   2.968   4.279 -1.4569 -3.8287 -0.2584
37782SOL     OW19308   1.940   6.365  10.669 -0.5542 -0.2000  0.1937
37782SOL    HW119309   1.965   6.291  10.724  1.0514 -0.3095 -0.6323
37782SOL    HW219310   1.916   6.325  10.585  1.1390  0.2304 -0.5341
37783SOL     OW19311  11.993   6.263   2.203 -0.0357 -0.1007  0.0685
37783SOL    HW119312  12.048   6.214   2.142 -1.4889 -2.2403  0.3401
37783SOL    HW219313  12.009   6.222   2.288 -1.2842 -0.1196  0.3165
37784SOL     OW19314   5.904   6.949   6.345 -0.7036 -0.5889  0.1665
37784SOL    HW119315   5.907   6.854   6.337 -1.5275 -0.5638 -0.6976
37784SOL    HW219316   5.821   6.966   6.389 -0.2257 -0.2990  0.9623
37785SOL     OW19317   3.029  11.608   6.796  0.3680  0.0635 -0.1015
37785SOL    HW119318   2.981  11.531   6.825  0.3000  0.2482  0.2840
37785SOL    HW219319   2.976  11.645   6.726  0.9565 -0.8697 -1.0770
37786SOL     OW19320  11.600   5.864   6.812  0.5772 -0.1216 -0.1267
37786SOL    HW119321  11.680   5.844   6.765  2.0443  0.3596  2.0350
37786SOL    HW219322  11.620   5.846   6.904 -1.4960  0.8775  0.5979
37787SOL     OW19323   7.899   3.073   8.839  0.5838  0.2663 -0.0684
37787SOL    HW119324   7.807   3.079   8.813  0.8925 -0.7511 -1.5530
37787SOL    HW219325   7.948   3.081   8.757  1.7712 -0.2664  0.5587
37788SOL     OW19326   6.875   8.819  10.279  0.2832 -0.1873  0.1719
37788SOL    HW119327   6.904   8.734  10.244  0.8750 -0.6995  1.8024
37788SOL    HW219328   6.955   8.872  10.281  0.0590  0.1744 -0.1287
37789SOL     OW19329  10.849   7.430  12.120 -0.1148  0.0495  0.2983
37789SOL    HW119330  10.821   7.374  12.193  0.1100 -0.8765 -0.3037
37789SOL    HW219331  10.914   7.488  12.158  1.1101 -1.4189  0.5366
37790SOL     OW19332   1.152   4.713  10.203 -0.1670 -0.0083 -0.2751
37790SOL    HW119333   1.213   4.787  10.209  3.6373 -2.8880  0.9824
37790SOL    HW219334   1.173   4.671  10.119  0.4118 -1.6275  0.6329
37791SOL     OW19335   9.829  11.048   6.325 -0.2888 -0.1765 -0.3899
37791SOL    HW119336   9.741  11.080   6.346  0.6820  1.7094  1.2241
37791SOL    HW219337   9.843  11.074   6.234 -1.1227  0.2026 -0.4175
37792SOL     OW19338   3.427  11.795   0.147  0.0248  0.0294 -0.7862
37792SOL    HW119339   3.506  11.833   0.109  0.0857  0.1518 -0.5368
37792SOL    HW219340   3.364  11.867   0.148  0.2088  0.1852 -0.1087
37793SOL     OW19341  12.454  11.776  11.185  0.0020 -0.5926  0.0594
37793SOL    HW119342  12.397  11.821  11.249  0.8206 -1.5523  1.5194
37793SOL    HW219343  12.423  11.807  11.100 -1.4795  0.3430  0.8885
37794SOL     OW19344   4.036   9.857   2.422 -0.1994 -0.0347  0.4737
37794SOL    HW119345   3.972   9.921   2.394 -1.1417 -0.5891  1.2605
37794SOL    HW219346   4.087   9.901   2.490  0.5344  0.5383 -0.4354
37795SOL     OW19347   0.611  11.974   8.464  0.0676 -0.0878 -0.0198
37795SOL    HW119348   0.646  12.061   8.482 -0.2921 -0.0835  0.7104
37795SOL    HW219349   0.646  11.951   8.378  1.3671  0.1488  0.4313
37796SOL     OW19350   5.309   3.440   8.509  0.4294 -0.1857 -0.3098
37796SOL    HW119351   5.267   3.389   8.439  2.3975  0.9931 -2.5068
37796SOL    HW219352   5.285   3.395   8.590 -2.1253 -1.5275 -1.6897
37797SOL     OW19353  10.814   4.757  10.140  0.1338  0.0674  0.2643
37797SOL    HW119354  10.907   4.779  10.141  0.3321 -0.6033 -0.9961
37797SOL    HW219355  10.811   4.664  10.120 -0.8088  0.1336  0.0238
37798SOL     OW19356   5.971  10.180  10.634 -0.2131  0.0844  0.8324
37798SOL    HW119357   6.027  10.112  10.597 -0.1112  0.5074  0.1941
37798SOL    HW219358   5.939  10.229  10.558 -1.2350  0.0183  1.1968
37799SOL     OW19359   5.698   1.518  11.355  0.6562  0.0278  0.1331
37799SOL    HW119360   5.703   1.509  11.450 -0.5977 -0.3505  0.1897
37799SOL    HW219361   5.644   1.596  11.341  0.5204 -0.1345 -0.2619
37800SOL     OW19362  11.247   0.376  11.056  0.6615 -0.2649 -0.5287
37800SOL    HW119363  11.156   0.379  11.085  0.8972 -0.5663  0.2860
37800SOL    HW219364  11.288   0.310  11.113  0.8800 -1.7523 -2.3463
37801SOL     OW19365   6.224   2.034   5.258 -0.3139 -0.0091  0.5578
37801SOL    HW119366   6.141   2.033   5.211 -0.0167 -1.0915  0.0213
37801SOL    HW219367   6.205   2.081   5.339 -2.0198 -1.9868  1.4116
37802SOL     OW19368   5.288   8.404   5.725 -0.2971 -0.6325  0.6689
37802SOL    HW119369   5.257   8.476   5.670  1.1155 -0.4398  0.0642
37802SOL    HW219370   5.373   8.381   5.688  0.7697 -0.4417  2.8267
37803SOL     OW19371   3.797   0.967   0.643 -0.2084  0.2839  0.3575
37803SOL    HW119372   3.880   0.959   0.690  0.6092  1.6533 -0.7885
37803SOL    HW219373   3.779   1.061   0.641 -2.0866 -0.0115  1.0271
37804SOL     OW19374   8.189   1.143   1.055 -0.0023  0.2231 -0.1228
37804SOL    HW119375   8.100   1.140   1.019 -0.4709  0.1715  0.9905
37804SOL    HW219376   8.209   1.053   1.077  0.8593  0.0325 -1.5481
37805SOL     OW19377   0.892   7.072   1.123  0.2427  0.6391  0.5230
37805SOL    HW119378   0.836   7.101   1.195 -1.2708  0.8641 -0.6934
37805SOL    HW219379   0.981   7.088   1.154 -0.3550  0.6238  2.3705
37806SOL     OW19380   9.238   5.550  12.452 -0.2604 -0.2407  0.1574
37806SOL    HW119381   9.191   5.469  12.431 -0.9424  0.1369  0.1648
37806SOL    HW219382   9.227   5.605  12.375  0.4011 -0.2407  0.0597
37807SOL     OW19383   6.257   9.862  10.818  0.1371  0.3410  0.4285
37807SOL    HW119384   6.261   9.817  10.734 -2.8202 -0.4494  0.6125
37807SOL    HW219385   6.260   9.955  10.796 -1.2917  0.1523 -0.6284
37808SOL     OW19386   3.215   3.093   2.839  0.2101  0.3704 -0.0110
37808SOL    HW119387   3.153   3.143   2.892  0.6875  0.6944  0.2429
37808SOL    HW219388   3.162   3.059   2.766  0.2532  2.9517 -1.3476
37809SOL     OW19389   0.437   0.777   6.308  0.1708  0.0898 -0.5509
37809SOL    HW119390   0.412   0.786   6.216  0.2639 -0.9274 -0.6828
37809SOL    HW219391   0.531   0.797   6.309  0.3703 -0.8096 -0.8318
37810SOL     OW19392   1.212   4.176  11.543  0.0055 -0.1233 -0.1574
37810SOL    HW119393   1.258   4.101  11.580 -0.0740  0.0966  0.3882
37810SOL    HW219394   1.122   4.168  11.576 -0.3953 -0.5980 -1.2776
37811SOL     OW19395   2.125   0.380   4.625  0.6578 -0.1080 -0.0555
37811SOL    HW119396   2.126   0.338   4.711 -0.1461  0.1624  0.0939
37811SOL    HW219397   2.165   0.317   4.566  1.2316 -0.2916  0.5194
37812SOL     OW19398   3.766   4.122  10.817  0.0018  0.9929  0.1622
37812SOL    HW119399   3.765   4.150  10.725  2.7576 -2.2651 -1.0785
37812SOL    HW219400   3.700   4.052  10.822  1.6391 -0.6625 -0.1668
37813SOL     OW19401   2.630   4.769   1.758 -0.2272 -0.1418 -0.1480
37813SOL    HW119402   2.692   4.746   1.827  0.3804 -0.9215 -0.9344
37813SOL    HW219403   2.651   4.860   1.736 -0.4563  0.1295  0.7071
37814SOL     OW19404   0.842   3.278   2.922 -0.3463  0.2364 -0.0324
37814SOL    HW119405   0.764   3.298   2.871  0.7219  0.0811 -1.8047
37814SOL    HW219406   0.908   3.254   2.857  1.5866  1.6528  1.2833
37815SOL     OW19407   1.233   5.469   8.768 -0.0184 -0.8646  0.0469
37815SOL    HW119408   1.275   5.384   8.758  0.6563 -0.7251  1.4277
37815SOL    HW219409   1.244   5.490   8.861 -2.3974 -0.4173  0.2951
37816SOL     OW19410  11.233   5.204   7.201  0.0218  0.7453  0.0503
37816SOL    HW119411  11.156   5.167   7.159 -0.0035  0.7593  0.0838
37816SOL    HW219412  11.305   5.149   7.172 -0.1244  0.1703  0.7452
37817SOL     OW19413   4.769  10.742   9.754 -0.0604 -0.1151  0.1717
37817SOL    HW119414   4.807  10.654   9.749  0.7033  0.2794 -2.3836
37817SOL    HW219415   4.843  10.801   9.745 -0.8616  0.7264 -1.3296
37818SOL     OW19416   3.101  10.741   5.893  0.3081  0.5144 -0.1908
37818SOL    HW119417   3.095  10.833   5.869 -0.5225  0.3957 -0.4491
37818SOL    HW219418   3.129  10.697   5.813 -1.9465  0.1923 -0.8601
37819SOL     OW19419   6.194   5.038   0.971  0.3777 -0.2431 -0.1155
37819SOL    HW119420   6.226   5.116   1.015  0.1089  0.1943 -0.6810
37819SOL    HW219421   6.100   5.054   0.959  0.2485 -0.8140  0.0941
37820SOL     OW19422  10.999  10.826   9.373 -0.1338 -0.2178 -0.5598
37820SOL    HW119423  11.081  10.778   9.359  0.2924  0.0747  0.7699
37820SOL    HW219424  10.949  10.771   9.433 -0.4975  0.0726 -0.5907
37821SOL     OW19425  11.114   2.011   5.694  0.0703  0.5842  0.2456
37821SOL    HW119426  11.119   2.080   5.628 -0.4734  0.0656 -0.3532
37821SOL    HW219427  11.130   1.930   5.645 -0.7294  0.1544  0.6687
37822SOL     OW19428   1.371   8.812   8.978  0.1788 -0.0018  0.4406
37822SOL    HW119429   1.423   8.732   8.980  1.0845  0.5774  1.5702
37822SOL    HW219430   1.323   8.811   9.061 -0.1894  0.3910  0.2387
37823SOL     OW19431   6.084   6.428   9.957 -0.3252 -0.6966  0.9607
37823SOL    HW119432   6.135   6.431   9.876 -0.0190 -0.8923  1.1454
37823SOL    HW219433   6.142   6.467  10.023 -0.6027 -0.4676  1.0708
37824SOL     OW19434   7.053   2.549   8.037  0.2059  0.1647 -0.0477
37824SOL    HW119435   7.012   2.528   8.121 -0.4683  0.5953 -0.2595
37824SOL    HW219436   7.120   2.481   8.025  0.7196  0.4384  1.1139
37825SOL     OW19437   3.728  11.420   4.649 -0.1467  0.2935 -0.1755
37825SOL    HW119438   3.797  11.445   4.588 -0.1030  1.3972  0.3010
37825SOL    HW219439   3.678  11.500   4.663 -1.4690 -0.4635 -0.4351
37826SOL     OW19440   7.728   2.723   0.855  0.4986  0.1941 -0.3816
37826SOL    HW119441   7.740   2.734   0.761  2.0390 -0.8673 -0.3503
37826SOL    HW219442   7.760   2.635   0.873  1.5711  0.8831  1.3414
37827SOL     OW19443  11.335   8.251   8.401 -0.0291 -0.3196 -0.0252
37827SOL    HW119444  11.331   8.329   8.457  2.3911 -1.1834  1.5029
37827SOL    HW219445  11.245   8.237   8.372 -0.9598  1.5349  1.7561
37828SOL     OW19446   5.699  10.480  10.848  0.4929 -0.5619 -0.3880
37828SOL    HW119447   5.703  10.531  10.929 -0.2505 -0.6286 -0.3034
37828SOL    HW219448   5.691  10.389  10.877 -1.9775 -0.4429 -0.4788
37829SOL     OW19449   4.557  11.844   3.232  0.5125 -0.1349  0.3633
37829SOL    HW119450   4.629  11.781   3.236  0.0931 -0.6292  0.2503
37829SOL    HW219451   4.593  11.919   3.184  0.3763 -1.1716 -1.4581
37830SOL     OW19452  10.784   3.465   4.023  0.4702  0.1505  0.6869
37830SOL    HW119453  10.712   3.402   4.017  0.3614  0.4157 -1.8358
37830SOL    HW219454  10.788   3.506   3.936  2.5834  1.3604  1.2705
37831SOL     OW19455   9.050   3.501   0.226 -0.1311 -0.8517 -0.1210
37831SOL    HW119456   9.034   3.469   0.137 -0.7543  0.1988 -0.4013
37831SOL    HW219457   8.975   3.469   0.276 -2.0889  2.0662 -0.9225
37832SOL     OW19458   6.632   5.644   4.716 -0.1197 -0.3305 -0.3188
37832SOL    HW119459   6.568   5.583   4.752 -0.6929  0.4578  0.0172
37832SOL    HW219460   6.672   5.597   4.642 -2.5085 -0.1204 -1.8342
37833SOL     OW19461   0.224  11.440   7.167  0.4700  0.3482  0.0639
37833SOL    HW119462   0.268  11.379   7.107 -1.7108  1.2098 -2.6598
37833SOL    HW219463   0.248  11.527   7.135 -0.8015  0.8385  0.3733
37834SOL     OW19464   3.487   8.538   7.346  0.2220 -0.3189 -0.0826
37834SOL    HW119465   3.535   8.505   7.423  1.1943 -1.5099 -1.1399
37834SOL    HW219466   3.482   8.462   7.288 -2.9589 -0.2273 -0.0678
37835SOL     OW19467   5.655  12.481  10.613 -0.2978  0.6728 -0.4730
37835SOL    HW119468   5.718  12.491  10.685 -0.6112  0.3132 -0.1527
37835SOL    HW219469   5.710  12.467  10.536  0.0339 -3.0188  0.2659
37836SOL     OW19470   3.365   6.519  11.200 -0.2555 -0.1442 -0.5793
37836SOL    HW119471   3.372   6.440  11.147  2.5212  2.3009 -4.3483
37836SOL    HW219472   3.315   6.580  11.146  1.7579  2.1369 -0.0503
37837SOL     OW19473  11.764   8.702   2.331 -0.0730  0.0616  0.7254
37837SOL    HW119474  11.770   8.755   2.410 -1.7440  0.2602  0.7679
37837SOL    HW219475  11.852   8.703   2.295  0.1631  2.1859  1.1750
37838SOL     OW19476   0.080   4.160   8.813 -0.6859 -0.0769 -0.2271
37838SOL    HW119477   0.115   4.097   8.875 -0.1672  0.6611  0.2535
37838SOL    HW219478  -0.010   4.175   8.841 -0.3945  0.4049  0.4895
37839SOL     OW19479   1.649   2.217  12.093 -0.5887  0.1093  0.5037
37839SOL    HW119480   1.741   2.195  12.077 -0.6489  0.0048  0.3011
37839SOL    HW219481   1.641   2.308  12.066 -0.6986 -0.0770 -0.0991
37840SOL     OW19482  11.996   2.066   7.824  0.0025  0.3279 -0.8307
37840SOL    HW119483  11.983   2.149   7.870  2.3816  1.0529 -1.3317
37840SOL    HW219484  11.978   2.086   7.732 -4.4986 -1.0581 -0.4799
37841SOL     OW19485   2.685   7.918  10.089 -0.4717 -0.4886  0.5784
37841SOL    HW119486   2.599   7.896  10.127 -0.6381  1.2914  1.3568
37841SOL    HW219487   2.728   7.834  10.077 -1.3237 -1.2926  2.6179
37842SOL     OW19488   2.067   4.064  10.131  0.3159  0.2358 -0.3009
37842SOL    HW119489   2.108   3.996  10.184 -1.0030  0.0090  0.4781
37842SOL    HW219490   2.040   4.019  10.051  3.0768  0.7564 -1.6541
37843SOL     OW19491   9.047   1.697   4.975  0.0033  0.3456 -0.0019
37843SOL    HW119492   9.071   1.605   4.967 -2.1162 -0.1959 -0.7138
37843SOL    HW219493   9.062   1.718   5.067  2.9389  0.0835 -0.3125
37844SOL     OW19494   5.676   1.192   2.386  0.4999  0.2153 -0.0193
37844SOL    HW119495   5.643   1.103   2.376  0.6897  0.3632 -2.9594
37844SOL    HW219496   5.604   1.240   2.427  0.8655 -1.4681  2.8498
37845SOL     OW19497   2.976   8.911   3.432  0.1317  0.4392  0.0051
37845SOL    HW119498   3.069   8.920   3.450  0.6635 -0.4616 -2.0073
37845SOL    HW219499   2.935   8.906   3.518  2.2957 -2.6336  1.0350
37846SOL     OW19500   5.303   2.802   4.693  0.0548 -0.0028 -0.5880
37846SOL    HW119501   5.336   2.755   4.617  3.3658  0.2896  0.5214
37846SOL    HW219502   5.307   2.738   4.765 -0.3735  0.5008 -0.1053
37847SOL     OW19503   6.974   6.843   5.565 -0.1372 -0.1871  0.0468
37847SOL    HW119504   6.894   6.869   5.611 -0.6478 -1.6532  0.0584
37847SOL    HW219505   7.044   6.858   5.628 -0.5161  0.3041  0.3558
37848SOL     OW19506  10.398   3.385   4.191 -0.0988 -0.4392  0.0646
37848SOL    HW119507  10.476   3.332   4.176  1.4859  2.0432 -1.1490
37848SOL    HW219508  10.430   3.475   4.190 -2.9055  0.6558  0.2215
37849SOL     OW19509   1.876   6.039   3.347 -0.1884  0.2595  0.2764
37849SOL    HW119510   1.852   6.131   3.356  1.8873  0.7780  1.0834
37849SOL    HW219511   1.793   5.992   3.354 -1.1976  2.0021  0.6779
37850SOL     OW19512   4.414   0.549   0.603  0.1921 -0.0208 -0.2982
37850SOL    HW119513   4.483   0.524   0.664 -0.6196  0.3047  0.7955
37850SOL    HW219514   4.401   0.643   0.620  1.0928  0.4918 -2.1682
37851SOL     OW19515   3.443   1.130   2.563  0.3183  0.5570  0.4606
37851SOL    HW119516   3.402   1.094   2.642 -0.0310  0.5658  0.2830
37851SOL    HW219517   3.448   1.057   2.503 -1.8523  1.1255 -0.5006
37852SOL     OW19518   4.891  10.908   6.915 -0.0998  0.1096 -0.0575
37852SOL    HW119519   4.901  10.979   6.978  0.4756 -0.2118  0.2129
37852SOL    HW219520   4.801  10.918   6.882  0.1290  1.2520 -0.3825
37853SOL     OW19521   1.784   9.216   0.387  0.1416 -0.0695 -0.2375
37853SOL    HW119522   1.792   9.297   0.436  2.9453  0.6569 -1.6670
37853SOL    HW219523   1.816   9.148   0.447 -1.5125 -0.0843  0.6950
37854SOL     OW19524  10.509   8.618   4.563  0.0688  0.1164 -0.3442
37854SOL    HW119525  10.490   8.614   4.656  0.2417 -0.2574 -0.3241
37854SOL    HW219526  10.484   8.707   4.537 -3.1281 -0.7155 -0.6269
37855SOL     OW19527   2.323   8.931   4.811 -0.0949  0.1279 -0.8746
37855SOL    HW119528   2.395   8.938   4.748  0.8114 -0.7040  0.0250
37855SOL    HW219529   2.352   8.981   4.887 -0.9851  0.7567 -0.9360
37856SOL     OW19530   2.340   3.661   8.325 -0.5446 -0.1099 -0.0645
37856SOL    HW119531   2.284   3.606   8.379  0.4852  0.0275  1.1784
37856SOL    HW219532   2.420   3.611   8.313  0.3605  1.0075  0.9803
37857SOL     OW19533  10.598   8.148  10.467  0.3698  0.1926 -0.2044
37857SOL    HW119534  10.561   8.087  10.530  2.2617  0.2276  1.0372
37857SOL    HW219535  10.546   8.136  10.387 -1.0278 -1.0444  0.8420
37858SOL     OW19536   1.883   7.380   0.421  0.2243  0.2433  0.1751
37858SOL    HW119537   1.897   7.317   0.491  0.8429 -0.6040 -0.6855
37858SOL    HW219538   1.946   7.450   0.439  0.5687 -0.0993  0.3063
37859SOL     OW19539  11.183   3.781   7.925  0.2819  0.0698  0.2181
37859SOL    HW119540  11.261   3.740   7.887  0.1136  0.7291 -0.8681
37859SOL    HW219541  11.154   3.844   7.859 -0.7719  0.3291  0.9050
37860SOL     OW19542   9.159   6.219  12.020  0.0754 -0.2892  0.0657
37860SOL    HW119543   9.227   6.233  12.086 -0.1637 -0.3096  0.3169
37860SOL    HW219544   9.205   6.227  11.937  0.3252  0.0112  0.2285
37861SOL     OW19545   0.543   9.031  12.181  0.0128  0.1096  0.6690
37861SOL    HW119546   0.578   9.107  12.135  0.5084 -0.6063 -0.1673
37861SOL    HW219547   0.501   9.068  12.259  0.7966  1.1790  0.6168
37862SOL     OW19548   4.458   5.556   9.588  0.4516  0.2808 -0.3291
37862SOL    HW119549   4.378   5.509   9.565 -1.4274  0.9711  3.7931
37862SOL    HW219550   4.453   5.638   9.538 -0.4882 -0.4119 -1.4161
37863SOL     OW19551   2.138  12.401   5.382 -0.2191  0.0295  0.8448
37863SOL    HW119552   2.144  12.451   5.463  1.0582  1.4515 -0.0669
37863SOL    HW219553   2.186  12.454   5.318  2.9331 -3.1959  0.2210
37864SOL     OW19554  12.269   1.256   6.886  0.0040  0.0679 -0.2863
37864SOL    HW119555  12.274   1.348   6.913  2.2943 -0.2886  0.6952
37864SOL    HW219556  12.230   1.211   6.961 -1.6265  0.2461 -0.9687
37865SOL     OW19557  11.712  11.999   8.159  0.0455  0.0895  0.1730
37865SOL    HW119558  11.752  11.962   8.080 -1.5967 -0.7391 -0.3074
37865SOL    HW219559  11.695  11.923   8.215 -0.3384  0.4888  0.6020
37866SOL     OW19560   4.664   8.738   6.840 -0.5119  0.0887  0.3858
37866SOL    HW119561   4.652   8.833   6.837 -1.9708  0.0358  2.4945
37866SOL    HW219562   4.576   8.703   6.844  0.0341 -1.2274  1.6884
37867SOL     OW19563   2.698   4.264   6.135 -0.3385  0.1560  0.4413
37867SOL    HW119564   2.674   4.199   6.201 -0.2362 -0.1244  0.2068
37867SOL    HW219565   2.640   4.338   6.152 -1.5578 -0.6019 -0.2559
37868SOL     OW19566  10.589   9.461  10.329  0.0026  0.2363  0.0320
37868SOL    HW119567  10.594   9.546  10.373 -0.2234  0.7755 -0.9697
37868SOL    HW219568  10.628   9.475  10.243 -0.2965 -0.6077 -0.2546
37869SOL     OW19569   1.582   9.309   9.962 -0.3339 -0.2257 -0.4531
37869SOL    HW119570   1.622   9.255  10.030 -0.3385  0.7492  0.3448
37869SOL    HW219571   1.533   9.377  10.011  0.1295  0.8312 -1.4177
37870SOL     OW19572   7.086   4.881   4.078  0.1293 -0.0333  0.3916
37870SOL    HW119573   7.167   4.911   4.036 -0.8302 -1.3284 -2.6992
37870SOL    HW219574   7.037   4.961   4.096  0.9030  0.6341 -0.3936
37871SOL     OW19575   6.020   5.057  11.231 -0.8845  0.3904 -0.0161
37871SOL    HW119576   6.043   4.989  11.168  0.0246 -0.3898  1.1174
37871SOL    HW219577   6.028   5.015  11.317  2.2040  2.4991  0.9162
37872SOL     OW19578   2.668   8.920   9.476  0.0570  0.0096  0.0986
37872SOL    HW119579   2.604   8.864   9.433  1.2607 -1.7826  0.5422
37872SOL    HW219580   2.617   8.969   9.541 -0.9341 -1.0497  0.1462
37873SOL     OW19581   8.818   4.783  11.447 -0.1797 -0.4919 -0.3323
37873SOL    HW119582   8.737   4.755  11.405 -0.8163  2.6352 -1.5163
37873SOL    HW219583   8.796   4.867  11.488  2.2096 -0.0719  0.2799
37874SOL     OW19584   5.407   0.561   9.934  0.1611  0.1190 -0.1418
37874SOL    HW119585   5.391   0.471   9.961 -0.5629  0.4708  0.6584
37874SOL    HW219586   5.499   0.576   9.955  0.1615 -0.2896  0.1703
37875SOL     OW19587   9.240   9.926   1.278  0.0005 -0.0911 -0.1964
37875SOL    HW119588   9.261   9.895   1.190  1.6343 -0.2407  0.2119
37875SOL    HW219589   9.145   9.932   1.280 -0.0246  0.6752 -2.2214
37876SOL     OW19590   5.249   3.738   2.859  0.0772  0.0049 -0.7822
37876SOL    HW119591   5.188   3.793   2.809  0.5050  0.7824 -0.4712
37876SOL    HW219592   5.297   3.689   2.793 -1.3629 -1.1704 -1.0135
37877SOL     OW19593   6.723  12.294  11.619  0.2938 -0.0790  0.1450
37877SOL    HW119594   6.635  12.263  11.598 -1.4552  3.5357  1.3425
37877SOL    HW219595   6.732  12.375  11.569  2.3988  0.3330  1.0997
37878SOL     OW19596   7.420   2.525   7.610  0.8060 -0.0776 -0.3390
37878SOL    HW119597   7.448   2.610   7.576 -0.6995  0.4977 -0.2116
37878SOL    HW219598   7.414   2.469   7.532 -0.0726  0.4876 -0.6855
37879SOL     OW19599   9.325   1.066   8.349  0.2420 -0.5723 -0.4832
37879SOL    HW119600   9.234   1.078   8.320  0.4369 -0.2789 -0.9814
37879SOL    HW219601   9.364   1.153   8.344  0.4151 -0.6098  0.2131
37880SOL     OW19602   3.262   0.749   1.907  0.1645 -0.4274  0.3170
37880SOL    HW119603   3.293   0.834   1.938  2.6305 -1.0607 -0.2396
37880SOL    HW219604   3.203   0.770   1.834  1.0584  0.8072 -0.0777
37881SOL     OW19605   5.269   8.296   8.234 -0.0892  0.1874 -0.1325
37881SOL    HW119606   5.256   8.213   8.281  0.6257 -0.5611 -1.2117
37881SOL    HW219607   5.211   8.290   8.158  1.0962 -0.0158 -1.0528
37882SOL     OW19608   1.866   0.623   3.908  0.0162 -0.0017  0.8467
37882SOL    HW119609   1.774   0.647   3.923 -0.5788  0.9604 -3.1562
37882SOL    HW219610   1.916   0.699   3.936 -0.4505 -0.2197  2.3256
37883SOL     OW19611   5.321   4.782   2.774 -0.1493 -0.2314 -0.6021
37883SOL    HW119612   5.342   4.767   2.866 -0.1012  2.2800 -0.1073
37883SOL    HW219613   5.232   4.749   2.764  0.2903 -1.6471  0.0086
37884SOL     OW19614   0.069   0.945   0.035  0.0203 -0.9732 -0.3770
37884SOL    HW119615   0.064   1.040   0.048  1.8886 -0.8764 -0.1788
37884SOL    HW219616  -0.019   0.920   0.005 -0.0650  1.0393 -1.9833
37885SOL     OW19617   1.893  11.181   7.880 -0.5125  0.2908 -0.4280
37885SOL    HW119618   1.876  11.272   7.856  1.8734  0.3585 -2.2075
37885SOL    HW219619   1.838  11.130   7.821 -0.2143  0.5654 -0.9483
37886SOL     OW19620   5.238  10.352   1.135  0.8488  0.3743  0.5966
37886SOL    HW119621   5.182  10.285   1.173  0.0586  1.6494  1.7840
37886SOL    HW219622   5.179  10.425   1.117  2.0411  1.6650  1.6483
37887SOL     OW19623  11.124   2.169   0.217 -0.1983  0.6514  0.2977
37887SOL    HW119624  11.135   2.259   0.185  0.9916  0.2376 -0.5286
37887SOL    HW219625  11.121   2.178   0.312 -0.1388  1.5730  0.2262
37888SOL     OW19626   6.042  11.852   5.039  0.1330  0.3132 -0.0183
37888SOL    HW119627   6.072  11.822   5.125 -0.8616 -1.3821 -0.1963
37888SOL    HW219628   5.953  11.817   5.032 -0.7625  2.5832 -0.7257
37889SOL     OW19629   8.452   0.681  11.367 -0.2960 -0.5622 -0.0371
37889SOL    HW119630   8.456   0.752  11.431 -1.6998 -0.4987  0.0018
37889SOL    HW219631   8.423   0.605  11.418  0.6126 -1.0309 -0.1997
37890SOL     OW19632   2.038  11.646  11.265 -0.3196  0.1971 -0.1455
37890SOL    HW119633   1.965  11.685  11.217 -0.1778 -0.1308 -0.6352
37890SOL    HW219634   2.018  11.553  11.267 -0.6401  0.2795  0.9955
37891SOL     OW19635  10.618  11.513   4.057  0.1960  0.0192  0.0232
37891SOL    HW119636  10.566  11.438   4.087 -0.5165  0.0942 -0.9677
37891SOL    HW219637  10.685  11.525   4.124  0.0394 -1.2208  0.4180
37892SOL     OW19638   0.809   1.036   2.846 -0.2099  0.7768 -0.9304
37892SOL    HW119639   0.894   1.020   2.806  0.3280 -0.2817  0.5431
37892SOL    HW219640   0.759   0.956   2.829  0.7624 -0.6669  2.1730
37893SOL     OW19641  10.507   6.513   8.584  0.2012 -0.9431  0.1789
37893SOL    HW119642  10.598   6.490   8.602  0.7675  0.6493 -0.4166
37893SOL    HW219643  10.472   6.541   8.669  0.6199 -0.4913  0.2099
37894SOL     OW19644   2.918   7.836  10.398 -0.2390 -0.2535 -0.2748
37894SOL    HW119645   2.885   7.912  10.350  0.6596  0.2181 -0.1749
37894SOL    HW219646   3.008   7.827  10.369 -0.1739 -0.9550  0.1237
37895SOL     OW19647   8.523  11.612   8.498  0.5574  0.4457 -0.2696
37895SOL    HW119648   8.603  11.598   8.448  0.6836  0.3072 -0.0298
37895SOL    HW219649   8.542  11.688   8.554  0.8131 -0.0842  0.3846
37896SOL     OW19650   5.930   3.356   3.278  0.3006 -0.0055  0.0462
37896SOL    HW119651   5.858   3.412   3.305  0.5454 -0.1600  1.0675
37896SOL    HW219652   5.999   3.417   3.250  0.1569  0.1655  0.0627
37897SOL     OW19653   8.269   8.617   9.587 -0.3947 -0.2390  0.6570
37897SOL    HW119654   8.232   8.536   9.621 -1.3186 -1.4985 -2.9182
37897SOL    HW219655   8.343   8.589   9.532 -0.9706  1.2356 -0.9787
37898SOL     OW19656   5.130   9.443   4.963  0.6651 -0.1756  0.2839
37898SOL    HW119657   5.061   9.417   4.902  0.9864  2.2464 -1.2296
37898SOL    HW219658   5.205   9.389   4.940  0.4649 -0.0057 -0.7893
37899SOL     OW19659   2.147   0.442  10.688  0.0448 -0.2993  0.1563
37899SOL    HW119660   2.131   0.449  10.782  1.7936  1.0799  0.4107
37899SOL    HW219661   2.200   0.519  10.667  0.6456 -1.1734 -1.7428
37900SOL     OW19662   4.153   3.787   8.247 -0.3276  0.5678 -0.0284
37900SOL    HW119663   4.156   3.725   8.321 -0.1587 -1.0226 -1.3075
37900SOL    HW219664   4.084   3.849   8.271 -0.6037 -0.1905  1.2566
37901SOL     OW19665   4.640   1.099   8.865  0.0815 -0.1347 -0.0622
37901SOL    HW119666   4.556   1.062   8.838  0.6730 -1.4940 -0.0825
37901SOL    HW219667   4.649   1.076   8.957  0.8691 -0.8684 -0.3099
37902SOL     OW19668   1.946   5.297  11.740  0.1077 -0.3168 -0.0769
37902SOL    HW119669   2.037   5.292  11.769 -0.2060  1.0529  1.3136
37902SOL    HW219670   1.895   5.273  11.818 -0.7459  0.4929 -0.3725
37903SOL     OW19671   3.207   5.420  11.991 -0.0691  0.0245 -0.3371
37903SOL    HW119672   3.210   5.340  11.939 -2.1422 -1.4241  1.5822
37903SOL    HW219673   3.250   5.397  12.073  0.2230  1.2274 -0.1265
37904SOL     OW19674   1.552   6.640  11.903  0.0949 -0.3573 -0.1900
37904SOL    HW119675   1.633   6.590  11.908 -0.2531 -0.8972  0.2557
37904SOL    HW219676   1.486   6.576  11.877 -0.3664 -0.1408  0.4135
37905SOL     OW19677  10.509   6.562   2.576  0.2964 -0.2963  0.3556
37905SOL    HW119678  10.526   6.540   2.485 -0.7015  1.4439 -0.2998
37905SOL    HW219679  10.443   6.499   2.604 -2.7024  1.7315 -1.5499
37906SOL     OW19680   8.690   6.672   2.627  0.7816  0.6471  0.0868
37906SOL    HW119681   8.764   6.613   2.611 -0.2919 -0.4228 -1.0538
37906SOL    HW219682   8.689   6.682   2.723 -0.6843 -3.5312  0.7081
37907SOL     OW19683   7.351  11.376   5.533 -0.1606 -0.8526  0.1942
37907SOL    HW119684   7.380  11.413   5.450 -0.7929 -2.4308 -0.7684
37907SOL    HW219685   7.415  11.307   5.552  0.2211 -0.2270  1.2496
37908SOL     OW19686  11.316   3.894  12.333  0.5122  0.1465 -0.1750
37908SOL    HW119687  11.261   3.969  12.313 -1.6445 -1.0473  0.8961
37908SOL    HW219688  11.319   3.844  12.251  1.5669  1.1312 -0.7534
37909SOL     OW19689   9.846   6.734   4.057 -0.3304 -0.0247  0.2017
37909SOL    HW119690   9.871   6.783   4.135 -1.4092 -1.4745  1.5235
37909SOL    HW219691   9.827   6.801   3.992 -2.0483  1.3673  2.0070
37910SOL     OW19692  11.015   2.986   7.256  0.1033  0.0730  0.3699
37910SOL    HW119693  11.014   3.081   7.243 -1.1148  0.1652  0.9232
37910SOL    HW219694  11.092   2.956   7.209 -0.7764  1.0568 -1.8759
37911SOL     OW19695  10.834   5.568   0.566  0.0326 -0.1622  1.2675
37911SOL    HW119696  10.849   5.479   0.535 -0.9737 -0.1165  0.6073
37911SOL    HW219697  10.836   5.622   0.487 -0.8898  0.1886  1.4713
37912SOL     OW19698   5.894   8.188   4.981 -0.2932  0.0538  0.0406
37912SOL    HW119699   5.981   8.224   4.962 -0.8775  1.4624 -0.1295
37912SOL    HW219700   5.857   8.171   4.894 -0.1634 -0.6026  0.1146
37913SOL     OW19701   7.322   1.658   0.138  0.0831  0.1825 -0.2187
37913SOL    HW119702   7.401   1.685   0.092  0.9639 -2.0469 -0.1314
37913SOL    HW219703   7.343   1.669   0.230 -0.2546  0.9378 -0.2238
37914SOL     OW19704   1.773   4.921  10.423 -0.0485 -0.6756 -0.1971
37914SOL    HW119705   1.857   4.958  10.398  0.0984 -1.4437 -0.8802
37914SOL    HW219706   1.711   4.993  10.412  0.4648 -0.2109 -0.0538
37915SOL     OW19707   4.651   9.072   7.129  0.3075 -0.5381  0.1190
37915SOL    HW119708   4.671   9.043   7.218  0.1706 -0.9172  0.0263
37915SOL    HW219709   4.669   9.166   7.130  0.8312 -0.6404  0.3949
37916SOL     OW19710   0.742   8.951   2.555 -0.0433  0.0738  0.2021
37916SOL    HW119711   0.661   8.915   2.591  1.3736 -1.4417  2.0635
37916SOL    HW219712   0.750   8.910   2.469 -1.1994  0.1767  0.0300
37917SOL     OW19713   0.188   3.732  11.132 -0.1832  0.3417 -0.2751
37917SOL    HW119714   0.167   3.679  11.055 -0.2889  1.1008 -0.7734
37917SOL    HW219715   0.159   3.820  11.110 -0.9411  0.4226  0.9377
37918SOL     OW19716  10.565   0.210   2.919  0.0479  0.0729 -0.0452
37918SOL    HW119717  10.591   0.131   2.870 -0.5282 -0.0738 -0.1218
37918SOL    HW219718  10.470   0.205   2.923  0.1115 -0.3110  1.7668
37919SOL     OW19719  12.493   8.760   9.571 -0.0246 -0.0613 -0.6412
37919SOL    HW119720  12.527   8.780   9.658  2.3093  0.5168 -1.6142
37919SOL    HW219721  12.418   8.703   9.587  0.4174 -0.0618  1.7332
37920SOL     OW19722   2.065   5.689   5.889 -0.6056 -0.0593  0.2356
37920SOL    HW119723   2.040   5.683   5.797 -0.3923  1.3111  0.0670
37920SOL    HW219724   2.160   5.676   5.889 -0.1352  2.6534 -0.1364
37921SOL     OW19725   0.664   6.401   7.138  0.3590 -0.5975 -0.1988
37921SOL    HW119726   0.698   6.466   7.200  0.4108  0.9245 -1.7292
37921SOL    HW219727   0.625   6.333   7.193  3.1231 -0.9327  1.5833
37922SOL     OW19728   3.950   5.264   7.056  0.0992 -0.6420 -0.1965
37922SOL    HW119729   3.937   5.190   6.995 -1.0076 -2.5915  2.2445
37922SOL    HW219730   3.960   5.340   6.998  0.3296 -2.5099 -2.8362
37923SOL     OW19731   4.467   2.114   5.781 -0.2304  0.2852  0.7302
37923SOL    HW119732   4.518   2.141   5.705  0.9564 -1.0499  1.0067
37923SOL    HW219733   4.378   2.102   5.748  0.2654 -0.2252 -0.4432
37924SOL     OW19734  12.152   9.460   0.553 -0.0350 -0.0137  0.2483
37924SOL    HW119735  12.224   9.397   0.552 -1.1316 -1.3036  0.6240
37924SOL    HW219736  12.165   9.512   0.473  0.5127 -1.1282 -0.4094
37925SOL     OW19737   6.060   6.584   1.066  0.4930 -0.0209  0.4932
37925SOL    HW119738   6.048   6.628   0.982 -1.8566 -0.3240  0.5996
37925SOL    HW219739   6.090   6.654   1.125  0.8570  0.4903 -0.2795
37926SOL     OW19740   7.040   5.712   4.805  0.3924 -0.5255  0.4605
37926SOL    HW119741   7.117   5.768   4.807 -0.5190  0.8017 -0.3995
37926SOL    HW219742   7.061   5.644   4.741  1.1843 -0.7280  0.9177
37927SOL     OW19743   5.746   5.734  12.400 -0.1931 -0.2946  0.0640
37927SOL    HW119744   5.678   5.715  12.336  0.8715 -1.2220 -0.8409
37927SOL    HW219745   5.754   5.654  12.452 -1.7410  0.7752  2.0960
37928SOL     OW19746   3.020   0.866  10.955 -0.2432  0.3496  0.1020
37928SOL    HW119747   3.106   0.906  10.945  0.0388 -0.0387  0.8970
37928SOL    HW219748   3.023   0.824  11.041  0.2202 -3.2360 -1.5194
37929SOL     OW19749   4.183  11.120   2.168 -0.0766 -0.2425 -0.4553
37929SOL    HW119750   4.222  11.048   2.217  0.3257  1.0955  1.2672
37929SOL    HW219751   4.098  11.135   2.210  0.2143  0.8361 -0.2211
37930SOL     OW19752   2.920  12.226  11.407  0.5444  0.3723  0.4422
37930SOL    HW119753   2.932  12.143  11.453  1.5974  0.3195  0.1064
37930SOL    HW219754   2.918  12.203  11.314  0.5708  0.6946  0.3586
37931SOL     OW19755  12.009   2.199   0.642 -0.2415  0.3960 -0.5111
37931SOL    HW119756  12.097   2.193   0.680 -0.6466 -0.5177  0.3171
37931SOL    HW219757  12.025   2.223   0.551  0.8059  1.5159 -0.0824
37932SOL     OW19758   4.783   7.414  11.443  0.2938 -0.3268 -0.4138
37932SOL    HW119759   4.851   7.350  11.464  0.8789 -0.2163 -1.8298
37932SOL    HW219760   4.731   7.371  11.375 -0.0081  0.2627 -0.5595
37933SOL     OW19761   1.459   6.078   8.738  0.6403 -0.2711 -0.4519
37933SOL    HW119762   1.445   6.092   8.832  1.0683 -1.0524 -0.2596
37933SOL    HW219763   1.457   5.982   8.728  2.3899 -0.2977 -0.9280
37934SOL     OW19764   1.765   8.773  11.225  0.3057  0.0856 -0.3952
37934SOL    HW119765   1.777   8.868  11.221 -1.6447  0.4480  0.8389
37934SOL    HW219766   1.804   8.746  11.308  0.3193 -0.1053 -0.4625
37935SOL     OW19767   7.397   8.832  10.495 -0.6502  0.2584  0.0716
37935SOL    HW119768   7.429   8.873  10.576 -1.8778  0.9517  0.2344
37935SOL    HW219769   7.415   8.739  10.506  0.8468  0.5465  0.3410
37936SOL     OW19770   9.095   0.486  12.005  0.4838 -0.1324 -0.1949
37936SOL    HW119771   9.026   0.530  12.053  0.9417 -0.9408  1.2397
37936SOL    HW219772   9.062   0.480  11.915 -1.0792 -0.0860  0.3602
37937SOL     OW19773   2.952   2.142   8.013 -0.3092 -0.4188 -0.1736
37937SOL    HW119774   3.018   2.132   7.945 -0.4624  0.4361 -0.4624
37937SOL    HW219775   2.896   2.214   7.983 -0.1872  0.2041  1.0040
37938SOL     OW19776  10.573   4.536   2.885 -0.1930 -0.4367 -0.5541
37938SOL    HW119777  10.577   4.505   2.795  0.8412  0.9130 -0.9931
37938SOL    HW219778  10.571   4.456   2.938 -1.1293 -1.2411 -1.7603
37939SOL     OW19779   6.902   3.152   0.099  0.1812  0.1330 -0.8902
37939SOL    HW119780   6.892   3.058   0.085  0.7424 -0.2688  1.0269
37939SOL    HW219781   6.909   3.189   0.011 -2.1262 -1.3384 -1.7947
37940SOL     OW19782   7.642   1.649   4.815  0.0021 -0.2939  0.0549
37940SOL    HW119783   7.561   1.615   4.854  0.7204 -0.3785  1.5493
37940SOL    HW219784   7.622   1.657   4.722 -1.5743 -0.7483  0.3191
37941SOL     OW19785   9.158   0.652   7.658  0.2959 -0.4590 -0.6062
37941SOL    HW119786   9.238   0.637   7.606  0.7778  1.8755 -0.6367
37941SOL    HW219787   9.184   0.716   7.723 -0.8970 -1.7115  1.1824
37942SOL     OW19788   4.037   7.045   2.790  0.0098  0.2432 -0.3067
37942SOL    HW119789   3.996   7.096   2.720  0.6222  0.4341 -0.5405
37942SOL    HW219790   4.109   7.100   2.820 -0.2026  0.1281  0.4290
37943SOL     OW19791   5.915   3.837   4.743 -0.1657 -0.3948 -0.1575
37943SOL    HW119792   5.993   3.891   4.730  0.0193 -0.6847 -0.2365
37943SOL    HW219793   5.939   3.751   4.711 -0.9908 -0.1364 -1.5698
37944SOL     OW19794   2.589   4.578   8.394  0.0411  0.1441 -0.2892
37944SOL    HW119795   2.603   4.507   8.332  0.9005  0.2089 -0.1923
37944SOL    HW219796   2.626   4.655   8.351 -0.8861  0.5380 -0.3963
37945SOL     OW19797  10.260   8.702  11.905 -0.1727 -0.2291  0.3739
37945SOL    HW119798  10.326   8.735  11.967 -0.0330 -0.4735  0.3561
37945SOL    HW219799  10.203   8.777  11.890 -0.0237 -0.0756  0.5563
37946SOL     OW19800   1.604  11.880   4.212  0.6008 -0.7007  0.1513
37946SOL    HW119801   1.615  11.972   4.234  0.2021 -0.4603 -0.6588
37946SOL    HW219802   1.539  11.848   4.276 -1.2992  0.2374 -1.2276
37947SOL     OW19803   0.391   3.149   8.659  0.3341 -0.3996 -0.3388
37947SOL    HW119804   0.460   3.125   8.721 -0.2351 -0.2484  0.3601
37947SOL    HW219805   0.322   3.186   8.713  0.4575  1.1937 -1.1911
37948SOL     OW19806  10.922  11.166   0.204 -0.5330 -0.6959  0.0411
37948SOL    HW119807  11.009  11.175   0.164  0.0184  0.1498  1.3558
37948SOL    HW219808  10.876  11.246   0.179 -1.1861 -1.4444 -1.2040
37949SOL     OW19809   2.750   4.990  11.957 -0.3297  0.0483 -0.1650
37949SOL    HW119810   2.720   4.970  11.868  0.1047 -0.8536 -0.1198
37949SOL    HW219811   2.786   5.078  11.951  0.0872 -0.1715 -0.9818
37950SOL     OW19812  10.995  11.652  11.509 -0.5392  0.4261  0.3722
37950SOL    HW119813  10.959  11.739  11.527 -1.9752  0.1966 -1.1309
37950SOL    HW219814  10.919  11.596  11.496  0.3205 -0.4588 -1.3073
37951SOL     OW19815   8.770  11.055   8.315 -0.2525  0.4384 -0.6512
37951SOL    HW119816   8.839  11.017   8.369  0.9128  0.0886 -2.3403
37951SOL    HW219817   8.703  10.987   8.310 -0.9696  0.9178  1.3066
37952SOL     OW19818   0.684  10.738   3.711  0.1503 -0.0681 -0.4624
37952SOL    HW119819   0.658  10.797   3.781 -1.8917 -0.1951 -1.0416
37952SOL    HW219820   0.712  10.796   3.640 -0.1752  0.1563 -0.4098
37953SOL     OW19821   4.008   8.219   5.181 -0.1457 -0.4449  0.1890
37953SOL    HW119822   3.980   8.291   5.125  1.7160  0.0538 -0.1870
37953SOL    HW219823   4.066   8.167   5.126 -1.5567 -2.3524  0.4167
37954SOL     OW19824   6.618  12.167  12.453 -0.2339  0.4985 -0.2949
37954SOL    HW119825   6.609  12.196  12.362  1.0088  1.3804 -0.1734
37954SOL    HW219826   6.697  12.113  12.453  0.1977  1.1115  0.3822
37955SOL     OW19827   4.696   0.445   4.488  0.4443  0.0302 -0.2083
37955SOL    HW119828   4.646   0.420   4.410 -0.4823 -1.0938  0.7030
37955SOL    HW219829   4.631   0.483   4.547  1.4446  2.5646 -0.6414
37956SOL     OW19830   7.434   9.872  11.401  0.3735 -0.5034 -0.2338
37956SOL    HW119831   7.357   9.911  11.442 -0.0391  0.7920 -2.0922
37956SOL    HW219832   7.405   9.786  11.373 -0.4516 -0.0074 -0.9605
37957SOL     OW19833   6.153   0.064   4.250 -0.0923 -0.5232  0.3948
37957SOL    HW119834   6.223   0.023   4.199  1.6626 -1.3761  3.2336
37957SOL    HW219835   6.186   0.151   4.272 -1.0088 -0.0043 -0.1881
37958SOL     OW19836   9.378   0.965   1.906  0.1000 -0.2315 -0.1553
37958SOL    HW119837   9.465   0.932   1.881  1.8525  1.0193  3.5884
37958SOL    HW219838   9.376   1.054   1.872  1.8193  0.9138  2.4115
37959SOL     OW19839  10.146   3.172   6.340  0.1415 -0.6909  0.3160
37959SOL    HW119840  10.140   3.183   6.245  1.6746 -0.5199  0.2134
37959SOL    HW219841  10.191   3.250   6.371 -0.4262 -0.7014  1.2097
37960SOL     OW19842  10.988   9.356   0.466  0.7170 -0.7474 -0.0846
37960SOL    HW119843  11.070   9.356   0.516 -0.4116  0.1059  1.8580
37960SOL    HW219844  10.937   9.284   0.502  0.4472 -1.0404 -1.0263
37961SOL     OW19845   0.194   8.761   3.015  0.0317  0.2730  0.5003
37961SOL    HW119846   0.185   8.852   3.045  1.0327  0.2961  0.7758
37961SOL    HW219847   0.146   8.758   2.932  1.1926  1.4378 -0.2459
37962SOL     OW19848   5.228   9.286  11.316 -0.0612 -0.7912 -0.4033
37962SOL    HW119849   5.271   9.289  11.231 -0.0824  0.4549 -0.3907
37962SOL    HW219850   5.193   9.197  11.323  0.5739 -1.1263 -1.3725
37963SOL     OW19851   3.525   3.304   5.236 -0.3382  0.0112  0.7070
37963SOL    HW119852   3.454   3.368   5.230  1.2250  1.6535 -1.3976
37963SOL    HW219853   3.596   3.350   5.280  0.0615 -1.0590  1.2310
37964SOL     OW19854   5.081   9.463   0.812  0.3450  0.8297  0.0986
37964SOL    HW119855   5.054   9.502   0.895  0.1926  2.6739 -0.7811
37964SOL    HW219856   5.107   9.373   0.835  0.6068  1.3958  2.1760
37965SOL     OW19857  12.272   1.166  10.321 -0.1502 -0.2282 -0.2595
37965SOL    HW119858  12.237   1.158  10.232 -0.3717  0.7039 -0.2589
37965SOL    HW219859  12.356   1.121  10.317  0.7813  1.5252 -1.4777
37966SOL     OW19860   3.219   8.164   3.044 -0.3193  0.4054  0.0174
37966SOL    HW119861   3.205   8.157   2.950 -0.8007 -0.2195  0.1349
37966SOL    HW219862   3.193   8.254   3.066 -0.4516  0.4668 -0.3958
37967SOL     OW19863   4.869   2.149   0.964 -0.0359  0.6121  0.6953
37967SOL    HW119864   4.774   2.144   0.948  0.4033 -0.7921 -2.1365
37967SOL    HW219865   4.894   2.060   0.986  0.9367  0.3629 -1.1952
37968SOL     OW19866   5.169   1.670   0.197 -0.4218 -0.6830  0.2549
37968SOL    HW119867   5.250   1.665   0.248 -0.9713 -2.2315  1.0043
37968SOL    HW219868   5.100   1.646   0.258 -1.1900 -1.7276 -0.9880
37969SOL     OW19869   6.430   4.967  10.455  0.4076  0.2204 -0.3342
37969SOL    HW119870   6.494   5.009  10.397  1.6471  0.2596  1.0034
37969SOL    HW219871   6.450   4.874  10.449 -1.3285 -0.0895 -2.1074
37970SOL     OW19872   0.155   7.542   2.894 -0.3387 -0.8475  0.3152
37970SOL    HW119873   0.222   7.510   2.835 -0.3989  0.5598 -0.5680
37970SOL    HW219874   0.185   7.518   2.981  2.0828  0.9925  0.0812
37971SOL     OW19875  11.524   2.880   5.871 -0.1046 -0.0495 -0.0501
37971SOL    HW119876  11.547   2.862   5.780  1.1508 -1.3293  0.4806
37971SOL    HW219877  11.434   2.913   5.867  0.0220  0.1945 -1.7620
37972SOL     OW19878   9.662   2.483   3.807 -0.2723  0.8923 -0.0913
37972SOL    HW119879   9.696   2.530   3.731 -0.7932  0.4486 -0.6118
37972SOL    HW219880   9.645   2.551   3.872  1.4655  1.1382  0.1463
37973SOL     OW19881  10.446   3.026   8.879 -0.0898 -0.0267 -0.1542
37973SOL    HW119882  10.407   3.032   8.966 -0.3323  1.0107 -0.3297
37973SOL    HW219883  10.539   3.008   8.895  0.3199  2.2888  0.4005
37974SOL     OW19884   2.009   8.093   6.016  0.1246  0.5986 -0.5932
37974SOL    HW119885   1.935   8.071   5.960 -0.2483  0.0882  0.0877
37974SOL    HW219886   1.979   8.074   6.105  1.1663  0.0860 -0.3294
37975SOL     OW19887   7.160   1.725   1.862  0.0453  0.5320 -0.2731
37975SOL    HW119888   7.173   1.692   1.773  2.0005 -0.0609  0.1725
37975SOL    HW219889   7.093   1.669   1.899  0.2468 -0.1581 -0.9153
37976SOL     OW19890   1.968   3.842   8.361  0.1390 -0.1880  0.1849
37976SOL    HW119891   2.000   3.801   8.281  0.3270 -0.9603  0.6442
37976SOL    HW219892   1.890   3.791   8.384  0.0254  0.0957  0.4350
37977SOL     OW19893   5.649   9.935  11.111 -0.1640 -0.0470  0.2681
37977SOL    HW119894   5.599   9.975  11.040  0.6820  2.3619  0.9362
37977SOL    HW219895   5.624   9.843  11.108 -1.1308  0.1916 -2.3164
37978SOL     OW19896  11.572  12.178   5.970  0.1440 -0.2143  0.1881
37978SOL    HW119897  11.513  12.251   5.957 -0.0237 -0.2943  0.4915
37978SOL    HW219898  11.629  12.205   6.042 -0.2222 -0.5695  0.6118
37979SOL     OW19899   2.857   4.265   9.060  0.2835  0.2020  0.5900
37979SOL    HW119900   2.875   4.359   9.053  0.8795  0.0040 -1.3231
37979SOL    HW219901   2.791   4.258   9.129  1.7388  1.7979  2.2592
37980SOL     OW19902   7.533  11.404  12.184 -0.0699  0.2030 -0.0506
37980SOL    HW119903   7.558  11.314  12.159  0.5588  0.7281 -1.4239
37980SOL    HW219904   7.438  11.404  12.180 -0.0367 -0.0100 -1.6509
37981SOL     OW19905   1.786   5.711   0.641  0.3262 -0.7516  0.1847
37981SOL    HW119906   1.872   5.671   0.631 -0.3461 -2.1163 -0.4677
37981SOL    HW219907   1.744   5.661   0.712  0.0842 -0.0843  0.5150
37982SOL     OW19908   7.129   7.583   4.602  0.3321 -0.1574 -0.4554
37982SOL    HW119909   7.070   7.523   4.557 -1.1066  0.5138  0.4821
37982SOL    HW219910   7.120   7.666   4.555  0.9476 -0.1798 -0.6281
37983SOL     OW19911   5.116   1.065   1.836  0.5217  0.0519 -0.7817
37983SOL    HW119912   5.155   1.149   1.812  1.4892  0.2506  1.3146
37983SOL    HW219913   5.057   1.084   1.908 -0.1787 -0.9230 -1.0610
37984SOL     OW19914   1.050   7.706   1.595 -0.1048 -0.1520  0.1515
37984SOL    HW119915   1.090   7.623   1.623  2.5326  0.9000 -0.2824
37984SOL    HW219916   1.011   7.742   1.675  1.0786 -0.5642  0.9312
37985SOL     OW19917   3.819   9.832  11.736 -0.4707  0.0743  0.6838
37985SOL    HW119918   3.762   9.849  11.810 -0.1436 -1.7780  1.4201
37985SOL    HW219919   3.829   9.737  11.734  0.3144  0.1416 -1.1491
37986SOL     OW19920  10.276   9.213   9.676  0.5207  0.3400 -0.0312
37986SOL    HW119921  10.210   9.279   9.656  2.2032  2.3163  0.5535
37986SOL    HW219922  10.246   9.172   9.757  0.6324  2.1384  0.9609
37987SOL     OW19923   9.585  10.408   8.479 -0.0687 -0.1155  0.1851
37987SOL    HW119924   9.614  10.400   8.389 -0.5619 -0.3779  0.0417
37987SOL    HW219925   9.544  10.494   8.483 -0.1979 -0.1729  0.1100
37988SOL     OW19926   7.702  10.654   2.603 -0.2540 -0.6268  0.5298
37988SOL    HW119927   7.710  10.736   2.652  0.8241  1.2868 -2.5678
37988SOL    HW219928   7.613  10.624   2.620 -1.1303  1.9132  0.7796
37989SOL     OW19929   9.032   1.340   3.917 -0.1543  0.1381 -0.0941
37989SOL    HW119930   9.058   1.426   3.948 -1.2844  0.1854  0.8049
37989SOL    HW219931   9.033   1.347   3.822 -0.3293  1.1775 -0.0275
37990SOL     OW19932   7.345  12.118   2.221 -0.1298 -0.4494 -0.0429
37990SOL    HW119933   7.365  12.025   2.210  0.4130 -0.8103  3.0401
37990SOL    HW219934   7.414  12.150   2.279 -1.0451  1.5729 -0.0066
37991SOL     OW19935   9.772  10.756  10.192  0.3583  0.6214  0.1391
37991SOL    HW119936   9.742  10.715  10.272  2.1374 -0.9265  0.0813
37991SOL    HW219937   9.697  10.754  10.133 -0.6218  0.7161  1.3598
37992SOL     OW19938   7.788   4.160   8.401  0.1791 -0.0803  0.0566
37992SOL    HW119939   7.698   4.157   8.368  0.4251  0.8270 -0.7705
37992SOL    HW219940   7.814   4.252   8.390  0.7789 -0.0653  1.4790
37993SOL     OW19941   0.937   7.701  11.982  0.3784 -0.8975 -0.4664
37993SOL    HW119942   0.942   7.607  11.965  0.5338 -0.8720 -0.5636
37993SOL    HW219943   0.958   7.709  12.075 -2.0946 -1.1992  0.1938
37994SOL     OW19944   5.026   7.030   7.065  0.3704 -0.0544 -0.1956
37994SOL    HW119945   5.052   7.119   7.090  1.2004  0.1274 -1.5751
37994SOL    HW219946   4.939   7.019   7.102  0.4102  1.1972  0.3270
37995SOL     OW19947   7.579   6.577   6.415  0.1376  0.5456  0.6916
37995SOL    HW119948   7.486   6.559   6.403  0.1267 -0.4073  1.9415
37995SOL    HW219949   7.582   6.646   6.482  0.3275  0.6138  0.6135
37996SOL     OW19950   9.490   0.753   7.602 -0.1070  0.1328  0.4360
37996SOL    HW119951   9.444   0.835   7.582  0.6583  0.4096 -0.2804
37996SOL    HW219952   9.578   0.781   7.627  0.0891 -0.4594  0.4161
37997SOL     OW19953   9.823   3.767   0.024 -0.1416 -0.1343 -0.1565
37997SOL    HW119954   9.875   3.824  -0.032  1.3209 -1.5290 -0.3080
37997SOL    HW219955   9.862   3.680   0.013 -0.9011 -0.7723  1.7122
37998SOL     OW19956   9.342   4.985   7.168 -0.5574 -0.5351  0.0959
37998SOL    HW119957   9.364   4.936   7.089 -1.3750  0.0356 -0.5006
37998SOL    HW219958   9.251   4.962   7.186 -1.2199  1.3098 -0.6401
37999SOL     OW19959  11.965   4.637   3.091  0.1139  0.1595 -0.0172
37999SOL    HW119960  11.880   4.596   3.077  0.2278 -0.3091  0.6327
37999SOL    HW219961  11.994   4.605   3.176  0.7246  0.6959 -0.0134
38000SOL     OW19962   1.848  11.918   8.102  0.5328  0.1026  0.4742
38000SOL    HW119963   1.778  11.876   8.152  0.5070 -0.8321 -0.3149
38000SOL    HW219964   1.825  11.901   8.011  0.4018  2.0440  0.0935
38001SOL     OW19965   9.872   7.506  10.272 -0.1667  0.3133  0.2794
38001SOL    HW119966   9.831   7.581  10.229 -1.0758 -0.0712  0.4613
38001SOL    HW219967   9.928   7.467  10.205  1.2909  1.8609  0.5329
38002SOL     OW19968   6.303  11.443   9.445  0.3266 -0.0562  0.7435
38002SOL    HW119969   6.397  11.440   9.427  0.3620  1.7850  0.3564
38002SOL    HW219970   6.268  11.362   9.410  1.6624 -0.3952  0.1499
38003SOL     OW19971   9.158   0.197   0.584 -0.1574  0.3475 -0.0701
38003SOL    HW119972   9.088   0.131   0.582  0.3256 -0.2822  1.8623
38003SOL    HW219973   9.238   0.148   0.565 -0.0466  0.7935 -0.7800
38004SOL     OW19974  11.374   7.431   2.135 -0.1123 -0.1622  0.2354
38004SOL    HW119975  11.444   7.376   2.100  1.6841  2.7578 -1.1278
38004SOL    HW219976  11.378   7.417   2.229  1.3853 -1.1122  0.0711
38005SOL     OW19977   1.314   2.027   7.774  0.1453 -0.1374 -0.6988
38005SOL    HW119978   1.400   1.986   7.777  1.4924  2.4600 -0.4476
38005SOL    HW219979   1.316   2.079   7.693 -0.9918  0.3028 -0.4614
38006SOL     OW19980   1.636  12.386   6.756  0.0062  0.0693  0.1744
38006SOL    HW119981   1.713  12.335   6.730 -1.0044 -0.0035 -3.2462
38006SOL    HW219982   1.583  12.326   6.808  1.1943 -0.6469  0.5838
38007SOL     OW19983   8.383   7.342   2.301 -0.5871 -0.0768  0.4429
38007SOL    HW119984   8.413   7.431   2.285 -0.9796  0.0543  0.4069
38007SOL    HW219985   8.455   7.286   2.273  0.0305  0.2605  1.3603
38008SOL     OW19986   9.549   5.823   8.266  0.1382  0.1941 -0.4367
38008SOL    HW119987   9.471   5.849   8.218 -1.8210 -0.8789  1.9614
38008SOL    HW219988   9.552   5.883   8.341 -1.6691 -2.9587  2.4826
38009SOL     OW19989   0.541   9.667   6.453  0.5834 -0.6437  0.1689
38009SOL    HW119990   0.446   9.663   6.446  0.4664  1.1708  0.0999
38009SOL    HW219991   0.567   9.735   6.390  1.8357 -0.5278  0.7739
38010SOL     OW19992   6.268   7.593  10.729 -0.2121 -0.1502 -0.0831
38010SOL    HW119993   6.321   7.513  10.738  0.2979  0.4057  2.7175
38010SOL    HW219994   6.191   7.565  10.681 -0.0234 -2.3435  0.7762
38011SOL     OW19995   9.935   3.422   4.424  0.0567  0.2721 -0.0792
38011SOL    HW119996   9.899   3.493   4.370  1.2221  0.1010 -1.1355
38011SOL    HW219997  10.018   3.456   4.457  0.3337 -0.3806 -0.0940
38012SOL     OW19998   3.043   6.588  12.467  0.3872  0.0377  0.0347
38012SOL    HW119999   2.958   6.585  12.512  1.0512 -0.0745  1.3365
38012SOL    HW220000   3.027   6.644  12.391 -1.2130 -1.1642 -0.5892
38013SOL     OW20001   6.651  12.476   0.065  0.3315  0.1913  0.6075
38013SOL    HW120002   6.680  12.411   0.129 -2.2058  0.1218  1.8227
38013SOL    HW220003   6.683  12.560   0.100  0.8771 -0.0704  0.7488
38014SOL     OW20004   2.378   2.897   3.762 -0.0372  0.3264  0.0455
38014SOL    HW120005   2.397   2.905   3.668  1.2979 -2.1550  0.0228
38014SOL    HW220006   2.403   2.981   3.799  0.1749  1.0716 -1.7105
38015SOL     OW20007   5.417   4.585   1.583 -0.3572  0.3486 -0.0910
38015SOL    HW120008   5.339   4.587   1.639 -0.9459  0.5129 -0.8992
38015SOL    HW220009   5.442   4.493   1.579  0.0476  0.3924  0.8968
38016SOL     OW20010  10.129   0.100   6.341  0.1308 -0.2142  0.3147
38016SOL    HW120011  10.149   0.038   6.271  0.4234  0.1987  0.0295
38016SOL    HW220012  10.033   0.096   6.350  0.1948 -1.2150  0.7799
38017SOL     OW20013   4.001   0.158   4.231 -0.0723  0.2586 -0.0990
38017SOL    HW120014   3.959   0.095   4.173 -0.9068  0.4933  0.2303
38017SOL    HW220015   3.931   0.220   4.254  1.1002  2.2717 -1.6930
38018SOL     OW20016  10.551   1.136  11.638  0.1108  0.4425  0.0823
38018SOL    HW120017  10.495   1.070  11.597  0.8697  0.3059 -0.7553
38018SOL    HW220018  10.596   1.179  11.565  0.2812  1.2957  0.6760
38019SOL     OW20019  12.168   9.798   8.761  0.2444 -0.1121 -0.4890
38019SOL    HW120020  12.173   9.856   8.837  0.1835 -1.2125  0.3793
38019SOL    HW220021  12.253   9.806   8.719 -0.3109  1.8645 -1.3636
38020SOL     OW20022   1.691   1.945   0.641 -0.4655 -0.1555 -0.2488
38020SOL    HW120023   1.641   1.960   0.561  1.3904 -1.2696 -1.7181
38020SOL    HW220024   1.651   1.868   0.681 -0.0547 -0.9465 -1.3235
38021SOL     OW20025   8.850   4.189  12.049  0.0433 -0.4888  0.3972
38021SOL    HW120026   8.930   4.170  12.098 -0.1862 -2.6193  0.0325
38021SOL    HW220027   8.873   4.172  11.958 -1.0700 -2.1563  0.3929
38022SOL     OW20028   0.164   8.664  11.478  0.1113  0.1706 -0.2527
38022SOL    HW120029   0.217   8.744  11.477 -1.3653  1.2255  1.2322
38022SOL    HW220030   0.105   8.673  11.404 -0.4714  0.7801  0.2741
38023SOL     OW20031  10.567   0.807   1.056 -0.3418  0.1379  0.4268
38023SOL    HW120032  10.567   0.712   1.047 -1.4529  0.2562 -0.9844
38023SOL    HW220033  10.648   0.835   1.014 -0.9764 -0.0495 -0.9581
38024SOL     OW20034   6.185   0.717   4.105 -0.0805 -0.3804  0.1070
38024SOL    HW120035   6.117   0.762   4.054  0.9609  1.3447  0.1700
38024SOL    HW220036   6.137   0.673   4.175 -1.4191 -1.7879 -1.5968
38025SOL     OW20037   5.000   4.199   6.180  0.1336  0.0068  0.0526
38025SOL    HW120038   5.042   4.193   6.266 -0.4211  1.6360  0.4604
38025SOL    HW220039   4.907   4.211   6.199  0.0025  0.3838 -0.7667
38026SOL     OW20040   7.872  11.345   6.391 -0.1664 -0.5472  0.2421
38026SOL    HW120041   7.875  11.260   6.348  1.0849 -0.0636 -0.6981
38026SOL    HW220042   7.848  11.326   6.482  0.4277 -1.9258  0.1283
38027SOL     OW20043   1.473   7.839   0.567 -0.0789 -0.4372 -0.2173
38027SOL    HW120044   1.469   7.855   0.473  0.1425  0.5589 -0.0665
38027SOL    HW220045   1.566   7.826   0.586 -0.2418 -1.8718 -0.3185
38028SOL     OW20046   8.289  11.161   0.496  0.0291  0.1728  0.0452
38028SOL    HW120047   8.203  11.129   0.468  0.5608 -2.0608  0.7253
38028SOL    HW220048   8.336  11.082   0.522  1.4942  1.5619  1.8690
38029SOL     OW20049   4.535  12.359  10.860  0.7239 -0.1415 -0.4384
38029SOL    HW120050   4.480  12.393  10.790  0.4302 -2.7504 -1.5963
38029SOL    HW220051   4.496  12.392  10.941 -0.5616  0.7047 -1.3746
38030SOL     OW20052   2.838  10.700  10.860 -0.1079  0.0258  0.3395
38030SOL    HW120053   2.777  10.675  10.791  1.8106 -0.5193 -1.2422
38030SOL    HW220054   2.815  10.642  10.934 -0.8350 -0.8789 -0.5704
38031SOL     OW20055   6.594   2.961   4.522  0.2870  0.1279  0.2974
38031SOL    HW120056   6.564   2.874   4.544  0.7397  0.3243  1.8299
38031SOL    HW220057   6.645   2.950   4.441 -1.8586 -0.5559 -1.0371
38032SOL     OW20058   8.858   9.360  12.088 -0.7647  0.1880 -0.0579
38032SOL    HW120059   8.860   9.442  12.138 -0.2840 -0.4491  1.0247
38032SOL    HW220060   8.764   9.342  12.074 -0.8534  1.3791 -1.1303
38033SOL     OW20061   2.268   8.190   8.414 -0.5435 -0.3879  0.0158
38033SOL    HW120062   2.360   8.214   8.417 -0.4111 -0.9245  0.3758
38033SOL    HW220063   2.226   8.245   8.480 -0.7464  0.8999 -1.1247
38034SOL     OW20064   4.025  10.593   2.654  0.3873 -0.2526 -0.1193
38034SOL    HW120065   3.981  10.621   2.574 -0.0311  0.7853  0.4443
38034SOL    HW220066   3.967  10.624   2.725 -0.3183 -2.8946  0.5847
38035SOL     OW20067   8.606  11.591   4.439  0.0846 -0.3765  0.3515
38035SOL    HW120068   8.673  11.655   4.416  0.3854 -0.7653  0.1226
38035SOL    HW220069   8.635  11.555   4.523  0.5985 -1.1170 -0.1316
38036SOL     OW20070  11.503   3.587   5.597 -0.1896  0.8500 -0.5287
38036SOL    HW120071  11.488   3.510   5.542 -3.4318  0.7409  0.2970
38036SOL    HW220072  11.557   3.645   5.543  2.5742 -1.9640 -1.0882
38037SOL     OW20073   7.464   3.196  12.123 -0.5588 -0.0091 -0.6046
38037SOL    HW120074   7.393   3.161  12.070 -1.9153  0.2171  0.9837
38037SOL    HW220075   7.446   3.290  12.129  0.3114  0.1812 -0.8121
38038SOL     OW20076   7.947   1.110   8.707  0.2690 -0.0396  0.3815
38038SOL    HW120077   7.980   1.197   8.687 -1.3534  0.8972  1.5665
38038SOL    HW220078   7.989   1.086   8.790  0.5831 -0.3241  0.1443
38039SOL     OW20079   5.970   9.829   5.702 -0.3532  0.1745  0.6515
38039SOL    HW120080   5.895   9.802   5.650  0.1305 -0.9487  0.5091
38039SOL    HW220081   5.983   9.758   5.765  1.8383 -0.6990 -0.6564
38040SOL     OW20082  12.384   7.949  10.211  0.8474  0.1615 -0.1227
38040SOL    HW120083  12.372   7.864  10.255  1.3216 -0.0164 -0.3329
38040SOL    HW220084  12.478   7.956  10.199  0.7729  0.5350 -0.4836
38041SOL     OW20085   0.123   1.923   5.028  0.2595 -0.5641  0.0589
38041SOL    HW120086   0.091   1.835   5.047  3.3811 -2.0682 -0.9050
38041SOL    HW220087   0.126   1.927   4.932 -1.6936  1.4014  0.0180
38042SOL     OW20088   8.019   3.320   1.775 -0.0157  0.2885  0.6657
38042SOL    HW120089   8.067   3.403   1.766 -0.6478  0.5410 -0.6393
38042SOL    HW220090   7.930   3.346   1.799 -0.7013  0.1526 -1.5137
38043SOL     OW20091   5.001   0.636   5.079  0.2694 -0.1158 -0.5030
38043SOL    HW120092   4.975   0.550   5.112  0.2981 -0.7435 -2.0340
38043SOL    HW220093   4.918   0.683   5.070  0.2395 -0.0172  0.1932
38044SOL     OW20094   8.493   4.822  12.403 -0.1028 -0.1671 -0.1699
38044SOL    HW120095   8.569   4.856  12.355 -0.5070  0.1083 -0.6185
38044SOL    HW220096   8.467   4.744  12.355  0.0177 -0.3819  0.1062
38045SOL     OW20097   9.403   8.470   1.074 -0.3499  0.0593 -0.0942
38045SOL    HW120098   9.460   8.405   1.033 -0.3117 -0.2748  0.4902
38045SOL    HW220099   9.411   8.547   1.017 -0.2795 -0.3867 -0.7027
38046SOL     OW20100   3.498   0.035   0.451  0.1486  0.1796  0.4291
38046SOL    HW120101   3.416   0.068   0.415  0.2324  0.7778  0.7762
38046SOL    HW220102   3.550   0.010   0.374 -0.3413 -0.1792  0.2104
38047SOL     OW20103   2.558   9.314   4.987  0.1681  0.3930 -0.0045
38047SOL    HW120104   2.491   9.381   4.977  0.4101  0.9782  1.9121
38047SOL    HW220105   2.626   9.355   5.040  0.3775 -1.3029  1.1253
38048SOL     OW20106   4.423   2.567  10.458  0.2307 -0.5492 -0.1820
38048SOL    HW120107   4.331   2.590  10.443  0.7041  0.2269 -2.1937
38048SOL    HW220108   4.419   2.492  10.518 -1.7987 -1.5838 -1.4789
38049SOL     OW20109   6.707   7.905   0.101  0.5571 -0.1410  0.0777
38049SOL    HW120110   6.795   7.928   0.072  0.9027  0.9091  1.8108
38049SOL    HW220111   6.652   7.977   0.068  0.0760 -1.3876 -2.0325
38050SOL     OW20112   2.735  11.209   0.484  0.2688 -0.1605  0.3559
38050SOL    HW120113   2.739  11.291   0.533  0.0642 -0.2504  0.5243
38050SOL    HW220114   2.823  11.198   0.449 -0.0321  0.8024 -0.7613
38051SOL     OW20115  12.109   9.049   3.466 -0.3245  0.3351  0.2627
38051SOL    HW120116  12.044   9.117   3.486 -0.9823 -0.3522  0.5062
38051SOL    HW220117  12.097   8.984   3.536  0.5861  0.1693  0.2731
38052SOL     OW20118   9.354   1.692   0.449 -0.5401 -0.8295  0.1454
38052SOL    HW120119   9.319   1.779   0.428  1.8690  0.2737  0.2642
38052SOL    HW220120   9.393   1.661   0.367  0.7101 -0.6745  0.6505
38053SOL     OW20121   8.445  10.019  11.691  0.0949  0.2217 -0.5358
38053SOL    HW120122   8.524   9.969  11.709 -0.4718 -0.2094  0.9280
38053SOL    HW220123   8.373   9.964  11.723 -0.5568  1.8770  1.0613
38054SOL     OW20124   4.382   9.910   2.388 -0.5511 -0.3624 -0.1992
38054SOL    HW120125   4.422   9.830   2.353  0.4901  0.6406 -1.3633
38054SOL    HW220126   4.355   9.959   2.311  1.4057  1.7170  0.3401
38055SOL     OW20127  10.093  10.802   2.491 -0.3195  0.2070  0.7898
38055SOL    HW120128  10.118  10.856   2.416 -2.7671 -0.7801 -0.8777
38055SOL    HW220129  10.044  10.861   2.548 -1.4553  0.2145 -0.1549
38056SOL     OW20130   1.304   6.637   0.275  0.2414 -0.8622  0.4885
38056SOL    HW120131   1.278   6.680   0.194 -1.6524 -1.0114  0.9686
38056SOL    HW220132   1.368   6.696   0.314  0.2086 -0.1568 -0.4911
38057SOL     OW20133   6.831  11.988  12.355 -0.3856  0.3866  0.5658
38057SOL    HW120134   6.879  11.995  12.272 -0.0669  0.9364  0.7958
38057SOL    HW220135   6.888  12.028  12.420 -0.8921  0.4878  0.9549
38058SOL     OW20136   9.974   1.734  10.528 -0.5164  0.5943 -0.1700
38058SOL    HW120137   9.954   1.737  10.435 -0.8895 -0.1276 -0.1188
38058SOL    HW220138   9.974   1.826  10.555 -0.2479  0.8223 -0.9066
38059SOL     OW20139  11.572   9.757   8.359  0.1070  0.0638  0.3492
38059SOL    HW120140  11.547   9.749   8.267 -1.4689  0.1613  0.7414
38059SOL    HW220141  11.499   9.717   8.407  1.1117 -0.3866  1.5444
38060SOL     OW20142  10.468   6.908  10.509 -0.0578  0.3448 -0.4443
38060SOL    HW120143  10.505   6.974  10.567  0.3316  0.1878 -0.5100
38060SOL    HW220144  10.378   6.937  10.493  0.2615  1.1093 -0.8586
38061SOL     OW20145   4.441   4.462   1.735  0.1392 -0.1420 -0.2192
38061SOL    HW120146   4.530   4.452   1.701 -0.0058 -0.3905 -0.5258
38061SOL    HW220147   4.416   4.375   1.765  0.4974  0.1935  1.1204
38062SOL     OW20148   0.406   6.396  12.026 -0.0300 -0.5710 -0.2420
38062SOL    HW120149   0.329   6.377  11.973  0.9631 -0.9575 -1.5925
38062SOL    HW220150   0.449   6.468  11.981  0.1294  0.0107  0.8046
38063SOL     OW20151   8.842   2.563   2.511 -0.3249 -0.4283 -0.0336
38063SOL    HW120152   8.884   2.596   2.431  0.1352 -1.8488 -0.4099
38063SOL    HW220153   8.767   2.513   2.479 -0.8956  0.0760  0.5095
38064SOL     OW20154   6.382   8.322  10.029 -0.0605  0.4238  0.1998
38064SOL    HW120155   6.344   8.410  10.037 -0.7321  0.1436  0.1337
38064SOL    HW220156   6.344   8.273  10.102 -0.8890 -0.2415 -0.6572
38065SOL     OW20157   8.509   9.335   9.915 -0.1011 -0.0755 -0.2207
38065SOL    HW120158   8.557   9.415   9.939  0.0296  0.8424 -3.1833
38065SOL    HW220159   8.416   9.359   9.925 -0.0632  0.4862 -1.1267
38066SOL     OW20160   4.820  12.359  11.852 -0.0537 -0.3940  0.3795
38066SOL    HW120161   4.747  12.362  11.789 -0.4347  1.5674  0.8383
38066SOL    HW220162   4.880  12.428  11.823  0.7594 -0.8186  1.0164
38067SOL     OW20163  11.188   2.524   7.983 -0.1115 -0.0615  0.3413
38067SOL    HW120164  11.268   2.534   8.035  0.1279  0.3794 -0.0966
38067SOL    HW220165  11.190   2.433   7.954  2.3477  0.8099 -2.9314
38068SOL     OW20166   9.764   5.460   2.906 -0.3022 -0.0301  0.7579
38068SOL    HW120167   9.794   5.406   2.980  0.0099  0.1097  0.7361
38068SOL    HW220168   9.746   5.546   2.944  2.0766  0.7380  0.3141
38069SOL     OW20169   2.260   3.726   8.980 -0.2071  0.4298 -0.7769
38069SOL    HW120170   2.290   3.639   8.956  0.2885 -0.2403  1.9241
38069SOL    HW220171   2.170   3.730   8.948  0.3000 -0.3740 -2.4263
38070SOL     OW20172  12.181   8.514  10.724 -0.3126 -0.4591 -0.2185
38070SOL    HW120173  12.123   8.500  10.798  0.8953  0.0081  0.8623
38070SOL    HW220174  12.123   8.521  10.648 -1.7149  0.7643  0.9110
38071SOL     OW20175   9.863  12.477   7.968  0.3601 -0.3118  0.4020
38071SOL    HW120176   9.880  12.383   7.973  1.0055 -0.1874  0.7298
38071SOL    HW220177   9.896  12.503   7.882 -1.4786 -0.6884 -0.4551
38072SOL     OW20178   6.685   8.663   6.328 -0.4367 -0.2811  0.0099
38072SOL    HW120179   6.748   8.602   6.288  0.9222  1.6570 -0.9563
38072SOL    HW220180   6.672   8.628   6.416 -2.1312 -3.6740 -1.3894
38073SOL     OW20181   5.444   9.972   4.737  0.1807 -0.5853 -0.9622
38073SOL    HW120182   5.470   9.970   4.829 -0.8963 -4.0462 -0.5802
38073SOL    HW220183   5.526   9.989   4.690  0.9857  0.0286  0.5861
38074SOL     OW20184   4.677   3.669  12.335 -0.5302  0.1034 -0.1329
38074SOL    HW120185   4.724   3.733  12.389 -0.6610  1.2532 -1.3596
38074SOL    HW220186   4.738   3.647  12.265 -0.8089 -0.4897 -0.1960
38075SOL     OW20187   8.127   2.016  12.380  0.1684  0.2709 -0.5457
38075SOL    HW120188   8.128   1.921  12.377  0.8048  0.2660 -0.4151
38075SOL    HW220189   8.034   2.040  12.387  0.0310 -0.3467 -0.2235
38076SOL     OW20190   0.507   5.428   8.901 -0.8478 -0.0228  0.1771
38076SOL    HW120191   0.493   5.523   8.900 -0.0130  0.1032 -0.0223
38076SOL    HW220192   0.505   5.403   8.809  0.2912  0.0174  0.1275
38077SOL     OW20193   0.430  10.823   4.405  0.0097  0.1322 -0.0796
38077SOL    HW120194   0.453  10.734   4.377 -2.4243 -0.7369  0.3840
38077SOL    HW220195   0.447  10.824   4.499 -2.9453 -1.0334  0.5769
38078SOL     OW20196   0.411   1.477   4.934  0.2165  0.5452 -0.3342
38078SOL    HW120197   0.403   1.450   4.843  0.7863  1.9258 -0.8297
38078SOL    HW220198   0.327   1.456   4.973  0.0243 -0.2191 -1.1333
38079SOL     OW20199   0.056  11.738   2.373  0.2626 -0.0326  0.4201
38079SOL    HW120200   0.050  11.833   2.358 -1.3471 -0.2283 -0.3444
38079SOL    HW220201   0.109  11.730   2.453  1.2557  1.4435 -0.0394
38080SOL     OW20202   5.832  11.921  10.817 -0.3541 -0.0331 -0.5384
38080SOL    HW120203   5.871  11.937  10.731  0.7726 -1.3458 -0.3088
38080SOL    HW220204   5.818  12.009  10.854  0.6595  0.5075 -1.3926
38081SOL     OW20205   3.443   6.123   1.805 -0.3801  0.4365 -0.1403
38081SOL    HW120206   3.424   6.166   1.721 -1.2790 -2.1822 -1.3672
38081SOL    HW220207   3.496   6.047   1.781 -0.8580 -0.5068  1.6513
38082SOL     OW20208   3.676   2.252  12.245 -0.1352  0.0905 -0.0655
38082SOL    HW120209   3.597   2.282  12.289  0.2494  2.7703 -1.0052
38082SOL    HW220210   3.660   2.160  12.227 -1.8907 -0.1195  2.1348
38083SOL     OW20211  10.967   5.369   6.924 -1.0241 -0.0737 -0.0758
38083SOL    HW120212  10.987   5.460   6.901 -2.3714  0.4990  0.8896
38083SOL    HW220213  11.028   5.317   6.872 -0.3721  1.3741 -0.8088
38084SOL     OW20214   1.429  10.835   7.840  0.1609  0.0292 -0.0504
38084SOL    HW120215   1.498  10.768   7.843 -0.3729 -0.5239  0.0169
38084SOL    HW220216   1.477  10.918   7.844  0.9423 -0.2942 -1.7246
38085SOL     OW20217  11.058   1.519   0.509 -0.1352  0.5285  0.1259
38085SOL    HW120218  11.016   1.443   0.470 -0.5668  0.6605  0.3275
38085SOL    HW220219  11.096   1.567   0.434  2.0543 -0.9930  0.1683
38086SOL     OW20220   2.577  11.702   2.098 -0.4370 -0.0547  0.2663
38086SOL    HW120221   2.554  11.794   2.111  0.4968  0.1458  0.5811
38086SOL    HW220222   2.507  11.667   2.044  1.0011  1.7720 -3.0863
38087SOL     OW20223   6.871   3.112   0.576  0.2023  0.0873 -0.0292
38087SOL    HW120224   6.786   3.141   0.610  0.6673  0.9766  0.3917
38087SOL    HW220225   6.932   3.124   0.649  1.2378  2.1116 -1.1366
38088SOL     OW20226   0.122  11.562   2.160  0.0285 -0.0249 -0.1749
38088SOL    HW120227   0.179  11.524   2.227 -0.3906  0.6841  0.6044
38088SOL    HW220228   0.082  11.638   2.203 -0.4190  0.3155 -1.1626
38089SOL     OW20229   1.991  11.116   3.410 -0.4651 -0.0041  0.2307
38089SOL    HW120230   2.049  11.172   3.358  0.9850 -0.2651  1.5021
38089SOL    HW220231   1.907  11.121   3.365  0.5074  0.4304 -1.6626
38090SOL     OW20232   5.241  12.407   0.819  0.0514 -0.1755  0.2311
38090SOL    HW120233   5.266  12.338   0.880  0.0332  1.4098  2.1440
38090SOL    HW220234   5.145  12.404   0.818  0.0288  0.2848  0.8849
38091SOL     OW20235   4.950   9.445   9.052  0.2580 -0.3688  0.1804
38091SOL    HW120236   4.954   9.489   9.137 -0.9201 -0.9894  0.5756
38091SOL    HW220237   4.999   9.503   8.993 -0.6647  1.1408  0.8300
38092SOL     OW20238   1.112   1.887  11.743 -0.4719 -0.1137 -0.4476
38092SOL    HW120239   1.159   1.899  11.661  1.9458  1.7580  1.0923
38092SOL    HW220240   1.112   1.792  11.756 -0.1441 -0.3846 -2.1658
38093SOL     OW20241   2.851   8.094   5.305  0.3436  0.4416 -0.6404
38093SOL    HW120242   2.807   8.010   5.320 -1.6976  1.5343 -0.1274
38093SOL    HW220243   2.871   8.127   5.392 -0.3151  1.1883 -0.7596
38094SOL     OW20244   2.579   6.211   4.675 -0.1987  0.6193 -0.4272
38094SOL    HW120245   2.499   6.263   4.661 -0.8319 -0.8927 -3.4090
38094SOL    HW220246   2.551   6.138   4.730 -0.3178  1.2137  0.3158
38095SOL     OW20247   8.108  10.117   1.334 -0.1596  0.1736  0.5288
38095SOL    HW120248   8.052  10.174   1.386  0.1382  0.8531  0.1166
38095SOL    HW220249   8.189  10.167   1.321 -0.3358  0.1536 -0.8287
38096SOL     OW20250   9.226   1.725   5.202  0.2019  0.5236  0.5335
38096SOL    HW120251   9.153   1.745   5.260 -0.1054  1.2371 -0.0852
38096SOL    HW220252   9.255   1.638   5.229 -1.3902 -0.1145  0.2954
38097SOL     OW20253  10.962   4.198  11.615  0.1382 -0.1318 -0.4659
38097SOL    HW120254  10.883   4.172  11.662 -0.2228  0.2397 -0.8535
38097SOL    HW220255  11.000   4.116  11.585 -1.1900 -0.2264 -2.0046
38098SOL     OW20256  11.022  10.604  12.226  0.4817 -0.0594  0.1991
38098SOL    HW120257  11.101  10.652  12.200 -0.0333  0.2975 -0.7678
38098SOL    HW220258  10.985  10.655  12.297  0.4141  0.5025 -0.2333
38099SOL     OW20259   4.685   1.778  11.277  0.2827  0.1166 -0.3490
38099SOL    HW120260   4.687   1.684  11.261  1.2193  0.2125 -0.8863
38099SOL    HW220261   4.641   1.815  11.201  2.0609  0.3000 -1.3625
38100SOL     OW20262   1.546   9.294  12.417 -0.3571  0.0136 -0.4265
38100SOL    HW120263   1.601   9.300  12.494 -1.0749 -1.0657  0.2002
38100SOL    HW220264   1.563   9.207  12.382 -0.7956  0.1089 -0.8943
38101SOL     OW20265  11.560  12.396   5.009 -0.1452 -0.0256 -0.5364
38101SOL    HW120266  11.579  12.434   4.923  0.0501  1.5379  0.1675
38101SOL    HW220267  11.476  12.435   5.034  0.7912  1.1730  0.8646
38102SOL     OW20268   1.262   7.621   2.233  0.7481 -0.0575  0.7168
38102SOL    HW120269   1.342   7.593   2.187 -0.3705 -0.9093 -0.8194
38102SOL    HW220270   1.223   7.686   2.175 -0.4601 -0.8025  0.6451
38103SOL     OW20271   9.583   2.778  10.405 -0.0667  0.2178 -0.3489
38103SOL    HW120272   9.571   2.736  10.490 -0.7275 -0.1099 -0.5992
38103SOL    HW220273   9.664   2.828  10.414  0.0944 -0.1598  0.3335
38104SOL     OW20274   4.665   7.815  10.142  0.6066  0.4646  0.3182
38104SOL    HW120275   4.628   7.741  10.190 -0.6371 -0.0822 -1.4047
38104SOL    HW220276   4.702   7.777  10.063  0.9341  1.5603 -0.0777
38105SOL     OW20277   7.785   3.867   8.449  0.0456  0.0202 -0.1462
38105SOL    HW120278   7.843   3.819   8.390 -0.7965  1.3786 -2.2357
38105SOL    HW220279   7.791   3.958   8.418 -0.5028  0.7793  1.8596
38106SOL     OW20280   9.273   3.323   9.352  1.1435 -0.3489 -0.0888
38106SOL    HW120281   9.290   3.309   9.445 -1.1860  0.7842  0.6045
38106SOL    HW220282   9.326   3.399   9.329  0.9981 -0.0196  0.6146
38107SOL     OW20283  11.245   3.275   1.847 -0.3044  0.4739 -0.4424
38107SOL    HW120284  11.283   3.194   1.884 -1.8154  0.9665  2.4885
38107SOL    HW220285  11.312   3.307   1.787  1.3141 -1.7558  0.0208
38108SOL     OW20286   5.829  11.006   7.256 -0.4052  0.1742  0.0451
38108SOL    HW120287   5.858  10.930   7.206 -2.0688 -0.7003  0.3398
38108SOL    HW220288   5.880  11.002   7.337  0.9457  0.5368 -0.7647
38109SOL     OW20289   1.755   7.168   0.824  0.3501  0.0299 -0.1685
38109SOL    HW120290   1.774   7.149   0.732  0.4177 -0.3812 -0.0698
38109SOL    HW220291   1.663   7.142   0.836  0.4551 -0.2841 -0.0238
38110SOL     OW20292   9.208   2.154   2.312 -0.5850 -0.2411  0.4651
38110SOL    HW120293   9.296   2.180   2.284 -0.3286 -1.6999 -0.1257
38110SOL    HW220294   9.150   2.188   2.244 -0.2112 -1.5423 -0.5252
38111SOL     OW20295   5.883   3.123   7.681  0.1443  0.3504 -0.6331
38111SOL    HW120296   5.930   3.138   7.600 -0.9487  0.0044 -1.3597
38111SOL    HW220297   5.837   3.040   7.667  0.7155 -0.2253  0.7168
38112SOL     OW20298   1.442  12.397   6.356 -0.2612 -0.1606  0.6017
38112SOL    HW120299   1.524  12.388   6.307  0.0713  0.1084  1.0992
38112SOL    HW220300   1.441  12.488   6.384 -0.1039 -0.4882  1.6961
38113SOL     OW20301  10.007   4.413  10.776  0.2091 -0.6218  0.2841
38113SOL    HW120302   9.973   4.491  10.821  1.0149 -1.3007  2.2055
38113SOL    HW220303  10.097   4.405  10.810  1.2850 -0.5882 -2.3267
38114SOL     OW20304   9.253   2.538   4.017 -0.0409 -1.0828 -0.2257
38114SOL    HW120305   9.211   2.548   4.102 -2.7209 -3.1334 -1.1550
38114SOL    HW220306   9.191   2.577   3.955  0.4231 -2.2590 -1.4788
38115SOL     OW20307   4.009   5.891   9.079  0.0917  0.3238 -0.0250
38115SOL    HW120308   4.094   5.886   9.036 -0.1732 -0.2308 -0.4875
38115SOL    HW220309   3.972   5.975   9.050 -0.7813 -0.7357 -2.2113
38116SOL     OW20310   8.805  10.792   6.565 -0.3158 -0.4589 -0.1533
38116SOL    HW120311   8.804  10.819   6.473  2.9882  1.0106  0.1036
38116SOL    HW220312   8.892  10.817   6.597 -1.4213 -0.6392  3.4908
38117SOL     OW20313   5.500   4.318   4.105  0.0210 -0.6580 -0.2037
38117SOL    HW120314   5.529   4.351   4.190 -0.7700 -0.4959  0.0118
38117SOL    HW220315   5.415   4.359   4.091  1.1368  1.1486 -2.1553
38118SOL     OW20316   5.298   4.939   2.089  0.0860 -0.2027  0.7166
38118SOL    HW120317   5.286   4.948   2.183 -3.0873  1.3216  0.2845
38118SOL    HW220318   5.215   4.969   2.050  0.4934 -2.5618 -2.4964
38119SOL     OW20319   0.544  11.646  12.432  0.0196 -0.7301  0.1443
38119SOL    HW120320   0.529  11.630  12.525 -0.8802 -0.2831  0.0841
38119SOL    HW220321   0.625  11.697  12.430  0.2699 -1.0891  0.6473
38120SOL     OW20322   4.083   0.794   4.579  0.0054  0.2963 -0.1799
38120SOL    HW120323   4.087   0.885   4.550  1.1999  1.0666  2.1436
38120SOL    HW220324   4.171   0.775   4.611 -0.8684 -0.8173  1.7461
38121SOL     OW20325   1.128   2.514   8.381 -0.1070  0.1651 -0.1079
38121SOL    HW120326   1.154   2.434   8.335 -1.3652 -1.2644  1.5336
38121SOL    HW220327   1.121   2.488   8.473 -2.9410  1.4909  0.1663
38122SOL     OW20328   8.572   1.323   5.205  0.4946 -0.1153 -0.7897
38122SOL    HW120329   8.577   1.414   5.233 -0.0481 -0.2414 -0.2692
38122SOL    HW220330   8.635   1.277   5.261  1.3196  0.0431 -1.5501
38123SOL     OW20331   1.776   3.843   5.701 -0.1554  0.2696  0.0570
38123SOL    HW120332   1.849   3.784   5.718  2.9062  3.1020 -2.1485
38123SOL    HW220333   1.757   3.834   5.608 -1.6063  0.7288  0.2715
38124SOL     OW20334   1.854  11.072  12.202  0.1802  0.3385 -0.1880
38124SOL    HW120335   1.800  11.077  12.282  2.8664 -0.7858  1.8783
38124SOL    HW220336   1.828  10.989  12.162  0.7602 -0.5039  1.1209
38125SOL     OW20337  12.216   5.034   6.210  0.5749 -0.1478  0.4128
38125SOL    HW120338  12.204   5.122   6.175 -0.4255 -0.3513  0.2233
38125SOL    HW220339  12.217   5.047   6.305  1.8219  0.2220  0.3706
38126SOL     OW20340  11.071   8.042   9.847 -0.2670 -0.0751  0.1352
38126SOL    HW120341  11.014   8.117   9.866 -0.9650 -0.7125  0.5784
38126SOL    HW220342  11.115   8.066   9.766 -2.0420 -0.0597 -0.8636
38127SOL     OW20343   2.999  12.107   6.283  0.5121 -0.3291  0.2282
38127SOL    HW120344   2.946  12.074   6.356 -2.2507  2.2533 -0.3791
38127SOL    HW220345   3.073  12.151   6.325 -1.8418  2.5143  1.7603
38128SOL     OW20346   6.039   3.183   7.476 -0.2297  0.1246 -0.4718
38128SOL    HW120347   5.997   3.252   7.422 -1.1829 -0.8396 -1.0121
38128SOL    HW220348   6.132   3.203   7.471 -0.4897  1.4749 -0.4871
38129SOL     OW20349   0.682   3.806   0.386  0.6861 -0.4473 -0.3559
38129SOL    HW120350   0.613   3.871   0.371  1.3558  0.5526  0.7473
38129SOL    HW220351   0.732   3.804   0.305 -1.3731 -2.1856 -1.7189
38130SOL     OW20352   5.169  10.333   9.683  0.5172  0.0219  0.9792
38130SOL    HW120353   5.181  10.337   9.588  0.4659  1.4223  1.0162
38130SOL    HW220354   5.103  10.264   9.695  1.9239 -1.5377  0.1653
38131SOL     OW20355   4.282   8.409  10.717  0.0955  0.1689 -0.1826
38131SOL    HW120356   4.287   8.334  10.657  0.8398  0.9408 -1.1303
38131SOL    HW220357   4.235   8.376  10.793  2.0292 -1.8066  0.2557
38132SOL     OW20358   1.704   0.574   1.489  0.3214 -0.2840 -0.2550
38132SOL    HW120359   1.670   0.545   1.574  0.4724 -1.6239 -0.6294
38132SOL    HW220360   1.763   0.646   1.511 -0.1909 -0.1295  0.7058
38133SOL     OW20361   7.297   6.036   6.586  0.0399 -0.0906 -0.0629
38133SOL    HW120362   7.286   6.077   6.672  0.1363 -0.2364  0.0203
38133SOL    HW220363   7.355   5.962   6.603 -0.1474 -0.2697 -0.2108
38134SOL     OW20364   9.776  11.705   4.560  0.3716  0.2178  0.0070
38134SOL    HW120365   9.705  11.734   4.617  0.2992 -0.4993  0.2959
38134SOL    HW220366   9.855  11.744   4.597 -0.0321  2.3752 -1.2525
38135SOL     OW20367   5.805   9.088  12.133 -0.2654  0.6386  0.2927
38135SOL    HW120368   5.860   9.026  12.179 -1.7280 -0.3962  0.7362
38135SOL    HW220369   5.848   9.100  12.048  0.8980  0.2925  0.8155
38136SOL     OW20370  11.680  11.576   9.388  1.3103  0.1195 -0.3211
38136SOL    HW120371  11.652  11.540   9.471  1.1231  0.1693 -0.3618
38136SOL    HW220372  11.621  11.537   9.323  0.0646  1.6824 -0.1921
38137SOL     OW20373   8.337   1.359   0.582 -0.0858  0.2003  0.3226
38137SOL    HW120374   8.302   1.281   0.625  0.5703  0.2001  0.8593
38137SOL    HW220375   8.336   1.426   0.650 -0.4042  0.6018 -0.0665
38138SOL     OW20376   3.117  10.034   2.454 -0.6064  0.3494  0.0477
38138SOL    HW120377   3.136  10.100   2.387  0.9066 -0.9570 -0.8602
38138SOL    HW220378   3.022  10.028   2.455 -0.9083  3.4696  1.1185
38139SOL     OW20379  11.143   6.911   8.086  0.2715  0.0686  0.0788
38139SOL    HW120380  11.158   6.909   8.180 -2.2306  0.2564  0.5663
38139SOL    HW220381  11.084   6.838   8.069  3.4004 -2.2330 -2.0275
38140SOL     OW20382   1.050   9.384   9.677 -0.4185  0.0742  0.2609
38140SOL    HW120383   1.051   9.434   9.595  1.9384 -1.0290 -0.4505
38140SOL    HW220384   1.050   9.451   9.745 -0.6180  1.0224 -0.6441
38141SOL     OW20385  10.133   0.737   1.010 -0.5523 -0.1847  0.3975
38141SOL    HW120386  10.161   0.662   1.062 -0.5209 -1.0209 -0.7896
38141SOL    HW220387  10.062   0.704   0.955  0.4311  0.2332 -1.2045
38142SOL     OW20388   6.683   2.248  11.486  0.2042  0.3619  0.1282
38142SOL    HW120389   6.590   2.244  11.508  0.7305  0.5015  2.7133
38142SOL    HW220390   6.697   2.338  11.455 -0.5547  0.2737 -0.4769
38143SOL     OW20391   4.225   3.488  12.462  0.2330 -0.1367  0.1976
38143SOL    HW120392   4.306   3.450  12.429  0.8882 -0.2776  1.8625
38143SOL    HW220393   4.252   3.569  12.506 -0.7238  0.5723 -0.4707
38144SOL     OW20394   1.263   9.786   0.456 -0.3165 -0.0097 -0.2355
38144SOL    HW120395   1.299   9.697   0.456 -1.1104 -0.3355 -0.7754
38144SOL    HW220396   1.229   9.798   0.545  0.7812  0.1809  0.1855
38145SOL     OW20397   5.026   0.644   1.562 -0.2922  0.7185  0.4600
38145SOL    HW120398   5.110   0.611   1.532 -1.2158 -0.8882 -0.5331
38145SOL    HW220399   5.037   0.739   1.567  1.5096  0.5437  0.1997
38146SOL     OW20400   2.028   6.357   3.320 -0.3859 -0.0391  0.3867
38146SOL    HW120401   2.067   6.297   3.383  0.5370  0.9763  0.7998
38146SOL    HW220402   2.089   6.430   3.315 -1.1255  0.5284 -0.6672
38147SOL     OW20403   4.734   0.180   1.204  0.0786 -0.1693  0.7156
38147SOL    HW120404   4.804   0.138   1.156  0.7181 -1.5530  2.7176
38147SOL    HW220405   4.777   0.249   1.255 -0.6802  1.7300 -1.0623
38148SOL     OW20406   8.972   4.332   8.018  0.0706  0.0049 -0.2611
38148SOL    HW120407   8.929   4.356   8.100  1.9617  2.6074  0.1251
38148SOL    HW220408   8.917   4.370   7.950  0.4907  1.2957  0.0886
38149SOL     OW20409   9.066  10.243   4.178  0.4099 -0.2269 -0.8320
38149SOL    HW120410   9.046  10.201   4.094 -0.8779 -1.2424 -0.0635
38149SOL    HW220411   9.059  10.172   4.242  1.1135  0.5863  0.1604
38150SOL     OW20412  11.915   7.679  12.240 -0.2955  0.2475  0.2654
38150SOL    HW120413  11.976   7.752  12.246  1.3352 -0.8283 -1.7380
38150SOL    HW220414  11.833   7.718  12.210 -0.0196  1.4532  1.0178
38151SOL     OW20415   6.293   8.160   4.360 -0.1410  0.2870  0.0027
38151SOL    HW120416   6.361   8.093   4.358 -0.7100 -0.2888 -1.3490
38151SOL    HW220417   6.327   8.227   4.419  1.2536 -0.3334 -0.0571
38152SOL     OW20418   7.487   2.760   8.394  0.7089 -0.5491  0.3226
38152SOL    HW120419   7.578   2.773   8.368  0.7518 -0.1895  0.6424
38152SOL    HW220420   7.437   2.782   8.315  0.9065 -1.0357  0.0557
38153SOL     OW20421  11.630   9.400   5.756 -0.2218 -0.2892 -0.5712
38153SOL    HW120422  11.554   9.359   5.797 -0.4214  0.6341  0.0155
38153SOL    HW220423  11.684   9.327   5.726 -0.4030 -0.9841  0.7499
38154SOL     OW20424   1.228   3.295   7.324  0.7192  0.1845  0.7064
38154SOL    HW120425   1.311   3.343   7.322  0.7742  0.1956  2.1894
38154SOL    HW220426   1.249   3.212   7.365  0.2448 -0.3748 -0.1492
38155SOL     OW20427   9.337   6.488   9.826 -0.5692 -0.1618  0.1062
38155SOL    HW120428   9.374   6.400   9.812 -1.2057 -0.5590  0.8311
38155SOL    HW220429   9.411   6.542   9.851  0.3982  0.2546 -3.1541
38156SOL     OW20430  10.752   1.413   3.225 -0.0019 -0.6096  0.2023
38156SOL    HW120431  10.774   1.370   3.308 -2.2945 -1.3163  0.4980
38156SOL    HW220432  10.791   1.501   3.233 -1.3505 -0.1412  2.6456
38157SOL     OW20433  12.038   6.436  11.716 -0.2169  0.4722 -0.0859
38157SOL    HW120434  12.098   6.471  11.781 -0.3466 -1.4132  1.1497
38157SOL    HW220435  11.953   6.474  11.738 -0.3881 -0.6127  1.3197
38158SOL     OW20436   5.181  10.831   1.161 -0.5846  0.4544 -0.3987
38158SOL    HW120437   5.261  10.830   1.215 -0.7197  0.3815 -0.2007
38158SOL    HW220438   5.164  10.924   1.146  1.0424  0.4717 -2.6795
38159SOL     OW20439   1.569   2.667   7.584  0.1558 -0.0037  0.4017
38159SOL    HW120440   1.642   2.605   7.586  0.5647  0.4020 -0.9032
38159SOL    HW220441   1.566   2.702   7.673  2.7971  1.3264  0.0788
38160SOL     OW20442   7.410   3.272   2.681 -0.3463  0.5184 -0.1186
38160SOL    HW120443   7.377   3.356   2.713 -0.9185  1.1196 -2.1188
38160SOL    HW220444   7.452   3.294   2.598  0.6338 -1.0028 -0.0495
38161SOL     OW20445   3.780   1.880   4.367 -0.0699 -0.3089  0.1632
38161SOL    HW120446   3.798   1.931   4.288  1.6544 -0.0173  0.6981
38161SOL    HW220447   3.730   1.939   4.423  1.5358  0.7022  0.5956
38162SOL     OW20448   1.893   9.947   2.030 -0.3949  0.3454  0.3258
38162SOL    HW120449   1.875  10.030   1.987 -1.0751 -0.4147 -0.9133
38162SOL    HW220450   1.969   9.912   1.985 -1.9521 -1.1209 -1.3300
38163SOL     OW20451   9.196   0.123   8.708  0.0892 -0.7476 -0.0709
38163SOL    HW120452   9.291   0.132   8.702  0.2076 -1.8200 -0.0333
38163SOL    HW220453   9.162   0.206   8.674  1.0487  0.2757  1.3146
38164SOL     OW20454   4.778   7.942   1.742 -0.2133  0.1336 -0.0485
38164SOL    HW120455   4.737   7.865   1.780  0.7782  0.3846  1.5962
38164SOL    HW220456   4.871   7.924   1.745 -0.0476  0.1615 -2.4588
38165SOL     OW20457   5.055   2.986   5.459 -0.2345 -0.0530  0.2113
38165SOL    HW120458   5.128   3.037   5.424 -1.3198  0.3753 -1.5931
38165SOL    HW220459   5.025   3.036   5.534  1.1661 -0.1195  0.8371
38166SOL     OW20460   4.665   1.279   3.453 -0.2336 -0.4715  0.4792
38166SOL    HW120461   4.657   1.314   3.364  0.5343 -0.4193  0.4229
38166SOL    HW220462   4.632   1.348   3.510 -0.7439 -0.5111  0.2340
38167SOL     OW20463   3.178   9.095   2.464 -0.1416  0.5773  0.5823
38167SOL    HW120464   3.088   9.123   2.449 -0.2098  1.7118  2.6930
38167SOL    HW220465   3.232   9.169   2.434  0.1007  0.0468 -0.3427
38168SOL     OW20466   0.972   6.930  10.827 -0.1976 -0.0799  0.7466
38168SOL    HW120467   1.007   6.907  10.913 -2.8468 -0.4220  1.8462
38168SOL    HW220468   0.908   6.999  10.845 -0.6325  0.0338 -0.9882
38169SOL     OW20469   2.012   4.595   9.814 -0.1535 -0.4369  0.4464
38169SOL    HW120470   2.059   4.619   9.734 -0.7863 -0.5115  0.0481
38169SOL    HW220471   2.045   4.656   9.881 -2.0200  1.9120 -0.6304
38170SOL     OW20472   0.578   3.473   0.959 -0.1309 -0.1236 -0.0974
38170SOL    HW120473   0.500   3.522   0.932 -0.0107  0.7656  1.0757
38170SOL    HW220474   0.551   3.432   1.042  0.6257  0.1414  0.2822
38171SOL     OW20475  11.783  12.309   1.175 -0.7221 -0.4951 -0.0646
38171SOL    HW120476  11.691  12.302   1.148 -0.2835 -3.2225 -1.2237
38171SOL    HW220477  11.831  12.319   1.093  0.0351  1.4434  0.5704
38172SOL     OW20478  11.393   4.035   9.398 -0.1009 -0.2033 -0.0859
38172SOL    HW120479  11.356   4.048   9.311 -0.3208 -2.0803 -0.3074
38172SOL    HW220480  11.482   4.005   9.382  0.9332  2.2975  0.4310
38173SOL     OW20481   2.487   0.259   7.264  0.0304 -0.0768 -0.7458
38173SOL    HW120482   2.562   0.286   7.318 -1.4634  0.8585  0.9468
38173SOL    HW220483   2.449   0.185   7.312 -1.6338  1.0964 -0.2064
38174SOL     OW20484   8.919  10.991   9.750 -0.2054  0.4569 -0.1849
38174SOL    HW120485   8.922  10.990   9.654 -0.8599 -1.4354 -0.2330
38174SOL    HW220486   8.844  11.047   9.771 -0.4470  0.3780 -0.8156
38175SOL     OW20487  12.082   6.108   9.164  0.4681  0.0484  0.5213
38175SOL    HW120488  12.151   6.119   9.100 -1.1481  1.5510 -1.0740
38175SOL    HW220489  12.055   6.016   9.155 -0.5775  0.5398 -1.9254
38176SOL     OW20490   9.302   6.481   9.520  0.4154 -0.3776  0.1004
38176SOL    HW120491   9.380   6.426   9.513  0.3323 -0.5445  0.4625
38176SOL    HW220492   9.327   6.550   9.582  1.0391  0.8996 -1.4846
38177SOL     OW20493   6.497  11.223   2.479  0.0268 -0.1504  1.1420
38177SOL    HW120494   6.526  11.168   2.552 -0.2126  0.5468  1.7881
38177SOL    HW220495   6.444  11.291   2.521 -2.6115 -1.3748  0.0514
38178SOL     OW20496   1.962   9.422   1.563 -0.0286  0.1609  0.5618
38178SOL    HW120497   1.957   9.441   1.469  2.4813 -0.0798  0.2924
38178SOL    HW220498   1.980   9.328   1.568  0.8141  0.3368  1.2079
38179SOL     OW20499   8.196   7.674   5.509  0.2266  0.1756 -0.3361
38179SOL    HW120500   8.232   7.605   5.453 -1.4195 -1.0631  0.0371
38179SOL    HW220501   8.122   7.632   5.553 -1.4327  2.4326 -0.7750
38180SOL     OW20502  11.028   4.872  11.147 -0.1969  0.1028 -0.1356
38180SOL    HW120503  11.016   4.867  11.242 -1.4549 -0.2051 -0.2932
38180SOL    HW220504  11.111   4.826  11.131  0.1846  0.4223  0.8338
38181SOL     OW20505   7.230   2.782   3.436  0.4333 -0.1781  0.1680
38181SOL    HW120506   7.175   2.705   3.452 -0.3824  0.1912 -0.7058
38181SOL    HW220507   7.315   2.746   3.409  1.5955 -0.8092  4.0946
38182SOL     OW20508   9.406   7.677   8.390  0.2875  0.2184  0.4157
38182SOL    HW120509   9.365   7.654   8.473  0.5714  3.1533  1.4989
38182SOL    HW220510   9.335   7.714   8.338  0.4230 -0.1632 -0.0505
38183SOL     OW20511  12.355   5.060   7.281 -0.1957 -0.2123  0.3092
38183SOL    HW120512  12.261   5.074   7.274  0.1719  1.9862 -1.4593
38183SOL    HW220513  12.393   5.146   7.261  2.1833 -0.8790  1.6253
38184SOL     OW20514  11.485   3.246   4.572 -0.8080  0.6457  0.1929
38184SOL    HW120515  11.438   3.194   4.507  1.4746 -0.7801 -0.4525
38184SOL    HW220516  11.487   3.191   4.650 -1.2046  1.1942  0.5962
38185SOL     OW20517   8.390   3.058   0.500 -0.1083 -0.4329  0.5007
38185SOL    HW120518   8.321   3.079   0.562 -0.8579 -1.7977  0.1647
38185SOL    HW220519   8.345   3.028   0.422  0.8429  0.4418 -0.4193
38186SOL     OW20520   8.734   0.091   0.293 -0.0113  0.4727  0.0044
38186SOL    HW120521   8.825   0.118   0.284 -0.1966  1.3303  0.6337
38186SOL    HW220522   8.736   0.016   0.352  0.2702  0.5423  0.0812
38187SOL     OW20523  11.890   5.551   8.605 -0.4769  0.6326 -0.2890
38187SOL    HW120524  11.898   5.593   8.520 -0.7231  1.4999  0.1037
38187SOL    HW220525  11.805   5.507   8.603 -1.0324  1.6482 -0.0844
38188SOL     OW20526   2.581  10.124   0.853  0.0970  0.0081  0.3527
38188SOL    HW120527   2.603  10.206   0.809  2.0568 -0.5733  0.1486
38188SOL    HW220528   2.502  10.093   0.808  0.5969  0.6857 -1.0615
38189SOL     OW20529  10.272   3.938  11.179 -0.3665 -0.8279  0.5350
38189SOL    HW120530  10.283   3.856  11.228  2.1273 -0.0651  1.4111
38189SOL    HW220531  10.348   3.941  11.121  0.1824  1.3261  1.2736
38190SOL     OW20532   7.232   4.005   5.913  0.3256  0.1391 -0.9146
38190SOL    HW120533   7.270   4.086   5.948  1.4119 -0.5905 -0.3339
38190SOL    HW220534   7.236   3.943   5.986  1.5427 -1.0630 -1.9347
38191SOL     OW20535   5.888   0.688   1.906 -0.5178  0.0036 -0.0208
38191SOL    HW120536   5.832   0.703   1.830 -0.2505 -2.2280 -0.7236
38191SOL    HW220537   5.972   0.661   1.870 -0.4707 -1.3771  1.0486
38192SOL     OW20538   8.807   0.552   2.009  0.4384  0.1440  0.1526
38192SOL    HW120539   8.830   0.631   2.058  0.1067 -0.4973  1.3657
38192SOL    HW220540   8.881   0.538   1.950  0.6474  1.1768  0.1510
38193SOL     OW20541   2.569   6.821   9.159 -0.6368  0.1434 -0.3464
38193SOL    HW120542   2.479   6.818   9.191 -0.2170 -1.1270  0.7979
38193SOL    HW220543   2.609   6.894   9.206 -0.8419  0.1792 -0.2273
38194SOL     OW20544   2.998  11.102   0.534 -0.3925  0.5701 -0.0879
38194SOL    HW120545   2.968  11.051   0.458  0.3202  0.5003 -0.3318
38194SOL    HW220546   3.060  11.044   0.579 -0.2496  0.8882  0.1295
38195SOL     OW20547   1.328   1.086   5.135  0.4408 -0.3028  0.3270
38195SOL    HW120548   1.334   0.991   5.146  1.3412 -0.2794  0.0889
38195SOL    HW220549   1.419   1.116   5.139  0.0784  0.7343  2.0429
38196SOL     OW20550  10.797   0.836   6.934 -0.0994 -0.1979 -0.4330
38196SOL    HW120551  10.840   0.850   6.850 -0.7780 -1.0022 -0.9270
38196SOL    HW220552  10.823   0.747   6.959 -0.0119 -0.0135  0.1461
38197SOL     OW20553  10.248   3.504   2.052 -0.9781  0.3575  0.0280
38197SOL    HW120554  10.273   3.556   2.128  1.1113 -0.8162  0.2152
38197SOL    HW220555  10.287   3.418   2.067  0.4586  0.3878 -2.8296
38198SOL     OW20556   8.385   0.811   4.495 -0.4661  0.5279 -0.4432
38198SOL    HW120557   8.383   0.753   4.419 -0.9800  2.3744 -1.9187
38198SOL    HW220558   8.331   0.767   4.560 -1.0878 -0.5132 -1.6204
38199SOL     OW20559   1.989  11.076   8.954 -0.2609  0.5497  0.0582
38199SOL    HW120560   1.952  11.055   8.868  0.3903  0.8875 -0.3127
38199SOL    HW220561   1.920  11.052   9.016 -1.0948  1.1698 -0.6076
38200SOL     OW20562   4.317   5.923   2.645  1.1015 -0.1601  0.1385
38200SOL    HW120563   4.367   5.841   2.644 -0.8482 -1.4555 -2.5666
38200SOL    HW220564   4.229   5.896   2.672  0.1925  0.8151 -1.6905
38201SOL     OW20565   3.239   9.881   7.785  1.0387 -0.3060 -0.3128
38201SOL    HW120566   3.205   9.951   7.841  0.6259 -0.2242 -0.6605
38201SOL    HW220567   3.313   9.921   7.739  0.4133  0.1054 -0.9835
38202SOL     OW20568  11.475   5.152   9.803 -0.1164  0.5140 -0.0289
38202SOL    HW120569  11.427   5.231   9.829 -0.1492  0.1576  1.0210
38202SOL    HW220570  11.414   5.080   9.820  0.9914 -0.0149  2.0186
38203SOL     OW20571  10.479   9.682  10.740  0.1992 -0.0278  0.1945
38203SOL    HW120572  10.400   9.710  10.694  0.2764  0.1115  0.1458
38203SOL    HW220573  10.507   9.760  10.789 -0.9645 -0.6790  2.0281
38204SOL     OW20574   6.663  11.521   3.931  0.1896 -1.2057  0.1266
38204SOL    HW120575   6.654  11.426   3.935  1.9075 -1.5026 -1.4704
38204SOL    HW220576   6.754  11.538   3.953  0.0040  0.0523  0.0356
38205SOL     OW20577   7.091   1.627   3.032  0.0472 -0.4458 -0.0284
38205SOL    HW120578   7.106   1.716   3.002 -0.3612 -0.4586 -0.2786
38205SOL    HW220579   7.137   1.621   3.116  1.6524 -0.5687 -0.8826
38206SOL     OW20580  11.709  10.381   8.228 -0.3990  0.2639  0.1725
38206SOL    HW120581  11.754  10.313   8.178 -0.7048 -1.0520  1.6022
38206SOL    HW220582  11.778  10.423   8.279 -0.6947 -2.0845  2.7438
38207SOL     OW20583  10.112   8.242   7.232 -0.4574 -0.0661  0.0092
38207SOL    HW120584  10.025   8.270   7.205  0.7134  2.2178 -1.6608
38207SOL    HW220585  10.143   8.310   7.292  1.4717  1.0930 -2.1518
38208SOL     OW20586   1.697   9.352   9.400  0.2746 -0.0378 -0.0786
38208SOL    HW120587   1.711   9.400   9.482  0.4301 -1.8241  0.9982
38208SOL    HW220588   1.732   9.264   9.418 -1.4024 -1.0255 -1.4277
38209SOL     OW20589   7.599   1.918   0.594 -0.0514 -0.1585  0.1343
38209SOL    HW120590   7.652   1.907   0.515  1.9060  0.8228  1.2353
38209SOL    HW220591   7.662   1.914   0.666 -1.5319  0.7208  1.5376
38210SOL     OW20592   6.121   2.136   4.454 -0.7978 -0.7004 -0.0400
38210SOL    HW120593   6.042   2.171   4.411  0.9042  1.7081 -1.4682
38210SOL    HW220594   6.155   2.210   4.505  0.4939 -1.7242  0.6303
38211SOL     OW20595  10.405   2.432   0.039  0.0071  0.4501 -0.0015
38211SOL    HW120596  10.476   2.372   0.060  0.1125  1.0004  1.3816
38211SOL    HW220597  10.397   2.487   0.118  1.0845  3.4118 -1.7826
38212SOL     OW20598   3.943  10.259  11.774  0.1395 -0.2140  0.0907
38212SOL    HW120599   4.008  10.202  11.815 -0.7086 -1.5298 -0.3212
38212SOL    HW220600   3.928  10.328  11.838  2.5016  0.6008 -0.1326
38213SOL     OW20601   3.361   7.951  11.578 -0.3657 -0.5966  0.3059
38213SOL    HW120602   3.347   7.978  11.669  0.6546  0.7244  0.0937
38213SOL    HW220603   3.447   7.986  11.555 -0.9443 -0.2194 -1.4199
38214SOL     OW20604   7.118  11.599   3.578  0.2612  0.1806 -0.3776
38214SOL    HW120605   7.175  11.673   3.598 -0.9312  1.4243 -1.3669
38214SOL    HW220606   7.161  11.554   3.505  0.4016  0.6099 -0.5635
38215SOL     OW20607  10.327   4.574  10.560 -0.5513 -0.0528 -0.0049
38215SOL    HW120608  10.367   4.489  10.574 -1.0416 -0.3347 -0.2861
38215SOL    HW220609  10.233   4.556  10.560 -0.6747 -0.1223 -3.7447
38216SOL     OW20610   2.113   5.213  12.290  0.0800  0.3792  0.0700
38216SOL    HW120611   2.138   5.172  12.373  0.5932  0.7127  0.0823
38216SOL    HW220612   2.066   5.144  12.243 -2.2408  0.8500  1.5484
38217SOL     OW20613   8.796   1.453   6.397  0.6548  0.1258  0.6346
38217SOL    HW120614   8.874   1.506   6.410  0.6862  0.9349 -2.1792
38217SOL    HW220615   8.744   1.503   6.334 -0.9381 -1.6039  0.5091
38218SOL     OW20616   4.878   0.717   9.568  0.1172  0.1602 -0.0793
38218SOL    HW120617   4.892   0.624   9.588 -0.9209 -0.1676 -0.8015
38218SOL    HW220618   4.965   0.757   9.579  0.8557 -1.1190 -1.0023
38219SOL     OW20619   2.792   1.542   5.503 -0.2730  0.3923  0.0640
38219SOL    HW120620   2.838   1.530   5.586  0.8699  0.2706 -0.5641
38219SOL    HW220621   2.861   1.560   5.439 -1.1775  1.1342 -0.7513
38220SOL     OW20622   5.175  12.328   0.204  0.4731 -0.3461 -0.3148
38220SOL    HW120623   5.084  12.316   0.232 -0.3083  1.6768 -1.6951
38220SOL    HW220624   5.227  12.279   0.267 -1.4441  0.1775  1.7934
38221SOL     OW20625   2.782   3.716   0.079  0.0108 -0.1828  0.4902
38221SOL    HW120626   2.837   3.793   0.095  0.1510 -0.4846  1.5713
38221SOL    HW220627   2.825   3.646   0.127 -0.4910 -0.7824  0.0764
38222SOL     OW20628   7.662  11.593   4.306  0.3031 -0.2234  0.1700
38222SOL    HW120629   7.703  11.516   4.267 -0.0436 -0.5556  0.4559
38222SOL    HW220630   7.677  11.663   4.242  1.0278 -0.4123  0.1256
38223SOL     OW20631  11.582   6.759   9.987 -0.5230  0.2992 -0.5965
38223SOL    HW120632  11.616   6.811  10.060  0.7904  0.9749 -1.6410
38223SOL    HW220633  11.598   6.812   9.909 -1.2820 -0.6847 -1.4628
38224SOL     OW20634   9.909   3.265  12.070  0.4884  0.6965  0.0025
38224SOL    HW120635   9.826   3.305  12.098 -0.8966 -0.8217 -1.7033
38224SOL    HW220636   9.900   3.173  12.092  0.0398 -0.2643 -3.5567
38225SOL     OW20637  10.504   9.836   8.929  0.8501  0.5805 -0.3009
38225SOL    HW120638  10.410   9.854   8.931  0.4738 -1.1470  1.7319
38225SOL    HW220639  10.510   9.741   8.928  2.6499  0.6283 -2.9427
38226SOL     OW20640   1.394   1.254   5.458  0.3711 -0.4825  0.0242
38226SOL    HW120641   1.308   1.294   5.445  0.6485  0.5624  1.3145
38226SOL    HW220642   1.393   1.178   5.398 -0.5356  0.8338 -1.7426
38227SOL     OW20643   9.946   9.338   8.153 -0.2040 -0.2547 -0.5380
38227SOL    HW120644   9.858   9.354   8.187 -0.2011  0.0640 -0.6789
38227SOL    HW220645   9.962   9.245   8.171 -0.3448 -0.1762 -0.0008
38228SOL     OW20646   6.581   1.385   2.751 -0.2777  0.1053  0.2149
38228SOL    HW120647   6.551   1.475   2.743  1.6169  0.9346  1.7529
38228SOL    HW220648   6.533   1.350   2.826  0.7628  0.6827  1.1900
38229SOL     OW20649   7.369  11.637   3.101  0.2454 -0.6386  0.0586
38229SOL    HW120650   7.367  11.544   3.077  2.9047 -0.9244  0.6285
38229SOL    HW220651   7.310  11.679   3.038  0.1247 -2.5137 -1.1614
38230SOL     OW20652   5.245   8.953   6.520  0.0303  0.2760  0.1279
38230SOL    HW120653   5.290   9.002   6.451  0.5005 -1.2331 -0.6863
38230SOL    HW220654   5.163   9.002   6.534  0.6597  1.5117 -0.3293
38231SOL     OW20655   4.156   1.610   4.287 -0.3864  0.4554 -0.3780
38231SOL    HW120656   4.212   1.541   4.322 -1.8066 -0.3029  0.4722
38231SOL    HW220657   4.102   1.638   4.361  0.7610  3.1499 -0.4638
38232SOL     OW20658  11.013   9.825   1.373 -0.0959  0.1259 -0.3999
38232SOL    HW120659  10.997   9.915   1.404 -0.8680 -0.3095  0.5096
38232SOL    HW220660  10.930   9.799   1.333 -1.2203 -1.4692  2.6472
38233SOL     OW20661   8.712   1.551   3.835  0.4688  0.1806 -0.8004
38233SOL    HW120662   8.778   1.490   3.866 -0.3013 -0.3643 -0.1887
38233SOL    HW220663   8.761   1.622   3.794  1.3861 -0.6696 -1.1992
38234SOL     OW20664   5.250   3.178   1.187 -0.1159 -0.1143  0.2343
38234SOL    HW120665   5.298   3.254   1.152  1.6411 -0.9475  0.7136
38234SOL    HW220666   5.275   3.175   1.280  0.1320 -1.4717  0.1443
38235SOL     OW20667   3.740   1.439   6.409  0.2484  0.1736 -0.1279
38235SOL    HW120668   3.829   1.448   6.375  0.5351  0.4054  0.6694
38235SOL    HW220669   3.688   1.495   6.352  0.9464  1.6523  0.6173
38236SOL     OW20670   0.534  12.241   1.290 -0.1413 -0.1987  0.4495
38236SOL    HW120671   0.586  12.199   1.358 -1.3885 -1.1014  0.8725
38236SOL    HW220672   0.443  12.222   1.313 -0.6231  0.1492 -1.0335
38237SOL     OW20673   5.894   4.806   5.857  0.3158 -0.3722 -0.5673
38237SOL    HW120674   5.873   4.713   5.868 -1.0568  0.0490  0.6413
38237SOL    HW220675   5.815   4.852   5.886  2.1283  1.2827  2.1095
38238SOL     OW20676  11.655   2.924   9.625  0.4199 -0.0028 -0.1654
38238SOL    HW120677  11.654   2.847   9.682 -0.3211 -0.1698 -0.3881
38238SOL    HW220678  11.571   2.921   9.579  0.2576  1.1034  0.0358
38239SOL     OW20679   8.320   8.147   9.679 -0.2672 -0.5874 -0.0093
38239SOL    HW120680   8.313   8.226   9.625 -1.4365 -0.5149  0.2177
38239SOL    HW220681   8.383   8.091   9.632 -0.8150 -0.2887 -1.1416
38240SOL     OW20682   6.525  11.497  10.527  0.0782 -0.2195  0.4701
38240SOL    HW120683   6.554  11.512  10.617  1.0187  1.0860 -0.0248
38240SOL    HW220684   6.522  11.584  10.488 -0.2406 -0.7747 -0.7926
38241SOL     OW20685   8.953   2.006   1.858  0.2100  0.0951  0.2390
38241SOL    HW120686   9.022   2.066   1.829 -0.1923  0.7180  0.5796
38241SOL    HW220687   8.948   1.941   1.787  2.2282 -0.8852  0.9127
38242SOL     OW20688   9.045   9.545   5.642 -0.3551 -0.1918  0.2959
38242SOL    HW120689   8.987   9.570   5.714  0.9576  1.9676  0.6798
38242SOL    HW220690   9.046   9.449   5.645  0.5150 -0.2201  3.9374
38243SOL     OW20691   1.267   8.346   8.897  0.1439  0.1134 -0.0846
38243SOL    HW120692   1.347   8.367   8.946  0.7496 -0.7193 -0.7053
38243SOL    HW220693   1.284   8.377   8.808  0.1397 -0.8513 -0.4377
38244SOL     OW20694   1.813   0.142  11.950 -0.0368  0.1867  0.3809
38244SOL    HW120695   1.877   0.210  11.928 -0.1338  0.2492  0.2925
38244SOL    HW220696   1.755   0.184  12.014  1.3980 -0.5854  2.2974
38245SOL     OW20697   9.539   7.340   1.528 -0.4081 -0.5660 -0.0890
38245SOL    HW120698   9.617   7.394   1.537 -0.4634 -0.5642  0.4579
38245SOL    HW220699   9.562   7.274   1.463 -0.9121  1.0891 -2.0570
38246SOL     OW20700   3.189   5.886   7.170  0.1269  0.0082  0.2221
38246SOL    HW120701   3.237   5.945   7.112 -0.6056  1.5985  1.1487
38246SOL    HW220702   3.137   5.832   7.111  0.6038  0.4874 -0.6660
38247SOL     OW20703   7.979   1.294   9.196  0.1246 -0.5495 -0.7394
38247SOL    HW120704   8.055   1.237   9.186  0.1232 -0.6791 -0.0669
38247SOL    HW220705   7.914   1.258   9.135  0.5415 -0.5299 -1.2055
38248SOL     OW20706   9.091   9.314  10.124 -0.5873 -0.1316 -0.7946
38248SOL    HW120707   9.047   9.384  10.076 -0.3364  2.5663  2.5270
38248SOL    HW220708   9.020   9.267  10.169 -0.5421  0.0045 -0.5799
38249SOL     OW20709   4.270  10.970  10.047  0.0606  0.3904  0.0574
38249SOL    HW120710   4.280  10.930   9.960  1.2021  0.9331 -0.0754
38249SOL    HW220711   4.175  10.977  10.058 -0.3895 -4.0889  0.9311
38250SOL     OW20712   6.232  11.678   7.270 -0.6345 -0.0775  0.0312
38250SOL    HW120713   6.149  11.723   7.287 -0.3929 -0.2383  1.8367
38250SOL    HW220714   6.217  11.630   7.189 -0.7208  3.5801 -2.3090
38251SOL     OW20715   2.183   4.955   6.324 -0.1048 -0.2656 -0.2606
38251SOL    HW120716   2.220   4.975   6.410  0.2679  1.5129 -0.7924
38251SOL    HW220717   2.249   4.899   6.283 -0.5333 -1.5762  0.7827
38252SOL     OW20718   2.054   0.022   5.788 -0.1231  0.7165  0.4261
38252SOL    HW120719   2.142   0.042   5.821  0.3356 -0.2221 -0.1907
38252SOL    HW220720   2.053   0.057   5.699 -0.2272  0.3649  0.2870
38253SOL     OW20721   2.812   7.431   8.624 -0.3864 -0.1254  0.4909
38253SOL    HW120722   2.848   7.447   8.711 -1.1260  1.8962  0.4841
38253SOL    HW220723   2.819   7.516   8.580 -2.2329 -0.4855 -0.5869
38254SOL     OW20724   7.757  10.077  10.885 -0.0370  0.0906 -0.4669
38254SOL    HW120725   7.828  10.014  10.873 -1.0822 -1.7994  2.3421
38254SOL    HW220726   7.682  10.036  10.842 -0.2829  0.4002 -0.3359
38255SOL     OW20727   5.432   8.724   9.822  0.0118 -0.2418 -0.0353
38255SOL    HW120728   5.343   8.722   9.786 -0.0362  0.3657  0.0427
38255SOL    HW220729   5.440   8.810   9.862  1.1558  0.3268 -1.3653
38256SOL     OW20730   9.676  12.452   4.321  0.2572  0.1273  0.0824
38256SOL    HW120731   9.609  12.407   4.271 -0.2343  1.5599 -0.6197
38256SOL    HW220732   9.627  12.504   4.385  0.7660  0.2192  0.4060
38257SOL     OW20733   7.110   3.445   9.850  0.2829  0.2451  0.7820
38257SOL    HW120734   7.123   3.353   9.873  0.9078  0.6909  2.2938
38257SOL    HW220735   7.028   3.470   9.893  0.4084  0.5482  0.8475
38258SOL     OW20736   6.424   4.088   8.677 -0.1592 -0.0061 -0.1205
38258SOL    HW120737   6.331   4.099   8.656 -0.4560  1.2144  1.5934
38258SOL    HW220738   6.466   4.166   8.640 -0.1593  0.4303  0.7612
38259SOL     OW20739   2.834   6.310   3.306 -0.4285 -0.1242 -0.3215
38259SOL    HW120740   2.748   6.351   3.295  0.0748  0.7871 -1.0006
38259SOL    HW220741   2.888   6.347   3.236  0.5875 -0.5022  0.2288
38260SOL     OW20742   1.457   5.857   6.248 -0.9323 -0.6726  0.1833
38260SOL    HW120743   1.428   5.938   6.289  1.1072  1.5105 -2.2853
38260SOL    HW220744   1.409   5.853   6.165  1.7607  0.3110 -1.5804
38261SOL     OW20745   1.821   7.999  10.722  0.3996  0.5297  0.6737
38261SOL    HW120746   1.748   7.956  10.766  1.0310 -1.3701 -0.0214
38261SOL    HW220747   1.899   7.971  10.771  0.8358  1.0057  0.2705
38262SOL     OW20748   4.953  12.241  12.178  0.6577  0.0670  0.2235
38262SOL    HW120749   4.989  12.234  12.267  3.1619 -1.2055 -0.7788
38262SOL    HW220750   4.940  12.335  12.165  0.5103  0.2953  1.8318
38263SOL     OW20751   7.465   8.474   1.590 -0.1151  0.0627 -0.2077
38263SOL    HW120752   7.392   8.511   1.640  0.6399  0.9692  0.2576
38263SOL    HW220753   7.425   8.445   1.507 -1.1238 -0.1460  0.3352
38264SOL     OW20754   4.440   2.432   3.559  0.1631  0.3360 -0.1026
38264SOL    HW120755   4.448   2.526   3.541 -1.8425  0.6138  0.1911
38264SOL    HW220756   4.434   2.426   3.655 -0.9535  0.0744 -0.1659
38265SOL     OW20757   0.018   0.740   5.562  0.6094 -0.0540  0.0300
38265SOL    HW120758  -0.041   0.731   5.487 -0.0383  0.6409  0.4487
38265SOL    HW220759  -0.037   0.774   5.633  0.6367 -2.9295  1.5688
38266SOL     OW20760   0.835  10.383   4.009  0.7578  0.0645 -0.4131
38266SOL    HW120761   0.888  10.352   4.082 -0.1560 -0.1831  0.1657
38266SOL    HW220762   0.864  10.332   3.933  1.4292  0.0350 -0.1352
38267SOL     OW20763   2.365  11.459   1.319 -0.3515 -0.0164  0.3349
38267SOL    HW120764   2.360  11.552   1.341  0.5733  0.1898 -0.2834
38267SOL    HW220765   2.413  11.420   1.393  0.6503  0.2771 -0.1387
38268SOL     OW20766   2.645   0.543   9.487 -0.2136 -0.4318  0.0158
38268SOL    HW120767   2.562   0.562   9.531 -0.3347  0.4570 -0.5634
38268SOL    HW220768   2.711   0.552   9.556 -0.5880 -1.1878  0.4905
38269SOL     OW20769   5.984   8.882   2.635 -0.5130 -0.0848 -0.2545
38269SOL    HW120770   6.014   8.833   2.711 -2.1805 -1.1252 -0.2129
38269SOL    HW220771   6.045   8.858   2.565  0.4918  0.1804  0.4991
38270SOL     OW20772  10.647  11.361  10.121  0.6634  0.5402  0.0183
38270SOL    HW120773  10.651  11.455  10.105  2.4235  0.9894  2.4128
38270SOL    HW220774  10.739  11.336  10.134  0.3218 -1.7202 -1.4084
38271SOL     OW20775   9.457   2.891   7.370 -0.3489  0.2488  0.0648
38271SOL    HW120776   9.507   2.912   7.291  0.2024 -1.3802 -0.0606
38271SOL    HW220777   9.394   2.825   7.342  0.6290 -1.2136  1.1900
38272SOL     OW20778   8.461  10.875   2.687  0.1811  0.3610 -0.0996
38272SOL    HW120779   8.540  10.822   2.671 -0.3087 -1.2977  2.5212
38272SOL    HW220780   8.409  10.864   2.607  1.5064 -0.4892 -0.8929
38273SOL     OW20781  10.928   4.216   0.599  0.1978  0.0816 -0.3393
38273SOL    HW120782  10.874   4.149   0.641  0.5188  0.5825  0.9384
38273SOL    HW220783  10.898   4.299   0.638  1.5835  0.4084  0.1222
38274SOL     OW20784   1.886   9.658   8.426  0.6262  0.0441  0.4625
38274SOL    HW120785   1.848   9.635   8.511  0.6557  0.5106  0.6042
38274SOL    HW220786   1.827   9.618   8.362  0.3446  0.0874  0.6934
38275SOL     OW20787   9.135   8.340   3.125 -0.0635 -0.2403  0.1292
38275SOL    HW120788   9.148   8.287   3.047  0.7512  2.3705 -1.6252
38275SOL    HW220789   9.049   8.381   3.114  0.6528  1.2616 -0.1760
38276SOL     OW20790   4.292  11.433   3.792 -0.0004  0.4087 -0.0143
38276SOL    HW120791   4.245  11.376   3.731  1.1533 -1.6443  0.9307
38276SOL    HW220792   4.361  11.473   3.738 -0.8913  1.0497 -0.7084
38277SOL     OW20793   4.852   0.844   2.781 -0.8593 -0.0747  0.0973
38277SOL    HW120794   4.762   0.869   2.759 -0.0546  1.8437 -1.3017
38277SOL    HW220795   4.889   0.810   2.700  0.1257  0.6525  0.2186
38278SOL     OW20796   3.502   8.558  11.449 -0.3423  0.3289 -0.4117
38278SOL    HW120797   3.528   8.468  11.431 -0.6833 -0.0013  0.6848
38278SOL    HW220798   3.580   8.610  11.430  0.2640 -0.3453  0.1981
38279SOL     OW20799   7.385   3.229   5.006  0.2489 -0.0271 -0.2657
38279SOL    HW120800   7.341   3.202   5.087  2.5911 -2.5374  0.3121
38279SOL    HW220801   7.434   3.308   5.031  0.8793 -0.7277  0.7750
38280SOL     OW20802   8.288   0.148   1.405 -0.1581 -0.1170  0.3447
38280SOL    HW120803   8.196   0.172   1.415 -0.8104 -2.3559  0.2318
38280SOL    HW220804   8.302   0.078   1.469  0.9107 -1.1912 -1.0115
38281SOL     OW20805   4.773   6.090   2.974 -0.1489 -0.0509  0.1278
38281SOL    HW120806   4.716   6.166   2.959  0.2735  0.4824  1.1249
38281SOL    HW220807   4.820   6.079   2.891  1.1165  1.9326  0.5170
38282SOL     OW20808   4.094   8.793   2.006 -0.1536  0.0241  0.0865
38282SOL    HW120809   4.053   8.792   2.092 -1.0319  0.9807 -0.3069
38282SOL    HW220810   4.072   8.879   1.970  1.4117  0.2112 -0.5210
38283SOL     OW20811   8.404   1.261   7.479 -0.1222 -0.1882 -0.1980
38283SOL    HW120812   8.340   1.308   7.425  0.3690  0.6455 -0.0824
38283SOL    HW220813   8.448   1.330   7.530 -0.3924 -0.9266  1.0814
38284SOL     OW20814   3.292  10.795  11.809  0.2478  0.4441  0.6563
38284SOL    HW120815   3.351  10.870  11.817  1.3824 -0.3030 -0.3379
38284SOL    HW220816   3.277  10.766  11.899  3.5187 -0.9004  0.9049
38285SOL     OW20817   7.031  10.362   8.140 -0.1893  0.3205 -0.1230
38285SOL    HW120818   6.986  10.335   8.060 -0.5475  0.4873  0.0199
38285SOL    HW220819   7.097  10.294   8.154 -0.2714  0.1719 -0.4380
38286SOL     OW20820   3.917   0.357   0.091 -0.2392 -0.0976 -0.5336
38286SOL    HW120821   3.856   0.294   0.051 -1.8187  1.7550 -1.2179
38286SOL    HW220822   3.887   0.442   0.059  0.1316  1.2626  2.4464
38287SOL     OW20823   9.596   6.595  10.372  0.1385  0.0128 -0.0121
38287SOL    HW120824   9.517   6.589  10.425 -0.6306 -1.4233 -1.2263
38287SOL    HW220825   9.659   6.537  10.415  0.2848  0.5766  0.5423
38288SOL     OW20826   2.214   5.170   1.160  0.1270  0.3290  1.0453
38288SOL    HW120827   2.195   5.162   1.254 -0.0918  0.0124  0.9738
38288SOL    HW220828   2.128   5.169   1.118  0.2773 -0.8538  0.7336
38289SOL     OW20829   8.376  11.554   0.461 -0.7808 -0.0130 -0.3089
38289SOL    HW120830   8.311  11.589   0.522 -0.4015 -1.1909  0.8306
38289SOL    HW220831   8.458  11.556   0.511 -0.2938 -0.1974 -1.0929
38290SOL     OW20832   6.777   0.651   9.842  0.1319 -0.5164  0.0838
38290SOL    HW120833   6.749   0.621   9.755 -0.1661 -0.1271  0.0438
38290SOL    HW220834   6.696   0.667   9.890  0.2851  0.0913  0.1489
38291SOL     OW20835   2.020  11.157   1.796 -0.1325  0.0737 -0.0537
38291SOL    HW120836   2.060  11.076   1.764 -1.3464 -0.0357 -1.3665
38291SOL    HW220837   1.956  11.180   1.729 -3.3997 -0.5561  2.5863
38292SOL     OW20838   2.890  11.462   4.259  0.0340 -0.4732  0.9211
38292SOL    HW120839   2.915  11.435   4.171 -1.3596 -0.6061  0.5336
38292SOL    HW220840   2.832  11.393   4.290 -0.3390  0.0890  1.5237
38293SOL     OW20841   8.523   5.453   8.222  1.4327 -0.6208  0.0793
38293SOL    HW120842   8.526   5.448   8.127 -1.5195 -1.3879 -0.0651
38293SOL    HW220843   8.526   5.362   8.251  3.0981 -0.3672  0.8224
38294SOL     OW20844   5.100   4.602   7.426  0.0959  0.2839 -0.0517
38294SOL    HW120845   5.023   4.617   7.481 -1.0625 -0.4718 -1.3918
38294SOL    HW220846   5.085   4.516   7.387  2.2239 -0.4355  0.5600
38295SOL     OW20847   1.068   3.831  10.001 -0.3471  0.1354 -0.8154
38295SOL    HW120848   1.157   3.802  10.022 -0.6397 -0.4156 -0.2758
38295SOL    HW220849   1.061   3.823   9.906  0.0144 -0.3079 -0.8049
38296SOL     OW20850   0.797   9.240   8.437 -0.0341  0.1410  0.0495
38296SOL    HW120851   0.708   9.257   8.467 -0.2693 -1.5451  0.4211
38296SOL    HW220852   0.801   9.279   8.350 -1.0035  0.5946  0.2006
38297SOL     OW20853   9.025   6.896   9.949  0.5106  0.3583  0.0542
38297SOL    HW120854   8.951   6.913  10.008  1.1478  0.2488  0.8976
38297SOL    HW220855   8.993   6.922   9.863  0.3661  2.8413  0.7866
38298SOL     OW20856   8.469   5.585   9.346  0.2581 -0.7812  0.1192
38298SOL    HW120857   8.485   5.582   9.251 -3.0617  0.6927 -0.6501
38298SOL    HW220858   8.479   5.677   9.369 -2.6683 -0.4100  0.2872
38299SOL     OW20859   6.158  11.854   4.237  0.7863  0.1535 -0.3247
38299SOL    HW120860   6.162  11.762   4.212 -0.9699  0.5438 -2.3334
38299SOL    HW220861   6.072  11.884   4.207  0.4976  1.9976  2.0137
38300SOL     OW20862   2.374  11.662   9.182 -0.4434  0.3813  0.2067
38300SOL    HW120863   2.359  11.605   9.258  0.4357  1.0155  0.8745
38300SOL    HW220864   2.455  11.708   9.202  0.6013 -0.4854 -1.7728
38301SOL     OW20865   0.340   1.672   2.442  0.1126 -0.6830  0.2955
38301SOL    HW120866   0.302   1.584   2.447  1.5366 -1.3501 -0.0793
38301SOL    HW220867   0.281   1.727   2.493 -0.7094 -1.8957  0.6875
38302SOL     OW20868   2.961   7.273   5.867  0.2781  0.3526 -0.3266
38302SOL    HW120869   2.948   7.215   5.792 -2.0179 -2.4871  2.0391
38302SOL    HW220870   2.920   7.356   5.840  0.6192 -0.1401 -2.5850
38303SOL     OW20871   3.954   8.846   6.306  0.1771  0.2740  0.3590
38303SOL    HW120872   3.919   8.880   6.388  1.2085 -0.5921  1.1841
38303SOL    HW220873   3.921   8.756   6.301  1.1201 -0.0918  0.4602
38304SOL     OW20874  10.863   7.123   9.268  0.4101 -1.1329 -0.5751
38304SOL    HW120875  10.794   7.074   9.313 -1.2000  1.7548  0.3245
38304SOL    HW220876  10.941   7.110   9.322 -0.2345 -1.8045  0.2240
38305SOL     OW20877   1.023   0.241   5.656 -0.3590 -0.2807 -0.3456
38305SOL    HW120878   1.049   0.174   5.593 -0.7889 -0.8368  0.0661
38305SOL    HW220879   1.056   0.323   5.618 -0.2775 -0.6544 -1.1037
38306SOL     OW20880   1.470   8.228   2.804  0.4599  0.1901 -0.1015
38306SOL    HW120881   1.387   8.202   2.765  0.1690  1.8164 -0.6475
38306SOL    HW220882   1.446   8.293   2.871  1.2271  0.0196  0.3526
38307SOL     OW20883   5.579  12.009   7.639 -0.5126 -0.4149  0.3060
38307SOL    HW120884   5.558  12.059   7.560 -3.3888 -0.9709  0.6027
38307SOL    HW220885   5.499  12.012   7.691  1.1510 -0.4541  3.0243
38308SOL     OW20886  10.703   0.686   4.710 -0.8104  0.1558 -0.1799
38308SOL    HW120887  10.669   0.774   4.730  0.5064  0.2729  1.7888
38308SOL    HW220888  10.634   0.627   4.738 -0.1818  0.4579  2.1651
38309SOL     OW20889  10.023  11.285   0.573  0.2992 -0.9224 -0.0823
38309SOL    HW120890  10.084  11.359   0.564 -0.2040 -0.4859  0.0418
38309SOL    HW220891   9.994  11.290   0.664  1.0520 -1.9083  0.2302
38310SOL     OW20892   3.530   1.492   2.723 -0.2482 -0.0637 -0.5093
38310SOL    HW120893   3.451   1.439   2.734  0.5311 -1.2418 -0.4706
38310SOL    HW220894   3.508   1.555   2.655 -0.9757 -0.8748 -1.0352
38311SOL     OW20895   7.148   8.884  11.343 -0.3737 -0.3583  0.3822
38311SOL    HW120896   7.158   8.812  11.404 -1.3984 -0.3157  0.6219
38311SOL    HW220897   7.230   8.933  11.349 -0.8887  0.3083  2.5790
38312SOL     OW20898   6.681   7.048   6.468  0.7901  0.1690 -0.3038
38312SOL    HW120899   6.599   7.090   6.494  0.9305 -0.6787  1.6913
38312SOL    HW220900   6.654   6.964   6.430  0.7206 -0.2599  0.6635
38313SOL     OW20901   4.830   6.592   0.357 -0.1246 -0.2514 -0.1470
38313SOL    HW120902   4.840   6.684   0.331 -0.9256 -0.2349 -0.4075
38313SOL    HW220903   4.916   6.553   0.341  0.0291  0.2951 -0.6718
38314SOL     OW20904   0.052   9.568   8.095  0.1562 -0.4194  0.0698
38314SOL    HW120905  -0.031   9.605   8.125  0.0456 -1.2101  0.7616
38314SOL    HW220906   0.106   9.561   8.174  1.2119  0.8584 -0.4916
38315SOL     OW20907   5.764   2.235   2.959  0.0197 -0.0585  0.1248
38315SOL    HW120908   5.735   2.294   2.889  0.1807  0.5361  0.5490
38315SOL    HW220909   5.839   2.280   2.999  1.7977 -1.7040 -1.1623
38316SOL     OW20910   1.822   0.152   6.020 -0.5741  0.0461  0.1338
38316SOL    HW120911   1.867   0.216   5.966 -0.2501  0.9707  1.4395
38316SOL    HW220912   1.893   0.105   6.066 -0.8634 -0.0329  0.5071
38317SOL     OW20913  11.627   7.331  10.125  0.2858  0.1290 -0.1949
38317SOL    HW120914  11.645   7.291  10.210  2.5179 -1.2651 -1.2422
38317SOL    HW220915  11.549   7.287  10.093  0.4627 -0.6014  0.3721
38318SOL     OW20916   3.921   8.273   1.183  0.5272 -0.0225 -0.0997
38318SOL    HW120917   3.856   8.211   1.217  0.4542  0.1961  0.1624
38318SOL    HW220918   3.879   8.312   1.106  0.0929  0.5639  0.4157
38319SOL     OW20919  10.671  11.283   7.081  0.3192 -0.1976 -0.3205
38319SOL    HW120920  10.644  11.192   7.089 -0.1391 -0.0699 -0.3349
38319SOL    HW220921  10.762  11.280   7.052  1.0329 -0.6517  1.8193
38320SOL     OW20922   3.726  10.852  12.219 -0.7939 -0.0664 -0.3830
38320SOL    HW120923   3.669  10.812  12.153  0.5757 -3.1729  0.1539
38320SOL    HW220924   3.689  10.823  12.303  0.5666 -0.7220  0.0177
38321SOL     OW20925   2.795   0.792  11.856  0.3562 -0.1165 -0.1325
38321SOL    HW120926   2.820   0.880  11.883  1.5911 -0.5743  0.2857
38321SOL    HW220927   2.699   0.793  11.857  0.3566  0.9040  0.9359
38322SOL     OW20928   3.218   6.296   5.021  0.0696  0.4327  0.3026
38322SOL    HW120929   3.215   6.305   4.926 -2.0755  2.4596  0.4655
38322SOL    HW220930   3.214   6.202   5.036 -0.5416  0.1028 -1.6038
38323SOL     OW20931  11.350  11.563   5.637  0.4092 -0.1445 -0.0337
38323SOL    HW120932  11.324  11.472   5.624  2.9014 -0.9679  0.1025
38323SOL    HW220933  11.434  11.570   5.592  1.3595  1.4321  1.8259
38324SOL     OW20934   1.816   7.244   2.873  0.3577  0.1501 -0.4070
38324SOL    HW120935   1.803   7.203   2.958 -2.8141 -0.6638 -1.1622
38324SOL    HW220936   1.905   7.220   2.848  0.2434 -2.3723  1.2459
38325SOL     OW20937   5.706   4.917   8.898  0.2905  0.1327 -0.0428
38325SOL    HW120938   5.800   4.930   8.891  0.5309 -1.1325  0.4490
38325SOL    HW220939   5.689   4.839   8.845 -0.6257  0.8282 -0.8112
38326SOL     OW20940   6.242   3.453   9.896  0.3844  0.1554 -0.2549
38326SOL    HW120941   6.240   3.358   9.902 -0.9237  0.2017  0.3509
38326SOL    HW220942   6.282   3.481   9.979 -0.6451  0.1658  0.2562
38327SOL     OW20943   1.682   2.819   1.175  0.3734 -0.5693 -0.4717
38327SOL    HW120944   1.606   2.815   1.116  1.4657  0.6421 -2.0271
38327SOL    HW220945   1.680   2.907   1.211  0.7348 -0.7198 -0.0717
38328SOL     OW20946  11.577   3.483   2.544 -0.1787  0.2068 -0.1474
38328SOL    HW120947  11.487   3.450   2.545  0.5805 -2.0209 -0.5357
38328SOL    HW220948  11.619   3.440   2.619  0.7407  0.6778 -0.3762
38329SOL     OW20949   6.216   2.491   5.878  0.4947 -0.0137  0.0121
38329SOL    HW120950   6.238   2.575   5.838  1.7905 -0.2765  0.1380
38329SOL    HW220951   6.170   2.515   5.959 -0.1000  0.5442 -0.4739
38330SOL     OW20952   6.194   4.375   4.398 -0.1269  0.2049  0.0298
38330SOL    HW120953   6.171   4.316   4.470  2.2692 -0.3684  0.4075
38330SOL    HW220954   6.220   4.316   4.326 -0.4056  0.7905 -0.5577
38331SOL     OW20955   0.404   5.804  12.134  0.1931 -0.3538 -0.6300
38331SOL    HW120956   0.427   5.878  12.078  0.8012  0.0181  0.0814
38331SOL    HW220957   0.423   5.727  12.081 -1.2347 -0.0085 -1.6752
38332SOL     OW20958   8.800   7.609  11.488  0.3323 -0.3506 -0.1349
38332SOL    HW120959   8.854   7.582  11.414  0.9673 -1.3457  0.6703
38332SOL    HW220960   8.793   7.531  11.543  1.3556  0.8062  1.7494
38333SOL     OW20961   4.810   9.150  11.727 -0.3111 -0.0971 -0.0557
38333SOL    HW120962   4.777   9.184  11.810 -0.4813 -0.1603 -0.0982
38333SOL    HW220963   4.904   9.168  11.730 -0.2996 -0.2036  0.1973
38334SOL     OW20964   6.751   5.614   8.537 -0.0151 -0.4569 -0.2304
38334SOL    HW120965   6.819   5.551   8.511  1.1070  0.7008 -0.1763
38334SOL    HW220966   6.788   5.700   8.515 -0.8548  0.2931  1.1840
38335SOL     OW20967   6.806   1.821   8.847 -0.0498 -0.8816 -0.1229
38335SOL    HW120968   6.760   1.737   8.845 -1.0996 -0.3839  1.6221
38335SOL    HW220969   6.737   1.886   8.853  0.7624  0.1474 -1.4052
38336SOL     OW20970   0.359   9.957   4.872 -0.1530  0.3536  0.4385
38336SOL    HW120971   0.325   9.868   4.860  0.5394 -0.0518  1.3793
38336SOL    HW220972   0.333   9.981   4.961  1.0216  0.4757  0.7641
38337SOL     OW20973   2.987   7.279  10.722  0.0948  0.7449  0.0873
38337SOL    HW120974   2.966   7.343  10.790  0.7992  0.5929  0.4473
38337SOL    HW220975   3.082   7.283  10.712 -0.0364  1.0807 -1.2061
38338SOL     OW20976   5.536  11.177   1.315  0.1620  0.0728 -0.3244
38338SOL    HW120977   5.599  11.208   1.380 -0.4009  0.0995  0.2203
38338SOL    HW220978   5.567  11.211   1.232  0.8763  0.0684 -0.0600
38339SOL     OW20979  10.769   1.300  10.284  0.2331  0.1053 -0.5621
38339SOL    HW120980  10.718   1.280  10.362 -0.5913 -2.5171 -1.6476
38339SOL    HW220981  10.856   1.322  10.317  0.0632 -1.4928  1.1079
38340SOL     OW20982   6.132   2.629   6.097 -0.4390 -0.4025  0.1620
38340SOL    HW120983   6.080   2.705   6.073 -1.0646 -1.3301 -1.6907
38340SOL    HW220984   6.114   2.614   6.189  0.6555  2.3652  0.9016
38341SOL     OW20985   1.571   0.358  11.746  0.4434  0.4781  0.1448
38341SOL    HW120986   1.659   0.382  11.775  0.2968 -1.8987  3.0565
38341SOL    HW220987   1.584   0.280  11.693  0.0747 -1.1958  2.3701
38342SOL     OW20988  10.894  11.315  11.129  0.3754  0.5324  0.5104
38342SOL    HW120989  10.897  11.379  11.058  1.0675 -0.9817 -0.8945
38342SOL    HW220990  10.882  11.231  11.085 -0.7058 -0.3012  2.3129
38343SOL     OW20991   3.128   8.007   7.345 -0.1136 -0.4285 -0.3789
38343SOL    HW120992   3.182   7.931   7.322  0.0809 -0.2326 -0.5686
38343SOL    HW220993   3.189   8.071   7.380 -0.3406 -0.5245  0.2012
38344SOL     OW20994  11.195   4.624   1.520  0.0672 -0.2904  0.1578
38344SOL    HW120995  11.194   4.548   1.578 -1.6415 -0.9051 -0.6065
38344SOL    HW220996  11.161   4.696   1.574  1.3134 -0.1160  0.7617
38345SOL     OW20997   7.419  11.897   7.257 -0.6739  0.0398 -0.0848
38345SOL    HW120998   7.493  11.923   7.203 -2.8714  0.8073 -2.9690
38345SOL    HW220999   7.366  11.976   7.265 -1.5506 -0.6369  1.3549
38346SOL     OW21000   2.652   7.957   4.068 -0.0783 -0.0700  0.4681
38346SOL    HW121001   2.649   7.862   4.071 -0.1041 -0.0880 -0.0279
38346SOL    HW221002   2.571   7.983   4.024  0.8643  0.0595 -1.3292
38347SOL     OW21003   3.685   5.828  10.512  0.0100  0.1004  0.0278
38347SOL    HW121004   3.681   5.790  10.600  2.3495 -0.5165 -0.0619
38347SOL    HW221005   3.687   5.752  10.453 -2.3267  0.5039 -0.6779
38348SOL     OW21006   7.487   7.659   9.700  0.2576  0.3029  0.2982
38348SOL    HW121007   7.515   7.635   9.611 -0.4134 -1.9848  0.6294
38348SOL    HW221008   7.433   7.585   9.728  0.4611  0.9738  2.6213
38349SOL     OW21009   6.810   7.352  12.156  0.1962 -0.0592  0.2357
38349SOL    HW121010   6.831   7.261  12.138 -1.6752 -0.0893 -2.2478
38349SOL    HW221011   6.782   7.388  12.071 -1.1947  2.2293  1.5510
38350SOL     OW21012   4.061   5.398   4.358 -0.3896  0.5062 -0.3334
38350SOL    HW121013   4.026   5.349   4.283 -0.2592  1.0340 -0.7476
38350SOL    HW221014   4.116   5.335   4.404 -1.5277 -0.2208  0.0937
38351SOL     OW21015  11.019   1.825   7.593 -0.1210 -0.5010  0.7624
38351SOL    HW121016  10.952   1.757   7.583  1.1412 -1.4838 -1.9039
38351SOL    HW221017  11.008   1.881   7.516  0.1534  1.2006  1.9144
38352SOL     OW21018   6.462  10.152   1.628 -0.4984 -0.2362  0.4184
38352SOL    HW121019   6.488  10.163   1.720 -1.2034  0.3486  0.5513
38352SOL    HW221020   6.369  10.175   1.626 -0.6167 -0.7381 -0.3516
38353SOL     OW21021   8.006   4.794   8.105  0.6534  0.3748  0.3883
38353SOL    HW121022   8.065   4.866   8.122  0.6770  0.5759 -0.4953
38353SOL    HW221023   7.968   4.814   8.019  0.9901 -0.8757 -0.0703
38354SOL     OW21024   3.479   7.640   2.528 -0.1101 -0.5213  0.2563
38354SOL    HW121025   3.448   7.699   2.596 -0.2714  2.6493 -2.3030
38354SOL    HW221026   3.402   7.623   2.473  0.6460 -0.2194 -0.9480
38355SOL     OW21027   2.248   4.250   8.347 -0.0753 -0.1791  0.0709
38355SOL    HW121028   2.328   4.201   8.330 -0.3716 -1.1995  1.3917
38355SOL    HW221029   2.276   4.341   8.352  0.8838 -0.4524 -0.1526
38356SOL     OW21030  10.479   3.699  10.539  0.5334 -0.5132 -0.5999
38356SOL    HW121031  10.522   3.724  10.457  2.0525 -0.3590  0.2024
38356SOL    HW221032  10.396   3.746  10.538  1.4305  1.1514 -1.1299
38357SOL     OW21033   8.513   7.855   7.701  0.3775 -0.1317  0.7562
38357SOL    HW121034   8.450   7.801   7.750  0.2246 -0.1925  0.4965
38357SOL    HW221035   8.459   7.923   7.661  0.7221  0.9198  2.0317
38358SOL     OW21036   0.388   1.639   6.987 -0.3416  0.2058  0.2302
38358SOL    HW121037   0.333   1.635   6.909 -2.4020  2.7747  1.4269
38358SOL    HW221038   0.468   1.682   6.957  0.2814 -1.6957 -1.0721
38359SOL     OW21039   6.568   9.574   0.817  0.2379  0.2945  1.1529
38359SOL    HW121040   6.600   9.515   0.748  1.6397  0.6183  1.4907
38359SOL    HW221041   6.495   9.621   0.776 -0.4596 -1.1564  0.6497
38360SOL     OW21042   4.697   2.149   2.813  0.2332 -0.4123  0.4414
38360SOL    HW121043   4.784   2.150   2.853  0.7186 -0.0291 -0.5938
38360SOL    HW221044   4.669   2.058   2.819  1.0325 -0.6922  0.1255
38361SOL     OW21045   2.789   1.860  11.035 -0.2518 -0.0064  0.5217
38361SOL    HW121046   2.782   1.907  10.952 -0.0917 -1.0135 -0.0741
38361SOL    HW221047   2.749   1.919  11.099  2.6196  2.3038  0.3816
38362SOL     OW21048   2.891   0.931  11.473  0.0697 -0.2120  0.4849
38362SOL    HW121049   2.967   0.939  11.415  1.0028  0.5015  1.7474
38362SOL    HW221050   2.886   0.838  11.493  0.0156 -0.3997 -0.3627
38363SOL     OW21051   8.221   5.260   2.929  1.1017  0.1205  0.0166
38363SOL    HW121052   8.279   5.322   2.973 -0.0039  1.5802 -0.5037
38363SOL    HW221053   8.141   5.261   2.981  1.0619 -0.9273  0.0102
38364SOL     OW21054   3.964   9.872   6.937  0.0100 -0.1174 -0.2215
38364SOL    HW121055   3.975   9.780   6.964  0.9744  0.5126  1.7444
38364SOL    HW221056   3.890   9.903   6.989 -0.7971  0.0330 -1.4411
38365SOL     OW21057   9.627   9.046   8.638 -0.4377 -1.0243  0.3009
38365SOL    HW121058   9.658   8.976   8.580 -0.4726 -0.4003 -0.4859
38365SOL    HW221059   9.652   9.127   8.594 -1.3768 -0.5268  0.6525
38366SOL     OW21060  12.189   8.294   5.653  0.4443  0.4534 -0.1115
38366SOL    HW121061  12.223   8.291   5.564  0.5046  1.4758 -0.1377
38366SOL    HW221062  12.158   8.206   5.670  0.4466  0.2445 -1.1365
38367SOL     OW21063   5.199   2.723   8.907 -0.2818 -0.0027  0.4467
38367SOL    HW121064   5.211   2.755   8.996 -1.6921 -0.0433  0.6653
38367SOL    HW221065   5.112   2.753   8.882  0.1804  0.2212 -1.0213
38368SOL     OW21066   9.998  11.898  11.520 -0.4288 -0.7353  0.4186
38368SOL    HW121067  10.029  11.988  11.507 -1.1619 -0.4041  0.8880
38368SOL    HW221068  10.078  11.845  11.520 -0.0206 -0.1290 -0.2183
38369SOL     OW21069   3.138   7.236   6.745 -0.1412  0.1092  0.3411
38369SOL    HW121070   3.093   7.172   6.800  0.0365  0.1661  0.5596
38369SOL    HW221071   3.226   7.199   6.732 -0.8722 -1.0175 -1.8314
38370SOL     OW21072   5.060   5.427   7.752 -0.2836 -0.5096 -0.3955
38370SOL    HW121073   5.061   5.443   7.847  3.4873  0.6882 -0.4721
38370SOL    HW221074   5.003   5.496   7.717  1.0007  1.2163  0.7806
38371SOL     OW21075   2.572   6.521   8.240 -0.0927 -0.0109  0.4542
38371SOL    HW121076   2.534   6.434   8.235  1.5619 -0.7608  0.1756
38371SOL    HW221077   2.546   6.554   8.326 -0.9932 -0.6470  0.4360
38372SOL     OW21078  11.007   0.828   1.572 -0.2957 -0.7455  0.6309
38372SOL    HW121079  11.034   0.860   1.486  0.2297  1.1745  1.4543
38372SOL    HW221080  10.979   0.738   1.557  0.8055 -0.8045 -1.3533
38373SOL     OW21081   1.122   0.749   1.139 -0.1429  0.0711 -0.4024
38373SOL    HW121082   1.169   0.801   1.074  0.1753 -0.4300 -0.5705
38373SOL    HW221083   1.141   0.792   1.223  0.1438  0.2053 -0.5383
38374SOL     OW21084  12.009   7.730   9.946  0.1704  0.0894  0.2390
38374SOL    HW121085  11.936   7.673   9.970  1.0995 -1.3076 -0.1269
38374SOL    HW221086  12.073   7.718  10.016  1.3761 -1.2152 -1.0260
38375SOL     OW21087   2.582   1.340  10.706  0.5517  0.3751  0.7407
38375SOL    HW121088   2.580   1.274  10.776 -0.9807  0.9317  1.2683
38375SOL    HW221089   2.597   1.423  10.751 -0.2166  0.7085  0.4037
38376SOL     OW21090  11.715   1.529   9.935 -0.6028 -0.5244  0.1865
38376SOL    HW121091  11.677   1.441   9.935 -2.1276  0.0900 -0.1383
38376SOL    HW221092  11.711   1.556  10.027  1.4330 -1.3849  0.5808
38377SOL     OW21093   6.292   3.566   1.195 -0.1084  0.1952 -0.5861
38377SOL    HW121094   6.276   3.619   1.117 -1.2271  1.6235  0.5642
38377SOL    HW221095   6.261   3.619   1.268  0.6270 -1.2166  0.8385
38378SOL     OW21096   6.426   9.766   2.927  0.1248 -0.8096  0.0152
38378SOL    HW121097   6.487   9.784   2.855  0.9462 -1.3631  0.5613
38378SOL    HW221098   6.339   9.779   2.888  0.5752  1.1059 -0.4888
38379SOL     OW21099  10.299   4.208  10.437 -0.0228 -0.7870 -0.2820
38379SOL    HW121100  10.309   4.280  10.375 -1.4555 -0.4465 -0.1401
38379SOL    HW221101  10.215   4.168  10.414 -0.2308 -1.1058  0.9656
38380SOL     OW21102  11.978   6.407   4.808 -0.4350 -0.2351 -0.3657
38380SOL    HW121103  11.938   6.340   4.864  0.4678 -0.1003  0.4824
38380SOL    HW221104  12.072   6.391   4.816 -0.1954  1.1655 -0.0850
38381SOL     OW21105   9.668   6.783  11.519  0.2497  0.0048 -0.3814
38381SOL    HW121106   9.602   6.827  11.572 -0.6085  0.4548 -1.7577
38381SOL    HW221107   9.617   6.734  11.454  1.2598 -0.2777 -0.9808
38382SOL     OW21108   7.737   8.127  12.020 -0.1367  0.2166 -0.3292
38382SOL    HW121109   7.713   8.036  12.005 -0.2967  0.1864  0.1142
38382SOL    HW221110   7.786   8.126  12.102  0.7146  0.3895 -0.8199
38383SOL     OW21111   9.617  10.350   5.396 -0.2913  0.1485  0.0960
38383SOL    HW121112   9.685  10.307   5.344  2.0824  0.8804  2.3675
38383SOL    HW221113   9.559  10.280   5.423  1.8964 -1.3002  1.3760
38384SOL     OW21114   4.266  10.184   7.333  0.2852 -0.0235  0.2327
38384SOL    HW121115   4.344  10.177   7.279  1.1174 -1.0753  1.5080
38384SOL    HW221116   4.194  10.189   7.271  1.3542  0.8808 -0.9673
38385SOL     OW21117   6.387   5.226   1.056  0.0112 -0.0870  0.2784
38385SOL    HW121118   6.364   5.303   1.004 -0.6670 -0.8318 -0.5568
38385SOL    HW221119   6.449   5.259   1.121  0.4402  0.9835 -0.6376
38386SOL     OW21120   9.365   8.837   0.040  0.1647 -0.0768  0.1029
38386SOL    HW121121   9.451   8.818   0.003  0.4367 -0.5592  0.9756
38386SOL    HW221122   9.378   8.837   0.135 -1.3198 -2.8516  0.3991
38387SOL     OW21123   4.329   9.124   7.443  0.3014  0.3547 -0.7342
38387SOL    HW121124   4.411   9.077   7.432  0.5726 -0.0105  2.1812
38387SOL    HW221125   4.264   9.055   7.459 -0.4163  0.7051 -1.9851
38388SOL     OW21126  12.331   9.403  10.872 -0.4040 -0.5330  0.5794
38388SOL    HW121127  12.365   9.436  10.789  0.3322 -2.9761 -0.1629
38388SOL    HW221128  12.244   9.442  10.880 -0.6548 -0.5627 -1.5531
38389SOL     OW21129   4.034   7.761   0.911 -0.1251 -0.0567  0.3297
38389SOL    HW121130   4.032   7.673   0.949  0.5568 -0.3211 -0.2061
38389SOL    HW221131   3.945   7.777   0.882 -0.4006 -0.3086  1.0239
38390SOL     OW21132  12.171   1.522   6.947  0.5166  0.0004  0.2638
38390SOL    HW121133  12.204   1.558   7.029 -0.6173  0.4628  0.5376
38390SOL    HW221134  12.121   1.594   6.908  1.4925 -0.0232 -1.1200
38391SOL     OW21135   9.933   4.931   5.544 -0.5030 -0.0539 -0.0919
38391SOL    HW121136   9.928   4.850   5.494  0.8678 -1.8611  2.4422
38391SOL    HW221137   9.853   4.931   5.598 -1.2603  1.1327 -1.1554
38392SOL     OW21138  11.474   6.161   0.445 -0.7671 -0.2592 -0.3924
38392SOL    HW121139  11.388   6.203   0.452 -0.8144 -0.2658 -0.8946
38392SOL    HW221140  11.502   6.178   0.355 -0.5321 -0.8185 -0.4308
38393SOL     OW21141   3.691   9.918   1.732 -0.1116 -0.2132 -0.0974
38393SOL    HW121142   3.616   9.869   1.765  0.8281 -1.9133 -0.3610
38393SOL    HW221143   3.746   9.933   1.809  0.3095 -0.8992 -0.2597
38394SOL     OW21144   8.378  11.995   8.913  1.0541 -0.3154  0.5489
38394SOL    HW121145   8.307  12.015   8.973 -1.1496  1.3766 -2.3526
38394SOL    HW221146   8.418  12.079   8.894  0.9991 -0.6120 -1.0747
38395SOL     OW21147   7.164   6.428   7.481 -0.0671  0.7377  0.5042
38395SOL    HW121148   7.124   6.364   7.423  0.9425  1.0657 -0.5945
38395SOL    HW221149   7.248   6.448   7.441 -0.3852  2.8384  0.7325
38396SOL     OW21150   0.535   6.607   6.235  0.1942 -0.6637 -0.5235
38396SOL    HW121151   0.454   6.586   6.280 -0.2136  2.3030  0.2786
38396SOL    HW221152   0.584   6.661   6.296  0.9917  0.9033 -2.4332
38397SOL     OW21153  10.652  11.368  12.406  0.0892 -0.3516  0.2385
38397SOL    HW121154  10.668  11.274  12.406 -1.1868 -0.5906  0.4249
38397SOL    HW221155  10.712  11.402  12.473  1.1215 -0.9095 -0.3821
38398SOL     OW21156   6.506   9.844   9.886  0.7378  0.1371  0.0120
38398SOL    HW121157   6.446   9.867   9.957  1.3550 -0.0130  0.5886
38398SOL    HW221158   6.479   9.900   9.813  0.7444  1.0274  0.6735
38399SOL     OW21159  11.507   3.748   3.119  0.1363  0.6986  0.0119
38399SOL    HW121160  11.508   3.671   3.063 -1.2243  0.2972  0.4819
38399SOL    HW221161  11.422   3.743   3.164  1.5938  0.3655  2.9585
38400SOL     OW21162   0.881  11.921   7.464  0.3988 -0.0901 -0.3601
38400SOL    HW121163   0.901  12.011   7.438  2.3080  0.5856  2.8738
38400SOL    HW221164   0.818  11.930   7.536  1.4239 -1.2104  0.7373
38401SOL     OW21165   5.889   0.355   6.356 -0.3653 -0.2094 -0.2111
38401SOL    HW121166   5.872   0.346   6.449 -0.3880  0.7404 -0.1210
38401SOL    HW221167   5.910   0.447   6.343 -0.1425 -0.3721 -1.1100
38402SOL     OW21168   5.642   7.945   7.442  0.2868 -0.4117  0.2544
38402SOL    HW121169   5.577   7.929   7.374  1.6501 -2.7931 -0.6148
38402SOL    HW221170   5.649   7.861   7.489  1.2968  0.3732  1.5924
38403SOL     OW21171   2.436   6.914  12.360 -0.2442  0.0455  0.2025
38403SOL    HW121172   2.371   6.973  12.397  0.8367  2.0246 -0.8837
38403SOL    HW221173   2.387   6.834  12.340 -1.9650  0.8812  0.8672
38404SOL     OW21174   5.058  11.764   5.139  0.1664  0.4408  0.0764
38404SOL    HW121175   5.053  11.699   5.069 -1.5286 -1.5007  1.8455
38404SOL    HW221176   5.126  11.731   5.197  0.3573  1.0864  0.2204
38405SOL     OW21177  10.879   2.901   1.228  0.6408 -0.4293  0.3920
38405SOL    HW121178  10.844   2.881   1.315  1.9461 -2.1770  0.5727
38405SOL    HW221179  10.805   2.936   1.179  0.0431  1.3485  2.3984
38406SOL     OW21180  11.845   7.086   9.737 -0.2013  0.0897  0.4119
38406SOL    HW121181  11.887   7.131   9.663 -0.1458  0.6603  0.7833
38406SOL    HW221182  11.915   7.075   9.801 -0.3051 -0.2008  0.4776
38407SOL     OW21183   8.013   0.057  10.018 -0.5085 -0.6375  0.5928
38407SOL    HW121184   7.959   0.132   9.993 -2.6017 -2.5428 -0.8888
38407SOL    HW221185   8.058   0.086  10.097 -1.1752  2.1867  0.0513
38408SOL     OW21186   8.577   6.025   8.955  0.0185  0.2178 -0.4887
38408SOL    HW121187   8.652   5.971   8.929 -1.4104 -1.4661 -1.2930
38408SOL    HW221188   8.525   6.034   8.875 -2.0830 -1.0751  0.6473
38409SOL     OW21189  11.817   5.125  12.450 -0.4121  0.3137  0.7318
38409SOL    HW121190  11.879   5.195  12.471 -1.2479  0.8430  1.4657
38409SOL    HW221191  11.871   5.046  12.446  0.3081  0.7626  1.3974
38410SOL     OW21192   6.070   1.683   3.676  1.2817  0.0303  0.1507
38410SOL    HW121193   6.093   1.677   3.583  2.5114 -0.2694  0.4618
38410SOL    HW221194   5.997   1.745   3.678  0.7241 -0.5245 -1.0951
38411SOL     OW21195   0.765   1.584   3.471  0.2118  0.2745  0.0605
38411SOL    HW121196   0.675   1.610   3.489 -0.1275  0.8142 -2.0941
38411SOL    HW221197   0.757   1.507   3.414  1.0530  0.9602 -1.0366
38412SOL     OW21198   8.656   4.747   9.724  0.6662 -0.7291 -0.3004
38412SOL    HW121199   8.687   4.826   9.768 -1.4307 -0.7752  1.4034
38412SOL    HW221200   8.714   4.678   9.755 -0.1158 -0.5727  1.6792
38413SOL     OW21201   6.391   9.809   3.941 -0.3463 -0.1693  0.0064
38413SOL    HW121202   6.387   9.832   3.848 -2.1609 -0.0339  0.0868
38413SOL    HW221203   6.471   9.852   3.973 -0.2819  0.6961 -1.2420
38414SOL     OW21204   4.107   6.034   1.286  0.1563  0.0711 -0.2821
38414SOL    HW121205   4.057   5.981   1.224  1.0757 -1.3783  0.1867
38414SOL    HW221206   4.054   6.033   1.366 -0.0461  0.2527 -0.4119
38415SOL     OW21207  10.057   7.762   6.930  0.7114 -0.1924  0.2405
38415SOL    HW121208  10.082   7.789   7.019  1.2359  1.1626 -0.2855
38415SOL    HW221209  10.123   7.802   6.874  0.3466 -0.9840 -0.7757
38416SOL     OW21210   1.675   0.005   5.149 -0.4624 -0.4915 -0.1195
38416SOL    HW121211   1.616   0.051   5.208  0.9947  1.2010  0.1159
38416SOL    HW221212   1.726  -0.053   5.207 -2.4668 -2.7587 -0.4459
38417SOL     OW21213  11.456   5.132   5.172  0.3264  0.4344  0.3325
38417SOL    HW121214  11.537   5.151   5.219  0.0645  0.6669  0.6991
38417SOL    HW221215  11.479   5.140   5.080  0.8953 -0.2248  0.4077
38418SOL     OW21216   0.023   6.134  11.931 -0.2627  0.1789 -0.3874
38418SOL    HW121217   0.026   6.072  12.004 -0.9664  0.5086 -0.0672
38418SOL    HW221218  -0.062   6.120  11.891 -1.3548  2.3334  0.9649
38419SOL     OW21219   9.721   7.942   5.742 -0.0198 -0.2543 -0.1140
38419SOL    HW121220   9.739   8.028   5.779  2.2806 -0.3724 -0.7567
38419SOL    HW221221   9.651   7.906   5.796 -0.6134  1.7589  0.5348
38420SOL     OW21222   3.881   3.508   2.829  0.0158 -0.1335 -0.5470
38420SOL    HW121223   3.836   3.592   2.817  0.2159  0.0116 -0.2827
38420SOL    HW221224   3.958   3.513   2.773 -0.6993 -0.6934 -1.6210
38421SOL     OW21225   6.239   5.508  11.177 -0.4496 -0.1931  0.1517
38421SOL    HW121226   6.257   5.566  11.103  1.8368 -0.6888  0.2423
38421SOL    HW221227   6.226   5.422  11.138 -0.4395 -0.2337  0.2360
38422SOL     OW21228  11.547   0.289   9.223 -0.0804 -0.3497 -0.0954
38422SOL    HW121229  11.485   0.352   9.184  0.3769 -0.2391 -0.6671
38422SOL    HW221230  11.549   0.312   9.316 -0.9900 -0.4368 -0.0429
38423SOL     OW21231   6.444   6.439   8.825 -0.2758 -0.2857 -0.0453
38423SOL    HW121232   6.514   6.407   8.882 -0.6096 -1.1008 -0.0864
38423SOL    HW221233   6.373   6.463   8.885 -0.1228  0.1497 -0.0323
38424SOL     OW21234   5.520   6.659   6.519  0.2139  0.1737 -0.0901
38424SOL    HW121235   5.503   6.685   6.610 -0.1024 -0.4144  0.0247
38424SOL    HW221236   5.471   6.578   6.508  0.5274  0.0620 -0.6879
38425SOL     OW21237   7.546  11.837   1.248  0.0746 -0.0804  0.1562
38425SOL    HW121238   7.615  11.893   1.284 -0.9934  0.2365  1.8348
38425SOL    HW221239   7.492  11.897   1.195  0.2397 -0.0220  0.0529
38426SOL     OW21240   7.151  12.295   3.774 -0.0140 -0.2867  0.4521
38426SOL    HW121241   7.062  12.275   3.745 -0.9454  0.3392  2.6960
38426SOL    HW221242   7.169  12.229   3.841  1.5673 -0.9027 -0.5254
38427SOL     OW21243   2.761   5.756   5.243 -0.5757 -0.0684  0.2720
38427SOL    HW121244   2.679   5.722   5.206  0.3307 -1.7575 -0.2860
38427SOL    HW221245   2.790   5.823   5.182 -1.1017 -0.0676  0.0204
38428SOL     OW21246   8.718   3.519   2.140  0.1694  0.0122  0.0935
38428SOL    HW121247   8.771   3.580   2.191 -1.1902  0.4069  1.1223
38428SOL    HW221248   8.692   3.569   2.063  0.4741  0.1603  0.0868
38429SOL     OW21249   8.975   2.270   3.329  0.4788  0.0981  0.2282
38429SOL    HW121250   8.992   2.184   3.367  0.4747 -0.0493 -0.0985
38429SOL    HW221251   9.052   2.322   3.351  0.1930  0.2075  0.9842
38430SOL     OW21252  11.642   0.714   6.862  0.0122  0.1206 -0.7302
38430SOL    HW121253  11.551   0.710   6.890 -0.0399 -0.5103 -0.9666
38430SOL    HW221254  11.693   0.705   6.942 -0.1173  1.6303 -0.4476
38431SOL     OW21255   1.717   5.921   9.581 -0.2805 -0.0977 -0.2352
38431SOL    HW121256   1.720   5.889   9.671 -0.2152  1.9907  0.5449
38431SOL    HW221257   1.795   5.883   9.540  1.3786  1.3116  1.4574
38432SOL     OW21258   4.075   6.645   0.614  0.0792 -0.7854 -1.2332
38432SOL    HW121259   4.112   6.723   0.657  1.9249 -2.4472  0.4375
38432SOL    HW221260   3.981   6.659   0.616  0.3032  0.9516 -0.0203
38433SOL     OW21261  11.569   0.304   3.399  0.1131 -0.0215  0.3320
38433SOL    HW121262  11.642   0.365   3.416  0.8320 -0.5724 -0.6755
38433SOL    HW221263  11.540   0.276   3.486  1.4017 -0.1263  0.7439
38434SOL     OW21264   6.483   2.871   2.288  0.3208 -0.1017  0.0432
38434SOL    HW121265   6.474   2.853   2.382 -0.5868 -1.7886 -0.3345
38434SOL    HW221266   6.532   2.953   2.285 -0.0651  0.2701  1.9995
38435SOL     OW21267  10.868  12.324  12.278 -0.1337 -0.2278 -1.0722
38435SOL    HW121268  10.925  12.310  12.353 -1.0970  0.6262 -0.1584
38435SOL    HW221269  10.818  12.242  12.270 -0.1909 -0.2332 -0.6464
38436SOL     OW21270   4.517  10.839   8.887 -0.1881 -0.0260 -0.2208
38436SOL    HW121271   4.590  10.896   8.911 -2.4651  2.8946  0.3717
38436SOL    HW221272   4.508  10.779   8.961  0.3418  0.9336  0.6475
38437SOL     OW21273   7.615   4.285   8.938 -0.0079 -0.1259 -0.4481
38437SOL    HW121274   7.601   4.314   8.848 -2.2337  0.5885  0.0472
38437SOL    HW221275   7.534   4.310   8.984  0.5731 -1.5094  1.4796
38438SOL     OW21276   6.191   5.456   1.535 -0.1145  0.1989 -0.6006
38438SOL    HW121277   6.152   5.532   1.492 -3.2348 -0.3632  0.9407
38438SOL    HW221278   6.161   5.462   1.626  0.6225 -2.1884 -0.1284
38439SOL     OW21279  10.169   2.440  10.125 -0.1621  0.2349 -0.0808
38439SOL    HW121280  10.121   2.424  10.043 -0.3015  1.2194 -0.1962
38439SOL    HW221281  10.127   2.382  10.189  1.2098 -2.0718 -1.1164
38440SOL     OW21282  11.895   6.175   4.291  0.4518 -0.4116 -0.3583
38440SOL    HW121283  11.865   6.189   4.201 -1.8665  0.9984  0.5269
38440SOL    HW221284  11.927   6.261   4.318  1.3527 -0.8842  0.1126
38441SOL     OW21285   8.221   2.911  10.030  0.8083  0.2193  0.7853
38441SOL    HW121286   8.157   2.853  10.072 -0.5908  0.2609 -1.1230
38441SOL    HW221287   8.169   2.986  10.001  1.6715  0.1996 -0.9520
38442SOL     OW21288  11.281   3.193  11.143  0.7670  0.1069 -0.4548
38442SOL    HW121289  11.363   3.171  11.187  0.5110 -0.1945 -0.1202
38442SOL    HW221290  11.236   3.250  11.205  0.1022 -0.8674 -0.0104
38443SOL     OW21291   8.941   4.178   6.756  0.8488  0.1438 -0.1190
38443SOL    HW121292   8.849   4.197   6.773  1.0175  0.1634  0.8351
38443SOL    HW221293   8.968   4.123   6.829  1.6383  0.2816 -0.2962
38444SOL     OW21294   2.438   6.194   3.837 -0.0826 -0.0545 -0.1012
38444SOL    HW121295   2.496   6.161   3.768  0.2707 -0.8646  0.5737
38444SOL    HW221296   2.475   6.279   3.860 -0.3645  0.3562 -1.0896
38445SOL     OW21297   3.807   4.711   5.926 -0.8789 -0.6572  0.4451
38445SOL    HW121298   3.726   4.680   5.886 -1.2284 -0.1979  0.7869
38445SOL    HW221299   3.857   4.631   5.943  0.7095 -0.8171 -3.7521
38446SOL     OW21300   4.661  11.962  10.576  0.4774 -0.0287  0.1079
38446SOL    HW121301   4.566  11.960  10.580  0.2925 -1.4897 -2.5004
38446SOL    HW221302   4.685  12.049  10.609 -1.6628  0.0908  1.5065
38447SOL     OW21303   1.543   3.662   4.472  0.0659  0.1071 -0.6317
38447SOL    HW121304   1.619   3.611   4.497  0.3519  0.3289 -1.0346
38447SOL    HW221305   1.511   3.700   4.554  0.6631  0.3895 -0.5243
38448SOL     OW21306   6.899  11.654   0.123  0.0099 -0.2015 -0.3942
38448SOL    HW121307   6.822  11.666   0.179 -0.9075 -0.8253 -1.4784
38448SOL    HW221308   6.872  11.689   0.038  1.3696  0.7165 -0.4733
38449SOL     OW21309   7.193  10.107  11.777 -0.1736 -0.0787 -1.0455
38449SOL    HW121310   7.226  10.080  11.691 -1.5930 -0.2405 -1.5650
38449SOL    HW221311   7.184  10.025  11.826  0.8774  0.0386 -0.6397
38450SOL     OW21312  10.357   3.972   5.711 -0.3140 -0.5637  0.3785
38450SOL    HW121313  10.262   3.985   5.711 -0.2098  0.6493 -1.4183
38450SOL    HW221314  10.372   3.906   5.642  0.2653  1.0571 -1.1389
38451SOL     OW21315   2.529  10.024   4.752 -0.1730 -0.0972  0.4733
38451SOL    HW121316   2.495  10.104   4.712  1.2214  0.3533  0.1198
38451SOL    HW221317   2.491  10.024   4.840  0.4919  1.4492  0.8024
38452SOL     OW21318  10.613   8.106   0.526 -0.0061  0.0352  0.2362
38452SOL    HW121319  10.627   8.192   0.487 -0.7362 -0.9756 -2.4148
38452SOL    HW221320  10.578   8.052   0.455 -1.1183 -2.0375  2.2239
38453SOL     OW21321   4.184   6.733  11.703 -0.8995 -0.2829 -0.3079
38453SOL    HW121322   4.234   6.814  11.698  0.7438 -1.3127 -1.8466
38453SOL    HW221323   4.219   6.679  11.632  0.6139 -3.7433  2.7712
38454SOL     OW21324   5.750   6.821   1.072  0.1613  0.2486  0.2338
38454SOL    HW121325   5.834   6.867   1.063  0.4369 -0.3989 -0.6563
38454SOL    HW221326   5.771   6.744   1.126 -0.0228  0.4694  0.6263
38455SOL     OW21327   4.812  10.634   3.657  0.0517  0.0549  0.3975
38455SOL    HW121328   4.854  10.720   3.655  0.1853  0.0376  1.6063
38455SOL    HW221329   4.807  10.607   3.565  2.1226  0.3218  0.1669
38456SOL     OW21330  10.612   6.512   2.833  0.8077  0.0413 -0.6151
38456SOL    HW121331  10.592   6.532   2.742  0.2643  1.3851 -0.2307
38456SOL    HW221332  10.534   6.540   2.881  0.2724 -2.4637  0.0927
38457SOL     OW21333   8.052  11.744   6.323 -0.4342  0.6957  0.3611
38457SOL    HW121334   7.996  11.666   6.321  0.2476  0.1685  1.2680
38457SOL    HW221335   8.104  11.734   6.402  0.1597  1.7363  0.1156
38458SOL     OW21336   9.976   5.186   8.969 -0.1673  0.4749 -0.1762
38458SOL    HW121337  10.015   5.166   9.055 -2.1930 -1.5812  0.3773
38458SOL    HW221338   9.902   5.126   8.963 -0.5355  1.1090 -3.0807
38459SOL     OW21339  11.332   9.781   3.705 -0.3055 -0.0154 -0.8449
38459SOL    HW121340  11.283   9.746   3.779 -0.4991  1.8284 -0.0471
38459SOL    HW221341  11.264   9.811   3.644 -0.1751  1.0046 -0.4985
38460SOL     OW21342   2.907   6.913   8.992 -0.0910 -0.0918  0.3812
38460SOL    HW121343   2.831   6.865   8.960  1.2257 -0.8728 -1.7861
38460SOL    HW221344   2.966   6.845   9.024  0.3785  0.3638  0.4963
38461SOL     OW21345   2.285   8.154   1.146  0.0098 -0.1334  0.6427
38461SOL    HW121346   2.191   8.143   1.132  0.0782 -0.5038  0.4728
38461SOL    HW221347   2.293   8.237   1.193 -0.6453 -1.5172  3.3950
38462SOL     OW21348   1.096  10.901  10.546 -0.0076  0.1419  0.0626
38462SOL    HW121349   1.167  10.961  10.568  1.2382 -1.5566  0.9080
38462SOL    HW221350   1.069  10.926  10.458  2.0420  0.4738 -0.5022
38463SOL     OW21351  10.782   7.125  11.259 -0.4077 -0.3441 -0.1478
38463SOL    HW121352  10.767   7.031  11.265  1.6241 -1.0951 -4.0443
38463SOL    HW221353  10.860   7.141  11.312 -0.2477 -0.9864 -0.1953
38464SOL     OW21354   0.965   2.654   4.493  0.2877 -0.0737  0.2657
38464SOL    HW121355   0.890   2.644   4.551  1.0824  0.7280  1.4910
38464SOL    HW221356   0.941   2.607   4.413 -0.6789 -1.5689  1.3902
38465SOL     OW21357  11.551   5.496   4.438  0.0883  0.9167  0.4158
38465SOL    HW121358  11.491   5.540   4.377 -2.2719 -1.9262  0.4385
38465SOL    HW221359  11.598   5.433   4.383 -0.3066  0.0111  1.0867
38466SOL     OW21360   8.611   1.547   3.213 -0.3273 -0.2591 -0.4776
38466SOL    HW121361   8.697   1.508   3.202 -0.2309 -0.7873  1.7281
38466SOL    HW221362   8.624   1.615   3.279 -2.3375 -3.6288  3.9112
38467SOL     OW21363  11.217  11.882   9.160 -0.3671  0.1730 -0.2254
38467SOL    HW121364  11.311  11.862   9.156 -0.3111 -0.0186  1.3897
38467SOL    HW221365  11.202  11.910   9.251 -1.5648  1.8454 -0.8837
38468SOL     OW21366  11.693   3.458   3.150  0.0103 -0.3875 -0.2503
38468SOL    HW121367  11.705   3.378   3.201 -1.5011 -1.1672 -1.0450
38468SOL    HW221368  11.642   3.516   3.206  0.1943 -0.3848 -0.0822
38469SOL     OW21369   0.803   1.660   8.067  0.4875 -0.1744  0.0627
38469SOL    HW121370   0.767   1.690   7.984 -0.3017  0.4583  0.6141
38469SOL    HW221371   0.848   1.578   8.046  1.9423  0.9373 -1.3165
38470SOL     OW21372   4.796   1.787   8.310  0.7014 -0.2263 -0.1822
38470SOL    HW121373   4.851   1.850   8.356  0.2507 -1.2231  1.8131
38470SOL    HW221374   4.859   1.735   8.259  1.1933  1.0104 -0.8854
38471SOL     OW21375   9.870   3.624   5.917  0.2288  0.1678  0.0671
38471SOL    HW121376   9.802   3.557   5.916  0.2438  0.1537 -0.9888
38471SOL    HW221377   9.951   3.575   5.936  0.3751 -0.2826 -1.5340
38472SOL     OW21378   8.674   2.961   5.309 -0.0713  0.6616  0.3403
38472SOL    HW121379   8.712   3.014   5.379 -0.7796 -0.6543  1.7864
38472SOL    HW221380   8.581   2.953   5.332 -0.1621 -0.4485 -0.3257
38473SOL     OW21381   8.753   2.140   9.360 -0.0254  0.2352 -1.0224
38473SOL    HW121382   8.807   2.219   9.354  0.3413 -0.1124 -2.7324
38473SOL    HW221383   8.816   2.070   9.373 -0.3927  0.2497  1.0990
38474SOL     OW21384  10.018   8.230   7.774  0.2815  0.1369  0.0355
38474SOL    HW121385  10.028   8.274   7.858 -0.4683 -0.6284  0.5408
38474SOL    HW221386  10.076   8.154   7.780  0.1368  0.0160 -0.0901
38475SOL     OW21387   5.583  11.173   1.770  0.7631 -0.4225 -0.1123
38475SOL    HW121388   5.634  11.149   1.692  0.1184 -3.8864  0.3756
38475SOL    HW221389   5.584  11.095   1.825  0.0632  1.4571  2.8012
38476SOL     OW21390   6.056  11.399   2.497 -0.1084 -0.2937 -0.5890
38476SOL    HW121391   6.144  11.398   2.459 -0.1087  0.5034 -0.6400
38476SOL    HW221392   6.041  11.310   2.527  0.8494 -0.3671 -0.2922
38477SOL     OW21393   9.578   7.279   5.238 -0.1742 -0.1160  0.3666
38477SOL    HW121394   9.546   7.304   5.325  0.5656 -0.1762  0.6594
38477SOL    HW221395   9.647   7.342   5.219 -0.0274 -0.3813  0.0132
38478SOL     OW21396   8.506  10.791   1.028 -0.7229  0.0891  0.1460
38478SOL    HW121397   8.473  10.860   0.971  0.3052  0.5458  0.0687
38478SOL    HW221398   8.514  10.714   0.972 -1.5410  0.0023  0.1476
38479SOL     OW21399   1.000   2.953  12.461 -0.3105  0.3976  0.0236
38479SOL    HW121400   0.937   2.883  12.443 -1.2567  1.3520 -0.5744
38479SOL    HW221401   1.001   3.005  12.380  1.1301  0.5019  0.0913
38480SOL     OW21402  10.535   5.485  10.986  0.5009 -0.3128  0.4639
38480SOL    HW121403  10.487   5.567  10.985  0.6918 -0.2026  0.2974
38480SOL    HW221404  10.572   5.479  11.074  0.9120  0.0275  0.3173
38481SOL     OW21405   6.059   9.027   5.397  0.2533 -0.9574  0.5846
38481SOL    HW121406   6.090   8.986   5.316 -0.1741  0.7623 -0.5015
38481SOL    HW221407   5.990   8.969   5.428  0.2227 -1.5056 -0.4537
38482SOL     OW21408   1.739   0.359   3.100 -0.6903  0.0458  0.0764
38482SOL    HW121409   1.668   0.361   3.164  0.2404 -1.1341  1.2021
38482SOL    HW221410   1.703   0.313   3.024 -1.3904  0.2429  0.2826
38483SOL     OW21411   9.469   1.701   0.696 -0.1368 -0.3516  0.4443
38483SOL    HW121412   9.424   1.779   0.727  0.1638 -0.3276  0.8255
38483SOL    HW221413   9.445   1.695   0.603 -0.0061  0.3010  0.3615
38484SOL     OW21414   6.894   9.076   7.974 -0.1103  0.7062  0.1861
38484SOL    HW121415   6.950   9.035   7.909 -1.4509 -0.7131 -0.1217
38484SOL    HW221416   6.883   9.010   8.042 -0.3997  1.4149  0.8444
38485SOL     OW21417   3.121   6.301   2.621  0.6030  0.2961 -0.2082
38485SOL    HW121418   3.029   6.321   2.601  0.4088  0.1747  0.5447
38485SOL    HW221419   3.118   6.220   2.672  1.2099 -0.2877 -1.0630
38486SOL     OW21420   5.526   2.504   1.107  0.1139 -0.2326  0.4859
38486SOL    HW121421   5.469   2.558   1.052 -2.1954 -1.3234  1.6441
38486SOL    HW221422   5.497   2.521   1.197  1.6348 -0.8632  1.1419
38487SOL     OW21423   6.709   2.055   2.172 -0.3448 -0.4177 -0.0702
38487SOL    HW121424   6.738   1.987   2.233  2.2210  1.8513  1.5131
38487SOL    HW221425   6.623   2.082   2.204 -0.4711 -1.5098  0.5393
38488SOL     OW21426   4.693   3.874   8.433 -0.6777 -1.0073  0.2008
38488SOL    HW121427   4.685   3.913   8.346  0.0352 -1.1673  0.0578
38488SOL    HW221428   4.653   3.939   8.492  1.3312  0.4265  0.0942
38489SOL     OW21429   3.611   7.345   5.811  0.1405 -0.3966 -0.1093
38489SOL    HW121430   3.573   7.423   5.852 -0.3305 -0.3520 -0.6198
38489SOL    HW221431   3.586   7.351   5.719  1.4291 -0.3520 -0.4753
38490SOL     OW21432   8.715   6.670   4.803 -0.1469 -0.1453  0.7351
38490SOL    HW121433   8.655   6.700   4.871 -0.6205  0.4842  0.0674
38490SOL    HW221434   8.686   6.582   4.781 -1.8679  0.7185 -0.6789
38491SOL     OW21435   8.022  12.016   8.311  0.1115  0.2973  0.5061
38491SOL    HW121436   8.035  12.091   8.369 -1.3270  1.3134 -0.4116
38491SOL    HW221437   8.097  11.959   8.328  0.9022  1.6275  1.7081
38492SOL     OW21438   8.728   3.139   5.507 -0.4922  0.6972  0.4291
38492SOL    HW121439   8.745   3.229   5.477 -0.4394  0.0158 -1.7623
38492SOL    HW221440   8.810   3.113   5.550 -0.9422  2.0820  2.2827
38493SOL     OW21441   0.145  10.778   5.558  0.5339 -0.1010 -0.0967
38493SOL    HW121442   0.210  10.843   5.585  0.8918 -0.4530 -0.1010
38493SOL    HW221443   0.075  10.830   5.518 -0.2047  0.4820  1.8260
38494SOL     OW21444   1.169   9.810   5.219  0.0059  0.5141  0.0031
38494SOL    HW121445   1.207   9.732   5.259 -0.3204  0.2046 -0.2777
38494SOL    HW221446   1.243   9.869   5.204  0.2794  0.1762  0.0359
38495SOL     OW21447   5.816   5.823   1.682 -0.4276  0.7329 -0.4413
38495SOL    HW121448   5.823   5.849   1.590 -0.9826  3.4965  0.2070
38495SOL    HW221449   5.785   5.901   1.727  1.1545 -0.0891  2.3333
38496SOL     OW21450   9.953   9.972   8.118  0.8231 -0.0779  0.1024
38496SOL    HW121451   9.876  10.020   8.148  0.0882 -0.1879 -1.5181
38496SOL    HW221452   9.920   9.886   8.093  1.4699 -0.1439 -0.5621
38497SOL     OW21453  11.008  12.137   8.122  0.3571  0.6730  0.0641
38497SOL    HW121454  11.051  12.105   8.043  0.5080 -1.0914  0.8048
38497SOL    HW221455  10.933  12.187   8.091  0.1725 -0.3401 -1.2031
38498SOL     OW21456   3.940  11.808   7.551 -0.3110 -0.1728  0.4801
38498SOL    HW121457   3.888  11.878   7.512  0.6527 -0.9114 -2.3455
38498SOL    HW221458   4.009  11.853   7.600  0.6338  0.9561 -1.7390
38499SOL     OW21459   3.518  10.599   1.189  0.7844  0.2053 -0.5213
38499SOL    HW121460   3.498  10.571   1.279  0.0037  1.0724 -0.4027
38499SOL    HW221461   3.581  10.670   1.200  1.1746 -0.1106 -0.7004
38500SOL     OW21462   9.508   0.775   4.575 -0.0011 -0.0450  0.1148
38500SOL    HW121463   9.418   0.794   4.548 -0.4747 -0.8849  1.0364
38500SOL    HW221464   9.518   0.820   4.659  0.0122 -0.9468  0.6117
38501SOL     OW21465   0.516   9.695   1.729  0.1997 -0.2219  0.2378
38501SOL    HW121466   0.481   9.676   1.642  0.5355  2.2964 -0.5351
38501SOL    HW221467   0.450   9.750   1.771  0.1797 -1.1480  1.4754
38502SOL     OW21468  11.574   2.068  11.825  0.2592 -0.1233 -0.0980
38502SOL    HW121469  11.582   2.121  11.904  0.3019 -2.5943  1.6711
38502SOL    HW221470  11.659   2.026  11.815 -0.5426 -1.9715  0.2459
38503SOL     OW21471   1.891   7.815   4.377 -0.6985  0.2877  0.0633
38503SOL    HW121472   1.940   7.740   4.343 -1.1518  0.7274 -1.6819
38503SOL    HW221473   1.802   7.802   4.344 -1.0611  0.9712  0.7679
38504SOL     OW21474   6.396  11.829   8.229  0.0953  0.6344  0.0727
38504SOL    HW121475   6.467  11.837   8.292  0.4445  0.6339 -0.3157
38504SOL    HW221476   6.375  11.735   8.228  0.1984  0.6106  0.0738
38505SOL     OW21477   2.649   7.223   2.304  0.1669 -0.6506  0.3215
38505SOL    HW121478   2.658   7.235   2.399  0.3113 -0.0516  0.2349
38505SOL    HW221479   2.704   7.148   2.284 -0.3728 -1.1927  0.8086
38506SOL     OW21480  10.256   6.156   0.056 -0.1867  0.0976  0.2965
38506SOL    HW121481  10.335   6.196   0.020  0.4394 -0.9946  0.4109
38506SOL    HW221482  10.187   6.176  -0.008  0.7337 -1.1138 -1.1176
38507SOL     OW21483   3.869   5.365   7.511 -0.2320 -0.3814  0.3884
38507SOL    HW121484   3.889   5.421   7.435  0.4739  0.7664  1.3740
38507SOL    HW221485   3.926   5.289   7.499 -2.2620 -1.7157 -1.7464
38508SOL     OW21486   9.055   1.793   0.892 -0.4929 -0.2120  0.1199
38508SOL    HW121487   9.127   1.825   0.946 -1.6202  0.6431  1.1746
38508SOL    HW221488   9.095   1.729   0.833  1.0673  0.0697  0.8366
38509SOL     OW21489  10.661   8.795   4.194  0.4500  0.3615  0.3597
38509SOL    HW121490  10.681   8.854   4.266  2.2240  0.5362 -0.2364
38509SOL    HW221491  10.572   8.765   4.211 -0.2692  2.7124  1.0209
38510SOL     OW21492   1.928  12.258   5.733  0.4864 -0.6512  0.0941
38510SOL    HW121493   1.954  12.342   5.771  0.7293 -0.9438  0.5890
38510SOL    HW221494   2.002  12.232   5.679 -0.0526 -0.0058 -0.9867
38511SOL     OW21495   8.029   5.149   4.495 -0.1240  0.0732 -0.5241
38511SOL    HW121496   8.003   5.062   4.465 -1.1474  0.2561 -0.2211
38511SOL    HW221497   8.092   5.133   4.565 -0.4333 -0.4317 -0.3586
38512SOL     OW21498   9.711   6.836  10.467  0.6135  0.3550 -0.3185
38512SOL    HW121499   9.779   6.847  10.400  0.1916  0.9575 -0.6491
38512SOL    HW221500   9.673   6.750  10.448  1.2176  0.0466 -0.1807
38513SOL     OW21501  10.390   0.711   2.211 -0.4370  0.3278  0.3955
38513SOL    HW121502  10.299   0.720   2.183 -1.1111 -0.9590  2.0213
38513SOL    HW221503  10.412   0.796   2.248 -0.4342  1.1395 -1.3581
38514SOL     OW21504  10.312   2.392   1.607 -0.0685 -0.1681 -0.5859
38514SOL    HW121505  10.372   2.359   1.540 -1.2516 -0.4321 -1.5526
38514SOL    HW221506  10.259   2.316   1.631 -0.2919  0.1520 -0.0492
38515SOL     OW21507   0.528   3.361  11.353  0.5053  0.0405  0.4394
38515SOL    HW121508   0.531   3.369  11.258 -0.4148  0.3977  0.4262
38515SOL    HW221509   0.483   3.440  11.382  1.6109  0.4034  1.2563
38516SOL     OW21510  10.005  12.076   8.561  0.0647  0.2297  0.2712
38516SOL    HW121511  10.012  11.981   8.567 -0.8171  0.2088  1.0638
38516SOL    HW221512  10.053  12.098   8.481  2.2064 -0.6506  1.2244
38517SOL     OW21513   3.594   3.515   6.161 -0.2639 -0.1010  0.5827
38517SOL    HW121514   3.644   3.434   6.173  1.4907  0.5741 -1.4888
38517SOL    HW221515   3.530   3.494   6.093 -1.7829 -0.4882  2.0636
38518SOL     OW21516   6.976   4.660  11.746  0.5887 -0.0808 -0.5334
38518SOL    HW121517   7.005   4.724  11.812  1.0002 -0.7079 -0.0947
38518SOL    HW221518   6.999   4.700  11.662 -0.7495  1.1301 -0.3601
38519SOL     OW21519   2.743   8.570   1.332  0.4703 -0.4055  0.1940
38519SOL    HW121520   2.780   8.483   1.346 -0.9048 -1.2336 -0.9968
38519SOL    HW221521   2.753   8.585   1.238 -1.1017 -0.1706  0.0314
38520SOL     OW21522   0.225   0.359   4.820 -0.3935 -0.3307 -0.0358
38520SOL    HW121523   0.202   0.365   4.913 -1.5106  2.5927 -0.3815
38520SOL    HW221524   0.148   0.320   4.779 -0.8455  0.4943  0.0102
38521SOL     OW21525   7.978   7.560   6.890  0.1241 -0.6281  0.2695
38521SOL    HW121526   8.018   7.602   6.967 -0.7771 -0.5414  0.7078
38521SOL    HW221527   7.890   7.597   6.886 -0.2781 -1.5967 -0.0507
38522SOL     OW21528   1.697  11.252   7.412  0.3713 -0.2562 -0.3616
38522SOL    HW121529   1.636  11.272   7.341  0.9693  0.0502 -0.7990
38522SOL    HW221530   1.686  11.325   7.473 -1.7310 -1.5823  0.9875
38523SOL     OW21531   0.782   9.555   5.818 -0.4032 -0.2737  0.3794
38523SOL    HW121532   0.700   9.540   5.770 -0.5388 -2.8879  1.2770
38523SOL    HW221533   0.757   9.615   5.888 -1.0897  0.4552 -0.4554
38524SOL     OW21534   1.395   9.877  12.127 -0.0387 -0.3602  0.3428
38524SOL    HW121535   1.316   9.830  12.151 -0.1510  0.3308  1.4069
38524SOL    HW221536   1.466   9.830  12.172  0.1504 -0.9092 -0.5126
38525SOL     OW21537   8.736  11.220   5.860  0.4476  0.0052  0.2250
38525SOL    HW121538   8.747  11.212   5.955 -1.2263  1.9436  0.6570
38525SOL    HW221539   8.729  11.129   5.830 -0.6871 -0.6526  2.2207
38526SOL     OW21540   5.289  10.053  11.569  0.1197 -0.0362 -0.5007
38526SOL    HW121541   5.374  10.055  11.526  1.4942  4.3444  1.7890
38526SOL    HW221542   5.228  10.086  11.503  0.1091 -2.6963 -1.9796
38527SOL     OW21543   5.310   1.536   2.989  0.0287  0.0959 -0.3407
38527SOL    HW121544   5.270   1.575   2.912  2.2729  0.0863 -1.5885
38527SOL    HW221545   5.239   1.532   3.054 -1.7089  0.8229 -2.1140
38528SOL     OW21546   6.554   8.007   4.728 -0.0299  0.3485 -0.0895
38528SOL    HW121547   6.472   8.047   4.757 -1.0801  1.3820 -3.8966
38528SOL    HW221548   6.622   8.055   4.775 -1.4932  1.8982  0.5630
38529SOL     OW21549  10.285   3.584  10.937  0.2427  0.1669 -0.8011
38529SOL    HW121550  10.273   3.515  11.002 -0.5720  0.3588 -0.7360
38529SOL    HW221551  10.256   3.546  10.854 -1.6934  0.8866 -0.5044
38530SOL     OW21552   3.059   4.777   4.894  0.1206 -0.5685 -0.1199
38530SOL    HW121553   3.065   4.870   4.872  0.9847 -0.2122  1.4334
38530SOL    HW221554   3.005   4.739   4.825 -0.6448  1.1712 -0.5398
38531SOL     OW21555   3.437   8.704   9.016  0.2045 -0.2017  0.1141
38531SOL    HW121556   3.519   8.673   9.054  0.2299 -1.0712 -0.6193
38531SOL    HW221557   3.368   8.657   9.063  0.2901 -3.1165 -2.3433
38532SOL     OW21558   1.933   2.004   9.875  0.5421 -0.3205 -0.3939
38532SOL    HW121559   1.898   1.973   9.958 -0.0473  1.2742 -0.0038
38532SOL    HW221560   1.937   1.926   9.819 -0.6225 -1.1078  0.5881
38533SOL     OW21561  10.858   2.607   0.619 -0.4706 -0.3479  0.3120
38533SOL    HW121562  10.895   2.574   0.701  0.2687 -0.2309  0.0266
38533SOL    HW221563  10.792   2.542   0.595 -0.8477 -0.2810  1.1010
38534SOL     OW21564   2.971   0.369   1.807 -0.4487 -0.5925 -0.3813
38534SOL    HW121565   3.065   0.354   1.797 -0.6133 -0.8669 -1.8619
38534SOL    HW221566   2.944   0.310   1.877  0.6729  0.3710  0.9025
38535SOL     OW21567   4.185   8.460   6.866 -0.3585  0.0336  0.6247
38535SOL    HW121568   4.122   8.472   6.794 -0.2784 -0.0843  0.5334
38535SOL    HW221569   4.149   8.511   6.938 -0.7922 -0.3906  0.7145
38536SOL     OW21570   0.140   9.824   1.135  0.6527 -0.3652  0.0722
38536SOL    HW121571   0.211   9.840   1.072  0.7766  1.1254  0.5691
38536SOL    HW221572   0.133   9.905   1.185 -0.5903 -0.9310  0.8583
38537SOL     OW21573   9.176  10.962   4.897 -0.0236 -0.5230 -0.2495
38537SOL    HW121574   9.109  10.948   4.964 -1.0169 -2.4901 -1.5619
38537SOL    HW221575   9.126  10.971   4.816  1.2059  0.6683 -0.9028
38538SOL     OW21576   0.815   2.484   0.306 -0.1830 -0.2853  0.0331
38538SOL    HW121577   0.862   2.500   0.224 -0.3642  1.0724  0.1661
38538SOL    HW221578   0.725   2.513   0.288 -0.1587  0.2786  0.7778
38539SOL     OW21579   8.305   9.979   8.377  0.6671  0.3535  0.1657
38539SOL    HW121580   8.299   9.884   8.387  1.1103  0.2268 -0.6494
38539SOL    HW221581   8.240   9.999   8.309  2.7207  0.1909 -1.9662
38540SOL     OW21582   7.131   2.931   6.147  0.4465  0.1093  0.1330
38540SOL    HW121583   7.196   2.907   6.081 -1.4897 -0.3502 -1.7314
38540SOL    HW221584   7.170   2.905   6.230  1.7458 -2.1896 -1.0977
38541SOL     OW21585   5.879  10.670  11.345  0.1340 -0.2032 -0.5662
38541SOL    HW121586   5.844  10.758  11.357 -3.1439 -1.2455 -1.3200
38541SOL    HW221587   5.916  10.646  11.430 -0.6922  1.1846  0.2209
38542SOL     OW21588   0.742   1.086   7.518  0.5085  0.0235  0.9310
38542SOL    HW121589   0.811   1.036   7.473  1.3481  0.8130  1.3102
38542SOL    HW221590   0.716   1.153   7.456 -0.5148 -0.7494  0.4811
38543SOL     OW21591   2.011   7.026  12.301  0.0757 -0.0893  0.0016
38543SOL    HW121592   2.006   7.121  12.300  0.9545 -0.0383 -0.1733
38543SOL    HW221593   2.095   7.006  12.261 -0.8478 -1.0019 -1.5772
38544SOL     OW21594   5.185   5.256   0.530  0.5985 -0.5059  0.4328
38544SOL    HW121595   5.267   5.277   0.486 -0.1314 -0.5663 -1.0013
38544SOL    HW221596   5.203   5.173   0.575  1.2523 -0.6320 -0.0492
38545SOL     OW21597  11.972   9.468   2.162  0.1545 -0.1407 -0.1834
38545SOL    HW121598  11.911   9.500   2.096 -0.2142 -0.7830 -0.1577
38545SOL    HW221599  12.033   9.411   2.113  0.5172  0.2135 -0.1482
38546SOL     OW21600   6.014   0.158   0.222 -0.0375  0.1678  0.4868
38546SOL    HW121601   6.076   0.189   0.288  1.3939 -2.0182  0.2875
38546SOL    HW221602   6.069   0.121   0.153 -1.5368  0.7370 -1.0911
38547SOL     OW21603  10.410   8.750   7.069  0.1129  0.0721 -0.5793
38547SOL    HW121604  10.454   8.675   7.030  1.5389 -0.9215  2.6756
38547SOL    HW221605  10.478   8.817   7.077 -0.4787  0.7340 -0.8573
38548SOL     OW21606   8.162   3.170   0.025 -0.3505 -0.2939  0.2013
38548SOL    HW121607   8.152   3.264   0.041  0.3670 -0.2773  0.5981
38548SOL    HW221608   8.100   3.151  -0.045  0.0419  0.6243 -0.4129
38549SOL     OW21609   7.722   2.543   7.883 -0.3295  0.2841  0.4063
38549SOL    HW121610   7.632   2.576   7.889  0.5217  2.4523  3.0846
38549SOL    HW221611   7.718   2.455   7.920 -1.5946 -0.3939 -1.1965
38550SOL     OW21612   0.528   5.604   7.996 -0.6323 -0.0855  0.5347
38550SOL    HW121613   0.516   5.699   7.995 -1.8460 -0.1680 -2.0075
38550SOL    HW221614   0.598   5.588   7.933 -0.4707 -0.8874  0.9081
38551SOL     OW21615   9.587  11.647   6.874 -0.7880  0.0975  0.3509
38551SOL    HW121616   9.499  11.630   6.909 -1.1715 -0.0480 -0.6212
38551SOL    HW221617   9.640  11.574   6.905 -1.0910  0.0254  0.6971
38552SOL     OW21618   2.497  12.089   8.167 -0.4954  0.2346 -0.5499
38552SOL    HW121619   2.429  12.106   8.231 -2.0511  0.6781 -2.2347
38552SOL    HW221620   2.466  12.013   8.119  0.3347  0.2817 -1.1913
38553SOL     OW21621   1.944   7.098   9.434 -0.0493 -0.2363 -0.0334
38553SOL    HW121622   1.883   7.024   9.435 -2.3239  1.5073  2.0048
38553SOL    HW221623   1.995   7.088   9.514 -0.0593  0.1749  0.0246
38554SOL     OW21624   8.035   0.553  10.368 -0.0384 -0.4376 -0.5437
38554SOL    HW121625   7.973   0.519  10.304 -0.8309  1.0040 -0.6003
38554SOL    HW221626   8.002   0.523  10.452  1.2610 -2.7283 -0.7717
38555SOL     OW21627   5.784   8.636   2.050  0.1768  0.2865  0.3103
38555SOL    HW121628   5.845   8.641   1.977 -1.0945 -0.1406 -0.8076
38555SOL    HW221629   5.840   8.645   2.128  1.7762 -0.9482 -0.6253
38556SOL     OW21630   0.691  12.225   1.572 -0.0160 -0.4625 -0.3510
38556SOL    HW121631   0.727  12.313   1.560 -0.6294  0.2634  2.4118
38556SOL    HW221632   0.766  12.172   1.597 -0.2431  0.3817  2.4660
38557SOL     OW21633   0.724   3.364   9.674  0.1237 -0.2005 -0.2272
38557SOL    HW121634   0.648   3.344   9.729 -0.6657  0.1225 -1.1574
38557SOL    HW221635   0.721   3.459   9.663  0.8960 -0.1389  0.0328
38558SOL     OW21636   3.518   3.963   4.487  0.2122 -0.0455  0.2714
38558SOL    HW121637   3.563   4.028   4.541 -0.7173  0.4814  0.4261
38558SOL    HW221638   3.588   3.905   4.456  0.8482  0.0980  1.4041
38559SOL     OW21639   1.340   3.545   3.968 -0.0311 -0.2719  0.0573
38559SOL    HW121640   1.290   3.620   3.936  0.3881 -1.1440 -2.9505
38559SOL    HW221641   1.423   3.583   3.998 -0.0104  0.5302 -0.9755
38560SOL     OW21642   9.772   7.902   9.914  0.3956 -0.2493 -0.2359
38560SOL    HW121643   9.777   7.998   9.920  0.4145 -0.2072 -0.8454
38560SOL    HW221644   9.710   7.886   9.843 -1.3996 -0.7171  1.3668
38561SOL     OW21645   1.429   3.435   3.390 -0.2971  0.2267 -0.2827
38561SOL    HW121646   1.448   3.363   3.450  0.6143 -0.2207 -1.0800
38561SOL    HW221647   1.333   3.436   3.384 -0.3681 -0.2462  0.5312
38562SOL     OW21648  12.248   5.277   8.554  0.2222 -0.8482 -0.2944
38562SOL    HW121649  12.305   5.216   8.507  0.1974 -1.2719  0.2243
38562SOL    HW221650  12.282   5.277   8.643 -1.4280 -2.1534  0.3765
38563SOL     OW21651   2.637   5.125  11.434 -0.0359  0.7213  0.6029
38563SOL    HW121652   2.614   5.138  11.342 -1.4551  3.0280  1.2083
38563SOL    HW221653   2.619   5.032  11.450  1.5521 -0.0851 -1.7318
38564SOL     OW21654   5.448  11.234   3.273  0.4370  0.5331 -0.1636
38564SOL    HW121655   5.541  11.222   3.252  0.1267  0.9677 -1.9311
38564SOL    HW221656   5.405  11.240   3.188 -1.2306  0.3046  0.6283
38565SOL     OW21657   5.787   0.095   7.350  0.3043 -0.7065  0.1089
38565SOL    HW121658   5.707   0.043   7.360  0.3883 -0.9265 -0.3394
38565SOL    HW221659   5.791   0.148   7.429  0.3540 -1.5712  0.7005
38566SOL     OW21660   0.715   8.577   5.633  0.4740 -0.3074  0.0037
38566SOL    HW121661   0.630   8.594   5.593  0.6106 -1.4375 -0.8530
38566SOL    HW221662   0.704   8.598   5.725 -0.3209  0.8950 -0.3465
38567SOL     OW21663   2.616  12.185   4.482  0.1299 -0.2193  0.6098
38567SOL    HW121664   2.704  12.219   4.466 -0.3611  0.7667 -0.0517
38567SOL    HW221665   2.605  12.114   4.419  0.8341 -1.0662  1.4111
38568SOL     OW21666   8.010   6.477   6.183  0.0286 -0.3618 -0.6732
38568SOL    HW121667   8.056   6.504   6.104 -0.5872 -2.3646 -1.7987
38568SOL    HW221668   8.011   6.554   6.240  0.6757  1.0666 -2.5387
38569SOL     OW21669   0.618   3.230  12.340  0.0238 -0.4239 -0.1991
38569SOL    HW121670   0.628   3.234  12.435  3.4196 -1.4719 -0.3678
38569SOL    HW221671   0.597   3.138  12.322  1.3653 -0.6913 -0.5155
38570SOL     OW21672   8.117   4.157   5.992 -0.3674  0.3971 -0.4379
38570SOL    HW121673   8.081   4.244   5.971 -1.3066  0.1178 -0.0646
38570SOL    HW221674   8.144   4.165   6.084 -0.2199  0.3673 -0.4791
38571SOL     OW21675   4.321  10.929   2.389 -0.3389  0.5941  0.2657
38571SOL    HW121676   4.331  10.921   2.484 -0.9819 -1.2113  0.2119
38571SOL    HW221677   4.387  10.870   2.353 -2.4326 -1.5700 -0.2998
38572SOL     OW21678   0.583   1.742   5.453  0.1677  0.2192 -0.2928
38572SOL    HW121679   0.518   1.801   5.491  0.0831 -0.3237  0.4271
38572SOL    HW221680   0.644   1.800   5.408  0.3148  0.9081  0.7534
38573SOL     OW21681   4.652   0.931  10.667 -0.1230 -0.2427 -0.1218
38573SOL    HW121682   4.586   0.973  10.611 -0.4136  0.5000  0.7557
38573SOL    HW221683   4.602   0.868  10.720  0.3302 -1.8774 -1.5421
38574SOL     OW21684   7.461   2.412   3.009  1.1500 -0.6460 -0.3539
38574SOL    HW121685   7.545   2.444   3.041  0.3727 -0.3969  1.5791
38574SOL    HW221686   7.465   2.317   3.022  0.0600 -0.4099  2.8365
38575SOL     OW21687   3.949   0.085   5.311 -0.1450  0.1152  0.4228
38575SOL    HW121688   3.868   0.041   5.287 -0.4152  0.5492  0.5365
38575SOL    HW221689   3.956   0.073   5.406  0.9893 -1.7142  0.1619
38576SOL     OW21690   0.751   5.847  11.570 -0.4030  0.2510  0.2153
38576SOL    HW121691   0.770   5.879  11.658 -1.5776 -1.1689  1.0355
38576SOL    HW221692   0.828   5.872  11.518 -0.1800  2.1323  1.3357
38577SOL     OW21693  12.116   1.233   3.661 -0.1200 -0.6208 -0.8018
38577SOL    HW121694  12.166   1.162   3.703  1.9269  0.8037 -0.6772
38577SOL    HW221695  12.101   1.296   3.732  0.0412  0.0692 -1.3694
38578SOL     OW21696   4.817   8.824   0.595 -0.0721 -0.3865  0.0943
38578SOL    HW121697   4.864   8.751   0.554  0.0110 -0.9651  1.1748
38578SOL    HW221698   4.870   8.848   0.670 -0.3086  0.5387 -0.0174
38579SOL     OW21699  12.070   5.334   1.194  0.0605  0.3692 -0.3474
38579SOL    HW121700  12.098   5.288   1.116  1.9201  0.5843  0.1548
38579SOL    HW221701  12.088   5.426   1.177  3.7792  0.1624  1.5028
38580SOL     OW21702   3.102  11.912   0.387  0.1103  0.5005  0.2856
38580SOL    HW121703   3.061  11.964   0.456 -1.1283 -1.5888  1.2208
38580SOL    HW221704   3.072  11.954   0.306 -0.6927  1.3596  0.9979
38581SOL     OW21705   2.197  10.786   1.960 -0.3154  0.4123 -0.0503
38581SOL    HW121706   2.169  10.826   1.877 -0.5690 -0.3293 -0.3329
38581SOL    HW221707   2.116  10.756   2.001 -0.3056  1.7770  1.0191
38582SOL     OW21708  11.812   2.718   0.195 -0.0588 -0.1894 -0.2934
38582SOL    HW121709  11.746   2.745   0.259 -0.2572 -0.7729 -0.2531
38582SOL    HW221710  11.782   2.633   0.163  0.6909 -0.4794 -0.2463
38583SOL     OW21711   4.660   9.732   6.314 -0.6523 -0.0807 -0.6797
38583SOL    HW121712   4.627   9.648   6.346 -1.4156  0.1277 -0.9122
38583SOL    HW221713   4.657   9.790   6.390  0.2295 -0.3478 -0.4197
38584SOL     OW21714   9.677   6.706   8.118  0.1067 -0.1936  0.3157
38584SOL    HW121715   9.768   6.679   8.129  0.2153 -0.9390 -1.8463
38584SOL    HW221716   9.670   6.729   8.025 -2.2307 -1.4877  0.0845
38585SOL     OW21717   2.762   8.251   8.938  0.3535  0.2034 -0.6319
38585SOL    HW121718   2.782   8.315   8.870 -2.2995  0.5167 -1.1967
38585SOL    HW221719   2.700   8.295   8.996  3.3768  0.3919  2.8309
38586SOL     OW21720   9.821   7.239   2.463  0.2495  0.1266 -0.1521
38586SOL    HW121721   9.810   7.284   2.379 -0.2934 -0.7518 -0.5727
38586SOL    HW221722   9.903   7.191   2.454  0.5448  0.5843  0.0842
38587SOL     OW21723   7.112  10.423  12.193 -0.3558 -0.0309  0.0755
38587SOL    HW121724   7.037  10.383  12.147 -0.4650  1.7088 -1.3518
38587SOL    HW221725   7.074  10.496  12.242  0.0435 -0.7735  1.5413
38588SOL     OW21726   9.310  11.390   2.948  0.1624 -0.3863 -0.2982
38588SOL    HW121727   9.374  11.342   2.895  0.0915 -1.2219  0.3528
38588SOL    HW221728   9.354  11.404   3.032  1.4513  3.6018 -1.4429
38589SOL     OW21729   1.851  11.816  10.104 -1.0094 -0.2075  0.0744
38589SOL    HW121730   1.845  11.855  10.017  0.1263  0.5476  0.3109
38589SOL    HW221731   1.880  11.888  10.160  0.0491 -1.1161  0.7417
38590SOL     OW21732   8.340   0.458  11.507  0.3880 -0.4270  0.0143
38590SOL    HW121733   8.338   0.364  11.523  3.8846 -0.5056  0.7259
38590SOL    HW221734   8.342   0.497  11.594 -1.6966  0.4314 -0.2556
38591SOL     OW21735   5.858   3.934   0.090 -0.3175 -0.1059 -0.7964
38591SOL    HW121736   5.900   3.944   0.005 -2.0571 -0.7795 -1.7973
38591SOL    HW221737   5.864   3.840   0.108  1.4411  0.2361  0.6294
38592SOL     OW21738   9.407   9.380   9.637  0.3774 -0.3310 -0.9426
38592SOL    HW121739   9.323   9.388   9.683  1.0554  0.5461  0.2051
38592SOL    HW221740   9.435   9.290   9.653  0.9838  0.1741  1.1360
38593SOL     OW21741   8.493  11.038   5.169 -0.1126 -0.2597  0.0423
38593SOL    HW121742   8.567  11.003   5.219 -0.1226 -0.8287 -0.3272
38593SOL    HW221743   8.525  11.042   5.079  0.5474  2.5037  0.2987
38594SOL     OW21744   6.919   6.670  11.079  0.5095 -0.1818 -0.8101
38594SOL    HW121745   6.851   6.632  11.134  0.3300  0.7529 -0.3682
38594SOL    HW221746   6.957   6.740  11.132  0.8882  0.1998 -1.5648
38595SOL     OW21747  11.986  10.632  11.327  0.4897 -0.1175  0.3772
38595SOL    HW121748  12.013  10.721  11.350 -0.3765  0.2848 -0.1295
38595SOL    HW221749  11.997  10.628  11.232  1.0245 -0.7306  0.4597
38596SOL     OW21750   8.492  10.305   2.555  0.1858  0.1668 -0.1917
38596SOL    HW121751   8.471  10.389   2.596 -2.7167 -0.0431 -0.9723
38596SOL    HW221752   8.457  10.239   2.615  0.3404 -0.3629 -0.6698
38597SOL     OW21753  10.803  12.331   0.382  0.4714  0.1326  0.0358
38597SOL    HW121754  10.894  12.358   0.370  0.3274  0.7734  0.3567
38597SOL    HW221755  10.778  12.292   0.298  1.0464 -0.0793 -0.0434
38598SOL     OW21756  10.571   9.470   7.269 -0.2830 -0.2727 -0.9570
38598SOL    HW121757  10.511   9.406   7.308 -0.0191 -0.5653 -1.0283
38598SOL    HW221758  10.538   9.482   7.180 -0.5599 -0.0196 -0.8231
38599SOL     OW21759   1.682  12.049   0.782  0.0294  0.2671 -0.2230
38599SOL    HW121760   1.719  12.110   0.719 -0.6109  1.1062  0.2030
38599SOL    HW221761   1.590  12.040   0.756 -0.9250  2.5661  2.0152
38600SOL     OW21762   6.019   3.423   1.689 -0.0179  0.4131 -0.0473
38600SOL    HW121763   6.026   3.354   1.755  2.0904  0.4515 -0.1592
38600SOL    HW221764   6.088   3.485   1.712 -1.4155  2.1590 -0.3533
38601SOL     OW21765   8.556   2.777  11.876 -0.0222 -0.1185  0.0873
38601SOL    HW121766   8.463   2.757  11.880 -0.1740  0.6854  0.7663
38601SOL    HW221767   8.562   2.858  11.826  0.3319 -0.2892 -0.1525
38602SOL     OW21768   3.006   6.667   9.056 -0.5071  0.0176  0.1402
38602SOL    HW121769   3.026   6.595   8.996  0.3810  0.3931 -0.0303
38602SOL    HW221770   2.970   6.624   9.134  0.0835 -0.6140  0.0708
38603SOL     OW21771   1.145   3.811   5.538  0.2011 -0.1206  0.6861
38603SOL    HW121772   1.084   3.866   5.588  0.7090  0.2500  0.9123
38603SOL    HW221773   1.208   3.780   5.604  1.8726  1.7255  0.0359
38604SOL     OW21774   0.836  10.339   5.016  0.1765 -0.2699  0.1001
38604SOL    HW121775   0.775  10.320   4.944 -0.9214  0.8083  0.7134
38604SOL    HW221776   0.784  10.330   5.095  0.6333  1.2604  0.6093
38605SOL     OW21777  11.575   7.624   2.460 -0.1680  0.2511  0.2582
38605SOL    HW121778  11.580   7.639   2.366 -0.4926 -0.7661  0.0653
38605SOL    HW221779  11.544   7.708   2.496 -1.8030  0.1325 -0.7394
38606SOL     OW21780   3.897   5.533  10.535 -0.2927 -0.2631 -0.1265
38606SOL    HW121781   3.817   5.492  10.566 -0.5940  0.5568  0.2103
38606SOL    HW221782   3.892   5.623  10.567  1.0589 -0.3625  0.4639
38607SOL     OW21783   5.397   6.649   4.009  0.1599  0.0113 -0.1789
38607SOL    HW121784   5.400   6.581   4.077 -2.2942 -0.9907 -0.9881
38607SOL    HW221785   5.415   6.730   4.056 -0.0013 -0.8224  1.3899
38608SOL     OW21786   8.524   8.024  11.286  0.1386 -0.1154  0.1123
38608SOL    HW121787   8.474   7.961  11.336  0.3886 -1.0609 -0.8026
38608SOL    HW221788   8.473   8.105  11.291  1.0485  0.4075  3.4154
38609SOL     OW21789   2.867   1.664   0.056 -0.1528  0.0130 -0.6028
38609SOL    HW121790   2.875   1.672   0.151 -0.4398 -0.1688 -0.5624
38609SOL    HW221791   2.774   1.676   0.038 -0.2396 -0.8673 -0.7665
38610SOL     OW21792  12.431   4.277   5.971 -0.2059  0.3425  0.1890
38610SOL    HW121793  12.355   4.312   5.925  1.9327  2.3785 -2.1050
38610SOL    HW221794  12.443   4.190   5.934 -0.8796  0.3618 -0.0914
38611SOL     OW21795   8.383   5.946  10.624 -0.3079  0.1522 -0.5213
38611SOL    HW121796   8.458   5.887  10.627 -0.1358  0.4024  0.1685
38611SOL    HW221797   8.411   6.018  10.568 -0.2270 -0.0165 -0.6992
38612SOL     OW21798   8.656   7.213   4.727  0.1148  0.1637 -0.3853
38612SOL    HW121799   8.562   7.228   4.717  0.2439  1.2635 -0.0205
38612SOL    HW221800   8.662   7.121   4.754 -0.7684 -0.2703 -1.5298
38613SOL     OW21801   4.708   6.783   8.818  0.8991 -0.1941  0.5673
38613SOL    HW121802   4.750   6.769   8.732 -2.3189 -2.2666 -0.8554
38613SOL    HW221803   4.728   6.874   8.839  3.5566 -0.1961 -1.3107
38614SOL     OW21804   9.341   0.426   4.683 -0.3772 -0.7058 -0.0340
38614SOL    HW121805   9.289   0.424   4.603 -0.2858 -2.0833 -0.0692
38614SOL    HW221806   9.278   0.415   4.754 -0.2225 -1.6234 -0.0357
38615SOL     OW21807   8.240   8.355   8.772 -0.2501 -0.0660 -0.3013
38615SOL    HW121808   8.271   8.443   8.793  4.0526 -1.4058  0.0251
38615SOL    HW221809   8.296   8.326   8.700 -1.5233 -2.5377 -0.4085
38616SOL     OW21810   4.552   3.021   9.081  0.3821  0.2289  0.9461
38616SOL    HW121811   4.541   3.091   9.145 -0.0174  0.7404  0.3272
38616SOL    HW221812   4.537   3.063   8.997 -1.3338 -0.8883  0.6353
38617SOL     OW21813   6.355   6.179   2.235 -0.5771 -0.5214 -0.3283
38617SOL    HW121814   6.436   6.230   2.236 -0.3077 -0.9423  0.3639
38617SOL    HW221815   6.326   6.181   2.143  0.9087 -1.4344 -0.8583
38618SOL     OW21816   2.599  12.156   8.529 -0.0837  0.7637  0.0939
38618SOL    HW121817   2.678  12.122   8.486 -0.4949  0.3616 -0.3587
38618SOL    HW221818   2.574  12.086   8.591 -1.0783  0.0900 -1.0198
38619SOL     OW21819   0.061   3.909   5.407  0.2837 -0.1143 -0.5664
38619SOL    HW121820  -0.020   3.949   5.375  0.2536  0.3505  0.0932
38619SOL    HW221821   0.036   3.866   5.489  0.6465 -0.2030 -0.5022
38620SOL     OW21822   9.173   7.883   4.593  0.7785 -0.2514  0.6973
38620SOL    HW121823   9.240   7.926   4.540 -0.3448 -0.9434 -1.4388
38620SOL    HW221824   9.149   7.805   4.542 -1.7587  0.0751  1.2527
38621SOL     OW21825   3.192  12.475   7.208  0.4391 -0.5301 -0.2730
38621SOL    HW121826   3.173  12.545   7.270  1.3470  0.1793 -0.7678
38621SOL    HW221827   3.157  12.396   7.249 -2.2475  0.4392 -0.5218
38622SOL     OW21828   5.907   8.452   4.726 -0.1365  0.2777  0.0075
38622SOL    HW121829   5.851   8.396   4.780  0.9370  0.3846  1.2692
38622SOL    HW221830   5.939   8.519   4.786 -0.6035  1.6835 -1.2471
38623SOL     OW21831   1.616   9.611   3.363 -0.0849 -0.3450 -0.4695
38623SOL    HW121832   1.621   9.532   3.417 -1.6469 -0.9287 -1.1113
38623SOL    HW221833   1.707   9.635   3.347  0.4240 -1.0104  1.1575
38624SOL     OW21834   2.032   5.622   0.644 -0.2443  0.3202 -0.2828
38624SOL    HW121835   2.027   5.633   0.739  0.3839  0.8223 -0.2995
38624SOL    HW221836   2.115   5.576   0.629 -0.5029 -0.0614 -0.5661
38625SOL     OW21837  10.170   3.236   6.810  0.8682  0.4636  0.3204
38625SOL    HW121838  10.105   3.173   6.779  0.8011  1.1703 -1.0467
38625SOL    HW221839  10.138   3.263   6.897 -0.4628  0.4954 -0.1580
38626SOL     OW21840   3.630   7.278   2.748 -0.2808 -0.0617 -0.2861
38626SOL    HW121841   3.718   7.245   2.730  0.3758  1.6504 -0.4907
38626SOL    HW221842   3.615   7.259   2.840  0.5562  0.1294 -0.0995
38627SOL     OW21843   5.212  10.325   6.406 -0.0198 -0.1855  0.6640
38627SOL    HW121844   5.131  10.293   6.446 -0.3113 -1.5668 -0.9250
38627SOL    HW221845   5.253  10.377   6.475 -0.3411 -2.6631  2.9248
38628SOL     OW21846   3.568   7.142   3.079  0.2726  0.2141  0.0870
38628SOL    HW121847   3.537   7.114   3.165 -2.6499  0.7541 -0.6523
38628SOL    HW221848   3.541   7.071   3.020  0.7796  0.5845 -0.6057
38629SOL     OW21849   0.855   3.717   7.705 -0.0401 -0.2954  0.3029
38629SOL    HW121850   0.901   3.718   7.622  0.4373 -1.0751  0.5572
38629SOL    HW221851   0.911   3.767   7.765  0.0514 -0.4953  0.3853
38630SOL     OW21852   7.730   1.013  11.297 -0.1591 -0.3493  0.1048
38630SOL    HW121853   7.735   1.091  11.351 -1.9403 -3.0150  4.7096
38630SOL    HW221854   7.817   0.974  11.304 -0.0267 -0.0774 -0.0096
38631SOL     OW21855   1.001   0.561  11.797 -0.4500  0.2526  0.1616
38631SOL    HW121856   0.947   0.483  11.795  0.9050 -0.7112 -0.1843
38631SOL    HW221857   1.050   0.554  11.879 -0.2478  0.6869  0.0798
38632SOL     OW21858   2.809  10.912  10.097  0.5587 -0.0708  0.2601
38632SOL    HW121859   2.855  10.829  10.100  1.5891  0.3763 -1.4716
38632SOL    HW221860   2.739  10.899  10.032 -1.4862 -0.5641  2.4326
38633SOL     OW21861  12.408   6.353   2.403 -0.2193  0.4121 -0.2255
38633SOL    HW121862  12.345   6.376   2.335 -0.5109  0.1121 -0.0628
38633SOL    HW221863  12.357   6.355   2.484  0.5727  2.8643  0.3084
38634SOL     OW21864   4.596  11.046   4.630  0.0592 -0.2840 -0.5257
38634SOL    HW121865   4.585  10.997   4.548 -0.6569  0.5622 -0.9555
38634SOL    HW221866   4.625  11.133   4.602  3.6872 -1.0351  0.3226
38635SOL     OW21867  12.182   1.017   6.277  0.0847 -0.5113  0.6703
38635SOL    HW121868  12.128   1.019   6.198  0.4150 -1.2459  0.4196
38635SOL    HW221869  12.236   0.939   6.268 -1.5868 -2.0333  2.7287
38636SOL     OW21870   6.641   8.543   6.927 -0.4489 -0.5877 -0.7784
38636SOL    HW121871   6.724   8.545   6.881 -0.3432 -0.9637 -0.6032
38636SOL    HW221872   6.664   8.553   7.019 -0.5588 -1.1562 -0.6845
38637SOL     OW21873   0.262  11.525   4.061 -0.1907  0.4098 -0.6832
38637SOL    HW121874   0.264  11.603   4.007  0.8337  0.6029 -0.3809
38637SOL    HW221875   0.247  11.453   4.000 -0.2334  0.7488 -1.0714
38638SOL     OW21876   2.131  10.600  12.162 -0.6385  0.2573 -0.9868
38638SOL    HW121877   2.209  10.550  12.135 -0.4287  0.7747 -1.3567
38638SOL    HW221878   2.071  10.533  12.195 -1.0435 -0.4766 -3.0458
38639SOL     OW21879   7.992  11.413  11.080 -0.0366 -0.0188  0.3475
38639SOL    HW121880   7.942  11.348  11.127 -0.6097  1.0554  1.2768
38639SOL    HW221881   8.024  11.368  11.002 -2.7644 -0.6637 -0.5040
38640SOL     OW21882   7.623  11.295   2.309 -0.1411 -0.2069 -0.3228
38640SOL    HW121883   7.568  11.264   2.237 -0.5616  0.8679 -0.4903
38640SOL    HW221884   7.690  11.348   2.266 -0.1690  0.1273  0.0332
38641SOL     OW21885   8.448   5.407   5.063 -0.5164  0.3995 -0.2371
38641SOL    HW121886   8.365   5.365   5.043 -0.2903  0.0688 -0.4948
38641SOL    HW221887   8.480   5.360   5.141  0.2635 -0.6749 -1.1722
38642SOL     OW21888   9.866   9.899   2.806 -0.1946 -0.2906 -0.1446
38642SOL    HW121889   9.809   9.831   2.773 -0.8106  0.2940 -0.3066
38642SOL    HW221890   9.950   9.884   2.762 -0.4799 -0.6098 -0.5822
38643SOL     OW21891   7.668   6.650  12.157  0.5047  0.0896  0.0706
38643SOL    HW121892   7.675   6.742  12.183  1.4727  0.4223 -1.2308
38643SOL    HW221893   7.619   6.652  12.074  0.6887 -0.5441 -0.0575
38644SOL     OW21894   9.314   2.032   6.734  0.3349 -0.4730 -0.5504
38644SOL    HW121895   9.357   2.068   6.657  4.4203 -1.7166  0.8973
38644SOL    HW221896   9.299   1.940   6.712 -1.5149 -0.1211 -0.9273
38645SOL     OW21897   6.840   4.827   7.091  0.2512  0.2985  0.2472
38645SOL    HW121898   6.901   4.878   7.143  1.2645  0.2926 -0.8907
38645SOL    HW221899   6.893   4.790   7.020 -0.5682 -1.8208  0.6531
38646SOL     OW21900   6.113   8.041   3.581 -0.0498  0.0003  0.1810
38646SOL    HW121901   6.160   7.959   3.596 -1.7433 -0.9279  0.7080
38646SOL    HW221902   6.145   8.071   3.496  0.3018 -1.4333 -0.2220
38647SOL     OW21903  11.090   7.451   5.399  0.5500  0.4852 -0.4264
38647SOL    HW121904  11.099   7.491   5.486  0.0130  0.4552 -0.3553
38647SOL    HW221905  11.076   7.358   5.416  0.1702  0.5210 -0.5309
38648SOL     OW21906   5.657   5.312   5.012 -0.8961  0.3338 -0.0843
38648SOL    HW121907   5.718   5.240   5.022 -0.7831 -0.2088 -3.5904
38648SOL    HW221908   5.596   5.302   5.085  1.1356 -1.1520  1.5150
38649SOL     OW21909   9.396   1.336   8.312 -0.2236  0.2774 -0.0010
38649SOL    HW121910   9.489   1.350   8.291  0.0861  0.5520  1.4174
38649SOL    HW221911   9.359   1.425   8.315  0.0542  0.3749  1.8071
38650SOL     OW21912   2.779   4.516   0.599 -0.0836 -0.1999  0.1749
38650SOL    HW121913   2.825   4.520   0.683  2.2345 -1.0153 -0.9630
38650SOL    HW221914   2.729   4.597   0.594  2.0274  1.2342  1.1180
38651SOL     OW21915   8.263  10.309   1.824  0.9351 -0.3467 -0.3161
38651SOL    HW121916   8.301  10.318   1.912 -0.6596 -1.0191  0.4708
38651SOL    HW221917   8.170  10.297   1.839  0.6370 -0.5614 -2.1201
38652SOL     OW21918   5.629   5.161   3.911 -0.2593 -0.4449  0.1152
38652SOL    HW121919   5.643   5.072   3.877  0.6317 -0.1556 -0.2904
38652SOL    HW221920   5.540   5.183   3.882 -0.5875 -1.2982  0.4410
38653SOL     OW21921  12.448   8.454   6.551 -0.0939 -0.2628 -0.3208
38653SOL    HW121922  12.408   8.430   6.467  0.1033  1.7994 -1.0717
38653SOL    HW221923  12.528   8.501   6.526  1.9196 -2.6988  1.1093
38654SOL     OW21924   6.134   9.337   7.101 -0.0104  0.2261 -0.2022
38654SOL    HW121925   6.169   9.365   7.017  0.0858 -0.4191 -0.3806
38654SOL    HW221926   6.057   9.286   7.079 -0.4590  0.7478  0.1422
38655SOL     OW21927   3.061   3.289   3.353  0.4370  0.3258  0.0138
38655SOL    HW121928   2.986   3.232   3.338  0.7777 -0.2746  0.5409
38655SOL    HW221929   3.089   3.270   3.443  2.9335 -1.5282 -1.0262
38656SOL     OW21930   1.546   8.711   5.072  0.0791 -0.0528 -0.2301
38656SOL    HW121931   1.519   8.781   5.131  1.0869 -0.6634  0.9891
38656SOL    HW221932   1.473   8.649   5.073 -1.0355  1.1334 -1.6867
38657SOL     OW21933   9.331   8.060   9.596 -0.0314  0.0718  0.2896
38657SOL    HW121934   9.340   8.150   9.625 -1.4864 -0.1497  1.5520
38657SOL    HW221935   9.320   8.066   9.501  2.9362  0.9497 -0.1122
38658SOL     OW21936   1.167   9.823   7.861  0.3310  0.0584 -0.0718
38658SOL    HW121937   1.145   9.865   7.778 -2.1184 -0.5080  0.2217
38658SOL    HW221938   1.185   9.897   7.920 -2.0697  0.7137 -0.0553
38659SOL     OW21939   6.866  12.067   0.918 -0.4139  0.0827 -0.0063
38659SOL    HW121940   6.927  12.140   0.904 -1.1701  0.5654 -0.9523
38659SOL    HW221941   6.882  12.009   0.843  0.3463 -0.8650  0.8630
38660SOL     OW21942  10.483   1.126   5.246 -0.1896 -0.3084  0.1910
38660SOL    HW121943  10.518   1.199   5.298 -0.9131 -1.5365  2.5581
38660SOL    HW221944  10.558   1.067   5.235  0.0062  0.0310 -0.3035
38661SOL     OW21945   1.618  12.451   4.053  0.3214  0.2086  0.1094
38661SOL    HW121946   1.691  12.493   4.008  0.0524  1.3663  0.7171
38661SOL    HW221947   1.600  12.508   4.128 -1.8809  0.5381 -0.6030
38662SOL     OW21948   5.339   1.339   6.893 -0.1502 -0.7445  0.4954
38662SOL    HW121949   5.297   1.359   6.809 -1.2702 -0.7185  1.0479
38662SOL    HW221950   5.413   1.282   6.870  0.8426  0.9348 -0.7244
38663SOL     OW21951   6.707   0.779   4.957 -0.3170 -0.4542 -0.2122
38663SOL    HW121952   6.720   0.745   5.045 -1.2814  0.1688  0.1855
38663SOL    HW221953   6.613   0.769   4.941 -0.2496 -0.0149 -0.9429
38664SOL     OW21954   3.880   1.759   9.552 -0.5261 -0.1458 -0.0757
38664SOL    HW121955   3.809   1.821   9.570  1.2429  2.7672 -2.1803
38664SOL    HW221956   3.900   1.720   9.636 -2.2541  1.6524  1.2578
38665SOL     OW21957   9.992   7.134  10.343 -0.4995 -0.2475  0.0947
38665SOL    HW121958  10.010   7.159  10.253  1.2935 -0.1576  0.4324
38665SOL    HW221959   9.913   7.181  10.367 -1.2139 -0.5707 -1.5368
38666SOL     OW21960   1.157   9.398   6.610 -0.1794 -0.2049 -0.0501
38666SOL    HW121961   1.130   9.383   6.519  0.0473 -0.9463  0.0021
38666SOL    HW221962   1.088   9.454   6.646 -0.0595  0.4417 -0.7897
38667SOL     OW21963   1.345   6.118  12.143 -0.1959  0.0212  0.3710
38667SOL    HW121964   1.377   6.037  12.182  0.5849  0.1022 -0.0838
38667SOL    HW221965   1.254   6.100  12.122 -0.0174 -0.7509  0.2319
38668SOL     OW21966   9.722   9.346   4.623 -0.0345 -0.2127 -0.1552
38668SOL    HW121967   9.810   9.381   4.610 -0.2166  0.3991  0.2165
38668SOL    HW221968   9.726   9.303   4.708 -0.1109 -0.1304 -0.1100
38669SOL     OW21969   4.066   9.051   2.326 -0.0870 -0.3630 -0.4405
38669SOL    HW121970   4.161   9.058   2.320  0.2666 -2.8311  0.8115
38669SOL    HW221971   4.045   9.072   2.417 -0.5119 -1.4043 -0.2794
38670SOL     OW21972   6.557   1.343  10.271 -0.1752  0.1594  0.2551
38670SOL    HW121973   6.641   1.303  10.296 -0.9845 -1.8648 -0.0151
38670SOL    HW221974   6.501   1.268  10.252 -2.0221  1.4722  0.3217
38671SOL     OW21975   5.531  10.030  11.412  0.0356 -0.0958  0.0082
38671SOL    HW121976   5.608  10.071  11.373 -0.3284 -0.9649 -1.6960
38671SOL    HW221977   5.493   9.978  11.342  0.3706 -3.2800  1.9893
38672SOL     OW21978   3.038   8.539  10.285 -0.3773 -0.1092 -0.0028
38672SOL    HW121979   2.983   8.562  10.360 -1.7192 -2.5803 -0.1158
38672SOL    HW221980   3.049   8.622  10.237 -1.6991  1.0061  1.5014
38673SOL     OW21981   5.203   8.884  11.173  0.3522  0.0204 -0.0805
38673SOL    HW121982   5.152   8.806  11.150 -0.8607  1.0852 -1.1714
38673SOL    HW221983   5.294   8.860  11.152 -0.0606 -0.9287 -0.8812
38674SOL     OW21984   1.914  10.162   3.930 -0.4253 -0.4292  0.0597
38674SOL    HW121985   1.901  10.257   3.927 -0.7263 -0.4747 -0.1648
38674SOL    HW221986   1.999  10.150   3.973  0.8214  0.0324 -2.1306
38675SOL     OW21987   6.791  12.398   7.796 -0.8573 -0.6592  0.0441
38675SOL    HW121988   6.794  12.370   7.704 -0.0338  1.5726 -0.6596
38675SOL    HW221989   6.760  12.320   7.843 -0.3229 -2.1814 -1.9709
38676SOL     OW21990  11.182   0.811   2.174 -0.4156 -0.2512  0.3393
38676SOL    HW121991  11.251   0.748   2.196  0.5008  0.2412 -1.0382
38676SOL    HW221992  11.187   0.877   2.243  0.6137 -0.1214  0.1475
38677SOL     OW21993   4.727  10.510  10.806 -0.1176  0.3714 -0.0202
38677SOL    HW121994   4.805  10.526  10.753 -0.2957  0.9966 -0.1032
38677SOL    HW221995   4.760  10.468  10.885  0.1625 -0.4876 -0.5750
38678SOL     OW21996  10.821   3.869   2.895  0.1442 -0.2497  0.0843
38678SOL    HW121997  10.876   3.850   2.972  1.8014  0.7052 -0.8192
38678SOL    HW221998  10.872   3.836   2.821 -1.5652 -1.4261 -0.6363
38679SOL     OW21999   3.988  10.587   4.875 -0.1827  0.4213 -0.1845
38679SOL    HW122000   3.997  10.633   4.792  1.3648  0.6725  0.1049
38679SOL    HW222001   4.033  10.643   4.939 -1.6247  0.4080  0.9141
38680SOL     OW22002   4.129   2.476  11.004  0.6687 -0.1716 -1.1567
38680SOL    HW122003   4.161   2.532  10.933  0.1533  1.3327 -0.2416
38680SOL    HW222004   4.034   2.477  10.994  0.4151  1.8610  0.7979
38681SOL     OW22005   6.542   8.714   6.085  0.0783  0.1986 -0.1625
38681SOL    HW122006   6.581   8.752   6.006 -1.3497 -0.3422 -1.1674
38681SOL    HW222007   6.610   8.658   6.121  1.5577  2.1518  0.2787
38682SOL     OW22008   8.606   3.703   5.910 -0.5138 -0.9447 -0.0891
38682SOL    HW122009   8.610   3.655   5.828 -2.4856 -1.4462  0.0677
38682SOL    HW222010   8.601   3.795   5.883  2.4954 -0.7639 -0.3980
38683SOL     OW22011   6.368  10.367   0.235 -0.0615  0.3727  0.1221
38683SOL    HW122012   6.308  10.438   0.212  0.8076  1.1379  0.1519
38683SOL    HW222013   6.322  10.317   0.303 -0.6257  0.9871  0.1960
38684SOL     OW22014   7.780   2.239   5.298 -0.4051 -0.0062 -0.1696
38684SOL    HW122015   7.715   2.170   5.284  1.5488 -1.8786 -0.5965
38684SOL    HW222016   7.848   2.220   5.234  1.5463  0.6228  1.6177
38685SOL     OW22017   2.502   4.545  10.989 -0.2525 -0.8241  0.5225
38685SOL    HW122018   2.432   4.520  11.050 -2.4404 -0.6193 -1.7456
38685SOL    HW222019   2.463   4.612  10.934  1.7732 -0.6662 -0.8287
38686SOL     OW22020   7.390   9.086  11.285  0.0897  0.1714  0.2482
38686SOL    HW122021   7.388   9.029  11.208 -1.5667 -3.0878  2.4811
38686SOL    HW222022   7.436   9.164  11.255 -3.4548  0.7718 -5.0783
38687SOL     OW22023  10.121   8.248   6.204  0.0046 -0.0055 -0.6253
38687SOL    HW122024  10.057   8.318   6.192  0.2188  0.0681 -1.3822
38687SOL    HW222025  10.206   8.292   6.198  0.1493  0.0915  1.5293
38688SOL     OW22026   9.665   2.169   7.238  0.7533  0.0453  0.2122
38688SOL    HW122027   9.691   2.193   7.327  2.1444 -0.4517 -0.0334
38688SOL    HW222028   9.684   2.247   7.186  2.1426 -0.4231 -0.0224
38689SOL     OW22029   3.920   3.904   6.109 -0.0300  0.0830 -0.3529
38689SOL    HW122030   3.880   3.932   6.191 -0.5100 -1.6746  0.0423
38689SOL    HW222031   3.853   3.850   6.067  0.6556 -0.0342 -1.3325
38690SOL     OW22032   6.266   6.802   0.333 -0.6065 -0.2642 -0.2286
38690SOL    HW122033   6.222   6.721   0.359 -2.5682  1.0725  0.8280
38690SOL    HW222034   6.214   6.837   0.261 -0.2079  0.4242 -0.1968
38691SOL     OW22035  10.172   4.956   1.991  0.3415  0.1308 -0.2278
38691SOL    HW122036  10.106   4.924   2.053  0.2950  0.4006 -0.1407
38691SOL    HW222037  10.219   4.877   1.964 -0.6220 -0.2035 -1.0104
38692SOL     OW22038   8.485   3.270   8.232 -0.1144  0.0493 -0.1807
38692SOL    HW122039   8.533   3.254   8.314  1.8278 -0.6960 -1.3941
38692SOL    HW222040   8.415   3.330   8.257 -0.4208 -1.2042  2.2765
38693SOL     OW22041   8.789   6.282   4.913  0.3349 -0.2046 -0.1860
38693SOL    HW122042   8.800   6.187   4.913  0.1588 -0.2302  0.2917
38693SOL    HW222043   8.878   6.317   4.914  0.4123 -0.3831  1.2042
38694SOL     OW22044   1.188   3.798  11.020 -0.1961 -0.2840 -0.0083
38694SOL    HW122045   1.220   3.730  10.961 -0.6617 -1.4916  1.1013
38694SOL    HW222046   1.169   3.753  11.102 -1.3506  1.0227  0.4890
38695SOL     OW22047   5.492   6.418   1.732  0.1336 -0.2773  0.2542
38695SOL    HW122048   5.549   6.362   1.786  0.8038  0.7026  0.5970
38695SOL    HW222049   5.553   6.472   1.682 -0.4995  0.1207 -0.0911
38696SOL     OW22050   7.033   1.465   9.418 -0.4413 -0.0305 -0.2258
38696SOL    HW122051   7.059   1.492   9.506 -0.3642 -1.1824  0.1212
38696SOL    HW222052   6.975   1.534   9.388  1.9368  1.9631 -0.5140
38697SOL     OW22053   4.319  10.136   5.671  0.3589 -0.6850  0.4387
38697SOL    HW122054   4.407  10.171   5.680  0.0446  0.1489  0.2951
38697SOL    HW222055   4.332  10.044   5.648  1.1867 -0.7628  1.1867
38698SOL     OW22056  10.504   6.859   1.824  0.6277 -0.0172 -0.0462
38698SOL    HW122057  10.541   6.851   1.912 -1.7292  1.9907  1.2666
38698SOL    HW222058  10.580   6.860   1.766  2.2633 -1.6435  1.8791
38699SOL     OW22059   5.413   0.448  11.448 -0.5627  0.5514  0.5590
38699SOL    HW122060   5.391   0.524  11.394  1.6872  1.8076  1.2722
38699SOL    HW222061   5.509   0.451  11.456 -0.2155 -3.1052 -0.4003
38700SOL     OW22062  12.158   7.289   2.208 -0.1387 -0.4471  0.6131
38700SOL    HW122063  12.109   7.221   2.255  0.6914 -1.4123  0.1095
38700SOL    HW222064  12.129   7.283   2.118 -1.3491  1.0658  0.8614
38701SOL     OW22065   0.973   5.396   0.381 -0.3553  0.2988  1.2338
38701SOL    HW122066   0.962   5.489   0.361 -0.5788  0.1165  0.5144
38701SOL    HW222067   1.044   5.367   0.324 -0.5769 -0.0754  1.1454
38702SOL     OW22068   9.760   4.857   1.454 -0.2616 -0.0313  0.0489
38702SOL    HW122069   9.799   4.943   1.437 -0.9495  0.1942 -0.4406
38702SOL    HW222070   9.666   4.872   1.448 -0.4717 -0.4090  1.9637
38703SOL     OW22071   8.535   7.036   3.550 -0.5146 -0.2299 -0.5123
38703SOL    HW122072   8.582   7.087   3.615  1.3332  1.0130 -2.6898
38703SOL    HW222073   8.496   7.101   3.491 -2.0153 -1.3128 -0.7819
38704SOL     OW22074   9.997   8.726   1.995 -0.0315  0.4083 -0.0311
38704SOL    HW122075   9.907   8.744   1.966 -1.2501 -0.6401  2.6966
38704SOL    HW222076  10.008   8.632   1.981  0.2524  0.3538  0.5256
38705SOL     OW22077   5.904   4.541   3.753  0.5596  0.1959 -0.2199
38705SOL    HW122078   5.905   4.487   3.833 -1.2542  1.0262  0.4365
38705SOL    HW222079   5.830   4.506   3.703  1.3905 -0.0011 -1.3374
38706SOL     OW22080   8.387  11.619   3.384 -0.8446 -0.0987 -0.5602
38706SOL    HW122081   8.447  11.670   3.439 -0.7383 -0.7160 -0.0823
38706SOL    HW222082   8.420  11.630   3.295  0.3697 -0.9237 -0.2401
38707SOL     OW22083   5.260   1.339   7.520  0.0337 -1.0936 -0.2576
38707SOL    HW122084   5.238   1.246   7.528 -0.6692 -0.8243  1.2716
38707SOL    HW222085   5.322   1.354   7.592  0.8625 -0.5751 -1.0689
38708SOL     OW22086   0.394   9.925   9.637 -0.5746 -0.0018 -0.3129
38708SOL    HW122087   0.443   9.845   9.617  0.5229  0.7307 -0.6948
38708SOL    HW222088   0.307   9.895   9.663 -0.7042 -1.2503 -2.0272
38709SOL     OW22089   6.877   3.059   6.220  0.1654  0.0891 -0.1037
38709SOL    HW122090   6.875   2.970   6.187 -0.7108 -0.0523  0.2946
38709SOL    HW222091   6.784   3.083   6.229  0.3925  0.7594  0.5130
38710SOL     OW22092  11.538   8.637   1.330  0.3710 -0.1019  0.5618
38710SOL    HW122093  11.478   8.580   1.283  1.8437 -1.8697  0.7487
38710SOL    HW222094  11.512   8.629   1.422 -1.1695  1.7404  0.3555
38711SOL     OW22095   2.960  11.342   9.676 -0.2959  0.4038  0.5055
38711SOL    HW122096   2.874  11.383   9.668 -1.5719 -2.1614 -0.3190
38711SOL    HW222097   2.980  11.312   9.587  0.6360 -0.5186  1.0003
38712SOL     OW22098  11.177  10.155   9.706  0.1839  0.2804  0.0867
38712SOL    HW122099  11.219  10.077   9.669 -2.8783 -1.2236 -0.5398
38712SOL    HW222100  11.178  10.219   9.636  0.0044 -0.3256 -0.4840
38713SOL     OW22101   6.690   3.806   0.640 -0.1157 -0.0968  0.4999
38713SOL    HW122102   6.599   3.812   0.612 -0.6919 -1.3503  1.9711
38713SOL    HW222103   6.736   3.769   0.564 -1.0516 -0.5774  0.1559
38714SOL     OW22104   7.667   0.450   2.464 -0.4556  0.2192  0.2689
38714SOL    HW122105   7.623   0.472   2.382 -2.6324 -0.2416  1.2420
38714SOL    HW222106   7.751   0.413   2.437 -0.5499  1.2992 -1.6774
38715SOL     OW22107  11.074   3.653   1.116  0.4213 -0.1502  0.0588
38715SOL    HW122108  11.163   3.622   1.099  0.6110 -0.4617  1.4823
38715SOL    HW222109  11.047   3.695   1.034  2.1723  0.6557 -0.1593
38716SOL     OW22110  11.992   8.757   1.883 -0.1042 -0.5354 -0.1241
38716SOL    HW122111  11.989   8.817   1.809  0.0346  0.8652  0.9818
38716SOL    HW222112  11.911   8.706   1.875 -0.2619 -0.1709 -1.0316
38717SOL     OW22113   2.516   5.883   2.186  0.5255  0.3315  0.7921
38717SOL    HW122114   2.474   5.842   2.261  0.1656 -0.2080  0.3088
38717SOL    HW222115   2.595   5.925   2.221  0.0797  0.5468  1.5481
38718SOL     OW22116  11.310   8.552   3.776  0.1720 -0.5602  0.0859
38718SOL    HW122117  11.400   8.570   3.748  0.4878 -1.6984  0.3407
38718SOL    HW222118  11.312   8.564   3.871  0.1108 -0.7997  0.1186
38719SOL     OW22119   7.887   8.657   8.090  0.4214 -0.2763  0.1276
38719SOL    HW122120   7.867   8.569   8.059 -0.6414  0.0615 -0.2055
38719SOL    HW222121   7.931   8.644   8.174 -0.3911 -1.1160  0.4418
38720SOL     OW22122   3.587   4.365   7.834  0.3352  0.0350  0.2047
38720SOL    HW122123   3.672   4.326   7.812  0.4136  0.3325 -0.0314
38720SOL    HW222124   3.608   4.438   7.892  0.2861  0.4476 -0.2953
38721SOL     OW22125   5.598   2.942   8.597 -0.1691 -0.7833 -0.4488
38721SOL    HW122126   5.671   2.890   8.629  1.1913  0.7717 -0.8579
38721SOL    HW222127   5.535   2.944   8.669  1.2465 -0.2451  0.8054
38722SOL     OW22128   8.382   4.974   3.303  0.2735 -0.2500  0.1352
38722SOL    HW122129   8.350   5.036   3.368  0.7543 -1.6999  1.8377
38722SOL    HW222130   8.445   5.023   3.251 -2.0290  1.7028 -1.0554
38723SOL     OW22131   3.724   2.880   6.828  0.2869  0.0731  0.0923
38723SOL    HW122132   3.735   2.972   6.808 -1.6186  0.2516 -0.3782
38723SOL    HW222133   3.761   2.834   6.752  2.0853  0.3826  0.7482
38724SOL     OW22134   0.407   6.105   8.599 -0.1671  0.2285  0.3255
38724SOL    HW122135   0.374   6.080   8.513  1.0464  2.2245 -0.7815
38724SOL    HW222136   0.446   6.025   8.634  0.6308 -0.2775 -1.6176
38725SOL     OW22137   1.433   0.092   0.111 -0.6010  0.8630  0.6827
38725SOL    HW122138   1.480   0.118   0.031  0.3181  1.5344  1.4122
38725SOL    HW222139   1.354   0.146   0.111 -0.9035  0.4305 -0.0684
38726SOL     OW22140   5.835   2.997   5.192 -0.3830 -0.1370 -0.1178
38726SOL    HW122141   5.782   2.921   5.166  1.0275 -1.4358  0.6531
38726SOL    HW222142   5.864   2.977   5.280  0.1195  1.2790  0.0652
38727SOL     OW22143   5.297  12.471   6.978 -0.0688  0.0824  0.2817
38727SOL    HW122144   5.239  12.538   7.012 -0.9311  0.2862 -1.4543
38727SOL    HW222145   5.381  12.488   7.020 -0.8831  0.7137  1.7035
38728SOL     OW22146   9.913   7.019   4.364 -0.5608 -0.2387 -0.1029
38728SOL    HW122147   9.865   6.972   4.432  1.0971 -0.2210  1.1271
38728SOL    HW222148   9.904   7.111   4.386 -1.0955 -0.1473 -0.6659
38729SOL     OW22149   2.584   6.475   9.482  0.2227 -0.2905 -0.7004
38729SOL    HW122150   2.675   6.496   9.459  0.3924  0.3909  0.5249
38729SOL    HW222151   2.569   6.390   9.441  0.8372  0.3628 -2.3965
38730SOL     OW22152   3.334   1.329   6.972  0.7893  0.6358 -0.0286
38730SOL    HW122153   3.322   1.423   6.970  1.0913  0.6976  0.6461
38730SOL    HW222154   3.389   1.309   6.896  0.6434  0.9835 -0.2258
38731SOL     OW22155   2.522   8.704  10.102 -0.0977 -0.4877  0.2908
38731SOL    HW122156   2.505   8.693  10.195  0.6908 -3.9573  0.1537
38731SOL    HW222157   2.607   8.749  10.099 -0.4229  0.2218  1.2089
38732SOL     OW22158   6.801   5.976   4.529 -0.0048  0.4493 -0.0641
38732SOL    HW122159   6.799   6.071   4.540 -1.4876  0.5543 -0.8734
38732SOL    HW222160   6.794   5.942   4.618  0.5166  1.0925  0.2343
38733SOL     OW22161   6.869   4.054   2.919  0.2077 -0.1442 -0.0928
38733SOL    HW122162   6.837   3.966   2.897 -0.5605 -0.1178  0.8595
38733SOL    HW222163   6.793   4.110   2.907  0.8521  0.5137 -1.2923
38734SOL     OW22164   5.194  10.928   8.596 -0.1262  0.3989  0.1887
38734SOL    HW122165   5.149  10.864   8.541  1.5873  0.7814 -1.8229
38734SOL    HW222166   5.124  10.970   8.646 -1.5017 -1.6648  0.1166
38735SOL     OW22167   1.396   0.961   1.553  0.0536  0.1065  0.2615
38735SOL    HW122168   1.462   0.943   1.486 -1.0710 -1.0210 -0.5993
38735SOL    HW222169   1.374   1.053   1.540  0.2338  0.0450 -0.5932
38736SOL     OW22170   9.969   6.951   9.044 -0.0921 -0.2068  0.1793
38736SOL    HW122171   9.918   7.003   9.107 -0.2004  0.6441 -0.5840
38736SOL    HW222172   9.914   6.948   8.966 -0.2296 -1.7762  0.3040
38737SOL     OW22173   6.408   1.673   6.208  0.2944  0.3743 -0.3349
38737SOL    HW122174   6.375   1.665   6.118 -1.8731  0.9491  0.3453
38737SOL    HW222175   6.386   1.589   6.249  0.5915  0.3883 -0.1446
38738SOL     OW22176   7.582   7.546   6.712 -0.3429  0.1965  0.0529
38738SOL    HW122177   7.631   7.613   6.761 -0.2934  0.7310 -0.7144
38738SOL    HW222178   7.591   7.572   6.621  0.7645 -1.5741 -0.3924
38739SOL     OW22179   0.670   9.990   0.546 -0.0101  0.0053  0.0063
38739SOL    HW122180   0.741   9.930   0.524  0.1345  0.7798 -1.8100
38739SOL    HW222181   0.610   9.985   0.472 -0.7227  1.0256  0.4856
38740SOL     OW22182  11.903   7.784  10.464 -0.4313  0.3156 -0.4355
38740SOL    HW122183  11.976   7.831  10.423 -1.2729  1.5563 -0.5908
38740SOL    HW222184  11.827   7.840  10.448 -1.3434 -0.7190  0.1148
38741SOL     OW22185   5.505   5.774   1.867 -0.0736  0.8284  0.5608
38741SOL    HW122186   5.559   5.698   1.842  0.4013  0.9953  1.0650
38741SOL    HW222187   5.423   5.762   1.819  0.2691  0.3673  0.0813
38742SOL     OW22188   7.795   9.930   4.084  0.0032 -0.2447  0.0139
38742SOL    HW122189   7.777   9.858   4.144  2.0850 -0.5112  0.3911
38742SOL    HW222190   7.858   9.985   4.130 -0.5591  1.1256 -0.7974
38743SOL     OW22191  11.415   5.247   2.025  0.2034 -0.2979 -0.2701
38743SOL    HW122192  11.406   5.152   2.018  0.1025 -0.2018 -2.0527
38743SOL    HW222193  11.508   5.261   2.042  0.1835 -0.7106  0.2155
38744SOL     OW22194   5.294   4.153   3.289 -0.4343 -0.3057  0.3576
38744SOL    HW122195   5.372   4.099   3.278  0.1409  0.6110 -0.2116
38744SOL    HW222196   5.240   4.105   3.352  0.3916 -1.1631  0.4322
38745SOL     OW22197   5.579   8.198  12.441 -0.2008 -0.0581 -0.3124
38745SOL    HW122198   5.566   8.271  12.380  2.8360 -0.1099 -1.2027
38745SOL    HW222199   5.586   8.240  12.527 -0.8291  0.4409 -0.5025
38746SOL     OW22200   3.237   2.343   8.652 -0.5889  0.2763 -0.1426
38746SOL    HW122201   3.269   2.349   8.742 -3.7741 -4.0598  1.6428
38746SOL    HW222202   3.142   2.357   8.659 -0.9467 -0.1144 -2.8476
38747SOL     OW22203  11.065   0.395   7.981  0.2208 -0.2489  0.1733
38747SOL    HW122204  11.019   0.330   8.034  0.4357 -1.6541 -1.3113
38747SOL    HW222205  11.128   0.435   8.041 -0.4317 -0.8619  1.2934
38748SOL     OW22206  11.743  11.248   6.867 -0.2320  0.3413  0.3299
38748SOL    HW122207  11.660  11.214   6.900 -0.9826 -0.4327 -2.1348
38748SOL    HW222208  11.781  11.295   6.941 -1.8093 -1.1482  2.1864
38749SOL     OW22209   9.481   8.239   0.314 -0.0300 -0.0919  0.1972
38749SOL    HW122210   9.408   8.301   0.308  1.4338  1.6653 -0.3999
38749SOL    HW222211   9.460   8.172   0.249 -1.9870 -0.6779  1.3267
38750SOL     OW22212   0.664  10.693  10.094  0.1248 -0.3400  0.1283
38750SOL    HW122213   0.734  10.738  10.141 -1.0220  1.6420  0.0053
38750SOL    HW222214   0.693  10.601  10.092  1.4699 -0.0466  2.3508
38751SOL     OW22215   6.871  11.476   1.524  0.7329 -0.3667  0.2013
38751SOL    HW122216   6.821  11.471   1.443 -0.2887  0.1643  0.7835
38751SOL    HW222217   6.958  11.444   1.500 -0.1646 -2.3868 -0.5770
38752SOL     OW22218   5.766   2.443   3.295  0.0784  0.4803 -0.5581
38752SOL    HW122219   5.828   2.386   3.250  2.2074  1.5443  0.8711
38752SOL    HW222220   5.774   2.418   3.388 -1.9332  0.4238 -0.3347
38753SOL     OW22221  11.493   6.444  10.578 -0.2894  0.1511 -0.9417
38753SOL    HW122222  11.472   6.537  10.584  0.4990  0.2677  0.7430
38753SOL    HW222223  11.573   6.440  10.526 -1.2346  0.2306 -2.4496
38754SOL     OW22224   0.183   7.701   0.311  0.6431 -0.3803 -0.4284
38754SOL    HW122225   0.263   7.728   0.266  1.1804  0.2548  0.8656
38754SOL    HW222226   0.213   7.665   0.394 -0.5011  1.5090  0.8572
38755SOL     OW22227   9.358   2.451   9.069 -0.6912 -0.6199  0.7242
38755SOL    HW122228   9.334   2.529   9.119  0.9465  1.7056 -1.8338
38755SOL    HW222229   9.275   2.415   9.039 -1.4459  1.1241  0.6270
38756SOL     OW22230   5.688   3.900  12.203 -0.2116  0.2818  0.1460
38756SOL    HW122231   5.703   3.879  12.111 -0.5521  1.7875 -0.2647
38756SOL    HW222232   5.775   3.903  12.242  0.0983  1.6599 -0.5964
38757SOL     OW22233   2.607   7.620  10.331  0.2593  0.2652  0.1650
38757SOL    HW122234   2.532   7.570  10.298  0.8796  0.7233 -2.0838
38757SOL    HW222235   2.585   7.711  10.313  0.3688  0.6234  1.6700
38758SOL     OW22236  11.218  11.567   7.356  0.0072  0.7586 -0.4891
38758SOL    HW122237  11.245  11.659   7.363 -1.4248  1.3752 -2.1205
38758SOL    HW222238  11.294  11.523   7.320  1.3448  0.8870  1.9684
38759SOL     OW22239   4.642   2.311   3.367  0.0174 -0.4375  0.1636
38759SOL    HW122240   4.572   2.346   3.420  2.0667  3.3711  0.6738
38759SOL    HW222241   4.617   2.330   3.276  0.5514  1.4436  0.3747
38760SOL     OW22242   8.333   4.316   4.415 -0.2578  0.9654  0.2184
38760SOL    HW122243   8.345   4.406   4.383 -0.2575  0.5811 -0.8939
38760SOL    HW222244   8.406   4.303   4.476 -0.0733  1.6042  0.1472
38761SOL     OW22245  12.403  10.364   2.327 -0.0487 -0.6027 -0.1555
38761SOL    HW122246  12.482  10.379   2.275  0.3502 -2.0766 -0.0114
38761SOL    HW222247  12.433  10.309   2.400 -1.4543 -2.3873 -0.8635
38762SOL     OW22248   3.798   2.045   7.038  0.4047  0.0260 -0.0463
38762SOL    HW122249   3.810   1.969   6.980  0.8890 -0.3006  0.4732
38762SOL    HW222250   3.887   2.074   7.058  0.4132 -1.5862  2.7786
38763SOL     OW22251   5.632   2.641   4.839 -0.2265 -0.0274  0.5465
38763SOL    HW122252   5.540   2.625   4.858 -0.4850  1.3572  0.5424
38763SOL    HW222253   5.667   2.555   4.814 -1.3251 -0.7118  1.2719
38764SOL     OW22254   9.230   5.333  10.651  0.4933  0.2867 -0.4029
38764SOL    HW122255   9.272   5.384  10.581  0.3614 -0.2435 -0.8731
38764SOL    HW222256   9.234   5.243  10.620 -0.1248  0.1224 -0.0041
38765SOL     OW22257   9.597   0.028   0.425  0.3681 -0.2168 -0.6143
38765SOL    HW122258   9.582   0.027   0.330  2.1269  1.0443 -0.9726
38765SOL    HW222259   9.663  -0.040   0.440 -0.6362 -1.1009 -0.1199
38766SOL     OW22260   7.158   9.449   5.964  0.0820 -0.4038 -0.0775
38766SOL    HW122261   7.149   9.544   5.973 -0.0165 -0.1714 -2.0221
38766SOL    HW222262   7.221   9.438   5.893 -1.4079 -1.7388 -1.2668
38767SOL     OW22263   3.305   3.921   4.817 -0.4777 -0.7280  0.2528
38767SOL    HW122264   3.223   3.907   4.863 -0.8951  0.0714 -0.2153
38767SOL    HW222265   3.314   3.846   4.758 -1.0592 -0.6422  0.0496
38768SOL     OW22266   8.977   2.759   9.123  0.3741  0.1056 -0.4251
38768SOL    HW122267   8.899   2.810   9.142  0.9551  0.6362  0.6131
38768SOL    HW222268   8.944   2.672   9.099 -0.5918  0.7603 -1.5740
38769SOL     OW22269   2.186   6.525   8.220  0.4424 -0.5675 -0.3985
38769SOL    HW122270   2.120   6.552   8.156 -1.5761  0.2402  1.8878
38769SOL    HW222271   2.155   6.439   8.251  0.5846 -0.2949  0.5142
38770SOL     OW22272   3.505  12.305   8.411 -0.2001 -0.1472  0.1570
38770SOL    HW122273   3.479  12.397   8.408  1.5058  0.3394 -0.3915
38770SOL    HW222274   3.425  12.260   8.440 -1.1530  1.4471  0.1857
38771SOL     OW22275   1.950  10.022   8.208  1.1289  0.1892  0.0710
38771SOL    HW122276   2.018   9.956   8.224  2.0534  1.1352  0.1648
38771SOL    HW222277   1.899   9.986   8.135  0.4276 -1.4866  1.3083
38772SOL     OW22278   3.499   4.644   6.598 -0.7295 -0.6980 -0.1191
38772SOL    HW122279   3.450   4.562   6.597 -2.3908  0.1978 -2.5413
38772SOL    HW222280   3.438   4.709   6.564  1.0574  1.2190  0.1068
38773SOL     OW22281   4.319   1.578  12.170 -0.3950 -0.5188 -0.1008
38773SOL    HW122282   4.282   1.583  12.082  0.7119  0.5018 -0.5382
38773SOL    HW222283   4.344   1.486  12.180 -0.0088 -0.5426 -1.0981
38774SOL     OW22284   0.230   6.141   9.625  0.0184  0.3880  0.4974
38774SOL    HW122285   0.162   6.166   9.561  1.0654  1.0922 -0.3778
38774SOL    HW222286   0.186   6.149   9.710 -0.9164  1.1319 -0.0262
38775SOL     OW22287   8.149   4.746  10.479 -0.0045 -0.7361  0.2050
38775SOL    HW122288   8.167   4.840  10.480 -0.8608 -0.5457 -0.6300
38775SOL    HW222289   8.054   4.740  10.470  0.2362 -1.5983 -3.0691
38776SOL     OW22290   1.417  11.952  11.445  0.0020 -0.1818 -0.3533
38776SOL    HW122291   1.396  11.862  11.468 -0.1197 -0.6161 -2.0021
38776SOL    HW222292   1.447  11.947  11.354  1.2399  1.2683 -0.0725
38777SOL     OW22293   6.171   5.366   3.932 -0.8404 -0.1096  0.4310
38777SOL    HW122294   6.201   5.318   3.855 -2.1176 -0.9077  0.4022
38777SOL    HW222295   6.076   5.355   3.932 -0.8683 -0.2457  2.1747
38778SOL     OW22296   1.116   0.909   9.924  0.2206 -0.2072  0.8237
38778SOL    HW122297   1.122   0.848   9.850  0.4011 -1.1195  1.5866
38778SOL    HW222298   1.157   0.990   9.891 -0.0269 -0.4776 -0.1925
38779SOL     OW22299  12.097   4.458   4.574 -0.2296  0.1601  0.2903
38779SOL    HW122300  12.033   4.389   4.591  0.6707 -1.1479 -1.3140
38779SOL    HW222301  12.160   4.450   4.645  0.3692 -1.3440 -0.3618
38780SOL     OW22302   2.882   6.242   6.040  0.3140 -0.4148 -0.2991
38780SOL    HW122303   2.964   6.196   6.029  0.4393 -0.4161  0.5432
38780SOL    HW222304   2.891   6.289   6.124 -1.4460 -2.4151  1.1194
38781SOL     OW22305   1.506   4.782   3.165 -0.5980 -0.0846  0.1371
38781SOL    HW122306   1.567   4.808   3.234  0.6182 -0.2139 -0.8580
38781SOL    HW222307   1.443   4.854   3.159 -0.7845 -0.1137  1.4222
38782SOL     OW22308   5.358   8.064  11.200  0.1352 -0.3932 -0.3273
38782SOL    HW122309   5.365   7.994  11.136  0.5983  0.9444 -1.8090
38782SOL    HW222310   5.280   8.043  11.251 -0.3741 -1.3897 -1.4781
38783SOL     OW22311   8.438   6.650   2.905  0.2816  0.1927  0.0601
38783SOL    HW122312   8.386   6.727   2.881  1.2834  2.0561  3.2394
38783SOL    HW222313   8.528   6.682   2.909  1.4696 -2.3228 -2.7322
38784SOL     OW22314   2.813  11.302   7.457 -0.7232  0.0682  0.3043
38784SOL    HW122315   2.819  11.319   7.551  0.6371  0.7073  0.1229
38784SOL    HW222316   2.886  11.351   7.418  0.1424 -1.9813 -0.8374
38785SOL     OW22317   6.954   4.488   3.585  0.6279 -0.4860 -0.5913
38785SOL    HW122318   7.011   4.550   3.630  1.2390 -1.0287 -0.6006
38785SOL    HW222319   6.895   4.542   3.533 -1.1966  0.2960  2.0529
38786SOL     OW22320   3.024   1.238  10.310 -0.2667 -0.2020 -0.4212
38786SOL    HW122321   2.937   1.218  10.277 -0.6492 -0.0220  0.4475
38786SOL    HW222322   3.033   1.184  10.389  0.1975  0.1801 -0.2080
38787SOL     OW22323   6.047   1.140   0.935 -0.1966 -0.0939 -0.2152
38787SOL    HW122324   6.103   1.198   0.987 -0.0763 -0.0515 -0.3931
38787SOL    HW222325   5.973   1.196   0.910 -0.8232 -0.4056  0.8440
38788SOL     OW22326   1.926   4.766   0.448 -0.3439  0.1474 -0.5508
38788SOL    HW122327   1.924   4.861   0.435  0.4865  0.6524  2.1332
38788SOL    HW222328   2.015   4.749   0.480 -1.1045 -1.1582  1.0377
38789SOL     OW22329   0.538   4.425   0.184 -0.1861  0.8852  0.0333
38789SOL    HW122330   0.451   4.430   0.145  0.0352  1.2287 -0.4334
38789SOL    HW222331   0.535   4.485   0.258 -0.6157  0.2158  0.5782
38790SOL     OW22332   7.797  12.397   3.596  0.3423  0.5686 -0.2655
38790SOL    HW122333   7.733  12.328   3.611  1.8047 -0.6884  0.4791
38790SOL    HW222334   7.763  12.446   3.521 -1.0113 -0.6229 -0.4694
38791SOL     OW22335  11.169   5.933   5.592  0.8417 -0.2048 -0.2595
38791SOL    HW122336  11.124   6.016   5.613 -0.4132 -0.7937 -0.5188
38791SOL    HW222337  11.256   5.960   5.562  1.1534  0.9084  1.4565
38792SOL     OW22338   7.434   8.886   1.640  0.4739 -0.0756 -0.2224
38792SOL    HW122339   7.373   8.833   1.691  0.7877 -0.8812 -0.6674
38792SOL    HW222340   7.389   8.970   1.628  0.0284 -0.1880  0.6033
38793SOL     OW22341   0.396  12.025  10.314 -0.1488 -0.6587  0.4346
38793SOL    HW122342   0.382  12.115  10.285 -2.1690 -0.5249  1.6769
38793SOL    HW222343   0.488  12.007  10.292  0.0818  1.4177 -0.5325
38794SOL     OW22344   4.641   6.815   9.696 -0.3082 -0.0783 -0.0271
38794SOL    HW122345   4.677   6.777   9.776 -0.4110  0.6457  0.3718
38794SOL    HW222346   4.712   6.868   9.660  0.4389 -1.9189 -1.5074
38795SOL     OW22347   4.706   4.008   9.571 -0.0132  0.0184  0.1907
38795SOL    HW122348   4.796   4.036   9.587  0.1169 -1.1820  1.9738
38795SOL    HW222349   4.714   3.917   9.543 -0.6151  0.3685 -1.1827
38796SOL     OW22350   2.979  10.446   7.935 -0.3767 -0.6603 -0.2582
38796SOL    HW122351   2.960  10.429   8.027 -0.3076 -1.1277 -0.3273
38796SOL    HW222352   3.021  10.366   7.904 -0.3391 -0.4794 -0.6783
38797SOL     OW22353   3.434   8.522   6.662 -0.0008 -1.1557  0.3139
38797SOL    HW122354   3.489   8.460   6.613 -0.8494 -2.6930  1.2461
38797SOL    HW222355   3.345   8.502   6.634 -0.2701 -0.0485  0.3292
38798SOL     OW22356   2.280   3.790   6.838 -0.1227 -0.3555 -0.4038
38798SOL    HW122357   2.318   3.747   6.762 -0.5798  0.5664 -1.1718
38798SOL    HW222358   2.239   3.719   6.888  0.5496 -1.0232 -0.7795
38799SOL     OW22359   8.774   7.321   5.583  0.2943 -0.4168  0.6397
38799SOL    HW122360   8.792   7.358   5.497  1.0487  1.0822  1.3924
38799SOL    HW222361   8.705   7.257   5.568 -2.3998  2.5147 -0.5350
38800SOL     OW22362   9.410  11.885   5.782 -0.2042  0.1413  0.5104
38800SOL    HW122363   9.332  11.939   5.774  1.0979  1.8948 -2.0439
38800SOL    HW222364   9.420  11.869   5.875 -3.1557  0.4782  0.9493
38801SOL     OW22365   1.993  11.987   5.312  0.0755  0.0473 -0.2987
38801SOL    HW122366   1.971  11.900   5.279 -0.9388 -0.3747  1.3723
38801SOL    HW222367   1.908  12.030   5.326  0.4905  0.6193  0.5836
38802SOL     OW22368   5.900   0.049   9.715  0.1763  0.0529 -0.2414
38802SOL    HW122369   5.939   0.032   9.630  0.3417 -1.0321  0.0334
38802SOL    HW222370   5.938   0.132   9.743 -1.1620  1.3042 -1.9478
38803SOL     OW22371  10.480   5.950   8.472 -0.1388 -0.2543  0.4368
38803SOL    HW122372  10.519   5.914   8.552  0.9625  0.3311  0.1849
38803SOL    HW222373  10.388   5.965   8.496 -0.4845 -2.5167  0.7535
38804SOL     OW22374   6.086   1.539   8.501  0.1102 -0.8069  0.2225
38804SOL    HW122375   6.046   1.480   8.437 -2.3453  0.9756 -0.0118
38804SOL    HW222376   6.071   1.496   8.585 -0.8828 -0.9300 -0.0104
38805SOL     OW22377   5.689  10.699   7.647  0.2954  0.2782 -0.6322
38805SOL    HW122378   5.698  10.786   7.609 -1.2425  0.4478 -0.6683
38805SOL    HW222379   5.615  10.660   7.599 -0.7730 -0.0349  1.1746
38806SOL     OW22380   1.859   3.544  11.469  0.4300  0.2810 -0.6736
38806SOL    HW122381   1.791   3.583  11.523 -0.8291  0.9335 -2.6418
38806SOL    HW222382   1.910   3.618  11.437  2.2194 -0.2000  0.8665
38807SOL     OW22383   3.045   8.203   0.430  0.5064 -0.4184 -0.4084
38807SOL    HW122384   2.973   8.226   0.371  1.2446  0.2607 -1.0784
38807SOL    HW222385   3.002   8.160   0.504 -0.6973  0.7417 -0.3670
38808SOL     OW22386   7.358   3.171   2.338 -0.1710 -0.4231  0.1394
38808SOL    HW122387   7.354   3.075   2.342  0.7529 -0.4409  0.9169
38808SOL    HW222388   7.450   3.192   2.354 -0.6521  0.6709  1.6487
38809SOL     OW22389   5.721   1.466   3.975 -0.3630 -0.0556 -0.1280
38809SOL    HW122390   5.672   1.427   3.902  0.8873  0.3339 -1.2109
38809SOL    HW222391   5.748   1.390   4.028  1.7623 -0.7565 -2.0384
38810SOL     OW22392  11.670   3.943   2.113 -0.9313  0.6624 -0.4695
38810SOL    HW122393  11.680   3.863   2.060 -1.0970 -0.4798  1.1454
38810SOL    HW222394  11.687   4.014   2.052 -0.7008 -0.6075 -1.9578
38811SOL     OW22395   6.904   5.824   0.431  0.6595  0.0683  0.1811
38811SOL    HW122396   6.823   5.781   0.459  0.3483 -0.8008 -1.8853
38811SOL    HW222397   6.916   5.895   0.494 -3.3431  2.1805 -1.0862
38812SOL     OW22398  10.376   7.104  10.257 -0.0970  0.1752 -0.3983
38812SOL    HW122399  10.438   7.045  10.215 -0.7148 -1.2040  0.5499
38812SOL    HW222400  10.315   7.129  10.188  0.7090  0.4458 -1.0198
38813SOL     OW22401   7.957   2.781   4.725 -0.0601  0.2489 -0.5231
38813SOL    HW122402   7.994   2.729   4.796 -0.9557  1.0794  0.5665
38813SOL    HW222403   7.988   2.870   4.741 -1.2495  0.6660 -0.4829
38814SOL     OW22404  10.991   0.694   0.873 -0.1778 -0.4181 -0.5534
38814SOL    HW122405  11.038   0.619   0.836 -1.8179 -0.5206 -2.6401
38814SOL    HW222406  11.056   0.764   0.877  0.7843 -1.2777 -0.8768
38815SOL     OW22407   5.407   2.424  10.981 -0.3922 -0.3075  0.3129
38815SOL    HW122408   5.396   2.361  11.052  0.8862 -0.6088  0.2648
38815SOL    HW222409   5.350   2.497  11.005 -2.4994 -1.7513  0.0057
38816SOL     OW22410  11.765   3.261   1.877 -0.3976  0.2878  0.1907
38816SOL    HW122411  11.724   3.176   1.859 -0.1750  0.1670  0.2432
38816SOL    HW222412  11.846   3.260   1.825 -1.9278  1.7807 -2.4094
38817SOL     OW22413  12.385   8.604   7.724 -0.3885  0.2595  0.4280
38817SOL    HW122414  12.393   8.660   7.801 -0.7492  1.0154 -0.0584
38817SOL    HW222415  12.471   8.565   7.713 -0.1097  0.7657  0.7660
38818SOL     OW22416  11.461   5.389   3.651  0.4703 -0.4115  0.6395
38818SOL    HW122417  11.378   5.424   3.618 -0.5175 -2.2300  1.0667
38818SOL    HW222418  11.523   5.404   3.580  0.2565  2.5050  0.9367
38819SOL     OW22419   5.853  11.260  11.088 -0.7738  0.2515 -0.5185
38819SOL    HW122420   5.797  11.328  11.125  1.4190  0.8320  2.0511
38819SOL    HW222421   5.906  11.305  11.023 -0.4738  0.6459 -0.0083
38820SOL     OW22422   2.498  12.385   7.166  0.0646 -0.1283 -0.3268
38820SOL    HW122423   2.452  12.306   7.138  0.2485 -0.3270 -0.0699
38820SOL    HW222424   2.527  12.365   7.255  2.1057 -0.6410 -1.0688
38821SOL     OW22425   8.699   4.235   9.937 -0.7647  0.1359  0.6175
38821SOL    HW122426   8.745   4.157   9.969  1.2900  0.5288 -1.1394
38821SOL    HW222427   8.714   4.301  10.005  0.6897  0.0312  0.4273
38822SOL     OW22428   6.142   4.020   1.703  0.3573 -0.0748  0.3786
38822SOL    HW122429   6.126   3.928   1.683  0.8217  0.4032 -2.7231
38822SOL    HW222430   6.233   4.034   1.678 -0.3902  1.7132 -1.7612
38823SOL     OW22431  11.307   9.817   1.273  0.1480  0.3318 -0.6234
38823SOL    HW122432  11.374   9.783   1.333 -0.3190 -1.4518 -1.0337
38823SOL    HW222433  11.246   9.864   1.330 -1.0830 -2.5467  0.6883
38824SOL     OW22434   1.014   4.902   4.820 -0.6105  0.4101  0.6714
38824SOL    HW122435   0.977   4.969   4.762  0.2556 -0.3306 -0.7833
38824SOL    HW222436   0.957   4.904   4.897 -1.6544  1.5974 -0.0820
38825SOL     OW22437   6.919   4.645   7.415 -0.7332  0.5033  0.1855
38825SOL    HW122438   6.905   4.598   7.332  0.5032 -1.5735  1.0939
38825SOL    HW222439   6.876   4.591   7.481 -0.5414  1.4368  1.1108
38826SOL     OW22440   8.875   7.825   2.357  0.0566 -0.0844  0.4496
38826SOL    HW122441   8.900   7.783   2.275 -2.8932 -0.3084 -0.4395
38826SOL    HW222442   8.865   7.917   2.336  0.8118  0.1213  0.9626
38827SOL     OW22443   1.451   8.865   9.849 -0.1093 -0.0171  0.2567
38827SOL    HW122444   1.455   8.770   9.839  0.5355  0.1644 -1.6221
38827SOL    HW222445   1.533   8.897   9.811 -1.6308  1.4432 -2.0899
38828SOL     OW22446   2.211  11.361   6.552  0.1075  0.3368 -0.1731
38828SOL    HW122447   2.173  11.298   6.613  0.1989  0.8949  0.4694
38828SOL    HW222448   2.284  11.314   6.512 -0.4537 -0.3090 -0.4691
38829SOL     OW22449   9.715   9.097   4.289  0.0112  0.4813  0.6157
38829SOL    HW122450   9.788   9.156   4.271 -0.6798  1.0432 -0.4757
38829SOL    HW222451   9.751   9.031   4.349  0.8732  1.8330  1.6471
38830SOL     OW22452   2.478   6.475   6.678 -0.0347 -0.4449  0.4976
38830SOL    HW122453   2.502   6.439   6.593  0.3686  0.8272  0.0449
38830SOL    HW222454   2.420   6.549   6.657  1.2655  0.8293  1.2167
38831SOL     OW22455   9.110   0.152   9.863  0.0134 -0.1505 -0.7407
38831SOL    HW122456   9.061   0.212   9.921  1.1962  0.7666 -0.6570
38831SOL    HW222457   9.107   0.068   9.908 -0.1996  0.2441  0.0044
38832SOL     OW22458  10.102   2.190   0.417  0.7530  0.0877  0.3530
38832SOL    HW122459  10.106   2.095   0.411  0.6211  0.1650 -1.5041
38832SOL    HW222460  10.188   2.216   0.449  0.7902 -0.6367  0.8734
38833SOL     OW22461   0.604  10.483   8.369 -0.6176 -0.4862  0.0323
38833SOL    HW122462   0.602  10.396   8.329 -1.0902 -0.9802  1.0872
38833SOL    HW222463   0.524  10.525   8.337  0.2773  0.1022 -1.5706
38834SOL     OW22464   2.840   6.193   6.860  0.1207 -0.7114 -0.3114
38834SOL    HW122465   2.930   6.170   6.881  0.5829  0.1692 -1.2364
38834SOL    HW222466   2.846   6.280   6.819 -1.0721 -0.9084 -0.9490
38835SOL     OW22467   3.059   7.184   8.122 -0.0452  0.0557 -0.1531
38835SOL    HW122468   3.032   7.194   8.214 -1.7191 -0.4246 -0.5569
38835SOL    HW222469   3.149   7.152   8.127 -0.5305 -1.2174  1.3623
38836SOL     OW22470   2.133   2.663   6.075  0.1668  0.1434  0.3937
38836SOL    HW122471   2.202   2.623   6.022  0.8680  1.4966  0.2642
38836SOL    HW222472   2.109   2.594   6.138 -1.6149 -2.0405 -2.3790
38837SOL     OW22473   0.734   8.146   0.242 -0.4238  0.3615  0.4969
38837SOL    HW122474   0.647   8.125   0.277 -1.5919  1.6009 -1.4678
38837SOL    HW222475   0.739   8.242   0.247 -0.3890  0.5484 -1.9362
38838SOL     OW22476   0.423   8.825   7.634 -0.0430  0.0578 -0.0531
38838SOL    HW122477   0.353   8.847   7.696 -0.2042 -0.7304  0.0561
38838SOL    HW222478   0.422   8.896   7.570 -0.9577  0.0526 -0.0579
38839SOL     OW22479   5.217  11.578   2.678 -0.3584 -0.1351  0.0015
38839SOL    HW122480   5.263  11.611   2.601  0.3686  0.1012  0.5309
38839SOL    HW222481   5.276  11.513   2.716  0.2225  1.2381  1.5419
38840SOL     OW22482   9.542   7.899   9.748 -0.4351 -0.0982  0.4617
38840SOL    HW122483   9.501   7.818   9.719  0.7318 -0.9012  0.9726
38840SOL    HW222484   9.484   7.968   9.716 -0.7250 -1.0528 -1.1973
38841SOL     OW22485   1.962  10.981  11.576  0.5224 -0.1184  0.5730
38841SOL    HW122486   1.944  11.060  11.627  0.2151  0.3440 -0.2364
38841SOL    HW222487   1.879  10.961  11.532  0.9663 -0.0902 -0.2989
38842SOL     OW22488   1.680   5.205  11.870  0.0685 -0.1730 -0.4189
38842SOL    HW122489   1.613   5.157  11.918  0.8350  0.2674  1.1736
38842SOL    HW222490   1.647   5.211  11.780 -0.3261 -3.1069 -0.5551
38843SOL     OW22491   8.431   1.957   5.701 -0.2072 -0.6063  0.1380
38843SOL    HW122492   8.462   1.923   5.785 -0.6831 -0.5537  0.3383
38843SOL    HW222493   8.390   2.041   5.723 -0.8318 -0.8511 -0.0630
38844SOL     OW22494   6.004   6.108   8.415  0.3605  0.1784  0.3909
38844SOL    HW122495   5.983   6.122   8.323 -1.5901  0.8894  0.8988
38844SOL    HW222496   6.062   6.032   8.415  0.7796  0.4617 -1.4446
38845SOL     OW22497  12.300   6.876   0.305  0.1413  0.0262  0.4432
38845SOL    HW122498  12.254   6.957   0.284 -0.5986 -0.1169  1.4317
38845SOL    HW222499  12.234   6.807   0.292  0.6809 -0.4060 -0.1181
38846SOL     OW22500   8.203   6.717   5.695 -0.5182  0.1167 -0.4992
38846SOL    HW122501   8.113   6.735   5.725 -0.2565  0.3350  0.1666
38846SOL    HW222502   8.201   6.626   5.665 -1.0310  0.2095 -0.7633
38847SOL     OW22503   7.228   9.496  11.973  0.2876  0.0778  0.0637
38847SOL    HW122504   7.268   9.562  12.030 -1.8287 -0.1411  1.9307
38847SOL    HW222505   7.210   9.544  11.892  1.5640  0.9442  0.2497
38848SOL     OW22506   1.217   6.527   6.844  0.2354 -0.6016 -0.0273
38848SOL    HW122507   1.205   6.451   6.901  1.1344 -0.4860  0.3335
38848SOL    HW222508   1.132   6.540   6.802 -1.1503  0.5949  2.8597
38849SOL     OW22509   7.226  12.137  10.538  0.3202  0.5480 -0.0942
38849SOL    HW122510   7.283  12.060  10.543  0.5921  0.7752  0.3156
38849SOL    HW222511   7.286  12.211  10.531  0.1572  0.9569  2.2290
38850SOL     OW22512   7.586   3.649   3.253  0.2719 -0.3649 -0.1330
38850SOL    HW122513   7.648   3.666   3.323 -0.6540  1.2018  0.3627
38850SOL    HW222514   7.634   3.666   3.172  0.1194  2.3373  0.2789
38851SOL     OW22515   9.613   8.266   9.711  0.5179 -0.1832 -0.9892
38851SOL    HW122516   9.585   8.206   9.780 -0.7099  2.4748  1.0418
38851SOL    HW222517   9.647   8.210   9.641 -0.0833 -3.1258  0.9226
38852SOL     OW22518   9.042   4.674   0.358  0.3611 -0.3854 -0.0618
38852SOL    HW122519   9.084   4.626   0.429 -1.6941  0.2230  1.6879
38852SOL    HW222520   8.948   4.658   0.370 -0.1836  1.4198 -1.3859
38853SOL     OW22521   2.395  11.075   8.367  0.0906 -0.1643  0.8166
38853SOL    HW122522   2.339  11.149   8.344  1.9354  0.7215 -1.1907
38853SOL    HW222523   2.344  10.997   8.343 -0.6606  0.5778 -0.0418
38854SOL     OW22524   5.349   2.555   4.004 -0.1765  0.3641  0.0209
38854SOL    HW122525   5.406   2.496   4.053  1.2673  0.2508 -1.7058
38854SOL    HW222526   5.270   2.504   3.986  0.4177 -0.5205 -0.1261
38855SOL     OW22527   9.563   2.306   4.578 -0.0454 -0.2977  0.5817
38855SOL    HW122528   9.631   2.350   4.629 -2.7143  0.1560  4.0997
38855SOL    HW222529   9.589   2.214   4.578  1.5287  0.1095  0.0404
38856SOL     OW22530   7.596   6.483  12.462 -0.4031  0.3107  1.0520
38856SOL    HW122531   7.683   6.520  12.446  0.0816 -0.7488  1.1338
38856SOL    HW222532   7.613   6.392  12.484 -1.6567 -0.4291 -0.7823
38857SOL     OW22533   9.912   1.779   3.670 -0.3127  0.1055  0.2243
38857SOL    HW122534   9.933   1.869   3.643  0.1792  0.1505  0.7438
38857SOL    HW222535   9.911   1.729   3.589  0.9199  0.2781  0.0891
38858SOL     OW22536   1.246   5.655   3.356  0.0575 -0.4125 -0.3308
38858SOL    HW122537   1.225   5.584   3.416 -0.5152 -0.8669 -1.0533
38858SOL    HW222538   1.247   5.614   3.269 -0.2849  0.4643 -0.7615
38859SOL     OW22539  11.532   4.171   7.553  0.6903  0.0707  0.0822
38859SOL    HW122540  11.466   4.224   7.598  0.1122 -2.0967  2.0197
38859SOL    HW222541  11.485   4.135   7.477 -0.5755 -1.6007  1.5388
38860SOL     OW22542   9.106   5.582   1.095 -0.0083 -1.0310  0.3839
38860SOL    HW122543   9.143   5.553   1.012 -0.7725 -1.8311  0.3109
38860SOL    HW222544   9.013   5.597   1.077 -0.3178 -1.8086  1.2078
38861SOL     OW22545   4.552  10.317  10.553  0.1354  0.0031  0.1076
38861SOL    HW122546   4.523  10.382  10.488 -0.0530 -1.9644 -1.9176
38861SOL    HW222547   4.643  10.299  10.530 -0.2706 -1.5669 -0.4446
38862SOL     OW22548   5.585  12.280   6.445  0.3061 -0.8471  0.2112
38862SOL    HW122549   5.504  12.329   6.461  0.5596 -0.2327 -0.3266
38862SOL    HW222550   5.557  12.189   6.438 -0.2176 -0.7586  0.9276
38863SOL     OW22551  10.261  10.238   7.968 -0.2847  0.4038  0.3901
38863SOL    HW122552  10.308  10.239   8.051  0.7795 -0.0521 -0.1919
38863SOL    HW222553  10.175  10.201   7.989  0.1433 -0.1441  1.1945
38864SOL     OW22554   3.752   5.467   9.348  0.4638  0.5683 -0.0632
38864SOL    HW122555   3.737   5.408   9.422  1.5688 -0.6190 -0.7537
38864SOL    HW222556   3.718   5.552   9.378 -1.6974 -0.5037  0.7487
38865SOL     OW22557   8.622   7.246   2.499 -0.1149  0.2439  0.0230
38865SOL    HW122558   8.592   7.191   2.427 -2.0579 -0.0474  0.9834
38865SOL    HW222559   8.665   7.320   2.457  0.3153 -0.7706 -1.3694
38866SOL     OW22560   4.058   1.478   4.611 -0.1349 -0.0574 -0.5733
38866SOL    HW122561   4.062   1.390   4.648  1.0157  0.7365  1.3616
38866SOL    HW222562   4.130   1.525   4.653 -0.9272  1.9051 -1.2782
38867SOL     OW22563   4.272   1.101   1.781  0.2361  0.1790  0.2660
38867SOL    HW122564   4.355   1.141   1.756 -0.8079  1.2888 -1.7229
38867SOL    HW222565   4.250   1.142   1.864  2.1367 -0.9144  1.3627
38868SOL     OW22566  11.985  12.208  12.184 -0.5427 -0.3349 -0.3686
38868SOL    HW122567  12.028  12.130  12.220  0.0878 -0.5486 -1.5453
38868SOL    HW222568  11.910  12.223  12.242  0.8204 -0.2456  1.4626
38869SOL     OW22569   7.018   6.130  10.804 -0.5630  0.3550 -0.2502
38869SOL    HW122570   7.093   6.185  10.782 -1.7249  1.8737 -0.5974
38869SOL    HW222571   7.041   6.044  10.770  1.5247  0.4497  0.7287
38870SOL     OW22572   5.695   8.710  11.172  0.1481  0.2006  0.4634
38870SOL    HW122573   5.718   8.726  11.264  2.6817  0.4343 -0.1283
38870SOL    HW222574   5.748   8.634  11.148  0.3867  0.8453 -1.1064
38871SOL     OW22575   9.029   4.694  10.507 -0.3508  0.8104  0.0552
38871SOL    HW122576   9.119   4.727  10.503  0.5944 -1.4323  0.9103
38871SOL    HW222577   9.006   4.673  10.417  1.3117 -1.7016  0.1256
38872SOL     OW22578   1.504   8.687   5.584  0.2895  0.7280  1.0298
38872SOL    HW122579   1.537   8.597   5.583 -0.8167  0.2702  2.2835
38872SOL    HW222580   1.413   8.679   5.614 -0.2388  2.1534 -0.1062
38873SOL     OW22581   3.516   7.253   8.966  0.4387  0.1406  0.3182
38873SOL    HW122582   3.459   7.177   8.954 -0.1752  0.5290  0.6793
38873SOL    HW222583   3.604   7.221   8.947  0.0494 -0.3695 -0.6945
38874SOL     OW22584   1.048   8.937   3.965  0.3817 -0.6515  0.3668
38874SOL    HW122585   0.977   8.945   3.902  0.8215  2.9822  0.0797
38874SOL    HW222586   1.013   8.883   4.035 -2.1323 -0.2105 -0.4596
38875SOL     OW22587   4.233   7.442   3.786 -0.5157  0.2317 -0.5309
38875SOL    HW122588   4.309   7.385   3.801 -1.0962 -0.2324  0.8206
38875SOL    HW222589   4.271   7.527   3.763  0.4978  0.4864  1.8124
38876SOL     OW22590   3.911   5.093   6.881  0.2224 -0.3079  0.1670
38876SOL    HW122591   3.935   5.103   6.788  0.0145  0.5630  0.1990
38876SOL    HW222592   3.885   5.001   6.889  0.6493 -0.5012 -0.5433
38877SOL     OW22593   5.187   8.866   8.715 -0.1381 -0.2895  0.3447
38877SOL    HW122594   5.224   8.951   8.740 -0.9410 -0.0348  0.6896
38877SOL    HW222595   5.096   8.870   8.743  0.0475 -1.6384  1.2700
38878SOL     OW22596  11.847   0.432   4.651 -0.5693 -0.5519 -0.0926
38878SOL    HW122597  11.881   0.427   4.561  0.6536  0.5456  0.2864
38878SOL    HW222598  11.763   0.385   4.647 -1.4788  1.0929 -2.2605
38879SOL     OW22599  11.569   6.855  12.191 -0.6044 -0.4461 -0.4166
38879SOL    HW122600  11.628   6.879  12.262 -0.8792 -0.1097 -0.2956
38879SOL    HW222601  11.482   6.881  12.223 -0.6996 -0.0475 -0.9805
38880SOL     OW22602   3.492  12.126  10.308 -0.0299 -0.4682  0.1561
38880SOL    HW122603   3.582  12.099  10.330 -0.1278 -0.2720  0.8147
38880SOL    HW222604   3.445  12.120  10.391 -0.3622  0.4989  0.0421
38881SOL     OW22605  12.206   1.346   2.660  0.2483 -0.5290 -0.3523
38881SOL    HW122606  12.161   1.359   2.577 -0.9829  0.4217  0.4304
38881SOL    HW222607  12.221   1.434   2.694  1.6000 -0.8708  0.0053
38882SOL     OW22608  11.424  12.190  12.062 -0.3006  0.3339  0.0603
38882SOL    HW122609  11.344  12.139  12.076  1.1920 -2.2457 -0.2200
38882SOL    HW222610  11.440  12.183  11.968  1.0509 -0.5420  0.3293
38883SOL     OW22611   9.186  11.097   9.715 -0.0395  0.2622 -0.1578
38883SOL    HW122612   9.101  11.057   9.733 -0.2491  0.8986  0.3071
38883SOL    HW222613   9.164  11.175   9.663 -0.0314  2.0185  2.3027
38884SOL     OW22614   4.958  10.771  10.340  0.0154  0.0651  0.2586
38884SOL    HW122615   4.906  10.819  10.274  0.3568 -0.9645 -0.7989
38884SOL    HW222616   4.992  10.695  10.292  3.5163  1.2701  0.5323
38885SOL     OW22617   3.422   5.007   1.362  0.3822  0.8359 -0.4502
38885SOL    HW122618   3.487   5.006   1.292  0.7614  1.4409 -0.1187
38885SOL    HW222619   3.394   5.099   1.367 -0.3526  0.6218 -0.4488
38886SOL     OW22620   3.921   2.685   2.264  0.1334  0.0569 -0.0573
38886SOL    HW122621   3.864   2.688   2.341  1.6604  0.6705  1.1008
38886SOL    HW222622   3.903   2.600   2.224 -0.2881 -0.5121  1.2940
38887SOL     OW22623   6.314   8.604   0.461 -0.1479  0.7403  0.0566
38887SOL    HW122624   6.331   8.565   0.547 -2.5230  0.0951  0.3091
38887SOL    HW222625   6.388   8.576   0.407 -0.2601 -1.6825  1.0304
38888SOL     OW22626  11.242   6.151   0.823  0.3125  0.3042  0.0501
38888SOL    HW122627  11.290   6.116   0.748 -0.8966  0.1863 -0.7030
38888SOL    HW222628  11.305   6.152   0.895  1.7607  1.2526 -1.1868
38889SOL     OW22629   1.210   7.077   5.306 -0.1004  0.1269 -0.1162
38889SOL    HW122630   1.171   7.043   5.387 -0.6450  1.6626  0.2952
38889SOL    HW222631   1.139   7.072   5.241 -0.5407  1.4468  0.2297
38890SOL     OW22632  11.267   8.360  12.140 -0.6680 -0.4321 -0.0609
38890SOL    HW122633  11.296   8.330  12.226  1.1551 -0.5189 -0.6696
38890SOL    HW222634  11.197   8.299  12.116 -1.9681  0.2271  1.7744
38891SOL     OW22635   6.863   2.369   3.527 -0.0630 -0.0136 -0.3716
38891SOL    HW122636   6.886   2.278   3.508 -0.4408 -0.3733  0.7799
38891SOL    HW222637   6.858   2.372   3.622 -2.8511  0.4820 -0.4493
38892SOL     OW22638   8.621   4.058   9.610  0.9442  0.3793  0.3484
38892SOL    HW122639   8.657   4.049   9.522 -0.7845  1.0353 -0.4620
38892SOL    HW222640   8.546   3.999   9.612  0.5226  0.9226  1.1314
38893SOL     OW22641  11.018   6.617   1.685  0.0787  0.2926 -0.6477
38893SOL    HW122642  10.946   6.576   1.637  0.3292 -0.5894 -0.2783
38893SOL    HW222643  11.097   6.584   1.643  0.3041 -0.5701  0.4198
38894SOL     OW22644   0.481   9.600   6.769  0.1328  0.1541 -0.0765
38894SOL    HW122645   0.414   9.547   6.725  0.2942 -1.3229  1.3559
38894SOL    HW222646   0.433   9.677   6.799 -0.7825 -0.5104  0.2440
38895SOL     OW22647   6.457   1.779  10.300 -0.1190  0.4340 -0.3378
38895SOL    HW122648   6.434   1.854  10.245 -0.5049 -0.0744 -0.8908
38895SOL    HW222649   6.491   1.817  10.381  0.7590  1.2028 -1.0517
38896SOL     OW22650   0.637   2.191  12.172  0.1645 -0.2136 -0.1760
38896SOL    HW122651   0.630   2.284  12.152 -0.0132 -0.3454 -0.7343
38896SOL    HW222652   0.683   2.188  12.256 -2.3464  0.5091  1.3404
38897SOL     OW22653   0.559   8.293   6.997  0.0406 -0.0935 -0.0557
38897SOL    HW122654   0.490   8.233   6.968  0.9106 -0.7772 -0.7499
38897SOL    HW222655   0.633   8.275   6.939 -0.4164  3.3474 -1.9539
38898SOL     OW22656  10.070   5.758  11.023 -0.0174  0.1219  0.3849
38898SOL    HW122657  10.098   5.699  11.092 -0.1804  1.0297  1.2399
38898SOL    HW222658   9.984   5.725  10.996  0.4039 -0.7221  0.0136
38899SOL     OW22659   1.093   1.150  11.964  0.0026 -0.3618  0.3332
38899SOL    HW122660   1.047   1.095  12.028  1.1933  0.6295  2.1332
38899SOL    HW222661   1.125   1.224  12.015  0.2830  0.9377 -1.6107
38900SOL     OW22662   8.843   0.595   3.660 -0.1790  0.2571 -0.0009
38900SOL    HW122663   8.810   0.596   3.750  0.4219 -2.3654  0.3475
38900SOL    HW222664   8.771   0.558   3.608  0.4070 -0.7815 -0.0995
38901SOL     OW22665  11.159   0.654   2.430  0.7364 -0.0502  0.5266
38901SOL    HW122666  11.093   0.677   2.364  0.7045 -2.4779 -0.4052
38901SOL    HW222667  11.207   0.736   2.445 -0.6380  1.0975 -0.8992
38902SOL     OW22668  11.637   3.982   3.017 -0.6254 -0.6154 -0.2857
38902SOL    HW122669  11.659   3.962   2.926 -1.4022 -1.2550 -0.3511
38902SOL    HW222670  11.610   3.898   3.053 -0.9724 -0.2376  0.3435
38903SOL     OW22671   3.173   3.242   6.611  0.1682 -0.1880  0.1285
38903SOL    HW122672   3.214   3.175   6.556 -0.9422 -1.9531  1.3552
38903SOL    HW222673   3.232   3.317   6.605  2.2041 -1.7327 -0.2078
38904SOL     OW22674   6.456   1.700   2.400 -0.5906  0.1587 -0.0305
38904SOL    HW122675   6.439   1.607   2.386  0.0381  0.1198 -0.6119
38904SOL    HW222676   6.510   1.726   2.325  1.7515  0.3066  1.6185
38905SOL     OW22677   8.833   0.860   6.229  0.8169 -0.4942  0.2853
38905SOL    HW122678   8.740   0.854   6.251  0.7470  1.9345  0.8905
38905SOL    HW222679   8.872   0.780   6.265 -1.1441 -2.0552 -0.8455
38906SOL     OW22680   6.474   5.893   4.723  0.0515 -0.7059  0.6229
38906SOL    HW122681   6.477   5.951   4.647 -0.0232  0.4660  1.4968
38906SOL    HW222682   6.535   5.823   4.701  1.0166  0.2893  0.0039
38907SOL     OW22683   6.239   9.620   3.375  0.5946 -0.4251  0.1638
38907SOL    HW122684   6.304   9.687   3.395 -0.2555  0.3712  0.3351
38907SOL    HW222685   6.273   9.540   3.415  2.0178 -0.2892 -0.7348
38908SOL     OW22686   9.391   9.775  11.847  0.1523  0.4230 -0.1589
38908SOL    HW122687   9.425   9.704  11.902  0.5857 -0.7294 -1.8436
38908SOL    HW222688   9.380   9.735  11.761 -0.1667  2.2660 -1.0094
38909SOL     OW22689   2.377   0.424  11.655  0.3152  0.2514 -0.2009
38909SOL    HW122690   2.410   0.439  11.743  0.1250 -1.5790  0.2303
38909SOL    HW222691   2.384   0.329  11.642 -1.9184  0.1400 -1.2263
38910SOL     OW22692   1.990   9.986   8.520  0.4992  0.3250  0.2470
38910SOL    HW122693   2.012   9.966   8.429  0.2798  1.4286 -0.0586
38910SOL    HW222694   1.902   9.949   8.531  0.0674  1.1301 -0.3367
38911SOL     OW22695   3.902   4.497   2.778  0.6014 -0.5213  0.0158
38911SOL    HW122696   3.842   4.429   2.808  0.3675 -0.3369 -0.0277
38911SOL    HW222697   3.886   4.571   2.837  1.3756 -0.7522  0.5296
38912SOL     OW22698   7.700   9.778   3.309  0.4479 -0.2476 -0.6250
38912SOL    HW122699   7.766   9.710   3.317 -1.4824 -2.3304 -1.2582
38912SOL    HW222700   7.678   9.780   3.215  0.2415  1.0456 -0.5714
38913SOL     OW22701   7.054   8.365   9.533 -0.1204  0.2227  1.0329
38913SOL    HW122702   6.991   8.385   9.464  1.8049  2.1779 -0.2816
38913SOL    HW222703   7.028   8.420   9.606 -1.0955 -0.4928  1.2440
38914SOL     OW22704   5.069   2.806   5.189 -0.6828  0.6025 -0.1446
38914SOL    HW122705   5.053   2.757   5.108 -0.3061  0.2961 -0.0396
38914SOL    HW222706   5.009   2.768   5.253  0.3414 -0.4803  0.2241
38915SOL     OW22707   3.419   9.473   0.513 -0.2467  0.1918  0.4552
38915SOL    HW122708   3.438   9.552   0.462  0.5696  0.5316  1.2385
38915SOL    HW222709   3.455   9.492   0.600  0.3295 -1.2014  0.5518
38916SOL     OW22710  12.460   4.195   8.425 -0.1582  0.4429  0.1976
38916SOL    HW122711  12.378   4.148   8.441  0.6917 -0.8792  0.8536
38916SOL    HW222712  12.437   4.287   8.435 -1.9361  0.2511 -1.3373
38917SOL     OW22713   0.884   1.237   0.074 -0.8304  0.3140 -0.6258
38917SOL    HW122714   0.815   1.262   0.013 -0.9383  1.2044 -0.1555
38917SOL    HW222715   0.864   1.285   0.154  0.2914  0.5393 -0.4558
38918SOL     OW22716  10.378  12.173   8.264  0.0254  0.2602 -0.2898
38918SOL    HW122717  10.328  12.227   8.203 -1.1244 -1.5644 -1.0400
38918SOL    HW222718  10.319  12.102   8.288  1.1384 -0.1527  1.4379
38919SOL     OW22719   7.093  11.108   0.753 -0.0092  0.9318  0.3421
38919SOL    HW122720   7.074  11.171   0.823  0.7038  2.6391 -0.9445
38919SOL    HW222721   7.032  11.131   0.683  0.3656  0.2625 -0.2086
38920SOL     OW22722   6.560  10.052  10.788  0.4056  0.2098 -0.4820
38920SOL    HW122723   6.522   9.990  10.851 -1.7289  2.3900  0.5688
38920SOL    HW222724   6.555  10.006  10.704 -0.9952 -1.1129  0.2600
38921SOL     OW22725   5.282   2.777   0.368 -0.2650 -0.0169  0.1990
38921SOL    HW122726   5.298   2.702   0.311  0.0762  0.4792 -0.3650
38921SOL    HW222727   5.365   2.825   0.368 -0.0256 -0.3793  1.6761
38922SOL     OW22728   2.011  11.607   2.845 -0.1763 -0.0980  0.2778
38922SOL    HW122729   2.091  11.598   2.794 -0.4138 -0.4144 -0.0395
38922SOL    HW222730   2.041  11.638   2.931  0.5065 -2.2980  0.8759
38923SOL     OW22731  11.302   9.472  10.725  0.2294  0.3251  0.3383
38923SOL    HW122732  11.225   9.509  10.683  0.7969  0.7992 -0.3099
38923SOL    HW222733  11.275   9.453  10.814 -1.3131 -1.5899 -0.4510
38924SOL     OW22734   1.327  11.554   3.914  0.2707  0.1395 -0.1965
38924SOL    HW122735   1.365  11.642   3.918 -0.3796  0.4030  0.5208
38924SOL    HW222736   1.402  11.495   3.916  0.7202  0.6772 -0.8415
38925SOL     OW22737   4.828   4.331   6.789  0.3503 -0.2296 -1.1158
38925SOL    HW122738   4.863   4.347   6.701 -0.9539  1.2217 -1.4072
38925SOL    HW222739   4.744   4.287   6.774  0.4545 -0.6375 -0.5579
38926SOL     OW22740   6.640  10.446   8.876 -0.0278 -0.7347 -0.2954
38926SOL    HW122741   6.628  10.409   8.789 -0.4004  0.7693 -0.9217
38926SOL    HW222742   6.551  10.465   8.906  0.1677  3.0567 -1.6000
38927SOL     OW22743   9.280  11.137   0.511 -0.0211 -0.1930  0.8398
38927SOL    HW122744   9.249  11.176   0.429  1.1723  2.2644  1.4653
38927SOL    HW222745   9.205  11.143   0.570 -0.2233  0.0515  0.5613
38928SOL     OW22746   4.727   1.166  11.205 -0.3126  0.1284 -0.6522
38928SOL    HW122747   4.686   1.222  11.271 -0.8852 -1.1779  0.1356
38928SOL    HW222748   4.821   1.180  11.218 -0.3967 -0.4406  0.7753
38929SOL     OW22749   8.713   0.331   1.034 -0.5524 -0.1864  0.0385
38929SOL    HW122750   8.760   0.255   0.999  0.8601  0.1792  1.0403
38929SOL    HW222751   8.636   0.293   1.077 -1.1632 -0.8128 -1.5457
38930SOL     OW22752   9.962   7.602   0.052  0.7882  0.5595 -0.0235
38930SOL    HW122753   9.975   7.531   0.114  2.4662 -0.0594 -1.0165
38930SOL    HW222754   9.995   7.680   0.098 -1.7515  0.9371  1.3565
38931SOL     OW22755  12.024   4.838   8.118 -0.2488 -0.4836 -0.9164
38931SOL    HW122756  11.942   4.812   8.159  1.0575 -0.0422  2.3622
38931SOL    HW222757  12.026   4.792   8.035 -3.4070 -1.1358 -0.7315
38932SOL     OW22758  10.964   5.126   8.174  0.2695  0.0454 -0.4112
38932SOL    HW122759  10.953   5.036   8.143 -1.9923  0.5146 -1.1228
38932SOL    HW222760  10.902   5.135   8.246 -0.2741  1.3166 -1.0043
38933SOL     OW22761   5.735   5.692   4.255 -0.3797 -0.0616 -0.8810
38933SOL    HW122762   5.762   5.607   4.288 -2.6834 -0.8120 -0.7441
38933SOL    HW222763   5.817   5.736   4.231  1.0228 -1.4406  1.0626
38934SOL     OW22764   2.232  10.412   8.714 -0.1463  0.3409 -0.0301
38934SOL    HW122765   2.195  10.500   8.724 -0.8854 -0.0705  0.9814
38934SOL    HW222766   2.159  10.353   8.734  0.5971 -0.4951  0.2512
38935SOL     OW22767   3.549   4.093  10.193 -0.5446 -0.2513  0.1570
38935SOL    HW122768   3.619   4.028  10.179 -1.2183 -1.1833  0.9708
38935SOL    HW222769   3.468   4.043  10.181 -1.1058  0.9570 -1.3993
38936SOL     OW22770   8.513   5.080   8.551  0.4121 -0.1158  0.1834
38936SOL    HW122771   8.521   5.016   8.480  1.4487 -0.1486  0.3132
38936SOL    HW222772   8.428   5.122   8.536  0.0037 -1.0806 -0.2703
38937SOL     OW22773   0.312   5.906   7.858 -0.7640  0.5499  0.4759
38937SOL    HW122774   0.379   5.886   7.923 -0.3907  2.1701  0.6379
38937SOL    HW222775   0.309   6.002   7.855 -1.1794  0.5281 -1.4825
38938SOL     OW22776  11.321   5.014  11.752 -0.1501 -0.2976  0.2814
38938SOL    HW122777  11.331   5.095  11.801 -0.5230 -0.0369 -0.0620
38938SOL    HW222778  11.381   5.023  11.677  0.9180 -0.9759  1.0261
38939SOL     OW22779   9.877   1.715   6.380 -0.0819  0.4301 -0.2787
38939SOL    HW122780   9.838   1.802   6.388  0.8408  0.7550  1.1229
38939SOL    HW222781   9.971   1.732   6.371  0.0517 -0.4120 -0.5755
38940SOL     OW22782   9.024  10.053   7.830 -0.1547  0.5143 -0.0371
38940SOL    HW122783   8.979  10.072   7.748  1.6709  1.4594 -0.8888
38940SOL    HW222784   9.079   9.977   7.811  1.4639  1.6790 -0.2186
38941SOL     OW22785   3.192   9.327   3.331 -0.2893 -0.0743  0.2853
38941SOL    HW122786   3.125   9.380   3.375 -1.6237 -0.4749 -1.1517
38941SOL    HW222787   3.198   9.365   3.243  0.5658 -0.7520  0.0376
38942SOL     OW22788   1.058  12.106  10.128  0.7280 -0.0545 -0.2870
38942SOL    HW122789   1.130  12.114  10.191  1.2664  1.9008 -1.0683
38942SOL    HW222790   0.981  12.137  10.175  0.9042  0.2981 -0.2300
38943SOL     OW22791  11.862   4.134   8.682 -0.2885 -0.5281 -0.0513
38943SOL    HW122792  11.932   4.091   8.732 -0.4462 -1.1686 -0.3699
38943SOL    HW222793  11.781   4.107   8.726 -0.3117  1.0534  0.9636
38944SOL     OW22794   7.317   7.431   9.758 -0.0871  0.0190 -0.7974
38944SOL    HW122795   7.222   7.430   9.754 -0.0323 -0.2046 -3.4622
38944SOL    HW222796   7.344   7.344   9.730  0.9241 -0.0717  0.3664
38945SOL     OW22797   8.352  10.237   2.304 -0.2648 -0.3491 -0.0242
38945SOL    HW122798   8.320  10.149   2.320 -0.0471  0.1502  4.4811
38945SOL    HW222799   8.368  10.273   2.392  1.2791  3.5842 -1.6823
38946SOL     OW22800   0.813   1.492   2.599 -0.0012 -0.4770  0.0166
38946SOL    HW122801   0.790   1.551   2.670 -0.8355 -0.0919 -0.5495
38946SOL    HW222802   0.730   1.450   2.575  0.0322  0.2053 -1.4267
38947SOL     OW22803   9.884   2.530   0.717 -0.0418 -0.8598  0.0237
38947SOL    HW122804   9.848   2.572   0.638 -0.9254  1.5905  1.6070
38947SOL    HW222805   9.978   2.527   0.702  0.0861  1.7340 -0.2887
38948SOL     OW22806   4.129  11.872   9.395  0.1583  0.2560 -0.2669
38948SOL    HW122807   4.102  11.895   9.306 -0.9402 -1.1413 -0.3371
38948SOL    HW222808   4.048  11.879   9.447 -0.0048 -2.1106 -0.0786
38949SOL     OW22809   3.888   9.225   6.632  0.0169  0.4671  0.2873
38949SOL    HW122810   3.941   9.302   6.654  1.6563 -0.7272  0.7067
38949SOL    HW222811   3.893   9.170   6.710  1.0464 -1.2031 -0.8844
38950SOL     OW22812   9.302  12.291   1.228  0.1667  0.3647 -0.3532
38950SOL    HW122813   9.291  12.202   1.263 -0.1179 -0.1742 -1.7439
38950SOL    HW222814   9.393  12.293   1.199  0.6274  1.0652  1.0368
38951SOL     OW22815   2.639  11.135  10.200  0.1123  0.1622 -0.3849
38951SOL    HW122816   2.688  11.067  10.153 -1.6746 -1.4066 -0.0748
38951SOL    HW222817   2.695  11.156  10.275  0.4007 -1.5293 -0.0711
38952SOL     OW22818   3.334   5.438  12.295  0.4368  0.5519  0.2506
38952SOL    HW122819   3.323   5.357  12.344 -1.9984  2.0231  2.4108
38952SOL    HW222820   3.411   5.480  12.335  0.6730  0.0850  0.2932
38953SOL     OW22821   3.806  10.020   8.172  0.1363 -0.2400  0.1649
38953SOL    HW122822   3.748  10.037   8.247  0.0560  0.7146 -0.1052
38953SOL    HW222823   3.762   9.949   8.124 -0.4562 -0.0055  0.3479
38954SOL     OW22824   4.556   4.845   4.345 -0.4569 -0.2309  0.4459
38954SOL    HW122825   4.518   4.828   4.431  0.4770  1.5022  1.2565
38954SOL    HW222826   4.643   4.881   4.364 -0.1498 -0.0173 -1.2313
38955SOL     OW22827  10.414   7.016   7.013 -0.3245  0.3266  0.1813
38955SOL    HW122828  10.350   7.081   7.044 -1.3121 -0.1478 -0.7833
38955SOL    HW222829  10.406   7.019   6.918 -0.8497 -1.6515  0.1326
38956SOL     OW22830   4.822   2.529   6.095  0.3119  0.5346  0.1076
38956SOL    HW122831   4.898   2.471   6.105 -0.7088 -0.8242  0.3046
38956SOL    HW222832   4.815   2.544   6.001  0.3863  0.0483  0.0234
38957SOL     OW22833   7.533  11.414   1.163 -0.2553  0.2391 -0.1849
38957SOL    HW122834   7.606  11.475   1.156 -1.2500  1.4392 -0.3862
38957SOL    HW222835   7.498  11.409   1.074 -0.4818 -0.2557 -0.0706
38958SOL     OW22836   6.599   3.738  12.017 -0.2359  0.1838  0.5671
38958SOL    HW122837   6.582   3.830  11.994 -1.3974  0.4883  2.4042
38958SOL    HW222838   6.546   3.688  11.956 -0.3370  0.7860  0.1523
38959SOL     OW22839   5.285   9.201   4.648  0.8493 -0.0400 -0.8787
38959SOL    HW122840   5.294   9.216   4.742 -1.0888 -0.9971 -0.4959
38959SOL    HW222841   5.371   9.223   4.612  1.3527  1.2496  0.9788
38960SOL     OW22842  11.527   6.455   2.551 -0.1605  0.3449  0.3526
38960SOL    HW122843  11.600   6.393   2.553 -1.2555 -0.9824  1.7102
38960SOL    HW222844  11.468   6.420   2.485 -0.8234 -0.1572  1.1875
38961SOL     OW22845   5.957   1.340   9.198 -0.5591  0.0056  0.4354
38961SOL    HW122846   6.025   1.290   9.154 -1.3097 -0.0769 -0.6690
38961SOL    HW222847   5.897   1.274   9.232 -1.7775  0.0973 -1.3889
38962SOL     OW22848   3.230  11.834   8.654  0.0779 -0.1045 -0.8865
38962SOL    HW122849   3.194  11.783   8.726 -1.8536  0.1573 -1.6173
38962SOL    HW222850   3.171  11.908   8.645  1.1432  0.6713 -1.7948
38963SOL     OW22851  12.016   7.383   8.327 -0.4457 -0.2939  0.7186
38963SOL    HW122852  12.084   7.416   8.386 -1.1651 -0.3107  1.5585
38963SOL    HW222853  12.065   7.335   8.260  0.2443 -2.4867  2.6958
38964SOL     OW22854  10.093   5.215   3.361 -0.6687  0.1074  0.5779
38964SOL    HW122855  10.117   5.253   3.445  0.7604 -0.9111  0.6756
38964SOL    HW222856  10.101   5.287   3.299 -1.4739  0.8033  1.2607
38965SOL     OW22857   5.105  10.426   9.325 -0.7440 -0.2303  0.2014
38965SOL    HW122858   5.155  10.352   9.289 -1.8670 -0.0898 -1.7783
38965SOL    HW222859   5.147  10.503   9.288 -0.0583  0.1295  1.6545
38966SOL     OW22860   3.343   5.222  10.705 -0.5905 -0.0396 -0.5282
38966SOL    HW122861   3.344   5.315  10.726 -1.9984  0.0291 -0.6700
38966SOL    HW222862   3.427   5.189  10.737  0.3378  1.4510 -1.3179
38967SOL     OW22863   6.810   6.454   9.510  0.5906  0.4393  0.1695
38967SOL    HW122864   6.822   6.373   9.460  0.8933  1.2165 -1.0709
38967SOL    HW222865   6.731   6.438   9.562  1.1153 -0.9506  0.5926
38968SOL     OW22866  10.322   8.975   8.817  0.1547 -0.1240 -0.4469
38968SOL    HW122867  10.255   8.982   8.750  1.3235 -0.5092 -1.7132
38968SOL    HW222868  10.402   9.008   8.775  0.7795  0.2608  0.9774
38969SOL     OW22869  10.189   3.455   9.648 -0.2247  0.8087 -0.0790
38969SOL    HW122870  10.213   3.485   9.736  1.8298 -0.8197 -0.0096
38969SOL    HW222871  10.158   3.366   9.660 -1.4698  1.1095 -0.8587
38970SOL     OW22872   8.697   6.829  11.220  0.4700 -0.1223 -0.6116
38970SOL    HW122873   8.728   6.769  11.153  1.9461  0.7663 -0.7729
38970SOL    HW222874   8.696   6.777  11.301  0.1853 -0.7735 -1.0300
38971SOL     OW22875   5.555   7.354   1.681  0.3021  0.1806 -0.3637
38971SOL    HW122876   5.482   7.294   1.663 -0.2563  0.9376 -0.6428
38971SOL    HW222877   5.627   7.296   1.705 -0.2811 -0.6021 -0.4439
38972SOL     OW22878  10.431   6.243  11.956  0.4793  0.0571 -0.2156
38972SOL    HW122879  10.502   6.305  11.942  0.6189 -0.2492 -0.9238
38972SOL    HW222880  10.426   6.193  11.874  0.2054 -0.6913  0.2422
38973SOL     OW22881   4.932  11.955   3.027  0.7527 -0.1007 -0.0448
38973SOL    HW122882   4.979  11.982   2.948  1.3411  0.1875  0.3932
38973SOL    HW222883   5.001  11.941   3.092  0.1799  2.3137  1.2314
38974SOL     OW22884   6.975  12.110   2.897  0.0702 -0.0842  0.5649
38974SOL    HW122885   7.023  12.033   2.865  0.3456 -0.2285  1.3185
38974SOL    HW222886   6.908  12.075   2.955 -0.5982  0.1623 -0.0327
38975SOL     OW22887   5.783   7.689   0.423  0.0454  0.1997 -0.6009
38975SOL    HW122888   5.772   7.784   0.428  0.0176  0.1955 -0.5805
38975SOL    HW222889   5.702   7.658   0.382  0.1343  0.2034 -0.7785
38976SOL     OW22890   1.484   2.915   9.990 -0.4359  0.0885 -0.2348
38976SOL    HW122891   1.419   2.961  10.043 -2.6252 -0.5813 -2.1740
38976SOL    HW222892   1.558   2.975   9.985 -1.5905  1.6646  0.6271
38977SOL     OW22893   3.343   8.921   6.842  0.6382  0.0507 -0.2577
38977SOL    HW122894   3.330   8.952   6.932 -0.7751  0.5420 -0.6056
38977SOL    HW222895   3.435   8.941   6.823  1.1195 -0.5963  1.2593
38978SOL     OW22896   5.460   4.945   8.079  0.2520 -0.0407  0.8106
38978SOL    HW122897   5.431   4.922   7.991 -1.0601 -2.0850  1.7149
38978SOL    HW222898   5.417   5.029   8.097  0.3695  0.2976 -0.3954
38979SOL     OW22899   8.884   5.831   8.648 -0.2372  0.2563 -0.4798
38979SOL    HW122900   8.817   5.885   8.606 -0.5874  0.9505  0.8933
38979SOL    HW222901   8.838   5.751   8.672  0.0282 -0.2537 -1.6014
38980SOL     OW22902  10.014   6.003   5.641 -0.2998 -1.1897  0.4695
38980SOL    HW122903  10.011   6.070   5.709  0.0293  1.2399 -1.7419
38980SOL    HW222904  10.103   6.009   5.605 -1.0340 -0.9608 -1.4483
38981SOL     OW22905   0.832  10.246   9.219  0.1133  0.5756 -0.4384
38981SOL    HW122906   0.737  10.259   9.208  0.0207  2.3853  1.7041
38981SOL    HW222907   0.847  10.261   9.312  2.1143 -2.9068 -0.0233
38982SOL     OW22908   1.208   9.675   8.957 -0.2525 -0.5202  0.0924
38982SOL    HW122909   1.163   9.629   8.886 -1.5931 -0.3193  0.7829
38982SOL    HW222910   1.160   9.651   9.036 -1.2851  2.3211  0.4648
38983SOL     OW22911   5.400   0.920  12.399  0.1420  0.6135 -0.1652
38983SOL    HW122912   5.473   0.918  12.337  0.1920 -0.2391 -0.0946
38983SOL    HW222913   5.405   0.836  12.444  0.0650  1.1958  0.9544
38984SOL     OW22914   8.830   7.776  12.089 -0.1986 -0.0492 -0.7190
38984SOL    HW122915   8.874   7.837  12.148 -0.4259  0.2894 -0.9024
38984SOL    HW222916   8.764   7.733  12.144 -0.8614  0.7424 -0.8807
38985SOL     OW22917   5.468   5.229  11.802  0.2012  0.0991  0.1435
38985SOL    HW122918   5.488   5.212  11.710 -1.4567  0.5174 -0.3380
38985SOL    HW222919   5.551   5.217  11.848  1.2180  0.5580 -1.4924
38986SOL     OW22920  10.079   0.554   5.215 -0.2843  0.2635 -0.4242
38986SOL    HW122921   9.985   0.566   5.229 -0.6548 -2.6075  0.1134
38986SOL    HW222922  10.110   0.513   5.295  1.4417  1.0240 -0.6659
38987SOL     OW22923   2.150   1.414   7.663 -0.5686  0.1861 -0.4027
38987SOL    HW122924   2.146   1.449   7.574 -1.5343 -0.7058 -0.7396
38987SOL    HW222925   2.095   1.335   7.660 -0.7277  0.2103  1.0177
38988SOL     OW22926  10.766   7.244   0.563 -0.2566 -0.4860 -0.0464
38988SOL    HW122927  10.860   7.223   0.558  0.0991  0.9843 -0.1502
38988SOL    HW222928  10.724   7.182   0.503  0.7178 -0.8185 -0.4123
38989SOL     OW22929   5.599   6.554   0.182 -0.6570  0.3237  0.2212
38989SOL    HW122930   5.543   6.600   0.119 -0.6827  0.4529  0.3370
38989SOL    HW222931   5.566   6.582   0.268 -0.5776  0.2027  0.2908
38990SOL     OW22932   0.137   9.698   3.608 -0.1866 -0.2576  0.6796
38990SOL    HW122933   0.184   9.653   3.537 -0.8091 -1.1790  0.8377
38990SOL    HW222934   0.155   9.645   3.686 -0.6878 -0.0684  0.9257
38991SOL     OW22935  10.100   3.596   8.303  0.4734  0.1181  0.2151
38991SOL    HW122936  10.147   3.640   8.374 -0.4773  3.0535 -0.8429
38991SOL    HW222937  10.014   3.639   8.301 -0.3041 -1.4005 -1.3556
38992SOL     OW22938   5.502  12.239  10.705 -0.6579  0.2138 -0.0529
38992SOL    HW122939   5.514  12.329  10.676 -0.0314  0.1595  0.0164
38992SOL    HW222940   5.483  12.246  10.798 -1.3111  0.3135 -0.1945
38993SOL     OW22941   0.557   7.591   6.054  0.1194  0.0314 -0.3361
38993SOL    HW122942   0.479   7.581   6.110 -0.1688 -1.2339 -0.9428
38993SOL    HW222943   0.603   7.666   6.092 -1.0093  0.3510  0.4864
38994SOL     OW22944   4.114   0.354   6.803  0.2345  0.1629 -0.1440
38994SOL    HW122945   4.117   0.383   6.712 -0.6820  1.3430  0.1772
38994SOL    HW222946   4.093   0.261   6.798  0.3905  0.1681 -1.1398
38995SOL     OW22947   6.693   5.423  11.722  0.9390  0.0706  0.1900
38995SOL    HW122948   6.641   5.408  11.643 -0.6572  2.4450  0.6653
38995SOL    HW222949   6.670   5.351  11.780 -0.2935 -0.0346 -0.3861
38996SOL     OW22950   7.051   7.428   6.912 -0.1930 -0.3212 -0.0983
38996SOL    HW122951   7.122   7.439   6.849 -0.2459 -0.4137 -0.1738
38996SOL    HW222952   7.093   7.439   6.997  0.7754 -4.3912  0.1303
38997SOL     OW22953   8.165   8.398  10.239 -0.1950  0.0661  0.1070
38997SOL    HW122954   8.177   8.338  10.313  0.3779  1.0673  0.8635
38997SOL    HW222955   8.173   8.485  10.278  0.5730  0.6150 -1.2054
38998SOL     OW22956   1.908   0.345  10.588  0.2247  0.2820 -0.1614
38998SOL    HW122957   1.977   0.391  10.636  0.8547 -0.0364 -0.7446
38998SOL    HW222958   1.842   0.325  10.655  0.2747  1.3747  0.2377
38999SOL     OW22959  11.416   3.261   9.500 -0.5736  0.3800 -0.1244
38999SOL    HW122960  11.425   3.296   9.412 -0.4284 -2.4397 -1.3325
38999SOL    HW222961  11.495   3.290   9.546  0.6902 -0.2672 -1.7739
39000SOL     OW22962   4.570   2.618  10.221  0.9132 -0.0169  0.3395
39000SOL    HW122963   4.510   2.624  10.147  2.1561 -0.2620 -0.7391
39000SOL    HW222964   4.514   2.612  10.298 -0.4262  1.8461 -0.4275
39001SOL     OW22965   1.069   3.172   2.802  0.1238  0.3600  0.3611
39001SOL    HW122966   1.162   3.183   2.781  0.1347  0.1177  0.2754
39001SOL    HW222967   1.063   3.083   2.837  0.0125  0.5632  0.8639
39002SOL     OW22968   9.833  10.191   6.338 -0.0295 -0.2664 -0.2447
39002SOL    HW122969   9.906  10.253   6.339 -0.4343  0.2058  0.4715
39002SOL    HW222970   9.783  10.210   6.417 -0.6162 -0.9698 -0.4291
39003SOL     OW22971   9.148   5.359   4.053 -0.1987  0.0442 -0.0864
39003SOL    HW122972   9.092   5.289   4.087 -0.3441  0.7796  1.2681
39003SOL    HW222973   9.225   5.358   4.109  0.0905  0.5542 -0.4649
39004SOL     OW22974   4.886   1.122   7.691 -0.3022 -0.2434 -0.5329
39004SOL    HW122975   4.855   1.198   7.739 -0.0810  0.5937 -1.6952
39004SOL    HW222976   4.908   1.058   7.759 -0.7083  0.6330  0.4377
39005SOL     OW22977  11.749   3.061   7.567 -0.2818  0.4881  0.3758
39005SOL    HW122978  11.825   3.050   7.623  2.3179  2.4762 -2.4179
39005SOL    HW222979  11.742   2.979   7.518 -0.2332  0.1413  0.9510
39006SOL     OW22980   5.156   6.894   7.301 -0.2454 -0.0799  0.8043
39006SOL    HW122981   5.075   6.921   7.258  1.1677 -0.4729 -2.3349
39006SOL    HW222982   5.147   6.800   7.314 -0.6341  0.0211  1.2699
39007SOL     OW22983   3.718   1.693   5.493  0.1652  0.2680  0.0131
39007SOL    HW122984   3.623   1.699   5.494  0.2035  0.9615  0.1633
39007SOL    HW222985   3.737   1.603   5.519 -0.4971 -0.4535 -1.7712
39008SOL     OW22986  11.197   7.536  10.414  0.1006 -0.9092 -0.0402
39008SOL    HW122987  11.115   7.487  10.417  0.1166 -0.8689  1.4135
39008SOL    HW222988  11.252   7.495  10.480 -0.1018  1.4308  1.6774
39009SOL     OW22989   7.079   1.555   4.703  0.2202  0.3947  0.0379
39009SOL    HW122990   7.114   1.482   4.754 -0.6173  0.7268  1.1315
39009SOL    HW222991   7.042   1.614   4.768 -1.9730  0.2623 -0.9946
39010SOL     OW22992   5.699   4.481   3.958  0.5744 -0.0416 -0.1306
39010SOL    HW122993   5.648   4.445   4.031  0.4440  0.6502  0.1322
39010SOL    HW222994   5.634   4.496   3.889  0.3959  0.9092  0.2303
39011SOL     OW22995   4.817   5.614  10.826  0.1405  0.8133  0.1600
39011SOL    HW122996   4.896   5.665  10.808  0.6232 -0.1517 -0.5398
39011SOL    HW222997   4.808   5.557  10.750  0.5087 -1.2360  1.5880
39012SOL     OW22998   0.538   6.340   8.742 -0.0365  0.3584 -0.0869
39012SOL    HW122999   0.504   6.259   8.705 -0.5082  0.9277 -0.9283
39012SOL    HW223000   0.542   6.400   8.668 -2.8681  2.1567  1.0723
39013SOL     OW23001   9.305   2.639   0.921  0.0372 -0.2661  0.3264
39013SOL    HW123002   9.248   2.634   0.998 -1.8374 -1.7179 -1.0980
39013SOL    HW223003   9.309   2.550   0.888  4.2664 -0.5863  1.0349
39014SOL     OW23004   6.269   2.277   4.268  0.4785  0.7314 -0.0575
39014SOL    HW123005   6.215   2.214   4.316  0.2100  0.8451 -0.2041
39014SOL    HW223006   6.206   2.343   4.239  0.4580  0.0708 -1.5652
39015SOL     OW23007   6.431   9.865  11.858 -0.1578  0.3693  0.1355
39015SOL    HW123008   6.400   9.929  11.794 -0.6310 -0.7956 -0.8447
39015SOL    HW223009   6.434   9.913  11.941 -0.9244  1.5296 -0.4834
39016SOL     OW23010   6.089  12.175  10.278 -0.5177 -0.1583 -0.0074
39016SOL    HW123011   6.015  12.196  10.220 -0.0355  1.5707 -0.0329
39016SOL    HW223012   6.163  12.224  10.241  1.0827 -2.9649 -0.8663
39017SOL     OW23013   6.585   0.608   7.045  0.8871  0.0187 -0.7226
39017SOL    HW123014   6.553   0.630   6.957 -1.4501  2.0929  0.5392
39017SOL    HW223015   6.662   0.664   7.056 -1.1512  2.9295 -0.0665
39018SOL     OW23016  12.262   7.071   7.456  0.3667  0.4634  0.0648
39018SOL    HW123017  12.172   7.040   7.465  0.2631  0.8303  0.3373
39018SOL    HW223018  12.305   7.042   7.537  1.2264 -2.0658 -1.2041
39019SOL     OW23019   9.757   3.130   9.626  0.2544 -0.4881  0.2561
39019SOL    HW123020   9.709   3.198   9.579 -1.8030 -2.5285 -0.8677
39019SOL    HW223021   9.820   3.097   9.562 -0.0849 -0.8870  0.1197
39020SOL     OW23022   2.760   9.797  12.040  0.0199  0.4230  0.3062
39020SOL    HW123023   2.775   9.831  11.952 -2.6077 -1.2178 -0.9007
39020SOL    HW223024   2.714   9.868  12.086 -2.1914 -0.0552 -1.0173
39021SOL     OW23025   5.002   3.766   3.524  0.1310  0.5936 -0.1685
39021SOL    HW123026   5.019   3.685   3.573  2.3206  1.7477  1.1198
39021SOL    HW223027   5.038   3.749   3.437  0.7220  0.2277  0.1392
39022SOL     OW23028   3.995   0.818   0.111 -0.4189  0.2922  0.1735
39022SOL    HW123029   3.923   0.865   0.153 -0.0376 -0.9341  2.3889
39022SOL    HW223030   4.049   0.886   0.071 -1.2300  1.4850  1.0409
39023SOL     OW23031   5.066   8.370   9.015 -0.0933 -0.8118  0.5114
39023SOL    HW123032   5.086   8.336   9.102  0.4735  0.0974  0.7470
39023SOL    HW223033   5.143   8.422   8.991 -0.0141 -1.4846 -0.7645
39024SOL     OW23034   6.759   7.558  10.163  0.3670 -0.4472  0.6095
39024SOL    HW123035   6.835   7.503  10.142 -0.1954 -1.1453  0.3669
39024SOL    HW223036   6.684   7.503  10.143 -0.2509  0.8384 -0.8693
39025SOL     OW23037   1.758   0.963   3.494  0.3823 -0.4603 -0.1196
39025SOL    HW123038   1.790   1.052   3.482 -0.3868 -0.0352  0.8567
39025SOL    HW223039   1.771   0.921   3.409 -0.4004  0.9556 -0.9792
39026SOL     OW23040  10.194  10.771   4.573 -0.1659  0.4781  0.0270
39026SOL    HW123041  10.226  10.851   4.615 -0.2222  0.8349 -0.5862
39026SOL    HW223042  10.262  10.706   4.588 -0.4671  0.4209  1.1930
39027SOL     OW23043  10.765  11.956   4.761 -0.3150  0.0796  0.2074
39027SOL    HW123044  10.783  11.992   4.674  1.6833  0.1346  0.6029
39027SOL    HW223045  10.701  11.886   4.746  0.3931 -0.2623 -1.3663
39028SOL     OW23046  12.125   7.070   5.098 -0.2941  0.7134 -0.1458
39028SOL    HW123047  12.149   7.131   5.028 -0.1296  0.9754  0.1343
39028SOL    HW223048  12.183   6.995   5.086 -1.1858  0.1654 -1.1054
39029SOL     OW23049   5.299   1.162  11.625 -0.0360 -0.0149 -0.3373
39029SOL    HW123050   5.297   1.079  11.674 -0.4376 -1.0983 -2.0886
39029SOL    HW223051   5.350   1.142  11.546 -2.6172  0.4821 -2.2831
39030SOL     OW23052   3.332   5.136   4.708 -0.3205  0.4517 -0.3067
39030SOL    HW123053   3.317   5.155   4.801  1.1576 -3.0626  0.8400
39030SOL    HW223054   3.408   5.189   4.685  1.6473 -1.2538  1.7158
39031SOL     OW23055   0.070   9.678  10.236 -0.0686 -0.0565  0.0654
39031SOL    HW123056   0.123   9.753  10.210  0.7977 -1.1356 -1.4456
39031SOL    HW223057   0.015   9.659  10.161 -1.3617 -0.0556  0.9721
39032SOL     OW23058   2.776   9.754   2.052 -0.2134  0.2104 -0.6848
39032SOL    HW123059   2.841   9.799   1.998 -0.6904  0.5807 -0.9605
39032SOL    HW223060   2.757   9.673   2.005 -1.1430  0.8519 -1.4543
39033SOL     OW23061   3.605   8.944   7.528  0.0661 -0.2889 -0.2729
39033SOL    HW123062   3.525   8.970   7.575  0.2710 -2.9249  1.7452
39033SOL    HW223063   3.575   8.883   7.461  0.0029  2.0441 -2.5280
39034SOL     OW23064   2.423   4.312   2.272 -0.0783  0.4838 -0.7357
39034SOL    HW123065   2.355   4.372   2.242 -2.1158 -0.8022  1.0320
39034SOL    HW223066   2.417   4.237   2.213 -1.6734 -0.5123  0.6120
39035SOL     OW23067   4.743   6.750   9.978  0.2115 -0.3314  0.2311
39035SOL    HW123068   4.788   6.670   9.949  1.5287 -0.6623  2.8860
39035SOL    HW223069   4.653   6.722   9.994  0.4714 -1.1048  0.4028
39036SOL     OW23070  11.740  12.288   4.497 -0.2082  0.5988 -0.2611
39036SOL    HW123071  11.728  12.253   4.585  0.3602 -0.2964 -0.5233
39036SOL    HW223072  11.762  12.380   4.510  1.0228  0.2007  0.6057
39037SOL     OW23073   2.906   2.838   5.991 -0.1940  1.0599  0.0044
39037SOL    HW123074   2.905   2.877   6.079 -0.1628 -0.0338  0.5130
39037SOL    HW223075   2.848   2.763   5.998  1.3683 -0.2454 -0.3018
39038SOL     OW23076   8.700  11.921   4.256 -0.1220  0.2791 -0.1526
39038SOL    HW123077   8.787  11.895   4.225 -0.3860 -0.6342 -0.1711
39038SOL    HW223078   8.642  11.895   4.185 -0.3750  1.2261 -0.2982
39039SOL     OW23079   6.581   5.578   4.027  0.2021 -0.0649  0.4561
39039SOL    HW123080   6.533   5.498   4.007 -1.3377  0.6819  0.9882
39039SOL    HW223081   6.622   5.603   3.945 -1.8344  0.2273 -0.5290
39040SOL     OW23082   7.896  10.326   5.225  0.5269  0.0085  0.5248
39040SOL    HW123083   7.986  10.314   5.195  0.7162  4.1539 -1.2556
39040SOL    HW223084   7.903  10.344   5.319  1.2344 -1.8774  0.8636
39041SOL     OW23085  11.404   0.626   3.764 -0.1513 -0.2710  0.4830
39041SOL    HW123086  11.443   0.690   3.824  0.5920 -0.5098  0.2727
39041SOL    HW223087  11.310   0.633   3.778 -0.1113  1.1425  0.1900
39042SOL     OW23088   2.007  10.844   2.777 -0.1583 -0.1807 -0.3591
39042SOL    HW123089   2.023  10.863   2.870 -0.0642 -1.6644 -0.0453
39042SOL    HW223090   1.999  10.930   2.736  0.8630  0.5192  0.8390
39043SOL     OW23091   0.535   9.768   0.406  0.0203 -0.8436 -0.0677
39043SOL    HW123092   0.627   9.754   0.388 -0.0206 -0.7949 -0.3128
39043SOL    HW223093   0.497   9.679   0.408  0.3432 -0.9710  1.5215
39044SOL     OW23094   1.019   0.231   3.861 -0.2009  0.3850 -0.0178
39044SOL    HW123095   1.034   0.165   3.929  0.0671 -0.5962 -0.9943
39044SOL    HW223096   0.924   0.233   3.850 -0.1978 -0.0050 -0.1330
39045SOL     OW23097   7.701   0.667   7.896 -0.3643  0.2118 -0.1374
39045SOL    HW123098   7.729   0.737   7.837 -0.1693  2.7724  2.7936
39045SOL    HW223099   7.613   0.644   7.864  0.7224 -0.4639 -2.9726
39046SOL     OW23100   0.823   9.972   7.899 -0.1352 -0.2116  1.0581
39046SOL    HW123101   0.772  10.035   7.949  0.5951  1.5357 -0.2845
39046SOL    HW223102   0.788   9.977   7.810  0.2226 -1.4068  0.8258
39047SOL     OW23103   5.345   1.811   3.630  0.5366  0.0245 -0.1160
39047SOL    HW123104   5.317   1.738   3.685  0.7396  0.2420  0.2847
39047SOL    HW223105   5.275   1.876   3.637  0.7672  0.2388  0.2510
39048SOL     OW23106  10.198   1.212  11.335  0.2802  0.1941  0.0453
39048SOL    HW123107  10.151   1.295  11.334  0.7905  0.4890 -0.8855
39048SOL    HW223108  10.169   1.167  11.255  0.4219 -0.2826  0.2567
39049SOL     OW23109   3.295   3.639   7.469 -0.6674  0.3154  0.2196
39049SOL    HW123110   3.254   3.617   7.385  0.3932 -0.8509 -0.0197
39049SOL    HW223111   3.388   3.621   7.456 -0.3264  1.1479  1.3237
39050SOL     OW23112   9.341   3.092   8.753  0.2991 -0.1335  0.1554
39050SOL    HW123113   9.407   3.090   8.684  0.4631 -0.5656  0.3186
39050SOL    HW223114   9.270   3.146   8.718  1.2023  1.2515  0.4030
39051SOL     OW23115   5.469   7.808  10.531 -0.3471  0.0044  0.3716
39051SOL    HW123116   5.537   7.817  10.598 -0.5166  0.6667  0.4588
39051SOL    HW223117   5.482   7.883  10.473 -0.6820 -0.1492  0.0900
39052SOL     OW23118   1.164   7.931   3.539 -0.6872 -0.0910 -0.0578
39052SOL    HW123119   1.138   7.839   3.547  0.1971 -0.3198  0.3885
39052SOL    HW223120   1.086   7.976   3.508 -1.1622 -0.9805 -0.1869
39053SOL     OW23121   2.680   5.640   7.303  0.1138 -0.2776 -0.2462
39053SOL    HW123122   2.665   5.733   7.318  1.9792  0.3386 -1.7838
39053SOL    HW223123   2.743   5.637   7.231 -1.4713 -2.7598 -1.6903
39054SOL     OW23124   4.179   7.917   7.982 -0.6710  0.0383  0.4785
39054SOL    HW123125   4.094   7.889   8.016 -0.5076 -0.1355  0.7497
39054SOL    HW223126   4.158   7.966   7.903 -1.0182 -0.0824  0.4929
39055SOL     OW23127   6.063   2.330   6.502 -0.4436 -0.0152 -0.3956
39055SOL    HW123128   6.004   2.267   6.544 -1.1449 -0.1030 -1.4711
39055SOL    HW223129   6.149   2.288   6.504 -0.0133  0.7914  2.6535
39056SOL     OW23130  10.863   9.358   8.551 -0.4405  0.1177 -0.5349
39056SOL    HW123131  10.954   9.386   8.561 -1.1737  2.1475  0.9908
39056SOL    HW223132  10.841   9.379   8.460  0.0891  1.2784 -0.4066
39057SOL     OW23133   9.896   5.909   1.652 -0.0717 -0.2540 -0.1404
39057SOL    HW123134   9.929   5.864   1.574 -2.2526  0.1616 -1.3821
39057SOL    HW223135   9.814   5.950   1.623 -0.0348  1.4393  1.9092
39058SOL     OW23136   3.038   9.773   0.651  0.2189 -0.4841 -0.2335
39058SOL    HW123137   3.127   9.780   0.687  0.3189  0.2515 -0.5787
39058SOL    HW223138   2.989   9.725   0.716  0.6569 -0.1097  0.3889
39059SOL     OW23139   2.758   2.383   0.073  0.1194 -0.1116  0.5296
39059SOL    HW123140   2.797   2.361  -0.012  2.0820 -0.2236  1.4217
39059SOL    HW223141   2.713   2.303   0.100  0.8767 -0.6226  0.3244
39060SOL     OW23142  10.979  11.368   3.586  0.6359  0.0240 -0.1712
39060SOL    HW123143  11.035  11.317   3.528  1.1426 -1.0054  1.1673
39060SOL    HW223144  11.030  11.380   3.666 -0.7165 -0.2373  0.7832
39061SOL     OW23145  10.900   5.710   3.126  0.2170  0.0755  0.4324
39061SOL    HW123146  10.958   5.747   3.058 -1.2281  1.7002  0.0170
39061SOL    HW223147  10.866   5.630   3.087 -0.1848  0.7166 -0.5616
39062SOL     OW23148   8.471   9.117   9.383  0.1424 -0.1867 -0.3145
39062SOL    HW123149   8.511   9.065   9.313  1.6111 -0.7183  0.8600
39062SOL    HW223150   8.544   9.146   9.437 -0.7160  2.3560 -0.3622
39063SOL     OW23151  11.910   9.565   6.318 -0.1885  0.2911 -0.2699
39063SOL    HW123152  11.872   9.521   6.242  0.3504  2.2204 -1.7599
39063SOL    HW223153  11.835   9.589   6.372 -0.4539 -2.8418  0.9117
39064SOL     OW23154   8.632   5.323   1.186 -0.0936  0.3515 -0.2082
39064SOL    HW123155   8.564   5.258   1.169 -0.1188 -0.2886  2.0294
39064SOL    HW223156   8.585   5.403   1.207 -0.0751  0.7588 -1.6109
39065SOL     OW23157   5.499   7.960   7.768  0.3766 -0.3147 -0.2341
39065SOL    HW123158   5.407   7.934   7.762 -0.1848  1.5121 -0.2456
39065SOL    HW223159   5.539   7.928   7.687 -0.8067  0.8721 -1.3181
39066SOL     OW23160  11.307   5.614  10.925 -0.3849  0.3906  0.0116
39066SOL    HW123161  11.337   5.575  11.006  0.8556  0.8267 -0.2176
39066SOL    HW223162  11.387   5.642  10.880 -1.0461  0.2343 -1.3227
39067SOL     OW23163   8.575   0.951   5.216  0.7161  0.5720 -0.0280
39067SOL    HW123164   8.617   0.943   5.130 -0.4387  2.6381 -0.8613
39067SOL    HW223165   8.483   0.930   5.200  1.0292 -2.7118  1.5338
39068SOL     OW23166  12.322   8.913   3.024 -0.0506 -0.1545  0.3168
39068SOL    HW123167  12.290   8.830   2.989 -0.7999 -0.6217  1.9794
39068SOL    HW223168  12.245   8.951   3.068  0.6508  0.7305  0.8096
39069SOL     OW23169   8.030   8.931  11.167  0.1526 -0.1796 -0.1874
39069SOL    HW123170   7.940   8.962  11.165  0.0969 -0.3024 -2.9260
39069SOL    HW223171   8.022   8.835  11.160  0.4657 -0.1383 -1.3466
39070SOL     OW23172   2.495   6.359   6.211 -0.3897 -0.0031  0.2323
39070SOL    HW123173   2.555   6.427   6.241 -0.3851 -0.2971  0.8977
39070SOL    HW223174   2.543   6.277   6.224 -0.1996 -0.1170 -1.0278
39071SOL     OW23175   9.467   5.437   3.980  0.0318 -0.3569 -0.3271
39071SOL    HW123176   9.488   5.376   3.909  0.3475  0.1226 -0.6529
39071SOL    HW223177   9.448   5.381   4.055 -0.1127 -0.8676 -0.7360
39072SOL     OW23178   2.752  11.237   3.997 -0.1831 -0.1681  0.2878
39072SOL    HW123179   2.835  11.280   3.974  0.0329 -0.6182  0.2234
39072SOL    HW223180   2.777  11.152   4.032 -0.4814  0.5463  2.4121
39073SOL     OW23181   0.508   3.917   9.199  0.2324 -0.0808  1.2925
39073SOL    HW123182   0.441   3.860   9.237 -1.2951  0.6402 -0.2069
39073SOL    HW223183   0.468   4.003   9.196 -0.0448 -0.2044 -2.4894
39074SOL     OW23184   8.871   3.900  11.873 -0.5830  0.6445  0.5524
39074SOL    HW123185   8.898   3.826  11.819 -3.7625 -0.9734  0.9062
39074SOL    HW223186   8.941   3.911  11.936  0.9720 -0.6380 -0.8575
39075SOL     OW23187   0.987   3.075   4.064 -0.0964  0.4084 -0.0073
39075SOL    HW123188   0.936   3.150   4.032 -1.1490 -0.1368  0.3152
39075SOL    HW223189   1.005   3.024   3.985  0.1301  0.7153 -0.1548
39076SOL     OW23190   5.843   2.964   2.148 -0.8970  0.1130  0.3511
39076SOL    HW123191   5.912   3.030   2.148  0.5975 -1.3925  0.0566
39076SOL    HW223192   5.806   2.969   2.237 -1.2453  1.7277  0.1524
39077SOL     OW23193   1.515   3.623  11.056  0.0820  0.6438  0.1803
39077SOL    HW123194   1.436   3.613  11.003  0.5643  3.7007 -1.3705
39077SOL    HW223195   1.483   3.637  11.145 -1.0382  0.3681 -0.1666
39078SOL     OW23196   9.508   5.831   0.092  0.8396 -0.2189  0.3156
39078SOL    HW123197   9.532   5.862   0.180 -0.1417 -0.2768  0.6116
39078SOL    HW223198   9.546   5.895   0.033  0.4717  0.4946  0.8416
39079SOL     OW23199   7.145   4.093  11.785 -0.0920  0.4046 -0.7373
39079SOL    HW123200   7.083   4.120  11.717  0.6831  1.2936 -1.1255
39079SOL    HW223201   7.204   4.168  11.794  0.9102 -0.4054 -0.3586
39080SOL     OW23202   8.292   5.295   0.489  0.6215  0.0757 -0.1200
39080SOL    HW123203   8.368   5.276   0.544 -0.3351 -0.8555  0.9381
39080SOL    HW223204   8.317   5.373   0.439  3.5135 -1.9816 -2.2418
39081SOL     OW23205   4.826   6.447  11.855 -0.3923 -0.3956  0.5130
39081SOL    HW123206   4.834   6.523  11.797  1.5445  0.0411  1.2611
39081SOL    HW223207   4.742   6.460  11.900  0.0569  1.5575  0.9149
39082SOL     OW23208  12.153   3.618   8.215 -0.0608  0.0020 -0.2989
39082SOL    HW123209  12.085   3.554   8.235 -0.0171 -1.2890 -3.6281
39082SOL    HW223210  12.230   3.586   8.263 -0.8626 -0.5789  0.6401
39083SOL     OW23211   9.317   8.885  11.480  0.4615 -0.1059  0.6356
39083SOL    HW123212   9.231   8.851  11.454  0.4361 -0.6161  1.3556
39083SOL    HW223213   9.370   8.874  11.401 -0.4721  1.5046 -0.2672
39084SOL     OW23214  11.827   1.454   3.997  0.0605 -0.1547  0.2322
39084SOL    HW123215  11.810   1.548   4.000  1.8667  0.1941  0.2842
39084SOL    HW223216  11.856   1.432   4.085  1.4226 -0.3853 -0.2587
39085SOL     OW23217   4.388   1.003  11.396 -0.1548  0.0911 -0.2525
39085SOL    HW123218   4.305   0.984  11.439 -0.7794  0.0201 -1.4505
39085SOL    HW223219   4.423   0.918  11.371  1.1376 -0.0139  1.7357
39086SOL     OW23220   1.189  10.534  10.226  0.2440  0.3163 -0.2869
39086SOL    HW123221   1.245  10.601  10.266 -0.2820  0.2539  0.5810
39086SOL    HW223222   1.204  10.543  10.132  0.9989  0.9267 -0.1177
39087SOL     OW23223   7.963   4.294  10.782  0.0081  0.0538 -0.0867
39087SOL    HW123224   7.997   4.241  10.854  1.1259 -0.2492 -0.8150
39087SOL    HW223225   7.956   4.233  10.709 -0.5156  0.4977 -0.4141
39088SOL     OW23226  11.572   7.891   5.543  0.7656  0.3201 -0.2370
39088SOL    HW123227  11.516   7.965   5.569  1.8068  0.7087  1.0146
39088SOL    HW223228  11.589   7.905   5.450 -0.0672  0.9675 -0.3037
39089SOL     OW23229   3.074   1.640   2.675  0.2292  0.0263 -0.0315
39089SOL    HW123230   3.124   1.669   2.599 -0.0201 -1.4894 -0.8243
39089SOL    HW223231   3.139   1.600   2.733  0.3567  0.7941  0.3645
39090SOL     OW23232   1.352   0.093  10.123 -0.0923  0.0145  0.7976
39090SOL    HW123233   1.417   0.098  10.053  0.2465 -2.0670  0.9096
39090SOL    HW223234   1.385   0.154  10.190  0.7207  0.3994  0.0640
39091SOL     OW23235   6.860   2.675  10.519 -0.6482 -0.1265 -0.2839
39091SOL    HW123236   6.838   2.619  10.445 -1.1395  0.7423 -0.8096
39091SOL    HW223237   6.796   2.745  10.516 -0.0487  0.4679  0.3693
39092SOL     OW23238  11.406   5.788   4.693 -0.7738  0.1103 -0.0945
39092SOL    HW123239  11.335   5.846   4.721 -0.2214  0.4747  0.5943
39092SOL    HW223240  11.475   5.848   4.663 -0.1464 -0.1685  0.7494
39093SOL     OW23241   8.062   9.751   5.588 -0.1422  0.2893 -0.1192
39093SOL    HW123242   7.989   9.804   5.621 -0.2172 -0.4459  0.9642
39093SOL    HW223243   8.136   9.812   5.583 -0.2972  0.5767  0.8555
39094SOL     OW23244   6.600   0.334   1.943 -0.5335 -0.0159 -0.1496
39094SOL    HW123245   6.517   0.296   1.971  0.4296 -0.7394  1.9125
39094SOL    HW223246   6.620   0.399   2.010  0.8672 -0.3309 -0.2345
39095SOL     OW23247   8.892   9.841   3.941 -0.5024 -0.2605 -0.4148
39095SOL    HW123248   8.848   9.757   3.927  0.5807 -0.4859 -3.0842
39095SOL    HW223249   8.978   9.818   3.976 -1.1429 -0.0249  1.4494
39096SOL     OW23250   3.485   8.155   9.119 -0.2229  0.9169 -0.0205
39096SOL    HW123251   3.436   8.072   9.116  0.6133  0.3691  0.6977
39096SOL    HW223252   3.468   8.196   9.035 -0.7452  0.0605 -0.3521
39097SOL     OW23253   9.021   1.284  11.878  0.8375 -0.6528 -0.6448
39097SOL    HW123254   9.042   1.264  11.969 -0.3947 -1.6745 -0.5417
39097SOL    HW223255   9.071   1.362  11.858  0.0491  0.4644  1.3795
39098SOL     OW23256   4.000  10.665  12.282  0.2538 -0.1010  0.1296
39098SOL    HW123257   3.937  10.630  12.346 -0.9135  0.2345 -0.8003
39098SOL    HW223258   3.994  10.760  12.292  1.2086 -0.0805  0.5748
39099SOL     OW23259   3.687   8.160   7.114 -0.4536 -0.0349 -0.0063
39099SOL    HW123260   3.684   8.092   7.047 -1.2056 -0.2725  0.2510
39099SOL    HW223261   3.755   8.221   7.085 -0.0342 -0.6970 -0.4309
39100SOL     OW23262   0.491   1.688   8.967  0.3984  0.1337  0.1763
39100SOL    HW123263   0.459   1.602   8.995  2.3575 -0.8550 -0.3961
39100SOL    HW223264   0.503   1.678   8.872  1.3526  0.7804  0.2216
39101SOL     OW23265   0.726  11.323   4.177  0.2715 -0.8240  0.7025
39101SOL    HW123266   0.632  11.311   4.164  0.2824 -0.2652  0.0080
39101SOL    HW223267   0.767  11.276   4.104  0.4299  0.5940 -0.1668
39102SOL     OW23268   7.640   8.077  11.731  0.0257 -0.5134 -0.3683
39102SOL    HW123269   7.726   8.070  11.689  0.4320  0.6737  0.2101
39102SOL    HW223270   7.657   8.122  11.814 -1.1699 -0.0923 -0.3276
39103SOL     OW23271  11.797   2.343  12.331 -0.4929 -0.1531 -0.2227
39103SOL    HW123272  11.826   2.252  12.334  0.7382  0.2255  0.0248
39103SOL    HW223273  11.877   2.394  12.318 -1.1272  0.9114 -0.1493
39104SOL     OW23274   4.701   8.059   0.804 -0.2342 -0.0417 -0.0034
39104SOL    HW123275   4.652   8.008   0.869  1.6888 -0.6974  1.0096
39104SOL    HW223276   4.778   8.006   0.785 -0.4140  0.4529 -2.3782
39105SOL     OW23277   3.442   5.394   7.836  0.0523 -0.1617  0.6277
39105SOL    HW123278   3.526   5.357   7.808  0.3144 -0.4264  1.7144
39105SOL    HW223279   3.376   5.344   7.787  0.4921 -0.5556  0.4359
39106SOL     OW23280   9.247  10.327  12.423 -0.0623  0.4086 -0.0482
39106SOL    HW123281   9.223  10.333  12.330  0.8317  0.7866 -0.2613
39106SOL    HW223282   9.163  10.319  12.468 -0.4919 -0.1724 -0.9141
39107SOL     OW23283   0.829   1.344  12.108 -0.1981 -0.4988 -0.3645
39107SOL    HW123284   0.884   1.282  12.156 -1.4384 -3.0184 -1.9906
39107SOL    HW223285   0.867   1.430  12.127  1.5215 -1.6937  2.1309
39108SOL     OW23286  11.584   2.082   8.162 -0.4925  0.1387 -0.2999
39108SOL    HW123287  11.605   2.150   8.226  3.0140 -1.3516  0.3444
39108SOL    HW223288  11.613   2.118   8.078  0.9452 -0.3096 -0.0239
39109SOL     OW23289   9.995   3.639   0.516  0.0204 -0.1085 -0.5840
39109SOL    HW123290   9.951   3.611   0.596  0.6604  0.1466 -0.1399
39109SOL    HW223291   9.973   3.571   0.452 -1.3968  0.2436 -0.5047
39110SOL     OW23292   4.252   7.832  11.420 -0.1937  0.1259  0.3848
39110SOL    HW123293   4.278   7.915  11.461  0.5808  0.0364  0.1027
39110SOL    HW223294   4.204   7.785  11.488  0.8057  0.1044  1.0919
39111SOL     OW23295  11.590   4.376   8.495  0.1840 -0.3986  0.4811
39111SOL    HW123296  11.649   4.315   8.538  0.1661 -2.4158 -2.1057
39111SOL    HW223297  11.506   4.330   8.490 -0.2931  0.4961 -0.0637
39112SOL     OW23298   6.067  10.710   1.350  0.0032 -0.0510 -0.3566
39112SOL    HW123299   6.088  10.803   1.348 -0.8747  0.2665  1.8613
39112SOL    HW223300   6.147  10.666   1.322  0.4283  1.3494 -1.4558
39113SOL     OW23301   2.795   2.457   6.186  0.0434 -0.1606 -0.4614
39113SOL    HW123302   2.777   2.363   6.191  0.6760 -0.2837 -0.4468
39113SOL    HW223303   2.868   2.470   6.247  0.3959  0.2302 -0.9669
39114SOL     OW23304   6.261   3.169   5.937  0.4858  0.3998  0.0341
39114SOL    HW123305   6.183   3.147   5.988 -0.3063  0.8342 -0.9678
39114SOL    HW223306   6.313   3.225   5.995 -0.3748  0.8411  0.3945
39115SOL     OW23307   6.822   0.039   0.942  0.4345 -0.3404 -0.1417
39115SOL    HW123308   6.792   0.119   0.986  0.1214 -0.2732 -0.4765
39115SOL    HW223309   6.912   0.060   0.915  1.0047 -0.7426  1.3575
39116SOL     OW23310   6.504  11.264  12.004 -0.7068  0.3564  0.5570
39116SOL    HW123311   6.436  11.214  11.960 -0.2341 -0.7170  1.0189
39116SOL    HW223312   6.506  11.347  11.957  0.4148 -1.0361 -2.0564
39117SOL     OW23313   3.034  11.872   3.004 -0.4520  0.6354  0.1306
39117SOL    HW123314   3.082  11.796   2.972  0.6341  1.3004  0.1528
39117SOL    HW223315   3.068  11.945   2.953 -0.8850  1.2382  0.6948
39118SOL     OW23316   9.105  11.288   4.981  0.1088  0.1820 -0.4774
39118SOL    HW123317   9.040  11.225   5.011 -1.1428  2.0291  0.9501
39118SOL    HW223318   9.162  11.238   4.922 -0.6215 -2.3022  0.7868
39119SOL     OW23319   5.857   4.434  11.950  0.4244  0.2279  0.2038
39119SOL    HW123320   5.849   4.414  11.857  0.3084  0.0636  0.2479
39119SOL    HW223321   5.927   4.499  11.955 -0.5159  1.3032 -0.1538
39120SOL     OW23322   2.105   5.617   7.694  0.3859 -0.7496  0.3383
39120SOL    HW123323   2.043   5.571   7.638  1.7527 -2.3495  0.0669
39120SOL    HW223324   2.114   5.704   7.655 -0.4505 -1.0424 -0.5291
39121SOL     OW23325   9.563   7.947   7.819 -0.4851  0.1149  0.0126
39121SOL    HW123326   9.650   7.980   7.844  0.4296 -1.8405 -0.3745
39121SOL    HW223327   9.557   7.966   7.725 -0.1914 -0.3147 -0.0965
39122SOL     OW23328   7.785   4.683   9.855  0.5292  0.1445  0.6441
39122SOL    HW123329   7.874   4.715   9.864  0.4386  0.1752  1.4847
39122SOL    HW223330   7.792   4.588   9.862  0.5370  0.1146  0.2904
39123SOL     OW23331   7.879   5.256   8.060  0.0145 -0.5141  0.1072
39123SOL    HW123332   7.797   5.251   8.109  0.1386  0.7788  0.4884
39123SOL    HW223333   7.943   5.211   8.114 -0.2128 -0.5676  0.3297
39124SOL     OW23334  11.425  10.662   6.311 -0.0402 -0.2814  0.5007
39124SOL    HW123335  11.364  10.596   6.278  0.0233 -2.1891  3.7848
39124SOL    HW223336  11.502  10.612   6.338  0.7555  1.3784  1.4644
39125SOL     OW23337  11.116   6.262   1.090  0.2487  0.1651  0.5380
39125SOL    HW123338  11.186   6.309   1.134 -0.4200  0.9554  0.7867
39125SOL    HW223339  11.071   6.215   1.160 -0.8891  1.5170  0.7574
39126SOL     OW23340   6.417   6.691   1.278  0.1103 -0.2205 -0.6291
39126SOL    HW123341   6.449   6.637   1.207  1.1601 -1.9215  1.0386
39126SOL    HW223342   6.353   6.750   1.237  1.5581 -0.2637 -3.1397
39127SOL     OW23343   1.354   7.357  11.071  0.3732 -0.3001 -0.2701
39127SOL    HW123344   1.310   7.273  11.086 -0.2267  0.1915  0.8172
39127SOL    HW223345   1.392   7.380  11.156 -0.8372  1.2998 -0.1165
39128SOL     OW23346   6.184   2.986   8.564 -0.1682 -0.1834  0.3963
39128SOL    HW123347   6.176   3.080   8.548  1.7581 -0.3163 -1.8051
39128SOL    HW223348   6.164   2.946   8.479 -0.8195 -1.7781  1.2666
39129SOL     OW23349   4.453   3.713   3.919 -0.1866  0.3313 -0.2749
39129SOL    HW123350   4.405   3.793   3.937 -0.6122  0.7530 -2.9108
39129SOL    HW223351   4.543   3.742   3.901 -0.1665  0.1333 -0.4967
39130SOL     OW23352  12.440   5.131   3.012  0.6267  0.7243  0.1840
39130SOL    HW123353  12.508   5.146   3.077  1.7596  1.3145 -1.0987
39130SOL    HW223354  12.486   5.126   2.928 -0.7284 -0.5592 -0.5506
39131SOL     OW23355  10.233   6.590   6.178  0.3423  0.4762 -0.3987
39131SOL    HW123356  10.214   6.639   6.098 -2.1986 -0.5800 -0.5218
39131SOL    HW223357  10.287   6.650   6.230  0.8310  1.7446 -2.2654
39132SOL     OW23358   3.053  12.071   7.115  0.2231 -0.4279  0.8794
39132SOL    HW123359   3.097  12.141   7.066 -0.0120 -0.4054  0.6998
39132SOL    HW223360   3.052  12.103   7.206 -0.2538 -0.0050  0.7335
39133SOL     OW23361   9.615  10.565   0.055 -0.1186 -0.4425  0.5805
39133SOL    HW123362   9.630  10.588   0.147  0.3994  1.3454  0.0865
39133SOL    HW223363   9.529  10.601   0.035  0.5891  0.9108 -0.1364
39134SOL     OW23364   1.255   2.651   6.536  0.1467 -0.8728  0.1294
39134SOL    HW123365   1.213   2.590   6.476  0.6736 -1.3617  0.2595
39134SOL    HW223366   1.311   2.705   6.480  0.2383 -0.9868  0.1111
39135SOL     OW23367  10.513  10.884   0.210  0.1422 -0.1525  0.8525
39135SOL    HW123368  10.473  10.923   0.133  0.1896  0.1346  0.9720
39135SOL    HW223369  10.577  10.948   0.240  0.4487 -0.4593  0.8642
39136SOL     OW23370  12.046   5.882  10.170 -0.2378  0.2154 -0.5110
39136SOL    HW123371  12.054   5.941  10.245 -0.3581  1.5001 -1.4662
39136SOL    HW223372  12.123   5.826  10.174 -0.7909 -0.4866  1.1652
39137SOL     OW23373   2.585   5.566   1.238  0.0972  0.0653  0.7513
39137SOL    HW123374   2.652   5.579   1.171 -1.8412  1.4895 -1.0697
39137SOL    HW223375   2.584   5.472   1.254  0.7437 -0.3025 -1.1335
39138SOL     OW23376   0.514  11.087   9.331  0.0073 -0.1039 -0.0663
39138SOL    HW123377   0.509  10.998   9.366 -3.7956  0.9719  2.9052
39138SOL    HW223378   0.600  11.119   9.358  0.4664 -2.0587  0.9876
39139SOL     OW23379   6.930   2.282   7.880 -0.4081  0.0969  0.5853
39139SOL    HW123380   7.003   2.300   7.939 -0.0933  1.1789 -0.1134
39139SOL    HW223381   6.857   2.333   7.915 -0.4667  0.0478  0.5356
39140SOL     OW23382   6.606   0.703   5.937 -0.6658 -0.3435 -0.4746
39140SOL    HW123383   6.624   0.632   6.000  1.0070  0.3915 -0.0678
39140SOL    HW223384   6.635   0.668   5.853 -0.6247 -0.4434 -0.4193
39141SOL     OW23385   8.747   8.326   9.220  0.5835 -0.0128  0.0233
39141SOL    HW123386   8.795   8.374   9.288  0.2643 -0.3620  0.5022
39141SOL    HW223387   8.812   8.269   9.179  0.9382  0.7283 -0.4646
39142SOL     OW23388  10.175   5.696   4.193  0.4014  0.5512  0.1819
39142SOL    HW123389  10.258   5.740   4.209  0.5728  0.2622  0.0704
39142SOL    HW223390  10.118   5.766   4.160  0.6550  0.7067  0.0722
39143SOL     OW23391   8.182  11.068   1.437  0.2082  0.8618 -0.0808
39143SOL    HW123392   8.087  11.071   1.448  0.2182 -1.2425  1.1283
39143SOL    HW223393   8.197  10.995   1.377  1.0705  0.5027  0.5463
39144SOL     OW23394   3.929   6.167  10.158 -0.2262 -0.5018  0.4348
39144SOL    HW123395   3.879   6.085  10.159  0.2996 -0.8257  0.9355
39144SOL    HW223396   3.989   6.159  10.233 -1.9989  1.4964  2.1965
39145SOL     OW23397   8.790   1.443   4.762  0.2710 -0.1990  0.1236
39145SOL    HW123398   8.718   1.440   4.825 -0.3113  2.3788 -0.2887
39145SOL    HW223399   8.865   1.473   4.812  0.2592  0.1158 -0.0451
39146SOL     OW23400   9.280   0.498   9.267 -0.4396  0.5221 -0.0321
39146SOL    HW123401   9.204   0.537   9.310 -1.0853  0.0815 -0.7644
39146SOL    HW223402   9.260   0.500   9.174  0.5735  0.6617 -0.2620
39147SOL     OW23403   1.075   4.367   1.230  0.0235 -0.1985 -0.1744
39147SOL    HW123404   1.104   4.397   1.316 -1.6761 -2.3830  1.2417
39147SOL    HW223405   1.021   4.439   1.196  0.1461  0.4042  0.8793
39148SOL     OW23406   6.210   2.841   1.955  0.6344 -0.3487  0.6231
39148SOL    HW123407   6.212   2.809   2.045  0.3366 -3.1431 -0.2740
39148SOL    HW223408   6.277   2.790   1.910  0.1821  0.3732 -0.9412
39149SOL     OW23409   3.243   1.135  10.166  0.6910 -0.1229 -0.1465
39149SOL    HW123410   3.314   1.199  10.172  1.2104 -0.5258 -1.5291
39149SOL    HW223411   3.163   1.186  10.177  1.1710  0.4326  0.8439
39150SOL     OW23412   3.785   2.891  10.497  0.1450  0.2439 -0.4288
39150SOL    HW123413   3.693   2.913  10.487  0.3465  1.0528 -0.5296
39150SOL    HW223414   3.808   2.923  10.584  0.6063  1.0249 -0.8328
39151SOL     OW23415  11.535   2.257   1.779 -0.3855 -0.5535 -0.1058
39151SOL    HW123416  11.629   2.270   1.788 -0.6427  0.8177  0.8213
39151SOL    HW223417  11.527   2.180   1.723  1.2725  0.3437 -1.6703
39152SOL     OW23418  10.782   1.514   7.052  0.6693 -0.0414  0.0290
39152SOL    HW123419  10.738   1.585   7.099  1.0884  1.1046 -1.2628
39152SOL    HW223420  10.825   1.556   6.979 -0.4541 -1.8270 -1.7788
39153SOL     OW23421   9.110   5.211   0.364  0.7316  0.4910 -0.3233
39153SOL    HW123422   9.057   5.131   0.366  0.4350  0.6627 -0.9193
39153SOL    HW223423   9.143   5.215   0.274  0.7864  1.0126 -0.2838
39154SOL     OW23424   5.010   7.047   2.630 -0.1035 -0.1360 -0.8810
39154SOL    HW123425   4.980   7.061   2.720 -0.2344 -1.3496 -0.7267
39154SOL    HW223426   5.022   7.136   2.596 -0.6061  0.3510  0.1389
39155SOL     OW23427   4.402   8.899   6.771 -0.6351  0.1263 -0.3768
39155SOL    HW123428   4.489   8.939   6.778 -0.4386 -0.0031 -1.8865
39155SOL    HW223429   4.364   8.910   6.859  0.4678  1.1714 -0.0026
39156SOL     OW23430  11.227   0.768  12.481  0.3806 -0.1370  0.2855
39156SOL    HW123431  11.236   0.852  12.528  1.3060 -0.3372  0.4791
39156SOL    HW223432  11.140   0.773  12.441 -0.1490  0.3346  1.4447
39157SOL     OW23433   9.580   0.709   2.501 -0.1838  0.6313 -0.2797
39157SOL    HW123434   9.598   0.655   2.577  0.0248  1.4249  0.2485
39157SOL    HW223435   9.501   0.672   2.462 -0.8092  0.7525  0.8404
39158SOL     OW23436  10.687   8.098  11.338 -0.0221 -0.3487  0.5544
39158SOL    HW123437  10.717   8.187  11.354 -0.3487  0.3979 -2.3795
39158SOL    HW223438  10.612   8.109  11.279 -0.2380 -2.5556  0.3460
39159SOL     OW23439   4.385   1.978   7.842 -0.4168  0.5222  0.4348
39159SOL    HW123440   4.458   1.980   7.780 -0.1485  0.8260  0.7519
39159SOL    HW223441   4.307   1.970   7.788 -0.1311 -0.0529  0.1016
39160SOL     OW23442   4.444   5.820   6.348  0.0012  0.3130  0.8175
39160SOL    HW123443   4.434   5.911   6.319 -0.6334 -0.4771 -1.7404
39160SOL    HW223444   4.359   5.797   6.385 -0.4854  0.2340 -0.2995
39161SOL     OW23445   0.964   4.674   3.068  0.0208 -0.3169 -0.3172
39161SOL    HW123446   1.036   4.731   3.097 -0.8014  0.4093  0.3580
39161SOL    HW223447   0.957   4.691   2.974  1.5528 -1.3558 -0.6438
39162SOL     OW23448   8.755   3.288   4.482 -0.0026 -0.2207 -0.0707
39162SOL    HW123449   8.738   3.261   4.573 -0.8659  0.9396  0.1416
39162SOL    HW223450   8.785   3.379   4.489  2.0686 -0.8051 -0.8166
39163SOL     OW23451   4.609   5.538  12.485 -0.0559 -0.2052  0.4524
39163SOL    HW123452   4.686   5.494  12.448  0.2411 -0.4405  1.3325
39163SOL    HW223453   4.569   5.582  12.410  1.1515  0.2471  0.0481
39164SOL     OW23454   0.225   3.745   8.321  0.2579  0.0118 -0.5979
39164SOL    HW123455   0.248   3.821   8.375 -2.0808  0.5387 -0.2208
39164SOL    HW223456   0.139   3.767   8.284  0.7412 -1.3181 -2.7194
39165SOL     OW23457   5.991   4.816   4.877 -0.4062  0.2690 -0.2031
39165SOL    HW123458   6.020   4.887   4.934  0.4379  1.2853 -1.8275
39165SOL    HW223459   5.951   4.860   4.802 -1.1590 -1.0259 -0.5960
39166SOL     OW23460   7.060  10.582   7.538  0.6947  0.4086 -0.0616
39166SOL    HW123461   7.062  10.509   7.600  1.0925  1.5800  1.3441
39166SOL    HW223462   7.140  10.572   7.487  2.0853  1.2444  1.8310
39167SOL     OW23463   9.304   7.311   0.412  0.2277  0.7816 -0.1232
39167SOL    HW123464   9.382   7.278   0.456  0.2319  1.4497  0.3949
39167SOL    HW223465   9.235   7.250   0.438  0.0669  1.5791  1.4817
39168SOL     OW23466  10.654   2.423   5.454 -0.3357 -0.2407  0.0825
39168SOL    HW123467  10.726   2.384   5.503 -0.2041  2.2527  2.0670
39168SOL    HW223468  10.576   2.377   5.485  0.0754 -0.7877  0.3068
39169SOL     OW23469   9.270   1.123   3.580  0.2253 -0.7549  0.0177
39169SOL    HW123470   9.268   1.215   3.556 -1.3805 -0.9249 -0.6263
39169SOL    HW223471   9.285   1.077   3.498  1.5121 -1.0677  0.4096
39170SOL     OW23472   1.247  10.738   0.831  0.1846  0.1812 -0.0866
39170SOL    HW123473   1.274  10.763   0.743  1.0326  1.8126  0.5807
39170SOL    HW223474   1.215  10.820   0.870 -0.7905 -0.6380  0.9041
39171SOL     OW23475   9.968   3.045   0.571  0.0355 -0.2654  0.2501
39171SOL    HW123476   9.874   3.055   0.552  0.2104  1.6810  0.2037
39171SOL    HW223477   9.983   3.102   0.646  1.4435  0.5909 -0.6389
39172SOL     OW23478   7.369   4.493   1.827 -0.3748  0.3883  0.1864
39172SOL    HW123479   7.405   4.444   1.754 -0.2039 -0.1635  0.6354
39172SOL    HW223480   7.413   4.457   1.904  0.0115  1.4895  0.4923
39173SOL     OW23481   2.855   1.021   5.253  0.0727  0.7885  0.0461
39173SOL    HW123482   2.810   1.045   5.173  2.8961  1.2791 -1.5316
39173SOL    HW223483   2.882   1.104   5.292 -0.9110  0.5385  1.3475
39174SOL     OW23484   5.069   2.527   2.778  0.0483 -0.5756 -0.2485
39174SOL    HW123485   4.987   2.513   2.825 -0.4828  0.8972 -0.6710
39174SOL    HW223486   5.087   2.620   2.791  0.3945 -0.3548 -2.1516
39175SOL     OW23487   3.783   9.546   0.295  0.1033 -0.0165  0.3142
39175SOL    HW123488   3.758   9.540   0.387 -0.1702 -1.6086  0.1621
39175SOL    HW223489   3.722   9.609   0.258  2.4139  3.5158  1.8794
39176SOL     OW23490   3.209   5.328   5.641  0.7492 -0.3002 -0.3285
39176SOL    HW123491   3.173   5.357   5.725  1.0082  0.0698 -0.3404
39176SOL    HW223492   3.261   5.250   5.663  0.3137 -0.5700 -0.2452
39177SOL     OW23493   5.275   5.852   6.521  0.2413  0.0956  0.1880
39177SOL    HW123494   5.241   5.818   6.603 -0.7198  0.0972 -0.1955
39177SOL    HW223495   5.296   5.944   6.540 -1.1213  0.4411  0.1345
39178SOL     OW23496   6.750   0.182   0.408 -0.0021 -0.3974 -0.1904
39178SOL    HW123497   6.668   0.134   0.396  0.2118 -0.4631 -1.6356
39178SOL    HW223498   6.732   0.269   0.373  0.0914  0.0922  0.9379
39179SOL     OW23499   5.626   1.513   4.628 -0.7027 -0.1707 -0.2244
39179SOL    HW123500   5.629   1.448   4.558 -0.6698 -2.7915  2.0251
39179SOL    HW223501   5.716   1.520   4.658 -0.9414 -0.2815  0.5379
39180SOL     OW23502   1.498   0.807   5.591  0.4611  0.2525  0.9046
39180SOL    HW123503   1.471   0.874   5.527 -2.1420 -1.8748 -0.4259
39180SOL    HW223504   1.572   0.763   5.549  0.5923  0.6664  0.6857
39181SOL     OW23505   6.558   0.934   9.324 -0.3753  0.1965 -0.2183
39181SOL    HW123506   6.579   0.842   9.307 -1.3906  0.0753 -0.9037
39181SOL    HW223507   6.634   0.967   9.371  0.3804 -0.7775 -0.7082
39182SOL     OW23508   6.512   0.311   2.449  0.0195 -0.4610 -0.4570
39182SOL    HW123509   6.464   0.323   2.532  0.6809  1.0121 -0.2536
39182SOL    HW223510   6.536   0.400   2.423  2.1940 -1.1171 -0.8319
39183SOL     OW23511   5.711   4.178  11.669 -0.1447  0.3701  0.0900
39183SOL    HW123512   5.680   4.210  11.584 -2.3786 -1.4414  0.1288
39183SOL    HW223513   5.793   4.226  11.684 -1.0828  2.7629 -1.7710
39184SOL     OW23514   4.766   8.939   5.265 -0.2310 -0.8154 -0.4071
39184SOL    HW123515   4.852   8.929   5.225 -0.2989 -0.9129 -0.5274
39184SOL    HW223516   4.713   8.982   5.198  0.3450  1.3844  0.4590
39185SOL     OW23517  11.074   9.171   1.208 -0.3701  0.0923 -0.2216
39185SOL    HW123518  10.989   9.209   1.233  0.0330  0.2833  0.9129
39185SOL    HW223519  11.105   9.227   1.137 -0.5220  0.9321  0.3606
39186SOL     OW23520   9.107   2.681   9.851 -0.1817  0.3164  0.3730
39186SOL    HW123521   9.018   2.645   9.850  0.2843 -0.8758 -0.9993
39186SOL    HW223522   9.149   2.638   9.925 -0.3216 -0.2329  0.1403
39187SOL     OW23523   8.745   9.175  12.472 -0.2460 -0.6845  0.1379
39187SOL    HW123524   8.703   9.155  12.388 -0.8997  0.6486  0.1184
39187SOL    HW223525   8.835   9.198  12.450 -0.9093  1.5172 -0.4549
39188SOL     OW23526  10.565   6.452  11.147  0.0220 -0.6432 -0.6690
39188SOL    HW123527  10.557   6.437  11.241  1.5505  0.4367 -0.3317
39188SOL    HW223528  10.656   6.480  11.134  0.0082 -1.3178 -2.5488
39189SOL     OW23529   3.395  11.309  11.025 -0.6957 -0.7661 -0.4431
39189SOL    HW123530   3.394  11.260  11.107 -0.1175 -0.0884 -0.0295
39189SOL    HW223531   3.482  11.349  11.022 -0.2868 -1.6652 -1.9131
39190SOL     OW23532  10.920   5.031   2.619  0.2003 -0.2927  0.0907
39190SOL    HW123533  10.965   4.974   2.681 -0.5697 -0.9197  0.0872
39190SOL    HW223534  10.833   5.044   2.657  0.3967  0.9509  0.1284
39191SOL     OW23535  10.432   5.471   1.605  0.0231 -0.8951  0.4728
39191SOL    HW123536  10.452   5.382   1.634  2.0713  0.0713  2.3880
39191SOL    HW223537  10.518   5.513   1.597 -0.8792  0.8130 -0.7329
39192SOL     OW23538  11.409  10.360   9.187 -0.4143 -0.0390  0.7485
39192SOL    HW123539  11.316  10.344   9.177 -0.4704  0.7648 -0.2320
39192SOL    HW223540  11.421  10.451   9.159  1.0537 -0.9523 -2.0166
39193SOL     OW23541   0.915   7.945   8.267 -0.1527  0.0221 -0.1302
39193SOL    HW123542   1.002   7.948   8.307  0.2060  0.3375 -0.9168
39193SOL    HW223543   0.862   7.896   8.330  0.1843  1.2001  1.1210
39194SOL     OW23544   7.603   7.842   0.092  0.3814 -0.2980 -0.1013
39194SOL    HW123545   7.557   7.776   0.040 -0.6009  2.3908 -2.9868
39194SOL    HW223546   7.542   7.865   0.162 -1.1333  0.5167 -1.6311
39195SOL     OW23547   3.317   4.182   3.076  0.4249  0.0358  0.0281
39195SOL    HW123548   3.258   4.182   3.151 -0.5255  1.4827 -0.6630
39195SOL    HW223549   3.283   4.114   3.018 -0.0748  0.3036  0.0032
39196SOL     OW23550   9.949  11.289   7.109  1.0894 -0.1251 -0.3297
39196SOL    HW123551   9.977  11.202   7.137  2.3362  0.7666  1.3737
39196SOL    HW223552   9.943  11.339   7.190 -0.2866  1.2149 -1.2092
39197SOL     OW23553  10.021   0.355   8.208 -0.6491  0.0937  0.1035
39197SOL    HW123554  10.051   0.302   8.282 -0.8894  0.9017  0.7990
39197SOL    HW223555   9.931   0.325   8.192  0.0596 -1.4988 -1.2115
39198SOL     OW23556   9.910   3.606   3.214 -0.2386  0.2045 -0.1198
39198SOL    HW123557   9.824   3.567   3.198 -0.2818 -1.0428  2.5447
39198SOL    HW223558   9.900   3.648   3.300  1.5936  0.7144 -0.1351
39199SOL     OW23559  10.704  10.407   1.164  0.2461 -0.2489  0.5717
39199SOL    HW123560  10.618  10.395   1.204 -0.7742 -0.1910 -1.4721
39199SOL    HW223561  10.748  10.323   1.179 -1.1052 -1.1862 -0.4204
39200SOL     OW23562   2.750   7.617   4.944  0.4039  0.3493 -0.6205
39200SOL    HW123563   2.819   7.684   4.936 -1.7752  2.6708 -1.4302
39200SOL    HW223564   2.676   7.663   4.984 -0.7834 -1.9703  0.0260
39201SOL     OW23565  11.535   4.029  12.329  0.0918  0.1229  0.4572
39201SOL    HW123566  11.460   3.972  12.349 -0.2982  0.2914 -0.4726
39201SOL    HW223567  11.573   3.992  12.250 -0.4014  1.3484 -0.3951
39202SOL     OW23568   8.937   3.348   2.454  0.2271  0.7949  0.1603
39202SOL    HW123569   9.030   3.328   2.461  0.0965 -0.1877 -0.6429
39202SOL    HW223570   8.901   3.328   2.541  0.7363  1.0061  0.4192
39203SOL     OW23571   8.888   8.784   7.211 -0.2688 -0.4485 -0.0988
39203SOL    HW123572   8.838   8.866   7.217 -0.6310 -0.5634 -1.2834
39203SOL    HW223573   8.978   8.811   7.196 -0.1867 -0.2605  0.6806
39204SOL     OW23574   6.111   7.717   7.573  0.5552 -0.3421 -0.1602
39204SOL    HW123575   6.091   7.632   7.612  2.0847  0.6616  3.1939
39204SOL    HW223576   6.051   7.778   7.616  0.1571  0.4629 -1.7790
39205SOL     OW23577   1.405   7.967  11.082 -0.2044 -0.1155 -0.0150
39205SOL    HW123578   1.449   7.982  11.166 -2.0621 -0.0556  1.0091
39205SOL    HW223579   1.375   8.054  11.055  2.1862  0.2405 -1.8916
39206SOL     OW23580   5.475  11.902   2.672 -0.3027 -0.4318 -0.2597
39206SOL    HW123581   5.497  11.823   2.722 -1.3649  0.1841  1.2695
39206SOL    HW223582   5.549  11.915   2.613  1.7084 -0.4442  2.1296
39207SOL     OW23583   2.659  11.705   8.153  0.0983  0.1840 -0.0404
39207SOL    HW123584   2.689  11.708   8.244  1.9305  2.1466 -0.6160
39207SOL    HW223585   2.738  11.687   8.102 -0.9529 -1.1991 -1.2692
39208SOL     OW23586   1.311   3.387   6.350 -0.2003  0.7935  0.0155
39208SOL    HW123587   1.223   3.411   6.321 -0.9835  0.5690  2.0701
39208SOL    HW223588   1.322   3.432   6.434  0.5804 -1.2995  1.0952
39209SOL     OW23589   6.531   6.975   8.789  0.1203 -0.2935 -0.4727
39209SOL    HW123590   6.544   6.881   8.780  0.8011 -0.1742 -0.8092
39209SOL    HW223591   6.598   7.014   8.733 -1.0811  0.3842 -1.4703
39210SOL     OW23592   3.870   7.989   5.709 -0.0032  0.3541  0.0878
39210SOL    HW123593   3.955   7.985   5.663 -0.1992  0.9778 -0.3504
39210SOL    HW223594   3.805   7.989   5.638 -0.4016 -0.6785  0.4373
39211SOL     OW23595   3.725   7.542   8.869  0.5667 -0.4927  0.3172
39211SOL    HW123596   3.759   7.615   8.818 -2.0297  0.7371  0.1716
39211SOL    HW223597   3.768   7.465   8.832  1.3332  0.6940 -1.3956
39212SOL     OW23598   8.753   5.687   6.666  0.3360  0.5391 -0.3019
39212SOL    HW123599   8.662   5.704   6.687  0.0854 -0.7889 -0.2485
39212SOL    HW223600   8.758   5.696   6.570  0.2281  0.9728 -0.2655
39213SOL     OW23601   8.084   4.882   8.451  0.1025 -0.1073 -0.2037
39213SOL    HW123602   8.028   4.812   8.486 -1.3538  0.7504 -0.7253
39213SOL    HW223603   8.026   4.957   8.444  1.7074  1.2826  0.6324
39214SOL     OW23604   8.202   6.025   8.131 -0.4945 -0.4651  0.7756
39214SOL    HW123605   8.227   6.112   8.102 -1.1912 -0.6348 -0.3853
39214SOL    HW223606   8.263   5.966   8.086 -1.3030 -0.6990 -0.0555
39215SOL     OW23607  10.027   8.264   8.840  0.0752  0.2348 -0.8131
39215SOL    HW123608   9.958   8.207   8.871 -1.0376  1.4498 -0.9872
39215SOL    HW223609  10.057   8.311   8.918  1.0595 -0.6221 -0.6505
39216SOL     OW23610  11.846   8.595   5.810  0.1935  0.1544  0.7253
39216SOL    HW123611  11.755   8.565   5.809  0.0524  0.4956  2.0313
39216SOL    HW223612  11.880   8.567   5.895  1.2318  0.2633  0.3591
39217SOL     OW23613   9.335   9.608   0.176 -0.0488 -0.5508 -0.3614
39217SOL    HW123614   9.287   9.543   0.226 -0.5611  1.9795  2.7522
39217SOL    HW223615   9.401   9.642   0.236  0.0859  1.8925 -1.7353
39218SOL     OW23616   4.675   9.017   1.810  0.1947  0.0255 -0.3465
39218SOL    HW123617   4.581   9.018   1.826  0.0358 -2.4635 -0.7127
39218SOL    HW223618   4.684   9.031   1.715  0.0902 -0.9165 -0.5046
39219SOL     OW23619  11.383   1.063  10.912 -0.4027  0.0355  0.3414
39219SOL    HW123620  11.395   1.131  10.979  0.3060 -0.2173  0.4817
39219SOL    HW223621  11.312   1.096  10.857 -1.2951  0.0661  1.4563
39220SOL     OW23622  11.531   7.206   8.824  0.6906 -0.1375 -0.0790
39220SOL    HW123623  11.503   7.123   8.787  0.0753  0.0043  0.0564
39220SOL    HW223624  11.511   7.271   8.756  1.7632 -0.1713 -0.4460
39221SOL     OW23625   3.466  11.657   2.198 -0.0208  0.0126 -0.2172
39221SOL    HW123626   3.418  11.736   2.174  0.5498  0.0804 -1.1899
39221SOL    HW223627   3.478  11.664   2.293 -1.2147  0.3829 -0.0850
39222SOL     OW23628   6.197   0.851   5.254  0.3369 -0.1865 -0.3776
39222SOL    HW123629   6.237   0.900   5.326  1.0660  0.6422 -1.3119
39222SOL    HW223630   6.135   0.792   5.296 -0.0854  1.0915  0.8462
39223SOL     OW23631   4.786  11.041   1.797  0.3267  0.1923  0.0762
39223SOL    HW123632   4.753  11.111   1.854  0.9215 -1.4216  2.5892
39223SOL    HW223633   4.832  10.982   1.857  2.1841 -0.9585 -2.3429
39224SOL     OW23634   4.136   8.780   5.447  0.2108  0.3435  0.0953
39224SOL    HW123635   4.101   8.805   5.532 -2.0329 -3.0556  0.3693
39224SOL    HW223636   4.222   8.744   5.465 -0.1934 -0.2193  0.9237
39225SOL     OW23637   8.892  10.287  11.607  0.1243  0.0703 -0.1166
39225SOL    HW123638   8.927  10.239  11.682  1.2049 -0.7294 -1.1059
39225SOL    HW223639   8.799  10.266  11.606  0.2448 -0.5344  0.5348
39226SOL     OW23640  10.263   9.418   6.428  0.7368  0.4543  0.1547
39226SOL    HW123641  10.328   9.441   6.494  1.7130 -1.5690 -0.0186
39226SOL    HW223642  10.222   9.338   6.462 -0.7797  0.9796 -0.3592
39227SOL     OW23643  12.309   7.027   2.835  0.1138  0.1958 -0.1468
39227SOL    HW123644  12.255   7.074   2.771 -0.2672 -1.0115 -0.7460
39227SOL    HW223645  12.328   7.092   2.903 -0.8555  1.0501 -0.6635
39228SOL     OW23646   7.292   1.679   0.445  0.1638  0.5797  0.1617
39228SOL    HW123647   7.306   1.666   0.539  0.8538  2.0792  0.2849
39228SOL    HW223648   7.230   1.751   0.439 -1.7964 -1.0860 -0.5382
39229SOL     OW23649   7.535  12.022  12.019  0.0600  0.9463 -0.3939
39229SOL    HW123650   7.477  12.003  12.093  0.4169  2.4888  0.3282
39229SOL    HW223651   7.486  11.994  11.942  0.7415 -3.2329  0.4847
39230SOL     OW23652   5.623  12.145   6.847  0.2435  0.1619 -0.7557
39230SOL    HW123653   5.597  12.200   6.773 -0.4287  0.1813 -0.5114
39230SOL    HW223654   5.690  12.196   6.892 -0.1560  0.6473 -0.7071
39231SOL     OW23655   6.999   7.477   4.201 -0.4968 -0.1939 -0.1926
39231SOL    HW123656   7.024   7.555   4.251  0.3599 -0.8005  0.3542
39231SOL    HW223657   6.904   7.474   4.207 -0.6699  1.5788 -1.4074
39232SOL     OW23658   0.063  10.632   5.190 -0.0733 -0.6864  0.3844
39232SOL    HW123659   0.049  10.550   5.144 -0.0474 -0.6041  0.2269
39232SOL    HW223660  -0.018  10.647   5.238 -0.2891 -0.5325 -0.0184
39233SOL     OW23661   2.938   6.412  11.004  0.5454 -0.2534 -0.6438
39233SOL    HW123662   2.905   6.501  11.000  0.3346 -0.1659  1.6599
39233SOL    HW223663   2.860   6.358  11.013  0.7595 -0.3000  1.6741
39234SOL     OW23664  11.302  11.777   3.226 -0.1288 -0.0720  0.0159
39234SOL    HW123665  11.340  11.751   3.310 -0.0715  1.5632  0.5279
39234SOL    HW223666  11.244  11.849   3.248  0.4800  0.9040 -1.4402
39235SOL     OW23667   7.083   1.250   9.854 -0.3327 -0.2841  0.2735
39235SOL    HW123668   7.059   1.196   9.929 -0.8480 -1.0444 -0.4202
39235SOL    HW223669   7.145   1.195   9.804 -1.1752 -0.4314 -0.6535
39236SOL     OW23670   2.514   7.565   2.569  0.2495 -0.4562  0.0729
39236SOL    HW123671   2.565   7.496   2.525  0.1866 -0.9919  0.8111
39236SOL    HW223672   2.567   7.587   2.646 -0.4270 -0.7037  0.6113
39237SOL     OW23673   3.111   7.395   2.954  0.3489  0.4627 -0.1684
39237SOL    HW123674   3.184   7.357   2.905  0.4299  0.3198  0.0592
39237SOL    HW223675   3.129   7.489   2.955  0.0792  0.5267 -0.8487
39238SOL     OW23676   8.544   8.157   3.924  0.2174 -0.0896  0.1986
39238SOL    HW123677   8.485   8.082   3.916 -0.4318  0.3622  0.6173
39238SOL    HW223678   8.621   8.133   3.873  0.4401 -1.4472  1.1162
39239SOL     OW23679  12.341   0.572   1.204  0.0055 -0.5035 -0.4623
39239SOL    HW123680  12.264   0.614   1.242 -1.2383 -2.7736 -0.2908
39239SOL    HW223681  12.350   0.490   1.252  3.1478  0.0734  0.1656
39240SOL     OW23682   6.788   9.731  12.342  0.0657  0.4525 -0.5389
39240SOL    HW123683   6.800   9.799  12.277 -1.2208 -0.0336 -1.3215
39240SOL    HW223684   6.846   9.756  12.414  0.6807  1.5888 -1.3989
39241SOL     OW23685   2.287   6.013  10.888 -0.5455 -0.3442  0.0733
39241SOL    HW123686   2.370   6.003  10.841 -0.4648  0.8816 -0.0578
39241SOL    HW223687   2.312   6.018  10.981 -0.5043 -0.3432  0.0622
39242SOL     OW23688   0.995   7.981   1.703 -0.5203  0.2733 -0.1377
39242SOL    HW123689   1.031   8.067   1.724 -2.4915  0.9139  0.8969
39242SOL    HW223690   0.943   7.996   1.624  1.5218 -0.6901 -1.7706
39243SOL     OW23691  11.005   2.151   1.403  0.4503 -0.2361  0.1374
39243SOL    HW123692  10.938   2.217   1.387  0.0409 -1.1547 -2.4479
39243SOL    HW223693  10.999   2.132   1.497 -2.6654 -0.0187  0.0660
39244SOL     OW23694   5.135   1.924   4.342 -0.7793 -0.8983 -0.1206
39244SOL    HW123695   5.140   2.004   4.290 -1.7016  0.3933  1.6766
39244SOL    HW223696   5.222   1.915   4.380 -0.7920 -0.4764  0.0197
39245SOL     OW23697   3.181   3.588   2.767  0.0565  0.8391 -0.4307
39245SOL    HW123698   3.156   3.596   2.859 -2.1140 -0.3280 -0.8596
39245SOL    HW223699   3.230   3.506   2.762  0.1055  0.8625 -0.3341
39246SOL     OW23700   1.471  11.678  11.630 -0.0671  0.2872 -1.2776
39246SOL    HW123701   1.401  11.659  11.567  0.3182 -1.3185 -1.2585
39246SOL    HW223702   1.496  11.593  11.665  1.1639  0.9476 -0.4705
39247SOL     OW23703   1.323   6.838   3.572  0.1014  0.0961 -0.1242
39247SOL    HW123704   1.280   6.879   3.497 -0.1226  0.1439  0.0273
39247SOL    HW223705   1.270   6.760   3.590  0.5087 -0.2461 -0.3921
39248SOL     OW23706   2.754   1.938   1.829 -0.4111  0.2622  0.3809
39248SOL    HW123707   2.734   2.032   1.825 -0.4388  0.2250 -2.5886
39248SOL    HW223708   2.849   1.934   1.819 -0.6327 -0.0202 -2.3250
39249SOL     OW23709   4.314  11.001   1.008  0.2663 -0.1729  0.2480
39249SOL    HW123710   4.270  10.966   1.085  1.0763  0.6534  1.1118
39249SOL    HW223711   4.285  11.092   1.002 -1.2773 -0.7185 -1.5750
39250SOL     OW23712  10.369   0.124   8.430  0.1447  0.1378  0.4797
39250SOL    HW123713  10.417   0.090   8.355  1.4605  0.1411  1.2915
39250SOL    HW223714  10.369   0.052   8.494  1.3597  0.9869  1.4900
39251SOL     OW23715  11.448  11.911   5.836  0.0911  0.2618 -0.2468
39251SOL    HW123716  11.457  11.975   5.906 -1.8324 -2.7357  3.0455
39251SOL    HW223717  11.521  11.850   5.850 -0.4572 -0.5167 -0.7008
39252SOL     OW23718  12.216   8.627   1.980 -0.2783  0.2557  0.3387
39252SOL    HW123719  12.165   8.699   1.944 -1.0563  0.6224  2.0642
39252SOL    HW223720  12.166   8.548   1.958  0.3664  0.2612 -1.2020
39253SOL     OW23721   1.807   0.629   3.068 -0.6672  0.1200 -0.4431
39253SOL    HW123722   1.898   0.620   3.038 -0.9174 -0.4855 -1.0501
39253SOL    HW223723   1.785   0.543   3.103 -1.1940  0.0890 -0.8433
39254SOL     OW23724   9.046  12.224   6.016  0.3208  0.4515 -0.1721
39254SOL    HW123725   9.006  12.137   6.016  2.0514 -0.3936  0.1299
39254SOL    HW223726   8.979  12.282   6.052 -0.2163 -1.0784  1.4341
39255SOL     OW23727  10.427   1.716  11.798  0.4119 -0.3306 -0.3667
39255SOL    HW123728  10.370   1.765  11.858  1.2485 -1.3553  1.3552
39255SOL    HW223729  10.396   1.626  11.804  1.0360 -0.5795 -0.8399
39256SOL     OW23730   5.929   2.744   8.037 -0.2933 -0.4590 -0.2223
39256SOL    HW123731   5.896   2.810   8.097  0.7675 -0.3866  0.3088
39256SOL    HW223732   5.851   2.704   7.998 -1.0615  2.9644 -2.6849
39257SOL     OW23733  12.339   2.157   6.681 -0.1220 -0.1021  0.5596
39257SOL    HW123734  12.304   2.082   6.729 -0.2498 -1.2369 -1.2014
39257SOL    HW223735  12.415   2.185   6.732 -0.6876 -0.7423  1.8090
39258SOL     OW23736   2.264  12.387   8.939  0.2256  0.2909 -0.0676
39258SOL    HW123737   2.293  12.454   9.001 -0.9036  1.5984 -0.8823
39258SOL    HW223738   2.174  12.411   8.917  0.1441 -0.8984 -1.1945
39259SOL     OW23739   1.052   7.645   9.407  0.0057  0.4580 -0.3603
39259SOL    HW123740   0.971   7.696   9.402  0.5610  1.4005 -0.0442
39259SOL    HW223741   1.082   7.657   9.498  0.1137 -0.4939 -0.2602
39260SOL     OW23742   3.346   5.771   5.269 -0.1738  0.4284 -0.2831
39260SOL    HW123743   3.356   5.783   5.174 -0.2373  0.0427 -0.3391
39260SOL    HW223744   3.259   5.734   5.279  0.1482 -0.3246 -0.1483
39261SOL     OW23745   4.424   5.516   1.441  0.3974  0.1388 -0.1800
39261SOL    HW123746   4.395   5.600   1.477  0.4579  0.2403 -0.3608
39261SOL    HW223747   4.519   5.517   1.454  0.3751  0.0126 -0.0069
39262SOL     OW23748  10.102   4.287   3.226  0.0246  0.1652 -0.1711
39262SOL    HW123749  10.043   4.216   3.200  0.0371  0.5592 -1.3146
39262SOL    HW223750  10.133   4.324   3.144 -0.3279  1.7854  0.3960
39263SOL     OW23751   1.283   2.335   5.728 -0.0308 -0.1934  0.2587
39263SOL    HW123752   1.335   2.412   5.702  0.0615 -0.7400 -1.2795
39263SOL    HW223753   1.196   2.354   5.695 -0.2535 -0.3196  0.7707
39264SOL     OW23754   7.646   2.466   2.250  0.1101 -0.0033  0.1133
39264SOL    HW123755   7.655   2.459   2.155  0.0836 -1.6834  0.1947
39264SOL    HW223756   7.727   2.509   2.278 -0.3767  1.5295 -0.7420
39265SOL     OW23757   3.119   3.599  11.335  0.0712 -0.1771 -0.6225
39265SOL    HW123758   3.073   3.675  11.301 -0.3499  0.2033  0.7555
39265SOL    HW223759   3.088   3.590  11.425  0.5879 -1.6009 -0.5607
39266SOL     OW23760   5.352   5.209   3.888  0.1392  0.1282 -0.0775
39266SOL    HW123761   5.264   5.216   3.851 -0.2362 -2.0653  0.2921
39266SOL    HW223762   5.340   5.227   3.981  0.2650  0.7990 -0.1852
39267SOL     OW23763  10.621   8.424   0.159  0.0377  0.2166 -0.4656
39267SOL    HW123764  10.660   8.414   0.072 -2.6751 -0.2823 -1.7551
39267SOL    HW223765  10.635   8.516   0.182 -0.9419  0.9067 -2.4108
39268SOL     OW23766   4.405   4.967   1.666 -0.8049  0.2052 -0.2887
39268SOL    HW123767   4.437   4.931   1.583  1.4852 -0.7910  0.9584
39268SOL    HW223768   4.456   4.923   1.734 -1.1687  2.4293  1.5735
39269SOL     OW23769  10.998   0.630   3.326  0.0661  0.9945 -0.2594
39269SOL    HW123770  10.996   0.608   3.233 -0.5151 -2.3609  0.4092
39269SOL    HW223771  11.033   0.719   3.329  0.2727  1.1541 -3.6406
39270SOL     OW23772   3.687   2.508   0.604 -0.4653  0.0349 -0.3510
39270SOL    HW123773   3.718   2.438   0.547 -1.0487  0.3406 -1.0536
39270SOL    HW223774   3.660   2.463   0.685  0.9360 -0.3279 -0.0586
39271SOL     OW23775   6.819  10.439   7.303  0.3035  0.6365 -0.1397
39271SOL    HW123776   6.814  10.442   7.398  0.8224  1.4748 -0.1240
39271SOL    HW223777   6.728  10.446   7.273  0.1996  1.1426  0.2848
39272SOL     OW23778   2.077   9.150   9.321  0.5122 -0.8476 -0.2121
39272SOL    HW123779   2.017   9.167   9.248 -1.0762 -0.7371  1.0840
39272SOL    HW223780   2.137   9.084   9.286 -0.3323 -0.9534 -1.5664
39273SOL     OW23781   1.800   4.177   6.062  0.1880  0.4063 -0.3815
39273SOL    HW123782   1.753   4.094   6.067 -0.4716  0.7444 -0.8860
39273SOL    HW223783   1.893   4.151   6.061 -0.0045 -0.5191 -3.0582
39274SOL     OW23784   1.369   9.785   4.743  0.2538  0.1358  0.1096
39274SOL    HW123785   1.435   9.788   4.813 -0.1046 -1.1076  0.5236
39274SOL    HW223786   1.308   9.855   4.765  0.3191 -0.0404  0.8654
39275SOL     OW23787   0.853   9.164   8.156 -0.3915 -0.6409  0.4635
39275SOL    HW123788   0.825   9.095   8.096 -0.5640  0.0700 -0.2883
39275SOL    HW223789   0.921   9.212   8.108 -0.8334  0.1982  0.6588
39276SOL     OW23790   4.773   4.957   1.790  0.1359 -0.2067 -0.0327
39276SOL    HW123791   4.735   4.940   1.876 -1.6238  0.5574 -0.6299
39276SOL    HW223792   4.732   5.038   1.761  2.0456  0.5229 -0.8540
39277SOL     OW23793   7.461   6.307   2.588 -0.2330 -0.0104 -0.2801
39277SOL    HW123794   7.528   6.239   2.577 -1.1656 -0.8476 -0.9201
39277SOL    HW223795   7.450   6.315   2.683  0.5787 -0.0450 -0.1761
39278SOL     OW23796   3.014   1.134   1.346 -0.0469  0.4488  0.3177
39278SOL    HW123797   3.069   1.146   1.269  1.1892 -1.3246  0.8630
39278SOL    HW223798   2.972   1.219   1.359  1.9970  1.6580 -0.5610
39279SOL     OW23799   9.162   6.874  11.996 -0.2737  0.2654  0.2247
39279SOL    HW123800   9.122   6.942  12.050 -0.1774  1.7785 -1.4915
39279SOL    HW223801   9.183   6.919  11.913  3.0503 -0.9570  0.2523
39280SOL     OW23802   5.822   0.728   5.591  0.5959  0.6275 -0.2727
39280SOL    HW123803   5.749   0.789   5.579 -0.3206 -0.8001 -2.6455
39280SOL    HW223804   5.899   0.783   5.598 -0.2362  2.0933 -2.0540
39281SOL     OW23805   8.943   3.374   4.749 -0.0638 -0.5083 -0.0408
39281SOL    HW123806   8.853   3.349   4.770 -0.5548  0.1953 -1.2089
39281SOL    HW223807   8.995   3.296   4.770 -0.6717 -0.3580  2.3071
39282SOL     OW23808   2.130   7.506   4.486  0.9970 -0.0783 -0.2527
39282SOL    HW123809   2.101   7.482   4.574 -0.4393  0.8937 -0.4228
39282SOL    HW223810   2.177   7.589   4.497  2.1906 -0.7305 -0.2265
39283SOL     OW23811   0.180   3.232  11.098  0.0760 -0.0401 -0.0111
39283SOL    HW123812   0.205   3.141  11.085 -2.7822 -1.2988  2.2877
39283SOL    HW223813   0.139   3.257  11.015 -0.1564 -1.2533 -0.2859
39284SOL     OW23814   6.080   4.851   7.355  0.7265 -0.1223 -0.1395
39284SOL    HW123815   6.137   4.847   7.278  0.2852 -2.8494 -0.4332
39284SOL    HW223816   6.135   4.890   7.423  2.4626 -1.1725 -0.8454
39285SOL     OW23817  12.136   2.046   6.434  0.1817 -0.1928 -0.3147
39285SOL    HW123818  12.219   2.050   6.387  0.6776  1.1660  0.5822
39285SOL    HW223819  12.104   2.136   6.433  0.3605 -0.0224  2.1105
39286SOL     OW23820   4.485   3.400   8.945 -0.1115 -0.0200 -0.1813
39286SOL    HW123821   4.569   3.358   8.926  0.2674 -0.3257  1.9887
39286SOL    HW223822   4.429   3.374   8.871  1.2468 -1.0737 -0.8911
39287SOL     OW23823   5.399  10.580  12.352  0.2674  0.2953 -0.2630
39287SOL    HW123824   5.460  10.512  12.323  1.1378  0.0120  2.0259
39287SOL    HW223825   5.328  10.576  12.288  1.7433 -0.6298 -1.9680
39288SOL     OW23826  11.719   6.931  11.325 -0.2638  0.2898 -0.1348
39288SOL    HW123827  11.717   7.026  11.336 -1.5133  0.2200  0.3402
39288SOL    HW223828  11.675   6.916  11.241 -2.0484  0.0134  0.8062
39289SOL     OW23829   8.274   3.562   6.197 -0.0546  0.0550  0.8689
39289SOL    HW123830   8.271   3.469   6.178 -0.0269  0.0554  0.8629
39289SOL    HW223831   8.186   3.583   6.228 -0.9758  0.6212 -1.8991
39290SOL     OW23832   7.814   7.454   8.251 -0.5797 -0.4658  0.6979
39290SOL    HW123833   7.739   7.470   8.194  0.3036  0.3436 -0.2783
39290SOL    HW223834   7.808   7.521   8.319  0.3686  0.9399 -0.5569
39291SOL     OW23835   6.681   6.797   6.632  0.3442  0.3691  0.4089
39291SOL    HW123836   6.743   6.861   6.597 -0.4785  0.3195 -1.2411
39291SOL    HW223837   6.667   6.824   6.723  0.5439  2.1261 -0.0498
39292SOL     OW23838   8.724   6.441   0.477  0.3061  0.1247  0.0289
39292SOL    HW123839   8.692   6.417   0.564  0.8329 -0.2295  0.1349
39292SOL    HW223840   8.804   6.491   0.494  0.2441  0.3192 -0.2441
39293SOL     OW23841  10.381   4.289  10.699  0.3681 -0.2910 -0.2648
39293SOL    HW123842  10.372   4.205  10.743  0.1318 -0.0852  0.0893
39293SOL    HW223843  10.323   4.284  10.624  0.5559 -0.5405 -0.3950
39294SOL     OW23844   7.087  10.195   9.754  0.0648 -0.0529  0.1629
39294SOL    HW123845   7.073  10.264   9.689 -4.3006  0.2084  1.1090
39294SOL    HW223846   7.111  10.118   9.703 -0.5180  0.8204 -1.5032
39295SOL     OW23847   6.753   7.173   6.933  0.1290  0.2735 -0.2163
39295SOL    HW123848   6.752   7.250   6.876  1.2182  0.1652 -0.3959
39295SOL    HW223849   6.715   7.204   7.016  0.4086  0.9658 -0.3414
39296SOL     OW23850  12.404  10.584   7.867  0.3969  0.3507 -0.6423
39296SOL    HW123851  12.403  10.679   7.857 -0.3021  0.3872 -0.2940
39296SOL    HW223852  12.317  10.556   7.840 -0.0136  0.0062  0.9375
39297SOL     OW23853   9.252   5.715  12.197  0.2903  0.0987  0.1089
39297SOL    HW123854   9.340   5.694  12.165  0.7370  0.4175  1.0525
39297SOL    HW223855   9.196   5.714  12.120  1.4033  1.3719 -0.7589
39298SOL     OW23856   4.961   0.266   4.767 -0.1810 -0.2028  0.6452
39298SOL    HW123857   5.009   0.322   4.828 -0.0914 -0.1941  0.5685
39298SOL    HW223858   4.959   0.180   4.810 -0.9679  0.0376  1.0957
39299SOL     OW23859  12.190  12.278   9.710 -0.3516 -0.0662 -0.0635
39299SOL    HW123860  12.137  12.199   9.702 -0.9195  0.4491 -1.7201
39299SOL    HW223861  12.281  12.246   9.712 -0.5138 -0.7190 -1.8785
39300SOL     OW23862   7.107  10.263   1.653  0.7031 -0.4639 -0.3141
39300SOL    HW123863   7.092  10.229   1.741 -0.9709  0.1994 -0.3169
39300SOL    HW223864   7.201  10.281   1.650  0.5900  0.8257  1.8392
39301SOL     OW23865   8.840   7.442  10.973  0.3456  0.3286  0.2435
39301SOL    HW123866   8.806   7.532  10.977 -0.5920  0.1503 -1.9335
39301SOL    HW223867   8.762   7.387  10.966  0.8437 -0.1867 -3.7145
39302SOL     OW23868   4.937   1.297   0.778 -0.3523 -0.3054 -0.7931
39302SOL    HW123869   4.893   1.244   0.712 -0.9558 -1.7669  0.7122
39302SOL    HW223870   5.000   1.350   0.729  0.3214 -2.4421 -2.3587
39303SOL     OW23871   1.808   8.701   0.729  0.0795  0.2965  0.4647
39303SOL    HW123872   1.869   8.717   0.801 -0.8131 -0.6991  1.4879
39303SOL    HW223873   1.723   8.687   0.771 -0.2156 -1.7573 -0.6266
39304SOL     OW23874  10.044   9.247   4.009  0.2934  0.1363  0.4501
39304SOL    HW123875  10.103   9.303   3.958  0.7400  0.7640  1.6281
39304SOL    HW223876  10.032   9.169   3.954 -1.4409  1.8959 -1.8670
39305SOL     OW23877   0.692   9.879  10.694 -0.2807 -0.6802  0.0926
39305SOL    HW123878   0.770   9.830  10.721 -0.7184  0.1605  3.3063
39305SOL    HW223879   0.655   9.911  10.776 -1.4092  2.9129 -1.6185
39306SOL     OW23880   7.997  11.140   1.024 -0.2581 -0.4285 -0.2175
39306SOL    HW123881   8.054  11.063   1.024 -1.4241 -1.3366  0.5053
39306SOL    HW223882   8.056  11.214   1.009  1.6641 -0.9639  3.5562
39307SOL     OW23883   6.199   1.074   4.480 -0.7538 -0.0020  0.2972
39307SOL    HW123884   6.131   1.035   4.424 -0.4429 -0.4895  0.2521
39307SOL    HW223885   6.173   1.048   4.569 -1.2866  0.8318  0.4013
39308SOL     OW23886  11.073  12.376   0.278  0.1687 -0.3613 -0.3420
39308SOL    HW123887  11.143  12.310   0.271  1.0053  0.6827 -3.1421
39308SOL    HW223888  11.119  12.460   0.277 -1.0378  0.3716 -2.8730
39309SOL     OW23889   2.439   4.980   2.870 -0.0314 -0.3739  0.1137
39309SOL    HW123890   2.398   4.902   2.908  0.2940 -0.6569 -0.1055
39309SOL    HW223891   2.527   4.952   2.848 -0.3259 -0.3298 -1.1880
39310SOL     OW23892   9.003  10.031  12.476  0.2572 -0.0706  0.1493
39310SOL    HW123893   9.028  10.114  12.515 -0.9232 -0.3103  1.4865
39310SOL    HW223894   8.998   9.970  12.549 -1.6470 -0.6204 -0.3707
39311SOL     OW23895  12.038   1.626  10.175  0.2846  0.1922 -0.0085
39311SOL    HW123896  12.040   1.571  10.097  2.0257  1.2334 -0.7689
39311SOL    HW223897  12.107   1.591  10.231  0.4387  0.6971  0.1281
39312SOL     OW23898   0.757  11.032   0.031  0.8008 -0.3851 -0.1173
39312SOL    HW123899   0.698  11.037  -0.045  0.7446  0.7507 -0.0176
39312SOL    HW223900   0.725  10.958   0.082 -0.6502  0.2997  0.0057
39313SOL     OW23901  10.460  10.972   3.584 -0.5250 -0.2117  0.1709
39313SOL    HW123902  10.440  11.065   3.579  0.0559 -0.1287 -2.9756
39313SOL    HW223903  10.548  10.969   3.622 -0.5092  0.5341  0.2110
39314SOL     OW23904   3.269  10.784   1.474  0.1442 -0.0049  0.1144
39314SOL    HW123905   3.222  10.769   1.391  1.8273 -0.1207 -0.8624
39314SOL    HW223906   3.305  10.872   1.465 -1.1217  0.6931  1.5088
39315SOL     OW23907   4.467   9.963  10.103 -0.1443 -0.3033 -0.6871
39315SOL    HW123908   4.497   9.903  10.172 -1.6841 -1.6772 -1.1343
39315SOL    HW223909   4.546  10.005  10.071  0.7004 -0.2426  1.3452
39316SOL     OW23910   0.333   5.908   5.555 -0.6300  0.0889  0.2560
39316SOL    HW123911   0.380   5.991   5.542 -1.8182  0.7856  0.2289
39316SOL    HW223912   0.400   5.841   5.548  0.3840  1.0574  0.3697
39317SOL     OW23913   7.973  12.165  12.200  0.0081  0.9103  0.0526
39317SOL    HW123914   8.001  12.255  12.220  1.0886  1.0128 -1.6819
39317SOL    HW223915   8.038  12.110  12.244 -1.4497  0.8679  2.3040
39318SOL     OW23916  10.710   2.850   4.636 -0.3061  0.0608  0.1506
39318SOL    HW123917  10.620   2.822   4.649 -0.0943 -1.3864 -1.2029
39318SOL    HW223918  10.757   2.770   4.614  0.8979  1.0771 -1.1232
39319SOL     OW23919  11.456   3.355   1.700  0.2587 -0.2971  0.1051
39319SOL    HW123920  11.461   3.450   1.687  1.1143 -0.2505  0.6780
39319SOL    HW223921  11.452   3.319   1.611  1.0191  0.2381 -0.1650
39320SOL     OW23922   6.792   9.798   6.594 -0.0281 -0.5621 -0.5110
39320SOL    HW123923   6.839   9.878   6.617  0.3355 -0.9034 -0.0576
39320SOL    HW223924   6.838   9.764   6.516 -1.3627  0.6831 -1.9154
39321SOL     OW23925   0.021   6.751   3.358 -0.2923  0.6614  0.0812
39321SOL    HW123926   0.008   6.695   3.281 -1.0996 -0.3416  0.9199
39321SOL    HW223927   0.059   6.693   3.424  0.0639  1.4285  0.5671
39322SOL     OW23928   9.261   6.713  12.212  0.2117  0.3473  0.2350
39322SOL    HW123929   9.229   6.762  12.137 -0.6506 -2.0478 -1.0772
39322SOL    HW223930   9.339   6.761  12.240  0.1358  1.7408 -1.7150
39323SOL     OW23931   7.123   6.660   6.125  0.1652  0.5076 -0.3369
39323SOL    HW123932   7.159   6.571   6.129 -1.4361 -0.1478  0.5070
39323SOL    HW223933   7.082   6.665   6.039  0.2267  0.3988 -0.3731
39324SOL     OW23934   7.500   8.598  10.916  0.1132  0.2246  0.5018
39324SOL    HW123935   7.528   8.657  10.986  1.0473 -0.1203  0.4426
39324SOL    HW223936   7.442   8.535  10.960  1.4043 -0.5409  1.1947
39325SOL     OW23937  10.268   6.375  10.304 -0.2266 -0.0923  0.2331
39325SOL    HW123938  10.300   6.445  10.247  0.9648 -1.5913 -1.0472
39325SOL    HW223939  10.275   6.410  10.392 -0.1864  1.5899 -0.4147
39326SOL     OW23940  11.681   4.842   5.531 -0.1809  0.1586  0.1653
39326SOL    HW123941  11.595   4.816   5.499  0.2525 -0.8121 -0.2431
39326SOL    HW223942  11.719   4.894   5.460  0.1450 -0.6524 -0.2669
39327SOL     OW23943   9.803   2.219   0.156  0.0883  0.5231 -0.3077
39327SOL    HW123944   9.721   2.197   0.201 -0.6032  0.5384 -1.5200
39327SOL    HW223945   9.812   2.152   0.088 -0.5561  2.2401 -2.1867
39328SOL     OW23946   8.657   1.384  10.189 -0.7697 -0.2693  0.0302
39328SOL    HW123947   8.662   1.311  10.251  0.0077  0.0463  0.3569
39328SOL    HW223948   8.564   1.393  10.170 -0.9386 -0.8991  0.5238
39329SOL     OW23949   1.645   7.032   3.638  0.2654  0.2555  0.2268
39329SOL    HW123950   1.662   7.092   3.711 -1.2761  3.8847 -2.1161
39329SOL    HW223951   1.690   7.071   3.564  1.2260 -2.9552 -1.0664
39330SOL     OW23952   6.762   1.184   6.540  0.1154  0.2876 -0.1110
39330SOL    HW123953   6.688   1.125   6.526  0.4901  0.2338 -2.2681
39330SOL    HW223954   6.733   1.267   6.501  0.4120  0.9099  0.9477
39331SOL     OW23955   7.298   5.965   4.317  0.4681  0.1798 -0.2847
39331SOL    HW123956   7.287   6.045   4.266  1.0507 -0.7357 -1.9416
39331SOL    HW223957   7.251   5.898   4.266  3.1875 -1.2892 -1.0763
39332SOL     OW23958   1.825   4.176  11.284 -0.5810  0.3344  0.0265
39332SOL    HW123959   1.777   4.259  11.278  1.6120  1.6211 -0.8545
39332SOL    HW223960   1.902   4.197  11.337 -0.6287 -1.5047  0.8995
39333SOL     OW23961   8.765   0.451   8.235 -0.2471  0.4930  0.5139
39333SOL    HW123962   8.831   0.498   8.184 -1.7430  3.2539  0.9611
39333SOL    HW223963   8.775   0.484   8.324 -0.9376 -0.5442  0.9970
39334SOL     OW23964   8.600   1.607   5.186  0.2275 -0.1487  0.1461
39334SOL    HW123965   8.657   1.560   5.125 -0.0921 -0.1697 -0.1457
39334SOL    HW223966   8.651   1.682   5.215 -0.2640  0.9313 -1.6120
39335SOL     OW23967  12.148   4.207   8.671 -0.6563  0.0968 -0.2911
39335SOL    HW123968  12.148   4.291   8.625  1.3064 -0.0565 -0.6403
39335SOL    HW223969  12.207   4.220   8.746  0.9876 -1.3811 -1.2536
39336SOL     OW23970   2.204   3.966  11.139  0.1780  0.3182 -0.1010
39336SOL    HW123971   2.229   4.036  11.198 -1.0629 -0.4136  1.3842
39336SOL    HW223972   2.244   3.887  11.176  0.6005  0.0445 -1.0890
39337SOL     OW23973   0.797   9.083   1.633 -0.4848 -0.0372 -0.0740
39337SOL    HW123974   0.848   9.139   1.692 -0.3298  0.7861 -0.9506
39337SOL    HW223975   0.783   9.138   1.555  0.9001 -1.6857 -1.5669
39338SOL     OW23976   8.506   8.552   9.483 -0.2304  0.1679 -0.2668
39338SOL    HW123977   8.545   8.467   9.504 -1.2998 -0.0956  0.7589
39338SOL    HW223978   8.495   8.551   9.388  0.0654 -0.7109 -0.2975
39339SOL     OW23979   7.015   3.127   1.484  0.3654 -0.0104  0.5429
39339SOL    HW123980   7.072   3.194   1.447 -1.4691  0.9910 -0.6005
39339SOL    HW223981   7.004   3.063   1.414 -0.9208  0.4714  0.2879
39340SOL     OW23982   7.764  11.962   3.516  0.2078 -0.0039 -0.0338
39340SOL    HW123983   7.751  11.919   3.600  1.1211 -1.9220 -0.8075
39340SOL    HW223984   7.676  11.980   3.484 -0.2434  3.5664  2.5627
39341SOL     OW23985   7.573  12.006   9.043  0.0961  0.2509 -0.1492
39341SOL    HW123986   7.541  12.069   8.978 -0.7560 -0.7851 -0.7643
39341SOL    HW223987   7.631  11.948   8.995 -0.2775 -0.3189  0.0676
39342SOL     OW23988   5.324   3.944   3.042  0.6901 -0.2172 -0.0898
39342SOL    HW123989   5.256   3.983   3.097  0.5018  0.8087 -1.0307
39342SOL    HW223990   5.277   3.894   2.976  0.7957  0.8033 -0.9761
39343SOL     OW23991   2.535   5.231   2.774  0.3029  0.0251  0.1964
39343SOL    HW123992   2.500   5.155   2.821 -1.3076  0.8918  0.4988
39343SOL    HW223993   2.548   5.200   2.685 -0.2464 -0.6493  0.3343
39344SOL     OW23994  11.206  10.199   8.577  0.4224  0.1442 -0.7595
39344SOL    HW123995  11.144  10.211   8.649  0.5154 -2.0602 -0.2341
39344SOL    HW223996  11.290  10.184   8.621  0.4674 -1.2653 -1.2861
39345SOL     OW23997   0.373   2.201   5.637  0.2147  0.0788  0.1987
39345SOL    HW123998   0.356   2.118   5.592  0.1725  0.6877 -0.9321
39345SOL    HW223999   0.456   2.187   5.682  1.5605  0.2413 -2.1005
39346SOL     OW24000  11.484   4.720   6.466  0.0887 -0.3357  0.2777
39346SOL    HW124001  11.520   4.802   6.500 -1.2569  0.5552 -0.3794
39346SOL    HW224002  11.486   4.661   6.541  2.1426 -0.1017  0.4775
39347SOL     OW24003   8.489   9.703   7.784  0.1756 -0.3383  0.7863
39347SOL    HW124004   8.476   9.666   7.697  1.3963 -0.6264  0.7110
39347SOL    HW224005   8.414   9.672   7.834 -0.8128  0.2508 -0.2874
39348SOL     OW24006   4.466   8.999   2.497  0.2546  0.4372 -0.1296
39348SOL    HW124007   4.448   9.001   2.403  2.1630 -0.1717 -0.5345
39348SOL    HW224008   4.509   9.083   2.515  1.1084 -0.0068 -0.0741
39349SOL     OW24009   0.033   8.914   7.448  0.0489 -0.4725 -0.3974
39349SOL    HW124010  -0.051   8.930   7.403 -0.4093 -1.8404 -0.0825
39349SOL    HW224011   0.092   8.981   7.413 -0.5801 -0.8295 -2.2564
39350SOL     OW24012   8.247   4.860   8.234 -0.2502 -0.3485 -0.4841
39350SOL    HW124013   8.189   4.835   8.306  0.4318  1.0188  0.5850
39350SOL    HW224014   8.248   4.783   8.177  0.5266 -2.2180  1.8374
39351SOL     OW24015  10.357   1.772   9.098 -0.0130 -0.3039  0.0585
39351SOL    HW124016  10.386   1.731   9.017 -0.4372  0.4776 -0.5070
39351SOL    HW224017  10.425   1.838   9.117  0.5127 -1.0359  0.7977
39352SOL     OW24018  11.330   0.712   0.661 -0.5088  0.2154 -0.2897
39352SOL    HW124019  11.351   0.693   0.570  1.0569 -1.5535  0.3691
39352SOL    HW224020  11.240   0.679   0.673 -0.0846 -1.1726 -0.7718
39353SOL     OW24021   4.023   0.081   0.361  0.0391  0.0879 -0.2245
39353SOL    HW124022   4.031   0.170   0.393  1.1281  0.4660 -1.4492
39353SOL    HW224023   3.978   0.034   0.431 -0.6707  1.6115  0.3833
39354SOL     OW24024   4.821   7.167   1.266  0.2068  0.0282  0.5226
39354SOL    HW124025   4.791   7.250   1.302  1.7724  0.4454  0.9470
39354SOL    HW224026   4.916   7.173   1.268  0.4162 -2.3356  1.9604
39355SOL     OW24027  10.616   5.103   4.239 -0.2535  0.2669  0.1355
39355SOL    HW124028  10.579   5.022   4.203  0.3969 -0.2040  0.4799
39355SOL    HW224029  10.579   5.109   4.327 -1.2096  0.9788 -0.3076
39356SOL     OW24030  11.608  11.541   3.353 -0.2496  0.2319 -0.7870
39356SOL    HW124031  11.518  11.545   3.321 -0.2848  0.9749 -0.6197
39356SOL    HW224032  11.643  11.628   3.335  0.4884 -0.0985 -0.9909
39357SOL     OW24033  12.056   5.474  10.686 -0.0678  0.1557  0.1171
39357SOL    HW124034  12.102   5.505  10.764  1.3233  1.5338 -1.1793
39357SOL    HW224035  12.106   5.510  10.613  0.1206 -3.0790 -1.5354
39358SOL     OW24036   7.098  12.355  11.445 -0.4084 -0.0851 -0.0963
39358SOL    HW124037   7.139  12.274  11.475 -0.8479  0.2369  1.4584
39358SOL    HW224038   7.171  12.407  11.411 -0.1432 -1.1597 -1.2431
39359SOL     OW24039  12.370   4.023   0.192 -0.2226 -0.0355 -0.4013
39359SOL    HW124040  12.427   3.986   0.124  0.4505  0.0520  0.1070
39359SOL    HW224041  12.425   4.086   0.238 -0.8140  0.2461 -0.0683
39360SOL     OW24042   3.976   3.795  10.827  0.5283 -0.0695 -0.0018
39360SOL    HW124043   3.932   3.869  10.786 -0.1575  0.9684  2.4930
39360SOL    HW224044   3.944   3.793  10.917  0.8587 -3.1417  0.1841
39361SOL     OW24045  10.327   2.587   0.245  0.0502 -0.2572 -0.5187
39361SOL    HW124046  10.301   2.557   0.333  1.9470 -0.4850  0.0100
39361SOL    HW224047  10.257   2.646   0.218 -2.3874 -2.8295 -0.3624
39362SOL     OW24048   0.535   6.493   5.205  0.0399 -0.4985  0.7951
39362SOL    HW124049   0.571   6.567   5.254 -0.3676  0.3915 -0.2083
39362SOL    HW224050   0.535   6.522   5.114 -1.1480 -1.3206  0.5072
39363SOL     OW24051   3.997   4.749   5.312  0.6997 -0.4297 -0.6059
39363SOL    HW124052   4.041   4.833   5.307  0.6614 -0.4196 -0.7718
39363SOL    HW224053   3.995   4.717   5.221 -1.3049  0.4225 -0.9080
39364SOL     OW24054   4.890   2.639   8.518 -0.3248 -0.0707 -0.4093
39364SOL    HW124055   4.806   2.608   8.552 -0.4225  1.6787  1.0587
39364SOL    HW224056   4.955   2.591   8.569 -0.4223 -0.5222 -0.6995
39365SOL     OW24057   8.340   4.354   8.580  0.0773 -0.3246 -0.1761
39365SOL    HW124058   8.304   4.344   8.668 -1.3032  2.3849 -0.3192
39365SOL    HW224059   8.304   4.437   8.549  0.5810 -1.1310 -3.2833
39366SOL     OW24060   5.682   3.360   4.477 -0.0538  0.3090 -0.3145
39366SOL    HW124061   5.640   3.326   4.398 -2.2629  0.6347  0.6475
39366SOL    HW224062   5.674   3.289   4.541 -0.1182  0.7773  0.2072
39367SOL     OW24063  10.327  12.192   3.809  0.2884 -0.5671  0.4396
39367SOL    HW124064  10.257  12.194   3.743 -0.3141 -0.9024  1.0571
39367SOL    HW224065  10.317  12.107   3.853  0.0909  0.0284  1.5834
39368SOL     OW24066   0.298   2.211   2.544 -0.3919 -1.0372 -0.4788
39368SOL    HW124067   0.365   2.146   2.567 -1.7125 -2.0706  0.5829
39368SOL    HW224068   0.279   2.194   2.452  0.6796 -0.8222 -0.7573
39369SOL     OW24069   8.881   5.557  12.435 -0.1415 -0.3612 -0.1467
39369SOL    HW124070   8.890   5.557  12.530 -1.4405  0.1571 -0.0013
39369SOL    HW224071   8.929   5.635  12.406 -0.3807 -0.0947  0.1654
39370SOL     OW24072   2.194   7.292   0.740 -0.5723 -0.3202  0.2567
39370SOL    HW124073   2.242   7.318   0.661  0.9245 -1.3570  0.7725
39370SOL    HW224074   2.230   7.347   0.809 -0.1531 -1.0395  0.6299
39371SOL     OW24075   1.092   1.967   8.487  0.7279  0.4550 -0.0703
39371SOL    HW124076   1.137   1.927   8.412  0.9518  0.4926  0.0449
39371SOL    HW224077   1.135   1.930   8.564  0.7518  0.7090  0.0385
39372SOL     OW24078  10.256   7.675   3.873  0.2848 -0.4847  0.2229
39372SOL    HW124079  10.313   7.677   3.950 -0.5142  0.3497  0.8160
39372SOL    HW224080  10.258   7.584   3.843  1.9241 -0.4785  0.2155
39373SOL     OW24081   5.224   9.997   7.561  0.2158  0.0058  0.0753
39373SOL    HW124082   5.273   9.922   7.593  1.6984  0.8669 -0.0659
39373SOL    HW224083   5.216   9.983   7.467  0.5644  0.0476  0.0367
39374SOL     OW24084   7.911  12.149   2.958  0.3639  0.0749  0.0008
39374SOL    HW124085   7.985  12.140   3.017  0.2885  0.0821  0.0968
39374SOL    HW224086   7.835  12.157   3.016  0.2191 -0.5213 -0.1064
39375SOL     OW24087   8.869   8.426   3.102 -0.3867  0.2088  0.5022
39375SOL    HW124088   8.800   8.486   3.073 -0.0594  0.9769  1.2691
39375SOL    HW224089   8.863   8.352   3.042 -0.9959  0.8713 -0.2781
39376SOL     OW24090   4.149   2.284   0.115  0.3748 -0.1899  0.0353
39376SOL    HW124091   4.061   2.296   0.078  0.8664 -0.0904 -1.1237
39376SOL    HW224092   4.207   2.328   0.053  1.2860 -0.5571  0.6171
39377SOL     OW24093   8.459   6.507   9.630 -0.5207 -0.4900  0.4464
39377SOL    HW124094   8.386   6.457   9.667  0.4442 -3.5028 -1.3146
39377SOL    HW224095   8.452   6.491   9.535  2.0164 -0.3387  0.1746
39378SOL     OW24096   4.746  11.924  12.380 -0.3488  0.0404 -0.2883
39378SOL    HW124097   4.684  11.907  12.310 -0.0911  0.6951 -0.6860
39378SOL    HW224098   4.817  11.861  12.364 -1.4485 -1.5873  0.9053
39379SOL     OW24099   7.492   6.673  10.554 -0.2239  0.2575  0.4956
39379SOL    HW124100   7.474   6.642  10.642  0.9801  0.3614  0.8003
39379SOL    HW224101   7.584   6.698  10.556  0.0851 -0.6174 -1.0494
39380SOL     OW24102   9.853   6.903   0.417 -0.5679 -0.0729 -0.2946
39380SOL    HW124103   9.855   6.858   0.332 -0.9538  0.4165 -0.5652
39380SOL    HW224104   9.862   6.832   0.481 -2.2263 -0.6736 -0.6788
39381SOL     OW24105  11.154  11.658   4.435 -0.2318  0.5574 -0.0022
39381SOL    HW124106  11.094  11.613   4.495  2.6857 -1.9936  1.2655
39381SOL    HW224107  11.189  11.731   4.485 -1.3814  1.4011 -0.3801
39382SOL     OW24108   8.219   1.380   8.045 -0.4327  0.1359 -0.2394
39382SOL    HW124109   8.172   1.456   8.009  3.2292  1.1148 -3.6172
39382SOL    HW224110   8.209   1.312   7.979  2.3503  0.2631 -0.9049
39383SOL     OW24111  11.988   2.715  10.427  0.4811 -0.1548  0.5305
39383SOL    HW124112  11.924   2.656  10.467  0.0622  0.4657  0.7857
39383SOL    HW224113  12.013   2.671  10.346  0.1408 -0.6632  0.6966
39384SOL     OW24114   5.570   6.866   3.455  0.3564  0.2590 -0.0726
39384SOL    HW124115   5.538   6.818   3.379  1.3138  0.7169 -0.7935
39384SOL    HW224116   5.641   6.812   3.490 -0.2428 -0.0739  0.6656
39385SOL     OW24117   4.943   4.498  10.518 -0.2615  0.1502  0.2167
39385SOL    HW124118   5.018   4.441  10.500  0.5041  1.6283 -1.5137
39385SOL    HW224119   4.869   4.438  10.521  0.2974 -0.8765 -3.0607
39386SOL     OW24120   2.357  11.994  10.596  0.8131 -0.2818 -0.1935
39386SOL    HW124121   2.407  11.932  10.543  0.5740 -1.3283  0.7722
39386SOL    HW224122   2.380  11.972  10.686 -1.1416 -0.6081  0.2757
39387SOL     OW24123   6.183   9.817   2.218  0.0766 -0.1053 -0.1857
39387SOL    HW124124   6.233   9.867   2.283 -1.1893 -1.0948  1.6404
39387SOL    HW224125   6.126   9.882   2.176 -1.1542  0.1722  1.7754
39388SOL     OW24126   1.821   7.956   8.997  0.7110  0.1036 -0.5258
39388SOL    HW124127   1.915   7.973   8.993  0.5920  0.7570 -0.6826
39388SOL    HW224128   1.800   7.961   9.090  0.4119  2.4561 -0.6544
39389SOL     OW24129   6.257   4.145   0.366 -0.4372 -0.5976  0.0818
39389SOL    HW124130   6.262   4.226   0.315 -1.6493 -0.9885 -0.7125
39389SOL    HW224131   6.328   4.091   0.333  0.2683  0.0638  0.4892
39390SOL     OW24132   8.979   0.209   0.292 -0.1441  0.1676 -1.0236
39390SOL    HW124133   8.993   0.300   0.267  0.4700  1.0381  2.1271
39390SOL    HW224134   9.065   0.168   0.281 -0.1882  0.1877 -1.4883
39391SOL     OW24135   5.481   1.371   1.863 -1.1074  0.5730  0.0407
39391SOL    HW124136   5.544   1.300   1.855 -0.4899  1.1513 -0.3909
39391SOL    HW224137   5.492   1.402   1.953 -0.8162  0.6261 -0.0102
39392SOL     OW24138   5.143   1.816   5.849  0.2423 -0.0023  0.3117
39392SOL    HW124139   5.159   1.762   5.772 -1.0030 -0.7283  0.5308
39392SOL    HW224140   5.053   1.847   5.839  0.2063  0.2541  1.2592
39393SOL     OW24141   3.194   0.857   7.224 -0.2752  0.4418 -0.4830
39393SOL    HW124142   3.164   0.818   7.141  0.4382  1.8255 -1.4271
39393SOL    HW224143   3.124   0.918   7.247 -0.8238 -0.4701  0.3645
39394SOL     OW24144   1.501  10.304   0.137  0.3157 -0.2636  0.3961
39394SOL    HW124145   1.589  10.277   0.160  0.3934 -0.1699  0.2093
39394SOL    HW224146   1.449  10.289   0.216  0.2134 -1.6034  0.0888
39395SOL     OW24147  12.487   4.557   3.674  0.5853 -0.2374 -0.0605
39395SOL    HW124148  12.430   4.482   3.692 -0.8375  0.9903  0.8634
39395SOL    HW224149  12.523   4.581   3.759  1.0710  0.1031 -0.3578
39396SOL     OW24150   6.941   7.381  11.694  0.4465  0.0477 -0.3551
39396SOL    HW124151   7.035   7.370  11.707  0.4588  0.0535 -0.4361
39396SOL    HW224152   6.932   7.470  11.658  0.2140  0.8966  1.6842
39397SOL     OW24153  10.092   3.364  11.926 -0.5512  0.0335 -0.3007
39397SOL    HW124154  10.025   3.322  11.981 -0.4575  1.9114  1.3455
39397SOL    HW224155  10.043   3.426  11.872 -0.2577  0.7045  0.1981
39398SOL     OW24156   1.370   6.795   2.337 -0.1281  0.4012  0.5466
39398SOL    HW124157   1.322   6.874   2.313 -1.5270 -0.4133  0.5339
39398SOL    HW224158   1.462   6.823   2.342 -0.7006  2.2914  1.6762
39399SOL     OW24159   9.180   6.207   7.805 -0.4727  0.2155 -0.0351
39399SOL    HW124160   9.243   6.157   7.856 -0.2590  2.0740  1.6430
39399SOL    HW224161   9.204   6.190   7.714 -0.4516 -2.6682  0.4184
39400SOL     OW24162   3.611   1.271  10.546 -0.0311 -0.2847 -0.2642
39400SOL    HW124163   3.699   1.240  10.564  0.0183 -0.0886 -0.1671
39400SOL    HW224164   3.624   1.346  10.487 -0.1518 -0.4890 -0.5514
39401SOL     OW24165   8.313  11.186   8.894  0.1310 -0.4236 -0.6857
39401SOL    HW124166   8.344  11.263   8.847  0.1149 -0.6169 -1.0136
39401SOL    HW224167   8.374  11.116   8.871  0.6156 -0.3217  0.2415
39402SOL     OW24168   7.156   4.816   6.440  0.9243  0.0527  0.0751
39402SOL    HW124169   7.087   4.845   6.382  0.2231  0.3186  1.0199
39402SOL    HW224170   7.198   4.896   6.470  0.4181  0.0004  0.9589
39403SOL     OW24171  11.266   6.304  10.480 -0.0394  0.2020  0.5515
39403SOL    HW124172  11.341   6.357  10.507  0.9997 -0.5814 -0.6312
39403SOL    HW224173  11.299   6.254  10.405 -1.1232 -1.7372  1.3185
39404SOL     OW24174   1.564   2.246   6.192  1.0322  0.0094 -0.1150
39404SOL    HW124175   1.477   2.269   6.157  0.5385 -0.9751  0.4357
39404SOL    HW224176   1.625   2.301   6.143  0.1741  0.0827 -1.1221
39405SOL     OW24177   3.537   9.829   0.835  0.0804  0.0624 -0.2527
39405SOL    HW124178   3.557   9.858   0.747  0.3250 -1.2691 -0.6576
39405SOL    HW224179   3.617   9.846   0.885  0.5142 -0.6670 -0.6823
39406SOL     OW24180   8.813   7.737   4.793  0.5253 -0.1660 -0.1278
39406SOL    HW124181   8.782   7.652   4.824  0.0057 -0.4223 -1.2965
39406SOL    HW224182   8.783   7.799   4.858  1.7357 -0.9596  1.2520
39407SOL     OW24183   1.788  10.780   2.620  0.0044 -0.0018 -0.3893
39407SOL    HW124184   1.806  10.853   2.560  0.3357 -0.3265 -0.6898
39407SOL    HW224185   1.842  10.800   2.697 -2.0921  1.5805  0.7651
39408SOL     OW24186   4.921   3.140   9.206  0.3826  0.9458  0.1904
39408SOL    HW124187   4.969   3.194   9.269  1.0744 -0.7659  1.1832
39408SOL    HW224188   4.849   3.102   9.257 -0.1005  0.9212 -0.4974
39409SOL     OW24189   0.078   7.515   7.207  0.1510  0.0491  0.8853
39409SOL    HW124190   0.113   7.519   7.296  0.3396 -2.3968  0.9831
39409SOL    HW224191   0.096   7.426   7.178 -1.4013  0.2788 -1.0002
39410SOL     OW24192  10.160   7.975   9.826  0.1660 -0.3748 -0.0969
39410SOL    HW124193  10.181   7.938   9.911 -0.4245 -1.1200 -0.2662
39410SOL    HW224194  10.191   7.910   9.763  0.0725 -0.0954 -0.4397
39411SOL     OW24195  11.717   9.064   8.831 -0.5924 -0.1712  0.0710
39411SOL    HW124196  11.673   9.015   8.900 -1.0132 -0.4905 -0.4188
39411SOL    HW224197  11.722   9.003   8.758 -0.4566  0.2782 -0.2983
39412SOL     OW24198  10.203   5.595   9.151  0.2762  0.2348  0.0189
39412SOL    HW124199  10.242   5.595   9.063 -0.4660 -0.1550 -0.3219
39412SOL    HW224200  10.251   5.527   9.198  0.5510  0.3127 -0.1453
39413SOL     OW24201   3.789   3.412  11.053 -0.0797 -0.6772  0.0303
39413SOL    HW124202   3.788   3.466  10.974 -0.4717  0.1796  0.5917
39413SOL    HW224203   3.710   3.439  11.100 -1.2641 -3.0279 -0.4823
39414SOL     OW24204   5.262  12.141   8.360  0.0833 -0.1910  0.2063
39414SOL    HW124205   5.338  12.198   8.372 -0.8472  1.1081  0.0282
39414SOL    HW224206   5.258  12.090   8.442 -1.5164  2.9917  2.2839
39415SOL     OW24207  10.333   5.352   8.326  0.4787 -0.1195 -0.1108
39415SOL    HW124208  10.254   5.345   8.273  0.1943  3.3849 -0.3808
39415SOL    HW224209  10.309   5.410   8.398  1.8637 -1.9191  1.9299
39416SOL     OW24210   1.017   5.699   0.463 -0.3593 -0.2638  0.0339
39416SOL    HW124211   1.088   5.660   0.411 -1.1268 -1.8993  0.1391
39416SOL    HW224212   0.946   5.712   0.401 -0.8094 -0.9676  0.3777
39417SOL     OW24213   8.555  11.205   0.766  0.1233 -0.2757  0.0154
39417SOL    HW124214   8.628  11.212   0.827  0.5643 -2.0164 -0.2859
39417SOL    HW224215   8.585  11.144   0.699 -0.6587  0.9553 -1.5248
39418SOL     OW24216   5.626   7.558  10.665  0.3537 -0.0412  0.3728
39418SOL    HW124217   5.534   7.562  10.693  0.2749  1.0160  0.0079
39418SOL    HW224218   5.672   7.613  10.729  1.1196 -2.2618  1.8774
39419SOL     OW24219   8.250   9.044   8.932  0.4332  0.4410  0.4663
39419SOL    HW124220   8.241   8.976   8.999 -0.2813 -0.5837 -0.6227
39419SOL    HW224221   8.339   9.033   8.898  1.4729  2.1350  2.4061
39420SOL     OW24222   5.713   6.641  11.699  0.3760  0.3404  0.1241
39420SOL    HW124223   5.701   6.588  11.620  0.0325  0.5398  0.0420
39420SOL    HW224224   5.807   6.660  11.701  0.3960  0.2771 -0.1982
39421SOL     OW24225   4.382  10.135  10.990  0.3118 -0.1492 -0.0731
39421SOL    HW124226   4.390  10.164  10.899  0.5959 -1.3491 -0.4428
39421SOL    HW224227   4.294  10.097  10.995  0.5890 -0.7827 -0.0481
39422SOL     OW24228   0.644   3.264   7.956  0.5599  0.7414  0.3930
39422SOL    HW124229   0.690   3.187   7.923  0.3811 -0.1012  2.0026
39422SOL    HW224230   0.591   3.231   8.029  0.6906  2.4277  1.3063
39423SOL     OW24231   5.049  11.229  10.399 -0.1626 -0.2953 -0.5422
39423SOL    HW124232   5.050  11.299  10.465  1.9347  0.4414 -1.2695
39423SOL    HW224233   5.044  11.148  10.450  1.3567  0.2540  0.5579
39424SOL     OW24234   8.424   2.781   4.311 -0.0945  0.3356 -0.4961
39424SOL    HW124235   8.504   2.787   4.259 -0.6516  2.9190 -1.1753
39424SOL    HW224236   8.409   2.870   4.343 -0.0179 -0.9668  3.8898
39425SOL     OW24237  11.234   1.454   9.622  0.6148 -0.1884  0.1685
39425SOL    HW124238  11.240   1.363   9.594  2.0509  0.5781 -2.3441
39425SOL    HW224239  11.144   1.480   9.601  0.2614 -0.9336  0.7108
39426SOL     OW24240  10.917  11.258   6.327 -0.0141 -0.3674  0.1434
39426SOL    HW124241  10.977  11.304   6.268  1.8485  1.1177  3.0014
39426SOL    HW224242  10.839  11.314   6.330  0.4497  0.2865  0.1851
39427SOL     OW24243   0.608  10.710   0.459 -0.0466 -0.1878 -0.3177
39427SOL    HW124244   0.614  10.778   0.392 -1.3959  0.3158  0.0286
39427SOL    HW224245   0.523  10.668   0.443 -0.8066  0.5158  1.5705
39428SOL     OW24246   8.744   8.936   6.310 -0.3882 -0.0432  0.9635
39428SOL    HW124247   8.793   8.936   6.392  1.3753 -1.6251 -0.0003
39428SOL    HW224248   8.797   8.882   6.250 -1.3661  1.3961 -1.3490
39429SOL     OW24249   8.743   5.550   8.382 -0.2911  0.2416  0.2163
39429SOL    HW124250   8.686   5.510   8.316 -1.2405  0.9642  0.5692
39429SOL    HW224251   8.709   5.639   8.392 -0.6005 -0.0404  2.1579
39430SOL     OW24252   1.083   5.149   8.756 -1.2218  0.1323  0.0790
39430SOL    HW124253   1.012   5.201   8.717 -0.6767  0.6246 -0.2782
39430SOL    HW224254   1.108   5.197   8.834  0.9801  1.8480 -1.5501
39431SOL     OW24255   0.591   3.874  10.560  0.3697 -0.4969  0.0017
39431SOL    HW124256   0.580   3.914  10.474  0.8652 -0.2833  0.0341
39431SOL    HW224257   0.636   3.941  10.612 -2.9569  0.8004  1.5119
39432SOL     OW24258   7.161   5.433   8.755  0.1806  0.3477  0.2890
39432SOL    HW124259   7.157   5.527   8.742 -1.0387  0.3488  0.5802
39432SOL    HW224260   7.183   5.397   8.669 -2.5470  0.6955 -0.6428
39433SOL     OW24261   5.126   0.998   6.325 -0.1207  0.3019  0.9215
39433SOL    HW124262   5.151   1.064   6.390  0.7456 -0.9839  1.9516
39433SOL    HW224263   5.207   0.979   6.278 -0.4453  0.2420  0.3818
39434SOL     OW24264   8.810   1.208   5.379 -0.8286 -0.3374 -0.0665
39434SOL    HW124265   8.886   1.259   5.406  1.4179 -2.4172 -1.9235
39434SOL    HW224266   8.770   1.178   5.461 -0.6560  2.0685  0.9848
39435SOL     OW24267   4.142   2.527   8.826  0.2996 -0.4140  0.0629
39435SOL    HW124268   4.180   2.530   8.913  3.3843  0.2700 -1.1752
39435SOL    HW224269   4.200   2.468   8.777  0.1742  1.2058 -2.1581
39436SOL     OW24270   1.314  12.424   7.267  0.3715  0.2075 -0.0534
39436SOL    HW124271   1.246  12.361   7.287  0.8846 -0.1931  0.4408
39436SOL    HW224272   1.311  12.433   7.171 -0.0619 -0.1473 -0.0753
39437SOL     OW24273   1.663  12.410   6.169  0.3457  0.1413 -0.1802
39437SOL    HW124274   1.630  12.500   6.162 -0.2796 -0.0361  0.3842
39437SOL    HW224275   1.755  12.420   6.193  0.4305  0.6390 -0.7117
39438SOL     OW24276  11.150  12.296   8.849  0.4027 -0.4062  0.2684
39438SOL    HW124277  11.097  12.368   8.815 -0.0452 -0.4077  0.9264
39438SOL    HW224278  11.169  12.242   8.773  1.1866  0.6716 -0.3246
39439SOL     OW24279   0.601   0.781   9.314 -0.3689  0.2021 -0.6471
39439SOL    HW124280   0.629   0.710   9.257  0.2893 -0.4531  0.4796
39439SOL    HW224281   0.517   0.751   9.350 -0.5920  0.4511 -0.9436
39440SOL     OW24282   3.803   0.239  11.735 -0.8189  0.0925 -0.6803
39440SOL    HW124283   3.749   0.167  11.701 -0.1260 -0.1208 -1.3613
39440SOL    HW224284   3.775   0.316  11.685 -2.6686  0.6732  1.1283
39441SOL     OW24285  11.287   0.316   5.246 -0.2833 -0.2186  0.2678
39441SOL    HW124286  11.309   0.332   5.154  1.2308  1.9325  0.9347
39441SOL    HW224287  11.210   0.258   5.242 -1.0688  0.8468 -2.3587
39442SOL     OW24288   3.544   3.967   3.362 -0.2918  0.3161  0.0984
39442SOL    HW124289   3.455   3.948   3.393 -0.1098  0.3150  0.6260
39442SOL    HW224290   3.566   3.893   3.306 -0.4465  0.0864  0.3409
39443SOL     OW24291  10.142   7.520  11.301  0.3152 -0.6519 -0.1300
39443SOL    HW124292  10.053   7.538  11.271  0.8361  1.1263 -0.7378
39443SOL    HW224293  10.151   7.572  11.381  0.9844 -0.3853 -0.3752
39444SOL     OW24294   4.475   1.976  12.141 -0.0722  0.2332  0.9946
39444SOL    HW124295   4.486   2.046  12.206 -0.8861  0.8750  0.4827
39444SOL    HW224296   4.451   2.023  12.061 -0.0024 -0.6018  0.4795
39445SOL     OW24297   5.740   4.189  12.027 -0.3161 -0.0788 -0.0505
39445SOL    HW124298   5.757   4.209  12.119 -2.1941 -1.3849  0.6310
39445SOL    HW224299   5.771   4.266  11.980 -1.3104  1.6014  1.8770
39446SOL     OW24300   8.317   0.229   7.843 -0.0594  0.2990 -0.3592
39446SOL    HW124301   8.409   0.245   7.824  0.4463 -1.7986  0.0396
39446SOL    HW224302   8.286   0.176   7.769 -0.3358 -0.8372  0.5465
39447SOL     OW24303   5.779   1.943   7.103  0.2600 -0.2283 -0.5077
39447SOL    HW124304   5.860   1.980   7.069  0.2383 -0.8150 -1.2342
39447SOL    HW224305   5.729   1.919   7.025  0.0725 -1.3260 -0.0710
39448SOL     OW24306  11.433   5.607  12.047 -0.2521 -0.2069  0.6188
39448SOL    HW124307  11.420   5.701  12.034  1.1578 -0.1997 -0.9913
39448SOL    HW224308  11.443   5.598  12.142 -0.4111  1.2600  0.8006
39449SOL     OW24309   2.661   1.768  11.958 -0.1862  0.0892 -0.0470
39449SOL    HW124310   2.640   1.855  11.927 -1.0159 -0.3711 -0.8273
39449SOL    HW224311   2.693   1.721  11.881 -1.8418 -0.9300 -0.1679
39450SOL     OW24312   5.272  11.896   4.426 -0.0123 -0.3477 -0.6776
39450SOL    HW124313   5.352  11.842   4.425 -0.4121 -1.0230  0.7791
39450SOL    HW224314   5.201  11.833   4.419 -0.4574  0.0692 -0.0623
39451SOL     OW24315   0.006   4.483   2.281 -0.6721  0.4717 -0.1375
39451SOL    HW124316   0.069   4.487   2.352  0.4567 -0.5885 -1.0507
39451SOL    HW224317  -0.063   4.425   2.313 -1.3798  1.8413  0.9653
39452SOL     OW24318   0.729   2.089   2.935 -0.1935 -0.5238  0.0618
39452SOL    HW124319   0.754   2.114   2.846  1.2622  1.4824  0.9449
39452SOL    HW224320   0.678   2.009   2.924 -0.9439  0.2061 -2.6552
39453SOL     OW24321  10.230   6.393   8.913  0.2477 -0.1197  0.5296
39453SOL    HW124322  10.173   6.415   8.987 -0.9213 -0.2534 -0.2984
39453SOL    HW224323  10.177   6.334   8.859  1.2587 -0.4097 -0.1723
39454SOL     OW24324   1.859   4.394  12.061  0.4592  0.2295 -0.0089
39454SOL    HW124325   1.777   4.442  12.048  0.7028  0.2259 -1.7278
39454SOL    HW224326   1.833   4.302  12.064  0.3669  0.2510 -0.1692
39455SOL     OW24327  12.447   2.969  10.510 -0.5016 -0.5448  0.4682
39455SOL    HW124328  12.388   2.919  10.454  1.9613 -0.1972 -2.7715
39455SOL    HW224329  12.407   3.056  10.516 -1.5374 -1.0119  0.5182
39456SOL     OW24330   1.096   5.449  11.308  0.1007 -0.5386  0.6452
39456SOL    HW124331   1.130   5.477  11.223 -0.3572 -0.5045  0.4720
39456SOL    HW224332   1.023   5.391  11.287  0.9067 -1.7156  0.9973
39457SOL     OW24333   4.987   1.201  11.186  0.6870 -0.3343  0.3592
39457SOL    HW124334   5.026   1.286  11.209  2.4243 -0.8548 -0.4741
39457SOL    HW224335   5.038   1.171  11.111 -0.8784 -1.4439 -0.3249
39458SOL     OW24336   9.303  10.745   0.874 -0.1058 -1.1000  0.0168
39458SOL    HW124337   9.345  10.828   0.849  0.5999 -1.5102 -0.1981
39458SOL    HW224338   9.243  10.726   0.801  0.3923 -1.2245 -0.3679
39459SOL     OW24339  12.189  11.932   9.573  0.2115 -0.2825 -0.3195
39459SOL    HW124340  12.110  11.944   9.625  0.3989  0.7381 -0.2551
39459SOL    HW224341  12.180  11.993   9.500  0.1574 -1.3869 -1.2676
39460SOL     OW24342   7.875  12.079   2.304 -0.5353  0.4515 -0.1980
39460SOL    HW124343   7.855  12.101   2.213 -1.5031  0.2539 -0.0436
39460SOL    HW224344   7.822  12.001   2.322 -0.3924  0.5205  0.5501
39461SOL     OW24345   7.964   8.922  10.376 -0.0611 -0.2567 -0.0602
39461SOL    HW124346   7.915   8.897  10.454  0.3819 -0.5791  0.1239
39461SOL    HW224347   7.904   8.976  10.326 -1.0062 -1.5471 -0.3810
39462SOL     OW24348   8.819   5.881   2.574  0.1308 -0.7131 -1.0223
39462SOL    HW124349   8.821   5.934   2.494  1.8837  1.7633  0.4954
39462SOL    HW224350   8.728   5.853   2.582 -0.7089  1.3061 -2.4717
39463SOL     OW24351   6.445   7.533   8.183 -0.1433  0.5127 -0.0813
39463SOL    HW124352   6.393   7.531   8.102  1.0833 -0.4760 -0.8752
39463SOL    HW224353   6.388   7.575   8.247 -1.4878  0.4868 -1.2226
39464SOL     OW24354   0.922   3.545   4.635 -0.5228 -0.0032 -0.4999
39464SOL    HW124355   0.986   3.481   4.602  0.7936  1.0566 -0.0960
39464SOL    HW224356   0.976   3.616   4.670 -1.9453  0.8810 -0.0497
39465SOL     OW24357   5.431   7.116   0.999 -0.3016 -0.6380 -0.0973
39465SOL    HW124358   5.383   7.058   1.059  2.5800 -1.8462  1.1985
39465SOL    HW224359   5.502   7.063   0.964  1.6012  1.6575 -0.0075
39466SOL     OW24360   3.625   2.037   4.500 -0.1895 -0.0729  0.0079
39466SOL    HW124361   3.615   2.120   4.547  1.5861 -0.2718  0.8355
39466SOL    HW224362   3.569   2.046   4.423  0.9261  2.4387 -0.6245
39467SOL     OW24363   7.755   2.503  11.641  0.0099  0.4512  0.1468
39467SOL    HW124364   7.767   2.431  11.579  0.0144 -1.0789  1.8093
39467SOL    HW224365   7.802   2.474  11.720 -1.0555  1.7018  1.2880
39468SOL     OW24366   3.849   5.063   1.051  0.0660 -0.5780 -0.4356
39468SOL    HW124367   3.909   5.111   0.993  0.7027 -3.4960 -2.3996
39468SOL    HW224368   3.771   5.050   0.998 -1.2039  0.6146  1.0621
39469SOL     OW24369   0.318   6.534   5.754 -0.0807  0.0612 -0.0313
39469SOL    HW124370   0.414   6.529   5.758 -0.0584  1.2804  2.0607
39469SOL    HW224371   0.289   6.497   5.837 -1.4410 -0.1755 -0.5899
39470SOL     OW24372   6.723   6.773   7.141 -0.4625 -0.2825 -0.2770
39470SOL    HW124373   6.680   6.817   7.215 -1.9464 -2.5487  0.2820
39470SOL    HW224374   6.816   6.775   7.164 -0.8896 -1.0493  1.7770
39471SOL     OW24375   5.091   0.486  11.463  0.1207  0.1353  0.3542
39471SOL    HW124376   5.002   0.500  11.431  0.0794  0.5270  0.6413
39471SOL    HW224377   5.098   0.391  11.476 -0.0083  0.0197 -0.3868
39472SOL     OW24378   7.101   8.564   5.773  0.0806 -0.1951 -0.1217
39472SOL    HW124379   7.033   8.527   5.718  1.6729  0.5023 -2.7419
39472SOL    HW224380   7.055   8.623   5.833 -1.7887 -1.4722 -0.2358
39473SOL     OW24381   8.872   1.464   0.087 -0.3774 -0.3642  0.0058
39473SOL    HW124382   8.826   1.538   0.128  0.6535  0.4712 -0.2934
39473SOL    HW224383   8.906   1.413   0.160 -1.8218 -1.0434  0.2343
39474SOL     OW24384   9.504   9.325   3.812  0.2108  0.2436  0.2382
39474SOL    HW124385   9.530   9.236   3.790 -1.0789  0.0542 -0.6058
39474SOL    HW224386   9.524   9.376   3.733  0.9313  0.7117  0.7091
39475SOL     OW24387   3.335   1.784   0.609 -0.2568 -0.4276  0.2595
39475SOL    HW124388   3.395   1.794   0.535 -1.1473 -1.9169 -0.7121
39475SOL    HW224389   3.350   1.863   0.662  1.7392 -0.2148 -0.5033
39476SOL     OW24390   9.579   8.085   7.558 -0.7133 -0.1218 -0.1995
39476SOL    HW124391   9.527   8.160   7.527 -0.8108 -0.5332 -1.0494
39476SOL    HW224392   9.664   8.123   7.580 -0.2827  0.0388 -1.9838
39477SOL     OW24393   7.835   9.454   4.627  0.3254 -0.0182  0.3125
39477SOL    HW124394   7.899   9.406   4.576 -1.3611 -1.7823 -0.2485
39477SOL    HW224395   7.750   9.427   4.592 -0.7884  1.6801  1.4926
39478SOL     OW24396   5.170   3.679  10.399  0.1268  0.3389 -0.0474
39478SOL    HW124397   5.242   3.620  10.376  1.2869  1.3275  0.9242
39478SOL    HW224398   5.126   3.635  10.472  1.2132  0.8132  0.9195
39479SOL     OW24399   2.590   4.572   4.712 -0.7543 -0.3889 -0.2374
39479SOL    HW124400   2.622   4.568   4.802  1.2739  1.4731 -0.7769
39479SOL    HW224401   2.656   4.525   4.661 -1.2609 -0.4020 -0.8907
39480SOL     OW24402  10.625   2.070   6.366  0.1487 -0.5229  0.5300
39480SOL    HW124403  10.587   2.146   6.321 -0.7423 -0.1097  1.9148
39480SOL    HW224404  10.717   2.094   6.380  0.0276  0.0362  0.4027
39481SOL     OW24405   7.471   6.580   5.931 -0.4339  0.1470  0.1866
39481SOL    HW124406   7.485   6.673   5.949  1.7080  0.2362 -1.5487
39481SOL    HW224407   7.446   6.577   5.838 -1.2135 -0.9647  0.4145
39482SOL     OW24408   0.893   5.302   2.115  0.3768  0.1765 -0.4830
39482SOL    HW124409   0.899   5.388   2.158  1.2103 -0.1995  0.1898
39482SOL    HW224410   0.890   5.322   2.022  0.6470  0.9396 -0.3378
39483SOL     OW24411   3.420   6.385   5.392  0.3296  0.0180 -0.3060
39483SOL    HW124412   3.341   6.415   5.437  0.0402 -0.9253 -0.1781
39483SOL    HW224413   3.483   6.368   5.462 -0.0294 -1.1797 -0.2521
39484SOL     OW24414   1.735  12.067   1.052 -0.1418 -0.6716  0.1576
39484SOL    HW124415   1.686  11.990   1.082  1.7361 -2.5951 -1.4332
39484SOL    HW224416   1.726  12.065   0.957  1.9781 -0.4233 -0.0945
39485SOL     OW24417   4.422   6.083   6.305 -0.1601 -0.4168  0.4910
39485SOL    HW124418   4.377   6.119   6.382 -0.5834 -0.7498  0.4027
39485SOL    HW224419   4.493   6.145   6.288 -1.2391  0.7240 -0.0292
39486SOL     OW24420  11.318   2.587   3.554  0.3996 -0.8115  0.4035
39486SOL    HW124421  11.247   2.548   3.604 -0.1592  0.5417  0.7038
39486SOL    HW224422  11.394   2.533   3.573  0.1067 -0.5761  2.3794
39487SOL     OW24423   2.623   0.533  11.572 -0.1963 -0.8259 -0.2041
39487SOL    HW124424   2.646   0.503  11.660  0.1420  1.6583  0.6065
39487SOL    HW224425   2.528   0.537  11.572 -0.1474  1.2325  0.8279
39488SOL     OW24426  10.097  11.020   5.552  0.0813  0.5557 -0.1168
39488SOL    HW124427  10.128  11.090   5.495 -2.4046  1.2534 -0.7174
39488SOL    HW224428  10.086  10.945   5.493  1.4512  0.0172  0.2750
39489SOL     OW24429  11.333  10.827  11.644  0.0941  0.1151  0.6590
39489SOL    HW124430  11.274  10.899  11.623 -0.4364 -0.3790  0.4307
39489SOL    HW224431  11.386  10.860  11.717 -0.1459  0.7296  0.5626
39490SOL     OW24432   9.016   9.387   2.177  0.2196 -0.5163 -0.4065
39490SOL    HW124433   9.084   9.380   2.244 -0.0206 -1.8358 -0.2681
39490SOL    HW224434   9.051   9.340   2.102 -0.4779 -1.1520 -0.3588
39491SOL     OW24435   1.280  11.459   5.956  0.3384  0.0041  0.3301
39491SOL    HW124436   1.367  11.427   5.934  0.7481 -0.1371  1.9850
39491SOL    HW224437   1.278  11.548   5.920  1.0756 -0.0776  0.0608
39492SOL     OW24438   9.112   2.162   6.897  0.0855 -0.1051 -0.2144
39492SOL    HW124439   9.170   2.153   6.821  1.0710 -0.1226  0.5343
39492SOL    HW224440   9.151   2.107   6.964 -1.0994 -0.5464  0.1408
39493SOL     OW24441   9.875   6.923   5.165 -0.0198  0.1614 -0.9674
39493SOL    HW124442   9.965   6.919   5.198 -0.2040  1.2275 -0.2659
39493SOL    HW224443   9.836   6.839   5.190  0.9892 -0.6471 -1.9854
39494SOL     OW24444   4.198   9.218   6.896 -0.0939  0.9702 -0.4395
39494SOL    HW124445   4.130   9.274   6.935  0.6871  2.4382 -1.1300
39494SOL    HW224446   4.182   9.222   6.802  0.6107  0.8585 -0.5661
39495SOL     OW24447  11.559   9.831   9.898  0.2642 -0.1909 -0.5532
39495SOL    HW124448  11.608   9.773   9.839 -0.6154 -0.3636 -1.1206
39495SOL    HW224449  11.475   9.844   9.855 -0.9930 -1.4981  1.3428
39496SOL     OW24450   2.518   4.259  10.895  0.1917  0.2779  0.4968
39496SOL    HW124451   2.549   4.186  10.842  0.1189  1.1635 -0.8097
39496SOL    HW224452   2.431   4.278  10.862 -0.4455 -0.0470  1.9102
39497SOL     OW24453  11.783   7.173  11.406 -0.5848 -0.1387  0.3786
39497SOL    HW124454  11.821   7.258  11.426 -3.1555  0.9443  1.1206
39497SOL    HW224455  11.719   7.158  11.476 -2.7726 -0.9326 -1.6481
39498SOL     OW24456  11.116  10.587   7.282  0.4764 -0.1150 -0.1873
39498SOL    HW124457  11.027  10.621   7.270  1.5559  2.5890 -1.5442
39498SOL    HW224458  11.160  10.605   7.199  2.3106 -1.3835  0.4393
39499SOL     OW24459   1.109  10.076   7.345  0.2682 -0.0139  0.1800
39499SOL    HW124460   1.076  10.045   7.429  2.3725 -0.5752  0.8545
39499SOL    HW224461   1.046  10.142   7.317 -1.5092 -1.1812  1.2468
39500SOL     OW24462   5.530  11.024  10.702 -0.1739  0.1657 -0.2937
39500SOL    HW124463   5.474  10.966  10.651 -0.5752 -0.3231  0.6817
39500SOL    HW224464   5.488  11.110  10.695 -0.6896 -0.0677 -0.0930
39501SOL     OW24465  11.125   1.652   9.061 -0.1155  0.4382 -0.4493
39501SOL    HW124466  11.193   1.639   9.127 -0.2442  0.4785 -0.3101
39501SOL    HW224467  11.095   1.742   9.074  1.4334  1.2422 -2.0225
39502SOL     OW24468   3.159   2.391  10.243  0.7325  0.0005  0.4742
39502SOL    HW124469   3.248   2.383  10.279 -0.2709 -1.7300  2.8653
39502SOL    HW224470   3.151   2.316  10.183  1.5517  1.4371 -1.5403
39503SOL     OW24471   8.652   4.212   4.103 -0.1111  0.6190  0.7628
39503SOL    HW124472   8.623   4.301   4.083 -0.4994  0.5111  0.8501
39503SOL    HW224473   8.624   4.160   4.028 -1.5949  0.2084  1.5623
39504SOL     OW24474   7.530   4.424  11.326  0.6616 -0.4257 -0.2969
39504SOL    HW124475   7.436   4.426  11.308  0.6715 -1.6939 -0.5573
39504SOL    HW224476   7.571   4.448  11.243  0.5868 -0.9835 -0.4986
39505SOL     OW24477   1.388   5.391   6.465 -0.2256 -0.1004  0.4045
39505SOL    HW124478   1.349   5.471   6.431 -0.0169  0.2512  0.9762
39505SOL    HW224479   1.445   5.360   6.394 -0.6598  0.0007  0.0084
39506SOL     OW24480   7.379   1.117  10.946  0.0155 -0.1524  0.0034
39506SOL    HW124481   7.449   1.174  10.916 -0.2404  0.0990 -0.1157
39506SOL    HW224482   7.402   1.096  11.036  0.3106 -0.1742 -0.0769
39507SOL     OW24483   4.366   4.759   6.357 -0.2747 -0.3184  0.0954
39507SOL    HW124484   4.307   4.773   6.431 -0.9602 -1.2705 -0.2532
39507SOL    HW224485   4.338   4.676   6.319 -1.3708  1.1036 -2.5300
39508SOL     OW24486  11.339   3.220   4.103  0.2189 -0.4525  0.0595
39508SOL    HW124487  11.254   3.254   4.130  0.6298  0.1355  0.6465
39508SOL    HW224488  11.382   3.293   4.059  0.6735 -0.5388  0.3456
39509SOL     OW24489  11.341  12.059   2.289 -0.1024  0.1001  0.3421
39509SOL    HW124490  11.416  12.007   2.317  1.1748  2.3672  1.3976
39509SOL    HW224491  11.267  11.998   2.290  1.5337 -1.9641  0.1886
39510SOL     OW24492   1.742  10.162   3.191  0.0205 -0.0425 -0.5724
39510SOL    HW124493   1.704  10.133   3.274 -0.6034  1.2626 -0.3838
39510SOL    HW224494   1.814  10.101   3.175 -0.2350 -0.6839  0.6121
39511SOL     OW24495   4.034   8.675  10.458  0.2780  0.0854  0.1938
39511SOL    HW124496   4.005   8.648  10.545 -1.5104  0.8253 -0.1332
39511SOL    HW224497   4.098   8.745  10.475 -0.4867  0.6215  0.9147
39512SOL     OW24498   6.035   3.962   7.626 -0.0998 -0.0864 -0.0331
39512SOL    HW124499   6.122   3.944   7.659 -0.1379 -2.0030 -0.8331
39512SOL    HW224500   5.983   3.983   7.703  1.1862  1.7945  0.3760
39513SOL     OW24501   9.391   0.222   6.391 -0.8574  0.3116  0.2407
39513SOL    HW124502   9.411   0.139   6.435 -0.8077  1.2099  1.9971
39513SOL    HW224503   9.355   0.196   6.306  0.2365 -1.4713  0.2747
39514SOL     OW24504   3.509   1.822   8.951 -0.7238 -0.0620  0.1537
39514SOL    HW124505   3.458   1.790   9.025 -0.2371 -1.8757 -0.2324
39514SOL    HW224506   3.556   1.745   8.919 -0.1476  0.8836 -1.4269
39515SOL     OW24507   0.920   7.296   6.286  0.3413  0.2274 -0.1935
39515SOL    HW124508   0.879   7.349   6.355 -0.9072 -2.3534  1.1694
39515SOL    HW224509   0.856   7.297   6.214 -1.4086 -2.1750  1.1815
39516SOL     OW24510   8.656   6.956   5.149 -0.5860  0.0295  0.5347
39516SOL    HW124511   8.694   6.884   5.098 -1.0619  0.1285  0.0261
39516SOL    HW224512   8.693   6.946   5.237 -0.4340 -0.6680  0.3957
39517SOL     OW24513   2.561   8.588   8.067  0.1824 -1.0941  0.6274
39517SOL    HW124514   2.648   8.625   8.075 -0.1392 -0.4459  1.1798
39517SOL    HW224515   2.567   8.503   8.110  0.2064 -0.4843  1.8594
39518SOL     OW24516  11.534   8.172  11.217 -0.0551 -0.3004  0.0173
39518SOL    HW124517  11.529   8.127  11.302  1.2965 -0.1653  0.1813
39518SOL    HW224518  11.571   8.107  11.157 -1.9344 -0.7330 -0.7494
39519SOL     OW24519   5.851   3.346  10.260  0.7883 -0.2489 -0.6625
39519SOL    HW124520   5.824   3.320  10.172  0.7048 -0.3681 -0.6023
39519SOL    HW224521   5.792   3.297  10.318 -0.1758  0.9637 -0.5711
39520SOL     OW24522  11.961   3.703   5.420 -0.0405  0.4512 -1.0283
39520SOL    HW124523  11.959   3.722   5.513  1.5869 -0.3686 -0.7851
39520SOL    HW224524  11.880   3.655   5.403 -0.2560  0.4362  0.0002
39521SOL     OW24525   4.961   1.703   8.072 -0.0485 -0.4740  0.0064
39521SOL    HW124526   4.952   1.730   7.980  0.5485  1.1914  0.4010
39521SOL    HW224527   5.025   1.632   8.069  0.4836  0.0098 -0.8183
39522SOL     OW24528  10.193  11.741  10.912 -0.2567 -0.5176  1.2013
39522SOL    HW124529  10.165  11.720  10.823 -0.5165 -1.3917  1.4794
39522SOL    HW224530  10.188  11.836  10.917  2.7850 -0.1087 -0.7198
39523SOL     OW24531  11.804   6.332  11.459 -0.4418  0.3438 -0.1875
39523SOL    HW124532  11.797   6.239  11.442 -3.2720  0.2752  0.8575
39523SOL    HW224533  11.853   6.367  11.385 -0.0771 -1.8155 -1.0285
39524SOL     OW24534   1.889   7.577   2.279 -0.5544 -0.1258 -0.2000
39524SOL    HW124535   1.892   7.562   2.185  0.2922 -1.7967  0.0490
39524SOL    HW224536   1.806   7.538   2.308 -1.3833  1.4333 -0.3798
39525SOL     OW24537   2.818   5.747   1.632  0.3735  0.2802 -0.0883
39525SOL    HW124538   2.851   5.813   1.693  3.1862  0.3740 -1.5876
39525SOL    HW224539   2.801   5.670   1.687  0.0183  1.2585  1.2186
39526SOL     OW24540   5.417   9.162  10.015  0.0070  0.2955 -0.1911
39526SOL    HW124541   5.364   9.194  10.089  0.5154  1.2955 -0.2322
39526SOL    HW224542   5.423   9.068  10.029 -0.5617  0.3621  0.6188
39527SOL     OW24543   8.362   4.607  12.316  0.0402  0.1972 -0.1320
39527SOL    HW124544   8.275   4.639  12.294 -0.1132 -0.2444 -0.1791
39527SOL    HW224545   8.358   4.513  12.298  0.1756 -0.0277  0.9346
39528SOL     OW24546   3.120   8.181   8.284  0.2359 -0.0619 -0.2337
39528SOL    HW124547   3.120   8.086   8.282  1.5434 -0.0748 -0.0266
39528SOL    HW224548   3.138   8.204   8.375 -1.1267  0.4020 -0.0584
39529SOL     OW24549   7.240   6.181  11.485  0.6200  0.0814 -0.2970
39529SOL    HW124550   7.281   6.138  11.410  0.4891  0.0758 -0.3663
39529SOL    HW224551   7.179   6.244  11.446 -1.2801 -1.6248 -0.2432
39530SOL     OW24552   6.405   6.835   4.916  0.0689 -0.3512 -0.2396
39530SOL    HW124553   6.488   6.852   4.960  0.2282 -0.2907 -0.5542
39530SOL    HW224554   6.425   6.848   4.823 -0.6035  0.9779 -0.2277
39531SOL     OW24555   4.735   3.157  12.164  0.1489  0.1628 -0.1361
39531SOL    HW124556   4.701   3.229  12.219  2.0391 -0.6395  2.2924
39531SOL    HW224557   4.683   3.081  12.190 -0.4491  0.2030 -1.1701
39532SOL     OW24558   2.383   2.952   9.490  0.1489 -0.1866  0.1569
39532SOL    HW124559   2.445   3.014   9.454  0.2666  0.0457  0.7514
39532SOL    HW224560   2.435   2.893   9.545 -0.1467  0.0369  0.6963
39533SOL     OW24561   5.073  11.111  10.861  0.4531  0.1027  0.7412
39533SOL    HW124562   5.063  11.193  10.812  0.7100 -0.7535 -0.8151
39533SOL    HW224563   5.008  11.116  10.931  1.1999  2.0990  1.3593
39534SOL     OW24564   4.391   8.990   7.038  0.0386  0.1950  0.2860
39534SOL    HW124565   4.486   8.999   7.042  0.3237 -1.8401 -0.5772
39534SOL    HW224566   4.371   8.920   7.100 -0.8263  0.2817  0.1086
39535SOL     OW24567   1.224   8.674   6.098 -0.4287 -0.3753  0.0015
39535SOL    HW124568   1.262   8.762   6.093 -0.0694 -0.5779 -1.0352
39535SOL    HW224569   1.292   8.622   6.141 -0.8567 -0.0410  1.1072
39536SOL     OW24570   8.370   4.551   9.009 -0.0640 -0.2081 -0.0670
39536SOL    HW124571   8.366   4.646   9.023 -0.3755 -0.4704  1.8896
39536SOL    HW224572   8.380   4.514   9.097  1.1627 -1.9469 -0.8840
39537SOL     OW24573   7.549   0.523   7.684 -0.0032 -0.2095  0.2727
39537SOL    HW124574   7.558   0.428   7.677 -0.0172 -0.2659  0.9957
39537SOL    HW224575   7.460   0.537   7.715  0.0440  0.0377  0.2970
39538SOL     OW24576   5.956   4.466   2.902 -0.1373 -0.8407  0.2750
39538SOL    HW124577   5.985   4.384   2.863  1.3201 -0.1645 -0.1339
39538SOL    HW224578   5.953   4.528   2.829 -0.9866 -0.4553  0.6145
39539SOL     OW24579  10.817   2.753  10.833 -0.2443 -0.1493 -0.4569
39539SOL    HW124580  10.880   2.721  10.769 -2.0882 -2.1720 -1.3831
39539SOL    HW224581  10.870   2.788  10.904  1.8738  0.3427 -2.1979
39540SOL     OW24582   8.784  10.061  10.729  0.0773 -0.4496 -0.5598
39540SOL    HW124583   8.849  10.118  10.771 -0.6510  0.1922 -0.2949
39540SOL    HW224584   8.706  10.069  10.783  0.0678 -2.0086 -0.3014
39541SOL     OW24585  12.091   4.962   5.167  0.2851  0.4781 -0.2834
39541SOL    HW124586  12.103   5.051   5.201  0.9124 -0.2338  1.4830
39541SOL    HW224587  12.080   4.974   5.073  1.0418  2.3700 -0.1837
39542SOL     OW24588   6.571  10.904  12.044  0.5926  0.1052  0.2088
39542SOL    HW124589   6.527  10.939  11.967 -0.3308  1.2431  1.2043
39542SOL    HW224590   6.641  10.966  12.063  1.2340 -0.5218 -0.0881
39543SOL     OW24591   5.772   9.849   4.622  0.5817 -0.2147 -0.2740
39543SOL    HW124592   5.734   9.937   4.618  0.1122 -0.3746  0.5496
39543SOL    HW224593   5.828   9.845   4.545  2.5667  1.6909  0.9447
39544SOL     OW24594  10.030   9.987   1.228  1.0363  0.2326 -0.6524
39544SOL    HW124595  10.073  10.012   1.146  1.0008  1.3113 -0.3628
39544SOL    HW224596   9.972  10.061   1.248  0.5795 -0.2951  0.0226
39545SOL     OW24597   6.556  10.781   9.018  0.0535 -0.1010 -0.1861
39545SOL    HW124598   6.616  10.772   9.092  0.2194 -0.1077 -0.3206
39545SOL    HW224599   6.614  10.793   8.942 -0.1234  0.8693 -0.1796
39546SOL     OW24600   3.191   1.810  11.397 -0.7226 -0.1515  0.2046
39546SOL    HW124601   3.226   1.897  11.378 -0.3936 -0.4418 -0.5265
39546SOL    HW224602   3.107   1.808  11.352  0.0109 -0.7999 -1.2084
39547SOL     OW24603   2.425   5.504   1.840 -0.6266  0.3358  0.1100
39547SOL    HW124604   2.385   5.549   1.915  0.6967  1.5687  0.1483
39547SOL    HW224605   2.428   5.412   1.865 -0.9147  0.6251  1.2568
39548SOL     OW24606   2.425   5.042  10.156  0.1807 -0.1913  0.0430
39548SOL    HW124607   2.413   5.012  10.066 -3.4609 -0.2565  0.4070
39548SOL    HW224608   2.350   5.098  10.174  0.4121 -0.6764  3.2393
39549SOL     OW24609   8.881  10.987  11.741 -0.7013 -0.3793 -0.1464
39549SOL    HW124610   8.946  10.931  11.782 -1.0943 -0.8659 -0.1673
39549SOL    HW224611   8.831  10.928  11.684 -1.5464 -0.1441  0.3316
39550SOL     OW24612   4.341  12.352   0.242  0.6132 -0.7518 -0.5402
39550SOL    HW124613   4.309  12.269   0.278  1.4139 -2.0830 -2.7271
39550SOL    HW224614   4.270  12.384   0.187  0.0820  0.3577  0.7414
39551SOL     OW24615   4.541   5.896   1.610 -0.5248 -0.0679 -0.4265
39551SOL    HW124616   4.522   5.965   1.674  0.5711 -1.2045  1.1814
39551SOL    HW224617   4.469   5.834   1.620 -0.2490 -0.3456 -0.1312
39552SOL     OW24618   6.682   9.942   5.882  0.0170  0.0447 -0.1533
39552SOL    HW124619   6.682   9.852   5.914  2.0282  0.3787  0.9947
39552SOL    HW224620   6.592   9.972   5.893 -0.1508 -1.0258  1.9602
39553SOL     OW24621   6.209  10.080   4.521 -0.1127  0.3251  0.3456
39553SOL    HW124622   6.186  10.020   4.593  1.6994 -2.1096 -0.9450
39553SOL    HW224623   6.145  10.061   4.452 -1.6200  2.3961  1.0667
39554SOL     OW24624   9.661   6.276   7.161 -0.2630 -0.5933  0.2979
39554SOL    HW124625   9.572   6.268   7.196 -0.8076  0.1913 -0.8828
39554SOL    HW224626   9.673   6.197   7.108  0.6693 -1.9377  2.3309
39555SOL     OW24627   1.599   2.098   9.246 -0.3368  0.0389 -0.3663
39555SOL    HW124628   1.688   2.064   9.230 -0.9851 -0.8004 -2.5184
39555SOL    HW224629   1.541   2.035   9.204 -1.8867  1.3245 -0.2618
39556SOL     OW24630   9.783   2.011  12.041  0.1953  0.3551 -0.2778
39556SOL    HW124631   9.715   1.976  11.983  0.1926  3.0482 -2.1042
39556SOL    HW224632   9.864   2.005  11.990  0.8086 -0.0629  0.7067
39557SOL     OW24633   0.123   8.379   4.071 -0.1258 -0.5103 -0.2758
39557SOL    HW124634   0.028   8.367   4.061 -0.1456 -0.2994 -0.3427
39557SOL    HW224635   0.154   8.296   4.106 -0.2987 -0.6712 -0.5007
39558SOL     OW24636   9.006   7.966   1.019 -0.9489  0.2330  0.1553
39558SOL    HW124637   9.037   7.903   1.084 -0.4707 -0.8255 -1.0576
39558SOL    HW224638   9.082   8.022   1.001 -0.9701  0.2863  0.2336
39559SOL     OW24639  11.875   0.850   0.429  0.9498 -0.4414  0.0577
39559SOL    HW124640  11.961   0.876   0.462  0.2506  0.8250  0.9834
39559SOL    HW224641  11.822   0.835   0.507  0.4125 -1.5881 -0.4961
39560SOL     OW24642   7.377  10.125  10.194 -0.1700  0.1751 -0.1070
39560SOL    HW124643   7.311  10.167  10.139 -1.0130  0.5167  1.1234
39560SOL    HW224644   7.344  10.036  10.207  2.0277 -1.3160 -3.4161
39561SOL     OW24645   9.883   5.956  10.647 -0.0246  0.4954  0.4192
39561SOL    HW124646   9.846   6.010  10.717  0.1424  0.8020  0.2719
39561SOL    HW224647   9.899   5.871  10.689 -0.4191  0.5120  0.6130
39562SOL     OW24648   0.316   1.876   3.589 -0.1228 -0.6171  0.3383
39562SOL    HW124649   0.372   1.867   3.666 -0.9700  0.8138  1.1611
39562SOL    HW224650   0.334   1.964   3.556 -1.9636 -0.0565  0.7207
39563SOL     OW24651   6.087   4.844   8.199  0.3873 -0.2846 -0.6737
39563SOL    HW124652   6.134   4.800   8.128  0.6557 -2.5199  0.8013
39563SOL    HW224653   6.140   4.828   8.277 -0.2268  1.5575  0.1626
39564SOL     OW24654   3.512  12.054   5.950 -0.3725 -0.0099  0.4101
39564SOL    HW124655   3.513  12.109   6.029 -1.1936  2.1573 -0.9888
39564SOL    HW224656   3.594  12.074   5.905  0.4403 -1.7926  1.0013
39565SOL     OW24657   5.585   2.190   0.305  0.7561 -0.8249 -0.3138
39565SOL    HW124658   5.643   2.175   0.380  0.1372  1.6381  0.7418
39565SOL    HW224659   5.497   2.172   0.338  0.4400  0.6453 -0.2827
39566SOL     OW24660   1.095   2.528   7.739 -0.1124  0.5241  0.4503
39566SOL    HW124661   1.152   2.453   7.721  1.0532  0.9502  2.1232
39566SOL    HW224662   1.009   2.489   7.757  0.4063 -0.4080  1.0144
39567SOL     OW24663  10.581   3.432  11.716  0.4207 -0.1511  0.5689
39567SOL    HW124664  10.575   3.518  11.758  0.1431  1.0433 -1.7740
39567SOL    HW224665  10.491   3.401  11.711  0.4717 -0.3760  0.9678
39568SOL     OW24666  10.189  11.385   7.769 -0.0443  0.1629 -0.1085
39568SOL    HW124667  10.267  11.416   7.724  0.9789  0.3085  1.6541
39568SOL    HW224668  10.186  11.291   7.750  0.5300  0.1717 -0.2442
39569SOL     OW24669   9.922   6.036   0.816  0.6344 -0.3404 -0.3059
39569SOL    HW124670   9.877   5.969   0.765  0.5733  1.0858 -2.2544
39569SOL    HW224671  10.013   6.006   0.821  0.4318 -0.9748 -0.4177
39570SOL     OW24672   8.362   5.250   9.708  0.2848 -0.0102  0.2012
39570SOL    HW124673   8.445   5.261   9.662  0.4396  1.2398  0.7206
39570SOL    HW224674   8.371   5.168   9.756  1.5745  0.5470  0.9535
39571SOL     OW24675  10.760   5.480   3.445  0.0083  0.4262  0.2481
39571SOL    HW124676  10.759   5.482   3.541  0.5630 -0.3876  0.2848
39571SOL    HW224677  10.840   5.527   3.422 -0.3482  0.9986  0.1622
39572SOL     OW24678   7.042   6.393   8.948  0.1823  0.1771 -0.2410
39572SOL    HW124679   7.067   6.406   9.040  1.0355  0.6464 -0.5240
39572SOL    HW224680   7.054   6.299   8.934  1.3927  0.3117 -0.2302
39573SOL     OW24681   1.085   2.937  11.837 -0.1888  0.0851 -0.4772
39573SOL    HW124682   1.161   2.950  11.893  0.0752  0.6753 -0.9699
39573SOL    HW224683   1.072   3.021  11.793  0.2439 -0.6619 -2.0901
39574SOL     OW24684  12.229   4.670   4.037 -0.1634  0.1799 -0.1687
39574SOL    HW124685  12.252   4.740   4.098  0.7667 -1.1805  1.0931
39574SOL    HW224686  12.297   4.603   4.049 -0.3179 -0.4327 -2.2346
39575SOL     OW24687   7.687   0.997   7.134  0.1486  0.7742 -0.5773
39575SOL    HW124688   7.615   0.993   7.198  1.6351  1.2561  1.2299
39575SOL    HW224689   7.715   1.088   7.137  0.6149  0.6676 -1.5318
39576SOL     OW24690  11.174   4.057   7.817  0.1584  0.1654  0.1197
39576SOL    HW124691  11.136   4.117   7.880 -1.4714 -0.7492  0.0542
39576SOL    HW224692  11.150   4.093   7.732 -1.9647 -1.2049  0.0793
39577SOL     OW24693   6.896   5.575   2.581  0.0467 -0.9166 -0.9506
39577SOL    HW124694   6.870   5.569   2.490 -1.9255 -0.6784 -0.4563
39577SOL    HW224695   6.877   5.665   2.606  0.2159 -1.0732 -0.2108
39578SOL     OW24696  11.302  10.391   6.918  0.1164 -0.0991 -0.0491
39578SOL    HW124697  11.371  10.376   6.853  0.3966  1.2953 -0.1198
39578SOL    HW224698  11.325  10.335   6.992  2.3855  1.5834  0.6618
39579SOL     OW24699   6.628  10.338  10.351  0.1743  0.2809  0.3834
39579SOL    HW124700   6.720  10.313  10.362 -0.2794 -1.2487  0.9260
39579SOL    HW224701   6.603  10.300  10.267 -0.4188 -0.8129  1.0361
39580SOL     OW24702   2.398   0.949   1.429  0.0686 -0.1168 -0.0109
39580SOL    HW124703   2.423   0.890   1.358  0.7632  0.0247  0.1099
39580SOL    HW224704   2.352   0.893   1.492  1.0479 -0.6141  0.2760
39581SOL     OW24705   8.005   5.568   7.349 -0.4091  0.5211  0.2231
39581SOL    HW124706   7.970   5.634   7.408  0.5235  0.6332  0.6597
39581SOL    HW224707   7.928   5.519   7.319 -0.8588  0.1800  1.8624
39582SOL     OW24708   0.383   0.314  12.146  0.1639 -0.0703 -0.1804
39582SOL    HW124709   0.331   0.388  12.174  2.5038  1.0340  1.6213
39582SOL    HW224710   0.411   0.336  12.057 -2.3755 -0.7469 -1.2227
39583SOL     OW24711   9.146   0.616   2.428 -0.3362  0.2663 -0.0869
39583SOL    HW124712   9.122   0.653   2.513  0.1571  1.0594 -0.2762
39583SOL    HW224713   9.114   0.680   2.364 -0.0682  0.0287 -0.4633
39584SOL     OW24714   4.437   3.106   3.580  0.1625  0.5334 -0.4323
39584SOL    HW124715   4.418   3.024   3.626 -1.3653  0.3371 -1.3307
39584SOL    HW224716   4.522   3.091   3.540 -0.1173 -0.6705 -0.6362
39585SOL     OW24717  11.429  11.926  11.837  0.1435 -0.2464  0.6194
39585SOL    HW124718  11.498  11.878  11.790 -0.1439  1.2177 -1.4237
39585SOL    HW224719  11.442  12.017  11.811 -1.8556  0.2217  1.1203
39586SOL     OW24720   9.081  11.089  10.337  0.2995  0.1681  0.0878
39586SOL    HW124721   9.157  11.064  10.285 -0.8349 -1.5383 -0.8131
39586SOL    HW224722   9.076  11.022  10.406 -0.2634  0.3970  0.2711
39587SOL     OW24723   3.592  10.281   7.712  0.5106 -0.4536 -0.8592
39587SOL    HW124724   3.677  10.241   7.692  1.2143  0.4941  0.1126
39587SOL    HW224725   3.570  10.247   7.799  0.1534 -0.2599 -0.8714
39588SOL     OW24726   7.355   5.782   3.173  0.5848 -0.4707 -0.2076
39588SOL    HW124727   7.280   5.824   3.216  1.1223  0.3306 -0.0341
39588SOL    HW224728   7.425   5.847   3.178  0.9040 -0.6762 -1.5708
39589SOL     OW24729  11.093  11.243   4.923  0.0794  0.8476  0.4509
39589SOL    HW124730  11.131  11.294   4.995  0.2313 -0.6419  1.4657
39589SOL    HW224731  11.092  11.153   4.955 -3.3717  0.6188  0.0976
39590SOL     OW24732   1.411  11.322  12.441 -0.0020 -0.0730  0.4987
39590SOL    HW124733   1.323  11.349  12.466  0.2486  1.9173 -0.5566
39590SOL    HW224734   1.468  11.392  12.474  0.9508 -0.3179 -0.5565
39591SOL     OW24735  11.847   1.157   2.797  0.5145  0.0982  0.0652
39591SOL    HW124736  11.880   1.074   2.764 -0.2253  0.6185 -2.1545
39591SOL    HW224737  11.813   1.137   2.884  0.3558 -1.9234 -0.4241
39592SOL     OW24738   1.076   1.471  11.828 -0.0430  0.0060  0.1408
39592SOL    HW124739   1.067   1.411  11.753 -0.4112 -0.0393  0.2202
39592SOL    HW224740   1.067   1.414  11.905  1.5159 -0.1393  0.2407
39593SOL     OW24741   7.682  10.955   7.567  0.1530 -0.4233 -0.5501
39593SOL    HW124742   7.724  10.872   7.545  0.3045 -0.4784 -0.0489
39593SOL    HW224743   7.735  11.021   7.522  0.2583 -0.5663 -0.6372
39594SOL     OW24744  11.321   4.505   7.122 -0.1300  0.0964  0.2875
39594SOL    HW124745  11.324   4.427   7.066 -1.6482  0.5814 -0.5114
39594SOL    HW224746  11.268   4.477   7.197 -2.6601  0.9316 -1.0600
39595SOL     OW24747   3.108  11.073   1.149  0.1447  0.1624  0.4239
39595SOL    HW124748   3.110  10.982   1.179 -0.1248  0.4687  1.4176
39595SOL    HW224749   3.183  11.081   1.090  1.8093 -0.0434  2.3842
39596SOL     OW24750   1.545   7.106   9.294  0.1594  0.3016  0.1016
39596SOL    HW124751   1.504   7.169   9.353  1.1964  0.0797  1.0918
39596SOL    HW224752   1.595   7.048   9.351  0.9442 -0.1202 -0.9746
39597SOL     OW24753   9.826   2.851   1.067  0.8017  0.8579  0.0094
39597SOL    HW124754   9.788   2.922   1.118  0.3126  1.2453 -0.8618
39597SOL    HW224755   9.781   2.772   1.097 -1.4450  1.4123 -1.6105
39598SOL     OW24756   7.759   1.232   4.420 -0.6221  0.4637  0.9033
39598SOL    HW124757   7.805   1.155   4.454 -2.1300 -0.4774  0.9456
39598SOL    HW224758   7.757   1.219   4.326 -2.1606 -0.3775  1.0068
39599SOL     OW24759   5.903   4.619   7.849  0.1969  0.1158 -0.0254
39599SOL    HW124760   5.986   4.583   7.878  0.5822  1.4985  0.7147
39599SOL    HW224761   5.926   4.679   7.778 -0.1714  0.3957  0.0866
39600SOL     OW24762   3.292  11.962   8.195  0.1950 -0.6345  0.1110
39600SOL    HW124763   3.348  11.907   8.250 -0.3921 -0.3904  0.9699
39600SOL    HW224764   3.254  12.026   8.256 -1.9642 -1.5307 -0.1979
39601SOL     OW24765  12.386   8.882  11.990 -0.2332  0.2684  0.0180
39601SOL    HW124766  12.347   8.824  11.925 -1.2265  0.1126  0.7342
39601SOL    HW224767  12.326   8.957  11.995  0.9618  1.3261 -0.7966
39602SOL     OW24768   0.391   4.481   6.177 -0.4810 -0.6055  0.0595
39602SOL    HW124769   0.308   4.495   6.222 -0.7918  0.0932 -0.7060
39602SOL    HW224770   0.366   4.444   6.092  0.1083 -2.1111  0.5186
39603SOL     OW24771   7.711   1.939   2.499 -0.0316 -0.1153  0.3813
39603SOL    HW124772   7.759   1.931   2.581  0.9435  0.1902 -0.1336
39603SOL    HW224773   7.762   2.003   2.448  0.2641 -1.4060 -1.0316
39604SOL     OW24774   8.214  10.054  12.489  0.2151  0.1241  0.2149
39604SOL    HW124775   8.224  10.000  12.567 -0.0276 -0.4023 -0.1119
39604SOL    HW224776   8.130  10.028  12.452  0.5875 -0.0497 -0.5365
39605SOL     OW24777  10.911   7.445   7.487 -0.6405 -0.3306  0.0986
39605SOL    HW124778  10.890   7.359   7.525  0.9914 -0.4138  0.8987
39605SOL    HW224779  10.840   7.461   7.424 -2.2047 -1.2245  1.5322
39606SOL     OW24780   7.076   0.722   6.792 -0.6653  0.1978 -0.3407
39606SOL    HW124781   7.086   0.817   6.797 -1.2966  0.3383 -1.3723
39606SOL    HW224782   7.081   0.693   6.883 -2.0643  1.4103  0.1851
39607SOL     OW24783   7.640   2.860   9.621  0.7780 -0.0684  0.1254
39607SOL    HW124784   7.561   2.849   9.673  0.5416  0.3690 -0.1364
39607SOL    HW224785   7.639   2.787   9.559  1.1245 -0.6639  0.8019
39608SOL     OW24786   0.920   5.429   5.238  0.3092  0.4649 -0.1701
39608SOL    HW124787   0.825   5.418   5.241  0.0557  1.9180 -1.7564
39608SOL    HW224788   0.954   5.356   5.290 -1.6025 -1.0304 -0.9164
39609SOL     OW24789   6.562   0.891  10.717 -0.2225 -0.2160 -0.1301
39609SOL    HW124790   6.599   0.973  10.686  0.4788 -0.5340 -0.1680
39609SOL    HW224791   6.506   0.915  10.791  0.4735  0.2315  0.2637
39610SOL     OW24792   3.285   8.214   7.451 -0.1027 -0.1304  0.0481
39610SOL    HW124793   3.277   8.292   7.396  0.9141 -0.8611 -1.2102
39610SOL    HW224794   3.367   8.226   7.499  0.5804 -0.8394 -0.9004
39611SOL     OW24795  12.387   0.327   2.761  0.0390 -0.3039 -0.1573
39611SOL    HW124796  12.386   0.356   2.852 -1.0214  0.3453 -0.3599
39611SOL    HW224797  12.438   0.246   2.762  0.0546 -0.2934  1.0051
39612SOL     OW24798   1.825  12.378   5.356 -0.0080  0.0430  0.1508
39612SOL    HW124799   1.917  12.397   5.377 -0.3603  0.5198  1.3039
39612SOL    HW224800   1.811  12.289   5.390  0.0687 -0.1097 -0.2046
39613SOL     OW24801   4.835   4.753  10.581 -0.3709 -0.3228 -0.1191
39613SOL    HW124802   4.898   4.681  10.585 -1.2889 -1.1367 -0.1858
39613SOL    HW224803   4.863   4.813  10.650  0.2162 -0.8839  0.1366
39614SOL     OW24804  10.971   5.655   4.792 -0.7965  0.7019  0.0793
39614SOL    HW124805  10.893   5.691   4.750 -0.2741  1.4442 -0.2800
39614SOL    HW224806  10.985   5.711   4.868 -0.6148  0.5680  0.1456
39615SOL     OW24807  11.059   8.794   6.027 -0.1840 -0.3136  0.0016
39615SOL    HW124808  11.069   8.701   6.008 -1.0736 -0.3662 -0.2498
39615SOL    HW224809  10.968   8.803   6.054 -0.7601  0.8524 -2.1294
39616SOL     OW24810   2.381   8.670  11.446  0.2500 -0.0655  0.5599
39616SOL    HW124811   2.318   8.650  11.515 -0.7175  1.6229  0.2208
39616SOL    HW224812   2.413   8.758  11.469 -1.1601  1.1682 -1.8527
39617SOL     OW24813   3.175   4.157   5.279  0.2111 -0.0470 -0.1299
39617SOL    HW124814   3.232   4.233   5.290  2.5257 -1.8645  1.0966
39617SOL    HW224815   3.213   4.107   5.207  1.0420 -1.9291  1.5173
39618SOL     OW24816   6.278   4.963   0.668 -0.2400  0.1035  0.5567
39618SOL    HW124817   6.329   4.929   0.594 -0.5969 -1.9720  1.2094
39618SOL    HW224818   6.316   4.920   0.745 -1.1038  0.7885  1.3951
39619SOL     OW24819   6.452   7.501   8.715  0.4603 -0.5062  0.2208
39619SOL    HW124820   6.404   7.524   8.795  0.9676 -1.6987  0.9030
39619SOL    HW224821   6.509   7.576   8.699  1.3168 -0.7749  1.7721
39620SOL     OW24822   7.212   2.803  11.560 -0.0090 -0.0347 -0.5517
39620SOL    HW124823   7.292   2.823  11.609  0.9348 -3.0634 -0.6225
39620SOL    HW224824   7.142   2.805  11.625  0.7848 -1.1967  0.3808
39621SOL     OW24825   1.858   2.935  10.442 -0.0427 -0.2425 -0.0573
39621SOL    HW124826   1.887   2.887  10.365 -0.2271 -0.4324 -0.0082
39621SOL    HW224827   1.766   2.912  10.452 -1.1706  2.6787 -2.0061
39622SOL     OW24828   1.421   4.179   2.108  0.2884  0.0019 -0.0247
39622SOL    HW124829   1.496   4.190   2.050 -0.3509  0.1454 -0.8474
39622SOL    HW224830   1.438   4.237   2.182  1.6628 -1.0356  0.5045
39623SOL     OW24831   5.418  12.186   2.422 -0.3249 -0.3978  0.3674
39623SOL    HW124832   5.425  12.140   2.339  0.2351  0.0577  0.1568
39623SOL    HW224833   5.325  12.181   2.445 -0.6107  0.0980 -0.6456
39624SOL     OW24834  10.664  12.454   4.072  0.4879  0.4346 -0.8589
39624SOL    HW124835  10.682  12.468   3.979  1.4627 -2.7897 -1.2806
39624SOL    HW224836  10.572  12.426   4.075  0.4389  0.5979 -0.8662
39625SOL     OW24837   5.922   3.180  11.607  0.1133  0.5454  0.3947
39625SOL    HW124838   5.843   3.139  11.571  0.4169  0.6339 -0.3823
39625SOL    HW224839   5.969   3.212  11.530 -0.2396  2.5894  0.9679
39626SOL     OW24840  11.229   4.165   0.687 -0.3339 -0.3716 -0.8494
39626SOL    HW124841  11.193   4.098   0.630  0.6998 -1.6901 -0.0099
39626SOL    HW224842  11.259   4.234   0.627 -0.6154 -1.0497 -1.7863
39627SOL     OW24843   0.592   6.356   9.887  0.2489  0.0865 -0.1938
39627SOL    HW124844   0.566   6.320   9.802  0.0436  0.6599 -0.3748
39627SOL    HW224845   0.680   6.391   9.873  2.1755 -3.6739  0.9080
39628SOL     OW24846   6.742   7.923  11.197 -0.1165  0.0428  0.2843
39628SOL    HW124847   6.785   8.002  11.231 -2.7577  1.8501 -0.2138
39628SOL    HW224848   6.770   7.919  11.105 -0.5651  0.8996  0.0965
39629SOL     OW24849   4.961   9.465  10.199  0.1763  0.8470  0.3063
39629SOL    HW124850   4.936   9.554  10.221  0.6953  1.1611 -0.3209
39629SOL    HW224851   4.903   9.441  10.127  1.2287  1.3682 -0.7646
39630SOL     OW24852   3.135   5.021   3.312  0.5133 -0.4801  0.2682
39630SOL    HW124853   3.040   5.021   3.323  0.6227  0.3638  1.4553
39630SOL    HW224854   3.164   4.943   3.360  0.4361 -0.6069  0.1081
39631SOL     OW24855   2.079   9.850  10.480 -0.2254  0.2071  0.0226
39631SOL    HW124856   2.111   9.785  10.418  0.3287 -1.3293  1.7980
39631SOL    HW224857   2.153   9.910  10.493  0.4676 -0.7729  0.8140
39632SOL     OW24858   8.611   7.058   1.841 -0.0997  0.7082 -0.1156
39632SOL    HW124859   8.596   7.080   1.749 -1.5165  0.2003 -0.0330
39632SOL    HW224860   8.557   7.121   1.890 -1.3673 -0.5876  0.2447
39633SOL     OW24861   2.274   7.349   6.505  0.1854 -0.3670 -0.4093
39633SOL    HW124862   2.271   7.273   6.448  0.2242 -0.9942  0.4040
39633SOL    HW224863   2.228   7.418   6.457 -0.5332 -1.1257 -0.8250
39634SOL     OW24864   1.642   0.010   5.901  0.2203 -0.1260  0.5575
39634SOL    HW124865   1.698   0.057   5.963  0.8579 -0.6487  0.3931
39634SOL    HW224866   1.631  -0.077   5.939 -1.4000  0.2898  1.1267
39635SOL     OW24867   0.425   2.680   5.712  0.0855 -0.0819 -0.5258
39635SOL    HW124868   0.386   2.614   5.655 -0.1877 -0.0294 -0.4046
39635SOL    HW224869   0.486   2.728   5.656  0.8181 -0.8904 -0.4422
39636SOL     OW24870  10.504   5.020   3.136  0.4524 -0.0395  0.4114
39636SOL    HW124871  10.547   5.075   3.070  0.3157 -0.6020 -0.1529
39636SOL    HW224872  10.544   5.046   3.219 -0.9451  2.2747  0.4424
39637SOL     OW24873   3.628   1.041   7.619  0.2470 -0.7198  0.5016
39637SOL    HW124874   3.610   1.082   7.704  1.1974  1.4142 -0.2603
39637SOL    HW224875   3.656   1.113   7.563 -0.0850 -2.1219 -1.5748
39638SOL     OW24876   6.341   2.876  10.723 -0.1078 -0.0572 -0.0091
39638SOL    HW124877   6.269   2.931  10.691 -1.4664 -0.5353  2.0139
39638SOL    HW224878   6.334   2.796  10.671 -0.3602  0.3177 -0.5615
39639SOL     OW24879   2.394   4.757   4.653 -0.1392  0.9767  0.2345
39639SOL    HW124880   2.414   4.819   4.723 -2.2917  0.4288  1.4341
39639SOL    HW224881   2.460   4.688   4.663  0.6711  1.7669  0.5405
39640SOL     OW24882  10.928   1.004   9.258  0.2906 -0.1585 -0.1775
39640SOL    HW124883  10.878   0.930   9.292  0.8577 -1.5607 -2.2223
39640SOL    HW224884  11.017   0.990   9.291  0.3861 -0.3935 -0.5228
39641SOL     OW24885   7.464  10.593  11.114 -0.2594 -0.5174 -0.5830
39641SOL    HW124886   7.545  10.582  11.065  0.4398 -0.3284  0.5015
39641SOL    HW224887   7.446  10.506  11.149  0.1119 -0.3173  0.1257
39642SOL     OW24888   8.687   0.435   0.406  0.0953  0.2803 -0.1696
39642SOL    HW124889   8.644   0.519   0.417  0.4367  0.4420 -0.0596
39642SOL    HW224890   8.776   0.457   0.378 -0.0073 -0.0596 -0.7917
39643SOL     OW24891   9.366   4.888   4.355  0.5679 -0.7305  0.0360
39643SOL    HW124892   9.365   4.965   4.299  0.8111 -1.9161 -1.6979
39643SOL    HW224893   9.315   4.823   4.306 -0.8565 -1.2582  2.1006
39644SOL     OW24894   5.968   1.754   2.218  0.0768 -0.1849 -0.2358
39644SOL    HW124895   6.055   1.721   2.196  0.5200  1.0949 -0.4995
39644SOL    HW224896   5.915   1.676   2.233  0.9971 -1.0017 -1.1227
39645SOL     OW24897   5.217   1.153   9.004  0.0104 -0.5143 -0.4212
39645SOL    HW124898   5.244   1.186   9.090 -0.8032  0.6956 -0.6092
39645SOL    HW224899   5.132   1.193   8.988 -0.2791 -1.4737 -1.3867
39646SOL     OW24900   6.272   4.801   5.726 -0.2150 -0.0746 -0.2603
39646SOL    HW124901   6.313   4.744   5.662 -1.3702  0.1951 -1.2836
39646SOL    HW224902   6.238   4.742   5.793  0.0129 -0.4552 -0.4762
39647SOL     OW24903   9.009   4.683   0.768 -0.9126  0.2654 -0.3728
39647SOL    HW124904   8.945   4.612   0.781 -1.6096  1.1587  1.5591
39647SOL    HW224905   8.955   4.762   0.763 -0.1132  0.7483 -1.9743
39648SOL     OW24906   6.445   6.535  10.642  0.2627  0.0046  0.3726
39648SOL    HW124907   6.440   6.630  10.641 -0.7289 -0.0324 -0.7338
39648SOL    HW224908   6.536   6.515  10.619  0.3739  0.6829  0.1965
39649SOL     OW24909  10.438   6.863   0.978 -0.3689  0.1896  0.1340
39649SOL    HW124910  10.497   6.937   0.969 -0.4865  0.2805  0.1097
39649SOL    HW224911  10.351   6.899   0.959 -0.2344 -0.3142 -1.6940
39650SOL     OW24912   3.568   0.366   3.390 -0.4018  0.3978 -0.0595
39650SOL    HW124913   3.546   0.314   3.468  1.2169 -0.3721 -0.0711
39650SOL    HW224914   3.657   0.398   3.408  1.1587 -2.0324 -2.6526
39651SOL     OW24915   5.007   4.891   9.045 -0.4577 -0.0474  0.3257
39651SOL    HW124916   4.940   4.824   9.028  0.5591 -1.1230  0.4901
39651SOL    HW224917   5.090   4.846   9.030  0.2504  1.1297  0.6497
39652SOL     OW24918   0.572  11.072   2.902  0.3548  0.3924  0.2412
39652SOL    HW124919   0.644  11.056   2.840 -0.8637 -0.2286 -1.0977
39652SOL    HW224920   0.507  11.121   2.851 -2.0163 -2.6857 -0.0440
39653SOL     OW24921   0.423   6.806   8.307 -0.1447  0.4921  0.1873
39653SOL    HW124922   0.417   6.713   8.325  1.6313  0.4159  0.6143
39653SOL    HW224923   0.409   6.848   8.392  0.2123  0.5471  0.2215
39654SOL     OW24924   0.325   2.440   3.477 -0.2614  0.1686  0.2037
39654SOL    HW124925   0.243   2.395   3.500 -0.4222  0.3464 -0.0207
39654SOL    HW224926   0.321   2.522   3.526 -0.4751  0.4240 -0.2425
39655SOL     OW24927   5.283   7.238   7.642 -0.3089  0.2733 -0.1695
39655SOL    HW124928   5.238   7.302   7.697 -0.4323 -1.1620  1.4535
39655SOL    HW224929   5.217   7.171   7.624  0.8385 -1.3439  1.3978
39656SOL     OW24930   0.038   5.641   6.648  0.1503 -0.1337 -0.5082
39656SOL    HW124931   0.021   5.563   6.700  1.9190 -0.3505 -0.2179
39656SOL    HW224932  -0.017   5.709   6.688  0.1098 -0.7434  0.4915
39657SOL     OW24933   9.427  10.099  11.512 -0.0647 -0.2406 -0.0169
39657SOL    HW124934   9.511  10.118  11.469 -0.0124 -1.3690 -0.4559
39657SOL    HW224935   9.377  10.180  11.503 -0.1038 -0.4501 -2.3587
39658SOL     OW24936   4.898  10.872   7.263  0.8846 -0.3707 -0.1129
39658SOL    HW124937   4.972  10.833   7.310  1.3533  3.1915  2.5682
39658SOL    HW224938   4.821  10.826   7.297  1.4948  0.0130  1.9620
39659SOL     OW24939   3.303   3.948   9.312  0.2916  0.1168 -0.5275
39659SOL    HW124940   3.275   3.939   9.402  1.3210  1.5826 -0.0167
39659SOL    HW224941   3.225   3.977   9.265 -0.5740 -1.8792 -0.3973
39660SOL     OW24942  11.557   3.283   6.045 -0.6906 -0.0869 -0.2058
39660SOL    HW124943  11.621   3.342   6.085 -0.1920 -1.3689  0.9902
39660SOL    HW224944  11.481   3.339   6.026 -0.2895  0.9131  0.9997
39661SOL     OW24945   2.088  11.890   6.822  0.5533 -0.4528  0.3055
39661SOL    HW124946   2.111  11.966   6.876  0.8178  0.6322 -1.2501
39661SOL    HW224947   1.992  11.892   6.819  0.5804  0.7840 -0.9498
39662SOL     OW24948   3.543   2.054   5.266  0.5322  0.2120  0.4549
39662SOL    HW124949   3.613   2.038   5.329 -0.6205  0.3792  1.8270
39662SOL    HW224950   3.462   2.035   5.314 -0.5456  2.8860 -0.1269
39663SOL     OW24951  10.138   8.026   7.444  0.4577 -0.1314 -0.0844
39663SOL    HW124952  10.106   8.107   7.406  0.9713 -0.9044 -2.3513
39663SOL    HW224953  10.073   8.002   7.510  0.6167  2.3739  1.1072
39664SOL     OW24954  11.531   3.188   7.252  0.2754  0.0751  0.9928
39664SOL    HW124955  11.575   3.103   7.250  1.2603  0.5129  2.3763
39664SOL    HW224956  11.497   3.195   7.341  0.0338  1.0511  0.8366
39665SOL     OW24957   9.792   3.939   7.296  0.0873 -0.0236  0.2661
39665SOL    HW124958   9.803   4.016   7.352  0.7865  0.2820 -0.2770
39665SOL    HW224959   9.707   3.953   7.253  0.5068  0.7799 -0.3242
39666SOL     OW24960   6.095   4.939   0.117 -0.0098 -0.2291 -0.0782
39666SOL    HW124961   6.053   5.021   0.143 -0.0607  0.1793 -1.3524
39666SOL    HW224962   6.051   4.871   0.168  1.4612  0.7060  2.6037
39667SOL     OW24963   3.158  10.596   3.314  0.1603 -0.0599 -0.1903
39667SOL    HW124964   3.210  10.583   3.235 -1.3706 -2.8193 -0.8746
39667SOL    HW224965   3.081  10.646   3.285 -0.5200 -1.2811 -0.5491
39668SOL     OW24966   2.427   8.863   0.643  0.2054  0.0285 -0.3979
39668SOL    HW124967   2.475   8.824   0.570  1.4847  0.5021  0.1500
39668SOL    HW224968   2.344   8.891   0.605  0.9787  0.5727 -1.7659
39669SOL     OW24969   6.448   8.528   3.674 -0.4110 -0.1526  0.3473
39669SOL    HW124970   6.516   8.535   3.741  1.4538 -1.3533 -1.3190
39669SOL    HW224971   6.400   8.448   3.696  1.6040 -1.7838 -0.8782
39670SOL     OW24972   6.414   2.065   9.296  0.7686 -0.4829 -0.0120
39670SOL    HW124973   6.332   2.111   9.281  0.4780 -1.1959 -0.6811
39670SOL    HW224974   6.438   2.030   9.210 -0.3193 -3.6829  0.8212
39671SOL     OW24975   4.022  10.449   5.808 -0.4674  0.0043 -0.5565
39671SOL    HW124976   3.985  10.361   5.808 -1.0625  0.1578  2.1372
39671SOL    HW224977   3.985  10.491   5.730 -0.3331 -2.0275 -1.7700
39672SOL     OW24978   8.499   2.340   6.821 -0.0143 -0.7786  0.1001
39672SOL    HW124979   8.541   2.398   6.884 -0.4579 -1.6741  1.2707
39672SOL    HW224980   8.538   2.363   6.737  2.6141 -1.3484  1.0520
39673SOL     OW24981   2.462   0.160  10.643  0.3287 -0.4470  0.3650
39673SOL    HW124982   2.499   0.076  10.671 -0.2506 -1.2821 -1.2247
39673SOL    HW224983   2.372   0.158  10.677  1.1206  0.8022  2.7105
39674SOL     OW24984   1.567   6.233  10.279 -0.0469  0.2122 -0.5447
39674SOL    HW124985   1.619   6.153  10.270 -0.8985 -0.5271  0.8277
39674SOL    HW224986   1.492   6.219  10.221  0.5115  0.6413 -1.3876
39675SOL     OW24987   2.483   1.182   4.539  0.1348  0.0853  0.3972
39675SOL    HW124988   2.441   1.117   4.595 -0.9631  0.6883  0.2970
39675SOL    HW224989   2.419   1.199   4.470  1.6894 -1.0954 -1.4392
39676SOL     OW24990  10.520   1.975  12.162  0.6109 -0.2887  0.3802
39676SOL    HW124991  10.558   1.987  12.248 -0.0667  0.7988  0.5397
39676SOL    HW224992  10.426   1.981  12.176  0.4965 -0.0701 -0.4420
39677SOL     OW24993   1.526   7.794  10.735  0.4723 -0.0559 -0.4112
39677SOL    HW124994   1.522   7.889  10.726 -2.0549 -0.1518 -0.9656
39677SOL    HW224995   1.519   7.779  10.829  1.2142  0.2999 -0.2927
39678SOL     OW24996   2.381   5.416   9.287  0.9891  0.2550  0.1738
39678SOL    HW124997   2.397   5.474   9.362  1.7029  0.9537 -0.5070
39678SOL    HW224998   2.452   5.351   9.293  0.4611 -0.2992  0.6640
39679SOL     OW24999   2.596   1.308  11.524  0.0832  0.0625 -0.0425
39679SOL    HW125000   2.550   1.385  11.493  1.6131 -0.2634 -3.6255
39679SOL    HW225001   2.576   1.240  11.459  3.0630 -0.9184 -0.0961
39680SOL     OW25002   6.369   2.817   6.600  0.4025  0.1117  0.1220
39680SOL    HW125003   6.291   2.774   6.565  1.4914 -0.2374 -2.0562
39680SOL    HW225004   6.399   2.873   6.529  3.0093 -0.9635  0.2620
39681SOL     OW25005   1.631   4.215  12.302  0.2124  0.1831 -0.1983
39681SOL    HW125006   1.636   4.310  12.308  1.0880  0.1358 -0.0631
39681SOL    HW225007   1.538   4.196  12.292  0.0599  1.0677 -0.5064
39682SOL     OW25008   6.237   6.381   9.724 -0.3067  0.6196 -0.1189
39682SOL    HW125009   6.266   6.291   9.710  1.4646  1.2116 -0.4358
39682SOL    HW225010   6.284   6.433   9.659 -0.6153  1.8962  0.6288
39683SOL     OW25011   2.861   1.482   1.048 -0.0276 -0.1971 -0.6126
39683SOL    HW125012   2.839   1.574   1.059  0.2695 -0.1662 -0.2360
39683SOL    HW225013   2.947   1.483   1.007 -0.9959 -0.3173 -2.7376
39684SOL     OW25014  11.083   0.963   3.362 -0.7422  0.2068  0.5610
39684SOL    HW125015  11.172   0.995   3.378 -1.7135  3.2477  0.6007
39684SOL    HW225016  11.062   0.910   3.439  1.1970 -1.0678  0.2658
39685SOL     OW25017   3.028   8.571   1.020 -0.7448 -0.0452 -0.2631
39685SOL    HW125018   3.097   8.625   0.982 -1.0646  1.5114  1.2244
39685SOL    HW225019   3.059   8.551   1.108 -1.9222  0.2065  0.2271
39686SOL     OW25020  11.839   8.810   0.335  0.1627  0.8255 -0.0128
39686SOL    HW125021  11.840   8.716   0.351  1.6354  1.0404  1.4812
39686SOL    HW225022  11.828   8.819   0.240 -2.2006 -0.7628  0.0509
39687SOL     OW25023   6.306   5.216   5.152  0.5240  0.4135  0.1434
39687SOL    HW125024   6.385   5.229   5.100  0.7268 -3.2410 -0.7406
39687SOL    HW225025   6.333   5.158   5.223 -1.2919 -0.9090 -0.1762
39688SOL     OW25026   5.344   4.295   6.031  0.2901 -0.2171  0.1812
39688SOL    HW125027   5.421   4.316   6.084  1.7710  2.4967 -2.7082
39688SOL    HW225028   5.368   4.215   5.985  0.5057 -0.5480  0.8609
39689SOL     OW25029   8.249   7.917   4.201 -0.1134 -0.4681  0.6552
39689SOL    HW125030   8.319   7.852   4.205 -1.4717 -1.9173  2.5141
39689SOL    HW225031   8.274   7.982   4.267 -0.4316 -0.9151  1.2238
39690SOL     OW25032   4.926   1.584   4.743  0.1611 -0.1708 -0.2083
39690SOL    HW125033   4.913   1.537   4.826  0.1467 -1.2296 -0.8012
39690SOL    HW225034   4.841   1.581   4.700  0.4811 -0.7211 -0.8179
39691SOL     OW25035   7.355   8.097   9.380 -0.2329  0.3680 -0.2703
39691SOL    HW125036   7.442   8.132   9.361  0.3192 -0.4393  0.6759
39691SOL    HW225037   7.371   8.021   9.437 -1.5391  0.0605 -0.2692
39692SOL     OW25038   2.499   2.570   0.097  0.3150 -0.3033  0.1280
39692SOL    HW125039   2.459   2.643   0.145 -0.6286 -1.1556  0.6793
39692SOL    HW225040   2.586   2.602   0.073 -0.4718  1.4112 -0.6097
39693SOL     OW25041   6.533   3.595   8.423  0.2463  0.8119  0.2986
39693SOL    HW125042   6.607   3.607   8.481  1.6645 -2.2192 -0.6678
39693SOL    HW225043   6.474   3.536   8.470 -1.9502  3.5374  1.2533
39694SOL     OW25044   8.069  10.134   0.600 -0.3299  0.1007 -0.0922
39694SOL    HW125045   7.992  10.108   0.549 -1.2929  1.6316  0.5206
39694SOL    HW225046   8.064  10.229   0.604  1.0524  0.1591  0.8347
39695SOL     OW25047  12.057  12.104   5.397  0.6927  0.0023 -0.1091
39695SOL    HW125048  11.981  12.087   5.452 -0.4643  1.2152 -1.2716
39695SOL    HW225049  12.081  12.018   5.361 -1.0062 -0.2089 -0.8125
39696SOL     OW25050   7.726   9.774  10.063 -0.6293 -0.4029 -0.3104
39696SOL    HW125051   7.642   9.788  10.018 -1.3121 -1.5512  0.5619
39696SOL    HW225052   7.702   9.730  10.144  0.5920  1.4216  1.1016
39697SOL     OW25053   6.058   4.484   6.646  0.3337 -0.9342  0.3210
39697SOL    HW125054   6.036   4.509   6.557 -0.9989 -1.4062  0.4877
39697SOL    HW225055   5.995   4.532   6.701 -0.6635 -2.6606  0.7927
39698SOL     OW25056   7.283   0.737   0.578 -0.0181 -0.7865  0.2810
39698SOL    HW125057   7.243   0.745   0.665 -1.1851 -1.5813 -0.1572
39698SOL    HW225058   7.239   0.804   0.525  0.7162 -0.2802  0.2919
39699SOL     OW25059   9.945   2.609   5.643 -0.3111  0.1032 -0.2595
39699SOL    HW125060   9.851   2.613   5.660 -0.5888 -1.5980 -1.2001
39699SOL    HW225061   9.959   2.671   5.571 -0.6302  0.6724  0.1629
39700SOL     OW25062   8.315   6.771  11.431 -0.1948 -0.1513 -0.4035
39700SOL    HW125063   8.268   6.741  11.509  2.0917  1.4443  1.7644
39700SOL    HW225064   8.263   6.845  11.399 -0.4871  0.0068  0.4053
39701SOL     OW25065   9.118   5.864   7.059 -0.1777 -0.1031  0.4128
39701SOL    HW125066   9.043   5.895   7.111 -1.9783 -1.9553 -0.9222
39701SOL    HW225067   9.093   5.881   6.969  1.1344 -0.5796 -0.0554
39702SOL     OW25068   6.655   3.747   7.061  0.2405 -0.4706 -0.1202
39702SOL    HW125069   6.569   3.742   7.103  0.1251 -1.5718 -0.4449
39702SOL    HW225070   6.637   3.782   6.974  0.3207  0.6402  0.2920
39703SOL     OW25071  12.454   6.265   9.746 -0.8537 -0.5213  0.3932
39703SOL    HW125072  12.426   6.276   9.837 -0.4145  1.4473  0.3444
39703SOL    HW225073  12.391   6.203   9.709 -0.4852 -2.1203  2.2535
39704SOL     OW25074   5.900   5.908   4.879 -0.4631 -0.1336  0.2944
39704SOL    HW125075   5.954   5.852   4.936 -0.6518 -0.3757  0.2309
39704SOL    HW225076   5.836   5.948   4.939  0.8034  1.4468  0.6857
39705SOL     OW25077  10.965   4.815   2.799  0.4795  0.5950 -1.0269
39705SOL    HW125078  11.041   4.763   2.774  0.3280 -0.0030 -0.2749
39705SOL    HW225079  10.890   4.757   2.785  0.3868  0.2646  0.7348
39706SOL     OW25080   1.320   8.037   4.027 -0.0688  0.2859 -0.0152
39706SOL    HW125081   1.349   8.007   3.941  0.5074 -1.4133  0.7244
39706SOL    HW225082   1.230   8.005   4.034  0.3896 -0.9208  0.5905
39707SOL     OW25083   7.073   9.582   1.951  0.1220 -0.2390  0.2525
39707SOL    HW125084   7.037   9.503   1.911 -1.0153 -0.1982  1.1569
39707SOL    HW225085   7.128   9.549   2.022  1.1466 -0.2594 -0.5166
39708SOL     OW25086   6.912   8.272   8.507  0.9099  0.3674 -0.2772
39708SOL    HW125087   6.858   8.208   8.460  1.0717 -0.9366  1.2128
39708SOL    HW225088   6.952   8.325   8.438 -0.0456 -0.4662 -1.5261
39709SOL     OW25089   7.872   3.689  11.477  0.4682  0.5261  0.0343
39709SOL    HW125090   7.944   3.686  11.413 -0.0406  1.5508 -0.6086
39709SOL    HW225091   7.882   3.608  11.527  2.0225  0.6019 -0.0965
39710SOL     OW25092   9.121   0.422   2.713 -0.5864 -0.0352 -0.5204
39710SOL    HW125093   9.098   0.406   2.805 -0.3877 -0.8843 -0.6079
39710SOL    HW225094   9.217   0.424   2.712 -0.5912  1.6552 -0.4541
39711SOL     OW25095   7.822   1.491   2.613  0.2273  0.1052  0.8586
39711SOL    HW125096   7.770   1.565   2.584  0.7273  0.8263  1.7549
39711SOL    HW225097   7.910   1.510   2.581  0.0217 -0.9848 -0.4366
39712SOL     OW25098   4.602  11.049   2.170 -0.0643  0.2859 -0.1282
39712SOL    HW125099   4.528  11.084   2.219 -0.2163  0.0245 -0.1688
39712SOL    HW225100   4.607  11.104   2.092 -1.0312 -0.5069 -0.7670
39713SOL     OW25101   8.238  12.360   2.799 -0.6598  0.3504 -0.5990
39713SOL    HW125102   8.255  12.388   2.889 -1.5284  1.4232 -0.7420
39713SOL    HW225103   8.148  12.386   2.783 -1.4624 -2.3249 -0.8932
39714SOL     OW25104   6.470   6.112   9.966  0.7114 -0.2171 -0.2799
39714SOL    HW125105   6.437   6.117   9.876 -0.2871  1.0174  0.1400
39714SOL    HW225106   6.503   6.200   9.985  0.8581 -0.4489  0.5812
39715SOL     OW25107   3.956  10.283   0.902 -0.2956 -0.1644  0.5112
39715SOL    HW125108   3.963  10.191   0.928 -1.2336 -0.0904  1.0737
39715SOL    HW225109   4.008  10.331   0.966  2.9823 -0.5219 -1.6237
39716SOL     OW25110   8.202   3.801   0.356 -0.4926  0.1125  0.3932
39716SOL    HW125111   8.284   3.778   0.311  0.6038  0.2148  2.2217
39716SOL    HW225112   8.133   3.768   0.299  0.7803  0.7883 -1.6348
39717SOL     OW25113   8.082   2.812   3.454 -0.3043 -0.1455  0.0149
39717SOL    HW125114   7.996   2.836   3.491 -0.4869  0.4693 -0.7752
39717SOL    HW225115   8.138   2.886   3.475  0.9789 -1.9077  3.4094
39718SOL     OW25116   3.180   6.340   9.299  0.0217 -0.1992 -0.6292
39718SOL    HW125117   3.099   6.358   9.346  1.0368  1.3764  0.6272
39718SOL    HW225118   3.175   6.394   9.220  0.5682  1.3212  0.3275
39719SOL     OW25119   9.907   6.805   5.711 -0.3927 -0.0759  0.6880
39719SOL    HW125120   9.892   6.782   5.802 -1.1499  2.2127  1.1971
39719SOL    HW225121   9.890   6.899   5.706  0.8418  0.1054 -1.5631
39720SOL     OW25122   9.166  12.307  10.595 -0.0935 -0.7107  0.1845
39720SOL    HW125123   9.196  12.363  10.666 -0.2388  1.1263 -1.1473
39720SOL    HW225124   9.218  12.226  10.605  1.9128  0.5676  0.7253
39721SOL     OW25125   3.057   5.792   3.063 -0.8045 -0.2887  0.0928
39721SOL    HW125126   3.007   5.839   2.997  1.3011  1.9603 -0.0346
39721SOL    HW225127   3.137   5.765   3.018 -0.3097 -0.6857  1.1676
39722SOL     OW25128   1.015   4.175  11.943  0.0049 -0.1634 -0.5628
39722SOL    HW125129   1.008   4.098  12.000 -0.9698 -0.4481 -1.0514
39722SOL    HW225130   0.930   4.217  11.949 -0.3696 -0.6013 -2.3625
39723SOL     OW25131   6.326   4.212   2.798 -0.1245 -0.1511  0.1116
39723SOL    HW125132   6.367   4.147   2.741 -0.0864  0.4838 -0.5940
39723SOL    HW225133   6.295   4.280   2.738 -0.4074  0.3515  0.8208
39724SOL     OW25134  10.167  11.053   5.839  0.2896  0.2851 -0.0991
39724SOL    HW125135  10.167  10.972   5.789  1.5920  0.0519  0.2401
39724SOL    HW225136  10.213  11.116   5.783  0.3123  0.4671  0.1194
39725SOL     OW25137   7.483   9.903  10.827  0.4846 -0.4872 -0.2850
39725SOL    HW125138   7.401   9.864  10.798  0.2786 -1.6258  1.6436
39725SOL    HW225139   7.472   9.914  10.921  3.3149 -2.7889  0.4528
39726SOL     OW25140   0.239   3.668  10.361 -0.7613 -0.3292 -0.5172
39726SOL    HW125141   0.253   3.573  10.364  1.5404 -0.0355  0.0129
39726SOL    HW225142   0.282   3.696  10.281 -0.7354  0.3567 -0.2719
39727SOL     OW25143  12.259   8.890   0.530  0.3430  0.4653  0.4745
39727SOL    HW125144  12.267   8.893   0.625  0.6413  1.2920  0.4329
39727SOL    HW225145  12.165   8.901   0.513  0.4329  1.5645  0.6405
39728SOL     OW25146  10.539   0.564   7.105 -0.7788  0.3414  0.6944
39728SOL    HW125147  10.518   0.564   7.011 -0.5599  0.5502  0.6441
39728SOL    HW225148  10.575   0.651   7.121  0.6134 -0.2100  0.6499
39729SOL     OW25149  11.018   6.378   0.068 -0.5258  0.2351  0.4008
39729SOL    HW125150  10.933   6.394   0.109 -1.8311  2.3043 -2.7218
39729SOL    HW225151  11.017   6.286   0.044 -3.5428  0.8276 -2.5584
39730SOL     OW25152   0.140   3.297   6.097  0.6530 -0.1056 -0.3305
39730SOL    HW125153   0.112   3.215   6.056  0.1027 -0.1498  0.1386
39730SOL    HW225154   0.215   3.273   6.151 -0.2335 -0.5275  0.7436
39731SOL     OW25155   9.700   0.813   0.963  0.2166 -0.0649 -0.0441
39731SOL    HW125156   9.626   0.873   0.964 -0.8031 -1.2356 -1.2036
39731SOL    HW225157   9.764   0.854   0.905 -0.3506  0.0414 -0.6061
39732SOL     OW25158   1.311   3.282  10.790 -0.1373 -0.4143 -0.8210
39732SOL    HW125159   1.394   3.241  10.816  0.4299  1.2429  0.0907
39732SOL    HW225160   1.271   3.218  10.731  2.1604 -0.9557 -1.9418
39733SOL     OW25161   6.377  10.204   1.302  0.0123 -0.4969  0.5920
39733SOL    HW125162   6.343  10.231   1.387  0.2637  0.6100  0.3550
39733SOL    HW225163   6.470  10.229   1.305 -0.4132  1.4221 -0.7347
39734SOL     OW25164   6.632  11.548   2.531  0.6819 -0.2763 -0.3411
39734SOL    HW125165   6.634  11.467   2.480  1.0181  1.3880 -3.1978
39734SOL    HW225166   6.708  11.597   2.502  2.7901 -0.3727  4.1723
39735SOL     OW25167   9.528   0.102  10.634  0.4947 -0.4446 -0.4881
39735SOL    HW125168   9.558   0.185  10.595 -0.8961  0.1124 -0.4206
39735SOL    HW225169   9.604   0.069  10.681  0.3768  2.1482  1.7588
39736SOL     OW25170  12.232  12.394   8.427  0.3326 -0.2201  0.0529
39736SOL    HW125171  12.280  12.317   8.398  1.3153 -0.3225  1.8052
39736SOL    HW225172  12.199  12.371   8.513  0.9032  1.3920  0.7465
39737SOL     OW25173   1.598   3.607   8.688  0.6347  0.0713  0.0312
39737SOL    HW125174   1.593   3.579   8.779  2.2079 -0.7755 -0.1096
39737SOL    HW225175   1.510   3.591   8.653 -0.2484  1.2264  1.5925
39738SOL     OW25176   2.137   0.698   6.831  0.4280 -0.0329 -0.0565
39738SOL    HW125177   2.202   0.696   6.901  1.7806 -2.5610 -1.2267
39738SOL    HW225178   2.165   0.770   6.775  0.7448  0.4882  0.7500
39739SOL     OW25179   9.324  12.181   1.578 -0.3303  0.2353  0.1458
39739SOL    HW125180   9.415  12.169   1.551 -0.3912  0.6587 -0.2806
39739SOL    HW225181   9.326  12.175   1.673  0.2012  0.5724  0.1620
39740SOL     OW25182  11.185   3.437   7.891  0.0740 -0.1312  0.4769
39740SOL    HW125183  11.247   3.381   7.937  1.5854  1.6090  0.6774
39740SOL    HW225184  11.111   3.445   7.951  1.0379  0.2927  1.6517
39741SOL     OW25185   6.784  10.692   5.913 -0.3368  0.5697  0.2053
39741SOL    HW125186   6.779  10.759   5.981  0.2118 -0.6766  1.5171
39741SOL    HW225187   6.875  10.661   5.915 -0.7549 -0.7400  0.1632
39742SOL     OW25188  10.185   4.079   0.939  0.3179 -0.6958  0.1654
39742SOL    HW125189  10.102   4.117   0.908  0.3490 -0.3461  0.4993
39742SOL    HW225190  10.171   3.985   0.938  0.8193 -0.8092 -2.3758
39743SOL     OW25191   8.934   7.554  10.436  0.5379  0.2400 -0.4746
39743SOL    HW125192   8.951   7.648  10.423 -0.3430  0.4324 -0.2942
39743SOL    HW225193   8.939   7.517  10.348  3.1544  0.0262 -0.3322
39744SOL     OW25194   8.523   9.871   2.969  0.1033  0.5611  0.2091
39744SOL    HW125195   8.449   9.871   3.030  0.3421 -1.0556  0.5348
39744SOL    HW225196   8.497   9.809   2.901  0.7904  0.6614 -0.1479
39745SOL     OW25197   0.681   6.132   2.896  0.9407 -0.2530 -0.0218
39745SOL    HW125198   0.741   6.128   2.821 -0.5756 -0.7535 -1.2474
39745SOL    HW225199   0.682   6.224   2.923  1.5243 -0.0694 -0.6391
39746SOL     OW25200   0.475   7.159   1.284 -0.2728 -0.0591  0.2689
39746SOL    HW125201   0.455   7.075   1.326  0.0327 -0.2327  0.0697
39746SOL    HW225202   0.390   7.204   1.280 -0.1957  0.2676  1.7266
39747SOL     OW25203   5.350   1.395   7.784  0.3869  0.5087 -0.5927
39747SOL    HW125204   5.367   1.443   7.865  0.2288 -0.7933  0.2279
39747SOL    HW225205   5.328   1.307   7.812 -2.2552  0.6569 -1.9144
39748SOL     OW25206  10.032   5.666   0.231  0.4800  0.0604 -0.4647
39748SOL    HW125207  10.077   5.597   0.182 -0.4205  0.0087 -1.2496
39748SOL    HW225208   9.941   5.635   0.237  0.6099 -0.0741  1.5168
39749SOL     OW25209   2.981   1.292  12.031  0.3121 -0.2143  0.0130
39749SOL    HW125210   3.069   1.307  11.996  0.2646  1.5333  0.5712
39749SOL    HW225211   2.995   1.273  12.124  0.0789  0.9962  0.3199
39750SOL     OW25212   8.048  11.462  10.128 -0.3835 -0.3020 -0.2240
39750SOL    HW125213   8.037  11.449  10.034  0.8582  0.2946 -0.4630
39750SOL    HW225214   7.987  11.399  10.168 -0.3211 -1.1482 -1.4127
39751SOL     OW25215   0.020   0.027  11.394  0.3588 -0.0925 -0.1305
39751SOL    HW125216   0.036   0.033  11.300  1.1078  2.5149  0.0972
39751SOL    HW225217  -0.067   0.064  11.406  0.3687 -0.1814  0.2262
39752SOL     OW25218   7.009   1.376   6.221 -0.2131 -0.1306 -0.1685
39752SOL    HW125219   6.915   1.358   6.231 -0.1381  0.1341  1.2873
39752SOL    HW225220   7.026   1.366   6.128 -2.3329  2.7865 -1.0295
39753SOL     OW25221   7.410   5.240   2.947 -0.0508  0.6076  0.2738
39753SOL    HW125222   7.341   5.302   2.969 -0.5037 -0.1982  1.2071
39753SOL    HW225223   7.388   5.209   2.859  0.3495  1.9710 -0.3249
39754SOL     OW25224   3.882   3.080   0.755  0.0980  0.2385 -0.3037
39754SOL    HW125225   3.962   3.132   0.744  0.0174  0.0967 -1.7975
39754SOL    HW225226   3.832   3.127   0.821 -0.2927  2.5305 -2.1007
39755SOL     OW25227   0.683   4.776   4.686  0.0619 -0.0001  0.1784
39755SOL    HW125228   0.732   4.705   4.727 -0.8709 -0.2723  0.8535
39755SOL    HW225229   0.719   4.856   4.724  1.2507 -0.0782 -0.7301
39756SOL     OW25230  11.327   9.976   4.360  0.3151  0.1722 -0.0476
39756SOL    HW125231  11.343   9.916   4.287  1.9938 -0.6004  0.8742
39756SOL    HW225232  11.331  10.063   4.321 -0.5947 -0.2540 -1.1509
39757SOL     OW25233   3.048   6.373   9.961 -0.0053 -0.2252 -0.0079
39757SOL    HW125234   3.004   6.453   9.933  0.5396 -0.0949 -0.5149
39757SOL    HW225235   2.979   6.307   9.964 -0.2619  0.0051 -0.6593
39758SOL     OW25236   6.251   9.818   1.112  0.5578  0.4488  0.1010
39758SOL    HW125237   6.259   9.834   1.206  1.0804 -0.9017  0.3144
39758SOL    HW225238   6.297   9.891   1.071  0.5448  0.9132  0.8955
39759SOL     OW25239   2.153   5.619   6.859  0.0482  0.0760 -0.3162
39759SOL    HW125240   2.097   5.696   6.858 -2.0933 -1.2933  2.0377
39759SOL    HW225241   2.132   5.572   6.778  0.8853  1.5429 -1.4315
39760SOL     OW25242   4.056   8.259   7.557  0.4146  0.0546 -0.2145
39760SOL    HW125243   4.057   8.163   7.548 -0.1613  0.0959 -0.8214
39760SOL    HW225244   4.131   8.288   7.506  0.5964 -0.0718 -0.0217
39761SOL     OW25245  11.352   4.988   8.347 -0.2930  0.2560  0.0825
39761SOL    HW125246  11.310   4.932   8.413  1.4804 -0.3687  0.7568
39761SOL    HW225247  11.311   5.073   8.358 -1.6656 -0.4207  0.3920
39762SOL     OW25248  12.415   0.934   1.802 -0.0640  0.0735  0.5536
39762SOL    HW125249  12.475   0.864   1.829 -0.9869 -0.9389  0.0655
39762SOL    HW225250  12.442   1.010   1.853 -0.3692 -1.1772  2.7272
39763SOL     OW25251   9.255   6.418  11.610  0.1234 -0.4766  0.4722
39763SOL    HW125252   9.315   6.418  11.535  0.4233 -1.6794  0.6793
39763SOL    HW225253   9.251   6.509  11.638 -0.2573  0.0593 -1.1996
39764SOL     OW25254  11.016   5.721   5.650 -0.3452 -0.4498  0.0502
39764SOL    HW125255  11.076   5.795   5.644 -1.3948  0.5074  0.8168
39764SOL    HW225256  10.979   5.728   5.738 -1.5953 -0.9663 -0.4115
39765SOL     OW25257   3.960   3.466   8.816 -0.3418  0.1640 -0.1318
39765SOL    HW125258   3.925   3.554   8.802 -0.1791  0.0786 -1.1025
39765SOL    HW225259   3.999   3.441   8.733 -0.6997 -0.9722  0.0208
39766SOL     OW25260  11.038   2.611  10.722  0.1289  0.3412  0.2169
39766SOL    HW125261  11.107   2.610  10.788  1.2049  0.3785 -0.8830
39766SOL    HW225262  11.077   2.656  10.647 -1.2890  0.9009 -0.2263
39767SOL     OW25263   6.407  10.833  10.538 -0.0618 -0.6606 -0.2730
39767SOL    HW125264   6.465  10.760  10.520  1.1336  0.1305  0.2796
39767SOL    HW225265   6.328  10.793  10.574 -0.3056 -1.8282 -1.9966
39768SOL     OW25266   4.385   9.059   5.087  0.1233  0.4237  0.2646
39768SOL    HW125267   4.464   9.058   5.032  0.4527  0.7050  0.7294
39768SOL    HW225268   4.398   9.133   5.146 -0.9241  1.0586 -0.2762
39769SOL     OW25269  10.391   8.773   1.594  0.3814 -0.4222  0.2133
39769SOL    HW125270  10.317   8.713   1.603 -0.0446 -0.0679 -0.8039
39769SOL    HW225271  10.467   8.717   1.588 -0.1944 -1.0358 -2.9078
39770SOL     OW25272  11.552   1.238   3.585  0.1452  0.4782 -0.1667
39770SOL    HW125273  11.484   1.297   3.553  0.9881  0.3980 -2.2668
39770SOL    HW225274  11.596   1.286   3.655 -2.0240  0.5238  1.2508
39771SOL     OW25275  10.797   5.723   5.072 -0.1526 -0.6505  0.4038
39771SOL    HW125276  10.890   5.704   5.086 -0.0088 -1.7439 -1.5858
39771SOL    HW225277  10.778   5.796   5.131  1.3729 -1.8489  2.5167
39772SOL     OW25278   8.400   1.549   6.765  0.2244  0.3673  0.1570
39772SOL    HW125279   8.367   1.483   6.825  1.8374 -0.1399  0.5553
39772SOL    HW225280   8.441   1.498   6.694 -1.7297  0.9437 -1.4760
39773SOL     OW25281  12.109   7.039   0.208 -0.5195  0.0692 -0.3330
39773SOL    HW125282  12.143   7.119   0.247 -0.6572 -0.1816  0.3049
39773SOL    HW225283  12.142   7.041   0.117  2.1722 -0.7025  0.5168
39774SOL     OW25284  10.671  10.692   4.122  0.6261 -0.3572  0.0546
39774SOL    HW125285  10.626  10.748   4.185  1.5049 -0.6950  0.9904
39774SOL    HW225286  10.608  10.621   4.104  0.5537 -0.5097  0.8990
39775SOL     OW25287   5.260   4.002   5.271  0.0442  0.3461 -0.1014
39775SOL    HW125288   5.355   3.988   5.265  0.4195  3.0589 -3.5358
39775SOL    HW225289   5.223   3.945   5.204 -0.8351 -0.5248  1.0676
39776SOL     OW25290   8.306   1.278   2.181  0.1075  0.0522 -0.2604
39776SOL    HW125291   8.247   1.211   2.145 -0.2726  0.4415 -0.3651
39776SOL    HW225292   8.252   1.356   2.188  0.1236 -0.0624  1.3547
39777SOL     OW25293   1.489   5.368  10.684  0.0264  0.5975 -0.2926
39777SOL    HW125294   1.417   5.328  10.636 -0.6146 -1.7175  2.3684
39777SOL    HW225295   1.534   5.295  10.726  1.8161  2.2992  0.9342
39778SOL     OW25296   4.801   1.397   3.902 -0.6462 -0.1610  0.2190
39778SOL    HW125297   4.778   1.415   3.994  1.5988  0.8144  0.6500
39778SOL    HW225298   4.890   1.429   3.893 -0.0335 -2.1674 -1.7718
39779SOL     OW25299   0.049   1.383   7.670 -0.2350 -0.1214  0.0967
39779SOL    HW125300   0.078   1.338   7.591  0.1669  0.1958  0.0570
39779SOL    HW225301   0.122   1.374   7.732 -0.5621 -0.4041  0.4480
39780SOL     OW25302   6.961   4.825   3.411  0.5392 -0.1351  0.9236
39780SOL    HW125303   7.051   4.842   3.438  0.1218 -0.6640  2.8539
39780SOL    HW225304   6.908   4.877   3.472 -0.4711 -0.7165  0.5622
39781SOL     OW25305   5.010   9.202  12.470 -0.2786  0.0676  0.1976
39781SOL    HW125306   5.037   9.270  12.531  2.7740 -1.1131  0.3607
39781SOL    HW225307   4.949   9.148  12.520  0.8362  0.1074  1.7002
39782SOL     OW25308   7.564   7.810   9.940  0.2516 -0.3125 -0.0116
39782SOL    HW125309   7.597   7.721   9.934 -0.9264 -0.7856  0.2692
39782SOL    HW225310   7.473   7.804   9.911  0.5903  1.0857 -1.5317
39783SOL     OW25311   8.591   9.537  10.832  0.1097 -0.1669  0.3583
39783SOL    HW125312   8.500   9.536  10.802  0.4393  0.8952 -0.7558
39783SOL    HW225313   8.628   9.618  10.797  1.4639 -0.5124  0.8882
39784SOL     OW25314   4.127   5.105   6.295 -0.5007 -0.0917 -0.3107
39784SOL    HW125315   4.204   5.062   6.258 -1.5229 -1.5375 -0.8358
39784SOL    HW225316   4.078   5.035   6.338 -0.8578  1.0410  1.2066
39785SOL     OW25317   5.661   6.472  10.791 -0.2313 -0.7725  0.2083
39785SOL    HW125318   5.611   6.543  10.752  0.7693  1.3608  2.5307
39785SOL    HW225319   5.727   6.450  10.725  0.2624  1.4091 -0.0952
39786SOL     OW25320   3.904  11.612   7.358  0.0826  0.5151  0.0062
39786SOL    HW125321   3.957  11.644   7.285 -0.6436  1.1735 -0.2423
39786SOL    HW225322   3.904  11.684   7.421  0.4390  0.0713  0.5223
39787SOL     OW25323  10.226   3.489   8.036  0.6620  0.3147 -0.3477
39787SOL    HW125324  10.308   3.465   8.079  0.6364 -0.8169 -0.8960
39787SOL    HW225325  10.247   3.569   7.987  1.3744  0.1557 -0.3130
39788SOL     OW25326   9.354   6.948   3.266  0.1974  0.5866  0.5946
39788SOL    HW125327   9.372   7.027   3.316  0.6223  0.3755  0.7752
39788SOL    HW225328   9.265   6.961   3.232  0.5185  1.4492  0.0408
39789SOL     OW25329  12.183   0.311   7.001  0.0241 -0.6587  0.4878
39789SOL    HW125330  12.180   0.278   7.091  0.0842  0.4571  0.9107
39789SOL    HW225331  12.160   0.403   7.008 -0.5115 -0.6739 -0.7196
39790SOL     OW25332   4.596   2.681  12.370  0.6499  0.2100 -0.3587
39790SOL    HW125333   4.617   2.631  12.291  1.0120  0.0004 -0.1350
39790SOL    HW225334   4.501   2.689  12.369  0.5950 -0.4219 -0.4349
39791SOL     OW25335   1.233   0.452   7.264  0.0354  0.6137  0.2294
39791SOL    HW125336   1.243   0.534   7.312 -1.2193  0.6303  0.4907
39791SOL    HW225337   1.308   0.449   7.205 -0.1536  2.1609 -0.1040
39792SOL     OW25338   8.445   6.301  10.042 -0.3718  0.5026 -0.4138
39792SOL    HW125339   8.391   6.224  10.061 -0.1165  0.3617 -0.2456
39792SOL    HW225340   8.518   6.266   9.990 -0.0271  0.5530  0.0233
39793SOL     OW25341   7.453   5.447  12.474  0.1088  0.2942 -0.0379
39793SOL    HW125342   7.518   5.503  12.516  1.9175 -2.3415  0.8791
39793SOL    HW225343   7.491   5.360  12.476 -1.4671 -0.6610 -3.6705
39794SOL     OW25344   8.406   7.246   3.376  0.1432  0.3727 -0.1752
39794SOL    HW125345   8.373   7.281   3.293 -1.4794  0.3195  0.4148
39794SOL    HW225346   8.350   7.285   3.443  0.6104 -0.5691  0.7974
39795SOL     OW25347   5.440   9.267   0.362 -0.0471 -0.2775  0.0476
39795SOL    HW125348   5.361   9.300   0.406 -0.3787 -0.6444 -0.2635
39795SOL    HW225349   5.406   9.211   0.292  0.4338  1.1404 -1.3911
39796SOL     OW25350   5.661   2.740   9.037 -0.2733  0.1987  0.2120
39796SOL    HW125351   5.648   2.656   9.082  0.1006 -0.1033 -0.2433
39796SOL    HW225352   5.607   2.733   8.958 -0.3308  0.4365  0.2295
39797SOL     OW25353   2.919  10.340   1.943  0.0034 -0.2612  0.3922
39797SOL    HW125354   2.856  10.412   1.933  0.0362 -0.3328 -0.4202
39797SOL    HW225355   3.003  10.379   1.919 -0.1441 -0.8378 -1.1566
39798SOL     OW25356   7.508   6.059   8.290  0.3099  0.1673 -0.0565
39798SOL    HW125357   7.575   6.125   8.308  0.2388  0.5187 -1.0247
39798SOL    HW225358   7.426   6.101   8.317  0.4119 -0.0909  0.6958
39799SOL     OW25359   8.049   6.671   2.497 -0.3766  0.4753 -0.5979
39799SOL    HW125360   8.121   6.667   2.560  0.1873 -0.0924 -1.2689
39799SOL    HW225361   7.977   6.625   2.540  0.3369 -0.8532 -0.7930
39800SOL     OW25362   4.812   8.815   5.561 -0.1952 -0.4303 -0.0075
39800SOL    HW125363   4.773   8.808   5.474  0.2752 -1.0082 -0.1802
39800SOL    HW225364   4.741   8.795   5.621 -0.4551 -0.3028 -0.2707
39801SOL     OW25365   9.116   0.231   0.974  0.1663 -0.6149  0.3317
39801SOL    HW125366   9.169   0.287   0.916 -0.1101 -0.3146  0.3655
39801SOL    HW225367   9.058   0.292   1.019 -0.1047 -0.9287  0.4072
39802SOL     OW25368   7.716   1.849   4.990  0.0170 -0.1959 -0.1937
39802SOL    HW125369   7.665   1.795   4.929  1.6488  0.9728 -2.7480
39802SOL    HW225370   7.800   1.863   4.947  0.8424  1.7614  1.7927
39803SOL     OW25371   1.509  11.205   2.204 -0.3313  0.0877  0.1345
39803SOL    HW125372   1.517  11.119   2.244 -0.5189 -0.0836 -0.1904
39803SOL    HW225373   1.513  11.188   2.110 -1.4263  0.3134  0.0318
39804SOL     OW25374   6.109   6.001   1.160 -0.0646  0.0284  0.3288
39804SOL    HW125375   6.018   6.011   1.132  0.4560 -2.0188 -2.6469
39804SOL    HW225376   6.156   6.070   1.112  0.0827  0.4832  1.1203
39805SOL     OW25377   6.691   6.594   1.658  0.0219 -0.3191  0.1430
39805SOL    HW125378   6.625   6.545   1.706 -0.8691  0.1676 -0.5712
39805SOL    HW225379   6.749   6.526   1.622 -0.6287 -0.8039 -0.0114
39806SOL     OW25380   5.321   8.549   7.969 -0.2793 -0.3267 -0.1507
39806SOL    HW125381   5.285   8.629   8.007 -1.6540 -1.1393  0.3614
39806SOL    HW225382   5.322   8.565   7.875  0.2629  0.6024  0.0103
39807SOL     OW25383   0.427  11.909   7.264 -0.0325 -0.0298  0.1803
39807SOL    HW125384   0.402  11.910   7.171  0.7961 -0.2487 -0.0477
39807SOL    HW225385   0.369  11.844   7.304  0.3230 -0.7106 -0.3937
39808SOL     OW25386   3.030   3.964   1.667  0.5102  0.4357  0.2458
39808SOL    HW125387   2.964   4.009   1.719 -0.1490 -1.0323  0.7192
39808SOL    HW225388   2.988   3.947   1.583  1.0795  1.4974 -0.2800
39809SOL     OW25389  10.195   7.393   6.536 -0.5129  0.0234 -0.4483
39809SOL    HW125390  10.243   7.319   6.499 -0.7826 -0.5400  0.3006
39809SOL    HW225391  10.109   7.389   6.494 -0.7414 -0.4796  0.0490
39810SOL     OW25392   0.472   7.055   9.930 -0.1084  0.0529  0.0775
39810SOL    HW125393   0.551   7.021   9.889  0.7200  0.4826  1.2595
39810SOL    HW225394   0.456   7.139   9.885 -0.3844 -0.4208 -0.7256
39811SOL     OW25395   5.220   3.278   7.549 -0.4359  0.1352 -0.7763
39811SOL    HW125396   5.198   3.222   7.624  1.5899 -1.0061 -0.9953
39811SOL    HW225397   5.218   3.220   7.474  3.0725 -0.0750 -0.8328
39812SOL     OW25398   4.047  11.543   9.539  0.7244 -0.4522 -0.0523
39812SOL    HW125399   4.021  11.473   9.600 -1.6932  0.3760 -0.0504
39812SOL    HW225400   4.051  11.622   9.592  0.5761 -0.0665 -0.6032
39813SOL     OW25401   1.983   6.223   6.014  0.3693 -0.5014 -0.5911
39813SOL    HW125402   1.966   6.274   6.093  0.6543 -0.6939 -0.4003
39813SOL    HW225403   1.896   6.199   5.982  0.2567 -0.6807 -0.1637
39814SOL     OW25404   2.524   8.262   3.059  0.8724 -0.3812  0.2809
39814SOL    HW125405   2.474   8.339   3.032  2.0293  1.8807  3.8248
39814SOL    HW225406   2.460   8.191   3.064 -1.1496  1.4155  0.8854
39815SOL     OW25407   2.391  12.086   2.465  0.1621 -0.0670  0.4768
39815SOL    HW125408   2.355  12.162   2.418  1.1927 -0.2536 -0.6543
39815SOL    HW225409   2.473  12.067   2.421  0.3805 -1.2733  1.3546
39816SOL     OW25410   4.037   9.486  12.386  0.7274  0.2999  0.6251
39816SOL    HW125411   4.046   9.575  12.350 -1.3235 -0.1561 -1.3234
39816SOL    HW225412   4.087   9.487  12.467  0.3096  3.4103  0.9660
39817SOL     OW25413   6.916   6.127   2.349 -0.4856  0.6565 -0.4769
39817SOL    HW125414   6.939   6.092   2.262  0.9554  0.4772 -0.0629
39817SOL    HW225415   6.938   6.220   2.343 -1.8897  0.9797 -0.7827
39818SOL     OW25416  10.305   1.419   4.522 -0.0678  0.4264  0.2643
39818SOL    HW125417  10.372   1.448   4.584 -1.4399 -1.8641  3.0875
39818SOL    HW225418  10.251   1.497   4.508  0.9397  1.3050  1.0613
39819SOL     OW25419   3.703   4.630   9.461  0.3920  0.3986  0.0629
39819SOL    HW125420   3.791   4.596   9.443 -0.0347 -0.6193 -0.1846
39819SOL    HW225421   3.690   4.617   9.555 -0.4603 -1.9437 -0.2974
39820SOL     OW25422   2.989   4.585   3.070 -0.3934 -0.1898 -0.2974
39820SOL    HW125423   2.896   4.607   3.078  0.0498  1.2625  1.7458
39820SOL    HW225424   3.001   4.511   3.128 -0.2610 -0.3475 -0.5249
39821SOL     OW25425   5.038   8.514   9.608  0.4957  0.2099  0.1840
39821SOL    HW125426   5.077   8.441   9.655 -0.8170 -0.0176  0.9796
39821SOL    HW225427   5.028   8.482   9.518  0.9748 -0.1721  0.2649
39822SOL     OW25428   5.300   1.359   0.858  0.4467  0.0659  0.0524
39822SOL    HW125429   5.294   1.421   0.786  0.3099 -0.5829 -0.4963
39822SOL    HW225430   5.387   1.320   0.849 -0.1783 -1.2034 -0.7513
39823SOL     OW25431   6.494   2.522   3.514  0.2365 -0.3990 -0.7393
39823SOL    HW125432   6.473   2.614   3.527  1.0950 -0.1684 -0.9258
39823SOL    HW225433   6.474   2.481   3.598 -1.7314 -0.3687 -1.1355
39824SOL     OW25434   3.263   2.362  11.411  0.4994  0.0116 -0.0905
39824SOL    HW125435   3.312   2.312  11.347  1.1056  0.1272  0.2690
39824SOL    HW225436   3.267   2.309  11.491 -0.1409 -0.0733 -0.1044
39825SOL     OW25437   9.611   0.245   9.455 -0.2696 -0.6346 -0.4196
39825SOL    HW125438   9.625   0.338   9.475  0.1805 -0.7838 -0.0364
39825SOL    HW225439   9.516   0.237   9.447 -0.2999 -0.0915 -0.7008
39826SOL     OW25440   6.246  10.279   2.007 -0.0562  0.1002  0.3329
39826SOL    HW125441   6.294  10.198   1.991 -0.8017 -0.6751  1.7938
39826SOL    HW225442   6.295  10.323   2.077 -0.2512  0.3949  0.2875
39827SOL     OW25443  11.456   6.956  10.418 -0.3346  0.1956  0.3431
39827SOL    HW125444  11.456   7.041  10.374 -1.3802  0.5509  0.9792
39827SOL    HW225445  11.522   6.905  10.372  1.2668  1.7771  0.7891
39828SOL     OW25446   8.498  10.616   8.143  0.1688  0.0988  0.3688
39828SOL    HW125447   8.415  10.628   8.188 -0.2896 -0.2510 -0.3573
39828SOL    HW225448   8.480  10.642   8.052  1.4028  2.0534  0.6236
39829SOL     OW25449   1.967   5.457   7.528  0.5192 -0.3944 -0.0611
39829SOL    HW125450   1.978   5.380   7.585  1.8300  0.4227  0.8388
39829SOL    HW225451   1.873   5.462   7.513  0.4295 -2.3175 -0.3427
39830SOL     OW25452  10.573   0.174  10.943 -0.0091 -0.7221  0.3530
39830SOL    HW125453  10.565   0.087  10.903 -2.7056 -0.4053  0.0002
39830SOL    HW225454  10.483   0.207  10.947  1.0368  2.6563 -0.8063
39831SOL     OW25455  11.547   7.396   7.484 -0.4752 -0.4810 -0.4479
39831SOL    HW125456  11.480   7.355   7.539  0.7299 -1.0068  0.6562
39831SOL    HW225457  11.536   7.490   7.499  0.5987 -0.6322  1.6947
39832SOL     OW25458   5.673   6.454   3.558 -0.1193  0.3073 -0.0984
39832SOL    HW125459   5.705   6.543   3.540 -1.2850  0.7292 -0.1705
39832SOL    HW225460   5.627   6.429   3.478  0.8911 -0.6958 -0.3850
39833SOL     OW25461   4.710   0.839  11.485 -0.5041  0.3233 -0.0623
39833SOL    HW125462   4.717   0.911  11.422 -1.3352  0.0352 -0.4984
39833SOL    HW225463   4.624   0.800  11.468  0.4533 -1.6398 -0.7871
39834SOL     OW25464   6.029   1.875  10.663  0.3175 -0.3938 -0.0557
39834SOL    HW125465   5.993   1.787  10.647 -0.4526 -0.4010  1.5275
39834SOL    HW225466   6.047   1.876  10.757 -0.2691  1.3531  0.0628
39835SOL     OW25467   2.613   6.491   1.017 -0.4150  0.9509  0.1246
39835SOL    HW125468   2.561   6.543   0.956 -0.2689  2.3053  1.1251
39835SOL    HW225469   2.703   6.524   1.007 -0.0049 -0.2313 -0.3818
39836SOL     OW25470  10.190  10.168   5.255 -0.0019 -0.5002 -0.1259
39836SOL    HW125471  10.160  10.232   5.191  1.2444 -0.9690 -1.2087
39836SOL    HW225472  10.226  10.096   5.203  1.4079 -0.7138  1.0816
39837SOL     OW25473   7.885  11.134  10.459  0.3507  0.6157  0.2526
39837SOL    HW125474   7.872  11.177  10.374 -0.0004 -0.8469 -0.4686
39837SOL    HW225475   7.832  11.184  10.520  0.9181  1.9370 -0.3082
39838SOL     OW25476   9.243   7.013   4.413  0.6658  0.4785 -0.4165
39838SOL    HW125477   9.179   6.969   4.469  0.7609  0.8410 -0.0150
39838SOL    HW225478   9.206   7.009   4.325  0.7978 -0.6323 -0.4288
39839SOL     OW25479   1.998   2.741   0.464  0.4136  0.3342 -0.3871
39839SOL    HW125480   2.006   2.645   0.466  0.4725  0.3365  1.0266
39839SOL    HW225481   2.087   2.772   0.450  0.1428  0.1948 -2.7876
39840SOL     OW25482   6.481   1.018   1.332  0.6146  0.2845  0.1166
39840SOL    HW125483   6.461   1.043   1.242  2.0897  1.5435  0.0916
39840SOL    HW225484   6.473   0.922   1.332 -1.7248  0.4058 -0.7074
39841SOL     OW25485   8.237   4.430  10.530  0.0886  0.2769 -0.4034
39841SOL    HW125486   8.296   4.487  10.482  0.0575  0.7108  0.0671
39841SOL    HW225487   8.150   4.453  10.496  0.0762  0.5046 -0.2176
39842SOL     OW25488   1.068   3.291  11.424 -0.6660 -0.5862  0.1623
39842SOL    HW125489   1.108   3.376  11.402 -1.0133 -0.4581  0.0072
39842SOL    HW225490   1.048   3.252  11.339  0.2717 -1.2093  0.2144
39843SOL     OW25491   5.857  11.642  10.772  0.1926 -0.1064 -0.2365
39843SOL    HW125492   5.813  11.727  10.776 -0.8661 -0.6581  0.3424
39843SOL    HW225493   5.926  11.648  10.838 -0.5687 -0.0578  0.5826
39844SOL     OW25494   1.276   9.482   8.346 -0.1225  0.2886 -0.4556
39844SOL    HW125495   1.210   9.414   8.333 -0.2091  0.7558 -2.8845
39844SOL    HW225496   1.232   9.564   8.322  0.1675  1.1858  1.8013
39845SOL     OW25497   7.787   0.555   7.121 -0.3618 -0.6044 -0.2239
39845SOL    HW125498   7.723   0.623   7.102 -0.8399 -0.6763  1.0296
39845SOL    HW225499   7.869   0.589   7.086 -0.9186 -0.1571 -1.1403
39846SOL     OW25500   1.257   6.736   9.906  0.2991 -0.6126 -0.1738
39846SOL    HW125501   1.336   6.687   9.928  0.9839 -0.0083 -1.1812
39846SOL    HW225502   1.280   6.782   9.825 -1.3089 -0.9469 -0.8498
39847SOL     OW25503   7.667   5.183   5.532  0.1294  0.1024  0.1084
39847SOL    HW125504   7.706   5.266   5.505 -0.0531  0.3274  0.5296
39847SOL    HW225505   7.725   5.149   5.599  0.5527 -0.4314 -0.5132
39848SOL     OW25506   3.062   7.920   4.184  0.4286  0.3198  0.4181
39848SOL    HW125507   3.134   7.871   4.221 -0.6618 -0.4519  1.5789
39848SOL    HW225508   3.065   8.005   4.229 -0.4530 -0.3544  1.7905
39849SOL     OW25509   9.747   8.269  11.049 -0.6052 -0.1442 -0.5541
39849SOL    HW125510   9.806   8.304  10.982 -0.7894 -0.9661 -1.1644
39849SOL    HW225511   9.720   8.345  11.099  0.5421  0.3241 -0.6087
39850SOL     OW25512   2.314   4.055   8.656  0.3493 -0.4360 -0.3558
39850SOL    HW125513   2.237   4.059   8.601 -0.3990 -0.3623  0.6671
39850SOL    HW225514   2.310   3.969   8.697 -1.3718  0.9197  2.6803
39851SOL     OW25515   6.805  11.480   0.564 -0.1926 -0.1336 -0.0899
39851SOL    HW125516   6.743  11.520   0.502 -0.4037  0.0603  0.2443
39851SOL    HW225517   6.891  11.503   0.528 -0.3101  0.4178 -0.0377
39852SOL     OW25518   3.713   3.894   0.437  0.4398 -0.0937 -0.3531
39852SOL    HW125519   3.788   3.954   0.441  0.5339 -0.0882 -1.7287
39852SOL    HW225520   3.657   3.922   0.509  1.3394  0.4754  0.1564
39853SOL     OW25521   7.159   2.005   1.376  0.4422 -0.5368 -0.3991
39853SOL    HW125522   7.076   1.991   1.422 -0.2418 -1.6784 -1.9125
39853SOL    HW225523   7.216   1.935   1.409  1.0906  0.6590  1.1605
39854SOL     OW25524   5.660   4.101   4.863 -0.0079 -0.1760 -0.5049
39854SOL    HW125525   5.668   4.191   4.833  2.3294 -0.4392 -0.8979
39854SOL    HW225526   5.727   4.053   4.813 -0.1011 -1.8144  0.8347
39855SOL     OW25527   5.982   4.484   9.982  0.0559 -0.1590 -0.1075
39855SOL    HW125528   5.929   4.510   9.906 -0.1710 -0.2601  0.0134
39855SOL    HW225529   5.924   4.496  10.057  0.9873  2.1017  0.3336
39856SOL     OW25530   9.361   7.426  10.452 -0.1766  0.7034  0.4755
39856SOL    HW125531   9.336   7.480  10.528  0.4837 -0.0941  1.2850
39856SOL    HW225532   9.416   7.483  10.399 -1.4230  1.5860  0.0784
39857SOL     OW25533  10.669   6.121  10.004  0.1334  0.0004  0.0506
39857SOL    HW125534  10.639   6.184  10.069 -1.3447  1.6251 -2.0664
39857SOL    HW225535  10.607   6.048  10.011 -2.2728  1.7202 -1.7861
39858SOL     OW25536   4.546   3.682  10.949  0.2717 -0.0204  0.2781
39858SOL    HW125537   4.614   3.683  11.017 -1.1505 -0.0439  1.7652
39858SOL    HW225538   4.482   3.747  10.978 -1.0225 -0.9766 -0.3312
39859SOL     OW25539   3.218   0.987   2.187  0.2236  0.0504  0.6549
39859SOL    HW125540   3.182   1.034   2.112 -1.3552  0.0438  1.3537
39859SOL    HW225541   3.155   1.003   2.257  2.7905  2.0711  2.7330
39860SOL     OW25542   2.268   9.328  11.576 -0.4351 -0.3780  0.2171
39860SOL    HW125543   2.204   9.261  11.601 -0.7153 -0.1052  0.2496
39860SOL    HW225544   2.215   9.395  11.533 -0.2140 -0.0039  0.5243
39861SOL     OW25545  10.103  10.330   2.892  1.1433 -0.0613 -0.0542
39861SOL    HW125546  10.156  10.409   2.883  0.3627  0.5143  0.2896
39861SOL    HW225547  10.037  10.337   2.824 -0.2864  0.6997  1.3655
39862SOL     OW25548   9.984   6.024   6.946 -0.3001 -0.3393  0.0250
39862SOL    HW125549  10.007   5.934   6.924 -1.9932 -1.3399  1.9660
39862SOL    HW225550   9.995   6.073   6.865 -0.2328 -2.4783 -1.3162
39863SOL     OW25551   6.843   1.912   0.944  0.7354  0.2960  0.1986
39863SOL    HW125552   6.872   1.936   1.032  1.1431 -0.8473  0.4040
39863SOL    HW225553   6.859   1.817   0.939 -0.6276  0.0774 -0.5923
39864SOL     OW25554   8.571   9.810   5.559  0.7902  0.4267  0.0182
39864SOL    HW125555   8.620   9.870   5.615 -0.8534  1.6363  0.2544
39864SOL    HW225556   8.626   9.733   5.551  1.2327  0.3427  3.0426
39865SOL     OW25557   2.781   8.173   4.788  0.5481  0.3696 -0.0731
39865SOL    HW125558   2.853   8.128   4.833 -0.6506 -0.4804  1.0716
39865SOL    HW225559   2.705   8.117   4.802 -0.2644  1.0165 -1.6439
39866SOL     OW25560   8.183   8.240  10.474 -0.3181  0.3560  0.1178
39866SOL    HW125561   8.225   8.212  10.556  2.4939 -0.4605 -1.4758
39866SOL    HW225562   8.138   8.162  10.441 -2.1209  0.8852  1.1681
39867SOL     OW25563   6.545   7.662   7.722 -0.4296  0.3767  0.0604
39867SOL    HW125564   6.613   7.611   7.765 -0.3381 -0.0555 -0.5758
39867SOL    HW225565   6.555   7.750   7.757  0.7482  0.4239 -0.3460
39868SOL     OW25566   1.769   9.433   4.999  0.0972 -0.2308 -0.2872
39868SOL    HW125567   1.845   9.490   4.985  0.4641 -0.3902  0.9240
39868SOL    HW225568   1.699   9.474   4.948  0.2005  1.6402  0.9754
39869SOL     OW25569   1.530   0.272   8.509 -0.4249  0.3148  0.5817
39869SOL    HW125570   1.488   0.256   8.593  1.8071  0.7926  1.8750
39869SOL    HW225571   1.597   0.204   8.502 -1.5255 -0.6393 -1.5654
39870SOL     OW25572   2.292   0.742   4.522 -0.3336 -0.1041  0.3591
39870SOL    HW125573   2.223   0.685   4.490  0.9404 -0.7869 -1.3552
39870SOL    HW225574   2.356   0.682   4.562 -0.2108  0.3978  0.9272
39871SOL     OW25575   9.393  10.872   6.539  0.2361 -0.3757  0.1434
39871SOL    HW125576   9.430  10.851   6.625 -0.1304 -1.2982  0.0915
39871SOL    HW225577   9.422  10.799   6.483 -0.2340 -0.2233 -0.3062
39872SOL     OW25578  10.248   2.692   4.121  0.4630 -0.3672  0.0242
39872SOL    HW125579  10.162   2.651   4.121  0.7460 -1.1437 -2.6482
39872SOL    HW225580  10.261   2.720   4.031  2.7418  0.3595  0.5166
39873SOL     OW25581  11.473   1.637  11.044 -0.6942  0.0200 -0.3649
39873SOL    HW125582  11.523   1.713  11.013 -0.7645 -0.2844 -1.2361
39873SOL    HW225583  11.535   1.564  11.039  0.1847  0.3908  2.8299
39874SOL     OW25584   2.274   2.936   7.196 -0.5225 -0.5867  0.5393
39874SOL    HW125585   2.347   2.908   7.252  0.6047 -1.5318 -1.3059
39874SOL    HW225586   2.316   2.963   7.114 -2.1690 -0.0591 -0.1616
39875SOL     OW25587   5.690   0.535  10.804  0.1097  0.0267 -0.8483
39875SOL    HW125588   5.712   0.471  10.736  2.3893 -0.5853  0.3384
39875SOL    HW225589   5.648   0.482  10.873  0.1799  0.1681 -0.6976
39876SOL     OW25590  10.022   3.058   7.572 -0.1410  0.0178 -0.1094
39876SOL    HW125591   9.980   2.985   7.618  0.8059 -0.3135  0.2421
39876SOL    HW225592  10.116   3.042   7.581  0.0931  1.4396  0.2350
39877SOL     OW25593   9.134  10.083   4.624 -0.5979 -0.1267  0.0123
39877SOL    HW125594   9.188  10.069   4.547 -0.6821 -0.5957  0.0359
39877SOL    HW225595   9.191  10.061   4.698 -0.5532  0.2103  0.0802
39878SOL     OW25596   1.569   4.183   1.565 -0.1069  0.5412 -0.5264
39878SOL    HW125597   1.638   4.136   1.519 -0.6230  1.0007 -1.8271
39878SOL    HW225598   1.489   4.133   1.548  0.0035 -0.5581  1.8148
39879SOL     OW25599   0.623   8.732   8.093  0.1467  0.3499 -0.6061
39879SOL    HW125600   0.645   8.653   8.141 -1.4523  0.9664  1.2603
39879SOL    HW225601   0.580   8.701   8.013 -0.6842 -0.6689  0.2170
39880SOL     OW25602   4.563   9.823   7.582 -0.0345  0.2966  0.4028
39880SOL    HW125603   4.567   9.808   7.677  1.5967  0.1172  0.3253
39880SOL    HW225604   4.485   9.775   7.554 -0.4363  0.2001  1.6236
39881SOL     OW25605   8.191  11.933   5.386 -0.3896  0.4714 -0.2139
39881SOL    HW125606   8.262  11.910   5.446  0.6756 -0.1656 -1.6641
39881SOL    HW225607   8.127  11.863   5.395 -0.3048  0.4551  0.2635
39882SOL     OW25608   9.916   2.302  12.070  0.1802  0.5020 -0.5343
39882SOL    HW125609   9.850   2.368  12.093  0.2803  0.2480  0.5393
39882SOL    HW225610   9.898   2.281  11.979 -0.1221  1.7074 -0.7744
39883SOL     OW25611   2.386   5.460   3.831 -0.1430 -0.2038  0.6107
39883SOL    HW125612   2.401   5.435   3.740 -1.4528 -0.8548  0.5537
39883SOL    HW225613   2.304   5.508   3.829 -0.5555 -0.8479  1.5490
39884SOL     OW25614  11.379   6.760   8.381 -0.2295  0.0660 -0.0508
39884SOL    HW125615  11.471   6.767   8.357 -0.2960  2.2170  0.1262
39884SOL    HW225616  11.377   6.697   8.453  1.1643  0.3348  0.2524
39885SOL     OW25617   0.088   8.879  11.740  0.4200 -0.0843  0.1665
39885SOL    HW125618   0.176   8.911  11.759  1.1355 -1.8168 -0.0614
39885SOL    HW225619   0.030   8.950  11.768  1.9261  1.5797 -0.7981
39886SOL     OW25620   8.054  10.569  12.107 -0.1820  0.3334 -0.0040
39886SOL    HW125621   8.055  10.630  12.181 -0.6774 -1.3890  1.4825
39886SOL    HW225622   8.145  10.567  12.077  0.0374  1.0280  0.5822
39887SOL     OW25623   2.537   6.260   8.198  0.2920  0.1844  0.6365
39887SOL    HW125624   2.562   6.197   8.265  0.1724 -1.5644 -0.8815
39887SOL    HW225625   2.522   6.207   8.120  1.9119  2.2394 -1.2119
39888SOL     OW25626   6.696   4.811   4.379  0.1905  0.7572  0.1286
39888SOL    HW125627   6.646   4.869   4.436 -0.4640  0.5000 -0.1620
39888SOL    HW225628   6.775   4.790   4.428  0.9561  2.7051 -0.1636
39889SOL     OW25629   0.948   0.544   0.397  0.1682  0.7300  0.2684
39889SOL    HW125630   0.873   0.583   0.353 -0.5573  0.0906  0.8983
39889SOL    HW225631   0.943   0.451   0.375  0.3762  0.5700  0.8670
39890SOL     OW25632   3.707   2.481  12.086  0.1170 -0.3838 -0.6544
39890SOL    HW125633   3.755   2.462  12.006 -0.6450  1.6688 -1.6858
39890SOL    HW225634   3.699   2.397  12.131 -0.1488 -1.7724 -3.1333
39891SOL     OW25635   6.973   0.652   4.354  0.2246  0.0761 -0.1407
39891SOL    HW125636   6.886   0.662   4.393  0.0046 -0.5245 -0.4643
39891SOL    HW225637   7.006   0.741   4.347  0.5200  0.1908  1.9564
39892SOL     OW25638  12.137  11.871   5.280 -0.0144 -0.0210 -0.1915
39892SOL    HW125639  12.181  11.789   5.302 -1.4035 -0.4703  1.1091
39892SOL    HW225640  12.061  11.845   5.228  0.6937  0.6655 -1.6367
39893SOL     OW25641  10.012  11.129  10.408 -0.1262  0.3061 -0.0568
39893SOL    HW125642  10.069  11.081  10.466  0.5939  0.7903 -0.3508
39893SOL    HW225643   9.941  11.068  10.387  0.2841 -0.2976  0.3043
39894SOL     OW25644   6.319   8.555   3.408 -0.0042 -0.2200  0.3702
39894SOL    HW125645   6.380   8.522   3.342 -0.6803 -0.2946 -0.2264
39894SOL    HW225646   6.362   8.537   3.491  1.1544  0.4532 -0.0571
39895SOL     OW25647  10.376   9.129   4.195 -0.0977  0.1473  0.1622
39895SOL    HW125648  10.303   9.067   4.189 -0.0133 -0.0873  1.3522
39895SOL    HW225649  10.437   9.100   4.127  0.2925 -1.5763  1.1765
39896SOL     OW25650   7.259   0.971   2.303  0.4514 -0.1794  0.2597
39896SOL    HW125651   7.216   0.898   2.260  0.9585 -0.0487 -0.4879
39896SOL    HW225652   7.265   0.944   2.395  0.2798 -0.9023  0.0667
39897SOL     OW25653   7.004  11.503  11.368 -0.1794 -0.0880  0.1214
39897SOL    HW125654   7.095  11.523  11.346 -0.5140 -0.2863 -1.5466
39897SOL    HW225655   7.009  11.420  11.415  0.3597 -1.2916 -1.9164
39898SOL     OW25656   1.363   8.935  11.111  0.3520  0.4762 -0.1778
39898SOL    HW125657   1.391   8.936  11.019 -0.2242 -0.7446 -0.3916
39898SOL    HW225658   1.397   8.852  11.145 -0.8843  0.1260  0.2383
39899SOL     OW25659   1.480  11.885   0.356  0.0742  0.3813 -0.1246
39899SOL    HW125660   1.556  11.942   0.342 -0.2212  0.6045 -0.8801
39899SOL    HW225661   1.492  11.849   0.444  0.7579  0.8630 -0.0169
39900SOL     OW25662  11.448  11.781   3.522  0.2551  0.4860  0.5579
39900SOL    HW125663  11.354  11.797   3.532  0.4861  1.6938  1.0084
39900SOL    HW225664  11.477  11.758   3.611  0.2248 -0.8951  0.2296
39901SOL     OW25665   4.473   8.007  10.077 -0.6139  1.0430 -0.1417
39901SOL    HW125666   4.401   7.944  10.077  2.2237 -2.5120 -1.3876
39901SOL    HW225667   4.548   7.958  10.109  1.9317  3.6820 -1.6074
39902SOL     OW25668   5.956   4.151   5.065  0.0120 -0.5246  0.7292
39902SOL    HW125669   5.970   4.183   5.154 -1.9896 -1.8754  1.5989
39902SOL    HW225670   5.897   4.076   5.075  0.4412 -1.2784 -1.6678
39903SOL     OW25671   5.913   4.689   7.087  0.1611  0.3706 -0.4853
39903SOL    HW125672   5.826   4.682   7.126  0.7386  0.5570  0.9169
39903SOL    HW225673   5.970   4.642   7.148  0.8085 -1.4187 -2.3292
39904SOL     OW25674   3.630   2.194  10.643  0.1730 -0.0963  0.3119
39904SOL    HW125675   3.683   2.127  10.599 -0.2891  0.0340 -0.4766
39904SOL    HW225676   3.588   2.148  10.715 -0.6674 -0.8483 -0.6246
39905SOL     OW25677   7.126   9.093   6.503  0.3685  0.0952  0.0176
39905SOL    HW125678   7.147   9.018   6.446 -1.4250 -1.4778  1.2989
39905SOL    HW225679   7.041   9.124   6.472  0.6310  0.9677  0.1445
39906SOL     OW25680   1.047   2.016  10.055 -0.0614  0.5368 -0.0675
39906SOL    HW125681   1.084   2.004   9.967 -0.4061  0.9249 -0.2671
39906SOL    HW225682   1.122   2.041  10.109 -0.1755  2.3414 -0.6869
39907SOL     OW25683   1.508   7.250  12.407  0.3620  0.1430 -0.1368
39907SOL    HW125684   1.525   7.217  12.318  1.4526 -0.3225  0.2280
39907SOL    HW225685   1.595   7.256  12.447 -0.0541  1.0879  0.6502
39908SOL     OW25686   2.893   8.540   3.174 -0.4172  0.3263 -0.4985
39908SOL    HW125687   2.941   8.610   3.217 -0.0106 -0.3352  0.1459
39908SOL    HW225688   2.821   8.585   3.128  0.7923  1.3145 -1.4846
39909SOL     OW25689   8.902  11.084   6.589 -0.4841 -0.5788  0.1539
39909SOL    HW125690   8.846  11.090   6.512 -2.0383 -2.5970  1.0472
39909SOL    HW225691   8.885  10.998   6.625  0.5203  0.1303  2.5279
39910SOL     OW25692   9.587  11.022   2.835  0.1369 -0.0227  0.9129
39910SOL    HW125693   9.675  10.996   2.861  0.4251  0.6375  0.6181
39910SOL    HW225694   9.591  11.117   2.827 -0.4615 -0.0303  0.3868
39911SOL     OW25695   6.779   3.676  12.282 -0.1419 -0.0696  0.0545
39911SOL    HW125696   6.717   3.679  12.209 -0.5455 -2.0543  0.2560
39911SOL    HW225697   6.854   3.629  12.247  0.7676  1.2364  0.1864
39912SOL     OW25698   6.595   7.049   7.697 -0.7457 -0.0584 -0.2300
39912SOL    HW125699   6.656   7.008   7.636 -0.0502  1.0910 -0.3267
39912SOL    HW225700   6.630   7.029   7.784  0.1477  1.0987 -0.2921
39913SOL     OW25701   5.639   7.295   7.281  0.1519 -0.4202  0.2789
39913SOL    HW125702   5.654   7.275   7.373  0.7420  0.9459  0.5015
39913SOL    HW225703   5.554   7.338   7.278  0.2236 -0.2808  0.2169
39914SOL     OW25704  10.156   9.565   8.601 -0.5934  0.0354 -0.4366
39914SOL    HW125705  10.121   9.654   8.599 -1.2410 -0.1209  1.5559
39914SOL    HW225706  10.227   9.569   8.665 -2.6678 -1.4695  2.1880
39915SOL     OW25707   7.152  11.849   0.813  0.5654  0.0387 -0.1521
39915SOL    HW125708   7.135  11.775   0.754  0.3614  0.5521 -0.7531
39915SOL    HW225709   7.091  11.836   0.886  0.3369 -0.2377 -0.3891
39916SOL     OW25710  11.891   9.509   9.659  0.1895  0.2017 -0.0895
39916SOL    HW125711  11.848   9.446   9.601 -0.9243  0.9234 -0.0728
39916SOL    HW225712  11.977   9.523   9.620 -0.8536  1.3721 -2.1658
39917SOL     OW25713   9.101   0.548  10.249 -0.0056  0.1125 -0.3910
39917SOL    HW125714   9.190   0.550  10.285  0.0979  0.2627 -0.6442
39917SOL    HW225715   9.062   0.631  10.276 -0.2229 -0.1429  0.0908
39918SOL     OW25716   4.903   8.317   5.688 -0.0627 -0.3092 -0.1290
39918SOL    HW125717   4.937   8.406   5.694  0.0229 -0.2893 -0.8453
39918SOL    HW225718   4.982   8.262   5.685 -0.1136 -0.3903 -0.0062
39919SOL     OW25719   3.288   9.362   9.688 -0.2723  0.5904 -0.4875
39919SOL    HW125720   3.215   9.300   9.682 -1.0026  1.4532 -0.5649
39919SOL    HW225721   3.361   9.309   9.722 -1.3334  0.0511  1.0411
39920SOL     OW25722   2.961  12.439   7.611  0.6496 -0.0864  0.3371
39920SOL    HW125723   2.914  12.361   7.641  0.4478  0.2263  0.8470
39920SOL    HW225724   3.026  12.405   7.550  0.5698 -0.6586  0.5592
39921SOL     OW25725  12.287   5.773   9.337 -0.1866 -0.2108  0.3518
39921SOL    HW125726  12.356   5.721   9.378  0.5693  0.3166 -0.2327
39921SOL    HW225727  12.210   5.756   9.391  0.3784 -0.8495  0.9860
39922SOL     OW25728  12.482   9.594   8.727 -0.0716  0.0377 -0.2847
39922SOL    HW125729  12.457   9.686   8.739 -3.1776 -0.7551  0.3251
39922SOL    HW225730  12.465   9.577   8.635 -0.9464 -0.2397 -0.0880
39923SOL     OW25731   6.837   6.471   4.882  0.3618  0.2140  0.3466
39923SOL    HW125732   6.825   6.541   4.946  2.0505 -0.8070  1.8450
39923SOL    HW225733   6.763   6.412   4.895 -0.1443  0.8169  0.2435
39924SOL     OW25734   3.925   6.112   9.443  0.2521 -0.0696  0.5780
39924SOL    HW125735   3.940   6.181   9.378  0.6007 -0.2331  0.4782
39924SOL    HW225736   3.831   6.113   9.459  0.0459 -0.5411 -0.5094
39925SOL     OW25737   1.063   7.309   4.782  0.4489 -0.2078 -0.3608
39925SOL    HW125738   1.102   7.344   4.863 -2.4513  1.4413  0.4668
39925SOL    HW225739   1.059   7.384   4.723 -0.3497 -0.6138 -0.8433
39926SOL     OW25740   3.105   0.046   4.363 -0.0323  0.5280  0.1036
39926SOL    HW125741   3.061   0.075   4.443  0.9322  1.3135  0.3779
39926SOL    HW225742   3.182  -0.003   4.393 -0.6968 -0.8539 -0.3653
39927SOL     OW25743   6.368   6.816   0.734  0.0312 -0.0751  0.0976
39927SOL    HW125744   6.332   6.838   0.820  0.6686 -0.2284  0.4115
39927SOL    HW225745   6.347   6.891   0.679 -0.7858 -0.1705  0.2609
39928SOL     OW25746   3.861   6.305   8.594 -0.0855  0.2822  0.8955
39928SOL    HW125747   3.888   6.320   8.684  0.4387 -4.1815  1.7092
39928SOL    HW225748   3.943   6.295   8.545 -0.2816 -1.7158  0.9166
39929SOL     OW25749   4.690  10.551  12.189  0.0740  0.3476 -0.2573
39929SOL    HW125750   4.607  10.533  12.233  0.4216 -0.5012  0.0806
39929SOL    HW225751   4.736  10.467  12.189  0.6134  0.6233 -1.1282
39930SOL     OW25752   5.587   9.668   6.295 -0.0052  0.2450  0.0728
39930SOL    HW125753   5.613   9.717   6.217  2.0257 -0.8864 -0.0267
39930SOL    HW225754   5.571   9.579   6.264 -0.7575  0.1436  0.7109
39931SOL     OW25755   3.866  12.155   9.915 -0.1870  0.2388  0.0170
39931SOL    HW125756   3.892  12.153  10.007  0.6884 -1.0387 -0.2344
39931SOL    HW225757   3.841  12.065   9.896 -0.6348  0.5605 -0.9166
39932SOL     OW25758   1.897   7.388   3.357  0.3321 -0.7399 -0.7059
39932SOL    HW125759   1.893   7.366   3.451  0.8227 -0.3593 -0.5874
39932SOL    HW225760   1.859   7.475   3.351  0.1859 -0.8156 -0.8809
39933SOL     OW25761   2.570   8.909   1.102  0.1541 -0.0100 -0.1527
39933SOL    HW125762   2.517   8.863   1.037 -3.3183  0.2007  2.2453
39933SOL    HW225763   2.536   8.998   1.103  0.4343  0.1208  1.5546
39934SOL     OW25764   8.496   9.091   3.861  0.0107  0.4047  0.1635
39934SOL    HW125765   8.510   9.060   3.772 -1.9577  1.1328 -0.4637
39934SOL    HW225766   8.407   9.062   3.882  0.6632 -0.3008  2.1508
39935SOL     OW25767  11.301   8.865   9.234  0.0734 -0.0472  0.2162
39935SOL    HW125768  11.228   8.802   9.227 -1.5060  1.8027 -1.2317
39935SOL    HW225769  11.268   8.932   9.293  1.4342 -0.1687  1.1334
39936SOL     OW25770   7.051   0.339  12.307  0.0338  0.2678  0.4574
39936SOL    HW125771   6.991   0.276  12.348  1.6970 -0.2527  2.2526
39936SOL    HW225772   6.998   0.416  12.291 -1.2758 -0.3930  1.4040
39937SOL     OW25773   4.996   1.298   8.309 -0.6716 -0.4907 -0.1240
39937SOL    HW125774   4.969   1.217   8.267 -1.1010  0.2703 -1.3784
39937SOL    HW225775   5.049   1.343   8.243  0.0163  0.0087  0.7482
39938SOL     OW25776   7.082   0.301   0.518  0.2018  0.1702 -0.0735
39938SOL    HW125777   7.019   0.249   0.568 -0.2427  0.7384 -0.0201
39938SOL    HW225778   7.151   0.240   0.494 -0.3653 -0.4632 -0.1152
39939SOL     OW25779   6.174   9.439   1.633  1.4477 -0.0862  0.0879
39939SOL    HW125780   6.212   9.353   1.612  0.9420 -0.2693 -0.0888
39939SOL    HW225781   6.247   9.500   1.623  1.2673 -0.1355 -2.2888
39940SOL     OW25782   1.059   0.114   5.419  0.1456 -0.6322  0.7185
39940SOL    HW125783   1.082   0.021   5.415 -0.2988 -0.7115 -0.4900
39940SOL    HW225784   1.126   0.158   5.366 -0.8820 -0.5524 -0.5829
39941SOL     OW25785   3.460   5.356   7.488 -0.1124  0.2778 -0.6897
39941SOL    HW125786   3.387   5.397   7.440  0.2240  0.8206 -0.7471
39941SOL    HW225787   3.525   5.426   7.496  0.0670  0.0298  0.0742
39942SOL     OW25788   3.516   5.773  12.401 -0.2338  0.1897 -0.0416
39942SOL    HW125789   3.511   5.678  12.388 -2.9657  0.1728  0.4210
39942SOL    HW225790   3.503   5.785  12.495 -2.1269  1.0238 -0.3525
39943SOL     OW25791   0.803  12.153  12.130 -0.3109 -0.8324  0.1219
39943SOL    HW125792   0.847  12.207  12.065 -0.9650 -1.4171 -0.8324
39943SOL    HW225793   0.804  12.065  12.092 -0.7963 -1.1621  0.8552
39944SOL     OW25794   8.881   0.131   5.378  0.0422  0.2799 -0.7364
39944SOL    HW125795   8.827   0.115   5.455 -0.3054  1.9607 -0.5937
39944SOL    HW225796   8.866   0.054   5.322 -1.1386 -0.0978  0.0616
39945SOL     OW25797  10.992   8.218   6.924  0.1008  0.0537 -0.1124
39945SOL    HW125798  11.047   8.140   6.929  0.6060  0.4544  1.0931
39945SOL    HW225799  10.903   8.184   6.911  0.4257 -0.6763 -0.4628
39946SOL     OW25800  12.118  11.468   5.375  0.2378  0.3342  0.0498
39946SOL    HW125801  12.189  11.532   5.371 -0.3633  1.0095 -0.0599
39946SOL    HW225802  12.093  11.454   5.284  0.8180 -0.5846  0.0215
39947SOL     OW25803   2.272   7.238  11.122  0.0582 -0.4362  0.1913
39947SOL    HW125804   2.223   7.225  11.040  1.9181 -1.0299 -0.8887
39947SOL    HW225805   2.244   7.324  11.154  1.7711  1.4875 -2.9502
39948SOL     OW25806   2.336  11.323   9.067 -0.4067 -0.4514  0.0535
39948SOL    HW125807   2.380  11.284   9.142 -0.0526 -0.4856 -0.1693
39948SOL    HW225808   2.389  11.297   8.991 -0.8071 -0.4910 -0.2171
39949SOL     OW25809   3.621   2.514   5.540 -0.1546  0.0071  0.3405
39949SOL    HW125810   3.648   2.534   5.630  0.2545  0.0660  0.2099
39949SOL    HW225811   3.643   2.593   5.491 -0.2611 -0.0724  0.1666
39950SOL     OW25812   7.366   3.817   4.876 -0.3623  0.0046 -0.1031
39950SOL    HW125813   7.298   3.835   4.811 -0.8827 -0.4717  0.2988
39950SOL    HW225814   7.426   3.758   4.831 -0.3085  0.2819 -0.4024
39951SOL     OW25815   8.001  11.627  11.447  0.1149 -0.6726 -0.3540
39951SOL    HW125816   7.925  11.615  11.391 -0.3235 -0.4304  0.1822
39951SOL    HW225817   8.015  11.722  11.448 -0.6170 -0.5637  0.9071
39952SOL     OW25818  11.612   8.841   8.993 -0.2701  0.6141  0.2507
39952SOL    HW125819  11.555   8.837   8.916  0.2809 -1.2979 -0.0829
39952SOL    HW225820  11.560   8.890   9.058 -2.0631 -0.5432 -0.2501
39953SOL     OW25821   9.967  12.327   6.297 -0.1954 -0.3033  0.0078
39953SOL    HW125822   9.935  12.244   6.262 -2.7580  0.1331  1.1041
39953SOL    HW225823   9.956  12.389   6.225  0.5367 -0.6251 -0.3987
39954SOL     OW25824  11.843  11.789   9.426 -0.2521  0.1935 -0.0781
39954SOL    HW125825  11.780  11.850   9.389 -0.6225  0.6967  1.3222
39954SOL    HW225826  11.795  11.707   9.436 -0.4689  0.3624  0.2812
39955SOL     OW25827   0.621  11.747   6.916  0.5372 -0.0499  0.2613
39955SOL    HW125828   0.573  11.710   6.842  1.1666  0.7357 -0.5588
39955SOL    HW225829   0.567  11.820   6.946  0.5058 -0.0805  0.2779
39956SOL     OW25830   1.336   0.363   9.670  0.2242 -0.6891  0.1420
39956SOL    HW125831   1.247   0.383   9.697  0.4907  2.0571 -0.7132
39956SOL    HW225832   1.391   0.410   9.733  0.9642  0.1120 -1.0542
39957SOL     OW25833   3.866   0.592   0.988 -0.7308 -0.0768 -0.6208
39957SOL    HW125834   3.873   0.502   1.020 -0.3327 -0.4153 -1.6038
39957SOL    HW225835   3.788   0.627   1.031 -1.3660 -1.1624 -0.8395
39958SOL     OW25836   7.908   4.385   5.048 -0.2582  0.3888 -0.0915
39958SOL    HW125837   7.860   4.416   4.971 -0.3321 -0.2632 -0.3125
39958SOL    HW225838   7.853   4.409   5.123  0.0742  1.5286 -0.1906
39959SOL     OW25839  12.360  12.019   6.477  0.3480 -0.5293 -0.0931
39959SOL    HW125840  12.437  12.042   6.529 -0.9819  1.9613  0.9764
39959SOL    HW225841  12.388  12.031   6.386  2.5937 -4.5615 -0.1881
39960SOL     OW25842   1.699   2.700   1.478  0.0011 -0.5483 -0.0135
39960SOL    HW125843   1.685   2.605   1.474  0.7318 -0.6168 -1.5241
39960SOL    HW225844   1.618   2.738   1.445 -0.1491 -0.6554  0.2307
39961SOL     OW25845   7.966   4.120  11.457  0.2187  0.3261 -0.0915
39961SOL    HW125846   7.879   4.113  11.495  0.5087 -0.0025  0.5377
39961SOL    HW225847   7.951   4.131  11.363 -0.5118  1.1993  0.1222
39962SOL     OW25848  12.228   7.509   7.346 -0.3939 -0.0018 -0.3975
39962SOL    HW125849  12.283   7.459   7.286 -0.5689  0.4013 -0.9014
39962SOL    HW225850  12.149   7.455   7.355 -0.1155 -0.3495 -0.0553
39963SOL     OW25851   4.644  12.485   5.424  0.5497 -0.2071 -0.1664
39963SOL    HW125852   4.584  12.559   5.411  0.2046 -0.6972 -1.5093
39963SOL    HW225853   4.722  12.525   5.463 -0.3248  0.5625  0.8614
39964SOL     OW25854  10.523   6.871   7.970  0.0216 -0.5064  0.1825
39964SOL    HW125855  10.593   6.899   8.030 -0.6191 -0.6830  1.0283
39964SOL    HW225856  10.553   6.900   7.884  0.3578  0.9217  0.7494
39965SOL     OW25857   6.553   1.888   0.432 -0.1174 -0.5249  0.3917
39965SOL    HW125858   6.563   1.947   0.357  0.3811  2.2578  2.5097
39965SOL    HW225859   6.461   1.863   0.430 -1.2385  2.9948  1.1364
39966SOL     OW25860   8.622   3.561   4.973 -0.1504 -0.1583 -0.6233
39966SOL    HW125861   8.661   3.617   4.906 -2.1178  1.0851 -0.8143
39966SOL    HW225862   8.696   3.514   5.011  1.4088  1.4940 -1.4526
39967SOL     OW25863   6.730   4.852   5.586  0.1581  0.1480 -0.2180
39967SOL    HW125864   6.677   4.808   5.653 -0.1112  0.1625 -0.4237
39967SOL    HW225865   6.683   4.837   5.504 -0.4473  1.6180 -0.1738
39968SOL     OW25866  11.367   6.693   2.573 -0.3440 -0.1383  0.0012
39968SOL    HW125867  11.396   6.604   2.553  0.9597  0.4018 -0.6441
39968SOL    HW225868  11.410   6.748   2.507 -1.0860  0.9860  0.4086
39969SOL     OW25869   9.869   8.980  11.972  0.4897 -0.2017  0.0902
39969SOL    HW125870   9.864   9.030  12.054 -0.4710  0.9465 -0.6488
39969SOL    HW225871   9.963   8.980  11.950  0.8357 -0.9791  1.4418
39970SOL     OW25872  12.202   3.400   4.891  0.0094 -0.2391 -0.4862
39970SOL    HW125873  12.129   3.370   4.945  0.2040 -0.9173 -0.5846
39970SOL    HW225874  12.280   3.385   4.944  0.1773 -0.6419 -0.8393
39971SOL     OW25875   7.603   4.716   6.196  0.5026 -0.3468 -0.0224
39971SOL    HW125876   7.537   4.781   6.169  2.0002  0.7832 -1.1436
39971SOL    HW225877   7.669   4.719   6.127  0.9338 -2.6676  0.2226
39972SOL     OW25878   1.291   1.946   1.598  0.1670  0.3733  0.5458
39972SOL    HW125879   1.363   1.964   1.658 -0.0107 -0.5418  1.0603
39972SOL    HW225880   1.314   1.992   1.517  1.4662 -0.1348  0.6079
39973SOL     OW25881   8.705   9.344   4.287  0.2536 -0.0129 -0.0505
39973SOL    HW125882   8.685   9.313   4.198  2.1771  1.4980 -1.0817
39973SOL    HW225883   8.670   9.433   4.289  1.5483  0.5133  0.1331
39974SOL     OW25884   1.433   5.758   5.226  0.0478 -0.1872  0.0595
39974SOL    HW125885   1.493   5.833   5.225 -0.7979  0.5287 -1.2901
39974SOL    HW225886   1.456   5.710   5.305 -0.3388  2.2885  1.7917
39975SOL     OW25887   4.742  10.859  10.922  0.2722 -0.7878  0.3053
39975SOL    HW125888   4.754  10.838  11.015  0.5878  0.0957  0.4720
39975SOL    HW225889   4.648  10.871  10.912  0.2589 -0.6680  0.5646
39976SOL     OW25890  12.473   2.951   2.872  0.0967  0.2784  0.1162
39976SOL    HW125891  12.528   2.880   2.840 -0.3199  0.0124 -0.0209
39976SOL    HW225892  12.406   2.907   2.925 -0.2726  0.5493 -0.1198
39977SOL     OW25893   2.530   8.065   9.368  0.4659  0.0409 -0.1526
39977SOL    HW125894   2.605   8.082   9.425  0.6662  1.4190 -0.7744
39977SOL    HW225895   2.453   8.083   9.423  0.5843 -0.9458  0.3558
39978SOL     OW25896   3.664   0.721   1.098  0.2053  0.2514  0.0607
39978SOL    HW125897   3.674   0.816   1.089 -0.2963  0.2932 -0.0673
39978SOL    HW225898   3.608   0.696   1.025  1.9754 -0.4475 -1.1305
39979SOL     OW25899   1.884   6.717  12.247  0.3282 -0.2576 -0.5470
39979SOL    HW125900   1.838   6.701  12.330  0.0996 -0.9016 -0.7895
39979SOL    HW225901   1.916   6.807  12.254  1.8874 -0.8728  1.0011
39980SOL     OW25902   1.877  11.766   8.420  0.6031 -0.7855  0.2952
39980SOL    HW125903   1.849  11.676   8.405 -1.5201  0.0868 -1.3281
39980SOL    HW225904   1.865  11.779   8.514  1.2404 -2.2406  0.6176
39981SOL     OW25905   4.059  11.193  10.226  0.4725  0.5838 -0.5805
39981SOL    HW125906   4.118  11.267  10.214 -3.0414  3.8417  0.3324
39981SOL    HW225907   4.034  11.197  10.319  0.4887 -2.1243 -0.3788
39982SOL     OW25908   8.905   0.295   4.149 -0.3648 -0.1571 -0.3224
39982SOL    HW125909   8.879   0.387   4.139  0.3153  0.1904  0.9541
39982SOL    HW225910   8.962   0.279   4.074  0.9167  1.0094  0.3444
39983SOL     OW25911   4.418   9.125   0.440  0.6325  0.0816 -0.1545
39983SOL    HW125912   4.323   9.108   0.439 -0.1575  3.7164 -2.1674
39983SOL    HW225913   4.441   9.137   0.348  3.0121 -0.2447  0.3539
39984SOL     OW25914   0.098   8.970   3.760 -0.0836  0.4663 -0.0040
39984SOL    HW125915   0.013   8.966   3.718  0.3246  2.2022 -1.0768
39984SOL    HW225916   0.138   8.884   3.743 -1.8906 -0.6699  1.2204
39985SOL     OW25917   5.737   6.298   1.222  0.2860  0.1679 -0.2565
39985SOL    HW125918   5.655   6.328   1.262 -0.2336 -1.3740 -0.0899
39985SOL    HW225919   5.712   6.221   1.172  1.7169 -0.6367  0.2059
39986SOL     OW25920   5.174   7.308   6.058 -0.2567 -0.9380 -0.4925
39986SOL    HW125921   5.102   7.281   6.116 -0.9905  0.9726 -0.4413
39986SOL    HW225922   5.231   7.360   6.114  0.4162 -1.2577 -0.8803
39987SOL     OW25923   1.124   2.094   7.045 -0.0604  0.4147 -0.2508
39987SOL    HW125924   1.215   2.067   7.032  0.2411  1.0172  0.4872
39987SOL    HW225925   1.114   2.173   6.993 -0.4653 -0.2056 -1.1285
39988SOL     OW25926   0.454   7.082   7.379  0.2301  0.0144  0.2296
39988SOL    HW125927   0.404   7.148   7.428  0.0629  0.2164 -0.2122
39988SOL    HW225928   0.399   7.004   7.381 -0.6803  0.5705 -1.2726
39989SOL     OW25929   0.567   7.457  11.789 -0.4271 -0.0377 -0.2121
39989SOL    HW125930   0.606   7.375  11.821  0.2891  0.2745 -0.2817
39989SOL    HW225931   0.500   7.429  11.727 -1.3646 -0.6390  1.0306
39990SOL     OW25932   7.767  10.945  11.986  0.6144 -0.1540  0.2654
39990SOL    HW125933   7.832  10.964  11.919  0.1122 -0.6763 -0.3893
39990SOL    HW225934   7.799  10.865  12.028  0.8502  0.0873  0.5452
39991SOL     OW25935   5.972  11.587   6.348 -0.1920  0.3449  0.3142
39991SOL    HW125936   5.900  11.535   6.313 -1.1977  0.8147  1.6234
39991SOL    HW225937   5.936  11.675   6.357 -0.2096  0.1370  3.0360
39992SOL     OW25938   9.455   7.925  12.362  0.4362 -0.8187  0.5908
39992SOL    HW125939   9.371   7.947  12.321  0.2685  1.7729  2.0918
39992SOL    HW225940   9.520   7.942  12.293 -0.0640  0.4342  0.3938
39993SOL     OW25941   9.515   4.222   9.793 -0.4575  0.5007 -0.1915
39993SOL    HW125942   9.585   4.281   9.767 -0.3793  0.3935 -0.2255
39993SOL    HW225943   9.469   4.268   9.863 -0.7174  0.8258 -0.5739
39994SOL     OW25944  12.196   2.364  10.255 -0.0869 -0.1800  0.3152
39994SOL    HW125945  12.194   2.375  10.159  2.0710 -0.5884  0.1687
39994SOL    HW225946  12.276   2.315  10.271 -0.2157  0.2218  2.3892
39995SOL     OW25947  12.147   7.361  10.208  0.2839  0.2840 -0.0569
39995SOL    HW125948  12.084   7.307  10.160 -0.4850  0.9572  0.1586
39995SOL    HW225949  12.202   7.299  10.254  1.0926 -0.3924 -1.8304
39996SOL     OW25950   6.347   9.321   8.051  0.4998 -0.0120  0.5266
39996SOL    HW125951   6.301   9.244   8.086  2.5244 -2.2663 -1.3596
39996SOL    HW225952   6.436   9.312   8.085  0.8863  1.2741 -0.1111
39997SOL     OW25953   9.996   8.513   6.155  0.3749  0.0317 -0.2491
39997SOL    HW125954   9.932   8.441   6.155  0.8523 -0.4178  0.6878
39997SOL    HW225955   9.957   8.578   6.213  1.5484 -1.0184  1.8328
39998SOL     OW25956   0.712   6.933   1.275  0.0962  0.4162 -0.1607
39998SOL    HW125957   0.690   6.885   1.354  1.0312 -0.6224 -0.4974
39998SOL    HW225958   0.733   7.021   1.305 -0.8622  0.4069  0.5700
39999SOL     OW25959   9.981   5.561   1.622 -0.0625  0.1115  0.3217
39999SOL    HW125960  10.010   5.637   1.571 -0.5023 -0.3723 -0.6898
39999SOL    HW225961   9.990   5.487   1.561  0.1366 -0.6152  1.2144
40000SOL     OW25962   6.896  11.855  11.178  0.0194  0.2312 -0.0434
40000SOL    HW125963   6.825  11.918  11.163  1.3845  2.4488  1.9549
40000SOL    HW225964   6.857  11.789  11.236 -1.0731 -0.0197 -1.0346
40001SOL     OW25965   2.352   6.283  11.882  0.1781 -0.6997  0.2396
40001SOL    HW125966   2.277   6.237  11.918  0.7199 -0.1106  2.2558
40001SOL    HW225967   2.413   6.291  11.955  0.7073  1.9257 -0.3630
40002SOL     OW25968  12.340   0.215   1.863  0.1867 -0.1683 -0.2771
40002SOL    HW125969  12.253   0.256   1.864 -0.5206 -1.5172 -1.6009
40002SOL    HW225970  12.373   0.226   1.952 -1.7728 -0.5028  0.5560
40003SOL     OW25971   2.450  11.744   6.947 -0.6130  0.2516 -0.4034
40003SOL    HW125972   2.465  11.665   6.895  2.7037  0.2312  0.3614
40003SOL    HW225973   2.447  11.815   6.882 -0.0558 -0.1379 -0.8711
40004SOL     OW25974   5.708   6.178   2.155 -0.1496 -0.3568  0.2539
40004SOL    HW125975   5.756   6.111   2.107  1.6100  0.4560  0.7879
40004SOL    HW225976   5.681   6.134   2.235  0.1132 -0.7162  0.1515
40005SOL     OW25977  12.306   6.375  10.496  0.3009 -0.0567  0.1086
40005SOL    HW125978  12.379   6.419  10.452 -0.7202  1.0424 -0.5281
40005SOL    HW225979  12.330   6.283  10.494  2.0087  0.3351  0.5405
40006SOL     OW25980   1.860   4.578   8.721 -0.5439  0.3651  0.0597
40006SOL    HW125981   1.930   4.532   8.676 -1.2314 -0.0761 -0.5654
40006SOL    HW225982   1.887   4.670   8.718  1.1835 -0.0082  1.9380
40007SOL     OW25983  10.502   0.574   5.545 -0.4142 -0.1339 -0.3580
40007SOL    HW125984  10.512   0.583   5.450 -1.8240  0.2337 -0.4910
40007SOL    HW225985  10.408   0.573   5.559 -0.2222  0.3539  1.1024
40008SOL     OW25986   5.141  12.463  10.297 -0.7266  0.4654 -0.1563
40008SOL    HW125987   5.200  12.536  10.280 -0.7565  0.1783 -1.6561
40008SOL    HW225988   5.132  12.419  10.212 -0.7396 -1.2582  0.6863
40009SOL     OW25989   7.467   1.109   2.636 -0.4462  0.4028  0.3815
40009SOL    HW125990   7.421   1.179   2.682  0.9010  1.2692  0.4424
40009SOL    HW225991   7.529   1.154   2.578  0.2630 -0.7247  0.2313
40010SOL     OW25992   5.285   0.765   8.200  0.1161  1.1520 -0.0222
40010SOL    HW125993   5.197   0.738   8.175  0.4523  2.1720 -2.5592
40010SOL    HW225994   5.271   0.833   8.266 -0.9332  0.4501  0.5031
40011SOL     OW25995   3.353   7.516   8.980  0.0297  0.3910  0.1617
40011SOL    HW125996   3.328   7.454   8.911  0.8695  1.5164 -1.2073
40011SOL    HW225997   3.431   7.477   9.020 -1.7813 -1.4226  2.1250
40012SOL     OW25998   8.326  11.209   4.740 -0.0178  0.6576  0.6186
40012SOL    HW125999   8.358  11.234   4.653 -0.6121 -1.9569 -0.4489
40012SOL    HW226000   8.231  11.203   4.730 -0.0712  0.0867  1.3743
40013SOL     OW26001  12.077  11.377   4.064 -0.5202 -0.3753  0.2134
40013SOL    HW126002  11.987  11.391   4.034 -1.0255  1.7006  2.3963
40013SOL    HW226003  12.119  11.463   4.056  0.5793 -0.7824  1.2880
40014SOL     OW26004  11.654   1.287   8.912  0.0230 -0.2123  0.0266
40014SOL    HW126005  11.580   1.348   8.906 -0.2338 -0.6208 -1.0918
40014SOL    HW226006  11.730   1.339   8.884 -0.0465 -0.1691 -0.0792
40015SOL     OW26007  10.341   2.536  10.350 -0.2178 -0.5485  0.1851
40015SOL    HW126008  10.311   2.504  10.265 -1.7471  0.3955  0.3280
40015SOL    HW226009  10.286   2.491  10.413 -0.3026  0.0904  0.5677
40016SOL     OW26010   5.958   4.585   4.227 -0.6548 -0.1303 -0.1892
40016SOL    HW126011   5.889   4.651   4.233 -0.0962  0.3953  0.5331
40016SOL    HW226012   5.956   4.540   4.311  0.7394  0.7693  0.3672
40017SOL     OW26013   2.314   9.401   1.903 -0.1651 -0.2516  0.3675
40017SOL    HW126014   2.237   9.392   1.959 -0.6363  1.2265 -0.0131
40017SOL    HW226015   2.389   9.396   1.963 -0.4760 -2.2529  0.6816
40018SOL     OW26016   2.855  10.284   4.987 -0.3238  0.3529 -0.3564
40018SOL    HW126017   2.879  10.250   4.901 -0.8318 -0.8145 -0.0534
40018SOL    HW226018   2.872  10.212   5.047 -0.6727  0.9117  0.4296
40019SOL     OW26019   9.045   6.626   1.724  0.0525 -0.2679 -0.2725
40019SOL    HW126020   9.128   6.606   1.767  0.1536 -1.1645 -0.8418
40019SOL    HW226021   8.978   6.603   1.789  0.2386  0.2522  0.1092
40020SOL     OW26022   7.309  11.210  11.559 -0.5688  0.2122  0.7602
40020SOL    HW126023   7.221  11.207  11.523 -0.5235 -3.7861  0.5846
40020SOL    HW226024   7.364  11.167  11.493  1.8111  3.3697  0.4494
40021SOL     OW26025   5.851   6.614   7.488  0.7478 -0.0098 -0.1744
40021SOL    HW126026   5.817   6.672   7.556 -0.0822 -1.8201  1.0354
40021SOL    HW226027   5.776   6.598   7.430  1.1317  0.5522 -0.8512
40022SOL     OW26028   8.460   6.785   1.634  0.2934 -0.3262 -0.3713
40022SOL    HW126029   8.442   6.765   1.542 -0.5320  0.1068 -0.3134
40022SOL    HW226030   8.529   6.852   1.631 -0.4134  0.4062 -0.7167
40023SOL     OW26031  11.886   4.780   9.974 -0.2519 -0.0663 -0.7606
40023SOL    HW126032  11.827   4.849  10.005  1.5162  1.0822  0.1611
40023SOL    HW226033  11.946   4.825   9.915  1.0934 -0.7449  0.0535
40024SOL     OW26034   9.123   1.701   2.421  0.5592  0.2158  0.8309
40024SOL    HW126035   9.123   1.677   2.513 -0.5444 -2.4132  0.2208
40024SOL    HW226036   9.055   1.646   2.381  0.4113  1.8671 -1.4260
40025SOL     OW26037   2.110   1.983   6.477  0.5780 -0.2187 -0.3044
40025SOL    HW126038   2.040   1.921   6.455 -2.0906  2.5816 -0.4496
40025SOL    HW226039   2.127   1.968   6.570 -1.5463  0.1454  0.2008
40026SOL     OW26040   0.504  10.560   7.004 -0.1181 -0.1797 -1.0167
40026SOL    HW126041   0.494  10.526   6.915 -0.3224  1.2363 -1.5607
40026SOL    HW226042   0.452  10.500   7.059 -0.1408 -0.9578 -1.8645
40027SOL     OW26043   7.455   3.994   4.019  0.0637 -0.2400 -0.1159
40027SOL    HW126044   7.471   4.051   4.095  0.2377  2.3473 -1.9558
40027SOL    HW226045   7.364   3.966   4.029 -0.4337  1.3811  0.3002
40028SOL     OW26046   5.429  10.966  11.600  0.0554  0.1427  0.1962
40028SOL    HW126047   5.477  10.892  11.563  0.5436 -0.1838  1.4282
40028SOL    HW226048   5.484  10.996  11.673 -0.1694  1.6745 -0.2146
40029SOL     OW26049   1.886   6.269   5.086 -0.6595 -0.4972 -0.0588
40029SOL    HW126050   1.794   6.293   5.087 -1.0042 -1.8044  0.7561
40029SOL    HW226051   1.924   6.319   5.158 -0.4925  0.8080 -1.0027
40030SOL     OW26052   8.574   2.473   8.532  0.2300 -0.3119  0.0535
40030SOL    HW126053   8.639   2.428   8.478 -1.4078 -0.6850 -1.7028
40030SOL    HW226054   8.619   2.552   8.563  1.3968 -0.3414 -1.4593
40031SOL     OW26055   8.299   1.771   1.719  0.3340 -0.4034  0.3245
40031SOL    HW126056   8.353   1.699   1.752  2.2786  0.5942 -0.4755
40031SOL    HW226057   8.338   1.849   1.759 -0.1127  0.4122 -0.8027
40032SOL     OW26058   5.018   5.329  10.662 -0.1763 -0.5249  0.0998
40032SOL    HW126059   4.931   5.363  10.643 -0.3950 -1.8122 -1.3553
40032SOL    HW226060   5.072   5.361  10.590 -0.1030 -2.0782 -0.5757
40033SOL     OW26061  11.436   5.037   3.993 -0.6432 -0.1366  0.1610
40033SOL    HW126062  11.499   5.014   4.062  0.2510  1.1567 -0.1976
40033SOL    HW226063  11.357   4.986   4.015  0.2876 -1.2670  0.9984
40034SOL     OW26064  12.034   9.125   3.904 -0.6072  0.4598  0.7519
40034SOL    HW126065  12.019   9.219   3.898 -0.6321  0.3786 -0.7958
40034SOL    HW226066  11.954   9.085   3.870  0.1783 -0.0804 -0.4964
40035SOL     OW26067   4.428   8.687   1.503 -0.1589 -0.1727  0.2033
40035SOL    HW126068   4.524   8.694   1.506 -0.1277 -0.8447  1.0848
40035SOL    HW226069   4.400   8.708   1.591 -0.8697  0.4112 -0.1532
40036SOL     OW26070   5.843  10.601   4.383 -0.1788 -0.0873 -0.7008
40036SOL    HW126071   5.865  10.559   4.300  0.3034 -1.3637  0.0432
40036SOL    HW226072   5.849  10.695   4.365  0.6873 -0.3528 -1.9107
40037SOL     OW26073   0.153   0.186   8.657  0.1820 -0.5419 -0.2921
40037SOL    HW126074   0.060   0.187   8.676  0.4226  1.3269  1.0389
40037SOL    HW226075   0.194   0.148   8.735  0.7117  1.3325  0.3922
40038SOL     OW26076  10.746  10.869   1.937  0.1330 -0.1413 -0.3189
40038SOL    HW126077  10.675  10.925   1.968 -0.0097 -0.1586 -0.6100
40038SOL    HW226078  10.739  10.872   1.842  0.5452 -0.1157 -0.3476
40039SOL     OW26079   5.517   1.600   6.975 -0.4154 -0.2968 -0.1776
40039SOL    HW126080   5.575   1.526   6.952  2.2383  1.9807 -1.3934
40039SOL    HW226081   5.450   1.600   6.906  1.2705  0.0841 -1.9233
40040SOL     OW26082   5.806   5.099   5.116  0.0030  0.0401 -0.4089
40040SOL    HW126083   5.801   5.126   5.208  2.0538  0.7767 -0.4689
40040SOL    HW226084   5.763   5.013   5.115 -1.7031  0.8099  0.8462
40041SOL     OW26085   5.251   5.365  11.283 -0.4152  0.5577  0.9912
40041SOL    HW126086   5.257   5.406  11.370  0.2674  0.4292  1.0141
40041SOL    HW226087   5.245   5.439  11.223  4.1745  1.0587  0.7289
40042SOL     OW26088   4.818   7.080   0.781  0.4676 -0.4401  1.0248
40042SOL    HW126089   4.885   7.148   0.787  3.2480 -2.7707 -0.9382
40042SOL    HW226090   4.862   7.000   0.810 -1.3859 -2.1484 -0.5381
40043SOL     OW26091   9.094   3.571   8.179  0.1333  0.5089  0.0768
40043SOL    HW126092   9.110   3.480   8.152  0.4610  0.4636  0.4103
40043SOL    HW226093   9.104   3.569   8.274  1.0342  1.0686  0.0099
40044SOL     OW26094   8.932   6.661   6.811 -0.2984 -0.0476 -0.1060
40044SOL    HW126095   8.937   6.730   6.877 -1.2601 -1.3312  1.3734
40044SOL    HW226096   8.878   6.698   6.741  1.1515  1.5140 -0.4631
40045SOL     OW26097  12.352   5.332   2.356  0.4049  0.9081  0.0608
40045SOL    HW126098  12.329   5.256   2.302 -0.8567  1.8086 -0.7173
40045SOL    HW226099  12.448   5.331   2.359  0.4397 -0.0987 -0.8358
40046SOL     OW26100   6.755   2.967   8.201 -0.4151 -0.0156 -0.3002
40046SOL    HW126101   6.836   2.928   8.233 -1.9873 -3.2170  0.1609
40046SOL    HW226102   6.768   2.977   8.107  0.2749 -1.2441 -0.3600
40047SOL     OW26103   3.278   4.529   6.146  0.1423 -0.2925  0.1289
40047SOL    HW126104   3.201   4.586   6.149 -0.8060 -1.5202 -0.1397
40047SOL    HW226105   3.271   4.475   6.225  0.5100 -0.6672 -0.0894
40048SOL     OW26106  11.839   9.809   0.428  0.8510 -0.2491 -0.1016
40048SOL    HW126107  11.899   9.831   0.356 -0.3990  1.0657 -0.7953
40048SOL    HW226108  11.786   9.888   0.440  0.1392 -0.9138  1.3809
40049SOL     OW26109   4.586   2.664   1.646 -0.1397  0.5939 -0.5540
40049SOL    HW126110   4.587   2.586   1.700  2.0828  0.0754 -1.2353
40049SOL    HW226111   4.510   2.653   1.589 -0.5812 -0.4593  0.2165
40050SOL     OW26112   6.072   9.937  12.035  0.1039  0.0272  0.1182
40050SOL    HW126113   6.097   9.878  12.107 -0.5571  0.8481  1.0492
40050SOL    HW226114   6.026   9.881  11.973  0.0272 -0.5585  0.6946
40051SOL     OW26115   4.011   4.096  10.170  0.0443  0.3326 -0.1075
40051SOL    HW126116   4.049   4.081  10.083 -2.5557  0.0440 -1.2818
40051SOL    HW226117   3.978   4.186  10.166 -0.9812 -0.0188  0.1953
40052SOL     OW26118   8.913   7.405  10.204 -0.1664  0.5181  0.1028
40052SOL    HW126119   8.972   7.423  10.130  1.1909 -0.4987  0.8904
40052SOL    HW226120   8.936   7.316  10.232 -0.8298  0.7837  1.5888
40053SOL     OW26121   9.861   4.018  11.018 -0.0497  0.7166 -0.0710
40053SOL    HW126122   9.788   4.052  11.069  0.3076 -0.2674  1.1544
40053SOL    HW226123   9.852   4.058  10.932 -2.5552 -0.0846 -0.2481
40054SOL     OW26124   8.272   4.350   2.610 -0.3251 -0.0136  0.0147
40054SOL    HW126125   8.362   4.361   2.578 -0.1441 -1.9785 -0.2356
40054SOL    HW226126   8.222   4.322   2.533 -1.4562  2.1956 -0.1321
40055SOL     OW26127  12.342   8.020   1.423  0.5294 -0.4361  0.4248
40055SOL    HW126128  12.437   8.024   1.418  0.5821  0.3044  1.6607
40055SOL    HW226129  12.323   7.946   1.481  0.3861 -0.1331  0.7723
40056SOL     OW26130   6.928   4.497   7.142 -0.3870  0.0678 -0.3294
40056SOL    HW126131   6.937   4.554   7.066  0.8939 -1.4554 -1.3991
40056SOL    HW226132   6.834   4.477   7.146 -0.8227  1.9940 -0.0633
40057SOL     OW26133   3.049   1.814  12.296 -0.0193  0.0106 -0.1464
40057SOL    HW126134   3.004   1.729  12.297 -1.2388  0.6267 -0.3509
40057SOL    HW226135   2.979   1.878  12.310  0.8145  1.0116 -0.4479
40058SOL     OW26136   0.189  11.325  11.281 -0.1566  0.1717  0.1847
40058SOL    HW126137   0.099  11.294  11.289 -0.2258  0.2212 -0.3325
40058SOL    HW226138   0.221  11.283  11.201  0.7778 -1.0655  1.1593
40059SOL     OW26139   4.760   6.839   7.919 -1.0312 -0.1563 -0.3055
40059SOL    HW126140   4.809   6.861   7.999 -2.4153 -0.1418  0.5620
40059SOL    HW226141   4.668   6.849   7.943 -1.4609  1.0592 -2.2694
40060SOL     OW26142   0.481   9.242   5.210  0.3103  0.3246 -0.8335
40060SOL    HW126143   0.491   9.327   5.167 -0.6229  0.8082 -0.1351
40060SOL    HW226144   0.558   9.192   5.183  1.8698  2.0263  0.2282
40061SOL     OW26145   4.691  10.398   3.494  0.6449  0.3223 -0.0500
40061SOL    HW126146   4.616  10.439   3.539 -0.3121 -1.6323  0.2302
40061SOL    HW226147   4.655  10.370   3.410  1.6077  1.0979 -0.7378
40062SOL     OW26148   1.551   6.991   9.745  0.6510  0.2585 -0.4837
40062SOL    HW126149   1.578   6.920   9.803  0.7094 -0.5484 -1.4863
40062SOL    HW226150   1.622   7.055   9.751  0.7536  0.0943  0.1625
40063SOL     OW26151   9.167   3.868   9.088 -0.9918 -0.5064 -0.1559
40063SOL    HW126152   9.223   3.878   9.164  1.0878 -1.2716 -1.5168
40063SOL    HW226153   9.136   3.957   9.070 -0.6942 -0.1606  0.9542
40064SOL     OW26154  12.007   7.678   4.488  0.1374  0.0338  0.1884
40064SOL    HW126155  12.083   7.730   4.461 -0.0515  0.6587  0.8219
40064SOL    HW226156  11.942   7.693   4.419 -1.0067  3.0651  1.7300
40065SOL     OW26157  10.080   1.393  12.449  0.2941 -0.1016  0.0501
40065SOL    HW126158  10.173   1.395  12.472  0.2199  1.1787  0.2874
40065SOL    HW226159  10.074   1.443  12.368 -0.3566  0.9573  0.7283
40066SOL     OW26160   0.362   4.039   0.539 -0.6479  0.1054  0.1450
40066SOL    HW126161   0.351   4.134   0.544  0.6761  0.3807 -1.4122
40066SOL    HW226162   0.413   4.025   0.460  0.2802 -1.8208  1.0211
40067SOL     OW26163   0.173   9.325   0.828  0.4530  0.1594  0.7356
40067SOL    HW126164   0.119   9.265   0.778 -0.7424  0.1971  1.9218
40067SOL    HW226165   0.257   9.281   0.838 -0.8347 -2.0811  2.8665
40068SOL     OW26166   2.467   1.732  11.161 -0.0603  0.1363 -0.0424
40068SOL    HW126167   2.447   1.749  11.253 -1.3784 -1.1518 -0.0525
40068SOL    HW226168   2.448   1.815  11.117 -2.0034  0.0160  0.4907
40069SOL     OW26169  11.895   6.279  10.588  0.4218  0.6348 -0.2103
40069SOL    HW126170  11.972   6.293  10.642  0.7521  0.5894 -0.6650
40069SOL    HW226171  11.893   6.184  10.573 -0.5105  0.4431  0.9448
40070SOL     OW26172   5.202   2.281   8.601 -0.0515 -0.1038 -0.1294
40070SOL    HW126173   5.239   2.256   8.516  0.3702  0.6807 -0.1865
40070SOL    HW226174   5.108   2.271   8.590 -0.1252  1.4555 -1.2061
40071SOL     OW26175   6.886   1.669   6.117  0.3520 -0.1678 -0.0149
40071SOL    HW126176   6.863   1.645   6.028 -0.4833  1.5361 -0.3002
40071SOL    HW226177   6.855   1.759   6.127  0.7234 -0.1973  1.8895
40072SOL     OW26178  10.468   5.369   4.105  0.2289  0.0801  0.2787
40072SOL    HW126179  10.517   5.353   4.024  0.6004 -1.8379  0.8502
40072SOL    HW226180  10.386   5.408   4.075  1.1580  1.2784 -0.8552
40073SOL     OW26181   6.243   4.290   4.791  0.2575  0.1621 -0.0882
40073SOL    HW126182   6.275   4.240   4.867  0.0132 -1.1379 -0.8212
40073SOL    HW226183   6.310   4.357   4.778  1.7441 -1.3005 -0.3812
40074SOL     OW26184   6.124   7.867  10.040 -0.6559 -0.4808  0.0481
40074SOL    HW126185   6.106   7.895  10.130 -0.6740  0.0759 -0.1214
40074SOL    HW226186   6.214   7.835  10.043 -1.2862 -2.3455  0.6798
40075SOL     OW26187   9.656   7.837  10.784 -0.4119  0.6146  0.5220
40075SOL    HW126188   9.676   7.784  10.707 -0.6746  1.1658  0.0636
40075SOL    HW226189   9.650   7.926  10.750  1.0408  1.0984  1.4419
40076SOL     OW26190   7.877   6.717   4.880  0.2007 -0.6994 -0.6198
40076SOL    HW126191   7.787   6.748   4.868  0.6910  1.1042  0.0709
40076SOL    HW226192   7.897   6.735   4.972  1.3750 -0.7783 -0.8455
40077SOL     OW26193   4.792   5.916   5.786  0.2766  0.1570  0.2940
40077SOL    HW126194   4.841   5.939   5.707 -1.7917  0.6857 -0.9271
40077SOL    HW226195   4.799   5.820   5.791  1.0876  0.1934 -0.0838
40078SOL     OW26196   7.450   0.697  11.848  0.2463  0.5252  0.1232
40078SOL    HW126197   7.542   0.671  11.849  0.8247  2.3901  2.3017
40078SOL    HW226198   7.402   0.614  11.846  1.9863 -0.6098  1.7819
40079SOL     OW26199   7.347   9.397   4.869 -0.2711  1.0938  0.0039
40079SOL    HW126200   7.422   9.457   4.875 -0.9091  1.8858  0.2317
40079SOL    HW226201   7.361   9.350   4.787  1.3899 -0.0380  0.8759
40080SOL     OW26202   2.619   7.101   5.240 -0.1759  0.0894 -0.0350
40080SOL    HW126203   2.547   7.124   5.298  0.8497  0.5693  1.0824
40080SOL    HW226204   2.685   7.062   5.297  1.0790  1.0582 -0.7549
40081SOL     OW26205   8.718   5.830   1.655 -0.3694 -0.1762 -0.3603
40081SOL    HW126206   8.646   5.875   1.698  0.4269  1.7332 -0.9096
40081SOL    HW226207   8.795   5.884   1.674  0.7039 -1.4752 -0.8275
40082SOL     OW26208   0.157  12.225   6.025  0.1208 -0.1800 -0.0845
40082SOL    HW126209   0.080  12.205   5.973  0.7567  0.0704 -1.1629
40082SOL    HW226210   0.176  12.317   6.006 -0.0438  0.1239  1.1533
40083SOL     OW26211   8.323   8.274   3.268 -0.3355  0.3724 -0.7089
40083SOL    HW126212   8.328   8.318   3.353 -1.7967 -0.1304 -0.3457
40083SOL    HW226213   8.264   8.328   3.216 -1.1961 -0.4851 -0.6549
40084SOL     OW26214   2.418   1.597   6.999  0.0869  0.4509 -0.1095
40084SOL    HW126215   2.428   1.662   6.929 -0.2951  0.3085 -0.2983
40084SOL    HW226216   2.481   1.528   6.975 -1.3016 -0.4502 -1.3105
40085SOL     OW26217   9.240   3.525   5.651  0.5522  0.1795 -1.0445
40085SOL    HW126218   9.179   3.597   5.665 -0.3521 -0.5707 -1.0639
40085SOL    HW226219   9.321   3.567   5.621  0.1487  1.2044 -0.7280
40086SOL     OW26220   7.518   7.352   7.143  0.1827 -0.3534  0.6558
40086SOL    HW126221   7.599   7.305   7.162  0.5521 -0.4485 -0.9891
40086SOL    HW226222   7.459   7.286   7.106  0.7003  0.3740 -1.6505
40087SOL     OW26223   4.877   6.241   0.604  0.3982 -0.6568 -0.0375
40087SOL    HW126224   4.907   6.172   0.545  0.7687  0.7528 -1.5612
40087SOL    HW226225   4.922   6.223   0.687  1.7203 -1.3452 -0.8682
40088SOL     OW26226  12.346   7.864  11.229  0.3160 -0.0039  0.0934
40088SOL    HW126227  12.392   7.921  11.290  0.0989 -1.1589  1.3652
40088SOL    HW226228  12.384   7.778  11.242 -1.3782 -0.7544  0.3283
40089SOL     OW26229   8.986   6.611   8.618 -0.1281 -0.2331 -0.1373
40089SOL    HW126230   8.981   6.539   8.556 -0.5076 -1.4131  1.2057
40089SOL    HW226231   8.958   6.573   8.701 -0.5813  1.5320  0.5656
40090SOL     OW26232   8.911  10.279   1.649  1.0200  0.0698  0.3234
40090SOL    HW126233   8.959  10.216   1.595  0.0801 -0.6783  0.3169
40090SOL    HW226234   8.851  10.225   1.700 -0.5951  1.0232 -0.4791
40091SOL     OW26235   7.125  11.158   0.360 -0.3991 -0.3093 -0.7128
40091SOL    HW126236   7.064  11.172   0.433  1.6294 -1.4589  1.3070
40091SOL    HW226237   7.158  11.069   0.373  1.3536  0.1160 -2.0112
40092SOL     OW26238   9.428   4.457   0.711  0.6629  0.0070 -0.7650
40092SOL    HW126239   9.499   4.393   0.705  0.5644 -0.0469 -1.4756
40092SOL    HW226240   9.464   4.535   0.668  0.7643  0.4155  0.0563
40093SOL     OW26241   0.971   1.032  11.303  0.5836 -0.4231 -0.1203
40093SOL    HW126242   0.964   1.125  11.281 -0.0801 -0.7463 -1.3810
40093SOL    HW226243   1.014   0.993  11.227 -2.3566 -1.6933 -1.2967
40094SOL     OW26244  11.997   6.113  10.048 -0.4191 -0.0008 -0.6534
40094SOL    HW126245  11.980   6.135  10.139  0.1548  2.2155 -1.0240
40094SOL    HW226246  12.050   6.033  10.052  0.4059  0.5958  0.9806
40095SOL     OW26247   1.105  10.049  10.189 -0.0979  0.3362  0.1537
40095SOL    HW126248   1.175  10.110  10.214  0.4234 -0.6799  1.2648
40095SOL    HW226249   1.024  10.095  10.210  0.2478  1.1955 -0.3529
40096SOL     OW26250   7.087   6.856   0.167  0.1252  0.3415 -0.3435
40096SOL    HW126251   7.141   6.788   0.125  0.7941  0.6382  0.0193
40096SOL    HW226252   7.000   6.845   0.128  0.1689 -0.8597 -0.1386
40097SOL     OW26253   6.622  10.412   1.778  0.3143 -0.3871  0.3605
40097SOL    HW126254   6.666  10.353   1.840 -1.0218 -1.1092  0.6444
40097SOL    HW226255   6.529  10.401   1.796 -0.0011  1.2661 -0.1019
40098SOL     OW26256   8.958  12.082   1.415  0.3992  0.4273 -0.3810
40098SOL    HW126257   9.009  12.011   1.455 -0.3623 -0.9662 -1.7698
40098SOL    HW226258   8.898  12.110   1.483  1.1081  0.1434  0.3751
40099SOL     OW26259   6.579   4.208   4.069  0.3866  0.1374 -0.1926
40099SOL    HW126260   6.601   4.129   4.118  0.7923  0.1188 -0.3964
40099SOL    HW226261   6.498   4.186   4.024 -0.4423  0.4385  1.1015
40100SOL     OW26262   2.201   0.834   1.586 -0.0134 -0.5342  0.3862
40100SOL    HW126263   2.126   0.882   1.551  1.6423  1.2613 -0.8790
40100SOL    HW226264   2.208   0.864   1.677  0.4577  1.0407 -0.1319
40101SOL     OW26265   1.935  12.088  10.220  0.6842  0.5952 -0.2595
40101SOL    HW126266   1.973  12.039  10.292 -1.0266  0.6723  0.7299
40101SOL    HW226267   1.864  12.139  10.259 -1.4109 -0.6204 -2.2352
40102SOL     OW26268   8.049   1.803   5.695  0.8724  0.4236  0.3045
40102SOL    HW126269   8.017   1.773   5.781 -0.1239 -0.6322 -0.4073
40102SOL    HW226270   8.021   1.734   5.634  0.3109  1.8399 -1.0866
40103SOL     OW26271   5.975  10.256  10.913  0.1740 -0.0863  0.3954
40103SOL    HW126272   5.972  10.254  10.817 -0.4417 -1.1345  0.4208
40103SOL    HW226273   6.068  10.253  10.935  0.2988 -0.3336 -0.1598
40104SOL     OW26274   5.936   3.314   9.701 -0.1451 -0.0506  0.3204
40104SOL    HW126275   5.979   3.339   9.619 -0.7962  1.1184  0.3214
40104SOL    HW226276   5.978   3.231   9.725  0.6443  0.0134 -0.7493
40105SOL     OW26277   6.437  11.252  10.410  0.1926  0.1202 -0.2572
40105SOL    HW126278   6.440  11.331  10.465 -2.4153  0.5228 -0.5772
40105SOL    HW226279   6.471  11.281  10.325 -1.2941  1.1152 -0.5494
40106SOL     OW26280   7.998   9.585  10.487  0.3251 -0.6151  0.2198
40106SOL    HW126281   8.071   9.614  10.542  0.6114  0.1302 -0.5294
40106SOL    HW226282   7.920   9.622  10.528  0.3371 -1.5216  1.1002
40107SOL     OW26283   4.201   0.545   1.834  0.3514 -0.2720 -0.0707
40107SOL    HW126284   4.290   0.534   1.801  1.5101  2.8432  1.5422
40107SOL    HW226285   4.155   0.591   1.764  0.5895 -0.2227 -0.1981
40108SOL     OW26286   1.827   6.022   9.198 -0.2115 -0.4820 -0.0122
40108SOL    HW126287   1.772   6.077   9.252 -0.5687 -1.5332  0.7304
40108SOL    HW226288   1.814   5.934   9.232  0.1609 -1.0708 -1.3085
40109SOL     OW26289   8.771   4.192   1.888  0.1365 -0.0907 -0.1687
40109SOL    HW126290   8.769   4.285   1.863  0.9478 -0.2976 -1.0605
40109SOL    HW226291   8.862   4.166   1.877  0.3668 -0.4790  2.1249
40110SOL     OW26292  10.732  10.353  11.495 -0.0461 -0.5542 -0.2333
40110SOL    HW126293  10.800  10.410  11.460  0.3351 -0.7370  0.1951
40110SOL    HW226294  10.750  10.267  11.457 -0.3435 -0.4960 -0.5151
40111SOL     OW26295   4.054   5.362   2.253 -0.1254  0.1248 -1.1023
40111SOL    HW126296   4.078   5.442   2.207 -1.0267  0.8368 -0.3567
40111SOL    HW226297   3.971   5.382   2.296 -1.7696 -2.0365 -2.9990
40112SOL     OW26298   8.813   0.894   0.904 -0.7042  0.7674 -0.2617
40112SOL    HW126299   8.734   0.918   0.954 -0.8327  0.4273 -0.3021
40112SOL    HW226300   8.827   0.969   0.845 -0.6070  1.1295  0.2129
40113SOL     OW26301   0.037   1.349   6.784 -0.4387 -0.0294  0.0616
40113SOL    HW126302  -0.055   1.373   6.792 -0.1347  1.5307 -0.7864
40113SOL    HW226303   0.062   1.377   6.696  1.6265  2.5051  1.3177
40114SOL     OW26304   7.386   3.390   6.061 -0.0881  0.1838 -0.1497
40114SOL    HW126305   7.459   3.404   6.000  0.2518 -0.2477  0.1522
40114SOL    HW226306   7.322   3.457   6.036  0.7571  1.1343  0.1135
40115SOL     OW26307   1.610   4.559  10.234  0.2221  0.0314 -0.6611
40115SOL    HW126308   1.531   4.512  10.206 -0.0757  1.1243 -1.7517
40115SOL    HW226309   1.601   4.567  10.328 -0.1294 -1.3478 -0.5568
40116SOL     OW26310  10.854   0.575   3.090 -0.4628 -0.0948  0.1448
40116SOL    HW126311  10.824   0.486   3.069 -0.8210  0.4314 -1.7705
40116SOL    HW226312  10.783   0.631   3.061  0.2117  0.8845  0.3531
40117SOL     OW26313   2.658  11.710   2.846 -0.5817 -0.2030 -0.4675
40117SOL    HW126314   2.569  11.702   2.882 -0.5586 -0.4945 -0.4696
40117SOL    HW226315   2.656  11.656   2.767 -0.7332  0.7155 -1.1050
40118SOL     OW26316   3.009   4.013   2.541 -0.4535 -0.0341  0.3133
40118SOL    HW126317   3.048   4.047   2.622 -0.4610 -0.6591  0.5826
40118SOL    HW226318   3.077   3.958   2.503 -1.1033 -1.2539  0.8599
40119SOL     OW26319  11.950   2.846   4.252  0.0600  0.2325  0.5186
40119SOL    HW126320  11.948   2.939   4.275  1.4031  1.0410 -2.1683
40119SOL    HW226321  11.883   2.836   4.185  1.6002 -0.0731 -1.0631
40120SOL     OW26322  11.747   8.131   9.257 -0.2433  0.0099  0.3480
40120SOL    HW126323  11.672   8.153   9.203  0.2629 -0.6585 -0.6604
40120SOL    HW226324  11.738   8.037   9.274  0.3367 -0.0683  0.2440
40121SOL     OW26325   1.403   6.293   6.738 -0.5762 -0.2105 -0.5703
40121SOL    HW126326   1.378   6.206   6.709 -2.2288  0.4347 -1.1892
40121SOL    HW226327   1.330   6.323   6.792 -1.0820  1.5998 -2.1285
40122SOL     OW26328   1.597   3.672   2.963  0.0802  0.2810  0.2339
40122SOL    HW126329   1.600   3.658   3.058 -0.2157 -0.7548  0.0994
40122SOL    HW226330   1.600   3.584   2.926  0.8657  0.7096 -0.7439
40123SOL     OW26331   1.396   6.896   7.314 -0.5499  0.4865  0.1868
40123SOL    HW126332   1.468   6.835   7.329 -0.3492  0.3038 -1.3570
40123SOL    HW226333   1.327   6.868   7.374 -1.0494 -2.2647 -1.5246
40124SOL     OW26334   1.740   9.944   5.398 -0.3944 -0.8595 -0.0698
40124SOL    HW126335   1.646   9.925   5.397 -0.1165 -3.2130  3.6192
40124SOL    HW226336   1.753   9.999   5.475  1.1200  0.9367 -1.5091
40125SOL     OW26337  10.865   7.050   8.252  0.1500  0.1497  0.4605
40125SOL    HW126338  10.934   6.992   8.221 -0.6735  0.0270 -1.2188
40125SOL    HW226339  10.890   7.136   8.219 -1.1489 -0.1168 -1.3778
40126SOL     OW26340   3.311   4.573   5.650  0.1767  0.2575 -0.2601
40126SOL    HW126341   3.318   4.538   5.739  1.7198 -0.8097 -0.7442
40126SOL    HW226342   3.323   4.496   5.594  0.1399  1.0516 -1.3814
40127SOL     OW26343   0.873   3.111   6.524 -0.4702 -0.1100 -0.0176
40127SOL    HW126344   0.780   3.132   6.518 -0.2271  0.5827 -2.1318
40127SOL    HW226345   0.913   3.188   6.563 -0.6486 -0.0314  0.0103
40128SOL     OW26346  10.554   5.650   2.964 -0.2494  0.1748  0.5598
40128SOL    HW126347  10.561   5.606   3.049  0.0238 -0.8565  0.0250
40128SOL    HW226348  10.506   5.730   2.983  0.5621  0.4002  1.8395
40129SOL     OW26349   0.292   0.855  12.261 -0.0740  0.1780 -0.6046
40129SOL    HW126350   0.214   0.893  12.219 -0.9315 -0.9343 -0.0755
40129SOL    HW226351   0.283   0.878  12.353  0.4775  0.4450 -0.6143
40130SOL     OW26352   7.057   4.799  10.356 -0.1473 -0.4183  0.5482
40130SOL    HW126353   6.964   4.777  10.355 -0.8889  2.3124 -0.2674
40130SOL    HW226354   7.075   4.823  10.447  0.0069 -1.7535  0.8851
40131SOL     OW26355   5.438   7.963   1.376 -0.6041 -0.3284 -0.2511
40131SOL    HW126356   5.460   8.029   1.310 -0.2419  0.1785  0.3606
40131SOL    HW226357   5.521   7.944   1.420 -0.4292 -2.1731 -1.2647
40132SOL     OW26358   3.218   4.642  11.190 -0.1036 -0.0785 -0.5163
40132SOL    HW126359   3.182   4.731  11.197 -0.6666 -0.3053 -0.4821
40132SOL    HW226360   3.279   4.635  11.263  0.2376  0.4136 -0.7454
40133SOL     OW26361   5.541   9.500   6.551  0.4216  0.5433 -0.1790
40133SOL    HW126362   5.460   9.513   6.601 -0.5428 -0.7459 -1.3164
40133SOL    HW226363   5.549   9.579   6.497  0.5050  1.1399  0.6918
40134SOL     OW26364  11.785   3.400  10.143 -0.6901  0.4827  0.7676
40134SOL    HW126365  11.756   3.420  10.233 -0.0164  0.6446  0.9537
40134SOL    HW226366  11.818   3.484  10.110 -1.7809  0.6429  0.0300
40135SOL     OW26367   0.595   4.409   5.587  0.3367 -0.0896  0.1854
40135SOL    HW126368   0.622   4.322   5.619  2.3334  0.6413  0.6594
40135SOL    HW226369   0.674   4.463   5.596 -0.9473  1.8812  0.2383
40136SOL     OW26370  12.472   2.211   7.429 -0.1147 -0.3638  0.3787
40136SOL    HW126371  12.477   2.169   7.515  0.2592 -1.1535 -0.0190
40136SOL    HW226372  12.511   2.297   7.443  2.7435 -1.5520  0.3666
40137SOL     OW26373   2.256   8.702   8.377  0.4573 -0.1824 -0.1620
40137SOL    HW126374   2.322   8.770   8.387 -2.0512  2.2099  2.1128
40137SOL    HW226375   2.273   8.640   8.448 -0.4747  1.2539  1.4081
40138SOL     OW26376  10.259   8.252   2.678  0.3778 -0.1358  0.1494
40138SOL    HW126377  10.195   8.312   2.641 -0.5187  1.3237  3.6933
40138SOL    HW226378  10.209   8.173   2.700 -0.1251  0.6724  2.1090
40139SOL     OW26379  11.918  11.922  10.476 -0.3075 -0.0855  0.3650
40139SOL    HW126380  11.991  11.932  10.537 -0.7152 -1.4409  1.1045
40139SOL    HW226381  11.851  11.876  10.526 -1.5934  0.9022 -0.3790
40140SOL     OW26382   9.302   1.793   5.563 -0.2694 -0.0467  0.0945
40140SOL    HW126383   9.343   1.870   5.603  0.4881 -0.3981  0.0072
40140SOL    HW226384   9.308   1.808   5.469 -1.1540  0.3114  0.0824
40141SOL     OW26385   2.312  11.763   9.496  0.1925 -0.2570  0.2013
40141SOL    HW126386   2.389  11.745   9.442 -1.5079 -0.1963 -2.4010
40141SOL    HW226387   2.250  11.694   9.473 -1.9295  1.8374 -0.7292
40142SOL     OW26388   9.165   0.020   4.875 -0.7789 -0.1085 -0.5911
40142SOL    HW126389   9.209   0.004   4.792 -0.5713  0.3452 -0.5709
40142SOL    HW226390   9.131   0.109   4.868 -0.4555  0.0649 -0.0588
40143SOL     OW26391   5.030   8.084   5.458  0.0265 -0.0864 -0.3582
40143SOL    HW126392   5.053   8.125   5.542  0.8267 -2.3494  0.6102
40143SOL    HW226393   4.937   8.063   5.467  0.3938 -1.4988  0.5685
40144SOL     OW26394   6.930   9.953  10.249 -0.1928  0.0793 -0.3536
40144SOL    HW126395   6.849   9.901  10.252  0.3002 -0.6961 -0.0597
40144SOL    HW226396   6.967   9.944  10.337  0.4911 -0.0314 -0.6500
40145SOL     OW26397  10.087  11.340   4.344  0.3304 -0.3191  0.3801
40145SOL    HW126398  10.110  11.402   4.414 -0.5089 -2.1111  2.3434
40145SOL    HW226399  10.171  11.311   4.310  0.7490  1.2951 -0.0795
40146SOL     OW26400  10.264   4.843   4.794 -0.5258  1.1052 -0.3958
40146SOL    HW126401  10.251   4.758   4.752 -1.5924  1.6140 -1.1610
40146SOL    HW226402  10.327   4.826   4.864  1.8596  0.3426 -2.5721
40147SOL     OW26403   4.592   7.467   0.664  0.3496  0.1155 -0.1662
40147SOL    HW126404   4.607   7.402   0.595  0.1344 -0.0594 -0.0516
40147SOL    HW226405   4.649   7.439   0.735 -0.3738 -0.4491  0.2044
40148SOL     OW26406  11.152   0.655   0.210  0.2852  0.0502 -0.5631
40148SOL    HW126407  11.162   0.678   0.118  1.1528  0.2427 -0.4276
40148SOL    HW226408  11.195   0.726   0.257  0.0856 -0.1851 -0.0202
40149SOL     OW26409   5.889  12.048  12.209 -0.5186 -0.4708  0.2945
40149SOL    HW126410   5.816  12.110  12.209 -1.0831 -1.1191  0.7064
40149SOL    HW226411   5.871  11.991  12.135 -1.0757 -1.3606  1.0984
40150SOL     OW26412   3.419   7.909   0.345  0.1671  0.1546  0.8078
40150SOL    HW126413   3.350   7.850   0.316  0.4631  0.1111  0.1506
40150SOL    HW226414   3.378   7.996   0.348  0.7437  0.6770 -2.5007
40151SOL     OW26415   0.616  12.342   9.358  0.0866  0.5500 -0.3005
40151SOL    HW126416   0.640  12.386   9.440 -0.3263  1.5287 -0.6926
40151SOL    HW226417   0.645  12.251   9.371 -0.0604  0.6602  0.9639
40152SOL     OW26418   8.671   6.186   5.396 -0.0141 -0.2434  0.0729
40152SOL    HW126419   8.602   6.213   5.456 -0.0296 -2.5445  1.2269
40152SOL    HW226420   8.627   6.173   5.312 -0.4141  0.9609  0.0843
40153SOL     OW26421  10.746   0.037   6.967 -0.7838  0.3698  0.1709
40153SOL    HW126422  10.687   0.006   7.036 -1.5766  0.0806 -0.6121
40153SOL    HW226423  10.812   0.089   7.013 -1.9841  1.1952  1.0080
40154SOL     OW26424   6.699   1.206   3.843  0.1906  0.3620 -0.6407
40154SOL    HW126425   6.751   1.140   3.890  1.7758  0.8332 -1.6723
40154SOL    HW226426   6.714   1.287   3.893  1.1760  0.6772 -1.4136
40155SOL     OW26427   9.950   3.757   5.002  0.6327 -0.2338 -0.8222
40155SOL    HW126428   9.977   3.811   4.928  1.3274  0.8725  0.1881
40155SOL    HW226429   9.951   3.667   4.969  1.5333  0.1813 -1.9790
40156SOL     OW26430   4.470   8.485  11.471  0.8068 -0.0060 -0.1279
40156SOL    HW126431   4.545   8.534  11.437  1.9220 -1.3212  0.3280
40156SOL    HW226432   4.451   8.525  11.556  0.9770  0.3417 -0.2495
40157SOL     OW26433  11.577   9.653   5.698  0.1100  0.3006 -0.0075
40157SOL    HW126434  11.593   9.680   5.789  0.9894  1.3509 -0.4391
40157SOL    HW226435  11.601   9.561   5.695  1.9747  0.7196  0.4234
40158SOL     OW26436   0.345   1.658   4.137  0.5480 -0.4618  0.2329
40158SOL    HW126437   0.253   1.631   4.138  0.3631  0.0993 -0.7191
40158SOL    HW226438   0.344   1.744   4.095  1.4965 -0.3872  0.3510
40159SOL     OW26439   5.540  10.694   0.474 -0.3032  0.2795 -0.2904
40159SOL    HW126440   5.631  10.724   0.477 -0.5374  1.1437 -1.1490
40159SOL    HW226441   5.539  10.613   0.524  1.5874 -1.3639 -2.6778
40160SOL     OW26442   5.328   6.413  10.897 -0.4968 -0.1990 -0.2220
40160SOL    HW126443   5.399   6.375  10.845 -0.3926  0.7015 -0.7598
40160SOL    HW226444   5.353   6.505  10.908  0.1983 -0.6213  2.6484
40161SOL     OW26445   8.284   7.453   8.702 -0.0292  0.3850 -0.4191
40161SOL    HW126446   8.360   7.396   8.713  1.6259  2.2017 -1.5503
40161SOL    HW226447   8.260   7.480   8.791 -0.4428 -1.5098  0.0734
40162SOL     OW26448   7.450   7.109   1.113 -0.3772  0.0454  0.4706
40162SOL    HW126449   7.365   7.066   1.112  0.4350 -1.7346  1.7304
40162SOL    HW226450   7.511   7.043   1.079  0.2869  2.0085 -2.5888
40163SOL     OW26451  11.725   5.820   2.824 -0.1259 -0.3695 -0.0208
40163SOL    HW126452  11.776   5.900   2.834 -1.2636  0.2988  0.7502
40163SOL    HW226453  11.645   5.848   2.779 -1.0986 -0.8023  1.3691
40164SOL     OW26454   5.431  12.074   5.617  0.3684  0.0517  0.7215
40164SOL    HW126455   5.445  12.076   5.522 -1.1182  0.1780  0.4724
40164SOL    HW226456   5.504  12.124   5.653 -0.5773  2.5197 -0.5867
40165SOL     OW26457   8.009   9.353   3.612  0.1237  0.1836 -0.0469
40165SOL    HW126458   8.095   9.361   3.570 -0.3849  1.9546 -0.8456
40165SOL    HW226459   8.016   9.274   3.667  1.7208 -0.5986 -1.3039
40166SOL     OW26460   1.411  11.031   8.716  0.4328  0.3122  0.4016
40166SOL    HW126461   1.456  11.095   8.661 -0.4481 -0.6984 -1.6236
40166SOL    HW226462   1.480  10.970   8.743  0.7216  0.2271 -0.5037
40167SOL     OW26463  12.020  11.947  12.259  0.3703  0.4096 -0.4650
40167SOL    HW126464  12.042  11.854  12.260 -0.6620  0.1513 -0.9001
40167SOL    HW226465  11.985  11.965  12.346  2.3741  0.8765  0.3178
40168SOL     OW26466   7.684  10.578   9.547  0.9049 -0.4986  0.1447
40168SOL    HW126467   7.630  10.634   9.603  1.5765 -0.3791  0.6935
40168SOL    HW226468   7.721  10.513   9.607 -1.6696 -3.0460 -0.7905
40169SOL     OW26469   4.282   1.375  11.517  0.4714  0.0440 -0.4043
40169SOL    HW126470   4.247   1.342  11.435 -0.3458  0.2686 -0.1566
40169SOL    HW226471   4.353   1.315  11.539  0.0480 -0.6024 -0.7657
40170SOL     OW26472   8.501   6.974  10.186  0.4244  0.1262  0.2410
40170SOL    HW126473   8.408   6.997  10.182  0.6225  1.2150  1.5114
40170SOL    HW226474   8.522   6.946  10.097 -0.7596  1.3226 -0.4517
40171SOL     OW26475   7.450   0.549  11.452 -1.0684  0.2876  0.1058
40171SOL    HW126476   7.519   0.497  11.493  1.9678  2.2465 -2.0911
40171SOL    HW226477   7.426   0.614  11.518  0.5299  0.6577  0.3630
40172SOL     OW26478   8.554   7.666  11.267  0.0686  0.1043  0.6927
40172SOL    HW126479   8.598   7.661  11.182  0.3515 -0.1256  0.8518
40172SOL    HW226480   8.565   7.579  11.306  0.0279  0.2357  1.0044
40173SOL     OW26481  12.202   0.176   7.246  0.3871 -0.0451 -0.4453
40173SOL    HW126482  12.142   0.112   7.208  0.6284 -0.8276  0.4452
40173SOL    HW226483  12.275   0.123   7.280  0.6755  0.7126  0.1595
40174SOL     OW26484  10.723   6.874   2.983  0.2814  0.2189  0.4351
40174SOL    HW126485  10.783   6.808   3.019 -1.6822 -2.3176 -0.6206
40174SOL    HW226486  10.736   6.869   2.888 -0.3582  0.8716  0.3061
40175SOL     OW26487   8.535   3.602   8.128 -0.5252  0.5062 -0.4028
40175SOL    HW126488   8.508   3.554   8.049  0.3155  1.8587 -1.5577
40175SOL    HW226489   8.631   3.603   8.123 -0.4778  0.8982  0.4626
40176SOL     OW26490   0.758   7.656   8.694 -0.2065 -0.0768  0.5719
40176SOL    HW126491   0.774   7.704   8.774  1.7343 -1.1509  0.8742
40176SOL    HW226492   0.740   7.566   8.723 -0.0505 -0.3519 -0.1596
40177SOL     OW26493   0.860   3.639   2.871 -0.1304  0.1180 -0.0080
40177SOL    HW126494   0.952   3.656   2.887  0.2900 -2.5258  0.7958
40177SOL    HW226495   0.815   3.677   2.947  0.3297  0.9216 -0.1286
40178SOL     OW26496   2.210   2.688   7.732  0.3091  0.3562 -0.1516
40178SOL    HW126497   2.184   2.731   7.651  0.7626 -0.7146 -0.8813
40178SOL    HW226498   2.301   2.714   7.746  0.3112  0.3349 -0.1227
40179SOL     OW26499   9.201   0.942   1.237 -0.2344 -0.8437  0.6986
40179SOL    HW126500   9.204   0.851   1.205  3.3487 -0.8452  0.6559
40179SOL    HW226501   9.126   0.944   1.297 -0.1258 -3.9709  1.1012
40180SOL     OW26502   8.810   0.356   6.054  0.0935  0.1435 -0.1201
40180SOL    HW126503   8.835   0.299   6.127 -1.3667 -1.0225 -0.4696
40180SOL    HW226504   8.889   0.362   6.001  0.6170 -0.6278  0.5386
40181SOL     OW26505   2.804   3.949  11.450  0.4694  0.0991 -0.6845
40181SOL    HW126506   2.742   3.964  11.379  0.4365 -1.3005 -0.9837
40181SOL    HW226507   2.828   4.037  11.480 -1.4148  0.6957 -0.7588
40182SOL     OW26508  12.116   6.766  11.782  0.0901  0.2876 -0.2359
40182SOL    HW126509  12.172   6.828  11.829 -1.2216  0.6800  0.8889
40182SOL    HW226510  12.163   6.748  11.701  0.8174  2.2844 -0.3269
40183SOL     OW26511  11.758   1.706   6.884 -0.0913 -0.4000 -0.1113
40183SOL    HW126512  11.833   1.737   6.935 -0.4654 -0.1780  0.3147
40183SOL    HW226513  11.788   1.626   6.842 -0.4293 -1.8709  2.2500
40184SOL     OW26514   9.481   2.476   0.133  0.0842 -0.0606 -0.2068
40184SOL    HW126515   9.531   2.518   0.204 -0.5945  0.2182  0.1080
40184SOL    HW226516   9.538   2.405   0.104  0.9088  0.5879 -0.2230
40185SOL     OW26517   3.323   4.496   4.528 -0.1958 -0.0614  0.0235
40185SOL    HW126518   3.355   4.564   4.587  2.0349 -0.8431 -0.1852
40185SOL    HW226519   3.402   4.454   4.495 -1.4521 -1.2528 -1.6378
40186SOL     OW26520   2.473   8.815   4.570 -0.0365 -0.2029  0.0601
40186SOL    HW126521   2.531   8.840   4.498 -0.7385 -1.1868 -0.8763
40186SOL    HW226522   2.501   8.728   4.596 -0.7557 -0.4829 -0.0653
40187SOL     OW26523   8.018   7.208   4.205  0.1707 -0.1883 -0.2964
40187SOL    HW126524   8.021   7.178   4.114 -0.7675  0.5376 -0.5841
40187SOL    HW226525   7.952   7.154   4.247 -0.6928  0.6713 -0.5208
40188SOL     OW26526   1.244   5.318   9.766  0.3293 -0.3604  0.0464
40188SOL    HW126527   1.285   5.260   9.830  1.7988  1.4364  0.8516
40188SOL    HW226528   1.304   5.318   9.691  0.5684  0.4001  0.2249
40189SOL     OW26529   2.816   8.386   3.707 -0.0115 -0.2348  0.3978
40189SOL    HW126530   2.866   8.305   3.715  1.5903  0.7644  1.3717
40189SOL    HW226531   2.772   8.396   3.791  0.6525  0.3920  0.6884
40190SOL     OW26532   6.075   8.607   0.704  0.2477 -0.3131  0.4160
40190SOL    HW126533   6.150   8.642   0.751  0.6713  0.4661 -0.7862
40190SOL    HW226534   6.050   8.677   0.643 -0.1318 -1.3588 -0.6675
40191SOL     OW26535   9.094   6.357  10.259 -0.2419 -0.4156 -0.8851
40191SOL    HW126536   9.018   6.372  10.316  1.2680 -0.5476  1.3248
40191SOL    HW226537   9.132   6.444  10.246  0.0196 -0.5087 -0.7593
40192SOL     OW26538   4.031  11.711   6.292  0.3646 -0.1600 -0.2740
40192SOL    HW126539   4.015  11.625   6.331 -0.7781  0.3728  0.4613
40192SOL    HW226540   4.081  11.692   6.212  0.2146 -1.4882 -0.0696
40193SOL     OW26541   4.029   5.625   8.192 -0.0811  0.1355 -0.2701
40193SOL    HW126542   4.061   5.538   8.169 -0.2212 -0.2283  0.8138
40193SOL    HW226543   4.094   5.659   8.254 -2.0497 -0.9665  2.6361
40194SOL     OW26544   9.199   7.811   7.160 -0.0045 -0.4481  0.9511
40194SOL    HW126545   9.278   7.862   7.181 -1.0194  0.4550  2.8611
40194SOL    HW226546   9.230   7.742   7.102  1.8023  1.1242 -0.0754
40195SOL     OW26547   8.583   0.541   1.637  0.0972  0.1165  0.1495
40195SOL    HW126548   8.636   0.616   1.609  0.6496  0.0159  0.9003
40195SOL    HW226549   8.542   0.510   1.556  1.9453 -0.4064 -0.6481
40196SOL     OW26550  10.597   4.358  10.505 -0.0772  0.3144  0.7265
40196SOL    HW126551  10.518   4.333  10.554  0.0356 -1.3644  0.1105
40196SOL    HW226552  10.599   4.298  10.431  0.3711  2.0614 -0.7539
40197SOL     OW26553   9.802   1.304  12.424 -0.2930 -0.3590 -0.1801
40197SOL    HW126554   9.887   1.347  12.436  0.2511 -1.4496 -0.0073
40197SOL    HW226555   9.780   1.268  12.510 -0.1391 -1.4706 -0.5858
40198SOL     OW26556   0.855   4.552   9.826 -0.2604 -0.5056  0.1874
40198SOL    HW126557   0.931   4.496   9.808 -1.7217 -3.7540  2.8632
40198SOL    HW226558   0.893   4.636   9.852  2.2226 -0.9819 -1.4806
40199SOL     OW26559   0.352   5.624   5.744  0.8484 -0.4870 -0.0226
40199SOL    HW126560   0.354   5.714   5.777  1.3490 -0.8738  1.0631
40199SOL    HW226561   0.259   5.606   5.729  0.5966 -0.2345  1.1129
40200SOL     OW26562   2.050   2.079   3.638  0.0199  1.0290  1.0835
40200SOL    HW126563   2.141   2.106   3.623  0.6243  0.6455  3.6231
40200SOL    HW226564   2.011   2.154   3.683 -1.5321  1.9113 -1.4732
40201SOL     OW26565   4.377   1.023   8.779 -0.1610  0.0096  0.3660
40201SOL    HW126566   4.302   1.082   8.779  0.8811  1.3887 -0.1958
40201SOL    HW226567   4.352   0.952   8.839 -1.8122  0.5240  0.3376
40202SOL     OW26568   4.991   4.039   5.029 -0.1635  0.2452 -0.3641
40202SOL    HW126569   4.915   3.982   5.037 -0.0813  0.4058  2.4862
40202SOL    HW226570   5.060   3.982   4.996 -0.2638 -1.2191  1.7728
40203SOL     OW26571   8.426  12.273   9.434  0.3213 -0.1290 -1.0517
40203SOL    HW126572   8.475  12.203   9.391  5.0734  0.4326  2.5857
40203SOL    HW226573   8.485  12.348   9.431 -0.4686  0.8681  3.0693
40204SOL     OW26574   5.291   8.519   0.013  0.3942 -0.5083  0.0214
40204SOL    HW126575   5.314   8.525   0.105  0.9748 -0.2243 -0.1378
40204SOL    HW226576   5.335   8.593  -0.028  2.6214 -2.2514 -0.9716
40205SOL     OW26577   4.718  10.021   3.780  0.1553 -0.1711 -0.2953
40205SOL    HW126578   4.743  10.101   3.733 -0.5272  0.7156  0.8003
40205SOL    HW226579   4.801   9.987   3.814  0.2675  1.0140  0.6633
40206SOL     OW26580   9.994   5.520   4.321 -0.1268  0.0538 -0.4252
40206SOL    HW126581  10.047   5.577   4.265 -0.8643  1.1987  0.0132
40206SOL    HW226582  10.057   5.473   4.374  0.5071  3.3270  2.0193
40207SOL     OW26583   1.150   9.437   8.783  0.3970 -0.2425 -0.8516
40207SOL    HW126584   1.117   9.381   8.853  1.4562  0.5218  0.2960
40207SOL    HW226585   1.089   9.422   8.710 -1.3393 -0.3022  0.5447
40208SOL     OW26586  11.137  10.378  10.095  0.3429  0.2283 -0.2990
40208SOL    HW126587  11.058  10.358  10.045  0.7543  0.7634 -1.1779
40208SOL    HW226588  11.178  10.292  10.109 -0.6809 -0.1270  0.6923
40209SOL     OW26589   8.137   4.596  11.792  0.0404  0.0480 -0.1020
40209SOL    HW126590   8.183   4.602  11.708 -0.3816  0.9536 -0.2748
40209SOL    HW226591   8.199   4.631  11.856  0.3234 -0.5485 -0.0410
40210SOL     OW26592   5.326   6.950   0.707 -0.2546  0.3624 -0.1995
40210SOL    HW126593   5.367   6.916   0.787  0.2206  2.8601  0.6823
40210SOL    HW226594   5.253   7.003   0.738  0.1307  1.6370 -1.3835
40211SOL     OW26595   8.094   4.341   9.812 -0.7235 -0.2878 -0.0154
40211SOL    HW126596   8.098   4.365   9.719 -2.2232  1.2490  0.2504
40211SOL    HW226597   8.136   4.414   9.857 -1.4663 -0.2167  0.5872
40212SOL     OW26598   6.236   4.239   6.449  0.9115  0.5075  0.3604
40212SOL    HW126599   6.254   4.330   6.424  0.6925  1.1005  2.2592
40212SOL    HW226600   6.177   4.207   6.380  0.4016  2.0236  0.0497
40213SOL     OW26601   6.308   6.951   9.331 -0.4009 -0.0804 -0.3512
40213SOL    HW126602   6.367   6.951   9.256  0.9390 -0.2969  0.6775
40213SOL    HW226603   6.276   6.861   9.336  0.6328 -0.4339  0.1766
40214SOL     OW26604  10.799   9.551  11.442 -0.1598  0.3678  0.2230
40214SOL    HW126605  10.882   9.594  11.460 -0.5221  1.0631  0.2808
40214SOL    HW226606  10.743   9.573  11.517 -0.0913 -0.9319  0.6826
40215SOL     OW26607   4.201   1.990  11.136 -0.3703 -0.2970 -0.0638
40215SOL    HW126608   4.130   2.032  11.185 -0.8893 -0.1785 -0.9099
40215SOL    HW226609   4.237   1.925  11.197 -0.3215  0.5599  0.8366
40216SOL     OW26610   1.607  11.529  11.104  0.2080 -0.4965  0.3641
40216SOL    HW126611   1.546  11.455  11.100 -0.0266 -0.3020  0.2496
40216SOL    HW226612   1.592  11.576  11.022 -1.5708  1.1522  1.5399
40217SOL     OW26613   2.015   0.930   8.695 -0.0133 -0.1277 -0.8521
40217SOL    HW126614   2.106   0.911   8.675  0.3781  0.1887  0.5082
40217SOL    HW226615   1.970   0.846   8.690  0.9466 -0.8413  1.3403
40218SOL     OW26616   9.588   2.536   6.102  0.4379 -0.7766  0.5176
40218SOL    HW126617   9.580   2.566   6.012 -0.3604  1.4317  1.2483
40218SOL    HW226618   9.664   2.477   6.101  0.8420 -0.3055 -1.4568
40219SOL     OW26619   6.004   7.939  10.286  0.5084 -0.3571 -0.0090
40219SOL    HW126620   5.941   7.884  10.334 -1.4526  0.6227 -1.3050
40219SOL    HW226621   5.985   8.028  10.315  1.2027 -0.0296 -0.5450
40220SOL     OW26622   2.021   0.722   1.222 -0.1770  0.0013  0.0529
40220SOL    HW126623   2.017   0.807   1.265  1.6570 -0.0137  0.3166
40220SOL    HW226624   1.970   0.664   1.278 -0.1248  0.5709  0.7013
40221SOL     OW26625  10.824  10.751   0.517  0.5029 -0.0860  0.2431
40221SOL    HW126626  10.910  10.726   0.550  0.5415  0.9335  0.9547
40221SOL    HW226627  10.818  10.845   0.533 -0.3754  0.0283 -0.6606
40222SOL     OW26628   1.080   4.530  12.098  0.0126 -0.3822  0.1560
40222SOL    HW126629   1.143   4.591  12.060 -0.5840  0.3365  0.2959
40222SOL    HW226630   1.130   4.481  12.162  0.8810 -1.1642 -1.0778
40223SOL     OW26631  11.578   7.433   8.148 -0.4526  0.3648  0.0169
40223SOL    HW126632  11.667   7.469   8.152 -0.7695  1.1563  0.3312
40223SOL    HW226633  11.542   7.466   8.066 -0.1079 -0.8478 -0.6470
40224SOL     OW26634   7.321   5.911   6.167 -0.0733 -0.0794  0.1316
40224SOL    HW126635   7.262   5.855   6.116  1.1539 -1.6267  0.2976
40224SOL    HW226636   7.409   5.883   6.140  0.5884  0.8839  1.1986
40225SOL     OW26637   7.522   1.960   5.147 -0.0846 -0.2834 -0.1923
40225SOL    HW126638   7.453   1.987   5.086 -0.3102 -1.4735 -0.4880
40225SOL    HW226639   7.601   1.953   5.092  0.0961  0.2668 -0.0128
40226SOL     OW26640   6.517  11.846   8.467  0.1335  0.2326  0.5422
40226SOL    HW126641   6.498  11.927   8.515 -2.1081 -0.6248  1.2271
40226SOL    HW226642   6.508  11.776   8.532  1.8048 -0.6265 -0.0889
40227SOL     OW26643   2.165   2.514   8.979  0.7330 -0.1826  0.2613
40227SOL    HW126644   2.096   2.577   8.961  1.2049  0.3384  0.2317
40227SOL    HW226645   2.240   2.568   9.004  1.6048 -0.6334 -1.2452
40228SOL     OW26646   7.380   8.844   2.258 -0.7033 -0.4703 -0.6541
40228SOL    HW126647   7.345   8.756   2.271 -2.7197  0.3812  0.0482
40228SOL    HW226648   7.304   8.897   2.237  0.6668  0.8803 -2.4738
40229SOL     OW26649   6.955   4.756   0.261 -0.1970  0.2338 -0.1814
40229SOL    HW126650   7.010   4.833   0.247 -0.4506  0.7387  1.4316
40229SOL    HW226651   6.876   4.790   0.303 -1.5826 -0.5496 -1.9852
40230SOL     OW26652  12.410   1.011   6.837  0.3715 -0.4165 -0.0062
40230SOL    HW126653  12.344   1.077   6.859 -1.2434 -0.8580 -3.0758
40230SOL    HW226654  12.363   0.928   6.840  1.4212 -1.0252  0.0441
40231SOL     OW26655   9.643  10.353   1.026  0.1706  0.6326  0.4319
40231SOL    HW126656   9.587  10.399   0.963  0.7693  0.5589 -0.1640
40231SOL    HW226657   9.585  10.292   1.070 -0.1092  0.1314 -0.6024
40232SOL     OW26658   3.088   5.175  12.216 -0.2340 -0.1608 -0.5279
40232SOL    HW126659   3.174   5.204  12.248 -0.0982 -1.8796  0.7926
40232SOL    HW226660   3.109   5.105  12.153 -0.6546 -1.6068  0.8852
40233SOL     OW26661   5.152  12.459  12.455 -0.1800 -0.5621  0.0465
40233SOL    HW126662   5.098  12.529  12.493 -1.2794 -1.3421 -0.0338
40233SOL    HW226663   5.187  12.412  12.531  1.1523  0.4709  0.1176
40234SOL     OW26664   1.618   3.431   6.245  0.1634 -0.2631 -0.3028
40234SOL    HW126665   1.531   3.434   6.287 -0.3361 -1.3520 -1.2046
40234SOL    HW226666   1.633   3.521   6.216  0.3729  0.4589  1.8567
40235SOL     OW26667   4.674   8.501  10.548  0.0168  0.3428 -0.1835
40235SOL    HW126668   4.661   8.420  10.596 -0.0205  0.5993  0.2404
40235SOL    HW226669   4.680   8.473  10.456 -0.2270 -0.1115 -0.0659
40236SOL     OW26670  10.792   4.419   0.732 -0.0620  0.1380 -0.0449
40236SOL    HW126671  10.818   4.347   0.789  0.6319  0.7631  0.4506
40236SOL    HW226672  10.763   4.488   0.792 -0.4079  0.3895 -0.4961
40237SOL     OW26673   3.513  12.137   9.104  0.3794 -0.4586 -0.8560
40237SOL    HW126674   3.525  12.220   9.151  1.2856 -1.7110  1.2796
40237SOL    HW226675   3.430  12.148   9.058  0.0041  1.2965  0.1161
40238SOL     OW26676   2.504   2.396   8.092 -0.1490  0.2092 -0.2400
40238SOL    HW126677   2.499   2.311   8.049  0.4720 -0.2381  0.5466
40238SOL    HW226678   2.440   2.391   8.163  0.6270 -0.0058  0.4641
40239SOL     OW26679   3.269   8.654  11.708  0.2117  0.3109  0.5859
40239SOL    HW126680   3.187   8.701  11.723 -0.6258 -0.4942 -1.1246
40239SOL    HW226681   3.303   8.692  11.627  0.6573 -0.4873  0.3890
40240SOL     OW26682   8.962   4.770   9.486  0.1429  0.5727 -0.0885
40240SOL    HW126683   9.055   4.793   9.495 -0.2469  1.8455  1.1256
40240SOL    HW226684   8.921   4.810   9.563 -1.2645 -0.8361 -0.0783
40241SOL     OW26685   1.744  11.625   6.811 -0.1044 -0.1068  0.1582
40241SOL    HW126686   1.748  11.709   6.858  1.3087  0.2008 -0.4574
40241SOL    HW226687   1.716  11.562   6.878  0.8631  0.5022  1.1962
40242SOL     OW26688   4.813   4.935   4.376 -0.0353 -0.1065  0.4265
40242SOL    HW126689   4.892   4.882   4.368  0.1248  0.2102 -0.2195
40242SOL    HW226690   4.829   4.992   4.451  0.1451 -0.3938  0.6047
40243SOL     OW26691   5.885   6.287   8.119 -0.0872  0.0015 -0.5275
40243SOL    HW126692   5.956   6.306   8.057 -0.1012 -0.5435 -0.7161
40243SOL    HW226693   5.881   6.364   8.176  0.1182  0.3828 -1.0248
40244SOL     OW26694  12.131  11.186   0.232 -0.4129 -0.0334  0.3238
40244SOL    HW126695  12.058  11.157   0.288 -0.6368 -0.4264 -0.1682
40244SOL    HW226696  12.104  11.273   0.201  0.3239  0.8120  1.9145
40245SOL     OW26697  12.361   9.773  11.825 -0.5752  0.2179  0.0222
40245SOL    HW126698  12.279   9.750  11.868  0.3323 -1.0854  1.1938
40245SOL    HW226699  12.425   9.778  11.897  1.1278 -2.4917 -1.1370
40246SOL     OW26700   5.605   5.888   4.398  0.2560 -0.7446  0.1418
40246SOL    HW126701   5.679   5.946   4.413  0.3544 -1.1930  1.4255
40246SOL    HW226702   5.640   5.819   4.341  1.0673 -1.4289  1.4427
40247SOL     OW26703   5.271   6.014  10.421 -0.4206  0.1953 -0.5738
40247SOL    HW126704   5.295   5.979  10.335 -0.7813 -1.2020 -0.1295
40247SOL    HW226705   5.313   5.954  10.484 -2.0164 -0.1310  0.2196
40248SOL     OW26706   7.255   1.593  12.380  0.6378 -0.5482  0.2529
40248SOL    HW126707   7.261   1.637  12.465  0.9354  2.0887 -1.0366
40248SOL    HW226708   7.164   1.602  12.354  1.2260  1.9949 -1.2620
40249SOL     OW26709   2.659   9.440  11.702 -0.4863 -0.3371 -0.3049
40249SOL    HW126710   2.731   9.412  11.758  0.0885  0.1191 -0.8113
40249SOL    HW226711   2.675   9.395  11.618 -0.8007 -0.2480 -0.4145
40250SOL     OW26712   8.984   0.804   3.567  0.2947 -0.0087 -0.5594
40250SOL    HW126713   8.929   0.728   3.586  1.8213 -0.9955  0.0368
40250SOL    HW226714   8.952   0.873   3.625 -0.2908 -0.5700 -0.2150
40251SOL     OW26715   2.085   5.239   0.377  0.4431 -1.0168 -0.2767
40251SOL    HW126716   2.114   5.243   0.468 -2.2936  0.3037  0.6335
40251SOL    HW226717   2.135   5.308   0.333  1.1670 -1.0986  0.3863
40252SOL     OW26718   4.212   1.982   2.643  0.3884  0.3729  0.5894
40252SOL    HW126719   4.185   1.921   2.574  1.7929 -0.9614  1.1428
40252SOL    HW226720   4.271   2.043   2.599 -1.0561  1.4078  0.0205
40253SOL     OW26721  10.713  11.052   6.376  0.3534 -0.2368  0.0657
40253SOL    HW126722  10.761  11.127   6.341 -0.5505 -0.2163 -1.2099
40253SOL    HW226723  10.685  11.004   6.298 -1.9283 -0.0726  0.7192
40254SOL     OW26724   2.166   2.333   5.787 -0.3299 -0.0905 -0.5417
40254SOL    HW126725   2.129   2.267   5.728 -1.2469 -0.8215  0.8040
40254SOL    HW226726   2.118   2.321   5.869  1.6268  0.1942  0.6941
40255SOL     OW26727  10.438  11.074   0.638 -0.2888  0.3397 -0.1281
40255SOL    HW126728  10.495  11.021   0.694 -1.7702 -1.8238 -0.5480
40255SOL    HW226729  10.483  11.075   0.554 -0.3321 -0.4278 -0.1672
40256SOL     OW26730  12.343   3.707   7.930 -1.2133 -0.6117 -0.2392
40256SOL    HW126731  12.258   3.751   7.933  0.0227  1.9024  0.0261
40256SOL    HW226732  12.384   3.739   7.850  1.0820  1.5648  1.6273
40257SOL     OW26733   9.131   5.305  12.341  0.0121  0.4710  0.0485
40257SOL    HW126734   9.080   5.345  12.271 -0.4794 -0.5454 -0.1833
40257SOL    HW226735   9.102   5.214  12.344  2.1959 -0.3090 -0.4696
40258SOL     OW26736   2.686  10.161   1.716 -0.4480  0.6297 -0.8483
40258SOL    HW126737   2.590  10.156   1.709 -0.9357  1.2359  3.0768
40258SOL    HW226738   2.707  10.251   1.693 -0.9859  0.8356 -0.5585
40259SOL     OW26739   9.272   9.789   9.521 -0.4305 -0.7457 -0.7823
40259SOL    HW126740   9.354   9.757   9.557 -1.3792 -2.2470  0.1482
40259SOL    HW226741   9.265   9.746   9.435 -0.8483 -1.6631 -0.2996
40260SOL     OW26742   9.854   5.066   9.305 -0.1608 -0.0771 -0.6782
40260SOL    HW126743   9.942   5.064   9.267  0.9929 -1.0720  1.7783
40260SOL    HW226744   9.836   4.974   9.325 -2.0463  0.0440 -1.6561
40261SOL     OW26745   9.476   1.469   7.766  0.1803  0.0232 -0.8094
40261SOL    HW126746   9.502   1.545   7.714  0.3142  0.1528 -0.5520
40261SOL    HW226747   9.508   1.488   7.854  0.5505 -0.4967 -0.8275
40262SOL     OW26748  10.303  12.325   0.099 -0.0423  0.3136 -0.2266
40262SOL    HW126749  10.302  12.282   0.013 -0.0572  0.7319 -0.4387
40262SOL    HW226750  10.324  12.255   0.161  2.0568  0.3986 -0.7885
40263SOL     OW26751   2.858   2.735  11.983 -0.7524 -0.2392  0.2320
40263SOL    HW126752   2.805   2.737  11.903  0.4895  2.7776 -0.6555
40263SOL    HW226753   2.946   2.758  11.953  0.0829 -0.6561  2.2697
40264SOL     OW26754   3.588   4.888   9.477  0.2917  0.1567  0.1538
40264SOL    HW126755   3.609   4.796   9.462  2.9851  0.8662 -1.1334
40264SOL    HW226756   3.513   4.906   9.421  0.8455 -0.8523 -0.9446
40265SOL     OW26757   1.446   3.494   3.706  0.5372 -0.5260  0.2948
40265SOL    HW126758   1.521   3.444   3.672  1.9851  1.1614  0.8562
40265SOL    HW226759   1.465   3.507   3.798 -0.3288  0.1652  0.3916
40266SOL     OW26760   7.803   6.577   6.701 -0.6079 -0.0542  0.6208
40266SOL    HW126761   7.755   6.640   6.755 -0.0347  0.2376  0.8002
40266SOL    HW226762   7.868   6.539   6.761 -0.1372  0.0877  0.2033
40267SOL     OW26763   8.883   7.412   9.555 -0.0048 -0.0536  0.3903
40267SOL    HW126764   8.947   7.346   9.580 -0.2235 -0.4443 -0.0636
40267SOL    HW226765   8.815   7.406   9.623  0.6673  0.7012  1.1419
40268SOL     OW26766   2.580   8.468  11.369 -0.1268 -0.0009  0.7987
40268SOL    HW126767   2.523   8.528  11.417  2.2499  1.5266  1.9196
40268SOL    HW226768   2.645   8.525  11.327 -0.4930 -1.4925 -2.0613
40269SOL     OW26769   3.598   4.039   5.619  0.0402  0.6152 -0.0416
40269SOL    HW126770   3.561   3.971   5.563 -0.0368 -0.5912  1.4260
40269SOL    HW226771   3.664   4.081   5.564  0.2333 -0.7723 -0.9326
40270SOL     OW26772   9.363   8.918   6.317 -0.3481 -0.6657 -0.0254
40270SOL    HW126773   9.283   8.899   6.365  0.3750  0.7983  1.8863
40270SOL    HW226774   9.415   8.838   6.324 -1.3407 -1.3893 -0.7134
40271SOL     OW26775   4.016   3.415   6.183  0.1467 -0.2034 -0.4991
40271SOL    HW126776   4.098   3.458   6.208 -0.2579 -0.4373  1.3720
40271SOL    HW226777   3.948   3.467   6.225 -0.7422  0.2381 -2.3756
40272SOL     OW26778  10.633   0.816   7.180  0.2312 -0.6180 -0.0111
40272SOL    HW126779  10.704   0.828   7.116  0.8056 -1.8556  0.3661
40272SOL    HW226780  10.561   0.869   7.146  1.1500  0.2273 -0.6965
40273SOL     OW26781  12.122   4.148  12.053  0.0109  0.3788 -0.4860
40273SOL    HW126782  12.181   4.119  11.984 -0.0196 -0.2905 -0.2423
40273SOL    HW226783  12.168   4.219  12.097  1.0193 -0.6910  0.2493
40274SOL     OW26784   2.678   0.786   2.638 -0.0598 -0.2306 -0.3213
40274SOL    HW126785   2.605   0.845   2.657 -1.0815 -0.8572 -2.0212
40274SOL    HW226786   2.663   0.711   2.697 -0.6650 -0.2529 -0.4943
40275SOL     OW26787   0.154   8.953  12.069  0.3889 -0.1356  0.2652
40275SOL    HW126788   0.075   8.918  12.029  0.7674 -0.8239  0.1151
40275SOL    HW226789   0.129   9.041  12.097 -0.3139 -0.2008 -0.1316
40276SOL     OW26790  11.300   5.364   0.004  0.3142 -0.2327 -0.2686
40276SOL    HW126791  11.342   5.308  -0.062  1.7546  2.5242 -1.8525
40276SOL    HW226792  11.372   5.392   0.060 -0.3770  0.0796  0.4779
40277SOL     OW26793  11.502   4.516  11.942 -0.3372 -0.3952  0.3820
40277SOL    HW126794  11.573   4.454  11.926  0.2617  0.6660 -1.3926
40277SOL    HW226795  11.534   4.571  12.013  0.2268 -0.5221  0.2316
40278SOL     OW26796  11.247   5.780   4.102 -0.0340  0.5362  0.0561
40278SOL    HW126797  11.208   5.713   4.158  0.7834  0.7313  0.8838
40278SOL    HW226798  11.286   5.843   4.163  3.2463 -0.6236 -0.6191
40279SOL     OW26799  10.303  10.702   1.559 -0.3566  0.1128  0.6342
40279SOL    HW126800  10.255  10.785   1.567 -0.8538 -0.1571  0.5049
40279SOL    HW226801  10.243  10.637   1.595  0.0987 -0.1722  0.8903
40280SOL     OW26802   9.923   9.143   0.355  0.1591 -0.0446 -0.2221
40280SOL    HW126803  10.013   9.170   0.369 -0.0059  0.5774 -0.3565
40280SOL    HW226804   9.879   9.221   0.321 -0.4159 -0.3558 -0.2025
40281SOL     OW26805   2.549   2.657   3.106  0.0223  0.4280  0.5223
40281SOL    HW126806   2.528   2.742   3.068  2.1308  0.6863 -0.2267
40281SOL    HW226807   2.630   2.673   3.156 -0.5548 -0.7519  1.8985
40282SOL     OW26808  11.639   1.897  10.306 -0.4106  0.0492  0.0125
40282SOL    HW126809  11.602   1.955  10.372  0.1365  0.1367  0.2419
40282SOL    HW226810  11.732   1.891  10.327 -0.2020  0.1782 -0.8196
40283SOL     OW26811  10.346   3.818   5.475 -0.2486  0.2226 -0.4355
40283SOL    HW126812  10.394   3.788   5.398 -0.6641  1.2310 -1.1138
40283SOL    HW226813  10.254   3.812   5.448 -0.5053 -1.1887  0.6558
40284SOL     OW26814   8.446   9.494  12.490 -0.3866 -0.3217 -0.4690
40284SOL    HW126815   8.450   9.448  12.574  0.2022  0.0939 -0.2598
40284SOL    HW226816   8.399   9.435  12.432 -1.0825 -0.4887  0.2365
40285SOL     OW26817   1.496   4.170   5.955  0.4754 -0.6640  0.1919
40285SOL    HW126818   1.452   4.085   5.958 -0.4108 -0.3966 -2.6082
40285SOL    HW226819   1.467   4.209   5.873  2.8286  1.2804  0.1820
40286SOL     OW26820   0.315   2.730  10.753 -0.4539  0.0006 -0.1148
40286SOL    HW126821   0.257   2.806  10.755 -0.3604  0.0463  1.6455
40286SOL    HW226822   0.279   2.670  10.817  0.3278 -0.8234 -0.4284
40287SOL     OW26823  11.361  10.718  12.388  0.5191  0.0267 -0.2077
40287SOL    HW126824  11.298  10.738  12.457  0.8429 -1.8339  0.6644
40287SOL    HW226825  11.317  10.746  12.307 -0.8017  0.1272  0.5152
40288SOL     OW26826   2.553   4.247   0.340  0.6422  0.4075  0.4300
40288SOL    HW126827   2.604   4.269   0.262  1.0173 -0.4969  0.4052
40288SOL    HW226828   2.550   4.328   0.391  0.8806  0.8508 -0.2511
40289SOL     OW26829  11.898   6.127   9.393 -0.0511 -0.2201  0.1848
40289SOL    HW126830  11.883   6.066   9.465 -0.2504  0.1313  0.4383
40289SOL    HW226831  11.981   6.098   9.355  1.3763  1.0729  2.0927
40290SOL     OW26832   0.672   4.720   7.042 -0.4499  1.0372  0.0190
40290SOL    HW126833   0.720   4.702   6.961  1.6987  0.4605  1.3308
40290SOL    HW226834   0.644   4.633   7.072  0.4507  0.9978  0.8211
40291SOL     OW26835   1.339   6.042   9.928  0.1213 -0.2410 -0.1885
40291SOL    HW126836   1.300   6.128   9.941 -0.6334 -0.6774  0.5937
40291SOL    HW226837   1.279   5.982   9.973  0.6661 -1.1637 -0.6632
40292SOL     OW26838   7.432   0.184   6.192  0.2519  0.1239 -0.3886
40292SOL    HW126839   7.473   0.226   6.268 -1.0134  1.1270 -0.2267
40292SOL    HW226840   7.339   0.203   6.202  0.0266  0.0036 -2.0424
40293SOL     OW26841   1.906   7.786   0.374 -0.2523 -0.5816 -0.1687
40293SOL    HW126842   1.938   7.792   0.285 -0.7612  0.3644 -0.3076
40293SOL    HW226843   1.974   7.738   0.421  1.3449  1.2447 -0.4700
40294SOL     OW26844   6.101   4.139   1.935 -0.3183  0.4860  0.1824
40294SOL    HW126845   6.129   4.097   1.854  0.9697  0.4413  0.6179
40294SOL    HW226846   6.030   4.198   1.909 -0.5086 -0.1748 -0.8240
40295SOL     OW26847   1.790   2.590   4.917 -0.4926 -0.3554  0.4653
40295SOL    HW126848   1.865   2.604   4.860 -0.8441 -0.8141 -0.1273
40295SOL    HW226849   1.813   2.634   4.999  0.0669  0.2101  0.0117
40296SOL     OW26850   2.076   9.655   4.634 -0.5082  0.4028  0.3300
40296SOL    HW126851   2.057   9.724   4.570  0.1002  0.4780  0.2295
40296SOL    HW226852   2.034   9.686   4.714 -0.7117  0.6231  0.1420
40297SOL     OW26853   2.974  12.272   1.668 -0.1402 -0.1817 -0.1858
40297SOL    HW126854   2.982  12.196   1.610  0.4559 -0.3387  0.0987
40297SOL    HW226855   2.915  12.332   1.621  1.0097  0.0760 -1.3653
40298SOL     OW26856  11.176   0.622  11.898 -0.0664 -0.2392 -0.1606
40298SOL    HW126857  11.095   0.574  11.877 -0.3992 -0.3455  1.2436
40298SOL    HW226858  11.225   0.622  11.816 -1.5167 -0.1079 -1.0753
40299SOL     OW26859   0.833   5.937   2.310  0.4668 -0.1901  0.5207
40299SOL    HW126860   0.922   5.910   2.332  0.5602  1.3723  2.2585
40299SOL    HW226861   0.788   5.941   2.394 -0.9585  0.0696 -0.2307
40300SOL     OW26862   8.056   9.127  10.927  0.0180  0.1915 -0.1409
40300SOL    HW126863   8.075   9.177  10.848 -1.1405  2.9350  1.1834
40300SOL    HW226864   7.996   9.058  10.898  0.2144  0.6701 -1.7814
40301SOL     OW26865   2.628  12.235  10.865 -0.0109 -0.0482  0.4920
40301SOL    HW126866   2.665  12.280  10.941  1.8489  1.1773 -1.0280
40301SOL    HW226867   2.685  12.159  10.852  0.3242  0.3151 -0.2386
40302SOL     OW26868   0.361   8.568   6.026  0.2606 -0.2683  0.0375
40302SOL    HW126869   0.453   8.570   5.999 -0.0460 -0.5684 -1.0870
40302SOL    HW226870   0.359   8.512   6.103  1.0719  0.0217  0.2751
40303SOL     OW26871   0.486   2.801   3.270 -0.7346 -0.4688  0.0702
40303SOL    HW126872   0.411   2.752   3.304 -1.4826 -0.5362 -1.5806
40303SOL    HW226873   0.510   2.756   3.189 -0.1921  0.7469 -0.4752
40304SOL     OW26874   2.468  11.037   1.971  0.7713  0.2070  0.0102
40304SOL    HW126875   2.489  11.106   1.908 -0.6644  0.1282 -0.6085
40304SOL    HW226876   2.374  11.047   1.985  0.8451 -0.6161  1.1479
40305SOL     OW26877  10.420   8.859   9.049  0.3707  0.0394  0.2002
40305SOL    HW126878  10.470   8.816   8.979  1.3504  2.4713 -0.7026
40305SOL    HW226879  10.362   8.920   9.004 -2.9218 -2.0354  1.2897
40306SOL     OW26880   9.863   0.642  11.683  0.4081 -0.4272  0.1264
40306SOL    HW126881   9.865   0.600  11.597 -0.1904 -1.8743  0.7847
40306SOL    HW226882   9.843   0.734  11.664 -0.2953 -0.8325 -1.2448
40307SOL     OW26883  10.697   8.599   4.858  0.2017 -0.2759 -0.3110
40307SOL    HW126884  10.633   8.555   4.915  0.5803  0.3702  0.6382
40307SOL    HW226885  10.649   8.673   4.821  0.5894  0.6702  1.0169
40308SOL     OW26886   2.147   7.362   8.542 -0.2755  0.1931  0.0706
40308SOL    HW126887   2.150   7.271   8.571  0.2223 -0.3138 -1.4533
40308SOL    HW226888   2.058   7.391   8.562 -0.3039 -0.4827  0.9664
40309SOL     OW26889   4.379   9.812   6.635 -0.5221 -0.2264  0.5930
40309SOL    HW126890   4.378   9.773   6.723  0.4368 -0.6852  0.4146
40309SOL    HW226891   4.313   9.882   6.639  0.2124  0.4236  1.9891
40310SOL     OW26892   0.541  10.802  12.410 -0.2268  0.2249  0.7292
40310SOL    HW126893   0.529  10.753  12.329  0.7873 -1.2276  1.4126
40310SOL    HW226894   0.544  10.894  12.382 -0.5225 -0.1998 -0.7869
40311SOL     OW26895  11.315   3.571  10.603 -0.4997  0.4160 -0.3252
40311SOL    HW126896  11.321   3.644  10.542  0.8225  0.0175 -0.7034
40311SOL    HW226897  11.395   3.576  10.656 -0.3130 -0.8169 -0.4497
40312SOL     OW26898  11.131  10.846   6.861 -0.2329  0.0879  0.0684
40312SOL    HW126899  11.049  10.834   6.811 -0.5447  0.5215  0.4695
40312SOL    HW226900  11.194  10.875   6.795 -0.4751  0.0224 -0.1994
40313SOL     OW26901   9.733   7.927   0.208  0.2127  0.6403 -0.0707
40313SOL    HW126902   9.726   7.845   0.257  2.0079 -0.1461 -1.0045
40313SOL    HW226903   9.797   7.978   0.258  1.7471 -0.0053 -1.2687
40314SOL     OW26904   6.825   1.923   7.455 -0.1779 -0.1084  0.2376
40314SOL    HW126905   6.891   1.987   7.483  0.4126 -0.3801 -0.5327
40314SOL    HW226906   6.774   1.906   7.535 -0.1284  1.0528  0.5470
40315SOL     OW26907  11.709  11.172   2.761  0.1433  0.3481 -0.3994
40315SOL    HW126908  11.663  11.255   2.749 -1.4210 -0.3878  0.2437
40315SOL    HW226909  11.655  11.123   2.823  0.4833 -1.5578 -1.5381
40316SOL     OW26910   8.206  12.371   9.542 -0.0804  0.3737 -0.1535
40316SOL    HW126911   8.277  12.336   9.487 -0.1657 -1.2148  0.6941
40316SOL    HW226912   8.251  12.407   9.618 -0.1437 -0.4091  0.2665
40317SOL     OW26913   6.226  11.098   0.954  0.0165  0.4168 -0.0709
40317SOL    HW126914   6.290  11.165   0.930 -0.8383  1.3154  0.0399
40317SOL    HW226915   6.142  11.145   0.954 -0.5497 -0.5591  0.4655
40318SOL     OW26916  11.856   4.602  11.063  0.1322 -0.1379 -0.5851
40318SOL    HW126917  11.871   4.566  10.975  1.0018  0.7710 -0.8278
40318SOL    HW226918  11.808   4.683  11.048  0.5160  0.1566 -0.2533
40319SOL     OW26919   5.184   8.381   4.121  0.1443  0.1171 -0.2668
40319SOL    HW126920   5.224   8.425   4.046 -0.9591  0.1689 -0.8494
40319SOL    HW226921   5.255   8.372   4.184  1.2006 -0.2967 -1.4733
40320SOL     OW26922   1.722   9.942   1.674 -0.4860  0.1140 -0.2097
40320SOL    HW126923   1.656   9.963   1.740  0.7514  2.4069  0.4015
40320SOL    HW226924   1.780   9.880   1.718 -0.7328  0.1629  0.1932
40321SOL     OW26925   4.287   5.098   1.051 -0.2647  0.0752 -0.3875
40321SOL    HW126926   4.297   5.193   1.058 -0.7195  0.0750  0.3387
40321SOL    HW226927   4.352   5.072   0.984  1.4143  0.6228  0.9512
40322SOL     OW26928   5.707   1.793  12.186  0.5088  0.2561 -0.4039
40322SOL    HW126929   5.722   1.699  12.174  2.1619  0.2562  1.2484
40322SOL    HW226930   5.617   1.799  12.218  0.3591 -0.7473 -0.6021
40323SOL     OW26931   7.625  12.401   3.140  0.1308 -0.3949 -0.4148
40323SOL    HW126932   7.626  12.309   3.112  0.0746  0.0849 -2.1318
40323SOL    HW226933   7.713  12.416   3.174  0.1562 -1.0646 -0.1648
40324SOL     OW26934   2.401   9.468   2.350  0.3098  0.2731  0.2507
40324SOL    HW126935   2.395   9.372   2.349  1.2651  0.1918 -0.9059
40324SOL    HW226936   2.485   9.486   2.393  0.6353  0.5335 -0.4791
40325SOL     OW26937   8.844   6.165   0.228 -0.2498 -0.0139  0.1652
40325SOL    HW126938   8.803   6.250   0.215  0.9371  0.7138  0.9307
40325SOL    HW226939   8.784   6.102   0.188 -1.9814  1.0047  1.0565
40326SOL     OW26940   4.838  11.772  10.916 -0.0825 -0.0112 -0.2428
40326SOL    HW126941   4.908  11.799  10.976 -0.2915  1.8484 -0.7575
40326SOL    HW226942   4.778  11.847  10.916 -0.0664  0.0702 -2.8033
40327SOL     OW26943   0.461   4.984   4.249 -0.3091  0.5824  0.5022
40327SOL    HW126944   0.533   5.040   4.277  0.3601  0.0193 -0.0264
40327SOL    HW226945   0.453   5.001   4.155 -0.3151  0.0417  0.4013
40328SOL     OW26946   8.034   8.940   7.593 -0.0903 -0.3430  0.5061
40328SOL    HW126947   8.040   9.034   7.575  0.6015 -0.7845 -1.9647
40328SOL    HW226948   8.089   8.926   7.669  0.3026  1.1721  0.5319
40329SOL     OW26949   7.319  10.393   1.547 -0.0834  0.8713  0.1599
40329SOL    HW126950   7.362  10.456   1.606  3.2639 -0.5568 -0.5523
40329SOL    HW226951   7.318  10.437   1.462 -1.9703  1.6671  0.5482
40330SOL     OW26952   4.747   9.305   1.933  0.3184  0.1367 -0.5171
40330SOL    HW126953   4.842   9.320   1.925  0.2571  0.6639 -0.3200
40330SOL    HW226954   4.737   9.211   1.925  0.9850 -0.0523  0.6249
40331SOL     OW26955   5.142   3.922   9.336 -0.0561 -0.2966  0.7044
40331SOL    HW126956   5.126   3.973   9.416  0.2807  1.7913 -0.4849
40331SOL    HW226957   5.236   3.928   9.322 -0.0069 -1.3071  0.5551
40332SOL     OW26958   0.572   8.557  10.744 -0.0750  0.2372  0.0184
40332SOL    HW126959   0.528   8.500  10.808 -1.2927  2.2637  1.0736
40332SOL    HW226960   0.501   8.592  10.690  0.6241  0.9597 -0.4581
40333SOL     OW26961   8.238  11.442   6.849  0.6905  0.4372 -0.0182
40333SOL    HW126962   8.294  11.414   6.776  1.0849 -0.6597  0.6934
40333SOL    HW226963   8.286  11.417   6.928 -0.8384 -0.6574  0.6152
40334SOL     OW26964   0.591   6.417   3.632 -0.6212  0.1924  0.0599
40334SOL    HW126965   0.635   6.333   3.630  1.0792  1.0408 -2.3897
40334SOL    HW226966   0.512   6.404   3.580 -0.4550  0.0700 -0.1623
40335SOL     OW26967  11.782  10.220   6.326  0.1463  0.3495 -0.0088
40335SOL    HW126968  11.692  10.245   6.304  0.1138  0.3053  0.0725
40335SOL    HW226969  11.834  10.251   6.252  0.0948  0.5737  0.0472
40336SOL     OW26970   2.934  12.044   2.052  0.4450  0.2309 -0.0056
40336SOL    HW126971   2.964  11.985   1.983  0.5549 -1.3542  1.3334
40336SOL    HW226972   2.858  12.089   2.014 -0.1561 -1.3918 -0.7992
40337SOL     OW26973  12.483   5.039   7.020  0.2982 -0.0159  0.3116
40337SOL    HW126974  12.482   5.069   7.111 -0.6644 -0.6289  0.5129
40337SOL    HW226975  12.520   4.950   7.024 -1.9758 -1.0256  0.4527
40338SOL     OW26976   4.320   8.712   1.259  0.5472  1.0911 -0.1427
40338SOL    HW126977   4.366   8.721   1.342  2.0556  0.5900 -0.8956
40338SOL    HW226978   4.373   8.760   1.196  0.3115  0.1094 -1.1272
40339SOL     OW26979   8.949   7.956   5.211  0.0627 -0.4354  0.8042
40339SOL    HW126980   8.898   7.876   5.198 -0.6548 -0.0872  1.3471
40339SOL    HW226981   8.916   7.992   5.294 -1.5178  1.7891 -0.6629
40340SOL     OW26982   1.696   4.590  11.890  0.0405  1.5982 -0.1891
40340SOL    HW126983   1.698   4.636  11.975  0.5490 -0.7339  1.1420
40340SOL    HW226984   1.606   4.599  11.860 -1.0054 -0.0455  2.1400
40341SOL     OW26985   8.050  11.027   0.462  0.1104 -0.2538  0.6768
40341SOL    HW126986   8.012  10.960   0.405 -0.3919  1.1325 -0.7026
40341SOL    HW226987   8.068  10.982   0.544  0.7828 -2.3237 -0.5317
40342SOL     OW26988   3.250   0.034   3.233 -0.1352  0.3123  0.6879
40342SOL    HW126989   3.270   0.038   3.140 -1.5143 -2.8982  0.1283
40342SOL    HW226990   3.290   0.113   3.270 -0.7769  2.4759 -2.8051
40343SOL     OW26991   1.044  11.222  11.795  0.1987 -0.0427 -0.0282
40343SOL    HW126992   1.058  11.174  11.877  1.9000 -0.2674 -0.3927
40343SOL    HW226993   1.030  11.154  11.730  0.0276  0.0757 -0.1137
40344SOL     OW26994  11.104   1.599   5.527 -0.3511 -0.1418 -0.5449
40344SOL    HW126995  11.069   1.564   5.609 -0.1561  0.9701  0.0243
40344SOL    HW226996  11.180   1.650   5.553  0.5194 -0.8733 -1.5754
40345SOL     OW26997  10.876   8.929   8.791  0.1090 -0.2161 -0.1549
40345SOL    HW126998  10.903   8.968   8.708  0.1122  0.1585  0.0187
40345SOL    HW226999  10.915   8.842   8.791 -0.3367 -0.4230 -0.7883
40346SOL     OW27000   1.591   3.556   0.711  0.0170  0.5518  0.0432
40346SOL    HW127001   1.513   3.521   0.753  0.3991  0.4283  0.6649
40346SOL    HW227002   1.617   3.630   0.765  1.6625 -0.8106  1.2655
40347SOL     OW27003   6.070   3.921   5.289  0.3178  0.4637 -0.1158
40347SOL    HW127004   6.013   3.872   5.349  0.2483  1.5774  0.7696
40347SOL    HW227005   6.029   3.911   5.203  1.1245 -2.2683 -0.2705
40348SOL     OW27006   0.710   6.503   1.357  0.3554  0.0436 -0.7459
40348SOL    HW127007   0.619   6.512   1.328  0.9727  0.4881 -2.6674
40348SOL    HW227008   0.707   6.434   1.423 -1.2754 -0.4538 -1.2917
40349SOL     OW27009  10.874   6.046   8.914 -0.2956  0.2454  0.1631
40349SOL    HW127010  10.803   6.074   8.972 -1.0924 -0.7724 -0.2911
40349SOL    HW227011  10.831   6.032   8.829  0.5232  0.0117 -0.2161
40350SOL     OW27012   3.728   3.881   8.981  0.3015 -0.3970  0.1330
40350SOL    HW127013   3.664   3.904   9.049  0.4092 -0.6893  0.3356
40350SOL    HW227014   3.729   3.786   8.981 -0.2340 -0.4039 -0.7889
40351SOL     OW27015   7.957   4.534   1.060 -0.0868 -0.0378 -0.0490
40351SOL    HW127016   7.920   4.452   1.028 -0.2573 -0.5012  1.2851
40351SOL    HW227017   7.885   4.597   1.052 -0.4369 -0.3799  0.3299
40352SOL     OW27018   0.695   7.670  10.540 -0.2278 -0.3092 -0.6142
40352SOL    HW127019   0.728   7.679  10.630  2.3308 -3.0410 -1.1346
40352SOL    HW227020   0.712   7.755  10.500  0.4686  0.3176  0.9307
40353SOL     OW27021   4.230   0.826   7.996 -0.4702  0.3531 -0.4337
40353SOL    HW127022   4.259   0.834   8.087  2.4247  1.6745 -1.3620
40353SOL    HW227023   4.304   0.856   7.944 -2.8426  1.9548 -3.2114
40354SOL     OW27024  11.175  10.378   3.090 -0.1093 -0.0390 -0.1562
40354SOL    HW127025  11.254  10.339   3.052 -0.2480 -1.1167  0.6277
40354SOL    HW227026  11.105  10.316   3.069 -0.3719 -0.1291  0.9184
40355SOL     OW27027   2.408   1.542   6.621  0.0513  0.3003  0.2130
40355SOL    HW127028   2.331   1.594   6.644 -0.0567  0.7327 -1.0166
40355SOL    HW227029   2.397   1.523   6.527  0.5178 -1.2213  0.4301
40356SOL     OW27030   3.282  10.870   0.315 -0.3099 -0.2883  0.2684
40356SOL    HW127031   3.250  10.823   0.238 -0.1610 -1.4751  0.8923
40356SOL    HW227032   3.376  10.855   0.315  0.0569  1.6956 -0.5801
40357SOL     OW27033   4.318   0.756   4.732  0.4270  0.5187 -0.0610
40357SOL    HW127034   4.365   0.840   4.729  1.7815 -0.2184 -0.0309
40357SOL    HW227035   4.319   0.732   4.825 -1.3364  1.1990  0.1672
40358SOL     OW27036   8.086   0.161   6.312 -0.0061 -0.4887  0.0917
40358SOL    HW127037   8.069   0.246   6.271  1.2993  0.5364  1.5044
40358SOL    HW227038   8.177   0.143   6.292 -0.4219 -1.8729 -0.6555
40359SOL     OW27039  10.707   2.083   4.377  0.2726  0.5305  0.2775
40359SOL    HW127040  10.714   2.012   4.313  1.9981  0.8617  0.0572
40359SOL    HW227041  10.674   2.041   4.456  0.4370 -0.3456 -0.1052
40360SOL     OW27042   3.132   8.220   5.189 -0.4699 -0.0941 -0.1808
40360SOL    HW127043   3.216   8.221   5.234 -0.3910  0.4517 -0.3426
40360SOL    HW227044   3.153   8.241   5.097 -1.0804  3.0663  0.2929
40361SOL     OW27045   1.595  11.899  12.444 -0.5731  0.3895 -0.5895
40361SOL    HW127046   1.557  11.837  12.506  0.2294  0.3204 -0.1518
40361SOL    HW227047   1.570  11.865  12.358  0.8261 -1.2378 -0.4126
40362SOL     OW27048  10.785   3.651  12.070  0.0423 -1.1236 -0.0911
40362SOL    HW127049  10.751   3.716  12.131 -4.1443 -1.3176 -1.8679
40362SOL    HW227050  10.834   3.701  12.005 -1.7682  0.1530 -0.5533
40363SOL     OW27051   7.309  11.176   8.964 -0.5306  0.5784  0.1445
40363SOL    HW127052   7.220  11.142   8.966 -0.0556 -0.7418  0.0597
40363SOL    HW227053   7.319  11.221   9.048 -0.3541 -1.8424  1.5286
40364SOL     OW27054  11.564   3.716   1.969 -0.0169 -0.2854  0.4930
40364SOL    HW127055  11.571   3.623   1.949 -1.4330 -0.0747 -1.2981
40364SOL    HW227056  11.474   3.727   2.000 -0.4806  0.7467 -1.1133
40365SOL     OW27057   5.853   9.104  11.566 -0.1038 -0.9716  0.2469
40365SOL    HW127058   5.884   9.194  11.559 -1.4909 -0.5216 -0.5252
40365SOL    HW227059   5.811   9.098  11.652  2.6136 -1.8025  1.6396
40366SOL     OW27060   9.582  10.934   0.334  0.5515 -0.5620  0.4491
40366SOL    HW127061   9.521  10.997   0.294  0.8258 -0.5280  0.0795
40366SOL    HW227062   9.555  10.930   0.426  0.3553 -0.1155  0.4132
40367SOL     OW27063   6.684   5.953   7.754 -0.5161  0.2436 -0.7788
40367SOL    HW127064   6.605   5.970   7.805 -0.8931  1.2314 -1.6552
40367SOL    HW227065   6.745   6.021   7.783  0.6620 -1.5139  1.1246
40368SOL     OW27066   6.290   8.099   7.816 -0.1677 -0.0459  0.4379
40368SOL    HW127067   6.354   8.125   7.883 -0.9967  1.3883  0.7221
40368SOL    HW227068   6.226   8.046   7.864  1.2250 -2.2945 -0.0297
40369SOL     OW27069  11.219  11.241  11.186  0.0486  0.6503 -0.4858
40369SOL    HW127070  11.248  11.251  11.095  0.9493 -0.7456 -0.3764
40369SOL    HW227071  11.216  11.330  11.220  2.7127  1.0148 -1.0001
40370SOL     OW27072   5.792  12.490   2.872 -0.1142  0.3241  0.1852
40370SOL    HW127073   5.746  12.418   2.915  2.4822 -0.7146  1.4572
40370SOL    HW227074   5.881  12.458   2.861  1.4442  3.6883  1.7300
40371SOL     OW27075   4.529   0.947   5.113 -0.0618  0.0265 -0.4140
40371SOL    HW127076   4.447   0.898   5.123 -0.9632  1.1681 -1.8640
40371SOL    HW227077   4.502   1.033   5.081  1.5862  1.0446  0.7846
40372SOL     OW27078   9.261   1.711   0.054 -0.4633 -0.1126  0.1075
40372SOL    HW127079   9.331   1.765   0.017  0.6976 -0.5085  1.6233
40372SOL    HW227080   9.188   1.771   0.065 -0.5999  0.1783 -2.0469
40373SOL     OW27081   5.977   6.270   0.215 -0.1387 -0.6370  0.0922
40373SOL    HW127082   6.036   6.287   0.142 -1.6269 -1.0954 -1.2889
40373SOL    HW227083   5.901   6.228   0.174 -1.5506  0.2175  1.7465
40374SOL     OW27084   3.725   6.299   2.027  0.0751  0.8689 -0.1058
40374SOL    HW127085   3.717   6.331   2.117 -1.2868  0.4684 -0.0641
40374SOL    HW227086   3.819   6.283   2.016  0.4789  2.4270  0.7050
40375SOL     OW27087   8.562   2.162   7.945  0.5844  0.0338 -0.6270
40375SOL    HW127088   8.504   2.238   7.942  0.3137 -0.1788 -0.7906
40375SOL    HW227089   8.538   2.117   8.026 -0.5047 -0.8579 -1.4184
40376SOL     OW27090  10.725   0.940   8.140 -0.1844  0.3287 -0.1549
40376SOL    HW127091  10.630   0.932   8.149 -0.0307 -1.6521  0.2225
40376SOL    HW227092  10.756   0.961   8.228 -0.1866 -0.4860  0.0547
40377SOL     OW27093   2.482   1.232   7.291 -0.0996 -0.4301 -0.0258
40377SOL    HW127094   2.388   1.218   7.302 -0.0959 -0.9456 -0.5943
40377SOL    HW227095   2.491   1.268   7.203  0.1891  0.1625  0.2411
40378SOL     OW27096   4.395   3.973   7.069 -0.2193 -0.2215 -0.1401
40378SOL    HW127097   4.323   3.932   7.022 -0.8577 -1.8384  2.0584
40378SOL    HW227098   4.468   3.912   7.057 -0.3429 -0.5634  0.7785
40379SOL     OW27099   6.952   4.012   3.461  0.1622 -0.5296  0.2510
40379SOL    HW127100   6.940   3.918   3.453 -0.1394 -0.3870 -1.0609
40379SOL    HW227101   7.039   4.022   3.500 -0.6306 -1.3754  2.3644
40380SOL     OW27102   7.030   7.988   8.378  0.1995 -0.3188 -0.0643
40380SOL    HW127103   7.066   8.047   8.311  1.3675 -0.6716  0.2255
40380SOL    HW227104   7.060   7.901   8.351 -0.4499 -0.6260  0.1974
40381SOL     OW27105   7.103  11.019   9.064 -1.1401  0.5222 -0.1931
40381SOL    HW127106   7.184  10.968   9.070 -0.6097  1.4379  0.7476
40381SOL    HW227107   7.040  10.960   9.022  0.0457 -0.1585 -1.0620
40382SOL     OW27108   8.946   8.369  11.769 -0.5924 -0.0485  0.1219
40382SOL    HW127109   8.975   8.287  11.728 -1.6805 -0.3295 -0.1220
40382SOL    HW227110   8.966   8.357  11.862  1.7311  0.5189 -0.2539
40383SOL     OW27111   7.120   7.768   2.889  0.5337  0.4693 -0.2253
40383SOL    HW127112   7.140   7.818   2.809  0.7816  2.2436  0.8950
40383SOL    HW227113   7.036   7.804   2.919  0.3174 -0.3662  0.1909
40384SOL     OW27114   5.865  11.447   4.150 -0.0483  0.3276  0.4073
40384SOL    HW127115   5.837  11.364   4.189 -0.7152  0.2402 -0.2347
40384SOL    HW227116   5.946  11.426   4.105 -0.7706 -0.2538 -0.6751
40385SOL     OW27117  12.061   5.718   9.474  0.1015 -0.2907  0.1488
40385SOL    HW127118  11.987   5.724   9.413 -1.0486 -1.5816  1.3457
40385SOL    HW227119  12.020   5.708   9.560  1.6911  0.4655  1.0360
40386SOL     OW27120   1.254   9.571   6.353  0.3599 -0.3659 -0.6031
40386SOL    HW127121   1.202   9.494   6.330  1.8482 -1.3086 -0.9246
40386SOL    HW227122   1.315   9.540   6.420 -0.0217  0.9202  0.3801
40387SOL     OW27123   8.647   5.355   9.921 -0.4317  0.0836 -0.9549
40387SOL    HW127124   8.567   5.399   9.949 -1.5426 -2.2174 -0.2782
40387SOL    HW227125   8.682   5.316  10.000 -0.3984 -1.5569 -1.7298
40388SOL     OW27126  12.004  12.037   9.815 -0.0760  0.6429  0.2512
40388SOL    HW127127  11.941  12.042   9.743 -0.9353  1.4608  1.0354
40388SOL    HW227128  11.952  12.052   9.894  0.5508 -1.8738  1.2372
40389SOL     OW27129   3.536   7.577  11.436  0.2563  0.4152  0.2740
40389SOL    HW127130   3.492   7.506  11.483  1.9881 -0.0867  1.2152
40389SOL    HW227131   3.578   7.629  11.504  3.8304 -0.9887 -0.6032
40390SOL     OW27132   1.419   4.692  11.741 -0.3953  0.1394  0.2075
40390SOL    HW127133   1.398   4.716  11.651  2.8113 -2.5032 -1.4919
40390SOL    HW227134   1.497   4.744  11.762 -0.3114 -0.2629  0.9064
40391SOL     OW27135  11.449  10.080   9.278  0.1523  0.2377  0.0439
40391SOL    HW127136  11.406  10.159   9.244  2.0019  0.6880 -1.4062
40391SOL    HW227137  11.408  10.008   9.229  0.6359  0.6088 -0.9431
40392SOL     OW27138   7.055  11.439   5.531 -0.4202  0.4719 -0.5127
40392SOL    HW127139   7.147  11.415   5.541 -0.8156 -0.6750  0.5817
40392SOL    HW227140   7.044  11.514   5.589 -0.7275 -0.9642  1.3938
40393SOL     OW27141   4.836   2.188   8.830  0.3145  0.1849 -0.5706
40393SOL    HW127142   4.807   2.110   8.783  1.3014 -0.1173 -0.7050
40393SOL    HW227143   4.762   2.212   8.885  0.5809 -1.8639  0.7792
40394SOL     OW27144   4.533   1.821  11.047 -0.0684  0.1398  0.7837
40394SOL    HW127145   4.615   1.858  11.015  0.1347  0.2500  1.4239
40394SOL    HW227146   4.466   1.857  10.989  0.1802  1.1215  1.0976
40395SOL     OW27147   1.180   7.272  10.462 -0.0877  0.6553 -0.4030
40395SOL    HW127148   1.110   7.219  10.424 -1.3451  2.4192 -0.7076
40395SOL    HW227149   1.176   7.255  10.556 -0.3983  0.1331 -0.5106
40396SOL     OW27150   4.977   0.663   0.619  0.4658 -0.0129  0.5622
40396SOL    HW127151   4.985   0.635   0.710 -0.9910  0.4368  0.8566
40396SOL    HW227152   5.002   0.586   0.568  0.0571 -0.6905  1.3513
40397SOL     OW27153  11.981   8.376   4.504  0.1695 -0.0134  0.5351
40397SOL    HW127154  11.932   8.312   4.556 -0.3316 -0.0956 -0.0261
40397SOL    HW227155  12.063   8.331   4.481  0.3176 -0.0388  1.0936
40398SOL     OW27156   5.677   5.599   1.718 -0.2998  0.0801  0.2218
40398SOL    HW127157   5.731   5.674   1.739 -0.2108  0.1498 -0.2649
40398SOL    HW227158   5.691   5.583   1.625  1.8172 -2.2247  0.8311
40399SOL     OW27159  10.473   3.799   0.469  0.3978 -0.3801 -0.3078
40399SOL    HW127160  10.523   3.843   0.400  1.2635  0.3620  0.7683
40399SOL    HW227161  10.474   3.706   0.443  1.0598 -0.1737 -1.0750
40400SOL     OW27162   3.182   6.174   4.407  0.6399  0.7885  0.2510
40400SOL    HW127163   3.230   6.256   4.417  0.9432  0.4913  1.4404
40400SOL    HW227164   3.090   6.200   4.398  0.7955  1.2721  0.0548
40401SOL     OW27165   0.898  12.440   7.187  0.5769 -0.1767  0.0341
40401SOL    HW127166   0.818  12.406   7.228 -0.8219 -0.3146 -2.6053
40401SOL    HW227167   0.904  12.530   7.218 -1.0380  0.0646 -0.2972
40402SOL     OW27168   4.721   6.372   4.415 -0.1710 -0.0979  0.3887
40402SOL    HW127169   4.742   6.366   4.322  2.2620 -0.0451  0.8560
40402SOL    HW227170   4.661   6.299   4.431 -0.1345 -0.4829 -1.1102
40403SOL     OW27171   6.368   4.702  11.224  0.3501 -0.3732 -0.0559
40403SOL    HW127172   6.288   4.673  11.179 -1.5020  0.5837  2.3486
40403SOL    HW227173   6.372   4.796  11.208 -2.3192  0.7630  4.0928
40404SOL     OW27174   8.670   9.006   4.494  0.3992  0.1544 -0.5113
40404SOL    HW127175   8.636   8.922   4.526 -1.0553  0.4650 -1.1663
40404SOL    HW227176   8.661   9.001   4.399 -3.1371  2.3740 -0.4532
40405SOL     OW27177   9.608   5.981   4.540  0.2474 -0.4448 -0.1941
40405SOL    HW127178   9.690   6.011   4.502 -0.7130  1.0915 -1.1621
40405SOL    HW227179   9.580   5.908   4.484  0.5714 -0.4785 -0.3121
40406SOL     OW27180   7.619  11.219   9.834  0.5413 -0.3568 -0.2389
40406SOL    HW127181   7.675  11.254   9.765 -1.0541  1.7790 -0.5682
40406SOL    HW227182   7.530  11.229   9.800 -0.3344  1.1017  2.2018
40407SOL     OW27183   3.687   1.480   6.912 -0.5419  0.3153  0.4533
40407SOL    HW127184   3.705   1.387   6.925  0.7384  0.5383  0.4439
40407SOL    HW227185   3.665   1.488   6.820  0.5818  0.1808  0.1570
40408SOL     OW27186   8.839  11.914   6.838 -0.6048  0.5181 -0.7951
40408SOL    HW127187   8.864  11.995   6.793  0.5242  0.3120 -0.5708
40408SOL    HW227188   8.891  11.846   6.794 -1.3581 -0.0479 -0.8169
40409SOL     OW27189   3.354   3.466   1.972  0.4753  0.3117 -0.0861
40409SOL    HW127190   3.307   3.544   2.001  0.0661  0.3294 -0.7619
40409SOL    HW227191   3.285   3.400   1.958  0.7768 -0.0433  0.0837
40410SOL     OW27192   1.291  10.822   0.578  0.0127 -0.0595  0.1874
40410SOL    HW127193   1.305  10.884   0.507 -2.9073  1.9519  1.1717
40410SOL    HW227194   1.196  10.818   0.587  0.2188 -2.3593  2.2094
40411SOL     OW27195   7.467   5.039   4.849 -0.0313  0.5395 -0.5482
40411SOL    HW127196   7.501   4.950   4.853 -0.2082  0.3792 -1.9596
40411SOL    HW227197   7.545   5.095   4.858  0.1657  0.2313 -0.3477
40412SOL     OW27198   9.621   8.913  12.411  0.3515  0.2863 -0.0467
40412SOL    HW127199   9.620   8.998  12.455 -0.1030  0.1159  0.2876
40412SOL    HW227200   9.712   8.885  12.413  0.1848 -0.2650  1.8869
40413SOL     OW27201   8.603   0.101  10.580  0.0053 -0.2751  0.4947
40413SOL    HW127202   8.574   0.010  10.580 -0.2846 -0.2375 -2.2049
40413SOL    HW227203   8.695   0.096  10.607 -0.4737 -1.1201  2.1299
40414SOL     OW27204   4.406   9.417   2.346 -0.1834  0.2938 -0.2157
40414SOL    HW127205   4.336   9.444   2.406  0.4515 -0.7490  1.0621
40414SOL    HW227206   4.366   9.348   2.293  0.1972 -1.2696  1.4383
40415SOL     OW27207   6.604   1.053  11.984  0.4469 -0.1269  0.5177
40415SOL    HW127208   6.584   0.959  11.987  0.3047 -0.0645  1.8091
40415SOL    HW227209   6.698   1.058  12.000  0.6154 -0.0851 -0.4072
40416SOL     OW27210   7.638   0.762  12.338 -0.1522 -0.1865  0.1399
40416SOL    HW127211   7.726   0.751  12.375  0.1994 -0.6037 -0.7946
40416SOL    HW227212   7.594   0.680  12.361 -0.0711 -0.2687  0.0039
40417SOL     OW27213   6.921   8.479  11.924  0.1411  0.3406 -0.0060
40417SOL    HW127214   6.935   8.569  11.894  0.6142  0.1601 -0.3241
40417SOL    HW227215   6.859   8.488  11.997  0.2273  0.9308 -0.0009
40418SOL     OW27216   4.457  12.160   0.850 -0.1018  0.5405  0.2779
40418SOL    HW127217   4.460  12.183   0.757  0.5543  0.3337  0.2387
40418SOL    HW227218   4.532  12.101   0.862 -0.6039  0.0024  0.7896
40419SOL     OW27219  11.573   1.654   7.123 -0.0017  0.0269  0.2922
40419SOL    HW127220  11.557   1.690   7.036 -0.5714 -1.2952 -0.1678
40419SOL    HW227221  11.491   1.669   7.171  0.1241  0.2711  0.4340
40420SOL     OW27222  12.321   1.742  10.009  0.1984  0.1676  0.1599
40420SOL    HW127223  12.245   1.792  10.039 -0.1990 -0.6516  0.5663
40420SOL    HW227224  12.395   1.777  10.059 -0.0883  0.3115  0.4852
40421SOL     OW27225  11.992   2.176   6.852  0.0939 -0.0111 -0.7033
40421SOL    HW127226  11.910   2.224   6.842  0.1426 -0.2049 -2.1482
40421SOL    HW227227  11.991   2.111   6.782  1.4157 -0.1177 -0.6486
40422SOL     OW27228   9.499   3.451  11.120  1.1499 -0.0945  0.3254
40422SOL    HW127229   9.536   3.363  11.124  1.4631 -0.0572 -1.0500
40422SOL    HW227230   9.406   3.438  11.101  1.2980 -0.1384 -0.4099
40423SOL     OW27231   2.143  10.558   1.216 -0.2791 -0.3227 -0.1576
40423SOL    HW127232   2.206  10.495   1.251  0.3274  1.2988  1.8681
40423SOL    HW227233   2.192  10.607   1.150  0.1843  0.0597  0.4677
40424SOL     OW27234  12.287   1.849   3.374 -0.0037 -0.5804 -0.4300
40424SOL    HW127235  12.264   1.851   3.467  0.0704  0.1719 -0.4219
40424SOL    HW227236  12.295   1.756   3.353  1.9696 -0.7411  0.8129
40425SOL     OW27237   7.061   1.622  11.649  0.2987 -0.1611  0.5623
40425SOL    HW127238   7.092   1.608  11.738  2.3698  0.1394 -0.0649
40425SOL    HW227239   7.090   1.545  11.600 -0.4507 -0.1331  0.0418
40426SOL     OW27240   4.619   5.523   9.274 -0.3804  0.3434  0.3037
40426SOL    HW127241   4.662   5.585   9.334  0.8467 -0.7831  0.6165
40426SOL    HW227242   4.534   5.563   9.257  0.1058  1.7789  1.0515
40427SOL     OW27243   8.553   4.323   9.723  0.1596 -0.0873  0.2549
40427SOL    HW127244   8.599   4.330   9.807  0.2734  0.2164  0.1702
40427SOL    HW227245   8.548   4.229   9.706 -0.6130 -0.1983  1.0084
40428SOL     OW27246   1.661   1.169   6.859 -0.1567 -0.5463 -0.0299
40428SOL    HW127247   1.598   1.203   6.923  1.4395 -0.1668  1.4006
40428SOL    HW227248   1.610   1.159   6.779 -1.3199  2.9261  0.0983
40429SOL     OW27249   2.408   8.546   9.925  0.5671  0.0845  0.5058
40429SOL    HW127250   2.468   8.590   9.984 -0.4345  0.5244  1.2291
40429SOL    HW227251   2.328   8.598   9.929  1.4402  2.1452 -3.8562
40430SOL     OW27252  12.327   9.587   8.989  0.1600  1.0301  0.3096
40430SOL    HW127253  12.243   9.541   8.988  0.2654  0.7938  1.1500
40430SOL    HW227254  12.359   9.582   8.899  0.0316 -0.2803  0.3197
40431SOL     OW27255  10.800  11.386   1.206  0.2258  0.4872 -0.5929
40431SOL    HW127256  10.725  11.327   1.212 -0.4942  1.3086 -1.2001
40431SOL    HW227257  10.810  11.423   1.294  1.1854 -1.0997  0.0036
40432SOL     OW27258  11.361   3.297   0.727 -0.8133  0.0555 -0.1211
40432SOL    HW127259  11.392   3.300   0.637  2.1278 -1.6263  0.7087
40432SOL    HW227260  11.389   3.380   0.766  1.9266 -0.9454  0.2863
40433SOL     OW27261   5.324   7.876  10.998 -0.4068 -0.3151  0.1943
40433SOL    HW127262   5.404   7.825  10.999  0.9800  1.7377  0.2111
40433SOL    HW227263   5.320   7.912  10.910  0.6938  2.4457  1.1540
40434SOL     OW27264   3.828   4.115   9.242 -0.1042 -0.5638  0.3506
40434SOL    HW127265   3.843   4.024   9.267 -0.8449 -0.8315 -0.1288
40434SOL    HW227266   3.887   4.130   9.168  0.6507 -0.3794  0.9816
40435SOL     OW27267   7.518   4.982   8.380 -0.2343 -0.2729 -0.5510
40435SOL    HW127268   7.442   5.039   8.378  0.1793  0.5066  1.9760
40435SOL    HW227269   7.494   4.913   8.443  1.1445  0.0541  0.3806
40436SOL     OW27270  10.350  10.467   7.842 -0.3642 -0.2184  0.2931
40436SOL    HW127271  10.304  10.389   7.872  0.5429 -1.2829 -0.9866
40436SOL    HW227272  10.441  10.439   7.830  0.0021  1.0502 -0.1225
40437SOL     OW27273   4.875   2.018  12.034 -0.7006 -0.7007 -0.5551
40437SOL    HW127274   4.857   2.080  12.105 -0.4246  0.0929 -1.1560
40437SOL    HW227275   4.810   2.039  11.967 -0.8040 -1.2832 -0.6423
40438SOL     OW27276   7.062   9.995   0.329 -0.1567  0.2711 -0.9112
40438SOL    HW127277   7.109   9.918   0.360 -0.4331  0.0989 -0.9115
40438SOL    HW227278   6.976   9.961   0.303 -0.7803  0.7767  0.3969
40439SOL     OW27279   4.829   6.117   1.439  0.0428 -0.2129  0.1242
40439SOL    HW127280   4.839   6.030   1.401 -0.4686  0.2215 -1.0523
40439SOL    HW227281   4.810   6.174   1.364  0.6381  0.9593  0.8347
40440SOL     OW27282   7.301   7.288   4.629  0.1116  0.5059  0.3144
40440SOL    HW127283   7.356   7.366   4.620 -0.0190  0.5543 -0.0688
40440SOL    HW227284   7.232   7.300   4.564 -2.3965  2.1334  3.0081
40441SOL     OW27285   3.611   9.286   1.948  0.4905 -0.2753 -0.1784
40441SOL    HW127286   3.528   9.314   1.986 -0.5884 -2.0375 -1.1161
40441SOL    HW227287   3.630   9.202   1.989  2.9959  1.0406  1.6330
40442SOL     OW27288  10.508   9.166   9.223  0.0776 -0.3526 -0.2216
40442SOL    HW127289  10.466   9.151   9.308  2.3592 -1.5926  0.7872
40442SOL    HW227290  10.540   9.080   9.197  0.4574  0.2316 -1.7972
40443SOL     OW27291  11.569   3.544   2.894 -0.3002  0.4226 -0.0640
40443SOL    HW127292  11.611   3.618   2.850  0.2505 -0.1229 -0.4821
40443SOL    HW227293  11.643   3.493   2.928 -0.6871  0.2513  0.5255
40444SOL     OW27294  11.106   1.606  10.139  0.1071 -0.3262 -0.4102
40444SOL    HW127295  11.117   1.561  10.055  0.4504 -1.5546  0.2585
40444SOL    HW227296  11.092   1.535  10.202  3.3805  0.2597  1.1730
40445SOL     OW27297   2.122   9.631  12.455 -0.4078  0.2711 -0.1002
40445SOL    HW127298   2.103   9.610  12.547  0.2490  1.4035  0.3012
40445SOL    HW227299   2.193   9.572  12.431 -0.0759  0.4863  0.3487
40446SOL     OW27300  10.332  11.542   9.058 -0.3817  0.0776 -0.5332
40446SOL    HW127301  10.375  11.580   9.134  1.3595 -1.9683 -0.4000
40446SOL    HW227302  10.306  11.617   9.004 -0.7021  1.5265  1.5402
40447SOL     OW27303   9.893   8.762   4.820 -0.2044 -0.1546 -0.2699
40447SOL    HW127304   9.893   8.857   4.805  0.2260 -0.2405 -0.8831
40447SOL    HW227305   9.916   8.752   4.912 -0.7555  0.3521 -0.0765
40448SOL     OW27306   7.978   2.007   5.517  0.0400 -0.0718  0.2167
40448SOL    HW127307   8.057   2.027   5.466  1.2784 -0.2792  1.9788
40448SOL    HW227308   7.998   1.925   5.561 -2.5788 -2.1235 -2.0119
40449SOL     OW27309   8.386   4.234  10.056 -0.1007  0.0333  0.3838
40449SOL    HW127310   8.387   4.160   9.996  0.1370 -0.3123  0.8091
40449SOL    HW227311   8.465   4.222  10.110  0.0262  0.6777  0.3519
40450SOL     OW27312   0.676  12.288  10.803 -0.2650  0.2660  0.4918
40450SOL    HW127313   0.612  12.247  10.745  0.2672  1.8642 -1.3327
40450SOL    HW227314   0.625  12.322  10.877 -1.1679 -0.5136  0.2378
40451SOL     OW27315   7.633   1.568   1.695 -0.3114 -0.3854  0.1547
40451SOL    HW127316   7.543   1.538   1.707  0.1042 -1.3373  0.9965
40451SOL    HW227317   7.683   1.522   1.762  0.6138  1.0622  0.5113
40452SOL     OW27318   3.074   2.686  11.248 -0.0184 -0.0226 -0.1191
40452SOL    HW127319   3.159   2.647  11.227 -0.1718  0.1720 -1.1269
40452SOL    HW227320   3.078   2.774  11.211 -1.7162 -0.9786 -2.8429
40453SOL     OW27321   8.008   1.003   3.593  0.1955 -0.6077 -0.0543
40453SOL    HW127322   7.996   1.018   3.499  0.4764  1.2722  0.1755
40453SOL    HW227323   8.074   0.934   3.598  2.5211  1.3716 -1.2824
40454SOL     OW27324  10.016   4.824   3.974 -0.7080  0.2004 -0.0779
40454SOL    HW127325  10.106   4.823   3.941 -0.4312 -1.5717  0.5978
40454SOL    HW227326  10.007   4.910   4.016  0.8299  0.2355  0.2478
40455SOL     OW27327   9.380   9.329   7.362 -0.1816  0.2303 -0.1584
40455SOL    HW127328   9.365   9.251   7.308  1.3581 -1.0653  1.1951
40455SOL    HW227329   9.453   9.374   7.320  0.7139 -0.5349  0.5319
40456SOL     OW27330   0.432   2.257   4.047 -0.0081 -0.6360 -0.0006
40456SOL    HW127331   0.505   2.318   4.063 -0.1414 -0.9376  2.0360
40456SOL    HW227332   0.473   2.171   4.042 -0.0666 -0.6362 -0.5830
40457SOL     OW27333   1.446  10.899   3.656  0.3044 -0.2014  0.0164
40457SOL    HW127334   1.447  10.812   3.696  0.5273 -0.3570 -0.3174
40457SOL    HW227335   1.396  10.953   3.717 -1.5961 -1.0211 -0.7468
40458SOL     OW27336   4.258   2.508   7.145  0.1675  0.6250 -0.0792
40458SOL    HW127337   4.333   2.538   7.196  1.3439  1.1575 -2.0321
40458SOL    HW227338   4.295   2.479   7.061 -1.8032  1.0074 -1.1474
40459SOL     OW27339  12.139   1.802   8.137 -0.1100 -0.5775 -0.1756
40459SOL    HW127340  12.159   1.842   8.221  2.9908  1.2610 -1.6045
40459SOL    HW227341  12.064   1.851   8.103 -0.0435  0.0901  0.6269
40460SOL     OW27342   1.250   8.314   0.780  0.5210  0.4674 -0.1509
40460SOL    HW127343   1.217   8.400   0.806 -0.7486  1.0310 -3.2138
40460SOL    HW227344   1.345   8.323   0.784  0.4124  1.3393  1.4130
40461SOL     OW27345   4.737   4.394   7.089  0.8204  0.0674 -1.0642
40461SOL    HW127346   4.684   4.318   7.065  0.6391 -0.1521  0.0146
40461SOL    HW227347   4.683   4.442   7.151  0.5421  1.5874 -2.4098
40462SOL     OW27348   4.900  11.898   4.306 -0.3731 -0.4159  0.0068
40462SOL    HW127349   4.855  11.814   4.297 -0.2095 -0.3988 -1.0110
40462SOL    HW227350   4.903  11.912   4.401 -1.5268 -0.9412  0.1489
40463SOL     OW27351  12.226   1.559   3.337  0.3752  0.3906  0.5876
40463SOL    HW127352  12.258   1.469   3.328 -0.0139  0.0458  2.3188
40463SOL    HW227353  12.164   1.570   3.265  0.6235 -0.6355  0.2050
40464SOL     OW27354   5.039   7.422   9.875 -0.6185 -0.4713  0.1988
40464SOL    HW127355   5.041   7.495   9.936 -1.8707  0.2401 -0.5582
40464SOL    HW227356   4.978   7.360   9.914 -2.1100  0.3696 -0.6747
40465SOL     OW27357   1.128   7.652   9.117 -0.4519 -0.3011  0.0221
40465SOL    HW127358   1.164   7.597   9.187  1.0034 -0.8905 -1.1418
40465SOL    HW227359   1.205   7.684   9.069 -1.3367  1.4007 -0.3649
40466SOL     OW27360   5.059   3.164   4.909  0.0995 -0.4752 -0.2190
40466SOL    HW127361   5.071   3.089   4.851 -0.7912 -0.4509 -0.4382
40466SOL    HW227362   4.992   3.217   4.867 -0.5449 -0.4502  0.8049
40467SOL     OW27363   5.503   6.295   1.427 -0.7870 -0.3057 -0.0771
40467SOL    HW127364   5.586   6.302   1.472 -1.1697  2.2798  0.4331
40467SOL    HW227365   5.448   6.242   1.484 -0.2348  0.0959  0.8556
40468SOL     OW27366   7.240   5.869   0.092  0.1999  0.2315 -0.1303
40468SOL    HW127367   7.217   5.776   0.088  0.9326  0.0759 -1.4728
40468SOL    HW227368   7.212   5.897   0.179 -1.5981 -0.8283 -0.3021
40469SOL     OW27369  12.218   0.822   6.829 -0.3731 -0.3581  0.0826
40469SOL    HW127370  12.198   0.827   6.736  2.3632  1.7301 -0.5209
40469SOL    HW227371  12.137   0.846   6.873 -1.5526 -0.8312 -1.7392
40470SOL     OW27372  11.631   9.513  10.399  0.1789  0.3964  0.0017
40470SOL    HW127373  11.594   9.425  10.396  1.6043 -0.2283 -0.3245
40470SOL    HW227374  11.630   9.543  10.309 -2.5643  1.7573  0.4053
40471SOL     OW27375   0.525   8.658  11.131  0.2155  0.4143 -0.0594
40471SOL    HW127376   0.579   8.736  11.147 -0.5718  0.9504  0.0671
40471SOL    HW227377   0.437   8.693  11.116  0.1886 -0.3273 -1.8759
40472SOL     OW27378  12.196   5.833   3.771 -0.1823 -0.0169 -0.0849
40472SOL    HW127379  12.212   5.889   3.695  0.7196 -1.9317 -1.4019
40472SOL    HW227380  12.115   5.867   3.809 -0.2919  1.4359 -1.5043
40473SOL     OW27381   4.145   7.824   4.318  0.0405 -0.1089 -0.6115
40473SOL    HW127382   4.185   7.786   4.241  0.7912  0.6366 -0.6025
40473SOL    HW227383   4.068   7.871   4.285  0.6356  0.6215 -0.9869
40474SOL     OW27384   0.495   5.487   3.433  0.0915 -0.1835  0.0646
40474SOL    HW127385   0.490   5.582   3.425  0.0607 -0.0770  1.1875
40474SOL    HW227386   0.584   5.465   3.407  0.7107  0.3764  1.5689
40475SOL     OW27387   2.397   4.173   2.777 -0.5047 -0.1094  0.1574
40475SOL    HW127388   2.445   4.097   2.809  2.0570  1.5142  0.4665
40475SOL    HW227389   2.351   4.142   2.699 -1.2454 -2.4289  1.4188
40476SOL     OW27390   1.385   7.152   5.114 -0.0714  0.3031 -0.5731
40476SOL    HW127391   1.315   7.181   5.055 -0.9607  1.0222  0.7821
40476SOL    HW227392   1.343   7.142   5.199  1.1817 -0.6990 -0.0333
40477SOL     OW27393   4.233   5.251   5.168  0.1979 -1.0288  0.0302
40477SOL    HW127394   4.228   5.264   5.073  0.9335 -0.4881  0.0542
40477SOL    HW227395   4.183   5.324   5.205 -1.3666 -2.0747  0.0416
40478SOL     OW27396   2.940   2.632   2.133  0.6468  0.6069 -0.4410
40478SOL    HW127397   2.962   2.623   2.225 -0.8291 -0.8929 -0.1951
40478SOL    HW227398   2.971   2.550   2.093  1.8887  1.5158 -1.4515
40479SOL     OW27399   8.467   1.135  12.282  0.3224 -0.1795  0.4421
40479SOL    HW127400   8.528   1.120  12.355  2.2249  1.9880 -0.5640
40479SOL    HW227401   8.389   1.086  12.306  1.5524 -1.0929  3.0183
40480SOL     OW27402  10.623   7.874   6.261 -1.2189 -0.8302 -0.2133
40480SOL    HW127403  10.609   7.784   6.291 -0.6336 -1.4134 -1.6309
40480SOL    HW227404  10.679   7.913   6.328 -0.8674 -1.7430  0.0403
40481SOL     OW27405   5.274   5.737   1.405  0.3544  0.1051  0.0233
40481SOL    HW127406   5.230   5.805   1.456  0.5932 -0.4115  0.9433
40481SOL    HW227407   5.362   5.732   1.443 -0.1554 -1.8081  1.0664
40482SOL     OW27408  10.086  11.875   6.015  0.0370 -0.0131  0.0163
40482SOL    HW127409  10.093  11.817   5.938  0.3873  0.4170 -0.2819
40482SOL    HW227410  10.107  11.962   5.981  1.0029  0.0622  0.7473
40483SOL     OW27411   6.190  10.228   2.522  0.2974 -0.1285  0.0957
40483SOL    HW127412   6.178  10.286   2.447 -0.8144  0.5823  0.8094
40483SOL    HW227413   6.102  10.215   2.557  0.5590 -1.9686  0.1746
40484SOL     OW27414   7.996   7.370   6.209  0.2437  0.1448  0.3557
40484SOL    HW127415   8.085   7.347   6.238  0.0605 -0.1292  0.7108
40484SOL    HW227416   7.950   7.286   6.204  0.2228  0.2088 -0.5830
40485SOL     OW27417   5.900   1.081   6.459 -0.2759 -0.2620  0.3319
40485SOL    HW127418   5.922   1.174   6.450 -1.1094  0.1255  1.9522
40485SOL    HW227419   5.981   1.040   6.491 -0.1517  0.0508  0.4187
40486SOL     OW27420   3.661  11.193   6.007 -0.2791 -0.2367  0.5683
40486SOL    HW127421   3.623  11.266   6.057 -1.8556 -1.1597  0.7820
40486SOL    HW227422   3.588  11.133   5.993  0.4723 -0.7423 -1.5499
40487SOL     OW27423   5.829  12.365   5.692  0.2113 -0.0241 -0.3495
40487SOL    HW127424   5.759  12.419   5.730 -0.1218 -0.7917  0.1559
40487SOL    HW227425   5.910  12.408   5.720 -0.0444 -0.0597  0.4684
40488SOL     OW27426   7.720   1.292  11.356 -1.0830 -0.4726 -0.2432
40488SOL    HW127427   7.644   1.321  11.305  0.6652  0.9534 -2.2322
40488SOL    HW227428   7.739   1.366  11.414 -1.8092 -1.2676  1.0560
40489SOL     OW27429   1.912   9.669  11.118 -0.2771 -0.1643 -0.4465
40489SOL    HW127430   1.885   9.756  11.146  0.5583  0.2025 -0.7489
40489SOL    HW227431   1.874   9.610  11.184 -2.0087  0.2747 -0.9972
40490SOL     OW27432  11.367   9.602  11.282  0.0196 -0.4786  0.2252
40490SOL    HW127433  11.434   9.542  11.247  2.8660  3.5255 -2.1084
40490SOL    HW227434  11.410   9.645  11.356 -0.8795  0.4994  0.2033
40491SOL     OW27435   4.773   8.101   9.315  0.1154 -0.0978  0.7479
40491SOL    HW127436   4.785   8.075   9.406  1.1696  0.5376  0.8020
40491SOL    HW227437   4.861   8.108   9.280 -0.2910 -1.1771 -0.5851
40492SOL     OW27438   0.526  11.297   1.313  0.3000 -0.2974  0.5601
40492SOL    HW127439   0.524  11.228   1.378 -0.2010  0.1003  0.9733
40492SOL    HW227440   0.609  11.285   1.267 -0.7455 -2.5579 -0.9184
40493SOL     OW27441  11.304   5.560   0.562 -0.6545 -0.5320 -0.3989
40493SOL    HW127442  11.284   5.564   0.468 -0.1223 -1.3879 -0.5572
40493SOL    HW227443  11.384   5.508   0.567  0.4209  1.0963  0.3775
40494SOL     OW27444   7.634   1.480   5.157 -0.1368  0.1473 -0.2466
40494SOL    HW127445   7.576   1.470   5.081  0.1721  0.4096 -0.5220
40494SOL    HW227446   7.712   1.525   5.122 -0.3052  0.9527  0.3664
40495SOL     OW27447   8.888   6.579   1.924 -0.3785  0.1109 -0.4619
40495SOL    HW127448   8.808   6.601   1.876 -0.4503  0.1153 -0.3426
40495SOL    HW227449   8.865   6.594   2.016 -0.5280 -0.7473 -0.3478
40496SOL     OW27450   9.562   7.133   1.338  0.0090 -0.1592  0.1552
40496SOL    HW127451   9.651   7.116   1.368 -0.1976 -0.9694  0.3228
40496SOL    HW227452   9.533   7.051   1.299 -0.8957 -0.1091  0.6857
40497SOL     OW27453   7.451   7.171   3.250  0.1218  0.3000 -0.5774
40497SOL    HW127454   7.514   7.107   3.215  0.8432  0.8756 -0.3513
40497SOL    HW227455   7.480   7.255   3.214 -0.3975  0.6036 -0.2921
40498SOL     OW27456   5.297   0.124   4.669  0.1832  0.1415  0.8331
40498SOL    HW127457   5.353   0.061   4.625  0.4137  0.1781  1.0680
40498SOL    HW227458   5.294   0.199   4.610 -1.0529 -0.5307 -0.0094
40499SOL     OW27459   4.256   6.959   6.546  0.3230  0.5003  0.1911
40499SOL    HW127460   4.312   7.029   6.581  0.4411 -0.1035  1.2514
40499SOL    HW227461   4.310   6.880   6.551 -0.2616  0.0952  0.2313
40500SOL     OW27462  11.081   7.184   4.552 -0.1758 -0.1196  0.3576
40500SOL    HW127463  11.126   7.116   4.601 -0.0083 -1.5427 -1.6298
40500SOL    HW227464  11.013   7.217   4.612  0.2539 -1.4840  1.6304
40501SOL     OW27465  11.521   7.635   9.357 -0.1363 -0.2434 -0.2211
40501SOL    HW127466  11.470   7.668   9.431  0.0224 -2.0584  0.7433
40501SOL    HW227467  11.461   7.576   9.311  0.4154 -0.7224 -0.3303
40502SOL     OW27468   1.029   3.022   4.834  0.2321  0.1099  0.2977
40502SOL    HW127469   1.117   3.041   4.865  0.5799 -1.8807  0.6932
40502SOL    HW227470   1.021   2.927   4.842 -2.0116  0.2548  0.4051
40503SOL     OW27471   2.894   3.978   1.281 -0.5044  0.0691 -0.2183
40503SOL    HW127472   2.928   3.907   1.335  2.1730  0.7040 -0.9376
40503SOL    HW227473   2.848   3.933   1.209 -0.2108 -0.8924  0.1836
40504SOL     OW27474   2.627   8.659   8.618 -0.2638  0.1200 -0.1978
40504SOL    HW127475   2.675   8.643   8.537 -1.3198 -1.0401 -0.6230
40504SOL    HW227476   2.535   8.650   8.594 -0.7479  2.4540  0.5654
40505SOL     OW27477   0.168   0.935  10.933  0.1144 -0.4550  0.2175
40505SOL    HW127478   0.231   0.868  10.907 -1.7950 -1.9549 -0.8465
40505SOL    HW227479   0.101   0.886  10.981 -1.5271  0.5788 -0.9147
40506SOL     OW27480   1.611   2.051   3.219  0.0215 -0.3109  0.1344
40506SOL    HW127481   1.626   2.060   3.313  0.8483 -0.6750  0.0477
40506SOL    HW227482   1.638   2.136   3.182  1.7016 -0.8594  0.0138
40507SOL     OW27483   8.672  11.543   6.859 -0.2801  0.4011 -0.3072
40507SOL    HW127484   8.698  11.456   6.891  0.8817  0.3839 -1.2501
40507SOL    HW227485   8.696  11.603   6.929 -3.1409 -0.1910  1.3677
40508SOL     OW27486   3.653  12.281   4.311  0.2643 -0.5125  0.5688
40508SOL    HW127487   3.669  12.374   4.293 -2.9388 -0.1437 -0.9631
40508SOL    HW227488   3.715  12.235   4.255 -0.3326  0.7392 -1.2099
40509SOL     OW27489   9.443   6.196  11.008  0.1203  0.4036 -0.4833
40509SOL    HW127490   9.380   6.206  10.936  0.4813  0.6106 -0.7704
40509SOL    HW227491   9.513   6.257  10.988 -0.8983  2.2838  1.3069
40510SOL     OW27492  10.075   1.533  10.282  0.4081  0.4339 -0.3559
40510SOL    HW127493  10.072   1.588  10.204 -0.4089 -0.9847 -1.3518
40510SOL    HW227494   9.985   1.503  10.294 -0.1151  2.7436  2.7315
40511SOL     OW27495   8.838   9.248   7.859  0.1868 -0.5592 -0.5364
40511SOL    HW127496   8.856   9.164   7.819 -1.4733 -2.0631  1.6170
40511SOL    HW227497   8.802   9.227   7.946 -1.1510  2.3096 -0.2504
40512SOL     OW27498   3.058   7.387   3.218  0.7678  0.1108 -0.6473
40512SOL    HW127499   2.963   7.394   3.229  0.5991  0.1119 -1.9744
40512SOL    HW227500   3.070   7.371   3.125  2.0789  0.1079 -0.4908
40513SOL     OW27501   4.679   7.893   2.398  0.0987  0.0126  0.3360
40513SOL    HW127502   4.728   7.825   2.352 -2.7861 -2.0872  0.0728
40513SOL    HW227503   4.660   7.959   2.331 -0.0986 -0.6968 -0.3194
40514SOL     OW27504   2.400   3.765   8.055 -0.0841 -0.2191  0.1384
40514SOL    HW127505   2.311   3.795   8.035  0.6300  1.8755 -0.1356
40514SOL    HW227506   2.394   3.729   8.143 -1.8277 -3.1281 -1.0275
40515SOL     OW27507  11.083   9.178   3.268  0.0316  0.3968 -0.0486
40515SOL    HW127508  11.122   9.124   3.199 -1.5428  1.3519 -1.7544
40515SOL    HW227509  11.091   9.267   3.236 -1.4990  0.7930  0.5870
40516SOL     OW27510   6.940  11.737   4.030 -0.0754 -0.4487 -0.3883
40516SOL    HW127511   6.973  11.827   4.038  0.5380 -0.5787 -1.2204
40516SOL    HW227512   6.982  11.704   3.950  0.1479 -1.6573  0.1990
40517SOL     OW27513   7.201   7.916   1.941  0.3680 -0.7710 -0.4320
40517SOL    HW127514   7.289   7.930   1.977 -0.0084 -0.9722  0.6149
40517SOL    HW227515   7.212   7.922   1.846  1.1316  1.3553 -0.2601
40518SOL     OW27516   6.064   7.815   4.731 -0.0863 -0.1934 -0.3423
40518SOL    HW127517   6.114   7.893   4.708 -0.5898  0.0563 -0.6078
40518SOL    HW227518   5.980   7.849   4.761 -0.3179 -0.6346 -0.4875
40519SOL     OW27519  11.920   2.778   8.829  0.5732 -1.1027  0.4536
40519SOL    HW127520  11.940   2.812   8.916  1.1171 -1.0192  0.2998
40519SOL    HW227521  11.825   2.770   8.828  0.5293 -0.6858  0.8987
40520SOL     OW27522   4.852   4.593   8.018  0.5600  0.1138  0.2927
40520SOL    HW127523   4.908   4.670   8.011  1.7570 -0.6204  1.5242
40520SOL    HW227524   4.830   4.587   8.111  0.1412 -0.7902  0.1468
40521SOL     OW27525   0.958   3.659   8.112 -0.2317  0.2418 -0.0688
40521SOL    HW127526   0.891   3.666   8.180 -1.5759  0.1413 -1.3575
40521SOL    HW227527   0.995   3.747   8.106 -1.1909  0.6366 -0.2886
40522SOL     OW27528  12.079   4.563   5.108  0.0409 -0.2063 -0.6483
40522SOL    HW127529  12.026   4.642   5.120 -0.6903 -0.6466 -0.9068
40522SOL    HW227530  12.152   4.574   5.169  0.1478  0.8367 -0.9455
40523SOL     OW27531   9.461   3.056   5.775 -0.1968 -0.1120  0.7975
40523SOL    HW127532   9.450   3.103   5.692  0.0055 -1.2607  0.0919
40523SOL    HW227533   9.434   3.119   5.842 -0.7240  0.7216 -0.1630
40524SOL     OW27534   4.461   3.176   9.293  0.3501 -0.1884  0.1233
40524SOL    HW127535   4.400   3.161   9.364  1.7878 -1.1330  1.2110
40524SOL    HW227536   4.436   3.261   9.256 -2.2788 -1.0429 -0.2197
40525SOL     OW27537   0.062   9.916  10.494  0.0336 -0.1417 -0.0291
40525SOL    HW127538   0.154   9.893  10.481 -0.1796 -0.7121 -0.5701
40525SOL    HW227539   0.040   9.970  10.418 -0.9180 -2.5907 -1.6078
40526SOL     OW27540   9.326  10.297   2.297  0.0209 -0.7916  0.3710
40526SOL    HW127541   9.409  10.317   2.340  0.0184  0.1248 -0.0404
40526SOL    HW227542   9.266  10.365   2.327  0.1144  0.0929 -1.3372
40527SOL     OW27543   4.950   6.973  10.002 -0.4303  0.2292  0.5867
40527SOL    HW127544   4.887   6.901  10.006 -1.4948  1.1677  1.7128
40527SOL    HW227545   5.022   6.945  10.059 -1.1512  0.3197  1.5683
40528SOL     OW27546   1.801   0.672   8.994 -0.2471 -0.2404 -0.4042
40528SOL    HW127547   1.771   0.586   9.023  2.3250  0.0178  3.8576
40528SOL    HW227548   1.736   0.734   9.027 -0.1956 -0.3161 -0.1619
40529SOL     OW27549   0.979  10.807   8.918 -0.3462 -0.3023 -0.3731
40529SOL    HW127550   0.892  10.789   8.952 -0.9774  2.0660 -0.6132
40529SOL    HW227551   0.965  10.831   8.826  0.6585 -0.6429 -0.6315
40530SOL     OW27552   1.448   4.426   4.081  0.3112 -0.1329  0.1231
40530SOL    HW127553   1.400   4.448   4.161  0.1323 -0.1931  0.0322
40530SOL    HW227554   1.459   4.331   4.085  0.0896 -0.1661 -0.0422
40531SOL     OW27555   7.520   0.031   4.635 -0.3053  0.0199 -0.5249
40531SOL    HW127556   7.525   0.117   4.594 -0.0524 -0.6948 -2.0739
40531SOL    HW227557   7.595  -0.016   4.600  0.2267 -0.4773  1.2022
40532SOL     OW27558  10.950   8.980  11.964  0.2954 -0.1533  0.4512
40532SOL    HW127559  10.882   9.028  12.011  0.3676  0.3886  0.0171
40532SOL    HW227560  10.990   8.925  12.031 -0.6866 -0.6245  0.6740
40533SOL     OW27561   9.595  11.705   4.079  0.2301 -0.0205  0.0396
40533SOL    HW127562   9.607  11.795   4.048 -1.5512 -0.1350 -1.1098
40533SOL    HW227563   9.517  11.709   4.135  0.5075 -0.7427  0.4928
40534SOL     OW27564  11.804   6.853  10.818  0.2465  0.1842 -0.0119
40534SOL    HW127565  11.860   6.817  10.749  1.0583 -1.6305  1.4889
40534SOL    HW227566  11.806   6.947  10.804  2.9352  0.1156 -0.5942
40535SOL     OW27567   2.127  11.649   4.439 -0.5779  0.0952  0.1431
40535SOL    HW127568   2.156  11.586   4.373 -2.1140 -2.0745  1.4006
40535SOL    HW227569   2.207  11.680   4.480  0.2240 -2.2965  0.5341
40536SOL     OW27570   8.237   5.259   6.038 -0.5451  0.3450  0.6740
40536SOL    HW127571   8.177   5.190   6.067  0.2595 -0.0727  1.4074
40536SOL    HW227572   8.214   5.274   5.946  0.1392 -1.8787  0.0745
40537SOL     OW27573   1.372   2.690   4.055 -0.8618  0.2075  0.5044
40537SOL    HW127574   1.467   2.700   4.052 -0.8625  0.6093  1.3238
40537SOL    HW227575   1.341   2.770   4.098 -1.5088 -0.1876  0.7969
40538SOL     OW27576  12.169   4.477   4.310  0.6031 -0.2021  0.2123
40538SOL    HW127577  12.148   4.440   4.395 -0.2740  0.0934  0.1281
40538SOL    HW227578  12.265   4.483   4.310  0.5651  1.2065  1.7784
40539SOL     OW27579   7.202  10.315   9.449  0.2588 -0.4943  0.6440
40539SOL    HW127580   7.116  10.352   9.470 -0.6816 -1.9205 -0.5004
40539SOL    HW227581   7.255  10.391   9.426 -1.1416  0.3078 -0.0848
40540SOL     OW27582   7.236   2.681  10.784  0.0311  0.3548 -0.3680
40540SOL    HW127583   7.214   2.689  10.877  0.1606 -2.4897 -0.0071
40540SOL    HW227584   7.302   2.612  10.781  0.0545  0.4003 -2.5895
40541SOL     OW27585  10.070  11.626   7.026 -0.6031  0.7017  0.2813
40541SOL    HW127586  10.065  11.553   7.088  1.0285  0.2834 -0.0403
40541SOL    HW227587  10.045  11.703   7.078  0.8241  0.3838  1.5239
40542SOL     OW27588  11.685   1.321   3.806  0.5399  0.1598 -0.1079
40542SOL    HW127589  11.689   1.239   3.855  2.7443  0.3145  0.0491
40542SOL    HW227590  11.732   1.384   3.860 -0.7646  1.4595 -0.4243
40543SOL     OW27591   5.785   3.731   9.519 -0.3810  0.5772 -0.0177
40543SOL    HW127592   5.822   3.730   9.607  0.4041 -0.7583 -0.3299
40543SOL    HW227593   5.690   3.729   9.533 -0.2680  0.5702  0.7928
40544SOL     OW27594   6.143   1.893   6.008 -0.8307 -0.9296  0.2984
40544SOL    HW127595   6.216   1.887   5.947 -0.5512 -1.4824  0.6752
40544SOL    HW227596   6.066   1.872   5.956 -0.6704 -0.7828 -0.0004
40545SOL     OW27597  10.302   7.802  11.252 -0.0845  0.4234 -0.4692
40545SOL    HW127598  10.372   7.841  11.303 -0.1893 -0.9800  0.8193
40545SOL    HW227599  10.223   7.814  11.305 -0.8172  1.6958 -1.7483
40546SOL     OW27600  10.364   6.093   2.012  0.2931 -0.5564 -0.1599
40546SOL    HW127601  10.383   6.024   2.075  0.9616  1.0117  1.4664
40546SOL    HW227602  10.450   6.117   1.977 -0.0038 -0.9686 -1.1830
40547SOL     OW27603  11.618   9.850   0.639 -0.3542 -0.0230  0.2489
40547SOL    HW127604  11.642   9.774   0.693  1.1440 -0.3251 -0.7872
40547SOL    HW227605  11.541   9.821   0.590 -0.0801 -0.7114  0.2126
40548SOL     OW27606   1.202   7.281   9.661 -0.1192 -0.2655 -0.0578
40548SOL    HW127607   1.119   7.287   9.614 -0.5209  1.5644  0.7725
40548SOL    HW227608   1.183   7.225   9.736 -0.5176 -0.1566 -0.0715
40549SOL     OW27609   7.999  10.539   8.927 -0.7644 -0.2781 -0.0445
40549SOL    HW127610   8.088  10.523   8.897 -0.5346  0.9358 -0.0499
40549SOL    HW227611   8.000  10.513   9.019 -0.1063  0.7149  0.2448
40550SOL     OW27612   8.059   0.524   4.432 -0.1586  0.5556 -0.2036
40550SOL    HW127613   7.999   0.477   4.374  0.7878  0.6004 -1.2307
40550SOL    HW227614   8.015   0.608   4.448  0.0162  0.9600 -1.6873
40551SOL     OW27615   2.760   0.710   0.581 -0.0861 -0.0270  0.6927
40551SOL    HW127616   2.833   0.760   0.544  1.2911 -1.3570  1.4672
40551SOL    HW227617   2.776   0.620   0.550 -1.0220 -0.4538  1.4234
40552SOL     OW27618   6.804   0.659   8.656  0.3563 -0.0772  0.0656
40552SOL    HW127619   6.809   0.563   8.655  1.1506 -0.0517  0.7968
40552SOL    HW227620   6.772   0.681   8.743 -0.4929  0.3127 -0.3280
40553SOL     OW27621   1.491   5.449  12.273  0.2768 -0.5244 -0.4037
40553SOL    HW127622   1.419   5.419  12.329  0.4514  0.2341  0.2470
40553SOL    HW227623   1.554   5.487  12.334  0.9798 -0.6927 -1.0240
40554SOL     OW27624   7.801   4.456   4.825 -0.3075 -0.1418  0.1273
40554SOL    HW127625   7.749   4.383   4.792 -2.4599  0.7430  1.3493
40554SOL    HW227626   7.809   4.516   4.751 -0.2801 -0.6777 -0.3087
40555SOL     OW27627   2.705   8.413   9.460 -0.1011  0.2190  0.4866
40555SOL    HW127628   2.773   8.477   9.438 -0.2842  1.0604  2.2156
40555SOL    HW227629   2.652   8.457   9.526 -0.4608 -1.5781  1.4487
40556SOL     OW27630   1.373   9.331   0.180  0.1649 -0.2501 -0.3440
40556SOL    HW127631   1.415   9.253   0.217 -1.9423 -0.2187  2.5217
40556SOL    HW227632   1.405   9.403   0.235 -0.6501  0.3212 -0.6109
40557SOL     OW27633   5.039   5.266   6.476 -0.0227  0.0161 -0.0884
40557SOL    HW127634   5.035   5.237   6.385 -1.7934  2.1540 -0.7607
40557SOL    HW227635   4.973   5.335   6.483 -1.5207 -1.5171  3.3908
40558SOL     OW27636   5.370   1.570   4.074  0.1750 -0.9324  0.3121
40558SOL    HW127637   5.451   1.609   4.110 -0.2507 -0.7655  1.1250
40558SOL    HW227638   5.395   1.481   4.050 -0.1204 -2.0299  3.6067
40559SOL     OW27639   0.822   7.128  10.042 -0.8034 -0.3122  0.5541
40559SOL    HW127640   0.840   7.196  10.107 -0.2387  0.3308 -0.2342
40559SOL    HW227641   0.834   7.173   9.958  1.1106 -1.7431 -0.0095
40560SOL     OW27642   3.495   5.127  11.529 -0.4555 -0.0626 -0.1868
40560SOL    HW127643   3.417   5.090  11.486  0.4073 -1.2099 -0.8299
40560SOL    HW227644   3.460   5.177  11.603 -1.8611  0.2712 -1.0313
40561SOL     OW27645  11.382   1.747   2.101 -0.0546 -0.3942 -0.3579
40561SOL    HW127646  11.439   1.809   2.055 -1.5560  0.4317 -1.1683
40561SOL    HW227647  11.434   1.719   2.177  1.2807  0.6070 -0.8565
40562SOL     OW27648   8.111   4.838   2.725 -0.0147  0.3965 -0.3804
40562SOL    HW127649   8.048   4.767   2.713  1.2620 -0.7139 -0.6668
40562SOL    HW227650   8.148   4.853   2.638  0.3474  0.8216 -0.1578
40563SOL     OW27651   1.430   9.485   9.554  0.6123 -0.1262 -0.2935
40563SOL    HW127652   1.430   9.578   9.579  3.0437 -0.0314 -0.3770
40563SOL    HW227653   1.498   9.446   9.608  0.8755 -1.4870 -1.5445
40564SOL     OW27654   9.855   8.295   6.395 -0.1942 -0.4283  0.5284
40564SOL    HW127655   9.930   8.238   6.413  0.7594  1.1809  1.9917
40564SOL    HW227656   9.801   8.289   6.474 -1.4804 -1.3225 -0.3819
40565SOL     OW27657  11.557   5.254   0.319 -0.2808  0.1640  0.5719
40565SOL    HW127658  11.576   5.348   0.316  1.9697 -0.2557 -0.3741
40565SOL    HW227659  11.620   5.219   0.382 -0.8851 -0.7590  0.6835
40566SOL     OW27660  11.272   4.654   5.653 -0.1804 -0.7398 -0.7659
40566SOL    HW127661  11.235   4.579   5.700 -0.0516  0.5669  1.5783
40566SOL    HW227662  11.267   4.726   5.716  0.8857  0.9139 -2.4827
40567SOL     OW27663   6.748   8.310   9.399  0.0725 -0.1462 -0.8839
40567SOL    HW127664   6.747   8.238   9.461  1.6385  1.2332  0.8263
40567SOL    HW227665   6.674   8.366   9.425  1.3934  1.0080  0.5153
40568SOL     OW27666  11.410   3.588   8.563 -0.0301  0.3902 -0.6804
40568SOL    HW127667  11.422   3.524   8.493  1.4244 -0.3823  0.2128
40568SOL    HW227668  11.494   3.588   8.610 -0.5108  1.8591  0.2571
40569SOL     OW27669   1.521   5.007   1.615 -0.5338  0.3972 -0.5090
40569SOL    HW127670   1.460   4.958   1.559  0.5833  0.4973 -1.8878
40569SOL    HW227671   1.586   4.942   1.642  0.1729  0.7871 -1.2025
40570SOL     OW27672   4.934   9.270   4.850 -0.0455  0.1025  0.0067
40570SOL    HW127673   4.996   9.197   4.851  1.5134  1.3804 -0.7532
40570SOL    HW227674   4.898   9.270   4.761  2.7135  2.4099 -1.2738
40571SOL     OW27675   8.441   0.870   9.681 -0.5172 -0.2772  0.3322
40571SOL    HW127676   8.502   0.796   9.675 -1.9847 -1.7007  1.8936
40571SOL    HW227677   8.479   0.929   9.746  0.5728  0.2919 -0.7900
40572SOL     OW27678   9.540  12.486  11.321 -0.3299  0.1576 -0.4130
40572SOL    HW127679   9.565  12.444  11.239 -0.5880  0.1669 -0.4948
40572SOL    HW227680   9.587  12.436  11.388 -0.1006  0.1646 -0.5640
40573SOL     OW27681   8.668   6.204   3.934  0.1820  0.3513  0.0952
40573SOL    HW127682   8.626   6.125   3.967 -0.5930  0.4927 -0.5048
40573SOL    HW227683   8.753   6.175   3.901  0.0485 -0.1693  0.1979
40574SOL     OW27684   9.118  10.419   6.585 -0.1576 -0.1839 -0.5915
40574SOL    HW127685   9.044  10.359   6.580  0.5509 -1.3380  1.2995
40574SOL    HW227686   9.115  10.454   6.675  1.2663  0.1344 -0.6351
40575SOL     OW27687   9.155   0.615   9.750 -0.1928  0.3040 -0.4341
40575SOL    HW127688   9.075   0.566   9.770  0.0324 -0.1314 -0.6127
40575SOL    HW227689   9.223   0.549   9.739  0.2504  0.6892 -0.0390
40576SOL     OW27690   6.408  10.600   3.002 -0.0805  0.5174 -0.0089
40576SOL    HW127691   6.477  10.533   2.996  0.3036  0.6267  2.3579
40576SOL    HW227692   6.456  10.683   3.007 -0.5199  0.8892 -1.4961
40577SOL     OW27693   9.009   9.825   0.600  0.1023 -0.1299  0.1926
40577SOL    HW127694   8.999   9.735   0.632  0.8804 -0.9500 -1.7497
40577SOL    HW227695   9.097   9.850   0.628 -0.5402  0.5250  1.7753
40578SOL     OW27696  10.948   4.111  10.041  0.4663  0.5145  0.5172
40578SOL    HW127697  10.856   4.133  10.032  0.4219 -0.3856 -1.7206
40578SOL    HW227698  10.994   4.193  10.022  0.1667  0.9279  1.4938
40579SOL     OW27699   3.267  10.623   1.045  0.8466  0.8349  0.5022
40579SOL    HW127700   3.344  10.608   1.099  0.6985 -0.9900  0.2743
40579SOL    HW227701   3.212  10.682   1.097  2.4559  2.3092  0.5740
40580SOL     OW27702   9.180   4.410   9.446 -0.0322 -0.6240 -0.0654
40580SOL    HW127703   9.168   4.315   9.437 -4.0562 -0.2491 -0.5185
40580SOL    HW227704   9.146   4.430   9.533 -0.6524  0.5314 -0.5541
40581SOL     OW27705  12.416   2.246   8.117 -0.1659 -0.6626 -0.0765
40581SOL    HW127706  12.418   2.223   8.210  0.1197 -0.5301 -0.0480
40581SOL    HW227707  12.497   2.296   8.103 -1.5966  1.9209  0.2795
40582SOL     OW27708   3.004   8.126   2.118  0.2878 -0.0176  0.6546
40582SOL    HW127709   3.042   8.114   2.204  1.2349  0.0356  0.2499
40582SOL    HW227710   3.062   8.079   2.058 -0.8617 -0.8406  0.1453
40583SOL     OW27711   3.726  11.998   8.580 -0.8811 -0.0816 -0.3306
40583SOL    HW127712   3.818  11.987   8.601 -0.4021  3.4632  0.0330
40583SOL    HW227713   3.681  11.988   8.664 -0.4255  1.2713  0.0992
40584SOL     OW27714   8.478  10.283   7.560 -0.2053  0.5520 -0.6024
40584SOL    HW127715   8.505  10.203   7.605 -2.4798  0.0663  0.0200
40584SOL    HW227716   8.411  10.254   7.498 -1.9045  2.0776  0.4445
40585SOL     OW27717  11.016   9.974  11.105 -0.1787  0.3575 -0.2170
40585SOL    HW127718  11.064   9.891  11.109  1.5830  1.3567  0.6157
40585SOL    HW227719  11.079  10.037  11.072 -1.7697  1.2274 -1.7540
40586SOL     OW27720  11.725   0.596   3.966  0.2373  0.1508 -0.7394
40586SOL    HW127721  11.785   0.586   3.891  1.9131  1.0837  0.4126
40586SOL    HW227722  11.776   0.645   4.031 -1.6290  0.5259  0.5121
40587SOL     OW27723   7.679  11.736  11.578  0.4106  0.0609 -0.2751
40587SOL    HW127724   7.671  11.642  11.595  2.4644 -0.3158 -1.0502
40587SOL    HW227725   7.718  11.772  11.658 -0.2312  0.2513 -0.0381
40588SOL     OW27726   4.678   3.777  11.564 -0.1003  0.3730  0.3527
40588SOL    HW127727   4.598   3.799  11.611 -2.5344 -1.6683 -2.5126
40588SOL    HW227728   4.702   3.858  11.518 -0.5340  0.9769  1.1747
40589SOL     OW27729   4.140  10.562   0.579 -0.5506  0.5480 -0.3058
40589SOL    HW127730   4.120  10.468   0.580  1.0558  0.0612 -2.7346
40589SOL    HW227731   4.171  10.581   0.667 -0.8126 -1.2345  0.2097
40590SOL     OW27732  12.189   9.214   1.654 -0.2765  0.4619  0.5007
40590SOL    HW127733  12.272   9.236   1.613  0.2519 -1.7855  0.2594
40590SOL    HW227734  12.127   9.279   1.619  0.9386  0.9137 -0.9128
40591SOL     OW27735   2.872   4.580   7.162  0.7364 -0.5124 -0.4002
40591SOL    HW127736   2.785   4.594   7.197  0.4166 -0.6958 -1.0910
40591SOL    HW227737   2.871   4.624   7.077  0.8090 -1.7781 -1.0922
40592SOL     OW27738  11.486   5.268   1.046  0.8180  0.5427 -0.1178
40592SOL    HW127739  11.439   5.330   1.102  2.4296  2.1752 -0.4706
40592SOL    HW227740  11.470   5.300   0.957  2.7184  1.2765 -0.2341
40593SOL     OW27741   1.894   1.622  11.301  0.4994  0.1174  0.0325
40593SOL    HW127742   1.832   1.551  11.286  1.0147 -0.5660  1.0361
40593SOL    HW227743   1.849   1.680  11.363  1.1745 -0.8359  1.4545
40594SOL     OW27744   5.969   7.154   8.839 -0.1571  0.4310 -0.4648
40594SOL    HW127745   5.995   7.242   8.865  0.6838 -0.0648  0.4506
40594SOL    HW227746   6.036   7.127   8.776  0.2582  0.0234  0.1378
40595SOL     OW27747   2.070  11.056   2.972 -0.4677 -0.0896 -0.5909
40595SOL    HW127748   2.134  11.013   3.028  0.2206 -0.5073 -1.6652
40595SOL    HW227749   2.121  11.117   2.919 -1.0724  0.1402 -0.9236
40596SOL     OW27750  11.796   4.221   3.708 -0.1572 -0.3245 -0.1594
40596SOL    HW127751  11.842   4.145   3.671  1.3839  0.1692  0.6686
40596SOL    HW227752  11.790   4.202   3.802 -0.8910  0.0143 -0.1324
40597SOL     OW27753   4.991   7.757   6.170  0.0639 -0.9406 -0.4736
40597SOL    HW127754   4.958   7.844   6.149 -0.4274 -0.9987  0.0459
40597SOL    HW227755   5.050   7.736   6.098  0.2127 -0.1643 -0.5843
40598SOL     OW27756  11.507   3.593  12.233 -1.1687  0.4765  0.4297
40598SOL    HW127757  11.492   3.502  12.212  0.8282  0.3281 -0.6389
40598SOL    HW227758  11.437   3.641  12.189  0.2054 -0.2284 -2.7765
40599SOL     OW27759   6.166   3.775   2.783  0.3251  0.4424 -0.1381
40599SOL    HW127760   6.232   3.710   2.808 -0.8548 -0.5078  0.6652
40599SOL    HW227761   6.107   3.779   2.858 -1.4869 -0.0089 -1.4711
40600SOL     OW27762  11.232   0.027   7.096 -0.1024  0.0157 -0.3712
40600SOL    HW127763  11.150   0.075   7.107 -1.0220 -1.3628 -0.8219
40600SOL    HW227764  11.276   0.070   7.024 -0.3853  0.8259 -0.0727
40601SOL     OW27765   2.860   7.171   7.922 -0.3621 -0.1759  0.3539
40601SOL    HW127766   2.937   7.177   7.978 -1.0544  1.1366  1.2115
40601SOL    HW227767   2.852   7.077   7.903  2.3901 -0.2272 -1.1677
40602SOL     OW27768   1.443  11.614  10.650 -0.0273  0.7108  0.7322
40602SOL    HW127769   1.349  11.630  10.658 -0.2027  0.6184 -0.8060
40602SOL    HW227770   1.452  11.566  10.568  1.2751 -0.1574  1.3546
40603SOL     OW27771   6.831  10.586   9.027  0.0012 -0.2230 -0.0435
40603SOL    HW127772   6.769  10.610   9.096  0.3718 -2.1499  1.0349
40603SOL    HW227773   6.779  10.530   8.968  0.7434 -2.2739  1.1403
40604SOL     OW27774  11.086   4.396   6.923 -0.5129 -0.3441  0.1046
40604SOL    HW127775  11.167   4.353   6.953 -0.7908  0.3033  1.9160
40604SOL    HW227776  11.109   4.436   6.840  0.9304 -0.4957  0.4071
40605SOL     OW27777   1.661   6.449   5.177 -0.1911 -0.2650  0.2476
40605SOL    HW127778   1.567   6.431   5.171 -0.2042 -0.4012  0.8225
40605SOL    HW227779   1.678   6.511   5.107 -1.1901  1.7968  1.7349
40606SOL     OW27780   7.805   0.430   4.278  0.5342 -0.2019 -0.1104
40606SOL    HW127781   7.716   0.441   4.311  0.6023  0.6638 -0.1796
40606SOL    HW227782   7.802   0.350   4.225 -0.4322  0.3224 -0.8723
40607SOL     OW27783   1.702   4.647  11.012  0.2636  0.0589 -0.0332
40607SOL    HW127784   1.737   4.595  11.084  0.9814 -1.4720 -1.3978
40607SOL    HW227785   1.752   4.617  10.935 -0.7904  1.2688 -1.2459
40608SOL     OW27786   6.909   2.225   6.507  0.0080  0.3870 -0.0735
40608SOL    HW127787   6.863   2.228   6.591 -1.3601  0.3645 -0.7903
40608SOL    HW227788   6.911   2.132   6.485  0.9062  0.3342  0.2092
40609SOL     OW27789   9.911   8.857  12.472 -0.0488  0.4229 -0.2751
40609SOL    HW127790   9.944   8.778  12.430  0.5428 -0.1636  1.2160
40609SOL    HW227791   9.874   8.826  12.555  0.4501  1.7314  0.4637
40610SOL     OW27792   1.585   8.115   7.466 -0.2989  0.4618  0.5741
40610SOL    HW127793   1.575   8.087   7.557 -1.9129 -0.4722  0.1571
40610SOL    HW227794   1.574   8.210   7.469 -0.6465  0.4087  1.3344
40611SOL     OW27795  11.821   5.436   9.458 -0.0360  0.2111  0.0512
40611SOL    HW127796  11.913   5.414   9.440  0.0381  1.0698 -0.7234
40611SOL    HW227797  11.774   5.407   9.380 -0.0758  1.7972 -0.5462
40612SOL     OW27798   8.827  10.847   6.310 -0.1298 -0.4544  0.3424
40612SOL    HW127799   8.789  10.777   6.255  1.2202 -0.9227 -0.0377
40612SOL    HW227800   8.918  10.822   6.320  0.7522  1.9398 -0.9073
40613SOL     OW27801   1.838  12.136   3.012 -0.2436 -0.7664  0.7460
40613SOL    HW127802   1.826  12.205   3.078  1.5606  0.6492 -0.3347
40613SOL    HW227803   1.792  12.169   2.935 -1.1399 -1.7671  0.8352
40614SOL     OW27804  11.774  10.463   0.384  0.0593  0.6846 -0.0172
40614SOL    HW127805  11.722  10.450   0.463 -0.3876 -0.0183 -0.4079
40614SOL    HW227806  11.709  10.476   0.315  0.4056  0.1870 -0.4467
40615SOL     OW27807   2.119   0.656   3.154  0.2262 -0.3954  0.2136
40615SOL    HW127808   2.175   0.647   3.231 -0.7022  0.7840  1.0800
40615SOL    HW227809   2.119   0.750   3.136 -0.6036 -0.5039 -0.4163
40616SOL     OW27810   8.930  12.089   7.806 -0.0890  0.3869 -0.2841
40616SOL    HW127811   8.861  12.050   7.861  1.3511 -0.3260  1.0957
40616SOL    HW227812   8.886  12.110   7.724 -1.6404 -1.3637  0.0331
40617SOL     OW27813   5.072   4.187   5.246 -0.1960 -0.4974  0.3368
40617SOL    HW127814   5.144   4.128   5.267 -0.3923 -1.1885 -0.8500
40617SOL    HW227815   5.042   4.159   5.160 -1.1289  0.5286  0.3026
40618SOL     OW27816  10.926  10.277   5.532  0.2997  0.4014  0.5330
40618SOL    HW127817  10.884  10.289   5.447 -0.6463 -3.4366  0.2977
40618SOL    HW227818  10.855  10.249   5.590  1.0396  2.3235  2.5485
40619SOL     OW27819   8.167   0.326  11.156  0.3977  0.3289  0.4476
40619SOL    HW127820   8.117   0.327  11.238 -0.5646 -0.1797 -0.1143
40619SOL    HW227821   8.234   0.259  11.170  2.2057  2.3136  1.9072
40620SOL     OW27822   9.189   3.762   1.017 -0.1275  0.4219 -0.3854
40620SOL    HW127823   9.215   3.688   1.072  0.2903  1.3742  0.7180
40620SOL    HW227824   9.199   3.729   0.927  0.5528 -0.6864  0.0761
40621SOL     OW27825   2.814   0.548   7.849 -0.5192  0.3984  0.8369
40621SOL    HW127826   2.808   0.643   7.849  0.0094  0.5038 -1.8439
40621SOL    HW227827   2.732   0.519   7.891 -0.6000  2.0011  1.8539
40622SOL     OW27828  12.064   9.915   0.760 -0.3872 -0.3496  0.3350
40622SOL    HW127829  12.042   9.825   0.736 -1.8812  0.3116 -1.0193
40622SOL    HW227830  11.986   9.966   0.737  0.5541  1.3507  0.6839
40623SOL     OW27831   0.857  11.449   5.949 -0.6123  0.0586  0.0015
40623SOL    HW127832   0.824  11.447   5.859 -1.0815 -2.4980  0.1745
40623SOL    HW227833   0.783  11.483   6.001  0.0956  2.8734 -0.6365
40624SOL     OW27834   9.089   7.121   1.191 -0.5144  0.2471 -0.0001
40624SOL    HW127835   9.089   7.061   1.117  1.3376  0.3041 -0.0845
40624SOL    HW227836   9.155   7.187   1.169  1.3966 -0.6972  2.4134
40625SOL     OW27837  11.264   0.511   8.126 -0.2362 -0.1093 -0.2783
40625SOL    HW127838  11.344   0.464   8.151 -0.1873 -0.1471 -0.5117
40625SOL    HW227839  11.288   0.604   8.130 -0.1907 -0.1196 -0.3184
40626SOL     OW27840   3.795   5.436  12.242 -0.5219  0.4273 -0.1874
40626SOL    HW127841   3.870   5.390  12.281  0.3465  0.2914 -1.9207
40626SOL    HW227842   3.834   5.500  12.183 -1.7873  0.7508 -0.7024
40627SOL     OW27843   5.072   7.799   9.139  0.2202 -0.6684  0.3993
40627SOL    HW127844   5.074   7.892   9.164 -2.6634 -0.3005 -0.4380
40627SOL    HW227845   5.030   7.756   9.213 -0.3407 -0.9542 -0.0802
40628SOL     OW27846  11.109   7.157   4.078 -0.2138 -0.5864 -0.5136
40628SOL    HW127847  11.075   7.099   4.009 -0.3922 -0.9578 -0.1236
40628SOL    HW227848  11.170   7.215   4.033 -0.4936 -0.6793 -1.0230
40629SOL     OW27849   5.282   5.849   5.243  0.3485 -0.3571  0.3638
40629SOL    HW127850   5.314   5.830   5.155  0.2364 -0.3979  0.3316
40629SOL    HW227851   5.211   5.786   5.257 -0.2714  0.2638  0.1118
40630SOL     OW27852   5.194   6.908   1.940 -0.2800  0.3827  0.1970
40630SOL    HW127853   5.269   6.944   1.893 -1.1849  0.0437 -1.5831
40630SOL    HW227854   5.208   6.813   1.938  0.2306  0.3997  1.6408
40631SOL     OW27855   8.920   5.823   5.363  0.7271 -0.1133 -0.2077
40631SOL    HW127856   8.837   5.790   5.330 -0.8653  1.5746  1.8429
40631SOL    HW227857   8.937   5.902   5.311  0.5607  0.0558 -0.0056
40632SOL     OW27858   5.509   7.467   8.023  0.0377 -0.2480 -0.0304
40632SOL    HW127859   5.561   7.394   7.990  2.7624 -0.3735  3.8504
40632SOL    HW227860   5.570   7.541   8.022 -1.3946  0.9562 -0.0789
40633SOL     OW27861   8.011   9.540   5.801  0.4672 -0.2994  0.4887
40633SOL    HW127862   8.049   9.615   5.757 -0.6888  0.7952  1.2891
40633SOL    HW227863   7.962   9.493   5.733 -0.7551  1.0035  0.4244
40634SOL     OW27864   9.143   7.361   6.677  0.7567  0.7154  0.1369
40634SOL    HW127865   9.139   7.418   6.600 -2.1578 -0.7224 -0.8978
40634SOL    HW227866   9.129   7.273   6.643  1.8432 -0.2572  2.0728
40635SOL     OW27867   5.518   3.991  10.553 -0.2791  0.1257  0.2036
40635SOL    HW127868   5.427   4.017  10.540 -0.0086  0.3303 -1.4974
40635SOL    HW227869   5.560   4.069  10.587 -0.2063  0.9214 -1.5804
40636SOL     OW27870   8.812  11.233   0.912  0.0191  0.4038 -0.4810
40636SOL    HW127871   8.784  11.290   0.984  0.3320 -0.0271 -0.0137
40636SOL    HW227872   8.845  11.154   0.955  1.0704  0.5160 -1.0477
40637SOL     OW27873   3.459   2.015  11.107 -0.3260  0.5130 -0.0305
40637SOL    HW127874   3.388   2.060  11.061  0.2728  0.7890 -0.6896
40637SOL    HW227875   3.505   1.967  11.039 -0.0934  0.0418  0.4514
40638SOL     OW27876   6.140   8.371   1.296  0.1588 -0.1695 -0.1597
40638SOL    HW127877   6.224   8.332   1.319 -0.9771 -2.2085  0.7535
40638SOL    HW227878   6.116   8.331   1.213 -0.3617 -0.3866  0.0855
40639SOL     OW27879   1.433   2.691   1.018 -0.1774 -0.3020  0.0083
40639SOL    HW127880   1.403   2.668   0.930 -0.1591 -1.2603  0.2458
40639SOL    HW227881   1.369   2.650   1.076  0.9975 -1.5159  0.4984
40640SOL     OW27882   4.177   5.353   3.323 -0.4666  0.4362 -0.1166
40640SOL    HW127883   4.165   5.448   3.327 -2.1973  0.3533 -1.7545
40640SOL    HW227884   4.139   5.321   3.405  0.0792  1.1341  0.4199
40641SOL     OW27885  11.101   4.353   3.374 -0.0392  0.1507 -0.2011
40641SOL    HW127886  11.151   4.272   3.361 -0.4522 -0.3922  1.3449
40641SOL    HW227887  11.018   4.337   3.329 -0.0438 -0.2245 -0.0658
40642SOL     OW27888   9.079  12.392   5.792  0.0451  0.2630 -0.5449
40642SOL    HW127889   9.062  12.326   5.860 -0.5783  0.5080 -0.4528
40642SOL    HW227890   9.038  12.472   5.826 -0.8739  0.2256 -1.4980
40643SOL     OW27891  11.393   8.957   1.390  0.7477  0.2005 -0.0420
40643SOL    HW127892  11.406   8.940   1.296  1.9423  2.3336 -0.3142
40643SOL    HW227893  11.479   8.983   1.421  0.0512  0.8923  1.3608
40644SOL     OW27894   0.511   7.619   5.785  0.4652 -0.4737  0.4985
40644SOL    HW127895   0.496   7.550   5.720  0.5451 -1.9012  1.9595
40644SOL    HW227896   0.527   7.573   5.867  1.2823  1.2724  1.3761
40645SOL     OW27897  12.188   8.828   8.711  0.1366  0.9376 -0.7763
40645SOL    HW127898  12.117   8.889   8.729 -0.2323  0.2256  0.3434
40645SOL    HW227899  12.194   8.775   8.791  0.5256 -0.3979 -1.6607
40646SOL     OW27900   7.855   2.617   2.935 -0.3507 -0.5125  0.0063
40646SOL    HW127901   7.797   2.690   2.914 -0.4323 -0.4145  0.5577
40646SOL    HW227902   7.936   2.659   2.965  0.3572 -0.6388 -1.6533
40647SOL     OW27903   4.714   1.650   6.122 -0.2384  0.4419 -0.2493
40647SOL    HW127904   4.723   1.589   6.194  0.5499  0.1088 -0.6233
40647SOL    HW227905   4.693   1.595   6.046 -1.8171  0.8490 -0.1535
40648SOL     OW27906   8.096   5.548   5.788 -0.4558  0.3471  0.3213
40648SOL    HW127907   8.053   5.463   5.794  1.4297 -0.7749 -0.8737
40648SOL    HW227908   8.027   5.612   5.807 -1.7343 -1.4447  2.1198
40649SOL     OW27909   9.206  11.823   8.447  0.1199  0.3050 -0.6566
40649SOL    HW127910   9.263  11.766   8.394 -0.8281 -1.3512  0.0413
40649SOL    HW227911   9.267  11.876   8.499  1.0341  0.4749 -1.8501
40650SOL     OW27912   8.409   3.844   8.064  0.2798  0.4324  0.0196
40650SOL    HW127913   8.497   3.861   8.032  0.7991 -0.0879  1.1243
40650SOL    HW227914   8.397   3.750   8.053  0.5779  0.1927  1.5584
40651SOL     OW27915   2.612  10.758   5.057  0.1818  0.4383 -0.5498
40651SOL    HW127916   2.689  10.738   5.111 -1.6093  1.3133  2.4923
40651SOL    HW227917   2.619  10.852   5.039 -1.4994  1.1724  2.1636
40652SOL     OW27918   7.123   3.294   3.756  0.5096 -0.3073 -0.7233
40652SOL    HW127919   7.055   3.275   3.692 -1.1873  1.5602  0.3856
40652SOL    HW227920   7.144   3.387   3.741  0.2511  0.0963  1.2084
40653SOL     OW27921   5.788  11.368   8.527 -0.4721 -0.4316  0.2154
40653SOL    HW127922   5.784  11.395   8.435 -2.6229 -2.1951 -0.2883
40653SOL    HW227923   5.843  11.434   8.569  0.3535  0.5776 -2.2673
40654SOL     OW27924   4.761   0.831   7.284 -0.3223 -0.4705  0.9178
40654SOL    HW127925   4.719   0.818   7.369  1.9238 -0.4201  2.1110
40654SOL    HW227926   4.840   0.880   7.303 -0.9116  1.7018 -1.5593
40655SOL     OW27927   9.265   3.568   6.104  0.3615 -0.0458  0.2021
40655SOL    HW127928   9.219   3.500   6.153 -2.7570  0.4505 -1.7661
40655SOL    HW227929   9.256   3.647   6.158  0.5600 -0.3538  0.6872
40656SOL     OW27930  10.841   7.139   8.778 -0.7862 -0.5535  0.3845
40656SOL    HW127931  10.883   7.218   8.745 -0.9806 -0.1610  1.0497
40656SOL    HW227932  10.817   7.090   8.699  1.4930 -1.1380 -0.0205
40657SOL     OW27933   6.631  11.268   3.896  0.3142  0.4948 -0.7425
40657SOL    HW127934   6.623  11.199   3.962  0.8775  0.8788 -0.2692
40657SOL    HW227935   6.548  11.264   3.847 -1.6492  2.3586  2.1060
40658SOL     OW27936   0.337   3.619   0.905 -0.1976  0.1963  0.4673
40658SOL    HW127937   0.278   3.656   0.971 -2.1211  0.5658 -1.3332
40658SOL    HW227938   0.408   3.683   0.898 -0.2595  0.4225  1.7561
40659SOL     OW27939   0.624   2.024   7.868 -0.2451  0.4403 -0.2681
40659SOL    HW127940   0.656   2.000   7.955 -3.3609 -0.6935  0.6813
40659SOL    HW227941   0.643   1.947   7.814  2.9995  1.6702 -1.1195
40660SOL     OW27942   0.909   2.762   7.835  0.2632  0.0148  0.5254
40660SOL    HW127943   0.819   2.733   7.815 -0.3915  1.1478  1.6493
40660SOL    HW227944   0.965   2.704   7.784 -1.1661  0.5907 -1.8464
40661SOL     OW27945   3.475   0.667   5.574  0.0264  0.2942  0.1231
40661SOL    HW127946   3.436   0.636   5.491  2.5828 -2.8492 -0.0968
40661SOL    HW227947   3.467   0.592   5.633  0.5983  1.5888  1.9282
40662SOL     OW27948   3.075  11.672  11.975  0.1757 -0.0505 -0.3523
40662SOL    HW127949   3.132  11.749  11.968 -1.0328  1.1056  1.4461
40662SOL    HW227950   3.124  11.610  12.029  1.7760 -1.2688 -3.0058
40663SOL     OW27951   8.976   7.796   8.854  0.1322 -0.0984  0.0621
40663SOL    HW127952   8.986   7.835   8.767  0.9047 -0.7026 -0.1316
40663SOL    HW227953   8.922   7.859   8.902 -1.3020 -0.3160 -1.1953
40664SOL     OW27954   0.559   8.629   4.644  0.1537 -0.4714  0.0039
40664SOL    HW127955   0.493   8.581   4.694  0.6886 -2.3284 -0.9751
40664SOL    HW227956   0.624   8.563   4.621  0.4341  0.5100 -2.2841
40665SOL     OW27957   0.238   1.031   3.973 -0.5406  0.1727  0.2045
40665SOL    HW127958   0.254   0.947   3.928 -1.5087 -0.0689  0.2893
40665SOL    HW227959   0.287   1.095   3.922  0.6488 -0.5148  0.4441
40666SOL     OW27960   5.980   0.772  10.983  0.5781 -0.7808  0.3214
40666SOL    HW127961   6.076   0.773  10.986  0.6733 -2.3012 -1.0431
40666SOL    HW227962   5.957   0.847  10.928  0.8162  0.8734  2.3272
40667SOL     OW27963   9.678  10.900   8.337 -0.2909 -0.0663  0.0299
40667SOL    HW127964   9.757  10.857   8.304 -0.1919 -0.2880  0.5512
40667SOL    HW227965   9.711  10.976   8.385 -0.4790  0.8194 -1.1910
40668SOL     OW27966   4.130   2.006   4.466  0.0965 -0.0517 -0.4688
40668SOL    HW127967   4.111   1.921   4.506 -1.3215 -0.6305 -2.2453
40668SOL    HW227968   4.068   2.066   4.507 -0.1424 -0.2657 -0.5106
40669SOL     OW27969   2.063   9.475   9.183  0.1244 -0.9714 -0.3368
40669SOL    HW127970   2.031   9.396   9.139 -0.7972 -1.4335  1.0898
40669SOL    HW227971   2.138   9.503   9.131  0.6807 -2.9898 -0.6922
40670SOL     OW27972   2.246   5.761  10.762  0.8492  0.4929  1.2686
40670SOL    HW127973   2.299   5.695  10.808  0.7957  0.3774  1.1639
40670SOL    HW227974   2.233   5.830  10.827  1.1651  0.5422  1.2849
40671SOL     OW27975  10.787   9.718   7.981 -0.1131 -0.3447 -0.1584
40671SOL    HW127976  10.870   9.711   7.935  0.0158 -0.6659  0.1200
40671SOL    HW227977  10.733   9.648   7.944  0.8599 -2.3232  1.9672
40672SOL     OW27978   9.833   2.338   5.445 -0.4575  0.1652  0.3548
40672SOL    HW127979   9.780   2.409   5.409 -0.7640 -0.2870 -0.0870
40672SOL    HW227980   9.902   2.324   5.380  0.3931  0.9482  1.0587
40673SOL     OW27981   0.533   6.760   0.935 -0.0034  0.6013 -0.1858
40673SOL    HW127982   0.516   6.846   0.973 -1.8050  0.1858  0.0078
40673SOL    HW227983   0.624   6.741   0.959 -0.3747  1.3273  2.0113
40674SOL     OW27984   0.272   5.478  11.717 -0.5268  0.2691 -0.1304
40674SOL    HW127985   0.343   5.445  11.662  0.6032  2.8659 -0.3707
40674SOL    HW227986   0.242   5.401  11.765  0.6834 -1.4240 -1.9280
40675SOL     OW27987   5.854   4.747  12.384  0.1593 -0.2015  0.8061
40675SOL    HW127988   5.768   4.767  12.422 -0.6170 -0.5672 -0.6761
40675SOL    HW227989   5.903   4.829  12.392 -0.0691 -0.1773  2.2609
40676SOL     OW27990   9.348   6.710   6.279  0.5348 -0.0124  0.3076
40676SOL    HW127991   9.286   6.720   6.206  1.1752  0.4396 -0.1831
40676SOL    HW227992   9.433   6.701   6.237  0.7472 -1.2633  0.9578
40677SOL     OW27993   4.307   9.717   2.652 -0.3440 -0.6168  0.8415
40677SOL    HW127994   4.287   9.688   2.563  0.6882 -2.5476  1.1759
40677SOL    HW227995   4.236   9.683   2.705 -1.0248  0.6434  0.7548
40678SOL     OW27996   4.556  11.512  10.730 -0.0030  0.1865 -0.0679
40678SOL    HW127997   4.598  11.512  10.816  0.3925 -1.6604 -0.2180
40678SOL    HW227998   4.497  11.588  10.732  0.9548  0.9401  1.3291
40679SOL     OW27999   7.351   4.308   4.869  0.0750  0.4832  0.0914
40679SOL    HW128000   7.300   4.274   4.942 -0.5541 -0.0932 -0.5957
40679SOL    HW228001   7.427   4.249   4.865 -1.2555 -1.2701 -1.4032
40680SOL     OW28002   4.296  10.234   6.524  0.0869 -0.0232  0.5202
40680SOL    HW128003   4.299  10.207   6.432  0.0185  0.9840  0.2183
40680SOL    HW228004   4.269  10.155   6.570 -2.6143  0.1333 -0.6158
40681SOL     OW28005   8.464  10.606   0.834  0.5621 -0.3174 -0.3010
40681SOL    HW128006   8.411  10.531   0.860  1.3254 -1.1600 -1.1115
40681SOL    HW228007   8.421  10.639   0.755  0.0087  0.3624  0.2619
40682SOL     OW28008   3.421  11.017  12.452  0.1850  0.3243 -0.0730
40682SOL    HW128009   3.362  11.084  12.487 -2.7408 -1.9568 -0.2203
40682SOL    HW228010   3.436  11.044  12.361  1.0431  1.9317  0.4955
40683SOL     OW28011   0.309   6.349  11.374  0.3818 -0.4708  0.6064
40683SOL    HW128012   0.250   6.421  11.353  0.6018 -0.4067  0.1898
40683SOL    HW228013   0.255   6.288  11.425 -0.5074 -1.1391 -1.0494
40684SOL     OW28014  11.981   3.988  11.705  0.1815 -0.3152 -0.0678
40684SOL    HW128015  12.026   4.024  11.629  1.0703  0.4819  0.8148
40684SOL    HW228016  12.036   4.013  11.780  0.0265 -2.1908  0.7258
40685SOL     OW28017   5.667   5.245   8.253 -0.1800 -0.0309  0.0384
40685SOL    HW128018   5.736   5.202   8.305 -0.3059 -1.0295 -0.5899
40685SOL    HW228019   5.714   5.287   8.182 -0.0999  0.4587  0.3785
40686SOL     OW28020   9.574   2.470  11.687 -0.1811 -0.2374 -0.0542
40686SOL    HW128021   9.566   2.477  11.782  1.8728  0.9464  0.0893
40686SOL    HW228022   9.547   2.557  11.655 -0.4871 -0.5038 -0.5229
40687SOL     OW28023   3.402   7.360   1.299 -0.1992 -0.3736 -0.0583
40687SOL    HW128024   3.484   7.328   1.263 -0.1512  0.2582 -0.5324
40687SOL    HW228025   3.338   7.292   1.279  0.4377 -1.4411  1.3955
40688SOL     OW28026  10.778   7.236   2.232 -0.5119 -0.0135 -0.5217
40688SOL    HW128027  10.827   7.274   2.305 -0.3026 -1.3098  0.0392
40688SOL    HW228028  10.709   7.184   2.274  0.6762 -2.2292 -1.1307
40689SOL     OW28029   6.055  11.081   0.316  0.2894 -0.3531 -0.4117
40689SOL    HW128030   6.060  11.082   0.412  0.2326  1.1654 -0.4045
40689SOL    HW228031   6.134  11.034   0.288  0.6972 -0.1324  0.3540
40690SOL     OW28032   5.929  12.065  11.363 -0.3684 -0.1106 -0.7943
40690SOL    HW128033   5.983  12.139  11.392 -0.4356  0.4307 -2.0064
40690SOL    HW228034   5.971  11.988  11.401 -0.2032  0.5270  0.3596
40691SOL     OW28035   2.306   7.136  12.459 -0.1812  0.5550  0.1874
40691SOL    HW128036   2.235   7.171  12.513 -0.8330  0.8121 -0.8043
40691SOL    HW228037   2.301   7.186  12.377  0.7258  0.1188 -0.1528
40692SOL     OW28038   1.529  11.318   6.107  0.2680  0.3456  0.6297
40692SOL    HW128039   1.507  11.304   6.199 -0.8588  0.6402  0.4268
40692SOL    HW228040   1.542  11.230   6.072 -1.3250  0.0770  0.6224
40693SOL     OW28041   4.385   4.459   3.072 -0.1831  0.2403 -0.0511
40693SOL    HW128042   4.400   4.366   3.053  2.3591  0.1890  1.6793
40693SOL    HW228043   4.446   4.479   3.143 -1.9133  2.8319  0.8605
40694SOL     OW28044   6.496   6.409   4.778 -0.1441 -0.2356 -0.0865
40694SOL    HW128045   6.539   6.365   4.851  0.6733  1.2759  0.3926
40694SOL    HW228046   6.478   6.339   4.715  1.0646 -1.2403  0.6395
40695SOL     OW28047   2.808   6.013   5.782  0.0105 -0.4379 -0.0636
40695SOL    HW128048   2.821   5.941   5.721  2.2564 -1.5638  1.5974
40695SOL    HW228049   2.895   6.028   5.820 -0.5612  2.5556  0.3334
40696SOL     OW28050   0.931   9.874  12.162  0.1843 -0.2315  0.1717
40696SOL    HW128051   0.930   9.899  12.070 -1.6944  0.0812  0.2443
40696SOL    HW228052   0.899   9.951  12.209  2.1151  0.0059  1.2469
40697SOL     OW28053   7.253   9.783   1.975  0.2703 -1.0094  0.7142
40697SOL    HW128054   7.342   9.767   1.946 -0.1347 -1.3380 -0.4080
40697SOL    HW228055   7.207   9.700   1.960 -0.4010 -0.6223  0.5519
40698SOL     OW28056  11.393   5.846   6.570 -0.1758  0.1518 -0.2171
40698SOL    HW128057  11.477   5.812   6.602  0.2691  0.4799 -1.0036
40698SOL    HW228058  11.398   5.940   6.586 -1.0585 -0.0132  1.1779
40699SOL     OW28059   0.640   7.682   9.927  0.0410  0.5865  0.3012
40699SOL    HW128060   0.552   7.690   9.963 -0.2200  1.3974 -0.4849
40699SOL    HW228061   0.652   7.760   9.874  1.9607  1.4438  1.8764
40700SOL     OW28062   4.829   2.468  12.026  0.5375 -0.6185 -0.4029
40700SOL    HW128063   4.853   2.388  11.979  0.5708 -0.1449 -1.2080
40700SOL    HW228064   4.912   2.514  12.038  0.7322 -1.3213  1.2843
40701SOL     OW28065  10.317   2.887   3.901  0.0185  0.3544 -0.1468
40701SOL    HW128066  10.366   2.911   3.979 -1.2119 -0.9186  1.0690
40701SOL    HW228067  10.384   2.867   3.835  1.0657  2.4448  0.2247
40702SOL     OW28068   0.275   9.426   5.201  0.9745 -0.3335  0.0208
40702SOL    HW128069   0.322   9.349   5.234  1.2861 -0.1767 -0.0545
40702SOL    HW228070   0.184   9.397   5.193  1.0016 -0.5412  0.4684
40703SOL     OW28071   7.949   8.793   3.633  0.6538 -0.1833  0.4617
40703SOL    HW128072   7.854   8.781   3.629  0.6620 -0.1530  0.1365
40703SOL    HW228073   7.979   8.774   3.544  1.1367 -1.6860  0.9145
40704SOL     OW28074   5.443   3.248  10.086 -0.1434  0.5439  0.0210
40704SOL    HW128075   5.425   3.342  10.093  0.7659  0.8338 -1.1801
40704SOL    HW228076   5.537   3.243  10.066  0.0185 -0.6681  0.9968
40705SOL     OW28077   4.532   8.538  11.100  0.0212 -0.2030 -0.0440
40705SOL    HW128078   4.450   8.489  11.101 -0.5161  0.6838  0.7274
40705SOL    HW228079   4.552   8.549  11.007  0.2542 -2.0064 -0.2427
40706SOL     OW28080  10.052  10.801   4.866  0.0914  0.3951 -0.7736
40706SOL    HW128081  10.085  10.749   4.793  0.9352  1.0694 -0.8926
40706SOL    HW228082   9.994  10.866   4.824  1.0346  1.1574 -0.9336
40707SOL     OW28083   9.019   3.818   8.116  0.6189 -0.2172 -0.1634
40707SOL    HW128084   9.022   3.723   8.122  0.3360 -0.1594  1.2905
40707SOL    HW228085   9.079   3.849   8.184  0.1498  0.6475 -0.1183
40708SOL     OW28086  12.135   3.713   3.681 -0.5848 -0.0508 -0.2574
40708SOL    HW128087  12.136   3.798   3.724 -1.5068 -0.4306  0.5759
40708SOL    HW228088  12.099   3.731   3.593  2.0811  0.8551 -1.2474
40709SOL     OW28089   6.717   8.961   9.290 -0.3415  0.3388  0.6194
40709SOL    HW128090   6.745   8.890   9.349 -0.5511  0.3563  0.7433
40709SOL    HW228091   6.688   9.031   9.349  0.8473  0.9401  0.5147
40710SOL     OW28092   2.748  12.421   5.293  0.0426  0.3405  0.7911
40710SOL    HW128093   2.664  12.380   5.313 -1.1528  2.5242  0.5571
40710SOL    HW228094   2.761  12.404   5.200 -1.9414  2.8713 -0.0537
40711SOL     OW28095   7.608  10.959   1.482 -0.0899 -0.0824 -0.1527
40711SOL    HW128096   7.596  10.878   1.432 -0.8654  0.6654 -1.2271
40711SOL    HW228097   7.678  11.006   1.437 -3.3257  2.4090 -3.1468
40712SOL     OW28098   1.348   3.870   6.944 -0.1981  0.0925  0.5580
40712SOL    HW128099   1.344   3.946   7.003 -0.9450  1.1538 -0.7951
40712SOL    HW228100   1.266   3.824   6.958  0.4727 -0.7863  1.7499
40713SOL     OW28101   2.157   5.626   9.074  0.1895 -0.2763 -0.0630
40713SOL    HW128102   2.223   5.595   9.137  1.5117  0.1102 -1.2050
40713SOL    HW228103   2.106   5.691   9.122 -1.1103 -2.4294  1.6577
40714SOL     OW28104   3.862  10.028   2.660 -0.4321 -0.4882  0.3789
40714SOL    HW128105   3.787  10.062   2.710 -1.5666 -1.2518 -0.7523
40714SOL    HW228106   3.913  10.106   2.638  0.3268 -0.1415  2.9872
40715SOL     OW28107  11.235   4.919   6.614 -0.2815 -0.0900  0.3219
40715SOL    HW128108  11.324   4.956   6.616 -1.1044  2.0996 -0.0830
40715SOL    HW228109  11.241   4.839   6.666  1.5088  0.9879  1.9200
40716SOL     OW28110  11.454   1.363   8.462 -0.1644  0.3423 -0.5042
40716SOL    HW128111  11.512   1.287   8.453  0.7885  1.0232 -0.2368
40716SOL    HW228112  11.500   1.421   8.522 -2.1456 -0.0690  1.5591
40717SOL     OW28113   2.529   5.175   0.936 -0.2692  0.1569  0.6379
40717SOL    HW128114   2.485   5.195   0.853  3.1391 -1.3474 -1.7355
40717SOL    HW228115   2.471   5.111   0.979 -1.8312  0.5121 -0.8351
40718SOL     OW28116   5.927   2.675   2.154 -0.1385  0.1356 -0.4019
40718SOL    HW128117   5.987   2.714   2.217 -1.5167  0.5360  0.7246
40718SOL    HW228118   5.903   2.747   2.096 -0.5333  0.3072 -0.0337
40719SOL     OW28119  10.105   6.444  11.096 -0.0659  0.1285 -0.6977
40719SOL    HW128120  10.136   6.372  11.042 -0.1503 -0.5797  0.1830
40719SOL    HW228121  10.119   6.415  11.186 -2.1349  0.2930 -0.2773
40720SOL     OW28122  10.875   2.615   8.577  0.1614 -0.1729 -0.1487
40720SOL    HW128123  10.962   2.577   8.560  0.7321  1.2699 -0.5661
40720SOL    HW228124  10.851   2.658   8.495 -1.0196 -0.6591 -0.0782
40721SOL     OW28125   3.795   1.504   1.103  0.4385 -0.5288 -0.4694
40721SOL    HW128126   3.807   1.556   1.024  0.5427 -0.2230 -0.2527
40721SOL    HW228127   3.872   1.524   1.157 -0.2251  0.1975  0.2293
40722SOL     OW28128   7.606   0.211   7.945 -0.1781 -0.3709  0.3145
40722SOL    HW128129   7.576   0.211   7.854 -0.0288 -1.2128  0.2580
40722SOL    HW228130   7.666   0.285   7.951 -1.4351  0.6959  0.1558
40723SOL     OW28131   2.997   8.931   8.556  0.6539  0.1681 -0.4278
40723SOL    HW128132   2.970   9.017   8.586 -0.4800 -0.3345  0.0562
40723SOL    HW228133   3.076   8.912   8.606  0.5596  0.6712 -0.0791
40724SOL     OW28134   3.544   0.902   9.035 -0.2503  0.6828 -0.4414
40724SOL    HW128135   3.489   0.949   9.098 -0.5545  1.7292 -1.4708
40724SOL    HW228136   3.606   0.967   9.003 -0.4716  0.3196 -1.6600
40725SOL     OW28137   8.834   2.143   8.531 -0.2950 -0.5278  0.3217
40725SOL    HW128138   8.793   2.200   8.466  1.6915 -0.3641 -0.8563
40725SOL    HW228139   8.762   2.089   8.564 -1.4117 -0.5202 -1.9154
40726SOL     OW28140   5.353   2.154  12.414  0.1401 -0.6089  0.1319
40726SOL    HW128141   5.299   2.175  12.337 -0.2883 -2.1543 -0.0119
40726SOL    HW228142   5.306   2.082  12.457  1.5479 -1.2791  0.5904
40727SOL     OW28143   6.078   3.329  11.451  0.3461 -0.1860 -0.4080
40727SOL    HW128144   6.090   3.290  11.364  1.9139 -2.0871  0.5712
40727SOL    HW228145   6.088   3.423  11.436  1.6630 -0.5412 -2.1520
40728SOL     OW28146   1.351   6.756   2.736 -0.6564 -0.6863 -0.0427
40728SOL    HW128147   1.433   6.707   2.738 -0.9079 -1.1321 -0.3559
40728SOL    HW228148   1.283   6.689   2.740 -1.0376 -0.2562  2.0008
40729SOL     OW28149   8.141  11.656   9.818 -0.3826 -0.9213  0.4254
40729SOL    HW128150   8.056  11.670   9.861 -2.1685 -2.2709 -2.3845
40729SOL    HW228151   8.155  11.561   9.822  1.4190 -0.6567  1.4770
40730SOL     OW28152  10.159   8.083  12.137 -0.1258  0.6640 -0.0106
40730SOL    HW128153  10.239   8.057  12.090 -1.9329 -2.3824 -1.6530
40730SOL    HW228154  10.120   8.150  12.081  1.2468  2.3371  0.9055
40731SOL     OW28155   1.281  11.554   5.647 -0.3303  0.1471  0.8646
40731SOL    HW128156   1.197  11.598   5.652 -0.1281  0.5939  0.3928
40731SOL    HW228157   1.343  11.622   5.622  0.6640  0.4526  3.7568
40732SOL     OW28158   8.346   3.920   5.296 -0.1808 -0.0308  0.4754
40732SOL    HW128159   8.436   3.948   5.311  0.6405 -1.5594 -1.1256
40732SOL    HW228160   8.342   3.831   5.333 -1.3975  0.4480  1.5604
40733SOL     OW28161   9.615   0.881  10.944  0.4080 -0.5192 -0.1348
40733SOL    HW128162   9.531   0.926  10.949 -0.3225 -1.9481  1.3364
40733SOL    HW228163   9.622   0.854  10.853 -0.0651  0.7878 -0.5815
40734SOL     OW28164   9.519   7.251   0.634 -0.3217  1.1216 -0.0064
40734SOL    HW128165   9.565   7.195   0.572  1.0159  0.7765  1.2333
40734SOL    HW228166   9.456   7.192   0.677  0.0133  0.9170  0.2143
40735SOL     OW28167   1.083   0.167   6.433  0.4613  0.1979  0.3007
40735SOL    HW128168   1.175   0.176   6.456  0.3205 -1.0199  1.4614
40735SOL    HW228169   1.059   0.251   6.394  2.7028 -0.2979 -2.4312
40736SOL     OW28170   6.003  10.590  10.923  0.0475  0.1061  0.2892
40736SOL    HW128171   6.006  10.505  10.880 -0.7243  0.2487 -0.0704
40736SOL    HW228172   6.044  10.576  11.009  1.9790 -0.1018 -0.6094
40737SOL     OW28173   1.857   5.634  10.850  0.1795 -0.1879 -0.2540
40737SOL    HW128174   1.834   5.588  10.931  2.7167  0.3218  0.8638
40737SOL    HW228175   1.774   5.664  10.814 -1.1772 -2.0465  1.1638
40738SOL     OW28176   0.769  11.031   5.210  0.0459  0.4129  0.0386
40738SOL    HW128177   0.676  11.026   5.232  0.0033  1.1466  0.0424
40738SOL    HW228178   0.809  11.073   5.286  0.3006  0.5844 -0.1884
40739SOL     OW28179   4.584   8.350   3.431 -0.3821  0.2688  0.4637
40739SOL    HW128180   4.653   8.295   3.393  0.1330 -0.2734  2.0625
40739SOL    HW228181   4.538   8.292   3.492 -1.0590  1.1192  0.7846
40740SOL     OW28182   4.125   3.867  11.646  0.3130  0.1454 -0.1276
40740SOL    HW128183   4.073   3.790  11.623  0.6945  0.2519 -1.4264
40740SOL    HW228184   4.088   3.898  11.728 -0.9302 -0.4343 -0.4548
40741SOL     OW28185  11.950   2.952   9.069 -0.2344 -0.1553  0.2780
40741SOL    HW128186  12.040   2.975   9.092 -0.6478  0.0901  1.7506
40741SOL    HW228187  11.907   3.036   9.053 -0.5542 -0.1724  1.0085
40742SOL     OW28188  10.359   8.502   7.774 -0.2949 -0.4769 -0.3997
40742SOL    HW128189  10.448   8.534   7.789 -0.0955 -1.2293  0.0286
40742SOL    HW228190  10.370   8.432   7.709 -0.5400 -0.7831 -0.1080
40743SOL     OW28191   0.323   3.048   9.255  0.5569  0.1861 -0.5572
40743SOL    HW128192   0.402   3.072   9.304  0.2039  0.7551 -0.2600
40743SOL    HW228193   0.260   3.023   9.322  0.7633 -1.1855 -0.8360
40744SOL     OW28194   7.165   7.430   0.355 -0.3463  0.1737 -0.2694
40744SOL    HW128195   7.257   7.454   0.371 -0.3609 -0.4307  0.7983
40744SOL    HW228196   7.169   7.374   0.277 -0.1222  2.1459 -1.7399
40745SOL     OW28197   8.466   9.565   6.948 -0.4257  0.0271 -0.1343
40745SOL    HW128198   8.502   9.577   7.036  1.4574  0.9362 -0.9669
40745SOL    HW228199   8.397   9.500   6.959  0.5778 -0.8041  1.8121
40746SOL     OW28200   1.116   8.295   4.211  0.2205 -0.0031  0.2606
40746SOL    HW128201   1.189   8.335   4.258  1.3027 -0.9176 -0.5633
40746SOL    HW228202   1.043   8.299   4.272  1.7777 -2.0338  2.5023
40747SOL     OW28203   4.934   1.176   2.365  0.0905 -0.1278 -0.2811
40747SOL    HW128204   4.930   1.080   2.369  0.1613 -0.1873 -1.2888
40747SOL    HW228205   4.989   1.201   2.439  0.7998 -0.9259 -0.5145
40748SOL     OW28206   1.674   4.058   2.264  0.5090 -0.1269  0.0080
40748SOL    HW128207   1.687   3.994   2.194  0.3473  3.0258 -3.1352
40748SOL    HW228208   1.595   4.028   2.309  0.1322 -1.8388 -1.6634
40749SOL     OW28209   5.852   2.200   7.249  0.2179  0.0309 -0.1082
40749SOL    HW128210   5.908   2.221   7.323  1.8505  1.6898 -1.7155
40749SOL    HW228211   5.912   2.187   7.176 -1.3179 -1.8895 -1.1310
40750SOL     OW28212  10.997   5.677   0.791 -0.2020 -0.4733  0.4089
40750SOL    HW128213  10.988   5.709   0.701 -1.3472  0.1820  0.7392
40750SOL    HW228214  10.987   5.582   0.784 -0.8946 -0.3700 -0.0821
40751SOL     OW28215   4.513   4.724   8.910 -0.0852 -0.7557  0.3424
40751SOL    HW128216   4.585   4.663   8.898 -0.8783 -1.9600  1.3539
40751SOL    HW228217   4.520   4.785   8.836  1.5110 -1.2706  0.0290
40752SOL     OW28218   7.203   3.348  10.132  0.3448  0.6210  0.0892
40752SOL    HW128219   7.109   3.362  10.143  0.5580  1.1750  1.3615
40752SOL    HW228220   7.235   3.431  10.096  0.2865  0.2515 -0.8498
40753SOL     OW28221   1.459   6.505   7.137 -0.4114 -0.2096 -0.0079
40753SOL    HW128222   1.495   6.579   7.089 -1.9609  0.6539  0.0642
40753SOL    HW228223   1.392   6.544   7.193 -1.3835 -1.6829 -0.0816
40754SOL     OW28224   5.469   3.231   2.471 -0.3315 -0.5372 -0.4974
40754SOL    HW128225   5.434   3.283   2.399 -0.6276  0.9713  0.6848
40754SOL    HW228226   5.522   3.164   2.429 -1.5219 -0.4766 -2.1549
40755SOL     OW28227   4.763   9.409   9.973  0.3960 -0.5794  0.6351
40755SOL    HW128228   4.722   9.357   9.904 -0.5582  1.0140 -0.0457
40755SOL    HW228229   4.831   9.459   9.928 -0.5886  0.8763  0.7032
40756SOL     OW28230   9.977   3.133   1.088 -0.6542 -0.3353 -0.1359
40756SOL    HW128231   9.903   3.072   1.085 -1.2115  0.2500  0.9843
40756SOL    HW228232   9.948   3.203   1.147  0.1944  0.7215 -0.9118
40757SOL     OW28233   4.846   3.222  10.069  0.1270  0.1543  0.0824
40757SOL    HW128234   4.758   3.228  10.034  0.1068 -1.2639 -0.1524
40757SOL    HW228235   4.883   3.143  10.029  0.9152 -0.1977  1.4250
40758SOL     OW28236   1.211   4.962   7.397 -0.1153  0.2083 -0.0462
40758SOL    HW128237   1.262   4.979   7.475 -1.3486 -0.0312  0.8426
40758SOL    HW228238   1.268   4.909   7.341  0.3694 -0.6160  1.2020
40759SOL     OW28239   9.026   1.877   1.350  0.1121 -0.1795  0.6014
40759SOL    HW128240   9.053   1.788   1.370 -1.4346 -0.3839  1.9770
40759SOL    HW228241   8.932   1.879   1.370 -0.1089  1.4719 -0.4204
40760SOL     OW28242  10.134   7.036   2.606 -0.1460 -0.0582 -1.0519
40760SOL    HW128243  10.096   6.990   2.681  0.0715 -0.7670 -1.3593
40760SOL    HW228244  10.181   6.967   2.558  1.0595  0.6835 -0.9707
40761SOL     OW28245   9.422   3.125   3.915  0.9086 -0.5900  0.2360
40761SOL    HW128246   9.503   3.144   3.868  1.1791  1.7993  1.5077
40761SOL    HW228247   9.445   3.135   4.008 -0.9296  0.7017  0.6154
40762SOL     OW28248   0.332   4.182   1.943  0.0258 -0.3865  0.0606
40762SOL    HW128249   0.409   4.160   1.994 -0.3138 -2.3858 -0.2177
40762SOL    HW228250   0.293   4.098   1.920 -1.6562  0.5418 -0.7003
40763SOL     OW28251   6.836  10.507   6.141 -0.3470  0.1164  0.4634
40763SOL    HW128252   6.857  10.432   6.086 -0.0027 -0.2496  1.0752
40763SOL    HW228253   6.779  10.561   6.087 -0.2785 -0.3859 -0.1319
40764SOL     OW28254   7.886   7.068   8.940  0.3003  0.4730 -0.2971
40764SOL    HW128255   7.914   6.998   8.880 -0.3012 -0.4016  0.4017
40764SOL    HW228256   7.803   7.036   8.975 -1.1081  2.5130 -1.5583
40765SOL     OW28257   5.542   5.178  10.877  0.3842 -0.9267 -0.5219
40765SOL    HW128258   5.546   5.092  10.835 -1.0631 -1.0740 -0.4155
40765SOL    HW228259   5.449   5.200  10.878  0.6611  0.3220  0.1124
40766SOL     OW28260   3.246   3.549  12.202 -0.2911  0.2496  0.3831
40766SOL    HW128261   3.157   3.573  12.229 -0.7344 -0.5075 -0.3575
40766SOL    HW228262   3.234   3.507  12.117  0.8686  0.8781 -0.1057
40767SOL     OW28263   9.372   6.558  10.957 -0.1885 -0.6684  0.3593
40767SOL    HW128264   9.333   6.478  10.993 -0.0983 -0.3985  1.0730
40767SOL    HW228265   9.299   6.619  10.951  0.1861  0.0331  2.2557
40768SOL     OW28266   6.008   4.282   8.233  0.0045  0.1582 -0.1189
40768SOL    HW128267   6.027   4.236   8.151 -1.5143 -1.8660  0.5739
40768SOL    HW228268   5.973   4.214   8.291 -0.9491  1.9349  1.5014
40769SOL     OW28269   1.612   9.263   9.684  0.1356  0.5449  0.6404
40769SOL    HW128270   1.606   9.282   9.778  2.1962  0.2726  0.8762
40769SOL    HW228271   1.594   9.169   9.677 -0.6478  0.6863  0.6669
40770SOL     OW28272  12.126   6.316   5.352  0.1310 -0.3037  0.1471
40770SOL    HW128273  12.085   6.267   5.423  1.2287 -0.8399  0.4369
40770SOL    HW228274  12.053   6.341   5.296 -0.4741 -2.4614 -0.1389
40771SOL     OW28275   3.808   5.931  10.192 -0.1078  0.0888 -0.6180
40771SOL    HW128276   3.837   5.842  10.212  0.6334  0.3484 -0.5102
40771SOL    HW228277   3.716   5.932  10.218  0.5357  0.1236  1.9789
40772SOL     OW28278   7.804  10.323   8.857 -0.1157 -0.2609  0.3718
40772SOL    HW128279   7.829  10.302   8.947  0.4713  0.7012  0.4515
40772SOL    HW228280   7.839  10.411   8.843  0.9890 -0.9119 -1.2552
40773SOL     OW28281   4.862   7.587  10.277 -0.2865 -0.0731 -0.2846
40773SOL    HW128282   4.836   7.634  10.356 -1.0731 -1.4885  0.3201
40773SOL    HW228283   4.786   7.534  10.254  0.3557 -0.5757 -1.3268
40774SOL     OW28284   3.575   7.636   3.819 -0.5919 -0.1900 -0.7517
40774SOL    HW128285   3.529   7.720   3.813  0.5465  0.5674  0.4023
40774SOL    HW228286   3.545   7.598   3.902 -0.5327 -0.5543 -0.8971
40775SOL     OW28287   7.850   6.920   3.206 -0.7672  0.1118 -0.3741
40775SOL    HW128288   7.850   6.851   3.140 -0.4486 -0.7595  0.5052
40775SOL    HW228289   7.762   6.957   3.204 -2.2167 -2.8363  1.6401
40776SOL     OW28290   4.468   1.219   5.110 -0.5465 -0.5099 -0.3837
40776SOL    HW128291   4.377   1.243   5.090 -0.5523 -1.2723 -1.3250
40776SOL    HW228292   4.517   1.246   5.032  0.0360 -0.1670  0.0920
40777SOL     OW28293  12.252   5.015  11.794 -0.1670  0.2251  0.0153
40777SOL    HW128294  12.160   4.989  11.797  0.1276 -0.8156  0.7251
40777SOL    HW228295  12.299   4.936  11.766  0.6092  0.4266  0.6899
40778SOL     OW28296   7.178  10.051   2.367  0.3182 -0.0035 -1.1337
40778SOL    HW128297   7.127   9.975   2.338 -0.3721 -0.4045  0.9310
40778SOL    HW228298   7.268  10.029   2.344  0.3711 -2.2479  0.7746
40779SOL     OW28299   9.501   4.276   7.534 -0.4718  0.4127  0.1910
40779SOL    HW128300   9.476   4.223   7.610  0.8544 -0.1490  0.2528
40779SOL    HW228301   9.427   4.267   7.474 -0.4787 -1.1366  0.3888
40780SOL     OW28302   4.359   5.995   8.299 -0.1598  0.8523  0.0988
40780SOL    HW128303   4.448   6.005   8.265 -0.6857  0.0161 -1.6571
40780SOL    HW228304   4.308   6.060   8.251 -0.8326 -0.0193 -0.4086
40781SOL     OW28305   3.734   9.685   4.641 -0.1018  0.6599 -0.1335
40781SOL    HW128306   3.666   9.617   4.639  0.1062  0.4614 -0.7960
40781SOL    HW228307   3.704   9.747   4.707 -0.2631 -0.1089  0.5300
40782SOL     OW28308   5.162  10.342  10.142  0.5616 -0.1878 -0.0819
40782SOL    HW128309   5.155  10.280  10.070  0.4175 -0.8683  0.5149
40782SOL    HW228310   5.179  10.426  10.099  0.4370 -0.5758 -0.9074
40783SOL     OW28311   1.302  11.656  12.423  0.2940  0.3532 -0.3031
40783SOL    HW128312   1.339  11.700  12.347 -2.0172  2.9496 -0.0958
40783SOL    HW228313   1.310  11.720  12.494 -0.5510 -0.7151  0.7990
40784SOL     OW28314   6.877   9.437   4.896 -0.1860  0.1525  0.5830
40784SOL    HW128315   6.810   9.504   4.901 -2.0606 -1.5459 -0.2545
40784SOL    HW228316   6.923   9.454   4.814 -1.7374 -0.4793 -0.4623
40785SOL     OW28317  11.461   2.988   4.698 -0.7683  0.1030  0.1094
40785SOL    HW128318  11.529   2.920   4.704 -0.1183  0.6912 -0.4872
40785SOL    HW228319  11.378   2.939   4.701 -0.3252 -0.6437  0.5785
40786SOL     OW28320   4.628   1.355   6.568 -0.4635 -0.4890  0.0651
40786SOL    HW128321   4.537   1.339   6.589 -0.8177 -1.4520 -1.9106
40786SOL    HW228322   4.625   1.409   6.488  0.6726 -0.6827 -0.1311
40787SOL     OW28323   4.393   1.282   7.945 -0.4315  0.4438 -0.4542
40787SOL    HW128324   4.387   1.378   7.941 -1.9093  0.4162  0.1840
40787SOL    HW228325   4.483   1.264   7.969 -0.5162  1.7565  1.0106
40788SOL     OW28326  11.783   3.709   2.819 -0.1345 -0.2971  0.2692
40788SOL    HW128327  11.786   3.797   2.782 -0.6868 -0.2199  0.4014
40788SOL    HW228328  11.871   3.695   2.854  0.0839  0.0335 -0.1343
40789SOL     OW28329   3.110   7.913   9.222 -0.0383 -0.0929  0.0097
40789SOL    HW128330   3.148   7.843   9.168  2.4761 -0.4032  2.0189
40789SOL    HW228331   3.023   7.881   9.244 -0.1206 -1.1475 -1.6678
40790SOL     OW28332   8.754   4.515  11.885  0.1505 -0.0881 -0.5345
40790SOL    HW128333   8.782   4.563  11.963 -0.6764 -0.1976 -0.1571
40790SOL    HW228334   8.834   4.502  11.834  0.6946 -0.0068  0.2916
40791SOL     OW28335   0.359  10.948   0.957 -0.5891  0.0030 -0.2501
40791SOL    HW128336   0.368  10.897   0.877  1.9910 -2.1661  1.2605
40791SOL    HW228337   0.437  11.002   0.961 -2.0387  2.2681 -0.4939
40792SOL     OW28338  12.176  10.483   5.534  0.1854 -0.2368  0.2103
40792SOL    HW128339  12.197  10.543   5.605  2.3615 -1.8836  1.0760
40792SOL    HW228340  12.113  10.421   5.572  0.3081 -0.3136  0.2892
40793SOL     OW28341   8.340   7.043   3.092 -0.4564 -0.0215  0.2759
40793SOL    HW128342   8.299   7.126   3.068  0.6978  0.2410 -0.8506
40793SOL    HW228343   8.273   6.977   3.074 -1.0448  0.5677  0.2687
40794SOL     OW28344   0.205   2.697   6.183  0.0123  0.0746  0.1653
40794SOL    HW128345   0.261   2.729   6.112  0.4999 -0.8804  0.1142
40794SOL    HW228346   0.123   2.672   6.140 -0.2264  0.8493  0.1505
40795SOL     OW28347   5.140   6.163   2.417 -0.0151 -0.5103  0.3231
40795SOL    HW128348   5.125   6.253   2.390  1.4957 -0.2796  0.1922
40795SOL    HW228349   5.071   6.113   2.373 -0.2213  0.4299 -0.4528
40796SOL     OW28350   0.088  10.709   6.124  0.5689  0.5645 -0.2183
40796SOL    HW128351   0.042  10.706   6.041 -0.0583  0.1980  0.1364
40796SOL    HW228352   0.129  10.796   6.126 -1.2082  1.4346  0.0426
40797SOL     OW28353   0.766  10.201  10.930  0.0478 -0.4584  0.3584
40797SOL    HW128354   0.682  10.186  10.973 -0.9839 -1.5866 -1.8917
40797SOL    HW228355   0.813  10.119  10.940 -0.1383 -0.6771 -0.4685
40798SOL     OW28356   6.822   6.366   4.213  0.4991 -0.5635  0.3452
40798SOL    HW128357   6.796   6.452   4.247 -0.1101 -1.4173  2.1306
40798SOL    HW228358   6.740   6.316   4.210  0.5208 -0.5939 -2.3727
40799SOL     OW28359   5.192   1.147  10.709 -0.6788 -0.5710  0.5361
40799SOL    HW128360   5.235   1.176  10.629 -0.7797 -1.1091  0.2807
40799SOL    HW228361   5.228   1.060  10.726 -0.9818 -0.6455  0.8313
40800SOL     OW28362   2.696   4.483  12.392  0.0507  0.4643  0.2567
40800SOL    HW128363   2.683   4.575  12.414 -2.2793  0.5188 -0.9858
40800SOL    HW228364   2.726   4.484  12.301 -0.8964  0.0008 -0.0731
40801SOL     OW28365   5.687  12.133   8.869  0.1641  0.1409  0.8474
40801SOL    HW128366   5.604  12.093   8.842 -0.5850  1.1352  1.5926
40801SOL    HW228367   5.725  12.166   8.787 -0.7005  0.6215  0.6221
40802SOL     OW28368  10.192   0.061  11.169  0.0536 -0.0507  0.2541
40802SOL    HW128369  10.108   0.106  11.170 -0.1937 -0.4971 -0.1104
40802SOL    HW228370  10.254   0.126  11.138 -0.4067 -0.1327 -0.8621
40803SOL     OW28371  11.755   8.918   0.551  0.2583 -0.2380 -0.8307
40803SOL    HW128372  11.829   8.906   0.611  0.7193  1.2336 -1.0725
40803SOL    HW228373  11.778   8.865   0.475  0.6457 -0.5011 -0.5391
40804SOL     OW28374   0.293  12.187   4.441 -0.9117 -0.4774  0.0395
40804SOL    HW128375   0.312  12.242   4.517 -1.0474  2.5289 -1.9238
40804SOL    HW228376   0.200  12.168   4.447 -1.8326  2.9266 -1.1105
40805SOL     OW28377   3.413  11.929   0.863 -0.4320  0.0524 -0.5520
40805SOL    HW128378   3.321  11.903   0.861 -0.4201 -0.1487  0.8181
40805SOL    HW228379   3.454  11.867   0.924  0.1664  1.4864  0.5548
40806SOL     OW28380   3.819   1.145   1.761  0.4743 -0.4373 -0.1663
40806SOL    HW128381   3.864   1.074   1.716  1.5907  0.1385  0.0092
40806SOL    HW228382   3.817   1.216   1.698  0.4401 -0.2226  0.0756
40807SOL     OW28383  10.116   3.047   8.550 -0.0487  0.3247 -0.0726
40807SOL    HW128384  10.093   2.974   8.494 -0.3361 -0.1328  0.6296
40807SOL    HW228385  10.066   3.121   8.515 -0.6364 -0.0778 -0.0926
40808SOL     OW28386  12.310   7.290   0.953 -0.7396 -0.1768  0.9720
40808SOL    HW128387  12.230   7.290   1.006 -0.2940 -0.8336  1.6598
40808SOL    HW228388  12.371   7.346   1.002 -0.7572  0.3020  0.4620
40809SOL     OW28389  11.804   1.102   3.068  0.3473  0.1118  0.2152
40809SOL    HW128390  11.851   1.069   3.145  0.3346  0.0066  0.1783
40809SOL    HW228391  11.722   1.052   3.068  0.2777  0.2253  0.2246
40810SOL     OW28392   9.274   6.646   7.296 -0.2561  0.0021 -0.3976
40810SOL    HW128393   9.243   6.568   7.343 -0.1326 -1.2258 -2.2284
40810SOL    HW228394   9.369   6.639   7.298 -0.2244  0.4797 -0.0089
40811SOL     OW28395   9.706   2.273   3.653 -0.2433 -0.3701  0.1166
40811SOL    HW128396   9.783   2.326   3.632 -0.8247 -0.3201 -2.2301
40811SOL    HW228397   9.660   2.324   3.719  1.0954  0.2073  0.6542
40812SOL     OW28398   0.657   9.243  10.490 -0.4604 -0.4265  0.4119
40812SOL    HW128399   0.645   9.327  10.446 -0.9335 -0.3755  0.6395
40812SOL    HW228400   0.587   9.188  10.456 -2.2001  0.2475  2.6636
40813SOL     OW28401   9.526  11.802   6.034 -0.4840 -0.0418  0.6094
40813SOL    HW128402   9.605  11.789   6.086  0.0808 -0.2738 -0.2875
40813SOL    HW228403   9.474  11.723   6.049  0.7798 -1.2674 -1.0684
40814SOL     OW28404   1.614   1.084   5.148 -0.3085 -0.4886 -0.4786
40814SOL    HW128405   1.691   1.115   5.194 -1.0127 -0.5629  0.7868
40814SOL    HW228406   1.641   1.079   5.056  0.0963  2.9610 -0.6519
40815SOL     OW28407   8.600   4.329  11.447 -0.1996 -0.3211  0.4063
40815SOL    HW128408   8.694   4.310  11.450  0.1713  1.1570 -0.5969
40815SOL    HW228409   8.596   4.424  11.434 -1.8392 -0.3838  0.2957
40816SOL     OW28410   8.706   6.275   2.400  0.6003 -0.0000  0.3792
40816SOL    HW128411   8.671   6.360   2.373 -1.7259 -0.9764  0.0228
40816SOL    HW228412   8.695   6.274   2.495 -0.0960 -0.1718  0.3031
40817SOL     OW28413   2.243   1.123   6.406 -0.4562  0.4012 -0.8529
40817SOL    HW128414   2.159   1.166   6.394  0.1211  1.7411 -0.2856
40817SOL    HW228415   2.294   1.184   6.460  0.3974 -0.9961 -0.0061
40818SOL     OW28416   6.536   8.330   4.062 -0.2828 -0.8170  0.0806
40818SOL    HW128417   6.550   8.265   3.993  0.0724 -0.3944 -0.2539
40818SOL    HW228418   6.441   8.331   4.076 -0.3286 -1.1102 -0.2047
40819SOL     OW28419   2.280   2.056  11.924  0.1121  0.2868 -0.1048
40819SOL    HW128420   2.316   2.084  11.840  0.0100 -2.9479 -1.3448
40819SOL    HW228421   2.212   1.992  11.902 -1.9572  1.4112  2.3948
40820SOL     OW28422   8.036   8.879   5.321  0.0760  0.1836 -0.1181
40820SOL    HW128423   7.953   8.881   5.273 -1.2364  0.8902  2.0271
40820SOL    HW228424   8.049   8.786   5.341  0.1300  0.0004 -0.9670
40821SOL     OW28425   4.731  10.341   7.797  0.1679 -0.1373 -0.2401
40821SOL    HW128426   4.734  10.436   7.805 -1.6367 -0.1235  0.9019
40821SOL    HW228427   4.643  10.323   7.763  0.9797 -1.3477 -1.8686
40822SOL     OW28428   9.643   8.505   0.341  0.1699 -0.2689 -0.3333
40822SOL    HW128429   9.598   8.426   0.312 -2.1102  0.7032  0.3242
40822SOL    HW228430   9.676   8.545   0.260 -1.9451 -0.0209 -1.1465
40823SOL     OW28431   8.858   8.032   8.108  0.3876  0.0601 -0.4502
40823SOL    HW128432   8.895   8.066   8.027  2.1795  2.1673  1.1245
40823SOL    HW228433   8.931   7.986   8.150 -0.5491 -1.1040 -0.0377
40824SOL     OW28434   2.733   2.410   4.470  0.2814  0.1889  0.0665
40824SOL    HW128435   2.768   2.352   4.402 -2.2417 -0.2859 -0.9422
40824SOL    HW228436   2.742   2.360   4.551  0.9232 -0.3485 -0.3290
40825SOL     OW28437   3.020   4.990   9.049  0.4524  0.2974 -0.0065
40825SOL    HW128438   3.094   5.045   9.077  1.1528 -0.8746  0.5350
40825SOL    HW228439   3.011   5.008   8.955  1.7497  0.1121 -0.1858
40826SOL     OW28440   0.150   2.670   7.296  0.1577 -0.7000  0.0778
40826SOL    HW128441   0.220   2.670   7.231 -0.1756  1.4002 -0.3555
40826SOL    HW228442   0.083   2.728   7.259 -1.6621 -2.3131  0.6573
40827SOL     OW28443  11.835   2.802  11.701  0.4074  0.2764  0.1593
40827SOL    HW128444  11.751   2.770  11.735  1.1325 -0.0702  1.7018
40827SOL    HW228445  11.822   2.896  11.690 -0.5588  0.0558 -0.8287
40828SOL     OW28446  12.451   0.140  10.510  0.4064 -0.3258 -0.4907
40828SOL    HW128447  12.385   0.091  10.559 -0.5570  1.5704  0.1891
40828SOL    HW228448  12.435   0.232  10.532  4.5761  0.1743  1.3423
40829SOL     OW28449   2.563   7.389  11.293 -0.5498  0.5292 -0.4739
40829SOL    HW128450   2.516   7.308  11.275 -2.8393  1.7732 -0.5182
40829SOL    HW228451   2.642   7.362  11.338 -1.9590 -1.6514  0.8505
40830SOL     OW28452   3.212   5.407   0.655  0.5791  0.1288  0.2547
40830SOL    HW128453   3.199   5.459   0.735 -1.0730  2.4718 -1.3746
40830SOL    HW228454   3.281   5.453   0.608 -0.1555  0.2701 -0.7347
40831SOL     OW28455   7.983   3.025   1.724 -0.2739 -0.5788  0.2659
40831SOL    HW128456   7.974   2.993   1.634 -3.7011 -0.2019  0.3591
40831SOL    HW228457   8.028   3.109   1.715 -0.7023 -0.4734 -1.1170
40832SOL     OW28458   8.819   3.986   9.800  0.3439 -0.4093  0.1259
40832SOL    HW128459   8.736   4.005   9.757  1.2151  0.3846 -1.3027
40832SOL    HW228460   8.800   3.914   9.861 -1.6189  0.5450  0.7135
40833SOL     OW28461  10.340   5.033   1.477 -0.1152 -0.1123 -0.5594
40833SOL    HW128462  10.306   5.118   1.450 -0.8054 -0.6597 -1.4701
40833SOL    HW228463  10.423   5.053   1.521 -1.3311  1.2243  1.2675
40834SOL     OW28464   8.509   7.363   5.845 -0.3981  0.6287 -0.2094
40834SOL    HW128465   8.441   7.372   5.912 -0.4787 -3.6187  0.5693
40834SOL    HW228466   8.465   7.388   5.764 -1.5357  2.0522  0.7822
40835SOL     OW28467   8.208  10.099  11.944  0.3953  0.5010  0.2705
40835SOL    HW128468   8.251  10.019  11.973 -1.8421 -0.6134  0.7153
40835SOL    HW228469   8.233  10.164  12.010  0.7718 -0.2839  0.9262
40836SOL     OW28470   4.131  11.145   2.897 -0.1183 -0.0747 -0.2990
40836SOL    HW128471   4.222  11.174   2.896 -0.5868  1.6548  1.5447
40836SOL    HW228472   4.133  11.064   2.948  0.0765  1.4014  2.1642
40837SOL     OW28473   8.863   7.824   4.537  0.2118  0.0266  0.2015
40837SOL    HW128474   8.866   7.808   4.631 -1.9538  0.5729  0.4333
40837SOL    HW228475   8.896   7.913   4.526  1.7389 -0.5097  0.2497
40838SOL     OW28476  11.201   8.932   3.631 -0.2600  0.3206 -0.3753
40838SOL    HW128477  11.153   9.015   3.637  0.4328  0.6472  2.5710
40838SOL    HW228478  11.271   8.950   3.568 -1.7931  0.9787 -1.9846
40839SOL     OW28479   5.959   8.215  10.050 -0.0162  0.2817 -0.2819
40839SOL    HW128480   5.873   8.213  10.091 -0.5868 -0.4206 -1.4336
40839SOL    HW228481   6.021   8.220  10.123 -0.9547 -1.4862  0.7054
40840SOL     OW28482   0.639  10.868   7.685 -0.1009 -0.0236 -0.3283
40840SOL    HW128483   0.575  10.909   7.743 -1.0036  0.9027 -1.9161
40840SOL    HW228484   0.683  10.803   7.741 -1.5864  0.1421  1.1193
40841SOL     OW28485   6.107   1.597   4.124  0.4777 -0.0409  0.0416
40841SOL    HW128486   6.123   1.678   4.172 -0.1102 -0.0049  0.1828
40841SOL    HW228487   6.041   1.552   4.176 -0.2306  0.0386 -0.7806
40842SOL     OW28488   9.460   7.126   2.355  0.5265 -0.1313 -0.2124
40842SOL    HW128489   9.533   7.105   2.414  0.9634  0.9553 -0.3343
40842SOL    HW228490   9.384   7.131   2.412  1.1296  2.0020  0.4991
40843SOL     OW28491   9.540   1.309   1.439  0.3294 -0.8532 -0.6179
40843SOL    HW128492   9.633   1.290   1.426 -0.3193 -2.6330 -3.3226
40843SOL    HW228493   9.521   1.379   1.377 -0.3686 -1.2519 -0.8598
40844SOL     OW28494   2.970   0.178   1.007  0.4861 -0.0684  0.2480
40844SOL    HW128495   3.006   0.266   1.005  0.3919 -0.0141  0.9470
40844SOL    HW228496   3.045   0.121   1.021  0.9268 -0.3352 -2.5170
40845SOL     OW28497   3.743   2.593   0.017  0.4880  0.1508 -0.0237
40845SOL    HW128498   3.791   2.609   0.098  2.1503 -1.7525 -0.5336
40845SOL    HW228499   3.657   2.630   0.032  1.4941  2.0102  1.6851
40846SOL     OW28500   7.786  11.796   3.735 -0.4021  0.0318  0.4167
40846SOL    HW128501   7.752  11.723   3.683 -0.1975  1.3830 -1.7458
40846SOL    HW228502   7.872  11.814   3.699 -1.2837  2.6657 -0.6080
40847SOL     OW28503   3.144   7.016   5.752 -0.1685 -0.2283 -0.1232
40847SOL    HW128504   3.086   6.991   5.824  1.8609  1.4134  2.2418
40847SOL    HW228505   3.118   6.958   5.680 -0.4314 -4.0991  2.7222
40848SOL     OW28506   0.633  10.955   4.976 -0.8013 -0.5487  0.0310
40848SOL    HW128507   0.693  10.942   5.050 -1.8833 -1.5150  0.7724
40848SOL    HW228508   0.635  10.871   4.930 -2.4735 -1.0156  0.7559
40849SOL     OW28509  11.332  12.204   0.474 -0.0691 -0.3033 -0.0777
40849SOL    HW128510  11.390  12.132   0.499  0.1093 -0.3205 -0.5225
40849SOL    HW228511  11.316  12.189   0.380 -0.0783  0.2046 -0.1589
40850SOL     OW28512   4.676  12.144   5.884 -0.5711  0.1334 -0.0449
40850SOL    HW128513   4.596  12.101   5.854 -0.4942  1.1741 -1.9098
40850SOL    HW228514   4.670  12.233   5.849  1.3547  0.2578 -0.1799
40851SOL     OW28515   2.837  10.020   3.138 -0.5226  0.5803 -0.2291
40851SOL    HW128516   2.927  10.053   3.146  0.0596 -1.1429  0.9490
40851SOL    HW228517   2.800  10.030   3.225 -0.9763 -0.0648 -0.3413
40852SOL     OW28518   5.104  11.671  10.028 -0.2675  0.0416 -0.7692
40852SOL    HW128519   5.148  11.619  10.095 -0.5103  0.4900 -0.2609
40852SOL    HW228520   5.083  11.607   9.959 -1.1544 -0.6729  0.1379
40853SOL     OW28521   8.662   0.611   3.886 -0.1723 -0.0765 -0.0775
40853SOL    HW128522   8.604   0.685   3.904 -0.3540 -0.2456  0.0410
40853SOL    HW228523   8.611   0.534   3.913 -0.3044 -0.3123 -0.9637
40854SOL     OW28524   0.234   5.465  10.340 -0.8112  0.1538 -0.7633
40854SOL    HW128525   0.223   5.486  10.433  0.1153 -0.4285 -0.5043
40854SOL    HW228526   0.279   5.540  10.302 -3.6388  1.6506 -1.3901
40855SOL     OW28527   6.552   2.006   6.584 -0.3382 -0.0969  0.1239
40855SOL    HW128528   6.607   2.055   6.645 -1.2216  1.6325 -0.4113
40855SOL    HW228529   6.602   1.926   6.567  1.1221  0.5479  1.1136
40856SOL     OW28530   5.755  10.824   3.427 -0.2438  0.2142  0.1437
40856SOL    HW128531   5.762  10.905   3.477  0.9834  1.4540 -1.8729
40856SOL    HW228532   5.785  10.756   3.487 -0.1693  1.4062  1.5143
40857SOL     OW28533  10.415  11.617   6.472  0.5260 -0.2607  0.6401
40857SOL    HW128534  10.346  11.551   6.478  0.7403 -0.3881  1.9691
40857SOL    HW228535  10.456  11.616   6.559  1.0565  1.0487  0.4171
40858SOL     OW28536   0.375  10.198  12.319 -0.5449  0.0117 -0.1657
40858SOL    HW128537   0.287  10.184  12.354 -1.3202  1.1280 -1.5374
40858SOL    HW228538   0.405  10.111  12.293 -0.9942 -0.4648  0.8598
40859SOL     OW28539   3.753   0.118   8.311 -0.2023  0.4381  0.3813
40859SOL    HW128540   3.724   0.086   8.225  0.5656  0.1168  0.2323
40859SOL    HW228541   3.790   0.041   8.354  0.2209  0.7845  0.6463
40860SOL     OW28542   0.972   2.974  11.576  0.3138  0.0091  0.1776
40860SOL    HW128543   0.932   2.989  11.490 -0.2235  0.2107  0.4555
40860SOL    HW228544   1.066   2.982  11.561  0.1956  0.5963 -0.2822
40861SOL     OW28545   0.641   0.219  11.688 -0.0077  0.3639  0.7915
40861SOL    HW128546   0.634   0.140  11.635 -0.7408  0.0228  1.3666
40861SOL    HW228547   0.622   0.291  11.627  2.2428  0.2583 -0.1035
40862SOL     OW28548   2.765  10.181   0.561  0.8359 -0.4809 -0.5742
40862SOL    HW128549   2.835  10.122   0.534  1.9387  1.4263 -2.1688
40862SOL    HW228550   2.791  10.266   0.525 -1.2580  0.7312  0.6182
40863SOL     OW28551   5.608   1.260   3.799 -0.1148 -0.0733  0.5909
40863SOL    HW128552   5.665   1.240   3.725  0.2016 -0.3789  0.9079
40863SOL    HW228553   5.532   1.302   3.761  0.2300  0.1450  0.1355
40864SOL     OW28554   7.316   9.708   6.136 -0.6884  0.4401 -0.2290
40864SOL    HW128555   7.285   9.704   6.226  0.1199 -0.9966  0.0256
40864SOL    HW228556   7.387   9.772   6.138 -0.3017  0.0108  0.3029
40865SOL     OW28557   7.687   9.707   3.715 -1.0120 -0.3197  0.4197
40865SOL    HW128558   7.767   9.655   3.719 -0.9619 -0.2532  0.2895
40865SOL    HW228559   7.718   9.797   3.704 -1.0984 -0.2694  0.5905
40866SOL     OW28560  10.853   9.127  11.336  0.2425 -0.3923 -0.9487
40866SOL    HW128561  10.830   9.074  11.259  0.0370  0.0328 -1.1804
40866SOL    HW228562  10.818   9.214  11.317  0.2563 -0.2656 -0.4067
40867SOL     OW28563   3.021   7.253   8.387  0.8639  0.5865  0.3144
40867SOL    HW128564   2.965   7.271   8.463 -1.9477 -2.4277 -0.7853
40867SOL    HW228565   3.056   7.338   8.362 -3.0725  2.7443  1.3142
40868SOL     OW28566   0.854  12.149   4.773  0.9302 -0.0125 -0.5814
40868SOL    HW128567   0.938  12.104   4.782  0.9357  0.1592  0.3157
40868SOL    HW228568   0.816  12.146   4.861 -0.0697 -0.2211 -1.0129
40869SOL     OW28569   4.170   5.304  11.274 -0.0430  0.2905 -0.3246
40869SOL    HW128570   4.229   5.306  11.349  0.3694 -0.4438 -0.6217
40869SOL    HW228571   4.164   5.395  11.246  1.0602  0.3589 -0.3668
40870SOL     OW28572  12.031   5.397   4.147  0.1272 -0.1673  0.0499
40870SOL    HW128573  12.074   5.482   4.141 -2.2385  1.1815  0.8565
40870SOL    HW228574  11.990   5.385   4.061  0.0264 -0.2442  0.1084
40871SOL     OW28575   0.099  10.182   8.375 -0.1646  0.3758  0.7854
40871SOL    HW128576   0.059  10.199   8.290  0.1473 -0.9852  0.3508
40871SOL    HW228577   0.174  10.242   8.378 -0.0368  0.2718  0.0025
40872SOL     OW28578   2.721   2.808   9.479 -0.0117  0.6597 -0.2991
40872SOL    HW128579   2.713   2.718   9.449  1.8313 -0.4078  2.1084
40872SOL    HW228580   2.631   2.835   9.499 -0.4676 -1.0910  0.1439
40873SOL     OW28581   1.930  11.998   4.591 -0.1703 -0.2110 -0.6515
40873SOL    HW128582   1.977  12.029   4.513 -0.5917  0.8263 -0.5122
40873SOL    HW228583   1.880  11.923   4.560  1.3305 -1.1745 -0.8710
40874SOL     OW28584   9.807  10.480   4.241  0.2519 -0.2045  0.2613
40874SOL    HW128585   9.899  10.504   4.245  0.5018 -0.6846 -1.6015
40874SOL    HW228586   9.783  10.492   4.149 -0.9643 -2.1213  0.2712
40875SOL     OW28587  10.014  11.251   9.854 -0.1938 -0.0679 -0.2561
40875SOL    HW128588  10.007  11.161   9.884  1.2956 -0.3432 -0.6622
40875SOL    HW228589  10.094  11.284   9.895 -0.3086  0.8100 -0.7121
40876SOL     OW28590  12.191   5.487   9.568  0.2273  0.2782 -0.5477
40876SOL    HW128591  12.162   5.575   9.546 -0.1716  0.4902  0.7599
40876SOL    HW228592  12.266   5.501   9.626 -0.9858 -0.2034  1.1890
40877SOL     OW28593   4.596   1.574   9.981 -0.1744  0.3714  0.3543
40877SOL    HW128594   4.618   1.492   9.935 -1.1882 -0.9359  2.0917
40877SOL    HW228595   4.660   1.637   9.948 -0.5201 -0.6022 -2.4233
40878SOL     OW28596   1.566   4.046   3.523 -0.6520  0.3658 -0.0811
40878SOL    HW128597   1.562   4.124   3.467  1.0697 -0.3677 -1.3347
40878SOL    HW228598   1.513   3.981   3.478 -1.2306  0.4947  0.4115
40879SOL     OW28599   4.283   6.462   8.812  0.0489 -0.2674  0.2065
40879SOL    HW128600   4.326   6.443   8.895 -1.1910  1.3530  1.2638
40879SOL    HW228601   4.345   6.518   8.765 -0.1537  0.6585  1.0068
40880SOL     OW28602   2.490   8.423   5.486 -0.0890  0.0641 -0.1957
40880SOL    HW128603   2.403   8.463   5.496 -0.0256  0.4240 -0.9731
40880SOL    HW228604   2.512   8.389   5.573  0.6043  3.2586  1.0120
40881SOL     OW28605   4.847   0.233   5.492 -0.2259  0.2696 -0.3369
40881SOL    HW128606   4.897   0.201   5.567 -0.2681  0.6062 -0.1671
40881SOL    HW228607   4.759   0.250   5.526  0.2314  2.2035 -0.0186
40882SOL     OW28608   0.097  10.918   1.693  0.8927  0.2949 -0.2393
40882SOL    HW128609   0.039  10.842   1.696  1.9040 -0.5101 -0.5339
40882SOL    HW228610   0.103  10.941   1.601 -0.8037  1.8716 -0.0127
40883SOL     OW28611   1.359   2.712  11.948 -0.3767  0.1080 -0.5135
40883SOL    HW128612   1.351   2.791  11.896  1.0097  0.5186 -0.1454
40883SOL    HW228613   1.301   2.649  11.905 -2.2045  1.5569 -0.2875
40884SOL     OW28614   7.077   0.688   8.324  0.5635  0.2279  0.3081
40884SOL    HW128615   7.118   0.606   8.352 -0.2454 -0.1972  0.2789
40884SOL    HW228616   7.048   0.729   8.404  1.0201  0.5216  0.3275
40885SOL     OW28617   1.086   9.603  10.677  0.2078  0.1025 -0.2379
40885SOL    HW128618   1.027   9.676  10.689 -0.7922 -0.6465 -0.4730
40885SOL    HW228619   1.029   9.526  10.675  1.3874 -0.9763  2.5021
40886SOL     OW28620  11.520   9.768   2.647  0.1365 -0.0150  0.2630
40886SOL    HW128621  11.439   9.725   2.618 -1.0392  2.6580 -0.7352
40886SOL    HW228622  11.584   9.745   2.579 -0.0477 -1.2015  0.4557
40887SOL     OW28623   8.472   5.659   7.376  0.3250  0.5471 -0.0464
40887SOL    HW128624   8.443   5.711   7.450 -1.0271  0.1639 -0.2742
40887SOL    HW228625   8.481   5.722   7.304 -1.3441  0.4988 -0.3327
40888SOL     OW28626   1.610   5.456   2.477 -0.1047 -0.2526  0.0507
40888SOL    HW128627   1.581   5.509   2.551 -1.3261  1.4067 -1.5085
40888SOL    HW228628   1.536   5.398   2.458 -1.2231  1.6065 -1.7995
40889SOL     OW28629   1.291  11.811   6.196  0.2202  0.3924 -0.0043
40889SOL    HW128630   1.358  11.775   6.253  0.3817  1.8668  0.8008
40889SOL    HW228631   1.340  11.855   6.126  0.2364  2.7499  1.3701
40890SOL     OW28632   0.172   1.588  10.135  0.2056  0.4816  0.3500
40890SOL    HW128633   0.205   1.520  10.076 -0.7672  0.5589 -0.3042
40890SOL    HW228634   0.131   1.539  10.207 -0.4542  0.3558 -0.0983
40891SOL     OW28635   3.928   9.845   7.671 -0.2332  0.4587 -0.6546
40891SOL    HW128636   3.897   9.756   7.651  0.9800 -0.0332 -0.4634
40891SOL    HW228637   3.978   9.871   7.594  0.0260  0.6775 -0.4171
40892SOL     OW28638  10.466   8.999   2.111 -0.8203 -0.0781 -0.0257
40892SOL    HW128639  10.400   8.980   2.177 -0.2504  3.6749  1.9342
40892SOL    HW228640  10.417   9.027   2.034 -1.5023 -0.5161  0.2461
40893SOL     OW28641   5.912   3.623   7.341 -0.2960 -0.5293 -0.3445
40893SOL    HW128642   5.817   3.613   7.339 -0.2324 -2.0400  1.5230
40893SOL    HW228643   5.937   3.631   7.249 -2.4804  3.5596 -0.7964
40894SOL     OW28644   1.364  12.461   7.532  0.6124 -0.1632 -0.1050
40894SOL    HW128645   1.286  12.407   7.544  1.3999 -1.6050 -1.2873
40894SOL    HW228646   1.434  12.412   7.576  0.7358  1.6033  1.8516
40895SOL     OW28647   6.117   1.492   8.978  0.0783  0.4850 -0.2251
40895SOL    HW128648   6.071   1.487   9.062  0.9600  1.2645  0.3319
40895SOL    HW228649   6.147   1.583   8.973  1.1930  0.1044 -0.7522
40896SOL     OW28650   8.940   6.984   9.693 -0.2025 -0.0277 -0.0442
40896SOL    HW128651   8.849   7.012   9.687 -0.0857  0.2751 -0.4685
40896SOL    HW228652   8.948   6.915   9.627 -0.2393 -0.3746  0.3121
40897SOL     OW28653   2.101  10.452   5.117  0.5703 -0.1863  0.0958
40897SOL    HW128654   2.032  10.417   5.173  1.2626 -1.5728  0.1299
40897SOL    HW228655   2.167  10.484   5.178 -0.7684  2.8986  0.1154
40898SOL     OW28656   7.144   1.267   5.780  0.1586  0.0177 -0.4590
40898SOL    HW128657   7.084   1.339   5.801  0.6024  0.3442 -0.3101
40898SOL    HW228658   7.173   1.235   5.865  0.6567  0.2490 -0.5406
40899SOL     OW28659   4.461   3.940   1.301 -0.0381  0.1374  0.2149
40899SOL    HW128660   4.429   3.864   1.350  1.2872 -0.8509 -0.3775
40899SOL    HW228661   4.497   3.902   1.220  1.0927  1.3457  0.1240
40900SOL     OW28662   5.904   4.062   0.361  0.3187  0.0407 -0.1546
40900SOL    HW128663   5.850   3.998   0.407  1.8366 -1.0544  0.1778
40900SOL    HW228664   5.901   4.035   0.269  1.4576 -0.9231  0.0714
40901SOL     OW28665   8.648   4.071  12.378  0.1965 -0.1754  0.0019
40901SOL    HW128666   8.742   4.082  12.396  0.4687 -0.7886 -0.9733
40901SOL    HW228667   8.630   3.981  12.403 -0.2203  0.0464  0.5101
40902SOL     OW28668   7.996   4.981   7.214  0.1716 -0.3586 -0.3002
40902SOL    HW128669   7.972   4.907   7.158  0.5529 -1.4642  0.9327
40902SOL    HW228670   7.916   5.035   7.218 -0.0773 -0.6195 -1.3055
40903SOL     OW28671   3.069   0.345   5.909  0.3594 -0.2096  0.2773
40903SOL    HW128672   3.069   0.255   5.878 -0.1981 -0.0065 -0.3404
40903SOL    HW228673   3.061   0.398   5.830  1.2783  0.4123  0.5857
40904SOL     OW28674   3.763   2.403   7.648 -0.0018  0.0309  0.2445
40904SOL    HW128675   3.819   2.480   7.658 -1.6570  1.2613  0.4230
40904SOL    HW228676   3.774   2.355   7.730  1.3388 -0.1570 -0.0210
40905SOL     OW28677   5.680  12.195  12.236 -0.1554 -0.1323  0.2563
40905SOL    HW128678   5.656  12.288  12.229  1.3827  0.2302 -0.5319
40905SOL    HW228679   5.599  12.152  12.263 -1.0625  1.3502  0.0200
40906SOL     OW28680   9.452  12.119   3.446  1.1212  0.3280  0.2451
40906SOL    HW128681   9.410  12.037   3.419  1.7284 -0.1742  0.7845
40906SOL    HW228682   9.513  12.138   3.375  0.9706  0.3192  0.1121
40907SOL     OW28683   9.575   3.346   4.486 -0.7320  0.5247 -0.2695
40907SOL    HW128684   9.521   3.284   4.534  2.6951 -1.1226  1.9081
40907SOL    HW228685   9.601   3.300   4.406  2.3109 -1.4418  1.6243
40908SOL     OW28686  11.826   5.743   9.363 -0.1874  0.4679 -0.1338
40908SOL    HW128687  11.786   5.666   9.404 -0.0970  1.6591  2.4323
40908SOL    HW228688  11.786   5.747   9.276 -0.4582 -2.2210 -0.2348
40909SOL     OW28689   9.206   3.667   7.091  0.1755  0.1254 -0.7248
40909SOL    HW128690   9.200   3.727   7.165  1.6554 -3.8228  3.0692
40909SOL    HW228691   9.123   3.619   7.093  0.9470 -1.2660 -0.2713
40910SOL     OW28692   3.081   0.064   5.849 -0.2568 -0.3817  0.1281
40910SOL    HW128693   3.051   0.085   5.761  0.6694 -0.1201 -0.1353
40910SOL    HW228694   3.006   0.021   5.890  0.3621 -3.7899 -1.9211
40911SOL     OW28695   9.360   4.391   2.933 -0.0919 -0.2496 -0.1606
40911SOL    HW128696   9.436   4.439   2.900  1.3143 -0.9199  1.8794
40911SOL    HW228697   9.370   4.303   2.897 -0.7607  0.0633 -1.1236
40912SOL     OW28698   0.196   1.506   5.962 -0.1544  0.2602  0.2644
40912SOL    HW128699   0.265   1.567   5.987 -0.7356 -0.1370  3.1267
40912SOL    HW228700   0.116   1.557   5.964 -0.1746  0.3609 -1.5742
40913SOL     OW28701   0.263  10.440  10.175  0.3277  0.3356 -0.1685
40913SOL    HW128702   0.304  10.514  10.218 -1.1414  1.4671 -0.6496
40913SOL    HW228703   0.176  10.434  10.214 -0.5794  0.6034 -2.0296
40914SOL     OW28704   7.726   2.141   3.181  0.2681  0.1672 -0.0737
40914SOL    HW128705   7.754   2.166   3.269 -0.6272  0.6016  0.1056
40914SOL    HW228706   7.742   2.047   3.176  1.1929  0.3044  0.2150
40915SOL     OW28707  11.401   5.668   1.459  0.8632 -0.3318  0.0684
40915SOL    HW128708  11.426   5.726   1.387  0.2485  0.2537  0.3122
40915SOL    HW228709  11.396   5.581   1.420  0.2067  0.0313 -0.6770
40916SOL     OW28710   8.049   5.541   3.763  0.4245  0.0273  0.0154
40916SOL    HW128711   7.976   5.603   3.769 -0.1290 -0.5714 -0.3506
40916SOL    HW228712   8.030   5.476   3.831  0.6025 -0.1489 -0.1037
40917SOL     OW28713   3.696   0.484  10.433  0.4205  0.2946  0.0951
40917SOL    HW128714   3.669   0.470  10.343 -0.1957 -0.0258  0.3251
40917SOL    HW228715   3.718   0.577  10.438  0.4319  0.3183 -0.3743
40918SOL     OW28716   7.834   6.216   3.583  0.0685 -0.1432  0.0232
40918SOL    HW128717   7.799   6.179   3.664  0.7647  0.8650  0.8135
40918SOL    HW228718   7.785   6.298   3.571 -1.5035 -1.2439 -1.7346
40919SOL     OW28719   6.206   6.775   3.168  0.3347  0.4164  0.1026
40919SOL    HW128720   6.235   6.838   3.102 -1.4722  1.5889  0.3556
40919SOL    HW228721   6.110   6.777   3.163  0.1776 -0.3704  1.9275
40920SOL     OW28722   3.640   0.151  10.252  0.0763 -1.0931 -0.0275
40920SOL    HW128723   3.593   0.070  10.266 -1.7132 -0.0576  0.2337
40920SOL    HW228724   3.573   0.213  10.221  1.2466  0.4501  0.3871
40921SOL     OW28725   8.397   6.302   8.687 -0.5432 -0.3059 -0.3178
40921SOL    HW128726   8.452   6.336   8.616 -2.1995 -0.6980 -1.8608
40921SOL    HW228727   8.456   6.247   8.738  0.9501  0.8072 -0.7418
40922SOL     OW28728   2.238   2.098   2.357 -0.7866 -0.3622 -0.2305
40922SOL    HW128729   2.244   2.152   2.279  1.0793  0.1351  0.1877
40922SOL    HW228730   2.213   2.159   2.427 -0.7792 -0.4614 -0.1404
40923SOL     OW28731   5.867   1.662   9.819  0.0704  0.1223  0.2508
40923SOL    HW128732   5.807   1.651   9.892 -0.5363  1.2977 -0.0514
40923SOL    HW228733   5.846   1.748   9.783  1.3242  0.1709 -0.4250
40924SOL     OW28734   2.510   3.536   1.398  0.3112 -0.6829  0.2413
40924SOL    HW128735   2.431   3.498   1.359 -2.7705  2.5785  2.6633
40924SOL    HW228736   2.529   3.479   1.473 -0.4864 -0.8967  0.2966
40925SOL     OW28737   1.207   5.691   6.607 -0.0848 -0.1302 -0.4840
40925SOL    HW128738   1.130   5.635   6.596  0.1358 -0.5125 -0.1187
40925SOL    HW228739   1.258   5.678   6.527 -1.4071  1.7692 -1.7480
40926SOL     OW28740   9.127   0.666   1.212  0.1299 -0.2707  0.5273
40926SOL    HW128741   9.131   0.611   1.134  0.8051  0.2116  0.2110
40926SOL    HW228742   9.034   0.669   1.235  0.0619 -1.3348  0.4077
40927SOL     OW28743   2.422   5.520   6.145 -0.8595  0.2281  0.4937
40927SOL    HW128744   2.355   5.495   6.209  0.1843  2.2921  2.5287
40927SOL    HW228745   2.504   5.493   6.185 -0.2618 -0.0448 -0.8491
40928SOL     OW28746   9.697  10.017   3.249 -0.2457  0.0939 -0.0599
40928SOL    HW128747   9.672  10.032   3.340  0.0196 -1.5829  0.3168
40928SOL    HW228748   9.723   9.925   3.246 -0.7572 -0.0268 -1.9495
40929SOL     OW28749   6.318   8.259   5.831 -0.2861  0.2506 -0.0543
40929SOL    HW128750   6.404   8.223   5.809 -0.6228 -0.2230 -0.6490
40929SOL    HW228751   6.267   8.183   5.859 -1.4545 -0.0612 -2.6953
40930SOL     OW28752   7.423  10.562   4.710 -0.1262 -0.2474  0.1522
40930SOL    HW128753   7.492  10.603   4.659 -0.8679  1.2678  0.3217
40930SOL    HW228754   7.350  10.624   4.707 -1.0818 -1.2884  0.9206
40931SOL     OW28755   2.536   5.777   7.710  0.0045 -0.2537 -0.2491
40931SOL    HW128756   2.498   5.738   7.631  0.8836 -1.7188  0.0094
40931SOL    HW228757   2.603   5.715   7.737  1.5748  1.5361  0.1514
40932SOL     OW28758   0.471   2.606   7.602 -0.2591 -0.8931 -0.5581
40932SOL    HW128759   0.501   2.594   7.512 -1.4854 -1.6131 -0.8944
40932SOL    HW228760   0.413   2.532   7.618  0.8635 -1.4548  1.2460
40933SOL     OW28761   8.098  11.425   3.964 -0.3053 -0.5118 -0.1919
40933SOL    HW128762   8.125  11.517   3.957  0.1040 -0.5423  0.7718
40933SOL    HW228763   8.178  11.375   3.948 -0.9388 -0.8217 -2.9505
40934SOL     OW28764   9.830   1.386   4.523 -0.4529 -0.3817 -0.1272
40934SOL    HW128765   9.796   1.296   4.533 -1.0911 -0.2187 -0.7497
40934SOL    HW228766   9.783   1.436   4.589  0.1929 -0.5676  0.4915
40935SOL     OW28767   9.337   2.692   8.153 -0.2963 -0.3047 -0.7747
40935SOL    HW128768   9.266   2.756   8.149  0.4703  0.5880 -0.3614
40935SOL    HW228769   9.360   2.687   8.246  0.2391 -0.5247 -0.9157
40936SOL     OW28770  10.462   1.972   5.757 -0.6753 -0.0220  0.2732
40936SOL    HW128771  10.536   2.029   5.738 -0.7414  0.5553  1.5935
40936SOL    HW228772  10.497   1.908   5.820 -1.1617 -0.0811  0.4867
40937SOL     OW28773   3.822  11.796   3.490 -0.0164 -0.1281  0.1068
40937SOL    HW128774   3.737  11.824   3.456  0.2341  0.5301 -0.0001
40937SOL    HW228775   3.802  11.753   3.573 -0.5028 -0.4875 -0.1876
40938SOL     OW28776   8.991   8.753   6.125  0.1535 -0.0440 -1.1170
40938SOL    HW128777   8.920   8.689   6.123 -0.2794  0.3300  0.4846
40938SOL    HW228778   9.004   8.778   6.034 -0.7651 -1.2086 -1.5911
40939SOL     OW28779   9.977   9.208   5.241 -0.5334 -0.6972  0.1416
40939SOL    HW128780  10.033   9.257   5.301 -1.5391 -0.4504  0.9235
40939SOL    HW228781  10.036   9.151   5.193  0.2790 -1.1625  1.6341
40940SOL     OW28782   0.759   5.120   6.480  0.1641 -0.6691 -0.0361
40940SOL    HW128783   0.701   5.094   6.551 -0.2415 -1.7601 -0.7267
40940SOL    HW228784   0.770   5.040   6.428  0.5684  0.0560 -1.1130
40941SOL     OW28785   1.311   5.087   0.333  0.2522 -0.5003  0.6227
40941SOL    HW128786   1.271   5.006   0.299 -1.4036  1.2605 -1.9841
40941SOL    HW228787   1.403   5.081   0.308  0.0679 -1.3887  0.1049
40942SOL     OW28788   4.721  11.226   1.973  0.2699 -0.2453  0.7713
40942SOL    HW128789   4.687  11.261   2.056 -2.0682  1.0695 -0.6185
40942SOL    HW228790   4.814  11.212   1.989 -0.0549  0.1800  3.5398
40943SOL     OW28791   1.720   3.488   4.554  0.4230  0.3362  0.2651
40943SOL    HW128792   1.741   3.426   4.485  0.4298 -0.8200  1.2794
40943SOL    HW228793   1.784   3.471   4.623  0.4983  1.5536  0.5298
40944SOL     OW28794   1.696   7.595  10.725  0.3083 -0.0659  0.1948
40944SOL    HW128795   1.675   7.543  10.647  0.7090  0.5004 -0.2878
40944SOL    HW228796   1.650   7.677  10.712  0.9816  0.3155  0.2030
40945SOL     OW28797   4.470   3.359  11.667  0.0972 -0.1038 -0.0181
40945SOL    HW128798   4.528   3.426  11.630 -0.1050 -0.5082 -1.0904
40945SOL    HW228799   4.383   3.398  11.662  0.2733  0.6713  1.9716
40946SOL     OW28800   5.547   6.250  11.453  0.6128  0.4667  1.0024
40946SOL    HW128801   5.577   6.178  11.509  0.6066  1.1614  1.9045
40946SOL    HW228802   5.451   6.244  11.457  0.5659 -0.7786 -0.6375
40947SOL     OW28803   0.500   4.415   8.853  0.3731  0.5906  0.3665
40947SOL    HW128804   0.586   4.373   8.844  0.1083  0.1746 -0.4071
40947SOL    HW228805   0.502   4.486   8.789 -0.3957 -0.3922 -0.8229
40948SOL     OW28806   5.559   2.583   2.424 -0.5418 -0.0617 -0.0557
40948SOL    HW128807   5.596   2.565   2.511  0.1991 -0.9282 -0.5344
40948SOL    HW228808   5.621   2.543   2.363 -0.6105  1.2508 -1.0370
40949SOL     OW28809  10.011  10.420  11.404 -0.3843  0.4097 -0.2022
40949SOL    HW128810  10.096  10.402  11.444 -1.5453  0.3496  2.4818
40949SOL    HW228811  10.031  10.438  11.312  2.7781  2.6738  0.7516
40950SOL     OW28812  10.996  12.110   4.781 -0.0673  0.1980 -0.3125
40950SOL    HW128813  10.983  12.162   4.702 -0.3441  0.0940 -0.3380
40950SOL    HW228814  10.923  12.048   4.781  0.8486 -0.9028 -0.8420
40951SOL     OW28815  11.678  10.878   4.124  0.1585 -0.7442  0.2392
40951SOL    HW128816  11.756  10.828   4.100  0.2636 -0.4522 -0.0314
40951SOL    HW228817  11.711  10.963   4.155 -0.0048 -0.9102  0.9071
40952SOL     OW28818   4.861   5.957  11.982  0.0778  0.0790  0.0262
40952SOL    HW128819   4.930   5.892  11.995  0.5712 -0.2017 -3.2093
40952SOL    HW228820   4.901   6.040  12.006  0.1841 -0.5013  1.9979
40953SOL     OW28821   8.632   5.313   2.908 -0.0329  0.5542  0.2775
40953SOL    HW128822   8.685   5.277   2.837 -0.5134  3.6227 -1.8223
40953SOL    HW228823   8.548   5.268   2.900  0.1506  0.3498 -0.6168
40954SOL     OW28824   0.844  10.129   9.548  0.0253 -0.5178 -0.1630
40954SOL    HW128825   0.797  10.096   9.471  1.1793 -0.1543 -1.0523
40954SOL    HW228826   0.893  10.053   9.581 -0.2664 -0.6088  0.0665
40955SOL     OW28827   4.470   5.993   3.271 -0.4161 -0.2752  0.4523
40955SOL    HW128828   4.413   5.949   3.334  0.1888  0.4146  1.5163
40955SOL    HW228829   4.525   6.050   3.324 -0.5448  1.0830 -0.7961
40956SOL     OW28830  11.192   6.008   4.708  0.3880 -0.3885  0.1083
40956SOL    HW128831  11.100   5.987   4.725  0.6292 -1.2377  0.4272
40956SOL    HW228832  11.227   6.034   4.793  0.8933 -1.8863  0.3918
40957SOL     OW28833   0.503   5.197   9.317 -0.5667 -0.0285  0.1165
40957SOL    HW128834   0.416   5.175   9.351  0.1036 -1.5436  0.9353
40957SOL    HW228835   0.495   5.187   9.223 -1.6881  1.4356  0.0084
40958SOL     OW28836   6.396   7.172   2.402 -0.3222  0.2717 -0.3768
40958SOL    HW128837   6.353   7.257   2.395 -2.6802 -0.7447  0.5670
40958SOL    HW228838   6.442   7.175   2.486 -0.4410  0.6112 -0.3224
40959SOL     OW28839   1.009   8.553   3.582 -0.5606  0.0100  0.2453
40959SOL    HW128840   0.980   8.532   3.494 -1.0497 -1.3434  0.7084
40959SOL    HW228841   1.095   8.512   3.589  0.4908  2.0148 -0.3287
40960SOL     OW28842   4.836   7.404   5.873 -0.5021  0.5930 -0.2610
40960SOL    HW128843   4.835   7.309   5.880  0.0269  0.4871 -1.4488
40960SOL    HW228844   4.876   7.434   5.954 -0.5153 -0.2040  0.0439
40961SOL     OW28845  11.668  11.862   2.181 -0.0911 -0.0845  1.1385
40961SOL    HW128846  11.662  11.952   2.149 -1.6792 -0.6301 -0.2485
40961SOL    HW228847  11.599  11.854   2.246 -0.1327 -0.3832  1.0613
40962SOL     OW28848   4.533   6.991   2.563  0.2614 -0.2517  0.5854
40962SOL    HW128849   4.612   7.042   2.581 -1.0370  1.5506  1.4699
40962SOL    HW228850   4.563   6.920   2.505  2.0201  1.9827 -1.4439
40963SOL     OW28851  11.257   2.695   7.176  0.1735 -0.2709 -0.2075
40963SOL    HW128852  11.268   2.784   7.142  1.2909 -0.2702  0.1288
40963SOL    HW228853  11.264   2.639   7.098  1.2964 -0.1764 -0.1838
40964SOL     OW28854   9.837   7.904   8.935 -0.1620  0.1796  0.3354
40964SOL    HW128855   9.894   7.972   8.970 -1.2396  1.8840 -1.0498
40964SOL    HW228856   9.751   7.922   8.975 -0.5879 -0.0059 -0.4754
40965SOL     OW28857   9.349  11.932   5.140 -0.6189  0.5257 -0.1683
40965SOL    HW128858   9.283  11.886   5.193  0.2553  1.1797  1.5744
40965SOL    HW228859   9.327  12.025   5.151  0.0636  0.7044 -0.2867
40966SOL     OW28860   9.519  10.143  10.840 -0.0127  0.1611  0.4000
40966SOL    HW128861   9.479  10.056  10.837  0.8025 -0.2153  0.1082
40966SOL    HW228862   9.562  10.152  10.755 -2.4316  2.0120 -0.7391
40967SOL     OW28863   5.620   0.244  10.287 -0.3574  0.5332  0.7753
40967SOL    HW128864   5.618   0.337  10.309  0.5225  0.5760  0.7195
40967SOL    HW228865   5.669   0.204  10.358  0.2151  0.2776  0.2418
40968SOL     OW28866   1.425   1.927   1.331  0.2975  0.0035  0.6883
40968SOL    HW128867   1.507   1.973   1.350  1.0421 -1.1046  0.2319
40968SOL    HW228868   1.404   1.953   1.241  0.9353 -0.8336  0.2828
40969SOL     OW28869  11.496   3.076   8.767  0.0934 -0.0968  0.2370
40969SOL    HW128870  11.507   2.984   8.793 -0.0277 -0.1019  0.2701
40969SOL    HW228871  11.413   3.078   8.719 -0.4297  0.1755  1.1266
40970SOL     OW28872   4.900  11.835  10.542  0.1797  0.3516  0.6980
40970SOL    HW128873   4.824  11.876  10.583  0.3920  1.2977  0.1732
40970SOL    HW228874   4.975  11.871  10.589  0.3119 -1.2531  1.8194
40971SOL     OW28875   0.750   3.562   9.025  0.5464  0.4455  0.1228
40971SOL    HW128876   0.791   3.636   9.071  2.3128 -0.5667  0.2826
40971SOL    HW228877   0.745   3.590   8.934 -0.5592  1.4627  0.4660
40972SOL     OW28878  11.926   2.296  10.238  0.7736 -0.1034  0.2173
40972SOL    HW128879  11.942   2.215  10.287  0.7266 -0.2093  0.0562
40972SOL    HW228880  12.009   2.343  10.242  1.2572 -0.8441 -0.9797
40973SOL     OW28881   7.866   9.723   2.244  0.3510  0.2552  0.1353
40973SOL    HW128882   7.928   9.711   2.316  0.7269  0.7622 -0.1019
40973SOL    HW228883   7.907   9.787   2.187  0.1780 -0.3429 -0.6822
40974SOL     OW28884   5.858   9.667   5.391 -0.2183 -0.1444 -0.0699
40974SOL    HW128885   5.854   9.743   5.332 -0.9776 -0.1303 -0.0054
40974SOL    HW228886   5.800   9.602   5.352  1.1122 -1.0545 -0.6051
40975SOL     OW28887   2.882   2.347   3.904  0.1213 -0.2195  0.0239
40975SOL    HW128888   2.967   2.390   3.892 -0.0048  0.1241  0.3358
40975SOL    HW228889   2.835   2.404   3.964  0.1942 -1.1414  0.9738
40976SOL     OW28890   1.522   1.619   9.661  0.4767 -0.2325 -0.0734
40976SOL    HW128891   1.502   1.546   9.601  0.8197 -0.7428  0.4161
40976SOL    HW228892   1.602   1.590   9.706 -0.7168 -0.6563  1.9029
40977SOL     OW28893   3.722   8.402   3.750  0.5245 -0.2459 -0.3750
40977SOL    HW128894   3.758   8.486   3.778 -0.3019 -0.0793  0.2195
40977SOL    HW228895   3.668   8.373   3.824 -1.2242 -0.0914 -1.5352
40978SOL     OW28896   3.837   5.159  10.066  0.2645  0.1752 -0.5566
40978SOL    HW128897   3.868   5.138   9.978  1.5037  0.1122 -0.1158
40978SOL    HW228898   3.745   5.182  10.053  0.6459  1.0686 -1.9990
40979SOL     OW28899   3.278   3.785   8.784  0.3965 -0.6208  0.2893
40979SOL    HW128900   3.309   3.732   8.858  2.3400  0.3648  0.2663
40979SOL    HW228901   3.276   3.724   8.711 -0.2880 -1.3215  0.8761
40980SOL     OW28902   0.238   2.783   8.655  0.7106 -0.0298 -0.3217
40980SOL    HW128903   0.313   2.806   8.600  0.9217 -1.0158 -0.4760
40980SOL    HW228904   0.275   2.773   8.743  0.0762  3.3409  0.4579
40981SOL     OW28905   8.404   2.209   3.673  0.3524  0.1204  0.3465
40981SOL    HW128906   8.388   2.192   3.766  1.9607  0.9189  0.8051
40981SOL    HW228907   8.318   2.204   3.632 -0.4951  0.5434  2.0160
40982SOL     OW28908   8.724   6.434   7.859  0.2511  0.3255 -0.2376
40982SOL    HW128909   8.702   6.526   7.878 -0.8143  0.3938 -1.6843
40982SOL    HW228910   8.697   6.387   7.938 -2.0619  0.8717 -0.6456
40983SOL     OW28911   3.762  12.259   0.645  0.7215 -0.3411  0.5590
40983SOL    HW128912   3.801  12.234   0.561  1.8776 -0.2399  1.0433
40983SOL    HW228913   3.704  12.187   0.666  0.4119 -0.3683 -0.3264
40984SOL     OW28914   8.921   9.903  11.551 -0.1222 -0.3120  0.1421
40984SOL    HW128915   8.993   9.840  11.544 -0.0866 -0.2911  0.3051
40984SOL    HW228916   8.951   9.979  11.502 -0.3931 -0.6241 -0.5185
40985SOL     OW28917   4.763   2.965   2.762  0.1114 -0.0978 -0.2044
40985SOL    HW128918   4.695   3.030   2.745  0.1175  0.2199  0.9127
40985SOL    HW228919   4.834   2.989   2.703 -0.1750  0.4566 -0.3314
40986SOL     OW28920   5.183   6.082   0.851 -0.3871  0.0946 -0.2514
40986SOL    HW128921   5.094   6.055   0.830 -0.7042 -0.5262  1.6573
40986SOL    HW228922   5.226   6.002   0.881  0.4957  0.5840 -0.1729
40987SOL     OW28923  10.707   3.233   4.440  0.4086 -0.6873 -0.1170
40987SOL    HW128924  10.799   3.231   4.464  0.3057 -0.6180  0.2949
40987SOL    HW228925  10.692   3.321   4.407  0.8301 -1.1431 -1.5821
40988SOL     OW28926   1.736   7.119   7.946  0.7997  0.6618  0.1135
40988SOL    HW128927   1.725   7.158   8.033 -0.2206 -0.1801  0.3812
40988SOL    HW228928   1.697   7.182   7.886 -0.7698  0.1378  0.5318
40989SOL     OW28929  11.098   9.709   0.523  0.4002 -0.2069  0.1039
40989SOL    HW128930  11.046   9.654   0.581 -2.9284  1.2628 -1.2451
40989SOL    HW228931  11.100   9.661   0.440  1.3298 -0.2594  0.1379
40990SOL     OW28932   0.147  11.628   4.326 -0.1898  0.4666  0.2995
40990SOL    HW128933   0.197  11.589   4.254  0.0695  2.4827 -0.6665
40990SOL    HW228934   0.148  11.722   4.308 -2.7567  0.7551  1.2828
40991SOL     OW28935   8.899  12.023   9.383  0.0647  0.0093 -0.4793
40991SOL    HW128936   8.912  12.072   9.302  0.5091 -1.2903 -1.2368
40991SOL    HW228937   8.939  11.937   9.365 -1.1359 -0.8052  0.5998
40992SOL     OW28938  12.311   7.962   5.531  0.1529 -0.1736  0.4591
40992SOL    HW128939  12.333   8.040   5.480  1.5168 -0.2894  0.8555
40992SOL    HW228940  12.330   7.889   5.472 -0.8415 -0.2385  0.1954
40993SOL     OW28941  12.198   6.311   1.672 -0.1151 -0.5127  0.1198
40993SOL    HW128942  12.104   6.304   1.656 -0.2190  0.6077  0.1318
40993SOL    HW228943  12.211   6.401   1.700  1.1277 -0.2826 -1.0509
40994SOL     OW28944   5.834   8.778   7.022 -0.0758  0.2921 -0.1852
40994SOL    HW128945   5.781   8.855   7.002 -1.1505 -0.5079 -0.5677
40994SOL    HW228946   5.772   8.717   7.063  0.6298 -0.5501 -0.3473
40995SOL     OW28947   4.538   2.023   4.805 -0.4334 -0.1308 -0.3197
40995SOL    HW128948   4.453   2.048   4.768 -0.8714  1.4323  1.5979
40995SOL    HW228949   4.593   2.101   4.791  0.0841 -0.4005  0.2046
40996SOL     OW28950  10.851   9.691   6.459 -0.0297  0.4603 -0.1629
40996SOL    HW128951  10.780   9.742   6.498 -1.1895 -1.2315  0.0288
40996SOL    HW228952  10.922   9.695   6.523 -0.3917  1.1597  0.2053
40997SOL     OW28953  10.923   7.110   2.689 -0.0920  0.0332 -0.3798
40997SOL    HW128954  10.876   7.117   2.605  0.8977 -0.7683 -1.0248
40997SOL    HW228955  10.922   7.017   2.709 -1.5841  0.3608  1.2758
40998SOL     OW28956   5.353   0.171  10.263  0.4132 -0.4315  0.0843
40998SOL    HW128957   5.448   0.182  10.262  0.4650 -0.8689 -0.7398
40998SOL    HW228958   5.319   0.258  10.282  1.0000 -0.5896  2.0988
40999SOL     OW28959   8.248  10.855   6.411 -1.1328 -0.2976 -0.0163
40999SOL    HW128960   8.179  10.809   6.458  0.1339  0.2344  2.5451
40999SOL    HW228961   8.234  10.948   6.431  0.5881 -0.2185  1.0840
41000SOL     OW28962   4.958   6.321   4.028  0.1640  0.0667 -0.2247
41000SOL    HW128963   5.000   6.407   4.036  0.4447 -0.1833  1.4007
41000SOL    HW228964   5.023   6.267   3.982  0.9968  0.1163  0.8390
41001SOL     OW28965   2.627   3.005   1.824 -0.4550 -0.1001  0.4578
41001SOL    HW128966   2.606   3.018   1.732 -0.0229 -1.0850  0.2129
41001SOL    HW228967   2.723   3.008   1.828 -0.4673 -0.1813  0.8608
41002SOL     OW28968   3.574   9.825   2.885  1.0517 -0.1180  0.0015
41002SOL    HW128969   3.603   9.791   2.800  2.6939  1.2209 -0.0241
41002SOL    HW228970   3.575   9.749   2.943  2.5921 -0.5493 -0.5410
41003SOL     OW28971   4.977  11.356   1.053 -0.1505 -0.2269  0.6866
41003SOL    HW128972   4.917  11.342   1.127  2.0605  0.8616  2.8038
41003SOL    HW228973   5.041  11.285   1.062  0.4300  0.2284  0.1168
41004SOL     OW28974  11.603   0.431   6.311  1.3248 -0.9833  0.3519
41004SOL    HW128975  11.679   0.384   6.276  1.9028  0.1221  0.0526
41004SOL    HW228976  11.599   0.405   6.403  0.9479 -2.4553 -0.0565
41005SOL     OW28977   9.337  10.216   1.728 -0.0191 -0.5088  0.6927
41005SOL    HW128978   9.367  10.307   1.735 -3.1549  0.5302  2.4088
41005SOL    HW228979   9.336  10.198   1.634 -0.8401  1.8400  0.1930
41006SOL     OW28980   7.454   2.198   0.356  0.1668  1.0061 -0.3281
41006SOL    HW128981   7.426   2.112   0.324 -1.3742  1.8175 -1.3228
41006SOL    HW228982   7.536   2.215   0.310  0.1803  0.3206 -0.5718
41007SOL     OW28983   8.417   6.101  10.398 -0.0529 -0.1287  0.2904
41007SOL    HW128984   8.341   6.090  10.341  0.0583 -0.7587  0.2539
41007SOL    HW228985   8.479   6.035  10.368  0.6813  0.6483  0.0545
41008SOL     OW28986   8.212   5.073   7.058  0.4225  0.1055  0.5520
41008SOL    HW128987   8.164   5.108   6.983  0.0723 -0.8454  0.3139
41008SOL    HW228988   8.144   5.049   7.120  0.6594 -0.0089  0.7668
41009SOL     OW28989  10.600   9.124   8.400 -0.1769 -0.3094 -0.1003
41009SOL    HW128990  10.556   9.128   8.315 -0.8270  0.7010  0.2595
41009SOL    HW228991  10.674   9.184   8.391  1.2856 -2.1147 -0.7504
41010SOL     OW28992   9.539   3.085   9.810  0.2094 -0.4986 -0.7243
41010SOL    HW128993   9.629   3.095   9.780  0.3573  0.6009  0.0325
41010SOL    HW228994   9.519   3.167   9.855 -0.6286 -1.3491  0.5257
41011SOL     OW28995   0.357  11.822   5.506 -0.1148  0.3114 -0.9022
41011SOL    HW128996   0.429  11.864   5.458  0.3817  1.0684  0.4336
41011SOL    HW228997   0.299  11.894   5.530 -0.8658 -0.1838 -1.2024
41012SOL     OW28998  12.422   1.961   7.312  0.5212  0.1493 -0.3109
41012SOL    HW128999  12.498   1.939   7.367 -1.5736 -0.0148  2.7689
41012SOL    HW229000  12.410   2.055   7.325 -0.6799 -0.0992  0.4979
41013SOL     OW29001   7.160   8.758  10.247 -0.3603  0.0136  0.0054
41013SOL    HW129002   7.142   8.695  10.317 -1.0755 -1.2348 -1.2619
41013SOL    HW229003   7.232   8.719  10.198 -0.5604  0.3664 -0.5732
41014SOL     OW29004   7.890  10.675   4.449  0.3002  0.7871 -0.4084
41014SOL    HW129005   7.867  10.729   4.373 -2.3101  1.2431  0.6089
41014SOL    HW229006   7.970  10.715   4.483  0.8661  1.2845 -2.2109
41015SOL     OW29007   1.061   4.202  12.240 -0.0448  0.2669 -0.4084
41015SOL    HW129008   1.095   4.121  12.200  0.2384  0.4763 -0.5927
41015SOL    HW229009   1.138   4.258  12.251 -0.1744  0.3477  0.1151
41016SOL     OW29010   5.995  12.249   2.826  0.0949  0.2198 -0.0262
41016SOL    HW129011   6.051  12.304   2.772  1.0663  0.3415  1.0449
41016SOL    HW229012   5.956  12.186   2.765 -1.4605  2.3608 -1.3594
41017SOL     OW29013   5.240   9.995  10.369  0.5805 -0.1244  0.1623
41017SOL    HW129014   5.268  10.058  10.303 -0.5602 -0.6595 -0.8701
41017SOL    HW229015   5.313   9.934  10.377  0.6165 -0.2138 -0.8175
41018SOL     OW29016   2.825  11.629   0.361  0.3145 -0.2979 -0.1058
41018SOL    HW129017   2.784  11.587   0.285 -2.1547 -2.3870  2.1810
41018SOL    HW229018   2.794  11.720   0.358 -1.7830 -0.9727 -0.3272
41019SOL     OW29019  10.156  10.181   6.578 -0.0210  0.0594  0.4954
41019SOL    HW129020  10.189  10.271   6.575 -0.3271  0.2034  1.1736
41019SOL    HW229021  10.089  10.177   6.510  0.3856  0.1717  0.0768
41020SOL     OW29022   2.011   9.246   1.301 -0.2423  0.2696  0.2204
41020SOL    HW129023   1.959   9.326   1.306  0.7446  1.0214 -0.9458
41020SOL    HW229024   1.972   9.196   1.229  0.0610  0.4080 -0.0440
41021SOL     OW29025   9.112  10.064  11.375 -0.2130  1.0178  0.0131
41021SOL    HW129026   9.173  10.040  11.445 -1.0006  1.0426  0.7181
41021SOL    HW229027   9.163  10.055  11.294  0.4156  0.0227  0.5063
41022SOL     OW29028   5.519  11.793   1.748  0.1590  0.2563 -0.4476
41022SOL    HW129029   5.507  11.792   1.843  0.2594 -0.7594 -0.4277
41022SOL    HW229030   5.609  11.763   1.735  0.5873  1.6247 -0.8337
41023SOL     OW29031   2.940   0.023  11.128  0.2575 -0.4807 -0.1792
41023SOL    HW129032   2.946   0.053  11.037  0.4047 -0.3708 -0.1343
41023SOL    HW229033   2.852  -0.014  11.136  0.1251 -0.1912 -0.2740
41024SOL     OW29034   0.348   6.072   3.342  0.0343  0.2254 -0.3213
41024SOL    HW129035   0.372   6.040   3.254  1.2795 -0.8100  0.3573
41024SOL    HW229036   0.257   6.045   3.353 -0.2506  0.6642 -1.4127
41025SOL     OW29037   6.355   8.512  10.345  0.4053  0.2662 -0.4211
41025SOL    HW129038   6.424   8.565  10.304 -1.2985  2.1775 -1.0212
41025SOL    HW229039   6.289   8.503  10.276 -1.5059  1.5677  1.1051
41026SOL     OW29040   2.541   5.876   5.427 -0.4166  0.2919  0.5637
41026SOL    HW129041   2.541   5.972   5.421 -1.9947  0.2913  0.0804
41026SOL    HW229042   2.633   5.853   5.436 -0.0656  1.8934  1.4385
41027SOL     OW29043   9.841   9.994  11.583  0.2981 -0.0900  0.1192
41027SOL    HW129044   9.852  10.087  11.567 -0.5301 -0.1556 -0.9664
41027SOL    HW229045   9.888   9.952  11.511 -1.7025 -0.4421 -1.0537
41028SOL     OW29046   1.410   5.797   3.507 -0.5193  0.1763 -0.1887
41028SOL    HW129047   1.377   5.882   3.479 -0.6364 -0.3806 -1.8341
41028SOL    HW229048   1.356   5.734   3.459 -1.5791 -0.9120  2.2256
41029SOL     OW29049  11.047   8.127   7.859 -0.6099  0.1722 -0.3377
41029SOL    HW129050  10.971   8.171   7.822 -0.7690 -1.5843 -2.2692
41029SOL    HW229051  11.078   8.070   7.789  4.0153  2.5418 -0.5985
41030SOL     OW29052   6.786   7.655   8.808 -0.3086 -0.2191 -0.1117
41030SOL    HW129053   6.876   7.686   8.798 -0.6325  1.0523  0.6530
41030SOL    HW229054   6.753   7.648   8.719  0.6319 -1.0081 -0.4191
41031SOL     OW29055   4.210   1.918   4.215 -0.4157  0.1541 -0.7631
41031SOL    HW129056   4.176   1.966   4.291 -1.4933 -0.4291 -0.8536
41031SOL    HW229057   4.258   1.845   4.253  0.8004  0.9953 -0.6326
41032SOL     OW29058   4.353   2.751   4.011  0.1200  0.5463  0.3671
41032SOL    HW129059   4.366   2.725   4.102  3.8291 -1.0553 -0.4452
41032SOL    HW229060   4.293   2.686   3.976  0.0808  0.0858  1.2483
41033SOL     OW29061   6.763   0.599   9.559 -0.1457 -0.3216  1.2117
41033SOL    HW129062   6.763   0.670   9.494  3.5685 -0.4610  0.8790
41033SOL    HW229063   6.716   0.528   9.516  1.7652 -0.2419 -1.2409
41034SOL     OW29064  11.011   6.882   0.133  0.1770  0.0911  0.2047
41034SOL    HW129065  11.094   6.911   0.096 -0.0146 -0.9740 -1.1519
41034SOL    HW229066  11.035   6.840   0.216  0.6467  2.2325  1.2196
41035SOL     OW29067  11.380   8.461   7.535  0.2508 -0.4208 -0.7119
41035SOL    HW129068  11.415   8.486   7.450  0.2749  0.7742 -0.3693
41035SOL    HW229069  11.394   8.537   7.590 -0.8389 -0.7418  0.0446
41036SOL     OW29070   5.748  10.582   7.102  0.3684  0.1002 -0.1569
41036SOL    HW129071   5.826  10.637   7.095  0.0466  0.6635  0.5291
41036SOL    HW229072   5.721  10.591   7.193 -0.7522  0.2622 -0.4945
41037SOL     OW29073  12.233   6.552  10.685 -0.2138  0.2387  0.5290
41037SOL    HW129074  12.285   6.521  10.759 -2.1516 -1.5542  1.2482
41037SOL    HW229075  12.253   6.490  10.615 -0.0108  0.6454  0.2273
41038SOL     OW29076   8.602   9.279   4.040 -0.0617  0.4481 -0.6502
41038SOL    HW129077   8.568   9.205   3.989  1.0078 -0.2354 -0.4186
41038SOL    HW229078   8.528   9.337   4.051 -0.7614 -0.2639 -1.4436
41039SOL     OW29079   5.344   4.187   9.867  0.1687  0.0604 -0.3572
41039SOL    HW129080   5.272   4.125   9.881 -0.9336  0.8465 -2.2606
41039SOL    HW229081   5.301   4.270   9.851  1.6204  1.3651  1.9529
41040SOL     OW29082   6.567   8.180   1.220 -0.2827 -0.1896 -0.0240
41040SOL    HW129083   6.507   8.164   1.147 -1.3678  1.3981  0.4745
41040SOL    HW229084   6.516   8.233   1.282  1.6831  1.3925  0.3432
41041SOL     OW29085   9.943   1.800  10.927 -0.5526 -0.1782  0.0195
41041SOL    HW129086   9.958   1.705  10.929 -0.4785 -0.2214 -1.6595
41041SOL    HW229087  10.014   1.834  10.872  1.0766  1.2230  2.7535
41042SOL     OW29088   4.196   2.742   0.573 -0.1597  0.3685  0.3241
41042SOL    HW129089   4.277   2.702   0.540  0.1168  0.5106  0.8221
41042SOL    HW229090   4.133   2.670   0.574  0.4876 -0.2071  1.7463
41043SOL     OW29091   5.740   5.335   8.654 -0.5637 -0.2075  0.2785
41043SOL    HW129092   5.775   5.359   8.569  0.0605 -2.6826 -0.2485
41043SOL    HW229093   5.785   5.393   8.716  0.9724 -0.1459 -0.8379
41044SOL     OW29094   0.469  11.813  11.334  0.4898 -0.2739 -0.3885
41044SOL    HW129095   0.432  11.766  11.260 -0.6808  1.8064 -1.2048
41044SOL    HW229096   0.394  11.852  11.379  1.3096 -0.1350  0.9193
41045SOL     OW29097   4.622   9.294   7.941 -0.9023 -0.1530  0.1595
41045SOL    HW129098   4.547   9.245   7.906 -1.8937 -0.6621  2.7423
41045SOL    HW229099   4.690   9.227   7.953 -0.6878 -0.0412 -0.3802
41046SOL     OW29100   8.754  11.921  12.198 -0.2364 -0.6695  0.2824
41046SOL    HW129101   8.810  11.843  12.202  1.9255  0.8097  2.8047
41046SOL    HW229102   8.769  11.957  12.111  0.5671 -1.8517 -0.0920
41047SOL     OW29103   0.348   6.387   3.497  0.1684 -0.9515 -0.0671
41047SOL    HW129104   0.388   6.326   3.434  0.8424 -0.5862 -0.0041
41047SOL    HW229105   0.292   6.332   3.551  0.4548 -1.4529 -0.2700
41048SOL     OW29106   6.981   1.109   1.618  0.2077  0.2664 -0.2336
41048SOL    HW129107   6.913   1.048   1.593  0.8684 -0.5228 -0.1577
41048SOL    HW229108   7.047   1.055   1.662  0.6638  1.0790  0.1117
41049SOL     OW29109   8.552   4.887   1.768  0.0730 -0.2817 -0.2238
41049SOL    HW129110   8.490   4.874   1.695  0.3005  0.0067 -0.4727
41049SOL    HW229111   8.528   4.820   1.832  0.7669 -1.4748 -1.1616
41050SOL     OW29112   5.209   1.828  12.117 -0.1577  0.0574 -0.0033
41050SOL    HW129113   5.280   1.764  12.103 -0.2543 -0.0307 -0.0898
41050SOL    HW229114   5.138   1.798  12.060  0.6613  1.6439 -1.9982
41051SOL     OW29115   5.728  11.005   3.214 -0.9095 -0.0159  0.5438
41051SOL    HW129116   5.822  10.991   3.199 -0.1921  2.7876  1.6870
41051SOL    HW229117   5.706  10.946   3.286  0.5694  0.7503  1.6919
41052SOL     OW29118  12.297   9.276   6.206  0.3137  0.2362  0.1662
41052SOL    HW129119  12.351   9.307   6.134 -1.6132  2.2500 -0.5375
41052SOL    HW229120  12.256   9.355   6.242  0.0722 -0.8619  2.5404
41053SOL     OW29121   7.987   8.076   6.338 -0.4104 -0.8346 -0.4389
41053SOL    HW129122   7.978   7.981   6.329  2.2768 -1.2472  0.3757
41053SOL    HW229123   8.067   8.097   6.291 -1.6219  1.2833 -1.7108
41054SOL     OW29124   0.412   0.248   0.674 -0.0064  0.4354 -0.6325
41054SOL    HW129125   0.474   0.242   0.601 -1.2231 -1.2446 -1.6112
41054SOL    HW229126   0.412   0.159   0.712  0.1731  1.1291  1.0893
41055SOL     OW29127   5.676   2.755   5.223 -0.4196 -0.1552 -0.5055
41055SOL    HW129128   5.656   2.765   5.316  0.8340  0.7095 -0.3085
41055SOL    HW229129   5.713   2.667   5.217  2.9493  1.0466  0.5262
41056SOL     OW29130   2.518   2.321   7.143 -0.1649 -0.4044  0.6780
41056SOL    HW129131   2.598   2.359   7.178 -0.5646  1.0227  0.0994
41056SOL    HW229132   2.449   2.356   7.199 -0.5952  0.1778 -0.1984
41057SOL     OW29133   4.415  11.757  10.756 -0.3548 -0.6338  0.3203
41057SOL    HW129134   4.433  11.819  10.686 -3.3633 -1.1405 -1.0940
41057SOL    HW229135   4.402  11.811  10.834  0.3057  0.1874 -0.1232
41058SOL     OW29136  11.718   2.435   0.740  0.2846 -0.0203 -0.4063
41058SOL    HW129137  11.773   2.504   0.777 -1.3127  0.4080  1.3540
41058SOL    HW229138  11.705   2.373   0.812 -1.6990  0.0410 -0.6394
41059SOL     OW29139   4.435   5.671   2.690 -0.1816  0.1652 -0.0120
41059SOL    HW129140   4.365   5.651   2.752  1.1344  0.7835  1.7590
41059SOL    HW229141   4.503   5.607   2.708 -0.1272 -0.2459 -1.5109
41060SOL     OW29142   2.958  12.015   9.254  0.2681  0.1852 -0.1077
41060SOL    HW129143   2.992  11.955   9.320  0.3893  0.4954  0.1146
41060SOL    HW229144   3.010  11.996   9.176 -1.6421 -2.0359 -0.9261
41061SOL     OW29145   2.861  12.437   2.542  0.3296  0.5497 -0.1412
41061SOL    HW129146   2.935  12.379   2.560 -0.2924 -0.2632 -0.1357
41061SOL    HW229147   2.789  12.402   2.595  0.0957  1.6833  0.3142
41062SOL     OW29148  11.027   3.607   9.631 -0.0770  0.7134 -0.4417
41062SOL    HW129149  11.022   3.685   9.577 -0.8301  1.1602  0.2567
41062SOL    HW229150  10.945   3.561   9.617 -0.1748  0.7026  0.1149
41063SOL     OW29151   6.563   9.061  12.287 -0.6861  0.5566 -0.2136
41063SOL    HW129152   6.570   9.019  12.202  2.1874 -1.1247  0.7359
41063SOL    HW229153   6.526   8.994  12.344  0.6621  0.4404  0.5645
41064SOL     OW29154  10.627   5.347  10.507  0.1460 -0.5880  0.5046
41064SOL    HW129155  10.676   5.413  10.458  0.5936 -0.8606  0.5890
41064SOL    HW229156  10.567   5.310  10.442 -1.9163  1.6307  0.9977
41065SOL     OW29157   9.262   6.324   5.770 -0.3459 -0.2730 -0.6095
41065SOL    HW129158   9.212   6.280   5.838 -1.5016  1.1411 -0.5099
41065SOL    HW229159   9.223   6.294   5.688 -1.1129  0.5275 -0.5429
41066SOL     OW29160   4.808   8.943   7.317 -0.6775 -0.6163  0.2548
41066SOL    HW129161   4.881   8.982   7.364 -1.4197 -1.1054  1.8824
41066SOL    HW229162   4.845   8.914   7.234  0.1725  2.4010 -0.5524
41067SOL     OW29163  10.533   6.127   0.587 -0.4824 -0.2358  0.0187
41067SOL    HW129164  10.511   6.039   0.557  0.8827 -1.8189  3.1393
41067SOL    HW229165  10.618   6.146   0.547  0.0089 -1.1168  0.6017
41068SOL     OW29166   7.389   7.405   8.890  0.1627 -0.1149  0.0855
41068SOL    HW129167   7.349   7.332   8.842  0.7872  0.3012 -1.1142
41068SOL    HW229168   7.343   7.407   8.974 -1.9281 -0.0164 -1.0000
41069SOL     OW29169  11.464  10.034   3.634  0.0741  0.0572 -0.2462
41069SOL    HW129170  11.375  10.067   3.621  0.3876  0.7054 -0.7444
41069SOL    HW229171  11.451   9.944   3.665 -0.7676  0.4747  0.6566
41070SOL     OW29172   2.807   4.604   8.826 -0.0784  0.5153 -0.2626
41070SOL    HW129173   2.741   4.630   8.890  0.1359 -0.2121  0.2724
41070SOL    HW229174   2.768   4.529   8.781  0.1444  0.4494 -0.3459
41071SOL     OW29175   9.888   3.993   2.569 -0.3897  0.2531  0.4561
41071SOL    HW129176   9.873   3.906   2.606 -0.8161  0.0348 -0.2307
41071SOL    HW229177   9.959   3.981   2.506 -2.2467 -0.1826 -1.6818
41072SOL     OW29178   7.664   2.894  11.389  0.0738  0.1129 -0.0952
41072SOL    HW129179   7.615   2.954  11.446  0.0967 -1.3324  1.5295
41072SOL    HW229180   7.749   2.885  11.432  0.5490 -0.0339 -1.0533
41073SOL     OW29181   0.220   2.187   7.206 -0.1318  0.2951  0.8087
41073SOL    HW129182   0.169   2.257   7.165  1.2160  0.7277 -0.2326
41073SOL    HW229183   0.184   2.179   7.295 -1.4037  1.1523  0.3928
41074SOL     OW29184  11.024   1.614   3.028  0.5931  0.4385  0.1384
41074SOL    HW129185  10.966   1.684   3.058  1.6658  1.6271 -0.4712
41074SOL    HW229186  11.000   1.601   2.936 -1.2219 -1.7112  0.8051
41075SOL     OW29187   2.884   2.069   5.778 -0.0953 -0.3092 -0.4636
41075SOL    HW129188   2.839   2.035   5.701  1.8494 -1.2088 -1.2747
41075SOL    HW229189   2.903   2.160   5.757 -0.8259 -0.1509 -0.4406
41076SOL     OW29190   7.566   2.530  10.152  0.4167  0.3835  0.0641
41076SOL    HW129191   7.562   2.487  10.066 -0.6269 -0.8257  0.6929
41076SOL    HW229192   7.583   2.459  10.214  0.8085  1.1931  0.9050
41077SOL     OW29193   2.063  11.288   9.094 -0.5201 -0.0329  0.8205
41077SOL    HW129194   2.057  11.212   9.036 -2.8288 -0.6026  1.6834
41077SOL    HW229195   2.153  11.319   9.084  0.0985 -2.0626 -0.5729
41078SOL     OW29196   7.594   7.334   3.686 -0.2785 -0.7268 -0.3756
41078SOL    HW129197   7.637   7.333   3.600 -2.1295 -0.7249 -1.3502
41078SOL    HW229198   7.649   7.391   3.740  0.9687 -0.8045 -1.5280
41079SOL     OW29199   6.056   3.063   9.705 -0.4157  0.0615 -0.2441
41079SOL    HW129200   6.048   2.977   9.746  1.5896  0.3772  1.0156
41079SOL    HW229201   6.041   3.048   9.612  2.0405 -2.1284 -0.4141
41080SOL     OW29202   6.379   8.885   8.382  0.7073  0.0502 -0.6268
41080SOL    HW129203   6.416   8.799   8.369  2.6077  0.7323  0.0006
41080SOL    HW229204   6.406   8.936   8.305  0.0786  0.2560 -0.7221
41081SOL     OW29205   0.342   9.212  11.602 -0.2218  0.6526  0.6465
41081SOL    HW129206   0.317   9.148  11.669  0.7906  1.9412  2.3627
41081SOL    HW229207   0.259   9.246  11.569 -0.7488 -0.7380  0.4881
41082SOL     OW29208  10.720  10.030   7.007  0.6125 -0.1191  0.2021
41082SOL    HW129209  10.799  10.046   6.955  0.1370  0.7821 -0.2630
41082SOL    HW229210  10.696  10.116   7.041 -0.6806 -0.2238 -0.4003
41083SOL     OW29211   6.908   1.657   4.933 -0.5912  0.5572  0.0007
41083SOL    HW129212   6.829   1.708   4.946 -1.7395 -0.7721 -1.4047
41083SOL    HW229213   6.901   1.585   4.995 -0.5278  0.3761 -0.2015
41084SOL     OW29214   2.880   5.192   5.628  0.0397  0.0856  0.0427
41084SOL    HW129215   2.852   5.262   5.687 -1.0051 -0.2372 -0.0397
41084SOL    HW229216   2.952   5.149   5.674 -0.6847 -0.1001  1.0542
41085SOL     OW29217   9.888   1.170  10.043 -0.3723 -0.0071  0.1918
41085SOL    HW129218   9.811   1.127  10.005 -0.7632  0.5028  0.3910
41085SOL    HW229219   9.918   1.228   9.973  0.6989 -1.2374 -0.4149
41086SOL     OW29220   5.623  11.301   2.044 -0.1983 -0.5633  0.0246
41086SOL    HW129221   5.584  11.258   1.968 -1.9111 -0.7423  0.9716
41086SOL    HW229222   5.605  11.243   2.118  1.1330 -0.2200  0.6535
41087SOL     OW29223   4.773   6.904   7.649  0.2811 -0.0636 -0.2393
41087SOL    HW129224   4.752   6.864   7.734 -3.1175 -0.2371 -1.0505
41087SOL    HW229225   4.836   6.843   7.610  0.3630 -1.0509  1.3117
41088SOL     OW29226   0.302   9.709   8.618 -0.0134  0.3912 -0.3653
41088SOL    HW129227   0.394   9.684   8.630  0.0928 -0.4445 -2.4253
41088SOL    HW229228   0.293   9.791   8.666  1.8240  0.5210 -0.1558
41089SOL     OW29229   2.293   2.475   8.661  0.1625  0.4378 -0.0286
41089SOL    HW129230   2.335   2.392   8.683 -1.2890 -0.1470  0.6753
41089SOL    HW229231   2.315   2.533   8.734 -1.6452 -0.4057  1.2622
41090SOL     OW29232  11.594  12.365  12.224  0.3268 -0.0190  0.1140
41090SOL    HW129233  11.546  12.301  12.172  0.5222  0.2571 -0.4143
41090SOL    HW229234  11.606  12.323  12.309  0.5754 -0.7442 -0.2681
41091SOL     OW29235   4.760   0.353   5.859 -0.1133  0.4565 -0.0205
41091SOL    HW129236   4.723   0.432   5.819 -0.5663  0.9489  1.3059
41091SOL    HW229237   4.845   0.381   5.893 -0.4752  0.5295  0.8703
41092SOL     OW29238   7.393   6.443   4.499 -0.3271  0.6668  0.1158
41092SOL    HW129239   7.405   6.515   4.561 -0.6409  0.1459  0.7912
41092SOL    HW229240   7.410   6.482   4.413  0.5769  1.2817  0.5620
41093SOL     OW29241   7.477   1.914  10.334  0.0934  0.3950  0.4819
41093SOL    HW129242   7.541   1.984  10.343 -0.2633  0.9963 -1.2820
41093SOL    HW229243   7.393   1.956  10.351 -0.2549  0.7709 -1.8735
41094SOL     OW29244   5.917   0.011  11.110 -0.9524  0.3409 -0.1513
41094SOL    HW129245   5.895   0.101  11.084 -1.6416  0.2602  0.1268
41094SOL    HW229246   5.842  -0.017  11.162 -1.2059 -0.7636 -1.0796
41095SOL     OW29247   5.979   0.571  12.246  0.0427  0.1982  0.6584
41095SOL    HW129248   5.973   0.614  12.331 -0.4203  0.0676  0.6988
41095SOL    HW229249   6.072   0.551  12.234  0.2807  1.2848  0.5981
41096SOL     OW29250   3.198   6.507  10.134 -0.0650  0.1195  0.1065
41096SOL    HW129251   3.107   6.513  10.106  0.1354  0.9725 -0.3817
41096SOL    HW229252   3.241   6.458  10.063 -0.2733 -0.9361  0.6837
41097SOL     OW29253   3.191   4.776   9.669  0.2736 -0.6673  0.5982
41097SOL    HW129254   3.163   4.759   9.579  1.7844 -0.9283  0.1523
41097SOL    HW229255   3.164   4.698   9.718  1.3599 -1.5073 -0.0924
41098SOL     OW29256  10.496   4.136  11.868  0.2856 -0.0139 -0.6714
41098SOL    HW129257  10.581   4.142  11.824  0.9754 -2.2653  0.1891
41098SOL    HW229258  10.518   4.125  11.961 -0.8506 -1.8774 -0.5772
41099SOL     OW29259   2.940  11.340   0.734 -0.0056 -0.2619 -0.1395
41099SOL    HW129260   2.962  11.260   0.687  0.4652  0.9302 -2.0575
41099SOL    HW229261   2.872  11.382   0.681 -0.9222  0.1823  1.3187
41100SOL     OW29262  11.016   0.092  10.408  0.1484  0.8344  0.0490
41100SOL    HW129263  11.100   0.047  10.411  0.1919  0.9419  1.1373
41100SOL    HW229264  11.001   0.120  10.499 -1.3043  0.3688 -0.0256
41101SOL     OW29265   7.796   0.635   7.592 -0.1201  0.9320 -0.5599
41101SOL    HW129266   7.720   0.578   7.605 -0.4095  1.4156 -0.0249
41101SOL    HW229267   7.848   0.592   7.525 -0.8344  0.5471 -0.8835
41102SOL     OW29268   6.424   9.366   3.531  0.0328  0.0279 -0.0274
41102SOL    HW129269   6.334   9.336   3.519  0.3918 -0.2140 -2.5530
41102SOL    HW229270   6.417   9.433   3.599 -2.0995  0.1886 -0.3251
41103SOL     OW29271   9.896  10.755   3.958  0.4737  0.2447 -0.4403
41103SOL    HW129272   9.843  10.677   3.977  1.2481 -0.1494  0.1653
41103SOL    HW229273   9.973  10.745   4.014  0.1917  1.8708  0.3041
41104SOL     OW29274   2.633  12.306   5.569 -0.2363 -0.0710  0.5599
41104SOL    HW129275   2.718  12.342   5.546  0.7913 -3.2510 -1.2835
41104SOL    HW229276   2.573  12.345   5.506 -0.1666  1.8854  1.6170
41105SOL     OW29277   0.397   5.093   1.685  0.0786  0.4999  0.2858
41105SOL    HW129278   0.480   5.127   1.717 -0.4185 -0.6270  3.1284
41105SOL    HW229279   0.394   5.119   1.593  3.3499  0.9430  0.1733
41106SOL     OW29280   1.994   2.595   2.957 -0.4134 -0.7549  0.2911
41106SOL    HW129281   1.902   2.619   2.952  0.2113  2.2523  0.9272
41106SOL    HW229282   2.039   2.661   2.904  1.4845 -1.1679  1.2796
41107SOL     OW29283   6.350   7.877   6.045 -0.4517 -0.2814 -0.5698
41107SOL    HW129284   6.339   7.793   6.000  0.7826 -0.0923 -1.2759
41107SOL    HW229285   6.374   7.854   6.135  1.0589 -0.7254 -1.0579
41108SOL     OW29286  11.128   7.605   5.625 -0.6559  0.3103  0.8439
41108SOL    HW129287  11.221   7.617   5.606 -0.5469  0.4738  1.4508
41108SOL    HW229288  11.097   7.693   5.649 -0.6908  0.0600  1.7781
41109SOL     OW29289   8.197  12.399   8.715  0.0368  0.1702 -0.0319
41109SOL    HW129290   8.285  12.391   8.753  0.4215  1.2264 -0.6672
41109SOL    HW229291   8.206  12.464   8.645 -1.5008  1.2285  0.6826
41110SOL     OW29292   2.247   2.662   4.945 -0.2546 -0.2898  0.1173
41110SOL    HW129293   2.294   2.741   4.919 -0.7579 -0.4632 -1.4182
41110SOL    HW229294   2.314   2.594   4.947 -0.2336 -0.3359 -1.1196
41111SOL     OW29295   5.450   2.888   2.863  0.2809  0.6577  0.3567
41111SOL    HW129296   5.366   2.894   2.909 -0.0781 -3.4525  0.6415
41111SOL    HW229297   5.515   2.886   2.933 -0.0136 -2.4071  0.6655
41112SOL     OW29298   7.466   3.712   2.266 -0.4389  0.1663  0.3228
41112SOL    HW129299   7.449   3.756   2.183  1.3478 -0.2562 -0.3212
41112SOL    HW229300   7.561   3.716   2.276 -0.4008 -1.7262  1.2474
41113SOL     OW29301  10.754   9.246  10.227 -0.1236  0.0616  0.0112
41113SOL    HW129302  10.709   9.308  10.284 -0.1223 -0.0623  0.1497
41113SOL    HW229303  10.793   9.182  10.288 -1.9635 -1.3318 -0.1787
41114SOL     OW29304   1.292   6.292   1.237  0.0675  0.0723  0.1474
41114SOL    HW129305   1.294   6.211   1.185  0.7016 -0.1159  0.4593
41114SOL    HW229306   1.282   6.262   1.327 -1.2700  0.4072  0.1350
41115SOL     OW29307  11.202   7.150   8.621 -0.3977  0.2843 -0.1950
41115SOL    HW129308  11.174   7.059   8.623 -1.6464  0.6660  1.0104
41115SOL    HW229309  11.296   7.147   8.641 -0.7260 -0.6548  1.3608
41116SOL     OW29310   8.505   5.600   1.068 -0.7278  0.2128  0.0129
41116SOL    HW129311   8.417   5.635   1.077 -0.1990  1.3863  0.7616
41116SOL    HW229312   8.516   5.589   0.973 -0.9865  1.9026 -0.2405
41117SOL     OW29313   5.437   9.908  11.852  0.3905  0.7304 -0.4139
41117SOL    HW129314   5.443   9.830  11.797 -0.8317  1.3051 -1.4284
41117SOL    HW229315   5.504   9.967  11.818  2.1569 -0.2787  1.1381
41118SOL     OW29316   7.838   2.563  11.221  0.1516  0.0870 -0.0445
41118SOL    HW129317   7.760   2.527  11.264 -0.5507  0.0803 -1.2882
41118SOL    HW229318   7.898   2.582  11.293 -0.1205 -1.9494  0.7913
41119SOL     OW29319   1.577  11.586   9.782 -0.1026  0.2277  0.0074
41119SOL    HW129320   1.586  11.491   9.788 -0.5085 -0.0403 -2.4372
41119SOL    HW229321   1.609  11.607   9.694  1.3443  2.5607  0.9856
41120SOL     OW29322   0.905   2.741   1.658  0.3140 -0.3285 -1.3189
41120SOL    HW129323   0.854   2.665   1.686  1.0603 -1.1207 -2.0524
41120SOL    HW229324   0.905   2.736   1.562  0.8591  0.2627 -1.3552
41121SOL     OW29325  10.187   9.319  11.599  0.1327 -0.0419  0.2051
41121SOL    HW129326  10.128   9.342  11.671 -0.5155  0.0477 -0.3456
41121SOL    HW229327  10.133   9.325  11.521  0.3344 -1.9473 -0.1174
41122SOL     OW29328   4.490   4.699  12.140  0.3853 -0.0387 -0.5422
41122SOL    HW129329   4.561   4.645  12.174 -1.9177 -2.8406  0.2429
41122SOL    HW229330   4.495   4.689  12.045  0.2906 -1.3180 -0.4279
41123SOL     OW29331  10.794   6.469   8.929  0.4459 -0.0308  0.3381
41123SOL    HW129332  10.734   6.544   8.934  3.0620  2.1925  0.7490
41123SOL    HW229333  10.834   6.465   9.016  2.6790  0.2257 -0.6013
41124SOL     OW29334   6.815   7.449  10.865  0.4414 -0.0518  0.0596
41124SOL    HW129335   6.809   7.357  10.892  2.3666 -0.2247  0.0339
41124SOL    HW229336   6.901   7.456  10.823 -0.2742  1.4461 -1.2302
41125SOL     OW29337   3.613   7.672   0.319 -0.4935  0.1489 -0.2173
41125SOL    HW129338   3.610   7.602   0.384  0.9087  1.0235  0.8881
41125SOL    HW229339   3.567   7.745   0.361 -0.9445  0.2522 -0.8781
41126SOL     OW29340   7.225   5.921   9.315 -0.0236 -0.0232  0.0708
41126SOL    HW129341   7.131   5.935   9.321  0.0239  0.1525  0.4110
41126SOL    HW229342   7.264   5.997   9.357  0.2817  0.1365 -0.4850
41127SOL     OW29343   4.700   5.153   9.572 -0.5521 -0.3942 -0.1886
41127SOL    HW129344   4.686   5.152   9.667  0.7394 -1.9903  0.0302
41127SOL    HW229345   4.615   5.128   9.535 -0.7138 -1.1133  0.6333
41128SOL     OW29346   3.838   8.702  12.265  0.4791  0.2823  0.7263
41128SOL    HW129347   3.913   8.760  12.249 -0.1691  1.1862  0.8844
41128SOL    HW229348   3.852   8.668  12.353  1.4909 -0.7869  0.1834
41129SOL     OW29349   0.005   7.244   6.675  0.0455 -0.1687  0.6355
41129SOL    HW129350   0.042   7.177   6.733 -0.6506  0.1610  1.4872
41129SOL    HW229351  -0.051   7.195   6.615 -0.5195 -0.3565  1.3025
41130SOL     OW29352   9.117   3.730   9.854 -0.6446  0.0790 -0.4404
41130SOL    HW129353   9.202   3.773   9.849 -0.3721 -0.2868  0.7332
41130SOL    HW229354   9.132   3.653   9.909 -1.7434  0.0419 -0.1617
41131SOL     OW29355  10.818   6.250   8.317  0.2867 -0.3582 -0.3288
41131SOL    HW129356  10.732   6.207   8.315  0.0470  0.0494  0.6729
41131SOL    HW229357  10.797   6.344   8.315  0.7776 -0.2477 -1.6697
41132SOL     OW29358  12.401   1.317   5.902  0.7048 -0.2119 -0.0552
41132SOL    HW129359  12.433   1.333   5.991 -0.7276  1.5009  0.2143
41132SOL    HW229360  12.339   1.244   5.911 -0.8684  1.1597  0.7508
41133SOL     OW29361   3.826   5.972   2.599  0.0195 -0.1423  0.3994
41133SOL    HW129362   3.777   5.891   2.613  0.3036 -0.4569 -0.3741
41133SOL    HW229363   3.780   6.037   2.652 -1.7991 -0.2008 -0.9990
41134SOL     OW29364   9.285   1.654  11.140  0.1191 -0.4916  0.5895
41134SOL    HW129365   9.279   1.746  11.165 -1.9900 -0.3042 -0.3628
41134SOL    HW229366   9.378   1.635  11.135  0.5964  1.7914  0.1219
41135SOL     OW29367  11.326   5.290  11.395 -0.6958 -0.3665  0.1727
41135SOL    HW129368  11.335   5.327  11.483  0.1960  0.5397 -0.2803
41135SOL    HW229369  11.411   5.249  11.377 -1.0326 -0.9683 -0.0919
41136SOL     OW29370   8.996   9.189   8.987  0.2621 -0.2022  0.3749
41136SOL    HW129371   9.049   9.128   9.040 -1.1229 -0.5632  1.3956
41136SOL    HW229372   9.051   9.268   8.980  1.9123 -1.3641 -0.6088
41137SOL     OW29373   7.897   4.721   8.555 -0.1391  0.1043 -0.4540
41137SOL    HW129374   7.843   4.754   8.627  0.7069  0.4524  0.0342
41137SOL    HW229375   7.841   4.729   8.477  0.4039  4.0000 -0.6416
41138SOL     OW29376   5.884   8.369   9.496 -0.8236 -0.5168  0.3693
41138SOL    HW129377   5.803   8.327   9.468 -0.2826 -1.4765  0.1835
41138SOL    HW229378   5.937   8.297   9.532 -0.6786  0.3447  1.9711
41139SOL     OW29379   5.525   5.878   9.484  0.1735 -0.4554  0.5274
41139SOL    HW129380   5.566   5.864   9.399  0.7260 -1.5535  0.9567
41139SOL    HW229381   5.454   5.815   9.487 -1.2744  1.0761  0.0105
41140SOL     OW29382   5.524   5.090   8.498 -0.1919 -0.1457 -0.5635
41140SOL    HW129383   5.448   5.038   8.472 -0.3552 -0.1541 -0.0868
41140SOL    HW229384   5.557   5.128   8.417 -0.6279 -0.2501 -0.7911
41141SOL     OW29385   5.877   5.240  12.031  0.7299  0.1063 -0.3985
41141SOL    HW129386   5.852   5.300  12.101  0.2490 -0.6129  0.0673
41141SOL    HW229387   5.967   5.215  12.051  1.1591  1.1347 -0.9461
41142SOL     OW29388  12.399   2.813  11.169 -0.4693  0.2531 -0.2135
41142SOL    HW129389  12.411   2.719  11.154  2.7511  0.1879  1.6631
41142SOL    HW229390  12.400   2.822  11.265  0.6935  2.2578 -0.3503
41143SOL     OW29391   3.955   3.480   2.415  0.1288 -0.6965  0.0593
41143SOL    HW129392   4.038   3.441   2.443  0.1158  0.0503  1.2467
41143SOL    HW229393   3.977   3.531   2.337  0.9017 -0.0902  0.6634
41144SOL     OW29394  12.292   7.117  12.448 -0.0284 -0.3675  0.3388
41144SOL    HW129395  12.363   7.113  12.513 -0.9793 -0.5723  1.4033
41144SOL    HW229396  12.298   7.035  12.400 -0.5966 -1.1601  1.5878
41145SOL     OW29397   9.506   3.306   1.251 -0.0318  1.1450 -0.4033
41145SOL    HW129398   9.487   3.345   1.337 -2.3816  0.5782 -0.6104
41145SOL    HW229399   9.454   3.226   1.249 -1.0110  1.7614 -2.8236
41146SOL     OW29400   9.422   7.732   6.654  0.3726  0.1483 -0.2113
41146SOL    HW129401   9.447   7.686   6.574 -0.3897 -0.9149  0.1358
41146SOL    HW229402   9.326   7.724   6.658  0.1530  2.1804 -0.3706
41147SOL     OW29403   1.052   6.520  12.355 -0.0366 -0.8813  0.1162
41147SOL    HW129404   1.088   6.540  12.268  0.5946  1.2460  0.8080
41147SOL    HW229405   1.127   6.486  12.404 -0.4364 -2.2595 -0.2058
41148SOL     OW29406  12.116  10.964   8.762  0.2079  0.5834 -0.6958
41148SOL    HW129407  12.143  10.936   8.675  1.8165  0.6812 -0.2575
41148SOL    HW229408  12.024  10.939   8.768  0.3296 -0.2790 -2.0651
41149SOL     OW29409   1.486   3.529   4.223  0.4451 -0.1790 -0.4575
41149SOL    HW129410   1.481   3.598   4.288  0.6448 -0.6929  0.1131
41149SOL    HW229411   1.396   3.511   4.198  0.1876 -1.4203  1.2308
41150SOL     OW29412  11.938  10.241   9.913  0.3839 -0.3912 -0.1568
41150SOL    HW129413  11.850  10.213   9.886  0.6055 -1.4684  0.2096
41150SOL    HW229414  11.930  10.336   9.924 -0.3132 -0.2442 -1.6928
41151SOL     OW29415  10.000   9.871   1.471 -0.1141  0.3667 -0.3034
41151SOL    HW129416  10.026   9.902   1.384  0.4575 -1.0178 -0.6464
41151SOL    HW229417   9.926   9.813   1.453  0.2513 -0.2204  0.1001
41152SOL     OW29418   9.944   8.626  12.340 -0.4807 -0.1838  0.0365
41152SOL    HW129419   9.897   8.566  12.282  0.5105  0.3459 -1.3736
41152SOL    HW229420  10.036   8.617  12.315 -0.0985  0.5535  1.0863
41153SOL     OW29421   4.728  11.383  10.508  0.1974 -0.1097 -0.2001
41153SOL    HW129422   4.720  11.432  10.426  1.4096 -0.7265 -0.7183
41153SOL    HW229423   4.812  11.412  10.545  0.2691 -0.7792  0.1790
41154SOL     OW29424   5.066  10.951   9.451 -0.0559 -0.2288  0.0928
41154SOL    HW129425   5.146  10.994   9.419 -0.5605  1.4085  0.9213
41154SOL    HW229426   5.092  10.861   9.467  0.8895 -0.4714 -2.3581
41155SOL     OW29427   1.147  12.075  11.472  0.6795  0.5038  0.3658
41155SOL    HW129428   1.124  12.005  11.533  0.8240  0.9832  0.9885
41155SOL    HW229429   1.235  12.053  11.443  0.7062  0.3992  0.5212
41156SOL     OW29430  10.856   2.456   1.395  0.4381  0.2128  0.0075
41156SOL    HW129431  10.945   2.482   1.419  1.1024 -1.5899 -0.3869
41156SOL    HW229432  10.825   2.527   1.339  1.1604  1.4515  1.1126
41157SOL     OW29433   7.905  11.911   0.666 -0.9910 -0.2693 -0.5523
41157SOL    HW129434   7.918  11.942   0.756 -0.6491  1.1130 -1.0609
41157SOL    HW229435   7.852  11.978   0.625  1.3471  0.6638 -2.2325
41158SOL     OW29436   5.634   6.196   4.331  0.0896  0.6538  0.1866
41158SOL    HW129437   5.561   6.137   4.314  0.4853 -0.2906  1.6016
41158SOL    HW229438   5.602   6.282   4.301 -1.1382  0.0539 -0.3096
41159SOL     OW29439   2.774  11.210  10.439 -0.7406 -0.0670  0.0401
41159SOL    HW129440   2.856  11.256  10.458 -1.5017  1.0203  0.8550
41159SOL    HW229441   2.747  11.174  10.524 -1.1350 -0.3691 -0.2143
41160SOL     OW29442   8.259   4.221   1.887  0.4698  0.2259  0.0419
41160SOL    HW129443   8.193   4.288   1.870  0.7370  0.3543 -0.4926
41160SOL    HW229444   8.342   4.267   1.882  0.7885 -0.4534 -2.1890
41161SOL     OW29445   8.255   1.659   6.459 -0.2251 -0.4633 -0.5405
41161SOL    HW129446   8.349   1.677   6.452 -0.2967 -0.5504 -1.8516
41161SOL    HW229447   8.244   1.574   6.418 -0.7035 -1.0631  0.7772
41162SOL     OW29448   9.625   5.088   8.734  0.2582 -0.1077  0.0950
41162SOL    HW129449   9.619   5.181   8.710  0.8925 -0.1561 -0.2818
41162SOL    HW229450   9.627   5.088   8.830  0.7919  0.3101  0.0920
41163SOL     OW29451   6.985   9.383   0.960  0.0042 -0.1338 -0.3993
41163SOL    HW129452   6.965   9.424   0.876 -0.1917 -2.0991 -1.3587
41163SOL    HW229453   7.045   9.311   0.938 -0.5980 -1.1191  1.0236
41164SOL     OW29454   7.516   6.314  10.924 -0.0003 -0.4953  0.2018
41164SOL    HW129455   7.568   6.342  10.998  0.4142 -0.4360 -0.1089
41164SOL    HW229456   7.579   6.278  10.861 -0.3520 -0.6315 -0.0834
41165SOL     OW29457   9.798   7.509   3.033  0.1107 -0.2622  0.0462
41165SOL    HW129458   9.767   7.427   2.995  0.1869  0.1349 -0.9144
41165SOL    HW229459   9.811   7.566   2.957 -0.6118  0.8699  0.7520
41166SOL     OW29460   1.550   3.258   4.754  0.0756  0.7810  0.1376
41166SOL    HW129461   1.566   3.211   4.836 -0.1048  2.2327  1.0256
41166SOL    HW229462   1.500   3.335   4.779 -0.4512  0.9840 -1.4225
41167SOL     OW29463   2.207   2.859   3.135 -0.5048 -0.2943  0.6701
41167SOL    HW129464   2.299   2.874   3.112 -0.5532  0.1345  0.7544
41167SOL    HW229465   2.210   2.822   3.223 -0.3353 -1.6725  0.1011
41168SOL     OW29466   4.620   1.037   5.781  0.0747 -0.3810  0.2600
41168SOL    HW129467   4.599   0.971   5.715 -1.5357  0.4165 -0.0683
41168SOL    HW229468   4.594   1.120   5.741 -0.3958  0.1754  1.6561
41169SOL     OW29469  10.730   3.284   1.154  0.1282 -0.2915  0.0919
41169SOL    HW129470  10.805   3.337   1.125 -1.0824  1.1934 -0.4772
41169SOL    HW229471  10.743   3.274   1.248  0.6442  0.6126  0.1298
41170SOL     OW29472   5.262  12.247   7.118  0.1190 -0.0694  0.0390
41170SOL    HW129473   5.316  12.177   7.081  1.0511 -0.7984  2.5631
41170SOL    HW229474   5.284  12.324   7.066  2.4086 -0.7169 -0.0798
41171SOL     OW29475   6.109   6.759   2.679  0.8126  0.3905  0.1600
41171SOL    HW129476   6.023   6.799   2.677 -0.7615 -2.5035 -4.1919
41171SOL    HW229477   6.169   6.829   2.653 -0.6859  1.6373 -0.0495
41172SOL     OW29478   3.806   1.114   8.414 -0.1958  0.7611  0.3499
41172SOL    HW129479   3.784   1.163   8.493 -0.9939 -0.0600  0.6418
41172SOL    HW229480   3.789   1.176   8.343 -0.0242  1.3100  0.7731
41173SOL     OW29481   5.111   7.070   5.199  0.1500  0.3998  0.1515
41173SOL    HW129482   5.103   7.124   5.120 -1.5876 -0.0523 -0.0364
41173SOL    HW229483   5.167   7.121   5.258  1.5295  0.7288 -1.3627
41174SOL     OW29484   8.981   6.443  11.055 -0.7686  0.4978  0.1803
41174SOL    HW129485   8.984   6.402  10.968 -0.9423  3.0212 -1.0914
41174SOL    HW229486   9.073   6.454  11.078 -0.7027 -1.1174  0.8629
41175SOL     OW29487   4.700  10.874   8.056  0.2063  0.3863 -0.5331
41175SOL    HW129488   4.636  10.853   7.988  0.4492  1.7328 -1.2115
41175SOL    HW229489   4.746  10.792   8.072 -1.1567 -0.4210 -0.5903
41176SOL     OW29490  12.075   4.026   5.706  0.3254 -0.0113 -0.0051
41176SOL    HW129491  12.062   4.107   5.657 -0.6462  0.4219  0.9215
41176SOL    HW229492  12.048   3.956   5.646  0.7963  0.3764 -0.6717
41177SOL     OW29493   9.641   4.422  10.007  0.1662 -0.0742  0.3346
41177SOL    HW129494   9.710   4.365   9.972 -0.8232 -0.5697 -0.8613
41177SOL    HW229495   9.602   4.370  10.078 -0.0183 -0.4567 -0.0408
41178SOL     OW29496   4.303   5.049  12.234 -0.0207 -0.1373 -0.4606
41178SOL    HW129497   4.235   5.100  12.190 -0.4463 -1.6565 -1.6439
41178SOL    HW229498   4.262   5.022  12.316 -0.2509  0.3313 -0.4175
41179SOL     OW29499  10.438  12.052  10.711 -0.3100 -0.6194 -0.5128
41179SOL    HW129500  10.456  11.962  10.737 -2.2601 -0.9651 -0.2383
41179SOL    HW229501  10.384  12.044  10.632  0.2657  0.3297 -1.0169
41180SOL     OW29502   1.810  11.840  10.784 -0.1912  0.2887  0.6231
41180SOL    HW129503   1.840  11.924  10.749  0.4021 -0.2891 -0.3170
41180SOL    HW229504   1.890  11.788  10.793 -0.7750 -1.2252 -1.7708
41181SOL     OW29505   8.373   1.208   2.565 -0.3076  0.0638 -0.5589
41181SOL    HW129506   8.368   1.118   2.533  0.0708  0.1567 -0.8969
41181SOL    HW229507   8.383   1.200   2.660  2.8259 -0.3789 -0.8162
41182SOL     OW29508   4.304   9.204   2.193 -0.3380  0.5664 -0.2637
41182SOL    HW129509   4.385   9.154   2.184 -0.8623 -0.3452 -0.0693
41182SOL    HW229510   4.257   9.190   2.111 -1.3450 -0.8652  0.5111
41183SOL     OW29511   8.029   8.408   6.078  0.4473 -0.3691 -0.2207
41183SOL    HW129512   8.113   8.434   6.040 -0.4299  0.2801 -1.7955
41183SOL    HW229513   7.999   8.486   6.126 -0.1288  0.0567 -1.2543
41184SOL     OW29514  11.890   8.828   9.277 -0.1521  0.1393  0.3551
41184SOL    HW129515  11.817   8.889   9.286 -1.7387 -1.7666  1.1965
41184SOL    HW229516  11.882   8.796   9.187 -0.2352  0.0755  0.3848
41185SOL     OW29517   2.213   5.994  10.342 -0.3022  0.2396 -0.3704
41185SOL    HW129518   2.281   6.062  10.341 -0.7712  0.7399  0.2917
41185SOL    HW229519   2.261   5.912  10.332  0.5307  0.5003  1.1923
41186SOL     OW29520   2.880   7.376   9.289 -0.5183 -0.5296  0.1286
41186SOL    HW129521   2.873   7.314   9.216  0.4017  0.4278 -0.7869
41186SOL    HW229522   2.865   7.462   9.250  0.6990  0.0728  0.9224
41187SOL     OW29523  12.469   2.267  12.004 -0.2150 -0.4688  0.1630
41187SOL    HW129524  12.552   2.306  12.030 -0.0759 -0.2453 -0.6024
41187SOL    HW229525  12.423   2.251  12.087  0.3445 -0.0612  0.5585
41188SOL     OW29526   8.171  11.528   1.132 -0.0313 -0.7255  0.1014
41188SOL    HW129527   8.178  11.463   1.062 -0.8369 -0.7100 -0.0036
41188SOL    HW229528   8.077  11.548   1.136  0.1085 -0.1834  0.6902
41189SOL     OW29529   9.647   6.047  10.817  0.0810  0.6282  0.1048
41189SOL    HW129530   9.620   6.139  10.812  2.2844  1.3072 -0.6699
41189SOL    HW229531   9.697   6.041  10.898  0.4458  0.2644 -0.1434
41190SOL     OW29532   8.348   5.210  10.660 -0.3205  0.5934 -0.2663
41190SOL    HW129533   8.376   5.188  10.749  0.9641  1.4462 -0.4282
41190SOL    HW229534   8.383   5.140  10.605 -2.0497 -0.5290 -0.0086
41191SOL     OW29535   0.620   5.134  12.385  0.3282  0.1807 -0.2001
41191SOL    HW129536   0.711   5.102  12.384  0.1057 -0.6752  1.8990
41191SOL    HW229537   0.628   5.229  12.398  0.9813 -0.1617  2.4955
41192SOL     OW29538  10.856   1.737   0.936  0.3482  0.5960 -0.7456
41192SOL    HW129539  10.888   1.749   1.025 -0.7727 -0.3643 -0.1795
41192SOL    HW229540  10.876   1.645   0.916 -3.1859 -0.5615  0.2114
41193SOL     OW29541  12.026  12.220   0.502  0.0740  0.3109  0.1357
41193SOL    HW129542  11.965  12.155   0.468 -0.7546  1.0826  0.0890
41193SOL    HW229543  12.061  12.263   0.424  1.4943 -0.8189  0.1161
41194SOL     OW29544  11.709   5.773   7.512  0.2584  0.4696 -0.6437
41194SOL    HW129545  11.795   5.730   7.514 -0.6568 -1.4569 -0.0429
41194SOL    HW229546  11.725   5.856   7.468  2.0720 -0.6328 -2.2254
41195SOL     OW29547   0.726  12.100  11.723 -0.0165 -0.2171 -0.4332
41195SOL    HW129548   0.786  12.163  11.684  1.0435 -0.4549  0.7417
41195SOL    HW229549   0.652  12.096  11.662  0.7779  0.6998 -1.4977
41196SOL     OW29550   4.645   1.750  12.108 -0.6527  0.1864  0.2974
41196SOL    HW129551   4.698   1.774  12.184 -1.9230 -3.3322  2.5200
41196SOL    HW229552   4.582   1.822  12.100  1.3416  2.0905  0.5634
41197SOL     OW29553   5.337   2.192   1.590 -0.0636 -0.2632 -0.3021
41197SOL    HW129554   5.317   2.191   1.683 -1.0269 -0.9667 -0.4997
41197SOL    HW229555   5.427   2.162   1.584  0.8257  2.0720  0.5588
41198SOL     OW29556   9.296  10.151   2.960 -0.1356  0.4663 -0.4221
41198SOL    HW129557   9.295  10.057   2.979  0.2744  0.6939  0.7850
41198SOL    HW229558   9.204  10.173   2.943 -0.5611  0.2385  1.3698
41199SOL     OW29559  11.996   6.729   2.334  0.2227 -0.3928 -0.0453
41199SOL    HW129560  12.030   6.643   2.311  1.0752 -0.2393  0.6119
41199SOL    HW229561  12.072   6.786   2.333 -0.1689  0.1485  0.5282
41200SOL     OW29562   3.040   2.127   8.385  0.0208 -0.3465 -0.5744
41200SOL    HW129563   2.988   2.055   8.421  1.4307 -0.1937  2.0428
41200SOL    HW229564   3.104   2.084   8.328 -0.5070 -0.9123 -0.7547
41201SOL     OW29565   7.635  10.653   1.514  0.0450 -0.2057 -0.3703
41201SOL    HW129566   7.708  10.710   1.537  0.7626 -1.8283  1.6201
41201SOL    HW229567   7.588  10.639   1.596 -0.0528 -2.5290 -0.7703
41202SOL     OW29568   2.899   3.442   6.258 -0.6439 -0.5609  0.7999
41202SOL    HW129569   2.839   3.482   6.195  0.5503  0.4714  0.2706
41202SOL    HW229570   2.887   3.494   6.338 -0.2005 -0.0924  0.5732
41203SOL     OW29571   4.403  12.247   6.907  0.5795  0.7262  0.0021
41203SOL    HW129572   4.346  12.299   6.850  0.8316 -0.5107 -1.4573
41203SOL    HW229573   4.422  12.304   6.981 -1.1364  1.7978 -0.3301
41204SOL     OW29574   6.752   2.737   4.836  0.4536 -0.0786 -0.2786
41204SOL    HW129575   6.790   2.766   4.753  0.8163 -0.0240 -0.0954
41204SOL    HW229576   6.821   2.684   4.877  0.2288 -0.2125 -0.0712
41205SOL     OW29577   4.116  10.971  11.931 -0.0110 -0.9847 -0.1980
41205SOL    HW129578   4.146  11.007  12.014  1.2722 -3.8836  0.6918
41205SOL    HW229579   4.061  10.896  11.954  0.0333 -1.6160 -1.9443
41206SOL     OW29580  10.915   8.699   6.436  0.4170  0.6316 -0.6775
41206SOL    HW129581  10.930   8.755   6.512  1.4360 -0.2588 -0.2015
41206SOL    HW229582  10.851   8.635   6.466  1.1476  0.0139 -0.4268
41207SOL     OW29583   1.060  11.367   7.420 -0.0027  0.1636 -0.2762
41207SOL    HW129584   1.149  11.368   7.456 -0.5476  2.2822  1.2540
41207SOL    HW229585   1.054  11.447   7.367 -1.2357  0.5552  0.3999
41208SOL     OW29586   6.186   0.252  12.034  0.8811  0.4699 -0.1654
41208SOL    HW129587   6.228   0.177  12.076  2.0001  0.1001 -1.8372
41208SOL    HW229588   6.194   0.323  12.098 -2.0313 -1.2370  2.2979
41209SOL     OW29589   0.567   4.603   4.216 -0.5098 -0.6859 -0.1410
41209SOL    HW129590   0.651   4.561   4.199 -1.0162 -1.3632 -1.0351
41209SOL    HW229591   0.552   4.660   4.140 -1.1165 -1.0050 -0.2695
41210SOL     OW29592   8.136   6.860   6.303  0.7035 -0.7171 -0.0682
41210SOL    HW129593   8.070   6.832   6.367  0.9873 -1.9715 -0.2960
41210SOL    HW229594   8.198   6.912   6.354  0.6439 -1.2613  0.5741
41211SOL     OW29595   8.112   3.941   9.582  0.3456 -0.5212  1.0867
41211SOL    HW129596   8.143   4.001   9.650 -0.7122  0.9437  0.3405
41211SOL    HW229597   8.023   3.969   9.564  1.1415  0.3515 -2.1268
41212SOL     OW29598   7.866  12.363   5.301  0.1220  0.3310 -0.3885
41212SOL    HW129599   7.913  12.282   5.320 -0.9470 -0.0996  0.5555
41212SOL    HW229600   7.876  12.375   5.207 -0.0985 -1.1667 -0.6307
41213SOL     OW29601   2.580   8.278  11.180 -0.4109  0.0305  0.0472
41213SOL    HW129602   2.573   8.354  11.237  3.4949 -0.0104  0.8314
41213SOL    HW229603   2.544   8.206  11.231 -0.2592  0.6302  1.0168
41214SOL     OW29604   4.688   9.333   0.761  0.3209 -0.9659  0.1906
41214SOL    HW129605   4.618   9.365   0.819  0.0498  0.4075 -0.8366
41214SOL    HW229606   4.746   9.408   0.750  1.4582 -1.8134  0.2643
41215SOL     OW29607   5.563  10.140   1.716 -0.1382  0.1592 -0.0594
41215SOL    HW129608   5.641  10.180   1.755  1.2216 -0.3371 -2.0686
41215SOL    HW229609   5.575  10.046   1.730 -0.7431  0.1211  0.2207
41216SOL     OW29610   7.217   9.999   1.769 -0.0463 -0.1389 -0.3774
41216SOL    HW129611   7.149  10.053   1.811 -0.3988 -0.8199 -0.0410
41216SOL    HW229612   7.201   9.911   1.804  0.9033 -0.3418 -0.4375
41217SOL     OW29613   9.673   3.298   7.566 -0.4400  0.5616  0.3714
41217SOL    HW129614   9.646   3.240   7.495 -2.2897  0.2825  1.2522
41217SOL    HW229615   9.671   3.386   7.528  0.7023  0.2476 -0.4862
41218SOL     OW29616   6.007   9.772  10.715  0.1451  0.5212  0.4628
41218SOL    HW129617   6.074   9.786  10.782 -0.6994 -0.2971  1.5316
41218SOL    HW229618   5.997   9.677  10.712  0.2519  0.5463 -0.9273
41219SOL     OW29619   9.842   9.518   2.827  0.8219 -0.6263  1.0454
41219SOL    HW129620   9.936   9.501   2.828  0.9562 -0.2054 -0.4978
41219SOL    HW229621   9.823   9.537   2.735 -0.1128  2.8012  1.8074
41220SOL     OW29622   9.968   1.212   8.687 -0.2662 -0.3366 -0.1373
41220SOL    HW129623   9.968   1.175   8.775  1.3979 -1.1671 -0.4517
41220SOL    HW229624  10.054   1.253   8.679 -1.3577  2.0846 -0.4605
41221SOL     OW29625   4.088   4.206   6.036 -0.6991 -0.3266  0.0541
41221SOL    HW129626   4.119   4.117   6.017 -0.2531 -0.1312 -0.1422
41221SOL    HW229627   4.018   4.220   5.972  1.3106  0.6277 -2.1041
41222SOL     OW29628   2.800   1.504   2.677  0.2874 -0.3019  0.4907
41222SOL    HW129629   2.756   1.450   2.612  0.5791 -0.2484  0.2474
41222SOL    HW229630   2.880   1.535   2.634 -0.6232  1.6201  0.0886
41223SOL     OW29631   8.184   6.544   0.875 -0.0716  0.0308 -0.3564
41223SOL    HW129632   8.177   6.635   0.905 -2.2767  0.2624 -1.3446
41223SOL    HW229633   8.179   6.550   0.780 -1.1800 -1.1705 -0.4000
41224SOL     OW29634   4.681   0.072   5.967 -0.1321 -0.0710 -0.2229
41224SOL    HW129635   4.649   0.125   6.040  0.6621 -1.3343  1.1127
41224SOL    HW229636   4.714   0.136   5.904  0.2748  1.0682  1.0689
41225SOL     OW29637   4.666   3.176   7.464  0.1218 -0.1020 -0.7362
41225SOL    HW129638   4.628   3.096   7.500 -1.4594  1.8838  2.5056
41225SOL    HW229639   4.754   3.150   7.435 -0.0295 -2.8321  0.9339
41226SOL     OW29640  12.046  10.877   2.468 -0.2650  0.1679  0.0686
41226SOL    HW129641  11.964  10.870   2.517 -0.4282  0.9725 -0.0627
41226SOL    HW229642  12.106  10.818   2.513 -1.2942 -1.4814 -0.6541
41227SOL     OW29643   3.788   2.310   0.458  0.3527  0.3176  0.4711
41227SOL    HW129644   3.844   2.242   0.495 -0.4512 -0.5640  0.0769
41227SOL    HW229645   3.818   2.321   0.368 -0.8671 -1.0386 -0.1418
41228SOL     OW29646  11.196  11.954  12.309 -0.0403 -0.2258 -0.0844
41228SOL    HW129647  11.197  12.024  12.244 -1.2691 -1.0588 -1.0463
41228SOL    HW229648  11.163  11.878  12.261  0.4919 -1.2604  1.1371
41229SOL     OW29649  10.853   8.946   8.073  0.1353 -0.2048 -0.5837
41229SOL    HW129650  10.789   8.995   8.022  0.8221  0.0949 -1.1664
41229SOL    HW229651  10.852   8.858   8.035  0.0756 -0.2049 -0.5834
41230SOL     OW29652   6.415   1.815   6.766 -0.0202  0.3308  0.0565
41230SOL    HW129653   6.323   1.841   6.753 -0.3372 -0.1096  1.3493
41230SOL    HW229654   6.458   1.894   6.799 -0.1201  0.3058  0.2475
41231SOL     OW29655   6.162   1.036   7.990 -0.1348  0.0301  0.2301
41231SOL    HW129656   6.100   1.062   7.921 -0.1209  0.2659  0.3038
41231SOL    HW229657   6.212   1.117   8.008 -2.1890  0.8603  2.7083
41232SOL     OW29658   2.650  11.524  10.331  0.6625  0.2426 -0.7257
41232SOL    HW129659   2.639  11.429  10.333  2.3085  0.0180  0.2093
41232SOL    HW229660   2.561  11.559  10.329  0.0233 -1.3039 -1.3389
41233SOL     OW29661   1.808   0.507  10.380  0.2441  0.1765  0.4196
41233SOL    HW129662   1.776   0.447  10.312  0.9882 -0.2746  0.4536
41233SOL    HW229663   1.858   0.451  10.439  0.5185  0.7533  0.7404
41234SOL     OW29664  12.239   1.505   9.667  0.5725  0.1729  0.2549
41234SOL    HW129665  12.279   1.507   9.754 -1.1997 -0.0443  1.1212
41234SOL    HW229666  12.161   1.450   9.678 -0.0934  0.7614 -1.2997
41235SOL     OW29667   8.410   6.310  11.249  0.3994  0.5318  0.3321
41235SOL    HW129668   8.365   6.394  11.254  0.0244  0.4666 -1.3893
41235SOL    HW229669   8.456   6.302  11.333 -0.3256  2.0034  0.8923
41236SOL     OW29670   6.483   5.322  11.556  0.5793 -0.1679  0.3012
41236SOL    HW129671   6.416   5.374  11.600  0.4973 -2.0896  2.5857
41236SOL    HW229672   6.473   5.346  11.463 -0.8861  2.1893  0.9642
41237SOL     OW29673   4.069   1.921  10.737  0.4569 -0.0997  0.5086
41237SOL    HW129674   4.039   1.993  10.793 -0.8969 -0.3033  0.0765
41237SOL    HW229675   4.022   1.844  10.769  0.2799 -0.3787 -0.3967
41238SOL     OW29676   1.679  11.478  10.408 -0.0816  0.3221 -0.3148
41238SOL    HW129677   1.677  11.473  10.312 -0.3528  2.9612 -0.5181
41238SOL    HW229678   1.587  11.489  10.433  0.0713  0.5638  0.1544
41239SOL     OW29679  10.450   7.336   4.533 -0.0583  0.7403 -0.3219
41239SOL    HW129680  10.468   7.417   4.485 -0.0983  0.6387 -0.5115
41239SOL    HW229681  10.427   7.273   4.465  1.3782  0.1732 -0.3327
41240SOL     OW29682   3.332  10.303   5.061 -0.2761 -0.4695  0.2737
41240SOL    HW129683   3.282  10.384   5.049  0.1496 -0.1974  0.3014
41240SOL    HW229684   3.272  10.233   5.035 -0.3137 -0.0828 -0.6919
41241SOL     OW29685   3.680   4.191  12.030 -0.2239 -0.1759 -1.0039
41241SOL    HW129686   3.659   4.119  11.970 -1.1039 -0.3777 -0.4667
41241SOL    HW229687   3.595   4.221  12.062  0.1529  0.8625 -0.9271
41242SOL     OW29688   0.581  10.318   7.539 -0.0943  0.3578  0.0114
41242SOL    HW129689   0.501  10.301   7.489 -0.3150  0.7444  0.2317
41242SOL    HW229690   0.640  10.361   7.476 -0.3460  0.7787  0.0631
41243SOL     OW29691   0.845   2.423   8.901  0.6165  0.3090  0.4428
41243SOL    HW129692   0.756   2.401   8.928  0.1400  0.5956 -0.8621
41243SOL    HW229693   0.842   2.517   8.885  1.1564  0.3152  0.3670
41244SOL     OW29694   3.139   0.798  12.227 -0.0972 -0.6993 -0.1808
41244SOL    HW129695   3.207   0.731  12.221  0.3643 -0.1384 -1.7709
41244SOL    HW229696   3.070   0.768  12.168 -0.2233 -0.1615 -0.3195
41245SOL     OW29697   8.400   5.173  11.186  0.2475  0.0885  0.2689
41245SOL    HW129698   8.347   5.101  11.220 -0.2132  0.9980  1.5869
41245SOL    HW229699   8.432   5.142  11.102  1.7470 -2.4469  1.6509
41246SOL     OW29700  12.241   7.547   4.786  0.1376 -0.4241 -0.0989
41246SOL    HW129701  12.204   7.629   4.821  0.8964 -0.5622  1.0954
41246SOL    HW229702  12.165   7.492   4.769 -0.4735  0.9187 -2.0430
41247SOL     OW29703   0.503   4.780   8.230 -0.7836  0.6823  0.4419
41247SOL    HW129704   0.438   4.739   8.287  0.3226  0.0135  1.2489
41247SOL    HW229705   0.574   4.716   8.225 -0.0366  1.5374 -0.1708
41248SOL     OW29706   5.776   3.850   7.903  0.4476 -0.3493  0.4526
41248SOL    HW129707   5.812   3.764   7.879  0.8820 -0.0133 -0.1115
41248SOL    HW229708   5.841   3.913   7.874  0.3309  0.1639  1.2503
41249SOL     OW29709   7.090   9.349   4.131 -0.3127 -0.2900 -0.0071
41249SOL    HW129710   7.144   9.278   4.096 -1.7948 -0.6983 -1.6048
41249SOL    HW229711   7.058   9.317   4.215 -0.7593 -1.4426 -0.5976
41250SOL     OW29712   0.152  10.082  12.447  0.1928  0.3703 -0.6407
41250SOL    HW129713   0.177  10.102  12.537 -1.8660  1.7903 -0.3172
41250SOL    HW229714   0.146   9.986  12.445  1.4877  0.2386  0.3513
41251SOL     OW29715   4.638   4.903   5.293 -0.5369 -0.0440 -0.2605
41251SOL    HW129716   4.634   4.851   5.213  2.2830  0.6041 -0.9168
41251SOL    HW229717   4.619   4.992   5.265 -0.7521  0.0058  0.0304
41252SOL     OW29718   7.871   2.235   5.003  0.3259 -0.2039 -0.6567
41252SOL    HW129719   7.841   2.216   4.914 -0.0353 -0.5375 -0.4668
41252SOL    HW229720   7.822   2.313   5.028  2.4313  1.5701 -1.7532
41253SOL     OW29721  12.357   4.077   6.717 -0.0954 -0.6347 -0.4161
41253SOL    HW129722  12.284   4.016   6.719 -0.3172 -0.4044  2.5246
41253SOL    HW229723  12.317   4.164   6.725  0.4218 -0.4221 -0.0303
41254SOL     OW29724   3.530   2.576   9.987  0.0083  0.4269  0.4558
41254SOL    HW129725   3.541   2.560   9.893 -0.5610 -3.5321  0.8709
41254SOL    HW229726   3.452   2.632   9.992 -1.7875 -1.6862 -1.4558
41255SOL     OW29727   1.738  12.290   2.736  0.4620  0.0879 -0.1167
41255SOL    HW129728   1.665  12.279   2.676  1.1592  0.3294 -1.0301
41255SOL    HW229729   1.815  12.261   2.687  0.8562 -1.2340  1.2056
41256SOL     OW29730   8.634   4.967   3.879  0.0979  0.3350  0.1594
41256SOL    HW129731   8.686   4.947   3.801  1.8026  0.0557  1.3107
41256SOL    HW229732   8.578   4.891   3.890  0.4258  0.0117 -0.3256
41257SOL     OW29733   3.772   8.589   6.977 -0.2187  0.0803  0.4629
41257SOL    HW129734   3.742   8.566   6.890  1.2277 -0.6946  0.1400
41257SOL    HW229735   3.770   8.507   7.026  0.1234  0.2760  0.8115
41258SOL     OW29736   3.483   1.579   7.621  0.1686 -0.1948 -0.9064
41258SOL    HW129737   3.572   1.561   7.591  0.1100 -2.2854  0.0288
41258SOL    HW229738   3.429   1.575   7.541  0.5154 -2.0370 -1.0908
41259SOL     OW29739   9.862   2.304   9.418 -0.1750  0.4308 -0.4513
41259SOL    HW129740   9.930   2.237   9.412 -0.7029 -0.0230 -2.1640
41259SOL    HW229741   9.783   2.256   9.444 -0.2288  0.6537 -0.1968
41260SOL     OW29742   1.381   6.573   9.642  0.1877 -0.2169  0.5067
41260SOL    HW129743   1.364   6.665   9.626 -0.7630 -0.6318 -1.0388
41260SOL    HW229744   1.357   6.560   9.734  0.0371  0.9848  0.6497
41261SOL     OW29745   3.905   9.460   1.868 -0.3958 -0.3982  0.0390
41261SOL    HW129746   3.894   9.396   1.939  1.0143  1.0948  1.6715
41261SOL    HW229747   3.860   9.538   1.898  1.2566  0.6667 -0.1142
41262SOL     OW29748   6.817   3.461   8.185 -0.3759 -0.4525  0.7119
41262SOL    HW129749   6.785   3.429   8.100  1.9512  0.5717 -0.6358
41262SOL    HW229750   6.855   3.384   8.227  0.3886 -0.5590 -0.1446
41263SOL     OW29751  10.300  10.441  11.421  0.0540  0.0791 -0.0255
41263SOL    HW129752  10.325  10.381  11.351 -1.4159  0.5032 -0.9658
41263SOL    HW229753  10.365  10.511  11.418 -0.9834  1.0537 -2.2565
41264SOL     OW29754   7.317  11.906   3.558  0.3606  0.0335  0.0301
41264SOL    HW129755   7.322  11.831   3.498  2.7479  0.7291 -0.7507
41264SOL    HW229756   7.246  11.884   3.618 -0.0178 -2.1461 -1.1079
41265SOL     OW29757   3.236   8.341   2.009  0.4251 -0.2962  0.3782
41265SOL    HW129758   3.320   8.327   1.964  0.6038 -1.4390  1.0093
41265SOL    HW229759   3.262   8.369   2.097  0.2488 -2.5008  1.1972
41266SOL     OW29760   3.125   6.854  10.728 -0.3155  0.5215 -0.1336
41266SOL    HW129761   3.131   6.759  10.723 -2.5023  0.1990  1.6471
41266SOL    HW229762   3.096   6.872  10.818 -0.5321  2.8185 -0.5873
41267SOL     OW29763   6.264   4.706  12.059  0.0576 -0.4426 -0.0324
41267SOL    HW129764   6.267   4.620  12.017 -1.0525 -0.6073  0.1799
41267SOL    HW229765   6.171   4.721  12.075  0.3291  0.3364  0.8953
41268SOL     OW29766   7.724   4.728   5.644 -0.3322  0.0891 -0.1258
41268SOL    HW129767   7.668   4.780   5.586 -0.9068 -0.5134 -0.1304
41268SOL    HW229768   7.770   4.792   5.697 -0.1247  0.6459 -0.9475
41269SOL     OW29769   5.191  12.170  12.374  0.6806  1.0937  0.4991
41269SOL    HW129770   5.176  12.109  12.446 -4.1910  0.7918 -0.4791
41269SOL    HW229771   5.187  12.257  12.415 -1.2879  0.9000  0.7895
41270SOL     OW29772   7.730  11.325   0.755  0.8041  0.3503 -0.1510
41270SOL    HW129773   7.686  11.317   0.670 -1.4772  1.0591  0.8708
41270SOL    HW229774   7.667  11.288   0.817  2.5997 -0.5430  1.2243
41271SOL     OW29775   7.319   4.508   4.312 -0.0283  0.0454  0.2346
41271SOL    HW129776   7.286   4.596   4.324 -1.7983 -0.1896 -2.0945
41271SOL    HW229777   7.377   4.493   4.386 -0.2837  2.8519  1.1036
41272SOL     OW29778   9.089   0.628   3.141 -0.1253  0.1550 -0.0471
41272SOL    HW129779   9.147   0.672   3.204  0.1288  0.8379 -0.7319
41272SOL    HW229780   9.011   0.684   3.137 -0.3683 -0.1780  0.0714
41273SOL     OW29781   1.207   4.970   9.798  0.3125 -0.3220  0.0435
41273SOL    HW129782   1.169   4.998   9.715  1.0611  0.1435 -0.1529
41273SOL    HW229783   1.133   4.934   9.848 -0.6069  1.5585  0.1239
41274SOL     OW29784   5.818   3.885   1.528  0.6798  0.2800 -0.1593
41274SOL    HW129785   5.778   3.867   1.443 -1.1640  0.3338  0.6416
41274SOL    HW229786   5.867   3.805   1.549  2.7256  0.9454 -2.0458
41275SOL     OW29787   3.705   0.361   0.293  0.1332  0.0207  0.6090
41275SOL    HW129788   3.758   0.438   0.270  1.4592 -1.5975 -2.2936
41275SOL    HW229789   3.769   0.294   0.313 -0.6682 -1.8483 -2.4481
41276SOL     OW29790   0.962  11.035   5.045 -0.4540  0.1805 -0.4206
41276SOL    HW129791   0.881  11.028   5.095 -1.0123 -1.2139 -1.4340
41276SOL    HW229792   1.030  11.053   5.110 -1.6066  1.7861  0.4012
41277SOL     OW29793   7.039   1.908  10.128  0.7672 -0.5843  0.3353
41277SOL    HW129794   7.073   1.821  10.107 -1.4161 -1.9645  2.0655
41277SOL    HW229795   6.962   1.918  10.072 -1.2166 -1.4994  2.7151
41278SOL     OW29796   5.063   1.339   8.700 -0.0709  0.1801  0.4051
41278SOL    HW129797   5.033   1.421   8.660 -0.6550 -0.0347  0.4074
41278SOL    HW229798   4.994   1.315   8.762 -0.6467 -1.1300 -0.7106
41279SOL     OW29799   5.557   2.440  12.246  0.2378  0.3580 -0.1448
41279SOL    HW129800   5.602   2.523  12.227  0.9602  0.2210  0.8523
41279SOL    HW229801   5.574   2.385  12.169  1.7460  0.3406  0.1694
41280SOL     OW29802   2.722   7.234   6.714  0.0015  0.6799 -0.1560
41280SOL    HW129803   2.776   7.178   6.659  0.3719  1.2604 -0.3871
41280SOL    HW229804   2.660   7.275   6.653 -0.9434 -0.2562  0.1543
41281SOL     OW29805   5.567   3.388   5.854 -0.0623  0.2558  0.5059
41281SOL    HW129806   5.519   3.419   5.777  0.8021  1.1181  0.2957
41281SOL    HW229807   5.657   3.378   5.824  0.1701  0.0028  1.2538
41282SOL     OW29808   7.964  11.556   5.874  0.6065 -0.1590 -0.5199
41282SOL    HW129809   7.960  11.512   5.959 -2.7931  1.0055  0.1088
41282SOL    HW229810   8.016  11.634   5.891 -0.4859  0.3539  0.7547
41283SOL     OW29811   8.470   7.388   4.245  0.0903  0.2979  0.3045
41283SOL    HW129812   8.501   7.396   4.336 -1.4112 -0.6804  0.9360
41283SOL    HW229813   8.517   7.312   4.211 -0.2229 -0.0607  0.6598
41284SOL     OW29814   3.245   7.434   2.068 -0.1131  0.3724  0.5847
41284SOL    HW129815   3.179   7.366   2.082  0.4736 -0.5664 -0.9345
41284SOL    HW229816   3.305   7.397   2.003  0.8079  1.9561  0.4632
41285SOL     OW29817   9.402  12.182   0.090 -0.3330  0.1089 -0.0680
41285SOL    HW129818   9.429  12.125   0.018  0.8413  2.8483 -1.9790
41285SOL    HW229819   9.480  12.188   0.146  0.1242  1.1178 -0.7922
41286SOL     OW29820   6.027   1.594   6.519  0.2022 -0.0117  0.3919
41286SOL    HW129821   6.105   1.544   6.543 -0.8360 -2.0713 -0.2977
41286SOL    HW229822   6.059   1.682   6.499  2.5269 -1.1173 -1.1044
41287SOL     OW29823   1.155   5.663   3.759 -0.4833  0.2688 -0.0066
41287SOL    HW129824   1.158   5.587   3.701 -2.8545 -0.4696  0.7342
41287SOL    HW229825   1.123   5.629   3.842  1.1665  1.6119  1.2594
41288SOL     OW29826  10.789   7.838   0.949  0.3027 -0.2492  0.0068
41288SOL    HW129827  10.766   7.784   0.874 -1.0388 -0.1512  0.3096
41288SOL    HW229828  10.711   7.834   1.005  0.1532  1.9557  0.0478
41289SOL     OW29829   3.715   1.737   4.738 -0.3047 -0.1613  0.4704
41289SOL    HW129830   3.723   1.689   4.656 -0.2221 -1.4082  1.1863
41289SOL    HW229831   3.622   1.762   4.742 -0.5292 -0.9692  0.4649
41290SOL     OW29832   2.837   3.009   3.570  0.2574  0.0163 -0.4315
41290SOL    HW129833   2.927   3.038   3.556  0.8140 -1.7948 -0.9283
41290SOL    HW229834   2.783   3.084   3.547  1.5667  0.4694 -2.1987
41291SOL     OW29835   2.220   8.218   0.489 -0.3157 -0.2355  0.4294
41291SOL    HW129836   2.248   8.155   0.556 -2.1996 -1.1020  0.4816
41291SOL    HW229837   2.167   8.166   0.428 -0.6793  1.0164 -0.3665
41292SOL     OW29838   1.034   5.497   6.560  0.2263  0.1036 -0.1289
41292SOL    HW129839   1.074   5.415   6.529  0.6472  0.9070 -1.8373
41292SOL    HW229840   0.953   5.504   6.509  1.2807  1.8140 -1.6977
41293SOL     OW29841   5.014   0.195  10.061 -0.3002 -0.0034  0.5550
41293SOL    HW129842   4.989   0.259   9.994 -0.0453 -0.4477  0.0361
41293SOL    HW229843   5.089   0.149  10.025 -0.0446 -0.1289  1.2229
41294SOL     OW29844   2.241   3.295   2.793 -0.4426  0.2761 -0.1566
41294SOL    HW129845   2.146   3.305   2.781 -0.5612 -1.3420 -0.8205
41294SOL    HW229846   2.266   3.371   2.847 -2.5115 -0.4705  2.0682
41295SOL     OW29847  10.457   4.961   3.769 -0.0195 -0.3128  0.0102
41295SOL    HW129848  10.543   4.995   3.745 -0.0146  0.3472  0.9302
41295SOL    HW229849  10.399   4.992   3.699  0.7293 -2.1503 -1.5317
41296SOL     OW29850   6.624   5.279  10.543  0.4726 -0.3682 -0.2172
41296SOL    HW129851   6.545   5.289  10.596  1.4275 -1.7527  1.5600
41296SOL    HW229852   6.591   5.253  10.456 -1.0465  0.2629  0.1268
41297SOL     OW29853  10.714   5.837   7.095  0.1614 -0.2220  0.7096
41297SOL    HW129854  10.669   5.917   7.066  0.4660  0.8508  3.0278
41297SOL    HW229855  10.663   5.807   7.171  1.0418 -1.2917  0.9010
41298SOL     OW29856   3.767   8.001   3.819  0.0106  0.1096  0.2334
41298SOL    HW129857   3.682   8.043   3.833 -0.8163 -0.9059 -1.4765
41298SOL    HW229858   3.776   7.940   3.892 -0.3392  0.7828  0.8593
41299SOL     OW29859   0.261   8.105   1.851  0.3735 -0.0597 -0.3520
41299SOL    HW129860   0.356   8.117   1.857  0.1238  2.1128  0.2099
41299SOL    HW229861   0.232   8.099   1.942 -0.0124 -0.9804 -0.5282
41300SOL     OW29862   7.136  10.861   1.689  0.2434  0.3057  0.6727
41300SOL    HW129863   7.097  10.948   1.695 -0.2457  0.2157 -0.8075
41300SOL    HW229864   7.075  10.811   1.635  1.8586 -0.1535 -0.8036
41301SOL     OW29865   6.963   9.007   4.691 -0.0914 -0.0808 -0.5983
41301SOL    HW129866   6.997   9.092   4.721 -0.2356 -0.1337 -0.2763
41301SOL    HW229867   7.007   8.992   4.608  0.3719  0.0427 -0.3822
41302SOL     OW29868  10.932   0.396   7.427 -0.3559  0.2263  0.4909
41302SOL    HW129869  10.984   0.389   7.347 -0.3570  0.6634  0.4477
41302SOL    HW229870  10.885   0.479   7.418 -1.2916 -0.2934  0.4024
41303SOL     OW29871  11.189   7.316  11.110 -0.1324  0.7589 -0.6186
41303SOL    HW129872  11.215   7.393  11.160  0.8224 -0.5882  1.0689
41303SOL    HW229873  11.247   7.316  11.034  1.6730  0.3478  0.6999
41304SOL     OW29874  12.054  10.317   3.624 -0.5802  0.0369 -0.2635
41304SOL    HW129875  11.991  10.289   3.690 -0.2980 -1.1226 -0.4513
41304SOL    HW229876  12.005  10.320   3.542 -0.2986 -1.5060 -0.5333
41305SOL     OW29877  10.008   7.188   6.796  0.2026 -0.0377 -0.4103
41305SOL    HW129878  10.004   7.146   6.882  1.8378  0.1336 -0.2175
41305SOL    HW229879   9.979   7.278   6.812 -1.1360 -0.4482 -0.3927
41306SOL     OW29880   4.500   2.841   0.928  0.0341 -0.0107 -0.8710
41306SOL    HW129881   4.416   2.800   0.910  0.2510 -0.0994 -1.7244
41306SOL    HW229882   4.548   2.836   0.845  0.8833  0.0266 -0.3980
41307SOL     OW29883  10.595   7.667   1.258 -0.0541 -0.8880 -0.3207
41307SOL    HW129884  10.537   7.643   1.331  0.4564 -0.9386  0.0760
41307SOL    HW229885  10.572   7.606   1.188 -0.2757 -1.1020 -0.0618
41308SOL     OW29886   8.329   1.568   3.474  0.0276  0.1076  0.1253
41308SOL    HW129887   8.240   1.539   3.494 -0.8856  2.2034 -0.6211
41308SOL    HW229888   8.377   1.559   3.557 -1.2163  0.1340  0.8653
41309SOL     OW29889   5.248   3.518   7.396 -0.2138  0.6454 -0.1309
41309SOL    HW129890   5.231   3.458   7.469  1.1452 -1.3231 -1.3093
41309SOL    HW229891   5.337   3.496   7.369 -1.5071 -0.5694 -3.9664
41310SOL     OW29892   6.041   8.247   2.639  0.2351  0.4432  0.0732
41310SOL    HW129893   6.059   8.154   2.655 -0.8014 -0.2340 -2.3256
41310SOL    HW229894   6.122   8.291   2.666  0.5757 -1.0515  1.7325
41311SOL     OW29895   4.384   3.200   0.097 -0.2809  0.1731  0.2833
41311SOL    HW129896   4.300   3.236   0.126 -0.4602  0.5897 -0.6930
41311SOL    HW229897   4.389   3.224   0.004 -0.1610 -1.8689 -0.2929
41312SOL     OW29898   2.157   5.229   2.229 -0.3039  0.2625 -0.4919
41312SOL    HW129899   2.230   5.226   2.168 -0.9528  2.0177 -1.4104
41312SOL    HW229900   2.179   5.301   2.289 -0.1500 -0.7874  0.7758
41313SOL     OW29901  11.476   3.823   4.236 -0.1501  0.1781 -0.5330
41313SOL    HW129902  11.407   3.780   4.185 -0.0359 -0.2557 -0.3244
41313SOL    HW229903  11.541   3.755   4.252 -0.9226 -0.1427  1.5408
41314SOL     OW29904   7.049   2.904   8.290  0.5257  0.0966 -0.1357
41314SOL    HW129905   7.138   2.874   8.270  0.5645  0.2912 -0.2585
41314SOL    HW229906   7.013   2.835   8.345  0.2026 -0.7677 -1.3758
41315SOL     OW29907   7.002   6.907   5.874 -0.3492 -0.3140 -0.1056
41315SOL    HW129908   6.910   6.898   5.850 -0.2093 -0.2137 -0.7073
41315SOL    HW229909   7.004   6.979   5.937 -0.5795  0.2702 -0.7499
41316SOL     OW29910   0.968   1.421   8.486  0.0149  0.2135  0.2941
41316SOL    HW129911   1.039   1.485   8.489  1.0305 -0.8435 -0.6109
41316SOL    HW229912   0.987   1.361   8.558  0.5664 -0.6004 -0.5212
41317SOL     OW29913   5.223   8.176   2.183 -0.1878 -0.5809 -0.2262
41317SOL    HW129914   5.215   8.264   2.145  0.3547 -0.5412 -0.2546
41317SOL    HW229915   5.295   8.135   2.134 -0.5758 -1.1193 -0.3596
41318SOL     OW29916   7.443   8.077  10.010 -0.0629 -0.1549 -0.6176
41318SOL    HW129917   7.395   7.993  10.011  0.9713 -0.7690 -1.0293
41318SOL    HW229918   7.461   8.095  10.102  1.8486 -1.6795 -0.6220
41319SOL     OW29919   1.641   1.854   9.814  0.1795 -0.7559 -0.0323
41319SOL    HW129920   1.668   1.763   9.799 -0.1135 -0.7898 -0.3670
41319SOL    HW229921   1.650   1.867   9.908 -0.3938 -1.3353  0.1080
41320SOL     OW29922   8.570  10.211  12.174 -0.0473  0.1556 -0.1005
41320SOL    HW129923   8.516  10.177  12.245 -0.4166  0.4978 -0.2143
41320SOL    HW229924   8.600  10.133  12.128 -1.6317 -0.0129 -0.9143
41321SOL     OW29925   8.508  11.533   1.246 -0.0751 -0.2249 -0.0117
41321SOL    HW129926   8.426  11.498   1.211  0.2254 -0.0521 -0.8974
41321SOL    HW229927   8.510  11.624   1.217  0.9644 -0.5354 -0.9984
41322SOL     OW29928   2.953   3.505   3.213 -0.1164 -0.5553 -0.3790
41322SOL    HW129929   2.989   3.433   3.265 -0.0522  1.2871  2.3655
41322SOL    HW229930   2.858   3.494   3.218 -0.0836 -1.0944 -0.9549
41323SOL     OW29931  10.067   3.226   9.245  0.1341  0.5987 -0.3580
41323SOL    HW129932  10.156   3.223   9.283 -0.4261 -1.3167  0.9732
41323SOL    HW229933  10.075   3.179   9.163  0.3373  0.3149 -0.1793
41324SOL     OW29934   4.428   1.480  10.360 -0.2145  0.1366 -1.1850
41324SOL    HW129935   4.372   1.453  10.433  0.1814 -1.6728 -1.5033
41324SOL    HW229936   4.443   1.574  10.375 -2.0629  0.3270 -0.2694
41325SOL     OW29937   7.566  10.723   7.712 -0.2271  0.3275 -0.1160
41325SOL    HW129938   7.589  10.815   7.696  0.8643 -0.0500 -0.8412
41325SOL    HW229939   7.563  10.715   7.807 -3.0357  1.7391  0.0188
41326SOL     OW29940   7.044  11.395   3.161 -0.2190 -0.3463 -0.3040
41326SOL    HW129941   6.993  11.314   3.162 -0.7608 -0.0195  0.9590
41326SOL    HW229942   6.980  11.463   3.142 -0.0074 -0.0743 -0.0556
41327SOL     OW29943   8.098  11.385   8.488 -0.1852  0.4463 -0.0423
41327SOL    HW129944   8.126  11.475   8.472 -0.1021  0.5455  0.6375
41327SOL    HW229945   8.163  11.351   8.549  1.5451 -1.0338 -2.5449
41328SOL     OW29946   3.661   6.394   2.287 -0.4457 -0.1945  0.2248
41328SOL    HW129947   3.620   6.479   2.305 -0.1572  0.2471 -1.0534
41328SOL    HW229948   3.679   6.357   2.373 -3.0410 -0.1941  0.8372
41329SOL     OW29949   2.820  11.734   6.921 -0.2993  0.7729 -0.1111
41329SOL    HW129950   2.810  11.829   6.925 -0.3555  0.8156 -1.0949
41329SOL    HW229951   2.913  11.719   6.937  0.1757  1.1708 -2.2268
41330SOL     OW29952   8.615   7.268  11.649  0.2869 -0.4712 -0.2670
41330SOL    HW129953   8.551   7.321  11.696  0.6379 -0.1275 -0.1715
41330SOL    HW229954   8.627   7.190  11.703  0.6948 -0.0743  0.2187
41331SOL     OW29955  10.537   1.892  10.959  0.4114 -0.0067  0.5133
41331SOL    HW129956  10.494   1.878  10.874 -0.0008  1.5787  0.4360
41331SOL    HW229957  10.553   1.804  10.992  0.1921 -0.6565 -1.0175
41332SOL     OW29958   1.635   5.479   1.911  0.7178  0.1839  0.5074
41332SOL    HW129959   1.643   5.485   1.816  3.1874 -0.9465  0.5670
41332SOL    HW229960   1.623   5.570   1.940 -0.4024  0.5019 -0.8808
41333SOL     OW29961  12.362   7.467  11.000  0.1944 -0.8895 -0.4014
41333SOL    HW129962  12.426   7.493  10.933  0.7485 -0.6521  0.2190
41333SOL    HW229963  12.402   7.491  11.083 -0.3332 -1.5375  0.0495
41334SOL     OW29964   9.689   6.611   8.941  0.1591  0.3208  0.0720
41334SOL    HW129965   9.676   6.625   9.035 -1.4694  0.9954 -0.2194
41334SOL    HW229966   9.774   6.651   8.923  0.0395  1.0905  1.0762
41335SOL     OW29967   8.198   3.943   3.170  0.5238 -0.1838  0.6701
41335SOL    HW129968   8.204   3.857   3.128 -1.5230 -1.0357  1.9552
41335SOL    HW229969   8.268   3.943   3.235  0.9982 -0.5813  0.1620
41336SOL     OW29970   2.626   1.713   4.274 -0.6764 -0.6432 -0.3486
41336SOL    HW129971   2.627   1.808   4.274  1.1037 -0.5436 -2.9895
41336SOL    HW229972   2.715   1.687   4.298 -0.6108 -1.5255 -1.4100
41337SOL     OW29973   3.217  12.337  12.105 -0.2125  0.2360  0.1626
41337SOL    HW129974   3.271  12.364  12.180 -0.5947  0.6638  0.2920
41337SOL    HW229975   3.239  12.246  12.090 -0.8133 -0.1354  1.4031
41338SOL     OW29976   6.822   9.458   1.592  0.1110  0.0104 -0.2132
41338SOL    HW129977   6.782   9.539   1.624 -0.2320 -0.0697 -0.4326
41338SOL    HW229978   6.747   9.401   1.573  0.2401  0.4232 -2.1702
41339SOL     OW29979   5.872   4.240   1.817 -0.2901  0.3482 -0.7262
41339SOL    HW129980   5.794   4.219   1.766 -0.7305  1.0370 -0.3452
41339SOL    HW229981   5.907   4.320   1.778  0.3014 -0.0182 -0.9691
41340SOL     OW29982   1.854   7.657   9.156 -0.6432 -0.1255  0.3070
41340SOL    HW129983   1.825   7.582   9.208  2.4954 -1.9669 -0.3684
41340SOL    HW229984   1.839   7.629   9.065 -1.7295  1.1594  0.0493
41341SOL     OW29985   5.782   6.734   3.548 -0.5352  0.2472 -0.0730
41341SOL    HW129986   5.846   6.803   3.536 -1.6643  1.2564 -0.4640
41341SOL    HW229987   5.772   6.727   3.643  1.3192 -1.0679  0.0817
41342SOL     OW29988   2.456  11.127   5.323 -0.0882 -0.1491 -0.3227
41342SOL    HW129989   2.435  11.211   5.282  2.3228  0.2966 -0.8415
41342SOL    HW229990   2.522  11.088   5.266  1.2032 -0.8739  1.5504
41343SOL     OW29991  11.642   0.675   6.088  0.2771 -0.0189  0.1310
41343SOL    HW129992  11.730   0.705   6.111 -0.0839  1.3528 -0.1911
41343SOL    HW229993  11.617   0.616   6.159  0.4044  1.6897  1.6662
41344SOL     OW29994   6.935  11.378   7.048 -0.5514  0.4155 -0.6317
41344SOL    HW129995   6.967  11.352   6.961 -0.5338  0.4221 -0.6275
41344SOL    HW229996   6.858  11.323   7.063 -0.2187 -0.0000 -0.4064
41345SOL     OW29997   5.400   1.607   0.737  0.3785  0.2415 -0.0081
41345SOL    HW129998   5.404   1.694   0.697  0.0853 -0.2303 -1.0886
41345SOL    HW229999   5.431   1.621   0.827  1.8998  1.1808 -0.6292
41346SOL     OW30000  10.613   5.335   3.887  0.1998  0.2277  0.0888
41346SOL    HW130001  10.671   5.394   3.839  1.2822  0.1250  1.2040
41346SOL    HW230002  10.550   5.305   3.822  1.4647  0.2550 -1.2098
41347SOL     OW30003   7.945  11.524   1.520 -0.5144 -0.3562  0.8520
41347SOL    HW130004   7.871  11.554   1.467 -0.6686 -0.9937  0.6916
41347SOL    HW230005   8.012  11.501   1.455 -0.5880 -0.8344  0.9388
41348SOL     OW30006   4.470   7.700   6.881  0.2474 -0.3257 -0.0084
41348SOL    HW130007   4.451   7.608   6.899 -0.7677  0.0546  0.9689
41348SOL    HW230008   4.428   7.718   6.797 -1.5644 -0.1784  0.8938
41349SOL     OW30009   0.578   3.566   8.334 -0.1903  0.5229  0.1489
41349SOL    HW130010   0.611   3.529   8.253  1.6852  0.7554  0.7526
41349SOL    HW230011   0.495   3.522   8.349 -0.3682  0.1803 -1.6627
41350SOL     OW30012   0.638   6.357   4.175  0.1991 -0.1402 -0.0869
41350SOL    HW130013   0.560   6.336   4.227  0.3922 -1.1552 -0.1796
41350SOL    HW230014   0.709   6.313   4.220  0.6115  0.2404 -0.3653
41351SOL     OW30015   9.080   5.161   7.041 -0.7319 -0.2013  0.3480
41351SOL    HW130016   9.049   5.141   6.953  0.1162  0.5789 -0.1532
41351SOL    HW230017   9.106   5.254   7.037  0.6059 -0.5143  1.0204
41352SOL     OW30018   8.066   9.116   3.764 -0.2445  0.1360 -0.1635
41352SOL    HW130019   8.079   9.022   3.757 -0.9371  0.0441 -0.2386
41352SOL    HW230020   7.979   9.126   3.803  1.3403  0.6789  3.7111
41353SOL     OW30021   2.829   6.378   4.945 -0.1054  0.1818 -0.2487
41353SOL    HW130022   2.786   6.292   4.949 -1.8458  0.9937 -0.6694
41353SOL    HW230023   2.841   6.402   5.037  0.0416 -0.3490 -0.1240
41354SOL     OW30024   7.687  11.660   0.387 -0.0108  0.5653 -0.6325
41354SOL    HW130025   7.740  11.658   0.307  1.9500 -0.6898  0.6289
41354SOL    HW230026   7.614  11.601   0.368  1.3254 -1.0356 -0.9460
41355SOL     OW30027   8.440  11.581  11.238  0.1297  0.3149  0.1372
41355SOL    HW130028   8.377  11.512  11.214  0.3446 -0.2725  1.2117
41355SOL    HW230029   8.396  11.630  11.307 -0.4711  1.9766 -1.3586
41356SOL     OW30030   5.435   7.257   6.667  0.2824 -0.0748  0.4561
41356SOL    HW130031   5.382   7.184   6.698  0.7566 -0.6057  0.0296
41356SOL    HW230032   5.516   7.217   6.635 -0.3447  0.3826 -1.8868
41357SOL     OW30033   5.245   1.514   5.062 -0.4178  0.4991 -0.1021
41357SOL    HW130034   5.336   1.514   5.034  0.3423 -0.3639  2.1291
41357SOL    HW230035   5.244   1.459   5.141 -2.8128  0.7187  0.0989
41358SOL     OW30036   0.075   5.657   7.624 -0.1406  0.2726  0.4373
41358SOL    HW130037   0.051   5.749   7.612  2.6230  1.1181  0.7475
41358SOL    HW230038   0.126   5.656   7.705  2.6674 -0.8714 -1.1984
41359SOL     OW30039   7.905  11.615   8.744 -0.9313  0.1243  0.0622
41359SOL    HW130040   7.899  11.525   8.710 -1.2515  0.4524 -0.7585
41359SOL    HW230041   7.990  11.647   8.712 -1.1419  0.3639 -0.2578
41360SOL     OW30042   9.014   9.726  10.517  0.1964  0.8570 -0.0125
41360SOL    HW130043   9.089   9.718  10.458  0.6154  1.1764  0.4629
41360SOL    HW230044   9.032   9.663  10.587  0.5075  1.6075  0.6000
41361SOL     OW30045   7.967   3.890   4.606  0.4718 -0.0004 -0.5556
41361SOL    HW130046   7.940   3.812   4.654 -2.1648  0.1886 -1.5024
41361SOL    HW230047   8.039   3.927   4.657 -0.1483 -1.4508  1.5138
41362SOL     OW30048   5.551   3.913  11.010 -0.1164 -0.1937 -0.2254
41362SOL    HW130049   5.573   3.820  11.011  1.1967  0.0913  0.0416
41362SOL    HW230050   5.615   3.952  10.950  0.4073  0.7500  0.8937
41363SOL     OW30051   4.800  11.702   0.417  0.0499  0.4027 -0.2461
41363SOL    HW130052   4.712  11.667   0.430 -0.4737  1.1732 -1.5235
41363SOL    HW230053   4.819  11.684   0.325  0.5650  1.6776 -0.4114
41364SOL     OW30054   1.506  11.380   7.780  0.5196 -0.2708  0.1524
41364SOL    HW130055   1.530  11.288   7.792  1.7805  0.3227  2.7981
41364SOL    HW230056   1.571  11.413   7.718  2.1640 -0.4206  1.7241
41365SOL     OW30057   2.114   7.090   8.220 -0.1506  0.4398 -0.5892
41365SOL    HW130058   2.032   7.135   8.238  0.4023  1.8782 -1.4803
41365SOL    HW230059   2.120   7.023   8.288 -1.5469  0.9769  0.1110
41366SOL     OW30060   0.056   7.143   4.496 -0.9303 -0.2199 -0.4002
41366SOL    HW130061  -0.031   7.103   4.491 -1.2706  0.6318 -1.5153
41366SOL    HW230062   0.114   7.071   4.521 -1.9418 -0.8074  0.3283
41367SOL     OW30063   2.805   1.713   5.896  0.2106  0.5525  0.5951
41367SOL    HW130064   2.856   1.683   5.820 -0.9643  0.3079 -0.1125
41367SOL    HW230065   2.850   1.674   5.971  0.1087 -1.0403 -0.1358
41368SOL     OW30066   1.305   8.133   4.973 -0.2783 -0.0050  0.1970
41368SOL    HW130067   1.265   8.182   5.045 -0.7573 -0.8066  0.4869
41368SOL    HW230068   1.235   8.078   4.939  0.1988 -0.3475 -0.2475
41369SOL     OW30069  10.390   7.789   9.043  0.5890 -0.1767 -0.1304
41369SOL    HW130070  10.407   7.738   9.123 -0.8896 -1.7469 -0.7531
41369SOL    HW230071  10.297   7.777   9.027  0.6595  0.9680 -1.5402
41370SOL     OW30072   7.986  10.805   5.992 -0.0942  0.0936 -0.1025
41370SOL    HW130073   7.971  10.890   5.950 -0.9930 -0.0934 -0.1804
41370SOL    HW230074   8.038  10.755   5.929 -1.7344 -0.3154 -1.1757
41371SOL     OW30075   4.674   0.166   9.372 -0.4771  0.6883  0.3658
41371SOL    HW130076   4.651   0.116   9.294  0.0001 -2.1726  1.9244
41371SOL    HW230077   4.593   0.171   9.422  0.1401 -1.7146  1.7906
41372SOL     OW30078   4.036   5.937   0.657  0.2820  0.7827  0.1515
41372SOL    HW130079   4.012   6.028   0.673  0.6414  1.4380 -2.6597
41372SOL    HW230080   3.969   5.904   0.597  1.1612 -0.2791 -0.2779
41373SOL     OW30081   7.798   4.988   0.112 -0.1943  0.4530  0.8499
41373SOL    HW130082   7.843   4.949   0.187 -0.6496 -2.5071 -0.2693
41373SOL    HW230083   7.869   5.013   0.052  0.0999 -0.2402  0.8951
41374SOL     OW30084  11.675   3.652   4.280 -0.0103 -0.1005  0.8733
41374SOL    HW130085  11.659   3.563   4.312 -0.5866  0.3865  2.0033
41374SOL    HW230086  11.748   3.684   4.333  0.0918  0.1533  0.5833
41375SOL     OW30087   8.606   8.421   8.227  0.3648  0.5987  0.2755
41375SOL    HW130088   8.690   8.377   8.217  0.7625  1.3491  0.2598
41375SOL    HW230089   8.627   8.504   8.269 -0.3697  0.7937  0.2742
41376SOL     OW30090  12.462   3.121   0.057 -0.6536 -1.1312 -0.0423
41376SOL    HW130091  12.506   3.188   0.110 -1.0612 -0.7834 -0.1343
41376SOL    HW230092  12.462   3.157  -0.031 -3.2007 -0.0065  0.3245
41377SOL     OW30093   5.680   6.964   2.138 -0.0389 -0.2916  0.0652
41377SOL    HW130094   5.623   6.906   2.189  0.0031 -1.3556 -1.0468
41377SOL    HW230095   5.769   6.938   2.162 -0.0004  0.6182  0.9718
41378SOL     OW30096  11.926   8.150  10.620  0.3114  0.6070 -0.0661
41378SOL    HW130097  11.999   8.154  10.558 -1.2350  0.4824 -1.9877
41378SOL    HW230098  11.912   8.241  10.647  0.5912  0.7470 -0.3876
41379SOL     OW30099   9.517   9.457   1.386 -0.6718 -0.2019  0.0533
41379SOL    HW130100   9.568   9.530   1.351 -0.2698 -0.7613 -0.5581
41379SOL    HW230101   9.477   9.491   1.466  0.5318  0.3166  0.4604
41380SOL     OW30102   4.838   7.411   4.350 -0.4074  0.2715  0.1046
41380SOL    HW130103   4.820   7.444   4.438  0.1573  1.6371 -0.2616
41380SOL    HW230104   4.894   7.478   4.310  0.5493 -1.0092 -0.7994
41381SOL     OW30105   6.449  11.295   9.712  0.4154 -0.0146  0.2215
41381SOL    HW130106   6.369  11.330   9.752  0.6064  0.2242  0.3956
41381SOL    HW230107   6.503  11.268   9.786  0.8752  0.6600  0.1384
41382SOL     OW30108   0.247   4.585  11.977  0.3053 -0.2611  0.7765
41382SOL    HW130109   0.219   4.635  12.054 -1.0334  0.3386 -0.0533
41382SOL    HW230110   0.321   4.533  12.007  1.8132  2.2544  1.7085
41383SOL     OW30111   5.805   3.615  12.316 -0.5583 -0.2926  0.4311
41383SOL    HW130112   5.824   3.609  12.410 -0.6493 -0.9246  0.4126
41383SOL    HW230113   5.710   3.630  12.313 -0.4722  0.2926  0.4498
41384SOL     OW30114   0.566   7.016  10.689 -0.5974  0.2984  0.0407
41384SOL    HW130115   0.494   7.010  10.626 -0.2467  1.2560 -0.4739
41384SOL    HW230116   0.523   7.033  10.773 -0.9484  2.4481 -0.5022
41385SOL     OW30117   8.617  11.603   8.841 -0.1101 -0.0478 -0.0927
41385SOL    HW130118   8.626  11.691   8.805 -0.5867  0.5788  1.2498
41385SOL    HW230119   8.703  11.563   8.828 -0.3007  0.0894 -1.9910
41386SOL     OW30120   4.970  12.238   1.136 -0.5828 -0.1492 -0.7257
41386SOL    HW130121   5.017  12.320   1.144  2.3206 -1.7967  0.9689
41386SOL    HW230122   5.032  12.172   1.167 -3.8467 -2.6398  1.1289
41387SOL     OW30123   9.883   2.544   1.797 -0.4229 -0.6032 -0.1536
41387SOL    HW130124   9.840   2.459   1.806 -0.4887 -0.4615  0.9533
41387SOL    HW230125   9.909   2.547   1.705 -2.8362 -0.6644 -0.9065
41388SOL     OW30126  11.128   1.175   3.645 -0.4358 -0.0515 -0.3705
41388SOL    HW130127  11.159   1.096   3.690  1.0493 -0.2488 -1.6390
41388SOL    HW230128  11.033   1.170   3.651 -0.3262 -0.9470  1.2113
41389SOL     OW30129  10.260   3.678  11.336 -0.0758  0.2809  0.3393
41389SOL    HW130130  10.169   3.660  11.312 -0.9072  1.5120  2.2903
41389SOL    HW230131  10.299   3.592  11.347 -0.5342 -0.2930 -1.9998
41390SOL     OW30132   5.115   6.224  11.761  0.2405 -0.3132  0.4149
41390SOL    HW130133   5.105   6.256  11.672  4.1786  0.8522  0.2251
41390SOL    HW230134   5.032   6.245  11.803 -1.6677 -0.6834 -2.8253
41391SOL     OW30135  12.087   6.036   4.059 -0.1762 -0.0709 -0.1704
41391SOL    HW130136  12.045   5.956   4.089  1.8667 -1.3256 -0.5034
41391SOL    HW230137  12.037   6.062   3.981 -1.1590 -0.7077  0.2261
41392SOL     OW30138   6.617  10.546  10.735  0.4702 -0.1303 -0.6359
41392SOL    HW130139   6.529  10.544  10.772  0.5908  0.5051 -0.2957
41392SOL    HW230140   6.646  10.455  10.738 -0.4047 -0.4508 -1.3260
41393SOL     OW30141   9.040   3.171  10.324 -0.5136  0.5368 -0.2563
41393SOL    HW130142   9.065   3.262  10.339 -0.4892  0.4611  0.1775
41393SOL    HW230143   9.022   3.166  10.230 -1.1636  1.1501 -0.1743
41394SOL     OW30144   4.118   2.408   2.314  0.0687 -0.4649  0.5657
41394SOL    HW130145   4.156   2.390   2.228 -1.7604  3.1295 -1.2343
41394SOL    HW230146   4.025   2.391   2.302 -0.8295  3.5073  0.4677
41395SOL     OW30147   9.009   9.449   1.219 -0.0635  0.0905  0.6548
41395SOL    HW130148   8.985   9.357   1.213  0.8637 -0.0710 -1.0081
41395SOL    HW230149   8.926   9.496   1.210 -0.8378 -0.5398  3.4854
41396SOL     OW30150   7.578   6.242   7.525 -0.1790 -0.2173 -0.0556
41396SOL    HW130151   7.546   6.200   7.445  0.0451 -2.1988  0.8176
41396SOL    HW230152   7.638   6.309   7.495  0.1925 -1.1794 -1.5649
41397SOL     OW30153   0.338   3.474  11.599  0.4325 -0.1233  0.3526
41397SOL    HW130154   0.286   3.455  11.521  0.7874 -0.2375  0.1412
41397SOL    HW230155   0.307   3.411  11.664  0.4335 -0.3138  0.1699
41398SOL     OW30156   0.391   6.203   0.333  0.4223  0.0603  0.1506
41398SOL    HW130157   0.451   6.198   0.407  1.1754  0.0181 -0.4475
41398SOL    HW230158   0.434   6.153   0.264 -2.4648 -4.1965  1.0881
41399SOL     OW30159   7.041  11.636  12.166  0.1375 -0.6242  0.5209
41399SOL    HW130160   7.060  11.643  12.072 -0.9806 -0.1565  0.3211
41399SOL    HW230161   7.012  11.545  12.177 -0.0433 -0.5864  0.3571
41400SOL     OW30162   2.934   0.488   0.796  0.2550  0.3908 -0.6547
41400SOL    HW130163   2.852   0.528   0.825 -1.2882 -0.8713 -2.9845
41400SOL    HW230164   2.981   0.560   0.754  1.0192  1.4294  1.7978
41401SOL     OW30165   7.260  10.431   7.969 -0.0714 -0.7250  0.4754
41401SOL    HW130166   7.328  10.430   8.035 -0.3034 -0.0761  0.7318
41401SOL    HW230167   7.178  10.424   8.018 -0.2541 -0.0586  0.2802
41402SOL     OW30168  11.305   2.234   1.230  0.3788 -0.2213 -0.0075
41402SOL    HW130169  11.389   2.245   1.275  1.3680 -0.3418 -1.7216
41402SOL    HW230170  11.327   2.188   1.149 -1.2076  0.5241 -0.9195
41403SOL     OW30171   1.807   3.786   9.456 -0.1650  0.3196  0.4838
41403SOL    HW130172   1.769   3.722   9.395  0.9092 -0.9010  1.0708
41403SOL    HW230173   1.748   3.784   9.532 -1.0495  1.2579 -0.1387
41404SOL     OW30174   6.723   3.196   5.315  0.0158 -0.2437  1.0388
41404SOL    HW130175   6.695   3.214   5.405 -0.8449 -0.5834  0.8552
41404SOL    HW230176   6.654   3.237   5.261 -0.4685 -1.6242  0.5729
41405SOL     OW30177   3.091   4.511   7.449  0.8610 -0.3894 -0.2482
41405SOL    HW130178   3.152   4.450   7.490 -1.7621 -3.4627 -0.5547
41405SOL    HW230179   3.051   4.461   7.377 -1.8537  1.4546 -0.1825
41406SOL     OW30180   9.708   4.433   5.277  0.1168  0.3980 -0.5335
41406SOL    HW130181   9.801   4.452   5.266 -0.1128  2.8980  0.9462
41406SOL    HW230182   9.703   4.377   5.354  0.4270 -0.6778 -1.2727
41407SOL     OW30183   7.708   5.378   9.463 -1.0092  0.0904 -0.2397
41407SOL    HW130184   7.719   5.454   9.407 -0.2704  0.5744  0.5570
41407SOL    HW230185   7.625   5.394   9.509 -0.2494  1.0188  0.8424
41408SOL     OW30186   8.599   7.433   3.052 -0.0980 -0.7118  0.5310
41408SOL    HW130187   8.659   7.419   2.979  0.7634  2.0075  0.6062
41408SOL    HW230188   8.538   7.500   3.020 -1.2650 -1.2642  1.5013
41409SOL     OW30189   6.911   5.265   4.515 -0.5231  0.4939  0.0344
41409SOL    HW130190   6.868   5.311   4.443  1.3308  0.1043 -1.4065
41409SOL    HW230191   7.002   5.294   4.510  0.2560 -1.7070  0.3948
41410SOL     OW30192   4.011   7.721  12.158 -0.1329  0.2255 -0.2332
41410SOL    HW130193   4.037   7.781  12.228  2.4218 -1.6310  0.5504
41410SOL    HW230194   4.040   7.635  12.189 -2.1404 -1.2004 -2.0505
41411SOL     OW30195  11.191   7.788   6.337 -0.1414  0.2752 -0.5548
41411SOL    HW130196  11.286   7.792   6.338 -0.0236 -1.3812 -1.1820
41411SOL    HW230197  11.164   7.844   6.265  0.5460 -1.1955 -2.0164
41412SOL     OW30198  11.967  10.806   5.893  0.0961  0.4494  0.1891
41412SOL    HW130199  11.986  10.800   5.987  1.1176  0.3386 -0.0217
41412SOL    HW230200  12.000  10.724   5.856 -1.2258  0.0253 -0.1333
41413SOL     OW30201   0.312  12.148   2.473 -0.8163 -0.2561 -0.6912
41413SOL    HW130202   0.381  12.207   2.443 -0.8760 -0.0819 -0.4891
41413SOL    HW230203   0.348  12.106   2.550 -1.5346  1.0711  0.4279
41414SOL     OW30204   1.736   1.394  11.032 -0.6885 -0.1165  0.2965
41414SOL    HW130205   1.647   1.365  11.055 -0.6696 -0.6842 -0.2998
41414SOL    HW230206   1.794   1.336  11.082 -0.6428  0.6038  1.1009
41415SOL     OW30207  10.289   1.227   6.391  0.4382 -0.1012  0.6474
41415SOL    HW130208  10.334   1.258   6.313 -1.1028 -1.0562 -0.7003
41415SOL    HW230209  10.286   1.132   6.380 -0.5811 -0.1715  1.4159
41416SOL     OW30210   0.249   3.127   2.268 -0.1360  0.1299 -0.7627
41416SOL    HW130211   0.341   3.152   2.265 -0.2271  0.3425 -2.0191
41416SOL    HW230212   0.221   3.148   2.357  0.4416  2.1532 -1.0139
41417SOL     OW30213   3.783   1.591   8.140  0.2945 -0.5343 -0.9301
41417SOL    HW130214   3.702   1.580   8.190 -0.0739 -0.4071 -1.4928
41417SOL    HW230215   3.795   1.685   8.133  0.9149 -0.5400 -0.1909
41418SOL     OW30216   0.563   5.810   9.552  0.0938  0.2338 -0.1715
41418SOL    HW130217   0.623   5.735   9.554  1.2421  1.0954 -0.8607
41418SOL    HW230218   0.604   5.875   9.610 -0.5177  0.5918 -0.1333
41419SOL     OW30219   6.181   6.586   2.377  0.4332 -0.0671  0.4625
41419SOL    HW130220   6.274   6.578   2.396  0.3933  0.7975  1.0631
41419SOL    HW230221   6.147   6.646   2.443 -0.4881 -0.0998  0.0474
41420SOL     OW30222   2.851   0.427   6.975  0.4055  0.2037 -0.2655
41420SOL    HW130223   2.761   0.401   6.994  0.0992  2.4933  1.8761
41420SOL    HW230224   2.903   0.384   7.042  1.5117 -3.5308 -3.1716
41421SOL     OW30225   4.813   4.526   5.311 -0.0632 -0.6522  0.3749
41421SOL    HW130226   4.856   4.536   5.227 -1.1895  2.4379  0.0346
41421SOL    HW230227   4.723   4.555   5.296 -1.3246 -3.3947  1.8822
41422SOL     OW30228   6.842   0.587   6.788 -0.6110 -0.4531 -0.1507
41422SOL    HW130229   6.923   0.638   6.792 -0.4038 -0.8108  0.2494
41422SOL    HW230230   6.773   0.649   6.813 -0.4526 -0.1786 -0.3850
41423SOL     OW30231  11.378   2.296   5.807  0.1235  0.6152 -0.3524
41423SOL    HW130232  11.312   2.334   5.750 -0.0267  0.7447 -0.0916
41423SOL    HW230233  11.462   2.325   5.770  0.0472  0.2055 -0.8557
41424SOL     OW30234   5.913   4.272   3.594  0.3479 -0.0456  0.0568
41424SOL    HW130235   5.879   4.225   3.670  1.6331 -0.1358  0.6166
41424SOL    HW230236   5.852   4.344   3.580 -0.9877 -1.1755 -0.0653
41425SOL     OW30237   6.383   5.590   2.969 -0.2154  0.0543 -0.1076
41425SOL    HW130238   6.476   5.582   2.990 -0.3393 -1.8853 -0.0622
41425SOL    HW230239   6.381   5.624   2.880  0.4283  2.8176  0.8347
41426SOL     OW30240   5.876   1.955   7.448 -0.2339 -0.5071 -0.0787
41426SOL    HW130241   5.912   2.006   7.521  0.5221 -0.7702 -0.2590
41426SOL    HW230242   5.898   1.865   7.468  1.8119 -0.4242 -1.5995
41427SOL     OW30243   1.271   2.107   4.509 -0.1339  0.5715  0.2969
41427SOL    HW130244   1.314   2.026   4.480 -0.2561  0.9268 -0.9052
41427SOL    HW230245   1.186   2.077   4.543 -0.3894  0.2405 -0.6086
41428SOL     OW30246   2.726  11.529   0.127  0.1838  0.0276  0.3698
41428SOL    HW130247   2.636  11.508   0.151  0.1435 -1.2757 -0.7772
41428SOL    HW230248   2.719  11.597   0.060  0.0272 -0.2497  0.1018
41429SOL     OW30249   7.730   2.053   6.405 -0.7987  0.0896 -0.7010
41429SOL    HW130250   7.767   1.966   6.393 -3.5270 -1.1823 -0.8293
41429SOL    HW230251   7.764   2.105   6.331  2.2355 -0.2523  0.3231
41430SOL     OW30252   5.459   4.001   1.356  0.3832 -0.4080  0.7836
41430SOL    HW130253   5.523   3.992   1.286  0.2830  1.5120  0.4137
41430SOL    HW230254   5.376   3.976   1.316  0.4743 -0.2511  0.4996
41431SOL     OW30255   6.221   4.484   3.669 -0.1483 -0.1850  0.2738
41431SOL    HW130256   6.295   4.495   3.730 -0.0873  0.2761  0.1148
41431SOL    HW230257   6.245   4.535   3.592  0.2687 -1.6182 -0.5936
41432SOL     OW30258   9.426   6.660   7.953  0.1475  0.2396  0.3614
41432SOL    HW130259   9.384   6.573   7.949  1.0355 -0.1721 -1.1891
41432SOL    HW230260   9.478   6.658   8.033  0.1456 -0.6718  0.3567
41433SOL     OW30261   8.321   8.886   5.694  0.5049  0.4627  0.2347
41433SOL    HW130262   8.336   8.864   5.602 -0.3225  0.4436  0.0992
41433SOL    HW230263   8.296   8.803   5.735 -2.9332  1.0632 -0.3413
41434SOL     OW30264   9.822   4.235   8.947  0.0667 -0.4004  0.0370
41434SOL    HW130265   9.909   4.205   8.922  1.6333  2.8050  1.2060
41434SOL    HW230266   9.836   4.291   9.023 -2.8422  1.2807 -0.4974
41435SOL     OW30267  12.293   6.767  11.265  0.1976  0.3244  0.2991
41435SOL    HW130268  12.343   6.718  11.200  0.8525  0.6649  0.5331
41435SOL    HW230269  12.224   6.810  11.214 -0.0057 -0.3352  0.0068
41436SOL     OW30270   3.048   3.790   6.890  0.0867  0.2287  0.2022
41436SOL    HW130271   2.967   3.775   6.843 -0.0640 -0.2849  0.6265
41436SOL    HW230272   3.073   3.705   6.926  0.0946  0.6397  1.2183
41437SOL     OW30273   9.790   0.392   2.903 -0.8513 -0.4674  0.4029
41437SOL    HW130274   9.767   0.475   2.946 -1.9609  0.4580 -1.7891
41437SOL    HW230275   9.883   0.399   2.884 -0.4370 -0.7268  2.2257
41438SOL     OW30276   0.253   5.790   6.101 -0.8555 -0.3727 -0.0172
41438SOL    HW130277   0.234   5.706   6.060  3.9902 -1.8568  0.2203
41438SOL    HW230278   0.269   5.849   6.027 -0.6663 -0.6385 -0.1879
41439SOL     OW30279   0.825   2.975   1.201  0.2812 -0.4147 -0.2697
41439SOL    HW130280   0.796   3.047   1.145  0.0908 -0.7283 -0.5747
41439SOL    HW230281   0.869   2.914   1.141  0.1399 -0.7181 -0.0656
41440SOL     OW30282  10.297   0.095   4.352  0.5452  0.0661  0.3998
41440SOL    HW130283  10.206   0.096   4.383  0.5874  0.6690  0.5136
41440SOL    HW230284  10.296   0.147   4.272  0.5630 -0.9536 -0.2737
41441SOL     OW30285   8.693   9.285  10.858  0.8218  0.3166 -0.0595
41441SOL    HW130286   8.655   9.373  10.855 -0.2543 -0.1671 -1.4787
41441SOL    HW230287   8.747   9.285  10.938 -0.1481  1.8512  0.6367
41442SOL     OW30288   3.816   9.514   2.786 -0.1520  0.3087 -0.0154
41442SOL    HW130289   3.728   9.488   2.757 -0.6993 -0.6067  2.2060
41442SOL    HW230290   3.823   9.606   2.762 -2.1488  0.6677  0.5840
41443SOL     OW30291   3.034   1.084   4.706  0.6539  0.2154 -0.2937
41443SOL    HW130292   2.953   1.033   4.714 -0.0770  1.0936 -1.6918
41443SOL    HW230293   3.085   1.060   4.783 -0.0272 -1.9576 -0.4373
41444SOL     OW30294   6.522   8.922   0.199  0.1650 -0.3881 -0.4722
41444SOL    HW130295   6.448   8.933   0.140 -0.6388 -0.5209  0.4772
41444SOL    HW230296   6.573   8.851   0.161  0.9847  1.0725 -2.2811
41445SOL     OW30297   5.577   3.859   6.597 -0.4971 -0.2232 -0.1813
41445SOL    HW130298   5.582   3.876   6.503 -1.4851 -1.4560 -0.4967
41445SOL    HW230299   5.618   3.935   6.638 -0.4107  0.5239 -1.5944
41446SOL     OW30300   5.113   2.627   7.171 -1.1141 -0.0513 -0.2902
41446SOL    HW130301   5.067   2.562   7.119 -1.4343  0.0603 -0.1492
41446SOL    HW230302   5.205   2.601   7.166 -1.3692 -1.3392  0.9026
41447SOL     OW30303   2.934   3.286  11.837  0.5482  0.3607 -0.0591
41447SOL    HW130304   2.883   3.205  11.832 -1.8666  1.8177 -0.7911
41447SOL    HW230305   3.002   3.276  11.770  0.5217 -1.1744  0.1042
41448SOL     OW30306   5.791   8.036  12.410  0.2411 -0.6252  0.5031
41448SOL    HW130307   5.710   8.084  12.428  0.4510 -0.6076  1.4490
41448SOL    HW230308   5.861   8.097  12.432  0.5311 -0.5614 -0.5243
41449SOL     OW30309   3.149   6.447   5.504  0.3954  0.5223 -0.1799
41449SOL    HW130310   3.081   6.386   5.477  1.7356 -0.4799 -1.4379
41449SOL    HW230311   3.111   6.494   5.579 -1.2329 -0.7694 -0.1464
41450SOL     OW30312   8.360   9.126   8.201  0.2452  0.2322  0.0577
41450SOL    HW130313   8.435   9.170   8.162 -0.6415 -0.6781 -2.9744
41450SOL    HW230314   8.300   9.196   8.224  0.0401  0.8226 -2.0559
41451SOL     OW30315   2.542   8.228   9.115  0.4867  0.0861  0.3765
41451SOL    HW130316   2.490   8.199   9.190 -0.0700  0.7865  0.2636
41451SOL    HW230317   2.520   8.166   9.045  1.0082 -0.5700  0.7815
41452SOL     OW30318   1.170   8.612   9.078  0.9613 -0.0307  0.1308
41452SOL    HW130319   1.103   8.577   9.136  0.0637  0.2895 -0.7002
41452SOL    HW230320   1.228   8.538   9.061 -0.7623 -1.1049 -1.4095
41453SOL     OW30321   0.094  11.021   3.610  0.1382 -0.1193  0.3591
41453SOL    HW130322   0.146  10.988   3.684  2.5874  1.4129 -0.5588
41453SOL    HW230323   0.037  11.087   3.649  2.0938  1.3851  0.8415
41454SOL     OW30324  10.937   5.192  10.529 -0.4207 -0.1819 -0.1728
41454SOL    HW130325  10.908   5.259  10.468  0.6371  1.1064  0.6959
41454SOL    HW230326  11.030   5.210  10.543 -0.4255 -0.9952  1.1112
41455SOL     OW30327   6.529   8.942   9.062 -0.3707  0.2240  0.1806
41455SOL    HW130328   6.525   8.874   8.995 -2.7190 -0.2889  0.7796
41455SOL    HW230329   6.607   8.920   9.113 -0.5145 -1.4355 -0.2513
41456SOL     OW30330   8.525   8.794   8.749  0.4256  0.4963 -1.2420
41456SOL    HW130331   8.596   8.768   8.807 -1.5979  1.8243  2.1121
41456SOL    HW230332   8.539   8.888   8.733 -1.2413  1.1610  0.7356
41457SOL     OW30333   5.818   0.649   0.919  0.0178  0.4574 -0.0202
41457SOL    HW130334   5.806   0.700   0.999 -0.6475  0.2000  0.0512
41457SOL    HW230335   5.736   0.601   0.909 -0.0480  0.7600 -1.0510
41458SOL     OW30336   2.300   3.928   2.240 -0.6255 -0.1171 -0.2209
41458SOL    HW130337   2.254   3.980   2.174 -1.6449  1.0070  1.3234
41458SOL    HW230338   2.384   3.907   2.199 -0.0919  2.8853 -0.8965
41459SOL     OW30339   4.796  11.521   7.437 -0.2080 -0.5547 -0.1410
41459SOL    HW130340   4.855  11.499   7.508  1.3980 -1.9619 -1.8118
41459SOL    HW230341   4.833  11.600   7.398 -0.0748 -0.7787 -0.4743
41460SOL     OW30342   0.567  10.411   7.855 -0.6241  0.2223 -0.2565
41460SOL    HW130343   0.487  10.408   7.907  0.0367  0.4147  0.7988
41460SOL    HW230344   0.539  10.384   7.767 -1.7712 -0.0705  0.1740
41461SOL     OW30345   1.617   8.346   0.923  0.5695  0.4146 -0.9583
41461SOL    HW130346   1.704   8.358   0.961 -0.1736  0.8957  0.6806
41461SOL    HW230347   1.614   8.254   0.900  1.7568  0.5374 -1.6950
41462SOL     OW30348   9.424   2.885   5.999  0.3328  0.4860  0.1310
41462SOL    HW130349   9.478   2.867   6.076  1.1103 -0.0382 -0.5314
41462SOL    HW230350   9.484   2.924   5.936 -0.0217 -0.1944 -0.6486
41463SOL     OW30351   0.566  10.731   7.993 -0.4701  0.6785  1.2632
41463SOL    HW130352   0.542  10.641   7.970  0.9447  0.5450  0.2106
41463SOL    HW230353   0.489  10.783   7.969 -0.3651  0.0718 -0.5496
41464SOL     OW30354   2.365   8.368   9.384  0.0675 -0.1473 -0.7195
41464SOL    HW130355   2.404   8.427   9.319  0.3567 -0.6448 -1.0092
41464SOL    HW230356   2.436   8.349   9.445 -0.6969  1.8478  0.8979
41465SOL     OW30357   1.513   0.450   4.870  0.1137 -0.5824 -0.0803
41465SOL    HW130358   1.469   0.513   4.814 -0.2851 -0.6243  0.1812
41465SOL    HW230359   1.557   0.390   4.810  1.4009  0.5593 -0.3321
41466SOL     OW30360   4.370   3.292   4.522 -0.7755 -0.9662 -0.1662
41466SOL    HW130361   4.456   3.314   4.488 -1.9986  0.1855 -2.7782
41466SOL    HW230362   4.365   3.197   4.516  0.0482 -0.9853 -0.6602
41467SOL     OW30363  11.659   3.021   1.784 -0.6361 -0.0421 -0.3161
41467SOL    HW130364  11.729   2.969   1.743  1.2297  2.2095 -0.2288
41467SOL    HW230365  11.594   3.033   1.715  0.4010  0.0938 -1.3028
41468SOL     OW30366   0.280  10.837   9.500 -0.0966  0.3392  0.2144
41468SOL    HW130367   0.232  10.876   9.427 -1.0546 -0.6280  0.3140
41468SOL    HW230368   0.307  10.751   9.467  0.8966  0.5485  0.4405
41469SOL     OW30369   6.078   5.772  10.845  0.2441 -0.2598 -0.1369
41469SOL    HW130370   6.018   5.818  10.787 -0.5528  0.0632  0.9216
41469SOL    HW230371   6.160   5.822  10.840 -0.6533  1.4563  1.1415
41470SOL     OW30372   0.848   9.687   7.839 -0.6570  0.1385  0.2927
41470SOL    HW130373   0.899   9.766   7.853  0.1237 -0.7303  3.0294
41470SOL    HW230374   0.757   9.717   7.835 -0.3554  1.2167  1.0103
41471SOL     OW30375   7.546   1.713   7.309 -0.3691 -0.3876 -1.0110
41471SOL    HW130376   7.588   1.799   7.314 -1.6544  0.3484 -2.1216
41471SOL    HW230377   7.615   1.653   7.281  1.2462 -0.3175  2.3407
41472SOL     OW30378   2.208   0.127  10.846  0.3343  0.3668 -0.0738
41472SOL    HW130379   2.208   0.128  10.750  0.1656  1.1352 -0.0687
41472SOL    HW230380   2.123   0.162  10.870 -1.3717 -3.5177  0.3603
41473SOL     OW30381   9.407   2.494   1.264  0.5349 -0.1231 -0.1433
41473SOL    HW130382   9.364   2.415   1.231  2.5968 -0.9004 -1.1272
41473SOL    HW230383   9.397   2.489   1.359 -1.7233 -0.1137 -0.3215
41474SOL     OW30384   4.360   2.794   3.151 -0.0022 -0.3732 -0.3043
41474SOL    HW130385   4.395   2.773   3.065  1.8739 -1.7769  0.7224
41474SOL    HW230386   4.330   2.710   3.186 -0.0320  0.0343  0.7004
41475SOL     OW30387   8.175   5.175  10.195  0.1329  0.0387 -0.0109
41475SOL    HW130388   8.118   5.237  10.241 -0.5856 -0.2865 -0.4495
41475SOL    HW230389   8.188   5.213  10.108  0.2918 -0.0648 -0.0334
41476SOL     OW30390   9.529   3.312   3.673 -0.8092 -0.4706  0.2414
41476SOL    HW130391   9.562   3.303   3.583  1.7027 -2.4998  1.2519
41476SOL    HW230392   9.447   3.261   3.674 -1.9219  1.1677 -1.2937
41477SOL     OW30393  11.308   4.697   6.828  0.0566  0.2189  0.2139
41477SOL    HW130394  11.257   4.642   6.768  1.2937 -0.2785 -0.4120
41477SOL    HW230395  11.244   4.730   6.890 -1.0295 -0.3951 -0.5480
41478SOL     OW30396   1.099  11.792   9.448 -0.0658  0.3945  0.0528
41478SOL    HW130397   1.146  11.805   9.531 -0.7014  0.7522  0.3576
41478SOL    HW230398   1.119  11.870   9.396 -0.5497  0.6785  0.2913
41479SOL     OW30399   6.111   9.162   8.653 -0.5134  0.0462 -0.0931
41479SOL    HW130400   6.052   9.095   8.688 -0.3162  0.1735  0.4894
41479SOL    HW230401   6.078   9.244   8.690  1.0581 -0.0593  1.6741
41480SOL     OW30402   0.469   1.438   1.377 -0.5504  0.5128  0.2651
41480SOL    HW130403   0.525   1.505   1.416 -2.4151  1.0696  2.1849
41480SOL    HW230404   0.391   1.486   1.349 -1.1691 -0.6133  0.0190
41481SOL     OW30405   2.372   3.161   1.817  0.2067 -0.5034 -0.0332
41481SOL    HW130406   2.292   3.114   1.843  0.1105 -0.7419 -0.7381
41481SOL    HW230407   2.435   3.092   1.798  1.1533 -0.3293  2.1160
41482SOL     OW30408   3.237   0.157  10.271  0.1080  0.6261  0.1383
41482SOL    HW130409   3.148   0.134  10.295  0.0904  0.5342 -0.0083
41482SOL    HW230410   3.266   0.218  10.338  0.0642  0.3700  0.3896
41483SOL     OW30411   9.519   2.842   4.168 -0.2057 -0.3370 -0.2653
41483SOL    HW130412   9.505   2.932   4.140 -0.1486  0.2486  1.4315
41483SOL    HW230413   9.556   2.850   4.256  2.1766 -1.9856 -1.0101
41484SOL     OW30414   3.448   4.400   6.689  0.2871 -0.7395 -0.4076
41484SOL    HW130415   3.502   4.321   6.685  2.5941  0.6933  0.3945
41484SOL    HW230416   3.402   4.393   6.773  2.2873 -0.2120  0.8019
41485SOL     OW30417   5.083   0.335   1.592  0.1634 -0.7044 -0.0171
41485SOL    HW130418   5.020   0.323   1.521 -0.5574  1.8700  0.1177
41485SOL    HW230419   5.048   0.407   1.644  1.6202 -1.3212  1.9169
41486SOL     OW30420  10.642   4.535   7.763 -0.2708 -0.2229 -0.0371
41486SOL    HW130421  10.554   4.561   7.735 -0.4987  0.7775  1.5135
41486SOL    HW230422  10.696   4.545   7.685 -1.5871 -1.2306 -1.1252
41487SOL     OW30423   0.651   1.681   6.657  0.1652 -0.6079  0.2578
41487SOL    HW130424   0.686   1.594   6.640 -1.4536 -1.6937  2.1304
41487SOL    HW230425   0.707   1.716   6.726 -1.0379 -1.5075  1.7635
41488SOL     OW30426   2.359   9.836   0.365 -0.5515 -0.0349  0.4377
41488SOL    HW130427   2.326   9.759   0.411  0.9773  0.0438  1.7360
41488SOL    HW230428   2.410   9.884   0.430  3.4871 -0.9761 -1.7046
41489SOL     OW30429  11.697  10.114   4.230 -0.3101  0.1581  0.0418
41489SOL    HW130430  11.615  10.067   4.245  0.5145 -1.9361 -1.5725
41489SOL    HW230431  11.752  10.052   4.182  1.2297  2.4594 -1.3588
41490SOL     OW30432   9.968  11.829   4.718  0.4268  0.1692  0.1198
41490SOL    HW130433  10.045  11.868   4.679  0.5549  0.8530  1.0269
41490SOL    HW230434   9.949  11.883   4.795  1.0560 -1.9414  1.8902
41491SOL     OW30435   9.636   7.151   2.632  0.1662  0.3287 -0.4309
41491SOL    HW130436   9.659   7.058   2.639  0.4731  0.4629  0.4310
41491SOL    HW230437   9.702   7.188   2.573  0.9901  0.3058  0.4544
41492SOL     OW30438  12.112   8.435   8.697  0.3828  0.3984  0.1151
41492SOL    HW130439  12.021   8.415   8.677  1.1310 -3.9764  0.1682
41492SOL    HW230440  12.121   8.416   8.790  0.9962  2.7534  0.5943
41493SOL     OW30441   6.181   4.352   3.416 -0.3012 -0.1365 -0.3429
41493SOL    HW130442   6.173   4.402   3.334  1.5731 -0.3409 -0.7120
41493SOL    HW230443   6.275   4.357   3.437 -0.8996  0.8675  2.4298
41494SOL     OW30444   3.247   2.335   4.273 -0.1138 -0.3130  0.5742
41494SOL    HW130445   3.196   2.405   4.232 -1.1428 -1.5776 -0.4472
41494SOL    HW230446   3.337   2.353   4.248 -0.5390 -0.1760 -1.0099
41495SOL     OW30447  11.592   6.836   9.428  0.3515 -0.5393 -0.0423
41495SOL    HW130448  11.589   6.746   9.462 -1.9637  0.1336  1.8174
41495SOL    HW230449  11.685   6.856   9.421  0.9198 -2.6247  0.7633
41496SOL     OW30450   9.827   4.623  10.485  0.1966 -0.0300 -0.1760
41496SOL    HW130451   9.766   4.640  10.557  0.6291  0.0826  0.1760
41496SOL    HW230452   9.800   4.539  10.449  0.2291 -0.2882  0.3919
41497SOL     OW30453   0.444   7.088   6.476 -0.0608 -0.3760  0.0222
41497SOL    HW130454   0.372   7.152   6.482 -0.2368 -0.4360 -1.2357
41497SOL    HW230455   0.510   7.122   6.536 -0.1282  1.0367 -0.6460
41498SOL     OW30456   5.949   1.795   5.183 -0.6522  0.1124 -0.0730
41498SOL    HW130457   6.004   1.759   5.253 -2.6162 -1.0532  0.9454
41498SOL    HW230458   5.992   1.766   5.102  0.0296 -1.1205  0.6973
41499SOL     OW30459  10.312   2.178   2.605 -0.2400 -0.0407 -0.1365
41499SOL    HW130460  10.326   2.231   2.527 -2.1329  1.9545  0.7625
41499SOL    HW230461  10.398   2.171   2.645  0.2455  1.7087 -0.7579
41500SOL     OW30462   9.393   9.999   7.648  0.0028  0.1787 -0.1569
41500SOL    HW130463   9.347   9.936   7.703 -0.5598  0.7217  0.0050
41500SOL    HW230464   9.325  10.040   7.595  0.3916  0.4748 -0.4368
41501SOL     OW30465   7.690   9.096   3.115 -0.5472  0.2889  0.1618
41501SOL    HW130466   7.634   9.077   3.039 -0.7969  1.8249 -0.0723
41501SOL    HW230467   7.629   9.126   3.183 -0.0473  2.0846 -0.1275
41502SOL     OW30468   1.434   2.762  12.194 -0.1451 -0.2616  0.7589
41502SOL    HW130469   1.414   2.759  12.100 -0.4785 -0.7507  0.8393
41502SOL    HW230470   1.365   2.710  12.234 -1.1523  1.5562  1.4897
41503SOL     OW30471  10.444   5.970   0.130 -0.4718  0.4165 -0.4603
41503SOL    HW130472  10.365   6.023   0.116 -1.7197 -1.3327 -0.3322
41503SOL    HW230473  10.463   5.933   0.043  0.2540  0.8429 -0.4958
41504SOL     OW30474   6.175   2.846  12.208 -0.4787 -0.0913  0.0407
41504SOL    HW130475   6.266   2.842  12.178 -0.2386 -0.7678  0.8109
41504SOL    HW230476   6.177   2.908  12.281 -0.8676  0.7826 -0.6730
41505SOL     OW30477  11.801  11.205  10.281 -0.0572  0.6475 -0.4995
41505SOL    HW130478  11.889  11.167  10.282 -0.4220 -0.2169  0.0140
41505SOL    HW230479  11.743  11.130  10.294 -0.7874  1.4336  0.8956
41506SOL     OW30480   5.642   7.294   0.677 -0.7150 -0.0005 -0.1305
41506SOL    HW130481   5.662   7.388   0.677  1.0391 -0.3320  0.3994
41506SOL    HW230482   5.593   7.280   0.596 -3.1643  1.7631  0.9354
41507SOL     OW30483   5.261  12.264   4.082  0.6907  0.3101  0.0720
41507SOL    HW130484   5.285  12.291   4.170  0.1128  0.4761  0.1778
41507SOL    HW230485   5.345  12.246   4.039  0.9644  0.0308  0.7147
41508SOL     OW30486   4.358   5.159   0.221  0.1663 -0.1907 -0.4757
41508SOL    HW130487   4.417   5.231   0.242  0.1111 -0.2269 -0.1959
41508SOL    HW230488   4.371   5.144   0.127 -0.5112  0.8176 -0.7545
41509SOL     OW30489   3.405   2.640   8.208  0.0533  0.4045  0.0620
41509SOL    HW130490   3.390   2.720   8.157 -1.0752  0.9014  1.1217
41509SOL    HW230491   3.333   2.582   8.181  0.0234  0.2989  0.3727
41510SOL     OW30492   9.452   7.279   9.009 -0.0139 -0.6219 -0.0089
41510SOL    HW130493   9.411   7.352   8.962  0.3879  0.9367  1.8972
41510SOL    HW230494   9.519   7.247   8.950  0.4744  1.2461 -0.5368
41511SOL     OW30495   6.728   9.249  11.340  0.0597  0.4274  0.1434
41511SOL    HW130496   6.787   9.245  11.415 -1.7798 -0.7952  1.5990
41511SOL    HW230497   6.660   9.310  11.366 -1.2108 -0.8613 -0.0130
41512SOL     OW30498   9.142  10.811   2.298 -0.4469  0.2198  0.5489
41512SOL    HW130499   9.122  10.898   2.333  0.4943  0.5388  0.3261
41512SOL    HW230500   9.093  10.807   2.216 -0.0872  0.7607  0.2941
41513SOL     OW30501   4.120   2.567   6.173 -0.4041 -0.4337 -0.0108
41513SOL    HW130502   4.123   2.650   6.124 -0.9638 -0.4983 -0.1567
41513SOL    HW230503   4.198   2.569   6.228 -0.8944  0.5990  0.6550
41514SOL     OW30504   1.176   3.489   8.917  0.3413  0.0742 -0.2997
41514SOL    HW130505   1.108   3.444   8.867 -0.7506  0.5402  0.7318
41514SOL    HW230506   1.181   3.576   8.879  1.8332 -0.5798 -1.7135
41515SOL     OW30507  12.261   3.888   6.277  0.0790  0.0485  0.5060
41515SOL    HW130508  12.260   3.836   6.357 -0.8024 -0.8576 -0.0566
41515SOL    HW230509  12.169   3.892   6.250  0.2950  0.8180 -0.1508
41516SOL     OW30510   1.673  12.490   1.134  0.3223  0.3271  0.7703
41516SOL    HW130511   1.617  12.412   1.138  0.4428  0.1234 -0.9327
41516SOL    HW230512   1.617  12.558   1.096  0.7748  0.5393  0.4792
41517SOL     OW30513   0.096   8.775   7.187 -0.0755 -0.7008 -0.1481
41517SOL    HW130514   0.106   8.856   7.237 -2.1900  0.1094 -0.9693
41517SOL    HW230515   0.108   8.706   7.253  0.5040  0.2703  0.8118
41518SOL     OW30516   8.187   3.163  10.351  0.4671 -0.1962  0.1005
41518SOL    HW130517   8.269   3.114  10.338  1.0367  0.9261 -0.6687
41518SOL    HW230518   8.201   3.210  10.434  0.2659 -0.6331  0.3879
41519SOL     OW30519   2.901   5.266  10.018 -0.3451  0.0142  0.1174
41519SOL    HW130520   2.866   5.336   9.963  0.8710 -0.6834 -1.6671
41519SOL    HW230521   2.946   5.311  10.089 -0.4404  1.0210 -0.4359
41520SOL     OW30522   3.845   4.774   3.977 -0.4918  0.1593  0.5798
41520SOL    HW130523   3.847   4.689   4.021  0.2252 -0.0110  0.2327
41520SOL    HW230524   3.931   4.812   3.994 -0.0207 -0.0960 -1.0159
41521SOL     OW30525  10.663   5.547   8.959 -0.1868  0.1516 -0.1809
41521SOL    HW130526  10.627   5.619   8.907 -0.0248  0.5847  0.2931
41521SOL    HW230527  10.587   5.496   8.986 -0.4186  0.7632  0.3737
41522SOL     OW30528   7.046  10.571   5.857 -0.2493 -0.2475 -0.4038
41522SOL    HW130529   7.113  10.614   5.911  1.2149 -2.4435 -0.3317
41522SOL    HW230530   7.086  10.488   5.832 -2.6640 -1.2813 -1.0945
41523SOL     OW30531   7.598   2.886   2.335 -0.0582  0.0988 -0.2638
41523SOL    HW130532   7.573   2.875   2.244 -1.2044  1.1869 -0.1045
41523SOL    HW230533   7.558   2.812   2.381 -1.8145  0.9972 -0.2544
41524SOL     OW30534   3.623   0.384   6.122 -0.0248  0.2763  0.8723
41524SOL    HW130535   3.570   0.412   6.047  1.5862  1.6677  0.1798
41524SOL    HW230536   3.623   0.459   6.181  2.3182  0.8932  0.1725
41525SOL     OW30537   0.888   6.682  10.994 -0.1377 -0.4412  0.1295
41525SOL    HW130538   0.961   6.703  10.937 -0.0104  2.0231  1.0564
41525SOL    HW230539   0.924   6.626  11.062  1.0748  1.0924  0.8191
41526SOL     OW30540   0.630   1.487   7.667 -0.0222 -0.2893 -0.0901
41526SOL    HW130541   0.629   1.407   7.614  0.5846  0.2579 -0.9554
41526SOL    HW230542   0.704   1.538   7.633  0.6785 -0.1134  1.6071
41527SOL     OW30543   5.044  10.813   9.980 -0.4997  0.4270 -0.2354
41527SOL    HW130544   4.999  10.867  10.044 -0.6571  0.3006 -0.2373
41527SOL    HW230545   5.016  10.847   9.895  1.2407  1.9036 -0.2897
41528SOL     OW30546  10.139   9.779   4.348  0.5726  0.4695 -0.2717
41528SOL    HW130547  10.044   9.769   4.344  0.7292 -2.3241  0.8238
41528SOL    HW230548  10.155   9.824   4.431  0.2035  1.4013 -0.6973
41529SOL     OW30549   2.374  11.071   2.595 -0.7025  0.2052 -0.2057
41529SOL    HW130550   2.435  11.107   2.660 -0.5555 -1.5240  0.6690
41529SOL    HW230551   2.430  11.018   2.538 -0.9812  0.9270 -1.1519
41530SOL     OW30552  10.375   3.030   2.531 -0.3453  0.0175 -0.1594
41530SOL    HW130553  10.296   3.022   2.585 -0.5697  1.3558 -0.2352
41530SOL    HW230554  10.447   3.012   2.591 -0.6899 -1.1488 -0.0699
41531SOL     OW30555   8.364   4.040   8.260  0.0877 -0.4321 -0.6736
41531SOL    HW130556   8.355   3.979   8.187 -0.9401 -0.0018 -0.9157
41531SOL    HW230557   8.296   4.106   8.246 -0.0924 -0.3082  0.6435
41532SOL     OW30558  11.129   8.702   2.022 -0.4479 -0.0643  0.4243
41532SOL    HW130559  11.118   8.700   1.927 -1.1893  1.8358  0.4151
41532SOL    HW230560  11.066   8.638   2.055  1.3197 -2.3518 -0.3916
41533SOL     OW30561   8.952   4.191   4.037 -0.0000  0.4006  0.2706
41533SOL    HW130562   8.867   4.149   4.035 -0.2844  0.9823 -0.2964
41533SOL    HW230563   8.951   4.252   3.963  1.1538 -0.0697 -0.1602
41534SOL     OW30564   8.638   0.895   2.512 -0.3896 -0.0134  0.1525
41534SOL    HW130565   8.608   0.950   2.440 -0.5951  0.5559  0.6623
41534SOL    HW230566   8.684   0.823   2.469  0.6658  1.0180 -0.5148
41535SOL     OW30567   1.866   2.014   8.019 -0.5142  0.5070 -0.2690
41535SOL    HW130568   1.791   1.962   8.047 -0.7981  1.2388  0.3566
41535SOL    HW230569   1.894   2.061   8.097  2.0687 -1.4516  0.1414
41536SOL     OW30570   1.547  10.394   4.428  0.0329 -0.0119 -0.4568
41536SOL    HW130571   1.581  10.387   4.517 -0.3956  0.7250 -0.2282
41536SOL    HW230572   1.582  10.317   4.383 -2.2471 -2.1249  1.1626
41537SOL     OW30573   4.466   6.775  11.326  0.3773  0.0373 -0.4766
41537SOL    HW130574   4.546   6.810  11.287  1.0692  0.8142  1.4812
41537SOL    HW230575   4.401   6.845  11.316  0.1662 -0.2733 -1.3419
41538SOL     OW30576   6.383   2.516   2.912 -0.3274 -0.0645  0.3373
41538SOL    HW130577   6.394   2.421   2.903  0.7349  0.2062 -2.2473
41538SOL    HW230578   6.447   2.553   2.851 -2.0853  2.2682 -0.2419
41539SOL     OW30579   2.686   9.578   1.011  0.3535  0.6378 -0.3280
41539SOL    HW130580   2.692   9.630   0.931  0.3011 -1.7298 -1.9991
41539SOL    HW230581   2.753   9.614   1.069  0.7978  2.0524 -1.6692
41540SOL     OW30582   9.386   7.089   6.123 -0.3678 -0.4376  0.1050
41540SOL    HW130583   9.437   7.095   6.204  1.9674 -0.4458 -1.2956
41540SOL    HW230584   9.331   7.167   6.124  0.0742 -0.1096  1.3803
41541SOL     OW30585  11.453   5.837   0.106  0.7551  0.0629 -0.1696
41541SOL    HW130586  11.364   5.863   0.130  0.2897 -0.1173 -1.5810
41541SOL    HW230587  11.507   5.912   0.129  0.1833  0.3227  0.3605
41542SOL     OW30588  12.105   2.652   5.373 -0.5906  0.2822 -0.2388
41542SOL    HW130589  12.070   2.647   5.284  0.2439  0.7903 -0.6140
41542SOL    HW230590  12.032   2.626   5.429 -1.0610 -0.2815 -1.0828
41543SOL     OW30591   1.269   5.480   9.063  0.4625 -0.2777 -0.1663
41543SOL    HW130592   1.326   5.488   9.139  0.0005 -2.8972  0.5485
41543SOL    HW230593   1.185   5.518   9.092  0.3652 -1.0209  0.5499
41544SOL     OW30594   6.613  12.482   6.571  0.0247 -0.3344 -0.1277
41544SOL    HW130595   6.643  12.568   6.542  1.1922 -0.6263  0.1586
41544SOL    HW230596   6.551  12.454   6.503  1.4259 -0.2759 -1.4888
41545SOL     OW30597   8.187   1.341   4.368 -0.3309 -0.7841  0.1178
41545SOL    HW130598   8.281   1.359   4.368 -0.3871 -0.2739 -1.9942
41545SOL    HW230599   8.167   1.319   4.459  1.8072 -0.8301  0.6266
41546SOL     OW30600  11.054   1.255   0.856  0.1435  0.3547  0.5350
41546SOL    HW130601  11.147   1.236   0.872  0.7419  1.4806 -1.2522
41546SOL    HW230602  11.007   1.192   0.909  1.9476 -0.7735  0.8853
41547SOL     OW30603  10.752   0.325   7.977  0.3211 -0.6613 -0.5301
41547SOL    HW130604  10.786   0.243   7.942  0.9056 -0.9595  0.6677
41547SOL    HW230605  10.731   0.378   7.900  0.0404 -1.8855 -1.3165
41548SOL     OW30606   8.745   5.079   4.107 -0.6519 -0.1527 -0.2426
41548SOL    HW130607   8.689   5.154   4.127 -1.3780 -0.5340 -0.8040
41548SOL    HW230608   8.701   5.035   4.034 -0.1767 -1.0558  0.0033
41549SOL     OW30609  11.503  11.113   6.895  0.3316 -0.0973  0.2755
41549SOL    HW130610  11.457  11.122   6.812 -3.0399 -1.6176  1.7934
41549SOL    HW230611  11.439  11.141   6.961  2.2779 -0.5517  2.4872
41550SOL     OW30612   3.905   3.050   4.869 -0.3894  0.4544 -0.1980
41550SOL    HW130613   3.901   3.113   4.797 -1.9395  0.8836  0.2154
41550SOL    HW230614   3.988   3.069   4.913 -0.7675  2.1722 -0.1450
41551SOL     OW30615   3.214  12.243   6.402 -0.6783  0.4089  1.0035
41551SOL    HW130616   3.257  12.310   6.455 -0.5057  0.3070  0.9920
41551SOL    HW230617   3.225  12.162   6.452  0.0127  0.1994  0.5313
41552SOL     OW30618   9.421   6.443   0.265  0.1975  0.4281 -0.0194
41552SOL    HW130619   9.426   6.450   0.170  0.9664  1.0724  0.0578
41552SOL    HW230620   9.401   6.351   0.282 -1.5380  0.6114 -0.8420
41553SOL     OW30621   7.663   9.494   3.256  0.3570  0.4006 -0.0771
41553SOL    HW130622   7.615   9.532   3.329  0.7535  0.2861  0.2433
41553SOL    HW230623   7.595   9.469   3.193  0.1263  2.2881 -0.6246
41554SOL     OW30624   8.949   8.304   4.670  0.2668 -0.0899  0.2071
41554SOL    HW130625   8.871   8.328   4.719  0.5629  0.8433  0.2354
41554SOL    HW230626   9.022   8.341   4.719  0.7080 -0.6562 -0.0014
41555SOL     OW30627  11.904  10.215   0.454 -0.0046  0.2304 -0.1231
41555SOL    HW130628  11.837  10.277   0.426 -0.4375 -0.6578 -1.1033
41555SOL    HW230629  11.874  10.185   0.540 -0.0586  0.9791  0.1267
41556SOL     OW30630  11.054   7.388   2.258 -0.0729  0.2063 -0.1423
41556SOL    HW130631  11.092   7.444   2.190 -0.2604 -1.0193 -1.3019
41556SOL    HW230632  11.064   7.438   2.339 -0.2360  1.9025 -1.1279
41557SOL     OW30633  10.656  11.392   5.290 -0.5355  0.0564 -0.5339
41557SOL    HW130634  10.720  11.422   5.354 -0.7504  0.0931 -0.3373
41557SOL    HW230635  10.664  11.297   5.289 -0.3230  0.0754 -0.6708
41558SOL     OW30636   5.430   9.791   4.061 -0.1979 -0.8079 -0.2214
41558SOL    HW130637   5.411   9.761   4.150 -2.3380 -0.1504 -0.3792
41558SOL    HW230638   5.379   9.732   4.005  1.7253 -1.7071 -1.1214
41559SOL     OW30639   0.488   0.819   6.910 -0.0717  0.1580  0.2091
41559SOL    HW130640   0.582   0.835   6.921 -0.4715  1.0346  3.5802
41559SOL    HW230641   0.478   0.725   6.920  0.6135 -0.3589 -2.9311
41560SOL     OW30642   1.955   4.548  12.261  0.2032 -0.2612  0.4653
41560SOL    HW130643   2.048   4.565  12.247 -0.3880  2.2752 -0.8207
41560SOL    HW230644   1.935   4.478  12.199  1.0946 -0.3672  0.2732
41561SOL     OW30645   2.689   2.586   2.035 -0.2891  0.3212  0.3778
41561SOL    HW130646   2.785   2.592   2.037 -0.1411 -0.1101 -1.9792
41561SOL    HW230647   2.664   2.569   2.125  2.1455 -3.1129  0.6045
41562SOL     OW30648   7.742   9.341   3.638 -0.7330 -0.4811  0.2779
41562SOL    HW130649   7.823   9.375   3.602 -1.2103  0.0757 -0.2906
41562SOL    HW230650   7.746   9.365   3.731 -0.4647 -0.0345  0.1552
41563SOL     OW30651   7.245   7.489   4.023  0.1705 -0.5296  0.1555
41563SOL    HW130652   7.197   7.447   4.094  1.2347  0.2741  1.4167
41563SOL    HW230653   7.308   7.423   3.995 -1.2263 -1.3725 -1.0951
41564SOL     OW30654   3.051   1.929   0.880 -0.3192 -0.1226  0.0444
41564SOL    HW130655   2.998   1.913   0.802 -3.1671 -1.2919  2.0707
41564SOL    HW230656   3.050   2.025   0.890 -0.4666 -0.0072 -0.9792
41565SOL     OW30657   1.799   0.087   6.888 -0.0577  0.6388  0.0224
41565SOL    HW130658   1.771   0.075   6.979 -1.2055  2.3434 -0.0622
41565SOL    HW230659   1.734   0.038   6.837 -0.7227  1.4950  0.0259
41566SOL     OW30660   6.262   8.370  11.428  0.3588  0.3610 -0.0901
41566SOL    HW130661   6.284   8.391  11.518  0.1754 -0.3542  0.1288
41566SOL    HW230662   6.344   8.378  11.380  1.2587 -2.4822  0.7448
41567SOL     OW30663   9.798   4.682   4.040 -0.0100  0.0112 -0.2207
41567SOL    HW130664   9.887   4.710   4.021  0.0490  0.6046  0.8332
41567SOL    HW230665   9.743   4.726   3.976  0.2909  0.9990  0.1863
41568SOL     OW30666   3.253   5.103   6.658 -0.0455  0.4261  0.1507
41568SOL    HW130667   3.337   5.072   6.625 -0.9754  0.3274 -2.3182
41568SOL    HW230668   3.263   5.198   6.664  0.8092  0.2626  1.7008
41569SOL     OW30669   3.642   4.095   5.080 -0.7142 -0.1878  0.2259
41569SOL    HW130670   3.616   4.057   4.996 -2.4001 -0.0087  0.6313
41569SOL    HW230671   3.732   4.066   5.092 -0.2013  0.3503 -1.9500
41570SOL     OW30672   1.848   6.622  11.034  0.5114 -0.4533 -0.5397
41570SOL    HW130673   1.819   6.531  11.042 -2.1720  0.3847  0.4017
41570SOL    HW230674   1.929   6.627  11.085  0.3555 -2.1658 -0.0886
41571SOL     OW30675   9.099   5.749   8.288 -0.4813 -0.1363  0.1675
41571SOL    HW130676   9.110   5.735   8.382  3.3234 -2.3842 -0.4029
41571SOL    HW230677   9.116   5.663   8.249 -2.2157  0.6616 -2.6123
41572SOL     OW30678   7.284   9.522   0.806 -0.6179  0.3685  0.5142
41572SOL    HW130679   7.252   9.491   0.721 -0.7609 -0.3710  0.8285
41572SOL    HW230680   7.211   9.571   0.843 -0.7518  0.2245  0.4427
41573SOL     OW30681   3.355   0.596   4.216  0.4322  0.3686  0.1508
41573SOL    HW130682   3.324   0.517   4.171  2.5316  0.4133 -1.5625
41573SOL    HW230683   3.414   0.563   4.283  1.0002  0.4490 -0.3032
41574SOL     OW30684  11.510   0.893   5.394 -0.5002  0.1111  0.4807
41574SOL    HW130685  11.427   0.906   5.439  0.1539  1.8826  1.2335
41574SOL    HW230686  11.574   0.878   5.463 -0.3615 -2.8421 -0.1355
41575SOL     OW30687   1.474   8.434   4.420  0.0279 -0.6545  0.1689
41575SOL    HW130688   1.436   8.377   4.487  1.0908 -1.6232 -0.0268
41575SOL    HW230689   1.448   8.394   4.337 -2.0448  1.0319 -0.0777
41576SOL     OW30690  10.794   2.760   0.188 -0.0857  0.3606 -0.2761
41576SOL    HW130691  10.842   2.733   0.110  0.8520 -0.8827  0.7117
41576SOL    HW230692  10.747   2.682   0.216  1.3960  0.1136  1.7036
41577SOL     OW30693   7.801   2.904   4.195  0.1051  0.1448 -0.1366
41577SOL    HW130694   7.799   2.971   4.127  0.6573  1.9477  1.5131
41577SOL    HW230695   7.710   2.895   4.223  0.1269  0.7552  0.1342
41578SOL     OW30696   2.900   4.696   4.454 -0.3203  0.3745  0.3720
41578SOL    HW130697   2.932   4.621   4.403 -0.1438 -0.1192  1.1821
41578SOL    HW230698   2.892   4.767   4.391  2.2222  0.4850  0.0718
41579SOL     OW30699  12.324  11.732   6.695 -0.7073  0.0760 -0.6564
41579SOL    HW130700  12.251  11.783   6.729 -0.2239  0.5320 -0.2787
41579SOL    HW230701  12.373  11.706   6.773 -1.0492 -1.1342 -0.8311
41580SOL     OW30702   6.421  10.500   5.393 -0.3009  0.1559 -0.0260
41580SOL    HW130703   6.488  10.500   5.324 -1.0634  0.1358 -0.7826
41580SOL    HW230704   6.446  10.428   5.450 -0.0640 -0.2986 -0.6851
41581SOL     OW30705   9.648   1.729   6.128  0.1475 -0.1848 -0.3123
41581SOL    HW130706   9.642   1.807   6.073 -1.3164  0.4823  0.7407
41581SOL    HW230707   9.573   1.735   6.187 -0.7378 -3.0196 -0.9808
41582SOL     OW30708   4.598   6.786   8.444 -0.0366 -0.2357  0.5424
41582SOL    HW130709   4.551   6.706   8.470 -0.7382 -0.8825 -2.3855
41582SOL    HW230710   4.531   6.840   8.403  1.2027  0.0141 -1.2451
41583SOL     OW30711   7.402   1.984  11.785  0.2783  0.2481 -0.3633
41583SOL    HW130712   7.420   1.891  11.780  1.0440  0.2271  1.7074
41583SOL    HW230713   7.419   2.018  11.697 -0.1447 -1.5626 -1.1729
41584SOL     OW30714   1.925   9.595  12.260 -0.6782 -0.3753 -0.2607
41584SOL    HW130715   1.993   9.610  12.327  0.0346  0.4001 -1.1402
41584SOL    HW230716   1.950   9.512  12.220  1.0883  0.9364 -2.0788
41585SOL     OW30717   9.607   8.851   2.755 -0.1966  0.0624  0.7969
41585SOL    HW130718   9.564   8.827   2.673 -0.4256 -1.5264  1.3570
41585SOL    HW230719   9.692   8.886   2.727 -0.9208  1.1221 -0.1859
41586SOL     OW30720   7.243   0.894   0.028 -0.1234 -0.0015  0.0093
41586SOL    HW130721   7.286   0.856   0.105 -1.0364 -0.7265  0.1761
41586SOL    HW230722   7.224   0.819  -0.028 -0.3877  0.4105 -0.4610
41587SOL     OW30723   7.419   4.328   1.328 -0.8657  0.0548  0.4365
41587SOL    HW130724   7.382   4.262   1.269  1.0189 -2.0030  1.4110
41587SOL    HW230725   7.448   4.399   1.269  0.1706 -1.5388 -1.0720
41588SOL     OW30726   6.066   4.287   6.899 -0.1760 -0.2134 -0.3684
41588SOL    HW130727   5.981   4.297   6.940  0.5088 -0.6960  1.2399
41588SOL    HW230728   6.049   4.296   6.805 -2.0589 -0.8265 -0.1155
41589SOL     OW30729   2.899   6.991  11.873  0.0647 -0.1787 -0.2283
41589SOL    HW130730   2.838   6.977  11.801  0.0635 -1.5909  0.0272
41589SOL    HW230731   2.955   7.063  11.842 -1.9739  1.4985 -0.2585
41590SOL     OW30732  11.913  11.563   0.955 -0.3875  0.0707 -0.2184
41590SOL    HW130733  11.900  11.623   1.028  0.1953  0.4834 -0.4452
41590SOL    HW230734  12.002  11.581   0.925 -0.3122 -0.7058 -0.4747
41591SOL     OW30735  11.906   1.861   8.900  0.1234  0.2156 -0.2450
41591SOL    HW130736  11.897   1.917   8.824  1.5272 -1.1185 -1.4619
41591SOL    HW230737  11.956   1.785   8.869  0.7856 -0.3603  1.9920
41592SOL     OW30738   2.486  12.019  12.070  0.3811 -0.6210 -0.3937
41592SOL    HW130739   2.420  12.045  12.005  1.4338  0.3537 -1.1106
41592SOL    HW230740   2.469  11.926  12.085 -2.1927 -0.0638  0.6852
41593SOL     OW30741   3.260   9.615  12.424 -0.3735 -0.4347 -0.5817
41593SOL    HW130742   3.326   9.571  12.478 -0.9900  0.9216  1.4382
41593SOL    HW230743   3.301   9.698  12.400 -1.4274  0.6879  1.1914
41594SOL     OW30744   7.242   6.479  11.264 -0.3560 -0.0387 -0.0910
41594SOL    HW130745   7.254   6.568  11.230  0.3340 -0.2474 -0.4084
41594SOL    HW230746   7.185   6.491  11.340  1.1657  0.9258  0.9573
41595SOL     OW30747   4.795   2.447   9.951 -0.1067  0.6970 -0.0383
41595SOL    HW130748   4.789   2.504  10.028 -1.1040  0.6466 -0.0699
41595SOL    HW230749   4.770   2.361   9.983  0.7933  0.3875 -0.1318
41596SOL     OW30750   0.384  10.643   8.356  0.7216  0.3253  0.5377
41596SOL    HW130751   0.396  10.727   8.402 -1.2661  1.0984 -0.2237
41596SOL    HW230752   0.378  10.667   8.264 -0.6557 -0.5110  0.3746
41597SOL     OW30753   0.031   4.433   3.355 -0.0798 -0.2039 -0.3340
41597SOL    HW130754  -0.054   4.477   3.361  0.1128  0.3007 -1.1245
41597SOL    HW230755   0.086   4.493   3.305  1.0725 -0.0691  1.0368
41598SOL     OW30756   5.979   4.974  11.907 -0.7271  0.3151  0.0177
41598SOL    HW130757   5.922   4.936  11.974 -0.3610  1.0401  0.7435
41598SOL    HW230758   5.931   5.049  11.874  0.1833  1.5100  1.3099
41599SOL     OW30759  11.230   2.054  10.391  0.2864 -0.0369  0.2214
41599SOL    HW130760  11.211   1.981  10.333  3.2566 -0.9354  0.1839
41599SOL    HW230761  11.145   2.087  10.419 -1.1833 -1.5688 -2.1451
41600SOL     OW30762   6.848   7.306   7.904  0.3603  0.4181  0.3460
41600SOL    HW130763   6.927   7.359   7.893  1.1961 -0.5531  1.4524
41600SOL    HW230764   6.820   7.287   7.814  1.1208  1.1482 -0.0653
41601SOL     OW30765   1.714   9.047  10.128 -0.3714 -0.1985  0.1512
41601SOL    HW130766   1.778   9.043  10.198  0.0538  1.2774 -0.1287
41601SOL    HW230767   1.758   9.094  10.057 -2.3163  2.5718  0.6269
41602SOL     OW30768  11.473  10.549  11.887 -0.6882 -0.5887  0.2909
41602SOL    HW130769  11.529  10.530  11.813 -0.0562 -0.0426  0.6186
41602SOL    HW230770  11.437  10.464  11.913  0.7689 -1.1133  0.7006
41603SOL     OW30771   9.155   4.792  11.157  0.0417 -0.6023 -0.0172
41603SOL    HW130772   9.106   4.831  11.230  2.3210  0.1276  1.2381
41603SOL    HW230773   9.088   4.754  11.100 -2.1621  2.4923  0.2558
41604SOL     OW30774   0.706   9.288   5.554  0.3304  0.1343 -0.1617
41604SOL    HW130775   0.692   9.367   5.502  0.6838 -1.0809 -2.2280
41604SOL    HW230776   0.617   9.259   5.577  0.2145  1.4557  1.2317
41605SOL     OW30777   3.495   8.307   2.488  0.1623  0.4053  0.4903
41605SOL    HW130778   3.569   8.292   2.547  0.0967  0.0079  0.4743
41605SOL    HW230779   3.432   8.357   2.540  0.6008  1.0738  0.3864
41606SOL     OW30780   1.964  12.014   7.809 -0.1817  0.1164 -0.1558
41606SOL    HW130781   1.990  12.006   7.718  0.0136  0.1859 -0.1053
41606SOL    HW230782   1.887  11.957   7.817  0.2490 -0.4719 -0.1795
41607SOL     OW30783   4.423   2.316   1.133 -0.7798 -0.5401 -0.1763
41607SOL    HW130784   4.434   2.361   1.049  0.0393  1.8227  1.1166
41607SOL    HW230785   4.506   2.272   1.148 -1.0880 -1.3701 -0.7598
41608SOL     OW30786  11.466   4.329  10.466  0.8321  0.4055  0.3052
41608SOL    HW130787  11.390   4.381  10.437  1.4716  1.4328  0.4270
41608SOL    HW230788  11.485   4.272  10.392 -0.1538  0.0224  0.3285
41609SOL     OW30789  12.000   3.098   4.368  0.1801 -0.4461  0.0700
41609SOL    HW130790  12.080   3.100   4.420  0.7374  0.0963 -0.7904
41609SOL    HW230791  11.962   3.185   4.378  1.3663  0.3772 -2.0348
41610SOL     OW30792   9.148  10.553   4.309 -0.3370 -0.0405 -0.2277
41610SOL    HW130793   9.076  10.579   4.251 -0.7273 -0.1682  0.1904
41610SOL    HW230794   9.167  10.462   4.285 -1.3846 -0.5344  0.7129
41611SOL     OW30795   8.056   2.827  11.877  0.2409 -0.4761 -0.4371
41611SOL    HW130796   8.009   2.775  11.943  3.4158 -0.0814  2.4061
41611SOL    HW230797   8.024   2.916  11.890  1.2300 -0.3023  1.0887
41612SOL     OW30798   4.947   9.675   5.008 -0.1378 -0.3138  0.2725
41612SOL    HW130799   4.969   9.582   5.017 -1.3811 -0.6383  0.0706
41612SOL    HW230800   4.974   9.697   4.919 -3.0223 -1.4376 -1.0047
41613SOL     OW30801   5.972   6.274   1.413 -0.0290 -0.2186  0.2030
41613SOL    HW130802   5.908   6.271   1.342  1.2073  0.9638 -1.0078
41613SOL    HW230803   5.995   6.182   1.427 -1.3903 -0.5961  0.1297
41614SOL     OW30804   6.434   2.311   7.553 -0.2532  0.0648  0.3976
41614SOL    HW130805   6.362   2.250   7.532 -1.8983  1.7059  0.9694
41614SOL    HW230806   6.395   2.398   7.542  1.7562  1.0240  0.5051
41615SOL     OW30807   4.536  11.569   1.884  0.0827 -0.3000 -0.4925
41615SOL    HW130808   4.478  11.564   1.960 -1.1276  3.0289 -0.9987
41615SOL    HW230809   4.528  11.484   1.842 -0.6796 -1.5960  2.0487
41616SOL     OW30810   5.661   0.885   2.351  0.1073 -0.4772  0.2620
41616SOL    HW130811   5.636   0.843   2.269  0.4771 -0.4132  0.1145
41616SOL    HW230812   5.747   0.923   2.333 -0.5307  0.9866  0.1516
41617SOL     OW30813   6.793   5.310   6.592  0.1098 -0.2163  0.5986
41617SOL    HW130814   6.720   5.361   6.557  0.2949 -0.5859 -0.3706
41617SOL    HW230815   6.831   5.267   6.515  1.3607 -0.0155  1.0856
41618SOL     OW30816  11.025  11.497   7.096  0.2582 -0.4776  0.0483
41618SOL    HW130817  11.003  11.407   7.073  1.1595 -0.3169 -1.5581
41618SOL    HW230818  11.071  11.490   7.180 -0.4941 -1.4017  0.4003
41619SOL     OW30819   2.936  12.104   3.109 -0.5257  0.2031 -0.3447
41619SOL    HW130820   3.001  12.071   3.046 -0.0138  0.0790  0.2322
41619SOL    HW230821   2.920  12.029   3.167  0.1904  0.7709  0.6162
41620SOL     OW30822   0.944   9.306   7.678  0.5898  0.2477 -0.3014
41620SOL    HW130823   0.984   9.393   7.682 -1.9292  1.4676  0.2189
41620SOL    HW230824   0.901   9.295   7.763  0.3913 -1.3057 -0.5621
41621SOL     OW30825   6.480   3.041   9.138 -0.3659  0.4845  0.0026
41621SOL    HW130826   6.438   2.959   9.163 -0.6784  0.5576 -0.2751
41621SOL    HW230827   6.424   3.076   9.068  0.2085  0.5384 -0.4380
41622SOL     OW30828   8.959   8.962   1.483  0.2748  0.0331 -0.2943
41622SOL    HW130829   8.996   8.899   1.544 -0.6496 -0.6503 -0.4036
41622SOL    HW230830   8.950   9.043   1.533 -3.0352 -1.2100  1.4492
41623SOL     OW30831   9.809   9.934   5.446  0.8051 -0.4270 -0.5077
41623SOL    HW130832   9.727   9.907   5.405  1.1669 -1.3822 -0.6427
41623SOL    HW230833   9.867   9.858   5.436  1.5710  0.0773 -0.0510
41624SOL     OW30834   9.640   4.986   3.150  0.5217  0.3658  0.3721
41624SOL    HW130835   9.573   5.053   3.138 -1.5547 -1.6947 -0.1843
41624SOL    HW230836   9.656   4.984   3.244 -1.4812 -0.2009  0.7536
41625SOL     OW30837  10.386   0.022   0.272  0.1819 -0.9390 -0.4988
41625SOL    HW130838  10.356  -0.034   0.200 -1.9011 -0.6807  0.1141
41625SOL    HW230839  10.375   0.111   0.238  2.8441 -0.7963 -1.2191
41626SOL     OW30840  10.972   8.226   3.371 -0.0048  0.7165 -0.9846
41626SOL    HW130841  10.956   8.173   3.293 -2.0571  0.9190 -0.7434
41626SOL    HW230842  10.997   8.162   3.438 -1.1060  0.1985 -1.0546
41627SOL     OW30843  10.311   0.150   3.596 -0.2798 -0.3906  0.5906
41627SOL    HW130844  10.289   0.153   3.502 -1.8582  0.6431  0.9617
41627SOL    HW230845  10.229   0.172   3.640  0.6095 -0.2288  2.2132
41628SOL     OW30846   6.960   5.460   7.797 -0.0676  0.4457  0.2019
41628SOL    HW130847   7.029   5.525   7.791  0.0075  0.5513  1.7625
41628SOL    HW230848   6.985   5.392   7.734  1.2397  0.6764  0.4518
41629SOL     OW30849   9.156   0.567   3.830  0.0329 -0.4617 -0.7633
41629SOL    HW130850   9.169   0.652   3.789  0.7532 -0.3843 -0.3897
41629SOL    HW230851   9.230   0.558   3.890 -1.3413 -0.2456  1.0638
41630SOL     OW30852  10.885   3.007   1.742  0.8995 -0.0721 -0.4658
41630SOL    HW130853  10.860   2.941   1.677  0.8268 -0.5197  0.0070
41630SOL    HW230854  10.937   2.958   1.806 -0.8545 -0.1189  0.9896
41631SOL     OW30855   9.467   4.863   6.068  0.6247  0.6468 -0.1201
41631SOL    HW130856   9.431   4.875   5.980 -1.0350 -0.2936  0.3898
41631SOL    HW230857   9.420   4.925   6.123 -1.9712 -2.0072  0.9503
41632SOL     OW30858  11.701   7.089   9.078  0.9250  0.1261 -0.4847
41632SOL    HW130859  11.646   7.025   9.123 -0.0227  0.8683 -0.5581
41632SOL    HW230860  11.790   7.055   9.088  0.6605 -0.1898  1.1780
41633SOL     OW30861   4.914   7.044   3.663  0.3686  0.6199 -0.0975
41633SOL    HW130862   4.937   6.951   3.657  2.1045  0.6653  3.3885
41633SOL    HW230863   4.951   7.083   3.584  2.8633 -1.1410  0.0778
41634SOL     OW30864   4.669   8.308   0.709 -0.1027  0.1889 -0.0995
41634SOL    HW130865   4.722   8.302   0.629  0.9955  0.4569  0.5843
41634SOL    HW230866   4.686   8.227   0.756 -2.1996 -0.8241 -0.9607
41635SOL     OW30867   9.945  10.022   4.104 -0.3178 -0.3140 -0.2874
41635SOL    HW130868   9.864  10.072   4.094 -0.1464 -0.0090 -0.1634
41635SOL    HW230869   9.932   9.971   4.184 -0.5903 -0.6618 -0.5472
41636SOL     OW30870   0.248  11.254   5.407 -0.4929  0.3633 -0.2994
41636SOL    HW130871   0.275  11.252   5.499  0.2273  1.5521 -0.4617
41636SOL    HW230872   0.283  11.337   5.374  0.4950 -0.6627 -2.0101
41637SOL     OW30873   1.088   3.779   9.738 -0.6153  0.5160  0.0219
41637SOL    HW130874   1.086   3.735   9.653 -0.3494 -1.1246  0.8215
41637SOL    HW230875   0.998   3.772   9.770 -0.3618 -0.3884  0.5835
41638SOL     OW30876   1.253   2.979  10.890 -0.4506  0.0888 -0.2568
41638SOL    HW130877   1.202   3.034  10.830  0.3836  0.7546 -0.3809
41638SOL    HW230878   1.270   2.899  10.840 -0.8026  0.1347 -0.4536
41639SOL     OW30879   2.470   1.462  12.310  0.0900 -0.5884 -0.6820
41639SOL    HW130880   2.557   1.495  12.286  2.4933 -3.2933  3.2368
41639SOL    HW230881   2.450   1.507  12.392 -0.2892 -2.7562  0.4902
41640SOL     OW30882  10.531   7.179   3.373 -0.3410  0.2201  0.6591
41640SOL    HW130883  10.579   7.243   3.320 -1.8752 -0.2744 -1.4686
41640SOL    HW230884  10.574   7.096   3.356 -0.7482  0.0842  0.2661
41641SOL     OW30885   2.643   8.298   0.963 -0.2216  0.0613  0.0730
41641SOL    HW130886   2.653   8.253   1.047 -0.6106 -2.7579 -1.2630
41641SOL    HW230887   2.727   8.340   0.947 -0.0245  0.3226  1.6961
41642SOL     OW30888   9.234   7.799   2.727 -0.2322 -0.6774 -0.1374
41642SOL    HW130889   9.295   7.825   2.796  0.0933  0.0914 -0.6999
41642SOL    HW230890   9.275   7.724   2.685  1.8332  1.5420 -2.4014
41643SOL     OW30891   8.161   5.732   9.445  0.0900  0.0511 -0.6607
41643SOL    HW130892   8.169   5.637   9.433 -0.2843  0.2008 -2.2744
41643SOL    HW230893   8.067   5.749   9.442  0.1439  0.4751 -0.2045
41644SOL     OW30894   7.778  11.067   8.850 -0.9316  0.6615  0.2413
41644SOL    HW130895   7.867  11.102   8.854 -2.5222  5.4472 -0.1553
41644SOL    HW230896   7.777  11.014   8.770  1.2262  1.6462 -0.5132
41645SOL     OW30897   2.610   5.063   6.863  0.4735  0.2807 -0.7250
41645SOL    HW130898   2.600   4.971   6.838 -0.6201 -0.8202  3.0587
41645SOL    HW230899   2.533   5.107   6.827  0.2707 -0.5713 -1.3719
41646SOL     OW30900   7.722   3.171   1.650 -0.3556  0.0559  0.6517
41646SOL    HW130901   7.787   3.120   1.698 -1.8417 -3.6957 -0.9489
41646SOL    HW230902   7.749   3.166   1.559 -0.3106  2.7723  0.4235
41647SOL     OW30903   7.771   3.992   4.802  0.0630 -0.3367  0.2425
41647SOL    HW130904   7.836   4.018   4.867  1.0848  1.5761 -1.4013
41647SOL    HW230905   7.822   3.951   4.732 -0.1747  2.3307 -1.6567
41648SOL     OW30906   3.101   5.444   1.729  0.4755 -0.3272  0.5217
41648SOL    HW130907   3.108   5.375   1.663  0.8674  0.0686  0.1424
41648SOL    HW230908   3.027   5.418   1.783  0.5293 -0.9705  0.2934
41649SOL     OW30909   3.185  12.316  10.722  0.0607  0.3415  0.3906
41649SOL    HW130910   3.180  12.285  10.813 -0.8379  2.6636  1.1984
41649SOL    HW230911   3.100  12.295  10.685  0.2057 -0.0352  0.2617
41650SOL     OW30912   2.805  11.636   1.417  0.1720  0.2230  0.2138
41650SOL    HW130913   2.804  11.653   1.323 -0.3387 -1.1736 -0.0649
41650SOL    HW230914   2.732  11.689   1.451 -1.5711 -1.4816 -0.6580
41651SOL     OW30915   4.670   5.733   7.422  0.2325 -0.1268  0.0849
41651SOL    HW130916   4.694   5.808   7.476  1.0211 -0.5574  0.3474
41651SOL    HW230917   4.577   5.718   7.441 -0.0536  1.0456 -0.3052
41652SOL     OW30918   3.383   8.649   2.337 -0.1975 -0.5520  0.1348
41652SOL    HW130919   3.433   8.613   2.411 -0.4771  0.2593  0.7320
41652SOL    HW230920   3.381   8.743   2.353 -3.2100 -0.6310  0.9967
41653SOL     OW30921   8.897   3.921   8.492 -0.3901  0.7852 -0.3186
41653SOL    HW130922   8.836   3.993   8.473 -1.0557  0.3297  0.0305
41653SOL    HW230923   8.886   3.861   8.418 -2.1971 -0.4749  0.8943
41654SOL     OW30924   8.637   2.424  12.375  0.4350  0.0106 -0.3311
41654SOL    HW130925   8.621   2.410  12.282 -1.4078  1.3098 -0.2415
41654SOL    HW230926   8.732   2.438  12.381  0.7969 -1.5690 -1.7773
41655SOL     OW30927   5.963   3.339   7.283 -0.5458 -1.0563 -0.3258
41655SOL    HW130928   5.883   3.302   7.319  0.5862 -1.8875  1.4644
41655SOL    HW230929   5.950   3.433   7.285 -0.3531 -0.9822  2.9707
41656SOL     OW30930   5.214  11.773   0.010 -0.1087  0.3764  0.5137
41656SOL    HW130931   5.166  11.855   0.014  0.1661  0.6227 -0.8860
41656SOL    HW230932   5.296  11.794  -0.033  0.0962 -0.5739  0.4057
41657SOL     OW30933  11.606   1.373  12.209 -0.1206 -0.0166  0.4629
41657SOL    HW130934  11.649   1.414  12.284  0.5371 -1.2059  0.7689
41657SOL    HW230935  11.552   1.442  12.170  0.2847  0.8726  1.4570
41658SOL     OW30936   8.900   9.591   1.941 -0.0399 -0.0902  0.5616
41658SOL    HW130937   8.937   9.526   2.000  2.3651  0.2616 -0.4257
41658SOL    HW230938   8.908   9.674   1.988 -0.7728 -0.1772  0.8427
41659SOL     OW30939   9.276   6.187  10.777  0.3627 -0.4701  0.1606
41659SOL    HW130940   9.297   6.207  10.685  0.4740 -0.6824  0.1409
41659SOL    HW230941   9.183   6.206  10.784  0.4667  0.0714  0.1430
41660SOL     OW30942   9.506  10.385   6.418 -0.0258 -0.6302 -0.2279
41660SOL    HW130943   9.549  10.320   6.473 -1.2701 -0.5154  0.9386
41660SOL    HW230944   9.525  10.357   6.329 -0.6368 -2.7086  0.2309
41661SOL     OW30945   8.738   5.054   7.581 -0.5080  0.5941 -0.4446
41661SOL    HW130946   8.824   5.082   7.549 -0.5642 -1.0473 -2.2127
41661SOL    HW230947   8.739   4.959   7.572 -1.9485  0.3950  1.0521
41662SOL     OW30948   7.568  10.586  11.839 -0.4723 -0.5343  0.3965
41662SOL    HW130949   7.534  10.674  11.857  0.1936  0.0854 -1.2483
41662SOL    HW230950   7.627  10.568  11.912 -0.4276  0.4918  0.6356
41663SOL     OW30951   4.585  10.986  12.081 -0.2819 -0.3859  0.3644
41663SOL    HW130952   4.528  10.909  12.085 -0.0684 -0.6772 -1.3433
41663SOL    HW230953   4.529  11.056  12.046 -0.3658  0.1445  1.5190
41664SOL     OW30954  10.652  10.971   8.699  0.5717 -0.6321 -0.0642
41664SOL    HW130955  10.700  11.047   8.666  0.5120 -0.2995  0.6005
41664SOL    HW230956  10.692  10.896   8.654  1.0293 -0.2637 -0.2755
41665SOL     OW30957   0.383   5.100  12.243  0.1051 -0.3702  0.3539
41665SOL    HW130958   0.312   5.129  12.300  2.1284  3.5009  1.2646
41665SOL    HW230959   0.459   5.094  12.300  1.1502 -1.7528 -1.0726
41666SOL     OW30960  10.148   0.284   8.447  0.1386  0.0324  0.1965
41666SOL    HW130961  10.206   0.212   8.468 -1.0720 -0.4902  2.0338
41666SOL    HW230962  10.191   0.361   8.484  1.0292  0.1358 -1.0241
41667SOL     OW30963   1.536   3.031   9.296  0.3279 -0.3775 -0.0074
41667SOL    HW130964   1.620   3.035   9.251  1.5184 -0.1226  2.0781
41667SOL    HW230965   1.508   3.122   9.302 -1.6919 -0.6210 -3.2873
41668SOL     OW30966   2.697   3.845  12.036  0.5651 -0.1934 -0.3847
41668SOL    HW130967   2.791   3.858  12.032  0.4671  0.5680 -0.3046
41668SOL    HW230968   2.679   3.823  12.127  0.6428 -0.2025 -0.3722
41669SOL     OW30969   1.383   7.779   5.822 -0.0356  0.0757 -0.5350
41669SOL    HW130970   1.425   7.830   5.753  1.1137 -1.2808 -0.8853
41669SOL    HW230971   1.377   7.691   5.786 -0.7466 -0.3505  0.5611
41670SOL     OW30972   5.241   7.560   6.479 -0.3412 -0.0216  0.1946
41670SOL    HW130973   5.256   7.561   6.574 -1.2394 -2.3095  0.4374
41670SOL    HW230974   5.165   7.616   6.467 -1.7989 -1.6392  1.2514
41671SOL     OW30975  10.601   8.860   9.239 -0.3578  0.0695 -0.0032
41671SOL    HW130976  10.586   8.774   9.277 -1.5212  0.3042  0.1325
41671SOL    HW230977  10.541   8.863   9.164  0.3137  0.4327 -0.5320
41672SOL     OW30978   0.894   3.930   4.966  0.5341 -0.1456 -0.3148
41672SOL    HW130979   0.802   3.914   4.942  0.3590  2.4864 -1.6874
41672SOL    HW230980   0.889   3.985   5.044  0.9483  0.3448 -0.6352
41673SOL     OW30981   0.397   6.640   2.141 -0.0619 -0.7404  0.0291
41673SOL    HW130982   0.449   6.562   2.160  0.3970 -0.1917  1.0363
41673SOL    HW230983   0.387   6.685   2.225 -0.0606  0.4561 -0.5828
41674SOL     OW30984   5.507   0.332   0.266 -0.0057  0.4903  0.1729
41674SOL    HW130985   5.542   0.402   0.210  3.1400 -1.7537 -0.9778
41674SOL    HW230986   5.491   0.374   0.350 -1.3756  3.2158 -1.3042
41675SOL     OW30987   1.366  11.034   3.359 -0.0845  0.3251  0.0534
41675SOL    HW130988   1.306  10.972   3.400 -2.4305  2.3874  0.0069
41675SOL    HW230989   1.363  11.013   3.266 -0.4564  0.1610  0.1003
41676SOL     OW30990   8.871   0.106   8.241 -0.3172 -0.8456  0.0863
41676SOL    HW130991   8.919   0.178   8.282  2.2388 -2.0998 -0.5011
41676SOL    HW230992   8.866   0.130   8.148  0.1529 -1.2344 -0.0382
41677SOL     OW30993   7.283   0.192  12.396 -0.3406  0.2444 -0.0035
41677SOL    HW130994   7.202   0.233  12.367 -0.2187  0.5283  0.0616
41677SOL    HW230995   7.254   0.125  12.459 -0.5621 -0.0284 -0.3906
41678SOL     OW30996   3.703  12.373   2.336  0.5486  0.4120 -0.1714
41678SOL    HW130997   3.695  12.280   2.313 -1.9017  0.8791 -1.6085
41678SOL    HW230998   3.797  12.389   2.341  1.0471 -1.8453 -1.1934
41679SOL     OW30999  11.070   2.140   1.091 -0.0752  0.1410 -0.1376
41679SOL    HW131000  11.113   2.173   1.170 -0.3547  1.5493 -0.5566
41679SOL    HW231001  10.990   2.098   1.124  1.1067 -1.6724  0.5557
41680SOL     OW31002  11.096   0.152   1.215  0.4488  0.4525  0.2842
41680SOL    HW131003  11.165   0.095   1.251 -0.6757 -1.3934 -0.3109
41680SOL    HW231004  11.015   0.118   1.253 -0.3330  1.1607 -0.7142
41681SOL     OW31005   5.026   0.914   9.200  0.4182  0.2465 -0.4935
41681SOL    HW131006   4.976   0.834   9.214 -1.3374  1.5213  0.8885
41681SOL    HW231007   4.962   0.978   9.170  1.7480  1.2198 -1.3561
41682SOL     OW31008  11.858   4.381   5.131 -0.2269 -0.2554 -0.1566
41682SOL    HW131009  11.925   4.445   5.108 -0.1091 -0.5746 -0.7396
41682SOL    HW231010  11.846   4.391   5.226 -0.0524  0.4641 -0.2071
41683SOL     OW31011   5.993   1.253  12.448  0.1125  0.4460  0.7029
41683SOL    HW131012   6.035   1.246  12.533 -2.6225  0.0957  2.1461
41683SOL    HW231013   6.027   1.180  12.397  1.7900  0.6681  1.4601
41684SOL     OW31014   6.171   0.124   7.408 -0.5639  0.1158 -0.0808
41684SOL    HW131015   6.246   0.167   7.367 -1.3163  1.7644  0.1615
41684SOL    HW231016   6.158   0.044   7.358  0.6584  0.3698 -0.8413
41685SOL     OW31017   5.819   5.178  10.967  0.0428  0.0070  0.2743
41685SOL    HW131018   5.845   5.087  10.981  1.5475  0.6818  2.5169
41685SOL    HW231019   5.726   5.173  10.943  0.8970 -2.2457 -3.1876
41686SOL     OW31020   8.962  12.464   4.189 -0.1974 -0.4995 -0.3310
41686SOL    HW131021   8.900  12.511   4.245 -0.8581 -0.1862 -1.3069
41686SOL    HW231022   8.939  12.371   4.200  1.2051 -0.6781  1.7119
41687SOL     OW31023   8.415   2.794   7.243 -0.1855 -0.3819  0.1279
41687SOL    HW131024   8.336   2.750   7.274  0.8441 -0.4267  2.9713
41687SOL    HW231025   8.412   2.880   7.285  0.3621  0.3489 -1.2740
41688SOL     OW31026  11.620   3.866   3.543 -0.5009  0.0611 -0.3119
41688SOL    HW131027  11.607   3.908   3.628  0.0378  0.1485 -0.2711
41688SOL    HW231028  11.534   3.831   3.520 -0.4953 -0.5840  0.5993
41689SOL     OW31029   5.043  12.181   5.833  0.3484  0.2888 -0.2947
41689SOL    HW131030   4.992  12.100   5.830  2.4358 -1.1528  0.6241
41689SOL    HW231031   5.134  12.152   5.846  0.9615  2.8093  2.1210
41690SOL     OW31032   8.217   1.019   8.325  0.0906  0.6373  0.0805
41690SOL    HW131033   8.193   1.110   8.341  0.9904  0.4862  2.6790
41690SOL    HW231034   8.311   1.016   8.339  0.4825 -0.3083 -2.2427
41691SOL     OW31035  10.500   7.456   2.053  0.1357  0.1737 -0.1554
41691SOL    HW131036  10.471   7.540   2.090  1.1399 -0.2020  1.5838
41691SOL    HW231037  10.453   7.390   2.105 -0.4111 -0.3663 -1.3100
41692SOL     OW31038   4.537   4.226  11.180 -0.2440  0.4257 -0.0219
41692SOL    HW131039   4.581   4.254  11.100 -0.9988  1.4457 -0.0926
41692SOL    HW231040   4.607   4.221  11.245  0.4943 -1.0253 -0.8575
41693SOL     OW31041   4.739  10.042  10.028 -0.3490  0.4118 -0.6019
41693SOL    HW131042   4.728  10.129   9.990 -3.1627  0.1372 -0.6476
41693SOL    HW231043   4.780  10.059  10.113 -2.1423  2.0328  0.0380
41694SOL     OW31044  12.265   9.584  12.035  0.0138  0.2607  0.3660
41694SOL    HW131045  12.218   9.634  12.101  0.4028  1.3249 -0.1371
41694SOL    HW231046  12.197   9.537  11.987 -0.3749  0.4336  0.7415
41695SOL     OW31047   0.641   2.788   9.999 -0.6146 -0.3202 -0.1870
41695SOL    HW131048   0.584   2.797  10.075  1.0497 -0.2296  1.0856
41695SOL    HW231049   0.647   2.694   9.983  1.0682 -0.5240  1.4251
41696SOL     OW31050  10.056  12.111  12.356 -0.2969  0.0041 -0.4439
41696SOL    HW131051  10.147  12.139  12.344  0.0225 -1.1289 -0.7247
41696SOL    HW231052  10.021  12.171  12.422  1.0830 -0.4338  0.7213
41697SOL     OW31053   5.858   4.986   9.656 -0.0181  0.5658  0.5712
41697SOL    HW131054   5.925   4.957   9.594  0.0359  1.5803  0.1517
41697SOL    HW231055   5.902   5.052   9.710 -0.1544 -0.0814  1.5039
41698SOL     OW31056   2.584   7.641  11.384 -0.6025  0.4223 -0.5477
41698SOL    HW131057   2.581   7.547  11.366 -0.0638  0.5348 -1.2197
41698SOL    HW231058   2.540   7.681  11.310 -0.9600  0.6984 -0.1903
41699SOL     OW31059  11.416   0.103   6.328  0.5571  0.0944 -0.1399
41699SOL    HW131060  11.403   0.040   6.258 -1.5331  1.0882 -0.7149
41699SOL    HW231061  11.334   0.152   6.332  1.1686  1.0530  2.0197
41700SOL     OW31062  12.068   9.119   1.268 -0.0208 -0.2802 -0.3977
41700SOL    HW131063  12.136   9.089   1.329 -1.2099 -1.3671  0.4557
41700SOL    HW231064  12.015   9.179   1.321 -0.4497 -0.4130 -0.6805
41701SOL     OW31065   2.671  10.426   1.651 -0.2564 -0.2207 -0.6258
41701SOL    HW131066   2.675  10.457   1.741  1.8985  0.8812 -1.0640
41701SOL    HW231067   2.750  10.459   1.610 -1.0114 -1.0118 -2.8506
41702SOL     OW31068   7.560   0.745   2.546 -0.5591 -0.1878 -0.0914
41702SOL    HW131069   7.552   0.652   2.567 -1.3414 -0.1443 -0.1849
41702SOL    HW231070   7.637   0.750   2.488  0.2196 -0.6088  0.8758
41703SOL     OW31071   9.236   2.739   6.146 -0.2771  0.5932  0.0435
41703SOL    HW131072   9.149   2.734   6.107  0.1445 -2.6747 -0.8094
41703SOL    HW231073   9.291   2.776   6.077 -0.4476 -0.4536 -0.6831
41704SOL     OW31074  10.604   3.453   0.771  0.1537  0.1724  0.8311
41704SOL    HW131075  10.572   3.457   0.681 -0.4144  0.3784  1.0340
41704SOL    HW231076  10.679   3.393   0.768 -0.1054 -0.1290  0.2966
41705SOL     OW31077   9.624   2.749   2.693 -0.2198 -0.2268 -1.0442
41705SOL    HW131078   9.689   2.803   2.738 -0.8610 -0.3512  0.0669
41705SOL    HW231079   9.661   2.660   2.696  0.4154 -0.0083 -2.0741
41706SOL     OW31080   6.170   2.183  11.205  0.1308 -0.5230 -0.3228
41706SOL    HW131081   6.210   2.256  11.253  0.9445 -1.1567 -0.0091
41706SOL    HW231082   6.242   2.121  11.193 -0.6474 -1.4700 -0.1961
41707SOL     OW31083   6.712   2.943   6.491  0.0492  0.1939 -0.1875
41707SOL    HW131084   6.680   2.987   6.569 -3.2789  1.4937 -2.0906
41707SOL    HW231085   6.790   2.992   6.466 -0.1199  1.1542  1.0548
41708SOL     OW31086  11.679   6.195  11.730 -0.2472  0.0217 -0.1914
41708SOL    HW131087  11.700   6.254  11.657  1.2592  0.5682  0.6382
41708SOL    HW231088  11.725   6.114  11.709  1.4787  0.6811  0.8390
41709SOL     OW31089   5.178  10.485   3.054 -0.1145 -0.0349 -0.4414
41709SOL    HW131090   5.270  10.482   3.030 -0.5199 -2.6873 -2.0595
41709SOL    HW231091   5.151  10.575   3.036  1.9326  0.5637 -0.7322
41710SOL     OW31092   1.008   1.299   4.474  0.1009  0.2154 -0.5030
41710SOL    HW131093   0.987   1.392   4.483  0.2559  0.2940 -0.9314
41710SOL    HW231094   0.961   1.256   4.546 -0.7461  0.5051 -0.8728
41711SOL     OW31095   6.878   2.970   0.363 -0.5703 -0.3326 -0.3475
41711SOL    HW131096   6.949   2.907   0.377 -2.6884 -2.3442  2.5139
41711SOL    HW231097   6.872   3.019   0.446 -0.9892  1.5303 -1.4151
41712SOL     OW31098  10.721   9.942   6.088 -0.0564  0.6404  0.1808
41712SOL    HW131099  10.730   9.852   6.120  0.9294  0.6881  0.0762
41712SOL    HW231100  10.675   9.933   6.004  1.6834  0.0278 -0.7565
41713SOL     OW31101   9.923   7.857   3.673 -0.0243 -0.1336  0.3354
41713SOL    HW131102   9.982   7.845   3.598  0.7189  2.5551  0.3909
41713SOL    HW231103   9.836   7.865   3.634  0.2520  0.4199 -0.1738
41714SOL     OW31104  12.011  10.384   9.506 -0.0474  0.4629 -0.6680
41714SOL    HW131105  11.999  10.473   9.541  1.3362  0.0306  0.9878
41714SOL    HW231106  11.932  10.337   9.533  0.8932  0.1952  1.8342
41715SOL     OW31107   7.826   1.208   9.911 -0.2421  0.3247 -0.2075
41715SOL    HW131108   7.898   1.243   9.859 -1.7654  3.0672 -0.6517
41715SOL    HW231109   7.853   1.222  10.002  1.4367 -2.3984 -0.1787
41716SOL     OW31110   3.525   5.806   1.189  0.2086 -0.2343  0.1875
41716SOL    HW131111   3.440   5.781   1.226  0.1378  0.6887  0.6938
41716SOL    HW231112   3.583   5.811   1.265  0.9889 -1.8124 -0.2590
41717SOL     OW31113   4.229   7.196  10.527  0.0568 -0.0126 -0.2179
41717SOL    HW131114   4.198   7.145  10.602  0.1778  0.2483  0.0129
41717SOL    HW231115   4.163   7.264  10.515 -0.6537 -0.8572 -1.2000
41718SOL     OW31116   0.019   6.098   0.327  0.5139  0.0873  0.2747
41718SOL    HW131117  -0.057   6.112   0.271 -0.0841 -0.9926  0.7942
41718SOL    HW231118   0.056   6.186   0.340 -1.5723  0.8733  1.3053
41719SOL     OW31119  12.347  11.945   5.519 -0.1598  0.5655 -0.5842
41719SOL    HW131120  12.315  12.026   5.480  1.5263  1.2058 -0.7197
41719SOL    HW231121  12.411  11.911   5.456 -1.1293 -1.1191 -0.7291
41720SOL     OW31122   8.294  10.395   0.891 -0.2982  0.5944  0.8408
41720SOL    HW131123   8.226  10.370   0.954 -0.4622  0.5184  0.6346
41720SOL    HW231124   8.245  10.426   0.815 -0.0989  1.2938  0.9897
41721SOL     OW31125   4.851   1.027   4.894 -0.8865  0.0953  0.3246
41721SOL    HW131126   4.825   1.094   4.831 -2.2296  2.2150  2.9056
41721SOL    HW231127   4.837   0.944   4.848 -1.7722  1.4928 -2.1205
41722SOL     OW31128   7.013   2.588   3.172 -0.3158  0.2923 -0.2278
41722SOL    HW131129   6.932   2.636   3.186 -0.8815 -0.7040  0.0160
41722SOL    HW231130   7.009   2.515   3.234  0.1597 -0.4954 -1.0930
41723SOL     OW31131  10.810   0.263   5.785 -0.1715 -0.2241 -0.6670
41723SOL    HW131132  10.783   0.345   5.744  1.5626  0.0033 -1.4750
41723SOL    HW231133  10.756   0.255   5.863 -1.7637  0.6689 -1.6259
41724SOL     OW31134   6.064   9.301   0.177 -0.4502  0.4281 -0.2735
41724SOL    HW131135   6.114   9.273   0.254 -0.0137  0.1360 -0.6586
41724SOL    HW231136   5.973   9.293   0.204 -0.2986  1.3124  0.5621
41725SOL     OW31137   5.749   2.158   0.557 -0.5192  0.1978  0.3170
41725SOL    HW131138   5.778   2.245   0.586 -0.3917  0.0118  0.7572
41725SOL    HW231139   5.737   2.109   0.639 -0.4126 -0.2559  0.0612
41726SOL     OW31140   7.568   1.180   6.900  0.0600 -0.3261  0.1998
41726SOL    HW131141   7.505   1.234   6.852  2.0388  1.2444 -0.7357
41726SOL    HW231142   7.522   1.155   6.980 -1.5265  1.3015 -0.1520
41727SOL     OW31143  10.082  11.081   6.475  0.8186  0.6315 -0.0183
41727SOL    HW131144  10.023  11.022   6.429  1.8294 -0.2668 -0.2040
41727SOL    HW231145  10.089  11.157   6.418 -0.1442  0.7501  0.0049
41728SOL     OW31146  11.677  10.934  11.601  0.2015 -0.4523 -0.7620
41728SOL    HW131147  11.607  10.870  11.592 -1.7091  1.6202 -1.7090
41728SOL    HW231148  11.707  10.924  11.691 -0.3337 -2.3318 -0.7548
41729SOL     OW31149   9.319   0.536   3.554 -0.6236 -0.5199  0.3265
41729SOL    HW131150   9.261   0.606   3.524  0.4586  1.6655  2.9067
41729SOL    HW231151   9.302   0.529   3.648  2.6530 -0.2756  1.0713
41730SOL     OW31152   6.176   2.460   2.141  0.1139 -0.1997 -0.6694
41730SOL    HW131153   6.189   2.456   2.236 -0.4877 -0.5039 -0.5916
41730SOL    HW231154   6.204   2.548   2.116  1.7644 -0.6370 -0.4532
41731SOL     OW31155   7.160   3.080   6.774 -0.0852  0.0532  0.1763
41731SOL    HW131156   7.069   3.059   6.795 -1.6799  3.0498 -2.8280
41731SOL    HW231157   7.189   3.136   6.847  0.2620 -2.6175  2.2460
41732SOL     OW31158  11.152   8.775  12.420  0.0513 -0.0511 -0.4508
41732SOL    HW131159  11.145   8.794  12.514 -2.4885  2.0600 -0.9491
41732SOL    HW231160  11.232   8.724  12.412  0.5755  0.0413  2.8039
41733SOL     OW31161  10.281  10.106   7.273  0.3082 -0.0154 -0.1613
41733SOL    HW131162  10.190  10.083   7.293 -0.4996  1.8005 -1.5117
41733SOL    HW231163  10.333  10.042   7.323 -1.6241  0.4497  2.6935
41734SOL     OW31164   1.968  11.741   5.207 -0.0089  0.0126 -0.2096
41734SOL    HW131165   2.031  11.750   5.135 -0.0092  2.2923 -0.0081
41734SOL    HW231166   2.017  11.698   5.277  0.8989  0.4311 -0.5720
41735SOL     OW31167  10.715   1.796   9.048 -0.1106  0.1490  0.3441
41735SOL    HW131168  10.736   1.889   9.057 -1.1823  0.6455 -1.7148
41735SOL    HW231169  10.722   1.762   9.137  1.6339  1.8852  0.9553
41736SOL     OW31170   9.875   9.952   6.840 -0.1936  0.0368  0.2629
41736SOL    HW131171   9.960   9.968   6.798  0.7770 -1.1508  1.6642
41736SOL    HW231172   9.897   9.915   6.925 -2.1488 -0.9352  0.4036
41737SOL     OW31173   0.825   6.205   2.257 -0.4908  0.2948  0.0088
41737SOL    HW131174   0.832   6.110   2.269 -0.3833  0.5655  2.4928
41737SOL    HW231175   0.915   6.236   2.257 -0.5628  0.5025  0.1824
41738SOL     OW31176  11.271  11.310   9.935  0.0265 -0.2442 -0.0876
41738SOL    HW131177  11.290  11.248   9.865  1.5572 -0.0554  0.1258
41738SOL    HW231178  11.192  11.276   9.977 -0.0803 -1.1383 -0.9865
41739SOL     OW31179   7.959  12.338   8.036 -0.3529 -0.2595 -0.1569
41739SOL    HW131180   7.974  12.324   8.130 -2.5965  1.5169  0.5460
41739SOL    HW231181   7.997  12.424   8.018 -1.3872  0.1547 -0.4528
41740SOL     OW31182   8.313   6.744   0.718  0.1167 -0.0823  0.8608
41740SOL    HW131183   8.350   6.826   0.687 -0.5092 -0.7344 -1.9124
41740SOL    HW231184   8.369   6.677   0.678 -0.2467 -1.0269  1.8935
41741SOL     OW31185  10.399   8.011   7.361 -0.0806 -0.3764  0.7518
41741SOL    HW131186  10.307   8.010   7.387 -0.6323  0.0872 -1.0719
41741SOL    HW231187  10.410   7.930   7.312 -0.4477  1.0967 -1.9214
41742SOL     OW31188   4.840  11.791   0.155 -0.2280 -0.4776  0.0110
41742SOL    HW131189   4.834  11.865   0.094  0.3438 -1.2684 -1.0521
41742SOL    HW231190   4.859  11.716   0.099  2.8513 -0.8491  1.3488
41743SOL     OW31191   2.319   2.403   2.777  0.2789  0.9516  0.6385
41743SOL    HW131192   2.319   2.390   2.871  1.4380  2.1889  0.8365
41743SOL    HW231193   2.312   2.498   2.765 -1.9475  0.7209 -0.5901
41744SOL     OW31194  10.072   6.488   5.707 -0.3635  0.2418  0.1558
41744SOL    HW131195  10.095   6.571   5.664  2.3313 -1.3572 -1.7897
41744SOL    HW231196  10.133   6.483   5.781 -1.0287  0.2999  0.7194
41745SOL     OW31197   6.021   2.603   7.817  0.5381  0.0537 -0.4041
41745SOL    HW131198   6.030   2.680   7.760  0.0665 -0.1214 -0.7187
41745SOL    HW231199   6.000   2.639   7.903  1.3628  0.3261 -0.3078
41746SOL     OW31200   7.927   1.738   5.227 -0.7351  0.1352  0.2403
41746SOL    HW131201   7.901   1.687   5.151 -1.7627 -0.6389  1.0731
41746SOL    HW231202   7.964   1.818   5.191 -1.1359 -0.2411 -1.0656
41747SOL     OW31203   2.465   9.248   4.247 -0.2081 -0.2249  0.0843
41747SOL    HW131204   2.469   9.165   4.198 -1.8489  0.3005 -1.0252
41747SOL    HW231205   2.372   9.257   4.271  0.0398  1.0562  0.6249
41748SOL     OW31206   9.482   9.929  12.091  0.0774  0.1312  0.0504
41748SOL    HW131207   9.562   9.898  12.049 -0.8710 -0.0307 -1.7621
41748SOL    HW231208   9.487  10.024  12.087  1.7585  0.2951  3.1993
41749SOL     OW31209   8.540   0.485  12.449 -0.1888  0.0428  0.1228
41749SOL    HW131210   8.607   0.443  12.502 -0.8014  0.7904  1.5269
41749SOL    HW231211   8.529   0.572  12.488  0.6683  1.3877 -2.3481
41750SOL     OW31212   9.816   9.786   3.243 -0.1678  0.5929  0.3884
41750SOL    HW131213   9.869   9.826   3.175 -0.1026 -2.0776 -1.2721
41750SOL    HW231214   9.879   9.752   3.306  0.1680 -1.4944 -0.9600
41751SOL     OW31215   3.647   8.802   9.411 -0.6861  0.1615 -0.2568
41751SOL    HW131216   3.688   8.861   9.474  0.5674 -0.5466 -0.3738
41751SOL    HW231217   3.580   8.756   9.460 -0.1993  0.1279  0.3903
41752SOL     OW31218   5.472  11.860  12.452  0.5822 -0.3415 -0.0240
41752SOL    HW131219   5.549  11.852  12.508  1.5414 -1.6570 -1.4268
41752SOL    HW231220   5.455  11.954  12.448  0.8739 -0.1618  1.8883
41753SOL     OW31221   1.551   9.472   6.768 -0.1054 -0.9643  0.2988
41753SOL    HW131222   1.472   9.524   6.785  0.1606 -0.9552  1.5894
41753SOL    HW231223   1.518   9.387   6.738 -0.5434  0.1308 -2.6596
41754SOL     OW31224   8.468   7.965   9.138  0.0643  0.2824 -0.2324
41754SOL    HW131225   8.384   7.975   9.184  1.3554 -0.2749  2.4661
41754SOL    HW231226   8.495   8.054   9.116 -0.1085  0.7059  1.1539
41755SOL     OW31227  10.212   7.049  10.480  1.0334 -0.0200  0.3041
41755SOL    HW131228  10.258   7.073  10.400 -0.6175  0.0978 -0.6418
41755SOL    HW231229  10.119   7.055  10.458  0.5396 -0.6998  2.0150
41756SOL     OW31230   1.102   7.842   5.184 -0.1804  1.0597 -0.1331
41756SOL    HW131231   1.094   7.834   5.089 -1.2951  1.8849 -0.1274
41756SOL    HW231232   1.048   7.770   5.219  0.7716  0.3389 -0.1107
41757SOL     OW31233  10.853   0.110   7.740  0.5254 -0.1604 -0.4579
41757SOL    HW131234  10.839   0.032   7.793  0.7179  0.9338  1.3040
41757SOL    HW231235  10.948   0.121   7.738  0.4594  0.6907  0.3751
41758SOL     OW31236   1.507   4.679   9.889  0.3344  0.5937  0.3064
41758SOL    HW131237   1.485   4.698   9.798 -3.6548 -0.0366  0.9833
41758SOL    HW231238   1.568   4.605   9.884 -0.4935 -0.0105 -1.8209
41759SOL     OW31239  11.478   6.381   2.073 -0.0714  0.2260  0.0205
41759SOL    HW131240  11.562   6.343   2.100  1.6836  3.1658 -0.8637
41759SOL    HW231241  11.491   6.407   1.982 -2.3553 -0.1838 -0.4871
41760SOL     OW31242   9.978  10.194   7.943 -0.2134 -0.4340  0.5387
41760SOL    HW131243   9.976  10.112   7.992 -0.5985 -1.1759 -0.6896
41760SOL    HW231244   9.942  10.173   7.857  1.0092  0.6788 -0.3043
41761SOL     OW31245   6.611   6.062   3.301  0.0460  0.5995 -0.4283
41761SOL    HW131246   6.676   6.112   3.252 -0.0089  1.6943  0.5626
41761SOL    HW231247   6.636   6.074   3.393 -0.9371  0.1585 -0.0874
41762SOL     OW31248   8.677   4.994  12.271  0.6235  0.3135 -0.0892
41762SOL    HW131249   8.689   4.978  12.177  1.1726  2.1578 -0.3767
41762SOL    HW231250   8.763   5.025  12.301  0.1964  0.6592  0.7997
41763SOL     OW31251  10.371   4.468   4.527 -0.3811  0.5201 -0.5297
41763SOL    HW131252  10.366   4.378   4.495 -0.3177  0.3575 -0.0854
41763SOL    HW231253  10.464   4.485   4.538 -0.1980  1.4610 -2.8889
41764SOL     OW31254   6.551   3.771  10.640  0.1083 -1.0729  0.2061
41764SOL    HW131255   6.642   3.787  10.618  0.0780 -0.0950  0.7700
41764SOL    HW231256   6.554   3.715  10.718  0.2400 -0.3256  0.7472
41765SOL     OW31257   9.643   3.302  12.169  0.2765 -0.4920  0.4998
41765SOL    HW131258   9.623   3.380  12.221  0.3625  0.0948 -0.3357
41765SOL    HW231259   9.621   3.327  12.079 -1.8596 -2.1668  0.4822
41766SOL     OW31260   9.261   2.195   2.717 -0.0521 -0.1056 -0.4583
41766SOL    HW131261   9.340   2.249   2.717  0.3481 -0.6471 -1.8280
41766SOL    HW231262   9.195   2.250   2.675 -0.3762  0.2747  0.5143
41767SOL     OW31263  11.532   8.413   5.307  0.1653 -0.4995 -0.4755
41767SOL    HW131264  11.602   8.407   5.242  0.0704  0.2325 -0.6586
41767SOL    HW231265  11.573   8.387   5.389  0.6615 -0.0678 -0.5809
41768SOL     OW31266  10.374   2.950   6.700  0.4676  0.3767  0.1915
41768SOL    HW131267  10.451   2.895   6.715  0.9383  1.3892  1.9104
41768SOL    HW231268  10.406   3.039   6.714 -1.3604  0.7330  2.8787
41769SOL     OW31269   7.643   9.250   8.114  0.3525 -0.5964  0.2179
41769SOL    HW131270   7.714   9.290   8.164  0.7156 -0.0659 -0.7112
41769SOL    HW231271   7.618   9.174   8.166  1.4324 -0.6521  0.6833
41770SOL     OW31272  12.304  11.749   9.749 -0.0750  0.8290  0.0827
41770SOL    HW131273  12.258  11.802   9.684 -0.8849  1.4102  1.1194
41770SOL    HW231274  12.288  11.792   9.832 -1.4067 -1.4353  1.0873
41771SOL     OW31275   8.007   2.002   6.617  0.2931  0.1596  0.2295
41771SOL    HW131276   8.038   2.092   6.612 -0.5128  0.5393  1.4963
41771SOL    HW231277   7.981   1.991   6.709 -2.2225 -0.4886 -0.4957
41772SOL     OW31278  10.904   3.077   2.778  0.1218 -0.3652 -0.0269
41772SOL    HW131279  10.916   3.130   2.699  1.3923 -0.8063 -0.1565
41772SOL    HW231280  10.867   2.995   2.746 -0.5042 -0.0968 -0.0038
41773SOL     OW31281   1.054   0.307   9.080 -0.0037  0.3715 -0.0838
41773SOL    HW131282   1.023   0.347   8.998 -1.5077 -1.5301 -0.5131
41773SOL    HW231283   0.980   0.315   9.140  0.1184 -0.6002  0.2144
41774SOL     OW31284   7.897  11.821   3.242 -0.3967  0.2988  0.6177
41774SOL    HW131285   7.861  11.907   3.263 -1.3673 -0.2216  1.1551
41774SOL    HW231286   7.842  11.788   3.170 -0.1261  0.0686  0.5136
41775SOL     OW31287  12.255   3.231   6.111  0.7443  0.2665  0.2358
41775SOL    HW131288  12.175   3.278   6.137 -0.4550 -1.5449  0.0367
41775SOL    HW231289  12.298   3.210   6.194  1.2964  1.6695  0.3242
41776SOL     OW31290   9.295   2.382   4.544 -0.3089  0.8990  0.2522
41776SOL    HW131291   9.386   2.375   4.573  0.8593  2.7015 -2.5694
41776SOL    HW231292   9.282   2.308   4.485 -0.4325  1.0564  0.0813
41777SOL     OW31293   4.644   0.975   6.269  0.1173 -0.0117  0.5467
41777SOL    HW131294   4.614   0.901   6.322 -1.9227 -0.2011 -0.7777
41777SOL    HW231295   4.727   0.946   6.232 -0.4763 -1.5267  0.3314
41778SOL     OW31296   2.756   5.489   2.365 -0.4947 -0.4069  0.3212
41778SOL    HW131297   2.678   5.513   2.415  0.0491  1.2089  0.4514
41778SOL    HW231298   2.810   5.440   2.428 -1.4420 -1.7173  0.1728
41779SOL     OW31299   4.339   5.151  11.595  0.2639  0.2452  0.3199
41779SOL    HW131300   4.415   5.100  11.624  0.8797  1.4441  0.9106
41779SOL    HW231301   4.377   5.221  11.541 -0.0203  2.5646  2.8987
41780SOL     OW31302  11.502  11.198   4.453 -0.1963 -0.2477  0.3367
41780SOL    HW131303  11.490  11.170   4.544  1.3774 -1.4005  0.2326
41780SOL    HW231304  11.436  11.266   4.440 -2.1681 -1.8039  1.5569
41781SOL     OW31305   4.884   1.947   4.495 -0.1545 -0.0951 -0.5073
41781SOL    HW131306   4.866   1.853   4.494 -0.8109  0.0227 -0.1595
41781SOL    HW231307   4.957   1.958   4.434  0.0827 -0.8618 -0.3694
41782SOL     OW31308   9.396   7.328   9.999  0.1207 -0.1175  0.6368
41782SOL    HW131309   9.465   7.310  10.063  0.5165  1.8010  0.7974
41782SOL    HW231310   9.352   7.407  10.032 -0.6827  0.0133 -0.6557
41783SOL     OW31311   2.057   8.936  11.127  0.2659 -0.2814  0.0360
41783SOL    HW131312   2.089   8.932  11.218 -1.8518 -0.6778  0.8247
41783SOL    HW231313   2.016   9.021  11.120  2.1473  0.5914 -1.2504
41784SOL     OW31314   9.705   7.896   3.475  0.0066  1.0903  0.8496
41784SOL    HW131315   9.782   7.905   3.418 -0.4752  0.6875  0.1204
41784SOL    HW231316   9.630   7.902   3.415 -0.5659  2.3426  1.6574
41785SOL     OW31317   5.616   2.717  11.230  0.3109  0.4545  0.0320
41785SOL    HW131318   5.682   2.651  11.208  0.5034  0.5653  0.2708
41785SOL    HW231319   5.572   2.735  11.147 -0.6340 -0.9348  0.2059
41786SOL     OW31320   9.794   7.769  12.246 -0.0037  0.3871  0.0027
41786SOL    HW131321   9.743   7.776  12.327 -0.3947 -2.0450  0.0412
41786SOL    HW231322   9.879   7.806  12.268  0.0533 -0.6487  1.7062
41787SOL     OW31323   8.787   6.561   5.840 -0.5124  0.1068 -0.8528
41787SOL    HW131324   8.811   6.529   5.753 -0.1482 -2.9657  0.2818
41787SOL    HW231325   8.709   6.512   5.864  0.6741 -0.8293  1.4183
41788SOL     OW31326   0.172   1.923   3.011  0.3991  0.6979  0.3378
41788SOL    HW131327   0.078   1.943   3.008 -0.0481 -0.8599  1.9003
41788SOL    HW231328   0.194   1.897   2.922 -0.4272  1.9701 -0.2609
41789SOL     OW31329   3.957   1.782  11.308  0.2682  0.1634  0.1125
41789SOL    HW131330   3.925   1.871  11.293  1.6340  0.8629  1.0496
41789SOL    HW231331   4.049   1.794  11.333 -0.2984 -1.2114  3.3514
41790SOL     OW31332   9.192   8.635   3.084 -0.1141  0.5446  0.5474
41790SOL    HW131333   9.170   8.545   3.063  3.1406 -0.3060  0.2901
41790SOL    HW231334   9.260   8.659   3.021  0.6803  2.4172  2.0062
41791SOL     OW31335   7.053   3.592   3.016  0.3948 -0.6095 -0.3135
41791SOL    HW131336   7.048   3.514   3.071 -1.7942 -0.6076 -0.4327
41791SOL    HW231337   7.024   3.562   2.930 -3.1256  0.7325  0.2136
41792SOL     OW31338  10.989  10.606   1.989  0.0392 -0.0359  0.2193
41792SOL    HW131339  11.021  10.646   1.908 -0.1521 -1.1322 -0.4200
41792SOL    HW231340  10.895  10.592   1.974 -0.0463 -0.0504  0.7270
41793SOL     OW31341  11.485   0.164   8.952  0.0424 -0.6398  0.8965
41793SOL    HW131342  11.396   0.153   8.987  0.4795 -0.3870  2.1300
41793SOL    HW231343  11.540   0.176   9.030  1.0805 -0.2247  0.1141
41794SOL     OW31344   5.514   2.918   1.034 -0.4846  0.1578 -0.2975
41794SOL    HW131345   5.579   2.850   1.016  0.5094  1.2312 -0.9141
41794SOL    HW231346   5.561   2.982   1.087 -1.4870  0.2418  0.5069
41795SOL     OW31347   1.457   4.757   8.035 -0.2925 -0.2376  0.4302
41795SOL    HW131348   1.392   4.689   8.017 -0.7994  0.2559  0.3789
41795SOL    HW231349   1.535   4.709   8.061 -0.7892 -0.8243  0.8544
41796SOL     OW31350   9.051   3.350   2.912  0.2048  0.1581  0.2397
41796SOL    HW131351   9.090   3.303   2.986  1.0209 -1.4348 -1.1300
41796SOL    HW231352   9.059   3.289   2.838 -0.7796  1.6007 -1.1211
41797SOL     OW31353   0.766   0.852   4.368 -0.6068 -0.3457  0.3379
41797SOL    HW131354   0.816   0.827   4.290  0.2954  0.8324  0.5139
41797SOL    HW231355   0.733   0.769   4.402  0.4510 -1.0726 -0.3155
41798SOL     OW31356   9.708   3.767   5.176 -0.9066 -0.3911 -0.2636
41798SOL    HW131357   9.740   3.807   5.257 -1.1045 -1.5776  0.4332
41798SOL    HW231358   9.786   3.728   5.136 -0.9789 -0.7032 -0.1037
41799SOL     OW31359  10.224   9.627  11.697 -0.0193 -0.1252 -0.4679
41799SOL    HW131360  10.158   9.572  11.654  1.4200 -0.8210 -1.9553
41799SOL    HW231361  10.238   9.585  11.782 -0.5747 -0.7199 -0.6538
41800SOL     OW31362   5.528   5.568   6.062  0.3245 -0.3438  0.5246
41800SOL    HW131363   5.575   5.485   6.060 -0.6683 -0.9187  0.4505
41800SOL    HW231364   5.505   5.581   6.154  1.1195  0.2304  0.6514
41801SOL     OW31365   0.312  11.575   8.703  0.3087 -0.2000  0.3396
41801SOL    HW131366   0.367  11.497   8.706 -0.4636 -0.7557  0.3670
41801SOL    HW231367   0.225  11.542   8.679  0.1942  0.7670 -0.6881
41802SOL     OW31368   8.693   8.666   7.016 -0.3054  0.5512  0.1602
41802SOL    HW131369   8.739   8.725   7.076  3.0977  1.4633 -3.0183
41802SOL    HW231370   8.754   8.595   7.000 -2.8532 -1.9924  0.9229
41803SOL     OW31371   3.444  10.625   0.637 -0.1382 -0.2335  0.1500
41803SOL    HW131372   3.499  10.633   0.715  2.0287 -0.9653 -1.2278
41803SOL    HW231373   3.493  10.668   0.568 -1.2746 -0.9755 -1.1727
41804SOL     OW31374   4.055   2.787   5.001  0.3411  0.0462  0.2690
41804SOL    HW131375   4.107   2.862   4.973  0.3273 -0.6638 -1.8324
41804SOL    HW231376   3.965   2.820   5.004  0.7109  1.0276  3.0010
41805SOL     OW31377   7.020   1.507  12.240 -0.3837 -0.3966 -0.4411
41805SOL    HW131378   6.994   1.522  12.331  0.6174  1.1921 -0.3783
41805SOL    HW231379   7.006   1.413  12.226 -1.1760 -0.5480  1.1400
41806SOL     OW31380  11.256  10.004   6.670 -0.6924  0.1007 -0.0565
41806SOL    HW131381  11.251   9.997   6.765  1.1713  0.2467  0.0929
41806SOL    HW231382  11.198  10.077   6.649  0.6142  1.6024  1.2500
41807SOL     OW31383   4.118   3.267   4.384 -0.0633  0.5557 -0.2191
41807SOL    HW131384   4.139   3.325   4.458 -0.6883  1.3009 -0.6184
41807SOL    HW231385   4.062   3.319   4.327 -1.0716 -0.6140 -0.3443
41808SOL     OW31386  11.066   4.017   1.804 -0.0663  0.2401 -0.8798
41808SOL    HW131387  11.066   3.924   1.828 -0.7491  0.0906 -1.4434
41808SOL    HW231388  11.090   4.062   1.885 -1.2714 -0.3366 -0.1715
41809SOL     OW31389   1.262   2.911   2.376  0.2569  0.0847 -0.5079
41809SOL    HW131390   1.234   2.998   2.348 -0.2885 -0.1238 -0.6205
41809SOL    HW231391   1.285   2.922   2.468 -1.7876 -0.0782  0.0637
41810SOL     OW31392   1.843  10.911  11.234 -0.2574  0.3281 -0.2849
41810SOL    HW131393   1.933  10.878  11.239 -0.2609  0.1741 -1.0134
41810SOL    HW231394   1.795  10.840  11.190 -0.7258  0.4228  0.0725
41811SOL     OW31395  11.651   3.686   8.179  0.1159  0.1512  0.2254
41811SOL    HW131396  11.581   3.750   8.193 -1.4943 -1.3750 -0.4332
41811SOL    HW231397  11.666   3.687   8.085 -1.1645 -1.5989 -0.0426
41812SOL     OW31398   8.725   5.298   0.335 -0.4435 -0.3150  0.2055
41812SOL    HW131399   8.731   5.336   0.423 -3.1249 -0.4815  0.5620
41812SOL    HW231400   8.712   5.374   0.277  0.9332 -0.2359 -0.0261
41813SOL     OW31401   0.215   4.833   9.843 -0.0888  0.5763  0.8919
41813SOL    HW131402   0.132   4.850   9.797  0.6074  1.7181  0.0197
41813SOL    HW231403   0.228   4.739   9.832  0.0683  0.7928 -1.3696
41814SOL     OW31404   2.072   1.377   3.756  0.2076 -0.0860  0.8821
41814SOL    HW131405   2.087   1.301   3.700 -1.0315  0.3828 -0.1117
41814SOL    HW231406   2.027   1.440   3.700  1.5881  1.5783  1.5540
41815SOL     OW31407   3.416   9.204   9.093 -0.2388  0.5075 -0.2855
41815SOL    HW131408   3.430   9.132   9.155 -1.3513 -0.9153 -1.5907
41815SOL    HW231409   3.492   9.202   9.036 -1.9351 -2.3080 -2.7369
41816SOL     OW31410   7.524  10.739   3.535 -0.4120 -0.4672  0.1358
41816SOL    HW131411   7.521  10.784   3.450  1.7376 -0.5578 -0.0317
41816SOL    HW231412   7.579  10.663   3.520 -1.3639 -1.4170  1.2395
41817SOL     OW31413   8.415   5.027   1.206  0.2711  0.3339 -0.2578
41817SOL    HW131414   8.339   4.969   1.203 -1.5320  2.5497 -0.8903
41817SOL    HW231415   8.468   4.993   1.278 -1.5761 -1.0408  0.5437
41818SOL     OW31416  11.082   5.112   6.791  0.4805  0.7480 -0.1649
41818SOL    HW131417  11.112   5.051   6.724  0.6667  0.7148 -0.0528
41818SOL    HW231418  10.987   5.110   6.784  0.4562 -0.0168  0.2366
41819SOL     OW31419  11.648  10.701   8.034 -0.6055 -0.3303  0.3465
41819SOL    HW131420  11.625  10.774   7.976 -1.0262  0.2013  1.1477
41819SOL    HW231421  11.565  10.677   8.075 -0.1473  0.0726  1.5636
41820SOL     OW31422   2.949   4.390   8.461 -0.4089 -0.2737  0.3016
41820SOL    HW131423   2.992   4.475   8.472  2.7421 -1.6707 -0.1205
41820SOL    HW231424   2.994   4.333   8.524 -1.2564 -1.9928 -0.5916
41821SOL     OW31425   5.154  11.953  10.599  0.9051  0.0912 -0.1839
41821SOL    HW131426   5.121  12.018  10.661  1.0815 -0.6133  0.6676
41821SOL    HW231427   5.200  12.004  10.533  3.5537  0.7079  1.9768
41822SOL     OW31428   2.205   1.543  10.664  0.0314 -0.0107 -0.3751
41822SOL    HW131429   2.131   1.484  10.671  1.7188 -2.0429  1.8585
41822SOL    HW231430   2.212   1.584  10.750  1.7591 -0.2595 -0.3565
41823SOL     OW31431  12.287   0.452   0.928  0.6616  0.3751  0.0277
41823SOL    HW131432  12.261   0.519   0.991  0.3825  0.4329 -0.1457
41823SOL    HW231433  12.381   0.466   0.916  0.7417  0.2603  0.5478
41824SOL     OW31434  11.653   3.982   2.746  0.1597 -0.2221  0.2416
41824SOL    HW131435  11.727   3.989   2.685  0.4964 -1.7681  0.4325
41824SOL    HW231436  11.589   3.929   2.699 -0.8134  1.0108  0.1249
41825SOL     OW31437   1.584   9.079  12.207  0.6660  0.5604  0.0579
41825SOL    HW131438   1.669   9.053  12.170  0.1763 -1.4989  0.2597
41825SOL    HW231439   1.520   9.027  12.159 -0.5683  2.3325 -0.3278
41826SOL     OW31440   0.986   9.818   0.139 -0.5595  0.6526  0.1902
41826SOL    HW131441   1.007   9.903   0.178  0.2245  1.1242 -1.2103
41826SOL    HW231442   1.059   9.800   0.080 -0.1370 -1.5377  1.2575
41827SOL     OW31443   3.314   3.272  11.830  0.0356 -0.3598  0.0067
41827SOL    HW131444   3.230   3.256  11.788  0.3329  0.5361 -0.9567
41827SOL    HW231445   3.291   3.299  11.919 -0.7883  1.4171 -0.7102
41828SOL     OW31446   3.494   0.516   4.936 -0.2074  0.4872  0.1679
41828SOL    HW131447   3.567   0.524   4.998 -0.4238 -0.5724  0.5858
41828SOL    HW231448   3.416   0.534   4.989 -0.3128  0.7496 -0.0743
41829SOL     OW31449   0.345   0.803   1.441 -0.1978 -0.0527 -0.3481
41829SOL    HW131450   0.322   0.794   1.349 -0.7376 -0.7037 -0.1587
41829SOL    HW231451   0.311   0.889   1.466  0.7283  0.5154 -0.9655
41830SOL     OW31452   3.222   5.901   4.736  0.1642 -0.3540  0.3318
41830SOL    HW131453   3.136   5.898   4.695  0.1344 -0.1977  0.3846
41830SOL    HW231454   3.278   5.850   4.676  0.1146 -0.1478  0.1071
41831SOL     OW31455   2.307  11.778   2.531  0.2756 -0.4259  0.2099
41831SOL    HW131456   2.391  11.742   2.502 -0.1425 -0.5274 -0.9047
41831SOL    HW231457   2.309  11.869   2.502 -0.0781 -0.4808  0.0178
41832SOL     OW31458   8.732  11.475   9.463 -0.1312 -0.1423 -0.1575
41832SOL    HW131459   8.751  11.566   9.486  1.1902 -0.6143  0.7062
41832SOL    HW231460   8.667  11.481   9.393 -0.1744  1.4593 -0.0047
41833SOL     OW31461   5.715   4.373   6.380 -0.4572 -0.6064  0.2852
41833SOL    HW131462   5.759   4.305   6.328 -0.6606  1.6479 -3.2087
41833SOL    HW231463   5.629   4.380   6.340 -0.1828  2.1217  0.0275
41834SOL     OW31464   7.287   5.498   7.725 -0.7191  0.3688 -0.4574
41834SOL    HW131465   7.212   5.440   7.716  0.6919 -1.8475  0.9541
41834SOL    HW231466   7.336   5.486   7.644 -0.8997  0.2813 -0.5546
41835SOL     OW31467   6.344  11.279   2.095 -0.1874 -0.2442  0.4776
41835SOL    HW131468   6.393  11.242   2.021 -0.3662 -0.2131  0.3400
41835SOL    HW231469   6.287  11.344   2.054 -1.8960 -1.7464  0.3200
41836SOL     OW31470  10.817   4.583   2.496 -0.9884 -0.2977 -0.1674
41836SOL    HW131471  10.776   4.668   2.482  0.6939  0.6529  0.4373
41836SOL    HW231472  10.862   4.564   2.413  1.0579  0.8286  0.6247
41837SOL     OW31473   1.789   7.315   3.615  0.7605 -0.2469  0.1888
41837SOL    HW131474   1.738   7.307   3.696  0.5608  0.2079  0.1111
41837SOL    HW231475   1.868   7.264   3.632 -0.2535 -2.0007 -0.1402
41838SOL     OW31476   3.343   2.566   5.654  0.0532 -0.1012 -0.5756
41838SOL    HW131477   3.403   2.512   5.602 -2.3123 -1.6424 -1.8708
41838SOL    HW231478   3.334   2.647   5.604  0.7857  0.0237 -0.5185
41839SOL     OW31479   5.309  11.789   6.450  0.2127  0.3682 -0.1596
41839SOL    HW131480   5.312  11.802   6.545  1.5840  0.3251 -0.1724
41839SOL    HW231481   5.297  11.694   6.440  0.5451  0.3073 -0.0162
41840SOL     OW31482   9.868   5.783   1.038 -0.4665 -0.0803  0.2447
41840SOL    HW131483   9.859   5.786   0.943 -1.2639  1.4012  0.3334
41840SOL    HW231484   9.907   5.697   1.056 -1.2843 -0.8215 -1.3197
41841SOL     OW31485   9.544   8.200   9.137  0.0865 -0.2642 -1.1462
41841SOL    HW131486   9.496   8.265   9.086  0.0535 -0.4885 -1.4044
41841SOL    HW231487   9.477   8.152   9.184  0.2509  1.5307  1.0518
41842SOL     OW31488   7.033   1.160   1.126 -0.2978 -0.3359  0.1244
41842SOL    HW131489   7.089   1.220   1.175  1.8600 -1.2069 -1.0797
41842SOL    HW231490   7.004   1.210   1.050 -1.2746  0.1466  0.7978
41843SOL     OW31491  10.957   0.763  11.045  0.3174 -0.1303 -0.8286
41843SOL    HW131492  11.048   0.788  11.061  1.2886 -3.6701  0.0464
41843SOL    HW231493  10.920   0.748  11.131 -0.3757 -0.8869 -1.2383
41844SOL     OW31494   5.834   1.422   7.546  0.0027 -0.2007 -0.1505
41844SOL    HW131495   5.885   1.342   7.532  1.0958  0.3293  0.6546
41844SOL    HW231496   5.746   1.391   7.564  0.2629 -1.1977 -0.5181
41845SOL     OW31497  10.440   9.488   8.091  0.0946 -0.1084  0.0827
41845SOL    HW131498  10.390   9.500   8.172  0.3777  0.6864  0.1466
41845SOL    HW231499  10.519   9.441   8.118  2.1651  3.5536  1.0569
41846SOL     OW31500   5.974   7.914   5.591  0.3631 -0.2554 -0.1476
41846SOL    HW131501   6.064   7.882   5.584  0.3613 -0.4927  0.7416
41846SOL    HW231502   5.978   8.003   5.557  1.3457  0.3957  1.5122
41847SOL     OW31503   7.236   4.201   5.092 -0.0615 -0.5950  0.6875
41847SOL    HW131504   7.264   4.190   5.182  1.0380  1.2848  0.6286
41847SOL    HW231505   7.145   4.232   5.099  0.0271 -0.4330  1.1561
41848SOL     OW31506   8.872  10.168   4.576 -0.1013  0.6142  0.1004
41848SOL    HW131507   8.880  10.252   4.621 -0.2355  0.2483  0.8276
41848SOL    HW231508   8.962  10.138   4.564 -0.0664 -0.2558  2.0360
41849SOL     OW31509   9.429  11.046   5.259  0.1311  0.0315 -0.1889
41849SOL    HW131510   9.361  11.114   5.260  0.0185 -0.0236  2.3217
41849SOL    HW231511   9.384  10.967   5.291  1.1359 -0.2617  0.5331
41850SOL     OW31512   9.623  12.430   2.854 -0.0937  0.3474 -0.0583
41850SOL    HW131513   9.708  12.389   2.838  0.3164  0.8008  0.9254
41850SOL    HW231514   9.609  12.421   2.948 -2.3198 -2.0009 -0.4845
41851SOL     OW31515   1.762  10.025   7.431 -0.5187 -1.0647 -0.3168
41851SOL    HW131516   1.819  10.076   7.489 -0.5961 -1.4089  0.0647
41851SOL    HW231517   1.674  10.035   7.469 -0.9439  0.4640 -1.5745
41852SOL     OW31518   5.094   1.898  11.684 -0.1174 -0.2485 -0.3270
41852SOL    HW131519   5.092   1.993  11.699  0.4480 -0.1799 -0.6841
41852SOL    HW231520   5.179   1.870  11.717 -0.0413 -0.5412 -0.7606
41853SOL     OW31521   2.623  10.608   9.173 -0.2919  0.2878  0.4192
41853SOL    HW131522   2.685  10.646   9.111 -0.0321 -1.0640 -0.1692
41853SOL    HW231523   2.603  10.680   9.233  0.0765  1.3894 -0.7388
41854SOL     OW31524   3.718  11.550   2.102  0.3416 -0.0775 -0.3090
41854SOL    HW131525   3.717  11.548   2.006  1.4594 -0.9974 -0.3296
41854SOL    HW231526   3.658  11.620   2.126  0.5713  0.6195 -1.7005
41855SOL     OW31527   0.036   4.259   1.316 -0.8887 -0.3268  0.0929
41855SOL    HW131528  -0.024   4.243   1.244  0.1021 -0.4071 -0.7250
41855SOL    HW231529   0.053   4.353   1.312 -1.5480 -0.1605  0.8136
41856SOL     OW31530   3.607  10.719   9.907  0.0943 -0.0031  0.4490
41856SOL    HW131531   3.674  10.751   9.967  0.0560 -0.1678  0.5814
41856SOL    HW231532   3.529  10.708   9.961 -0.4652  1.5668  0.0103
41857SOL     OW31533   1.999   8.784   4.413 -0.4466 -0.4364 -0.3504
41857SOL    HW131534   2.029   8.854   4.472  1.3555 -1.1919 -0.2959
41857SOL    HW231535   1.981   8.710   4.472  1.0060 -1.0760 -0.6578
41858SOL     OW31536  10.660   8.048  11.621 -0.1974  0.0379  0.0615
41858SOL    HW131537  10.568   8.036  11.598 -0.1022  0.0961 -0.3503
41858SOL    HW231538  10.708   8.004  11.551  0.1231  1.4043 -0.6021
41859SOL     OW31539  11.980  10.182   5.302  0.0848  0.4530  0.2204
41859SOL    HW131540  11.991  10.097   5.259 -0.5895 -0.2954  1.4616
41859SOL    HW231541  12.068  10.205   5.334  0.3317  0.3869 -0.4004
41860SOL     OW31542   8.785   3.417   1.783 -0.1579 -0.6701  0.2529
41860SOL    HW131543   8.825   3.347   1.835  1.3593  0.2611  0.3988
41860SOL    HW231544   8.730   3.371   1.720  1.4848 -2.0804 -0.2447
41861SOL     OW31545   7.635   9.234   1.782  0.3360 -0.7161 -0.1067
41861SOL    HW131546   7.600   9.296   1.847 -1.5458  0.0403 -1.7355
41861SOL    HW231547   7.635   9.284   1.700  2.4795 -1.6952 -0.7562
41862SOL     OW31548   7.925   8.629   4.377  0.5140 -0.1589  0.6216
41862SOL    HW131549   7.871   8.660   4.449 -3.1685 -1.0785 -1.5185
41862SOL    HW231550   7.891   8.541   4.358  1.8114 -0.1991 -1.7993
41863SOL     OW31551  11.177   5.190   2.484 -0.0991 -0.0605 -0.6413
41863SOL    HW131552  11.203   5.267   2.533 -1.1095 -0.0437 -0.1008
41863SOL    HW231553  11.083   5.203   2.467 -0.3728 -1.3221 -0.2294
41864SOL     OW31554   9.089   3.161   4.849  0.0017 -0.5332  0.1425
41864SOL    HW131555   9.113   3.214   4.925  1.9465  1.1734 -1.5447
41864SOL    HW231556   9.027   3.097   4.883 -2.3432  2.6084  2.4255
41865SOL     OW31557   7.458  11.019   9.606 -0.3573 -0.0472 -0.4062
41865SOL    HW131558   7.539  10.973   9.581  0.0356  0.7738 -0.6805
41865SOL    HW231559   7.430  10.975   9.686 -0.0448 -0.8233 -0.7033
41866SOL     OW31560   0.620   0.562   8.436 -0.5421 -0.0391  0.2342
41866SOL    HW131561   0.598   0.632   8.497  0.0816  0.3773 -0.0160
41866SOL    HW231562   0.706   0.585   8.402 -0.4546 -0.7774 -0.0687
41867SOL     OW31563  10.961   2.195   9.402  0.3955  0.0766 -0.3941
41867SOL    HW131564  10.954   2.103   9.428 -1.5453  0.7119  1.7294
41867SOL    HW231565  11.054   2.215   9.408  0.6837 -1.3905  0.4720
41868SOL     OW31566   5.024   1.822   0.499 -0.5391  0.5274 -0.4648
41868SOL    HW131567   4.930   1.805   0.498 -0.0962 -2.5301 -0.7010
41868SOL    HW231568   5.052   1.798   0.588 -0.0064  1.7213 -0.2936
41869SOL     OW31569   3.634   5.603   4.888 -0.5687 -0.7546  0.2517
41869SOL    HW131570   3.640   5.696   4.911 -2.6841 -1.1150  2.6904
41869SOL    HW231571   3.724   5.578   4.867  0.2253  1.5953  0.5449
41870SOL     OW31572   2.044   0.865  11.813  0.1853  0.2805 -0.0521
41870SOL    HW131573   2.130   0.832  11.838 -0.4035 -0.4247  1.1379
41870SOL    HW231574   2.002   0.889  11.896 -1.1418 -0.3448 -0.5049
41871SOL     OW31575   8.158   6.469   8.724 -0.2269 -0.2113 -0.0107
41871SOL    HW131576   8.219   6.398   8.700 -0.1807 -0.3999  0.6523
41871SOL    HW231577   8.215   6.542   8.749 -0.2411 -0.7083  1.5766
41872SOL     OW31578   1.926  12.442   6.253  0.4634  0.1695 -0.1697
41872SOL    HW131579   1.930  12.498   6.331 -0.3007  0.1905 -0.1429
41872SOL    HW231580   2.017  12.440   6.221  1.4121 -2.0779  2.2793
41873SOL     OW31581   0.223   7.660  11.197 -0.2314 -0.5008  0.0874
41873SOL    HW131582   0.279   7.596  11.242 -0.0714 -0.3209  0.1434
41873SOL    HW231583   0.283   7.726  11.164 -0.1713 -1.4100 -1.7413
41874SOL     OW31584   6.802   5.861   9.744  0.2397  0.2080 -0.0915
41874SOL    HW131585   6.767   5.949   9.756  2.7652  1.2220  0.4086
41874SOL    HW231586   6.890   5.865   9.780  0.2133 -2.7339  0.5326
41875SOL     OW31587   7.759   3.638   4.576 -0.2452 -0.0022  0.4085
41875SOL    HW131588   7.788   3.640   4.667 -0.1625  2.5333  0.3962
41875SOL    HW231589   7.829   3.592   4.530  0.3550 -0.1322  1.4223
41876SOL     OW31590   0.383  11.270   8.229 -0.6184  0.2769  0.4180
41876SOL    HW131591   0.336  11.302   8.306 -0.5906 -2.1611  1.5396
41876SOL    HW231592   0.321  11.214   8.184  0.3304 -0.8194  0.4213
41877SOL     OW31593   6.899   5.880   0.130  0.4617 -0.1749 -0.1643
41877SOL    HW131594   6.870   5.875   0.221  0.5918 -1.3635 -0.1781
41877SOL    HW231595   6.973   5.820   0.125  0.2749 -0.3358 -1.1258
41878SOL     OW31596   2.635   4.500  10.027  0.6345 -0.2030 -0.0761
41878SOL    HW131597   2.722   4.460  10.030  0.5692 -0.3111  0.4583
41878SOL    HW231598   2.595   4.477  10.111 -0.2233 -0.8536 -0.6472
41879SOL     OW31599   4.620   5.705   6.664 -0.3861 -0.2742  0.4071
41879SOL    HW131600   4.627   5.621   6.710  0.3379 -0.1330  0.5577
41879SOL    HW231601   4.621   5.681   6.571 -1.1002 -0.4963  0.4422
41880SOL     OW31602   0.956   8.810   4.173 -0.4110  0.1643  0.4718
41880SOL    HW131603   0.973   8.802   4.267 -2.0214  1.7263  0.9634
41880SOL    HW231604   0.920   8.898   4.163  3.2458  1.6221 -2.2016
41881SOL     OW31605   4.773   9.147   2.444 -0.3157 -0.1997  0.5091
41881SOL    HW131606   4.711   9.149   2.517 -0.1187 -0.3161  0.6818
41881SOL    HW231607   4.723   9.177   2.369 -0.2960  0.7820  0.8721
41882SOL     OW31608   4.308   5.354   1.947  0.0094  0.2959 -0.1554
41882SOL    HW131609   4.304   5.272   1.898 -0.2698 -0.4834  1.1301
41882SOL    HW231610   4.387   5.346   2.001  1.1051  1.7322 -1.4460
41883SOL     OW31611  10.682   4.218   8.843  0.1046  0.2527  0.2763
41883SOL    HW131612  10.764   4.175   8.868  0.6731  1.3136  0.3084
41883SOL    HW231613  10.710   4.301   8.803 -0.8078 -0.7327 -2.6688
41884SOL     OW31614   4.739   7.416   6.306  0.3213 -0.5040  0.0991
41884SOL    HW131615   4.697   7.330   6.310  0.0846 -0.3872  0.1467
41884SOL    HW231616   4.732   7.451   6.395  1.2217 -0.8116  0.3053
41885SOL     OW31617   2.383   5.095   7.266 -0.0710  0.1793 -0.2703
41885SOL    HW131618   2.289   5.103   7.252 -0.3124  0.4355  1.2641
41885SOL    HW231619   2.398   5.135   7.352  1.3786 -0.2036 -0.3100
41886SOL     OW31620   4.613   7.443  10.236  0.1995  0.0748 -0.3069
41886SOL    HW131621   4.637   7.361  10.279 -0.1485  0.0226 -0.2038
41886SOL    HW231622   4.560   7.489  10.301  1.2572  0.8561  0.0253
41887SOL     OW31623   0.152   1.659   3.631  0.4665 -0.5843  0.2495
41887SOL    HW131624   0.106   1.638   3.550 -0.8094 -0.1115  0.8257
41887SOL    HW231625   0.204   1.737   3.611 -1.6277  0.9412  0.4614
41888SOL     OW31626   3.488  11.190   1.040 -0.3220 -0.7457  0.4372
41888SOL    HW131627   3.520  11.100   1.044  1.0616 -0.3736 -1.0482
41888SOL    HW231628   3.406  11.185   0.990  0.5979 -1.0205 -1.0994
41889SOL     OW31629   1.721   4.935   9.119 -0.3956 -0.1468 -0.5392
41889SOL    HW131630   1.777   5.001   9.078 -0.7874  0.3421 -0.2867
41889SOL    HW231631   1.720   4.863   9.056 -1.2696  0.7358 -1.5853
41890SOL     OW31632   5.101   1.384  11.997 -0.0452 -0.5449 -0.7152
41890SOL    HW131633   5.049   1.361  12.074  2.3687  0.6381  1.4208
41890SOL    HW231634   5.045   1.444  11.947 -1.0238  0.1496  1.1215
41891SOL     OW31635  12.349   8.448   6.286 -0.4380 -0.1320 -0.1533
41891SOL    HW131636  12.317   8.380   6.228 -1.3662  0.3065 -0.1704
41891SOL    HW231637  12.404   8.503   6.230  0.0352 -0.6664 -0.2172
41892SOL     OW31638   6.719   7.182   2.252 -0.0182 -0.4525  0.1958
41892SOL    HW131639   6.811   7.173   2.227 -0.1785 -0.1772 -0.5140
41892SOL    HW231640   6.712   7.269   2.290 -0.1122 -0.2154 -0.3525
41893SOL     OW31641  10.175   6.382   2.891 -0.1755 -0.0206 -0.7164
41893SOL    HW131642  10.172   6.335   2.974  2.8323  0.2266 -0.3572
41893SOL    HW231643  10.221   6.463   2.910 -0.4750  0.5930 -2.4086
41894SOL     OW31644   2.287  11.944  10.114 -0.2392 -0.1740 -0.2413
41894SOL    HW131645   2.239  11.904  10.186  1.8675  0.2290  1.5022
41894SOL    HW231646   2.229  12.014  10.083 -1.9668 -1.5241 -0.2240
41895SOL     OW31647   6.062   1.751  10.143 -0.1231  0.4808 -0.0124
41895SOL    HW131648   6.102   1.826  10.185  0.3897  0.3495 -0.2601
41895SOL    HW231649   6.092   1.754  10.052  1.2144 -0.9118  0.3441
41896SOL     OW31650   6.723   1.018   0.204 -0.2058  0.1521  0.7520
41896SOL    HW131651   6.728   1.108   0.172  1.9305  0.8495  2.7573
41896SOL    HW231652   6.734   1.026   0.299  1.4057 -2.2791  0.8605
41897SOL     OW31653  12.488  12.382   6.762  0.2798  0.7714 -0.2124
41897SOL    HW131654  12.541  12.404   6.685 -0.6480 -0.0382 -1.1227
41897SOL    HW231655  12.488  12.461   6.815  2.6100  0.7149 -0.0403
41898SOL     OW31656   8.980   1.637  11.192 -0.3246 -0.0578 -0.2828
41898SOL    HW131657   9.069   1.603  11.199 -0.7378 -1.3727 -1.1716
41898SOL    HW231658   8.936   1.607  11.271  0.2706  1.4844  0.6825
41899SOL     OW31659   8.711  12.349   0.474  0.1641  0.4116  0.4108
41899SOL    HW131660   8.648  12.338   0.403 -0.8399  1.9946  1.0240
41899SOL    HW231661   8.742  12.260   0.492 -0.8071 -0.2150 -0.8607
41900SOL     OW31662   9.542   7.919   7.353  0.4002 -0.2856 -0.1693
41900SOL    HW131663   9.467   7.885   7.402  0.2225  1.0634  0.5499
41900SOL    HW231664   9.585   7.978   7.414  1.2813 -0.0221 -1.0243
41901SOL     OW31665   5.283   5.392  12.369 -0.5221  0.0077 -0.1388
41901SOL    HW131666   5.256   5.424  12.283 -2.3833 -0.8190  0.0765
41901SOL    HW231667   5.223   5.435  12.430  0.5423  0.3079  0.7336
41902SOL     OW31668  10.757   5.489   8.350  0.3798  0.0785 -0.0660
41902SOL    HW131669  10.719   5.488   8.438  2.1155 -1.2667  0.7344
41902SOL    HW231670  10.717   5.414   8.306 -0.6753  0.8944 -0.5669
41903SOL     OW31671   2.775   1.541   9.096 -0.5788 -0.1629  0.4258
41903SOL    HW131672   2.728   1.460   9.079  1.2559 -1.4609  1.1462
41903SOL    HW231673   2.819   1.526   9.180  0.0820  1.4488  0.4067
41904SOL     OW31674   3.004   8.076   1.243 -0.2261 -0.1545  0.3418
41904SOL    HW131675   3.017   8.057   1.150  1.5097 -0.8541  0.6967
41904SOL    HW231676   3.060   8.151   1.261 -0.6602  0.0661  0.8137
41905SOL     OW31677   8.951   4.180   4.982 -0.1661 -0.0362  0.0104
41905SOL    HW131678   8.888   4.130   4.931  1.3869 -1.7467 -0.3407
41905SOL    HW231679   8.906   4.199   5.064 -1.2327 -0.9754 -0.3362
41906SOL     OW31680   7.650   3.153   8.736 -0.3376  0.3482  0.2810
41906SOL    HW131681   7.568   3.154   8.688 -1.4966 -1.0172  2.1103
41906SOL    HW231682   7.663   3.244   8.764 -0.0217  1.0167 -1.8655
41907SOL     OW31683   6.347  12.126   6.908 -0.0587  0.7383  1.1156
41907SOL    HW131684   6.400  12.190   6.860  0.2015 -0.3835 -0.1540
41907SOL    HW231685   6.257  12.154   6.895  0.0275  0.6260  0.1876
41908SOL     OW31686   3.368   8.153   1.223  0.0391 -0.4022 -0.0147
41908SOL    HW131687   3.369   8.058   1.209 -1.5340 -0.3100 -0.9621
41908SOL    HW231688   3.383   8.190   1.136 -0.3296  0.2147  0.1762
41909SOL     OW31689   1.768   4.973   8.486 -0.2866 -0.3115  0.2301
41909SOL    HW131690   1.744   5.066   8.488  0.4620 -0.0934 -0.5077
41909SOL    HW231691   1.863   4.973   8.491 -0.2909 -1.0538  0.4083
41910SOL     OW31692   0.927   1.478   1.059  0.2435 -0.2393  0.3766
41910SOL    HW131693   0.951   1.407   1.120 -0.1825 -1.1507 -0.4906
41910SOL    HW231694   0.832   1.477   1.057  0.2541 -0.2072 -0.2848
41911SOL     OW31695   8.423   2.556   5.738  0.2052 -0.2528 -0.5653
41911SOL    HW131696   8.420   2.531   5.646 -1.3578  2.2177 -1.2802
41911SOL    HW231697   8.496   2.618   5.744  0.5999 -0.7541 -0.0077
41912SOL     OW31698  12.490   0.340   4.636 -0.6371  0.4051 -0.5276
41912SOL    HW131699  12.427   0.389   4.689 -0.2151 -1.8525  2.3295
41912SOL    HW231700  12.530   0.405   4.579 -4.0794  2.2711 -1.0875
41913SOL     OW31701   9.361   6.947   5.087  0.2658 -0.4882 -0.2206
41913SOL    HW131702   9.278   6.958   5.133 -0.1346 -1.3743 -0.7036
41913SOL    HW231703   9.386   6.857   5.104  1.2252 -0.1778  0.0592
41914SOL     OW31704   9.491   6.434   5.567  0.1473  0.3264 -0.1705
41914SOL    HW131705   9.565   6.482   5.530 -0.0266 -0.1482 -1.1880
41914SOL    HW231706   9.531   6.358   5.610  0.2514 -0.0206 -0.8672
41915SOL     OW31707   5.530   8.479   6.842  0.2654  0.1526 -0.1852
41915SOL    HW131708   5.532   8.406   6.780 -0.1241 -0.8772  0.9440
41915SOL    HW231709   5.438   8.498   6.854  0.2438 -0.5950  1.0655
41916SOL     OW31710   4.657   4.831   3.404 -0.0242  0.4320  0.1108
41916SOL    HW131711   4.623   4.743   3.392 -0.6085  0.6002  0.4714
41916SOL    HW231712   4.750   4.819   3.423  0.4428  0.0387 -2.1552
41917SOL     OW31713  11.645  10.765   9.365  0.4395  0.0146  0.1674
41917SOL    HW131714  11.691  10.724   9.439  2.2911 -0.7061 -1.2879
41917SOL    HW231715  11.598  10.693   9.324  0.6782  0.0927 -0.2443
41918SOL     OW31716  10.227  12.179   0.846 -0.0551 -0.5810  0.0137
41918SOL    HW131717  10.208  12.191   0.753 -0.1870  1.6842  0.2880
41918SOL    HW231718  10.313  12.136   0.848  1.0662  1.4846 -1.1752
41919SOL     OW31719   9.083   7.535   5.210  0.0703  0.1047  0.8680
41919SOL    HW131720   9.020   7.599   5.244 -0.9793 -1.9393  3.0281
41919SOL    HW231721   9.034   7.485   5.146 -0.1974 -0.7324  1.7035
41920SOL     OW31722  11.138   0.965   6.664  0.4429 -0.2198 -0.1074
41920SOL    HW131723  11.184   0.930   6.741  1.0247 -0.0894 -0.3876
41920SOL    HW231724  11.167   1.056   6.659 -3.4298  1.4082  2.4692
41921SOL     OW31725   7.235  11.967   1.897  0.1677  0.5491  0.3755
41921SOL    HW131726   7.170  12.033   1.924 -0.2530  0.4077 -0.2900
41921SOL    HW231727   7.193  11.919   1.826  0.8307  0.1580  0.2415
41922SOL     OW31728   7.133   4.597   7.995  0.6017  0.1297 -0.4557
41922SOL    HW131729   7.218   4.581   7.953  0.0440  1.0068 -2.0564
41922SOL    HW231730   7.149   4.672   8.052  0.9424  0.2148 -0.6571
41923SOL     OW31731  10.180   2.542   4.504  0.2456  0.0024 -0.2958
41923SOL    HW131732  10.213   2.630   4.486  1.3619 -0.0929  1.1362
41923SOL    HW231733  10.114   2.554   4.573 -2.4056  0.1094 -2.6648
41924SOL     OW31734   5.516  12.327   9.542  0.0452 -0.0003  0.2527
41924SOL    HW131735   5.495  12.256   9.602 -0.5246 -0.5579 -0.5852
41924SOL    HW231736   5.596  12.298   9.497 -0.6258 -0.4888 -0.6553
41925SOL     OW31737   6.644   1.246   7.174 -0.0088  1.1148 -0.1361
41925SOL    HW131738   6.661   1.326   7.224  1.1145  0.8834 -0.1254
41925SOL    HW231739   6.603   1.187   7.236  2.3066  0.4460  0.8740
41926SOL     OW31740   6.448   1.123   0.598 -0.0989  0.2324  0.2637
41926SOL    HW131741   6.433   1.058   0.666  1.0610 -0.7502 -0.3682
41926SOL    HW231742   6.368   1.174   0.595  0.2828  1.1838  3.2539
41927SOL     OW31743   6.114  10.591  11.201 -0.0417 -0.2063  0.1495
41927SOL    HW131744   6.023  10.582  11.230  0.1445  0.9800  1.1853
41927SOL    HW231745   6.161  10.619  11.280  1.0290  0.2050 -0.6243
41928SOL     OW31746  12.129   6.513   4.544 -0.6732  0.2046  0.3695
41928SOL    HW131747  12.165   6.486   4.460 -0.2779  1.1653  0.2092
41928SOL    HW231748  12.149   6.441   4.604  0.4645  0.2022  0.0013
41929SOL     OW31749   3.641   7.408   3.078 -0.1736  0.0615  0.1762
41929SOL    HW131750   3.727   7.381   3.046 -0.7311 -1.0098 -0.4844
41929SOL    HW231751   3.590   7.326   3.082 -1.3759  0.7708 -0.1284
41930SOL     OW31752   5.222   5.787   1.980  0.1020  0.8965 -0.4976
41930SOL    HW131753   5.308   5.745   1.986 -0.3539  0.1077  1.1269
41930SOL    HW231754   5.172   5.730   1.921 -0.5350 -1.0346  1.7424
41931SOL     OW31755  10.595   8.378   0.450  0.3347 -0.2099 -0.1189
41931SOL    HW131756  10.610   8.416   0.364 -3.3922 -0.6602 -1.1571
41931SOL    HW231757  10.538   8.440   0.494  2.0601 -0.0628  2.0709
41932SOL     OW31758  10.902   3.828   3.999 -0.3111  0.0721  0.2151
41932SOL    HW131759  10.821   3.809   3.951  0.1763  0.6876 -0.8784
41932SOL    HW231760  10.896   3.921   4.020 -0.3807 -0.1225  1.1168
41933SOL     OW31761   4.667   4.570  12.305 -0.5347 -0.4336  0.1963
41933SOL    HW131762   4.652   4.639  12.370 -1.2883 -0.1307 -0.2898
41933SOL    HW231763   4.761   4.576  12.286 -0.4600 -0.0020  0.6638
41934SOL     OW31764   0.249   8.621   9.775  0.1378  0.1604 -0.4925
41934SOL    HW131765   0.220   8.673   9.850 -2.9425  0.6772 -1.8877
41934SOL    HW231766   0.278   8.686   9.711  2.1603 -0.2478 -0.0456
41935SOL     OW31767   3.043   5.271   3.636  0.3270 -0.3956  0.2492
41935SOL    HW131768   3.006   5.289   3.722 -0.3456  0.0279 -0.1256
41935SOL    HW231769   3.088   5.187   3.646 -0.5351 -0.8055  0.7734
41936SOL     OW31770   2.512  11.250   2.949  0.6216 -0.1283 -0.2323
41936SOL    HW131771   2.424  11.245   2.912  0.9384  1.4936 -1.3230
41936SOL    HW231772   2.514  11.335   2.993  1.2696 -0.6838  0.8370
41937SOL     OW31773  11.977   5.728  10.927 -0.1576 -0.2321  0.1412
41937SOL    HW131774  11.904   5.669  10.912  0.5632 -1.1444  0.1291
41937SOL    HW231775  12.052   5.670  10.944  0.5097  0.6774  0.3912
41938SOL     OW31776   7.409  12.016   1.124 -0.1759 -0.5490  0.4915
41938SOL    HW131777   7.322  12.009   1.164 -0.6941  0.1741 -0.4821
41938SOL    HW231778   7.402  12.089   1.064  1.0558 -0.6261  0.2309
41939SOL     OW31779   6.691  12.311   7.519  0.3806 -0.1943  0.0120
41939SOL    HW131780   6.676  12.250   7.447  0.9611 -0.0356 -0.2509
41939SOL    HW231781   6.604  12.335   7.549  0.1374 -0.3583 -0.5560
41940SOL     OW31782   5.496   3.299  11.756  0.8382  1.0187  0.1742
41940SOL    HW131783   5.405   3.321  11.738  0.8637  1.8609  1.0017
41940SOL    HW231784   5.542   3.383  11.754  1.2140  0.8973  1.8698
41941SOL     OW31785   1.755   8.777   6.985 -0.3616 -0.0247 -0.2982
41941SOL    HW131786   1.814   8.839   7.028 -0.4909  1.0000 -1.5300
41941SOL    HW231787   1.673   8.827   6.974 -0.0739  0.0546 -2.4525
41942SOL     OW31788   6.157   5.658   0.673  0.4784  0.1023 -0.1079
41942SOL    HW131789   6.091   5.705   0.622 -2.7364 -2.3955  1.4141
41942SOL    HW231790   6.177   5.717   0.746 -0.5604  0.6820 -0.2660
41943SOL     OW31791   4.952   1.840  11.130 -0.6428 -0.3464 -0.2471
41943SOL    HW131792   4.942   1.907  11.199  1.4255  1.8922 -1.9103
41943SOL    HW231793   4.905   1.875  11.055  1.4947 -0.0115 -1.5400
41944SOL     OW31794  10.333   0.275   4.144 -0.3461  0.5561 -0.3575
41944SOL    HW131795  10.416   0.276   4.191 -0.4822  2.3012 -0.1145
41944SOL    HW231796  10.348   0.330   4.067 -1.4266  1.3833 -0.0059
41945SOL     OW31797   5.523   3.056   2.248  0.2978  0.4877  0.3425
41945SOL    HW131798   5.528   3.073   2.154  0.7238  2.6081  0.6963
41945SOL    HW231799   5.522   2.960   2.255  0.0932  0.2777 -1.8043
41946SOL     OW31800   1.714   6.624   0.840 -0.3152 -0.1050 -0.0728
41946SOL    HW131801   1.644   6.682   0.869  0.1372  0.2173  0.4014
41946SOL    HW231802   1.672   6.562   0.780 -1.4849 -1.3208  1.8860
41947SOL     OW31803   0.607  11.565   5.519 -0.2691  0.0125 -0.0041
41947SOL    HW131804   0.622  11.656   5.544 -1.7457  0.2492  0.1168
41947SOL    HW231805   0.522  11.543   5.557 -0.3379 -1.1551 -0.7571
41948SOL     OW31806   1.690   7.931  10.191 -0.8125  0.4399  0.1672
41948SOL    HW131807   1.710   8.022  10.171 -1.1236  1.1152  2.6138
41948SOL    HW231808   1.642   7.934  10.273  1.0665 -2.0506  1.5121
41949SOL     OW31809   0.613  11.377  12.383 -0.3202 -0.1184  0.3957
41949SOL    HW131810   0.585  11.469  12.380 -0.2245 -0.0451  1.5515
41949SOL    HW231811   0.700  11.377  12.344  0.3746  0.5552  1.9123
41950SOL     OW31812   1.471  11.679   6.322 -0.0678  0.5549 -0.1578
41950SOL    HW131813   1.454  11.706   6.412 -0.5939  0.3295 -0.1844
41950SOL    HW231814   1.558  11.639   6.324  0.5927  1.9441 -0.0546
41951SOL     OW31815   4.111  11.126   6.519 -0.1839 -0.6383  0.1127
41951SOL    HW131816   4.192  11.177   6.520  0.2194 -1.2387 -0.7628
41951SOL    HW231817   4.125  11.059   6.451 -2.1911  0.5135 -1.5620
41952SOL     OW31818   3.456   7.586   3.004  1.1690 -0.4098 -0.2565
41952SOL    HW131819   3.468   7.605   3.097  0.3806  0.2871 -0.2918
41952SOL    HW231820   3.495   7.499   2.993 -1.9433 -2.2004  1.5070
41953SOL     OW31821   8.843   9.197   0.793  0.3340 -0.2197  0.0269
41953SOL    HW131822   8.885   9.251   0.859 -0.0582 -0.9174  0.8631
41953SOL    HW231823   8.762   9.244   0.771 -1.2481 -1.5725  2.5229
41954SOL     OW31824   7.366   9.117   3.620 -0.0719  0.0570  0.2093
41954SOL    HW131825   7.332   9.091   3.535 -1.6323  0.0340  0.7926
41954SOL    HW231826   7.460   9.130   3.607 -0.4539  1.0945 -1.7562
41955SOL     OW31827   7.560   7.947   1.412 -0.4208  0.0465 -0.4379
41955SOL    HW131828   7.569   7.855   1.388 -0.8224 -0.0637 -0.1755
41955SOL    HW231829   7.560   7.947   1.508 -0.1311  0.3494 -0.4366
41956SOL     OW31830   3.591  10.767   4.392  0.1444  0.5835 -0.1015
41956SOL    HW131831   3.643  10.746   4.470 -1.1016  0.2530  0.6652
41956SOL    HW231832   3.600  10.862   4.382  0.4195  0.6076  0.3625
41957SOL     OW31833   7.285  11.216   7.004 -0.6181 -0.5925 -0.2870
41957SOL    HW131834   7.216  11.238   6.940 -0.5431  0.3539 -0.0627
41957SOL    HW231835   7.323  11.135   6.971 -1.4939 -0.8477 -0.7007
41958SOL     OW31836   1.850  11.130   5.177  0.1842  0.4198 -0.2818
41958SOL    HW131837   1.758  11.112   5.198  0.5427 -1.1461  0.1239
41958SOL    HW231838   1.896  11.048   5.200  1.1238 -0.2719 -4.0201
41959SOL     OW31839   9.044  11.635   8.671 -0.5758  0.3618  0.3077
41959SOL    HW131840   8.976  11.620   8.737  0.0095  0.3397  0.9187
41959SOL    HW231841   9.123  11.650   8.722 -0.3969  1.8379 -0.3453
41960SOL     OW31842   5.622   7.075   1.472 -0.1927 -0.0031  0.4135
41960SOL    HW131843   5.628   7.170   1.484  0.9589 -0.2955  2.7299
41960SOL    HW231844   5.708   7.043   1.499 -0.4850 -1.7133 -0.5806
41961SOL     OW31845   1.358   4.711   4.456 -0.1902  0.4323  0.6037
41961SOL    HW131846   1.347   4.763   4.376  1.2351 -1.3075 -0.8136
41961SOL    HW231847   1.288   4.742   4.514 -1.9469  1.0858 -1.6814
41962SOL     OW31848   9.595   3.792   9.776 -0.3082  0.9186 -0.1310
41962SOL    HW131849   9.657   3.863   9.759  0.3771  0.0663 -1.3538
41962SOL    HW231850   9.618   3.724   9.713 -2.5390  0.5961 -0.6965
41963SOL     OW31851   4.336   7.695   3.713  0.3914 -0.0999 -0.2428
41963SOL    HW131852   4.394   7.731   3.646  2.0806  0.7886  1.6028
41963SOL    HW231853   4.259   7.751   3.711  0.7527  0.3896 -0.9018
41964SOL     OW31854   6.979   1.571   5.886 -0.3115  0.1068 -0.0953
41964SOL    HW131855   7.054   1.632   5.885  0.8923 -1.3195 -0.0774
41964SOL    HW231856   6.932   1.589   5.805  1.0998 -0.2010 -1.0120
41965SOL     OW31857   0.945   4.398  12.402 -0.0280  0.2783 -0.1771
41965SOL    HW131858   0.964   4.331  12.337 -0.6398  0.0442 -0.1221
41965SOL    HW231859   0.860   4.434  12.376 -0.7846 -0.5373  1.0620
41966SOL     OW31860  10.187   3.245   2.638  0.1071 -0.6259  0.1404
41966SOL    HW131861  10.274   3.280   2.661 -0.4449  0.2994  0.8728
41966SOL    HW231862  10.159   3.298   2.565  0.2089 -1.0217 -0.1902
41967SOL     OW31863   1.086   2.224  11.912  0.4646 -0.5628  0.2726
41967SOL    HW131864   1.072   2.140  11.956  1.7052 -0.3168  1.2138
41967SOL    HW231865   1.158   2.207  11.851  0.0060 -0.4345 -0.3102
41968SOL     OW31866   7.918   6.603  11.725 -0.2409 -0.2620 -0.5619
41968SOL    HW131867   7.848   6.648  11.771  1.2430  1.5845 -0.0104
41968SOL    HW231868   7.875   6.565  11.647 -1.4875  2.6146 -1.3972
41969SOL     OW31869   5.434  10.632   9.651 -0.3162 -0.1089 -0.7624
41969SOL    HW131870   5.449  10.611   9.559 -3.8283 -1.4505 -1.1463
41969SOL    HW231871   5.466  10.555   9.698 -1.3594 -0.8014 -1.1518
41970SOL     OW31872   8.348   0.811   7.675  0.0135 -0.1249  0.3025
41970SOL    HW131873   8.443   0.809   7.666 -0.0070 -1.0850  0.1805
41970SOL    HW231874   8.318   0.864   7.601  0.3933 -0.7397 -0.3014
41971SOL     OW31875   9.939   4.491   7.611 -0.3226  0.0229  0.4469
41971SOL    HW131876   9.971   4.531   7.530  0.0616 -0.1513  0.5057
41971SOL    HW231877   9.899   4.409   7.583 -1.0088  0.3954  0.3380
41972SOL     OW31878   3.126  10.506   6.487  0.4130  0.3420 -0.5484
41972SOL    HW131879   3.141  10.413   6.473 -1.8317 -0.1684  0.0074
41972SOL    HW231880   3.057  10.529   6.425 -0.3392  1.1694  0.5577
41973SOL     OW31881   7.538   0.163   5.929 -0.9162  0.8254 -0.0741
41973SOL    HW131882   7.530   0.256   5.908 -1.1908  1.2373  1.6381
41973SOL    HW231883   7.497   0.155   6.015  2.6073 -0.1049  1.7079
41974SOL     OW31884   6.731   0.235  10.778  0.5372  0.2457  0.1925
41974SOL    HW131885   6.710   0.162  10.720 -2.7010  0.0712  1.4171
41974SOL    HW231886   6.770   0.194  10.855 -0.5393 -0.1633  0.5387
41975SOL     OW31887   3.735   0.115  12.171 -0.1126  0.3595  0.3725
41975SOL    HW131888   3.657   0.068  12.140 -0.5321  0.8950  0.5844
41975SOL    HW231889   3.788   0.128  12.092 -0.3129  0.1236  0.1978
41976SOL     OW31890   7.792   1.095   6.755 -0.2019 -0.2017  0.7083
41976SOL    HW131891   7.803   1.187   6.732 -1.2912 -0.6174 -1.7275
41976SOL    HW231892   7.725   1.096   6.824  0.2751  0.8454  1.1873
41977SOL     OW31893   6.621   2.671   2.113  0.1665 -0.0572 -0.0582
41977SOL    HW131894   6.586   2.735   2.175  0.7848  0.7481 -0.5303
41977SOL    HW231895   6.566   2.680   2.035  0.7693  0.4912 -0.4271
41978SOL     OW31896   5.734   8.604   0.684 -0.4752 -0.2844 -0.5158
41978SOL    HW131897   5.707   8.694   0.665  1.4827  0.6494  0.7952
41978SOL    HW231898   5.774   8.609   0.771  1.7298 -1.9455 -1.3433
41979SOL     OW31899   0.560   1.219   6.777 -0.1155 -0.3610  0.2823
41979SOL    HW131900   0.570   1.143   6.721  0.0006 -2.1548  2.5819
41979SOL    HW231901   0.478   1.260   6.748  0.2987 -0.7607 -1.5891
41980SOL     OW31902  10.770   0.415   0.191 -0.0570 -0.1019  0.0905
41980SOL    HW131903  10.704   0.416   0.261  0.3298  0.6958  0.4582
41980SOL    HW231904  10.852   0.393   0.236 -0.1877 -2.0417 -0.5018
41981SOL     OW31905   2.327   7.847  10.872  0.3792 -0.1059 -0.1109
41981SOL    HW131906   2.408   7.811  10.836 -0.5580 -1.1456 -1.2782
41981SOL    HW231907   2.344   7.857  10.966  1.6898 -0.7564 -0.2667
41982SOL     OW31908   7.638   0.459   8.269  0.1446 -0.6075 -0.2816
41982SOL    HW131909   7.722   0.413   8.258  0.0396 -0.4915 -1.8756
41982SOL    HW231910   7.653   0.545   8.231 -0.2324  0.0082  0.9318
41983SOL     OW31911   1.009  11.282   4.184 -0.1015 -0.4328 -0.5698
41983SOL    HW131912   0.919  11.310   4.201  0.2968  0.1280  0.7969
41983SOL    HW231913   1.054  11.362   4.157  0.1594 -0.5563 -0.4984
41984SOL     OW31914  10.540   0.464   5.931 -0.0519  0.5649  0.4435
41984SOL    HW131915  10.562   0.373   5.949 -0.2934  0.4996  0.4126
41984SOL    HW231916  10.487   0.461   5.852 -0.3538  0.6965  0.6375
41985SOL     OW31917   2.489   5.470  12.145 -0.0468 -0.0254  0.5967
41985SOL    HW131918   2.461   5.557  12.116 -0.0130 -0.1134  0.2960
41985SOL    HW231919   2.421   5.411  12.112 -0.0517 -0.1189  0.7718
41986SOL     OW31920   3.209   3.969   2.937  0.1877  0.1160  0.1428
41986SOL    HW131921   3.235   3.910   3.007 -0.2657  1.0973  1.1611
41986SOL    HW231922   3.239   3.926   2.857 -0.9768 -1.9746  0.7629
41987SOL     OW31923   4.647   0.440  11.564 -0.3360 -0.3423 -0.5280
41987SOL    HW131924   4.709   0.478  11.502 -0.7994 -1.8890 -2.0427
41987SOL    HW231925   4.687   0.357  11.590 -1.0086 -0.5802 -0.2359
41988SOL     OW31926   2.982   5.553   0.099  0.0606 -0.4227  0.1431
41988SOL    HW131927   3.058   5.554   0.157 -0.3414  0.7339  0.6779
41988SOL    HW231928   3.019   5.549   0.011  0.6978 -1.2099  0.4387
41989SOL     OW31929   2.364   3.371  10.945  0.7037  0.5319 -0.4951
41989SOL    HW131930   2.391   3.438  10.882 -1.0973  0.0307 -1.8593
41989SOL    HW231931   2.314   3.419  11.011  1.5836  0.8744 -0.0506
41990SOL     OW31932   2.374   6.051   5.166  0.1727  0.6311 -0.2746
41990SOL    HW131933   2.305   6.055   5.099 -0.2702 -0.8830  0.0491
41990SOL    HW231934   2.337   5.996   5.235  1.5353  0.1778  0.1157
41991SOL     OW31935   6.568  11.605  11.500 -1.1112 -0.0616 -0.2402
41991SOL    HW131936   6.526  11.668  11.559 -0.5784 -0.6722  0.8132
41991SOL    HW231937   6.612  11.544  11.558  0.5754  0.0971 -1.3049
41992SOL     OW31938   6.662  10.537   0.087 -0.2619 -0.0332 -0.7461
41992SOL    HW131939   6.644  10.629   0.068  1.1772  0.3704 -0.2909
41992SOL    HW231940   6.757  10.530   0.083 -0.2808 -1.2495  0.3182
41993SOL     OW31941   4.052  11.971   7.767  0.0756 -0.0354 -0.6604
41993SOL    HW131942   4.125  11.965   7.828  0.0333  1.3741 -0.4203
41993SOL    HW231943   3.978  11.934   7.816 -0.0199  1.3323  0.2931
41994SOL     OW31944   9.794  10.232   5.210  0.1924  0.5778 -0.4923
41994SOL    HW131945   9.836  10.152   5.179 -0.3498 -0.0950  0.4323
41994SOL    HW231946   9.813  10.297   5.143  1.3170 -0.1204 -0.8746
41995SOL     OW31947   3.296   3.779  10.741  0.4920  0.3100  0.0659
41995SOL    HW131948   3.354   3.853  10.758 -0.1821  1.1361 -1.1564
41995SOL    HW231949   3.257   3.796  10.655 -0.7941 -0.7272  0.3932
41996SOL     OW31950   9.336   2.930   0.970  0.1605 -0.1711  0.0311
41996SOL    HW131951   9.241   2.941   0.963  0.1974  0.4119  0.4106
41996SOL    HW231952   9.350   2.837   0.950 -0.6818 -0.7216  1.8379
41997SOL     OW31953   2.504   0.340  10.840 -0.1412 -0.5963 -0.2435
41997SOL    HW131954   2.586   0.342  10.890 -0.6870  0.1641  0.6520
41997SOL    HW231955   2.528   0.299  10.757  0.8338 -1.7728  0.5706
41998SOL     OW31956  10.212   9.495   8.308 -0.4150  0.7825  0.2458
41998SOL    HW131957  10.156   9.504   8.384  0.3289  1.6431  0.7176
41998SOL    HW231958  10.225   9.401   8.298 -1.2490  0.6211  0.6265
41999SOL     OW31959   1.894   1.959   0.438 -0.0816  0.3120 -0.4104
41999SOL    HW131960   1.960   1.890   0.432 -0.2969  0.2034 -1.7867
41999SOL    HW231961   1.838   1.933   0.511  0.3827 -0.4833 -0.3311
42000SOL     OW31962   1.790   2.055   4.610  0.4769 -0.1006 -0.5829
42000SOL    HW131963   1.729   2.087   4.677  3.1559  3.4003  0.4577
42000SOL    HW231964   1.850   1.998   4.657  0.4977 -0.1487 -0.6683
42001SOL     OW31965   1.195   5.325   0.945 -0.4293 -0.4910  0.4593
42001SOL    HW131966   1.281   5.287   0.928 -0.8208 -1.0257 -0.3619
42001SOL    HW231967   1.188   5.397   0.883 -1.3371 -1.6427 -0.8159
42002SOL     OW31968  10.735   8.137   0.851 -0.3021  0.5402  0.1416
42002SOL    HW131969  10.723   8.110   0.760  0.4823  0.9263 -0.0895
42002SOL    HW231970  10.824   8.108   0.873  0.4744  2.5810 -0.0200
42003SOL     OW31971   1.473   4.253   1.083  0.4140  0.1217 -0.0202
42003SOL    HW131972   1.387   4.227   1.118  0.5501 -0.6631 -0.2309
42003SOL    HW231973   1.505   4.173   1.040 -0.2244  1.2990 -2.9122
42004SOL     OW31974   5.567   6.582   5.211  0.1916  0.8107 -0.0175
42004SOL    HW131975   5.597   6.492   5.199  0.6184  0.7344  1.4105
42004SOL    HW231976   5.484   6.587   5.163  0.2235 -0.3058 -0.2007
42005SOL     OW31977   6.084   9.679   3.876 -0.7106 -0.1960  0.5316
42005SOL    HW131978   6.060   9.587   3.861 -0.5755 -0.2337  0.5494
42005SOL    HW231979   6.062   9.695   3.968  1.0207 -0.7592  1.0823
42006SOL     OW31980  10.306  10.764   6.313  0.1197  0.0285 -0.4435
42006SOL    HW131981  10.355  10.819   6.374 -0.7519  1.0267 -0.6188
42006SOL    HW231982  10.289  10.821   6.238 -1.0447 -0.3766 -0.5110
42007SOL     OW31983   7.832  12.055   0.040 -0.4118  0.1998 -0.3763
42007SOL    HW131984   7.850  12.014  -0.045 -0.3551 -0.6844  0.0476
42007SOL    HW231985   7.872  11.996   0.104 -0.3835  0.8991  0.2624
42008SOL     OW31986   6.238   0.424   2.139 -0.0441  0.8813  0.3953
42008SOL    HW131987   6.154   0.407   2.182  1.3118 -0.6493  2.6370
42008SOL    HW231988   6.276   0.496   2.189  0.4277  0.8520  0.0809
42009SOL     OW31989   2.140  12.394   2.592  0.6814 -0.2155  0.4038
42009SOL    HW131990   2.108  12.483   2.603  1.2861  0.4339 -2.3385
42009SOL    HW231991   2.235  12.402   2.594  0.7429 -0.8471  0.4238
42010SOL     OW31992   8.318   2.872  10.974 -0.2637  0.6430  0.5210
42010SOL    HW131993   8.238   2.824  10.955 -0.1090  0.6478 -0.1826
42010SOL    HW231994   8.360   2.822  11.044  0.5959 -1.1140 -1.1485
42011SOL     OW31995   5.760   2.258  11.838 -0.0085 -0.1542  0.3745
42011SOL    HW131996   5.808   2.195  11.785  0.0473  0.6843 -0.6077
42011SOL    HW231997   5.750   2.334  11.781 -2.4100 -0.2420  0.5625
42012SOL     OW31998   9.875   4.959   0.495 -0.3857  0.0560 -0.0925
42012SOL    HW131999   9.785   4.928   0.482 -1.2902  2.4660  0.0160
42012SOL    HW232000   9.877   5.047   0.458  1.5657  0.6003  1.1293
42013SOL     OW32001  11.328   6.958   9.674 -0.3284 -0.3585 -1.0864
42013SOL    HW132002  11.390   6.885   9.677  0.0133 -0.0570 -0.5561
42013SOL    HW232003  11.324   6.990   9.764  0.2514  0.8671 -1.4674
42014SOL     OW32004   1.020   7.873   9.223  0.4071 -0.2374 -0.1837
42014SOL    HW132005   1.024   7.777   9.230  1.5310 -0.2227 -0.5379
42014SOL    HW232006   1.081   7.895   9.153  0.2001  0.7526 -0.0635
42015SOL     OW32007   3.788   1.868   8.055  0.6966  0.2835  0.0362
42015SOL    HW132008   3.792   1.915   8.138  0.8622 -0.5038  0.4829
42015SOL    HW232009   3.705   1.895   8.016  0.1340 -0.1023  0.9308
42016SOL     OW32010   8.402  10.862  10.074 -0.5737 -0.2799  0.1624
42016SOL    HW132011   8.473  10.875  10.137 -0.7663 -0.5530  0.4397
42016SOL    HW232012   8.393  10.767  10.066 -0.5212 -0.2478 -0.3140
42017SOL     OW32013   3.934   5.967   6.397  0.4224 -0.0098  0.0509
42017SOL    HW132014   3.930   5.876   6.428 -0.5134 -0.1054 -0.3131
42017SOL    HW232015   3.982   6.013   6.466 -1.9124 -0.1477  1.9025
42018SOL     OW32016   6.365   3.185   2.176 -0.2449  0.2966  0.1606
42018SOL    HW132017   6.373   3.278   2.198 -2.1399  0.2292  1.3013
42018SOL    HW232018   6.365   3.140   2.260  1.4816 -0.8779 -0.3989
42019SOL     OW32019  11.040  10.932  11.070  0.3572  0.8049 -0.1603
42019SOL    HW132020  11.028  10.955  11.162 -0.1080  0.2774 -0.0800
42019SOL    HW232021  10.971  10.980  11.024  1.1244  1.7560 -0.3569
42020SOL     OW32022   7.754   7.677   7.696 -1.0113  0.6360  0.7156
42020SOL    HW132023   7.798   7.742   7.640  0.8741  0.4677  1.9125
42020SOL    HW232024   7.688   7.727   7.744 -0.7041  1.3403  0.4182
42021SOL     OW32025   7.472  10.116   5.670 -0.2123  0.6186 -0.5394
42021SOL    HW132026   7.525  10.166   5.608  1.3237  0.5905  0.7150
42021SOL    HW232027   7.534  10.065   5.721 -1.5970 -0.9994 -0.3628
42022SOL     OW32028   5.456   2.280  11.479 -0.3606 -0.0028  0.2082
42022SOL    HW132029   5.464   2.353  11.541 -0.7318  0.0441  0.2058
42022SOL    HW232030   5.364   2.282  11.453  0.2248  1.3823 -2.0405
42023SOL     OW32031   2.092   1.121   7.923 -0.3996 -0.3438  0.0487
42023SOL    HW132032   2.175   1.098   7.966 -1.5834 -1.3540  1.9068
42023SOL    HW232033   2.063   1.039   7.883 -1.0561 -0.2765  0.3882
42024SOL     OW32034   7.374   6.245  11.807 -0.3241 -0.6210 -0.2693
42024SOL    HW132035   7.406   6.155  11.810 -0.0363 -0.5009  1.0717
42024SOL    HW232036   7.327   6.257  11.890  0.8768  0.8938  0.2476
42025SOL     OW32037   8.134   1.953   9.397 -0.2052  0.3296  0.3738
42025SOL    HW132038   8.112   1.959   9.489  0.6190  1.0327  0.5413
42025SOL    HW232039   8.111   2.039   9.360  0.9231  0.6163  0.2802
42026SOL     OW32040   4.729   4.090   2.541 -0.2283  0.0503  0.0275
42026SOL    HW132041   4.642   4.087   2.579 -0.2092 -0.6057  0.0235
42026SOL    HW232042   4.714   4.120   2.451 -0.3359  0.9654  0.3401
42027SOL     OW32043   6.261   7.858   7.381 -0.1059 -0.2482 -0.3406
42027SOL    HW132044   6.196   7.813   7.434  1.5906 -1.7735  0.5856
42027SOL    HW232045   6.306   7.916   7.442 -0.8665  1.1665 -1.0729
42028SOL     OW32046   0.254   1.152   4.999  0.2633 -0.6249  0.1210
42028SOL    HW132047   0.246   1.064   4.963  1.5076 -0.6575 -0.1235
42028SOL    HW232048   0.237   1.142   5.092  1.9324 -1.4284  0.3812
42029SOL     OW32049   3.625   0.251   7.075  0.4249  0.6711 -0.0843
42029SOL    HW132050   3.691   0.317   7.056 -0.5431  1.9898  0.9219
42029SOL    HW232051   3.542   0.293   7.052 -0.1928 -0.3067  0.2915
42030SOL     OW32052   5.660   5.707  10.418 -0.2314  0.1460  0.0286
42030SOL    HW132053   5.632   5.638  10.358 -1.3860  0.6862 -0.0841
42030SOL    HW232054   5.753   5.690  10.433 -0.3795 -1.1327 -0.3859
42031SOL     OW32055   3.398   9.945   6.130 -0.4679 -0.4831 -0.3670
42031SOL    HW132056   3.417  10.032   6.094 -2.5804  0.5497  0.7934
42031SOL    HW232057   3.478   9.920   6.177 -0.2066  1.3929  0.2784
42032SOL     OW32058   2.074   2.465  10.687 -0.1837  0.2937 -0.3594
42032SOL    HW132059   1.979   2.468  10.698 -0.0424  1.6581  0.8174
42032SOL    HW232060   2.095   2.371  10.683 -1.4071 -0.0982  1.3222
42033SOL     OW32061   7.262   3.027   0.404  0.0940 -0.1936 -0.0978
42033SOL    HW132062   7.271   3.075   0.487  0.7474 -2.9377  1.5525
42033SOL    HW232063   7.169   3.005   0.400  0.1700 -0.6018  0.2649
42034SOL     OW32064   7.858   6.718   3.034 -0.7378 -0.0697 -0.0041
42034SOL    HW132065   7.886   6.664   2.960 -0.2811 -0.0201  0.1302
42034SOL    HW232066   7.798   6.662   3.083 -0.3875 -0.4052  0.0495
42035SOL     OW32067   0.441   0.277   9.412  0.3361  0.1147  0.4336
42035SOL    HW132068   0.516   0.322   9.451  0.2364  0.3009  0.4065
42035SOL    HW232069   0.473   0.247   9.327 -0.2155  1.9053 -0.4484
42036SOL     OW32070   3.896   6.544   3.596  0.0801 -0.1323  0.1753
42036SOL    HW132071   3.972   6.573   3.647 -2.1796  1.0085  3.2506
42036SOL    HW232072   3.875   6.618   3.540  0.7415 -0.1332 -0.0784
42037SOL     OW32073   7.048  11.289  11.536  0.4774  0.2432 -0.1561
42037SOL    HW132074   6.982  11.222  11.553  0.7128  0.2329  0.7488
42037SOL    HW232075   7.090  11.304  11.621  1.1365  0.7819 -0.5657
42038SOL     OW32076   0.708  11.867   8.215  0.1271 -0.3395  0.2403
42038SOL    HW132077   0.677  11.850   8.126 -0.1349 -1.7864  0.5886
42038SOL    HW232078   0.803  11.859   8.210  0.2653  1.1981 -0.2192
42039SOL     OW32079   4.271  11.874   2.937 -0.3451 -0.1272 -0.1738
42039SOL    HW132080   4.319  11.843   2.860 -1.4728  0.5815 -1.1972
42039SOL    HW232081   4.218  11.947   2.904 -0.0415  0.9083  1.5091
42040SOL     OW32082  12.143   7.350   6.661 -0.4390  0.1259  0.8495
42040SOL    HW132083  12.060   7.318   6.696 -0.7284 -0.7716 -0.5513
42040SOL    HW232084  12.126   7.364   6.568  1.0779 -0.4970  0.4391
42041SOL     OW32085   0.856   2.073   7.100 -0.2072  0.4155  0.1033
42041SOL    HW132086   0.810   2.045   7.021 -2.4110 -0.3656  1.5535
42041SOL    HW232087   0.949   2.060   7.080 -0.8052 -2.0939 -1.5079
42042SOL     OW32088  11.445  11.561  12.486  0.1158 -0.0593  0.3259
42042SOL    HW132089  11.438  11.468  12.506  1.1723 -0.2609 -0.1259
42042SOL    HW232090  11.426  11.567  12.392 -0.1615  0.2122  0.3972
42043SOL     OW32091  11.217  11.555   5.942  0.7631  0.2231 -0.6927
42043SOL    HW132092  11.206  11.473   5.894 -0.2036  0.0918 -0.2746
42043SOL    HW232093  11.194  11.623   5.879  3.0010  0.3057 -1.5062
42044SOL     OW32094   0.755   7.399   6.060  0.0410 -0.2271  0.2341
42044SOL    HW132095   0.677   7.346   6.041 -1.0010  0.7824  1.4981
42044SOL    HW232096   0.720   7.479   6.100  1.7767 -0.2182  1.8556
42045SOL     OW32097  12.463   3.803   9.240 -0.1834  0.2279  0.6867
42045SOL    HW132098  12.551   3.835   9.259  0.4579 -1.1189  0.1073
42045SOL    HW232099  12.449   3.824   9.148  0.3908 -1.4003  0.1951
42046SOL     OW32100  11.994   6.433   7.793  0.1129  0.4355  0.5119
42046SOL    HW132101  12.054   6.456   7.864 -0.9729  1.9705  0.9857
42046SOL    HW232102  11.982   6.515   7.745 -0.1923 -0.2820 -0.6656
42047SOL     OW32103  12.406  10.475   1.041 -0.0592  0.0119 -0.1780
42047SOL    HW132104  12.457  10.399   1.012 -0.5584  0.2113 -1.6522
42047SOL    HW232105  12.472  10.544   1.053  0.3706 -0.5616  0.9784
42048SOL     OW32106  11.896   4.852   3.305 -0.0805 -0.2214 -0.7960
42048SOL    HW132107  11.862   4.767   3.332 -1.3708  1.0088  1.8381
42048SOL    HW232108  11.979   4.861   3.351 -0.2047  0.1412 -0.6345
42049SOL     OW32109   7.769   2.784   2.057  0.1656  0.5173  0.6188
42049SOL    HW132110   7.684   2.753   2.088  0.3715 -1.0041 -0.2451
42049SOL    HW232111   7.754   2.807   1.965  0.5075  0.9692  0.6744
42050SOL     OW32112  10.415  11.152   8.642  0.4294  0.1423  0.4572
42050SOL    HW132113  10.482  11.085   8.627  0.6095 -0.0883  2.1323
42050SOL    HW232114  10.340  11.104   8.678 -0.0248  0.6296  0.1765
42051SOL     OW32115  11.207   0.113   0.312  0.0032  0.4392 -0.1021
42051SOL    HW132116  11.253   0.088   0.392 -1.4523  0.0627  0.6632
42051SOL    HW232117  11.267   0.172   0.266  0.8753  0.6394  1.2554
42052SOL     OW32118   0.946   3.298   4.921 -0.1285 -0.7663  0.3176
42052SOL    HW132119   0.975   3.214   4.885  1.4620  0.5534 -1.7385
42052SOL    HW232120   0.861   3.314   4.880 -0.4859 -1.3874  0.7984
42053SOL     OW32121   1.940   9.837   1.214 -0.0182  0.0274  0.0384
42053SOL    HW132122   1.867   9.898   1.209  0.2995  0.6328  2.0908
42053SOL    HW232123   2.018   9.892   1.211  0.2747 -0.2378  1.6872
42054SOL     OW32124   4.168   3.131   2.103 -0.2619 -0.0478 -0.3171
42054SOL    HW132125   4.084   3.084   2.109  0.1824 -0.9268 -0.7351
42054SOL    HW232126   4.161   3.184   2.024  0.2957 -1.6657 -1.5159
42055SOL     OW32127   6.855   2.528   4.994  0.1441 -0.4494  0.0170
42055SOL    HW132128   6.762   2.510   5.011  0.0056  0.2598  0.0494
42055SOL    HW232129   6.894   2.442   4.981 -0.5399 -0.7520 -0.0896
42056SOL     OW32130   3.031   4.153  10.473  0.2714 -0.0471  0.0606
42056SOL    HW132131   2.944   4.158  10.511  0.6457 -0.4599  1.0070
42056SOL    HW232132   3.058   4.244  10.463 -0.1190  0.0752  0.1152
42057SOL     OW32133  10.962   4.658   9.625 -0.0223  0.1905  0.6559
42057SOL    HW132134  11.032   4.664   9.560 -1.5452 -0.4785 -1.1422
42057SOL    HW232135  10.944   4.565   9.634 -1.8745  0.3925 -0.3481
42058SOL     OW32136   1.628   1.823  11.091 -0.3390  0.2741  0.3402
42058SOL    HW132137   1.722   1.839  11.084  0.1463 -2.0370  0.9251
42058SOL    HW232138   1.604   1.855  11.178  0.4590 -1.4290  1.2207
42059SOL     OW32139   8.321   2.865  12.060 -0.1796 -0.0248  0.1025
42059SOL    HW132140   8.256   2.876  12.129 -0.3681 -2.8815  0.5012
42059SOL    HW232141   8.332   2.953  12.023 -3.3257  0.7996  0.8226
42060SOL     OW32142   3.752   3.762   3.514  0.2567  0.4028 -0.1821
42060SOL    HW132143   3.825   3.784   3.457  0.4816 -0.1711 -0.1198
42060SOL    HW232144   3.772   3.674   3.548 -0.8861 -0.1515 -0.8615
42061SOL     OW32145   9.720   1.630   6.590 -0.0036  0.4902 -0.0028
42061SOL    HW132146   9.660   1.704   6.579 -0.1959  0.4882  0.9094
42061SOL    HW232147   9.782   1.638   6.518 -1.3143  0.2838 -1.2065
42062SOL     OW32148   8.211  11.274  11.464  0.2319 -0.0627 -0.3064
42062SOL    HW132149   8.238  11.340  11.400  1.9703 -0.1747  0.2485
42062SOL    HW232150   8.206  11.192  11.415 -0.0217  0.1336 -0.6077
42063SOL     OW32151   5.030   0.694   6.002 -0.2563 -0.1986  0.3601
42063SOL    HW132152   4.995   0.714   5.915  0.9439  0.0267 -0.0876
42063SOL    HW232153   5.030   0.598   6.006 -0.7845 -0.2015  0.3121
42064SOL     OW32154   0.791   4.346   2.974 -0.1331 -0.1147 -0.3520
42064SOL    HW132155   0.873   4.305   3.001 -0.1913  0.5425  0.9146
42064SOL    HW232156   0.736   4.344   3.053 -0.4613  1.5693 -0.5007
42065SOL     OW32157   8.015   5.736   0.509 -0.9514  0.4504 -0.0975
42065SOL    HW132158   7.923   5.748   0.485 -0.3375  2.0300 -2.0132
42065SOL    HW232159   8.037   5.648   0.477 -1.8617 -0.0609  0.6589
42066SOL     OW32160   2.861  12.156   8.938 -0.3497  0.4495  0.1737
42066SOL    HW132161   2.840  12.191   8.852 -0.3579  1.2262  0.4863
42066SOL    HW232162   2.955  12.140   8.936 -0.3306  0.5810  0.0647
42067SOL     OW32163  10.323   8.606   9.118 -0.0456 -0.3191  0.1754
42067SOL    HW132164  10.325   8.688   9.070 -1.3870 -0.0795  0.4922
42067SOL    HW232165  10.324   8.632   9.210 -2.9496 -0.4689  0.3465
42068SOL     OW32166   3.015   9.363   3.080 -0.4553  0.1768 -0.0924
42068SOL    HW132167   2.922   9.388   3.078 -0.4153  0.3116 -0.2740
42068SOL    HW232168   3.061   9.439   3.046 -0.3637 -0.2766 -1.0130
42069SOL     OW32169   4.167   2.672   0.057  0.6009  0.0799 -0.2785
42069SOL    HW132170   4.199   2.628   0.137 -1.0618  0.7345  0.7965
42069SOL    HW232171   4.192   2.763   0.068  2.1816 -0.1595 -1.5227
42070SOL     OW32172   1.209   8.125   7.885 -0.1362 -0.0205 -0.4215
42070SOL    HW132173   1.276   8.153   7.948 -1.7648  0.8367  1.0333
42070SOL    HW232174   1.155   8.063   7.934 -0.8017 -0.1734 -1.3300
42071SOL     OW32175   0.766   4.864   7.597 -0.3119  0.5173  0.4025
42071SOL    HW132176   0.772   4.854   7.692  0.0442  1.3889  0.4798
42071SOL    HW232177   0.847   4.824   7.564 -0.0207  0.9837  0.5364
42072SOL     OW32178  10.618   7.047   6.491  0.2256 -0.1767 -0.1859
42072SOL    HW132179  10.531   7.011   6.505  0.2512 -0.1270  0.1201
42072SOL    HW232180  10.613   7.136   6.526  0.1022  0.1974 -1.1322
42073SOL     OW32181   1.637   6.226   9.306  0.4551 -0.2116  0.4639
42073SOL    HW132182   1.594   6.280   9.372 -0.3822 -0.9313  0.5254
42073SOL    HW232183   1.644   6.283   9.229  0.6239  0.3419  0.8855
42074SOL     OW32184  10.265   6.514   4.189  0.0890  0.2189  0.1189
42074SOL    HW132185  10.252   6.601   4.150 -1.5651  0.2085  0.5876
42074SOL    HW232186  10.335   6.475   4.136 -0.1319  1.2738 -1.0180
42075SOL     OW32187  11.832   1.456   9.086 -0.1169  0.1175 -0.7575
42075SOL    HW132188  11.804   1.366   9.103  0.5989  0.3580  2.3003
42075SOL    HW232189  11.925   1.448   9.065 -0.1890  0.1122 -1.0830
42076SOL     OW32190   3.866  10.461   8.245 -0.2003 -0.1733  0.0245
42076SOL    HW132191   3.785  10.508   8.223  0.5693  2.2681  1.9052
42076SOL    HW232192   3.841  10.399   8.313 -0.1680  2.6342  2.8195
42077SOL     OW32193   7.313   4.167   0.228  1.1120 -0.2005 -0.3623
42077SOL    HW132194   7.363   4.110   0.171 -0.8930 -0.9842 -1.4262
42077SOL    HW232195   7.237   4.193   0.176  0.3268  0.8400  1.2155
42078SOL     OW32196   9.358   2.133   0.153 -0.1602 -0.4739  0.1510
42078SOL    HW132197   9.441   2.135   0.200 -0.5304 -0.7581  0.8292
42078SOL    HW232198   9.296   2.176   0.212 -0.4014  0.1796 -0.5533
42079SOL     OW32199   7.973   6.775   9.292 -0.2317 -0.1951  0.2649
42079SOL    HW132200   7.882   6.755   9.314 -0.2301  0.1623  0.6195
42079SOL    HW232201   7.991   6.857   9.339 -0.0777  0.3515 -0.7326
42080SOL     OW32202   0.975   8.319   0.053  0.6049  0.5965  0.3901
42080SOL    HW132203   0.947   8.227   0.052 -0.7952  0.9749 -1.1840
42080SOL    HW232204   1.054   8.320   0.106 -0.1459 -1.2710  1.6381
42081SOL     OW32205  10.315  10.884   9.758 -0.0967 -0.0702 -0.0464
42081SOL    HW132206  10.376  10.944   9.800  0.3026 -0.3954 -0.1599
42081SOL    HW232207  10.369  10.831   9.700 -0.3069 -1.1482  0.7128
42082SOL     OW32208   9.113   6.534   8.384  0.4581 -0.5819  0.7734
42082SOL    HW132209   9.193   6.551   8.433  0.1555 -0.8821  1.3745
42082SOL    HW232210   9.095   6.617   8.339 -0.3449  0.3648  2.7381
42083SOL     OW32211   8.244   8.442   1.008  0.0528  0.1551 -0.0719
42083SOL    HW132212   8.187   8.454   0.933 -0.5247 -3.5785 -0.4364
42083SOL    HW232213   8.201   8.374   1.060  2.8052 -0.8640  1.0675
42084SOL     OW32214  10.254   9.200   2.668  0.0054 -0.4153  0.1616
42084SOL    HW132215  10.313   9.186   2.742 -2.2701  0.2204  2.2117
42084SOL    HW232216  10.250   9.115   2.624  1.4826 -0.7773  0.6816
42085SOL     OW32217  11.511   3.423   0.168  0.6343  0.1294  0.2259
42085SOL    HW132218  11.546   3.497   0.118 -1.3496 -0.6548 -2.5538
42085SOL    HW232219  11.586   3.365   0.181  2.2753  2.5631  2.6309
42086SOL     OW32220   0.903   4.302  10.814 -0.3871  0.4903 -0.4449
42086SOL    HW132221   0.821   4.254  10.805  0.6642 -1.2319 -1.4335
42086SOL    HW232222   0.879   4.393  10.798 -1.8600 -0.1669 -2.3966
42087SOL     OW32223   9.981   0.111   5.231 -0.0217 -0.4500 -0.0194
42087SOL    HW132224  10.057   0.127   5.286  0.4628  1.7547 -1.2332
42087SOL    HW232225   9.906   0.141   5.283  0.0068 -1.6984  0.7834
42088SOL     OW32226   6.657   0.651   0.749  0.0207  0.0686 -0.6619
42088SOL    HW132227   6.705   0.678   0.670  0.0071  1.4697 -0.2232
42088SOL    HW232228   6.715   0.588   0.792 -0.2454 -1.2086 -2.0820
42089SOL     OW32229   4.792   5.883  11.524  0.1983  0.1938 -0.3729
42089SOL    HW132230   4.770   5.937  11.600 -0.8772  0.0256 -0.5498
42089SOL    HW232231   4.770   5.938  11.448 -0.9988 -0.4898 -0.5567
42090SOL     OW32232   4.600   2.895   5.890 -0.4676  0.2943 -0.2818
42090SOL    HW132233   4.506   2.882   5.900 -0.6920  0.7466 -1.6365
42090SOL    HW232234   4.619   2.974   5.941 -0.8592  0.3458 -0.2134
42091SOL     OW32235   6.376   2.264   6.956  0.0132  0.3089 -0.5528
42091SOL    HW132236   6.418   2.213   7.025  1.9548  0.5375 -1.4874
42091SOL    HW232237   6.316   2.202   6.914 -0.5588 -0.0621  0.7799
42092SOL     OW32238   4.089   7.333   0.389  0.2700 -0.1307  0.0383
42092SOL    HW132239   4.015   7.391   0.371 -0.3609 -0.9227  0.0315
42092SOL    HW232240   4.067   7.252   0.343  1.0489 -0.4433  0.2105
42093SOL     OW32241   6.801   8.201   6.337 -0.3155  0.2099 -0.1171
42093SOL    HW132242   6.882   8.198   6.288 -0.1438 -3.1108  0.1804
42093SOL    HW232243   6.760   8.115   6.323 -2.3779  0.7277  2.0131
42094SOL     OW32244   4.406   8.182  11.214 -0.3737  0.6777  0.7621
42094SOL    HW132245   4.453   8.218  11.139 -0.2318 -0.4043  0.3095
42094SOL    HW232246   4.431   8.089  11.216 -0.8006  0.5671  1.8194
42095SOL     OW32247   8.962   4.640   5.601  0.0277  0.2200 -0.8902
42095SOL    HW132248   9.002   4.597   5.525  2.7338  2.5744 -0.9851
42095SOL    HW232249   8.883   4.681   5.567  0.1890 -0.3352 -1.9764
42096SOL     OW32250   5.266   9.596   0.416  0.8398  0.4041 -0.6239
42096SOL    HW132251   5.342   9.563   0.368  0.3068 -0.9446 -0.5719
42096SOL    HW232252   5.217   9.648   0.352  0.6803 -0.5168 -1.2664
42097SOL     OW32253   0.384   0.081   5.786 -0.1179 -0.0677  0.6097
42097SOL    HW132254   0.323   0.010   5.769  0.0698 -0.4353  1.4237
42097SOL    HW232255   0.359   0.150   5.724 -0.6503 -0.6289  0.1941
42098SOL     OW32256  10.323   1.234   0.447  0.2619 -0.5019  0.6903
42098SOL    HW132257  10.253   1.231   0.512 -0.6046 -0.5561 -0.2045
42098SOL    HW232258  10.339   1.143   0.424  0.6903 -0.4948  0.9551
42099SOL     OW32259  11.485   5.820   1.756 -0.1282 -0.4016 -0.2656
42099SOL    HW132260  11.391   5.811   1.772 -0.0133 -1.6461 -0.2450
42099SOL    HW232261  11.520   5.732   1.764  0.7998 -0.2318 -1.9753
42100SOL     OW32262   6.929  11.097   1.168 -0.2375  0.1060  0.3010
42100SOL    HW132263   6.870  11.166   1.141  0.2044 -0.1281 -1.3889
42100SOL    HW232264   7.005  11.105   1.109  0.1331 -1.3582  0.5183
42101SOL     OW32265   8.772   3.798  11.047 -0.1502  0.1167 -0.7642
42101SOL    HW132266   8.749   3.706  11.060 -0.4616  0.3826  0.6472
42101SOL    HW232267   8.769   3.809  10.952  0.7957 -1.5513 -1.0364
42102SOL     OW32268   6.774  11.253  12.272 -0.1316  0.1222 -0.0291
42102SOL    HW132269   6.703  11.313  12.248 -0.4416 -0.4950 -0.6865
42102SOL    HW232270   6.738  11.200  12.343  0.3153  1.0270  0.9068
42103SOL     OW32271   0.506   5.055   5.969 -0.6151 -0.3809  0.0759
42103SOL    HW132272   0.435   5.005   5.928 -1.1865  1.1759 -0.8938
42103SOL    HW232273   0.461   5.110   6.034 -0.7644  2.4669 -2.2238
42104SOL     OW32274  10.153   3.644   7.295  0.2956 -0.2473 -0.3597
42104SOL    HW132275  10.068   3.682   7.316  0.6039  0.1435  0.1705
42104SOL    HW232276  10.137   3.595   7.214 -0.2397  0.5059 -0.7203
42105SOL     OW32277   7.152   3.584   0.347 -0.7789  0.2599  0.0866
42105SOL    HW132278   7.150   3.679   0.331  0.7077  0.3527  0.2878
42105SOL    HW232279   7.167   3.546   0.261 -1.4120  0.1922  0.0004
42106SOL     OW32280   7.727   6.400   4.990  0.4313 -0.4149 -0.5152
42106SOL    HW132281   7.690   6.422   4.904 -1.2553  0.3665  0.3662
42106SOL    HW232282   7.821   6.391   4.973  1.0956  4.8876 -1.5817
42107SOL     OW32283   8.342   3.850  10.135  0.9435 -0.1322  0.2085
42107SOL    HW132284   8.337   3.765  10.092 -1.5993 -0.8633  1.7595
42107SOL    HW232285   8.356   3.912  10.064  2.6303 -1.7723 -0.9912
42108SOL     OW32286   8.405   4.934   0.135 -0.0764 -0.0244 -0.2617
42108SOL    HW132287   8.362   4.857   0.171  0.2139 -0.2016 -0.2843
42108SOL    HW232288   8.417   4.914   0.042 -1.2676  0.6373 -0.5687
42109SOL     OW32289   2.211   5.831  12.081  0.2353 -0.0767  0.0061
42109SOL    HW132290   2.131   5.790  12.049  0.1859 -1.2506  1.5431
42109SOL    HW232291   2.192   5.854  12.172  2.3041 -2.3573  1.1095
42110SOL     OW32292   2.663   3.782   1.600 -0.1102 -0.2137 -0.0453
42110SOL    HW132293   2.711   3.747   1.675  1.4943  0.6075 -0.6277
42110SOL    HW232294   2.663   3.877   1.615 -0.2132 -0.0854 -0.8321
42111SOL     OW32295   4.350   4.374  11.283 -0.4049 -0.2878  0.1615
42111SOL    HW132296   4.323   4.282  11.272 -0.2373 -0.1308 -1.9150
42111SOL    HW232297   4.442   4.375  11.259 -0.0286  0.2161  1.5449
42112SOL     OW32298   9.747   5.376   8.563 -0.5133  0.1261 -0.2624
42112SOL    HW132299   9.827   5.381   8.615 -0.2785 -0.4075 -0.5598
42112SOL    HW232300   9.771   5.321   8.488 -0.8976  0.7315 -0.8349
42113SOL     OW32301   6.507  10.964   4.832 -0.4067  0.1012 -0.2240
42113SOL    HW132302   6.519  10.978   4.738 -0.7029 -0.2908 -0.3228
42113SOL    HW232303   6.455  11.040   4.860  0.6868  0.8436 -0.1385
42114SOL     OW32304   3.738   2.496   4.697 -0.0037 -0.2335 -0.1492
42114SOL    HW132305   3.795   2.442   4.752 -0.4371 -1.0491 -0.4889
42114SOL    HW232306   3.792   2.572   4.675  0.5938 -0.4862  0.3915
42115SOL     OW32307   3.528   7.945   5.954 -0.4079  0.2744 -0.4665
42115SOL    HW132308   3.481   7.862   5.954  0.7639 -0.4179  0.2870
42115SOL    HW232309   3.487   7.996   6.024 -0.1106 -0.2827  0.1222
42116SOL     OW32310   3.792  10.096   3.247  0.2917 -0.5188 -0.0645
42116SOL    HW132311   3.782  10.174   3.302  3.2555 -0.2778  0.3043
42116SOL    HW232312   3.723  10.104   3.182 -0.9056  1.2205  1.3149
42117SOL     OW32313   4.117   9.148   1.956  0.2909  0.0801  0.4349
42117SOL    HW132314   4.151   9.229   1.918  0.3240 -0.6767 -1.2326
42117SOL    HW232315   4.123   9.084   1.885 -3.1988 -0.4669  0.4569
42118SOL     OW32316   5.276   7.362   3.110 -0.1256 -0.4994 -0.7583
42118SOL    HW132317   5.224   7.282   3.103 -1.3644  0.3084 -1.4310
42118SOL    HW232318   5.248   7.415   3.035  0.8504  0.4568 -0.4844
42119SOL     OW32319  10.864   2.435   2.136  0.1923  0.3722  0.0840
42119SOL    HW132320  10.955   2.408   2.147  0.3367  0.7920 -0.0959
42119SOL    HW232321  10.829   2.373   2.071  0.3422  0.2095  0.1563
42120SOL     OW32322   9.641   7.643   2.326  0.3009 -0.0192 -0.2084
42120SOL    HW132323   9.706   7.710   2.308 -0.7022  1.1512  0.4229
42120SOL    HW232324   9.673   7.599   2.405  0.8874 -0.2032 -0.5456
42121SOL     OW32325  11.938   3.121   7.203  0.1429 -0.3545 -0.5274
42121SOL    HW132326  11.904   3.182   7.138 -0.6085 -0.3214 -0.1115
42121SOL    HW232327  11.939   3.171   7.285  3.4048  0.4165 -0.9020
42122SOL     OW32328  11.826   1.946  11.892  0.6620  0.6087  0.1210
42122SOL    HW132329  11.852   1.931  11.801 -0.8137 -0.8176 -0.1304
42122SOL    HW232330  11.857   2.034  11.912  0.6640  1.1275 -1.9013
42123SOL     OW32331  12.163   2.949   5.178 -0.2991  0.6123 -0.4950
42123SOL    HW132332  12.089   2.892   5.156 -0.1845  0.2886 -0.0580
42123SOL    HW232333  12.225   2.935   5.107  0.0231 -0.3445 -0.0434
42124SOL     OW32334   9.568  10.986   7.531  0.3785  0.1016 -0.0586
42124SOL    HW132335   9.529  11.040   7.462 -0.0501  0.3767  0.3935
42124SOL    HW232336   9.610  11.049   7.590  1.1066 -0.1578 -0.2853
42125SOL     OW32337   6.490  10.056   8.710 -0.0100 -0.1211 -0.0700
42125SOL    HW132338   6.430  10.032   8.640 -0.8555 -1.1552  0.9517
42125SOL    HW232339   6.555   9.985   8.711  2.9555  2.2470 -2.8879
42126SOL     OW32340   9.208  12.469  10.349  0.3028 -0.0578  0.4582
42126SOL    HW132341   9.168  12.397  10.397  0.4418  0.2189  1.0037
42126SOL    HW232342   9.211  12.541  10.413 -2.0462  1.2193 -0.7411
42127SOL     OW32343   9.915   1.915   4.670 -0.1467 -0.0843  0.3309
42127SOL    HW132344   9.909   1.862   4.590 -3.0292 -1.0484  1.0675
42127SOL    HW232345   9.972   1.864   4.728 -1.2534 -1.4229  0.2876
42128SOL     OW32346  11.261   2.532   7.390 -0.1646 -0.1062  0.4697
42128SOL    HW132347  11.265   2.588   7.468  0.5138  0.3867  0.0860
42128SOL    HW232348  11.280   2.590   7.317 -1.1657 -0.4892 -0.1157
42129SOL     OW32349  10.326   9.175   1.210 -0.6404 -0.4923 -0.3193
42129SOL    HW132350  10.351   9.102   1.266 -0.2356 -1.3874 -1.6374
42129SOL    HW232351  10.239   9.151   1.177 -1.3340  0.5046  0.6684
42130SOL     OW32352  10.497   5.009   4.754 -0.0485 -0.4366  0.4434
42130SOL    HW132353  10.567   4.944   4.758 -0.5520 -0.9776  0.5998
42130SOL    HW232354  10.426   4.971   4.807 -0.8097 -0.3279 -0.4746
42131SOL     OW32355   1.051  12.439   1.812  0.1751 -0.0074 -0.0167
42131SOL    HW132356   1.100  12.513   1.849 -0.7517  1.0900 -0.8728
42131SOL    HW232357   0.960  12.471   1.809 -0.2290 -1.1690 -0.4629
42132SOL     OW32358  10.743   7.432   8.312  0.1392  0.3083  0.0453
42132SOL    HW132359  10.689   7.427   8.391 -2.5602  0.4602 -1.6586
42132SOL    HW232360  10.754   7.526   8.296  0.3163  0.2778 -0.0180
42133SOL     OW32361   3.154   2.933   3.257 -0.5102  0.3961  0.3745
42133SOL    HW132362   3.154   2.908   3.350 -0.9845  0.1250  0.3062
42133SOL    HW232363   3.246   2.940   3.234 -0.3865  0.1161  0.7752
42134SOL     OW32364   8.479   6.709   7.664  0.4013  0.1960 -0.4302
42134SOL    HW132365   8.500   6.720   7.756  1.0342 -2.3933 -0.2115
42134SOL    HW232366   8.403   6.766   7.650  0.8563  1.3338  1.4247
42135SOL     OW32367   6.232   9.214   8.396 -0.4082  0.5672 -0.0092
42135SOL    HW132368   6.212   9.188   8.486 -0.0627 -1.3387 -0.4319
42135SOL    HW232369   6.171   9.163   8.343  0.3421  0.5909 -0.9243
42136SOL     OW32370   8.254   1.597  11.084  0.1878  0.4735  0.0404
42136SOL    HW132371   8.289   1.508  11.090 -1.7088 -0.4519 -1.5201
42136SOL    HW232372   8.256   1.617  10.990  0.4937  2.0811  0.3544
42137SOL     OW32373   7.170   0.363   0.152  0.1069  0.8890  0.2084
42137SOL    HW132374   7.115   0.420   0.099 -2.3721 -0.6912  0.8910
42137SOL    HW232375   7.179   0.410   0.235 -1.1589  0.7340  0.4590
42138SOL     OW32376  11.602  10.792  10.589 -0.1217 -0.5432  0.1906
42138SOL    HW132377  11.541  10.828  10.653 -0.1469 -0.4920  0.1384
42138SOL    HW232378  11.553  10.721  10.547  0.2623 -1.2993  0.9769
42139SOL     OW32379  11.614   1.655   3.507  0.1260 -0.5568  0.2979
42139SOL    HW132380  11.659   1.679   3.425  0.9008  1.0792  1.1424
42139SOL    HW232381  11.676   1.597   3.552  0.5419  0.0771  0.5580
42140SOL     OW32382   1.604   4.643  11.387 -0.2370  0.1246 -0.2580
42140SOL    HW132383   1.646   4.673  11.467 -1.0516  2.0820 -0.5136
42140SOL    HW232384   1.510   4.654  11.403 -0.5937 -2.0904 -0.5010
42141SOL     OW32385   9.009   0.323   3.898  0.3360  0.7800 -0.1724
42141SOL    HW132386   9.054   0.397   3.858  1.4461  0.8596  1.1330
42141SOL    HW232387   9.078   0.258   3.912 -0.4520 -0.1495 -0.4627
42142SOL     OW32388   6.824   0.381   4.285 -0.0627  0.0568 -0.1874
42142SOL    HW132389   6.851   0.359   4.374  2.7493 -1.0373 -1.2130
42142SOL    HW232390   6.873   0.461   4.265  1.0750 -0.9163 -1.4591
42143SOL     OW32391   5.991  11.344   7.781  0.1362  0.5308  0.4898
42143SOL    HW132392   5.902  11.375   7.767 -0.6818 -0.7226  2.4522
42143SOL    HW232393   6.026  11.401   7.850 -0.2612 -0.8141  1.8596
42144SOL     OW32394   8.710   5.709   8.076  0.0432 -0.1567  0.5345
42144SOL    HW132395   8.718   5.706   8.171  0.6057 -0.2403  0.4898
42144SOL    HW232396   8.628   5.662   8.057 -0.5134  0.5975  1.0224
42145SOL     OW32397   6.690   6.158   6.835 -0.2373  0.3094 -0.0430
42145SOL    HW132398   6.599   6.133   6.852 -0.0880 -0.7006 -0.6492
42145SOL    HW232399   6.735   6.139   6.918 -0.1206 -1.6042 -0.4877
42146SOL     OW32400   8.134   4.184  11.791 -0.0611 -0.1152  0.0907
42146SOL    HW132401   8.109   4.276  11.782 -0.6476 -0.3648 -0.9494
42146SOL    HW232402   8.193   4.183  11.867  1.6374  1.4448 -1.1152
42147SOL     OW32403  10.037   9.952   7.318 -0.2963  0.3784  0.3839
42147SOL    HW132404  10.078   9.924   7.236 -0.3284 -0.5614  0.6717
42147SOL    HW232405  10.000  10.038   7.299  1.1301  0.9190 -0.1133
42148SOL     OW32406  11.860   9.620   3.876  0.2230 -0.0326  0.2918
42148SOL    HW132407  11.865   9.553   3.807 -1.8192 -0.2543  0.2952
42148SOL    HW232408  11.824   9.697   3.833  0.0537  0.2095  0.8532
42149SOL     OW32409  10.609   2.596   0.336  0.7865  0.1528 -1.3336
42149SOL    HW132410  10.628   2.533   0.404  2.0550  0.3938 -1.4497
42149SOL    HW232411  10.514   2.591   0.324  0.7799 -1.1737 -0.8199
42150SOL     OW32412   1.333   1.142  10.279 -0.0466  0.9566 -0.8200
42150SOL    HW132413   1.330   1.221  10.224 -2.0959  3.2931  2.2409
42150SOL    HW232414   1.319   1.175  10.368 -2.5847 -3.0178  0.5277
42151SOL     OW32415   7.102  10.544   3.112 -0.4259 -0.4429 -0.1204
42151SOL    HW132416   7.124  10.606   3.182 -2.5178 -1.1082  1.2010
42151SOL    HW232417   7.159  10.469   3.129  0.7386  0.3089 -0.5722
42152SOL     OW32418   0.135   3.573  10.040 -0.2687  0.5187 -0.3097
42152SOL    HW132419   0.162   3.615   9.958 -1.4091 -0.4144 -1.1965
42152SOL    HW232420   0.084   3.641  10.085 -0.7960  0.6010 -1.0138
42153SOL     OW32421   1.841   3.776   3.878 -0.4408  0.5116 -0.0266
42153SOL    HW132422   1.891   3.836   3.933 -0.3379 -0.1179  0.5912
42153SOL    HW232423   1.856   3.806   3.789  0.9491  0.4010  0.1525
42154SOL     OW32424  10.170   5.232   6.323  0.1647 -0.4956  0.2826
42154SOL    HW132425  10.160   5.235   6.228  1.0890 -0.4344  0.1722
42154SOL    HW232426  10.082   5.244   6.358 -0.1757 -0.4888 -0.5657
42155SOL     OW32427   5.175   2.532  10.728 -1.0926  0.0179  0.0474
42155SOL    HW132428   5.199   2.612  10.775 -0.8127  0.0097 -0.0810
42155SOL    HW232429   5.237   2.466  10.760 -1.1643 -0.0863 -0.0296
42156SOL     OW32430   2.075   7.190   5.891 -0.1521 -0.1486  0.1305
42156SOL    HW132431   2.165   7.166   5.869  0.6973  1.2937  1.7499
42156SOL    HW232432   2.059   7.271   5.843 -0.9191 -0.8381 -0.8137
42157SOL     OW32433   5.938   9.767   5.092  0.3086  0.6070  0.2820
42157SOL    HW132434   5.986   9.698   5.045  1.4935  0.9195  0.9762
42157SOL    HW232435   5.867   9.790   5.033 -0.1077 -1.1788  0.0108
42158SOL     OW32436   4.423  10.001   2.651 -0.6314  0.6728 -0.2424
42158SOL    HW132437   4.412   9.976   2.560 -1.4158  1.3977 -0.3659
42158SOL    HW232438   4.397   9.924   2.701 -1.7373  0.7887 -0.6180
42159SOL     OW32439   7.381   1.940   0.283 -0.4460  0.0622  0.2403
42159SOL    HW132440   7.467   1.902   0.262 -0.3874 -1.2932  2.5794
42159SOL    HW232441   7.358   1.991   0.205  1.6439 -0.9923 -1.1807
42160SOL     OW32442   5.909   3.441  10.909  0.3881 -0.2834  0.5011
42160SOL    HW132443   5.959   3.361  10.928  0.8568 -0.1588 -0.1585
42160SOL    HW232444   5.827   3.410  10.872  0.9904 -0.4661 -0.7537
42161SOL     OW32445   2.173   5.220   4.163 -0.0240  0.2762 -0.6383
42161SOL    HW132446   2.250   5.198   4.216  0.8470  1.3030 -1.4262
42161SOL    HW232447   2.099   5.184   4.212  0.6584  1.7471  1.6499
42162SOL     OW32448   4.188   5.237   7.417 -0.0810  0.6228  0.4783
42162SOL    HW132449   4.180   5.197   7.504 -0.1515  1.7472  1.0093
42162SOL    HW232450   4.231   5.170   7.364 -2.0096 -0.9576  0.7741
42163SOL     OW32451  11.916   2.968   5.850  0.2139  0.4736 -0.5040
42163SOL    HW132452  12.003   2.949   5.885  0.5901  0.5612 -1.3642
42163SOL    HW232453  11.899   3.059   5.875  0.8198  0.7950 -1.2216
42164SOL     OW32454   8.639   1.614   7.438  0.3158  0.6928 -0.3781
42164SOL    HW132455   8.601   1.699   7.418 -0.3459  0.3383 -0.6479
42164SOL    HW232456   8.681   1.587   7.356 -0.5504  0.2037 -0.6702
42165SOL     OW32457   7.277   8.237   7.158  0.1527  0.6963  0.6185
42165SOL    HW132458   7.244   8.247   7.069 -2.0381 -1.9409  0.9857
42165SOL    HW232459   7.249   8.317   7.204  1.3573  2.1043 -0.9750
42166SOL     OW32460  10.302   9.276   8.593 -0.5754 -0.4417  0.0747
42166SOL    HW132461  10.227   9.294   8.536  0.1977  1.2317 -0.4935
42166SOL    HW232462  10.329   9.362   8.625  0.4876 -1.1117  1.0733
42167SOL     OW32463   7.928   2.841   5.323  0.4243  0.3728  0.6975
42167SOL    HW132464   7.896   2.913   5.377  0.9602  0.6664  0.6253
42167SOL    HW232465   7.996   2.879   5.269  0.6726 -0.1751  0.6132
42168SOL     OW32466   9.274   5.324   7.540 -0.3813 -0.0278  0.4822
42168SOL    HW132467   9.281   5.241   7.493 -4.2013 -0.8699  1.1150
42168SOL    HW232468   9.276   5.390   7.471  1.0961 -0.7112 -0.1741
42169SOL     OW32469   1.164  12.042   6.254 -0.2335  0.3557  0.4530
42169SOL    HW132470   1.139  12.022   6.344  0.1750  0.2569  0.5466
42169SOL    HW232471   1.199  11.960   6.220 -0.7484  0.2886  0.0768
42170SOL     OW32472   7.674   9.400   9.713  0.6662 -0.7509  0.6130
42170SOL    HW132473   7.611   9.455   9.666 -1.7225 -1.8787  2.3030
42170SOL    HW232474   7.742   9.461   9.742  0.4964  0.4884 -1.4015
42171SOL     OW32475   6.873   6.347   8.394 -0.0961  0.0854 -0.6344
42171SOL    HW132476   6.804   6.306   8.447 -1.2035  1.9795 -0.5159
42171SOL    HW232477   6.926   6.396   8.458  0.2378  0.1613 -0.9635
42172SOL     OW32478   1.078   1.150   7.581  0.5684  0.4884 -0.0081
42172SOL    HW132479   1.025   1.214   7.627  0.6674  1.1935 -0.8505
42172SOL    HW232480   1.043   1.149   7.492  1.8914  0.9078 -0.5606
42173SOL     OW32481   3.225  10.087   4.533 -0.2702 -0.4137  0.1791
42173SOL    HW132482   3.295  10.143   4.501  1.3317 -2.0726  0.5927
42173SOL    HW232483   3.145  10.134   4.512  0.9731  2.2940  1.0349
42174SOL     OW32484   7.574   2.841   4.369 -0.2572  0.2634 -0.1932
42174SOL    HW132485   7.540   2.759   4.333  0.9477  0.1542 -1.1361
42174SOL    HW232486   7.657   2.817   4.409  0.4413  1.1232 -1.0767
42175SOL     OW32487   2.018  10.886   6.015 -0.0465 -0.0428 -0.0639
42175SOL    HW132488   2.065  10.844   5.942 -1.0943  0.2946 -0.9613
42175SOL    HW232489   1.950  10.938   5.972 -1.3228 -0.6124  1.2015
42176SOL     OW32490  11.988   6.241   7.216  0.3265 -0.0534 -0.0058
42176SOL    HW132491  11.912   6.269   7.267  0.6790 -0.1120  0.5654
42176SOL    HW232492  12.061   6.241   7.279  0.1556 -3.3183  0.3765
42177SOL     OW32493   8.199   6.850  12.080  0.0844 -0.6970 -0.4655
42177SOL    HW132494   8.192   6.944  12.063 -0.2858 -0.6848 -0.2394
42177SOL    HW232495   8.253   6.844  12.159 -0.9988 -0.6109  0.3059
42178SOL     OW32496   9.697   7.204   3.309 -0.5129 -0.4756  0.2119
42178SOL    HW132497   9.633   7.222   3.241 -0.5645 -0.2946  0.3057
42178SOL    HW232498   9.780   7.195   3.262 -0.9035 -2.7905 -0.1454
42179SOL     OW32499   4.631   4.206   5.775  0.5191 -0.2529 -0.1052
42179SOL    HW132500   4.638   4.228   5.867 -0.3462  1.2278 -0.3640
42179SOL    HW232501   4.560   4.141   5.771  0.0858  0.1884  0.2136
42180SOL     OW32502   1.726   5.847   2.284 -0.1629  0.7701 -0.8517
42180SOL    HW132503   1.687   5.851   2.372 -0.8034  0.3701 -1.1097
42180SOL    HW232504   1.788   5.920   2.282 -0.4532  1.0434 -0.2124
42181SOL     OW32505   7.568   7.277  11.069 -0.0367  0.1420 -0.1003
42181SOL    HW132506   7.544   7.314  11.154  0.9448  1.4475 -0.3584
42181SOL    HW232507   7.660   7.299  11.058  0.4176 -1.8161 -0.6066
42182SOL     OW32508   5.804   0.378   8.486 -0.0304 -0.0124 -0.2632
42182SOL    HW132509   5.861   0.449   8.516  0.3436 -1.0946  1.7400
42182SOL    HW232510   5.758   0.349   8.564 -2.4284 -0.0368 -1.6017
42183SOL     OW32511   1.654  11.002   6.438  0.1485 -0.1319 -0.1835
42183SOL    HW132512   1.624  11.006   6.347 -0.6743 -3.0855 -0.1467
42183SOL    HW232513   1.585  10.953   6.483 -0.2664  2.6158  2.4609
42184SOL     OW32514  10.085   0.406   7.392  0.2622 -0.3681  0.0948
42184SOL    HW132515  10.176   0.431   7.375  0.0801  0.0085 -0.3607
42184SOL    HW232516  10.067   0.338   7.327 -0.4741  1.1602 -1.3705
42185SOL     OW32517   4.702   7.726   0.589 -0.6698  0.1687 -0.0937
42185SOL    HW132518   4.624   7.687   0.551 -2.2400  1.2470  1.8763
42185SOL    HW232519   4.748   7.654   0.630 -1.1497 -0.3095 -0.3872
42186SOL     OW32520   3.932   2.633   8.272 -0.1239  0.5206 -0.0199
42186SOL    HW132521   4.008   2.644   8.328  0.3393 -4.4075  0.7247
42186SOL    HW232522   3.965   2.644   8.183  1.6811 -1.9029  0.2680
42187SOL     OW32523   9.688   1.748  10.760  0.1699  0.4518 -0.2036
42187SOL    HW132524   9.775   1.780  10.781 -0.5630  2.0033  0.5993
42187SOL    HW232525   9.634   1.773  10.835 -0.4906 -2.8004  0.5797
42188SOL     OW32526   5.181   7.879   2.934 -0.4816 -0.3262  0.4480
42188SOL    HW132527   5.090   7.863   2.909 -0.1156  2.1451 -3.2240
42188SOL    HW232528   5.231   7.815   2.883 -0.0291  0.3630  0.0131
42189SOL     OW32529   2.403  10.534  11.217 -0.0078  0.6048 -0.5491
42189SOL    HW132530   2.427  10.589  11.143  1.5301  0.9387  0.1427
42189SOL    HW232531   2.402  10.445  11.181 -0.6427  0.8979 -1.2619
42190SOL     OW32532  10.569   7.244   1.729  0.1969  0.2707  0.5400
42190SOL    HW132533  10.611   7.318   1.772  0.6299  2.1155 -2.7229
42190SOL    HW232534  10.638   7.178   1.722  0.7010  0.7599  0.7986
42191SOL     OW32535   9.624   4.297   1.125  0.6454  0.0330 -0.1619
42191SOL    HW132536   9.545   4.243   1.114  0.2955  0.8807 -2.3736
42191SOL    HW232537   9.676   4.251   1.191 -1.8700 -0.3241  1.7556
42192SOL     OW32538   1.153   0.113   3.172 -0.1602  0.1716  0.1475
42192SOL    HW132539   1.108   0.181   3.122 -3.1392  0.0781  2.4259
42192SOL    HW232540   1.159   0.148   3.261 -1.1391 -2.1946  1.2333
42193SOL     OW32541   6.376   2.336   0.299  0.2028  0.0464  0.3319
42193SOL    HW132542   6.454   2.384   0.326 -0.1015  1.5846 -1.3501
42193SOL    HW232543   6.357   2.368   0.211 -0.9695 -2.0347 -0.2391
42194SOL     OW32544   8.909   4.326   3.820  0.2811 -0.1773  0.0670
42194SOL    HW132545   8.948   4.278   3.746  0.0350 -0.4686  0.1229
42194SOL    HW232546   8.826   4.359   3.786  0.9107  1.1059 -0.2910
42195SOL     OW32547   4.340   6.429   7.121  0.0311 -0.4321  0.1648
42195SOL    HW132548   4.385   6.375   7.185 -1.5671  0.1097  1.8308
42195SOL    HW232549   4.252   6.392   7.115 -0.6488  1.0864  0.2610
42196SOL     OW32550   3.915   5.932   8.469  0.0804  1.1103  0.3018
42196SOL    HW132551   3.984   5.983   8.511  0.1379  1.8010 -0.5916
42196SOL    HW232552   3.951   5.908   8.384  0.3483 -1.1308  0.9950
42197SOL     OW32553  10.321   4.052   1.475 -0.4803  0.1434  0.3378
42197SOL    HW132554  10.368   3.971   1.494 -0.0761 -0.2205 -1.9282
42197SOL    HW232555  10.300   4.046   1.382 -4.9162  0.3518  1.0960
42198SOL     OW32556   4.057   1.648   8.930  0.5931 -0.0546 -0.1530
42198SOL    HW132557   4.026   1.633   9.020  1.1518 -1.7704 -0.1990
42198SOL    HW232558   4.150   1.667   8.940  0.8955 -1.3242 -0.4190
42199SOL     OW32559   8.631   5.076   3.246  0.3380 -0.6812 -0.6523
42199SOL    HW132560   8.653   5.166   3.272  0.6793 -0.5697 -1.2919
42199SOL    HW232561   8.690   5.058   3.172  3.3722 -2.9397  2.0398
42200SOL     OW32562   3.325   5.858   2.902 -0.1968 -0.2076  0.1001
42200SOL    HW132563   3.417   5.858   2.875  0.2343  0.0250  1.4746
42200SOL    HW232564   3.322   5.920   2.975 -1.3088 -0.7233  0.5145
42201SOL     OW32565   9.752  12.228   5.893  0.1992  0.0909  0.4966
42201SOL    HW132566   9.702  12.162   5.845  0.8822 -0.2615  0.2671
42201SOL    HW232567   9.731  12.212   5.985  0.3531 -0.4429  0.4419
42202SOL     OW32568   3.677  12.171   1.630 -0.2559 -0.4018  0.4897
42202SOL    HW132569   3.596  12.165   1.681 -0.2874 -0.2470  0.4594
42202SOL    HW232570   3.658  12.122   1.550 -1.6520  2.6401 -1.2298
42203SOL     OW32571   5.464   6.811   0.917  0.3644 -0.3839 -0.1143
42203SOL    HW132572   5.554   6.803   0.948  0.7612 -1.5698 -1.4430
42203SOL    HW232573   5.417   6.740   0.962  0.5681 -1.0406 -0.9052
42204SOL     OW32574   5.956   5.085   2.059  0.2191  0.8860 -0.5101
42204SOL    HW132575   5.896   5.010   2.068  1.6801 -0.2058  0.7455
42204SOL    HW232576   5.952   5.129   2.144  0.9712  0.9624 -0.5059
42205SOL     OW32577   5.470   8.873   0.959 -0.3126  0.0510 -0.4714
42205SOL    HW132578   5.530   8.904   1.027 -1.6725 -2.3550  2.0522
42205SOL    HW232579   5.409   8.946   0.946  0.1247  0.6721  0.7546
42206SOL     OW32580   5.579   9.018   5.708 -0.2909 -1.3156  0.0300
42206SOL    HW132581   5.556   9.055   5.623  1.0475 -1.0358 -0.2342
42206SOL    HW232582   5.554   9.086   5.771  1.5041 -0.1754 -0.4012
42207SOL     OW32583   9.920   5.308   5.909 -0.5216  0.8318 -0.0014
42207SOL    HW132584   9.840   5.268   5.875  0.7227 -2.8675  0.9033
42207SOL    HW232585   9.979   5.314   5.834 -0.2855 -0.3482  0.0762
42208SOL     OW32586   0.959   4.980   5.738  0.6473 -0.9097 -0.5212
42208SOL    HW132587   0.889   5.010   5.796  1.7946 -0.0302  0.4679
42208SOL    HW232588   0.914   4.956   5.657 -0.7328  0.2959 -0.1658
42209SOL     OW32589   0.630   2.566  12.459 -0.3504 -1.1569  0.2073
42209SOL    HW132590   0.542   2.561  12.497 -0.2529 -0.1500  0.5839
42209SOL    HW232591   0.619   2.534  12.369 -1.9333  2.5638 -1.1191
42210SOL     OW32592   4.445   3.571   2.468 -0.8227  0.0511  0.4539
42210SOL    HW132593   4.453   3.526   2.552  0.1304 -0.8298 -0.0868
42210SOL    HW232594   4.493   3.653   2.479 -1.4644  0.3537  1.0390
42211SOL     OW32595   0.969   9.067   1.283 -0.0672  0.7294  0.1878
42211SOL    HW132596   0.920   9.015   1.219 -0.2941 -1.2282  1.8203
42211SOL    HW232597   0.909   9.136   1.310 -0.2896  1.0214 -1.0128
42212SOL     OW32598   2.834   0.256   4.342 -0.0000  0.2028  0.0392
42212SOL    HW132599   2.767   0.264   4.274 -1.7120  0.1770  1.6417
42212SOL    HW232600   2.834   0.163   4.365  1.9919 -0.1799 -1.2193
42213SOL     OW32601   4.959   1.735   2.999  0.2315  0.0057 -0.7692
42213SOL    HW132602   4.914   1.736   3.084 -0.4623 -1.7673 -1.0743
42213SOL    HW232603   5.021   1.808   3.004  0.8038 -0.5547  1.6005
42214SOL     OW32604   8.132   8.050   4.008 -0.5478  0.0944  0.5452
42214SOL    HW132605   8.169   7.996   4.078  1.9134  0.1736 -0.6060
42214SOL    HW232606   8.122   7.990   3.934  2.5806  1.1424 -0.8777
42215SOL     OW32607  10.862   8.552  10.183  0.2265 -0.0728 -0.5030
42215SOL    HW132608  10.892   8.462  10.166  0.4751  0.1969 -1.5337
42215SOL    HW232609  10.813   8.576  10.105  0.1153  0.6789 -0.2083
42216SOL     OW32610   9.084   7.010   7.417 -0.6333  0.1010  0.9599
42216SOL    HW132611   8.996   6.987   7.447 -0.1750 -1.9510  0.9119
42216SOL    HW232612   9.142   6.949   7.464  0.5080 -0.2610 -0.8135
42217SOL     OW32613  12.329  11.972   7.609 -0.5340  0.2458 -0.4349
42217SOL    HW132614  12.326  12.064   7.584  1.9718  0.7050  0.6643
42217SOL    HW232615  12.415  11.961   7.651 -0.8364 -2.5453 -0.3593
42218SOL     OW32616  11.209   6.837  11.414  0.2384  0.0575 -0.1517
42218SOL    HW132617  11.149   6.886  11.357 -0.6073 -0.0164  0.6487
42218SOL    HW232618  11.201   6.746  11.384 -1.6654 -0.3022  1.2605
42219SOL     OW32619   4.367   4.176   5.332  0.2989 -0.2709  0.3196
42219SOL    HW132620   4.437   4.158   5.395  0.8079 -1.2667 -0.5141
42219SOL    HW232621   4.386   4.264   5.300  1.5620 -0.7875 -0.3960
42220SOL     OW32622   3.429   7.933  10.415 -0.5734  0.1156  0.5140
42220SOL    HW132623   3.416   7.987  10.492  1.2459  0.0692  0.8989
42220SOL    HW232624   3.401   7.846  10.441 -1.9638  0.5095  0.4130
42221SOL     OW32625   0.571   8.136   2.611  0.5001  0.1102 -0.0387
42221SOL    HW132626   0.527   8.215   2.644  1.3607  0.6411 -0.1446
42221SOL    HW232627   0.657   8.138   2.652  0.3795 -1.0112  0.2891
42222SOL     OW32628   5.655   8.416  10.891 -0.1104 -0.1394  0.0693
42222SOL    HW132629   5.744   8.444  10.869  0.0803  1.6647  2.6577
42222SOL    HW232630   5.598   8.468  10.836  0.3937  2.1941  1.6206
42223SOL     OW32631   4.538   3.310   7.671  0.0469 -0.3981 -0.0354
42223SOL    HW132632   4.456   3.264   7.656  0.4863 -2.0461  2.1629
42223SOL    HW232633   4.595   3.281   7.599 -1.2599  0.8953 -1.6797
42224SOL     OW32634  11.210   4.483   3.130 -0.5734 -0.0521  0.5499
42224SOL    HW132635  11.171   4.440   3.206 -0.4684 -0.4993  0.3532
42224SOL    HW232636  11.140   4.485   3.065 -1.0113  1.3248  1.0272
42225SOL     OW32637  12.384   3.296   3.589 -0.4165  0.0824  0.2224
42225SOL    HW132638  12.374   3.375   3.642 -0.9951 -0.1041  0.4006
42225SOL    HW232639  12.447   3.320   3.521  1.1543  0.0151  1.6046
42226SOL     OW32640   9.051   4.264   0.020  0.2264  0.3871 -0.0160
42226SOL    HW132641   9.083   4.354   0.021 -1.2541  0.9397  0.8706
42226SOL    HW232642   8.958   4.271   0.043  0.0538 -1.3589 -0.0273
42227SOL     OW32643  10.244   4.890   2.345  0.3880 -0.2245  0.4512
42227SOL    HW132644  10.167   4.894   2.287  0.9439  0.6164 -0.2493
42227SOL    HW232645  10.227   4.815   2.401  0.1600 -1.5180 -1.2739
42228SOL     OW32646   1.213   2.576   1.146  0.4390  0.2818 -0.0926
42228SOL    HW132647   1.243   2.487   1.126 -1.6562 -0.7576  1.0416
42228SOL    HW232648   1.122   2.565   1.173  0.8958  2.3754  2.8897
42229SOL     OW32649   2.489   4.136   8.189  0.0694 -0.2248  0.3773
42229SOL    HW132650   2.457   4.110   8.102 -0.4395  1.8782 -0.1167
42229SOL    HW232651   2.493   4.054   8.238 -1.0053 -1.2812 -1.1884
42230SOL     OW32652   7.055   2.115  11.405 -0.3837 -0.4827  0.3042
42230SOL    HW132653   7.116   2.048  11.436 -1.7723 -1.7267  0.4819
42230SOL    HW232654   6.969   2.074  11.412 -1.1676  0.8635 -0.8399
42231SOL     OW32655   8.272   7.575   8.944 -0.2184  0.3887 -0.7573
42231SOL    HW132656   8.362   7.554   8.967 -0.3180 -0.4787 -1.1078
42231SOL    HW232657   8.267   7.670   8.947  0.1592  0.3836  1.2690
42232SOL     OW32658  10.888   8.591   7.110  0.7213 -0.1900  0.5429
42232SOL    HW132659  10.966   8.536   7.099  1.5322  1.3311 -2.0462
42232SOL    HW232660  10.843   8.585   7.026  1.1385  3.4518 -0.0796
42233SOL     OW32661   3.078   4.621   5.451 -0.4260  0.0003 -0.4682
42233SOL    HW132662   3.019   4.689   5.482 -2.6064 -2.0124  0.1349
42233SOL    HW232663   3.144   4.612   5.521 -1.2735  0.1718  0.3754
42234SOL     OW32664  11.460  10.656   9.144 -0.3047 -0.2020  0.9165
42234SOL    HW132665  11.533  10.707   9.108 -0.3423  0.2918  1.5338
42234SOL    HW232666  11.384  10.681   9.091 -0.0878 -0.5345  0.4330
42235SOL     OW32667   0.763   1.297   5.847 -0.0993  0.0632 -0.1515
42235SOL    HW132668   0.691   1.233   5.841 -0.1293 -0.0460  1.1171
42235SOL    HW232669   0.828   1.254   5.903  0.6895  0.4165 -0.7823
42236SOL     OW32670   7.308  10.631   4.411  0.3569  0.0853  0.1862
42236SOL    HW132671   7.375  10.693   4.441  0.1197 -0.4178  1.8640
42236SOL    HW232672   7.227  10.664   4.449  0.3978 -1.8302  2.0769
42237SOL     OW32673   1.806   8.936   6.492  0.4921 -0.1251 -0.6051
42237SOL    HW132674   1.796   9.027   6.518 -0.7242 -0.4342  0.1042
42237SOL    HW232675   1.849   8.894   6.566  0.9083 -0.1755 -0.8669
42238SOL     OW32676   0.185   2.364   8.154  0.1028 -0.2846 -0.0146
42238SOL    HW132677   0.210   2.355   8.246 -1.9409 -1.4895  0.4790
42238SOL    HW232678   0.214   2.282   8.114  1.1019  0.2905 -0.5109
42239SOL     OW32679   0.380  10.955   8.192 -0.1712 -0.4318  0.1042
42239SOL    HW132680   0.314  11.020   8.170 -0.0333 -0.4260 -0.3006
42239SOL    HW232681   0.417  10.928   8.108  0.4903 -0.2839  0.3392
42240SOL     OW32682   0.492  10.922   8.428 -0.0008 -0.3413  0.3800
42240SOL    HW132683   0.489  10.991   8.495  0.2227 -0.3231  0.3712
42240SOL    HW232684   0.438  10.956   8.357 -1.0021 -0.7514  0.9168
42241SOL     OW32685   0.477   7.198   2.432 -0.8818 -0.0324  0.1492
42241SOL    HW132686   0.540   7.167   2.367 -0.5239  0.5366  0.2169
42241SOL    HW232687   0.447   7.119   2.476  0.6740 -0.2282  0.9146
42242SOL     OW32688   2.574   0.675  12.108  0.4326 -0.1019 -0.0072
42242SOL    HW132689   2.550   0.645  12.196  0.1818  0.2928  0.0602
42242SOL    HW232690   2.667   0.695  12.114  0.6007 -0.8404 -0.0463
42243SOL     OW32691   4.457   2.108  10.543  0.2685  0.2202 -0.5926
42243SOL    HW132692   4.400   2.035  10.518  1.3885 -0.8022 -0.2465
42243SOL    HW232693   4.515   2.121  10.469  0.3000  0.5309 -0.5153
42244SOL     OW32694   6.437   2.384   6.003 -0.2673  0.2488 -0.1539
42244SOL    HW132695   6.426   2.308   6.059  0.7034 -1.4727 -2.1707
42244SOL    HW232696   6.349   2.403   5.971 -0.6051  0.3799  0.8138
42245SOL     OW32697   4.080   4.860   4.596 -0.3209  0.8476 -0.0761
42245SOL    HW132698   4.027   4.861   4.515 -1.0547 -0.8508  0.3447
42245SOL    HW232699   4.095   4.953   4.615  0.5164  1.3191 -2.5501
42246SOL     OW32700   1.202   2.265   4.306 -0.3014 -0.3416  0.0966
42246SOL    HW132701   1.228   2.221   4.387  2.2751  0.9926  0.0877
42246SOL    HW232702   1.256   2.223   4.238  1.0876  1.6964 -0.1349
42247SOL     OW32703   3.357   2.989   8.586 -0.0470 -0.1935 -0.3743
42247SOL    HW132704   3.318   2.930   8.521  0.3590 -1.0875  0.1784
42247SOL    HW232705   3.286   3.048   8.610 -0.1634  0.2509 -1.7406
42248SOL     OW32706   3.237   3.312   4.764 -0.3232  0.3825 -0.6829
42248SOL    HW132707   3.291   3.352   4.832  1.0114 -0.1081 -1.4135
42248SOL    HW232708   3.183   3.249   4.811 -1.9286  2.4372  0.3797
42249SOL     OW32709   6.824   2.084   1.925 -0.1289 -0.1018 -0.4676
42249SOL    HW132710   6.783   2.069   2.010  0.9672  1.7960  0.4729
42249SOL    HW232711   6.895   2.020   1.921 -0.6971 -0.7480 -0.3364
42250SOL     OW32712   4.203   5.119   1.788  0.1975 -0.1913 -0.0201
42250SOL    HW132713   4.284   5.091   1.746  0.7849  1.4913 -0.0703
42250SOL    HW232714   4.140   5.051   1.765  1.7448 -1.9410  0.6533
42251SOL     OW32715   4.359   0.633   8.704  0.7389 -0.0430  0.4014
42251SOL    HW132716   4.401   0.570   8.763  1.7032 -0.8882 -1.1047
42251SOL    HW232717   4.266   0.628   8.726  0.4615 -3.5769 -0.9697
42252SOL     OW32718   6.836   9.839   1.458  0.0196 -0.2749 -0.0583
42252SOL    HW132719   6.925   9.864   1.484  0.5702 -0.2616 -1.8340
42252SOL    HW232720   6.802   9.791   1.533  0.9914  0.9447  1.2185
42253SOL     OW32721  11.527   3.071   2.836 -0.3971  0.3305 -0.0675
42253SOL    HW132722  11.566   3.066   2.924 -2.7150 -0.0938  1.0081
42253SOL    HW232723  11.568   2.998   2.789 -2.1529 -2.2850  2.0717
42254SOL     OW32724   0.166   8.231   7.042  0.3511 -0.4242 -0.0553
42254SOL    HW132725   0.211   8.152   7.013  0.3123 -1.4696  2.5049
42254SOL    HW232726   0.177   8.232   7.137 -2.1705  1.0769  0.3172
42255SOL     OW32727   8.048   9.854   1.642 -0.1493 -0.0450  0.1513
42255SOL    HW132728   8.002   9.856   1.558 -0.5193 -1.1800  0.3061
42255SOL    HW232729   8.125   9.909   1.630 -0.7515  0.6502 -0.5962
42256SOL     OW32730   1.385   8.964   4.437 -0.3548 -0.3676 -0.3131
42256SOL    HW132731   1.450   8.899   4.465  0.9725 -0.0849 -2.5384
42256SOL    HW232732   1.400   8.975   4.344 -1.3117  2.3227 -0.2385
42257SOL     OW32733   3.750   3.257   1.931  0.3394 -0.3621  0.2331
42257SOL    HW132734   3.695   3.316   1.879 -0.6155 -0.0150  1.5786
42257SOL    HW232735   3.711   3.259   2.019  0.8073 -2.3108  0.5338
42258SOL     OW32736   5.476   4.966  10.389 -0.2087 -0.1869  0.4481
42258SOL    HW132737   5.507   5.003  10.307 -0.4569  1.3065  0.9922
42258SOL    HW232738   5.488   4.872  10.380 -0.6525 -0.0873 -1.4658
42259SOL     OW32739  12.243   2.447   6.942 -0.4995 -0.5105 -0.3933
42259SOL    HW132740  12.219   2.371   6.994  2.6623 -0.6871  0.9963
42259SOL    HW232741  12.295   2.501   7.001  0.3251  0.9952 -2.3968
42260SOL     OW32742   0.371  10.107   4.024 -0.0517  0.6039  0.4608
42260SOL    HW132743   0.414  10.149   3.949 -0.5473  0.7739  0.2603
42260SOL    HW232744   0.298  10.166   4.045 -1.6061 -0.8019 -0.7072
42261SOL     OW32745   2.713   4.971   5.797  0.1252 -0.4261 -0.4723
42261SOL    HW132746   2.648   4.933   5.738  1.2151 -0.4663 -1.6788
42261SOL    HW232747   2.700   5.066   5.788 -0.5033 -0.4436  0.1547
42262SOL     OW32748   7.140   2.727   1.108 -0.1340 -0.3021  0.4746
42262SOL    HW132749   7.109   2.638   1.122 -0.5850 -0.1827  0.2416
42262SOL    HW232750   7.232   2.725   1.135  0.1828 -1.1292 -0.6093
42263SOL     OW32751   8.970   8.016   3.985  0.3494 -0.7594  0.1303
42263SOL    HW132752   9.007   8.102   3.963  1.2127 -0.7477  1.4566
42263SOL    HW232753   9.046   7.964   4.012 -0.3546 -1.3907  0.9662
42264SOL     OW32754   7.778   5.343   0.216 -0.4163  0.6917 -0.1615
42264SOL    HW132755   7.869   5.315   0.210 -0.5580  0.4970 -1.6496
42264SOL    HW232756   7.729   5.278   0.167 -1.6704 -0.3951  2.3253
42265SOL     OW32757   3.460   1.993   6.200  0.3752 -0.6469 -0.0032
42265SOL    HW132758   3.453   1.912   6.251 -2.9261  0.5863  1.8233
42265SOL    HW232759   3.380   1.995   6.147  1.1686  0.6932 -1.2014
42266SOL     OW32760   8.305   1.637   9.654 -0.2566 -0.0247 -0.6192
42266SOL    HW132761   8.340   1.690   9.725 -1.2416 -0.6082  0.3410
42266SOL    HW232762   8.345   1.672   9.575 -0.4079  1.7347  0.0443
42267SOL     OW32763   8.304   5.260   5.271 -0.0626 -0.0759  0.0914
42267SOL    HW132764   8.262   5.263   5.185 -0.4528  2.7021  0.3129
42267SOL    HW232765   8.254   5.194   5.320 -0.7309 -0.6689 -1.3451
42268SOL     OW32766   4.495   4.718   2.478 -0.4897  0.7383  0.0047
42268SOL    HW132767   4.504   4.806   2.443 -0.3230  0.9127  0.4657
42268SOL    HW232768   4.469   4.664   2.404 -0.1431  1.0946 -0.3772
42269SOL     OW32769   0.580   6.113   3.720  0.2579 -0.0777  0.0890
42269SOL    HW132770   0.487   6.092   3.732 -0.2934  2.0090 -0.1474
42269SOL    HW232771   0.591   6.119   3.625  0.8659 -1.1341  0.0740
42270SOL     OW32772   2.758   8.557   0.354  1.0496 -0.5339 -0.0417
42270SOL    HW132773   2.727   8.476   0.313 -0.0911 -0.4719  0.6606
42270SOL    HW232774   2.839   8.532   0.398  1.9697 -0.7512 -1.7453
42271SOL     OW32775   4.795  10.483   6.584  0.0977  0.2198  0.2299
42271SOL    HW132776   4.806  10.571   6.549  1.6657 -0.1649 -0.3406
42271SOL    HW232777   4.802  10.494   6.679  0.4039  0.6891  0.1553
42272SOL     OW32778  10.451   0.277   3.855  0.2157 -0.2723  0.2262
42272SOL    HW132779  10.546   0.266   3.866  0.2919  0.1367 -0.0016
42272SOL    HW232780  10.415   0.189   3.867  0.5043 -0.2389  1.4449
42273SOL     OW32781   3.711   0.655   2.015 -0.4245  0.0339  0.1672
42273SOL    HW132782   3.663   0.731   2.048  0.7581  0.5666  0.7456
42273SOL    HW232783   3.678   0.642   1.926 -3.0251 -0.8578  1.1564
42274SOL     OW32784   8.167   8.845   0.177 -0.3059 -0.7721  0.5120
42274SOL    HW132785   8.218   8.896   0.240  2.7890  0.8487 -2.9364
42274SOL    HW232786   8.219   8.767   0.159 -0.3433 -0.4944 -1.0102
42275SOL     OW32787   6.601   8.837  10.317 -0.4770 -0.3484 -0.5989
42275SOL    HW132788   6.695   8.825  10.331 -0.5077 -1.7185 -1.3890
42275SOL    HW232789   6.574   8.898  10.385  0.5624 -1.6880  1.1133
42276SOL     OW32790   3.114  11.430   4.969  0.1250  0.2579 -0.4375
42276SOL    HW132791   3.176  11.482   5.019 -1.8848  1.2922  1.1093
42276SOL    HW232792   3.078  11.490   4.904 -0.0473 -0.0096 -0.5921
42277SOL     OW32793  10.490   1.287   6.167  0.6752 -0.3589  0.1007
42277SOL    HW132794  10.542   1.210   6.191  1.5474 -0.1956 -1.1764
42277SOL    HW232795  10.515   1.307   6.077 -0.8969  0.3279 -0.2347
42278SOL     OW32796   1.055   6.492   1.397  0.5533 -0.1918  0.4849
42278SOL    HW132797   1.017   6.580   1.404  0.3608 -0.0587 -1.6571
42278SOL    HW232798   1.136   6.497   1.448  1.0315  1.5405 -0.3692
42279SOL     OW32799   6.876   3.176   4.372 -0.0827  0.6209 -0.6136
42279SOL    HW132800   6.814   3.144   4.306 -0.9366 -0.0556  0.4737
42279SOL    HW232801   6.961   3.144   4.342 -0.8573 -2.8068  0.3722
42280SOL     OW32802   2.413   3.064   2.782 -0.0144 -0.3935  0.0108
42280SOL    HW132803   2.495   3.105   2.809 -0.9018  1.5479 -0.0751
42280SOL    HW232804   2.363   3.134   2.741 -2.3223 -1.1434  1.3605
42281SOL     OW32805  10.772   6.814   7.307 -0.3704 -0.4100  0.5175
42281SOL    HW132806  10.754   6.753   7.235 -0.0590 -0.9847  0.9252
42281SOL    HW232807  10.712   6.786   7.377 -0.4008 -0.0931  0.6187
42282SOL     OW32808   7.035   1.118   5.147  0.2946 -0.2789  0.2179
42282SOL    HW132809   7.032   1.089   5.056  0.8093 -1.6857  0.6253
42282SOL    HW232810   7.127   1.135   5.164  0.1888  0.0671  0.4569
42283SOL     OW32811   1.330   1.440   5.118 -0.2751  0.1329  0.1724
42283SOL    HW132812   1.301   1.457   5.208  0.0828 -1.5276  0.6212
42283SOL    HW232813   1.315   1.347   5.105  2.2872 -0.2572 -0.5244
42284SOL     OW32814   0.829   6.793  11.549 -0.4141 -0.3945 -0.2060
42284SOL    HW132815   0.850   6.802  11.456 -1.0810 -1.8245 -0.5152
42284SOL    HW232816   0.755   6.732  11.552 -0.3147 -0.4878  1.2754
42285SOL     OW32817   6.298   6.988   0.111  0.6716 -0.4268 -0.0923
42285SOL    HW132818   6.355   6.913   0.093  1.3557 -0.1118  0.7164
42285SOL    HW232819   6.321   7.015   0.200  0.2743  0.6085 -0.2936
42286SOL     OW32820   3.789  11.648  11.981 -0.0908 -0.0921 -0.0902
42286SOL    HW132821   3.788  11.744  11.981 -1.4157 -0.0868  0.1809
42286SOL    HW232822   3.846  11.625  12.054  0.5453  0.4801 -0.3958
42287SOL     OW32823   7.850   6.923   6.949  0.1525 -0.5742 -0.0899
42287SOL    HW132824   7.904   7.002   6.939  0.6620 -0.9718 -0.5274
42287SOL    HW232825   7.885   6.862   6.884  0.1651 -1.3833  0.6597
42288SOL     OW32826  11.390  10.372   3.918  0.8925  0.2827 -0.6316
42288SOL    HW132827  11.476  10.393   3.955  0.9518 -1.0753  0.0588
42288SOL    HW232828  11.372  10.284   3.949 -1.8841  1.4209  1.3910
42289SOL     OW32829  11.250   8.446   4.143  0.1548 -0.0991 -0.0493
42289SOL    HW132830  11.257   8.357   4.178 -1.8264 -0.0368  0.6098
42289SOL    HW232831  11.255   8.502   4.221  1.5449  0.4239 -0.4733
42290SOL     OW32832   7.738   8.445   3.325 -0.0295 -0.0693  0.0762
42290SOL    HW132833   7.752   8.438   3.420 -0.6988 -0.3575  0.1590
42290SOL    HW232834   7.821   8.418   3.287  0.2124 -0.0546  0.5781
42291SOL     OW32835   1.723   8.441   9.464  0.2191 -0.4817 -0.6004
42291SOL    HW132836   1.761   8.391   9.536  1.8908 -0.4160 -1.3858
42291SOL    HW232837   1.750   8.531   9.481 -2.4482  0.1737  0.5955
42292SOL     OW32838  11.392   6.144   1.946 -0.2542  0.1310 -0.2451
42292SOL    HW132839  11.347   6.091   2.012 -2.1706 -0.3769 -1.8395
42292SOL    HW232840  11.384   6.234   1.978 -2.2469  0.0270 -0.2999
42293SOL     OW32841  10.750   7.698   7.208  0.0190 -0.5138  0.5184
42293SOL    HW132842  10.718   7.680   7.119 -1.0961  0.6899  0.6467
42293SOL    HW232843  10.762   7.611   7.247 -1.7307 -1.0564 -0.0409
42294SOL     OW32844   1.344   3.783  10.013  0.3060 -0.2561 -0.1292
42294SOL    HW132845   1.394   3.822  10.085 -0.1993 -0.5226  0.3784
42294SOL    HW232846   1.348   3.847   9.943  1.5708 -0.3851 -0.1943
42295SOL     OW32847   0.683   5.190  10.974  0.3291 -0.6121 -0.7262
42295SOL    HW132848   0.744   5.156  11.040  0.9967 -0.2286 -1.1280
42295SOL    HW232849   0.737   5.250  10.922 -0.9273  1.5969  0.3768
42296SOL     OW32850   3.763  11.239   2.600  0.3547  0.0587 -0.0196
42296SOL    HW132851   3.776  11.334   2.597 -1.3377  0.3101  0.0654
42296SOL    HW232852   3.718  11.219   2.518  0.4315 -0.6445  0.1070
42297SOL     OW32853   9.013   3.545  12.233 -0.2612  0.0473 -0.5061
42297SOL    HW132854   8.983   3.548  12.142  0.7963  1.1615 -0.8421
42297SOL    HW232855   9.104   3.574  12.230  0.2612 -1.3343  0.7342
42298SOL     OW32856   4.523   7.725  11.965 -0.4468  0.0096 -0.1757
42298SOL    HW132857   4.519   7.809  12.011  3.3527  0.1797  0.1870
42298SOL    HW232858   4.585   7.741  11.893 -2.4370 -1.5883 -2.4109
42299SOL     OW32859   9.852  11.664   5.286  0.3184  0.0886 -0.5075
42299SOL    HW132860   9.864  11.569   5.279  2.9870  0.3927 -1.2096
42299SOL    HW232861   9.828  11.692   5.197  0.8009  0.2101 -0.6004
42300SOL     OW32862   2.160  11.678   9.026  0.5681 -0.1788 -0.3612
42300SOL    HW132863   2.235  11.662   9.083 -0.1641 -0.2203  0.6133
42300SOL    HW232864   2.191  11.654   8.938  1.5544 -0.5841  0.0825
42301SOL     OW32865   8.501   4.471   2.533  0.3105  0.2153  0.0967
42301SOL    HW132866   8.562   4.524   2.583  1.2539  0.0153 -0.8018
42301SOL    HW232867   8.555   4.428   2.466 -1.0698  1.6261 -2.0595
42302SOL     OW32868   8.700   0.906   9.224 -0.0990  0.2975 -0.1529
42302SOL    HW132869   8.613   0.890   9.187 -0.5922  1.9661  0.1963
42302SOL    HW232870   8.683   0.927   9.316  0.9663 -2.1319  0.6633
42303SOL     OW32871  11.850   5.555   2.068  0.0985  0.4804 -0.8562
42303SOL    HW132872  11.828   5.629   2.125 -0.4519 -0.0112 -0.4088
42303SOL    HW232873  11.939   5.531   2.093  0.1868  0.8350 -0.8276
42304SOL     OW32874  10.593  10.983   6.132 -0.3850  0.4944  0.2731
42304SOL    HW132875  10.520  10.922   6.147 -0.9171  0.7668 -1.0867
42304SOL    HW232876  10.551  11.068   6.123  0.0948  0.6552 -0.5256
42305SOL     OW32877   8.063   1.737   7.482  0.7004  0.5341 -0.7318
42305SOL    HW132878   8.044   1.815   7.534  0.6404 -0.3777  0.6931
42305SOL    HW232879   8.046   1.664   7.542  1.4793 -0.5547 -1.7835
42306SOL     OW32880  11.821   0.414   3.477 -0.0349  0.4664  0.3588
42306SOL    HW132881  11.857   0.339   3.523 -2.5103 -0.9536  0.1516
42306SOL    HW232882  11.874   0.422   3.398  0.0269 -1.3632  0.1799
42307SOL     OW32883   3.131   9.973   9.489 -0.2733 -0.5859  0.0514
42307SOL    HW132884   3.067   9.910   9.522 -0.0570 -0.9954 -0.2923
42307SOL    HW232885   3.173   9.927   9.416 -0.7665  0.3028 -0.8146
42308SOL     OW32886   9.939   9.478   6.156  0.1706 -0.2209  0.3038
42308SOL    HW132887   9.950   9.403   6.098 -0.0168 -0.9684  1.2192
42308SOL    HW232888   9.896   9.443   6.234 -1.1119  1.0647  0.2343
42309SOL     OW32889   7.692   8.472  11.274  0.6998  0.3741  0.0472
42309SOL    HW132890   7.700   8.451  11.180 -1.1445 -0.8459  0.1035
42309SOL    HW232891   7.780   8.460  11.308  1.4479  0.9966 -1.5518
42310SOL     OW32892   4.143   3.179   4.925 -0.1745 -0.4281  0.3888
42310SOL    HW132893   4.231   3.199   4.892 -0.2994 -0.9006 -0.2276
42310SOL    HW232894   4.141   3.221   5.011  0.0376  1.1000 -0.3136
42311SOL     OW32895   9.320   5.455   5.698  0.4836 -0.1989 -0.3489
42311SOL    HW132896   9.412   5.465   5.725  0.5470  2.8663 -1.3013
42311SOL    HW232897   9.324   5.392   5.626  1.7626 -0.4782 -0.0735
42312SOL     OW32898   9.533   0.995   1.251  0.2211 -0.9782  0.8457
42312SOL    HW132899   9.624   0.971   1.268  0.4604 -0.2208  0.6560
42312SOL    HW232900   9.535   1.037   1.165  0.0249  0.8111  1.6826
42313SOL     OW32901  10.139   5.971   5.001  0.1581  0.5957 -0.1055
42313SOL    HW132902  10.229   5.997   4.979  0.2675  2.5617  2.2369
42313SOL    HW232903  10.124   6.008   5.088 -3.4150  1.5870 -0.9843
42314SOL     OW32904   7.831  11.289   1.882  0.0748 -0.2150  0.4595
42314SOL    HW132905   7.801  11.375   1.853  0.9839  0.0693  0.3464
42314SOL    HW232906   7.817  11.232   1.806  0.0288 -0.0382  0.3358
42315SOL     OW32907   7.497   5.866   1.225  0.1176 -0.1441  0.2702
42315SOL    HW132908   7.432   5.796   1.230 -0.0988 -0.0804 -1.2780
42315SOL    HW232909   7.579   5.820   1.203 -0.3067  0.1790 -2.2034
42316SOL     OW32910   4.843   4.762   0.668  0.0756 -0.2877 -0.0704
42316SOL    HW132911   4.849   4.853   0.638 -1.8247 -0.1453 -0.1585
42316SOL    HW232912   4.803   4.715   0.595  2.2809 -1.5507 -0.5741
42317SOL     OW32913  11.692  12.406  11.627 -0.7736  0.0890  0.4931
42317SOL    HW132914  11.766  12.386  11.570 -0.2348 -3.0782  2.0920
42317SOL    HW232915  11.616  12.403  11.568  0.0934  1.0493 -0.7449
42318SOL     OW32916   8.727   7.132   3.743 -1.0665  0.1883 -0.2845
42318SOL    HW132917   8.745   7.081   3.822 -0.7294 -0.3215 -0.6834
42318SOL    HW232918   8.812   7.171   3.721 -1.5071  1.6750  0.5302
42319SOL     OW32919   8.694   1.128   1.238 -0.9548 -0.4301 -0.3899
42319SOL    HW132920   8.645   1.126   1.320 -1.1849 -1.5132 -0.5400
42319SOL    HW232921   8.713   1.036   1.219  1.8741 -0.0224  0.0951
42320SOL     OW32922   0.191   5.068   4.021  0.3182  0.1049  0.0027
42320SOL    HW132923   0.282   5.098   4.020  0.8696 -1.3733  1.8310
42320SOL    HW232924   0.185   5.013   4.098 -1.2754 -2.5213 -1.8519
42321SOL     OW32925   3.438  10.703   7.686  0.0891  0.3892  0.3389
42321SOL    HW132926   3.496  10.635   7.652 -1.5350 -1.7663  1.6070
42321SOL    HW232927   3.424  10.680   7.777 -2.4865  0.9529  0.1776
42322SOL     OW32928   1.258   8.598   5.093 -0.3228  0.0950  0.4009
42322SOL    HW132929   1.190   8.663   5.076  0.7740  0.9984 -0.7609
42322SOL    HW232930   1.252   8.537   5.019 -0.7223 -0.5845  0.9864
42323SOL     OW32931   2.218   0.941   4.328  0.2636 -0.5188 -0.2056
42323SOL    HW132932   2.143   0.905   4.279  1.2392 -0.1358 -2.0602
42323SOL    HW232933   2.263   0.863   4.362  0.2909 -0.8629 -1.0164
42324SOL     OW32934   3.251   0.153   0.014 -0.1370  0.4639  0.6189
42324SOL    HW132935   3.344   0.145   0.035  0.0048  0.8324  0.1413
42324SOL    HW232936   3.214   0.200   0.089  0.3911  1.8737  0.0404
42325SOL     OW32937   4.437  11.845  10.149 -0.0649 -0.1440  0.5857
42325SOL    HW132938   4.509  11.827  10.209 -0.7424 -0.0044  1.4625
42325SOL    HW232939   4.369  11.885  10.204  0.0831  1.9402 -0.6270
42326SOL     OW32940  12.425   6.881   2.453 -0.2745  0.2387 -0.3902
42326SOL    HW132941  12.492   6.871   2.386 -0.1238  1.4379 -0.4417
42326SOL    HW232942  12.352   6.923   2.407 -0.7355 -0.2701 -0.1345
42327SOL     OW32943   3.916   2.840   2.815  0.8056 -0.8049  0.1601
42327SOL    HW132944   3.981   2.814   2.750  0.1466 -2.2065  0.0233
42327SOL    HW232945   3.946   2.798   2.896  1.6624  0.9819  0.8455
42328SOL     OW32946   2.416   8.506   0.949  0.5230  0.2665 -0.2026
42328SOL    HW132947   2.399   8.444   0.879 -0.7571 -2.2966  2.1811
42328SOL    HW232948   2.486   8.466   1.001  0.0615  1.0551  1.0786
42329SOL     OW32949   0.729   7.586   5.390  0.4083  0.1220 -0.6126
42329SOL    HW132950   0.679   7.638   5.453  0.3867  0.0122 -0.5382
42329SOL    HW232951   0.684   7.502   5.386  0.8464 -0.1393 -0.1988
42330SOL     OW32952   8.299   0.060   0.374  0.0853 -0.7036 -0.3717
42330SOL    HW132953   8.349   0.031   0.451 -0.8673 -1.1680  0.0884
42330SOL    HW232954   8.354   0.128   0.335 -0.0943  0.6976  1.6240
42331SOL     OW32955   7.818   4.927   5.804 -0.6388  0.2254  0.0548
42331SOL    HW132956   7.871   4.950   5.727 -0.4523  1.1058  0.4344
42331SOL    HW232957   7.778   5.010   5.830 -0.2549  0.0474  1.2451
42332SOL     OW32958   8.522   2.508   0.630  0.5697  0.1906 -0.3501
42332SOL    HW132959   8.563   2.545   0.552  0.2034 -1.2730 -1.2961
42332SOL    HW232960   8.429   2.526   0.619  0.5778  0.5145  0.0725
42333SOL     OW32961   8.854  11.397   9.699 -0.3031 -0.2643  0.4335
42333SOL    HW132962   8.812  11.447   9.629 -0.4994 -0.9509  0.0505
42333SOL    HW232963   8.930  11.357   9.657 -0.3282 -0.5453  0.6559
42334SOL     OW32964   2.881  11.171   2.157 -0.0523 -0.0639  0.2813
42334SOL    HW132965   2.888  11.244   2.218 -0.6782  1.1636 -1.0664
42334SOL    HW232966   2.790  11.143   2.165 -0.5190  0.9768 -1.0050
42335SOL     OW32967   3.813  12.492   4.001 -0.3280 -0.0188  0.3749
42335SOL    HW132968   3.866  12.544   3.940 -0.5284  2.1202  1.8789
42335SOL    HW232969   3.736  12.546   4.018  0.0657 -0.1609  3.0150
42336SOL     OW32970   7.506   0.434   5.788 -0.1529  0.1035 -0.5750
42336SOL    HW132971   7.486   0.457   5.697  1.7301 -0.2880 -1.1301
42336SOL    HW232972   7.445   0.487   5.840 -0.0703  1.6900 -2.0054
42337SOL     OW32973   1.463  11.722   1.839 -0.6817 -0.1893  0.3335
42337SOL    HW132974   1.479  11.816   1.829 -0.6211 -0.2567 -0.2178
42337SOL    HW232975   1.368  11.715   1.843 -0.6679 -0.0449  1.0107
42338SOL     OW32976  11.445   6.292   7.286  0.4530 -0.3305  0.3069
42338SOL    HW132977  11.426   6.384   7.306  0.3616 -0.6693  1.8214
42338SOL    HW232978  11.415   6.243   7.362  2.4790 -1.4217  0.4727
42339SOL     OW32979  11.404   9.964  11.990  0.3162  0.4298 -0.2089
42339SOL    HW132980  11.412   9.972  11.895 -1.6528 -0.0923 -0.4624
42339SOL    HW232981  11.310   9.972  12.007  0.4497 -1.0594  1.5238
42340SOL     OW32982  11.872  11.883   6.579  0.7316 -0.2720 -0.1742
42340SOL    HW132983  11.873  11.908   6.671  4.9173  0.3842 -0.1998
42340SOL    HW232984  11.878  11.787   6.579  1.2585 -0.2426  0.2786
42341SOL     OW32985   0.626   2.032   0.934  0.2465 -0.0614 -0.1640
42341SOL    HW132986   0.589   2.045   0.847  0.1155  1.5328  0.0970
42341SOL    HW232987   0.686   2.105   0.946  1.8257 -1.3847  0.3038
42342SOL     OW32988  10.238   1.611   7.439 -0.0458 -0.0567  0.2000
42342SOL    HW132989  10.266   1.597   7.348 -0.8044  1.8902 -0.3929
42342SOL    HW232990  10.320   1.619   7.488  0.4717  1.6201 -0.8301
42343SOL     OW32991   9.173  10.256   1.224 -0.1441 -0.4718 -0.1494
42343SOL    HW132992   9.125  10.318   1.280  1.0616 -0.0549  0.4723
42343SOL    HW232993   9.105  10.199   1.188 -1.3938  1.6307 -1.3268
42344SOL     OW32994   5.096   2.488  11.359  0.3394 -0.1308 -0.2626
42344SOL    HW132995   5.105   2.397  11.332  1.9320 -0.1600  0.2759
42344SOL    HW232996   5.040   2.485  11.437  0.9827 -0.7328  0.1838
42345SOL     OW32997   6.101   1.165  11.832 -0.2419 -0.3594  0.0953
42345SOL    HW132998   6.174   1.171  11.894  1.9612  1.8108 -2.4389
42345SOL    HW232999   6.094   1.072  11.812  1.1814 -0.7345  1.1759
42346SOL     OW33000   5.645   7.347   6.267 -0.1235  0.1529 -0.2748
42346SOL    HW133001   5.734   7.379   6.252  0.4399 -1.2331 -0.0322
42346SOL    HW233002   5.656   7.277   6.331 -1.3872 -0.0898 -0.3089
42347SOL     OW33003   5.724  12.291   9.080 -0.0504 -0.0716 -0.6930
42347SOL    HW133004   5.726  12.248   8.994  2.2459  1.4351 -1.4842
42347SOL    HW233005   5.680  12.374   9.064  1.6306  0.8392 -0.7992
42348SOL     OW33006   3.311  10.806  11.510  0.2334  0.0092  0.3951
42348SOL    HW133007   3.330  10.776  11.599  1.7359  0.4641  0.2581
42348SOL    HW233008   3.242  10.871  11.521  1.1934  0.9122  1.3830
42349SOL     OW33009   8.549   8.659   3.753  0.4602 -0.0738  0.1053
42349SOL    HW133010   8.517   8.571   3.773 -0.1326 -0.2593 -1.4905
42349SOL    HW233011   8.549   8.705   3.837 -2.8241 -0.4625  0.4195
42350SOL     OW33012   4.072   8.915   0.103 -0.4685 -0.1211  0.5825
42350SOL    HW133013   4.045   8.922   0.195 -0.6617 -0.1466  0.5293
42350SOL    HW233014   4.021   8.983   0.058 -0.6764 -0.3790  0.4294
42351SOL     OW33015  11.382   8.775   9.705  0.0590 -0.9593 -0.0946
42351SOL    HW133016  11.427   8.725   9.637 -0.1162 -1.1566 -0.0697
42351SOL    HW233017  11.290   8.747   9.698 -1.0111  2.5262 -3.0075
42352SOL     OW33018  10.252   3.526   0.127 -0.4060 -0.7199  0.3575
42352SOL    HW133019  10.204   3.604   0.155  0.2203 -1.0013  2.3626
42352SOL    HW233020  10.340   3.538   0.161 -0.1829 -2.0836  0.3201
42353SOL     OW33021   7.981   5.081   4.023  0.0241  0.0916 -0.4335
42353SOL    HW133022   7.903   5.134   4.009  0.3844  0.2621 -1.9062
42353SOL    HW233023   8.041   5.106   3.953  0.3289 -2.0051 -0.9897
42354SOL     OW33024   8.338  11.526  10.073  0.5800  0.5793 -0.0258
42354SOL    HW133025   8.381  11.610  10.088 -1.7538  2.1931 -1.6952
42354SOL    HW233026   8.268  11.523  10.139 -0.5655  0.9307 -1.1721
42355SOL     OW33027   1.650   2.700  10.620  0.0665 -0.7030  0.7061
42355SOL    HW133028   1.562   2.669  10.643 -0.0749 -1.2930 -0.5114
42355SOL    HW233029   1.657   2.682  10.526  1.6899 -1.1572  0.8791
42356SOL     OW33030  10.684   0.593   8.357  0.2327 -0.6039  0.5013
42356SOL    HW133031  10.762   0.647   8.346  0.6480 -1.1897  0.5252
42356SOL    HW233032  10.650   0.581   8.268 -0.5564  0.6804  0.5959
42357SOL     OW33033   1.556   7.407  12.048  0.1231  0.0212 -0.4800
42357SOL    HW133034   1.647   7.395  12.019  0.4070 -0.0836  0.4121
42357SOL    HW233035   1.562   7.476  12.115 -0.1061 -1.4773  1.1603
42358SOL     OW33036  12.431   0.495   5.329 -0.7835  0.3456  0.1065
42358SOL    HW133037  12.422   0.441   5.251 -1.6909  1.1199 -0.3515
42358SOL    HW233038  12.444   0.584   5.295 -0.8165  0.6347  0.8342
42359SOL     OW33039   0.167  11.163  11.072  0.5121 -0.0959  0.3784
42359SOL    HW133040   0.112  11.224  11.023 -0.9778 -0.5478  1.3898
42359SOL    HW233041   0.153  11.079  11.029  2.1243  0.1254 -0.6673
42360SOL     OW33042  11.243   9.370   5.307  0.8055  0.4150 -0.5746
42360SOL    HW133043  11.268   9.430   5.237 -1.5379  2.4197  0.1878
42360SOL    HW233044  11.296   9.397   5.381  1.2931  0.1109 -0.8068
42361SOL     OW33045   3.408   3.124   1.198 -0.5962 -0.1647 -0.0140
42361SOL    HW133046   3.332   3.065   1.202  1.4063 -2.9225  0.2861
42361SOL    HW233047   3.439   3.129   1.288  0.3332 -0.1555 -0.3278
42362SOL     OW33048  11.832   0.341   0.692 -0.2882 -0.5312  0.0762
42362SOL    HW133049  11.916   0.367   0.729  0.1368 -2.0871  0.3014
42362SOL    HW233050  11.820   0.397   0.616  2.7066 -2.5626 -2.1235
42363SOL     OW33051   8.137   4.106   3.582 -0.2193 -0.1647  0.1344
42363SOL    HW133052   8.214   4.124   3.528 -1.7409 -0.9570 -2.4858
42363SOL    HW233053   8.088   4.188   3.583 -0.5512 -0.3475 -0.3767
42364SOL     OW33054   2.041   4.980   5.153  0.2614  0.3776 -0.1718
42364SOL    HW133055   2.115   5.006   5.210 -0.5587 -0.5353  1.3712
42364SOL    HW233056   2.080   4.920   5.089  0.7800 -0.6268  1.0357
42365SOL     OW33057   2.160   8.646   4.167 -0.3920 -0.1713  0.0248
42365SOL    HW133058   2.233   8.585   4.170 -1.5779 -1.7483 -1.4564
42365SOL    HW233059   2.108   8.626   4.245  0.6860  0.9385  1.0674
42366SOL     OW33060   0.776   9.347   7.903 -0.0355  0.0962  0.4255
42366SOL    HW133061   0.711   9.287   7.868 -0.0275  1.2578 -1.7206
42366SOL    HW233062   0.732   9.388   7.978 -1.5979  0.4601 -0.6468
42367SOL     OW33063   3.959  11.424   6.417  0.2993 -0.1728 -0.0436
42367SOL    HW133064   4.027  11.423   6.485 -0.8044  2.2263  1.1921
42367SOL    HW233065   3.889  11.477   6.454 -0.9190  0.0921 -2.5696
42368SOL     OW33066   0.622   0.074  12.059  0.0427  0.2352 -0.3201
42368SOL    HW133067   0.654   0.150  12.108 -1.3410  0.4860  0.2568
42368SOL    HW233068   0.564   0.029  12.121  0.5866 -1.1201 -0.7581
42369SOL     OW33069   8.642   4.313  12.235 -0.2920  0.0082 -0.2327
42369SOL    HW133070   8.658   4.219  12.243 -2.1848 -0.2680  1.2293
42369SOL    HW233071   8.688   4.339  12.156 -0.7601 -2.4285 -1.3982
42370SOL     OW33072   1.364   1.675   3.353  0.4037  0.6237  0.1298
42370SOL    HW133073   1.354   1.770   3.339  0.8890  0.8534  1.2311
42370SOL    HW233074   1.286   1.650   3.401 -0.8948 -0.0211 -2.1581
42371SOL     OW33075   7.729   7.633   2.041 -0.1333  0.5519  0.1260
42371SOL    HW133076   7.653   7.599   1.994  0.8387 -0.4170 -0.8063
42371SOL    HW233077   7.763   7.703   1.985 -0.8418  1.6305  0.9887
42372SOL     OW33078   8.655   5.730   8.936  0.7816  0.2202 -0.1208
42372SOL    HW133079   8.564   5.720   8.909  1.0766  0.9396 -1.4384
42372SOL    HW233080   8.704   5.673   8.878  1.3290  1.0958 -0.5479
42373SOL     OW33081   7.504   0.250   0.121  0.0050  0.4207  0.4050
42373SOL    HW133082   7.558   0.181   0.084 -2.4910 -2.2065  1.3011
42373SOL    HW233083   7.445   0.275   0.050  0.0587  0.6984  0.4583
42374SOL     OW33084   8.615   1.209  10.886 -0.6810  0.2590  0.0326
42374SOL    HW133085   8.614   1.301  10.860 -1.3769  0.5838  1.1332
42374SOL    HW233086   8.612   1.211  10.982  2.3656 -0.8740  0.2791
42375SOL     OW33087   8.790   9.924   4.209 -0.2874  0.0397 -0.2185
42375SOL    HW133088   8.813   9.915   4.116  1.2454  0.3324  0.0975
42375SOL    HW233089   8.817  10.013   4.231 -0.1073 -0.2226  0.6438
42376SOL     OW33090   1.585   0.988   1.110  0.3396  0.2647  0.3215
42376SOL    HW133091   1.506   1.013   1.063  0.9315  2.6979  0.5183
42376SOL    HW233092   1.639   0.942   1.045 -0.8531 -0.6762 -0.0312
42377SOL     OW33093   7.905   2.906  10.610  0.4477  0.7789 -0.2515
42377SOL    HW133094   7.993   2.945  10.611  0.5574  0.5381 -0.6381
42377SOL    HW233095   7.848   2.977  10.641  0.8255  0.8093  0.4019
42378SOL     OW33096   5.469   4.368   6.811 -0.0163  0.2515 -0.2984
42378SOL    HW133097   5.411   4.419   6.867  0.4748  2.0946 -1.3969
42378SOL    HW233098   5.494   4.428   6.741  1.7439 -1.0709 -0.8698
42379SOL     OW33099   0.147   6.730  11.097  0.5546 -0.2176  0.3348
42379SOL    HW133100   0.106   6.807  11.058 -0.2513  0.2605  2.0460
42379SOL    HW233101   0.189   6.686  11.023 -0.7892  0.6967 -1.0363
42380SOL     OW33102  12.092   7.543  10.412 -0.0403 -0.3648  0.2542
42380SOL    HW133103  12.054   7.599  10.345  0.0728 -0.5561  0.0287
42380SOL    HW233104  12.123   7.466  10.364  0.6379 -0.2088  0.4366
42381SOL     OW33105  12.270   8.837  10.131  0.1239 -0.1278 -0.5254
42381SOL    HW133106  12.240   8.894  10.202  1.7363  0.1861 -0.0544
42381SOL    HW233107  12.327   8.892  10.078 -1.2950 -0.2640 -2.3080
42382SOL     OW33108   5.032  12.442   2.542  0.2068  0.5052  0.3117
42382SOL    HW133109   4.937  12.432   2.538  0.2253 -0.2012  1.1872
42382SOL    HW233110   5.051  12.521   2.491 -0.9948  1.4737  1.2983
42383SOL     OW33111   2.103   2.453   8.479 -0.0160  0.2509  0.1953
42383SOL    HW133112   2.085   2.360   8.489  1.2510 -0.1232 -0.7677
42383SOL    HW233113   2.174   2.470   8.540  0.8175  0.2254 -0.7544
42384SOL     OW33114   6.667   8.973   8.225  0.0700 -0.0017  0.1010
42384SOL    HW133115   6.625   8.894   8.192 -0.6216 -0.4869  2.0185
42384SOL    HW233116   6.759   8.948   8.238 -0.0274 -0.3090  0.1904
42385SOL     OW33117   6.776   6.466   6.964 -0.3635  0.2282  0.2991
42385SOL    HW133118   6.748   6.404   6.896 -0.2637 -0.9401  1.2934
42385SOL    HW233119   6.695   6.509   6.992 -0.5482 -0.0141  0.1394
42386SOL     OW33120   0.456   6.409   6.745 -0.0065 -0.5911  0.2160
42386SOL    HW133121   0.541   6.409   6.790  0.5297  1.2568 -0.7072
42386SOL    HW233122   0.477   6.383   6.655 -0.4053 -0.0717 -0.0303
42387SOL     OW33123  12.250   6.290   1.047 -0.5253  0.3791 -0.2078
42387SOL    HW133124  12.316   6.359   1.048  3.1329 -2.7250 -0.1344
42387SOL    HW233125  12.279   6.228   1.115 -2.3237 -2.1687 -1.5739
42388SOL     OW33126  10.720   5.036  10.076 -0.0069 -0.5057 -0.3270
42388SOL    HW133127  10.703   4.963  10.135 -0.4954  0.6171  0.9665
42388SOL    HW233128  10.668   5.016   9.998  0.3024 -1.7911 -0.2261
42389SOL     OW33129   0.032   9.284  11.470 -0.0439 -0.3314 -0.5109
42389SOL    HW133130  -0.017   9.202  11.474 -0.5509 -0.0244 -0.4759
42389SOL    HW233131   0.021   9.323  11.557  0.4820 -0.3875 -0.4144
42390SOL     OW33132   5.559   9.381   8.412 -0.4400 -0.3120  0.4616
42390SOL    HW133133   5.630   9.319   8.400 -0.9604 -0.7357 -0.5088
42390SOL    HW233134   5.528   9.401   8.324  0.8310  2.6932  0.5593
42391SOL     OW33135   7.680   1.205   5.711  0.1779 -0.1951  0.0526
42391SOL    HW133136   7.742   1.135   5.731  1.4539  0.8941  0.0833
42391SOL    HW233137   7.735   1.282   5.699 -1.0915  0.5530 -1.2282
42392SOL     OW33138   1.938  10.563   6.014  0.4220 -0.1135  0.3194
42392SOL    HW133139   1.859  10.560   5.960  0.1124 -2.9718  0.7730
42392SOL    HW233140   2.010  10.566   5.952  0.0080  0.9073 -0.1287
42393SOL     OW33141   4.209   5.490   6.254  1.0069  0.1664 -0.4874
42393SOL    HW133142   4.303   5.477   6.239  0.6925 -0.2014 -2.2926
42393SOL    HW233143   4.200   5.584   6.272  1.6504  0.2940 -0.8227
42394SOL     OW33144  10.018   8.266  11.684  0.4674  0.0224  0.2308
42394SOL    HW133145  10.047   8.249  11.774  3.6022 -0.8381 -0.8140
42394SOL    HW233146  10.072   8.339  11.655 -0.1303 -0.0435 -1.1192
42395SOL     OW33147   3.620  10.988  10.053  0.3195 -0.2985 -0.5638
42395SOL    HW133148   3.584  11.047  10.120  0.4607  0.7264 -1.3496
42395SOL    HW233149   3.661  10.917  10.103  0.8753  0.6942  0.4673
42396SOL     OW33150   9.085   9.793   0.914 -0.3456 -0.1032 -0.0070
42396SOL    HW133151   8.996   9.768   0.938 -0.1045  1.3603  2.8284
42396SOL    HW233152   9.140   9.759   0.985  0.9543  1.4215 -0.2203
42397SOL     OW33153   2.095   7.331  11.746 -0.4147  0.0758  0.2939
42397SOL    HW133154   2.056   7.417  11.760 -1.3556 -0.3833  0.5327
42397SOL    HW233155   2.054   7.275  11.812 -0.7267 -0.8380 -0.6592
42398SOL     OW33156  11.722   6.573   2.232  0.5157  0.9859 -0.1547
42398SOL    HW133157  11.701   6.645   2.173  1.3432  2.2313  1.0110
42398SOL    HW233158  11.711   6.610   2.320  1.0221 -0.2910  0.4717
42399SOL     OW33159   3.567   0.888   8.562  0.1877  0.4563 -0.1715
42399SOL    HW133160   3.490   0.941   8.582  0.0780  0.2337  0.0057
42399SOL    HW233161   3.636   0.926   8.617 -0.4063 -0.9251  1.6525
42400SOL     OW33162  12.131   1.692   0.116 -0.1620  0.0347 -0.1236
42400SOL    HW133163  12.119   1.750   0.192 -0.7095 -0.2678  0.0266
42400SOL    HW233164  12.222   1.661   0.124  0.2286  1.0745 -0.3596
42401SOL     OW33165   0.042   0.930  12.188  0.7483 -0.0498  0.3958
42401SOL    HW133166  -0.007   0.848  12.190 -2.1112  1.3682 -2.3918
42401SOL    HW233167  -0.018   0.995  12.226  0.5467  1.6378 -2.5092
42402SOL     OW33168   1.751   8.222  10.306  0.5659 -0.4652  0.1401
42402SOL    HW133169   1.752   8.301  10.361  0.5747  1.4066 -2.4092
42402SOL    HW233170   1.825   8.171  10.338  1.7648  1.4671  0.6416
42403SOL     OW33171   7.744  10.424   4.742  0.9416  0.2816 -0.1572
42403SOL    HW133172   7.751  10.515   4.771  0.7596  0.4469 -0.6214
42403SOL    HW233173   7.653  10.415   4.713  0.9251 -0.0834  0.0000
42404SOL     OW33174  11.629   0.994   6.762  0.1812 -0.6078  0.1483
42404SOL    HW133175  11.625   0.905   6.798 -2.4578 -0.6548 -0.0246
42404SOL    HW233176  11.627   1.051   6.838 -0.0459 -0.7055  0.2173
42405SOL     OW33177   0.420  11.937   6.909  0.1534  0.3224  0.0562
42405SOL    HW133178   0.384  12.024   6.926  0.6645  0.6406 -0.4164
42405SOL    HW233179   0.421  11.930   6.814  1.7747  0.5400  0.0279
42406SOL     OW33180   1.055   8.900   1.547  0.3394  0.2520  0.3684
42406SOL    HW133181   1.036   8.807   1.555 -0.1724  0.3680  0.5094
42406SOL    HW233182   0.986   8.935   1.491  0.5593  0.5371  0.2694
42407SOL     OW33183   0.596   8.727   8.676  0.5530  0.3314 -0.5565
42407SOL    HW133184   0.601   8.728   8.771 -1.7155  0.2350 -0.3827
42407SOL    HW233185   0.545   8.649   8.655 -0.4461  1.2507 -1.7354
42408SOL     OW33186   9.490   5.999   5.141 -0.0192 -0.5430 -0.2944
42408SOL    HW133187   9.580   5.974   5.160 -0.1435 -1.0506 -0.3411
42408SOL    HW233188   9.447   5.917   5.116 -0.6493 -0.4159  0.3195
42409SOL     OW33189   2.291   9.039   8.833  0.0583  0.4211 -0.8139
42409SOL    HW133190   2.260   8.950   8.847  1.3661  0.0971  0.1390
42409SOL    HW233191   2.375   9.029   8.787  0.2806  1.1548 -0.5893
42410SOL     OW33192   9.643  11.834   1.764  0.2045  0.4720  0.2074
42410SOL    HW133193   9.571  11.869   1.817  1.0061  0.0241  1.6507
42410SOL    HW233194   9.699  11.788   1.827  1.0614 -0.3184 -1.0892
42411SOL     OW33195   7.854   4.987  10.317 -0.4779 -0.2353 -0.0673
42411SOL    HW133196   7.935   4.935  10.315 -0.4891 -0.3375  1.1716
42411SOL    HW233197   7.860   5.043  10.240 -0.0544 -1.4477 -0.9573
42412SOL     OW33198  12.067  11.737  11.293  0.2243 -0.3134 -0.4718
42412SOL    HW133199  11.992  11.692  11.254  1.0241 -2.8154  0.6675
42412SOL    HW233200  12.052  11.830  11.273 -3.3422 -0.6275  0.0401
42413SOL     OW33201   1.946   5.425  10.520 -0.3064  0.3176  0.1203
42413SOL    HW133202   1.982   5.356  10.576 -0.5537  0.1621  0.0874
42413SOL    HW233203   2.021   5.482  10.502 -0.4549  0.9660  1.4831
42414SOL     OW33204   8.469   5.998   0.357 -0.8092 -0.2258  0.0154
42414SOL    HW133205   8.382   5.991   0.395 -0.8098  0.9685  0.2812
42414SOL    HW233206   8.483   6.092   0.347  0.1507 -0.4320 -0.7183
42415SOL     OW33207   4.002   0.101   5.579  0.4478  0.5456  0.0069
42415SOL    HW133208   3.964   0.160   5.644 -0.3335 -1.7450  1.7365
42415SOL    HW233209   4.010   0.017   5.623  2.6628 -0.4196 -1.9748
42416SOL     OW33210   3.313   8.263  12.133 -0.1515  0.3775 -0.3619
42416SOL    HW133211   3.256   8.204  12.083  1.4224  0.1199 -1.9510
42416SOL    HW233212   3.330   8.217  12.215 -0.0798 -0.7660 -0.9941
42417SOL     OW33213   9.008   9.359  11.501  0.1132 -0.7038 -0.7808
42417SOL    HW133214   9.092   9.344  11.543  0.3653 -1.6618 -1.5943
42417SOL    HW233215   8.944   9.316  11.558  0.0819  0.5479  0.1588
42418SOL     OW33216   6.968  11.419   2.733 -0.2504 -0.1611  0.1125
42418SOL    HW133217   6.940  11.340   2.687 -0.3867  1.0256 -1.9557
42418SOL    HW233218   6.887  11.468   2.749 -0.4420 -1.2456  3.1971
42419SOL     OW33219  10.142   7.286   8.000 -0.1061  0.3063 -0.3029
42419SOL    HW133220  10.158   7.340   8.078  0.6069  1.8182 -1.4409
42419SOL    HW233221  10.088   7.214   8.032 -0.3493  1.2045  1.4782
42420SOL     OW33222   3.333   8.684   9.289 -0.0876 -0.4609  0.0363
42420SOL    HW133223   3.296   8.627   9.222 -0.1186  1.0290 -1.2710
42420SOL    HW233224   3.265   8.750   9.306  1.4075  1.6323 -1.5541
42421SOL     OW33225   7.830   0.263  11.131  0.8501  0.0339  0.1049
42421SOL    HW133226   7.902   0.223  11.082  2.3521  1.8990  0.6809
42421SOL    HW233227   7.835   0.356  11.110 -2.6277  0.0216 -1.3122
42422SOL     OW33228   3.051   8.834   2.854 -0.4103 -0.1695  0.4249
42422SOL    HW133229   3.085   8.912   2.810 -0.1039  0.2135  1.3106
42422SOL    HW233230   2.960   8.827   2.825 -0.7304  1.0854  1.0783
42423SOL     OW33231   3.890   0.884   5.452  0.7169  0.3890  0.0061
42423SOL    HW133232   3.811   0.860   5.404  0.0195  0.0572  1.3060
42423SOL    HW233233   3.954   0.905   5.383  0.0728 -1.1073 -1.0869
42424SOL     OW33234   6.866   7.263   3.940  0.7031 -0.1250  0.2826
42424SOL    HW133235   6.855   7.168   3.935  1.4077 -0.1509 -2.0162
42424SOL    HW233236   6.786   7.294   3.983 -0.4497 -1.6229 -0.6724
42425SOL     OW33237   2.116   0.312   4.900 -0.1366  0.5866 -0.4294
42425SOL    HW133238   2.107   0.403   4.929 -0.3291  1.1133 -2.0105
42425SOL    HW233239   2.062   0.262   4.961  0.2911  1.4600  0.7121
42426SOL     OW33240   2.239  10.447   9.636  0.1860 -0.6932  0.4118
42426SOL    HW133241   2.223  10.358   9.604  2.0838 -0.2456 -2.1393
42426SOL    HW233242   2.314  10.439   9.695  0.3604 -0.8023  0.1764
42427SOL     OW33243   5.428  11.357   9.813  0.2223  0.1978 -0.3119
42427SOL    HW133244   5.377  11.330   9.889  2.3071  0.2475  1.1938
42427SOL    HW233245   5.424  11.453   9.814  0.1229  0.1947 -0.3644
42428SOL     OW33246   6.017  11.693   7.652  0.0715  0.5565  0.7011
42428SOL    HW133247   5.953  11.749   7.608  1.0925  1.7230  0.6394
42428SOL    HW233248   6.051  11.747   7.723  2.3087  0.6834 -0.3861
42429SOL     OW33249   0.953   6.363   2.747 -0.6210  0.7758 -0.0424
42429SOL    HW133250   0.891   6.293   2.725 -1.0744  1.3769 -0.7505
42429SOL    HW233251   0.899   6.442   2.751  0.0251  1.2319 -0.1940
42430SOL     OW33252   1.951   8.919   3.586 -0.1577 -0.2471 -0.1453
42430SOL    HW133253   1.876   8.870   3.621 -0.4677  2.4051  3.5038
42430SOL    HW233254   1.912   8.999   3.551  0.8114  1.0772  1.6390
42431SOL     OW33255   9.618   0.577   8.149  0.0185  0.4102 -0.2873
42431SOL    HW133256   9.658   0.491   8.165 -0.4047 -0.1008 -1.8343
42431SOL    HW233257   9.549   0.584   8.215  1.5115  0.5868  1.3374
42432SOL     OW33258   7.550   7.800   5.396  0.4252 -0.6375 -1.0970
42432SOL    HW133259   7.575   7.870   5.455  2.7438 -0.6378 -1.9631
42432SOL    HW233260   7.550   7.721   5.450  1.4076 -0.4690 -0.8278
42433SOL     OW33261   2.418  11.754  12.149 -0.1126  1.0071 -0.3082
42433SOL    HW133262   2.335  11.706  12.157 -0.1526  1.3312  1.7584
42433SOL    HW233263   2.483  11.686  12.132 -0.1955  0.1409  2.3809
42434SOL     OW33264   6.967   0.774  12.296  0.3337  0.3873 -0.2609
42434SOL    HW133265   6.919   0.810  12.370 -0.3172 -0.4573 -0.2560
42434SOL    HW233266   6.929   0.687  12.283  1.4393 -0.0524 -0.6554
42435SOL     OW33267   5.019  10.692   8.506 -0.0497 -0.2915 -0.0741
42435SOL    HW133268   4.996  10.604   8.476 -0.5652 -0.1081 -0.2342
42435SOL    HW233269   4.954  10.711   8.574 -0.1080  0.0763 -0.2348
42436SOL     OW33270   1.207   1.704   3.570 -0.1125  0.0212  0.3478
42436SOL    HW133271   1.173   1.791   3.587 -1.5741  0.1800 -2.7324
42436SOL    HW233272   1.136   1.644   3.592  0.1177 -0.2133  0.4677
42437SOL     OW33273   8.693   5.559   1.756  0.2050 -0.1602  0.1509
42437SOL    HW133274   8.636   5.627   1.791  0.5053  0.4105 -0.4505
42437SOL    HW233275   8.731   5.598   1.677 -2.1270 -2.1251 -2.1239
42438SOL     OW33276   1.290   8.475   5.768 -0.6544  0.2212  0.7192
42438SOL    HW133277   1.328   8.522   5.842 -2.9226  0.4525  1.8503
42438SOL    HW233278   1.271   8.543   5.704 -1.3945  0.4772  1.1958
42439SOL     OW33279   0.109  10.350  12.046  0.0935 -0.3128  0.2971
42439SOL    HW133280   0.092  10.319  11.957 -0.0077 -0.7714  0.4760
42439SOL    HW233281   0.046  10.420  12.060  0.2429 -0.1049 -0.0634
42440SOL     OW33282  12.118   4.853  11.067 -0.2362 -0.2786 -0.6034
42440SOL    HW133283  12.045   4.867  11.006  0.3788  1.2866 -1.0142
42440SOL    HW233284  12.159   4.772  11.036 -2.1953 -1.6219  0.0768
42441SOL     OW33285  10.856  12.316   6.819 -0.5093 -0.1953  0.0445
42441SOL    HW133286  10.819  12.396   6.857  0.9662  1.2790 -1.3943
42441SOL    HW233287  10.835  12.322   6.726  1.8734 -0.0626 -0.5603
42442SOL     OW33288   2.703  11.542   6.431 -0.7090  0.0790  0.2711
42442SOL    HW133289   2.718  11.558   6.524  1.1324 -0.6067  0.1394
42442SOL    HW233290   2.609  11.525   6.424 -0.8620  0.0426  2.0120
42443SOL     OW33291   6.608   3.097   6.215  0.4288  0.4459  0.4349
42443SOL    HW133292   6.545   3.169   6.208  0.0055 -0.0419 -1.5917
42443SOL    HW233293   6.576   3.032   6.152  2.0302 -0.5391  0.5960
42444SOL     OW33294   0.477   4.734   8.666  0.4285 -0.1335 -0.2743
42444SOL    HW133295   0.431   4.735   8.582 -1.9966 -1.5268  0.9726
42444SOL    HW233296   0.546   4.669   8.654  1.0450  0.6896 -1.5776
42445SOL     OW33297   9.104  10.890  10.816 -0.2657 -0.5886  0.9338
42445SOL    HW133298   9.150  10.892  10.732  1.1999 -0.5684  1.6908
42445SOL    HW233299   9.011  10.890  10.793  0.0992 -0.4912 -0.6739
42446SOL     OW33300  11.677   6.000   2.122 -0.2138  0.2133 -0.1258
42446SOL    HW133301  11.682   6.096   2.123  0.3912  0.1788  0.2566
42446SOL    HW233302  11.671   5.978   2.029  1.8094  0.5266 -0.3802
42447SOL     OW33303   5.847  10.813  11.087 -0.0901 -0.1684  0.7181
42447SOL    HW133304   5.798  10.758  11.026 -1.8995  2.0718  0.0272
42447SOL    HW233305   5.853  10.760  11.167 -0.9657 -1.6927 -0.1651
42448SOL     OW33306  12.019  12.466  12.117 -0.6672  0.4925  0.3169
42448SOL    HW133307  11.931  12.482  12.084 -0.5231  1.4216  0.3372
42448SOL    HW233308  12.016  12.378  12.154 -2.1871  1.2957  2.3091
42449SOL     OW33309   7.203   9.370   2.869 -0.3192  0.4028  0.2444
42449SOL    HW133310   7.200   9.351   2.963 -2.8846  2.5755  0.7204
42449SOL    HW233311   7.164   9.293   2.828 -0.5017  0.0388  1.0659
42450SOL     OW33312  11.200   0.069   5.512 -0.0683 -0.3993  0.7200
42450SOL    HW133313  11.290   0.095   5.494  0.0241 -0.6575  0.8089
42450SOL    HW233314  11.193  -0.020   5.479 -0.3528 -0.3073  0.5215
42451SOL     OW33315   0.722   9.572   8.104 -0.2736 -0.1867  0.1829
42451SOL    HW133316   0.678   9.602   8.024 -0.2285 -2.3637 -0.7241
42451SOL    HW233317   0.815   9.587   8.087 -0.1996 -1.2837 -0.5185
42452SOL     OW33318   0.152   5.032  11.761 -0.0142  0.5267 -0.6260
42452SOL    HW133319   0.164   4.978  11.838 -0.6006  0.8043 -0.3321
42452SOL    HW233320   0.134   5.120  11.795  0.6313  0.8476 -1.0897
42453SOL     OW33321   8.810   0.143  12.463  0.1588 -0.5840  0.3137
42453SOL    HW133322   8.875   0.084  12.423  1.6049  1.4304 -0.4961
42453SOL    HW233323   8.849   0.167  12.547 -1.2115 -1.9986  1.4195
42454SOL     OW33324   7.791   1.194   0.680 -0.0362 -0.4450 -0.1847
42454SOL    HW133325   7.782   1.240   0.597  1.6815 -0.1950 -0.2611
42454SOL    HW233326   7.726   1.235   0.738  1.7413  2.4759 -0.0953
42455SOL     OW33327   0.958   9.836   8.115  0.0181  0.8113 -0.0624
42455SOL    HW133328   1.039   9.882   8.093  0.1446 -0.1293 -1.6479
42455SOL    HW233329   0.892   9.874   8.058 -0.0006 -0.5194 -0.9672
42456SOL     OW33330   6.610   0.506   7.768 -0.2579  0.4075 -0.0705
42456SOL    HW133331   6.652   0.586   7.800 -0.9344  0.9050 -0.4076
42456SOL    HW233332   6.644   0.437   7.825  0.6215  0.8715 -0.0157
42457SOL     OW33333   3.590   5.811   9.974  0.5823  0.2580  0.1670
42457SOL    HW133334   3.684   5.798   9.980  0.4310 -0.3462  1.8648
42457SOL    HW233335   3.570   5.873  10.045 -0.2930  0.3499 -0.1489
42458SOL     OW33336   3.873   5.686   9.708 -0.3901  0.0953 -0.8983
42458SOL    HW133337   3.886   5.706   9.801  0.3894  1.7391 -1.3284
42458SOL    HW233338   3.875   5.590   9.704 -1.8888 -0.0882  0.9570
42459SOL     OW33339   7.507   2.121   3.716 -0.1290  0.1567  0.4573
42459SOL    HW133340   7.497   2.148   3.807  0.6882 -0.4507  0.7319
42459SOL    HW233341   7.533   2.201   3.670  2.0658 -0.0477  1.2270
42460SOL     OW33342   0.816   6.855   6.632 -0.2483 -0.2351  0.0033
42460SOL    HW133343   0.785   6.942   6.603  0.7204  0.1442  0.0666
42460SOL    HW233344   0.908   6.854   6.607  0.1595 -0.6246  1.4456
42461SOL     OW33345   6.948   0.763   1.890  0.0587 -0.5512 -0.3221
42461SOL    HW133346   7.029   0.806   1.918 -0.8277  1.6384 -0.9080
42461SOL    HW233347   6.960   0.748   1.796 -0.7896  1.2614 -0.7528
42462SOL     OW33348   1.951   6.427   1.321 -0.0461 -0.2019  0.2990
42462SOL    HW133349   1.876   6.474   1.284  0.0633 -0.6989 -0.5733
42462SOL    HW233350   1.962   6.351   1.264  1.5683  0.2281 -0.0000
42463SOL     OW33351   3.261   7.569   3.609 -0.6480  0.1145 -0.1450
42463SOL    HW133352   3.350   7.594   3.581 -0.7859  1.4412  0.5572
42463SOL    HW233353   3.211   7.650   3.606 -1.6452 -0.4719  0.2523
42464SOL     OW33354   8.596   7.371  11.209  0.0019  0.0664  0.6870
42464SOL    HW133355   8.530   7.359  11.277 -0.0451 -0.4627  0.5545
42464SOL    HW233356   8.647   7.289  11.211 -0.4260 -0.2403 -0.3761
42465SOL     OW33357   8.394   1.829   1.144 -0.2355  0.0794  0.2271
42465SOL    HW133358   8.317   1.773   1.137  0.5756 -1.0932  0.4602
42465SOL    HW233359   8.461   1.774   1.185  0.3089  1.5094  1.3611
42466SOL     OW33360   3.297   2.031   5.412 -0.3614 -0.2252  0.2596
42466SOL    HW133361   3.244   1.984   5.476 -0.3399  0.7843  1.0467
42466SOL    HW233362   3.245   2.108   5.391 -1.1199 -1.3095 -2.1957
42467SOL     OW33363   4.878   5.763   2.359 -0.0889  0.1032 -0.6818
42467SOL    HW133364   4.876   5.715   2.442  1.7071  0.2336 -0.5216
42467SOL    HW233365   4.941   5.714   2.306 -1.0268  0.1718 -1.8886
42468SOL     OW33366   1.037   2.221   4.088 -0.2564 -0.2366 -0.2753
42468SOL    HW133367   1.035   2.125   4.090  0.3848 -0.2493 -0.2680
42468SOL    HW233368   1.092   2.246   4.161  1.4416  0.0590 -1.5924
42469SOL     OW33369   1.205   0.192   7.372  1.0434 -0.8738  0.1526
42469SOL    HW133370   1.212   0.263   7.309  0.3325 -0.5842  0.3893
42469SOL    HW233371   1.112   0.170   7.374  0.7637  0.2255  2.2571
42470SOL     OW33372   4.564   7.157   8.635 -0.1089  0.0665  0.3552
42470SOL    HW133373   4.546   7.250   8.652  2.2667  0.6863 -0.0840
42470SOL    HW233374   4.613   7.157   8.553 -0.2890 -1.6228  0.2144
42471SOL     OW33375   1.450  12.066   6.319  0.2543 -0.1532 -0.2598
42471SOL    HW133376   1.386  11.996   6.303  1.1163 -0.6152 -1.9111
42471SOL    HW233377   1.531  12.035   6.278  0.8455  1.5179 -0.4621
42472SOL     OW33378   4.263   1.585   5.223  0.0691 -0.3702 -0.2912
42472SOL    HW133379   4.190   1.538   5.264  0.0150  0.5518  0.7248
42472SOL    HW233380   4.246   1.678   5.243  1.0524 -0.0646 -0.7993
42473SOL     OW33381   2.853   9.551  12.119  0.5357 -0.1071 -0.2796
42473SOL    HW133382   2.830   9.628  12.067  0.9146  0.2027  0.0065
42473SOL    HW233383   2.948   9.556  12.129  0.8485 -1.6786 -1.9179
42474SOL     OW33384   0.604   7.259   9.448  0.4475  0.3764 -0.6546
42474SOL    HW133385   0.682   7.205   9.434  0.1444  0.6198 -4.2795
42474SOL    HW233386   0.531   7.197   9.440  0.1477  0.3317  1.6954
42475SOL     OW33387  10.776   8.111  10.239 -0.1622 -0.0069  0.6345
42475SOL    HW133388  10.835   8.066  10.299  1.2362  1.6453  0.5881
42475SOL    HW233389  10.691   8.068  10.250  0.8430 -1.8861  1.3446
42476SOL     OW33390   0.227  11.014   5.265 -0.1749  0.4810 -0.4531
42476SOL    HW133391   0.188  11.025   5.178  4.4568  0.0550 -2.8782
42476SOL    HW233392   0.230  11.102   5.302 -2.1248  0.6835 -0.6837
42477SOL     OW33393  12.426   7.390  10.433 -0.3677  0.0084 -0.3548
42477SOL    HW133394  12.436   7.444  10.355  1.1985  1.2145  0.6198
42477SOL    HW233395  12.450   7.302  10.404  2.2481  0.7891 -0.8502
42478SOL     OW33396   6.220  11.673   1.297  0.1551  0.8192 -0.2439
42478SOL    HW133397   6.159  11.654   1.226  0.4133  0.7777 -0.4565
42478SOL    HW233398   6.287  11.728   1.256  1.1783 -0.5244 -0.4331
42479SOL     OW33399   4.933   2.602   0.435  0.3514 -0.3941 -0.1265
42479SOL    HW133400   4.995   2.564   0.372  1.7138  0.0143  0.9111
42479SOL    HW233401   4.968   2.689   0.454 -1.4267  0.4858 -0.6838
42480SOL     OW33402   8.142   6.455   4.067 -0.0338  0.2193  0.0185
42480SOL    HW133403   8.148   6.484   3.975  0.0042  2.8261  0.7494
42480SOL    HW233404   8.221   6.403   4.080  1.6783  2.4664 -0.6451
42481SOL     OW33405   0.694   0.859   6.313  0.4206  0.3278 -0.6334
42481SOL    HW133406   0.765   0.799   6.292 -0.4542 -0.1437 -2.4385
42481SOL    HW233407   0.679   0.908   6.232 -1.7371 -0.0617 -0.5373
42482SOL     OW33408   7.841   1.939   1.963 -0.3259 -0.1250  0.3498
42482SOL    HW133409   7.911   1.928   2.026  0.9146 -0.1309 -0.9768
42482SOL    HW233410   7.766   1.968   2.015  0.7899  0.3902  1.7350
42483SOL     OW33411   0.789   8.841   7.494 -0.2629 -0.3045  0.0586
42483SOL    HW133412   0.859   8.906   7.495  0.5397 -1.1243 -0.6359
42483SOL    HW233413   0.798   8.794   7.577 -1.2587  0.8589  0.8614
42484SOL     OW33414   8.064  10.022  11.093 -0.3313  0.1987  0.4689
42484SOL    HW133415   8.112  10.022  11.176 -2.2516 -2.8377  1.7537
42484SOL    HW233416   8.008  10.100  11.097  2.0062  2.0058  0.3505
42485SOL     OW33417  11.668  11.406   0.981  0.1856 -0.1741  0.2615
42485SOL    HW133418  11.705  11.318   0.987 -0.6975 -0.5546  0.2684
42485SOL    HW233419  11.734  11.457   0.935  1.9256 -0.1349  2.6436
42486SOL     OW33420   1.997   3.396   8.782  0.1663  0.0543  0.1793
42486SOL    HW133421   2.083   3.381   8.744 -0.6151  1.7238 -2.5148
42486SOL    HW233422   1.939   3.337   8.735 -0.4954  0.5620  0.3394
42487SOL     OW33423   0.877  12.320   2.744 -0.3945  0.1975 -0.2733
42487SOL    HW133424   0.819  12.264   2.693  0.2448 -0.2909 -0.4783
42487SOL    HW233425   0.832  12.405   2.747 -0.6154  0.1344 -1.3507
42488SOL     OW33426  11.459   1.471   8.909  0.1190 -0.1704  0.7259
42488SOL    HW133427  11.464   1.550   8.963 -0.3926 -0.3644  1.0530
42488SOL    HW233428  11.367   1.446   8.910 -0.1118  0.4360 -1.1232
42489SOL     OW33429   3.950   1.664   8.652  0.0150  0.1673  0.2612
42489SOL    HW133430   3.984   1.639   8.738 -1.1310 -0.7038  0.4902
42489SOL    HW233431   3.879   1.602   8.636 -1.6103  2.0313 -0.1004
42490SOL     OW33432  10.908   8.746   4.652  0.4785  0.1459  0.3455
42490SOL    HW133433  10.857   8.792   4.585  1.0453  0.7647  0.3299
42490SOL    HW233434  10.843   8.718   4.716  0.1838  1.7442  0.8123
42491SOL     OW33435   7.277  12.053   6.784 -0.2507 -0.1734 -0.2445
42491SOL    HW133436   7.187  12.062   6.754 -0.3212 -0.1193 -0.0138
42491SOL    HW233437   7.298  12.136   6.826 -0.2561 -0.3624  0.1382
42492SOL     OW33438  10.497   6.910  10.097  0.1657  0.1452  0.0154
42492SOL    HW133439  10.547   6.828  10.098  0.9998  0.6337  1.4824
42492SOL    HW233440  10.430   6.896  10.029  0.7029 -1.4801 -0.2398
42493SOL     OW33441   5.370   7.846   8.155 -0.1731  0.0333  0.8144
42493SOL    HW133442   5.397   7.931   8.119  0.6915 -0.9772 -1.0277
42493SOL    HW233443   5.363   7.788   8.080 -1.1330 -1.4735  1.9896
42494SOL     OW33444   0.164   7.040   5.050 -0.4481 -0.1087  0.3276
42494SOL    HW133445   0.165   6.944   5.047  2.7790 -0.2111  0.9445
42494SOL    HW233446   0.230   7.066   4.986 -0.6059  1.6632  0.8434
42495SOL     OW33447   9.720  11.099   8.813  0.3493  0.5722  0.0240
42495SOL    HW133448   9.755  11.028   8.759 -0.5104 -0.4118  0.7282
42495SOL    HW233449   9.797  11.151   8.837  0.8553  0.5223 -1.3889
42496SOL     OW33450   6.854   8.120   4.309 -0.6766 -0.1425 -0.6803
42496SOL    HW133451   6.786   8.187   4.316 -0.5686 -0.0893  0.0084
42496SOL    HW233452   6.925   8.162   4.260 -1.4764 -0.4869 -2.1839
42497SOL     OW33453   9.886   8.198   1.813 -0.0214  0.6241 -0.1987
42497SOL    HW133454   9.811   8.196   1.754 -0.0708 -1.0812 -0.1288
42497SOL    HW233455   9.900   8.106   1.837  2.3702  0.8289 -0.5815
42498SOL     OW33456   4.464  11.232   4.407  0.2258  0.0303  0.0444
42498SOL    HW133457   4.551  11.270   4.419  0.4424 -0.9918  2.1521
42498SOL    HW233458   4.434  11.268   4.324  2.4220  0.8558 -0.4791
42499SOL     OW33459   5.385   4.472   1.888 -0.6308  0.4880 -0.2033
42499SOL    HW133460   5.452   4.513   1.942 -1.1089  1.2574 -0.1821
42499SOL    HW233461   5.432   4.408   1.834  0.1167  1.0568 -0.2257
42500SOL     OW33462   2.127   2.758   8.824  0.2466 -0.9794  0.1567
42500SOL    HW133463   2.096   2.698   8.757 -0.1872 -0.4891 -0.0868
42500SOL    HW233464   2.061   2.753   8.893 -0.6318  0.3906 -0.5511
42501SOL     OW33465   7.003   0.483   3.138 -0.0292 -0.1199 -0.2175
42501SOL    HW133466   6.923   0.530   3.162  0.1701  1.4792 -2.3679
42501SOL    HW233467   6.982   0.442   3.054  0.9263 -1.0519 -0.0221
42502SOL     OW33468   7.112  10.074   5.351  0.2741  0.2587 -0.1244
42502SOL    HW133469   7.135  10.159   5.313 -0.3547  1.0379  1.1930
42502SOL    HW233470   7.091  10.093   5.442 -1.2404 -1.0876 -0.1546
42503SOL     OW33471  11.705  11.349   8.848 -0.1029 -0.5478  0.3643
42503SOL    HW133472  11.627  11.391   8.886  0.8582 -0.5646  2.4845
42503SOL    HW233473  11.748  11.419   8.799 -2.3863 -0.9870 -2.5740
42504SOL     OW33474   7.048   5.220  11.863 -0.6454 -0.0712 -0.3918
42504SOL    HW133475   6.975   5.174  11.821 -0.1075 -0.0540 -1.3917
42504SOL    HW233476   7.010   5.301  11.896 -1.2488 -0.4481 -0.1364
42505SOL     OW33477   3.740   9.978  10.462  0.0750 -0.4007  0.5048
42505SOL    HW133478   3.833   9.993  10.481  0.1937  2.0875 -1.5669
42505SOL    HW233479   3.711  10.058  10.417 -2.7255 -1.6775 -0.1740
42506SOL     OW33480   5.052   3.810   5.480  0.1659  0.3513  0.0669
42506SOL    HW133481   5.003   3.891   5.468  1.0907  0.7040 -1.6950
42506SOL    HW233482   5.051   3.768   5.394 -1.2676 -2.1297  1.2002
42507SOL     OW33483   3.170   8.044  11.406  0.3261  0.5533 -0.6257
42507SOL    HW133484   3.231   8.010  11.471 -0.6969  1.0961  0.6784
42507SOL    HW233485   3.142   7.967  11.356  0.7250  0.0409 -0.0678
42508SOL     OW33486   9.639   4.256   0.662  0.1298  0.2398  0.3494
42508SOL    HW133487   9.658   4.290   0.750 -0.0917 -2.4675  1.5231
42508SOL    HW233488   9.715   4.282   0.611  0.4498  1.5427  1.3996
42509SOL     OW33489   7.060   0.853  10.280 -0.2309 -0.1139 -0.0189
42509SOL    HW133490   7.083   0.837  10.372  0.8974  1.5677  0.0405
42509SOL    HW233491   7.141   0.834  10.232  0.0726  1.7191 -0.3065
42510SOL     OW33492   8.433   7.593  12.382  0.3504  0.6000  0.0118
42510SOL    HW133493   8.425   7.510  12.427 -0.2406 -0.3633 -1.7783
42510SOL    HW233494   8.406   7.658  12.447 -0.0388 -0.6709  1.1716
42511SOL     OW33495   8.050   6.829   2.117  0.2024  0.1836 -0.4748
42511SOL    HW133496   8.052   6.915   2.075  0.7644  0.0959 -0.6358
42511SOL    HW233497   8.018   6.770   2.050 -2.6887  0.6342  0.3532
42512SOL     OW33498  10.126   3.558   4.635  0.1699  0.1297 -0.4405
42512SOL    HW133499  10.197   3.598   4.686  0.1824 -1.6349  1.0265
42512SOL    HW233500  10.170   3.498   4.575  0.0461  1.0092 -1.4400
42513SOL     OW33501  10.316  10.188   6.080  0.7158 -0.5343 -0.0016
42513SOL    HW133502  10.279  10.109   6.118  1.3857 -1.5487 -1.3795
42513SOL    HW233503  10.350  10.161   5.995 -1.0523  1.6760 -1.5510
42514SOL     OW33504   3.002   6.618   1.365  0.0403 -0.0838 -0.0156
42514SOL    HW133505   3.063   6.678   1.408 -0.7679  0.6932  0.0653
42514SOL    HW233506   3.040   6.531   1.379  1.6322  0.4488 -0.8016
42515SOL     OW33507   4.900   0.550   6.603  0.5688  0.2824 -0.1221
42515SOL    HW133508   4.933   0.635   6.634  0.0007  0.3692  0.2503
42515SOL    HW233509   4.944   0.538   6.518  0.8370  0.8349 -0.0704
42516SOL     OW33510   7.321   6.519   8.080 -0.1499 -0.7836  0.1736
42516SOL    HW133511   7.413   6.492   8.080 -0.2549 -1.1536  0.0495
42516SOL    HW233512   7.322   6.608   8.116  0.2397 -0.8352  0.2983
42517SOL     OW33513  12.465  10.163   5.455 -0.1648 -0.4914 -0.1938
42517SOL    HW133514  12.522  10.093   5.423  0.0142 -0.5989  0.3472
42517SOL    HW233515  12.506  10.192   5.537  0.1374  0.7164 -0.7555
42518SOL     OW33516   9.425   0.196   7.395  0.0564 -0.2489  0.3496
42518SOL    HW133517   9.493   0.135   7.425 -0.9513 -0.7714  1.6642
42518SOL    HW233518   9.464   0.283   7.408  1.4527 -0.5404 -1.4220
42519SOL     OW33519  12.100   4.080  10.711  0.1937  0.4433 -0.2118
42519SOL    HW133520  12.083   4.173  10.722  1.6866  0.8135 -0.7625
42519SOL    HW233521  12.127   4.071  10.619  0.8518 -0.3873  0.0391
42520SOL     OW33522   9.603   2.850   5.043 -0.3682 -0.0630  0.1031
42520SOL    HW133523   9.542   2.918   5.014 -0.3021  0.3060  0.8244
42520SOL    HW233524   9.660   2.836   4.967 -0.1354  0.9708  0.0691
42521SOL     OW33525   0.858   7.279   3.488  0.2257 -0.5164  0.0199
42521SOL    HW133526   0.900   7.266   3.403 -2.4441 -0.9091 -1.3232
42521SOL    HW233527   0.894   7.209   3.543  1.5858 -0.5852 -0.8960
42522SOL     OW33528   7.844   5.363   3.670 -0.5172  0.3112 -0.0695
42522SOL    HW133529   7.830   5.311   3.591 -1.0931 -0.6032  0.6238
42522SOL    HW233530   7.904   5.433   3.642 -1.0875  0.2853 -1.4210
42523SOL     OW33531   0.887   0.888   1.580  0.0606 -0.5902 -0.2197
42523SOL    HW133532   0.967   0.866   1.629 -0.1734  1.5337  1.2694
42523SOL    HW233533   0.818   0.839   1.623  0.1592 -0.2378  0.3529
42524SOL     OW33534   1.667   4.813   1.326  0.3451  0.2553  0.2874
42524SOL    HW133535   1.609   4.805   1.401 -1.1806  0.5686 -0.8072
42524SOL    HW233536   1.671   4.725   1.289  0.9462  0.1394  0.6135
42525SOL     OW33537  12.027  10.011   2.593 -0.2809  0.5971  0.1803
42525SOL    HW133538  11.967  10.004   2.667 -0.5523 -0.5058 -0.1330
42525SOL    HW233539  12.108  10.046   2.630 -0.5543  0.4598  0.9067
42526SOL     OW33540   1.031  11.920  11.958 -0.2045 -0.8418  0.3818
42526SOL    HW133541   0.936  11.903  11.957 -0.4100  0.2965 -0.0688
42526SOL    HW233542   1.044  11.990  11.895  1.0514 -1.4572 -0.0717
42527SOL     OW33543   6.606   8.868   5.842  0.0419 -0.3501 -0.1880
42527SOL    HW133544   6.570   8.929   5.778 -4.3476 -2.9283 -0.5708
42527SOL    HW233545   6.675   8.821   5.795  0.1488  0.9576 -1.4161
42528SOL     OW33546   2.636   2.739   1.674 -0.3333 -0.4277  0.2222
42528SOL    HW133547   2.652   2.803   1.743 -0.4307 -1.0816  0.8599
42528SOL    HW233548   2.702   2.759   1.607  0.6933 -0.6764  1.1383
42529SOL     OW33549  10.700   6.800   0.424  1.0694 -0.3264 -0.4358
42529SOL    HW133550  10.688   6.861   0.352  0.6637 -1.5963 -1.4755
42529SOL    HW233551  10.611   6.767   0.442  1.3099 -0.7634 -0.0236
42530SOL     OW33552   8.315   9.597   3.552  0.1924 -0.0374 -0.4236
42530SOL    HW133553   8.378   9.665   3.579 -0.3595  0.7344 -1.0404
42530SOL    HW233554   8.271   9.572   3.634  0.5451  0.1972 -0.1568
42531SOL     OW33555   6.265   4.117   3.595 -0.2792  0.5882 -0.2761
42531SOL    HW133556   6.214   4.038   3.579 -0.9828  0.8818  0.4493
42531SOL    HW233557   6.349   4.100   3.552 -0.6679 -0.2604 -0.7301
42532SOL     OW33558   4.171  11.543  10.722 -0.7045  0.3747  0.4442
42532SOL    HW133559   4.153  11.635  10.701  0.9299  0.4519 -0.8169
42532SOL    HW233560   4.265  11.540  10.737 -1.0091 -0.7671  2.3924
42533SOL     OW33561   2.601   3.689   3.833  0.3041 -0.0730  0.0397
42533SOL    HW133562   2.560   3.625   3.891  0.5696 -0.4232 -0.1530
42533SOL    HW233563   2.558   3.772   3.854 -1.0796 -0.5751 -0.7445
42534SOL     OW33564   6.103   0.656   1.200  0.1900 -0.1834 -0.2188
42534SOL    HW133565   6.073   0.743   1.227  1.2065 -0.0795  0.6281
42534SOL    HW233566   6.143   0.670   1.114  0.1022  0.1229 -0.2101
42535SOL     OW33567  10.920   1.926   8.078 -0.0366 -0.0941  0.2710
42535SOL    HW133568  10.891   1.918   7.987 -1.2958  1.3805  0.5064
42535SOL    HW233569  11.016   1.919   8.073 -0.0928 -0.0987 -1.1531
42536SOL     OW33570  11.924   1.738   1.291  0.2321 -0.1416  0.2088
42536SOL    HW133571  11.849   1.683   1.315 -0.2587  1.0284  1.4926
42536SOL    HW233572  11.885   1.816   1.251  0.5223  1.5297  2.9265
42537SOL     OW33573   4.310   1.446   0.494 -0.4323  0.1404  0.1216
42537SOL    HW133574   4.394   1.465   0.451 -1.3535  0.3589 -1.6610
42537SOL    HW233575   4.281   1.530   0.527 -0.5154  0.2974 -0.3397
42538SOL     OW33576  10.700   0.001  11.944  0.2408  0.2428 -0.0502
42538SOL    HW133577  10.767   0.069  11.952  0.2270  0.2768 -0.2330
42538SOL    HW233578  10.749  -0.078  11.920  0.6946 -0.5892  3.1179
42539SOL     OW33579   0.876   9.446   4.318  0.8014 -0.0774 -0.3298
42539SOL    HW133580   0.964   9.411   4.309  0.8446 -0.8877  2.3748
42539SOL    HW233581   0.876   9.492   4.401 -1.1124  0.6275 -0.6487
42540SOL     OW33582   3.052   2.103   7.127 -0.3795 -0.1553  0.2732
42540SOL    HW133583   3.106   2.137   7.198 -1.5744  2.1425  0.1913
42540SOL    HW233584   2.991   2.043   7.170  0.5550 -0.8001  0.7382
42541SOL     OW33585   0.027   1.663   5.131 -0.0958  0.1989 -0.3513
42541SOL    HW133586   0.076   1.581   5.125 -1.7582 -0.9544  1.0161
42541SOL    HW233587   0.015   1.677   5.225  0.0658  1.9946 -0.5612
42542SOL     OW33588   0.110  10.704   8.124  0.5301  0.4404  0.0063
42542SOL    HW133589   0.143  10.634   8.068 -3.6421 -0.4447 -1.6546
42542SOL    HW233590   0.090  10.776   8.064 -4.1868 -0.5815 -0.0345
42543SOL     OW33591   7.001   9.930  10.511 -0.0962 -0.2372 -0.5042
42543SOL    HW133592   6.919   9.915  10.558  0.1872  1.0416  0.4257
42543SOL    HW233593   7.047   9.846  10.516 -0.8434 -0.6283 -0.0420
42544SOL     OW33594  11.254  12.328   1.117  0.3171 -0.9461  0.5211
42544SOL    HW133595  11.235  12.295   1.205 -0.6109  0.6863  0.9678
42544SOL    HW233596  11.350  12.334   1.115  0.3447 -0.8602  1.4683
42545SOL     OW33597   7.450   3.900   7.211  0.5109  0.0024 -0.4042
42545SOL    HW133598   7.456   3.896   7.306  1.2306 -0.8442 -0.4724
42545SOL    HW233599   7.488   3.818   7.181  0.5961  0.3996 -1.4341
42546SOL     OW33600   5.204   1.489   8.946 -0.6086  0.0528 -0.0080
42546SOL    HW133601   5.119   1.512   8.908 -0.9477 -1.2721 -0.1055
42546SOL    HW233602   5.201   1.527   9.034 -1.2999  0.0402 -0.0161
42547SOL     OW33603   0.181   8.152   2.120 -0.6393  0.1735  0.0151
42547SOL    HW133604   0.126   8.220   2.160 -0.4134  0.9329 -0.9128
42547SOL    HW233605   0.271   8.183   2.134 -0.5274 -0.0209 -0.2597
42548SOL     OW33606   6.725   5.604  12.298  0.4792 -0.3025  0.2603
42548SOL    HW133607   6.688   5.675  12.349 -0.2125 -1.5594  1.6070
42548SOL    HW233608   6.696   5.620  12.209  0.4605  1.1484  0.5015
42549SOL     OW33609   8.175   6.048   5.777  0.1210  0.5384 -0.5162
42549SOL    HW133610   8.261   6.028   5.740  0.2654  1.1992 -0.5411
42549SOL    HW233611   8.143   5.964   5.811  1.2011  0.4739  0.3829
42550SOL     OW33612   4.745  10.914   1.186  0.1371 -0.3812 -0.5439
42550SOL    HW133613   4.654  10.905   1.216  0.3767 -0.5277  0.1662
42550SOL    HW233614   4.746  10.998   1.139 -0.2170 -0.0264  0.0537
42551SOL     OW33615  11.782   7.475   7.735  0.1059 -0.1182 -0.3764
42551SOL    HW133616  11.707   7.425   7.703  0.4035 -0.4353 -0.5889
42551SOL    HW233617  11.745   7.536   7.799 -0.4634  0.3377 -1.1208
42552SOL     OW33618   2.869   2.041  10.762 -0.4374  0.5202 -0.0616
42552SOL    HW133619   2.954   2.066  10.725 -0.3687 -0.1957 -0.4189
42552SOL    HW233620   2.814   2.118  10.751 -0.1057  0.6745 -0.7131
42553SOL     OW33621   4.969   7.237  11.529 -0.2477  0.1753 -0.2787
42553SOL    HW133622   4.972   7.206  11.619 -1.3234  0.5082 -0.1082
42553SOL    HW233623   5.059   7.232  11.498  0.1549  0.2056  0.8645
42554SOL     OW33624   6.053   7.131   4.415  0.6913 -0.3993 -0.7387
42554SOL    HW133625   6.122   7.194   4.437 -0.2430  0.3186  0.2910
42554SOL    HW233626   6.084   7.048   4.451  1.5114 -0.3359 -1.2760
42555SOL     OW33627  10.832   0.504   2.088 -0.6670  0.3465 -0.3513
42555SOL    HW133628  10.872   0.443   2.027  0.6009  0.4129  0.3591
42555SOL    HW233629  10.771   0.555   2.036 -0.6594 -0.5428 -1.2501
42556SOL     OW33630   4.601   2.779   9.247  0.3549  0.2875 -0.3500
42556SOL    HW133631   4.582   2.867   9.215  0.9831  0.3804 -0.4704
42556SOL    HW233632   4.661   2.742   9.183 -0.7150 -0.6223 -0.8651
42557SOL     OW33633   8.465   8.559  11.570 -0.2182 -0.4425  0.1095
42557SOL    HW133634   8.385   8.506  11.562  1.0928 -2.7502  1.3397
42557SOL    HW233635   8.533   8.507  11.526  1.4124 -0.5132  2.5491
42558SOL     OW33636   8.313  11.968   9.370 -0.8379 -0.3230  0.9003
42558SOL    HW133637   8.267  12.043   9.333  1.2097  0.4291 -0.3141
42558SOL    HW233638   8.244  11.909   9.399 -2.5481  0.5406 -1.1415
42559SOL     OW33639   9.633   4.708   6.728  0.3547  0.3278  0.2150
42559SOL    HW133640   9.597   4.796   6.722  0.9475  0.7641  2.3318
42559SOL    HW233641   9.559   4.653   6.753  0.1128  0.3248 -0.5025
42560SOL     OW33642   2.294   7.637   6.206  0.1720 -0.4009  0.3860
42560SOL    HW133643   2.340   7.687   6.138 -1.4232 -1.0200 -1.2206
42560SOL    HW233644   2.298   7.547   6.176 -2.9694 -0.3625 -0.3998
42561SOL     OW33645   0.683   3.792  10.906 -0.1077  0.6188 -0.0934
42561SOL    HW133646   0.735   3.748  10.839  0.7930 -0.5367  1.2687
42561SOL    HW233647   0.616   3.727  10.931 -2.0689  1.9552 -1.5775
42562SOL     OW33648   2.706   4.442   4.474 -0.4302  0.2564  0.1209
42562SOL    HW133649   2.656   4.431   4.393 -0.9153 -0.1171  0.4683
42562SOL    HW233650   2.789   4.398   4.457  0.0481  1.3886 -0.6749
42563SOL     OW33651  11.508   7.952   5.868  0.2619  0.0830  0.5718
42563SOL    HW133652  11.562   8.010   5.814 -2.0315  0.9134 -0.9702
42563SOL    HW233653  11.534   7.863   5.842  1.1752  0.4381  0.2261
42564SOL     OW33654  10.898  12.363   2.817  0.0274 -0.7168 -0.2359
42564SOL    HW133655  10.955  12.413   2.758 -0.3528 -0.2736 -0.2335
42564SOL    HW233656  10.809  12.389   2.793 -0.1827 -1.4445 -0.2760
42565SOL     OW33657   2.889  10.158   2.655  0.6250  0.1099 -0.4907
42565SOL    HW133658   2.827  10.217   2.611  0.1413  1.3300  1.6336
42565SOL    HW233659   2.861  10.070   2.631 -0.3547  0.6979 -1.5870
42566SOL     OW33660   6.260   7.070   1.477  0.4966  0.5402 -0.2412
42566SOL    HW133661   6.295   7.075   1.387  0.7943  0.1552 -0.1494
42566SOL    HW233662   6.274   6.980   1.503  0.7321  0.7364  0.3230
42567SOL     OW33663   9.970  11.796   3.661  0.4150  0.6309 -0.1306
42567SOL    HW133664  10.018  11.781   3.580 -0.1300 -0.0237 -0.3360
42567SOL    HW233665   9.880  11.770   3.642  0.5270 -0.7749  1.0307
42568SOL     OW33666   9.692   2.126  11.488  0.3200  0.2997 -0.2593
42568SOL    HW133667   9.645   2.056  11.442 -0.1838  1.3470 -1.3809
42568SOL    HW233668   9.649   2.132  11.573 -0.6095  0.2509 -0.7209
42569SOL     OW33669  10.753   2.116   8.790 -0.5756  0.0420  0.3866
42569SOL    HW133670  10.663   2.084   8.793 -0.4301 -0.5144 -0.5647
42569SOL    HW233671  10.788   2.079   8.709  0.5465  0.1483  0.8112
42570SOL     OW33672   8.034   5.522   2.543 -0.3505 -0.2098 -0.4857
42570SOL    HW133673   8.053   5.456   2.609  1.6755 -1.3142 -2.0648
42570SOL    HW233674   7.945   5.500   2.512 -0.0765 -1.6230 -0.3119
42571SOL     OW33675   6.130   6.083   5.645 -0.3918 -0.1203  0.1329
42571SOL    HW133676   6.126   6.167   5.691 -2.5607  0.7484 -1.4739
42571SOL    HW233677   6.123   6.018   5.716  2.8689  0.8817  1.5572
42572SOL     OW33678   4.291   7.275  11.469 -0.4767  0.9190  0.8185
42572SOL    HW133679   4.299   7.270  11.564  0.2705 -0.7481  0.7186
42572SOL    HW233680   4.226   7.208  11.447 -3.1414  3.4995  0.3561
42573SOL     OW33681   5.383   4.919   1.657 -0.3860 -0.2042 -0.1468
42573SOL    HW133682   5.338   4.837   1.638  1.1654 -1.0669 -0.2349
42573SOL    HW233683   5.313   4.978   1.686 -1.2075 -2.3587  2.6302
42574SOL     OW33684   2.999   8.385   9.050  0.3882 -0.1803  0.4186
42574SOL    HW133685   2.908   8.380   9.078  0.8756  0.3486  2.2850
42574SOL    HW233686   3.036   8.299   9.073  0.0104 -1.0429 -1.9168
42575SOL     OW33687   8.444   2.493  11.711  0.3070  0.0916  0.0940
42575SOL    HW133688   8.389   2.545  11.770  0.9311  0.6808  0.1655
42575SOL    HW233689   8.502   2.444  11.770 -0.2667 -0.6909  0.0271
42576SOL     OW33690   2.827   5.656  10.596 -0.2597 -0.0634  0.2857
42576SOL    HW133691   2.776   5.713  10.538 -0.4742 -1.5527 -1.0676
42576SOL    HW233692   2.772   5.579  10.609  0.6285 -0.6352  0.8182
42577SOL     OW33693   1.287  10.303   3.424 -0.1680 -0.0963 -0.5047
42577SOL    HW133694   1.316  10.343   3.342 -0.6078 -1.3541 -1.3071
42577SOL    HW233695   1.308  10.210   3.414  1.0539 -0.0881  1.4033
42578SOL     OW33696   3.787   5.667  10.752  0.3819  0.1193  0.4862
42578SOL    HW133697   3.778   5.746  10.804 -3.3495  1.2491 -1.4657
42578SOL    HW233698   3.745   5.599  10.804  4.2106 -1.0218  2.4872
42579SOL     OW33699   3.602   7.306   6.532 -0.5978 -0.0280  0.1830
42579SOL    HW133700   3.643   7.377   6.581 -0.8600  0.0559  0.2802
42579SOL    HW233701   3.645   7.227   6.564  0.2423  0.1507 -0.4799
42580SOL     OW33702   0.859   6.426   9.994 -0.0937  0.0150  0.0702
42580SOL    HW133703   0.876   6.518  10.012 -1.6693 -0.1689  3.1555
42580SOL    HW233704   0.946   6.385   9.994  0.5079  1.2364  0.2298
42581SOL     OW33705   5.482   1.131  10.775 -0.1899  0.1539 -0.0560
42581SOL    HW133706   5.578   1.132  10.782 -0.1849  1.0352 -0.0502
42581SOL    HW233707   5.464   1.079  10.697  0.1464 -2.3067  1.4062
42582SOL     OW33708   8.949   1.657  11.879 -0.0712 -0.0528  0.1986
42582SOL    HW133709   8.926   1.744  11.913 -2.4317 -0.2828 -0.6206
42582SOL    HW233710   8.884   1.599  11.918  1.7409 -1.5972  1.0915
42583SOL     OW33711   5.730   9.822   4.914  0.1683 -0.1559 -0.6805
42583SOL    HW133712   5.734   9.825   4.818  1.6902 -1.4602 -0.7015
42583SOL    HW233713   5.645   9.859   4.935  0.0417  0.7288 -2.5063
42584SOL     OW33714   4.030  11.361   8.864  0.0202 -0.2785 -0.1524
42584SOL    HW133715   4.074  11.279   8.842  0.4394  0.1164 -0.8412
42584SOL    HW233716   3.943  11.336   8.892 -1.2805 -0.7539 -4.0810
42585SOL     OW33717   5.326   5.783   0.777  0.5010 -0.2572  0.4185
42585SOL    HW133718   5.304   5.691   0.794  1.7130 -1.1726 -2.3750
42585SOL    HW233719   5.275   5.806   0.699  1.6296  0.7937 -0.0497
42586SOL     OW33720   4.445   3.738  12.222 -0.2319  0.1920  0.5043
42586SOL    HW133721   4.397   3.655  12.222  0.2298 -0.0952 -0.5575
42586SOL    HW233722   4.528   3.718  12.265  0.8887 -0.5553 -1.8524
42587SOL     OW33723   5.776   7.536  11.312 -0.0705 -0.1887  0.3921
42587SOL    HW133724   5.725   7.612  11.283 -0.2653 -0.1388  0.8574
42587SOL    HW233725   5.771   7.539  11.407 -1.2927 -1.6093  0.4033
42588SOL     OW33726   0.241   9.822   0.446 -0.2080  0.2386  0.2253
42588SOL    HW133727   0.303   9.889   0.475 -0.8185  0.4593  1.0553
42588SOL    HW233728   0.173   9.870   0.400  0.8195 -0.1227 -1.8116
42589SOL     OW33729   6.650   5.271   4.671 -0.4252 -0.4889  0.0589
42589SOL    HW133730   6.745   5.277   4.671 -0.5031  1.0231 -0.2656
42589SOL    HW233731   6.622   5.328   4.743 -1.0860 -0.9041  0.1377
42590SOL     OW33732  11.718   6.225   2.498  0.1957  0.2808 -0.2778
42590SOL    HW133733  11.722   6.256   2.588 -1.0268  0.7738 -0.3750
42590SOL    HW233734  11.750   6.135   2.502 -1.8471 -0.4487  1.0353
42591SOL     OW33735   3.011   5.008  10.021  0.5721 -0.2079 -0.3864
42591SOL    HW133736   2.994   4.967  10.105 -0.6865 -1.0730 -1.0360
42591SOL    HW233737   2.994   5.101  10.035 -2.6214 -0.6961 -0.3701
42592SOL     OW33738  11.338   6.855   1.050 -0.1943 -0.2960  0.5761
42592SOL    HW133739  11.259   6.904   1.028  0.0168 -0.2687 -0.1810
42592SOL    HW233740  11.353   6.872   1.143  2.0020  4.2529 -0.3403
42593SOL     OW33741   0.990   1.041   3.088  0.2066 -0.6973  0.2441
42593SOL    HW133742   0.961   1.125   3.124  1.7228 -0.1446  0.2563
42593SOL    HW233743   0.949   1.037   3.002 -0.0882 -0.0496  0.3465
42594SOL     OW33744   4.470   7.499   2.757  0.0723  0.6437 -0.6790
42594SOL    HW133745   4.379   7.526   2.742 -0.6551 -0.7455  0.8393
42594SOL    HW233746   4.487   7.435   2.688 -0.8612 -0.6167  0.2018
42595SOL     OW33747   9.635   3.493   2.250  0.7504 -0.0899  0.4014
42595SOL    HW133748   9.619   3.579   2.209 -2.3597 -0.2442  1.0529
42595SOL    HW233749   9.583   3.432   2.198 -0.6525 -0.8175  2.5464
42596SOL     OW33750   8.640   8.104   5.214  0.0858  0.3334 -0.2471
42596SOL    HW133751   8.570   8.046   5.243  0.4550  0.8876  1.9128
42596SOL    HW233752   8.707   8.097   5.282  0.4428  2.7272 -0.2594
42597SOL     OW33753   8.717   4.748   4.796 -0.1892 -0.6210 -0.1516
42597SOL    HW133754   8.791   4.808   4.793 -0.1864 -0.6479 -1.8714
42597SOL    HW233755   8.747   4.675   4.851 -0.2356  0.9306  2.0408
42598SOL     OW33756  10.510   8.992  12.248 -0.5548  0.6341  0.4733
42598SOL    HW133757  10.512   9.046  12.169  0.4224 -1.4069 -0.9926
42598SOL    HW233758  10.591   9.012  12.293  0.5777 -0.6853 -0.8872
42599SOL     OW33759   3.922  11.164  11.494  0.1864 -0.3787  0.1158
42599SOL    HW133760   3.968  11.152  11.577  0.7240  0.0619 -0.1103
42599SOL    HW233761   3.957  11.245  11.458 -1.6410  0.6192  0.4934
42600SOL     OW33762   7.960   0.662   8.008  0.0848  0.3309 -0.3260
42600SOL    HW133763   7.993   0.693   7.923  1.1084 -0.5073 -0.2519
42600SOL    HW233764   7.865   0.665   7.999  0.1757  0.4912 -1.4116
42601SOL     OW33765  10.845   7.853   5.008 -1.0163 -0.3811  0.1440
42601SOL    HW133766  10.809   7.777   5.054 -0.5872 -0.5107  0.2693
42601SOL    HW233767  10.802   7.928   5.049 -1.1805 -0.5362  0.2598
42602SOL     OW33768   4.300  11.819   3.213  0.0500 -0.5541 -0.7504
42602SOL    HW133769   4.283  11.859   3.127 -0.2073 -0.6982 -0.7682
42602SOL    HW233770   4.395  11.811   3.217  0.0060 -2.5507 -1.9710
42603SOL     OW33771  10.051  10.868   7.963  0.0382 -0.1727 -0.1663
42603SOL    HW133772  10.096  10.951   7.979 -0.4329  0.5389 -2.2190
42603SOL    HW233773  10.117  10.810   7.926 -0.2244  0.1751 -1.2025
42604SOL     OW33774   1.459   7.145   3.082  0.7142  0.5762  0.7887
42604SOL    HW133775   1.391   7.126   3.017  1.0060  1.6983  0.1249
42604SOL    HW233776   1.471   7.063   3.129  0.4336 -0.2478 -0.5282
42605SOL     OW33777   2.948   6.736  11.906 -0.2392 -0.4465 -0.3862
42605SOL    HW133778   2.934   6.828  11.887  1.7479  0.0278  0.2463
42605SOL    HW233779   3.039   6.730  11.936 -0.6801 -2.4154  0.8119
42606SOL     OW33780   5.351   4.586   8.559 -0.8661 -0.7786  0.1673
42606SOL    HW133781   5.365   4.515   8.496 -0.2911 -1.4347  1.0031
42606SOL    HW233782   5.342   4.542   8.644 -2.1614  0.0496  0.4854
42607SOL     OW33783   7.666   1.654   2.462 -0.0285  0.1447  0.9112
42607SOL    HW133784   7.646   1.738   2.504 -2.5171 -0.9147  2.0600
42607SOL    HW233785   7.604   1.648   2.389  2.4261  0.7360 -1.3651
42608SOL     OW33786   0.971   3.504  10.309 -0.1062  0.1527  0.0188
42608SOL    HW133787   0.956   3.595  10.335  0.6407  0.2641  0.0799
42608SOL    HW233788   1.043   3.508  10.247  0.0360 -0.4142  0.1385
42609SOL     OW33789   5.739   3.470  10.536 -0.6349  0.0103  0.3454
42609SOL    HW133790   5.793   3.397  10.568 -1.2050  0.1479  1.6881
42609SOL    HW233791   5.769   3.484  10.447  0.5642 -0.8554  0.5808
42610SOL     OW33792   9.284   2.185   9.322 -0.0474  0.1066  0.0673
42610SOL    HW133793   9.269   2.255   9.385  3.1355 -0.5613  1.7698
42610SOL    HW233794   9.360   2.214   9.271  0.8868 -1.7147  0.3259
42611SOL     OW33795   8.881  10.941   1.050 -0.0588 -0.4804  0.4156
42611SOL    HW133796   8.894  10.966   1.142 -0.3952 -1.3545  0.7115
42611SOL    HW233797   8.891  10.846   1.049 -3.4364 -0.9798  0.2135
42612SOL     OW33798  10.828   7.957   7.222  0.2472  0.2672 -0.4784
42612SOL    HW133799  10.780   7.991   7.297  2.3966 -1.7918  2.0351
42612SOL    HW233800  10.792   7.870   7.207  0.8582  0.0590 -0.8046
42613SOL     OW33801   3.979   3.698   5.824 -0.4205 -0.2126  0.1435
42613SOL    HW133802   3.927   3.699   5.904 -1.4864  0.8114 -0.5288
42613SOL    HW233803   3.934   3.758   5.765  2.0128  1.4578 -0.1853
42614SOL     OW33804   7.165   7.426  11.476 -0.3022 -0.0039 -0.2366
42614SOL    HW133805   7.087   7.371  11.473  0.7412 -1.5136 -2.3088
42614SOL    HW233806   7.138   7.509  11.437 -0.7266 -0.7854 -1.6787
42615SOL     OW33807  12.232   9.252   7.535  0.3151 -0.0935  0.2897
42615SOL    HW133808  12.320   9.246   7.573  1.2288  1.5788 -1.4064
42615SOL    HW233809  12.202   9.340   7.558  0.7525  0.8446 -2.3330
42616SOL     OW33810   3.365   7.096   6.724  0.4341 -0.0234 -0.1838
42616SOL    HW133811   3.403   7.059   6.644 -1.8117 -1.7155 -0.5592
42616SOL    HW233812   3.338   7.020   6.774  2.2140  0.9765  2.5092
42617SOL     OW33813   4.273   3.761   0.045 -0.0702  0.4706  0.7442
42617SOL    HW133814   4.229   3.772   0.130 -0.1807 -0.5560  0.8301
42617SOL    HW233815   4.251   3.840  -0.004 -1.3802  0.3313  1.0667
42618SOL     OW33816  11.735   3.439   4.084  0.1437  0.2093 -0.2255
42618SOL    HW133817  11.790   3.445   4.163 -1.4979 -2.2289  1.2221
42618SOL    HW233818  11.666   3.504   4.099 -1.0745 -1.3357  1.2075
42619SOL     OW33819   5.546  11.585   8.264 -0.0516 -0.0212 -0.6826
42619SOL    HW133820   5.508  11.497   8.256  0.1727 -0.0829 -1.1026
42619SOL    HW233821   5.478  11.637   8.306 -0.3670 -0.2772 -0.8707
42620SOL     OW33822   0.986   3.691   7.449 -0.4491 -0.2498 -0.0815
42620SOL    HW133823   1.042   3.754   7.495 -0.5931  0.3639 -0.7278
42620SOL    HW233824   1.042   3.614   7.437 -0.3333 -0.3316  0.8988
42621SOL     OW33825   5.522   9.898   6.797 -0.2334  0.8901 -0.1881
42621SOL    HW133826   5.539   9.925   6.887  0.7667 -0.7171  0.1489
42621SOL    HW233827   5.457   9.828   6.805  1.0980 -0.4486 -0.5073
42622SOL     OW33828   1.562   2.582   6.716 -0.0979 -0.0969  0.3621
42622SOL    HW133829   1.523   2.669   6.718  1.8764  0.8263  1.0779
42622SOL    HW233830   1.560   2.556   6.624 -1.9440  0.0727  0.3176
42623SOL     OW33831   1.549  12.365   3.547  0.0560 -0.5663  0.3911
42623SOL    HW133832   1.631  12.316   3.536 -0.6874 -1.4624 -1.7154
42623SOL    HW233833   1.554  12.435   3.482 -0.5808 -0.2585  0.6648
42624SOL     OW33834  11.782   5.731  10.482 -0.4928  0.2077 -0.2278
42624SOL    HW133835  11.787   5.820  10.515 -0.0723 -0.6481  2.2314
42624SOL    HW233836  11.710   5.733  10.418  0.4071  2.5490 -1.2820
42625SOL     OW33837   6.728   4.560  10.606  0.1043 -0.4853  0.0500
42625SOL    HW133838   6.685   4.557  10.691  0.2992 -2.1013  0.1203
42625SOL    HW233839   6.695   4.640  10.565  0.1106  0.3778  1.6793
42626SOL     OW33840   3.755   2.760   3.604  0.2271  0.2304  0.2198
42626SOL    HW133841   3.826   2.817   3.635  1.0109 -0.0141 -1.0413
42626SOL    HW233842   3.794   2.673   3.601 -0.5891 -0.1676  0.9192
42627SOL     OW33843  10.100   2.023   3.494 -0.3914 -0.6075 -0.0283
42627SOL    HW133844  10.138   1.937   3.509 -0.9807 -0.8063  0.3441
42627SOL    HW233845  10.148   2.081   3.554 -0.7582 -0.8811  0.5380
42628SOL     OW33846   6.262   8.877   8.918 -0.2600 -0.2338  0.8455
42628SOL    HW133847   6.320   8.920   8.854 -1.1613 -0.7337 -0.3488
42628SOL    HW233848   6.279   8.783   8.905 -2.0105 -0.4485 -0.2412
42629SOL     OW33849   0.523  11.032   5.315 -0.2930  0.0446  0.3303
42629SOL    HW133850   0.499  10.954   5.364 -0.4442  0.8413  1.5812
42629SOL    HW233851   0.442  11.059   5.271 -0.5007  0.0685  0.7241
42630SOL     OW33852   6.841   4.335   2.080 -0.2087  0.6909 -0.3398
42630SOL    HW133853   6.934   4.330   2.060 -0.6663 -1.3185 -2.4043
42630SOL    HW233854   6.836   4.339   2.176  1.9576  0.4990 -0.1894
42631SOL     OW33855   0.113   1.123   6.002 -0.0063  0.2326  0.1714
42631SOL    HW133856   0.120   1.040   5.954 -2.1445  0.3632 -0.4662
42631SOL    HW233857   0.099   1.189   5.935  1.4904  1.1332  0.6935
42632SOL     OW33858   8.035  12.213  11.893  0.2798 -0.0435  0.4308
42632SOL    HW133859   8.109  12.229  11.952  1.0066  0.2711 -0.5357
42632SOL    HW233860   7.962  12.191  11.951  0.5049  1.9236  1.5669
42633SOL     OW33861  11.870   7.927   8.466 -0.2367  0.0460  0.5506
42633SOL    HW133862  11.920   7.874   8.528 -3.1006 -1.1245  2.0679
42633SOL    HW233863  11.896   8.017   8.485  1.2711 -0.5020  1.2374
42634SOL     OW33864   9.479   4.007  11.415 -0.1848  0.4402 -0.0282
42634SOL    HW133865   9.543   3.957  11.466 -1.0064 -0.4182  0.1844
42634SOL    HW233866   9.430   4.056  11.481 -0.3453  0.3904 -0.1104
42635SOL     OW33867   7.114   7.097   6.517  0.2294 -0.4926  0.0138
42635SOL    HW133868   7.116   7.127   6.608  0.4365  1.2356 -0.5258
42635SOL    HW233869   7.181   7.028   6.513  0.9740  0.1479  0.9363
42636SOL     OW33870   6.238   3.168   2.862  0.0485  0.0767 -0.2959
42636SOL    HW133871   6.245   3.199   2.952 -0.3399  0.4785 -0.4008
42636SOL    HW233872   6.234   3.247   2.809  2.0473 -0.1363 -0.8416
42637SOL     OW33873   0.440   0.938   8.401  0.4063 -0.1373  0.8475
42637SOL    HW133874   0.531   0.940   8.372  0.3040  0.9169  0.5472
42637SOL    HW233875   0.435   1.004   8.471 -0.0492 -0.4493  1.1229
42638SOL     OW33876   1.978  10.470  10.965  0.6580 -0.3383 -0.1974
42638SOL    HW133877   2.011  10.516  11.042  2.9897  1.7728 -2.2265
42638SOL    HW233878   1.921  10.534  10.922 -0.5106 -1.4352 -0.3474
42639SOL     OW33879   9.171   9.942  10.676 -0.3612  0.0006  0.3700
42639SOL    HW133880   9.114   9.901  10.611 -0.9236 -0.2733  1.0207
42639SOL    HW233881   9.241   9.878  10.690 -0.1004  0.1675 -0.1420
42640SOL     OW33882   8.785   5.975   4.985  0.3869 -0.1778 -0.0991
42640SOL    HW133883   8.774   5.883   5.010 -0.3273  0.0546  0.4602
42640SOL    HW233884   8.741   5.983   4.900 -3.6991  0.6352  1.8802
42641SOL     OW33885   8.861   8.735  12.001 -0.1609  0.4531 -0.8273
42641SOL    HW133886   8.948   8.747  12.039 -0.7144  0.5747  0.4627
42641SOL    HW233887   8.820   8.669  12.056 -0.8327  0.2790 -1.5224
42642SOL     OW33888  11.870   0.083   9.216 -0.1049 -0.1595 -0.1929
42642SOL    HW133889  11.916   0.157   9.255  0.1740 -0.4547  0.0487
42642SOL    HW233890  11.938   0.034   9.169 -0.3944  0.0676 -0.8621
42643SOL     OW33891   6.299   2.600   6.844  0.0260  0.4747 -0.0840
42643SOL    HW133892   6.231   2.605   6.777  0.8469  0.1544 -0.9676
42643SOL    HW233893   6.267   2.534   6.906 -1.1053  1.3424  0.2896
42644SOL     OW33894   3.551   6.938  11.079 -0.0122  0.1821 -0.2971
42644SOL    HW133895   3.595   6.927  10.994 -0.3794  2.0267 -0.7684
42644SOL    HW233896   3.603   6.885  11.140  1.8028  0.8202 -1.1982
42645SOL     OW33897   2.708  11.241  12.332  0.0411 -0.0850  0.0806
42645SOL    HW133898   2.782  11.281  12.378  0.2273 -0.1847 -0.1315
42645SOL    HW233899   2.723  11.147  12.341  1.2854 -0.1421 -2.0804
42646SOL     OW33900   4.486   5.802  10.917  0.1062 -0.1715 -0.2016
42646SOL    HW133901   4.540   5.851  10.855  0.9983  0.2706  0.8926
42646SOL    HW233902   4.543   5.733  10.950 -0.0977  0.0831  0.7159
42647SOL     OW33903  11.550   0.831  11.177  0.1313  0.4366  0.5612
42647SOL    HW133904  11.553   0.926  11.187 -0.9646  0.6476 -0.7344
42647SOL    HW233905  11.593   0.815  11.092  0.2033 -0.2184  0.7148
42648SOL     OW33906  10.851   3.717   7.124 -0.0411 -0.2482  0.1553
42648SOL    HW133907  10.855   3.732   7.029 -1.1408  0.0616  0.1435
42648SOL    HW233908  10.762   3.688   7.140 -0.1500  0.6011  1.2169
42649SOL     OW33909   2.864   1.056   0.243 -0.3358  0.3525 -0.1521
42649SOL    HW133910   2.906   1.141   0.254 -0.8610  0.2968  3.9803
42649SOL    HW233911   2.896   1.004   0.317 -0.3168 -3.0100 -2.3038
42650SOL     OW33912  11.603   7.131  11.617  0.1729  0.3147  0.4759
42650SOL    HW133913  11.568   7.182  11.691 -1.4976 -0.5547  0.3336
42650SOL    HW233914  11.527   7.087  11.580  1.1340 -0.0383 -1.1854
42651SOL     OW33915   3.013   7.135   8.774 -0.3051 -0.0134 -0.5198
42651SOL    HW133916   2.962   7.073   8.826 -0.9340  0.7983 -0.1284
42651SOL    HW233917   2.959   7.214   8.772  0.0073  0.1910 -1.8710
42652SOL     OW33918   8.744   4.559  12.349  0.0737  0.0871  0.2816
42652SOL    HW133919   8.719   4.469  12.331 -0.6562  0.4244 -0.4831
42652SOL    HW233920   8.693   4.584  12.426 -0.6933  0.2375 -0.2648
42653SOL     OW33921   1.674   5.709   7.742  0.1527  0.1586  0.2942
42653SOL    HW133922   1.616   5.781   7.719  1.3006  1.5072  1.4604
42653SOL    HW233923   1.669   5.649   7.667  0.1140  2.0376 -1.2785
42654SOL     OW33924  10.283   2.333   2.999  0.4336  0.6377 -0.0154
42654SOL    HW133925  10.321   2.254   3.037 -0.6003 -0.9216 -2.0644
42654SOL    HW233926  10.195   2.307   2.972  0.6495  1.9895 -2.2214
42655SOL     OW33927   1.453   1.707   8.257 -0.1062  0.1978  0.7738
42655SOL    HW133928   1.495   1.655   8.189  0.6316  1.3441  0.3462
42655SOL    HW233929   1.382   1.752   8.212 -0.0258  0.4521  0.9039
42656SOL     OW33930   9.276   4.232   5.283 -0.1051 -0.1652  0.2127
42656SOL    HW133931   9.232   4.264   5.205  0.5094 -0.8605 -0.4296
42656SOL    HW233932   9.360   4.199   5.252 -0.0226 -0.8331  1.0989
42657SOL     OW33933   7.231   2.878   8.543 -0.4979  0.8474 -0.4429
42657SOL    HW133934   7.274   2.942   8.487 -0.3339  1.7248  0.6540
42657SOL    HW233935   7.150   2.856   8.497  1.2440 -1.1690 -2.7595
42658SOL     OW33936   6.476   8.704   6.775 -0.5723 -0.0477 -0.0884
42658SOL    HW133937   6.529   8.656   6.840  0.4722  0.8316 -0.2564
42658SOL    HW233938   6.473   8.793   6.808 -1.5835  0.0202 -0.3381
42659SOL     OW33939   4.753  11.137   1.049 -0.1909 -0.3022  0.3638
42659SOL    HW133940   4.709  11.195   1.111 -1.5297 -0.4246 -0.4346
42659SOL    HW233941   4.719  11.163   0.963  1.3808 -0.3445 -0.3117
42660SOL     OW33942   3.855   2.292   5.562 -0.1181  0.1584 -0.1938
42660SOL    HW133943   3.846   2.258   5.473 -0.6565  0.1832 -0.1530
42660SOL    HW233944   3.786   2.358   5.569 -0.5433 -0.3374  0.4689
42661SOL     OW33945   5.525  11.778   4.420  0.1875  0.5228  0.2389
42661SOL    HW133946   5.561  11.816   4.500  0.3045 -0.8292  0.8692
42661SOL    HW233947   5.558  11.688   4.420 -0.7989  0.1415 -0.7144
42662SOL     OW33948   5.325  10.654  11.951 -0.7647 -0.0135  0.1682
42662SOL    HW133949   5.317  10.749  11.950 -1.0519 -0.0193  1.0098
42662SOL    HW233950   5.248  10.622  11.905  0.0968  0.1841 -1.4713
42663SOL     OW33951   4.388   2.144   4.491 -0.4273  0.0381  0.6175
42663SOL    HW133952   4.311   2.087   4.485 -1.1755  1.1542 -1.4903
42663SOL    HW233953   4.454   2.100   4.439 -0.8040  0.7323 -0.4864
42664SOL     OW33954  11.107   0.004   3.416 -0.1093 -0.1904  0.1426
42664SOL    HW133955  11.120  -0.061   3.485 -1.9113 -1.0130 -0.2244
42664SOL    HW233956  11.142  -0.038   3.337 -0.5902 -0.4128  0.0454
42665SOL     OW33957   8.078   7.145  10.553  0.7301 -0.0226 -0.2161
42665SOL    HW133958   8.062   7.089  10.629 -1.1291  0.9410  0.1390
42665SOL    HW233959   8.128   7.089  10.493  1.0123 -1.2548  1.1074
42666SOL     OW33960  10.483  12.263   8.945 -0.5257  0.2746  0.4374
42666SOL    HW133961  10.424  12.287   9.016  0.4233 -0.2023  1.4202
42666SOL    HW233962  10.559  12.321   8.956 -0.5454  0.4770 -0.4407
42667SOL     OW33963   6.708   3.298   7.984 -0.1128  0.8438  0.0687
42667SOL    HW133964   6.618   3.328   7.973 -0.8195 -0.6390  1.3696
42667SOL    HW233965   6.700   3.203   7.998  1.8633  0.2215 -2.3048
42668SOL     OW33966   5.769   2.352   2.129  0.6050 -0.7641  0.3349
42668SOL    HW133967   5.808   2.387   2.210  0.1743  0.1902  0.1457
42668SOL    HW233968   5.835   2.369   2.062  0.4884 -0.5074  0.2837
42669SOL     OW33969   6.743   2.163   5.954  0.0620  0.0211  0.1035
42669SOL    HW133970   6.768   2.225   6.023  2.1946 -0.5634 -0.0600
42669SOL    HW233971   6.788   2.082   5.978 -1.0964 -0.8965 -0.7270
42670SOL     OW33972   7.225  12.102  11.497 -0.3100 -0.1325  0.1152
42670SOL    HW133973   7.314  12.096  11.530  0.1153 -0.1384 -0.9889
42670SOL    HW233974   7.204  12.013  11.468 -2.0255 -1.0402  3.5967
42671SOL     OW33975   5.895  10.854   4.261  0.1758  0.2245  0.1435
42671SOL    HW133976   5.978  10.901   4.257  1.0093 -1.1950 -0.1253
42671SOL    HW233977   5.871  10.839   4.170  0.2617 -0.4172  0.2196
42672SOL     OW33978   1.854   1.917  10.487  0.9384  0.1156 -0.2041
42672SOL    HW133979   1.862   1.832  10.530 -0.6525  0.7522  1.5260
42672SOL    HW233980   1.926   1.969  10.525  0.7520  0.0900  0.1919
42673SOL     OW33981   1.852  10.796   4.485 -0.0886  0.3326  0.2791
42673SOL    HW133982   1.852  10.886   4.452 -2.4718  0.6618  0.9610
42673SOL    HW233983   1.857  10.806   4.580  1.4260 -0.3675  0.2946
42674SOL     OW33984   6.896   4.915   7.495 -0.2878  0.4774 -0.2859
42674SOL    HW133985   6.955   4.910   7.570  0.4075  1.7660 -0.6912
42674SOL    HW233986   6.881   4.824   7.469 -1.2612 -0.0443  1.9073
42675SOL     OW33987  11.601   1.945   2.714 -0.0883  0.1016  0.0143
42675SOL    HW133988  11.600   2.037   2.739 -0.8866 -0.3450  1.7416
42675SOL    HW233989  11.581   1.897   2.794 -1.1072 -1.5091 -1.1276
42676SOL     OW33990   4.791   2.041   7.094 -0.2190 -0.2905 -0.6002
42676SOL    HW133991   4.715   2.022   7.149  0.1800  0.5610  0.2753
42676SOL    HW233992   4.754   2.076   7.013 -0.7617  0.7124  0.0558
42677SOL     OW33993  11.248  11.666  10.244 -0.2128 -0.1616 -0.0643
42677SOL    HW133994  11.312  11.609  10.285 -1.0683 -0.6327  0.6490
42677SOL    HW233995  11.227  11.624  10.160  0.8284  0.3058 -0.5783
42678SOL     OW33996   0.771   8.434   6.272 -0.9139  0.5249 -0.4786
42678SOL    HW133997   0.785   8.511   6.326 -1.3089  1.2567 -1.3834
42678SOL    HW233998   0.842   8.437   6.207 -0.3866 -0.3905  0.0349
42679SOL     OW33999   3.540   1.937   2.385  0.1950  0.1738  0.1839
42679SOL    HW134000   3.462   1.889   2.358  1.2938 -1.4757 -0.1553
42679SOL    HW234001   3.552   2.003   2.317 -0.2262 -0.3392 -0.3958
42680SOL     OW34002   4.134   2.716  10.440  0.3007  0.2156 -0.3097
42680SOL    HW134003   4.076   2.671  10.501  2.0946  1.2832  2.3795
42680SOL    HW234004   4.125   2.809  10.463  3.4871  0.3768  0.7499
42681SOL     OW34005   8.536   4.403   8.851 -0.0780 -0.0145  0.2451
42681SOL    HW134006   8.483   4.474   8.887 -0.3156  0.1672 -0.4471
42681SOL    HW234007   8.510   4.398   8.759  0.9120 -0.1109 -0.0346
42682SOL     OW34008   2.998   3.424   2.160  0.0433 -0.3128  0.0857
42682SOL    HW134009   3.036   3.477   2.090 -0.6110 -0.1338 -0.1398
42682SOL    HW234010   2.925   3.379   2.119 -0.3417 -0.2090  0.6560
42683SOL     OW34011   4.210   9.579  11.731  0.1008 -0.2448 -0.1007
42683SOL    HW134012   4.226   9.519  11.804 -0.1977 -2.2426 -1.6034
42683SOL    HW234013   4.146   9.641  11.766  0.2409 -0.9130  1.4615
42684SOL     OW34014   1.731   1.665  12.339  0.6468 -0.3534  0.2452
42684SOL    HW134015   1.658   1.685  12.398  0.6968 -0.6643  0.4153
42684SOL    HW234016   1.737   1.570  12.339  0.6827 -0.3535 -0.2249
42685SOL     OW34017  11.970   8.815   1.492  0.3474  0.3140 -0.2547
42685SOL    HW134018  11.952   8.870   1.569  1.1122  0.2493 -0.0223
42685SOL    HW234019  11.945   8.727   1.520 -1.0997  0.5606 -0.7060
42686SOL     OW34020   2.900   4.689   4.719 -0.0134  0.1751 -0.7630
42686SOL    HW134021   2.923   4.679   4.627 -2.5166  0.2401 -1.4688
42686SOL    HW234022   2.861   4.776   4.725  0.2094  0.2169  0.3936
42687SOL     OW34023  10.772  10.466   5.787 -0.4021  0.3604 -0.3508
42687SOL    HW134024  10.759  10.372   5.800 -0.7134  0.3290 -0.8622
42687SOL    HW234025  10.867  10.476   5.785 -0.3612 -0.0474 -0.9489
42688SOL     OW34026   6.763   9.118   6.785 -0.7535  0.8740 -0.1524
42688SOL    HW134027   6.797   9.066   6.712 -1.2295  0.2302  0.0709
42688SOL    HW234028   6.773   9.060   6.861 -1.7898  0.9021  0.0098
42689SOL     OW34029  12.342   7.000   6.239 -0.0071  0.0009  0.0183
42689SOL    HW134030  12.299   6.944   6.304 -0.3019  0.3553  0.1380
42689SOL    HW234031  12.340   6.949   6.158 -0.8951  0.1097 -0.0386
42690SOL     OW34032   9.500  10.209   3.178  0.3199  0.5099  1.0517
42690SOL    HW134033   9.533  10.120   3.192  1.1069  0.6216  0.0747
42690SOL    HW234034   9.434  10.200   3.109  1.9591  0.9157 -0.6723
42691SOL     OW34035   9.397   5.256   7.013 -0.8060 -1.2260 -0.0758
42691SOL    HW134036   9.430   5.167   7.019  1.3304 -0.4064  2.0670
42691SOL    HW234037   9.330   5.262   7.081 -1.2769 -1.3067 -0.5273
42692SOL     OW34038   3.130   7.170  11.651  0.0703 -0.1297  0.5234
42692SOL    HW134039   3.148   7.079  11.675 -0.6041  0.0691  1.8650
42692SOL    HW234040   3.164   7.221  11.724  0.0360  0.6745 -0.0098
42693SOL     OW34041   8.885   5.610   2.298 -0.3404  0.0518  0.1520
42693SOL    HW134042   8.958   5.587   2.240 -0.4998 -0.2610  0.0702
42693SOL    HW234043   8.838   5.679   2.252 -1.1345 -0.9870 -0.6398
42694SOL     OW34044   6.243  10.758   3.988 -0.2241 -0.0030  0.4316
42694SOL    HW134045   6.176  10.803   3.936 -1.3223 -1.3102  0.6481
42694SOL    HW234046   6.232  10.665   3.966  1.6304 -0.2394  0.3767
42695SOL     OW34047  12.060   7.811   0.534  0.1171 -0.3707 -0.6014
42695SOL    HW134048  12.072   7.903   0.558  0.2108 -0.4134 -0.4812
42695SOL    HW234049  11.965   7.798   0.536  0.0715 -0.1481 -1.1072
42696SOL     OW34050   4.135   4.498   7.503  0.2974  0.1483 -0.3180
42696SOL    HW134051   4.082   4.515   7.581  1.3556  1.2802  0.1899
42696SOL    HW234052   4.119   4.405   7.484  1.7015 -0.8515  2.6250
42697SOL     OW34053   9.533   9.570   8.658 -0.0704 -0.4588 -0.1126
42697SOL    HW134054   9.539   9.521   8.576  0.8659  0.0039 -0.3319
42697SOL    HW234055   9.492   9.653   8.633  1.1465  0.1002 -0.3208
42698SOL     OW34056  11.708   6.622   8.810  0.0057  0.0772  0.2029
42698SOL    HW134057  11.787   6.575   8.783  0.6227  0.5697  1.0837
42698SOL    HW234058  11.723   6.713   8.783  1.7217  1.1528  4.0362
42699SOL     OW34059   5.252  11.286   1.025 -0.5859  0.0597 -0.2137
42699SOL    HW134060   5.336  11.243   1.008 -0.2633 -0.1122  1.6057
42699SOL    HW234061   5.265  11.376   0.997  0.6741  0.3587  1.2201
42700SOL     OW34062   6.950   1.605   7.552 -0.2352 -0.9083  0.0111
42700SOL    HW134063   6.859   1.633   7.550  0.2563  0.8007 -0.1856
42700SOL    HW234064   6.970   1.596   7.645 -0.2136  0.1803  0.1279
42701SOL     OW34065  10.104  11.400   5.898 -0.4979  0.6779  0.4530
42701SOL    HW134066  10.152  11.322   5.869  1.3248  1.7384  0.5429
42701SOL    HW234067  10.018  11.365   5.925 -0.1508 -1.1335 -0.5812
42702SOL     OW34068   4.918   2.496   9.114  0.2027 -0.5756  0.0868
42702SOL    HW134069   4.864   2.575   9.115 -0.2268 -0.8665  0.8060
42702SOL    HW234070   5.000   2.523   9.155 -0.3967 -0.7957  1.4771
42703SOL     OW34071  12.048   6.781   8.922 -0.0872  0.8587  0.5228
42703SOL    HW134072  12.142   6.784   8.907 -0.0117 -2.3980 -0.3102
42703SOL    HW234073  12.012   6.849   8.865  1.6807  1.6594  0.3189
42704SOL     OW34074  11.680   9.468  10.751  0.1345 -0.1009 -0.2998
42704SOL    HW134075  11.712   9.533  10.687 -1.2098 -0.2005 -1.1055
42704SOL    HW234076  11.607   9.512  10.795 -0.4252 -0.8704 -0.4575
42705SOL     OW34077  10.860   6.744   6.820 -0.2401  0.1981  0.1331
42705SOL    HW134078  10.922   6.701   6.879  0.1535  1.7226  0.9088
42705SOL    HW234079  10.896   6.730   6.733  0.9618  0.6374  0.5344
42706SOL     OW34080   9.527   5.627   7.531  0.1601 -0.5557  0.0665
42706SOL    HW134081   9.593   5.633   7.463  0.1905 -0.6571  0.0865
42706SOL    HW234082   9.536   5.538   7.565  0.3498 -0.4085  0.4091
42707SOL     OW34083   4.032  12.323  11.506 -0.2874 -0.5044  0.0574
42707SOL    HW134084   3.974  12.351  11.435 -1.0611 -0.7921  0.5593
42707SOL    HW234085   4.031  12.396  11.568  1.0229  0.0831 -0.5857
42708SOL     OW34086  11.197   9.219   8.766  0.1954  0.1158 -0.0563
42708SOL    HW134087  11.136   9.170   8.822  1.6282 -0.2497  1.2540
42708SOL    HW234088  11.254   9.265   8.827  0.9502  0.8152 -1.2540
42709SOL     OW34089   1.231   0.860   0.912  0.4852 -0.6918 -0.0428
42709SOL    HW134090   1.276   0.806   0.847 -0.6778 -1.6766 -0.0659
42709SOL    HW234091   1.286   0.938   0.921  0.5105 -0.3405 -2.4774
42710SOL     OW34092   7.351   7.898   3.235 -0.3624  0.1637 -0.0950
42710SOL    HW134093   7.289   7.967   3.260 -2.1517 -1.1566 -0.6960
42710SOL    HW234094   7.318   7.819   3.277  0.5472 -0.7050 -0.9569
42711SOL     OW34095  12.156   9.257  11.211 -0.6365  0.0790  0.0910
42711SOL    HW134096  12.117   9.214  11.288  0.1376 -1.7467 -0.4794
42711SOL    HW234097  12.086   9.254  11.145 -0.1097 -1.8582 -0.4581
42712SOL     OW34098   2.524   5.727   5.017  0.7122  0.1415 -0.2817
42712SOL    HW134099   2.494   5.654   4.962  1.3462  0.1179 -0.6028
42712SOL    HW234100   2.599   5.763   4.971  0.4596  0.9573 -0.0815
42713SOL     OW34101   5.110   1.939   8.622  0.6389 -0.6558  0.3278
42713SOL    HW134102   5.135   2.027   8.592 -0.3242 -0.9038 -1.3245
42713SOL    HW234103   5.171   1.881   8.577 -0.1886 -0.9722 -0.4107
42714SOL     OW34104   1.683   2.343   7.440  0.0904 -0.3678 -0.2350
42714SOL    HW134105   1.658   2.373   7.352  1.8489 -1.7123 -1.2427
42714SOL    HW234106   1.775   2.318   7.432  0.7162  0.7582  2.3645
42715SOL     OW34107   5.738   8.318   5.708 -0.1125  0.2906  0.0321
42715SOL    HW134108   5.702   8.406   5.722 -0.3285  0.1450  0.4168
42715SOL    HW234109   5.742   8.308   5.613  1.9507  1.5336 -0.0541
42716SOL     OW34110   0.283   8.321   5.795 -0.3796 -0.0692 -0.0552
42716SOL    HW134111   0.268   8.326   5.890 -0.8530  1.3178 -0.1860
42716SOL    HW234112   0.377   8.339   5.785 -0.0645 -1.4125  0.2113
42717SOL     OW34113   8.253  10.210  10.429 -0.6256  0.3058 -0.2977
42717SOL    HW134114   8.328  10.261  10.399 -1.5867  2.0965  0.2071
42717SOL    HW234115   8.185  10.228  10.365 -0.9611 -0.4316 -0.1529
42718SOL     OW34116   0.048   9.269   4.254  0.5605  0.1152  0.1350
42718SOL    HW134117   0.134   9.228   4.266  0.0333 -1.6650 -1.5782
42718SOL    HW234118   0.002   9.211   4.193 -1.7000  1.2700  0.6225
42719SOL     OW34119   8.518   7.804  11.814 -0.0247 -0.0682 -0.2207
42719SOL    HW134120   8.547   7.895  11.804 -0.5034  0.1091 -0.0508
42719SOL    HW234121   8.546   7.760  11.734  0.7384  0.0864 -0.0386
42720SOL     OW34122  10.251  11.455   3.181 -0.3632  0.1136 -0.0585
42720SOL    HW134123  10.317  11.515   3.145 -0.8709 -0.2799 -1.7670
42720SOL    HW234124  10.174  11.468   3.124 -0.7803 -1.4894  0.1030
42721SOL     OW34125   8.352   8.286   7.656 -0.0337  0.2286  0.0968
42721SOL    HW134126   8.444   8.262   7.644 -0.4529 -1.7413  0.5071
42721SOL    HW234127   8.326   8.242   7.736 -1.5992 -0.0437 -0.5301
42722SOL     OW34128   3.954   6.936   4.573 -0.7775 -0.5081 -0.4046
42722SOL    HW134129   4.031   6.932   4.517  0.5575 -0.8276  1.3417
42722SOL    HW234130   3.924   7.027   4.566  1.0665  0.2294  0.4746
42723SOL     OW34131   7.783   7.051   0.575  0.4735  0.4638  0.1809
42723SOL    HW134132   7.722   7.014   0.639  0.3109  0.7993  0.2244
42723SOL    HW234133   7.727   7.094   0.511  0.6934  1.7047  0.7964
42724SOL     OW34134   9.414  11.190  12.161  0.7652  0.1074 -0.1754
42724SOL    HW134135   9.459  11.107  12.144  0.1226 -0.3364  0.2411
42724SOL    HW234136   9.346  11.168  12.225  0.4801  0.9235 -0.1837
42725SOL     OW34137  12.389   4.143   0.836 -0.3395 -0.2095 -0.5538
42725SOL    HW134138  12.444   4.065   0.831 -0.1228 -0.1575  0.7409
42725SOL    HW234139  12.317   4.118   0.895 -0.2830  0.5498 -0.1488
42726SOL     OW34140   8.180   4.581  10.250  0.0998 -0.3423  0.2047
42726SOL    HW134141   8.184   4.631  10.332 -0.1856  0.7326 -0.4333
42726SOL    HW234142   8.265   4.594  10.209  0.3392 -1.0985  0.4411
42727SOL     OW34143   7.367  12.434   3.013 -0.2227 -0.2947 -0.2921
42727SOL    HW134144   7.348  12.463   2.923 -0.4999  0.5241  0.0232
42727SOL    HW234145   7.463  12.440   3.020 -0.3766  3.3531  0.6345
42728SOL     OW34146   2.485   6.442   7.745 -0.1250 -0.0676  0.1695
42728SOL    HW134147   2.423   6.428   7.673  0.2951  0.7012 -0.3622
42728SOL    HW234148   2.529   6.524   7.722  0.2466  0.0131  1.1440
42729SOL     OW34149   2.534   2.880  10.052 -0.5248  0.1345  0.5344
42729SOL    HW134150   2.560   2.969  10.076 -0.0451 -0.2787  1.6057
42729SOL    HW234151   2.569   2.825  10.122 -0.5330 -0.9393 -0.2812
42730SOL     OW34152   9.070   2.354   7.286  0.1604 -0.2352 -0.3326
42730SOL    HW134153   9.094   2.415   7.356  1.0541  0.6284 -1.3470
42730SOL    HW234154   8.995   2.395   7.243 -1.1381 -1.3342  0.8019
42731SOL     OW34155   3.274   1.695  10.652  0.2833 -0.1003  0.1566
42731SOL    HW134156   3.288   1.724  10.562 -0.1543 -0.0424  0.1048
42731SOL    HW234157   3.321   1.758  10.706  1.5039 -0.7846 -0.0834
42732SOL     OW34158  10.396  12.355  10.489  0.6563 -0.1122 -0.1507
42732SOL    HW134159  10.346  12.309  10.557 -1.6253  1.9120 -0.3289
42732SOL    HW234160  10.358  12.324  10.407  0.6447  0.4266 -0.3469
42733SOL     OW34161   6.766   6.527   5.501 -0.1379  0.1215  0.7327
42733SOL    HW134162   6.710   6.592   5.460  1.7583  1.8550  0.7256
42733SOL    HW234163   6.802   6.476   5.428 -0.4257  0.0755  0.6222
42734SOL     OW34164   7.546   7.731   1.058  0.1294  0.4868  0.4302
42734SOL    HW134165   7.580   7.668   0.995  1.4248  2.2905 -0.7786
42734SOL    HW234166   7.582   7.703   1.142  1.8862  0.3729 -0.3021
42735SOL     OW34167   7.123   2.862  12.452  0.5298  0.1008 -0.2570
42735SOL    HW134168   7.105   2.837  12.361  0.4739  0.1515 -0.2596
42735SOL    HW234169   7.196   2.806  12.477 -0.5908 -1.2027  0.2444
42736SOL     OW34170   6.490  10.849   2.970 -0.4303  0.0211  0.5584
42736SOL    HW134171   6.528  10.873   3.054 -1.8860  1.5806  0.8132
42736SOL    HW234172   6.458  10.931   2.933 -0.5585 -0.7461 -1.1626
42737SOL     OW34173   6.164   0.712  10.234  0.3974  0.1015 -0.1697
42737SOL    HW134174   6.154   0.795  10.281  1.2552 -0.8533  1.7825
42737SOL    HW234175   6.080   0.699  10.191  0.2758  2.0141 -0.5966
42738SOL     OW34176   5.634  11.764   3.164  0.1274  0.0499  0.1856
42738SOL    HW134177   5.708  11.804   3.210  1.2611 -0.0292 -1.4642
42738SOL    HW234178   5.605  11.830   3.102  0.2161 -0.6776 -0.6522
42739SOL     OW34179   1.259  10.584  11.004  0.6328 -0.2093  0.1256
42739SOL    HW134180   1.286  10.634  10.927  0.0835  0.3911  0.3112
42739SOL    HW234181   1.319  10.613  11.073  0.5506 -0.0733  0.1411
42740SOL     OW34182   4.471   6.765   9.486 -0.1805  0.4131  0.1060
42740SOL    HW134183   4.540   6.751   9.552 -0.6210 -0.5802  0.3833
42740SOL    HW234184   4.501   6.839   9.435  0.3706  0.9556  1.1796
42741SOL     OW34185   8.900   7.348   8.687 -0.0484  0.1463 -0.5945
42741SOL    HW134186   8.854   7.412   8.633 -0.2900  0.1480 -0.3858
42741SOL    HW234187   8.907   7.390   8.773  1.3212  0.6185 -0.9066
42742SOL     OW34188  11.698   5.940  12.453  0.5629  0.4690 -1.0561
42742SOL    HW134189  11.611   5.962  12.419  0.0122  1.0429  0.6090
42742SOL    HW234190  11.726   5.865  12.401 -0.9810  0.1904 -1.5436
42743SOL     OW34191   0.273  12.168   1.378  0.3093 -0.1212 -0.3837
42743SOL    HW134192   0.186  12.129   1.379  0.1739  0.1233 -1.6153
42743SOL    HW234193   0.314  12.137   1.459 -0.2844 -1.7138 -0.6570
42744SOL     OW34194   9.494   9.556   2.491  0.7687  0.0952  0.4870
42744SOL    HW134195   9.459   9.626   2.436  1.5031  0.0415 -0.0580
42744SOL    HW234196   9.451   9.476   2.459 -0.2717  0.3045  1.2819
42745SOL     OW34197   5.920   5.456   0.313 -0.0355 -0.1518 -0.2096
42745SOL    HW134198   5.888   5.538   0.352  0.1604  0.1263 -0.6348
42745SOL    HW234199   6.011   5.451   0.340  0.3268  0.4357 -1.2562
42746SOL     OW34200  12.230   1.718   9.152 -0.2198  0.1779 -0.1057
42746SOL    HW134201  12.297   1.746   9.089  0.9954 -0.7015  0.7345
42746SOL    HW234202  12.180   1.797   9.171  2.0835  1.4850  1.0012
42747SOL     OW34203  10.513   4.310   5.843 -0.0696  0.1050  0.0512
42747SOL    HW134204  10.480   4.315   5.933  1.3003 -1.6832  0.7264
42747SOL    HW234205  10.435   4.312   5.788 -0.8431  4.1313  1.0298
42748SOL     OW34206   0.279   1.424   1.916  0.1001 -0.2344 -0.3928
42748SOL    HW134207   0.290   1.411   1.822  4.9291  0.6672 -0.2290
42748SOL    HW234208   0.242   1.512   1.924  0.4781  0.0343 -1.4862
42749SOL     OW34209  11.759   1.332   1.140  0.3852  0.0919  0.1582
42749SOL    HW134210  11.688   1.268   1.149 -0.5915  1.3713  2.6997
42749SOL    HW234211  11.838   1.279   1.136 -0.4619 -1.3092  0.9867
42750SOL     OW34212  11.031   3.828   8.949 -0.4247  0.3524 -0.8246
42750SOL    HW134213  11.121   3.859   8.959 -0.4948  0.5080 -0.6701
42750SOL    HW234214  11.039   3.746   8.899  0.1362 -1.5556  2.1725
42751SOL     OW34215   0.161  12.085   6.533 -0.0979  0.6673  0.2171
42751SOL    HW134216   0.213  12.013   6.497 -0.3733  0.6218 -0.0896
42751SOL    HW234217   0.214  12.163   6.518 -0.3490  0.6935 -0.5764
42752SOL     OW34218   6.106   2.759   0.606  0.1442  0.2360 -0.0498
42752SOL    HW134219   6.155   2.715   0.676 -0.4531 -0.2902  0.0439
42752SOL    HW234220   6.044   2.693   0.575 -0.8322  1.0372  0.1434
42753SOL     OW34221   4.816   0.296  10.752  0.5604 -0.0583 -0.6629
42753SOL    HW134222   4.737   0.299  10.806  1.3486  3.8179  0.6035
42753SOL    HW234223   4.880   0.247  10.804  0.3472  0.8906  0.5306
42754SOL     OW34224   7.389   4.285   8.090 -0.9572  0.3574 -0.0506
42754SOL    HW134225   7.458   4.329   8.040  0.8958 -0.0339  2.0004
42754SOL    HW234226   7.398   4.320   8.179 -2.0623 -1.1971  0.7255
42755SOL     OW34227  11.126   0.376   9.378 -0.8644 -0.0352 -0.6201
42755SOL    HW134228  11.159   0.295   9.416 -2.6946  0.4767  2.3789
42755SOL    HW234229  11.033   0.360   9.362 -1.3230  1.4762  0.2664
42756SOL     OW34230   4.082   1.416   1.316 -0.3961  0.2127  0.5788
42756SOL    HW134231   4.118   1.376   1.395 -0.4078  0.1118  0.5334
42756SOL    HW234232   4.022   1.483   1.348  0.6323  1.1276  0.6701
42757SOL     OW34233   1.382   5.089  11.371  0.1161  0.4763  0.4636
42757SOL    HW134234   1.338   5.111  11.288 -0.2404  1.6077  0.9361
42757SOL    HW234235   1.319   5.113  11.439  0.5277 -0.1627  1.0825
42758SOL     OW34236   5.688   9.825   2.529  0.1442  0.0910 -0.1780
42758SOL    HW134237   5.671   9.785   2.444  0.6768 -0.9081  0.1652
42758SOL    HW234238   5.768   9.875   2.517  0.3667 -0.2646 -0.2118
42759SOL     OW34239   8.869   4.816   4.148  0.1515  0.3213 -0.3513
42759SOL    HW134240   8.832   4.904   4.140  1.0778  0.7594  0.0619
42759SOL    HW234241   8.845   4.773   4.066  2.2233  1.9379 -1.9409
42760SOL     OW34242  10.796   7.688   5.720 -0.0427 -0.3261 -0.3868
42760SOL    HW134243  10.752   7.676   5.804  0.3029 -0.7576 -0.2680
42760SOL    HW234244  10.869   7.748   5.740  0.8286 -1.4559 -0.1069
42761SOL     OW34245   9.387   7.346   4.624 -0.5377 -0.4539 -0.0521
42761SOL    HW134246   9.376   7.280   4.693 -0.1594  0.4081  0.8627
42761SOL    HW234247   9.395   7.429   4.672  1.2607  0.0003 -1.0408
42762SOL     OW34248   9.181  10.221  11.724  0.1256  0.3199 -0.0994
42762SOL    HW134249   9.257  10.181  11.767  0.5863 -0.2359 -1.3853
42762SOL    HW234250   9.214  10.306  11.693  0.6010 -0.4373 -1.7318
42763SOL     OW34251   3.852   2.365   0.199  0.4705  0.0176  0.3417
42763SOL    HW134252   3.830   2.362   0.106  1.5361 -0.2625  0.0796
42763SOL    HW234253   3.872   2.457   0.215  0.8122 -0.0237  0.1602
42764SOL     OW34254   2.960  10.009   1.352 -0.3744  0.2145  0.2170
42764SOL    HW134255   2.945   9.962   1.434 -1.6581 -2.1825 -1.2928
42764SOL    HW234256   2.892   9.977   1.293  2.0426 -0.1006 -2.6023
42765SOL     OW34257   2.767   5.928   5.045 -0.0979  0.1433  0.1227
42765SOL    HW134258   2.823   5.962   4.975  0.4097 -0.2112  0.3523
42765SOL    HW234259   2.723   6.005   5.080 -0.4322  0.3095 -0.6553
42766SOL     OW34260   6.367   9.659   5.965 -0.0636 -0.3474  0.3952
42766SOL    HW134261   6.374   9.754   5.974  0.4797 -0.2130 -1.1140
42766SOL    HW234262   6.456   9.627   5.980 -0.1419 -0.5714  0.3868
42767SOL     OW34263  10.996  11.060  10.368  0.0371  0.3027  0.5021
42767SOL    HW134264  10.931  10.991  10.360 -0.2372  0.6870 -0.7386
42767SOL    HW234265  11.080  11.017  10.350 -0.0143  0.0787  0.8000
42768SOL     OW34266   9.163  11.204  11.143 -0.4036  0.3078  0.3914
42768SOL    HW134267   9.136  11.135  11.204  1.2494 -0.9617 -0.2191
42768SOL    HW234268   9.243  11.239  11.182 -1.4408  2.2448  0.9051
42769SOL     OW34269   0.182  11.739   9.484  0.1961 -0.5265 -0.0818
42769SOL    HW134270   0.089  11.741   9.462  0.1013 -2.1681  0.0262
42769SOL    HW234271   0.190  11.799   9.559 -0.9545 -1.0597  0.4982
42770SOL     OW34272  12.317   2.943   6.587  0.1142  0.2433 -0.2718
42770SOL    HW134273  12.341   2.964   6.677 -0.2732  0.3620 -0.1910
42770SOL    HW234274  12.274   2.858   6.594 -0.3495  0.4723 -0.2713
42771SOL     OW34275   9.302   3.682  11.444 -0.6108  0.9145 -0.0810
42771SOL    HW134276   9.326   3.721  11.360 -0.5579  2.6085  0.6818
42771SOL    HW234277   9.218   3.722  11.466 -0.0036  1.5221  1.2814
42772SOL     OW34278   6.761   8.384   8.259 -0.1035  0.2323 -0.3235
42772SOL    HW134279   6.774   8.300   8.217 -2.2122 -1.1745  1.6324
42772SOL    HW234280   6.675   8.378   8.300  0.0992  2.9779  0.7275
42773SOL     OW34281   3.113  10.065  12.130  0.1919 -0.1229 -0.2044
42773SOL    HW134282   3.109   9.982  12.082 -2.1171  0.0290 -0.3797
42773SOL    HW234283   3.137  10.130  12.064 -0.7232 -0.2554 -0.6822
42774SOL     OW34284   2.295  12.169   1.869  0.0926 -0.0261 -0.2436
42774SOL    HW134285   2.238  12.230   1.917 -3.5537 -0.8082 -3.1105
42774SOL    HW234286   2.268  12.082   1.901  1.0303 -0.3666 -0.3686
42775SOL     OW34287   2.506   2.382   6.252  0.1272 -0.4442  0.0586
42775SOL    HW134288   2.468   2.319   6.312  1.1460 -1.1118  0.0400
42775SOL    HW234289   2.600   2.378   6.269  0.2683  0.6163 -0.3820
42776SOL     OW34290   0.502  11.212  10.241  0.4513  0.1870 -0.1083
42776SOL    HW134291   0.432  11.275  10.257  0.0783  0.2604 -1.7573
42776SOL    HW234292   0.466  11.128  10.270  0.1032  0.4044  0.0879
42777SOL     OW34293   6.569   4.037   9.090 -0.2248 -0.3458 -0.1691
42777SOL    HW134294   6.591   4.062   9.180 -0.6031 -0.1444 -0.1297
42777SOL    HW234295   6.547   3.944   9.096 -0.2421 -0.3340 -0.0548
42778SOL     OW34296  10.541  10.060   5.280 -0.1753 -0.1007 -0.1462
42778SOL    HW134297  10.465  10.028   5.329 -0.2521 -1.8930 -1.3202
42778SOL    HW234298  10.616  10.036   5.334 -0.3759  0.3351  0.3282
42779SOL     OW34299   2.426   5.670   6.813 -0.1534  0.5211 -0.1049
42779SOL    HW134300   2.376   5.589   6.828  0.0091  0.4505  0.0607
42779SOL    HW234301   2.404   5.695   6.723  0.9474 -0.5343 -0.7047
42780SOL     OW34302   8.778  11.579   0.600 -0.0083  0.0506  0.4906
42780SOL    HW134303   8.810  11.497   0.564 -2.5717  0.4442 -3.2031
42780SOL    HW234304   8.702  11.553   0.654 -1.9536 -0.0817 -2.1154
42781SOL     OW34305   4.353   1.140   9.615 -0.0502  0.3187 -0.1870
42781SOL    HW134306   4.397   1.085   9.549 -0.8902 -0.2422 -0.2964
42781SOL    HW234307   4.266   1.157   9.577 -1.1959 -1.4236  1.4720
42782SOL     OW34308   7.573  10.449   0.798 -0.2749 -0.3809  0.5049
42782SOL    HW134309   7.514  10.402   0.740 -3.4854  0.6446  2.6800
42782SOL    HW234310   7.524  10.459   0.880  2.1204  2.4027  1.8023
42783SOL     OW34311  11.781   2.425   1.753  0.3037  0.0352 -0.4332
42783SOL    HW134312  11.831   2.476   1.689  0.4604 -0.8698 -1.0517
42783SOL    HW234313  11.839   2.418   1.829  1.0939 -0.9421 -1.1148
42784SOL     OW34314   1.244   1.677   9.038 -0.9231 -0.3764 -0.2493
42784SOL    HW134315   1.256   1.689   8.943  2.8098  1.8674  0.2728
42784SOL    HW234316   1.279   1.590   9.055  1.7319  0.4879 -0.6925
42785SOL     OW34317  11.873   7.425   3.598 -0.3875 -0.1102 -0.8300
42785SOL    HW134318  11.927   7.492   3.556 -1.0586  0.3069 -1.0382
42785SOL    HW234319  11.934   7.377   3.653 -0.0963  1.3833  0.2048
42786SOL     OW34320   6.018   3.929  10.323  0.3249 -0.2289  0.6224
42786SOL    HW134321   6.093   3.974  10.364 -0.3336  1.3304  0.1934
42786SOL    HW234322   5.941   3.969  10.363 -0.3010 -0.6598 -0.1179
42787SOL     OW34323   4.653  11.710  12.093 -0.1780  0.6567  0.0354
42787SOL    HW134324   4.661  11.803  12.073  1.9349  0.6082  0.3974
42787SOL    HW234325   4.633  11.708  12.187 -1.4651  0.7494 -0.2277
42788SOL     OW34326   0.229   2.667  12.041 -0.6687 -0.5772 -0.2010
42788SOL    HW134327   0.247   2.761  12.034  1.1080 -0.8936 -0.2709
42788SOL    HW234328   0.217   2.639  11.950 -0.5161 -0.5496 -0.2299
42789SOL     OW34329   6.959  10.415   9.555  0.1057  0.0115 -0.3565
42789SOL    HW134330   6.879  10.435   9.507  1.7503  0.8115 -2.9564
42789SOL    HW234331   6.974  10.493   9.609 -0.3517  0.2753 -0.6013
42790SOL     OW34332  11.130   5.760   7.597  0.2986 -0.0512  0.0146
42790SOL    HW134333  11.193   5.694   7.569  1.2545  0.5963  0.6024
42790SOL    HW234334  11.105   5.734   7.686  1.0921  0.6531  0.4602
42791SOL     OW34335   1.166  11.406   9.446 -0.0661 -0.3224  0.1414
42791SOL    HW134336   1.257  11.402   9.417 -0.5121 -1.6675 -1.2146
42791SOL    HW234337   1.171  11.400   9.542  1.2641 -0.5288  0.0791
42792SOL     OW34338   3.262   9.313  11.211 -0.3291 -0.2243  0.2854
42792SOL    HW134339   3.170   9.333  11.193 -0.2929  0.2875  0.6406
42792SOL    HW234340   3.264   9.218  11.225 -0.9255 -0.1444  0.9754
42793SOL     OW34341   7.297   7.040   9.471  0.3485  0.1812  0.4265
42793SOL    HW134342   7.280   7.129   9.439  0.9862  0.3685  0.5797
42793SOL    HW234343   7.218   6.991   9.451 -0.3079  0.9692  0.9994
42794SOL     OW34344   2.635  11.034   0.144 -0.1539  0.3356  0.0095
42794SOL    HW134345   2.620  10.949   0.186 -1.0675 -0.7468 -2.3173
42794SOL    HW234346   2.581  11.095   0.194 -2.7430 -1.2469 -0.6547
42795SOL     OW34347   2.029   6.377   7.242  0.0759 -0.4677 -0.2448
42795SOL    HW134348   1.951   6.326   7.266  0.9941 -2.2300 -0.8667
42795SOL    HW234349   2.091   6.312   7.208  0.8093  1.2166 -2.3562
42796SOL     OW34350  11.509   5.821   8.134  0.1586 -0.2221  0.2566
42796SOL    HW134351  11.541   5.852   8.049 -0.2815  1.7965  0.7710
42796SOL    HW234352  11.587   5.799   8.183  0.5050  0.0207 -0.1787
42797SOL     OW34353   5.594   9.231   2.345  0.6042 -0.3981  0.1389
42797SOL    HW134354   5.604   9.218   2.439 -0.7758  1.5509  0.6234
42797SOL    HW234355   5.499   9.235   2.331  0.7786  1.8920 -0.8794
42798SOL     OW34356  12.138   9.173   5.692 -0.1764  0.4145 -0.4023
42798SOL    HW134357  12.230   9.185   5.669 -0.3862  1.8467 -0.5885
42798SOL    HW234358  12.130   9.213   5.779 -1.1022  2.6312 -1.4283
42799SOL     OW34359   3.499   6.692   8.836 -0.2038  0.0597 -0.0073
42799SOL    HW134360   3.474   6.732   8.920 -0.0734 -1.9130  1.0232
42799SOL    HW234361   3.575   6.638   8.857 -0.2008 -0.5035 -1.3975
42800SOL     OW34362   0.357  10.184   8.179 -0.1411  0.2019 -0.8118
42800SOL    HW134363   0.430  10.198   8.239  2.0698 -0.0387 -3.2487
42800SOL    HW234364   0.337  10.272   8.146  1.2452 -0.0163 -2.4153
42801SOL     OW34365   9.461  11.931  10.933  0.1874 -0.0892  0.0437
42801SOL    HW134366   9.512  11.934  10.852  0.6056  0.2425  0.3094
42801SOL    HW234367   9.507  11.866  10.987  1.0735  1.0977  0.7580
42802SOL     OW34368  10.677  11.463   0.558 -0.4268  0.6479 -0.2198
42802SOL    HW134369  10.610  11.512   0.607 -0.6745  0.3963 -0.3020
42802SOL    HW234370  10.700  11.390   0.615 -1.1295  0.0289 -0.7028
42803SOL     OW34371   7.647   6.945   9.083 -0.1167  0.2038  0.3214
42803SOL    HW134372   7.701   6.866   9.086  0.6330  0.7049  0.1508
42803SOL    HW234373   7.619   6.958   9.173 -0.4628 -0.3915  0.3133
42804SOL     OW34374   5.729   8.268   8.079  0.3854  0.3365  0.6553
42804SOL    HW134375   5.644   8.309   8.062  0.6947  1.1199  0.9581
42804SOL    HW234376   5.751   8.223   7.997 -1.0160 -1.1665  1.0573
42805SOL     OW34377   7.737   8.791   0.838  0.0681 -0.0060 -0.5329
42805SOL    HW134378   7.827   8.804   0.868 -0.3609  1.3033  0.2946
42805SOL    HW234379   7.703   8.880   0.823 -0.7123 -0.5146 -2.0343
42806SOL     OW34380   7.631   9.723   2.538 -0.3902 -0.2862  0.6470
42806SOL    HW134381   7.714   9.676   2.546  0.0918  0.6010  0.9162
42806SOL    HW234382   7.579   9.693   2.612 -0.8132 -1.8071 -0.2185
42807SOL     OW34383   9.883  11.183  12.098 -0.0707  0.0706 -0.6818
42807SOL    HW134384   9.876  11.276  12.076  1.2891  0.3529 -0.0102
42807SOL    HW234385   9.823  11.172  12.172 -0.1460  0.4241 -0.6873
42808SOL     OW34386   3.883  11.049   1.613  0.4512 -0.4585 -0.2845
42808SOL    HW134387   3.951  11.111   1.639 -0.2488  0.3858 -0.4468
42808SOL    HW234388   3.808  11.103   1.590  0.0631 -1.3275 -1.1358
42809SOL     OW34389   8.374   0.227   6.450  0.1992 -0.3868  0.2673
42809SOL    HW134390   8.444   0.273   6.403  0.3277 -0.4402  0.4056
42809SOL    HW234391   8.346   0.157   6.389  1.2559 -1.2798  0.7744
42810SOL     OW34392   8.817   6.696  12.335  0.3431 -0.4412  0.5508
42810SOL    HW134393   8.761   6.772  12.323 -1.7117 -1.9108  0.4263
42810SOL    HW234394   8.758   6.625  12.361  1.9187 -2.4212 -0.8835
42811SOL     OW34395  10.754   4.145   3.494  0.1984 -0.2583 -0.2414
42811SOL    HW134396  10.840   4.124   3.530  0.4849 -1.7993 -1.6968
42811SOL    HW234397  10.699   4.070   3.518 -0.3971  0.1264 -0.3833
42812SOL     OW34398   3.911   9.761   3.735 -0.2600  0.6221 -0.2604
42812SOL    HW134399   3.846   9.831   3.723 -1.8978 -0.7797  0.0753
42812SOL    HW234400   3.986   9.789   3.683 -1.2084  2.2117 -0.8431
42813SOL     OW34401   0.673   0.798   8.578 -0.9992  0.5394 -0.0919
42813SOL    HW134402   0.701   0.818   8.489  1.7398  0.3093  0.6278
42813SOL    HW234403   0.680   0.881   8.625  2.0509 -0.1561  0.8918
42814SOL     OW34404   2.954   7.453   2.412  0.1969 -0.2109 -0.1952
42814SOL    HW134405   2.919   7.526   2.360  0.4264  0.7751  0.9940
42814SOL    HW234406   2.932   7.375   2.361  0.6470  0.7195 -1.9165
42815SOL     OW34407   3.854   0.974   5.953  0.0151  0.5546  0.2852
42815SOL    HW134408   3.931   0.970   6.010 -0.5722  1.6391  1.2051
42815SOL    HW234409   3.873   0.913   5.882  0.5797 -1.2558  1.8992
42816SOL     OW34410   2.282   1.509   4.003 -0.0346 -0.1931 -0.1032
42816SOL    HW134411   2.279   1.520   3.908 -1.4376 -0.3324 -0.1095
42816SOL    HW234412   2.267   1.597   4.038  1.9967  0.1446  0.0427
42817SOL     OW34413  10.060   5.910   0.111  0.1763 -0.4939  0.1392
42817SOL    HW134414  10.054   5.827   0.158  1.7653 -0.2278  0.9027
42817SOL    HW234415  10.069   5.976   0.181 -0.9749  0.3304 -0.4556
42818SOL     OW34416  11.801   6.124   3.667 -0.3071 -0.1137 -0.0540
42818SOL    HW134417  11.821   6.190   3.734  1.6998  0.5055 -1.1856
42818SOL    HW234418  11.744   6.170   3.605  1.6026  0.8573 -1.1826
42819SOL     OW34419   2.548   3.241   2.021 -0.2652 -0.0609 -0.4650
42819SOL    HW134420   2.536   3.315   1.961  1.2586 -0.2994 -1.0990
42819SOL    HW234421   2.507   3.167   1.977 -0.0694 -0.0110 -0.7288
42820SOL     OW34422   9.494  11.414   1.163 -0.3409  0.4159  0.0680
42820SOL    HW134423   9.432  11.437   1.095  0.2761  0.7414 -0.3967
42820SOL    HW234424   9.578  11.447   1.131 -0.0308  0.5048  0.9478
42821SOL     OW34425  11.082  10.856   6.552 -0.3187  0.1841 -0.6428
42821SOL    HW134426  11.038  10.937   6.525  0.5119  1.3080  1.2275
42821SOL    HW234427  11.156  10.848   6.492  1.5751  2.7071  1.1335
42822SOL     OW34428   6.728   4.487   9.563 -0.1724 -0.0469 -0.2162
42822SOL    HW134429   6.753   4.413   9.618 -1.3868 -0.1610  0.2296
42822SOL    HW234430   6.785   4.481   9.487 -0.2092 -1.4049 -0.1619
42823SOL     OW34431   9.676   9.245   7.397 -0.1040  0.6666 -0.6534
42823SOL    HW134432   9.623   9.201   7.331 -0.5677  0.5525 -0.2085
42823SOL    HW234433   9.731   9.176   7.434 -1.8578  0.1120  1.0720
42824SOL     OW34434  10.435   4.282   4.211  0.2692 -0.0398 -0.1513
42824SOL    HW134435  10.349   4.310   4.243  0.6519  0.6896  0.2647
42824SOL    HW234436  10.456   4.344   4.141  0.9487  0.4944  0.5103
42825SOL     OW34437   9.898  10.648   8.940  0.3696  0.8706  0.5901
42825SOL    HW134438   9.935  10.669   8.854  0.7445  0.5798  0.6766
42825SOL    HW234439   9.975  10.633   8.995  0.1305 -1.3173  0.3858
42826SOL     OW34440   2.971  10.222   8.205 -0.0831  0.2937  0.0062
42826SOL    HW134441   2.938  10.135   8.228 -1.8235  0.5269 -1.3722
42826SOL    HW234442   3.064  10.209   8.187  0.0616 -0.9377  1.4565
42827SOL     OW34443   5.018  12.134   4.991 -0.1756  0.2036  0.0335
42827SOL    HW134444   5.051  12.067   4.932  1.3157  0.1595  0.8750
42827SOL    HW234445   4.979  12.085   5.064  0.8053  0.2243  0.5890
42828SOL     OW34446   7.567   1.321   1.497  0.2795  0.1934 -0.3085
42828SOL    HW134447   7.650   1.304   1.453  1.1634 -0.4085  1.4799
42828SOL    HW234448   7.588   1.315   1.590 -1.8149 -0.1422  0.1887
42829SOL     OW34449  10.107   1.609   9.781  0.3790  0.1369  0.0119
42829SOL    HW134450  10.198   1.635   9.772  0.7148 -0.7216  0.7428
42829SOL    HW234451  10.063   1.648   9.706  1.1737  1.3010  0.1376
42830SOL     OW34452   0.949   6.380   3.184  0.3019 -0.7530  0.4710
42830SOL    HW134453   1.009   6.359   3.113 -0.6112 -0.3487 -0.4438
42830SOL    HW234454   0.995   6.448   3.235  0.8269 -0.8193  0.0891
42831SOL     OW34455   9.398   1.746  10.160  0.2451  0.1180 -0.0576
42831SOL    HW134456   9.469   1.761  10.223  0.4386 -0.3347 -0.1583
42831SOL    HW234457   9.431   1.676  10.104  0.6493  1.4893 -1.5752
42832SOL     OW34458   0.122   2.284   3.613  0.5176 -0.1818  0.8028
42832SOL    HW134459   0.196   2.255   3.668 -0.5428 -1.3877  1.6641
42832SOL    HW234460   0.062   2.210   3.614 -1.7955  1.6008  2.0734
42833SOL     OW34461  11.431   4.083   3.285 -0.2736  0.3348 -0.0617
42833SOL    HW134462  11.461   4.047   3.201  0.7707  0.7229  0.1302
42833SOL    HW234463  11.456   4.175   3.283  1.3382 -0.0065  1.3408
42834SOL     OW34464  11.749   4.777   9.533 -0.0233 -0.4157 -0.6348
42834SOL    HW134465  11.696   4.850   9.562 -0.1643 -0.5996 -0.4275
42834SOL    HW234466  11.801   4.812   9.461  0.4348  0.0871 -0.0749
42835SOL     OW34467   0.007   1.386   3.485 -0.3716  0.1441 -0.2016
42835SOL    HW134468  -0.050   1.463   3.483 -1.4140 -0.5600  0.8153
42835SOL    HW234469   0.096   1.422   3.483 -0.8346  1.3291 -0.5521
42836SOL     OW34470   1.765   7.821  10.996  0.2330  0.2683  0.4332
42836SOL    HW134471   1.776   7.752  10.931 -1.7369  1.2595 -1.0527
42836SOL    HW234472   1.845   7.818  11.049  1.6398 -0.9723 -1.6411
42837SOL     OW34473  11.725  11.097   3.526  0.1091  0.0472  0.3226
42837SOL    HW134474  11.714  11.002   3.515 -2.4799  0.4127 -1.1701
42837SOL    HW234475  11.659  11.121   3.592  0.5729  0.8545  0.5005
42838SOL     OW34476   6.208  10.181   5.699  0.0302  0.6834  0.2801
42838SOL    HW134477   6.257  10.128   5.762 -0.6806  0.2309  0.4655
42838SOL    HW234478   6.266  10.186   5.623  0.8225  1.0771  0.8833
42839SOL     OW34479   1.648   5.335   1.015 -0.1273 -0.3857 -0.3064
42839SOL    HW134480   1.581   5.266   1.015  0.2161 -0.7791  1.2985
42839SOL    HW234481   1.700   5.318   0.936 -1.9107 -0.0493 -1.5915
42840SOL     OW34482  10.185   0.759   7.204 -0.3408 -0.3206 -0.1877
42840SOL    HW134483  10.194   0.670   7.170  0.8177 -0.2376 -0.1663
42840SOL    HW234484  10.267   0.774   7.252 -0.8806  0.4566  0.5129
42841SOL     OW34485   0.380   4.996   5.650  0.0777 -0.5100 -0.0157
42841SOL    HW134486   0.395   4.905   5.625  1.7614 -0.0255 -0.9134
42841SOL    HW234487   0.314   4.992   5.719  0.9226 -2.4872  0.7297
42842SOL     OW34488   7.156  11.901   2.213 -0.0566 -0.2178 -0.4641
42842SOL    HW134489   7.177  11.948   2.132 -2.0528 -0.5939 -1.2596
42842SOL    HW234490   7.099  11.829   2.185  1.7295 -2.3032  0.9003
42843SOL     OW34491  11.833   4.516   0.273  0.0472 -0.4628  0.5596
42843SOL    HW134492  11.823   4.597   0.323 -1.3596 -0.2725  0.0291
42843SOL    HW234493  11.926   4.512   0.252  0.1125  1.1294  0.4139
42844SOL     OW34494   7.048   3.159   0.804  0.3134  0.4469  0.1698
42844SOL    HW134495   7.025   3.250   0.788  1.4105  0.9051  0.9943
42844SOL    HW234496   7.064   3.155   0.899 -0.4443 -0.7837  0.2725
42845SOL     OW34497  12.146   9.924   5.253 -0.3054  0.1273 -0.1597
42845SOL    HW134498  12.069   9.885   5.294  0.5255 -3.1992 -1.4523
42845SOL    HW234499  12.134   9.909   5.159  2.2529 -1.3596 -0.3448
42846SOL     OW34500   1.161   0.438   8.298 -0.6466 -0.4907 -0.1090
42846SOL    HW134501   1.135   0.424   8.207 -1.1375  2.9139 -0.6229
42846SOL    HW234502   1.256   0.442   8.296 -0.4986 -2.5375 -0.0075
42847SOL     OW34503   8.627   3.290   7.968 -0.0830 -0.7062 -0.2777
42847SOL    HW134504   8.577   3.355   7.918  0.1808 -0.4939 -0.2716
42847SOL    HW234505   8.580   3.281   8.051 -0.8440 -1.4804 -0.7787
42848SOL     OW34506   4.816   8.478   2.816  0.3805 -0.0877  0.2475
42848SOL    HW134507   4.768   8.452   2.895  0.2681 -1.0937 -0.1272
42848SOL    HW234508   4.790   8.569   2.801 -0.0754 -0.0789  1.0203
42849SOL     OW34509   2.686  12.189   2.944  0.8048  0.4554  0.2306
42849SOL    HW134510   2.595  12.207   2.965  0.5628  1.7105 -1.5909
42849SOL    HW234511   2.711  12.116   3.000 -1.4857 -0.2862  0.3620
42850SOL     OW34512   2.615  10.357   9.049  0.4326 -0.6131 -0.4018
42850SOL    HW134513   2.544  10.406   9.009  1.6124  0.1373 -1.6632
42850SOL    HW234514   2.636  10.405   9.129  0.6781  0.1886 -0.9352
42851SOL     OW34515   3.214   0.999  12.045  0.1923 -0.1843 -0.0488
42851SOL    HW134516   3.218   0.942  11.968 -3.2501  0.9472 -1.2603
42851SOL    HW234517   3.175   0.945  12.114  2.3654 -0.8992  0.7123
42852SOL     OW34518   1.250   1.895  11.523 -0.2427  0.4910  0.0982
42852SOL    HW134519   1.290   1.972  11.481  0.9776  0.3162  0.9086
42852SOL    HW234520   1.280   1.821  11.471 -1.3855  0.5278 -0.6573
42853SOL     OW34521   5.481   4.989   7.207  0.5092  0.2110  0.5491
42853SOL    HW134522   5.514   4.902   7.227 -0.4472 -0.4031 -0.4448
42853SOL    HW234523   5.391   4.989   7.240  0.3680  0.6817  0.1796
42854SOL     OW34524   8.104   1.045   4.890  0.1195  0.1249 -0.4739
42854SOL    HW134525   8.143   1.118   4.938 -1.1332  0.8829 -0.5404
42854SOL    HW234526   8.163   1.031   4.816 -0.4158  2.1901 -1.3762
42855SOL     OW34527  11.639  11.477   9.642  0.3374 -0.2043 -0.5289
42855SOL    HW134528  11.707  11.474   9.709 -0.4031  1.7499  0.3867
42855SOL    HW234529  11.591  11.395   9.652  1.5742 -0.9034 -0.1445
42856SOL     OW34530   1.942   1.517   7.814  0.2712  0.3811 -0.0130
42856SOL    HW134531   2.018   1.487   7.764 -0.6334  1.9228 -2.4869
42856SOL    HW234532   1.970   1.600   7.851  0.3149  0.1395  0.5069
42857SOL     OW34533   3.884  11.495   3.258 -1.0117  0.1247 -0.0346
42857SOL    HW134534   3.854  11.586   3.261 -0.5951  0.2525  0.4352
42857SOL    HW234535   3.968  11.499   3.213 -0.3731  0.1633  1.1082
42858SOL     OW34536   8.312   1.036   4.669 -0.0750 -0.0107 -0.0455
42858SOL    HW134537   8.336   0.977   4.598  0.2219 -0.0303  0.0692
42858SOL    HW234538   8.278   1.114   4.626  0.0766 -0.0340 -0.2080
42859SOL     OW34539   1.920  11.004   0.112  0.2451  0.0598 -0.2595
42859SOL    HW134540   1.980  10.947   0.065  0.8214  0.8837 -0.5513
42859SOL    HW234541   1.943  11.093   0.083 -1.2117  0.3907 -0.4971
42860SOL     OW34542   1.953  10.717   3.953 -0.5226 -0.4480  0.7027
42860SOL    HW134543   2.014  10.743   4.022 -0.5762 -0.2222  0.6660
42860SOL    HW234544   1.887  10.786   3.952  0.5492  0.6084 -0.9317
42861SOL     OW34545   2.953   3.299  10.534 -0.6607 -0.3800 -0.0771
42861SOL    HW134546   2.925   3.283  10.624 -2.7468 -1.0781 -0.7799
42861SOL    HW234547   2.960   3.394  10.527  0.1407 -0.3419  0.9567
42862SOL     OW34548   8.488  11.745  10.312  0.3405 -0.3417 -0.6631
42862SOL    HW134549   8.537  11.700  10.380  1.0744  4.1642  2.2446
42862SOL    HW234550   8.556  11.778  10.253  0.2177  0.2491 -0.4802
42863SOL     OW34551   8.819   0.319   2.197 -0.0535 -0.0097 -0.2734
42863SOL    HW134552   8.766   0.261   2.252 -0.8580 -0.3800 -1.3862
42863SOL    HW234553   8.892   0.345   2.252 -0.6307 -0.6621  0.8357
42864SOL     OW34554   3.309   6.556   3.780 -0.3688 -0.2902  0.3400
42864SOL    HW134555   3.273   6.599   3.702 -0.1285 -0.7917 -0.0564
42864SOL    HW234556   3.252   6.480   3.793 -1.7306  0.9043  1.9279
42865SOL     OW34557   0.994   4.657  10.573  0.1084 -0.0500 -0.4898
42865SOL    HW134558   0.954   4.594  10.514 -1.9939  1.5011 -0.8478
42865SOL    HW234559   0.949   4.644  10.657  0.1834  0.4454 -0.3677
42866SOL     OW34560   9.592   6.833   0.767 -0.1612 -0.4831 -0.0718
42866SOL    HW134561   9.594   6.881   0.850  1.9231 -0.6768  0.0372
42866SOL    HW234562   9.525   6.766   0.780 -0.8948  0.4003  0.9129
42867SOL     OW34563   1.827   8.953  10.684  0.0439 -0.5698  0.2049
42867SOL    HW134564   1.764   8.895  10.728  1.2378 -1.5494  0.7055
42867SOL    HW234565   1.908   8.940  10.733  0.7305  0.3709 -0.6542
42868SOL     OW34566   1.147   2.075   9.463  0.7001 -0.3882 -0.0059
42868SOL    HW134567   1.123   2.120   9.544  1.4764 -0.9840  0.5699
42868SOL    HW234568   1.235   2.106   9.443 -0.0048  0.8439 -1.4252
42869SOL     OW34569   3.381   7.878   9.098 -0.2799  0.4864  0.2413
42869SOL    HW134570   3.450   7.817   9.124 -0.0369  0.6160 -0.0914
42869SOL    HW234571   3.319   7.824   9.048  0.5557  0.7339 -1.1231
42870SOL     OW34572   1.750   3.832   0.717 -0.4976  0.5844  0.4161
42870SOL    HW134573   1.731   3.922   0.693 -1.8400  0.9290  2.4837
42870SOL    HW234574   1.752   3.832   0.812  0.8642 -1.3334  0.4559
42871SOL     OW34575   3.834   3.659   2.073  0.1235 -0.2817  0.4379
42871SOL    HW134576   3.833   3.705   2.157 -0.7863 -1.4285  1.0818
42871SOL    HW234577   3.760   3.696   2.025  0.7641  0.5182  0.0343
42872SOL     OW34578   6.187  12.235  12.144 -0.4477  0.2452 -0.3584
42872SOL    HW134579   6.127  12.267  12.076  0.0240  0.5202 -0.6483
42872SOL    HW234580   6.141  12.253  12.226 -1.5516 -1.1738 -0.6290
42873SOL     OW34581  11.738  10.987   3.168  0.0691 -0.1711  0.6206
42873SOL    HW134582  11.817  10.978   3.116 -0.4390 -0.6382 -0.0951
42873SOL    HW234583  11.715  11.080   3.162 -0.7208 -0.4337 -1.1419
42874SOL     OW34584  12.422  12.282   4.498 -0.0442 -0.5170  0.3372
42874SOL    HW134585  12.401  12.304   4.589 -1.7705 -0.0048 -0.1477
42874SOL    HW234586  12.414  12.365   4.451  1.5031 -0.6432 -0.1979
42875SOL     OW34587   9.034   6.167   3.244  0.0863  0.3660 -0.2769
42875SOL    HW134588   9.066   6.077   3.245  0.7125  0.5882  0.5847
42875SOL    HW234589   8.951   6.164   3.292  0.3398  0.3317  0.1589
42876SOL     OW34590  10.449   6.808   9.583  0.4060  0.0712  0.2628
42876SOL    HW134591  10.450   6.897   9.616 -0.8670 -0.4309  1.8164
42876SOL    HW234592  10.510   6.760   9.639  1.6288  0.0592 -1.0078
42877SOL     OW34593   8.382   1.378   0.015 -0.2312 -0.4205  0.1397
42877SOL    HW134594   8.464   1.422  -0.008 -0.8568  0.4514 -0.4845
42877SOL    HW234595   8.360   1.412   0.101  0.5283 -1.3610  0.7221
42878SOL     OW34596  10.064   9.180   1.122  0.4496 -0.7637  0.5908
42878SOL    HW134597  10.067   9.119   1.048  0.9303 -1.1242  0.8992
42878SOL    HW234598  10.022   9.258   1.088 -3.3178 -2.4073  0.9861
42879SOL     OW34599   5.951   4.721   8.502  0.4337 -0.1985  0.1741
42879SOL    HW134600   5.924   4.812   8.496 -0.7152 -0.5202  0.3734
42879SOL    HW234601   6.029   4.723   8.558  0.8671  0.7309 -0.4320
42880SOL     OW34602   4.663  12.295   4.400 -0.2452 -0.5682  0.2263
42880SOL    HW134603   4.722  12.221   4.412  1.3352  0.8867  2.0260
42880SOL    HW234604   4.720  12.372   4.398 -1.9442  0.7513  0.0222
42881SOL     OW34605   5.023   3.106   7.765  0.1837  0.2974 -0.0186
42881SOL    HW134606   5.051   3.031   7.713 -0.9147 -1.1525  1.3754
42881SOL    HW234607   5.021   3.074   7.855 -1.0663  1.7696  0.5303
42882SOL     OW34608  10.055   1.872   2.521 -0.4835 -0.5326 -0.8900
42882SOL    HW134609   9.970   1.914   2.535 -0.0586  0.4760 -1.2034
42882SOL    HW234610  10.084   1.905   2.437  0.9403  0.4276 -0.0666
42883SOL     OW34611   6.885   5.527   9.400 -0.1369  0.0364 -0.0476
42883SOL    HW134612   6.918   5.541   9.489 -1.7002  0.9525  0.4220
42883SOL    HW234613   6.808   5.472   9.412 -1.5473  1.8340 -0.6000
42884SOL     OW34614   1.356   9.106  11.954  0.6270  0.2039 -0.3363
42884SOL    HW134615   1.341   9.104  12.049 -0.5461 -2.7781 -0.4740
42884SOL    HW234616   1.275   9.140  11.917  0.6178  0.2132 -0.3079
42885SOL     OW34617   7.478   7.199   2.587 -0.4735  0.0997  0.6425
42885SOL    HW134618   7.476   7.221   2.494 -0.7497 -0.9917  0.3738
42885SOL    HW234619   7.390   7.219   2.618 -0.3236  0.6538  0.7240
42886SOL     OW34620   4.876   6.148  12.257  0.1943 -0.3166 -0.3420
42886SOL    HW134621   4.901   6.175  12.346 -1.1783 -0.5686  0.1321
42886SOL    HW234622   4.951   6.097  12.226  1.3618  1.0597  0.0656
42887SOL     OW34623   0.772   0.055   8.901  1.1459  0.6271  0.1542
42887SOL    HW134624   0.732   0.062   8.988  1.9933  0.9987  0.5158
42887SOL    HW234625   0.804  -0.035   8.897  1.1279  0.6174  0.2281
42888SOL     OW34626   9.694  11.140   4.290 -0.0974  0.5299  0.5323
42888SOL    HW134627   9.635  11.146   4.365  1.0014  0.4611  1.4408
42888SOL    HW234628   9.732  11.228   4.283  0.6380  0.2417  0.7822
42889SOL     OW34629   3.323   5.113   1.979 -0.1345 -0.6409  0.1317
42889SOL    HW134630   3.273   5.079   2.052  0.2955 -1.0909  0.2216
42889SOL    HW234631   3.394   5.050   1.966  0.5833  0.1301  0.1948
42890SOL     OW34632   7.807   7.506   5.716  0.0360  0.6551  0.1051
42890SOL    HW134633   7.712   7.491   5.711  0.0315  0.9071 -0.6070
42890SOL    HW234634   7.846   7.421   5.692 -0.0016  0.3884  0.9461
42891SOL     OW34635   6.869   4.771   2.750  0.0699  0.2569 -0.5305
42891SOL    HW134636   6.807   4.790   2.820 -0.3171 -0.6272 -0.6177
42891SOL    HW234637   6.919   4.852   2.739  0.1226  0.4064  0.7463
42892SOL     OW34638   1.833   6.137   9.794  0.1381 -0.1278 -0.0970
42892SOL    HW134639   1.823   6.074   9.865 -0.2236  0.4756  0.3994
42892SOL    HW234640   1.856   6.084   9.718  0.0886 -0.8286  0.3658
42893SOL     OW34641  10.587   6.469   1.014  0.4189 -0.2904 -0.1597
42893SOL    HW134642  10.538   6.474   1.096  0.3336  0.1540 -0.2314
42893SOL    HW234643  10.535   6.412   0.958 -1.6726  2.5057 -1.3167
42894SOL     OW34644  10.042   6.372   8.005  0.0457  0.0339  0.2219
42894SOL    HW134645  10.134   6.386   7.983 -0.1749 -1.0542 -1.5052
42894SOL    HW234646  10.038   6.390   8.099  1.7090  1.5619  0.0693
42895SOL     OW34647   8.089  11.505   5.341 -0.1286 -0.1627 -0.0692
42895SOL    HW134648   8.100  11.431   5.401  1.1907  0.6509  0.7326
42895SOL    HW234649   8.073  11.580   5.398 -1.7434  0.1446 -0.8882
42896SOL     OW34650   0.306   8.036   7.701  0.0181  0.0196  0.0795
42896SOL    HW134651   0.226   8.021   7.652 -0.1549  0.1248  0.3242
42896SOL    HW234652   0.376   8.001   7.646 -0.2042 -0.1389 -0.1003
42897SOL     OW34653   8.852  11.243   2.433  0.4447  0.4224 -0.2753
42897SOL    HW134654   8.766  11.204   2.448  0.3967 -0.4002 -2.3693
42897SOL    HW234655   8.912  11.169   2.426  1.9355  0.9871  3.6446
42898SOL     OW34656  11.756  10.937  10.410 -0.2154 -0.0329  0.5946
42898SOL    HW134657  11.758  10.861  10.351  0.8853  0.0169  0.5435
42898SOL    HW234658  11.679  10.922  10.465 -1.0804 -0.2478 -0.6283
42899SOL     OW34659   4.711   7.102   8.849  0.7008  0.2854  0.0923
42899SOL    HW134660   4.676   7.106   8.759 -0.0955 -1.4246  0.2910
42899SOL    HW234661   4.788   7.160   8.847  0.0662  1.1475 -1.3854
42900SOL     OW34662  11.732   0.147   0.884  0.1854  0.2650  0.4460
42900SOL    HW134663  11.739   0.221   0.824 -0.4883 -1.1700 -1.5104
42900SOL    HW234664  11.660   0.094   0.848  1.4928 -2.0127  0.9797
42901SOL     OW34665   0.990   8.544   3.229  0.2720 -0.2044 -0.5193
42901SOL    HW134666   0.896   8.558   3.242 -0.1197 -1.9019 -1.2770
42901SOL    HW234667   1.021   8.627   3.191 -0.9801  0.2500 -0.6038
42902SOL     OW34668  12.238   7.112   9.234  0.2172  0.3026  0.1471
42902SOL    HW134669  12.273   7.094   9.321 -0.8845  0.8984  0.7317
42902SOL    HW234670  12.269   7.199   9.213  2.5850 -0.7771 -1.1683
42903SOL     OW34671   4.211   2.103   5.724  0.0862  0.7807  0.6199
42903SOL    HW134672   4.172   2.187   5.747 -0.2539  1.0399 -0.7981
42903SOL    HW234673   4.184   2.044   5.794  0.9544  1.9944  2.0386
42904SOL     OW34674   4.242   0.947   3.019  0.2378  0.6097  0.1803
42904SOL    HW134675   4.169   0.954   3.081  0.0028  1.1807 -0.1482
42904SOL    HW234676   4.216   0.877   2.960  1.4947 -1.5503  2.0563
42905SOL     OW34677  10.199   5.839   6.905 -0.5536  0.0215  0.0629
42905SOL    HW134678  10.284   5.795   6.905 -0.7949 -0.4683  1.1878
42905SOL    HW234679  10.205   5.902   6.833  0.3961 -0.6960 -0.5012
42906SOL     OW34680   2.972   0.321  11.782 -0.4318  0.1689 -0.3356
42906SOL    HW134681   2.944   0.269  11.858  0.3585 -0.0612 -0.1907
42906SOL    HW234682   2.894   0.368  11.755 -0.5262  0.9306  1.1542
42907SOL     OW34683  10.984   6.369  10.964  0.2825 -0.4735  0.0293
42907SOL    HW134684  10.977   6.389  10.871 -1.8656  1.2039  0.4580
42907SOL    HW234685  11.047   6.432  10.998  0.1583 -0.2721 -0.1106
42908SOL     OW34686   7.394   1.151   5.706 -0.4681  0.1647  0.2852
42908SOL    HW134687   7.477   1.196   5.722  0.1527 -1.0039  0.5108
42908SOL    HW234688   7.328   1.204   5.751  0.3335  0.4571  1.1577
42909SOL     OW34689   6.143   9.872   7.116 -0.4170 -0.5204  0.4829
42909SOL    HW134690   6.160   9.810   7.187 -1.9225  0.7031  1.9948
42909SOL    HW234691   6.171   9.957   7.151 -2.9389  0.4243  0.4263
42910SOL     OW34692   0.104   5.136   2.789 -0.3059  0.4607  0.1496
42910SOL    HW134693   0.131   5.102   2.704 -0.7809  1.1241 -0.2779
42910SOL    HW234694   0.073   5.225   2.771  1.8087  1.5223  1.3904
42911SOL     OW34695   1.171   2.950   0.336  0.3100 -0.8032  0.4620
42911SOL    HW134696   1.180   2.987   0.248  1.2150 -0.0762  0.8401
42911SOL    HW234697   1.179   3.025   0.394 -0.5627 -1.2409  1.1659
42912SOL     OW34698   9.853   8.709   6.367 -0.1947  0.3492 -0.3921
42912SOL    HW134699   9.946   8.730   6.366 -0.0864 -0.1176 -0.7176
42912SOL    HW234700   9.815   8.760   6.296 -0.2692  0.8915  0.0345
42913SOL     OW34701  10.769  10.004   7.309  0.0466  0.2179 -0.3907
42913SOL    HW134702  10.721  10.075   7.352  1.0740  0.6682  0.0524
42913SOL    HW234703  10.706   9.966   7.248 -0.7870  0.9521 -0.0126
42914SOL     OW34704  11.801   0.787   2.881  0.0532 -0.5298  0.3889
42914SOL    HW134705  11.812   0.843   2.805 -1.4354 -0.0388  0.5218
42914SOL    HW234706  11.723   0.819   2.925 -1.1578 -2.9598  0.2190
42915SOL     OW34707   0.212   5.398   7.754 -0.0448  0.1115 -0.0202
42915SOL    HW134708   0.190   5.473   7.810 -0.2380  0.8721 -1.0739
42915SOL    HW234709   0.210   5.323   7.812  0.4324  0.9626  1.1329
42916SOL     OW34710  11.658   5.518  11.112 -0.4388 -0.1993 -0.4435
42916SOL    HW134711  11.609   5.439  11.136 -1.7318  1.1472  1.6274
42916SOL    HW234712  11.603   5.560  11.046  0.4448 -1.1569 -1.8502
42917SOL     OW34713  11.014   3.827  11.987 -0.2314  0.1218 -0.5568
42917SOL    HW134714  11.101   3.828  11.946  0.4928  0.7875  0.9339
42917SOL    HW234715  11.032   3.827  12.081 -1.8330 -1.5888 -0.1890
42918SOL     OW34716   8.620   0.577   1.155  0.2644 -0.0326 -0.1336
42918SOL    HW134717   8.639   0.542   1.069 -0.6687 -0.5981 -0.1207
42918SOL    HW234718   8.534   0.542   1.178 -0.4044  1.6758  0.1874
42919SOL     OW34719   1.587   3.574   0.434  0.0480  0.1922 -0.1555
42919SOL    HW134720   1.660   3.632   0.413  0.3704 -0.1174  0.0923
42919SOL    HW234721   1.591   3.566   0.530  0.6935 -1.1178 -0.2678
42920SOL     OW34722  11.607   8.906   3.738  0.5790  0.2772 -0.2523
42920SOL    HW134723  11.544   8.953   3.792  1.0718 -0.8179  1.3595
42920SOL    HW234724  11.579   8.815   3.743  1.4906 -0.0384 -0.6352
42921SOL     OW34725   8.306   1.708   5.814  0.7158 -0.0900  0.4215
42921SOL    HW134726   8.265   1.794   5.806 -0.0651 -0.5550 -0.8988
42921SOL    HW234727   8.273   1.659   5.738  0.6625 -1.7443  1.4684
42922SOL     OW34728   5.224   1.942   2.087  0.1181 -0.5525  0.3140
42922SOL    HW134729   5.189   2.015   2.138  1.8483  0.0180  0.7302
42922SOL    HW234730   5.164   1.870   2.105 -1.8310  0.7879 -0.3591
42923SOL     OW34731  12.344   7.627   1.825 -0.8617  0.5719 -0.2765
42923SOL    HW134732  12.326   7.584   1.742 -0.7646 -1.4499  0.7110
42923SOL    HW234733  12.353   7.556   1.889  1.2789  1.9055  1.0662
42924SOL     OW34734   0.568   1.772   2.515 -0.6964 -0.1208 -0.3209
42924SOL    HW134735   0.478   1.749   2.490 -1.3089  0.1893  1.4373
42924SOL    HW234736   0.590   1.708   2.583 -0.9008  1.8381  1.6971
42925SOL     OW34737   2.330   0.954   2.311  0.1775 -0.0647  0.0149
42925SOL    HW134738   2.241   0.974   2.338  0.4931 -0.2496  1.2720
42925SOL    HW234739   2.372   1.039   2.299  0.1844  0.0313  0.6843
42926SOL     OW34740   6.665  10.918   7.557  0.3449  0.1197 -0.0581
42926SOL    HW134741   6.608  10.913   7.480  1.7151 -0.5921 -1.0895
42926SOL    HW234742   6.736  10.977   7.530  0.5921  0.2535  0.8465
42927SOL     OW34743   0.021   3.217   1.908  0.2384  0.3505 -0.5232
42927SOL    HW134744  -0.026   3.143   1.869  0.7909  0.5400 -1.5834
42927SOL    HW234745  -0.017   3.294   1.866 -0.2622  0.6839  0.4981
42928SOL     OW34746   4.530  10.180   2.281 -0.0481 -0.1319  0.3202
42928SOL    HW134747   4.574  10.111   2.231  0.0157 -0.6612  1.1000
42928SOL    HW234748   4.439  10.151   2.286 -0.0301 -0.1379  0.6173
42929SOL     OW34749   9.219   3.502   1.149 -0.0558  0.4663 -0.8048
42929SOL    HW134750   9.128   3.486   1.124  0.1712  0.8208 -1.8825
42929SOL    HW234751   9.263   3.418   1.134 -0.3376  0.0864  0.3993
42930SOL     OW34752   8.394   4.722   3.025 -0.6254  0.1949 -0.6607
42930SOL    HW134753   8.484   4.723   2.993 -0.0008  0.4066  1.0342
42930SOL    HW234754   8.356   4.644   2.985  0.7118 -0.6498 -0.3379
42931SOL     OW34755   8.182   1.152   4.171 -0.4902 -0.3563  0.0994
42931SOL    HW134756   8.169   1.226   4.231  0.1699  0.3884 -0.6416
42931SOL    HW234757   8.211   1.080   4.227 -0.0079  0.2896  0.7060
42932SOL     OW34758   1.924   0.988  11.607  0.1082  0.4768  0.4094
42932SOL    HW134759   1.962   0.943  11.683 -0.1341  1.1687  0.9488
42932SOL    HW234760   1.909   1.077  11.637 -1.0923  0.4584 -0.0827
42933SOL     OW34761   4.625   1.765   5.287  0.1042  0.4446  0.1187
42933SOL    HW134762   4.588   1.814   5.213 -0.4342 -1.1273 -0.7076
42933SOL    HW234763   4.566   1.783   5.360  0.4337  1.7285  0.0827
42934SOL     OW34764   0.642   7.502   5.071 -0.7243  0.6043  0.5244
42934SOL    HW134765   0.724   7.550   5.063 -1.1316  2.2921  4.1058
42934SOL    HW234766   0.586   7.539   5.003 -0.3764  4.0775  1.8768
42935SOL     OW34767   9.147  11.697   1.761 -0.0692 -0.0471 -0.1670
42935SOL    HW134768   9.066  11.655   1.732 -0.4315  0.5681 -0.0863
42935SOL    HW234769   9.137  11.705   1.856 -0.3610  0.9116 -0.2633
42936SOL     OW34770  10.880   8.341  11.334 -0.6361  0.1508 -0.5463
42936SOL    HW134771  10.898   8.354  11.427  1.6419 -1.6817 -0.6384
42936SOL    HW234772  10.929   8.410  11.290 -3.0410  2.0709 -0.4266
42937SOL     OW34773  12.178   8.988   9.620 -0.2788 -0.4886  0.2752
42937SOL    HW134774  12.095   8.981   9.667 -1.3262  0.2495 -1.3548
42937SOL    HW234775  12.164   8.937   9.540  0.4966  0.4091 -0.4488
42938SOL     OW34776   3.828   0.453  11.284  0.1321  0.1028 -0.1443
42938SOL    HW134777   3.823   0.492  11.197  0.0326  2.8430  0.9964
42938SOL    HW234778   3.762   0.500  11.335  1.0082 -0.5841  1.7162
42939SOL     OW34779   7.116  11.803  10.801  0.9818 -0.6346 -0.1509
42939SOL    HW134780   7.103  11.864  10.873 -1.4637  0.5082 -1.4333
42939SOL    HW234781   7.115  11.717  10.843 -2.3118 -0.1441  1.1120
42940SOL     OW34782  11.880  10.427   0.941 -0.4910  0.0421  0.0356
42940SOL    HW134783  11.864  10.519   0.925 -2.5251  0.0118  1.4760
42940SOL    HW234784  11.818  10.381   0.885  0.5549 -0.4672 -0.7234
42941SOL     OW34785   9.270   4.126   9.759  0.0426 -0.0218 -0.6712
42941SOL    HW134786   9.359   4.157   9.773  0.1554 -0.5170 -0.2841
42941SOL    HW234787   9.216   4.205   9.764  0.4183  0.2284 -0.5588
42942SOL     OW34788   8.304   5.406   8.914  0.2656  0.1512 -0.0870
42942SOL    HW134789   8.213   5.376   8.920 -0.3197  1.9713  0.9277
42942SOL    HW234790   8.356   5.331   8.942 -0.6215 -2.0317 -3.6475
42943SOL     OW34791   6.586   0.585  12.446 -0.7101 -0.2321  0.3305
42943SOL    HW134792   6.589   0.560  12.538 -0.3808 -2.8617 -0.3249
42943SOL    HW234793   6.493   0.604  12.430 -1.0435 -1.3357  0.8441
42944SOL     OW34794   2.149   7.484   6.797  0.0527  0.2893 -0.3298
42944SOL    HW134795   2.129   7.391   6.791 -1.4948  0.5538  0.2292
42944SOL    HW234796   2.116   7.522   6.716 -0.2271  0.4880 -0.1267
42945SOL     OW34797   3.518  12.391  11.192  0.3804 -0.0883  0.0207
42945SOL    HW134798   3.600  12.438  11.200  0.6725 -0.7580  1.3012
42945SOL    HW234799   3.491  12.404  11.102  2.2550 -0.4287 -0.6373
42946SOL     OW34800   1.812   6.375   8.008  0.0190 -0.1272  0.4570
42946SOL    HW134801   1.792   6.373   8.101 -1.8168  3.0736  0.2973
42946SOL    HW234802   1.850   6.289   7.989 -0.5469 -1.2828  3.8891
42947SOL     OW34803   1.267   3.070   4.955  0.2970  0.1248  0.3657
42947SOL    HW134804   1.295   3.046   5.044 -0.1028  1.7402  0.9589
42947SOL    HW234805   1.292   3.162   4.946 -1.6631  0.6252 -0.3739
42948SOL     OW34806  11.684   0.092   2.272 -0.2501 -0.1019  0.2657
42948SOL    HW134807  11.733   0.014   2.299 -1.2103 -0.6367  0.5189
42948SOL    HW234808  11.663   0.136   2.354  1.7161  1.3585  0.0539
42949SOL     OW34809   9.931  11.399  10.697 -0.0342  0.0387  0.3317
42949SOL    HW134810   9.862  11.421  10.759 -1.0629 -0.0038 -0.7513
42949SOL    HW234811   9.885  11.356  10.625  1.0547  0.5022 -0.6702
42950SOL     OW34812   7.336   0.981   4.002 -0.3043  0.5383 -0.1907
42950SOL    HW134813   7.407   0.924   4.033 -0.9265 -0.9335 -1.3252
42950SOL    HW234814   7.309   1.030   4.080  1.4935  0.6371  0.4056
42951SOL     OW34815   3.033   5.533  12.327 -0.0623 -0.3739  0.0733
42951SOL    HW134816   2.952   5.505  12.286 -0.1059 -0.7204  0.3936
42951SOL    HW234817   3.102   5.502  12.269 -0.1624  0.0670 -0.2864
42952SOL     OW34818   6.681   9.829   8.670  0.6740 -0.1173 -0.1366
42952SOL    HW134819   6.635   9.799   8.592 -0.0038 -0.5057  0.4026
42952SOL    HW234820   6.772   9.836   8.643  0.3806  0.1957 -1.0893
42953SOL     OW34821  12.462   2.693   8.743 -0.6182  0.6528  0.5747
42953SOL    HW134822  12.427   2.763   8.799 -0.1692  1.0880  0.3238
42953SOL    HW234823  12.552   2.720   8.725  0.3693 -1.1961  2.4146
42954SOL     OW34824   1.380   5.949   7.115  0.0955 -0.6502  0.4746
42954SOL    HW134825   1.321   5.893   7.165  0.0731 -1.6284 -0.5972
42954SOL    HW234826   1.468   5.921   7.142  0.1408 -2.4329 -1.2162
42955SOL     OW34827   4.609   7.889  12.268 -0.0790  0.5367 -0.5465
42955SOL    HW134828   4.681   7.826  12.276 -0.9532 -0.3901  0.1734
42955SOL    HW234829   4.653   7.972  12.249  1.1479 -0.1060 -0.6417
42956SOL     OW34830  10.169   4.913   6.703 -0.2049  0.3713 -0.0232
42956SOL    HW134831  10.181   5.007   6.694 -0.1565  0.4519  0.7850
42956SOL    HW234832  10.089   4.904   6.754  0.5471  0.0315  1.1584
42957SOL     OW34833   0.400   1.925   2.817 -0.6471 -0.3004  0.4229
42957SOL    HW134834   0.448   1.981   2.757 -1.0577  0.5069  0.8348
42957SOL    HW234835   0.468   1.878   2.866 -0.2758  0.5020  0.6910
42958SOL     OW34836   6.329   6.977   4.304  0.1105  0.4064 -0.5949
42958SOL    HW134837   6.322   7.056   4.356 -1.4010  0.3763 -0.6933
42958SOL    HW234838   6.421   6.952   4.308  0.3604  1.4653  0.4600
42959SOL     OW34839   9.060   6.591   5.890 -0.4280  0.2258 -0.1648
42959SOL    HW134840   9.050   6.678   5.929 -0.9567  1.7054 -3.2852
42959SOL    HW234841   8.973   6.569   5.857 -0.7541 -2.4226  2.1440
42960SOL     OW34842   4.805   2.086   0.286 -0.6351 -0.3544  0.1320
42960SOL    HW134843   4.722   2.101   0.242 -0.8450 -1.3076  0.1795
42960SOL    HW234844   4.853   2.168   0.275 -1.0528 -0.2537 -1.0335
42961SOL     OW34845  10.794   6.142  10.874 -0.0680  0.0792 -0.1265
42961SOL    HW134846  10.861   6.205  10.900  0.0030  0.4258 -1.1115
42961SOL    HW234847  10.842   6.064  10.847 -0.1173 -0.0547  0.1614
42962SOL     OW34848   9.885  10.128  11.233  0.0432  0.5221 -0.1716
42962SOL    HW134849   9.863  10.219  11.252  2.1867  0.9265  0.6557
42962SOL    HW234850   9.941  10.133  11.155 -0.2656 -0.1562 -0.4473
42963SOL     OW34851   0.949   9.607  11.820  0.2907 -0.1929  0.1738
42963SOL    HW134852   0.989   9.675  11.766 -1.8848  0.8384 -0.2818
42963SOL    HW234853   0.857   9.634  11.827 -0.1329 -1.8860  1.9322
42964SOL     OW34854   5.459  12.079  11.469  0.3083  0.5070 -0.4691
42964SOL    HW134855   5.427  12.029  11.394  0.8840  0.3145 -0.5942
42964SOL    HW234856   5.383  12.088  11.527 -0.0671  0.4157 -0.9465
42965SOL     OW34857   1.183   6.500   1.129  0.0405  0.4760 -0.1838
42965SOL    HW134858   1.105   6.475   1.178  0.4398 -0.7745 -0.1294
42965SOL    HW234859   1.253   6.446   1.167  0.9542  1.6356 -0.1592
42966SOL     OW34860   1.738   7.117  12.002 -0.1478 -0.0025 -0.5141
42966SOL    HW134861   1.670   7.123  12.069 -0.1014  2.2703 -0.6009
42966SOL    HW234862   1.694   7.075  11.928 -1.0568  0.1892 -0.0998
42967SOL     OW34863   5.206   5.869   0.533 -0.1306 -0.3470 -0.6203
42967SOL    HW134864   5.221   5.963   0.529 -2.9291  0.2539  0.5280
42967SOL    HW234865   5.202   5.840   0.442  1.8347  0.3930 -0.9757
42968SOL     OW34866   3.668   8.114   6.720  0.5486  0.1516 -0.5805
42968SOL    HW134867   3.750   8.136   6.762  0.6996 -2.1243  0.4939
42968SOL    HW234868   3.640   8.033   6.763 -0.4884 -1.0407 -3.2643
42969SOL     OW34869   2.206   2.093   6.015  0.3418  0.1956 -0.5234
42969SOL    HW134870   2.295   2.129   6.010  0.9342 -1.3065 -1.4619
42969SOL    HW234871   2.171   2.128   6.097  1.3953  1.6839 -0.6598
42970SOL     OW34872   4.794   5.621   4.036 -1.1593  0.2593  0.0568
42970SOL    HW134873   4.875   5.672   4.036 -0.8375 -0.2338 -0.5249
42970SOL    HW234874   4.724   5.685   4.051 -0.6607  0.6774  0.6354
42971SOL     OW34875   6.260   0.542  10.927 -0.2773  0.2403 -0.0863
42971SOL    HW134876   6.347   0.528  10.890  0.4065  2.3110  0.5946
42971SOL    HW234877   6.212   0.588  10.858 -0.5207 -0.0248 -0.0958
42972SOL     OW34878   8.521   9.261  11.327 -0.0529  0.3670 -0.2731
42972SOL    HW134879   8.613   9.235  11.320  0.3562  1.3377  0.9954
42972SOL    HW234880   8.517   9.312  11.408 -1.9275 -0.5508  0.2850
42973SOL     OW34881   1.935   6.547   0.975 -0.3290 -0.1873 -0.0843
42973SOL    HW134882   1.865   6.570   0.913 -1.4854 -2.9870  0.0042
42973SOL    HW234883   1.892   6.550   1.060  0.5447  1.0266  0.3408
42974SOL     OW34884   7.970   7.752   9.482  0.0951 -0.5452 -0.4296
42974SOL    HW134885   8.024   7.720   9.411 -0.9321 -1.2099 -0.9427
42974SOL    HW234886   7.969   7.681   9.546  1.2480  0.1575  0.4114
42975SOL     OW34887   9.786   1.983  12.309  0.0239 -0.0813  0.0013
42975SOL    HW134888   9.790   2.011  12.217 -0.7937  1.1351  0.3086
42975SOL    HW234889   9.794   1.888  12.305  0.5017 -0.0184 -1.2887
42976SOL     OW34890   4.025   8.197   8.168  0.1224 -0.4686 -0.2747
42976SOL    HW134891   4.042   8.136   8.240  1.4761 -1.3012 -1.2464
42976SOL    HW234892   3.929   8.203   8.163 -0.0007 -1.2894  0.8516
42977SOL     OW34893   6.306  10.838   0.919  0.4595 -0.0325 -0.1919
42977SOL    HW134894   6.262  10.921   0.933  1.0561  0.0749  1.2268
42977SOL    HW234895   6.239  10.780   0.883 -0.2265  0.7651 -0.2076
42978SOL     OW34896   9.693  10.914   1.542  0.4825 -0.1187 -0.2329
42978SOL    HW134897   9.708  11.007   1.561 -0.7846 -0.3642  2.3431
42978SOL    HW234898   9.633  10.914   1.467  1.0787  1.0803 -0.7443
42979SOL     OW34899   8.514  11.638   5.739  0.0432 -0.2062 -0.4065
42979SOL    HW134900   8.577  11.566   5.736 -0.5210 -0.6847 -0.8294
42979SOL    HW234901   8.544  11.693   5.811  1.4568  0.0391 -1.1483
42980SOL     OW34902   7.593   4.280   9.670  0.1856 -0.3385 -0.2893
42980SOL    HW134903   7.527   4.347   9.691 -0.4860 -1.8063  2.8294
42980SOL    HW234904   7.542   4.207   9.634  0.1689 -1.0806  1.1625
42981SOL     OW34905   1.129   5.220   7.346  0.1968 -0.6297  0.4883
42981SOL    HW134906   1.171   5.135   7.360  1.8089  0.2302  1.1524
42981SOL    HW234907   1.175   5.257   7.271  1.9514  1.0725  2.2978
42982SOL     OW34908  11.206  12.219   4.058 -0.1583 -0.7577  0.1648
42982SOL    HW134909  11.138  12.263   4.111  0.3638  0.0511  0.1868
42982SOL    HW234910  11.212  12.272   3.979 -1.1220 -2.1150 -0.8634
42983SOL     OW34911   1.407   3.189   5.968  0.7113 -0.9137  1.0256
42983SOL    HW134912   1.450   3.191   5.883  0.2738  1.5504  0.8202
42983SOL    HW234913   1.352   3.110   5.965  1.4990 -1.4475 -0.5231
42984SOL     OW34914   5.547  10.232   0.253  0.6440 -0.3181 -0.1127
42984SOL    HW134915   5.468  10.273   0.288  2.1980  3.3963 -0.4182
42984SOL    HW234916   5.612  10.243   0.323  1.8970  0.5592 -1.3414
42985SOL     OW34917   8.815   8.394   5.130  0.6619  0.1583  0.3651
42985SOL    HW134918   8.785   8.327   5.068  1.9165 -0.1371  0.0420
42985SOL    HW234919   8.770   8.473   5.103 -0.5001 -0.4454  0.4668
42986SOL     OW34920   7.434  10.039   0.074  0.6498  0.1052  0.0018
42986SOL    HW134921   7.489  10.110   0.107  0.5421  0.6410 -0.9444
42986SOL    HW234922   7.427  10.055  -0.020  0.4516 -1.0431 -0.1995
42987SOL     OW34923   1.593   9.305  10.287 -0.2023 -1.1755  0.3188
42987SOL    HW134924   1.677   9.319  10.242 -0.1723  0.1118  0.7484
42987SOL    HW234925   1.538   9.378  10.258 -0.2613 -0.4522  2.1607
42988SOL     OW34926  11.349   9.765   5.275  0.6099  0.6864  0.5261
42988SOL    HW134927  11.424   9.797   5.226 -0.0998  2.4689  0.5457
42988SOL    HW234928  11.381   9.686   5.319  1.7355 -0.0319 -1.4477
42989SOL     OW34929   5.480   1.521   6.071 -0.0057 -0.2021 -0.8606
42989SOL    HW134930   5.390   1.489   6.074 -0.8221  1.9416 -1.0249
42989SOL    HW234931   5.494   1.543   5.979  1.1030 -1.5040 -1.0428
42990SOL     OW34932   6.706   1.051   0.507 -0.0088  0.0859  0.2911
42990SOL    HW134933   6.687   0.966   0.547  0.6819  0.1394  0.7363
42990SOL    HW234934   6.628   1.104   0.525 -1.3030 -1.0102 -1.6378
42991SOL     OW34935   9.584  10.449   4.395  0.0917 -0.2288  0.1852
42991SOL    HW134936   9.665  10.446   4.343  1.0198  2.8794  1.2424
42991SOL    HW234937   9.520  10.489   4.336 -0.2562 -1.1130 -0.0683
42992SOL     OW34938  10.021   3.819  11.124  0.8705  0.0680  0.7972
42992SOL    HW134939   9.951   3.877  11.094  1.0912  0.7067  1.4640
42992SOL    HW234940  10.101   3.870  11.111  1.3552 -1.0346 -0.9232
42993SOL     OW34941  10.847   8.839   6.197  1.0234  0.0849 -0.3367
42993SOL    HW134942  10.912   8.803   6.258 -0.3598 -0.7114  0.7242
42993SOL    HW234943  10.771   8.782   6.207  0.1479  0.9988 -1.5444
42994SOL     OW34944   1.592  11.687   1.592  0.3036 -0.0081 -0.1254
42994SOL    HW134945   1.635  11.770   1.576 -0.0831  0.2562  0.1762
42994SOL    HW234946   1.545  11.700   1.675 -0.5858 -0.1807 -0.5870
42995SOL     OW34947   7.079  11.882   2.735 -0.3028 -0.1862 -0.0396
42995SOL    HW134948   7.035  11.798   2.744  3.7141 -2.4984  0.3682
42995SOL    HW234949   7.077  11.901   2.641 -1.4713 -0.5199 -0.1000
42996SOL     OW34950   0.125   0.963  10.632  0.0536 -0.2701 -0.4418
42996SOL    HW134951   0.128   0.977  10.727 -0.7862  0.9358 -0.5611
42996SOL    HW234952   0.166   0.878  10.618  0.5460 -0.2843  0.9648
42997SOL     OW34953   3.391   3.930   5.944 -0.5339 -0.1129 -0.2728
42997SOL    HW134954   3.413   3.914   5.852 -3.1872  1.8124 -1.3461
42997SOL    HW234955   3.450   4.000   5.970  1.4783 -1.8479  0.1613
42998SOL     OW34956   3.789   4.172   4.508 -0.2277  0.4002 -0.0098
42998SOL    HW134957   3.711   4.154   4.561  0.2906  2.3708  1.5204
42998SOL    HW234958   3.806   4.265   4.521  0.4384  0.8005 -3.0245
42999SOL     OW34959   0.742   2.539   9.718  0.0780  0.1019  0.3962
42999SOL    HW134960   0.657   2.547   9.762 -0.3115 -0.4036 -0.2663
42999SOL    HW234961   0.764   2.629   9.694  0.0500  0.3223  1.1539
43000SOL     OW34962   9.965   0.053   4.591 -0.4658  0.0858 -0.0599
43000SOL    HW134963   9.994   0.128   4.539 -1.6983 -0.3153 -1.4214
43000SOL    HW234964   9.906   0.092   4.657  1.2653  0.6228  1.2329
43001SOL     OW34965  11.766   1.813   0.316  0.0847  0.1836 -0.4012
43001SOL    HW134966  11.855   1.795   0.287 -0.1781 -0.4267 -0.8642
43001SOL    HW234967  11.730   1.870   0.248  0.4494  1.2967  0.3213
43002SOL     OW34968  10.166   2.125   3.254  0.8988 -0.0883 -0.6715
43002SOL    HW134969  10.202   2.072   3.183  1.0078 -1.6812  0.5159
43002SOL    HW234970  10.101   2.069   3.295 -0.3307  1.4110 -0.4963
43003SOL     OW34971   8.483   2.470  11.263 -0.2875  0.3866  0.6396
43003SOL    HW134972   8.575   2.458  11.240 -0.3880 -0.2381  0.5676
43003SOL    HW234973   8.471   2.418  11.343 -0.3053  1.3580  1.2920
43004SOL     OW34974   5.579   4.418   5.833 -0.3473  0.4063 -0.3384
43004SOL    HW134975   5.580   4.398   5.926  1.0883 -2.7091 -0.8983
43004SOL    HW234976   5.647   4.486   5.823  0.4496 -0.1971  0.7213
43005SOL     OW34977  12.165   6.660   0.232 -0.2931 -0.5087  0.3971
43005SOL    HW134978  12.092   6.625   0.281  1.2098 -1.9609  1.7098
43005SOL    HW234979  12.230   6.590   0.230  0.9704  0.6084 -0.9630
43006SOL     OW34980  10.546   4.827  10.295  0.6358  0.1509  0.7599
43006SOL    HW134981  10.603   4.755  10.322  1.1342 -0.3312 -1.4073
43006SOL    HW234982  10.493   4.792  10.224 -1.2481  1.0952  1.6063
43007SOL     OW34983   6.503   5.984  10.486  0.5764  0.0730 -0.1410
43007SOL    HW134984   6.447   5.912  10.457 -0.5409  0.7624  0.2164
43007SOL    HW234985   6.542   6.018  10.406  0.8868 -0.7288 -0.3423
43008SOL     OW34986  10.427   2.170   0.753  0.2964  0.6056  0.0741
43008SOL    HW134987  10.476   2.219   0.820  2.1304 -1.4541  0.3541
43008SOL    HW234988  10.408   2.086   0.795 -1.7912  0.6228 -0.7544
43009SOL     OW34989   7.576   6.041   4.254 -0.5509 -0.1292 -0.3247
43009SOL    HW134990   7.599   6.015   4.342  1.2764 -1.3271 -1.1084
43009SOL    HW234991   7.480   6.048   4.255 -0.5839 -0.4693  1.6151
43010SOL     OW34992  11.869  10.609   3.289 -0.1396  0.2249 -0.1678
43010SOL    HW134993  11.858  10.576   3.200 -0.0078 -2.0460  0.6179
43010SOL    HW234994  11.802  10.677   3.297 -0.7777 -0.1812 -1.6947
43011SOL     OW34995   4.372   3.831   5.550  0.3961 -0.1120 -0.0442
43011SOL    HW134996   4.336   3.830   5.639  1.0963  2.2627  0.3428
43011SOL    HW234997   4.454   3.783   5.556  0.2322 -0.3283  0.5052
43012SOL     OW34998   9.530   4.194   5.226 -0.3887 -0.7260  0.6592
43012SOL    HW134999   9.594   4.139   5.180  1.4279  0.9390  1.0409
43012SOL    HW235000   9.566   4.203   5.314 -0.2370  1.5562  0.4291
43013SOL     OW35001   8.643   7.177   4.150 -0.1124  0.1383  0.2308
43013SOL    HW135002   8.736   7.174   4.172 -0.3612  0.0123  1.3459
43013SOL    HW235003   8.620   7.086   4.132 -0.0423  0.1545  0.0613
43014SOL     OW35004   8.719   3.340  11.943  0.6199  0.3155  0.6906
43014SOL    HW135005   8.806   3.302  11.948  1.1446  1.5509  1.4886
43014SOL    HW235006   8.663   3.279  11.991  1.0658 -0.4115  0.3017
43015SOL     OW35007   6.827   5.399   2.005  0.7247 -0.6897  0.0836
43015SOL    HW135008   6.741   5.421   1.968  1.5475  0.4525 -1.2370
43015SOL    HW235009   6.848   5.313   1.969  0.4621 -0.6359 -0.2041
43016SOL     OW35010  10.750  11.505  10.359  0.9001 -0.3068 -0.4048
43016SOL    HW135011  10.721  11.464  10.441 -0.4212  0.2511 -0.5721
43016SOL    HW235012  10.840  11.531  10.377  0.7464 -0.4916  0.7674
43017SOL     OW35013  12.119  11.531   2.127 -0.2072 -0.3386  0.0881
43017SOL    HW135014  12.202  11.486   2.112  0.3536  0.7448 -0.2216
43017SOL    HW235015  12.137  11.587   2.203 -1.2813 -1.5659  1.2950
43018SOL     OW35016  11.100   8.103   4.808  0.6425 -0.2901 -0.0992
43018SOL    HW135017  11.009   8.102   4.777  0.4856 -1.8988  0.3550
43018SOL    HW235018  11.111   8.191   4.844  0.0525  0.8243 -2.3766
43019SOL     OW35019   7.496   4.656   2.569 -0.6057 -0.9442  0.1285
43019SOL    HW135020   7.423   4.717   2.573 -0.6822 -1.0855  3.7355
43019SOL    HW235021   7.491   4.607   2.651  2.8160 -1.8162 -0.0331
43020SOL     OW35022   5.165  11.179   0.735 -0.0971 -0.3855  0.0334
43020SOL    HW135023   5.232  11.184   0.802 -0.5383 -1.0609  0.5398
43020SOL    HW235024   5.088  11.144   0.780 -0.9630  0.8549 -0.4033
43021SOL     OW35025   3.010   2.399   6.728  0.1828  0.1796 -0.7626
43021SOL    HW135026   2.947   2.444   6.672  1.1725 -1.6437 -3.5635
43021SOL    HW235027   2.972   2.312   6.742  2.4506 -1.4843 -3.7029
43022SOL     OW35028   9.025   3.656   3.952  0.0953  0.1350  0.1557
43022SOL    HW135029   9.010   3.693   4.039 -0.0365  0.1164  0.1410
43022SOL    HW235030   9.082   3.581   3.967 -0.7806 -0.5136  0.3517
43023SOL     OW35031   0.443   2.611   2.711 -0.6214 -0.4501 -0.1647
43023SOL    HW135032   0.433   2.694   2.664  0.5035 -0.4898 -0.5068
43023SOL    HW235033   0.360   2.566   2.698 -0.8188  0.1223 -0.9621
43024SOL     OW35034   5.698   0.216   9.827 -0.0887 -0.2578 -0.1965
43024SOL    HW135035   5.746   0.217   9.910  0.5610 -1.3546 -0.5452
43024SOL    HW235036   5.727   0.136   9.783 -3.1477 -1.6642  0.0879
43025SOL     OW35037   2.607   1.833   5.777  0.4441 -0.2055 -0.0281
43025SOL    HW135038   2.678   1.805   5.834 -0.3110 -0.7170  0.6871
43025SOL    HW235039   2.527   1.815   5.827 -0.3512 -2.1210 -1.8204
43026SOL     OW35040   7.403   2.913  10.426  0.3853  0.4198 -0.0355
43026SOL    HW135041   7.358   2.934  10.344  1.7241 -0.7168 -1.1044
43026SOL    HW235042   7.351   2.956  10.494 -0.2941  2.0936 -1.5450
43027SOL     OW35043   1.918   3.198   8.452  0.8878 -0.0310  0.1846
43027SOL    HW135044   1.931   3.142   8.529  0.1837  0.3273  0.5769
43027SOL    HW235045   1.988   3.174   8.393  0.2977 -1.7024  0.1144
43028SOL     OW35046   2.133  10.878  10.231  0.4308  0.0778  0.3363
43028SOL    HW135047   2.129  10.875  10.327 -0.8560 -0.0097  0.2895
43028SOL    HW235048   2.118  10.970  10.209  0.0333 -0.0245  0.1860
43029SOL     OW35049   0.658   6.449   0.902  0.1091 -0.4978 -0.0815
43029SOL    HW135050   0.641   6.403   0.984  1.9348 -0.3249  0.4368
43029SOL    HW235051   0.585   6.512   0.895  0.0549 -0.3277  1.5412
43030SOL     OW35052   8.439  12.323   7.708 -0.1648  0.0833  0.1951
43030SOL    HW135053   8.438  12.259   7.780 -2.3277  0.4175  0.5559
43030SOL    HW235054   8.424  12.271   7.629 -0.4257 -0.0324  0.3175
43031SOL     OW35055   6.757   0.803   7.005  0.6105 -0.0597 -0.1438
43031SOL    HW135056   6.843   0.834   6.979  0.1030  2.0992  0.4742
43031SOL    HW235057   6.699   0.833   6.935  0.1538 -0.0392  0.2373
43032SOL     OW35058   8.145   6.019  11.957 -0.7962  0.0353 -0.1113
43032SOL    HW135059   8.126   5.990  12.046 -0.3918 -0.3038 -0.1311
43032SOL    HW235060   8.193   6.101  11.968 -0.2690 -0.2817  0.0059
43033SOL     OW35061  10.707   0.338   1.204  0.0137  0.0168  0.0716
43033SOL    HW135062  10.663   0.418   1.176 -2.1175 -1.0557  0.1252
43033SOL    HW235063  10.701   0.280   1.129  0.9157 -0.3599  0.2710
43034SOL     OW35064   9.818   0.090   8.688 -0.0719  0.3893  0.5198
43034SOL    HW135065   9.854   0.169   8.727 -1.6599  1.0935  0.6587
43034SOL    HW235066   9.741   0.070   8.741 -0.5512 -0.3760 -0.4252
43035SOL     OW35067   5.188   1.041   3.149  0.2843 -0.6567  0.0176
43035SOL    HW135068   5.127   1.001   3.211 -0.1554  0.8079  0.5771
43035SOL    HW235069   5.134   1.062   3.073  0.6598 -1.7138 -0.5668
43036SOL     OW35070  11.319  12.143   8.266 -0.1306 -0.0820  0.0456
43036SOL    HW135071  11.402  12.188   8.257 -0.0187  0.1224  1.6975
43036SOL    HW235072  11.253  12.212   8.263 -0.1154 -0.0497  0.3797
43037SOL     OW35073   3.236  11.023   7.684  0.6711 -0.8267 -0.6615
43037SOL    HW135074   3.167  11.025   7.751  1.5468  0.8560  0.2351
43037SOL    HW235075   3.313  10.991   7.730  1.2681  0.2909 -0.8493
43038SOL     OW35076  11.867   2.585   4.371 -0.4157 -0.5790  0.3461
43038SOL    HW135077  11.896   2.668   4.333  0.0963 -1.2698 -0.8494
43038SOL    HW235078  11.947   2.531   4.374 -0.6759 -0.9274  1.4027
43039SOL     OW35079   9.930   5.778  12.198 -0.2140 -0.5428 -0.0491
43039SOL    HW135080   9.870   5.783  12.124 -0.8774  0.2804  0.5265
43039SOL    HW235081  10.014   5.809  12.162 -0.8291  1.0836 -0.1694
43040SOL     OW35082   4.895   6.133   6.737  0.4756  0.0978 -0.1144
43040SOL    HW135083   4.847   6.057   6.770  0.9697 -0.1454  0.0402
43040SOL    HW235084   4.831   6.180   6.684  0.6215 -1.2948 -1.6017
43041SOL     OW35085   7.634   6.138   6.236  0.0461 -0.1033  0.4424
43041SOL    HW135086   7.640   6.079   6.311 -0.2218  1.6084  1.8869
43041SOL    HW235087   7.671   6.221   6.268 -1.5711  1.1579 -0.7861
43042SOL     OW35088   8.075   2.349   7.684 -0.2303  0.0995 -0.4727
43042SOL    HW135089   8.117   2.350   7.598  0.9956  1.0668  0.0942
43042SOL    HW235090   8.142   2.385   7.743  0.1659 -3.4033  1.4642
43043SOL     OW35091   9.059   2.501   5.631  0.0380  0.0548 -0.3204
43043SOL    HW135092   9.054   2.501   5.536 -0.8818 -1.6015 -0.2971
43043SOL    HW235093   9.098   2.417   5.654  2.1415  1.2185  0.7337
43044SOL     OW35094   3.059   5.969   5.081  0.0239  0.1112 -0.0601
43044SOL    HW135095   3.050   5.874   5.076  0.1984  0.1449 -1.3857
43044SOL    HW235096   3.014   6.002   5.003  0.4586  1.0798  0.0809
43045SOL     OW35097   2.076  10.032   2.380  0.2467  0.1098  0.0861
43045SOL    HW135098   2.150  10.012   2.323  0.4542  1.6683 -0.2243
43045SOL    HW235099   2.073  10.127   2.384 -1.1143  0.0637  0.9334
43046SOL     OW35100   9.682   0.500   5.400  0.4215 -0.1403 -0.1324
43046SOL    HW135101   9.637   0.584   5.392  0.5819  0.0708  0.9778
43046SOL    HW235102   9.742   0.497   5.326  1.0604  1.1405  0.3148
43047SOL     OW35103   9.596   9.488   3.606 -0.7317 -0.0562  0.2532
43047SOL    HW135104   9.628   9.564   3.654  1.6653  0.6365 -2.1398
43047SOL    HW235105   9.528   9.523   3.549  0.3857  0.4024 -0.8633
43048SOL     OW35106   6.145   0.927   8.661 -0.3276 -0.3267  0.2995
43048SOL    HW135107   6.182   1.014   8.650 -0.9032  0.2249  2.3911
43048SOL    HW235108   6.051   0.941   8.672 -0.2276 -1.0027  2.4354
43049SOL     OW35109   0.285   7.230   6.789  0.1516 -0.2230  0.0436
43049SOL    HW135110   0.225   7.156   6.799 -0.0870 -0.3526 -1.8932
43049SOL    HW235111   0.236   7.306   6.822 -1.0127 -0.3755 -1.2424
43050SOL     OW35112   6.831   6.745   0.133  0.3090  0.1161 -0.3118
43050SOL    HW135113   6.797   6.745   0.043  0.8474 -0.8889 -0.5283
43050SOL    HW235114   6.758   6.776   0.186 -0.3173 -0.1565 -0.9922
43051SOL     OW35115   3.726   5.187  11.902  0.0810  0.3041  0.4416
43051SOL    HW135116   3.723   5.215  11.993 -0.8607  0.9213  0.2345
43051SOL    HW235117   3.712   5.267  11.851  0.0533 -0.1163 -0.2253
43052SOL     OW35118   2.862   7.058   6.390  1.1461 -0.2293 -0.0833
43052SOL    HW135119   2.937   7.111   6.417  0.1298  0.8374  0.7716
43052SOL    HW235120   2.800   7.121   6.353  0.9636 -1.1879 -1.5040
43053SOL     OW35121   6.722   7.090  12.456 -0.1892  0.0801 -0.2657
43053SOL    HW135122   6.730   6.996  12.470 -0.5208  0.0106 -0.5401
43053SOL    HW235123   6.771   7.107  12.375  0.9355  0.3402  0.4489
43054SOL     OW35124   3.013   2.374  11.534  0.0964  0.5350 -0.0355
43054SOL    HW135125   3.064   2.395  11.456  0.0554  0.7824  0.0046
43054SOL    HW235126   3.077   2.335  11.594 -0.3924 -2.4153 -1.2590
43055SOL     OW35127   5.755   6.809  10.974  0.4421 -0.2717 -0.1670
43055SOL    HW135128   5.771   6.829  11.066  1.7244  0.9352 -0.6208
43055SOL    HW235129   5.813   6.867  10.926  0.7866 -1.8017 -1.7259
43056SOL     OW35130   0.640   4.405   6.743 -0.1503  0.3806 -0.1419
43056SOL    HW135131   0.580   4.364   6.806 -0.1665  0.5302 -0.0578
43056SOL    HW235132   0.724   4.407   6.788 -0.2265  0.7505 -0.0102
43057SOL     OW35133   7.357   1.723   1.161  0.0966 -0.0576  0.0093
43057SOL    HW135134   7.396   1.803   1.195 -1.1370 -0.1673  1.7762
43057SOL    HW235135   7.409   1.652   1.200  0.3439 -0.1532 -0.4826
43058SOL     OW35136  11.542  12.091  11.351  0.5137 -0.0881  0.4119
43058SOL    HW135137  11.632  12.065  11.333  0.4227  0.4695 -0.9931
43058SOL    HW235138  11.523  12.054  11.437  1.4991 -1.6901 -0.0201
43059SOL     OW35139   4.642  12.017   0.694  0.1317  0.9221 -0.2240
43059SOL    HW135140   4.596  11.934   0.697  1.1816  0.3418  0.4329
43059SOL    HW235141   4.733  11.996   0.716  0.3494  2.2805  0.3442
43060SOL     OW35142   6.902   3.464   0.223 -0.1194 -0.2421  0.1103
43060SOL    HW135143   6.979   3.519   0.206 -0.0573 -0.3378  0.0840
43060SOL    HW235144   6.935   3.391   0.274  0.1481 -1.2222 -1.3840
43061SOL     OW35145   2.492   4.891   5.268 -0.3196 -0.0510  0.2453
43061SOL    HW135146   2.510   4.806   5.227 -0.8211  0.1911 -0.4925
43061SOL    HW235147   2.512   4.877   5.361  2.1310 -0.2369 -0.2313
43062SOL     OW35148   6.003   3.664  10.702 -0.5014  0.1055 -0.3670
43062SOL    HW135149   5.985   3.686  10.794 -0.4337  0.6427 -0.4805
43062SOL    HW235150   6.098   3.668  10.694 -0.4968 -0.0940 -0.4248
43063SOL     OW35151  10.398   6.129   1.056  0.0868 -0.1578  0.0918
43063SOL    HW135152  10.316   6.178   1.062 -1.5440 -2.4072 -1.5904
43063SOL    HW235153  10.450   6.177   0.991 -0.5420  0.5104  0.0677
43064SOL     OW35154   6.267  12.184   3.271 -0.5572 -0.2568 -0.1603
43064SOL    HW135155   6.231  12.238   3.201 -1.6209  0.1615  0.6669
43064SOL    HW235156   6.260  12.240   3.349  0.2929 -0.8280  0.3295
43065SOL     OW35157   1.416   7.327   0.809  0.3100 -1.0204 -0.2371
43065SOL    HW135158   1.382   7.409   0.846  0.7302 -0.8725 -0.1789
43065SOL    HW235159   1.399   7.334   0.715  2.5082  0.1947 -0.5857
43066SOL     OW35160   9.550  11.009  11.312 -0.4955  0.1876  0.0183
43066SOL    HW135161   9.473  11.067  11.307 -0.2431  0.5996  0.7269
43066SOL    HW235162   9.610  11.043  11.246 -0.1861  0.9985  0.7008
43067SOL     OW35163   0.722   7.143   6.618  0.4441  0.4168  0.5687
43067SOL    HW135164   0.744   7.196   6.541 -1.1167 -0.1895 -0.3558
43067SOL    HW235165   0.678   7.203   6.677 -0.2973  0.4372  0.0173
43068SOL     OW35166   8.370  11.274   1.335  0.0626  0.6643 -0.2879
43068SOL    HW135167   8.315  11.350   1.356 -0.0081  0.0097  2.2434
43068SOL    HW235168   8.318  11.199   1.364  0.2043 -0.3880 -2.5720
43069SOL     OW35169   4.629   8.899   6.509  0.3610 -0.1636 -0.5778
43069SOL    HW135170   4.588   8.952   6.440 -0.8442  1.3898  1.2200
43069SOL    HW235171   4.565   8.830   6.527 -0.0666  0.3867  0.0579
43070SOL     OW35172   1.575   2.633   8.823  0.5070  0.5108 -0.1559
43070SOL    HW135173   1.638   2.578   8.777 -0.6243 -1.6166  0.7436
43070SOL    HW235174   1.514   2.662   8.755  0.7923  0.2050 -0.5413
43071SOL     OW35175   9.363   2.144  11.714  0.2478 -0.4290  0.0788
43071SOL    HW135176   9.270   2.155  11.737  0.5816  0.4841  1.0341
43071SOL    HW235177   9.378   2.210  11.646  0.0585 -1.0067 -0.5425
43072SOL     OW35178   8.365   7.387  11.741 -0.2158  0.3404 -0.4054
43072SOL    HW135179   8.395   7.429  11.821 -0.4242 -0.6073  0.1840
43072SOL    HW235180   8.269   7.386  11.748 -0.1904 -2.2525  0.7104
43073SOL     OW35181   3.208  10.320   7.544 -0.1159 -0.2956  0.0912
43073SOL    HW135182   3.194  10.278   7.629  0.2681  1.2518  0.9647
43073SOL    HW235183   3.198  10.413   7.562  0.3506  0.0864 -1.4948
43074SOL     OW35184  11.830   2.473   3.169  0.3174  0.0010  0.2699
43074SOL    HW135185  11.894   2.446   3.103 -0.3054 -0.3036 -0.2242
43074SOL    HW235186  11.882   2.516   3.237  1.3120 -2.1100  0.9341
43075SOL     OW35187   6.799   4.262   9.724  0.2347 -1.0598 -0.5753
43075SOL    HW135188   6.765   4.182   9.764 -0.1647 -0.5312  0.1657
43075SOL    HW235189   6.810   4.323   9.797  0.0290 -0.2625 -1.1897
43076SOL     OW35190   1.017   7.091   7.797 -0.3388  0.1623  0.7226
43076SOL    HW135191   0.924   7.095   7.776  0.0065 -1.5612 -1.5358
43076SOL    HW235192   1.060   7.128   7.720  0.8785  0.1721  1.3787
43077SOL     OW35193  11.443   7.166   6.214  0.0121 -0.0774  0.1152
43077SOL    HW135194  11.356   7.157   6.251 -0.4799  1.6853 -0.5574
43077SOL    HW235195  11.439   7.120   6.130 -0.8896  1.6910 -0.8419
43078SOL     OW35196   8.071   4.352   3.592 -0.1443 -0.3837  0.2153
43078SOL    HW135197   8.153   4.400   3.596  1.0552 -2.3989  1.2297
43078SOL    HW235198   8.019   4.400   3.527  0.8541  2.3233  1.2514
43079SOL     OW35199   8.493   4.193   0.527 -0.5765 -0.3835  0.4378
43079SOL    HW135200   8.548   4.265   0.560 -0.6299  0.2675 -0.8419
43079SOL    HW235201   8.521   4.117   0.577  0.6802  0.1847  0.6385
43080SOL     OW35202   2.663   9.944   1.522  0.1311  0.6093  0.0027
43080SOL    HW135203   2.590   9.969   1.579  0.2878 -0.0053  0.4971
43080SOL    HW235204   2.658  10.003   1.447 -0.1274  1.3908  0.6237
43081SOL     OW35205   9.356  10.439   8.750  0.1694  0.4604  0.2351
43081SOL    HW135206   9.265  10.413   8.766  0.2623 -0.4164 -0.5288
43081SOL    HW235207   9.383  10.384   8.676  1.0715  1.2813 -0.0597
43082SOL     OW35208  11.261   1.573   5.089  0.5054  0.3029 -0.0209
43082SOL    HW135209  11.247   1.661   5.124 -1.9027  0.1856 -0.5763
43082SOL    HW235210  11.216   1.515   5.150 -0.0286 -0.3065 -0.9752
43083SOL     OW35211   5.101   8.893   5.250  0.4070 -0.1087 -0.1689
43083SOL    HW135212   5.079   8.920   5.339  0.0295 -2.1570  0.3971
43083SOL    HW235213   5.132   8.974   5.208  0.5602  0.9085  1.7786
43084SOL     OW35214  11.027   4.772   3.601 -0.6017  0.8169 -0.4578
43084SOL    HW135215  11.034   4.680   3.578  1.8739  0.8394 -0.1404
43084SOL    HW235216  10.960   4.807   3.542  0.0246 -0.7159 -2.1739
43085SOL     OW35217   0.013   2.704   9.930 -0.4375 -0.3545  0.5714
43085SOL    HW135218  -0.015   2.629   9.878  1.7142 -2.0903  1.7160
43085SOL    HW235219  -0.039   2.698  10.010  0.5207 -1.4062  1.1566
43086SOL     OW35220   9.938  11.553   9.339  0.1280 -0.4176 -0.5209
43086SOL    HW135221   9.852  11.588   9.314  0.1602  0.3177  0.3829
43086SOL    HW235222   9.967  11.609   9.410  2.6642  1.1522 -2.6357
43087SOL     OW35223   9.132   8.005   0.193  0.2746  0.6899 -0.3441
43087SOL    HW135224   9.200   8.055   0.148  0.2193 -0.0667 -1.2807
43087SOL    HW235225   9.167   7.916   0.199 -1.4896 -0.2619 -2.8206
43088SOL     OW35226   6.126   7.432   3.133  0.0351 -0.1668  0.2382
43088SOL    HW135227   6.201   7.424   3.074  0.2729 -2.1873  0.7653
43088SOL    HW235228   6.163   7.459   3.217  0.1974 -1.2010  0.5083
43089SOL     OW35229   9.858   6.303   6.527  0.5581  0.6930 -0.3537
43089SOL    HW135230   9.781   6.359   6.524  1.3599  1.9091  0.7805
43089SOL    HW235231   9.932   6.363   6.527  1.4671 -0.3821  0.4676
43090SOL     OW35232  11.366   5.634   7.747  0.1409 -0.1660 -0.2416
43090SOL    HW135233  11.308   5.694   7.794 -1.0996 -2.1690  0.9488
43090SOL    HW235234  11.384   5.564   7.810  0.3330 -1.7832 -2.0015
43091SOL     OW35235   7.520  10.391   6.755  0.7109  0.1247 -0.2393
43091SOL    HW135236   7.598  10.353   6.716  1.1874 -0.2354  1.0054
43091SOL    HW235237   7.449  10.333   6.728  1.2520 -0.9998  0.6368
43092SOL     OW35238   9.194   6.709   5.378 -0.5614 -0.2850  0.0288
43092SOL    HW135239   9.171   6.801   5.387 -0.9705 -0.3041 -0.8044
43092SOL    HW235240   9.189   6.674   5.467 -1.8571  0.1552  0.1391
43093SOL     OW35241   0.445   1.134   8.847  0.2687  0.4540 -0.2320
43093SOL    HW135242   0.484   1.170   8.927  0.8193 -2.0038  0.6740
43093SOL    HW235243   0.375   1.196   8.825 -0.0615  1.0977  2.2910
43094SOL     OW35244   1.147  10.728   9.109  0.4219  0.7175 -0.4750
43094SOL    HW135245   1.086  10.745   9.038  1.0726 -0.9981 -1.5019
43094SOL    HW235246   1.121  10.642   9.144  0.2542  1.4117  1.2281
43095SOL     OW35247  11.462   6.378   0.756  0.0785 -0.1417  0.8406
43095SOL    HW135248  11.462   6.300   0.812 -1.0010  0.1845  1.3146
43095SOL    HW235249  11.386   6.428   0.784 -1.6422 -0.8340 -2.1389
43096SOL     OW35250   0.836  10.694   4.224  0.0132 -0.2175  0.4044
43096SOL    HW135251   0.788  10.705   4.306  0.5606 -1.3772  0.8967
43096SOL    HW235252   0.919  10.654   4.249  0.9876  1.0953 -0.5197
43097SOL     OW35253   8.431   0.244   2.688 -0.9276  0.1595 -0.2074
43097SOL    HW135254   8.384   0.166   2.660 -0.2849 -0.7835  1.2589
43097SOL    HW235255   8.496   0.259   2.620 -1.2643 -0.3918 -0.6558
43098SOL     OW35256  11.167  10.495   4.123  0.0903 -0.5927 -0.2815
43098SOL    HW135257  11.086  10.446   4.114 -0.2274  0.1697 -2.0133
43098SOL    HW235258  11.204  10.497   4.035  1.3624  0.1474  0.2320
43099SOL     OW35259   9.129  12.422   3.180  0.2297  0.1907 -0.1182
43099SOL    HW135260   9.197  12.487   3.163 -0.4689  0.5792 -1.5877
43099SOL    HW235261   9.140  12.401   3.273  0.2464  2.6837  0.5384
43100SOL     OW35262   6.657   4.666   3.267  0.3197  0.0932 -0.7107
43100SOL    HW135263   6.661   4.757   3.296  0.4498  0.6750 -2.4548
43100SOL    HW235264   6.743   4.630   3.288 -0.0622  0.0528  0.8964
43101SOL     OW35265   7.871  10.125   1.859 -0.2689  0.0455 -0.3428
43101SOL    HW135266   7.821  10.156   1.784  1.7102  0.1130 -1.7228
43101SOL    HW235267   7.910  10.205   1.896 -0.9628 -0.0266  0.5792
43102SOL     OW35268  11.377  11.221   2.322  0.3507  0.0956  0.3351
43102SOL    HW135269  11.355  11.273   2.245 -0.2459  2.3421  1.8965
43102SOL    HW235270  11.473  11.214   2.321  0.4392  1.2294  0.0549
43103SOL     OW35271   7.145   6.193   8.432 -0.4151 -0.1665 -0.3779
43103SOL    HW135272   7.134   6.223   8.342 -0.7610  0.2880 -0.1882
43103SOL    HW235273   7.057   6.166   8.460 -0.1534 -1.1778 -0.4735
43104SOL     OW35274   7.067   7.715   8.804 -0.1523  0.0809 -0.1647
43104SOL    HW135275   7.144   7.692   8.856  0.3348 -1.4634 -1.4624
43104SOL    HW235276   7.081   7.806   8.779  2.4752 -0.7783 -2.2748
43105SOL     OW35277   3.540  12.112   7.435 -0.2031  0.3813 -0.0899
43105SOL    HW135278   3.527  12.067   7.519  0.5281 -0.5033 -0.4413
43105SOL    HW235279   3.510  12.202   7.452 -2.0141 -0.2808  0.5311
43106SOL     OW35280   0.514   9.311  10.222 -0.6215 -0.1408 -0.5520
43106SOL    HW135281   0.524   9.403  10.196  0.6371 -0.5697 -1.6898
43106SOL    HW235282   0.420   9.295  10.216 -1.2254  1.7104  2.0727
43107SOL     OW35283   1.983   1.302   8.685  0.0737 -0.1609  0.2745
43107SOL    HW135284   1.939   1.344   8.611 -1.4272 -2.5425 -0.3208
43107SOL    HW235285   1.911   1.268   8.739  1.1476  0.7464  2.4017
43108SOL     OW35286   0.394   4.740   4.360  0.1989  0.4831 -0.0481
43108SOL    HW135287   0.457   4.695   4.303  0.0131  1.1790 -0.8115
43108SOL    HW235288   0.403   4.833   4.337 -0.6038  0.6601  0.3347
43109SOL     OW35289   4.621   5.136   2.935  0.2240  0.2057 -0.1435
43109SOL    HW135290   4.557   5.195   2.975  0.1574 -0.0024  0.0611
43109SOL    HW235291   4.680   5.113   3.007  0.8267  0.7921 -0.4432
43110SOL     OW35292   1.453   7.970   2.545 -0.0881  0.4191  0.0002
43110SOL    HW135293   1.528   7.980   2.604 -0.8116 -0.9272  1.2207
43110SOL    HW235294   1.394   7.912   2.592 -1.5964  0.8924 -1.2419
43111SOL     OW35295  11.818   9.052  10.143 -0.1053 -0.2471  0.1517
43111SOL    HW135296  11.846   8.978  10.090  0.1048  0.4672 -0.7614
43111SOL    HW235297  11.791   9.119  10.079 -0.5461  0.3643  0.9525
43112SOL     OW35298   4.990   6.016   5.257  0.4427 -0.0383 -0.0232
43112SOL    HW135299   4.991   6.103   5.297  0.2779 -0.0570  0.0228
43112SOL    HW235300   5.075   6.009   5.214  0.2318  0.3773 -0.5261
43113SOL     OW35301   3.712   4.756   0.689  0.3770  0.4642 -0.2526
43113SOL    HW135302   3.724   4.803   0.771  1.8493 -0.9704  0.4200
43113SOL    HW235303   3.724   4.822   0.621 -3.3008  2.2367  0.5813
43114SOL     OW35304   9.107   4.118  12.279 -0.3624 -0.0954  0.0401
43114SOL    HW135305   9.074   4.186  12.337 -0.0324 -0.0932  0.2279
43114SOL    HW235306   9.161   4.062  12.335 -2.0454 -1.5559  0.2977
43115SOL     OW35307   9.306  10.593   2.261 -0.1136 -0.3523  0.0421
43115SOL    HW135308   9.289  10.559   2.174  2.3242  1.0123 -1.0592
43115SOL    HW235309   9.260  10.676   2.264 -0.3124 -0.4636  0.1257
43116SOL     OW35310   7.533   9.959   3.991 -0.8108  0.3115 -0.3172
43116SOL    HW135311   7.621   9.953   4.028 -1.6461 -2.0457  1.6190
43116SOL    HW235312   7.546   9.958   3.897  1.2449 -0.0787 -0.0754
43117SOL     OW35313   8.712  10.574   9.537  0.0865 -0.1095 -0.4220
43117SOL    HW135314   8.703  10.540   9.625 -0.3379 -0.9440 -0.7791
43117SOL    HW235315   8.804  10.559   9.514  0.3449  0.6544  0.0901
43118SOL     OW35316   9.627   3.767   0.426 -0.0583  0.1092  0.4337
43118SOL    HW135317   9.679   3.696   0.390 -0.9363 -0.7242  0.7580
43118SOL    HW235318   9.689   3.839   0.437  0.3926  0.1804 -2.0210
43119SOL     OW35319   2.485   5.663  11.527  0.2310 -0.1087  0.0804
43119SOL    HW135320   2.445   5.750  11.530  0.3721  0.0174 -1.1594
43119SOL    HW235321   2.572   5.675  11.564  0.5042  0.4458 -0.7131
43120SOL     OW35322   5.148   2.318   0.010  0.5262  0.6002  0.0359
43120SOL    HW135323   5.235   2.299   0.043 -0.1669  1.0435  2.2547
43120SOL    HW235324   5.153   2.296  -0.084  2.6585 -0.4726  0.3329
43121SOL     OW35325   1.968   0.098   2.986  0.0162 -0.2677 -0.4594
43121SOL    HW135326   1.957   0.055   3.071 -0.6989 -0.8331 -0.8212
43121SOL    HW235327   1.904   0.055   2.929  1.1038 -0.5342 -1.5288
43122SOL     OW35328   3.791   6.812   3.526  0.2761 -0.3836 -0.1871
43122SOL    HW135329   3.832   6.838   3.443 -2.3697  1.0718 -1.1752
43122SOL    HW235330   3.699   6.796   3.503 -0.7276  0.7805  2.5727
43123SOL     OW35331   8.337   3.604   1.120  0.0243 -0.2464  0.3725
43123SOL    HW135332   8.250   3.573   1.147  0.0169 -0.3418  0.2370
43123SOL    HW235333   8.320   3.658   1.043  0.2397 -1.4344 -0.5195
43124SOL     OW35334   8.244   3.543   4.682  0.0032  0.3640  0.1867
43124SOL    HW135335   8.220   3.634   4.665 -1.8919  0.2257  1.6911
43124SOL    HW235336   8.198   3.493   4.615  0.7098  0.4657 -0.3848
43125SOL     OW35337   7.877   4.232   3.425  0.1171  0.4018 -0.9418
43125SOL    HW135338   7.861   4.163   3.490  1.2583  1.9789  1.1379
43125SOL    HW235339   7.953   4.201   3.376 -0.1691 -0.3872 -0.9064
43126SOL     OW35340   4.814   6.876   3.419 -0.0491  0.6644  0.5534
43126SOL    HW135341   4.864   6.929   3.357 -1.0060  0.4635 -0.4297
43126SOL    HW235342   4.878   6.818   3.459  0.5563  0.6103 -0.4593
43127SOL     OW35343   4.339   6.346   9.487  0.5120  0.4083  0.3861
43127SOL    HW135344   4.372   6.256   9.493  0.6339  0.3309 -1.1709
43127SOL    HW235345   4.255   6.339   9.443  0.2539  1.0195  0.7555
43128SOL     OW35346   1.386  11.648   7.097  0.1828  0.1980  0.6178
43128SOL    HW135347   1.367  11.737   7.065  1.4980  0.5403  0.7266
43128SOL    HW235348   1.426  11.662   7.183 -0.6025 -0.5743  1.1275
43129SOL     OW35349   6.307   8.683  11.118  0.1739 -0.2130 -0.5078
43129SOL    HW135350   6.372   8.636  11.065  2.0300  1.0592  0.5428
43129SOL    HW235351   6.356   8.717  11.192 -2.1169 -0.9695  1.5168
43130SOL     OW35352   7.349   1.184   4.992  0.2065 -0.1043  0.0160
43130SOL    HW135353   7.351   1.231   4.909 -1.4069 -0.8192 -0.4755
43130SOL    HW235354   7.355   1.253   5.059 -2.6958  0.9520 -0.6631
43131SOL     OW35355  12.008   2.237  11.088  0.2330  0.5494 -0.5346
43131SOL    HW135356  11.952   2.305  11.053 -0.3668  0.2661 -0.1363
43131SOL    HW235357  12.036   2.270  11.174 -0.8893 -0.1360  0.1130
43132SOL     OW35358   8.298   3.005   6.625 -0.4404  0.2990  0.2819
43132SOL    HW135359   8.264   2.924   6.664 -1.0502 -1.0686 -2.7332
43132SOL    HW235360   8.224   3.040   6.574  0.6463  1.1022 -0.8092
43133SOL     OW35361   4.317   4.545   8.400 -0.3623 -0.2666 -0.1167
43133SOL    HW135362   4.363   4.617   8.355 -0.9102  0.6674  0.7681
43133SOL    HW235363   4.347   4.466   8.355 -0.8179  0.5986 -2.0641
43134SOL     OW35364   9.567   9.836   5.359  0.0057  0.1136  0.1123
43134SOL    HW135365   9.504   9.890   5.312  1.0561  1.0530 -0.2472
43134SOL    HW235366   9.521   9.809   5.439  0.1234  3.3652  1.4306
43135SOL     OW35367   6.057  12.354  12.375  0.0407 -0.2579 -0.1572
43135SOL    HW135368   6.010  12.433  12.400  1.1375  1.2520 -2.4853
43135SOL    HW235369   6.124  12.344  12.443  1.6130  2.4539 -1.1593
43136SOL     OW35370   0.192   0.840   8.685 -0.4686  0.1665 -0.6027
43136SOL    HW135371   0.216   0.864   8.775  1.4893 -1.6609 -0.5191
43136SOL    HW235372   0.104   0.805   8.692 -0.5225  0.4916  0.5310
43137SOL     OW35373  10.070  10.581   5.545  0.8671  0.3068  0.0189
43137SOL    HW135374  10.050  10.668   5.509 -1.5596 -0.3098 -0.2710
43137SOL    HW235375  10.129  10.542   5.480  0.6098  1.1044 -0.7231
43138SOL     OW35376   7.535   9.712   1.924  0.1207  0.4598  0.0238
43138SOL    HW135377   7.541   9.649   1.853 -0.2555  0.0369  0.3632
43138SOL    HW235378   7.592   9.677   1.993 -1.0705 -0.1999  0.7153
43139SOL     OW35379   3.685   1.505   9.282 -0.2978 -0.0615 -0.2903
43139SOL    HW135380   3.683   1.444   9.208  1.1896 -0.1143 -0.3163
43139SOL    HW235381   3.606   1.559   9.271 -0.2915 -0.3069 -1.7159
43140SOL     OW35382   3.110   1.972  10.254 -0.1921  0.6445  0.0011
43140SOL    HW135383   3.056   2.051  10.244 -0.8281  0.4630  1.5831
43140SOL    HW235384   3.194   2.005  10.286  1.1564  1.0389 -3.5640
43141SOL     OW35385  11.332   1.445  12.040  0.0111  0.2506  0.1129
43141SOL    HW135386  11.384   1.367  12.059  1.2776  1.0128 -0.0957
43141SOL    HW235387  11.243   1.422  12.066  0.4823 -1.0391  0.6437
43142SOL     OW35388   9.184   1.071   9.293  0.5097  0.4558 -0.4552
43142SOL    HW135389   9.252   1.004   9.297  1.4467  1.3083 -1.3041
43142SOL    HW235390   9.119   1.035   9.233 -0.4651 -0.9225  1.3612
43143SOL     OW35391   0.156   5.490  12.406 -1.1795 -0.2508 -0.5257
43143SOL    HW135392   0.228   5.477  12.345 -1.1493 -0.3600 -0.4672
43143SOL    HW235393   0.167   5.579  12.438 -0.2395 -0.7302  0.5617
43144SOL     OW35394  11.787   9.378   1.587  0.0574 -0.2004  1.0565
43144SOL    HW135395  11.830   9.369   1.502  1.7275 -0.2309  1.8690
43144SOL    HW235396  11.702   9.417   1.567  0.2654 -0.5508 -0.6521
43145SOL     OW35397  10.117   2.688   1.840  0.3771 -0.0906  0.2799
43145SOL    HW135398  10.081   2.771   1.873  1.7841  0.5460  0.2910
43145SOL    HW235399  10.040   2.635   1.819 -0.6052  1.8722 -1.4538
43146SOL     OW35400   0.415   3.425   6.026  0.1497 -0.5286 -0.0164
43146SOL    HW135401   0.399   3.346   5.974  1.5946 -0.9516  0.1621
43146SOL    HW235402   0.330   3.444   6.066 -0.1185 -2.2814  0.3453
43147SOL     OW35403   9.567   2.028   5.094  0.3359  0.4522  0.4930
43147SOL    HW135404   9.650   2.001   5.053 -0.8314 -0.8386 -1.1666
43147SOL    HW235405   9.593   2.061   5.180  2.4873 -0.8535  0.4336
43148SOL     OW35406   3.773   7.820   3.613  0.0768 -0.5432 -0.0683
43148SOL    HW135407   3.792   7.878   3.687  0.5894 -1.1897  0.3154
43148SOL    HW235408   3.702   7.864   3.566 -0.5667 -0.3424  1.0591
43149SOL     OW35409   0.521   2.999   6.015  0.1522  0.4960  0.6074
43149SOL    HW135410   0.594   3.018   5.956 -0.4337  1.2815  0.1222
43149SOL    HW235411   0.465   3.076   6.010 -1.8818 -0.9614 -0.7500
43150SOL     OW35412   7.613   5.272   8.463 -0.1813 -0.0791  0.6803
43150SOL    HW135413   7.557   5.341   8.498 -1.1927  0.3646 -1.6615
43150SOL    HW235414   7.575   5.191   8.496 -1.6332  0.2796 -0.0256
43151SOL     OW35415  10.517  11.748  12.403 -0.4912  0.3913  0.8287
43151SOL    HW135416  10.445  11.695  12.438 -0.2649 -0.7592 -0.3966
43151SOL    HW235417  10.496  11.760  12.311  0.8287  0.1195  0.4712
43152SOL     OW35418   8.072   1.525   4.170  0.0541  0.0241 -0.2351
43152SOL    HW135419   8.080   1.466   4.246  0.7733  0.8352  0.3407
43152SOL    HW235420   8.015   1.478   4.110 -0.3296 -0.7576  0.7027
43153SOL     OW35421   8.157   2.985   9.220 -0.0665  0.3614 -0.2996
43153SOL    HW135422   8.161   2.969   9.315  0.3531  0.1418 -0.3512
43153SOL    HW235423   8.131   3.076   9.212  1.2069  0.7715  0.0408
43154SOL     OW35424   7.887   8.698   0.577 -0.6898 -1.2538 -0.9162
43154SOL    HW135425   7.952   8.630   0.596  1.3095  0.7928  0.1127
43154SOL    HW235426   7.810   8.672   0.627  1.1958 -1.0854  2.4069
43155SOL     OW35427   8.894  10.267   6.451 -0.5515 -0.0147 -0.6747
43155SOL    HW135428   8.932  10.238   6.368  0.1180 -0.1979 -0.3086
43155SOL    HW235429   8.872  10.359   6.437 -0.0621  0.0643 -0.9255
43156SOL     OW35430   2.211   3.075   7.862 -0.1666 -0.0587 -0.2436
43156SOL    HW135431   2.259   3.068   7.779  0.2370  0.3573 -0.0429
43156SOL    HW235432   2.195   2.984   7.887  1.6003 -0.2469  0.3195
43157SOL     OW35433   7.765  12.450   8.324  0.4907 -0.3990 -0.3447
43157SOL    HW135434   7.855  12.450   8.359  0.2349 -0.3234  0.3201
43157SOL    HW235435   7.731  12.537   8.345  0.6337 -0.0278 -1.5857
43158SOL     OW35436   8.438  10.857   2.962  0.3392 -0.1436  0.2004
43158SOL    HW135437   8.457  10.873   2.869  1.0700 -1.5370  0.0799
43158SOL    HW235438   8.403  10.768   2.964  0.6652 -0.2571  1.3133
43159SOL     OW35439   7.052   5.635  10.522 -0.2637  0.5416 -0.2900
43159SOL    HW135440   6.958   5.632  10.538 -0.3015  1.8951 -0.1292
43159SOL    HW235441   7.061   5.676  10.436  0.1959  1.2855  0.0990
43160SOL     OW35442  12.313   0.301   7.949 -0.2555  0.1006 -0.3469
43160SOL    HW135443  12.335   0.293   8.042  1.1387  2.6272 -0.3627
43160SOL    HW235444  12.266   0.384   7.942 -2.0695 -0.9464 -1.6950
43161SOL     OW35445   6.972   9.291   6.772 -0.5778 -0.2794 -0.2855
43161SOL    HW135446   6.973   9.325   6.683 -0.6705  1.2657  0.2686
43161SOL    HW235447   6.894   9.236   6.776 -1.7719  1.3248 -0.5948
43162SOL     OW35448  11.177   6.973   3.399  0.1820 -0.2244  0.2429
43162SOL    HW135449  11.230   6.979   3.478  0.9665  1.5412 -0.3603
43162SOL    HW235450  11.202   6.890   3.359  1.2822 -0.1831  0.8178
43163SOL     OW35451   6.047   9.371   9.541  0.1592  0.8030 -0.1428
43163SOL    HW135452   6.010   9.288   9.510 -2.0539  2.1922 -1.4880
43163SOL    HW235453   6.130   9.346   9.581  0.7793 -1.7892 -2.6876
43164SOL     OW35454   4.762   8.059   3.376 -0.4281 -0.3499  0.0602
43164SOL    HW135455   4.773   7.969   3.345  0.3845 -0.6386  1.1170
43164SOL    HW235456   4.681   8.089   3.335  0.1672 -0.9733 -1.6507
43165SOL     OW35457   7.157   2.885   3.189 -0.4638 -0.1273 -0.3619
43165SOL    HW135458   7.167   2.857   3.280  0.7399 -0.3443 -0.5466
43165SOL    HW235459   7.162   2.804   3.138  0.2603  0.1323 -0.7129
43166SOL     OW35460   8.466   5.816  11.245  0.2350  0.7602  0.4758
43166SOL    HW135461   8.398   5.796  11.181 -1.0365 -2.6204  2.5786
43166SOL    HW235462   8.433   5.892  11.292 -1.1173  0.4277  0.1236
43167SOL     OW35463   7.746   1.484  10.470  0.3551  0.3234 -0.4637
43167SOL    HW135464   7.686   1.501  10.543  0.6381  0.6198 -0.2991
43167SOL    HW235465   7.702   1.415  10.419  0.7665 -0.8458  0.7040
43168SOL     OW35466   7.523   5.498   8.553 -1.0217 -0.2406 -0.5610
43168SOL    HW135467   7.455   5.563   8.533 -0.3005  0.9285  0.5712
43168SOL    HW235468   7.583   5.544   8.613 -0.4673 -1.9586  0.2712
43169SOL     OW35469   2.104   2.727   2.449  0.0089  0.0641  0.4457
43169SOL    HW135470   2.149   2.805   2.484 -0.7961  0.4351  0.6856
43169SOL    HW235471   2.160   2.698   2.377  1.4150 -0.3793  1.6580
43170SOL     OW35472   1.797   5.337   5.644 -0.2555 -0.2795  0.1616
43170SOL    HW135473   1.779   5.253   5.601 -0.9672 -0.1194  0.1347
43170SOL    HW235474   1.887   5.328   5.677  0.0356 -0.6767 -0.7066
43171SOL     OW35475   0.876  11.155   3.158 -0.1535  0.0374  0.0022
43171SOL    HW135476   0.938  11.112   3.218  0.3087 -0.7296 -0.9977
43171SOL    HW235477   0.931  11.210   3.102 -0.2122 -1.4383 -1.5722
43172SOL     OW35478   9.096   8.821   1.654 -0.1146 -0.2223  0.2969
43172SOL    HW135479   9.035   8.814   1.727 -1.8431  4.1908 -0.4322
43172SOL    HW235480   9.174   8.861   1.691 -0.3563  0.4838  0.0615
43173SOL     OW35481   9.106   9.595  10.742 -0.1112 -0.3261 -0.3149
43173SOL    HW135482   9.064   9.640  10.815 -0.1613  1.1124 -1.2034
43173SOL    HW235483   9.146   9.517  10.782 -1.4333 -0.3907  0.9644
43174SOL     OW35484   1.601  11.515  12.042  0.2326  0.1027 -0.0965
43174SOL    HW135485   1.624  11.463  12.118  0.1296  1.6152  1.0089
43174SOL    HW235486   1.517  11.480  12.013 -1.0741  1.2218  2.1495
43175SOL     OW35487   5.883   6.436   0.470 -0.4513  0.0799  0.6651
43175SOL    HW135488   5.894   6.372   0.400 -2.5311  0.5235 -0.1382
43175SOL    HW235489   5.881   6.520   0.425  1.8998  0.7594  1.6708
43176SOL     OW35490  10.346   4.137   1.155 -0.2598  0.0114 -0.2294
43176SOL    HW135491  10.352   4.046   1.185 -1.1395 -0.3023 -0.9436
43176SOL    HW235492  10.296   4.132   1.074  0.9386  0.9806 -1.0705
43177SOL     OW35493   7.417   8.330   3.181  0.7561  0.1962  0.1814
43177SOL    HW135494   7.424   8.236   3.167 -0.1834 -0.0199  1.0276
43177SOL    HW235495   7.447   8.343   3.271  1.1744  0.7507 -0.0304
43178SOL     OW35496  11.288   4.873   4.198 -0.0409 -0.0712  0.2003
43178SOL    HW135497  11.233   4.949   4.216  0.3762  0.3014 -0.1017
43178SOL    HW235498  11.332   4.855   4.281 -0.0395  0.0936  0.2343
43179SOL     OW35499  10.488   7.831   1.047 -0.6363 -0.4005  0.7133
43179SOL    HW135500  10.477   7.924   1.027  0.9039 -0.1986  0.6715
43179SOL    HW235501  10.481   7.826   1.142 -0.1817 -0.1550  0.7613
43180SOL     OW35502   3.169   7.515   4.924 -0.0888 -0.1455  0.7357
43180SOL    HW135503   3.197   7.434   4.882 -0.9983 -0.3644  0.5224
43180SOL    HW235504   3.121   7.487   5.002 -1.0453  0.1424  0.2677
43181SOL     OW35505   6.516  12.424   5.448  0.2804  0.6980 -0.1585
43181SOL    HW135506   6.500  12.378   5.365 -1.3210  0.2605  0.3444
43181SOL    HW235507   6.606  12.402   5.471 -0.1687 -1.6028 -0.3160
43182SOL     OW35508   9.449   3.791   0.224 -0.4940  0.4237  0.3222
43182SOL    HW135509   9.429   3.702   0.193  0.2009  0.8377 -1.4133
43182SOL    HW235510   9.495   3.777   0.307 -0.4048 -0.8363  0.0858
43183SOL     OW35511   1.243   5.082   2.771 -0.1263  0.2177  0.3838
43183SOL    HW135512   1.209   4.995   2.748  2.5963 -0.4757 -1.6202
43183SOL    HW235513   1.240   5.131   2.688 -0.7483  1.7630  1.2819
43184SOL     OW35514   1.254   3.473   1.543  0.1048  0.3867 -0.3088
43184SOL    HW135515   1.330   3.531   1.550  1.4351 -1.0270 -2.0282
43184SOL    HW235516   1.256   3.423   1.625  1.2267  0.1884 -0.4319
43185SOL     OW35517   6.913   4.588   3.274 -0.7205 -0.6009  0.2587
43185SOL    HW135518   6.939   4.650   3.342  0.8280 -2.1666  1.1613
43185SOL    HW235519   6.990   4.578   3.219 -0.9520 -1.6819  0.1006
43186SOL     OW35520   5.978   7.209   3.146 -0.0361  0.4163  0.0971
43186SOL    HW135521   6.046   7.275   3.132 -0.3601  0.2825 -2.8986
43186SOL    HW235522   5.896   7.258   3.139 -0.2811 -0.1938 -2.3203
43187SOL     OW35523  12.312   7.760   8.264 -0.1043 -0.4523 -0.2279
43187SOL    HW135524  12.396   7.775   8.221 -0.3043 -3.6193 -2.0402
43187SOL    HW235525  12.329   7.777   8.356  1.5104  2.4164 -0.9375
43188SOL     OW35526   3.177   6.704  11.120  0.7629 -0.0530  0.2869
43188SOL    HW135527   3.084   6.702  11.095  0.7018 -1.9286  0.5056
43188SOL    HW235528   3.176   6.726  11.213  0.5625  0.3253  0.1960
43189SOL     OW35529   9.682  11.956  10.438 -0.0699 -0.2007 -0.2605
43189SOL    HW135530   9.598  11.971  10.395 -0.7598  0.7615  1.3768
43189SOL    HW235531   9.725  12.042  10.437  1.5105 -0.9254 -2.2304
43190SOL     OW35532   4.510   3.195   0.577  0.1095  0.2781  0.2388
43190SOL    HW135533   4.583   3.224   0.522 -0.9325  1.7115 -0.4774
43190SOL    HW235534   4.524   3.239   0.661  1.9078 -2.2071  1.3702
43191SOL     OW35535  10.066   1.510   7.079 -0.3413  0.1023  0.5121
43191SOL    HW135536  10.003   1.472   7.018 -0.0944 -0.1234  0.4016
43191SOL    HW235537  10.021   1.508   7.164 -0.2125 -0.7112  0.5635
43192SOL     OW35538   0.439  11.875   2.259  0.2017  0.0309  0.5941
43192SOL    HW135539   0.499  11.939   2.298  0.5628  0.9907 -1.3995
43192SOL    HW235540   0.474  11.790   2.285  1.2631  0.6064  1.1132
43193SOL     OW35541   3.664   0.604   2.721  0.1169  0.0898 -0.4641
43193SOL    HW135542   3.592   0.554   2.758 -0.4543  2.6081  2.1805
43193SOL    HW235543   3.621   0.673   2.670  0.7247  0.3594 -0.6186
43194SOL     OW35544   2.108  10.632   3.379  0.5014 -0.2483  0.8114
43194SOL    HW135545   2.098  10.705   3.440  1.5611  0.0878  0.6029
43194SOL    HW235546   2.033  10.575   3.397 -0.3462  0.8964  0.9641
43195SOL     OW35547   9.387  10.736   3.731 -0.3872  0.1897  0.2703
43195SOL    HW135548   9.475  10.765   3.753 -0.1868 -0.1637 -0.0511
43195SOL    HW235549   9.399  10.674   3.659 -0.9245  0.4010 -0.0136
43196SOL     OW35550  10.441   2.246   6.276  0.2314  0.7048  0.2805
43196SOL    HW135551  10.464   2.237   6.183  1.1491  1.5615  0.4022
43196SOL    HW235552  10.353   2.283   6.275  1.0128  2.6975 -0.3149
43197SOL     OW35553   4.235  12.031   6.608  0.0819  0.2175 -0.0039
43197SOL    HW135554   4.214  12.010   6.517 -1.7524  0.6275  0.2942
43197SOL    HW235555   4.274  12.119   6.604  1.9223 -0.5834 -0.5762
43198SOL     OW35556   5.378   1.402  11.776 -0.5996  0.0281  0.1724
43198SOL    HW135557   5.292   1.434  11.749 -1.2606 -0.6480  1.3571
43198SOL    HW235558   5.377   1.309  11.753 -0.7669 -0.3091  1.4135
43199SOL     OW35559  11.454   3.639   6.976 -0.7141 -1.2415 -0.0977
43199SOL    HW135560  11.477   3.729   7.002 -0.9946 -1.0509 -0.5041
43199SOL    HW235561  11.366   3.626   7.013 -0.2842 -1.7028  0.8051
43200SOL     OW35562  11.069   4.296   0.060  0.7556 -0.2879 -0.0181
43200SOL    HW135563  11.039   4.236   0.128  0.3463 -0.8633 -0.6985
43200SOL    HW235564  11.131   4.354   0.105 -1.3506  0.9705  1.4600
43201SOL     OW35565   6.786   5.013   2.099  0.3079  0.2588  0.4735
43201SOL    HW135566   6.789   4.942   2.163 -2.1895 -0.2392  0.1288
43201SOL    HW235567   6.712   5.067   2.127 -1.6535 -0.6152 -2.5802
43202SOL     OW35568   9.379   8.600  10.063 -0.5054 -0.6649  0.2814
43202SOL    HW135569   9.356   8.693  10.067 -2.4801 -1.0118 -1.3484
43202SOL    HW235570   9.390   8.574  10.155 -2.0132  0.7031  0.8936
43203SOL     OW35571   5.188   6.485  11.310  0.0322  0.1512 -0.0168
43203SOL    HW135572   5.277   6.519  11.306 -0.7776  2.4176 -0.2652
43203SOL    HW235573   5.157   6.488  11.219 -0.8864  1.2283  0.2979
43204SOL     OW35574   8.960   0.945   2.579  0.3107 -0.0147  0.1603
43204SOL    HW135575   9.044   0.968   2.618 -0.4745  0.8968  1.3943
43204SOL    HW235576   8.932   0.866   2.625 -0.0410  0.3562  0.5970
43205SOL     OW35577   1.055   7.025   0.344  0.9692  0.7347 -0.1501
43205SOL    HW135578   1.061   6.935   0.310 -0.1052  0.9644 -1.0142
43205SOL    HW235579   1.124   7.072   0.299  0.5835  0.6676 -0.8242
43206SOL     OW35580   8.985   9.678   7.933  0.4243  0.2197 -0.2421
43206SOL    HW135581   8.987   9.714   8.021  1.1733 -1.5173  0.4860
43206SOL    HW235582   8.892   9.677   7.909 -0.0539 -1.3870  1.4644
43207SOL     OW35583  12.058  10.567   2.789  0.1254  0.4927 -0.6155
43207SOL    HW135584  12.031  10.659   2.796 -0.6583  0.2976 -0.9377
43207SOL    HW235585  11.993  10.520   2.841  0.8358  0.1702 -0.0179
43208SOL     OW35586  11.477   9.050   3.497  0.8749  0.4140 -0.4916
43208SOL    HW135587  11.481   9.146   3.488 -2.0400  0.8320  1.3340
43208SOL    HW235588  11.496   9.034   3.590 -1.2548 -0.4459 -0.1423
43209SOL     OW35589   1.661  11.876   4.858  0.1494  0.0154  0.0635
43209SOL    HW135590   1.626  11.812   4.796 -0.7319  0.2840  0.2673
43209SOL    HW235591   1.584  11.911   4.902  0.6714  0.7383  0.4227
43210SOL     OW35592   0.321   7.367   3.884 -0.0554 -0.6562  0.6375
43210SOL    HW135593   0.264   7.362   3.962 -0.4097  1.1025  0.5494
43210SOL    HW235594   0.260   7.371   3.810  0.0880  1.7287  0.5698
43211SOL     OW35595   1.651   1.188   9.836  0.4965  0.3607  0.4637
43211SOL    HW135596   1.740   1.157   9.852 -0.0651 -0.8342  1.4533
43211SOL    HW235597   1.621   1.140   9.759  1.1821  1.8538 -0.7950
43212SOL     OW35598   9.977  11.815   9.672 -0.1082  0.3570 -0.1727
43212SOL    HW135599  10.025  11.736   9.650  1.1148  0.9998  0.0737
43212SOL    HW235600   9.966  11.861   9.588  0.2545  0.4856 -0.1555
43213SOL     OW35601   0.401   1.811   0.645  0.3770 -0.2069  0.1393
43213SOL    HW135602   0.477   1.769   0.685  0.9027  0.7804  0.1871
43213SOL    HW235603   0.328   1.791   0.704  1.0494  0.8268  1.3548
43214SOL     OW35604   6.818   9.880  12.093 -0.2203 -0.0410  0.1778
43214SOL    HW135605   6.788   9.969  12.074  0.4734  0.6298  2.0315
43214SOL    HW235606   6.767   9.825  12.034 -1.8230  1.4374  0.1060
43215SOL     OW35607   6.851   4.763   4.914  0.0693  0.0718  0.3254
43215SOL    HW135608   6.916   4.811   4.965  0.8846 -1.4239  0.7649
43215SOL    HW235609   6.802   4.831   4.868 -0.3903  1.4702  2.6825
43216SOL     OW35610   3.010   3.990   3.510 -0.1564 -0.1461  0.4544
43216SOL    HW135611   3.010   3.925   3.580  1.3681 -1.2866 -0.5525
43216SOL    HW235612   3.003   3.938   3.430  1.6408  0.8612 -0.4028
43217SOL     OW35613  10.889   2.572   0.934 -0.0441  0.1391  0.9444
43217SOL    HW135614  10.947   2.642   0.966 -0.7567  0.9068  0.5886
43217SOL    HW235615  10.947   2.497   0.924  1.1269  1.1635 -0.3831
43218SOL     OW35616   5.921   0.745  11.246 -0.0614 -0.1484  0.9443
43218SOL    HW135617   5.825   0.752  11.252 -0.0641  0.6791  0.1003
43218SOL    HW235618   5.939   0.751  11.152  0.7949 -0.7911  1.0592
43219SOL     OW35619   9.718   5.303  10.676 -0.0308 -0.4084 -0.0068
43219SOL    HW135620   9.705   5.337  10.588 -1.4181 -1.0219 -0.0616
43219SOL    HW235621   9.741   5.380  10.729 -2.0352  0.4766 -0.3432
43220SOL     OW35622   7.457  12.428  11.126  0.1862 -0.2106 -0.7108
43220SOL    HW135623   7.414  12.388  11.050  0.7485 -0.5722 -0.8470
43220SOL    HW235624   7.509  12.499  11.090  1.7732 -1.4162 -0.9037
43221SOL     OW35625   0.995   0.131   0.739  0.3194 -0.2757 -0.2840
43221SOL    HW135626   1.028   0.095   0.656  0.8982 -2.1867  0.7106
43221SOL    HW235627   1.058   0.199   0.762 -1.0719  1.9620 -2.4680
43222SOL     OW35628   5.958   0.268   6.110  0.3023  0.1147  0.2806
43222SOL    HW135629   5.891   0.251   6.044  1.6688  0.6095 -1.3027
43222SOL    HW235630   5.910   0.271   6.193 -1.0449 -4.1384 -0.1013
43223SOL     OW35631   2.515  12.079   1.158 -0.6800 -0.0348  0.3085
43223SOL    HW135632   2.584  12.141   1.135 -1.9671  0.7107 -1.8683
43223SOL    HW235633   2.480  12.112   1.241  1.0721 -0.0650  1.1225
43224SOL     OW35634   1.574   5.202  12.131  0.2429 -0.5332 -0.1687
43224SOL    HW135635   1.510   5.146  12.175  0.0026  0.3031  0.5771
43224SOL    HW235636   1.544   5.291  12.149  1.1829 -0.1423 -0.4673
43225SOL     OW35637   6.789   8.885  10.004 -0.3020  0.0144 -0.1125
43225SOL    HW135638   6.856   8.818   9.993 -1.3286 -0.8904 -1.0887
43225SOL    HW235639   6.794   8.909  10.096  0.6833 -0.7542  0.0524
43226SOL     OW35640   0.572   7.644   8.317  0.5222 -0.3112 -0.5605
43226SOL    HW135641   0.558   7.562   8.269  0.4440  0.2029 -1.4328
43226SOL    HW235642   0.523   7.709   8.269 -0.9418 -0.0596  1.1736
43227SOL     OW35643   3.857   1.479   3.093  0.1603 -0.4126  0.4624
43227SOL    HW135644   3.819   1.530   3.022 -0.3740  0.2438  1.2046
43227SOL    HW235645   3.784   1.428   3.128  0.2830 -0.2843  0.9160
43228SOL     OW35646   0.370   7.674   1.980  0.1765 -0.1764 -0.4991
43228SOL    HW135647   0.374   7.633   2.067  1.1951  1.8204  0.4643
43228SOL    HW235648   0.277   7.671   1.957 -0.5623  1.4665  1.8457
43229SOL     OW35649   3.796   0.435   2.512 -0.2113  0.4824 -0.2998
43229SOL    HW135650   3.807   0.416   2.605 -1.1606  0.3777 -0.2044
43229SOL    HW235651   3.806   0.350   2.469 -1.1077  0.3098 -0.1720
43230SOL     OW35652  11.470   7.155   2.729 -0.6972  0.0447  0.2385
43230SOL    HW135653  11.521   7.236   2.731 -1.0862  0.2853  0.6224
43230SOL    HW235654  11.380   7.183   2.746 -1.0219 -0.3292 -0.7906
43231SOL     OW35655   2.820   5.511   4.115 -0.3280 -0.4207  0.2939
43231SOL    HW135656   2.845   5.599   4.086 -1.3280  0.0262  0.7425
43231SOL    HW235657   2.746   5.488   4.058 -0.1580 -0.9105  0.2725
43232SOL     OW35658   4.604   1.630   8.461  0.5465 -0.0125  0.1225
43232SOL    HW135659   4.594   1.545   8.418 -1.4706 -0.3526  1.1464
43232SOL    HW235660   4.669   1.676   8.408  0.7076 -1.7012 -1.2283
43233SOL     OW35661   7.449   2.228  10.953 -0.0778 -0.4836 -0.3783
43233SOL    HW135662   7.536   2.187  10.960 -0.2873 -0.9224 -0.3330
43233SOL    HW235663   7.391   2.168  11.000  0.2463  1.8442  3.4744
43234SOL     OW35664   4.612   6.927   2.217 -0.1179  0.0370 -0.0790
43234SOL    HW135665   4.568   6.849   2.250  2.0472 -0.5347  1.7855
43234SOL    HW235666   4.642   6.903   2.129 -0.0832 -1.0097  0.2058
43235SOL     OW35667   2.867   8.810   3.694  0.0667  0.1126  0.2868
43235SOL    HW135668   2.833   8.781   3.779  0.2291  0.0102  0.3170
43235SOL    HW235669   2.950   8.764   3.684 -0.5371 -0.8631 -0.4963
43236SOL     OW35670   0.525   8.037   0.383 -0.0742 -0.1449 -0.1924
43236SOL    HW135671   0.447   8.046   0.437  0.0560  0.1539 -0.0523
43236SOL    HW235672   0.493   8.050   0.293 -0.2045 -0.1428 -0.1459
43237SOL     OW35673   9.549   7.082  10.868  0.2487 -0.2589 -0.5772
43237SOL    HW135674   9.482   7.016  10.852  1.4162 -1.1579 -2.1700
43237SOL    HW235675   9.619   7.060  10.806  1.4795  1.3743  0.1450
43238SOL     OW35676  10.271   4.756   1.462  0.3114  0.4626 -0.6083
43238SOL    HW135677  10.218   4.725   1.535  1.9436  1.1367  0.9349
43238SOL    HW235678  10.272   4.852   1.471  0.4590  0.5642 -1.5677
43239SOL     OW35679   1.842   5.230   4.092  0.0504 -0.3987  0.1148
43239SOL    HW135680   1.817   5.303   4.149 -0.7979 -0.9343  0.4519
43239SOL    HW235681   1.927   5.255   4.055  1.5870 -0.8440  3.0658
43240SOL     OW35682  10.386   8.076   6.271  0.2835  0.4164 -0.0583
43240SOL    HW135683  10.435   8.112   6.345  2.3055 -1.4922 -0.3444
43240SOL    HW235684  10.427   7.991   6.255 -1.6668 -0.2721 -1.8725
43241SOL     OW35685   0.212  11.844  10.288  0.2222 -0.2777 -0.1283
43241SOL    HW135686   0.277  11.912  10.274  0.4106 -0.7431 -1.6765
43241SOL    HW235687   0.238  11.773  10.228 -0.4620 -1.3545  0.8068
43242SOL     OW35688  11.138  11.372   5.575 -0.4654  0.3159 -0.6302
43242SOL    HW135689  11.153  11.284   5.541 -0.4149 -0.3216  0.9575
43242SOL    HW235690  11.159  11.366   5.668  1.7596  2.5805 -0.8935
43243SOL     OW35691   9.242   4.847   8.021 -0.6210 -0.3981 -0.2316
43243SOL    HW135692   9.329   4.845   8.060 -0.8747  0.1651  0.3905
43243SOL    HW235693   9.230   4.760   7.983  0.3666 -0.3464 -0.6889
43244SOL     OW35694  10.804   8.201   2.159  0.9125 -0.8017  0.0347
43244SOL    HW135695  10.884   8.173   2.114  0.3286 -0.1665 -1.4378
43244SOL    HW235696  10.745   8.230   2.089  0.7881  2.3480  1.3011
43245SOL     OW35697  11.506  10.260   7.857  0.0136 -0.1570 -0.0134
43245SOL    HW135698  11.469  10.204   7.788 -1.2604  1.1512 -0.4430
43245SOL    HW235699  11.559  10.324   7.809 -0.1723  0.2260  0.2903
43246SOL     OW35700   5.076   1.237   8.012 -0.0755 -0.0969  0.3609
43246SOL    HW135701   5.115   1.217   7.927 -1.2092  0.0764 -0.2161
43246SOL    HW235702   5.056   1.152   8.050  1.6430 -0.2358  1.0757
43247SOL     OW35703   3.235   8.974   3.647  0.0776  0.3576  0.0911
43247SOL    HW135704   3.239   8.945   3.738  2.4920 -0.2038 -0.1218
43247SOL    HW235705   3.267   8.898   3.597 -2.9574 -0.0498 -1.4618
43248SOL     OW35706   9.455   2.000   7.220  0.2927 -0.1852 -0.0474
43248SOL    HW135707   9.471   1.975   7.129  0.7308 -0.0718 -0.0027
43248SOL    HW235708   9.519   2.069   7.237 -0.4093  0.4431  0.0629
43249SOL     OW35709   0.301   5.174  10.337  0.2423 -0.5292  0.1028
43249SOL    HW135710   0.281   5.266  10.325  1.4449 -0.4289 -1.3755
43249SOL    HW235711   0.280   5.133  10.254 -0.5510 -1.6655  0.8318
43250SOL     OW35712  12.199   5.553  10.923 -0.4657  0.2968  0.2175
43250SOL    HW135713  12.276   5.610  10.930 -0.1302 -0.1113 -0.1767
43250SOL    HW235714  12.200   5.503  11.005  0.4132 -0.6076 -0.3157
43251SOL     OW35715   4.684  12.322   1.315  0.0733  0.5529 -0.3749
43251SOL    HW135716   4.607  12.310   1.259  1.1803  1.3085 -2.1781
43251SOL    HW235717   4.757  12.288   1.263  1.1393  1.0881  0.7048
43252SOL     OW35718  12.051  12.223   7.271 -0.6482  0.2324 -0.2688
43252SOL    HW135719  12.105  12.150   7.239 -0.6861  0.4998 -0.9593
43252SOL    HW235720  12.019  12.193   7.356  1.2867  0.4048  0.5772
43253SOL     OW35721   4.533   0.127  10.593 -0.1986 -0.4090  0.9500
43253SOL    HW135722   4.530   0.149  10.686 -1.8888  2.4841  0.3502
43253SOL    HW235723   4.444   0.098  10.573 -1.0328  2.7387 -0.4315
43254SOL     OW35724   9.835  11.911   6.554 -0.3303 -0.6702  0.7615
43254SOL    HW135725   9.751  11.883   6.590  0.8913 -2.6176  2.2260
43254SOL    HW235726   9.868  11.976   6.616 -1.2625  1.0943 -0.4859
43255SOL     OW35727   7.045   6.991   2.727  0.4278  0.4198  0.0662
43255SOL    HW135728   7.000   7.025   2.804 -1.3086  0.3325 -0.8679
43255SOL    HW235729   7.104   6.924   2.762 -1.5429 -0.8180  1.1757
43256SOL     OW35730   3.724   4.547   4.632  0.0728 -0.0579 -0.1441
43256SOL    HW135731   3.710   4.492   4.710  0.4272 -0.3690 -0.2957
43256SOL    HW235732   3.702   4.636   4.661 -3.2042 -0.5850 -0.6194
43257SOL     OW35733   6.690   0.597   2.060 -0.1740 -0.4781  0.5815
43257SOL    HW135734   6.781   0.575   2.042  0.2319  1.7694 -0.5451
43257SOL    HW235735   6.677   0.681   2.016 -3.0558 -1.1530 -0.0632
43258SOL     OW35736  12.044   6.683   4.110  0.1269  0.1465 -0.4059
43258SOL    HW135737  12.095   6.763   4.097  1.0783 -0.3479  0.1877
43258SOL    HW235738  12.109   6.615   4.124 -0.7044 -0.1620  2.5152
43259SOL     OW35739   2.715  11.866   6.607 -0.6397 -0.2976  0.3630
43259SOL    HW135740   2.725  11.773   6.626 -2.1240 -0.4932  0.3093
43259SOL    HW235741   2.631  11.891   6.646 -3.0494 -0.3324 -4.1073
43260SOL     OW35742   3.549   2.996  10.486 -0.3777  0.5384  0.8680
43260SOL    HW135743   3.513   3.071  10.437 -2.6780 -1.3078 -0.4953
43260SOL    HW235744   3.525   3.013  10.577  1.4870  2.6648  1.0505
43261SOL     OW35745   5.006   7.496  10.546  0.1199 -0.1699  0.6188
43261SOL    HW135746   5.006   7.403  10.525 -1.9667 -0.0983  0.0794
43261SOL    HW235747   4.996   7.500  10.641 -1.8474 -0.5456  0.4660
43262SOL     OW35748   4.738  10.870   5.627  0.2613 -0.5085 -0.6642
43262SOL    HW135749   4.766  10.954   5.663 -0.8454 -0.5346  0.3336
43262SOL    HW235750   4.706  10.891   5.539 -0.3884  0.2074 -0.2720
43263SOL     OW35751  12.221   5.315   3.334 -0.7431  0.0000 -0.4007
43263SOL    HW135752  12.222   5.294   3.241 -1.7627  0.5813 -0.5525
43263SOL    HW235753  12.170   5.396   3.340 -1.9971 -0.8449  0.8345
43264SOL     OW35754   9.719  11.633  11.230 -0.0526 -0.0228 -0.1043
43264SOL    HW135755   9.632  11.626  11.191  0.4104  0.1575 -1.1963
43264SOL    HW235756   9.709  11.697  11.300 -0.1740  2.4250 -2.1997
43265SOL     OW35757   7.383   6.915   6.410 -0.8370 -0.5202 -0.3636
43265SOL    HW135758   7.470   6.878   6.425  0.3885  2.5489  1.0265
43265SOL    HW235759   7.332   6.889   6.487 -0.2159  0.0323  0.2527
43266SOL     OW35760   3.900   3.524   4.526 -0.3514  0.4565  0.0368
43266SOL    HW135761   3.973   3.464   4.542 -0.0268  1.0439  0.8024
43266SOL    HW235762   3.852   3.527   4.608  0.4099  2.2660  0.4577
43267SOL     OW35763   3.335   4.228   0.877  0.3409 -0.3893  0.7102
43267SOL    HW135764   3.364   4.230   0.786  0.2225 -0.3409  0.6733
43267SOL    HW235765   3.241   4.249   0.873  0.5015  0.3972  0.9146
43268SOL     OW35766  12.382   6.680   8.977  0.0889 -0.2130 -0.8041
43268SOL    HW135767  12.321   6.629   8.924 -1.4864  1.6609 -0.9368
43268SOL    HW235768  12.329   6.709   9.052  0.3701  2.4840 -1.5396
43269SOL     OW35769   0.775   3.469   0.557  0.1103  0.2252  0.4759
43269SOL    HW135770   0.721   3.544   0.581 -0.7708 -1.0940  3.0092
43269SOL    HW235771   0.865   3.503   0.558 -0.2816  1.3297  1.3278
43270SOL     OW35772  11.108   0.763  10.133  0.4645  0.4278  0.2143
43270SOL    HW135773  11.151   0.677  10.132 -1.7318 -0.7392 -0.1127
43270SOL    HW235774  11.120   0.794  10.222 -1.1123 -1.5977  1.2392
43271SOL     OW35775   7.255   3.282  12.408 -0.4535 -0.4426  0.5940
43271SOL    HW135776   7.248   3.370  12.372  0.7166 -0.9762 -1.0304
43271SOL    HW235777   7.168   3.243  12.395 -0.7287  0.1655  0.5697
43272SOL     OW35778  10.842   4.374  12.371 -0.2748 -0.2396  0.1191
43272SOL    HW135779  10.912   4.365  12.306  1.0541 -2.4295  1.7511
43272SOL    HW235780  10.878   4.337  12.451 -2.7839 -0.0037  1.4468
43273SOL     OW35781   7.588   4.065   1.715 -0.1229  0.1051  0.2407
43273SOL    HW135782   7.528   4.132   1.683 -1.1507 -0.8667  0.0849
43273SOL    HW235783   7.540   3.983   1.707  1.1334 -0.6761  0.3560
43274SOL     OW35784   2.508   4.343   3.722  0.9087 -0.5186  0.1990
43274SOL    HW135785   2.462   4.361   3.804  1.2110  0.1743  0.2293
43274SOL    HW235786   2.563   4.267   3.741  0.7431 -0.5523  0.5512
43275SOL     OW35787   5.700  10.377  11.313 -0.3403  0.1629 -0.8370
43275SOL    HW135788   5.718  10.292  11.273  2.0933  0.8455 -1.3023
43275SOL    HW235789   5.729  10.367  11.404  0.7479  0.7269 -1.1118
43276SOL     OW35790   5.220   8.302   7.877  0.2655  0.4989  0.1266
43276SOL    HW135791   5.132   8.297   7.914 -1.4168  2.0844 -3.1862
43276SOL    HW235792   5.254   8.387   7.905 -0.1801  0.8368 -0.3444
43277SOL     OW35793   2.040   7.864  10.872 -0.1082  0.0396 -0.1120
43277SOL    HW135794   2.036   7.871  10.968  0.5753  0.6697 -0.1174
43277SOL    HW235795   2.133   7.874  10.852 -0.1030 -1.2167 -0.7714
43278SOL     OW35796  10.356   1.338  10.404  0.2402  0.0753 -0.0716
43278SOL    HW135797  10.329   1.398  10.474 -0.0265  0.0187 -0.1226
43278SOL    HW235798  10.388   1.261  10.449  0.1743  0.0844 -0.0087
43279SOL     OW35799   0.014   0.911   4.339  0.4813  0.3897 -0.5961
43279SOL    HW135800   0.004   0.906   4.244 -0.7349 -0.2545 -0.4617
43279SOL    HW235801   0.018   1.005   4.357  0.4553  0.5303 -1.2662
43280SOL     OW35802   3.724   0.082   9.543 -0.2544  0.3837 -0.2425
43280SOL    HW135803   3.705   0.108   9.634 -2.1039  0.1589 -0.5327
43280SOL    HW235804   3.733  -0.013   9.547 -1.9339  0.1901 -0.5223
43281SOL     OW35805  10.615   0.560   4.236  0.2891 -0.0361  0.2592
43281SOL    HW135806  10.583   0.532   4.322  0.8641  0.6613  0.7105
43281SOL    HW235807  10.538   0.599   4.194  0.1647  0.2338  0.7245
43282SOL     OW35808   5.008   4.003   0.853  0.4393  0.3347 -0.4782
43282SOL    HW135809   5.043   4.037   0.936  1.6258 -0.7551 -0.5087
43282SOL    HW235810   5.078   3.950   0.817 -0.6778 -0.5995 -1.3622
43283SOL     OW35811   1.770   5.908  11.440 -0.1760 -0.4236 -0.1294
43283SOL    HW135812   1.795   5.884  11.351 -0.7036 -2.8281  0.2901
43283SOL    HW235813   1.852   5.930  11.483  0.4763 -2.0622 -0.4670
43284SOL     OW35814   9.505  10.388   5.726  0.4754  0.2298 -0.0867
43284SOL    HW135815   9.470  10.335   5.654  0.9934 -1.0675  0.5792
43284SOL    HW235816   9.583  10.429   5.689  0.0636  0.5498 -0.6150
43285SOL     OW35817   4.380   5.034   6.837 -0.2657 -0.2652 -0.5752
43285SOL    HW135818   4.349   5.102   6.778 -1.4112 -0.9529 -0.7930
43285SOL    HW235819   4.433   4.977   6.782  1.2537  0.7749 -0.2545
43286SOL     OW35820   9.327   4.997   5.536  0.0632  0.7258 -0.0744
43286SOL    HW135821   9.371   4.914   5.518  0.3495  1.0961 -1.1565
43286SOL    HW235822   9.367   5.029   5.618  1.4927  0.8225 -0.7719
43287SOL     OW35823   2.525   4.159   1.374 -0.5692  0.1188  0.1192
43287SOL    HW135824   2.440   4.181   1.414 -0.4680 -2.5819  2.0550
43287SOL    HW235825   2.505   4.091   1.310 -0.0188  0.5898 -0.5728
43288SOL     OW35826  11.971   6.539   5.589  0.1050  0.1215  0.2400
43288SOL    HW135827  12.066   6.536   5.602  0.1077 -0.3970  0.1095
43288SOL    HW235828  11.934   6.503   5.669  0.0348 -0.1182  0.1022
43289SOL     OW35829   5.202  12.129   1.822 -0.0661 -0.4658  0.1252
43289SOL    HW135830   5.121  12.147   1.870  0.2143  1.4806 -0.0497
43289SOL    HW235831   5.187  12.168   1.736  0.4647 -1.5173 -0.4521
43290SOL     OW35832   0.462   4.090   4.679  0.0515  0.4036 -0.0285
43290SOL    HW135833   0.423   4.132   4.757 -0.7091 -0.1679 -0.0898
43290SOL    HW235834   0.404   4.017   4.660  0.7915 -0.0545 -0.5528
43291SOL     OW35835  11.626   7.684   8.271 -0.3157  0.0257 -0.7126
43291SOL    HW135836  11.630   7.589   8.260 -0.4989  0.0336 -0.8457
43291SOL    HW235837  11.664   7.719   8.190 -0.3194  0.0676 -0.6961
43292SOL     OW35838   9.392   1.859  11.767 -0.3988  0.0550 -0.2994
43292SOL    HW135839   9.453   1.848  11.840  0.0797 -0.1518 -0.7302
43292SOL    HW235840   9.392   1.954  11.750 -1.8270  0.3537  1.0823
43293SOL     OW35841   7.467  11.978   5.182 -0.3057 -0.0913 -0.3331
43293SOL    HW135842   7.409  12.050   5.207  0.4232 -0.6384  3.5044
43293SOL    HW235843   7.549  12.020   5.155 -0.4778  0.5360  0.1107
43294SOL     OW35844   3.740  12.417   8.940 -0.0345  0.6868 -0.1650
43294SOL    HW135845   3.752  12.324   8.960 -1.1715  0.3362 -1.0265
43294SOL    HW235846   3.727  12.420   8.845  0.0756  1.7338 -0.1561
43295SOL     OW35847   9.645   2.475   7.158 -0.3838  0.9566 -0.0994
43295SOL    HW135848   9.738   2.498   7.165 -0.5033  1.8570 -1.2227
43295SOL    HW235849   9.605   2.509   7.237  0.4927 -0.8878  1.2189
43296SOL     OW35850   0.148  12.087   7.493 -0.2879 -0.0429  0.1179
43296SOL    HW135851   0.197  12.007   7.475 -0.4363 -0.5098  1.7004
43296SOL    HW235852   0.158  12.101   7.587 -1.7717  0.8009  0.1707
43297SOL     OW35853   8.831   4.170  11.758 -0.1452  0.0548 -0.0433
43297SOL    HW135854   8.837   4.153  11.664 -0.4304  0.2245 -0.0924
43297SOL    HW235855   8.820   4.083  11.797  0.0469 -0.0222 -0.1601
43298SOL     OW35856   4.660   5.844   6.100  0.2701  0.0119 -0.0220
43298SOL    HW135857   4.712   5.825   6.022 -1.6683  1.1909 -1.7245
43298SOL    HW235858   4.627   5.933   6.086 -0.2553  0.2054  2.0989
43299SOL     OW35859   7.139   6.404   4.425  0.7205  1.1373 -0.1917
43299SOL    HW135860   7.112   6.479   4.478  2.3855  0.7855  1.2691
43299SOL    HW235861   7.224   6.378   4.462 -0.1025 -1.8938 -0.1250
43300SOL     OW35862   7.658   6.395   4.244  0.2586 -0.1128 -0.0945
43300SOL    HW135863   7.652   6.382   4.339  1.8079  0.5290  0.1178
43300SOL    HW235864   7.573   6.432   4.220 -0.8562 -1.9765  0.7097
43301SOL     OW35865   6.294   9.326   5.566 -0.2183 -0.0383  0.2365
43301SOL    HW135866   6.312   9.418   5.588 -0.0836 -0.1863  0.7630
43301SOL    HW235867   6.200   9.324   5.548  0.2302  0.7737 -2.6698
43302SOL     OW35868   9.081   2.767   5.735 -0.1690  0.2588  0.7199
43302SOL    HW135869   8.993   2.756   5.770  0.0459 -1.2355  0.8383
43302SOL    HW235870   9.113   2.678   5.721  0.7974  0.7943 -0.6696
43303SOL     OW35871  11.839   8.217   8.155 -0.1718  0.2799 -0.2437
43303SOL    HW135872  11.761   8.270   8.171 -0.3271 -0.1734  0.5393
43303SOL    HW235873  11.805   8.137   8.114 -0.4881 -1.1269  2.5568
43304SOL     OW35874   4.775   4.198  11.283 -0.0934  0.1551  0.1937
43304SOL    HW135875   4.756   4.271  11.343 -2.2865  0.3466 -0.6544
43304SOL    HW235876   4.832   4.237  11.217 -0.0466  0.7014  0.5429
43305SOL     OW35877   8.410   9.790   0.298 -0.0115  0.0637 -0.4983
43305SOL    HW135878   8.354   9.830   0.364 -0.6792 -0.7132 -0.5757
43305SOL    HW235879   8.350   9.759   0.231  0.4089 -1.5976 -0.1521
43306SOL     OW35880   5.843   1.886   9.666 -0.8048 -0.3265 -0.1126
43306SOL    HW135881   5.778   1.888   9.596 -1.7112 -1.9940  0.6140
43306SOL    HW235882   5.845   1.975   9.700 -0.5944  0.4443 -1.9918
43307SOL     OW35883   5.254   4.478   5.208 -0.2824  0.7755 -0.6425
43307SOL    HW135884   5.201   4.516   5.278  0.7192  3.6772 -1.3131
43307SOL    HW235885   5.301   4.406   5.250  0.7679  2.8006  1.9730
43308SOL     OW35886  11.742   1.966   5.060 -0.4614  0.1660 -0.5934
43308SOL    HW135887  11.798   1.986   5.135  0.3065  1.2860 -1.4169
43308SOL    HW235888  11.754   1.872   5.045  0.3267  0.1742 -0.0578
43309SOL     OW35889   5.229   7.262  11.894 -0.3540 -0.1476  0.0750
43309SOL    HW135890   5.316   7.257  11.856 -0.2343 -1.0716  0.4412
43309SOL    HW235891   5.178   7.196  11.847 -0.4347 -0.6960  0.9029
43310SOL     OW35892   2.782  10.412   8.174 -1.0030 -0.1316 -0.5449
43310SOL    HW135893   2.734  10.408   8.257 -0.0005  0.0055  0.0518
43310SOL    HW235894   2.828  10.328   8.169  1.8669  1.2483  0.8661
43311SOL     OW35895  10.271   6.754   1.690  0.1003 -0.0849  0.1686
43311SOL    HW135896  10.242   6.720   1.775 -0.0821 -0.0282  0.1300
43311SOL    HW235897  10.361   6.784   1.705 -0.0489  0.2357  0.4259
43312SOL     OW35898   9.116   7.513   0.432  0.3577  0.2259 -0.1045
43312SOL    HW135899   9.185   7.451   0.412 -1.3690 -1.4127 -1.3390
43312SOL    HW235900   9.094   7.495   0.524 -1.1839 -2.2459 -0.8457
43313SOL     OW35901   0.333  12.272  10.227 -0.6834  0.1755  0.0788
43313SOL    HW135902   0.325  12.265  10.132 -0.1238  3.2327 -0.2763
43313SOL    HW235903   0.254  12.319  10.254 -0.2427  0.4216  0.9646
43314SOL     OW35904   5.188   3.573  12.372  0.0397  0.6725  0.3127
43314SOL    HW135905   5.170   3.479  12.379 -0.3895  0.8298  1.4795
43314SOL    HW235906   5.109   3.610  12.334  0.4063  0.5141 -0.6508
43315SOL     OW35907  10.553   3.424  10.849 -0.1750 -0.0053 -0.4641
43315SOL    HW135908  10.638   3.456  10.819 -0.6660  1.3636 -0.4598
43315SOL    HW235909  10.558   3.426  10.944  0.3424 -1.5214 -0.4262
43316SOL     OW35910  10.615   3.884   0.924 -0.1992  0.1328  0.4980
43316SOL    HW135911  10.635   3.920   1.011  1.4695  0.3130  0.0779
43316SOL    HW235912  10.641   3.792   0.930 -0.7850 -0.0460  0.3940
43317SOL     OW35913   0.170  11.568  11.087  0.6760  0.1692  0.1132
43317SOL    HW135914   0.237  11.568  11.155  0.3299  1.0332  0.4588
43317SOL    HW235915   0.122  11.649  11.100 -1.6442 -1.2501  1.0489
43318SOL     OW35916   0.473   9.149   0.489 -0.4686 -0.4884 -0.1786
43318SOL    HW135917   0.533   9.153   0.563  0.7439 -0.9976 -1.1032
43318SOL    HW235918   0.389   9.179   0.525  1.0890  4.0844  0.2920
43319SOL     OW35919   2.189   9.725   0.970 -0.1160 -0.2177 -0.1752
43319SOL    HW135920   2.253   9.796   0.967  1.9753 -1.8713  1.8292
43319SOL    HW235921   2.233   9.651   0.928  0.5443 -2.1573  3.4633
43320SOL     OW35922   4.524   8.320   1.664  0.2376  0.2623 -0.1764
43320SOL    HW135923   4.468   8.388   1.628 -0.5903 -0.2656  0.1038
43320SOL    HW235924   4.469   8.242   1.670  1.1870 -0.4683 -0.5621
43321SOL     OW35925   4.228   5.880  10.957  0.5541 -0.3399  0.0371
43321SOL    HW135926   4.319   5.853  10.950  0.3645 -1.4735  1.4923
43321SOL    HW235927   4.228   5.949  11.023  0.7093  1.7438 -2.0223
43322SOL     OW35928   2.599   6.275   6.492  0.2423  0.1485 -0.1335
43322SOL    HW135929   2.561   6.217   6.426 -1.7651  1.1009  0.1339
43322SOL    HW235930   2.616   6.357   6.445  0.9255  0.1080  0.0276
43323SOL     OW35931   8.805   5.032   8.161  0.2180 -0.3203 -0.1374
43323SOL    HW135932   8.844   5.115   8.190 -1.4602  0.2084  0.7186
43323SOL    HW235933   8.879   4.972   8.155  1.4007  1.0738 -0.2228
43324SOL     OW35934   7.030   3.129   2.123 -0.9173  0.0013 -0.2261
43324SOL    HW135935   7.037   3.038   2.094 -2.1214 -0.6557  1.4002
43324SOL    HW235936   6.939   3.153   2.106 -0.8007  0.6735  0.0500
43325SOL     OW35937   6.659   0.955  10.221 -0.2699 -1.0420 -0.5575
43325SOL    HW135938   6.581   1.007  10.242  0.6149  0.3136 -0.5109
43325SOL    HW235939   6.626   0.885  10.165 -1.4707 -0.2829 -0.8482
43326SOL     OW35940   7.838   2.114   2.321 -0.4994  0.1985 -0.5348
43326SOL    HW135941   7.781   2.099   2.245  1.8924 -1.7877 -2.0823
43326SOL    HW235942   7.832   2.208   2.337 -3.4403  0.2190 -1.1611
43327SOL     OW35943   8.211   2.536   6.805 -0.0054 -0.2314  0.3917
43327SOL    HW135944   8.208   2.440   6.799  2.7597 -0.4233  0.5073
43327SOL    HW235945   8.213   2.553   6.899 -1.4831  0.0253  0.3867
43328SOL     OW35946   5.016   2.363   1.602  0.6559 -0.4032  0.0305
43328SOL    HW135947   4.975   2.410   1.674 -0.1614  0.3634 -0.9164
43328SOL    HW235948   5.108   2.355   1.628  0.0873 -1.5959  1.8956
43329SOL     OW35949   4.573   6.648   4.509  0.1477 -0.1748  0.3798
43329SOL    HW135950   4.571   6.558   4.478  0.6456  0.1026 -0.4640
43329SOL    HW235951   4.642   6.649   4.575  0.3228 -0.3460  0.1987
43330SOL     OW35952   7.489   7.883   2.003  0.4303  0.1704  0.5796
43330SOL    HW135953   7.532   7.968   2.010  1.4739 -0.3729  0.8961
43330SOL    HW235954   7.517   7.834   2.080  0.2867 -0.6514  0.1305
43331SOL     OW35955   1.614   4.914   7.884 -0.0209 -0.6331  0.1066
43331SOL    HW135956   1.564   4.871   7.954  1.2520 -0.0807  1.3947
43331SOL    HW235957   1.571   4.999   7.873  0.3753 -0.3184  0.9309
43332SOL     OW35958   7.509   9.530   3.552 -0.1199 -0.0161  0.8515
43332SOL    HW135959   7.575   9.584   3.595  0.0106  1.0637 -0.6166
43332SOL    HW235960   7.550   9.443   3.545  1.5311  0.8188 -0.7427
43333SOL     OW35961   5.333   1.270   0.124  1.0235  0.0928 -0.2238
43333SOL    HW135962   5.409   1.215   0.145  1.7224  1.2262  0.3386
43333SOL    HW235963   5.280   1.270   0.204  1.0043  0.1933 -0.2364
43334SOL     OW35964   8.018   2.888   3.017 -0.5558  0.2597 -0.2779
43334SOL    HW135965   8.092   2.932   3.059 -0.5052  1.2128 -1.3486
43334SOL    HW235966   7.960   2.864   3.090  0.0798  0.8519  0.4312
43335SOL     OW35967  10.273  10.208  11.756 -0.0198 -0.2831  0.4280
43335SOL    HW135968  10.242  10.286  11.711  0.0342  0.9548  2.4065
43335SOL    HW235969  10.367  10.203  11.734 -0.0459  0.1559  0.2084
43336SOL     OW35970   3.806   7.838  11.303 -0.2979  0.0855  0.5546
43336SOL    HW135971   3.869   7.846  11.231 -0.3745 -1.6416  0.2748
43336SOL    HW235972   3.760   7.922  11.302  0.4315  0.5120 -0.7061
43337SOL     OW35973   6.043   9.947  10.508 -0.0419 -0.3738  0.5260
43337SOL    HW135974   6.086   9.899  10.438  0.2272 -0.4072  0.7092
43337SOL    HW235975   6.037   9.884  10.580 -0.3222 -0.3430  0.5289
43338SOL     OW35976   4.931   3.664   8.059 -0.1688  0.0159  0.2975
43338SOL    HW135977   4.927   3.578   8.102 -1.1635 -0.3869 -0.5441
43338SOL    HW235978   4.891   3.649   7.973 -0.7176  1.4211  0.2882
43339SOL     OW35979   3.230   3.810   5.381  0.0628  0.3967 -0.1746
43339SOL    HW135980   3.190   3.895   5.400 -2.8336 -0.6434 -1.1527
43339SOL    HW235981   3.195   3.751   5.446  0.4478 -0.4715 -0.7391
43340SOL     OW35982   0.237  11.535   8.995 -0.5578 -0.0325  0.3379
43340SOL    HW135983   0.270  11.608   8.942 -2.4915  0.9316  0.3444
43340SOL    HW235984   0.233  11.461   8.935 -1.9147  0.8280 -0.6988
43341SOL     OW35985  12.259   4.137  11.818  0.7039  0.6844  0.4838
43341SOL    HW135986  12.348   4.172  11.824  1.5124 -1.1218 -0.1263
43341SOL    HW235987  12.249   4.115  11.725 -0.2537  0.5807  0.6078
43342SOL     OW35988   0.977  11.824   3.463 -0.2098  0.1870  0.8844
43342SOL    HW135989   1.007  11.736   3.487 -0.2667  0.1971  0.9902
43342SOL    HW235990   0.882  11.820   3.471 -0.1301  0.7445  2.5466
43343SOL     OW35991   1.277  12.114  10.387 -0.6950 -0.5621 -0.2097
43343SOL    HW135992   1.239  12.163  10.460 -0.0596  1.1753 -0.9799
43343SOL    HW235993   1.295  12.181  10.321  1.1312 -1.7133 -0.9431
43344SOL     OW35994   8.009   0.407   6.832 -0.4387  0.3857 -0.6544
43344SOL    HW135995   7.930   0.365   6.799  0.3909 -1.3394 -0.5172
43344SOL    HW235996   7.979   0.462   6.905 -1.3277 -1.5251  0.4773
43345SOL     OW35997  11.444   4.656   2.557  0.3898 -0.4863  0.5750
43345SOL    HW135998  11.463   4.728   2.498 -1.0152 -0.7605 -0.2671
43345SOL    HW235999  11.493   4.676   2.637 -1.1606  2.2179  0.9655
43346SOL     OW36000  12.089  10.439  11.736  0.2761  0.2240 -0.3610
43346SOL    HW136001  12.174  10.475  11.761  0.0103  0.0284  0.8847
43346SOL    HW236002  12.027  10.510  11.752 -0.1728 -0.5400  1.5796
43347SOL     OW36003   4.005   5.307   1.100 -0.2116  0.2056 -0.0456
43347SOL    HW136004   3.957   5.300   1.017  0.6783  0.2531 -0.5797
43347SOL    HW236005   3.961   5.245   1.158 -2.0286  1.5265  0.0489
43348SOL     OW36006   5.434   2.025   6.427  0.3602  0.2750 -0.0723
43348SOL    HW136007   5.477   1.945   6.457  1.6698  1.0205  0.1289
43348SOL    HW236008   5.341   2.006   6.431  0.6486 -1.1509  0.2052
43349SOL     OW36009   4.055  10.794   6.198 -0.2112  0.4410  0.2643
43349SOL    HW136010   4.099  10.755   6.122 -0.4407  1.5337 -0.4551
43349SOL    HW236011   4.093  10.882   6.205 -1.3590  0.9453  0.4154
43350SOL     OW36012   8.657   7.190  10.894 -0.1248  0.5367  0.2196
43350SOL    HW136013   8.579   7.236  10.927 -0.8888 -1.3374  1.2109
43350SOL    HW236014   8.685   7.135  10.968  1.9570  0.9061 -0.2327
43351SOL     OW36015   7.471   2.698   9.181 -0.3603  0.2662  0.0255
43351SOL    HW136016   7.378   2.701   9.157  0.2237 -0.7500 -2.7124
43351SOL    HW236017   7.502   2.787   9.169 -0.6791  0.3133 -0.4959
43352SOL     OW36018  11.785   4.229   7.605 -0.0666 -0.1142  0.0844
43352SOL    HW136019  11.803   4.282   7.528  0.7851 -2.3431 -1.3455
43352SOL    HW236020  11.691   4.209   7.598  0.4103 -2.0853 -1.6683
43353SOL     OW36021  10.502  12.061   2.251  0.2039 -0.0197 -0.3266
43353SOL    HW136022  10.463  11.996   2.309  1.2527  0.1482  0.5931
43353SOL    HW236023  10.459  12.046   2.167 -1.0077 -0.5848  0.3530
43354SOL     OW36024   3.348   1.782   8.235  0.1648  0.1018  0.5910
43354SOL    HW136025   3.409   1.720   8.275  1.5991  0.9772 -0.1622
43354SOL    HW236026   3.341   1.752   8.144  0.6570  0.8496  0.2933
43355SOL     OW36027   4.162   1.279   4.109 -0.0754  0.1337 -0.4020
43355SOL    HW136028   4.070   1.288   4.134 -0.0283  0.4037 -0.3176
43355SOL    HW236029   4.180   1.357   4.057  0.0514 -0.0192 -0.5848
43356SOL     OW36030   7.229   2.476   1.884  0.6381 -0.6711 -0.4586
43356SOL    HW136031   7.275   2.451   1.965  2.0732 -0.4193 -1.1521
43356SOL    HW236032   7.193   2.395   1.850  3.3486 -1.5267 -1.5426
43357SOL     OW36033   6.269   2.782  10.286  0.8847  0.2475  0.1983
43357SOL    HW136034   6.357   2.769  10.322  0.9388  0.4952  0.1597
43357SOL    HW236035   6.230   2.850  10.341  0.3374 -0.5802  0.8543
43358SOL     OW36036   4.989   9.333   2.117 -0.2908 -0.2020 -0.2615
43358SOL    HW136037   5.066   9.375   2.079 -0.9318 -0.6706 -2.2560
43358SOL    HW236038   5.023   9.270   2.180  0.9029  0.2109 -0.4809
43359SOL     OW36039   8.563   6.418   2.832  0.1363  0.1184 -0.3805
43359SOL    HW136040   8.500   6.347   2.842  0.8302 -0.2810  1.6337
43359SOL    HW236041   8.517   6.496   2.862 -0.2252  0.3379 -1.4422
43360SOL     OW36042   0.984   8.799   8.197  0.5205 -0.5211 -0.1929
43360SOL    HW136043   0.895   8.790   8.230  0.1042  1.9673 -0.4382
43360SOL    HW236044   1.034   8.834   8.270  0.9800 -0.6167 -0.4571
43361SOL     OW36045   2.337   6.669   6.851 -0.4608 -0.2437 -0.6695
43361SOL    HW136046   2.391   6.692   6.928 -1.8414  1.0490 -0.0291
43361SOL    HW236047   2.385   6.705   6.777 -0.0059  0.1182 -0.2098
43362SOL     OW36048   8.474   3.354   0.208  0.3234  0.5314  0.5040
43362SOL    HW136049   8.512   3.266   0.200 -1.1031 -0.0988  0.2871
43362SOL    HW236050   8.531   3.399   0.270  0.9211 -0.6331  0.8417
43363SOL     OW36051   4.458  10.126  10.708  0.2645  0.0824  0.1165
43363SOL    HW136052   4.487  10.199  10.653  1.8119  1.0818  2.1631
43363SOL    HW236053   4.532  10.065  10.708 -0.5468 -0.9362 -0.5746
43364SOL     OW36054   8.584  12.357   2.617 -0.1605 -0.0041 -0.1152
43364SOL    HW136055   8.633  12.323   2.693  1.1940  0.8485 -0.5746
43364SOL    HW236056   8.608  12.449   2.613 -1.7001  0.3934 -0.4852
43365SOL     OW36057  10.085  11.056   4.132  0.0730  0.1659  0.1548
43365SOL    HW136058  10.002  11.012   4.114  0.4072 -0.7447  0.7365
43365SOL    HW236059  10.150  10.986   4.124  0.6601  0.6364  0.7676
43366SOL     OW36060  10.978   5.097   9.952 -0.1620  0.2151  0.0228
43366SOL    HW136061  10.932   5.027   9.997 -0.1906 -0.1563 -0.5805
43366SOL    HW236062  10.929   5.111   9.871  1.1846 -0.7003 -0.9910
43367SOL     OW36063   9.291   2.545   7.937 -0.1219 -0.0780 -0.2454
43367SOL    HW136064   9.306   2.584   8.023  1.6264 -0.0497 -0.5158
43367SOL    HW236065   9.240   2.610   7.890  1.4286  1.2498 -0.1722
43368SOL     OW36066   9.021   1.816   0.113  1.0301  0.2570 -0.3765
43368SOL    HW136067   9.003   1.907   0.135  1.1923  0.5274 -1.3444
43368SOL    HW236068   8.997   1.767   0.193 -1.4446  0.8770 -0.6622
43369SOL     OW36069   7.630   9.852   4.568  0.5083 -0.1819 -0.0375
43369SOL    HW136070   7.546   9.811   4.590 -0.1500 -0.2020 -2.3284
43369SOL    HW236071   7.620   9.943   4.594 -0.1493 -0.2233 -0.1386
43370SOL     OW36072   3.147   8.687   3.677  0.4041 -0.1747  0.4510
43370SOL    HW136073   3.200   8.608   3.685 -0.0977 -0.5762 -0.0648
43370SOL    HW236074   3.186   8.749   3.738  0.9055 -0.7673  0.7413
43371SOL     OW36075   1.219   9.228   1.345 -0.1203 -0.1592 -0.4056
43371SOL    HW136076   1.181   9.249   1.430 -0.2587  0.8391 -0.6979
43371SOL    HW236077   1.150   9.181   1.298  0.2067 -1.3719  0.2758
43372SOL     OW36078   4.792   6.365   5.974 -0.0417  0.2511  0.1843
43372SOL    HW136079   4.775   6.287   5.920  0.1852 -0.2694  0.8649
43372SOL    HW236080   4.859   6.413   5.925  0.2989 -0.3103  0.0869
43373SOL     OW36081  11.298   9.330   1.712 -0.3877  0.5807  0.2844
43373SOL    HW136082  11.208   9.362   1.709  0.0559  1.8065 -1.2376
43373SOL    HW236083  11.289   9.236   1.727 -1.9015  0.7462  0.5795
43374SOL     OW36084   3.194  10.817   2.821  0.3047  0.0999  0.5401
43374SOL    HW136085   3.259  10.873   2.863  1.6529 -0.1145 -1.1528
43374SOL    HW236086   3.110  10.860   2.839  0.9623  0.8090  2.0948
43375SOL     OW36087   6.483   0.943   0.817 -0.5906  0.0985  0.2649
43375SOL    HW136088   6.421   0.962   0.887 -1.6878  0.0404 -0.6531
43375SOL    HW236089   6.479   0.848   0.808  1.3145 -0.1626  1.6651
43376SOL     OW36090   2.589  11.924   3.998  0.3083  0.2535  0.1249
43376SOL    HW136091   2.557  11.836   3.981  0.2155  0.5664 -1.4186
43376SOL    HW236092   2.558  11.976   3.924  0.7457  1.4878  0.7795
43377SOL     OW36093   8.549   0.038   9.885  0.0970 -0.3313  0.2501
43377SOL    HW136094   8.560  -0.041   9.832 -1.4648 -0.3608 -0.1059
43377SOL    HW236095   8.560   0.008   9.975  0.2532 -0.8098  0.0769
43378SOL     OW36096   7.122   3.048   4.944  0.3056  0.2006  0.2242
43378SOL    HW136097   7.122   3.134   4.902  0.0857  0.1774  0.1707
43378SOL    HW236098   7.074   3.061   5.025 -1.3150 -0.2468 -0.6088
43379SOL     OW36099   8.143   2.382   5.686 -0.1427  0.3058  0.4001
43379SOL    HW136100   8.200   2.305   5.695 -0.9896 -0.2914  0.8164
43379SOL    HW236101   8.202   2.456   5.696  0.6617 -0.2948  0.2111
43380SOL     OW36102   5.009   3.390  10.387 -0.7244  0.5168 -0.5687
43380SOL    HW136103   4.933   3.335  10.404 -0.0770  0.1322  1.2978
43380SOL    HW236104   5.012   3.399  10.291 -2.0612 -0.9224 -0.7743
43381SOL     OW36105   9.199   8.071   2.560 -0.1271  0.1267 -0.5050
43381SOL    HW136106   9.111   8.103   2.579  0.3221  1.3213 -0.3485
43381SOL    HW236107   9.213   8.002   2.624  0.2590  2.1267  1.6988
43382SOL     OW36108  11.034   1.276   4.530  0.0423 -0.1168 -0.7884
43382SOL    HW136109  11.031   1.286   4.625  0.3427 -1.9284 -0.5528
43382SOL    HW236110  10.942   1.263   4.504  0.0326 -0.2777 -0.6700
43383SOL     OW36111   8.763   5.240  10.150 -0.1764 -0.4437 -0.2287
43383SOL    HW136112   8.762   5.146  10.133 -1.3632 -0.6557  0.8873
43383SOL    HW236113   8.853   5.258  10.178  0.0341 -1.2594 -0.3512
43384SOL     OW36114   8.693  10.215   1.122  0.1198  0.0693 -0.1843
43384SOL    HW136115   8.600  10.237   1.129 -0.0196 -0.1218 -1.3355
43384SOL    HW236116   8.718  10.243   1.034  0.7809 -1.2608 -0.4445
43385SOL     OW36117   5.849   8.946   5.660  0.2987 -0.4879 -0.2767
43385SOL    HW136118   5.756   8.961   5.677 -0.1454  1.7004 -3.7876
43385SOL    HW236119   5.893   8.986   5.735 -1.5151  0.3411  0.4109
43386SOL     OW36120   5.862   5.644  11.272  0.0938  0.1749  0.0523
43386SOL    HW136121   5.916   5.573  11.237 -1.7832 -1.2590 -0.0480
43386SOL    HW236122   5.863   5.710  11.203 -0.5035 -1.0129 -1.1319
43387SOL     OW36123   5.736   3.791   7.613 -0.5706 -0.4595  0.8058
43387SOL    HW136124   5.644   3.769   7.630 -0.3100 -0.9598  1.6253
43387SOL    HW236125   5.784   3.711   7.637  0.2150  0.3010  1.8572
43388SOL     OW36126   6.896   6.880   8.775  0.3654  0.0232 -0.0270
43388SOL    HW136127   6.858   6.953   8.824 -1.8989  0.1773 -1.8825
43388SOL    HW236128   6.975   6.917   8.735  0.5671  0.7373  0.9826
43389SOL     OW36129   0.736   9.306   2.623  0.6870  0.2148 -0.2713
43389SOL    HW136130   0.653   9.338   2.586 -0.6886 -1.6950  0.9828
43389SOL    HW236131   0.766   9.240   2.560  1.2880  0.9230 -0.7367
43390SOL     OW36132   2.337   0.077   1.780 -0.1849 -0.0259  0.0246
43390SOL    HW136133   2.343  -0.006   1.733 -1.4621  0.0326 -0.2516
43390SOL    HW236134   2.399   0.067   1.853  0.9388 -0.5595 -0.9597
43391SOL     OW36135   2.785   5.277   6.012 -0.1056  0.1529 -0.0933
43391SOL    HW136136   2.831   5.348   5.966 -2.2448  1.0418 -0.9784
43391SOL    HW236137   2.758   5.316   6.095 -0.6578  0.1555 -0.2719
43392SOL     OW36138   2.401   5.774  12.354  0.1170  0.0424  0.0175
43392SOL    HW136139   2.459   5.751  12.427  0.9798  1.6717 -0.0969
43392SOL    HW236140   2.458   5.774  12.277 -0.7463 -1.4748 -0.6524
43393SOL     OW36141  12.457   0.354  11.041 -0.4366  0.2765 -0.4353
43393SOL    HW136142  12.424   0.367  11.130  0.8822  0.4828  0.0509
43393SOL    HW236143  12.482   0.442  11.012  2.3288 -0.1612  0.3364
43394SOL     OW36144   8.930   8.248   3.320 -0.4893  0.2966 -0.7335
43394SOL    HW136145   8.865   8.245   3.251 -1.9936  0.2360  0.6360
43394SOL    HW236146   8.949   8.341   3.332 -1.0152  0.3830 -0.5378
43395SOL     OW36147   0.962  10.382   0.578 -0.2267 -0.2528 -0.8428
43395SOL    HW136148   0.953  10.317   0.509  1.1757  0.8521 -2.1315
43395SOL    HW236149   0.882  10.434   0.573 -0.5807 -0.7985 -0.9524
43396SOL     OW36150   1.356   9.719  10.114 -0.2226 -0.0243  0.1699
43396SOL    HW136151   1.413   9.796  10.116  0.1738 -0.3030 -0.2208
43396SOL    HW236152   1.338   9.705  10.021 -1.4792  0.4571  0.3238
43397SOL     OW36153   0.905   8.596  11.971  0.0508 -0.3660 -0.1594
43397SOL    HW136154   0.814   8.610  11.998 -0.3300  0.1897 -1.6393
43397SOL    HW236155   0.951   8.572  12.052 -0.7733  2.3095  1.2086
43398SOL     OW36156  11.791  11.182   1.073  0.0570 -0.0914 -0.2391
43398SOL    HW136157  11.718  11.155   1.127  0.7214  1.6201  1.6464
43398SOL    HW236158  11.861  11.203   1.135  1.6019 -0.0858 -1.8802
43399SOL     OW36159  11.681   4.045   9.035 -0.3608  0.1057 -0.9102
43399SOL    HW136160  11.755   3.999   8.996  0.2821  0.3109  0.0355
43399SOL    HW236161  11.719   4.125   9.071 -1.0997  0.3659 -0.6854
43400SOL     OW36162   1.410   6.460   0.738  0.1445  0.4173  0.5327
43400SOL    HW136163   1.429   6.437   0.647 -1.8457 -0.8635  0.4021
43400SOL    HW236164   1.471   6.407   0.789  1.5429  1.4299 -0.0237
43401SOL     OW36165  12.352   5.751  11.673 -0.5377  0.1968 -0.2599
43401SOL    HW136166  12.287   5.696  11.717  0.6296 -1.0754 -0.0655
43401SOL    HW236167  12.412   5.689  11.632  1.3888  1.2916  0.7980
43402SOL     OW36168   1.694   7.244   2.074 -0.0251  0.1745  0.0582
43402SOL    HW136169   1.726   7.161   2.110 -0.0230  0.4329  0.6660
43402SOL    HW236170   1.738   7.251   1.989  0.1825 -0.3129  0.1179
43403SOL     OW36171   5.611  11.526  10.856  0.1818  0.2930 -0.4058
43403SOL    HW136172   5.564  11.592  10.805  0.5522  0.4948 -0.4925
43403SOL    HW236173   5.703  11.543  10.838  0.3592  0.7950  0.8544
43404SOL     OW36174   4.940   8.991   1.347 -0.2641  0.7231  0.0657
43404SOL    HW136175   4.987   8.908   1.338  1.6862  1.5738  1.6399
43404SOL    HW236176   4.945   9.030   1.259  0.7922  0.1658 -0.1445
43405SOL     OW36177  12.475   7.116   4.151  0.0661 -0.4477 -0.1225
43405SOL    HW136178  12.444   7.045   4.207  1.1391 -1.6504 -0.9976
43405SOL    HW236179  12.532   7.168   4.207  0.8681 -1.4514  0.0271
43406SOL     OW36180   2.899  11.637  10.343 -0.4662  0.6572  0.1922
43406SOL    HW136181   2.948  11.565  10.383  0.1252  1.2044  0.4915
43406SOL    HW236182   2.811  11.602  10.329  0.4792 -1.0013 -2.1549
43407SOL     OW36183   2.102   8.990   4.635  0.2729  0.0078  0.0260
43407SOL    HW136184   2.028   8.992   4.695  0.5553 -0.3780  0.3952
43407SOL    HW236185   2.179   8.999   4.691  0.5884 -1.2236 -0.1806
43408SOL     OW36186  10.625  10.361   2.833 -0.1903  0.0267  0.0395
43408SOL    HW136187  10.569  10.358   2.755 -0.0774 -0.9918 -0.0139
43408SOL    HW236188  10.565  10.380   2.904 -0.1099  2.3766 -0.4402
43409SOL     OW36189   0.887   0.511   5.405 -0.1607 -0.2378  0.1329
43409SOL    HW136190   0.904   0.581   5.343  0.4461  0.2274  0.8061
43409SOL    HW236191   0.822   0.547   5.465  1.8274  0.6716  1.8912
43410SOL     OW36192   5.415  10.066   3.418 -0.2075  0.7348 -0.0429
43410SOL    HW136193   5.367  10.144   3.390  0.9448  1.2941 -0.5210
43410SOL    HW236194   5.507  10.090   3.409  0.1790 -0.8844 -0.7687
43411SOL     OW36195   5.457  12.119   1.946  0.1769  0.1927  0.1002
43411SOL    HW136196   5.420  12.062   2.013  0.0003  0.2060  0.0168
43411SOL    HW236197   5.381  12.164   1.909 -0.0986 -1.7367 -1.9037
43412SOL     OW36198   1.638   5.047   4.686  0.0565 -0.0200  0.2394
43412SOL    HW136199   1.703   5.067   4.753  0.8216  2.3118 -1.0975
43412SOL    HW236200   1.675   4.973   4.638  1.8460  1.3279 -0.5660
43413SOL     OW36201   6.933   9.403   2.782 -0.1242 -0.2015  0.6527
43413SOL    HW136202   7.004   9.458   2.815  1.7043 -0.7015 -2.1359
43413SOL    HW236203   6.960   9.314   2.805 -2.4396 -0.2255  3.9923
43414SOL     OW36204   8.181   4.568   0.916 -0.0586  0.7414 -0.1954
43414SOL    HW136205   8.254   4.523   0.958 -1.3879 -2.6134 -1.1199
43414SOL    HW236206   8.104   4.539   0.966 -1.3490 -0.9428 -2.9390
43415SOL     OW36207   4.063   5.864   9.468 -0.2352 -0.1801 -0.2032
43415SOL    HW136208   4.005   5.939   9.455  0.5638  0.3788 -0.6335
43415SOL    HW236209   4.016   5.791   9.429 -0.5285  0.3262 -0.8188
43416SOL     OW36210  11.188   5.950   9.289  0.3119 -0.1700 -0.1077
43416SOL    HW136211  11.127   5.934   9.217 -0.3806  0.0864  0.4048
43416SOL    HW236212  11.189   5.868   9.338 -0.4603  0.1509  0.4810
43417SOL     OW36213   6.812  10.006   2.866  0.3630  0.4039 -0.5612
43417SOL    HW136214   6.834   9.942   2.799 -1.2668 -0.7968 -0.0256
43417SOL    HW236215   6.796   9.954   2.945  2.1680  1.7696  0.7967
43418SOL     OW36216  11.115   8.635  12.140  0.5018 -0.4316  0.1251
43418SOL    HW136217  11.173   8.559  12.150 -0.7264 -1.3745  0.2920
43418SOL    HW236218  11.064   8.637  12.220  0.6290  0.6763  0.1813
43419SOL     OW36219   1.654   7.528   6.687 -0.2345  0.4631 -0.0195
43419SOL    HW136220   1.684   7.484   6.608  0.8719 -1.3912  1.3576
43419SOL    HW236221   1.577   7.578   6.659  1.3304  1.5774 -2.6748
43420SOL     OW36222   6.853  12.437   2.644 -0.0564 -0.0610 -0.3077
43420SOL    HW136223   6.830  12.529   2.631  0.3889 -0.0080 -0.7472
43420SOL    HW236224   6.872  12.429   2.737  0.5792  0.4443 -0.3950
43421SOL     OW36225   2.032   3.859   5.015 -0.7313 -0.1277  0.0792
43421SOL    HW136226   2.092   3.791   5.046 -1.4243 -0.2990  1.1229
43421SOL    HW236227   2.069   3.941   5.046  0.7429  0.1494 -2.1964
43422SOL     OW36228   2.413  10.937   0.864 -0.3240  0.8471  0.1938
43422SOL    HW136229   2.355  11.009   0.892 -0.3796  1.2691 -0.9552
43422SOL    HW236230   2.453  10.969   0.784 -1.1385 -0.8201 -0.9278
43423SOL     OW36231  11.080   1.426   3.480  0.8087  0.0235  0.4807
43423SOL    HW136232  11.133   1.353   3.511 -0.2064  0.1781  2.7065
43423SOL    HW236233  11.007   1.385   3.434  0.7272 -0.3181  0.9206
43424SOL     OW36234   3.142   3.582   3.037  0.4785  0.2924 -0.3632
43424SOL    HW136235   3.065   3.541   3.075  0.0698  0.9426 -0.4840
43424SOL    HW236236   3.201   3.597   3.110  0.0640  0.7252 -0.1134
43425SOL     OW36237  10.886   4.548   8.246 -0.3826  0.6598 -0.0244
43425SOL    HW136238  10.825   4.475   8.237 -2.3462  1.9278  2.0683
43425SOL    HW236239  10.842   4.622   8.204 -0.0464  1.4592  0.9819
43426SOL     OW36240   9.003   9.011  10.246 -0.1735 -0.3892 -0.0398
43426SOL    HW136241   8.969   9.040  10.331 -0.1316 -0.3482 -0.0374
43426SOL    HW236242   8.935   8.953  10.212  0.1476 -1.0296  0.3727
43427SOL     OW36243  10.189   4.134   8.156 -0.2474  0.2815  0.0895
43427SOL    HW136244  10.156   4.217   8.121 -1.0081  0.1709  0.5105
43427SOL    HW236245  10.237   4.095   8.084 -1.4841  0.2219 -0.7396
43428SOL     OW36246   2.547   3.542   9.848 -0.1557 -0.1380  0.0364
43428SOL    HW136247   2.508   3.482   9.785  0.9005 -0.0037 -0.7724
43428SOL    HW236248   2.492   3.620   9.844 -0.6697 -0.4995  0.0096
43429SOL     OW36249   6.429  11.697   2.780 -0.2261  0.2509 -0.2671
43429SOL    HW136250   6.485  11.654   2.715 -0.2833 -1.0886  0.5478
43429SOL    HW236251   6.340  11.687   2.746 -0.0572  2.1687 -1.4400
43430SOL     OW36252   4.531   2.147   8.310 -0.1432  0.9717 -0.1848
43430SOL    HW136253   4.613   2.182   8.343 -0.3707  0.1322  1.3346
43430SOL    HW236254   4.556   2.069   8.260  0.2678  2.6235 -2.7461
43431SOL     OW36255   9.854  12.260   1.763 -0.0510 -0.3002  0.1202
43431SOL    HW136256   9.874  12.280   1.671  1.1349  0.5949  0.5502
43431SOL    HW236257   9.788  12.324   1.788 -0.5275 -0.6746 -0.1454
43432SOL     OW36258   9.605   6.629   3.265 -0.1381 -0.3081  0.2926
43432SOL    HW136259   9.617   6.536   3.245  0.8776 -0.2680  0.6600
43432SOL    HW236260   9.575   6.667   3.182  1.8764 -0.5329 -0.5953
43433SOL     OW36261  11.137   1.228   7.377 -0.1339 -0.0043  0.1376
43433SOL    HW136262  11.062   1.255   7.431 -0.2856 -1.3268  0.6414
43433SOL    HW236263  11.188   1.308   7.364 -0.8605  0.6261  1.0319
43434SOL     OW36264   3.695  11.023   2.067 -0.4094  0.7777  0.0479
43434SOL    HW136265   3.682  11.109   2.108 -0.8762  1.7534 -2.0349
43434SOL    HW236266   3.658  11.032   1.979  0.7361 -1.1618 -0.6928
43435SOL     OW36267   3.865   9.213   1.726  0.4050 -0.3795 -0.1239
43435SOL    HW136268   3.913   9.292   1.751  0.7430 -0.1093 -1.5467
43435SOL    HW236269   3.774   9.240   1.724  0.4840 -0.1257 -0.2699
43436SOL     OW36270   5.699   8.096   7.053 -0.3860 -0.5925 -0.5850
43436SOL    HW136271   5.700   8.001   7.068  0.5138 -0.3571  1.1947
43436SOL    HW236272   5.645   8.131   7.124  2.6700  0.5081  1.4094
43437SOL     OW36273   1.324   3.025   7.396 -0.3834 -0.5709  0.3776
43437SOL    HW136274   1.377   3.002   7.319 -0.1149 -1.2470  0.7623
43437SOL    HW236275   1.385   3.020   7.469 -1.0215 -1.5690  0.8564
43438SOL     OW36276   2.823   8.841   5.382  0.2065  0.2110 -0.4474
43438SOL    HW136277   2.734   8.876   5.374  0.9205  1.7713 -2.9562
43438SOL    HW236278   2.814   8.748   5.357 -0.8405  0.0892  0.3177
43439SOL     OW36279   0.328   6.614   8.527 -0.2088 -0.2238  0.1749
43439SOL    HW136280   0.320   6.562   8.607 -1.9257 -0.2137  0.0608
43439SOL    HW236281   0.324   6.550   8.456  3.0428 -0.4251  0.0268
43440SOL     OW36282   9.100   4.948  10.753  0.0793  0.3616 -0.0264
43440SOL    HW136283   9.054   5.032  10.756 -0.3747  0.1254 -0.1948
43440SOL    HW236284   9.182   4.963  10.798  1.1006  1.5764 -2.1370
43441SOL     OW36285   3.297   6.091  11.475 -0.5936 -0.1480  0.0539
43441SOL    HW136286   3.255   6.140  11.546  1.6712  0.0292  1.3465
43441SOL    HW236287   3.278   6.142  11.397  0.7174  2.2824  1.1960
43442SOL     OW36288  11.078   6.569   2.253  0.6770  0.6230  0.2684
43442SOL    HW136289  11.027   6.627   2.196  0.1585  1.0765  1.1697
43442SOL    HW236290  11.081   6.485   2.206  0.0998  0.9304 -0.3277
43443SOL     OW36291   5.537   2.118   2.444 -0.2119 -0.0324  1.1814
43443SOL    HW136292   5.583   2.132   2.361 -0.2841  1.4547  1.3791
43443SOL    HW236293   5.573   2.035   2.477  0.4423 -0.2065  0.0913
43444SOL     OW36294   1.125   4.188   7.416 -0.4012 -0.2058  0.0639
43444SOL    HW136295   1.041   4.143   7.414 -1.2507  1.2826  0.9843
43444SOL    HW236296   1.106   4.274   7.453  1.7275 -0.2681  1.4387
43445SOL     OW36297   4.039   0.341  11.064 -0.0535  0.1659  0.3969
43445SOL    HW136298   3.958   0.384  11.037  0.2611  0.6339  0.1798
43445SOL    HW236299   4.082   0.405  11.121  1.0525  0.7122 -0.9797
43446SOL     OW36300  10.611   5.728   8.259 -0.3799  0.1569  0.2189
43446SOL    HW136301  10.609   5.793   8.330 -2.9453  0.9008 -0.4070
43446SOL    HW236302  10.629   5.645   8.303 -1.5016  0.6633  1.7304
43447SOL     OW36303   5.607   1.886   3.638 -0.1470 -0.6078  0.1170
43447SOL    HW136304   5.572   1.805   3.600  1.2765 -1.8671  1.3468
43447SOL    HW236305   5.555   1.955   3.599 -2.4429 -2.2114  0.1156
43448SOL     OW36306   5.899   4.112   9.956 -0.2537  0.1093  0.8863
43448SOL    HW136307   5.971   4.052   9.973 -0.9610 -0.4844  1.9253
43448SOL    HW236308   5.850   4.116  10.039 -0.3499  1.9706  0.7951
43449SOL     OW36309   3.902   4.051   8.830 -0.3677  0.1959  0.6789
43449SOL    HW136310   3.846   4.115   8.786  0.3792  0.2229 -0.2743
43449SOL    HW236311   3.841   3.998   8.881 -1.1679  0.7430  0.3327
43450SOL     OW36312   7.794   8.827  11.905  0.3430 -0.1448  0.2551
43450SOL    HW136313   7.736   8.758  11.939  2.2555 -2.3998 -0.7740
43450SOL    HW236314   7.747   8.861  11.829 -0.7460 -0.0964  0.9159
43451SOL     OW36315  11.804   3.602   3.609  0.0737  0.3852 -0.5982
43451SOL    HW136316  11.726   3.636   3.653  0.3753  0.0377  0.2077
43451SOL    HW236317  11.846   3.680   3.572  0.2549  0.7868  0.4364
43452SOL     OW36318   1.299   4.447  11.658 -0.1190 -0.1586 -0.2509
43452SOL    HW136319   1.363   4.518  11.660 -1.1215  0.7679  0.6552
43452SOL    HW236320   1.332   4.386  11.593  0.7608  1.1716 -1.0981
43453SOL     OW36321   4.441  10.470   3.553 -0.4485  0.2976 -0.0359
43453SOL    HW136322   4.383  10.475   3.478 -0.4143  0.6160 -0.0413
43453SOL    HW236323   4.413  10.391   3.600  1.3566 -1.5649 -1.8933
43454SOL     OW36324   5.418   6.307  10.509  0.7959 -0.5575 -0.8080
43454SOL    HW136325   5.408   6.220  10.471 -0.3026 -1.5832  1.6244
43454SOL    HW236326   5.330   6.330  10.540  1.2997  0.9307 -0.3760
43455SOL     OW36327  11.608  11.467   7.624 -0.1399 -0.3144 -0.8772
43455SOL    HW136328  11.634  11.438   7.537 -0.3365 -0.0367 -1.0321
43455SOL    HW236329  11.514  11.450   7.628  0.3315 -3.1112  0.3954
43456SOL     OW36330  10.569  10.424   7.664 -0.0757  0.3104  0.2942
43456SOL    HW136331  10.658  10.389   7.669  0.3694  0.8794 -2.4038
43456SOL    HW236332  10.515  10.350   7.635 -0.5511 -0.0215  1.8743
43457SOL     OW36333   5.633   2.208  10.123 -0.0370  0.1300  0.8158
43457SOL    HW136334   5.644   2.302  10.135  0.1782  0.0563  1.1961
43457SOL    HW236335   5.553   2.200  10.071  0.9571  0.6192 -0.9087
43458SOL     OW36336   8.408   4.381   9.222  1.0002 -0.0105 -0.3628
43458SOL    HW136337   8.467   4.348   9.290 -0.6319  2.2749  2.3536
43458SOL    HW236338   8.344   4.311   9.210  1.3551 -0.4755  0.3756
43459SOL     OW36339   2.333  11.792   4.577  0.3662  0.1287  0.3302
43459SOL    HW136340   2.298  11.849   4.646 -2.8818 -1.9731  0.6551
43459SOL    HW236341   2.351  11.850   4.504 -0.4599  1.8597  1.4371
43460SOL     OW36342  10.696   4.308   3.080 -0.3344  0.3126 -0.4974
43460SOL    HW136343  10.750   4.282   3.154 -0.1137  1.3822 -0.2649
43460SOL    HW236344  10.730   4.393   3.054 -0.5902  0.0732 -1.6580
43461SOL     OW36345   7.220   3.836   4.634 -0.1945 -0.2601 -0.0077
43461SOL    HW136346   7.189   3.920   4.668  0.4107 -0.3318  0.7508
43461SOL    HW236347   7.220   3.847   4.539 -2.9900 -0.4278 -0.1088
43462SOL     OW36348   8.676   3.753   6.644  0.4201 -0.0220 -0.2104
43462SOL    HW136349   8.595   3.720   6.682 -0.1319  0.7066 -0.7162
43462SOL    HW236350   8.734   3.677   6.640 -0.6234 -0.8173 -0.8565
43463SOL     OW36351  11.920   3.061   8.712 -0.2634  0.4821 -0.5361
43463SOL    HW136352  11.856   3.100   8.654  2.0580 -0.4520 -4.0537
43463SOL    HW236353  11.909   2.966   8.700 -0.0973  0.2288  1.0740
43464SOL     OW36354   7.009   3.651   4.650  0.4193  0.0260  0.2208
43464SOL    HW136355   7.040   3.592   4.581  0.0902 -0.7799  0.7430
43464SOL    HW236356   7.087   3.669   4.703  0.3161 -0.8677  0.7119
43465SOL     OW36357  10.243   2.749  12.101  0.3611  0.0753  0.2505
43465SOL    HW136358  10.286   2.684  12.045  1.1185  0.5542  0.2705
43465SOL    HW236359  10.278   2.833  12.071 -0.8780  0.5234 -0.0250
43466SOL     OW36360   1.737  11.427   2.200  0.0594  0.1580  0.1406
43466SOL    HW136361   1.731  11.514   2.238  0.2588  0.1654  0.1565
43466SOL    HW236362   1.655  11.384   2.224 -0.7875  0.9089 -1.3098
43467SOL     OW36363  10.805  10.630  10.035 -0.7518  0.2666 -0.6036
43467SOL    HW136364  10.818  10.595   9.947 -0.7658 -2.3801  0.3630
43467SOL    HW236365  10.733  10.692  10.026  0.0911  1.0077 -2.6607
43468SOL     OW36366  10.803   0.183   3.600 -0.2802 -0.1803 -0.1391
43468SOL    HW136367  10.731   0.120   3.598 -0.4836  0.0598 -1.5501
43468SOL    HW236368  10.780   0.243   3.670  0.4175 -2.1927  1.9579
43469SOL     OW36369   8.100   3.150   9.994  0.4933  0.0004 -0.1719
43469SOL    HW136370   8.190   3.173  10.018  0.3381 -0.1143  0.5600
43469SOL    HW236371   8.076   3.211   9.924  1.4002 -0.4681 -0.9080
43470SOL     OW36372  12.161  10.813   7.062 -0.4754 -0.0881 -0.0506
43470SOL    HW136373  12.145  10.723   7.088  1.3874 -0.6435 -0.6742
43470SOL    HW236374  12.149  10.814   6.967  1.9214 -0.3138 -0.4110
43471SOL     OW36375   3.504   3.760   3.592 -0.1012  0.8119 -0.1285
43471SOL    HW136376   3.517   3.676   3.636  0.1701  0.8694 -0.0962
43471SOL    HW236377   3.590   3.782   3.556 -0.2085  0.9965 -0.2792
43472SOL     OW36378   6.026   3.043   9.426 -0.1478  0.1881 -0.1298
43472SOL    HW136379   5.950   3.100   9.416 -0.1284  0.4456  1.0116
43472SOL    HW236380   6.049   3.018   9.337 -1.6633 -0.0261 -0.4962
43473SOL     OW36381   5.170   7.766   3.572 -0.7129  0.0786  0.4647
43473SOL    HW136382   5.215   7.805   3.497 -2.2222  0.6126 -0.2055
43473SOL    HW236383   5.094   7.722   3.534 -0.9481 -0.5277  1.5863
43474SOL     OW36384   7.950  11.547  12.158 -0.1820 -0.1612  0.2281
43474SOL    HW136385   7.997  11.515  12.235 -0.7792  0.5184  0.9009
43474SOL    HW236386   7.942  11.471  12.101  0.4245 -0.6343  0.7601
43475SOL     OW36387  10.387   3.017   4.609  0.1105 -0.5778 -0.7479
43475SOL    HW136388  10.404   3.098   4.657  0.1711 -0.2898 -1.2460
43475SOL    HW236389  10.320   2.972   4.660  0.9734 -0.8065  0.2014
43476SOL     OW36390   5.694   0.332   0.678  0.0093 -0.3116 -0.5245
43476SOL    HW136391   5.752   0.259   0.659  0.6527 -0.0970  0.5739
43476SOL    HW236392   5.674   0.324   0.771  0.7177  1.3308 -0.1859
43477SOL     OW36393  11.861   9.394   4.783 -0.0874  0.1640  0.0802
43477SOL    HW136394  11.869   9.458   4.712  1.6743  2.0468  1.8310
43477SOL    HW236395  11.949   9.358   4.793 -0.6072 -1.0593  0.4791
43478SOL     OW36396   1.283  11.685  11.449  0.0839  0.6258  0.6567
43478SOL    HW136397   1.304  11.626  11.376 -0.1866  1.1509  0.1444
43478SOL    HW236398   1.191  11.668  11.468 -0.0206  0.9459  0.4449
43479SOL     OW36399   6.582   3.871   6.224 -0.0063  1.6868  0.4278
43479SOL    HW136400   6.650   3.898   6.286  1.3252  1.9409 -1.0848
43479SOL    HW236401   6.608   3.909   6.141 -1.3340  0.7137 -0.4898
43480SOL     OW36402   5.586   5.222   1.276  0.0012  0.2941 -0.1952
43480SOL    HW136403   5.607   5.167   1.352 -0.5103 -0.5622 -0.6575
43480SOL    HW236404   5.607   5.167   1.201 -1.2686  0.4427 -0.6730
43481SOL     OW36405  12.319   2.777   4.730 -0.6229 -0.3160  0.3943
43481SOL    HW136406  12.398   2.737   4.695  0.0465  1.6493 -0.4813
43481SOL    HW236407  12.247   2.728   4.689  0.1408 -0.9905 -0.1696
43482SOL     OW36408   3.020  12.205   2.242 -0.1225  0.7025  0.0592
43482SOL    HW136409   2.978  12.156   2.172 -0.3488 -0.6884  1.1278
43482SOL    HW236410   3.112  12.209   2.216  0.1621 -1.4401  0.5239
43483SOL     OW36411   1.137  10.266   6.104  0.5088  0.1422 -0.3805
43483SOL    HW136412   1.057  10.262   6.157  1.8339 -1.2768  1.6398
43483SOL    HW236413   1.146  10.178   6.068  1.1060  0.3397 -0.7192
43484SOL     OW36414   6.168   9.277  10.813  0.3414 -0.1870  0.0836
43484SOL    HW136415   6.113   9.265  10.890  0.5241 -4.8396 -0.2709
43484SOL    HW236416   6.258   9.273  10.847  0.5604  2.3422  0.0266
43485SOL     OW36417  10.056   7.527   2.351 -0.2336  0.5837 -0.6972
43485SOL    HW136418   9.970   7.492   2.377 -0.5070  1.6326 -0.1042
43485SOL    HW236419  10.052   7.531   2.256  0.4573 -2.5367 -0.9737
43486SOL     OW36420   1.186   7.214   2.025 -0.0581 -0.3083 -0.0208
43486SOL    HW136421   1.131   7.285   1.992 -1.0352 -1.1504 -0.2515
43486SOL    HW236422   1.273   7.233   1.990  0.4761  2.4510  2.4328
43487SOL     OW36423  12.408   6.205   8.435  0.3901 -0.6128  0.9242
43487SOL    HW136424  12.361   6.168   8.509 -1.0157  1.4443  1.1422
43487SOL    HW236425  12.464   6.134   8.404 -3.1160 -3.4511  0.3751
43488SOL     OW36426   7.901   9.322   1.569  0.6905 -0.2293  0.2416
43488SOL    HW136427   7.936   9.271   1.642  2.0601 -0.1092 -0.3015
43488SOL    HW236428   7.911   9.413   1.597  1.7407 -0.1698 -0.3228
43489SOL     OW36429   5.203   1.449   4.687 -0.1001 -0.3551  0.3523
43489SOL    HW136430   5.247   1.394   4.752 -0.8200  0.0206  1.1873
43489SOL    HW236431   5.144   1.390   4.641 -0.1450 -0.4813  0.5703
43490SOL     OW36432   5.565  10.906   1.028  0.4102  0.1307 -0.7703
43490SOL    HW136433   5.523  10.895   1.113  0.4744  0.4986 -0.6886
43490SOL    HW236434   5.656  10.882   1.043  0.3291 -0.2171 -0.8363
43491SOL     OW36435   9.173   8.061   5.091 -0.8648  0.3294  0.0015
43491SOL    HW136436   9.241   7.995   5.077 -0.7238  0.0597  1.7386
43491SOL    HW236437   9.096   8.011   5.117 -0.6980  0.8204  1.5541
43492SOL     OW36438   4.900   0.060   3.575 -0.2410 -0.0778  0.1451
43492SOL    HW136439   4.889   0.052   3.670 -1.0192  1.4767  0.2112
43492SOL    HW236440   4.994   0.060   3.562 -0.1066  0.6197  1.0092
43493SOL     OW36441   4.247  11.627   8.474 -0.0456 -0.0659  0.1645
43493SOL    HW136442   4.280  11.560   8.414  0.2339 -0.3048  0.5779
43493SOL    HW236443   4.191  11.578   8.535  1.1538 -0.1397  1.2308
43494SOL     OW36444   0.998   5.932   6.561 -0.0254 -0.7555  0.4125
43494SOL    HW136445   0.963   5.915   6.474  2.8024  0.0494 -1.0207
43494SOL    HW236446   1.077   5.878   6.566  0.0968 -0.4800  2.3323
43495SOL     OW36447   2.545   8.719   2.249  0.1366  0.3460 -1.2792
43495SOL    HW136448   2.458   8.680   2.236  0.0636  0.4947 -1.2368
43495SOL    HW236449   2.603   8.644   2.262 -0.1233  0.2707 -0.5075
43496SOL     OW36450   5.850   0.734   0.422  0.3146 -0.1006  0.1180
43496SOL    HW136451   5.795   0.667   0.464  0.7459 -0.9138 -0.5766
43496SOL    HW236452   5.922   0.748   0.483  0.4199 -0.5568  0.1034
43497SOL     OW36453   6.057  11.359   3.967 -0.2081  0.5899  0.0867
43497SOL    HW136454   6.148  11.381   3.987 -0.3800  1.0815  0.3519
43497SOL    HW236455   6.029  11.428   3.907 -0.3765  0.3823 -0.0722
43498SOL     OW36456   2.306   2.456   4.672 -0.6700 -0.2919  0.2858
43498SOL    HW136457   2.266   2.517   4.610  0.2032  0.7705  0.7567
43498SOL    HW236458   2.236   2.436   4.734 -0.8369  0.5936  0.3963
43499SOL     OW36459   9.395   7.039   2.887 -0.4558  0.5747  0.2521
43499SOL    HW136460   9.439   7.035   2.802 -0.7682 -0.4353  0.1314
43499SOL    HW236461   9.352   7.125   2.887  0.1691  0.9030 -0.2917
43500SOL     OW36462   1.696   1.658   0.751  0.3776  0.5198 -0.2488
43500SOL    HW136463   1.649   1.598   0.809  0.7255 -0.1707 -0.6726
43500SOL    HW236464   1.728   1.727   0.809 -1.0153  0.9280  0.0760
43501SOL     OW36465   8.747   9.337   3.170 -0.1921  0.1550 -0.1747
43501SOL    HW136466   8.694   9.287   3.231  0.5614  0.8799  1.1130
43501SOL    HW236467   8.824   9.282   3.154 -0.1710  0.1678 -0.1171
43502SOL     OW36468   5.767   9.427   0.116  0.0938 -0.5295 -0.0331
43502SOL    HW136469   5.756   9.511   0.160 -0.2560 -1.2842  1.3689
43502SOL    HW236470   5.677   9.398   0.099  0.1980 -0.9564  0.1459
43503SOL     OW36471   2.740   6.839   7.167 -0.7282  0.1660 -0.0865
43503SOL    HW136472   2.767   6.755   7.205 -1.0959 -0.4248 -1.0810
43503SOL    HW236473   2.821   6.891   7.164 -0.3160 -0.4680 -0.2457
43504SOL     OW36474   2.596   0.534   3.195 -0.1507 -0.2410 -0.5142
43504SOL    HW136475   2.616   0.628   3.192 -0.3783 -0.2053 -1.1192
43504SOL    HW236476   2.676   0.494   3.230 -0.3153  0.2457  0.4396
43505SOL     OW36477   7.982   2.355   1.326  0.7608 -0.1001 -0.3500
43505SOL    HW136478   8.022   2.272   1.352  0.9605  0.2896  0.6148
43505SOL    HW236479   7.906   2.330   1.274  0.7513 -0.8875  0.0292
43506SOL     OW36480   1.552  10.728   2.786  0.1112  0.3368  0.0427
43506SOL    HW136481   1.607  10.733   2.707  0.7455  0.6972  0.4964
43506SOL    HW236482   1.614  10.707   2.856 -0.5703 -0.8303  0.3219
43507SOL     OW36483   9.174   5.839   8.601 -0.0814  0.3972 -0.1398
43507SOL    HW136484   9.085   5.820   8.631  0.4976 -2.6226  0.0176
43507SOL    HW236485   9.170   5.930   8.571 -2.5160  1.2655  2.3143
43508SOL     OW36486   9.022   1.816   3.451  0.1516 -0.0260  0.2542
43508SOL    HW136487   8.992   1.813   3.542  1.0638  2.6452  0.7375
43508SOL    HW236488   9.109   1.856   3.456  0.1081  0.4299 -1.7969
43509SOL     OW36489   2.691   1.737   8.941  0.5359  0.3505 -0.4957
43509SOL    HW136490   2.675   1.669   9.006 -1.0177  0.7343 -0.4325
43509SOL    HW236491   2.766   1.706   8.890  1.4936 -0.1643  1.1788
43510SOL     OW36492   1.871   2.805   5.787 -0.0322 -0.3287  0.3421
43510SOL    HW136493   1.903   2.715   5.787  1.1817  0.0773  0.6640
43510SOL    HW236494   1.900   2.841   5.703 -0.4853 -0.2195  0.2276
43511SOL     OW36495  10.775   6.476   5.179  0.1668 -0.2592 -0.5183
43511SOL    HW136496  10.788   6.413   5.249  0.9145  1.8093  1.3439
43511SOL    HW236497  10.682   6.499   5.185  0.7259  1.8790  1.7460
43512SOL     OW36498  11.837   0.535   3.737  0.0234  0.5968 -0.2363
43512SOL    HW136499  11.928   0.552   3.715  0.2008  0.7774  0.6014
43512SOL    HW236500  11.797   0.505   3.655  0.8213  0.5569 -0.6141
43513SOL     OW36501   7.761   2.532   8.881 -0.2258 -0.0457  0.3669
43513SOL    HW136502   7.671   2.560   8.902 -1.2614 -2.7084 -0.0425
43513SOL    HW236503   7.791   2.488   8.961  0.2747 -0.1273  0.1354
43514SOL     OW36504  11.180   1.194   9.572  0.3731 -0.1388 -0.4533
43514SOL    HW136505  11.217   1.121   9.622  0.9505  0.2819 -0.2550
43514SOL    HW236506  11.109   1.155   9.521  2.2096 -1.3486 -2.2224
43515SOL     OW36507   0.884   5.191   5.018 -0.0183  0.0862 -0.0362
43515SOL    HW136508   0.899   5.252   5.090 -3.4760  0.5295  0.4415
43515SOL    HW236509   0.923   5.109   5.047 -0.3205  0.5648  1.8282
43516SOL     OW36510   0.823  11.896   2.355 -0.2416  0.1083  0.2627
43516SOL    HW136511   0.837  11.902   2.260  1.4240 -2.0046  0.3002
43516SOL    HW236512   0.742  11.944   2.370 -0.8548  0.0266 -2.3076
43517SOL     OW36513   8.501   2.156  10.625  0.4117 -0.3405 -0.3330
43517SOL    HW136514   8.500   2.245  10.589  0.4408 -0.5843 -0.9472
43517SOL    HW236515   8.520   2.100  10.550  2.1455 -0.7274  0.3503
43518SOL     OW36516   5.484   0.136   1.462 -0.2618  0.6300  0.0647
43518SOL    HW136517   5.489   0.041   1.450 -2.0340  0.4921  0.1569
43518SOL    HW236518   5.547   0.154   1.532  0.4947 -0.3859 -0.3286
43519SOL     OW36519   1.161   7.865   6.503  0.1411 -0.0448 -0.1568
43519SOL    HW136520   1.068   7.874   6.521  0.3521  2.8425 -0.1324
43519SOL    HW236521   1.167   7.868   6.407  0.3466  2.6444 -0.1266
43520SOL     OW36522   5.868   1.674   9.314  0.2552  0.5749  0.6822
43520SOL    HW136523   5.953   1.700   9.280  0.0721  0.5963  0.2374
43520SOL    HW236524   5.886   1.644   9.403  0.8503 -0.2210  0.2976
43521SOL     OW36525   6.702  10.686  11.478  0.1185  0.1026 -0.7762
43521SOL    HW136526   6.781  10.709  11.430 -0.3093  0.3663 -1.3602
43521SOL    HW236527   6.634  10.680  11.411 -0.1419 -1.1795 -0.4220
43522SOL     OW36528   7.967   6.347   9.707 -0.1674 -0.2097 -0.2359
43522SOL    HW136529   8.017   6.353   9.626  1.5071 -1.3486  0.6598
43522SOL    HW236530   7.982   6.432   9.750 -0.4392  0.1095 -0.7702
43523SOL     OW36531   0.984  10.304  11.907  0.3737 -0.4150  0.1197
43523SOL    HW136532   1.014  10.378  11.855  2.9190 -2.0251 -0.8710
43523SOL    HW236533   1.005  10.328  11.997  1.9309 -0.1856 -0.2682
43524SOL     OW36534   0.247  10.959  11.269  0.0827 -0.3646 -0.3298
43524SOL    HW136535   0.289  10.896  11.210  1.5189 -0.8080  1.0786
43524SOL    HW236536   0.211  11.026  11.211  0.4696 -1.3369 -1.7554
43525SOL     OW36537   3.013  12.385   9.867  0.0191  0.0010  0.2256
43525SOL    HW136538   3.009  12.416   9.776 -0.5862  2.6411  1.0652
43525SOL    HW236539   2.922  12.361   9.888 -0.1497  0.9744  0.6253
43526SOL     OW36540   3.349  12.085   7.009  0.1050  0.3220  0.4855
43526SOL    HW136541   3.326  12.059   7.098 -1.5723  1.2441  0.3664
43526SOL    HW236542   3.400  12.165   7.021  1.1316 -0.3386  0.6519
43527SOL     OW36543   4.108   9.532   6.044  0.8536 -0.0142  0.0733
43527SOL    HW136544   4.075   9.585   6.116  0.0192 -0.4356  0.0102
43527SOL    HW236545   4.180   9.482   6.082 -0.9148 -1.8599  1.2511
43528SOL     OW36546   2.853   5.721   3.609 -0.0515 -0.1895  0.0289
43528SOL    HW136547   2.856   5.701   3.516  1.4494  0.6480 -0.1313
43528SOL    HW236548   2.787   5.790   3.617 -0.4015 -0.4717 -0.3490
43529SOL     OW36549   6.414   4.649  10.464 -0.5800 -0.4114 -0.2256
43529SOL    HW136550   6.357   4.593  10.516 -0.1449  0.5248  1.3275
43529SOL    HW236551   6.464   4.588  10.409 -1.1940 -1.4219  0.3088
43530SOL     OW36552  10.965   9.118   1.623  0.4447 -0.6847  0.1939
43530SOL    HW136553  10.948   9.211   1.636 -1.3107 -1.0906  1.1841
43530SOL    HW236554  11.023   9.114   1.547 -0.9957  1.1435 -1.0975
43531SOL     OW36555   7.023  10.362   8.861  0.8791 -0.3144  0.4506
43531SOL    HW136556   7.012  10.454   8.837  4.1345  0.0039 -0.2508
43531SOL    HW236557   7.095  10.362   8.924 -0.3956 -2.2328  2.0143
43532SOL     OW36558   4.292  11.598   9.304  0.1386 -0.5230 -0.7686
43532SOL    HW136559   4.235  11.667   9.338 -1.6839 -0.4150 -3.6626
43532SOL    HW236560   4.236  11.521   9.297  0.9359 -1.0504 -1.6484
43533SOL     OW36561  11.112   4.557  10.173 -0.0325 -0.3012 -0.1139
43533SOL    HW136562  11.022   4.528  10.154 -0.1012 -0.3722  0.3144
43533SOL    HW236563  11.120   4.640  10.126 -1.0213  0.7660  1.4919
43534SOL     OW36564   9.640   8.338   9.390  0.0097 -0.0293  0.2131
43534SOL    HW136565   9.577   8.275   9.353 -0.8093 -0.0268  1.5321
43534SOL    HW236566   9.590   8.419   9.398  0.1650 -0.0185  1.2566
43535SOL     OW36567   2.226   7.535  11.256 -0.3669 -0.1619 -0.6690
43535SOL    HW136568   2.216   7.630  11.251 -0.5235 -0.2505 -2.8281
43535SOL    HW236569   2.308   7.522  11.305  1.6293  1.2456 -3.3555
43536SOL     OW36570   4.341   5.111   7.708 -0.0218 -0.1830 -0.3712
43536SOL    HW136571   4.411   5.060   7.667  0.0399 -0.3326 -0.0831
43536SOL    HW236572   4.372   5.201   7.706  0.5400 -0.3501  0.4927
43537SOL     OW36573   4.683  11.694   7.075 -0.2481 -0.4017  0.3927
43537SOL    HW136574   4.719  11.664   7.159 -0.4313 -1.9756 -0.0612
43537SOL    HW236575   4.640  11.617   7.039 -1.5345  0.6752 -0.4405
43538SOL     OW36576   8.428   6.983   1.158 -0.0042 -0.1266  0.6432
43538SOL    HW136577   8.407   6.936   1.078  0.0974  1.8662 -0.6137
43538SOL    HW236578   8.522   6.996   1.155  0.7755 -3.5857  3.2046
43539SOL     OW36579   6.270   1.153   4.919 -0.3958 -0.0987  0.6097
43539SOL    HW136580   6.331   1.182   4.987 -0.1868  0.2562  0.2791
43539SOL    HW236581   6.300   1.199   4.840 -1.4586  0.5690  0.5718
43540SOL     OW36582  11.626  10.496   7.725  0.1300  0.2142 -0.0634
43540SOL    HW136583  11.632  10.420   7.667  0.9040  0.8885 -0.8802
43540SOL    HW236584  11.585  10.564   7.672 -1.4774  0.1173  0.9612
43541SOL     OW36585   5.059   1.422   3.488  0.0989  0.0983 -0.2449
43541SOL    HW136586   4.999   1.489   3.521 -0.3846 -0.5386  0.1850
43541SOL    HW236587   5.002   1.355   3.450  0.5416 -0.4377  0.0237
43542SOL     OW36588  10.955   2.784   5.692 -0.6579 -0.5856  0.2266
43542SOL    HW136589  10.864   2.752   5.696 -1.3442  1.2824  0.3991
43542SOL    HW236590  10.967   2.832   5.774  0.1316  0.1049 -0.2790
43543SOL     OW36591   0.145   5.793   5.201 -0.4528 -0.4905  0.0667
43543SOL    HW136592   0.213   5.860   5.198  0.5998 -1.5255 -0.1437
43543SOL    HW236593   0.063   5.840   5.186  0.2156  0.7906  0.3374
43544SOL     OW36594   6.440   4.593   9.012 -0.0601 -0.4335  0.1042
43544SOL    HW136595   6.505   4.535   8.972 -0.7648  0.4644 -2.5162
43544SOL    HW236596   6.484   4.677   9.019 -0.4070 -0.2324 -0.1156
43545SOL     OW36597   4.190   4.372   7.899  0.0398 -0.1428  0.5092
43545SOL    HW136598   4.166   4.281   7.913  0.0906  0.0381  1.9310
43545SOL    HW236599   4.110   4.414   7.868 -0.2192 -0.4862  0.7109
43546SOL     OW36600  11.326   9.475   3.961  0.3309 -0.3980 -0.4947
43546SOL    HW136601  11.299   9.395   4.004  1.7636 -0.5565  0.1451
43546SOL    HW236602  11.408   9.453   3.917 -1.1663 -0.3439 -3.6291
43547SOL     OW36603  11.092   3.233   3.691 -0.4189 -0.0278  0.1088
43547SOL    HW136604  11.159   3.165   3.682 -1.1745 -0.6826 -0.8926
43547SOL    HW236605  11.084   3.246   3.785  1.5983  0.5833  0.2328
43548SOL     OW36606   6.965   1.182   4.009 -0.2526  0.1109 -0.4605
43548SOL    HW136607   6.906   1.254   4.028  1.9838  1.8042  0.5164
43548SOL    HW236608   6.997   1.153   4.094  0.6465 -0.4589 -0.9694
43549SOL     OW36609   4.916   7.501   6.118 -0.2676 -0.0776  0.0906
43549SOL    HW136610   4.864   7.480   6.196  0.8470  2.8939  1.7677
43549SOL    HW236611   4.960   7.583   6.139  1.2752  0.0853 -3.1482
43550SOL     OW36612   6.967   5.952   7.682 -0.2155  0.6744 -0.3629
43550SOL    HW136613   6.901   6.019   7.699  0.5202  1.5519 -0.8266
43550SOL    HW236614   6.974   5.949   7.587 -0.1362  0.0406 -0.3388
43551SOL     OW36615   1.908   1.921   2.918  0.2341  0.3234 -0.0058
43551SOL    HW136616   1.891   1.933   3.011  0.1715 -0.0085  0.0261
43551SOL    HW236617   1.824   1.890   2.883 -0.6265  3.0406 -0.6716
43552SOL     OW36618   9.444  11.019   9.801 -0.0465  0.2801  0.1813
43552SOL    HW136619   9.355  11.026   9.765  0.2273  1.1458 -0.3682
43552SOL    HW236620   9.474  11.110   9.809  1.3403 -0.0134 -1.0877
43553SOL     OW36621   8.296   1.126   5.178 -0.2455  0.0666 -0.4244
43553SOL    HW136622   8.340   1.207   5.153  0.2314  0.6090  1.8692
43553SOL    HW236623   8.231   1.153   5.243  0.4249 -1.4259  0.9349
43554SOL     OW36624   4.607   6.527   3.718  0.2148  0.6946 -0.1877
43554SOL    HW136625   4.587   6.457   3.656  0.7993  1.2298 -1.0012
43554SOL    HW236626   4.619   6.605   3.664  1.6410  0.9812  0.4967
43555SOL     OW36627   4.721   9.232  10.337  0.0623 -0.0086  0.1707
43555SOL    HW136628   4.774   9.157  10.310 -2.7615 -2.5676  1.1717
43555SOL    HW236629   4.670   9.255  10.258  0.8467  0.8475 -0.1051
43556SOL     OW36630   8.610  10.093   9.820 -0.1002  0.1865 -0.5144
43556SOL    HW136631   8.622  10.110   9.914 -2.3325 -0.5245 -0.0277
43556SOL    HW236632   8.698  10.080   9.786  0.7101 -0.9184  1.7787
43557SOL     OW36633   4.124   2.580  11.887  0.7246 -0.3121  0.3636
43557SOL    HW136634   4.102   2.663  11.929 -0.7144 -0.7617  0.5538
43557SOL    HW236635   4.148   2.604  11.797 -1.5679  0.1885 -0.1779
43558SOL     OW36636   2.749   3.010   7.415 -0.3435 -0.2221 -0.1892
43558SOL    HW136637   2.692   3.082   7.439  0.6870 -0.3806  3.2234
43558SOL    HW236638   2.818   3.051   7.362 -0.5442  1.0542  0.4927
43559SOL     OW36639   0.439  12.065   1.575 -0.1558 -0.0565  0.1855
43559SOL    HW136640   0.531  12.088   1.593  0.3339 -2.4051  0.9771
43559SOL    HW236641   0.440  11.971   1.561 -2.4860 -0.1625  0.3508
43560SOL     OW36642  10.457   0.990   7.014 -0.0355  0.1060  0.1399
43560SOL    HW136643  10.384   0.969   6.956  0.8362 -5.0389  0.3975
43560SOL    HW236644  10.512   1.050   6.963 -2.7888  1.6557 -1.2603
43561SOL     OW36645  12.183   8.034   7.470  0.2085  0.9827 -0.5512
43561SOL    HW136646  12.235   8.077   7.537 -1.7415  0.0847  1.6989
43561SOL    HW236647  12.228   7.952   7.453  0.4749  1.0042  0.0324
43562SOL     OW36648  10.126   9.586   6.744 -0.4101  0.6491 -0.1065
43562SOL    HW136649  10.062   9.555   6.809 -0.8680  1.5765 -0.0983
43562SOL    HW236650  10.145   9.676   6.770 -0.8581  1.1586 -1.4385
43563SOL     OW36651   3.089   5.263   7.228 -0.1279 -0.1980  0.1944
43563SOL    HW136652   3.153   5.208   7.182 -1.5303 -1.0761 -0.7751
43563SOL    HW236653   3.019   5.277   7.164 -0.1469  2.1828  0.6438
43564SOL     OW36654   1.465   4.756   4.834  0.6012 -0.1264 -0.1566
43564SOL    HW136655   1.539   4.770   4.893  2.3189 -0.2684 -2.1295
43564SOL    HW236656   1.420   4.840   4.830 -0.7812 -0.6065  2.7692
43565SOL     OW36657  11.182   6.053  10.918  0.2219 -0.0067  0.1099
43565SOL    HW136658  11.176   5.973  10.971 -0.2878 -0.5044 -0.6947
43565SOL    HW236659  11.209   6.121  10.981 -0.3452 -0.5900  0.9994
43566SOL     OW36660   6.152  12.227   3.830  0.1874  0.3865  1.1058
43566SOL    HW136661   6.222  12.252   3.770 -0.8140 -0.3184 -0.4262
43566SOL    HW236662   6.092  12.174   3.777  0.3739 -2.2376  3.2566
43567SOL     OW36663  10.827   6.508  10.048  1.1174 -0.3415 -0.2876
43567SOL    HW136664  10.888   6.579  10.069 -0.9491  0.9123  1.9075
43567SOL    HW236665  10.834   6.447  10.122  0.7198 -0.9101 -0.7091
43568SOL     OW36666   2.715   6.844   4.462  0.3866  1.2237 -0.2358
43568SOL    HW136667   2.731   6.935   4.435  0.8960  1.0794 -0.4270
43568SOL    HW236668   2.689   6.800   4.381  0.9252  1.0167 -0.2956
43569SOL     OW36669  10.455   8.050   3.353  0.2329 -0.3210  0.1856
43569SOL    HW136670  10.411   8.130   3.324  1.0187  0.9245  2.1933
43569SOL    HW236671  10.391   7.981   3.340 -0.5394  0.6376 -1.4221
43570SOL     OW36672  10.593   9.762   6.948 -0.0244  0.3943 -0.3233
43570SOL    HW136673  10.576   9.741   6.856 -1.1344 -1.2743  0.2106
43570SOL    HW236674  10.619   9.854   6.947  1.7775 -0.0641 -2.4856
43571SOL     OW36675   5.022   8.380   9.373 -0.9974 -0.2668 -0.4785
43571SOL    HW136676   4.931   8.382   9.344 -0.9776 -0.7266 -0.5792
43571SOL    HW236677   5.054   8.294   9.347 -1.2485 -1.1052  1.7989
43572SOL     OW36678   4.731   4.167  12.403 -0.1220  0.1784 -0.9852
43572SOL    HW136679   4.730   4.099  12.336  0.4217 -1.9186  1.0021
43572SOL    HW236680   4.812   4.215  12.387  1.0561 -1.6082 -0.6493
43573SOL     OW36681   9.172   4.547   5.774  0.0270 -0.0163  0.8729
43573SOL    HW136682   9.083   4.569   5.747  0.5671  2.5100  0.8864
43573SOL    HW236683   9.173   4.559   5.869  0.6429  1.1585  0.7360
43574SOL     OW36684   3.690   1.512  10.434 -1.0541  0.0336  0.2971
43574SOL    HW136685   3.762   1.471  10.385 -0.8591 -0.3189  0.8710
43574SOL    HW236686   3.665   1.587  10.380 -1.1377 -0.5984 -0.5734
43575SOL     OW36687   5.819  12.449   6.078  0.3248 -0.1242  0.3600
43575SOL    HW136688   5.755  12.491   6.136 -0.4151 -0.1121 -0.4374
43575SOL    HW236689   5.812  12.356   6.097 -0.9023 -0.2646 -0.6248
43576SOL     OW36690  10.835   2.920  12.010 -0.1134  0.5734  0.2023
43576SOL    HW136691  10.794   2.835  11.991 -0.6891  1.1204 -1.1229
43576SOL    HW236692  10.850   2.919  12.104 -0.8473 -0.6863  0.3220
43577SOL     OW36693   1.013   8.893   7.928 -0.6023  0.3074 -0.0513
43577SOL    HW136694   1.027   8.862   8.017  1.0462  0.9046 -0.0753
43577SOL    HW236695   0.930   8.940   7.932 -1.5091 -1.2464  0.7149
43578SOL     OW36696   7.718   8.113  10.889 -0.4094 -0.8863 -0.0450
43578SOL    HW136697   7.651   8.165  10.843  0.8470 -0.3172 -1.3181
43578SOL    HW236698   7.792   8.173  10.899  0.7678 -2.1471 -0.7906
43579SOL     OW36699   3.286   1.203  12.402 -0.0674 -0.5349  0.3915
43579SOL    HW136700   3.319   1.156  12.325  2.1578 -0.7336  1.3752
43579SOL    HW236701   3.330   1.161  12.476 -0.3467  1.1402  1.5615
43580SOL     OW36702   8.525   8.808  10.805 -0.0656 -0.0179  0.1366
43580SOL    HW136703   8.609   8.837  10.770  0.3350 -0.2016  0.9202
43580SOL    HW236704   8.463   8.824  10.734  1.1531 -3.1111 -1.8489
43581SOL     OW36705   0.983   0.493  10.741  0.2924 -0.2247  0.5224
43581SOL    HW136706   1.072   0.459  10.734  0.0736 -0.5133 -1.7340
43581SOL    HW236707   0.960   0.517  10.651 -1.0486  2.1015  1.4087
43582SOL     OW36708   4.926   0.532  10.339 -0.4388 -0.0917 -0.1987
43582SOL    HW136709   4.873   0.471  10.287  0.2225 -0.1406 -0.8322
43582SOL    HW236710   5.006   0.542  10.289 -0.4047  1.0592  0.0663
43583SOL     OW36711  10.587   0.514   9.711 -0.5270  0.0447  0.3614
43583SOL    HW136712  10.667   0.473   9.679 -0.0163  1.7778 -0.7163
43583SOL    HW236713  10.592   0.504   9.806  0.5900 -0.5466  0.2606
43584SOL     OW36714   6.527   5.283   5.857 -0.2575 -0.0741  0.0424
43584SOL    HW136715   6.447   5.234   5.837 -0.8018  1.1192 -0.8793
43584SOL    HW236716   6.596   5.237   5.808 -0.7898  0.1621 -0.9606
43585SOL     OW36717   9.740  11.527  10.885 -0.0225  0.0169 -0.3505
43585SOL    HW136718   9.644  11.525  10.874  0.0283 -0.0445 -0.8059
43585SOL    HW236719   9.760  11.619  10.903  0.0713  0.5123 -2.6783
43586SOL     OW36720   5.570  12.218   9.934 -0.4200 -0.0101 -0.3459
43586SOL    HW136721   5.556  12.311   9.917  1.8084  0.7207  1.2972
43586SOL    HW236722   5.541  12.205  10.024 -1.1143 -1.0620 -0.6903
43587SOL     OW36723  10.861   3.204  11.101  0.3203 -0.4995  0.0985
43587SOL    HW136724  10.927   3.137  11.084 -0.2870 -1.0935 -0.0061
43587SOL    HW236725  10.898   3.284  11.066  0.8649 -0.8758 -0.2062
43588SOL     OW36726   3.530   9.194   2.578 -0.1710  0.0992  0.0004
43588SOL    HW136727   3.479   9.146   2.643 -0.3033  0.9625  0.5413
43588SOL    HW236728   3.481   9.183   2.497 -0.3129 -0.4882  0.1582
43589SOL     OW36729   0.154   9.162  10.870 -0.0324 -0.1494 -0.2360
43589SOL    HW136730   0.083   9.224  10.888 -0.2000 -0.0227 -1.3034
43589SOL    HW236731   0.233   9.216  10.869  0.5265 -0.6268  3.5727
43590SOL     OW36732  10.639   1.086   9.453 -0.1147  0.1311  0.3440
43590SOL    HW136733  10.725   1.046   9.468  0.6616  0.8759 -1.8085
43590SOL    HW236734  10.599   1.089   9.540  0.9486 -2.5979  1.0388
43591SOL     OW36735   6.912  10.612   5.399  0.4766  0.3039  0.8662
43591SOL    HW136736   6.902  10.669   5.476 -1.2739  0.0801  0.8345
43591SOL    HW236737   6.849  10.541   5.413  0.1121  0.2633 -0.7707
43592SOL     OW36738   8.313  12.025   2.095  0.6370  0.2841 -0.0563
43592SOL    HW136739   8.400  11.990   2.077  0.2823 -2.5565  2.8261
43592SOL    HW236740   8.322  12.067   2.181 -1.2574 -2.8332  1.8919
43593SOL     OW36741   8.322   6.793   3.816 -0.3977  0.3202 -0.1743
43593SOL    HW136742   8.231   6.824   3.817 -0.6037 -0.2815  0.3963
43593SOL    HW236743   8.347   6.789   3.908  0.3461  0.8378 -0.3373
43594SOL     OW36744   5.522   1.877  10.099 -0.5445 -0.8958  0.6220
43594SOL    HW136745   5.452   1.869  10.164 -0.5589 -1.0932  0.5829
43594SOL    HW236746   5.495   1.951  10.044 -1.0822 -1.4093  0.1751
43595SOL     OW36747   0.401   7.076  10.200  0.2066  0.2610  0.0050
43595SOL    HW136748   0.368   7.089  10.112  0.9041  0.1349 -0.2781
43595SOL    HW236749   0.439   7.161  10.224  1.5783 -0.1972 -0.4874
43596SOL     OW36750  12.213   3.659   8.663  0.2941 -0.1159 -0.7150
43596SOL    HW136751  12.178   3.745   8.685 -2.5343 -1.9334  3.0859
43596SOL    HW236752  12.306   3.665   8.684 -0.0922  1.6839  0.8014
43597SOL     OW36753   7.228   2.146   8.267 -0.4173 -0.1332 -0.4884
43597SOL    HW136754   7.139   2.127   8.296 -0.1373 -0.5167  0.1403
43597SOL    HW236755   7.248   2.079   8.202 -0.3087 -0.5207 -0.0574
43598SOL     OW36756  11.891   7.930  11.243 -0.1550  0.4635  0.3104
43598SOL    HW136757  11.971   7.925  11.191  0.3408 -0.2610  1.1322
43598SOL    HW236758  11.821   7.938  11.178  0.3141 -1.9443 -0.5917
43599SOL     OW36759   6.923   8.251   1.672 -0.3537 -0.1824 -0.2385
43599SOL    HW136760   6.979   8.187   1.716  1.5998 -0.0174 -2.3108
43599SOL    HW236761   6.834   8.223   1.693  0.4530 -2.3099  0.6585
43600SOL     OW36762   4.620   8.575   3.605  0.3494  0.1412 -0.3583
43600SOL    HW136763   4.641   8.531   3.687  0.0821 -1.2993 -1.0316
43600SOL    HW236764   4.581   8.507   3.550 -1.2450  1.5044 -1.0083
43601SOL     OW36765  10.084   2.999   2.911 -0.1149 -0.5063 -0.5315
43601SOL    HW136766  10.024   3.061   2.952  0.4928  0.8685 -1.6321
43601SOL    HW236767  10.082   2.922   2.968 -1.6893  0.1158  0.3054
43602SOL     OW36768   9.408   8.424   1.356  0.3611 -0.0244  0.0615
43602SOL    HW136769   9.420   8.448   1.264  1.2287 -0.9515 -0.0900
43602SOL    HW236770   9.352   8.492   1.392 -4.0325 -2.0283 -2.2827
43603SOL     OW36771   4.942   9.268   7.768  1.0300 -0.2211  0.0923
43603SOL    HW136772   5.018   9.310   7.727 -0.0826 -1.0757 -3.0796
43603SOL    HW236773   4.868   9.325   7.747  0.4372 -0.5482  1.2072
43604SOL     OW36774  10.592   8.566   2.953  0.1875 -0.0618 -0.4316
43604SOL    HW136775  10.614   8.642   2.899 -2.4479  1.4194  0.3966
43604SOL    HW236776  10.647   8.575   3.031  1.4325 -0.2388 -1.2627
43605SOL     OW36777   7.099   3.527  12.267 -0.4163  0.1447  0.1804
43605SOL    HW136778   7.091   3.611  12.220  1.1694  0.6876  0.8065
43605SOL    HW236779   7.095   3.461  12.198 -1.1637  0.7454 -0.3811
43606SOL     OW36780   8.302   7.591   9.779 -0.2279  0.9077  0.7158
43606SOL    HW136781   8.343   7.551   9.702 -2.2225 -1.1248  0.5951
43606SOL    HW236782   8.279   7.516   9.834 -1.4855  2.1302  1.9123
43607SOL     OW36783   8.953   0.216   3.142 -0.0770 -0.0389 -0.5909
43607SOL    HW136784   9.011   0.141   3.155 -1.2850 -1.2946 -2.0196
43607SOL    HW236785   8.920   0.237   3.229  3.4069  1.5541  0.4857
43608SOL     OW36786   6.362   3.250   8.923  0.0119 -0.2698  0.1197
43608SOL    HW136787   6.300   3.305   8.875 -0.7708 -2.2256 -1.2111
43608SOL    HW236788   6.351   3.163   8.886  0.1502 -1.6965  3.1339
43609SOL     OW36789   1.548   0.968   3.111 -0.4384 -0.1044 -0.5364
43609SOL    HW136790   1.493   0.960   3.189 -0.3071  1.6440 -0.2062
43609SOL    HW236791   1.547   0.881   3.071 -0.7094 -0.9772  1.2737
43610SOL     OW36792  10.106   5.073   9.177 -0.1962  0.4521  0.1229
43610SOL    HW136793  10.144   5.098   9.262  1.5091 -0.0347 -0.4468
43610SOL    HW236794  10.137   4.984   9.162  0.5335  0.9347 -1.5280
43611SOL     OW36795   3.413   9.847  12.374  0.1962  0.2598  0.4344
43611SOL    HW136796   3.453   9.849  12.287  0.7477 -0.4182  0.6589
43611SOL    HW236797   3.475   9.895  12.430  0.5981 -0.5891  0.7377
43612SOL     OW36798   5.305   7.757   5.280 -0.6303 -0.0902  0.1861
43612SOL    HW136799   5.220   7.747   5.237 -1.4225  0.7566  1.4813
43612SOL    HW236800   5.290   7.822   5.348  1.1895  0.4564  0.1377
43613SOL     OW36801  11.682  12.149   5.120  0.0125 -0.5913  0.1288
43613SOL    HW136802  11.638  12.191   5.046 -0.2698 -0.4458  0.3733
43613SOL    HW236803  11.611  12.110   5.170  0.1448 -0.2399  0.5994
43614SOL     OW36804  11.793   0.890   3.842  0.3656  1.2209 -0.4331
43614SOL    HW136805  11.722   0.834   3.873  0.7267 -0.7852 -2.9850
43614SOL    HW236806  11.760   0.979   3.857 -1.9320  0.3757  0.0644
43615SOL     OW36807  12.010   0.208   1.522  0.1116 -0.2796  0.3554
43615SOL    HW136808  11.917   0.197   1.506  0.2474 -0.7869 -0.0866
43615SOL    HW236809  12.036   0.280   1.465 -0.4948  1.5656  2.2664
43616SOL     OW36810   9.856   6.976  11.605 -0.0193  0.2172  0.3036
43616SOL    HW136811   9.871   6.921  11.682  3.2048  0.0591 -0.3141
43616SOL    HW236812   9.801   6.923  11.547  1.0813 -1.4388  0.7104
43617SOL     OW36813  12.427   2.492   8.565  0.2752  0.3596  0.5690
43617SOL    HW136814  12.455   2.554   8.633  0.0193  0.5602  0.4923
43617SOL    HW236815  12.341   2.524   8.537  0.5452  0.5011 -0.1198
43618SOL     OW36816   6.444   1.158   1.576  0.9816  0.1014 -0.1366
43618SOL    HW136817   6.351   1.139   1.586  1.2881 -0.3072  2.7200
43618SOL    HW236818   6.470   1.110   1.497 -1.2116  0.3286 -1.0655
43619SOL     OW36819   7.795  11.353   4.478  0.3015 -0.5385 -0.4050
43619SOL    HW136820   7.705  11.326   4.459 -0.0090  1.3278 -1.8735
43619SOL    HW236821   7.796  11.370   4.572 -1.0439 -0.0336 -0.4717
43620SOL     OW36822   4.665   3.237  12.418 -0.1616  0.6193  0.0621
43620SOL    HW136823   4.735   3.287  12.460 -0.3248 -0.1121  1.2575
43620SOL    HW236824   4.652   3.162  12.476 -1.4837  0.4012 -0.4992
43621SOL     OW36825   2.589   1.425   6.786  0.9086 -0.3116  0.0502
43621SOL    HW136826   2.539   1.491   6.737  1.4415 -0.0003 -0.0846
43621SOL    HW236827   2.677   1.429   6.749  1.2385 -0.3082  0.8095
43622SOL     OW36828   6.123   4.651   2.712 -0.2928 -0.2480  0.1522
43622SOL    HW136829   6.108   4.627   2.620 -0.6379 -0.6943  0.3236
43622SOL    HW236830   6.204   4.607   2.736 -1.0386 -1.4455  0.5322
43623SOL     OW36831   5.896  11.582   8.606  0.6095 -0.0783  0.0351
43623SOL    HW136832   5.868  11.655   8.661 -2.6013  0.0680 -1.5559
43623SOL    HW236833   5.953  11.622   8.540 -1.2063  1.1191 -0.8995
43624SOL     OW36834   7.390  11.532   2.580  0.2626 -0.4449 -0.3438
43624SOL    HW136835   7.394  11.606   2.519  1.7639 -0.3164 -0.1199
43624SOL    HW236836   7.317  11.553   2.638 -1.2245 -0.5862 -2.0686
43625SOL     OW36837   2.809   8.133   0.578  0.1429  0.4981  0.4948
43625SOL    HW136838   2.730   8.186   0.588  0.5126  0.7958  2.0269
43625SOL    HW236839   2.780   8.055   0.532 -0.7842  1.1738 -0.1188
43626SOL     OW36840   5.071   5.002   3.871 -0.1398 -0.2420  0.1170
43626SOL    HW136841   5.133   4.966   3.807  0.0369  0.5247 -0.1433
43626SOL    HW236842   4.994   5.027   3.819 -0.8288 -1.5069  0.4815
43627SOL     OW36843   4.102  11.054   6.166  0.0438 -0.2176  0.0333
43627SOL    HW136844   4.070  11.144   6.161  0.5428 -0.0574 -0.3719
43627SOL    HW236845   4.187  11.056   6.122  0.5395 -0.6753  0.9514
43628SOL     OW36846   5.174   2.659   0.024  0.0691 -0.4433  0.2248
43628SOL    HW136847   5.204   2.748   0.042  0.4148 -0.6519  0.6954
43628SOL    HW236848   5.199   2.608   0.101 -0.2092 -0.9306  0.0032
43629SOL     OW36849   2.599   4.528   2.391  0.1764  0.4373  0.0009
43629SOL    HW136850   2.573   4.458   2.451 -2.2614  0.3102 -1.0662
43629SOL    HW236851   2.598   4.487   2.304 -0.2630  1.5305 -0.5275
43630SOL     OW36852   9.573  10.336   2.412 -0.4258 -0.3514 -0.5092
43630SOL    HW136853   9.570  10.379   2.497 -1.7504  1.3812 -1.3873
43630SOL    HW236854   9.648  10.376   2.367  0.4791 -1.5002 -0.0824
43631SOL     OW36855  11.266   4.079   0.285 -0.6282 -0.8361  0.3039
43631SOL    HW136856  11.321   4.157   0.285 -0.5233 -0.9023  0.9054
43631SOL    HW236857  11.176   4.113   0.282 -0.5777 -0.6921  0.4075
43632SOL     OW36858   2.835   4.461   6.461  0.4669  0.4727 -0.0603
43632SOL    HW136859   2.849   4.519   6.536 -0.6183 -1.1378  1.4746
43632SOL    HW236860   2.742   4.439   6.465  0.7850 -1.1816 -0.7035
43633SOL     OW36861   7.329  10.189  12.057  0.3271  0.3503 -0.0399
43633SOL    HW136862   7.245  10.229  12.037  0.5408  1.3643  1.0226
43633SOL    HW236863   7.393  10.247  12.016  0.5758  0.3457  0.3429
43634SOL     OW36864   9.567   8.738   4.780  0.6969  0.2449  0.1884
43634SOL    HW136865   9.599   8.765   4.866  0.0143  1.0658  0.1987
43634SOL    HW236866   9.606   8.653   4.766  0.0935 -0.3341  1.7325
43635SOL     OW36867  12.011   8.729   3.160  0.8755  0.0196  0.1144
43635SOL    HW136868  12.046   8.817   3.178 -0.7094  0.5960  0.4663
43635SOL    HW236869  11.937   8.744   3.102  0.2293 -1.0403  0.6397
43636SOL     OW36870   7.920   6.365   8.468 -0.3406  0.2675 -0.1814
43636SOL    HW136871   8.002   6.352   8.515 -0.7583  1.3895  0.8827
43636SOL    HW236872   7.947   6.395   8.381  0.4025 -1.0387 -0.4467
43637SOL     OW36873   3.983   8.751   0.608  0.6739  0.1040 -0.1063
43637SOL    HW136874   3.912   8.773   0.547 -1.1081 -1.0593  1.4465
43637SOL    HW236875   4.028   8.678   0.565 -0.6841 -0.8359 -0.0008
43638SOL     OW36876   1.718   2.612  11.669 -0.1387 -0.3530  0.6575
43638SOL    HW136877   1.761   2.527  11.678  2.5793  0.7981 -0.1914
43638SOL    HW236878   1.696   2.638  11.758 -0.4365 -1.6532  0.9793
43639SOL     OW36879   1.468   2.651   6.197 -0.3364  0.1054 -0.0640
43639SOL    HW136880   1.398   2.586   6.207  0.2646 -0.6589 -0.7041
43639SOL    HW236881   1.468   2.698   6.281 -2.1434  0.6868 -0.3401
43640SOL     OW36882   7.850  10.360   0.798  0.4231 -0.4144  0.0079
43640SOL    HW136883   7.760  10.394   0.804  0.5819 -0.1728  1.2835
43640SOL    HW236884   7.839  10.267   0.776 -0.2956 -1.0086  2.4672
43641SOL     OW36885   8.181   9.440  10.969  0.0853  0.6179  0.4170
43641SOL    HW136886   8.159   9.348  10.957  0.1120  0.8503 -1.7825
43641SOL    HW236887   8.247   9.440  11.038  1.4336 -1.2105 -0.7969
43642SOL     OW36888   7.103  11.268   9.793  0.2493 -0.1384 -0.5386
43642SOL    HW136889   7.077  11.316   9.714  2.2778  1.6721 -0.2215
43642SOL    HW236890   7.193  11.241   9.776  0.5646 -0.1229  0.9529
43643SOL     OW36891   6.489   0.385   6.291 -0.5504  0.0372  0.3937
43643SOL    HW136892   6.521   0.341   6.369  0.2959 -1.0415 -0.5352
43643SOL    HW236893   6.409   0.338   6.267 -0.8109  0.3680  0.5951
43644SOL     OW36894  11.674   5.655   8.819  0.0167  0.0604 -0.3748
43644SOL    HW136895  11.579   5.644   8.822  0.0824 -0.4686 -0.1543
43644SOL    HW236896  11.702   5.610   8.739  0.1631 -0.4573 -0.0390
43645SOL     OW36897  11.700   5.634   5.971  0.8931 -0.0703  0.1912
43645SOL    HW136898  11.670   5.593   5.890  1.7136 -1.1018  0.3948
43645SOL    HW236899  11.647   5.713   5.978 -0.9838 -1.2543 -0.0224
43646SOL     OW36900   0.840   0.812   0.143  0.4021  0.1087 -0.0626
43646SOL    HW136901   0.820   0.818   0.236  0.9968 -1.8429  0.2407
43646SOL    HW236902   0.865   0.901   0.118  0.0010  0.7132  1.5742
43647SOL     OW36903   4.287  11.444   8.267  0.0312 -0.0722  0.1770
43647SOL    HW136904   4.355  11.455   8.201  0.4099  1.0519  0.7215
43647SOL    HW236905   4.228  11.378   8.231  1.3198 -0.9605 -0.3816
43648SOL     OW36906   3.081   5.170   0.518 -0.2103  0.5460  0.2195
43648SOL    HW136907   3.042   5.258   0.513  0.9831  1.2273  2.0142
43648SOL    HW236908   3.012   5.114   0.552 -0.0692  1.4955  2.2212
43649SOL     OW36909  10.166   0.825  11.799  0.1225  0.5093 -0.5601
43649SOL    HW136910  10.094   0.769  11.769 -0.3697  0.4721  0.6295
43649SOL    HW236911  10.130   0.914  11.795  0.3704  0.5883 -0.9795
43650SOL     OW36912   9.144   8.654   2.321 -0.2295 -0.3801 -0.0849
43650SOL    HW136913   9.118   8.698   2.402  2.2231 -0.8048  1.0543
43650SOL    HW236914   9.120   8.714   2.251  0.1318  1.3127  1.1799
43651SOL     OW36915  12.253  11.155  11.434  0.0566 -0.2504  0.0473
43651SOL    HW136916  12.299  11.233  11.403  0.4473 -0.3628  0.3329
43651SOL    HW236917  12.250  11.097  11.358 -0.0587 -0.0379 -0.1108
43652SOL     OW36918   9.950   7.077   9.382  0.4246 -0.5470  0.0117
43652SOL    HW136919  10.042   7.098   9.365  0.3316 -0.0623  0.0931
43652SOL    HW236920   9.903   7.121   9.311  0.1152  0.6424  0.9246
43653SOL     OW36921   7.143   9.319  10.303 -0.2528  0.1006 -0.3524
43653SOL    HW136922   7.141   9.322  10.399 -0.7845 -1.4267 -0.2905
43653SOL    HW236923   7.144   9.226  10.282 -2.2572  0.3533 -1.8589
43654SOL     OW36924   4.404   0.031   3.691  0.6341  0.0821 -0.2189
43654SOL    HW136925   4.481  -0.025   3.683 -0.4796 -1.9929  2.2194
43654SOL    HW236926   4.333  -0.020   3.652 -0.0474  0.6394  0.2605
43655SOL     OW36927   3.154   7.083  11.131  0.5906 -0.2119 -0.1333
43655SOL    HW136928   3.102   7.118  11.204 -1.3743 -3.0213 -0.0440
43655SOL    HW236929   3.233   7.136  11.131 -1.0868  2.5304  1.4567
43656SOL     OW36930   8.767  11.096  11.331 -0.4527 -0.0998 -0.1485
43656SOL    HW136931   8.720  11.160  11.384  1.4463  2.3539 -1.2545
43656SOL    HW236932   8.852  11.087  11.374  0.1850  0.0122 -1.3416
43657SOL     OW36933  12.270   2.969   5.627  0.3087  0.4802  0.3310
43657SOL    HW136934  12.210   3.036   5.593 -1.4395 -0.9281  0.5063
43657SOL    HW236935  12.317   2.938   5.549 -1.2424 -0.3459 -0.3283
43658SOL     OW36936   0.203   2.482   6.548 -0.4911  0.4761 -0.1513
43658SOL    HW136937   0.203   2.459   6.640  1.5083 -1.2146 -0.4980
43658SOL    HW236938   0.195   2.578   6.547 -1.4014  0.4659  1.6928
43659SOL     OW36939   5.892   6.533   8.918 -0.2946 -0.0791  0.2651
43659SOL    HW136940   5.807   6.496   8.943 -0.0891 -1.3928 -0.8264
43659SOL    HW236941   5.887   6.538   8.822  1.5775 -2.1189 -0.0045
43660SOL     OW36942  10.474   4.585   9.209 -0.2023 -0.2605 -0.1046
43660SOL    HW136943  10.532   4.621   9.276  0.6175 -0.7156 -0.5498
43660SOL    HW236944  10.400   4.645   9.206 -0.4259 -0.4010  1.4391
43661SOL     OW36945   6.773   2.152   6.735 -0.5309  0.2482  0.4194
43661SOL    HW136946   6.732   2.235   6.761 -1.7260  0.7530 -2.6354
43661SOL    HW236947   6.822   2.124   6.813  1.8272  4.9087  0.9782
43662SOL     OW36948   7.998  11.060   4.969  0.1863  0.6530 -0.0035
43662SOL    HW136949   8.004  11.125   4.899  1.3068  0.1463 -0.3973
43662SOL    HW236950   8.089  11.034   4.986 -0.2106 -0.5697  0.3711
43663SOL     OW36951   9.165   7.194  11.363 -0.5280  0.3331 -0.2139
43663SOL    HW136952   9.127   7.207  11.450 -1.3511 -1.4418 -0.2714
43663SOL    HW236953   9.257   7.217  11.373 -0.8274  1.1327  0.8559
43664SOL     OW36954  12.059   6.859  10.446 -0.1968 -0.3316 -0.1902
43664SOL    HW136955  12.048   6.952  10.462 -0.4937  0.0603 -2.3858
43664SOL    HW236956  12.144   6.838  10.486 -0.4502  0.6957  0.9369
43665SOL     OW36957  12.116  12.483   3.588 -0.0148  0.4167 -0.1217
43665SOL    HW136958  12.122  12.401   3.538 -0.6118  1.5462 -2.1625
43665SOL    HW236959  12.023  12.490   3.610 -0.3292  1.4542 -1.6546
43666SOL     OW36960   2.415  12.194   2.991 -0.1083  0.0928  0.4230
43666SOL    HW136961   2.351  12.148   3.046 -1.2570  1.4424  0.2689
43666SOL    HW236962   2.407  12.153   2.905 -0.7884  0.2614  0.4009
43667SOL     OW36963   4.465   0.527   1.686  0.0453  0.2537 -0.3029
43667SOL    HW136964   4.499   0.571   1.608 -0.8873  0.6816 -0.4853
43667SOL    HW236965   4.476   0.434   1.668 -0.2991  0.3420 -1.0217
43668SOL     OW36966   2.132   3.462   0.232  0.2185  0.6513  0.0563
43668SOL    HW136967   2.178   3.435   0.312  0.9005  1.9590  0.1301
43668SOL    HW236968   2.068   3.527   0.262  1.6691  2.4720 -0.6348
43669SOL     OW36969   1.602  10.963   4.692 -0.0945  0.2612  0.2586
43669SOL    HW136970   1.594  10.869   4.682 -1.1203  0.2744  0.7871
43669SOL    HW236971   1.695  10.978   4.707  0.6867 -0.2863 -3.2554
43670SOL     OW36972   7.678   0.993   2.261 -0.3526 -0.6016 -0.0231
43670SOL    HW136973   7.628   0.930   2.209 -0.7950  0.1946 -0.5645
43670SOL    HW236974   7.687   0.950   2.347 -1.6228 -0.9352 -0.0325
43671SOL     OW36975   1.352   5.884   8.447  0.5596 -0.0149  0.4346
43671SOL    HW136976   1.423   5.853   8.391  0.1271 -0.2604  0.0133
43671SOL    HW236977   1.318   5.805   8.489  1.0485  0.1977  1.2545
43672SOL     OW36978   2.245   7.023   5.307  0.1428  0.3205 -0.0441
43672SOL    HW136979   2.236   6.947   5.250  1.0065  1.2487 -1.4822
43672SOL    HW236980   2.174   7.013   5.371 -2.4384  0.4022 -2.6619
43673SOL     OW36981  10.861   5.238   7.935  0.0931  0.0740  0.4522
43673SOL    HW136982  10.826   5.187   7.862 -0.0206  0.0839  0.4987
43673SOL    HW236983  10.868   5.174   8.007 -1.0172  0.3364  0.8159
43674SOL     OW36984   8.392   0.232  12.070 -1.0564  0.1441  0.2583
43674SOL    HW136985   8.473   0.208  12.025 -0.4079  1.7399  0.5079
43674SOL    HW236986   8.323   0.191  12.018 -0.1418 -0.5813 -0.4255
43675SOL     OW36987   5.975   6.388  10.593  0.1129  0.2985 -0.0504
43675SOL    HW136988   5.975   6.465  10.650 -0.6983  1.0434 -1.0299
43675SOL    HW236989   6.021   6.416  10.515 -2.7583  0.8204 -1.6936
43676SOL     OW36990  12.404  10.835   4.515  0.7871 -0.1663 -0.1066
43676SOL    HW136991  12.449  10.835   4.431 -0.0511  1.1482 -0.5820
43676SOL    HW236992  12.349  10.756   4.513 -0.0123  0.3902 -1.2460
43677SOL     OW36993   7.884  10.088   8.322  0.0298 -0.6464 -0.6682
43677SOL    HW136994   7.925  10.175   8.326 -0.7045 -0.3141 -0.0961
43677SOL    HW236995   7.913  10.044   8.401 -0.7402 -0.3895 -0.2331
43678SOL     OW36996   2.979   5.866   4.639 -0.0590 -0.3183 -0.3592
43678SOL    HW136997   2.986   5.785   4.690  1.7331 -0.6279 -1.0373
43678SOL    HW236998   2.885   5.874   4.622 -0.2688 -2.4755 -0.6046
43679SOL     OW36999   5.151   6.938   7.815  0.1813 -0.1651  0.2232
43679SOL    HW137000   5.183   6.877   7.748 -1.1899 -0.2066 -0.4251
43679SOL    HW237001   5.103   7.004   7.766 -0.6813 -0.0886  1.1501
43680SOL     OW37002  11.509  10.347   6.769  0.2729  0.3931  0.9020
43680SOL    HW137003  11.552  10.419   6.723 -0.3367 -0.2271 -0.6973
43680SOL    HW237004  11.575  10.277   6.772 -0.5920 -0.6530 -1.7808
43681SOL     OW37005   5.777   7.778   5.747 -0.4638  0.1669 -0.3887
43681SOL    HW137006   5.806   7.862   5.712  0.5405  0.5853  1.2992
43681SOL    HW237007   5.715   7.744   5.683 -0.7355  2.1032 -1.1933
43682SOL     OW37008   7.801   5.086   1.753  0.1547  0.2998 -0.1068
43682SOL    HW137009   7.855   5.035   1.693 -0.4519  2.0673 -2.3061
43682SOL    HW237010   7.858   5.156   1.783  1.3050 -2.0034  3.7106
43683SOL     OW37011   1.332   1.056  11.803  0.5105  0.3661 -0.1529
43683SOL    HW137012   1.253   1.065  11.857  0.6473  0.9215 -0.0412
43683SOL    HW237013   1.300   1.052  11.713  0.3928  1.2426 -0.1545
43684SOL     OW37014  11.690   6.255   1.477  0.4531 -0.0590  0.4678
43684SOL    HW137015  11.762   6.244   1.415  0.6851 -2.4293  1.0731
43684SOL    HW237016  11.621   6.198   1.443 -1.3292  2.3074 -0.2168
43685SOL     OW37017   4.675   1.198   7.974 -0.0449 -0.1208 -0.8014
43685SOL    HW137018   4.645   1.112   8.003 -1.7475  0.2112 -1.4844
43685SOL    HW237019   4.700   1.243   8.054 -1.2055 -0.5030 -0.2054
43686SOL     OW37020   0.036   1.033   5.452 -0.7974  0.1012 -0.2132
43686SOL    HW137021   0.062   0.948   5.488  0.8696  0.3535 -0.7149
43686SOL    HW237022  -0.053   1.047   5.484 -0.9812 -1.6810  0.1362
43687SOL     OW37023  10.832   3.478   6.435  0.2126 -0.0233 -0.1660
43687SOL    HW137024  10.797   3.536   6.367  0.6034  0.2776 -0.1207
43687SOL    HW237025  10.759   3.461   6.493 -0.5215 -1.4773 -1.4573
43688SOL     OW37026   4.725   7.779  10.443  0.3625 -0.7061 -0.1491
43688SOL    HW137027   4.655   7.810  10.502  0.2545  0.8042 -1.0218
43688SOL    HW237028   4.728   7.845  10.374  1.7140 -1.5056 -0.8748
43689SOL     OW37029  10.162  11.975   5.588  0.5299  0.0039  0.0707
43689SOL    HW137030  10.071  11.996   5.608  0.7289  0.5125  0.4455
43689SOL    HW237031  10.158  11.889   5.546 -0.0527 -0.3070  0.7494
43690SOL     OW37032   8.470   6.699  10.919 -0.2442  0.2104 -0.3127
43690SOL    HW137033   8.552   6.690  10.967 -0.4154  0.4604  0.0340
43690SOL    HW237034   8.422   6.767  10.967 -0.6556  0.0562 -0.5053
43691SOL     OW37035   7.741   5.536   5.669 -0.4675 -0.6820 -0.0556
43691SOL    HW137036   7.801   5.588   5.615  0.1665 -0.0845  1.1708
43691SOL    HW237037   7.797   5.468   5.707 -0.6619 -0.4493  0.6676
43692SOL     OW37038   3.275   3.795   6.455  0.7238  0.3552 -0.1642
43692SOL    HW137039   3.274   3.836   6.369  1.1361  0.6427 -0.0344
43692SOL    HW237040   3.228   3.712   6.443  0.6870  0.4431 -0.6367
43693SOL     OW37041   2.829  10.987   0.871  0.2894  0.7884  0.1431
43693SOL    HW137042   2.919  10.955   0.863  0.1187  0.6197 -1.4266
43693SOL    HW237043   2.801  10.956   0.957  1.2255 -0.4955  0.0278
43694SOL     OW37044   5.638   9.258   0.527  0.2917  0.0688 -0.6218
43694SOL    HW137045   5.557   9.260   0.477  0.7592  2.5953 -1.4137
43694SOL    HW237046   5.703   9.223   0.466  0.2060 -0.0535 -0.6446
43695SOL     OW37047  12.265   5.350   3.056  0.1615  0.5415 -0.6580
43695SOL    HW137048  12.325   5.424   3.068  1.1283 -0.5648  2.7316
43695SOL    HW237049  12.322   5.277   3.034 -0.1342 -0.0675  0.4850
43696SOL     OW37050  10.781   2.872  11.309  0.1423  0.4679 -0.6263
43696SOL    HW137051  10.860   2.844  11.356 -0.3702 -0.1610 -0.1200
43696SOL    HW237052  10.710   2.862  11.373 -0.4778  0.2231 -1.3319
43697SOL     OW37053   4.925   4.290  10.781 -0.3114 -0.2434  0.6206
43697SOL    HW137054   4.843   4.320  10.742  0.0034  0.6536  0.6051
43697SOL    HW237055   4.908   4.288  10.876 -0.2695  0.2444  0.6427
43698SOL     OW37056   0.049   6.600   9.422  0.0306 -0.0447 -0.2071
43698SOL    HW137057   0.034   6.527   9.361  0.0739  0.4213 -0.7778
43698SOL    HW237058   0.010   6.570   9.504  1.6393 -1.4663  0.0904
43699SOL     OW37059   9.812   0.200   4.765  0.1857 -0.0772  0.3379
43699SOL    HW137060   9.897   0.191   4.807 -0.1679 -0.3897  1.0003
43699SOL    HW237061   9.801   0.295   4.754  0.2989  0.0097  0.9267
43700SOL     OW37062  12.398   8.580   3.356  0.4741  0.5823 -0.2915
43700SOL    HW137063  12.388   8.512   3.290  0.7724  1.4335 -1.2345
43700SOL    HW237064  12.311   8.591   3.393  0.1601  0.5699 -1.0176
43701SOL     OW37065   0.294   2.817   9.120 -0.6168  0.0621 -0.0835
43701SOL    HW137066   0.210   2.777   9.141 -0.3513 -0.2134  0.4924
43701SOL    HW237067   0.299   2.894   9.176  1.1501 -1.9796  2.8891
43702SOL     OW37068   3.956   3.166   6.136  0.1253  0.2678 -0.3729
43702SOL    HW137069   4.033   3.115   6.163  0.8374  0.9907 -0.9680
43702SOL    HW237070   3.973   3.254   6.169 -1.2702  0.0788  0.9783
43703SOL     OW37071   5.720   6.541   5.517 -0.4653  0.0362 -0.4700
43703SOL    HW137072   5.700   6.506   5.603  0.1368  1.3263  0.2149
43703SOL    HW237073   5.710   6.635   5.525 -1.6388  0.1170 -2.1685
43704SOL     OW37074   0.242   9.945   8.756  0.1365 -0.2461  0.3216
43704SOL    HW137075   0.200   9.905   8.832 -1.5197  0.9079  0.0594
43704SOL    HW237076   0.171   9.991   8.711  1.2847 -0.0429 -1.3595
43705SOL     OW37077   0.616   0.904   2.297  0.0332  0.0390  0.9660
43705SOL    HW137078   0.646   0.832   2.242 -0.9586 -0.4111  0.9805
43705SOL    HW237079   0.522   0.889   2.306 -0.0226  0.7833  1.7865
43706SOL     OW37080  12.155   2.110  10.562 -0.3230  0.6589 -0.1521
43706SOL    HW137081  12.137   2.084  10.653 -1.5553 -0.0138 -0.5662
43706SOL    HW237082  12.240   2.154  10.566  0.3783 -0.7294  1.0808
43707SOL     OW37083   9.555   5.526  11.159  0.4634  0.1693 -0.9836
43707SOL    HW137084   9.595   5.451  11.115 -1.4908 -0.7800 -1.2569
43707SOL    HW237085   9.557   5.502  11.252  0.2616 -0.0165 -1.0258
43708SOL     OW37086   3.454   6.056   6.706 -0.1440 -0.1004 -0.4374
43708SOL    HW137087   3.497   6.141   6.714 -0.5543 -0.0049  1.2404
43708SOL    HW237088   3.517   6.002   6.658 -0.3223  1.4084 -2.4912
43709SOL     OW37089   9.012   3.420   9.473 -0.4717 -0.0994  0.6672
43709SOL    HW137090   9.003   3.508   9.436  0.1188  0.2854  1.4028
43709SOL    HW237091   9.098   3.390   9.443 -0.5893 -0.3440  0.5768
43710SOL     OW37092   1.612   1.054   9.038  0.4543  0.2647 -0.2174
43710SOL    HW137093   1.680   1.098   9.088 -0.7471  0.1022  1.6577
43710SOL    HW237094   1.596   0.972   9.085 -0.0817 -0.3460 -1.4093
43711SOL     OW37095   7.189   5.124   4.248  0.0515 -0.0201 -0.5680
43711SOL    HW137096   7.245   5.196   4.279 -0.1932  0.1924 -0.6109
43711SOL    HW237097   7.132   5.105   4.323 -0.1396  0.0887 -0.6861
43712SOL     OW37098   8.839  11.708   9.533  0.2095 -0.3134 -0.2460
43712SOL    HW137099   8.789  11.767   9.588  1.3996 -0.0744  0.6279
43712SOL    HW237100   8.924  11.752   9.522 -0.0588 -0.2280 -2.4952
43713SOL     OW37101   3.240   3.887   7.482  0.6018  0.0640  0.2273
43713SOL    HW137102   3.275   3.798   7.474  1.8451  0.4448  1.1146
43713SOL    HW237103   3.306   3.935   7.532 -1.6333  0.6190  2.8811
43714SOL     OW37104   2.058  11.722   3.687  0.0319  0.4928 -0.0792
43714SOL    HW137105   2.136  11.733   3.741 -0.8716  0.9534  1.1849
43714SOL    HW237106   2.068  11.787   3.617  1.9256 -1.1090 -1.3922
43715SOL     OW37107   9.659   1.758   3.787  0.1907 -0.3681 -0.4848
43715SOL    HW137108   9.695   1.840   3.821 -0.9503  0.0352 -0.1861
43715SOL    HW237109   9.735   1.707   3.761  0.9118  0.9713 -1.1200
43716SOL     OW37110   6.517   0.002   8.302 -0.0339 -0.1476  0.0052
43716SOL    HW137111   6.427   0.023   8.276 -0.1892 -0.2387  0.4473
43716SOL    HW237112   6.567   0.002   8.220 -0.2054  1.0362 -0.1153
43717SOL     OW37113   8.160   3.580   8.843 -0.2254  0.6614 -0.5127
43717SOL    HW137114   8.158   3.660   8.791  0.2800  1.4598  0.6562
43717SOL    HW237115   8.190   3.608   8.929  0.3374 -0.8561 -0.1851
43718SOL     OW37116   0.809   3.292  11.506 -0.1838 -0.0000 -0.0391
43718SOL    HW137117   0.765   3.356  11.449  0.8353  0.7887  0.0324
43718SOL    HW237118   0.896   3.283  11.468  0.4391  0.3584  1.2520
43719SOL     OW37119   6.309   9.136   5.873  0.3180 -0.1301 -0.6274
43719SOL    HW137120   6.314   9.061   5.933 -1.7221  0.1956  0.0487
43719SOL    HW237121   6.313   9.212   5.930 -2.1200  0.1836 -0.7785
43720SOL     OW37122   8.209   4.854   0.475 -0.2085  0.5312 -0.3573
43720SOL    HW137123   8.232   4.921   0.539  1.9029 -0.5554  0.1147
43720SOL    HW237124   8.179   4.780   0.528 -2.0472  0.8674 -0.8544
43721SOL     OW37125   0.925   6.166  11.144 -0.2578 -0.5801 -0.3247
43721SOL    HW137126   0.910   6.254  11.111  0.0866  0.1736  1.4117
43721SOL    HW237127   0.858   6.112  11.101 -1.2332  0.7442 -0.5237
43722SOL     OW37128   0.889  11.976   5.090 -0.0749 -0.6380 -0.3816
43722SOL    HW137129   0.855  11.926   5.164  0.7082 -1.0453 -0.2840
43722SOL    HW237130   0.885  11.915   5.016  0.2375 -0.6252 -0.4121
43723SOL     OW37131   5.686   1.234   5.462  0.0555 -0.1034 -0.0821
43723SOL    HW137132   5.774   1.208   5.436  0.7475  0.6858  1.3520
43723SOL    HW237133   5.655   1.290   5.390 -0.2475 -2.2177 -1.7061
43724SOL     OW37134   6.078   0.315  11.817  0.3742  0.0532  0.1676
43724SOL    HW137135   5.998   0.265  11.810 -1.3253  2.5159  0.6756
43724SOL    HW237136   6.110   0.297  11.906 -1.8184  1.9754  1.4496
43725SOL     OW37137  11.164   7.137  10.737  0.2309  0.3261  0.2846
43725SOL    HW137138  11.080   7.137  10.784  0.4833  0.5545  0.7309
43725SOL    HW237139  11.221   7.080  10.788 -0.0646 -0.9775 -0.7736
43726SOL     OW37140   6.959   7.732   2.283  0.1058  0.0633  0.0759
43726SOL    HW137141   6.951   7.647   2.327 -0.7211 -0.5087 -1.1425
43726SOL    HW237142   7.018   7.716   2.210 -1.8205 -0.0781 -1.5314
43727SOL     OW37143   6.282  11.783  10.508  0.3547  0.2549 -0.2744
43727SOL    HW137144   6.285  11.744  10.421  2.3465 -0.3465  0.0102
43727SOL    HW237145   6.322  11.870  10.496  0.5677  0.1983  0.0221
43728SOL     OW37146  10.599   1.929   4.938 -0.2212 -0.5878  0.1244
43728SOL    HW137147  10.597   1.943   4.844  0.1811 -1.0890  0.0358
43728SOL    HW237148  10.679   1.972   4.968  0.1521 -1.2394  0.0897
43729SOL     OW37149   5.509  10.318  10.613  0.3438  0.4159 -0.0933
43729SOL    HW137150   5.536  10.226  10.611  1.0699  0.6152 -2.1981
43729SOL    HW237151   5.456  10.326  10.692 -2.0318 -2.4767 -1.2103
43730SOL     OW37152   7.807   1.916   3.907 -0.1174 -0.3315 -0.0100
43730SOL    HW137153   7.869   1.963   3.851 -1.8395  0.9926 -0.9339
43730SOL    HW237154   7.793   1.974   3.981 -1.3682  0.1148 -0.5700
43731SOL     OW37155   4.694   9.652   6.019 -0.1982  0.3073 -0.3031
43731SOL    HW137156   4.675   9.560   6.040  0.8357  0.6082  2.3422
43731SOL    HW237157   4.664   9.700   6.096  0.6078  2.0348 -1.0246
43732SOL     OW37158   0.407   6.280   0.850 -0.0986  0.8391  0.2989
43732SOL    HW137159   0.372   6.193   0.833  2.9644 -0.2190 -1.5208
43732SOL    HW237160   0.496   6.264   0.881  0.6303  3.3187 -0.2985
43733SOL     OW37161   3.139   7.244   1.699  0.5582 -0.4522  0.1580
43733SOL    HW137162   3.228   7.279   1.707  2.1042 -3.8591  0.0533
43733SOL    HW237163   3.127   7.231   1.605  0.2354 -0.5955  0.2178
43734SOL     OW37164   2.647   3.818  12.325 -0.2855 -0.2071  0.3175
43734SOL    HW137165   2.678   3.765  12.400 -1.0435 -1.1879 -0.0415
43734SOL    HW237166   2.562   3.851  12.353 -1.0091 -1.3664 -0.4541
43735SOL     OW37167   9.473   7.839   3.334 -0.1012  0.1386 -0.5654
43735SOL    HW137168   9.487   7.922   3.288  4.8859 -0.4909 -0.8090
43735SOL    HW237169   9.483   7.772   3.265 -0.7771 -0.7321  0.1618
43736SOL     OW37170   2.984   3.676  12.312  0.0070  0.0575  0.0159
43736SOL    HW137171   2.956   3.627  12.389  1.8273 -2.1018 -0.6135
43736SOL    HW237172   2.949   3.626  12.238  0.3953  0.7115 -0.6217
43737SOL     OW37173   1.280   1.139  11.316 -0.3353  0.3588  0.0229
43737SOL    HW137174   1.347   1.184  11.367 -0.7003 -0.6650  1.4660
43737SOL    HW237175   1.329   1.077  11.261  0.0241  1.0841 -0.4902
43738SOL     OW37176   7.073   6.143   4.459 -0.2666 -0.0292  0.1245
43738SOL    HW137177   7.094   6.236   4.448  1.7696 -0.4143  0.2826
43738SOL    HW237178   7.081   6.128   4.553 -1.7604 -0.1456  0.2583
43739SOL     OW37179   8.659   5.016   5.595  0.1029 -0.2016 -0.0403
43739SOL    HW137180   8.677   4.924   5.613  2.1839  0.3719  1.1284
43739SOL    HW237181   8.734   5.046   5.545 -0.5867  0.8607 -0.4787
43740SOL     OW37182   3.851   6.067   2.292  0.5963  0.6742 -0.2131
43740SOL    HW137183   3.899   5.993   2.254  2.6917  1.4342  0.7931
43740SOL    HW237184   3.891   6.081   2.378 -0.6974  2.0911  0.2151
43741SOL     OW37185   5.099   5.915   9.206  0.4577  0.1440  0.4253
43741SOL    HW137186   5.112   5.994   9.154 -2.0850 -1.5840 -3.2716
43741SOL    HW237187   5.050   5.944   9.282  2.1557  2.4430  0.7591
43742SOL     OW37188   0.078   5.892  11.638 -0.5163  0.3228  0.0090
43742SOL    HW137189  -0.003   5.841  11.641 -0.8302  0.8068 -0.1691
43742SOL    HW237190   0.134   5.851  11.704 -1.1621  0.4105  0.6278
43743SOL     OW37191   9.114   4.813   2.186  0.3742  1.0234 -0.0725
43743SOL    HW137192   9.147   4.737   2.138  0.5278  0.6999  0.5270
43743SOL    HW237193   9.114   4.884   2.122  0.8304  0.6688 -0.4735
43744SOL     OW37194   8.933  12.452   7.395 -0.0339  0.0668 -0.2039
43744SOL    HW137195   8.916  12.521   7.332 -1.1932 -0.3465 -0.3624
43744SOL    HW237196   8.848  12.410   7.410  0.5390 -0.9899  0.2746
43745SOL     OW37197   5.862   1.911   3.723  0.1374  0.2975 -0.2570
43745SOL    HW137198   5.821   1.959   3.795  0.0711  0.4599 -0.4008
43745SOL    HW237199   5.788   1.876   3.673  0.1626  0.8089 -0.6648
43746SOL     OW37200   2.303   3.537   6.164 -0.3707  0.4444  0.0329
43746SOL    HW137201   2.279   3.609   6.106 -0.4851  1.2716  1.0939
43746SOL    HW237202   2.381   3.568   6.210  2.1763 -1.6965 -2.4386
43747SOL     OW37203   7.042  10.590   2.570  0.3976  0.2280 -0.4747
43747SOL    HW137204   7.080  10.506   2.596  1.6965  0.2988 -1.9358
43747SOL    HW237205   7.117  10.649   2.566 -0.4278  1.3291  0.0029
43748SOL     OW37206   8.748   9.496   9.980 -0.0889  0.1334  0.5268
43748SOL    HW137207   8.789   9.437   9.917 -2.2278 -1.2823  0.3393
43748SOL    HW237208   8.766   9.584   9.947  2.5125 -0.3765  0.3782
43749SOL     OW37209  11.889   5.987   2.517  0.3894  0.5709  0.5260
43749SOL    HW137210  11.937   6.017   2.439  0.9825  1.2453  1.1456
43749SOL    HW237211  11.937   5.909   2.546 -0.7523 -0.6375 -0.6801
43750SOL     OW37212   4.217  10.876   1.237  0.5186  0.2099  0.2339
43750SOL    HW137213   4.189  10.903   1.325 -2.1847  2.3153 -1.1036
43750SOL    HW237214   4.138  10.841   1.196  1.7446 -0.8716 -1.3435
43751SOL     OW37215  12.175   7.989   8.363  0.2088 -0.2431 -0.2205
43751SOL    HW137216  12.181   7.911   8.420  1.8476  0.7611  1.0637
43751SOL    HW237217  12.242   7.975   8.296 -0.8144 -0.7951 -1.1693
43752SOL     OW37218   0.277   9.304   8.612  0.5739 -0.0997 -0.3978
43752SOL    HW137219   0.357   9.342   8.576  0.9598 -0.3112  0.2209
43752SOL    HW237220   0.222   9.380   8.631  1.0805  0.1245  0.2169
43753SOL     OW37221   3.348   3.876   6.204  0.0850  0.0599  0.0607
43753SOL    HW137222   3.400   3.940   6.156  1.5929 -0.2295  1.2377
43753SOL    HW237223   3.316   3.816   6.136  1.1551  0.3423 -0.7220
43754SOL     OW37224   5.109  11.737   7.155  0.6472  0.2484 -0.6558
43754SOL    HW137225   5.124  11.805   7.090  0.5377  0.1198 -0.8177
43754SOL    HW237226   5.108  11.656   7.104 -0.7556  0.2623 -0.6916
43755SOL     OW37227   7.130  10.119   1.108 -0.0384 -0.0644 -0.7150
43755SOL    HW137228   7.046  10.164   1.118 -0.0005  0.3669 -2.0718
43755SOL    HW237229   7.160  10.144   1.020  1.0759 -0.9352 -0.6070
43756SOL     OW37230  10.484   9.964   3.051  0.1329  0.5156  0.3405
43756SOL    HW137231  10.428   9.908   2.997  1.1460 -0.7943  0.5678
43756SOL    HW237232  10.449   9.955   3.140 -0.2527  0.9714  0.2352
43757SOL     OW37233   1.920  11.963   1.299 -0.7646  0.1577  0.7546
43757SOL    HW137234   1.868  12.013   1.236  0.5647  1.3252  0.5139
43757SOL    HW237235   2.008  11.960   1.261 -0.2141 -0.1693  1.9738
43758SOL     OW37236   9.836   6.475   4.993 -0.5145 -0.3451  0.4882
43758SOL    HW137237   9.776   6.528   5.044 -0.3413 -0.4066  0.7551
43758SOL    HW237238   9.798   6.474   4.905 -0.8825 -0.3547  0.6466
43759SOL     OW37239   2.471   6.180   7.803  0.2996  0.2697  0.1910
43759SOL    HW137240   2.375   6.170   7.806  0.3500 -0.4234 -0.2433
43759SOL    HW237241   2.485   6.274   7.793 -0.3542  0.3363 -0.1607
43760SOL     OW37242   3.993   6.279   5.587 -0.2818  0.5953 -0.1778
43760SOL    HW137243   4.066   6.217   5.600  0.0341  0.9484 -0.2492
43760SOL    HW237244   3.915   6.228   5.608 -0.1668 -0.3360 -1.8303
43761SOL     OW37245   1.651   2.404   1.372  0.1494  0.4373  0.1125
43761SOL    HW137246   1.558   2.396   1.349  0.2025  1.5810 -0.5901
43761SOL    HW237247   1.686   2.465   1.308  1.6740 -0.8899 -0.3698
43762SOL     OW37248   7.687  12.062   6.528  0.0684 -0.0672 -0.2209
43762SOL    HW137249   7.676  12.140   6.584  1.7905 -1.5020  2.3004
43762SOL    HW237250   7.764  12.081   6.476  1.0752 -0.3902  1.0898
43763SOL     OW37251  11.007   7.621   2.115  0.0836  0.2961  0.2010
43763SOL    HW137252  10.930   7.571   2.084 -0.7080  0.7364  1.3894
43763SOL    HW237253  10.970   7.688   2.173  1.2358  1.5994 -0.5256
43764SOL     OW37254  11.352   2.222  10.209  0.4718  0.0688  0.6573
43764SOL    HW137255  11.332   2.171  10.288  0.8503 -0.1237  0.6318
43764SOL    HW237256  11.417   2.170  10.163 -1.5659 -1.1022 -1.0829
43765SOL     OW37257  10.595   4.400  11.349 -0.3026 -0.6221  0.2376
43765SOL    HW137258  10.674   4.419  11.298 -0.0578 -1.1190  0.4267
43765SOL    HW237259  10.609   4.312  11.383 -1.1583 -0.9081 -0.1296
43766SOL     OW37260   1.126   8.303   6.485  0.4928 -0.3263  0.9787
43766SOL    HW137261   1.203   8.248   6.469  0.0480 -1.0018  1.1010
43766SOL    HW237262   1.162   8.391   6.496  1.1203 -0.3834 -0.3834
43767SOL     OW37263   7.929   1.689   0.606 -0.2569 -0.0060  0.0556
43767SOL    HW137264   7.983   1.617   0.575 -0.9719 -0.3836 -0.3458
43767SOL    HW237265   7.856   1.647   0.651 -0.8062  0.4542 -0.3921
43768SOL     OW37266   5.313   4.008   8.981  0.1147  0.1397  0.1696
43768SOL    HW137267   5.370   4.085   8.983 -0.8768  0.8849  0.5263
43768SOL    HW237268   5.259   4.020   8.904  0.3146 -0.4855 -0.0757
43769SOL     OW37269   5.640  10.461   1.947  0.3377 -0.5699  0.2747
43769SOL    HW137270   5.593  10.462   1.864 -0.4561  1.7077  0.6943
43769SOL    HW237271   5.606  10.383   1.992 -1.1754 -0.3746 -0.4620
43770SOL     OW37272   4.814   3.802   5.733 -0.2917 -0.0284  0.3699
43770SOL    HW137273   4.833   3.869   5.799 -0.0944 -0.7238  1.0375
43770SOL    HW237274   4.812   3.850   5.650 -1.7042  1.0721  0.9848
43771SOL     OW37275   2.761  10.210   4.204 -0.2262  0.4611 -0.1714
43771SOL    HW137276   2.847  10.202   4.162 -1.0777  1.4363 -2.2433
43771SOL    HW237277   2.750  10.304   4.219 -1.2564  0.4336 -0.6795
43772SOL     OW37278  10.783   0.828   9.368 -0.6510  0.2657  0.1779
43772SOL    HW137279  10.713   0.786   9.318  0.1038 -0.7582 -0.0295
43772SOL    HW237280  10.753   0.824   9.459 -1.4970  1.1093 -0.0401
43773SOL     OW37281   9.930   1.634   0.012  0.1588 -0.4570  0.1528
43773SOL    HW137282   9.933   1.676   0.098  1.1112 -0.6571  0.2238
43773SOL    HW237283  10.013   1.588   0.004  0.2047 -0.2130 -0.9989
43774SOL     OW37284   5.834   9.116   2.345 -0.0068  0.3859  0.4428
43774SOL    HW137285   5.904   9.180   2.333  0.2025 -0.2724 -2.6326
43774SOL    HW237286   5.753   9.165   2.332  0.1138  0.2442 -0.9324
43775SOL     OW37287   8.040   6.517   0.651 -0.0444  0.6842 -0.5002
43775SOL    HW137288   7.963   6.499   0.705 -0.0536  3.4201  0.5497
43775SOL    HW237289   8.008   6.573   0.581  0.6677  0.2450 -1.1975
43776SOL     OW37290   7.184   5.367   1.103 -0.1125 -0.3307 -0.1459
43776SOL    HW137291   7.219   5.440   1.154 -1.7763  0.5612 -0.2049
43776SOL    HW237292   7.186   5.293   1.163  1.5443 -0.2527 -0.0607
43777SOL     OW37293   3.359   5.462   6.450 -0.1483 -0.4136 -0.8942
43777SOL    HW137294   3.432   5.416   6.409  1.1162  0.4728  0.2871
43777SOL    HW237295   3.353   5.424   6.538 -1.5412 -0.9027 -1.1636
43778SOL     OW37296   5.050   3.098  11.143 -0.2594  0.9215  0.4562
43778SOL    HW137297   5.071   3.190  11.132 -0.2331  1.2465  2.7716
43778SOL    HW237298   5.133   3.057  11.167 -0.5618  0.5969  0.9766
43779SOL     OW37299  10.620   2.957   9.498 -0.2025 -0.2304 -0.6680
43779SOL    HW137300  10.574   2.997   9.423  1.2361  0.1120 -1.4160
43779SOL    HW237301  10.573   2.990   9.575  0.9004  3.0723 -1.2229
43780SOL     OW37302   4.922   9.099   7.022 -0.3639  0.4230 -0.7767
43780SOL    HW137303   4.900   9.007   7.010 -0.1644  0.2430  0.1518
43780SOL    HW237304   4.841   9.146   6.999 -0.5039  0.0144 -1.1305
43781SOL     OW37305   1.616   5.925  10.965 -0.0222 -0.1497 -0.1708
43781SOL    HW137306   1.635   5.907  11.058  2.8946 -0.4186 -0.7092
43781SOL    HW237307   1.552   5.995  10.967 -0.0032 -0.1047  2.0594
43782SOL     OW37308   3.610   0.491   7.366  0.4658  0.2928 -0.1652
43782SOL    HW137309   3.567   0.438   7.433 -0.2489  0.3450 -0.5743
43782SOL    HW237310   3.542   0.551   7.336  0.2110 -1.0084 -2.3213
43783SOL     OW37311   2.036   4.444   3.640  0.3736 -0.0431 -0.1508
43783SOL    HW137312   2.045   4.539   3.648 -0.6758  0.0347  0.2237
43783SOL    HW237313   2.036   4.428   3.546  0.8185  0.2903 -0.2145
43784SOL     OW37314   2.941  10.268   1.562 -0.1860 -0.1878 -0.3075
43784SOL    HW137315   2.940  10.354   1.603  2.0943  0.3631 -1.2662
43784SOL    HW237316   2.888  10.279   1.483 -1.6453 -0.2827  0.6278
43785SOL     OW37317   1.353   1.090   6.368 -0.6099 -0.5344 -0.3562
43785SOL    HW137318   1.278   1.150   6.367  0.3854  0.7450 -0.7752
43785SOL    HW237319   1.351   1.047   6.282 -1.1068 -0.8363 -0.1984
43786SOL     OW37320   1.786   5.600   1.115  1.1140  0.1833  0.6837
43786SOL    HW137321   1.738   5.565   1.041  1.1819  0.6537  0.4122
43786SOL    HW237322   1.779   5.695   1.105  0.9121  0.2507  1.4141
43787SOL     OW37323   6.061   1.420   0.265  0.1387  0.2265 -0.4588
43787SOL    HW137324   6.064   1.324   0.272  0.5637  0.3255  1.0527
43787SOL    HW237325   5.986   1.446   0.318  0.1264  0.7425 -0.7218
43788SOL     OW37326   3.128   7.816   4.560 -0.7156  0.2560 -0.1637
43788SOL    HW137327   3.140   7.742   4.501 -0.2492 -1.3587  1.8289
43788SOL    HW237328   3.045   7.799   4.604 -0.6761  0.9841  0.2157
43789SOL     OW37329   3.106  12.079   8.384  0.0789  0.1145 -0.4758
43789SOL    HW137330   3.062  11.996   8.365  2.3285 -1.4208  0.5434
43789SOL    HW237331   3.107  12.083   8.480  1.9783  0.1145 -0.4559
43790SOL     OW37332   7.164   1.750   5.100  0.3437 -0.1270 -0.3552
43790SOL    HW137333   7.078   1.715   5.078  0.2696  0.2691 -0.7106
43790SOL    HW237334   7.212   1.675   5.136 -0.5086 -0.1043  0.8707
43791SOL     OW37335   7.286   8.906   4.492 -0.4064 -0.0771 -0.0922
43791SOL    HW137336   7.204   8.949   4.467  0.0843  0.4851 -0.8137
43791SOL    HW237337   7.334   8.973   4.540 -0.6181 -0.6066  0.8712
43792SOL     OW37338   1.867   3.419   6.345  0.1467  0.1726 -0.3606
43792SOL    HW137339   1.858   3.439   6.439 -0.5937 -1.6896  0.0049
43792SOL    HW237340   1.780   3.431   6.309  0.3765  0.6345 -0.7782
43793SOL     OW37341   6.649   3.092   2.299 -0.0882 -0.1678 -0.1134
43793SOL    HW137342   6.677   3.126   2.214 -2.9742 -0.4677 -1.3036
43793SOL    HW237343   6.625   3.170   2.349 -1.3103 -0.0833 -0.7720
43794SOL     OW37344   8.412   9.270   2.493 -0.4566 -0.5939 -0.3224
43794SOL    HW137345   8.491   9.250   2.443 -0.3541  0.4142 -0.5911
43794SOL    HW237346   8.438   9.340   2.553 -1.3303  0.2715 -0.9307
43795SOL     OW37347  11.491   4.649  12.231  0.3715 -0.0785 -0.6122
43795SOL    HW137348  11.552   4.646  12.305 -2.0207  2.3825  1.6639
43795SOL    HW237349  11.498   4.739  12.198 -2.5296  0.6182  0.3526
43796SOL     OW37350  10.832   8.255  11.603  0.4475  0.2420 -0.0500
43796SOL    HW137351  10.774   8.321  11.642  2.2754  1.1822  1.2387
43796SOL    HW237352  10.788   8.172  11.619 -0.6145  0.9348  0.7701
43797SOL     OW37353   2.028   8.406   1.841  1.0049  0.1484  0.1298
43797SOL    HW137354   1.984   8.324   1.817  1.5133 -0.3055  0.7379
43797SOL    HW237355   1.956   8.468   1.853  0.6403 -0.0282 -0.9454
43798SOL     OW37356  11.180   5.536  10.078  0.0281  0.5471  0.3076
43798SOL    HW137357  11.228   5.582  10.009 -0.4582  1.3230  0.4797
43798SOL    HW237358  11.171   5.446  10.045  2.7962 -0.0119  0.8705
43799SOL     OW37359   4.139   5.755   9.712  0.4874  0.0182 -0.1120
43799SOL    HW137360   4.059   5.704   9.698  0.5299 -0.0548 -0.0921
43799SOL    HW237361   4.131   5.829   9.652  1.0818 -0.7656 -1.2077
43800SOL     OW37362   2.843   2.879   2.129  0.3146  0.5863  0.1487
43800SOL    HW137363   2.878   2.793   2.151  0.6442  0.7130  0.1172
43800SOL    HW237364   2.864   2.891   2.036 -2.7967 -0.8049 -0.8763
43801SOL     OW37365   1.667   6.871   6.026 -0.0662  0.3369  0.7992
43801SOL    HW137366   1.747   6.859   6.077 -0.2006 -0.9234  0.7445
43801SOL    HW237367   1.641   6.783   6.000 -0.7840  0.8339 -0.2638
43802SOL     OW37368   6.385  11.179   7.707 -0.1072  0.0519 -0.4916
43802SOL    HW137369   6.449  11.128   7.756 -0.0893 -0.4848 -1.0507
43802SOL    HW237370   6.322  11.208   7.772  1.2046  1.3895  0.2248
43803SOL     OW37371   3.207  11.128   7.235  0.0149  0.2809 -0.4895
43803SOL    HW137372   3.269  11.087   7.296 -0.3472  0.8751  0.3031
43803SOL    HW237373   3.196  11.064   7.165  0.9463 -0.1492 -0.2671
43804SOL     OW37374   7.614  11.843   0.101  0.2679 -0.4079  0.1215
43804SOL    HW137375   7.605  11.871   0.193  2.3231 -0.3443  0.3511
43804SOL    HW237376   7.580  11.917   0.051  0.0641 -0.0178  0.8134
43805SOL     OW37377   6.491   5.834  10.743 -0.1651 -0.5651 -0.0108
43805SOL    HW137378   6.403   5.870  10.754 -0.4798 -1.2434 -0.2967
43805SOL    HW237379   6.533   5.894  10.681  0.5281  1.3743  2.1794
43806SOL     OW37380   2.223   4.775   0.926 -0.0143  0.1619  0.1129
43806SOL    HW137381   2.160   4.717   0.969  0.0476  1.0410  1.4229
43806SOL    HW237382   2.169   4.838   0.879 -0.0894 -0.2241 -0.3236
43807SOL     OW37383   9.894   1.231   7.747  0.3587  0.0036  0.3756
43807SOL    HW137384   9.948   1.177   7.689  1.5498  0.6081  0.8883
43807SOL    HW237385   9.810   1.239   7.701  0.6579 -1.0379 -0.3939
43808SOL     OW37386   2.851   3.450   1.249 -0.3803  0.0906  0.7670
43808SOL    HW137387   2.791   3.521   1.272  1.4344  1.6566  0.9251
43808SOL    HW237388   2.936   3.493   1.237  0.5706 -1.9209 -0.2156
43809SOL     OW37389   7.964   2.848   0.356 -0.0550 -0.1169  0.0117
43809SOL    HW137390   7.902   2.921   0.354  0.4379  0.3059 -2.0981
43809SOL    HW237391   8.010   2.858   0.439 -0.1181  1.8709 -0.1426
43810SOL     OW37392   2.884  11.650   6.274 -0.1559 -0.5510  0.0202
43810SOL    HW137393   2.809  11.622   6.327  0.3155  0.0601  1.0413
43810SOL    HW237394   2.949  11.677   6.338  0.4914  0.0808 -0.8845
43811SOL     OW37395   4.700   0.181  11.642  0.2450 -0.0593  0.0928
43811SOL    HW137396   4.691   0.122  11.717 -0.0804 -1.9840 -1.3892
43811SOL    HW237397   4.623   0.162  11.588  0.2124  1.6531 -0.5303
43812SOL     OW37398   1.414   1.027   1.901  0.0771  0.3863 -0.0623
43812SOL    HW137399   1.436   0.934   1.912  0.6676  0.3091 -1.5688
43812SOL    HW237400   1.499   1.070   1.890 -0.0100  1.5204  2.9830
43813SOL     OW37401   0.930   6.628   9.116  0.1107 -0.6936 -0.3808
43813SOL    HW137402   0.992   6.562   9.088 -0.1044 -0.1216 -2.3335
43813SOL    HW237403   0.890   6.660   9.035 -1.1827  0.4587  0.6573
43814SOL     OW37404   3.151   6.056   2.770  0.4438  0.0954  0.4198
43814SOL    HW137405   3.216   6.003   2.816  0.4055 -0.1353  0.2081
43814SOL    HW237406   3.067   6.028   2.807  0.3261 -0.8151 -0.4968
43815SOL     OW37407   2.432   2.204   5.767  0.3713  0.9652 -0.5347
43815SOL    HW137408   2.466   2.202   5.856 -1.2969  0.3513  0.1230
43815SOL    HW237409   2.360   2.267   5.770  0.4908  1.1684 -1.5282
43816SOL     OW37410   0.251   0.466   7.979 -0.4146 -0.3795  0.2133
43816SOL    HW137411   0.226   0.465   8.072  0.7883  0.0545  0.5650
43816SOL    HW237412   0.179   0.421   7.934 -2.8034  2.4420  0.8889
43817SOL     OW37413   7.552   5.494   3.600 -0.1669  0.1535  0.1253
43817SOL    HW137414   7.493   5.422   3.622  0.0499 -0.2326 -0.5183
43817SOL    HW237415   7.602   5.509   3.679  0.0943 -0.7103  0.1413
43818SOL     OW37416   1.806   7.075   7.195 -0.7021  0.1631 -0.1645
43818SOL    HW137417   1.845   7.102   7.278 -1.2625  1.1947 -0.2268
43818SOL    HW237418   1.714   7.098   7.203 -0.5904  1.1212 -1.4152
43819SOL     OW37419   3.608   0.091   6.098  0.2260 -0.2318 -0.4507
43819SOL    HW137420   3.697   0.108   6.130 -0.1835 -0.8930  1.1270
43819SOL    HW237421   3.600   0.146   6.020  1.9453 -0.0031 -0.5099
43820SOL     OW37422   5.676   8.687   3.049 -0.5685  0.3706  0.3577
43820SOL    HW137423   5.734   8.751   3.009 -0.7769 -0.7660 -1.9398
43820SOL    HW237424   5.735   8.621   3.086 -0.2336 -0.9990 -2.3326
43821SOL     OW37425  10.723   4.124   0.022 -0.3769 -0.0905  0.1703
43821SOL    HW137426  10.674   4.153   0.099 -1.2162 -0.2489 -0.3015
43821SOL    HW237427  10.677   4.161  -0.052  0.8984  0.7349 -0.2425
43822SOL     OW37428   0.793   0.485   1.111  0.0472 -0.2023 -0.3559
43822SOL    HW137429   0.714   0.442   1.079 -0.9300  0.1532  1.4458
43822SOL    HW237430   0.826   0.535   1.036 -0.3011 -1.8992 -1.6982
43823SOL     OW37431   6.752  12.328  10.938  0.4522  0.0200 -0.1639
43823SOL    HW137432   6.731  12.417  10.967 -0.2171  0.4934 -1.9942
43823SOL    HW237433   6.667  12.284  10.930  0.7648 -0.7594  0.5555
43824SOL     OW37434   5.974   0.788   3.942  0.7663 -0.1477  0.5145
43824SOL    HW137435   5.946   0.821   3.856  2.3110  2.3849  0.8924
43824SOL    HW237436   5.892   0.779   3.991  0.0455  0.6761 -0.4699
43825SOL     OW37437   4.964   2.864   7.932  0.1961 -0.1561 -0.1135
43825SOL    HW137438   5.012   2.791   7.893 -0.0175  0.4163 -1.4848
43825SOL    HW237439   4.895   2.822   7.983  0.2453 -0.9238 -0.6597
43826SOL     OW37440   1.663   5.013  11.295 -0.1529 -0.0711  0.1566
43826SOL    HW137441   1.577   5.033  11.331 -0.3792  0.5485 -0.7012
43826SOL    HW237442   1.699   4.947  11.354 -1.9286 -1.6622 -0.4289
43827SOL     OW37443   5.504   2.915   0.692  0.3115  0.1368  0.0594
43827SOL    HW137444   5.433   2.852   0.682 -0.3048  0.7653  0.3371
43827SOL    HW237445   5.548   2.890   0.774 -0.7758  0.8572  0.8899
43828SOL     OW37446   1.377   1.432   7.882 -0.7012  0.4556 -0.3817
43828SOL    HW137447   1.456   1.381   7.901 -0.2997  2.1278  3.1986
43828SOL    HW237448   1.313   1.368   7.852  0.8694 -1.5378  0.3451
43829SOL     OW37449   7.573   7.037   6.086  0.1981 -0.0617  0.4010
43829SOL    HW137450   7.636   7.070   6.021  0.1159 -0.4841  0.1025
43829SOL    HW237451   7.508   6.989   6.034 -0.1731  0.0646  0.7448
43830SOL     OW37452   6.337   8.810   4.692  0.1624  0.4623 -0.2011
43830SOL    HW137453   6.423   8.792   4.654 -0.0047  0.8740 -0.7897
43830SOL    HW237454   6.277   8.809   4.618 -0.3826 -0.0698  0.2414
43831SOL     OW37455   7.866   5.654  10.081  0.3556  0.2552 -0.2739
43831SOL    HW137456   7.905   5.664  10.168  1.0968  0.2049 -0.5925
43831SOL    HW237457   7.834   5.741  10.059  0.6846  0.3965 -0.1928
43832SOL     OW37458   7.997   9.540  11.854  0.0882  0.3381  0.9167
43832SOL    HW137459   8.017   9.455  11.814 -0.2048 -0.0052  1.4803
43832SOL    HW237460   7.923   9.573  11.803 -0.1099  0.0286  1.0006
43833SOL     OW37461   4.673   0.017   9.117  0.5135 -0.3995  0.3713
43833SOL    HW137462   4.726  -0.062   9.106  1.7081  0.4158  0.1827
43833SOL    HW237463   4.715   0.082   9.062 -1.2085  0.0407 -0.4671
43834SOL     OW37464   6.410   5.728   6.928  0.1352  0.1927 -0.4201
43834SOL    HW137465   6.494   5.719   6.885 -0.5814 -1.7139 -1.5222
43834SOL    HW237466   6.381   5.638   6.945 -0.3675  0.8186  2.6348
43835SOL     OW37467   2.463   8.855   9.058  0.6367  0.1669 -0.2466
43835SOL    HW137468   2.528   8.883   9.122  0.6559  0.8617 -0.5546
43835SOL    HW237469   2.502   8.878   8.973  0.5714 -0.6465 -0.5057
43836SOL     OW37470   0.509   6.080   5.488 -0.4432  0.7308 -0.3170
43836SOL    HW137471   0.593   6.033   5.491  0.1693  1.8352  2.2753
43836SOL    HW237472   0.533   6.168   5.458 -0.7389  0.9098 -0.0324
43837SOL     OW37473   0.863   7.923   0.120 -0.0333  0.1190 -0.3092
43837SOL    HW137474   0.820   7.973   0.190 -1.1031 -1.4339  0.1946
43837SOL    HW237475   0.815   7.948   0.041  1.2409  1.9530 -0.5737
43838SOL     OW37476   5.175  11.282   5.643  0.2480  0.3652  0.7324
43838SOL    HW137477   5.110  11.340   5.682  0.9465  0.6838  1.4544
43838SOL    HW237478   5.148  11.273   5.551 -1.7667 -0.8784  1.3753
43839SOL     OW37479  11.053   2.891   6.881 -0.3086 -0.2051 -0.5121
43839SOL    HW137480  11.039   2.835   6.804 -0.6297  2.8312 -2.8366
43839SOL    HW237481  11.002   2.969   6.864 -1.5287  0.1099  3.5532
43840SOL     OW37482   7.908   3.983   3.102 -0.0621  0.8903  0.0394
43840SOL    HW137483   8.000   3.975   3.127  0.2034 -1.0344 -1.3480
43840SOL    HW237484   7.872   3.896   3.116 -1.0820  1.0105 -1.6352
43841SOL     OW37485   5.836   5.293   1.599 -0.1954  0.0257 -0.4855
43841SOL    HW137486   5.848   5.219   1.659 -0.5002  0.7172  0.4512
43841SOL    HW237487   5.764   5.343   1.637 -2.2693 -0.9572 -2.8876
43842SOL     OW37488   2.556  11.329   9.636  0.1503  0.4595 -0.1483
43842SOL    HW137489   2.600  11.358   9.556 -1.2227  0.9852 -0.7473
43842SOL    HW237490   2.589  11.241   9.652  1.6103  0.9307 -0.3967
43843SOL     OW37491  12.049   5.808   7.874  0.8353  0.9065  0.1920
43843SOL    HW137492  12.143   5.794   7.882  0.6636 -0.6559 -0.1289
43843SOL    HW237493  12.015   5.724   7.843 -0.5501  1.7346 -0.6539
43844SOL     OW37494   6.272   1.586   9.647  0.1999  0.1680 -0.1288
43844SOL    HW137495   6.208   1.646   9.611  0.6405  0.3157 -0.6804
43844SOL    HW237496   6.255   1.502   9.603 -0.0825  0.0190  0.2602
43845SOL     OW37497   6.000   2.503   0.909  0.3478  0.0129 -0.0370
43845SOL    HW137498   6.026   2.588   0.946 -0.9791  0.1004  0.7854
43845SOL    HW237499   5.905   2.507   0.906  0.3234 -0.9798 -1.1882
43846SOL     OW37500   9.875  11.480   2.535  0.2846  0.1826 -0.1016
43846SOL    HW137501   9.813  11.490   2.607  0.7067 -1.0175  0.4558
43846SOL    HW237502   9.952  11.441   2.575  1.8274  2.5001 -0.5852
43847SOL     OW37503   7.236   5.233  10.057 -0.4229  0.6683 -0.1259
43847SOL    HW137504   7.189   5.296  10.113  0.0546  1.8687 -1.0412
43847SOL    HW237505   7.226   5.149  10.102 -1.2818  1.3517  1.0070
43848SOL     OW37506  10.564  11.330   6.817  0.0902  0.7981 -0.0697
43848SOL    HW137507  10.553  11.368   6.904 -0.7608  1.2065 -0.3430
43848SOL    HW237508  10.647  11.365   6.786 -1.2016  3.4910 -0.8024
43849SOL     OW37509   2.090  10.064   3.075  0.4254 -0.1975  0.3849
43849SOL    HW137510   2.098  10.019   3.159 -1.2798 -0.3081  0.5303
43849SOL    HW237511   2.147  10.140   3.083 -1.0825  0.8277  2.4045
43850SOL     OW37512  11.765   0.993   5.934 -0.5003  0.0274 -0.1988
43850SOL    HW137513  11.693   0.991   5.997 -0.3199 -0.4572 -0.0021
43850SOL    HW237514  11.728   1.036   5.857 -1.1431 -0.6005 -0.2564
43851SOL     OW37515   5.540   7.446   9.154  0.0770  0.3093 -0.8055
43851SOL    HW137516   5.510   7.473   9.068  0.8089 -0.1835 -1.2216
43851SOL    HW237517   5.487   7.498   9.215 -0.3030  0.8051 -1.5428
43852SOL     OW37518   0.209   5.983   9.271 -0.1949  0.1685  0.3737
43852SOL    HW137519   0.149   5.961   9.343 -1.6889  1.9637 -0.2566
43852SOL    HW237520   0.296   5.979   9.311 -0.7477 -1.6695  1.5385
43853SOL     OW37521   2.539   2.304   2.039 -0.8288  0.0777 -0.3737
43853SOL    HW137522   2.495   2.229   2.079 -2.5038 -0.0564 -2.3021
43853SOL    HW237523   2.547   2.368   2.109 -1.1658 -1.1530  0.8234
43854SOL     OW37524   6.462   6.782  11.513  0.3875 -0.3476 -0.0326
43854SOL    HW137525   6.403   6.709  11.494  0.1421  0.0580 -0.8763
43854SOL    HW237526   6.522   6.784  11.439  1.0239 -0.3213  0.4826
43855SOL     OW37527  11.224   6.092   5.272  0.2838  0.3258  0.1272
43855SOL    HW137528  11.135   6.124   5.259  0.8737  1.4160 -1.5444
43855SOL    HW237529  11.280   6.163   5.241  1.7909  0.1520  2.2102
43856SOL     OW37530   6.354   4.931  12.377  0.0048  0.2936 -0.0244
43856SOL    HW137531   6.396   4.939  12.463 -0.0664 -2.2304  0.3392
43856SOL    HW237532   6.389   5.004  12.326  3.8427 -0.8117  0.6972
43857SOL     OW37533   5.024   0.286   4.085 -0.3129 -0.2176 -1.1004
43857SOL    HW137534   5.032   0.331   4.169 -0.3392 -1.1238 -0.5955
43857SOL    HW237535   4.953   0.333   4.040 -1.6127 -0.8666  0.1724
43858SOL     OW37536   7.647   0.226   3.578 -0.0039  0.6476 -0.1787
43858SOL    HW137537   7.727   0.188   3.540 -0.2454  0.6527 -0.7049
43858SOL    HW237538   7.577   0.201   3.517 -0.3598  0.8885  0.1246
43859SOL     OW37539   8.039   2.199   9.825  0.0081 -0.3344 -0.2792
43859SOL    HW137540   7.968   2.158   9.875 -0.5640 -2.2018 -2.4584
43859SOL    HW237541   8.004   2.284   9.800 -0.6072 -0.3498  0.4735
43860SOL     OW37542   0.456  11.585   6.765  0.4528 -0.0472 -0.2402
43860SOL    HW137543   0.441  11.495   6.792 -1.5799  0.2606 -0.1085
43860SOL    HW237544   0.379  11.607   6.712  0.8382  1.6233 -0.1735
43861SOL     OW37545  11.437   6.164   9.093  0.6329 -0.1448 -0.1859
43861SOL    HW137546  11.366   6.228   9.105  1.9463  1.1175  1.4851
43861SOL    HW237547  11.506   6.213   9.049  0.5064 -1.3649 -1.8084
43862SOL     OW37548  10.365  10.131   8.752 -0.2215  0.5650  0.2770
43862SOL    HW137549  10.324  10.084   8.825  2.3399  0.7871  1.9970
43862SOL    HW237550  10.427  10.068   8.716 -0.3560  0.9922 -0.7211
43863SOL     OW37551   4.501   8.991   8.771 -0.2659 -0.5175  0.5157
43863SOL    HW137552   4.409   8.963   8.775  0.0148 -1.3344  2.1097
43863SOL    HW237553   4.549   8.910   8.758  0.1884  0.0505 -1.6406
43864SOL     OW37554  11.291  10.898   3.668 -0.3330  0.5646  0.0493
43864SOL    HW137555  11.311  10.991   3.655 -2.4689  1.3097  1.3800
43864SOL    HW237556  11.376  10.856   3.680  0.6843  2.3631 -0.4720
43865SOL     OW37557   8.523   3.425   3.777 -0.1853  0.7364  0.1198
43865SOL    HW137558   8.609   3.450   3.809 -0.1095 -0.8962  1.3405
43865SOL    HW237559   8.468   3.501   3.794  0.5806  1.0621  1.2704
43866SOL     OW37560   2.736   7.176   7.478 -0.2487  0.2269  0.0425
43866SOL    HW137561   2.675   7.136   7.416 -0.9484  1.3138 -0.0069
43866SOL    HW237562   2.775   7.103   7.525 -3.0782 -0.4557  1.4918
43867SOL     OW37563   9.896   1.920  11.153  0.3417 -0.1832  0.1634
43867SOL    HW137564   9.978   1.929  11.201  0.6101  1.8393 -0.6003
43867SOL    HW237565   9.921   1.880  11.070  0.5079  0.2311  0.0169
43868SOL     OW37566  11.447   5.555   9.539  0.0357 -0.2726 -0.9357
43868SOL    HW137567  11.432   5.615   9.466  0.9351  1.8355  0.4999
43868SOL    HW237568  11.398   5.593   9.612  2.8084  0.3619  0.7622
43869SOL     OW37569   4.512   9.342   4.037 -0.0187  0.4390 -0.2083
43869SOL    HW137570   4.497   9.424   4.085  2.7980  1.3146 -0.6015
43869SOL    HW237571   4.492   9.363   3.946 -0.4467  0.3094 -0.1473
43870SOL     OW37572  11.169   4.357   8.587  0.2410 -0.2115 -0.6789
43870SOL    HW137573  11.253   4.312   8.588 -0.1677 -1.0372  1.1360
43870SOL    HW237574  11.104   4.289   8.603 -0.4890  0.7811  0.9729
43871SOL     OW37575   6.175   3.091   5.258 -0.3604 -0.3116  0.2441
43871SOL    HW137576   6.168   3.151   5.332 -1.3373  0.2056 -0.2506
43871SOL    HW237577   6.095   3.039   5.261  0.9546 -2.4101  1.3192
43872SOL     OW37578   9.680   4.469  11.460  0.0036  0.0245  0.5175
43872SOL    HW137579   9.587   4.444  11.460 -0.6130  2.0292  1.9005
43872SOL    HW237580   9.723   4.401  11.408 -2.5957  0.4475 -2.5150
43873SOL     OW37581   7.972   8.189   9.748 -0.4025  0.1892 -0.9632
43873SOL    HW137582   8.016   8.126   9.690 -0.6548 -0.7154 -0.1983
43873SOL    HW237583   7.884   8.198   9.710 -0.7474 -0.8212 -0.4310
43874SOL     OW37584  11.827   4.002  12.298 -0.8506 -0.1217 -0.1274
43874SOL    HW137585  11.836   4.056  12.219  2.8078 -2.9835 -1.9903
43874SOL    HW237586  11.786   3.921  12.266  2.2292 -2.0128  0.3131
43875SOL     OW37587   7.457   8.803   3.228  0.2436  0.3879 -0.4603
43875SOL    HW137588   7.521   8.735   3.205 -0.6227 -0.8038  0.5000
43875SOL    HW237589   7.373   8.767   3.198 -0.3885  0.4800  1.0972
43876SOL     OW37590   1.759   1.408   6.535  0.6643  0.6314  0.6890
43876SOL    HW137591   1.800   1.410   6.622 -1.1785  1.4865  1.5961
43876SOL    HW237592   1.675   1.452   6.547  0.0519  0.1434 -1.3875
43877SOL     OW37593  10.226  10.462  10.240 -0.0525  0.2576  0.2593
43877SOL    HW137594  10.273  10.544  10.229 -0.1948  0.5265  1.4957
43877SOL    HW237595  10.294  10.395  10.247  0.1075  0.4651  0.6940
43878SOL     OW37596   4.331  12.021   0.550  0.2162 -0.2153  0.4800
43878SOL    HW137597   4.419  11.999   0.520  0.0501 -0.6486  0.3036
43878SOL    HW237598   4.296  12.078   0.482  1.1778  1.8643  1.6212
43879SOL     OW37599   4.938   4.553   1.916  0.5225  0.4945  0.3275
43879SOL    HW137600   4.931   4.503   1.835 -0.1860  0.8475  0.1647
43879SOL    HW237601   4.931   4.488   1.985 -0.7556  0.3884  0.1247
43880SOL     OW37602   6.811   9.617  10.399  0.2301 -0.2076 -0.1073
43880SOL    HW137603   6.809   9.582  10.488  0.3974  2.3434  0.9674
43880SOL    HW237604   6.827   9.540  10.344  3.2932 -1.4945  2.2917
43881SOL     OW37605   7.302   8.417   9.409 -0.6465  0.0176  0.1790
43881SOL    HW137606   7.349   8.340   9.441 -0.2432  0.3713  0.4488
43881SOL    HW237607   7.227   8.425   9.467 -0.2876  0.2572  0.6165
43882SOL     OW37608  11.134   7.853   5.000 -0.3730  0.2370 -0.5693
43882SOL    HW137609  11.040   7.871   5.009 -0.3820 -0.2064  0.2391
43882SOL    HW237610  11.169   7.932   4.959 -0.4806  2.0009  2.4819
43883SOL     OW37611   1.808   0.949   6.494  0.5320  0.2789  0.7120
43883SOL    HW137612   1.763   0.886   6.437  1.2416  0.8447 -0.5132
43883SOL    HW237613   1.742   1.014   6.516 -0.0471 -0.5301  1.4956
43884SOL     OW37614   4.519   1.583   9.515  0.5277 -0.2216  0.1484
43884SOL    HW137615   4.453   1.650   9.535 -0.5154 -1.5183  1.1937
43884SOL    HW237616   4.496   1.509   9.570  1.3527 -1.6594 -1.3444
43885SOL     OW37617  12.474   6.503   1.536 -0.1740  0.1445  0.0719
43885SOL    HW137618  12.534   6.518   1.462  0.0494  0.9963  0.4113
43885SOL    HW237619  12.473   6.408   1.547  1.6117  0.1298  0.4397
43886SOL     OW37620   0.986   1.214   5.291  0.3003  0.1155  0.1162
43886SOL    HW137621   0.907   1.186   5.339  0.1839  0.3013  0.0321
43886SOL    HW237622   0.952   1.249   5.209  0.0176  4.6013  1.8658
43887SOL     OW37623   1.154   1.279   2.878 -0.5608  0.4652  0.0204
43887SOL    HW137624   1.059   1.284   2.866 -0.6597 -0.9037  0.0196
43887SOL    HW237625   1.171   1.327   2.958 -1.7635 -2.1728  2.0260
43888SOL     OW37626  11.950  10.661   5.170 -0.1957  0.1371  0.1452
43888SOL    HW137627  12.016  10.593   5.187 -0.1667 -0.0124 -0.5620
43888SOL    HW237628  11.999  10.732   5.128  0.2362  1.5532  2.8176
43889SOL     OW37629  10.984   8.379  11.001  0.8938  0.2503  0.0669
43889SOL    HW137630  11.074   8.407  11.017  0.0781  1.7422  2.6609
43889SOL    HW237631  10.976   8.296  11.049  0.8593  0.1703 -0.0759
43890SOL     OW37632  12.196   0.583   6.976  0.1102  0.6008 -0.0287
43890SOL    HW137633  12.213   0.646   6.906  0.0793  0.2355 -0.3693
43890SOL    HW237634  12.163   0.636   7.048 -0.3703  0.9195 -0.4750
43891SOL     OW37635   9.283   6.692  11.653 -0.2722  0.0778  0.4508
43891SOL    HW137636   9.207   6.722  11.605 -0.6538  2.4169  2.3172
43891SOL    HW237637   9.357   6.740  11.616  0.1766 -1.3808 -0.6341
43892SOL     OW37638  11.654  10.515   6.378  0.0163  0.2123 -0.0434
43892SOL    HW137639  11.749  10.504   6.381 -0.0489 -0.1958  1.1654
43892SOL    HW237640  11.623  10.483   6.463 -1.1525  0.8220 -0.2091
43893SOL     OW37641   7.944   7.703   9.144  0.2547  0.5990 -0.0756
43893SOL    HW137642   7.946   7.719   9.050  0.4114  0.4564 -0.0978
43893SOL    HW237643   8.021   7.648   9.161 -0.2021 -0.0210  0.0161
43894SOL     OW37644   2.124   5.517   3.499 -0.0096  0.5208  0.4005
43894SOL    HW137645   2.177   5.593   3.472  0.0345 -0.5245 -2.8899
43894SOL    HW237646   2.183   5.442   3.488 -1.1392 -0.3310 -0.0436
43895SOL     OW37647   0.851   1.947   8.708  0.2656 -0.7308 -0.7507
43895SOL    HW137648   0.812   1.985   8.786  0.4610 -2.3914  0.1998
43895SOL    HW237649   0.866   1.855   8.730  1.3335 -0.9994 -2.3604
43896SOL     OW37650   7.302   4.237  12.309  0.2224 -0.0971 -0.3267
43896SOL    HW137651   7.291   4.324  12.268  0.6343  0.4921  0.7711
43896SOL    HW237652   7.326   4.180  12.236  3.1606  1.3705 -0.6867
43897SOL     OW37653   7.193   7.658   3.341  0.1053 -0.2054  0.0812
43897SOL    HW137654   7.181   7.563   3.353 -2.0952  0.1066  0.8999
43897SOL    HW237655   7.116   7.686   3.293  0.7695  1.1798 -0.2310
43898SOL     OW37656   3.885   5.598   2.834 -0.9477  0.2725  0.2245
43898SOL    HW137657   3.841   5.620   2.751 -1.1113 -0.8502 -0.0062
43898SOL    HW237658   3.893   5.502   2.832 -1.2148  0.1938  1.6405
43899SOL     OW37659   6.659   4.799   2.456 -0.8588 -0.4609  0.4476
43899SOL    HW137660   6.669   4.845   2.539  0.9436  0.8426 -0.4212
43899SOL    HW237661   6.739   4.819   2.407 -2.1012 -0.6817 -1.8371
43900SOL     OW37662   3.773   6.622  12.045  0.6892  0.1377 -0.6558
43900SOL    HW137663   3.765   6.557  12.114  0.2991  2.5126  1.6862
43900SOL    HW237664   3.865   6.618  12.018  0.6582 -1.3661 -0.6106
43901SOL     OW37665   2.833   7.326  11.663 -0.0632 -0.3007 -0.6306
43901SOL    HW137666   2.780   7.406  11.669 -0.3595 -0.5481  0.3140
43901SOL    HW237667   2.904   7.339  11.726 -0.0713 -0.7465 -0.5235
43902SOL     OW37668   7.989   7.215   9.243 -0.8661  0.3475  0.0702
43902SOL    HW137669   7.976   7.306   9.217 -1.5415  0.1702 -0.2105
43902SOL    HW237670   8.000   7.167   9.161  3.1290  0.6601  0.2239
43903SOL     OW37671   6.846   5.869  10.664  0.9388 -0.4651 -0.3562
43903SOL    HW137672   6.841   5.930  10.590 -0.2223 -0.1410 -0.0282
43903SOL    HW237673   6.939   5.866  10.686  1.5508 -1.7016 -2.7523
43904SOL     OW37674   1.796   1.364   0.553  0.2637  0.7928  0.5596
43904SOL    HW137675   1.855   1.414   0.609 -1.3279  1.4964  1.6554
43904SOL    HW237676   1.772   1.425   0.483  0.2563  0.7413  0.5171
43905SOL     OW37677  12.040  12.132   5.899 -0.2916  0.1085  0.0452
43905SOL    HW137678  12.039  12.206   5.961 -0.3805 -0.4513  0.7268
43905SOL    HW237679  12.059  12.056   5.954  0.4220 -0.2927 -0.7484
43906SOL     OW37680  10.139   9.984  11.840 -0.4854  0.1709  0.3541
43906SOL    HW137681  10.151   9.943  11.755 -2.3126 -0.9475  0.5898
43906SOL    HW237682  10.173  10.073  11.829 -0.5671  0.0106 -1.4859
43907SOL     OW37683  12.078  11.590   2.462  0.3562 -0.6120 -0.1051
43907SOL    HW137684  12.007  11.585   2.398  0.3006 -0.0869 -0.0884
43907SOL    HW237685  12.039  11.558   2.543 -0.3583  1.1664  0.3080
43908SOL     OW37686   0.181   5.119   4.726 -0.0526  0.6611  0.0722
43908SOL    HW137687   0.162   5.027   4.710 -0.4329  0.8343 -0.5233
43908SOL    HW237688   0.212   5.152   4.641  1.8659  0.6533  0.7287
43909SOL     OW37689   1.357   1.485   6.300 -0.2320 -0.2078 -0.8014
43909SOL    HW137690   1.379   1.578   6.293  1.7415 -0.2729  2.5908
43909SOL    HW237691   1.262   1.484   6.305 -0.2474  1.9499  1.4326
43910SOL     OW37692  11.114   7.390  11.947  0.4395 -0.0007 -0.1211
43910SOL    HW137693  11.089   7.313  11.999  0.8893 -0.7090 -0.9231
43910SOL    HW237694  11.201   7.369  11.914 -0.2493 -0.0714 -2.0389
43911SOL     OW37695  12.113   8.048   1.260 -0.1358  0.6666  0.1884
43911SOL    HW137696  12.176   8.044   1.332  0.2843  1.4960 -0.1168
43911SOL    HW237697  12.167   8.043   1.181 -0.3698  2.0641 -0.0895
43912SOL     OW37698   7.960   3.178   9.113  0.0786 -1.3097  0.0186
43912SOL    HW137699   7.919   3.178   9.026 -0.3171 -2.8126  0.1845
43912SOL    HW237700   7.901   3.232   9.167  0.4450 -0.1759 -0.6706
43913SOL     OW37701   8.416  11.882   2.678  0.1031  0.3699 -0.5737
43913SOL    HW137702   8.400  11.976   2.673  1.6695  0.6708 -0.3525
43913SOL    HW237703   8.374  11.855   2.760  0.0170  0.9427 -0.4253
43914SOL     OW37704   5.533  10.908   2.398 -0.1030  0.1350 -0.3894
43914SOL    HW137705   5.492  10.835   2.443 -1.4200  0.4839 -0.9674
43914SOL    HW237706   5.528  10.884   2.305 -0.3877  0.8701 -0.5703
43915SOL     OW37707  11.586   3.641  10.653  0.1398 -0.2572  0.2763
43915SOL    HW137708  11.662   3.608  10.604 -1.2461 -0.4688 -1.8617
43915SOL    HW237709  11.570   3.728  10.617 -2.7553 -1.5785 -2.0264
43916SOL     OW37710   2.605  10.818   4.339  0.2374 -0.0600  0.1892
43916SOL    HW137711   2.589  10.783   4.426 -1.9681 -0.0804 -0.1590
43916SOL    HW237712   2.570  10.907   4.342  3.6641  1.4409  0.3878
43917SOL     OW37713   6.263   2.507   5.352  0.7369  0.0862 -0.7970
43917SOL    HW137714   6.293   2.428   5.397  2.9663  0.2921 -1.7764
43917SOL    HW237715   6.331   2.572   5.370  0.2080  1.0260 -2.0458
43918SOL     OW37716  11.988   7.709   9.225 -0.3443 -0.1843  0.2846
43918SOL    HW137717  11.966   7.645   9.293 -2.4303 -0.7309 -0.8077
43918SOL    HW237718  12.005   7.656   9.147  0.2693  0.5125 -0.0655
43919SOL     OW37719   0.575   2.915   4.845  0.0886  0.5586 -0.3720
43919SOL    HW137720   0.586   2.930   4.751  2.7897 -1.4276 -0.5108
43919SOL    HW237721   0.638   2.974   4.886 -1.0781  1.4108  0.2154
43920SOL     OW37722   1.287   4.843   4.222 -0.2984 -0.5561  0.1319
43920SOL    HW137723   1.251   4.829   4.135  2.0130  0.4326 -1.0929
43920SOL    HW237724   1.281   4.938   4.235  2.0799 -0.2689 -0.3437
43921SOL     OW37725   8.693   4.886   0.536  0.1418 -0.0224  0.4200
43921SOL    HW137726   8.613   4.863   0.583  0.8312 -1.5888  0.8988
43921SOL    HW237727   8.669   4.961   0.483 -1.8418 -0.8962 -0.0050
43922SOL     OW37728  11.839   0.833   4.502  0.3411  0.5226  0.4791
43922SOL    HW137729  11.771   0.830   4.434  0.7108 -1.0847  0.1362
43922SOL    HW237730  11.890   0.912   4.482 -0.4025  0.8298 -0.2571
43923SOL     OW37731   6.211   9.384   6.834  0.5973 -0.3290  0.5366
43923SOL    HW137732   6.164   9.440   6.771  2.6942 -1.2614 -2.0776
43923SOL    HW237733   6.196   9.295   6.803  2.3388 -0.7658  0.8373
43924SOL     OW37734   7.872   4.169   9.137  0.3910 -0.5028 -0.2431
43924SOL    HW137735   7.967   4.165   9.124  0.3268  0.6793 -1.3247
43924SOL    HW237736   7.835   4.153   9.050 -0.4565 -1.7826  0.3182
43925SOL     OW37737   5.367   6.679  10.866 -0.3187  0.2611  0.1460
43925SOL    HW137738   5.319   6.762  10.866  0.4886  0.7488  0.7148
43925SOL    HW237739   5.392   6.666  10.775 -1.6901 -0.1043 -0.1887
43926SOL     OW37740   5.734   8.428  12.455  0.1568  0.8107 -0.1640
43926SOL    HW137741   5.750   8.354  12.514 -0.1908  0.2101 -0.8158
43926SOL    HW237742   5.704   8.499  12.513 -1.8161 -0.2702  0.2236
43927SOL     OW37743   7.664   4.062  12.070 -0.2684 -0.0294  0.4976
43927SOL    HW137744   7.758   4.069  12.052 -0.4700 -0.5488 -0.9015
43927SOL    HW237745   7.656   4.079  12.164  1.4246 -1.7582  1.0227
43928SOL     OW37746   6.581   4.328   5.042  0.5236 -0.1470  0.1873
43928SOL    HW137747   6.614   4.366   4.961 -2.0456 -0.0170 -0.8728
43928SOL    HW237748   6.643   4.257   5.062  1.5520  0.2116 -1.5155
43929SOL     OW37749   7.382  10.193   2.043 -0.0545  0.6172 -0.1524
43929SOL    HW137750   7.444  10.121   2.058  0.2189  0.9181  0.2076
43929SOL    HW237751   7.411  10.261   2.103  0.1960  1.3435 -1.0722
43930SOL     OW37752   3.777  11.966   6.960 -1.0735  0.3629 -0.0493
43930SOL    HW137753   3.727  12.033   6.912 -1.6160  0.5478  0.7616
43930SOL    HW237754   3.808  11.907   6.892  0.0968  1.8701 -0.8904
43931SOL     OW37755   8.223  10.764   6.135 -0.2477 -0.2977  0.6273
43931SOL    HW137756   8.128  10.759   6.119 -0.0122  0.7201 -1.3711
43931SOL    HW237757   8.230  10.804   6.222 -1.6344 -0.8328  1.0212
43932SOL     OW37758   9.256   4.348   8.032 -0.3780  0.0607  0.1137
43932SOL    HW137759   9.290   4.259   8.026 -1.8420 -0.7293  2.1756
43932SOL    HW237760   9.162   4.339   8.016 -0.2005  1.6863 -2.2805
43933SOL     OW37761   7.314   9.455   1.801  0.2251  0.1603  0.4061
43933SOL    HW137762   7.351   9.430   1.717  0.5717 -0.4531  0.7359
43933SOL    HW237763   7.262   9.380   1.828  0.7405  0.0402  1.0932
43934SOL     OW37764  11.291   5.210   9.501  0.4761  0.1309 -0.1079
43934SOL    HW137765  11.298   5.190   9.408  1.3375 -1.4063  0.2481
43934SOL    HW237766  11.371   5.257   9.522  0.6871 -0.2708  0.0090
43935SOL     OW37767   1.761   2.317   8.447 -0.2164 -0.3189  0.3235
43935SOL    HW137768   1.800   2.231   8.457 -0.9485 -0.7677 -0.5005
43935SOL    HW237769   1.667   2.302   8.459 -0.4472  0.1983 -0.6957
43936SOL     OW37770   1.435   4.121   0.761 -0.5109  0.1579  0.8427
43936SOL    HW137771   1.447   4.212   0.788  0.7592  0.3034 -0.1127
43936SOL    HW237772   1.475   4.070   0.831 -2.4056  0.2300  2.0482
43937SOL     OW37773   3.112   1.014   6.060 -0.5084 -0.2273  0.4707
43937SOL    HW137774   3.195   1.014   6.108 -0.2326  1.7711  0.0814
43937SOL    HW237775   3.128   0.956   5.985  0.1289 -0.7988  1.0425
43938SOL     OW37776  10.293  10.829   2.961 -0.0133 -0.0134 -0.4346
43938SOL    HW137777  10.349  10.778   3.019  0.0683  0.7655  0.1879
43938SOL    HW237778  10.353  10.887   2.915 -0.1201 -0.3780 -1.0366
43939SOL     OW37779   3.800   9.877   6.631  0.3891  0.3538  0.1174
43939SOL    HW137780   3.812   9.954   6.574  1.3883 -0.0291 -0.2174
43939SOL    HW237781   3.846   9.900   6.711  1.3649 -0.1818 -0.2706
43940SOL     OW37782   5.035  10.808  12.299 -0.4760 -0.5915  0.6115
43940SOL    HW137783   4.951  10.814  12.253 -0.9182 -0.8915  1.3523
43940SOL    HW237784   5.080  10.890  12.278 -1.4896  0.1351  1.2010
43941SOL     OW37785   5.571   0.893  11.075  0.0020  0.6124  0.2434
43941SOL    HW137786   5.619   0.951  11.134 -1.0311 -1.2177  3.1020
43941SOL    HW237787   5.500   0.947  11.040  0.0406  1.5286  1.5052
43942SOL     OW37788  11.263   2.284   5.096  0.6841 -0.5105 -0.1787
43942SOL    HW137789  11.294   2.361   5.049  1.6945 -1.6450 -1.4476
43942SOL    HW237790  11.168   2.296   5.102  0.8028  0.7294 -0.5041
43943SOL     OW37791   1.104   8.410   1.520 -0.2891  0.1146 -0.0838
43943SOL    HW137792   1.121   8.316   1.506 -1.1704 -0.0092 -0.4287
43943SOL    HW237793   1.113   8.448   1.433 -0.8777  0.1862 -0.1155
43944SOL     OW37794   1.326  10.142   1.551 -0.1213  0.3510  0.5820
43944SOL    HW137795   1.367  10.171   1.633  0.4244  1.6401 -0.1109
43944SOL    HW237796   1.397  10.103   1.500  0.7113  3.6771 -1.1272
43945SOL     OW37797   7.946   2.767   3.981  0.6748  0.2548 -0.5047
43945SOL    HW137798   8.004   2.826   3.933  1.4484 -0.1602 -0.1016
43945SOL    HW237799   7.889   2.729   3.914  0.3102  1.2693 -0.8039
43946SOL     OW37800   8.288  12.282   0.511 -0.6255 -0.2514  0.2895
43946SOL    HW137801   8.256  12.315   0.427 -0.0104 -0.1453  0.0924
43946SOL    HW237802   8.329  12.358   0.553 -0.4716 -0.4268  0.4603
43947SOL     OW37803   3.607   1.579   9.730 -0.4455  0.2196  0.0720
43947SOL    HW137804   3.630   1.522   9.657  0.3464  0.8297 -0.1766
43947SOL    HW237805   3.522   1.615   9.707  0.1764  1.0828 -1.0020
43948SOL     OW37806   3.591   1.204   4.249  0.2059 -0.0140 -0.6617
43948SOL    HW137807   3.562   1.185   4.338  1.4678 -0.4372 -0.3178
43948SOL    HW237808   3.583   1.121   4.203  1.8913 -0.4465 -0.2485
43949SOL     OW37809   0.575  11.619   2.371 -0.0497  0.0804  0.3508
43949SOL    HW137810   0.630  11.608   2.448  0.7776  0.9870 -0.0939
43949SOL    HW237811   0.613  11.559   2.306  0.1106  0.3358  0.2069
43950SOL     OW37812   5.924  11.365   7.237  0.4962  0.0084  0.0989
43950SOL    HW137813   5.912  11.347   7.331  0.1262  0.0431  0.0636
43950SOL    HW237814   5.846  11.416   7.214  0.5409 -0.0848 -0.2518
43951SOL     OW37815  10.972   1.748   1.185  0.1324  0.2545  0.5495
43951SOL    HW137816  11.056   1.793   1.198 -0.8726  2.3546  0.2529
43951SOL    HW237817  10.953   1.707   1.269  0.6610  1.2327  1.1602
43952SOL     OW37818  12.461   7.876   3.891 -0.5132  0.0092 -0.3399
43952SOL    HW137819  12.479   7.878   3.985  0.9140  2.0636 -0.5876
43952SOL    HW237820  12.450   7.968   3.866  1.4438 -0.2453 -2.5376
43953SOL     OW37821   1.430  10.800   6.779  0.2384  0.2493 -0.4434
43953SOL    HW137822   1.353  10.835   6.824 -0.2396 -1.2635 -0.0259
43953SOL    HW237823   1.494  10.871   6.783 -0.4090  0.7931  1.0606
43954SOL     OW37824   5.534   4.937  12.256 -0.2759 -0.2880 -0.3010
43954SOL    HW137825   5.446   4.901  12.246 -0.3310  0.0889 -1.2974
43954SOL    HW237826   5.519   5.030  12.275 -0.1229 -0.6182  1.5309
43955SOL     OW37827   5.568   6.160   1.022 -0.0837 -0.8130  0.4816
43955SOL    HW137828   5.526   6.112   0.951  0.0084  0.5523 -0.5226
43955SOL    HW237829   5.495   6.197   1.072 -0.1287 -0.1706 -0.0474
43956SOL     OW37830   8.409  10.966   2.079  0.1714 -0.0822 -0.0041
43956SOL    HW137831   8.459  10.964   1.997 -0.0644  2.4341 -0.2835
43956SOL    HW237832   8.451  11.035   2.131 -2.3097  1.4254  0.1702
43957SOL     OW37833  12.157   9.838  10.590  0.5631 -0.0915 -0.2822
43957SOL    HW137834  12.139   9.856  10.497 -1.0370 -0.7375 -0.1229
43957SOL    HW237835  12.076   9.862  10.635  0.1523 -2.7293  0.5618
43958SOL     OW37836   9.841   8.723   8.002 -0.5108 -0.0291 -0.3769
43958SOL    HW137837   9.852   8.815   8.027 -0.1659 -0.7123  2.3412
43958SOL    HW237838   9.854   8.722   7.908  3.1203  2.2027 -0.0795
43959SOL     OW37839   7.134   1.245   7.776 -0.0119 -0.2667 -1.0940
43959SOL    HW137840   7.152   1.183   7.846 -1.2689  1.1246  0.5256
43959SOL    HW237841   7.215   1.296   7.768  0.1911 -0.5333 -0.7655
43960SOL     OW37842   7.377   5.371   1.829  0.0836  0.1817 -0.9474
43960SOL    HW137843   7.310   5.323   1.878  0.5395 -0.7993 -1.2711
43960SOL    HW237844   7.334   5.453   1.804 -0.5727  0.1245 -0.0430
43961SOL     OW37845   5.618  10.492   4.973  0.1567  0.1591 -0.0746
43961SOL    HW137846   5.587  10.581   4.960  0.9211  0.4525  0.0343
43961SOL    HW237847   5.577  10.442   4.903 -1.2778  0.3269  0.6006
43962SOL     OW37848   3.778   1.310   1.574 -0.0198 -0.1142 -0.4699
43962SOL    HW137849   3.707   1.374   1.566  1.0791  1.1684 -0.2291
43962SOL    HW237850   3.757   1.244   1.508 -1.9285 -0.2699  0.2117
43963SOL     OW37851   1.983   2.408   2.544 -0.1176 -0.1297  1.1748
43963SOL    HW137852   1.889   2.417   2.528  0.1695 -1.2939 -1.7282
43963SOL    HW237853   2.019   2.494   2.521 -0.4419  0.3254  2.3135
43964SOL     OW37854  10.519   2.533   7.308 -0.0334 -0.0218 -0.3534
43964SOL    HW137855  10.574   2.595   7.355 -0.4446 -0.5151  0.7950
43964SOL    HW237856  10.553   2.447   7.333 -1.5496 -0.3427  0.6618
43965SOL     OW37857  10.555   2.121   5.234 -0.8414  0.1123 -0.8406
43965SOL    HW137858  10.624   2.055   5.233  0.5698  1.5062  0.0756
43965SOL    HW237859  10.480   2.079   5.192  0.2828 -1.7484 -1.0552
43966SOL     OW37860  12.254  10.092   0.240  0.1223  0.4344 -0.1906
43966SOL    HW137861  12.270  10.156   0.170 -0.0332  2.2008  1.2901
43966SOL    HW237862  12.306  10.125   0.313 -1.0483 -0.3809  1.0391
43967SOL     OW37863   9.380   9.223   0.809 -0.1423 -0.1531 -0.1838
43967SOL    HW137864   9.402   9.168   0.734 -2.4497  0.3672 -1.3207
43967SOL    HW237865   9.286   9.212   0.820 -0.3728  2.1485  0.6998
43968SOL     OW37866   0.003  10.743  11.867  0.2581 -0.4541  0.0830
43968SOL    HW137867   0.096  10.765  11.868  0.2495 -0.4425  1.0263
43968SOL    HW237868  -0.012  10.698  11.950 -0.9785  1.1973  0.8183
43969SOL     OW37869   6.688   1.152  10.630  0.1132 -0.3763  0.2820
43969SOL    HW137870   6.749   1.120  10.563  0.6571 -1.6929  1.3546
43969SOL    HW237871   6.683   1.246  10.614  0.0400 -0.6654 -1.7382
43970SOL     OW37872   4.150   2.014   1.342 -0.4793  0.1926 -0.3769
43970SOL    HW137873   4.120   2.014   1.433 -0.1205  0.8673 -0.2439
43970SOL    HW237874   4.210   2.089   1.337 -0.0440 -0.1812 -1.0217
43971SOL     OW37875  10.040   5.316   4.650  0.2403  0.3993 -0.0853
43971SOL    HW137876  10.086   5.252   4.704 -0.7836  0.5271  0.9615
43971SOL    HW237877   9.955   5.276   4.633  0.0337  0.9741 -0.4360
43972SOL     OW37878   8.216   1.545   9.063  0.1795  0.0879 -0.1523
43972SOL    HW137879   8.179   1.617   9.115  2.1326  1.0530  0.0066
43972SOL    HW237880   8.250   1.484   9.128  2.1775  1.0548 -0.2084
43973SOL     OW37881   1.084   0.934   4.080  0.2867  0.5536  0.0950
43973SOL    HW137882   1.044   1.005   4.130  2.2481  0.5864  1.7684
43973SOL    HW237883   1.039   0.855   4.111 -0.5723  0.8595 -0.3448
43974SOL     OW37884   0.647   6.696   6.822  0.6356  0.5361  0.3217
43974SOL    HW137885   0.683   6.747   6.749  1.1234  1.3753  1.1279
43974SOL    HW237886   0.552   6.709   6.816  0.6555  0.4050 -0.3017
43975SOL     OW37887   2.415   0.874   5.967  0.0232 -1.1785 -0.0259
43975SOL    HW137888   2.349   0.934   6.003 -0.2962 -1.6968  0.2683
43975SOL    HW237889   2.498   0.920   5.978 -0.3433 -0.2512 -0.9571
43976SOL     OW37890   0.561   9.599   8.679  0.7329  0.1182  0.7056
43976SOL    HW137891   0.564   9.680   8.730 -0.3331  0.0963  0.8171
43976SOL    HW237892   0.530   9.533   8.742 -2.8857  0.5224 -0.4508
43977SOL     OW37893   8.512  12.337   5.771 -0.5309 -0.0875 -0.0796
43977SOL    HW137894   8.584  12.339   5.707 -0.7666  2.2629 -0.3540
43977SOL    HW237895   8.436  12.365   5.721 -0.7978  1.4411  1.1321
43978SOL     OW37896  11.991   9.906   9.194 -0.0743  0.7931  1.1453
43978SOL    HW137897  11.995   9.812   9.210  0.8553  0.4510 -0.7889
43978SOL    HW237898  11.901   9.922   9.165  0.0558  0.3078  0.4674
43979SOL     OW37899   0.621  10.026   1.724 -0.1798  0.2890 -0.2017
43979SOL    HW137900   0.604  10.020   1.818  1.6916  2.4165  0.3638
43979SOL    HW237901   0.705   9.982   1.712 -0.9708 -1.0180 -1.1185
43980SOL     OW37902   2.359   5.007   6.535 -0.2655 -0.0405  0.2396
43980SOL    HW137903   2.454   5.016   6.533 -0.0957 -1.3109 -3.0684
43980SOL    HW237904   2.342   4.932   6.592  0.6706  0.2754  0.9497
43981SOL     OW37905   8.618   7.009   1.561 -0.2590 -0.3080  0.0308
43981SOL    HW137906   8.712   6.992   1.552  0.0728  0.2778  1.9718
43981SOL    HW237907   8.607   7.100   1.530 -0.2637 -0.4808 -0.4951
43982SOL     OW37908   7.317   2.735   6.252 -0.5798 -0.3281 -0.2939
43982SOL    HW137909   7.263   2.663   6.284 -1.0812  0.6065  1.0833
43982SOL    HW237910   7.406   2.701   6.254 -0.5798 -0.3627  2.1792
43983SOL     OW37911   0.268  11.005   2.557  0.0587  0.4650  0.0245
43983SOL    HW137912   0.180  10.991   2.521  0.0333 -1.4334  0.6787
43983SOL    HW237913   0.254  11.063   2.632 -0.6540  0.1256  0.1657
43984SOL     OW37914   4.112   3.949   5.940 -0.5380  0.2556 -0.3354
43984SOL    HW137915   4.179   3.888   5.970 -0.9758 -0.6006 -1.0569
43984SOL    HW237916   4.036   3.931   5.996  0.4432  2.8093  2.1008
43985SOL     OW37917  12.033   9.277   4.974  0.0577 -0.3447 -0.1858
43985SOL    HW137918  12.023   9.257   5.067  0.3399  0.4566  0.0234
43985SOL    HW237919  12.019   9.193   4.930  0.9704 -0.9483  0.6449
43986SOL     OW37920   5.854   3.099   0.542  0.4164 -0.1695  0.0095
43986SOL    HW137921   5.847   3.022   0.486  1.1020 -0.3992  0.2268
43986SOL    HW237922   5.836   3.066   0.630  1.7064 -0.3054  0.2474
43987SOL     OW37923   1.978   1.065   8.356 -0.5141  0.3002 -0.2434
43987SOL    HW137924   2.015   1.132   8.298  0.0060 -1.4788 -2.0705
43987SOL    HW237925   2.054   1.013   8.383 -1.0090 -0.0154  0.5620
43988SOL     OW37926   7.020   0.035  10.628 -0.1663  0.5870 -0.9162
43988SOL    HW137927   7.006  -0.060  10.619 -1.0243  0.6730 -0.5579
43988SOL    HW237928   7.039   0.064  10.539  0.7694 -0.0172 -0.9307
43989SOL     OW37929  11.500   4.370   4.065  0.5630 -0.5764  0.1099
43989SOL    HW137930  11.437   4.298   4.065 -0.5944  0.4003 -0.5029
43989SOL    HW237931  11.447   4.449   4.079  1.4632  0.4010 -1.5911
43990SOL     OW37932   0.994   7.902   5.509  0.1460 -0.0596 -0.5991
43990SOL    HW137933   0.929   7.930   5.444 -0.5840  1.7423  0.8348
43990SOL    HW237934   0.978   7.808   5.518  0.3617 -0.4118 -3.0552
43991SOL     OW37935   7.853  11.992   9.431 -0.1426  0.3009  0.2292
43991SOL    HW137936   7.864  11.992   9.336  2.2564  2.3721  0.3955
43991SOL    HW237937   7.935  11.956   9.464  0.3259  2.3822  1.5185
43992SOL     OW37938   9.728   8.685   1.932  0.2607 -0.7724  0.0101
43992SOL    HW137939   9.662   8.729   1.879 -0.3917 -2.2361 -0.4543
43992SOL    HW237940   9.691   8.599   1.950  0.4568 -0.3292  2.9247
43993SOL     OW37941   2.663   2.742   7.822 -0.0545 -0.4452  0.2333
43993SOL    HW137942   2.665   2.646   7.813  1.9136 -0.3298 -0.9842
43993SOL    HW237943   2.603   2.770   7.753 -0.7662 -0.7925  0.6962
43994SOL     OW37944   7.073   0.220   3.236  0.2189 -0.3499 -0.2399
43994SOL    HW137945   7.158   0.189   3.204  0.9468  0.5766  0.7268
43994SOL    HW237946   7.058   0.301   3.187  0.0382 -0.3455 -0.1755
43995SOL     OW37947   6.341  12.414   4.077  0.8501 -0.3642  0.5176
43995SOL    HW137948   6.401  12.466   4.024 -1.2820 -1.2349 -3.0815
43995SOL    HW237949   6.380  12.327   4.079  0.0976 -0.7813 -1.3047
43996SOL     OW37950   9.777   3.742  11.939 -0.0848  0.2105  0.0800
43996SOL    HW137951   9.693   3.778  11.966  0.0122  0.8050 -0.3908
43996SOL    HW237952   9.775   3.747  11.843 -0.2008 -1.3343 -0.0311
43997SOL     OW37953   6.348  11.996  10.783 -0.1559 -0.5276 -0.3556
43997SOL    HW137954   6.326  12.029  10.696  0.8228 -0.2806 -0.5109
43997SOL    HW237955   6.443  12.000  10.787 -0.0565 -2.3897 -0.0079
43998SOL     OW37956  12.470   0.528   6.641  0.0707  0.5401  0.2544
43998SOL    HW137957  12.565   0.534   6.641  0.0294  2.0424 -1.1160
43998SOL    HW237958  12.446   0.537   6.549 -1.3636 -0.9961  0.4358
43999SOL     OW37959   7.496  12.294   0.886  0.4623 -0.3857  0.0301
43999SOL    HW137960   7.545  12.366   0.925 -0.1193 -0.1364  0.3261
43999SOL    HW237961   7.408  12.302   0.925 -0.5337  0.6298 -2.2535
44000SOL     OW37962  11.957  11.838   6.866 -0.2637  0.0869 -0.0306
44000SOL    HW137963  11.870  11.833   6.906  0.0210  1.4524  0.8364
44000SOL    HW237964  12.000  11.755   6.890 -0.8866 -0.0588  0.5863
44001SOL     OW37965   8.489  10.860  11.853  0.5389  0.2191 -0.5173
44001SOL    HW137966   8.502  10.903  11.768  0.2253  0.4364 -0.4571
44001SOL    HW237967   8.417  10.908  11.893  0.7527  0.1829 -0.0825
44002SOL     OW37968   3.726   1.649   8.897 -0.2450  0.4577  0.3325
44002SOL    HW137969   3.815   1.616   8.884 -0.0774  0.5268  1.2286
44002SOL    HW237970   3.682   1.581   8.948 -1.2379 -0.3517 -1.5110
44003SOL     OW37971   9.058   9.671   5.285  0.0529  0.1358  0.4665
44003SOL    HW137972   8.989   9.614   5.320  0.3447 -2.1921 -2.3003
44003SOL    HW237973   9.138   9.619   5.293  1.0232  1.6801  1.1186
44004SOL     OW37974  11.441   1.812   2.917 -0.2576  0.1042 -0.6059
44004SOL    HW137975  11.406   1.769   2.995 -1.4623  0.1234 -1.1196
44004SOL    HW237976  11.371   1.871   2.888  0.9894  1.7266 -0.4754
44005SOL     OW37977   1.885   8.293   4.779  0.3496 -0.7822  0.0484
44005SOL    HW137978   1.910   8.264   4.692 -0.3479 -0.3659 -0.2969
44005SOL    HW237979   1.956   8.352   4.806  0.6477 -1.0422 -0.1681
44006SOL     OW37980   8.720   9.173   9.594 -0.0435 -0.1749 -0.0416
44006SOL    HW137981   8.638   9.216   9.616  0.2441 -0.4907  1.7923
44006SOL    HW237982   8.774   9.243   9.556 -0.5264  0.4466  0.3904
44007SOL     OW37983   1.331   1.395  10.100  0.4614 -0.0918  0.3035
44007SOL    HW137984   1.426   1.389  10.089  0.7439  1.6751  1.3531
44007SOL    HW237985   1.300   1.444  10.023  0.3228 -0.9869 -0.2267
44008SOL     OW37986   9.142   0.414   4.899 -0.4466 -0.0287  0.0190
44008SOL    HW137987   9.069   0.461   4.860 -1.3947 -0.6062  1.0128
44008SOL    HW237988   9.102   0.363   4.970  0.7453 -1.2146 -0.1096
44009SOL     OW37989   2.000   1.831   1.569  0.0623 -0.5045 -0.4845
44009SOL    HW137990   2.082   1.784   1.556  0.5541  0.5788 -1.5591
44009SOL    HW237991   2.016   1.918   1.532 -1.8098 -0.5249 -1.4822
44010SOL     OW37992   9.289   5.960   6.498 -0.0130  0.1315  0.1905
44010SOL    HW137993   9.250   5.954   6.585 -1.8896  0.1399 -0.6088
44010SOL    HW237994   9.270   6.049   6.469  0.6585  0.1488 -0.2220
44011SOL     OW37995  11.760   4.278   9.119 -0.2566 -0.2165 -0.1347
44011SOL    HW137996  11.750   4.365   9.081  0.5341  0.1578  0.5070
44011SOL    HW237997  11.782   4.293   9.210 -0.9234 -1.1049  0.1958
44012SOL     OW37998  12.062  11.720   9.270  0.6307 -0.4378  0.5990
44012SOL    HW137999  12.084  11.627   9.258 -1.2432 -0.8964  0.4028
44012SOL    HW238000  11.996  11.720   9.339  0.9108  0.8072  0.8884
44013SOL     OW38001   2.822   2.930   1.573  0.6385 -0.5349  0.0642
44013SOL    HW138002   2.834   2.994   1.503  0.1047 -2.1059 -1.5212
44013SOL    HW238003   2.880   2.960   1.643  1.5615  0.8033 -1.2235
44014SOL     OW38004   9.058   7.965  10.205 -0.0855  0.2376 -0.2330
44014SOL    HW138005   9.047   7.911  10.284 -0.4212 -2.1900 -1.8153
44014SOL    HW238006   8.976   8.015  10.199 -1.5209 -2.0150 -0.7161
44015SOL     OW38007  10.725  11.612  10.708  0.2400  0.0918  0.7147
44015SOL    HW138008  10.798  11.669  10.685  0.9060 -1.0192 -0.0101
44015SOL    HW238009  10.649  11.653  10.665  0.8995 -0.1346 -0.7291
44016SOL     OW38010   0.085   2.936  11.371  0.1971  0.0027  0.4121
44016SOL    HW138011   0.095   2.943  11.276  0.1071 -0.6172  0.3505
44016SOL    HW238012   0.049   3.021  11.398  0.5892  0.3237 -0.0527
44017SOL     OW38013   9.946   1.532   7.779 -0.3888 -0.4184  0.2797
44017SOL    HW138014   9.925   1.439   7.786  1.2491 -0.8449 -0.2111
44017SOL    HW238015   9.954   1.548   7.685  1.3665 -0.2767  0.4314
44018SOL     OW38016  12.164   5.866   6.911  0.6464  0.2400 -0.4938
44018SOL    HW138017  12.095   5.905   6.857  0.0134 -0.0286  0.1061
44018SOL    HW238018  12.147   5.900   6.999  0.1295 -1.3044  0.0295
44019SOL     OW38019   5.461   0.259   7.595  0.0905  0.2739 -0.0668
44019SOL    HW138020   5.480   0.172   7.559  2.1211  0.2592  0.9068
44019SOL    HW238021   5.464   0.316   7.518 -1.5285 -0.4860 -0.7628
44020SOL     OW38022   9.413   9.606   3.453 -0.4413 -0.3962 -0.5844
44020SOL    HW138023   9.474   9.598   3.380  0.5150  0.2799  0.1208
44020SOL    HW238024   9.328   9.619   3.412  0.1260  0.2712 -1.5892
44021SOL     OW38025   4.614   0.113  11.902  0.1527 -0.4204 -0.2184
44021SOL    HW138026   4.680   0.133  11.969 -1.0321  0.8545  0.6370
44021SOL    HW238027   4.613   0.018  11.896  0.4434 -0.5510  1.4482
44022SOL     OW38028   2.014   4.871   7.024  0.0448 -0.3672 -0.0495
44022SOL    HW138029   2.104   4.903   7.013  1.2444 -2.4483  2.5069
44022SOL    HW238030   1.968   4.944   7.064  0.6930  0.5720 -0.9551
44023SOL     OW38031   1.385   9.302  10.881  0.3979  0.8296 -0.1228
44023SOL    HW138032   1.324   9.376  10.887 -0.6548 -0.0077 -0.1103
44023SOL    HW238033   1.386   9.265  10.970 -0.3109 -0.0860 -0.4703
44024SOL     OW38034   4.820   1.967   9.808 -0.3827  0.0384 -0.1476
44024SOL    HW138035   4.774   1.977   9.725 -1.8863  2.0223  0.8537
44024SOL    HW238036   4.905   2.009   9.794 -0.5229  0.1372 -0.7297
44025SOL     OW38037  11.111   5.370   9.589  0.2257 -0.0655  0.5306
44025SOL    HW138038  11.061   5.391   9.510  0.4608 -1.0904  0.0938
44025SOL    HW238039  11.173   5.303   9.561 -0.1497 -0.9517  1.7469
44026SOL     OW38040  10.976   3.202   7.085  0.0600 -0.4893 -0.0025
44026SOL    HW138041  10.967   3.298   7.085  1.5683 -0.2223  3.1786
44026SOL    HW238042  11.055   3.185   7.034 -0.3711 -0.0832 -0.8188
44027SOL     OW38043   2.217  11.928   1.949 -0.1290  0.3503  0.0558
44027SOL    HW138044   2.214  11.909   2.043 -1.5731  0.6882  0.0908
44027SOL    HW238045   2.145  11.878   1.911 -0.0885  0.8876 -0.7561
44028SOL     OW38046  11.500  11.939  10.685 -0.1818 -0.1270  0.0330
44028SOL    HW138047  11.422  11.885  10.691 -0.1576 -0.2514 -0.6788
44028SOL    HW238048  11.573  11.877  10.687 -0.0751  0.0173  1.1180
44029SOL     OW38049   2.267   2.363   0.818 -0.1863 -0.1625 -0.3189
44029SOL    HW138050   2.315   2.375   0.736  0.5357  0.9412  0.2494
44029SOL    HW238051   2.313   2.293   0.863  1.4666  1.4458  0.5990
44030SOL     OW38052   2.252   8.266   2.767 -0.0130  0.2104 -0.4069
44030SOL    HW138053   2.181   8.330   2.765  0.7188  1.0289 -1.1562
44030SOL    HW238054   2.328   8.315   2.797  0.2240 -0.6967  0.5603
44031SOL     OW38055   6.175   1.741   8.793  0.2383 -0.6591  0.2028
44031SOL    HW138056   6.115   1.815   8.805 -0.8258 -1.5780  0.6427
44031SOL    HW238057   6.179   1.729   8.698  0.0253 -0.3497  0.1520
44032SOL     OW38058   2.367   9.512   4.882 -0.1258 -0.2364  0.2702
44032SOL    HW138059   2.445   9.567   4.873 -0.2619  0.7726  3.7030
44032SOL    HW238060   2.318   9.552   4.954 -1.8768 -3.0351  0.7983
44033SOL     OW38061   1.506   9.236   2.831  0.3711  0.0730  0.3864
44033SOL    HW138062   1.568   9.304   2.856 -1.1284  1.3071  0.9201
44033SOL    HW238063   1.452   9.223   2.909  0.0555 -1.1035 -0.0021
44034SOL     OW38064  12.003   0.822   1.025 -0.5263  0.3091  0.2225
44034SOL    HW138065  11.967   0.838   1.112 -0.4621 -2.0652  0.7534
44034SOL    HW238066  11.927   0.795   0.973 -0.2685 -0.1599  0.0811
44035SOL     OW38067   5.661   8.452   4.886 -0.0523 -0.0561 -0.2979
44035SOL    HW138068   5.604   8.392   4.839 -1.3625  0.7893  0.1576
44035SOL    HW238069   5.673   8.526   4.825  0.4227 -0.1549 -0.3262
44036SOL     OW38070  11.591  10.297   7.306  0.4071  0.5748 -0.0133
44036SOL    HW138071  11.630  10.317   7.221  1.0601  0.4971  0.2619
44036SOL    HW238072  11.497  10.286   7.288  0.7480 -1.0782 -1.0134
44037SOL     OW38073   0.976   7.183   8.563 -0.0126  0.2924 -0.6019
44037SOL    HW138074   0.975   7.092   8.533  0.1940 -0.1062  0.5475
44037SOL    HW238075   0.887   7.214   8.550 -0.7704 -0.8992  1.3306
44038SOL     OW38076  11.239  10.711   0.614  0.3828  0.0378  0.0679
44038SOL    HW138077  11.165  10.762   0.645  1.8211  2.3642 -0.1472
44038SOL    HW238078  11.283  10.681   0.693 -0.0862 -0.3252  0.1962
44039SOL     OW38079  12.297   7.716   9.143 -0.0605  0.2850  0.5054
44039SOL    HW138080  12.202   7.724   9.136  0.0068  0.6847 -0.0437
44039SOL    HW238081  12.312   7.679   9.230 -0.7279 -0.0288  0.4953
44040SOL     OW38082   2.925   6.767   0.470 -0.1711  0.3393  0.2607
44040SOL    HW138083   2.840   6.726   0.453 -1.4896  3.3721 -1.3643
44040SOL    HW238084   2.913   6.859   0.444  2.9312  1.4713  2.2314
44041SOL     OW38085  11.003   9.843   5.003  0.2043  0.2081 -0.0374
44041SOL    HW138086  11.038   9.924   5.039  0.6723 -0.3895  0.8853
44041SOL    HW238087  11.040   9.774   5.058 -3.5632 -0.4082  2.0781
44042SOL     OW38088   0.163   8.304   6.042  0.2566 -0.0182 -0.3242
44042SOL    HW138089   0.107   8.256   6.102 -0.3642  1.5442  0.3870
44042SOL    HW238090   0.232   8.340   6.098 -0.9243  2.3526 -0.3208
44043SOL     OW38091   0.901   3.560  10.021 -0.0204  0.3351 -0.3575
44043SOL    HW138092   0.883   3.466  10.031  1.6955  0.0189  0.0368
44043SOL    HW238093   0.992   3.570  10.047 -0.2110  2.1548 -0.2607
44044SOL     OW38094   1.322   4.477   8.651  0.2799 -0.6057  0.4001
44044SOL    HW138095   1.299   4.422   8.727 -0.5438 -1.0251 -0.1384
44044SOL    HW238096   1.415   4.496   8.663  0.3197 -1.2153  1.1740
44045SOL     OW38097   5.248   8.394  10.378  0.1976  0.3245 -0.5107
44045SOL    HW138098   5.170   8.373  10.326 -1.2853  0.2861  1.6175
44045SOL    HW238099   5.220   8.386  10.469  2.0204  2.7270  0.3731
44046SOL     OW38100   9.920   3.269   7.318  0.0171  0.0878 -0.2131
44046SOL    HW138101   9.871   3.194   7.353  1.1002 -0.8344 -0.6091
44046SOL    HW238102   9.983   3.290   7.387 -0.5357  0.9046  0.0568
44047SOL     OW38103   4.998   0.679   3.157 -0.5538 -0.3094 -0.7023
44047SOL    HW138104   4.926   0.743   3.149 -0.2722  0.2943  1.1135
44047SOL    HW238105   4.963   0.611   3.214  0.8337  0.9127  1.7818
44048SOL     OW38106   5.192   0.970   6.817 -0.3588 -0.0836  0.4603
44048SOL    HW138107   5.150   1.056   6.809 -0.2408 -0.0074  0.6294
44048SOL    HW238108   5.257   0.982   6.887  1.1878  0.2917 -0.9611
44049SOL     OW38109   1.255   2.255   1.736 -0.0511  0.0848  0.0795
44049SOL    HW138110   1.162   2.233   1.722  0.1295 -0.1939 -0.7250
44049SOL    HW238111   1.302   2.175   1.715  0.4813  0.6770 -1.0359
44050SOL     OW38112   5.660   4.840   8.430  0.2399  0.1101  0.1081
44050SOL    HW138113   5.565   4.835   8.418  0.4138 -2.3630 -1.0896
44050SOL    HW238114   5.676   4.792   8.511  0.4864  0.2419  0.1363
44051SOL     OW38115   8.336   0.697   8.957 -0.0689 -0.1914 -0.2754
44051SOL    HW138116   8.310   0.765   8.894  1.3486 -0.2742 -0.9970
44051SOL    HW238117   8.334   0.616   8.907 -0.6703 -0.5320  0.2876
44052SOL     OW38118   3.868   1.083  10.047  0.0466  0.3702  0.1301
44052SOL    HW138119   3.842   1.033   9.970 -0.2663  0.2847  0.2910
44052SOL    HW238120   3.961   1.103  10.032  0.3802 -0.8882  0.3928
44053SOL     OW38121   7.264   6.720   3.895  0.3129  0.2013 -0.0917
44053SOL    HW138122   7.213   6.798   3.917 -1.0151 -0.1547 -1.6699
44053SOL    HW238123   7.223   6.650   3.945 -0.4645  0.0063 -0.9738
44054SOL     OW38124   1.231   6.889  12.357  0.3501  0.0863 -0.2218
44054SOL    HW138125   1.255   6.981  12.342 -1.4935  0.5400 -0.5827
44054SOL    HW238126   1.266   6.843  12.281  2.1210  0.3003  0.4195
44055SOL     OW38127   1.776   8.727   9.188 -1.3078 -0.3149  0.3951
44055SOL    HW138128   1.710   8.780   9.142  0.8380 -0.3479 -3.1798
44055SOL    HW238129   1.853   8.784   9.191  0.0714 -2.0132 -0.5703
44056SOL     OW38130   1.784   7.034   1.088 -0.1561  0.3483  0.2009
44056SOL    HW138131   1.822   6.976   1.023 -0.9480 -1.3109  1.1752
44056SOL    HW238132   1.750   7.108   1.038 -1.5114 -1.2793 -1.3623
44057SOL     OW38133  11.336  11.850   8.167 -0.3621 -0.4178  0.0912
44057SOL    HW138134  11.312  11.942   8.159 -1.3806 -0.6926 -0.1969
44057SOL    HW238135  11.425  11.845   8.132 -1.0667  0.1114 -1.8904
44058SOL     OW38136   5.046   9.997   3.355  0.4197  0.4252 -0.1175
44058SOL    HW138137   5.116   9.937   3.331 -0.4341 -0.0525 -1.5594
44058SOL    HW238138   4.965   9.947   3.340 -0.2670  1.4759 -0.0453
44059SOL     OW38139  11.158   0.972   7.319 -0.2457 -0.3642 -0.1601
44059SOL    HW138140  11.156   1.065   7.340  1.3494 -0.2696 -0.3236
44059SOL    HW238141  11.134   0.968   7.226 -1.5709 -0.2650  0.1487
44060SOL     OW38142   8.933   9.074   8.732  0.1514 -0.2815  0.6894
44060SOL    HW138143   8.969   9.138   8.794  0.1533  0.5568 -0.1396
44060SOL    HW238144   8.947   9.115   8.646  0.0696 -1.3696  0.1415
44061SOL     OW38145   4.615   5.173   1.633 -0.2420  0.0684  0.2561
44061SOL    HW138146   4.529   5.132   1.636 -0.6309  0.7303 -1.1399
44061SOL    HW238147   4.630   5.191   1.540  1.9748 -1.2285  0.2746
44062SOL     OW38148   6.998   3.933  11.437 -0.5799 -0.4943  0.3391
44062SOL    HW138149   7.073   3.894  11.482  0.1877 -0.6280 -0.9920
44062SOL    HW238150   6.940   3.859  11.418 -1.2524 -0.3456  1.6719
44063SOL     OW38151   0.848  12.056   4.105 -0.2611 -0.2048 -0.1786
44063SOL    HW138152   0.808  11.983   4.154 -3.1819  1.1689 -0.3416
44063SOL    HW238153   0.869  12.018   4.020 -0.1261 -1.2679  0.2996
44064SOL     OW38154   3.015  10.309  11.393  0.1810  0.0662  0.3668
44064SOL    HW138155   3.019  10.278  11.303  0.7803  0.4014  0.2703
44064SOL    HW238156   3.107  10.314  11.421  0.0084  0.1177  0.9405
44065SOL     OW38157   2.117   5.077   1.938  0.1506  0.3307 -0.3595
44065SOL    HW138158   2.059   5.143   1.975  0.7255  0.0859  1.0482
44065SOL    HW238159   2.087   5.066   1.848 -3.0095 -0.8780  0.6880
44066SOL     OW38160   8.661   8.260   8.822 -0.0270  0.0884  0.0810
44066SOL    HW138161   8.677   8.352   8.845  0.6240  0.1418 -0.5722
44066SOL    HW238162   8.614   8.225   8.898 -0.5799  1.0462  0.1999
44067SOL     OW38163  10.135   8.262   0.070  0.1784 -0.2121 -0.6562
44067SOL    HW138164  10.059   8.271   0.128  0.8186  1.6634 -0.0531
44067SOL    HW238165  10.195   8.332   0.097  1.9175 -1.3383 -1.4525
44068SOL     OW38166   2.593   5.735   4.721 -1.0683 -0.2873 -0.4292
44068SOL    HW138167   2.652   5.794   4.674 -1.0714  0.3477  0.3285
44068SOL    HW238168   2.509   5.743   4.675 -0.3809 -1.9063 -2.0912
44069SOL     OW38169   3.178   1.882   2.530 -0.6145  0.1826  0.1595
44069SOL    HW138170   3.222   1.963   2.555 -1.3920  1.4525 -2.2704
44069SOL    HW238171   3.102   1.911   2.480 -0.7390 -2.0400 -1.0553
44070SOL     OW38172   6.432   3.778   9.977  0.2858 -0.0071  0.7084
44070SOL    HW138173   6.362   3.737  10.029 -0.3767  0.8161  0.4908
44070SOL    HW238174   6.413   3.872   9.981  0.3005  0.0913 -0.8945
44071SOL     OW38175   5.224   5.119  11.194 -0.5685 -0.5945  0.3946
44071SOL    HW138176   5.276   5.069  11.256  1.3500  0.3522 -0.3605
44071SOL    HW238177   5.245   5.210  11.213 -1.1947 -0.2229 -0.5932
44072SOL     OW38178   1.229   9.246   7.371  0.7827 -0.2541 -0.1117
44072SOL    HW138179   1.140   9.214   7.358 -1.0947  3.7342  1.4094
44072SOL    HW238180   1.248   9.228   7.464  0.5334  1.0364  0.2059
44073SOL     OW38181   8.095   3.137   4.623  0.0992  0.1133  0.3490
44073SOL    HW138182   8.141   3.207   4.576  0.7483 -0.9005 -0.5754
44073SOL    HW238183   8.012   3.128   4.577 -1.1113  1.9773  2.0484
44074SOL     OW38184   9.738   6.764   7.612  0.6286  0.5194 -0.1671
44074SOL    HW138185   9.674   6.835   7.612  0.2507  0.1848  0.0929
44074SOL    HW238186   9.777   6.766   7.700  0.9726  0.7194 -0.3228
44075SOL     OW38187  11.436   8.888   3.982 -0.3049 -0.5235 -0.0077
44075SOL    HW138188  11.376   8.940   3.929 -0.4986 -0.7814 -0.0376
44075SOL    HW238189  11.481   8.953   4.036 -1.5057 -0.4398  0.9284
44076SOL     OW38190   8.514  11.925   0.726 -0.0143  0.2081 -0.3099
44076SOL    HW138191   8.573  11.878   0.785  0.9400  0.2011 -1.2481
44076SOL    HW238192   8.478  11.996   0.780 -0.0091 -0.4393  0.5806
44077SOL     OW38193   0.848   8.287   3.574 -0.0632  0.3695  0.1305
44077SOL    HW138194   0.842   8.365   3.629  0.4660  0.7071 -0.2802
44077SOL    HW238195   0.901   8.225   3.625 -1.1092 -0.0224  0.7836
44078SOL     OW38196  10.702  12.076   5.039  0.1215  0.0766 -0.0690
44078SOL    HW138197  10.755  12.032   5.105 -0.5536  0.9376  1.0810
44078SOL    HW238198  10.721  12.030   4.957 -0.3707 -2.1805  1.0225
44079SOL     OW38199   6.715   9.438   4.613 -0.4208  0.1783 -0.2729
44079SOL    HW138200   6.661   9.391   4.677 -0.9805 -0.5703 -1.2686
44079SOL    HW238201   6.778   9.373   4.582  0.8069  0.9285  0.5586
44080SOL     OW38202  11.988   0.830   2.230  0.3587  0.4912  0.3601
44080SOL    HW138203  11.928   0.895   2.266 -0.1649  0.7268 -0.9069
44080SOL    HW238204  11.938   0.785   2.163  1.7457  1.1234 -1.1745
44081SOL     OW38205   0.371  11.132   7.285 -0.5762  0.3210  0.4637
44081SOL    HW138206   0.367  11.075   7.209 -1.6191 -0.0697  0.7907
44081SOL    HW238207   0.316  11.089   7.350  0.8927  0.2567  1.7159
44082SOL     OW38208   8.002   4.616  10.036 -0.2715  0.3986  0.5960
44082SOL    HW138209   8.062   4.601  10.109 -1.8877  1.0418  2.1177
44082SOL    HW238210   8.030   4.699   9.998 -1.4971  1.8435  2.7068
44083SOL     OW38211   3.583   5.391   1.989 -0.0241  0.5820  0.0981
44083SOL    HW138212   3.602   5.462   1.927 -0.8740  1.0494  0.3661
44083SOL    HW238213   3.649   5.402   2.058  1.0414 -0.0438 -0.7864
44084SOL     OW38214   1.676   8.379  12.414 -0.7011  0.4385 -0.2055
44084SOL    HW138215   1.650   8.324  12.341  0.6094 -1.1092  0.4228
44084SOL    HW238216   1.700   8.463  12.374  2.5507 -1.1463 -2.0195
44085SOL     OW38217   5.624   0.472  12.100 -0.0861 -0.1113  0.1979
44085SOL    HW138218   5.661   0.559  12.087  0.7654 -0.6238 -0.9279
44085SOL    HW238219   5.551   0.467  12.038 -1.6823  0.6215  1.8938
44086SOL     OW38220   1.918   2.175   2.284  0.3962  0.1844 -0.0699
44086SOL    HW138221   1.970   2.095   2.275 -1.0753 -0.7380 -0.8037
44086SOL    HW238222   1.954   2.233   2.216  0.5042 -0.4184 -0.5453
44087SOL     OW38223   5.077   9.469   4.580 -0.0147 -0.6513  0.1758
44087SOL    HW138224   5.154   9.519   4.606 -0.1900  0.3824 -1.2166
44087SOL    HW238225   5.109   9.379   4.573  0.7291 -0.4641  0.9793
44088SOL     OW38226  11.454   9.143  11.785  0.5406 -0.1190  0.1262
44088SOL    HW138227  11.516   9.167  11.716  0.9054 -0.6655  0.2588
44088SOL    HW238228  11.384   9.209  11.778  0.1957 -0.5816 -1.2583
44089SOL     OW38229  10.638  10.774   8.373  0.3329  0.0707  0.6270
44089SOL    HW138230  10.665  10.746   8.461 -2.1847 -1.1440  1.1064
44089SOL    HW238231  10.601  10.696   8.333 -0.5207  1.1139 -0.7042
44090SOL     OW38232   6.777   1.652   2.420  0.2320  0.1152  0.0191
44090SOL    HW138233   6.722   1.662   2.343  0.2351 -0.9478 -0.1357
44090SOL    HW238234   6.777   1.739   2.461  0.5632  0.8036 -1.3772
44091SOL     OW38235   7.029   3.736   6.487  0.1499 -0.5528  0.1626
44091SOL    HW138236   7.046   3.643   6.477 -0.7601 -0.5235 -2.2980
44091SOL    HW238237   6.934   3.742   6.502  0.2518 -0.0270  0.6552
44092SOL     OW38238  11.537   6.915   1.676  0.3243 -0.2772 -0.4479
44092SOL    HW138239  11.626   6.900   1.707 -0.2228  1.6157  2.4639
44092SOL    HW238240  11.544   6.993   1.621  0.1562  1.9148  2.4227
44093SOL     OW38241   4.214   7.341   2.702  0.0730  0.0415 -0.0774
44093SOL    HW138242   4.156   7.352   2.777  1.3540  2.3348  0.7000
44093SOL    HW238243   4.194   7.415   2.645 -0.4241 -1.3121 -1.7345
44094SOL     OW38244   3.743   1.309   8.236 -0.2226  0.0840  0.5128
44094SOL    HW138245   3.690   1.354   8.302  1.4217  2.2023  0.4849
44094SOL    HW238246   3.795   1.378   8.195 -0.3828 -1.3099 -2.2933
44095SOL     OW38247  10.602   5.253   8.292 -0.0384  0.7790 -0.1996
44095SOL    HW138248  10.602   5.202   8.210 -0.1685  2.8749 -1.5736
44095SOL    HW238249  10.510   5.258   8.317  0.0725 -0.5351  0.5562
44096SOL     OW38250   4.735  10.572   3.158 -0.8772 -0.0217  0.0031
44096SOL    HW138251   4.646  10.554   3.189 -0.2658 -2.0764  0.6896
44096SOL    HW238252   4.753  10.504   3.094  0.3381  0.1589  0.1279
44097SOL     OW38253  11.018  11.584   6.690  0.2226 -0.0390 -0.0330
44097SOL    HW138254  11.022  11.648   6.619  0.5088  0.2664  0.2553
44097SOL    HW238255  11.031  11.635   6.769  0.1991 -0.4209  0.2205
44098SOL     OW38256   8.169  11.007   7.146 -0.0775  0.0484 -0.0486
44098SOL    HW138257   8.206  10.919   7.150 -0.6077 -0.1438  2.6116
44098SOL    HW238258   8.245  11.065   7.138  0.4646 -0.5555  0.5756
44099SOL     OW38259   1.407   7.264   3.609 -0.6622 -0.7123  0.2249
44099SOL    HW138260   1.357   7.315   3.545  1.4375  0.4094 -0.6187
44099SOL    HW238261   1.451   7.196   3.557  0.3543 -0.3548  0.5976
44100SOL     OW38262   0.714   8.348   5.035  0.1298  0.5088  0.0367
44100SOL    HW138263   0.655   8.418   5.006 -0.6038 -0.6057 -1.3079
44100SOL    HW238264   0.669   8.308   5.109 -0.9275 -0.4012 -1.0459
44101SOL     OW38265   6.565   5.216   8.874 -0.0739  0.4517  0.3261
44101SOL    HW138266   6.508   5.274   8.823 -0.8989 -0.1993  0.4923
44101SOL    HW238267   6.514   5.136   8.886  0.6107  0.1107  1.0666
44102SOL     OW38268   0.099  12.379  10.303  0.0757  0.1419 -0.0427
44102SOL    HW138269   0.054  12.304  10.343  1.6417  0.0382  1.6113
44102SOL    HW238270   0.031  12.421  10.250 -1.3944 -1.2253  0.6589
44103SOL     OW38271   0.566  11.292   3.675 -0.0316 -0.2457  0.1594
44103SOL    HW138272   0.657  11.314   3.694  0.2866 -1.7374  0.5260
44103SOL    HW238273   0.571  11.206   3.631 -1.1020  0.7635 -2.1104
44104SOL     OW38274   2.334   4.767  11.342 -0.2271 -0.1681 -0.4646
44104SOL    HW138275   2.257   4.738  11.294 -0.8902 -0.1750  0.5864
44104SOL    HW238276   2.394   4.797  11.273 -0.9876 -0.5449 -1.3225
44105SOL     OW38277   3.182   7.724   0.919 -0.0667  0.2340  0.3456
44105SOL    HW138278   3.098   7.741   0.961 -0.0919 -0.1763  0.4594
44105SOL    HW238279   3.162   7.662   0.849  0.2581 -0.4614  0.8544
44106SOL     OW38280   4.798   7.180   1.885 -0.2349  0.4971 -0.1748
44106SOL    HW138281   4.744   7.259   1.888  0.1174  0.8490 -1.9621
44106SOL    HW238282   4.783   7.143   1.798 -0.4338 -1.4593  0.6315
44107SOL     OW38283   2.164   2.771   4.560  0.2018  0.4519  0.2505
44107SOL    HW138284   2.111   2.839   4.520  0.4519  0.4668 -0.0623
44107SOL    HW238285   2.253   2.806   4.559  0.3110  0.1791  0.2115
44108SOL     OW38286   5.473   9.187   4.119  0.0004  1.1292 -0.5185
44108SOL    HW138287   5.417   9.122   4.076  1.1113 -0.9778  1.0138
44108SOL    HW238288   5.520   9.230   4.048  0.9720 -1.4556 -1.5369
44109SOL     OW38289   4.200   5.953   6.986  0.5591 -0.3037  0.3354
44109SOL    HW138290   4.182   5.969   6.893  0.1881  2.5350  0.7996
44109SOL    HW238291   4.260   5.879   6.986  0.0120 -0.8546 -2.1038
44110SOL     OW38292   9.869   8.451   3.182  0.4272 -0.2618 -0.1140
44110SOL    HW138293   9.953   8.488   3.152  0.9070 -1.4757 -0.3191
44110SOL    HW238294   9.822   8.526   3.218  0.9612  0.7454 -1.4200
44111SOL     OW38295   9.785   7.580   8.936 -0.2898  0.1253  0.2323
44111SOL    HW138296   9.806   7.671   8.913 -2.7067  0.4014 -1.3082
44111SOL    HW238297   9.731   7.549   8.863  1.3732 -2.9785  0.1466
44112SOL     OW38298   8.754   9.446   0.130  0.2645  0.0790 -0.1295
44112SOL    HW138299   8.719   9.363   0.097  1.2844 -0.2716 -0.3739
44112SOL    HW238300   8.685   9.480   0.187 -0.8315 -0.1412 -1.2830
44113SOL     OW38301   7.997  12.083  10.958 -0.2349 -0.6501 -0.3327
44113SOL    HW138302   7.956  12.005  10.921 -2.1782  0.3844 -0.5029
44113SOL    HW238303   8.038  12.127  10.884 -1.6794 -0.0358 -0.8002
44114SOL     OW38304   5.765  11.503   7.683 -0.5149  0.6745 -0.2376
44114SOL    HW138305   5.690  11.527   7.630 -0.3147  1.8112 -0.0441
44114SOL    HW238306   5.839  11.547   7.641  0.2738 -1.3981 -1.1275
44115SOL     OW38307   1.693   7.442  10.977 -0.5513  0.5977 -0.0254
44115SOL    HW138308   1.604   7.408  10.969 -1.0237  2.0944 -1.6425
44115SOL    HW238309   1.710   7.484  10.893  1.8425  0.0285  0.1079
44116SOL     OW38310   8.659   2.840   9.486  0.3678  0.2556  0.2203
44116SOL    HW138311   8.748   2.871   9.473 -0.2960  2.1972 -0.0952
44116SOL    HW238312   8.628   2.816   9.399  0.4270 -0.0032  0.2682
44117SOL     OW38313   6.331   7.699  11.931  0.2630 -0.6928  0.2777
44117SOL    HW138314   6.238   7.678  11.939  0.0902 -0.3202 -0.6458
44117SOL    HW238315   6.334   7.779  11.879  1.1811 -2.4274 -2.6155
44118SOL     OW38316  10.803   4.459  11.797 -0.4597 -0.1953 -0.3603
44118SOL    HW138317  10.895   4.476  11.818 -0.5718 -1.0540  0.9959
44118SOL    HW238318  10.758   4.540  11.820  0.0035  0.3840 -1.4515
44119SOL     OW38319   9.606  12.472   0.155  0.4321 -0.1308 -0.1872
44119SOL    HW138320   9.614  12.453   0.061  0.1611  1.6061 -0.5881
44119SOL    HW238321   9.626  12.565   0.162 -1.5655  0.2386  1.2037
44120SOL     OW38322   5.825  10.483   7.470  0.2217  0.0628 -0.0449
44120SOL    HW138323   5.888  10.554   7.457  0.6576 -0.0758  1.1879
44120SOL    HW238324   5.741  10.520   7.443  0.3913  1.1699  0.8646
44121SOL     OW38325   6.878   5.937   3.450  0.0211  0.5466  0.5843
44121SOL    HW138326   6.813   6.006   3.463  1.4516  2.2226 -0.5736
44121SOL    HW238327   6.962   5.981   3.463  0.9737 -1.4263  1.5467
44122SOL     OW38328   2.786   7.619  10.109 -0.1469  0.3564  0.6153
44122SOL    HW138329   2.741   7.605  10.192 -0.3842 -2.0385  0.1768
44122SOL    HW238330   2.846   7.545  10.102  0.1539  0.7157 -1.1568
44123SOL     OW38331   3.540   3.348   0.604 -0.9333 -0.7089 -0.3598
44123SOL    HW138332   3.561   3.440   0.616  0.7232 -0.4765 -3.9514
44123SOL    HW238333   3.587   3.303   0.675  0.3781  0.9826 -0.1117
44124SOL     OW38334  10.574   7.556   5.011 -0.0558 -1.4666 -0.3129
44124SOL    HW138335  10.560   7.645   4.978 -0.5853 -1.7047 -0.7463
44124SOL    HW238336  10.651   7.563   5.068 -0.3120 -0.6664 -0.0624
44125SOL     OW38337   9.934  11.551   3.222 -0.3872  0.2189 -0.3682
44125SOL    HW138338   9.944  11.501   3.140  0.1837 -1.8391  0.8711
44125SOL    HW238339   9.844  11.583   3.219 -1.1294 -1.7674 -0.8191
44126SOL     OW38340   2.251  10.967   5.296  0.1279 -0.7955 -0.2865
44126SOL    HW138341   2.323  11.016   5.336 -0.0881 -1.6354  1.2051
44126SOL    HW238342   2.290  10.925   5.220  0.5805  0.7724 -0.9637
44127SOL     OW38343   1.984   0.646   5.356  0.1173 -0.0002 -0.3867
44127SOL    HW138344   2.054   0.703   5.390 -0.3414 -0.2782  1.0627
44127SOL    HW238345   1.942   0.610   5.433 -0.8817 -0.7830 -1.2638
44128SOL     OW38346  10.780   3.080   5.974 -0.0383 -0.7986  0.4575
44128SOL    HW138347  10.805   3.142   6.042  0.4972 -0.4296 -0.0584
44128SOL    HW238348  10.693   3.049   5.999 -1.1327  1.5214 -0.1826
44129SOL     OW38349   8.220   0.189   5.770 -0.2310  0.2944  0.0216
44129SOL    HW138350   8.165   0.128   5.819 -0.4190  0.0854 -0.4489
44129SOL    HW238351   8.203   0.274   5.811 -1.0163  0.2584 -0.2101
44130SOL     OW38352   4.182  11.941   0.164 -0.3209 -0.1598 -0.0386
44130SOL    HW138353   4.274  11.931   0.141 -0.2928 -1.6015  0.5843
44130SOL    HW238354   4.141  11.974   0.084  0.9317  1.9186  0.0961
44131SOL     OW38355   9.423   4.188   5.967  0.5408  0.1149 -0.4117
44131SOL    HW138356   9.370   4.254   6.011  1.6058  0.8207 -0.1589
44131SOL    HW238357   9.494   4.237   5.925  1.3984 -0.8670 -0.1546
44132SOL     OW38358   7.200   7.015   4.362 -0.7151 -0.2342  0.0609
44132SOL    HW138359   7.279   7.026   4.309 -1.1464  0.1058 -0.5237
44132SOL    HW238360   7.220   6.941   4.419  0.2559  0.2390  0.3576
44133SOL     OW38361   7.411  11.283  11.816 -0.1404  0.3881  1.0587
44133SOL    HW138362   7.402  11.192  11.791  0.0503  0.7592 -0.4418
44133SOL    HW238363   7.345  11.329  11.765  1.6330  1.4407 -0.4517
44134SOL     OW38364   9.633   5.731   6.298 -0.3060  0.6266  0.0117
44134SOL    HW138365   9.655   5.707   6.208  0.1958 -2.6958  0.8973
44134SOL    HW238366   9.594   5.818   6.291  0.2744  0.7260 -3.3201
44135SOL     OW38367   2.450   7.220   3.704  0.0686  1.0066  0.0474
44135SOL    HW138368   2.491   7.296   3.662  0.1493  0.7204 -0.3971
44135SOL    HW238369   2.394   7.183   3.636  1.1076 -0.1663 -0.2184
44136SOL     OW38370  12.464   7.493   2.262  0.3591 -0.0540  0.0677
44136SOL    HW138371  12.380   7.483   2.305  0.7189 -1.6700  0.4525
44136SOL    HW238372  12.524   7.520   2.331  0.3598  0.1331 -0.0052
44137SOL     OW38373   1.904   6.861   9.592  0.1549  0.3685 -0.0735
44137SOL    HW138374   1.851   6.806   9.650 -0.7491 -0.4502 -1.5878
44137SOL    HW238375   1.993   6.825   9.599  0.0313  0.2058  0.6968
44138SOL     OW38376   1.124   3.348   0.338 -0.0973 -0.2365  0.5186
44138SOL    HW138377   1.211   3.343   0.378 -0.1587 -1.2811  0.5479
44138SOL    HW238378   1.070   3.290   0.391 -0.1587 -1.7174 -1.1085
44139SOL     OW38379   1.467   8.031  11.323  0.0555 -0.2447 -0.0765
44139SOL    HW138380   1.387   7.987  11.350 -1.5154  2.2608 -0.2671
44139SOL    HW238381   1.475   8.104  11.385  1.7770  0.0127 -0.5530
44140SOL     OW38382   3.400   2.681   3.835 -0.6421  0.7078  0.0144
44140SOL    HW138383   3.421   2.772   3.813 -0.4804  0.9395  1.0710
44140SOL    HW238384   3.372   2.685   3.926 -2.1042 -0.0930 -0.3755
44141SOL     OW38385   6.249   9.716  11.327  0.3606 -0.0436 -0.6309
44141SOL    HW138386   6.273   9.660  11.252 -2.0751 -1.1208 -0.6975
44141SOL    HW238387   6.195   9.784  11.289 -4.2453 -2.7375  0.3724
44142SOL     OW38388   2.835   2.240   4.702 -0.6262  0.1216 -0.3151
44142SOL    HW138389   2.912   2.186   4.685  0.7471  2.1984 -1.0789
44142SOL    HW238390   2.794   2.200   4.778  0.3394 -1.9220 -0.7944
44143SOL     OW38391   0.368   8.142  11.679 -0.4254  0.0720  0.1242
44143SOL    HW138392   0.373   8.195  11.759 -0.6208  1.2112 -0.5949
44143SOL    HW238393   0.455   8.151  11.640 -0.5851  0.1674 -0.2033
44144SOL     OW38394   6.788   6.632   4.342 -0.1672  0.3043 -0.1140
44144SOL    HW138395   6.846   6.687   4.290 -1.1212  1.0998 -0.3730
44144SOL    HW238396   6.841   6.603   4.416  0.4934  1.1661 -0.2438
44145SOL     OW38397   9.944   3.213   5.995  0.3004 -0.2971  0.4067
44145SOL    HW138398   9.903   3.267   6.063  1.1398  0.9192 -0.0149
44145SOL    HW238399   9.899   3.129   6.001 -2.1178  0.9047  0.0760
44146SOL     OW38400   3.163   4.776   2.988 -0.1049 -0.4686 -0.2263
44146SOL    HW138401   3.101   4.708   3.014  0.7498 -1.9812 -1.8990
44146SOL    HW238402   3.247   4.747   3.024  0.3588 -0.5927 -1.3600
44147SOL     OW38403   0.657   5.408  12.433 -0.1118 -0.3113 -0.1967
44147SOL    HW138404   0.717   5.482  12.428  1.6206 -1.6763 -0.3543
44147SOL    HW238405   0.630   5.405  12.524  0.7066 -0.1670  0.0567
44148SOL     OW38406   3.825   5.765  11.396 -0.3879  0.3317  0.0212
44148SOL    HW138407   3.892   5.731  11.455  0.1517  0.0904 -0.7127
44148SOL    HW238408   3.749   5.780  11.452  0.2722  0.5930  0.8655
44149SOL     OW38409  10.198  10.628   5.070  0.1559 -0.0027  0.2626
44149SOL    HW138410  10.240  10.555   5.025  2.0210  1.1009  0.1159
44149SOL    HW238411  10.168  10.685   4.999 -0.1799 -0.0135  0.3931
44150SOL     OW38412   0.490   1.186   9.888  0.5221  0.1919 -0.1902
44150SOL    HW138413   0.406   1.146   9.865  1.0557 -1.7387  1.0081
44150SOL    HW238414   0.550   1.159   9.819  0.5069  0.3283 -0.2571
44151SOL     OW38415  10.318   0.556   0.083  0.3257  0.4554 -0.3368
44151SOL    HW138416  10.390   0.619   0.083  0.3359  0.6169  2.9314
44151SOL    HW238417  10.254   0.593   0.023  0.6373  3.2593  0.9032
44152SOL     OW38418   4.409  10.574   7.069  0.1483 -0.8885 -0.0134
44152SOL    HW138419   4.421  10.642   7.004 -1.0380 -2.9042 -2.5287
44152SOL    HW238420   4.457  10.498   7.035 -0.7632 -2.1095  1.2675
44153SOL     OW38421   1.836   0.154   3.476 -0.0885 -0.2787 -0.2828
44153SOL    HW138422   1.813   0.129   3.565 -0.5258 -1.1681 -0.6287
44153SOL    HW238423   1.759   0.202   3.444 -0.3904 -0.9303 -0.5476
44154SOL     OW38424   0.711   6.734   3.112  0.1861 -0.2790 -0.3878
44154SOL    HW138425   0.726   6.670   3.181 -1.9566  0.9334  1.3071
44154SOL    HW238426   0.795   6.780   3.103  0.5691 -0.5903  1.3002
44155SOL     OW38427   3.137   4.694   6.685 -0.2073 -0.2941 -0.3866
44155SOL    HW138428   3.197   4.627   6.718 -0.5453 -0.5589 -0.2991
44155SOL    HW238429   3.051   4.651   6.685 -0.6883  0.6019  1.0777
44156SOL     OW38430   4.755  10.322   8.224 -0.9601 -0.4651 -0.0513
44156SOL    HW138431   4.771  10.412   8.197 -0.4527 -0.1805  1.1080
44156SOL    HW238432   4.769  10.269   8.145  0.6448  0.2939 -0.2995
44157SOL     OW38433   1.447   8.552   3.320  0.6302 -0.4489 -0.4116
44157SOL    HW138434   1.404   8.502   3.251 -0.4237 -0.3041  0.1309
44157SOL    HW238435   1.528   8.504   3.338  0.4220 -1.0390 -1.0462
44158SOL     OW38436  12.067  10.018   1.028  0.4810  0.2818  0.2597
44158SOL    HW138437  12.095  10.109   1.019 -0.2322  0.5840  0.9802
44158SOL    HW238438  12.085   9.979   0.943  1.1570  0.9908  0.0628
44159SOL     OW38439   0.449   7.364   8.602 -0.6246 -0.9905  0.5335
44159SOL    HW138440   0.454   7.301   8.674 -3.2750 -1.5203  0.3712
44159SOL    HW238441   0.388   7.324   8.539 -1.5622  1.2372 -0.0800
44160SOL     OW38442   4.809   9.664   3.801 -0.3223 -0.2190  0.6474
44160SOL    HW138443   4.780   9.716   3.726 -0.9635 -0.1187  0.9644
44160SOL    HW238444   4.793   9.573   3.775  2.1884 -0.4091 -0.5231
44161SOL     OW38445   7.556   7.660   6.481 -0.1273 -0.7072 -0.3109
44161SOL    HW138446   7.490   7.729   6.469 -0.6418 -0.9520  0.8811
44161SOL    HW238447   7.640   7.706   6.473 -0.4547 -0.0993 -0.3580
44162SOL     OW38448   6.813   4.110   8.573  0.3200 -0.2523 -0.3361
44162SOL    HW138449   6.824   4.024   8.614 -0.1441 -0.2220 -0.1457
44162SOL    HW238450   6.774   4.164   8.640  1.2660  0.3192 -0.2227
44163SOL     OW38451   1.910   4.474   0.027 -0.0304 -0.1872 -0.2013
44163SOL    HW138452   1.940   4.510  -0.057  0.9552  0.6548  0.4826
44163SOL    HW238453   1.941   4.537   0.092  0.3180 -1.4708  0.9074
44164SOL     OW38454   2.219   0.524  10.135  0.1654 -0.3827  0.2495
44164SOL    HW138455   2.287   0.499  10.072  0.3263  1.4817 -0.3856
44164SOL    HW238456   2.142   0.473  10.110  0.6589 -0.7502 -0.5378
44165SOL     OW38457   5.704   5.164   7.501  0.2121 -0.0505  0.1812
44165SOL    HW138458   5.714   5.117   7.418 -0.4425 -1.9134  1.1025
44165SOL    HW238459   5.786   5.148   7.547  1.1923  2.2141 -0.6203
44166SOL     OW38460   2.128   5.541   3.795  0.0905  0.2565  0.3582
44166SOL    HW138461   2.107   5.546   3.702  0.4975 -1.7916  0.1119
44166SOL    HW238462   2.043   5.535   3.839 -0.0770  0.5306  0.0754
44167SOL     OW38463   7.730  11.178   9.189  0.2987 -0.9755 -0.1132
44167SOL    HW138464   7.757  11.177   9.280  0.6672 -1.2164 -0.2216
44167SOL    HW238465   7.804  11.140   9.141 -0.0095 -1.1292 -0.4791
44168SOL     OW38466  11.897   0.731   6.189 -0.2542  0.1211 -0.4717
44168SOL    HW138467  11.932   0.654   6.234 -0.4412 -0.2187 -0.9074
44168SOL    HW238468  11.877   0.793   6.260 -0.7784 -0.5034 -0.0632
44169SOL     OW38469   9.696   0.889   6.965  0.4558  0.0839 -0.4275
44169SOL    HW138470   9.675   0.819   7.026 -2.6452  0.1825 -1.2102
44169SOL    HW238471   9.659   0.968   7.004  0.2597  0.5214 -1.4475
44170SOL     OW38472   8.997  11.346   7.175 -0.3120 -0.0000  0.1455
44170SOL    HW138473   9.030  11.321   7.261 -0.8910  0.0603  0.3896
44170SOL    HW238474   9.029  11.278   7.116  0.5249  0.2341  0.3169
44171SOL     OW38475   2.277   2.114   0.427 -0.6079 -0.1121 -0.2799
44171SOL    HW138476   2.258   2.158   0.344  1.4052  1.3066 -0.0638
44171SOL    HW238477   2.264   2.021   0.408  0.0455  0.1525 -2.2548
44172SOL     OW38478   2.516   4.795   0.306 -0.6154 -0.0116  0.0243
44172SOL    HW138479   2.477   4.840   0.231 -0.6146  0.5738  0.3647
44172SOL    HW238480   2.442   4.766   0.359 -0.6250  1.3222  0.8008
44173SOL     OW38481   3.263  12.458  10.499  0.3538 -0.6337  0.0160
44173SOL    HW138482   3.218  12.411  10.428  0.9363 -3.5219  1.4044
44173SOL    HW238483   3.244  12.406  10.577 -1.5953  3.2607  2.4223
44174SOL     OW38484   6.754  11.267   5.055  0.3976  0.5170  0.4012
44174SOL    HW138485   6.716  11.179   5.058 -2.4018  1.6740  2.6384
44174SOL    HW238486   6.716  11.307   4.977  0.4800  0.2456  0.2207
44175SOL     OW38487   2.716   8.518   2.342  0.3200 -0.5643  0.5329
44175SOL    HW138488   2.767   8.456   2.290  1.0595 -0.9517  1.6648
44175SOL    HW238489   2.777   8.588   2.363 -0.7318  1.0404 -1.4320
44176SOL     OW38490   8.635   5.802   8.359  0.2616 -0.0894  0.2566
44176SOL    HW138491   8.546   5.794   8.326 -0.5952 -1.2368  2.6101
44176SOL    HW238492   8.637   5.888   8.402  0.3499  0.0278  0.0157
44177SOL     OW38493   6.835  11.368   5.693  0.4515 -0.0776  0.7415
44177SOL    HW138494   6.850  11.281   5.730  0.8541  0.8738  2.9833
44177SOL    HW238495   6.906  11.380   5.630 -1.5960 -2.6856 -2.3626
44178SOL     OW38496   6.529   1.353   9.815  0.1700 -0.0279 -0.0104
44178SOL    HW138497   6.601   1.343   9.878 -0.7156 -2.3118  0.7520
44178SOL    HW238498   6.573   1.372   9.732  1.5120  0.7858  0.8415
44179SOL     OW38499   9.590   7.033   7.638  0.5793 -0.1584  0.5784
44179SOL    HW138500   9.632   7.117   7.656  0.3929  0.3887 -1.2733
44179SOL    HW238501   9.579   7.032   7.543  0.8252 -2.4151  0.5169
44180SOL     OW38502   2.691   8.398   2.058  0.2160  0.4906 -0.0629
44180SOL    HW138503   2.782   8.385   2.086 -0.4925 -0.8303  1.7832
44180SOL    HW238504   2.692   8.377   1.964  1.0422 -4.1626  0.7600
44181SOL     OW38505   9.740  10.801   5.480  0.5124 -0.1739 -0.2583
44181SOL    HW138506   9.801  10.817   5.409  0.4581  0.7236 -0.1154
44181SOL    HW238507   9.750  10.708   5.500  0.5677 -0.4255 -1.3883
44182SOL     OW38508   4.385   3.744   7.891  0.6891 -0.4790 -0.2049
44182SOL    HW138509   4.329   3.667   7.881  2.2633 -1.5848 -0.9667
44182SOL    HW238510   4.464   3.723   7.841 -0.5350  3.4609 -4.5647
44183SOL     OW38511  10.246   3.145   2.313 -0.3854 -0.1818  0.5207
44183SOL    HW138512  10.315   3.095   2.357 -0.0630 -0.1996  0.0015
44183SOL    HW238513  10.234   3.222   2.368  0.1352 -0.1191  0.5535
44184SOL     OW38514   0.622   5.059   0.952  0.5464  0.0028 -0.5495
44184SOL    HW138515   0.611   5.154   0.953  2.1263  0.2125  0.1490
44184SOL    HW238516   0.646   5.037   1.042 -1.2838 -1.2866 -0.3159
44185SOL     OW38517  10.489   8.094  10.218 -0.1094  0.6639 -0.3152
44185SOL    HW138518  10.410   8.135  10.183 -1.3414 -1.1241  0.2882
44185SOL    HW238519  10.495   8.010  10.174  0.6748  0.1858  0.6619
44186SOL     OW38520   0.043   6.117   5.837  0.0428  0.4953 -0.0461
44186SOL    HW138521  -0.033   6.153   5.884  0.2184 -0.1600  0.7743
44186SOL    HW238522   0.112   6.113   5.903  0.1250 -1.0130 -0.1923
44187SOL     OW38523   9.093  11.015   5.181  0.8175 -0.1184 -0.0857
44187SOL    HW138524   9.188  11.015   5.167  0.5764  1.1199 -2.1912
44187SOL    HW238525   9.073  10.926   5.209  2.4196 -0.8616 -1.1369
44188SOL     OW38526   0.594   7.054  11.691  0.2154  0.7024 -0.3738
44188SOL    HW138527   0.580   6.993  11.618  0.4308  1.5514 -1.1446
44188SOL    HW238528   0.538   7.020  11.761  2.1498 -1.7703  0.0845
44189SOL     OW38529  12.129   8.600  11.149 -0.6339  0.6797 -0.5813
44189SOL    HW138530  12.115   8.686  11.110 -1.1757  0.2260 -1.4022
44189SOL    HW238531  12.224   8.590  11.148 -0.5863  1.0951 -0.8648
44190SOL     OW38532  10.053   4.266   4.616  0.6710  0.5052 -0.3557
44190SOL    HW138533  10.054   4.281   4.710 -0.6595  1.8954 -0.5198
44190SOL    HW238534  10.003   4.339   4.580  0.6227 -0.3138 -2.0889
44191SOL     OW38535  10.467   4.661   6.810 -0.1324 -0.5230  0.1193
44191SOL    HW138536  10.537   4.595   6.803  1.6288  1.0685  1.4706
44191SOL    HW238537  10.461   4.678   6.904  0.9674  2.6472 -0.2550
44192SOL     OW38538   1.284  12.468   6.643  0.4020  0.4566 -0.2942
44192SOL    HW138539   1.239  12.519   6.576 -0.2482  1.1962  0.6621
44192SOL    HW238540   1.370  12.510   6.651  0.6516  0.0831 -0.9631
44193SOL     OW38541   4.849   9.848   4.525 -0.7108  0.3459 -0.5176
44193SOL    HW138542   4.756   9.857   4.545 -0.5245  1.4506 -0.1130
44193SOL    HW238543   4.855   9.868   4.431 -1.0288 -0.8817 -0.8143
44194SOL     OW38544   6.841   3.580   5.320 -0.4693 -0.2150 -0.5828
44194SOL    HW138545   6.843   3.620   5.233  1.5534 -0.9887 -0.9463
44194SOL    HW238546   6.872   3.648   5.378  0.2135 -0.3435 -0.7880
44195SOL     OW38547   3.166   4.730   8.008 -0.5656 -0.1788 -0.3014
44195SOL    HW138548   3.223   4.686   7.945  2.1158 -1.7542  2.8766
44195SOL    HW238549   3.077   4.712   7.978  0.5218 -2.8853 -2.2832
44196SOL     OW38550   5.181   8.333  11.209 -0.2130  0.1506 -0.5033
44196SOL    HW138551   5.130   8.256  11.184 -0.4043  0.3321 -0.6816
44196SOL    HW238552   5.127   8.378  11.273  0.3636 -0.4120  0.3937
44197SOL     OW38553   4.990   1.668   5.268 -0.5700  0.4667 -0.0080
44197SOL    HW138554   5.066   1.624   5.230 -0.0564  0.2039  1.2614
44197SOL    HW238555   4.971   1.740   5.208  0.3044  0.1629 -0.6674
44198SOL     OW38556   0.917  10.870   1.657 -0.3940 -0.0347 -0.1316
44198SOL    HW138557   0.933  10.797   1.598 -0.3867 -1.0485  1.0752
44198SOL    HW238558   0.993  10.870   1.715 -1.2912 -0.3168  1.0927
44199SOL     OW38559   5.709  11.506  11.125 -0.4250 -0.2638 -0.1232
44199SOL    HW138560   5.654  11.536  11.197 -0.8408 -1.3579  0.0337
44199SOL    HW238561   5.653  11.511  11.048  0.2033  1.4966 -0.5253
44200SOL     OW38562   4.357   0.271   3.097 -0.7226 -0.1054  0.3014
44200SOL    HW138563   4.415   0.314   3.159 -1.2068  0.4645  0.3682
44200SOL    HW238564   4.377   0.311   3.013 -0.7227 -0.2108  0.2510
44201SOL     OW38565  10.523   1.363   6.557 -0.3415  0.4868  0.0457
44201SOL    HW138566  10.528   1.297   6.627  1.1637  0.1105 -0.3847
44201SOL    HW238567  10.475   1.320   6.487 -0.1379  0.1467  0.1091
44202SOL     OW38568   6.887   9.124   3.135  0.3971  0.4402 -0.0672
44202SOL    HW138569   6.837   9.135   3.216 -1.2445 -0.0695 -0.9720
44202SOL    HW238570   6.964   9.180   3.147 -0.0535  0.7462  1.6375
44203SOL     OW38571  12.227   1.431   3.862  0.0408  0.3234 -0.8672
44203SOL    HW138572  12.305   1.466   3.819  0.5507  0.9540  0.5259
44203SOL    HW238573  12.251   1.342   3.887  0.4119  0.6023 -0.2165
44204SOL     OW38574   4.022   3.455   0.189  0.0738  0.2209 -0.7809
44204SOL    HW138575   4.105   3.453   0.236  1.3522 -2.9010 -2.8592
44204SOL    HW238576   4.043   3.491   0.103 -0.5623 -1.0840 -1.5133
44205SOL     OW38577   9.181   4.171   2.250  0.0204  0.0650 -0.0205
44205SOL    HW138578   9.242   4.181   2.323 -0.4116  0.2068  0.3257
44205SOL    HW238579   9.164   4.077   2.246 -0.5987  0.1469  0.5956
44206SOL     OW38580   8.524   5.082  10.918  0.1270 -0.1077  0.3796
44206SOL    HW138581   8.611   5.112  10.943 -0.4135  1.5203  0.4783
44206SOL    HW238582   8.518   4.993  10.952  0.2590  1.1630  4.1664
44207SOL     OW38583  11.798  10.172   0.095 -0.0364 -0.5067 -0.3214
44207SOL    HW138584  11.721  10.214   0.133  0.1395 -2.2690  2.1933
44207SOL    HW238585  11.771  10.149   0.006 -2.6997 -1.6735  0.6849
44208SOL     OW38586   7.775   8.726   5.230 -0.1764 -0.7368 -0.1210
44208SOL    HW138587   7.742   8.648   5.186  0.4126 -0.6849 -0.6806
44208SOL    HW238588   7.830   8.769   5.164  1.5982 -1.2067  0.9755
44209SOL     OW38589   6.934   1.940  10.375  0.4304 -0.1513  0.4992
44209SOL    HW138590   6.986   1.920  10.297 -0.3449 -0.8609  0.1516
44209SOL    HW238591   6.847   1.905  10.356 -0.7372  2.6006  0.2994
44210SOL     OW38592   7.978   8.900   2.039 -0.4489 -0.0872 -0.0134
44210SOL    HW138593   7.932   8.882   1.957 -0.4518 -2.3548  0.4281
44210SOL    HW238594   8.061   8.938   2.011 -0.3542 -1.0227 -1.0987
44211SOL     OW38595   4.751   7.345   6.695  0.1866  0.8618  0.0510
44211SOL    HW138596   4.828   7.291   6.675 -0.8160 -0.8939  0.7169
44211SOL    HW238597   4.690   7.285   6.738 -1.7158  2.1074 -0.7718
44212SOL     OW38598  11.896   8.468   6.615  0.0476 -0.1182 -0.2272
44212SOL    HW138599  11.814   8.491   6.658 -0.3795 -1.1225 -0.4880
44212SOL    HW238600  11.873   8.399   6.553  1.1226 -0.5608 -0.1603
44213SOL     OW38601   3.888   4.520   4.121 -0.2815  0.1999  0.5880
44213SOL    HW138602   3.960   4.521   4.184 -2.4079 -2.4094  3.3266
44213SOL    HW238603   3.920   4.465   4.050  1.5921  1.8892  0.0235
44214SOL     OW38604  12.145   2.575   8.804 -0.0432 -0.2722  0.3460
44214SOL    HW138605  12.225   2.533   8.835 -0.5264 -0.0643  1.9293
44214SOL    HW238606  12.168   2.668   8.796  0.6352 -0.5526 -1.8909
44215SOL     OW38607   1.332   8.803   3.129 -0.6035 -0.5257 -0.0371
44215SOL    HW138608   1.412   8.838   3.168  0.0883  0.4599 -2.1715
44215SOL    HW238609   1.274   8.788   3.203  1.1699 -0.2673  1.4837
44216SOL     OW38610   4.188  11.931   1.320 -0.2839  1.0644 -0.0795
44216SOL    HW138611   4.244  12.009   1.324  0.0275  0.8427 -0.0499
44216SOL    HW238612   4.150  11.934   1.233 -0.3223  1.2837 -0.0571
44217SOL     OW38613   3.318   3.336   6.967  0.0415 -0.0018 -0.5890
44217SOL    HW138614   3.385   3.268   6.952  0.3278  0.5042 -1.7456
44217SOL    HW238615   3.346   3.409   6.912 -0.5384  0.8799  0.2586
44218SOL     OW38616   2.354   9.513   4.588  0.0410  0.5475  0.2978
44218SOL    HW138617   2.301   9.551   4.657 -1.7236 -0.2520 -0.5453
44218SOL    HW238618   2.330   9.420   4.587 -1.7228  0.8783 -2.7398
44219SOL     OW38619   7.724  12.437  10.763  0.2080  0.8553 -0.5875
44219SOL    HW138620   7.775  12.408  10.839 -0.5387 -0.8024 -0.6620
44219SOL    HW238621   7.633  12.426  10.791 -0.2398  4.2069 -0.2682
44220SOL     OW38622   6.827   5.818   1.576  0.1512 -0.6502  0.5440
44220SOL    HW138623   6.805   5.884   1.641  0.7155  0.3722 -0.2750
44220SOL    HW238624   6.778   5.740   1.603 -0.2320 -0.0195  1.7347
44221SOL     OW38625   2.768   2.609   6.548  0.0716 -0.2475 -0.5375
44221SOL    HW138626   2.729   2.665   6.481  0.3045 -0.6406 -1.0189
44221SOL    HW238627   2.773   2.663   6.626 -0.7605  0.0284 -0.6748
44222SOL     OW38628   0.610   9.921   1.341  0.4136  0.2685  0.0015
44222SOL    HW138629   0.692   9.964   1.367  1.8414 -1.4741 -1.3188
44222SOL    HW238630   0.635   9.830   1.327 -1.9223 -0.4613  0.1196
44223SOL     OW38631   3.229   4.947  12.382  0.6879 -0.2333 -0.2657
44223SOL    HW138632   3.269   5.034  12.389 -0.1846  0.0717  1.6643
44223SOL    HW238633   3.289   4.890  12.428 -0.1158 -0.1121  0.9747
44224SOL     OW38634   9.196   2.142   7.417  0.3252  0.3340 -0.0082
44224SOL    HW138635   9.282   2.179   7.398 -0.1259  0.4790 -1.9096
44224SOL    HW238636   9.136   2.189   7.360 -0.6738 -1.3479 -0.4246
44225SOL     OW38637   5.429  11.948   7.300  0.1650  0.0672 -0.5533
44225SOL    HW138638   5.429  11.960   7.204 -0.4581  1.0668 -0.4498
44225SOL    HW238639   5.479  12.023   7.333  2.2308 -1.4075 -0.1794
44226SOL     OW38640   4.270   5.771  11.413  0.2891 -0.3829 -0.4158
44226SOL    HW138641   4.343   5.779  11.351  0.9204  0.5392  0.4174
44226SOL    HW238642   4.262   5.859  11.451  0.7398 -1.2096  1.7049
44227SOL     OW38643   9.262   8.662   5.438  0.1947 -0.1104  0.3235
44227SOL    HW138644   9.293   8.572   5.447 -0.3730 -0.4192 -0.6002
44227SOL    HW238645   9.340   8.712   5.415  0.7301 -0.1469  1.9919
44228SOL     OW38646   7.304   5.987   9.606  0.8439 -0.3067 -0.5148
44228SOL    HW138647   7.285   6.018   9.695 -1.2489  1.4082 -1.4617
44228SOL    HW238648   7.274   5.896   9.605  1.6446 -0.6076  0.7276
44229SOL     OW38649  11.337   7.147   9.483  0.0688 -0.1363  0.2570
44229SOL    HW138650  11.412   7.138   9.424 -0.1992 -1.6762  0.1079
44229SOL    HW238651  11.360   7.093   9.559 -0.5675 -0.0226  0.5328
44230SOL     OW38652   9.508  10.507   7.679 -0.1771  0.3897  0.0445
44230SOL    HW138653   9.471  10.573   7.620 -0.1816 -0.0542 -0.4623
44230SOL    HW238654   9.440  10.439   7.685 -0.0137  0.2403  0.2405
44231SOL     OW38655   5.710   5.776   7.463 -0.4775 -0.3781 -0.3196
44231SOL    HW138656   5.664   5.751   7.382 -0.3963 -0.7021 -0.2686
44231SOL    HW238657   5.755   5.696   7.490 -2.0216 -0.8392  1.0654
44232SOL     OW38658  10.949   0.613   6.982 -0.0372  0.0932 -0.0503
44232SOL    HW138659  11.019   0.572   7.033  0.1994 -1.0181 -1.1989
44232SOL    HW238660  10.886   0.542   6.967 -0.1974  0.4297 -1.0954
44233SOL     OW38661   6.685   1.622   0.792  0.2833 -0.0441 -0.8479
44233SOL    HW138662   6.597   1.585   0.784 -0.5391  1.6195 -0.0144
44233SOL    HW238663   6.711   1.602   0.882  1.5557 -2.0799 -1.5962
44234SOL     OW38664   2.096   2.735   5.172  0.2887  0.6521  0.0589
44234SOL    HW138665   2.103   2.643   5.198  2.7245  0.8394  0.2947
44234SOL    HW238666   2.133   2.737   5.083  1.3693  1.5555  0.5059
44235SOL     OW38667   7.386   0.741   0.259 -0.1242  0.4661  0.2616
44235SOL    HW138668   7.379   0.646   0.250  0.2530  0.5460 -1.0823
44235SOL    HW238669   7.322   0.764   0.326 -1.2637 -0.5790 -0.4460
44236SOL     OW38670   8.935   5.455  11.432  0.1346 -0.4237  0.5774
44236SOL    HW138671   8.944   5.399  11.509  1.7646 -0.8477  0.1159
44236SOL    HW238672   8.849   5.495  11.442  0.6587  0.2663  3.1045
44237SOL     OW38673   4.236   9.437   0.682  0.1497  0.1801  0.3264
44237SOL    HW138674   4.169   9.387   0.728 -0.9946  1.8555  0.5675
44237SOL    HW238675   4.295   9.467   0.751  1.2701 -1.3693  0.1050
44238SOL     OW38676   1.937  12.140  12.066  0.3394 -0.3843 -0.4281
44238SOL    HW138677   1.908  12.073  12.127  0.2508  0.4475  0.4598
44238SOL    HW238678   1.863  12.200  12.058  0.7286  0.0993 -0.4982
44239SOL     OW38679  12.304  10.411   0.125 -0.9440  0.3289  0.0541
44239SOL    HW138680  12.278  10.452   0.042  1.3042  0.7208 -0.5180
44239SOL    HW238681  12.237  10.441   0.188 -1.1315  2.3425 -1.0149
44240SOL     OW38682   7.808   9.898   5.683  0.2164 -0.2279  0.8306
44240SOL    HW138683   7.810   9.928   5.592  1.7090 -2.4171  0.0660
44240SOL    HW238684   7.763   9.968   5.730  0.3700  1.4732 -1.3935
44241SOL     OW38685  10.272   6.714   6.746 -0.2503 -0.4599  0.2146
44241SOL    HW138686  10.325   6.767   6.687 -0.0971 -0.7538  0.0847
44241SOL    HW238687  10.198   6.770   6.770  0.0407 -0.1049  0.2768
44242SOL     OW38688   0.124   6.574  11.312  0.5699 -0.0770  0.0555
44242SOL    HW138689   0.037   6.540  11.292 -1.7485  4.1435  1.6467
44242SOL    HW238690   0.145   6.632  11.239  0.1631  1.8330  1.3776
44243SOL     OW38691   4.575   4.351  12.168  0.0278  0.2928 -0.0412
44243SOL    HW138692   4.653   4.340  12.113 -0.1396 -0.5777 -0.1156
44243SOL    HW238693   4.598   4.423  12.226  1.6935 -1.2049  1.2796
44244SOL     OW38694   5.361   3.815   3.531 -0.3709 -0.1186 -0.8830
44244SOL    HW138695   5.299   3.766   3.584  0.3205  2.6146  2.9058
44244SOL    HW238696   5.432   3.754   3.514 -0.5535 -1.1816  1.6700
44245SOL     OW38697   6.113   9.141   8.118 -0.1702  0.5116  0.2013
44245SOL    HW138698   6.104   9.061   8.067  0.4857  0.1210  0.6954
44245SOL    HW238699   6.028   9.152   8.161 -0.0070 -0.3620  0.7715
44246SOL     OW38700  12.377   5.145   4.179  0.2581 -0.2873 -0.1857
44246SOL    HW138701  12.323   5.181   4.250 -0.9007  2.1242 -2.1270
44246SOL    HW238702  12.448   5.099   4.224 -0.1745  1.4690  2.5436
44247SOL     OW38703   5.651   4.583  12.054 -0.3966  0.0113  0.0985
44247SOL    HW138704   5.710   4.510  12.035 -1.1699 -0.6666  0.2928
44247SOL    HW238705   5.617   4.564  12.141  1.5136  2.0202  1.4125
44248SOL     OW38706   2.327   3.950   5.049 -0.0302 -0.6222 -0.5207
44248SOL    HW138707   2.307   3.857   5.046  0.3598 -0.7193 -0.1731
44248SOL    HW238708   2.419   3.954   5.077 -0.6886 -0.0822  1.7398
44249SOL     OW38709  12.123   9.411   8.956  0.2120 -0.0250  0.8524
44249SOL    HW138710  12.031   9.438   8.962  0.3931  0.6602  0.5325
44249SOL    HW238711  12.129   9.337   9.017 -0.2154  0.8264  1.9527
44250SOL     OW38712   7.753   0.145   1.808  0.2539 -0.3298 -0.0837
44250SOL    HW138713   7.756   0.237   1.834  0.9446 -0.0871 -0.9733
44250SOL    HW238714   7.714   0.100   1.883 -1.2040  0.8416 -0.0978
44251SOL     OW38715  11.455  11.593   1.875  0.1423  0.0133  0.1252
44251SOL    HW138716  11.507  11.562   1.949 -0.8937 -1.7860  0.1302
44251SOL    HW238717  11.413  11.515   1.840 -0.7120  1.0816 -1.3395
44252SOL     OW38718   7.466   9.465   2.717  0.3257  0.2782  0.2726
44252SOL    HW138719   7.469   9.560   2.728  2.5589  0.2787  0.2028
44252SOL    HW238720   7.380   9.439   2.750 -1.1475  2.5080 -1.5216
44253SOL     OW38721   8.864   0.243  10.622 -0.3217  0.3588  0.4619
44253SOL    HW138722   8.851   0.293  10.541  0.8705 -1.7428 -1.1456
44253SOL    HW238723   8.942   0.190  10.605 -0.4464 -0.6826  2.7364
44254SOL     OW38724  11.338  12.023  11.160 -0.0288 -0.2701  0.1837
44254SOL    HW138725  11.418  11.996  11.205 -0.0225  0.0991  0.3981
44254SOL    HW238726  11.362  12.025  11.067  0.7605  1.6528  0.3901
44255SOL     OW38727  10.746   2.377  10.765  0.1647 -0.0394  0.2137
44255SOL    HW138728  10.758   2.466  10.796 -0.2608 -0.2500  1.0160
44255SOL    HW238729  10.831   2.351  10.730  0.7120  0.1550  1.3664
44256SOL     OW38730   3.357   3.829   3.127  0.5977  0.2507  0.2732
44256SOL    HW138731   3.451   3.842   3.132  0.5760  1.3257 -1.4907
44256SOL    HW238732   3.341   3.748   3.176  3.0777 -2.8541 -3.5196
44257SOL     OW38733   4.155  10.513   5.179  0.4727  0.1466  0.3539
44257SOL    HW138734   4.071  10.508   5.225  0.6144 -1.6296  0.4805
44257SOL    HW238735   4.150  10.445   5.112  0.7987  1.8097 -1.4424
44258SOL     OW38736   2.596   4.875   8.265  0.1555 -0.0290 -0.1183
44258SOL    HW138737   2.549   4.957   8.251 -0.8166 -0.9646 -2.9787
44258SOL    HW238738   2.673   4.883   8.208  0.3191 -0.8744 -0.0181
44259SOL     OW38739   1.351  11.026   8.040  0.1981  0.6709 -0.5044
44259SOL    HW138740   1.426  11.044   7.984 -0.6043 -1.9656 -2.6900
44259SOL    HW238741   1.322  10.939   8.013 -3.1059  1.2003  0.8511
44260SOL     OW38742   7.112   0.013   6.856 -0.6344 -0.3013 -0.2561
44260SOL    HW138743   7.169  -0.032   6.918  0.3748 -0.9922 -1.6320
44260SOL    HW238744   7.042  -0.050   6.836  0.0239 -0.7747 -1.1408
44261SOL     OW38745  11.904  11.303   7.558 -0.0432  0.0876  0.1969
44261SOL    HW138746  11.837  11.355   7.513 -0.4186  0.3580  1.0489
44261SOL    HW238747  11.911  11.343   7.645  1.0556 -0.0854  0.2099
44262SOL     OW38748  10.752   1.506  10.014 -0.4097  0.3128  0.2512
44262SOL    HW138749  10.838   1.471  10.036  0.0853  0.0747 -1.8867
44262SOL    HW238750  10.768   1.598   9.992 -0.9203  0.5827  0.9324
44263SOL     OW38751   7.572  11.239   1.574  0.7080  0.3070 -0.5097
44263SOL    HW138752   7.573  11.333   1.555 -0.5943  0.4840  0.1932
44263SOL    HW238753   7.579  11.197   1.488  0.8181  1.0401 -0.8647
44264SOL     OW38754   4.691   6.757   9.192  0.2083  0.2194  0.6665
44264SOL    HW138755   4.632   6.713   9.131  1.8473 -1.0004 -0.1268
44264SOL    HW238756   4.691   6.848   9.164 -0.9205  0.1422  0.3818
44265SOL     OW38757  11.682   8.677   6.751  0.3280  0.2439  0.0675
44265SOL    HW138758  11.761   8.728   6.733 -0.1451  1.7255  1.8858
44265SOL    HW238759  11.630   8.733   6.809 -1.5876 -1.1257 -0.2439
44266SOL     OW38760   5.038   1.517   3.976  0.9530 -0.0690  0.2274
44266SOL    HW138761   5.011   1.589   4.033  0.4780  0.2648 -0.4049
44266SOL    HW238762   5.090   1.460   4.033  1.7529  1.0176  0.6225
44267SOL     OW38763   4.571   8.108   7.475  0.0072  0.0963  0.1168
44267SOL    HW138764   4.559   8.077   7.565  0.4428 -1.1419 -0.2350
44267SOL    HW238765   4.600   8.031   7.427  2.3276  1.3025 -0.5573
44268SOL     OW38766  10.945   0.716   5.193  0.2920 -0.4486  0.4408
44268SOL    HW138767  11.011   0.707   5.262 -0.2252 -0.4430  0.9378
44268SOL    HW238768  10.980   0.664   5.120  0.7818 -0.5592  0.7482
44269SOL     OW38769   3.667   8.732   1.374 -0.0239 -0.1369  0.1719
44269SOL    HW138770   3.633   8.822   1.373 -0.0833 -0.1509  0.6912
44269SOL    HW238771   3.709   8.722   1.289  0.8494  0.7238  0.4838
44270SOL     OW38772  10.720   3.456   2.785  0.2587 -0.3840 -0.1539
44270SOL    HW138773  10.814   3.454   2.768  0.0810  0.7279 -1.4004
44270SOL    HW238774  10.702   3.546   2.813 -0.3728 -0.7072  0.5197
44271SOL     OW38775   2.919   5.172   8.019  0.6087  0.4089  0.7792
44271SOL    HW138776   2.952   5.147   7.933 -1.2195  2.9673 -0.8042
44271SOL    HW238777   2.998   5.191   8.070  1.7276  0.6592 -0.9539
44272SOL     OW38778   0.374  11.808  10.040 -0.2590 -0.0921 -0.5445
44272SOL    HW138779   0.320  11.816   9.962  0.5095  0.6340 -1.0152
44272SOL    HW238780   0.427  11.887  10.041 -0.7360  0.2616  1.0956
44273SOL     OW38781   0.886   9.752  10.431  0.1917  0.3375  0.2383
44273SOL    HW138782   0.976   9.756  10.398  1.1728 -2.0192  2.3076
44273SOL    HW238783   0.892   9.779  10.522 -0.7630 -1.8091  1.0114
44274SOL     OW38784   5.642   5.389   2.989 -0.2686 -0.0106  0.3683
44274SOL    HW138785   5.630   5.482   2.969  0.0098  0.1037  0.7272
44274SOL    HW238786   5.571   5.346   2.941 -1.0822  0.4903  1.0788
44275SOL     OW38787   4.858   3.307   4.662 -0.1942 -0.0674  0.0771
44275SOL    HW138788   4.891   3.390   4.627 -0.7077 -0.7552 -2.2043
44275SOL    HW238789   4.894   3.240   4.603  0.9174 -1.6222  2.3476
44276SOL     OW38790   6.051   5.404  11.711 -0.0874 -0.2321  0.1295
44276SOL    HW138791   6.096   5.323  11.736  0.9511  0.2537 -0.1093
44276SOL    HW238792   6.121   5.462  11.680 -0.6512  1.1665  1.3210
44277SOL     OW38793   0.457   3.183   5.427  0.2108 -0.2263 -0.0519
44277SOL    HW138794   0.471   3.097   5.388 -0.0694  0.1426 -0.9830
44277SOL    HW238795   0.376   3.215   5.388  1.0739  1.0945 -0.8773
44278SOL     OW38796   1.161   3.811  12.248  0.0018 -0.4084  0.0820
44278SOL    HW138797   1.230   3.836  12.309 -1.4382 -0.2643  1.7460
44278SOL    HW238798   1.161   3.716  12.248 -0.8270 -0.4311  1.3716
44279SOL     OW38799  11.589   3.842   8.465 -0.9720  0.1697  0.3493
44279SOL    HW138800  11.498   3.816   8.451 -1.1407  0.4438  0.9228
44279SOL    HW238801  11.611   3.808   8.552  0.3018 -2.1724 -0.7722
44280SOL     OW38802   0.344   7.947   4.577 -0.8955  0.0697 -0.6293
44280SOL    HW138803   0.382   7.918   4.495  0.4871  0.2777 -0.0939
44280SOL    HW238804   0.412   7.932   4.642 -1.2320  1.6692  0.1618
44281SOL     OW38805   6.926   6.342  12.257  0.0320 -0.4686 -0.1529
44281SOL    HW138806   6.922   6.386  12.172  2.6142  0.4697  0.1008
44281SOL    HW238807   6.851   6.376  12.306  0.8358  2.2378 -0.6600
44282SOL     OW38808   0.825  10.558  11.160  0.8185 -0.0360 -0.2254
44282SOL    HW138809   0.905  10.595  11.122  2.3364 -3.0813 -0.2794
44282SOL    HW238810   0.760  10.564  11.090  2.0650 -0.8002 -1.4983
44283SOL     OW38811   1.198  11.078   2.528  0.2950  0.5005  0.0377
44283SOL    HW138812   1.186  10.985   2.509 -1.1946  0.6670  0.0680
44283SOL    HW238813   1.144  11.123   2.462  1.5155  1.3840 -0.3996
44284SOL     OW38814   2.979   6.445   6.618  0.0593 -1.0288 -1.2836
44284SOL    HW138815   3.031   6.467   6.696  0.9924  0.0487 -2.1769
44284SOL    HW238816   2.889   6.464   6.643  0.5134  0.9781 -0.9950
44285SOL     OW38817   4.521   3.619   2.904  0.1489  0.4580 -0.3903
44285SOL    HW138818   4.541   3.694   2.960 -0.3246  0.5156 -0.2907
44285SOL    HW238819   4.425   3.617   2.900  0.0532 -1.4533  1.3790
44286SOL     OW38820   7.714   5.183   6.954  0.0221  0.1857 -0.6869
44286SOL    HW138821   7.804   5.202   6.927  1.0251 -2.0668  0.7428
44286SOL    HW238822   7.708   5.216   7.043 -0.2789 -0.4184 -0.4757
44287SOL     OW38823   3.256   3.745   0.010 -0.0244 -0.0872 -0.2991
44287SOL    HW138824   3.161   3.747   0.007 -0.1375 -2.4480 -0.5083
44287SOL    HW238825   3.276   3.729   0.103  0.1453  0.1319 -0.2988
44288SOL     OW38826   9.743   8.606   6.597 -0.0820 -0.0921 -0.0431
44288SOL    HW138827   9.785   8.649   6.523  1.5641  2.3059  2.0886
44288SOL    HW238828   9.653   8.638   6.597 -0.4962 -1.1445 -1.6665
44289SOL     OW38829   6.582  10.595  10.443 -0.5517  0.1302 -0.0913
44289SOL    HW138830   6.634  10.596  10.524 -0.3552  1.7475 -0.2068
44289SOL    HW238831   6.609  10.515  10.398  2.4901  1.2848 -0.5456
44290SOL     OW38832   9.774   0.532   7.505 -0.5964  0.2398 -0.7853
44290SOL    HW138833   9.858   0.539   7.461 -0.5289  0.0922 -0.6811
44290SOL    HW238834   9.785   0.581   7.587 -1.0357  1.3828 -1.3821
44291SOL     OW38835   6.408   0.304   3.825  0.3184 -0.2563  0.1307
44291SOL    HW138836   6.357   0.374   3.865  0.6552  0.4592 -0.6530
44291SOL    HW238837   6.415   0.329   3.733  1.6814 -0.5741  0.1168
44292SOL     OW38838   4.005   2.061   1.117  0.3269  0.1272 -0.2977
44292SOL    HW138839   4.095   2.072   1.087  0.6628 -2.0128 -0.2615
44292SOL    HW238840   4.011   1.997   1.188 -1.1947  0.0734 -0.1762
44293SOL     OW38841  10.486  10.612  11.889  0.4569 -0.1204 -0.1540
44293SOL    HW138842  10.459  10.696  11.927  1.1292  0.4878 -0.9510
44293SOL    HW238843  10.405  10.572  11.858  0.1994  0.5935 -0.4378
44294SOL     OW38844   5.016   0.606   4.809 -0.5540  0.5690 -0.1960
44294SOL    HW138845   4.991   0.641   4.895  0.4065 -0.0168  0.3441
44294SOL    HW238846   5.104   0.571   4.822 -1.1145 -1.2459 -0.9331
44295SOL     OW38847   1.914   3.564   0.382 -0.4045  0.2406 -0.1362
44295SOL    HW138848   1.869   3.642   0.416 -0.0995 -0.4484  2.0591
44295SOL    HW238849   1.974   3.539   0.452 -0.3296 -1.8420 -0.8589
44296SOL     OW38850   9.067   9.104  12.322  0.4289 -0.3126 -0.3173
44296SOL    HW138851   9.043   9.106  12.229  1.3090  0.7754 -0.5344
44296SOL    HW238852   9.133   9.035  12.328 -1.4510 -2.1679 -0.0115
44297SOL     OW38853   7.377   9.240   0.296  0.6759  0.3793 -0.5012
44297SOL    HW138854   7.290   9.262   0.261  0.4789 -0.6377 -0.6828
44297SOL    HW238855   7.387   9.297   0.372 -1.9604 -2.2235  2.1041
44298SOL     OW38856   4.906   3.916   3.723 -0.1194  0.2640  0.1223
44298SOL    HW138857   4.936   3.870   3.644 -1.2846  0.7148 -0.6013
44298SOL    HW238858   4.936   4.006   3.710  2.3790 -0.2396  1.6532
44299SOL     OW38859   4.907   9.478   9.526 -0.0875 -0.1153 -0.3780
44299SOL    HW138860   4.987   9.430   9.507 -0.4594 -0.4012 -1.3085
44299SOL    HW238861   4.855   9.418   9.580 -0.3883 -0.6415 -1.2152
44300SOL     OW38862   7.829   6.552   5.449  0.3255 -0.8814 -0.0082
44300SOL    HW138863   7.855   6.514   5.365 -0.8070 -2.6334  0.3969
44300SOL    HW238864   7.733   6.547   5.449  0.3013 -0.7112  1.3094
44301SOL     OW38865  12.345  10.857   5.655  0.5161  0.6679  0.3830
44301SOL    HW138866  12.253  10.834   5.666  0.6237  0.8081  1.7490
44301SOL    HW238867  12.356  10.867   5.561 -0.8869  0.7360  0.2061
44302SOL     OW38868  10.439   6.552   8.849  0.5439 -0.8975 -0.2365
44302SOL    HW138869  10.477   6.541   8.937 -0.3800 -0.5314  0.2148
44302SOL    HW238870  10.364   6.493   8.847  0.2048 -0.4621 -0.5712
44303SOL     OW38871   5.626   3.747  10.226 -0.3176 -0.2919  0.1276
44303SOL    HW138872   5.704   3.710  10.183 -0.1324  1.5690 -1.2425
44303SOL    HW238873   5.658   3.824  10.272 -1.1410 -0.2641  0.6639
44304SOL     OW38874  10.438   1.242   7.152 -0.0035 -0.4269  0.3860
44304SOL    HW138875  10.467   1.210   7.238  1.3705  0.2452  0.2032
44304SOL    HW238876  10.379   1.174   7.119 -0.7466 -0.5920  1.9521
44305SOL     OW38877   7.288   4.602  11.569 -0.6669 -0.3290 -0.4882
44305SOL    HW138878   7.359   4.542  11.592 -0.5651  0.0475  0.1864
44305SOL    HW238879   7.226   4.547  11.520  0.1978 -0.6044 -1.3154
44306SOL     OW38880  10.885  10.811   2.580  0.4047 -0.4693 -0.0470
44306SOL    HW138881  10.945  10.818   2.654  1.6263 -0.2411 -1.0157
44306SOL    HW238882  10.826  10.740   2.603 -1.2748  1.5799  2.5167
44307SOL     OW38883   7.684   3.060   7.682 -0.4045  0.3065 -0.4507
44307SOL    HW138884   7.645   3.106   7.608  1.5102 -1.2165 -2.5531
44307SOL    HW238885   7.778   3.075   7.674 -0.1910  1.5917  2.8188
44308SOL     OW38886   9.122  10.056   9.575  0.9112  0.2559 -0.2478
44308SOL    HW138887   9.145  10.031   9.664  1.4498 -0.6067 -0.6170
44308SOL    HW238888   9.141   9.979   9.523 -0.6370  0.2959 -0.9248
44309SOL     OW38889   7.863   2.477   6.316 -0.4430 -0.2856  0.0152
44309SOL    HW138890   7.900   2.498   6.402 -0.6324 -1.6900  0.4774
44309SOL    HW238891   7.933   2.498   6.254  0.0919 -0.2409  0.6243
44310SOL     OW38892   2.101  11.732   6.360  0.2845 -0.2531 -0.4753
44310SOL    HW138893   2.023  11.731   6.303  0.3865 -0.7861 -0.6082
44310SOL    HW238894   2.098  11.818   6.402 -1.4158 -0.9438  0.9387
44311SOL     OW38895   1.645   4.348   6.924 -0.2161 -0.1736 -0.3153
44311SOL    HW138896   1.550   4.343   6.916 -0.2679  0.9998 -0.6761
44311SOL    HW238897   1.676   4.260   6.904 -1.0186  0.1615 -3.4825
44312SOL     OW38898   5.093   0.518  12.393  0.1888 -0.0489 -0.6713
44312SOL    HW138899   5.057   0.599  12.358  1.1520  1.5028  1.7010
44312SOL    HW238900   5.041   0.501  12.472 -0.7427 -2.4372 -1.6861
44313SOL     OW38901   5.955   1.119   5.340  0.4603 -0.5601 -0.1162
44313SOL    HW138902   6.012   1.172   5.285  0.5905  0.4909  0.9816
44313SOL    HW238903   5.895   1.076   5.279 -0.9202  2.3711 -0.9838
44314SOL     OW38904   5.546   7.665   3.353  0.3732 -0.0484 -0.3085
44314SOL    HW138905   5.590   7.747   3.374 -0.5530  0.0487  1.4729
44314SOL    HW238906   5.572   7.645   3.263  0.1192  2.5244 -1.0257
44315SOL     OW38907   5.585   7.218  10.450 -0.3281 -0.0028  0.3853
44315SOL    HW138908   5.503   7.174  10.429 -0.3838  0.9543 -1.5588
44315SOL    HW238909   5.579   7.303  10.408  0.6479  1.0954  2.3371
44316SOL     OW38910  10.005   7.851  11.795  0.2747  0.1077 -0.3056
44316SOL    HW138911   9.947   7.868  11.869 -0.4086 -1.5693 -0.3967
44316SOL    HW238912   9.999   7.756  11.782  0.3652  0.3566 -2.5213
44317SOL     OW38913   7.835   8.720   6.186  0.0113  0.5415 -0.0075
44317SOL    HW138914   7.922   8.709   6.225 -1.6480  0.6554  4.2291
44317SOL    HW238915   7.817   8.635   6.145  2.0702  0.5600 -1.1165
44318SOL     OW38916   0.630   0.262   0.252 -0.2277  0.4578  0.3573
44318SOL    HW138917   0.577   0.267   0.173 -1.7827  2.1779  1.4258
44318SOL    HW238918   0.623   0.170   0.280  2.2619 -0.8407 -2.6080
44319SOL     OW38919  12.416  10.374   2.602 -0.3182  0.0972 -0.4242
44319SOL    HW138920  12.403  10.469   2.594 -0.0244  0.0862 -1.0693
44319SOL    HW238921  12.494  10.365   2.657 -0.5183  0.2234 -0.1169
44320SOL     OW38922   8.644   6.461   6.850 -0.1204 -0.3748 -0.4144
44320SOL    HW138923   8.711   6.402   6.817  2.4879  1.7800  0.6202
44320SOL    HW238924   8.686   6.508   6.922 -2.6049  1.4523 -0.0007
44321SOL     OW38925   4.791   5.805   9.892  0.1743 -0.9667  0.4761
44321SOL    HW138926   4.697   5.821   9.898 -0.1250 -2.0138 -0.9062
44321SOL    HW238927   4.829   5.861   9.959 -1.3059  0.5956  0.0760
44322SOL     OW38928   7.197   6.617   5.310 -0.3015  0.4803 -0.2201
44322SOL    HW138929   7.281   6.599   5.352  0.5091  0.8306 -1.6366
44322SOL    HW238930   7.201   6.710   5.286 -1.1145  0.5142 -0.2475
44323SOL     OW38931   0.024   9.447  10.686 -0.2192  0.1439 -0.3243
44323SOL    HW138932   0.098   9.428  10.628  0.3487 -1.6176  0.8820
44323SOL    HW238933  -0.040   9.489  10.630  0.4090 -1.2503 -2.1846
44324SOL     OW38934   7.222   9.363   1.483 -0.4671  0.1939 -0.8144
44324SOL    HW138935   7.135   9.346   1.519  0.0884 -0.7931  0.1261
44324SOL    HW238936   7.207   9.427   1.413 -1.9019  0.2508 -0.4864
44325SOL     OW38937  10.915   0.521   4.598  0.1881  0.3611 -0.1034
44325SOL    HW138938  10.895   0.559   4.512 -3.0367 -0.7585  0.0339
44325SOL    HW238939  10.857   0.566   4.659  1.3986  0.1255  1.2744
44326SOL     OW38940   4.018   1.229   0.603  0.1859  0.1878  0.2979
44326SOL    HW138941   4.103   1.239   0.646  0.8306  1.4403 -1.1517
44326SOL    HW238942   4.041   1.205   0.513 -0.9550  1.4927 -0.3661
44327SOL     OW38943   5.093   1.751   6.697 -0.3390  0.7276  0.0967
44327SOL    HW138944   5.128   1.840   6.706 -0.2049  0.6921 -0.0591
44327SOL    HW238945   5.063   1.728   6.785  0.0895  0.7395  0.2515
44328SOL     OW38946   7.129   4.092   9.422  0.5665 -0.7867  0.1998
44328SOL    HW138947   7.192   4.163   9.426 -0.9228  0.6595 -0.9341
44328SOL    HW238948   7.155   4.041   9.345  0.2290 -0.0574 -0.4054
44329SOL     OW38949   6.596  11.854   5.152  0.0800  0.2459 -0.7607
44329SOL    HW138950   6.683  11.828   5.122  0.6676  2.8025 -1.5201
44329SOL    HW238951   6.536  11.801   5.100  1.1620 -0.6386 -1.1518
44330SOL     OW38952  11.692   3.578   5.367  0.2589  0.1031 -0.3361
44330SOL    HW138953  11.710   3.517   5.295 -0.0628 -0.4612  0.0549
44330SOL    HW238954  11.628   3.639   5.331 -0.8854 -0.9462 -0.1490
44331SOL     OW38955   6.098   9.786   7.512 -0.3473 -0.1777 -0.4260
44331SOL    HW138956   6.137   9.874   7.516  0.3720 -0.5341  1.2022
44331SOL    HW238957   6.106   9.761   7.420  0.2808  1.0928 -0.7477
44332SOL     OW38958   9.718  11.417   6.963 -0.0056  0.2295  0.1636
44332SOL    HW138959   9.685  11.357   6.896 -0.9754  0.7447  0.1604
44332SOL    HW238960   9.792  11.371   7.002  1.2707  0.3328 -1.9641
44333SOL     OW38961   4.387   4.590   5.842 -0.0869  0.6975 -0.0720
44333SOL    HW138962   4.382   4.510   5.790  0.8982  0.3166  0.3949
44333SOL    HW238963   4.347   4.567   5.926  1.6117  0.1859  0.6365
44334SOL     OW38964   2.450   9.330   2.917  0.7573 -0.5329 -0.0911
44334SOL    HW138965   2.421   9.283   2.839 -1.8659 -0.4997  0.7767
44334SOL    HW238966   2.514   9.272   2.958  0.4814 -1.5708 -1.0916
44335SOL     OW38967   2.750   4.237  12.155  0.0375 -0.3531 -0.0366
44335SOL    HW138968   2.747   4.154  12.203  0.3808  0.5796  1.6898
44335SOL    HW238969   2.790   4.299  12.217  0.6683  0.8795 -1.6207
44336SOL     OW38970   3.574   5.541   8.192 -0.0817  0.0824 -0.0085
44336SOL    HW138971   3.612   5.453   8.184  0.6146  0.4418 -0.7831
44336SOL    HW238972   3.628   5.584   8.259 -0.3592 -0.0415  0.2977
44337SOL     OW38973   4.275  10.125   0.539 -0.6181 -0.2448  0.2450
44337SOL    HW138974   4.249  10.120   0.447  1.8816  1.0288 -0.6019
44337SOL    HW238975   4.368  10.103   0.539 -0.1301  1.5540  2.2114
44338SOL     OW38976  12.259  10.056   7.858  0.2126  0.0779  0.4496
44338SOL    HW138977  12.223  10.140   7.830  1.2686  0.6884  0.8519
44338SOL    HW238978  12.185   9.996   7.856 -0.7112  1.1713  0.7931
44339SOL     OW38979   4.878   2.447  10.413  0.2612 -0.2555  0.4365
44339SOL    HW138980   4.863   2.362  10.372  2.3775 -0.6698  0.4171
44339SOL    HW238981   4.829   2.443  10.495  0.0009 -1.3483  0.2443
44340SOL     OW38982   6.321   0.387   2.743 -0.2127  0.1672  0.3768
44340SOL    HW138983   6.246   0.328   2.738  0.3741 -0.5054 -0.5394
44340SOL    HW238984   6.292   0.456   2.804 -2.1040  0.6852 -0.9892
44341SOL     OW38985   3.745   4.253  10.550  0.2445 -0.0008  0.2089
44341SOL    HW138986   3.839   4.257  10.531  0.1298  0.0365 -0.3716
44341SOL    HW238987   3.703   4.272  10.466 -0.2936  2.4349  0.9481
44342SOL     OW38988   7.747   5.489   7.304 -0.0028 -0.7266 -0.0788
44342SOL    HW138989   7.679   5.431   7.272 -0.8590  0.2904 -0.1677
44342SOL    HW238990   7.727   5.500   7.397 -1.3744  1.3596 -0.5496
44343SOL     OW38991   7.119   3.184   2.832  0.2695 -0.3413 -0.0697
44343SOL    HW138992   7.175   3.216   2.903 -0.4956 -0.6785  0.7005
44343SOL    HW238993   7.107   3.091   2.851  1.9929 -1.0173 -1.9711
44344SOL     OW38994   9.506   4.179   8.293  0.0797  0.1472  0.4112
44344SOL    HW138995   9.492   4.085   8.290  0.7649  0.0273  0.8964
44344SOL    HW238996   9.557   4.194   8.373  2.3906  0.6262 -1.0809
44345SOL     OW38997   8.912   3.570   4.396  0.3860  0.3247 -0.2233
44345SOL    HW138998   8.999   3.542   4.427  0.5152 -1.0200 -1.6814
44345SOL    HW238999   8.930   3.638   4.332  0.4865 -0.8521 -1.4911
44346SOL     OW39000  10.026   3.870   0.795 -0.1524  0.0739  0.2828
44346SOL    HW139001   9.946   3.904   0.755  0.4187  0.8614 -0.2114
44346SOL    HW239002  10.091   3.874   0.726  0.4803  0.0189  0.8633
44347SOL     OW39003   0.772  11.826   4.876  0.1320  0.0326 -0.0409
44347SOL    HW139004   0.791  11.742   4.917 -0.1748  0.2510  0.5494
44347SOL    HW239005   0.817  11.822   4.791 -2.2322 -1.9095 -1.3605
44348SOL     OW39006   7.390   6.722   0.177 -0.5188  0.3657  0.1944
44348SOL    HW139007   7.422   6.710   0.087  2.8589  1.7737  1.0380
44348SOL    HW239008   7.356   6.636   0.202  0.0042 -0.5001 -1.8961
44349SOL     OW39009   7.389   1.183   7.655 -0.2368 -0.3343  0.4160
44349SOL    HW139010   7.420   1.273   7.649 -0.6882 -0.0942  1.4209
44349SOL    HW239011   7.322   1.176   7.587 -0.2207  0.0972  0.3529
44350SOL     OW39012   1.542   9.244   8.768 -0.0304  0.1184 -0.1830
44350SOL    HW139013   1.634   9.226   8.789 -0.4227 -0.6588  0.9741
44350SOL    HW239014   1.515   9.168   8.716 -0.6032 -0.7952  1.3728
44351SOL     OW39015   0.148   0.234   1.067  0.2236  0.2999 -0.1779
44351SOL    HW139016   0.136   0.159   1.008 -0.7766 -1.0324  1.6030
44351SOL    HW239017   0.169   0.307   1.009  1.3100 -1.3534 -2.0001
44352SOL     OW39018   0.808   6.694   6.007 -0.4016  0.1500 -0.0424
44352SOL    HW139019   0.892   6.656   6.031 -0.0455  0.0562 -1.3393
44352SOL    HW239020   0.777   6.738   6.086 -0.0417 -1.4174  1.0106
44353SOL     OW39021   9.597   6.514   9.619 -0.1353  0.2191  0.1742
44353SOL    HW139022   9.615   6.535   9.711 -0.7035  0.7070  0.1845
44353SOL    HW239023   9.662   6.448   9.596 -0.0018  0.0728  0.9356
44354SOL     OW39024   5.427  11.166   5.710 -0.2927  0.0101 -0.1804
44354SOL    HW139025   5.475  11.173   5.627  0.1315 -0.7152 -0.0076
44354SOL    HW239026   5.347  11.216   5.696  0.1117  0.4960 -0.7806
44355SOL     OW39027   3.348   6.796   9.713 -0.2023 -0.4101 -0.2521
44355SOL    HW139028   3.324   6.878   9.754 -0.0359 -0.2204 -0.5290
44355SOL    HW239029   3.443   6.791   9.723 -0.2554 -0.7433  0.0852
44356SOL     OW39030   9.464   3.983   3.632  0.3413  0.5067  0.2090
44356SOL    HW139031   9.546   3.933   3.641  0.8371  1.1923 -0.3708
44356SOL    HW239032   9.484   4.048   3.566 -0.0273  2.0105  1.5180
44357SOL     OW39033   5.773   0.062   0.318  0.2136 -0.5898 -0.7617
44357SOL    HW139034   5.705   0.128   0.305 -0.7283 -1.4047 -0.1662
44357SOL    HW239035   5.846   0.091   0.264 -0.4921  0.4771 -1.1735
44358SOL     OW39036   4.170   6.086   3.572 -0.3426 -0.0796  0.1387
44358SOL    HW139037   4.136   6.050   3.653 -0.2585  0.8828  0.6125
44358SOL    HW239038   4.249   6.035   3.554  0.1028  0.2470  1.1096
44359SOL     OW39039   9.379   0.569   3.998 -0.0094  0.4291  0.0635
44359SOL    HW139040   9.356   0.521   4.077  1.7139  1.1720  1.0659
44359SOL    HW239041   9.466   0.537   3.974 -0.6028  0.0186 -1.7181
44360SOL     OW39042   6.178   1.092   1.557  0.2162  0.0739 -0.0085
44360SOL    HW139043   6.153   1.140   1.636  1.0772  0.0715  0.2717
44360SOL    HW239044   6.223   1.014   1.590 -1.9180 -1.4108 -0.4272
44361SOL     OW39045   5.553   3.392   1.631 -0.4571  0.2818  0.0867
44361SOL    HW139046   5.625   3.330   1.642 -0.4153  0.1916 -0.6470
44361SOL    HW239047   5.561   3.451   1.706 -1.4541 -1.5240  1.7038
44362SOL     OW39048   2.993   6.209   5.522  0.0410 -0.3966  0.4061
44362SOL    HW139049   2.912   6.247   5.554  0.6042  0.9509  0.2917
44362SOL    HW239050   2.979   6.197   5.428 -0.5114 -1.4957  0.6089
44363SOL     OW39051   9.516  11.994   0.497 -0.0443  0.4788  1.1893
44363SOL    HW139052   9.597  11.955   0.531  0.8084  0.2271 -0.9880
44363SOL    HW239053   9.446  11.951   0.547  0.9745 -2.3013  0.4042
44364SOL     OW39054   6.324   9.022   1.114 -0.0844  0.1790  0.2317
44364SOL    HW139055   6.256   8.956   1.126 -0.2691  0.6500  2.1584
44364SOL    HW239056   6.319   9.046   1.022 -0.2119 -2.2532 -0.4653
44365SOL     OW39057   6.852  11.050  10.134  0.1906 -0.0073 -0.0754
44365SOL    HW139058   6.804  11.102  10.070 -1.4947  0.3337  1.3902
44365SOL    HW239059   6.827  10.959  10.115  1.3902 -0.1230 -1.2223
44366SOL     OW39060   5.011   1.240  11.545  0.2550 -0.0538  0.5169
44366SOL    HW139061   5.094   1.227  11.591  1.1184  0.9204 -0.6968
44366SOL    HW239062   4.997   1.158  11.497  2.2805  0.8990 -1.9032
44367SOL     OW39063   5.499   5.664   6.550 -0.0624  0.1540 -0.2541
44367SOL    HW139064   5.421   5.703   6.510  0.4173 -0.6417 -2.0771
44367SOL    HW239065   5.544   5.619   6.478  2.3266  0.9423  0.6272
44368SOL     OW39066   6.550   8.463   0.427  0.1481 -0.7223 -0.8192
44368SOL    HW139067   6.620   8.399   0.443  1.0500  0.8725  2.3576
44368SOL    HW239068   6.484   8.443   0.492  0.7553  1.8716  0.7245
44369SOL     OW39069   3.031   0.423   4.434 -0.2074 -0.1096 -0.2974
44369SOL    HW139070   2.961   0.366   4.402 -0.6331 -0.5885  1.4127
44369SOL    HW239071   3.085   0.366   4.489 -0.1938  0.9626  0.8246
44370SOL     OW39072   0.044   4.993   8.809 -0.6171 -0.1922  0.0236
44370SOL    HW139073   0.083   5.076   8.781 -0.3058 -0.5661 -0.6880
44370SOL    HW239074   0.030   5.003   8.903 -2.2255  1.3556 -0.3147
44371SOL     OW39075   8.059  10.061   4.898  0.2668  0.4046 -0.4195
44371SOL    HW139076   8.144  10.085   4.862  0.5320  0.0963 -0.0085
44371SOL    HW239077   8.016  10.144   4.915  0.8297  0.5841  0.1725
44372SOL     OW39078   0.198   2.604   1.341  0.4684  0.2367 -0.4198
44372SOL    HW139079   0.231   2.694   1.350  1.3314 -0.1256  0.1443
44372SOL    HW239080   0.108   2.608   1.374  0.4213  0.9335 -0.6044
44373SOL     OW39081   6.382  11.684   5.716 -0.4179 -0.0184 -0.0195
44373SOL    HW139082   6.335  11.603   5.733  0.2927 -0.2284  1.0618
44373SOL    HW239083   6.467  11.672   5.759  0.4305  0.5426 -1.4937
44374SOL     OW39084   1.257   8.807   0.481 -0.1573 -0.6756 -0.2249
44374SOL    HW139085   1.276   8.751   0.556  1.8463 -1.0294 -0.9476
44374SOL    HW239086   1.221   8.887   0.519 -0.1031 -1.2344  1.0317
44375SOL     OW39087  10.841  10.477   9.803  0.1969 -0.2139  0.0100
44375SOL    HW139088  10.911  10.415   9.828  1.3010  0.4488 -1.2728
44375SOL    HW239089  10.774  10.422   9.762  0.9800 -0.6405 -0.7390
44376SOL     OW39090   2.451   4.645   6.420  0.3750 -0.6537  0.2547
44376SOL    HW139091   2.381   4.676   6.363 -0.7213 -0.4108  1.6820
44376SOL    HW239092   2.517   4.715   6.417 -0.3991  0.1029  0.5365
44377SOL     OW39093   6.037   3.738   1.618  0.2030 -0.1732 -0.4120
44377SOL    HW139094   6.121   3.693   1.630 -0.7461 -1.7193  0.7837
44377SOL    HW239095   6.005   3.753   1.707 -0.2155  1.6068 -0.8154
44378SOL     OW39096   1.069   5.913   3.653  0.2604  0.0824  0.1417
44378SOL    HW139097   1.094   5.824   3.679 -1.0651  0.4257  2.9987
44378SOL    HW239098   1.057   5.959   3.736 -2.5987  1.9186 -1.1478
44379SOL     OW39099  12.189   3.729   0.726  0.6799  0.5940  0.2657
44379SOL    HW139100  12.257   3.662   0.736  0.5638  0.5740  0.9522
44379SOL    HW239101  12.107   3.679   0.722  0.5728  0.7063  1.0196
44380SOL     OW39102   6.189   8.583   5.050 -0.1550  0.0416  0.2932
44380SOL    HW139103   6.208   8.638   5.126 -0.0471 -0.0848  0.3595
44380SOL    HW239104   6.138   8.511   5.085 -2.3331  1.2762 -0.1680
44381SOL     OW39105  10.834   7.039   0.004  0.0251 -0.1765 -0.2216
44381SOL    HW139106  10.900   7.000   0.061  0.6801 -0.2227 -1.0029
44381SOL    HW239107  10.884   7.091  -0.059 -0.6832 -0.2327 -0.8394
44382SOL     OW39108   0.043  10.151   7.257  0.0207  0.0350 -0.0054
44382SOL    HW139109   0.059  10.212   7.328 -0.6417 -0.5078  0.6308
44382SOL    HW239110   0.090  10.187   7.182  1.3081  0.2575  0.8859
44383SOL     OW39111   8.650   6.907   8.241 -0.0393  0.1632 -0.0208
44383SOL    HW139112   8.723   6.852   8.269 -1.4073 -1.4836  0.4698
44383SOL    HW239113   8.671   6.929   8.150  0.0613 -2.1162 -0.6139
44384SOL     OW39114  11.615   3.109   3.822  0.1174 -0.1746 -0.0992
44384SOL    HW139115  11.634   3.202   3.830  1.2506 -0.3773 -0.3755
44384SOL    HW239116  11.648   3.084   3.736  0.0193 -0.8869  0.0574
44385SOL     OW39117   9.684   7.034  10.629  0.4885 -0.2341 -0.0215
44385SOL    HW139118   9.675   6.966  10.563  0.6216  0.8655 -1.1975
44385SOL    HW239119   9.614   7.097  10.609  2.1036  1.4219 -0.7558
44386SOL     OW39120   4.147   5.933   4.443 -0.4132 -0.3635  0.7955
44386SOL    HW139121   4.216   5.969   4.387  0.0091 -1.7168  0.4022
44386SOL    HW239122   4.145   5.840   4.421 -0.8830 -0.7500  2.3694
44387SOL     OW39123   1.936   5.151   6.559  0.3124  0.0213 -0.7499
44387SOL    HW139124   1.927   5.068   6.512 -0.6044 -0.6302  0.5202
44387SOL    HW239125   1.928   5.218   6.490  1.0165 -0.9197 -1.7808
44388SOL     OW39126   2.130   7.466   3.683  0.4297  0.2086  0.0528
44388SOL    HW139127   2.105   7.374   3.671  1.4600 -0.5646  2.8988
44388SOL    HW239128   2.167   7.492   3.599  1.2708 -2.3960 -0.4932
44389SOL     OW39129   3.704  11.742   0.689  0.6815 -0.6286 -0.1268
44389SOL    HW139130   3.647  11.667   0.707 -0.2747 -0.0332 -0.5400
44389SOL    HW239131   3.787  11.720   0.731 -0.1173 -1.1372  1.2688
44390SOL     OW39132   7.173   5.043   4.700  0.2291  0.0571  0.1678
44390SOL    HW139133   7.140   4.963   4.741 -1.0095  0.5104  0.0933
44390SOL    HW239134   7.237   5.012   4.636  0.3708 -0.8201  0.7170
44391SOL     OW39135   6.372   1.172   1.900  0.0873  0.5508 -0.3356
44391SOL    HW139136   6.290   1.122   1.908  0.4962  0.1348  2.0978
44391SOL    HW239137   6.440   1.105   1.887  0.2796  0.7213 -0.2100
44392SOL     OW39138   6.945  10.206   4.251  0.1832  1.0895  0.2937
44392SOL    HW139139   6.986  10.187   4.335  1.0040 -0.5676 -0.4451
44392SOL    HW239140   7.006  10.264   4.206  2.0476 -1.6497 -0.9498
44393SOL     OW39141   0.713   1.509  11.621  0.0567  0.0736 -0.7371
44393SOL    HW139142   0.635   1.491  11.674 -0.7411 -0.0683 -1.9182
44393SOL    HW239143   0.733   1.426  11.579  0.5042  0.2590 -0.8947
44394SOL     OW39144   0.871   4.732  11.323  0.1060 -0.4978 -0.2684
44394SOL    HW139145   0.840   4.678  11.396  1.4472 -0.2009  0.5585
44394SOL    HW239146   0.957   4.696  11.302  0.4935  0.5547 -0.5141
44395SOL     OW39147   9.859   8.052   0.428 -0.3094  0.4767  0.1793
44395SOL    HW139148   9.945   8.044   0.469  0.2249  1.1513 -0.7714
44395SOL    HW239149   9.872   8.112   0.355 -1.2835 -0.4493 -0.8041
44396SOL     OW39150   6.504   5.023   6.531 -0.8775 -0.5744  0.2603
44396SOL    HW139151   6.502   5.109   6.488  0.9055 -1.9270 -2.7693
44396SOL    HW239152   6.569   5.033   6.601  1.1788 -0.0375 -1.6170
44397SOL     OW39153   4.206   9.548   7.061 -0.6859 -0.6137 -0.8456
44397SOL    HW139154   4.236   9.464   7.098  1.2509  0.5758  0.5105
44397SOL    HW239155   4.267   9.565   6.989  0.2394  0.5209  0.1586
44398SOL     OW39156   6.298   5.222   0.119 -0.7598  0.1513 -0.0277
44398SOL    HW139157   6.210   5.229   0.156 -0.5855 -0.4096  0.5059
44398SOL    HW239158   6.286   5.243   0.026 -1.1057  2.2201  0.4211
44399SOL     OW39159   9.656   3.338   8.392  0.0799  0.0808  0.2345
44399SOL    HW139160   9.690   3.366   8.307  1.4588 -1.1310  0.3551
44399SOL    HW239161   9.585   3.277   8.371  0.6276 -0.4654 -0.0714
44400SOL     OW39162   0.319   3.584   4.294 -0.6995 -0.2317  0.1473
44400SOL    HW139163   0.306   3.664   4.242  1.8235 -0.0406 -0.3209
44400SOL    HW239164   0.388   3.608   4.357 -0.3957 -1.8248  0.4495
44401SOL     OW39165   2.909   7.947   3.955 -0.2224 -0.1651 -0.2598
44401SOL    HW139166   2.971   7.960   4.027 -0.8875  0.7105  0.1701
44401SOL    HW239167   2.823   7.968   3.993 -0.6747 -0.4568 -1.1005
44402SOL     OW39168  10.753  11.669  12.245  0.5787 -0.3246  0.1315
44402SOL    HW139169  10.664  11.670  12.280  0.8585 -1.0835  0.9034
44402SOL    HW239170  10.802  11.727  12.304  0.7633 -0.5450  0.1975
44403SOL     OW39171   0.323   3.508   6.326 -0.1562  0.0623 -0.0393
44403SOL    HW139172   0.261   3.444   6.360 -1.6527  0.8185 -1.2097
44403SOL    HW239173   0.320   3.580   6.390  0.7216 -0.5410  0.7126
44404SOL     OW39174   7.647  12.422   5.130  0.2512  0.0144 -0.0255
44404SOL    HW139175   7.593  12.410   5.052 -0.6210  1.2854  0.3461
44404SOL    HW239176   7.734  12.446   5.096 -0.3188  1.3374 -0.6273
44405SOL     OW39177  11.872   1.605  10.606  0.4975 -0.2062  0.5183
44405SOL    HW139178  11.898   1.525  10.652  0.1796 -0.1762  0.7534
44405SOL    HW239179  11.954   1.638  10.568  0.3708 -1.5581 -1.0495
44406SOL     OW39180  12.001   7.058   4.162 -0.2688  0.0445  0.1161
44406SOL    HW139181  12.027   7.142   4.199 -0.6606 -1.1257  3.3040
44406SOL    HW239182  11.988   7.001   4.237 -1.3513 -2.5275 -1.8636
44407SOL     OW39183   5.231   6.555   1.504  0.2408  0.6769 -0.0857
44407SOL    HW139184   5.187   6.481   1.546 -0.4855  0.2314 -1.5710
44407SOL    HW239185   5.170   6.628   1.511 -0.4744  0.2514 -1.4916
44408SOL     OW39186   5.819   6.043   3.129  0.3227 -0.5715  0.5487
44408SOL    HW139187   5.825   6.087   3.214 -2.2788 -1.1585  1.1479
44408SOL    HW239188   5.879   6.091   3.072 -1.4761  3.1012  1.4394
44409SOL     OW39189  11.138   5.591  11.642 -0.7223  0.6157 -0.2734
44409SOL    HW139190  11.147   5.552  11.729 -0.3564  1.1938 -0.0415
44409SOL    HW239191  11.189   5.673  11.647 -0.2691  0.4098 -1.1817
44410SOL     OW39192   7.495   7.532   0.810 -0.0968  0.0649  0.3480
44410SOL    HW139193   7.405   7.504   0.827  0.2955 -1.1586  0.4847
44410SOL    HW239194   7.546   7.452   0.811  0.6372  0.3945 -2.3064
44411SOL     OW39195   0.779   3.518   1.588  0.2725  0.0163  0.3180
44411SOL    HW139196   0.846   3.575   1.626  1.9743 -0.7222 -1.3828
44411SOL    HW239197   0.828   3.444   1.552 -1.3951 -0.3235 -1.4338
44412SOL     OW39198   2.975   9.158   2.746  0.5197  0.3528  0.4416
44412SOL    HW139199   2.926   9.111   2.679  2.5019 -1.1852 -0.0202
44412SOL    HW239200   2.910   9.213   2.790 -1.2321 -0.2753 -1.2654
44413SOL     OW39201   6.620   7.469   1.630 -0.1656 -0.4283  0.0950
44413SOL    HW139202   6.539   7.458   1.679  0.4860 -0.0379  1.2837
44413SOL    HW239203   6.687   7.426   1.683  0.5619  0.0207 -0.4355
44414SOL     OW39204  10.170   0.293  11.929 -0.1859  0.6459  0.1629
44414SOL    HW139205  10.078   0.315  11.914 -0.9467 -0.2102  2.9248
44414SOL    HW239206  10.210   0.296  11.842 -2.3257  3.0562 -0.8709
44415SOL     OW39207  11.398   4.935   4.443  0.7893 -0.0264  0.5570
44415SOL    HW139208  11.373   4.911   4.532 -3.4823 -1.5487 -0.8055
44415SOL    HW239209  11.395   5.031   4.443 -1.1621 -0.0284  1.6618
44416SOL     OW39210   7.710   7.550   5.194  0.0610  0.3569 -0.2572
44416SOL    HW139211   7.717   7.464   5.235  0.9543  0.5783  0.0993
44416SOL    HW239212   7.617   7.569   5.192 -0.0551 -0.0211  0.9430
44417SOL     OW39213   0.369   6.623   9.793  0.2202 -0.1752 -0.2501
44417SOL    HW139214   0.411   6.577   9.866  0.7271 -2.2843 -1.7606
44417SOL    HW239215   0.294   6.569   9.771  0.3830  0.1202 -1.6234
44418SOL     OW39216  10.200   3.599   0.730 -0.0524 -0.3561 -0.1244
44418SOL    HW139217  10.128   3.616   0.669  1.2988 -0.5835 -1.8591
44418SOL    HW239218  10.250   3.680   0.732 -0.5662 -0.0468  1.4298
44419SOL     OW39219   2.969   9.362   5.208  0.2276 -0.0004  0.2516
44419SOL    HW139220   3.008   9.283   5.170 -0.5514 -0.4359  0.3456
44419SOL    HW239221   2.911   9.395   5.140  1.1750  0.9693 -0.1066
44420SOL     OW39222   6.090   3.548   4.721  0.3474  0.6366 -0.7620
44420SOL    HW139223   6.115   3.493   4.796  2.2746  0.1836 -1.6550
44420SOL    HW239224   6.018   3.501   4.679 -0.8538  0.9685  0.8437
44421SOL     OW39225   4.377   8.748   9.144 -0.1876 -0.0086  0.8121
44421SOL    HW139226   4.379   8.678   9.078 -0.6065 -0.2586  1.0585
44421SOL    HW239227   4.420   8.710   9.221 -0.9562 -0.2138  1.1504
44422SOL     OW39228   1.817   8.514   6.766  0.0058  0.7607 -0.4987
44422SOL    HW139229   1.837   8.607   6.757  4.1472  0.3047  1.4363
44422SOL    HW239230   1.765   8.507   6.846  0.8555  1.3766  0.1278
44423SOL     OW39231   3.921   5.668  12.089  0.2235 -0.2723 -0.4915
44423SOL    HW139232   4.002   5.717  12.073  1.7020 -2.1708  0.7446
44423SOL    HW239233   3.887   5.704  12.171  2.4373 -2.5016  1.5793
44424SOL     OW39234   9.078   7.290   7.498  0.0633  0.0318 -0.6869
44424SOL    HW139235   9.116   7.205   7.477 -1.6776 -1.0845  0.5573
44424SOL    HW239236   9.000   7.297   7.443 -0.7873  0.0284  0.4876
44425SOL     OW39237   9.746   5.809   9.501 -0.4746  0.7567 -0.5095
44425SOL    HW139238   9.772   5.813   9.593 -1.3313  0.0206 -0.2207
44425SOL    HW239239   9.808   5.748   9.461 -1.0206 -0.1176 -0.0684
44426SOL     OW39240   2.342   2.827   1.292  0.1217  0.2782 -0.0671
44426SOL    HW139241   2.298   2.745   1.308 -1.4214  0.7801 -1.4381
44426SOL    HW239242   2.309   2.887   1.359  2.0339 -0.4228  1.5931
44427SOL     OW39243   6.934   3.499   8.704 -0.5192 -0.3783  0.2161
44427SOL    HW139244   6.940   3.498   8.608 -0.3935 -0.7900  0.2240
44427SOL    HW239245   6.846   3.532   8.722 -0.9974 -1.4179 -0.0754
44428SOL     OW39246   5.343  10.483  11.520 -0.2836  0.0158  0.1459
44428SOL    HW139247   5.288  10.560  11.534  0.8269  0.4849  2.3352
44428SOL    HW239248   5.427  10.507  11.557  0.1127 -2.2461  0.8343
44429SOL     OW39249  11.321  11.389   4.475  0.1288  0.4487 -0.0609
44429SOL    HW139250  11.320  11.484   4.466 -0.4042  0.4692  0.1325
44429SOL    HW239251  11.298  11.374   4.567  0.0018  0.1323 -0.1430
44430SOL     OW39252   1.833   5.077   1.264 -0.4931 -0.3583 -0.0142
44430SOL    HW139253   1.746   5.068   1.226 -0.4197  0.9108 -0.5677
44430SOL    HW239254   1.873   5.149   1.214  1.0033 -1.1612 -0.0213
44431SOL     OW39255   9.441   6.208   9.539 -0.3034  0.0412 -0.2129
44431SOL    HW139256   9.506   6.142   9.514 -1.3205 -1.1648  0.2267
44431SOL    HW239257   9.469   6.238   9.626 -1.0096 -1.4302  0.5580
44432SOL     OW39258   1.363   3.193   2.515 -0.4812 -0.3258  0.0401
44432SOL    HW139259   1.306   3.184   2.439 -1.4258 -0.6710  0.7615
44432SOL    HW239260   1.452   3.178   2.481 -0.4541  2.7763 -1.6070
44433SOL     OW39261   6.322   4.994   5.341  0.4001 -0.0538 -0.4218
44433SOL    HW139262   6.262   4.930   5.302  0.8914 -0.5703 -0.3467
44433SOL    HW239263   6.384   4.940   5.391 -0.0583  0.5662  0.8618
44434SOL     OW39264  10.939   8.764  11.130  0.5660  0.3874  0.2646
44434SOL    HW139265  10.886   8.704  11.077  2.5146 -2.2716  1.0615
44434SOL    HW239266  10.921   8.737  11.220  1.1876  1.3133  0.6715
44435SOL     OW39267   0.258   6.043   7.565 -0.7337 -0.3687  0.1986
44435SOL    HW139268   0.197   5.977   7.533 -1.8302  0.0457  1.3886
44435SOL    HW239269   0.341   5.996   7.573 -1.1855 -1.2653 -0.2015
44436SOL     OW39270  12.136  10.785   3.776  0.8097 -0.0241 -0.4799
44436SOL    HW139271  12.109  10.862   3.726  0.9908 -0.2063 -0.8662
44436SOL    HW239272  12.166  10.820   3.860  1.9252  0.4394 -1.0491
44437SOL     OW39273   4.821   1.885   1.786  0.4224  0.4563  0.1905
44437SOL    HW139274   4.812   1.948   1.714  1.4653  0.5138  0.1042
44437SOL    HW239275   4.913   1.858   1.783 -0.1669 -1.7340 -0.3484
44438SOL     OW39276   3.742   8.648  10.188 -0.2493  0.0014 -0.5204
44438SOL    HW139277   3.648   8.668  10.188 -0.2187  0.1639 -0.0812
44438SOL    HW239278   3.772   8.671  10.100 -0.2542  1.7215 -0.0956
44439SOL     OW39279   4.570   4.704  10.528  0.3937 -0.2748 -0.2275
44439SOL    HW139280   4.506   4.723  10.596 -0.9516  1.4431 -1.8658
44439SOL    HW239281   4.653   4.737  10.562  0.0344 -0.6609  1.0825
44440SOL     OW39282   9.395   7.783   2.318 -0.1039 -0.3640  0.2872
44440SOL    HW139283   9.464   7.718   2.303 -0.1135  0.3506 -4.7762
44440SOL    HW239284   9.436   7.850   2.372  1.4907 -2.2498  1.5357
44441SOL     OW39285   8.657   0.509   5.726  0.2448  0.2897 -0.1316
44441SOL    HW139286   8.661   0.473   5.638 -0.4951 -0.2441  0.0446
44441SOL    HW239287   8.677   0.435   5.784  2.1468  0.9495  0.1150
44442SOL     OW39288  12.387  12.343   2.018 -0.1677 -0.0405 -0.1120
44442SOL    HW139289  12.367  12.270   1.960  0.1362  0.5463 -0.9734
44442SOL    HW239290  12.320  12.408   1.999  0.4370  0.4994 -0.4456
44443SOL     OW39291  11.850   0.122   5.222 -0.1030 -0.4534 -0.6280
44443SOL    HW139292  11.869   0.093   5.311 -0.2835  0.0011 -0.4390
44443SOL    HW239293  11.866   0.045   5.167  0.4697 -0.6031 -0.2595
44444SOL     OW39294   3.036  10.195   6.681 -0.5893 -0.0160 -0.6289
44444SOL    HW139295   3.096  10.192   6.607  1.0424  0.7346  0.5918
44444SOL    HW239296   3.089  10.228   6.753 -2.1198 -0.7247  0.8892
44445SOL     OW39297   9.373   5.707   5.604 -0.7093 -0.3716 -0.5271
44445SOL    HW139298   9.336   5.633   5.653  1.2649 -1.3672 -0.4699
44445SOL    HW239299   9.335   5.698   5.517 -1.6373 -0.5724 -0.1176
44446SOL     OW39300   7.975   0.848   1.862  0.1609  0.0814  0.0470
44446SOL    HW139301   7.909   0.782   1.882 -0.9805  1.1612 -0.0537
44446SOL    HW239302   8.054   0.798   1.843 -0.1833 -1.1899  1.7176
44447SOL     OW39303  10.763   2.543   4.599  0.5535  0.4514 -0.2430
44447SOL    HW139304  10.686   2.520   4.547 -0.3188  1.2917  0.6325
44447SOL    HW239305  10.779   2.466   4.653  0.1435  0.3796 -0.2217
44448SOL     OW39306   2.165   0.882   5.743 -0.1684  0.1204  0.4826
44448SOL    HW139307   2.210   0.815   5.795 -0.7240 -1.3777 -0.8950
44448SOL    HW239308   2.168   0.960   5.798 -0.6797 -1.3635  2.7614
44449SOL     OW39309   9.381   3.796  10.106 -0.7190 -0.2003  0.4556
44449SOL    HW139310   9.442   3.724  10.119 -1.7412 -1.1268  0.2790
44449SOL    HW239311   9.367   3.799  10.011  1.0530  1.7383  0.1983
44450SOL     OW39312   8.597  11.764  11.818  0.5827 -0.5409  0.4472
44450SOL    HW139313   8.603  11.700  11.890 -2.3029 -2.1621 -0.5915
44450SOL    HW239314   8.681  11.755  11.772  1.0806 -2.0483  1.5461
44451SOL     OW39315   1.160   1.192   4.941 -0.5589  0.3336  0.1174
44451SOL    HW139316   1.068   1.196   4.968 -0.6744 -0.2044 -0.1729
44451SOL    HW239317   1.202   1.136   5.007 -0.8189 -0.8904 -0.7030
44452SOL     OW39318   6.403   1.491  11.568 -0.4735  0.0046 -0.0154
44452SOL    HW139319   6.363   1.532  11.645  0.2673  1.3685 -0.3219
44452SOL    HW239320   6.410   1.398  11.592  1.2362  0.6183  2.2785
44453SOL     OW39321   7.378   0.067   0.840  0.7632  0.3731  0.3549
44453SOL    HW139322   7.438   0.102   0.906  0.1598 -1.6789  2.1388
44453SOL    HW239323   7.435   0.044   0.766  1.8787  0.4320  1.1602
44454SOL     OW39324   2.524  11.191   8.885 -0.0856  0.6432  0.2202
44454SOL    HW139325   2.526  11.097   8.864  2.2894  0.6090  0.3936
44454SOL    HW239326   2.552  11.234   8.805 -0.8023  1.2096  0.2618
44455SOL     OW39327   0.065  11.494   8.652  0.5759  0.1372 -0.2261
44455SOL    HW139328   0.026  11.516   8.737 -0.2264 -1.2959 -0.1860
44455SOL    HW239329   0.009  11.536   8.588  0.7468  0.6029 -0.0720
44456SOL     OW39330   4.149   2.749   4.376  0.1573 -0.5427 -0.4703
44456SOL    HW139331   4.122   2.825   4.428 -0.5947 -0.5396 -0.8498
44456SOL    HW239332   4.244   2.745   4.388  0.2543  0.6546 -0.7085
44457SOL     OW39333   8.479   0.816  10.176 -0.1898 -0.4480 -0.1429
44457SOL    HW139334   8.557   0.761  10.170  0.6802  0.7215  0.1023
44457SOL    HW239335   8.505   0.898  10.135 -0.8335  0.4470  1.1869
44458SOL     OW39336  10.548   9.231   2.713 -0.5274 -0.2166 -0.3339
44458SOL    HW139337  10.598   9.235   2.632 -1.9061 -0.0132 -1.2176
44458SOL    HW239338  10.590   9.163   2.765  2.2314  1.6311  0.1015
44459SOL     OW39339  12.434   0.433   0.612  0.0914 -0.1015 -0.0679
44459SOL    HW139340  12.352   0.425   0.564  0.0170 -0.5064  0.1213
44459SOL    HW239341  12.475   0.347   0.604 -0.5085 -0.5967  1.6384
44460SOL     OW39342   8.093  10.826   5.538  0.6359  0.1818  0.9151
44460SOL    HW139343   8.067  10.913   5.509 -0.4722 -0.2963  0.4431
44460SOL    HW239344   8.032  10.805   5.609 -0.4453 -1.0277 -0.3315
44461SOL     OW39345   0.880   3.438   5.477 -0.4488 -0.1795 -0.0413
44461SOL    HW139346   0.962   3.408   5.437  0.2408 -1.6557  2.2861
44461SOL    HW239347   0.820   3.364   5.469 -0.9132  0.1848  0.0212
44462SOL     OW39348   4.521   6.827   0.202 -0.4540 -0.2909  0.5869
44462SOL    HW139349   4.459   6.790   0.265 -0.8496 -0.4669  0.1021
44462SOL    HW239350   4.603   6.836   0.251 -1.3327  1.7215  1.8230
44463SOL     OW39351  10.891   0.174   3.270  0.7960 -0.6439  0.3706
44463SOL    HW139352  10.844   0.255   3.293  0.2196 -1.4635  2.3462
44463SOL    HW239353  10.920   0.188   3.180  0.5926  1.7028  0.5932
44464SOL     OW39354   7.906  11.148   1.440  0.0337 -0.5612  0.5110
44464SOL    HW139355   7.884  11.240   1.427  1.4697 -0.3301 -0.6513
44464SOL    HW239356   7.875  11.127   1.528 -0.4386  0.9861  0.7333
44465SOL     OW39357   1.201   1.083   9.344 -0.4872 -0.0169  0.2454
44465SOL    HW139358   1.161   1.019   9.285  0.4364 -0.7695  0.4214
44465SOL    HW239359   1.272   1.036   9.386  0.3032  1.1728  0.2760
44466SOL     OW39360   5.391   5.838   6.946 -0.7284 -0.6162  0.3819
44466SOL    HW139361   5.366   5.930   6.937  0.5611 -0.3256 -0.5084
44466SOL    HW239362   5.487   5.839   6.951 -0.6207 -1.9619 -0.6566
44467SOL     OW39363   8.663   2.646  10.497  0.2210 -0.4147  0.4698
44467SOL    HW139364   8.729   2.644  10.428  0.5930  0.7147  0.7796
44467SOL    HW239365   8.714   2.640  10.579 -0.0731  0.2263  0.7017
44468SOL     OW39366   7.167   2.701   6.980  0.2270 -0.6794  0.5565
44468SOL    HW139367   7.171   2.761   7.054 -0.0411 -0.2994  0.2698
44468SOL    HW239368   7.211   2.622   7.011  0.4611 -0.3883  0.9873
44469SOL     OW39369   5.730  12.209   3.764  0.1222  0.5352  0.2390
44469SOL    HW139370   5.803  12.164   3.808  0.1731 -0.5774 -0.9115
44469SOL    HW239371   5.733  12.298   3.798  0.8075  0.0098  1.6786
44470SOL     OW39372   5.613   3.111  10.677 -0.5117  0.1444  0.2412
44470SOL    HW139373   5.639   3.135  10.588  3.1675  0.0676  1.1522
44470SOL    HW239374   5.527   3.152  10.688 -0.6210  1.0585 -2.9437
44471SOL     OW39375  11.730   5.586  12.159 -0.0047  0.3232 -0.6969
44471SOL    HW139376  11.643   5.566  12.195  1.0264 -0.0136  1.8030
44471SOL    HW239377  11.762   5.659  12.212  1.0637  0.7940 -1.9302
44472SOL     OW39378   2.723   2.656   7.461  0.4904 -0.0802  0.0534
44472SOL    HW139379   2.655   2.724   7.464  0.5964  0.1036 -1.1726
44472SOL    HW239380   2.805   2.703   7.479  0.5310  0.0726 -0.5182
44473SOL     OW39381   4.043   2.453   7.957  0.5162  0.1989 -0.6538
44473SOL    HW139382   4.075   2.407   7.878 -1.4829 -0.5776 -1.0845
44473SOL    HW239383   4.003   2.383   8.010  1.6070  0.7575  0.9524
44474SOL     OW39384   9.551   8.851  11.309  0.7990 -0.2440  0.3209
44474SOL    HW139385   9.575   8.760  11.327  0.9549 -0.1207  0.7365
44474SOL    HW239386   9.634   8.895  11.293  0.8610  0.1483  1.5999
44475SOL     OW39387   0.949   8.555   9.231  0.8925 -0.6197 -0.2081
44475SOL    HW139388   0.863   8.526   9.201  0.5497 -1.4210  1.4760
44475SOL    HW239389   0.942   8.560   9.326  1.7437  2.4591 -0.1716
44476SOL     OW39390   4.831   3.445   7.009  0.1011  0.4453 -0.4704
44476SOL    HW139391   4.761   3.501   7.039 -2.7803 -2.0735 -1.9245
44476SOL    HW239392   4.904   3.463   7.068 -1.9285  2.7396  1.5404
44477SOL     OW39393   6.261   6.222   1.973 -0.7841 -0.3684 -0.0547
44477SOL    HW139394   6.321   6.166   1.924 -1.5653 -0.1070 -1.3563
44477SOL    HW239395   6.269   6.308   1.931 -1.4302 -0.1227  0.3076
44478SOL     OW39396   3.502   6.407   3.644  0.1880 -0.5639 -0.3932
44478SOL    HW139397   3.486   6.313   3.639 -0.1310 -0.6313  1.3595
44478SOL    HW239398   3.438   6.439   3.707 -1.0272  1.1791 -2.3444
44479SOL     OW39399   0.120  10.521   7.728  0.0533  0.2647 -0.3251
44479SOL    HW139400   0.034  10.529   7.770  0.3117  1.8069 -0.0405
44479SOL    HW239401   0.179  10.497   7.800 -0.1542 -1.0410 -0.5652
44480SOL     OW39402   0.646   5.945   8.504  0.4271 -0.0576  0.0297
44480SOL    HW139403   0.649   5.994   8.586  1.4797 -0.4725  0.2600
44480SOL    HW239404   0.688   5.861   8.525  0.7840 -0.1365 -0.9472
44481SOL     OW39405  11.904   1.408   4.248 -0.5271 -0.4346  0.1971
44481SOL    HW139406  11.915   1.442   4.337 -0.0619 -0.4019  0.1285
44481SOL    HW239407  11.988   1.366   4.228 -0.3556  0.2485 -0.5228
44482SOL     OW39408   3.902  10.602   6.345 -0.1516  0.1576 -0.4784
44482SOL    HW139409   3.924  10.683   6.299  1.7618  1.3712  2.2472
44482SOL    HW239410   3.986  10.559   6.358 -1.0566 -1.8874 -1.1345
44483SOL     OW39411  10.305   0.662   1.233 -0.7048  0.2199  0.3137
44483SOL    HW139412  10.267   0.632   1.316 -0.3789  0.2493  0.4766
44483SOL    HW239413  10.292   0.757   1.234 -0.1312  0.3012  0.6303
44484SOL     OW39414   8.586   6.940  12.031 -0.2013  0.7441  0.3079
44484SOL    HW139415   8.674   6.967  12.056 -0.6094  1.2496  1.2414
44484SOL    HW239416   8.585   6.845  12.044  0.7610  0.4403 -1.4994
44485SOL     OW39417   4.222   5.341   1.488  0.3619 -0.5384  0.7235
44485SOL    HW139418   4.253   5.265   1.438  0.5818 -0.8350  1.3026
44485SOL    HW239419   4.290   5.407   1.476  0.8654 -0.9235  1.3612
44486SOL     OW39420   7.095   2.806   9.948  0.3455 -0.4337  0.4260
44486SOL    HW139421   7.119   2.848   9.865  0.0843 -1.6086 -0.2746
44486SOL    HW239422   7.073   2.716   9.923 -5.4157  0.5152  0.7458
44487SOL     OW39423   6.335   4.182   3.060  0.7139 -0.0858 -0.3246
44487SOL    HW139424   6.415   4.130   3.072  0.1091 -1.4320 -1.8475
44487SOL    HW239425   6.331   4.200   2.966 -0.4688  0.4584 -0.1930
44488SOL     OW39426   9.842   0.384  10.102 -0.2058 -0.3645  0.1054
44488SOL    HW139427   9.842   0.313  10.038 -1.6150  1.4740 -2.0580
44488SOL    HW239428   9.929   0.422  10.097 -0.2992 -0.2536 -0.6914
44489SOL     OW39429  11.298   7.483   5.959 -0.5452  0.5253  0.3525
44489SOL    HW139430  11.229   7.430   5.920  0.5594 -2.4948  2.1575
44489SOL    HW239431  11.252   7.553   6.005 -2.1267  0.7727 -1.4812
44490SOL     OW39432  11.723  11.653  11.514  0.7577  0.1675 -0.1821
44490SOL    HW139433  11.684  11.640  11.428  0.1792  0.4819  0.0254
44490SOL    HW239434  11.817  11.654  11.498  0.7078 -0.8947 -0.6565
44491SOL     OW39435   3.873   0.295   9.461  0.3216  0.1707  0.6114
44491SOL    HW139436   3.830   0.227   9.513 -2.2062  0.2962 -1.0838
44491SOL    HW239437   3.900   0.250   9.381  0.8191  0.6782  0.4918
44492SOL     OW39438   1.584   6.942   6.272  0.1969  0.3020 -0.4110
44492SOL    HW139439   1.627   7.009   6.218  1.0728 -0.5168 -0.7581
44492SOL    HW239440   1.573   6.867   6.213 -1.0831  0.2452 -0.1258
44493SOL     OW39441   0.725   2.277   7.845  0.2769  0.4032  0.4792
44493SOL    HW139442   0.685   2.191   7.844  0.7967  0.1553  0.6093
44493SOL    HW239443   0.728   2.304   7.753 -0.8312  0.7373  0.5265
44494SOL     OW39444   2.043   6.019  10.132  0.1375  0.4552 -0.6415
44494SOL    HW139445   2.078   5.944  10.084  0.0184 -1.1131  1.6166
44494SOL    HW239446   2.095   6.024  10.212 -0.3892  2.3114 -0.3528
44495SOL     OW39447   9.618   1.645   8.947  0.6105  0.0449  0.2415
44495SOL    HW139448   9.531   1.605   8.952  0.1738  1.0950  1.7964
44495SOL    HW239449   9.612   1.709   8.877  0.1066  0.1370  0.3649
44496SOL     OW39450   4.764   1.377   8.193 -0.5007  0.7198  0.6884
44496SOL    HW139451   4.695   1.390   8.258 -0.9310  0.5919  0.2586
44496SOL    HW239452   4.844   1.373   8.245 -1.1617 -3.5136  1.7193
44497SOL     OW39453   4.343  10.148   0.978 -0.4050 -0.5844  0.2328
44497SOL    HW139454   4.317  10.240   0.971 -0.8563 -0.6623  0.8338
44497SOL    HW239455   4.280  10.101   0.925 -1.3214 -0.7377  1.4196
44498SOL     OW39456   9.541   4.396   5.052 -0.0602 -0.1324 -0.0012
44498SOL    HW139457   9.526   4.324   5.112  1.5618 -1.1189 -0.6820
44498SOL    HW239458   9.592   4.460   5.102  0.6400 -0.6142 -0.0777
44499SOL     OW39459   1.857   6.542   7.087 -0.4290 -0.2091 -0.0327
44499SOL    HW139460   1.890   6.473   7.145  0.7874  0.3818  0.0106
44499SOL    HW239461   1.873   6.623   7.135 -1.1897  0.1540 -0.3846
44500SOL     OW39462   7.351   4.273   2.383  0.3641 -0.0984  0.1756
44500SOL    HW139463   7.408   4.205   2.349  0.9147  1.1779 -1.6003
44500SOL    HW239464   7.382   4.287   2.473  2.0054 -0.3481 -0.3121
44501SOL     OW39465   2.517   9.602  12.006 -0.2460 -0.9387 -0.0096
44501SOL    HW139466   2.609   9.606  12.031 -0.2224 -1.2201 -0.0405
44501SOL    HW239467   2.471   9.653  12.073 -0.0776 -0.8788  0.0593
44502SOL     OW39468   8.819   5.980   6.891 -0.3644 -0.3088 -0.4034
44502SOL    HW139469   8.839   6.054   6.833  0.5749  0.7333  1.1825
44502SOL    HW239470   8.858   6.004   6.975 -1.9271 -1.6389  0.7645
44503SOL     OW39471   5.671  12.215  10.360  0.1083  0.4309  0.5921
44503SOL    HW139472   5.591  12.267  10.367 -2.0872 -2.6202  0.3332
44503SOL    HW239473   5.668  12.156  10.436  0.9049 -1.2397 -0.6040
44504SOL     OW39474   7.984   5.771   7.684  0.0795 -0.0539 -0.2108
44504SOL    HW139475   7.995   5.784   7.590  0.4293 -0.2851 -0.2035
44504SOL    HW239476   8.041   5.837   7.724 -1.4537  1.2754 -0.1379
44505SOL     OW39477   3.714  12.364   9.870 -0.0212 -0.0839  0.0568
44505SOL    HW139478   3.780  12.296   9.882  1.0254  0.8460 -0.2983
44505SOL    HW239479   3.631  12.317   9.874  0.6555 -1.3010  0.3702
44506SOL     OW39480   5.562   2.212   2.010 -0.0054  0.3385  0.5332
44506SOL    HW139481   5.643   2.235   2.056  0.7323 -2.6614  0.8953
44506SOL    HW239482   5.499   2.194   2.079 -0.0633 -0.3488  0.3035
44507SOL     OW39483   0.446   0.080   4.616  0.8073 -0.4964  0.6950
44507SOL    HW139484   0.453   0.142   4.689 -4.7323  1.2408  0.2192
44507SOL    HW239485   0.397   0.006   4.653 -1.0721 -0.1029 -0.8508
44508SOL     OW39486  12.178   0.576  12.383 -0.0283  0.6445  0.3431
44508SOL    HW139487  12.120   0.552  12.311 -1.4587 -0.1927  1.7175
44508SOL    HW239488  12.157   0.667  12.401  0.0024  0.7192  0.0189
44509SOL     OW39489   0.497  10.668   9.769  0.0313  0.2707  0.2144
44509SOL    HW139490   0.486  10.596   9.831  0.0127  0.4735  0.4446
44509SOL    HW239491   0.475  10.747   9.818 -2.3860  0.2428 -0.7269
44510SOL     OW39492  10.416  10.317   0.937 -0.1773 -0.2224  1.2164
44510SOL    HW139493  10.410  10.309   0.842  0.2146 -0.2439  1.1914
44510SOL    HW239494  10.467  10.240   0.964  0.9342  0.5217  1.2995
44511SOL     OW39495   9.529   4.141   1.715  0.3055 -0.5889 -0.2752
44511SOL    HW139496   9.601   4.091   1.676 -0.0798 -1.3655 -0.0098
44511SOL    HW239497   9.547   4.139   1.809  2.4649  3.1514 -0.3833
44512SOL     OW39498   7.555   4.196   3.849 -0.5458 -0.3092  0.4276
44512SOL    HW139499   7.641   4.184   3.889  0.6026 -2.9869 -2.3348
44512SOL    HW239500   7.513   4.110   3.857 -1.3365 -0.1699 -1.5891
44513SOL     OW39501   4.029   1.061  11.202  0.1898  0.0366 -0.3928
44513SOL    HW139502   4.031   1.072  11.297  2.2896 -0.2540 -0.3490
44513SOL    HW239503   3.940   1.084  11.177 -0.2269  0.7518  1.5654
44514SOL     OW39504  12.488   8.925   4.756 -0.4962  1.0707 -0.0401
44514SOL    HW139505  12.531   8.910   4.672  0.5753 -0.8714  0.7800
44514SOL    HW239506  12.559   8.952   4.814  0.1839 -3.5149  1.7008
44515SOL     OW39507   4.656   8.722   2.272  0.1989 -0.3452  0.3169
44515SOL    HW139508   4.726   8.723   2.337 -0.8380 -0.0048  1.4659
44515SOL    HW239509   4.692   8.769   2.197  0.5921  1.4364  1.5648
44516SOL     OW39510   2.973   8.413  10.752  0.2839 -0.6549  0.5172
44516SOL    HW139511   2.891   8.463  10.754  0.7089  0.1697 -0.9935
44516SOL    HW239512   2.946   8.322  10.764 -0.8132 -0.3551  0.4501
44517SOL     OW39513   5.821  10.877   1.082 -0.4188 -0.0453  0.4316
44517SOL    HW139514   5.854  10.900   0.995 -1.3562  0.3883  0.1732
44517SOL    HW239515   5.850  10.949   1.139 -0.9725  0.3774  0.1899
44518SOL     OW39516   2.841   0.380   0.449 -0.0311 -0.2709  0.1929
44518SOL    HW139517   2.934   0.378   0.473  0.0059 -1.6697  0.0009
44518SOL    HW239518   2.839   0.420   0.363  0.3494  0.1253  0.3634
44519SOL     OW39519   0.293   4.443   5.917 -0.0493  0.2932 -0.2426
44519SOL    HW139520   0.280   4.378   5.847  1.2898  1.6920 -1.8862
44519SOL    HW239521   0.355   4.506   5.880 -0.6012  2.0303  1.6203
44520SOL     OW39522   2.446   4.260   6.715  0.1927  0.1655 -0.3600
44520SOL    HW139523   2.521   4.218   6.757 -1.0696 -1.9203 -0.0739
44520SOL    HW239524   2.408   4.315   6.783  0.4556 -0.1369  0.0356
44521SOL     OW39525   6.691  11.382   7.393 -0.0857 -0.0894  0.0924
44521SOL    HW139526   6.596  11.391   7.403 -0.0344 -0.4819  1.1740
44521SOL    HW239527   6.726  11.470   7.404 -0.2495 -0.1246  1.0179
44522SOL     OW39528   2.929   1.541   9.806 -0.2127  0.1397 -0.6319
44522SOL    HW139529   3.017   1.565   9.775 -0.2977 -0.6893 -1.5558
44522SOL    HW239530   2.871   1.561   9.733 -0.5398 -1.0215 -0.7135
44523SOL     OW39531   7.205   9.286   5.335  0.4283 -0.0536  0.0278
44523SOL    HW139532   7.114   9.255   5.337  0.1746  0.6292 -0.5604
44523SOL    HW239533   7.228   9.286   5.242  0.0819  2.4390 -0.1227
44524SOL     OW39534   5.329   4.101   2.249 -0.4455  0.3173 -0.4196
44524SOL    HW139535   5.381   4.181   2.245 -0.9762  0.6332 -1.9631
44524SOL    HW239536   5.380   4.042   2.304  1.1707  0.8790 -1.2307
44525SOL     OW39537   3.774   5.198   2.309  0.0421  0.1696  0.7123
44525SOL    HW139538   3.829   5.183   2.385 -0.3273 -1.4544  0.6872
44525SOL    HW239539   3.821   5.264   2.258  2.7693 -2.1826 -0.0514
44526SOL     OW39540   2.811   8.577   6.801 -0.5314 -0.0659 -0.0263
44526SOL    HW139541   2.839   8.537   6.719 -0.6209  1.0361 -0.6223
44526SOL    HW239542   2.716   8.589   6.792 -0.6633 -0.6162  0.5505
44527SOL     OW39543  11.678   5.343   1.998  0.4631 -0.6425 -0.0415
44527SOL    HW139544  11.669   5.413   1.935  1.0814 -0.2659  0.2787
44527SOL    HW239545  11.725   5.382   2.072  1.2660 -1.5125 -0.0707
44528SOL     OW39546   6.959   2.336   4.213  0.0531  0.3678 -0.5129
44528SOL    HW139547   6.951   2.381   4.128  0.0213  2.2042  0.4009
44528SOL    HW239548   6.869   2.309   4.234 -0.2961  1.6746 -0.1977
44529SOL     OW39549   0.736   8.225   0.889  0.0140 -0.3910  0.1016
44529SOL    HW139550   0.706   8.245   0.800 -0.7912 -1.0198  0.2313
44529SOL    HW239551   0.825   8.192   0.877 -0.3655 -1.2115 -0.5570
44530SOL     OW39552   5.456   0.887   1.215 -0.1228  0.2874 -0.1243
44530SOL    HW139553   5.366   0.921   1.218 -0.4507 -0.6199  1.1779
44530SOL    HW239554   5.473   0.856   1.304  0.4755 -2.0808 -0.9826
44531SOL     OW39555   9.401  12.475   2.732  0.6134 -0.1502 -0.1395
44531SOL    HW139556   9.484  12.458   2.776  0.1888  1.5927  1.4950
44531SOL    HW239557   9.357  12.539   2.788 -1.0269  0.4002 -1.9345
44532SOL     OW39558   7.594  12.161   5.833 -0.2707 -0.0002  0.4911
44532SOL    HW139559   7.647  12.240   5.826  0.6115 -0.5873  0.3860
44532SOL    HW239560   7.521  12.176   5.772  0.5970  0.1930 -0.5411
44533SOL     OW39561   9.545   7.006   3.589  0.2763 -0.3276  0.1488
44533SOL    HW139562   9.622   7.026   3.537 -0.7173 -1.5514 -1.8915
44533SOL    HW239563   9.530   6.913   3.576 -1.4775 -0.1500  0.5784
44534SOL     OW39564   3.367   2.045   3.634 -0.3995  0.5803  0.2264
44534SOL    HW139565   3.376   2.119   3.572 -0.9287  1.1646  0.8356
44534SOL    HW239566   3.303   1.987   3.592 -0.7894  0.9942  0.2320
44535SOL     OW39567   9.970   3.891  10.223 -0.1641 -0.1720  0.2349
44535SOL    HW139568   9.992   3.803  10.256 -0.1457  0.4395  1.9689
44535SOL    HW239569   9.923   3.875  10.142 -0.7547 -1.8329  0.8503
44536SOL     OW39570   9.907   7.648   4.437 -0.1780  0.6498  0.8808
44536SOL    HW139571   9.944   7.664   4.524  0.7105 -1.5185  0.9507
44536SOL    HW239572   9.982   7.636   4.380 -0.6659 -1.7088  0.6058
44537SOL     OW39573  12.298   4.899   3.089 -0.2251 -0.1379 -0.1021
44537SOL    HW139574  12.211   4.932   3.110  0.1381  1.7741 -1.3843
44537SOL    HW239575  12.347   4.976   3.061  1.7158 -1.2645 -0.0026
44538SOL     OW39576   7.786   0.666   4.139  1.2596 -0.4298  0.3571
44538SOL    HW139577   7.828   0.613   4.207  2.6648 -0.8474 -0.7939
44538SOL    HW239578   7.700   0.625   4.126  1.1929 -0.6836  1.4569
44539SOL     OW39579   8.762   8.942   0.910  0.1822 -0.2904 -0.0114
44539SOL    HW139580   8.795   8.877   0.847 -0.0456  1.1705 -1.7391
44539SOL    HW239581   8.785   9.026   0.871 -1.0365  0.6990  1.3055
44540SOL     OW39582   5.938  11.265   6.621  0.3825 -0.1548 -0.3824
44540SOL    HW139583   5.859  11.223   6.654  0.2537 -0.6055 -1.2438
44540SOL    HW239584   5.977  11.201   6.561  0.7403  0.5402 -0.9071
44541SOL     OW39585   8.260   9.411   1.186 -0.1984  0.4981  0.2091
44541SOL    HW139586   8.197   9.406   1.258  0.7744 -1.4976  1.0123
44541SOL    HW239587   8.346   9.408   1.228  0.4173  0.7075 -0.9673
44542SOL     OW39588  11.269   8.153   8.059 -0.3355  0.0143 -0.0948
44542SOL    HW139589  11.224   8.122   8.138  2.5216 -1.8125  0.9744
44542SOL    HW239590  11.206   8.139   7.989 -1.3765 -2.7853  1.2249
44543SOL     OW39591   8.228   7.791  10.280 -0.4459 -0.7226 -0.2567
44543SOL    HW139592   8.314   7.801  10.321 -0.2870 -0.2894 -0.6830
44543SOL    HW239593   8.245   7.740  10.201 -0.5359 -0.4184 -0.4747
44544SOL     OW39594   2.646   5.929   2.992  0.2499  0.1318 -0.0216
44544SOL    HW139595   2.647   5.847   2.941  1.3705  0.8626 -1.2342
44544SOL    HW239596   2.616   5.902   3.079 -0.1703 -1.4339 -0.6034
44545SOL     OW39597   0.708   8.024  12.405  0.3971 -0.0036  0.0662
44545SOL    HW139598   0.634   8.036  12.345  0.1870  0.5085  0.4246
44545SOL    HW239599   0.687   8.079  12.480  1.7732  1.2044 -0.3992
44546SOL     OW39600  11.003   6.682   5.720 -0.4531  0.4386 -0.2228
44546SOL    HW139601  11.098   6.682   5.720 -0.4467  0.5693  0.7057
44546SOL    HW239602  10.979   6.661   5.630  0.4485  1.2646 -0.6740
44547SOL     OW39603   5.838  10.549   2.981 -0.4082  0.3699 -0.0346
44547SOL    HW139604   5.923  10.507   2.989  0.6826  2.5268  0.5451
44547SOL    HW239605   5.782  10.484   2.938  1.5488 -1.0525 -0.5429
44548SOL     OW39606   0.913   7.333   2.987  0.1641 -0.2345 -0.2389
44548SOL    HW139607   0.848   7.267   2.967  0.1286  0.1016 -1.3246
44548SOL    HW239608   0.983   7.318   2.924  0.2429  0.6249 -0.3798
44549SOL     OW39609  10.510   9.780   0.198  0.1740  0.3511  0.5418
44549SOL    HW139610  10.493   9.875   0.202  1.5917  0.6094  1.0567
44549SOL    HW239611  10.592   9.769   0.246 -0.6993 -1.3453  1.7607
44550SOL     OW39612  11.752  10.608   9.562  0.1106  0.0526 -0.4063
44550SOL    HW139613  11.812  10.623   9.635 -1.6533 -0.2682  1.1892
44550SOL    HW239614  11.758  10.514   9.544  1.1444  0.2602 -1.2749
44551SOL     OW39615   0.138   4.069  11.424 -0.4522  0.3928 -0.1783
44551SOL    HW139616   0.137   4.067  11.519 -2.6297 -1.7348 -0.1504
44551SOL    HW239617   0.219   4.024  11.400  0.3298  1.3341  0.6242
44552SOL     OW39618  12.221   5.649   7.594 -0.2258 -0.1464  0.1589
44552SOL    HW139619  12.272   5.680   7.669 -0.0643  1.2406 -0.4929
44552SOL    HW239620  12.286   5.630   7.526 -0.4127 -0.7851  0.1503
44553SOL     OW39621   6.923  11.403   9.599  0.2448 -0.5764 -0.5207
44553SOL    HW139622   6.973  11.424   9.519 -0.3809 -0.7465 -0.9615
44553SOL    HW239623   6.852  11.346   9.569 -0.0224 -0.6080  0.1544
44554SOL     OW39624   1.134  11.369   4.951  0.5730 -0.5134  0.4083
44554SOL    HW139625   1.119  11.463   4.956 -1.3889 -0.7825  0.5984
44554SOL    HW239626   1.176  11.346   5.034 -0.2545  0.0146  0.9961
44555SOL     OW39627   6.946  10.196   6.795 -0.2338 -0.5335 -0.2393
44555SOL    HW139628   6.988  10.134   6.735 -0.5379 -1.2515  0.2863
44555SOL    HW239629   6.899  10.256   6.737 -1.2096 -1.7108 -0.7071
44556SOL     OW39630   5.368   3.250   3.191 -0.0702  1.1434  0.3953
44556SOL    HW139631   5.349   3.275   3.281 -0.8737  2.3538 -0.0883
44556SOL    HW239632   5.421   3.322   3.157 -0.1476  0.9069 -0.2364
44557SOL     OW39633   6.477  10.742   7.901  0.1338  0.6362  0.0896
44557SOL    HW139634   6.455  10.679   7.969  2.9358 -1.1123 -0.4683
44557SOL    HW239635   6.430  10.711   7.823  2.1343 -1.3904 -0.3994
44558SOL     OW39636   6.365   0.052   4.608  0.0385 -0.5848  0.9164
44558SOL    HW139637   6.299   0.120   4.600  0.6530  0.0199  0.9106
44558SOL    HW239638   6.342  -0.012   4.540  0.4865  0.5049 -0.2869
44559SOL     OW39639   1.248   3.115   4.441 -0.1495 -0.1421 -0.3641
44559SOL    HW139640   1.335   3.131   4.478 -0.5142  0.2473  0.3235
44559SOL    HW239641   1.219   3.034   4.483 -0.6931  0.4653  0.4466
44560SOL     OW39642   5.301  11.560   0.948  0.3662 -0.0139  0.4964
44560SOL    HW139643   5.356  11.558   1.027 -2.0202 -0.5164  2.2775
44560SOL    HW239644   5.363  11.571   0.876  2.6884  0.3896  2.4093
44561SOL     OW39645   9.668   3.920  10.360 -0.1511  0.0409  0.0718
44561SOL    HW139646   9.631   3.845  10.313  0.8936 -0.7875  0.5414
44561SOL    HW239647   9.757   3.928  10.326 -1.0895  2.9436 -2.1474
44562SOL     OW39648   7.334   7.512   2.727  0.0689 -0.2992 -0.1754
44562SOL    HW139649   7.352   7.519   2.821  2.4467 -1.0582 -0.5142
44562SOL    HW239650   7.341   7.418   2.709 -1.9697 -0.3619 -0.8684
44563SOL     OW39651   2.212  11.699  11.026 -0.1822  0.0378 -0.3951
44563SOL    HW139652   2.225  11.785  11.067 -1.9871  0.3231 -0.3386
44563SOL    HW239653   2.166  11.647  11.092  1.6913 -1.3235 -0.0814
44564SOL     OW39654   9.813   3.203  11.735 -0.7601  0.2418  0.5520
44564SOL    HW139655   9.792   3.159  11.817  0.4635 -1.0768  0.1890
44564SOL    HW239656   9.741   3.265  11.723 -0.9904  0.4657  2.5925
44565SOL     OW39657   9.685   4.402   0.894  0.1344  0.3768  0.6380
44565SOL    HW139658   9.643   4.359   0.968  1.6078  0.1517  1.3776
44565SOL    HW239659   9.766   4.439   0.930  0.5545  0.8398 -0.7115
44566SOL     OW39660   7.138   8.899   1.127 -0.3129  0.0082  0.5999
44566SOL    HW139661   7.054   8.863   1.156 -0.4317  1.1256  1.7030
44566SOL    HW239662   7.183   8.824   1.086 -1.5409 -0.7792  0.6389
44567SOL     OW39663   6.731  11.159   2.873  0.5158  0.1499 -0.2715
44567SOL    HW139664   6.726  11.247   2.835  0.5863 -0.5799 -2.1095
44567SOL    HW239665   6.813  11.158   2.921  0.2190  1.2709  0.2747
44568SOL     OW39666   0.020  10.704  10.788  0.4009 -0.1225  0.4121
44568SOL    HW139667   0.020  10.764  10.713 -0.6705 -0.2454  0.2960
44568SOL    HW239668   0.023  10.617  10.748 -0.9467 -0.2107  0.4650
44569SOL     OW39669   2.622  12.065  12.407  0.0161 -0.3358  0.5933
44569SOL    HW139670   2.699  12.010  12.391  0.8165  1.0980 -0.7036
44569SOL    HW239671   2.569  12.056  12.327  0.2327  0.8444  0.2912
44570SOL     OW39672   1.026   2.191   1.937  0.4133 -0.3394 -0.4289
44570SOL    HW139673   1.026   2.231   2.024  1.1815  0.2198 -0.6675
44570SOL    HW239674   1.116   2.158   1.927 -0.2809 -2.4454 -0.1083
44571SOL     OW39675  11.511   4.046   8.794  0.3968 -0.1718 -0.3236
44571SOL    HW139676  11.509   3.963   8.746 -2.0071 -1.3396  1.5682
44571SOL    HW239677  11.563   4.027   8.872  0.3703  0.3077 -0.1877
44572SOL     OW39678   7.097   0.539   0.373 -0.0326 -0.3118 -0.1707
44572SOL    HW139679   7.099   0.469   0.438  0.0069 -1.4143 -1.3310
44572SOL    HW239680   7.119   0.618   0.423 -0.6033 -1.0213  1.2673
44573SOL     OW39681   6.119   0.587   9.539  0.7533  0.4318  0.5187
44573SOL    HW139682   6.177   0.513   9.553  0.0103 -0.1637  0.5362
44573SOL    HW239683   6.161   0.639   9.471  2.1265  0.9185  1.7005
44574SOL     OW39684  10.431   2.326   5.673 -0.0268 -0.0659  0.5368
44574SOL    HW139685  10.346   2.359   5.703  0.7749  1.7468  0.9556
44574SOL    HW239686  10.410   2.255   5.613 -1.8732  1.2714 -0.4707
44575SOL     OW39687   8.695   8.515  12.084  0.4756 -0.1837  0.6281
44575SOL    HW139688   8.736   8.430  12.069  0.1899 -0.6090  2.1202
44575SOL    HW239689   8.649   8.534  12.003  1.7961 -0.7317 -0.2784
44576SOL     OW39690   7.756   3.777   4.222 -0.4064  0.4176 -0.0720
44576SOL    HW139691   7.753   3.750   4.314  0.6754 -2.7384 -0.8139
44576SOL    HW239692   7.666   3.762   4.191 -0.5641  0.6572  0.2555
44577SOL     OW39693   4.766   3.353   2.702 -0.3213  0.1284  0.3049
44577SOL    HW139694   4.855   3.364   2.670  0.5920 -2.6456  1.5755
44577SOL    HW239695   4.763   3.406   2.782  0.2061  0.2281  0.2616
44578SOL     OW39696   0.735   8.701   6.702  0.4300 -0.0184  0.0156
44578SOL    HW139697   0.688   8.685   6.620  0.3034  0.9827 -0.1226
44578SOL    HW239698   0.681   8.660   6.769 -0.6375  1.0833 -0.1466
44579SOL     OW39699   3.527  10.126   7.167 -0.6360 -0.0671 -0.2525
44579SOL    HW139700   3.502  10.035   7.180  1.8756 -0.8186 -0.2277
44579SOL    HW239701   3.600  10.140   7.227 -1.4441  2.2484  0.3420
44580SOL     OW39702   4.943   9.018   8.798 -0.7551 -0.1446  0.2599
44580SOL    HW139703   4.987   9.044   8.879  0.2584 -0.1787 -0.2622
44580SOL    HW239704   4.862   8.975   8.827  0.6941 -2.2977  1.3585
44581SOL     OW39705   2.645   2.770   1.340  0.2861  0.1429 -0.8310
44581SOL    HW139706   2.683   2.853   1.312  2.3887 -1.0813 -1.8777
44581SOL    HW239707   2.559   2.768   1.299 -0.4611  2.4195  0.4560
44582SOL     OW39708   0.100   2.773   3.116  0.1700  0.5186  0.6821
44582SOL    HW139709   0.043   2.731   3.180  0.2024 -2.7246 -1.2031
44582SOL    HW239710   0.048   2.777   3.036  1.5229  0.3638 -0.2530
44583SOL     OW39711   5.176   9.218   6.953  0.4517  0.3586  0.0926
44583SOL    HW139712   5.157   9.256   6.867  1.4748 -0.0276 -0.3197
44583SOL    HW239713   5.099   9.167   6.975 -0.3146  1.4309 -0.0399
44584SOL     OW39714   9.364  10.685   4.231 -0.4243 -0.2852 -0.4020
44584SOL    HW139715   9.367  10.753   4.299  0.3315 -0.2722 -0.4417
44584SOL    HW239716   9.288  10.631   4.255 -0.6486  0.1936 -0.0077
44585SOL     OW39717   2.636   0.506   8.949  0.3281 -0.0753 -0.1596
44585SOL    HW139718   2.583   0.460   8.883  0.4274  1.2771 -1.2212
44585SOL    HW239719   2.574   0.526   9.019  0.5157 -2.8126  0.9302
44586SOL     OW39720  10.519   0.453   4.466  0.0958  0.5752 -0.2002
44586SOL    HW139721  10.428   0.483   4.477 -0.6908 -1.8889  0.7924
44586SOL    HW239722  10.571   0.521   4.508 -1.1963  2.4368 -1.4686
44587SOL     OW39723   8.069   8.010   9.538 -0.3511  0.4190  0.1135
44587SOL    HW139724   8.147   7.980   9.585 -0.2098 -1.2365 -1.0779
44587SOL    HW239725   8.012   7.933   9.534 -1.0950  0.9933 -0.8973
44588SOL     OW39726   9.094   6.196   2.784  0.1969  0.5601 -0.5047
44588SOL    HW139727   9.105   6.232   2.872  1.2402  0.3831 -0.5490
44588SOL    HW239728   9.020   6.137   2.791  0.8924 -0.2277  0.5200
44589SOL     OW39729   9.305   3.083   0.338 -0.7086  0.3722  0.2582
44589SOL    HW139730   9.210   3.096   0.331 -0.4927  1.9839 -0.0655
44589SOL    HW239731   9.319   3.056   0.429 -1.5739 -1.0701  0.0008
44590SOL     OW39732   7.594   4.013   3.274 -0.0758  0.1104 -0.2048
44590SOL    HW139733   7.670   3.964   3.305  0.3346  0.6658 -0.3161
44590SOL    HW239734   7.533   4.013   3.348  0.0063 -0.3899 -0.1369
44591SOL     OW39735   9.390   6.128   5.601  0.0018  0.3980  0.0832
44591SOL    HW139736   9.477   6.166   5.591  0.6260 -0.7904  0.9104
44591SOL    HW239737   9.333   6.187   5.552  1.0031  2.1664  0.9418
44592SOL     OW39738   2.572  12.360   1.153  0.6962 -0.1373 -0.2122
44592SOL    HW139739   2.615  12.396   1.075 -0.2192 -0.2891 -0.8042
44592SOL    HW239740   2.482  12.345   1.126 -0.6238  3.0313  1.8234
44593SOL     OW39741   9.741   0.790  10.685  0.4482  0.1637 -0.5707
44593SOL    HW139742   9.805   0.772  10.754 -0.0166  1.8369  0.3619
44593SOL    HW239743   9.783   0.856  10.630 -0.8597  2.1560  0.7273
44594SOL     OW39744   6.532   3.581   7.696 -0.0055  0.2989  0.0395
44594SOL    HW139745   6.554   3.534   7.615 -0.3812  0.8625 -0.4007
44594SOL    HW239746   6.502   3.512   7.756  2.6907 -0.4940  0.6301
44595SOL     OW39747   2.737   1.470   7.123 -1.0529  0.4937  0.0498
44595SOL    HW139748   2.746   1.521   7.043 -0.6411 -0.4131 -0.5063
44595SOL    HW239749   2.787   1.519   7.188  0.9041 -0.0973 -0.9232
44596SOL     OW39750   8.046  12.451  10.514 -0.0732  0.3091 -0.2270
44596SOL    HW139751   8.129  12.491  10.538  0.0663  1.1542 -1.9766
44596SOL    HW239752   7.980  12.506  10.556  0.2084  0.3943  0.1084
44597SOL     OW39753   4.847   3.049   0.757  0.0230  0.1003 -0.0782
44597SOL    HW139754   4.782   3.089   0.815 -0.8917 -2.1663  0.5403
44597SOL    HW239755   4.900   2.994   0.814 -0.1783 -1.3066 -1.1989
44598SOL     OW39756   3.687   4.325   3.493  1.0212  0.5405  0.0985
44598SOL    HW139757   3.696   4.234   3.464 -0.9807  0.3366 -0.0807
44598SOL    HW239758   3.694   4.322   3.588 -0.5441 -0.0879  0.2312
44599SOL     OW39759   1.622   2.652   4.265  0.1949 -0.2237  0.4037
44599SOL    HW139760   1.574   2.583   4.311  1.2367 -0.0396  1.8718
44599SOL    HW239761   1.642   2.615   4.179  0.5633 -1.6903  1.0928
44600SOL     OW39762   8.899   0.749  11.888 -0.3123  0.1053 -0.2030
44600SOL    HW139763   8.892   0.775  11.796  0.4921  0.3903 -0.1853
44600SOL    HW239764   8.989   0.768  11.912 -0.7356  0.8110  0.8890
44601SOL     OW39765   1.532  10.469   2.025  0.2326  0.0508 -0.3007
44601SOL    HW139766   1.485  10.385   2.025 -0.3331  0.3533  0.1719
44601SOL    HW239767   1.589  10.465   1.949  0.2149 -0.7693 -0.2789
44602SOL     OW39768   1.168   0.163   0.094  0.1623  0.3101 -0.3765
44602SOL    HW139769   1.183   0.118   0.011  0.2104  0.3581 -0.3941
44602SOL    HW239770   1.082   0.133   0.122  1.3077 -1.9770  1.0101
44603SOL     OW39771  11.449   5.430   5.935  0.6692  0.4015 -0.6921
44603SOL    HW139772  11.473   5.371   5.863  1.0252  1.1408 -1.1925
44603SOL    HW239773  11.394   5.496   5.893 -0.9200 -0.3516  0.1267
44604SOL     OW39774   7.726  11.125   3.048 -0.7886 -0.0926 -0.0377
44604SOL    HW139775   7.748  11.212   3.013 -2.9004  0.4588 -0.1200
44604SOL    HW239776   7.737  11.066   2.973 -1.8570  0.5441 -0.7352
44605SOL     OW39777   1.083   0.273   2.942 -0.0581 -0.7474 -0.1634
44605SOL    HW139778   1.057   0.318   2.861  2.6754  0.5561 -0.4360
44605SOL    HW239779   1.157   0.219   2.917  1.0022 -0.1427  1.4590
44606SOL     OW39780   6.027  11.506   9.423 -0.5496 -0.2784 -0.2821
44606SOL    HW139781   6.122  11.494   9.423 -0.7066 -2.0795  1.1763
44606SOL    HW239782   5.999  11.476   9.337  0.2049  0.5010 -0.8156
44607SOL     OW39783  11.698   7.235   0.445 -0.1688  0.1823 -0.1784
44607SOL    HW139784  11.722   7.237   0.353 -0.2866  1.4764 -0.2005
44607SOL    HW239785  11.603   7.242   0.445 -0.1243  0.8822  0.0474
44608SOL     OW39786   3.463   6.641   4.002  0.0563 -0.4583  0.4769
44608SOL    HW139787   3.428   6.607   3.920  0.7032  1.6754 -0.7594
44608SOL    HW239788   3.388   6.684   4.044  0.3499  1.1927 -0.5730
44609SOL     OW39789   7.168   1.273   6.927  0.1003  0.1325  0.6112
44609SOL    HW139790   7.227   1.216   6.976  0.1844  1.0539  1.6079
44609SOL    HW239791   7.099   1.296   6.989  0.6660  2.0184  0.6092
44610SOL     OW39792   1.222   8.427  12.246 -0.0232  0.4529 -0.1548
44610SOL    HW139793   1.241   8.343  12.206 -2.3463 -0.4697  0.4937
44610SOL    HW239794   1.252   8.419  12.336 -0.8807  0.0234  0.1043
44611SOL     OW39795   4.455  10.061   4.331 -0.2590 -0.9512 -0.5642
44611SOL    HW139796   4.394  10.102   4.392 -0.5836 -0.5727 -1.1245
44611SOL    HW239797   4.542  10.084   4.364 -0.4133 -1.4815  0.2357
44612SOL     OW39798   1.846   6.857   7.463  0.2256 -0.2244  0.3721
44612SOL    HW139799   1.880   6.800   7.532  0.0696  0.2354  0.8392
44612SOL    HW239800   1.820   6.937   7.509 -0.3988 -0.1238 -0.1383
44613SOL     OW39801   9.046   1.675   7.278 -0.9938  0.4264 -0.7719
44613SOL    HW139802   8.995   1.753   7.255 -1.0788  0.6513  0.1577
44613SOL    HW239803   9.073   1.689   7.368  0.5653  0.2142 -1.1769
44614SOL     OW39804  11.229   8.260   4.519  0.4626 -0.2307 -0.1392
44614SOL    HW139805  11.295   8.230   4.581 -0.0050 -0.6688  0.1502
44614SOL    HW239806  11.251   8.352   4.503  0.1631  0.1127  1.2490
44615SOL     OW39807   7.828  11.187   6.017  0.3596 -0.2940 -0.5407
44615SOL    HW139808   7.808  11.280   6.030  2.2823  0.0623  0.2186
44615SOL    HW239809   7.871  11.160   6.098 -0.1357 -1.8603 -0.7688
44616SOL     OW39810   3.919   4.236   5.814  0.5907 -0.4913  0.1639
44616SOL    HW139811   3.856   4.229   5.743  2.2408 -2.7130 -1.1892
44616SOL    HW239812   3.964   4.319   5.798 -0.3011 -0.0814 -0.2830
44617SOL     OW39813   3.223   9.717   3.241 -0.1294 -0.3505  0.5179
44617SOL    HW139814   3.287   9.769   3.193 -0.2596  0.3510  1.0880
44617SOL    HW239815   3.156   9.695   3.176 -0.0776  0.1988  0.2782
44618SOL     OW39816   5.389   3.683  11.314 -0.0392  0.5459  0.2299
44618SOL    HW139817   5.359   3.712  11.228  0.0613 -0.2028 -0.0659
44618SOL    HW239818   5.429   3.597  11.298 -0.8009 -0.0046  1.1481
44619SOL     OW39819   9.927   8.847  11.133  0.6354 -0.5101 -0.3146
44619SOL    HW139820  10.010   8.880  11.168  0.7718 -1.0410 -0.1272
44619SOL    HW239821   9.946   8.756  11.110 -0.8622 -1.8552  3.1628
44620SOL     OW39822   2.734   1.085  10.456 -0.2676  0.2913  0.1923
44620SOL    HW139823   2.796   1.030  10.409  0.7317  1.8120 -0.3419
44620SOL    HW239824   2.714   1.036  10.536 -0.5374 -1.4686 -0.9168
44621SOL     OW39825   5.947   2.958  10.562  0.4245  0.4511 -0.4276
44621SOL    HW139826   6.029   3.008  10.570  0.1715  1.0098 -1.1801
44621SOL    HW239827   5.912   2.955  10.651  0.9746  0.7090 -0.1986
44622SOL     OW39828   5.690   3.082   1.159 -0.2372  0.4951 -0.2864
44622SOL    HW139829   5.707   3.154   1.219 -1.4215  1.5016 -1.0936
44622SOL    HW239830   5.776   3.046   1.138  0.4079  1.8901 -0.1125
44623SOL     OW39831   8.254  11.393  11.193 -0.0777 -0.6113 -0.5591
44623SOL    HW139832   8.270  11.302  11.166  0.5635 -0.2159 -1.5722
44623SOL    HW239833   8.167  11.414  11.159 -1.9478 -1.9929  2.8828
44624SOL     OW39834  12.228   2.503  12.382  0.7741 -0.3186 -0.0763
44624SOL    HW139835  12.197   2.594  12.379 -2.2490 -1.2541 -1.5493
44624SOL    HW239836  12.215   2.476  12.473 -1.0423 -0.0333 -0.2056
44625SOL     OW39837   6.959   8.191  11.908  0.2813 -0.4101 -0.1873
44625SOL    HW139838   6.933   8.283  11.913  2.9089  0.4127 -0.5035
44625SOL    HW239839   7.028   8.181  11.973 -0.5554 -2.4244  0.4759
44626SOL     OW39840   3.297  10.898  10.263 -0.1854  0.5142 -0.0853
44626SOL    HW139841   3.312  10.876  10.355 -1.3152 -0.5051 -0.1180
44626SOL    HW239842   3.204  10.916  10.257 -0.6332 -1.7737 -1.4398
44627SOL     OW39843   4.639   4.327  10.939 -0.5015 -0.2722  0.4069
44627SOL    HW139844   4.606   4.417  10.933  0.4792  0.0721  0.0308
44627SOL    HW239845   4.581   4.277  10.881 -0.1055  0.4066 -0.6106
44628SOL     OW39846  11.626   1.527   8.630 -0.0454  0.9556  0.1737
44628SOL    HW139847  11.595   1.535   8.720  0.3516 -2.7084  0.7971
44628SOL    HW239848  11.720   1.512   8.638 -0.3182 -1.6899 -0.5653
44629SOL     OW39849  11.194   1.095   1.437 -0.2542 -0.3372  0.0757
44629SOL    HW139850  11.218   1.176   1.391 -0.5737  0.2861  0.9852
44629SOL    HW239851  11.263   1.083   1.502 -0.8539 -0.0994  0.7751
44630SOL     OW39852   5.118   0.867   8.412  0.1959  0.5444 -0.0331
44630SOL    HW139853   5.179   0.824   8.472  0.5164 -2.2499 -2.1086
44630SOL    HW239854   5.032   0.853   8.450  0.2884 -2.1666 -0.5896
44631SOL     OW39855   4.602   8.965   9.133 -0.0472  0.2450 -1.2246
44631SOL    HW139856   4.541   9.025   9.176  0.2012  0.7803 -1.5988
44631SOL    HW239857   4.577   8.878   9.164  0.1303  0.6137 -0.0117
44632SOL     OW39858   3.207   9.105   1.247 -0.1350 -0.1608  0.2322
44632SOL    HW139859   3.177   9.067   1.330 -3.7184 -1.2126 -1.3266
44632SOL    HW239860   3.144   9.174   1.228  0.8596  0.3448 -1.3938
44633SOL     OW39861   9.965   4.700   1.924 -0.2915  0.4864  0.3921
44633SOL    HW139862   9.904   4.743   1.864 -0.4478  2.8556  2.1108
44633SOL    HW239863   9.908   4.664   1.992  0.0429 -0.0994  0.3628
44634SOL     OW39864  10.342   4.617  12.360 -0.2197  0.4425 -0.2135
44634SOL    HW139865  10.260   4.601  12.315 -0.3728  0.6443 -0.0083
44634SOL    HW239866  10.341   4.558  12.435  0.8243 -1.2001 -1.4150
44635SOL     OW39867   2.431   3.917   4.513 -0.0393  0.0992  0.6814
44635SOL    HW139868   2.404   3.825   4.513  2.8102 -0.8441  0.2942
44635SOL    HW239869   2.441   3.939   4.420  1.1294  0.1703  0.8115
44636SOL     OW39870   1.718   1.174   9.395  0.3158 -0.3869  0.5217
44636SOL    HW139871   1.738   1.267   9.379 -0.8056  0.1314  1.8867
44636SOL    HW239872   1.753   1.129   9.319  2.2537  0.9748  0.5139
44637SOL     OW39873   3.639   5.375   1.113  0.1733 -0.7221  0.0899
44637SOL    HW139874   3.686   5.449   1.152 -0.6696 -0.3072  0.3586
44637SOL    HW239875   3.570   5.415   1.060 -0.5371 -1.3049  0.5439
44638SOL     OW39876   1.593   1.018   1.388  0.2653  0.0956  0.1442
44638SOL    HW139877   1.632   0.985   1.306 -0.4860 -2.2704  0.6473
44638SOL    HW239878   1.522   1.074   1.359  0.0467 -0.6606 -0.8709
44639SOL     OW39879   3.579   3.619   7.393  0.3069 -0.1949 -0.3335
44639SOL    HW139880   3.617   3.632   7.480  1.3581  0.1351 -0.8365
44639SOL    HW239881   3.590   3.703   7.349 -1.3305  0.0258 -0.3883
44640SOL     OW39882   0.009  11.152  10.648  0.3106 -0.1441  0.1820
44640SOL    HW139883  -0.014  11.245  10.651 -0.9739 -0.4754  1.6143
44640SOL    HW239884  -0.018  11.117  10.733 -0.1879 -2.0438 -0.6881
44641SOL     OW39885   1.433   9.947   6.274  0.6093 -0.0325  0.4279
44641SOL    HW139886   1.436   9.963   6.180 -0.0924  0.2833  0.4478
44641SOL    HW239887   1.358   9.998   6.304  0.6668 -0.3433  1.1159
44642SOL     OW39888   3.527   4.595   2.176 -0.0802  0.0021 -0.1317
44642SOL    HW139889   3.509   4.663   2.241 -0.1623 -2.2987  2.4639
44642SOL    HW239890   3.442   4.554   2.160 -0.0602  0.5204 -1.7863
44643SOL     OW39891   5.446  11.239  11.918  0.1738  0.4307  0.4678
44643SOL    HW139892   5.487  11.316  11.878 -2.9304  2.0388  0.1333
44643SOL    HW239893   5.442  11.259  12.011  2.0500 -0.7287  0.8509
44644SOL     OW39894   9.373   6.462  12.273 -0.0634 -0.0092 -0.3497
44644SOL    HW139895   9.328   6.545  12.256 -0.9899 -0.2603  0.8157
44644SOL    HW239896   9.396   6.430  12.186 -0.2369  1.1660 -0.8531
44645SOL     OW39897   8.235   5.209   5.000  0.2329  0.3266 -0.1185
44645SOL    HW139898   8.163   5.151   4.973 -0.0929  1.0244 -0.7842
44645SOL    HW239899   8.314   5.162   4.972 -0.0696  0.7028 -1.7246
44646SOL     OW39900   4.266   5.176   4.147  0.2967 -0.0211  0.4848
44646SOL    HW139901   4.325   5.244   4.116  0.2953 -0.6183 -0.8858
44646SOL    HW239902   4.320   5.122   4.205  0.6376  0.3921  0.5553
44647SOL     OW39903   6.355   5.347   2.198  0.5740 -0.0007 -0.1041
44647SOL    HW139904   6.349   5.265   2.149 -0.7960  0.1450 -0.2087
44647SOL    HW239905   6.347   5.415   2.132 -0.5274  0.1978  0.2084
44648SOL     OW39906   3.701  11.792   3.996 -0.2026  0.2235 -0.1416
44648SOL    HW139907   3.763  11.770   4.065  0.0852  1.8440  0.1520
44648SOL    HW239908   3.743  11.762   3.915  1.0235  1.3440  0.0415
44649SOL     OW39909   8.329   6.487  12.479  0.4435  0.0679  0.1165
44649SOL    HW139910   8.286   6.409  12.514  0.0309  1.1012  2.1046
44649SOL    HW239911   8.381   6.456  12.405 -1.2843 -1.7258 -0.4099
44650SOL     OW39912  12.178   3.417   6.742  0.5548 -0.4890  0.2458
44650SOL    HW139913  12.183   3.349   6.809 -0.2740 -1.7241 -0.8995
44650SOL    HW239914  12.115   3.481   6.777  1.2586 -0.3315  1.2809
44651SOL     OW39915   7.775   4.669   5.215  0.0980  0.4230  0.2659
44651SOL    HW139916   7.759   4.583   5.253  1.5365 -0.7637 -1.6343
44651SOL    HW239917   7.701   4.684   5.157  1.3856 -1.1349 -1.9355
44652SOL     OW39918   7.564  12.453   0.361  0.5348 -0.3074 -0.4626
44652SOL    HW139919   7.485  12.463   0.307  1.2017  1.6486 -1.1607
44652SOL    HW239920   7.530  12.426   0.447 -0.6658 -1.8846 -1.3709
44653SOL     OW39921   2.251   3.889   5.529 -0.4482 -0.0955 -0.1130
44653SOL    HW139922   2.339   3.904   5.495 -0.4808  0.8673  0.2220
44653SOL    HW239923   2.264   3.837   5.608 -0.3682 -2.3883 -1.5215
44654SOL     OW39924  11.866   1.705  10.955  0.1470 -0.3305 -0.0256
44654SOL    HW139925  11.886   1.783  11.005 -0.9090  0.1164 -0.2722
44654SOL    HW239926  11.848   1.638  11.021 -2.3203  0.5311  0.2718
44655SOL     OW39927   5.623   5.051   3.145  0.4601 -0.5431  0.2577
44655SOL    HW139928   5.697   5.089   3.099 -0.6997  0.2770 -1.0254
44655SOL    HW239929   5.638   5.072   3.237  1.3882  0.3456 -0.0802
44656SOL     OW39930   2.236   7.616   3.356 -0.1442  0.7207  0.0850
44656SOL    HW139931   2.226   7.646   3.266 -0.2480  0.4451  0.0051
44656SOL    HW239932   2.152   7.636   3.398 -0.9786 -1.2895 -0.4991
44657SOL     OW39933   4.690  10.445  11.699 -0.4015  0.5717  0.2172
44657SOL    HW139934   4.754  10.446  11.770  0.2128 -0.7679 -0.2934
44657SOL    HW239935   4.648  10.359  11.705 -0.4985  0.5212 -0.8906
44658SOL     OW39936   7.958   0.150   4.408  0.0678  0.4115 -0.3244
44658SOL    HW139937   7.936   0.127   4.318 -0.5507  2.6799 -0.8269
44658SOL    HW239938   8.051   0.133   4.416 -0.4848 -3.2976 -0.1828
44659SOL     OW39939   6.296   4.435  11.972  0.0616  0.4845  0.1969
44659SOL    HW139940   6.317   4.341  11.978 -0.3696  0.4629  1.5375
44659SOL    HW239941   6.372   4.473  11.928  0.5078 -0.4020  0.1619
44660SOL     OW39942   0.232   1.571   5.564  0.8593  0.2280  0.1278
44660SOL    HW139943   0.199   1.481   5.572 -1.9986  0.9006 -2.3142
44660SOL    HW239944   0.187   1.619   5.634  1.4492  0.0081  0.6656
44661SOL     OW39945   9.947   9.482   4.696  0.4742  0.7039 -0.2424
44661SOL    HW139946  10.033   9.461   4.661 -0.2318  0.8490 -2.1535
44661SOL    HW239947   9.965   9.519   4.783  2.1991 -0.8081  0.0927
44662SOL     OW39948   1.712   9.859   8.912 -0.1949  0.2700  0.0551
44662SOL    HW139949   1.764   9.779   8.919  0.1861  0.5435  0.4015
44662SOL    HW239950   1.667   9.866   8.996  0.2947  0.7710  0.2820
44663SOL     OW39951   4.065   1.348  10.033  0.3780  0.0794  0.1845
44663SOL    HW139952   4.128   1.411   9.996  1.3256  0.8182  2.7605
44663SOL    HW239953   4.120   1.276  10.065 -0.4513 -0.8373 -0.4110
44664SOL     OW39954  11.160   5.502   5.513  0.0963  0.3328  0.3712
44664SOL    HW139955  11.099   5.550   5.569  0.9596  1.3176  0.4991
44664SOL    HW239956  11.240   5.555   5.514  0.2135  0.2564 -1.5955
44665SOL     OW39957   4.218   2.462   6.434  0.6889  0.6481 -0.4672
44665SOL    HW139958   4.270   2.392   6.472  0.7710  0.2814 -1.2347
44665SOL    HW239959   4.272   2.541   6.445  1.6432  0.1945 -1.6807
44666SOL     OW39960   2.192  10.304   0.962  0.3157  0.3535 -0.0284
44666SOL    HW139961   2.157  10.251   1.034 -1.7050  2.2309  0.4736
44666SOL    HW239962   2.275  10.338   0.996 -0.8717  1.7018  1.7637
44667SOL     OW39963   0.451   7.177   8.788  0.1481 -0.1539  0.4563
44667SOL    HW139964   0.531   7.153   8.834 -0.2471  0.2986  1.4219
44667SOL    HW239965   0.390   7.106   8.807  0.1140 -0.1709  0.2821
44668SOL     OW39966   2.578   6.765   6.320 -0.0461  0.4157 -0.0177
44668SOL    HW139967   2.594   6.856   6.347 -1.2742  1.9992 -3.8945
44668SOL    HW239968   2.488   6.748   6.345  0.0819  0.3983  0.4295
44669SOL     OW39969   3.049   0.383   2.420  0.1563  0.0319 -0.1733
44669SOL    HW139970   3.019   0.337   2.499  0.2335  0.8844  0.3608
44669SOL    HW239971   2.973   0.383   2.362  0.6797 -2.4432 -1.0058
44670SOL     OW39972  10.449   1.217   2.987  0.0389  0.3025  0.6878
44670SOL    HW139973  10.478   1.208   3.077 -0.9553  1.8866  1.1996
44670SOL    HW239974  10.388   1.145   2.974  0.5575 -0.2237  1.0995
44671SOL     OW39975   1.830  10.244   0.825  0.1839  0.2139 -0.6981
44671SOL    HW139976   1.757  10.299   0.797  0.0350  0.2498 -0.2509
44671SOL    HW239977   1.799  10.203   0.906 -0.6117 -2.3272 -2.2021
44672SOL     OW39978   5.673   2.131  11.500  0.4418 -0.5878  0.8354
44672SOL    HW139979   5.589   2.176  11.496 -0.0940 -1.6141 -0.0772
44672SOL    HW239980   5.703   2.127  11.409  0.6368 -1.7164  0.9293
44673SOL     OW39981   2.054   2.939   3.793 -0.2829 -0.1481  0.1792
44673SOL    HW139982   2.112   2.881   3.743 -0.7804 -1.3811  0.9783
44673SOL    HW239983   2.065   2.910   3.884 -2.8232 -1.0769  0.2712
44674SOL     OW39984   1.795  11.788   7.452  0.5179 -0.1197  0.1513
44674SOL    HW139985   1.733  11.848   7.492 -0.7948 -1.1440 -0.2868
44674SOL    HW239986   1.829  11.737   7.526  0.3066 -0.0352  0.3083
44675SOL     OW39987   8.027   9.226   8.974  0.2851  0.2935  0.3785
44675SOL    HW139988   7.978   9.184   9.044 -0.8089 -1.1412 -1.1690
44675SOL    HW239989   8.118   9.203   8.991  0.0303 -0.1381  1.2361
44676SOL     OW39990   1.896   0.210   1.223 -0.1280  0.0598 -0.4337
44676SOL    HW139991   1.961   0.211   1.293  0.6715  0.1087 -1.1548
44676SOL    HW239992   1.844   0.131   1.239  1.3081 -1.0217 -0.8827
44677SOL     OW39993  11.736   4.645  11.681  0.0232 -0.0411  0.8926
44677SOL    HW139994  11.784   4.587  11.621 -1.0157 -0.5191  0.4936
44677SOL    HW239995  11.763   4.618  11.768  0.4005 -0.3707  0.6756
44678SOL     OW39996   9.325   4.144   2.781 -0.6617 -0.2288 -0.5151
44678SOL    HW139997   9.266   4.169   2.710 -1.5015  1.4045  0.7031
44678SOL    HW239998   9.298   4.056   2.806  0.4660 -1.3821 -2.9896
44679SOL     OW39999   0.068   7.069   1.927  0.3847  0.0151  0.8951
44679SOL    HW140000   0.114   6.986   1.937  0.1634 -1.0210 -3.9772
44679SOL    HW240001   0.136   7.132   1.904  0.3257  0.7632  2.6691
44680SOL     OW40002   5.670  10.064   2.075 -0.2606 -0.0554 -0.1583
44680SOL    HW140003   5.718  10.070   2.157 -1.0302  1.1996  0.2370
44680SOL    HW240004   5.636   9.975   2.073  0.1433 -0.2381  0.6539
44681SOL     OW40005   7.041  11.641   0.480 -0.4884  0.0586  0.0507
44681SOL    HW140006   7.052  11.570   0.417  0.4449  0.4909 -0.2940
44681SOL    HW240007   7.022  11.718   0.426  0.4268  0.4542  0.2717
44682SOL     OW40008   9.284   5.832   1.450  0.2389  0.0383 -0.1825
44682SOL    HW140009   9.314   5.766   1.387  0.3544 -0.4642  0.3902
44682SOL    HW240010   9.361   5.851   1.504  0.5313  1.5074 -1.0628
44683SOL     OW40011  12.281   1.614   8.655  0.1275  0.2224  0.1830
44683SOL    HW140012  12.367   1.650   8.676  0.1983 -0.1650  0.5830
44683SOL    HW240013  12.243   1.676   8.593  0.3100  0.9021  0.7317
44684SOL     OW40014   2.443   5.643   0.915 -0.4493  0.2388  0.5321
44684SOL    HW140015   2.381   5.584   0.872 -0.7778  0.9263  0.0361
44684SOL    HW240016   2.392   5.723   0.931  0.2021  0.6779  0.4477
44685SOL     OW40017   0.593   2.688   8.638  0.1476 -0.6992  0.3111
44685SOL    HW140018   0.532   2.743   8.590 -0.1331  0.1205  1.5643
44685SOL    HW240019   0.544   2.607   8.655 -0.8062  0.1356  1.7251
44686SOL     OW40020  10.971  10.072   6.519 -0.6881  0.5846 -0.2541
44686SOL    HW140021  11.004  10.026   6.442  1.7825 -0.5904  1.3935
44686SOL    HW240022  10.930  10.004   6.572  0.8025  0.6918  1.0735
44687SOL     OW40023  12.488   8.014   9.941  0.1532 -0.0925  0.1727
44687SOL    HW140024  12.408   8.049   9.980  0.7944  1.9283 -0.2164
44687SOL    HW240025  12.459   7.943   9.884 -1.4471  1.1660 -0.6241
44688SOL     OW40026   9.282  10.586   1.972  0.5613 -0.3419 -0.4706
44688SOL    HW140027   9.258  10.659   1.915 -2.0228 -1.4642 -0.9446
44688SOL    HW240028   9.333  10.528   1.916  0.4153 -0.1209 -0.8377
44689SOL     OW40029   8.183   4.576   8.605 -0.6483  0.1943 -0.3381
44689SOL    HW140030   8.182   4.525   8.686  0.8985  1.2979  0.4127
44689SOL    HW240031   8.091   4.600   8.592 -1.3776 -2.3518 -0.4983
44690SOL     OW40032   3.041  12.086   0.579  0.3559  0.3392 -0.1043
44690SOL    HW140033   3.015  12.150   0.645  1.6399  1.5946 -0.7628
44690SOL    HW240034   3.093  12.136   0.517  5.6879 -2.0801  1.8197
44691SOL     OW40035  12.416   6.902   7.786  0.4293  0.4547 -0.2693
44691SOL    HW140036  12.471   6.939   7.855 -1.3403  3.3013 -0.2405
44691SOL    HW240037  12.327   6.913   7.818 -0.3261 -0.8154 -1.8233
44692SOL     OW40038   8.193  11.554   1.945  0.2154 -0.4296 -0.1937
44692SOL    HW140039   8.183  11.464   1.976 -1.5444  0.0302  0.6952
44692SOL    HW240040   8.123  11.565   1.880  1.8248 -0.3639 -1.9919
44693SOL     OW40041   5.817   9.102   4.388 -0.3404 -0.3933 -0.1722
44693SOL    HW140042   5.877   9.081   4.317  0.9514 -0.8279  0.9912
44693SOL    HW240043   5.743   9.043   4.376 -0.2427 -0.3086 -1.2611
44694SOL     OW40044   2.516   4.444   8.992  0.2089  0.9789 -0.1495
44694SOL    HW140045   2.428   4.480   8.982  0.1854  1.3169  1.0571
44694SOL    HW240046   2.524   4.379   8.922 -0.7880  1.3384 -0.6137
44695SOL     OW40047   4.728   8.709   0.145  0.3378 -0.2005  0.0709
44695SOL    HW140048   4.653   8.711   0.084  0.5327  0.7724 -0.1511
44695SOL    HW240049   4.706   8.774   0.212  1.0903  0.2657 -0.1277
44696SOL     OW40050  12.204   1.191   2.896 -0.6283  0.3349  0.1156
44696SOL    HW140051  12.169   1.218   2.811 -1.3524 -1.1381 -0.0849
44696SOL    HW240052  12.299   1.192   2.885 -0.6311  2.0878 -0.0636
44697SOL     OW40053  11.533  12.282   1.046 -0.0334  0.4238 -0.0704
44697SOL    HW140054  11.536  12.340   0.970  0.6587 -0.3866 -0.6875
44697SOL    HW240055  11.538  12.194   1.009 -3.8697 -0.2620  0.6287
44698SOL     OW40056  11.957   2.534  11.204  0.0867  0.1906 -0.0648
44698SOL    HW140057  11.900   2.599  11.245  1.4502  1.0911  0.4714
44698SOL    HW240058  11.970   2.467  11.271  0.4002  0.4681  0.1596
44699SOL     OW40059   9.726   7.592   8.622 -0.4756 -0.1610  0.2318
44699SOL    HW140060   9.684   7.669   8.661 -2.7754  0.0517 -2.3542
44699SOL    HW240061   9.808   7.626   8.586 -0.4420  0.5719  0.9579
44700SOL     OW40062   0.799  11.675   0.596  0.2904  0.1661 -0.2702
44700SOL    HW140063   0.787  11.765   0.626  1.1915  0.4446 -0.7086
44700SOL    HW240064   0.885  11.675   0.554  0.5468 -1.0467  0.2323
44701SOL     OW40065   5.689   0.066   6.307  0.7936  0.3337 -0.2815
44701SOL    HW140066   5.634   0.061   6.385 -0.1838 -0.3605 -0.9882
44701SOL    HW240067   5.776   0.043   6.338  0.4768  0.3555  0.6587
44702SOL     OW40068   6.981   8.354   2.710 -0.1400 -0.3063 -0.2594
44702SOL    HW140069   7.004   8.282   2.769  0.0885 -0.5132 -0.6002
44702SOL    HW240070   7.052   8.418   2.722  0.0256 -0.4489 -0.4784
44703SOL     OW40071  12.243   4.625   7.688 -0.1825  0.0409  0.4194
44703SOL    HW140072  12.165   4.640   7.636 -0.3088  0.5223  0.7361
44703SOL    HW240073  12.240   4.532   7.710 -1.0795  0.2145  1.0737
44704SOL     OW40074   5.979   1.991   8.828 -0.5089 -0.5625 -0.2358
44704SOL    HW140075   5.944   1.970   8.915 -0.7566 -1.3357 -0.5106
44704SOL    HW240076   6.030   2.071   8.841 -0.4280 -0.7453  0.6465
44705SOL     OW40077   8.231   7.253   0.841 -0.1065 -0.0672  0.4332
44705SOL    HW140078   8.228   7.223   0.750 -0.0645  0.4673  0.2539
44705SOL    HW240079   8.324   7.268   0.858 -0.0784 -0.4920  0.6768
44706SOL     OW40080   0.496   0.109   2.620 -0.1320  0.2913  0.0315
44706SOL    HW140081   0.446   0.148   2.548  1.6428  2.3712 -0.1560
44706SOL    HW240082   0.444   0.130   2.698  0.3220  2.3977 -0.1613
44707SOL     OW40083   2.221   4.071  10.639 -0.4714 -0.3540  0.2210
44707SOL    HW140084   2.251   3.981  10.648 -1.6299 -0.6452  1.5698
44707SOL    HW240085   2.133   4.063  10.600 -0.4806  0.2012  0.1147
44708SOL     OW40086   2.114   1.663   4.793 -0.1277  0.2319 -0.0288
44708SOL    HW140087   2.197   1.661   4.839  0.0723 -0.4873 -0.4029
44708SOL    HW240088   2.128   1.609   4.714 -0.7272  0.6852 -0.4605
44709SOL     OW40089   2.652  10.986   6.678  0.2393  0.8979  0.2387
44709SOL    HW140090   2.648  11.057   6.742 -2.7961  1.0861 -0.0081
44709SOL    HW240091   2.605  10.913   6.719 -0.4526  0.5136 -1.1612
44710SOL     OW40092  10.694   6.755   4.224 -0.3011 -0.1984  0.0110
44710SOL    HW140093  10.763   6.777   4.287 -1.2024 -0.3378  1.0888
44710SOL    HW240094  10.687   6.832   4.168 -0.3676  0.4690  0.9183
44711SOL     OW40095   1.126   3.168   7.657  0.1624  0.2629 -0.1435
44711SOL    HW140096   1.050   3.145   7.603 -0.7309  1.1773  0.6704
44711SOL    HW240097   1.104   3.254   7.693  1.1143  0.0604  0.9740
44712SOL     OW40098   1.930   2.099   3.884  0.7023 -0.3826  0.0953
44712SOL    HW140099   1.976   2.035   3.831  3.2250  1.5347 -0.2031
44712SOL    HW240100   1.886   2.156   3.821 -1.8838 -1.9343  0.3665
44713SOL     OW40101   3.134   5.879  12.266 -0.1584  0.1809 -0.1725
44713SOL    HW140102   3.046   5.883  12.302  0.6245 -1.8054  2.2142
44713SOL    HW240103   3.167   5.793  12.291  2.3965  0.7770 -1.1528
44714SOL     OW40104   5.241  10.220   3.183 -0.4076  0.0943 -0.1148
44714SOL    HW140105   5.152  10.196   3.209 -0.8796  2.4433  0.6739
44714SOL    HW240106   5.234  10.312   3.156  1.9435  0.6499  0.9342
44715SOL     OW40107   1.539   2.205  10.119 -0.2446 -0.3240 -0.5424
44715SOL    HW140108   1.609   2.157  10.162  1.2102  1.4111 -0.8319
44715SOL    HW240109   1.567   2.213  10.028 -0.7212  0.5172 -0.6372
44716SOL     OW40110   2.328   5.892   1.033 -1.0906  0.2464 -0.3888
44716SOL    HW140111   2.398   5.944   0.993 -0.7867 -0.3808 -0.6924
44716SOL    HW240112   2.299   5.944   1.108  1.3511 -0.5037  1.2025
44717SOL     OW40113   1.551   5.871   4.883  0.2326 -0.6542 -0.4445
44717SOL    HW140114   1.618   5.827   4.935  1.5963  1.9501  0.1484
44717SOL    HW240115   1.560   5.963   4.905 -2.1505  0.0278 -1.9896
44718SOL     OW40116   0.639   2.713   7.037 -0.2218  0.5798  0.2968
44718SOL    HW140117   0.680   2.768   6.970  0.3307  0.3393  0.4330
44718SOL    HW240118   0.694   2.726   7.115 -0.4639  0.3325  0.5110
44719SOL     OW40119   8.279  10.391   2.093 -0.3347 -0.2559  0.6068
44719SOL    HW140120   8.303  10.343   2.172  1.5473 -0.2464  0.0803
44719SOL    HW240121   8.334  10.469   2.094 -0.3293 -0.2137 -0.6644
44720SOL     OW40122  12.476   3.218   2.787  0.1782 -0.4098  0.8065
44720SOL    HW140123  12.568   3.243   2.777  0.1705 -0.9359 -0.7727
44720SOL    HW240124  12.479   3.129   2.823  0.3365 -1.0053 -0.6203
44721SOL     OW40125   6.165   2.298   7.736  0.1341  0.0393 -0.3103
44721SOL    HW140126   6.092   2.340   7.782  1.8487  1.1210  1.5513
44721SOL    HW240127   6.216   2.370   7.700  1.5990 -0.5323  0.5234
44722SOL     OW40128   6.229   6.519   1.906 -0.1607  0.0996  0.0346
44722SOL    HW140129   6.137   6.494   1.895 -0.4245  1.4142 -1.0599
44722SOL    HW240130   6.229   6.576   1.983  0.2868 -2.2657  1.9263
44723SOL     OW40131   8.470  10.193   0.840  0.2152 -0.6799  0.1023
44723SOL    HW140132   8.409  10.253   0.882  0.4020 -1.2106  1.1668
44723SOL    HW240133   8.448  10.197   0.747 -1.0975 -0.4871  0.4113
44724SOL     OW40134   9.536   0.017   1.167  0.1244 -0.1666 -0.1627
44724SOL    HW140135   9.578  -0.059   1.128  3.0950  2.3368 -2.3627
44724SOL    HW240136   9.460   0.034   1.112 -1.0760 -1.9360  0.8723
44725SOL     OW40137   2.719  11.976  11.923  0.3431 -0.1367  0.4650
44725SOL    HW140138   2.629  11.982  11.956  0.2102 -0.2743  0.1347
44725SOL    HW240139   2.727  11.886  11.893  0.7499 -0.2592  0.9309
44726SOL     OW40140   6.894  11.074   9.786 -0.6854 -0.7884 -0.2540
44726SOL    HW140141   6.822  11.130   9.816  0.3518  0.6934 -0.3763
44726SOL    HW240142   6.973  11.123   9.809  0.2335 -0.3210 -3.7969
44727SOL     OW40143  11.324   6.377   5.422  0.3718  0.1242  0.4875
44727SOL    HW140144  11.418   6.364   5.427  0.5870  0.3424 -1.9987
44727SOL    HW240145  11.313   6.469   5.398 -0.3771 -0.3247 -1.0063
44728SOL     OW40146   5.248   2.808  12.049 -0.2670  0.5153 -0.6485
44728SOL    HW140147   5.250   2.751  12.126  0.0512 -0.6170 -1.4590
44728SOL    HW240148   5.328   2.859  12.055 -0.1884  0.3546 -0.2899
44729SOL     OW40149   3.732   7.923   2.879 -0.1440  0.0948 -0.2853
44729SOL    HW140150   3.717   7.829   2.879  1.7506 -0.2698  1.4695
44729SOL    HW240151   3.822   7.933   2.848 -0.0865  1.2915  0.2192
44730SOL     OW40152   3.669   9.006  10.189 -0.1616  0.1991  0.3286
44730SOL    HW140153   3.607   9.077  10.203 -0.1060  0.2771  0.1829
44730SOL    HW240154   3.659   8.984  10.097 -1.1171 -0.8690  0.6717
44731SOL     OW40155  11.877   1.146   6.397 -0.5581  0.3468  0.9091
44731SOL    HW140156  11.891   1.053   6.380  2.1501  0.6822  0.9557
44731SOL    HW240157  11.923   1.162   6.480 -1.4158  1.6501  1.1628
44732SOL     OW40158   8.981   3.868  10.304  0.4203  0.0233  0.0704
44732SOL    HW140159   8.969   3.942  10.364 -0.8112 -0.0802 -0.0290
44732SOL    HW240160   8.981   3.908  10.217 -1.7855 -0.1958 -0.0910
44733SOL     OW40161   0.274   6.618  10.865 -0.0695  0.3066 -0.3345
44733SOL    HW140162   0.316   6.531  10.864 -0.4879  0.0522  1.1073
44733SOL    HW240163   0.244   6.631  10.775 -2.1493 -2.1445 -0.1282
44734SOL     OW40164   0.266   4.486   4.678  0.5123 -0.0753 -0.0914
44734SOL    HW140165   0.193   4.498   4.739  1.6381 -1.9026  1.7158
44734SOL    HW240166   0.229   4.509   4.593 -1.7687  0.3783  0.9382
44735SOL     OW40167   9.250   1.639  11.821 -0.6440  0.0817  0.5186
44735SOL    HW140168   9.298   1.711  11.781  0.0383 -1.4297 -1.6073
44735SOL    HW240169   9.166   1.677  11.847 -1.1439  1.2860 -2.4191
44736SOL     OW40170  10.024   6.676   2.789 -0.2698 -0.3415 -0.2127
44736SOL    HW140171  10.024   6.752   2.847  0.4333 -0.5070  0.0154
44736SOL    HW240172  10.067   6.707   2.709 -0.6540 -0.2941 -0.4024
44737SOL     OW40173  11.047   3.192   9.980 -0.3589  0.1122  0.3779
44737SOL    HW140174  10.993   3.233  10.047 -0.8660 -0.0616  0.0802
44737SOL    HW240175  11.137   3.208  10.009 -0.5626 -0.7762  1.5976
44738SOL     OW40176  12.485   6.589   2.967 -0.2288  0.2379 -0.1515
44738SOL    HW140177  12.437   6.671   2.980  1.0056  0.8966  0.6014
44738SOL    HW240178  12.489   6.550   3.054 -1.1558 -0.8602 -0.5753
44739SOL     OW40179   7.302   2.604   3.780 -0.5718  0.0383 -0.0355
44739SOL    HW140180   7.261   2.676   3.732 -0.6312 -0.7287 -1.1591
44739SOL    HW240181   7.285   2.526   3.727  0.3328 -0.6567  0.6577
44740SOL     OW40182   1.397  10.149  10.887 -0.1960 -0.0369  0.4874
44740SOL    HW140183   1.416  10.124  10.978  1.1224 -1.9454 -0.2591
44740SOL    HW240184   1.304  10.172  10.888  0.2120  1.9135  2.6862
44741SOL     OW40185   7.332   0.554   0.942 -0.2053  0.0064 -0.6479
44741SOL    HW140186   7.376   0.636   0.922 -1.1688  0.6548 -0.1759
44741SOL    HW240187   7.335   0.548   1.037 -0.5377 -0.2735 -0.6529
44742SOL     OW40188   1.910   3.212   6.670  0.0746 -0.0304  0.3508
44742SOL    HW140189   1.934   3.140   6.728 -0.7111  0.9065  1.8880
44742SOL    HW240190   1.899   3.171   6.584 -0.4961 -1.7587  1.2161
44743SOL     OW40191  12.347   0.646   2.257  0.1358  0.1263  0.0776
44743SOL    HW140192  12.341   0.639   2.162 -1.3694 -0.3110  0.1736
44743SOL    HW240193  12.257   0.631   2.287  0.2846  1.6888  1.4721
44744SOL     OW40194   9.703   4.510  11.073  0.2670 -0.4090  1.1380
44744SOL    HW140195   9.649   4.441  11.036  1.6201 -0.0865 -1.6317
44744SOL    HW240196   9.643   4.558  11.132 -1.5303 -1.9735  0.6821
44745SOL     OW40197   2.143   9.678   3.336 -0.5982  0.5128  1.2226
44745SOL    HW140198   2.162   9.584   3.335  0.6522  0.7233 -0.2622
44745SOL    HW240199   2.056   9.686   3.374 -1.0819 -1.3247  0.5639
44746SOL     OW40200   3.914   0.463   9.211 -0.4134  0.1309  0.1419
44746SOL    HW140201   3.997   0.446   9.255  0.3877  0.4731 -1.1715
44746SOL    HW240202   3.848   0.457   9.280  0.8819  1.7977  1.5968
44747SOL     OW40203   0.172   8.898  10.914 -0.0564 -0.5442  0.1458
44747SOL    HW140204   0.161   8.988  10.883 -3.1702 -1.0243 -0.5433
44747SOL    HW240205   0.162   8.845  10.835  1.5226 -1.5525  0.5863
44748SOL     OW40206  11.618   8.575  12.131 -0.5073 -0.3865 -0.3534
44748SOL    HW140207  11.626   8.515  12.205 -2.8913 -2.5582 -1.6743
44748SOL    HW240208  11.681   8.541  12.066  0.6452  0.7339  0.1269
44749SOL     OW40209  10.167  12.297   9.885 -0.7255 -0.4475 -1.1484
44749SOL    HW140210  10.193  12.326   9.798  0.5319 -1.8252 -1.2692
44749SOL    HW240211  10.139  12.206   9.873  0.6272 -1.0590  0.0341
44750SOL     OW40212   3.883   2.726   6.987  0.2718 -0.1130  0.0147
44750SOL    HW140213   3.834   2.786   6.931 -1.7212 -0.3299  1.3725
44750SOL    HW240214   3.910   2.655   6.929  1.9584  1.6163 -1.4541
44751SOL     OW40215   8.962  10.140  12.072  0.0321  0.2980 -0.1357
44751SOL    HW140216   8.946  10.119  11.980  1.1968  0.0386 -0.2964
44751SOL    HW240217   9.050  10.179  12.073  0.1634 -0.0010  0.8976
44752SOL     OW40218   5.075   3.659  11.547  0.4070  0.4399 -0.3302
44752SOL    HW140219   5.051   3.705  11.466 -2.0577 -0.0134  0.0542
44752SOL    HW240220   5.005   3.595  11.559  0.5681  0.6716  2.3143
44753SOL     OW40221   8.165  11.224   8.238  0.9633  0.7403 -1.2600
44753SOL    HW140222   8.251  11.234   8.197  2.2543 -2.1057  0.4412
44753SOL    HW240223   8.161  11.297   8.301  2.2877  0.7612 -1.1544
44754SOL     OW40224   0.650   1.216   3.806  0.4785 -0.8560 -0.1370
44754SOL    HW140225   0.619   1.143   3.753 -3.1050  1.2629 -1.2778
44754SOL    HW240226   0.644   1.185   3.896 -0.4223 -2.1451 -0.6136
44755SOL     OW40227   5.410   6.344   5.846  0.1522 -0.6694  0.8017
44755SOL    HW140228   5.356   6.419   5.823  0.1957 -0.4860  1.2863
44755SOL    HW240229   5.348   6.277   5.872  0.0843 -0.9855 -0.1237
44756SOL     OW40230  10.343   1.356   1.113  0.1402 -0.0298 -0.1009
44756SOL    HW140231  10.327   1.287   1.049 -1.5515  0.6247 -0.4246
44756SOL    HW240232  10.392   1.422   1.065 -1.7383  0.7876 -1.0018
44757SOL     OW40233  10.107   7.695   9.006  0.2828 -0.0891  0.2821
44757SOL    HW140234  10.095   7.745   8.925  0.1316 -0.5700  0.0055
44757SOL    HW240235  10.075   7.607   8.985  0.5563 -0.3051  0.7624
44758SOL     OW40236   8.880   9.849   4.989 -0.2648 -0.6610  0.5477
44758SOL    HW140237   8.840   9.876   4.906 -0.3495 -0.5825  0.6144
44758SOL    HW240238   8.914   9.761   4.971  0.1858 -0.4389  0.2713
44759SOL     OW40239   2.658   4.755  12.412  0.1198  0.0577  0.1366
44759SOL    HW140240   2.719   4.819  12.374 -0.9049  1.2540  0.4278
44759SOL    HW240241   2.589   4.809  12.452 -0.7972 -1.2474  0.3694
44760SOL     OW40242   1.550   6.464  12.369 -0.1598  0.3893 -0.0958
44760SOL    HW140243   1.464   6.429  12.392 -0.0280  0.4751  0.5512
44760SOL    HW240244   1.547   6.475  12.274 -0.4115 -0.8355 -0.2541
44761SOL     OW40245   3.817   8.651   7.694  0.5875  0.6069 -0.4237
44761SOL    HW140246   3.863   8.574   7.728  0.1642  0.5694  0.0802
44761SOL    HW240247   3.835   8.651   7.600 -0.9299 -1.1564 -0.7771
44762SOL     OW40248   1.675   5.303  10.111 -1.3109  0.2762 -0.0331
44762SOL    HW140249   1.709   5.350  10.187  2.1231 -0.1636 -1.1079
44762SOL    HW240250   1.624   5.369  10.063 -0.4180  1.6357  0.8084
44763SOL     OW40251   7.045   7.989   2.205  0.3276 -0.0083  0.2576
44763SOL    HW140252   7.016   7.911   2.253 -0.7080 -0.3244 -0.8214
44763SOL    HW240253   7.134   8.005   2.237 -0.4549  0.0701  2.5628
44764SOL     OW40254  10.177   9.415  10.243  0.0131 -0.1996  0.2371
44764SOL    HW140255  10.159   9.474  10.171  0.3730 -0.1805  0.1630
44764SOL    HW240256  10.199   9.472  10.317  3.6810 -0.2213 -0.6648
44765SOL     OW40257   7.208   0.481  10.644  0.4491 -0.0651  0.1371
44765SOL    HW140258   7.175   0.512  10.727  1.8532  0.2136  0.6255
44765SOL    HW240259   7.133   0.439  10.602 -0.7595  1.4379  0.7044
44766SOL     OW40260   6.566   6.222   7.353 -0.2618  0.2356 -1.0223
44766SOL    HW140261   6.662   6.216   7.350 -0.3167 -1.4688 -0.2864
44766SOL    HW240262   6.541   6.167   7.427 -1.7489  1.7086 -0.3735
44767SOL     OW40263   0.743   6.091   1.600 -0.4277 -0.3043 -0.1006
44767SOL    HW140264   0.713   6.181   1.587 -0.4925 -0.5036 -1.4394
44767SOL    HW240265   0.838   6.097   1.590 -0.3777 -0.3056  0.3455
44768SOL     OW40266   1.487   3.432   7.799 -0.5885  0.1724  0.3986
44768SOL    HW140267   1.409   3.453   7.850 -1.6172 -0.7748 -0.7388
44768SOL    HW240268   1.560   3.449   7.859 -1.7486 -1.2978  2.3441
44769SOL     OW40269  11.836   8.881   1.246  0.1418  0.3583 -0.1560
44769SOL    HW140270  11.882   8.861   1.328  0.7992 -3.8065 -1.3095
44769SOL    HW240271  11.887   8.951   1.207  0.1147  2.1067  2.6622
44770SOL     OW40272   6.399  10.954  11.800  0.0871  0.1785  0.0731
44770SOL    HW140273   6.467  10.971  11.735  1.9391 -0.5554  1.7130
44770SOL    HW240274   6.326  10.918  11.749  2.1704 -2.3014 -1.4494
44771SOL     OW40275   4.577   9.542   5.319  0.6692  0.1996  0.5030
44771SOL    HW140276   4.672   9.533   5.308  0.6343  0.5586 -0.1655
44771SOL    HW240277   4.566   9.586   5.403  1.0507 -0.7111  1.0531
44772SOL     OW40278   4.592   7.333   9.389  0.2591 -0.1609 -0.0697
44772SOL    HW140279   4.522   7.338   9.324 -0.0632 -2.3305  0.0386
44772SOL    HW240280   4.551   7.292   9.465  1.0112  0.9658  0.9885
44773SOL     OW40281   3.349   1.752   2.884  1.2060  0.3681  0.0223
44773SOL    HW140282   3.403   1.801   2.947  2.0757  2.4783 -2.2208
44773SOL    HW240283   3.380   1.781   2.798 -0.7138 -1.5337 -1.4062
44774SOL     OW40284   0.526   7.537   0.878 -0.0543  0.7921 -0.2772
44774SOL    HW140285   0.466   7.530   0.952  0.3822  0.3651  0.0389
44774SOL    HW240286   0.592   7.600   0.906 -0.0341  0.8308 -0.4093
44775SOL     OW40287   8.212   2.493   0.536 -0.4383 -0.6657 -0.1267
44775SOL    HW140288   8.122   2.523   0.528  0.1613  1.1592 -0.5314
44775SOL    HW240289   8.219   2.461   0.626 -0.7349  2.0726  0.9791
44776SOL     OW40290   4.973   9.419   5.521  0.6400 -0.3499  0.2259
44776SOL    HW140291   4.917   9.467   5.459  0.6029  0.7767  1.1135
44776SOL    HW240292   4.955   9.327   5.502  0.3216 -0.0263 -1.1592
44777SOL     OW40293   0.667  11.937   3.292  0.1110  0.1587  0.1470
44777SOL    HW140294   0.718  11.892   3.225 -0.1455  0.0119  0.0504
44777SOL    HW240295   0.638  11.867   3.352 -0.5061  0.1553 -0.1463
44778SOL     OW40296   1.064   5.245   5.405  0.0026  0.1214  0.5696
44778SOL    HW140297   1.052   5.234   5.499  0.6292 -1.9622  0.4469
44778SOL    HW240298   1.060   5.157   5.370 -0.7906  0.8990 -1.4599
44779SOL     OW40299   2.209   4.295  10.023 -0.4577  0.1407 -0.1850
44779SOL    HW140300   2.274   4.279   9.955 -0.3176 -3.0352  0.4937
44779SOL    HW240301   2.223   4.385  10.050  1.7474  0.4228 -2.0060
44780SOL     OW40302   1.896   1.218   3.467  0.4328  0.1778  0.3778
44780SOL    HW140303   1.903   1.253   3.378  0.3227 -0.5575  0.0798
44780SOL    HW240304   1.889   1.296   3.522  2.8010  0.7666 -0.0134
44781SOL     OW40305  12.392   4.715   7.043 -0.2962 -0.7600  0.5933
44781SOL    HW140306  12.409   4.719   6.949  0.8587 -1.0621  0.7761
44781SOL    HW240307  12.298   4.731   7.051  0.0808  2.6779 -0.3359
44782SOL     OW40308  12.040   7.444  11.669 -0.0794 -0.0683  0.4836
44782SOL    HW140309  11.962   7.411  11.624 -0.7156 -0.5271  1.8609
44782SOL    HW240310  12.057   7.379  11.737  2.5817 -0.9109 -0.8462
44783SOL     OW40311  12.377   6.573   6.204 -0.5030 -0.7915 -0.4901
44783SOL    HW140312  12.409   6.604   6.289 -1.1876 -2.4948  0.4384
44783SOL    HW240313  12.297   6.624   6.189  1.1911  1.7410 -1.6696
44784SOL     OW40314   1.798   4.205   0.084  0.2820 -0.2358  0.1204
44784SOL    HW140315   1.812   4.299   0.073 -0.4175 -0.0761  0.5381
44784SOL    HW240316   1.867   4.164   0.033  1.0065  0.5103  0.4874
44785SOL     OW40317   8.392   5.348  11.774  0.3357 -0.2196  0.1445
44785SOL    HW140318   8.330   5.299  11.719  0.1863 -1.0373  1.0064
44785SOL    HW240319   8.470   5.292  11.778 -0.2042 -0.9294  1.9726
44786SOL     OW40320   9.034  11.692   3.906 -0.0030  0.2355 -0.1380
44786SOL    HW140321   8.958  11.636   3.921  0.7151 -1.1248 -1.3076
44786SOL    HW240322   9.011  11.743   3.828  0.3447 -0.3126 -0.6034
44787SOL     OW40323   4.903   9.682   4.041  0.9712  0.1131  0.3275
44787SOL    HW140324   4.865   9.669   3.954 -2.5398  1.0414  1.5404
44787SOL    HW240325   4.886   9.600   4.087 -1.1059  1.0114  1.3120
44788SOL     OW40326   5.593   8.930   8.896 -0.2151 -0.1625  0.0295
44788SOL    HW140327   5.687   8.923   8.910 -0.3692 -0.9533  0.7799
44788SOL    HW240328   5.580   8.916   8.802  0.3941 -0.2450 -0.0404
44789SOL     OW40329   9.802   0.588   5.160  0.5196 -0.0219 -0.3510
44789SOL    HW140330   9.738   0.533   5.115 -1.3963  2.5280 -0.9787
44789SOL    HW240331   9.840   0.642   5.090  0.7260  0.9431  0.4875
44790SOL     OW40332   8.265   4.269   0.406  0.0195  0.4131  0.0662
44790SOL    HW140333   8.352   4.240   0.433 -0.3642  0.6749  1.6855
44790SOL    HW240334   8.214   4.188   0.398 -0.2566  0.3880  1.6820
44791SOL     OW40335  10.091   7.438   4.897  0.3217 -0.4233  0.0825
44791SOL    HW140336  10.180   7.426   4.865  0.8564  0.2431  1.2568
44791SOL    HW240337  10.079   7.369   4.962  0.3390  0.0910  0.6361
44792SOL     OW40338   6.867  10.105   3.323 -0.3678 -0.1981  0.0680
44792SOL    HW140339   6.797  10.166   3.296  0.5294  0.9060  0.1671
44792SOL    HW240340   6.820  10.027   3.353 -1.5770  0.5602  0.2364
44793SOL     OW40341   4.748   2.498  11.660 -0.0689 -0.3620  0.4123
44793SOL    HW140342   4.671   2.547  11.689 -0.1702  0.0779 -0.5488
44793SOL    HW240343   4.773   2.541  11.578  1.3416 -0.3539  0.8292
44794SOL     OW40344   9.570   1.829   3.333 -0.4302  0.2171  0.5205
44794SOL    HW140345   9.664   1.814   3.319 -0.6152 -0.5249  0.0034
44794SOL    HW240346   9.566   1.905   3.391  0.4834  0.5687  0.1397
44795SOL     OW40347   4.358   9.165   0.824 -0.2500  0.3264 -0.2150
44795SOL    HW140348   4.376   9.259   0.824  4.2111 -0.2850  0.8781
44795SOL    HW240349   4.303   9.151   0.901  0.0605  1.9377  0.3364
44796SOL     OW40350  11.214   9.498   7.829 -0.3921  0.0134 -0.6298
44796SOL    HW140351  11.277   9.510   7.758  0.0235  0.9911 -0.1047
44796SOL    HW240352  11.267   9.483   7.907 -0.8049  0.5735 -0.2330
44797SOL     OW40353   8.392   4.961   5.617  0.1116  0.0426 -0.2146
44797SOL    HW140354   8.483   4.983   5.635  0.7462 -2.8376  0.5941
44797SOL    HW240355   8.345   4.986   5.696  0.7485 -1.1339  0.5611
44798SOL     OW40356   3.915  11.944   8.772 -0.6093 -0.2951  0.0147
44798SOL    HW140357   3.895  11.930   8.865 -2.5259 -1.1825 -0.4868
44798SOL    HW240358   3.930  12.038   8.765  0.5257 -0.3320  1.3669
44799SOL     OW40359   7.811   8.177   8.706 -0.2879 -0.5920  0.5264
44799SOL    HW140360   7.877   8.172   8.774  1.2177  0.5803 -0.7684
44799SOL    HW240361   7.780   8.268   8.708 -1.6591 -1.0351  0.8872
44800SOL     OW40362  10.696   6.224   9.028 -0.1132  0.1240 -0.5164
44800SOL    HW140363  10.659   6.283   8.963 -1.0837 -0.1204 -0.2049
44800SOL    HW240364  10.630   6.221   9.097  0.1300 -0.9490 -0.3185
44801SOL     OW40365   7.711   0.468   5.993  0.3183  0.2432 -0.5324
44801SOL    HW140366   7.650   0.496   6.061 -0.4651 -3.6384  0.5959
44801SOL    HW240367   7.657   0.452   5.916  0.0124 -1.7197  0.0188
44802SOL     OW40368   8.186   5.630   5.172 -0.0326  0.2051 -0.1937
44802SOL    HW140369   8.184   5.585   5.087 -1.0637  0.6168 -0.4050
44802SOL    HW240370   8.220   5.717   5.152  1.6584 -0.3295  0.1656
44803SOL     OW40371  12.155   3.914   8.732  0.2039  0.3102 -0.3551
44803SOL    HW140372  12.068   3.891   8.765  0.3301  0.2272 -0.0807
44803SOL    HW240373  12.159   4.009   8.741 -0.4398  0.5047 -1.7791
44804SOL     OW40374  10.321  12.220   6.379  0.2963  0.4626  0.2383
44804SOL    HW140375  10.367  12.245   6.460  0.2789 -1.7255  0.9749
44804SOL    HW240376  10.232  12.199   6.407  0.5066 -1.0967 -0.1967
44805SOL     OW40377   7.680   6.393  10.506  0.4951 -0.8936  0.0176
44805SOL    HW140378   7.691   6.309  10.462  2.0915 -0.3829 -0.6104
44805SOL    HW240379   7.680   6.458  10.436  0.2640 -0.2907  0.5652
44806SOL     OW40380   0.006   3.217   8.563 -0.3312 -0.1478  0.4300
44806SOL    HW140381   0.050   3.162   8.628  1.0426  0.4622  0.0542
44806SOL    HW240382  -0.087   3.193   8.570 -0.1953 -0.3156  2.4024
44807SOL     OW40383   9.584   9.696   8.280  0.4016 -0.0489  0.2741
44807SOL    HW140384   9.542   9.755   8.217  1.2319 -2.0074 -2.3092
44807SOL    HW240385   9.677   9.717   8.275  0.3887  0.3442  1.5243
44808SOL     OW40386   3.913  11.796   9.694  0.3141 -0.2206 -0.9921
44808SOL    HW140387   3.827  11.837   9.699  0.0482 -0.8037 -0.6606
44808SOL    HW240388   3.961  11.833   9.768 -0.5312 -1.8387  0.4371
44809SOL     OW40389   3.969   5.149   8.105 -0.1863 -0.0765  0.4434
44809SOL    HW140390   4.022   5.102   8.040 -1.8692  0.6834 -1.6085
44809SOL    HW240391   3.922   5.081   8.152 -0.1018 -0.5971 -0.2170
44810SOL     OW40392   6.882   8.792   2.746 -0.1584 -0.1153 -0.3457
44810SOL    HW140393   6.875   8.877   2.704 -0.8786  0.6127  1.1584
44810SOL    HW240394   6.916   8.811   2.834 -0.4479 -1.3602  0.0660
44811SOL     OW40395   3.580   8.764   5.747 -0.0366 -0.6957 -0.1838
44811SOL    HW140396   3.533   8.782   5.665 -2.5886 -0.1978  1.2696
44811SOL    HW240397   3.542   8.683   5.779  1.1445 -1.0363  0.3849
44812SOL     OW40398   1.515   1.369   4.440 -0.0852 -0.2452  1.0463
44812SOL    HW140399   1.537   1.409   4.524  0.7070  0.0130  0.7230
44812SOL    HW240400   1.587   1.307   4.424  1.1482  1.5145 -0.6311
44813SOL     OW40401   3.266   4.291   5.573  0.2757 -0.2565 -0.2193
44813SOL    HW140402   3.270   4.197   5.587 -1.2719 -0.6708 -2.1596
44813SOL    HW240403   3.200   4.322   5.635  2.0999 -0.0937  1.7402
44814SOL     OW40404   8.007   8.884  11.575 -0.2687  0.3822  0.0500
44814SOL    HW140405   8.008   8.803  11.626 -2.3246  1.0965  1.3323
44814SOL    HW240406   7.929   8.877  11.521  1.6759 -0.2207 -2.9816
44815SOL     OW40407   6.613  10.341   6.332  0.3475  0.2699 -0.4137
44815SOL    HW140408   6.612  10.437   6.322  1.7203  0.2591 -0.9043
44815SOL    HW240409   6.521  10.316   6.327 -0.0199  1.5390 -0.5521
44816SOL     OW40410   8.144   1.526   5.952 -0.4353  0.4148 -0.1820
44816SOL    HW140411   8.218   1.572   5.913  1.3786 -1.4275  0.8479
44816SOL    HW240412   8.146   1.439   5.910  0.1145 -0.7930  2.1804
44817SOL     OW40413   1.179  10.680   5.525 -0.0083 -0.2370  0.2203
44817SOL    HW140414   1.162  10.586   5.531  0.0275 -0.2376  0.3197
44817SOL    HW240415   1.208  10.705   5.613  1.3648 -0.4060 -0.1590
44818SOL     OW40416   2.738   2.503   8.184 -0.1698 -0.6480 -0.1005
44818SOL    HW140417   2.787   2.421   8.195 -0.2407 -0.9056 -1.5417
44818SOL    HW240418   2.653   2.476   8.150  0.6399  0.0987 -3.0717
44819SOL     OW40419   5.636   0.179  10.841 -0.1341  0.4653 -0.2909
44819SOL    HW140420   5.683   0.217  10.766  1.1792 -2.2649 -0.9473
44819SOL    HW240421   5.703   0.165  10.907  0.0341 -2.8700 -0.9923
44820SOL     OW40422  10.986   8.044   0.943  0.2151  0.5130  0.2747
44820SOL    HW140423  10.932   7.968   0.968 -1.2656  1.7756  1.0886
44820SOL    HW240424  11.046   8.010   0.876  0.0391 -1.5188  1.0769
44821SOL     OW40425   8.116   5.881   4.666  0.3522 -0.8546 -0.1130
44821SOL    HW140426   8.064   5.806   4.695 -1.7065  0.1649 -0.9672
44821SOL    HW240427   8.116   5.875   4.571 -0.9649  0.8689 -0.2753
44822SOL     OW40428   4.748   9.026   8.005  0.1856 -0.0984  0.0852
44822SOL    HW140429   4.774   8.938   8.032 -0.8499 -0.1318  1.0055
44822SOL    HW240430   4.817   9.083   8.039 -0.1833 -0.3387  1.2703
44823SOL     OW40431   9.246  11.215   8.380 -0.6183  0.2977 -0.4012
44823SOL    HW140432   9.175  11.151   8.381 -0.4776  0.1360 -0.6185
44823SOL    HW240433   9.208  11.294   8.419 -0.8870  0.1812 -0.4277
44824SOL     OW40434   8.417  12.175  10.954 -0.2818  0.3764  0.0192
44824SOL    HW140435   8.384  12.121  11.025 -0.5808  1.5399  0.7975
44824SOL    HW240436   8.507  12.197  10.980  0.2962 -0.7790 -0.9159
44825SOL     OW40437   7.494   0.391   6.388 -0.2010  0.3580 -0.1938
44825SOL    HW140438   7.423   0.438   6.432 -0.7296 -1.6930  1.3444
44825SOL    HW240439   7.513   0.443   6.310 -1.9789  2.0626  0.4214
44826SOL     OW40440   5.001   9.699   1.518 -0.3731  0.3377 -0.3342
44826SOL    HW140441   4.979   9.617   1.474 -0.0679  0.0290  0.0830
44826SOL    HW240442   5.096   9.698   1.525 -0.3848  0.6160 -0.1173
44827SOL     OW40443   4.141   1.517  10.343 -0.2553 -0.0848 -0.1190
44827SOL    HW140444   4.092   1.584  10.295 -0.4664 -0.0266  0.1727
44827SOL    HW240445   4.229   1.520  10.307 -0.2466  0.3966 -0.0627
44828SOL     OW40446   7.847   1.226   8.034  0.6572  0.0520 -0.2669
44828SOL    HW140447   7.941   1.220   8.016  0.6673  0.2956 -0.2989
44828SOL    HW240448   7.819   1.307   7.991  0.2227 -0.5640 -1.1631
44829SOL     OW40449   6.060  11.130  12.108  1.0371 -0.6116 -0.4012
44829SOL    HW140450   6.068  11.092  12.195 -0.6953 -0.4437 -0.1383
44829SOL    HW240451   6.081  11.223  12.121  0.4303 -0.5137 -0.0835
44830SOL     OW40452   6.349   8.094   0.257  0.1442  0.1403 -0.2791
44830SOL    HW140453   6.398   8.040   0.320  1.5098 -0.2078 -1.5996
44830SOL    HW240454   6.284   8.033   0.221  0.1856  0.0012 -0.1264
44831SOL     OW40455   4.099   8.834   3.803 -0.4688 -0.4513  0.4466
44831SOL    HW140456   4.090   8.763   3.868  0.0719 -0.9564 -0.0239
44831SOL    HW240457   4.174   8.808   3.750 -0.5950  0.2225 -0.0631
44832SOL     OW40458   0.087   6.370   1.854 -0.3650 -0.8202 -0.6765
44832SOL    HW140459   0.161   6.373   1.914 -1.2312 -1.3625  0.4678
44832SOL    HW240460   0.043   6.454   1.866  0.1467 -0.4260 -1.4860
44833SOL     OW40461  11.424   1.684   8.478  0.5236 -0.8211  0.3621
44833SOL    HW140462  11.432   1.777   8.459 -0.4944 -0.3565  2.0180
44833SOL    HW240463  11.515   1.652   8.480  0.9706  0.4202  1.1007
44834SOL     OW40464   9.116   8.140   1.340 -0.7127 -0.4076 -0.0996
44834SOL    HW140465   9.210   8.143   1.324 -0.4092 -0.4436  1.5060
44834SOL    HW240466   9.099   8.050   1.367 -0.8116  0.0801  1.6067
44835SOL     OW40467   2.638  12.231   1.679 -0.2970  0.0082  0.7239
44835SOL    HW140468   2.617  12.293   1.748 -0.2667  0.3027  0.4754
44835SOL    HW240469   2.683  12.159   1.723 -0.3778  0.1407  1.0219
44836SOL     OW40470   2.395   2.402   3.559  0.1370 -0.5656 -0.4585
44836SOL    HW140471   2.364   2.461   3.490 -1.1615  0.6282  1.0695
44836SOL    HW240472   2.475   2.443   3.591 -0.9250  0.6124  0.8073
44837SOL     OW40473   6.550   7.565   0.788  0.1590 -0.4600 -0.1541
44837SOL    HW140474   6.505   7.497   0.837  0.7633 -1.5672 -1.0715
44837SOL    HW240475   6.643   7.546   0.801  0.3366  0.2963 -0.2862
44838SOL     OW40476  10.638   7.804  11.285 -0.7614 -0.2512 -0.7998
44838SOL    HW140477  10.637   7.835  11.194  3.6847  0.4685 -0.8308
44838SOL    HW240478  10.647   7.884  11.337  0.9787 -0.8619 -0.1097
44839SOL     OW40479  10.085  10.038   7.602  0.0159  0.4823  0.3383
44839SOL    HW140480  10.139  10.029   7.680  0.3334 -1.4912 -0.0701
44839SOL    HW240481  10.146  10.034   7.529 -0.3863  1.2993 -0.0597
44840SOL     OW40482   0.485   6.515   2.618 -0.1829  0.1327  0.0493
44840SOL    HW140483   0.433   6.434   2.612  0.8398 -0.5030 -0.6533
44840SOL    HW240484   0.499   6.540   2.527 -0.4529  1.1003  0.2646
44841SOL     OW40485   1.624  10.510  11.231  0.1298 -0.1892  0.4290
44841SOL    HW140486   1.671  10.463  11.162  0.1752  0.3489  0.0907
44841SOL    HW240487   1.691  10.526  11.298  0.4686  0.6505 -0.0902
44842SOL     OW40488   7.878   6.249   6.999 -0.2560 -0.0531  0.0203
44842SOL    HW140489   7.911   6.159   7.006 -0.5039 -0.3074 -1.6519
44842SOL    HW240490   7.788   6.244   7.033  0.0078 -0.2519  0.7001
44843SOL     OW40491   6.901   1.496   9.875 -0.2573  0.2270  0.2412
44843SOL    HW140492   6.985   1.459   9.847 -0.0188  0.5820  0.4759
44843SOL    HW240493   6.849   1.420   9.901  0.2963  0.0638  0.9015
44844SOL     OW40494   8.793   2.013   8.187 -0.0298 -0.6365  0.3459
44844SOL    HW140495   8.698   2.022   8.184 -0.2963 -2.4196  1.7429
44844SOL    HW240496   8.821   2.067   8.261 -0.0977 -0.9989  0.6383
44845SOL     OW40497   1.610   6.221   8.234  0.5853  0.8943  0.3773
44845SOL    HW140498   1.559   6.205   8.154  2.4102  0.8601 -0.8218
44845SOL    HW240499   1.640   6.135   8.262  2.6620  1.1883 -0.7936
44846SOL     OW40500   4.707  11.339  11.747  0.5873  0.3089 -0.0809
44846SOL    HW140501   4.702  11.419  11.798 -0.5796  0.2470 -0.0805
44846SOL    HW240502   4.798  11.336  11.716  0.9376  1.0389  0.8460
44847SOL     OW40503   0.874   2.579   3.822 -0.4120 -0.5212 -0.4244
44847SOL    HW140504   0.870   2.539   3.735 -1.8838 -2.9422  0.6543
44847SOL    HW240505   0.924   2.517   3.875  0.8023  1.1043  0.4287
44848SOL     OW40506   2.590  11.858   1.323  0.4150  0.3492 -0.2730
44848SOL    HW140507   2.593  11.944   1.281 -1.1606 -0.4360 -2.2221
44848SOL    HW240508   2.554  11.801   1.255  0.5837 -1.6714  1.2559
44849SOL     OW40509   7.049   7.832   4.979  0.6407  0.0054 -0.5005
44849SOL    HW140510   7.016   7.755   4.933 -2.6187  0.8737  0.1752
44849SOL    HW240511   7.024   7.818   5.070 -0.1796  1.9100 -0.4034
44850SOL     OW40512  12.101   1.462   9.058  0.1667 -0.1770 -0.0642
44850SOL    HW140513  12.179   1.418   9.089  0.3972 -0.0237 -0.4212
44850SOL    HW240514  12.122   1.555   9.062  0.1808 -0.1527 -0.6186
44851SOL     OW40515  11.410   2.671   4.876 -0.6957  0.6855 -0.3001
44851SOL    HW140516  11.492   2.719   4.866  0.2467 -1.2478 -2.9788
44851SOL    HW240517  11.352   2.708   4.810 -1.4459  0.9405  0.4873
44852SOL     OW40518   3.905   4.866   1.464  0.4498  0.0762  0.1750
44852SOL    HW140519   3.979   4.850   1.521 -0.3327 -0.7387  0.9999
44852SOL    HW240520   3.937   4.845   1.376  1.2071 -0.1758  0.5067
44853SOL     OW40521  10.054   2.036  10.596  0.3605 -0.1458 -0.1543
44853SOL    HW140522   9.972   2.084  10.614  0.0481  0.0406 -1.8748
44853SOL    HW240523  10.110   2.055  10.671 -0.3642  1.6058 -0.0069
44854SOL     OW40524   3.473   3.775   5.515 -0.3821  0.7285  0.1687
44854SOL    HW140525   3.393   3.775   5.464  0.1766 -0.1149 -0.7407
44854SOL    HW240526   3.543   3.786   5.450  0.2932  0.4486  0.8339
44855SOL     OW40527   9.709   7.705  10.565 -0.0172  0.4298  0.0927
44855SOL    HW140528   9.761   7.763  10.509 -0.6099 -0.9064 -1.9407
44855SOL    HW240529   9.759   7.624  10.568 -0.0978  0.4152  1.3744
44856SOL     OW40530   6.257   4.993   8.422  0.3415 -0.5738  0.3004
44856SOL    HW140531   6.191   4.980   8.491  0.6705 -0.3735  0.6560
44856SOL    HW240532   6.209   5.038   8.352  0.3443  0.5386  0.9839
44857SOL     OW40533   9.381   8.613   2.868 -0.3781 -0.0822  0.2058
44857SOL    HW140534   9.326   8.588   2.794 -0.2666  0.9718 -0.2591
44857SOL    HW240535   9.449   8.668   2.830  1.2405 -1.6376  0.7248
44858SOL     OW40536   8.405  10.859  10.775  0.2996 -0.5316  0.0808
44858SOL    HW140537   8.453  10.776  10.774  0.9546 -0.1530 -0.0163
44858SOL    HW240538   8.438  10.905  10.852 -0.3549 -0.5243  0.3679
44859SOL     OW40539   9.449   3.277   5.174 -0.2658 -0.3374 -0.1306
44859SOL    HW140540   9.493   3.361   5.169 -1.7563  0.4263 -1.3227
44859SOL    HW240541   9.500   3.226   5.237  2.5215  0.2998 -1.7346
44860SOL     OW40542  11.874   5.250   2.457 -0.2141 -0.3379 -0.3757
44860SOL    HW140543  11.902   5.275   2.369 -1.3517  0.8150 -0.4375
44860SOL    HW240544  11.901   5.159   2.466 -0.8287 -0.7463 -2.2397
44861SOL     OW40545   2.278   5.534   0.562 -0.0558 -0.3298 -0.1157
44861SOL    HW140546   2.370   5.536   0.590  0.2567  1.2758 -1.1230
44861SOL    HW240547   2.280   5.500   0.473 -0.4986 -0.7486  0.0301
44862SOL     OW40548   2.917  10.877   5.309  0.2438  0.0786  0.3231
44862SOL    HW140549   2.978  10.941   5.274 -0.7818 -0.1397 -2.0724
44862SOL    HW240550   2.911  10.810   5.241 -2.1768 -0.2193  0.7485
44863SOL     OW40551   7.195   8.884   9.969 -0.0292  0.2414 -0.6928
44863SOL    HW140552   7.125   8.836   9.924 -2.6500  3.9676 -0.9690
44863SOL    HW240553   7.181   8.867  10.062  0.4008 -1.0584 -0.8387
44864SOL     OW40554   7.686  11.208   9.518 -0.9257  0.3878  0.3536
44864SOL    HW140555   7.686  11.113   9.507 -0.3325  0.5753 -1.6850
44864SOL    HW240556   7.772  11.228   9.555 -0.5292  0.2193 -0.4485
44865SOL     OW40557   1.556   0.642  11.630  0.3740 -0.3987  0.1625
44865SOL    HW140558   1.473   0.653  11.676 -0.0946 -1.9960 -0.2226
44865SOL    HW240559   1.616   0.612  11.698  0.8394  1.3395  0.5701
44866SOL     OW40560   4.549  10.289   3.290 -0.3061 -0.4704 -0.0133
44866SOL    HW140561   4.610  10.227   3.252 -0.7505 -0.5261 -0.6391
44866SOL    HW240562   4.487  10.235   3.339 -0.9592 -0.5589 -0.9305
44867SOL     OW40563   1.348  11.430  11.035 -0.0982 -0.0280 -0.1645
44867SOL    HW140564   1.267  11.448  11.083  1.1227  1.0726  1.5956
44867SOL    HW240565   1.352  11.498  10.968 -0.7208 -0.2405 -0.4325
44868SOL     OW40566  12.456   3.171   1.511  0.1706 -0.0424  0.0520
44868SOL    HW140567  12.490   3.217   1.588  0.1527 -1.2138  0.7909
44868SOL    HW240568  12.526   3.176   1.447  0.2661  0.7801  0.2196
44869SOL     OW40569  10.362   6.198   4.617 -0.2052  0.7674 -0.3169
44869SOL    HW140570  10.341   6.111   4.584  0.7599  0.6010 -0.5232
44869SOL    HW240571  10.451   6.190   4.651 -1.0184  1.0224  2.0407
44870SOL     OW40572  10.318   1.967  12.460  0.5918  0.1883 -0.6146
44870SOL    HW140573  10.240   1.951  12.513  0.5309  1.9646 -0.1350
44870SOL    HW240574  10.283   1.983  12.372  0.4556  0.3873 -0.5261
44871SOL     OW40575  10.718  10.109   2.942 -0.2366 -0.1106 -0.8635
44871SOL    HW140576  10.627  10.086   2.963 -0.2385 -0.0811 -0.8417
44871SOL    HW240577  10.712  10.193   2.898 -0.2485 -0.2588 -1.1467
44872SOL     OW40578   1.108   1.299   0.347  0.1349 -0.5857  0.0658
44872SOL    HW140579   1.099   1.204   0.359  1.5647 -0.5065  2.1890
44872SOL    HW240580   1.084   1.336   0.431  1.4848  0.7968 -0.1199
44873SOL     OW40581   2.369   5.895   5.963  0.9594 -0.2610  0.5439
44873SOL    HW140582   2.390   5.930   6.049 -2.5112 -2.4913  2.5582
44873SOL    HW240583   2.297   5.950   5.932  0.8637 -0.6855 -0.0008
44874SOL     OW40584   7.374   7.730   8.712  0.0255  0.4553  0.0503
44874SOL    HW140585   7.383   7.823   8.691  0.8621  0.3836  0.0558
44874SOL    HW240586   7.390   7.726   8.806 -2.7087  0.6448  0.6295
44875SOL     OW40587   7.670   9.802   9.678 -0.3640  0.0976 -0.1277
44875SOL    HW140588   7.684   9.897   9.686 -2.8283  0.4903  0.1511
44875SOL    HW240589   7.673   9.786   9.583 -1.3307  0.7125 -0.2708
44876SOL     OW40590  11.048   6.527   8.072 -0.8533  0.6442 -0.0142
44876SOL    HW140591  11.066   6.494   7.984 -1.1370  1.0385 -0.2225
44876SOL    HW240592  10.967   6.577   8.062  0.8194  3.5098 -0.2595
44877SOL     OW40593  12.097   5.931   1.649  0.0150 -0.4258 -0.3562
44877SOL    HW140594  12.054   6.016   1.654 -1.6709 -1.2912  0.7359
44877SOL    HW240595  12.082   5.890   1.734  1.1092 -1.6826 -0.7163
44878SOL     OW40596  10.572   7.699   6.657  0.1823 -0.0273  0.4641
44878SOL    HW140597  10.509   7.660   6.598  0.9421 -1.1627  0.3584
44878SOL    HW240598  10.580   7.636   6.729 -0.5790  1.2237  1.7081
44879SOL     OW40599   3.979   2.152  10.906 -0.4875  0.4040 -0.2414
44879SOL    HW140600   3.889   2.120  10.905 -0.1955 -0.4365 -0.0796
44879SOL    HW240601   3.972   2.243  10.876 -1.4748  0.6016  0.5406
44880SOL     OW40602   9.855   7.552  11.164 -0.1539  0.1403 -0.2026
44880SOL    HW140603   9.791   7.595  11.221  0.3847 -0.5444  0.9360
44880SOL    HW240604   9.858   7.462  11.195  1.2895  0.1373 -0.3015
44881SOL     OW40605  10.902   7.411   8.724  0.4259 -0.4059 -0.3697
44881SOL    HW140606  10.971   7.433   8.661  0.8906 -1.1450 -0.1307
44881SOL    HW240607  10.938   7.437   8.809  0.3964 -0.7381 -0.2523
44882SOL     OW40608  11.193   7.068  11.840  0.5086  0.6198  0.6153
44882SOL    HW140609  11.189   7.117  11.922  0.8000 -0.9782  1.6422
44882SOL    HW240610  11.286   7.064  11.818  0.3291  2.4679 -0.7638
44883SOL     OW40611   4.115   0.417   7.321 -0.0745 -0.3579 -0.4959
44883SOL    HW140612   4.036   0.466   7.299 -0.6193 -0.3947  1.2216
44883SOL    HW240613   4.094   0.326   7.301 -0.8753 -0.5060  0.9427
44884SOL     OW40614   1.670   5.743   3.846  0.2761  0.0941 -0.4215
44884SOL    HW140615   1.578   5.765   3.833  0.1882  0.0795  0.1348
44884SOL    HW240616   1.718   5.811   3.798 -0.0254 -0.5058 -1.6184
44885SOL     OW40617   8.124  11.788   9.545  0.1443 -0.0755 -0.0638
44885SOL    HW140618   8.086  11.861   9.595  1.6736  1.0616 -0.4875
44885SOL    HW240619   8.170  11.735   9.610  0.4474  0.2905  0.0243
44886SOL     OW40620   5.504   7.418  11.654 -0.1671 -0.3172  0.6535
44886SOL    HW140621   5.579   7.467  11.687 -0.3014 -0.6969  1.5552
44886SOL    HW240622   5.485   7.458  11.568 -0.8500  1.8464  1.7295
44887SOL     OW40623   4.588   2.132  11.400 -0.0922 -0.5607  0.3778
44887SOL    HW140624   4.631   2.218  11.397 -3.2619  1.1641  0.0031
44887SOL    HW240625   4.529   2.133  11.324 -1.7758 -2.1769  1.5944
44888SOL     OW40626   7.258   1.564  10.607  0.0428  0.0781 -0.0648
44888SOL    HW140627   7.267   1.503  10.534 -1.0039  0.3711 -0.4618
44888SOL    HW240628   7.320   1.634  10.588  0.6737 -0.4613 -0.0200
44889SOL     OW40629   5.669  10.582  11.112  0.1710 -0.5269 -0.2386
44889SOL    HW140630   5.649  10.610  11.202  0.3566 -0.6134 -0.1700
44889SOL    HW240631   5.682  10.488  11.119 -0.3240 -0.6146 -0.4469
44890SOL     OW40632  11.048   4.227   5.668  0.9272  0.4221 -0.3639
44890SOL    HW140633  10.955   4.214   5.649  0.5270  0.6945  1.2817
44890SOL    HW240634  11.084   4.264   5.587 -0.4450  0.5468 -0.9365
44891SOL     OW40635   5.799   4.998   6.878  0.3972  0.5687  0.3515
44891SOL    HW140636   5.864   4.975   6.812  0.0574  0.8728 -0.0902
44891SOL    HW240637   5.733   4.928   6.872  1.4018 -0.5861  1.8281
44892SOL     OW40638  12.147   2.588   8.380 -0.8775  0.4195  0.1598
44892SOL    HW140639  12.184   2.583   8.292 -0.6387  1.1314  0.2110
44892SOL    HW240640  12.156   2.680   8.405  0.0692  0.0348  1.3646
44893SOL     OW40641   1.933   3.444   3.751  0.5060 -0.3146 -0.1095
44893SOL    HW140642   1.848   3.437   3.707 -0.6208 -1.8442  2.1485
44893SOL    HW240643   1.911   3.465   3.842  2.6829  1.2095  0.1331
44894SOL     OW40644   0.279   7.306  10.004  0.1080  0.0577 -0.9082
44894SOL    HW140645   0.290   7.377  10.067  0.0582  0.2948 -1.1661
44894SOL    HW240646   0.362   7.304   9.956  0.4380 -0.6166 -0.3385
44895SOL     OW40647   8.386   8.940   8.407 -0.0717 -0.2310 -0.5411
44895SOL    HW140648   8.341   8.941   8.323 -1.2878 -1.9794  0.0467
44895SOL    HW240649   8.365   9.025   8.447  0.5752  0.6428 -1.9801
44896SOL     OW40650   8.841   6.981   6.433  0.0360 -0.4156 -0.1254
44896SOL    HW140651   8.917   7.038   6.441 -0.4263  0.4561 -1.6324
44896SOL    HW240652   8.770   7.029   6.476 -0.8155  1.1312 -3.0202
44897SOL     OW40653   1.688  10.757   0.496  0.6630  0.0097  0.6196
44897SOL    HW140654   1.676  10.761   0.591  1.3449 -1.7483  0.8230
44897SOL    HW240655   1.780  10.782   0.482  0.3976  0.8605  0.3524
44898SOL     OW40656   9.825   7.904  10.196 -0.2310 -0.6360 -0.0192
44898SOL    HW140657   9.738   7.938  10.216  0.3808  1.9483 -1.3891
44898SOL    HW240658   9.844   7.937  10.109  2.2951 -0.7628  0.4104
44899SOL     OW40659   8.263   8.107   2.530  0.1877  0.2094  0.0072
44899SOL    HW140660   8.231   8.118   2.440 -0.6485  2.7416  0.5215
44899SOL    HW240661   8.237   8.188   2.574  2.0527 -0.2422  2.1047
44900SOL     OW40662   4.365   4.660   7.392  0.2094  0.8455  0.6125
44900SOL    HW140663   4.282   4.612   7.388  0.0724  0.9545  1.7896
44900SOL    HW240664   4.370   4.692   7.482  1.2050  1.4339  0.3657
44901SOL     OW40665   8.131   1.187   0.058  0.0188 -0.3084 -0.2220
44901SOL    HW140666   8.221   1.178   0.028  0.0341  0.5415 -0.4544
44901SOL    HW240667   8.081   1.205  -0.021  0.2277  3.1419  0.2636
44902SOL     OW40668   1.231  11.466   9.128  0.5937  0.4434  0.3348
44902SOL    HW140669   1.258  11.425   9.046 -2.2927  0.6476 -0.8491
44902SOL    HW240670   1.156  11.414   9.158 -1.2695  2.9441  0.3770
44903SOL     OW40671   2.226   3.797  10.759  0.1150 -0.1483 -0.2858
44903SOL    HW140672   2.292   3.770  10.822 -0.9169  0.4089  1.0843
44903SOL    HW240673   2.145   3.754  10.788 -0.9671  2.2039  0.3897
44904SOL     OW40674   1.132   1.996   0.781  0.4541  0.2212  0.1455
44904SOL    HW140675   1.149   1.905   0.806  1.0548  0.1289 -0.5771
44904SOL    HW240676   1.039   2.008   0.798  0.3903 -0.4995  0.3486
44905SOL     OW40677   8.707   3.276   3.989  0.0406  0.1553 -0.1140
44905SOL    HW140678   8.759   3.223   4.049  0.8462  0.9034 -0.1322
44905SOL    HW240679   8.642   3.216   3.954  1.6167 -1.1238 -0.9804
44906SOL     OW40680  10.749  10.018  11.105  0.0728  0.2581 -0.1586
44906SOL    HW140681  10.841   9.994  11.093  0.2177  0.8611 -0.2663
44906SOL    HW240682  10.748  10.114  11.104 -0.4139  0.2785  0.9592
44907SOL     OW40683  12.023  10.196   7.227 -0.0965  0.1519  0.0982
44907SOL    HW140684  12.049  10.125   7.286  0.8074  0.5581  0.2042
44907SOL    HW240685  12.082  10.187   7.152  0.2336  0.9638  0.2472
44908SOL     OW40686   3.627   3.694  10.591  0.5235 -0.1237  0.3001
44908SOL    HW140687   3.605   3.753  10.662 -2.1547 -1.1695  0.4249
44908SOL    HW240688   3.679   3.748  10.530 -2.3924  2.6439  0.0399
44909SOL     OW40689   4.983   8.375  11.577  0.3680 -0.0502 -0.3589
44909SOL    HW140690   4.918   8.304  11.578  0.6251 -0.2930  1.2691
44909SOL    HW240691   5.063   8.335  11.610  0.5810  0.9253  0.3633
44910SOL     OW40692   8.370   7.456  10.388  0.0197  0.0219 -0.2273
44910SOL    HW140693   8.344   7.531  10.441 -0.9833 -0.3112 -0.2423
44910SOL    HW240694   8.462   7.442  10.412  0.0523  0.8874  0.2044
44911SOL     OW40695   8.997   3.827  11.501 -0.0993  0.6286  0.9280
44911SOL    HW140696   8.955   3.800  11.420  2.0401 -0.4430  0.1009
44911SOL    HW240697   9.021   3.918  11.486 -1.0357  0.8921  0.9645
44912SOL     OW40698   0.692   7.429  11.306 -0.9708  0.7314  0.0719
44912SOL    HW140699   0.737   7.510  11.284 -0.3409  0.4584  0.3543
44912SOL    HW240700   0.744   7.390  11.376  0.7493 -1.6165 -2.2940
44913SOL     OW40701  10.260   6.042  10.323 -0.4602 -0.1186  0.2059
44913SOL    HW140702  10.219   6.094  10.393 -1.5368  0.8548 -1.1082
44913SOL    HW240703  10.346   6.018  10.359 -1.0697  0.1589  1.9386
44914SOL     OW40704   1.534   7.978   1.588  0.2287 -0.3843  0.1356
44914SOL    HW140705   1.452   7.936   1.613  0.3104 -1.0602 -0.6789
44914SOL    HW240706   1.508   8.062   1.551 -0.3055 -1.3808 -1.9411
44915SOL     OW40707   1.516  12.331   0.129 -0.7889 -0.0333 -0.3124
44915SOL    HW140708   1.478  12.418   0.141 -0.0734  0.1281  1.0786
44915SOL    HW240709   1.501  12.287   0.213 -0.2000 -0.8680 -0.6282
44916SOL     OW40710   5.608   6.454   0.826 -0.4445 -0.2516  0.4248
44916SOL    HW140711   5.694   6.443   0.865 -0.7239  0.3919  1.2762
44916SOL    HW240712   5.586   6.368   0.790  0.2509 -0.6026  0.8199
44917SOL     OW40713  10.590   7.378  10.561  0.0821  0.0498 -0.2093
44917SOL    HW140714  10.497   7.387  10.583  0.1868 -0.4564  0.4530
44917SOL    HW240715  10.624   7.467  10.564  0.1679 -0.0066  2.0388
44918SOL     OW40716   5.839   4.480  10.562 -0.4450  0.3462 -0.6042
44918SOL    HW140717   5.910   4.539  10.586  0.2343 -0.2267 -1.1646
44918SOL    HW240718   5.786   4.530  10.500  0.4385  0.1869 -1.5047
44919SOL     OW40719   5.831   5.696  12.013  0.4804  0.2850 -0.4086
44919SOL    HW140720   5.855   5.635  12.083 -1.4708 -1.0357 -0.7898
44919SOL    HW240721   5.836   5.644  11.933 -0.8180  0.6997 -0.7939
44920SOL     OW40722  11.253   3.722   9.820  0.1769 -0.8569  0.4158
44920SOL    HW140723  11.223   3.695   9.734 -0.2854  2.7341 -0.7032
44920SOL    HW240724  11.185   3.781   9.852  1.9758  0.6165  1.7016
44921SOL     OW40725   6.948   9.688   0.543 -0.7050  0.0048 -0.2936
44921SOL    HW140726   6.966   9.778   0.568 -0.9397  0.0302 -0.2136
44921SOL    HW240727   6.876   9.694   0.480  0.1191 -0.0276 -1.2710
44922SOL     OW40728   7.459   2.680  11.219 -0.1270  0.1748 -0.1626
44922SOL    HW140729   7.498   2.760  11.255  1.6573 -0.7951  0.1637
44922SOL    HW240730   7.508   2.664  11.138 -1.2551  0.0151 -0.8408
44923SOL     OW40731   0.430   4.733   6.118  0.0853  0.0189  0.2159
44923SOL    HW140732   0.335   4.745   6.127 -0.0492 -1.5439  1.1144
44923SOL    HW240733   0.444   4.639   6.131  1.5047 -0.2199 -2.2945
44924SOL     OW40734  11.321  11.384   8.362  0.2506  0.1033  0.8170
44924SOL    HW140735  11.411  11.410   8.381  0.5915  0.0048 -0.5762
44924SOL    HW240736  11.278  11.465   8.335 -0.4000  0.3619  2.4584
44925SOL     OW40737   4.832   8.009   1.151  0.0234  0.3345 -0.1811
44925SOL    HW140738   4.746   7.993   1.190  0.0585 -0.9683 -0.5926
44925SOL    HW240739   4.852   7.929   1.103  1.8133  0.3002  0.5405
44926SOL     OW40740   7.016   4.006   6.770 -0.4205 -0.2249  0.0461
44926SOL    HW140741   7.044   4.028   6.859 -1.2803 -0.0525  0.2838
44926SOL    HW240742   6.922   4.022   6.770 -0.4347 -0.2511 -0.8895
44927SOL     OW40743   1.436   5.175   9.900 -0.5842  1.5674  0.2691
44927SOL    HW140744   1.431   5.087   9.938 -0.2707  1.2226 -0.4738
44927SOL    HW240745   1.523   5.178   9.860 -1.8410  0.9412 -2.7389
44928SOL     OW40746   6.672   1.595   1.390 -0.4623 -0.3638  0.3722
44928SOL    HW140747   6.641   1.602   1.300  0.1972 -1.0998  0.0819
44928SOL    HW240748   6.708   1.506   1.397  2.5409  0.7331  0.3733
44929SOL     OW40749  11.681   2.267   7.144 -0.1136  0.3182 -0.0538
44929SOL    HW140750  11.662   2.240   7.054  1.8338  2.4540 -1.2247
44929SOL    HW240751  11.713   2.357   7.135  0.5122  0.4604  2.7587
44930SOL     OW40752   7.529   7.005   5.100 -0.3149  0.0850  0.0137
44930SOL    HW140753   7.581   6.968   5.028 -2.2951 -0.1529 -1.3631
44930SOL    HW240754   7.525   6.934   5.165  0.2464 -0.2426 -0.2993
44931SOL     OW40755  10.959   7.868  10.246  0.0386 -0.3000 -0.5129
44931SOL    HW140756  11.008   7.944  10.215 -1.3406  0.2367 -1.5010
44931SOL    HW240757  11.020   7.821  10.302  2.8382 -1.3980 -4.0752
44932SOL     OW40758   7.566   3.372   0.157  0.4082  0.0559 -0.5333
44932SOL    HW140759   7.560   3.307   0.087  0.6454 -1.2942  0.6571
44932SOL    HW240760   7.651   3.357   0.197 -0.8777 -1.2541  1.9379
44933SOL     OW40761   4.990   1.045   2.945  0.1438 -0.1187 -0.0541
44933SOL    HW140762   4.935   0.988   2.892 -0.5542  0.7755 -0.3182
44933SOL    HW240763   5.015   1.116   2.886 -0.1186  0.5509  0.6225
44934SOL     OW40764   3.739   2.605  10.499  0.2564 -0.2952  0.2736
44934SOL    HW140765   3.732   2.700  10.485 -0.3587 -0.3002  0.5556
44934SOL    HW240766   3.724   2.567  10.412  2.4071 -0.0721 -0.2653
44935SOL     OW40767   2.969   6.772   6.811 -0.0518  0.1464  0.1218
44935SOL    HW140768   2.880   6.740   6.820  0.4312 -1.6574 -1.0160
44935SOL    HW240769   2.983   6.780   6.717  0.5783  1.7257  0.3066
44936SOL     OW40770   6.907   1.158  10.112 -0.5523 -0.0261 -0.0145
44936SOL    HW140771   6.936   1.172  10.202  2.5043  1.5549 -1.1187
44936SOL    HW240772   6.943   1.073  10.088  0.8358  0.6654 -0.4782
44937SOL     OW40773  10.246   2.372  12.304  0.7594 -0.0625 -0.3226
44937SOL    HW140774  10.306   2.397  12.375 -0.0733  1.8254 -0.2429
44937SOL    HW240775  10.188   2.307  12.345  2.2388 -1.3937 -0.2070
44938SOL     OW40776   9.331   5.339   8.648 -0.3773 -0.4613  0.3122
44938SOL    HW140777   9.367   5.378   8.568  0.3608 -0.4443  0.6392
44938SOL    HW240778   9.381   5.380   8.719 -1.5761  0.1343  0.8515
44939SOL     OW40779   7.296   5.132  11.956 -0.4424 -0.8286 -1.0431
44939SOL    HW140780   7.210   5.167  11.931 -0.8057 -1.8338 -1.2353
44939SOL    HW240781   7.352   5.209  11.960 -1.3536 -0.1498 -0.8982
44940SOL     OW40782   8.290   7.641  10.613 -0.2766 -0.7395 -0.3565
44940SOL    HW140783   8.255   7.708  10.671  1.4277  0.5074 -0.7000
44940SOL    HW240784   8.381   7.631  10.638  0.1387 -1.1743 -1.8952
44941SOL     OW40785   9.568   5.080   3.890  0.1448 -0.1720  0.6098
44941SOL    HW140786   9.562   5.062   3.984  0.7432 -2.6633  0.2294
44941SOL    HW240787   9.658   5.106   3.876 -0.3495  1.8625  0.9281
44942SOL     OW40788   1.394   0.387   9.232  0.1701  0.9865 -0.0015
44942SOL    HW140789   1.420   0.325   9.301  0.5177  0.1945 -0.8260
44942SOL    HW240790   1.386   0.333   9.153 -1.2945  1.6990 -0.3680
44943SOL     OW40791   1.307   8.655   0.695 -0.3529 -0.7775 -0.0627
44943SOL    HW140792   1.306   8.708   0.775 -0.1421 -1.7121  0.5882
44943SOL    HW240793   1.224   8.609   0.696 -0.5071 -0.5131 -0.5855
44944SOL     OW40794   0.471   1.075   8.035  0.0694  0.4412 -0.2139
44944SOL    HW140795   0.539   1.109   7.977 -0.3841  0.2843 -0.8437
44944SOL    HW240796   0.502   0.988   8.060 -0.0038  0.2792 -0.6804
44945SOL     OW40797   0.264   7.526   8.128 -0.4286 -0.1478  0.1852
44945SOL    HW140798   0.178   7.497   8.099 -0.4780  1.8637 -1.9004
44945SOL    HW240799   0.325   7.464   8.089 -0.8557 -1.8026  1.9679
44946SOL     OW40800   3.049   3.043   1.670  0.5625  0.2880 -0.4264
44946SOL    HW140801   3.139   3.020   1.691  1.0869  2.5351  0.0675
44946SOL    HW240802   3.056   3.114   1.606 -0.8680  0.0584 -0.8807
44947SOL     OW40803  10.052  10.491   8.517 -0.9156  0.6082 -0.2028
44947SOL    HW140804  10.080  10.443   8.439 -1.9379  0.5243 -0.5244
44947SOL    HW240805  10.132  10.535   8.548 -0.4503  0.4458 -1.1466
44948SOL     OW40806   0.398   8.833   4.023  0.2665 -0.2894 -0.2891
44948SOL    HW140807   0.326   8.808   4.080  0.9805 -0.4063  0.5890
44948SOL    HW240808   0.475   8.792   4.063  0.7226 -0.7826 -1.6150
44949SOL     OW40809  11.215   8.446  11.768 -0.0474  0.4698 -0.3339
44949SOL    HW140810  11.142   8.446  11.829 -0.0685 -1.7764 -0.2937
44949SOL    HW240811  11.293   8.455  11.824 -0.0343 -2.0191  0.1742
44950SOL     OW40812   1.684   7.373   1.225  0.1323 -0.7159 -0.2851
44950SOL    HW140813   1.774   7.344   1.238  0.7682  0.9393 -0.6621
44950SOL    HW240814   1.666   7.429   1.300 -1.0328 -1.9621  0.4106
44951SOL     OW40815   4.129  11.559   2.755 -0.0286  0.4550  0.5183
44951SOL    HW140816   4.225  11.560   2.758  0.0549  0.6517 -1.2080
44951SOL    HW240817   4.107  11.467   2.747  0.1534  0.5386 -1.3055
44952SOL     OW40818   3.271   1.685   5.251  0.3612  0.2611 -0.0080
44952SOL    HW140819   3.314   1.599   5.253  1.2515  0.7048  0.4491
44952SOL    HW240820   3.194   1.674   5.306  0.0540 -0.4541 -0.5587
44953SOL     OW40821   0.460   5.110   3.997  0.6452 -0.3370 -0.2631
44953SOL    HW140822   0.515   5.187   3.990  0.9929 -0.2931  1.9870
44953SOL    HW240823   0.479   5.059   3.919  2.2908  0.6818 -0.5769
44954SOL     OW40824   1.181   5.242  11.473 -0.5778  0.2383 -0.0880
44954SOL    HW140825   1.126   5.165  11.462 -3.0694  1.7705  0.9519
44954SOL    HW240826   1.127   5.315  11.443  0.7035  1.8826  1.4172
44955SOL     OW40827   5.620   3.339   8.242  0.0244  0.0762  0.8595
44955SOL    HW140828   5.586   3.378   8.162 -0.6070  1.4365  1.7575
44955SOL    HW240829   5.543   3.301   8.285  0.3533 -0.6097  0.8668
44956SOL     OW40830   7.964   6.421   1.005  0.5487  0.2963 -0.2122
44956SOL    HW140831   7.948   6.345   0.949  0.6768 -0.5792  0.9066
44956SOL    HW240832   8.046   6.458   0.971  1.3703 -1.0296  0.2098
44957SOL     OW40833   5.235   8.208   3.816  0.3203 -0.3642 -0.0063
44957SOL    HW140834   5.303   8.243   3.873  0.6383  0.9563 -1.1543
44957SOL    HW240835   5.283   8.157   3.750 -0.1129 -2.8361  1.4730
44958SOL     OW40836  11.859   5.005   6.120 -0.3142  0.2626 -0.1750
44958SOL    HW140837  11.941   4.998   6.169 -0.5450  0.2109  0.2097
44958SOL    HW240838  11.820   4.918   6.126 -0.6294  0.4165  0.0597
44959SOL     OW40839   5.552   3.741   1.647 -0.2346  0.0374 -0.9829
44959SOL    HW140840   5.540   3.835   1.636 -2.3597  0.4072  2.7258
44959SOL    HW240841   5.465   3.703   1.629  0.4330 -1.1859 -1.8098
44960SOL     OW40842   5.885  11.077   7.712 -1.0258  0.0828  0.0161
44960SOL    HW140843   5.952  11.145   7.718  0.5580 -1.4078  0.0703
44960SOL    HW240844   5.899  11.023   7.790 -2.5705 -0.0388  0.2267
44961SOL     OW40845   3.556   7.976  10.699  0.1737  0.1667  0.4247
44961SOL    HW140846   3.633   8.029  10.718  0.3542 -0.3396  1.1405
44961SOL    HW240847   3.591   7.900  10.652 -0.4813  2.5700 -4.6583
44962SOL     OW40848   0.710   0.301  12.158  0.2232 -0.7245 -0.1889
44962SOL    HW140849   0.663   0.384  12.169  0.6442 -0.4133 -0.7015
44962SOL    HW240850   0.801   0.322  12.180  0.5820 -0.7154 -1.5805
44963SOL     OW40851   4.473   3.082  11.580 -0.0115 -0.0195 -0.5224
44963SOL    HW140852   4.380   3.084  11.604 -0.7496 -0.0962 -3.1045
44963SOL    HW240853   4.508   3.165  11.614 -0.5807 -0.6752  1.8668
44964SOL     OW40854   2.227  12.082   1.486 -0.3736  0.0625  0.0362
44964SOL    HW140855   2.174  12.120   1.415 -0.2540  0.3429  0.0989
44964SOL    HW240856   2.186  11.997   1.502 -0.0062 -0.2903 -0.8174
44965SOL     OW40857   2.905   4.826   9.239 -0.0082 -0.3372  0.4349
44965SOL    HW140858   2.952   4.886   9.182  0.3322  0.5592  1.6314
44965SOL    HW240859   2.814   4.832   9.210 -0.0712  1.1607  0.8391
44966SOL     OW40860   9.612   8.819   5.275  0.0969 -0.4833 -0.0417
44966SOL    HW140861   9.546   8.873   5.318 -0.0374 -0.0768 -0.7491
44966SOL    HW240862   9.652   8.877   5.210  1.3905 -0.6183  0.6130
44967SOL     OW40863   1.164   2.264  11.581 -0.2951  0.2488  0.2650
44967SOL    HW140864   1.098   2.195  11.573  1.0027 -0.8260 -1.7943
44967SOL    HW240865   1.211   2.242  11.661 -1.5019  0.2325  1.0016
44968SOL     OW40866   7.553   5.979   3.093  0.7673  0.3577 -0.0695
44968SOL    HW140867   7.647   5.996   3.081  0.6286 -0.2452 -2.4489
44968SOL    HW240868   7.514   5.996   3.008 -0.9795 -1.3996  0.2916
44969SOL     OW40869   4.005   2.908   6.547  0.4016 -0.1516  0.2324
44969SOL    HW140870   4.055   2.855   6.609 -0.4020  0.4878  1.4876
44969SOL    HW240871   3.917   2.870   6.548  0.6774 -0.8853 -1.4708
44970SOL     OW40872   9.901   4.494   4.219 -0.1156 -0.8514  0.0122
44970SOL    HW140873   9.876   4.573   4.170 -0.3557 -0.1259  1.2454
44970SOL    HW240874   9.877   4.421   4.162 -1.4245 -0.0665 -0.4941
44971SOL     OW40875   6.641  10.355   2.700  0.2165 -0.1568  0.1100
44971SOL    HW140876   6.708  10.313   2.754  0.0307 -0.9372 -0.2456
44971SOL    HW240877   6.607  10.426   2.754 -2.1993 -2.8136  2.4081
44972SOL     OW40878  11.661   3.373   8.695 -0.5081 -0.0045  0.1028
44972SOL    HW140879  11.744   3.369   8.744 -0.4886  1.6805  0.2653
44972SOL    HW240880  11.627   3.283   8.699  1.2400 -0.7103  0.1335
44973SOL     OW40881  11.498   5.731  10.669  0.3622  0.1691 -0.2735
44973SOL    HW140882  11.451   5.716  10.587  1.7013 -0.2660 -1.0002
44973SOL    HW240883  11.517   5.824  10.668 -1.3445  0.5629  0.5370
44974SOL     OW40884   3.503  12.482   8.699  0.3111 -0.2367  0.5407
44974SOL    HW140885   3.422  12.449   8.659  0.0257  0.9875  0.0600
44974SOL    HW240886   3.474  12.554   8.755  1.0564  0.1974  0.3850
44975SOL     OW40887   4.026   3.717  12.389 -0.0918  0.0605  0.0110
44975SOL    HW140888   4.102   3.666  12.417  1.8071  2.0346 -1.2095
44975SOL    HW240889   4.008   3.775  12.464  0.3755  0.3995 -0.1360
44976SOL     OW40890   4.305  12.358   2.550 -0.1543 -0.0692 -0.5497
44976SOL    HW140891   4.346  12.288   2.602 -0.1299  0.1459 -0.2788
44976SOL    HW240892   4.359  12.435   2.566 -1.1627  0.4541  0.5341
44977SOL     OW40893   3.216  10.256   6.422  0.4264 -0.1005 -0.2883
44977SOL    HW140894   3.281  10.200   6.465  0.7314  0.8091  0.4533
44977SOL    HW240895   3.194  10.208   6.342  2.2567 -0.2908 -0.7388
44978SOL     OW40896   1.590   0.818   9.194 -0.3722  0.2287 -0.0124
44978SOL    HW140897   1.558   0.728   9.185  1.5220 -0.7436  2.0088
44978SOL    HW240898   1.671   0.810   9.244  1.7194  2.7591 -2.6003
44979SOL     OW40899   4.830   8.946   4.782 -0.0863  0.0142  0.3772
44979SOL    HW140900   4.908   8.957   4.836  0.9129 -3.4654 -0.1257
44979SOL    HW240901   4.863   8.921   4.696 -1.7629  1.3347 -0.7138
44980SOL     OW40902   6.538   5.860   7.179 -0.2106  0.0828 -0.2658
44980SOL    HW140903   6.498   5.831   7.098 -1.4122 -1.4486  0.8188
44980SOL    HW240904   6.587   5.784   7.210  0.7045  0.8266  0.1731
44981SOL     OW40905   3.628  12.441   5.781 -0.0223 -0.0683  0.9190
44981SOL    HW140906   3.606  12.429   5.688 -1.5624  2.0855  0.9470
44981SOL    HW240907   3.544  12.461   5.823  1.0319  1.6816  2.2888
44982SOL     OW40908   7.279   2.782   7.704 -0.1416 -0.2571 -0.2306
44982SOL    HW140909   7.349   2.809   7.763 -0.3942 -0.9787  0.4129
44982SOL    HW240910   7.289   2.687   7.696  0.3814 -0.0967 -1.9950
44983SOL     OW40911   9.272   5.066  10.576 -0.2566 -0.1340 -0.5527
44983SOL    HW140912   9.221   4.991  10.607 -0.6693  0.2144 -0.3766
44983SOL    HW240913   9.270   5.060  10.481  0.9053 -1.1416 -0.5331
44984SOL     OW40914  10.114   3.823   5.229 -0.2034 -0.2460 -0.3361
44984SOL    HW140915  10.061   3.803   5.152  0.0475 -2.0620 -0.0887
44984SOL    HW240916  10.164   3.743   5.245  0.3381  0.3676  1.2499
44985SOL     OW40917   7.625   7.598   3.391 -0.4478  0.0855  0.1174
44985SOL    HW140918   7.619   7.681   3.344 -0.3584 -0.0914 -0.2117
44985SOL    HW240919   7.607   7.620   3.483 -0.7375  0.4151 -0.0187
44986SOL     OW40920   1.566  10.347   3.381 -0.6902 -0.4476 -0.2336
44986SOL    HW140921   1.536  10.300   3.303  3.5200 -3.4387 -0.4275
44986SOL    HW240922   1.599  10.431   3.347  1.4565 -1.8544 -1.9681
44987SOL     OW40923  10.071   6.019   8.382 -0.0533  1.1081 -0.3144
44987SOL    HW140924  10.113   6.050   8.462  1.1809 -0.0125 -0.5034
44987SOL    HW240925  10.143   6.002   8.322 -0.8014 -0.2616 -0.8641
44988SOL     OW40926   9.847  10.984   6.007  0.4300  0.2263  0.2357
44988SOL    HW140927   9.917  10.919   6.009  0.5766  0.3868  0.3097
44988SOL    HW240928   9.768  10.935   6.029  0.7704  0.3730  1.9185
44989SOL     OW40929  10.061   1.488   5.305 -0.7055 -0.7437 -0.4185
44989SOL    HW140930  10.005   1.561   5.281 -2.5445 -1.5290  1.2191
44989SOL    HW240931  10.147   1.511   5.271 -1.1319  2.3479  0.3359
44990SOL     OW40932   0.935   4.902   2.483 -0.6393 -0.9578 -0.1183
44990SOL    HW140933   0.936   4.994   2.458  0.1021 -0.9178  0.0534
44990SOL    HW240934   0.954   4.854   2.402  1.1543 -0.8542  0.2079
44991SOL     OW40935   4.330   2.734  12.322  0.4853 -0.2929 -0.7725
44991SOL    HW140936   4.277   2.785  12.382  1.8818  0.7960 -0.4320
44991SOL    HW240937   4.281   2.652  12.311 -1.0259  0.4869 -0.1437
44992SOL     OW40938   8.586   5.354   8.677  0.0628 -0.1866 -0.5340
44992SOL    HW140939   8.491   5.361   8.675  0.0384 -0.0775 -3.5359
44992SOL    HW240940   8.604   5.288   8.744 -1.9286  1.3736  1.6901
44993SOL     OW40941   1.600   1.528  11.975 -0.3932 -0.0318  0.1000
44993SOL    HW140942   1.693   1.534  11.995 -1.1114  2.4588  3.9591
44993SOL    HW240943   1.577   1.437  11.995  1.0803 -0.5922 -0.5774
44994SOL     OW40944   4.346   3.473   3.931  0.2862 -0.2065 -0.3404
44994SOL    HW140945   4.256   3.477   3.900  0.4826 -1.1640 -1.0650
44994SOL    HW240946   4.374   3.565   3.933 -0.3628  0.0261 -1.1587
44995SOL     OW40947  11.040   7.507   9.576 -0.9114 -0.0402  0.5931
44995SOL    HW140948  10.983   7.431   9.583 -0.7468 -0.3649 -1.1290
44995SOL    HW240949  11.128   7.474   9.595 -0.9133 -0.1744  0.3731
44996SOL     OW40950   2.188   1.327   0.341  0.2196 -0.2722  0.0131
44996SOL    HW140951   2.282   1.343   0.347 -0.0945  1.4342  0.9745
44996SOL    HW240952   2.159   1.313   0.431 -0.8330  1.8938  0.0763
44997SOL     OW40953   7.613   7.304  10.320  0.1985 -0.1728 -0.5741
44997SOL    HW140954   7.670   7.233  10.349  0.1967 -0.6408 -1.6865
44997SOL    HW240955   7.639   7.379  10.375  1.5261 -0.5137 -0.7053
44998SOL     OW40956   5.085  10.841   4.221 -0.3272  0.5292  0.0307
44998SOL    HW140957   5.137  10.864   4.144 -0.8132  2.6754  0.2833
44998SOL    HW240958   4.998  10.823   4.186  0.2250 -2.0095 -0.2636
44999SOL     OW40959   8.745   5.845   2.146 -0.0457 -0.0542 -0.2408
44999SOL    HW140960   8.785   5.881   2.067 -1.5731  1.4255 -0.3880
44999SOL    HW240961   8.773   5.905   2.216 -1.9175  1.0136 -0.3480
45000SOL     OW40962  10.725   5.615  10.358  0.0827 -0.1612 -0.2576
45000SOL    HW140963  10.775   5.631  10.278 -0.9686  0.1305 -0.8817
45000SOL    HW240964  10.644   5.575  10.328  0.8677 -2.8602  0.9116
45001SOL     OW40965   5.122   7.652   1.701  0.4156 -0.0253  0.9252
45001SOL    HW140966   5.088   7.740   1.687 -1.0984 -0.5385  1.1587
45001SOL    HW240967   5.204   7.649   1.653 -1.8929 -0.0462 -3.4579
45002SOL     OW40968   9.185   5.453   5.097  0.5947 -0.5892 -0.0910
45002SOL    HW140969   9.250   5.499   5.043  1.3749  0.0721  1.3406
45002SOL    HW240970   9.189   5.362   5.066  2.4514 -0.6335  0.1449
45003SOL     OW40971   3.014  12.355   9.067 -0.4119 -0.8880  0.3398
45003SOL    HW140972   3.004  12.394   9.154 -1.3414 -1.2421  0.4014
45003SOL    HW240973   3.096  12.306   9.072  1.3323  1.7559 -0.0209
45004SOL     OW40974   1.462   9.982   7.533 -0.3721  0.1635  0.4282
45004SOL    HW140975   1.440  10.015   7.620  2.3201 -0.6702  1.5504
45004SOL    HW240976   1.441   9.889   7.536  2.9325 -0.6970  1.5929
45005SOL     OW40977   0.021   9.152  11.807 -0.0815 -0.0965 -0.7654
45005SOL    HW140978   0.038   9.181  11.897 -1.2419  1.5566 -1.0421
45005SOL    HW240979  -0.071   9.174  11.792  0.0263 -0.5904 -2.2848
45006SOL     OW40980   1.824   7.722   5.585  0.1560 -0.4602  0.5046
45006SOL    HW140981   1.756   7.674   5.539  1.3416 -0.5596 -1.2213
45006SOL    HW240982   1.785   7.808   5.602 -1.5616 -1.5576  2.5841
45007SOL     OW40983   0.841   2.709   3.067 -0.1999 -0.0665 -0.0830
45007SOL    HW140984   0.754   2.695   3.032 -1.0101 -1.2655  2.1965
45007SOL    HW240985   0.832   2.696   3.162  2.2055  0.9951  0.3913
45008SOL     OW40986   1.433  11.748   6.613 -0.6820  0.1034 -0.0854
45008SOL    HW140987   1.497  11.765   6.682 -1.9571  0.5121  1.0427
45008SOL    HW240988   1.393  11.664   6.638 -0.8589  0.0463 -0.5481
45009SOL     OW40989   3.359  12.372   6.615 -0.1315  0.3347  0.2122
45009SOL    HW140990   3.309  12.425   6.676 -0.0196 -0.4795  1.0278
45009SOL    HW240991   3.450  12.380   6.644  0.1942  1.5045 -1.0354
45010SOL     OW40992   0.427  11.104   4.967  0.6959  0.4571  0.1769
45010SOL    HW140993   0.504  11.049   4.981  0.7523  0.0518 -1.4759
45010SOL    HW240994   0.381  11.062   4.894 -0.2351  1.5851  0.0844
45011SOL     OW40995  11.407   3.286   2.128  0.2044  0.0960  0.5261
45011SOL    HW140996  11.416   3.224   2.055 -1.6732  0.9331 -0.4856
45011SOL    HW240997  11.474   3.353   2.111  0.1447 -0.0061 -0.1465
45012SOL     OW40998   4.939   6.085   2.713 -0.4968 -0.2298  0.3245
45012SOL    HW140999   4.899   6.167   2.684  0.5092  1.1433  2.5773
45012SOL    HW241000   4.914   6.022   2.645 -3.0172  1.4281 -0.4671
45013SOL     OW41001   8.426  11.610   3.875 -0.1282 -0.4828  0.5250
45013SOL    HW141002   8.446  11.552   3.801 -3.3012 -0.9170 -0.1325
45013SOL    HW241003   8.402  11.693   3.834 -0.9706 -0.4303  1.1151
45014SOL     OW41004   0.510   3.203   2.239 -0.3263  0.2978 -0.2529
45014SOL    HW141005   0.556   3.287   2.230 -0.0785  0.1175 -0.7183
45014SOL    HW241006   0.555   3.144   2.178 -0.5968 -0.1336 -0.0456
45015SOL     OW41007   4.408   0.421   9.269 -0.1114 -0.1888 -0.5600
45015SOL    HW141008   4.387   0.328   9.279  0.2878 -0.1634  0.6989
45015SOL    HW241009   4.501   0.427   9.293  0.0024  0.4611 -1.1352
45016SOL     OW41010   6.279   2.848   4.629 -0.0014  0.5078 -0.5566
45016SOL    HW141011   6.241   2.868   4.715  0.0127  1.8147 -0.8379
45016SOL    HW241012   6.235   2.908   4.569  2.6427  2.2936 -0.8748
45017SOL     OW41013   3.615   1.260   7.190  0.1324  0.0198  0.5427
45017SOL    HW141014   3.627   1.272   7.284  0.4255  0.2614  0.4777
45017SOL    HW241015   3.547   1.193   7.182  0.0887  0.0188  0.9254
45018SOL     OW41016   6.386   6.920   5.400  0.6073  0.1201 -0.1942
45018SOL    HW141017   6.394   6.971   5.320 -1.3965 -0.2271 -0.6628
45018SOL    HW241018   6.292   6.915   5.417  0.4823 -4.4525 -0.8766
45019SOL     OW41019   2.269   7.514   2.247  0.0438  0.2607  0.0953
45019SOL    HW141020   2.242   7.508   2.339 -1.7427 -1.6921 -0.4637
45019SOL    HW241021   2.325   7.438   2.233 -0.4768 -0.0004 -0.6495
45020SOL     OW41022   7.343   0.457   9.281  0.5436 -0.5512  0.6202
45020SOL    HW141023   7.429   0.452   9.238  0.1719 -1.5430 -0.0592
45020SOL    HW241024   7.358   0.510   9.359  2.1186 -1.8997  1.3005
45021SOL     OW41025   6.277  10.072   4.148  0.7506 -0.1065 -0.0030
45021SOL    HW141026   6.365  10.035   4.159  1.0461  0.7508  0.5955
45021SOL    HW241027   6.269  10.136   4.218 -0.9475 -1.2675  0.9270
45022SOL     OW41028  11.408   6.486   9.630  0.0889  0.2924 -0.2923
45022SOL    HW141029  11.402   6.537   9.711  0.4381 -1.6999  1.0560
45022SOL    HW241030  11.502   6.484   9.611 -0.0470  1.3023 -1.1489
45023SOL     OW41031   8.720  11.169   9.786  0.6322  0.4774  0.3415
45023SOL    HW141032   8.751  11.252   9.750 -2.0870  0.6758 -1.9473
45023SOL    HW241033   8.669  11.194   9.863  1.5760  0.6635  0.9249
45024SOL     OW41034   8.916   5.688   4.875  0.0158  0.0084 -0.5441
45024SOL    HW141035   8.919   5.642   4.959 -0.4182 -1.3550 -1.2473
45024SOL    HW241036   8.823   5.690   4.852 -0.1073  2.1146 -0.1101
45025SOL     OW41037  12.356   9.836   1.332 -0.2969  0.1829 -0.3113
45025SOL    HW141038  12.350   9.923   1.292  0.0431  0.5207  0.3435
45025SOL    HW241039  12.363   9.854   1.426 -2.4288 -0.6099  0.0506
45026SOL     OW41040   9.926   1.491   6.194  0.3667  0.3032 -0.0941
45026SOL    HW141041   9.964   1.530   6.116 -0.6952 -0.5472 -1.0707
45026SOL    HW241042   9.900   1.566   6.248 -2.0578  1.0684 -2.1138
45027SOL     OW41043   4.965   2.099   4.736 -0.0977 -0.4859  0.0027
45027SOL    HW141044   4.908   2.023   4.725  0.3005 -0.7524 -0.2122
45027SOL    HW241045   4.985   2.127   4.647 -1.2173  0.6080  0.0649
45028SOL     OW41046   3.145   9.630   2.982 -0.1484  0.1108 -0.1273
45028SOL    HW141047   3.088   9.649   2.907  0.2492  0.6860 -0.2970
45028SOL    HW241048   3.225   9.596   2.943  0.4445  1.3637 -0.0456
45029SOL     OW41049   4.560   3.105   6.055  0.0970  0.3520 -0.5067
45029SOL    HW141050   4.601   3.176   6.104 -0.0453  0.0668  0.0224
45029SOL    HW241051   4.523   3.047   6.121  0.3054 -0.2788 -0.9278
45030SOL     OW41052   7.208   6.554  11.790  0.2305  0.5630  0.4246
45030SOL    HW141053   7.164   6.557  11.875  0.2723  0.4167  0.4512
45030SOL    HW241054   7.221   6.646  11.767 -0.3774  0.6150  0.2691
45031SOL     OW41055   8.054   1.279   5.854  0.1811  0.3008 -0.2391
45031SOL    HW141056   8.084   1.193   5.882 -0.7902  0.1026  0.2632
45031SOL    HW241057   7.970   1.291   5.900  0.0414  1.2805 -0.7192
45032SOL     OW41058   5.082  11.428   1.428  0.4836  0.1035  0.5148
45032SOL    HW141059   5.035  11.353   1.390 -0.1228  0.7848 -0.1208
45032SOL    HW241060   5.129  11.466   1.355 -0.1677  1.0449  0.5658
45033SOL     OW41061   7.343   1.570  11.417  0.0635 -0.6480 -0.3358
45033SOL    HW141062   7.398   1.633  11.371  0.9463 -1.3737 -0.2902
45033SOL    HW241063   7.382   1.563  11.504 -1.6478  0.7937  0.6091
45034SOL     OW41064   2.516   1.023   7.074  0.1826  0.0445 -0.4333
45034SOL    HW141065   2.457   1.039   7.000  0.2738  0.5318 -0.4087
45034SOL    HW241066   2.565   1.105   7.082  0.7069 -0.2819 -0.3128
45035SOL     OW41067   5.049   8.196   8.070 -0.0580 -0.1498 -0.3836
45035SOL    HW141068   5.005   8.178   8.153  0.1744 -0.8510 -0.4104
45035SOL    HW241069   5.007   8.138   8.007 -2.7948  2.8996 -1.6210
45036SOL     OW41070   8.643   7.137   6.520 -0.4611  0.2014  0.2819
45036SOL    HW141071   8.622   7.119   6.611  1.6437 -0.8397  0.6304
45036SOL    HW241072   8.652   7.232   6.515 -2.2572  0.4202  0.7226
45037SOL     OW41073   3.593   1.693   8.619  0.1576  0.3008  0.0351
45037SOL    HW141074   3.648   1.685   8.696  0.3339  1.2679  0.0133
45037SOL    HW241075   3.579   1.787   8.608 -0.1832  0.1549 -0.8873
45038SOL     OW41076   2.999  12.083   1.476 -0.2055  0.3869 -0.3493
45038SOL    HW141077   3.091  12.079   1.447 -0.3561  1.1438 -0.9757
45038SOL    HW241078   2.978  11.993   1.502  0.9312  0.3377  0.4937
45039SOL     OW41079   3.204   7.381  11.802  0.0222 -0.7659  0.0869
45039SOL    HW141080   3.254   7.442  11.857 -0.9514  1.0640 -0.9653
45039SOL    HW241081   3.113   7.407  11.816 -0.3321 -1.2741 -1.2268
45040SOL     OW41082  11.055   2.368  11.024  0.1407  0.2370 -0.0532
45040SOL    HW141083  11.041   2.280  10.991 -1.5746 -0.1546  1.5587
45040SOL    HW241084  11.055   2.358  11.119 -0.0917  1.9812  0.1579
45041SOL     OW41085  11.079   6.499   7.381  0.3216  0.2888 -0.2333
45041SOL    HW141086  11.106   6.411   7.406  1.5402  0.2622 -1.5328
45041SOL    HW241087  11.013   6.523   7.446  1.3507 -0.8267  1.3001
45042SOL     OW41088  12.252  10.746   0.388 -0.1771 -0.2616 -0.4784
45042SOL    HW141089  12.278  10.774   0.300  0.5327  1.4354  0.2391
45042SOL    HW241090  12.286  10.657   0.396  2.8007  0.7609 -0.7057
45043SOL     OW41091   2.234   9.837   9.117  0.6155 -0.5244  0.4788
45043SOL    HW141092   2.317   9.838   9.165  0.9592  1.3445 -0.0976
45043SOL    HW241093   2.177   9.897   9.164 -0.3747 -1.6245  0.7418
45044SOL     OW41094   4.647   6.896   6.479 -0.3112  0.1822 -0.1321
45044SOL    HW141095   4.568   6.849   6.506  0.0547 -1.0750 -1.1461
45044SOL    HW241096   4.711   6.827   6.461  1.5185  1.1813  2.0078
45045SOL     OW41097   4.678   3.920   3.532  0.1094  0.3192 -0.2704
45045SOL    HW141098   4.728   3.883   3.605 -0.0067 -0.5256 -0.6079
45045SOL    HW241099   4.715   4.008   3.520 -1.2072  1.3166  2.1041
45046SOL     OW41100   3.443  12.125  11.225 -0.0369 -0.0674 -0.1518
45046SOL    HW141101   3.443  12.217  11.198 -0.3875  0.2010  0.7273
45046SOL    HW241102   3.360  12.113  11.270 -0.2424 -0.9731 -0.7552
45047SOL     OW41103   7.706  10.945   9.457 -0.1609 -0.0276  0.8859
45047SOL    HW141104   7.709  10.916   9.366  1.3580  1.6238  0.3499
45047SOL    HW241105   7.774  10.894   9.501 -0.6437 -0.5606  1.0253
45048SOL     OW41106   8.949   9.152   3.129 -0.3946  0.0556 -0.2944
45048SOL    HW141107   8.966   9.059   3.114 -0.4328  0.1492 -0.9920
45048SOL    HW241108   9.022   9.183   3.182  0.0269 -0.2086 -0.7129
45049SOL     OW41109  10.494   7.642  11.567 -0.8286 -0.1702 -0.2222
45049SOL    HW141110  10.559   7.646  11.637 -1.0376  2.4590 -0.0624
45049SOL    HW241111  10.516   7.563  11.518  3.2781  1.1501 -0.9015
45050SOL     OW41112   0.071   0.835   5.102 -0.1730  0.5945  0.1669
45050SOL    HW141113   0.105   0.854   5.015 -0.3239  1.2841  0.2510
45050SOL    HW241114  -0.003   0.895   5.112 -0.8625 -0.2625  0.3297
45051SOL     OW41115   2.362   1.527   5.271  1.0630 -0.7231 -0.0131
45051SOL    HW141116   2.282   1.475   5.266  0.9773 -0.7217  1.0479
45051SOL    HW241117   2.333   1.617   5.260  0.6046 -0.5240  2.3179
45052SOL     OW41118   1.752   6.475   2.691  0.3882  0.4710  0.4254
45052SOL    HW141119   1.677   6.474   2.632  0.4421 -1.1889  0.3322
45052SOL    HW241120   1.828   6.460   2.634  0.6342  0.7569  0.6793
45053SOL     OW41121  10.259  10.991   1.525 -0.4667 -0.0009 -0.7451
45053SOL    HW141122  10.170  10.978   1.493 -0.5650 -0.3804 -0.3191
45053SOL    HW241123  10.267  11.086   1.535 -0.8661  0.0241 -0.6631
45054SOL     OW41124   1.452   7.242   9.514  0.2466 -0.2920 -0.0242
45054SOL    HW141125   1.377   7.282   9.558 -1.4116 -1.4104 -1.6704
45054SOL    HW241126   1.469   7.163   9.565  1.0624  0.5156  0.9976
45055SOL     OW41127   6.065  11.577   0.503 -0.1773 -0.0009 -1.0927
45055SOL    HW141128   6.139  11.615   0.551 -0.7809  2.0086 -1.6574
45055SOL    HW241129   5.991  11.584   0.564  0.3215 -3.5978  0.1536
45056SOL     OW41130  11.689   5.815   3.535  0.5706 -0.4634 -0.4893
45056SOL    HW141131  11.780   5.841   3.552  0.1581  1.1515 -0.5102
45056SOL    HW241132  11.649   5.808   3.622  0.6122 -0.7718 -0.4943
45057SOL     OW41133   7.091   3.300  10.459  0.0412  0.4463  0.3869
45057SOL    HW141134   7.066   3.229  10.401 -2.0711  0.3059  1.3544
45057SOL    HW241135   7.022   3.301  10.526  1.2687  1.9092  1.7102
45058SOL     OW41136   8.922   7.902   2.704  0.2590  0.3611 -0.5192
45058SOL    HW141137   8.883   7.873   2.621  0.5299  0.2965 -0.6230
45058SOL    HW241138   8.996   7.843   2.718 -1.0959 -1.1231  0.9022
45059SOL     OW41139   5.035   2.241   8.236  0.0763 -0.4059 -0.2675
45059SOL    HW141140   5.031   2.151   8.204  1.2647 -0.3431 -0.6614
45059SOL    HW241141   5.111   2.242   8.294 -2.0619 -0.5291  2.7295
45060SOL     OW41142   7.281   0.087   2.420 -0.1379 -0.4458 -0.3235
45060SOL    HW141143   7.245   0.053   2.502  0.1622 -1.0829 -0.4472
45060SOL    HW241144   7.370   0.050   2.416  1.1100  2.2234  0.6843
45061SOL     OW41145  10.120   5.495   6.686  0.4377  0.2464 -0.0080
45061SOL    HW141146  10.138   5.543   6.605 -1.5302  1.0345 -0.0280
45061SOL    HW241147  10.071   5.556   6.740 -0.7049 -1.2011  0.6449
45062SOL     OW41148  11.916   5.015  10.916 -0.2937 -0.1637 -0.5259
45062SOL    HW141149  11.964   5.098  10.918 -0.9398  0.2113  1.1624
45062SOL    HW241150  11.841   5.032  10.858 -0.8885  0.7276  0.4707
45063SOL     OW41151   8.725  10.257   0.851 -0.0208 -0.0641  0.3575
45063SOL    HW141152   8.641  10.211   0.847  0.1001 -0.5092  2.2004
45063SOL    HW241153   8.777  10.217   0.781 -2.0924  1.9443 -2.5280
45064SOL     OW41154   0.303   4.204   4.149 -0.2712  0.0255 -0.2094
45064SOL    HW141155   0.287   4.193   4.055 -2.9622 -0.8721  0.2817
45064SOL    HW241156   0.237   4.149   4.191 -0.4624  1.9859  2.2598
45065SOL     OW41157  11.411   7.717   3.338  0.4372 -0.0101 -0.3405
45065SOL    HW141158  11.418   7.802   3.380  0.8619 -0.2789  0.1491
45065SOL    HW241159  11.500   7.697   3.309  0.1496  0.1771 -1.3983
45066SOL     OW41160   0.347   7.796   4.010  0.0035  0.4894 -1.0135
45066SOL    HW141161   0.387   7.758   3.932 -0.0140  0.6351 -1.0937
45066SOL    HW241162   0.267   7.744   4.023  1.0152 -0.8880  0.0933
45067SOL     OW41163  12.427   3.794   6.066 -0.2630  0.2513  0.6097
45067SOL    HW141164  12.372   3.842   6.128 -0.0284  0.8315  0.3790
45067SOL    HW241165  12.392   3.705   6.066  0.2753  0.0178  2.2164
45068SOL     OW41166   0.680   8.871   0.978  0.8464 -0.4748 -0.1805
45068SOL    HW141167   0.658   8.782   1.006  2.0780 -0.1907  1.8513
45068SOL    HW241168   0.628   8.928   1.035  3.0245  0.1078  1.3509
45069SOL     OW41169   9.233   7.531   4.068 -0.3338  0.4124  0.2982
45069SOL    HW141170   9.202   7.572   3.988  0.2336 -0.0191 -0.1479
45069SOL    HW241171   9.306   7.476   4.041 -0.2708  0.0918  1.0771
45070SOL     OW41172   2.634   6.938   2.564  0.3389 -0.3958  0.5296
45070SOL    HW141173   2.543   6.959   2.581  0.6592 -0.7122  3.0252
45070SOL    HW241174   2.640   6.931   2.469 -2.4421 -1.3995  0.3397
45071SOL     OW41175   3.466   7.858   9.483 -0.1012 -0.0172  0.2021
45071SOL    HW141176   3.455   7.846   9.577  1.2813 -2.0195  0.1550
45071SOL    HW241177   3.424   7.782   9.443 -0.6926  0.8202 -0.8297
45072SOL     OW41178  10.703   1.412   0.447 -0.2854  0.2934 -0.2923
45072SOL    HW141179  10.738   1.383   0.532 -1.5450  0.5931  0.3504
45072SOL    HW241180  10.703   1.332   0.394 -0.0209 -0.0279  0.1758
45073SOL     OW41181  10.903   5.442   2.514  0.3033 -0.4755 -0.2902
45073SOL    HW141182  10.906   5.360   2.464  1.4845 -0.5968 -0.0515
45073SOL    HW241183  10.855   5.503   2.458 -1.8924 -1.6983  0.1230
45074SOL     OW41184   0.385   4.790   3.562 -0.5529 -0.0204  0.6495
45074SOL    HW141185   0.299   4.773   3.524 -0.4229 -0.5633  0.5832
45074SOL    HW241186   0.418   4.703   3.586  0.3175  0.0939 -0.0845
45075SOL     OW41187  10.888   8.258   2.933 -0.1639  1.0932 -0.1491
45075SOL    HW141188  10.809   8.259   2.879 -0.7190  1.2279  0.6375
45075SOL    HW241189  10.893   8.346   2.969 -0.5028  0.6624  0.9916
45076SOL     OW41190   4.782   0.618  10.558 -0.7701 -0.5663 -0.1685
45076SOL    HW141191   4.706   0.662  10.521 -0.0592  0.7030 -0.2032
45076SOL    HW241192   4.832   0.587  10.482  0.5327  1.7681 -0.3609
45077SOL     OW41193   1.188   5.509  10.065 -0.0327  0.8474  0.0429
45077SOL    HW141194   1.235   5.546   9.990  2.5795 -0.1161  1.0737
45077SOL    HW241195   1.182   5.581  10.128  1.3540  0.6694  0.4214
45078SOL     OW41196   3.456  11.646  12.225 -0.3106 -0.5367 -0.2165
45078SOL    HW141197   3.540  11.655  12.268 -0.3151  0.9715 -0.4709
45078SOL    HW241198   3.474  11.596  12.146  0.2929 -0.4871 -0.1091
45079SOL     OW41199  11.260  12.353   3.818 -0.5852  0.2856  0.6163
45079SOL    HW141200  11.293  12.300   3.746  2.0414 -1.2475  2.7758
45079SOL    HW241201  11.256  12.442   3.783  1.4515 -0.2615 -1.1763
45080SOL     OW41202  12.438  12.464  10.848 -0.5840 -0.0265 -0.1798
45080SOL    HW141203  12.533  12.467  10.859 -0.6924 -1.4127  1.6574
45080SOL    HW241204  12.424  12.472  10.754  1.3301  0.5073 -0.4575
45081SOL     OW41205   8.374   6.087  12.269 -0.8891  0.1559  0.1980
45081SOL    HW141206   8.286   6.078  12.233 -0.6067  0.5456 -0.6265
45081SOL    HW241207   8.367   6.056  12.359 -1.8935  0.2876  0.1733
45082SOL     OW41208   1.662   9.245   9.039  0.1367 -0.2705  0.0811
45082SOL    HW141209   1.581   9.234   9.090  0.9204  0.0060  1.4241
45082SOL    HW241210   1.683   9.338   9.048 -1.1756  0.4398 -3.0804
45083SOL     OW41211  11.865   7.782   0.316 -0.4021  0.6814  0.2535
45083SOL    HW141212  11.805   7.770   0.390 -1.2703  2.1848 -0.1743
45083SOL    HW241213  11.888   7.875   0.319 -0.8224  0.8747 -1.6409
45084SOL     OW41214   6.294   0.875   4.995  0.0555  0.1667  0.0117
45084SOL    HW141215   6.269   0.890   5.086 -0.6380  0.3585 -0.1977
45084SOL    HW241216   6.277   0.959   4.952  0.0982 -0.0066 -0.3510
45085SOL     OW41217   2.460   9.355   3.364 -0.1823  0.3853  0.2085
45085SOL    HW141218   2.517   9.278   3.372 -1.8583 -0.8386  0.8674
45085SOL    HW241219   2.456   9.391   3.453  0.6218  1.2810 -0.1048
45086SOL     OW41220  12.063  10.467   0.241  0.2152 -0.0233 -0.5073
45086SOL    HW141221  12.040  10.557   0.218 -2.7227 -0.4153  0.4585
45086SOL    HW241222  12.019  10.451   0.324  1.5206 -2.0611 -0.1315
45087SOL     OW41223   3.886   4.935  12.289  0.2480  0.2817 -0.0385
45087SOL    HW141224   3.795   4.908  12.279  1.0032 -3.0706  0.9774
45087SOL    HW241225   3.917   4.948  12.199 -1.1757  1.4605 -0.3923
45088SOL     OW41226   2.641   3.985   5.694 -0.4790  0.4244 -0.2707
45088SOL    HW141227   2.659   4.075   5.724  2.9586 -0.6910  1.5313
45088SOL    HW241228   2.615   3.939   5.774 -0.3057 -0.5987 -0.7997
45089SOL     OW41229  12.365  10.228   8.197 -0.5635 -0.5216  0.1025
45089SOL    HW141230  12.361  10.133   8.183 -1.4527 -0.3307 -1.2447
45089SOL    HW241231  12.368  10.264   8.108 -0.1819  0.7097  0.6050
45090SOL     OW41232  11.863   6.719  11.279  0.7740 -0.3779  0.1857
45090SOL    HW141233  11.810   6.680  11.209 -0.2511 -0.2745  0.9002
45090SOL    HW241234  11.808   6.786  11.317  1.7826  0.3982  0.3190
45091SOL     OW41235   1.319  10.175   1.235  0.1427  0.2071  0.3605
45091SOL    HW141236   1.384  10.105   1.231 -1.3575 -1.2531  0.2049
45091SOL    HW241237   1.358  10.247   1.186  1.0727 -1.1204 -0.9453
45092SOL     OW41238   8.610   6.876  10.392  0.0403 -0.0346 -0.1803
45092SOL    HW141239   8.550   6.889  10.319 -0.3085  1.0577  0.2801
45092SOL    HW241240   8.644   6.963  10.411  1.3403 -0.5407 -0.0486
45093SOL     OW41241   3.964   8.487   4.337  0.2536 -0.1966  0.2924
45093SOL    HW141242   3.906   8.413   4.352 -1.3827  0.9668  0.0422
45093SOL    HW241243   4.020   8.460   4.265 -0.2595 -1.2162  0.2607
45094SOL     OW41244   4.095   8.399   0.711 -0.0978 -0.3393 -0.2895
45094SOL    HW141245   4.044   8.324   0.679 -0.9928 -0.8573  2.1145
45094SOL    HW241246   4.044   8.432   0.785  1.3116  1.4055 -0.0409
45095SOL     OW41247   1.530  10.288   8.755  0.7189  0.6771 -0.1730
45095SOL    HW141248   1.498  10.315   8.841 -0.1872  1.0890 -0.6232
45095SOL    HW241249   1.484  10.205   8.737 -0.9956  1.7989 -1.2808
45096SOL     OW41250  10.110   7.317   2.085 -0.6677  0.3795 -0.4728
45096SOL    HW141251  10.032   7.263   2.069  0.1374 -0.9136 -0.1455
45096SOL    HW241252  10.095   7.396   2.033 -3.2133  1.1766  1.2725
45097SOL     OW41253   0.647   8.737   4.135 -0.2109 -0.1133  0.0641
45097SOL    HW141254   0.697   8.819   4.136  1.1942 -0.9305  1.2885
45097SOL    HW241255   0.605   8.734   4.221 -1.9411  0.2726 -0.7349
45098SOL     OW41256   2.979   1.275   0.303 -0.0107  0.0460 -0.1887
45098SOL    HW141257   3.061   1.323   0.303  0.1721 -0.2664 -0.2345
45098SOL    HW241258   2.943   1.290   0.390  0.5693 -0.6211  0.1745
45099SOL     OW41259   9.342  10.378   9.463  0.1079  0.4123  0.0670
45099SOL    HW141260   9.327  10.338   9.549  1.2842  0.9918  0.5689
45099SOL    HW241261   9.391  10.458   9.482  0.8269  0.3012 -1.1794
45100SOL     OW41262   7.795   4.916  12.265  0.0216 -0.3068 -0.1274
45100SOL    HW141263   7.819   4.964  12.186  0.8650  0.2792  0.4680
45100SOL    HW241264   7.874   4.917  12.319 -0.9696  0.6788  1.3950
45101SOL     OW41265  10.486   2.780   0.099  0.2888 -0.2474 -0.4921
45101SOL    HW141266  10.410   2.731   0.131  1.1477 -1.1741  0.2030
45101SOL    HW241267  10.556   2.760   0.161  0.7983  1.5628 -0.4252
45102SOL     OW41268   1.095   9.367   6.341  0.2971  0.1858 -0.0116
45102SOL    HW141269   1.141   9.329   6.266  1.0703  1.1347 -0.0369
45102SOL    HW241270   1.005   9.338   6.330  0.4128  0.2332 -1.2764
45103SOL     OW41271   4.842   9.453   8.527  0.0984 -0.2852  0.5161
45103SOL    HW141272   4.862   9.362   8.549 -0.8255 -0.3667  1.0578
45103SOL    HW241273   4.777   9.448   8.457  2.4756 -0.0188 -1.8898
45104SOL     OW41274   5.167  11.756  10.814 -0.3552 -0.5286  0.0024
45104SOL    HW141275   5.151  11.829  10.754  0.6838  0.1673  0.5451
45104SOL    HW241276   5.161  11.794  10.901  2.1971 -0.5720  0.2815
45105SOL     OW41277   1.747  10.436   2.444 -0.1138  0.1413  0.2204
45105SOL    HW141278   1.726  10.373   2.375 -1.2848  2.3394 -1.5572
45105SOL    HW241279   1.793  10.507   2.398 -0.2580  1.3327  1.8398
45106SOL     OW41280   2.867  12.222   4.883  0.5447 -0.2020 -0.9204
45106SOL    HW141281   2.935  12.158   4.865  0.6542 -0.2272 -0.4244
45106SOL    HW241282   2.912  12.293   4.930 -0.1679 -1.2579  1.5004
45107SOL     OW41283   1.691   3.563   0.077  0.3687 -0.3713  0.7917
45107SOL    HW141284   1.640   3.606   0.007 -0.7619  0.1767  1.9081
45107SOL    HW241285   1.776   3.607   0.075  0.9815 -1.5034 -1.3066
45108SOL     OW41286   8.678   7.187   5.925  0.4151  0.2598  0.2511
45108SOL    HW141287   8.602   7.243   5.907 -1.5793 -2.2508  0.2622
45108SOL    HW241288   8.753   7.245   5.917 -1.3610  2.4814 -1.6295
45109SOL     OW41289   0.267   9.599  11.276 -0.2376  0.0022  0.1597
45109SOL    HW141290   0.176   9.589  11.306 -0.0407  0.2771  0.8621
45109SOL    HW241291   0.320   9.591  11.356  0.3143  0.4552 -0.1539
45110SOL     OW41292   0.164   3.206   5.699 -0.1819  0.2021  0.2489
45110SOL    HW141293   0.082   3.234   5.658  0.6504  0.3440 -1.4078
45110SOL    HW241294   0.151   3.114   5.720 -0.3262 -0.1550 -1.2770
45111SOL     OW41295   7.739   3.469   3.917  0.0778 -0.1728  0.4916
45111SOL    HW141296   7.790   3.466   3.836 -0.6076 -0.2558  0.0448
45111SOL    HW241297   7.785   3.411   3.977 -0.2092 -1.3245 -0.3513
45112SOL     OW41298  11.864  12.307   8.084  0.4053 -0.6145 -0.0966
45112SOL    HW141299  11.899  12.359   8.011 -0.1337 -1.7849 -1.2171
45112SOL    HW241300  11.839  12.372   8.150  1.2846  0.4408 -0.7794
45113SOL     OW41301   5.786   4.752   2.899  0.5458 -0.1486 -0.0501
45113SOL    HW141302   5.791   4.830   2.842  1.7849 -0.5434 -0.5200
45113SOL    HW241303   5.752   4.683   2.841  0.4477 -0.2114  0.0826
45114SOL     OW41304   9.511   5.962   1.293  0.2149  0.0257 -0.5592
45114SOL    HW141305   9.445   6.026   1.319  1.1134  0.5303  0.5815
45114SOL    HW241306   9.570   6.011   1.235  0.3376 -0.0387 -0.4904
45115SOL     OW41307  10.637   6.981   9.392  0.0107 -0.1060 -0.4050
45115SOL    HW141308  10.671   6.892   9.402  0.5562 -0.1404 -2.1601
45115SOL    HW241309  10.542   6.970   9.384 -0.1937 -0.2742  1.7161
45116SOL     OW41310   4.616   0.375   2.528  0.4008 -0.1972 -0.0854
45116SOL    HW141311   4.579   0.341   2.609 -1.4508  0.2538 -0.6868
45116SOL    HW241312   4.601   0.306   2.464 -1.4279  0.8192 -0.8221
45117SOL     OW41313   9.325   8.188  10.133 -0.1941 -0.7738 -0.0238
45117SOL    HW141314   9.296   8.109  10.179  0.3532 -1.7111 -1.2389
45117SOL    HW241315   9.247   8.217  10.085 -0.4836 -0.3738  0.6692
45118SOL     OW41316   5.815   5.542   9.133 -0.3518  0.1886 -0.4441
45118SOL    HW141317   5.776   5.514   9.216 -1.4199 -0.0113 -0.9966
45118SOL    HW241318   5.876   5.612   9.158  0.5777 -0.9692  0.6781
45119SOL     OW41319  12.347   0.844   4.569 -0.2032  0.3994  0.5619
45119SOL    HW141320  12.259   0.847   4.531  0.3274  0.0602 -0.7877
45119SOL    HW241321  12.406   0.857   4.494  0.9094 -0.0504  1.3192
45120SOL     OW41322   8.744   8.103  11.578  0.4094 -0.0543 -0.6187
45120SOL    HW141323   8.697   8.166  11.631  0.9289 -1.1432  1.2219
45120SOL    HW241324   8.682   8.077  11.511 -1.2667 -0.6578  1.0951
45121SOL     OW41325   9.509   2.946  12.469  0.7754  0.2975  0.4856
45121SOL    HW141326   9.522   2.932  12.563  1.1680  1.3833  0.6079
45121SOL    HW241327   9.588   2.992  12.440  0.7007 -0.0991 -0.4036
45122SOL     OW41328  11.846   6.846   1.226  0.7916  0.6488 -0.2850
45122SOL    HW141329  11.818   6.819   1.313 -0.6752 -0.8779 -1.1692
45122SOL    HW241330  11.933   6.808   1.215  0.1896 -0.8144 -0.1811
45123SOL     OW41331  10.649   0.179   5.999  0.4276  0.4474  0.0410
45123SOL    HW141332  10.671   0.230   6.078 -0.8450 -0.1468  0.8090
45123SOL    HW241333  10.669   0.089   6.023 -0.2892  0.2225 -0.1784
45124SOL     OW41334   3.541   5.810   5.743 -0.2515 -0.3952  0.0542
45124SOL    HW141335   3.558   5.722   5.777  1.5403 -0.4914 -0.9869
45124SOL    HW241336   3.460   5.800   5.692  0.2209 -1.5653 -0.4916
45125SOL     OW41337   9.204   0.377   0.757 -0.1126 -0.8893 -1.3224
45125SOL    HW141338   9.293   0.411   0.750 -0.6120  0.5412 -1.0202
45125SOL    HW241339   9.197   0.314   0.685  1.0309 -0.7721 -1.5563
45126SOL     OW41340   2.490   7.990  10.678  0.0846 -0.0162 -0.3451
45126SOL    HW141341   2.457   8.000  10.768  0.1278 -0.0189 -0.3289
45126SOL    HW241342   2.548   7.914  10.683 -0.9165 -0.8208 -0.6418
45127SOL     OW41343   2.182   4.597   4.603 -0.1107  0.4303  0.6085
45127SOL    HW141344   2.255   4.654   4.623  0.3250 -0.1631  0.7453
45127SOL    HW241345   2.202   4.515   4.648  0.2559 -0.5130 -1.1823
45128SOL     OW41346   5.017   5.491   9.329 -0.5391 -0.5013 -0.2851
45128SOL    HW141347   5.086   5.538   9.283  0.9634 -2.3725 -0.0551
45128SOL    HW241348   5.040   5.500   9.422 -0.5888 -1.1345 -0.2069
45129SOL     OW41349   8.226   4.059   4.510  0.1081  0.1995 -0.1530
45129SOL    HW141350   8.217   4.097   4.598  0.3810 -1.7596  0.7796
45129SOL    HW241351   8.249   4.133   4.454 -1.4735  1.7555  1.1410
45130SOL     OW41352   0.038   7.396   5.238  0.4799  0.9829 -0.1624
45130SOL    HW141353  -0.009   7.337   5.179 -0.1384  1.3219 -0.0175
45130SOL    HW241354   0.091   7.451   5.180 -0.8346  1.9398 -0.4819
45131SOL     OW41355   8.756   1.437   1.232 -0.3131  0.5445  0.3734
45131SOL    HW141356   8.707   1.512   1.266  0.5363  0.9294  0.7798
45131SOL    HW241357   8.718   1.361   1.276  0.0627  0.9340  1.3982
45132SOL     OW41358   6.133   2.753   3.300 -0.3443 -0.0552 -0.2660
45132SOL    HW141359   6.048   2.783   3.269 -0.2645 -0.1503 -0.5802
45132SOL    HW241360   6.150   2.672   3.252  1.6798  1.9209 -3.2196
45133SOL     OW41361   6.981   8.019   9.147  0.6649  0.5300  0.2601
45133SOL    HW141362   7.067   8.040   9.109 -0.1451 -0.0307 -2.0314
45133SOL    HW241363   6.919   8.071   9.096 -0.5286 -0.4405  0.6823
45134SOL     OW41364   9.412   7.646  12.164 -0.4585  0.7357 -0.4671
45134SOL    HW141365   9.330   7.666  12.208  1.0001  0.9060  2.3753
45134SOL    HW241366   9.465   7.725  12.175  0.6159  0.0961 -0.9234
45135SOL     OW41367   8.127  10.609   6.504  0.2910 -0.4818 -0.1849
45135SOL    HW141368   8.194  10.582   6.443  1.6280  1.7637  0.1554
45135SOL    HW241369   8.162  10.587   6.590 -0.5686 -1.5745 -0.0935
45136SOL     OW41370  11.619  11.186   1.971 -0.2010  0.0882 -0.0993
45136SOL    HW141371  11.540  11.136   1.993 -1.1586  1.8400  0.6229
45136SOL    HW241372  11.609  11.207   1.878  0.6306 -1.6917 -0.6531
45137SOL     OW41373   3.881  11.165   9.521  0.1779 -0.5851 -0.5035
45137SOL    HW141374   3.833  11.233   9.473  0.5015  0.6881  0.8832
45137SOL    HW241375   3.882  11.197   9.612 -1.4921 -3.4718  0.6642
45138SOL     OW41376   5.147   4.374   9.525 -0.4771 -0.6662  0.0336
45138SOL    HW141377   5.177   4.398   9.613 -1.8305  1.7343 -0.0854
45138SOL    HW241378   5.052   4.369   9.533 -0.6744  0.3046 -1.4553
45139SOL     OW41379   9.946   7.905  10.989 -0.8163  0.4290  0.1771
45139SOL    HW141380   9.880   7.847  10.951  0.3772 -0.8922  0.0610
45139SOL    HW241381  10.016   7.907  10.924 -0.5908  1.5881  0.4256
45140SOL     OW41382   4.293   0.379   4.754  0.3423 -0.1800 -0.0832
45140SOL    HW141383   4.310   0.292   4.719 -2.2108 -0.6551 -0.3128
45140SOL    HW241384   4.309   0.371   4.848  1.6398 -0.4368 -0.3064
45141SOL     OW41385   8.528   6.083   5.183  0.5920  0.5502 -0.4855
45141SOL    HW141386   8.501   6.118   5.097 -0.0275  1.2974 -0.0010
45141SOL    HW241387   8.591   6.014   5.162 -0.0973  0.2201 -1.5837
45142SOL     OW41388  12.240   0.164   0.276  0.6397  0.0846  0.2967
45142SOL    HW141389  12.221   0.153   0.183 -0.1414  0.7354  0.3729
45142SOL    HW241390  12.179   0.105   0.320  1.3633 -0.6223  0.3933
45143SOL     OW41391   8.977  10.077  10.081 -0.2094  0.0731  0.5580
45143SOL    HW141392   9.013  10.165  10.092 -1.3682  0.6589 -0.2140
45143SOL    HW241393   8.887  10.083  10.114  0.1363 -1.1965  1.8435
45144SOL     OW41394  10.452   9.033   5.165 -0.4381 -0.0152 -0.5710
45144SOL    HW141395  10.385   9.076   5.219 -1.0466  0.8867 -1.9680
45144SOL    HW241396  10.408   8.955   5.131 -0.1115 -0.4918  0.0915
45145SOL     OW41397   9.907   4.294   5.581  0.0728  0.4245  0.1329
45145SOL    HW141398   9.889   4.243   5.660  0.2344 -0.4254 -0.3764
45145SOL    HW241399   9.827   4.288   5.530  0.3932 -0.0208 -0.3147
45146SOL     OW41400  10.723   2.519   3.754  0.0301 -0.3939 -0.2109
45146SOL    HW141401  10.741   2.426   3.768  0.0979 -0.0733  2.4782
45146SOL    HW241402  10.638   2.533   3.797  0.3575  0.9030  0.0698
45147SOL     OW41403   9.197   5.014   3.002 -0.1529  0.6072  0.1693
45147SOL    HW141404   9.125   5.011   2.939  0.1504 -0.0104 -0.1540
45147SOL    HW241405   9.163   5.067   3.074 -1.2102 -0.2768  0.3550
45148SOL     OW41406   0.117   6.133   6.183  0.1881 -0.3201 -0.2442
45148SOL    HW141407   0.178   6.140   6.109 -0.7605 -0.4870 -1.0610
45148SOL    HW241408   0.063   6.211   6.176  1.6034  0.9440  1.7251
45149SOL     OW41409  11.986   7.939  11.521 -0.0427  0.1166 -1.0117
45149SOL    HW141410  11.946   8.004  11.579  0.7527 -0.1114 -0.1767
45149SOL    HW241411  11.918   7.919  11.457 -1.6260 -0.9385  0.8728
45150SOL     OW41412   8.207   2.934   9.501 -0.3439 -0.1427  0.5549
45150SOL    HW141413   8.291   2.973   9.477 -0.9817  2.2951  1.9696
45150SOL    HW241414   8.226   2.880   9.578  0.2231 -1.1755 -0.2878
45151SOL     OW41415   0.033   2.507   5.490 -0.1428 -0.3401  0.8395
45151SOL    HW141416   0.091   2.578   5.462 -2.1184  0.9323 -0.3518
45151SOL    HW241417   0.056   2.433   5.434 -0.2080  0.4055 -0.1978
45152SOL     OW41418   9.051   2.024   0.505 -0.7178 -0.3389 -0.2255
45152SOL    HW141419   8.998   2.094   0.466 -0.9032  0.1182  0.8271
45152SOL    HW241420   9.077   2.059   0.590  3.4518  0.5809 -1.6282
45153SOL     OW41421   5.923   2.972   1.621 -0.2670  0.0508  0.4011
45153SOL    HW141422   5.837   2.961   1.663 -0.0183 -3.3309  0.2720
45153SOL    HW241423   5.902   2.991   1.529 -0.8009  2.0147  0.8819
45154SOL     OW41424   2.552   3.570  12.017 -0.2444 -0.0880 -0.3908
45154SOL    HW141425   2.611   3.642  12.041  0.0148 -0.3733 -0.1734
45154SOL    HW241426   2.599   3.522  11.949  0.5336 -1.3045  0.9317
45155SOL     OW41427   4.237   6.923   9.864 -0.0938  0.2432 -0.0929
45155SOL    HW141428   4.144   6.946   9.858 -0.3097 -0.6194 -0.0789
45155SOL    HW241429   4.266   6.962   9.947 -0.5112  0.2584  0.0471
45156SOL     OW41430   1.905   4.418   7.353  0.3459 -0.3075  0.1704
45156SOL    HW141431   1.968   4.454   7.415  0.9796 -0.0848 -0.5948
45156SOL    HW241432   1.877   4.335   7.393 -1.9957  1.4249  2.5539
45157SOL     OW41433   8.827   7.492  11.998 -0.0669  0.8327 -0.0076
45157SOL    HW141434   8.760   7.478  12.064  0.4552  1.7665  0.7411
45157SOL    HW241435   8.874   7.570  12.027  0.1437  1.3029 -1.5155
45158SOL     OW41436   7.478   6.704   3.503  0.3247 -0.5137 -0.1261
45158SOL    HW141437   7.438   6.783   3.467 -0.4379 -0.8125  0.0538
45158SOL    HW241438   7.452   6.703   3.595 -1.5833 -2.1288 -0.6088
45159SOL     OW41439   1.136  12.312   2.384  0.1487  0.1976 -0.5537
45159SOL    HW141440   1.139  12.217   2.376 -1.8252  0.0558 -0.1312
45159SOL    HW241441   1.089  12.341   2.306 -1.1329  0.6175  0.3499
45160SOL     OW41442   5.117   0.523   9.276  0.4655 -0.3818  0.4882
45160SOL    HW141443   5.026   0.537   9.250  0.1679 -0.9132  1.1839
45160SOL    HW241444   5.168   0.585   9.224 -0.1680 -0.8942 -0.7813
45161SOL     OW41445   9.589   2.473   9.611 -0.0784 -0.4723  0.1544
45161SOL    HW141446   9.567   2.536   9.542  1.3622 -1.6790 -1.4784
45161SOL    HW241447   9.624   2.527   9.682 -0.6913  0.7196 -0.4172
45162SOL     OW41448   2.338  10.541   2.854  0.1515  0.7546 -0.5635
45162SOL    HW141449   2.265  10.480   2.868  1.2816 -0.5644 -0.1044
45162SOL    HW241450   2.314  10.591   2.777 -0.3410 -1.0948 -1.6799
45163SOL     OW41451   8.148   1.736  10.553 -0.1437  0.1523 -0.2417
45163SOL    HW141452   8.060   1.727  10.588 -0.5498 -0.7083 -1.4229
45163SOL    HW241453   8.173   1.647  10.528  0.9398  0.4351 -0.2057
45164SOL     OW41454   2.282  12.323   1.643  0.2178 -0.8141 -0.6430
45164SOL    HW141455   2.238  12.263   1.583  0.8423  0.1228 -2.0857
45164SOL    HW241456   2.302  12.270   1.720  0.5607 -2.3982 -1.7793
45165SOL     OW41457   6.400  10.221   4.714  0.6732  0.0112  0.3094
45165SOL    HW141458   6.339  10.186   4.649  2.8236  1.8198 -2.9793
45165SOL    HW241459   6.346  10.277   4.770 -0.8736  1.1766 -2.1595
45166SOL     OW41460   9.784  11.961   3.912 -0.0521  0.1336  0.4082
45166SOL    HW141461   9.855  11.905   3.881  0.7512  0.7325  1.1293
45166SOL    HW241462   9.771  12.024   3.841 -1.3514 -1.2682 -0.6615
45167SOL     OW41463   2.814   2.564   5.477  0.1007  0.0869  0.2064
45167SOL    HW141464   2.756   2.640   5.474  0.2697  0.1802 -1.3262
45167SOL    HW241465   2.859   2.572   5.561 -0.8982  0.9040  0.6932
45168SOL     OW41466  11.206   3.642   7.064  0.1134  0.1770  0.2923
45168SOL    HW141467  11.135   3.585   7.034  0.9742  0.1445 -1.9492
45168SOL    HW241468  11.216   3.622   7.157 -2.2995 -0.3279  0.4907
45169SOL     OW41469   2.700   1.749   6.667 -0.5848 -0.2301 -0.2759
45169SOL    HW141470   2.753   1.826   6.649  0.0685 -0.4614  0.5825
45169SOL    HW241471   2.611   1.782   6.677 -0.3590  0.3727 -0.2248
45170SOL     OW41472  11.187   4.369   0.876 -0.7449  0.4803 -0.0840
45170SOL    HW141473  11.177   4.293   0.818  0.9285  0.1346  0.0258
45170SOL    HW241474  11.101   4.379   0.917 -1.4561 -0.3577 -1.2934
45171SOL     OW41475   6.119  11.129   3.181 -0.3049 -0.0991 -0.4684
45171SOL    HW141476   6.067  11.051   3.202  0.5618  0.0714  2.8498
45171SOL    HW241477   6.072  11.201   3.224  1.2227  0.4709  0.3125
45172SOL     OW41478   0.805   2.824   6.834 -0.4138  0.7346  0.0055
45172SOL    HW141479   0.753   2.845   6.757  0.2979  1.7628 -0.2218
45172SOL    HW241480   0.894   2.849   6.811  0.1606 -0.7954  0.4694
45173SOL     OW41481   9.173  10.786   5.965 -0.0708  0.5489  0.6680
45173SOL    HW141482   9.236  10.838   5.914  0.7418 -0.3980  0.6855
45173SOL    HW241483   9.199  10.799   6.056  0.8336 -0.7426  0.6161
45174SOL     OW41484   5.768   5.413   9.388  0.0172 -0.4695 -0.7230
45174SOL    HW141485   5.729   5.332   9.356  0.0190 -1.1534  0.9181
45174SOL    HW241486   5.719   5.434   9.467  2.0885 -0.6634  0.6833
45175SOL     OW41487   2.453   6.625   2.131  0.7169  0.2803 -0.4344
45175SOL    HW141488   2.531   6.581   2.096  1.1582 -0.1816  1.0484
45175SOL    HW241489   2.421   6.679   2.058  1.7690 -0.3787 -1.4212
45176SOL     OW41490   7.436  12.054  11.032  0.5499  0.4020 -0.7019
45176SOL    HW141491   7.470  12.106  11.105  1.3558  0.5292 -1.1520
45176SOL    HW241492   7.352  12.094  11.010  0.7786  0.9966 -0.5018
45177SOL     OW41493   9.549   0.140   7.690  0.1468 -0.1983  0.2723
45177SOL    HW141494   9.534   0.233   7.704 -0.1263 -0.4294  1.6346
45177SOL    HW241495   9.630   0.137   7.638  1.0472  0.7687  1.5307
45178SOL     OW41496  11.860   2.101   9.394 -0.1281  0.6237 -0.6451
45178SOL    HW141497  11.820   2.034   9.340  1.2633 -0.6411 -0.1875
45178SOL    HW241498  11.896   2.164   9.332  2.3131 -1.3100 -1.3564
45179SOL     OW41499   6.385  11.144   1.275 -0.2624  0.6190 -0.2581
45179SOL    HW141500   6.341  11.213   1.226 -1.9988  0.4868  1.0013
45179SOL    HW241501   6.432  11.190   1.344 -0.5310  0.6286 -0.0770
45180SOL     OW41502   2.616   7.908   0.237  0.2350  0.1761 -0.1442
45180SOL    HW141503   2.586   7.831   0.189  1.3995 -0.2759 -0.1792
45180SOL    HW241504   2.631   7.975   0.170  2.3160 -0.6014 -0.5244
45181SOL     OW41505  10.538   5.819   0.864 -0.3074 -0.2150 -0.1156
45181SOL    HW141506  10.553   5.737   0.909 -0.2838 -0.2488 -0.1850
45181SOL    HW241507  10.517   5.794   0.774  0.1010 -0.1270 -0.2373
45182SOL     OW41508  11.566   9.769  10.167  0.6693  0.0752 -0.0829
45182SOL    HW141509  11.633   9.701  10.163  0.6979  0.0147  1.1547
45182SOL    HW241510  11.555   9.797  10.076 -0.2464 -2.4567 -0.8454
45183SOL     OW41511   0.900  12.195   7.418  0.3748  0.1330  0.6336
45183SOL    HW141512   0.809  12.193   7.390  0.8849  2.5699 -1.5759
45183SOL    HW241513   0.911  12.280   7.460  1.4948 -0.4071  1.5006
45184SOL     OW41514   7.214   9.293   3.776 -0.0632 -0.4516 -0.2524
45184SOL    HW141515   7.269   9.278   3.700 -0.8898 -2.1280 -0.5881
45184SOL    HW241516   7.230   9.383   3.801  0.9770 -0.1725 -1.8078
45185SOL     OW41517   1.468   6.259   7.616 -0.1478  0.3515 -0.7430
45185SOL    HW141518   1.468   6.169   7.649  2.6776  0.4160 -0.2564
45185SOL    HW241519   1.452   6.251   7.523  2.4745 -1.0092 -1.1717
45186SOL     OW41520  10.844   4.536  10.002 -0.2415  0.1610  0.0213
45186SOL    HW141521  10.794   4.460   9.972 -0.6325  0.1875  0.6097
45186SOL    HW241522  10.815   4.608   9.945 -0.5992  0.0953  0.1218
45187SOL     OW41523  10.804   5.091   1.544 -0.0386  0.0785  0.5116
45187SOL    HW141524  10.816   5.150   1.469  2.3873 -0.4200  0.4263
45187SOL    HW241525  10.808   5.003   1.506 -0.9474 -0.1789  0.9834
45188SOL     OW41526   4.203   8.011   3.345  0.3111  0.6505  0.3288
45188SOL    HW141527   4.256   7.971   3.277 -0.6080  1.9189 -1.2015
45188SOL    HW241528   4.115   7.976   3.331  0.2813  0.2052  1.4844
45189SOL     OW41529  10.607   1.965  11.280 -0.1314  0.3317 -0.3353
45189SOL    HW141530  10.591   2.007  11.365 -1.1706  4.6274 -2.3883
45189SOL    HW241531  10.702   1.971  11.268  0.0730 -0.6684  0.6266
45190SOL     OW41532  12.012   7.567   9.009  0.9112 -0.2926 -0.3738
45190SOL    HW141533  12.096   7.540   8.972  1.3775  1.7530 -0.9055
45190SOL    HW241534  11.972   7.621   8.941  0.1309  0.5114  0.6938
45191SOL     OW41535   4.430   4.964  11.303 -0.3205  0.3546 -0.1704
45191SOL    HW141536   4.373   4.890  11.321  2.3206 -1.9635 -0.6255
45191SOL    HW241537   4.480   4.977  11.383  1.7628 -0.8604 -1.1732
45192SOL     OW41538   7.838   4.404   7.618  0.2975  0.2534 -0.1437
45192SOL    HW141539   7.860   4.472   7.683  2.8645 -1.6954  1.2253
45192SOL    HW241540   7.922   4.383   7.577 -0.4422 -1.9461 -0.6435
45193SOL     OW41541   9.653   4.820   3.872 -0.3687 -0.2218  0.2164
45193SOL    HW141542   9.590   4.748   3.869 -0.5380 -0.1235  1.0346
45193SOL    HW241543   9.601   4.899   3.860 -0.2368 -0.2101 -0.2869
45194SOL     OW41544   9.733   5.161   0.117 -0.3561  0.0759  0.3866
45194SOL    HW141545   9.746   5.179   0.024 -3.1138 -0.9817 -0.3174
45194SOL    HW241546   9.638   5.165   0.129 -0.2389 -1.8520  2.7028
45195SOL     OW41547  10.393   0.278   1.233  0.2664  0.6252  0.2434
45195SOL    HW141548  10.338   0.261   1.156 -0.3759  0.8464  0.6448
45195SOL    HW241549  10.431   0.364   1.217  0.3863  0.5308  0.0238
45196SOL     OW41550   0.206   8.965   0.029  0.1601  0.2682  0.6055
45196SOL    HW141551   0.182   9.023  -0.043 -0.4249  1.3471  1.6365
45196SOL    HW241552   0.302   8.964   0.029  0.1689 -0.1571 -0.4858
45197SOL     OW41553   9.538  10.265   9.073  0.2348 -0.3017 -0.9054
45197SOL    HW141554   9.476  10.227   9.010 -0.9429  0.7253 -0.3989
45197SOL    HW241555   9.596  10.319   9.020  0.2652 -0.7126 -1.3011
45198SOL     OW41556   1.608   3.956   1.234 -0.3419 -0.6250  0.2499
45198SOL    HW141557   1.676   4.021   1.250 -2.2363  1.4085  0.6361
45198SOL    HW241558   1.636   3.910   1.155  1.9789 -0.6605  1.0202
45199SOL     OW41559  10.807   6.401   1.873 -0.7928  0.2164 -0.1129
45199SOL    HW141560  10.872   6.367   1.935 -2.4657  0.6883  2.0404
45199SOL    HW241561  10.753   6.325   1.851 -1.0950  0.3277  0.2213
45200SOL     OW41562   7.142   8.457  11.709 -0.3193  0.5488 -0.0191
45200SOL    HW141563   7.075   8.459  11.778 -0.3554 -0.4391 -0.0128
45200SOL    HW241564   7.224   8.476  11.755 -0.3663  0.0715  0.2740
45201SOL     OW41565   4.681   4.770   7.044  0.6838 -0.0691 -0.0895
45201SOL    HW141566   4.718   4.742   6.960  0.2890  1.8725 -0.9674
45201SOL    HW241567   4.628   4.847   7.023  1.9524  1.5503  2.1802
45202SOL     OW41568   7.128   0.973   6.781  0.0112 -0.2276  0.1646
45202SOL    HW141569   7.096   1.033   6.713 -0.3280 -0.8390 -0.2238
45202SOL    HW241570   7.223   0.975   6.771  0.1925  1.8975  1.5785
45203SOL     OW41571   4.779  10.013   2.423  0.4675 -0.1720  0.4447
45203SOL    HW141572   4.782   9.925   2.461 -0.6415  0.4317  2.0581
45203SOL    HW241573   4.723  10.004   2.347  0.9112 -0.9837  0.1967
45204SOL     OW41574  12.237   6.781   9.176  0.0469  0.3182 -0.3127
45204SOL    HW141575  12.245   6.860   9.229  0.4718 -0.0202  0.1339
45204SOL    HW241576  12.174   6.726   9.223 -1.6868  1.1388 -1.5630
45205SOL     OW41577  11.640   0.793   2.069 -0.0802  0.6586  0.4285
45205SOL    HW141578  11.567   0.733   2.051 -0.3083  1.4550 -1.6364
45205SOL    HW241579  11.608   0.849   2.139 -0.7080 -0.2161  0.8709
45206SOL     OW41580   1.633   9.046   0.840 -0.0127  0.2192 -0.0961
45206SOL    HW141581   1.559   9.039   0.900  1.1757 -0.3359  1.3837
45206SOL    HW241582   1.612   8.984   0.769 -1.9770  1.7354 -0.9304
45207SOL     OW41583   4.100  12.290   3.769 -0.2477  0.0577  0.1699
45207SOL    HW141584   4.054  12.254   3.694 -0.6367  1.8153 -0.4720
45207SOL    HW241585   4.193  12.284   3.746 -0.3968  1.3184 -0.8146
45208SOL     OW41586   4.198   0.201   1.446 -0.1914 -0.0119  0.3338
45208SOL    HW141587   4.221   0.111   1.422  0.6626 -0.1150  1.4593
45208SOL    HW241588   4.113   0.216   1.405  0.4187 -0.7462 -1.2826
45209SOL     OW41589   6.449   1.843   4.397 -0.0527  0.4980  0.1008
45209SOL    HW141590   6.420   1.798   4.476  0.8906 -0.8453 -0.2876
45209SOL    HW241591   6.463   1.934   4.425 -1.3498  0.4236  1.0572
45210SOL     OW41592  10.111   3.159   3.527  0.0234 -0.3050 -0.1515
45210SOL    HW141593  10.205   3.174   3.540 -0.5819  1.5381  3.2850
45210SOL    HW241594  10.088   3.093   3.593 -0.9644 -1.6301 -1.7434
45211SOL     OW41595  10.374  10.514   2.640  0.1621 -0.1434 -0.2937
45211SOL    HW141596  10.355  10.521   2.733  1.8743 -1.0134  0.1514
45211SOL    HW241597  10.357  10.423   2.618  3.0075 -0.8477  0.0093
45212SOL     OW41598   8.851   6.724   8.287 -0.3574 -0.3751 -0.2881
45212SOL    HW141599   8.937   6.744   8.323 -0.3621  1.0867 -1.0061
45212SOL    HW241600   8.869   6.672   8.209 -0.1253 -0.1161 -0.4095
45213SOL     OW41601   9.048   6.969   0.311 -0.4938 -0.2337  0.0905
45213SOL    HW141602   9.046   7.020   0.230 -1.0364  2.0384  1.4388
45213SOL    HW241603   8.977   6.906   0.301  0.7654 -1.4381 -2.0119
45214SOL     OW41604   6.393   2.649  11.557  0.3898  0.1519 -0.1908
45214SOL    HW141605   6.437   2.595  11.491  0.2430  1.2701 -1.2339
45214SOL    HW241606   6.443   2.634  11.637  0.1195 -1.8164 -0.3411
45215SOL     OW41607   3.327   2.533  11.136  0.1486 -0.0015 -0.3904
45215SOL    HW141608   3.419   2.559  11.127  0.3092 -0.0808  0.8371
45215SOL    HW241609   3.330   2.454  11.190 -0.7702  1.3929  1.8245
45216SOL     OW41610  10.644   3.464   6.608 -0.6560  0.1438  0.5131
45216SOL    HW141611  10.611   3.553   6.623 -1.3005  0.0201 -0.0970
45216SOL    HW241612  10.569   3.407   6.624 -0.1819 -0.3134  1.1319
45217SOL     OW41613  12.109   0.405   1.342 -0.2577 -0.1928 -0.0751
45217SOL    HW141614  12.106   0.368   1.254  0.1763  1.7742 -0.9597
45217SOL    HW241615  12.054   0.483   1.338  0.8831  0.7132  0.9842
45218SOL     OW41616   3.336   0.513  11.456  0.6240  0.1803 -0.0994
45218SOL    HW141617   3.348   0.549  11.544 -0.5789  1.4300 -0.4156
45218SOL    HW241618   3.294   0.427  11.471  2.3148 -0.5622  0.6062
45219SOL     OW41619   9.752   7.970   8.228  0.5858  0.2723  0.0430
45219SOL    HW141620   9.746   7.893   8.284  3.1708 -0.1534 -0.1406
45219SOL    HW241621   9.827   7.953   8.171  0.2757  2.2681 -1.0743
45220SOL     OW41622   6.881   4.967   3.180 -0.2621 -0.2379 -0.4939
45220SOL    HW141623   6.916   5.056   3.175  1.0032 -0.7432 -0.8245
45220SOL    HW241624   6.859   4.955   3.273 -0.1163  0.2943 -0.3885
45221SOL     OW41625   3.236   6.312   5.749 -0.8805 -0.1337 -0.0111
45221SOL    HW141626   3.269   6.384   5.803 -0.9979 -1.0901  1.3932
45221SOL    HW241627   3.199   6.355   5.672  0.2312  1.2098  0.1567
45222SOL     OW41628   8.611   6.221   5.998  0.2359 -0.1648 -0.0441
45222SOL    HW141629   8.677   6.158   5.970 -0.2932 -0.9033  0.3382
45222SOL    HW241630   8.532   6.169   6.013 -0.6839  0.7995 -1.2917
45223SOL     OW41631   4.778  11.003   8.984 -0.2303 -0.1485  0.0943
45223SOL    HW141632   4.824  11.006   9.069  1.8302  0.8210 -0.9749
45223SOL    HW241633   4.724  11.082   8.984 -0.4139 -0.2666  0.5825
45224SOL     OW41634   0.950   1.136  12.253 -0.3958 -0.5386 -0.2406
45224SOL    HW141635   0.904   1.056  12.231 -1.5293  0.1137 -0.3072
45224SOL    HW241636   0.924   1.155  12.343 -1.0730  0.3657 -0.6113
45225SOL     OW41637  10.115   3.117   1.947 -0.2477 -0.6541  0.3665
45225SOL    HW141638  10.116   3.063   2.025 -1.8588  0.4800  1.2198
45225SOL    HW241639  10.208   3.127   1.924  0.3508 -0.2512  2.6783
45226SOL     OW41640   4.222   9.358  10.495 -0.1843  0.0196  0.1106
45226SOL    HW141641   4.289   9.400  10.440  0.3422  0.3027  0.9371
45226SOL    HW241642   4.148   9.418  10.492  0.5627  1.0734  1.2800
45227SOL     OW41643   1.763   6.323   3.347 -0.3213 -0.2702  0.0617
45227SOL    HW141644   1.852   6.341   3.316 -0.4512 -0.4658 -0.4244
45227SOL    HW241645   1.748   6.389   3.415 -0.3165  0.6771 -0.8242
45228SOL     OW41646   2.430  12.051   6.028  0.2463  0.6174 -0.0768
45228SOL    HW141647   2.452  12.047   6.121  1.2011 -0.4809 -0.3268
45228SOL    HW241648   2.352  12.107   6.024 -0.6422 -0.4084  1.5433
45229SOL     OW41649   7.861  10.142  11.247 -0.0236  0.6510 -0.0322
45229SOL    HW141650   7.781  10.150  11.300 -0.0963 -1.4727  0.2649
45229SOL    HW241651   7.866  10.049  11.225  2.7532  0.5717  0.5704
45230SOL     OW41652   8.384   3.124   5.222 -0.4729  0.3396 -0.0514
45230SOL    HW141653   8.400   3.041   5.267  0.6533  0.2965 -0.5033
45230SOL    HW241654   8.318   3.169   5.276  0.9648  0.3837  1.7550
45231SOL     OW41655   9.805   9.847   9.353 -0.3641  0.1148  0.3097
45231SOL    HW141656   9.784   9.913   9.286  0.5894  0.6094  0.4686
45231SOL    HW241657   9.736   9.782   9.346 -0.1390  0.0146 -1.3503
45232SOL     OW41658  10.138   6.929   1.529  0.0022  0.0502 -0.2583
45232SOL    HW141659  10.052   6.942   1.569 -0.3393  0.1894 -1.0203
45232SOL    HW241660  10.175   6.853   1.574 -0.1463  0.5047  0.6745
45233SOL     OW41661   4.400   3.478   5.533 -0.1278  0.0700  0.0109
45233SOL    HW141662   4.451   3.556   5.551 -0.2687  0.3625 -0.7903
45233SOL    HW241663   4.361   3.453   5.617 -0.4712  1.1427  0.1791
45234SOL     OW41664   5.651   9.924   9.448 -0.0294  0.8403 -0.2560
45234SOL    HW141665   5.579   9.961   9.499 -0.1495 -0.8411  0.8585
45234SOL    HW241666   5.724   9.921   9.510  0.2581  0.1471 -0.6222
45235SOL     OW41667   3.035   5.201   1.543 -0.7946 -0.1073  0.3452
45235SOL    HW141668   2.977   5.125   1.541  1.2032 -1.7071 -0.3505
45235SOL    HW241669   3.084   5.196   1.461  1.6468  0.0502  1.6904
45236SOL     OW41670  10.925   7.182   7.834  0.5251  0.2428 -0.0946
45236SOL    HW141671  10.887   7.192   7.747 -0.0325  0.8542  0.2132
45236SOL    HW241672  10.853   7.149   7.888  0.3164  1.6739  0.5576
45237SOL     OW41673   8.892   3.985   0.003  0.3961  0.2040  0.5687
45237SOL    HW141674   8.980   4.022  -0.003  1.1233 -1.6158 -2.3824
45237SOL    HW241675   8.906   3.891   0.006 -1.4526 -0.0905  1.0365
45238SOL     OW41676   3.030   4.681   6.116  0.1648 -0.2846  0.7246
45238SOL    HW141677   2.967   4.744   6.151 -0.6955 -1.0358  0.5740
45238SOL    HW241678   3.024   4.694   6.021  1.5088  0.8187  0.7605
45239SOL     OW41679   8.945  11.702  12.136  0.3521  0.8292  0.3077
45239SOL    HW141680   9.034  11.736  12.139  0.3247  0.9490 -0.2688
45239SOL    HW241681   8.955  11.607  12.135  0.4452  0.8195  1.1687
45240SOL     OW41682   9.068  10.525  10.300 -0.6348  0.1754  0.3084
45240SOL    HW141683   9.155  10.499  10.271 -0.7324  1.0250 -0.8440
45240SOL    HW241684   9.027  10.444  10.331  0.9601 -0.0370  2.0035
45241SOL     OW41685   9.796  10.028   5.952  0.2028 -0.4534 -0.9455
45241SOL    HW141686   9.710  10.065   5.932 -0.3009 -1.6855 -1.1304
45241SOL    HW241687   9.778   9.936   5.972  1.0979 -0.1099  1.8630
45242SOL     OW41688   0.560   9.161   1.927 -0.3435 -0.4801 -0.2564
45242SOL    HW141689   0.519   9.207   1.854  0.6006  1.9738  0.6578
45242SOL    HW241690   0.602   9.230   1.978 -1.4089 -1.9845  2.9287
45243SOL     OW41691   2.105   7.148  10.064  0.4670  0.1345  0.0407
45243SOL    HW141692   2.130   7.238  10.083  0.1089  0.6618 -1.7744
45243SOL    HW241693   2.023   7.155  10.016  1.1598 -1.0341 -1.4000
45244SOL     OW41694   7.464   4.169   3.088  1.0090  0.3644 -0.0630
45244SOL    HW141695   7.392   4.216   3.130 -0.4775 -1.3028 -0.6038
45244SOL    HW241696   7.501   4.115   3.157 -0.0008 -0.7293 -0.3463
45245SOL     OW41697   7.159  11.973   1.227 -0.1327  0.0572 -0.2870
45245SOL    HW141698   7.123  11.885   1.213 -0.7603  0.4316 -1.1570
45245SOL    HW241699   7.198  11.970   1.314  0.7618 -1.3805 -0.7083
45246SOL     OW41700   8.723   3.334   0.898  0.5563 -0.4558 -0.0220
45246SOL    HW141701   8.787   3.390   0.941  1.3170 -1.8385  0.7034
45246SOL    HW241702   8.640   3.353   0.943  1.0043 -0.6294  0.8947
45247SOL     OW41703  11.966   7.735   3.755 -0.2210 -0.4919  0.1245
45247SOL    HW141704  12.035   7.708   3.695  0.4696 -0.4013  0.8531
45247SOL    HW241705  11.894   7.762   3.699  0.2157 -0.8997 -0.6486
45248SOL     OW41706  10.348  10.277   1.634 -0.2203  0.3147 -0.6950
45248SOL    HW141707  10.337  10.226   1.715 -0.8378 -0.4185 -1.2193
45248SOL    HW241708  10.436  10.312   1.640 -0.1410  0.0086  0.1529
45249SOL     OW41709   3.284  12.414  11.448 -0.2597 -0.0764  0.0545
45249SOL    HW141710   3.292  12.327  11.486  0.8401  0.3217  0.7934
45249SOL    HW241711   3.361  12.423  11.392 -0.8093  0.1147 -0.6882
45250SOL     OW41712   9.938   4.404  11.860  0.0727  0.5145  0.7588
45250SOL    HW141713   9.859   4.450  11.890 -1.1363 -0.8837 -0.1087
45250SOL    HW241714   9.929   4.402  11.764 -0.5427 -2.4249  0.7882
45251SOL     OW41715  10.701   6.351   3.049  0.2041 -0.1034 -0.3136
45251SOL    HW141716  10.657   6.405   2.983  0.5542  0.4556 -0.1041
45251SOL    HW241717  10.717   6.268   3.006 -0.9710 -0.2898 -0.4208
45252SOL     OW41718   1.650   7.136   8.261 -0.3005  0.0958 -0.0007
45252SOL    HW141719   1.579   7.072   8.247  0.0682 -0.2696 -0.2256
45252SOL    HW241720   1.608   7.209   8.306 -0.5280 -0.7183  1.1523
45253SOL     OW41721   4.803   4.783   2.542 -0.5214 -0.4869 -0.0269
45253SOL    HW141722   4.760   4.751   2.463  0.8638  1.1864 -1.5442
45253SOL    HW241723   4.823   4.875   2.523  1.4773 -0.5248  1.5400
45254SOL     OW41724   8.641   1.529   8.426  0.1321  0.0853 -0.7967
45254SOL    HW141725   8.706   1.575   8.373 -0.3125  0.4762 -1.0074
45254SOL    HW241726   8.598   1.599   8.476  0.8990 -0.3172  0.4873
45255SOL     OW41727   7.389   9.738   3.329  0.3450 -0.2254 -0.2062
45255SOL    HW141728   7.393   9.789   3.248  0.9112  0.6309  0.3422
45255SOL    HW241729   7.478   9.740   3.364 -0.3136  1.3838  1.5966
45256SOL     OW41730  11.681   1.924   5.931 -0.2462  0.0332  0.3328
45256SOL    HW141731  11.621   1.907   5.858 -1.9788 -0.3442  1.7987
45256SOL    HW241732  11.718   2.011   5.911  0.4610 -0.6582 -1.6933
45257SOL     OW41733   6.568   5.315   7.355 -0.2835  0.0459  0.8618
45257SOL    HW141734   6.656   5.344   7.330 -0.1869  1.2159  2.3715
45257SOL    HW241735   6.518   5.320   7.274  0.6375  1.0441  0.3134
45258SOL     OW41736  10.177   8.591   4.354 -0.1729 -0.0834 -0.3224
45258SOL    HW141737  10.084   8.570   4.368 -0.4024  1.1095  0.1349
45258SOL    HW241738  10.214   8.514   4.312 -1.7178  0.0073 -1.9263
45259SOL     OW41739   3.992   1.534   6.269  0.1527  0.0769 -0.0774
45259SOL    HW141740   4.027   1.584   6.195  1.1637 -1.4720 -0.6950
45259SOL    HW241741   4.002   1.592   6.344 -0.2908  1.4374 -1.0346
45260SOL     OW41742   3.583  11.900   5.250 -0.1290 -0.7080  1.0778
45260SOL    HW141743   3.502  11.944   5.225  0.3508 -0.2390  0.2968
45260SOL    HW241744   3.642  11.914   5.176  0.5845 -1.2620  1.5219
45261SOL     OW41745   3.428   3.231   9.174  0.7786  0.1277  0.0350
45261SOL    HW141746   3.523   3.233   9.164  0.6624 -0.0746 -1.1827
45261SOL    HW241747   3.400   3.155   9.124  0.0351 -0.2547  1.0026
45262SOL     OW41748   6.660  11.371   3.241  0.4841 -0.3856 -0.0453
45262SOL    HW141749   6.691  11.428   3.311  0.1904  2.2646 -1.9079
45262SOL    HW241750   6.568  11.356   3.262  0.2531  0.8490 -0.0798
45263SOL     OW41751   7.840  10.749   9.883 -0.7913 -0.0125 -0.1636
45263SOL    HW141752   7.765  10.745   9.823  0.3150  0.1662 -1.5997
45263SOL    HW241753   7.852  10.842   9.901  0.3398  0.1452 -1.6007
45264SOL     OW41754   4.522   0.300   0.517  0.6198  0.2447 -0.2004
45264SOL    HW141755   4.514   0.383   0.471  2.1328  1.1778  1.0987
45264SOL    HW241756   4.444   0.251   0.493 -0.4291  2.1348 -0.8245
45265SOL     OW41757   3.624   2.767   5.911  0.5070  0.4595  0.0989
45265SOL    HW141758   3.674   2.826   5.968  0.3600  0.0166  0.6816
45265SOL    HW241759   3.658   2.786   5.823  2.9532 -1.0175  0.6320
45266SOL     OW41760   6.722   9.519  11.898  0.2131  0.3634 -0.0175
45266SOL    HW141761   6.666   9.442  11.892  0.6299  0.0517  0.0352
45266SOL    HW241762   6.810   9.484  11.914  0.3574  0.8631  0.3210
45267SOL     OW41763   4.366   0.799   8.971  0.6050  0.4216  0.2087
45267SOL    HW141764   4.409   0.714   8.970  0.2921  0.2454  1.0867
45267SOL    HW241765   4.278   0.782   8.936  1.0176  0.6674 -0.9974
45268SOL     OW41766   8.603  11.154   2.196  0.1476  0.5314  0.1992
45268SOL    HW141767   8.675  11.092   2.188  0.3739  0.8825 -0.6105
45268SOL    HW241768   8.580  11.153   2.289 -0.0663 -0.9841  0.1439
45269SOL     OW41769   0.805   8.486   1.966 -0.0451  0.4048  0.0597
45269SOL    HW141770   0.724   8.525   1.934  0.1302  1.6712  1.0871
45269SOL    HW241771   0.797   8.393   1.945 -0.8721  0.8212 -1.6526
45270SOL     OW41772   0.479  12.441  11.122  0.1149 -0.1884  0.1087
45270SOL    HW141773   0.525  12.477  11.045 -1.4638  0.9182 -0.3834
45270SOL    HW241774   0.415  12.380  11.085  0.9469 -1.4865  0.7559
45271SOL     OW41775   5.459   1.308  11.186  0.2569  0.2564  0.1980
45271SOL    HW141776   5.546   1.317  11.147 -0.2730 -0.1562 -1.1209
45271SOL    HW241777   5.410   1.383  11.152  0.2129  0.7629  1.3262
45272SOL     OW41778   3.274   9.953   8.912 -0.0740  0.4760 -0.0060
45272SOL    HW141779   3.289   9.865   8.948 -0.6656  0.5247  0.3734
45272SOL    HW241780   3.184   9.950   8.879 -0.0757  0.9293 -0.0454
45273SOL     OW41781   5.592   5.898   3.208 -0.2055 -0.0116  0.5813
45273SOL    HW141782   5.638   5.951   3.142 -1.8989 -0.7602 -1.2987
45273SOL    HW241783   5.514   5.866   3.162 -1.5324 -0.4622  3.0237
45274SOL     OW41784   0.594   2.302   8.482 -0.1654 -0.1963  0.0539
45274SOL    HW141785   0.676   2.305   8.530 -0.0301 -1.6827 -0.0596
45274SOL    HW241786   0.598   2.222   8.431 -0.7816  0.7747 -1.6135
45275SOL     OW41787   3.667   1.319   3.192 -0.2871  0.1285 -0.0087
45275SOL    HW141788   3.672   1.226   3.170 -0.5532 -0.1033  0.8581
45275SOL    HW241789   3.574   1.336   3.206 -0.1914  0.4015  0.3369
45276SOL     OW41790  12.133   5.736   8.678 -0.6309  0.6648 -0.4021
45276SOL    HW141791  12.185   5.673   8.727 -0.6374  0.4374 -0.6865
45276SOL    HW241792  12.062   5.685   8.639 -0.4841  0.7969 -0.8534
45277SOL     OW41793   6.463   5.841   2.333  0.1576  0.3608 -0.0018
45277SOL    HW141794   6.370   5.861   2.323 -0.1530 -1.4742 -1.2414
45277SOL    HW241795   6.499   5.918   2.377 -2.1037  0.7404  1.3752
45278SOL     OW41796  12.303   6.194   9.975  0.3392  0.1537 -0.8349
45278SOL    HW141797  12.263   6.249  10.042 -1.0043 -0.5668 -1.0107
45278SOL    HW241798  12.230   6.168   9.918  0.9510 -1.6458 -0.8644
45279SOL     OW41799   4.821   5.109  10.645 -0.0782  0.1711  0.0638
45279SOL    HW141800   4.891   5.172  10.663 -0.9390  1.1613  0.0347
45279SOL    HW241801   4.838   5.037  10.706  1.2084  0.1819 -0.2462
45280SOL     OW41802   9.531  11.062  11.767  0.0348  0.5067  0.5739
45280SOL    HW141803   9.627  11.068  11.772  0.2173 -2.0685  1.9325
45280SOL    HW241804   9.500  11.127  11.830  0.9181  0.5788  0.9500
45281SOL     OW41805   6.870   1.872   8.504  0.4401 -0.0269 -0.3926
45281SOL    HW141806   6.947   1.822   8.533 -0.9307 -2.3023 -0.3881
45281SOL    HW241807   6.818   1.883   8.583  1.3715  2.8854 -0.0678
45282SOL     OW41808   9.223   4.048   8.830  0.3168 -0.3613  0.1919
45282SOL    HW141809   9.275   4.128   8.838  0.1279 -0.2514  0.3406
45282SOL    HW241810   9.146   4.064   8.885 -1.1135  0.4802 -1.8929
45283SOL     OW41811   4.686   1.358   9.825 -0.0723  0.4116  0.5987
45283SOL    HW141812   4.614   1.364   9.762 -0.7905 -1.5303  1.1497
45283SOL    HW241813   4.765   1.360   9.772 -0.6125  0.3209 -0.2317
45284SOL     OW41814   4.833   1.086   7.448 -0.4071  0.2654  0.2968
45284SOL    HW141815   4.738   1.101   7.451 -0.6721 -1.2532  0.0417
45284SOL    HW241816   4.862   1.099   7.538 -0.9665  0.0201  0.5152
45285SOL     OW41817   3.469   7.529   0.041  0.1275 -0.6877 -0.3549
45285SOL    HW141818   3.439   7.494   0.124 -0.3395  2.3571  0.8627
45285SOL    HW241819   3.564   7.532   0.050  0.3152 -2.6771 -1.0114
45286SOL     OW41820   6.067   7.618   2.153 -0.0939 -0.0806 -0.0865
45286SOL    HW141821   6.144   7.602   2.097 -0.1366  1.1943 -0.5448
45286SOL    HW241822   6.054   7.535   2.199 -0.8950 -1.6971 -2.9594
45287SOL     OW41823   9.887   4.856   7.146 -0.5371  0.4291  0.4879
45287SOL    HW141824   9.955   4.828   7.208  0.4446  0.4145 -0.5562
45287SOL    HW241825   9.922   4.937   7.108 -1.1387  0.4568 -0.0142
45288SOL     OW41826   0.806   3.253   0.125  0.1525 -0.5352 -0.1779
45288SOL    HW141827   0.757   3.254   0.207 -1.3630 -0.1221 -1.0700
45288SOL    HW241828   0.817   3.160   0.104 -1.9571 -0.6484 -0.9439
45289SOL     OW41829   0.198   8.169   9.179  0.1045 -0.1107  1.1422
45289SOL    HW141830   0.148   8.158   9.259 -0.0194 -0.8212  0.9767
45289SOL    HW241831   0.161   8.248   9.138 -1.5341 -1.1277  0.5629
45290SOL     OW41832   4.691   3.357   4.954  0.4341  0.0510  0.5199
45290SOL    HW141833   4.779   3.383   4.924  0.5701  0.0165  0.8811
45290SOL    HW241834   4.708   3.297   5.026  0.1200  1.9147  2.2244
45291SOL     OW41835   9.819   1.567   4.214 -0.3450 -0.5273 -0.0615
45291SOL    HW141836   9.796   1.602   4.128  0.4741  0.7508  0.2157
45291SOL    HW241837   9.768   1.487   4.221 -0.3245 -0.7350 -1.7925
45292SOL     OW41838   7.396   3.848   9.021  0.5763 -0.6495  0.3102
45292SOL    HW141839   7.375   3.925   9.073 -1.5554  0.5865 -2.1402
45292SOL    HW241840   7.481   3.868   8.980  0.7535 -0.2940  0.8455
45293SOL     OW41841   1.442   9.345   1.262  0.0186 -0.1155 -0.1113
45293SOL    HW141842   1.446   9.352   1.167 -1.0233 -0.6193 -0.2027
45293SOL    HW241843   1.358   9.305   1.280  0.1335  0.1145  1.0403
45294SOL     OW41844  11.018   9.171   2.350 -0.1467 -0.6922 -0.5066
45294SOL    HW141845  10.986   9.098   2.402  0.3732 -0.1989  0.5510
45294SOL    HW241846  10.944   9.197   2.296 -0.0175 -2.6664 -1.7029
45295SOL     OW41847   5.641   5.402   6.413 -0.6102 -0.7229  0.0364
45295SOL    HW141848   5.666   5.360   6.496  0.8263  0.9213  0.5055
45295SOL    HW241849   5.709   5.468   6.399 -1.5185 -0.1338 -1.8347
45296SOL     OW41850   9.997   2.063   2.318  0.2087 -0.1594 -0.2243
45296SOL    HW141851   9.921   2.017   2.281  1.4291 -2.6723  0.2266
45296SOL    HW241852  10.003   2.143   2.266 -2.1715 -0.3312 -0.8963
45297SOL     OW41853  11.365  11.800   2.058 -0.0520 -0.0342  0.0502
45297SOL    HW141854  11.384  11.749   1.979  1.9820  1.9041 -0.8549
45297SOL    HW241855  11.284  11.846   2.038  0.0952 -0.0714 -0.6657
45298SOL     OW41856   5.098   5.718   2.947  0.2050 -0.3059  0.2395
45298SOL    HW141857   5.084   5.773   3.024  0.6329  2.1819 -1.3398
45298SOL    HW241858   5.010   5.690   2.921  0.1867 -3.5984  3.1051
45299SOL     OW41859   1.289   9.249   4.488 -0.3315  0.2248  0.2411
45299SOL    HW141860   1.240   9.240   4.570 -0.3072 -2.5148  0.0556
45299SOL    HW241861   1.335   9.165   4.479  1.9717  1.5226 -1.1541
45300SOL     OW41862   4.911   7.860   2.545 -0.1111 -0.7182  0.4019
45300SOL    HW141863   4.921   7.941   2.595  0.0002 -1.0401  0.9028
45300SOL    HW241864   4.820   7.860   2.516 -0.2232 -0.6268  0.7622
45301SOL     OW41865  11.959   3.114   5.288 -0.2444 -0.1326 -0.0908
45301SOL    HW141866  11.974   3.197   5.242  0.0653 -0.5143 -0.6890
45301SOL    HW241867  12.018   3.052   5.246 -1.4386 -0.9936 -0.5653
45302SOL     OW41868   2.509  10.447   5.436 -0.4213 -0.2357  0.0274
45302SOL    HW141869   2.588  10.500   5.424 -0.3056 -0.3201  0.3942
45302SOL    HW241870   2.540  10.357   5.435 -0.4478 -0.2556  0.6151
45303SOL     OW41871   3.629   6.889   9.049 -0.0237 -0.0390 -0.4886
45303SOL    HW141872   3.690   6.854   8.984 -0.5407  1.3452 -1.7826
45303SOL    HW241873   3.676   6.963   9.088 -0.5445  0.5226 -0.9069
45304SOL     OW41874   4.628  12.162   3.529 -0.1669 -0.2376  0.4826
45304SOL    HW141875   4.693  12.211   3.478  0.2646  0.6774  1.8392
45304SOL    HW241876   4.653  12.070   3.518  0.4667  0.0021 -0.1960
45305SOL     OW41877   9.077   8.210   9.707 -0.3512  0.1478  0.0931
45305SOL    HW141878   9.060   8.134   9.652  1.6400  1.1334 -2.0917
45305SOL    HW241879   9.003   8.268   9.691 -0.5860 -0.2482 -0.2945
45306SOL     OW41880   1.304   0.753   4.155 -0.5345  0.1890  0.3937
45306SOL    HW141881   1.373   0.795   4.104 -1.2657  0.3189 -0.5034
45306SOL    HW241882   1.239   0.822   4.169  0.4570  0.7093  3.1278
45307SOL     OW41883   8.680   1.461   1.750 -0.0908 -0.7953  0.5419
45307SOL    HW141884   8.684   1.460   1.845 -0.3529 -1.6434  0.5492
45307SOL    HW241885   8.640   1.377   1.726  0.8720 -1.0222 -0.3562
45308SOL     OW41886  10.941   7.211   5.437 -0.0681  0.0233  0.2238
45308SOL    HW141887  10.937   7.152   5.362  0.0470 -0.6978  0.7663
45308SOL    HW241888  11.018   7.182   5.486  0.3171  0.9892  0.2167
45309SOL     OW41889   5.138   2.278  10.592  0.3204  0.1507 -0.0308
45309SOL    HW141890   5.103   2.366  10.583  2.1543  0.9567  0.2817
45309SOL    HW241891   5.229   2.291  10.620  0.7247 -1.8254 -0.2891
45310SOL     OW41892   4.253   9.335   7.226 -0.9219 -0.2175  0.1973
45310SOL    HW141893   4.256   9.240   7.217 -2.0151 -0.3144  0.6888
45310SOL    HW241894   4.204   9.350   7.307  0.8093  0.7413  1.1207
45311SOL     OW41895   2.036   9.578  10.673 -0.1576 -0.1616  0.3278
45311SOL    HW141896   2.018   9.636  10.599 -1.3557  0.4662  1.0849
45311SOL    HW241897   1.988   9.497  10.653  1.9720 -1.1992 -1.0048
45312SOL     OW41898   3.179  11.346   1.817  0.0013  0.1919  0.2150
45312SOL    HW141899   3.181  11.262   1.771  1.9359 -1.5906  3.1446
45312SOL    HW241900   3.098  11.343   1.868  0.7218 -0.6285  1.3711
45313SOL     OW41901  11.678   8.148   0.418 -0.1960  0.0056  0.2759
45313SOL    HW141902  11.630   8.065   0.418 -0.3026  0.0388 -1.2110
45313SOL    HW241903  11.770   8.122   0.413 -0.1742 -0.0283  0.8068
45314SOL     OW41904   6.994  10.775  10.318  0.3770  0.1979 -0.2162
45314SOL    HW141905   6.914  10.793  10.267 -0.1227 -1.3130 -0.0013
45314SOL    HW241906   7.065  10.791  10.256  0.0079  2.6406 -0.1030
45315SOL     OW41907   4.607   1.786  10.647 -0.5689  0.4600  0.1744
45315SOL    HW141908   4.638   1.867  10.687 -1.5131  0.3659  1.1302
45315SOL    HW241909   4.580   1.732  10.720 -2.5528  0.3672 -0.5700
45316SOL     OW41910   8.430   4.030  12.141 -0.1325 -0.6031  0.2562
45316SOL    HW141911   8.471   4.093  12.201 -0.6453  0.9976 -0.9901
45316SOL    HW241912   8.358   3.992  12.193  1.3468 -1.6478  1.6486
45317SOL     OW41913   7.573   2.476  10.582 -0.7247  0.5596 -0.0470
45317SOL    HW141914   7.551   2.565  10.608 -0.8739  0.5345 -0.0855
45317SOL    HW241915   7.665   2.466  10.605 -0.3714  1.1265 -1.1174
45318SOL     OW41916   9.780  12.487  10.771  0.0163 -0.0131 -0.4586
45318SOL    HW141917   9.813  12.434  10.843 -1.0725 -1.0874 -0.7216
45318SOL    HW241918   9.745  12.566  10.813 -0.1055 -0.3860  0.1439
45319SOL     OW41919   0.912   9.471  12.462 -0.1538 -0.2439  0.3383
45319SOL    HW141920   0.904   9.548  12.405 -0.6696 -0.9115 -0.5215
45319SOL    HW241921   0.999   9.480  12.502 -0.0729  0.6104 -0.0025
45320SOL     OW41922   9.616   1.373   2.510 -0.1995 -0.0435 -0.0491
45320SOL    HW141923   9.529   1.409   2.528 -0.7551 -0.9461 -0.8481
45320SOL    HW241924   9.671   1.408   2.581 -0.6698  2.3596 -0.7706
45321SOL     OW41925   1.248  11.377  11.369 -0.1782 -0.2838  0.3789
45321SOL    HW141926   1.187  11.416  11.307  0.9717  0.3454 -0.3934
45321SOL    HW241927   1.199  11.306  11.410 -1.1650 -0.2886 -0.7711
45322SOL     OW41928  11.238   1.847   6.098 -0.3408  0.3436 -0.0051
45322SOL    HW141929  11.279   1.907   6.036 -0.2150 -1.0558 -1.3363
45322SOL    HW241930  11.152   1.830   6.061 -0.9028  0.7569  1.0854
45323SOL     OW41931   9.332   9.977   4.413  0.2446  0.1768 -0.6172
45323SOL    HW141932   9.381  10.059   4.412  0.2165  0.2067  0.1590
45323SOL    HW241933   9.399   9.909   4.412  0.2710  0.2078 -1.0992
45324SOL     OW41934   0.999  12.308  10.936 -0.0715  0.6663 -0.3552
45324SOL    HW141935   1.001  12.219  10.973  2.1498  0.6139 -0.4716
45324SOL    HW241936   0.966  12.296  10.847 -0.1351  0.0012 -0.2507
45325SOL     OW41937   6.434   3.221   1.082 -0.6886 -0.6864 -0.3063
45325SOL    HW141938   6.387   3.220   1.166  0.4918  0.8310  0.4326
45325SOL    HW241939   6.514   3.171   1.099 -0.5611 -0.5846 -0.6051
45326SOL     OW41940   6.252   9.793   8.713 -0.2845  0.2310  0.9746
45326SOL    HW141941   6.170   9.798   8.763 -0.1994 -0.0503  1.1461
45326SOL    HW241942   6.230   9.739   8.637 -1.0765  2.6809 -0.6282
45327SOL     OW41943   8.805   6.690  11.673 -0.0365  0.0716 -0.1265
45327SOL    HW141944   8.832   6.611  11.720 -1.1341  0.9247  2.0883
45327SOL    HW241945   8.887   6.734  11.651  0.5765  0.4394  2.5555
45328SOL     OW41946   3.158   5.869   9.060 -0.3123  0.0864  0.9353
45328SOL    HW141947   3.251   5.894   9.058 -0.2979  0.2248  2.1631
45328SOL    HW241948   3.138   5.862   9.154 -2.0192  1.8987  0.7635
45329SOL     OW41949   1.406   4.593   8.300 -0.3091  0.1883  0.3384
45329SOL    HW141950   1.428   4.683   8.325 -0.1547  0.1858  0.2166
45329SOL    HW241951   1.487   4.559   8.262 -0.1276 -0.2773  1.1304
45330SOL     OW41952   4.636   9.019   6.832 -0.3729  0.4425  0.1286
45330SOL    HW141953   4.652   9.039   6.924 -2.8384 -1.4224  1.0824
45330SOL    HW241954   4.721   9.028   6.790  1.1473 -0.0834  2.8646
45331SOL     OW41955   8.297   5.790   1.363  0.6678  0.0862 -0.6148
45331SOL    HW141956   8.244   5.870   1.362  0.8906  0.2329 -1.3642
45331SOL    HW241957   8.255   5.733   1.299 -0.7910 -1.2969  1.4310
45332SOL     OW41958  10.058   5.885   6.373 -0.2713  0.1062  0.2082
45332SOL    HW141959   9.985   5.947   6.368 -0.7178 -0.3528  0.8706
45332SOL    HW241960  10.134   5.936   6.345 -0.6997  0.8344  0.3329
45333SOL     OW41961   9.618   9.285   2.409  0.0131 -0.3940 -0.4108
45333SOL    HW141962   9.591   9.244   2.491 -0.6873  1.3144  0.2544
45333SOL    HW241963   9.538   9.290   2.357 -0.1849  1.1005 -0.0207
45334SOL     OW41964  11.362   6.554   7.338  0.1984  0.0707 -0.3678
45334SOL    HW141965  11.275   6.536   7.373  1.2078 -1.7209  1.4286
45334SOL    HW241966  11.389   6.635   7.381 -0.8399  1.0692 -1.5303
45335SOL     OW41967   4.299  11.589   3.351 -0.2692 -0.1808 -0.0680
45335SOL    HW141968   4.296  11.640   3.270  0.2542  0.4746  0.3232
45335SOL    HW241969   4.384  11.545   3.348 -0.1545  0.0185  0.2320
45336SOL     OW41970   9.484   5.602  12.120  0.9271  0.0594  0.1302
45336SOL    HW141971   9.511   5.520  12.079  1.5958  0.0726  0.5288
45336SOL    HW241972   9.491   5.585  12.214 -1.8004 -0.3848  0.3391
45337SOL     OW41973   0.166   9.690   4.022  0.6530 -0.2406 -0.8339
45337SOL    HW141974   0.243   9.728   3.980  0.0113  1.1534 -0.7819
45337SOL    HW241975   0.130   9.760   4.076 -0.0689 -1.1893 -0.0407
45338SOL     OW41976   4.099   9.213   7.688  0.0560 -0.1953  0.4932
45338SOL    HW141977   4.153   9.205   7.766  0.5239  0.3982  0.2399
45338SOL    HW241978   4.135   9.289   7.641  0.3341 -1.0395 -0.7171
45339SOL     OW41979   0.694   6.466   4.811 -0.2635 -0.2474 -0.3974
45339SOL    HW141980   0.712   6.527   4.740 -2.1072 -0.0436 -0.7313
45339SOL    HW241981   0.625   6.508   4.862 -0.8008 -1.5669 -0.0048
45340SOL     OW41982   2.923   6.237   0.202  0.3298  0.1559  0.8025
45340SOL    HW141983   2.842   6.287   0.210 -0.6096 -0.7030 -1.9520
45340SOL    HW241984   2.972   6.257   0.281 -2.1987  1.3706  2.1888
45341SOL     OW41985  10.716   5.408   2.114  0.4965  0.1884 -0.3379
45341SOL    HW141986  10.757   5.483   2.072  0.2988  0.6562  0.2935
45341SOL    HW241987  10.789   5.356   2.147  0.6200  1.5545  1.7148
45342SOL     OW41988   9.041   1.100   5.003 -0.5231 -0.3929  0.8097
45342SOL    HW141989   9.076   1.177   4.958 -0.1229 -2.1413 -2.1293
45342SOL    HW241990   8.951   1.123   5.024  0.1867  1.5978  2.0394
45343SOL     OW41991  12.250   8.122  10.057 -0.4094  0.4296 -0.3579
45343SOL    HW141992  12.266   8.052  10.120 -2.1328 -0.2314 -0.5916
45343SOL    HW241993  12.166   8.160  10.084 -0.2563  1.3795 -1.1582
45344SOL     OW41994   0.886   3.369   1.110 -0.4971 -0.1136 -1.0454
45344SOL    HW141995   0.928   3.390   1.193 -2.2039  0.4112 -0.2690
45344SOL    HW241996   0.948   3.311   1.065 -0.3166 -1.9690  1.4004
45345SOL     OW41997   0.460   5.022   8.366  0.0542  0.2107 -0.2272
45345SOL    HW141998   0.495   4.943   8.324 -1.0990  0.2490 -1.3156
45345SOL    HW241999   0.497   5.020   8.454  0.0217 -1.5800 -0.2097
45346SOL     OW42000   5.374   9.551   5.256  0.5736  0.0935 -0.2966
45346SOL    HW142001   5.419   9.542   5.341  0.3428  1.8103  0.0314
45346SOL    HW242002   5.291   9.505   5.268  0.7024 -0.0010  0.2722
45347SOL     OW42003   8.679   2.094   5.518 -0.2083 -0.0648  0.5693
45347SOL    HW142004   8.658   2.159   5.585 -0.4008 -1.0686  1.5121
45347SOL    HW242005   8.676   2.010   5.564  0.2277 -0.7331 -0.5736
45348SOL     OW42006   6.636   6.618   5.837 -0.3699  0.2214  0.6911
45348SOL    HW142007   6.661   6.704   5.804 -2.7920  1.2590  1.3420
45348SOL    HW242008   6.673   6.556   5.773 -0.2920  1.8544 -0.9366
45349SOL     OW42009   4.787   9.152   6.055 -0.3137  0.4789  0.0220
45349SOL    HW142010   4.866   9.195   6.024  0.6667  1.4876  3.4746
45349SOL    HW242011   4.793   9.063   6.022  1.7434  0.8289 -0.6779
45350SOL     OW42012   8.061   5.018   4.896 -0.7880  0.3682  0.1109
45350SOL    HW142013   8.015   4.938   4.869 -0.8063  0.7296 -0.9458
45350SOL    HW242014   8.004   5.058   4.961 -0.9430 -0.2921  0.3921
45351SOL     OW42015  10.715   8.160  12.313  0.1207 -0.0071  0.3047
45351SOL    HW142016  10.624   8.134  12.329  0.2333 -0.7651 -0.2146
45351SOL    HW242017  10.736   8.119  12.229  1.1361 -0.3472  0.7144
45352SOL     OW42018   1.424   9.423   7.659 -0.4130 -0.0199 -0.0802
45352SOL    HW142019   1.360   9.401   7.591 -0.0201 -1.2914 -0.0688
45352SOL    HW242020   1.390   9.382   7.738  0.1536 -0.2804  0.0328
45353SOL     OW42021   4.921   1.401   9.146  0.0221  0.0993 -0.3534
45353SOL    HW142022   4.911   1.363   9.059 -0.4623  0.3348 -0.4006
45353SOL    HW242023   4.877   1.485   9.141 -0.1424  0.0477  0.1664
45354SOL     OW42024   7.799  10.423  11.203  0.2776 -0.7038  0.4624
45354SOL    HW142025   7.797  10.479  11.125  3.5967 -0.4508  0.4004
45354SOL    HW242026   7.822  10.337  11.169  2.5611 -0.4208  1.1205
45355SOL     OW42027   0.531   6.140  10.032  0.5802 -0.2131 -0.1673
45355SOL    HW142028   0.559   6.218   9.985  2.6299 -0.0557  1.1670
45355SOL    HW242029   0.511   6.171  10.120 -1.1660 -0.8215 -0.3062
45356SOL     OW42030   1.319  11.571   6.793  0.2461  0.2401  0.1853
45356SOL    HW142031   1.344  11.572   6.886 -0.6209 -0.5318  0.4415
45356SOL    HW242032   1.230  11.536   6.793  1.0864 -2.0875 -1.1304
45357SOL     OW42033   1.336   6.824  11.499  0.0208 -0.4703 -0.2579
45357SOL    HW142034   1.344   6.779  11.415  1.3750  0.7165 -0.8079
45357SOL    HW242035   1.426   6.829  11.532 -0.5038 -1.0408  1.3524
45358SOL     OW42036   6.309  11.684   9.583  0.4450 -0.3749  0.7257
45358SOL    HW142037   6.340  11.607   9.534 -0.1900  0.6491 -1.4219
45358SOL    HW242038   6.352  11.758   9.540 -0.1054  0.5812  1.7889
45359SOL     OW42039   6.537   6.167   9.482 -0.3476 -0.5008 -0.0278
45359SOL    HW142040   6.484   6.160   9.403  1.8069 -1.3811 -1.4689
45359SOL    HW242041   6.587   6.086   9.485 -0.3621 -0.4803  2.2749
45360SOL     OW42042   2.570  11.745   0.039  0.6265  0.3895  0.1449
45360SOL    HW142043   2.542  11.781   0.123 -0.8147  1.7061 -0.8508
45360SOL    HW242044   2.505  11.776  -0.024  2.5894  0.8630 -1.7740
45361SOL     OW42045   3.522  11.895   3.762 -0.0018  0.4334  0.2290
45361SOL    HW142046   3.473  11.868   3.840 -1.1799  0.9626 -0.3023
45361SOL    HW242047   3.607  11.924   3.796 -0.0860 -0.3861  1.1927
45362SOL     OW42048   5.052   1.746   2.593  0.1090  0.5186  0.0183
45362SOL    HW142049   5.076   1.838   2.606 -1.0231  0.5645  2.2851
45362SOL    HW242050   5.021   1.742   2.503  3.3198  1.5596 -1.2779
45363SOL     OW42051   6.264   3.613   1.671  0.0476 -0.0839  0.2968
45363SOL    HW142052   6.340   3.670   1.663 -0.6109  0.9056  0.8224
45363SOL    HW242053   6.299   3.530   1.702  0.7746  0.7569  1.8434
45364SOL     OW42054  12.308   7.103   9.504 -0.6239 -0.0354  0.5188
45364SOL    HW142055  12.402   7.116   9.494 -0.7968  0.8853 -0.0311
45364SOL    HW242056  12.288   7.134   9.592 -0.4499 -0.0379  0.5579
45365SOL     OW42057  12.333   3.263   3.193  0.2459  0.0356  0.2091
45365SOL    HW142058  12.395   3.333   3.173 -1.2724  1.5663  0.6359
45365SOL    HW242059  12.294   3.240   3.109  1.2482 -0.8389 -0.0401
45366SOL     OW42060   7.136   5.306  12.410  0.3336  0.1359  0.0106
45366SOL    HW142061   7.200   5.375  12.426 -1.3807  1.8863 -0.3481
45366SOL    HW242062   7.079   5.340  12.342 -0.2639 -1.8914 -0.5970
45367SOL     OW42063   2.273   7.691   8.932  0.2067  0.0135  0.3543
45367SOL    HW142064   2.288   7.783   8.911 -0.1507  0.1180  0.5374
45367SOL    HW242065   2.230   7.693   9.018 -1.0597 -0.2487 -0.2479
45368SOL     OW42066  11.354   4.886  10.169  0.0849  0.1303  0.4386
45368SOL    HW142067  11.401   4.963  10.199  0.8460  0.3929 -1.3308
45368SOL    HW242068  11.404   4.854  10.094 -1.7975 -0.3902 -0.6741
45369SOL     OW42069   9.274   5.757  10.329  0.0646  0.2246 -0.0814
45369SOL    HW142070   9.302   5.685  10.386  0.9651  0.8969  0.3473
45369SOL    HW242071   9.178   5.750  10.327  0.0933 -0.4979  0.5927
45370SOL     OW42072  10.083   3.221   3.119  0.1878  0.0455 -0.6387
45370SOL    HW142073  10.015   3.251   3.059 -0.4430  3.1921  1.3926
45370SOL    HW242074  10.153   3.285   3.111  2.4672 -2.3780 -1.6694
45371SOL     OW42075   5.919   6.967   6.725 -0.0044 -0.1595  0.1749
45371SOL    HW142076   5.837   7.000   6.688 -0.6547  1.1531  2.5760
45371SOL    HW242077   5.925   6.877   6.693 -1.5822  0.1978 -1.2748
45372SOL     OW42078  12.048   4.509   5.444 -0.2239  0.7066  1.0489
45372SOL    HW142079  12.092   4.536   5.524 -1.5108  0.8770  1.7305
45372SOL    HW242080  12.030   4.590   5.397 -1.2439  0.7801  1.5554
45373SOL     OW42081   6.104   7.072   6.084  0.3530  0.0749 -0.0638
45373SOL    HW142082   6.020   7.032   6.066 -1.0865  1.3813  2.9507
45373SOL    HW242083   6.159   7.000   6.115 -0.1612 -0.5551 -0.6059
45374SOL     OW42084   8.963   8.635   1.087  0.0187  0.2435 -1.2638
45374SOL    HW142085   8.964   8.596   1.000  0.6291 -0.6428 -0.8800
45374SOL    HW242086   9.027   8.583   1.137  0.3658  1.3215 -0.5477
45375SOL     OW42087   9.376   6.584   1.341  0.2161 -0.5384 -0.1626
45375SOL    HW142088   9.369   6.532   1.421  0.3749 -0.1343  0.1177
45375SOL    HW242089   9.285   6.604   1.318  0.1708  2.5196  2.0279
45376SOL     OW42090  12.165   3.400   0.499 -0.3156  0.1254 -0.2894
45376SOL    HW142091  12.149   3.319   0.450  0.7877 -0.2838  0.0024
45376SOL    HW242092  12.147   3.469   0.435  3.9394 -0.3644 -2.4254
45377SOL     OW42093   0.790   4.462   4.604  0.0519 -0.3204  0.3165
45377SOL    HW142094   0.811   4.438   4.694  0.3184 -0.2912  0.2626
45377SOL    HW242095   0.694   4.461   4.601  0.0408 -0.2562  0.6166
45378SOL     OW42096   4.712   4.413   9.618 -0.2863  0.0793  0.2487
45378SOL    HW142097   4.770   4.388   9.545 -0.7343 -0.5124  0.0917
45378SOL    HW242098   4.625   4.387   9.590 -0.4646 -0.1637  1.0036
45379SOL     OW42099  11.268   3.096   6.269  0.2232  0.0511 -0.0612
45379SOL    HW142100  11.202   3.160   6.242 -1.7695 -0.5401  2.9692
45379SOL    HW242101  11.350   3.145   6.266 -0.6599  1.6017 -1.4067
45380SOL     OW42102   9.107   8.320   4.258  0.2438 -0.1121  0.3484
45380SOL    HW142103   9.051   8.327   4.181 -0.6769  1.5927  1.1273
45380SOL    HW242104   9.147   8.233   4.250  0.6017  0.2139 -2.2963
45381SOL     OW42105   9.513   5.148   3.456 -0.2120 -0.2986  0.2699
45381SOL    HW142106   9.501   5.228   3.405 -1.5230  0.4542  1.7149
45381SOL    HW242107   9.438   5.093   3.433 -0.1991 -0.4303  0.5427
45382SOL     OW42108  10.013   2.377   9.672  0.6362 -0.0217 -0.2719
45382SOL    HW142109   9.963   2.381   9.591  0.3491  0.0855 -0.0933
45382SOL    HW242110  10.103   2.363   9.645  0.9972  2.6615 -0.7831
45383SOL     OW42111   4.755   1.088   6.524  0.3793 -0.6726 -0.1910
45383SOL    HW142112   4.808   1.081   6.445  0.8179  2.9025 -0.3733
45383SOL    HW242113   4.699   1.164   6.509 -1.0050 -1.1120  2.1571
45384SOL     OW42114  11.268   0.265   7.388 -0.4979  0.1867  0.0606
45384SOL    HW142115  11.218   0.315   7.453  0.7424  0.6607  0.6932
45384SOL    HW242116  11.246   0.306   7.305  0.5551  1.9196  0.5739
45385SOL     OW42117   3.447   8.266   1.800  0.5100  0.1050  0.1856
45385SOL    HW142118   3.397   8.323   1.741 -1.5129 -1.8081 -0.0921
45385SOL    HW242119   3.509   8.220   1.742  0.7471  0.5314  0.0936
45386SOL     OW42120   8.470  11.866   2.385 -0.2426  0.5763 -0.0999
45386SOL    HW142121   8.406  11.930   2.354 -2.1675 -1.3145 -0.3540
45386SOL    HW242122   8.463  11.869   2.480 -1.8011 -0.5207 -0.1282
45387SOL     OW42123   2.207   7.843  10.388 -0.0683 -0.2893 -0.2207
45387SOL    HW142124   2.236   7.785  10.458 -1.7774 -0.6815  0.1997
45387SOL    HW242125   2.141   7.792  10.340 -1.2239  1.1003 -0.1569
45388SOL     OW42126   2.827   8.930   5.049 -0.6120  0.0336 -0.5180
45388SOL    HW142127   2.854   8.976   4.969  1.2078  0.8941  0.5224
45388SOL    HW242128   2.903   8.937   5.107 -0.3102 -4.0694 -0.1407
45389SOL     OW42129  11.068   1.272   1.620  0.3303  0.5529  0.3067
45389SOL    HW142130  11.099   1.207   1.558  0.1650  0.1188  0.6744
45389SOL    HW242131  11.077   1.356   1.574  0.2211  0.2378 -0.2939
45390SOL     OW42132   8.193   2.125   8.996  0.2170  0.1859  0.2598
45390SOL    HW142133   8.167   2.182   8.923 -0.3213  1.0111  1.0586
45390SOL    HW242134   8.112   2.078   9.019  0.7281 -1.1382 -0.5755
45391SOL     OW42135  12.235   1.731   5.387 -0.1630 -0.3326  0.3236
45391SOL    HW142136  12.184   1.739   5.307 -0.4725  1.7597  0.6521
45391SOL    HW242137  12.178   1.684   5.448 -0.8215  0.0116 -0.0203
45392SOL     OW42138  10.414   8.946   8.062  0.0845 -0.2206 -0.2602
45392SOL    HW142139  10.371   8.921   8.144 -0.1010 -0.8568 -0.5488
45392SOL    HW242140  10.477   8.876   8.046 -0.4439 -0.5193 -1.0824
45393SOL     OW42141  11.291  10.835   4.964 -0.7184  0.1763  0.3317
45393SOL    HW142142  11.252  10.814   5.049 -1.4382 -3.1762 -0.6806
45393SOL    HW242143  11.223  10.815   4.900  0.8190 -0.4547 -1.2013
45394SOL     OW42144   2.191   5.575  11.267  0.2989 -0.1451  0.4682
45394SOL    HW142145   2.282   5.549  11.265 -0.1460 -1.9224  1.3349
45394SOL    HW242146   2.156   5.536  11.348 -1.3235  0.1536 -0.0410
45395SOL     OW42147  11.094   3.395   4.239 -0.3998 -0.4989  0.5046
45395SOL    HW142148  11.033   3.463   4.212  1.1901  0.6796 -0.2486
45395SOL    HW242149  11.133   3.428   4.319  2.5885  1.0148 -1.4166
45396SOL     OW42150   0.260   3.790   1.113 -0.2571  0.4698  0.3823
45396SOL    HW142151   0.251   3.884   1.102 -1.1878  0.3178 -0.2605
45396SOL    HW242152   0.280   3.778   1.206 -3.0483  1.1267  1.1356
45397SOL     OW42153   3.113   1.280   5.844  0.3364 -0.3630 -0.7229
45397SOL    HW142154   3.065   1.279   5.927  0.3257 -2.3637 -0.7095
45397SOL    HW242155   3.061   1.223   5.786  0.5087  0.7595 -2.0231
45398SOL     OW42156  12.249  10.860  11.558 -0.1091  0.0932  0.7609
45398SOL    HW142157  12.200  10.821  11.630 -0.7265 -0.2181  0.1908
45398SOL    HW242158  12.194  10.843  11.481 -0.5862  2.3823  0.5180
45399SOL     OW42159   9.570   8.447   1.962 -0.3242 -0.0365 -0.2919
45399SOL    HW142160   9.594   8.355   1.965  0.6528  0.1941 -0.6081
45399SOL    HW242161   9.478   8.449   1.987 -0.6489 -1.2027 -1.3304
45400SOL     OW42162   4.714   7.695   3.447 -0.1789  0.0876 -0.2647
45400SOL    HW142163   4.791   7.668   3.496  0.8061  0.6971 -1.4227
45400SOL    HW242164   4.739   7.683   3.355 -0.6581  2.3442 -0.7314
45401SOL     OW42165   2.711   9.839   9.629  0.2689 -0.1473  0.2052
45401SOL    HW142166   2.801   9.815   9.606 -0.5165 -2.9877 -0.4056
45401SOL    HW242167   2.703   9.818   9.722  0.1651 -0.2166  0.1814
45402SOL     OW42168   3.509  10.766   2.899  0.0981  0.1680  0.2519
45402SOL    HW142169   3.488  10.843   2.952  2.3378  0.2881  1.0814
45402SOL    HW242170   3.500  10.796   2.808 -0.6359  0.9072  0.5590
45403SOL     OW42171  10.906   5.345   8.761 -0.0920 -0.3409  0.0763
45403SOL    HW142172  10.874   5.436   8.762 -1.2041 -0.7007 -0.6137
45403SOL    HW242173  10.835   5.296   8.720  1.6196 -1.0716 -2.2769
45404SOL     OW42174   0.026   5.940   4.137 -0.1194 -0.4741 -0.2214
45404SOL    HW142175  -0.016   5.900   4.061  1.0158  1.0134 -1.6815
45404SOL    HW242176   0.114   5.903   4.139  0.6670  1.2263 -1.1035
45405SOL     OW42177   7.671   8.474   9.227 -0.5555  0.5206 -0.1603
45405SOL    HW142178   7.760   8.449   9.202 -1.1403  0.4432 -2.2770
45405SOL    HW242179   7.641   8.531   9.157 -2.8978 -1.0797 -0.5700
45406SOL     OW42180  11.937   1.795   5.729  0.2261  0.1496 -0.1441
45406SOL    HW142181  11.936   1.754   5.815 -0.8769 -0.5350 -0.4714
45406SOL    HW242182  11.983   1.878   5.743 -0.6815  0.4533  1.2886
45407SOL     OW42183   8.987  10.993   0.264  0.1443  0.8506  0.3804
45407SOL    HW142184   9.025  11.081   0.273  0.6682  0.6038  0.6373
45407SOL    HW242185   8.966  10.967   0.354 -1.0613  1.1554  0.2137
45408SOL     OW42186  11.615   7.726   8.782 -0.2583 -0.6528 -0.0232
45408SOL    HW142187  11.579   7.787   8.718  0.9618  0.1847  0.0580
45408SOL    HW242188  11.704   7.758   8.799 -0.4692 -0.9831  1.9159
45409SOL     OW42189   9.710   4.864   2.262 -0.1234  0.0299 -0.3491
45409SOL    HW142190   9.638   4.815   2.221 -0.3466 -0.1250  0.2239
45409SOL    HW242191   9.670   4.906   2.338  0.2387  0.5025 -0.4151
45410SOL     OW42192   2.480   7.187   6.127 -0.2632 -0.2176  0.6501
45410SOL    HW142193   2.417   7.251   6.095  0.5888  0.8020  0.9726
45410SOL    HW242194   2.514   7.145   6.048 -1.6172 -1.0907  0.4830
45411SOL     OW42195   3.373   1.718  10.080 -0.0156  0.1423 -0.6411
45411SOL    HW142196   3.305   1.663  10.119  1.5162 -1.9564 -0.7863
45411SOL    HW242197   3.437   1.656  10.044  2.2476  2.0201 -0.0739
45412SOL     OW42198   2.069   4.710   3.648  0.7209  0.1756  0.2771
45412SOL    HW142199   2.139   4.756   3.695  1.9511 -2.3960  1.1739
45412SOL    HW242200   1.989   4.731   3.697  0.8718  2.7453 -0.4560
45413SOL     OW42201   1.721   9.611   6.602 -0.1477  0.0611  0.0895
45413SOL    HW142202   1.679   9.579   6.522  0.3208  1.2257 -0.6419
45413SOL    HW242203   1.673   9.569   6.673  2.2990 -4.8416 -0.7219
45414SOL     OW42204   0.746   7.310   4.528 -0.5507  0.2236 -0.3521
45414SOL    HW142205   0.811   7.300   4.459  0.7711 -0.4715  0.9386
45414SOL    HW242206   0.730   7.404   4.534  0.6098  0.4326 -0.4479
45415SOL     OW42207   0.845  10.001   5.959  0.3883 -0.2808 -0.0881
45415SOL    HW142208   0.817  10.092   5.975  1.3853  0.0137  0.0470
45415SOL    HW242209   0.886   9.974   6.041  1.3856 -0.3522 -0.5979
45416SOL     OW42210   5.293   2.412   9.079  0.0947  0.0566  0.1817
45416SOL    HW142211   5.250   2.484   9.125 -1.5177 -1.4620  1.1866
45416SOL    HW242212   5.297   2.341   9.144  3.7530 -0.1198  0.0053
45417SOL     OW42213   2.473  12.372   5.325 -0.2148  0.3246  0.1057
45417SOL    HW142214   2.416  12.449   5.319  0.2933  0.6590 -0.7733
45417SOL    HW242215   2.417  12.298   5.303 -0.1304  0.7581 -1.7613
45418SOL     OW42216   0.302   9.808   0.891 -0.2666  0.3586  0.2595
45418SOL    HW142217   0.374   9.775   0.837  0.0550 -0.3158  1.0681
45418SOL    HW242218   0.225   9.759   0.861 -0.5702  1.6179 -1.1194
45419SOL     OW42219   7.516   5.682   9.658  0.8124  0.3233 -0.4065
45419SOL    HW142220   7.567   5.657   9.735  0.5982  1.0982 -0.0040
45419SOL    HW242221   7.558   5.761   9.626  1.1600 -0.2280 -1.3574
45420SOL     OW42222   3.752  11.854  10.220 -0.2443  0.2076  0.3105
45420SOL    HW142223   3.841  11.861  10.255 -0.2417 -1.6189  0.7743
45420SOL    HW242224   3.695  11.876  10.294 -0.2255  2.5143 -0.2853
45421SOL     OW42225   7.016   4.530   9.030 -0.1464 -0.6120  0.2253
45421SOL    HW142226   6.992   4.591   8.961  1.4554  2.1866  1.9586
45421SOL    HW242227   7.105   4.503   9.010  0.6409  0.8656  1.5186
45422SOL     OW42228   6.698   4.666   8.474 -0.4745 -0.0412 -0.3432
45422SOL    HW142229   6.632   4.717   8.425  0.8281  1.4799 -0.5996
45422SOL    HW242230   6.753   4.733   8.515 -0.0590 -1.2929  1.2261
45423SOL     OW42231   9.558  10.468  12.015  0.5836  0.3385 -0.1240
45423SOL    HW142232   9.480  10.491  12.065  1.2870  0.6119  0.8839
45423SOL    HW242233   9.630  10.479  12.077  1.4163  0.0192 -1.0124
45424SOL     OW42234   5.838   0.815   7.550 -0.2719 -0.1550 -0.9776
45424SOL    HW142235   5.822   0.761   7.473  1.9698  0.3056 -1.8534
45424SOL    HW242236   5.795   0.768   7.622 -0.4894 -1.7857 -2.1173
45425SOL     OW42237   2.571   5.774   4.078  0.6512  0.2182 -0.0152
45425SOL    HW142238   2.573   5.692   4.127  2.4437  0.2433  0.0096
45425SOL    HW242239   2.536   5.749   3.992 -2.1182  0.1066  1.0320
45426SOL     OW42240   2.031   3.922   4.037  0.5576 -0.6062 -0.5981
45426SOL    HW142241   2.070   4.003   4.005 -1.1466  0.6471  0.3112
45426SOL    HW242242   2.015   3.938   4.130  2.2441 -2.8752  0.1568
45427SOL     OW42243   3.073  12.481   3.999 -0.0480 -0.1600  0.6115
45427SOL    HW142244   3.160  12.452   4.026  0.4882  0.8035 -0.0235
45427SOL    HW242245   3.052  12.427   3.923 -0.7198 -1.5164  1.7201
45428SOL     OW42246   4.202   7.373   1.506  0.4849 -0.3103  0.3473
45428SOL    HW142247   4.193   7.284   1.541 -0.8431 -0.1006  0.5884
45428SOL    HW242248   4.184   7.430   1.581  0.0609  0.1544 -0.1004
45429SOL     OW42249   7.463   6.462   3.371  0.5291 -0.1377  0.2706
45429SOL    HW142250   7.523   6.471   3.297  0.3941  1.5019  0.3341
45429SOL    HW242251   7.442   6.552   3.396 -1.2848 -0.6833  0.8087
45430SOL     OW42252  10.339  12.019   4.828  0.3193  0.4255  0.4535
45430SOL    HW142253  10.250  12.055   4.824  0.2988  0.3064 -0.2991
45430SOL    HW242254  10.345  11.961   4.753  0.4896 -0.8564  1.4313
45431SOL     OW42255   2.025   3.002   0.612 -0.2867 -0.0341 -0.4408
45431SOL    HW142256   2.072   2.961   0.539  0.3350 -1.1446  0.5495
45431SOL    HW242257   1.937   3.018   0.577  0.4966  1.1628 -2.0060
45432SOL     OW42258  12.049  11.525   1.292  0.0961  0.3477  0.0554
45432SOL    HW142259  12.114  11.575   1.244 -0.4050  1.1472  0.1832
45432SOL    HW242260  12.023  11.582   1.365  0.0754 -0.4120  0.6683
45433SOL     OW42261   0.160   8.483  11.075 -0.2349 -0.2302 -0.5231
45433SOL    HW142262   0.182   8.572  11.102 -1.1835 -0.3709  0.8304
45433SOL    HW242263   0.230   8.458  11.015 -0.1888  1.5745 -1.2859
45434SOL     OW42264  11.789  12.466   5.521  0.9910  0.1518  0.1343
45434SOL    HW142265  11.813  12.437   5.610 -0.2541 -0.3100  0.3503
45434SOL    HW242266  11.839  12.409   5.463  2.0548  0.6620  0.5208
45435SOL     OW42267  12.142  10.533   7.897  0.2765  0.3410  0.2898
45435SOL    HW142268  12.075  10.466   7.909  1.1732 -0.7652 -0.6473
45435SOL    HW242269  12.094  10.615   7.891 -0.9850 -0.4188 -0.2916
45436SOL     OW42270   7.635   9.973   7.943  0.4517  0.2525  0.1796
45436SOL    HW142271   7.651  10.056   7.987  2.1326  0.0020  0.1133
45436SOL    HW242272   7.640   9.907   8.012  1.9590 -0.0282 -0.1406
45437SOL     OW42273   5.561   4.279   5.336  0.1084 -0.4959 -0.1866
45437SOL    HW142274   5.525   4.288   5.424  0.1607  0.1595 -0.2264
45437SOL    HW242275   5.544   4.188   5.312  0.2583 -0.7302  0.5716
45438SOL     OW42276  10.515   0.526   4.821 -0.4855  0.4333 -0.4175
45438SOL    HW142277  10.526   0.433   4.806  0.3894  0.4218  0.2598
45438SOL    HW242278  10.423   0.543   4.800 -0.5775 -0.5202 -0.8113
45439SOL     OW42279  12.172   9.521   3.467 -0.6743  0.2366 -0.3193
45439SOL    HW142280  12.185   9.585   3.537  1.5818 -0.0357 -0.4080
45439SOL    HW242281  12.197   9.437   3.505 -4.6917 -0.9421  0.1443
45440SOL     OW42282   2.265   8.679   2.782  0.4195  0.5516  0.1606
45440SOL    HW142283   2.193   8.615   2.790 -1.3282  2.5708  1.6419
45440SOL    HW242284   2.277   8.688   2.687  0.5585 -1.7500 -0.0967
45441SOL     OW42285   3.268  11.664   0.360 -0.2071  0.1463 -0.0734
45441SOL    HW142286   3.210  11.724   0.406 -0.6016 -0.2020 -0.1204
45441SOL    HW242287   3.285  11.707   0.276 -2.1468 -0.7439 -0.9700
45442SOL     OW42288   4.236   3.831   6.846 -0.1479 -0.5406 -0.1158
45442SOL    HW142289   4.308   3.768   6.841 -0.6648 -1.0600 -1.8734
45442SOL    HW242290   4.237   3.875   6.761 -1.1858  0.2511  0.2578
45443SOL     OW42291   8.925   4.773   2.439 -0.3547 -0.1872 -0.0805
45443SOL    HW142292   8.977   4.793   2.361  0.2598 -0.7850  0.1602
45443SOL    HW242293   8.972   4.816   2.511 -0.8876  0.3171 -0.0260
45444SOL     OW42294  12.349   4.213   8.140  0.7822 -0.6720 -0.0911
45444SOL    HW142295  12.334   4.254   8.225  0.6355 -1.9428  0.5223
45444SOL    HW242296  12.424   4.155   8.154  0.4543 -1.2600 -0.6978
45445SOL     OW42297  11.128   2.732   8.282  0.8227 -0.0311  0.1628
45445SOL    HW142298  11.194   2.771   8.224  1.3417 -1.0166  0.0746
45445SOL    HW242299  11.082   2.807   8.320  3.2816  0.7689  1.7620
45446SOL     OW42300  10.940   5.329   3.266 -0.0246 -0.1527 -0.6831
45446SOL    HW142301  10.970   5.417   3.290 -1.8999 -0.1605  2.0913
45446SOL    HW242302  10.911   5.338   3.175 -2.6553  2.8826  0.2780
45447SOL     OW42303   8.107  10.331   9.079 -0.1200  0.5596  0.0206
45447SOL    HW142304   8.170  10.260   9.067  0.7851  1.2166  0.7646
45447SOL    HW242305   8.029  10.287   9.114  0.4968 -0.0502  0.6742
45448SOL     OW42306   6.870   9.458   8.661 -0.3457 -0.4630 -0.2391
45448SOL    HW142307   6.855   9.390   8.726  1.7478 -2.5513 -1.7530
45448SOL    HW242308   6.806   9.441   8.592 -0.5097 -0.2205 -0.1486
45449SOL     OW42309   4.481   6.222   4.447  0.2652 -0.4526 -0.3321
45449SOL    HW142310   4.434   6.198   4.367  0.3257 -1.7458  0.0112
45449SOL    HW242311   4.482   6.143   4.500  0.7307  0.2317  0.7161
45450SOL     OW42312  11.575  11.056   7.235 -0.3431 -0.3011 -0.3377
45450SOL    HW142313  11.535  10.985   7.185  0.7513 -1.2055  0.0238
45450SOL    HW242314  11.665  11.061   7.201  1.2679 -2.5511  2.9936
45451SOL     OW42315   1.794   7.342   9.530 -0.3146  0.3674 -0.2589
45451SOL    HW142316   1.839   7.258   9.527 -0.7910  0.0809  0.4412
45451SOL    HW242317   1.746   7.341   9.613  0.1164  1.5590  0.0251
45452SOL     OW42318   4.184   8.463   1.618  0.4052 -0.2471  0.3549
45452SOL    HW142319   4.163   8.390   1.676  1.4543  0.2151  1.3693
45452SOL    HW242320   4.185   8.425   1.530  1.5400 -1.6005  0.9168
45453SOL     OW42321   9.815   6.858   3.124  0.3907  0.1431  0.0087
45453SOL    HW142322   9.842   6.777   3.167 -0.0544 -0.9226 -1.6404
45453SOL    HW242323   9.719   6.857   3.129  0.4091  1.0921  0.8634
45454SOL     OW42324   0.319   7.575   6.585 -0.8510  0.2046 -0.4681
45454SOL    HW142325   0.309   7.482   6.602 -1.1539  0.4285  0.7238
45454SOL    HW242326   0.231   7.604   6.559 -1.0846  0.3822  0.4635
45455SOL     OW42327  10.401   9.184   7.658  0.0342  0.0270  0.0077
45455SOL    HW142328  10.437   9.096   7.645 -1.1128 -0.2729 -1.3367
45455SOL    HW242329  10.409   9.200   7.752  1.0266 -1.1684  0.1442
45456SOL     OW42330   3.540   4.511   0.776  0.5406 -0.3591 -0.6512
45456SOL    HW142331   3.563   4.599   0.746 -0.3844  0.4301  0.8202
45456SOL    HW242332   3.455   4.494   0.736  0.3360 -0.2382 -0.2654
45457SOL     OW42333   8.149   0.231   7.275 -0.1599  0.2049 -0.1132
45457SOL    HW142334   8.081   0.165   7.260 -0.5628  0.3232  1.0902
45457SOL    HW242335   8.176   0.259   7.187 -1.1588 -0.3606 -0.6095
45458SOL     OW42336   3.888   8.813  11.187  0.4123 -0.1541 -0.7014
45458SOL    HW142337   3.930   8.846  11.267  0.0486 -0.8178 -0.2316
45458SOL    HW242338   3.922   8.724  11.177 -1.0129 -0.7702 -0.2190
45459SOL     OW42339   9.791   3.667   3.921 -0.9616  0.0089  0.1648
45459SOL    HW142340   9.816   3.753   3.955 -0.6047  0.6465 -1.5989
45459SOL    HW242341   9.873   3.619   3.915 -0.7967  0.4211 -1.1307
45460SOL     OW42342   2.689  12.487   2.213  0.0315  0.5234 -0.3710
45460SOL    HW142343   2.616  12.486   2.274 -0.2563  3.5604 -0.5393
45460SOL    HW242344   2.767  12.481   2.269 -0.2713  1.6177  0.1912
45461SOL     OW42345   0.573   8.896   4.678 -0.0094 -0.0071  0.6569
45461SOL    HW142346   0.495   8.915   4.731 -1.0782  1.6076 -1.3447
45461SOL    HW242347   0.573   8.801   4.669 -1.6003 -0.0614  0.9502
45462SOL     OW42348   9.701   2.856  11.881 -0.1104  0.0794 -0.0417
45462SOL    HW142349   9.667   2.944  11.896 -0.0044 -0.0029  0.7003
45462SOL    HW242350   9.675   2.806  11.958 -1.4068 -0.9223 -1.0812
45463SOL     OW42351   3.050   4.422   5.783  0.6399  0.0596  0.1261
45463SOL    HW142352   3.037   4.379   5.868 -1.1227  1.6013  0.6901
45463SOL    HW242353   3.066   4.514   5.805  0.1242  0.4796 -1.1951
45464SOL     OW42354   5.209   5.413  10.473 -0.1177  0.3048 -0.0103
45464SOL    HW142355   5.262   5.343  10.434 -0.0318  1.0898 -1.3631
45464SOL    HW242356   5.210   5.483  10.408 -0.4967  1.4406  1.1578
45465SOL     OW42357   0.105   6.435   5.589 -0.4860 -0.4049 -0.0217
45465SOL    HW142358   0.178   6.486   5.624  1.5098 -2.0719 -1.4714
45465SOL    HW242359   0.084   6.373   5.659  0.5124 -0.8673 -0.1137
45466SOL     OW42360   4.199   8.658   9.746 -0.2309 -0.4733  0.3878
45466SOL    HW142361   4.174   8.601   9.819  1.7843 -1.0087  0.7476
45466SOL    HW242362   4.123   8.661   9.689 -0.9973 -2.0923  1.2746
45467SOL     OW42363   8.029  10.847   7.797 -0.2712 -0.2079  0.1308
45467SOL    HW142364   7.957  10.872   7.856 -0.3903 -0.9071  0.2929
45467SOL    HW242365   8.015  10.753   7.782  0.1577 -0.1733 -0.4657
45468SOL     OW42366  10.276   1.825   0.414  0.2094 -0.3273 -0.5256
45468SOL    HW142367  10.353   1.788   0.371 -0.7310 -2.0220 -0.8447
45468SOL    HW242368  10.258   1.906   0.367  0.8623 -0.7342 -1.4897
45469SOL     OW42369   6.787   6.102  11.846 -0.3370  0.0249 -0.1801
45469SOL    HW142370   6.833   6.181  11.819 -1.1289  0.3021 -0.7618
45469SOL    HW242371   6.851   6.054  11.899  0.2885  0.8506 -0.1598
45470SOL     OW42372  10.371  10.988  12.483 -0.3286 -0.0227 -0.2408
45470SOL    HW142373  10.395  11.045  12.410 -1.2247 -0.3485 -0.8053
45470SOL    HW242374  10.283  11.017  12.509 -0.4476 -0.5941  0.0171
45471SOL     OW42375   6.163   0.659   8.705  0.1096 -0.2127  0.0041
45471SOL    HW142376   6.123   0.624   8.625  0.2191 -0.9118  0.2516
45471SOL    HW242377   6.144   0.753   8.701 -3.2100 -0.6874  0.9806
45472SOL     OW42378  11.166   3.760   1.858 -0.5266 -0.9179 -0.2757
45472SOL    HW142379  11.176   3.710   1.776 -3.0388 -3.3872  0.7720
45472SOL    HW242380  11.197   3.700   1.926 -0.0273  0.4699  0.7616
45473SOL     OW42381   0.606   2.648   4.909 -0.1902 -0.4042 -0.2853
45473SOL    HW142382   0.565   2.621   4.991  1.4212 -0.5992  0.4935
45473SOL    HW242383   0.590   2.742   4.904  0.8342 -0.1408  0.9518
45474SOL     OW42384  10.774   4.005   7.826 -0.4081  0.3088 -0.1423
45474SOL    HW142385  10.708   3.987   7.892 -1.2866  2.2036 -0.4427
45474SOL    HW242386  10.815   3.921   7.809 -0.6470 -0.3590  2.2806
45475SOL     OW42387   8.051   5.700   2.755 -0.1882  0.6967 -0.2230
45475SOL    HW142388   8.132   5.742   2.782  0.3817 -1.1426  1.1799
45475SOL    HW242389   8.069   5.669   2.666  0.5339  0.6207 -0.0606
45476SOL     OW42390  10.597   8.161   4.939 -0.1926  0.1904  0.2770
45476SOL    HW142391  10.662   8.227   4.913  0.0602 -0.5412 -1.0611
45476SOL    HW242392  10.522   8.212   4.971  0.3659  1.0983  0.1671
45477SOL     OW42393   0.828  11.693   3.129 -0.2421 -0.0085  0.3276
45477SOL    HW142394   0.820  11.599   3.144 -0.2658  0.2641  2.3826
45477SOL    HW242395   0.805  11.705   3.037 -1.3313 -1.8832  0.3013
45478SOL     OW42396   5.523   6.393  12.007  0.7314  0.0431 -0.5156
45478SOL    HW142397   5.484   6.404  12.094 -2.0277 -1.8282 -1.3925
45478SOL    HW242398   5.552   6.481  11.983  0.4862  0.8258  1.7817
45479SOL     OW42399   2.730   8.001  11.666  0.3212  0.3206 -0.2872
45479SOL    HW142400   2.732   7.959  11.580 -1.7983  0.4621 -0.4566
45479SOL    HW242401   2.705   8.091  11.648 -3.0808 -0.3007  0.5669
45480SOL     OW42402   5.701   1.848  10.586  0.3647  0.4155 -0.5727
45480SOL    HW142403   5.630   1.787  10.568  0.5906  0.0398 -0.2020
45480SOL    HW242404   5.778   1.809  10.546  0.8124 -0.2878  0.9225
45481SOL     OW42405  12.153  10.846   1.289  0.3108  0.0370  0.6307
45481SOL    HW142406  12.240  10.808   1.301  0.3699 -0.2581 -0.6355
45481SOL    HW242407  12.146  10.912   1.358  3.0258  2.6945 -1.3690
45482SOL     OW42408   1.757   2.444   8.731 -0.1468  1.3124 -0.5044
45482SOL    HW142409   1.842   2.489   8.728  0.0474  0.9456 -0.7612
45482SOL    HW242410   1.752   2.400   8.646 -0.5745  1.2921 -0.4672
45483SOL     OW42411  10.534   8.855   1.155 -0.1499  0.6307  0.3308
45483SOL    HW142412  10.519   8.761   1.166 -0.7175  0.8007  1.0398
45483SOL    HW242413  10.626   8.867   1.180  0.1962  0.1410 -0.6237
45484SOL     OW42414   3.890  12.149   6.414 -0.0524 -0.6633 -0.2081
45484SOL    HW142415   3.919  12.169   6.325 -0.1025 -2.7065 -0.7472
45484SOL    HW242416   3.834  12.222   6.438 -0.2332 -0.1699 -1.9657
45485SOL     OW42417   8.637  10.513   9.769 -0.4164  0.4825 -0.3733
45485SOL    HW142418   8.692  10.440   9.797 -0.6624 -0.2399 -1.7197
45485SOL    HW242419   8.590  10.539   9.848  0.7338  0.1453  0.4560
45486SOL     OW42420  10.005  12.430   2.640  0.6873 -0.2937  0.2336
45486SOL    HW142421  10.026  12.412   2.549  0.5441  1.4972 -0.1898
45486SOL    HW242422  10.056  12.508   2.662 -0.6883  0.4132  1.0927
45487SOL     OW42423  12.434   5.003   5.691  0.8804 -0.2865  0.4566
45487SOL    HW142424  12.476   5.065   5.631 -0.3507 -0.0208 -0.1569
45487SOL    HW242425  12.387   4.942   5.634 -0.8883  0.3789  1.1352
45488SOL     OW42426   3.474   2.210   5.589 -0.0140  0.2361 -0.6315
45488SOL    HW142427   3.412   2.209   5.517 -0.7037  0.0059 -0.0430
45488SOL    HW242428   3.560   2.217   5.547 -0.4080  0.1051 -1.4670
45489SOL     OW42429   3.905   0.625   3.120  0.0388  0.2803  0.4727
45489SOL    HW142430   3.920   0.717   3.098 -1.0014  0.0715 -1.3932
45489SOL    HW242431   3.932   0.616   3.211  2.6665  1.8202 -0.0549
45490SOL     OW42432   7.990   2.283   8.581 -0.0290  0.1192 -0.0779
45490SOL    HW142433   8.031   2.332   8.510 -0.3160  1.3807  0.5940
45490SOL    HW242434   7.950   2.207   8.539 -2.0193  1.9121 -1.6104
45491SOL     OW42435  12.326   4.221   5.076  0.0042  0.0236 -0.1122
45491SOL    HW142436  12.302   4.285   5.143  0.5983 -1.1790  1.3200
45491SOL    HW242437  12.331   4.138   5.123  0.3998 -0.8899 -1.6801
45492SOL     OW42438  11.043   5.510   6.530 -0.4466 -0.2124  0.5883
45492SOL    HW142439  11.057   5.541   6.620 -1.4489  0.5917  0.4734
45492SOL    HW242440  10.949   5.497   6.523 -0.3424 -0.5839 -0.2649
45493SOL     OW42441   2.306   2.933  11.122 -0.2832 -0.4415 -0.4431
45493SOL    HW142442   2.353   2.956  11.202 -1.1815  1.2091 -0.3414
45493SOL    HW242443   2.372   2.943  11.053  0.1300 -0.4711 -0.0632
45494SOL     OW42444   0.711   6.997   0.552 -0.0349  0.1422  0.8383
45494SOL    HW142445   0.795   7.035   0.576 -1.2431  2.6937  1.3946
45494SOL    HW242446   0.678   6.958   0.633  0.3085 -0.2983  0.7714
45495SOL     OW42447  11.630   6.690   3.390  0.3909 -0.6101  0.4150
45495SOL    HW142448  11.686   6.756   3.350  0.8566 -1.0745  0.2865
45495SOL    HW242449  11.657   6.608   3.349  0.7935 -1.0819  1.5604
45496SOL     OW42450   2.321   5.496  10.200  0.0979 -0.3809  0.1543
45496SOL    HW142451   2.361   5.534  10.122 -2.9322  0.7991 -0.9807
45496SOL    HW242452   2.377   5.421  10.221  1.9863  0.2587 -2.1273
45497SOL     OW42453  11.332   1.626   2.531 -0.1109 -0.3556 -0.6835
45497SOL    HW142454  11.262   1.682   2.566 -0.4339 -0.6835 -0.7929
45497SOL    HW242455  11.382   1.600   2.608 -0.4056 -0.5189 -0.5444
45498SOL     OW42456   5.526   0.819   2.598 -0.4519 -0.0945 -0.1347
45498SOL    HW142457   5.444   0.868   2.599 -0.1707  0.4034  1.2616
45498SOL    HW242458   5.567   0.842   2.514 -1.5327 -0.0185 -0.6574
45499SOL     OW42459  11.261   2.988  11.867 -0.3772  0.2201  0.2605
45499SOL    HW142460  11.248   2.898  11.897 -0.3837  0.4554  0.9777
45499SOL    HW242461  11.214   2.993  11.784  0.0766 -0.5924 -0.0573
45500SOL     OW42462   9.455   3.197   5.981 -0.2153  0.1636 -0.3644
45500SOL    HW142463   9.400   3.276   5.985  1.1404  1.1983 -1.2890
45500SOL    HW242464   9.482   3.183   6.072 -0.6734  0.6212 -0.1522
45501SOL     OW42465   7.816   4.990   3.280  0.0362  0.0112 -0.1248
45501SOL    HW142466   7.786   5.053   3.214 -0.1697 -0.4410 -0.4627
45501SOL    HW242467   7.773   4.908   3.257 -0.7287  0.0448  1.0820
45502SOL     OW42468   7.589   4.506   0.377  0.2067 -1.1141  0.1051
45502SOL    HW142469   7.537   4.431   0.407  0.0053 -1.1170 -0.2450
45502SOL    HW242470   7.546   4.535   0.296 -0.7455  0.4807  1.1469
45503SOL     OW42471   2.163   1.078  10.478 -0.2234 -0.1035 -0.1270
45503SOL    HW142472   2.199   1.164  10.501 -2.3646  0.2278  2.5726
45503SOL    HW242473   2.224   1.015  10.516 -1.3471  0.4094  2.7498
45504SOL     OW42474   5.423  10.378  10.337 -0.2416 -0.0861  0.3625
45504SOL    HW142475   5.434  10.325  10.416  0.6104 -0.7046 -0.1537
45504SOL    HW242476   5.414  10.314  10.267  1.5997  0.4222 -0.3892
45505SOL     OW42477  11.963   1.048   4.122 -0.0558  0.1680  0.5279
45505SOL    HW142478  11.902   1.112   4.158  0.5831  0.4456  1.1355
45505SOL    HW242479  11.965   1.068   4.028 -1.3818 -0.2725  0.3877
45506SOL     OW42480   1.243   6.560   3.429 -0.5097  0.4127  0.5308
45506SOL    HW142481   1.294   6.553   3.509  0.3626 -0.6480 -0.0905
45506SOL    HW242482   1.152   6.561   3.458 -0.1817  1.5643  1.6060
45507SOL     OW42483   4.835   1.978  11.393 -0.4358  0.5405 -0.1660
45507SOL    HW142484   4.771   1.926  11.346  1.2070 -0.9856 -0.8458
45507SOL    HW242485   4.800   1.986  11.481 -1.8639  0.3371 -0.6972
45508SOL     OW42486  11.251  10.725   8.226 -0.0173 -0.2713  0.6622
45508SOL    HW142487  11.330  10.778   8.215  0.9591 -1.2513  2.4806
45508SOL    HW242488  11.198  10.775   8.288 -0.5988  0.1128 -0.1274
45509SOL     OW42489  10.822   0.130  10.751  0.0229 -0.7439 -0.3021
45509SOL    HW142490  10.800   0.212  10.708 -0.3442 -0.7101 -0.0509
45509SOL    HW242491  10.843   0.154  10.841 -1.8993 -1.1240  0.2913
45510SOL     OW42492   5.176   3.171   9.482 -0.4895  0.5297 -0.0374
45510SOL    HW142493   5.194   3.116   9.558  0.4699 -0.1667 -0.7398
45510SOL    HW242494   5.240   3.143   9.417 -1.1209  1.2896 -1.0139
45511SOL     OW42495   7.033   4.386   2.720  0.0092  0.4733  0.0321
45511SOL    HW142496   7.046   4.468   2.672 -0.3045 -0.5131 -1.8523
45511SOL    HW242497   6.978   4.333   2.662 -0.8214 -0.6386  1.7296
45512SOL     OW42498   4.570   4.697   6.669  0.1321  0.3174  0.1269
45512SOL    HW142499   4.607   4.654   6.592 -0.7682 -0.7658  0.2800
45512SOL    HW242500   4.577   4.790   6.649  0.9500  0.0889 -0.7689
45513SOL     OW42501   8.840  12.100   3.947 -0.2670 -0.2641  0.8197
45513SOL    HW142502   8.765  12.089   3.889 -0.1512  2.3447  0.0381
45513SOL    HW242503   8.916  12.089   3.890 -0.1047 -0.1744  1.0194
45514SOL     OW42504   2.184   0.812   5.440  0.1728  0.3271  0.3555
45514SOL    HW142505   2.218   0.857   5.517 -3.4585  2.3918  0.9694
45514SOL    HW242506   2.179   0.879   5.373 -0.9458 -0.3045 -0.2195
45515SOL     OW42507   2.380   9.654   4.352  0.1615  0.0008 -0.2235
45515SOL    HW142508   2.462   9.700   4.373 -1.4926  2.7496  0.9515
45515SOL    HW242509   2.366   9.596   4.427  0.6100  0.2132  0.0325
45516SOL     OW42510   1.242   8.860   9.209  0.1883 -0.4887 -0.0904
45516SOL    HW142511   1.194   8.787   9.170  0.7393 -0.6860 -0.4029
45516SOL    HW242512   1.222   8.855   9.302 -1.0104 -0.1142 -0.3084
45517SOL     OW42513   1.646   5.604   8.632  0.5107  0.2412 -0.5457
45517SOL    HW142514   1.669   5.533   8.692  1.0860  0.5234 -0.4251
45517SOL    HW242515   1.643   5.563   8.546 -1.9127 -0.5281 -0.1821
45518SOL     OW42516   8.614   6.485   1.180 -0.4797  0.7255  0.3628
45518SOL    HW142517   8.542   6.536   1.219 -1.2934  0.7514 -1.0806
45518SOL    HW242518   8.683   6.486   1.246 -0.0872  4.4613  0.1082
45519SOL     OW42519   7.503   3.334  11.466  0.4000  0.1458 -0.3030
45519SOL    HW142520   7.559   3.321  11.389  0.9953  1.3252 -0.0847
45519SOL    HW242521   7.548   3.400  11.518 -0.7952  0.5391  0.2706
45520SOL     OW42522   0.561   5.727   6.197  0.1387  0.3297  0.1438
45520SOL    HW142523   0.473   5.740   6.162 -0.5955  1.8139  2.3087
45520SOL    HW242524   0.610   5.685   6.126 -1.5256  2.0361 -2.1683
45521SOL     OW42525   9.058   7.201   6.302 -0.2962  0.5444  0.8486
45521SOL    HW142526   9.082   7.137   6.369  1.0973  0.2997  0.1566
45521SOL    HW242527   9.073   7.286   6.344  0.3286  0.3907  0.9525
45522SOL     OW42528   6.844   2.466   7.333  0.2493  0.0591  0.0770
45522SOL    HW142529   6.808   2.393   7.282 -1.3385  1.4869 -1.0095
45522SOL    HW242530   6.930   2.437   7.362  0.5499 -1.4500 -2.1176
45523SOL     OW42531   2.259  10.255   0.450 -0.2224  0.0066  0.4228
45523SOL    HW142532   2.341  10.299   0.431  1.8698 -3.0342  1.6721
45523SOL    HW242533   2.231  10.292   0.534  0.3841  0.3505  0.4790
45524SOL     OW42534   7.708   1.655  11.761  1.1277 -0.4511 -0.2970
45524SOL    HW142535   7.653   1.621  11.832  1.5729  0.4683  0.5259
45524SOL    HW242536   7.664   1.734  11.732  1.4584 -0.2898 -0.3690
45525SOL     OW42537   1.029   9.545   1.165 -0.4162 -0.3476  0.7530
45525SOL    HW142538   0.958   9.493   1.126 -1.7889  1.7715  0.2560
45525SOL    HW242539   1.033   9.515   1.256 -1.9720 -0.5389  0.7918
45526SOL     OW42540   1.685   0.079  10.843 -0.7587 -0.0658 -0.5806
45526SOL    HW142541   1.698   0.044  10.931 -0.8236 -0.5089 -0.7436
45526SOL    HW242542   1.691   0.002  10.785  1.5700  0.4795 -1.2002
45527SOL     OW42543   7.291   1.466  10.338  0.0070 -0.0699  0.1964
45527SOL    HW142544   7.312   1.403  10.268 -2.0610 -0.9654  0.3136
45527SOL    HW242545   7.199   1.487  10.324  0.2954  1.9501  0.9851
45528SOL     OW42546   8.985  10.191   6.215  0.0763 -0.1128 -0.6193
45528SOL    HW142547   9.024  10.105   6.199  1.0940  0.0774  0.7224
45528SOL    HW242548   9.040  10.252   6.166 -1.3273 -0.2820 -2.5457
45529SOL     OW42549   8.403  11.451   4.290 -0.3315  0.1076 -0.2476
45529SOL    HW142550   8.460  11.494   4.354 -0.6393 -0.1088  0.1732
45529SOL    HW242551   8.352  11.523   4.252 -2.5063 -0.0648  2.0936
45530SOL     OW42552   7.065   0.404   9.034  0.4712 -0.0016 -0.2761
45530SOL    HW142553   7.008   0.382   9.108 -0.2693  0.0138 -0.8376
45530SOL    HW242554   7.149   0.363   9.056  0.7970  1.4485  1.3935
45531SOL     OW42555   5.204   3.461   0.211 -0.3141 -0.0208 -0.2892
45531SOL    HW142556   5.151   3.383   0.227 -1.1512  0.6694  0.4062
45531SOL    HW242557   5.259   3.439   0.136  0.7131 -1.9135  0.9370
45532SOL     OW42558   0.761  12.359   3.430 -0.7046  0.8156 -0.2066
45532SOL    HW142559   0.809  12.280   3.405 -1.6526 -0.3464  1.4419
45532SOL    HW242560   0.815  12.399   3.498 -0.2511  1.6019 -1.0051
45533SOL     OW42561   7.868   1.098   2.439  0.3037 -0.2259  0.0757
45533SOL    HW142562   7.797   1.142   2.486 -1.7801 -2.0476 -1.1834
45533SOL    HW242563   7.838   1.093   2.348  2.8907  0.5221 -0.9229
45534SOL     OW42564  10.658   2.140   1.559 -0.0023  0.2698  0.9783
45534SOL    HW142565  10.586   2.141   1.622  0.2556 -0.3060  1.2964
45534SOL    HW242566  10.692   2.229   1.560 -1.7890  1.0184 -0.4759
45535SOL     OW42567   5.960   2.436   6.998  0.1092 -0.5007 -0.3990
45535SOL    HW142568   5.898   2.472   7.062 -0.2560  1.0834 -1.5699
45535SOL    HW242569   6.045   2.440   7.042 -0.4835 -1.9734  0.9464
45536SOL     OW42570   7.155   6.506   4.124 -0.8407 -0.4803  0.2895
45536SOL    HW142571   7.130   6.525   4.215  0.0419  1.4136  0.1830
45536SOL    HW242572   7.072   6.490   4.080 -1.3463 -0.6424  1.2639
45537SOL     OW42573  10.342   1.756   9.802 -0.5269  0.5910 -0.2010
45537SOL    HW142574  10.360   1.850   9.800 -1.1170  0.7365 -3.6730
45537SOL    HW242575  10.410   1.716   9.748 -0.5214 -0.9734  0.8676
45538SOL     OW42576   1.161  12.282   6.822 -0.1348  0.1135 -0.2668
45538SOL    HW142577   1.082  12.323   6.858 -1.4040 -0.1510 -2.5319
45538SOL    HW242578   1.200  12.351   6.767  0.9902  0.0973  0.4865
45539SOL     OW42579  11.730   3.284   2.408 -0.6077 -0.7084 -0.2600
45539SOL    HW142580  11.680   3.344   2.463 -1.4812 -1.6235 -0.0438
45539SOL    HW242581  11.690   3.198   2.422  1.1884 -1.5284  0.1231
45540SOL     OW42582   3.640   2.956  12.488 -0.0698  0.8721  0.1305
45540SOL    HW142583   3.576   2.910  12.434 -0.9586  1.8485  0.3075
45540SOL    HW242584   3.587   3.013  12.544  0.9281  1.2839  0.6829
45541SOL     OW42585   5.546   1.666   2.166 -0.1146 -0.3027 -0.5200
45541SOL    HW142586   5.567   1.655   2.259 -0.4240 -1.8729 -0.6121
45541SOL    HW242587   5.546   1.577   2.130 -1.6446  0.1108 -1.6684
45542SOL     OW42588   2.272   6.252   6.801 -0.3936 -0.4875  0.3384
45542SOL    HW142589   2.244   6.287   6.717  0.3586  0.0809  0.3182
45542SOL    HW242590   2.362   6.283   6.811 -0.6410 -0.1332  1.5795
45543SOL     OW42591   1.141   3.757   8.836 -0.1019 -0.0515  0.4701
45543SOL    HW142592   1.178   3.740   8.750 -0.8906 -3.1912  0.6081
45543SOL    HW242593   1.072   3.822   8.821  0.7141  0.5055 -0.9866
45544SOL     OW42594   8.201   7.200   9.694 -0.4022 -0.0359 -0.4638
45544SOL    HW142595   8.225   7.138   9.763 -0.7019 -0.2785 -0.5727
45544SOL    HW242596   8.124   7.245   9.728 -1.2547 -0.9593 -1.0941
45545SOL     OW42597   8.569   4.326   4.558 -0.2946  0.0096 -0.1174
45545SOL    HW142598   8.610   4.334   4.643  0.8597  1.2313 -0.7526
45545SOL    HW242599   8.632   4.279   4.504 -2.1275 -3.3100  0.3400
45546SOL     OW42600   2.946   3.388   6.768 -0.2297  0.2074 -0.0195
45546SOL    HW142601   2.955   3.316   6.705 -0.1891 -0.6238  0.9074
45546SOL    HW242602   2.862   3.372   6.811  0.3261  0.0199  1.0267
45547SOL     OW42603   5.668   0.772  11.331 -0.2419  0.0659  0.0501
45547SOL    HW142604   5.673   0.868  11.333 -0.9055  0.1024  2.2561
45547SOL    HW242605   5.576   0.753  11.314 -0.1235 -0.1931 -0.3106
45548SOL     OW42606   6.931   2.101   3.655 -0.3134 -0.0777 -0.7245
45548SOL    HW142607   6.955   2.083   3.564 -1.9231 -1.2991 -0.9435
45548SOL    HW242608   6.953   2.021   3.702  0.1153  0.3942 -0.1102
45549SOL     OW42609   4.550   1.709   6.489  0.6855 -0.5659  0.0926
45549SOL    HW142610   4.482   1.643   6.496  0.1808 -0.2220 -1.2639
45549SOL    HW242611   4.618   1.669   6.434  1.7687 -1.0235  1.6815
45550SOL     OW42612  11.911   6.015   1.851 -0.3659 -0.1929 -0.0196
45550SOL    HW142613  11.828   6.062   1.861 -0.4799 -0.6969  1.7518
45550SOL    HW242614  11.887   5.923   1.862  0.4422 -0.3366  0.5736
45551SOL     OW42615   0.166   4.270   5.140 -0.2485  0.3994  0.7022
45551SOL    HW142616   0.196   4.190   5.183  0.8083  0.1570 -0.4072
45551SOL    HW242617   0.162   4.247   5.047  1.9801  2.1097  0.0831
45552SOL     OW42618   0.503   5.101   8.045 -0.1780  0.5129 -0.0317
45552SOL    HW142619   0.461   5.041   8.107  0.1655  0.1464 -0.1482
45552SOL    HW242620   0.543   5.044   7.980  0.6885  0.8507  0.1989
45553SOL     OW42621   1.311   7.989   3.050 -0.1627 -0.2377  0.0805
45553SOL    HW142622   1.342   8.004   3.139  0.2815 -1.6152  0.1849
45553SOL    HW242623   1.222   8.024   3.049 -0.1054 -0.0502  1.0132
45554SOL     OW42624   9.620   4.995  11.739  0.1323 -0.2842 -0.2412
45554SOL    HW142625   9.552   4.952  11.686 -0.1926 -1.2800  0.9440
45554SOL    HW242626   9.672   4.924  11.774 -0.4822  0.2356  1.8704
45555SOL     OW42627   2.529   9.190   8.986 -0.2312  0.3769  0.2798
45555SOL    HW142628   2.561   9.122   9.045 -1.9208 -1.9301 -1.2959
45555SOL    HW242629   2.437   9.200   9.010 -0.4468  0.8162 -0.7055
45556SOL     OW42630   5.615   5.882  10.854 -0.1225 -0.0322  0.6138
45556SOL    HW142631   5.565   5.961  10.833 -0.3767 -0.1998  0.5920
45556SOL    HW242632   5.561   5.810  10.823 -0.6128 -0.3027  2.0150
45557SOL     OW42633   4.253   0.179   9.304 -0.3155  0.1124 -0.2576
45557SOL    HW142634   4.284   0.118   9.237  0.2792  1.7299 -1.5167
45557SOL    HW242635   4.168   0.144   9.331  0.2213 -1.5153 -0.5849
45558SOL     OW42636   8.193   5.456  12.085  0.0739  0.2009  0.2194
45558SOL    HW142637   8.219   5.489  11.999  0.2248 -0.6444 -0.0641
45558SOL    HW242638   8.241   5.374  12.095 -0.7926 -0.2657  0.6410
45559SOL     OW42639   3.589   5.516  12.377  0.2375 -0.7096  0.5950
45559SOL    HW142640   3.644   5.506  12.454  0.9194  0.1634  0.2360
45559SOL    HW242641   3.646   5.495  12.303  0.2217  0.5726  0.1944
45560SOL     OW42642  12.406  10.351  10.005 -0.0687 -0.8836  0.3526
45560SOL    HW142643  12.357  10.431  10.024 -0.9731 -1.6879  1.5905
45560SOL    HW242644  12.426  10.314  10.090 -0.2841 -2.3306 -0.1903
45561SOL     OW42645   1.490   6.012   1.402 -0.3184  0.3106 -0.5921
45561SOL    HW142646   1.547   6.008   1.478 -1.6709 -0.8672  0.4070
45561SOL    HW242647   1.418   6.069   1.428 -0.2646  0.7576 -1.3812
45562SOL     OW42648  11.704   4.612   4.568  0.1347 -0.2054  0.2853
45562SOL    HW142649  11.637   4.644   4.507 -0.2195 -1.3415  0.0470
45562SOL    HW242650  11.767   4.683   4.575 -0.3840  0.3523 -0.5775
45563SOL     OW42651   9.867   2.339   4.586 -0.1133  0.2226  0.8726
45563SOL    HW142652   9.925   2.404   4.626 -0.2796 -0.3664  2.1530
45563SOL    HW242653   9.921   2.260   4.580 -0.3723  0.0518  0.7886
45564SOL     OW42654   3.917   3.224   2.668  0.5331 -0.0096 -0.0117
45564SOL    HW142655   3.928   3.246   2.761  0.4685 -0.2530  0.0557
45564SOL    HW242656   3.987   3.271   2.624  0.7687 -0.1539  0.2044
45565SOL     OW42657  11.520   3.158   1.166 -0.6381 -0.3203 -0.0753
45565SOL    HW142658  11.586   3.146   1.234  0.6789  1.5615 -0.9671
45565SOL    HW242659  11.440   3.180   1.215 -0.2325 -0.9976  0.9364
45566SOL     OW42660   8.018   1.551   8.017 -0.4688 -0.1479  0.0728
45566SOL    HW142661   7.947   1.559   8.081 -0.3728  2.7234 -0.0650
45566SOL    HW242662   7.981   1.585   7.936  0.7490  0.3819 -0.2783
45567SOL     OW42663   3.317   9.702   9.006  0.6378  0.3664 -0.6661
45567SOL    HW142664   3.356   9.615   8.994  0.9369  0.5077 -0.7425
45567SOL    HW242665   3.233   9.685   9.049  1.1093  0.1031  0.1783
45568SOL     OW42666   1.603   9.041   1.931 -0.1675  0.0379 -0.0534
45568SOL    HW142667   1.593   9.043   1.836 -0.5812 -2.2383 -0.0960
45568SOL    HW242668   1.688   9.001   1.946 -0.5562 -0.5820  0.5365
45569SOL     OW42669   4.898   6.705   7.557 -1.0810  0.4545  0.0257
45569SOL    HW142670   4.871   6.613   7.560 -1.6394  0.5569 -1.0986
45569SOL    HW242671   4.993   6.703   7.570 -0.6258 -0.5696 -2.8406
45570SOL     OW42672  10.906   7.274   4.727  0.1082 -0.6616 -0.1147
45570SOL    HW142673  10.956   7.274   4.809 -0.1850 -1.4656  0.0756
45570SOL    HW242674  10.837   7.339   4.741 -0.8410 -1.8252  0.8633
45571SOL     OW42675  11.579  10.420   5.568 -0.4369  0.1039 -0.7671
45571SOL    HW142676  11.672  10.440   5.584 -0.4981 -0.9254  1.3358
45571SOL    HW242677  11.581  10.343   5.511  0.2164 -1.7969  1.5883
45572SOL     OW42678   5.373   5.511   4.221 -0.6646 -1.0579  0.0215
45572SOL    HW142679   5.455   5.464   4.238  0.9303  1.3842 -0.4742
45572SOL    HW242680   5.337   5.530   4.308  1.1158  0.7783  0.4283
45573SOL     OW42681  12.167   9.049   4.297  0.2575 -0.0330  0.6885
45573SOL    HW142682  12.166   8.954   4.282 -2.0149  0.1788 -1.0078
45573SOL    HW242683  12.168   9.058   4.392  0.1024 -1.7617  0.8946
45574SOL     OW42684  11.745   4.354   0.505 -0.0626  0.1990  0.3244
45574SOL    HW142685  11.741   4.407   0.425 -2.0477  2.0569  1.5412
45574SOL    HW242686  11.688   4.279   0.486  1.3679 -0.6581 -0.7861
45575SOL     OW42687   7.459   9.060   0.089  0.5002 -0.2239 -1.2327
45575SOL    HW142688   7.442   9.129   0.153  0.8721 -0.6668 -0.6470
45575SOL    HW242689   7.442   8.978   0.137 -1.5359 -0.5410 -2.3632
45576SOL     OW42690   3.085  12.360   5.273 -0.4697  0.4120 -0.2318
45576SOL    HW142691   3.142  12.288   5.298 -1.6326 -0.3164  0.4099
45576SOL    HW242692   3.098  12.369   5.178  0.6572  0.2482 -0.1041
45577SOL     OW42693   2.816  10.356   9.629  0.2603  0.1955  0.1686
45577SOL    HW142694   2.761  10.292   9.583  2.3151 -2.0882  0.6732
45577SOL    HW242695   2.851  10.411   9.559 -1.6769  0.9951 -0.2601
45578SOL     OW42696  12.304  12.311  11.754  0.2056 -0.3649  0.3427
45578SOL    HW142697  12.282  12.392  11.801  2.4774 -0.3341  1.5286
45578SOL    HW242698  12.390  12.329  11.715 -0.5600 -1.2426 -1.8750
45579SOL     OW42699   8.697   4.285   6.847 -0.3236  0.0053 -0.1158
45579SOL    HW142700   8.631   4.231   6.890 -1.0942  0.9465 -0.0816
45579SOL    HW242701   8.724   4.348   6.914  0.6495 -0.3939 -0.1198
45580SOL     OW42702   1.511   3.125   4.524  0.3475 -0.0133 -0.0315
45580SOL    HW142703   1.562   3.045   4.516  1.2908  0.4790  0.7372
45580SOL    HW242704   1.545   3.167   4.604 -0.1909  1.0918 -0.3616
45581SOL     OW42705   3.644   5.771   9.180  0.3453 -0.4337 -0.3527
45581SOL    HW142706   3.740   5.770   9.182  0.5003  2.9277 -0.7103
45581SOL    HW242707   3.619   5.846   9.234 -2.0218 -0.3641 -1.3946
45582SOL     OW42708   5.009   7.509   0.238 -0.3388  0.4476 -0.2663
45582SOL    HW142709   5.094   7.541   0.269  0.9766 -1.7476 -1.2947
45582SOL    HW242710   5.013   7.519   0.142 -0.5251 -1.1371 -0.4712
45583SOL     OW42711   9.648   8.431   5.987 -0.2170  0.0919 -0.5568
45583SOL    HW142712   9.667   8.515   5.945 -0.5174  0.8779  0.8360
45583SOL    HW242713   9.672   8.443   6.078 -0.5846 -1.2349 -0.2616
45584SOL     OW42714   0.122   1.124   3.632 -0.3524  0.1289 -0.1665
45584SOL    HW142715   0.081   1.210   3.636  0.1376  0.4566 -1.7570
45584SOL    HW242716   0.202   1.133   3.683 -0.6365  0.4086  0.2398
45585SOL     OW42717  11.464   3.687   4.865  0.3334 -0.0987 -0.3137
45585SOL    HW142718  11.390   3.743   4.841  0.0087  0.8835  2.5764
45585SOL    HW242719  11.459   3.613   4.805 -2.1747  0.6074 -1.0813
45586SOL     OW42720  11.592   3.734   7.259 -0.2748  0.5257  0.0201
45586SOL    HW142721  11.607   3.778   7.343 -1.1733  0.5176  0.2049
45586SOL    HW242722  11.574   3.804   7.197  1.4809  0.6067 -0.4429
45587SOL     OW42723  10.242  10.509   1.899  0.1214  0.3812  0.3282
45587SOL    HW142724  10.176  10.503   1.830 -0.1748 -1.0135  0.7172
45587SOL    HW242725  10.220  10.440   1.961  0.5110  1.4759  1.7352
45588SOL     OW42726   0.172  11.525  10.059 -0.1056 -0.1845  0.1716
45588SOL    HW142727   0.244  11.479  10.101  0.6536  0.4664 -0.3997
45588SOL    HW242728   0.096  11.507  10.115  0.4376 -1.0928  0.6279
45589SOL     OW42729   1.073   6.212   6.579 -0.3500  0.3437 -0.1856
45589SOL    HW142730   1.034   6.142   6.631 -1.3755  1.8476  1.1752
45589SOL    HW242731   1.065   6.182   6.489  0.4019 -1.8287  0.4076
45590SOL     OW42732   4.408   0.650   5.860 -0.3198 -0.7354 -0.0902
45590SOL    HW142733   4.322   0.692   5.849 -0.2109 -1.0395 -2.7565
45590SOL    HW242734   4.453   0.704   5.924 -1.9592  0.3315  0.2216
45591SOL     OW42735  11.070   5.645   8.758  0.3194 -0.3959 -0.0332
45591SOL    HW142736  11.145   5.686   8.803 -0.5343  1.4241 -0.1528
45591SOL    HW242737  10.994   5.676   8.807 -0.4624 -0.6899 -1.0450
45592SOL     OW42738  11.918   6.782   0.522 -0.5065 -0.1318  0.1625
45592SOL    HW142739  11.894   6.865   0.481 -0.9801 -0.3259  0.0320
45592SOL    HW242740  11.960   6.807   0.605 -0.6881  0.2359  0.1456
45593SOL     OW42741   5.633   1.425   6.312 -0.0715  0.0633  0.4663
45593SOL    HW142742   5.568   1.375   6.361 -1.9518  1.3566 -0.5888
45593SOL    HW242743   5.590   1.446   6.229  0.4967  3.5086  0.8885
45594SOL     OW42744   5.330   9.704   9.343 -0.0314 -0.0962  0.2859
45594SOL    HW142745   5.425   9.716   9.345  0.0856  0.1324 -2.7419
45594SOL    HW242746   5.314   9.654   9.263 -2.4469 -0.5756  0.9953
45595SOL     OW42747   6.427  10.474   3.305  0.1330 -0.1034  0.0589
45595SOL    HW142748   6.400  10.565   3.320 -1.2326 -0.6227  0.8535
45595SOL    HW242749   6.384  10.449   3.223  0.4151 -0.0742 -0.0995
45596SOL     OW42750   5.476   1.909   1.346 -0.0891 -0.1699  0.1066
45596SOL    HW142751   5.492   1.865   1.263 -0.7656 -0.3357  0.0591
45596SOL    HW242752   5.400   1.966   1.330  0.9234  1.2276  0.0994
45597SOL     OW42753   2.348  11.544  10.833  0.3483  0.1706 -0.1040
45597SOL    HW142754   2.275  11.515  10.779  0.3253 -0.3659  0.2087
45597SOL    HW242755   2.307  11.586  10.909  0.3271 -1.2642  0.7034
45598SOL     OW42756   5.573   1.281   5.697  0.4040 -0.4074 -0.1697
45598SOL    HW142757   5.583   1.200   5.748  0.9862 -1.8698 -2.4651
45598SOL    HW242758   5.623   1.265   5.617  0.4225  2.2142 -0.7610
45599SOL     OW42759   3.344   4.180   4.666 -0.7497  0.0037  0.8104
45599SOL    HW142760   3.303   4.098   4.693 -0.2841 -0.9789 -1.2132
45599SOL    HW242761   3.278   4.224   4.613 -0.8178  0.7059  1.4667
45600SOL     OW42762  11.470   4.655   4.755 -0.0486  0.0307  0.1831
45600SOL    HW142763  11.453   4.746   4.782  0.5391 -0.6523  3.3345
45600SOL    HW242764  11.562   4.655   4.729 -0.0130  0.3231  0.3025
45601SOL     OW42765   9.781   7.726   0.922  0.2444  0.2489 -0.5689
45601SOL    HW142766   9.768   7.651   0.865 -1.5140 -0.2392  0.4041
45601SOL    HW242767   9.694   7.747   0.956  1.2480  0.0584  2.4685
45602SOL     OW42768   0.717   3.314   0.754 -0.3431  0.0225  0.1970
45602SOL    HW142769   0.709   3.359   0.839  1.9433 -0.3614  0.7016
45602SOL    HW242770   0.728   3.385   0.691  0.9495  0.3019  0.6833
45603SOL     OW42771   9.512   4.633   5.247  0.0535  0.0752  0.3311
45603SOL    HW142772   9.450   4.578   5.199  0.2253  0.6317 -0.5601
45603SOL    HW242773   9.570   4.571   5.292 -1.5121 -0.4502  1.6999
45604SOL     OW42774   3.927  12.339   4.922 -0.3645 -0.0186  0.2579
45604SOL    HW142775   3.960  12.425   4.894  0.6777 -0.1169  1.1160
45604SOL    HW242776   4.003  12.281   4.915 -0.3804 -0.3014  2.0809
45605SOL     OW42777   0.784   1.050   0.976 -0.6304  0.0458 -0.9075
45605SOL    HW142778   0.824   1.112   1.037 -1.7660  0.6981 -0.8028
45605SOL    HW242779   0.761   0.975   1.030  0.4333 -0.3310 -0.9689
45606SOL     OW42780   8.024   2.900  11.449  0.0912 -0.0632  0.4561
45606SOL    HW142781   8.021   2.962  11.521 -0.7921  0.6201 -0.1529
45606SOL    HW242782   8.048   2.817  11.490 -2.6343 -0.2368  1.9208
45607SOL     OW42783   5.987   1.848  11.445  0.1089  0.3914 -0.0808
45607SOL    HW142784   5.913   1.833  11.505 -0.0012 -3.0083 -0.8584
45607SOL    HW242785   6.063   1.854  11.502 -0.5260  2.6360  0.6418
45608SOL     OW42786   1.635  11.179   1.876 -0.9786 -0.4415 -0.1772
45608SOL    HW142787   1.549  11.184   1.918 -1.9636 -2.2521 -1.8276
45608SOL    HW242788   1.658  11.086   1.878  1.3955  0.0840  0.9794
45609SOL     OW42789  11.710   8.433   6.868 -0.3861  0.1601 -0.3723
45609SOL    HW142790  11.699   8.527   6.852 -1.0792  0.2750  0.6686
45609SOL    HW242791  11.622   8.397   6.860 -0.0823 -0.4598 -1.0321
45610SOL     OW42792   7.718   1.568   3.529 -0.0249  0.8677 -0.7012
45610SOL    HW142793   7.636   1.524   3.506  0.0008  0.3813  0.0914
45610SOL    HW242794   7.786   1.508   3.499  0.0099  0.2427  0.5237
45611SOL     OW42795   9.384   9.556   9.276  0.1260  0.0642  0.4541
45611SOL    HW142796   9.386   9.466   9.244 -1.2060 -0.0558  0.6458
45611SOL    HW242797   9.318   9.599   9.221  0.2504  0.7365  0.8183
45612SOL     OW42798   7.561   6.803  10.190 -0.3100  0.0860  0.3885
45612SOL    HW142799   7.483   6.840  10.231 -0.8640 -0.7164  0.0661
45612SOL    HW242800   7.544   6.807  10.096 -0.3507 -0.9054  0.3418
45613SOL     OW42801   3.823   1.568   4.934  0.4299 -0.0076 -0.3369
45613SOL    HW142802   3.885   1.629   4.972  2.1273 -0.8259 -1.6513
45613SOL    HW242803   3.785   1.615   4.860 -0.5275  0.4758  0.4385
45614SOL     OW42804  10.788   8.373   1.471  0.4268  0.4163  0.0719
45614SOL    HW142805  10.838   8.411   1.399 -1.5215  1.6131 -0.7287
45614SOL    HW242806  10.699   8.365   1.437 -0.4656  0.6229  2.1912
45615SOL     OW42807   1.129   6.172   0.771  0.4766  0.1011 -0.1501
45615SOL    HW142808   1.099   6.108   0.835  0.1798 -0.7074 -1.0573
45615SOL    HW242809   1.224   6.170   0.777  0.6844 -2.7023 -2.1875
45616SOL     OW42810   6.428   3.273   8.440 -0.0651 -0.1458  0.3393
45616SOL    HW142811   6.369   3.281   8.515  0.2773 -0.9929  0.7123
45616SOL    HW242812   6.457   3.182   8.442 -1.4646 -0.7216 -1.8735
45617SOL     OW42813  10.538   7.949  12.266 -0.2597  0.7154 -0.3597
45617SOL    HW142814  10.493   7.920  12.345  0.1414  1.1845  0.0472
45617SOL    HW242815  10.469   7.961  12.201 -0.5734  0.1568 -0.1335
45618SOL     OW42816   2.422   2.165   0.927 -0.2767  0.2715 -0.3476
45618SOL    HW142817   2.438   2.081   0.885  2.5585  0.8881 -0.6839
45618SOL    HW242818   2.465   2.158   1.012  2.5079  2.1708 -1.4372
45619SOL     OW42819   5.605   5.862   9.949 -0.1132  0.1156 -0.4695
45619SOL    HW142820   5.645   5.947   9.930 -0.2034 -0.0524 -1.4919
45619SOL    HW242821   5.679   5.801   9.956 -0.1013  0.0741 -0.9030
45620SOL     OW42822  11.379   7.105   2.463  0.7320 -0.0541 -0.6652
45620SOL    HW142823  11.384   7.193   2.426  0.8588  0.4739  0.5606
45620SOL    HW242824  11.442   7.106   2.535  0.7484 -1.1567 -0.6542
45621SOL     OW42825   9.728  11.206   9.268  0.0762 -0.3388  0.4428
45621SOL    HW142826   9.798  11.209   9.203  0.9176  0.3268  1.3450
45621SOL    HW242827   9.773  11.198   9.352 -0.9128  0.3299  1.0699
45622SOL     OW42828   1.716   6.245   8.665  0.1881 -0.2998  0.3002
45622SOL    HW142829   1.671   6.329   8.663  0.6278 -0.0194  1.4347
45622SOL    HW242830   1.652   6.185   8.705  0.6039 -0.0236  1.4098
45623SOL     OW42831   8.111   6.555   5.128 -0.1590 -0.4261  0.7643
45623SOL    HW142832   8.144   6.545   5.217  3.0807  0.3668 -0.1933
45623SOL    HW242833   8.184   6.526   5.072 -1.5446  0.4209 -1.6425
45624SOL     OW42834  11.024   8.597   8.773 -0.1819  0.4771 -0.0527
45624SOL    HW142835  11.081   8.644   8.713  0.1412  0.6790  0.4061
45624SOL    HW242836  11.038   8.639   8.858 -0.3355 -0.0576  0.2433
45625SOL     OW42837   4.750   9.094  12.131 -0.1556 -0.1462 -0.5797
45625SOL    HW142838   4.749   9.041  12.210 -1.7854  0.9194  0.1674
45625SOL    HW242839   4.785   9.179  12.158  3.5463 -1.0151 -2.0053
45626SOL     OW42840   0.526   4.971  10.537 -0.6166 -0.3690 -0.2188
45626SOL    HW142841   0.487   5.056  10.520 -1.2057 -0.0624  2.2640
45626SOL    HW242842   0.620   4.985  10.525 -0.7946  0.3300 -0.8764
45627SOL     OW42843  11.184   8.024   1.258  0.7195 -0.0215 -0.3306
45627SOL    HW142844  11.260   7.994   1.207  0.3150  0.5541 -1.3063
45627SOL    HW242845  11.133   7.945   1.273  0.8792 -0.2142 -0.7700
45628SOL     OW42846   2.442   9.370   8.503  0.4719  0.3595  0.4196
45628SOL    HW142847   2.373   9.406   8.446  0.8185 -1.4712 -1.2645
45628SOL    HW242848   2.504   9.442   8.513 -0.3420  1.1947 -0.3111
45629SOL     OW42849   7.672   3.940   4.504 -0.3562  0.2890  0.2633
45629SOL    HW142850   7.719   3.939   4.587  0.5571 -0.7513 -0.2503
45629SOL    HW242851   7.631   3.853   4.498 -0.8927  0.5593 -0.1097
45630SOL     OW42852   9.046  11.168   2.967  0.5571  0.0888  0.2677
45630SOL    HW142853   9.041  11.081   2.929 -2.0931 -0.0834  0.8475
45630SOL    HW242854   9.094  11.220   2.902  2.0263 -1.7051 -0.1584
45631SOL     OW42855   6.395  11.919   3.640 -0.6906 -0.1629 -0.0791
45631SOL    HW142856   6.414  11.843   3.585 -1.2615  0.1773 -0.7691
45631SOL    HW242857   6.336  11.885   3.708  0.6480 -0.7581  0.8239
45632SOL     OW42858   1.692   3.420   1.927 -0.0185  0.2080  0.2130
45632SOL    HW142859   1.698   3.466   2.011 -0.3211  1.9640 -0.7054
45632SOL    HW242860   1.772   3.445   1.880  0.8794 -1.9120  0.4816
45633SOL     OW42861   9.423   7.361   9.352 -0.1508  0.1679 -0.2568
45633SOL    HW142862   9.433   7.398   9.264 -2.0276  1.7675  0.1208
45633SOL    HW242863   9.388   7.274   9.338  0.3675  0.0865 -1.1087
45634SOL     OW42864  12.272   6.884  12.287 -0.0776  0.4782 -0.3610
45634SOL    HW142865  12.240   6.815  12.344 -0.1996 -0.0509 -1.0629
45634SOL    HW242866  12.358   6.853  12.258 -0.5811  0.1189 -1.5142
45635SOL     OW42867   0.716   8.984   6.978 -0.2771 -0.2625 -0.1649
45635SOL    HW142868   0.758   8.958   6.896 -0.1189  1.5341 -0.6938
45635SOL    HW242869   0.769   9.057   7.011 -0.7892 -0.4380  1.1432
45636SOL     OW42870   2.371   5.002   1.982  0.4452 -0.4888 -0.0601
45636SOL    HW142871   2.280   5.027   1.968  0.6445  0.3630  0.1602
45636SOL    HW242872   2.422   5.079   1.957  1.1477 -1.1535 -0.7431
45637SOL     OW42873  10.145   7.285   4.123 -0.4521 -0.2477 -0.6671
45637SOL    HW142874  10.133   7.197   4.160  0.0512 -0.7454 -1.6206
45637SOL    HW242875  10.216   7.323   4.174  0.2620 -0.9373 -1.1048
45638SOL     OW42876   3.415   2.828  10.311  0.3799 -0.6629 -0.0079
45638SOL    HW142877   3.409   2.862  10.222 -0.1438  0.7524  0.5463
45638SOL    HW242878   3.480   2.884  10.354 -1.2411  0.3808  1.2122
45639SOL     OW42879   4.286   1.806   6.240  0.2760 -0.1649 -0.4098
45639SOL    HW142880   4.233   1.798   6.160 -0.6546 -0.4406  0.2113
45639SOL    HW242881   4.339   1.727   6.242  0.9158  0.2284 -1.1671
45640SOL     OW42882   3.252  10.800   3.797  0.1297 -0.2599 -0.2199
45640SOL    HW142883   3.267  10.791   3.703  1.5208  0.2043 -0.0720
45640SOL    HW242884   3.307  10.874   3.823 -0.9098  0.1903  0.8121
45641SOL     OW42885   0.081   7.346   5.678 -0.6551  0.2272  0.3041
45641SOL    HW142886   0.002   7.359   5.626  0.1155 -1.0032 -1.2799
45641SOL    HW242887   0.150   7.331   5.612  0.1598 -2.5964  1.6749
45642SOL     OW42888   8.099   7.496  11.230 -0.1383 -0.4137 -0.8501
45642SOL    HW142889   8.132   7.420  11.182  0.0991  0.0157 -1.3837
45642SOL    HW242890   8.161   7.507  11.303 -0.0357 -0.5878 -0.9112
45643SOL     OW42891   2.495  11.634   2.357  0.1072  0.7595  0.1260
45643SOL    HW142892   2.491  11.541   2.333 -1.4427  0.7185  0.3851
45643SOL    HW242893   2.552  11.674   2.292 -0.6490 -0.0748 -1.0958
45644SOL     OW42894   2.756  11.165   2.900 -0.0348  0.1628  0.1773
45644SOL    HW142895   2.787  11.246   2.860 -0.3532  0.3109  0.2270
45644SOL    HW242896   2.669  11.187   2.934  0.4259  0.1861  1.3943
45645SOL     OW42897   2.861   3.441   7.541 -0.4003 -0.0614  0.1009
45645SOL    HW142898   2.863   3.504   7.613  0.4962 -1.2986  1.1942
45645SOL    HW242899   2.857   3.496   7.462 -0.0232  1.3509  1.0246
45646SOL     OW42900   0.623   5.333   7.517  1.1735 -0.1114 -0.2878
45646SOL    HW142901   0.615   5.238   7.515 -0.5550 -0.0537  0.9742
45646SOL    HW242902   0.637   5.358   7.425  0.7127 -1.5249 -0.7698
45647SOL     OW42903  11.294  10.052   5.349  0.3854 -0.5657 -0.5685
45647SOL    HW142904  11.333   9.967   5.329  0.9560 -1.1011  2.3173
45647SOL    HW242905  11.205  10.031   5.375  0.4035 -0.2417 -0.2439
45648SOL     OW42906   8.370   4.700   5.518 -0.4645 -0.1621 -0.1197
45648SOL    HW142907   8.279   4.707   5.491 -0.7295 -0.2823  0.7052
45648SOL    HW242908   8.395   4.789   5.544  0.2570  0.2771 -2.1196
45649SOL     OW42909   3.225   1.441  10.328  0.3290 -0.1564 -0.3422
45649SOL    HW142910   3.193   1.531  10.342  2.0188  0.6888 -1.5476
45649SOL    HW242911   3.146   1.391  10.307 -1.0384  0.4225  2.8476
45650SOL     OW42912   1.479   0.926   7.755  0.5035  0.2523  0.4921
45650SOL    HW142913   1.493   0.878   7.837  0.7222  0.8331  0.8040
45650SOL    HW242914   1.565   0.959   7.732  0.1671  1.4965  0.9250
45651SOL     OW42915   1.107  10.203  11.140  0.0679 -0.0135  0.4307
45651SOL    HW142916   1.140  10.164  11.221  0.7686 -0.8149 -0.2163
45651SOL    HW242917   1.156  10.285  11.131  1.6319 -0.9776 -0.2842
45652SOL     OW42918   5.288   0.998   8.757 -0.4525  0.3846  0.3400
45652SOL    HW142919   5.353   0.936   8.792  0.7099  0.5045 -1.4858
45652SOL    HW242920   5.330   1.083   8.765 -0.3671  0.4632 -0.8532
45653SOL     OW42921   4.469   0.169   1.821  0.1294 -0.6329 -0.4340
45653SOL    HW142922   4.511   0.201   1.741 -1.3253  1.1118 -0.5404
45653SOL    HW242923   4.375   0.178   1.804 -0.2050 -0.1462  1.4984
45654SOL     OW42924   9.547   5.717   6.033 -0.3487 -0.6162  0.4148
45654SOL    HW142925   9.511   5.804   6.017 -0.0387 -0.7477 -1.1504
45654SOL    HW242926   9.600   5.698   5.956 -3.3401 -3.6810 -1.1662
45655SOL     OW42927   0.923   6.281   0.015  0.2570 -0.1684  0.4197
45655SOL    HW142928   0.863   6.218  -0.023  0.6882  0.2232 -0.9779
45655SOL    HW242929   0.982   6.305  -0.057  1.5523  0.0971  1.5176
45656SOL     OW42930   6.306   6.503  12.255 -0.1279  0.2388 -0.1551
45656SOL    HW142931   6.231   6.534  12.305  0.8694  0.5638  1.2253
45656SOL    HW242932   6.373   6.571  12.267  1.0687 -0.9772  0.4003
45657SOL     OW42933   7.842  10.263   9.142  0.0209  0.4174  0.4537
45657SOL    HW142934   7.834  10.332   9.208 -0.6239  0.8824 -0.0954
45657SOL    HW242935   7.886  10.191   9.187  0.1970  0.9816  1.1936
45658SOL     OW42936   8.427   0.776   2.212 -0.5871 -0.1711 -0.2568
45658SOL    HW142937   8.432   0.871   2.199  0.3841 -0.4162 -2.0007
45658SOL    HW242938   8.338   0.761   2.242 -0.9236  1.2487 -0.4469
45659SOL     OW42939   4.037  11.047  10.533  0.0241  0.2334  0.1174
45659SOL    HW142940   4.000  11.133  10.516 -0.9577  0.0253  1.1256
45659SOL    HW242941   3.981  11.009  10.600  0.7435 -0.9955  0.0559
45660SOL     OW42942  12.160   4.278   1.448  0.1843 -0.0431 -0.4332
45660SOL    HW142943  12.217   4.281   1.371  1.1705 -2.0326  0.1700
45660SOL    HW242944  12.126   4.189   1.450 -0.1598  0.0884  1.1966
45661SOL     OW42945   4.419   9.279   5.263  0.4040  0.9443 -0.1291
45661SOL    HW142946   4.368   9.339   5.318  0.3872  0.6144  0.2164
45661SOL    HW242947   4.489   9.247   5.320  0.6485  0.9410 -0.4310
45662SOL     OW42948   6.191   7.039   3.343 -0.7997  0.1152  0.5711
45662SOL    HW142949   6.241   6.991   3.277  0.1857 -0.6689  1.8528
45662SOL    HW242950   6.155   7.114   3.295  2.2800  1.1997 -0.2672
45663SOL     OW42951   0.761  10.120   2.196 -0.5349 -0.2542 -0.1362
45663SOL    HW142952   0.803  10.055   2.141 -0.8907 -0.5066 -0.1129
45663SOL    HW242953   0.776  10.203   2.151  1.1214 -0.1538  0.5389
45664SOL     OW42954   9.065   6.103   0.393 -0.2710 -1.0009  0.0341
45664SOL    HW142955   8.981   6.112   0.347 -0.3787 -1.4907  0.1347
45664SOL    HW242956   9.050   6.034   0.457 -0.0938 -0.3847  0.7544
45665SOL     OW42957   4.368   1.975   7.231  0.5975  0.0690  0.3033
45665SOL    HW142958   4.430   1.914   7.190 -0.4621 -0.4329 -0.5955
45665SOL    HW242959   4.404   2.062   7.212  1.6611 -0.2348  0.8537
45666SOL     OW42960   6.216  12.333   7.108 -0.1530  0.0777  0.2913
45666SOL    HW142961   6.297  12.385   7.100 -0.8179  1.0660 -0.1857
45666SOL    HW242962   6.147  12.398   7.121 -1.0929 -0.6245 -0.9710
45667SOL     OW42963  10.364   9.611  10.141  0.1877  0.1323 -0.2165
45667SOL    HW142964  10.371   9.545  10.210  0.9227  0.5571  0.1315
45667SOL    HW242965  10.365   9.695  10.188 -1.2844  0.3998 -0.6015
45668SOL     OW42966   0.529  11.781   4.715  0.1393  0.3460  0.7124
45668SOL    HW142967   0.573  11.726   4.780 -0.7325 -0.5534  0.5671
45668SOL    HW242968   0.449  11.734   4.694  0.7191  0.2348 -1.5606
45669SOL     OW42969   8.569  11.257  11.442 -0.5181  0.7038  0.1189
45669SOL    HW142970   8.618  11.340  11.438 -1.4606  1.3711  1.6213
45669SOL    HW242971   8.478  11.282  11.424 -0.7300 -0.1075  0.0405
45670SOL     OW42972   2.789   6.506  12.157 -0.1966  0.0309 -0.0150
45670SOL    HW142973   2.725   6.577  12.149 -0.8874 -0.6232 -0.4609
45670SOL    HW242974   2.737   6.430  12.186  0.7537  0.0342  1.8304
45671SOL     OW42975   2.650   4.915   8.675 -0.1594 -0.0799  0.3677
45671SOL    HW142976   2.608   5.000   8.688  0.3092  0.1362  0.5106
45671SOL    HW242977   2.666   4.883   8.764  0.5696  0.1442  0.3257
45672SOL     OW42978   3.031   5.916  11.347  0.3067 -1.1312  0.1434
45672SOL    HW142979   3.102   5.872  11.300  0.3344 -1.0133  0.0750
45672SOL    HW242980   3.063   6.005  11.361  0.2252 -1.1150  0.2272
45673SOL     OW42981   2.364   3.919   5.829  0.1663  0.3227  0.2696
45673SOL    HW142982   2.270   3.929   5.844  0.0754  1.0309 -0.7202
45673SOL    HW242983   2.405   3.946   5.912 -0.4038  2.0841  0.0097
45674SOL     OW42984  11.071  11.625   3.052  0.1864 -0.0806  0.1803
45674SOL    HW142985  10.975  11.630   3.050  0.1022 -1.2075 -2.0672
45674SOL    HW242986  11.098  11.707   3.093 -1.7278 -0.0444  1.5513
45675SOL     OW42987   1.742   7.194   9.092  0.7094  0.1505  0.3714
45675SOL    HW142988   1.714   7.212   9.002  1.3197  1.5468  0.4401
45675SOL    HW242989   1.665   7.154   9.133  0.3017 -0.1490 -0.6471
45676SOL     OW42990  11.869   2.091   2.089 -0.0343  0.1732  0.2502
45676SOL    HW142991  11.867   2.020   2.025  0.5559 -0.0444  0.4619
45676SOL    HW242992  11.931   2.061   2.155  0.2895  0.9207  0.2978
45677SOL     OW42993   5.873   0.108   1.174 -0.2253 -0.1700  0.2174
45677SOL    HW142994   5.845   0.199   1.176 -2.2367 -0.7637  0.8769
45677SOL    HW242995   5.954   0.110   1.123 -0.4150  1.9192 -0.1107
45678SOL     OW42996   3.659   9.164   7.066 -0.2145 -0.9845  0.0665
45678SOL    HW142997   3.700   9.104   7.129 -1.8509 -0.1001  2.0680
45678SOL    HW242998   3.625   9.107   6.998  0.4108 -2.1055  0.6571
45679SOL     OW42999   6.720   3.195   1.605 -0.4627 -0.4829  0.0671
45679SOL    HW143000   6.773   3.115   1.596 -0.7967 -0.8347  1.1190
45679SOL    HW243001   6.708   3.225   1.515 -0.4172 -1.6731 -0.3582
45680SOL     OW43002   0.198   8.697   4.532 -0.2333 -0.5836 -0.7252
45680SOL    HW143003   0.225   8.789   4.535 -1.9455 -0.0483 -0.7625
45680SOL    HW243004   0.211   8.671   4.441  0.9522 -0.6123 -0.5577
45681SOL     OW43005  12.140   5.048   8.250 -0.3218  0.1959  0.0306
45681SOL    HW143006  12.093   4.979   8.202 -0.1884  0.9449 -1.2289
45681SOL    HW243007  12.173   5.004   8.328 -2.3217 -0.5826  0.5149
45682SOL     OW43008   2.911  10.849   4.670 -0.5045  0.4154  0.5929
45682SOL    HW143009   2.895  10.759   4.698  0.0244 -1.0460 -3.1388
45682SOL    HW243010   2.824  10.890   4.672 -1.2330 -1.0120 -0.0547
45683SOL     OW43011   2.327  12.256   5.738  0.6234 -0.1880  0.2448
45683SOL    HW143012   2.331  12.350   5.720 -2.3639  0.0958  0.4706
45683SOL    HW243013   2.306  12.216   5.653 -0.0657 -0.4046  0.5107
45684SOL     OW43014   9.404   1.636   9.879  0.2690  0.2729 -0.1031
45684SOL    HW143015   9.479   1.655   9.823  0.5099  0.7889  0.3819
45684SOL    HW243016   9.364   1.721   9.896  0.0282  0.0884  0.2689
45685SOL     OW43017   7.493   7.934   8.352 -0.1282 -0.3268  0.9638
45685SOL    HW143018   7.577   7.957   8.392  0.5959 -0.2048 -0.5480
45685SOL    HW243019   7.474   7.846   8.385 -1.5157  1.1330  4.5722
45686SOL     OW43020   7.571   4.338   7.719  0.2605 -0.5524  0.5187
45686SOL    HW143021   7.658   4.346   7.680 -0.0378  0.3588  0.0176
45686SOL    HW243022   7.564   4.246   7.743  1.1245 -0.7635  0.0061
45687SOL     OW43023   2.711   1.611   7.423  0.5321  0.0772 -0.3512
45687SOL    HW143024   2.626   1.574   7.449 -0.1800  0.3214 -2.2363
45687SOL    HW243025   2.764   1.534   7.403 -0.5362 -0.0670 -2.9898
45688SOL     OW43026   0.484   5.551   0.365 -0.0005  0.9138  0.0957
45688SOL    HW143027   0.396   5.542   0.401 -0.3506  0.2993 -0.8732
45688SOL    HW243028   0.534   5.593   0.434 -0.6718 -0.1563  1.2745
45689SOL     OW43029   4.653   2.161   2.513 -0.4969  0.5153 -0.4815
45689SOL    HW143030   4.566   2.167   2.474 -0.9102  2.3375  0.5949
45689SOL    HW243031   4.642   2.198   2.601  1.2689  0.3850 -0.1794
45690SOL     OW43032   7.824   7.154   6.243 -0.3418  0.8375  0.1226
45690SOL    HW143033   7.749   7.213   6.242 -0.4640  0.6819 -0.6242
45690SOL    HW243034   7.806   7.094   6.316 -0.9392  0.8130 -0.0348
45691SOL     OW43035   9.846   8.641   9.226  0.2525  0.1016  0.0140
45691SOL    HW143036   9.905   8.610   9.295  0.0352 -0.6657 -0.1334
45691SOL    HW243037   9.895   8.710   9.182  0.1811  0.9729  1.2675
45692SOL     OW43038   9.759   1.836  11.766  0.0101 -0.1856  0.7465
45692SOL    HW143039   9.753   1.911  11.708 -1.6616 -2.3693 -2.1729
45692SOL    HW243040   9.679   1.838  11.817 -0.3576 -0.3271  0.1811
45693SOL     OW43041   2.125   9.537   1.236 -0.6582  0.2660  0.0509
45693SOL    HW143042   2.137   9.495   1.151 -4.1897  0.2260 -0.5733
45693SOL    HW243043   2.096   9.626   1.216 -1.4657  0.2837  1.1776
45694SOL     OW43044  11.066   3.098   4.726  0.0352  0.6442  0.2969
45694SOL    HW143045  11.133   3.129   4.666  0.3765 -1.3651 -0.4253
45694SOL    HW243046  10.997   3.165   4.722 -0.1040  0.4540 -2.6034
45695SOL     OW43047   0.093   8.523   0.763  0.2699 -0.3071 -0.0173
45695SOL    HW143048   0.061   8.576   0.690 -1.8056 -1.8588 -0.3220
45695SOL    HW243049   0.104   8.585   0.835 -0.3338  0.8138 -0.8690
45696SOL     OW43050   9.750   4.752   7.591  0.3603  0.1090 -0.4777
45696SOL    HW143051   9.695   4.701   7.531 -1.1074 -0.5355  1.3254
45696SOL    HW243052   9.828   4.698   7.604  0.8226  0.3684 -1.9329
45697SOL     OW43053   8.954   6.755  10.387 -0.1991 -0.0957 -0.0071
45697SOL    HW143054   8.888   6.774  10.453  1.5660  0.8496  1.5956
45697SOL    HW243055   9.037   6.784  10.426  1.0781 -0.4261 -2.2439
45698SOL     OW43056   4.431  11.900   5.109  0.0765 -0.0576  0.5716
45698SOL    HW143057   4.455  11.859   5.026  2.2636 -0.2397  1.2222
45698SOL    HW243058   4.437  11.994   5.092  1.2203 -0.0990  0.6736
45699SOL     OW43059   1.178   1.357   5.976 -0.1097  0.2637 -0.2882
45699SOL    HW143060   1.187   1.452   5.966 -1.1643  0.3571 -0.5387
45699SOL    HW243061   1.261   1.329   6.014 -0.4178  1.5524  1.5047
45700SOL     OW43062   7.547   3.160   2.064 -0.4361  0.1634  0.3935
45700SOL    HW143063   7.514   3.076   2.031 -1.0336  0.2800  0.6790
45700SOL    HW243064   7.630   3.138   2.106 -1.7594 -0.7470  2.7503
45701SOL     OW43065   3.001   2.584   3.701 -0.0025  0.0504  0.2651
45701SOL    HW143066   3.064   2.561   3.770  1.2405  0.3224 -0.7488
45701SOL    HW243067   2.997   2.679   3.703  1.1181  0.1454 -0.9405
45702SOL     OW43068   2.605   1.214   1.827  0.1067  0.4447 -0.0310
45702SOL    HW143069   2.585   1.121   1.839 -0.9358  0.5884 -0.5350
45702SOL    HW243070   2.698   1.222   1.849  0.0630 -0.6107  0.5808
45703SOL     OW43071  11.302   7.817  12.432 -0.1353  0.1174 -0.0861
45703SOL    HW143072  11.370   7.806  12.365  0.3045 -0.1786  0.4078
45703SOL    HW243073  11.281   7.910  12.429 -0.9098 -0.0659 -1.4029
45704SOL     OW43074   4.260   4.832   2.308  0.6487 -0.1066 -0.0964
45704SOL    HW143075   4.217   4.917   2.311  1.3552  0.3777 -1.9777
45704SOL    HW243076   4.256   4.807   2.216 -1.7288 -3.3203  0.6892
45705SOL     OW43077  12.321   4.140   2.555  0.1899 -1.2241  0.1118
45705SOL    HW143078  12.333   4.184   2.639  0.6691 -0.2448 -0.4448
45705SOL    HW243079  12.239   4.093   2.564 -1.0343  0.8433  0.3202
45706SOL     OW43080  10.161   3.443  11.168 -0.3345 -0.4798  0.1134
45706SOL    HW143081  10.132   3.352  11.170  2.1654 -1.3581  0.1915
45706SOL    HW243082  10.239   3.444  11.224 -0.5535  1.8161  0.4684
45707SOL     OW43083  10.987   0.789   8.113  0.3697 -0.1068 -0.0699
45707SOL    HW143084  10.912   0.847   8.100 -0.6836 -1.6133 -1.0760
45707SOL    HW243085  11.018   0.770   8.024  1.4914 -0.0748  0.3033
45708SOL     OW43086  11.841  10.207   1.708 -0.4712 -0.4894 -0.3751
45708SOL    HW143087  11.777  10.139   1.731 -1.5896 -0.2857 -2.5852
45708SOL    HW243088  11.873  10.181   1.622  0.4022  0.8559 -0.4784
45709SOL     OW43089  10.877   7.530   0.551 -0.7531  0.1918 -0.3666
45709SOL    HW143090  10.921   7.553   0.470  0.1632  0.7086  0.2582
45709SOL    HW243091  10.849   7.439   0.539 -1.3975  0.5319 -1.5697
45710SOL     OW43092   9.016   0.616  11.051 -0.6695  0.2329 -0.5723
45710SOL    HW143093   9.012   0.708  11.024  0.0532  0.7394  0.9088
45710SOL    HW243094   8.925   0.591  11.066 -0.7576  1.3097  0.8506
45711SOL     OW43095   1.630   1.492   5.810 -0.1589  0.5255  0.8082
45711SOL    HW143096   1.571   1.547   5.861  0.2062  0.8483  0.8919
45711SOL    HW243097   1.576   1.420   5.778 -0.9915  1.7568 -0.6190
45712SOL     OW43098   2.971  11.693   9.733  0.1296 -0.1818 -0.3659
45712SOL    HW143099   2.932  11.748   9.800  1.6037 -1.4510  1.6399
45712SOL    HW243100   2.897  11.646   9.695 -0.7392  0.5627  0.3444
45713SOL     OW43101   6.304   6.002   4.446 -0.0114 -0.8664  0.5723
45713SOL    HW143102   6.230   6.059   4.464  0.4976 -0.2384  0.7199
45713SOL    HW243103   6.268   5.913   4.446 -1.3446 -0.4393 -2.2364
45714SOL     OW43104   7.411   5.604  12.260 -0.6011 -0.1793  0.0024
45714SOL    HW143105   7.359   5.548  12.203  0.7200 -0.1921 -1.2573
45714SOL    HW243106   7.420   5.555  12.341  1.2338 -2.2636 -1.3480
45715SOL     OW43107   6.041   7.446   3.919 -0.2502 -0.3934  0.4449
45715SOL    HW143108   6.108   7.472   3.981 -2.2701  3.0090  1.4325
45715SOL    HW243109   6.070   7.360   3.887  4.7356  1.0258  0.3942
45716SOL     OW43110   7.133   7.637  10.051 -0.3394  0.6184  0.7306
45716SOL    HW143111   7.093   7.560  10.091 -1.5268  1.6778  1.6480
45716SOL    HW243112   7.096   7.639   9.962  0.0968 -0.1299  0.5189
45717SOL     OW43113   8.234   9.839   2.736  0.0361 -0.0028 -0.3477
45717SOL    HW143114   8.301   9.772   2.748  0.7175  0.1420 -2.8096
45717SOL    HW243115   8.153   9.797   2.764  1.0323 -0.1786  2.7157
45718SOL     OW43116   7.832   6.043   7.654  0.2554  0.2292 -0.9625
45718SOL    HW143117   7.752   6.067   7.701  1.0716  2.8794 -0.7434
45718SOL    HW243118   7.861   5.963   7.697 -1.7148 -0.2294 -0.3727
45719SOL     OW43119  11.262   1.846   9.476 -0.5269  0.0096  0.1210
45719SOL    HW143120  11.351   1.876   9.494  1.2146 -3.6053 -1.4057
45719SOL    HW243121  11.233   1.806   9.557 -0.8106  1.1290  0.5982
45720SOL     OW43122   2.390   1.268  10.927 -0.1046  0.1352 -0.4502
45720SOL    HW143123   2.304   1.309  10.918 -0.1332  0.2870  0.4538
45720SOL    HW243124   2.447   1.337  10.961 -0.4342 -0.8000  2.2889
45721SOL     OW43125   7.035   5.809   9.576 -0.1302  0.2087  0.3201
45721SOL    HW143126   7.050   5.895   9.536  0.4854  1.3739  2.8748
45721SOL    HW243127   6.948   5.814   9.614  0.0483 -0.1654  0.7945
45722SOL     OW43128   1.513   9.717  12.317  0.5722  0.1011 -0.3749
45722SOL    HW143129   1.456   9.641  12.311  1.6059 -0.6219 -1.8042
45722SOL    HW243130   1.541   9.720  12.408  0.8933 -1.5478 -0.3866
45723SOL     OW43131   0.282  10.777  10.607 -0.5351 -0.3641  0.0170
45723SOL    HW143132   0.199  10.823  10.622 -0.2244  0.0599  0.4531
45723SOL    HW243133   0.349  10.844  10.617 -0.1522 -0.6127 -0.7570
45724SOL     OW43134  10.096   5.416  11.007  0.3865 -0.3486 -0.2579
45724SOL    HW143135  10.149   5.450  11.079  0.1962 -1.4810  0.4397
45724SOL    HW243136  10.031   5.485  10.991  1.7894  0.8944 -0.8813
45725SOL     OW43137   4.060   6.321   8.387 -0.5688 -0.2507  0.4164
45725SOL    HW143138   4.119   6.284   8.321 -1.1340  0.7500 -0.6927
45725SOL    HW243139   4.039   6.408   8.353 -1.5095 -0.0261  1.5381
45726SOL     OW43140   3.560  12.299  11.467  0.1555 -0.3629  0.3027
45726SOL    HW143141   3.575  12.304  11.372  0.3524  0.1277  0.3564
45726SOL    HW243142   3.549  12.206  11.485 -1.2649 -0.3667 -0.4151
45727SOL     OW43143   2.580   5.518   8.106  0.2196 -0.3341  0.5660
45727SOL    HW143144   2.499   5.482   8.144 -0.4843  0.4028 -0.1967
45727SOL    HW243145   2.604   5.589   8.165 -1.6202  1.6989 -0.9877
45728SOL     OW43146   0.743   8.160   1.645 -0.5215 -0.2366  0.4774
45728SOL    HW143147   0.751   8.181   1.739 -1.9104  0.7277  0.4142
45728SOL    HW243148   0.692   8.079   1.643  1.8058 -1.7925  0.6017
45729SOL     OW43149   8.105   7.367   5.620  0.0058 -0.3837  0.3960
45729SOL    HW143150   8.060   7.405   5.545  0.2739 -1.4122 -0.3055
45729SOL    HW243151   8.129   7.279   5.592 -2.9804 -2.1787  2.8597
45730SOL     OW43152  11.888   7.061   3.064 -0.0314  0.0031 -0.1272
45730SOL    HW143153  11.838   7.117   3.005 -0.7984 -2.4287 -1.9626
45730SOL    HW243154  11.979   7.079   3.042 -0.2879 -1.4043 -2.8215
45731SOL     OW43155   8.784   9.774  10.337  0.1388 -0.5463 -0.2686
45731SOL    HW143156   8.848   9.726  10.391  0.3019  0.2791  0.2918
45731SOL    HW243157   8.711   9.714  10.328  1.4683 -2.0224 -1.9679
45732SOL     OW43158   0.923   2.110  10.626  0.6449 -0.2435 -0.0900
45732SOL    HW143159   0.829   2.097  10.638  0.8215 -1.3183  0.2120
45732SOL    HW243160   0.943   2.067  10.543  1.2009 -1.7853  0.8111
45733SOL     OW43161   0.067   3.534  12.254 -0.0329 -0.1284  0.2047
45733SOL    HW143162   0.102   3.493  12.175 -1.4271  0.2031 -0.6086
45733SOL    HW243163   0.071   3.465  12.321 -0.8095 -1.0964 -0.7173
45734SOL     OW43164   3.215   8.105  10.348 -0.1207 -0.5359  0.3645
45734SOL    HW143165   3.307   8.121  10.368 -0.2898 -0.1781  0.8656
45734SOL    HW243166   3.183   8.052  10.421 -0.6943  0.6289  0.9789
45735SOL     OW43167   6.572   5.214   4.995  0.5366  0.1441  0.1720
45735SOL    HW143168   6.629   5.161   4.939  1.4390  0.3575  0.8739
45735SOL    HW243169   6.626   5.236   5.070 -1.1632 -1.5942  2.0247
45736SOL     OW43170   2.813   2.413   3.183  0.5530  0.4885 -0.4489
45736SOL    HW143171   2.798   2.379   3.095  2.6601  1.4066 -1.2336
45736SOL    HW243172   2.837   2.336   3.235  1.3529  0.2020 -1.2153
45737SOL     OW43173   5.084   1.222   6.782 -0.3229  0.2145  0.4947
45737SOL    HW143174   5.066   1.225   6.876 -0.6796  0.0984  0.4306
45737SOL    HW243175   5.007   1.262   6.742 -0.7538 -0.8816  0.1829
45738SOL     OW43176   2.277  10.704   6.776  0.3597  0.3113  0.3241
45738SOL    HW143177   2.248  10.686   6.687  0.0680 -0.0493  0.4929
45738SOL    HW243178   2.208  10.760   6.813  0.4294  0.3740  0.3610
45739SOL     OW43179   5.960   1.705   0.184 -0.0237 -0.0793 -0.2992
45739SOL    HW143180   6.006   1.623   0.168 -0.2774 -0.3856  0.4849
45739SOL    HW243181   5.878   1.697   0.134 -0.1215 -0.3718 -0.0934
45740SOL     OW43182   2.624   6.932   7.397  0.4025  0.1300  0.2977
45740SOL    HW143183   2.706   6.905   7.438 -0.6303 -1.2857  1.5250
45740SOL    HW243184   2.634   6.906   7.305  1.2237 -0.2871  0.4934
45741SOL     OW43185   0.481   2.887   4.320  0.8950 -0.2943  0.1811
45741SOL    HW143186   0.477   2.947   4.246  0.2826 -0.4326  0.0993
45741SOL    HW243187   0.422   2.815   4.296  1.3036 -0.7262  0.4546
45742SOL     OW43188   3.100  11.445   3.105  0.7145 -0.4471  0.3242
45742SOL    HW143189   3.132  11.518   3.054 -1.0215 -0.3964 -0.7710
45742SOL    HW243190   3.069  11.484   3.187  0.8693 -0.1189  0.2255
45743SOL     OW43191   1.597   5.893  11.646  0.0810  0.1615 -0.2398
45743SOL    HW143192   1.554   5.979  11.644 -0.0669  0.0824 -0.4689
45743SOL    HW243193   1.661   5.896  11.575 -1.0862 -0.5143 -1.3672
45744SOL     OW43194   3.095   0.357   9.342 -0.5459 -0.0483 -0.0442
45744SOL    HW143195   3.161   0.427   9.344 -0.9259  0.3271  1.7574
45744SOL    HW243196   3.141   0.280   9.376 -0.0381 -0.8279 -2.3211
45745SOL     OW43197   3.806   1.005   9.544 -0.0394 -0.1868  0.1384
45745SOL    HW143198   3.798   0.976   9.453 -0.5680  0.4286 -0.0115
45745SOL    HW243199   3.745   0.949   9.592  0.5291 -0.7823  0.1831
45746SOL     OW43200   8.870  11.773   7.839 -0.2911 -0.0472 -0.2415
45746SOL    HW143201   8.883  11.697   7.782  0.9086  0.1836 -0.3189
45746SOL    HW243202   8.924  11.842   7.799 -0.1512  0.3908  0.6693
45747SOL     OW43203   7.461  10.192   2.538  0.6552 -0.1641 -0.5570
45747SOL    HW143204   7.489  10.215   2.626  1.9102  3.5031 -1.7503
45747SOL    HW243205   7.370  10.162   2.549  0.6162  0.6250  1.9012
45748SOL     OW43206   9.633   7.170  11.117  0.7717  0.5025 -0.2783
45748SOL    HW143207   9.594   7.150  11.032 -0.9636 -0.1589  0.6219
45748SOL    HW243208   9.669   7.086  11.147 -1.1959  0.0099  0.8662
45749SOL     OW43209   6.848   5.341   4.206  0.3971 -0.3768 -0.3218
45749SOL    HW143210   6.755   5.319   4.211  0.3054 -0.0747 -0.6854
45749SOL    HW243211   6.850   5.436   4.196  0.7899 -0.2126  1.0798
45750SOL     OW43212   4.119   6.359   0.734 -0.1711  0.3673 -0.4129
45750SOL    HW143213   4.044   6.331   0.681 -0.0852 -1.5206  0.3923
45750SOL    HW243214   4.082   6.381   0.819  0.0385  0.5431 -0.3668
45751SOL     OW43215   2.644   7.336   1.092  0.6778  0.5198  0.4065
45751SOL    HW143216   2.568   7.393   1.104  0.4689 -0.2249  3.4072
45751SOL    HW243217   2.609   7.247   1.099  1.2710 -0.0669 -2.4856
45752SOL     OW43218   5.150   0.576   0.855 -0.5329 -0.0329  0.0297
45752SOL    HW143219   5.098   0.496   0.861 -0.8704  0.1119 -0.8383
45752SOL    HW243220   5.108   0.637   0.916 -1.9345  0.3656 -1.2776
45753SOL     OW43221   0.772   0.800   5.447 -0.0025  0.5086  0.0069
45753SOL    HW143222   0.708   0.739   5.484  1.3858 -1.6459 -0.9309
45753SOL    HW243223   0.749   0.806   5.355  0.6247  0.3712 -0.1657
45754SOL     OW43224   8.921  11.372   2.715 -0.3573  0.2824 -0.2129
45754SOL    HW143225   8.875  11.360   2.632 -1.0545 -1.3340  0.3702
45754SOL    HW243226   8.866  11.434   2.763  0.2083  1.4682 -1.0303
45755SOL     OW43227   2.294   1.262   1.210 -0.2017 -0.4022 -0.1997
45755SOL    HW143228   2.270   1.182   1.164  0.8270 -0.3537 -0.8412
45755SOL    HW243229   2.212   1.311   1.216 -0.9343 -1.6687  0.5742
45756SOL     OW43230   6.984   9.410   6.519 -0.3308  0.3563 -0.0678
45756SOL    HW143231   7.018   9.478   6.461 -0.0661  0.1783 -0.1194
45756SOL    HW243232   6.942   9.347   6.461 -0.6136  0.4921 -0.0162
45757SOL     OW43233   5.801   6.510   6.147  0.1117 -0.0993  0.3650
45757SOL    HW143234   5.718   6.559   6.146  0.8706  1.2574  0.8807
45757SOL    HW243235   5.805   6.467   6.062 -0.0327  1.7386 -0.6061
45758SOL     OW43236   0.454   8.983   9.436  0.1032 -0.0154  0.4594
45758SOL    HW143237   0.502   8.911   9.396 -0.3457  0.6819 -1.4452
45758SOL    HW243238   0.515   9.020   9.500  1.4167 -0.3018 -0.5851
45759SOL     OW43239   0.053   2.714   8.407 -0.3204  0.7891 -0.0464
45759SOL    HW143240   0.053   2.683   8.498 -0.1688 -0.2535 -0.3962
45759SOL    HW243241   0.132   2.767   8.400  0.7897 -0.8260 -0.1301
45760SOL     OW43242  11.799  11.004  11.370  0.9201  0.1875 -0.8262
45760SOL    HW143243  11.842  11.086  11.395  0.7236  0.5060 -1.4951
45760SOL    HW243244  11.767  10.967  11.452  1.4735  0.5213 -0.4602
45761SOL     OW43245   3.431   7.691   4.620 -0.2201  0.0670 -0.4845
45761SOL    HW143246   3.511   7.693   4.568  0.4276  0.4924  0.5002
45761SOL    HW243247   3.361   7.683   4.555  0.5784  0.1609 -1.3905
45762SOL     OW43248   8.943   8.237   8.775  0.0029 -0.3185 -0.4289
45762SOL    HW143249   8.944   8.245   8.680 -0.0072 -0.6718 -0.4596
45762SOL    HW243250   8.859   8.274   8.802  0.9571  1.9482 -0.3569
45763SOL     OW43251   1.465   8.264   0.059 -0.2210  0.4719  0.3916
45763SOL    HW143252   1.404   8.337   0.074 -0.7440  0.1976 -0.2933
45763SOL    HW243253   1.540   8.305   0.015  0.3945  0.9170  1.7852
45764SOL     OW43254   9.178   3.844   3.164 -0.1250 -0.0317  0.3209
45764SOL    HW143255   9.084   3.832   3.152 -0.3656  1.3078  0.6897
45764SOL    HW243256   9.192   3.938   3.154  0.9743 -0.0243  1.5966
45765SOL     OW43257   6.425   3.233   7.190  0.2864 -0.2351 -0.8392
45765SOL    HW143258   6.444   3.302   7.253 -0.2562 -0.5826 -0.2780
45765SOL    HW243259   6.341   3.257   7.152 -0.2618 -0.9417 -0.1132
45766SOL     OW43260   7.697   5.436   7.584  0.2102 -0.6568 -0.1086
45766SOL    HW143261   7.722   5.345   7.601  0.2736 -0.4629  0.8834
45766SOL    HW243262   7.717   5.482   7.665 -2.8694 -0.3705  0.6385
45767SOL     OW43263  12.001   1.287   3.079 -0.1021 -0.3666 -0.3016
45767SOL    HW143264  11.941   1.215   3.058  0.1314 -0.0820 -2.1286
45767SOL    HW243265  12.079   1.269   3.026  0.1111  1.0107 -0.4787
45768SOL     OW43266   7.195   3.225   5.974 -0.8176  0.9370 -0.0284
45768SOL    HW143267   7.264   3.267   6.024 -0.0900 -1.5223  1.1889
45768SOL    HW243268   7.233   3.209   5.888  0.4886 -1.0704  0.8581
45769SOL     OW43269   2.909   0.385   5.437  0.6227  0.0475 -0.2290
45769SOL    HW143270   2.944   0.472   5.420  1.7029 -0.5352 -1.0665
45769SOL    HW243271   2.921   0.337   5.355  2.3302 -1.6308  0.9140
45770SOL     OW43272  11.054  11.996   0.761  0.0007 -0.2345  0.0243
45770SOL    HW143273  10.988  12.046   0.809  0.7512  1.7494 -0.8716
45770SOL    HW243274  11.137  12.019   0.803  0.2709 -1.8915  0.4875
45771SOL     OW43275   1.294   0.424   4.277  0.1214  0.0934  0.7295
45771SOL    HW143276   1.329   0.388   4.195  0.9265  0.5011  0.8813
45771SOL    HW243277   1.330   0.368   4.346  1.9040  1.4778  1.0187
45772SOL     OW43278   9.098   5.516  11.846  0.3306  0.1440 -0.2059
45772SOL    HW143279   9.117   5.607  11.870 -0.8598  0.8752 -1.8245
45772SOL    HW243280   9.006   5.519  11.817  0.1769 -1.6543  0.0288
45773SOL     OW43281   9.538   5.682   2.590  0.3972 -0.1444 -0.3548
45773SOL    HW143282   9.559   5.773   2.613  0.1187 -0.1045 -0.2554
45773SOL    HW243283   9.515   5.686   2.497  0.7435 -0.1750 -0.4439
45774SOL     OW43284   2.439  11.198  10.701  0.1648  0.0945 -0.1019
45774SOL    HW143285   2.380  11.217  10.774 -1.1587 -0.7424 -0.9298
45774SOL    HW243286   2.382  11.174  10.629  1.5043 -0.1889 -1.1070
45775SOL     OW43287   1.650   7.132   5.511 -0.1264 -0.3063 -0.8098
45775SOL    HW143288   1.646   7.101   5.601 -0.6790  0.7455 -0.4530
45775SOL    HW243289   1.560   7.156   5.489  0.4049  2.1030 -0.6413
45776SOL     OW43290   7.497  10.952   4.921 -0.0875 -0.3310  0.1096
45776SOL    HW143291   7.511  10.994   5.006 -0.8844  0.3523 -0.0847
45776SOL    HW243292   7.433  11.008   4.877  0.3403 -0.6590 -0.9598
45777SOL     OW43293   2.111   5.943   2.551 -0.6957  0.1699 -0.1769
45777SOL    HW143294   2.105   6.038   2.548 -0.5732  0.1556 -1.1176
45777SOL    HW243295   2.020   5.912   2.542 -0.5933  0.1863 -1.5817
45778SOL     OW43296   7.784   3.334   9.258 -0.0271  0.8448 -0.8231
45778SOL    HW143297   7.702   3.305   9.218 -0.2092 -0.7588  0.6239
45778SOL    HW243298   7.758   3.402   9.320 -0.2762  0.4112 -0.4413
45779SOL     OW43299   3.412   7.045   2.818 -0.5096 -0.0580 -0.1863
45779SOL    HW143300   3.423   7.063   2.725  1.2850  1.7420  0.3174
45779SOL    HW243301   3.328   7.084   2.841 -0.3799  0.5774 -0.7870
45780SOL     OW43302   7.555   0.409  11.721 -0.4873 -0.0708  0.0416
45780SOL    HW143303   7.613   0.484  11.729 -0.2702 -0.1088 -1.0757
45780SOL    HW243304   7.516   0.399  11.808  0.5505  0.4566  0.5729
45781SOL     OW43305   4.303   8.977  12.476 -0.0061 -0.2799  0.1471
45781SOL    HW143306   4.212   8.952  12.492  0.2594 -0.4620  1.4305
45781SOL    HW243307   4.298   9.067  12.443 -0.6930 -0.5974 -0.6678
45782SOL     OW43308   2.236   2.935   1.069  0.3233  0.1464  0.1764
45782SOL    HW143309   2.187   3.015   1.050  0.3536  0.0745 -0.2195
45782SOL    HW243310   2.210   2.910   1.158  0.2893  0.5770  0.2865
45783SOL     OW43311  10.978   9.340   4.487 -0.0671 -0.2842  0.0991
45783SOL    HW143312  11.025   9.401   4.545  0.0304 -1.3026  1.1389
45783SOL    HW243313  10.974   9.385   4.403  2.6505 -0.0511 -0.0160
45784SOL     OW43314   1.019  12.386   1.386  0.2175  0.5280  0.2407
45784SOL    HW143315   1.029  12.455   1.450  0.5780  1.0280 -0.3483
45784SOL    HW243316   1.084  12.320   1.410  1.8682  1.6958 -0.8828
45785SOL     OW43317   5.225   8.169   6.139 -0.3466  0.6390 -0.1117
45785SOL    HW143318   5.210   8.131   6.052 -0.7141  0.0783  0.1879
45785SOL    HW243319   5.296   8.231   6.127 -0.0347  0.1685 -0.7041
45786SOL     OW43320   1.347   7.495   5.441 -0.4155  0.0219 -0.0553
45786SOL    HW143321   1.253   7.495   5.459 -0.3998 -0.0438  0.0254
45786SOL    HW243322   1.358   7.566   5.377 -0.8385 -1.3375 -1.7155
45787SOL     OW43323   5.837   0.273   2.349  0.3851  0.3922 -0.6061
45787SOL    HW143324   5.812   0.205   2.286 -0.2337 -0.1231  0.1786
45787SOL    HW243325   5.755   0.299   2.390  0.7882  0.6663  0.0417
45788SOL     OW43326  11.169   2.065   8.236  0.1093 -0.9201 -0.1632
45788SOL    HW143327  11.133   2.025   8.315  2.4218 -0.3844  1.2554
45788SOL    HW243328  11.259   2.031   8.231 -0.2621 -1.7241 -3.1736
45789SOL     OW43329   1.877   0.690   8.713 -0.5406 -0.4922 -0.1556
45789SOL    HW143330   1.862   0.673   8.806 -0.6883 -0.5123 -0.1829
45789SOL    HW243331   1.916   0.609   8.680  1.2615  0.1552  0.2768
45790SOL     OW43332  12.343   6.809  10.627  0.2579  0.2681 -0.2542
45790SOL    HW143333  12.379   6.796  10.539 -1.0525 -0.0262 -0.7662
45790SOL    HW243334  12.323   6.721  10.658  2.4616  0.1795  1.1527
45791SOL     OW43335   8.639   6.464   6.107 -0.6412  0.4044 -0.1504
45791SOL    HW143336   8.642   6.380   6.062  2.0762 -0.3087  1.1674
45791SOL    HW243337   8.576   6.452   6.178  0.2803 -0.8186  0.4966
45792SOL     OW43338   3.269   3.030   4.668  0.4017 -0.4275  0.1378
45792SOL    HW143339   3.224   3.077   4.739  0.3386  1.3145 -0.9849
45792SOL    HW243340   3.198   2.993   4.615  0.3766  0.0566 -0.1681
45793SOL     OW43341  11.452   8.930   6.375 -0.1756  0.2385  0.2346
45793SOL    HW143342  11.545   8.950   6.372  0.1687 -1.1748  0.5759
45793SOL    HW243343  11.448   8.836   6.396 -1.6766  0.4094  0.8702
45794SOL     OW43344  11.529   1.328   5.356 -0.5173 -0.5034 -0.5928
45794SOL    HW143345  11.560   1.372   5.435 -0.0756 -1.0013 -0.4847
45794SOL    HW243346  11.601   1.270   5.331 -0.3921  0.0927 -1.7111
45795SOL     OW43347   7.809   7.114   5.296 -0.3919 -0.0618 -0.6767
45795SOL    HW143348   7.809   7.027   5.335  0.1521  0.1221 -0.2448
45795SOL    HW243349   7.721   7.125   5.260 -0.8427 -0.3241  0.3057
45796SOL     OW43350   8.352   3.817   2.764 -0.5546  0.1531  0.1335
45796SOL    HW143351   8.334   3.905   2.730  0.5887 -0.1721 -1.3892
45796SOL    HW243352   8.268   3.788   2.801 -1.1441  1.5697 -0.0453
45797SOL     OW43353   9.948   6.910  12.274  0.1417 -0.6520 -0.7735
45797SOL    HW143354   9.947   6.912  12.178  0.3583  2.3752 -0.8080
45797SOL    HW243355   9.865   6.952  12.299  0.7557 -0.0417  0.3127
45798SOL     OW43356  11.206   4.690   0.562 -0.0984  0.0646  0.1946
45798SOL    HW143357  11.116   4.720   0.553 -0.1998 -0.5464 -0.9693
45798SOL    HW243358  11.236   4.728   0.645 -1.4715  0.1279  0.6828
45799SOL     OW43359  10.779   5.691   1.129  0.3409 -0.6804 -0.3779
45799SOL    HW143360  10.738   5.706   1.214  2.5216 -0.5222  0.7150
45799SOL    HW243361  10.719   5.633   1.084  0.0305 -2.4001  2.0539
45800SOL     OW43362   8.210   7.430   6.840  0.0417  0.0441 -0.0529
45800SOL    HW143363   8.125   7.468   6.858 -0.1625  0.0497 -0.9671
45800SOL    HW243364   8.260   7.443   6.920 -1.1057 -0.7820  0.8273
45801SOL     OW43365   9.963   2.162   4.212 -0.2790 -0.2407  0.1579
45801SOL    HW143366   9.877   2.151   4.251 -0.7320  1.3980 -0.2721
45801SOL    HW243367   9.945   2.191   4.123  0.5807  3.2713  0.9669
45802SOL     OW43368  11.392   4.605   5.969  0.0904  0.1973 -0.5933
45802SOL    HW143369  11.319   4.653   6.008  0.4820  0.4966 -0.2128
45802SOL    HW243370  11.351   4.544   5.908 -0.5507 -0.5001  0.5060
45803SOL     OW43371  10.495  11.841   5.606 -0.4103 -0.8311 -0.4864
45803SOL    HW143372  10.437  11.837   5.530 -0.1782  0.5223 -0.7697
45803SOL    HW243373  10.578  11.805   5.575 -0.2521 -0.0810 -0.9581
45804SOL     OW43374   6.317  10.354   6.691 -0.2062  0.2443 -0.3006
45804SOL    HW143375   6.396  10.316   6.731 -1.4809 -0.7755  1.3939
45804SOL    HW243376   6.250  10.286   6.700 -0.7165  0.0608 -4.0673
45805SOL     OW43377   6.495   9.971   9.333  0.5766  0.9239 -0.3325
45805SOL    HW143378   6.470   9.973   9.425 -1.4206 -1.2696 -0.7374
45805SOL    HW243379   6.466   9.885   9.302  0.8904  1.7214 -3.0997
45806SOL     OW43380  10.637   3.474   0.297  0.8621 -0.3808 -0.8290
45806SOL    HW143381  10.639   3.568   0.279  0.7867 -0.4599 -1.2518
45806SOL    HW243382  10.612   3.468   0.389 -1.4453 -0.0293 -1.3678
45807SOL     OW43383   5.869  11.293   1.046  0.7267  0.1760  0.0039
45807SOL    HW143384   5.886  11.256   0.959  1.9727  2.7241 -0.9467
45807SOL    HW243385   5.956  11.318   1.078  0.0502  1.4055  0.9435
45808SOL     OW43386   9.840   1.230   8.025 -0.0610  0.0030  0.3137
45808SOL    HW143387   9.858   1.195   7.938 -0.9047  0.3321 -0.0033
45808SOL    HW243388   9.925   1.228   8.070  0.4817  0.3201 -0.6821
45809SOL     OW43389   6.961  11.592  11.119 -0.0410  0.5090  0.3602
45809SOL    HW143390   6.965  11.688  11.115  0.7482  0.4568 -0.5615
45809SOL    HW243391   6.984  11.571  11.210 -2.0411  1.2448  1.0800
45810SOL     OW43392   7.937   5.022   2.428 -0.0020  0.0835 -0.0553
45810SOL    HW143393   7.867   5.022   2.493 -0.2266 -0.7997 -0.2907
45810SOL    HW243394   7.954   4.930   2.411  1.3915  0.2746  0.1726
45811SOL     OW43395   1.208   4.406   8.339 -0.0096 -0.6187 -0.4367
45811SOL    HW143396   1.251   4.356   8.408 -0.0157 -2.0440 -1.4431
45811SOL    HW243397   1.266   4.481   8.324 -0.2998  0.0674  1.4987
45812SOL     OW43398   8.235   1.927   5.997  0.7084 -0.5875  0.2731
45812SOL    HW143399   8.251   1.911   6.090  2.1131 -0.5683  0.0578
45812SOL    HW243400   8.140   1.937   5.990  0.6669  0.3445  1.8466
45813SOL     OW43401  12.191   7.174   9.735 -0.0348 -0.1641  0.9456
45813SOL    HW143402  12.145   7.253   9.764  0.5604  0.6143 -0.1640
45813SOL    HW243403  12.141   7.102   9.772 -1.0700  0.7134  1.2960
45814SOL     OW43404   8.356   7.668   8.532  0.6395 -0.2015 -0.5099
45814SOL    HW143405   8.372   7.704   8.619  0.3805 -1.1037 -0.0775
45814SOL    HW243406   8.366   7.573   8.543  0.5349 -0.3324 -1.4479
45815SOL     OW43407   2.336   4.307   6.092  0.0063  0.0926  0.3316
45815SOL    HW143408   2.261   4.367   6.091 -1.2146 -1.3927 -1.1971
45815SOL    HW243409   2.394   4.341   6.024 -0.0388  0.3099  0.3997
45816SOL     OW43410   6.720   8.016   1.384 -0.0227 -0.0304 -0.4598
45816SOL    HW143411   6.703   8.081   1.316  1.3667 -1.1767 -1.9558
45816SOL    HW243412   6.770   7.947   1.341  1.1317 -0.6986  1.7675
45817SOL     OW43413  12.406   9.500  10.373 -0.4584  0.1294 -0.4839
45817SOL    HW143414  12.355   9.542  10.442  1.7564  1.0912  0.6364
45817SOL    HW243415  12.454   9.571  10.331 -0.4744 -0.6677 -1.9283
45818SOL     OW43416   9.089   1.355   9.155  0.7237 -0.1937  0.2963
45818SOL    HW143417   9.178   1.383   9.173  1.2641 -1.4072 -0.3603
45818SOL    HW243418   9.077   1.374   9.062 -0.1444  1.0644  0.6364
45819SOL     OW43419   7.742   0.848   3.212  0.5237 -0.3321  0.3121
45819SOL    HW143420   7.714   0.930   3.173  0.2085 -1.3795 -1.8208
45819SOL    HW243421   7.666   0.817   3.261  0.4993  0.4071  0.7505
45820SOL     OW43422   5.440  10.707  11.257  0.0586 -0.4570 -0.4633
45820SOL    HW143423   5.452  10.760  11.178 -2.0702 -0.2652 -0.7167
45820SOL    HW243424   5.351  10.726  11.285  0.8402 -0.3238  2.1835
45821SOL     OW43425  11.517   2.330   2.868 -0.1581  0.5439 -0.2164
45821SOL    HW143426  11.502   2.306   2.959 -0.4921  1.0922 -0.1213
45821SOL    HW243427  11.590   2.275   2.840 -1.9280 -1.8392 -0.5067
45822SOL     OW43428   8.501   0.757   8.682 -0.4667 -0.4480  0.0974
45822SOL    HW143429   8.447   0.829   8.715 -0.8103 -0.4194 -0.5343
45822SOL    HW243430   8.531   0.712   8.761  1.3437  1.5275  0.6405
45823SOL     OW43431   6.573   4.233  11.404  0.0990 -0.5909 -0.1410
45823SOL    HW143432   6.650   4.264  11.357  0.3972 -0.8167  0.1906
45823SOL    HW243433   6.567   4.140  11.381  0.5527 -0.8331  0.6619
45824SOL     OW43434   7.559   7.081   7.403 -0.0902 -0.2156 -0.7510
45824SOL    HW143435   7.631   7.093   7.465 -1.0957  0.6043  0.3122
45824SOL    HW243436   7.597   7.102   7.317  1.0074 -0.1020 -0.2506
45825SOL     OW43437   0.923   6.311   4.855  0.3229 -0.0733 -0.0824
45825SOL    HW143438   0.913   6.218   4.877  1.5734 -0.3738 -0.7118
45825SOL    HW243439   0.834   6.346   4.857 -0.4545 -1.7633 -1.8917
45826SOL     OW43440  10.005   0.449   4.290  0.2019 -0.4470 -0.0296
45826SOL    HW143441  10.000   0.363   4.332  3.1741 -1.1753 -0.9048
45826SOL    HW243442  10.096   0.456   4.260 -0.4307  2.2185 -1.7035
45827SOL     OW43443   3.210  12.197   9.152 -0.1716 -0.5028 -0.0699
45827SOL    HW143444   3.198  12.207   9.247 -0.1197  0.4242 -0.1474
45827SOL    HW243445   3.158  12.120   9.129 -1.7599  0.3637  0.4277
45828SOL     OW43446  11.507   5.464   7.941  0.3850  0.2905 -0.0091
45828SOL    HW143447  11.581   5.473   8.001 -1.5831  1.6412  2.4098
45828SOL    HW243448  11.459   5.388   7.973 -0.8865  1.2412  0.4773
45829SOL     OW43449   3.010   7.923   7.788 -0.4764  0.4076  0.6130
45829SOL    HW143450   2.978   7.946   7.701 -2.9693 -0.2434  1.2802
45829SOL    HW243451   3.080   7.859   7.771 -1.6130 -0.5220 -0.9253
45830SOL     OW43452  10.186   1.896  11.817 -0.0692 -0.4919 -0.2545
45830SOL    HW143453  10.192   1.888  11.722 -0.7604  0.0366 -0.3548
45830SOL    HW243454  10.205   1.988  11.834 -1.2171 -0.2898 -0.0062
45831SOL     OW43455   3.588   2.211   4.711  0.0504  0.1920  0.0515
45831SOL    HW143456   3.605   2.304   4.695 -0.5833  0.3772  0.4380
45831SOL    HW243457   3.562   2.206   4.803 -0.1252 -0.3386 -0.0223
45832SOL     OW43458  10.110   2.455   2.392 -0.1724  0.5099  0.3878
45832SOL    HW143459  10.031   2.456   2.337  0.1445 -0.6289 -0.1229
45832SOL    HW243460  10.088   2.399   2.465  0.5864 -0.9519 -0.4602
45833SOL     OW43461   3.453   3.542   0.278  0.2078 -0.1711  0.0076
45833SOL    HW143462   3.380   3.605   0.283  0.1665  0.0850 -2.7577
45833SOL    HW243463   3.531   3.595   0.295  0.0854  0.4365 -1.2597
45834SOL     OW43464   9.579   4.126   2.747 -0.0913 -0.3164  0.2333
45834SOL    HW143465   9.614   4.135   2.835 -1.6438  0.5876  0.7975
45834SOL    HW243466   9.485   4.145   2.756 -0.1873  0.3817 -1.6954
45835SOL     OW43467   2.197   9.062   3.603  0.2685 -0.1786 -0.3482
45835SOL    HW143468   2.143   8.998   3.651  1.5711 -0.0682  1.3584
45835SOL    HW243469   2.133   9.118   3.559 -0.9464 -1.7944 -0.7921
45836SOL     OW43470  11.238   8.986   6.099 -0.1192 -0.5350 -0.3284
45836SOL    HW143471  11.261   8.997   6.191  2.0276 -1.0691 -0.7446
45836SOL    HW243472  11.157   8.935   6.100 -1.3247  1.2426  1.2573
45837SOL     OW43473   3.333   3.892   0.695 -0.2011 -0.1769  0.3652
45837SOL    HW143474   3.294   3.843   0.622  0.8338 -0.6533  0.1143
45837SOL    HW243475   3.324   3.833   0.770  0.4237 -0.4732  0.2115
45838SOL     OW43476   2.673   4.752   0.643  0.0637 -0.2145 -0.6178
45838SOL    HW143477   2.697   4.839   0.674 -0.5451 -0.2525 -0.0266
45838SOL    HW243478   2.585   4.737   0.677  0.0059 -0.9009 -1.0446
45839SOL     OW43479   3.314   9.354   2.045  0.2352  0.5332 -0.2430
45839SOL    HW143480   3.282   9.412   2.114 -0.5018 -0.6322  0.4278
45839SOL    HW243481   3.242   9.292   2.030  1.9330 -1.9249  1.0366
45840SOL     OW43482  11.647   0.458   9.706 -0.5912 -0.3203 -0.7719
45840SOL    HW143483  11.670   0.490   9.794 -1.0452 -2.0471  0.0067
45840SOL    HW243484  11.698   0.378   9.696 -0.6947 -0.2459 -2.0334
45841SOL     OW43485   7.729   6.041   2.259  0.0198  0.0259  0.3657
45841SOL    HW143486   7.706   6.128   2.226 -1.2681 -0.1908  0.6123
45841SOL    HW243487   7.764   5.995   2.183  0.3985  0.6454  0.1564
45842SOL     OW43488   9.806   1.405  10.212 -0.5552 -0.4608 -0.4542
45842SOL    HW143489   9.789   1.316  10.181 -0.3250 -0.4919 -0.4932
45842SOL    HW243490   9.846   1.449  10.137 -0.2751 -0.4485 -0.3011
45843SOL     OW43491   1.581   3.375  11.454 -0.0425 -0.1371  0.7459
45843SOL    HW143492   1.676   3.377  11.444 -0.0696 -0.8340  0.2616
45843SOL    HW243493   1.567   3.339  11.541  0.1393 -0.6203  0.5822
45844SOL     OW43494   6.220  10.608   5.934 -0.0042  0.4861  0.5104
45844SOL    HW143495   6.264  10.682   5.892 -0.3988  0.6692  0.4074
45844SOL    HW243496   6.195  10.551   5.861 -0.5978  0.7527  0.4926
45845SOL     OW43497   5.566   4.378   7.669  0.1229  0.5117 -0.2454
45845SOL    HW143498   5.531   4.289   7.661  2.3245 -0.6466  1.6974
45845SOL    HW243499   5.626   4.386   7.594  0.2194  0.1835 -0.2068
45846SOL     OW43500   9.779   5.541  10.788 -0.0318 -0.1688  0.3373
45846SOL    HW143501   9.782   5.557  10.882  1.2246  1.6089  0.0465
45846SOL    HW243502   9.851   5.594  10.752  1.5353 -3.0964 -1.3080
45847SOL     OW43503   2.109   6.063   6.869 -0.6207 -0.5084 -0.4326
45847SOL    HW143504   2.044   6.097   6.807 -0.9712  0.4157  0.4191
45847SOL    HW243505   2.189   6.110   6.848 -1.2537  1.4156  1.1482
45848SOL     OW43506   2.006   3.170   7.293  0.3847  0.3827  0.1483
45848SOL    HW143507   1.973   3.087   7.260  1.5629 -0.5377  1.2255
45848SOL    HW243508   1.964   3.181   7.379 -1.9465  2.3180 -1.0934
45849SOL     OW43509   4.428  11.187  10.111 -0.1465  0.3414  0.1564
45849SOL    HW143510   4.356  11.251  10.113 -0.5035 -0.0091 -1.0069
45849SOL    HW243511   4.384  11.102  10.109  0.3266  0.0014  2.0969
45850SOL     OW43512  12.163   3.714  12.078  0.3532  0.3493 -0.7623
45850SOL    HW143513  12.198   3.719  12.167 -1.0042 -0.7116 -0.1258
45850SOL    HW243514  12.230   3.666  12.028 -0.3455 -2.1579  0.5567
45851SOL     OW43515   3.551   1.352   5.021  0.2300 -0.3134  0.2555
45851SOL    HW143516   3.573   1.271   5.068  0.6578 -0.4176 -0.1136
45851SOL    HW243517   3.572   1.422   5.082 -1.5143 -0.5000  1.1443
45852SOL     OW43518   7.049   0.891  11.451  0.5814 -0.1980  0.4304
45852SOL    HW143519   7.025   0.873  11.360 -1.8768 -0.4653  1.0488
45852SOL    HW243520   6.992   0.833  11.502 -1.3281  2.9624  2.2554
45853SOL     OW43521   5.531   6.963   5.059 -0.0044 -0.4026 -0.2799
45853SOL    HW143522   5.502   7.045   5.020 -0.8220 -0.4141  0.2758
45853SOL    HW243523   5.484   6.895   5.010 -2.6979 -0.3450  1.9593
45854SOL     OW43524  10.437   0.447   2.332 -0.2109 -0.4687 -0.1296
45854SOL    HW143525  10.389   0.391   2.271  1.1086 -0.5805 -1.1158
45854SOL    HW243526  10.446   0.530   2.286  1.3193 -0.7387 -0.3845
45855SOL     OW43527   8.339   3.025   6.144  0.2724  0.0404  0.1796
45855SOL    HW143528   8.338   2.968   6.067  0.5253 -0.7296  0.7331
45855SOL    HW243529   8.403   2.985   6.203 -0.6549  0.0274  1.2196
45856SOL     OW43530   5.228   6.854   1.599  0.2228  0.2534 -0.0657
45856SOL    HW143531   5.156   6.811   1.646 -0.2048  0.8651 -0.1407
45856SOL    HW243532   5.303   6.797   1.613 -0.3146 -0.4954 -0.1240
45857SOL     OW43533   6.793   9.773   1.997  0.4829 -0.0752  0.3286
45857SOL    HW143534   6.748   9.775   1.913 -1.4998  0.7881  1.3268
45857SOL    HW243535   6.868   9.831   1.986  1.2035 -1.2251 -1.2684
45858SOL     OW43536   9.096   2.431  12.166 -0.3872 -0.0085 -0.4682
45858SOL    HW143537   9.188   2.451  12.183 -0.3601  0.4651 -1.1451
45858SOL    HW243538   9.080   2.348  12.212  0.1885  0.2588  0.2214
45859SOL     OW43539  10.371   4.955  10.812  0.2561 -0.2281 -0.1230
45859SOL    HW143540  10.432   4.899  10.859  0.6762 -0.1027 -0.5193
45859SOL    HW243541  10.285   4.931  10.847  0.4154 -1.2196 -0.4003
45860SOL     OW43542  10.905   0.353  12.135 -0.2921  0.1128  0.1696
45860SOL    HW143543  10.889   0.293  12.062 -0.0580  0.9358 -0.5851
45860SOL    HW243544  10.921   0.297  12.210  0.2822 -0.7719 -0.5987
45861SOL     OW43545   8.759   1.100  10.633  0.4129 -0.0286  0.1884
45861SOL    HW143546   8.716   1.119  10.717  0.0077 -1.2109  0.2628
45861SOL    HW243547   8.851   1.089  10.655  0.3057 -0.3419  0.4766
45862SOL     OW43548   8.430   1.886   8.705 -0.2320  0.0684  0.0501
45862SOL    HW143549   8.380   1.871   8.786 -0.2423  0.5382  0.1357
45862SOL    HW243550   8.374   1.945   8.654 -0.2483 -0.2717 -0.3255
45863SOL     OW43551   0.217   0.588   1.593  0.1794 -0.8199 -0.0614
45863SOL    HW143552   0.220   0.674   1.551 -0.7282 -0.0611  1.3392
45863SOL    HW243553   0.124   0.568   1.601  0.3277 -1.1685  1.0757
45864SOL     OW43554   8.782  11.719   5.495  0.3868 -0.3790 -0.0852
45864SOL    HW143555   8.756  11.650   5.434  2.0389 -0.1462 -1.1144
45864SOL    HW243556   8.823  11.672   5.568 -1.1919 -0.6281  0.6947
45865SOL     OW43557   3.130  12.214   4.561 -0.1208 -0.6750 -0.5221
45865SOL    HW143558   3.176  12.159   4.623 -1.1101 -2.9198 -1.6782
45865SOL    HW243559   3.123  12.299   4.605  0.4055 -1.7741  1.8260
45866SOL     OW43560   8.745   6.117   1.385  0.0343 -0.2181  0.6081
45866SOL    HW143561   8.809   6.051   1.413 -1.6189 -2.6468 -0.9229
45866SOL    HW243562   8.662   6.069   1.380 -1.0269  1.6333 -1.8132
45867SOL     OW43563   1.937  11.669  11.613 -0.4168  0.1043  0.5925
45867SOL    HW143564   1.853  11.687  11.571 -0.6189  0.1405  1.0065
45867SOL    HW243565   1.938  11.726  11.690 -0.4793 -0.6745  1.1780
45868SOL     OW43566   5.558   5.018   5.296  0.5503  0.4272 -0.2695
45868SOL    HW143567   5.600   5.046   5.378  0.9669  0.7219 -0.5808
45868SOL    HW243568   5.573   4.923   5.293 -0.2477  0.2634  0.4344
45869SOL     OW43569   9.506   1.583   6.837 -0.2650 -0.0237  0.2917
45869SOL    HW143570   9.507   1.590   6.741 -0.8294 -0.0759  0.2757
45869SOL    HW243571   9.525   1.671   6.868 -1.8084  0.4025  0.1182
45870SOL     OW43572  10.813   0.720   5.736  0.4974  0.1420 -0.2612
45870SOL    HW143573  10.819   0.689   5.826  0.3363 -0.6503 -0.5109
45870SOL    HW243574  10.729   0.687   5.705  0.1716  1.1192 -0.4450
45871SOL     OW43575  11.634   9.295   3.226  0.1413  0.7787  0.0398
45871SOL    HW143576  11.622   9.280   3.132  0.4313 -1.4300  0.2959
45871SOL    HW243577  11.552   9.335   3.255 -0.2946  0.6573 -1.0036
45872SOL     OW43578   3.640   5.635   6.484 -0.3278  0.2000  0.1474
45872SOL    HW143579   3.569   5.698   6.472  0.4238  0.9332 -0.5358
45872SOL    HW243580   3.634   5.577   6.408 -0.4026  0.0482  0.2680
45873SOL     OW43581  12.175   4.915   1.395  0.2777  0.1215 -0.7718
45873SOL    HW143582  12.187   4.968   1.474  0.0270  1.5925 -1.6828
45873SOL    HW243583  12.234   4.840   1.407 -2.4661 -1.7898  2.5164
45874SOL     OW43584   0.087  11.292   4.821 -0.4578 -0.0229 -0.2767
45874SOL    HW143585   0.052  11.378   4.796  0.6744  0.7178  0.5401
45874SOL    HW243586   0.107  11.250   4.738  1.0053  1.4277 -0.7378
45875SOL     OW43587   5.844  11.671   5.030  0.2410 -0.3035 -0.5899
45875SOL    HW143588   5.804  11.612   4.967 -1.1167 -1.4918  1.2768
45875SOL    HW243589   5.777  11.683   5.098  1.8407  0.3748  0.9619
45876SOL     OW43590   5.265   6.536   6.237 -0.2387  0.0584  0.2902
45876SOL    HW143591   5.327   6.597   6.196 -0.4493  0.2693  0.2804
45876SOL    HW243592   5.184   6.547   6.187 -0.5275  0.3916  0.8154
45877SOL     OW43593  11.777   9.109   3.346 -0.8823  0.1184 -0.3778
45877SOL    HW143594  11.735   9.189   3.314  0.2822  0.9054  0.0281
45877SOL    HW243595  11.852   9.096   3.288 -1.5700 -1.2186 -1.0214
45878SOL     OW43596   0.414   6.509   2.934 -0.5137 -0.0076 -0.1646
45878SOL    HW143597   0.396   6.524   2.841  1.7360  1.2626 -0.4765
45878SOL    HW243598   0.374   6.424   2.953 -0.4831 -0.5984 -2.4608
45879SOL     OW43599  10.656   2.856   8.646 -0.2092 -0.3993 -0.1009
45879SOL    HW143600  10.605   2.937   8.638 -0.1083 -0.5105 -2.8033
45879SOL    HW243601  10.598   2.788   8.614  1.4596 -0.5235 -3.3209
45880SOL     OW43602   4.137   9.061   0.460 -0.0509  0.3682  0.3541
45880SOL    HW143603   4.067   9.002   0.430  1.3497 -0.8609 -0.6270
45880SOL    HW243604   4.095   9.147   0.464 -1.8370 -0.4535  0.6047
45881SOL     OW43605   8.544   5.633   1.334  0.6033  0.3255  0.0777
45881SOL    HW143606   8.540   5.633   1.238  0.8203  1.1183  0.0585
45881SOL    HW243607   8.461   5.670   1.362 -0.4780 -2.0670  0.2928
45882SOL     OW43608   6.267   2.252   3.405 -0.5608 -0.3644 -0.6011
45882SOL    HW143609   6.317   2.179   3.442  0.6674  0.0667 -1.3374
45882SOL    HW243610   6.330   2.297   3.348 -1.3065  1.2303 -0.2030
45883SOL     OW43611   7.862   2.373  11.032  0.7175  0.3832  0.4772
45883SOL    HW143612   7.851   2.432  11.107  0.6850 -0.9247  1.5463
45883SOL    HW243613   7.941   2.323  11.052 -0.1649 -1.0909  0.4456
45884SOL     OW43614  12.454   0.421  10.539  0.7765  0.0483  0.5647
45884SOL    HW143615  12.418   0.510  10.547  1.3392  0.3310  0.0611
45884SOL    HW243616  12.500   0.406  10.621  1.8054  0.7539  0.1459
45885SOL     OW43617  10.794  11.239   3.969 -0.2195 -0.6372  0.0827
45885SOL    HW143618  10.866  11.177   3.972 -0.3196 -0.7269  1.1439
45885SOL    HW243619  10.820  11.310   4.028 -0.1567  0.2997 -1.0151
45886SOL     OW43620   3.355   5.700   6.862  0.0297 -0.1583  0.0535
45886SOL    HW143621   3.352   5.795   6.874 -0.3694 -0.0610 -0.7194
45886SOL    HW243622   3.441   5.683   6.823  0.2200 -0.1551  0.4642
45887SOL     OW43623   2.917   3.577   4.876  0.0157 -0.0334 -0.4798
45887SOL    HW143624   2.944   3.638   4.807 -1.7044  1.6219  0.2232
45887SOL    HW243625   2.875   3.504   4.829  0.9114 -0.0457 -1.2738
45888SOL     OW43626   8.346   8.121   7.896 -0.2575 -0.2248  0.6210
45888SOL    HW143627   8.422   8.063   7.899  0.3008  0.4687  0.2704
45888SOL    HW243628   8.359   8.181   7.969  0.6604  1.2390 -0.6785
45889SOL     OW43629   5.240   1.728   8.447 -0.1648  0.0568  0.4052
45889SOL    HW143630   5.261   1.679   8.367 -0.0857  1.6063 -0.5582
45889SOL    HW243631   5.227   1.660   8.514  4.3799 -1.2728  0.2910
45890SOL     OW43632   7.320   4.280   3.824  0.0114 -0.1676 -0.2968
45890SOL    HW143633   7.299   4.349   3.887 -0.8963 -0.1845 -0.5620
45890SOL    HW243634   7.416   4.279   3.820  0.0400  0.8551 -0.0513
45891SOL     OW43635   4.118   5.082   8.727  0.0384  0.1200  0.4948
45891SOL    HW143636   4.133   4.988   8.741 -1.6498 -0.5651 -1.7011
45891SOL    HW243637   4.025   5.087   8.703  0.0852  2.3800  0.6387
45892SOL     OW43638   9.058   4.306   0.925  0.5734 -0.1238  0.5475
45892SOL    HW143639   9.089   4.297   0.835 -1.0193 -0.6078  0.0208
45892SOL    HW243640   9.016   4.223   0.945 -1.5986  0.9433  0.7091
45893SOL     OW43641   5.919   2.975  10.267  0.6044 -0.0944 -0.1397
45893SOL    HW143642   5.935   2.971  10.362  0.6510 -0.2980 -0.1552
45893SOL    HW243643   5.932   2.884  10.237 -1.8295 -0.5625  0.0447
45894SOL     OW43644   4.793  10.315  12.160  0.2032 -0.8922 -0.6666
45894SOL    HW143645   4.807  10.295  12.068 -0.2163 -1.3699 -0.6270
45894SOL    HW243646   4.854  10.258  12.207  0.1217 -0.9491 -0.6289
45895SOL     OW43647   5.600   0.301   2.555  0.2932  0.1562  0.2285
45895SOL    HW143648   5.577   0.388   2.587 -1.9613 -0.6047  0.8229
45895SOL    HW243649   5.601   0.245   2.632  2.3542 -0.2967 -0.0505
45896SOL     OW43650   1.631   1.617  10.182 -0.3820 -0.4394  0.0067
45896SOL    HW143651   1.541   1.649  10.189 -0.6553 -1.2211  0.1901
45896SOL    HW243652   1.626   1.549  10.115 -0.1544 -1.2409  0.7817
45897SOL     OW43653  12.178  11.996   7.241 -0.1094  0.2006 -0.4339
45897SOL    HW143654  12.268  11.983   7.212 -0.3651  0.8554 -1.5929
45897SOL    HW243655  12.125  11.943   7.182 -0.4351 -1.1934  1.0249
45898SOL     OW43656   1.698  11.611   9.537 -0.2636 -0.4690 -0.0321
45898SOL    HW143657   1.693  11.518   9.516  2.2789 -0.9684  1.2373
45898SOL    HW243658   1.701  11.655   9.452  1.1970 -1.7755 -0.7115
45899SOL     OW43659  11.130  10.692  10.922 -0.7618  0.0410  0.0648
45899SOL    HW143660  11.072  10.768  10.921 -0.4750  0.2745  0.8233
45899SOL    HW243661  11.157  10.683  11.013 -1.2855 -1.3469  0.1040
45900SOL     OW43662   3.598  12.352   2.845  0.0478  0.2459  0.2840
45900SOL    HW143663   3.657  12.279   2.826  1.4322  1.2514  0.5692
45900SOL    HW243664   3.515  12.310   2.867  0.1891 -1.1744 -1.5782
45901SOL     OW43665   5.158   1.131   2.180 -0.3976  0.0985  0.1817
45901SOL    HW143666   5.156   1.041   2.145  0.1573 -0.7533  2.1861
45901SOL    HW243667   5.067   1.151   2.200 -0.9944  1.2388 -3.0406
45902SOL     OW43668  11.726   8.637   8.515  0.3288 -0.2447 -0.6619
45902SOL    HW143669  11.800   8.576   8.511  1.3136  0.6842  1.5941
45902SOL    HW243670  11.747   8.704   8.449  0.4521 -1.0386 -1.4516
45903SOL     OW43671   3.402  10.697  10.126 -0.2476  0.8349  0.1055
45903SOL    HW143672   3.378  10.786  10.152  0.5842  1.4397 -1.1249
45903SOL    HW243673   3.330  10.643  10.157 -0.5106  1.8515  1.3606
45904SOL     OW43674   6.144  11.779   8.535  0.3603  0.5075  0.0559
45904SOL    HW143675   6.109  11.801   8.621  0.6647 -0.9787  0.5852
45904SOL    HW243676   6.234  11.751   8.552 -0.4872 -2.8491 -0.2537
45905SOL     OW43677   4.221   7.998  10.262 -0.1323 -0.2658  0.8577
45905SOL    HW143678   4.268   8.071  10.303 -2.2262  0.8553  1.4164
45905SOL    HW243679   4.217   7.931  10.329  1.4425 -0.7711  0.4827
45906SOL     OW43680   7.842   2.235   4.713  0.2249 -0.6105  0.3975
45906SOL    HW143681   7.760   2.185   4.710 -0.9921  1.2608 -3.2582
45906SOL    HW243682   7.814   2.323   4.741  1.5348 -0.6754  2.0229
45907SOL     OW43683   2.982   3.190   3.019 -0.0434  0.4740  0.4795
45907SOL    HW143684   3.025   3.246   3.084  2.4916 -1.5488  0.7485
45907SOL    HW243685   2.911   3.147   3.067 -0.1459  1.2549  1.0467
45908SOL     OW43686   8.232   3.586   0.732  0.0335  0.2519 -0.3834
45908SOL    HW143687   8.174   3.598   0.657 -0.7517 -2.5331 -0.3350
45908SOL    HW243688   8.196   3.644   0.800 -1.3382  0.2543 -1.0813
45909SOL     OW43689  12.135   1.810   7.763  0.2411 -0.3246 -0.3657
45909SOL    HW143690  12.073   1.882   7.768 -0.3747 -0.7048 -1.8483
45909SOL    HW243691  12.190   1.830   7.687  0.0853 -1.3647 -0.7775
45910SOL     OW43692  10.988   9.898   5.765 -0.3020  0.0458 -0.1386
45910SOL    HW143693  10.989   9.968   5.830 -0.5755  0.0774 -0.1635
45910SOL    HW243694  10.999   9.817   5.815 -0.3334  0.0838 -0.0707
45911SOL     OW43695   4.991   6.977   4.267 -0.3418 -0.1993 -0.3296
45911SOL    HW143696   4.931   6.904   4.276 -0.7915 -0.0973 -2.0471
45911SOL    HW243697   4.974   7.011   4.179  3.5556 -1.3891 -1.7405
45912SOL     OW43698   7.828   4.992   8.421 -0.0618  0.0335 -0.4236
45912SOL    HW143699   7.779   5.058   8.372 -0.2127  0.5205  0.3488
45912SOL    HW243700   7.778   4.981   8.502 -0.0016 -0.9876 -0.5075
45913SOL     OW43701   1.687   5.530   8.054 -0.0901  0.5847  0.1064
45913SOL    HW143702   1.696   5.625   8.059  1.5187  0.4195  1.0392
45913SOL    HW243703   1.691   5.510   7.961  0.7720  1.3376 -0.0228
45914SOL     OW43704   2.248   7.326   5.273 -0.3318 -0.1580  0.3662
45914SOL    HW143705   2.306   7.334   5.349  1.8023 -0.9947 -1.0770
45914SOL    HW243706   2.209   7.239   5.282  2.3435 -1.6378 -0.9660
45915SOL     OW43707   6.163   4.519   7.872 -0.2492  0.1060 -0.0170
45915SOL    HW143708   6.147   4.472   7.954  0.4810  0.2112  0.1940
45915SOL    HW243709   6.247   4.486   7.841  0.1255  1.0352 -0.0286
45916SOL     OW43710   9.611   1.938  10.268 -0.4447  0.1964 -0.2304
45916SOL    HW143711   9.582   1.939  10.360 -0.6629  1.0053 -0.2986
45916SOL    HW243712   9.587   2.024  10.235 -0.2096 -0.0296 -1.0067
45917SOL     OW43713   3.122  11.280  10.831  0.2597  0.1889 -0.3516
45917SOL    HW143714   3.138  11.355  10.888  2.9198 -0.9127  0.5170
45917SOL    HW243715   3.096  11.210  10.890  0.1231 -0.1987 -0.8652
45918SOL     OW43716   8.083   8.417   0.313 -0.8929  0.0206 -0.3339
45918SOL    HW143717   8.063   8.360   0.388  0.7435  0.0081  0.1283
45918SOL    HW243718   8.004   8.415   0.260 -2.5460  0.8900  1.9252
45919SOL     OW43719   8.325   0.032   6.294  0.2031  0.0180 -0.7204
45919SOL    HW143720   8.303  -0.059   6.312  1.5459  0.1928  2.4592
45919SOL    HW243721   8.419   0.032   6.277  0.3791  0.8656  0.1304
45920SOL     OW43722   8.436   1.028  10.661 -0.8853  0.8566  0.2928
45920SOL    HW143723   8.440   1.011  10.567 -1.9031  2.8009 -0.1490
45920SOL    HW243724   8.505   0.972  10.698  0.3274  0.9002 -1.7197
45921SOL     OW43725   7.263   7.719   8.157  0.4491 -0.0318  0.4812
45921SOL    HW143726   7.325   7.732   8.230  0.8976 -0.5196  0.1922
45921SOL    HW243727   7.189   7.673   8.197  0.2066  0.6625  0.8563
45922SOL     OW43728   3.532   6.742  10.005 -0.1323 -0.7781  0.2992
45922SOL    HW143729   3.443   6.765  10.032 -0.7658  2.0408 -3.4472
45922SOL    HW243730   3.521   6.662   9.953 -0.0169 -1.7840  1.7447
45923SOL     OW43731   7.654   7.612   8.517  0.0586 -0.0493  0.1228
45923SOL    HW143732   7.731   7.608   8.460 -1.0836  0.6359 -1.5686
45923SOL    HW243733   7.680   7.668   8.590  0.4296  2.3511 -1.7338
45924SOL     OW43734   5.809   0.601   8.172 -0.0345  0.0400  0.4001
45924SOL    HW143735   5.824   0.653   8.250 -0.3298  1.4908 -0.4779
45924SOL    HW243736   5.741   0.538   8.197  0.7830 -0.3705  1.6576
45925SOL     OW43737   8.151   7.099   5.582  0.3587 -0.0355 -0.4671
45925SOL    HW143738   8.109   7.035   5.638  2.2901  0.8325  2.1787
45925SOL    HW243739   8.232   7.057   5.554  0.3258  0.2613 -1.0249
45926SOL     OW43740   2.900   2.012   9.263  0.8345  0.3534  0.3148
45926SOL    HW143741   2.966   2.049   9.322  1.7970 -0.3831 -0.2719
45926SOL    HW243742   2.949   1.988   9.185 -0.2392  0.3063 -0.3662
45927SOL     OW43743   1.449   1.592   4.124 -0.4746  0.3088  0.1941
45927SOL    HW143744   1.385   1.654   4.161 -2.6432 -1.0474 -1.0405
45927SOL    HW243745   1.413   1.506   4.146  0.9796 -0.5147 -0.5416
45928SOL     OW43746  10.401   2.340  12.093 -0.5717  0.3051 -0.3511
45928SOL    HW143747  10.437   2.426  12.071  1.8060 -0.2625  0.8935
45928SOL    HW243748  10.361   2.351  12.179  1.5655 -0.1787  0.7842
45929SOL     OW43749   1.485   9.805   1.377  0.2857 -0.0477 -0.2869
45929SOL    HW143750   1.516   9.892   1.402  0.4734 -0.4115  0.7774
45929SOL    HW243751   1.391   9.807   1.396  0.4628 -0.3868  0.6347
45930SOL     OW43752   9.023   2.571   5.364 -0.3421 -0.1481  0.6116
45930SOL    HW143753   9.058   2.527   5.286 -1.1224  3.1828 -1.8695
45930SOL    HW243754   8.937   2.603   5.337 -0.0986  2.2763  2.3381
45931SOL     OW43755   3.713  11.912   7.338 -0.2270  0.0709  0.1369
45931SOL    HW143756   3.659  11.977   7.380 -0.4751  0.5075 -0.8296
45931SOL    HW243757   3.671  11.896   7.253  1.2795  0.6229 -0.7524
45932SOL     OW43758   6.215   3.104  10.571  0.4935  0.2201  0.1707
45932SOL    HW143759   6.250   3.131  10.486 -1.9283 -1.2197 -1.3969
45932SOL    HW243760   6.227   3.181  10.627  0.0353  2.0979 -2.1538
45933SOL     OW43761   7.267  10.354   1.245 -0.2223  0.4324  0.3491
45933SOL    HW143762   7.187  10.305   1.262 -0.8211  0.2056 -2.5710
45933SOL    HW243763   7.327  10.290   1.207  0.8095  0.9319  1.0814
45934SOL     OW43764  12.278   0.184   0.959 -0.0732  0.7806  0.7101
45934SOL    HW143765  12.279   0.276   0.934 -2.2568 -0.0700 -3.3997
45934SOL    HW243766  12.357   0.147   0.918 -1.1575  0.2235 -0.9528
45935SOL     OW43767   6.396   3.729  10.413  0.4691 -0.0517  0.2545
45935SOL    HW143768   6.328   3.673  10.451  1.3893 -1.6242 -0.3217
45935SOL    HW243769   6.450   3.755  10.488  0.6304 -0.7917  0.3983
45936SOL     OW43770  11.049   3.450   1.790 -0.2881  0.0577  0.0132
45936SOL    HW143771  11.073   3.490   1.707 -0.3344  0.5452  0.2316
45936SOL    HW243772  11.115   3.382   1.804  1.1366  1.5367  0.7246
45937SOL     OW43773   0.732   1.582   1.336  0.2730  0.4159  0.3951
45937SOL    HW143774   0.777   1.515   1.387  0.4953  0.3296  0.0892
45937SOL    HW243775   0.726   1.657   1.396 -0.4517 -0.0522  0.9140
45938SOL     OW43776   8.898   8.800   7.989  1.3415 -0.3028 -0.0901
45938SOL    HW143777   8.866   8.731   8.047  0.5338  1.3136  1.4762
45938SOL    HW243778   8.970   8.841   8.037  0.8065  0.9263 -0.2822
45939SOL     OW43779   0.750   0.345   9.106 -0.5890  0.0902 -0.0691
45939SOL    HW143780   0.685   0.360   9.037  0.2176 -3.3061 -1.7862
45939SOL    HW243781   0.721   0.264   9.149  1.0104  0.0529  1.0379
45940SOL     OW43782   2.253   7.355  12.261  0.4163 -0.1893  0.1869
45940SOL    HW143783   2.201   7.425  12.222  2.7143  1.8990  0.5882
45940SOL    HW243784   2.313   7.327  12.192  1.9429  0.8683  1.0141
45941SOL     OW43785   4.541  10.458  11.212 -0.2881 -0.2743 -0.2882
45941SOL    HW143786   4.566  10.500  11.294 -0.2438 -0.6708 -0.0969
45941SOL    HW243787   4.624  10.433  11.171 -0.3150 -0.1809 -0.4008
45942SOL     OW43788   5.549   4.945   9.958 -0.3126 -0.1120 -0.0512
45942SOL    HW143789   5.518   4.887  10.027  0.0034  0.2568  0.4056
45942SOL    HW243790   5.640   4.921   9.945 -0.1942  0.2561  0.1063
45943SOL     OW43791  10.576   1.041  12.212  0.5040 -0.2024  0.2787
45943SOL    HW143792  10.607   1.053  12.302 -0.7293  1.9703  0.4712
45943SOL    HW243793  10.563   0.946  12.204 -0.4929 -0.3597  2.7870
45944SOL     OW43794   8.225   9.780   0.107 -0.4083 -0.5463 -0.0511
45944SOL    HW143795   8.272   9.765   0.025 -0.7414  0.2787 -0.4107
45944SOL    HW243796   8.185   9.695   0.128  0.0408 -0.8751 -0.5076
45945SOL     OW43797   6.535   6.443   0.691 -0.4130  0.1116 -0.2920
45945SOL    HW143798   6.545   6.526   0.644 -0.4161  0.3197  0.0716
45945SOL    HW243799   6.464   6.460   0.753  0.4629  0.2455  0.6902
45946SOL     OW43800   3.360   1.784   9.817 -0.1337  0.2822 -0.3137
45946SOL    HW143801   3.347   1.765   9.910 -0.7560 -1.1902 -0.6679
45946SOL    HW243802   3.378   1.878   9.813  0.0182  0.3397  1.2958
45947SOL     OW43803   1.716  11.793   3.780  0.1249  0.3559  0.6151
45947SOL    HW143804   1.728  11.844   3.700  1.4492 -1.0347 -0.1396
45947SOL    HW243805   1.796  11.807   3.829 -0.2085  0.3245  1.1719
45948SOL     OW43806   2.037   8.829   9.177  0.9721  0.2930  0.1868
45948SOL    HW143807   2.095   8.820   9.101  0.7028 -1.2430  0.1356
45948SOL    HW243808   2.083   8.785   9.248  0.8428  0.9985  0.7185
45949SOL     OW43809   4.602  11.920   9.775 -0.6772  0.3034 -0.3680
45949SOL    HW143810   4.568  11.878   9.695 -0.9662  0.3930 -0.2924
45949SOL    HW243811   4.524  11.951   9.820 -0.5247  0.1064  0.0355
45950SOL     OW43812   5.352   7.070   6.890 -0.2653  0.1004  0.4916
45950SOL    HW143813   5.318   7.042   6.805  0.1573 -0.7897  0.6060
45950SOL    HW243814   5.363   6.989   6.939 -0.0023  0.5650  1.2107
45951SOL     OW43815  10.585   1.677  11.242 -0.2767 -0.1259  0.1287
45951SOL    HW143816  10.586   1.676  11.338  0.5441 -0.5639  0.1293
45951SOL    HW243817  10.603   1.768  11.219 -3.0378  0.5523  0.3615
45952SOL     OW43818   2.952   3.115   5.306 -0.2386  0.2827  0.0241
45952SOL    HW143819   2.999   3.116   5.390 -1.6265 -0.6168  0.8483
45952SOL    HW243820   2.983   3.036   5.262  1.8253  1.6575 -1.1660
45953SOL     OW43821   8.506   2.590   1.407 -0.2705 -0.4387  0.8082
45953SOL    HW143822   8.490   2.683   1.392 -0.0130 -0.3595  1.0068
45953SOL    HW243823   8.503   2.580   1.503  2.0116 -0.1849  0.9618
45954SOL     OW43824   0.823  10.203   2.484  0.2833 -0.1211 -0.5344
45954SOL    HW143825   0.907  10.156   2.490  1.3425  1.7767  0.4775
45954SOL    HW243826   0.813  10.220   2.390  1.9154  1.0588 -0.5465
45955SOL     OW43827  11.600   5.443   0.612 -0.0808 -0.3020  0.3168
45955SOL    HW143828  11.611   5.533   0.645  1.2195 -0.7412  1.1682
45955SOL    HW243829  11.533   5.405   0.669  0.8595 -0.4914  1.3442
45956SOL     OW43830   6.561   8.633   2.036 -0.1871  0.0644 -0.0976
45956SOL    HW143831   6.556   8.632   2.132  0.8000  1.8871  0.0174
45956SOL    HW243832   6.643   8.588   2.016 -1.3208 -2.0537 -0.2426
45957SOL     OW43833   2.145   5.286  10.658  0.4746  0.7195 -0.0903
45957SOL    HW143834   2.095   5.214  10.698 -0.8155  1.2667 -0.6425
45957SOL    HW243835   2.142   5.356  10.723  1.0761  0.5371  0.1353
45958SOL     OW43836  10.036  11.566  10.350 -0.7084 -0.0616  0.3925
45958SOL    HW143837   9.992  11.507  10.289 -0.2053  0.7701 -0.8093
45958SOL    HW243838   9.969  11.630  10.375 -0.5906  0.3236 -0.2659
45959SOL     OW43839   5.532   5.318   5.256 -0.0752 -0.1646  0.2053
45959SOL    HW143840   5.516   5.380   5.328 -0.3709 -0.3607  0.3127
45959SOL    HW243841   5.540   5.233   5.299  2.9762  0.0815  0.3575
45960SOL     OW43842   0.112  11.101   4.445 -0.8068 -0.1384 -0.7394
45960SOL    HW143843   0.132  11.194   4.434  0.4367 -0.4286 -1.1038
45960SOL    HW243844   0.056  11.097   4.522  0.8407  0.7380  0.5677
45961SOL     OW43845  11.263   1.294  10.342 -0.0344 -0.2891  0.0905
45961SOL    HW143846  11.325   1.358  10.306 -0.6183  0.3894  0.2614
45961SOL    HW243847  11.297   1.275  10.429 -0.3503  0.5118  0.4036
45962SOL     OW43848   9.541   6.428   2.523 -0.0163  0.6491  0.1345
45962SOL    HW143849   9.481   6.481   2.575  0.8886  1.9525 -0.0957
45962SOL    HW243850   9.612   6.488   2.499  1.3873 -0.8080  0.3901
45963SOL     OW43851   2.327   2.618   9.314  0.2230 -0.7115 -0.1533
45963SOL    HW143852   2.386   2.544   9.328  1.6572  0.2772 -0.7438
45963SOL    HW243853   2.248   2.579   9.276 -0.7759 -2.4596  3.2654
45964SOL     OW43854   6.509   7.118   3.514  0.0613  0.2645  0.4403
45964SOL    HW143855   6.506   7.022   3.509 -1.1851  0.2771  0.4828
45964SOL    HW243856   6.581   7.137   3.575  0.2725 -0.6444  0.4883
45965SOL     OW43857   2.853   6.826   1.201  0.5617  0.3437 -0.4467
45965SOL    HW143858   2.939   6.784   1.208 -0.3761 -1.6352 -0.0839
45965SOL    HW243859   2.834   6.856   1.290 -0.1612 -1.4680  0.0469
45966SOL     OW43860   9.163   2.899   7.539 -0.2248 -0.4873  0.2012
45966SOL    HW143861   9.096   2.962   7.565  1.2167  1.4218 -0.4276
45966SOL    HW243862   9.246   2.943   7.557  0.8712 -2.3882  0.0962
45967SOL     OW43863   2.159   0.829   2.712  0.2205  0.1753 -0.2585
45967SOL    HW143864   2.071   0.813   2.744  0.8501 -1.0928  0.9335
45967SOL    HW243865   2.183   0.748   2.666  1.1373  0.0769  0.3569
45968SOL     OW43866   5.644   0.625  11.092  0.2580  0.3368  0.1270
45968SOL    HW143867   5.609   0.713  11.087 -0.8878 -0.1616 -1.0468
45968SOL    HW243868   5.711   0.621  11.024  1.0486  0.5937  0.8678
45969SOL     OW43869   5.203   0.066   1.647  0.0827 -0.4593  0.1321
45969SOL    HW143870   5.166   0.145   1.608 -0.8962 -0.7688  0.4025
45969SOL    HW243871   5.288   0.093   1.682  0.7207 -0.0327 -1.6576
45970SOL     OW43872   3.529   6.157   2.886 -0.3605 -0.0912 -0.3845
45970SOL    HW143873   3.590   6.230   2.891  0.0125 -0.4665  0.9706
45970SOL    HW243874   3.583   6.079   2.903 -1.1270 -0.4524  0.5101
45971SOL     OW43875   0.144   2.932   9.434 -0.2960  0.5402 -0.2546
45971SOL    HW143876   0.127   2.990   9.509  1.2254 -0.2753  0.7703
45971SOL    HW243877   0.118   2.845   9.465 -0.2115  0.2884 -0.8896
45972SOL     OW43878   6.410   9.167   2.650 -0.4841 -0.2651 -0.2106
45972SOL    HW143879   6.421   9.123   2.734  0.9014 -0.3221 -0.3937
45972SOL    HW243880   6.321   9.146   2.623 -0.2825 -1.9235  0.2992
45973SOL     OW43881   7.541   5.783   5.133  0.5602 -0.2838 -0.0784
45973SOL    HW143882   7.485   5.852   5.096 -0.3823 -0.9499  0.0809
45973SOL    HW243883   7.614   5.777   5.072  0.0572  0.0446 -0.7307
45974SOL     OW43884   8.942   2.107   7.618 -0.0626  0.0883 -0.2451
45974SOL    HW143885   8.922   2.127   7.527 -0.3973  1.1016  0.0238
45974SOL    HW243886   8.922   2.014   7.628 -2.7277  0.5405 -0.5386
45975SOL     OW43887   7.170   8.269  10.506  0.3730  0.3389  0.7872
45975SOL    HW143888   7.142   8.208  10.574 -1.6103  0.7745  0.4179
45975SOL    HW243889   7.104   8.262  10.438 -1.4636  4.6390  1.7813
45976SOL     OW43890  10.585   5.397   2.856  0.2288 -0.1352 -0.2336
45976SOL    HW143891  10.562   5.384   2.764  3.4579 -1.2441 -1.0101
45976SOL    HW243892  10.569   5.490   2.872  1.0603  0.4394 -2.4083
45977SOL     OW43893   7.715   1.522   6.158 -0.2186  0.5788 -0.1686
45977SOL    HW143894   7.672   1.608   6.165 -1.5955 -0.1798  1.1165
45977SOL    HW243895   7.746   1.504   6.247  0.9347  0.1679 -0.6430
45978SOL     OW43896   8.036   2.121   3.771 -0.2586  0.4132 -0.5661
45978SOL    HW143897   7.982   2.188   3.731 -0.9734  0.1182 -0.1255
45978SOL    HW243898   8.068   2.068   3.698 -1.0962  0.2065 -0.7927
45979SOL     OW43899  11.924   2.690  10.840 -0.6570 -0.0868 -0.1438
45979SOL    HW143900  11.998   2.726  10.890 -0.7953 -1.2066  0.9073
45979SOL    HW243901  11.876   2.637  10.903 -1.3296 -0.8552 -1.2636
45980SOL     OW43902   3.550   4.033   0.614  0.3112  0.2396  0.1800
45980SOL    HW143903   3.604   4.045   0.692  1.0842  0.2303 -0.3464
45980SOL    HW243904   3.474   3.984   0.645  0.7930 -0.0953  0.8485
45981SOL     OW43905   7.087   5.710   8.769  0.2174 -0.3901 -0.2477
45981SOL    HW143906   7.053   5.672   8.850 -0.9749 -0.4278 -0.7545
45981SOL    HW243907   7.032   5.787   8.754  0.7466 -0.1139 -0.7720
45982SOL     OW43908  12.033   4.125   9.074  0.0018  0.2041  0.2982
45982SOL    HW143909  12.034   4.043   9.024  0.3917  0.4795 -0.1525
45982SOL    HW243910  11.990   4.102   9.157 -1.7373  0.0112 -0.6083
45983SOL     OW43911   2.757   3.925   6.649 -0.1827 -0.0615  0.1390
45983SOL    HW143912   2.693   3.925   6.577 -0.6501  0.7805  0.5453
45983SOL    HW243913   2.715   3.975   6.719 -0.2181 -1.8574  1.4563
45984SOL     OW43914   8.009   9.352   9.744  0.1414 -0.0322  0.1547
45984SOL    HW143915   7.940   9.415   9.724  0.1543 -0.5135 -1.6334
45984SOL    HW243916   7.962   9.277   9.782  0.0541  0.7728  1.6806
45985SOL     OW43917   2.530   7.787   2.098 -0.3844 -0.5085 -0.1736
45985SOL    HW143918   2.495   7.725   2.162 -1.7861  0.4906  0.0579
45985SOL    HW243919   2.616   7.811   2.132 -0.2001 -1.6256  0.1915
45986SOL     OW43920   5.823   5.761   1.411 -0.1592  0.0349  0.2884
45986SOL    HW143921   5.799   5.676   1.448  1.2163 -0.2081  0.6706
45986SOL    HW243922   5.747   5.786   1.358 -0.4060 -1.6415 -0.2148
45987SOL     OW43923   6.611   3.362   9.274  0.0355 -0.2942 -0.7007
45987SOL    HW143924   6.700   3.352   9.307 -0.0274  1.4448  0.0960
45987SOL    HW243925   6.620   3.417   9.196 -0.1671 -1.8340 -1.8846
45988SOL     OW43926   0.055   9.111  10.064 -0.5725 -0.0034 -0.3829
45988SOL    HW143927   0.071   9.197  10.025 -0.1769  1.3019  2.3698
45988SOL    HW243928   0.142   9.072  10.071 -0.4814  0.2991  0.2582
45989SOL     OW43929   4.908   3.365   6.751  0.7864 -0.1995  0.1863
45989SOL    HW143930   4.978   3.420   6.715 -0.0879  0.8231 -0.0084
45989SOL    HW243931   4.892   3.400   6.838 -0.4718  0.5502 -0.3174
45990SOL     OW43932   8.290   7.310   3.156 -0.0280  0.1237  0.1397
45990SOL    HW143933   8.205   7.352   3.167  0.0426  0.6696 -1.1494
45990SOL    HW243934   8.336   7.366   3.093  1.7362  0.5021  1.6365
45991SOL     OW43935   2.875   1.013   6.215 -0.1011 -0.5088  0.0746
45991SOL    HW143936   2.943   1.039   6.154  0.6321  0.3091  1.1954
45991SOL    HW243937   2.823   1.092   6.230 -1.1253 -1.0395 -0.5123
45992SOL     OW43938  12.381   3.856   9.909 -0.3573 -0.2986  0.4097
45992SOL    HW143939  12.346   3.767   9.917  0.7190 -0.7215  0.7307
45992SOL    HW243940  12.357   3.883   9.820 -0.9502 -0.8003  0.4099
45993SOL     OW43941   1.939   7.859   2.195 -0.0811  1.0082  0.0996
45993SOL    HW143942   1.899   7.820   2.272  0.8320  1.3817  0.7716
45993SOL    HW243943   1.873   7.848   2.126 -0.2001 -0.8955  0.4739
45994SOL     OW43944   4.076   8.505   3.584 -0.0818  0.0728  0.4527
45994SOL    HW143945   4.093   8.438   3.518 -2.4747 -0.7494  0.5893
45994SOL    HW243946   4.000   8.553   3.551  0.1045  1.1717  1.5328
45995SOL     OW43947   1.038   9.445   7.981  0.7649  0.7022 -0.6596
45995SOL    HW143948   1.101   9.517   7.987 -0.7393  1.9932  0.4319
45995SOL    HW243949   0.961   9.484   7.941  0.6402 -0.8813 -2.0489
45996SOL     OW43950   7.363   3.598   9.059  0.4472 -0.5578  0.0124
45996SOL    HW143951   7.366   3.680   9.010 -1.1009 -0.3919  0.1278
45996SOL    HW243952   7.441   3.599   9.114  0.2542  1.0381  0.3013
45997SOL     OW43953  11.864   0.311   4.386  0.2676 -0.0152 -0.3677
45997SOL    HW143954  11.773   0.340   4.379 -0.3531 -0.9645  2.6089
45997SOL    HW243955  11.905   0.342   4.305 -2.4349  1.3083 -1.3449
45998SOL     OW43956   6.801   7.358   6.764  0.1376  0.1458 -0.1029
45998SOL    HW143957   6.840   7.344   6.677 -2.1303 -0.6066 -1.0679
45998SOL    HW243958   6.871   7.399   6.815  1.2013  1.7496 -2.6376
45999SOL     OW43959   0.774   5.384   7.247 -0.3220  0.3160 -0.1871
45999SOL    HW143960   0.822   5.463   7.223 -0.4176  0.4182 -0.0499
45999SOL    HW243961   0.836   5.312   7.233 -0.1397  0.4427 -0.0374
46000SOL     OW43962   9.311   7.501   3.490 -0.1041 -0.3995  0.2255
46000SOL    HW143963   9.275   7.429   3.543  0.0980 -0.4546  0.2885
46000SOL    HW243964   9.395   7.520   3.531 -0.0650 -0.2659  0.0805
46001SOL     OW43965  11.463  11.390   9.406 -0.6635  0.2863  0.2563
46001SOL    HW143966  11.492  11.312   9.453 -2.5060 -0.5238  0.1470
46001SOL    HW243967  11.411  11.356   9.333 -1.2838  1.6133  0.0527
46002SOL     OW43968   1.497   9.927   0.259  0.3823  0.3738 -0.1167
46002SOL    HW143969   1.580   9.938   0.305  0.2205 -0.1239  0.2980
46002SOL    HW243970   1.436   9.986   0.304  0.9381  2.1271 -1.5628
46003SOL     OW43971   8.817  12.400  10.674  0.1344 -0.7994  0.3835
46003SOL    HW143972   8.897  12.450  10.691 -0.2164  0.5725 -1.7300
46003SOL    HW243973   8.779  12.385  10.761 -0.4266  3.7387  1.1345
46004SOL     OW43974  11.692   8.687  10.909 -0.1110  0.3627  0.0377
46004SOL    HW143975  11.750   8.761  10.924 -1.2818  1.4141 -0.4557
46004SOL    HW243976  11.662   8.662  10.996 -0.7949  1.3920  0.1169
46005SOL     OW43977  10.399   3.193   3.547  0.2244  0.1303 -0.2254
46005SOL    HW143978  10.456   3.178   3.471 -0.5088  1.4875 -1.0849
46005SOL    HW243979  10.436   3.137   3.615  0.7463 -1.3396 -1.6393
46006SOL     OW43980  10.949   3.194  11.365  0.0849  0.4772  0.0724
46006SOL    HW143981  10.897   3.184  11.286  0.1522 -2.0879  0.2726
46006SOL    HW243982  10.884   3.212  11.434 -0.1619  0.7968 -0.2368
46007SOL     OW43983  10.163   1.506   3.568 -0.2470  0.7824 -0.2228
46007SOL    HW143984  10.195   1.513   3.658 -0.7694  0.0853  0.0248
46007SOL    HW243985  10.100   1.434   3.570  2.2041 -1.6041 -1.8446
46008SOL     OW43986   6.676   7.876   7.885 -0.5158  0.0493 -0.5541
46008SOL    HW143987   6.698   7.854   7.975 -1.0879 -1.3261 -0.7243
46008SOL    HW243988   6.646   7.967   7.889  1.4891  0.7181  0.2669
46009SOL     OW43989  11.769  10.511  10.809 -0.2072  0.4339 -0.0725
46009SOL    HW143990  11.773  10.540  10.717 -0.2608  1.1774  0.1542
46009SOL    HW243991  11.684  10.468  10.817 -1.6379  3.1591  0.4077
46010SOL     OW43992  10.337  12.058   4.390 -0.6118  0.1462  0.2486
46010SOL    HW143993  10.328  12.083   4.298 -0.4811  1.3434  0.5515
46010SOL    HW243994  10.339  12.141   4.438 -1.8319 -0.4775  1.4468
46011SOL     OW43995   0.115   2.457   5.989 -0.1187 -0.7481 -0.0523
46011SOL    HW143996   0.188   2.429   6.044  0.2556 -0.3027 -0.3119
46011SOL    HW243997   0.108   2.389   5.922  0.4746 -0.4800 -0.3975
46012SOL     OW43998   4.846  11.946   5.749  0.3151  0.4429  0.9513
46012SOL    HW143999   4.792  12.017   5.784  0.0393  0.1774  1.0665
46012SOL    HW244000   4.787  11.895   5.694  0.9149  1.2494 -0.4769
46013SOL     OW44001   8.657   6.289   8.818 -0.1144 -0.3499  0.7102
46013SOL    HW144002   8.673   6.211   8.871  0.0618 -0.2220  0.8483
46013SOL    HW244003   8.742   6.307   8.776  0.1594  0.4096  1.5488
46014SOL     OW44004   2.793   0.620   9.706  0.0708  0.6465 -0.4237
46014SOL    HW144005   2.861   0.593   9.768 -0.1963 -0.3723 -0.5480
46014SOL    HW244006   2.804   0.714   9.697 -0.9882  1.1598  2.5399
46015SOL     OW44007   7.578   3.517   8.211  0.0850  0.4474  0.0304
46015SOL    HW144008   7.485   3.504   8.229 -0.1591  2.5920  0.6828
46015SOL    HW244009   7.622   3.485   8.290 -0.3850  2.3028  1.1091
46016SOL     OW44010   1.159   9.996   8.099  0.1349 -0.3063 -0.6792
46016SOL    HW144011   1.243   9.952   8.088 -0.0053 -0.3177 -1.7722
46016SOL    HW244012   1.173  10.084   8.063 -0.5391 -0.5656 -1.6043
46017SOL     OW44013  11.932   4.609   4.176  0.5230 -0.3503  0.3752
46017SOL    HW144014  11.994   4.680   4.193  1.1354 -0.9520  0.6983
46017SOL    HW244015  11.985   4.530   4.174  0.2314 -0.5844 -2.3676
46018SOL     OW44016   8.628   1.989   2.576  0.4084  0.0656 -0.5510
46018SOL    HW144017   8.544   2.035   2.577 -0.2376 -1.0700  0.5945
46018SOL    HW244018   8.604   1.897   2.563  1.4180 -0.3367  0.3112
46019SOL     OW44019   0.612   5.868  10.179 -0.2897 -0.0277  0.2542
46019SOL    HW144020   0.587   5.803  10.114  0.1729 -0.6182  0.6557
46019SOL    HW244021   0.595   5.953  10.137 -0.8363 -0.4008 -0.2942
46020SOL     OW44022  11.120   3.024   1.245 -0.6519  0.2607  0.1082
46020SOL    HW144023  11.146   3.051   1.157 -1.5198  2.5069  0.4620
46020SOL    HW244024  11.040   2.973   1.232 -0.0748 -0.5395 -0.4572
46021SOL     OW44025  10.495   2.943   6.030 -0.2078  0.2585 -0.4663
46021SOL    HW144026  10.499   2.863   5.977 -2.4729 -1.0164  1.0993
46021SOL    HW244027  10.424   2.994   5.992  1.0708  1.4588 -1.3057
46022SOL     OW44028   4.802   2.562   4.824  0.3301  0.2938 -0.8709
46022SOL    HW144029   4.761   2.505   4.759 -1.0706  0.8298 -0.4913
46022SOL    HW244030   4.857   2.504   4.875  0.1041 -0.4440 -1.4480
46023SOL     OW44031   8.410  11.850   4.975  0.0449 -0.5092  0.2888
46023SOL    HW144032   8.454  11.770   5.003  0.2242 -0.5270 -0.0347
46023SOL    HW244033   8.338  11.861   5.036 -0.1568 -1.0758  0.1545
46024SOL     OW44034  11.812   4.201   2.273  0.4612  0.2842  0.1336
46024SOL    HW144035  11.786   4.291   2.252  0.4002  0.5740  1.4101
46024SOL    HW244036  11.745   4.147   2.232 -0.0849  0.8705  0.2438
46025SOL     OW44037   0.822   6.606   3.361 -0.0863 -0.2656  0.1161
46025SOL    HW144038   0.810   6.654   3.443 -1.0965 -0.0656 -0.1380
46025SOL    HW244039   0.867   6.525   3.388  0.1480  0.0726  0.7737
46026SOL     OW44040  10.585   8.395   8.336  0.3029 -0.0206  0.3169
46026SOL    HW144041  10.493   8.404   8.361 -0.1079 -1.9945 -0.2838
46026SOL    HW244042  10.633   8.390   8.419 -0.4397 -1.3640  0.6896
46027SOL     OW44043   7.372   3.087   8.052 -0.5280 -0.5974 -0.3508
46027SOL    HW144044   7.284   3.118   8.032  0.0536  1.5639  0.2479
46027SOL    HW244045   7.430   3.156   8.021  0.8556 -1.1061  0.9704
46028SOL     OW44046   4.539   9.089   5.749 -0.1409  0.1802 -0.4921
46028SOL    HW144047   4.484   9.101   5.827  0.7363  2.6727 -0.1680
46028SOL    HW244048   4.564   8.996   5.751 -0.2241  0.1444  2.1349
46029SOL     OW44049  10.540   5.702   4.621 -0.0519 -0.0738 -0.1543
46029SOL    HW144050  10.460   5.648   4.619  0.6100 -1.1293  0.7055
46029SOL    HW244051  10.576   5.688   4.708  0.9669  0.5649 -0.4554
46030SOL     OW44052   7.375   2.854  10.064 -0.4830  0.6888 -0.3047
46030SOL    HW144053   7.330   2.928  10.107 -1.6035 -0.3678  0.4027
46030SOL    HW244054   7.320   2.778  10.083  0.1854 -0.2008 -1.7669
46031SOL     OW44055  11.666   8.065   1.211  0.0740 -0.6889 -0.0949
46031SOL    HW144056  11.624   7.987   1.175 -1.1034 -0.1417  0.0369
46031SOL    HW244057  11.746   8.075   1.160  1.1240 -2.9066  0.9858
46032SOL     OW44058   8.676  11.288   5.172  0.7351  0.0017 -0.1701
46032SOL    HW144059   8.618  11.295   5.096  0.7500 -0.7830 -0.2564
46032SOL    HW244060   8.727  11.209   5.156  0.2036 -0.6007  1.0355
46033SOL     OW44061   1.618   9.860   4.509 -0.4928 -0.1010 -0.6379
46033SOL    HW144062   1.680   9.837   4.439 -0.8679 -1.2596 -0.6138
46033SOL    HW244063   1.532   9.846   4.470 -0.7300  0.3154 -0.2784
46034SOL     OW44064   3.868   8.926   7.634  0.1308  0.6263 -0.3185
46034SOL    HW144065   3.846   8.840   7.671  0.3531 -0.2201 -2.0891
46034SOL    HW244066   3.783   8.965   7.612  0.1058 -0.6285 -2.7013
46035SOL     OW44067   0.945   7.444   0.204  0.7702  0.2172 -0.1916
46035SOL    HW144068   0.913   7.522   0.248  0.3662 -0.7751  1.3802
46035SOL    HW244069   0.896   7.372   0.244  1.5400 -0.8945 -1.1718
46036SOL     OW44070   4.643   0.482   0.774 -0.0957  0.0851  0.0341
46036SOL    HW144071   4.629   0.473   0.868 -2.3469 -2.1800 -0.3954
46036SOL    HW244072   4.721   0.430   0.756  0.0102  0.0493  0.5769
46037SOL     OW44073   5.569   8.494   3.969 -0.0263  0.5740 -0.1194
46037SOL    HW144074   5.609   8.432   3.908 -0.7044  1.1147 -1.1409
46037SOL    HW244075   5.616   8.480   4.052  2.3184  1.2231 -1.2581
46038SOL     OW44076   2.716  11.064  10.979 -0.4683  0.0459 -0.0124
46038SOL    HW144077   2.687  11.144  11.024  1.3900  0.5144  0.4619
46038SOL    HW244078   2.675  10.993  11.028 -2.2494  0.6836 -0.5115
46039SOL     OW44079   1.913   2.840  10.201  0.0472 -0.0901  0.2545
46039SOL    HW144080   1.969   2.766  10.177 -0.8786 -0.5591 -0.5021
46039SOL    HW244081   1.923   2.902  10.129 -0.8438 -0.4238 -0.1607
46040SOL     OW44082   9.573  10.854  11.528  0.4308 -0.3131  0.2712
46040SOL    HW144083   9.587  10.905  11.448  0.6873  0.3109  0.7085
46040SOL    HW244084   9.504  10.901  11.575 -1.9627 -2.3216 -0.9720
46041SOL     OW44085   7.802   1.874   0.425 -0.2551  0.3789  0.1987
46041SOL    HW144086   7.855   1.944   0.385  0.0168 -0.3297 -0.7154
46041SOL    HW244087   7.866   1.817   0.467 -0.0708 -1.2077 -2.0204
46042SOL     OW44088   9.611   5.882   3.300  0.1965 -0.0316 -0.0452
46042SOL    HW144089   9.597   5.935   3.222 -2.2711 -1.5243 -0.7098
46042SOL    HW244090   9.700   5.905   3.329  0.8643  1.1893 -2.7583
46043SOL     OW44091   4.292   5.371   5.588  0.4933  0.3232  0.9741
46043SOL    HW144092   4.333   5.302   5.536 -0.3961  0.3861  0.1427
46043SOL    HW244093   4.204   5.338   5.605 -0.5151  1.8770 -0.8216
46044SOL     OW44094   2.595  10.944  10.410  0.2050  0.4276 -0.1159
46044SOL    HW144095   2.602  11.017  10.349 -2.0086 -0.5142 -1.5925
46044SOL    HW244096   2.666  10.885  10.384 -0.5234  0.1765 -1.6574
46045SOL     OW44097   3.497   9.794  11.212 -0.1634 -0.3799 -0.2141
46045SOL    HW144098   3.573   9.812  11.267  1.0219  0.7190 -2.1155
46045SOL    HW244099   3.491   9.698  11.211  0.7562 -0.4615  0.5326
46046SOL     OW44100  10.291   3.226   5.319  0.2800 -0.5780 -0.1495
46046SOL    HW144101  10.317   3.199   5.231  1.4951 -1.3769  0.4266
46046SOL    HW244102  10.372   3.227   5.369 -0.5075 -1.0648  1.1990
46047SOL     OW44103   9.187   7.707  11.273  0.5214  0.3845 -0.1940
46047SOL    HW144104   9.173   7.629  11.327  0.7401  1.9858  2.3470
46047SOL    HW244105   9.138   7.776  11.317 -1.0313  1.4341 -3.2606
46048SOL     OW44106  12.474  10.662   0.206 -0.3416 -0.3600 -0.6862
46048SOL    HW144107  12.560  10.698   0.226 -1.0488  0.2280  1.6348
46048SOL    HW244108  12.435  10.725   0.146  0.6123 -0.3636 -1.3412
46049SOL     OW44109   5.015   6.520   6.124 -0.6217 -0.1867  0.3192
46049SOL    HW144110   4.967   6.511   6.042  0.1542  0.2421 -0.1861
46049SOL    HW244111   4.997   6.439   6.171 -1.3390 -0.2959 -0.1265
46050SOL     OW44112   7.936   6.574   2.819 -0.0966 -0.0334  0.0761
46050SOL    HW144113   7.883   6.500   2.848 -0.3226  0.4695  0.9798
46050SOL    HW244114   7.889   6.609   2.743 -0.2150 -0.5586 -0.0942
46051SOL     OW44115   6.857  12.221  11.338 -0.0214  0.1862  0.2814
46051SOL    HW144116   6.826  12.140  11.379 -2.7352  0.7511 -0.4686
46051SOL    HW244117   6.930  12.249  11.393  0.9251 -2.6486  0.6578
46052SOL     OW44118   7.341  11.742   2.412  0.1131  0.6432  0.3923
46052SOL    HW144119   7.339  11.669   2.351  1.6923 -0.5164  1.6505
46052SOL    HW244120   7.290  11.811   2.369 -3.4182 -1.8640  0.0799
46053SOL     OW44121   5.063   8.886   6.224  0.5156  0.4881  0.0420
46053SOL    HW144122   5.086   8.923   6.138 -0.0131 -0.8085 -0.6896
46053SOL    HW244123   5.123   8.813   6.236  0.7640  0.8307  0.9167
46054SOL     OW44124  11.972   6.472   8.338 -0.2892  0.3622 -0.1784
46054SOL    HW144125  12.027   6.399   8.367  0.1660  0.8676  0.2364
46054SOL    HW244126  12.016   6.506   8.260 -2.0610 -1.6630 -2.1958
46055SOL     OW44127   2.655   4.061   6.870 -0.8264 -0.2408 -0.3066
46055SOL    HW144128   2.660   4.111   6.952 -2.3304  0.2461 -0.4844
46055SOL    HW244129   2.619   3.977   6.895  0.1972 -0.6770 -0.2521
46056SOL     OW44130  11.740   2.271  10.784  0.0876 -0.9149 -0.4387
46056SOL    HW144131  11.772   2.339  10.844  0.6960 -0.2006 -1.5562
46056SOL    HW244132  11.781   2.291  10.701  1.4455 -3.5161 -0.4715
46057SOL     OW44133  11.207   9.100  12.363  0.4197  0.2945  0.0634
46057SOL    HW144134  11.207   9.028  12.300  1.7188 -1.3063  1.7981
46057SOL    HW244135  11.115   9.124  12.372 -0.1620 -1.7826  0.0878
46058SOL     OW44136   3.402   7.640   9.353  0.1804  0.4273  0.4243
46058SOL    HW144137   3.331   7.577   9.360 -1.7039  2.5512  1.7028
46058SOL    HW244138   3.456   7.608   9.280 -2.0660 -1.2571 -0.6028
46059SOL     OW44139   1.562  10.420   7.985 -0.3064 -0.1758  0.5048
46059SOL    HW144140   1.469  10.439   7.974  0.1376  2.2071  0.3690
46059SOL    HW244141   1.589  10.473   8.060  0.6319 -2.1011  1.6008
46060SOL     OW44142   5.021   8.870   0.278 -0.2778  0.8734  0.0946
46060SOL    HW144143   4.982   8.783   0.287  0.0319  0.6528 -0.5992
46060SOL    HW244144   5.114   8.853   0.262 -0.0798  1.3598  0.6853
46061SOL     OW44145  10.928   6.874   0.594 -0.2103 -0.3684  0.0211
46061SOL    HW144146  10.833   6.870   0.581 -0.4363  1.2316  0.9099
46061SOL    HW244147  10.965   6.845   0.510 -1.5080  0.1562 -0.7567
46062SOL     OW44148   2.123  12.469   4.776  0.5557  0.1919  0.2454
46062SOL    HW144149   2.127  12.512   4.861  4.2805  0.5561  0.0376
46062SOL    HW244150   2.032  12.480   4.748 -0.2889  1.8763  3.2179
46063SOL     OW44151   9.372   1.573   1.748 -0.3021 -0.9066 -0.5504
46063SOL    HW144152   9.412   1.514   1.812 -0.7835 -0.8707 -0.2165
46063SOL    HW244153   9.350   1.516   1.674 -0.5544 -1.1086 -0.3233
46064SOL     OW44154   3.081   4.188   0.162  0.3510 -0.0296 -0.2588
46064SOL    HW144155   3.040   4.261   0.115  0.6525 -1.6087 -3.2128
46064SOL    HW244156   3.168   4.221   0.186 -0.1788  1.1469  0.1566
46065SOL     OW44157   6.806   8.059  10.283 -1.1589 -0.5150  0.0461
46065SOL    HW144158   6.783   8.038  10.374  1.8339  1.1920  1.3439
46065SOL    HW244159   6.877   7.997  10.262 -0.2016  0.6478 -0.2300
46066SOL     OW44160   3.726   4.103   1.522 -0.2747 -0.4236  0.1301
46066SOL    HW144161   3.742   4.157   1.600 -1.5966  0.2238 -0.0196
46066SOL    HW244162   3.767   4.152   1.450  0.7417 -0.9066  0.3557
46067SOL     OW44163   4.288  11.140   3.480  0.4896 -0.0502  0.0870
46067SOL    HW144164   4.287  11.053   3.521  0.5005 -0.1070 -0.0340
46067SOL    HW244165   4.233  11.194   3.537 -0.2012 -0.3424 -0.2903
46068SOL     OW44166   4.064  10.425   1.805  0.4510 -0.4492  0.1910
46068SOL    HW144167   4.068  10.391   1.715 -0.4939  0.6136 -0.2821
46068SOL    HW244168   4.016  10.359   1.854 -0.9446 -0.0592 -0.6030
46069SOL     OW44169   6.309   2.363   8.602  0.2237 -0.4872 -0.0656
46069SOL    HW144170   6.304   2.290   8.664  0.3903 -0.0824  0.4348
46069SOL    HW244171   6.330   2.439   8.657  1.1853 -0.2681 -0.7248
46070SOL     OW44172   3.608   3.787   0.209 -0.6360 -0.8138  0.1429
46070SOL    HW144173   3.634   3.812   0.297  1.2258  0.2793 -0.6401
46070SOL    HW244174   3.554   3.860   0.179 -0.5615 -0.7732  0.1049
46071SOL     OW44175  10.428  11.978   5.074 -0.1208 -0.1669  0.7890
46071SOL    HW144176  10.520  11.980   5.049 -0.0801 -1.6841  0.7255
46071SOL    HW244177  10.381  11.983   4.990 -0.0375 -1.7842  0.6187
46072SOL     OW44178   9.184   4.116   9.287  0.1318  0.3326  0.2489
46072SOL    HW144179   9.118   4.099   9.354 -1.3211 -2.2010 -1.6235
46072SOL    HW244180   9.154   4.195   9.242 -0.4298  0.4280  0.7819
46073SOL     OW44181   4.581   6.515   5.479 -0.4566  0.0178 -0.5181
46073SOL    HW144182   4.487   6.515   5.459 -0.5930  2.5093 -0.2872
46073SOL    HW244183   4.605   6.608   5.478  1.5532 -0.3920  1.5719
46074SOL     OW44184   3.420   3.081   3.531 -0.0293 -0.5886  0.7151
46074SOL    HW144185   3.418   3.173   3.506 -1.6477 -0.8577 -0.2929
46074SOL    HW244186   3.429   3.033   3.449 -1.7424 -1.3845  0.9363
46075SOL     OW44187   0.896  10.321  10.710 -0.2091  0.4046 -0.2691
46075SOL    HW144188   0.844  10.281  10.640  0.4072 -1.2690  0.1859
46075SOL    HW244189   0.864  10.279  10.790  0.6460  0.6487  0.2039
46076SOL     OW44190   9.228   1.123   4.307 -0.2805  0.6658 -0.0829
46076SOL    HW144191   9.222   1.147   4.400  0.6940 -1.4383  0.6010
46076SOL    HW244192   9.143   1.144   4.271 -1.2379  0.0604  1.6944
46077SOL     OW44193  11.413   7.424   9.807  0.0382 -0.0610  0.2759
46077SOL    HW144194  11.490   7.367   9.804 -1.0445 -1.6091  0.6726
46077SOL    HW244195  11.385   7.429   9.715 -0.6996 -1.4204  0.3934
46078SOL     OW44196   8.041   8.988  12.206  0.3459 -0.2685  0.1344
46078SOL    HW144197   8.128   8.995  12.246  0.9291 -1.6115 -0.8148
46078SOL    HW244198   8.059   8.965  12.115 -1.0140 -0.3313 -0.1345
46079SOL     OW44199   3.758  11.698   4.483 -0.5762  0.1338 -0.5629
46079SOL    HW144200   3.820  11.744   4.425 -0.8144 -0.2964 -1.1735
46079SOL    HW244201   3.715  11.767   4.532 -0.0826  0.4833 -0.6121
46080SOL     OW44202   7.359   4.648   7.853 -0.8040 -0.3796  0.2532
46080SOL    HW144203   7.399   4.652   7.766 -1.1494  0.4252  0.1197
46080SOL    HW244204   7.407   4.579   7.899 -0.2222 -0.3997 -0.3766
46081SOL     OW44205   9.104   6.443   5.256 -0.0765 -0.4627  0.4785
46081SOL    HW144206   9.025   6.399   5.287 -1.3506  1.9071  0.7804
46081SOL    HW244207   9.102   6.529   5.297  1.2782  0.6542 -1.6166
46082SOL     OW44208   2.941   6.587   6.295  0.8058 -0.4937  0.4544
46082SOL    HW144209   2.990   6.558   6.373  0.3178  0.5848  1.1998
46082SOL    HW244210   2.986   6.546   6.222  1.8868 -0.7744  1.2400
46083SOL     OW44211   8.439   7.655   2.216  0.1658  0.1602  0.1748
46083SOL    HW144212   8.519   7.662   2.164  0.4911  0.1552  0.6678
46083SOL    HW244213   8.401   7.742   2.213 -0.5421 -0.1697 -1.2059
46084SOL     OW44214   3.492   7.273   6.867 -0.1331 -0.5935  0.3618
46084SOL    HW144215   3.584   7.280   6.840 -0.3636 -0.8291 -0.5029
46084SOL    HW244216   3.446   7.241   6.790 -1.1820  0.8338  0.3426
46085SOL     OW44217   6.697   1.254   2.536  0.0254  0.2032 -0.2368
46085SOL    HW144218   6.627   1.208   2.489  0.3300 -0.4058 -0.1020
46085SOL    HW244219   6.651   1.309   2.600 -0.4136  1.2652 -1.4128
46086SOL     OW44220   4.994   3.699   9.270 -0.1863 -0.0655  0.3482
46086SOL    HW144221   5.040   3.633   9.322  0.0650 -0.8821 -0.8514
46086SOL    HW244222   5.038   3.781   9.291  1.7253 -0.7689 -0.5458
46087SOL     OW44223   1.296  11.885   8.218  0.4857  0.2244 -0.0248
46087SOL    HW144224   1.301  11.791   8.236 -0.2499  0.4959  1.8238
46087SOL    HW244225   1.254  11.922   8.296  0.3845  2.0397 -0.8959
46088SOL     OW44226  10.981   8.872  10.032 -0.3097 -0.1109  0.3196
46088SOL    HW144227  11.036   8.802   9.997 -0.2491  0.4587 -0.7690
46088SOL    HW244228  10.939   8.834  10.109  0.7648 -0.9084  0.5332
46089SOL     OW44229   0.796  11.416   3.718  0.8514  0.1441  0.1177
46089SOL    HW144230   0.792  11.493   3.774 -1.3384  0.0746  0.1525
46089SOL    HW244231   0.836  11.348   3.773  2.4382  1.0964  0.2131
46090SOL     OW44232   4.858   2.967   9.896 -0.2228  0.2014 -0.3254
46090SOL    HW144233   4.847   2.880   9.859 -1.2851 -0.0004  0.4401
46090SOL    HW244234   4.949   2.969   9.926 -0.3332 -0.8308  0.1126
46091SOL     OW44235  11.247   0.406   0.506 -0.1638  0.2787  0.6018
46091SOL    HW144236  11.333   0.435   0.537 -0.1887 -0.2859  1.2147
46091SOL    HW244237  11.214   0.350   0.576 -0.0576 -1.3413 -0.5990
46092SOL     OW44238   1.721   9.383   1.673 -0.2569  0.6020  0.0870
46092SOL    HW144239   1.807   9.417   1.648 -0.7580  0.7253 -1.6059
46092SOL    HW244240   1.670   9.386   1.592 -1.4987 -0.5773  0.7859
46093SOL     OW44241   7.426   0.350   8.901 -0.3227 -0.0850 -0.0503
46093SOL    HW144242   7.353   0.289   8.896 -0.2772 -0.0604 -1.2559
46093SOL    HW244243   7.501   0.296   8.927 -0.5942 -0.2500  0.4056
46094SOL     OW44244  11.612   8.574   0.304 -0.3110  0.0119 -0.5054
46094SOL    HW144245  11.532   8.578   0.357 -0.2885 -0.5709 -0.4179
46094SOL    HW244246  11.601   8.643   0.238 -0.7269  0.1661 -0.2753
46095SOL     OW44247   0.588   1.650   2.121 -0.8814 -0.3106  0.1430
46095SOL    HW144248   0.616   1.579   2.063 -1.4663 -0.0777 -0.4470
46095SOL    HW244249   0.666   1.704   2.132 -0.7159 -0.4579 -0.2830
46096SOL     OW44250   4.612   0.186   0.202 -0.3726 -0.9337 -0.0126
46096SOL    HW144251   4.639   0.114   0.259 -0.4282  0.2569  1.6038
46096SOL    HW244252   4.526   0.159   0.168 -0.6511 -1.4016  1.0197
46097SOL     OW44253   2.743   5.120  11.715  0.6807 -0.4654 -0.0558
46097SOL    HW144254   2.744   5.139  11.621  0.5327 -1.3821 -0.2601
46097SOL    HW244255   2.835   5.124  11.741  0.7104 -0.0961 -0.2156
46098SOL     OW44256  10.194   1.963   5.844  0.1999 -0.3156  0.5175
46098SOL    HW144257  10.281   1.982   5.810 -0.3058  1.5055  0.1049
46098SOL    HW244258  10.141   1.945   5.766  0.0576 -0.7836  0.7173
46099SOL     OW44259   0.384   2.454   5.516 -0.1623  0.3525 -0.0054
46099SOL    HW144260   0.337   2.433   5.435  4.0822 -1.8739 -2.2668
46099SOL    HW244261   0.383   2.371   5.565  0.7539  0.4512  0.1937
46100SOL     OW44262   2.960  11.808   1.578  0.1167 -0.3558 -0.7215
46100SOL    HW144263   2.948  11.739   1.512  1.9600 -0.7526 -0.7094
46100SOL    HW244264   2.874  11.820   1.616 -0.6924 -1.1639 -2.1895
46101SOL     OW44265   4.284   3.367   6.503 -0.3829  0.0837 -0.5444
46101SOL    HW144266   4.284   3.402   6.592  1.1518  1.5095 -1.0594
46101SOL    HW244267   4.315   3.277   6.514 -3.2118 -0.8502  0.6620
46102SOL     OW44268   7.140   4.549   1.340 -0.3757  0.4174 -0.4551
46102SOL    HW144269   7.069   4.538   1.403 -0.7479  2.9765 -0.3346
46102SOL    HW244270   7.134   4.472   1.283 -3.8311  0.9243 -0.9906
46103SOL     OW44271  10.239   8.332   3.841 -0.1198 -0.6672  0.1768
46103SOL    HW144272  10.310   8.376   3.794 -0.2494 -1.0082 -0.3481
46103SOL    HW244273  10.269   8.328   3.932 -0.7118  1.8137  0.5559
46104SOL     OW44274   0.901   6.324   1.766 -0.4894 -0.0590  0.2430
46104SOL    HW144275   0.884   6.287   1.853 -0.7470  0.0393  0.2346
46104SOL    HW244276   0.852   6.407   1.765  0.6497  0.6377  0.5252
46105SOL     OW44277   1.209  10.589   3.461 -0.4858 -0.1188 -0.0438
46105SOL    HW144278   1.160  10.508   3.443  0.8667 -1.1065  0.6092
46105SOL    HW244279   1.155  10.635   3.525  0.1162 -1.9346  1.8819
46106SOL     OW44280   6.407  10.468   1.470  0.6902  0.6788  0.2025
46106SOL    HW144281   6.430  10.425   1.553  0.4836  0.5069  0.1725
46106SOL    HW244282   6.486  10.460   1.416  0.7060  0.4701  0.2544
46107SOL     OW44283   4.985   4.293   3.039  0.0206  0.1466  0.0701
46107SOL    HW144284   5.064   4.346   3.029  0.5560 -0.6766 -0.1184
46107SOL    HW244285   4.924   4.328   2.973  0.7524 -0.1620 -0.7924
46108SOL     OW44286   0.693   6.003  12.432  0.6601  0.1744 -0.3770
46108SOL    HW144287   0.637   5.950  12.375 -1.7522  0.2992  1.7117
46108SOL    HW244288   0.670   6.094  12.411  0.7299  0.2564 -0.1057
46109SOL     OW44289   2.175   2.361  12.004  0.1064  0.3269  0.1517
46109SOL    HW144290   2.228   2.416  11.948 -0.1550 -1.0104 -1.4868
46109SOL    HW244291   2.212   2.273  11.994 -1.4443 -0.3570  0.1841
46110SOL     OW44292   5.309   2.390   1.289  0.0644 -0.1989 -0.2266
46110SOL    HW144293   5.399   2.388   1.255 -0.2116  0.6228 -1.0469
46110SOL    HW244294   5.296   2.303   1.327  0.1647 -1.4900 -2.8745
46111SOL     OW44295   8.339   6.497   3.125  0.0826  0.2915 -0.6731
46111SOL    HW144296   8.372   6.550   3.197  0.3745 -0.4396 -0.2601
46111SOL    HW244297   8.360   6.548   3.047  2.4513 -0.2297 -0.4647
46112SOL     OW44298   0.361   0.703   4.714  0.0886  0.0482  0.3007
46112SOL    HW144299   0.376   0.755   4.634  0.3858 -0.1486  0.2262
46112SOL    HW244300   0.364   0.612   4.684 -3.1897 -0.0738 -0.0930
46113SOL     OW44301   3.587   9.402  10.059 -0.5619  0.6353 -0.3763
46113SOL    HW144302   3.651   9.451  10.008  0.7599  0.0186  0.6221
46113SOL    HW244303   3.585   9.447  10.144 -1.2123  0.4584 -0.2988
46114SOL     OW44304   5.440  10.889   3.656 -0.3682 -0.1350  0.2985
46114SOL    HW144305   5.446  10.795   3.674 -1.3298  0.0145  1.4768
46114SOL    HW244306   5.347  10.908   3.657 -0.1475  0.9904  0.9296
46115SOL     OW44307  10.846  11.121   5.910  0.1271 -0.4044 -0.3783
46115SOL    HW144308  10.931  11.137   5.868  0.5858 -0.0774  0.6449
46115SOL    HW244309  10.860  11.044   5.964 -0.6041 -1.1305 -1.1994
46116SOL     OW44310   6.729   5.386   2.321  0.0350 -0.1414 -0.1217
46116SOL    HW144311   6.709   5.479   2.324  0.6817 -0.0199  0.7980
46116SOL    HW244312   6.783   5.375   2.243 -0.3027  0.1871 -0.4062
46117SOL     OW44313   0.974   0.420   6.014 -0.0078 -0.0782  0.2717
46117SOL    HW144314   0.918   0.351   5.978  0.1056 -0.2364  0.3954
46117SOL    HW244315   1.007   0.467   5.938 -2.1727  1.5181  0.2218
46118SOL     OW44316  10.230   8.580   1.236 -0.0496  0.3319  0.7503
46118SOL    HW144317  10.219   8.496   1.282 -0.6906 -0.1475 -0.2353
46118SOL    HW244318  10.305   8.620   1.278 -1.2853  0.4627  3.0142
46119SOL     OW44319   5.492  10.598   9.131  0.0531 -0.6399  0.3723
46119SOL    HW144320   5.522  10.589   9.222 -0.6542  0.9471  0.8121
46119SOL    HW244321   5.558  10.553   9.079  2.3175  1.2447  1.4354
46120SOL     OW44322   5.977   1.047  10.001  0.1879 -0.7168  0.2795
46120SOL    HW144323   5.915   0.975   9.987 -1.3439  0.8424 -1.6256
46120SOL    HW244324   5.976   1.096   9.919 -0.4117  2.6422  2.0928
46121SOL     OW44325   3.763   6.686  10.583  0.2953 -0.0429 -0.1183
46121SOL    HW144326   3.706   6.613  10.608  0.3199  0.3051  1.0069
46121SOL    HW244327   3.737   6.708  10.494  0.1258 -1.2712 -0.3947
46122SOL     OW44328   9.786   5.475   6.095 -0.2079 -0.7100 -0.4687
46122SOL    HW144329   9.850   5.451   6.028  0.1002 -0.9831 -0.0812
46122SOL    HW244330   9.730   5.540   6.052  1.5001  1.0069 -0.2453
46123SOL     OW44331   0.839   5.255   6.209 -0.0386 -1.0959  0.6027
46123SOL    HW144332   0.776   5.296   6.268  0.7422 -0.8326  1.2698
46123SOL    HW244333   0.807   5.166   6.198 -0.7875 -0.8268  0.5537
46124SOL     OW44334   7.463   1.028  11.192 -0.0709 -0.3379 -0.0443
46124SOL    HW144335   7.554   1.020  11.221  0.1074  0.3381 -0.3916
46124SOL    HW244336   7.429   0.938  11.195  0.1275 -0.3823  1.6106
46125SOL     OW44337   2.959   0.074   3.079  0.4152  0.3394 -0.0970
46125SOL    HW144338   2.961  -0.012   3.035  1.5607  0.6171 -0.6159
46125SOL    HW244339   2.873   0.077   3.120 -0.8542  0.1505 -2.5290
46126SOL     OW44340   1.759   6.016   6.985  0.0065  0.3789 -0.5177
46126SOL    HW144341   1.776   6.107   6.960 -0.9762  0.6963 -0.0683
46126SOL    HW244342   1.765   5.967   6.903  1.0894  0.7527 -0.6805
46127SOL     OW44343  11.516   5.944  12.261  0.2171  0.2378 -0.3419
46127SOL    HW144344  11.548   5.906  12.179  0.5014  0.4842 -0.3461
46127SOL    HW244345  11.480   6.029  12.236 -2.1413 -0.7732 -0.6411
46128SOL     OW44346  10.544   1.622  10.976  0.2854 -0.4690 -0.3048
46128SOL    HW144347  10.500   1.537  10.962  0.8401 -0.5168 -1.9356
46128SOL    HW244348  10.537   1.637  11.070 -1.9161 -1.1898 -0.2947
46129SOL     OW44349   8.037  12.001   3.481 -0.2454  0.2388 -0.1224
46129SOL    HW144350   8.052  11.910   3.454  0.4497  0.8216 -1.8165
46129SOL    HW244351   7.942  12.007   3.491 -0.2139 -1.0116  1.4419
46130SOL     OW44352   8.763   9.899   0.471 -0.1250  0.3417  0.4887
46130SOL    HW144353   8.775   9.881   0.378 -0.5172  0.8350  0.3388
46130SOL    HW244354   8.846   9.874   0.512  0.8461  2.1463 -0.2877
46131SOL     OW44355   7.947   3.908   0.535  0.2934 -0.7915 -0.6123
46131SOL    HW144356   7.932   3.923   0.442  1.8563  0.6383 -0.6834
46131SOL    HW244357   7.974   3.816   0.541  0.9872 -0.6644 -1.6834
46132SOL     OW44358  10.222   2.818   8.408 -0.4937  0.0492  0.4135
46132SOL    HW144359  10.277   2.812   8.330  1.1629 -0.0294  1.5141
46132SOL    HW244360  10.171   2.737   8.408  0.9992 -0.9357  0.4532
46133SOL     OW44361  11.629   6.377   4.086 -0.1254 -0.5980  0.5886
46133SOL    HW144362  11.673   6.293   4.074  1.2406  0.1854 -0.1235
46133SOL    HW244363  11.610   6.407   3.998 -1.1822 -0.4260  0.8588
46134SOL     OW44364   6.099   3.652   7.545  0.1090  0.3897  0.6603
46134SOL    HW144365   6.067   3.737   7.576 -1.2498  0.1822 -0.0898
46134SOL    HW244366   6.032   3.622   7.484  2.1434  0.2470 -1.6263
46135SOL     OW44367   9.082   8.300   7.170  0.0473  0.6998  0.1913
46135SOL    HW144368   9.143   8.355   7.220 -0.1717 -0.0676  1.3493
46135SOL    HW244369   9.007   8.288   7.229 -1.2989  1.7130 -1.2330
46136SOL     OW44370   4.561   4.864   3.746  0.2719 -0.0411 -0.3787
46136SOL    HW144371   4.498   4.845   3.676  1.8684  0.2036 -1.9616
46136SOL    HW244372   4.517   4.836   3.826 -2.6687  2.0042 -1.1269
46137SOL     OW44373   7.697   5.964   6.453 -0.3090 -0.0242  0.3241
46137SOL    HW144374   7.759   5.925   6.392  0.7055  1.0044  0.6628
46137SOL    HW244375   7.750   5.991   6.528 -1.3155  0.0021  1.0575
46138SOL     OW44376  10.758   9.325   1.947 -0.4271 -0.1375 -0.7250
46138SOL    HW144377  10.691   9.287   1.892  1.3707 -0.9618 -2.4487
46138SOL    HW244378  10.812   9.377   1.888 -0.0039  1.2002  0.7469
46139SOL     OW44379   4.094   2.257   7.756 -0.2908  0.5877  0.4971
46139SOL    HW144380   4.108   2.278   7.664 -0.1979 -1.6834 -0.0850
46139SOL    HW244381   4.087   2.161   7.758 -2.7960  0.7081  2.5176
46140SOL     OW44382  10.614   8.378   6.028  0.2472 -0.6168 -0.0987
46140SOL    HW144383  10.581   8.420   5.949  0.0496  0.2982  0.4566
46140SOL    HW244384  10.709   8.381   6.019  0.2508  0.4383  0.1669
46141SOL     OW44385   6.175   9.756   6.346 -0.7309  0.1753 -0.2958
46141SOL    HW144386   6.216   9.772   6.432  0.7111 -0.0576 -0.9009
46141SOL    HW244387   6.211   9.826   6.291  0.1206 -0.9717 -1.2389
46142SOL     OW44388   0.875  10.627   3.428  0.7124 -0.1152  0.3488
46142SOL    HW144389   0.845  10.546   3.385  3.3559 -1.0200  0.0219
46142SOL    HW244390   0.928  10.671   3.362  1.7749  0.3653  1.4787
46143SOL     OW44391   9.620   5.636   4.877 -0.3847 -0.3261 -0.1505
46143SOL    HW144392   9.581   5.592   4.953 -0.3224  0.2929  0.2439
46143SOL    HW244393   9.573   5.598   4.802  0.0602 -1.4812  0.1265
46144SOL     OW44394   5.630   3.561  11.758  0.1890  0.7536 -0.4345
46144SOL    HW144395   5.544   3.600  11.742  0.2789  0.4340 -1.8013
46144SOL    HW244396   5.674   3.562  11.673  1.4225  0.6085  0.1712
46145SOL     OW44397   8.249   1.206  12.098 -0.2305 -1.1567 -0.6475
46145SOL    HW144398   8.158   1.189  12.120 -0.3344 -0.7656 -0.7704
46145SOL    HW244399   8.272   1.285  12.146 -0.2375 -0.7223 -1.3454
46146SOL     OW44400  12.421   5.209   5.891 -0.1325 -0.7096  0.0512
46146SOL    HW144401  12.469   5.193   5.972  1.2684 -0.1077 -0.6192
46146SOL    HW244402  12.448   5.138   5.832  0.5739  0.0560 -0.5825
46147SOL     OW44403   1.876   0.092   0.659 -0.2813 -0.0103 -0.0879
46147SOL    HW144404   1.915   0.012   0.626 -0.4873  0.5867 -1.8553
46147SOL    HW244405   1.931   0.162   0.625 -1.0635  0.6833  0.0409
46148SOL     OW44406  12.276   7.329   6.275  0.7702 -0.5177  0.1417
46148SOL    HW144407  12.240   7.290   6.196  0.5755  0.1544 -0.1089
46148SOL    HW244408  12.206   7.387   6.307  1.9623  1.6116 -0.9229
46149SOL     OW44409   0.271   6.450   6.018  0.0774 -0.3963 -0.3326
46149SOL    HW144410   0.262   6.540   6.050 -0.5954 -1.0162  1.3396
46149SOL    HW244411   0.236   6.396   6.089 -0.6246 -1.9326 -1.7803
46150SOL     OW44412   2.765   2.853   4.856  0.0211  0.2887  0.0734
46150SOL    HW144413   2.783   2.937   4.813  1.2139  0.6632  1.2351
46150SOL    HW244414   2.739   2.877   4.945 -1.1105 -0.5331 -0.0033
46151SOL     OW44415  12.092   4.150   2.263  0.1041 -0.2903  0.1337
46151SOL    HW144416  12.000   4.174   2.275  0.2373 -0.2962  1.2111
46151SOL    HW244417  12.092   4.054   2.268  0.0350 -0.3679 -0.9481
46152SOL     OW44418   4.322   0.911   1.561  0.1476  0.4339  0.2571
46152SOL    HW144419   4.381   0.895   1.635 -0.4963  0.0810  0.7044
46152SOL    HW244420   4.359   0.988   1.518  0.5606  0.6151  0.9157
46153SOL     OW44421   9.805   7.047   5.457  0.0076 -0.4566 -0.2953
46153SOL    HW144422   9.888   7.034   5.503  1.1135 -0.7706 -2.2250
46153SOL    HW244423   9.828   7.034   5.364 -2.2919 -0.9827 -0.8502
46154SOL     OW44424   5.254  11.510  10.826 -0.6304 -0.1752  0.3949
46154SOL    HW144425   5.233  11.603  10.818  0.0746  0.0326  0.9014
46154SOL    HW244426   5.311  11.504  10.902 -0.0482 -0.9222 -0.0878
46155SOL     OW44427  11.072  12.188  11.139 -0.0370 -0.9192 -0.0633
46155SOL    HW144428  11.149  12.149  11.181  0.9531 -0.9971 -1.8303
46155SOL    HW244429  11.101  12.277  11.116 -1.8520  0.5528  2.8119
46156SOL     OW44430  11.838   0.232  11.542 -0.3312 -0.1025  0.2834
46156SOL    HW144431  11.901   0.300  11.517 -0.2028 -0.1952  0.3525
46156SOL    HW244432  11.755   0.261  11.504  0.1106 -0.9069 -1.4345
46157SOL     OW44433   5.523   3.521   7.344  0.5240 -0.0284 -0.4112
46157SOL    HW144434   5.573   3.599   7.319  0.5682 -0.4291 -1.6661
46157SOL    HW244435   5.557   3.496   7.429 -1.2323  2.7948  1.2660
46158SOL     OW44436   2.079   9.584   8.089  0.0454  0.2232 -0.2011
46158SOL    HW144437   2.021   9.535   8.147 -0.0781  1.0634  0.4062
46158SOL    HW244438   2.044   9.570   8.001  0.2778 -1.1273 -0.1067
46159SOL     OW44439  10.822   9.816   7.487  0.1722  0.2083  0.5892
46159SOL    HW144440  10.812   9.884   7.420  2.8220  0.7602  0.6316
46159SOL    HW244441  10.752   9.754   7.468 -0.4173  1.3646 -1.4258
46160SOL     OW44442  12.231   6.271   0.423 -0.6333  0.9345 -0.1355
46160SOL    HW144443  12.276   6.233   0.499  1.8552  0.8223 -1.5719
46160SOL    HW244444  12.138   6.250   0.438 -0.0717 -0.2947  2.1572
46161SOL     OW44445   6.610   0.964   2.838 -0.3114  0.1196  0.3847
46161SOL    HW144446   6.650   1.001   2.759  1.5722 -0.9866  0.7536
46161SOL    HW244447   6.519   0.995   2.836  0.6379  3.2564 -0.2222
46162SOL     OW44448   1.056  11.560  12.327 -0.4893  0.0537  0.2077
46162SOL    HW144449   1.089  11.521  12.247 -1.7943  1.3816 -1.0313
46162SOL    HW244450   1.134  11.593  12.372  0.1456  0.4813 -1.1715
46163SOL     OW44451   2.411  12.386   8.567 -0.1841  0.3893  0.4041
46163SOL    HW144452   2.416  12.371   8.661 -0.8403 -0.5421  0.3039
46163SOL    HW244453   2.451  12.308   8.528 -0.6535  0.3881 -0.0965
46164SOL     OW44454   7.419   4.014  10.501 -0.3978  0.6773 -1.1771
46164SOL    HW144455   7.377   3.969  10.574  1.0119  1.2235  0.0115
46164SOL    HW244456   7.347   4.050  10.450 -1.4528 -0.8128 -0.7805
46165SOL     OW44457   8.407   2.383   7.249 -0.0352  0.0893 -0.3826
46165SOL    HW144458   8.334   2.422   7.201 -0.3351  0.8098  0.6275
46165SOL    HW244459   8.463   2.458   7.271  1.1730 -0.4792 -1.3958
46166SOL     OW44460   0.592   0.913  10.970 -0.1998 -0.2338  0.0646
46166SOL    HW144461   0.680   0.877  10.979 -0.1528  0.2009  1.6784
46166SOL    HW244462   0.557   0.873  10.890  1.4824 -0.3303 -0.6527
46167SOL     OW44463   4.820   5.878   8.889 -0.5078  0.4052 -0.5067
46167SOL    HW144464   4.746   5.901   8.944  0.4456  0.7286  0.6759
46167SOL    HW244465   4.861   5.803   8.933 -0.3341 -0.0040 -1.3390
46168SOL     OW44466  10.348  11.065   6.391 -0.3120 -0.1757  0.1198
46168SOL    HW144467  10.255  11.077   6.407 -0.2284  0.0520  0.4574
46168SOL    HW244468  10.367  11.117   6.313 -0.0352  1.6025  1.3194
46169SOL     OW44469   7.879   2.793   9.122 -0.5070 -0.3175  0.5870
46169SOL    HW144470   7.834   2.717   9.159 -0.0149 -0.5336  0.7409
46169SOL    HW244471   7.808   2.855   9.102 -0.9191 -0.8341  0.4083
46170SOL     OW44472   5.447   3.800   8.861  0.6435  0.6643 -0.4256
46170SOL    HW144473   5.396   3.843   8.929 -0.3308 -0.0772 -0.6529
46170SOL    HW244474   5.419   3.842   8.779  0.5852  0.4347 -0.5259
46171SOL     OW44475  11.222   9.951   2.508 -0.2029  0.7640 -0.4340
46171SOL    HW144476  11.130   9.937   2.485 -0.5115  1.8513  0.0438
46171SOL    HW244477  11.264   9.866   2.497 -1.5342 -0.0501  0.5282
46172SOL     OW44478   7.950   5.857   0.037  0.3570 -0.3296  0.6136
46172SOL    HW144479   7.961   5.817   0.123 -1.8140  1.0589  1.5838
46172SOL    HW244480   7.947   5.951   0.053  0.7305  0.0151 -1.0989
46173SOL     OW44481   8.267   7.207   2.855  0.3272  0.4216  0.4680
46173SOL    HW144482   8.326   7.236   2.785 -1.8926  0.8445 -1.3683
46173SOL    HW244483   8.268   7.111   2.848  1.4129  0.3717  1.0508
46174SOL     OW44484   5.748   8.621   0.972  0.1433  0.0214 -0.0725
46174SOL    HW144485   5.733   8.714   0.989  0.1707 -0.1656  1.0576
46174SOL    HW244486   5.670   8.577   1.007 -0.3550 -0.3092 -1.5574
46175SOL     OW44487   3.543   1.641  12.163  0.3331  0.2760  0.0166
46175SOL    HW144488   3.600   1.681  12.228 -0.5700  0.5775  0.6379
46175SOL    HW244489   3.486   1.583  12.213 -1.3542  1.5960 -0.2775
46176SOL     OW44490   7.597   0.541   9.022 -0.3116  0.2734 -0.3140
46176SOL    HW144491   7.584   0.633   8.999 -0.2077 -0.1308 -2.1548
46176SOL    HW244492   7.536   0.494   8.965 -0.6711 -0.7833  0.9081
46177SOL     OW44493   2.710  12.098  10.081  0.8351  0.3346  0.2190
46177SOL    HW144494   2.651  12.023  10.085 -2.7551  2.9268  0.1675
46177SOL    HW244495   2.741  12.109  10.171  0.9705 -0.8178  0.3338
46178SOL     OW44496   8.201   8.646   2.826  0.3884  0.5035  0.1094
46178SOL    HW144497   8.272   8.703   2.797 -0.7149  2.1163  0.4347
46178SOL    HW244498   8.127   8.705   2.838 -1.0799 -1.1665 -0.4371
46179SOL     OW44499   4.179   2.674   8.380  0.2108  0.1177  0.0360
46179SOL    HW144500   4.226   2.603   8.425  0.4482  0.3788  0.1999
46179SOL    HW244501   4.218   2.677   8.293 -0.4359 -0.5724 -0.2980
46180SOL     OW44502   0.184   7.749  10.888 -0.5244 -0.3806  0.4380
46180SOL    HW144503   0.232   7.814  10.836  0.8199 -1.0406  0.8151
46180SOL    HW244504   0.122   7.801  10.939 -0.1427  0.5114  0.0256
46181SOL     OW44505  10.902   6.733  11.559  0.0065 -0.8503 -0.6929
46181SOL    HW144506  10.821   6.684  11.573 -1.6811  0.6047 -4.3239
46181SOL    HW244507  10.964   6.668  11.526 -0.3721 -1.5488 -0.0537
46182SOL     OW44508   8.963   2.083   5.481  0.1726 -0.4185 -0.8058
46182SOL    HW144509   8.870   2.105   5.489  0.0569 -1.3416  1.2061
46182SOL    HW244510   9.005   2.128   5.554  1.4580  0.5564 -2.0969
46183SOL     OW44511   0.663   5.430   0.211  0.0510  0.9488 -0.0873
46183SOL    HW144512   0.594   5.475   0.260 -0.1588 -0.7069  1.1952
46183SOL    HW244513   0.682   5.351   0.261 -0.0586 -0.7888 -2.5719
46184SOL     OW44514   2.589   4.178  11.932 -0.1026 -0.5117  0.0657
46184SOL    HW144515   2.644   4.145  11.861 -1.2211 -1.9208 -0.1996
46184SOL    HW244516   2.651   4.203  12.001  0.9205 -0.7657 -0.7351
46185SOL     OW44517  10.270   3.727   8.794 -0.1729  0.1755  0.2349
46185SOL    HW144518  10.206   3.786   8.835  0.1238 -0.6182  1.9529
46185SOL    HW244519  10.222   3.646   8.777 -0.1969  0.3728 -0.6996
46186SOL     OW44520   3.451   1.332  10.186  0.2616  0.1736  0.0026
46186SOL    HW144521   3.402   1.392  10.242  0.0728 -1.5116  1.7435
46186SOL    HW244522   3.482   1.387  10.114 -2.3396  1.7537 -0.0600
46187SOL     OW44523   6.667   2.497   7.553 -0.0074  0.1190 -0.4473
46187SOL    HW144524   6.674   2.404   7.574  1.4313  0.4153  0.5157
46187SOL    HW244525   6.728   2.509   7.480  0.1948  0.4040 -0.2297
46188SOL     OW44526   1.946   0.634   7.095  0.0684 -1.6772 -0.2242
46188SOL    HW144527   1.940   0.679   7.010  1.5087 -0.7925  0.1085
46188SOL    HW244528   1.916   0.545   7.077 -0.8429 -1.1659 -1.3744
46189SOL     OW44529  12.183  12.341  10.376 -0.2606  0.0889  0.5463
46189SOL    HW144530  12.126  12.412  10.347 -0.0734  0.1688  0.3784
46189SOL    HW244531  12.160  12.268  10.318 -1.3332 -0.3690  1.5121
46190SOL     OW44532   5.813   1.519   2.269 -0.4847 -0.1361  0.3889
46190SOL    HW144533   5.856   1.461   2.332  3.1024  2.1051  0.2568
46190SOL    HW244534   5.764   1.581   2.323  1.5737  1.0199  1.0364
46191SOL     OW44535   2.906  10.058  10.124 -0.0866  0.6151  0.0153
46191SOL    HW144536   2.939  10.113  10.053  0.0061 -0.0447 -0.4589
46191SOL    HW244537   2.944  10.095  10.203  0.6527  0.7192 -0.3879
46192SOL     OW44538  10.756   0.556   0.743  0.0034  0.1859 -0.0833
46192SOL    HW144539  10.817   0.629   0.750 -0.6440  0.6499  0.9378
46192SOL    HW244540  10.776   0.516   0.658  1.3776  0.6234  0.0027
46193SOL     OW44541  10.150   6.251   3.127 -0.1341  0.2622 -0.1353
46193SOL    HW144542  10.174   6.302   3.205  2.3495 -1.5196  0.3894
46193SOL    HW244543  10.066   6.212   3.149  0.2279  0.2709  1.4491
46194SOL     OW44544  11.360   1.948   9.066 -0.1948 -0.0697  0.3156
46194SOL    HW144545  11.305   2.004   9.120  1.1256  0.5358  1.0899
46194SOL    HW244546  11.373   1.998   8.985 -1.0098 -0.3585 -0.0088
46195SOL     OW44547   0.651   7.813   0.862 -0.1836 -0.0036  0.3598
46195SOL    HW144548   0.697   7.867   0.798  0.9182 -1.0147  0.2585
46195SOL    HW244549   0.642   7.868   0.939  2.3466 -0.1527  0.8294
46196SOL     OW44550   2.418  12.044   3.548 -0.0571  0.5876 -0.3827
46196SOL    HW144551   2.428  11.960   3.593  1.2817  1.3348  0.8007
46196SOL    HW244552   2.402  12.020   3.457  1.7610 -0.9838 -0.3632
46197SOL     OW44553   7.435   5.800   9.098 -0.0565  0.3906 -0.1632
46197SOL    HW144554   7.398   5.788   9.010  1.6072 -1.1334 -0.7272
46197SOL    HW244555   7.466   5.891   9.099 -2.9750  1.4731  0.0774
46198SOL     OW44556   1.222   1.840   8.669 -0.2698 -0.0218  0.4044
46198SOL    HW144557   1.172   1.766   8.702 -0.4018  1.3679  3.7456
46198SOL    HW244558   1.310   1.827   8.704 -0.0232  0.8464  0.1307
46199SOL     OW44559   4.305   5.618   0.875 -0.0430  0.1406 -0.2597
46199SOL    HW144560   4.351   5.689   0.919  0.6021 -0.0158 -0.6573
46199SOL    HW244561   4.214   5.648   0.868  0.4164  1.3886 -1.3576
46200SOL     OW44562   2.282   1.619   8.583  0.0246 -0.5328 -0.1432
46200SOL    HW144563   2.228   1.615   8.504 -1.1867  0.3022  0.6148
46200SOL    HW244564   2.355   1.676   8.559 -1.8885  2.2612  0.1586
46201SOL     OW44565   6.748   0.602  10.242 -0.4931  0.3606 -0.4906
46201SOL    HW144566   6.782   0.568  10.325 -1.2533  0.1958 -0.2359
46201SOL    HW244567   6.653   0.609  10.257 -0.5577  0.9079 -1.1400
46202SOL     OW44568   5.630   0.142   3.979 -0.0690  0.0624  0.1194
46202SOL    HW144569   5.672   0.070   3.931  3.4291 -0.9583  4.0892
46202SOL    HW244570   5.651   0.220   3.929  0.5471 -1.1729 -1.6490
46203SOL     OW44571   9.697   1.766   1.429 -0.3470  0.1044 -0.0394
46203SOL    HW144572   9.780   1.789   1.385 -0.6197 -0.7667 -1.0537
46203SOL    HW244573   9.710   1.677   1.461 -1.4054 -0.6867 -1.6413
46204SOL     OW44574   0.402   7.333   3.514 -0.1774 -0.1567 -0.2378
46204SOL    HW144575   0.465   7.302   3.449  1.3437  1.2036  0.5125
46204SOL    HW244576   0.433   7.298   3.597  1.7727  3.3129  0.6842
46205SOL     OW44577   3.636   5.118   2.042 -0.0670  0.1405  0.2565
46205SOL    HW144578   3.686   5.132   2.123  2.7281 -0.8279 -1.1602
46205SOL    HW244579   3.622   5.206   2.007 -1.5217  0.5844  1.8561
46206SOL     OW44580   3.908   4.548   0.680 -0.1071 -0.5070  0.5556
46206SOL    HW144581   3.945   4.577   0.763 -1.0104 -0.8274  1.0833
46206SOL    HW244582   3.836   4.609   0.663  0.5784  0.0765 -0.4350
46207SOL     OW44583   0.007   4.497   9.629  0.0154  0.0503  0.2699
46207SOL    HW144584   0.014   4.441   9.706 -0.3133  1.0129  1.0249
46207SOL    HW244585   0.083   4.555   9.635 -1.1532  1.5636  1.0854
46208SOL     OW44586   6.751   1.848   3.286 -0.6888  0.1289 -0.2657
46208SOL    HW144587   6.780   1.843   3.194 -0.5180  2.0424 -0.3581
46208SOL    HW244588   6.821   1.896   3.330 -1.7209  1.0351  0.4185
46209SOL     OW44589  10.518   4.329   9.134  0.1248 -0.5079  0.0423
46209SOL    HW144590  10.547   4.331   9.043  2.9408 -1.0216  0.8412
46209SOL    HW244591  10.496   4.420   9.155  0.1095 -0.2783 -0.9338
46210SOL     OW44592   7.759   5.903   4.012 -0.0018 -0.3277 -0.0257
46210SOL    HW144593   7.830   5.959   3.978  0.0344 -0.1652  0.3076
46210SOL    HW244594   7.706   5.963   4.064 -1.1584 -0.1477 -1.3655
46211SOL     OW44595  12.142   8.963   8.160  0.1681 -0.6557 -0.3940
46211SOL    HW144596  12.096   9.023   8.219  1.1892 -0.5169  0.2940
46211SOL    HW244597  12.102   8.978   8.075 -1.2254 -0.7241  0.2119
46212SOL     OW44598   6.997   3.179   8.232  0.3998 -0.1233 -0.8835
46212SOL    HW144599   6.911   3.154   8.266  0.2121  0.0498 -1.2301
46212SOL    HW244600   7.048   3.098   8.236  0.3882 -0.1004 -0.1734
46213SOL     OW44601   4.039  11.775   7.163  0.1937  0.1458 -0.6096
46213SOL    HW144602   4.091  11.846   7.203 -0.2008  1.2328 -1.9417
46213SOL    HW244603   4.032  11.800   7.071 -3.0988  0.3022 -0.4172
46214SOL     OW44604   4.161   3.456   4.612  0.1013  0.4266 -0.3641
46214SOL    HW144605   4.149   3.467   4.707  0.7321  1.0046 -0.3455
46214SOL    HW244606   4.244   3.410   4.604  0.2911  0.8157 -0.6492
46215SOL     OW44607   9.011  10.639   4.781 -0.0681  0.0571 -0.6032
46215SOL    HW144608   9.097  10.616   4.816 -0.2713 -1.1961 -0.8827
46215SOL    HW244609   9.026  10.720   4.732  0.4724  1.1566  1.2749
46216SOL     OW44610  10.891   0.632   4.335 -0.1686 -1.0796 -0.5893
46216SOL    HW144611  10.802   0.620   4.303 -0.4659 -1.8278  0.4979
46216SOL    HW244612  10.918   0.717   4.298 -0.9714 -1.2780 -1.6976
46217SOL     OW44613   4.618   0.178   3.049 -0.8418  0.8933  0.3791
46217SOL    HW144614   4.676   0.215   3.115  2.7092 -1.4030 -1.1724
46217SOL    HW244615   4.590   0.094   3.086  0.5894 -0.0757 -0.6254
46218SOL     OW44616  11.871   3.259   1.239 -0.2810  0.5045  0.0220
46218SOL    HW144617  11.966   3.248   1.241 -0.1737  1.3148 -0.2715
46218SOL    HW244618  11.850   3.294   1.326  0.1977  3.9405 -1.1012
46219SOL     OW44619   6.873  10.165   0.656 -0.7191 -0.2483  0.8404
46219SOL    HW144620   6.803  10.130   0.601  0.1244  0.8114 -0.9991
46219SOL    HW244621   6.829  10.228   0.713 -1.5524 -1.0489  1.1054
46220SOL     OW44622   8.500   1.230   2.002 -0.1935 -0.1424 -0.1990
46220SOL    HW144623   8.449   1.198   1.928 -0.9931  0.4228  0.1059
46220SOL    HW244624   8.436   1.247   2.070  0.1507  2.2426 -0.3821
46221SOL     OW44625   6.479   8.803  11.749  0.1797 -0.0661  0.0055
46221SOL    HW144626   6.500   8.730  11.808 -0.3469 -0.8427 -0.7346
46221SOL    HW244627   6.443   8.871  11.807 -1.3720 -1.2262  0.4979
46222SOL     OW44628   5.757   0.006   6.709  0.1282  0.3128  0.3499
46222SOL    HW144629   5.665   0.032   6.713 -0.1328 -0.6885  1.3058
46222SOL    HW244630   5.777  -0.028   6.796  1.4723  0.7038  0.2211
46223SOL     OW44631  11.571   1.417   0.910 -0.4785 -0.2874  0.4215
46223SOL    HW144632  11.644   1.460   0.864 -1.6286  0.4260 -0.8065
46223SOL    HW244633  11.586   1.439   1.002 -1.2578  3.3052 -0.1590
46224SOL     OW44634   8.262   6.803   2.770  1.0084  0.1196  0.3032
46224SOL    HW144635   8.278   6.871   2.705  1.9610 -0.8135 -0.4922
46224SOL    HW244636   8.189   6.835   2.822 -2.0322 -0.4062 -3.2098
46225SOL     OW44637   2.575  11.755  11.049  0.7764  0.4753  0.2308
46225SOL    HW144638   2.552  11.663  11.050 -0.0679  0.6714 -0.3537
46225SOL    HW244639   2.657  11.759  11.000  0.2201  0.1645 -0.7341
46226SOL     OW44640  11.153   9.736  11.144 -0.0372 -0.3460 -0.2804
46226SOL    HW144641  11.237   9.698  11.169  0.4899  1.0632  0.1783
46226SOL    HW244642  11.153   9.734  11.048  2.2032  3.0024 -0.4840
46227SOL     OW44643   2.711  11.397   7.919 -0.1613 -0.3033  0.4044
46227SOL    HW144644   2.780  11.376   7.855  1.3244  1.1826  1.4454
46227SOL    HW244645   2.672  11.478   7.886  0.7700  0.6012  1.4446
46228SOL     OW44646  10.898  11.609   3.425 -0.3929  0.3855  0.1336
46228SOL    HW144647  10.914  11.517   3.445  1.2605  0.4768 -0.6068
46228SOL    HW244648  10.904  11.653   3.510  0.6243  0.0229  0.2653
46229SOL     OW44649   2.703   6.996  10.610  0.2637  0.0221 -0.0802
46229SOL    HW144650   2.614   6.963  10.598 -0.0721  0.8521  0.0463
46229SOL    HW244651   2.698   7.088  10.584  0.5136  0.7242  2.1512
46230SOL     OW44652   6.377  12.124   4.844 -0.2698 -0.2658 -0.2501
46230SOL    HW144653   6.366  12.160   4.932 -1.9104 -2.8524  0.7579
46230SOL    HW244654   6.305  12.162   4.794  0.7285  1.2959 -0.5500
46231SOL     OW44655   9.993  11.247   8.533 -0.1041 -0.2610  0.2563
46231SOL    HW144656   9.991  11.339   8.561 -0.1578 -0.7964  2.1715
46231SOL    HW244657  10.085  11.231   8.510 -0.2130  0.4208 -0.7246
46232SOL     OW44658   8.817  10.706   3.676 -0.1215  0.5308  0.0141
46232SOL    HW144659   8.908  10.714   3.650 -0.0493  1.6725  0.5674
46232SOL    HW244660   8.768  10.710   3.594  0.3482 -0.8232 -0.3519
46233SOL     OW44661   1.201   5.880   5.162  0.1019 -0.5934  0.1133
46233SOL    HW144662   1.292   5.857   5.180  0.7489  1.9216  0.4752
46233SOL    HW244663   1.154   5.796   5.163  2.0862 -1.7794  1.6847
46234SOL     OW44664   1.178   3.964   1.121 -0.5480 -0.3581 -0.4948
46234SOL    HW144665   1.142   3.887   1.165 -0.9256 -0.8535 -1.6473
46234SOL    HW244666   1.254   3.931   1.074  0.6563  0.4236  0.8110
46235SOL     OW44667  11.264   5.028   7.895  0.1846 -0.6787  0.3070
46235SOL    HW144668  11.267   5.056   7.804  0.6252  0.5213  0.6808
46235SOL    HW244669  11.290   4.936   7.892 -2.4871 -1.5119 -1.0915
46236SOL     OW44670  10.778   2.575   5.110  0.1203  0.5394  0.1433
46236SOL    HW144671  10.701   2.608   5.156 -0.1307 -0.6871  0.6326
46236SOL    HW244672  10.760   2.483   5.094  0.4069  0.8016 -2.0293
46237SOL     OW44673   0.150  12.317   9.587  0.2525  0.1484 -0.7141
46237SOL    HW144674   0.132  12.406   9.619  1.6753  0.6122 -1.1423
46237SOL    HW244675   0.083  12.301   9.521 -0.1012  0.8513 -0.5378
46238SOL     OW44676  10.160   4.582   5.655 -0.3602  0.4247 -0.2395
46238SOL    HW144677  10.125   4.650   5.714 -1.0172  0.1801 -0.3330
46238SOL    HW244678  10.162   4.624   5.569 -0.4435  0.4356 -0.2364
46239SOL     OW44679   4.717   6.685   6.096  0.1422  0.3463  0.5575
46239SOL    HW144680   4.778   6.618   6.068 -0.8254 -0.4088  0.2073
46239SOL    HW244681   4.745   6.708   6.185  0.9880  0.0953  0.3602
46240SOL     OW44682   0.175   6.437   9.722  0.0110  0.3389  0.4258
46240SOL    HW144683   0.105   6.371   9.717 -0.1311  0.4931  0.3475
46240SOL    HW244684   0.227   6.421   9.644  0.5283 -0.2890  0.8888
46241SOL     OW44685   7.072   2.596   5.620  0.3173  0.2672 -0.1368
46241SOL    HW144686   7.120   2.633   5.545 -0.1740  0.0095 -0.5885
46241SOL    HW244687   7.036   2.514   5.587 -1.8639  1.2291 -0.3799
46242SOL     OW44688  11.995   9.167   7.848 -0.2273  0.2454  0.6922
46242SOL    HW144689  11.990   9.200   7.759 -1.8557  1.8182  1.3096
46242SOL    HW244690  12.079   9.199   7.881 -0.6957  1.7818  0.4757
46243SOL     OW44691   2.454   5.450   5.259  0.1199  0.2429  0.4915
46243SOL    HW144692   2.537   5.449   5.211  0.2421  0.8013  0.6762
46243SOL    HW244693   2.437   5.543   5.275 -0.1415  0.0925  1.1408
46244SOL     OW44694   7.220   4.775   8.410 -0.3398  0.1127  0.0240
46244SOL    HW144695   7.226   4.685   8.378  2.4545 -0.3115  1.4644
46244SOL    HW244696   7.236   4.768   8.504 -0.3025  2.1052  0.2037
46245SOL     OW44697   3.683   8.205   6.458 -0.2286 -0.3066  0.3236
46245SOL    HW144698   3.649   8.188   6.546 -0.3902 -2.3914 -0.0816
46245SOL    HW244699   3.644   8.136   6.404 -0.1205  0.9214 -1.3945
46246SOL     OW44700   3.715  10.044   4.111  0.4005 -0.6031 -0.0661
46246SOL    HW144701   3.662  10.113   4.152 -0.8898 -1.9140  0.5745
46246SOL    HW244702   3.660   9.966   4.116  1.0863 -1.2995 -2.4066
46247SOL     OW44703   2.154   4.089   4.710  0.1802 -0.1261  0.4085
46247SOL    HW144704   2.216   4.042   4.765 -0.2784 -2.2173 -0.7797
46247SOL    HW244705   2.208   4.148   4.657  0.8181  0.2701  1.4778
46248SOL     OW44706   1.133   6.091   2.462  0.0954  0.1910 -0.2019
46248SOL    HW144707   1.169   6.093   2.551 -0.2478 -2.4006  0.0762
46248SOL    HW244708   1.151   6.002   2.431 -0.4850  0.7904 -2.4584
46249SOL     OW44709  10.495   4.157   9.721  0.1079  0.4092 -0.1382
46249SOL    HW144710  10.526   4.123   9.637  3.1769  2.2332  0.1371
46249SOL    HW244711  10.562   4.130   9.784 -1.0418  0.9364  1.3685
46250SOL     OW44712  11.418  11.425   7.202  0.2547  0.3753  0.3528
46250SOL    HW144713  11.382  11.349   7.156  1.0186 -0.8602  1.7046
46250SOL    HW244714  11.495  11.391   7.247 -0.2185  1.6113  2.1862
46251SOL     OW44715   5.285   1.164  12.030 -0.1953 -0.1062  0.8008
46251SOL    HW144716   5.240   1.242  11.998 -2.9794 -0.7919  2.7549
46251SOL    HW244717   5.216   1.101  12.046  1.6328 -1.7921  2.5658
46252SOL     OW44718   8.522   0.741   3.640 -0.0404 -0.0886  0.3185
46252SOL    HW144719   8.547   0.650   3.625 -1.0587 -0.0451 -2.1228
46252SOL    HW244720   8.436   0.737   3.681  0.1565 -0.2219  0.7190
46253SOL     OW44721   3.071   6.108   1.457 -0.1057 -0.3596  0.1513
46253SOL    HW144722   3.061   6.068   1.543  0.0775 -0.6620  0.0363
46253SOL    HW244723   3.156   6.077   1.426 -0.7318 -1.3238 -0.6811
46254SOL     OW44724   7.956   4.089   5.762  0.1382  0.2027  0.2307
46254SOL    HW144725   7.983   4.009   5.716 -1.2395  0.7391 -1.6400
46254SOL    HW244726   8.033   4.115   5.813  0.6978 -2.1470  0.6809
46255SOL     OW44727   6.361   0.649   6.014 -0.2106 -0.1516 -0.0357
46255SOL    HW144728   6.300   0.722   6.021 -0.4222 -0.1580 -1.4587
46255SOL    HW244729   6.437   0.686   5.969 -0.2727 -0.7654 -0.6708
46256SOL     OW44730   8.461   2.180   7.059 -0.1060  0.0002 -0.1699
46256SOL    HW144731   8.458   2.262   7.108 -1.5015  0.6889 -1.3462
46256SOL    HW244732   8.478   2.206   6.969 -0.4413 -1.0095 -0.5382
46257SOL     OW44733   1.733   0.459   2.686 -0.5712 -0.3180 -0.3846
46257SOL    HW144734   1.714   0.404   2.762  2.4859  0.0372  0.7763
46257SOL    HW244735   1.810   0.420   2.646 -0.5701  0.9938 -1.7721
46258SOL     OW44736   2.263   3.058  10.346  0.9231 -0.0323 -0.4361
46258SOL    HW144737   2.252   3.055  10.251  0.0788 -0.9831 -0.3253
46258SOL    HW244738   2.356   3.080  10.359  1.6381 -2.1021 -1.5104
46259SOL     OW44739  10.788   8.817   7.243  0.1202 -0.0702 -0.1913
46259SOL    HW144740  10.834   8.752   7.190  0.2534  0.2656 -0.4941
46259SOL    HW244741  10.837   8.820   7.326 -0.3566 -0.9176  0.1323
46260SOL     OW44742   9.363  10.002   9.957 -1.1103 -0.0867  0.0088
46260SOL    HW144743   9.322   9.956   9.884  1.1577 -1.3563 -0.5845
46260SOL    HW244744   9.441   9.949   9.977 -0.1621  1.7584  1.4868
46261SOL     OW44745   5.420   6.996   1.848  0.0923  0.1581 -0.1879
46261SOL    HW144746   5.430   6.954   1.762 -0.8080  2.0635 -1.2768
46261SOL    HW244747   5.498   7.049   1.858  1.0834 -1.4401  1.0571
46262SOL     OW44748   9.785   5.576   2.418 -0.2567 -0.2234  0.0906
46262SOL    HW144749   9.817   5.562   2.507 -0.9373  0.0823  0.3868
46262SOL    HW244750   9.754   5.666   2.417  0.9748  0.2268 -0.8472
46263SOL     OW44751   2.587  10.642   3.805 -0.6557  0.7085  0.0506
46263SOL    HW144752   2.661  10.586   3.827  1.1303  2.4634 -1.0480
46263SOL    HW244753   2.550  10.668   3.889  1.6458  1.8135  0.8093
46264SOL     OW44754   2.192   5.140   1.415  0.5888 -0.0250  0.4564
46264SOL    HW144755   2.286   5.150   1.432  0.7427 -0.3316 -0.1998
46264SOL    HW244756   2.152   5.146   1.502  1.2060  0.1933  0.7339
46265SOL     OW44757   0.530   8.943   0.046  0.1373  0.1771  0.7779
46265SOL    HW144758   0.624   8.942   0.028  0.0483 -0.7267  0.3480
46265SOL    HW244759   0.503   8.852   0.038 -1.2901  0.7393 -1.8671
46266SOL     OW44760   7.089   3.257   1.840  0.1358  0.3510  0.5490
46266SOL    HW144761   7.156   3.307   1.794  1.9109 -1.7861  0.6489
46266SOL    HW244762   7.109   3.270   1.933 -1.4987  2.0878  0.7318
46267SOL     OW44763   8.128  10.498   0.702  0.0776 -0.4651 -0.2810
46267SOL    HW144764   8.076  10.445   0.641  1.0479  0.7533 -2.2708
46267SOL    HW244765   8.069  10.516   0.775 -0.9148 -2.5451 -0.5087
46268SOL     OW44766  10.365   1.826   1.649  0.6559  0.8338  0.3484
46268SOL    HW144767  10.274   1.845   1.625  0.6497  2.6421  1.5628
46268SOL    HW244768  10.410   1.816   1.565 -0.9159 -1.7505 -0.2871
46269SOL     OW44769  12.433   8.787   6.418  0.4746 -0.4219 -0.5420
46269SOL    HW144770  12.420   8.828   6.503  1.2268  2.1037 -1.5544
46269SOL    HW244771  12.499   8.720   6.434 -0.8008 -1.3354  1.1913
46270SOL     OW44772   6.920   6.021   8.480  0.2914  0.2603 -0.3090
46270SOL    HW144773   6.910   5.937   8.434  0.1131  0.3832 -0.4944
46270SOL    HW244774   6.836   6.065   8.469  0.0011 -0.0098  0.7475
46271SOL     OW44775   4.306   2.373   1.839  0.2107 -0.3467  0.3636
46271SOL    HW144776   4.279   2.462   1.862  1.1815  0.7969 -2.4633
46271SOL    HW244777   4.393   2.384   1.801  0.6236 -2.6368  0.5098
46272SOL     OW44778   0.543   6.417   9.377 -0.0175  0.1958 -0.2725
46272SOL    HW144779   0.607   6.350   9.353 -0.5919 -0.7460  0.7353
46272SOL    HW244780   0.582   6.461   9.453 -0.1237  0.2968 -0.2758
46273SOL     OW44781   2.536  10.195   1.115  0.0498 -0.9412  0.1109
46273SOL    HW144782   2.478  10.269   1.094  0.0430 -0.3559  2.0423
46273SOL    HW244783   2.548  10.150   1.031 -1.7563 -0.0538 -0.6864
46274SOL     OW44784  12.454   9.456   4.422 -0.1319  0.3086 -0.0544
46274SOL    HW144785  12.531   9.506   4.447  0.7049  0.1579 -2.0793
46274SOL    HW244786  12.488   9.385   4.368 -1.5936 -0.4807  0.0046
46275SOL     OW44787   1.809   1.596   2.214 -0.1596  0.2075  0.2357
46275SOL    HW144788   1.818   1.669   2.275  0.6816  0.1603  0.1846
46275SOL    HW244789   1.865   1.619   2.140 -0.7531  0.0198 -0.2862
46276SOL     OW44790  11.264   8.697   7.342  0.0575  0.1110 -0.2273
46276SOL    HW144791  11.226   8.781   7.319  0.6854  0.6806  0.7768
46276SOL    HW244792  11.345   8.692   7.290  0.4412  0.4985  0.3283
46277SOL     OW44793  11.555   6.017  10.886 -0.2447  0.0975 -0.1392
46277SOL    HW144794  11.607   6.078  10.939 -1.5296 -0.1889  1.5743
46277SOL    HW244795  11.522   6.070  10.813 -0.0327  1.0523  0.4368
46278SOL     OW44796   6.344   5.455   6.860  0.3839 -0.0376  0.6747
46278SOL    HW144797   6.427   5.457   6.813  0.3361  0.8840  0.6054
46278SOL    HW244798   6.315   5.364   6.854  0.7069 -0.0861 -0.5022
46279SOL     OW44799   4.282   0.265   2.142  0.5094 -0.1009 -0.0145
46279SOL    HW144800   4.347   0.322   2.100  0.2754  0.4654  0.3784
46279SOL    HW244801   4.330   0.185   2.161  1.0018  0.1764 -0.0520
46280SOL     OW44802   9.036  10.659   8.702  0.0653 -0.4215  0.2734
46280SOL    HW144803   9.111  10.677   8.645 -0.8353  1.3738 -0.4449
46280SOL    HW244804   9.070  10.602   8.770  1.7120 -0.8807 -0.8739
46281SOL     OW44805   4.774   5.259   2.748 -0.4029 -0.3261  0.4690
46281SOL    HW144806   4.764   5.237   2.655  0.1230 -0.4687  0.4413
46281SOL    HW244807   4.713   5.200   2.793 -2.0792  1.0460  0.0847
46282SOL     OW44808   7.553  10.741   1.939  0.3759 -0.0474  0.0753
46282SOL    HW144809   7.557  10.680   2.012 -1.0396  0.4307  0.5860
46282SOL    HW244810   7.527  10.824   1.978  1.1655  0.6103 -0.7603
46283SOL     OW44811   8.792  10.789   2.458 -0.4281  0.5468  0.2764
46283SOL    HW144812   8.749  10.862   2.414 -0.1220  0.6314  0.1131
46283SOL    HW244813   8.773  10.713   2.404  1.0371  0.8581 -0.7523
46284SOL     OW44814   1.823   0.476   1.922 -0.1612  0.3715  0.2254
46284SOL    HW144815   1.876   0.533   1.977  0.8841 -1.4604  1.2325
46284SOL    HW244816   1.873   0.466   1.841  0.1084  0.1571  0.4177
46285SOL     OW44817   6.638   3.241   5.562 -0.6485  0.0211  0.7235
46285SOL    HW144818   6.632   3.297   5.639 -1.4741 -0.6632  1.1755
46285SOL    HW244819   6.603   3.157   5.591 -0.6482 -0.3476 -0.3065
46286SOL     OW44820   9.778  12.156   9.523  0.5208  0.3547 -0.1716
46286SOL    HW144821   9.773  12.080   9.464  0.2169  1.5690 -1.7725
46286SOL    HW244822   9.689  12.165   9.557  0.1451  0.9308 -1.2508
46287SOL     OW44823  12.383  10.502   6.123 -0.1687 -0.1778  0.3957
46287SOL    HW144824  12.386  10.461   6.209 -1.9259  0.8538  1.0216
46287SOL    HW244825  12.440  10.578   6.131 -2.6332  1.7000  1.7812
46288SOL     OW44826   8.403   0.088  12.326  0.3609  0.2867 -0.1557
46288SOL    HW144827   8.387   0.110  12.235 -0.5287  1.7644  0.3121
46288SOL    HW244828   8.388   0.170  12.373  0.5245 -0.5089  1.3460
46289SOL     OW44829   2.854   4.125   8.191  0.4482  0.0699 -0.3331
46289SOL    HW144830   2.869   4.098   8.282 -2.5268  0.5375  0.4192
46289SOL    HW244831   2.915   4.197   8.178  0.4613  0.4833  1.5942
46290SOL     OW44832   4.811   7.029   9.447 -0.0680  0.0813 -0.0200
46290SOL    HW144833   4.834   7.060   9.534  3.8244  1.4033 -1.2821
46290SOL    HW244834   4.836   6.937   9.446 -0.0892  0.0731  0.2546
46291SOL     OW44835   6.997   4.015   1.527 -0.0723 -0.3655 -0.1476
46291SOL    HW144836   7.040   3.961   1.460  0.1386  0.2095 -0.4874
46291SOL    HW244837   6.915   3.970   1.546 -0.8276  0.1873 -1.8540
46292SOL     OW44838  10.224   4.904   0.020 -0.0020 -0.0355  0.3836
46292SOL    HW144839  10.258   4.823   0.058 -0.1200 -0.6328 -0.7409
46292SOL    HW244840  10.192   4.955   0.095  1.8494 -0.1605  1.3222
46293SOL     OW44841   4.370  10.734   5.174 -0.3866 -0.6403 -0.2650
46293SOL    HW144842   4.287  10.686   5.178 -2.4583  2.6748  0.3543
46293SOL    HW244843   4.351  10.811   5.119  2.9794 -0.8413 -1.9813
46294SOL     OW44844  11.722   2.803   4.087 -0.0132  0.4250  0.3353
46294SOL    HW144845  11.727   2.742   4.013  0.4474 -0.6304  1.2155
46294SOL    HW244846  11.629   2.818   4.100 -0.1399 -0.2473  0.2250
46295SOL     OW44847   2.616   8.175   6.082  0.0684 -0.0311 -0.5345
46295SOL    HW144848   2.645   8.099   6.132 -0.8345 -1.2932 -1.8484
46295SOL    HW244849   2.542   8.143   6.030 -0.8345  1.9488 -0.5569
46296SOL     OW44850  11.415   5.453   5.047 -0.1116 -0.5038  0.3502
46296SOL    HW144851  11.473   5.405   4.989 -3.0218 -1.1936 -2.2353
46296SOL    HW244852  11.376   5.386   5.103 -0.5744 -0.4984  0.0436
46297SOL     OW44853   5.265   1.523   2.232 -0.4509 -0.4579 -0.6216
46297SOL    HW144854   5.321   1.593   2.200  0.6794 -0.7145  0.6972
46297SOL    HW244855   5.267   1.457   2.162  2.0589 -1.0642 -0.0899
46298SOL     OW44856   0.073   4.349   6.720 -0.3355 -0.4680 -0.0843
46298SOL    HW144857   0.066   4.307   6.634 -1.9322 -0.3875 -0.0298
46298SOL    HW244858  -0.013   4.333   6.761 -0.5516  1.7651  0.4341
46299SOL     OW44859   9.819   6.382   9.509 -0.2234  0.3291 -0.1834
46299SOL    HW144860   9.792   6.376   9.418 -0.8448 -0.1155  0.0225
46299SOL    HW244861   9.858   6.297   9.528  1.3007  0.9360 -0.4585
46300SOL     OW44862   7.670   5.897   9.602  0.3218 -0.5114 -0.6210
46300SOL    HW144863   7.761   5.886   9.629  0.7222  0.9177 -1.2946
46300SOL    HW244864   7.645   5.983   9.636 -0.4731 -0.4753 -1.2562
46301SOL     OW44865   4.855   1.407   7.799 -0.0219  0.3855  0.6152
46301SOL    HW144866   4.821   1.397   7.888 -2.1306  0.0822 -0.1757
46301SOL    HW244867   4.777   1.419   7.745  1.2651  1.6380 -1.0722
46302SOL     OW44868   6.111   7.087   1.719  0.8134  0.1592  0.6164
46302SOL    HW144869   6.135   7.086   1.626 -0.8810 -1.9671  0.1398
46302SOL    HW244870   6.187   7.049   1.763  1.5405  0.9764  0.1191
46303SOL     OW44871   9.565   9.336  10.804  0.1966  0.0684 -0.4519
46303SOL    HW144872   9.494   9.272  10.814  0.5922 -0.4178 -0.6753
46303SOL    HW244873   9.545   9.405  10.867  0.4765 -0.9278  0.7728
46304SOL     OW44874   2.668   7.243   8.523 -0.3283  0.2474  0.0755
46304SOL    HW144875   2.697   7.169   8.576 -0.7046  0.4024  0.5039
46304SOL    HW244876   2.721   7.317   8.553 -1.1267  0.5227  0.8334
46305SOL     OW44877  10.108   0.172   2.335 -0.2777  0.4756 -0.4183
46305SOL    HW144878  10.132   0.147   2.425 -0.1662 -0.1274 -0.6161
46305SOL    HW244879  10.019   0.206   2.343 -0.4674 -0.0800 -0.1641
46306SOL     OW44880   5.751   2.248   8.700  0.2446 -0.0544 -0.4957
46306SOL    HW144881   5.743   2.198   8.782  1.0293 -1.1072 -1.0307
46306SOL    HW244882   5.668   2.293   8.690  1.1163  2.5887  2.4608
46307SOL     OW44883   7.683   0.364  10.850 -0.0003  0.8640 -0.0140
46307SOL    HW144884   7.753   0.416  10.888 -1.7779  0.9284  3.5860
46307SOL    HW244885   7.650   0.418  10.778  0.8900  2.8165  0.9564
46308SOL     OW44886  10.899   9.389   1.687  0.1708  0.8237  0.0494
46308SOL    HW144887  10.943   9.468   1.654 -0.1274  0.3576 -1.5624
46308SOL    HW244888  10.808   9.399   1.657  0.2259 -0.3204 -0.5321
46309SOL     OW44889   0.552   2.955   9.718  0.6451 -0.0870  0.3169
46309SOL    HW144890   0.576   2.877   9.668 -0.5482  0.6363 -1.4793
46309SOL    HW244891   0.635   2.990   9.750  1.2731 -1.5633  0.3619
46310SOL     OW44892   3.464   8.764  10.877 -0.1361 -0.3242 -0.4997
46310SOL    HW144893   3.401   8.699  10.908 -0.5123  0.9003  1.4749
46310SOL    HW244894   3.545   8.743  10.923  0.8609 -1.6339 -2.7150
46311SOL     OW44895   4.108   1.046  11.809  0.3939 -0.1555 -0.1390
46311SOL    HW144896   4.118   0.978  11.743 -1.7551 -1.1164  0.4340
46311SOL    HW244897   4.045   1.107  11.772 -1.8526 -1.3909  1.4288
46312SOL     OW44898   4.861  10.922   3.602  0.5754  0.1571 -0.0472
46312SOL    HW144899   4.872  11.013   3.575  1.7824  0.1302  0.2963
46312SOL    HW244900   4.786  10.891   3.552  1.2548  0.8207 -1.5541
46313SOL     OW44901   6.708   0.848   3.365 -0.7499 -0.3542 -0.7413
46313SOL    HW144902   6.680   0.875   3.278 -1.8831 -0.3017 -0.3764
46313SOL    HW244903   6.702   0.927   3.419  0.7661 -0.1783 -0.7826
46314SOL     OW44904   2.762  10.902   8.806  0.6396  0.0478  0.2163
46314SOL    HW144905   2.787  10.817   8.843 -0.0351 -0.3930 -0.3257
46314SOL    HW244906   2.808  10.906   8.722 -2.6692 -1.7863 -1.9140
46315SOL     OW44907   0.576   3.454   9.444  0.2521  0.1801  0.3699
46315SOL    HW144908   0.557   3.410   9.361 -0.4080  0.2290  0.4883
46315SOL    HW244909   0.603   3.383   9.503  0.9578  0.1749  0.0557
46316SOL     OW44910   0.031  11.754   3.275  0.2983 -0.0131 -0.2601
46316SOL    HW144911   0.110  11.715   3.311  0.3995 -0.3175 -0.8002
46316SOL    HW244912  -0.040  11.717   3.328  0.4023 -0.8605 -0.6901
46317SOL     OW44913   3.276   0.747   3.597  0.2324  0.0606  0.2778
46317SOL    HW144914   3.264   0.673   3.537  0.6864  0.5872 -0.4780
46317SOL    HW244915   3.190   0.789   3.600 -0.3470 -1.1331  1.6053
46318SOL     OW44916   7.403  10.278   6.073  0.3316  0.8134 -0.3172
46318SOL    HW144917   7.427  10.189   6.100  0.1816  0.9640  0.3206
46318SOL    HW244918   7.449  10.335   6.135  0.5508  1.1890 -0.8207
46319SOL     OW44919  10.415   9.751   8.519  0.0786 -0.3833 -0.3902
46319SOL    HW144920  10.414   9.841   8.552 -1.6926  0.2980 -2.0982
46319SOL    HW244921  10.471   9.755   8.442  0.0774 -0.7776 -0.4125
46320SOL     OW44922   8.542   2.561   3.210  0.4856  0.4551  0.1618
46320SOL    HW144923   8.630   2.529   3.231  0.0926 -0.6421  0.2188
46320SOL    HW244924   8.485   2.516   3.272 -0.3471 -0.4111 -1.1783
46321SOL     OW44925   6.868   0.728   3.696  0.1954  0.2786  0.1771
46321SOL    HW144926   6.879   0.715   3.790  0.7639  0.4972  0.1404
46321SOL    HW244927   6.796   0.669   3.672  0.3969 -0.1625  0.6499
46322SOL     OW44928   1.058  11.089  12.016  0.0626 -0.0084 -0.7473
46322SOL    HW144929   1.112  11.011  12.002  0.4035  0.5487 -2.9776
46322SOL    HW244930   0.974  11.055  12.046  0.5068 -1.1680 -0.7541
46323SOL     OW44931   8.865   3.020   4.940 -0.3650 -0.3227  0.7900
46323SOL    HW144932   8.911   2.982   5.015 -1.6794 -1.9099  0.8579
46323SOL    HW244933   8.798   3.076   4.979  0.2060  0.4227  0.7294
46324SOL     OW44934   3.195   5.007   7.941 -0.6949  0.3817 -0.4567
46324SOL    HW144935   3.186   4.913   7.954 -0.4709 -0.1122 -3.1997
46324SOL    HW244936   3.176   5.045   8.027  0.5321 -2.1917  1.0986
46325SOL     OW44937   2.637   0.078   8.307  0.3776  0.1930 -0.1382
46325SOL    HW144938   2.653  -0.006   8.264  0.2145 -0.3802  0.8678
46325SOL    HW244939   2.553   0.107   8.273  1.2807  0.8683 -1.8740
46326SOL     OW44940   1.592   8.647   2.470  0.9930  0.0220 -0.1161
46326SOL    HW144941   1.638   8.564   2.477  1.2274  0.2673  1.6815
46326SOL    HW244942   1.554   8.661   2.557 -0.1319  1.1690 -0.7556
46327SOL     OW44943   7.886   6.400   5.233 -0.3569 -0.1221 -0.0704
46327SOL    HW144944   7.968   6.409   5.185 -0.7295  0.6919 -0.5765
46327SOL    HW244945   7.819   6.393   5.165 -0.6396 -1.5218  0.3370
46328SOL     OW44946  12.434  11.862   7.197 -0.5395 -0.1745 -0.1067
46328SOL    HW144947  12.429  11.794   7.129 -1.9926  0.6202 -0.8390
46328SOL    HW244948  12.438  11.813   7.279 -3.1514 -1.2044 -0.5041
46329SOL     OW44949   4.633   1.164   2.336 -0.3901 -0.7042  0.5787
46329SOL    HW144950   4.580   1.184   2.413 -1.6590  0.0473 -0.4647
46329SOL    HW244951   4.723   1.181   2.364 -0.9450  0.9871  1.4554
46330SOL     OW44952   0.030   2.609   0.395  0.3598 -0.0524  0.1097
46330SOL    HW144953  -0.038   2.669   0.363 -1.5775 -2.2521 -0.0953
46330SOL    HW244954   0.059   2.562   0.317  0.4957 -0.7019  0.5463
46331SOL     OW44955  10.835   6.605   3.863  0.1834  0.3625  0.2764
46331SOL    HW144956  10.770   6.635   3.926  0.4923  0.5265  0.5213
46331SOL    HW244957  10.785   6.557   3.797 -0.2940  1.2227 -0.0022
46332SOL     OW44958   8.498   6.150   9.364 -0.0694 -0.0113 -0.3749
46332SOL    HW144959   8.438   6.172   9.435 -1.7610  0.1790 -1.8018
46332SOL    HW244960   8.490   6.055   9.355 -0.7933  0.1083 -1.0870
46333SOL     OW44961  11.545  10.734   4.643  0.6879 -0.0654  0.0954
46333SOL    HW144962  11.574  10.794   4.712  0.6577 -1.2433  1.1937
46333SOL    HW244963  11.465  10.695   4.679  0.4341 -0.3838 -0.8031
46334SOL     OW44964   9.936   8.089   9.426  0.2253 -0.0706 -0.3731
46334SOL    HW144965  10.027   8.061   9.413  0.1347 -0.6297  0.1747
46334SOL    HW244966   9.926   8.164   9.368  1.1852  0.3050 -0.0720
46335SOL     OW44967   9.002  10.003   8.566 -0.3908  0.0313 -0.8356
46335SOL    HW144968   9.058  10.000   8.644 -0.7428  1.5788 -0.4927
46335SOL    HW244969   9.053  10.052   8.502 -1.6159  2.2461 -0.2278
46336SOL     OW44970   8.795   4.270  11.060  0.3450  0.7103  0.6903
46336SOL    HW144971   8.748   4.192  11.034  2.7452 -0.7423  0.3674
46336SOL    HW244972   8.731   4.340  11.055 -1.9134 -1.2268  1.0586
46337SOL     OW44973  11.162   8.061  10.474  0.2022  0.5746  0.3042
46337SOL    HW144974  11.073   8.093  10.489 -0.3339 -0.8355  0.2857
46337SOL    HW244975  11.186   8.096  10.388 -0.1898  1.2586  0.4685
46338SOL     OW44976   7.072   4.315   9.628  0.3096 -0.5340 -0.3962
46338SOL    HW144977   7.140   4.256   9.662  1.4941  1.9541  1.9865
46338SOL    HW244978   6.990   4.280   9.663  0.8381 -1.3550  0.0720
46339SOL     OW44979   2.331   9.178   2.698  0.7311  0.1306  0.2418
46339SOL    HW144980   2.412   9.128   2.688  0.3604 -0.6365  1.0106
46339SOL    HW244981   2.268   9.116   2.735 -0.6585  0.3062 -1.6707
46340SOL     OW44982  11.625   6.605   6.278 -0.3055 -0.2313 -0.3935
46340SOL    HW144983  11.535   6.633   6.296  0.2051  1.3628 -0.0967
46340SOL    HW244984  11.668   6.685   6.246  0.9220 -1.0444 -0.8297
46341SOL     OW44985   9.513   5.632   3.256 -0.3227 -0.3443  0.3283
46341SOL    HW144986   9.562   5.632   3.174  0.9626 -2.2302  1.0286
46341SOL    HW244987   9.537   5.715   3.298  0.5657 -0.2643 -0.3057
46342SOL     OW44988   7.139   4.882  12.166 -0.2665 -0.0817 -0.0016
46342SOL    HW144989   7.177   4.795  12.176 -1.2375 -0.6174 -0.9174
46342SOL    HW244990   7.173   4.931  12.242 -1.5606 -1.9068  1.8649
46343SOL     OW44991   1.655   2.948  11.656  0.4353 -0.2334 -0.8754
46343SOL    HW144992   1.727   3.008  11.637  0.4373 -0.3280 -1.1785
46343SOL    HW244993   1.689   2.890  11.724  0.4400  0.0935 -0.5966
46344SOL     OW44994   6.296   1.272   8.092 -0.1680  0.0709  0.2541
46344SOL    HW144995   6.378   1.226   8.113  0.6607  0.8325 -1.1699
46344SOL    HW244996   6.249   1.276   8.175 -0.4936 -3.6689  0.4302
46345SOL     OW44997   3.449   8.321   0.997  0.4574 -0.3176  0.6798
46345SOL    HW144998   3.433   8.370   0.917 -2.3362 -0.4108  1.0897
46345SOL    HW244999   3.480   8.387   1.060 -0.9989  0.5139  0.5629
46346SOL     OW45000   3.957  11.288   6.137  0.3347  0.5929 -0.3208
46346SOL    HW145001   3.966  11.339   6.217 -0.7519 -0.1107  0.2628
46346SOL    HW245002   3.869  11.251   6.141 -0.5513  2.1305 -2.7750
46347SOL     OW45003   8.400   4.554   0.674  0.3921 -0.1067  0.9511
46347SOL    HW145004   8.343   4.505   0.733  0.8507 -2.9016 -0.7836
46347SOL    HW245005   8.342   4.584   0.604  0.4164  0.4033  1.1429
46348SOL     OW45006   2.386  12.217  11.130 -0.2235  0.5837 -0.0906
46348SOL    HW145007   2.366  12.258  11.045  1.1027  2.0618  0.2498
46348SOL    HW245008   2.346  12.276  11.194 -0.1503  0.1590  0.3431
46349SOL     OW45009   1.955   9.256   9.041  0.1074  0.2926 -0.3374
46349SOL    HW145010   1.954   9.209   8.958  1.0116  0.4674 -0.4578
46349SOL    HW245011   1.865   9.252   9.072 -0.6624  1.8568 -2.2303
46350SOL     OW45012   4.229   3.498   6.765 -0.3123  0.4301 -0.6841
46350SOL    HW145013   4.309   3.541   6.796  0.7489 -2.1621  0.5151
46350SOL    HW245014   4.165   3.516   6.833  0.3130 -0.3795  0.1444
46351SOL     OW45015  12.133   6.260   4.592  0.2526 -0.3124  0.0439
46351SOL    HW145016  12.038   6.264   4.601 -0.2736 -0.4136 -3.9434
46351SOL    HW245017  12.157   6.175   4.630 -1.0328  0.0966  1.9208
46352SOL     OW45018   1.740   8.780  12.002 -0.5151 -0.0850  0.0661
46352SOL    HW145019   1.674   8.842  11.970 -0.1206  1.2014  1.6195
46352SOL    HW245020   1.794   8.832  12.063  0.4396 -1.7244  0.6734
46353SOL     OW45021   5.472   7.868   1.862 -0.0844 -0.5819  0.1881
46353SOL    HW145022   5.532   7.940   1.842 -0.7510 -0.0006  0.2587
46353SOL    HW245023   5.519   7.789   1.835  0.2091 -0.0351 -0.9193
46354SOL     OW45024   4.658   5.487   8.995  0.2984 -0.0855  0.3558
46354SOL    HW145025   4.605   5.512   9.071 -0.4372  0.7964 -0.4163
46354SOL    HW245026   4.748   5.490   9.027  0.0071  0.4044  1.1644
46355SOL     OW45027   3.845   0.583  11.041 -0.5477 -0.2103 -0.0500
46355SOL    HW145028   3.930   0.608  11.006 -1.9349 -0.0283 -3.7435
46355SOL    HW245029   3.789   0.659  11.025 -1.8390 -0.9846  0.6159
46356SOL     OW45030  12.369   2.108   4.381 -0.4365 -0.2647  0.3373
46356SOL    HW145031  12.395   2.032   4.329 -0.6814  0.1880 -0.4480
46356SOL    HW245032  12.437   2.173   4.366 -1.1643  0.3331 -0.4417
46357SOL     OW45033   8.039   7.518  12.348  0.0364 -0.1447  0.9494
46357SOL    HW145034   8.112   7.580  12.336 -0.3628  0.2063  0.2794
46357SOL    HW245035   8.034   7.505  12.442 -1.5834  2.9548  1.4264
46358SOL     OW45036   6.041   3.648   3.188 -0.9388  0.2414  0.4861
46358SOL    HW145037   5.967   3.644   3.249 -1.0327  0.6084  0.3995
46358SOL    HW245038   6.025   3.727   3.136 -0.1850  0.6459  0.8535
46359SOL     OW45039  11.362   0.682   6.144 -0.5101 -0.0598 -0.0931
46359SOL    HW145040  11.395   0.615   6.083 -0.2428 -0.7773  0.8069
46359SOL    HW245041  11.440   0.734   6.165 -0.1105 -1.1465  1.2713
46360SOL     OW45042   8.131   4.353   5.548 -0.5284  0.2548 -0.1682
46360SOL    HW145043   8.112   4.384   5.637 -1.2536  0.6331 -0.4509
46360SOL    HW245044   8.214   4.304   5.557 -0.7754 -0.0113  0.7741
46361SOL     OW45045   7.377   7.554  11.621  0.2209 -0.5546 -0.3875
46361SOL    HW145046   7.345   7.583  11.707 -0.4051 -1.1157 -0.4158
46361SOL    HW245047   7.299   7.519  11.578  0.9629 -2.5098 -0.2461
46362SOL     OW45048   6.270   4.612   8.310  0.0764  0.1760  0.5521
46362SOL    HW145049   6.220   4.597   8.230 -0.5201  0.5487  0.8467
46362SOL    HW245050   6.248   4.538   8.367 -0.6565  0.6549  0.9214
46363SOL     OW45051   3.728   7.749   9.695 -0.1079  0.3435 -0.4396
46363SOL    HW145052   3.822   7.744   9.709 -0.1784 -0.2534 -0.1662
46363SOL    HW245053   3.719   7.773   9.603  0.3082 -1.2395 -0.9279
46364SOL     OW45054   6.264   6.567   0.077 -0.3749  0.3057  0.8331
46364SOL    HW145055   6.234   6.479   0.057 -2.1606  0.9626  0.4803
46364SOL    HW245056   6.268   6.571   0.172  0.3832 -0.3584  0.8330
46365SOL     OW45057   6.869   0.361  11.114  0.1916 -0.0928  0.3904
46365SOL    HW145058   6.839   0.276  11.084 -1.1030  0.6863 -0.6475
46365SOL    HW245059   6.933   0.342  11.182 -0.1624 -1.8737  0.2615
46366SOL     OW45060  11.463  12.307   7.753  0.0988  0.3241 -0.1299
46366SOL    HW145061  11.445  12.333   7.663  1.3259  0.4963 -0.3403
46366SOL    HW245062  11.389  12.250   7.777 -0.0834  0.0230 -1.3407
46367SOL     OW45063   2.762   1.042   7.557 -0.4385  0.2502  0.2617
46367SOL    HW145064   2.746   1.007   7.470  1.3629 -0.6116  0.2399
46367SOL    HW245065   2.854   1.023   7.575 -0.7926  0.2534  2.4105
46368SOL     OW45066   5.623   1.496   9.364 -0.8249 -0.6637  0.6433
46368SOL    HW145067   5.676   1.501   9.443 -1.1304  0.1447  0.8137
46368SOL    HW245068   5.557   1.564   9.376 -1.6885 -1.4146  0.2855
46369SOL     OW45069   9.608   9.030   8.017  0.0226 -0.2322  0.2003
46369SOL    HW145070   9.532   8.986   7.978 -0.2438 -0.7081  1.2373
46369SOL    HW245071   9.571   9.088   8.083  0.6069 -1.2191  1.4285
46370SOL     OW45072   3.633   3.886   7.314 -0.4321 -0.1528 -0.0506
46370SOL    HW145073   3.634   3.948   7.387  0.3278 -0.3687  0.1293
46370SOL    HW245074   3.620   3.941   7.236  0.5175  0.2768  0.0758
46371SOL     OW45075  10.314   9.964   0.512  0.2736  0.4247  0.4186
46371SOL    HW145076  10.406   9.942   0.495  0.4132  1.8227 -0.7980
46371SOL    HW245077  10.315  10.058   0.530 -0.8684  0.3620  0.8657
46372SOL     OW45078   2.259   0.404   9.221  0.7268 -0.1000 -0.6417
46372SOL    HW145079   2.238   0.404   9.314  1.5652 -1.2525 -0.4316
46372SOL    HW245080   2.325   0.472   9.211  0.1926  0.4457 -0.5163
46373SOL     OW45081   6.500   1.861  11.042  0.2384  0.1789 -0.1824
46373SOL    HW145082   6.514   1.922  10.969 -1.0857 -1.4796 -1.9487
46373SOL    HW245083   6.582   1.811  11.047  0.9580  1.3876  0.6263
46374SOL     OW45084   7.747   0.758   6.433  0.0357 -0.2270  0.0165
46374SOL    HW145085   7.719   0.845   6.463  0.5760  0.0958 -0.3886
46374SOL    HW245086   7.706   0.697   6.493 -3.2533  0.0662 -1.7306
46375SOL     OW45087   8.326   9.001  12.227  0.2191  0.6762 -0.2515
46375SOL    HW145088   8.356   8.981  12.316 -0.4264  0.8824  0.0230
46375SOL    HW245089   8.338   8.920  12.178 -1.4918 -0.1539  0.5965
46376SOL     OW45090   9.983   2.718  10.894 -0.1325 -0.5156 -0.4362
46376SOL    HW145091  10.041   2.723  10.818  0.0570  1.7602 -0.2268
46376SOL    HW245092   9.898   2.748  10.861 -0.7331 -1.9480 -0.2874
46377SOL     OW45093  11.727   5.309   6.519 -0.5560  0.5302  0.4085
46377SOL    HW145094  11.683   5.299   6.604 -0.3774 -0.6544  0.3793
46377SOL    HW245095  11.777   5.228   6.508 -0.3524  0.7863 -0.7050
46378SOL     OW45096   7.794  11.149   6.912  0.3313  0.1610  0.2651
46378SOL    HW145097   7.764  11.143   6.822  0.3748 -1.2101  0.3129
46378SOL    HW245098   7.886  11.122   6.909 -0.1117 -1.5815  0.9121
46379SOL     OW45099  12.402  10.303  12.259  0.1785  0.1965  0.0358
46379SOL    HW145100  12.481  10.249  12.253 -0.8497 -1.1686 -2.5328
46379SOL    HW245101  12.429  10.389  12.226  0.6948 -0.1342 -0.4156
46380SOL     OW45102  11.076   5.662   9.148 -0.2471 -0.2674 -0.6280
46380SOL    HW145103  11.012   5.709   9.095 -1.2843 -1.4266 -0.4601
46380SOL    HW245104  11.157   5.664   9.096 -0.1858  1.8379 -0.5128
46381SOL     OW45105   8.873   1.019   9.944  0.3329 -0.6027  0.1096
46381SOL    HW145106   8.898   1.111   9.950 -0.2809 -0.3212 -1.3228
46381SOL    HW245107   8.849   0.995  10.034  3.6812 -0.3748  1.2031
46382SOL     OW45108   2.108   4.634   6.937  0.0866  0.1034  0.4521
46382SOL    HW145109   2.064   4.711   6.972 -0.4125  0.4685 -0.9176
46382SOL    HW245110   2.054   4.608   6.862  1.2066 -0.5394 -0.1515
46383SOL     OW45111  10.509  10.392   3.449 -0.2164  0.1971 -0.4929
46383SOL    HW145112  10.543  10.422   3.364 -0.6853  0.9742 -0.4121
46383SOL    HW245113  10.563  10.316   3.470  0.1272  0.1935 -1.3325
46384SOL     OW45114  11.813   3.732   3.983  0.0447  0.3812  0.0114
46384SOL    HW145115  11.828   3.650   4.030 -0.8565 -0.0501 -0.4387
46384SOL    HW245116  11.735   3.716   3.930  0.8878  0.9192 -1.4669
46385SOL     OW45117   6.792   5.215   9.029 -0.2398  0.0460  0.4880
46385SOL    HW145118   6.732   5.190   8.959 -0.4336 -0.2126  0.7422
46385SOL    HW245119   6.756   5.296   9.064  0.3898  0.7077 -0.3398
46386SOL     OW45120  10.395   1.123   4.623 -0.5314 -0.1514  0.1977
46386SOL    HW145121  10.417   1.149   4.533  2.8194 -0.7361  0.7336
46386SOL    HW245122  10.397   1.205   4.673  1.1454 -0.2461  0.3232
46387SOL     OW45123  10.732  12.282   5.837 -0.3426  0.0844  0.3056
46387SOL    HW145124  10.695  12.200   5.805  0.2934 -0.1073  0.0434
46387SOL    HW245125  10.724  12.276   5.932 -0.0497 -0.4107  0.3060
46388SOL     OW45126   1.088   8.200   0.303 -0.1574 -0.1671 -0.1818
46388SOL    HW145127   1.142   8.240   0.371 -0.5056 -1.5862  0.9883
46388SOL    HW245128   1.151   8.159   0.243  0.1293 -1.4276  0.9291
46389SOL     OW45129   0.789   4.441   1.871  0.4277  0.4116  0.1582
46389SOL    HW145130   0.748   4.499   1.936 -0.9086 -0.8487  0.5120
46389SOL    HW245131   0.850   4.389   1.922 -0.5911 -0.5490  0.4374
46390SOL     OW45132  11.567   5.737  10.923  0.1427  0.4634 -0.4753
46390SOL    HW145133  11.514   5.816  10.931  1.4283  1.2056  1.3520
46390SOL    HW245134  11.576   5.724  10.828 -2.1609  1.0177 -0.8487
46391SOL     OW45135   6.514   7.357  12.280 -0.7198  0.1080 -0.2410
46391SOL    HW145136   6.506   7.445  12.242  0.7829  0.5586  0.4122
46391SOL    HW245137   6.597   7.323  12.246 -1.0681 -0.8872 -0.1313
46392SOL     OW45138  11.200   7.571  11.185  0.1118 -0.5740  0.6229
46392SOL    HW145139  11.242   7.630  11.122  0.6507 -0.0844  1.4128
46392SOL    HW245140  11.209   7.617  11.269 -2.3883 -0.2475  0.7740
46393SOL     OW45141   5.241   7.625   0.314  0.0132  0.3243  0.8571
46393SOL    HW145142   5.273   7.693   0.254  0.4204 -1.4038 -0.9969
46393SOL    HW245143   5.302   7.627   0.387  0.5347  1.3444  0.4212
46394SOL     OW45144   9.845   3.479   0.329 -0.3508 -0.0754  0.4618
46394SOL    HW145145   9.902   3.402   0.332  2.0023  1.5788  1.3435
46394SOL    HW245146   9.812   3.481   0.240 -0.0690 -1.8079  0.2834
46395SOL     OW45147   3.495   8.977   0.449  0.6832  0.8119 -0.4467
46395SOL    HW145148   3.483   9.071   0.434  0.1770  0.8126 -0.0814
46395SOL    HW245149   3.547   8.972   0.530  2.5909  0.7961 -1.6016
46396SOL     OW45150   3.441   8.164   4.345  0.4702 -0.1780  0.4386
46396SOL    HW145151   3.410   8.252   4.324  0.6955  0.2212  1.6809
46396SOL    HW245152   3.370   8.123   4.394  0.4137 -0.6449 -0.0274
46397SOL     OW45153   2.826   2.742   1.094  0.2993 -0.3961  0.5233
46397SOL    HW145154   2.779   2.660   1.107 -1.0038  0.7316  4.3351
46397SOL    HW245155   2.768   2.794   1.038 -0.5354 -0.8895  0.9061
46398SOL     OW45156   5.853   2.548   5.184  0.7172 -0.9791  0.9280
46398SOL    HW145157   5.938   2.589   5.168 -0.0440 -0.4233 -2.5360
46398SOL    HW245158   5.873   2.454   5.193  1.6253 -1.6054 -4.2221
46399SOL     OW45159   4.502   5.773   5.124  0.1233 -0.2548  0.2416
46399SOL    HW145160   4.449   5.847   5.154 -1.0109 -1.1112  0.4111
46399SOL    HW245161   4.591   5.794   5.153 -0.2893  0.7393  0.8449
46400SOL     OW45162   8.680   3.313   4.757 -0.1174  0.2226  0.2161
46400SOL    HW145163   8.625   3.272   4.824  0.6799 -0.9191  0.1977
46400SOL    HW245164   8.619   3.363   4.703 -0.8018  1.0193  1.6766
46401SOL     OW45165   1.809   5.653   2.561 -0.5794 -0.0385  0.4513
46401SOL    HW145166   1.832   5.636   2.653  0.7406 -0.0936  0.1286
46401SOL    HW245167   1.745   5.585   2.539  0.4991 -1.1903  0.7842
46402SOL     OW45168   7.902   6.795   8.012 -0.2907 -0.3396  0.1685
46402SOL    HW145169   7.892   6.890   8.006 -1.7459 -0.3063  2.1242
46402SOL    HW245170   7.966   6.782   8.082 -2.1642 -0.7400  1.9237
46403SOL     OW45171   0.185  12.194   9.803  0.1739 -0.2184  0.0784
46403SOL    HW145172   0.185  12.236   9.717  0.8708  0.0104  0.1822
46403SOL    HW245173   0.273  12.210   9.837  0.6138 -2.0954 -0.0537
46404SOL     OW45174   1.157   0.483   9.314  0.3847 -0.0808  0.3745
46404SOL    HW145175   1.229   0.434   9.275 -0.3251 -0.0166 -1.0789
46404SOL    HW245176   1.112   0.420   9.370  1.0369 -0.3663  0.5797
46405SOL     OW45177  10.975   3.033  10.241 -0.1221  0.2399 -0.3913
46405SOL    HW145178  10.964   3.107  10.181 -2.9212  0.0451 -0.2493
46405SOL    HW245179  10.956   3.070  10.327 -0.2040 -0.3632 -0.1523
46406SOL     OW45180   5.735   0.815   4.611 -0.0375 -0.0645 -0.6632
46406SOL    HW145181   5.689   0.769   4.542 -0.8269  2.6424 -2.0623
46406SOL    HW245182   5.668   0.866   4.656  1.2025  2.5908 -1.6077
46407SOL     OW45183   0.087  12.164  11.414  0.1812 -0.7227  0.2099
46407SOL    HW145184   0.080  12.238  11.475 -1.0425 -0.8438  0.2381
46407SOL    HW245185   0.150  12.106  11.455 -1.2864 -1.2390  1.8724
46408SOL     OW45186   1.601   0.370   1.266  0.3378 -0.1812  0.6352
46408SOL    HW145187   1.604   0.337   1.177  0.9186 -2.2453  1.3478
46408SOL    HW245188   1.687   0.410   1.280  0.5563 -0.5941  0.5046
46409SOL     OW45189   3.647   8.097  11.230  0.1510  0.3232  0.4194
46409SOL    HW145190   3.555   8.115  11.249 -0.0089 -1.0721  1.1616
46409SOL    HW245191   3.656   8.115  11.137 -1.1163 -0.3678  0.1369
46410SOL     OW45192   7.192   5.124   1.271 -0.2075  0.3123 -0.1485
46410SOL    HW145193   7.249   5.076   1.331  0.8342  0.4106 -1.0338
46410SOL    HW245194   7.120   5.063   1.253  1.2186 -1.0761 -1.4637
46411SOL     OW45195   1.285   4.083  12.357 -0.3379 -0.7732 -0.3045
46411SOL    HW145196   1.304   4.088  12.264  0.7610 -0.2178 -0.0692
46411SOL    HW245197   1.334   4.007  12.388  0.9415  0.1740  0.1488
46412SOL     OW45198   0.728   6.415   0.620 -0.3566  0.3171 -0.4811
46412SOL    HW145199   0.802   6.435   0.678 -0.6764  1.5559 -0.4554
46412SOL    HW245200   0.655   6.465   0.658 -0.9624 -0.1216 -1.0555
46413SOL     OW45201   8.793  11.497  10.144  0.4060 -0.1335  0.4283
46413SOL    HW145202   8.811  11.563  10.211 -0.0833  0.9781 -0.5018
46413SOL    HW245203   8.838  11.528  10.066  0.8072 -1.3125  0.1621
46414SOL     OW45204   1.246   8.077   0.107 -0.1956 -0.1676  0.5781
46414SOL    HW145205   1.335   8.109   0.089 -0.1169  0.3577  1.8219
46414SOL    HW245206   1.202   8.082   0.022  0.8586 -0.1122  0.0100
46415SOL     OW45207   1.758   4.699  11.623 -0.2764 -0.1247 -0.0735
46415SOL    HW145208   1.843   4.683  11.582 -0.8154 -0.8787 -0.9089
46415SOL    HW245209   1.764   4.654  11.708  0.5128  0.6906  0.3323
46416SOL     OW45210   8.606   8.329   9.561  0.0333  0.1675  0.3426
46416SOL    HW145211   8.677   8.265   9.559 -0.7856 -0.7626  0.3806
46416SOL    HW245212   8.527   8.278   9.543 -0.8618  0.8678  2.0609
46417SOL     OW45213   4.148  11.511   5.255 -0.1230  0.4409 -0.0255
46417SOL    HW145214   4.210  11.566   5.206 -1.3339  0.3524 -1.7284
46417SOL    HW245215   4.062  11.544   5.230 -0.8264  0.2483  1.9327
46418SOL     OW45216   0.204   7.067   5.958 -0.2535  0.1537 -0.6747
46418SOL    HW145217   0.206   7.022   6.042 -2.2232 -1.4427 -1.4095
46418SOL    HW245218   0.275   7.026   5.908  1.5970  1.8031  0.4480
46419SOL     OW45219  10.890   9.401   8.834 -0.5422  0.0504 -0.3077
46419SOL    HW145220  10.921   9.313   8.852  1.8275  0.5050 -1.6831
46419SOL    HW245221  10.836   9.393   8.756 -3.8366 -0.6727  1.8281
46420SOL     OW45222   8.523   8.972  11.811  0.1708  0.1428  0.5978
46420SOL    HW145223   8.540   9.050  11.758  1.4015  1.5880  2.9547
46420SOL    HW245224   8.472   8.915  11.754 -1.4896  2.9692 -0.9867
46421SOL     OW45225   9.060   2.128   8.137  0.6238 -0.1784  0.1098
46421SOL    HW145226   9.088   2.183   8.064  0.1932 -0.6219 -0.3931
46421SOL    HW245227   9.058   2.187   8.212  0.4050  0.4349 -0.3770
46422SOL     OW45228   0.639   5.373   5.107  0.1959 -0.1247 -0.3052
46422SOL    HW145229   0.587   5.446   5.139  2.7994  1.8268 -0.1876
46422SOL    HW245230   0.595   5.295   5.140 -2.6631  1.3481 -0.3892
46423SOL     OW45231   8.864   3.629   4.815  0.2015  0.0092 -0.1787
46423SOL    HW145232   8.843   3.678   4.735  1.1329  0.4205 -0.1743
46423SOL    HW245233   8.884   3.541   4.784  0.8027  0.2310 -0.4276
46424SOL     OW45234   6.214   7.808   7.948 -0.1266 -0.0181 -0.3070
46424SOL    HW145235   6.214   7.824   8.042  0.1655  1.8857 -0.6022
46424SOL    HW245236   6.269   7.731   7.936 -1.5593 -1.3549  1.2096
46425SOL     OW45237   5.179   4.027   1.735  0.1080 -0.1182  0.3770
46425SOL    HW145238   5.144   4.054   1.651  2.1776  0.3369 -0.3951
46425SOL    HW245239   5.214   4.107   1.774  2.4768 -0.8554 -0.0360
46426SOL     OW45240   0.554  11.277  11.034 -0.4843  0.4376  0.1472
46426SOL    HW145241   0.464  11.262  11.063 -0.3167  0.6323  0.7984
46426SOL    HW245242   0.607  11.230  11.098 -0.1674 -1.4682 -1.4248
46427SOL     OW45243  10.144   6.719   2.539 -0.2135 -0.1731 -0.8456
46427SOL    HW145244  10.093   6.700   2.460 -0.3773  0.6421 -0.9376
46427SOL    HW245245  10.219   6.769   2.508 -1.0934  1.5301 -0.3054
46428SOL     OW45246   1.541   9.706   9.637  1.0649  0.5611  0.0283
46428SOL    HW145247   1.509   9.761   9.708  1.1293  1.1844 -0.4239
46428SOL    HW245248   1.635   9.725   9.631  0.8851  1.2624 -0.8654
46429SOL     OW45249   1.841   5.969   5.347  0.2118 -0.2612 -0.0321
46429SOL    HW145250   1.784   6.021   5.403 -1.0968 -0.4280 -1.1685
46429SOL    HW245251   1.925   6.014   5.350  0.2208 -0.3357  2.1294
46430SOL     OW45252  12.159  11.846   9.940 -0.0931 -0.0085 -0.2080
46430SOL    HW145253  12.110  11.914   9.894  0.4977  1.2207  0.9021
46430SOL    HW245254  12.093  11.800   9.992 -0.8923 -1.8860 -2.6908
46431SOL     OW45255   1.118  10.576  12.482  0.0581  0.0595 -0.0214
46431SOL    HW145256   1.043  10.571  12.423  0.5016  1.7023 -0.7581
46431SOL    HW245257   1.141  10.669  12.485  0.9883 -0.1863  1.5612
46432SOL     OW45258  10.037   4.996  11.077 -0.1839 -0.2087 -0.3774
46432SOL    HW145259  10.035   5.054  11.001 -0.3835 -0.0932 -0.2853
46432SOL    HW245260  10.103   5.034  11.135  0.9496 -1.0490 -1.0816
46433SOL     OW45261   7.009  10.611   7.816  0.1214 -0.3163 -0.2691
46433SOL    HW145262   6.931  10.618   7.760 -0.0523 -0.6525 -0.0670
46433SOL    HW245263   7.080  10.644   7.760  0.1552 -1.7521 -1.1238
46434SOL     OW45264   4.774   7.749   6.704 -0.1034 -0.5724  0.1791
46434SOL    HW145265   4.848   7.714   6.754  0.3518 -0.0690 -0.1326
46434SOL    HW245266   4.709   7.771   6.770  1.0523  1.4607  0.7311
46435SOL     OW45267   6.681   3.959   5.979 -0.1592  0.3120  0.4229
46435SOL    HW145268   6.767   3.992   5.956 -0.3891  0.4373 -0.2824
46435SOL    HW245269   6.620   4.018   5.934 -0.5766 -1.2914 -1.2298
46436SOL     OW45270   4.279   5.635   5.705 -0.3217  0.0437 -0.3289
46436SOL    HW145271   4.307   5.571   5.771 -1.6890  0.2725  0.5251
46436SOL    HW245272   4.312   5.600   5.623 -0.2598 -1.3062  0.2327
46437SOL     OW45273   7.912   0.595   9.619 -0.2191 -0.2025  0.1408
46437SOL    HW145274   7.989   0.616   9.565 -0.3588 -0.7306 -0.2791
46437SOL    HW245275   7.932   0.509   9.655 -0.4704 -0.1938  0.3012
46438SOL     OW45276   8.444   2.426   2.198 -0.2768 -0.6848  0.2362
46438SOL    HW145277   8.465   2.519   2.189  1.5108 -1.1229 -0.4984
46438SOL    HW245278   8.351   2.425   2.222 -0.1670  1.2987  0.9472
46439SOL     OW45279   7.365   3.346   0.337  0.6625  0.0403  0.0188
46439SOL    HW145280   7.437   3.328   0.276  0.5521  0.2723 -0.1798
46439SOL    HW245281   7.286   3.337   0.285  0.5627  0.1608  0.1479
46440SOL     OW45282   9.465   2.299   7.047 -0.2500 -0.9407 -0.8133
46440SOL    HW145283   9.493   2.211   7.072 -0.1648 -0.1982  1.9307
46440SOL    HW245284   9.541   2.355   7.066 -1.0801  0.0488 -0.3097
46441SOL     OW45285   6.452   8.505   3.174 -0.3405 -0.1485 -0.2478
46441SOL    HW145286   6.417   8.552   3.098  0.0896 -0.2272 -0.4982
46441SOL    HW245287   6.534   8.467   3.143 -0.8381 -1.3632 -0.1601
46442SOL     OW45288  10.593   0.424   2.599  0.0037 -0.4579 -0.4871
46442SOL    HW145289  10.681   0.460   2.606  0.0691 -0.8141  0.8811
46442SOL    HW245290  10.577   0.418   2.505  1.7492 -1.1199 -0.7870
46443SOL     OW45291   7.460   1.913   2.384 -1.1260 -0.3843 -0.0110
46443SOL    HW145292   7.530   1.960   2.430 -1.1053 -1.3320  0.9612
46443SOL    HW245293   7.435   1.972   2.313  0.9626 -0.2059 -0.6722
46444SOL     OW45294   3.132   2.672   6.641  0.4406 -0.1718  0.2394
46444SOL    HW145295   3.111   2.586   6.678  1.0745  0.1203  1.3233
46444SOL    HW245296   3.047   2.716   6.632 -0.0444 -1.3699 -1.5893
46445SOL     OW45297   7.921   4.147  12.415 -0.1528 -0.9691  0.3316
46445SOL    HW145298   7.960   4.234  12.423  0.3168 -1.0027 -1.2981
46445SOL    HW245299   7.831   4.163  12.387  0.6118 -0.9698 -2.4934
46446SOL     OW45300   0.807   3.306   2.444 -0.3168  0.0944 -0.0529
46446SOL    HW145301   0.763   3.223   2.425  0.0828 -0.3000  0.7124
46446SOL    HW245302   0.765   3.369   2.385  0.2592 -0.9011 -1.5959
46447SOL     OW45303   7.712   7.761  10.671 -0.5033 -0.5181  0.0198
46447SOL    HW145304   7.786   7.715  10.710 -0.4235  0.0976  0.6253
46447SOL    HW245305   7.640   7.698  10.675  0.0479 -1.2245 -0.8438
46448SOL     OW45306  11.022   7.778   0.054 -0.1474  0.1086 -0.2404
46448SOL    HW145307  11.004   7.770  -0.039  0.2346  0.5982 -0.3632
46448SOL    HW245308  11.096   7.839   0.059 -1.6416  1.9841  0.4852
46449SOL     OW45309   3.987   8.966   3.390  0.4094  0.0183  0.6473
46449SOL    HW145310   3.916   8.907   3.412  1.6342 -1.7341  0.1406
46449SOL    HW245311   4.020   8.933   3.306  1.7643  0.8191  0.8346
46450SOL     OW45312  11.475  11.997   7.927 -0.0855 -0.3879 -0.2560
46450SOL    HW145313  11.515  12.060   7.986  1.2450 -2.4924  1.2256
46450SOL    HW245314  11.526  12.003   7.847  1.5371 -1.1083  0.6670
46451SOL     OW45315   2.137  10.545   5.527 -0.0225  0.7262 -0.0532
46451SOL    HW145316   2.041  10.539   5.535 -0.0362  2.5667  2.4188
46451SOL    HW245317   2.155  10.638   5.536  2.1594  0.1621  2.4143
46452SOL     OW45318   8.606   5.176   5.093 -0.4493  0.0242 -0.3982
46452SOL    HW145319   8.650   5.187   5.008  1.3529 -1.8472  0.1982
46452SOL    HW245320   8.536   5.113   5.075 -3.4520  3.3434 -1.4481
46453SOL     OW45321   4.442   1.172   2.560 -0.4473 -0.0019  0.1349
46453SOL    HW145322   4.354   1.166   2.598  0.2160 -0.5271  1.6566
46453SOL    HW245323   4.499   1.130   2.624  1.0080  0.8480 -0.5470
46454SOL     OW45324   3.367   8.101  11.237  0.6588  0.2224 -0.1365
46454SOL    HW145325   3.284   8.085  11.282  1.9177 -0.0627  2.1871
46454SOL    HW245326   3.365   8.041  11.162 -0.8277 -0.4410  0.3849
46455SOL     OW45327   8.286   0.010   8.225  0.1827  0.0293 -0.0437
46455SOL    HW145328   8.326  -0.071   8.196 -0.3372 -0.3795  0.3603
46455SOL    HW245329   8.347   0.046   8.289 -0.7167 -1.3026  1.6324
46456SOL     OW45330  10.167  10.083   2.992  0.5244 -0.0532 -0.5879
46456SOL    HW145331  10.150  10.177   2.983 -3.6604 -0.6650 -1.4279
46456SOL    HW245332  10.164  10.050   2.902 -1.5933 -1.3010 -0.1505
46457SOL     OW45333   0.866   9.254  12.209  0.2719  0.1208 -0.4255
46457SOL    HW145334   0.921   9.176  12.213  0.9744  0.6490  0.9383
46457SOL    HW245335   0.894   9.307  12.284  1.0011  2.4598 -2.2196
46458SOL     OW45336   4.009  11.763   0.769  0.4516  0.0064 -0.3540
46458SOL    HW145337   3.944  11.745   0.837  1.0873  0.2411  0.3354
46458SOL    HW245338   4.093  11.742   0.811  0.7445 -1.5773 -1.6421
46459SOL     OW45339  11.977   1.474   6.654  0.2452  0.6043 -0.3626
46459SOL    HW145340  11.900   1.436   6.697  0.8197  0.0801  0.2238
46459SOL    HW245341  12.050   1.421   6.685  1.2243  2.7674  1.2345
46460SOL     OW45342   9.087  10.825   6.588 -0.2799  0.1103  0.1948
46460SOL    HW145343   9.114  10.752   6.644 -1.0077 -0.4296 -0.1384
46460SOL    HW245344   9.101  10.792   6.499  0.1929  0.6980  0.0462
46461SOL     OW45345   3.214   9.633   1.025 -0.0574  0.5222 -0.1460
46461SOL    HW145346   3.266   9.671   1.095 -0.3955  0.5115  0.1144
46461SOL    HW245347   3.153   9.573   1.069 -1.7394  2.0975 -0.1917
46462SOL     OW45348   3.614   4.423   4.075  0.1872 -0.0682  0.2167
46462SOL    HW145349   3.705   4.450   4.080  0.2684 -0.3062  0.0296
46462SOL    HW245350   3.565   4.495   4.115  0.4144  0.3044 -0.1623
46463SOL     OW45351   0.588   9.977   1.994 -0.4758  0.3587 -0.4557
46463SOL    HW145352   0.561  10.032   2.068 -2.0353 -1.7525  0.6294
46463SOL    HW245353   0.516   9.915   1.982  0.7855 -0.8542 -2.2441
46464SOL     OW45354   0.084   7.737   1.934 -0.4615 -0.5556 -0.1974
46464SOL    HW145355   0.005   7.740   1.987  0.1951  2.2270  0.7887
46464SOL    HW245356   0.053   7.719   1.845 -2.3536  1.2848  0.0183
46465SOL     OW45357  10.937   3.322   8.503 -0.6609  0.5101  0.6517
46465SOL    HW145358  10.966   3.329   8.594 -1.6050 -2.2453  1.2548
46465SOL    HW245359  10.893   3.406   8.486 -0.3878  1.1364  2.6909
46466SOL     OW45360   2.839   2.227  10.404  0.1585 -0.4834  0.5447
46466SOL    HW145361   2.920   2.276  10.421  0.0685 -0.5040  1.0459
46466SOL    HW245362   2.796   2.221  10.489 -0.9952  0.6168  0.0632
46467SOL     OW45363   2.338  11.093   1.573 -0.2049  0.4617 -0.4367
46467SOL    HW145364   2.347  11.167   1.633 -0.1690 -0.1706  0.3596
46467SOL    HW245365   2.377  11.123   1.491  0.9141  0.9033  0.2388
46468SOL     OW45366   6.076   5.466  12.473  0.1562  0.4390 -0.2777
46468SOL    HW145367   6.049   5.390  12.422  0.7600 -0.5274  0.8029
46468SOL    HW245368   5.993   5.504  12.503 -0.1499  0.1835 -0.7734
46469SOL     OW45369   5.239   7.410   4.197  0.2494 -0.0546 -0.0629
46469SOL    HW145370   5.317   7.424   4.144 -0.9232 -1.7529 -2.4350
46469SOL    HW245371   5.171   7.462   4.154 -0.4335 -0.3191  0.6614
46470SOL     OW45372   2.749   0.840   9.212  0.0756 -0.0556  0.2550
46470SOL    HW145373   2.788   0.916   9.170 -0.4165 -0.6533 -1.3456
46470SOL    HW245374   2.813   0.771   9.201 -0.3904 -0.4188 -0.2506
46471SOL     OW45375   6.341   1.254   4.290 -0.0763 -0.0468  0.0213
46471SOL    HW145376   6.256   1.294   4.269 -0.5307 -1.0666 -0.1131
46471SOL    HW245377   6.322   1.161   4.303  1.3535 -0.7199 -2.1482
46472SOL     OW45378   5.097   6.852  10.203  0.1838 -0.1827  0.2228
46472SOL    HW145379   5.188   6.835  10.229 -0.3581  0.7638  3.2021
46472SOL    HW245380   5.051   6.866  10.286 -2.0721  2.3582 -1.2736
46473SOL     OW45381   6.195   6.500   4.862  0.4636 -0.3992 -0.5392
46473SOL    HW145382   6.180   6.421   4.913 -0.1807 -1.1508 -1.8409
46473SOL    HW245383   6.284   6.491   4.829  0.9161  0.1359  0.5144
46474SOL     OW45384   5.198   9.994   7.928 -0.7365  0.1513 -0.3549
46474SOL    HW145385   5.219   9.903   7.908  0.4604  0.3849 -0.2280
46474SOL    HW245386   5.218  10.003   8.021 -0.2494  0.7077 -0.5101
46475SOL     OW45387   3.271   0.828   1.453 -0.5629  0.3547 -0.7169
46475SOL    HW145388   3.236   0.856   1.369  0.1293 -0.8551 -1.4340
46475SOL    HW245389   3.222   0.748   1.475  1.6367 -1.3937 -1.7574
46476SOL     OW45390   7.349   1.590   9.191  0.1449  0.3279 -0.0145
46476SOL    HW145391   7.313   1.677   9.175  2.1046  1.0429 -0.8618
46476SOL    HW245392   7.302   1.533   9.131 -0.1034  1.0899 -0.5520
46477SOL     OW45393   9.520  11.254  10.704  0.2356 -0.7477 -0.0305
46477SOL    HW145394   9.459  11.317  10.742  2.7939  1.8968  0.0931
46477SOL    HW245395   9.470  11.210  10.636 -1.8729  1.1773  0.1582
46478SOL     OW45396   4.828   8.809   7.057 -0.2480  0.2992  0.0931
46478SOL    HW145397   4.906   8.810   7.001  0.3009 -1.6078  0.7583
46478SOL    HW245398   4.763   8.760   7.008 -0.1581 -0.3527  0.6113
46479SOL     OW45399   4.221   6.351   3.030 -0.1504  0.2443  0.4565
46479SOL    HW145400   4.277   6.292   2.979 -0.1703  0.6309 -0.0143
46479SOL    HW245401   4.133   6.336   2.996  0.1202  2.1697 -1.2734
46480SOL     OW45402   2.418   5.404   6.999  0.0305  0.3590  0.4609
46480SOL    HW145403   2.467   5.347   7.059  0.0332  0.2830  0.3871
46480SOL    HW245404   2.392   5.479   7.053 -0.3080  0.1053  0.6570
46481SOL     OW45405   2.044   5.076   9.611  0.0733  0.5606 -0.1931
46481SOL    HW145406   2.018   5.157   9.655  0.2784  2.0518 -2.6454
46481SOL    HW245407   1.984   5.069   9.537 -0.9153 -2.4094  0.7622
46482SOL     OW45408   1.404  11.883   7.270  0.4669  0.2287 -0.2542
46482SOL    HW145409   1.326  11.908   7.321 -0.6066 -0.7200 -1.3835
46482SOL    HW245410   1.453  11.965   7.262  0.4773  0.4982  1.9354
46483SOL     OW45411   3.838   9.300  11.991 -0.1986 -0.4880  0.3721
46483SOL    HW145412   3.888   9.298  12.073 -0.4312  0.1763  0.5439
46483SOL    HW245413   3.811   9.210  11.977  0.4599 -0.7329  0.6444
46484SOL     OW45414  10.525  10.670   4.964 -0.4997 -0.0909  0.1061
46484SOL    HW145415  10.589  10.685   5.033 -0.7716 -0.9850  0.5665
46484SOL    HW245416  10.490  10.582   4.982 -1.5737  0.2243 -0.3442
46485SOL     OW45417   1.919  11.159   3.830 -0.6353  0.3132  0.0512
46485SOL    HW145418   1.847  11.149   3.893 -1.8424  1.0190 -1.1532
46485SOL    HW245419   1.933  11.070   3.795 -2.4309  0.4629 -1.2297
46486SOL     OW45420   0.211   1.048   3.376 -0.1058 -0.3073 -0.2954
46486SOL    HW145421   0.183   0.964   3.340 -1.6639  0.4851 -1.0498
46486SOL    HW245422   0.169   1.052   3.462 -1.1125  0.2483 -0.8065
46487SOL     OW45423   9.058  10.729   6.303 -0.4062 -0.7179 -0.7698
46487SOL    HW145424   9.129  10.784   6.270  0.5143  0.1413  2.3596
46487SOL    HW245425   9.092  10.639   6.295  0.8113 -0.3580  0.0819
46488SOL     OW45426   9.714   9.044   3.896 -0.1111 -0.6286  0.6389
46488SOL    HW145427   9.706   9.037   3.801  0.6334  0.8486  0.4346
46488SOL    HW245428   9.807   9.029   3.913 -0.4156 -1.9115  1.2603
46489SOL     OW45429   6.543   8.354  12.425 -0.0916  0.0226  0.5023
46489SOL    HW145430   6.488   8.415  12.376 -0.1281  1.1024  1.8264
46489SOL    HW245431   6.622   8.403  12.447 -0.3967 -0.1381  2.1621
46490SOL     OW45432   9.918   2.951   3.411  0.3078  0.5495 -0.1275
46490SOL    HW145433   9.833   2.959   3.454  0.6806  0.7194  0.5890
46490SOL    HW245434   9.982   2.973   3.479  0.9954 -0.9643 -0.2435
46491SOL     OW45435   0.079   2.680   9.497  0.1179 -0.4064 -0.3588
46491SOL    HW145436   0.014   2.612   9.477  0.7035 -0.9752 -0.3619
46491SOL    HW245437   0.160   2.632   9.513  0.6252  0.3132 -0.6934
46492SOL     OW45438   3.038   8.235  11.600  0.1830 -0.5383 -0.5047
46492SOL    HW145439   3.040   8.318  11.552  2.1429  0.1194  0.5908
46492SOL    HW245440   3.033   8.168  11.532  1.7074  0.3961 -1.5935
46493SOL     OW45441   1.865   4.946  11.753 -0.0574 -0.0136 -0.1506
46493SOL    HW145442   1.848   4.874  11.692  1.5235 -0.2452 -0.3428
46493SOL    HW245443   1.935   4.996  11.712  2.8145 -1.5619  2.5348
46494SOL     OW45444   9.081   8.968   5.398 -0.2325 -0.3065  0.1642
46494SOL    HW145445   9.072   8.927   5.312  0.1090 -0.9214  0.4130
46494SOL    HW245446   9.015   9.037   5.398 -0.0271 -0.0924 -0.7072
46495SOL     OW45447   5.166   9.357   9.491 -0.0609  0.3269  0.6445
46495SOL    HW145448   5.242   9.314   9.452 -0.4092  1.1162 -0.9744
46495SOL    HW245449   5.198   9.443   9.518 -0.1786  0.3434  0.7323
46496SOL     OW45450   7.629   7.407   8.726 -0.4360 -0.2759 -0.4119
46496SOL    HW145451   7.540   7.406   8.761 -0.7852 -2.7480 -1.1824
46496SOL    HW245452   7.628   7.475   8.658 -1.7935 -0.3684 -0.5029
46497SOL     OW45453   5.138   8.090  12.489 -0.1592  0.4075  0.2118
46497SOL    HW145454   5.092   8.061  12.410  0.1859  0.3578  0.0262
46497SOL    HW245455   5.230   8.093  12.463  0.1177 -0.8413  0.9879
46498SOL     OW45456  12.126   4.648  10.486 -0.3611  0.0082 -0.2257
46498SOL    HW145457  12.083   4.680  10.565 -0.6925 -0.8148 -0.0611
46498SOL    HW245458  12.174   4.570  10.514  2.2639  1.5349 -0.1553
46499SOL     OW45459   0.463  11.606  11.136 -0.4474  0.4534  0.5197
46499SOL    HW145460   0.557  11.594  11.133 -0.5256 -0.1014  0.1886
46499SOL    HW245461   0.438  11.627  11.046 -0.4888  1.8209  0.8326
46500SOL     OW45462  10.098   6.830   5.288  0.3524 -0.1307  0.1472
46500SOL    HW145463  10.180   6.780   5.288  0.2546 -0.2977  0.9163
46500SOL    HW245464  10.030   6.763   5.295  0.2399  0.1245  1.7321
46501SOL     OW45465   1.339   4.244   3.072  0.3085  0.6930 -0.0466
46501SOL    HW145466   1.383   4.329   3.075 -1.9088  1.9108  0.5949
46501SOL    HW245467   1.246   4.266   3.073 -0.3379 -1.7734  0.9435
46502SOL     OW45468   6.230   5.646   7.506 -0.0119 -0.4775  0.2310
46502SOL    HW145469   6.284   5.712   7.461 -1.2014  1.2020  1.1477
46502SOL    HW245470   6.165   5.620   7.441 -1.4652  1.6313  0.7372
46503SOL     OW45471   0.695   7.638   3.467 -0.1813  0.0061  0.2006
46503SOL    HW145472   0.690   7.564   3.527  2.1156  0.1404  0.6263
46503SOL    HW245473   0.642   7.706   3.508  0.9339 -0.0716  1.8294
46504SOL     OW45474  10.461   0.795   3.869  0.0548 -0.5062 -0.2327
46504SOL    HW145475  10.419   0.792   3.784 -0.2732 -0.7647 -0.0633
46504SOL    HW245476  10.555   0.794   3.850 -0.0143 -0.0271 -0.6046
46505SOL     OW45477  11.443  11.755   4.750  0.3904 -0.0028  0.1899
46505SOL    HW145478  11.399  11.701   4.815  1.0398  0.1083  0.7441
46505SOL    HW245479  11.373  11.795   4.699 -0.0985 -1.1380 -0.0415
46506SOL     OW45480   2.391   4.878   4.399 -0.1786  0.2806  0.4722
46506SOL    HW145481   2.296   4.869   4.395 -0.4590  2.5937  0.7600
46506SOL    HW245482   2.413   4.861   4.491 -0.4058  0.4507  0.5576
46507SOL     OW45483  10.295   5.314  12.382 -0.0656  0.1053  0.0616
46507SOL    HW145484  10.318   5.224  12.359  0.5849  0.3773 -0.4166
46507SOL    HW245485  10.374   5.348  12.425 -0.8979 -0.0677  1.8137
46508SOL     OW45486   2.291  10.666   2.203 -0.2951 -0.2056  0.3449
46508SOL    HW145487   2.277  10.719   2.281 -2.3726 -0.4035  0.1560
46508SOL    HW245488   2.255  10.718   2.132 -0.6272 -1.0557 -0.1201
46509SOL     OW45489   0.146   9.791   3.333 -0.3919 -0.2880  0.5903
46509SOL    HW145490   0.217   9.732   3.306  0.9945  2.4810 -2.6645
46509SOL    HW245491   0.073   9.769   3.275 -0.6734 -0.3808  0.9849
46510SOL     OW45492  11.240   2.640   0.641  0.6182 -0.2717 -0.4873
46510SOL    HW145493  11.262   2.609   0.728 -0.9676 -1.6183 -0.5021
46510SOL    HW245494  11.245   2.735   0.647 -0.5133 -0.2778  1.4106
46511SOL     OW45495   5.178   9.258   2.603 -0.1645 -0.7512  0.2174
46511SOL    HW145496   5.189   9.184   2.544  0.2518 -0.7535  0.2950
46511SOL    HW245497   5.264   9.269   2.645 -0.4328 -0.7075  0.7731
46512SOL     OW45498   8.859  10.220   5.293 -0.5863 -0.4284  0.2423
46512SOL    HW145499   8.914  10.256   5.363  0.8882 -0.0251 -1.0766
46512SOL    HW245500   8.909  10.147   5.258 -1.6693 -1.1306  0.1079
46513SOL     OW45501   7.703   3.050   6.600  0.3189 -0.2287 -0.3443
46513SOL    HW145502   7.610   3.054   6.580  0.0850 -1.7483  0.2576
46513SOL    HW245503   7.713   2.969   6.652  1.7376  0.6605  0.8603
46514SOL     OW45504   1.696   8.164   6.859  0.5153  0.0868 -0.6548
46514SOL    HW145505   1.761   8.171   6.928  0.7104  1.1347 -0.9299
46514SOL    HW245506   1.744   8.127   6.784  0.7028  0.4827 -0.7322
46515SOL     OW45507  12.209  10.542   5.275 -0.2508 -0.1793 -0.1121
46515SOL    HW145508  12.211  10.503   5.362  2.4555  0.6106  0.2408
46515SOL    HW245509  12.207  10.467   5.215  1.0495 -0.8039  0.6048
46516SOL     OW45510   9.295   5.016   4.577  0.3779  0.0532  0.2469
46516SOL    HW145511   9.201   5.022   4.559  0.3090  1.7364  0.9032
46516SOL    HW245512   9.328   4.953   4.514 -0.8260  1.1452 -1.5821
46517SOL     OW45513   9.763   9.700   8.827 -0.3026  0.0737  0.1152
46517SOL    HW145514   9.821   9.625   8.810 -0.8236 -0.2722 -0.1871
46517SOL    HW245515   9.675   9.661   8.832 -0.4591  0.5360  0.9904
46518SOL     OW45516   0.706   1.353   5.417  0.7149  0.0650  0.4283
46518SOL    HW145517   0.670   1.403   5.343 -0.1084 -0.6290  0.3480
46518SOL    HW245518   0.702   1.262   5.390  0.5463 -0.1900  1.2617
46519SOL     OW45519   0.369   1.911   8.138 -0.3870 -0.6192 -0.0008
46519SOL    HW145520   0.302   1.872   8.195 -0.1483 -1.3073 -0.1765
46519SOL    HW245521   0.415   1.835   8.101  1.8936 -0.2122  1.7513
46520SOL     OW45522   1.630   6.427  11.601 -0.0178 -0.3647 -0.4018
46520SOL    HW145523   1.700   6.484  11.632 -0.4282 -0.8868  1.6758
46520SOL    HW245524   1.589   6.393  11.681 -1.3608 -1.6420 -1.5511
46521SOL     OW45525   0.983  11.829  10.300 -0.5732 -0.4372 -0.6244
46521SOL    HW145526   1.059  11.821  10.242  1.1310 -0.5330  1.4706
46521SOL    HW245527   1.004  11.903  10.358 -2.0450 -0.5201  0.0692
46522SOL     OW45528   9.473  12.210   9.935 -0.3544  0.1862 -0.5602
46522SOL    HW145529   9.553  12.253   9.966  0.7642 -3.3044  2.0902
46522SOL    HW245530   9.413  12.214  10.009 -1.6853  0.4601 -1.6092
46523SOL     OW45531   3.614   1.291   0.089 -0.3686  0.0219  0.3735
46523SOL    HW145532   3.533   1.330   0.122 -0.3970 -0.0689  0.4131
46523SOL    HW245533   3.616   1.313  -0.004 -0.5998 -0.2471  0.3034
46524SOL     OW45534  12.456   1.746  11.223 -0.3954  0.0970  0.2461
46524SOL    HW145535  12.528   1.803  11.195  0.3180 -0.2942  1.2108
46524SOL    HW245536  12.439   1.689  11.148 -0.6886  1.1528 -0.5007
46525SOL     OW45537   4.488  11.115   0.395  0.0014  0.3598 -0.1355
46525SOL    HW145538   4.428  11.071   0.334 -1.7404  0.7345  1.2290
46525SOL    HW245539   4.482  11.063   0.475  1.5180  0.4300  0.0487
46526SOL     OW45540  11.504   3.145   4.911  0.2014  0.5767  0.2906
46526SOL    HW145541  11.505   3.082   4.839  1.6380 -0.0490  0.8263
46526SOL    HW245542  11.415   3.141   4.946 -0.1573 -0.0065 -0.6613
46527SOL     OW45543   5.918   2.454   5.839 -0.5068 -0.0053  0.5559
46527SOL    HW145544   5.890   2.495   5.757 -1.0067 -0.1091  0.6707
46527SOL    HW245545   6.013   2.466   5.841 -0.5824  0.6803  0.3347
46528SOL     OW45546  10.267   0.669   5.910  0.6696  0.5065 -0.3884
46528SOL    HW145547  10.309   0.669   5.996 -0.2362  0.8834  0.0632
46528SOL    HW245548  10.183   0.712   5.924 -0.2593 -0.9809 -1.0738
46529SOL     OW45549   8.593   8.187   4.325  0.5526 -0.0552 -0.0969
46529SOL    HW145550   8.649   8.228   4.391  1.1500  0.0800 -0.6789
46529SOL    HW245551   8.573   8.258   4.263 -1.9114  0.4266  1.1312
46530SOL     OW45552   8.864   1.055   7.999 -0.0487  0.8470 -0.1051
46530SOL    HW145553   8.779   1.018   8.023  1.1452 -2.0662 -0.0129
46530SOL    HW245554   8.888   1.010   7.919  1.8892  0.8325  0.4393
46531SOL     OW45555   9.840   2.136   1.309  0.1324  0.1273  0.5651
46531SOL    HW145556   9.859   2.148   1.402  0.0477 -2.1320  0.9394
46531SOL    HW245557   9.819   2.223   1.277  2.8212  1.4364  2.0230
46532SOL     OW45558  11.869   6.318   3.842 -0.4526  0.1058  0.2439
46532SOL    HW145559  11.921   6.356   3.913  1.1600 -0.3303 -0.6440
46532SOL    HW245560  11.860   6.388   3.778  0.2175 -0.2044 -0.2003
46533SOL     OW45561   9.538   1.710  12.238  0.1996  0.0368 -0.5671
46533SOL    HW145562   9.630   1.689  12.221  0.5710  1.5083 -0.5860
46533SOL    HW245563   9.542   1.768  12.314 -0.7500 -0.1610 -0.3640
46534SOL     OW45564  12.388   1.359   5.483  0.2231  0.0035  0.2828
46534SOL    HW145565  12.364   1.440   5.528 -0.2239 -0.7501  1.4402
46534SOL    HW245566  12.382   1.381   5.390 -1.3065  0.9091  0.5584
46535SOL     OW45567   0.149   0.917   5.816  0.2795  0.0628  0.3612
46535SOL    HW145568   0.114   0.857   5.882 -1.8999  1.6720  0.7944
46535SOL    HW245569   0.078   0.926   5.752  1.5815  0.1264 -1.1335
46536SOL     OW45570   9.043   3.955   6.024  0.4835 -0.1489 -0.7256
46536SOL    HW145571   9.127   3.947   5.979  1.7706  1.8437  1.1029
46536SOL    HW245572   9.034   3.874   6.073 -0.2055 -1.6885 -3.2276
46537SOL     OW45573   8.690   5.242   7.982 -0.1329 -0.0856  0.9418
46537SOL    HW145574   8.679   5.165   8.036  1.9009 -1.0792  0.0264
46537SOL    HW245575   8.782   5.243   7.958 -0.7205  0.8585 -1.6718
46538SOL     OW45576   4.210   4.937   7.033 -0.3221  0.6628 -0.1353
46538SOL    HW145577   4.150   4.867   7.009  0.0424  0.7101 -1.2736
46538SOL    HW245578   4.249   4.964   6.949  0.7661  1.0887  0.4924
46539SOL     OW45579   7.518   7.319   6.855  0.3021  0.0991 -0.4185
46539SOL    HW145580   7.538   7.318   6.948 -2.2727  1.1414  0.2449
46539SOL    HW245581   7.548   7.405   6.825 -1.6944  1.0964  0.2568
46540SOL     OW45582   2.803   9.651  11.222  0.0282  0.7499  0.2254
46540SOL    HW145583   2.742   9.671  11.293  0.7500 -0.2735  1.1717
46540SOL    HW245584   2.856   9.731  11.212  0.0043  0.8561  0.9276
46541SOL     OW45585   0.169   2.093   0.593  0.6007  0.1738  0.4761
46541SOL    HW145586   0.125   2.177   0.580 -0.1108 -0.3899 -1.0674
46541SOL    HW245587   0.239   2.112   0.655 -0.5922  1.5292  1.4806
46542SOL     OW45588   9.667   0.800   2.180 -0.2297 -0.0914 -0.1345
46542SOL    HW145589   9.658   0.730   2.244  2.2088  0.3406  0.8278
46542SOL    HW245590   9.616   0.872   2.216  1.5857  0.3513  1.7864
46543SOL     OW45591   4.581   5.291   2.145  0.0245 -0.2702  0.2722
46543SOL    HW145592   4.617   5.264   2.061 -2.3764 -1.7622 -0.3650
46543SOL    HW245593   4.655   5.284   2.206  2.0219  1.6242 -1.7722
46544SOL     OW45594   8.030   7.417   1.817  0.4784 -0.1926 -0.5112
46544SOL    HW145595   7.970   7.346   1.795  0.5982 -0.5716  0.3529
46544SOL    HW245596   8.030   7.420   1.913  0.4938  0.9597 -0.5314
46545SOL     OW45597   0.276  11.000   7.706 -0.4490  0.0486 -0.7024
46545SOL    HW145598   0.206  10.938   7.687  0.2040 -1.2141  0.8218
46545SOL    HW245599   0.253  11.079   7.657 -1.8214 -1.0566 -1.8827
46546SOL     OW45600   5.817   5.281   4.598 -0.3068 -0.5366  0.2309
46546SOL    HW145601   5.827   5.257   4.690 -1.2813 -0.0766  0.4731
46546SOL    HW245602   5.866   5.363   4.589 -2.4646  0.9385  1.0571
46547SOL     OW45603   6.009  11.782   2.622  0.2983  0.0566 -0.2093
46547SOL    HW145604   5.997  11.874   2.599  0.1163 -0.0044 -0.3592
46547SOL    HW245605   6.062  11.784   2.702 -0.4094  0.3194  0.2578
46548SOL     OW45606   0.363   0.105   3.328  0.1425 -0.2150  0.2167
46548SOL    HW145607   0.455   0.092   3.304  0.3893  0.0918  0.9568
46548SOL    HW245608   0.317   0.115   3.244  0.4612 -2.2884 -0.2620
46549SOL     OW45609   5.231  12.297   0.541 -0.1983 -0.0454 -0.1391
46549SOL    HW145610   5.173  12.356   0.589 -1.2760 -2.2857  1.5200
46549SOL    HW245611   5.286  12.258   0.608 -0.0707 -1.4907 -1.0435
46550SOL     OW45612  10.800   3.181   3.167  0.6963 -0.6725  0.8323
46550SOL    HW145613  10.748   3.228   3.102  1.9739 -1.2249 -0.6749
46550SOL    HW245614  10.756   3.198   3.251 -0.2656  1.1551  0.0219
46551SOL     OW45615  11.999   2.775   4.787 -0.2188 -0.0327 -0.7092
46551SOL    HW145616  12.027   2.731   4.707 -0.4419 -1.4465 -0.0406
46551SOL    HW245617  11.963   2.858   4.757 -1.3790 -1.0122 -2.2038
46552SOL     OW45618   1.822   2.869   4.826 -0.2015 -0.1116 -0.0665
46552SOL    HW145619   1.912   2.838   4.836  0.1817  0.8323 -0.4792
46552SOL    HW245620   1.775   2.795   4.786  0.3321 -0.6886  0.3620
46553SOL     OW45621  11.803   4.739   6.211  0.3247 -0.1057 -0.3080
46553SOL    HW145622  11.711   4.714   6.204  0.2957  0.2858 -1.5388
46553SOL    HW245623  11.851   4.666   6.172  0.6136 -0.6828  1.0696
46554SOL     OW45624   8.148   2.400   4.630 -0.1389 -0.3207 -0.4248
46554SOL    HW145625   8.055   2.410   4.609 -0.2354  0.1046  0.1778
46554SOL    HW245626   8.152   2.319   4.682  0.1044 -1.3934 -2.0636
46555SOL     OW45627   9.384   8.685   5.113 -0.3118 -0.3616 -0.1608
46555SOL    HW145628   9.442   8.700   5.187  0.4321  0.2363 -0.8337
46555SOL    HW245629   9.416   8.605   5.072  0.2187  0.0931 -0.6681
46556SOL     OW45630   8.609   5.923   7.943  0.2166  0.2410  0.4743
46556SOL    HW145631   8.670   5.867   7.991 -0.3313 -0.6033  0.2225
46556SOL    HW245632   8.665   5.987   7.899  0.8732 -0.1234  0.7539
46557SOL     OW45633   1.302   8.293   5.480 -0.1026 -0.3589 -0.3360
46557SOL    HW145634   1.338   8.331   5.400  0.3742  1.6835  0.7693
46557SOL    HW245635   1.212   8.325   5.483  0.2981  0.7268  0.6035
46558SOL     OW45636   9.725   3.196   5.741  0.2652  0.4086 -0.4010
46558SOL    HW145637   9.656   3.137   5.710  1.3023 -1.2832  0.3578
46558SOL    HW245638   9.781   3.141   5.795  1.2808  2.1330  0.3825
46559SOL     OW45639   2.069   9.807   4.149  0.7465  0.3680 -0.0730
46559SOL    HW145640   2.084   9.814   4.243  2.0921 -0.6316 -0.1888
46559SOL    HW245641   2.156   9.800   4.111  0.1587 -1.5048 -1.1977
46560SOL     OW45642   8.336  10.546   5.729 -0.0592  0.0568  0.0294
46560SOL    HW145643   8.361  10.560   5.821  0.7295 -1.5084  0.0879
46560SOL    HW245644   8.361  10.455   5.711 -0.6283  0.1947 -1.6086
46561SOL     OW45645  10.355   8.433   0.108 -0.0167 -0.0442  0.3068
46561SOL    HW145646  10.434   8.403   0.152 -0.8016 -3.5021 -0.3329
46561SOL    HW245647  10.385   8.463   0.022  0.8391  1.2623  1.0231
46562SOL     OW45648   1.075   0.879   9.243 -0.4505 -0.2487 -0.2696
46562SOL    HW145649   1.022   0.840   9.313  0.4636  0.3222  0.7714
46562SOL    HW245650   1.028   0.857   9.163 -2.3483  0.3535  0.6064
46563SOL     OW45651   6.961   2.871  11.444  0.9149  0.2247 -0.1210
46563SOL    HW145652   7.051   2.887  11.472  1.0771 -0.7731 -0.0380
46563SOL    HW245653   6.940   2.946  11.388  2.7242 -0.7570 -2.2721
46564SOL     OW45654   4.838   4.364   5.623  0.1562 -0.4655  0.0611
46564SOL    HW145655   4.893   4.419   5.679  0.3632 -0.3888 -0.2180
46564SOL    HW245656   4.756   4.356   5.672 -0.1135  0.6123 -0.1813
46565SOL     OW45657  10.530  11.425   5.860 -0.0476 -0.0248 -0.1260
46565SOL    HW145658  10.452  11.371   5.864 -1.0881  1.4796  1.4835
46565SOL    HW245659  10.524  11.471   5.776 -0.4107 -0.5905 -0.4124
46566SOL     OW45660   1.196   6.836   4.678  0.4063 -0.1679 -0.0023
46566SOL    HW145661   1.218   6.870   4.764 -0.4701  0.2311  0.0669
46566SOL    HW245662   1.263   6.873   4.620  1.7366 -1.3912  0.6614
46567SOL     OW45663   3.885   4.120   0.512 -0.5628 -0.1062 -0.1979
46567SOL    HW145664   3.837   4.177   0.572  0.2277  0.2118  0.1545
46567SOL    HW245665   3.886   4.167   0.429 -0.0209  0.3556  0.0577
46568SOL     OW45666  11.671   7.580   1.137  0.3331 -0.0682 -0.3615
46568SOL    HW145667  11.742   7.610   1.081  0.0866  2.5495  0.5751
46568SOL    HW245668  11.598   7.564   1.078  0.5304  1.1511 -0.9661
46569SOL     OW45669   8.605   4.458   7.286  0.9154  0.4203 -0.2910
46569SOL    HW145670   8.601   4.363   7.296  2.5565  0.5412  2.1894
46569SOL    HW245671   8.533   4.491   7.340 -0.3000  0.6147 -1.9530
46570SOL     OW45672   4.036   8.516   3.853 -0.4682 -0.0051 -0.3580
46570SOL    HW145673   4.013   8.424   3.865  0.8841 -0.5470 -1.6445
46570SOL    HW245674   4.037   8.529   3.758  0.2797  1.0794 -0.2216
46571SOL     OW45675   8.429   4.284  11.225 -0.3876  0.0955  0.0975
46571SOL    HW145676   8.399   4.196  11.202 -1.0414  0.7551 -1.7830
46571SOL    HW245677   8.481   4.272  11.304  0.2767 -2.0938 -0.6056
46572SOL     OW45678   8.014  12.276   4.099 -0.2619  0.1131 -0.4514
46572SOL    HW145679   7.995  12.227   4.179  1.0513  0.4214  0.0649
46572SOL    HW245680   8.001  12.368   4.122  1.1337  0.2900 -0.2542
46573SOL     OW45681   7.419   4.827   5.354  0.0322 -0.2996  0.4776
46573SOL    HW145682   7.444   4.858   5.441 -1.1067  0.5232  0.5303
46573SOL    HW245683   7.389   4.906   5.308  1.5363 -0.5304 -1.0189
46574SOL     OW45684  10.982  10.864  11.642  0.3907 -0.2530 -0.0626
46574SOL    HW145685  11.045  10.924  11.683 -0.6390  0.1369  0.9985
46574SOL    HW245686  10.957  10.804  11.712 -0.9526  0.0407 -0.2684
46575SOL     OW45687  11.069  10.942   0.403  0.3665  0.3290  0.0911
46575SOL    HW145688  11.070  10.920   0.496 -1.2936 -2.0030 -0.3574
46575SOL    HW245689  11.002  11.011   0.395 -1.1164 -1.0293  0.3763
46576SOL     OW45690   3.629   7.393   3.340 -0.2757 -0.5020 -0.2261
46576SOL    HW145691   3.536   7.411   3.354 -0.2715 -1.5323  1.3387
46576SOL    HW245692   3.653   7.449   3.266 -1.5047  1.8060  1.0038
46577SOL     OW45693   4.292   0.007   5.180 -0.8451  0.4211  0.3055
46577SOL    HW145694   4.236   0.070   5.134 -1.7941  0.9121  2.0292
46577SOL    HW245695   4.374   0.054   5.194 -0.4437  0.1690 -1.0739
46578SOL     OW45696   4.699   0.218   8.384  0.3235  0.0998 -0.3305
46578SOL    HW145697   4.613   0.183   8.406  0.0100 -0.3621 -2.1404
46578SOL    HW245698   4.750   0.209   8.465 -1.3733  0.6241  0.8599
46579SOL     OW45699   3.385   1.086  11.697 -0.6946  0.4282 -0.9071
46579SOL    HW145700   3.313   1.030  11.726  0.3521 -1.4869 -1.8332
46579SOL    HW245701   3.358   1.174  11.722 -1.4136 -0.6583  2.7383
46580SOL     OW45702   4.613   4.227   9.401 -0.4112 -0.6353  0.2864
46580SOL    HW145703   4.636   4.156   9.461  0.2002 -0.4924  0.2302
46580SOL    HW245704   4.602   4.185   9.316 -2.5593 -1.0436  0.7076
46581SOL     OW45705   4.667   6.118  10.263 -0.6740 -0.5024  0.0848
46581SOL    HW145706   4.724   6.048  10.229 -0.8233  0.2555 -1.8272
46581SOL    HW245707   4.724   6.167  10.323  0.1030 -0.9396 -0.2706
46582SOL     OW45708   7.088   1.177   5.536  0.1651  0.1131  0.2753
46582SOL    HW145709   6.995   1.197   5.523  0.1910  0.1822  0.1984
46582SOL    HW245710   7.097   1.165   5.630  0.1228  0.3325  0.3078
46583SOL     OW45711   2.134  11.615   7.399 -0.2487  0.2089  0.0004
46583SOL    HW145712   2.095  11.620   7.312  0.0437 -0.4818 -0.1813
46583SOL    HW245713   2.059  11.616   7.459 -0.5116 -0.3377 -0.3089
46584SOL     OW45714   9.216   5.762   5.321  0.5248  0.4116 -0.2015
46584SOL    HW145715   9.239   5.800   5.236  0.2023  0.8347 -0.1031
46584SOL    HW245716   9.125   5.788   5.335  0.1893 -0.6500 -0.2607
46585SOL     OW45717   4.662   9.875   6.916  0.6234 -1.3336 -0.1577
46585SOL    HW145718   4.605   9.952   6.905  0.2341 -1.4059  1.1559
46585SOL    HW245719   4.749   9.906   6.891  0.4840 -0.4359  0.4191
46586SOL     OW45720   1.958   5.706  12.366 -0.2141  0.4365 -0.4044
46586SOL    HW145721   1.935   5.668  12.282  2.4162 -0.2565 -0.9226
46586SOL    HW245722   2.019   5.777  12.345  2.0173 -0.9594  0.8769
46587SOL     OW45723   3.545   6.346   4.591  0.2461  0.2878  0.0007
46587SOL    HW145724   3.575   6.266   4.635  1.6001  1.6275  1.6911
46587SOL    HW245725   3.459   6.363   4.628  0.8414  0.7057  1.2718
46588SOL     OW45726   4.528   5.607   7.196  0.0028 -0.1431 -0.0142
46588SOL    HW145727   4.547   5.513   7.189 -0.9821 -0.3048 -0.7728
46588SOL    HW245728   4.583   5.637   7.268 -0.5794 -1.5482  1.0719
46589SOL     OW45729   9.555   9.050   1.294 -0.1817  0.2407 -0.1945
46589SOL    HW145730   9.649   9.055   1.276 -0.1054 -0.9289 -0.2225
46589SOL    HW245731   9.522   9.137   1.272  0.8734  0.6445 -0.2778
46590SOL     OW45732   9.308   7.213   7.662 -0.0173 -0.1240  0.0684
46590SOL    HW145733   9.325   7.287   7.603 -0.8780  0.4439  0.4962
46590SOL    HW245734   9.379   7.152   7.646 -0.2172  0.0254 -1.5395
46591SOL     OW45735   2.756  10.200  12.333 -0.2612 -0.5549 -0.3767
46591SOL    HW145736   2.825  10.134  12.344 -0.5997 -1.0988 -1.3309
46591SOL    HW245737   2.783  10.251  12.257  1.2728  2.1123  1.7844
46592SOL     OW45738   5.875  10.925   8.321  0.0198 -0.1463 -0.1746
46592SOL    HW145739   5.836  10.838   8.329  0.2990 -0.2216  0.4079
46592SOL    HW245740   5.805  10.979   8.284  0.7502 -1.2677 -3.6340
46593SOL     OW45741  10.698  11.068  11.309 -0.4185  0.2572  0.1413
46593SOL    HW145742  10.603  11.064  11.320 -0.5610  2.3489 -0.0182
46593SOL    HW245743  10.727  11.133  11.373  0.4334  2.2816 -2.1776
46594SOL     OW45744   8.834   3.252   1.286 -0.1227  0.0033  0.1241
46594SOL    HW145745   8.855   3.343   1.310  0.2072  0.3048 -1.1989
46594SOL    HW245746   8.918   3.215   1.258 -0.3473 -0.5615  0.1959
46595SOL     OW45747   2.883   3.400   5.314  0.3332  0.1469  0.3737
46595SOL    HW145748   2.929   3.431   5.237  0.8164  0.2803  0.7141
46595SOL    HW245749   2.905   3.307   5.319  0.5088  0.1946  0.4947
46596SOL     OW45750   9.037   2.781   4.161 -0.6912 -0.6439  0.0524
46596SOL    HW145751   9.056   2.833   4.239 -1.2210 -0.2296 -0.0893
46596SOL    HW245752   9.032   2.691   4.194 -2.3149 -0.3372  0.7753
46597SOL     OW45753  11.457  10.836  11.882 -0.5093 -0.1176 -0.8071
46597SOL    HW145754  11.511  10.885  11.945  0.2694 -0.4418 -1.2119
46597SOL    HW245755  11.465  10.745  11.911 -3.9222  0.1300  1.4494
46598SOL     OW45756   7.727   4.435   1.733  0.0519  0.0063  0.3238
46598SOL    HW145757   7.673   4.511   1.710  1.2463  0.8839  0.3144
46598SOL    HW245758   7.697   4.409   1.820 -0.9243 -0.0295 -0.0154
46599SOL     OW45759   4.170   6.814   1.884  0.1736  0.1113 -0.3688
46599SOL    HW145760   4.235   6.770   1.940 -1.0914 -1.0641  0.2568
46599SOL    HW245761   4.199   6.796   1.795 -0.5500 -2.5919 -0.1740
46600SOL     OW45762   0.596   7.354   5.396  0.1884 -0.3207  0.5023
46600SOL    HW145763   0.541   7.335   5.320  0.1531 -0.7651  0.6364
46600SOL    HW245764   0.591   7.275   5.450 -0.7740  0.4173  1.5755
46601SOL     OW45765   4.760   6.343   2.368  0.5968 -0.7675  0.0639
46601SOL    HW145766   4.811   6.409   2.321 -2.4040  0.2221 -2.1019
46601SOL    HW245767   4.714   6.295   2.298 -1.2213 -1.7524  1.8410
46602SOL     OW45768   8.898   6.681   9.220  0.0482  0.2730  0.0127
46602SOL    HW145769   8.985   6.662   9.186  0.6488 -0.9195  2.0396
46602SOL    HW245770   8.849   6.600   9.209 -0.1902  0.3241  0.6202
46603SOL     OW45771   1.310  10.816   1.344  0.4971 -0.4994  0.0949
46603SOL    HW145772   1.333  10.907   1.327 -0.8414 -0.1563 -0.0212
46603SOL    HW245773   1.214  10.816   1.351  0.5342 -1.7337  1.0804
46604SOL     OW45774   8.889   5.735   3.779 -0.1743 -0.5240 -0.4997
46604SOL    HW145775   8.983   5.748   3.764 -0.6034  2.6960 -1.2481
46604SOL    HW245776   8.883   5.718   3.873  1.1924 -1.5690 -0.5674
46605SOL     OW45777   9.894   1.895   1.917  0.4239 -0.0895 -0.2155
46605SOL    HW145778   9.839   1.969   1.890  0.0586 -0.6407 -1.0464
46605SOL    HW245779   9.832   1.825   1.936  0.7720 -0.2173  0.4639
46606SOL     OW45780  10.005   5.787   2.648  0.1967 -0.9791 -0.0275
46606SOL    HW145781  10.086   5.744   2.674  0.3246 -0.8182 -0.1567
46606SOL    HW245782  10.019   5.812   2.556  0.5622  0.3549  0.3643
46607SOL     OW45783   4.238  11.756   9.673  0.0222 -0.0040 -0.2444
46607SOL    HW145784   4.295  11.811   9.618 -0.3545  2.3579  1.5321
46607SOL    HW245785   4.158  11.808   9.683 -1.1306 -1.7744  0.0053
46608SOL     OW45786   7.155   0.303   6.043  0.0118  0.2189 -0.3778
46608SOL    HW145787   7.141   0.274   6.132 -0.6524 -1.2299 -0.9299
46608SOL    HW245788   7.205   0.233   6.002 -0.9675  0.1554 -1.5303
46609SOL     OW45789  11.601   5.100   7.259 -0.3257 -0.0513  0.6125
46609SOL    HW145790  11.666   5.167   7.236  1.1528 -1.6858 -0.1816
46609SOL    HW245791  11.570   5.126   7.346 -0.2483  1.9618  0.0878
46610SOL     OW45792   9.967   6.553   7.582  0.2741  0.0768  0.2478
46610SOL    HW145793   9.909   6.626   7.556 -0.1735  0.0183  1.0618
46610SOL    HW245794   9.921   6.511   7.654  0.0267 -1.6713 -0.8790
46611SOL     OW45795   4.276   2.482   3.225 -0.6424  0.2813 -0.1143
46611SOL    HW145796   4.249   2.529   3.304 -1.3711 -1.2659  0.6041
46611SOL    HW245797   4.199   2.431   3.201 -0.8225  1.5444 -2.5120
46612SOL     OW45798   1.567   6.512  10.248  0.3137  0.0739 -0.1922
46612SOL    HW145799   1.568   6.419  10.271 -1.0048 -0.5388 -2.3353
46612SOL    HW245800   1.654   6.544  10.274  0.4730 -1.5088  1.4108
46613SOL     OW45801   9.419   2.376   1.906 -0.5838 -0.3552 -0.1182
46613SOL    HW145802   9.353   2.359   1.972 -1.6011  0.1573 -0.9663
46613SOL    HW245803   9.411   2.302   1.845  2.0457 -2.2048  1.5321
46614SOL     OW45804  10.093   7.921   4.434  0.2793  0.1293 -0.1431
46614SOL    HW145805  10.056   7.861   4.369 -1.5077  0.1643  0.7660
46614SOL    HW245806  10.040   7.907   4.512  1.0269  1.5624  0.6671
46615SOL     OW45807   2.203   6.135   9.671 -0.4938  0.2076 -0.0650
46615SOL    HW145808   2.295   6.135   9.645 -0.3481  0.4516  0.4277
46615SOL    HW245809   2.201   6.086   9.753 -1.4847 -3.7624 -2.2316
46616SOL     OW45810   9.324   3.280   4.333 -0.2670  0.0074  0.0006
46616SOL    HW145811   9.262   3.235   4.391 -0.5263 -0.1925 -0.4263
46616SOL    HW245812   9.314   3.373   4.356 -0.0822 -0.1063  0.5472
46617SOL     OW45813   4.615   4.454   4.967  0.3162 -0.1110  0.5690
46617SOL    HW145814   4.540   4.442   4.909  0.1722  0.6291  0.5940
46617SOL    HW245815   4.674   4.381   4.946 -1.2149 -1.7902  1.8339
46618SOL     OW45816   1.567   7.752   7.605  0.1475  0.5931 -0.1237
46618SOL    HW145817   1.498   7.759   7.539 -0.8295 -1.0744  0.6561
46618SOL    HW245818   1.612   7.670   7.583 -0.4027 -0.1602  1.4206
46619SOL     OW45819  10.043   5.137  10.222  0.2886 -0.2985 -0.1434
46619SOL    HW145820  10.105   5.103  10.286  1.6540  0.3308 -1.0993
46619SOL    HW245821  10.017   5.061  10.170  0.9864 -0.4014 -0.3438
46620SOL     OW45822   4.040   1.399   0.334 -0.9430  0.4633  0.3822
46620SOL    HW145823   4.110   1.428   0.276 -1.6421  0.5164 -0.4614
46620SOL    HW245824   4.082   1.387   0.419  0.6581 -1.9996 -0.6487
46621SOL     OW45825   6.911   5.107   2.642 -0.4024  0.0212  0.4052
46621SOL    HW145826   6.920   5.096   2.737 -0.8338 -2.0211  0.2578
46621SOL    HW245827   6.837   5.166   2.631 -1.3910 -1.0138  1.3333
46622SOL     OW45828   0.191   2.416   5.285  0.4898 -0.4489  0.7525
46622SOL    HW145829   0.149   2.350   5.230 -1.5998  0.6248  0.9271
46622SOL    HW245830   0.203   2.491   5.227 -0.3873  0.1847  1.3603
46623SOL     OW45831   2.797   6.743  10.589  0.2652 -0.1378 -0.0033
46623SOL    HW145832   2.783   6.837  10.599 -0.5003 -0.3142  0.6793
46623SOL    HW245833   2.710   6.706  10.578  0.6052 -0.7177 -0.8569
46624SOL     OW45834   6.628   8.988   2.712 -0.3503 -0.1724 -0.3975
46624SOL    HW145835   6.592   9.076   2.703 -0.4979 -0.1297  0.5013
46624SOL    HW245836   6.552   8.930   2.710 -0.2563 -0.2824 -0.9577
46625SOL     OW45837  11.120   4.684   0.284  0.0585 -0.4021  0.4414
46625SOL    HW145838  11.125   4.599   0.239  2.5914 -0.2972  0.3642
46625SOL    HW245839  11.174   4.673   0.362 -1.0997  0.6129  1.4162
46626SOL     OW45840   5.023   5.164   0.835 -0.4343  0.4902 -0.0514
46626SOL    HW145841   5.058   5.134   0.751 -0.2435 -0.8303  0.4717
46626SOL    HW245842   5.100   5.167   0.893 -0.5491  1.4807  0.0651
46627SOL     OW45843   4.169   6.471  12.178  0.6901 -0.0918  0.2310
46627SOL    HW145844   4.138   6.382  12.166  1.7299 -0.2520 -1.7762
46627SOL    HW245845   4.115   6.523  12.118  0.0245  0.6759  1.4528
46628SOL     OW45846   3.573  10.748  11.410  0.0699  0.6069 -0.2082
46628SOL    HW145847   3.484  10.783  11.418 -0.1241  0.2990 -0.9732
46628SOL    HW245848   3.626  10.804  11.467 -0.5374  1.0790 -0.1031
46629SOL     OW45849   9.472   9.249   1.681  0.4943  0.2565 -0.0845
46629SOL    HW145850   9.445   9.341   1.681 -0.3676  0.0110  0.0934
46629SOL    HW245851   9.561   9.250   1.645  0.8608  1.2623  0.7857
46630SOL     OW45852  10.169  12.391   1.486  0.0043  0.3252 -0.3734
46630SOL    HW145853  10.143  12.462   1.427 -1.1156  0.3290  0.1030
46630SOL    HW245854  10.165  12.430   1.574  0.8783  0.0978 -0.2253
46631SOL     OW45855   5.139   6.031   3.656 -0.6208  0.3666 -0.5427
46631SOL    HW145856   5.218   5.983   3.631 -0.3316  0.7126 -0.2951
46631SOL    HW245857   5.096   6.051   3.573 -1.2412 -1.1278 -0.6238
46632SOL     OW45858   5.748   4.043   8.930  0.1017  0.0783 -0.1221
46632SOL    HW145859   5.717   4.126   8.966  0.1212  0.5565 -1.1850
46632SOL    HW245860   5.843   4.048   8.935  0.1249  0.4181 -0.8217
46633SOL     OW45861  10.072   1.922   4.290  0.0766  0.2823  0.3485
46633SOL    HW145862  10.059   2.017   4.287  0.0565  0.3070  1.1666
46633SOL    HW245863  10.020   1.893   4.365  0.6346 -0.2880  0.5247
46634SOL     OW45864  11.019   3.868   5.036 -0.3548  0.7123 -0.3493
46634SOL    HW145865  10.976   3.855   5.121 -2.3013 -1.3963 -1.5556
46634SOL    HW245866  11.112   3.876   5.058 -0.7866  0.2044  1.9725
46635SOL     OW45867   8.942   3.704   9.409 -0.0477  0.8672 -0.3218
46635SOL    HW145868   9.008   3.744   9.465 -0.4199  0.5706  0.3422
46635SOL    HW245869   8.858   3.734   9.445 -0.3702 -1.2045  0.7743
46636SOL     OW45870   1.362   2.157  12.109  0.0272 -0.1881  0.7906
46636SOL    HW145871   1.457   2.145  12.104  0.0243  0.1122 -0.0706
46636SOL    HW245872   1.339   2.202  12.028 -0.5319  1.9418  2.0561
46637SOL     OW45873   3.798  10.361  11.569 -0.0648 -0.1324  1.1079
46637SOL    HW145874   3.742  10.430  11.604  0.5070  0.0021  1.7812
46637SOL    HW245875   3.843  10.326  11.646 -1.2095 -2.0536  0.9741
46638SOL     OW45876   9.973   2.297   9.950 -0.5272 -0.2500 -0.0890
46638SOL    HW145877   9.910   2.226   9.962 -0.3752 -0.4740 -0.6227
46638SOL    HW245878   9.964   2.323   9.859 -0.4839  0.3293  0.0662
46639SOL     OW45879   8.648  11.328   1.448 -0.7264 -0.0187 -0.0328
46639SOL    HW145880   8.576  11.313   1.388 -0.4132 -0.8816 -0.2122
46639SOL    HW245881   8.676  11.418   1.430 -0.5137 -0.3166 -1.3216
46640SOL     OW45882   4.820  12.373   9.698  0.5542 -0.4150 -0.1682
46640SOL    HW145883   4.892  12.322   9.736  0.5620 -0.4236 -0.1943
46640SOL    HW245884   4.741  12.325   9.722  0.6362 -1.1267 -1.2368
46641SOL     OW45885   6.738   7.333  11.913  0.4988  0.2132  0.4963
46641SOL    HW145886   6.806   7.337  11.846  1.6675  0.7053  1.6811
46641SOL    HW245887   6.716   7.240  11.918  0.2765  0.1812 -0.6534
46642SOL     OW45888   7.655   5.358   6.109  0.1331  0.2121  0.4720
46642SOL    HW145889   7.710   5.435   6.095  0.8259 -0.1625  1.0655
46642SOL    HW245890   7.644   5.354   6.204 -0.6558  0.0970  0.3774
46643SOL     OW45891   0.525   1.735   7.448 -0.5138 -0.5449  0.0266
46643SOL    HW145892   0.472   1.729   7.368 -0.6109 -0.2537  0.0673
46643SOL    HW245893   0.607   1.693   7.425  0.0084  0.7904 -0.7018
46644SOL     OW45894   0.963   6.234   1.168 -0.4588  0.2014 -0.0458
46644SOL    HW145895   0.942   6.304   1.106 -0.2814  0.2475 -0.0543
46644SOL    HW245896   0.960   6.275   1.254 -0.4641  0.1937 -0.0422
46645SOL     OW45897   8.299   5.813  12.467 -0.5240  0.1743 -0.0305
46645SOL    HW145898   8.365   5.813  12.398  1.1835 -0.3776  1.5152
46645SOL    HW245899   8.267   5.723  12.470 -0.5934  0.1972 -0.0864
46646SOL     OW45900   8.487   3.917   4.084 -0.0764 -0.9812 -0.6087
46646SOL    HW145901   8.563   3.884   4.036  0.5270  0.7187 -0.9074
46646SOL    HW245902   8.440   3.972   4.021  0.0583  0.3112  0.3621
46647SOL     OW45903  11.718   1.068   9.278  0.1669 -0.0249 -0.1621
46647SOL    HW145904  11.656   1.083   9.207  0.1606  3.2034  0.3740
46647SOL    HW245905  11.666   1.079   9.358  1.1142  1.3967  0.2945
46648SOL     OW45906   7.053   4.992   1.508 -0.2280  0.0549  0.0273
46648SOL    HW145907   7.044   5.087   1.507 -0.1466  0.0615 -1.2596
46648SOL    HW245908   6.973   4.960   1.551 -0.0835  0.7038  0.8012
46649SOL     OW45909  11.738   8.892   2.749 -0.5542 -0.2658  0.1329
46649SOL    HW145910  11.757   8.801   2.727 -1.8093 -0.1824 -1.4332
46649SOL    HW245911  11.667   8.917   2.691 -0.1872  1.7524  0.4688
46650SOL     OW45912   9.844   1.715   9.283 -0.1986  0.2332  0.2638
46650SOL    HW145913   9.809   1.656   9.215  0.7964  0.7748 -0.7556
46650SOL    HW245914   9.815   1.676   9.365 -0.5591 -1.0286 -0.4260
46651SOL     OW45915   1.207  11.040   8.925 -0.0573  0.0812 -0.2834
46651SOL    HW145916   1.277  11.019   8.863 -0.5370 -2.2312 -0.1364
46651SOL    HW245917   1.145  10.968   8.916 -2.1958  1.7631 -0.0149
46652SOL     OW45918   0.940   9.980   9.127 -0.3483 -0.1222 -0.0697
46652SOL    HW145919   0.976   9.923   9.195  0.3613  0.7500  0.3163
46652SOL    HW245920   0.911  10.058   9.176  0.1692  0.5139 -0.7564
46653SOL     OW45921   2.076   0.283   3.822  0.3481 -0.9204 -0.2910
46653SOL    HW145922   2.101   0.256   3.733 -3.0532 -0.5675 -1.4843
46653SOL    HW245923   2.043   0.372   3.812 -2.7960 -1.8473  0.6642
46654SOL     OW45924   2.352   1.242   2.244 -0.2190 -0.5012  0.2674
46654SOL    HW145925   2.339   1.299   2.167 -1.6851 -0.0461  0.8119
46654SOL    HW245926   2.446   1.227   2.247 -0.1231 -0.5392 -1.6319
46655SOL     OW45927   2.687   9.124   4.398  0.2981 -0.3471 -0.1139
46655SOL    HW145928   2.593   9.115   4.414  0.4489  0.4951  1.5275
46655SOL    HW245929   2.694   9.168   4.314 -0.9030  1.9280  0.8779
46656SOL     OW45930   3.819  11.583   8.951 -0.6117 -0.2305 -0.0175
46656SOL    HW145931   3.891  11.627   8.997 -0.7219 -0.0136 -0.0520
46656SOL    HW245932   3.858  11.554   8.868 -0.5475 -0.1700 -0.0087
46657SOL     OW45933   0.672  11.593  11.492  0.1262 -0.2296 -0.3136
46657SOL    HW145934   0.762  11.605  11.464 -0.0466  2.1960 -0.0810
46657SOL    HW245935   0.620  11.601  11.411  0.0165  0.4073 -0.1863
46658SOL     OW45936   2.541   1.135  10.245 -0.4066  0.9045  0.7154
46658SOL    HW145937   2.454   1.175  10.252 -0.1018  1.4895  1.2445
46658SOL    HW245938   2.566   1.116  10.335 -0.5409 -0.5221  0.4798
46659SOL     OW45939   9.772   9.678   0.751  0.2130  0.0296 -0.0243
46659SOL    HW145940   9.708   9.629   0.699 -0.1055 -1.1946  1.4342
46659SOL    HW245941   9.743   9.769   0.745 -0.4289 -0.2206 -1.0934
46660SOL     OW45942   9.928   4.105   3.844 -0.5092  0.3889 -0.1017
46660SOL    HW145943   9.881   4.140   3.768 -1.3974  0.1998  0.3396
46660SOL    HW245944   9.992   4.045   3.808 -1.5858 -0.4526 -0.6618
46661SOL     OW45945  10.325   7.321   6.765 -0.0689 -0.1935  0.4783
46661SOL    HW145946  10.280   7.359   6.690  0.7647 -0.5184 -0.2044
46661SOL    HW245947  10.292   7.231   6.769 -0.4716 -0.0364  0.8078
46662SOL     OW45948   8.716   6.433  11.388  0.4188 -0.3452  0.1146
46662SOL    HW145949   8.713   6.374  11.464  1.9972  0.7382  1.0919
46662SOL    HW245950   8.677   6.515  11.420  1.3492  0.2115 -0.1157
46663SOL     OW45951  11.614   1.761   1.641 -0.1846 -0.0705  0.0533
46663SOL    HW145952  11.615   1.670   1.611  1.2331 -0.4087  1.0424
46663SOL    HW245953  11.544   1.764   1.707 -1.1918 -0.0702 -0.9797
46664SOL     OW45954   9.330   6.897  10.862 -0.7119 -0.2381 -0.2614
46664SOL    HW145955   9.253   6.866  10.909 -1.7185 -1.4362 -2.5406
46664SOL    HW245956   9.326   6.853  10.777  1.7842  0.6890 -0.9615
46665SOL     OW45957   5.880   9.882  11.443  0.1202 -0.1652  0.6287
46665SOL    HW145958   5.843   9.814  11.498 -0.8862 -0.4776 -0.3765
46665SOL    HW245959   5.901   9.838  11.361  2.0307  0.1804  0.8964
46666SOL     OW45960   5.806   9.127   1.673 -0.1087 -0.5212  0.0248
46666SOL    HW145961   5.887   9.133   1.725 -0.5665  0.6086  0.6415
46666SOL    HW245962   5.819   9.051   1.618  1.3684 -0.3960  0.1562
46667SOL     OW45963  12.300   5.455  11.446 -0.2783  0.2353 -0.0786
46667SOL    HW145964  12.259   5.392  11.505 -1.0494  0.7686 -0.0356
46667SOL    HW245965  12.375   5.488  11.496 -0.0221 -0.4410 -0.0019
46668SOL     OW45966   9.578   0.489   8.990  0.1800 -0.1825 -0.5938
46668SOL    HW145967   9.529   0.410   9.013  0.1599  0.1338  0.4693
46668SOL    HW245968   9.601   0.476   8.898 -1.3884 -0.5996 -0.9510
46669SOL     OW45969   2.813   3.260   2.038  0.9456 -0.0916 -0.2143
46669SOL    HW145970   2.721   3.240   2.020  0.1877  2.3506  0.5235
46669SOL    HW245971   2.830   3.221   2.123  0.3375  0.0637 -0.0131
46670SOL     OW45972   8.473   9.141   3.033 -0.2892 -0.3736 -0.3851
46670SOL    HW145973   8.442   9.230   3.052 -1.5102 -0.7551 -0.4511
46670SOL    HW245974   8.523   9.115   3.110 -0.6748  0.0538  0.0136
46671SOL     OW45975   3.195  11.657   2.957 -0.1712 -0.4565  0.7737
46671SOL    HW145976   3.281  11.695   2.972  0.7715 -2.9054  2.0864
46671SOL    HW245977   3.203  11.609   2.875 -0.3085 -0.6147  0.8505
46672SOL     OW45978  10.428   2.239   1.404 -0.0933 -0.0473  0.1161
46672SOL    HW145979  10.513   2.205   1.374 -0.0326  0.5442 -0.3880
46672SOL    HW245980  10.366   2.211   1.337 -0.1084  0.4905 -0.0978
46673SOL     OW45981   0.269   9.051   8.524 -0.8128 -0.2764 -0.2865
46673SOL    HW145982   0.283   9.137   8.563  0.2347  0.1699 -1.5691
46673SOL    HW245983   0.174   9.041   8.520 -0.9445  0.7613  0.0066
46674SOL     OW45984   9.232   1.894   6.386 -0.6312 -0.2375  0.5185
46674SOL    HW145985   9.250   1.983   6.418  1.2293  0.1635 -1.4002
46674SOL    HW245986   9.233   1.840   6.465  0.6011  1.1148  1.5021
46675SOL     OW45987   5.160   3.444   5.521  0.4781  0.3966  0.4530
46675SOL    HW145988   5.222   3.516   5.520  2.0402 -0.9058  0.0144
46675SOL    HW245989   5.076   3.485   5.500  1.0292  2.2960  1.7040
46676SOL     OW45990   7.511   2.847   8.060 -0.4145 -0.2347  0.0342
46676SOL    HW145991   7.465   2.930   8.076  0.9313  0.5371  0.0160
46676SOL    HW245992   7.601   2.864   8.086  0.1765 -1.2749 -1.2299
46677SOL     OW45993   6.025  11.952   0.399 -0.2284  0.3394 -0.2753
46677SOL    HW145994   5.963  11.882   0.378 -0.8311  0.4137  1.1304
46677SOL    HW245995   6.110  11.909   0.401 -0.4010 -0.0438 -0.8824
46678SOL     OW45996   6.602   9.251   4.316  0.0131 -0.4539 -0.2726
46678SOL    HW145997   6.685   9.234   4.359  0.0137  2.0507  0.8953
46678SOL    HW245998   6.625   9.268   4.225  1.0007  1.2366  0.2363
46679SOL     OW45999   1.748   8.541  10.903  0.5372  0.3914  0.3106
46679SOL    HW146000   1.808   8.605  10.866  0.0885 -0.7008 -2.5456
46679SOL    HW246001   1.686   8.522  10.833 -1.3406 -0.7643  2.1420
46680SOL     OW46002  10.026  10.319   0.498  0.4657  0.2226 -0.0001
46680SOL    HW146003  10.115  10.306   0.531  0.5491 -0.1711 -0.3831
46680SOL    HW246004   9.993  10.393   0.549  0.6694 -0.2438  0.8172
46681SOL     OW46005   9.256   9.004   5.751  0.1078  0.0751  0.0783
46681SOL    HW146006   9.257   9.054   5.833 -0.0017 -0.8185  0.6435
46681SOL    HW246007   9.163   9.000   5.727 -0.3434 -2.6190  1.8260
46682SOL     OW46008  12.173   1.284   9.438  0.6979 -0.0495  0.6117
46682SOL    HW146009  12.186   1.375   9.413  1.4722 -0.8870 -2.3583
46682SOL    HW246010  12.087   1.284   9.482  0.6542  2.0541  0.6441
46683SOL     OW46011   4.887   4.831   5.790  0.1948  0.1679  0.6773
46683SOL    HW146012   4.896   4.812   5.696  1.4970 -1.8520  1.1573
46683SOL    HW246013   4.794   4.814   5.808 -0.7729  3.1997 -0.6858
46684SOL     OW46014   1.864   7.378   8.549  0.1234  0.5725  0.2241
46684SOL    HW146015   1.816   7.298   8.571  1.0413  0.0841  0.4998
46684SOL    HW246016   1.800   7.432   8.503 -1.0851  0.5144  1.7529
46685SOL     OW46017   7.671  10.400   1.429 -0.6072 -0.5473 -0.4109
46685SOL    HW146018   7.682  10.472   1.491 -0.4456 -0.3028 -0.7175
46685SOL    HW246019   7.656  10.444   1.345  2.8410 -0.7834 -1.2826
46686SOL     OW46020   2.006   2.157   2.826  0.6668 -0.3167 -0.3420
46686SOL    HW146021   2.080   2.120   2.874  0.2455 -0.6447  0.0540
46686SOL    HW246022   1.933   2.099   2.845 -0.1631  1.0203  0.7663
46687SOL     OW46023   7.571   9.286  10.510 -0.4430 -0.3943  0.5524
46687SOL    HW146024   7.591   9.333  10.429 -0.3782 -0.3411  0.5981
46687SOL    HW246025   7.585   9.194  10.488 -1.6559 -0.4971  0.1457
46688SOL     OW46026   4.089   3.419   9.074 -0.0519 -0.2680 -0.1696
46688SOL    HW146027   4.058   3.428   8.984 -1.6871 -0.9815  0.2708
46688SOL    HW246028   4.021   3.367   9.117 -1.3237  3.1260  2.4352
46689SOL     OW46029  11.136  12.052   6.722  0.7983 -0.2547 -0.0635
46689SOL    HW146030  11.070  12.039   6.790  0.2751 -1.0152 -0.7094
46689SOL    HW246031  11.209  11.996   6.748  0.6353 -0.4774 -0.0935
46690SOL     OW46032  10.241   2.791   6.993 -0.8032 -0.5777  0.2929
46690SOL    HW146033  10.179   2.801   7.065 -1.9172  0.8257 -0.8008
46690SOL    HW246034  10.264   2.881   6.969  2.1502 -1.0370  1.0058
46691SOL     OW46035   1.672   6.331   9.943  0.4914 -0.0466 -0.4609
46691SOL    HW146036   1.662   6.237   9.928  0.2127  0.0640 -0.9774
46691SOL    HW246037   1.706   6.338  10.033  0.6846 -0.6456 -0.4879
46692SOL     OW46038   2.996   8.007   3.071  0.1973  0.4746  0.0241
46692SOL    HW146039   2.936   8.082   3.079  0.0582  0.7681 -2.7307
46692SOL    HW246040   3.083   8.046   3.073  0.1813  0.4883  0.4503
46693SOL     OW46041   7.138   0.218  11.626 -0.2344 -0.7943  0.1748
46693SOL    HW146042   7.116   0.205  11.534 -2.1053 -1.9634  0.7395
46693SOL    HW246043   7.229   0.190  11.634 -0.6813 -2.6906 -0.9339
46694SOL     OW46044   9.784   2.649   3.195 -0.1793 -0.8344 -0.2590
46694SOL    HW146045   9.700   2.657   3.149  0.1436 -1.5079 -0.9789
46694SOL    HW246046   9.786   2.559   3.225  0.0558 -0.6677  0.2214
46695SOL     OW46047   5.178  11.908   3.592  0.2787  1.0204 -0.1193
46695SOL    HW146048   5.217  11.897   3.679  2.1435  2.2015 -0.7589
46695SOL    HW246049   5.169  12.002   3.581 -2.0259  0.8358 -0.3932
46696SOL     OW46050   1.394   6.048   9.007 -0.1100  0.1937  0.3654
46696SOL    HW146051   1.471   5.991   9.001  0.0083 -0.0800  3.0155
46696SOL    HW246052   1.325   5.990   9.040 -0.4925  1.1410  1.2785
46697SOL     OW46053   5.806  10.517  12.264  0.4449 -0.1193  0.1060
46697SOL    HW146054   5.789  10.427  12.294 -0.7479  0.6786  1.9816
46697SOL    HW246055   5.722  10.547  12.230 -0.2160  1.4891  2.9162
46698SOL     OW46056   2.465   6.240   9.703  0.1152 -0.1504 -0.5828
46698SOL    HW146057   2.549   6.251   9.657 -0.1580  2.8792 -0.5748
46698SOL    HW246058   2.489   6.202   9.788  1.7131  1.7879 -0.0855
46699SOL     OW46059   6.927   3.781   5.511  0.6661  0.2539  0.1877
46699SOL    HW146060   6.889   3.868   5.498  0.2898  0.1451  0.5152
46699SOL    HW246061   6.873   3.742   5.580  1.2659  0.0221  0.5339
46700SOL     OW46062   3.474   0.275   2.400  0.4766  0.1493  0.6539
46700SOL    HW146063   3.407   0.207   2.394 -0.2182  0.8510  0.4199
46700SOL    HW246064   3.556   0.226   2.413 -0.0504 -0.7163  0.8003
46701SOL     OW46065   8.798   6.830  10.767  0.0012 -0.2353  0.2315
46701SOL    HW146066   8.757   6.745  10.782  2.6644 -1.9142 -1.1359
46701SOL    HW246067   8.841   6.851  10.850  0.9692 -1.2678  0.0191
46702SOL     OW46068   0.502   1.510   0.494  0.0248  0.2225 -0.2524
46702SOL    HW146069   0.497   1.416   0.510 -0.0442  0.3970  0.8621
46702SOL    HW246070   0.588   1.536   0.528 -0.2307  0.6650  0.0656
46703SOL     OW46071   0.769   0.949  12.226  0.4450  0.0460  0.4634
46703SOL    HW146072   0.751   0.856  12.238 -0.3995  0.1321 -0.0583
46703SOL    HW246073   0.687   0.985  12.191 -0.0985  1.4308  2.8911
46704SOL     OW46074   0.800   0.191   7.638 -0.0387  0.2138  0.4759
46704SOL    HW146075   0.877   0.248   7.645 -0.3127  0.4569  1.8475
46704SOL    HW246076   0.813   0.125   7.706 -1.9726  1.4445  2.1790
46705SOL     OW46077   5.897   7.184  11.100  0.4006  0.0461  0.0509
46705SOL    HW146078   5.844   7.217  11.173 -0.7102  0.1192 -0.7510
46705SOL    HW246079   5.961   7.126  11.141 -2.3252 -2.6567  0.8965
46706SOL     OW46080   3.384  10.387  11.670  0.1755 -0.0774  0.2514
46706SOL    HW146081   3.440  10.425  11.602 -1.1620  0.8871 -0.3582
46706SOL    HW246082   3.341  10.313  11.628  0.9202 -0.7856  0.7033
46707SOL     OW46083   7.592   7.639  11.912  0.2035  0.6135 -0.6301
46707SOL    HW146084   7.557   7.706  11.855 -0.0311 -0.9002 -2.3600
46707SOL    HW246085   7.517   7.606  11.962  0.1157  0.8649 -0.5996
46708SOL     OW46086   9.397   1.063   0.639 -0.4471  0.2266  0.2770
46708SOL    HW146087   9.390   1.118   0.562 -0.0081  1.0359  0.7994
46708SOL    HW246088   9.491   1.044   0.646 -0.6234 -0.8068 -0.0427
46709SOL     OW46089  12.170  10.400   4.463  0.4055 -0.3890  0.3060
46709SOL    HW146090  12.109  10.403   4.537  1.9632 -1.1817  1.7086
46709SOL    HW246091  12.116  10.375   4.388 -1.2989  0.7943  1.0713
46710SOL     OW46092   2.672   1.855   8.298 -0.0119 -0.4109 -0.1077
46710SOL    HW146093   2.696   1.923   8.361 -0.5385 -1.1847  0.9673
46710SOL    HW246094   2.641   1.783   8.353 -0.8987 -0.9411 -1.2871
46711SOL     OW46095   8.412   8.922   7.995  0.5656 -0.1410 -0.2787
46711SOL    HW146096   8.374   8.950   8.079 -0.7316 -0.2559 -0.7978
46711SOL    HW246097   8.506   8.922   8.010  0.3706  0.0975  1.1016
46712SOL     OW46098   2.334   1.288  10.564  0.5406  0.0962 -0.3621
46712SOL    HW146099   2.428   1.303  10.557  0.1877  2.1132 -1.3705
46712SOL    HW246100   2.301   1.364  10.612 -0.3793 -1.5028  1.7349
46713SOL     OW46101   4.741  12.129   1.606  0.4529  0.5544  0.7461
46713SOL    HW146102   4.673  12.186   1.570 -1.5494 -2.1227 -0.0065
46713SOL    HW246103   4.803  12.118   1.533 -0.0817  0.3664  0.3162
46714SOL     OW46104  11.860   2.081   9.824 -0.4358  0.0273 -0.1195
46714SOL    HW146105  11.854   1.990   9.794 -0.6818  0.9860 -3.4373
46714SOL    HW246106  11.935   2.117   9.775 -0.9312  1.8504  0.3779
46715SOL     OW46107   4.400   4.191   1.139 -0.1885  0.3825  0.4774
46715SOL    HW146108   4.345   4.162   1.066 -0.7678 -0.4170  1.2165
46715SOL    HW246109   4.406   4.115   1.196 -1.2095  1.5045  2.1469
46716SOL     OW46110   2.514  10.820   8.178  0.4078 -0.3694 -0.4663
46716SOL    HW146111   2.565  10.760   8.124  0.5794  1.3708 -2.3776
46716SOL    HW246112   2.573  10.894   8.193 -0.2353 -0.0705  0.6838
46717SOL     OW46113  11.004  11.577   2.377 -0.2058 -0.0529  0.0141
46717SOL    HW146114  11.092  11.546   2.356  0.5787  2.6034 -0.9945
46717SOL    HW246115  10.991  11.551   2.469  2.2946  0.8209  0.7029
46718SOL     OW46116   7.048   3.944  11.021  0.1084  0.0673 -0.4850
46718SOL    HW146117   7.099   4.004  11.075  2.2398 -1.1396 -1.0674
46718SOL    HW246118   6.980   3.999  10.982 -0.0619  1.4273  1.5452
46719SOL     OW46119   0.772   6.000   6.959 -0.7963  0.4216 -0.0331
46719SOL    HW146120   0.812   6.081   6.927 -1.5857  0.4386 -1.0311
46719SOL    HW246121   0.796   5.934   6.895 -0.7174  0.0069  0.4174
46720SOL     OW46122   5.282  11.608   5.191  0.4712 -0.5000  0.1844
46720SOL    HW146123   5.332  11.678   5.149 -0.3996  0.9958  1.5184
46720SOL    HW246124   5.298  11.531   5.137  0.3328  1.0322 -2.1668
46721SOL     OW46125   4.437   6.363   3.310  0.2785  0.4545  0.0641
46721SOL    HW146126   4.440   6.385   3.216  0.6041 -0.7711 -0.2238
46721SOL    HW246127   4.527   6.369   3.339  0.3336 -0.2497  0.0401
46722SOL     OW46128   0.788   5.475   1.851 -0.0709  0.5216 -0.5067
46722SOL    HW146129   0.801   5.548   1.790 -0.1074 -0.1133 -1.2839
46722SOL    HW246130   0.709   5.498   1.899  0.0039  1.0649 -0.6370
46723SOL     OW46131   8.295   2.533   5.263  0.2233 -0.1144 -0.1693
46723SOL    HW146132   8.259   2.573   5.183  0.1974 -1.4313 -0.8485
46723SOL    HW246133   8.233   2.558   5.332  0.7585  1.8703 -0.3287
46724SOL     OW46134   8.820  10.145   3.767 -0.0726  0.1487 -0.0702
46724SOL    HW146135   8.774  10.228   3.773 -0.4546  0.1032 -1.8777
46724SOL    HW246136   8.912  10.167   3.781 -0.3500  0.5811  1.2121
46725SOL     OW46137  12.006   2.869   9.914  0.2744 -0.3951 -0.4442
46725SOL    HW146138  11.920   2.888   9.952  0.2595  0.3682 -0.8403
46725SOL    HW246139  12.053   2.952   9.920  1.2037 -0.9565  0.3152
46726SOL     OW46140  12.239   1.254   4.197  0.2323  0.2202  0.0220
46726SOL    HW146141  12.208   1.173   4.238 -0.5092  0.5907  0.1937
46726SOL    HW246142  12.259   1.228   4.106 -1.2409  0.1175 -0.2970
46727SOL     OW46143   2.880   5.966   2.567 -0.2249 -0.4149 -0.3137
46727SOL    HW146144   2.923   6.010   2.640 -0.1290  1.1415 -1.2385
46727SOL    HW246145   2.937   5.892   2.545  0.1105 -0.4647  0.7107
46728SOL     OW46146   3.106   7.916   8.314  0.0397  0.8202 -0.6617
46728SOL    HW146147   3.023   7.888   8.354  0.1519  1.7142  0.2447
46728SOL    HW246148   3.102   7.882   8.225 -0.3618 -0.9709 -0.0007
46729SOL     OW46149   6.997  12.301   5.378 -0.1611 -0.3482 -0.0363
46729SOL    HW146150   6.913  12.296   5.423 -0.0722  0.7175  0.2859
46729SOL    HW246151   6.974  12.304   5.285 -0.4118 -1.2253 -0.0073
46730SOL     OW46152   3.209   4.889  10.865 -0.9435  0.7477 -0.0063
46730SOL    HW146153   3.151   4.867  10.792  0.5153  1.3800 -1.4097
46730SOL    HW246154   3.293   4.851  10.840 -0.3135  1.3584  1.1392
46731SOL     OW46155  10.547  10.939   8.173 -0.2292  0.1835  0.0918
46731SOL    HW146156  10.572  10.876   8.241 -1.6316  0.7875  1.2047
46731SOL    HW246157  10.482  10.892   8.120  0.8305 -0.2712 -0.8662
46732SOL     OW46158   1.478   3.253   7.041  0.7254 -0.1562  0.7917
46732SOL    HW146159   1.465   3.173   7.091 -0.1208 -0.7600 -0.3531
46732SOL    HW246160   1.395   3.267   6.995  1.9724 -0.5792 -1.7686
46733SOL     OW46161   0.018   3.641   6.664  0.0311 -0.7864  0.7151
46733SOL    HW146162  -0.033   3.722   6.655  0.0293 -0.9402 -0.8465
46733SOL    HW246163  -0.012   3.604   6.747  0.0080  0.7844  1.4627
46734SOL     OW46164  10.963   0.170   0.165  0.0703  0.3294  0.0973
46734SOL    HW146165  10.975   0.248   0.111 -0.4840  0.4965  0.2069
46734SOL    HW246166  11.031   0.176   0.232  0.3644  0.4434 -0.2098
46735SOL     OW46167   2.517   0.630   7.689 -0.8422 -0.0639  0.9586
46735SOL    HW146168   2.465   0.666   7.617  1.3763  0.4496 -0.4833
46735SOL    HW246169   2.607   0.630   7.657  0.1154 -0.8269  3.3593
46736SOL     OW46170   0.275   0.051  11.715  0.3043 -0.5209  0.0404
46736SOL    HW146171   0.289   0.068  11.808  0.4220 -1.6528  0.2515
46736SOL    HW246172   0.258   0.137  11.677  0.0288 -0.0620  1.1447
46737SOL     OW46173  11.632   3.010   6.093 -0.2012  0.0001  0.3348
46737SOL    HW146174  11.604   3.098   6.067 -0.0570 -0.0758 -0.0830
46737SOL    HW246175  11.590   2.952   6.030 -0.4633 -0.2487  0.7380
46738SOL     OW46176   6.008   5.204   9.766  0.3989 -0.7190 -0.1902
46738SOL    HW146177   6.103   5.188   9.765  0.4979 -0.3272  1.0810
46738SOL    HW246178   5.991   5.249   9.683  1.3808 -0.4839 -0.2801
46739SOL     OW46179   7.821   0.954   4.189 -0.0593 -0.6385 -0.7186
46739SOL    HW146180   7.853   1.024   4.132  0.0841 -1.3634 -1.5544
46739SOL    HW246181   7.840   0.873   4.141  2.7380 -1.5187  1.5758
46740SOL     OW46182   9.045   9.549   9.990  0.2712  0.6110 -0.1185
46740SOL    HW146183   8.968   9.596  10.024  0.6347  2.0425 -1.1819
46740SOL    HW246184   9.109   9.617   9.974  1.0716 -0.3498 -1.0869
46741SOL     OW46185   6.674   1.798   7.666  0.0369  0.4936  0.3921
46741SOL    HW146186   6.668   1.725   7.727  1.0702  1.1620  1.3221
46741SOL    HW246187   6.681   1.876   7.721  0.1564  1.1844 -0.5716
46742SOL     OW46188   3.186   8.220   6.604  0.5057 -0.0858 -0.0479
46742SOL    HW146189   3.232   8.292   6.560  0.8897  0.0605  0.5800
46742SOL    HW246190   3.096   8.251   6.611  0.7154  0.4454  0.4271
46743SOL     OW46191   5.665   6.819   1.823 -0.0473 -1.3361 -0.4559
46743SOL    HW146192   5.682   6.908   1.854  0.6953 -1.1595 -1.3292
46743SOL    HW246193   5.695   6.763   1.894  0.6273 -0.9184 -0.3990
46744SOL     OW46194   8.503   0.487   1.905  0.5187  0.4122  0.1361
46744SOL    HW146195   8.414   0.452   1.913  0.4854  0.8979  2.4565
46744SOL    HW246196   8.524   0.475   1.812 -0.4602 -3.3057  0.2344
46745SOL     OW46197   3.072   8.480  12.106  0.3372  0.0233  0.0374
46745SOL    HW146198   3.018   8.415  12.062  0.6163 -0.2801  0.1352
46745SOL    HW246199   3.030   8.563  12.086 -0.0204 -0.1848 -0.0958
46746SOL     OW46200  12.062   3.601   3.176  0.3440  0.1364  0.5535
46746SOL    HW146201  12.018   3.561   3.101 -0.4016  0.6200  0.7214
46746SOL    HW246202  12.067   3.531   3.241 -1.9639  0.5464  1.2721
46747SOL     OW46203   1.645   0.195   1.487 -0.0845  0.3346  0.0984
46747SOL    HW146204   1.621   0.255   1.417 -0.6040  0.0251  0.0080
46747SOL    HW246205   1.585   0.121   1.477 -0.8689  0.7456  1.5122
46748SOL     OW46206   0.295   5.038   4.472  0.0825 -0.1180  0.3557
46748SOL    HW146207   0.275   5.002   4.385  0.0498  3.0502 -1.0990
46748SOL    HW246208   0.362   4.980   4.507  0.0910 -1.5140 -1.7827
46749SOL     OW46209   9.946   7.527   3.276 -0.0194  0.0935  0.0757
46749SOL    HW146210   9.897   7.531   3.194  3.0472  3.4246 -1.8495
46749SOL    HW246211  10.017   7.465   3.258  1.2126  1.5458 -0.2132
46750SOL     OW46212   7.007   8.443  11.496  0.0529  0.2168  0.4525
46750SOL    HW146213   7.046   8.451  11.582 -0.9706 -0.8999  1.0682
46750SOL    HW246214   7.069   8.389  11.446 -0.0082 -0.3345  0.9579
46751SOL     OW46215   1.404   0.478   7.838 -0.1547 -0.2959  0.3594
46751SOL    HW146216   1.416   0.403   7.897  1.9398 -0.3788 -0.0665
46751SOL    HW246217   1.419   0.554   7.893 -0.5802 -0.2630  0.4314
46752SOL     OW46218  11.609   1.414   3.076  0.1967  0.2122  0.5216
46752SOL    HW146219  11.684   1.400   3.133  0.5035  0.5557  0.2086
46752SOL    HW246220  11.619   1.348   3.006  1.0118  1.1933 -0.3201
46753SOL     OW46221   5.499  12.053   5.353  0.4094  0.1013  0.2108
46753SOL    HW146222   5.568  11.986   5.359 -0.8414 -1.1665  1.3187
46753SOL    HW246223   5.507  12.088   5.265  2.9711  0.5783  0.5505
46754SOL     OW46224   6.930   9.832   3.183  0.0922 -0.8027 -0.2060
46754SOL    HW146225   6.846   9.871   3.157  0.6881  0.9509  0.3043
46754SOL    HW246226   6.938   9.853   3.276 -0.2545 -3.6166  0.5410
46755SOL     OW46227   7.365   5.313   9.800 -0.2835  0.5233  0.7744
46755SOL    HW146228   7.281   5.273   9.819 -0.2538 -1.2047 -2.1210
46755SOL    HW246229   7.427   5.268   9.857 -0.7930 -1.0957  0.0942
46756SOL     OW46230  12.277   6.693   1.463 -0.5351  0.3327  0.0449
46756SOL    HW146231  12.246   6.617   1.414  0.5271  1.1492 -1.9972
46756SOL    HW246232  12.352   6.660   1.514 -0.5852 -0.1617 -0.1987
46757SOL     OW46233   2.859   2.604   0.785 -0.6730  0.0433  0.3124
46757SOL    HW146234   2.854   2.560   0.870 -1.2592  1.0465  0.8203
46757SOL    HW246235   2.772   2.592   0.746 -0.9665  1.0484  0.6253
46758SOL     OW46236   6.180   7.651   5.992 -0.2889  0.2062 -0.6360
46758SOL    HW146237   6.092   7.686   5.978 -1.5916 -2.7195 -0.5946
46758SOL    HW246238   6.215   7.638   5.905  0.0250  1.1461 -0.6581
46759SOL     OW46239   4.407   8.500   8.562 -0.8015  0.3067 -0.5025
46759SOL    HW146240   4.451   8.547   8.633  0.3964 -0.1620 -0.9150
46759SOL    HW246241   4.333   8.457   8.605 -1.4760  1.8941  0.0268
46760SOL     OW46242  10.952   4.816   4.681  0.3492  0.8402  0.2538
46760SOL    HW146243  10.923   4.846   4.596 -0.6367  1.1093  0.6714
46760SOL    HW246244  10.957   4.896   4.734  1.6470  0.7698  0.2630
46761SOL     OW46245   9.499   3.033   6.273  0.2561 -0.5846 -0.5198
46761SOL    HW146246   9.403   3.032   6.272  0.2402  0.3630 -0.6682
46761SOL    HW246247   9.524   2.959   6.218 -0.4023 -0.1827 -1.3976
46762SOL     OW46248   8.118   6.240   0.583 -0.1939  0.1536 -0.3123
46762SOL    HW146249   8.098   6.334   0.583 -1.4122 -0.0396  1.7859
46762SOL    HW246250   8.032   6.198   0.578  0.1973 -0.8125  0.7542
46763SOL     OW46251   8.545   9.272   6.828  0.1448 -1.0808  0.3863
46763SOL    HW146252   8.595   9.252   6.907  0.4601 -1.2346  0.1492
46763SOL    HW246253   8.453   9.267   6.855  0.2178  1.4233  1.4083
46764SOL     OW46254   4.097   5.568   6.695  0.3479  0.3041  0.6579
46764SOL    HW146255   4.040   5.633   6.735 -0.9763 -0.3089 -0.1697
46764SOL    HW246256   4.172   5.618   6.662  1.3737  0.8695  3.5373
46765SOL     OW46257  10.094   8.433   9.060 -0.0837  0.1318  0.1350
46765SOL    HW146258  10.113   8.354   9.111  0.3626  0.2090  0.0911
46765SOL    HW246259  10.167   8.492   9.079  0.0080  0.2163 -0.4822
46766SOL     OW46260   7.678   1.335  12.311  0.7008 -0.0798  0.0566
46766SOL    HW146261   7.695   1.365  12.222  1.8809  2.0889  0.9333
46766SOL    HW246262   7.583   1.323  12.315  0.4421  1.2794 -1.0930
46767SOL     OW46263   8.602   5.673   0.746  0.4016 -0.2141 -0.5055
46767SOL    HW146264   8.633   5.752   0.790 -1.4264 -0.0088  0.5055
46767SOL    HW246265   8.551   5.706   0.671  1.1934 -0.5025 -1.1871
46768SOL     OW46266  10.391   6.104  12.263  0.2819 -0.7031  0.1415
46768SOL    HW146267  10.477   6.141  12.241  0.2187 -1.2100 -1.0002
46768SOL    HW246268  10.411   6.027  12.316  0.5621 -1.1215 -0.5639
46769SOL     OW46269   6.016   2.982   5.677  0.1021  0.1549  0.0362
46769SOL    HW146270   5.982   2.978   5.766  0.2392  0.3834  0.0995
46769SOL    HW246271   6.111   2.969   5.687  0.0697 -0.1989 -0.1116
46770SOL     OW46272   5.482   3.504  10.203  0.1661  0.4372  0.1438
46770SOL    HW146273   5.487   3.461  10.288  1.2497  0.9610  0.3632
46770SOL    HW246274   5.542   3.579  10.210  1.0432 -0.0587 -1.3943
46771SOL     OW46275   7.272   9.535   2.142 -0.2130  0.8344  0.9210
46771SOL    HW146276   7.302   9.588   2.215 -0.6409  1.0979  0.9117
46771SOL    HW246277   7.286   9.444   2.170 -0.5468  0.9295  1.4090
46772SOL     OW46278   0.829   2.819   5.438 -0.3101  0.0337 -0.3058
46772SOL    HW146279   0.921   2.818   5.467 -0.5228  0.3883  0.3956
46772SOL    HW246280   0.835   2.821   5.342  0.4077 -0.6022 -0.2830
46773SOL     OW46281   3.396   6.438   2.680  0.0109  0.2280 -0.2824
46773SOL    HW146282   3.366   6.458   2.769  1.9391  0.2205  0.4111
46773SOL    HW246283   3.354   6.355   2.659 -0.1780  0.0266  0.7893
46774SOL     OW46284   3.694  10.426   2.485 -0.1839 -0.2191 -0.3818
46774SOL    HW146285   3.757  10.367   2.527 -1.4365 -1.4502 -0.1373
46774SOL    HW246286   3.628  10.443   2.553  0.3010  1.7795 -0.3426
46775SOL     OW46287   5.859  10.025   1.169 -0.4164  0.1508  0.5080
46775SOL    HW146288   5.833  10.115   1.154 -0.7708 -0.1833 -1.1264
46775SOL    HW246289   5.793   9.989   1.228 -0.9899  0.6098  0.1451
46776SOL     OW46290   4.165   3.136   6.304  0.3756 -0.0779 -0.0584
46776SOL    HW146291   4.184   3.126   6.398  1.2552  0.1644 -0.2070
46776SOL    HW246292   4.239   3.186   6.269 -0.2745  0.4254 -0.7614
46777SOL     OW46293   5.138  11.731   4.142 -0.0448 -0.0912 -0.2158
46777SOL    HW146294   5.144  11.724   4.237 -1.2936  0.1055 -0.1148
46777SOL    HW246295   5.053  11.694   4.119  0.8782 -1.5898 -1.4321
46778SOL     OW46296   9.499   8.134   2.967  0.0261 -0.1837 -0.5624
46778SOL    HW146297   9.556   8.203   3.000 -0.2869 -0.3605  0.3620
46778SOL    HW246298   9.462   8.170   2.886 -0.1762  0.7485 -0.0625
46779SOL     OW46299   4.202   6.796   1.627  0.3853 -0.2945 -0.1019
46779SOL    HW146300   4.157   6.874   1.593 -0.6786 -0.3529  1.0986
46779SOL    HW246301   4.210   6.738   1.551 -0.0818  0.4100 -0.7054
46780SOL     OW46302  10.038   5.543   0.621  0.1398 -0.2428 -0.2912
46780SOL    HW146303   9.948   5.566   0.598  0.2251  0.9071  0.4379
46780SOL    HW246304  10.044   5.560   0.715  1.1919 -0.0151 -0.3863
46781SOL     OW46305   0.936   9.078   9.874  0.5644 -0.1540  0.4720
46781SOL    HW146306   0.882   9.009   9.913  0.0334 -1.7918 -2.8341
46781SOL    HW246307   1.026   9.048   9.888  0.4504 -0.0635  1.4727
46782SOL     OW46308   6.908   7.982   1.085  0.0360 -0.1331  0.5543
46782SOL    HW146309   6.976   8.047   1.067  2.8842 -2.8024  0.8293
46782SOL    HW246310   6.904   7.979   1.181 -0.1528 -0.2913  0.5399
46783SOL     OW46311   8.911   3.535  11.983 -0.4496  0.0035  0.4973
46783SOL    HW146312   8.904   3.574  11.896  0.9603  0.9014  0.7557
46783SOL    HW246313   8.827   3.489  11.996 -1.3364  1.2267 -0.6593
46784SOL     OW46314   6.346   0.605   5.460 -0.2051  0.5454 -0.1148
46784SOL    HW146315   6.382   0.693   5.474  2.9004 -0.3912 -1.2671
46784SOL    HW246316   6.313   0.606   5.371 -0.4387  0.6339 -0.0265
46785SOL     OW46317   0.757  10.825   2.669 -0.2253  0.4738 -0.1649
46785SOL    HW146318   0.750  10.916   2.699 -0.3482  0.6464 -0.7124
46785SOL    HW246319   0.715  10.774   2.738  2.8076  0.4753  1.8832
46786SOL     OW46320   6.167   6.900  11.602  0.0485 -0.0598  0.3666
46786SOL    HW146321   6.245   6.846  11.593 -0.3464 -0.7145  0.8268
46786SOL    HW246322   6.201   6.988  11.620  0.7224  0.0835 -1.4041
46787SOL     OW46323   8.186   1.733   1.376 -0.2598  0.3340  0.0546
46787SOL    HW146324   8.208   1.664   1.313  0.2287  0.2954  0.2674
46787SOL    HW246325   8.107   1.773   1.340 -0.7222 -0.5215  0.0718
46788SOL     OW46326   9.198   7.753   8.214  0.1863  0.3310 -0.1640
46788SOL    HW146327   9.190   7.829   8.157  0.4981 -0.4410 -1.2507
46788SOL    HW246328   9.107   7.729   8.236 -0.0194 -0.3155 -1.6241
46789SOL     OW46329   2.968   3.919   0.159  0.0285  0.4318  0.3740
46789SOL    HW146330   2.965   3.909   0.254 -1.3595 -0.4620  0.2579
46789SOL    HW246331   2.986   4.012   0.146  0.8114  0.4565  1.4982
46790SOL     OW46332   9.784  12.283   7.062 -0.3872  0.1096 -0.3126
46790SOL    HW146333   9.830  12.202   7.085 -2.0177 -0.2984  1.8812
46790SOL    HW246334   9.694  12.268   7.089 -0.7401  2.6616  0.1997
46791SOL     OW46335   7.449   1.485  11.652 -0.0066  0.4491 -0.5114
46791SOL    HW146336   7.521   1.507  11.711  1.0470  0.6823 -1.8464
46791SOL    HW246337   7.451   1.390  11.646  0.0918  0.4465 -0.4403
46792SOL     OW46338   6.051   9.200  11.943 -0.0875  0.0821 -0.2421
46792SOL    HW146339   6.120   9.241  11.995 -1.2377 -1.7674  3.0717
46792SOL    HW246340   6.002   9.273  11.905 -0.8694  1.8572  3.7211
46793SOL     OW46341   4.096  11.522   5.519 -1.0565 -0.3419 -0.5272
46793SOL    HW146342   4.083  11.430   5.541 -1.1398 -0.7860 -2.2770
46793SOL    HW246343   4.125  11.521   5.428  2.0172  1.1863  0.3023
46794SOL     OW46344  10.573   7.655   6.031  0.3576  0.4085  0.1893
46794SOL    HW146345  10.581   7.638   6.125  1.5503  0.0444  0.0423
46794SOL    HW246346  10.485   7.691   6.020  0.2556  0.5917  1.4657
46795SOL     OW46347   7.126   7.640   7.728 -0.3369  0.4891 -0.7024
46795SOL    HW146348   7.149   7.725   7.766 -0.3323  0.9347 -1.6686
46795SOL    HW246349   7.051   7.659   7.672  0.3903  0.0876 -1.8420
46796SOL     OW46350   9.591   0.595   1.201  0.5283  0.1106 -0.1368
46796SOL    HW146351   9.638   0.525   1.247  1.8628  0.5612 -0.7490
46796SOL    HW246352   9.655   0.665   1.192 -0.6286  1.2188 -0.0077
46797SOL     OW46353   0.624   6.255   1.900  0.2933  0.3981  0.0380
46797SOL    HW146354   0.630   6.164   1.870  0.8759  0.4259  0.0625
46797SOL    HW246355   0.541   6.286   1.864  0.2372 -0.0470 -0.2300
46798SOL     OW46356   2.331   8.662  10.862  0.6964 -0.2682  0.0199
46798SOL    HW146357   2.373   8.670  10.948  0.9254 -1.3457  0.0313
46798SOL    HW246358   2.268   8.590  10.873 -1.1740  1.2747 -0.0070
46799SOL     OW46359   6.331   2.927  11.805 -0.2323 -0.4821 -0.2162
46799SOL    HW146360   6.426   2.926  11.807 -0.1999  0.8479  1.6105
46799SOL    HW246361   6.308   2.900  11.717  1.9015  1.2899 -1.4020
46800SOL     OW46362   5.663   5.108  11.928 -0.4397  0.4452 -0.4104
46800SOL    HW146363   5.742   5.159  11.946 -0.2225 -0.2900  0.7949
46800SOL    HW246364   5.684   5.019  11.955 -1.3091  0.0032 -1.1235
46801SOL     OW46365   6.465  12.491  11.094  0.2625  0.4494 -0.5682
46801SOL    HW146366   6.414  12.568  11.068 -1.1577 -0.6497 -1.1715
46801SOL    HW246367   6.449  12.427  11.025  1.6834 -0.2943 -0.2441
46802SOL     OW46368  10.826   1.640   7.567 -0.0493  0.5189  0.3186
46802SOL    HW146369  10.862   1.555   7.541  0.0439  1.1248 -1.7018
46802SOL    HW246370  10.735   1.621   7.592  0.4992 -0.4230  1.7117
46803SOL     OW46371   1.234   8.027   6.714 -0.4240  0.1584 -0.2981
46803SOL    HW146372   1.220   7.956   6.652 -0.8950 -0.6530  0.7028
46803SOL    HW246373   1.176   8.007   6.788 -0.7704  1.7172 -0.0974
46804SOL     OW46374   0.782  11.815   5.308  0.1733 -0.2010 -0.2638
46804SOL    HW146375   0.849  11.838   5.373 -1.3281 -1.6427  1.9350
46804SOL    HW246376   0.804  11.725   5.282 -0.4636 -0.3957 -0.1327
46805SOL     OW46377   5.598   1.406   2.646 -0.2278  0.4245 -0.0835
46805SOL    HW146378   5.520   1.419   2.591  0.2250  1.4593 -0.5093
46805SOL    HW246379   5.572   1.339   2.709 -0.8233 -0.6859 -1.4598
46806SOL     OW46380   3.140   7.510   2.647 -0.0058  0.9586  0.5151
46806SOL    HW146381   3.100   7.595   2.667 -1.7418  0.7938 -1.8159
46806SOL    HW246382   3.133   7.502   2.552  0.8250 -1.4863  0.5854
46807SOL     OW46383   2.511   9.242  12.172  0.1839  0.3845 -0.4497
46807SOL    HW146384   2.505   9.234  12.268 -1.2565 -1.6835 -0.6582
46807SOL    HW246385   2.602   9.269  12.157  0.6959 -0.0736  1.4560
46808SOL     OW46386   5.798  11.462  10.567 -0.7911  0.5359  0.4554
46808SOL    HW146387   5.816  11.379  10.612  0.1585  0.9130  0.8021
46808SOL    HW246388   5.823  11.529  10.631 -1.8731  1.0995  0.3047
46809SOL     OW46389   8.877  11.809  10.005 -0.0728 -0.4890  0.0249
46809SOL    HW146390   8.935  11.740   9.971  0.8219  0.0082  0.5307
46809SOL    HW246391   8.791  11.786   9.969 -0.1000 -2.6584  1.2698
46810SOL     OW46392   6.586  10.309   5.527  0.3648  0.0157  0.5817
46810SOL    HW146393   6.654  10.339   5.466 -0.6466 -0.9369 -1.1184
46810SOL    HW246394   6.614  10.340   5.613  1.7800  1.5794 -0.3906
46811SOL     OW46395   4.478   5.342  11.395 -0.0584  0.6958  0.0990
46811SOL    HW146396   4.568   5.326  11.424 -0.3842  0.1541  0.8272
46811SOL    HW246397   4.488   5.385  11.310  0.9105  1.9787  0.8304
46812SOL     OW46398   5.001   4.004   9.083  0.4097 -0.0267  0.0746
46812SOL    HW146399   5.074   4.058   9.051  0.2454  0.6727  0.8452
46812SOL    HW246400   5.021   3.989   9.175 -1.4051  1.9363  0.8732
46813SOL     OW46401   0.742   8.490   4.510  0.1191  0.2031  0.3172
46813SOL    HW146402   0.784   8.432   4.446 -0.4040 -0.0384  0.1870
46813SOL    HW246403   0.807   8.558   4.527  1.4430 -1.3258  1.7747
46814SOL     OW46404   1.819   2.755   5.160  0.1900  0.1601 -0.0198
46814SOL    HW146405   1.912   2.742   5.182  0.1526 -0.4432 -0.2080
46814SOL    HW246406   1.785   2.809   5.232  0.3416 -0.8513  0.8388
46815SOL     OW46407  11.711  11.696   8.245  0.1646  0.8930  0.1736
46815SOL    HW146408  11.720  11.721   8.337 -2.5518  0.2842  0.6910
46815SOL    HW246409  11.635  11.637   8.244  0.9629 -0.1925 -2.2778
46816SOL     OW46410   9.560   9.497  10.558 -0.0226 -0.3688  0.1586
46816SOL    HW146411   9.473   9.475  10.525 -0.4495 -1.3729  1.8207
46816SOL    HW246412   9.548   9.578  10.607  0.4580  0.7087 -1.4402
46817SOL     OW46413   2.640   7.070  12.237  0.6368  0.1830 -0.0960
46817SOL    HW146414   2.586   7.000  12.273  0.6408 -0.7437 -1.7776
46817SOL    HW246415   2.577   7.130  12.195  0.7401  0.4730  0.1567
46818SOL     OW46416  10.424   6.257   4.128 -0.5493  0.2882  0.2921
46818SOL    HW146417  10.461   6.198   4.194 -1.9042  0.2196  1.0095
46818SOL    HW246418  10.447   6.216   4.044 -0.6327 -0.7458  0.7573
46819SOL     OW46419   8.750  10.907   5.871 -0.1642  0.1157 -0.5554
46819SOL    HW146420   8.685  10.863   5.926 -0.9905 -0.4288 -1.8968
46819SOL    HW246421   8.708  10.911   5.785  1.6575 -0.3946 -1.5058
46820SOL     OW46422   0.787   6.004   5.554 -0.5012  0.4603  0.3113
46820SOL    HW146423   0.865   5.987   5.607  0.8363  1.7542 -1.1424
46820SOL    HW246424   0.791   5.940   5.483  0.0614  1.4110 -0.5536
46821SOL     OW46425   2.984   1.538   5.691  0.0937 -0.1600 -0.0290
46821SOL    HW146426   3.008   1.448   5.672  1.7312  0.1837  0.1878
46821SOL    HW246427   3.052   1.568   5.753 -0.6989  1.0582  0.2889
46822SOL     OW46428  10.495   9.093   0.511  0.2980  0.4001 -0.1838
46822SOL    HW146429  10.488   9.112   0.417  1.4060 -0.5016 -0.4811
46822SOL    HW246430  10.543   9.167   0.547  1.3772 -0.0528 -0.6549
46823SOL     OW46431   2.415   9.543  11.003 -0.5647  0.3800 -0.5695
46823SOL    HW146432   2.370   9.560  10.920  0.5370 -0.3926 -1.3551
46823SOL    HW246433   2.402   9.449  11.018  0.4286  0.2286 -0.6062
46824SOL     OW46434   9.477  11.420  11.259  0.2382  0.3730  0.1414
46824SOL    HW146435   9.553  11.396  11.312 -0.5113  0.9101  1.4860
46824SOL    HW246436   9.409  11.360  11.286  0.4270 -0.8402 -1.8423
46825SOL     OW46437  11.115  11.950   7.904 -0.2161  0.0517 -0.4086
46825SOL    HW146438  11.167  11.905   7.837 -2.0470 -1.7923 -0.6980
46825SOL    HW246439  11.082  11.880   7.960  0.7770  1.5102  2.1447
46826SOL     OW46440   3.204  10.575  10.554 -0.2125 -0.3021  0.0080
46826SOL    HW146441   3.210  10.479  10.548 -1.3067 -0.3327 -0.8862
46826SOL    HW246442   3.294  10.605  10.544  0.1969 -1.2489  0.6849
46827SOL     OW46443  12.465   5.778   0.130 -0.0003 -0.0047 -0.3898
46827SOL    HW146444  12.533   5.827   0.083 -0.5041  1.2018  0.0838
46827SOL    HW246445  12.510   5.743   0.207  0.7378 -1.6674 -1.5260
46828SOL     OW46446   5.542   7.267  12.260  0.1314 -0.1278 -0.3944
46828SOL    HW146447   5.550   7.213  12.181  1.8614  0.3576 -0.5984
46828SOL    HW246448   5.633   7.287  12.284 -0.4196  1.1042  0.7711
46829SOL     OW46449   4.742  10.332   7.145  0.3474  0.0905 -0.3751
46829SOL    HW146450   4.834  10.324   7.171  0.1348 -0.7830  0.1833
46829SOL    HW246451   4.735  10.420   7.109  1.3214  0.3058 -0.0913
46830SOL     OW46452   7.807  12.274   6.699 -0.1070  0.1056  0.7114
46830SOL    HW146453   7.864  12.202   6.724  0.1554  0.1997  0.3990
46830SOL    HW246454   7.866  12.349   6.691 -0.7221  1.0252  3.6544
46831SOL     OW46455  11.061  11.986   6.344  0.8421 -0.4112  0.4607
46831SOL    HW146456  10.994  11.936   6.391  0.1531 -1.1042 -1.1841
46831SOL    HW246457  11.142  11.936   6.357  0.5572 -0.8749  0.4707
46832SOL     OW46458   7.027   7.412   1.218  0.6670 -0.5247  0.7133
46832SOL    HW146459   7.109   7.394   1.172  1.6530  1.2328  1.6413
46832SOL    HW246460   7.034   7.363   1.300  1.0113 -0.0741  0.9652
46833SOL     OW46461   8.239  11.629  12.375  0.2364 -0.0787  0.3742
46833SOL    HW146462   8.280  11.701  12.326 -2.0861  1.6758  0.8471
46833SOL    HW246463   8.293  11.620  12.454  0.1227  1.7244  0.6928
46834SOL     OW46464   7.375   2.027   0.941  0.2824 -0.3614  0.5216
46834SOL    HW146465   7.280   2.037   0.942  0.2638 -0.5820  1.0968
46834SOL    HW246466   7.405   2.096   0.881 -0.1704  0.3240  1.0647
46835SOL     OW46467  10.750  11.423   7.815  0.1167  0.3855  0.0654
46835SOL    HW146468  10.757  11.332   7.785  0.0599  0.8589 -1.4225
46835SOL    HW246469  10.765  11.417   7.910 -1.2136 -1.3415  0.2296
46836SOL     OW46470   9.856   9.116   0.625 -0.6043  0.6007  0.2549
46836SOL    HW146471   9.899   9.123   0.540 -2.5680  0.0569 -0.8502
46836SOL    HW246472   9.876   9.199   0.668  2.6603 -0.1517  0.4563
46837SOL     OW46473   3.871   2.262   5.306  0.7671 -0.1549  0.5689
46837SOL    HW146474   3.791   2.304   5.278  0.1806 -1.4869  0.1395
46837SOL    HW246475   3.927   2.261   5.228  2.4937  3.4154  1.5558
46838SOL     OW46476   9.294  10.597   0.497 -0.2680 -0.2062 -0.2215
46838SOL    HW146477   9.218  10.552   0.461 -1.1256  0.9785  0.0687
46838SOL    HW246478   9.344  10.528   0.540 -2.0102 -0.7672  1.0065
46839SOL     OW46479   9.870   2.648   4.911 -0.2585 -0.4286  0.5734
46839SOL    HW146480   9.904   2.654   5.000 -0.1574 -2.0291  0.6761
46839SOL    HW246481   9.866   2.739   4.880  1.2411  0.0235  1.6183
46840SOL     OW46482  10.634   8.591   2.094 -0.2204 -0.6813 -0.4151
46840SOL    HW146483  10.636   8.622   2.184  0.8507 -0.2904 -0.5537
46840SOL    HW246484  10.557   8.633   2.056  1.1869  1.9742 -0.6107
46841SOL     OW46485   0.964   9.004  12.252 -0.3910  0.1020 -0.0375
46841SOL    HW146486   0.910   8.936  12.210  1.8953 -0.9846 -1.4264
46841SOL    HW246487   0.947   8.994  12.346 -1.7732 -0.8814 -0.3632
46842SOL     OW46488   9.665  11.424   5.874  0.5487 -0.0387  0.0619
46842SOL    HW146489   9.683  11.424   5.780 -0.0679 -0.5850 -0.0613
46842SOL    HW246490   9.741  11.382   5.913  0.9654  0.5008 -0.1565
46843SOL     OW46491   8.959   0.033   6.845 -0.6221  0.0906  0.6846
46843SOL    HW146492   8.890   0.032   6.911 -0.5186  2.7859  0.9683
46843SOL    HW246493   9.036   0.066   6.892  0.0375 -0.0303 -0.2870
46844SOL     OW46494   6.167   4.438  10.951  0.1620 -0.8209  0.6683
46844SOL    HW146495   6.157   4.532  10.935 -1.2420 -0.9419  0.6904
46844SOL    HW246496   6.082   4.401  10.929  0.1905 -1.8673  2.1610
46845SOL     OW46497   6.094   0.304   2.447 -0.2417  0.0939  0.2033
46845SOL    HW146498   5.999   0.305   2.443 -0.2649  1.1012  0.7037
46845SOL    HW246499   6.118   0.213   2.431 -1.3418 -0.3815  1.1020
46846SOL     OW46500   0.695  10.011   9.348 -0.4788 -0.5503  0.1742
46846SOL    HW146501   0.607  10.043   9.329 -0.6101 -0.8773  0.2215
46846SOL    HW246502   0.689   9.916   9.334 -0.3800 -0.7012  1.1120
46847SOL     OW46503  11.832   6.993  12.319  0.1575  0.4099 -0.3688
46847SOL    HW146504  11.863   7.067  12.371  4.0300 -0.8000 -0.5990
46847SOL    HW246505  11.860   7.014  12.229  1.4328 -1.2449 -0.4249
46848SOL     OW46506  11.734   8.788   7.642  0.0098  0.3879  0.2678
46848SOL    HW146507  11.789   8.716   7.673 -0.1084  0.2024  0.0483
46848SOL    HW246508  11.737   8.781   7.546  0.2813  0.8863  0.2367
46849SOL     OW46509   7.350  10.807   8.452  0.1217 -0.0998  0.0331
46849SOL    HW146510   7.429  10.777   8.496 -0.7683 -0.3270  1.5645
46849SOL    HW246511   7.331  10.739   8.386 -0.0691 -1.2605  1.2478
46850SOL     OW46512   3.906   6.996   7.632 -0.0852  0.4004  0.7405
46850SOL    HW146513   3.956   6.989   7.551 -1.3050 -1.8825  0.0772
46850SOL    HW246514   3.835   7.057   7.611  0.3115  0.7934  0.5176
46851SOL     OW46515   8.486  11.933   7.313 -0.4280 -0.0372  0.2409
46851SOL    HW146516   8.534  11.970   7.238 -0.2458 -0.5358  0.1103
46851SOL    HW246517   8.425  11.871   7.274 -0.6607  0.0480  0.4719
46852SOL     OW46518   7.823   4.436   8.365 -0.2212  0.6271  0.2832
46852SOL    HW146519   7.889   4.471   8.305 -0.6642  1.4811  0.2809
46852SOL    HW246520   7.745   4.488   8.349 -1.4677 -1.4665 -0.9398
46853SOL     OW46521   3.651   7.700   2.191  0.0909 -0.2552 -0.4432
46853SOL    HW146522   3.605   7.691   2.108 -0.4982  1.1098 -0.2945
46853SOL    HW246523   3.735   7.656   2.177 -0.5546 -1.2825 -1.2812
46854SOL     OW46524   9.899  11.967   3.108 -0.1289  0.1567 -0.5249
46854SOL    HW146525   9.852  11.993   3.028 -0.5947 -1.6770 -0.8833
46854SOL    HW246526   9.966  11.906   3.078 -0.2559 -0.4907  0.4593
46855SOL     OW46527  11.723   1.651   6.025  0.0156 -0.1776  0.2579
46855SOL    HW146528  11.813   1.676   6.044  0.0138  0.8129 -0.8801
46855SOL    HW246529  11.679   1.735   6.009 -1.3529 -0.5562  1.7233
46856SOL     OW46530  11.177   9.348   2.160  0.0227  0.0826  0.1350
46856SOL    HW146531  11.240   9.413   2.129 -1.1891  0.6416 -1.2684
46856SOL    HW246532  11.120   9.396   2.219 -0.5278  0.1626 -0.4567
46857SOL     OW46533   7.769   3.817   3.453  0.0172 -0.0247  0.0849
46857SOL    HW146534   7.852   3.776   3.430 -0.0533 -0.3415  0.3801
46857SOL    HW246535   7.746   3.778   3.538 -1.8873 -2.1853 -1.2888
46858SOL     OW46536   1.369  12.292   5.281  0.0265  0.0628  0.0166
46858SOL    HW146537   1.373  12.358   5.212 -0.5638 -0.7725 -0.8390
46858SOL    HW246538   1.424  12.328   5.351  0.1695  1.1958 -0.6424
46859SOL     OW46539  10.154   4.164  11.436  0.2565  0.6236  0.0483
46859SOL    HW146540  10.203   4.185  11.357 -0.0016  2.2895  0.2920
46859SOL    HW246541  10.220   4.160  11.505  0.4402 -0.5022 -0.1791
46860SOL     OW46542   0.968   1.542  12.400  0.0102 -0.0300 -0.2277
46860SOL    HW146543   1.050   1.494  12.405  0.1002 -0.0982 -1.9518
46860SOL    HW246544   0.968   1.582  12.313 -0.4646  2.3764  0.7699
46861SOL     OW46545   1.586   7.998  12.109  0.1917  0.4106  0.0393
46861SOL    HW146546   1.522   7.946  12.060  1.3085 -1.7856  0.8227
46861SOL    HW246547   1.670   7.978  12.067  0.7492  0.9871  0.8552
46862SOL     OW46548   2.766   5.569   0.283 -0.0080  0.1267 -0.5898
46862SOL    HW146549   2.823   5.583   0.208  0.2721  0.9846 -0.2308
46862SOL    HW246550   2.811   5.504   0.337  0.2204  0.1796 -0.7187
46863SOL     OW46551  11.340   4.421  12.209  0.6884  0.4073  0.3319
46863SOL    HW146552  11.379   4.372  12.281 -0.5772 -1.2865 -0.0623
46863SOL    HW246553  11.399   4.496  12.196  1.9341 -0.2403  1.8897
46864SOL     OW46554   7.341  10.979   8.024 -0.0021 -0.5258 -0.2969
46864SOL    HW146555   7.384  10.894   8.029 -0.2421 -0.6097  0.5796
46864SOL    HW246556   7.275  10.976   8.094 -0.2725  0.2343 -0.5125
46865SOL     OW46557   3.090  10.471   8.677 -0.3566  0.3010 -0.1434
46865SOL    HW146558   3.078  10.544   8.616 -2.3713  0.4901  0.4196
46865SOL    HW246559   3.037  10.400   8.640  0.3003 -0.3653  0.1605
46866SOL     OW46560   4.634  11.946  10.975  0.0622 -0.2774  0.4427
46866SOL    HW146561   4.543  11.945  10.946  0.1241 -0.5676  0.2517
46866SOL    HW246562   4.656  12.038  10.983 -0.4063 -0.2045  0.9790
46867SOL     OW46563  10.412  11.441  10.773  0.3818  0.4108  0.0543
46867SOL    HW146564  10.349  11.394  10.719  1.7526 -1.3636 -0.0891
46867SOL    HW246565  10.497  11.419  10.736  1.2438  0.7901  1.6929
46868SOL     OW46566   3.669  11.608   9.763  0.9970  0.1395 -0.0026
46868SOL    HW146567   3.662  11.550   9.687  2.2068 -0.0567  0.0192
46868SOL    HW246568   3.746  11.663   9.744  1.0795  0.3469  0.8990
46869SOL     OW46569   4.409   2.823   4.323  0.3003  0.5505  0.4328
46869SOL    HW146570   4.462   2.849   4.398 -2.7941 -0.0762  3.1156
46869SOL    HW246571   4.345   2.894   4.313 -2.1132 -1.2987  1.4967
46870SOL     OW46572   1.159   5.563   2.867  0.2072 -0.2045 -0.2863
46870SOL    HW146573   1.125   5.474   2.878 -1.0269  0.3467  0.6787
46870SOL    HW246574   1.112   5.597   2.790 -0.9184  0.2945  0.5891
46871SOL     OW46575   6.253  12.466   0.118 -0.1768 -0.4203 -0.4301
46871SOL    HW146576   6.312  12.532   0.080  1.0232 -0.9255  0.5175
46871SOL    HW246577   6.285  12.383   0.083 -1.0323 -0.6141 -0.7768
46872SOL     OW46578   8.074   1.568  10.219 -0.0943  0.1223  0.2447
46872SOL    HW146579   8.100   1.527  10.301 -1.4398 -0.4783  0.3903
46872SOL    HW246580   8.146   1.629  10.199  0.5032 -0.1123  1.5707
46873SOL     OW46581   4.930   1.743   4.147  0.1183 -0.2788  0.1306
46873SOL    HW146582   4.903   1.819   4.096 -1.8408  0.3902  2.0656
46873SOL    HW246583   4.997   1.776   4.206 -2.3289  0.6365  2.5879
46874SOL     OW46584   4.161   5.566   2.118 -0.1784  0.2315 -0.1162
46874SOL    HW146585   4.146   5.638   2.056 -0.5945  0.4211  0.2030
46874SOL    HW246586   4.218   5.506   2.070  1.9187  1.7429  0.3088
46875SOL     OW46587   9.281   9.070   8.852  0.4954 -0.3179  0.3625
46875SOL    HW146588   9.346   9.101   8.915  0.5748  0.8293 -0.2562
46875SOL    HW246589   9.280   9.136   8.783  2.3839 -2.8166 -2.3097
46876SOL     OW46590  11.428   8.106  10.748  0.2578 -0.1371 -0.9715
46876SOL    HW146591  11.459   8.153  10.825  2.9092 -0.3446 -1.8020
46876SOL    HW246592  11.439   8.167  10.675 -1.6346 -0.1534 -1.3290
46877SOL     OW46593   9.684  11.352  11.455  0.0376  0.0655  0.2627
46877SOL    HW146594   9.591  11.347  11.477 -0.0777  0.0694 -0.2138
46877SOL    HW246595   9.717  11.426  11.506  0.2029 -1.0816  1.9118
46878SOL     OW46596  11.794   3.147   2.927 -0.3239  0.3954 -0.0190
46878SOL    HW146597  11.787   3.165   3.021  1.6424  1.7792 -0.0710
46878SOL    HW246598  11.888   3.151   2.909 -0.5908 -0.7690 -1.8882
46879SOL     OW46599  10.047   8.449   7.525 -0.5528  0.1698  0.0374
46879SOL    HW146600  10.071   8.415   7.611 -1.3286  0.0953  0.2374
46879SOL    HW246601   9.963   8.492   7.540 -0.0907  1.2644 -0.4288
46880SOL     OW46602   0.699   5.018   6.199 -0.1981 -0.2759 -0.6809
46880SOL    HW146603   0.612   5.057   6.211 -0.2265 -0.1767 -1.1957
46880SOL    HW246604   0.687   4.954   6.129  0.0933 -0.4431 -0.5819
46881SOL     OW46605   6.731   4.060   0.423  0.1126  0.6226  0.0180
46881SOL    HW146606   6.704   4.149   0.398 -2.1153 -0.1552 -0.5280
46881SOL    HW246607   6.790   4.032   0.353  1.4604  1.8927  0.5726
46882SOL     OW46608   8.903   2.709   3.454  0.6945  0.5013 -0.2018
46882SOL    HW146609   8.880   2.617   3.445  1.3420  0.3314 -0.2103
46882SOL    HW246610   8.839   2.744   3.516 -0.5554  0.4466 -1.4193
46883SOL     OW46611   6.633   2.958   6.794 -0.0471 -0.3714  0.5560
46883SOL    HW146612   6.598   3.037   6.836  0.6415 -0.3130  1.0300
46883SOL    HW246613   6.568   2.890   6.813 -1.9472  0.5824 -1.9664
46884SOL     OW46614   5.156   5.351   4.059 -0.7232  0.1255  0.3455
46884SOL    HW146615   5.127   5.349   3.968  0.3630  1.1707 -0.0613
46884SOL    HW246616   5.214   5.427   4.064  1.6193 -1.6102  1.1752
46885SOL     OW46617   7.164   5.962   1.481 -0.3082 -0.5081  0.0297
46885SOL    HW146618   7.249   6.000   1.504 -1.3530  2.2149 -0.3113
46885SOL    HW246619   7.164   5.958   1.385 -0.2905 -1.3030  0.0496
46886SOL     OW46620   5.739   3.588  12.012  0.2733 -0.4239 -0.3297
46886SOL    HW146621   5.700   3.585  11.925 -1.7403  1.3049  0.4053
46886SOL    HW246622   5.664   3.582  12.072  1.2877  1.2801  1.2276
46887SOL     OW46623   7.963   5.745   1.636  0.7269  0.1358 -0.7995
46887SOL    HW146624   7.999   5.703   1.558  1.0681 -1.5009  0.1839
46887SOL    HW246625   8.012   5.706   1.709 -1.9112 -1.0307  0.4976
46888SOL     OW46626   6.198   7.164   7.489 -0.2707  0.2073  0.2676
46888SOL    HW146627   6.180   7.073   7.510  0.6140 -0.3108 -1.0726
46888SOL    HW246628   6.190   7.211   7.572 -0.4979 -1.1241  1.0146
46889SOL     OW46629  11.735   6.784   2.822  0.0213  0.5779 -0.1287
46889SOL    HW146630  11.763   6.864   2.778 -0.3459 -0.1186 -1.7288
46889SOL    HW246631  11.698   6.730   2.752 -1.8986 -0.0436  1.2790
46890SOL     OW46632   9.524   6.535   2.964 -0.1467 -0.2779  0.9101
46890SOL    HW146633   9.595   6.521   2.901 -0.8839  1.5487 -0.4386
46890SOL    HW246634   9.512   6.450   3.007  0.4173 -1.6292 -1.4167
46891SOL     OW46635   2.391  11.178  10.104  0.4399  0.3396 -0.0370
46891SOL    HW146636   2.362  11.089  10.084 -0.3989  0.4189  0.7654
46891SOL    HW246637   2.486  11.171  10.114  0.5140 -0.2577 -1.0067
46892SOL     OW46638   2.966   7.777   2.037 -0.5197  0.8450  0.0552
46892SOL    HW146639   2.994   7.788   1.946  0.4189 -1.6768 -0.0325
46892SOL    HW246640   3.046   7.790   2.088 -0.6330  0.3609  0.3582
46893SOL     OW46641   9.276   8.101   3.665 -0.6550 -0.0448 -0.1187
46893SOL    HW146642   9.217   8.032   3.637 -0.1047 -0.4334 -0.3438
46893SOL    HW246643   9.270   8.167   3.597  0.2167 -0.7105 -0.8632
46894SOL     OW46644   0.565   4.702   0.079 -0.2843  0.0940  0.6407
46894SOL    HW146645   0.591   4.610   0.077  0.4008  0.2878 -0.5781
46894SOL    HW246646   0.642   4.748   0.113  0.0789  0.3948 -0.5245
46895SOL     OW46647  12.226   4.462   8.625  0.1575  0.4175  0.2734
46895SOL    HW146648  12.249   4.457   8.532 -0.4248 -0.2101  0.1557
46895SOL    HW246649  12.307   4.491   8.668  0.3500  0.9954 -0.4567
46896SOL     OW46650   2.368   5.521   2.259 -0.3252  0.1830 -0.1201
46896SOL    HW146651   2.444   5.568   2.294 -1.3341  1.2527  0.7392
46896SOL    HW246652   2.322   5.487   2.336 -0.3823 -1.0335 -0.6575
46897SOL     OW46653  11.644  11.357  10.453 -0.6922  0.5619  0.0321
46897SOL    HW146654  11.579  11.291  10.479 -1.5981  1.3971 -0.0691
46897SOL    HW246655  11.694  11.315  10.384 -0.0919 -0.6700  1.1543
46898SOL     OW46656  10.805   5.885   9.457 -0.2406 -0.0736  0.1339
46898SOL    HW146657  10.772   5.818   9.397 -0.9963 -0.5023  1.0048
46898SOL    HW246658  10.866   5.936   9.404 -1.7617  0.2911 -1.3396
46899SOL     OW46659   7.920   9.990   9.987 -0.7685 -0.4318 -0.4763
46899SOL    HW146660   7.896   9.900   9.968 -1.2688 -0.2993 -0.5088
46899SOL    HW246661   7.896  10.002  10.079 -0.7503 -0.3205 -0.4861
46900SOL     OW46662   8.137   6.655   4.610 -0.0902 -0.3370  0.2241
46900SOL    HW146663   8.231   6.635   4.608  0.2785  1.0125  1.9294
46900SOL    HW246664   8.127   6.726   4.545  0.3069  0.3213  0.8619
46901SOL     OW46665  11.247   9.779   1.990  0.2568  0.0396 -0.2976
46901SOL    HW146666  11.304   9.849   2.024  0.1482 -0.7338  1.6243
46901SOL    HW246667  11.307   9.716   1.950  0.8109 -0.6971  1.5780
46902SOL     OW46668   7.961   3.197   2.058  0.3319  0.2025 -0.0663
46902SOL    HW146669   7.988   3.198   1.967 -0.3012  0.7494 -0.2615
46902SOL    HW246670   7.919   3.282   2.071 -0.9362 -0.4515  0.3041
46903SOL     OW46671   3.817   2.900   9.202 -0.0180 -0.4916 -0.0217
46903SOL    HW146672   3.906   2.869   9.190  0.7996  1.3903  0.8168
46903SOL    HW246673   3.774   2.885   9.118  1.2301 -0.9520 -0.5882
46904SOL     OW46674   7.123   7.739   9.078 -0.1861 -0.9749 -0.4573
46904SOL    HW146675   7.147   7.655   9.116 -2.3663 -1.2990  0.3476
46904SOL    HW246676   7.032   7.752   9.104 -0.4246  0.8557 -1.9890
46905SOL     OW46677  10.946   4.214  11.172  0.6657  0.0878  0.2157
46905SOL    HW146678  10.903   4.299  11.169 -2.0664 -1.0250  2.8703
46905SOL    HW246679  10.957   4.190  11.080 -1.7764  1.7725 -0.6138
46906SOL     OW46680   5.132   2.976   0.714 -0.0258  0.4306  0.4593
46906SOL    HW146681   5.165   3.001   0.801  0.4123  1.3504  0.0406
46906SOL    HW246682   5.142   3.055   0.661  0.7655 -0.4428 -0.7346
46907SOL     OW46683   7.995  10.468   1.789  0.3839  0.0818 -0.1911
46907SOL    HW146684   7.902  10.486   1.804  0.5584  0.8522  0.0235
46907SOL    HW246685   8.015  10.396   1.849 -0.3654 -0.9605 -1.1525
46908SOL     OW46686   9.995   7.090   5.779 -0.3190 -0.1683  0.2024
46908SOL    HW146687  10.078   7.065   5.819 -0.6920  0.0075  1.1214
46908SOL    HW246688   9.936   7.104   5.853 -0.4937  2.1287 -0.2909
46909SOL     OW46689  10.713   1.636  10.367 -1.1949  0.4786  0.1286
46909SOL    HW146690  10.656   1.570  10.327 -1.4195  0.0239  1.1448
46909SOL    HW246691  10.801   1.609  10.342 -1.2748 -0.3082  0.6318
46910SOL     OW46692   3.407  11.443   3.295  0.0480  0.0319 -0.0391
46910SOL    HW146693   3.484  11.415   3.345 -0.4150  0.4053  0.9064
46910SOL    HW246694   3.440  11.459   3.207  0.9578 -0.2844  0.2357
46911SOL     OW46695   2.502   9.870   3.229 -0.2427 -0.2430 -0.1474
46911SOL    HW146696   2.451   9.896   3.306 -1.8087 -0.2854 -1.1355
46911SOL    HW246697   2.582   9.923   3.234 -1.8482  2.3546 -0.3131
46912SOL     OW46698   8.770   9.103  11.322 -0.1032  0.2622  0.0244
46912SOL    HW146699   8.851   9.148  11.348  0.1973 -0.0476 -0.3721
46912SOL    HW246700   8.760   9.034  11.388 -0.2053  0.4861  0.2464
46913SOL     OW46701   0.268   0.214   1.602 -0.1069 -0.5225  0.0991
46913SOL    HW146702   0.197   0.241   1.660 -1.0535 -0.8093 -0.8867
46913SOL    HW246703   0.256   0.268   1.523  1.4320  0.1974  0.3297
46914SOL     OW46704   6.730   7.439   0.075  0.3555  0.3086  0.3802
46914SOL    HW146705   6.687   7.510   0.122  1.5813  0.5654  1.1619
46914SOL    HW246706   6.785   7.483   0.010  1.6450  0.1364  1.3192
46915SOL     OW46707   0.323   8.514   2.961  0.4119  0.4028  0.1917
46915SOL    HW146708   0.273   8.589   2.993 -0.6411 -0.9803  1.9911
46915SOL    HW246709   0.391   8.500   3.027 -1.7595 -2.4771  2.0538
46916SOL     OW46710   8.068   4.981  11.827 -0.0731  0.0897 -0.3407
46916SOL    HW146711   8.120   5.020  11.757  0.1969 -1.4529 -1.0279
46916SOL    HW246712   8.109   5.012  11.907 -0.9098  2.5934 -0.7910
46917SOL     OW46713   7.250   3.531   4.843 -0.2252 -0.2906  0.5724
46917SOL    HW146714   7.320   3.554   4.904 -0.2750 -1.0821  0.9509
46917SOL    HW246715   7.171   3.533   4.896 -0.4254  0.1053  0.2650
46918SOL     OW46716   0.069  12.140   2.737  0.4926 -0.2012  0.0783
46918SOL    HW146717  -0.005  12.171   2.685  1.0747 -0.1756 -0.7463
46918SOL    HW246718   0.061  12.188   2.820 -0.6079 -0.4618  0.1501
46919SOL     OW46719   9.760  11.706   8.454  0.5492  0.1850  0.8918
46919SOL    HW146720   9.705  11.748   8.387 -0.9549  1.6806  2.9556
46919SOL    HW246721   9.759  11.613   8.430 -1.0160  0.4904 -0.4432
46920SOL     OW46722   4.436   6.725   0.882 -0.0355 -0.6224  0.1230
46920SOL    HW146723   4.527   6.753   0.878  0.4729 -2.1041  0.7965
46920SOL    HW246724   4.391   6.795   0.930  0.6973  0.1940 -0.3553
46921SOL     OW46725   4.111   4.986   9.511 -0.2668  0.2598 -0.2432
46921SOL    HW146726   4.075   4.911   9.464  0.5315  0.2095 -0.7902
46921SOL    HW246727   4.161   4.947   9.583  0.3679  0.2467 -0.6823
46922SOL     OW46728   8.602   2.797   5.949 -0.9065  0.5858 -0.1751
46922SOL    HW146729   8.592   2.768   6.040  0.5378  0.9307  0.1164
46922SOL    HW246730   8.514   2.824   5.923 -1.3224  0.5788  1.1554
46923SOL     OW46731   9.409   5.201  12.385 -0.0708  0.0133 -0.7358
46923SOL    HW146732   9.485   5.257  12.399 -0.6982  0.7515 -0.1978
46923SOL    HW246733   9.375   5.229  12.300  0.5783 -0.7228 -1.2584
46924SOL     OW46734   9.082   4.226   4.259 -0.1312  0.1788 -0.3250
46924SOL    HW146735   9.146   4.156   4.243 -0.8455 -0.3300 -1.0671
46924SOL    HW246736   9.033   4.232   4.177  0.8305  2.5447 -0.8303
46925SOL     OW46737   4.144   0.770   9.223 -0.4791 -0.1379  0.7226
46925SOL    HW146738   4.190   0.852   9.243  0.0886 -0.0212 -0.9448
46925SOL    HW246739   4.194   0.703   9.269  0.4885  0.1680  0.1288
46926SOL     OW46740   0.328   1.895   3.950 -0.0044 -0.1580  0.1537
46926SOL    HW146741   0.401   1.912   3.890  0.3284 -0.6641  0.4015
46926SOL    HW246742   0.250   1.915   3.899  0.3090  0.3291 -0.1381
46927SOL     OW46743   1.263   9.113  12.476 -0.1976 -0.1930 -0.5606
46927SOL    HW146744   1.180   9.085  12.516  0.4462 -1.3245  0.0381
46927SOL    HW246745   1.280   9.199  12.514 -0.9824 -0.0439 -0.5250
46928SOL     OW46746   5.177   2.026   9.951  0.4675 -0.1681  0.5036
46928SOL    HW146747   5.132   2.003  10.032  1.4703 -0.0623  1.1106
46928SOL    HW246748   5.226   1.946   9.928 -0.7718 -0.6153 -0.6818
46929SOL     OW46749  10.155   2.124   2.846  0.4300  0.1531  0.0051
46929SOL    HW146750  10.230   2.082   2.886  0.1628 -1.7302 -1.3199
46929SOL    HW246751  10.185   2.149   2.758 -0.3151 -0.2026 -0.3699
46930SOL     OW46752   5.363   4.921   7.798 -0.4986  0.1637  0.6322
46930SOL    HW146753   5.444   4.971   7.790 -0.2158 -0.1211  1.6073
46930SOL    HW246754   5.310   4.949   7.723  0.8142 -0.2486 -0.4842
46931SOL     OW46755  10.445  11.602   0.612  0.3149  0.4999  0.3572
46931SOL    HW146756  10.403  11.660   0.675  1.9415  0.5904  1.4298
46931SOL    HW246757  10.397  11.519   0.619  1.1950  0.1178  2.6568
46932SOL     OW46758  12.089   1.748   0.708  0.1316 -0.1909  0.3252
46932SOL    HW146759  12.041   1.807   0.650 -0.4183 -0.1424  0.8184
46932SOL    HW246760  12.021   1.707   0.762  0.6497 -0.0959  1.0560
46933SOL     OW46761  11.190   3.922   2.937 -0.9704  0.1271  0.0172
46933SOL    HW146762  11.255   3.865   2.896  0.2339 -0.5746  2.6945
46933SOL    HW246763  11.173   3.990   2.871 -0.5091 -1.8196 -2.2587
46934SOL     OW46764   9.233   8.649   1.397 -0.1826  0.0725 -0.1904
46934SOL    HW146765   9.260   8.739   1.381 -0.1391  0.0000 -0.5354
46934SOL    HW246766   9.175   8.654   1.473  0.9242  0.2103  0.6602
46935SOL     OW46767   4.376   8.189   5.415  0.6181  0.1778  0.5942
46935SOL    HW146768   4.398   8.282   5.403  0.8920 -0.0340 -0.6508
46935SOL    HW246769   4.450   8.142   5.376  0.7709 -0.5796  1.7529
46936SOL     OW46770  10.118   7.528   9.298  0.3722  0.4698  0.6284
46936SOL    HW146771  10.111   7.465   9.226 -0.9963  2.2640 -0.9212
46936SOL    HW246772  10.029   7.533   9.334  0.8627  0.2040  1.9739
46937SOL     OW46773   0.945  11.441   8.912  0.8505  0.0086  0.3690
46937SOL    HW146774   1.023  11.472   8.866  0.4680 -0.7765 -0.8611
46937SOL    HW246775   0.946  11.346   8.900 -1.2244  0.1233 -1.2437
46938SOL     OW46776   7.679   1.295   2.513  0.4815  0.4260  0.1281
46938SOL    HW146777   7.750   1.350   2.545  0.5378  0.3604  0.1160
46938SOL    HW246778   7.605   1.354   2.503  0.4097  0.4116  0.5670
46939SOL     OW46779   2.694  11.087   9.231 -0.6573 -0.4323  0.2327
46939SOL    HW146780   2.742  11.144   9.172 -1.1965  0.4462  0.6169
46939SOL    HW246781   2.761  11.050   9.289 -0.0175 -1.8990 -1.3621
46940SOL     OW46782   0.571   8.385   9.430  0.1864  0.0708  0.8155
46940SOL    HW146783   0.622   8.305   9.424 -1.6182 -1.0867  0.2021
46940SOL    HW246784   0.525   8.379   9.513 -1.1334 -0.3063  0.0877
46941SOL     OW46785   6.217   1.894   1.572  0.0678  0.2769  0.4211
46941SOL    HW146786   6.273   1.960   1.530 -2.2366  1.7471 -0.5395
46941SOL    HW246787   6.143   1.884   1.513 -0.2289 -2.4017  1.1178
46942SOL     OW46788   2.335   2.412   4.086 -0.1505 -0.1612 -0.3988
46942SOL    HW146789   2.261   2.382   4.138  0.6720 -0.2690  0.7622
46942SOL    HW246790   2.303   2.413   3.996 -1.6676  0.1707  0.1150
46943SOL     OW46791   9.726   1.557  11.002 -0.2123  0.5776 -0.2472
46943SOL    HW146792   9.778   1.482  10.974 -0.0710  0.8401 -0.6897
46943SOL    HW246793   9.733   1.620  10.930 -0.6409  0.8616 -0.0464
46944SOL     OW46794   2.730   8.243   6.736  0.2960  0.4103  0.5175
46944SOL    HW146795   2.771   8.169   6.780 -0.4227  0.4350  1.2471
46944SOL    HW246796   2.666   8.276   6.798 -1.4683 -0.1654 -0.9009
46945SOL     OW46797  12.186   7.439   4.167 -0.2382  0.2996 -0.2147
46945SOL    HW146798  12.239   7.514   4.195 -0.0564  0.5252 -1.1179
46945SOL    HW246799  12.134   7.473   4.093  0.9933 -0.8459 -1.6806
46946SOL     OW46800  10.867   1.239  12.181 -0.3030 -0.2976  0.0607
46946SOL    HW146801  10.875   1.165  12.241  0.5059  0.3061  0.7314
46946SOL    HW246802  10.774   1.259  12.179 -0.2852  0.0978  1.6722
46947SOL     OW46803   1.446   9.684  10.796  0.7378  0.0582  0.1580
46947SOL    HW146804   1.516   9.664  10.734  0.0723 -3.1065  0.2413
46947SOL    HW246805   1.391   9.747  10.749  0.7986 -1.4548 -2.1449
46948SOL     OW46806   9.931   4.532   9.743 -0.0140  0.6655 -0.1242
46948SOL    HW146807   9.997   4.505   9.680  0.9456 -0.6980  1.3871
46948SOL    HW246808   9.947   4.626   9.755  0.4971  0.7114 -1.0763
46949SOL     OW46809   4.361   7.744  10.071  0.1775 -0.1541 -0.2286
46949SOL    HW146810   4.372   7.686   9.995 -0.7420 -1.2551  0.4624
46949SOL    HW246811   4.335   7.686  10.142 -1.4917  1.1949  0.3114
46950SOL     OW46812   8.205   8.982   6.924  0.5817 -0.3211  0.0842
46950SOL    HW146813   8.245   9.044   6.985 -1.8122  1.8335 -0.3620
46950SOL    HW246814   8.247   9.000   6.840  1.3493 -0.8098  0.3472
46951SOL     OW46815  12.218   7.147   4.841  0.2501 -0.1134 -0.3819
46951SOL    HW146816  12.286   7.188   4.788  0.0807 -0.0990 -0.5868
46951SOL    HW246817  12.198   7.065   4.796 -1.9921  1.2376 -1.9966
46952SOL     OW46818  10.760   2.293   1.905  0.4595  0.2369  0.5378
46952SOL    HW146819  10.720   2.328   1.826  0.9451 -0.7612 -0.1687
46952SOL    HW246820  10.768   2.199   1.889 -0.0381 -0.1001  2.0380
46953SOL     OW46821   3.377   3.218   7.416 -0.3630  0.3621 -0.4750
46953SOL    HW146822   3.463   3.255   7.395 -0.3374  0.7258  0.2318
46953SOL    HW246823   3.324   3.233   7.338 -0.5595  2.5371  0.0114
46954SOL     OW46824   5.475   7.664  12.278  0.8349  0.3638 -0.0893
46954SOL    HW146825   5.523   7.595  12.231  1.1611  0.6532 -0.1857
46954SOL    HW246826   5.502   7.745  12.235  0.6211  0.5715  0.1673
46955SOL     OW46827   0.130  10.459  10.745 -0.2589  0.6536  0.0159
46955SOL    HW146828   0.159  10.467  10.654 -1.4982  1.7479 -0.3186
46955SOL    HW246829   0.054  10.401  10.741  1.3373 -1.6174  0.7830
46956SOL     OW46830   6.528  10.763  10.235  0.2417 -0.3893  0.1525
46956SOL    HW146831   6.549  10.717  10.316  1.5574 -0.0552  0.0275
46956SOL    HW246832   6.476  10.839  10.263 -0.3530 -0.9236  0.5415
46957SOL     OW46833   3.712   6.756   2.272  0.0523  0.0783  0.1682
46957SOL    HW146834   3.647   6.796   2.330  2.1494  3.1854  0.6350
46957SOL    HW246835   3.793   6.757   2.322  0.8043 -2.5362 -0.8308
46958SOL     OW46836   0.248   0.138  10.476 -0.4540 -0.1015 -0.3212
46958SOL    HW146837   0.153   0.141  10.486 -0.4084 -0.0459  0.1051
46958SOL    HW246838   0.278   0.090  10.553 -0.1982 -0.8173 -0.8477
46959SOL     OW46839  11.498   0.593   4.899 -0.1808 -0.2760  0.4903
46959SOL    HW146840  11.587   0.609   4.868 -0.4228  1.9047  0.8087
46959SOL    HW246841  11.442   0.621   4.826 -0.6634  2.1264  1.6803
46960SOL     OW46842   2.224  10.152  12.079 -0.2510 -0.0126 -0.4617
46960SOL    HW146843   2.296  10.212  12.100  0.0321 -0.2194 -0.8392
46960SOL    HW246844   2.255  10.101  12.005 -1.1681  0.5886 -1.2969
46961SOL     OW46845   5.139   7.036   8.812  0.1163  0.3976  0.0496
46961SOL    HW146846   5.198   7.101   8.774  0.4054  0.5160  0.6805
46961SOL    HW246847   5.052   7.075   8.805  0.1536  0.3753 -0.5679
46962SOL     OW46848   4.601  10.824   1.565 -0.2512 -0.0399  0.5850
46962SOL    HW146849   4.651  10.885   1.620 -0.4273 -0.4077  1.1636
46962SOL    HW246850   4.568  10.878   1.494  0.3124  0.3699  0.6193
46963SOL     OW46851   2.054  10.764   5.034 -0.2540 -0.4229  0.2710
46963SOL    HW146852   2.104  10.830   4.986  0.0760  0.2584  1.5044
46963SOL    HW246853   1.995  10.726   4.969 -1.1230  1.7412 -0.2980
46964SOL     OW46854   7.575   6.541   1.423  0.5800  0.1568  0.3534
46964SOL    HW146855   7.638   6.613   1.424  0.1582  0.5243  1.0308
46964SOL    HW246856   7.510   6.567   1.357  1.3172 -0.3993 -0.6238
46965SOL     OW46857   3.110   6.853   0.125 -0.2702 -0.2444 -0.4745
46965SOL    HW146858   3.180   6.917   0.115  1.5175 -1.7135  1.6624
46965SOL    HW246859   3.104   6.811   0.039  0.4375  0.9048 -1.1140
46966SOL     OW46860  11.662   8.374   5.564 -0.2746  0.1814  0.4140
46966SOL    HW146861  11.733   8.343   5.508 -0.4728  0.1004  0.2041
46966SOL    HW246862  11.693   8.457   5.600  0.7011 -0.7438  1.8052
46967SOL     OW46863   2.043   4.475   8.556 -0.1443  0.1276 -0.1307
46967SOL    HW146864   2.101   4.544   8.587 -1.3864  0.2818  2.0702
46967SOL    HW246865   2.080   4.394   8.591 -0.9755  0.1918  0.9853
46968SOL     OW46866   5.713   4.683   4.312  0.2787 -0.2454 -0.6797
46968SOL    HW146867   5.649   4.613   4.325  0.6138 -0.7788 -1.7803
46968SOL    HW246868   5.753   4.695   4.398  0.4285 -1.6380 -0.5226
46969SOL     OW46869   9.191   3.238   6.506 -0.2496  0.1833  0.8677
46969SOL    HW146870   9.179   3.332   6.524  1.1200  1.0760 -2.2178
46969SOL    HW246871   9.107   3.198   6.528 -1.5937  2.5013  0.2974
46970SOL     OW46872   7.483   8.618  11.528  0.2330  0.1531 -0.5116
46970SOL    HW146873   7.556   8.584  11.580  0.6033  2.3607  0.4975
46970SOL    HW246874   7.489   8.713  11.536 -0.1274  0.6125 -4.0488
46971SOL     OW46875   8.586  12.210   0.773  0.4232 -0.5248 -0.0052
46971SOL    HW146876   8.609  12.223   0.681  2.3538  0.8791  0.5873
46971SOL    HW246877   8.493  12.191   0.773  0.2955 -0.1332 -2.2161
46972SOL     OW46878  11.751   5.004  10.067  0.4326 -0.0418 -0.2227
46972SOL    HW146879  11.659   5.009  10.093 -0.3278 -2.4401 -2.0149
46972SOL    HW246880  11.797   5.061  10.128 -2.1063  0.4153  1.4050
46973SOL     OW46881   1.541   0.707   2.986  0.0241 -0.7411  0.0803
46973SOL    HW146882   1.510   0.616   2.986 -1.3369 -0.3552  2.2793
46973SOL    HW246883   1.632   0.701   3.015  1.0356 -1.5884 -2.8988
46974SOL     OW46884  10.179   7.742   1.249 -0.4177  0.1136  0.3404
46974SOL    HW146885  10.193   7.832   1.220  0.2403  0.3182  1.2488
46974SOL    HW246886  10.110   7.708   1.192  0.6791  0.5648 -1.3092
46975SOL     OW46887   6.815   2.065   9.975  0.3037  0.5234 -0.2821
46975SOL    HW146888   6.783   2.090  10.061 -1.9697  1.0753 -1.1995
46975SOL    HW246889   6.784   2.135   9.917  0.1620 -0.7565 -1.8171
46976SOL     OW46890   9.745   2.874   5.290  0.5387  0.2213  0.0358
46976SOL    HW146891   9.675   2.819   5.326  0.3039  1.6957  2.0326
46976SOL    HW246892   9.734   2.869   5.195 -2.0226  0.0548  0.2645
46977SOL     OW46893   8.372   8.126   9.947  0.5377  0.0691  0.0757
46977SOL    HW146894   8.363   8.139   9.852  1.4165 -0.2827 -0.0718
46977SOL    HW246895   8.368   8.031   9.958 -0.0420  0.1329  0.4552
46978SOL     OW46896   2.819   0.852   4.346 -0.6640 -0.7517 -0.4123
46978SOL    HW146897   2.814   0.774   4.401 -0.8877 -0.5764 -0.1823
46978SOL    HW246898   2.789   0.822   4.260 -0.5117 -0.9765 -0.3887
46979SOL     OW46899   5.422   3.793  12.266  0.3517  0.2179 -0.2497
46979SOL    HW146900   5.379   3.798  12.180 -0.5031 -1.8883 -0.0098
46979SOL    HW246901   5.503   3.843  12.256 -0.9616  2.2425 -1.4644
46980SOL     OW46902   7.666   5.179   0.901  0.1943 -0.0964  0.6482
46980SOL    HW146903   7.649   5.122   0.825 -0.3477 -1.1995  1.5672
46980SOL    HW246904   7.692   5.262   0.863 -0.5401 -0.4804 -0.7648
46981SOL     OW46905   1.688   7.413  10.107  0.4229  0.0121  0.1741
46981SOL    HW146906   1.677   7.318  10.101 -0.6232  0.0852  0.7077
46981SOL    HW246907   1.775   7.425  10.145 -0.1921 -0.7985  1.9417
46982SOL     OW46908  11.216   7.224   8.130  0.2407 -0.0812  0.0948
46982SOL    HW146909  11.298   7.207   8.176 -0.0350  0.4206  0.7792
46982SOL    HW246910  11.158   7.152   8.157 -0.3855  0.9687  1.6869
46983SOL     OW46911   2.450  10.513   1.359 -0.5368 -0.3533  0.3724
46983SOL    HW146912   2.544  10.502   1.343 -0.8296 -1.0585 -0.9995
46983SOL    HW246913   2.446  10.556   1.445  1.0662  0.5558  0.0523
46984SOL     OW46914   0.733   0.887   8.331 -0.0709  0.3247  0.3664
46984SOL    HW146915   0.721   0.836   8.251  0.2592  1.6884 -0.5727
46984SOL    HW246916   0.799   0.953   8.309 -0.3295  1.0428  1.6144
46985SOL     OW46917   1.770   1.073   5.753 -0.2430  0.3764 -0.5228
46985SOL    HW146918   1.699   1.013   5.776  0.0380 -0.3729 -1.5531
46985SOL    HW246919   1.731   1.134   5.691 -0.2089  0.4930 -0.4288
46986SOL     OW46920   5.114   0.522   7.091  0.4289  0.4548 -0.1751
46986SOL    HW146921   5.141   0.439   7.052  0.0899  0.2814 -0.0440
46986SOL    HW246922   5.036   0.548   7.041 -0.8498 -0.4659  1.2594
46987SOL     OW46923   8.586   5.179   5.903 -0.1157  0.2190  0.1541
46987SOL    HW146924   8.615   5.256   5.855  0.4648  0.2483  0.5413
46987SOL    HW246925   8.493   5.171   5.881 -0.4601  1.6611  0.9279
46988SOL     OW46926   4.841   9.745  10.228  0.7191  0.2267 -0.4577
46988SOL    HW146927   4.879   9.829  10.256 -0.3564  0.8033 -0.6726
46988SOL    HW246928   4.862   9.739  10.135 -0.5099  1.0183 -0.8126
46989SOL     OW46929   2.198  11.110   6.692 -0.1890 -0.4816  0.1443
46989SOL    HW146930   2.193  11.082   6.601  0.0216  0.0576 -0.0380
46989SOL    HW246931   2.107  11.119   6.720 -0.3742 -3.4963  0.9088
46990SOL     OW46932   4.064  11.435   9.262  0.8064  0.3284  0.1165
46990SOL    HW146933   4.040  11.478   9.344  2.4007  1.2195  0.1567
46990SOL    HW246934   4.045  11.499   9.194  1.6124  0.4640  0.0132
46991SOL     OW46935  11.633   4.683   7.509 -0.4029 -0.3949 -0.5542
46991SOL    HW146936  11.569   4.638   7.565 -0.3567  0.2407  0.0250
46991SOL    HW246937  11.696   4.721   7.570  0.2189 -0.5352 -1.0941
46992SOL     OW46938   8.109  10.983  12.361  0.0945  0.1520 -0.7148
46992SOL    HW146939   8.120  11.057  12.301 -1.2571  0.8455 -0.1475
46992SOL    HW246940   8.193  10.937  12.358  0.9571  1.6920 -1.0955
46993SOL     OW46941   7.530   6.302   9.023 -0.1125 -0.0750 -0.1722
46993SOL    HW146942   7.587   6.312   9.100 -0.2368 -0.5255 -0.0213
46993SOL    HW246943   7.530   6.389   8.983  2.1206 -0.4836 -1.2004
46994SOL     OW46944   1.288  10.220   2.000  0.4446 -0.3724  0.2201
46994SOL    HW146945   1.325  10.224   2.088 -0.0802  0.0298  0.4261
46994SOL    HW246946   1.267  10.128   1.987  0.0104 -0.3504  0.7330
46995SOL     OW46947   4.377   4.101   5.652  0.3608 -0.1178 -0.3222
46995SOL    HW146948   4.288   4.068   5.658  0.6516 -0.7574  0.6260
46995SOL    HW246949   4.428   4.027   5.619  1.1454 -0.9737  2.5086
46996SOL     OW46950  10.359  10.776   9.452  0.6054  0.0543 -0.3805
46996SOL    HW146951  10.309  10.704   9.413  1.1146  0.0957 -1.1169
46996SOL    HW246952  10.308  10.854   9.432  0.3726 -0.0275 -0.1175
46997SOL     OW46953   8.976   8.137  11.051 -0.2426  0.1327 -0.2574
46997SOL    HW146954   9.068   8.158  11.040  0.5133 -2.2023  0.8814
46997SOL    HW246955   8.961   8.145  11.145 -0.2619 -2.6406  0.0498
46998SOL     OW46956   8.344   5.879   4.838 -0.7108 -0.3846  0.1172
46998SOL    HW146957   8.371   5.805   4.892 -0.8643 -1.6110 -1.3857
46998SOL    HW246958   8.302   5.838   4.762 -1.7702  1.2980 -0.2461
46999SOL     OW46959   2.565   4.951   6.032 -0.0584  0.4987 -0.0298
46999SOL    HW146960   2.603   4.970   5.947  2.6934 -0.1578  0.9478
46999SOL    HW246961   2.620   4.999   6.094 -0.8320 -0.5229  1.5195
47000SOL     OW46962  12.091   5.400   1.850 -0.4402 -0.2082  0.1227
47000SOL    HW146963  12.165   5.345   1.877 -0.2053 -0.1436 -0.3688
47000SOL    HW246964  12.073   5.455   1.926  0.4770  0.2568  0.0214
47001SOL     OW46965   5.830   3.593   2.099  0.1434  0.3311 -0.0867
47001SOL    HW146966   5.906   3.649   2.115 -0.9989  2.0529 -0.4196
47001SOL    HW246967   5.755   3.653   2.102 -1.1281 -1.1689 -0.6188
47002SOL     OW46968  11.519   2.471   6.877  0.0032  0.0313 -0.0884
47002SOL    HW146969  11.599   2.485   6.927  0.2527 -1.9889  0.1562
47002SOL    HW246970  11.530   2.385   6.838 -1.0296  0.7256 -2.0681
47003SOL     OW46971   9.616   7.769   5.979  0.3723  0.1906 -0.3253
47003SOL    HW146972   9.574   7.797   6.060  0.1279 -2.2191  0.4547
47003SOL    HW246973   9.661   7.688   6.002  0.8515 -0.2103 -2.4541
47004SOL     OW46974  10.454   5.530  12.134  0.1265 -0.3482 -0.2106
47004SOL    HW146975  10.384   5.466  12.140  0.9002 -1.1497  0.5927
47004SOL    HW246976  10.534   5.479  12.144  0.9794  0.2561 -2.9353
47005SOL     OW46977   1.611   6.857   2.358 -0.1086  0.1538 -0.4793
47005SOL    HW146978   1.669   6.824   2.289  1.0803  2.0724 -0.4729
47005SOL    HW246979   1.670   6.898   2.421 -1.3693  0.8173  0.3053
47006SOL     OW46980   2.753   8.563   5.832 -0.1245 -0.2421 -0.5057
47006SOL    HW146981   2.672   8.606   5.804 -1.0481 -1.3306  0.3720
47006SOL    HW246982   2.760   8.584   5.925 -0.0001 -1.0643 -0.3208
47007SOL     OW46983   6.006  10.927   7.498 -0.0436  0.3769  1.0868
47007SOL    HW146984   5.966  10.966   7.576 -1.4917  0.5706  0.2776
47007SOL    HW246985   6.088  10.977   7.486 -0.7187  1.6156  1.4214
47008SOL     OW46986   7.775   5.169  10.991 -0.2274  0.2169 -0.1106
47008SOL    HW146987   7.782   5.256  10.952 -0.8310  0.1028 -0.4909
47008SOL    HW246988   7.865   5.139  10.999  0.0018  0.9686  0.2435
47009SOL     OW46989   0.547   3.400   9.100 -0.2177  1.0147 -0.6440
47009SOL    HW146990   0.572   3.321   9.053  0.7207  0.9964 -0.1421
47009SOL    HW246991   0.618   3.462   9.081  0.8290  0.6414  1.6261
47010SOL     OW46992   0.127   8.033   1.404 -0.2467  0.5231  0.1430
47010SOL    HW146993   0.173   7.983   1.473  1.0007  1.0247 -0.2957
47010SOL    HW246994   0.187   8.031   1.330 -0.5265  2.0146 -0.1392
47011SOL     OW46995   4.974   0.751  12.300  0.6498  0.1572 -0.3635
47011SOL    HW146996   5.048   0.812  12.300 -0.9465  2.1797  0.3278
47011SOL    HW246997   4.961   0.731  12.207  2.4164 -0.7531 -0.4626
47012SOL     OW46998   6.317   0.979   1.011  0.2458  0.6301 -0.3591
47012SOL    HW146999   6.231   0.944   1.032  0.9251  1.2372  4.3189
47012SOL    HW247000   6.305   1.074   1.007 -0.0958  0.6785 -5.3287
47013SOL     OW47001   7.883   7.520   7.864 -0.2153 -0.4698 -0.0868
47013SOL    HW147002   7.804   7.500   7.913 -0.8280  1.9610  0.0316
47013SOL    HW247003   7.854   7.579   7.795  1.5113  0.7032  0.1333
47014SOL     OW47004   3.842   5.938   1.840  0.1805  0.0639 -0.2494
47014SOL    HW147005   3.900   6.014   1.849  2.1494 -1.1810 -1.5638
47014SOL    HW247006   3.868   5.880   1.911  1.7760 -1.1852 -1.7578
47015SOL     OW47007   8.678  11.879   9.664 -0.1640 -0.0704  0.9554
47015SOL    HW147008   8.676  11.972   9.644  0.3575  0.1485  1.8510
47015SOL    HW247009   8.600  11.843   9.621 -0.0628  0.6679  0.1317
47016SOL     OW47010   2.707   6.444  10.098 -0.3775  0.5233  0.6494
47016SOL    HW147011   2.757   6.486  10.028  0.8915 -1.6209  0.2028
47016SOL    HW247012   2.708   6.508  10.169  1.5339  1.2555  0.0284
47017SOL     OW47013   2.668   5.711   8.331  0.5015  0.3325 -0.2075
47017SOL    HW147014   2.750   5.753   8.308  1.0139 -0.2491  0.4948
47017SOL    HW247015   2.600   5.770   8.298  1.1889  0.3455 -1.6372
47018SOL     OW47016   2.002   6.941   5.148  0.2970  0.3852  0.2722
47018SOL    HW147017   1.991   6.847   5.133  1.6516  0.3169 -0.4224
47018SOL    HW247018   1.939   6.981   5.088 -1.8910 -0.0444  2.1050
47019SOL     OW47019   2.373  11.552   7.536  0.1806  0.1779 -0.7476
47019SOL    HW147020   2.351  11.580   7.625 -1.8342 -1.5704 -0.6203
47019SOL    HW247021   2.299  11.580   7.482  0.8936  0.3153 -1.6822
47020SOL     OW47022   8.227   7.948   5.616  0.5166  0.2644 -0.0968
47020SOL    HW147023   8.291   7.935   5.687  0.3707 -0.4740 -0.0920
47020SOL    HW247024   8.219   7.862   5.575 -0.1413  0.4566 -0.3823
47021SOL     OW47025   0.872   8.906  11.884  0.0693 -0.4888 -0.5203
47021SOL    HW147026   0.880   8.892  11.978 -1.4145 -0.2588 -0.3383
47021SOL    HW247027   0.793   8.859  11.859 -0.1507  0.3462 -1.4606
47022SOL     OW47028   8.829   1.786   4.811 -0.1028  0.3239  0.0430
47022SOL    HW147029   8.862   1.753   4.728  0.3202  3.4771 -1.2014
47022SOL    HW247030   8.885   1.746   4.877  1.7587  0.2721 -1.4685
47023SOL     OW47031  10.832   3.969   8.394 -0.1382  0.2656  0.0567
47023SOL    HW147032  10.842   4.012   8.309 -1.9206 -1.3267 -1.0452
47023SOL    HW247033  10.915   3.926   8.410 -0.3727 -0.9828 -1.8421
47024SOL     OW47034   1.772   1.457  10.776 -0.3564  0.0086  0.0886
47024SOL    HW147035   1.676   1.464  10.778 -0.3733 -0.0408  2.6205
47024SOL    HW247036   1.796   1.441  10.867  1.9552 -1.8724 -0.7652
47025SOL     OW47037   5.205   7.926  11.553 -0.4452  0.1795  0.6494
47025SOL    HW147038   5.300   7.914  11.554 -0.3099  1.2485  1.3293
47025SOL    HW247039   5.174   7.877  11.629 -0.6681 -1.6460 -0.5261
47026SOL     OW47040   9.212  12.057   9.575  0.5132  0.7398 -0.0883
47026SOL    HW147041   9.242  12.136   9.620 -0.5737  1.6111 -0.8565
47026SOL    HW247042   9.162  12.089   9.501 -1.7339 -0.6552  0.7445
47027SOL     OW47043   2.293   0.008   0.374 -0.2589 -0.4765  0.0391
47027SOL    HW147044   2.361  -0.011   0.309  1.8574 -0.2191  2.0476
47027SOL    HW247045   2.279   0.102   0.367 -2.2156 -0.8383 -1.9606
47028SOL     OW47046  12.493   6.024   5.483 -0.5476  0.5446  0.5625
47028SOL    HW147047  12.508   6.072   5.401 -0.9105  0.5301  0.4851
47028SOL    HW247048  12.580   6.005   5.517 -0.3546 -0.5666 -0.4741
47029SOL     OW47049  10.077  11.669   4.323  0.7560  0.1370  0.0524
47029SOL    HW147050   9.986  11.638   4.317  0.8371  0.1746 -2.2892
47029SOL    HW247051  10.069  11.762   4.340  0.4038 -0.0545  1.0196
47030SOL     OW47052   6.573   3.002   5.678 -0.0133 -0.1573 -0.1652
47030SOL    HW147053   6.641   2.935   5.671 -0.5759 -0.5947 -1.8875
47030SOL    HW247054   6.553   3.006   5.771  1.2267 -1.1733  0.1704
47031SOL     OW47055   9.092   5.289   6.340  0.3348 -0.0872  0.0779
47031SOL    HW147056   9.042   5.337   6.406  0.5813 -1.7039  1.5111
47031SOL    HW247057   9.180   5.283   6.377  0.9665  0.5066 -1.2450
47032SOL     OW47058  12.003   7.023   7.454 -0.2048 -0.4917  0.1706
47032SOL    HW147059  11.917   7.008   7.415 -0.9577  0.1303  1.5140
47032SOL    HW247060  12.021   7.115   7.437 -0.9444  0.0289  1.9565
47033SOL     OW47061   7.104   2.914   9.696  0.0566 -0.6363  0.1987
47033SOL    HW147062   7.049   2.842   9.665 -2.0604  1.6524 -1.9868
47033SOL    HW247063   7.171   2.923   9.628 -0.6511  0.3403 -0.4104
47034SOL     OW47064   8.892   6.185   0.775 -0.0972 -0.0733  0.0682
47034SOL    HW147065   8.805   6.180   0.736  0.9580 -0.8594 -2.3530
47034SOL    HW247066   8.882   6.143   0.861 -1.6087 -2.2920 -1.1104
47035SOL     OW47067   8.064  11.405   7.053  0.1602  0.9284  0.1067
47035SOL    HW147068   8.105  11.462   6.988 -0.1516  0.0915 -0.8444
47035SOL    HW247069   8.037  11.328   7.004 -0.5498  0.4957  1.1407
47036SOL     OW47070   5.391   6.140  10.782  0.0059 -0.2761  0.3263
47036SOL    HW147071   5.339   6.069  10.819 -1.3138  0.2264 -0.4933
47036SOL    HW247072   5.331   6.186  10.722  1.0338  1.0787  0.2739
47037SOL     OW47073   4.893   0.945  10.933 -0.1817 -0.0699  0.5246
47037SOL    HW147074   4.967   0.896  10.896  1.9624  3.1384  0.1337
47037SOL    HW247075   4.871   1.009  10.866 -1.6983  0.6460  1.6534
47038SOL     OW47076   0.890   3.117  10.233  0.2162 -0.2621 -0.2281
47038SOL    HW147077   0.810   3.065  10.231  0.1815 -0.4197  2.2570
47038SOL    HW247078   0.956   3.059  10.269  0.9955  0.4234 -0.5169
47039SOL     OW47079   6.775  12.479   1.208  0.0215  0.0069 -0.7972
47039SOL    HW147080   6.823  12.416   1.263  1.7255  0.8192 -1.2914
47039SOL    HW247081   6.813  12.469   1.121  0.3911  1.7470 -0.8756
47040SOL     OW47082   2.034   6.169  10.800 -0.0212 -0.3196 -0.2590
47040SOL    HW147083   2.119   6.124  10.800  0.5503  0.7189 -0.7909
47040SOL    HW247084   1.970   6.099  10.810  0.7838 -1.3900 -2.0632
47041SOL     OW47085  10.108  10.992   5.087  0.4136  0.0376 -0.9394
47041SOL    HW147086  10.083  10.927   5.021  1.1005 -2.2467  0.9439
47041SOL    HW247087  10.203  10.980   5.098  0.2919  0.2890  0.5260
47042SOL     OW47088   8.020   2.826   7.242 -0.3573 -0.1719 -0.6945
47042SOL    HW147089   7.977   2.862   7.320 -0.3177  0.8948 -1.1578
47042SOL    HW247090   8.089   2.769   7.277  0.9520  1.8136  0.0836
47043SOL     OW47091   6.033  12.080   8.709  0.3603 -0.2581  0.6298
47043SOL    HW147092   5.981  12.155   8.740  0.2882  0.2747 -0.7302
47043SOL    HW247093   6.034  12.089   8.614  0.9494 -1.6061  0.4870
47044SOL     OW47094   8.421   9.593   8.050  0.4293 -0.2907 -0.2452
47044SOL    HW147095   8.498   9.564   8.001 -0.1611  0.6816 -1.8245
47044SOL    HW247096   8.364   9.517   8.052  1.1585 -0.8334  0.3987
47045SOL     OW47097   2.658   2.356  11.837  0.2474 -0.0280 -0.1267
47045SOL    HW147098   2.705   2.304  11.773  1.4320 -0.2368  0.8774
47045SOL    HW247099   2.693   2.329  11.922 -0.4199  1.0847  0.5491
47046SOL     OW47100   3.106  11.430   9.186 -0.1111 -0.4085  0.6788
47046SOL    HW147101   3.100  11.506   9.243 -0.8878  0.8615 -1.0132
47046SOL    HW247102   3.187  11.445   9.136 -1.1506  0.2631 -0.8849
47047SOL     OW47103  11.161  10.418  10.582 -0.2209 -0.3123 -0.0773
47047SOL    HW147104  11.206  10.431  10.498 -0.1376 -0.5134 -0.0634
47047SOL    HW247105  11.204  10.479  10.642  1.2807 -1.7925  0.4131
47048SOL     OW47106  10.954  10.560   0.801 -0.2314  0.2530 -0.3933
47048SOL    HW147107  10.864  10.535   0.822 -0.4347 -0.7366 -2.1750
47048SOL    HW247108  10.951  10.655   0.793 -1.7234  0.1056 -2.6558
47049SOL     OW47109   6.212   8.311   7.637 -0.7189  0.0419  0.4613
47049SOL    HW147110   6.258   8.256   7.701 -0.6305  2.8051  2.9660
47049SOL    HW247111   6.151   8.251   7.594  1.2455 -2.5610  1.0041
47050SOL     OW47112   8.920  11.839   4.159 -0.1883  0.2394  0.0862
47050SOL    HW147113   9.011  11.865   4.146  0.0014  0.0056  0.8539
47050SOL    HW247114   8.920  11.744   4.144 -0.3855  0.2980 -0.2956
47051SOL     OW47115   9.544   6.852   3.082 -0.3903  0.2672 -0.1352
47051SOL    HW147116   9.521   6.924   3.024  0.1399  1.8734  1.5409
47051SOL    HW247117   9.469   6.846   3.142 -2.2034 -3.1382 -2.4056
47052SOL     OW47118   8.869   4.758   6.975 -0.2720 -0.3843  0.0032
47052SOL    HW147119   8.797   4.804   7.019 -0.8402 -1.8745  0.7090
47052SOL    HW247120   8.948   4.803   7.003 -0.8427  0.5741  0.1174
47053SOL     OW47121   7.498   5.206   7.752  0.4666  1.0540 -0.5198
47053SOL    HW147122   7.539   5.120   7.766  1.8303  1.7069 -0.2842
47053SOL    HW247123   7.459   5.229   7.837 -0.7641  0.2604 -0.8473
47054SOL     OW47124  10.618   5.155  11.731 -0.2287  0.1350  0.5379
47054SOL    HW147125  10.573   5.201  11.801  0.3577 -0.6266  1.4356
47054SOL    HW247126  10.702   5.129  11.769  0.7479  1.0005 -0.9071
47055SOL     OW47127   3.562   3.733   2.350  0.4231 -0.3203  0.1026
47055SOL    HW147128   3.607   3.807   2.389 -2.1842  1.0435  0.7752
47055SOL    HW247129   3.511   3.771   2.278  0.3842 -1.7623 -0.6772
47056SOL     OW47130   1.737   5.846   5.904 -0.2033 -0.3631  0.4802
47056SOL    HW147131   1.670   5.900   5.861  0.2314  1.1420  1.5780
47056SOL    HW247132   1.818   5.866   5.858  0.0895  0.5275  1.3315
47057SOL     OW47133  10.362   2.289   2.353  0.1309  0.1774  0.1314
47057SOL    HW147134  10.312   2.370   2.357  0.4751  0.3417  2.6328
47057SOL    HW247135  10.453   2.317   2.347  0.1979 -0.0382  0.1361
47058SOL     OW47136  10.953   7.444  10.417 -0.2532  0.3247 -0.3352
47058SOL    HW147137  10.950   7.417  10.509 -1.0439 -1.4927 -0.8366
47058SOL    HW247138  10.874   7.498  10.406 -1.4007 -1.2822 -0.4181
47059SOL     OW47139   6.365   2.979   8.877  0.8940  0.3296 -0.6982
47059SOL    HW147140   6.422   2.912   8.839 -0.9486 -1.6552 -0.1985
47059SOL    HW247141   6.276   2.950   8.854 -0.2035  0.3280  2.9901
47060SOL     OW47142   6.902   2.421   6.778 -0.4108  0.1372 -0.3764
47060SOL    HW147143   6.914   2.513   6.801 -1.2277  0.3398 -0.7210
47060SOL    HW247144   6.813   2.401   6.806 -1.4443  0.3695 -3.1460
47061SOL     OW47145  11.650   1.042   1.452  0.4523 -0.0209 -0.4626
47061SOL    HW147146  11.581   1.059   1.516  0.1027 -1.2801 -0.4797
47061SOL    HW247147  11.725   1.013   1.505  0.1720 -1.0354 -0.6078
47062SOL     OW47148   3.626   5.124   1.232 -0.2936  0.3332  0.4469
47062SOL    HW147149   3.707   5.096   1.188 -1.4229 -1.7348 -0.4662
47062SOL    HW247150   3.619   5.217   1.212  1.1462  0.2508 -0.6319
47063SOL     OW47151   7.566   0.049   3.952  0.2108  0.0088  0.1238
47063SOL    HW147152   7.489   0.004   3.986 -0.3791  0.5914 -0.4174
47063SOL    HW247153   7.585   0.005   3.869  0.4649 -0.1370  0.2589
47064SOL     OW47154   4.489  11.948   4.278 -0.7039 -0.3534 -0.0574
47064SOL    HW147155   4.539  11.937   4.360  0.5075 -0.9353 -0.8365
47064SOL    HW247156   4.408  11.991   4.305 -0.4345 -0.7302  1.4850
47065SOL     OW47157  12.000   9.332   6.452 -0.0120  0.4214 -0.7411
47065SOL    HW147158  11.972   9.396   6.386 -2.1900  0.9362  0.6088
47065SOL    HW247159  12.061   9.381   6.507 -1.6958  1.4499  0.3137
47066SOL     OW47160   4.255  12.068   4.649 -0.0483 -0.0121  0.1124
47066SOL    HW147161   4.325  12.021   4.695 -0.5737 -1.0482 -0.1104
47066SOL    HW247162   4.261  12.038   4.559 -0.0357  0.7988 -0.1594
47067SOL     OW47163   2.807   2.657   3.319 -0.3672 -0.5065  0.0446
47067SOL    HW147164   2.876   2.704   3.272  0.1674 -1.4090 -0.1010
47067SOL    HW247165   2.815   2.567   3.287 -2.2757 -0.4347 -0.7479
47068SOL     OW47166   5.642   8.860   0.276  1.0091  0.3385 -0.1689
47068SOL    HW147167   5.719   8.884   0.327  0.3365 -1.2990  1.7347
47068SOL    HW247168   5.568   8.877   0.334  0.1228 -0.4010 -1.0486
47069SOL     OW47169   5.290   2.206   8.356 -0.1136 -0.0367 -1.1308
47069SOL    HW147170   5.326   2.119   8.376  0.2806 -0.1962 -2.4283
47069SOL    HW247171   5.331   2.230   8.272  0.0101  1.5289 -0.6514
47070SOL     OW47172   9.982   9.714   2.598 -0.5080 -0.2061 -0.2644
47070SOL    HW147173   9.905   9.663   2.573 -2.0714  2.3241 -0.9916
47070SOL    HW247174  10.010   9.756   2.517  0.4179  0.4765  0.3888
47071SOL     OW47175   5.663   4.516   5.178 -0.4780 -0.6342 -0.5101
47071SOL    HW147176   5.742   4.523   5.125  0.1500  0.3199  0.5162
47071SOL    HW247177   5.666   4.429   5.216  1.0256  0.0016  0.9379
47072SOL     OW47178   2.859   7.506   5.760 -0.2251  0.3371  0.1671
47072SOL    HW147179   2.939   7.500   5.707  0.5225 -0.7609  1.3588
47072SOL    HW247180   2.814   7.583   5.726  1.2248  0.8580 -0.6854
47073SOL     OW47181   8.246   2.064   1.170 -0.1305 -0.3130  0.0574
47073SOL    HW147182   8.302   1.986   1.169 -1.8944 -1.6642  0.8502
47073SOL    HW247183   8.260   2.105   1.085 -0.1174 -2.2419 -0.9310
47074SOL     OW47184   5.848   6.449   2.227  0.5534 -0.6824 -0.1258
47074SOL    HW147185   5.783   6.379   2.219  0.2001 -0.2129 -1.8271
47074SOL    HW247186   5.931   6.403   2.241  0.4420 -1.5168 -1.9399
47075SOL     OW47187   5.336  10.309  12.039  0.3378  0.0792  0.4749
47075SOL    HW147188   5.340  10.335  11.947  1.1815 -1.2742  0.1027
47075SOL    HW247189   5.420  10.338  12.075  0.8497 -1.1362  0.3064
47076SOL     OW47190   0.605   4.719   1.647 -0.7968 -0.4388  0.1713
47076SOL    HW147191   0.575   4.666   1.573  0.1945 -1.3511  0.4051
47076SOL    HW247192   0.683   4.674   1.679 -0.1776  0.9315  0.6563
47077SOL     OW47193   8.382   1.649   5.348  0.7434  0.3063  0.9872
47077SOL    HW147194   8.452   1.610   5.295 -1.0583 -1.1977 -0.3976
47077SOL    HW247195   8.365   1.734   5.306  0.4032 -0.1976  0.0612
47078SOL     OW47196   5.446   7.160  11.022 -0.3662  0.0273  0.0609
47078SOL    HW147197   5.455   7.213  11.101 -0.5055  0.6674 -0.3447
47078SOL    HW247198   5.523   7.183  10.969  1.0079 -2.1076  0.9641
47079SOL     OW47199   9.810   7.244   1.724 -0.1379  0.1857 -0.1172
47079SOL    HW147200   9.714   7.248   1.726 -0.2521 -1.1709 -1.2229
47079SOL    HW247201   9.834   7.291   1.645 -0.0823 -1.3697 -1.0807
47080SOL     OW47202   3.401  10.795   5.540  0.0725 -0.5529 -0.1812
47080SOL    HW147203   3.488  10.777   5.576 -0.0651 -3.6044 -1.0571
47080SOL    HW247204   3.407  10.772   5.447 -1.7692 -1.3962 -0.1501
47081SOL     OW47205   4.834   2.735  11.188 -0.1888  0.2263 -0.3400
47081SOL    HW147206   4.926   2.760  11.198 -0.2665 -0.1999  1.8872
47081SOL    HW247207   4.797   2.803  11.133  1.0513  1.4215  0.2465
47082SOL     OW47208   7.789   9.374   7.005  0.2517 -0.3066  0.3675
47082SOL    HW147209   7.758   9.382   6.915  0.0843  0.1903  0.4619
47082SOL    HW247210   7.879   9.344   6.997 -0.3455 -2.1443  0.0962
47083SOL     OW47211  11.360   4.426  11.012 -0.2217 -0.5221 -0.5034
47083SOL    HW147212  11.271   4.463  11.013 -0.2752 -0.6156 -1.1726
47083SOL    HW247213  11.379   4.413  10.919  1.5926  2.1260 -0.6006
47084SOL     OW47214   9.842   8.994  11.511 -0.1576 -0.2947 -0.0982
47084SOL    HW147215   9.916   9.037  11.466  0.7993 -1.7425  0.0326
47084SOL    HW247216   9.776   9.063  11.518  1.7348  1.5145  1.1440
47085SOL     OW47217   5.249   4.175  11.028  0.1501 -0.1420 -0.0833
47085SOL    HW147218   5.180   4.208  10.972 -1.8374  0.2538  2.4497
47085SOL    HW247219   5.225   4.083  11.045  0.2707 -0.0326  0.7365
47086SOL     OW47220   2.990   0.502   7.389  0.9218  0.4015 -0.4845
47086SOL    HW147221   3.048   0.431   7.363  0.1746 -0.6873  0.7143
47086SOL    HW247222   2.934   0.516   7.312  2.1911  0.9026 -1.3475
47087SOL     OW47223   3.712   1.258   3.990 -0.3197 -0.5170 -0.0367
47087SOL    HW147224   3.726   1.241   4.083 -1.3762  2.4639  0.7908
47087SOL    HW247225   3.625   1.297   3.986 -0.1263 -0.1958 -2.2311
47088SOL     OW47226   2.655   7.002   2.912 -0.0692  0.3199 -0.0255
47088SOL    HW147227   2.585   6.937   2.902  0.1085  0.1462 -0.1549
47088SOL    HW247228   2.736   6.951   2.902  0.1017  0.3524  1.0127
47089SOL     OW47229   2.366   7.435   8.804  0.1028 -1.4885  0.1216
47089SOL    HW147230   2.327   7.516   8.839  1.7577 -1.5459  2.3286
47089SOL    HW247231   2.352   7.441   8.710 -0.1016  1.2434  0.2342
47090SOL     OW47232   4.348   5.988   8.577 -0.2104  0.1100 -0.3465
47090SOL    HW147233   4.355   5.961   8.485 -1.9447  1.0133 -0.7785
47090SOL    HW247234   4.364   5.907   8.627  2.1310 -0.1301 -1.3437
47091SOL     OW47235   4.489  10.972   1.328  0.3466 -0.4844  0.7078
47091SOL    HW147236   4.463  11.062   1.310  1.1974 -0.2288  0.7199
47091SOL    HW247237   4.406  10.925   1.342 -0.1473  0.0771 -0.2832
47092SOL     OW47238  11.775   3.230   8.209  0.1149 -0.8577 -0.4516
47092SOL    HW147239  11.720   3.298   8.169 -2.0080 -1.0931  1.7838
47092SOL    HW247240  11.740   3.221   8.298  2.8149 -2.2128  0.5806
47093SOL     OW47241  11.782   1.200   0.636 -0.5856  0.4546  0.1312
47093SOL    HW147242  11.866   1.237   0.663 -1.0076  1.0397  0.6768
47093SOL    HW247243  11.728   1.276   0.615 -1.4496  0.1747  1.2398
47094SOL     OW47244   8.904   5.371   1.750  0.2782 -0.2916  0.5536
47094SOL    HW147245   8.849   5.448   1.761 -0.3200 -0.6487  0.1139
47094SOL    HW247246   8.892   5.345   1.659 -0.2854 -1.4599  0.9375
47095SOL     OW47247   9.739   9.610  10.999  0.1679 -0.0495 -0.3800
47095SOL    HW147248   9.677   9.682  10.992 -1.1365 -0.9023  1.6095
47095SOL    HW247249   9.694   9.544  11.052  2.9659 -0.4847  1.6667
47096SOL     OW47250   6.965   1.339   8.082  0.4609 -0.1596 -0.1967
47096SOL    HW147251   6.925   1.366   8.165  0.3065 -0.2115 -0.2544
47096SOL    HW247252   7.058   1.359   8.093  0.0832  2.5243 -1.0381
47097SOL     OW47253   6.428   2.337   4.060  0.1230 -0.4083 -0.1588
47097SOL    HW147254   6.382   2.329   4.143 -0.3576 -0.3381 -0.4181
47097SOL    HW247255   6.491   2.407   4.074 -2.9277  2.8410 -1.1735
47098SOL     OW47256   3.517   6.374  12.339 -0.0574  0.0846  0.1323
47098SOL    HW147257   3.557   6.431  12.405 -2.8313  1.4819  0.7700
47098SOL    HW247258   3.481   6.300  12.390  2.2905 -1.6363 -0.5301
47099SOL     OW47259  11.170   7.173   6.604  0.3827  0.0131 -0.3084
47099SOL    HW147260  11.251   7.163   6.653 -0.3736  1.2533  1.2728
47099SOL    HW247261  11.110   7.111   6.645  0.1253  0.0971 -0.5566
47100SOL     OW47262  10.895   3.310  12.353 -0.6103 -0.2610  0.4080
47100SOL    HW147263  10.916   3.329  12.261 -1.5314  0.2489  0.2920
47100SOL    HW247264  10.804   3.282  12.351 -1.4886  2.2479  1.4417
47101SOL     OW47265   1.317   6.889   1.038  0.2361 -0.3310  0.3851
47101SOL    HW147266   1.374   6.945   1.092  0.6951 -0.8986  0.5016
47101SOL    HW247267   1.266   6.838   1.101 -0.6923  0.4484  0.2833
47102SOL     OW47268   5.042   2.640   5.742 -0.3343 -0.3962  0.1067
47102SOL    HW147269   5.062   2.733   5.754  1.6314 -0.8298  0.4686
47102SOL    HW247270   5.122   2.602   5.708 -1.4110 -1.8203 -0.9839
47103SOL     OW47271   4.325   6.956   9.207  0.0414  0.3805  0.4238
47103SOL    HW147272   4.361   6.951   9.119  0.2586  2.3054  0.3768
47103SOL    HW247273   4.389   7.004   9.258  0.1723 -1.1585  1.8207
47104SOL     OW47274   2.200   5.369   2.899  0.8387  0.0985 -0.4843
47104SOL    HW147275   2.169   5.339   2.814  0.1141  3.0222 -1.3775
47104SOL    HW247276   2.122   5.366   2.955  1.3491 -1.9680  0.1875
47105SOL     OW47277   0.723  11.657   0.883 -0.4181  0.6858 -0.3288
47105SOL    HW147278   0.717  11.747   0.914  1.0832  0.4670  0.7316
47105SOL    HW247279   0.720  11.664   0.788 -2.8558  1.6028 -0.2436
47106SOL     OW47280   0.792   7.704   4.037 -0.3617 -0.2822  0.6643
47106SOL    HW147281   0.818   7.675   4.125  0.0400 -0.2319  0.5613
47106SOL    HW247282   0.732   7.636   4.006 -0.3994 -0.3684  0.9234
47107SOL     OW47283   9.105   3.893   2.232  0.0553  0.6089 -0.0241
47107SOL    HW147284   9.042   3.866   2.165 -1.1471  0.5105  1.1076
47107SOL    HW247285   9.191   3.872   2.194 -0.6693 -3.1004 -0.0282
47108SOL     OW47286   9.973  11.672   5.002 -0.5562 -0.9302 -0.3169
47108SOL    HW147287   9.966  11.765   4.981  0.0758 -0.7756  0.1084
47108SOL    HW247288   9.917  11.628   4.938 -1.3025 -0.2135 -0.1713
47109SOL     OW47289   2.224   2.058   2.937  1.1208  0.4242 -0.2288
47109SOL    HW147290   2.290   2.003   2.895  0.6851 -1.9446  1.8753
47109SOL    HW247291   2.263   2.084   3.020  1.1395  3.0797 -0.9880
47110SOL     OW47292   2.954   1.552   2.373  0.8396 -0.2761 -0.6823
47110SOL    HW147293   2.910   1.624   2.417  0.9643 -0.3892 -0.3675
47110SOL    HW247294   2.885   1.508   2.324  0.3674 -1.1061  0.6766
47111SOL     OW47295  10.478  12.062   0.950 -0.2842  0.1122 -0.5506
47111SOL    HW147296  10.572  12.066   0.963 -0.2832 -1.2607 -0.0142
47111SOL    HW247297  10.443  12.031   1.033 -1.0854 -0.4815 -1.0852
47112SOL     OW47298   9.821   8.185   7.604  0.4033  0.0688  0.3261
47112SOL    HW147299   9.811   8.262   7.548  1.2642 -0.4233 -0.5409
47112SOL    HW247300   9.892   8.207   7.664  1.3278 -0.3771 -0.5632
47113SOL     OW47301   2.186   7.050   6.136  0.2080 -0.1179  0.8239
47113SOL    HW147302   2.216   6.963   6.109 -2.4926 -0.9758  0.2949
47113SOL    HW247303   2.179   7.100   6.054 -0.7530 -0.2741  0.8018
47114SOL     OW47304  12.013   2.441  10.746 -0.0253 -0.2610 -0.3459
47114SOL    HW147305  12.075   2.418  10.815 -0.7808 -1.2529  0.0329
47114SOL    HW247306  11.987   2.531  10.766 -0.1351 -0.4942  0.6030
47115SOL     OW47307  12.469   2.481   1.647  0.1673 -0.3071 -0.2840
47115SOL    HW147308  12.546   2.424   1.644 -0.4312 -1.1888  0.4165
47115SOL    HW247309  12.494   2.552   1.707  0.9186  0.1963 -1.1631
47116SOL     OW47310  10.512   3.884   7.219 -0.3379  0.4380 -1.1421
47116SOL    HW147311  10.561   3.947   7.167 -0.4369  2.2623  0.8521
47116SOL    HW247312  10.424   3.921   7.224  0.2953  1.8328  2.4716
47117SOL     OW47313  10.845   9.586   0.115  0.1011 -0.0367 -0.0319
47117SOL    HW147314  10.904   9.627   0.179 -0.3421  2.2606 -1.0012
47117SOL    HW247315  10.771   9.646   0.109 -0.6671 -1.0668 -1.4683
47118SOL     OW47316   1.912   2.921   3.463 -0.2374 -0.2432 -0.5118
47118SOL    HW147317   1.836   2.900   3.407  0.6304 -2.3558 -0.9899
47118SOL    HW247318   1.954   2.995   3.419 -1.4175  0.2717 -0.8202
47119SOL     OW47319   6.747   6.610   8.588  0.0162 -0.1243  0.4814
47119SOL    HW147320   6.797   6.642   8.663  1.6638  0.0977 -0.6811
47119SOL    HW247321   6.734   6.517   8.606  0.7776 -0.1671  0.8374
47120SOL     OW47322   3.835   5.714   0.213  0.6160 -0.5302  0.3863
47120SOL    HW147323   3.806   5.643   0.155  1.2724 -0.5037  0.0084
47120SOL    HW247324   3.840   5.791   0.155 -1.8011  0.2897  1.1381
47121SOL     OW47325   9.464   9.736   5.587  0.4999  0.4758 -0.3418
47121SOL    HW147326   9.410   9.777   5.654  0.2088  0.6870 -0.7064
47121SOL    HW247327   9.544   9.709   5.634  0.2819  0.5844  0.0942
47122SOL     OW47328   6.578   4.740   7.111  0.3990 -0.1176 -0.8299
47122SOL    HW147329   6.554   4.686   7.036  2.1016 -2.6908  0.3573
47122SOL    HW247330   6.667   4.770   7.091  0.0768  0.9822 -0.7266
47123SOL     OW47331   8.740   3.534   6.926  0.0523 -0.0453  0.4699
47123SOL    HW147332   8.665   3.487   6.962 -0.2219  0.5922  0.7657
47123SOL    HW247333   8.750   3.500   6.838 -1.3015  0.6461  0.0128
47124SOL     OW47334   8.480   9.367   3.478 -0.0095 -0.3675 -0.5237
47124SOL    HW147335   8.388   9.348   3.489 -0.4462  1.2416 -1.0346
47124SOL    HW247336   8.484   9.463   3.469  1.3200 -0.5819 -3.5758
47125SOL     OW47337   3.066   2.635   2.386  0.2938  0.4069 -0.3749
47125SOL    HW147338   2.987   2.601   2.427  0.7174  0.7682  0.7675
47125SOL    HW247339   3.134   2.572   2.409  0.5566  0.6583 -0.4604
47126SOL     OW47340   0.307   5.132   7.007  0.0714 -0.7400  0.5251
47126SOL    HW147341   0.277   5.098   6.922 -0.2088  1.3872 -0.2881
47126SOL    HW247342   0.402   5.123   7.004  0.1365  0.0285 -0.3820
47127SOL     OW47343   3.782   8.282   8.114  0.0002  0.1155 -0.1760
47127SOL    HW147344   3.698   8.310   8.148  0.3612 -0.8271  1.6135
47127SOL    HW247345   3.770   8.278   8.019 -1.2584  2.2002 -0.1584
47128SOL     OW47346   6.161   4.850  10.419 -0.2317 -0.0998 -0.4144
47128SOL    HW147347   6.165   4.853  10.323  1.5786  1.8249 -0.3487
47128SOL    HW247348   6.251   4.829  10.445 -0.0178  2.1852  0.8817
47129SOL     OW47349   1.397   9.703   7.628  0.1379 -0.1625 -0.4443
47129SOL    HW147350   1.459   9.632   7.611 -0.0039 -0.3326 -0.2557
47129SOL    HW247351   1.319   9.680   7.578 -0.2799 -0.6648  0.3996
47130SOL     OW47352  10.629  10.145   3.288  0.1825 -0.5179 -0.6861
47130SOL    HW147353  10.686  10.222   3.287  0.4253 -0.6856 -2.1806
47130SOL    HW247354  10.605  10.133   3.196 -2.4012 -0.3619 -0.0910
47131SOL     OW47355   8.723   6.402   8.149 -0.5662  0.0561  0.3025
47131SOL    HW147356   8.810   6.441   8.139 -0.8186  1.2095  2.1277
47131SOL    HW247357   8.665   6.476   8.165 -1.9162 -0.6969 -0.8317
47132SOL     OW47358   5.486   1.681  12.007 -0.5715  0.6190 -0.2000
47132SOL    HW147359   5.570   1.639  12.023 -0.8543  0.5345  1.1480
47132SOL    HW247360   5.422   1.627  12.053 -1.2547  1.1946 -0.4462
47133SOL     OW47361   1.074  11.282   6.018  0.0307  0.5117  0.1515
47133SOL    HW147362   0.995  11.331   5.995  0.1518  0.8984  0.5455
47133SOL    HW247363   1.144  11.346   6.011  0.2624  0.2624  0.1768
47134SOL     OW47364   8.183   0.228   9.860  0.3574  0.7271 -0.4184
47134SOL    HW147365   8.234   0.279   9.923 -1.0806  1.5984  0.0745
47134SOL    HW247366   8.123   0.176   9.913  1.1869 -0.8794 -0.9616
47135SOL     OW47367  10.721   3.054   7.248 -0.0128 -0.2682 -0.1081
47135SOL    HW147368  10.813   3.049   7.222 -0.1074  0.5536 -0.6156
47135SOL    HW247369  10.680   2.981   7.201  0.0848  0.3382 -1.1493
47136SOL     OW47370   8.290  10.180  11.524  0.1066  0.3238  0.4419
47136SOL    HW147371   8.214  10.134  11.488  0.9976 -1.0157  0.2318
47136SOL    HW247372   8.329  10.117  11.585 -0.2174  1.8059  2.2861
47137SOL     OW47373   4.911   4.373   4.392  0.6681 -0.2883 -0.5035
47137SOL    HW147374   4.965   4.448   4.369  0.8427 -0.8915 -2.1577
47137SOL    HW247375   4.945   4.345   4.477  1.2627  0.8798 -0.3351
47138SOL     OW47376   7.161   4.559  10.308 -0.1646  0.1685 -0.3722
47138SOL    HW147377   7.228   4.551  10.240  2.0576  1.6189  1.4871
47138SOL    HW247378   7.148   4.653  10.319  0.8507  0.0994  2.2872
47139SOL     OW47379   9.639   5.358  10.355 -0.1194 -0.4336 -0.0420
47139SOL    HW147380   9.727   5.364  10.317 -0.6322 -0.3129 -1.2796
47139SOL    HW247381   9.581   5.390  10.285 -1.0405  0.7059  1.2051
47140SOL     OW47382  12.073   3.871   8.281 -0.3764 -0.2175  0.1841
47140SOL    HW147383  11.995   3.844   8.329 -0.8961  0.0925 -0.4729
47140SOL    HW247384  12.119   3.789   8.263 -0.9266 -0.4803 -0.0615
47141SOL     OW47385   9.829  10.608   9.777 -0.0937  0.0540 -0.6102
47141SOL    HW147386   9.907  10.557   9.798 -0.7366 -0.1867  1.4398
47141SOL    HW247387   9.798  10.573   9.694  1.1049 -0.9020 -0.6737
47142SOL     OW47388   7.186   5.206   5.032  0.6368 -0.2581 -0.0052
47142SOL    HW147389   7.152   5.271   4.971  1.3013 -0.0570 -0.1748
47142SOL    HW247390   7.134   5.217   5.111  0.9513  0.6959  0.0797
47143SOL     OW47391   5.998   4.109   8.957 -0.1474 -0.1497  0.1325
47143SOL    HW147392   5.999   4.201   8.982  1.0827  0.0227 -0.4863
47143SOL    HW247393   6.088   4.091   8.928 -0.3487 -1.5607  0.3203
47144SOL     OW47394   2.729   6.765   4.716 -0.5968 -0.7979  0.4211
47144SOL    HW147395   2.720   6.808   4.631  0.6883  0.3075  0.8049
47144SOL    HW247396   2.653   6.707   4.722 -2.1877  1.1016 -0.3356
47145SOL     OW47397  10.283   5.335  10.767 -0.3298 -0.7148  0.3063
47145SOL    HW147398  10.216   5.364  10.828 -0.0645  3.8050 -1.1340
47145SOL    HW247399  10.239   5.334  10.682  0.8612  0.1954 -0.3588
47146SOL     OW47400   7.729   1.769   9.272  0.0583 -0.4888 -0.0948
47146SOL    HW147401   7.722   1.847   9.216  0.8014 -0.0523  0.4112
47146SOL    HW247402   7.767   1.702   9.215 -1.1165 -0.6710 -0.6991
47147SOL     OW47403   0.163   5.093  10.538 -0.0068 -0.0909 -0.2374
47147SOL    HW147404   0.215   5.019  10.570 -1.7642 -1.5564 -0.6139
47147SOL    HW247405   0.207   5.119  10.456  1.8980  0.7850  0.9845
47148SOL     OW47406  10.509   6.282  12.480  0.7606 -0.5022 -0.1053
47148SOL    HW147407  10.520   6.293  12.386 -0.6044 -0.5371 -0.2886
47148SOL    HW247408  10.508   6.371  12.516  1.5028 -0.4952 -0.0778
47149SOL     OW47409   3.160   8.529   6.603  0.3208 -0.3586 -0.0898
47149SOL    HW147410   3.080   8.478   6.614  0.6575 -1.1317 -1.1004
47149SOL    HW247411   3.147   8.578   6.522  0.5360  0.1642  0.1845
47150SOL     OW47412   3.555   3.922  11.068 -0.1707  0.3411  0.3485
47150SOL    HW147413   3.600   3.874  11.138 -0.2978  1.2029  1.0320
47150SOL    HW247414   3.545   4.011  11.102  0.1895  0.9094 -0.9513
47151SOL     OW47415   0.625   2.047   5.185  0.4218 -0.2020  0.2076
47151SOL    HW147416   0.533   2.025   5.188  0.6273 -1.0191  0.8949
47151SOL    HW247417   0.646   2.055   5.092 -0.3118 -0.0994  0.0492
47152SOL     OW47418   3.542   8.407   3.513  0.3986  0.0024  0.2549
47152SOL    HW147419   3.609   8.389   3.579  1.0596 -0.8644 -0.6167
47152SOL    HW247420   3.523   8.322   3.474 -0.1710  0.4515 -0.4830
47153SOL     OW47421  11.254   3.519   2.528  0.7209 -0.3189 -0.7058
47153SOL    HW147422  11.160   3.510   2.542  0.5517  1.0565 -0.8329
47153SOL    HW247423  11.289   3.432   2.545 -0.6700 -1.0709 -1.4860
47154SOL     OW47424   7.656   4.335   2.276  0.1868 -0.4603  0.0078
47154SOL    HW147425   7.643   4.240   2.272 -1.8299 -0.2307  0.3595
47154SOL    HW247426   7.726   4.347   2.341  1.5219 -1.7413 -1.1150
47155SOL     OW47427   0.959  10.903   2.871  0.3911  0.5287  0.6359
47155SOL    HW147428   0.952  10.986   2.823  0.1490 -0.1708 -0.5892
47155SOL    HW247429   0.894  10.909   2.940 -0.0650  1.1169  0.1646
47156SOL     OW47430   7.736   9.765   4.279  0.6477 -0.1179 -0.4052
47156SOL    HW147431   7.787   9.684   4.287 -0.4396 -0.6721  1.7087
47156SOL    HW247432   7.720   9.792   4.370  0.5196  2.2058 -1.0509
47157SOL     OW47433   5.613  11.659   5.193  0.0598 -0.1880 -0.1349
47157SOL    HW147434   5.621  11.564   5.194 -2.6626 -0.4968  1.5331
47157SOL    HW247435   5.537  11.677   5.138  1.3231  1.1843 -1.5493
47158SOL     OW47436   0.573   7.884   6.923  0.3302  0.3187  0.1201
47158SOL    HW147437   0.665   7.865   6.945 -0.4542 -3.5827  0.8421
47158SOL    HW247438   0.542   7.803   6.882 -2.5857  1.8707 -0.9975
47159SOL     OW47439   1.330   4.414   5.266 -0.2380 -0.0410 -0.3156
47159SOL    HW147440   1.311   4.330   5.307  2.5817 -0.0208  1.2947
47159SOL    HW247441   1.317   4.478   5.337  0.7720  0.4953 -0.6029
47160SOL     OW47442   1.070   2.799   2.630 -0.4489  0.4230  0.1226
47160SOL    HW147443   1.044   2.859   2.701 -0.2783 -1.6682  2.0379
47160SOL    HW247444   1.162   2.820   2.614 -0.3137  0.5096  0.9510
47161SOL     OW47445   8.271   5.772   1.041 -0.2872  0.4503 -0.0607
47161SOL    HW147446   8.302   5.725   0.964 -1.1903 -1.8557  0.8928
47161SOL    HW247447   8.262   5.863   1.012  1.5017  0.0668 -2.0127
47162SOL     OW47448   8.243   8.414  10.737 -0.2160  0.3532  0.0162
47162SOL    HW147449   8.287   8.329  10.731 -2.3836 -0.8479  0.1203
47162SOL    HW247450   8.169   8.406  10.678 -1.9857  1.1693  2.0000
47163SOL     OW47451  12.216   9.346   5.425  0.3901  0.7739 -0.4109
47163SOL    HW147452  12.168   9.289   5.365 -0.0146 -0.1842  0.7836
47163SOL    HW247453  12.278   9.288   5.470  1.1575  1.5943 -0.3845
47164SOL     OW47454   6.322  11.195   8.836  0.4374 -0.8342 -0.2453
47164SOL    HW147455   6.238  11.236   8.814 -0.0480 -1.9336 -0.5392
47164SOL    HW247456   6.349  11.237   8.917  0.9799  1.5010 -1.5660
47165SOL     OW47457   7.477   1.980   1.772 -0.5927 -0.0646  0.1828
47165SOL    HW147458   7.542   1.937   1.715 -1.0620 -1.4652  0.6458
47165SOL    HW247459   7.432   1.907   1.814 -1.3791  0.9258  1.0911
47166SOL     OW47460   9.382   3.437  10.626 -0.0327 -0.5439 -0.1853
47166SOL    HW147461   9.475   3.453  10.616  0.0366 -0.6693  0.2358
47166SOL    HW247462   9.376   3.346  10.656 -0.1093  0.2889  2.5448
47167SOL     OW47463  10.581   3.114   6.428 -0.2331 -0.2519 -0.5655
47167SOL    HW147464  10.517   3.184   6.419 -0.9974 -0.8228  0.2413
47167SOL    HW247465  10.599   3.109   6.522 -0.8089 -1.6521 -0.5039
47168SOL     OW47466   8.713   0.608   6.529  0.3419  0.1792  0.3774
47168SOL    HW147467   8.757   0.578   6.450 -1.9754 -0.1431 -0.8783
47168SOL    HW247468   8.780   0.604   6.597  2.7042  1.4221 -1.7181
47169SOL     OW47469  12.360   1.892   2.180  0.4204 -0.2671  0.0224
47169SOL    HW147470  12.326   1.810   2.143  0.5137 -1.2879  2.0783
47169SOL    HW247471  12.453   1.875   2.196  0.6103  0.5106 -0.2019
47170SOL     OW47472   4.501  11.919   2.415 -0.5176 -0.5760 -0.2045
47170SOL    HW147473   4.513  11.905   2.321  1.7126 -0.9885  0.0684
47170SOL    HW247474   4.535  12.007   2.430 -3.8535  0.8329 -0.1936
47171SOL     OW47475  10.154   8.141   3.643  0.0110 -0.3000  0.5378
47171SOL    HW147476  10.112   8.151   3.729  0.1438  0.7728  0.4858
47171SOL    HW247477  10.152   8.229   3.605 -1.5029 -1.0440 -1.2477
47172SOL     OW47478  12.060   4.903   5.565  0.2224  0.5870  0.5226
47172SOL    HW147479  12.134   4.845   5.547  0.0742  0.8702 -1.2080
47172SOL    HW247480  12.096   4.991   5.556 -0.3365  0.7262 -0.5748
47173SOL     OW47481   7.020  11.434   4.461  0.6863  0.0063  0.8332
47173SOL    HW147482   7.063  11.381   4.394  0.2880  0.5023  0.1677
47173SOL    HW247483   7.090  11.460   4.521  0.7545 -2.0764  1.7533
47174SOL     OW47484  11.715   9.932   8.598 -0.0158 -0.4328 -0.1785
47174SOL    HW147485  11.642   9.903   8.653 -1.0282  0.4789 -1.0045
47174SOL    HW247486  11.681   9.929   8.509  1.2161 -0.7086 -0.6590
47175SOL     OW47487   7.750   3.461   1.840 -0.1884  0.5354  0.3117
47175SOL    HW147488   7.731   3.552   1.861  0.9164  0.6986  0.6493
47175SOL    HW247489   7.674   3.431   1.790 -0.6643  1.5655  0.4090
47176SOL     OW47490   6.760   4.315   3.120 -0.3492  0.7230  0.3102
47176SOL    HW147491   6.685   4.363   3.156 -0.5702  0.5549  0.0717
47176SOL    HW247492   6.755   4.228   3.160 -0.4957  0.5914  0.0048
47177SOL     OW47493   1.214  12.306  11.622  0.3468  0.1472  0.1781
47177SOL    HW147494   1.175  12.394  11.624  1.5073  0.6766  1.6664
47177SOL    HW247495   1.171  12.263  11.549  0.3155  2.2321 -1.1331
47178SOL     OW47496  10.641   7.900   2.964  0.6507 -0.0003 -0.4725
47178SOL    HW147497  10.690   7.833   2.916  0.7224 -0.2522 -0.0536
47178SOL    HW247498  10.601   7.954   2.896 -0.4051 -1.1882 -0.8297
47179SOL     OW47499   5.777   2.387   4.822  0.1593 -0.0221 -0.1246
47179SOL    HW147500   5.738   2.332   4.891 -0.1167  0.8440  0.4351
47179SOL    HW247501   5.856   2.340   4.795 -0.6195 -1.2078 -0.4114
47180SOL     OW47502  11.614   9.059   0.062  0.0395 -0.4231 -0.3364
47180SOL    HW147503  11.663   8.988   0.103 -0.2110 -0.0519  0.6122
47180SOL    HW247504  11.560   9.015  -0.005 -0.3027 -1.1655  0.4133
47181SOL     OW47505   9.475   1.247  10.680 -0.0353 -0.3159 -0.2511
47181SOL    HW147506   9.436   1.334  10.675 -0.1148 -0.3767 -0.8204
47181SOL    HW247507   9.566   1.260  10.652  0.5743 -0.0578  1.7191
47182SOL     OW47508   0.596   3.992   2.600 -0.5199 -0.0757  0.3250
47182SOL    HW147509   0.636   4.068   2.642  1.6371 -1.0201  0.1471
47182SOL    HW247510   0.657   3.969   2.529 -2.2831 -0.6164 -1.0735
47183SOL     OW47511   3.418   6.736   0.017  0.2607  0.8793 -0.2981
47183SOL    HW147512   3.413   6.710   0.108 -0.8877 -1.9551 -1.0664
47183SOL    HW247513   3.416   6.832   0.019 -1.0169  0.8886  2.5745
47184SOL     OW47514  11.809   9.876   7.175 -0.0756 -0.3799 -0.1619
47184SOL    HW147515  11.785   9.915   7.259  3.2304  1.6057  0.0178
47184SOL    HW247516  11.748   9.915   7.112 -1.0085  0.0083  0.9323
47185SOL     OW47517   3.376  12.023   3.572  0.5140  0.2520  0.3146
47185SOL    HW147518   3.438  11.954   3.595  0.9821  0.3040 -0.7154
47185SOL    HW247519   3.359  12.069   3.654 -0.3245 -1.4843  1.1701
47186SOL     OW47520   2.118   1.823  10.264 -0.3836  0.3119 -0.2178
47186SOL    HW147521   2.201   1.813  10.310  0.3793 -1.3032 -1.8060
47186SOL    HW247522   2.073   1.739  10.277 -0.2866 -0.0751 -2.0481
47187SOL     OW47523   1.351   1.601   1.129  0.1674 -0.4441  0.0461
47187SOL    HW147524   1.383   1.623   1.216 -0.1327 -3.0919  0.9178
47187SOL    HW247525   1.256   1.617   1.133  0.1467 -0.6074  0.2425
47188SOL     OW47526   7.482   5.118   8.671  0.1628 -0.1349 -0.0889
47188SOL    HW147527   7.476   5.189   8.735 -1.2628  2.1682 -2.6057
47188SOL    HW247528   7.396   5.076   8.674  0.8476 -1.5381  1.0558
47189SOL     OW47529   1.228  12.485   1.226 -0.0148  0.6966  0.4021
47189SOL    HW147530   1.163  12.470   1.295  0.6274  1.8591  1.2982
47189SOL    HW247531   1.193  12.558   1.176 -0.4109 -0.0556 -0.4580
47190SOL     OW47532   7.065   1.522  10.157 -0.4682  0.6321 -0.5276
47190SOL    HW147533   7.019   1.486  10.081 -0.0043  0.1687 -0.6003
47190SOL    HW247534   7.125   1.586  10.120  0.8454 -0.6677 -0.7461
47191SOL     OW47535   2.419  11.173  11.612 -0.1084 -0.2241  0.2226
47191SOL    HW147536   2.358  11.177  11.686  0.6300 -0.5193  0.8582
47191SOL    HW247537   2.401  11.088  11.571 -0.3586 -0.1608  0.2000
47192SOL     OW47538  11.893   4.856   5.776  0.1651  0.3196  0.2480
47192SOL    HW147539  11.959   4.849   5.845  0.2690 -0.5556  0.0791
47192SOL    HW247540  11.943   4.867   5.695  0.0301  1.8004  0.3476
47193SOL     OW47541   1.771   6.121  11.170 -0.0947  0.1910 -0.5540
47193SOL    HW147542   1.778   6.100  11.263 -0.1029 -2.0662 -0.9953
47193SOL    HW247543   1.835   6.063  11.128 -1.9861 -0.8287 -2.1759
47194SOL     OW47544  12.121  10.059   5.680  0.5640 -0.4363  0.5005
47194SOL    HW147545  12.097   9.969   5.656  0.6893 -0.6115  1.0169
47194SOL    HW247546  12.173  10.090   5.606  0.5859 -0.8150  0.3533
47195SOL     OW47547  12.353   5.850   6.713  0.2851 -0.1936  0.1965
47195SOL    HW147548  12.304   5.817   6.638 -0.4755  0.7118  0.2819
47195SOL    HW247549  12.300   5.827   6.789  2.0869 -3.0894  0.7318
47196SOL     OW47550   3.019  11.464   6.123 -0.0415 -0.0263 -0.7073
47196SOL    HW147551   3.098  11.515   6.106  1.0649  0.5471  4.4338
47196SOL    HW247552   2.953  11.529   6.146  0.3411 -0.5395  2.3327
47197SOL     OW47553   2.336   6.916   4.073 -0.2947 -0.1299  0.0987
47197SOL    HW147554   2.416   6.868   4.054  0.5788  1.6577 -1.0369
47197SOL    HW247555   2.358   6.971   4.148  0.3152  1.9538 -1.5251
47198SOL     OW47556   6.910   9.375  11.552  0.3714  0.1416 -0.7490
47198SOL    HW147557   6.974   9.330  11.608  1.1897  0.1038 -1.6830
47198SOL    HW247558   6.895   9.459  11.596  0.2995 -0.2572 -0.0019
47199SOL     OW47559   6.112   9.793  12.289 -0.0988  0.5915 -0.2947
47199SOL    HW147560   6.139   9.707  12.321  0.5340  0.7307 -0.4411
47199SOL    HW247561   6.056   9.828  12.358  1.1414  0.8328  0.6098
47200SOL     OW47562   6.753   4.184   8.945  1.0921 -0.0425  0.0625
47200SOL    HW147563   6.684   4.132   8.985  0.3102 -0.0081 -1.1962
47200SOL    HW247564   6.710   4.231   8.874  1.8364  2.0734  0.9201
47201SOL     OW47565  11.298  10.358  11.688  0.2274 -0.2705  0.0906
47201SOL    HW147566  11.387  10.391  11.677 -0.0968  0.6832  0.2218
47201SOL    HW247567  11.286  10.297  11.615  0.4618  0.7671 -0.8347
47202SOL     OW47568   4.178   1.028   2.134 -0.3396  0.0082 -0.3106
47202SOL    HW147569   4.189   0.966   2.061 -0.9212  0.5199 -0.8471
47202SOL    HW247570   4.264   1.031   2.176  0.1615  0.1158 -1.3112
47203SOL     OW47571  11.440   6.303   1.242 -0.0452 -0.1257 -0.1136
47203SOL    HW147572  11.373   6.314   1.310  0.6147  2.3180  0.2214
47203SOL    HW247573  11.520   6.335   1.281  0.4263  1.0507 -1.9270
47204SOL     OW47574   2.201   9.546  10.372 -0.0381 -0.1810  1.1236
47204SOL    HW147575   2.218   9.607  10.301  0.1328 -0.5453  0.8460
47204SOL    HW247576   2.282   9.545  10.423 -0.2061  0.1780  1.3996
47205SOL     OW47577   3.175  12.144   7.689  0.1897  0.3887 -0.2451
47205SOL    HW147578   3.125  12.158   7.608 -0.5189  0.1633  0.1412
47205SOL    HW247579   3.108  12.126   7.756  0.7809  0.2676  0.3290
47206SOL     OW47580   7.732  10.014   3.458 -0.9031 -0.1859  0.1775
47206SOL    HW147581   7.720  10.084   3.393 -0.7211 -0.1385  0.1924
47206SOL    HW247582   7.708   9.934   3.412 -2.1365 -0.0094  0.4709
47207SOL     OW47583   7.037   8.439   9.799  0.2192  0.4726  0.9093
47207SOL    HW147584   7.017   8.357   9.843 -1.4025  0.5590  0.4305
47207SOL    HW247585   7.123   8.465   9.832 -0.5309  0.0989  3.3310
47208SOL     OW47586   7.109   5.863   3.240  0.4895 -0.2846  0.0989
47208SOL    HW147587   7.096   5.806   3.315  0.2510  0.7056  0.8255
47208SOL    HW247588   7.021   5.892   3.216  0.6535  0.1559  0.0293
47209SOL     OW47589   0.493  11.547   9.252 -0.1625  0.0265  0.0480
47209SOL    HW147590   0.404  11.514   9.267 -1.1674  2.5518  0.1389
47209SOL    HW247591   0.480  11.627   9.201  2.0242  0.7855  0.6025
47210SOL     OW47592  10.587   8.351  10.841 -0.3274  0.1027  0.2881
47210SOL    HW147593  10.650   8.288  10.875 -0.7921  0.3149  1.5871
47210SOL    HW247594  10.511   8.297  10.815 -0.3022  0.0241  0.3758
47211SOL     OW47595   9.570  10.784  10.600  0.2922  0.4118  0.2215
47211SOL    HW147596   9.586  10.727  10.676 -1.4011  0.0338  0.3289
47211SOL    HW247597   9.638  10.851  10.606 -0.1009  0.6994  2.3783
47212SOL     OW47598  12.311  10.721   3.559  0.5898 -0.0754 -0.0877
47212SOL    HW147599  12.246  10.753   3.621  1.4572 -0.4946  1.0674
47212SOL    HW247600  12.260  10.697   3.481 -0.3392  1.8850 -0.1412
47213SOL     OW47601   2.624  11.005   0.668  0.0063 -0.1936  0.1896
47213SOL    HW147602   2.660  11.088   0.635  0.5046  0.4746  2.2159
47213SOL    HW247603   2.686  10.979   0.737 -0.3085 -2.1202 -0.2058
47214SOL     OW47604   0.086   1.403  10.731  0.4544  0.2432 -0.4192
47214SOL    HW147605   0.076   1.355  10.814  0.4183 -0.1024 -0.6233
47214SOL    HW247606  -0.004   1.423  10.704  0.4958  1.3871  0.2173
47215SOL     OW47607   4.941   0.064   0.314 -0.1092 -0.1215  0.0596
47215SOL    HW147608   4.871   0.105   0.365 -0.5110 -0.4193 -0.2448
47215SOL    HW247609   4.913  -0.027   0.304 -0.3208  0.0631 -1.1841
47216SOL     OW47610  12.094   0.184   9.573 -0.0905  0.3027 -0.1831
47216SOL    HW147611  12.170   0.164   9.628 -1.5265  0.7404  2.0666
47216SOL    HW247612  12.050   0.100   9.562 -0.1560  0.3286 -0.1170
47217SOL     OW47613   0.815   2.534   8.563  0.5509  0.1769 -0.0759
47217SOL    HW147614   0.817   2.528   8.468  0.5401  1.4226 -0.1716
47217SOL    HW247615   0.733   2.579   8.582  1.1788  1.1366  0.4382
47218SOL     OW47616   7.356   0.608  10.940 -0.4005 -0.3515  0.3303
47218SOL    HW147617   7.442   0.650  10.936 -0.9402  0.8996  1.3903
47218SOL    HW247618   7.376   0.516  10.958  0.7199  0.2162  2.4312
47219SOL     OW47619   6.636   5.456   6.821  0.4247  0.1449  0.2526
47219SOL    HW147620   6.621   5.550   6.830 -0.7688  0.3257 -2.4341
47219SOL    HW247621   6.724   5.449   6.784  0.7788  0.1457  1.0842
47220SOL     OW47622   1.061   4.041   3.974  1.4171  0.0578 -0.2714
47220SOL    HW147623   1.109   4.103   3.919  0.2173  0.4763 -0.8800
47220SOL    HW247624   1.098   4.054   4.061  1.4256  1.4350 -0.4453
47221SOL     OW47625  12.251   1.695   4.816 -0.1385  0.1124  0.8663
47221SOL    HW147626  12.276   1.787   4.817  0.1405  0.0728 -0.8186
47221SOL    HW247627  12.314   1.652   4.759  0.2696 -1.3173  2.3075
47222SOL     OW47628   4.943   9.909  11.243  0.4214  0.1619 -0.1395
47222SOL    HW147629   4.993   9.841  11.287 -0.1373  1.2255  2.2658
47222SOL    HW247630   5.006   9.950  11.183  0.8818 -2.0906 -1.3178
47223SOL     OW47631   3.100   3.855   8.405  0.5227 -0.1237  0.0802
47223SOL    HW147632   3.149   3.861   8.324  0.8423 -0.8260  0.2099
47223SOL    HW247633   3.127   3.931   8.457  1.9456 -0.8224  0.3993
47224SOL     OW47634   9.049   2.506   4.201 -0.1819  0.0621 -0.0152
47224SOL    HW147635   8.959   2.511   4.232 -0.1680 -0.9356  0.1970
47224SOL    HW247636   9.074   2.415   4.214  0.8949  0.3534  0.0257
47225SOL     OW47637   1.264   7.614   3.779  0.0673  0.4420  0.6184
47225SOL    HW147638   1.289   7.609   3.687  1.5663  0.0931  1.0154
47225SOL    HW247639   1.174   7.583   3.781 -0.0297  0.5681 -0.7451
47226SOL     OW47640   6.291   0.343   0.067  0.3959  0.4047  0.5303
47226SOL    HW147641   6.352   0.275   0.038  0.0629 -0.4562  1.7804
47226SOL    HW247642   6.334   0.383   0.142  0.3591  1.2560  0.1097
47227SOL     OW47643   6.442   1.187   6.308  0.0369 -0.3893  0.1410
47227SOL    HW147644   6.357   1.145   6.289 -0.5152 -0.0587  1.6963
47227SOL    HW247645   6.476   1.138   6.383  0.7648  0.1079  0.1447
47228SOL     OW47646   9.017  10.527   9.558 -0.1285  0.0405  0.5150
47228SOL    HW147647   8.981  10.441   9.536  1.1009 -0.8385  1.7738
47228SOL    HW247648   9.003  10.580   9.479 -1.8741 -0.9679  0.0888
47229SOL     OW47649   3.958   5.100   6.601 -0.5142 -0.4785  0.0034
47229SOL    HW147650   3.873   5.060   6.587 -0.8990  0.6950 -1.2202
47229SOL    HW247651   3.967   5.164   6.531  0.9033  0.2006  0.7468
47230SOL     OW47652  12.201   4.157   4.842  0.6874 -0.5939  0.7343
47230SOL    HW147653  12.260   4.101   4.792 -0.1399  0.2304 -1.2855
47230SOL    HW247654  12.250   4.178   4.922  4.2246  1.8873 -1.7399
47231SOL     OW47655   7.310   0.845   7.973 -0.3028 -0.5173  0.2667
47231SOL    HW147656   7.349   0.764   8.005  0.0253 -0.3549  0.2936
47231SOL    HW247657   7.225   0.850   8.016  1.3172  1.2298  3.6766
47232SOL     OW47658   9.634   1.713   8.116  0.2771 -0.1031 -0.1720
47232SOL    HW147659   9.688   1.736   8.192  0.4181 -2.1977  0.4325
47232SOL    HW247660   9.544   1.726   8.146  0.3725  0.5640 -0.1741
47233SOL     OW47661  12.267   5.614   4.154  0.4042 -0.8418  0.2498
47233SOL    HW147662  12.324   5.552   4.199 -0.0086 -0.9848  0.5870
47233SOL    HW247663  12.314   5.637   4.074  1.6097  0.1582  1.1993
47234SOL     OW47664   8.952   2.710   1.879 -0.4304  0.0155 -0.1777
47234SOL    HW147665   8.964   2.699   1.784  0.1268 -0.9410 -0.0160
47234SOL    HW247666   8.973   2.802   1.895  2.5142 -0.4745 -0.5810
47235SOL     OW47667   8.379   9.826   4.261 -0.5459 -0.1209 -0.2502
47235SOL    HW147668   8.403   9.888   4.329 -0.8939 -0.0087 -0.2252
47235SOL    HW247669   8.284   9.837   4.251 -0.4714 -0.0046 -0.8819
47236SOL     OW47670   7.672   4.011   2.331 -0.0476 -0.1143 -0.2065
47236SOL    HW147671   7.729   3.968   2.267  0.9070  1.0714 -0.1935
47236SOL    HW247672   7.724   4.014   2.411  0.1289  1.5043 -0.3547
47237SOL     OW47673   0.397   2.965  12.433 -0.4130  0.5551 -0.4762
47237SOL    HW147674   0.482   2.954  12.391  0.8624 -0.8037  2.2300
47237SOL    HW247675   0.349   2.885  12.411  0.1204  0.0041  0.3097
47238SOL     OW47676   3.586   0.968   1.751  0.0942  0.1097 -0.3865
47238SOL    HW147677   3.513   1.029   1.751 -0.6044 -0.5372 -3.3585
47238SOL    HW247678   3.664   1.023   1.756 -0.5523  1.0617 -0.5028
47239SOL     OW47679   2.779  10.830   6.325 -0.3226 -0.2002  0.5470
47239SOL    HW147680   2.804  10.917   6.354  0.1992 -0.5515  1.1699
47239SOL    HW247681   2.861  10.780   6.324  0.0685  0.2019 -3.1117
47240SOL     OW47682   3.481   4.758  10.905 -0.4292 -0.0723  0.3361
47240SOL    HW147683   3.514   4.766  10.815 -0.4202  2.0893  0.4603
47240SOL    HW247684   3.510   4.672  10.934 -0.2664 -0.7618 -1.6551
47241SOL     OW47685  11.870   1.376   6.236  0.4815 -0.5410 -0.5574
47241SOL    HW147686  11.880   1.310   6.305  2.0305 -0.2452 -0.4717
47241SOL    HW247687  11.871   1.460   6.283  1.2471 -0.3516 -0.9022
47242SOL     OW47688   5.782   4.807   5.132  0.4309  0.2829 -0.2445
47242SOL    HW147689   5.751   4.719   5.150 -0.4068  1.0825  2.7230
47242SOL    HW247690   5.848   4.824   5.199  0.0819  2.1201 -0.2977
47243SOL     OW47691   5.443   6.998  12.408 -0.3851 -0.2200 -0.3721
47243SOL    HW147692   5.399   7.083  12.417  0.9716  0.3946  0.7578
47243SOL    HW247693   5.474   6.997  12.317 -1.1019  0.1375 -0.6302
47244SOL     OW47694   6.608   0.360   3.258 -0.0810  0.8507 -0.5379
47244SOL    HW147695   6.632   0.440   3.305 -0.8114  1.2591 -0.8361
47244SOL    HW247696   6.638   0.376   3.168  0.1700  0.6043 -0.4981
47245SOL     OW47697   9.215   8.317  11.247  0.2467 -0.7682  0.0648
47245SOL    HW147698   9.123   8.335  11.266 -0.2145 -2.0499 -0.8272
47245SOL    HW247699   9.248   8.400  11.211 -0.5450 -0.2939  0.4062
47246SOL     OW47700   3.673   1.621   2.928  0.2695  0.2181  0.1346
47246SOL    HW147701   3.619   1.600   2.852 -2.2337 -1.8342  2.2281
47246SOL    HW247702   3.612   1.662   2.990  1.2076 -1.4619  2.3387
47247SOL     OW47703   8.568  10.863   6.062  0.0889 -0.7467 -0.9567
47247SOL    HW147704   8.562  10.836   6.153  1.2917  0.1617 -0.5883
47247SOL    HW247705   8.477  10.876   6.035 -0.2693 -0.7743  0.1785
47248SOL     OW47706   9.311  11.648   6.968  0.2726  0.0622  0.2759
47248SOL    HW147707   9.356  11.592   7.031  0.5425  0.8048  0.7554
47248SOL    HW247708   9.320  11.736   7.004 -2.3736  0.1470  0.8649
47249SOL     OW47709  12.101   7.352   1.296  0.2431  0.0977 -0.0820
47249SOL    HW147710  12.051   7.422   1.338 -1.0561 -0.6430 -0.3529
47249SOL    HW247711  12.088   7.365   1.202  0.5444 -0.1221 -0.1565
47250SOL     OW47712   4.716   8.933   1.060 -0.4277  0.1898  0.3269
47250SOL    HW147713   4.810   8.944   1.076 -0.2587  1.5861 -1.2853
47250SOL    HW247714   4.702   8.973   0.974 -2.0604 -2.3244 -0.6695
47251SOL     OW47715   8.690  11.906  10.669 -0.0959  0.0675  0.5125
47251SOL    HW147716   8.622  11.839  10.678 -0.7675  0.5398 -0.7723
47251SOL    HW247717   8.771  11.861  10.693 -0.4036 -1.4979 -1.1492
47252SOL     OW47718   1.735   8.805   3.842  0.0478  0.0860 -0.1016
47252SOL    HW147719   1.714   8.736   3.779 -0.8077 -0.9867  1.3108
47252SOL    HW247720   1.814   8.773   3.886  0.4934  0.7164 -0.4189
47253SOL     OW47721   7.506   8.913  10.244 -0.2542 -0.5559 -0.0689
47253SOL    HW147722   7.443   8.892  10.313 -1.2564 -1.6160 -1.2837
47253SOL    HW247723   7.485   8.854  10.172  0.8303  0.4621 -1.2729
47254SOL     OW47724   5.263   5.999   7.184  0.4337  0.3049 -0.0779
47254SOL    HW147725   5.181   6.011   7.232  0.2772 -0.1996 -0.2148
47254SOL    HW247726   5.314   5.939   7.238  0.1460 -0.4850 -0.6659
47255SOL     OW47727   9.507   6.262   4.503 -0.1424 -0.0308 -0.3924
47255SOL    HW147728   9.570   6.246   4.573 -0.1750 -1.0914 -0.5846
47255SOL    HW247729   9.552   6.323   4.444 -0.5548  1.8052  1.0954
47256SOL     OW47730   7.792   6.201  10.076 -0.4280 -0.7457 -0.6552
47256SOL    HW147731   7.796   6.207  10.172 -0.1030 -1.7795 -0.5970
47256SOL    HW247732   7.883   6.188  10.049 -0.6593 -1.7224 -1.0035
47257SOL     OW47733   4.656  12.126   4.633  0.4009  0.0488  0.3923
47257SOL    HW147734   4.608  12.106   4.713 -0.5993 -0.8794 -0.4120
47257SOL    HW247735   4.589  12.155   4.571  1.3421  2.2746  0.3216
47258SOL     OW47736  11.158   0.848   7.641 -0.7153 -0.3271  0.2890
47258SOL    HW147737  11.089   0.913   7.630  0.4530  0.7906 -0.9594
47258SOL    HW247738  11.174   0.815   7.552 -0.7843 -1.7920  0.8038
47259SOL     OW47739   9.433   1.357   2.159 -0.0746  0.4780  0.2051
47259SOL    HW147740   9.363   1.410   2.121 -0.8678 -1.3362 -1.0142
47259SOL    HW247741   9.414   1.356   2.253 -1.5262  0.2597 -0.0719
47260SOL     OW47742   0.952  10.688   5.848  0.2725  0.3490 -0.0461
47260SOL    HW147743   0.950  10.597   5.875 -0.7049  0.3704 -0.0145
47260SOL    HW247744   1.037  10.699   5.805 -0.5133 -1.1769 -2.1548
47261SOL     OW47745   3.210   8.538   9.106  0.1005 -0.4721  0.0887
47261SOL    HW147746   3.117   8.536   9.127 -0.0170 -0.2375 -0.3823
47261SOL    HW247747   3.237   8.446   9.106  0.2960 -0.4525  2.0140
47262SOL     OW47748   4.352   3.089  12.232  0.3591  0.0790  0.3567
47262SOL    HW147749   4.284   3.029  12.203  1.6982 -1.2095 -0.2589
47262SOL    HW247750   4.351   3.160  12.168  1.3533 -1.2957 -1.2730
47263SOL     OW47751  10.398   0.875  11.909  0.1525  0.2643  0.1349
47263SOL    HW147752  10.447   0.867  11.827 -0.2056 -2.4871  0.0742
47263SOL    HW247753  10.307   0.860  11.883  0.2946 -3.5902  1.2364
47264SOL     OW47754   2.716  11.889   5.121 -0.0242  0.5949  0.2500
47264SOL    HW147755   2.694  11.796   5.122  1.6218  0.1667  0.5925
47264SOL    HW247756   2.659  11.927   5.055 -0.7447 -0.6529  0.1302
47265SOL     OW47757   8.774   4.930   2.805  0.0701  0.1644  0.2629
47265SOL    HW147758   8.863   4.945   2.774 -0.0528  0.8351  0.2212
47265SOL    HW247759   8.719   4.947   2.729 -0.2490  2.0446  0.8617
47266SOL     OW47760  10.244   3.296   0.272  0.4776  0.2144 -0.3614
47266SOL    HW147761  10.244   3.364   0.205 -0.7062  1.6760  1.0383
47266SOL    HW247762  10.152   3.287   0.298  0.9467  0.0447  1.3907
47267SOL     OW47763  11.799   2.835  12.292  0.1547  0.5786  0.7507
47267SOL    HW147764  11.797   2.870  12.381  2.7960  1.1795  0.6371
47267SOL    HW247765  11.794   2.740  12.303 -2.0657  0.7017  1.3296
47268SOL     OW47766   9.293   8.004  11.925 -0.8626 -0.5839  0.3668
47268SOL    HW147767   9.247   7.950  11.990 -1.4582 -1.0650 -0.4311
47268SOL    HW247768   9.281   8.094  11.955 -0.0133 -0.8635  1.6216
47269SOL     OW47769  12.416   8.237  12.139  0.1716 -0.5740 -0.0469
47269SOL    HW147770  12.416   8.325  12.178 -1.1309 -1.7386  2.8365
47269SOL    HW247771  12.327   8.224  12.109  0.2270 -1.1098  0.0173
47270SOL     OW47772   6.516   7.050   8.456 -0.2960  0.0799 -0.2748
47270SOL    HW147773   6.574   7.076   8.527  0.1049 -1.4010 -0.0234
47270SOL    HW247774   6.485   7.132   8.418 -0.5954  0.8894  1.6537
47271SOL     OW47775   1.387  11.427   2.306  0.1641  0.0274 -0.1322
47271SOL    HW147776   1.430  11.343   2.288  0.3294  0.1400 -0.2645
47271SOL    HW247777   1.381  11.432   2.402 -0.5153 -0.4734 -0.1383
47272SOL     OW47778   3.287   7.366  11.324 -0.1331  0.1942 -0.5011
47272SOL    HW147779   3.353   7.329  11.265 -1.9546 -1.9260 -1.3677
47272SOL    HW247780   3.332   7.375  11.408  1.1254 -1.7251 -0.9060
47273SOL     OW47781   9.806  11.532   8.744 -0.4137 -0.4172  0.5437
47273SOL    HW147782   9.897  11.554   8.726 -0.1768 -1.2801  0.6050
47273SOL    HW247783   9.783  11.470   8.674 -1.3526  0.7344 -0.2143
47274SOL     OW47784   3.488   4.134   8.902  0.7147  0.1937 -0.1460
47274SOL    HW147785   3.526   4.076   8.968 -0.6110  1.7272  2.1156
47274SOL    HW247786   3.528   4.220   8.920 -1.3991  1.1457  0.2691
47275SOL     OW47787   4.952   5.509   4.990  0.3952 -0.3124  0.4640
47275SOL    HW147788   4.857   5.503   4.975  0.3769 -0.6725  0.7202
47275SOL    HW247789   4.987   5.537   4.905  0.1275 -0.8029  0.1854
47276SOL     OW47790   4.277   0.005  10.544 -0.5084  0.4250 -0.4675
47276SOL    HW147791   4.248   0.048  10.624  1.2575 -0.3211  0.6352
47276SOL    HW247792   4.205   0.019  10.481 -2.9958 -0.9125  1.8755
47277SOL     OW47793   0.090   6.561   3.818  0.5024  0.1295 -0.1146
47277SOL    HW147794   0.180   6.570   3.849  0.3850  1.2334 -0.0359
47277SOL    HW247795   0.064   6.473   3.843  0.7933  0.5808  1.9209
47278SOL     OW47796   5.342   2.472   7.199  0.0313 -0.0163 -0.4766
47278SOL    HW147797   5.410   2.418   7.158  1.2572  0.6421  0.5857
47278SOL    HW247798   5.304   2.415   7.266  0.3938 -0.0138 -0.2624
47279SOL     OW47799   5.421   1.284   4.009  0.5199  0.3924  0.1490
47279SOL    HW147800   5.431   1.263   3.916  1.5157 -0.2445  0.3808
47279SOL    HW247801   5.368   1.213   4.044 -1.6763  1.7224 -0.3104
47280SOL     OW47802  10.460   9.351   6.639 -0.5220 -0.3704 -0.6272
47280SOL    HW147803  10.405   9.290   6.688  0.8212 -1.4475 -0.3931
47280SOL    HW247804  10.548   9.315   6.645  0.0142  0.5457 -2.1495
47281SOL     OW47805   0.990   0.383   7.682  0.3538 -0.5417  0.5990
47281SOL    HW147806   1.083   0.366   7.669  1.1934  1.2272  3.4576
47281SOL    HW247807   0.986   0.449   7.751 -3.0335 -0.0402  0.1386
47282SOL     OW47808  11.495   0.901   0.491  0.4520 -0.7111 -0.1132
47282SOL    HW147809  11.495   0.929   0.582 -0.3568  2.1685 -0.8773
47282SOL    HW247810  11.587   0.910   0.464  0.3033  0.9275 -0.1900
47283SOL     OW47811   7.387   9.949   1.026 -0.2178 -0.3745 -0.1934
47283SOL    HW147812   7.387   9.914   0.937 -2.5198 -2.4256  0.4853
47283SOL    HW247813   7.471   9.922   1.063 -0.0620 -1.2418 -1.1400
47284SOL     OW47814   8.833   1.967   0.865 -0.2375 -0.0700 -0.2555
47284SOL    HW147815   8.904   1.914   0.902  0.3511  0.6595 -0.3032
47284SOL    HW247816   8.786   2.000   0.942 -0.5607 -0.5908 -0.2248
47285SOL     OW47817  11.602   6.321  10.212  0.6984  0.1703 -0.0540
47285SOL    HW147818  11.526   6.263  10.205 -0.0519  1.2276 -1.1679
47285SOL    HW247819  11.609   6.341  10.306 -0.4524  0.1091  0.0575
47286SOL     OW47820   0.170  11.157   6.367  0.5294 -0.0092  0.0098
47286SOL    HW147821   0.198  11.234   6.416  0.5011 -0.4532  0.7403
47286SOL    HW247822   0.105  11.116   6.424  0.1325 -0.2663 -0.6246
47287SOL     OW47823   5.083   6.183  10.145  0.0630 -0.1653  0.5646
47287SOL    HW147824   5.089   6.091  10.169  1.5708 -0.2055  0.1464
47287SOL    HW247825   5.143   6.193  10.070 -0.4129  1.0538  0.3135
47288SOL     OW47826   4.974   0.783   6.817  0.3452 -0.1968 -0.0986
47288SOL    HW147827   4.897   0.835   6.839 -1.0681 -0.9394 -2.8155
47288SOL    HW247828   5.042   0.847   6.797 -0.2617  0.5114  0.0804
47289SOL     OW47829   8.345   8.830  10.610 -0.3832  0.0995 -0.2633
47289SOL    HW147830   8.262   8.842  10.656 -1.3239  0.6939 -2.0150
47289SOL    HW247831   8.351   8.906  10.551  0.5626 -0.8035 -1.3811
47290SOL     OW47832   3.731   6.705   2.799  0.0762 -0.3500  0.6766
47290SOL    HW147833   3.691   6.773   2.852 -1.4409 -0.7532  0.0970
47290SOL    HW247834   3.825   6.715   2.814 -0.2505  0.0716  2.7690
47291SOL     OW47835   1.226   1.403   3.479  0.8496 -0.3192  0.1867
47291SOL    HW147836   1.151   1.451   3.515  0.2386 -1.2723  0.2141
47291SOL    HW247837   1.220   1.316   3.519  1.4799 -0.6715 -0.4711
47292SOL     OW47838   3.374   3.077   0.735 -0.2417  0.2297  0.6138
47292SOL    HW147839   3.391   2.983   0.735 -0.1473  0.2353 -0.2401
47292SOL    HW247840   3.368   3.100   0.642  1.0462  1.2984  0.7690
47293SOL     OW47841  11.137   2.290   1.735  0.2549 -0.2268  0.3706
47293SOL    HW147842  11.080   2.218   1.707  0.7902 -1.0464  1.3286
47293SOL    HW247843  11.188   2.312   1.657  0.0562 -0.8573  0.0546
47294SOL     OW47844   2.195   3.350   8.593  0.3861  0.1429 -0.1473
47294SOL    HW147845   2.127   3.381   8.533  0.6092  1.0010  0.0333
47294SOL    HW247846   2.204   3.257   8.572 -1.8017 -0.3391  0.7462
47295SOL     OW47847   3.285   7.541   2.331 -0.0925  0.3270  0.0624
47295SOL    HW147848   3.191   7.543   2.345  0.2051  0.5143  2.5967
47295SOL    HW247849   3.296   7.538   2.236 -2.5866  3.6536 -0.4854
47296SOL     OW47850   0.822   8.844   1.911  0.3527 -0.4631 -0.0615
47296SOL    HW147851   0.897   8.849   1.971  0.6485 -2.5607 -0.1953
47296SOL    HW247852   0.850   8.897   1.836  1.7421 -1.2328 -0.1251
47297SOL     OW47853   3.640   3.024   9.536 -0.0352  0.1885 -0.6281
47297SOL    HW147854   3.647   3.111   9.496 -1.2604  0.8412  0.5232
47297SOL    HW247855   3.549   2.998   9.520  0.1477 -0.6099 -0.3883
47298SOL     OW47856   7.307   0.891   2.566  0.1563  0.1884 -0.3803
47298SOL    HW147857   7.361   0.966   2.590  0.3503 -0.2208  0.4881
47298SOL    HW247858   7.370   0.821   2.549 -0.0805 -1.0014  2.9994
47299SOL     OW47859   4.535  11.421   4.795 -0.6925  0.3610 -0.0354
47299SOL    HW147860   4.553  11.471   4.875 -2.8513  1.4001 -0.1218
47299SOL    HW247861   4.469  11.357   4.822  2.6776 -3.3453  0.3114
47300SOL     OW47862   0.503   6.198   9.050  0.3468 -0.1696  0.0143
47300SOL    HW147863   0.547   6.117   9.026  0.0513  0.0210 -1.2437
47300SOL    HW247864   0.541   6.264   8.992 -0.0626  0.4187  0.3991
47301SOL     OW47865   0.906   6.948   3.042  0.6179  0.1323 -0.5349
47301SOL    HW147866   0.910   6.887   2.968 -1.4604 -0.3422 -0.3234
47301SOL    HW247867   0.987   6.932   3.091  0.7222 -1.5468 -1.1954
47302SOL     OW47868   7.666   4.241  10.818  0.4843 -0.6193  0.0755
47302SOL    HW147869   7.600   4.256  10.751  0.1051 -3.4815 -0.2903
47302SOL    HW247870   7.744   4.286  10.786 -0.3231 -0.0174 -1.1155
47303SOL     OW47871  10.678   7.359   7.319  0.4818 -0.3040 -0.0849
47303SOL    HW147872  10.589   7.388   7.300  0.0276 -0.0680  2.1244
47303SOL    HW247873  10.677   7.265   7.301 -0.8402 -0.7024  1.8037
47304SOL     OW47874  10.116  11.133   7.408 -0.4866 -0.2536 -0.2671
47304SOL    HW147875  10.031  11.107   7.445 -0.0787 -0.6640  0.3963
47304SOL    HW247876  10.174  11.059   7.427  0.0359  0.0477 -0.6723
47305SOL     OW47877  10.868   5.074   0.326 -0.1407  0.4103  0.1223
47305SOL    HW147878  10.779   5.043   0.339 -0.7821  0.2538 -3.5743
47305SOL    HW247879  10.875   5.152   0.380 -3.0607  1.2515 -0.5401
47306SOL     OW47880   6.350  10.409   9.527  0.2447 -0.3819 -0.8694
47306SOL    HW147881   6.353  10.398   9.622  0.3554  3.6901 -0.2250
47306SOL    HW247882   6.439  10.391   9.497  0.4552 -0.7379 -0.0357
47307SOL     OW47883   8.839   2.914   0.280  0.1079 -0.1635  0.0430
47307SOL    HW147884   8.833   2.831   0.232  0.2918 -0.4133  0.4488
47307SOL    HW247885   8.755   2.921   0.326  0.1788 -0.2279  0.1800
47308SOL     OW47886   5.672   5.789   5.307  0.1238  0.3249  0.3518
47308SOL    HW147887   5.638   5.745   5.229 -0.9909 -0.4507  1.2469
47308SOL    HW247888   5.728   5.724   5.349  1.3105  0.9921 -0.1749
47309SOL     OW47889   9.618   3.505   4.006  0.0434  0.5978 -0.2524
47309SOL    HW147890   9.678   3.568   3.965  1.1154  0.3812  0.9104
47309SOL    HW247891   9.596   3.444   3.936  0.3492  1.2836 -0.9629
47310SOL     OW47892   4.442   7.020   1.961  0.1313 -0.5115  0.4527
47310SOL    HW147893   4.383   7.061   2.024 -1.2588 -2.0202  0.2369
47310SOL    HW247894   4.383   6.970   1.903  1.6430 -2.7831  0.7282
47311SOL     OW47895  10.033  11.243   8.132  0.1468  0.0752  0.1357
47311SOL    HW147896  10.099  11.193   8.181 -0.3212 -0.9162 -0.2212
47311SOL    HW247897  10.030  11.328   8.176  2.7681  0.7330 -0.7555
47312SOL     OW47898   6.956   6.143   4.224  0.3386 -0.3757 -0.0640
47312SOL    HW147899   6.912   6.228   4.231  1.3060  0.3195 -1.9575
47312SOL    HW247900   6.986   6.125   4.314  0.2324  1.3454  0.3572
47313SOL     OW47901   9.443   2.132  11.209 -0.2021  0.4424  0.4828
47313SOL    HW147902   9.521   2.083  11.184 -0.7869 -1.1106  1.5987
47313SOL    HW247903   9.476   2.208  11.257  0.6294 -0.1474  0.8581
47314SOL     OW47904   8.090  11.606   2.792 -0.0544 -0.2086  0.8924
47314SOL    HW147905   8.060  11.590   2.702  0.8885  1.5317  0.2197
47314SOL    HW247906   8.040  11.683   2.821  0.6420  0.0901  1.3331
47315SOL     OW47907   1.790   9.714   0.377 -0.4054  0.2997 -0.2327
47315SOL    HW147908   1.883   9.737   0.370 -0.5631  1.2750  0.6048
47315SOL    HW247909   1.750   9.790   0.419 -1.4887 -0.3551 -0.0491
47316SOL     OW47910   4.140   0.147   7.873 -0.3784 -0.0423 -0.0213
47316SOL    HW147911   4.131   0.146   7.968 -0.1125  0.1738  0.0075
47316SOL    HW247912   4.132   0.239   7.849 -1.3747 -0.1912 -0.3028
47317SOL     OW47913   9.949   0.409   4.006 -0.1441 -0.3078 -0.2336
47317SOL    HW147914   9.984   0.450   4.086 -0.7864  0.7522 -0.4651
47317SOL    HW247915   9.869   0.365   4.036  0.5999 -1.5356  0.0347
47318SOL     OW47916  10.627  11.191   1.265  0.4532  0.4500  0.1816
47318SOL    HW147917  10.539  11.204   1.229 -0.0495 -0.9056  0.8758
47318SOL    HW247918  10.613  11.141   1.345  1.8354  0.5677  0.5146
47319SOL     OW47919  10.510   3.185   6.937 -0.3153 -0.5869  0.1983
47319SOL    HW147920  10.513   3.089   6.942 -0.0143 -0.5999 -0.1579
47319SOL    HW247921  10.574   3.214   7.002 -0.7713 -0.6126  0.6652
47320SOL     OW47922   3.349   8.856   9.710  0.2630  0.0487  0.0049
47320SOL    HW147923   3.433   8.886   9.744  1.0588 -1.0249 -0.9561
47320SOL    HW247924   3.284   8.900   9.765  1.4587 -0.2736  1.7582
47321SOL     OW47925   3.483   8.418   9.172  0.6268 -0.4019  0.1546
47321SOL    HW147926   3.417   8.374   9.226  0.9534  0.0108  0.9199
47321SOL    HW247927   3.543   8.349   9.145 -0.2194 -0.8102 -0.7047
47322SOL     OW47928   2.869   1.811   8.090  0.4788  0.6813  0.1666
47322SOL    HW147929   2.786   1.806   8.138  0.3377  1.0924 -0.0278
47322SOL    HW247930   2.920   1.877   8.138 -0.5219  2.8147 -1.4950
47323SOL     OW47931   0.867   9.188   7.103  0.2370 -0.3423 -0.3056
47323SOL    HW147932   0.952   9.146   7.112  0.2846 -0.1616  0.1206
47323SOL    HW247933   0.886   9.270   7.056  0.4568  0.1682  0.6378
47324SOL     OW47934   4.774  12.172  11.039 -0.1496 -0.0860 -0.2363
47324SOL    HW147935   4.868  12.161  11.055  0.3352  0.2608 -2.5043
47324SOL    HW247936   4.756  12.262  11.066  0.1101 -0.2115  0.3755
47325SOL     OW47937   3.822   8.757   7.386  0.2182  0.0647  0.1637
47325SOL    HW147938   3.764   8.780   7.314  0.2191  0.2435  0.2201
47325SOL    HW247939   3.847   8.841   7.425  1.0269  0.0336 -0.2617
47326SOL     OW47940  10.291   8.758   5.142  0.1645  0.0580  0.4128
47326SOL    HW147941  10.279   8.686   5.080  1.1920 -2.2342  2.7243
47326SOL    HW247942  10.202   8.786   5.164 -0.2508 -0.4695 -0.5308
47327SOL     OW47943   2.917   9.220   8.319 -0.0722 -0.6232  0.1478
47327SOL    HW147944   2.972   9.299   8.329  0.0429 -0.3309 -2.2368
47327SOL    HW247945   2.850   9.246   8.255 -2.3880 -1.3313  2.1654
47328SOL     OW47946   1.255   5.081  12.031  0.7898  0.6471 -0.2039
47328SOL    HW147947   1.297   5.033  12.102  2.1416 -1.4437 -2.2751
47328SOL    HW247948   1.318   5.078  11.959 -0.7947  2.0724 -1.7509
47329SOL     OW47949  10.581  10.498   3.168  0.5218  0.4718 -0.2440
47329SOL    HW147950  10.659  10.450   3.196 -0.4603 -0.2002  1.5030
47329SOL    HW247951  10.545  10.444   3.097  0.5910 -0.2724  0.2698
47330SOL     OW47952   5.388   8.673   7.664 -0.1892 -0.1047  0.6800
47330SOL    HW147953   5.476   8.667   7.627  0.1006 -0.3185  1.3800
47330SOL    HW247954   5.379   8.764   7.691  0.5820 -0.4800  2.3779
47331SOL     OW47955   0.064  10.656   9.335  0.0532  0.2797 -0.5449
47331SOL    HW147956  -0.007  10.709   9.373  1.1870  0.5465  1.3078
47331SOL    HW247957   0.125  10.720   9.298 -0.1776  0.0904 -1.2767
47332SOL     OW47958   3.543   7.079   7.781  0.6963 -0.0328  0.0994
47332SOL    HW147959   3.468   7.032   7.743  1.6561 -1.4989 -0.0779
47332SOL    HW247960   3.524   7.171   7.766 -0.8138 -0.3979 -0.4309
47333SOL     OW47961   6.828   6.744   3.937  0.4976  0.1918  0.1856
47333SOL    HW147962   6.754   6.702   3.979  0.3688  0.3265  0.0973
47333SOL    HW247963   6.850   6.686   3.864  1.7674 -0.8974  1.3844
47334SOL     OW47964   0.723   1.750   7.786  0.0310 -0.2314 -0.1248
47334SOL    HW147965   0.749   1.776   7.698  1.0285 -1.7771 -0.3349
47334SOL    HW247966   0.699   1.658   7.778  1.3247 -0.7551  1.4142
47335SOL     OW47967   9.854   7.576  11.466  0.0550  0.0411 -0.5283
47335SOL    HW147968   9.931   7.632  11.476  0.6582 -1.0754  1.5329
47335SOL    HW247969   9.876   7.495  11.512 -1.8304 -0.8697 -1.1042
47336SOL     OW47970   5.701   4.221   6.087  0.5218 -0.1172  0.5577
47336SOL    HW147971   5.753   4.195   6.010  1.4432 -0.1419  1.1772
47336SOL    HW247972   5.745   4.180   6.161 -2.4474 -3.2652  0.8356
47337SOL     OW47973   7.939   2.966   2.198 -0.3434 -0.1903  0.4401
47337SOL    HW147974   7.913   2.907   2.126 -0.2331  1.1099 -0.7015
47337SOL    HW247975   7.956   3.050   2.155  1.3638  0.1969  1.7602
47338SOL     OW47976   3.932   8.654   3.214 -0.2138  0.8392 -0.3214
47338SOL    HW147977   3.900   8.692   3.296  2.6667  0.1512  1.2609
47338SOL    HW247978   3.995   8.717   3.181  1.3810 -0.4771  0.0391
47339SOL     OW47979  10.208   8.390  10.475 -0.1646  0.0214  0.2442
47339SOL    HW147980  10.207   8.478  10.437  1.4567 -1.1042 -2.8457
47339SOL    HW247981  10.288   8.388  10.528  0.1578  0.2386 -0.2231
47340SOL     OW47982  10.765   0.637   7.363 -0.3162 -0.2986  0.4664
47340SOL    HW147983  10.815   0.709   7.402 -2.3211  0.2964  2.0948
47340SOL    HW247984  10.732   0.673   7.280  0.3249 -0.0469  0.3106
47341SOL     OW47985   2.149   5.175   2.699 -0.0839 -0.3663 -0.7497
47341SOL    HW147986   2.203   5.191   2.621  0.5604 -3.3361 -1.0408
47341SOL    HW247987   2.059   5.177   2.667  0.1635 -1.3591 -1.5617
47342SOL     OW47988   5.281  10.834   0.534 -0.6182 -0.0026  0.8853
47342SOL    HW147989   5.243  10.759   0.579 -1.0001 -1.4058 -1.5882
47342SOL    HW247990   5.375  10.813   0.528 -0.5426  0.2541  1.1121
47343SOL     OW47991   5.927   4.769   5.381 -0.2928 -0.1614 -0.0178
47343SOL    HW147992   6.014   4.761   5.343 -1.1398 -1.7253 -1.7994
47343SOL    HW247993   5.941   4.817   5.463  3.0042 -4.2937  2.2991
47344SOL     OW47994   0.559   9.702   7.861  0.6949 -0.2504 -0.1878
47344SOL    HW147995   0.467   9.675   7.858  0.9003 -1.1339  0.8663
47344SOL    HW247996   0.557   9.794   7.834 -0.8787  0.5864  2.3376
47345SOL     OW47997  12.248   5.643  10.513 -0.4943 -0.0120  0.2807
47345SOL    HW147998  12.295   5.560  10.508  0.1995  0.3439  0.7786
47345SOL    HW247999  12.286   5.696  10.443 -0.0421  0.3238  0.7704
47346SOL     OW48000   7.165   1.993   5.225  0.2166 -0.3385  0.1084
47346SOL    HW148001   7.087   1.996   5.280  1.9150 -0.8489  2.6790
47346SOL    HW248002   7.158   1.910   5.178 -0.8661 -0.2777  0.1383
47347SOL     OW48003  10.300  12.389  11.366 -0.5377 -0.4606 -0.0545
47347SOL    HW148004  10.336  12.306  11.334 -0.0506 -0.1535 -0.3183
47347SOL    HW248005  10.249  12.423  11.292 -2.2596 -1.3832  0.6495
47348SOL     OW48006   4.943  12.000   6.764 -0.3996  0.0682  0.4236
47348SOL    HW148007   4.931  12.036   6.676  0.3413  0.8583  0.6307
47348SOL    HW248008   4.857  12.008   6.806 -0.5491  0.4554  0.0469
47349SOL     OW48009  12.386   0.718   9.124 -0.1422 -0.5303  0.1847
47349SOL    HW148010  12.337   0.636   9.133 -0.7309 -0.3891 -1.3752
47349SOL    HW248011  12.319   0.786   9.121  0.3855  0.2601  3.0817
47350SOL     OW48012  11.725   6.440  10.464  0.3009 -0.2498  0.7509
47350SOL    HW148013  11.770   6.507  10.413 -1.6207 -0.9204 -2.0914
47350SOL    HW248014  11.794   6.383  10.495  1.6702  0.5443 -0.6776
47351SOL     OW48015   9.621   3.099   9.201 -1.0504  0.8480 -0.0162
47351SOL    HW148016   9.579   3.156   9.137 -0.0468  3.0110  1.1613
47351SOL    HW248017   9.633   3.154   9.279  0.7246 -0.7184  0.9032
47352SOL     OW48018   1.455   2.995   1.226 -0.1897  0.3804  0.2045
47352SOL    HW148019   1.455   3.068   1.288  0.7055  0.5962 -0.0356
47352SOL    HW248020   1.456   2.917   1.281  0.0765  0.5660  0.4682
47353SOL     OW48021  11.317   3.462   2.972  0.2542  0.1635 -0.0625
47353SOL    HW148022  11.303   3.381   2.924 -2.4325  0.2901  0.3420
47353SOL    HW248023  11.408   3.486   2.954  1.2550 -3.0973  0.1210
47354SOL     OW48024   8.584   9.351   8.487  0.1958  0.0476  0.2187
47354SOL    HW148025   8.577   9.443   8.514 -2.1105  0.3900 -1.2022
47354SOL    HW248026   8.525   9.344   8.412 -0.6732 -2.9015  1.0405
47355SOL     OW48027   9.408  10.241   9.820 -0.1745 -0.2295 -0.7042
47355SOL    HW148028   9.317  10.265   9.801 -0.0700  1.0852  0.2927
47355SOL    HW248029   9.401  10.181   9.894 -0.2452 -0.5331 -0.9525
47356SOL     OW48030   4.635   8.889   1.345  0.3332  0.1862  0.1444
47356SOL    HW148031   4.631   8.893   1.249 -0.1348  2.4619  0.2171
47356SOL    HW248032   4.725   8.913   1.366  0.2398  0.3917  0.3058
47357SOL     OW48033   2.781   9.832   2.935  0.2131  0.0260  0.1841
47357SOL    HW148034   2.688   9.811   2.934  0.6144 -1.8924 -0.3925
47357SOL    HW248035   2.786   9.919   2.975 -1.7499 -0.1196  0.8156
47358SOL     OW48036   6.999  12.120   0.041 -0.2259 -0.1608  0.3567
47358SOL    HW148037   6.928  12.102   0.103 -0.3538  0.8226  0.5103
47358SOL    HW248038   7.068  12.058   0.066 -0.6952 -0.5199  0.7813
47359SOL     OW48039  10.193   8.020  10.172 -0.3283  0.1778 -0.0045
47359SOL    HW148040  10.194   7.935  10.127  0.8386  0.8173 -1.2616
47359SOL    HW248041  10.193   7.998  10.265 -1.8528 -1.1935 -0.2740
47360SOL     OW48042   1.174   2.571   2.798 -0.5113  0.4170  0.2233
47360SOL    HW148043   1.123   2.497   2.765 -0.5762  0.2360  0.7203
47360SOL    HW248044   1.161   2.640   2.733 -0.1467 -0.1269 -0.4401
47361SOL     OW48045  11.006   6.384   4.056 -0.6299 -0.1566 -0.1248
47361SOL    HW148046  10.933   6.347   4.005 -0.2672 -1.1420  0.0586
47361SOL    HW248047  11.062   6.425   3.990 -0.7008 -0.5084 -0.4063
47362SOL     OW48048   4.365   7.262   9.184  0.2241 -0.0699 -0.5974
47362SOL    HW148049   4.311   7.247   9.106 -0.5991  1.0843 -0.2756
47362SOL    HW248050   4.304   7.297   9.249  0.3610 -3.1968  1.4195
47363SOL     OW48051   7.152   7.282   3.033 -0.2188  0.1164 -0.0265
47363SOL    HW148052   7.193   7.368   3.044  0.4149 -0.1073 -0.5761
47363SOL    HW248053   7.213   7.221   3.075 -0.6636 -0.0683  0.3576
47364SOL     OW48054   2.052   7.669   6.985  0.1782 -0.0085  0.2033
47364SOL    HW148055   1.973   7.699   6.939  0.8490  0.2946 -0.7679
47364SOL    HW248056   2.088   7.600   6.929  1.0078  0.3642  0.2692
47365SOL     OW48057  12.333   2.195   5.206  0.5620  0.1957 -0.5228
47365SOL    HW148058  12.316   2.268   5.265 -0.4574 -1.6079  1.5715
47365SOL    HW248059  12.375   2.128   5.261 -1.0655 -1.8431 -1.6013
47366SOL     OW48060   2.444   7.410   7.846  0.3440  0.0369 -0.0749
47366SOL    HW148061   2.395   7.456   7.914 -1.7970  0.1135 -1.6045
47366SOL    HW248062   2.401   7.325   7.839  2.0024 -0.8776  0.2178
47367SOL     OW48063  10.813  10.681   5.004 -0.5566 -0.1577  0.1684
47367SOL    HW148064  10.906  10.696   5.021 -0.8622  1.3539  0.6572
47367SOL    HW248065  10.790  10.610   5.064  0.4640 -1.2066 -0.6263
47368SOL     OW48066   7.326   4.026   8.117 -0.3549 -0.2813 -0.0439
47368SOL    HW148067   7.280   4.005   8.198 -0.0718 -0.0639  0.1745
47368SOL    HW248068   7.333   4.122   8.117 -0.3463 -0.2803 -0.3189
47369SOL     OW48069   8.397  11.254   8.125  0.3153 -0.3018  0.0996
47369SOL    HW148070   8.410  11.172   8.078 -0.1866 -0.8013  0.8213
47369SOL    HW248071   8.473  11.261   8.183  0.0523 -0.5630  0.4772
47370SOL     OW48072   1.879   3.885  12.013 -0.0117  0.1867 -0.2112
47370SOL    HW148073   1.925   3.862  11.932 -1.0330  0.7272 -0.9700
47370SOL    HW248074   1.944   3.872  12.082  1.0601  0.2409 -1.1743
47371SOL     OW48075   5.209   7.888   1.931 -0.0614 -0.4499  0.1432
47371SOL    HW148076   5.298   7.863   1.907 -0.4308 -1.1823 -0.5288
47371SOL    HW248077   5.174   7.813   1.978  0.0760  0.3186  1.4998
47372SOL     OW48078   9.512   4.063   7.256 -0.0864 -0.2304  0.0862
47372SOL    HW148079   9.477   4.139   7.302 -0.1605  0.0157 -0.3705
47372SOL    HW248080   9.487   3.988   7.310 -0.9836 -0.0256 -0.0404
47373SOL     OW48081   0.741   3.026   5.619  0.4291  0.5780 -0.3020
47373SOL    HW148082   0.785   2.966   5.558  1.5069  1.0747 -0.0505
47373SOL    HW248083   0.733   2.975   5.700  0.2708  0.3804 -0.4412
47374SOL     OW48084  12.427  12.080   3.699 -0.2818 -0.1931 -0.4888
47374SOL    HW148085  12.354  12.093   3.639 -0.1524  1.2936 -0.3497
47374SOL    HW248086  12.388  12.042   3.778 -1.2822  2.4026  0.3577
47375SOL     OW48087   2.905   7.376   0.993 -0.2733  0.0250  0.4260
47375SOL    HW148088   2.820   7.364   1.036  0.0497  0.0243  1.0760
47375SOL    HW248089   2.962   7.411   1.062  0.3656 -0.3698  0.1037
47376SOL     OW48090  10.734   7.528   0.149 -0.1751 -0.3106  0.0231
47376SOL    HW148091  10.708   7.441   0.119 -0.1882 -0.1776 -0.3535
47376SOL    HW248092  10.829   7.531   0.134 -0.0446 -0.5262  0.7219
47377SOL     OW48093   7.910   2.584   7.469 -0.4273 -0.3188 -0.2475
47377SOL    HW148094   7.991   2.593   7.418 -1.9426  2.5531 -2.4252
47377SOL    HW248095   7.918   2.650   7.538 -0.1427 -1.3713  0.7544
47378SOL     OW48096   0.683   1.237   4.865 -0.1133  0.9332  0.0235
47378SOL    HW148097   0.688   1.170   4.934 -3.2479  1.3571  0.8066
47378SOL    HW248098   0.598   1.223   4.824  0.2920  2.7981 -1.6280
47379SOL     OW48099   8.955   3.446  10.827  0.0713  0.1502  0.2579
47379SOL    HW148100   9.010   3.518  10.796  1.2041  0.0143  1.8671
47379SOL    HW248101   8.997   3.367  10.793  0.6085  0.0772  1.0713
47380SOL     OW48102   0.004   9.340   7.298 -0.0664 -0.8434 -0.2482
47380SOL    HW148103   0.019   9.350   7.204  0.5369 -0.8089 -0.1544
47380SOL    HW248104  -0.058   9.409   7.320 -0.3484 -0.9656 -0.6523
47381SOL     OW48105   4.380   7.293   3.455 -0.2467  0.1459 -0.3289
47381SOL    HW148106   4.316   7.363   3.442  0.3624  0.8977  0.5938
47381SOL    HW248107   4.327   7.213   3.459 -1.0969  0.7090  0.0543
47382SOL     OW48108   2.800   5.383  12.486  0.1073 -0.2410 -0.1262
47382SOL    HW148109   2.872   5.321  12.501  1.8942  1.5708 -0.7516
47382SOL    HW248110   2.829   5.464  12.527 -0.4284  1.2447 -2.4964
47383SOL     OW48111  11.681   1.771  10.773  0.0234  0.3275 -0.2770
47383SOL    HW148112  11.738   1.788  10.849  1.0645  3.8006 -1.6269
47383SOL    HW248113  11.741   1.743  10.704 -0.4749  0.1882 -0.6559
47384SOL     OW48114   2.845   0.287   9.435 -0.4820 -0.6841 -0.8252
47384SOL    HW148115   2.788   0.310   9.361  0.7317 -0.7166 -1.8109
47384SOL    HW248116   2.934   0.306   9.403  0.0304  0.0914  0.9199
47385SOL     OW48117   1.712   4.579   5.597  0.0024 -0.9124  0.0843
47385SOL    HW148118   1.634   4.582   5.542  1.8248  1.7004 -2.5930
47385SOL    HW248119   1.783   4.555   5.538  1.8871  0.8556  1.4968
47386SOL     OW48120   2.798   3.569   3.487  0.0297  0.1331  0.1911
47386SOL    HW148121   2.762   3.562   3.398 -0.6352 -1.1387  0.5430
47386SOL    HW248122   2.770   3.655   3.517  1.0962  1.0012 -1.1726
47387SOL     OW48123  12.111   4.390   0.319  0.4458  0.0184  0.5595
47387SOL    HW148124  12.083   4.316   0.372 -0.1468 -0.0566  0.1449
47387SOL    HW248125  12.097   4.361   0.228 -1.0577  1.1219  0.4146
47388SOL     OW48126  11.312   7.452   9.273  0.1582  0.0269  0.7004
47388SOL    HW148127  11.252   7.434   9.202  0.4360 -0.8407  0.6758
47388SOL    HW248128  11.386   7.394   9.258  0.7715  0.7062  1.0178
47389SOL     OW48129  12.372  12.245   0.888  0.1666 -0.1185 -0.0624
47389SOL    HW148130  12.404  12.154   0.886  3.1219  0.8155 -0.8977
47389SOL    HW248131  12.316  12.249   0.965  0.9145 -2.3581  0.6909
47390SOL     OW48132  11.163   7.515   4.578 -0.2855 -0.3506  0.1843
47390SOL    HW148133  11.068   7.505   4.590 -0.3598  0.0213 -0.0630
47390SOL    HW248134  11.202   7.454   4.640 -0.7122 -2.7743 -1.7364
47391SOL     OW48135   2.155   6.239   1.037 -0.4433 -0.1577 -0.2369
47391SOL    HW148136   2.140   6.215   0.945 -0.1684  0.9963 -0.5974
47391SOL    HW248137   2.070   6.229   1.079 -0.3806 -1.5751 -0.3924
47392SOL     OW48138  11.622   6.512   7.573  0.3460  0.2301  0.7574
47392SOL    HW148139  11.547   6.568   7.555  2.0197  2.4799  0.3821
47392SOL    HW248140  11.607   6.479   7.661 -1.3934  0.0374  0.4327
47393SOL     OW48141  11.205   4.233   9.542  0.7596  0.4293  0.4409
47393SOL    HW148142  11.234   4.208   9.454  0.8566 -2.0975  1.1251
47393SOL    HW248143  11.121   4.277   9.528 -0.1583 -1.5726 -0.8528
47394SOL     OW48144   1.772   6.375   5.413  0.4421  0.0022  0.9150
47394SOL    HW148145   1.860   6.403   5.388  0.0084  1.5188  1.0345
47394SOL    HW248146   1.716   6.405   5.341 -0.0766 -0.3638  1.1577
47395SOL     OW48147  12.019   9.517   7.671 -0.3923 -0.4923  0.5053
47395SOL    HW148148  12.099   9.502   7.722 -0.7520  0.7435  1.4865
47395SOL    HW248149  12.050   9.560   7.591 -0.0078 -0.6524  0.5644
47396SOL     OW48150   8.027   6.482  11.283  0.3405  0.2608  0.0285
47396SOL    HW148151   8.082   6.560  11.285 -0.7194  1.0412 -0.0383
47396SOL    HW248152   8.079   6.415  11.326  0.9972  1.1917  0.7403
47397SOL     OW48153   6.709   0.931   1.494  0.7811 -0.5961  0.2027
47397SOL    HW148154   6.614   0.943   1.490  1.0384  1.5150 -1.7533
47397SOL    HW248155   6.742   0.975   1.416  3.4881 -0.1105  1.5068
47398SOL     OW48156   3.529   8.126   3.859  0.8103  0.2811 -0.3302
47398SOL    HW148157   3.447   8.140   3.811 -1.2035 -0.8764  2.4862
47398SOL    HW248158   3.520   8.179   3.938  1.4408 -2.0191  1.3979
47399SOL     OW48159   2.452  11.917   6.759  0.1214  0.3111 -0.4018
47399SOL    HW148160   2.503  11.997   6.772 -0.2944  0.5086  0.1031
47399SOL    HW248161   2.391  11.939   6.688  1.2714 -0.2004 -1.5787
47400SOL     OW48162   4.547   9.624  10.577  0.2107 -0.4298  0.6429
47400SOL    HW148163   4.467   9.672  10.594 -1.7199 -3.4840  0.9229
47400SOL    HW248164   4.552   9.620  10.481 -0.9450 -1.5977  0.6015
47401SOL     OW48165   6.381   0.943   3.228  0.2986  0.3709 -0.4421
47401SOL    HW148166   6.312   0.924   3.164  0.2074 -2.1636  0.3099
47401SOL    HW248167   6.428   0.860   3.238  1.3737  1.1564  1.5027
47402SOL     OW48168   9.938   2.442   6.344 -0.3679  0.0054  0.0475
47402SOL    HW148169   9.922   2.533   6.370 -0.1036  0.0844 -0.0629
47402SOL    HW248170   9.881   2.428   6.269  0.6200  0.5259 -0.8307
47403SOL     OW48171   5.622  11.330  11.701  0.2235  0.4220  0.4659
47403SOL    HW148172   5.602  11.237  11.687 -0.6582  0.1837  2.7680
47403SOL    HW248173   5.664  11.358  11.620  2.8595 -2.6215  0.5526
47404SOL     OW48174   8.589   9.297   5.527 -0.0059  0.3777 -0.3313
47404SOL    HW148175   8.663   9.325   5.581  0.7407 -2.2154  0.1464
47404SOL    HW248176   8.538   9.240   5.584 -0.4623 -0.6068 -1.6728
47405SOL     OW48177   1.691   1.707   6.735 -0.2876 -0.7495  0.4988
47405SOL    HW148178   1.767   1.662   6.771  0.1279 -0.2997  0.2037
47405SOL    HW248179   1.646   1.641   6.683 -1.1066 -1.5205  2.1095
47406SOL     OW48180   5.527   4.771   3.489  0.3594  0.2133  0.0040
47406SOL    HW148181   5.451   4.721   3.458 -0.2986  1.8519 -1.1641
47406SOL    HW248182   5.603   4.720   3.460 -0.2865  0.0838 -1.5731
47407SOL     OW48183   1.661   0.691   9.905 -0.1119  0.9904 -0.5616
47407SOL    HW148184   1.638   0.677   9.997 -1.2000  0.7578 -0.8557
47407SOL    HW248185   1.578   0.711   9.862 -0.1406 -1.7671 -2.0140
47408SOL     OW48186   5.842  10.525   9.586  0.3803  0.0609 -0.0872
47408SOL    HW148187   5.847  10.480   9.501  0.1249 -2.5292  1.1666
47408SOL    HW248188   5.767  10.484   9.630  1.1059  0.6337  1.7615
47409SOL     OW48189  10.980   6.609  10.732 -0.3867 -0.0369  0.7718
47409SOL    HW148190  10.931   6.668  10.788 -0.5436  0.3407  0.2424
47409SOL    HW248191  11.054   6.661  10.700  1.2264 -0.9846  2.6814
47410SOL     OW48192   4.902  11.081  11.699 -0.7301 -0.4363 -0.1241
47410SOL    HW148193   4.860  11.008  11.746  1.4941 -0.8772  1.3228
47410SOL    HW248194   4.981  11.043  11.661 -0.2897  0.9084 -0.6207
47411SOL     OW48195   6.512   3.922   4.062 -0.0023 -0.4711  0.3459
47411SOL    HW148196   6.440   3.896   4.005 -1.5450 -0.1006  2.0445
47411SOL    HW248197   6.583   3.861   4.040 -1.0475 -1.2973 -0.8860
47412SOL     OW48198   1.652  10.765   0.774  0.6167  0.2480 -0.1194
47412SOL    HW148199   1.726  10.707   0.760 -1.2644 -2.2298 -0.6157
47412SOL    HW248200   1.642  10.767   0.870  1.5315  0.9370 -0.0258
47413SOL     OW48201   5.822   0.182   7.978  0.3239  0.0300  0.0486
47413SOL    HW148202   5.896   0.203   8.035 -0.1356 -0.4261  0.8206
47413SOL    HW248203   5.810   0.088   7.986 -1.8192  0.3721  1.8026
47414SOL     OW48204  10.062   6.029   1.977 -0.2140 -0.1127 -0.2382
47414SOL    HW148205  10.047   6.120   2.004  1.3934  0.4163 -0.9310
47414SOL    HW248206  10.154   6.028   1.948 -1.5630 -0.4980 -5.6774
47415SOL     OW48207   4.327   0.114   5.561 -0.3900 -0.7649  0.3668
47415SOL    HW148208   4.377   0.169   5.621 -0.5851 -1.0330  0.7813
47415SOL    HW248209   4.236   0.125   5.588 -0.4846 -0.8381  0.0812
47416SOL     OW48210   3.370   7.892  12.236 -0.3494  0.2866 -0.1469
47416SOL    HW148211   3.400   7.950  12.166  1.0661 -1.5149 -1.1328
47416SOL    HW248212   3.326   7.820  12.190  0.1464 -0.6734  0.8362
47417SOL     OW48213   8.266   1.312   3.928 -0.1655  0.3872 -0.2664
47417SOL    HW148214   8.187   1.337   3.882 -1.2750  1.4069  2.0476
47417SOL    HW248215   8.243   1.231   3.974 -0.2976  1.3274  1.3767
47418SOL     OW48216   2.876  10.518   0.133 -0.5812  0.4827  0.6634
47418SOL    HW148217   2.871  10.428   0.164 -1.1292  0.4341  0.4526
47418SOL    HW248218   2.810  10.523   0.064  1.8286  0.0490 -1.8465
47419SOL     OW48219   7.993   5.219   5.473  0.1561 -0.1805  0.2716
47419SOL    HW148220   8.080   5.181   5.480  0.2110 -0.9356 -2.9823
47419SOL    HW248221   8.007   5.306   5.437 -0.4119 -1.3336 -3.0884
47420SOL     OW48222   8.472   6.979   0.689 -0.2435 -0.8620 -0.7357
47420SOL    HW148223   8.473   7.061   0.738 -1.3911 -0.6611 -0.9954
47420SOL    HW248224   8.563   6.961   0.669  0.0377  0.2768 -0.5372
47421SOL     OW48225   0.856  11.212   6.924 -0.3688 -0.2353 -0.3316
47421SOL    HW148226   0.917  11.244   6.991  1.2082  0.0263 -1.7963
47421SOL    HW248227   0.781  11.272   6.930  0.8259  1.3524 -0.4215
47422SOL     OW48228   8.046   5.573   1.439 -0.1556  0.6339  0.3761
47422SOL    HW148229   8.139   5.551   1.432 -0.4855 -0.9062  0.3828
47422SOL    HW248230   8.022   5.603   1.351  0.0562 -0.3143 -0.0289
47423SOL     OW48231   6.213  10.228   1.514  0.0331  0.5231  0.5459
47423SOL    HW148232   6.140  10.187   1.466  0.7448 -0.4471  0.2694
47423SOL    HW248233   6.170  10.292   1.570 -0.9058  1.1158 -0.7735
47424SOL     OW48234   6.329   3.740   9.676 -0.8365  0.0496  0.2023
47424SOL    HW148235   6.252   3.709   9.629  0.5208 -2.7684 -0.3838
47424SOL    HW248236   6.335   3.682   9.753  0.8743 -0.0731  0.0172
47425SOL     OW48237   8.309   1.531   5.616 -0.2467  0.0125 -0.1508
47425SOL    HW148238   8.315   1.580   5.534  0.9774  1.5542  0.8049
47425SOL    HW248239   8.399   1.502   5.633 -0.9380 -2.7372 -0.7262
47426SOL     OW48240  11.013   9.400   9.572  0.4652 -0.2399  0.1878
47426SOL    HW148241  10.960   9.474   9.603 -2.8408 -1.8742 -1.0288
47426SOL    HW248242  11.026   9.346   9.650  1.2264  0.6741  0.7047
47427SOL     OW48243   7.598   8.119   2.514 -0.2820  0.1229  0.5040
47427SOL    HW148244   7.646   8.143   2.594 -0.1310 -1.2296  0.8328
47427SOL    HW248245   7.620   8.028   2.499 -0.4023  0.3312 -1.0412
47428SOL     OW48246   8.430   6.013  11.532 -0.3783  0.0646  0.7657
47428SOL    HW148247   8.367   6.060  11.587 -2.0854 -1.6371  0.3497
47428SOL    HW248248   8.457   5.938  11.585 -2.3444 -1.8168 -0.7216
47429SOL     OW48249  11.562   8.652   4.025 -0.7824 -0.3675 -0.3916
47429SOL    HW148250  11.506   8.729   4.031  2.4245  2.3405 -1.9182
47429SOL    HW248251  11.573   8.638   3.931  0.2181 -1.4820 -0.1291
47430SOL     OW48252   9.772   6.519   4.709 -0.8282 -0.0931  0.2206
47430SOL    HW148253   9.753   6.442   4.656 -0.3087 -0.8044  1.0511
47430SOL    HW248254   9.688   6.564   4.717 -1.0695 -0.3896 -0.5313
47431SOL     OW48255   6.859   6.720   2.645  0.1382 -0.5026 -0.1345
47431SOL    HW148256   6.893   6.791   2.700  1.1514 -0.2756 -1.0137
47431SOL    HW248257   6.771   6.703   2.678 -1.5045  3.3898 -1.8629
47432SOL     OW48258   5.261   5.214   6.862 -0.3890  0.0188  0.3349
47432SOL    HW148259   5.351   5.243   6.875  0.0417 -1.5853  1.1082
47432SOL    HW248260   5.241   5.238   6.771  1.6038 -1.6083 -0.6139
47433SOL     OW48261  10.282   2.551   5.436  0.1373 -0.5905  0.0977
47433SOL    HW148262  10.326   2.626   5.475 -0.5018 -0.1972  0.0672
47433SOL    HW248263  10.275   2.487   5.507 -2.3072  0.6635  1.0684
47434SOL     OW48264   8.173  12.008  10.039 -0.0180  0.5068 -0.1304
47434SOL    HW148265   8.235  12.036  10.106 -0.3797  1.1735 -0.0640
47434SOL    HW248266   8.097  12.065  10.052  0.9413  2.6466 -2.8512
47435SOL     OW48267   8.259   0.361   1.816 -0.0741  0.0129 -0.2523
47435SOL    HW148268   8.328   0.295   1.823  0.9204  1.1461  1.2391
47435SOL    HW248269   8.177   0.311   1.819  0.6609 -1.2366 -0.3902
47436SOL     OW48270   1.822  10.533   5.559 -0.1505  0.2939 -0.3274
47436SOL    HW148271   1.777  10.462   5.606 -0.1303 -0.7041 -1.7640
47436SOL    HW248272   1.756  10.603   5.553 -0.5515 -0.0391  0.1005
47437SOL     OW48273   8.470   6.582   0.563  0.5954 -0.0147 -0.6476
47437SOL    HW148274   8.453   6.527   0.487  0.1645 -0.4333 -0.2557
47437SOL    HW248275   8.565   6.593   0.564  0.6617 -0.5292 -0.8860
47438SOL     OW48276   2.307   8.010  11.526  0.3025  0.1082  0.1046
47438SOL    HW148277   2.332   7.989  11.616  0.5684 -1.0871 -0.2428
47438SOL    HW248278   2.227   8.062  11.536 -1.9671 -3.2218  0.9692
47439SOL     OW48279   7.080  11.080   4.678  0.1926 -0.2646 -0.1377
47439SOL    HW148280   7.164  11.035   4.681 -0.4294 -1.4556  0.0846
47439SOL    HW248281   7.093  11.159   4.730  1.3054 -0.2033 -0.4936
47440SOL     OW48282   3.880   0.277   9.893  0.9799  0.8242  0.3300
47440SOL    HW148283   3.959   0.230   9.869  1.6988  2.3161 -0.3388
47440SOL    HW248284   3.911   0.358   9.933 -0.2122  1.5615 -0.1877
47441SOL     OW48285   5.949   5.775   0.509  0.0998  1.0870  0.2108
47441SOL    HW148286   5.864   5.804   0.544 -0.3930  0.4236 -0.3937
47441SOL    HW248287   5.950   5.808   0.419 -0.0753  0.0246 -0.1899
47442SOL     OW48288   5.514   4.677   8.180  0.5044  0.0590 -0.0241
47442SOL    HW148289   5.453   4.749   8.196 -0.0532 -0.4096 -0.0002
47442SOL    HW248290   5.481   4.605   8.233  1.4953  0.0092  0.5435
47443SOL     OW48291  11.535   7.426  11.048  0.0355 -0.2164  0.3848
47443SOL    HW148292  11.603   7.376  11.092 -0.6494 -0.8360  0.7506
47443SOL    HW248293  11.494   7.364  10.987  1.1975  0.7084 -1.4210
47444SOL     OW48294   8.505   8.239   9.112 -0.0262 -0.2046 -0.2795
47444SOL    HW148295   8.588   8.266   9.152  0.0291  0.3556 -0.7542
47444SOL    HW248296   8.484   8.310   9.051 -1.6305  0.3930  0.9092
47445SOL     OW48297   4.932  11.995   5.182 -0.1258 -0.0132 -0.2303
47445SOL    HW148298   4.939  12.014   5.275 -2.1482 -2.0084  0.3994
47445SOL    HW248299   4.996  11.926   5.166 -1.7565 -1.7067  0.3563
47446SOL     OW48300   8.963   0.146   4.403 -0.2616  0.4751  0.0861
47446SOL    HW148301   9.018   0.203   4.456  0.6818 -0.7941  0.5300
47446SOL    HW248302   8.960   0.188   4.317  3.4239 -0.5549 -0.6950
47447SOL     OW48303   0.955   4.253   1.998 -0.2979 -0.3872 -0.2868
47447SOL    HW148304   0.990   4.318   2.058 -0.8707  1.2050 -1.5916
47447SOL    HW248305   1.031   4.222   1.949  0.0365 -1.0309  0.6169
47448SOL     OW48306   5.322  12.026   7.740 -0.0146 -0.2563 -0.4619
47448SOL    HW148307   5.267  12.035   7.662 -1.1494  1.2987  0.4619
47448SOL    HW248308   5.312  11.935   7.766 -0.7706 -0.4325 -1.3186
47449SOL     OW48309  12.251  11.202   2.953 -0.3039  0.4824  0.1234
47449SOL    HW148310  12.276  11.115   2.983  0.8116  1.0228  0.8044
47449SOL    HW248311  12.332  11.253   2.956 -0.8306  1.4169 -0.7586
47450SOL     OW48312   3.412   3.538   4.484  0.4465 -0.1043 -0.2001
47450SOL    HW148313   3.497   3.571   4.515  0.0347 -0.8745  1.8961
47450SOL    HW248314   3.411   3.446   4.510 -1.5552  0.2257  1.0567
47451SOL     OW48315   5.920   3.310  10.673  0.5172 -0.1249 -0.1695
47451SOL    HW148316   5.878   3.262  10.744  1.0075 -0.1745  0.0935
47451SOL    HW248317   5.994   3.355  10.715  1.5063 -1.0652 -0.8417
47452SOL     OW48318   3.617   1.347   5.328  0.3364  0.4708  0.0694
47452SOL    HW148319   3.653   1.433   5.351 -1.7435  1.1167  1.1858
47452SOL    HW248320   3.670   1.285   5.377  1.1222  1.1989  0.1810
47453SOL     OW48321  12.098   4.355   5.886  0.5508 -0.0241 -0.3388
47453SOL    HW148322  12.063   4.266   5.876  1.5299 -0.4878  0.2237
47453SOL    HW248323  12.165   4.362   5.819  0.4160  0.3257 -0.4379
47454SOL     OW48324   3.246   6.367   6.076  0.2992  0.2070 -0.1443
47454SOL    HW148325   3.334   6.329   6.076  1.1286  1.9419  1.3326
47454SOL    HW248326   3.249   6.433   6.006 -0.1868 -0.4188 -0.7701
47455SOL     OW48327   8.024   2.715  10.134  0.6688  0.3018  0.1194
47455SOL    HW148328   7.955   2.694  10.072  1.2381  1.0450 -0.8003
47455SOL    HW248329   7.979   2.752  10.209 -0.0821 -1.1712  0.4328
47456SOL     OW48330   7.588   7.026   0.784 -0.5680  0.0555  0.1828
47456SOL    HW148331   7.495   7.039   0.803 -0.4146  1.9763 -0.1489
47456SOL    HW248332   7.630   7.021   0.869 -1.0479 -1.9021  0.3622
47457SOL     OW48333   7.542   7.600   5.573  0.0225  0.1017  0.2209
47457SOL    HW148334   7.591   7.520   5.555 -0.0517 -0.1675  1.1555
47457SOL    HW248335   7.503   7.586   5.659 -1.7912  0.2635 -0.5224
47458SOL     OW48336   1.592   5.633   4.201  0.1359 -0.6938  0.2782
47458SOL    HW148337   1.598   5.622   4.296 -0.3323  0.1745  0.4127
47458SOL    HW248338   1.529   5.704   4.188  0.8801 -0.1775 -0.6509
47459SOL     OW48339   4.509   4.663   9.644 -0.2794  0.5340  0.4031
47459SOL    HW148340   4.569   4.598   9.607 -0.6414  0.0733  0.6078
47459SOL    HW248341   4.566   4.733   9.677  0.5307 -1.6440  4.2001
47460SOL     OW48342   7.123   5.871  10.688 -0.3123  0.0718 -0.5051
47460SOL    HW148343   7.150   5.810  10.620 -0.2286  1.1996 -1.5202
47460SOL    HW248344   7.204   5.903  10.726 -0.1360  2.1927 -2.4174
47461SOL     OW48345   1.613   4.552   9.270 -0.1092  0.2205 -0.1910
47461SOL    HW148346   1.706   4.573   9.261 -0.0595  0.0097 -0.1556
47461SOL    HW248347   1.585   4.527   9.182 -0.2450  0.7464 -0.3026
47462SOL     OW48348   5.464   8.382   0.237  0.1732  0.0479  0.0335
47462SOL    HW148349   5.407   8.311   0.207  1.8606 -0.6601 -1.6354
47462SOL    HW248350   5.525   8.340   0.297 -0.5581  0.6808  1.2744
47463SOL     OW48351  12.269   6.020  12.366 -0.9788  0.3713  0.3316
47463SOL    HW148352  12.302   6.041  12.453  0.4624 -0.5111  0.0444
47463SOL    HW248353  12.192   5.965  12.381 -0.8821  0.4287  1.0461
47464SOL     OW48354  12.235   2.679   6.555  0.4593  0.3054  0.2605
47464SOL    HW148355  12.219   2.591   6.587  1.6572  0.2679  0.8117
47464SOL    HW248356  12.263   2.667   6.464  2.7004 -0.1168  0.9349
47465SOL     OW48357  10.624   3.090   6.699  0.4697 -0.3812 -0.6147
47465SOL    HW148358  10.630   3.122   6.789  0.0995 -0.4777 -0.5509
47465SOL    HW248359  10.699   3.032   6.688  0.9790  0.2738 -0.6368
47466SOL     OW48360   1.485   9.445   5.160 -0.3568 -0.0845  1.0148
47466SOL    HW148361   1.439   9.361   5.170  2.1414 -1.7162 -0.2780
47466SOL    HW248362   1.499   9.454   5.065  0.4714  1.2106  1.2305
47467SOL     OW48363   1.641   4.475  12.367 -0.5183  0.2104 -0.7941
47467SOL    HW148364   1.585   4.484  12.444 -0.9464  1.3600 -1.2195
47467SOL    HW248365   1.730   4.470  12.402 -0.8096 -0.6446 -0.1640
47468SOL     OW48366   0.065   1.643   7.159  0.3809  0.4134 -0.0772
47468SOL    HW148367   0.141   1.646   7.101  1.4740 -0.8106  1.2408
47468SOL    HW248368   0.100   1.660   7.246 -1.1617  1.7352  0.3469
47469SOL     OW48369   7.607  11.059   5.917 -0.7901 -0.1236  0.2841
47469SOL    HW148370   7.691  11.093   5.947 -0.1052  0.5493 -2.1791
47469SOL    HW248371   7.545  11.131   5.931 -0.9859 -0.5757  1.9747
47470SOL     OW48372   0.468   7.818  11.110  0.5138  0.0143  0.1714
47470SOL    HW148373   0.478   7.846  11.020 -1.5085 -2.7817 -1.1060
47470SOL    HW248374   0.557   7.807  11.143  1.3265 -0.1708 -1.9513
47471SOL     OW48375   1.102   0.448   9.834 -0.1608 -0.2301  0.2424
47471SOL    HW148376   1.030   0.402   9.878 -1.5747  3.2671  1.9527
47471SOL    HW248377   1.153   0.487   9.905  0.3138  1.6708 -1.0700
47472SOL     OW48378   0.591  12.250   6.653  0.1418 -0.6044  0.0984
47472SOL    HW148379   0.612  12.203   6.734  0.4998 -0.0001  0.3629
47472SOL    HW248380   0.628  12.337   6.666 -0.5694 -0.2281 -0.3589
47473SOL     OW48381   6.647   8.312   4.388  0.5840 -0.1971  0.3306
47473SOL    HW148382   6.597   8.393   4.383  0.9934  0.0585  0.2825
47473SOL    HW248383   6.582   8.245   4.408  0.2192  0.1197  0.2333
47474SOL     OW48384  11.826  11.225   0.087  0.1774  0.3021 -0.0047
47474SOL    HW148385  11.886  11.294   0.116 -0.3828  0.6693  0.3101
47474SOL    HW248386  11.883  11.154   0.058  0.7654  0.5969  0.4016
47475SOL     OW48387   5.465  11.998   1.519  0.3972 -0.3617 -0.8264
47475SOL    HW148388   5.460  12.048   1.600 -0.8330 -0.6599 -0.6910
47475SOL    HW248389   5.446  11.908   1.545 -1.7565 -0.2052 -1.6419
47476SOL     OW48390   6.219  10.302  11.283 -0.0618  0.5205 -0.3608
47476SOL    HW148391   6.150  10.328  11.221 -0.5856  0.4724  0.1895
47476SOL    HW248392   6.262  10.385  11.306 -1.2615  0.8582  0.8340
47477SOL     OW48393   5.013  11.061   2.240 -0.4677 -0.0743  0.4668
47477SOL    HW148394   5.100  11.024   2.227 -0.5836  0.3796 -2.1415
47477SOL    HW248395   5.021  11.152   2.209 -1.4129  0.5686  2.0004
47478SOL     OW48396   4.622   8.469  12.475 -0.0418  0.3197 -0.3289
47478SOL    HW148397   4.609   8.453  12.568 -2.2375 -1.5299 -0.8591
47478SOL    HW248398   4.537   8.502  12.445  0.0389 -0.8662 -1.9815
47479SOL     OW48399   7.863  11.351  12.432 -0.0624  0.3613  0.1843
47479SOL    HW148400   7.814  11.309  12.361  0.0925  0.6666 -0.1086
47479SOL    HW248401   7.916  11.281  12.470  1.2544  0.5554 -1.2001
47480SOL     OW48402  12.090   5.740   6.028 -0.1053 -0.1610  0.1922
47480SOL    HW148403  12.163   5.698   5.984  0.3732 -0.5970  1.3779
47480SOL    HW248404  12.054   5.673   6.085 -1.1998  0.1686 -0.0866
47481SOL     OW48405  12.449   5.438   4.285 -0.0145 -0.2787  0.5421
47481SOL    HW148406  12.530   5.483   4.261  0.2233 -1.2307 -0.5601
47481SOL    HW248407  12.464   5.346   4.260 -0.9230 -0.7397  1.6033
47482SOL     OW48408   4.309   7.372   9.457 -0.3341  0.2321 -0.8355
47482SOL    HW148409   4.366   7.313   9.506  1.4756  1.0681 -1.8364
47482SOL    HW248410   4.233   7.318   9.434  0.0769 -0.9532  0.4346
47483SOL     OW48411   6.154  11.700   2.878  0.3514 -0.1481 -0.0297
47483SOL    HW148412   6.168  11.730   2.968 -0.9508  0.4128 -0.0050
47483SOL    HW248413   6.130  11.608   2.888  1.7622 -0.5293  0.0698
47484SOL     OW48414   3.062   3.978   0.680  0.4672  0.1502  0.0573
47484SOL    HW148415   3.028   3.916   0.745 -0.8083 -1.1493 -1.7416
47484SOL    HW248416   3.156   3.957   0.673  0.0652 -1.6218 -0.4951
47485SOL     OW48417   1.167  10.943   1.810  0.2179 -0.0216 -0.3549
47485SOL    HW148418   1.224  10.985   1.746  1.2534  1.1731  1.2629
47485SOL    HW248419   1.143  11.013   1.871 -1.3606 -0.9461  0.1398
47486SOL     OW48420   8.420   4.546   7.899 -0.0420 -0.4820 -0.1604
47486SOL    HW148421   8.393   4.605   7.828 -0.3985  0.4486  0.7145
47486SOL    HW248422   8.515   4.556   7.903 -0.0599 -0.2475 -0.2740
47487SOL     OW48423  11.265   1.582   4.537  0.0940 -0.7142  0.3841
47487SOL    HW148424  11.210   1.551   4.609 -0.4243  0.6762  0.6169
47487SOL    HW248425  11.204   1.604   4.467  0.3019  0.9029  0.6642
47488SOL     OW48426   5.699   3.153   7.311 -0.1138 -0.2491  0.1834
47488SOL    HW148427   5.614   3.166   7.270  0.3757 -1.5388 -1.3242
47488SOL    HW248428   5.702   3.218   7.382 -2.6933 -0.7855  0.8578
47489SOL     OW48429   5.986   9.734   1.088 -0.6225  0.1542 -0.2691
47489SOL    HW148430   6.071   9.773   1.072 -0.9714  1.7912  1.5512
47489SOL    HW248431   5.930   9.806   1.115 -2.0045 -1.2112  0.7194
47490SOL     OW48432   3.957  11.448   3.999  0.0251  0.1670 -0.4649
47490SOL    HW148433   3.993  11.533   4.026  2.1456 -0.5964 -0.6371
47490SOL    HW248434   4.021  11.415   3.935 -0.9902 -1.3547 -0.7340
47491SOL     OW48435   9.951  12.317   3.828  0.4257 -0.3754  0.7668
47491SOL    HW148436   9.928  12.299   3.919 -0.4552 -0.0242  0.6235
47491SOL    HW248437   9.877  12.283   3.778  0.2684  0.6602  0.2759
47492SOL     OW48438   5.833   9.368  10.284 -0.0076  0.0646  0.1472
47492SOL    HW148439   5.773   9.397  10.352  1.0642 -0.6634  1.4367
47492SOL    HW248440   5.871   9.287  10.318  0.1168 -0.6448 -1.5803
47493SOL     OW48441   5.701   0.389   4.470  0.1312  0.3994  0.1271
47493SOL    HW148442   5.657   0.317   4.425  0.8339  0.7979 -1.2619
47493SOL    HW248443   5.687   0.371   4.563  0.0912 -1.4069 -0.1798
47494SOL     OW48444   5.116   4.437   8.984 -0.8996 -0.2574 -0.0573
47494SOL    HW148445   5.029   4.402   8.963  0.6969 -4.2655 -0.7259
47494SOL    HW248446   5.119   4.436   9.080 -1.7826  0.6397  0.0039
47495SOL     OW48447   5.090  11.285   5.395  0.3592  0.1880 -0.3311
47495SOL    HW148448   5.054  11.372   5.378  0.0530  0.0564 -0.3709
47495SOL    HW248449   5.156  11.272   5.326 -0.1315  0.0827 -0.7878
47496SOL     OW48450  12.377   5.852   4.363 -0.4394 -0.0913 -0.2124
47496SOL    HW148451  12.451   5.871   4.304  0.4138  1.7071  1.3448
47496SOL    HW248452  12.322   5.930   4.357 -0.4964 -0.0172  1.1035
47497SOL     OW48453   5.234   7.985   7.605  0.1199 -0.1839  0.2010
47497SOL    HW148454   5.196   7.912   7.555 -0.3876 -1.5490  2.4587
47497SOL    HW248455   5.167   8.006   7.670  1.1914  0.7837  1.0166
47498SOL     OW48456  10.433   7.129  12.058 -0.0714  0.4775  0.3488
47498SOL    HW148457  10.458   7.037  12.060  0.8118  0.7204  1.7503
47498SOL    HW248458  10.483   7.166  11.985 -1.2733 -0.3509 -0.9374
47499SOL     OW48459   6.585   6.776   1.502  0.3699  0.1044  0.0352
47499SOL    HW148460   6.552   6.725   1.429  0.7991 -0.1831  0.0410
47499SOL    HW248461   6.625   6.712   1.561  3.7003  0.6778 -1.3893
47500SOL     OW48462   9.609   3.164  11.106 -0.3716 -0.4289 -0.2661
47500SOL    HW148463   9.657   3.085  11.130  0.4797  1.1929  4.4813
47500SOL    HW248464   9.677   3.228  11.084 -0.7718  0.1292  0.0968
47501SOL     OW48465   5.905   5.024   7.641  0.5833  0.3418 -0.4206
47501SOL    HW148466   5.941   5.016   7.729  1.2746 -0.5450 -0.7678
47501SOL    HW248467   5.981   5.023   7.583  0.0473 -1.6761 -1.1699
47502SOL     OW48468   3.762   4.306   1.671 -0.0731  0.0463  0.5021
47502SOL    HW148469   3.709   4.375   1.711 -2.2014 -0.3704 -1.4067
47502SOL    HW248470   3.815   4.272   1.743  0.5465  3.1409  1.6531
47503SOL     OW48471   4.112   3.724   1.212  0.1547  0.2293 -0.2648
47503SOL    HW148472   4.154   3.722   1.298 -1.3840 -0.6322  0.5050
47503SOL    HW248473   4.136   3.809   1.175 -0.7523  1.4808  1.8462
47504SOL     OW48474  10.143   8.347   2.235  0.5496  0.0274 -0.1588
47504SOL    HW148475  10.226   8.370   2.194 -0.0960  1.9689 -0.4563
47504SOL    HW248476  10.102   8.431   2.256 -0.5370 -0.8958  1.6428
47505SOL     OW48477   8.737   6.940   4.774 -0.2373  0.0287  0.3939
47505SOL    HW148478   8.805   6.979   4.828  0.5912  1.1003 -1.3477
47505SOL    HW248479   8.744   6.846   4.791 -0.1768  0.3246  2.2750
47506SOL     OW48480  10.592   0.212   0.068  0.1484 -0.5104  0.0414
47506SOL    HW148481  10.640   0.130   0.062  1.7492  0.3376  0.6979
47506SOL    HW248482  10.648   0.269   0.120 -1.3373  0.7205  0.3763
47507SOL     OW48483   5.506   4.844   9.173  0.9012  0.4028  0.0744
47507SOL    HW148484   5.500   4.916   9.110  3.1071  0.7845  0.2299
47507SOL    HW248485   5.587   4.799   9.150  0.8307 -0.5317  1.5359
47508SOL     OW48486  12.429  10.490   8.473 -0.2078  0.3352  0.5079
47508SOL    HW148487  12.507  10.479   8.419  0.5557  0.1105  1.6169
47508SOL    HW248488  12.389  10.403   8.476 -2.1095  0.9835 -2.3313
47509SOL     OW48489  12.433   2.229   0.453 -0.0464  0.1530 -0.3633
47509SOL    HW148490  12.387   2.304   0.414  0.2843  0.7217  0.3239
47509SOL    HW248491  12.471   2.184   0.379 -0.3078  0.6283 -0.7989
47510SOL     OW48492   0.417   1.907   8.655 -0.2661  0.3247  0.0993
47510SOL    HW148493   0.413   1.926   8.749 -0.3320  0.8508 -0.0074
47510SOL    HW248494   0.370   1.980   8.614  0.2465  0.3855 -0.3819
47511SOL     OW48495   0.753   4.929   3.665  0.1740 -0.1647  0.0793
47511SOL    HW148496   0.801   5.006   3.635  1.3831 -0.9797 -0.1775
47511SOL    HW248497   0.795   4.905   3.748 -0.6366 -0.1562  0.5025
47512SOL     OW48498  10.042  11.632   0.718 -0.0618 -0.1637  0.0570
47512SOL    HW148499   9.978  11.586   0.664  1.2724 -0.8845 -0.9604
47512SOL    HW248500  10.080  11.564   0.774 -0.1098  0.2410  0.5954
47513SOL     OW48501  10.868   8.074  10.513 -0.1876  0.2958 -0.6693
47513SOL    HW148502  10.887   8.087  10.606 -0.3822  0.8469 -0.6976
47513SOL    HW248503  10.774   8.092  10.505 -0.1718  0.2565 -0.9723
47514SOL     OW48504   3.108  11.088   3.912 -0.6452 -0.1505 -0.1688
47514SOL    HW148505   3.039  11.057   3.853  0.1925 -1.4674 -0.4848
47514SOL    HW248506   3.188  11.081   3.861 -0.3562  2.4454 -0.2013
47515SOL     OW48507   7.392   8.329   1.135 -0.0358  0.3792 -0.5314
47515SOL    HW148508   7.405   8.321   1.041  1.5397 -0.5252 -0.2804
47515SOL    HW248509   7.390   8.239   1.167  1.9089  0.6610  0.5464
47516SOL     OW48510   4.754   4.943   2.100 -0.3919  0.2874 -0.2469
47516SOL    HW148511   4.675   4.952   2.154 -1.1125  0.0069 -1.2362
47516SOL    HW248512   4.795   4.862   2.132 -1.1708 -0.2396 -0.5453
47517SOL     OW48513   0.836   1.765   2.073  0.2206  0.0673 -0.1853
47517SOL    HW148514   0.812   1.715   1.995 -1.0449 -1.2021  0.9668
47517SOL    HW248515   0.911   1.717   2.109  0.4348  0.3142 -0.3013
47518SOL     OW48516   8.105   4.652  12.210 -0.1669  0.5661 -0.3558
47518SOL    HW148517   8.033   4.602  12.172  0.2129  0.4444 -0.9113
47518SOL    HW248518   8.061   4.726  12.254 -0.5844  0.9951 -1.4527
47519SOL     OW48519   4.033  10.069   1.618 -0.5311  0.2535  0.0248
47519SOL    HW148520   4.005  10.155   1.586  0.1648  0.1785 -0.8296
47519SOL    HW248521   4.107  10.087   1.675 -1.8102  0.3916  1.7104
47520SOL     OW48522   7.795   6.470   4.006 -0.6256  0.2653  0.9269
47520SOL    HW148523   7.796   6.426   4.091 -2.8052  1.1775  1.4975
47520SOL    HW248524   7.829   6.405   3.944  1.3467 -0.2967  2.5066
47521SOL     OW48525   4.895  10.620   0.035 -0.6103 -0.4013 -0.1790
47521SOL    HW148526   4.945  10.684  -0.016  1.5886 -2.5475 -0.9307
47521SOL    HW248527   4.836  10.673   0.088 -0.0223  2.1491 -1.8559
47522SOL     OW48528   5.199   0.148   8.427  0.3616 -0.8794 -0.3628
47522SOL    HW148529   5.289   0.149   8.458 -0.5638 -0.7785  2.5906
47522SOL    HW248530   5.146   0.175   8.502 -2.3917 -3.6461 -1.0727
47523SOL     OW48531  12.339   8.204   5.398  0.3751  0.0607 -0.3813
47523SOL    HW148532  12.398   8.226   5.326  0.7544  3.3950  0.7394
47523SOL    HW248533  12.254   8.236   5.370  0.1074 -0.4061 -0.1124
47524SOL     OW48534   8.411   3.704  11.607 -0.0058 -0.3515 -0.4200
47524SOL    HW148535   8.480   3.728  11.669 -1.6542  1.7210  0.7477
47524SOL    HW248536   8.415   3.771  11.539 -0.8337 -0.2096 -0.3429
47525SOL     OW48537   8.130   8.960   4.749 -0.2411  0.2459  0.1424
47525SOL    HW148538   8.223   8.976   4.763 -0.2659 -0.4337  1.2579
47525SOL    HW248539   8.120   8.866   4.765 -1.1312  0.3332  0.1225
47526SOL     OW48540   4.192  10.483   1.364 -0.4436  0.2279  0.7406
47526SOL    HW148541   4.184  10.496   1.269  0.7524 -0.2079  0.5557
47526SOL    HW248542   4.277  10.441   1.374  1.0995  3.3644  2.2700
47527SOL     OW48543   3.602   6.228  10.089  0.1182 -0.7911 -0.4106
47527SOL    HW148544   3.525   6.233  10.032  0.4016 -0.8003 -0.7999
47527SOL    HW248545   3.658   6.300  10.059 -0.9934  1.1551  1.7836
47528SOL     OW48546   0.119  10.962   6.144  0.0966  0.6709 -0.2199
47528SOL    HW148547   0.146  11.000   6.060  0.5979  0.9190  0.0473
47528SOL    HW248548   0.140  11.030   6.208  2.5919 -0.6465  0.4909
47529SOL     OW48549   5.401  12.161   8.789  0.5696 -0.0762  0.8457
47529SOL    HW148550   5.366  12.136   8.875 -1.4959  1.0678  0.4041
47529SOL    HW248551   5.368  12.250   8.775  2.3356  0.4235 -0.3934
47530SOL     OW48552   2.794  11.343  12.064  0.9405  0.4937 -0.0519
47530SOL    HW148553   2.844  11.262  12.061  1.6569  0.9536 -0.7033
47530SOL    HW248554   2.729  11.329  12.133  0.8721 -0.7353 -0.3469
47531SOL     OW48555  11.018  12.149   0.527 -0.0600 -0.1499 -0.0320
47531SOL    HW148556  11.085  12.218   0.518  0.2325 -0.7359 -4.0907
47531SOL    HW248557  11.063  12.077   0.571  0.6774  0.9368  1.0559
47532SOL     OW48558   8.535   5.844  11.689  0.8743 -0.6216 -0.3809
47532SOL    HW148559   8.510   5.753  11.671  1.4454 -0.6226 -1.2544
47532SOL    HW248560   8.517   5.856  11.782  0.2751 -1.4619 -0.3788
47533SOL     OW48561   8.072   5.458   0.111  0.2126 -0.0166  0.6310
47533SOL    HW148562   8.057   5.395   0.183  0.3569  0.4121  1.0400
47533SOL    HW248563   8.159   5.436   0.078 -0.9378 -2.0717 -1.3067
47534SOL     OW48564  10.111   0.140   1.312 -0.4144 -0.2083  0.4584
47534SOL    HW148565  10.079   0.130   1.222  0.1827  0.7552  0.1277
47534SOL    HW248566  10.197   0.180   1.302 -0.6169  0.5168  1.4799
47535SOL     OW48567  10.337  11.028  11.021  0.1128 -0.4143  0.5016
47535SOL    HW148568  10.310  10.952  10.969 -0.5502 -0.4396  0.8787
47535SOL    HW248569  10.261  11.087  11.020 -0.2194 -0.7665  2.0918
47536SOL     OW48570   8.930  11.786  10.720 -0.2877  0.2941  0.1357
47536SOL    HW148571   9.009  11.818  10.762 -0.3930  0.3797  0.2682
47536SOL    HW248572   8.898  11.716  10.777  0.5919 -0.8634 -0.7597
47537SOL     OW48573  10.060  11.284  11.622  0.6702 -0.3266 -0.3098
47537SOL    HW148574  10.026  11.365  11.585  2.2420 -0.8899 -3.3032
47537SOL    HW248575   9.990  11.220  11.607  0.3467 -0.0421 -0.0444
47538SOL     OW48576   2.660   0.517   3.874 -0.3298 -0.2352 -0.2447
47538SOL    HW148577   2.701   0.476   3.950 -0.7391 -0.1403  0.0300
47538SOL    HW248578   2.699   0.605   3.870 -1.0001  0.1149  0.4371
47539SOL     OW48579   1.610   8.152   4.014 -0.0321  0.2825 -0.3452
47539SOL    HW148580   1.559   8.178   3.937  0.3411 -0.1711 -0.7479
47539SOL    HW248581   1.700   8.177   3.993  0.0381  0.3597  0.0397
47540SOL     OW48582   8.036   3.310   6.770 -0.2914 -0.3032 -0.6132
47540SOL    HW148583   7.974   3.239   6.787  0.9919 -1.8279 -2.0088
47540SOL    HW248584   8.056   3.302   6.677  1.3010  0.7300 -0.3901
47541SOL     OW48585   1.565   5.849   0.099  0.3262  0.0107 -0.6002
47541SOL    HW148586   1.502   5.882   0.163  1.2052  3.5499 -1.3355
47541SOL    HW248587   1.593   5.765   0.134 -3.4832 -0.9476  0.5864
47542SOL     OW48588   5.363   5.739   4.031 -0.3577  0.1113  0.1758
47542SOL    HW148589   5.377   5.663   4.087  0.5819  0.3693  0.3019
47542SOL    HW248590   5.405   5.716   3.947  0.0637  0.5398  0.2638
47543SOL     OW48591  11.990   7.200   6.142  0.0058  0.3689  0.5282
47543SOL    HW148592  11.982   7.144   6.065 -0.2507  1.6626 -0.4295
47543SOL    HW248593  12.026   7.282   6.108  2.4927  0.0928  2.2237
47544SOL     OW48594  10.864   4.285   8.462  0.2829  0.0442  0.4335
47544SOL    HW148595  10.858   4.287   8.367 -0.3970  1.8499  0.4629
47544SOL    HW248596  10.795   4.225   8.490 -0.3175  0.4349 -0.1848
47545SOL     OW48597  10.126   4.826   4.353 -0.3277 -0.0244  0.4353
47545SOL    HW148598  10.176   4.802   4.275  1.5839  2.0596  0.8871
47545SOL    HW248599  10.140   4.754   4.414 -0.1250 -0.7241 -0.4286
47546SOL     OW48600   3.209   0.967   6.796  0.4784  0.0975 -0.2865
47546SOL    HW148601   3.218   0.891   6.738  1.2219  0.8284 -1.1656
47546SOL    HW248602   3.132   0.948   6.849 -0.4269 -0.4652 -1.7319
47547SOL     OW48603   3.830   0.307   6.669  0.6557 -0.2424 -0.0089
47547SOL    HW148604   3.773   0.309   6.592 -0.9260  1.7437  1.1335
47547SOL    HW248605   3.918   0.307   6.633 -0.0369  0.6442 -1.8352
47548SOL     OW48606   6.473  11.379   2.984 -0.2513 -0.0518  0.2554
47548SOL    HW148607   6.477  11.296   3.031  0.0914 -0.5956 -0.7110
47548SOL    HW248608   6.402  11.427   3.026 -1.2044 -1.2907  0.0951
47549SOL     OW48609   7.153   3.624   8.799  0.3592  0.1976  0.5109
47549SOL    HW148610   7.068   3.585   8.779  1.0769 -0.5252 -1.3403
47549SOL    HW248611   7.202   3.553   8.841  1.1143 -0.4566 -1.3858
47550SOL     OW48612   1.789   6.800   1.512  0.7547 -0.1831  0.0957
47550SOL    HW148613   1.854   6.850   1.463  0.9396 -1.0923 -0.6027
47550SOL    HW248614   1.813   6.814   1.604  1.9280 -0.4768 -0.1476
47551SOL     OW48615   1.620   6.389   1.155  0.5109 -0.6269 -0.1262
47551SOL    HW148616   1.567   6.353   1.226  0.5521 -1.1217 -0.3431
47551SOL    HW248617   1.564   6.383   1.078  0.0796  0.8475  0.0349
47552SOL     OW48618  11.235   8.739   0.219 -0.3091  0.3190 -0.4113
47552SOL    HW148619  11.263   8.650   0.197 -1.0247 -0.0509  0.1394
47552SOL    HW248620  11.153   8.728   0.267 -0.2014  1.2536  0.0195
47553SOL     OW48621   1.348   6.143   2.971  1.0165 -0.5945 -0.6024
47553SOL    HW148622   1.295   6.132   3.049  1.0328 -1.0815 -0.6554
47553SOL    HW248623   1.433   6.106   2.994  0.4397 -2.6182 -1.4837
47554SOL     OW48624   2.987   6.004   3.332  0.3104  0.1351  0.2053
47554SOL    HW148625   3.017   6.016   3.242  1.6851 -1.0510  0.4789
47554SOL    HW248626   2.932   6.081   3.349  1.9834  1.6539 -0.8449
47555SOL     OW48627   7.120   6.800  11.820  0.4071 -0.0205  0.0611
47555SOL    HW148628   7.100   6.854  11.743 -0.6490  1.6004  1.3895
47555SOL    HW248629   7.169   6.858  11.878  0.6235 -1.0038  0.8923
47556SOL     OW48630  11.073  10.771  10.527 -0.6548  0.0395 -0.3261
47556SOL    HW148631  10.995  10.783  10.582 -0.5091  0.2219 -0.1574
47556SOL    HW248632  11.039  10.743  10.442 -0.7650 -2.5895  0.5139
47557SOL     OW48633   8.465   9.849   7.529  0.4686 -0.3038  0.1298
47557SOL    HW148634   8.560   9.855   7.520  0.3190 -0.0773 -1.7528
47557SOL    HW248635   8.437   9.800   7.452 -0.9718 -0.0047  0.4351
47558SOL     OW48636   9.991   8.744   6.665  0.4208  0.2505  0.1567
47558SOL    HW148637   9.899   8.756   6.691  0.4121 -0.6198  0.5691
47558SOL    HW248638  10.008   8.815   6.604 -0.5473  0.3979  0.0434
47559SOL     OW48639  11.791   9.135   9.708 -0.1182 -0.6555  0.7097
47559SOL    HW148640  11.735   9.211   9.690 -0.1918 -0.6087  1.1280
47559SOL    HW248641  11.731   9.060   9.708  0.0300 -0.7922 -0.2264
47560SOL     OW48642  11.843   5.162  12.077 -0.0402 -0.7669 -0.2622
47560SOL    HW148643  11.807   5.113  12.003  0.4974  0.8525 -1.6735
47560SOL    HW248644  11.928   5.122  12.095 -0.3984 -1.4949 -0.1704
47561SOL     OW48645   3.438   3.115   7.688 -0.2648  0.2731  0.4054
47561SOL    HW148646   3.516   3.167   7.706  1.0092 -1.1073 -0.7878
47561SOL    HW248647   3.413   3.139   7.599 -1.8085  1.3837  1.1015
47562SOL     OW48648   1.830   4.523   1.028 -0.3840  0.2332 -0.1017
47562SOL    HW148649   1.816   4.528   0.933  2.4985 -0.3308 -0.6472
47562SOL    HW248650   1.866   4.609   1.051 -0.3504  0.1029  0.3384
47563SOL     OW48651   5.207  12.099  12.099 -0.0171 -0.1668 -0.5631
47563SOL    HW148652   5.211  12.128  12.190  0.1533  1.0826 -0.9536
47563SOL    HW248653   5.260  12.162  12.051  0.4370 -1.1970 -1.4489
47564SOL     OW48654   7.298   8.532  11.938 -0.6560  0.6699  0.0290
47564SOL    HW148655   7.369   8.494  11.989 -0.2431  1.3624 -0.0206
47564SOL    HW248656   7.330   8.619  11.912 -0.8204  0.2995 -1.4898
47565SOL     OW48657   1.942   5.989   5.730 -0.0137  0.2981 -0.2331
47565SOL    HW148658   1.963   5.913   5.675  1.9707  0.0541  0.7750
47565SOL    HW248659   1.957   6.064   5.672 -0.8354 -0.0290 -0.8861
47566SOL     OW48660   6.273   5.174   6.179  0.3640  0.8749  0.4044
47566SOL    HW148661   6.278   5.079   6.166  0.2532  0.9782 -0.4729
47566SOL    HW248662   6.352   5.207   6.135  1.8542  1.0033  2.9595
47567SOL     OW48663  12.302   7.455   1.629  0.0682  0.2838 -0.3821
47567SOL    HW148664  12.382   7.405   1.611  0.3594  0.7867 -0.4849
47567SOL    HW248665  12.278   7.494   1.545 -0.6184 -0.3264 -0.4898
47568SOL     OW48666   3.575   3.885   9.454 -0.0166 -0.2661  0.4631
47568SOL    HW148667   3.613   3.875   9.366 -2.3749  0.5411 -0.7418
47568SOL    HW248668   3.492   3.931   9.439 -1.5811 -2.0478  2.8384
47569SOL     OW48669   1.144  10.303   9.317  0.2204 -0.3292  0.1663
47569SOL    HW148670   1.223  10.285   9.267  1.4116  1.0246  1.4864
47569SOL    HW248671   1.115  10.217   9.347  0.8770 -0.8965 -0.7569
47570SOL     OW48672   9.391  10.831   7.322 -0.1224 -0.1428 -0.6491
47570SOL    HW148673   9.470  10.779   7.330  1.4215  1.6186 -3.0015
47570SOL    HW248674   9.336  10.783   7.260 -0.0383 -0.4229 -0.5043
47571SOL     OW48675   7.189   1.979   7.186 -0.2008  0.5426 -0.0357
47571SOL    HW148676   7.239   1.905   7.151  0.1974  0.6527  0.2868
47571SOL    HW248677   7.130   1.940   7.251 -0.7805  0.3677 -0.6613
47572SOL     OW48678  11.068   9.636   6.611 -0.3076  0.0618 -0.0406
47572SOL    HW148679  11.042   9.668   6.698  0.4299  0.3798  0.0731
47572SOL    HW248680  11.158   9.605   6.623 -0.7788 -1.4904 -0.3060
47573SOL     OW48681   4.408   1.581   7.941  0.4018 -0.2643  0.0865
47573SOL    HW148682   4.491   1.565   7.985  0.7299 -3.6867 -1.5035
47573SOL    HW248683   4.427   1.652   7.879  1.7748 -0.1787  0.5838
47574SOL     OW48684  12.241   1.663  11.374 -0.2984  0.1367  0.0909
47574SOL    HW148685  12.318   1.715  11.352 -0.4481  0.6730  0.7774
47574SOL    HW248686  12.271   1.601  11.441 -0.8712  1.7118  1.9071
47575SOL     OW48687   9.081   5.032   9.961  0.0293 -0.0035 -0.0707
47575SOL    HW148688   9.135   5.042  10.040 -0.3895  1.1247  0.1053
47575SOL    HW248689   9.085   5.118   9.919 -1.7683  0.1927  0.0646
47576SOL     OW48690   3.196  12.299  10.071  0.2104  0.0652 -0.0964
47576SOL    HW148691   3.152  12.332   9.994  0.1586 -1.8417 -0.9433
47576SOL    HW248692   3.127  12.290  10.137 -0.3626 -1.2347 -0.8493
47577SOL     OW48693  10.236  12.217  10.313  0.0763  0.2032  0.0149
47577SOL    HW148694  10.200  12.128  10.307 -0.4275  0.2923  1.4272
47577SOL    HW248695  10.262  12.238  10.223  0.1297 -1.3389 -0.3650
47578SOL     OW48696   8.587   2.952   4.604  0.1890 -0.4010  0.8782
47578SOL    HW148697   8.584   2.993   4.518 -1.4352 -1.8384  0.1663
47578SOL    HW248698   8.529   3.005   4.659  1.7988  0.9498  1.3532
47579SOL     OW48699   5.113   9.582   8.892 -0.2736 -0.0342 -0.2054
47579SOL    HW148700   5.067   9.661   8.864  0.3950  0.1014 -0.9386
47579SOL    HW248701   5.169   9.558   8.818  0.1918 -0.6933  0.3415
47580SOL     OW48702   9.613   3.199   7.308  0.0345 -0.2945 -0.6111
47580SOL    HW148703   9.641   3.119   7.352  1.6258  0.5518  0.0102
47580SOL    HW248704   9.648   3.191   7.219  0.7146 -0.0507 -0.3742
47581SOL     OW48705   0.421  11.869   0.083 -0.2605 -0.1541  0.2160
47581SOL    HW148706   0.499  11.870   0.026  0.9229 -1.7298  1.6925
47581SOL    HW248707   0.436  11.795   0.142 -3.3317 -1.0890 -0.0169
47582SOL     OW48708   8.904   0.342   8.916 -0.1082  0.3725  0.6102
47582SOL    HW148709   8.872   0.272   8.972  0.6603  0.2337  0.8860
47582SOL    HW248710   8.997   0.348   8.936  0.5731 -0.8148 -1.8458
47583SOL     OW48711   8.222   3.465   0.256  0.6279  0.4181 -0.1308
47583SOL    HW148712   8.316   3.450   0.245  0.3513 -0.2563 -1.9264
47583SOL    HW248713   8.205   3.445   0.348  2.0015 -0.8147 -0.1029
47584SOL     OW48714   8.310   2.299   0.327 -0.5043 -0.3895 -0.3303
47584SOL    HW148715   8.397   2.281   0.293 -0.3869 -0.0944 -0.1939
47584SOL    HW248716   8.320   2.381   0.376 -0.5618 -1.0393  0.8081
47585SOL     OW48717   8.095   2.596   6.136  0.6538  0.0414 -0.3954
47585SOL    HW148718   8.159   2.552   6.080  0.7422 -0.9212  0.4382
47585SOL    HW248719   8.146   2.630   6.209  0.0824 -2.1214  1.1222
47586SOL     OW48720   6.441   9.667  11.503 -0.4073  0.8518 -0.1058
47586SOL    HW148721   6.364   9.664  11.447 -0.4956 -0.7065  0.0554
47586SOL    HW248722   6.416   9.723  11.577 -2.2807 -1.4749  1.1671
47587SOL     OW48723   7.933   2.535  10.443 -0.2273  0.4053  0.1224
47587SOL    HW148724   7.892   2.559  10.526 -0.6896 -0.8741  0.2945
47587SOL    HW248725   7.909   2.606  10.383 -1.4276  0.4551  0.6179
47588SOL     OW48726   7.110   6.797   0.895  0.0199 -0.4101 -0.3444
47588SOL    HW148727   7.075   6.861   0.833 -1.1242 -2.0939 -1.5051
47588SOL    HW248728   7.113   6.844   0.978 -1.4611  0.9243 -0.9923
47589SOL     OW48729  10.758   0.048  10.353 -0.0333  0.3065  0.2834
47589SOL    HW148730  10.746   0.129  10.403  0.9361 -1.3719  3.5994
47589SOL    HW248731  10.853   0.038  10.347 -0.0950 -1.2416  1.2771
47590SOL     OW48732   0.599   7.804   7.497 -0.3980 -0.4917 -0.1410
47590SOL    HW148733   0.557   7.890   7.497 -0.9350 -0.7356  0.9850
47590SOL    HW248734   0.594   7.774   7.406  0.4576  0.9707 -0.6886
47591SOL     OW48735   1.020  11.737   4.030 -0.1672  0.0688  0.4531
47591SOL    HW148736   1.090  11.801   4.013 -0.9939  0.4483 -1.8240
47591SOL    HW248737   0.939  11.788   4.027 -0.6532 -0.5381  2.0626
47592SOL     OW48738   0.601   9.075   9.637 -0.9834  0.0761  0.3314
47592SOL    HW148739   0.670   9.140   9.629 -1.4915  0.4970 -0.9529
47592SOL    HW248740   0.589   9.063   9.731 -0.4033  1.3181  0.5750
47593SOL     OW48741  10.110  11.446   0.912 -0.0482 -0.1978 -0.1874
47593SOL    HW148742  10.153  11.367   0.944 -1.3813 -0.7087  0.4106
47593SOL    HW248743  10.157  11.517   0.956 -0.3391 -0.7752  1.1138
47594SOL     OW48744   6.443   1.987  10.116  0.4330 -0.0393 -0.8841
47594SOL    HW148745   6.440   2.075  10.079  0.5657  0.5677  0.4640
47594SOL    HW248746   6.418   1.929  10.045  1.7408  0.9588 -2.2229
47595SOL     OW48747   7.209   5.792  12.151  0.1789  0.2690 -0.3542
47595SOL    HW148748   7.242   5.823  12.067  1.4299  0.0397  0.0277
47595SOL    HW248749   7.281   5.809  12.213 -0.6057  0.1836  0.6169
47596SOL     OW48750   2.281   8.344   0.138 -0.2858  0.2311 -0.5659
47596SOL    HW148751   2.323   8.286   0.075 -1.4574  0.0552 -1.2101
47596SOL    HW248752   2.354   8.389   0.181  0.6394 -1.6468 -0.0812
47597SOL     OW48753  11.230   7.749   6.750 -0.1594 -0.0924  0.2553
47597SOL    HW148754  11.190   7.667   6.720 -0.3589  0.4906 -1.1655
47597SOL    HW248755  11.196   7.815   6.690  2.4329  0.5552 -0.6344
47598SOL     OW48756   6.199   0.459   6.491 -0.1374  0.1270 -0.1098
47598SOL    HW148757   6.167   0.523   6.427 -0.8279  0.9976  1.0549
47598SOL    HW248758   6.153   0.483   6.572  1.0173 -0.6891  0.8033
47599SOL     OW48759   2.382   0.613   4.862 -0.8134  0.7268 -0.7929
47599SOL    HW148760   2.465   0.601   4.907 -1.3726 -3.4848 -0.4787
47599SOL    HW248761   2.398   0.581   4.773 -1.9776  0.0732 -0.7874
47600SOL     OW48762   5.439  12.206  10.991 -0.4458 -0.1665  0.2255
47600SOL    HW148763   5.379  12.175  11.059 -1.6921  0.7489 -0.4293
47600SOL    HW248764   5.467  12.292  11.020 -1.5194  0.5260 -0.7157
47601SOL     OW48765  10.434   0.476  10.345  0.2189  0.2037 -0.0354
47601SOL    HW148766  10.463   0.498  10.433 -1.1506 -0.4728  0.6008
47601SOL    HW248767  10.513   0.440  10.303  0.7984  0.1904  1.0227
47602SOL     OW48768   0.836   8.080   9.144 -0.6082 -0.1979  0.1879
47602SOL    HW148769   0.901   8.150   9.135  0.1435 -1.0568 -1.4741
47602SOL    HW248770   0.886   8.005   9.177 -1.3265 -0.0983  1.5626
47603SOL     OW48771   9.110  10.302   5.499  0.2483  0.2107 -0.1440
47603SOL    HW148772   9.196  10.272   5.471  0.8742 -1.8551  3.3704
47603SOL    HW248773   9.126  10.388   5.539  1.3870 -1.3324  3.0239
47604SOL     OW48774  10.558   1.765   2.815 -0.2467  0.2025  0.1674
47604SOL    HW148775  10.566   1.860   2.812  0.8290  0.1165  0.0796
47604SOL    HW248776  10.506   1.742   2.738  2.4350  0.4418 -1.8347
47605SOL     OW48777   0.572   8.042   1.097 -0.0639  0.1039  0.3129
47605SOL    HW148778   0.642   8.091   1.054  0.2987  1.2253  2.0929
47605SOL    HW248779   0.601   8.034   1.188 -1.2117 -1.4170  0.5833
47606SOL     OW48780   5.302   0.210   3.707  0.9639 -0.2044 -0.2335
47606SOL    HW148781   5.277   0.298   3.735 -1.5516 -0.5200 -1.2549
47606SOL    HW248782   5.320   0.163   3.788 -1.1561  0.3078  0.6061
47607SOL     OW48783   1.625   7.451  10.473  0.0110 -0.1731 -0.2942
47607SOL    HW148784   1.659   7.370  10.511  1.0273  1.6802  3.2006
47607SOL    HW248785   1.531   7.447  10.490 -0.0376 -0.8275 -0.6633
47608SOL     OW48786   8.739   0.264   3.881 -0.7751 -0.8059  0.3964
47608SOL    HW148787   8.825   0.306   3.884 -0.6981 -0.8116 -1.2005
47608SOL    HW248788   8.743   0.207   3.805 -2.2694 -0.6388  0.1669
47609SOL     OW48789   5.954  10.804  10.760  0.1213 -0.0174 -0.2773
47609SOL    HW148790   5.862  10.822  10.776 -0.1676 -0.9843 -0.7565
47609SOL    HW248791   5.977  10.737  10.825  0.8671  1.2016  0.7479
47610SOL     OW48792   5.305  11.338   2.157  0.0966 -0.3772 -0.2461
47610SOL    HW148793   5.329  11.252   2.122 -0.5203 -1.7011  2.3593
47610SOL    HW248794   5.340  11.400   2.093  1.3289 -2.5153 -1.7800
47611SOL     OW48795   1.864   6.655   9.809 -0.0544 -0.4999 -0.1526
47611SOL    HW148796   1.957   6.647   9.832  0.3407 -0.4960 -1.6713
47611SOL    HW248797   1.835   6.565   9.794 -0.4669 -0.5540  0.8827
47612SOL     OW48798   0.871   0.490  11.361  0.1943  0.3250 -0.0081
47612SOL    HW148799   0.836   0.546  11.291  0.6595  1.7678  0.8805
47612SOL    HW248800   0.854   0.539  11.441 -0.2998 -1.2887  0.9108
47613SOL     OW48801  11.893  12.448   6.667 -0.0190 -0.0918 -0.0379
47613SOL    HW148802  11.847  12.497   6.736  1.4235 -0.0473  0.9294
47613SOL    HW248803  11.984  12.478   6.673  0.5789 -1.7467 -0.4801
47614SOL     OW48804   6.939   5.097   6.965 -0.4427 -0.0969  0.3656
47614SOL    HW148805   6.909   5.124   7.052 -0.7952  0.2648  0.1299
47614SOL    HW248806   6.910   5.166   6.906  0.4114  0.0145  0.0549
47615SOL     OW48807   5.273   3.736   0.885  0.6280  0.8037 -0.0186
47615SOL    HW148808   5.194   3.687   0.907  0.6075  0.2802 -1.1659
47615SOL    HW248809   5.343   3.670   0.885  1.0198  1.2068  0.6872
47616SOL     OW48810   1.190   5.824   4.374 -0.5541  0.3203 -0.7570
47616SOL    HW148811   1.242   5.782   4.306 -1.2928 -1.1563 -0.4735
47616SOL    HW248812   1.131   5.755   4.404 -0.2120  0.8988  1.4228
47617SOL     OW48813   8.832   7.986   4.931  0.0423  0.6723 -0.4015
47617SOL    HW148814   8.914   7.950   4.900 -0.7225 -1.0696 -0.4903
47617SOL    HW248815   8.855   8.031   5.013  1.0444  0.0147 -0.3088
47618SOL     OW48816   6.789   4.067   3.255 -0.0257 -0.0639  0.0275
47618SOL    HW148817   6.844   4.065   3.333  0.5488 -1.0946 -0.3836
47618SOL    HW248818   6.817   3.991   3.204 -2.1725 -0.9578  0.0380
47619SOL     OW48819  10.387   7.991  12.009  0.8303 -0.5743 -0.1322
47619SOL    HW148820  10.409   7.899  11.999  0.1471 -0.6474 -1.1401
47619SOL    HW248821  10.456   8.037  11.960 -0.6673 -0.7624 -2.6030
47620SOL     OW48822   1.246  10.619   2.764 -0.5945  0.0599  0.4341
47620SOL    HW148823   1.333  10.580   2.758 -0.0228  0.9686  2.1179
47620SOL    HW248824   1.186  10.545   2.758  0.1234 -0.4012 -3.0146
47621SOL     OW48825   8.575   7.681   3.225  0.5897 -0.1829  0.4251
47621SOL    HW148826   8.591   7.732   3.305 -0.9395 -0.6851  1.0808
47621SOL    HW248827   8.543   7.597   3.256  0.2154 -0.4806 -0.7303
47622SOL     OW48828   2.606   1.753   4.658 -0.6742  0.9129  0.2491
47622SOL    HW148829   2.577   1.672   4.617  1.7125  0.5874 -0.9690
47622SOL    HW248830   2.598   1.819   4.589  1.6004  0.7433 -0.2623
47623SOL     OW48831   3.916  10.667   2.907 -0.1137 -0.3261  0.2028
47623SOL    HW148832   3.997  10.709   2.935  0.4651  0.0615 -1.9176
47623SOL    HW248833   3.900  10.600   2.974  2.3097 -0.8662  0.3455
47624SOL     OW48834   6.954   5.422   8.476  0.3309 -0.3144  0.1293
47624SOL    HW148835   7.024   5.461   8.423 -0.5298  1.0156 -0.0748
47624SOL    HW248836   6.990   5.338   8.504  1.4396 -0.3321 -1.2077
47625SOL     OW48837   0.339   5.301   5.622 -0.1635 -0.6594 -0.4847
47625SOL    HW148838   0.400   5.234   5.653 -0.5521 -1.4572 -1.3734
47625SOL    HW248839   0.291   5.328   5.700 -0.3351 -1.7892 -0.1778
47626SOL     OW48840   4.456   7.042   7.319 -0.4985  0.6622 -0.3358
47626SOL    HW148841   4.536   6.997   7.294 -1.2640 -0.5959 -0.5933
47626SOL    HW248842   4.486   7.119   7.367  0.8369 -0.3708  0.5648
47627SOL     OW48843   4.807   8.926   5.912 -0.8236  0.0590 -0.7498
47627SOL    HW148844   4.732   8.896   5.862  0.4668  0.8912 -3.3572
47627SOL    HW248845   4.862   8.849   5.922 -1.6575 -0.4008  0.5985
47628SOL     OW48846   5.335   5.514   4.499  0.4497 -0.0849 -0.4092
47628SOL    HW148847   5.419   5.505   4.544  1.3099  0.4077 -1.8583
47628SOL    HW248848   5.274   5.461   4.551  1.0297  1.5877  2.1560
47629SOL     OW48849   6.260   8.194  10.427  0.1252 -0.2074 -0.4295
47629SOL    HW148850   6.275   8.266  10.489 -0.5388 -0.6248  0.2298
47629SOL    HW248851   6.344   8.182  10.384  0.2086  1.0826 -0.6809
47630SOL     OW48852   2.445  10.882   1.734  0.2383  0.4587 -0.3807
47630SOL    HW148853   2.475  10.910   1.821 -0.6782 -0.3141  0.2014
47630SOL    HW248854   2.430  10.963   1.686  1.1790  0.8873  0.0290
47631SOL     OW48855  10.315   7.941   5.080  0.4105 -0.2392 -0.2028
47631SOL    HW148856  10.325   7.910   5.170  0.7457 -0.0138 -0.1636
47631SOL    HW248857  10.232   7.901   5.051  0.3356 -0.3694  0.1778
47632SOL     OW48858   1.520   9.722  11.473  0.0522 -0.4620  0.5101
47632SOL    HW148859   1.581   9.765  11.533 -2.0832  1.4906  1.4255
47632SOL    HW248860   1.476   9.657  11.528 -1.0184  0.4593  0.7692
47633SOL     OW48861   0.874   3.665   5.653 -0.3969 -0.8427  0.2514
47633SOL    HW148862   0.848   3.596   5.592 -1.0319  0.0757 -0.5534
47633SOL    HW248863   0.965   3.686   5.628 -0.8125 -0.1343 -0.7371
47634SOL     OW48864   1.189   3.916   9.060  0.0948  0.0759 -0.2242
47634SOL    HW148865   1.285   3.912   9.068  0.1082  1.5292  0.7279
47634SOL    HW248866   1.167   3.843   9.002  1.5467 -1.8203  1.4391
47635SOL     OW48867   2.861   7.188   2.671  0.9358  1.0250  0.0685
47635SOL    HW148868   2.909   7.109   2.645 -0.5977 -0.2474  0.9268
47635SOL    HW248869   2.860   7.185   2.766 -2.2707  0.0060  0.1285
47636SOL     OW48870  11.640  10.667   6.069 -0.2131 -0.5532 -0.2079
47636SOL    HW148871  11.675  10.756   6.068  2.4600 -1.4734  1.3927
47636SOL    HW248872  11.647  10.639   6.161 -3.3776 -1.6092 -0.1617
47637SOL     OW48873   8.128  12.394  11.037  0.7090  0.2798  0.1403
47637SOL    HW148874   8.135  12.354  11.124 -1.5187  0.2720  0.3689
47637SOL    HW248875   8.151  12.323  10.977 -2.9874 -1.4936  0.5420
47638SOL     OW48876   2.915   7.954   7.539  0.0108 -0.3076 -0.3260
47638SOL    HW148877   2.838   7.902   7.515 -0.1308 -0.7111  0.9342
47638SOL    HW248878   2.982   7.929   7.476 -0.8776  0.0385 -1.4341
47639SOL     OW48879   8.858  12.379   7.087  0.3546 -0.2761  0.2136
47639SOL    HW148880   8.794  12.378   7.158 -0.5175 -0.0001 -0.5450
47639SOL    HW248881   8.858  12.290   7.053  2.3941 -1.0121  1.9219
47640SOL     OW48882   1.364   0.641   4.707 -0.0220  0.0505 -0.1292
47640SOL    HW148883   1.376   0.677   4.619  0.5891 -1.0478 -0.5195
47640SOL    HW248884   1.311   0.562   4.693 -0.0910 -0.0214  0.5152
47641SOL     OW48885   5.158   5.637   6.684 -0.0243  0.4459  0.1054
47641SOL    HW148886   5.150   5.630   6.589 -0.2401 -1.7454  0.2385
47641SOL    HW248887   5.216   5.565   6.708 -1.1769  0.0269  1.7726
47642SOL     OW48888   8.458   6.382  12.239 -0.7476 -0.5829  0.3367
47642SOL    HW148889   8.472   6.309  12.178  0.3718  0.1535 -0.3279
47642SOL    HW248890   8.546   6.406  12.268 -1.1496  0.1394  0.9867
47643SOL     OW48891   2.599  10.379   3.345  0.1718 -0.0243 -0.0535
47643SOL    HW148892   2.511  10.354   3.318 -0.1677 -0.6839  1.5390
47643SOL    HW248893   2.587  10.416   3.433  1.4609  0.0770  0.1007
47644SOL     OW48894   8.461  11.393   2.180  0.0999 -0.7165 -0.0468
47644SOL    HW148895   8.517  11.316   2.176 -0.9511 -1.6214  1.3420
47644SOL    HW248896   8.487  11.446   2.105  2.2495 -1.4491  0.1076
47645SOL     OW48897   4.127   3.429   1.605  0.4180 -0.3873 -0.5807
47645SOL    HW148898   4.088   3.490   1.668  1.4242 -0.4691  0.1656
47645SOL    HW248899   4.067   3.355   1.603  0.8796 -0.8707  1.1603
47646SOL     OW48900  10.268   9.061  11.695  0.4309  0.0927 -0.4774
47646SOL    HW148901  10.287   9.014  11.614 -0.0739  0.4097 -0.7884
47646SOL    HW248902  10.224   9.141  11.666  0.3389  0.2547  0.1025
47647SOL     OW48903   9.967  10.911   6.911 -0.1945  0.1554 -0.0177
47647SOL    HW148904  10.033  10.947   6.852  0.5697  1.4717  1.5912
47647SOL    HW248905   9.887  10.907   6.858  1.1523 -1.7137 -2.0863
47648SOL     OW48906  11.632   9.885   5.573  0.0372  0.0930  0.2464
47648SOL    HW148907  11.632   9.793   5.596  0.3932 -0.2811 -1.1673
47648SOL    HW248908  11.689   9.891   5.496  0.0816  1.4976  0.3586
47649SOL     OW48909   8.396  10.523   9.107 -0.8455 -0.5659  0.2915
47649SOL    HW148910   8.430  10.596   9.057 -2.4157 -0.6376 -0.9768
47649SOL    HW248911   8.472  10.487   9.152  1.0892 -1.6149 -3.4056
47650SOL     OW48912  10.548  11.813  11.064 -0.2828  0.3645 -0.4530
47650SOL    HW148913  10.532  11.802  11.158  0.6967  0.1937 -0.2956
47650SOL    HW248914  10.607  11.741  11.041  1.9479  2.1098 -0.5295
47651SOL     OW48915  10.119  12.238   7.174  0.1800 -0.1129  0.4229
47651SOL    HW148916  10.074  12.179   7.113  0.1071  1.2500 -0.8988
47651SOL    HW248917  10.085  12.325   7.153  1.5996  0.6431  1.1002
47652SOL     OW48918   5.439   4.550   9.518  0.4511 -1.1733 -0.1734
47652SOL    HW148919   5.361   4.554   9.573 -0.6997  0.2657 -1.7940
47652SOL    HW248920   5.500   4.612   9.558  0.5366 -1.8308  0.7362
47653SOL     OW48921   6.397   4.878   9.512 -0.0873 -0.4724  0.0379
47653SOL    HW148922   6.426   4.933   9.585  1.0007 -0.2281 -0.5475
47653SOL    HW248923   6.439   4.794   9.528  1.7171  0.1154 -1.2387
47654SOL     OW48924  12.244   2.493   9.226 -0.4124 -0.3438  0.1883
47654SOL    HW148925  12.149   2.490   9.236 -0.4980 -0.4656 -0.5963
47654SOL    HW248926  12.259   2.526   9.137  0.2427 -1.5319 -0.1759
47655SOL     OW48927   7.947   9.484   7.348 -0.1608 -0.3255  0.1355
47655SOL    HW148928   7.970   9.575   7.365  0.4476 -0.4526  0.0282
47655SOL    HW248929   7.866   9.489   7.298  0.2442  0.1911 -0.4974
47656SOL     OW48930   6.390   0.502  10.409 -0.2807  0.1679 -0.0538
47656SOL    HW148931   6.434   0.419  10.387  0.5399  1.0619 -2.0561
47656SOL    HW248932   6.298   0.486  10.389  0.1367  0.2670 -2.3772
47657SOL     OW48933   3.376   9.404   3.995  0.0166  0.6139 -0.6716
47657SOL    HW148934   3.304   9.348   3.966  0.4869 -0.4087  0.0634
47657SOL    HW248935   3.336   9.462   4.059 -0.0622 -0.3660  0.2027
47658SOL     OW48936   5.904   6.318  11.925 -0.1684  0.0945  0.4622
47658SOL    HW148937   5.932   6.407  11.946 -1.0190  0.0655  1.8781
47658SOL    HW248938   5.984   6.272  11.900  0.6646  0.6454  1.9941
47659SOL     OW48939   3.975   5.257   3.750 -0.1348  0.6679 -0.2200
47659SOL    HW148940   3.989   5.261   3.655  3.0856  0.9579  0.1223
47659SOL    HW248941   4.012   5.340   3.782  0.1101 -0.0260  1.3617
47660SOL     OW48942   2.860  11.622   5.094 -0.0618 -0.4914  0.0630
47660SOL    HW148943   2.917  11.564   5.145 -0.3765 -0.6670  0.2141
47660SOL    HW248944   2.879  11.710   5.127  0.7198 -0.4560 -0.4481
47661SOL     OW48945  10.118   3.063   7.940 -0.0883 -0.1859  0.0090
47661SOL    HW148946  10.170   3.144   7.944  0.6171 -0.6000 -0.5661
47661SOL    HW248947  10.098   3.043   8.031  1.2902 -0.3476  0.3001
47662SOL     OW48948   5.329   9.684   4.903  0.0644  0.5405  0.1169
47662SOL    HW148949   5.289   9.610   4.949  0.1004  1.5312  1.8302
47662SOL    HW248950   5.403   9.647   4.856  0.9240 -0.3180  2.0675
47663SOL     OW48951   2.637  10.814   2.048  0.2905  0.5835  0.1530
47663SOL    HW148952   2.715  10.806   1.993  0.9045 -0.2704  1.1045
47663SOL    HW248953   2.577  10.867   1.996  1.0686  0.3124 -1.0824
47664SOL     OW48954  10.123   6.429   9.590  0.0895  0.3132 -0.1726
47664SOL    HW148955  10.166   6.346   9.614  0.3434 -0.1293 -2.0427
47664SOL    HW248956  10.076   6.410   9.509 -0.6850  1.7559 -0.0973
47665SOL     OW48957   1.946   6.140   7.992 -0.2709  0.2516  0.4562
47665SOL    HW148958   1.886   6.109   7.924  1.4598  0.1512 -1.0902
47665SOL    HW248959   1.983   6.059   8.029 -0.0786  0.3500  0.4769
47666SOL     OW48960   9.868   2.514   8.524 -0.0966  0.4339 -0.1424
47666SOL    HW148961   9.894   2.453   8.593 -1.8116 -0.0659  0.0857
47666SOL    HW248962   9.801   2.468   8.474 -1.3434  2.0403 -0.0411
47667SOL     OW48963  10.445   5.441   4.653 -0.0128 -0.0539  0.7149
47667SOL    HW148964  10.407   5.433   4.740 -0.7610 -1.6299  0.2936
47667SOL    HW248965  10.539   5.429   4.666 -0.0372  0.4487  1.3757
47668SOL     OW48966   1.985   6.540   4.876 -0.0963  0.2583 -0.1556
47668SOL    HW148967   2.015   6.541   4.785  0.6774 -1.1927  0.0500
47668SOL    HW248968   1.965   6.448   4.894  0.8202  0.3381  1.4716
47669SOL     OW48969  11.075   7.766   1.369 -0.0165  0.3637 -0.5191
47669SOL    HW148970  11.072   7.670   1.362  1.3305  0.1979  0.6538
47669SOL    HW248971  10.984   7.794   1.359 -0.2818 -0.9393 -2.0121
47670SOL     OW48972   5.367  11.388  12.157 -0.2792  0.3127  1.1637
47670SOL    HW148973   5.283  11.427  12.180 -0.8980 -1.4361  2.1100
47670SOL    HW248974   5.419  11.393  12.238  0.7907  1.8883  0.4362
47671SOL     OW48975   0.210   4.566   8.008  0.2250  0.2458 -0.5137
47671SOL    HW148976   0.127   4.529   8.040  0.5529  0.6610  0.8839
47671SOL    HW248977   0.223   4.524   7.923 -1.5408  0.3625 -0.8904
47672SOL     OW48978   5.110   1.713  12.375 -0.0433  0.6194 -0.0369
47672SOL    HW148979   5.168   1.637  12.373 -2.6563 -1.5145 -0.7720
47672SOL    HW248980   5.107   1.743  12.284  0.1206  0.9079  0.0517
47673SOL     OW48981   6.892   4.876   9.442  0.1364  0.5849  0.3398
47673SOL    HW148982   6.953   4.919   9.382  0.2439 -0.1240 -0.0639
47673SOL    HW248983   6.896   4.784   9.419 -1.1214  0.5222  0.2609
47674SOL     OW48984   1.072  10.697   9.565  0.0345 -0.8338 -0.3803
47674SOL    HW148985   1.141  10.664   9.622  1.3007 -0.4109 -1.5972
47674SOL    HW248986   1.119  10.733   9.490 -1.4477  0.7508 -0.6062
47675SOL     OW48987   3.366  11.550   0.019  0.1012 -0.4565 -0.0182
47675SOL    HW148988   3.394  11.619   0.079 -0.1477 -0.7305  0.4199
47675SOL    HW248989   3.395  11.579  -0.067 -0.0989  0.2405  0.1482
47676SOL     OW48990   4.022   2.668   0.939  0.3541  0.0291 -0.0072
47676SOL    HW148991   4.015   2.761   0.917  1.1999 -0.0530 -0.6733
47676SOL    HW248992   3.997   2.663   1.031 -1.0545  0.7096 -0.3389
47677SOL     OW48993   8.743   8.516   8.844  0.2880  0.1162  0.1424
47677SOL    HW148994   8.768   8.577   8.774  2.2819 -1.1869 -0.3337
47677SOL    HW248995   8.807   8.531   8.913  1.0224 -1.6359 -0.1124
47678SOL     OW48996   2.813   5.605  11.359  0.1438  0.6576  0.1001
47678SOL    HW148997   2.827   5.548  11.284  0.3239 -2.2666  2.1635
47678SOL    HW248998   2.780   5.546  11.428  0.1825  3.1068  2.3712
47679SOL     OW48999   7.088   8.942  12.385 -0.7560  0.5618  0.0249
47679SOL    HW149000   7.169   8.984  12.357 -1.5106  1.9784 -0.0927
47679SOL    HW249001   7.108   8.910  12.473 -0.1213  1.0540  0.0703
47680SOL     OW49002   3.934  12.308  12.257  0.7033 -0.1206 -0.0862
47680SOL    HW149003   3.999  12.290  12.190  0.0464  0.1204 -0.8020
47680SOL    HW249004   3.941  12.234  12.318  1.9543  0.1333  0.1064
47681SOL     OW49005  11.617   2.612   7.830  0.4012  0.0971 -0.4569
47681SOL    HW149006  11.588   2.521   7.838  1.0114 -0.2069 -1.5259
47681SOL    HW249007  11.606   2.648   7.918  2.2087 -1.6514  0.5712
47682SOL     OW49008   4.698   3.257   8.872 -0.5046 -0.0074 -0.2220
47682SOL    HW149009   4.649   3.192   8.820 -0.2077 -0.1404 -0.3362
47682SOL    HW249010   4.776   3.275   8.820 -1.7893  2.3837 -1.4632
47683SOL     OW49011   5.147   9.900   7.307 -0.1085  0.1585 -0.3437
47683SOL    HW149012   5.053   9.892   7.324 -0.0652  0.9808  0.3069
47683SOL    HW249013   5.154   9.971   7.244  0.1888  1.2431  0.8784
47684SOL     OW49014   7.127   2.622  10.511  0.1909 -0.3299 -0.0166
47684SOL    HW149015   7.032   2.630  10.516  0.3124  0.6519  1.2396
47684SOL    HW249016   7.157   2.636  10.601  1.5476 -0.3029 -0.4453
47685SOL     OW49017   1.219   8.142   2.758 -0.6476 -0.9861  0.2063
47685SOL    HW149018   1.224   8.109   2.848  0.2945 -0.9650  0.1617
47685SOL    HW249019   1.191   8.066   2.707 -1.9919 -0.8059  0.6076
47686SOL     OW49020   8.080  11.654   5.583  0.0756 -0.3427  0.7915
47686SOL    HW149021   8.162  11.611   5.608 -0.0834 -0.4418  1.1457
47686SOL    HW249022   8.077  11.734   5.636 -1.3285 -1.6235  2.8076
47687SOL     OW49023   6.337   3.086   2.433  0.2872  0.3193 -0.0282
47687SOL    HW149024   6.366   3.016   2.491 -0.8409 -1.3355 -1.3686
47687SOL    HW249025   6.256   3.118   2.473  0.8895  1.0361  0.6743
47688SOL     OW49026  10.363   2.489   3.218  0.2696 -0.3726 -0.3479
47688SOL    HW149027  10.383   2.445   3.135  0.7275 -0.5038 -0.1666
47688SOL    HW249028  10.320   2.570   3.191  0.6727 -0.2790 -0.7239
47689SOL     OW49029   2.999   9.706   9.147 -0.2649  0.3276 -0.0357
47689SOL    HW149030   3.008   9.649   9.224  0.3312 -0.4866 -0.6969
47689SOL    HW249031   3.022   9.793   9.180  0.3428 -0.0711  0.6284
47690SOL     OW49032   0.742   4.056   3.103  0.0575  0.7541 -0.2157
47690SOL    HW149033   0.736   4.147   3.133 -1.6543  0.7652 -0.4496
47690SOL    HW249034   0.817   4.019   3.149  0.1436  1.9964  0.6746
47691SOL     OW49035   6.749  12.277   5.510 -0.2807 -0.2639 -0.1127
47691SOL    HW149036   6.743  12.188   5.546  1.1088 -0.1875  0.3663
47691SOL    HW249037   6.774  12.331   5.584  0.3400  0.2845 -0.7139
47692SOL     OW49038  11.199  11.993   3.950 -0.1199 -0.5384 -0.2621
47692SOL    HW149039  11.275  11.997   3.892  0.5565 -0.6837  0.5806
47692SOL    HW249040  11.209  12.070   4.007 -0.2438 -0.9228  0.2852
47693SOL     OW49041   0.204   4.283   7.434  0.0234 -0.6115  0.6724
47693SOL    HW149042   0.233   4.267   7.523 -1.7164  0.7509  1.5508
47693SOL    HW249043   0.158   4.203   7.408  1.1099 -1.2632  0.7262
47694SOL     OW49044   8.458   7.647   8.276 -0.1902  0.6164  0.2448
47694SOL    HW149045   8.445   7.665   8.369  0.7737 -0.8437  0.6995
47694SOL    HW249046   8.401   7.572   8.258  0.7185 -0.0439  0.0416
47695SOL     OW49047   4.251   8.175  10.562 -0.5288  0.3737  0.0018
47695SOL    HW149048   4.275   8.082  10.558 -0.1049  0.4737  0.1465
47695SOL    HW249049   4.278   8.211  10.478 -1.0603  0.2866 -0.2131
47696SOL     OW49050   5.753   3.308   3.998  0.6883  0.0291  0.0117
47696SOL    HW149051   5.707   3.392   3.988  1.6591  0.6159  0.3260
47696SOL    HW249052   5.797   3.295   3.914 -0.2647 -0.6926 -0.4042
47697SOL     OW49053   4.443   0.039   8.186  0.1588 -0.4763 -0.1160
47697SOL    HW149054   4.503  -0.008   8.244  0.9461  1.1454  0.4287
47697SOL    HW249055   4.373   0.070   8.244  1.8290  2.6524  0.4042
47698SOL     OW49056   9.538   1.827  10.982  0.2106 -0.0722  0.7104
47698SOL    HW149057   9.448   1.848  11.007  0.0012 -0.2227  0.0952
47698SOL    HW249058   9.588   1.833  11.064  0.0041  1.9321  0.7187
47699SOL     OW49059   9.093   7.919   4.843 -0.0736 -0.1854  0.1620
47699SOL    HW149060   9.124   7.885   4.759 -1.2416 -4.2756  1.1830
47699SOL    HW249061   9.171   7.923   4.897  0.1230 -1.3772 -0.0081
47700SOL     OW49062   2.310  11.435   4.794 -0.0511 -0.1792 -1.0687
47700SOL    HW149063   2.238  11.494   4.773  0.2365  0.1485 -1.1267
47700SOL    HW249064   2.389  11.483   4.771  0.2618 -0.0334  0.2282
47701SOL     OW49065   5.775   3.722   2.820 -0.0163 -0.2539 -0.5186
47701SOL    HW149066   5.746   3.709   2.730  1.9454  0.4345 -1.3132
47701SOL    HW249067   5.701   3.763   2.864 -0.5130  0.7793 -2.2381
47702SOL     OW49068   5.044  11.836  11.065 -0.6544 -0.3159 -0.1141
47702SOL    HW149069   5.049  11.757  11.118  1.1632  0.5297  1.0745
47702SOL    HW249070   5.030  11.906  11.128  1.3738  0.6969 -0.6877
47703SOL     OW49071   4.851  11.136   0.559 -0.8534 -0.0490  0.4870
47703SOL    HW149072   4.850  11.223   0.519  0.2428  1.5346  3.5664
47703SOL    HW249073   4.932  11.095   0.529 -1.5110 -0.1726 -1.1985
47704SOL     OW49074   3.159   3.339   7.238  0.4998  0.2753 -0.2371
47704SOL    HW149075   3.168   3.434   7.236  0.1156  0.3226  0.1504
47704SOL    HW249076   3.199   3.309   7.156 -0.9904  0.9056 -1.2439
47705SOL     OW49077   0.783   6.020   7.727 -0.1011 -0.1097 -0.4814
47705SOL    HW149078   0.772   6.107   7.688  0.5024 -1.0089 -2.8310
47705SOL    HW249079   0.843   5.974   7.667  1.6313 -1.3544  2.0044
47706SOL     OW49080   0.913   5.543   4.622 -0.0397 -0.6485 -0.7028
47706SOL    HW149081   0.889   5.634   4.604 -0.5377 -0.1242  2.0881
47706SOL    HW249082   0.994   5.548   4.673  1.5836 -2.0081 -2.9209
47707SOL     OW49083  12.000   6.214   6.623 -0.3370 -0.5538  0.1280
47707SOL    HW149084  12.048   6.147   6.574 -0.0023 -2.7601  3.1911
47707SOL    HW249085  12.069   6.274   6.654 -0.2711 -0.4844 -0.1482
47708SOL     OW49086   3.855   8.052   7.328 -0.3997 -0.1871 -0.0328
47708SOL    HW149087   3.831   8.038   7.420  0.0342 -1.0274 -0.0374
47708SOL    HW249088   3.856   8.147   7.318  1.3510 -0.0042  1.3377
47709SOL     OW49089  10.418   1.387   3.486  0.6439 -0.5837  0.2439
47709SOL    HW149090  10.432   1.392   3.391 -0.8504 -2.0217 -0.1057
47709SOL    HW249091  10.326   1.411   3.498  0.3589 -1.9766  1.1209
47710SOL     OW49092   8.711   0.023   4.937 -0.1613  0.2781  0.0346
47710SOL    HW149093   8.753   0.014   5.023 -2.1533  0.5401  1.1072
47710SOL    HW249094   8.779   0.059   4.880  1.2210  0.0747  1.4896
47711SOL     OW49095  11.559   7.748   2.204  0.2625 -0.5803  0.1412
47711SOL    HW149096  11.521   7.833   2.185 -0.6061 -1.3349 -1.7065
47711SOL    HW249097  11.563   7.704   2.120 -0.2217 -2.7483  1.1788
47712SOL     OW49098   0.673   2.018   9.727  0.2744 -0.3320  0.2530
47712SOL    HW149099   0.688   2.112   9.732  2.7685 -0.5866 -1.0663
47712SOL    HW249100   0.627   1.997   9.808 -0.0085  1.9493  0.7488
47713SOL     OW49101   3.132   0.790   8.423  0.2446  0.1789 -0.3804
47713SOL    HW149102   3.069   0.738   8.472  0.5588 -1.8164 -1.9418
47713SOL    HW249103   3.093   0.800   8.336  1.0640  0.9382 -0.6855
47714SOL     OW49104   6.143   0.204   5.598 -0.7178  0.2642 -0.2430
47714SOL    HW149105   6.099   0.289   5.591 -1.4732 -0.0926  0.0565
47714SOL    HW249106   6.227   0.217   5.553  0.4868  2.0235  2.2696
47715SOL     OW49107  10.296  10.939   6.098  0.2094  0.0930  0.1358
47715SOL    HW149108  10.286  10.916   6.005  1.7339 -0.2123  0.0093
47715SOL    HW249109  10.257  11.026   6.106  3.2467  1.8038 -1.6720
47716SOL     OW49110   6.572   8.180   0.144 -0.4551 -0.0238 -0.2816
47716SOL    HW149111   6.554   8.222   0.060 -1.3381 -2.0116 -1.1670
47716SOL    HW249112   6.486   8.153   0.175  0.0042 -0.5198  0.5824
47717SOL     OW49113   6.175  11.398   1.575 -0.2086 -0.2936  0.5584
47717SOL    HW149114   6.138  11.471   1.624 -1.1577 -0.5711  0.2822
47717SOL    HW249115   6.217  11.438   1.499  0.1033  0.0331  0.9017
47718SOL     OW49116   2.347   5.118   3.864 -0.2797  0.4203 -0.2061
47718SOL    HW149117   2.411   5.114   3.935 -0.9008 -1.0623  0.3153
47718SOL    HW249118   2.267   5.152   3.905 -0.6264 -0.3944 -0.1877
47719SOL     OW49119   5.411   6.629   0.679  0.4605 -0.8705 -0.2718
47719SOL    HW149120   5.467   6.575   0.736 -1.0347 -0.4071  1.7502
47719SOL    HW249121   5.398   6.709   0.728 -3.6232 -1.7288  0.3812
47720SOL     OW49122   7.146   2.679   0.790 -0.6606 -0.2305  0.8683
47720SOL    HW149123   7.179   2.734   0.861  0.1880 -0.3180  0.5561
47720SOL    HW249124   7.067   2.723   0.760 -0.2125  0.6153  0.8897
47721SOL     OW49125   1.614   2.765   7.838 -0.3325  0.0061 -0.0261
47721SOL    HW149126   1.526   2.743   7.869  0.6766 -1.1640  2.2564
47721SOL    HW249127   1.673   2.718   7.898  1.8655  1.6730 -0.7548
47722SOL     OW49128   1.493   5.353   8.986  0.3228  0.4392 -0.1914
47722SOL    HW149129   1.457   5.313   8.907  0.1699 -0.2279  0.2131
47722SOL    HW249130   1.447   5.437   8.994 -1.4659 -0.5619  0.5425
47723SOL     OW49131   5.064  12.313   8.214  0.3563 -0.0448 -0.0208
47723SOL    HW149132   5.100  12.360   8.139 -0.4515  0.6807  0.0353
47723SOL    HW249133   5.138  12.261   8.247  0.5472 -0.9710 -1.7600
47724SOL     OW49134   7.965   4.027   2.837 -0.8977  0.2144 -0.7711
47724SOL    HW149135   7.918   4.003   2.917  0.1607 -0.0879 -0.2179
47724SOL    HW249136   7.952   4.121   2.829 -2.5195 -0.0195 -1.2579
47725SOL     OW49137  10.853  10.028  10.689  0.8679 -0.5362 -0.3421
47725SOL    HW149138  10.868   9.955  10.630 -0.7316  0.0643 -1.5600
47725SOL    HW249139  10.938  10.072  10.695  1.5344 -1.7475 -0.5880
47726SOL     OW49140   1.826   5.377   2.797 -1.1104  0.1949  0.4970
47726SOL    HW149141   1.839   5.363   2.891  2.2430 -0.4466  0.0675
47726SOL    HW249142   1.846   5.470   2.785 -1.4955  0.2661  0.4196
47727SOL     OW49143   6.186   8.501  10.121  0.5648  0.3369  0.3296
47727SOL    HW149144   6.118   8.464  10.176  2.0804 -1.2508  1.2311
47727SOL    HW249145   6.139   8.543  10.049 -1.3173 -1.2185  0.5895
47728SOL     OW49146   8.526  10.911  12.332 -0.1871  0.6325 -0.3067
47728SOL    HW149147   8.465  10.838  12.317 -0.3145  0.8116 -0.6410
47728SOL    HW249148   8.574  10.885  12.411  0.4596 -0.2758 -0.9854
47729SOL     OW49149   7.339   4.296  11.785  0.6412 -0.1916  0.1727
47729SOL    HW149150   7.396   4.319  11.711 -1.1052  2.5069 -0.4800
47729SOL    HW249151   7.325   4.379  11.830 -2.3507 -0.8247  0.5539
47730SOL     OW49152  10.261   1.495   6.869 -0.2721 -0.4747  0.0543
47730SOL    HW149153  10.274   1.408   6.905  0.2475  0.0992  1.3086
47730SOL    HW249154  10.191   1.534   6.923 -0.6241 -0.1668 -0.6009
47731SOL     OW49155   6.082   3.147   3.226 -0.1423  0.6741 -0.5206
47731SOL    HW149156   6.046   3.232   3.252 -0.4291  1.1660 -2.3663
47731SOL    HW249157   6.032   3.084   3.277  0.9271  1.6097  1.8381
47732SOL     OW49158   6.135   8.324  11.893  0.1690  1.1105 -0.2833
47732SOL    HW149159   6.166   8.245  11.938 -1.1296  1.5604  1.4940
47732SOL    HW249160   6.200   8.339  11.825  2.0803  0.1986  1.2404
47733SOL     OW49161   3.951   9.089  12.412 -0.0053  0.4520  0.7628
47733SOL    HW149162   3.993   9.161  12.365  0.3058  0.9619  1.7955
47733SOL    HW249163   3.860   9.117  12.424 -0.4519 -0.2706 -0.6958
47734SOL     OW49164   6.229   4.755   8.578 -0.5782  0.3752  0.4037
47734SOL    HW149165   6.277   4.737   8.497 -1.2556  0.0617  0.0617
47734SOL    HW249166   6.272   4.831   8.616  1.2328 -0.8588  0.9390
47735SOL     OW49167   9.240   9.446   7.055 -0.2543  0.4504 -0.4492
47735SOL    HW149168   9.240   9.529   7.008 -0.9297  0.6919 -0.0394
47735SOL    HW249169   9.331   9.419   7.056 -0.2442  0.2617 -2.2123
47736SOL     OW49170  11.965  12.108   7.513  0.0868 -0.0857  0.2376
47736SOL    HW149171  11.979  12.033   7.571  2.2008 -0.2807 -0.4096
47736SOL    HW249172  11.938  12.179   7.571  1.3125 -0.4935  1.3560
47737SOL     OW49173  12.209   2.188   2.907  0.0687  0.5915  0.1333
47737SOL    HW149174  12.188   2.115   2.848 -0.4754 -0.5183  1.6574
47737SOL    HW249175  12.296   2.168   2.939 -0.6038 -0.1225  1.5823
47738SOL     OW49176   3.283   2.762   2.548  0.0552  0.3085 -0.1857
47738SOL    HW149177   3.373   2.789   2.567 -0.7312  3.3167 -0.1267
47738SOL    HW249178   3.283   2.746   2.454  0.4547  1.3852 -0.3926
47739SOL     OW49179   2.219   1.963   8.636  0.0813  0.1431 -0.0369
47739SOL    HW149180   2.279   1.950   8.563 -1.4714 -2.7972 -0.9682
47739SOL    HW249181   2.263   1.922   8.711  0.1579 -0.0556 -0.1897
47740SOL     OW49182  11.647   5.004   1.759 -0.4111  0.3540  0.7618
47740SOL    HW149183  11.689   5.065   1.820 -0.0780 -0.2442  1.1424
47740SOL    HW249184  11.714   4.985   1.694 -0.9498  1.4492 -0.1549
47741SOL     OW49185   7.124   5.523   8.260 -0.2225 -0.0986  0.5275
47741SOL    HW149186   7.058   5.505   8.194  0.2069 -0.7781  0.2678
47741SOL    HW249187   7.207   5.500   8.218 -0.0752 -2.2747  1.8709
47742SOL     OW49188   3.900   5.099   1.948 -0.2516  0.1079 -0.2053
47742SOL    HW149189   3.919   5.016   1.992 -0.7756 -0.1489 -0.4492
47742SOL    HW249190   3.806   5.094   1.927 -0.8209  1.6466  1.6744
47743SOL     OW49191  12.142   6.110   2.404 -0.1396 -0.0471 -0.0186
47743SOL    HW149192  12.198   6.043   2.365  1.7383  1.6589 -0.4353
47743SOL    HW249193  12.175   6.120   2.493 -0.5824  0.1551  0.1268
47744SOL     OW49194  11.127   6.310  12.176  0.2937  0.6364  0.2544
47744SOL    HW149195  11.169   6.293  12.091  1.0838 -0.7132  0.8848
47744SOL    HW249196  11.170   6.250  12.236  1.2176  2.9514  2.0844
47745SOL     OW49197  10.869  11.205   1.933 -0.1022 -0.1704  0.0876
47745SOL    HW149198  10.885  11.163   1.848  2.0462 -0.8129  0.7652
47745SOL    HW249199  10.916  11.151   1.996 -0.4363  1.1358  1.5100
47746SOL     OW49200   6.333   1.659  11.132  0.2043  0.6027  1.2025
47746SOL    HW149201   6.397   1.711  11.083  0.5765  0.3839  1.4485
47746SOL    HW249202   6.329   1.700  11.218  0.9445 -0.1114  1.5957
47747SOL     OW49203   1.108  12.239   3.748  0.5662 -0.7866 -0.0667
47747SOL    HW149204   1.133  12.289   3.670  2.4786  0.2368  1.1369
47747SOL    HW249205   1.148  12.153   3.734 -0.8978 -1.3464 -1.1339
47748SOL     OW49206   5.597   8.217   0.374 -0.4395 -0.0347 -0.1631
47748SOL    HW149207   5.575   8.128   0.347 -1.4873  0.3099 -0.4627
47748SOL    HW249208   5.692   8.215   0.387 -0.3564 -1.0180 -0.8327
47749SOL     OW49209  10.098   1.252  11.805  0.3921  0.1949  0.3478
47749SOL    HW149210  10.010   1.232  11.836  0.9447 -1.5078  0.8905
47749SOL    HW249211  10.118   1.183  11.742  1.1382  0.8901 -0.2140
47750SOL     OW49212   4.556   9.018   2.962 -0.5411  0.0233 -0.0024
47750SOL    HW149213   4.650   9.030   2.976 -0.2761  0.3906 -1.8132
47750SOL    HW249214   4.521   9.107   2.952 -0.9720 -0.1374  0.0158
47751SOL     OW49215   0.001   0.703  11.514 -0.5004 -0.1616  0.5640
47751SOL    HW149216   0.078   0.733  11.563 -1.0950  0.7990  0.9287
47751SOL    HW249217  -0.035   0.782  11.474 -1.3416 -0.5833  0.4631
47752SOL     OW49218   1.036   0.547   5.804  0.4049  0.4299  0.2089
47752SOL    HW149219   0.994   0.633   5.794  2.8626  1.7759  0.6163
47752SOL    HW249220   1.068   0.526   5.716  0.4581  0.2927  0.2616
47753SOL     OW49221   4.241   8.588   0.139  0.1570 -0.5351 -0.2904
47753SOL    HW149222   4.293   8.553   0.066  0.5682 -0.9654  0.1976
47753SOL    HW249223   4.284   8.670   0.163  1.5362 -1.5881  1.0592
47754SOL     OW49224   9.301  10.097   5.758 -0.1553 -0.5058  0.0278
47754SOL    HW149225   9.212  10.124   5.734  0.6851  0.4501 -2.3547
47754SOL    HW249226   9.298  10.002   5.759 -1.0821 -0.4966 -0.5955
47755SOL     OW49227  11.529   9.964   1.669 -0.2598  0.4047 -0.2768
47755SOL    HW149228  11.514  10.058   1.662  3.4210  1.2113  0.4672
47755SOL    HW249229  11.554   9.951   1.761 -0.7026 -1.3286 -0.3746
47756SOL     OW49230   1.580   6.133   0.574  0.0346  0.1721  0.2649
47756SOL    HW149231   1.630   6.092   0.645 -0.3987  0.4579  0.7385
47756SOL    HW249232   1.495   6.090   0.577 -0.1589  0.5550  0.2530
47757SOL     OW49233   7.087   0.191   7.513 -0.3297  0.4646 -0.4573
47757SOL    HW149234   7.019   0.257   7.521 -0.4974  0.3120 -0.5866
47757SOL    HW249235   7.042   0.116   7.473 -0.3140  0.0183  0.3472
47758SOL     OW49236   0.974   8.824   0.644 -0.0422 -0.3751  0.1137
47758SOL    HW149237   0.986   8.877   0.566 -1.6467 -1.8458 -1.2207
47758SOL    HW249238   1.041   8.757   0.639  0.3789  0.0155  0.4537
47759SOL     OW49239   1.310   0.472  10.077 -0.3111 -0.6980  0.3034
47759SOL    HW149240   1.343   0.437  10.160  0.1950  0.6035  0.6766
47759SOL    HW249241   1.261   0.550  10.102  0.8506  0.3811 -0.7006
47760SOL     OW49242  10.584   8.721   3.807 -0.3084 -0.6263 -0.2511
47760SOL    HW149243  10.670   8.754   3.782 -1.1124  1.2446 -0.7273
47760SOL    HW249244  10.602   8.641   3.856  1.8242  0.7089  1.3381
47761SOL     OW49245   5.995   1.265   9.726  0.3007 -0.9642 -0.0534
47761SOL    HW149246   6.090   1.252   9.725  0.3799 -0.4668 -1.1880
47761SOL    HW249247   5.980   1.329   9.795  1.0767  0.7465 -1.4046
47762SOL     OW49248  10.247   9.491  11.094  0.0348 -0.1823 -0.8640
47762SOL    HW149249  10.309   9.563  11.088 -0.0451 -0.0753 -0.4349
47762SOL    HW249250  10.292   9.424  11.145 -0.2737 -0.0227 -0.3740
47763SOL     OW49251   0.718   6.815   1.541 -0.7526  0.1065 -0.3465
47763SOL    HW149252   0.631   6.777   1.555  0.1245 -1.3691  1.3746
47763SOL    HW249253   0.728   6.879   1.612  0.0892 -0.7136  0.2882
47764SOL     OW49254   1.524   7.599   3.282  0.0299  0.2360 -0.1718
47764SOL    HW149255   1.587   7.658   3.322  0.4065  0.1258 -0.5925
47764SOL    HW249256   1.473   7.654   3.223 -1.1268  0.5815  1.0939
47765SOL     OW49257   6.973  11.838  11.741 -0.2202  0.4657  0.4493
47765SOL    HW149258   6.902  11.895  11.711  0.0699  0.3771 -0.4273
47765SOL    HW249259   6.936  11.750  11.736 -0.4789  0.5205  1.2607
47766SOL     OW49260   3.440   7.856   9.797 -0.3989  0.1691 -1.0740
47766SOL    HW149261   3.356   7.884   9.761 -1.9035 -0.7029  1.4637
47766SOL    HW249262   3.449   7.765   9.770 -2.1557 -0.8979  1.4965
47767SOL     OW49263  12.018   1.158  10.883  0.0858  0.5650 -0.2959
47767SOL    HW149264  11.978   1.081  10.842 -1.2562  1.3372 -0.5031
47767SOL    HW249265  12.099   1.125  10.921 -0.6478 -1.0438 -0.0269
47768SOL     OW49266   9.242   0.851   8.970  0.1119 -0.6688 -0.2764
47768SOL    HW149267   9.326   0.810   8.950  0.1715 -0.1850 -1.0739
47768SOL    HW249268   9.187   0.780   9.004  0.1199 -1.4748 -1.8801
47769SOL     OW49269   6.627   4.545   8.085 -0.8134  0.2271  0.0058
47769SOL    HW149270   6.721   4.559   8.070 -0.7602 -0.0478  0.0778
47769SOL    HW249271   6.620   4.454   8.112 -1.2990 -0.2748 -1.7017
47770SOL     OW49272   0.193   9.382   3.974 -0.3766 -0.1528 -0.3029
47770SOL    HW149273   0.108   9.390   3.930 -0.1659 -0.5890 -0.7935
47770SOL    HW249274   0.245   9.453   3.936  0.6063 -1.9994 -2.6345
47771SOL     OW49275   0.428   8.293  12.453  0.0004  0.3749 -0.7888
47771SOL    HW149276   0.354   8.285  12.393 -0.0469  0.9301 -0.8034
47771SOL    HW249277   0.497   8.335  12.401  0.2214  0.1474 -0.6817
47772SOL     OW49278  10.678   5.410   6.275  0.3122  0.3489 -0.9650
47772SOL    HW149279  10.679   5.482   6.212 -0.4040  1.0602 -0.1934
47772SOL    HW249280  10.615   5.347   6.240 -1.4171  1.5518 -0.1256
47773SOL     OW49281   8.665   6.113  12.285 -0.6465  0.1594  0.2173
47773SOL    HW149282   8.572   6.119  12.260 -0.3196 -0.6129 -1.2862
47773SOL    HW249283   8.701   6.198  12.261 -0.0448 -0.9703 -3.4979
47774SOL     OW49284   3.273   4.895  10.306  0.3077 -0.2599 -0.5507
47774SOL    HW149285   3.189   4.869  10.343  1.7132 -3.7621  0.5410
47774SOL    HW249286   3.276   4.854  10.220  1.6444 -2.0671  0.2741
47775SOL     OW49287   6.949   6.005   9.346  0.1098  0.0148  1.0546
47775SOL    HW149288   6.904   6.088   9.331 -1.5375 -0.9161  0.4877
47775SOL    HW249289   6.892   5.940   9.305  1.6468 -1.3396  0.9636
47776SOL     OW49290   9.986   1.110   5.612 -0.3360 -0.0869 -0.2526
47776SOL    HW149291  10.012   1.134   5.523 -0.1080 -1.1219 -0.4686
47776SOL    HW249292  10.050   1.046   5.640  0.2773  1.0652  1.1121
47777SOL     OW49293  11.427   1.043  10.602 -0.2388 -0.0440  0.1538
47777SOL    HW149294  11.342   1.047  10.647 -0.1551 -2.6650  0.6799
47777SOL    HW249295  11.490   1.026  10.671  0.7187  1.4346 -0.2986
47778SOL     OW49296   2.794   9.093   2.556  0.0487  0.2391  0.3831
47778SOL    HW149297   2.718   9.047   2.520 -0.2160  1.4471 -0.6514
47778SOL    HW249298   2.855   9.099   2.483  1.1272 -0.6460  1.1827
47779SOL     OW49299  12.181   2.052   8.330  0.3099  0.0904 -0.0375
47779SOL    HW149300  12.090   2.061   8.303  0.7160 -0.3383 -1.6701
47779SOL    HW249301  12.215   2.141   8.331  0.4231  0.0878 -1.5688
47780SOL     OW49302   3.521   2.988  10.755  0.5086  0.2206 -0.4866
47780SOL    HW149303   3.490   3.010  10.842 -2.4923 -1.4967 -0.9693
47780SOL    HW249304   3.607   2.948  10.769 -0.4346 -1.1806  1.8637
47781SOL     OW49305  11.065   9.676  11.417 -0.0958 -0.1985  0.4664
47781SOL    HW149306  11.114   9.701  11.338  0.0527 -0.3367  0.5136
47781SOL    HW249307  11.060   9.581  11.412  1.1155 -0.3244  1.3258
47782SOL     OW49308   8.064   7.832   6.266 -0.7373 -0.1695 -0.9452
47782SOL    HW149309   8.105   7.840   6.179 -1.7538 -0.7147 -1.4883
47782SOL    HW249310   8.076   7.740   6.290  0.5387  0.2144  0.0257
47783SOL     OW49311   8.363   9.867   4.634  0.6182 -0.1103 -0.3198
47783SOL    HW149312   8.387   9.774   4.635  0.6861 -0.0872  0.1631
47783SOL    HW249313   8.278   9.871   4.678  0.0507 -0.0946 -1.3877
47784SOL     OW49314   5.073   6.074   7.418  0.2505  0.0814 -0.2931
47784SOL    HW149315   5.085   5.992   7.467 -2.8432  0.9093  2.1753
47784SOL    HW249316   4.981   6.072   7.391  0.8268  1.5773 -2.5785
47785SOL     OW49317   8.755  11.131  11.030  0.1971 -0.3203  0.1448
47785SOL    HW149318   8.759  11.142  11.125 -0.9750  1.1395  0.0669
47785SOL    HW249319   8.741  11.220  10.997 -1.1340 -1.0233 -1.2744
47786SOL     OW49320   7.553  10.301   7.164 -0.2623  0.6186 -0.3442
47786SOL    HW149321   7.458  10.304   7.153 -0.0987  2.5302 -1.6831
47786SOL    HW249322   7.581  10.235   7.101 -0.6768 -0.0162  0.1128
47787SOL     OW49323   9.984   3.451  11.431  0.5643 -0.5043  0.0050
47787SOL    HW149324   9.953   3.540  11.451  2.7723  0.7483 -1.7241
47787SOL    HW249325   9.981   3.445  11.336 -0.3108 -2.6407  0.1162
47788SOL     OW49326   7.962   8.594   1.187  1.0955  0.2272 -0.4496
47788SOL    HW149327   7.992   8.672   1.140  1.8372  0.7912  0.9274
47788SOL    HW249328   8.042   8.555   1.222  0.4979  0.3020  1.0544
47789SOL     OW49329  11.796  11.526   3.746  0.2327 -0.6264  0.1447
47789SOL    HW149330  11.855  11.593   3.712  0.2379 -0.7608 -0.1142
47789SOL    HW249331  11.720  11.529   3.688 -1.3111  1.4773  2.1085
47790SOL     OW49332  10.801   7.883   7.668 -0.0031 -0.0749  0.0146
47790SOL    HW149333  10.858   7.957   7.690  1.0927 -0.4438 -1.4500
47790SOL    HW249334  10.851   7.806   7.694 -0.1797 -0.3702 -0.5084
47791SOL     OW49335  10.556  10.111   1.039 -0.2176  0.2661 -0.3627
47791SOL    HW149336  10.514  10.082   1.120  0.6790 -1.7711 -0.5816
47791SOL    HW249337  10.594  10.032   1.002  0.7716  1.4452 -1.9719
47792SOL     OW49338  11.597   9.632  11.472 -0.1925  0.1209  0.0865
47792SOL    HW149339  11.686   9.616  11.502  0.5030  2.0116 -0.8241
47792SOL    HW249340  11.558   9.687  11.540 -0.9854 -1.3432  0.8782
47793SOL     OW49341   1.206   5.795   2.731  0.5185  0.4475  0.0291
47793SOL    HW149342   1.261   5.872   2.743 -1.0933  1.6114  0.1819
47793SOL    HW249343   1.233   5.735   2.801  0.9472  1.3822  0.6752
47794SOL     OW49344   0.117   0.979  11.460 -0.0626  0.0001  0.7762
47794SOL    HW149345   0.034   0.985  11.413  1.5012  0.2473 -2.1793
47794SOL    HW249346   0.105   1.036  11.536 -2.4396  0.3237  0.2444
47795SOL     OW49347  10.216   2.504   6.219 -0.0038  0.1826 -0.0129
47795SOL    HW149348  10.153   2.434   6.234 -1.4164  1.4381  0.1116
47795SOL    HW249349  10.215   2.555   6.299  0.3420  0.8513 -0.4251
47796SOL     OW49350  11.843   1.016   1.642  0.5152 -0.5588 -0.7210
47796SOL    HW149351  11.855   1.088   1.704 -0.2718  0.2370 -1.4566
47796SOL    HW249352  11.774   0.962   1.680 -0.0707  0.0092 -0.9661
47797SOL     OW49353   7.160   1.231   9.400 -0.0430  0.3132 -0.1303
47797SOL    HW149354   7.121   1.317   9.391 -2.8945 -0.7730  0.7545
47797SOL    HW249355   7.237   1.233   9.342  1.1627  4.0050  1.3494
47798SOL     OW49356   8.435  10.946   7.476  0.0829  0.5469  0.2534
47798SOL    HW149357   8.365  10.950   7.540 -2.1089  0.7908 -1.9874
47798SOL    HW249358   8.456  11.038   7.458 -0.7834  0.5652 -0.7953
47799SOL     OW49359   4.236   2.097   8.919  0.2232 -0.2842 -0.0133
47799SOL    HW149360   4.207   2.014   8.881 -1.5504 -1.4134  3.4326
47799SOL    HW249361   4.239   2.157   8.844 -0.1106 -2.9629 -2.3622
47800SOL     OW49362   1.609   6.823   1.195  0.0668  0.0558  0.0711
47800SOL    HW149363   1.580   6.805   1.106  0.8203 -0.4424 -0.0800
47800SOL    HW249364   1.653   6.907   1.190 -0.7405  0.4929  0.1705
47801SOL     OW49365   9.301   8.007   0.707  0.8577 -0.0593  0.0410
47801SOL    HW149366   9.221   7.959   0.688 -0.2899  1.9402 -0.5498
47801SOL    HW249367   9.371   7.943   0.697 -0.3739 -1.1123 -2.7885
47802SOL     OW49368  11.475  10.512   8.150 -0.4366  0.0778  0.4138
47802SOL    HW149369  11.455  10.522   8.243 -1.0393 -1.5836  0.4949
47802SOL    HW249370  11.560  10.468   8.148 -1.4292 -1.9678  0.2744
47803SOL     OW49371   9.654   9.495  10.201 -0.9791  0.1276 -0.4374
47803SOL    HW149372   9.596   9.485  10.125 -0.0479  0.9190 -1.2730
47803SOL    HW249373   9.614   9.440  10.268 -0.7657 -2.2160 -2.0917
47804SOL     OW49374   2.094  10.148   1.177 -0.2008  0.1705 -0.5095
47804SOL    HW149375   2.110  10.156   1.271 -0.8144 -0.7516 -0.3081
47804SOL    HW249376   2.000  10.159   1.167 -0.6617 -2.8284 -0.5783
47805SOL     OW49377  11.946  11.889   2.304 -0.8216  0.2821 -0.2925
47805SOL    HW149378  11.966  11.867   2.395  0.3882  1.9102 -0.1286
47805SOL    HW249379  11.855  11.861   2.292 -0.4826 -1.5302  0.8774
47806SOL     OW49380   1.020   5.511   7.435  0.1712  0.2379 -0.2175
47806SOL    HW149381   1.101   5.551   7.403 -0.0519  1.1237  0.2887
47806SOL    HW249382   1.032   5.417   7.422  0.8339  0.4417 -1.1609
47807SOL     OW49383   1.803   7.702  12.135  0.3588  0.9281 -0.0675
47807SOL    HW149384   1.713   7.689  12.164  0.6339 -0.1405  0.3258
47807SOL    HW249385   1.794   7.736  12.045 -0.4302  0.7660 -0.0554
47808SOL     OW49386   2.530   4.239   8.804 -0.5661  0.2996 -0.7392
47808SOL    HW149387   2.510   4.150   8.773  1.6897 -1.1848  1.6332
47808SOL    HW249388   2.625   4.245   8.801 -0.6646  2.8466 -1.1551
47809SOL     OW49389   1.115   3.978   6.734 -0.0840 -0.2437 -0.2014
47809SOL    HW149390   1.210   3.980   6.751 -0.1818  0.1333  0.3443
47809SOL    HW249391   1.077   3.951   6.817 -0.5014  0.3348 -0.1940
47810SOL     OW49392   6.494   5.278   2.891  0.2798  0.2522 -0.1568
47810SOL    HW149393   6.408   5.288   2.932  0.4441 -0.6137  0.4315
47810SOL    HW249394   6.490   5.334   2.814 -0.3624  1.2161  0.5481
47811SOL     OW49395   9.126   1.070   3.970  0.1115 -0.1920  0.3331
47811SOL    HW149396   9.170   1.036   3.892  2.0800 -0.4167  1.4802
47811SOL    HW249397   9.100   1.159   3.946  0.1307 -0.4592 -0.7612
47812SOL     OW49398   5.380  11.551   8.619 -0.0669 -0.6103  0.2763
47812SOL    HW149399   5.456  11.522   8.671 -0.4066 -2.1208 -0.0401
47812SOL    HW249400   5.371  11.485   8.551  0.2918  1.2644 -1.6963
47813SOL     OW49401   4.084   3.732   3.436  0.3326 -0.0104 -0.1291
47813SOL    HW149402   4.042   3.650   3.465 -0.4199  0.5586  0.4314
47813SOL    HW249403   4.084   3.726   3.341 -1.0940 -0.0111 -0.1524
47814SOL     OW49404   1.678   9.450  10.851 -0.5852 -0.3857  0.0837
47814SOL    HW149405   1.619   9.487  10.916 -1.7858  0.6905 -1.5283
47814SOL    HW249406   1.662   9.356  10.854 -1.7400 -0.1915  0.2990
47815SOL     OW49407   1.155   1.379   7.350  0.1247  0.5149 -0.1864
47815SOL    HW149408   1.150   1.451   7.414 -0.1260  0.6122 -0.3139
47815SOL    HW249409   1.065   1.370   7.318  0.0649 -0.1620  0.1622
47816SOL     OW49410   6.264   3.737   8.328  0.3990  0.0366  0.3800
47816SOL    HW149411   6.315   3.666   8.290 -2.7265 -2.0510 -0.2680
47816SOL    HW249412   6.273   3.810   8.267  1.4246 -0.7456 -0.4255
47817SOL     OW49413   5.826   1.763  10.306 -0.0510  0.5451  0.2139
47817SOL    HW149414   5.900   1.755  10.246  0.3416 -0.5701  0.8094
47817SOL    HW249415   5.831   1.853  10.338  2.1865  0.0046  1.6327
47818SOL     OW49416  12.444  11.517   9.326 -0.2255 -0.1444  0.1718
47818SOL    HW149417  12.419  11.609   9.329  0.1306 -0.0724  1.5366
47818SOL    HW249418  12.391  11.481   9.255 -1.6377  0.7573  0.7138
47819SOL     OW49419   5.814  12.086   5.259  0.4862  0.1471  0.0092
47819SOL    HW149420   5.809  12.134   5.342 -0.3290 -0.0717  0.0899
47819SOL    HW249421   5.822  11.994   5.284 -0.1970  0.0380 -0.1420
47820SOL     OW49422   6.255  10.166   8.805  0.3744 -0.0076  0.1438
47820SOL    HW149423   6.301  10.235   8.852 -1.0460  1.5864 -0.6728
47820SOL    HW249424   6.317  10.094   8.800  1.7551  1.0420  1.4398
47821SOL     OW49425   5.869  10.050   0.552 -0.2814  0.1013 -0.0108
47821SOL    HW149426   5.862  10.046   0.648  2.1356 -0.1088  0.2078
47821SOL    HW249427   5.858  10.142   0.531  0.4605  0.3421  0.6158
47822SOL     OW49428   6.458   5.724   1.292 -0.3351  1.1191  0.1692
47822SOL    HW149429   6.516   5.792   1.257 -0.4898  0.3069 -1.8173
47822SOL    HW249430   6.381   5.727   1.236 -0.2006 -0.8901 -0.2034
47823SOL     OW49431   5.876   2.882   8.913 -0.1523 -0.4589 -0.2331
47823SOL    HW149432   5.826   2.825   8.971  0.6460 -1.5646 -0.6081
47823SOL    HW249433   5.916   2.947   8.971 -0.1019 -1.0050  0.3503
47824SOL     OW49434   1.277   4.413  12.364 -0.4768  0.4820 -0.4293
47824SOL    HW149435   1.324   4.459  12.433 -1.5859  1.4925 -0.3265
47824SOL    HW249436   1.250   4.330  12.404 -0.0856  0.5423 -0.0384
47825SOL     OW49437  12.229  12.022   4.334 -0.4759  0.2764 -0.3901
47825SOL    HW149438  12.187  11.936   4.336 -0.2558  0.1814  1.3050
47825SOL    HW249439  12.314  12.006   4.293 -0.3064 -0.3861  0.2021
47826SOL     OW49440   2.938   6.549  11.321 -0.0265  0.2283  0.0771
47826SOL    HW149441   2.908   6.459  11.318  1.0917 -0.1451 -1.9685
47826SOL    HW249442   2.858   6.601  11.329 -0.6906 -0.8944  1.2029
47827SOL     OW49443   4.331  12.174   1.328 -0.6781 -0.0662  0.3473
47827SOL    HW149444   4.240  12.206   1.328 -0.2461  1.3377 -1.3499
47827SOL    HW249445   4.373  12.223   1.257  1.7100  0.1696  1.8131
47828SOL     OW49446   4.930   7.955   3.828 -0.5374  0.0646  0.0569
47828SOL    HW149447   4.885   8.030   3.789 -0.3318  0.3719  0.3975
47828SOL    HW249448   5.001   7.936   3.767  0.6148  1.3981  0.9028
47829SOL     OW49449   4.009   3.415   5.421  0.0368  0.3062  0.0550
47829SOL    HW149450   4.011   3.426   5.517 -0.5200 -0.3183  0.1419
47829SOL    HW249451   4.097   3.384   5.399  0.2954  0.8400  0.3099
47830SOL     OW49452   3.486   3.938   7.611  0.7029  0.4235 -0.2843
47830SOL    HW149453   3.547   4.007   7.587  0.5462  0.3729 -0.8461
47830SOL    HW249454   3.531   3.857   7.588  1.3523  0.2724  1.4248
47831SOL     OW49455   6.619   5.712   5.659  0.9298 -0.5313  0.3193
47831SOL    HW149456   6.536   5.690   5.701  0.4240  0.7969  0.0692
47831SOL    HW249457   6.602   5.703   5.566  1.0474 -0.2121  0.2663
47832SOL     OW49458   6.235   4.218   9.609  0.2150  0.5385  0.8289
47832SOL    HW149459   6.294   4.150   9.639  1.8085  2.3976  2.1655
47832SOL    HW249460   6.270   4.245   9.524  0.5446  0.7928  1.0462
47833SOL     OW49461   2.504   1.633   1.429  0.2142  0.0200 -0.5195
47833SOL    HW149462   2.535   1.543   1.433  2.3501  0.6041 -2.1735
47833SOL    HW249463   2.559   1.681   1.491  1.1235  0.6739 -1.7986
47834SOL     OW49464   6.978  10.835   0.756 -0.0401  0.0353  0.4883
47834SOL    HW149465   7.042  10.905   0.742 -0.3854  0.3628  0.5490
47834SOL    HW249466   7.003  10.798   0.841 -1.7689  2.1805  2.0474
47835SOL     OW49467   1.737   0.945   9.620 -0.1841 -0.0696 -0.0070
47835SOL    HW149468   1.820   0.908   9.648  0.2275  2.5766  2.8622
47835SOL    HW249469   1.759   0.999   9.543  0.3167 -0.9692 -0.5025
47836SOL     OW49470   0.169   1.193   2.328  0.5446 -0.0553  0.7820
47836SOL    HW149471   0.091   1.155   2.287  0.8862 -0.2181  0.2807
47836SOL    HW249472   0.234   1.196   2.258  0.1298  2.7562  0.3989
47837SOL     OW49473   4.945   8.764   8.342  0.4568  0.1189 -0.0269
47837SOL    HW149474   5.000   8.725   8.410 -0.2356  0.2624  0.6294
47837SOL    HW249475   4.977   8.854   8.334 -0.0829  0.4080  0.8263
47838SOL     OW49476   9.879   6.953   1.625  0.3616  0.1350 -0.2763
47838SOL    HW149477   9.827   7.030   1.649  3.1475  2.3363 -0.7064
47838SOL    HW249478   9.892   6.905   1.707 -0.9484  0.4169  0.1108
47839SOL     OW49479  11.852   4.428   8.763 -0.1315  0.2839  0.4347
47839SOL    HW149480  11.846   4.453   8.856 -1.0696 -0.9132  0.7268
47839SOL    HW249481  11.928   4.370   8.760  3.0525  4.0646 -0.5303
47840SOL     OW49482  10.307   2.248   9.929  0.4915  0.1670 -0.7235
47840SOL    HW149483  10.393   2.266   9.966  0.0061  0.3724  0.3570
47840SOL    HW249484  10.246   2.299   9.983 -0.4390 -1.0391 -0.5757
47841SOL     OW49485   9.643   7.395   3.556  0.0571  0.2537 -0.1781
47841SOL    HW149486   9.639   7.480   3.513 -1.7047  0.0008 -0.5840
47841SOL    HW249487   9.684   7.337   3.492  0.8105  0.6784 -0.0884
47842SOL     OW49488   1.992  11.696   9.409  0.4830 -0.4929 -0.3793
47842SOL    HW149489   2.029  11.609   9.390 -0.7163 -0.9834 -0.5522
47842SOL    HW249490   1.898  11.687   9.391 -0.1957 -0.0060  2.4236
47843SOL     OW49491   9.925   3.679   6.261  0.2852  0.0882 -0.1542
47843SOL    HW149492   9.960   3.656   6.347 -1.5106 -1.2922  0.2513
47843SOL    HW249493   9.978   3.629   6.199 -0.5891 -1.6223  0.4185
47844SOL     OW49494   4.015  12.424   4.597  0.2945  0.3257  0.1357
47844SOL    HW149495   4.057  12.428   4.683 -0.9390 -0.1846  0.7808
47844SOL    HW249496   4.029  12.512   4.560  0.9083  0.5253  0.8122
47845SOL     OW49497   5.020   8.089   6.566 -0.6440 -0.1521 -0.1855
47845SOL    HW149498   5.033   8.134   6.482  0.1009  0.0756  0.0410
47845SOL    HW249499   4.947   8.030   6.550  0.5449 -1.3570 -1.5055
47846SOL     OW49500  12.432   2.454  10.656  0.3482 -0.6544 -0.0818
47846SOL    HW149501  12.346   2.471  10.617  0.9726  2.1217 -0.5052
47846SOL    HW249502  12.427   2.364  10.687 -3.2950 -0.1102  1.4439
47847SOL     OW49503   3.156   9.749   0.398  0.1262  0.4084 -0.0125
47847SOL    HW149504   3.190   9.836   0.376 -2.3610  1.1822 -1.0967
47847SOL    HW249505   3.120   9.759   0.486 -1.1416  0.8259 -0.5571
47848SOL     OW49506   4.778   2.662   0.931  0.3128 -0.2978 -0.7112
47848SOL    HW149507   4.858   2.713   0.943  0.5959 -0.4892 -1.6410
47848SOL    HW249508   4.708   2.727   0.929  0.4005 -0.1567  0.4370
47849SOL     OW49509   7.955   0.863  11.304 -0.1098 -0.2292 -0.2428
47849SOL    HW149510   7.910   0.825  11.229 -0.6794 -0.1226  0.0410
47849SOL    HW249511   8.010   0.792  11.338 -0.1569 -0.3975 -0.5152
47850SOL     OW49512   5.164   5.861   7.714  0.1211 -0.4596 -0.0525
47850SOL    HW149513   5.199   5.947   7.736  0.0585 -0.1064 -1.2650
47850SOL    HW249514   5.241   5.804   7.712  0.3840 -0.0943 -0.7898
47851SOL     OW49515   6.033   8.187   6.087 -0.2761 -0.1281 -0.1656
47851SOL    HW149516   6.121   8.222   6.099  0.4812 -2.3191  1.1734
47851SOL    HW249517   6.042   8.121   6.018 -1.6563  1.9906 -2.5615
47852SOL     OW49518   1.161   7.878   2.665  0.3104  0.3700 -0.0606
47852SOL    HW149519   1.133   7.844   2.581 -1.2394  2.2606 -0.3806
47852SOL    HW249520   1.229   7.818   2.694  0.5030 -0.6352 -2.3988
47853SOL     OW49521  10.343   4.203   0.007  0.5034  0.3706 -0.1511
47853SOL    HW149522  10.323   4.193  -0.086 -2.5205  0.7054  0.3702
47853SOL    HW249523  10.297   4.131   0.050  1.2794  0.6191  1.1576
47854SOL     OW49524   8.879   5.572   7.856 -0.3485  0.1995 -0.0572
47854SOL    HW149525   8.840   5.609   7.935  0.1593 -0.8447  0.7032
47854SOL    HW249526   8.892   5.647   7.798 -0.3488  1.0411  1.0029
47855SOL     OW49527  11.189   8.628   3.211 -0.5412 -0.4523 -1.1633
47855SOL    HW149528  11.131   8.615   3.285  0.1037 -0.9759 -0.7332
47855SOL    HW249529  11.240   8.706   3.233  1.4975 -2.0740  0.2144
47856SOL     OW49530  10.704   5.034   3.648  0.9845 -0.3774 -0.3005
47856SOL    HW149531  10.746   4.980   3.580  0.0681 -1.1802 -0.2508
47856SOL    HW249532  10.776   5.065   3.702  1.7680  0.4044 -1.7109
47857SOL     OW49533  12.324   3.447   5.854  0.0660  0.3423  0.3953
47857SOL    HW149534  12.263   3.509   5.814  0.5165  0.3821 -0.2404
47857SOL    HW249535  12.293   3.438   5.944 -0.7332  0.5456  0.1486
47858SOL     OW49536   1.871   3.532   1.447  0.5472 -0.4005  0.3006
47858SOL    HW149537   1.948   3.475   1.437  0.1997 -0.5386 -2.4683
47858SOL    HW249538   1.900   3.616   1.412 -0.0754  0.0357  0.8219
47859SOL     OW49539   9.438   5.330   3.248  0.0051 -0.1786  0.1897
47859SOL    HW149540   9.501   5.402   3.256 -2.4482  1.9637  1.5931
47859SOL    HW249541   9.382   5.354   3.175 -1.0385 -0.5135  0.8664
47860SOL     OW49542   1.021   9.808  11.644  0.0408  0.0025  0.5210
47860SOL    HW149543   1.091   9.772  11.590 -1.4521 -0.5215 -1.1728
47860SOL    HW249544   0.969   9.861  11.584 -0.3702  1.3635  2.0036
47861SOL     OW49545   0.335   1.763   7.227  0.4993  0.0074 -0.1382
47861SOL    HW149546   0.355   1.853   7.200 -0.9004  0.8271  1.3679
47861SOL    HW249547   0.348   1.711   7.148 -2.0733  2.0472 -2.0715
47862SOL     OW49548   7.447  11.554   0.314 -0.3496 -0.0116 -0.0253
47862SOL    HW149549   7.407  11.470   0.291 -1.2685  0.2617  0.5382
47862SOL    HW249550   7.393  11.620   0.271  0.3522  0.3110 -0.4451
47863SOL     OW49551   2.124   1.263   0.582  0.0946 -0.7039 -0.1167
47863SOL    HW149552   2.065   1.319   0.632  0.6532 -0.3686  0.1766
47863SOL    HW249553   2.195   1.241   0.643  1.8266  1.3094 -1.2663
47864SOL     OW49554   1.791   6.289   0.795 -0.2631 -0.4718  0.6232
47864SOL    HW149555   1.702   6.286   0.830 -0.1390 -0.7227  0.9146
47864SOL    HW249556   1.786   6.352   0.723 -1.6089 -3.2414 -1.9309
47865SOL     OW49557   8.793   3.850   0.485 -0.3479 -0.1011 -0.3543
47865SOL    HW149558   8.813   3.903   0.408  0.2584  1.2073  0.6718
47865SOL    HW249559   8.748   3.910   0.544  0.1697 -0.7775  0.7527
47866SOL     OW49560   2.671   5.958   4.575  0.2471  0.0535  0.5519
47866SOL    HW149561   2.588   5.947   4.529 -0.1645 -1.3807  1.5769
47866SOL    HW249562   2.676   6.052   4.593  0.1631  0.5846 -1.8689
47867SOL     OW49563   9.447  10.901   1.418  0.8593  1.1021  0.8059
47867SOL    HW149564   9.395  10.828   1.451  3.9275  0.1669  4.2019
47867SOL    HW249565   9.470  10.875   1.329 -1.0625 -0.3120  0.6563
47868SOL     OW49566   2.894   3.027   1.870 -0.1307  0.2896  0.3739
47868SOL    HW149567   2.961   3.043   1.804  0.8637 -1.0801  0.9997
47868SOL    HW249568   2.880   3.112   1.912  1.2284  0.5982  0.2440
47869SOL     OW49569   9.576   7.132   8.786  0.4217 -0.3997  0.0209
47869SOL    HW149570   9.594   7.208   8.731  0.0493 -0.5263 -0.2816
47869SOL    HW249571   9.512   7.081   8.736  1.5737 -1.5270 -0.3368
47870SOL     OW49572  10.182   4.159   6.392  0.0607 -0.2844 -0.1218
47870SOL    HW149573  10.120   4.086   6.389  0.2868 -0.4823  0.0544
47870SOL    HW249574  10.169   4.204   6.308  0.4376 -0.9483 -0.5413
47871SOL     OW49575   3.722   6.787   4.269 -0.2968  0.4285  0.1126
47871SOL    HW149576   3.740   6.871   4.227 -1.3910  1.0806  0.9211
47871SOL    HW249577   3.713   6.725   4.196  0.7373  0.9487 -0.4792
47872SOL     OW49578   7.976   7.158   3.229  0.5094  0.0763  0.5828
47872SOL    HW149579   7.993   7.168   3.322  1.9971 -0.5202  0.4114
47872SOL    HW249580   7.954   7.065   3.219 -2.2674  0.6441  0.6636
47873SOL     OW49581   7.487   4.001   6.968 -0.4650 -0.0568 -0.9127
47873SOL    HW149582   7.490   3.964   7.056 -0.4381  0.2017 -0.8044
47873SOL    HW249583   7.499   3.925   6.910  1.8613  0.0431 -0.6625
47874SOL     OW49584   5.567   8.365   8.929 -0.1306 -0.2528  0.2719
47874SOL    HW149585   5.622   8.307   8.983 -0.0586  1.2222  1.8926
47874SOL    HW249586   5.544   8.312   8.852  1.3160 -1.8274  0.8505
47875SOL     OW49587   9.103   8.792  12.098  0.4293 -0.0579 -0.3300
47875SOL    HW149588   9.156   8.764  12.172  0.6779  0.4809 -0.2985
47875SOL    HW249589   9.160   8.851  12.049  0.8516 -1.6736 -1.8626
47876SOL     OW49590   1.703  10.217  11.797 -0.4357  0.1498 -0.0873
47876SOL    HW149591   1.635  10.152  11.816  0.1048 -1.5980 -3.4166
47876SOL    HW249592   1.655  10.300  11.792 -1.9079 -0.6613 -0.0157
47877SOL     OW49593   0.061   8.348   2.912  0.4110 -0.1659 -0.4267
47877SOL    HW149594  -0.017   8.334   2.859  0.0760  0.1012 -0.0053
47877SOL    HW249595   0.076   8.442   2.909  0.2105 -0.1106  0.1993
47878SOL     OW49596   7.159   8.162  11.621 -0.3578  0.0552  0.2084
47878SOL    HW149597   7.154   8.244  11.670 -0.0683  1.0736 -1.3940
47878SOL    HW249598   7.253   8.147  11.608 -0.4209 -0.3266  0.1714
47879SOL     OW49599   5.956   2.963   0.753 -0.1214 -0.4867  0.3118
47879SOL    HW149600   6.037   2.991   0.710 -0.0018 -0.7292  0.3728
47879SOL    HW249601   5.942   2.873   0.721  0.6711 -1.1622  1.7604
47880SOL     OW49602   1.879   2.762   6.053  0.3906  0.1136 -0.4711
47880SOL    HW149603   1.972   2.755   6.073  0.1467 -1.4499  0.2554
47880SOL    HW249604   1.874   2.747   5.958  0.8906  0.5335 -0.5700
47881SOL     OW49605  11.307   4.323   9.225  0.2872 -0.0727  0.2279
47881SOL    HW149606  11.326   4.295   9.135 -2.8184 -1.5809 -0.1215
47881SOL    HW249607  11.262   4.406   9.215  0.3842  0.0032  0.4242
47882SOL     OW49608   3.397   7.012   0.470  0.1419 -0.4581  0.0152
47882SOL    HW149609   3.369   7.075   0.535 -2.0298 -0.2952 -0.9762
47882SOL    HW249610   3.318   6.960   0.452  0.9932 -1.2745 -1.5703
47883SOL     OW49611   9.867   0.026  12.235  0.0307  0.2253  0.1754
47883SOL    HW149612   9.927   0.083  12.283  1.5990 -1.5661  0.4880
47883SOL    HW249613   9.919  -0.006  12.161 -0.7219 -0.9090  0.1116
47884SOL     OW49614  11.448   3.877   9.894 -0.0548 -0.2032 -0.1617
47884SOL    HW149615  11.401   3.804   9.853  0.3198 -0.0259 -0.9281
47884SOL    HW249616  11.431   3.952   9.837 -0.1968  0.2487  0.4614
47885SOL     OW49617   2.067   9.298   6.949  0.2979  0.3621  0.1459
47885SOL    HW149618   2.130   9.307   6.877  0.1839 -2.3525 -0.4204
47885SOL    HW249619   1.988   9.344   6.919  1.1818  1.7245 -0.1690
47886SOL     OW49620  11.169   3.384   4.870  0.1690 -0.2853  0.3314
47886SOL    HW149621  11.188   3.386   4.964  0.7847  0.6829  0.1935
47886SOL    HW249622  11.118   3.464   4.854  0.4339 -0.2264 -0.2347
47887SOL     OW49623   1.677   8.382   3.369  0.2457 -0.4651  0.2502
47887SOL    HW149624   1.745   8.433   3.412  0.7366 -0.0191 -1.0191
47887SOL    HW249625   1.724   8.311   3.325 -0.3672 -1.6649  1.4570
47888SOL     OW49626   6.100   4.715   9.074 -0.0616  0.7951  0.5290
47888SOL    HW149627   6.038   4.723   9.147 -0.2265  1.0319  0.3659
47888SOL    HW249628   6.143   4.801   9.070  0.2967  0.6208  0.6598
47889SOL     OW49629   4.902  10.489   3.351 -0.2572 -0.1004 -0.3715
47889SOL    HW149630   4.856  10.541   3.286 -0.9923 -1.2505 -0.8046
47889SOL    HW249631   4.834  10.459   3.411  0.1933 -0.3435  0.0312
47890SOL     OW49632   2.709   1.196   5.757  0.3254  0.0432  0.5897
47890SOL    HW149633   2.634   1.178   5.700  1.5461 -3.2450 -0.2075
47890SOL    HW249634   2.699   1.136   5.830  1.7242  0.1834  0.9232
47891SOL     OW49635   1.522   5.876   8.062 -0.0197 -0.0468  0.1794
47891SOL    HW149636   1.505   5.841   8.149  2.9398 -1.0825  0.4433
47891SOL    HW249637   1.616   5.862   8.048 -0.4298 -0.1636 -3.3037
47892SOL     OW49638  10.393   4.874   7.705  0.0248 -0.0118 -0.3358
47892SOL    HW149639  10.447   4.835   7.775  0.5634 -0.6292 -1.0749
47892SOL    HW249640  10.303   4.861   7.735  0.2448 -0.2893  0.2350
47893SOL     OW49641   4.594  11.713  11.138  0.0149  0.4558 -0.0905
47893SOL    HW149642   4.607  11.783  11.073  2.4591  0.2386  0.0634
47893SOL    HW249643   4.599  11.632  11.087  0.6051  0.3253  0.1651
47894SOL     OW49644   7.289   7.364   0.874  0.1676  0.7326  0.5453
47894SOL    HW149645   7.315   7.372   0.966  0.3923 -0.3590  0.5959
47894SOL    HW249646   7.313   7.274   0.851  0.7169  1.2136 -0.7758
47895SOL     OW49647   5.216   3.898   2.475  0.5851 -0.0289  0.4046
47895SOL    HW149648   5.306   3.866   2.477  0.5635 -0.0770  0.8134
47895SOL    HW249649   5.172   3.848   2.544 -0.0978 -0.9971 -0.6813
47896SOL     OW49650   9.764   9.684   4.616 -0.0353  0.7377 -0.0283
47896SOL    HW149651   9.701   9.617   4.587  1.1337 -0.4608  0.0767
47896SOL    HW249652   9.830   9.634   4.664  1.6690  1.7710 -1.2077
47897SOL     OW49653  10.410  11.176  10.435 -0.1001  0.3503  1.0844
47897SOL    HW149654  10.326  11.210  10.465 -0.3572 -0.5441  1.4191
47897SOL    HW249655  10.421  11.094  10.484  0.7752  0.2603  0.7472
47898SOL     OW49656  10.137   9.562   9.395  0.1775  0.2503 -0.0149
47898SOL    HW149657  10.102   9.510   9.467  0.9768 -1.7007 -0.9749
47898SOL    HW249658  10.069   9.559   9.328 -0.2262  1.4011  0.3098
47899SOL     OW49659  11.096  10.085   5.081 -0.3126 -0.0475 -0.0426
47899SOL    HW149660  11.033  10.153   5.058 -0.1147  0.6071  1.2657
47899SOL    HW249661  11.169  10.132   5.121  0.0817 -0.9702  0.3606
47900SOL     OW49662   7.479   5.123   9.976  0.1507  0.6518 -0.0612
47900SOL    HW149663   7.406   5.159  10.026  0.0181  0.9837 -0.4891
47900SOL    HW249664   7.476   5.028   9.992 -0.3502  0.6708 -0.0522
47901SOL     OW49665  12.236   1.197  10.625 -0.2433  0.5925 -0.2021
47901SOL    HW149666  12.142   1.189  10.611 -0.3326 -0.5745  0.8672
47901SOL    HW249667  12.252   1.292  10.625 -1.1327  0.7867 -1.9553
47902SOL     OW49668   4.784   8.112  10.377 -0.2569 -0.0615  0.1641
47902SOL    HW149669   4.712   8.146  10.430 -0.2324 -0.2847  0.3436
47902SOL    HW249670   4.769   8.147  10.289  0.0841  0.8882  0.4665
47903SOL     OW49671   8.347  11.745   0.853 -0.1498 -0.0865 -0.3287
47903SOL    HW149672   8.276  11.706   0.801  0.4033  1.3765 -2.3074
47903SOL    HW249673   8.350  11.836   0.824  1.4394  0.3237  0.9848
47904SOL     OW49674  10.416   5.851   7.282 -0.3989  0.1493  0.1511
47904SOL    HW149675  10.347   5.848   7.348 -0.2287  2.2772  0.5025
47904SOL    HW249676  10.425   5.944   7.261  0.8077 -0.2995 -1.5596
47905SOL     OW49677   4.400   2.458  11.908  0.3037  0.2940  0.3149
47905SOL    HW149678   4.436   2.501  11.830 -0.2200  2.0818  1.0038
47905SOL    HW249679   4.306   2.478  11.904 -0.0294 -1.1816  0.4572
47906SOL     OW49680   0.329   1.426   2.717  0.3583  0.0257 -0.5230
47906SOL    HW149681   0.269   1.392   2.783  0.4362 -1.4092 -1.1504
47906SOL    HW249682   0.276   1.435   2.638  1.0457 -1.8734 -1.2646
47907SOL     OW49683   3.010   4.952   3.645 -0.0850  0.5032  0.0452
47907SOL    HW149684   3.014   4.921   3.735  1.4245 -0.9046 -0.4535
47907SOL    HW249685   3.102   4.957   3.617 -0.5519 -0.8055 -1.9417
47908SOL     OW49686  10.803   6.484   1.458  1.5440 -0.2830  0.5810
47908SOL    HW149687  10.795   6.469   1.364  1.3485  0.0420  0.5429
47908SOL    HW249688  10.849   6.407   1.491  0.2070 -1.1766  0.4626
47909SOL     OW49689   6.084   0.728   0.054  0.5616 -0.1519  0.3980
47909SOL    HW149690   6.075   0.823   0.039 -1.6418 -0.5872 -1.5602
47909SOL    HW249691   5.998   0.702   0.088  0.4822 -1.7474 -0.9647
47910SOL     OW49692   7.428   0.871   3.297 -0.1898 -0.3651  0.1163
47910SOL    HW149693   7.406   0.960   3.270  0.0244  0.6310  2.9343
47910SOL    HW249694   7.343   0.827   3.305 -0.3187 -0.3281 -0.8702
47911SOL     OW49695   7.731  10.161   1.612 -0.6887 -0.1484  0.3929
47911SOL    HW149696   7.750  10.067   1.613 -0.0672 -0.0292  0.3753
47911SOL    HW249697   7.683  10.175   1.531  1.0193 -0.1277 -0.6587
47912SOL     OW49698   9.821   5.500  11.508 -0.1971 -0.1371 -1.0044
47912SOL    HW149699   9.814   5.582  11.460 -1.0515  0.3232 -0.1378
47912SOL    HW249700   9.912   5.473  11.497  1.4726  3.2023  2.2304
47913SOL     OW49701   0.534   0.857   4.885  0.3222  0.4482 -0.3793
47913SOL    HW149702   0.569   0.769   4.889  1.2372  0.8360  0.8457
47913SOL    HW249703   0.440   0.845   4.869  0.1813 -0.8145  1.1242
47914SOL     OW49704   8.506   5.314   3.611  0.4408  0.3229 -0.2755
47914SOL    HW149705   8.558   5.329   3.690 -1.5325  1.0379  0.9478
47914SOL    HW249706   8.514   5.396   3.562 -0.5348  0.9219  0.5357
47915SOL     OW49707   6.210   2.111   7.336  0.0278 -0.1822 -0.2479
47915SOL    HW149708   6.157   2.063   7.400  1.4202 -0.9845  0.3547
47915SOL    HW249709   6.177   2.201   7.340 -0.1067 -0.2838  1.3896
47916SOL     OW49710   3.534   1.687   6.043  0.0488  0.4239  0.4023
47916SOL    HW149711   3.538   1.609   5.988  2.0653  0.8843 -0.1705
47916SOL    HW249712   3.586   1.753   5.997 -0.6856  1.7710  1.4100
47917SOL     OW49713  12.177   0.876   9.126 -0.2732  0.2569  0.3327
47917SOL    HW149714  12.100   0.902   9.076 -0.0547 -1.8917 -1.2705
47917SOL    HW249715  12.152   0.888   9.217 -1.8356  1.3285 -0.2032
47918SOL     OW49716   9.557   7.861   6.251 -0.0721 -0.6962  0.2373
47918SOL    HW149717   9.470   7.866   6.291  0.2009 -2.7045  1.2116
47918SOL    HW249718   9.617   7.889   6.320  0.1243  0.2777 -0.2996
47919SOL     OW49719  11.659   8.528   7.357  0.1899 -0.2130  0.2084
47919SOL    HW149720  11.689   8.461   7.297  0.3868  0.1905 -0.1481
47919SOL    HW249721  11.737   8.580   7.377 -0.5143  1.9658 -2.1445
47920SOL     OW49722  10.560   9.960   1.440 -0.2998  0.4467 -0.3267
47920SOL    HW149723  10.484   9.942   1.495 -0.0714  0.3188 -0.0544
47920SOL    HW249724  10.529  10.026   1.378 -0.6558  0.3338 -0.2698
47921SOL     OW49725   5.909  10.957   0.107 -0.2488 -0.6001 -0.1013
47921SOL    HW149726   5.904  10.863   0.124 -0.1445 -0.5413  0.2657
47921SOL    HW249727   5.978  10.988   0.166  0.1507 -0.3942 -0.6603
47922SOL     OW49728   1.691   1.313   8.781  0.0907 -0.0362  0.2350
47922SOL    HW149729   1.720   1.227   8.752 -0.5040  0.2364 -1.3263
47922SOL    HW249730   1.691   1.366   8.701  0.4916  1.4270  1.1671
47923SOL     OW49731   6.515   0.502  12.022  0.3583 -0.5752  0.1581
47923SOL    HW149732   6.473   0.474  11.941 -0.4582  1.1301 -0.0388
47923SOL    HW249733   6.604   0.468  12.015  1.2595  1.9241 -2.8355
47924SOL     OW49734   2.616   5.087   2.530  0.1579 -0.3025 -0.1698
47924SOL    HW149735   2.635   5.058   2.441  1.1358 -0.8928  0.2229
47924SOL    HW249736   2.619   5.007   2.582  2.6598  0.4173  0.9001
47925SOL     OW49737   8.805  11.523  11.467 -0.1733  0.4358 -0.6317
47925SOL    HW149738   8.807  11.615  11.491 -1.0892  0.9513 -2.3342
47925SOL    HW249739   8.891  11.506  11.429 -0.0089  0.5911 -0.3295
47926SOL     OW49740  11.128   3.491  12.032 -0.7895 -0.5002  0.2642
47926SOL    HW149741  11.144   3.499  11.938 -2.2062  0.3040  0.0665
47926SOL    HW249742  11.057   3.427  12.039 -1.8490  0.6920  0.6563
47927SOL     OW49743   2.484   4.476   9.767  0.2858 -0.0769 -0.2390
47927SOL    HW149744   2.474   4.384   9.791 -1.7751  0.3463  0.7275
47927SOL    HW249745   2.552   4.508   9.826  0.3310 -0.7444  0.0859
47928SOL     OW49746   1.513  10.794   2.011  0.1270 -0.1862  0.0193
47928SOL    HW149747   1.472  10.770   1.929  0.7393 -2.6645  0.3301
47928SOL    HW249748   1.463  10.747   2.078  1.4803 -0.7329  0.7050
47929SOL     OW49749   7.782   0.284   6.803  0.4868 -0.0656  0.3037
47929SOL    HW149750   7.775   0.254   6.712  2.4950 -1.8210  0.6324
47929SOL    HW249751   7.698   0.262   6.843 -1.8474  3.9137 -1.8497
47930SOL     OW49752   7.089   2.960   4.623 -0.3047  0.4312 -0.3420
47930SOL    HW149753   7.182   2.958   4.597 -0.3416  2.1524 -0.7348
47930SOL    HW249754   7.081   3.039   4.676 -2.2569  2.5069 -3.4093
47931SOL     OW49755   1.364   4.514   2.520  0.3165 -0.1438 -0.5416
47931SOL    HW149756   1.397   4.442   2.574  0.6152 -1.4175 -2.3345
47931SOL    HW249757   1.272   4.493   2.505  0.1839  0.3079 -0.3827
47932SOL     OW49758  11.963   4.757   0.190  0.0227  0.0269 -0.1607
47932SOL    HW149759  12.041   4.803   0.221  0.1187  0.0383 -0.4131
47932SOL    HW249760  11.973   4.756   0.094 -0.4193  0.2620 -0.2089
47933SOL     OW49761  11.578  11.979  12.237  0.1685 -0.7640  0.1585
47933SOL    HW149762  11.549  11.966  12.327 -1.1106 -1.3747 -0.3141
47933SOL    HW249763  11.593  12.073  12.230 -0.0842 -0.6594  0.9076
47934SOL     OW49764  10.993   4.599  10.689  0.2715 -0.4819  0.0818
47934SOL    HW149765  11.080   4.638  10.685  0.5618 -0.9484  1.3661
47934SOL    HW249766  10.934   4.674  10.701  0.8207 -0.3455  2.5137
47935SOL     OW49767   3.867   3.006   7.107 -0.1432  0.1558  0.7481
47935SOL    HW149768   3.914   3.073   7.057  1.0160 -0.7356  0.6000
47935SOL    HW249769   3.926   2.931   7.108 -1.0967 -0.6126  1.5576
47936SOL     OW49770   3.691   0.211   5.454 -0.0396  0.2478 -0.1127
47936SOL    HW149771   3.709   0.197   5.547 -0.2814 -0.1595 -0.1218
47936SOL    HW249772   3.612   0.160   5.437  0.4957 -0.3950 -0.7431
47937SOL     OW49773  11.651   5.526   4.082  0.0849  0.2920 -0.7304
47937SOL    HW149774  11.567   5.562   4.054  0.7892  1.7943 -1.0060
47937SOL    HW249775  11.637   5.432   4.083 -2.1058  0.5582  0.8678
47938SOL     OW49776   6.400   5.669   6.524 -0.4605 -0.2844 -0.0227
47938SOL    HW149777   6.460   5.617   6.577 -1.8413 -3.1271 -1.0226
47938SOL    HW249778   6.401   5.625   6.439 -2.2344  0.9687 -0.7279
47939SOL     OW49779   3.575   5.101   1.564 -0.1820 -0.2680 -0.6311
47939SOL    HW149780   3.577   5.059   1.478  0.1897 -1.2775 -0.1455
47939SOL    HW249781   3.486   5.085   1.596 -0.6557  1.0330 -1.2631
47940SOL     OW49782   3.039   4.929   1.036 -0.2066 -0.0905  0.4895
47940SOL    HW149783   3.070   5.002   0.982 -1.8796  1.6691  1.7391
47940SOL    HW249784   3.089   4.853   1.006  1.1219  1.4209 -1.3562
47941SOL     OW49785   0.997   7.833   3.858  0.2438  0.1012 -0.0611
47941SOL    HW149786   0.941   7.800   3.928  3.6416 -1.4329  2.2023
47941SOL    HW249787   0.985   7.928   3.862 -0.9376 -0.0636  1.4779
47942SOL     OW49788   5.444   7.478   4.047  0.0471  0.5619  0.4308
47942SOL    HW149789   5.456   7.572   4.063  2.5337 -0.1427  3.7394
47942SOL    HW249790   5.532   7.445   4.027 -0.9956 -0.9667 -2.2379
47943SOL     OW49791   2.681  11.089   9.599  0.5687  0.0179 -0.4576
47943SOL    HW149792   2.742  11.067   9.528  0.3279 -1.0762 -0.3549
47943SOL    HW249793   2.735  11.087   9.678  0.0502 -3.5599  0.0030
47944SOL     OW49794   5.467  10.405   7.498  0.0150  0.0168 -0.3919
47944SOL    HW149795   5.457  10.398   7.593  2.9670 -0.9281 -0.0694
47944SOL    HW249796   5.401  10.345   7.463  0.3005 -1.2873  1.1677
47945SOL     OW49797   8.380  10.549   9.598  0.1907 -0.3967 -0.1114
47945SOL    HW149798   8.369  10.507   9.513  0.3756 -1.6165  0.4477
47945SOL    HW249799   8.459  10.508   9.635  0.1374  0.1497  0.6237
47946SOL     OW49800   1.561   9.710   5.687 -0.5971 -0.1482 -0.4033
47946SOL    HW149801   1.504   9.633   5.686 -0.0007 -0.6174 -2.5281
47946SOL    HW249802   1.520   9.769   5.751 -0.6410 -2.4820  1.9051
47947SOL     OW49803  10.118   4.006   2.411 -0.3960  1.1609  0.4694
47947SOL    HW149804  10.132   4.101   2.412  0.9805  0.9765  1.4291
47947SOL    HW249805  10.200   3.969   2.444 -1.3164 -0.3185  1.2071
47948SOL     OW49806   8.732   0.525  10.673 -0.0952 -0.5867 -0.0144
47948SOL    HW149807   8.678   0.449  10.693  0.5753 -0.7347  1.3635
47948SOL    HW249808   8.799   0.491  10.613  0.7379 -1.3220  1.2956
47949SOL     OW49809  11.468  12.486   2.098 -0.7090  0.3301 -0.3842
47949SOL    HW149810  11.423  12.420   2.151 -1.2242 -0.0453 -1.2607
47949SOL    HW249811  11.495  12.553   2.160 -1.3571 -0.0680  0.3351
47950SOL     OW49812   2.112   3.322  10.764  0.0383  0.0587  0.7374
47950SOL    HW149813   2.158   3.377  10.700  1.9741 -0.3707  1.7058
47950SOL    HW249814   2.147   3.234  10.751 -1.1173 -0.4619  0.9765
47951SOL     OW49815   7.287  12.303   9.980 -0.0142  0.2247 -0.4828
47951SOL    HW149816   7.228  12.230   9.959 -0.8287  0.6966  0.1352
47951SOL    HW249817   7.249  12.344  10.057  0.7351  0.9884 -0.5038
47952SOL     OW49818   1.542   9.183   5.901 -0.1265 -0.1201  0.3599
47952SOL    HW149819   1.591   9.101   5.899  0.2352  0.1033 -0.2706
47952SOL    HW249820   1.451   9.156   5.917 -0.4471 -0.8852 -2.2449
47953SOL     OW49821   0.220  10.251   1.983  0.4621 -0.1347  0.0401
47953SOL    HW149822   0.305  10.273   1.945  0.1585 -0.6165 -0.9560
47953SOL    HW249823   0.156  10.273   1.915 -0.2590  0.5769  0.9187
47954SOL     OW49824   9.222   7.909   5.435 -0.0075 -0.5185  0.2854
47954SOL    HW149825   9.206   7.878   5.524 -1.0798  1.0274  0.6813
47954SOL    HW249826   9.178   7.994   5.431  2.4946  0.8417 -0.8047
47955SOL     OW49827  11.849   1.643  12.087  0.1523 -0.5301  0.3223
47955SOL    HW149828  11.897   1.628  12.005 -1.1315 -1.2413 -0.3224
47955SOL    HW249829  11.897   1.591  12.152  0.1144 -1.4406 -0.3593
47956SOL     OW49830   3.244   3.095   2.295 -0.2047 -0.3513 -0.0969
47956SOL    HW149831   3.180   3.144   2.348 -0.1033 -0.6751  0.3335
47956SOL    HW249832   3.220   3.004   2.307  1.7353 -0.6918  2.0396
47957SOL     OW49833   2.455   0.035   7.444 -0.4179 -0.3572  0.1367
47957SOL    HW149834   2.546   0.032   7.474 -0.0797 -1.5317 -0.8940
47957SOL    HW249835   2.429  -0.057   7.437 -1.5710 -0.0431  0.0679
47958SOL     OW49836  11.619   7.405   2.702 -0.4986  0.0073  0.3580
47958SOL    HW149837  11.678   7.481   2.704  0.5332 -0.7869  0.3625
47958SOL    HW249838  11.531   7.444   2.705  0.0122  1.2004  0.4689
47959SOL     OW49839   6.557   6.690   0.579  0.4456 -0.4964  0.5435
47959SOL    HW149840   6.602   6.721   0.657 -0.5208  0.8344  0.5989
47959SOL    HW249841   6.471   6.731   0.582  0.2943 -0.5926 -1.0939
47960SOL     OW49842  11.099  11.647  12.380  0.0411  0.4793  0.2809
47960SOL    HW149843  11.031  11.605  12.327  0.4002  0.5271 -0.2273
47960SOL    HW249844  11.060  11.729  12.409  0.2533  1.0384 -0.9415
47961SOL     OW49845   1.491   6.363   9.516 -0.4182  0.6789  0.1882
47961SOL    HW149846   1.453   6.431   9.572  0.5555  1.8984 -0.6104
47961SOL    HW249847   1.524   6.298   9.578 -1.7896  0.6563  0.9496
47962SOL     OW49848  10.415   0.769  10.311 -0.0366 -0.6543  0.1843
47962SOL    HW149849  10.419   0.805  10.223 -2.5440  1.3739  0.7706
47962SOL    HW249850  10.371   0.684  10.301  0.6036 -0.9026 -0.5936
47963SOL     OW49851   8.307   8.021   5.012 -0.1327 -0.1760  0.4413
47963SOL    HW149852   8.229   7.979   4.976 -1.4560  1.1832  1.5385
47963SOL    HW249853   8.335   8.083   4.945 -2.1718  1.8532  1.3281
47964SOL     OW49854   9.686   6.858   4.884  0.2981  0.0987 -0.1878
47964SOL    HW149855   9.677   6.934   4.941 -0.9285  0.2989 -0.6287
47964SOL    HW249856   9.623   6.872   4.814  0.0297 -1.3371 -0.2638
47965SOL     OW49857   6.789  12.267   6.501 -0.2766 -0.2749 -0.0298
47965SOL    HW149858   6.718  12.329   6.519  0.3986  0.6519 -0.4564
47965SOL    HW249859   6.869  12.320   6.510  0.3333 -1.1545 -0.1588
47966SOL     OW49860  11.340   9.383  11.705 -0.2254 -0.3743 -0.0110
47966SOL    HW149861  11.367   9.470  11.732 -1.5653 -0.0037  0.2194
47966SOL    HW249862  11.282   9.397  11.630  0.2694 -1.1307 -0.5550
47967SOL     OW49863   4.216  11.385   2.264 -0.1634  0.3118 -0.3041
47967SOL    HW149864   4.182  11.306   2.221  0.7124 -0.7758  0.9234
47967SOL    HW249865   4.161  11.456   2.230 -0.4246 -0.6799 -2.0948
47968SOL     OW49866   4.034   7.966   2.989  0.4233  0.1209 -0.1848
47968SOL    HW149867   4.105   8.030   2.990  1.1308 -0.6575  0.7820
47968SOL    HW249868   4.078   7.882   2.972 -0.3471 -0.2692 -0.2757
47969SOL     OW49869   6.338   3.369   1.766 -0.0024 -0.1493 -0.2588
47969SOL    HW149870   6.333   3.281   1.805 -0.3269  0.5309  1.3228
47969SOL    HW249871   6.405   3.414   1.818 -1.0188  1.0499  0.0628
47970SOL     OW49872   1.370   8.569  12.062  0.7264 -0.3481  0.0707
47970SOL    HW149873   1.309   8.533  12.127 -0.4622 -0.3579 -1.0157
47970SOL    HW249874   1.317   8.629  12.009  1.7400 -0.1047 -0.7043
47971SOL     OW49875   0.422  10.306   6.449  1.2128  0.4865 -0.7411
47971SOL    HW149876   0.446  10.221   6.485  2.1695  0.0247 -2.3546
47971SOL    HW249877   0.464  10.369   6.508  1.2487 -0.1750 -0.0400
47972SOL     OW49878   4.101   8.753   9.034 -0.0649  0.0767  0.4294
47972SOL    HW149879   4.191   8.736   9.060 -0.8623 -2.7066  1.8999
47972SOL    HW249880   4.086   8.694   8.960 -0.7215  0.3314  0.3554
47973SOL     OW49881   8.690  10.413   3.752 -0.2149 -0.3882  0.3577
47973SOL    HW149882   8.614  10.384   3.803  0.2169 -0.5132  0.9513
47973SOL    HW249883   8.686  10.508   3.756 -0.6865 -0.3845 -0.1438
47974SOL     OW49884   4.312   1.514   6.233 -0.3568 -0.2369  0.2381
47974SOL    HW149885   4.224   1.479   6.243  1.1971 -4.3544  1.7719
47974SOL    HW249886   4.347   1.516   6.322  1.5141  0.0266 -0.4579
47975SOL     OW49887   7.545   3.167   0.915 -0.1492  0.3475 -0.3951
47975SOL    HW149888   7.554   3.140   0.823  0.7891  1.1190 -0.5454
47975SOL    HW249889   7.556   3.262   0.913 -0.4928  0.4137  0.4803
47976SOL     OW49890   2.334  10.888  10.906 -0.3587 -0.4974 -0.0346
47976SOL    HW149891   2.345  10.901  10.812  1.0570  1.9967  0.3964
47976SOL    HW249892   2.398  10.820  10.928 -1.5269 -1.9793 -0.9899
47977SOL     OW49893   4.566   1.510   3.293  0.0078  0.6903 -0.1679
47977SOL    HW149894   4.475   1.480   3.302  0.1217  0.2549 -0.4129
47977SOL    HW249895   4.562   1.604   3.308 -0.5385  0.7228 -0.4946
47978SOL     OW49896   1.848   6.823   1.783  0.2114 -0.5245 -0.0202
47978SOL    HW149897   1.934   6.780   1.787  0.8474  0.7618  1.0963
47978SOL    HW249898   1.789   6.762   1.828  0.4607 -1.5578 -1.0523
47979SOL     OW49899   7.406   0.617   9.497  1.1728  0.1014 -0.2631
47979SOL    HW149900   7.440   0.687   9.553 -0.2344  0.1247  0.6103
47979SOL    HW249901   7.425   0.537   9.545 -2.3737  0.2488  1.6951
47980SOL     OW49902   4.985   9.564  10.787 -0.4593 -0.1355 -0.2923
47980SOL    HW149903   5.043   9.637  10.766  0.1731 -0.2582  0.9671
47980SOL    HW249904   4.917   9.567  10.719 -0.7546  1.9613  0.0418
47981SOL     OW49905  11.369   2.493   4.371  0.2781 -0.3606 -0.0676
47981SOL    HW149906  11.312   2.418   4.359  0.0822 -0.0940 -0.8001
47981SOL    HW249907  11.456   2.462   4.345  0.1717 -0.2892 -0.5037
47982SOL     OW49908   6.340   8.197   9.753 -0.3505 -0.2958 -0.0242
47982SOL    HW149909   6.337   8.108   9.790 -2.8558 -0.4392 -0.3771
47982SOL    HW249910   6.321   8.254   9.828  0.2631 -0.1353  0.0095
47983SOL     OW49911  11.107   7.066   1.225 -0.0958  0.2486  0.1689
47983SOL    HW149912  11.107   7.132   1.295  0.1220  0.7449 -0.2888
47983SOL    HW249913  11.109   6.982   1.271  2.5536  0.5479  0.7829
47984SOL     OW49914   7.143   7.929   3.938 -0.2611  0.2348  0.1222
47984SOL    HW149915   7.183   8.003   3.892  0.3455  0.9325  1.6909
47984SOL    HW249916   7.059   7.916   3.895  0.4136  0.6371 -1.3720
47985SOL     OW49917   7.251   4.132   9.717 -0.6074 -0.0683 -0.2208
47985SOL    HW149918   7.200   4.051   9.708 -0.3486 -0.2830  0.2030
47985SOL    HW249919   7.331   4.105   9.763 -0.3287  0.3533 -0.4494
47986SOL     OW49920  10.010   9.065   3.290 -0.1519 -0.4020  0.6037
47986SOL    HW149921   9.968   9.149   3.271  0.6290 -0.5065 -1.8948
47986SOL    HW249922  10.008   9.058   3.385 -5.7161 -0.3493  0.8388
47987SOL     OW49923   1.628  10.724   2.392  0.3453 -0.4035 -0.4808
47987SOL    HW149924   1.562  10.655   2.395  0.3031 -0.3437  0.8650
47987SOL    HW249925   1.682  10.709   2.470  0.2337  1.1573 -0.0631
47988SOL     OW49926   8.294   6.181   9.592  0.3586  0.0202  0.5128
47988SOL    HW149927   8.325   6.236   9.663  0.0661  0.0876  0.5919
47988SOL    HW249928   8.279   6.095   9.632 -1.5356  0.5176  0.9590
47989SOL     OW49929   0.022  11.231   0.724  0.6400  0.0864  0.0614
47989SOL    HW149930  -0.066  11.250   0.756  1.3150  2.3981  0.7183
47989SOL    HW249931   0.020  11.255   0.632  1.0400  2.0328  0.5124
47990SOL     OW49932   4.628   4.489   7.917  0.4146  0.0874  0.0425
47990SOL    HW149933   4.716   4.490   7.955  0.5941 -1.3253 -0.3001
47990SOL    HW249934   4.613   4.580   7.891  2.1094  0.2102 -0.6618
47991SOL     OW49935  10.923   7.391  10.700  0.4332  0.1416 -0.1777
47991SOL    HW149936  10.963   7.324  10.756  2.3356  1.1133 -0.2838
47991SOL    HW249937  10.889   7.456  10.761 -1.0237 -0.6524 -0.0888
47992SOL     OW49938   1.072   6.854   1.644  0.1348 -0.6618  0.1112
47992SOL    HW149939   1.158   6.885   1.618 -0.2913 -0.2369 -0.8378
47992SOL    HW249940   1.041   6.918   1.708 -0.8494  1.1541 -2.0205
47993SOL     OW49941   0.362   8.311  11.896  0.0283 -0.3251  0.1104
47993SOL    HW149942   0.338   8.403  11.886  1.3177  0.0905  0.5750
47993SOL    HW249943   0.298   8.276  11.958  0.2613  0.5980  0.9047
47994SOL     OW49944   2.379  11.013  11.908 -0.3341 -0.5637 -0.1288
47994SOL    HW149945   2.301  11.068  11.904  0.2145  0.1738 -1.7575
47994SOL    HW249946   2.439  11.061  11.967  0.3227  0.9146 -1.9031
47995SOL     OW49947   2.415   0.410   3.536  0.1990 -0.0333  0.4676
47995SOL    HW149948   2.471   0.384   3.463 -0.4445 -0.2106  0.0221
47995SOL    HW249949   2.338   0.353   3.528 -0.8913  1.4456 -0.0392
47996SOL     OW49950   5.057   6.250   9.240 -0.0509  0.1750  0.0778
47996SOL    HW149951   5.112   6.212   9.170  0.1445  1.5636 -0.5523
47996SOL    HW249952   4.979   6.195   9.242  0.8060 -1.0950  0.1475
47997SOL     OW49953   6.787   1.168   0.862  0.1172 -0.0589 -0.3669
47997SOL    HW149954   6.760   1.238   0.803  1.1172  0.4158 -0.2716
47997SOL    HW249955   6.881   1.181   0.874  0.0533 -0.5681  0.7829
47998SOL     OW49956   6.704   6.281   4.518  0.0142  0.0683  0.0295
47998SOL    HW149957   6.708   6.275   4.422  0.8349 -1.7132  0.1198
47998SOL    HW249958   6.611   6.270   4.539  0.0849 -2.0058 -0.5039
47999SOL     OW49959   6.343  10.490   2.699  0.1074  0.3909  0.0799
47999SOL    HW149960   6.310  10.550   2.632  1.2743  0.7129 -0.2260
47999SOL    HW249961   6.415  10.537   2.740  0.6687 -0.5773  0.2297
48000SOL     OW49962   0.881   0.371   4.598  0.2228 -0.1025 -0.3382
48000SOL    HW149963   0.877   0.380   4.694 -0.9282  1.5763 -0.5163
48000SOL    HW249964   0.811   0.309   4.577  0.7659 -0.8225 -0.0781
48001SOL     OW49965   7.770   1.531  12.125 -0.1804  0.2931 -0.1428
48001SOL    HW149966   7.811   1.616  12.143  0.5340 -0.0559 -0.0676
48001SOL    HW249967   7.837   1.482  12.077 -0.6142 -0.1998 -0.2552
48002SOL     OW49968  12.264   0.961   1.325 -0.0981  0.1376  0.0940
48002SOL    HW149969  12.181   0.927   1.358 -0.7241 -0.5857 -2.0253
48002SOL    HW249970  12.240   1.040   1.277  0.3753 -0.2325 -0.7727
48003SOL     OW49971   0.779   4.900   5.518  0.5564 -0.1577  0.6782
48003SOL    HW149972   0.801   4.808   5.502  1.1479  0.1486 -0.3420
48003SOL    HW249973   0.712   4.921   5.454 -0.1559 -0.0807  1.4303
48004SOL     OW49974   9.392   9.545   8.906 -0.4716 -0.0273  0.5491
48004SOL    HW149975   9.389   9.640   8.915  0.7181  0.0723  0.0772
48004SOL    HW249976   9.436   9.531   8.822 -0.6918 -0.9915  0.5899
48005SOL     OW49977   9.770  11.230  10.561  0.4044  0.2781  0.2165
48005SOL    HW149978   9.731  11.202  10.478 -1.0003  0.6699  0.7179
48005SOL    HW249979   9.700  11.219  10.625  1.7857 -1.0732  1.5965
48006SOL     OW49980   6.394   6.711   9.067  0.1467  0.1727  0.1175
48006SOL    HW149981   6.299   6.697   9.057  0.0662  1.1698 -0.6837
48006SOL    HW249982   6.431   6.680   8.985  0.8811 -2.8362  1.4478
48007SOL     OW49983   0.124   0.440   7.090 -0.3195  0.1803 -0.4957
48007SOL    HW149984   0.167   0.357   7.067 -1.4493 -0.7643  0.6742
48007SOL    HW249985   0.156   0.459   7.178  1.0661  1.8015 -1.2894
48008SOL     OW49986   4.670   5.534   0.578 -0.1158  0.7551  0.3219
48008SOL    HW149987   4.613   5.522   0.654 -1.3039  1.2712 -0.4464
48008SOL    HW249988   4.625   5.601   0.525  1.3612  1.3799 -0.1871
48009SOL     OW49989   1.679   9.490   0.216  0.2431 -0.0414 -0.2904
48009SOL    HW149990   1.705   9.398   0.210 -1.0145 -0.3482 -1.5971
48009SOL    HW249991   1.760   9.538   0.203  0.9627 -0.9470  0.6297
48010SOL     OW49992   9.945   5.050   1.370 -0.4348  0.4422 -0.1195
48010SOL    HW149993   9.959   5.002   1.289 -0.6746  0.4328 -0.1558
48010SOL    HW249994  10.007   5.122   1.367 -0.0094  0.0808 -0.0221
48011SOL     OW49995  10.169   7.767  10.036 -0.2186 -0.4795  1.3624
48011SOL    HW149996  10.229   7.694  10.022 -2.7637 -2.4457 -0.4327
48011SOL    HW249997  10.088   7.726  10.066 -1.9599  1.4771 -0.2896
48012SOL     OW49998  10.136   6.698   5.949 -0.5783  0.0570 -0.0297
48012SOL    HW149999  10.043   6.694   5.927 -0.6730  0.3365  0.3199
48012SOL    HW250000  10.164   6.785   5.921 -0.0397 -0.5846 -1.6043
48013SOL     OW50001   2.811  10.396   8.880 -0.0289  0.0309 -0.4475
48013SOL    HW150002   2.771  10.387   8.794  0.5887 -0.5298 -0.6806
48013SOL    HW250003   2.742  10.373   8.942 -0.8944  1.7359 -0.7091
48014SOL     OW50004  10.836   6.683   5.012 -0.0079  0.1606 -0.1662
48014SOL    HW150005  10.831   6.604   5.065 -0.0351 -1.9042 -2.9992
48014SOL    HW250006  10.747   6.720   5.015  0.2688  0.8086  2.0376
48015SOL     OW50007   1.952   1.571   1.316 -0.2185  0.0478 -0.0450
48015SOL    HW150008   1.984   1.639   1.257 -1.6286  1.0583  0.3048
48015SOL    HW250009   2.023   1.508   1.321  0.3062  0.4164 -2.0666
48016SOL     OW50010   9.554   1.080   9.291 -0.2460  0.8525 -0.2433
48016SOL    HW150011   9.574   1.164   9.333  1.0047  1.2396 -1.5456
48016SOL    HW250012   9.508   1.030   9.359  0.9730  1.7497  1.3044
48017SOL     OW50013  10.564   2.768   6.778 -0.3133  0.7387  0.1543
48017SOL    HW150014  10.497   2.700   6.770  0.1465  0.3006 -0.0212
48017SOL    HW250015  10.607   2.769   6.692  0.9385 -0.0805  0.7481
48018SOL     OW50016   8.702   8.814   8.989 -0.0320  0.1491  0.4746
48018SOL    HW150017   8.786   8.804   8.943  0.3660 -0.8401  1.3578
48018SOL    HW250018   8.711   8.759   9.067 -2.0342 -1.1803 -0.1439
48019SOL     OW50019   0.212   1.799   1.072  0.1277  0.2141  0.3963
48019SOL    HW150020   0.300   1.835   1.073  0.9429 -1.5881 -0.9675
48019SOL    HW250021   0.212   1.733   1.141 -0.8909  1.6609  1.8679
48020SOL     OW50022  11.435  12.476   0.481  0.2116 -0.7334 -0.5813
48020SOL    HW150023  11.382  12.396   0.486 -1.4989  0.3037 -1.3638
48020SOL    HW250024  11.501  12.457   0.415 -0.3467 -1.4250 -0.9565
48021SOL     OW50025  11.659   0.241   8.628  0.2172  0.6860 -0.2312
48021SOL    HW150026  11.574   0.197   8.626  0.5447  0.0261 -0.0895
48021SOL    HW250027  11.712   0.187   8.686  0.5280  1.4839  0.2488
48022SOL     OW50028   0.726   4.690  12.181  0.0030  0.0286 -0.1084
48022SOL    HW150029   0.658   4.757  12.182 -0.9344 -0.8542  1.9673
48022SOL    HW250030   0.806   4.738  12.202 -0.5268  0.6301  0.6140
48023SOL     OW50031  11.918   6.272   1.325 -0.3104 -0.4777 -0.0082
48023SOL    HW150032  11.936   6.277   1.231  1.8199 -1.6367  0.2829
48023SOL    HW250033  11.947   6.185   1.351 -1.6632 -0.5142  1.6052
48024SOL     OW50034   1.432   9.032   6.452 -0.3550 -0.1834 -0.1872
48024SOL    HW150035   1.460   9.036   6.543  0.0823 -2.1038 -0.1999
48024SOL    HW250036   1.372   8.958   6.448 -2.0072  1.1250 -1.0782
48025SOL     OW50037   0.592   8.506  12.059 -0.4350  0.4214  0.1454
48025SOL    HW150038   0.509   8.525  12.015  0.7714  3.1412 -1.2012
48025SOL    HW250039   0.605   8.412  12.046 -1.5133  0.5830 -3.0099
48026SOL     OW50040   9.373   5.721   8.749  0.2018 -0.2389 -0.1238
48026SOL    HW150041   9.325   5.670   8.814 -1.2300 -0.5715 -1.3774
48026SOL    HW250042   9.305   5.759   8.693  1.3596 -0.5182 -1.8220
48027SOL     OW50043   4.714   1.073   5.310  0.0841 -0.3197  0.4463
48027SOL    HW150044   4.647   1.023   5.264  0.0760 -1.2244  1.3981
48027SOL    HW250045   4.680   1.162   5.313 -1.0034 -0.7341  0.7790
48028SOL     OW50046  11.092   6.790   0.399 -0.1691 -0.2546 -0.0826
48028SOL    HW150047  11.127   6.714   0.446 -0.3798 -0.8090 -0.8078
48028SOL    HW250048  11.170   6.842   0.377 -0.0665 -0.0228  0.8208
48029SOL     OW50049   0.758   4.460   3.905  0.2632 -0.1882 -0.6209
48029SOL    HW150050   0.789   4.467   3.995 -0.4436 -1.9568 -0.1840
48029SOL    HW250051   0.835   4.478   3.851  1.2550 -1.2551  0.3898
48030SOL     OW50052   5.604  10.554   5.424 -0.3615  0.0921  0.4988
48030SOL    HW150053   5.558  10.564   5.507 -0.9686  0.1344  0.1637
48030SOL    HW250054   5.570  10.625   5.369  1.0232  0.9076  0.6439
48031SOL     OW50055   6.378   0.349  11.804  0.0543  0.1874  0.5141
48031SOL    HW150056   6.290   0.318  11.825  0.3904  1.0752  3.8664
48031SOL    HW250057   6.437   0.286  11.845  1.2071 -1.3496 -3.0675
48032SOL     OW50058  11.891   6.119  10.882 -0.5438 -0.1184 -0.2662
48032SOL    HW150059  11.825   6.181  10.912  1.0237  1.2497  0.5082
48032SOL    HW250060  11.905   6.060  10.956 -0.5749 -0.1083 -0.2520
48033SOL     OW50061   6.308   9.073   5.515 -0.5679 -0.3709  0.0396
48033SOL    HW150062   6.212   9.080   5.516 -0.6126 -0.3735  2.7295
48033SOL    HW250063   6.339   9.163   5.511 -0.5996 -0.3876 -1.6729
48034SOL     OW50064   4.309  11.135   7.955 -0.0405  0.7928  0.2603
48034SOL    HW150065   4.236  11.074   7.961  0.6473 -0.0325  0.4448
48034SOL    HW250066   4.328  11.140   7.862  1.1897 -0.8820  0.3742
48035SOL     OW50067   3.252   5.957   7.674  0.0655  0.3083 -0.1454
48035SOL    HW150068   3.269   5.947   7.580  0.1493 -0.2469 -0.0738
48035SOL    HW250069   3.337   5.940   7.715  0.2256  1.3799 -0.0137
48036SOL     OW50070   4.040   5.435   9.372 -0.3505 -0.1583 -0.3935
48036SOL    HW150071   4.063   5.410   9.461  0.6047  1.4684 -0.1297
48036SOL    HW250072   3.945   5.444   9.373 -0.4086 -0.8208  0.2783
48037SOL     OW50073   1.779   8.592   8.722 -0.0284  0.3664  0.2067
48037SOL    HW150074   1.828   8.540   8.785 -1.4454 -0.9019  0.3001
48037SOL    HW250075   1.793   8.683   8.751 -0.3203 -0.1523  2.1017
48038SOL     OW50076  11.149   0.633   6.309 -1.2011  0.2254 -0.0609
48038SOL    HW150077  11.220   0.646   6.245 -0.1899 -1.2551  0.7093
48038SOL    HW250078  11.101   0.716   6.308  0.2978  1.1392 -0.8987
48039SOL     OW50079   8.534   7.339   3.936  0.1143  0.4870  0.2591
48039SOL    HW150080   8.577   7.266   3.980 -1.9348  0.0346  1.7001
48039SOL    HW250081   8.560   7.417   3.986  0.0669  0.3516  0.4933
48040SOL     OW50082   9.705   3.406   5.929 -0.5565 -0.3442 -0.5906
48040SOL    HW150083   9.676   3.350   6.001  1.2004 -0.7321 -0.1345
48040SOL    HW250084   9.703   3.349   5.852 -1.5638 -0.1876 -0.6881
48041SOL     OW50085   3.880   4.017  11.292  0.0956  0.5935  0.1211
48041SOL    HW150086   3.808   3.958  11.268 -0.9170  1.5343  0.7237
48041SOL    HW250087   3.941   3.962  11.341  0.3120 -0.4643 -1.2783
48042SOL     OW50088  10.098   9.411   5.472  0.2592 -0.2345  0.1761
48042SOL    HW150089  10.188   9.417   5.439  0.1295  0.5623 -0.0401
48042SOL    HW250090  10.101   9.450   5.559  0.0365  0.1646  0.0039
48043SOL     OW50091   7.100   8.802   4.080 -0.4702 -0.2698  0.4358
48043SOL    HW150092   7.062   8.827   4.164 -0.9490 -0.3908  0.2598
48043SOL    HW250093   7.151   8.878   4.052 -0.6943 -0.0576  0.6112
48044SOL     OW50094   8.391   8.910   4.263  0.2648 -0.5841 -0.2505
48044SOL    HW150095   8.389   8.814   4.260  0.9735 -0.5790 -1.2236
48044SOL    HW250096   8.475   8.934   4.226 -0.0155  0.4373 -0.2576
48045SOL     OW50097   9.528  11.987   7.649 -0.2836  0.2797 -0.2683
48045SOL    HW150098   9.485  12.022   7.728  0.5155 -0.0525  0.3362
48045SOL    HW250099   9.470  11.919   7.617 -0.2745 -0.0899  0.4761
48046SOL     OW50100   9.620   6.721   5.846  0.1883 -0.4848 -0.0307
48046SOL    HW150101   9.584   6.633   5.831 -1.7653  0.3515 -0.5857
48046SOL    HW250102   9.622   6.761   5.760  2.0775 -0.3057  0.0611
48047SOL     OW50103   9.502   2.684   3.460 -0.5937 -0.0107  0.2420
48047SOL    HW150104   9.456   2.600   3.455  1.2392 -1.0173 -0.7270
48047SOL    HW250105   9.586   2.663   3.500 -0.1080  1.3890  0.0128
48048SOL     OW50106  10.669   7.357   6.385  0.3405 -0.0471 -0.7732
48048SOL    HW150107  10.607   7.351   6.458 -0.1095  0.7209 -1.0784
48048SOL    HW250108  10.755   7.344   6.426  0.0061 -0.9103 -0.3148
48049SOL     OW50109   9.695  11.574   4.841  0.2226 -0.1653  0.0130
48049SOL    HW150110   9.682  11.662   4.806  0.7577  0.2422  0.7988
48049SOL    HW250111   9.725  11.522   4.767  0.0884  0.3631 -0.4153
48050SOL     OW50112   0.899   0.796   2.347 -0.4992  0.2264 -0.0676
48050SOL    HW150113   0.927   0.779   2.436  0.9161 -1.5156 -0.7897
48050SOL    HW250114   0.857   0.882   2.351  2.5813  1.8102  1.6266
48051SOL     OW50115   0.773   9.444   6.830  0.5798  0.2110  0.2463
48051SOL    HW150116   0.844   9.453   6.894  0.5796 -1.1911  0.4748
48051SOL    HW250117   0.816   9.409   6.752  0.2591  0.0919  0.1233
48052SOL     OW50118   2.739   0.775   5.357 -0.3281 -0.0332 -0.0092
48052SOL    HW150119   2.730   0.803   5.448 -0.2219 -1.2496  0.3984
48052SOL    HW250120   2.784   0.847   5.314 -0.0082  0.3876  1.0014
48053SOL     OW50121   4.864   1.106   5.887 -0.4189 -0.0807 -0.0440
48053SOL    HW150122   4.778   1.112   5.844 -0.9248  3.7716  1.1183
48053SOL    HW250123   4.845   1.121   5.980  1.3575 -1.3071  0.5742
48054SOL     OW50124   8.326  11.814   8.149 -0.6085  0.3255 -0.2249
48054SOL    HW150125   8.332  11.845   8.240  1.4142  0.4948 -0.3695
48054SOL    HW250126   8.374  11.731   8.148 -0.9896  0.1023 -1.0512
48055SOL     OW50127  11.214  11.006   0.004 -0.5320  0.2636  0.1541
48055SOL    HW150128  11.218  10.933   0.065  3.4788  0.7177  0.6996
48055SOL    HW250129  11.139  10.987  -0.052  0.2296 -4.2176  0.3460
48056SOL     OW50130  10.412   9.143   5.405  0.9511 -0.4151  0.5500
48056SOL    HW150131  10.467   9.218   5.431  0.9932 -0.6229  1.0865
48056SOL    HW250132  10.474   9.073   5.389  0.9283 -0.2609 -0.2192
48057SOL     OW50133   2.166   9.470   7.624 -0.4402  0.6226  0.3417
48057SOL    HW150134   2.086   9.428   7.594 -0.5939  0.8181  0.4786
48057SOL    HW250135   2.214   9.490   7.544 -1.7060  2.8544  0.0923
48058SOL     OW50136   6.250   1.394  10.596  0.0652  0.4078  0.0195
48058SOL    HW150137   6.295   1.430  10.519  4.7775 -0.1088  2.1845
48058SOL    HW250138   6.296   1.312  10.613 -2.5274 -0.7360  1.9950
48059SOL     OW50139   2.813   9.403  11.438  0.0326 -0.3449 -0.2283
48059SOL    HW150140   2.815   9.464  11.365 -0.3747  0.6825  0.6036
48059SOL    HW250141   2.894   9.421  11.487  0.4831 -1.2718 -0.5970
48060SOL     OW50142   5.042  10.585   4.906 -0.4875  0.1797  0.0186
48060SOL    HW150143   5.119  10.638   4.924  0.4956 -0.7848 -1.1922
48060SOL    HW250144   5.029  10.593   4.812 -2.5951  1.2397  0.3382
48061SOL     OW50145  11.272   6.532   5.021 -0.0781  0.0847 -0.0048
48061SOL    HW150146  11.211   6.469   4.982  0.3955 -0.9695  0.9201
48061SOL    HW250147  11.316   6.573   4.946 -1.1766  0.1278 -0.6481
48062SOL     OW50148   6.477  12.172   4.100 -0.1583 -0.0668 -0.6968
48062SOL    HW150149   6.554  12.168   4.158 -0.5895  0.8140 -0.0469
48062SOL    HW250150   6.495  12.106   4.032  1.7373  0.9422 -1.2474
48063SOL     OW50151   4.580   4.416   0.433  0.1382  0.2600 -0.2521
48063SOL    HW150152   4.618   4.399   0.347 -0.6284  1.0841 -0.7755
48063SOL    HW250153   4.572   4.330   0.474  0.7498 -0.1102 -0.9009
48064SOL     OW50154  11.528  10.857   2.116 -0.2521 -0.2055 -0.5568
48064SOL    HW150155  11.474  10.841   2.193 -0.4127 -2.0696 -1.0072
48064SOL    HW250156  11.615  10.876   2.151 -0.1821 -1.6287  0.0940
48065SOL     OW50157   4.869   8.859   3.888 -0.2695  0.4508  0.1611
48065SOL    HW150158   4.865   8.895   3.799 -0.2480 -0.2609 -0.1287
48065SOL    HW250159   4.960   8.831   3.899 -0.2113  0.7618  0.5033
48066SOL     OW50160  10.442   0.179   6.173 -0.4928  0.1317 -0.3199
48066SOL    HW150161  10.366   0.131   6.142  0.3914 -1.6511  0.1296
48066SOL    HW250162  10.511   0.160   6.110 -0.1003  0.7779 -0.1045
48067SOL     OW50163   7.867   0.990   0.459  0.3891 -0.2316  0.7678
48067SOL    HW150164   7.808   0.931   0.411 -0.9100  2.1732 -0.7875
48067SOL    HW250165   7.810   1.036   0.520  1.0991  0.4405  0.9296
48068SOL     OW50166   0.588   3.518   2.572 -0.7713  0.3173  0.1684
48068SOL    HW150167   0.566   3.589   2.633  2.1115  1.7100 -0.2694
48068SOL    HW250168   0.624   3.562   2.495 -2.4073 -1.5051 -1.7760
48069SOL     OW50169   3.084   3.876   4.940 -0.3239  0.2481  0.3911
48069SOL    HW150170   3.057   3.961   4.973  2.1104  1.6286 -0.8952
48069SOL    HW250171   3.009   3.843   4.891 -0.7404  2.5054 -0.5910
48070SOL     OW50172   1.326   2.177   4.078 -0.4355 -0.0638 -0.4365
48070SOL    HW150173   1.394   2.114   4.055  2.0459  1.9881  0.7559
48070SOL    HW250174   1.295   2.211   3.994 -0.4671 -1.4461 -1.0164
48071SOL     OW50175   5.108   3.826   7.089 -0.3069  0.2105 -0.4860
48071SOL    HW150176   5.148   3.898   7.040  0.1801  1.0218  1.0601
48071SOL    HW250177   5.052   3.869   7.154  0.5249 -0.7524  0.9287
48072SOL     OW50178  11.452   9.899  11.063 -0.3920 -0.0510  0.2860
48072SOL    HW150179  11.418   9.976  11.109 -0.5512 -0.0918  0.2399
48072SOL    HW250180  11.518   9.862  11.122 -1.3276 -0.7034  0.9644
48073SOL     OW50181  11.016   9.115   7.138  0.1053 -0.3451  0.2716
48073SOL    HW150182  11.014   9.126   7.043 -1.4984  2.6725  0.5213
48073SOL    HW250183  11.091   9.167   7.166 -0.2025 -0.1428  0.7238
48074SOL     OW50184   9.944   6.546  10.118  0.2643 -0.1666 -0.1373
48074SOL    HW150185   9.925   6.461  10.157  2.3327 -0.3795  0.5005
48074SOL    HW250186   9.951   6.528  10.024  1.1591 -0.8170  0.0419
48075SOL     OW50187   2.290   0.939   1.824  0.5767  0.6685 -0.5174
48075SOL    HW150188   2.267   0.899   1.909  1.9877  0.0191 -0.4092
48075SOL    HW250189   2.293   1.033   1.842  0.0252  0.6064 -0.0594
48076SOL     OW50190   5.237   0.634   1.373  0.3093  0.0396 -0.2624
48076SOL    HW150191   5.224   0.728   1.364 -0.0426 -0.0425 -0.6492
48076SOL    HW250192   5.262   0.605   1.285  1.1098 -0.1234  0.0064
48077SOL     OW50193   3.532  11.017  11.193 -1.0746 -0.1415  0.6917
48077SOL    HW150194   3.444  11.053  11.205 -1.7994 -1.6999  0.2550
48077SOL    HW250195   3.547  10.965  11.272 -1.1490 -1.0342  0.1304
48078SOL     OW50196  10.862   5.039   5.725  0.3938  0.0919  0.5136
48078SOL    HW150197  10.812   4.973   5.774  1.2540  0.3352  1.7610
48078SOL    HW250198  10.795   5.097   5.690 -0.3017 -0.5940  0.6517
48079SOL     OW50199   8.998   9.671   6.105 -0.5639 -0.2243  0.1240
48079SOL    HW150200   9.071   9.650   6.163  0.6830 -0.9910 -1.6196
48079SOL    HW250201   8.922   9.676   6.163  1.0055  1.9216  2.2222
48080SOL     OW50202  12.279  10.027   4.036  0.1798  0.1384 -0.1203
48080SOL    HW150203  12.196  10.058   4.072  0.5104  1.2360 -0.2611
48080SOL    HW250204  12.343  10.044   4.105  0.3745 -0.2397 -0.2045
48081SOL     OW50205   9.263   5.482   2.533  0.0614  0.6416 -0.2506
48081SOL    HW150206   9.240   5.547   2.600  2.0424  0.3533  0.7824
48081SOL    HW250207   9.325   5.527   2.476 -0.8200  0.5475 -1.3242
48082SOL     OW50208  10.044  11.483   2.988  0.1415  0.1214  0.0705
48082SOL    HW150209  10.104  11.452   2.920 -0.0926  0.5765 -0.3434
48082SOL    HW250210   9.975  11.528   2.941 -0.3746 -0.1331  0.5680
48083SOL     OW50211   7.907   6.020   3.126 -0.0882 -0.1004 -0.3914
48083SOL    HW150212   7.882   6.031   3.217  0.1896  1.5948 -0.4739
48083SOL    HW250213   7.981   5.960   3.128  0.8828  1.0823  0.6792
48084SOL     OW50214  11.758   5.488   7.318  0.5196  0.3613 -0.4561
48084SOL    HW150215  11.671   5.489   7.358  0.9571  0.1538  0.5347
48084SOL    HW250216  11.756   5.558   7.253 -0.2984  0.5369 -0.2494
48085SOL     OW50217   8.288  10.571  10.461  0.1035 -0.2394  0.1329
48085SOL    HW150218   8.330  10.544  10.542  0.9269 -2.3298 -0.9052
48085SOL    HW250219   8.241  10.651  10.483  1.1037 -0.2130  2.4018
48086SOL     OW50220  11.494   1.294   5.818  0.2608  0.1324 -0.1453
48086SOL    HW150221  11.465   1.371   5.770  2.6926  0.9782 -0.3968
48086SOL    HW250222  11.535   1.328   5.897  0.9852 -0.8916 -0.0508
48087SOL     OW50223  10.634   7.912   3.550 -0.1517 -0.0248 -0.9723
48087SOL    HW150224  10.626   7.953   3.636  2.2367  0.4295 -0.8885
48087SOL    HW250225  10.591   7.974   3.490  0.3999  0.9370 -0.3996
48088SOL     OW50226   9.499  11.971   4.206  0.0119 -0.0089 -0.2864
48088SOL    HW150227   9.469  12.016   4.285 -2.5908 -0.5960 -0.8437
48088SOL    HW250228   9.482  11.878   4.223  0.1300 -0.2122 -1.2420
48089SOL     OW50229  11.056   1.527   4.830  0.3004  0.4937  0.2309
48089SOL    HW150230  11.114   1.586   4.878 -0.0354  1.2463 -0.2633
48089SOL    HW250231  10.968   1.561   4.847  0.1313  0.3524 -0.3505
48090SOL     OW50232   6.306   5.358   9.497  1.0572  0.6250  0.2507
48090SOL    HW150233   6.350   5.328   9.418  2.7579  2.5087  0.3953
48090SOL    HW250234   6.284   5.450   9.479 -1.4828  0.2196  0.8004
48091SOL     OW50235   0.204   8.282   4.776  0.2982  0.1829  0.0792
48091SOL    HW150236   0.196   8.187   4.789  1.4970  0.0610  0.0385
48091SOL    HW250237   0.128   8.319   4.820  0.0816 -0.7703  0.5248
48092SOL     OW50238   5.043   6.666  11.452 -0.0320 -0.2532  0.0191
48092SOL    HW150239   5.108   6.609  11.412 -0.2426 -0.4552 -0.0347
48092SOL    HW250240   5.094   6.722  11.511 -0.0604 -1.9613  1.7633
48093SOL     OW50241   6.021  10.297   7.411 -0.0206 -0.2721 -0.3989
48093SOL    HW150242   6.083  10.335   7.348  0.8846  0.2460  0.7730
48093SOL    HW250243   5.952  10.363   7.418 -1.6927 -1.5446 -2.9649
48094SOL     OW50244   7.205   1.251   6.060 -0.1566  0.5023 -0.0254
48094SOL    HW150245   7.281   1.306   6.042 -0.3094  1.1571  1.2166
48094SOL    HW250246   7.185   1.267   6.152 -2.1430  0.7862 -0.4544
48095SOL     OW50247   1.244  12.086   5.611  0.1267  0.0502  0.1541
48095SOL    HW150248   1.239  12.076   5.516 -1.6816 -1.1956  0.3369
48095SOL    HW250249   1.336  12.105   5.628  0.9900 -2.0471 -1.6718
48096SOL     OW50250   8.562  11.438   6.395 -0.3621 -0.0883 -0.0764
48096SOL    HW150251   8.650  11.471   6.376 -0.8016  1.0634 -0.1705
48096SOL    HW250252   8.564  11.419   6.489  0.1246 -0.5354 -0.1687
48097SOL     OW50253   4.430   2.193  11.173 -0.2998 -0.6022 -0.2889
48097SOL    HW150254   4.469   2.196  11.085  1.2281 -0.5769  0.3465
48097SOL    HW250255   4.348   2.146  11.161 -0.8461  0.6728 -1.9738
48098SOL     OW50256   3.243   2.926   1.221 -0.2712 -0.0610 -0.1245
48098SOL    HW150257   3.274   2.882   1.142  0.4295  0.4827 -0.1538
48098SOL    HW250258   3.147   2.918   1.216 -0.2076 -0.6226 -0.6766
48099SOL     OW50259   1.762   1.870  10.089 -0.2932 -0.1255 -0.1795
48099SOL    HW150260   1.736   1.782  10.115  3.3117 -1.1425  0.4923
48099SOL    HW250261   1.751   1.923  10.168  2.1507 -1.1904  0.9735
48100SOL     OW50262   1.342   5.168   8.482 -0.4547  0.2805 -0.1562
48100SOL    HW150263   1.387   5.152   8.399 -0.5436 -1.5201  0.1050
48100SOL    HW250264   1.251   5.182   8.458 -0.6532 -1.1568 -0.3277
48101SOL     OW50265   3.315   2.996  11.515 -0.4405  0.2144 -0.0216
48101SOL    HW150266   3.295   3.055  11.443  1.1876 -0.9019 -1.4991
48101SOL    HW250267   3.410   2.986  11.512 -0.6487 -2.5804  0.0272
48102SOL     OW50268  11.010   8.527   9.339 -0.8056 -0.3241 -0.5225
48102SOL    HW150269  10.917   8.538   9.317 -0.7964 -1.6973 -1.3582
48102SOL    HW250270  11.015   8.440   9.378 -0.1724  0.5647  1.4723
48103SOL     OW50271   5.221  12.207   9.610  0.0392 -0.2755 -0.1189
48103SOL    HW150272   5.307  12.178   9.639 -0.2802 -0.1759  0.9815
48103SOL    HW250273   5.216  12.299   9.638 -0.2513 -0.1472 -0.5768
48104SOL     OW50274   3.484   2.956   6.671 -0.4267  0.1644  0.0611
48104SOL    HW150275   3.553   2.903   6.711 -0.8894  0.1949  0.9251
48104SOL    HW250276   3.531   3.019   6.617  0.1246 -1.6243 -1.6928
48105SOL     OW50277   5.849   0.727   0.150  0.1078 -0.1430  0.1881
48105SOL    HW150278   5.756   0.724   0.127 -0.7496 -1.0059  3.2828
48105SOL    HW250279   5.850   0.724   0.246  3.3636 -0.4126  0.2558
48106SOL     OW50280   8.001   2.726   1.024  0.0578 -0.5372 -0.5166
48106SOL    HW150281   7.924   2.673   1.004 -0.0479 -0.4641 -0.3094
48106SOL    HW250282   8.009   2.722   1.120  1.5672 -2.3219 -0.6675
48107SOL     OW50283   1.078   4.390   9.912  0.1670 -0.3117  0.1447
48107SOL    HW150284   1.158   4.358   9.870 -0.0764  0.9221 -1.3664
48107SOL    HW250285   1.105   4.468   9.960 -0.0847  0.0675 -0.3129
48108SOL     OW50286   5.942   5.721  10.510  0.1524 -0.1263 -0.2038
48108SOL    HW150287   5.988   5.652  10.558 -1.6592 -0.1892  1.6042
48108SOL    HW250288   5.910   5.780  10.579 -0.5821  1.0868 -1.5260
48109SOL     OW50289  10.992   7.784   9.940  0.6405  0.2358  0.4864
48109SOL    HW150290  11.004   7.872   9.906  1.6118 -0.4191 -0.9651
48109SOL    HW250291  10.900   7.763   9.921  1.2552 -0.3134 -2.4567
48110SOL     OW50292   9.596  10.023   6.749  0.1990  0.4309 -0.0204
48110SOL    HW150293   9.680   9.983   6.771 -0.8305 -1.4769  0.6556
48110SOL    HW250294   9.559   9.966   6.682 -0.2622  1.6564 -0.8410
48111SOL     OW50295   8.536   1.143   1.469 -0.3712 -0.0110  0.2025
48111SOL    HW150296   8.444   1.157   1.493 -0.6212 -1.1332 -0.0714
48111SOL    HW250297   8.552   1.051   1.487  0.3179 -0.1454 -1.0052
48112SOL     OW50298   2.248   1.738   4.161 -0.4075  0.4528  0.3079
48112SOL    HW150299   2.278   1.693   4.240  0.6212 -0.7690 -0.7350
48112SOL    HW250300   2.297   1.820   4.161  2.1181 -0.9203 -0.6538
48113SOL     OW50301   3.123  10.200   9.343 -0.0338  0.2057  0.2301
48113SOL    HW150302   3.218  10.214   9.346  0.0565 -0.2564 -0.2782
48113SOL    HW250303   3.108  10.125   9.399 -0.0732  0.1603  0.1597
48114SOL     OW50304  12.196   3.588   3.988  0.1843 -0.0338 -0.4245
48114SOL    HW150305  12.207   3.683   3.978 -1.1749  0.0399 -1.5567
48114SOL    HW250306  12.273   3.560   4.037  0.3481  1.7251  0.3918
48115SOL     OW50307   7.232   7.960   2.692 -0.2773  0.4018 -0.1674
48115SOL    HW150308   7.260   8.041   2.649  0.9922 -0.4701 -1.0804
48115SOL    HW250309   7.192   7.908   2.622 -1.1110  0.2460  0.4129
48116SOL     OW50310   9.846   1.515   8.656  0.1836  0.9590 -0.3326
48116SOL    HW150311   9.821   1.500   8.747 -0.4260 -0.0592 -0.6466
48116SOL    HW250312   9.923   1.571   8.661  0.8049  0.0538  0.8600
48117SOL     OW50313   2.038   3.943   9.478  0.2397  0.0415  0.5353
48117SOL    HW150314   1.974   3.881   9.512  0.9987 -0.4577  1.0812
48117SOL    HW250315   2.061   3.909   9.392 -0.1347  0.1589  0.3864
48118SOL     OW50316   0.388   5.955   2.624 -0.5100  0.1428  0.1799
48118SOL    HW150317   0.340   5.881   2.588 -1.6856 -0.1731  2.2527
48118SOL    HW250318   0.344   5.976   2.706  1.0323  1.8518  0.6632
48119SOL     OW50319   1.512  10.715  11.883  0.3175 -0.1007 -0.2265
48119SOL    HW150320   1.458  10.759  11.817 -0.0884 -1.1160 -0.5939
48119SOL    HW250321   1.594  10.765  11.884 -0.8235  1.8918  0.8332
48120SOL     OW50322   6.809   5.825   5.365  0.0382 -0.0063 -0.0574
48120SOL    HW150323   6.780   5.857   5.280  0.8128  1.6708  0.2666
48120SOL    HW250324   6.778   5.892   5.427 -1.4997 -1.7512  1.1516
48121SOL     OW50325   3.931   4.874  10.515  0.1030 -0.2755  0.3357
48121SOL    HW150326   3.914   4.789  10.473 -0.0619  0.3076 -0.8262
48121SOL    HW250327   3.925   4.937  10.443 -1.4285  0.9129  1.4488
48122SOL     OW50328   9.158   9.821   4.045 -0.5525  0.0705  0.1222
48122SOL    HW150329   9.225   9.794   3.982 -0.9281 -0.1913 -0.1651
48122SOL    HW250330   9.186   9.780   4.128 -0.2636  0.1077  0.0460
48123SOL     OW50331   5.441   7.377   0.225  0.1727  0.0911  0.5286
48123SOL    HW150332   5.535   7.377   0.213 -0.0671 -2.1538 -2.4306
48123SOL    HW250333   5.411   7.460   0.188  0.8847  0.2136  0.2226
48124SOL     OW50334   7.247   5.021   9.060  0.3375 -0.1457  0.0955
48124SOL    HW150335   7.237   5.054   8.971 -1.9836 -0.5836  0.1460
48124SOL    HW250336   7.336   4.986   9.063  0.7348  0.6218 -1.7854
48125SOL     OW50337  11.926   3.594  12.126  0.1816 -0.4344  0.3518
48125SOL    HW150338  12.003   3.635  12.087  1.8098 -2.7768  0.9237
48125SOL    HW250339  11.865   3.585  12.053  1.4830 -0.8983 -0.7254
48126SOL     OW50340   8.379  11.478   8.758  0.3121  0.2838  0.8604
48126SOL    HW150341   8.455  11.518   8.800  1.2190 -0.9179  0.4077
48126SOL    HW250342   8.400  11.481   8.664  0.5272 -1.4450  0.8243
48127SOL     OW50343   5.528   4.104   9.679  0.2325  0.1531 -0.4396
48127SOL    HW150344   5.472   4.122   9.755  1.0525 -0.7832  0.4107
48127SOL    HW250345   5.552   4.191   9.646 -0.1877  0.5724  0.3289
48128SOL     OW50346  10.569  11.719   1.431  0.5402  0.0397  0.1252
48128SOL    HW150347  10.528  11.632   1.427  1.2346 -0.2781 -0.1956
48128SOL    HW250348  10.649  11.705   1.481  0.6592  0.4993  0.0641
48129SOL     OW50349   0.245   9.270   7.547  0.0616 -0.2746 -0.2997
48129SOL    HW150350   0.218   9.335   7.482 -0.1051  0.4058  0.4344
48129SOL    HW250351   0.337   9.289   7.563  0.4985 -1.3691 -1.3886
48130SOL     OW50352  10.435   5.203   7.885 -0.0334 -0.4579  0.1786
48130SOL    HW150353  10.421   5.272   7.950 -0.3920 -0.2954 -0.0710
48130SOL    HW250354  10.397   5.238   7.804  0.6062 -0.5657 -0.1747
48131SOL     OW50355   8.616   7.932   0.999  0.2796 -0.2929  0.0266
48131SOL    HW150356   8.690   7.985   1.030 -0.2245 -1.8023  4.4871
48131SOL    HW250357   8.540   7.968   1.043 -1.4013 -0.2755 -2.6450
48132SOL     OW50358  11.086   2.070   2.228 -0.5485  0.3544 -0.1318
48132SOL    HW150359  11.125   1.987   2.201  0.7940 -0.0847  2.7690
48132SOL    HW250360  10.993   2.059   2.210 -0.7570 -2.6817  1.9803
48133SOL     OW50361   8.608  10.408   0.323 -0.3615 -0.6952  0.1331
48133SOL    HW150362   8.523  10.370   0.302  0.0426 -1.1312 -0.7353
48133SOL    HW250363   8.645  10.349   0.389 -0.4642 -0.8438  0.0582
48134SOL     OW50364  11.560   7.378   5.559 -0.1909  0.3026 -0.0090
48134SOL    HW150365  11.531   7.287   5.571  1.5462 -0.2432  0.3498
48134SOL    HW250366  11.559   7.415   5.647 -1.7022  0.9172 -0.2628
48135SOL     OW50367   1.807   2.792   2.121 -0.3683 -0.1619  0.1422
48135SOL    HW150368   1.888   2.842   2.122 -0.8927  0.7167 -0.3389
48135SOL    HW250369   1.775   2.796   2.211  0.3849 -0.9706  0.4576
48136SOL     OW50370   3.734   6.069   8.268 -0.1677  0.3520 -0.9794
48136SOL    HW150371   3.643   6.041   8.281  0.0057  0.7464  1.9193
48136SOL    HW250372   3.784   6.012   8.328  1.0764  2.0770 -0.3062
48137SOL     OW50373   9.354   8.352   8.233  0.1498 -0.4230 -0.1078
48137SOL    HW150374   9.445   8.362   8.262  1.3727 -0.7315 -3.3727
48137SOL    HW250375   9.361   8.303   8.151 -3.1947 -2.3315  0.5771
48138SOL     OW50376   0.632   7.664   2.254  0.2531 -0.1661  0.4483
48138SOL    HW150377   0.569   7.592   2.246 -0.6934  0.4999  1.5535
48138SOL    HW250378   0.581   7.743   2.236  1.4671  0.2289 -1.6183
48139SOL     OW50379   2.058   5.403  10.080 -0.3303  0.5659 -0.0549
48139SOL    HW150380   2.146   5.436  10.102 -0.1139 -0.2183  0.3200
48139SOL    HW250381   1.999   5.471  10.111  0.0841  0.4528  1.0599
48140SOL     OW50382   7.053   5.717   5.453 -0.0625  0.1902  0.7317
48140SOL    HW150383   6.970   5.754   5.423  0.3102  0.9690  0.6606
48140SOL    HW250384   7.120   5.758   5.398  0.4067 -0.1624  1.0272
48141SOL     OW50385   3.023   0.810   0.830  0.2444 -0.1800  0.3440
48141SOL    HW150386   3.059   0.842   0.748  0.4215  1.9183  1.1666
48141SOL    HW250387   3.020   0.888   0.887  1.0442 -1.7296  2.6601
48142SOL     OW50388  11.198   4.070   3.443  0.1741 -0.2674 -0.0039
48142SOL    HW150389  11.240   4.036   3.522 -0.1811  0.6699  0.6096
48142SOL    HW250390  11.271   4.087   3.383  0.5822  0.3441  0.6530
48143SOL     OW50391  10.306   5.034   8.911 -0.3466 -0.3719 -0.3993
48143SOL    HW150392  10.274   5.123   8.926  0.7258  0.0216 -0.3358
48143SOL    HW250393  10.230   4.978   8.926 -1.2614  0.5885 -1.2728
48144SOL     OW50394   8.087   4.363  12.390 -0.0951 -0.4093 -0.2244
48144SOL    HW150395   8.167   4.348  12.340 -0.3207 -1.5373 -0.2874
48144SOL    HW250396   8.117   4.382  12.479  0.2388 -1.7420 -0.0340
48145SOL     OW50397   0.642   1.806   9.177 -0.4100  0.6805 -0.1072
48145SOL    HW150398   0.649   1.814   9.082 -0.9050 -0.7523 -0.2926
48145SOL    HW250399   0.589   1.728   9.191  0.0914  0.5574  1.3512
48146SOL     OW50400   1.002   5.781   1.410 -0.2333 -0.3946 -0.4854
48146SOL    HW150401   1.022   5.801   1.502 -0.5283  0.0479 -0.5150
48146SOL    HW250402   0.953   5.857   1.379 -2.6657 -1.7336 -0.1964
48147SOL     OW50403  11.686   2.170   7.939 -0.4166  0.5453  0.0813
48147SOL    HW150404  11.757   2.212   7.889  0.8013 -0.9797  0.4433
48147SOL    HW250405  11.616   2.159   7.875  1.4872 -2.3717 -1.7665
48148SOL     OW50406   9.920  10.727   0.400  0.0486 -0.4329 -0.3881
48148SOL    HW150407   9.928  10.781   0.321  1.3121  0.7799  0.5287
48148SOL    HW250408   9.998  10.672   0.400  0.6526  0.3941  0.5880
48149SOL     OW50409  11.017  11.242   7.588 -0.3156  0.3252  0.3248
48149SOL    HW150410  11.038  11.335   7.589  2.4217 -0.1200 -1.9601
48149SOL    HW250411  11.081  11.202   7.646 -1.6409 -0.1817  1.5025
48150SOL     OW50412   2.415   8.048   6.376  0.7930  0.4741  0.0279
48150SOL    HW150413   2.426   8.127   6.429  1.5252 -0.1426  0.8244
48150SOL    HW250414   2.373   8.079   6.296 -0.8489  1.3629  1.1612
48151SOL     OW50415   6.216   3.913   3.230 -0.0315 -0.4728  0.1576
48151SOL    HW150416   6.268   3.994   3.239 -0.7416 -0.0363  0.4043
48151SOL    HW250417   6.135   3.942   3.188  0.4113 -1.3558 -1.3952
48152SOL     OW50418   5.675   2.676  12.202 -0.2453 -0.7760 -1.0617
48152SOL    HW150419   5.682   2.770  12.186  0.3087 -0.0847  2.5027
48152SOL    HW250420   5.762   2.641  12.182  0.6562  0.1658  0.9559
48153SOL     OW50421   8.195  11.110  11.141  0.0065  0.0426  0.6551
48153SOL    HW150422   8.194  11.074  11.052  1.5070  3.5006 -0.9763
48153SOL    HW250423   8.107  11.146  11.153  0.1928  0.8007 -0.0896
48154SOL     OW50424   8.029   1.429   4.744  0.9622 -0.0274  0.0559
48154SOL    HW150425   7.966   1.470   4.685  2.8758  0.1564 -1.9801
48154SOL    HW250426   7.989   1.436   4.830 -0.7488  2.1464 -0.8207
48155SOL     OW50427  11.667   4.534  10.517  0.2843  0.5876 -0.2867
48155SOL    HW150428  11.623   4.452  10.538  1.4404  0.0536  0.1631
48155SOL    HW250429  11.625   4.564  10.436  0.1977 -0.7285 -0.7618
48156SOL     OW50430   8.922  12.218  10.518  0.2281  0.0198 -0.2480
48156SOL    HW150431   8.873  12.278  10.574  0.1861  0.9247 -1.2123
48156SOL    HW250432   9.013  12.229  10.544 -0.0574 -2.6585  2.4920
48157SOL     OW50433   6.892   1.283   7.377  0.1113 -0.0819  0.5958
48157SOL    HW150434   6.891   1.262   7.470  1.8781  1.5713  1.0365
48157SOL    HW250435   6.832   1.357   7.368 -0.3966 -0.5190  0.3281
48158SOL     OW50436   0.112   8.858   4.253  0.2085 -0.6762  0.4938
48158SOL    HW150437   0.161   8.776   4.245 -0.6207 -1.2543  1.1070
48158SOL    HW250438   0.021   8.830   4.261 -0.0110  0.2553  1.5058
48159SOL     OW50439   7.216  10.827   0.159  0.0417  0.1077  0.5245
48159SOL    HW150440   7.236  10.804   0.250  0.2081  0.0803  0.4813
48159SOL    HW250441   7.228  10.746   0.111  0.4340  0.2393  0.4027
48160SOL     OW50442  11.118   8.334   4.954  0.0222 -0.3555 -0.1650
48160SOL    HW150443  11.189   8.341   5.019 -0.3416 -1.5616  0.3904
48160SOL    HW250444  11.112   8.421   4.916  2.2451 -0.3506 -0.6921
48161SOL     OW50445   2.557  10.664   6.755  0.1784 -0.8137  0.4255
48161SOL    HW150446   2.467  10.695   6.760  0.0805 -0.9315 -0.4365
48161SOL    HW250447   2.577  10.664   6.661  1.0547 -0.8418  0.6052
48162SOL     OW50448  10.804   7.981   9.487  0.0587 -0.8687  0.5368
48162SOL    HW150449  10.845   8.052   9.437 -1.2306 -1.2326 -1.1650
48162SOL    HW250450  10.877   7.930   9.522  1.0097  0.9419  1.3276
48163SOL     OW50451   9.605   8.629  12.245 -0.5350 -0.0052 -0.1365
48163SOL    HW150452   9.699   8.614  12.237 -0.6998 -0.6788 -0.9490
48163SOL    HW250453   9.570   8.610  12.158 -1.7058 -2.0464  0.7056
48164SOL     OW50454   5.690   9.260   6.587  0.0304  0.2622  0.0767
48164SOL    HW150455   5.635   9.336   6.605 -0.5479 -0.1881  0.2560
48164SOL    HW250456   5.679   9.243   6.493  0.5917  0.7253 -0.0769
48165SOL     OW50457   1.223   1.160  10.611  0.1538  0.0865  0.1666
48165SOL    HW150458   1.297   1.134  10.664  0.4228  0.6563  0.0799
48165SOL    HW250459   1.230   1.256  10.605 -0.9749  0.2257  0.7494
48166SOL     OW50460  11.021   1.525   9.461 -0.1894 -0.0154 -0.1986
48166SOL    HW150461  10.964   1.584   9.509  0.3320 -0.6124  1.2150
48166SOL    HW250462  10.963   1.456   9.430 -0.5290  0.3616 -0.4105
48167SOL     OW50463  11.614   1.704   0.900 -0.2933  0.2854  0.4136
48167SOL    HW150464  11.697   1.660   0.882 -1.8652 -2.4475 -0.8290
48167SOL    HW250465  11.593   1.749   0.818  0.2253  1.5652  0.9535
48168SOL     OW50466   7.860   7.836   4.955 -0.3113  0.0733 -0.0824
48168SOL    HW150467   7.819   7.791   4.880 -0.7384 -4.1143  2.3583
48168SOL    HW250468   7.788   7.849   5.016  0.9240 -2.8621  2.2389
48169SOL     OW50469   7.155   1.701   3.852 -0.5559 -0.0822 -0.0331
48169SOL    HW150470   7.149   1.644   3.775 -0.4384  0.9320 -0.8199
48169SOL    HW250471   7.249   1.716   3.863 -0.6351  0.8630 -0.5385
48170SOL     OW50472   6.028   8.245  12.477 -0.4254 -0.0460  0.4991
48170SOL    HW150473   6.058   8.329  12.445 -0.7121 -0.8807 -2.2288
48170SOL    HW250474   6.087   8.181  12.437 -2.2973 -1.3270 -0.3738
48171SOL     OW50475   2.422   0.584   3.728 -0.0084 -0.4349  0.0233
48171SOL    HW150476   2.500   0.563   3.780  0.6861 -0.4464 -0.9785
48171SOL    HW250477   2.411   0.508   3.671  0.8905  0.6693 -1.7298
48172SOL     OW50478   2.515   3.693   2.175  0.4323 -0.2994 -0.2953
48172SOL    HW150479   2.461   3.675   2.252  0.7604  0.6408  0.1659
48172SOL    HW250480   2.568   3.614   2.164  0.7385 -0.2468  0.7471
48173SOL     OW50481   4.454   7.934   8.744  0.0350  0.4094 -0.1350
48173SOL    HW150482   4.531   7.991   8.747  0.8285 -0.6342 -0.1524
48173SOL    HW250483   4.466   7.881   8.665 -0.3004 -0.2891  0.2682
48174SOL     OW50484   1.771   2.762   0.769  0.1598  0.5854  0.5431
48174SOL    HW150485   1.789   2.679   0.725  0.1968  0.6694  0.3999
48174SOL    HW250486   1.857   2.797   0.792  0.1210  0.2473  1.2338
48175SOL     OW50487   2.755   2.157  11.101 -0.3228 -0.2186 -0.2024
48175SOL    HW150488   2.663   2.180  11.088  0.0370 -0.0558 -2.9979
48175SOL    HW250489   2.804   2.227  11.059  1.0530 -1.1115 -0.1676
48176SOL     OW50490   3.367   0.671   8.451 -0.2351 -0.0795 -0.1502
48176SOL    HW150491   3.283   0.717   8.457 -0.6462 -0.8139 -0.1405
48176SOL    HW250492   3.407   0.682   8.537  0.5255  1.8353 -0.7091
48177SOL     OW50493  11.179   9.693   2.754 -0.7058 -0.9806 -0.5769
48177SOL    HW150494  11.164   9.687   2.660 -1.5580  0.5073 -0.5717
48177SOL    HW250495  11.131   9.619   2.791 -0.6273 -1.3867 -1.2774
48178SOL     OW50496   4.040   3.959   7.552 -0.4601  0.8291 -0.3761
48178SOL    HW150497   3.997   3.899   7.613  0.7185 -2.0325 -2.1718
48178SOL    HW250498   4.126   3.974   7.592  0.0492 -0.4728 -0.9478
48179SOL     OW50499   6.670   5.787   1.051 -0.0801 -0.4858 -0.4504
48179SOL    HW150500   6.690   5.704   1.095 -0.4812 -0.4172 -0.1383
48179SOL    HW250501   6.756   5.824   1.031  0.1053 -0.9774 -0.6015
48180SOL     OW50502   9.817   4.695   6.528 -0.3849  0.1263  0.6229
48180SOL    HW150503   9.902   4.663   6.558  0.7494  2.3357 -0.0384
48180SOL    HW250504   9.759   4.680   6.603  1.2102  0.9152  2.1027
48181SOL     OW50505   0.959   7.298   6.922 -0.1013  0.7977 -0.6533
48181SOL    HW150506   0.926   7.208   6.921 -1.5654  1.2676  0.4444
48181SOL    HW250507   0.969   7.322   6.830 -1.3325  0.0580 -1.0064
48182SOL     OW50508  11.464   3.502   8.306 -0.5562  0.5267 -0.0092
48182SOL    HW150509  11.535   3.559   8.277 -0.1977 -0.0291 -0.2367
48182SOL    HW250510  11.390   3.525   8.250 -0.7059  1.4473  0.5527
48183SOL     OW50511   5.012   3.527   7.207  0.0507 -0.0322  0.3095
48183SOL    HW150512   5.035   3.513   7.299 -0.8166  1.1857  0.7529
48183SOL    HW250513   5.095   3.547   7.164  0.1501  2.5387  1.5028
48184SOL     OW50514   6.776   6.402  11.707 -0.3695 -0.1093  0.1685
48184SOL    HW150515   6.712   6.334  11.684  0.2798 -0.5073 -0.5394
48184SOL    HW250516   6.861   6.360  11.692  0.0698  0.3049  1.3858
48185SOL     OW50517  11.228   0.416   6.550  0.2004  0.4118 -0.0441
48185SOL    HW150518  11.182   0.463   6.619 -0.6331 -0.5140  0.0635
48185SOL    HW250519  11.321   0.429   6.569  0.1264 -2.4853  3.2545
48186SOL     OW50520   1.687   7.352   0.251  0.4451 -0.0338 -0.3110
48186SOL    HW150521   1.727   7.413   0.188  0.8262 -0.3989 -0.4232
48186SOL    HW250522   1.731   7.371   0.334  0.5386 -0.1300 -0.3383
48187SOL     OW50523   4.644   0.914   8.047 -0.4582  0.5742 -0.2054
48187SOL    HW150524   4.590   0.843   8.082 -1.2279  0.2853 -1.8524
48187SOL    HW250525   4.688   0.875   7.971 -4.1273  2.7083 -3.8863
48188SOL     OW50526   5.972  11.060  11.522  0.6796 -0.4588  0.6735
48188SOL    HW150527   5.913  11.004  11.472  1.1004  1.4086 -2.0809
48188SOL    HW250528   6.052  11.008  11.530  0.1215 -1.3377  0.7359
48189SOL     OW50529  11.310   2.429   3.081  0.0757 -0.1159  0.3988
48189SOL    HW150530  11.247   2.472   3.139  0.9153 -1.1506  2.1627
48189SOL    HW250531  11.387   2.413   3.136  1.0417 -0.8783 -1.0956
48190SOL     OW50532   9.428  11.092   3.203  0.0765 -0.5091  0.3371
48190SOL    HW150533   9.466  11.176   3.176 -0.5757 -0.7282 -1.4088
48190SOL    HW250534   9.334  11.108   3.208  0.0722 -0.7956  1.3737
48191SOL     OW50535  10.696  11.160   0.892  0.5637 -0.0679 -0.1814
48191SOL    HW150536  10.650  11.081   0.866 -1.6421  0.7481  1.0132
48191SOL    HW250537  10.761  11.130   0.956  0.4215 -1.0133 -0.4728
48192SOL     OW50538   1.378   7.831   6.104 -0.4349 -0.2491  0.1596
48192SOL    HW150539   1.390   7.827   6.009  1.7102 -0.7221  0.3997
48192SOL    HW250540   1.359   7.741   6.129 -2.1502  0.0605  0.0955
48193SOL     OW50541   4.102   0.869   8.883 -0.3072  0.4219  0.3171
48193SOL    HW150542   4.054   0.790   8.909 -0.3552  0.2681 -0.2335
48193SOL    HW250543   4.087   0.931   8.954 -1.4917  0.4501  0.0523
48194SOL     OW50544  11.144   6.247   7.467 -0.4173 -0.1122  0.3745
48194SOL    HW150545  11.080   6.188   7.507  0.3310 -1.3996 -0.2427
48194SOL    HW250546  11.226   6.228   7.513 -0.3144  1.0013  0.6723
48195SOL     OW50547   6.249   7.309  12.293 -0.3415  0.3127 -0.2261
48195SOL    HW150548   6.214   7.335  12.208  0.3594 -1.3998 -1.1036
48195SOL    HW250549   6.339   7.341  12.293 -1.0559  2.4532  0.9405
48196SOL     OW50550  10.470   0.108  10.427  0.3017  0.0944  0.3129
48196SOL    HW150551  10.480   0.026  10.475 -0.0062  0.7023  1.4586
48196SOL    HW250552  10.531   0.101  10.354  0.9483 -0.7726  0.9226
48197SOL     OW50553   7.259   5.780  11.652  0.3400  0.4237 -0.0649
48197SOL    HW150554   7.250   5.778  11.557 -1.2111 -0.4735  0.0623
48197SOL    HW250555   7.234   5.869  11.677  2.1786  1.1257 -0.5770
48198SOL     OW50556   7.792   5.361  11.998  0.3281  0.4022  0.3878
48198SOL    HW150557   7.830   5.378  11.911  1.2080 -0.1462  0.6521
48198SOL    HW250558   7.720   5.301  11.981 -1.0689  2.1589 -0.2314
48199SOL     OW50559   6.509   9.489  10.504  0.5228 -0.0480 -0.0402
48199SOL    HW150560   6.526   9.498  10.411  0.6910 -0.4307 -0.0487
48199SOL    HW250561   6.596   9.492  10.544  0.7631 -2.9024 -0.1521
48200SOL     OW50562  11.714   9.604   1.244 -0.5459 -0.2580 -0.3931
48200SOL    HW150563  11.806   9.583   1.229 -0.3789  1.5906 -2.5448
48200SOL    HW250564  11.671   9.519   1.258  1.3676 -1.1834  0.1817
48201SOL     OW50565   3.748   6.573   1.677 -0.3290 -0.1708 -0.2539
48201SOL    HW150566   3.687   6.498   1.682 -2.0191  1.0076 -1.7881
48201SOL    HW250567   3.693   6.650   1.690  0.8446  0.9462 -1.5087
48202SOL     OW50568   6.700  10.140  12.371  0.1746 -0.0909 -0.1962
48202SOL    HW150569   6.758  10.077  12.413 -1.5774 -0.6904  1.4655
48202SOL    HW250570   6.624  10.088  12.344 -0.8010  1.0837  0.1960
48203SOL     OW50571   2.126   4.716   1.624 -0.2792 -0.4138  0.3570
48203SOL    HW150572   2.218   4.735   1.608 -0.2529  0.4149  1.4142
48203SOL    HW250573   2.080   4.758   1.552  0.1458 -0.7279 -0.1092
48204SOL     OW50574   1.035  12.197   1.124  0.7640 -0.3490  0.4397
48204SOL    HW150575   1.032  12.239   1.210  1.5591 -0.1397  0.3749
48204SOL    HW250576   0.988  12.257   1.067 -0.1315 -0.6867  0.7943
48205SOL     OW50577   9.239   1.248   6.060  0.1613  0.5154  0.4415
48205SOL    HW150578   9.322   1.219   6.024 -0.7516  0.4449 -1.7661
48205SOL    HW250579   9.205   1.172   6.107 -0.6327 -1.0545 -2.4076
48206SOL     OW50580   6.602   4.775   9.085 -0.4476  0.4593 -0.0935
48206SOL    HW150581   6.613   4.699   9.142 -0.0065  1.0838  0.6726
48206SOL    HW250582   6.661   4.841   9.121 -2.7383  2.1080  0.8878
48207SOL     OW50583   4.201  10.054  10.707  0.1718  0.1507 -0.5583
48207SOL    HW150584   4.169  10.048  10.797 -0.9246 -0.7236 -0.9733
48207SOL    HW250585   4.289  10.090  10.715  1.0028 -1.9923  1.0684
48208SOL     OW50586   4.958   8.962   9.137  0.0350 -0.2723  0.5367
48208SOL    HW150587   4.931   9.040   9.186 -2.6240 -1.4371  1.0844
48208SOL    HW250588   4.906   8.891   9.175  1.7419 -2.1842 -0.5168
48209SOL     OW50589   7.504  10.665   8.874  0.3739  0.2072 -0.2721
48209SOL    HW150590   7.429  10.721   8.859  0.0544  0.0017  0.5100
48209SOL    HW250591   7.559  10.676   8.796 -1.5891 -1.4707 -2.0370
48210SOL     OW50592  10.035   8.049   5.852  0.2114 -0.3003 -0.0728
48210SOL    HW150593   9.971   8.119   5.867  0.4006 -0.4993  2.0993
48210SOL    HW250594   9.996   7.972   5.892  1.0651 -0.8365 -0.2387
48211SOL     OW50595   4.876   1.911   3.642 -0.1728  0.0443  0.1307
48211SOL    HW150596   4.812   1.962   3.593 -1.9375 -1.6235  0.5277
48211SOL    HW250597   4.868   1.942   3.732 -1.0322 -0.6460  0.3172
48212SOL     OW50598   1.729   6.126   0.355 -0.0482 -0.1788 -0.1309
48212SOL    HW150599   1.743   6.033   0.343  1.9310 -0.2054  1.6892
48212SOL    HW250600   1.686   6.133   0.441 -0.4804  0.5651 -0.3949
48213SOL     OW50601   8.952   5.883   9.736  0.3586  0.4427  0.7286
48213SOL    HW150602   9.025   5.868   9.676 -0.4757 -1.0305  0.0472
48213SOL    HW250603   8.931   5.976   9.725  2.1350  0.9067  0.9809
48214SOL     OW50604   4.967   2.239   7.764  0.2269  0.1127 -0.3359
48214SOL    HW150605   5.025   2.302   7.808 -2.5310  1.1801  2.0590
48214SOL    HW250606   4.909   2.207   7.833 -1.3186 -1.8016 -2.3660
48215SOL     OW50607  12.440   5.020  11.979 -0.4250  0.1862 -0.8759
48215SOL    HW150608  12.371   5.017  11.912 -1.0890 -0.0140 -0.1866
48215SOL    HW250609  12.417   4.952  12.041  0.2163  0.3418 -0.4566
48216SOL     OW50610   4.803  10.163   9.640 -0.0332 -0.0952  0.3248
48216SOL    HW150611   4.773  10.178   9.550 -2.9500 -0.8000  1.0666
48216SOL    HW250612   4.890  10.124   9.630 -0.6267 -0.9831 -2.2443
48217SOL     OW50613   2.988   0.903   9.475 -0.9797 -0.0117  0.0025
48217SOL    HW150614   2.961   0.858   9.554  3.3107  0.1873  1.8511
48217SOL    HW250615   2.910   0.953   9.448 -3.2808 -1.8125  2.7253
48218SOL     OW50616   3.791   7.787  10.637  0.2515  0.0168 -0.3463
48218SOL    HW150617   3.852   7.799  10.709  0.5889  0.9956 -0.7766
48218SOL    HW250618   3.829   7.716  10.585  0.5790  0.0495 -0.1542
48219SOL     OW50619  10.019   8.468   1.921 -0.4762  0.2669  0.5501
48219SOL    HW150620   9.965   8.431   1.991 -0.7153  1.1868  0.8656
48219SOL    HW250621  10.007   8.409   1.847 -1.5428  0.2068  0.7621
48220SOL     OW50622   0.499   5.663  10.933 -0.5034 -0.6468  0.0924
48220SOL    HW150623   0.428   5.615  10.890 -1.1253 -0.8354  1.2962
48220SOL    HW250624   0.518   5.613  11.012 -0.6828  0.6854  1.0203
48221SOL     OW50625   5.804   8.913   5.962  0.2292  0.1879 -0.0870
48221SOL    HW150626   5.892   8.895   5.996  0.6745  2.1955 -0.0176
48221SOL    HW250627   5.779   8.833   5.916  2.4323 -0.1962 -0.7643
48222SOL     OW50628  10.382  11.184   7.976 -0.8435  0.1304 -0.5000
48222SOL    HW150629  10.321  11.123   8.018 -2.3035  0.7998 -1.5574
48222SOL    HW250630  10.358  11.181   7.883 -1.5929  2.9746 -0.4694
48223SOL     OW50631   5.460   1.443   8.044  0.1462 -0.6671 -0.0486
48223SOL    HW150632   5.508   1.381   7.989  1.3026 -0.1991  0.4084
48223SOL    HW250633   5.505   1.440   8.129 -1.2134 -0.9035  0.6985
48224SOL     OW50634   2.012   1.718   5.475 -0.3650 -0.0068  0.4458
48224SOL    HW150635   1.961   1.754   5.403 -0.0127  0.1536  0.2728
48224SOL    HW250636   1.950   1.714   5.548 -0.2179  1.7977  0.7364
48225SOL     OW50637   2.012   2.266   8.962 -0.8780 -0.0819  0.2671
48225SOL    HW150638   2.067   2.343   8.979 -1.3600  0.1028  1.0340
48225SOL    HW250639   1.923   2.298   8.966 -1.0558 -0.4455 -0.6745
48226SOL     OW50640   5.480  10.478   3.079 -0.1039 -0.6075  0.1341
48226SOL    HW150641   5.470  10.404   3.138  1.5160 -0.9183  0.0711
48226SOL    HW250642   5.542  10.537   3.123 -0.0049 -0.1468 -0.5872
48227SOL     OW50643   5.114   6.100   8.530 -0.4970 -0.1677  0.1574
48227SOL    HW150644   5.209   6.107   8.540 -0.6116  1.3232  0.3185
48227SOL    HW250645   5.093   6.013   8.566  0.5451  0.3768  2.2641
48228SOL     OW50646   0.513   8.534   4.005  0.2941 -0.1875  0.2953
48228SOL    HW150647   0.547   8.613   4.045  0.4646 -0.8200  1.4519
48228SOL    HW250648   0.586   8.472   4.007  0.1797 -0.3650 -0.6317
48229SOL     OW50649   1.465  10.932  10.896 -0.4824 -0.2026 -0.2753
48229SOL    HW150650   1.410  10.986  10.953 -0.1845  0.5511 -0.6888
48229SOL    HW250651   1.402  10.877  10.849 -0.8909  0.5559 -0.6440
48230SOL     OW50652   4.924   3.622   1.793 -0.4314 -0.2318  0.0836
48230SOL    HW150653   4.936   3.557   1.863  0.0885 -1.3999 -1.0559
48230SOL    HW250654   5.012   3.653   1.773 -0.7351  1.5469  1.2142
48231SOL     OW50655   6.851   7.891   1.848  0.4647 -0.2090  0.4476
48231SOL    HW150656   6.850   7.983   1.871 -1.4534  0.0022 -0.2828
48231SOL    HW250657   6.916   7.884   1.778  0.4333  0.6308  0.3271
48232SOL     OW50658   0.437   5.056   2.492 -0.0521 -0.4741  0.7215
48232SOL    HW150659   0.503   5.039   2.559  1.2027  1.2002 -0.0394
48232SOL    HW250660   0.484   5.100   2.422 -1.8655  0.2423 -0.1009
48233SOL     OW50661   3.470   8.002   5.679  1.1740 -0.6319  0.0637
48233SOL    HW150662   3.381   8.035   5.693  1.3117 -0.2277 -0.0091
48233SOL    HW250663   3.506   7.991   5.767  1.0982 -0.6631  0.0902
48234SOL     OW50664  11.327   3.457   9.671 -0.6777 -0.6450  0.1906
48234SOL    HW150665  11.338   3.383   9.611  0.4426 -1.9011  1.8444
48234SOL    HW250666  11.235   3.482   9.661 -0.2358  0.1659 -3.0409
48235SOL     OW50667   6.765   8.856   5.432 -0.3415 -0.2522  0.3712
48235SOL    HW150668   6.762   8.795   5.506  0.9557  0.1937  0.8069
48235SOL    HW250669   6.777   8.942   5.471  0.0550  0.0309 -0.3439
48236SOL     OW50670   8.491   1.781  10.896  0.0505 -0.2386 -0.0632
48236SOL    HW150671   8.479   1.873  10.920  1.1537  0.2117 -1.1459
48236SOL    HW250672   8.578   1.758  10.928  0.1405 -0.6455 -0.5819
48237SOL     OW50673   2.422   8.502   3.981  0.1781 -0.4485  0.1781
48237SOL    HW150674   2.358   8.523   3.913 -0.7780  0.6016  1.3474
48237SOL    HW250675   2.411   8.408   3.995 -0.3759 -0.4764 -0.3644
48238SOL     OW50676   8.651   6.426   4.094  0.4946  0.2376  0.8329
48238SOL    HW150677   8.655   6.341   4.051 -0.9511 -0.2334  1.5620
48238SOL    HW250678   8.681   6.409   4.184 -0.7130  0.2706  1.2600
48239SOL     OW50679   7.231  10.044   6.273 -0.3674  0.7656  0.2665
48239SOL    HW150680   7.310  10.037   6.219 -0.8777  0.5284 -0.4549
48239SOL    HW250681   7.193  10.129   6.248 -0.2998  0.9206  0.6777
48240SOL     OW50682   7.018   2.084  10.623  0.0895 -0.3191 -0.4308
48240SOL    HW150683   7.069   2.164  10.611 -3.8541  2.6721  0.5781
48240SOL    HW250684   6.996   2.055  10.535  0.5665  0.4066 -0.7907
48241SOL     OW50685   9.481   1.448   1.182  0.1424  0.2815  0.3627
48241SOL    HW150686   9.430   1.528   1.188  0.2869  0.3232  1.2079
48241SOL    HW250687   9.422   1.383   1.144 -0.9245  0.0348  2.3149
48242SOL     OW50688  11.590  11.358   4.190 -0.2721 -0.5452 -0.0680
48242SOL    HW150689  11.634  11.286   4.234  1.2384  0.5457  0.3063
48242SOL    HW250690  11.510  11.372   4.241 -0.1224 -1.3538  0.4034
48243SOL     OW50691   1.573   5.626  10.272  0.1369 -0.1149  0.2624
48243SOL    HW150692   1.586   5.561  10.204  1.5332  1.1899 -0.7566
48243SOL    HW250693   1.597   5.581  10.353  0.4378 -1.0504 -0.3329
48244SOL     OW50694   3.623   6.125   0.871  0.6429 -0.1867 -1.0015
48244SOL    HW150695   3.708   6.118   0.916  0.4137 -0.0286 -0.5389
48244SOL    HW250696   3.574   6.049   0.902  0.0656  0.5479 -0.0806
48245SOL     OW50697  10.792   1.824  10.786 -0.2179 -0.6523 -0.2860
48245SOL    HW150698  10.735   1.901  10.784 -1.9347 -1.8587 -0.2398
48245SOL    HW250699  10.834   1.828  10.872  0.4815  0.7211 -0.6535
48246SOL     OW50700   0.134   0.758   1.850  0.1759 -0.1362  0.2643
48246SOL    HW150701   0.147   0.702   1.773  1.0014  0.5416 -0.1123
48246SOL    HW250702   0.201   0.825   1.841 -1.4070  1.5054  0.1666
48247SOL     OW50703   1.111   4.306  11.311 -0.0228 -0.0881 -0.0473
48247SOL    HW150704   1.083   4.259  11.233  2.1015 -0.1362 -0.8475
48247SOL    HW250705   1.140   4.237  11.371  0.2847  0.0528 -0.0346
48248SOL     OW50706   5.152  12.393   6.753  0.3984  0.2598 -0.0049
48248SOL    HW150707   5.216  12.401   6.824 -0.4839 -1.2120  1.0226
48248SOL    HW250708   5.097  12.471   6.762  0.7003  0.4233  0.5132
48249SOL     OW50709   4.518   7.464   9.858  0.4294  0.0075  0.6699
48249SOL    HW150710   4.521   7.369   9.864  1.8725 -0.0342 -0.3053
48249SOL    HW250711   4.539   7.495   9.946  3.0859 -0.6001  0.3232
48250SOL     OW50712   5.371   4.946   9.412 -0.3291  0.0572 -0.6867
48250SOL    HW150713   5.435   4.987   9.470  1.3735 -2.6274 -0.4698
48250SOL    HW250714   5.423   4.917   9.337 -1.6687 -0.4475 -1.4471
48251SOL     OW50715   2.293   9.468   5.765 -0.0624 -0.5849  0.0760
48251SOL    HW150716   2.219   9.493   5.821  0.2760 -0.1699  0.3375
48251SOL    HW250717   2.365   9.451   5.825  0.0984 -0.8599 -0.1889
48252SOL     OW50718  10.822   9.725   5.568 -0.2346  0.6566 -0.0393
48252SOL    HW150719  10.911   9.755   5.585  0.4566 -2.2900  2.6058
48252SOL    HW250720  10.833   9.649   5.511 -1.1013  0.5120 -0.0319
48253SOL     OW50721   1.301   9.263   3.014 -0.1900 -0.2269  0.0051
48253SOL    HW150722   1.292   9.333   2.950  2.5314 -0.9731 -1.3608
48253SOL    HW250723   1.256   9.188   2.975 -1.7223  0.2742  0.7364
48254SOL     OW50724   9.433   8.340  10.724 -0.3162  0.2310 -0.3494
48254SOL    HW150725   9.513   8.333  10.672  1.1872  2.1122  1.5271
48254SOL    HW250726   9.433   8.262  10.779  1.3076  1.1138  0.9730
48255SOL     OW50727   4.334  10.229   0.056  0.4897 -0.6095 -0.7486
48255SOL    HW150728   4.319  10.172  -0.019  0.3024 -0.7906 -0.5743
48255SOL    HW250729   4.280  10.306   0.039 -0.6886 -1.2758 -0.1018
48256SOL     OW50730   3.182  12.016   3.342  0.5140 -0.0179 -0.0373
48256SOL    HW150731   3.267  11.998   3.383  0.9657 -0.2306 -1.0245
48256SOL    HW250732   3.200  12.090   3.283  0.3134 -0.8094 -1.1220
48257SOL     OW50733   6.235   3.984   6.744 -0.0043  0.4472  0.4434
48257SOL    HW150734   6.221   3.889   6.742 -2.8693  0.7625 -2.4712
48257SOL    HW250735   6.271   4.005   6.658 -0.5250  2.1067  0.5962
48258SOL     OW50736   7.853  11.641   9.928 -0.2280  0.2390 -0.0173
48258SOL    HW150737   7.775  11.591   9.952  0.4764 -0.6881  0.4143
48258SOL    HW250738   7.852  11.641   9.832 -1.1074  0.8271 -0.0208
48259SOL     OW50739   5.734   0.750   1.681 -0.2138  0.4526 -0.6311
48259SOL    HW150740   5.639   0.754   1.677 -0.1835  2.9683 -0.4398
48259SOL    HW250741   5.763   0.829   1.635  1.7756 -0.0235 -0.2972
48260SOL     OW50742   4.485   2.942   0.515 -0.4763  0.1997  0.3627
48260SOL    HW150743   4.467   3.019   0.568 -1.1830 -1.3325  2.4565
48260SOL    HW250744   4.400   2.902   0.499 -0.0814 -0.4205 -0.2936
48261SOL     OW50745   7.113   5.293   4.787 -0.4870 -0.4301  0.3737
48261SOL    HW150746   7.142   5.214   4.742 -1.0892 -1.2709  1.4023
48261SOL    HW250747   7.163   5.364   4.747  0.7356 -1.4476  0.0552
48262SOL     OW50748   3.488   2.781   8.751  0.9075 -0.2915  0.1474
48262SOL    HW150749   3.414   2.734   8.713  0.1982 -0.2395  1.4203
48262SOL    HW250750   3.475   2.873   8.725  1.3877 -0.5038 -0.9207
48263SOL     OW50751   2.880   9.019   3.014  0.0695  0.2130 -0.4379
48263SOL    HW150752   2.883   8.992   2.923  0.2309  1.9711 -1.0006
48263SOL    HW250753   2.969   9.048   3.034 -0.1920  0.7772 -0.0454
48264SOL     OW50754   8.382  11.876   8.682  0.8847  0.0483 -0.0048
48264SOL    HW150755   8.363  11.900   8.773  0.3182  3.1526 -0.8422
48264SOL    HW250756   8.477  11.878   8.676  0.8874  0.9197  0.2759
48265SOL     OW50757   5.148   9.126   1.747  0.0547 -0.3981 -0.0450
48265SOL    HW150758   5.231   9.122   1.794  0.3653 -1.0008 -0.6098
48265SOL    HW250759   5.160   9.066   1.673 -0.6557 -0.0032 -0.4985
48266SOL     OW50760   7.015   9.930   2.040  0.4225  0.3791 -0.1751
48266SOL    HW150761   7.080   9.871   2.002  1.0004  0.9894 -0.1545
48266SOL    HW250762   6.991   9.889   2.123  0.3678 -0.1326 -0.4438
48267SOL     OW50763   1.744   1.638   2.955  0.3069 -0.3522 -0.0019
48267SOL    HW150764   1.704   1.696   2.890  0.6969  0.7335  0.6985
48267SOL    HW250765   1.769   1.560   2.906 -0.3793  0.0032 -0.9358
48268SOL     OW50766   4.967  11.367   3.453 -0.1918  0.2891  0.4622
48268SOL    HW150767   4.966  11.389   3.360 -0.9858  2.2523  0.8955
48268SOL    HW250768   4.929  11.443   3.497  0.7455 -0.3148  2.4608
48269SOL     OW50769   5.475   6.387   2.282  0.1318  0.6547 -0.0216
48269SOL    HW150770   5.523   6.315   2.323  0.3588  0.5909 -0.3905
48269SOL    HW250771   5.469   6.454   2.350  1.2289  0.8863 -0.1263
48270SOL     OW50772   4.596   0.726   4.013  0.4677 -0.2931 -0.2182
48270SOL    HW150773   4.654   0.724   4.089 -1.9853 -3.1982  1.8345
48270SOL    HW250774   4.653   0.706   3.939  2.7034  1.1732  0.9784
48271SOL     OW50775  10.638   8.856   0.030  0.3223 -0.3709  0.6468
48271SOL    HW150776  10.570   8.814  -0.024 -1.4478  0.4453  2.1168
48271SOL    HW250777  10.643   8.801   0.109  0.3617  0.3389  1.1502
48272SOL     OW50778   3.377   7.932  10.894 -0.4925  0.2537 -0.1568
48272SOL    HW150779   3.432   7.961  10.821 -0.4946 -1.1137 -0.7216
48272SOL    HW250780   3.302   7.991  10.892  0.5390  1.6218  0.1156
48273SOL     OW50781   2.147   2.031   8.924  0.6620  0.4252  0.6146
48273SOL    HW150782   2.092   2.000   8.852  1.8690  2.0047 -1.0887
48273SOL    HW250783   2.117   2.121   8.940  0.4301  0.1099  2.1001
48274SOL     OW50784   1.541   7.884   4.127 -0.3465  0.0531 -0.2017
48274SOL    HW150785   1.577   7.847   4.208 -1.2188 -0.1177  0.1124
48274SOL    HW250786   1.472   7.823   4.102  0.1507 -0.0820 -1.2709
48275SOL     OW50787   5.984   0.528   6.679 -0.1168  0.2652  0.3126
48275SOL    HW150788   5.966   0.434   6.674 -2.6900  0.6001  1.6659
48275SOL    HW250789   5.914   0.570   6.629  0.9345  1.4818 -0.1977
48276SOL     OW50790   6.026  11.811  10.256 -0.4466  0.2841 -0.4070
48276SOL    HW150791   6.085  11.738  10.235 -0.0717  0.2410  0.7391
48276SOL    HW250792   6.065  11.886  10.212 -0.6955 -0.1366 -1.3860
48277SOL     OW50793  10.944   1.787  10.573 -0.7648  0.5239  0.0805
48277SOL    HW150794  10.967   1.865  10.522  0.1841  0.1809 -0.0380
48277SOL    HW250795  10.897   1.821  10.649  1.0045  1.3950  0.8498
48278SOL     OW50796   9.025   3.756   3.657 -0.3294 -0.0050  0.8560
48278SOL    HW150797   9.023   3.728   3.749 -1.6707 -1.1451  0.5165
48278SOL    HW250798   8.947   3.809   3.646  0.2457  0.7913  0.5513
48279SOL     OW50799  12.357  10.208   9.448 -0.2536  0.0353 -0.3577
48279SOL    HW150800  12.451  10.206   9.431 -0.4255  1.0115 -1.5523
48279SOL    HW250801  12.340  10.128   9.499  1.0239 -0.7604 -1.1252
48280SOL     OW50802   6.363   5.716   4.935 -0.0929 -0.0353 -0.0051
48280SOL    HW150803   6.377   5.624   4.909 -1.7810 -0.4629  0.4731
48280SOL    HW250804   6.425   5.765   4.882 -1.3929 -1.1416 -2.7486
48281SOL     OW50805   3.521   1.640   1.735  0.3525  0.3737  0.5486
48281SOL    HW150806   3.513   1.723   1.688  0.9781  1.0423  1.5751
48281SOL    HW250807   3.540   1.575   1.667  1.1331  1.2941 -0.1461
48282SOL     OW50808   1.374   6.355   3.972  0.0829 -0.3843 -0.6878
48282SOL    HW150809   1.281   6.369   3.990  0.3494 -0.5657  0.9597
48282SOL    HW250810   1.418   6.380   4.053  1.5822  0.7129 -1.7999
48283SOL     OW50811   8.725   1.799   5.319  0.2953 -0.3436 -0.7428
48283SOL    HW150812   8.712   1.876   5.265  1.6257  0.2059 -0.3130
48283SOL    HW250813   8.673   1.816   5.398  1.2019  0.4983 -0.3026
48284SOL     OW50814   7.264   9.785  10.744  0.4583 -0.0935  0.4075
48284SOL    HW150815   7.178   9.799  10.782 -0.0307  0.3687 -0.8230
48284SOL    HW250816   7.247   9.751  10.657  1.5436 -1.0199  0.5354
48285SOL     OW50817   0.624   0.871   2.726  0.6643 -0.2361  0.1281
48285SOL    HW150818   0.615   0.861   2.631 -1.0850  1.5022  0.0364
48285SOL    HW250819   0.559   0.810   2.762 -1.8072  2.1386 -0.0236
48286SOL     OW50820   1.042  11.544   6.816 -0.0348 -0.3949  0.2818
48286SOL    HW150821   0.979  11.555   6.887 -0.3983  0.1207 -0.1173
48286SOL    HW250822   1.003  11.588   6.741  1.2704  0.8832  0.3109
48287SOL     OW50823   6.972   9.423  11.938 -0.2058  0.1957 -0.2487
48287SOL    HW150824   7.048   9.479  11.953 -1.0091  1.1753  0.2857
48287SOL    HW250825   6.982   9.352  12.001 -0.3340  0.9648  0.6759
48288SOL     OW50826   8.831   5.017   5.901  0.5352  0.6025  0.7224
48288SOL    HW150827   8.873   5.031   5.987  1.6113 -1.7741  0.6762
48288SOL    HW250828   8.749   5.065   5.906  1.2827  1.7841  2.5159
48289SOL     OW50829   7.202   7.446   1.901  0.3236 -0.0952  0.5088
48289SOL    HW150830   7.209   7.351   1.897  0.9320 -0.0525  0.3748
48289SOL    HW250831   7.144   7.469   1.828 -1.3059 -0.4844  1.6391
48290SOL     OW50832   8.329   5.308   1.209 -0.7780  0.4391 -0.6198
48290SOL    HW150833   8.260   5.293   1.144  1.3738 -0.5493 -2.8626
48290SOL    HW250834   8.358   5.220   1.233  1.2880  0.7675 -1.6509
48291SOL     OW50835   4.056   7.750  11.650 -0.0977 -0.0371 -0.3555
48291SOL    HW150836   4.071   7.789  11.736  3.0474  0.6608 -1.1051
48291SOL    HW250837   4.105   7.668  11.653  0.5392  0.2769 -1.6213
48292SOL     OW50838   0.557  10.831   4.006 -0.2366  0.4581  0.0418
48292SOL    HW150839   0.477  10.779   3.999  0.3534 -0.2985 -1.7164
48292SOL    HW250840   0.625  10.769   4.033 -0.3379  1.2452  2.2742
48293SOL     OW50841   9.516   1.410   9.373 -0.6904  0.0971  0.7407
48293SOL    HW150842   9.537   1.503   9.381  1.3472 -0.3216  0.7429
48293SOL    HW250843   9.582   1.365   9.425 -0.3798 -1.4683 -0.8800
48294SOL     OW50844   6.734   4.933  12.063  0.2138  0.4452 -0.2974
48294SOL    HW150845   6.639   4.933  12.052  0.2909  0.7112 -0.9826
48294SOL    HW250846   6.754   4.845  12.095 -0.5966  1.2964  2.9707
48295SOL     OW50847   6.387   1.187   7.768  0.7006 -0.1329 -0.2233
48295SOL    HW150848   6.312   1.215   7.821  1.0405 -0.5593  0.5050
48295SOL    HW250849   6.423   1.269   7.733  0.9381  0.2543  0.8659
48296SOL     OW50850   3.548   1.579  11.214 -0.2326 -0.2678 -0.3542
48296SOL    HW150851   3.537   1.616  11.126  0.8384 -0.0267 -0.3996
48296SOL    HW250852   3.540   1.485  11.201  1.3285 -0.3503 -0.9778
48297SOL     OW50853   8.304   3.208   3.690  0.4881 -0.7075  0.7178
48297SOL    HW150854   8.288   3.167   3.775  0.4788 -0.5813  0.7771
48297SOL    HW250855   8.369   3.276   3.708 -1.6657  1.3722  1.2082
48298SOL     OW50856   2.366   7.416   0.940  0.4595 -0.0577  0.3379
48298SOL    HW150857   2.417   7.356   0.886  2.4009  0.8407  1.0788
48298SOL    HW250858   2.359   7.372   1.024 -1.7215 -1.0247 -0.2944
48299SOL     OW50859   6.495   8.101   6.107  0.7807  0.5980 -0.3673
48299SOL    HW150860   6.540   8.052   6.176 -0.1917  0.4751  0.1941
48299SOL    HW250861   6.421   8.046   6.083 -0.2256  1.6960  0.1345
48300SOL     OW50862   2.713   4.278   7.498  0.4258 -0.2117 -0.1182
48300SOL    HW150863   2.674   4.365   7.488 -0.3662 -0.4770  0.5098
48300SOL    HW250864   2.654   4.233   7.560  1.0036 -1.0788 -0.1898
48301SOL     OW50865   7.760   6.851   7.713  0.3273 -0.1106  0.2704
48301SOL    HW150866   7.821   6.802   7.769 -1.0828 -0.2655  1.7593
48301SOL    HW250867   7.681   6.859   7.766 -1.2263 -0.5422 -1.8488
48302SOL     OW50868  12.463   1.514   1.839 -0.2666 -0.2640 -0.0441
48302SOL    HW150869  12.488   1.540   1.750 -1.4099 -0.2681 -0.3848
48302SOL    HW250870  12.373   1.543   1.848 -0.3420 -0.7559  0.9252
48303SOL     OW50871   1.735  11.890   6.919  0.3521 -0.1006  0.6881
48303SOL    HW150872   1.760  11.983   6.921 -0.5094  0.1978 -0.8139
48303SOL    HW250873   1.646  11.889   6.956  0.0530 -0.1938 -0.0142
48304SOL     OW50874   5.034   1.979   0.778 -0.0123 -0.4018  0.0450
48304SOL    HW150875   4.990   2.060   0.801  1.4572  0.5979 -0.4922
48304SOL    HW250876   5.009   1.964   0.687  2.0046  1.1181 -0.8452
48305SOL     OW50877  11.909   0.237   3.734  0.3096  0.1274 -0.1562
48305SOL    HW150878  12.003   0.221   3.749  0.3536  0.2661 -0.2811
48305SOL    HW250879  11.890   0.317   3.783  0.3227  0.2586 -0.3650
48306SOL     OW50880  10.091   0.154   9.410  0.0850  0.1688 -0.3715
48306SOL    HW150881  10.088   0.138   9.505 -0.6146  0.3991 -0.3482
48306SOL    HW250882  10.070   0.069   9.371  1.6496 -0.2517 -0.3561
48307SOL     OW50883   2.691   0.729  10.405  0.4187 -0.1715  0.1811
48307SOL    HW150884   2.774   0.717  10.357  0.9326  1.7760  0.4951
48307SOL    HW250885   2.626   0.742  10.336  0.6691 -0.0749 -0.0407
48308SOL     OW50886   9.618   7.349  10.147 -0.1106  0.4365  0.3110
48308SOL    HW150887   9.619   7.439  10.112  0.4830  0.4450  0.3364
48308SOL    HW250888   9.688   7.348  10.212  0.2931 -0.2164 -0.1231
48309SOL     OW50889   8.232   1.791  10.184  0.0314 -0.2344  0.5338
48309SOL    HW150890   8.257   1.837  10.265  1.5490 -0.1293  0.0417
48309SOL    HW250891   8.176   1.853  10.137  2.7594  1.5992 -0.5399
48310SOL     OW50892   1.840   5.163   7.545  0.1432  0.4002 -0.1783
48310SOL    HW150893   1.830   5.090   7.484  1.7959 -0.2666  0.2933
48310SOL    HW250894   1.778   5.229   7.514  1.0433  0.1780 -2.6912
48311SOL     OW50895   6.783   6.411   2.122 -0.5326 -0.0772 -0.1775
48311SOL    HW150896   6.805   6.381   2.034  1.3689 -1.5177  0.7306
48311SOL    HW250897   6.842   6.363   2.180 -2.0473  0.4685  1.9548
48312SOL     OW50898   0.466   4.565  10.353 -0.5092 -0.0801  0.2172
48312SOL    HW150899   0.530   4.565  10.282 -0.7908  0.6296 -0.0464
48312SOL    HW250900   0.503   4.506  10.419 -0.1920 -0.6590 -0.4700
48313SOL     OW50901  10.455   2.773   1.389  0.0909  0.6829 -0.5304
48313SOL    HW150902  10.490   2.799   1.304 -1.6095  1.4324 -1.0457
48313SOL    HW250903  10.454   2.854   1.440 -0.7162  0.6455 -0.4777
48314SOL     OW50904  11.144  12.166   4.435 -0.0816  0.5372  1.0102
48314SOL    HW150905  11.228  12.121   4.443 -1.3627 -1.9146  1.5474
48314SOL    HW250906  11.164  12.245   4.384  2.7352  0.6648  2.1534
48315SOL     OW50907  10.315   4.507   8.430 -0.1950 -0.1537 -0.0030
48315SOL    HW150908  10.309   4.521   8.335 -0.8213 -1.6452 -0.2010
48315SOL    HW250909  10.236   4.458   8.452  0.1676 -0.2133  1.2339
48316SOL     OW50910  11.775  10.939  11.868 -0.0435  0.7985  0.3333
48316SOL    HW150911  11.856  10.910  11.910 -1.0580 -2.6788  0.2061
48316SOL    HW250912  11.714  10.952  11.940 -0.7168 -1.5134  0.2507
48317SOL     OW50913   0.169   2.939  10.736  0.2523 -0.5605  0.1546
48317SOL    HW150914   0.200   3.023  10.771  1.7623 -1.1826  0.3971
48317SOL    HW250915   0.078   2.955  10.711 -0.1740  0.5736  2.1910
48318SOL     OW50916   8.898   1.525   1.510  0.3911  0.3489 -0.4411
48318SOL    HW150917   8.863   1.439   1.488  0.6136  0.9034 -3.3513
48318SOL    HW250918   8.826   1.586   1.493  1.2042  1.0118 -1.7157
48319SOL     OW50919   7.566  10.578   3.140 -0.3977  0.1120  0.7098
48319SOL    HW150920   7.496  10.622   3.189 -1.3840 -0.1701 -0.4040
48319SOL    HW250921   7.577  10.631   3.061  0.7451  0.2121  0.9199
48320SOL     OW50922   1.006   1.899   6.282 -0.1202  0.0529 -0.0441
48320SOL    HW150923   0.970   1.957   6.215  0.1422 -1.1445 -1.2755
48320SOL    HW250924   0.971   1.932   6.364 -0.5597  1.4924 -0.7782
48321SOL     OW50925   3.120  10.202   5.258 -0.0484  0.1135  0.5230
48321SOL    HW150926   3.154  10.292   5.265 -0.4388  0.1616  2.6709
48321SOL    HW250927   3.158  10.156   5.333  0.0230 -1.4997 -0.4583
48322SOL     OW50928   5.170   7.701   4.667 -0.2454  0.4363 -0.5730
48322SOL    HW150929   5.175   7.704   4.571  0.1152  1.5162 -0.5285
48322SOL    HW250930   5.078   7.722   4.687 -0.5753 -0.7965 -0.7026
48323SOL     OW50931   0.288  11.085   4.723  0.4438  0.2902  0.7257
48323SOL    HW150932   0.261  10.994   4.707  1.2843  0.1364  0.0745
48323SOL    HW250933   0.320  11.115   4.637 -0.2870  1.3673  0.8156
48324SOL     OW50934  11.332   1.832   0.483 -0.5687 -0.0995  0.1835
48324SOL    HW150935  11.277   1.786   0.419  0.1086 -0.8156  0.0930
48324SOL    HW250936  11.318   1.784   0.565 -1.6311  0.9737  0.6499
48325SOL     OW50937   4.115   2.765   6.759  0.0926 -0.2683 -0.1185
48325SOL    HW150938   4.081   2.684   6.797  1.7081 -0.8495  0.1574
48325SOL    HW250939   4.207   2.745   6.739  0.6823  1.6545  0.4714
48326SOL     OW50940   0.709   8.832  10.554 -0.2731 -0.4887 -0.2381
48326SOL    HW150941   0.720   8.738  10.559  1.5657 -0.2527  1.2278
48326SOL    HW250942   0.733   8.855  10.464 -3.0798 -1.5996 -1.3710
48327SOL     OW50943   2.830  10.619   4.753 -0.1531  0.7141  0.1990
48327SOL    HW150944   2.764  10.550   4.761  0.0094  0.6572  1.2492
48327SOL    HW250945   2.885  10.608   4.831 -0.3764  2.3040  0.6119
48328SOL     OW50946   8.653   4.413   0.632  1.0678 -0.0422 -0.0784
48328SOL    HW150947   8.736   4.452   0.661  0.0067  1.0896  1.6512
48328SOL    HW250948   8.587   4.477   0.659 -0.4238 -1.2466 -0.7757
48329SOL     OW50949   2.452   2.078   6.697 -0.2511 -0.0715  0.4097
48329SOL    HW150950   2.461   2.115   6.609  2.3127  0.0998  0.6502
48329SOL    HW250951   2.445   2.155   6.754 -1.7134 -0.1774  0.3964
48330SOL     OW50952   8.369   6.051   3.316  0.4063  0.6456 -0.7408
48330SOL    HW150953   8.425   5.996   3.371 -0.1795 -0.8081 -1.5601
48330SOL    HW250954   8.316   6.100   3.379 -1.3046 -2.0556  0.1050
48331SOL     OW50955   5.565   3.049   5.410  0.0767 -0.0873 -0.0397
48331SOL    HW150956   5.482   3.032   5.366 -0.5818 -0.8509  1.4469
48331SOL    HW250957   5.597   2.963   5.436 -0.3223  0.4052  2.2897
48332SOL     OW50958   2.572   5.306   1.286 -0.3735  0.0058  0.1971
48332SOL    HW150959   2.583   5.212   1.270 -1.4106 -0.2413  0.8595
48332SOL    HW250960   2.645   5.329   1.343 -0.3170 -0.4876  0.3298
48333SOL     OW50961   1.072   3.880   8.225  0.2404 -0.2129  0.0472
48333SOL    HW150962   1.104   3.967   8.248  1.1237 -0.1031 -1.4822
48333SOL    HW250963   1.135   3.820   8.265  1.5039 -0.0332 -1.5602
48334SOL     OW50964  10.309   8.304   0.732  0.4876 -0.6314  0.2635
48334SOL    HW150965  10.367   8.378   0.752 -1.0231  0.4341  0.9020
48334SOL    HW250966  10.284   8.318   0.640 -1.1007  0.6518  0.8425
48335SOL     OW50967   6.422   0.646  10.191  0.4177  0.3407  0.2820
48335SOL    HW150968   6.412   0.627  10.284  0.5997 -0.4874  0.1343
48335SOL    HW250969   6.334   0.675  10.163  0.7193  2.1576  1.0390
48336SOL     OW50970   3.005   3.831  10.458 -0.2520 -0.0643  0.8528
48336SOL    HW150971   2.927   3.864  10.501  0.7229 -0.2623  2.8979
48336SOL    HW250972   3.078   3.875  10.503  0.8866 -1.5373  0.5313
48337SOL     OW50973   5.114   0.002  12.066 -0.4423  0.2858  0.1872
48337SOL    HW150974   5.130  -0.061  11.996 -1.6086 -0.8006  0.8708
48337SOL    HW250975   5.124   0.087  12.024  0.0698 -0.3380 -1.0119
48338SOL     OW50976  10.127   7.121   8.718 -0.2811 -0.6373 -0.4600
48338SOL    HW150977  10.066   7.194   8.732  1.2671  0.5863  0.1767
48338SOL    HW250978  10.202   7.142   8.773  1.2361 -1.4908 -2.1030
48339SOL     OW50979   1.812   3.915   7.452  0.0044  0.2584  0.0142
48339SOL    HW150980   1.884   3.872   7.499 -2.1964 -0.7959  2.6451
48339SOL    HW250981   1.797   3.859   7.376  2.5383  1.0625 -1.2017
48340SOL     OW50982   7.996   9.994   2.829 -0.0989 -0.5069 -0.2286
48340SOL    HW150983   7.980  10.009   2.736  1.3160  0.2680 -0.3743
48340SOL    HW250984   8.023   9.903   2.835 -0.1340 -0.5424 -0.5894
48341SOL     OW50985   7.061   0.615   2.441  0.6966  0.0521 -0.1440
48341SOL    HW150986   6.978   0.576   2.469  0.0924  2.0083  0.9675
48341SOL    HW250987   7.124   0.587   2.507  0.8488 -1.0156 -0.7109
48342SOL     OW50988   4.473   4.013   1.982  0.5998  0.4030 -0.2862
48342SOL    HW150989   4.533   3.951   1.940 -0.2458 -0.9051  0.3547
48342SOL    HW250990   4.459   3.977   2.070 -1.0872  0.6748 -0.4100
48343SOL     OW50991   0.375   4.968   8.915  0.4224  0.1463  0.3448
48343SOL    HW150992   0.359   4.897   8.853  0.5341 -1.2589  1.8577
48343SOL    HW250993   0.288   5.001   8.937  0.4100  3.5129 -3.5352
48344SOL     OW50994  12.370   5.621   2.627  0.4345 -0.1256  0.0210
48344SOL    HW150995  12.281   5.651   2.612  0.8051  0.2028 -1.7317
48344SOL    HW250996  12.415   5.634   2.543  2.0488 -0.5791  0.7625
48345SOL     OW50997   0.348  10.248   7.393 -0.6851 -0.7064 -0.3972
48345SOL    HW150998   0.350  10.302   7.314  1.2756  2.1810  1.4153
48345SOL    HW250999   0.277  10.284   7.445  1.0803  0.7720  1.1322
48346SOL     OW51000   0.981  11.796   0.156  0.1187 -0.2333 -0.3042
48346SOL    HW151001   1.018  11.884   0.164  2.2020 -0.9148 -1.6753
48346SOL    HW251002   1.045  11.739   0.200 -0.3323 -1.2576 -0.9431
48347SOL     OW51003   5.253   9.454   2.084  0.6356  0.2774 -0.4335
48347SOL    HW151004   5.312   9.379   2.076 -0.0175 -0.1505 -1.5508
48347SOL    HW251005   5.264   9.484   2.174  0.8966 -1.1896  0.0472
48348SOL     OW51006   5.214  11.342   4.037 -0.0585 -0.5001  0.3148
48348SOL    HW151007   5.282  11.289   3.996 -0.6218 -2.2656  1.5309
48348SOL    HW251008   5.137  11.330   3.982 -0.6109 -2.2714  1.3984
48349SOL     OW51009  12.263   0.748  10.926 -0.0514 -0.3536 -0.0220
48349SOL    HW151010  12.265   0.770  11.019  0.8077 -1.7201  0.3172
48349SOL    HW251011  12.353   0.722  10.905 -0.2044  0.0422 -1.2745
48350SOL     OW51012   8.733  10.307   7.866 -0.2994 -0.2495  0.4989
48350SOL    HW151013   8.777  10.236   7.819 -0.1042 -0.6049  1.2076
48350SOL    HW251014   8.739  10.382   7.807  1.6239 -0.1633  0.7457
48351SOL     OW51015  10.549  11.099   9.346 -0.0159  0.1073 -0.1458
48351SOL    HW151016  10.569  11.192   9.334 -0.5117  0.4462  1.4274
48351SOL    HW251017  10.566  11.083   9.439  2.4038 -1.9781 -0.8162
48352SOL     OW51018  11.153   0.924   9.664 -0.4087 -0.6780 -0.4911
48352SOL    HW151019  11.125   0.905   9.753 -1.1780 -0.0046 -0.5683
48352SOL    HW251020  11.126   0.847   9.613  1.0212 -1.5434  0.0302
48353SOL     OW51021   5.765   8.923   3.905  0.2928  0.1418 -0.2768
48353SOL    HW151022   5.821   8.951   3.977  0.1727  1.3236 -0.6212
48353SOL    HW251023   5.777   8.828   3.901  0.8921  0.1538  0.7931
48354SOL     OW51024   0.966  12.214   5.190 -0.8265  0.1625  0.8107
48354SOL    HW151025   0.925  12.205   5.276 -3.6299 -1.3648 -0.5589
48354SOL    HW251026   0.927  12.145   5.137  0.4730  1.3134 -1.8376
48355SOL     OW51027   0.806   6.972   0.037  0.1881 -0.1701 -0.5074
48355SOL    HW151028   0.785   6.937   0.124  0.3151  2.3838  0.6334
48355SOL    HW251029   0.721   6.987  -0.004  0.0240  1.0954  0.2574
48356SOL     OW51030  11.920   4.795   8.644 -0.2790  0.7142 -0.2160
48356SOL    HW151031  11.991   4.756   8.693 -1.3421 -0.7728  0.2043
48356SOL    HW251032  11.868   4.721   8.613 -0.1890  1.6110 -2.8218
48357SOL     OW51033   8.598   4.041   7.907 -0.0924  0.7565  0.3375
48357SOL    HW151034   8.548   3.999   7.837 -0.2716  0.8243  0.4258
48357SOL    HW251035   8.684   4.059   7.867 -0.3114  1.1302  0.0172
48358SOL     OW51036  11.861  10.403   6.125 -0.3868  0.0644  0.8861
48358SOL    HW151037  11.856  10.491   6.163 -0.3586  0.3431  0.2574
48358SOL    HW251038  11.804  10.407   6.048  0.4000 -0.1652  0.2792
48359SOL     OW51039  12.023   4.443   7.442  0.3881 -0.6361 -0.3467
48359SOL    HW151040  12.062   4.356   7.447 -0.8933 -1.2227 -0.1278
48359SOL    HW251041  11.930   4.427   7.424  0.1657  0.6945 -0.5255
48360SOL     OW51042   3.254   0.375   2.009  0.7154 -0.4333 -0.0070
48360SOL    HW151043   3.225   0.286   2.029  3.7910 -1.5145  0.2366
48360SOL    HW251044   3.268   0.416   2.095 -2.9710  1.2994 -0.0358
48361SOL     OW51045   2.025   4.926   0.822  0.4577  0.0172  0.6579
48361SOL    HW151046   2.002   4.952   0.733  0.5890 -0.1679  0.5693
48361SOL    HW251047   1.943   4.897   0.861  0.4255 -0.0355  0.5510
48362SOL     OW51048  11.373   1.465   5.615  0.0447 -0.3672  0.2817
48362SOL    HW151049  11.335   1.507   5.692 -1.6571 -0.0471 -0.6624
48362SOL    HW251050  11.310   1.397   5.591  1.1241 -1.2460 -0.1511
48363SOL     OW51051   8.342   7.682   1.177 -0.0949 -0.2286 -0.1275
48363SOL    HW151052   8.354   7.718   1.089 -2.1673 -2.0674 -1.2740
48363SOL    HW251053   8.387   7.597   1.175 -1.3643 -0.9372  0.0477
48364SOL     OW51054   7.525   6.348   2.860  0.0967 -0.0572 -0.2724
48364SOL    HW151055   7.510   6.323   2.951  0.0723  2.3790  0.4630
48364SOL    HW251056   7.618   6.369   2.856 -0.0672  0.6397 -0.5852
48365SOL     OW51057  11.444   2.541   1.776  0.2598 -0.3183 -0.3042
48365SOL    HW151058  11.438   2.446   1.765 -1.7150 -0.4133  1.1095
48365SOL    HW251059  11.442   2.577   1.687  0.8764 -1.5649 -0.8435
48366SOL     OW51060   3.531   6.485   9.867  0.1699 -0.3819 -0.4195
48366SOL    HW151061   3.445   6.445   9.879 -1.2479  2.2558 -0.9492
48366SOL    HW251062   3.568   6.440   9.791 -0.4076 -2.0201  0.2184
48367SOL     OW51063   3.370   9.663   6.732 -0.0907  0.6088  0.1739
48367SOL    HW151064   3.418   9.618   6.802  0.7970  1.9153  0.4584
48367SOL    HW251065   3.410   9.751   6.729 -2.7815  1.9382  0.7257
48368SOL     OW51066   9.869  10.338   9.882 -0.7621 -0.5693  0.1470
48368SOL    HW151067   9.892  10.351   9.974  0.4927 -3.0103  0.2691
48368SOL    HW251068   9.945  10.372   9.834 -1.7674  1.4815 -0.1107
48369SOL     OW51069   8.404   1.366  10.077  0.2415 -0.2211  0.0717
48369SOL    HW151070   8.329   1.346  10.133 -1.9379 -1.8015 -3.0885
48369SOL    HW251071   8.386   1.454  10.043  0.9147  0.2316  0.8653
48370SOL     OW51072   2.963  10.604   0.812 -0.0032  0.6467 -0.0378
48370SOL    HW151073   2.926  10.641   0.732  0.6088  1.6380  0.1202
48370SOL    HW251074   3.057  10.602   0.797  0.1162  0.8315  0.6565
48371SOL     OW51075  11.565   8.142   9.490  0.5283  0.1278 -0.4151
48371SOL    HW151076  11.599   8.070   9.542 -0.6794  0.4107  0.8052
48371SOL    HW251077  11.636   8.163   9.429  1.8840 -0.3908  0.9320
48372SOL     OW51078   1.834   4.672   6.009  0.0982 -0.3535  0.1589
48372SOL    HW151079   1.746   4.686   5.973  0.6943 -0.9504 -1.6159
48372SOL    HW251080   1.819   4.639   6.098 -1.4558 -0.5826 -0.1657
48373SOL     OW51081   3.087   1.192   6.721 -0.4619 -0.1863  0.0210
48373SOL    HW151082   3.109   1.196   6.628  1.6254 -0.8668  0.4347
48373SOL    HW251083   3.133   1.115   6.754 -1.6102 -0.2896  1.5297
48374SOL     OW51084  10.175   9.617   4.843  0.2351  0.3083 -0.5317
48374SOL    HW151085  10.201   9.653   4.758  1.7798  0.1733 -0.1577
48374SOL    HW251086  10.220   9.533   4.848 -1.2736 -0.5132 -0.3077
48375SOL     OW51087   0.144   4.684  12.207 -0.4905  0.2392 -0.8052
48375SOL    HW151088   0.048   4.685  12.201 -0.4885 -1.0891 -1.3878
48375SOL    HW251089   0.162   4.707  12.298 -1.3903 -0.0611 -0.5348
48376SOL     OW51090   3.252   4.531   0.681 -0.5038 -0.0717  0.0526
48376SOL    HW151091   3.278   4.576   0.601  0.4644  1.3018  1.1143
48376SOL    HW251092   3.197   4.459   0.650  0.1852  0.1682 -1.8735
48377SOL     OW51093   5.406  12.236  11.972 -0.5813 -0.3302  0.3281
48377SOL    HW151094   5.447  12.323  11.977  0.9789 -0.8801 -1.6500
48377SOL    HW251095   5.436  12.200  11.889 -1.5889 -2.5952  0.8680
48378SOL     OW51096   0.583  12.312  10.358 -0.1586 -0.9208 -0.2413
48378SOL    HW151097   0.494  12.313  10.324 -1.4323  1.0137  2.7694
48378SOL    HW251098   0.602  12.403  10.379  2.3993 -1.3562 -0.3595
48379SOL     OW51099  11.922   9.502   6.757  0.4617  0.2190 -0.2136
48379SOL    HW151100  11.832   9.532   6.742  0.8488  0.9982 -1.0861
48379SOL    HW251101  11.918   9.454   6.839 -1.1095 -1.2680 -1.0912
48380SOL     OW51102  12.213  12.356   2.826 -0.1027 -0.1164 -0.4071
48380SOL    HW151103  12.149  12.297   2.788 -0.0676  0.2465 -1.0468
48380SOL    HW251104  12.224  12.425   2.761  0.4736  0.1552 -0.0334
48381SOL     OW51105   6.065   9.207   1.066 -0.4357 -0.2985  0.6795
48381SOL    HW151106   5.979   9.249   1.066  0.1789  0.9954  1.0837
48381SOL    HW251107   6.121   9.267   1.114  1.2446 -0.0135 -1.4970
48382SOL     OW51108   3.238   1.996   4.634 -0.4115  0.2472 -0.8243
48382SOL    HW151109   3.262   2.082   4.601 -0.7615  0.1985 -1.2220
48382SOL    HW251110   3.198   2.012   4.719  0.4017  0.3879 -0.4669
48383SOL     OW51111   2.777  12.135   4.086 -0.4062 -0.0399  0.0372
48383SOL    HW151112   2.866  12.103   4.102 -0.5895 -0.2163  0.7406
48383SOL    HW251113   2.745  12.081   4.014  0.2517  0.4068 -0.6012
48384SOL     OW51114  10.163   1.918  11.232 -0.1388  0.6169 -0.3172
48384SOL    HW151115  10.178   1.827  11.257 -1.1761  0.4964 -0.1258
48384SOL    HW251116  10.250   1.949  11.205  0.2849 -0.3293 -0.0934
48385SOL     OW51117   5.008   2.065   9.104  0.6401 -0.3025  0.0280
48385SOL    HW151118   5.085   2.087   9.053  1.0372  2.2348  1.5586
48385SOL    HW251119   5.040   2.004   9.171  1.3771  0.7703  0.6835
48386SOL     OW51120   5.600   4.707   0.662 -0.2675 -0.0252 -0.2706
48386SOL    HW151121   5.508   4.686   0.675 -0.9361  1.7342 -1.6937
48386SOL    HW251122   5.647   4.633   0.700 -2.2105 -0.4978  1.4171
48387SOL     OW51123  11.985   1.827   9.400  0.3908 -0.1323 -0.1287
48387SOL    HW151124  11.966   1.916   9.428 -2.1488 -0.9774  1.0687
48387SOL    HW251125  11.992   1.833   9.304 -3.1308  0.8873 -0.4427
48388SOL     OW51126  11.534  11.823   1.163 -0.2163 -0.2999 -0.5108
48388SOL    HW151127  11.475  11.895   1.185 -1.1650 -0.9482 -0.8971
48388SOL    HW251128  11.494  11.745   1.203  1.2320 -0.5111  0.6451
48389SOL     OW51129   6.101   8.778   6.815  0.2231 -0.1369 -0.0907
48389SOL    HW151130   6.145   8.863   6.818 -0.9853  0.5175 -0.1991
48389SOL    HW251131   6.045   8.783   6.737 -0.1755 -0.8759  0.1400
48390SOL     OW51132  12.460   5.066   9.443  0.1615  0.7538  0.4456
48390SOL    HW151133  12.405   4.991   9.467 -1.9063  2.3639  0.9949
48390SOL    HW251134  12.443   5.132   9.510 -0.0923  2.6833 -1.3963
48391SOL     OW51135   6.811  10.275   2.908  0.0404 -0.3687 -0.3186
48391SOL    HW151136   6.801  10.188   2.869 -2.1843 -0.9211  1.3170
48391SOL    HW251137   6.881  10.264   2.972  2.3403  0.0582 -2.5932
48392SOL     OW51138  12.456   3.908   3.164 -0.2858 -0.1863  0.1761
48392SOL    HW151139  12.404   3.828   3.162 -0.0077 -0.3934  0.9326
48392SOL    HW251140  12.459   3.932   3.257  0.1056  0.3882  0.0199
48393SOL     OW51141   5.971   9.941   2.459  0.1575  0.0451  0.2359
48393SOL    HW151142   6.066   9.931   2.457 -0.0376 -2.2119 -1.3132
48393SOL    HW251143   5.950   9.990   2.379 -0.1083 -1.4431 -0.6388
48394SOL     OW51144  11.515  11.268   7.839 -0.5411 -0.2700  0.0389
48394SOL    HW151145  11.537  11.183   7.801 -1.1799 -0.1425 -0.6214
48394SOL    HW251146  11.595  11.320   7.830  0.4315 -1.3001  1.9584
48395SOL     OW51147   2.267  10.841   8.312 -0.2265 -0.5748 -0.1611
48395SOL    HW151148   2.273  10.775   8.381 -0.1000  0.5759  0.9581
48395SOL    HW251149   2.354  10.844   8.273  0.8139  1.3440  2.1126
48396SOL     OW51150   7.521  10.060   3.161 -0.3739  0.0718 -0.2507
48396SOL    HW151151   7.536  10.143   3.115  0.9052  0.4446  0.7886
48396SOL    HW251152   7.451  10.081   3.224 -0.2435  0.2877 -0.1761
48397SOL     OW51153   2.191   4.568   9.582 -0.2372 -0.1217  0.0615
48397SOL    HW151154   2.219   4.599   9.668  0.9293 -1.7642  0.3237
48397SOL    HW251155   2.235   4.626   9.520 -0.1361  0.3422  0.5573
48398SOL     OW51156   1.133   6.345   7.657  0.7181 -0.1350 -0.0498
48398SOL    HW151157   1.064   6.321   7.596 -1.5585  0.6726  2.0303
48398SOL    HW251158   1.199   6.389   7.603 -1.2770  0.7667 -1.8885
48399SOL     OW51159  10.137   4.146   0.424  0.0441  0.0213 -0.0208
48399SOL    HW151160  10.118   4.101   0.342  0.1565 -0.4923  0.2332
48399SOL    HW251161  10.230   4.130   0.440 -0.4703 -1.9317  1.4208
48400SOL     OW51162  12.283   1.562   2.221  1.1687  0.0421  0.1970
48400SOL    HW151163  12.196   1.564   2.182  1.1635 -0.4365  0.1726
48400SOL    HW251164  12.342   1.537   2.150  1.1551 -0.8598  0.4757
48401SOL     OW51165   2.221   6.377   5.389  0.2334 -0.0435  0.0835
48401SOL    HW151166   2.236   6.410   5.478 -0.2217  3.6561 -1.0197
48401SOL    HW251167   2.304   6.338   5.363  0.1092 -2.0796  2.3525
48402SOL     OW51168   7.860   6.890   0.174 -0.4844 -0.5655 -0.1035
48402SOL    HW151169   7.885   6.814   0.227  2.0786 -0.4531 -0.9908
48402SOL    HW251170   7.888   6.965   0.226 -0.7625 -0.3326 -0.2881
48403SOL     OW51171   9.589   8.274  11.590  0.8321  0.5086 -0.9092
48403SOL    HW151172   9.513   8.253  11.536 -0.2526  0.9718  0.3834
48403SOL    HW251173   9.563   8.250  11.679  2.8681 -0.9794 -0.6416
48404SOL     OW51174   7.469   3.696  12.223  0.0893  0.0180 -0.7102
48404SOL    HW151175   7.424   3.618  12.189 -0.0995 -0.5572  0.7874
48404SOL    HW251176   7.413   3.727  12.294  1.0967  0.4330 -0.0784
48405SOL     OW51177   9.783   1.901   8.300 -0.0641 -0.7821 -0.0698
48405SOL    HW151178   9.766   1.811   8.328 -0.4376 -0.8824 -0.6113
48405SOL    HW251179   9.864   1.896   8.249 -0.2643 -0.8685 -0.3815
48406SOL     OW51180   5.005  11.731   4.673 -0.4553 -0.6628  0.5437
48406SOL    HW151181   4.961  11.658   4.629 -0.9418 -0.7173  1.0996
48406SOL    HW251182   4.953  11.808   4.649  0.2843 -0.4351 -0.3543
48407SOL     OW51183  10.121   3.046  12.275 -0.3575 -0.4050 -0.0339
48407SOL    HW151184  10.156   3.015  12.191  1.9231  1.6441  0.0725
48407SOL    HW251185  10.198   3.073  12.325 -1.8331  0.5706  1.8485
48408SOL     OW51186   3.699   2.033   6.040  0.5735  0.3365 -0.0207
48408SOL    HW151187   3.621   2.002   6.086  0.3832 -0.8164 -1.0567
48408SOL    HW251188   3.679   2.020   5.947  2.2266 -0.5934 -0.2897
48409SOL     OW51189   7.164   8.676   1.348  0.2100  0.2367 -0.2681
48409SOL    HW151190   7.227   8.603   1.347 -0.4543 -0.3614  0.5761
48409SOL    HW251191   7.103   8.655   1.277  0.0661  0.0075 -0.0790
48410SOL     OW51192   5.909   5.342   7.144  0.2817 -0.1111 -0.5916
48410SOL    HW151193   5.852   5.378   7.076 -1.1758  0.1895  0.7437
48410SOL    HW251194   5.894   5.248   7.142 -0.5220 -0.0061 -0.0520
48411SOL     OW51195   7.694   9.662   9.435 -0.8129 -0.4343  0.0246
48411SOL    HW151196   7.785   9.645   9.460 -1.1591 -0.9593  0.9739
48411SOL    HW251197   7.699   9.741   9.381  0.4119 -1.4520 -1.4491
48412SOL     OW51198   7.527  10.330  11.925  0.2717 -0.2505 -0.2218
48412SOL    HW151199   7.507  10.415  11.884  1.1229 -0.0215 -0.1772
48412SOL    HW251200   7.618  10.313  11.901 -0.3567 -1.9706 -1.6695
48413SOL     OW51201   6.973   4.896   8.159  0.0903 -0.3231  0.5691
48413SOL    HW151202   6.890   4.908   8.112 -0.1478  2.6571  1.5664
48413SOL    HW251203   6.947   4.878   8.249  0.4357  1.2901  1.0326
48414SOL     OW51204   5.522   2.507   9.888  0.0573 -0.2129 -0.2713
48414SOL    HW151205   5.472   2.479   9.965 -0.6090  0.7719 -0.3266
48414SOL    HW251206   5.613   2.491   9.911  0.1893  2.9868  2.0606
48415SOL     OW51207   6.592   2.137   5.242  0.2786  0.2433  0.7020
48415SOL    HW151208   6.554   2.060   5.284 -1.2613  1.5817  1.9015
48415SOL    HW251209   6.596   2.115   5.149 -0.1716 -1.2400  1.0166
48416SOL     OW51210   2.530   8.802   6.502 -0.2559 -0.2747 -0.3028
48416SOL    HW151211   2.611   8.808   6.452  0.5060  1.4649  1.0188
48416SOL    HW251212   2.474   8.871   6.466 -0.8149 -0.8922 -0.6284
48417SOL     OW51213   3.521  12.052   0.418 -0.1993  0.2865 -0.5514
48417SOL    HW151214   3.605  12.029   0.459 -0.7255 -0.3278  0.2129
48417SOL    HW251215   3.464  11.978   0.437 -1.4686  1.4935  0.5637
48418SOL     OW51216   4.059   1.217  10.961  0.1584  0.6108 -0.6365
48418SOL    HW151217   4.069   1.163  10.883 -0.9889  0.8633 -0.9838
48418SOL    HW251218   4.096   1.165  11.032 -3.5602 -2.0572 -0.3843
48419SOL     OW51219   9.415   3.432   7.841  0.0824  0.1428 -0.6929
48419SOL    HW151220   9.443   3.464   7.927  1.4417 -1.4049 -0.5114
48419SOL    HW251221   9.443   3.500   7.780 -0.2563  0.9249  0.0066
48420SOL     OW51222  11.006   9.991   8.190  0.3028  0.0725  0.8357
48420SOL    HW151223  10.931   9.939   8.220  0.3380  1.0098  2.6398
48420SOL    HW251224  10.981  10.019   8.102  0.0921 -2.5751 -0.0576
48421SOL     OW51225   8.862  11.710   8.460 -0.3295  0.3213 -0.3213
48421SOL    HW151226   8.839  11.803   8.452 -1.1423  0.1839  0.2854
48421SOL    HW251227   8.935  11.709   8.522 -0.6301  0.5194  0.0404
48422SOL     OW51228   3.132   3.266  11.617 -0.1417  0.0666 -0.2687
48422SOL    HW151229   3.221   3.265  11.584  0.2675 -0.0965  0.8022
48422SOL    HW251230   3.082   3.214  11.554  0.6797 -0.5431 -0.4213
48423SOL     OW51231   6.789   7.780   5.531 -0.8928 -0.1192 -0.3818
48423SOL    HW151232   6.872   7.822   5.552 -0.4008 -1.8151  1.3494
48423SOL    HW251233   6.723   7.836   5.573 -0.6507  1.1104 -1.5778
48424SOL     OW51234  10.342   0.041   3.897 -0.2920 -0.1550 -0.3170
48424SOL    HW151235  10.336   0.002   3.810 -0.2163 -0.8633 -0.0146
48424SOL    HW251236  10.340  -0.034   3.957 -0.4320  0.3300  0.2931
48425SOL     OW51237   2.457   4.380  12.255  0.0135  0.2776 -0.2201
48425SOL    HW151238   2.432   4.288  12.266 -0.3280  0.5390  1.2613
48425SOL    HW251239   2.532   4.392  12.313 -0.1749  1.0285 -0.1232
48426SOL     OW51240   7.962   9.446   9.292  0.4157 -0.2594  0.0780
48426SOL    HW151241   7.960   9.366   9.344 -2.2676 -0.1252  0.3121
48426SOL    HW251242   8.001   9.512   9.351 -0.2850 -0.6843  1.0480
48427SOL     OW51243  11.340   6.043  11.903  0.4552 -0.6247  0.4988
48427SOL    HW151244  11.427   6.061  11.940 -0.2059 -0.1299  1.8858
48427SOL    HW251245  11.322   6.117  11.845 -0.5457  1.2866  3.0559
48428SOL     OW51246   4.909   5.859   1.343 -0.2316 -0.0219  0.5849
48428SOL    HW151247   4.958   5.888   1.266 -0.9470  0.7795  0.4158
48428SOL    HW251248   4.956   5.781   1.373  0.6238  0.2189 -0.0815
48429SOL     OW51249   6.839   0.732   0.295 -0.7633  0.4012 -0.3144
48429SOL    HW151250   6.845   0.759   0.387 -0.3789 -0.9958  0.0878
48429SOL    HW251251   6.883   0.802   0.247 -0.0139  0.6255  0.6753
48430SOL     OW51252  11.103   9.575   0.303 -0.2655  0.3386  0.1910
48430SOL    HW151253  11.059   9.492   0.286  1.2528 -0.3897 -0.2854
48430SOL    HW251254  11.171   9.581   0.236  0.6598  1.2160  1.1774
48431SOL     OW51255   1.055   6.815   0.133 -0.0078  0.3823  0.3623
48431SOL    HW151256   1.109   6.858   0.067  2.3958 -0.7998  1.4173
48431SOL    HW251257   0.965   6.827   0.103  0.9603 -1.0199 -3.7595
48432SOL     OW51258   1.538  12.124  12.103  0.5706  0.0848 -0.5396
48432SOL    HW151259   1.444  12.139  12.100  0.2765 -1.6414 -2.0674
48432SOL    HW251260   1.563  12.144  12.193 -1.2231  0.6918 -0.1396
48433SOL     OW51261   1.291   8.440   2.929  0.3451 -0.4842 -0.1177
48433SOL    HW151262   1.325   8.401   3.010  2.0301 -0.6904 -0.8843
48433SOL    HW251263   1.196   8.438   2.940  0.5034 -1.4416  1.4175
48434SOL     OW51264   5.641   8.872  10.397 -0.0659 -0.9193  0.1632
48434SOL    HW151265   5.567   8.836  10.444  0.2337 -1.5762  0.1399
48434SOL    HW251266   5.616   8.963  10.377  0.0750 -0.4000  2.1549
48435SOL     OW51267   1.566   1.965   7.714 -0.3641  0.3925 -0.3669
48435SOL    HW151268   1.590   2.011   7.634 -0.6868 -2.1828 -2.0711
48435SOL    HW251269   1.640   1.906   7.731  0.4474  1.9923  2.2534
48436SOL     OW51270  11.440   6.833   6.837  0.9714 -0.0480  0.0303
48436SOL    HW151271  11.476   6.865   6.920 -0.0180 -0.1999  0.5379
48436SOL    HW251272  11.452   6.738   6.841 -0.4032 -0.2253  0.6929
48437SOL     OW51273   9.995   3.937   6.602 -0.4653 -0.0466 -0.3173
48437SOL    HW151274   9.919   3.987   6.632 -0.9757 -1.5474  1.0476
48437SOL    HW251275   9.997   3.951   6.507 -1.0327  1.8844 -0.0973
48438SOL     OW51276   2.040   1.138  11.369  0.6618  0.0882  0.0210
48438SOL    HW151277   2.010   1.073  11.433  0.8711 -0.0466 -0.0164
48438SOL    HW251278   2.066   1.086  11.293 -3.3695  0.3882 -1.8386
48439SOL     OW51279   5.875   4.950   4.659  0.1235 -0.5693 -0.1355
48439SOL    HW151280   5.880   4.985   4.570 -2.1459  1.0957  0.2932
48439SOL    HW251281   5.831   4.866   4.648  2.5066 -1.8117 -0.8199
48440SOL     OW51282   7.553   0.682   0.552 -0.2494 -0.0794  0.1040
48440SOL    HW151283   7.520   0.600   0.514  0.0728  0.8982 -2.4972
48440SOL    HW251284   7.474   0.729   0.581 -0.6695 -0.2198 -0.7809
48441SOL     OW51285  10.063   1.699   8.678  0.0304 -0.5273 -0.3824
48441SOL    HW151286  10.043   1.761   8.748 -1.7353 -1.9361  0.4300
48441SOL    HW251287  10.135   1.646   8.714  0.3312 -0.1230 -0.3727
48442SOL     OW51288  11.193   0.785   7.888 -0.3068 -0.3516 -0.9061
48442SOL    HW151289  11.179   0.791   7.793 -1.5912 -0.1333 -0.7243
48442SOL    HW251290  11.285   0.761   7.897  0.2607  1.1635 -2.1662
48443SOL     OW51291   9.209   7.277   8.360 -0.3250 -0.1236  0.0715
48443SOL    HW151292   9.117   7.268   8.385 -0.1602  1.5607  1.5487
48443SOL    HW251293   9.206   7.321   8.275 -0.8954  0.1782  0.2385
48444SOL     OW51294   3.098   5.305   2.668  0.0691  0.3125  0.5924
48444SOL    HW151295   3.011   5.296   2.628  0.5788 -0.9322 -0.3014
48444SOL    HW251296   3.087   5.267   2.756 -0.8155  2.1912  1.3553
48445SOL     OW51297   9.205   3.107  10.893  0.3494  0.1452  0.0507
48445SOL    HW151298   9.187   3.014  10.910  0.8817  0.5149  3.1517
48445SOL    HW251299   9.126   3.138  10.848 -1.8358 -0.9017  2.8557
48446SOL     OW51300   1.376   8.177   6.530  1.0067 -1.1271  0.2659
48446SOL    HW151301   1.331   8.130   6.601 -1.7852  0.1125 -0.5563
48446SOL    HW251302   1.416   8.107   6.478 -0.7555 -2.4711  0.5830
48447SOL     OW51303   6.373   4.478   4.105 -0.4663 -0.2998 -0.5701
48447SOL    HW151304   6.447   4.504   4.160 -1.2625 -0.8901  0.8339
48447SOL    HW251305   6.373   4.382   4.108 -0.8793 -0.3247 -1.1375
48448SOL     OW51306   6.749   3.542   7.485 -0.0040 -0.4442  0.3189
48448SOL    HW151307   6.793   3.458   7.499 -0.9854 -1.1130 -0.5003
48448SOL    HW251308   6.793   3.580   7.409 -1.2578 -1.4444 -0.9532
48449SOL     OW51309   0.839   1.856  11.977 -0.3087  0.3111 -0.3949
48449SOL    HW151310   0.775   1.908  11.928  1.8719  1.3220 -2.3355
48449SOL    HW251311   0.874   1.795  11.913  2.1919  1.2368 -0.0092
48450SOL     OW51312  10.065   6.236   4.597 -0.9805 -0.2054 -0.0892
48450SOL    HW151313  10.160   6.231   4.608 -0.8499 -1.4289 -1.4784
48450SOL    HW251314  10.030   6.194   4.676 -0.3157 -1.2318 -0.3206
48451SOL     OW51315   0.407   8.407   9.662 -0.1055 -0.3386 -0.7909
48451SOL    HW151316   0.333   8.465   9.679  1.2796  2.0813 -2.4796
48451SOL    HW251317   0.474   8.434   9.725 -0.0684 -1.4331 -0.3358
48452SOL     OW51318   6.737  11.497   0.846  0.0945 -0.4889  0.1816
48452SOL    HW151319   6.756  11.459   0.760  0.9055 -0.3895  0.3128
48452SOL    HW251320   6.659  11.550   0.831  0.9866  0.6005 -0.8202
48453SOL     OW51321   5.618  11.580   2.150  0.4538 -0.4154 -0.6147
48453SOL    HW151322   5.627  11.506   2.091  1.9161  0.3623 -1.4002
48453SOL    HW251323   5.666  11.554   2.229  2.5846  0.3808 -1.5912
48454SOL     OW51324   4.083   2.345   5.756  0.4893  0.0743 -0.6232
48454SOL    HW151325   4.040   2.345   5.670  0.5706  0.6158 -0.6688
48454SOL    HW251326   4.014   2.375   5.816  0.4960 -0.0928 -0.5318
48455SOL     OW51327   1.614   7.340   3.161 -0.4017  0.2536  0.3264
48455SOL    HW151328   1.555   7.397   3.211 -1.7064 -0.5118 -0.3013
48455SOL    HW251329   1.557   7.273   3.124  1.1563 -1.7613  1.4264
48456SOL     OW51330   3.215  10.023   5.477 -0.4418  0.1460  0.0337
48456SOL    HW151331   3.279   9.963   5.517  0.2144 -0.4097 -1.7373
48456SOL    HW251332   3.133  10.002   5.521  0.1139 -0.8666  0.6422
48457SOL     OW51333   7.367   8.163   1.413 -0.5359  0.2036  0.0410
48457SOL    HW151334   7.274   8.148   1.428 -0.6014 -0.2308 -0.7499
48457SOL    HW251335   7.401   8.077   1.386 -0.1620  0.6370 -0.8984
48458SOL     OW51336   9.888   6.953   1.117 -0.4153  0.1006  0.1246
48458SOL    HW151337   9.855   6.953   1.206  1.8161  0.3180  1.0037
48458SOL    HW251338   9.842   6.880   1.074  0.2006 -1.5683  2.1383
48459SOL     OW51339   7.436   4.006   6.359  0.3731 -0.1216  0.4335
48459SOL    HW151340   7.477   4.004   6.446 -0.5172  1.0789  0.9172
48459SOL    HW251341   7.481   4.076   6.313  1.0659 -0.9750 -0.2069
48460SOL     OW51342   7.145   2.098   6.222  0.2461  0.0769 -0.3680
48460SOL    HW151343   7.222   2.081   6.168 -0.6369 -0.1928 -1.5861
48460SOL    HW251344   7.139   2.021   6.279  1.2182  0.3881  0.1725
48461SOL     OW51345   5.583  10.754  11.491  0.7131  0.2324 -0.3412
48461SOL    HW151346   5.521  10.738  11.420 -0.1435  0.7965  0.2574
48461SOL    HW251347   5.580  10.674  11.544  1.5464 -0.2936 -1.0601
48462SOL     OW51348   2.748  11.955   5.636  0.0387 -0.0360  0.5074
48462SOL    HW151349   2.679  11.995   5.690 -1.2003  0.3057 -1.2610
48462SOL    HW251350   2.704  11.885   5.589  0.8491  0.3130 -0.8047
48463SOL     OW51351   1.178   3.808  11.420  0.0497 -0.0765  0.0822
48463SOL    HW151352   1.182   3.895  11.380  0.7370 -1.0720 -2.1764
48463SOL    HW251353   1.102   3.812  11.479 -0.5459  1.7415 -0.7442
48464SOL     OW51354   7.032   8.797   6.597 -0.1079  0.1216 -0.0286
48464SOL    HW151355   7.030   8.720   6.541  1.4590 -0.4622  0.6625
48464SOL    HW251356   7.121   8.831   6.589 -0.2840  0.8889  0.9602
48465SOL     OW51357   1.178   2.142   3.029 -0.6340 -0.0548 -0.3745
48465SOL    HW151358   1.217   2.204   3.091 -3.9946  2.3115 -0.3855
48465SOL    HW251359   1.165   2.063   3.080  1.1072  0.1626  0.4882
48466SOL     OW51360   0.498   7.375   8.298 -0.6731 -0.2669 -1.1982
48466SOL    HW151361   0.411   7.353   8.330 -0.8393 -1.2854 -2.2753
48466SOL    HW251362   0.538   7.291   8.277 -0.5393  0.3009 -3.4884
48467SOL     OW51363   4.371   0.631   3.710 -0.0436  0.3484 -0.1312
48467SOL    HW151364   4.305   0.645   3.642 -0.8057  0.0762  0.5400
48467SOL    HW251365   4.433   0.703   3.698 -0.3403  0.4774 -0.9153
48468SOL     OW51366   6.927   3.310   6.081  0.2897 -0.7998  0.6930
48468SOL    HW151367   6.983   3.388   6.082  0.8020 -1.1491 -0.1804
48468SOL    HW251368   6.868   3.323   6.007  0.9821 -1.6568 -0.0236
48469SOL     OW51369   7.926   6.829  12.024  0.3128 -0.2010 -0.0013
48469SOL    HW151370   8.003   6.788  12.063  0.4616 -0.8571 -0.9313
48469SOL    HW251371   7.934   6.922  12.046  1.9097 -0.0797 -0.9204
48470SOL     OW51372   3.509   8.535   5.881 -0.2526 -0.2314 -0.1563
48470SOL    HW151373   3.517   8.450   5.925 -0.2545 -0.1620 -0.0205
48470SOL    HW251374   3.457   8.588   5.942  0.3303  0.0842  0.0661
48471SOL     OW51375   6.999   2.396  10.888  0.0733  0.2482 -0.2542
48471SOL    HW151376   7.026   2.422  10.976 -0.9469  0.3978  0.0284
48471SOL    HW251377   7.068   2.337  10.858  0.4090  0.1608  0.6623
48472SOL     OW51378   0.565   9.771  11.172  0.1410 -0.0810 -0.1395
48472SOL    HW151379   0.542   9.852  11.217 -0.1738  0.9756 -2.0932
48472SOL    HW251380   0.526   9.702  11.226 -0.6819  1.1504  0.8914
48473SOL     OW51381   8.874  12.470  12.191  0.0125 -0.6055 -0.3695
48473SOL    HW151382   8.926  12.538  12.147 -0.3689  0.5260  0.8483
48473SOL    HW251383   8.908  12.468  12.281 -0.6365 -1.3435 -0.1281
48474SOL     OW51384   3.800   2.045  11.942  1.0410  0.1480 -0.0050
48474SOL    HW151385   3.770   2.026  12.031  2.6571 -2.4007  0.1001
48474SOL    HW251386   3.882   2.093  11.954  0.5370  1.0987 -0.1984
48475SOL     OW51387   8.242   9.004  10.384  0.6588 -0.0419  0.1537
48475SOL    HW151388   8.158   9.001  10.430  0.8957 -2.1748  0.5643
48475SOL    HW251389   8.222   9.039  10.298 -0.4347  0.6277  0.6663
48476SOL     OW51390   4.848   6.896   8.175 -0.2113 -0.2797 -0.3970
48476SOL    HW151391   4.903   6.818   8.176  0.2811  0.0415 -1.3049
48476SOL    HW251392   4.854   6.932   8.263  0.2796 -0.7644 -0.2330
48477SOL     OW51393   8.779   2.490   2.146  0.2092  0.2987 -0.0671
48477SOL    HW151394   8.827   2.560   2.191 -1.7707  1.5378  0.2491
48477SOL    HW251395   8.687   2.513   2.158 -0.4712 -1.6439 -1.1692
48478SOL     OW51396  11.367   1.075   5.219  0.2632 -0.4526 -0.4705
48478SOL    HW151397  11.370   1.170   5.235  0.7733  0.4076 -4.7036
48478SOL    HW251398  11.280   1.049   5.250 -0.3536  1.6308 -0.2625
48479SOL     OW51399   2.073   2.347   6.608  0.0781  0.4943 -0.2331
48479SOL    HW151400   2.014   2.408   6.563  0.0001 -1.0064 -2.2808
48479SOL    HW251401   2.133   2.317   6.540  2.6058  1.1663  1.5676
48480SOL     OW51402   5.836   8.847   1.561 -0.2666 -0.5708 -0.1588
48480SOL    HW151403   5.825   8.795   1.481  0.5260  0.3800 -0.9179
48480SOL    HW251404   5.899   8.798   1.614 -0.2181 -0.8358 -0.4600
48481SOL     OW51405  11.831   1.658   9.541  0.2528  0.0157 -0.4125
48481SOL    HW151406  11.906   1.681   9.487 -0.6732  0.5798 -1.5024
48481SOL    HW251407  11.784   1.592   9.491  1.2479 -2.1369  1.3336
48482SOL     OW51408  12.230   3.358  10.897  0.6971  0.1612  0.7936
48482SOL    HW151409  12.218   3.270  10.863  2.8616  0.9722 -2.5889
48482SOL    HW251410  12.146   3.401  10.882  0.2030 -0.8108  0.6854
48483SOL     OW51411   7.085   1.635   1.254  0.3963 -0.3909 -0.1881
48483SOL    HW151412   7.091   1.642   1.349  0.0287  0.3828 -0.2134
48483SOL    HW251413   7.168   1.671   1.222  0.0270  0.4792 -0.1923
48484SOL     OW51414   3.094   5.601   9.007 -0.3906  0.6118 -0.3828
48484SOL    HW151415   3.161   5.560   9.062 -1.0605 -0.7144 -0.5109
48484SOL    HW251416   3.100   5.694   9.027  2.0255  0.6458 -0.9682
48485SOL     OW51417   3.465  10.185   1.924 -0.0296 -0.2723  0.3554
48485SOL    HW151418   3.474  10.199   1.830  0.0483 -0.1500  0.3804
48485SOL    HW251419   3.476  10.272   1.962  1.6748 -0.5776  0.6149
48486SOL     OW51420   7.085   4.518   4.883 -0.3997 -0.7202  0.3159
48486SOL    HW151421   7.116   4.451   4.821  1.0766  1.2111 -1.1847
48486SOL    HW251422   7.061   4.469   4.961  1.1494 -2.9527 -0.4950
48487SOL     OW51423  11.545   9.536   8.735 -0.8149  0.2270 -0.0088
48487SOL    HW151424  11.626   9.489   8.756  1.1139  2.7489 -1.2602
48487SOL    HW251425  11.514   9.496   8.654 -0.2038 -0.0658 -0.1060
48488SOL     OW51426  11.477   5.556   0.093 -0.6307 -0.0703 -0.0119
48488SOL    HW151427  11.458   5.649   0.083  0.0930  0.0829 -0.0777
48488SOL    HW251428  11.512   5.548   0.182 -2.0781 -0.5403  0.5478
48489SOL     OW51429   7.043   1.001   7.610 -0.3789 -0.5333  0.3744
48489SOL    HW151430   6.969   0.973   7.556 -0.2007  0.1966 -0.2739
48489SOL    HW251431   7.026   1.094   7.626  1.2149  0.0675 -1.1647
48490SOL     OW51432  10.933   8.561   3.869 -0.7503 -0.3975  0.4363
48490SOL    HW151433  10.990   8.604   3.805 -0.7608 -1.7312 -0.5012
48490SOL    HW251434  10.933   8.620   3.944  1.3881 -0.0663  0.2366
48491SOL     OW51435   2.112   3.040  10.705 -0.5503 -0.4338 -0.7390
48491SOL    HW151436   2.054   2.967  10.684 -3.1329  1.0040  0.8653
48491SOL    HW251437   2.134   3.028  10.797  0.3220 -0.0270 -0.8877
48492SOL     OW51438   2.071   2.724  12.090  0.3691  0.1320 -0.3204
48492SOL    HW151439   2.148   2.732  12.147 -1.5243  1.5345  2.2556
48492SOL    HW251440   2.030   2.810  12.093 -2.8445 -1.2889  0.8309
48493SOL     OW51441   1.651   8.978   9.666 -0.0398 -0.2079 -0.2549
48493SOL    HW151442   1.708   8.947   9.736 -0.7503  0.2199  0.5276
48493SOL    HW251443   1.659   8.911   9.598  2.1910  0.3663 -0.6214
48494SOL     OW51444   9.843   1.810   4.064 -0.0119 -0.1505  0.3237
48494SOL    HW151445   9.789   1.870   4.011  0.3598  1.0825  1.2933
48494SOL    HW251446   9.813   1.823   4.154  1.1422 -0.2640  0.7424
48495SOL     OW51447  10.628   3.952   6.766 -0.7647 -0.8128  0.0441
48495SOL    HW151448  10.552   3.899   6.742 -0.9669 -0.0078 -1.1866
48495SOL    HW251449  10.623   4.028   6.707 -0.4268  0.5200  1.6752
48496SOL     OW51450   4.375  11.630   0.218  0.1891 -0.6130 -0.2398
48496SOL    HW151451   4.283  11.645   0.194 -0.0370 -1.1287  0.2631
48496SOL    HW251452   4.424  11.691   0.164 -0.6027  1.3191  1.0932
48497SOL     OW51453  10.438   3.459   0.541 -0.5948 -0.0108  0.2017
48497SOL    HW151454  10.366   3.483   0.600 -2.3066 -0.7374 -1.4675
48497SOL    HW251455  10.410   3.376   0.502  1.1905 -0.3282 -0.4727
48498SOL     OW51456   5.292   4.696   2.500  0.2951 -0.3636 -0.0168
48498SOL    HW151457   5.290   4.773   2.443 -1.6029 -0.3351  0.0095
48498SOL    HW251458   5.274   4.732   2.588  0.2683 -0.7291  0.1267
48499SOL     OW51459   5.187   5.708  10.443 -0.3046 -0.0837  0.7967
48499SOL    HW151460   5.247   5.694  10.370 -0.9886 -2.4646  0.5962
48499SOL    HW251461   5.103   5.730  10.402  0.1267  2.1797  1.0373
48500SOL     OW51462   0.806  10.525   8.693 -0.1255 -0.8255 -0.1111
48500SOL    HW151463   0.796  10.544   8.786 -0.1898 -0.2794 -0.2298
48500SOL    HW251464   0.717  10.524   8.659 -0.1327 -1.4517 -0.0874
48501SOL     OW51465  11.950  11.159   8.411 -0.3351 -0.1646  0.5767
48501SOL    HW151466  11.924  11.229   8.351 -0.3632  0.2922  1.1114
48501SOL    HW251467  12.034  11.188   8.447 -0.7762  0.0402  1.4837
48502SOL     OW51468   6.007   6.746   9.038 -0.1695  0.2890  0.0655
48502SOL    HW151469   6.002   6.749   9.134  0.1980  0.6756  0.0744
48502SOL    HW251470   5.940   6.682   9.013  0.2304 -0.3706  0.6240
48503SOL     OW51471  11.129  11.281  11.825 -0.2579 -0.1613 -0.2106
48503SOL    HW151472  11.081  11.355  11.863  1.8204  0.3422  1.5834
48503SOL    HW251473  11.100  11.205  11.876  0.2942  0.0137  0.3603
48504SOL     OW51474   4.573   1.235   7.048 -0.0431  0.0836 -0.0829
48504SOL    HW151475   4.554   1.187   7.128 -1.4606 -1.2968 -1.1896
48504SOL    HW251476   4.545   1.177   6.977  0.6689  1.4660 -1.5719
48505SOL     OW51477   8.285  12.214  11.544  0.5879  0.0151  0.1787
48505SOL    HW151478   8.331  12.227  11.627  0.4434 -1.5458  0.5344
48505SOL    HW251479   8.226  12.141  11.560  0.8719 -0.6163 -1.4101
48506SOL     OW51480   9.143   3.394   3.256  0.2493  0.0343  0.3477
48506SOL    HW151481   9.048   3.407   3.265  0.5921  0.9163  4.5020
48506SOL    HW251482   9.151   3.312   3.208 -2.6760 -1.2556  1.8083
48507SOL     OW51483   3.418   5.427   3.788  0.8918  0.8203 -0.0821
48507SOL    HW151484   3.364   5.417   3.709  1.1367 -0.4467 -0.1129
48507SOL    HW251485   3.355   5.432   3.860  0.6929  0.2357 -0.2061
48508SOL     OW51486   4.319   9.763  10.664  0.0683  0.3571  0.5942
48508SOL    HW151487   4.244   9.712  10.695  2.3205 -2.3189  2.0913
48508SOL    HW251488   4.353   9.805  10.743  1.1245  0.1433  0.2655
48509SOL     OW51489   1.148   6.945  10.106  0.3953  0.0231 -0.0668
48509SOL    HW151490   1.107   6.896  10.177 -0.1484  0.7836  0.1675
48509SOL    HW251491   1.201   6.881  10.059  0.7396 -0.5052  1.0046
48510SOL     OW51492   0.904   1.824   3.439  0.4699 -0.1066 -0.2105
48510SOL    HW151493   0.939   1.820   3.350 -0.1893 -1.4440 -0.4219
48510SOL    HW251494   0.861   1.740   3.453 -0.6635  0.6090  0.8793
48511SOL     OW51495   7.063   4.690   2.264  0.5152 -0.1059 -0.0176
48511SOL    HW151496   7.105   4.618   2.311 -0.0239 -0.6144 -0.3043
48511SOL    HW251497   7.002   4.647   2.204 -0.7187  0.6360  0.6673
48512SOL     OW51498   9.399   2.100  10.386 -0.0885 -0.0379  0.3987
48512SOL    HW151499   9.303   2.098  10.385 -0.0905 -0.3938  0.9886
48512SOL    HW251500   9.421   2.186  10.348 -0.5988 -0.4774 -0.9608
48513SOL     OW51501   3.364  12.410   0.663  0.1961 -0.3386 -0.3419
48513SOL    HW151502   3.432  12.453   0.612  1.7055 -1.8276  0.3148
48513SOL    HW251503   3.407  12.385   0.745 -1.3414 -0.6896  0.4111
48514SOL     OW51504  10.687   3.105  10.837  0.1433  0.3400  0.2442
48514SOL    HW151505  10.595   3.080  10.835  0.5708 -1.3054 -0.9573
48514SOL    HW251506  10.713   3.095  10.929 -0.7848  0.5308  0.5368
48515SOL     OW51507   2.066   4.895   7.444 -0.2106  0.1430 -0.3228
48515SOL    HW151508   2.044   4.807   7.413 -1.1686  0.8447 -1.7183
48515SOL    HW251509   2.153   4.886   7.483  1.0990 -0.8094 -3.2414
48516SOL     OW51510  11.956   1.601  12.346 -0.9769 -0.2143  0.5462
48516SOL    HW151511  11.887   1.585  12.411 -1.2546  2.0900  0.8991
48516SOL    HW251512  11.943   1.692  12.319  1.1022 -0.1435 -0.3919
48517SOL     OW51513   2.135   5.826   7.269  0.1294  0.1368 -0.1505
48517SOL    HW151514   2.041   5.816   7.249 -0.4249 -1.3732  2.7146
48517SOL    HW251515   2.176   5.750   7.229  0.2174  0.8952 -1.5716
48518SOL     OW51516   6.502   0.693   3.202  0.1964  0.1814  0.0449
48518SOL    HW151517   6.567   0.666   3.266 -1.3809  0.6277  1.9232
48518SOL    HW251518   6.449   0.614   3.186  0.4060  0.1468 -0.5201
48519SOL     OW51519   6.169   2.720  11.961 -0.3027 -0.1812 -0.1141
48519SOL    HW151520   6.221   2.770  11.898 -0.0974  0.3789  0.4854
48519SOL    HW251521   6.159   2.779  12.036 -2.1316 -0.1351 -0.3536
48520SOL     OW51522   1.346  11.633   2.120 -0.1094 -0.7488  0.4035
48520SOL    HW151523   1.426  11.667   2.080  0.6788  0.7839  3.0838
48520SOL    HW251524   1.375  11.557   2.170  0.1767  1.0243  3.0944
48521SOL     OW51525   9.241   3.266   2.247  0.0592  0.2181  0.0564
48521SOL    HW151526   9.310   3.206   2.274 -0.8676 -0.6949  0.4617
48521SOL    HW251527   9.219   3.314   2.326  0.2413  0.5287 -0.0794
48522SOL     OW51528   5.043   9.035   4.915 -0.7113  0.3533  0.6084
48522SOL    HW151529   5.070   9.072   4.999  0.0938  2.9942 -0.7186
48522SOL    HW251530   5.117   8.980   4.888 -0.3345  0.6945  0.9398
48523SOL     OW51531   4.821  10.941   8.296 -0.0417 -0.1487  0.0249
48523SOL    HW151532   4.764  10.936   8.220 -1.0199  0.2969  0.7072
48523SOL    HW251533   4.841  10.850   8.318  0.0350 -0.2858 -0.5908
48524SOL     OW51534   0.087   2.844   2.506 -0.1015  0.5814  0.7047
48524SOL    HW151535  -0.005   2.829   2.528  0.3408 -1.0811  1.6171
48524SOL    HW251536   0.090   2.841   2.411 -1.1496  1.8484  0.6078
48525SOL     OW51537  11.008   1.119   8.979  0.3601  0.3422  0.2916
48525SOL    HW151538  11.102   1.107   8.994  0.5958  2.4392  0.7808
48525SOL    HW251539  10.969   1.116   9.066  0.0307 -0.0863  0.1296
48526SOL     OW51540   9.603   7.798   8.723 -0.7376 -0.5015 -0.3037
48526SOL    HW151541   9.622   7.861   8.654  0.8615  0.1555  0.7050
48526SOL    HW251542   9.563   7.849   8.793 -1.3287 -0.9721 -0.2862
48527SOL     OW51543   4.037   0.803   1.056  0.2972  0.2048  0.1192
48527SOL    HW151544   3.969   0.741   1.031 -0.3692  0.8160  0.3838
48527SOL    HW251545   4.065   0.843   0.974 -0.5866  0.8828  0.1350
48528SOL     OW51546   1.449   5.885  12.249  0.4481 -0.2245 -0.2147
48528SOL    HW151547   1.541   5.911  12.250  0.4717 -0.2390  1.6569
48528SOL    HW251548   1.446   5.812  12.187  2.1540 -1.6335  1.2203
48529SOL     OW51549   3.171  10.585  10.218  0.5000  0.1050 -0.0308
48529SOL    HW151550   3.141  10.571  10.308 -0.6782 -2.1158 -0.6767
48529SOL    HW251551   3.104  10.640  10.178 -0.5216 -1.2757 -0.2863
48530SOL     OW51552   7.185   3.602   6.973  0.7804  0.0742 -0.0574
48530SOL    HW151553   7.090   3.607   6.984  0.9583  1.4039  1.2426
48530SOL    HW251554   7.207   3.679   6.919  0.9972 -1.0325 -1.6250
48531SOL     OW51555   2.622   9.169   3.845 -0.4392  0.4319  0.3505
48531SOL    HW151556   2.678   9.129   3.779  1.7550  0.7013  1.9534
48531SOL    HW251557   2.581   9.243   3.800 -0.3765 -0.3881 -1.1446
48532SOL     OW51558   4.370   2.011   1.642  0.1316 -0.4020  0.0804
48532SOL    HW151559   4.431   1.963   1.587 -0.7238 -0.5175 -0.8044
48532SOL    HW251560   4.363   2.097   1.599  1.0398  0.2609  1.1960
48533SOL     OW51561   0.903   8.860   5.641  0.6026  0.5510  0.3618
48533SOL    HW151562   0.851   8.848   5.721 -0.4110 -2.9746 -0.6617
48533SOL    HW251563   0.994   8.857   5.671  0.2531 -1.5458  1.3943
48534SOL     OW51564   8.351   8.527   6.687 -0.7452 -0.4794  0.3100
48534SOL    HW151565   8.329   8.466   6.757 -2.0890 -0.5612 -0.1588
48534SOL    HW251566   8.424   8.579   6.722 -1.7565 -0.1253  2.0056
48535SOL     OW51567   1.151  12.329  10.515 -0.9312 -0.9982 -0.1119
48535SOL    HW151568   1.111  12.386  10.449 -1.2685 -0.4779  0.5342
48535SOL    HW251569   1.081  12.314  10.579 -0.7377 -1.8531 -0.0926
48536SOL     OW51570   8.131   5.855   3.088 -0.1788 -0.0895  0.7067
48536SOL    HW151571   8.178   5.884   3.010 -0.2568 -1.0524  0.2810
48536SOL    HW251572   8.193   5.797   3.133 -0.9652 -1.4375  0.0954
48537SOL     OW51573   1.229   7.388   5.700 -0.4437 -0.0263 -0.2809
48537SOL    HW151574   1.205   7.458   5.640 -1.2031  0.5141  0.6115
48537SOL    HW251575   1.182   7.311   5.667 -1.1724  0.3579 -0.1704
48538SOL     OW51576   8.684   3.295   8.504  0.0941 -0.9833  0.6161
48538SOL    HW151577   8.711   3.289   8.595  0.6822 -2.1297  0.3877
48538SOL    HW251578   8.657   3.386   8.493  0.4119 -0.7240  1.8179
48539SOL     OW51579   6.872   0.690   6.093  0.4145  0.1316  0.1523
48539SOL    HW151580   6.817   0.724   6.023 -0.4842 -1.3099  0.1256
48539SOL    HW251581   6.816   0.628   6.140  1.8993 -1.1175  0.3474
48540SOL     OW51582   7.715  10.550   7.243  0.3956  0.2440 -0.7340
48540SOL    HW151583   7.688  10.593   7.325 -0.6504 -1.5880 -0.0344
48540SOL    HW251584   7.681  10.461   7.252  1.6259 -0.4463 -2.5161
48541SOL     OW51585   4.222   7.431   4.116 -0.4352 -0.2942 -0.0101
48541SOL    HW151586   4.199   7.419   4.024  1.5192 -0.6064 -0.5086
48541SOL    HW251587   4.139   7.452   4.159 -1.1828  1.2597 -2.0581
48542SOL     OW51588   4.965   3.354   3.240 -0.3113 -0.1407 -0.2895
48542SOL    HW151589   4.917   3.273   3.226  1.2585 -1.1237 -0.1960
48542SOL    HW251590   4.991   3.352   3.332  1.6679 -0.6856 -0.8010
48543SOL     OW51591   4.286  10.416   7.846 -0.3259  0.2428 -0.0117
48543SOL    HW151592   4.212  10.372   7.805  2.6523 -2.4195 -3.1086
48543SOL    HW251593   4.346  10.436   7.774  2.4659  1.2501  2.3819
48544SOL     OW51594   9.249   3.245   1.023 -0.2588  0.5240 -0.7432
48544SOL    HW151595   9.226   3.235   0.930  2.0302  1.7211 -1.5189
48544SOL    HW251596   9.324   3.186   1.035 -0.0765  0.9182  0.1375
48545SOL     OW51597   8.166   8.892   0.624 -0.1331 -0.5322 -0.4802
48545SOL    HW151598   8.093   8.831   0.632 -0.7154  0.2025 -0.1030
48545SOL    HW251599   8.208   8.890   0.710 -1.2344  0.9211  0.1316
48546SOL     OW51600   3.315   2.397   2.951 -0.4219 -0.3534 -0.5046
48546SOL    HW151601   3.281   2.482   2.922 -0.6465 -0.1146  0.4160
48546SOL    HW251602   3.410   2.408   2.949 -0.4392 -0.2596 -0.9033
48547SOL     OW51603   1.747  11.183   3.325 -0.1122  0.0541 -0.0938
48547SOL    HW151604   1.743  11.147   3.236  2.7240  1.5802 -1.0062
48547SOL    HW251605   1.681  11.253   3.325 -0.4088 -0.2081 -0.8952
48548SOL     OW51606   0.089   4.814   1.677 -0.0549  0.4052  0.2531
48548SOL    HW151607   0.025   4.743   1.676  0.1331  0.1832 -2.0271
48548SOL    HW251608   0.173   4.771   1.694 -0.1304  0.2709  0.2834
48549SOL     OW51609   0.957   6.113  11.410  0.3108  0.2983 -0.8068
48549SOL    HW151610   0.925   6.154  11.330  0.3913 -1.5291 -1.8368
48549SOL    HW251611   1.012   6.041  11.379 -0.2813 -0.9353  0.8757
48550SOL     OW51612  10.160   2.326   9.225 -0.7256  0.4789  0.5627
48550SOL    HW151613  10.122   2.266   9.289 -2.2501 -2.3016 -2.6501
48550SOL    HW251614  10.105   2.404   9.230 -1.6100 -0.1734  1.7142
48551SOL     OW51615   8.045   8.546   4.719  0.5460  0.0249 -0.2192
48551SOL    HW151616   7.954   8.574   4.712 -0.3482 -2.6016 -0.3785
48551SOL    HW251617   8.077   8.586   4.799 -0.7190  1.0627 -0.2039
48552SOL     OW51618  11.129   0.623   1.244 -0.4866  0.1096 -0.8611
48552SOL    HW151619  11.134   0.554   1.178  2.9553 -0.6460  0.0044
48552SOL    HW251620  11.092   0.580   1.321 -1.5568  0.1833 -1.3138
48553SOL     OW51621   0.420  10.749   6.389  0.2966 -0.1754  0.0801
48553SOL    HW151622   0.337  10.735   6.434 -0.5859 -0.8957 -1.6838
48553SOL    HW251623   0.434  10.844   6.395 -2.8043  0.6947 -3.0287
48554SOL     OW51624   8.433  10.328   1.202 -0.3037 -0.4831 -0.5412
48554SOL    HW151625   8.401  10.267   1.269  0.8784 -0.5832 -0.0411
48554SOL    HW251626   8.494  10.385   1.249  0.3575 -0.4005 -1.4847
48555SOL     OW51627  10.336   2.550   9.042  0.0142 -0.6468  0.0929
48555SOL    HW151628  10.357   2.591   8.959  2.0764 -1.2369  0.2805
48555SOL    HW251629  10.385   2.599   9.107 -1.4211 -0.3131  0.9791
48556SOL     OW51630   2.034  10.846  11.843  0.4173 -0.2051  0.1967
48556SOL    HW151631   2.003  10.883  11.760  0.5819 -2.4365 -0.9453
48556SOL    HW251632   2.121  10.812  11.822  1.4122  1.1288  1.9130
48557SOL     OW51633   3.536   2.479   6.328 -0.0057  0.6383 -0.8795
48557SOL    HW151634   3.453   2.505   6.289  0.0242  1.4717 -0.4212
48557SOL    HW251635   3.602   2.529   6.280  0.3147 -0.5298 -1.7032
48558SOL     OW51636   8.073   7.390   5.890 -0.2637 -0.4925  0.2183
48558SOL    HW151637   8.101   7.381   5.799  0.1803 -0.4162  0.3483
48558SOL    HW251638   8.149   7.367   5.942 -0.5533 -0.6544  0.5764
48559SOL     OW51639   0.525   9.310   9.232  0.0171 -0.2835 -0.2860
48559SOL    HW151640   0.516   9.232   9.178 -1.0147 -1.0235  0.8999
48559SOL    HW251641   0.562   9.279   9.314 -0.7527  0.3984  0.3394
48560SOL     OW51642   7.890   6.744   0.574  0.2562  0.2540 -0.4181
48560SOL    HW151643   7.798   6.721   0.585  0.4225  0.0687  0.6819
48560SOL    HW251644   7.910   6.799   0.650  1.1373  0.0375 -0.4847
48561SOL     OW51645   4.148   7.565   8.495  1.0058 -0.2630  0.4162
48561SOL    HW151646   4.127   7.506   8.567 -1.9294  0.6151  0.4134
48561SOL    HW251647   4.176   7.646   8.538 -0.9555  0.3370  0.6884
48562SOL     OW51648   9.040   0.836   7.125 -0.1709  0.0827  0.2505
48562SOL    HW151649   9.066   0.865   7.038 -2.0376 -0.7132 -0.6376
48562SOL    HW251650   9.046   0.740   7.121 -0.1685  0.0427  1.0333
48563SOL     OW51651   6.188   7.784  12.285 -0.4796 -0.0179 -0.0451
48563SOL    HW151652   6.190   7.791  12.190 -1.2077  0.2640 -0.0462
48563SOL    HW251653   6.097   7.763  12.305  0.1081 -2.4166  0.4408
48564SOL     OW51654  10.162   7.146  12.054  0.1061 -0.8608  0.8990
48564SOL    HW151655  10.257   7.142  12.043  0.0280  2.3676 -3.4770
48564SOL    HW251656  10.130   7.067  12.011  0.7615 -0.4774 -0.3322
48565SOL     OW51657   7.085   1.777  11.167 -0.4520 -0.4201  0.4658
48565SOL    HW151658   7.096   1.817  11.253 -1.1742 -1.5216  1.0968
48565SOL    HW251659   7.028   1.837  11.119 -0.1654  0.1297  0.7998
48566SOL     OW51660   8.214   9.248   1.849 -0.4023 -0.3340 -0.1713
48566SOL    HW151661   8.259   9.207   1.774 -1.2701 -0.5235 -0.6014
48566SOL    HW251662   8.283   9.298   1.894 -0.0977  0.7207 -1.7415
48567SOL     OW51663   9.552  11.551   8.097  0.2132  0.5985 -0.7263
48567SOL    HW151664   9.532  11.497   8.174  1.5870  1.6576  0.4429
48567SOL    HW251665   9.467  11.580   8.065 -0.4522 -0.8616 -0.3616
48568SOL     OW51666   0.505   9.966  12.280  0.0949  0.2109 -0.6826
48568SOL    HW151667   0.451   9.894  12.312 -0.2271  1.1305  0.9474
48568SOL    HW251668   0.582   9.965  12.337  0.1249  1.0813 -0.6897
48569SOL     OW51669   3.608  10.530  12.296 -0.4523 -0.0625  0.0489
48569SOL    HW151670   3.606  10.588  12.220  1.4531 -1.6826 -1.3281
48569SOL    HW251671   3.517  10.504  12.308 -0.8957  0.8332 -1.1745
48570SOL     OW51672   4.348   2.660  11.269 -0.1914 -0.3734 -0.7539
48570SOL    HW151673   4.316   2.689  11.354  0.5987 -1.1075 -0.1873
48570SOL    HW251674   4.381   2.571  11.284  3.6906  0.8404 -0.7838
48571SOL     OW51675   2.484  11.346   6.084 -0.5898 -0.1241 -0.0624
48571SOL    HW151676   2.411  11.289   6.059 -0.2560 -0.0993 -1.1441
48571SOL    HW251677   2.444  11.430   6.106 -0.8635 -0.0315 -0.9150
48572SOL     OW51678   9.220   6.805   3.533  0.3760 -0.7957 -0.5492
48572SOL    HW151679   9.314   6.795   3.517  0.8310 -0.2574  1.4813
48572SOL    HW251680   9.194   6.724   3.576  0.0970 -0.6196 -0.3796
48573SOL     OW51681  11.346  11.829  12.075  0.5002  0.1235  0.0726
48573SOL    HW151682  11.364  11.859  11.986  1.2633  0.8056  0.4542
48573SOL    HW251683  11.368  11.903  12.131 -0.7965  0.0009  0.7820
48574SOL     OW51684   0.745   7.817  11.066 -0.3025 -0.4483 -0.5256
48574SOL    HW151685   0.805   7.752  11.102 -1.8392 -0.9723  1.2873
48574SOL    HW251686   0.760   7.896  11.118  0.2578  0.0780 -1.4719
48575SOL     OW51687   1.741   9.120   7.353  0.5122  0.4402 -0.0785
48575SOL    HW151688   1.779   9.203   7.326 -0.4751  0.7611 -0.5130
48575SOL    HW251689   1.801   9.087   7.420  1.2531  1.1895 -0.3571
48576SOL     OW51690  11.314   0.772  10.622 -0.9020  0.2834 -0.6071
48576SOL    HW151691  11.245   0.803  10.564 -1.8132 -1.3296 -0.4566
48576SOL    HW251692  11.276   0.777  10.710 -0.5029  0.2327 -0.4279
48577SOL     OW51693   5.457   6.080   7.914 -0.0320 -0.6849 -0.1518
48577SOL    HW151694   5.547   6.050   7.901  0.0226 -0.2299 -0.8379
48577SOL    HW251695   5.409   6.001   7.941  0.6207 -0.8771  0.4748
48578SOL     OW51696   4.608   2.270   8.939  0.8752 -0.0987 -0.0982
48578SOL    HW151697   4.584   2.304   9.025  1.6471  0.3397 -0.0494
48578SOL    HW251698   4.539   2.300   8.881  0.7180  0.1966  0.2375
48579SOL     OW51699   6.131  11.723   3.136 -0.2667 -0.5450 -0.0015
48579SOL    HW151700   6.180  11.788   3.186  0.5186 -0.5127 -0.7847
48579SOL    HW251701   6.101  11.660   3.202 -0.0465 -0.0130  0.6213
48580SOL     OW51702   1.450   5.755   8.751 -0.0638  0.2603 -0.1698
48580SOL    HW151703   1.501   5.698   8.693  1.5261  0.4795  0.9356
48580SOL    HW251704   1.359   5.728   8.737  0.1958  0.6285 -3.0640
48581SOL     OW51705   3.529  11.170   8.170 -0.6346 -0.2406  0.6648
48581SOL    HW151706   3.463  11.179   8.102  0.4766 -0.3906 -0.4643
48581SOL    HW251707   3.605  11.132   8.126  0.1232 -0.3437  1.9845
48582SOL     OW51708   7.617  11.863   1.747 -0.0574 -0.4554 -0.1459
48582SOL    HW151709   7.711  11.872   1.736 -0.1669  3.6050  0.6930
48582SOL    HW251710   7.580  11.939   1.703 -2.9904 -1.8400 -0.3179
48583SOL     OW51711   6.903  11.721   2.897 -0.1083  0.3778  0.9739
48583SOL    HW151712   6.865  11.776   2.966 -2.4672 -1.0344  0.9028
48583SOL    HW251713   6.857  11.746   2.817  0.4389 -0.1220  0.4908
48584SOL     OW51714   7.329   1.891   7.487 -0.0150 -0.2595  0.3013
48584SOL    HW151715   7.331   1.836   7.408  0.7099 -0.4755  0.4703
48584SOL    HW251716   7.236   1.909   7.500 -0.0779  1.1632 -1.5700
48585SOL     OW51717  11.227   8.946   8.690 -0.0489  1.0365  0.5694
48585SOL    HW151718  11.254   9.037   8.703  0.5577  1.1803 -1.4066
48585SOL    HW251719  11.137   8.952   8.656  0.2940  0.9554 -0.3700
48586SOL     OW51720  11.517   5.708   4.928  0.2298 -0.3955 -0.2743
48586SOL    HW151721  11.464   5.639   4.968  0.6281  0.3116  1.5417
48586SOL    HW251722  11.469   5.731   4.848 -0.9463 -1.3943  0.1081
48587SOL     OW51723   6.859   0.859   6.477 -0.3646  0.1298 -0.9665
48587SOL    HW151724   6.808   0.789   6.436  0.7918 -0.8035 -0.8578
48587SOL    HW251725   6.799   0.897   6.542 -0.4947 -1.8796  0.1696
48588SOL     OW51726  12.371   6.154   1.981  0.0696 -0.1005  0.0207
48588SOL    HW151727  12.429   6.153   2.057  1.2032  1.8126 -0.7421
48588SOL    HW251728  12.287   6.122   2.014  0.8979 -0.6520  1.7160
48589SOL     OW51729  11.302   4.016   5.195 -0.2305  0.3186  0.0635
48589SOL    HW151730  11.286   4.049   5.284  2.4792 -0.9412  1.1348
48589SOL    HW251731  11.248   4.072   5.139 -2.1406  1.1073  2.4621
48590SOL     OW51732   0.948   7.644   7.486 -0.1455  0.7847 -0.0739
48590SOL    HW151733   0.974   7.697   7.410 -1.2740  1.6410  0.1098
48590SOL    HW251734   0.976   7.555   7.463  0.4386  1.1965 -1.0505
48591SOL     OW51735   7.028   2.611  11.286  0.3024 -0.1846  0.1583
48591SOL    HW151736   7.045   2.697  11.324  1.1220  0.7443 -2.1107
48591SOL    HW251737   7.095   2.554  11.324 -1.2929 -0.3509  3.0017
48592SOL     OW51738   9.932   3.105   6.497  0.1697 -0.2525  0.3738
48592SOL    HW151739  10.009   3.122   6.443 -0.7345  1.7136 -0.4065
48592SOL    HW251740   9.861   3.088   6.435 -0.6335  0.8842  0.9317
48593SOL     OW51741   9.679   2.699   1.906  0.4508  0.1921 -0.0038
48593SOL    HW151742   9.743   2.628   1.907 -0.3443 -0.5862 -1.0417
48593SOL    HW251743   9.685   2.739   1.993  1.9269 -0.2175  0.1004
48594SOL     OW51744   8.916   6.952   5.341  0.1256  0.2894 -0.9642
48594SOL    HW151745   8.840   6.960   5.400  0.7916 -0.6392  0.0525
48594SOL    HW251746   8.986   7.000   5.385  0.1977  0.9888 -1.8145
48595SOL     OW51747   6.756   3.081   9.215 -0.5451 -0.1076  0.0355
48595SOL    HW151748   6.662   3.066   9.218 -0.5050 -0.3829 -0.0753
48595SOL    HW251749   6.766   3.176   9.226 -0.7685 -0.2401  1.6151
48596SOL     OW51750   7.965   1.542   9.341  0.5959 -0.0256 -0.5014
48596SOL    HW151751   8.011   1.505   9.416 -1.9433 -0.8873  0.7325
48596SOL    HW251752   7.974   1.477   9.272  1.1735 -0.1896 -0.2774
48597SOL     OW51753  11.585  11.270   1.694  0.0921 -0.2764  0.4958
48597SOL    HW151754  11.546  11.258   1.607  2.8938  1.0024 -1.0510
48597SOL    HW251755  11.663  11.215   1.694  1.0738  1.0347  1.5159
48598SOL     OW51756   0.940  10.966  10.269  0.1708  0.1058 -0.3521
48598SOL    HW151757   0.931  11.056  10.301  1.9296 -0.3077  1.4789
48598SOL    HW251758   0.859  10.923  10.294 -0.2318  0.8928 -0.2688
48599SOL     OW51759  10.530   7.002   5.225  0.5857 -0.0874  0.4852
48599SOL    HW151760  10.555   7.043   5.307 -1.4885 -0.1496  1.1966
48599SOL    HW251761  10.577   7.051   5.158  0.1912  1.7767  1.5104
48600SOL     OW51762   7.855   5.430   0.537  0.6464 -0.4197  0.0992
48600SOL    HW151763   7.947   5.440   0.510  1.3364 -0.5868  2.2387
48600SOL    HW251764   7.831   5.342   0.508  1.1258 -0.3450 -0.5556
48601SOL     OW51765   1.427   8.119   1.107  0.1541  0.2073 -0.2681
48601SOL    HW151766   1.465   8.042   1.065  0.6492  0.7333 -0.8038
48601SOL    HW251767   1.486   8.138   1.180  1.2711  1.3310 -1.4051
48602SOL     OW51768   3.707   4.785   1.126 -0.0135 -0.0606  0.0822
48602SOL    HW151769   3.692   4.827   1.041 -0.3651 -1.9227 -0.8458
48602SOL    HW251770   3.793   4.815   1.153 -0.3923  1.4851 -0.3641
48603SOL     OW51771  12.277   2.657   6.243  0.0757 -0.5568 -0.7940
48603SOL    HW151772  12.305   2.609   6.166 -0.1724  0.1410 -1.3275
48603SOL    HW251773  12.306   2.747   6.227 -0.8552 -0.1992 -0.5382
48604SOL     OW51774   0.912   2.022   7.864  0.2417 -0.3176  0.4930
48604SOL    HW151775   0.820   2.032   7.837  0.2321 -0.1492  0.5879
48604SOL    HW251776   0.962   2.064   7.794  0.4537 -3.2932 -1.3096
48605SOL     OW51777  10.556   8.855   6.821 -0.0603  0.0907 -0.0916
48605SOL    HW151778  10.480   8.806   6.790 -0.9753  1.1601  0.3586
48605SOL    HW251779  10.522   8.943   6.837  1.1306  0.4227  0.7454
48606SOL     OW51780   6.938   0.474   1.509 -0.1249  0.5627 -0.2995
48606SOL    HW151781   7.015   0.530   1.499  0.0125  0.7463  1.5232
48606SOL    HW251782   6.966   0.406   1.570 -0.5576 -1.0457 -1.7975
48607SOL     OW51783  10.266   7.352   9.966 -0.3302 -0.0888 -0.0143
48607SOL    HW151784  10.346   7.303   9.948 -0.5193 -0.0111 -1.1591
48607SOL    HW251785  10.295   7.443   9.971 -0.0598 -0.2441  1.5769
48608SOL     OW51786   3.802   0.538   8.466 -0.2002  0.2357 -0.4252
48608SOL    HW151787   3.800   0.538   8.562  0.2495  1.1471 -0.4017
48608SOL    HW251788   3.777   0.627   8.441  1.8998  0.7218 -1.0532
48609SOL     OW51789  12.396  11.559   0.218 -0.3830  0.2490  0.4222
48609SOL    HW151790  12.342  11.582   0.294 -0.6437  0.6681  0.1127
48609SOL    HW251791  12.406  11.641   0.170 -1.1713 -0.2244 -0.6014
48610SOL     OW51792   0.165   5.912   9.847 -0.1197 -0.0259  0.9438
48610SOL    HW151793   0.259   5.925   9.835  0.0252 -0.2139  1.8358
48610SOL    HW251794   0.133   5.996   9.881 -0.2843  0.0533  0.5978
48611SOL     OW51795   0.441   7.833   4.310 -0.0615 -0.1417  0.0967
48611SOL    HW151796   0.366   7.842   4.251 -1.0413 -0.5676  1.2392
48611SOL    HW251797   0.480   7.748   4.288 -0.2591 -0.1807 -0.1044
48612SOL     OW51798   2.323   2.009   4.268  0.3829  0.3499 -0.0645
48612SOL    HW151799   2.270   2.046   4.198 -0.4907 -0.2393  0.2555
48612SOL    HW251800   2.358   2.085   4.315 -0.0997  0.7510 -0.3438
48613SOL     OW51801   8.502  10.323   3.337  0.0593 -0.3196  0.1845
48613SOL    HW151802   8.431  10.312   3.274 -1.3679  0.2155  1.6350
48613SOL    HW251803   8.574  10.271   3.302 -0.9594 -0.6999 -1.4409
48614SOL     OW51804   8.552   0.606   5.172 -0.0791 -0.1118 -0.0728
48614SOL    HW151805   8.609   0.648   5.236 -0.8188 -2.2989  2.1364
48614SOL    HW251806   8.473   0.584   5.221 -2.3678  1.5502 -2.6999
48615SOL     OW51807   2.301   3.414   0.430  0.4675  0.3868  0.4801
48615SOL    HW151808   2.261   3.340   0.474 -0.5486 -0.2654 -1.4253
48615SOL    HW251809   2.290   3.487   0.491 -1.2973 -0.3539  1.1160
48616SOL     OW51810   3.229   2.598   4.574  0.1985 -0.2478 -0.1542
48616SOL    HW151811   3.159   2.582   4.511 -0.2222 -0.5239  0.3744
48616SOL    HW251812   3.210   2.539   4.647  0.7703 -0.0533  0.1606
48617SOL     OW51813   4.983  11.037   0.868  0.0439 -0.1171 -0.0322
48617SOL    HW151814   4.900  11.044   0.915 -0.1846 -0.2463 -0.4105
48617SOL    HW251815   4.974  10.957   0.816 -0.1122  0.5573 -1.0720
48618SOL     OW51816   1.593   1.343  10.049 -0.0972 -0.1912 -0.1210
48618SOL    HW151817   1.642   1.295  10.115  1.4157  0.5071 -0.6873
48618SOL    HW251818   1.619   1.302   9.966 -0.7542 -0.0262 -0.4169
48619SOL     OW51819   9.360   6.492  10.510 -0.1553 -0.6185  0.0440
48619SOL    HW151820   9.356   6.398  10.527 -1.0355 -0.3150  1.6597
48619SOL    HW251821   9.336   6.500  10.417  0.0596 -1.9799 -0.1591
48620SOL     OW51822   3.555   1.188   9.642 -0.1897  0.2328  0.4259
48620SOL    HW151823   3.533   1.190   9.735 -0.2931  0.0852  0.4068
48620SOL    HW251824   3.642   1.148   9.639 -0.7055 -0.9537  0.3812
48621SOL     OW51825   8.209   7.137  12.058 -0.5790 -0.1378 -0.7668
48621SOL    HW151826   8.266   7.213  12.067 -0.2959 -0.3693 -0.5865
48621SOL    HW251827   8.135   7.155  12.116  0.4568 -0.9000  0.8710
48622SOL     OW51828   3.335   0.378   8.450 -0.3982 -0.3922  0.3188
48622SOL    HW151829   3.261   0.383   8.511 -0.3386 -1.6137  0.5174
48622SOL    HW251830   3.368   0.468   8.445 -1.5862  0.0815  0.6010
48623SOL     OW51831   1.694   3.785   1.653  0.1685  0.5441  0.1470
48623SOL    HW151832   1.779   3.774   1.611 -0.4117  2.3775 -1.6529
48623SOL    HW251833   1.699   3.870   1.696 -1.1667  1.2464 -1.0537
48624SOL     OW51834   1.024   7.926   0.478  0.1779 -0.5922  0.5297
48624SOL    HW151835   1.098   7.867   0.468 -0.5857 -1.3834 -0.6543
48624SOL    HW251836   1.044   8.000   0.420 -0.8442 -1.7465 -1.3867
48625SOL     OW51837   5.593   0.180   2.815  0.2426 -0.4478  0.0776
48625SOL    HW151838   5.525   0.206   2.878  0.8744  3.1837 -0.5402
48625SOL    HW251839   5.671   0.165   2.869  0.2908  0.7177  0.3558
48626SOL     OW51840  10.606   7.697   1.900 -0.2352  0.3014  0.3073
48626SOL    HW151841  10.675   7.656   1.848  0.6364  0.8829  0.9731
48626SOL    HW251842  10.554   7.623   1.933  1.4396 -0.3284  1.6674
48627SOL     OW51843   4.047   2.887   9.627 -0.6458 -0.4401 -0.1129
48627SOL    HW151844   4.010   2.907   9.541 -0.2565  3.3373  0.4384
48627SOL    HW251845   4.141   2.901   9.616 -0.5997  0.1278  0.9131
48628SOL     OW51846   7.874   2.831   5.630 -0.4731  0.1529 -0.0689
48628SOL    HW151847   7.885   2.737   5.648 -0.5027  0.5819  2.5829
48628SOL    HW251848   7.856   2.870   5.715 -0.1873  2.6444 -1.0598
48629SOL     OW51849   5.266  11.691   1.521 -0.3323  0.6003 -0.1148
48629SOL    HW151850   5.323  11.621   1.554 -0.5167  0.9993  1.0888
48629SOL    HW251851   5.270  11.682   1.426  0.9800  0.0180 -0.0257
48630SOL     OW51852   5.345   3.041   9.306 -0.2880 -0.1994  0.1095
48630SOL    HW151853   5.386   2.968   9.353  0.9669 -0.1247 -0.8028
48630SOL    HW251854   5.291   2.999   9.239  2.3933 -0.4194 -2.0998
48631SOL     OW51855   2.952   8.157   5.575  0.6553 -0.2077 -0.6017
48631SOL    HW151856   2.916   8.117   5.653  1.2514 -0.0118 -0.2153
48631SOL    HW251857   2.929   8.250   5.582  0.7868 -0.1736 -0.6160
48632SOL     OW51858   3.192   0.151   9.458 -0.2452  0.1224 -0.2820
48632SOL    HW151859   3.213   0.152   9.551  0.4332 -1.8946 -0.3790
48632SOL    HW251860   3.265   0.106   9.417 -1.2482 -0.3768 -1.5928
48633SOL     OW51861   0.141   4.102   2.566  0.0050  0.2739  0.3873
48633SOL    HW151862   0.146   4.021   2.618  0.1112 -0.1452 -0.2609
48633SOL    HW251863   0.049   4.108   2.540  0.3544 -0.7598 -1.2710
48634SOL     OW51864   5.268   9.806   1.619 -0.5766 -0.3553 -0.2653
48634SOL    HW151865   5.261   9.848   1.705 -1.6388 -0.2264 -0.4023
48634SOL    HW251866   5.361   9.785   1.610 -0.3686  0.1068  0.6878
48635SOL     OW51867   6.703   1.805   5.525 -0.4435  0.1147  0.0119
48635SOL    HW151868   6.625   1.784   5.577  0.8815  0.7292  2.4148
48635SOL    HW251869   6.712   1.900   5.532  0.4014  0.0766 -0.3750
48636SOL     OW51870   1.294  12.440   1.641  0.0308 -0.7562  0.0812
48636SOL    HW151871   1.361  12.497   1.679 -0.3713  0.1668 -0.5382
48636SOL    HW251872   1.216  12.454   1.695 -0.3900  0.1615 -0.7164
48637SOL     OW51873   1.010   9.744   4.878 -0.2009  0.8020  0.0306
48637SOL    HW151874   1.042   9.756   4.967  1.9607  0.2530 -0.6211
48637SOL    HW251875   1.065   9.802   4.825  3.3052 -3.5861 -1.7898
48638SOL     OW51876   4.896   4.661   4.190 -0.2875 -0.5797 -0.6887
48638SOL    HW151877   4.869   4.745   4.152  0.2499 -0.3349 -0.5457
48638SOL    HW251878   4.815   4.611   4.199 -0.3894 -0.7715 -2.4329
48639SOL     OW51879   5.373   9.585   0.954 -0.1637 -0.2729  0.4182
48639SOL    HW151880   5.440   9.640   0.994 -1.7440  0.3001  2.4235
48639SOL    HW251881   5.336   9.535   1.027 -2.0685 -0.4145 -0.5771
48640SOL     OW51882  11.482  11.345  10.128 -0.3328  0.2644  0.2322
48640SOL    HW151883  11.563  11.390  10.103 -0.7819  0.0535 -1.7636
48640SOL    HW251884  11.439  11.325  10.045 -1.1727 -1.9955  1.1240
48641SOL     OW51885   4.563   7.711   6.397 -0.1550 -0.3460  0.0766
48641SOL    HW151886   4.645   7.669   6.421 -0.6267 -0.7065  1.1312
48641SOL    HW251887   4.553   7.783   6.459  0.0051  0.5298 -0.8897
48642SOL     OW51888   2.853   6.208  12.405 -0.6603 -0.3197  0.4112
48642SOL    HW151889   2.875   6.217  12.497 -1.0428  0.5901  0.4271
48642SOL    HW251890   2.936   6.187  12.362 -0.9075 -3.5275  1.2643
48643SOL     OW51891   9.874  10.530   1.275 -0.2297 -0.7969 -0.1293
48643SOL    HW151892   9.788  10.551   1.312  0.4622  0.8794  0.6367
48643SOL    HW251893   9.928  10.607   1.294  1.5134 -1.8951 -0.3994
48644SOL     OW51894  10.380  11.434   8.563  0.1805  0.0792  0.7172
48644SOL    HW151895  10.391  11.354   8.614 -0.4602 -1.1806 -1.0265
48644SOL    HW251896  10.302  11.476   8.600 -0.8048 -1.2674  0.2409
48645SOL     OW51897   7.085   3.581  11.809  0.0377 -0.1640  0.0829
48645SOL    HW151898   7.026   3.649  11.775  0.5909  1.6160  2.4490
48645SOL    HW251899   7.149   3.568  11.738  1.2198  3.4550  0.2554
48646SOL     OW51900   4.676   6.926   1.954  0.1427  0.6091  0.0776
48646SOL    HW151901   4.590   6.951   1.922  0.8194  1.8563 -0.8591
48646SOL    HW251902   4.728   7.006   1.950  1.8511 -0.4696 -1.0950
48647SOL     OW51903   3.369   9.603  11.964 -0.1625 -0.0925  0.6598
48647SOL    HW151904   3.407   9.515  11.962 -0.2883 -0.1628  1.1407
48647SOL    HW251905   3.374   9.633  11.874 -0.3005 -0.6755  0.4506
48648SOL     OW51906   1.244   7.823  10.911 -0.5521 -0.2142 -0.4766
48648SOL    HW151907   1.290   7.858  10.988  0.2355  1.5151 -1.6665
48648SOL    HW251908   1.238   7.897  10.851 -3.9967 -0.6557 -0.8410
48649SOL     OW51909   1.215   4.695   0.984 -0.0063  0.1129 -0.8667
48649SOL    HW151910   1.130   4.654   1.001  0.0693  0.5435  0.6073
48649SOL    HW251911   1.279   4.625   0.999  0.0091  0.2681 -0.2111
48650SOL     OW51912   8.332  11.995   5.982 -0.2521 -0.3661  0.4764
48650SOL    HW151913   8.425  11.994   6.004  0.2348  2.5392 -0.9781
48650SOL    HW251914   8.330  11.992   5.887 -1.6703 -0.8075  0.5052
48651SOL     OW51915   4.482   3.416   2.690  0.2235  0.0307  0.2399
48651SOL    HW151916   4.576   3.420   2.678  0.3687 -1.2430  0.8016
48651SOL    HW251917   4.470   3.408   2.785 -0.3331 -1.7718  0.0536
48652SOL     OW51918   7.776   1.944   9.757  0.1857 -0.3833 -0.2165
48652SOL    HW151919   7.816   1.874   9.705 -1.0403 -0.4324 -1.1565
48652SOL    HW251920   7.787   1.916   9.847  1.1236 -1.0001 -0.5108
48653SOL     OW51921  11.792  11.948   3.733 -0.1677 -0.5501 -0.0787
48653SOL    HW151922  11.855  12.020   3.728  1.3157 -1.7851  0.1007
48653SOL    HW251923  11.739  11.958   3.654 -0.4057  1.0751  0.2429
48654SOL     OW51924   5.023   8.644   4.275 -0.1970  0.1093 -0.5491
48654SOL    HW151925   5.012   8.607   4.363 -0.8506 -0.5543 -0.8919
48654SOL    HW251926   5.055   8.571   4.222  4.2301  1.4258 -0.0743
48655SOL     OW51927  11.411   3.077  10.150 -0.2580  0.0154  0.0368
48655SOL    HW151928  11.333   3.023  10.152 -0.5236  0.4145  0.5412
48655SOL    HW251929  11.456   3.052  10.069 -0.9148 -0.1984 -0.2638
48656SOL     OW51930  10.546   4.079   3.066  0.2345 -0.1952 -0.6535
48656SOL    HW151931  10.605   4.153   3.078 -0.9964  0.8043 -0.5896
48656SOL    HW251932  10.585   4.009   3.119  2.8997 -0.5453 -2.8317
48657SOL     OW51933   0.666  12.194   1.936  0.2769 -0.2416  0.6417
48657SOL    HW151934   0.610  12.246   1.879 -0.4829 -0.1007  1.4926
48657SOL    HW251935   0.687  12.116   1.885  0.7953  0.5203 -0.3600
48658SOL     OW51936   1.053   9.659   6.709 -0.1588 -0.2496  0.7697
48658SOL    HW151937   1.100   9.738   6.736 -0.2031 -0.3349  1.1001
48658SOL    HW251938   1.016   9.681   6.623  0.6720 -0.2591  0.4024
48659SOL     OW51939   8.848   0.086   0.931 -0.6339  0.5797  0.3175
48659SOL    HW151940   8.783   0.067   0.863 -0.0506 -1.4466  0.2405
48659SOL    HW251941   8.922   0.124   0.883 -0.2400 -0.7994 -0.2434
48660SOL     OW51942  11.692   1.132   6.992  0.1158 -0.3074 -0.0029
48660SOL    HW151943  11.651   1.112   7.076 -1.9826  1.9159 -0.3583
48660SOL    HW251944  11.707   1.227   6.995  0.8924 -0.3320 -1.7648
48661SOL     OW51945   0.528   0.503   8.051  0.2758 -0.4607  0.1556
48661SOL    HW151946   0.513   0.461   8.136 -0.2558 -0.5728  0.0069
48661SOL    HW251947   0.442   0.504   8.009  0.4277  0.1203 -0.1422
48662SOL     OW51948   3.061   9.190   9.657  0.0880  0.1921 -0.3518
48662SOL    HW151949   3.086   9.128   9.726 -2.6512  0.5275  1.1004
48662SOL    HW251950   2.972   9.163   9.633  0.4603  0.9692 -2.8170
48663SOL     OW51951  11.477   4.852   8.689 -0.1137  0.1511  0.3635
48663SOL    HW151952  11.445   4.864   8.599  0.2306 -0.5534  0.1364
48663SOL    HW251953  11.571   4.839   8.679 -0.1868 -0.7591  0.7402
48664SOL     OW51954   5.542  12.100   9.139 -0.5834 -0.0105 -0.3656
48664SOL    HW151955   5.588  12.065   9.215 -1.8885  0.8164  0.8550
48664SOL    HW251956   5.594  12.177   9.113 -0.7408  0.3735  0.4211
48665SOL     OW51957   4.158  10.197  11.966 -0.4088 -0.2797  0.4191
48665SOL    HW151958   4.201  10.112  11.957  3.0566  1.3465  0.0674
48665SOL    HW251959   4.152  10.211  12.060  0.9623 -0.0774  0.4988
48666SOL     OW51960   6.712   7.530   5.579  0.0545  0.6400 -0.0799
48666SOL    HW151961   6.798   7.502   5.612  0.5973  1.5289 -0.6896
48666SOL    HW251962   6.724   7.622   5.555 -1.1304  0.8369  0.0101
48667SOL     OW51963   8.105  11.992   6.213 -0.0012  0.3998 -0.1267
48667SOL    HW151964   8.089  11.910   6.260 -0.7937  1.0082  0.7125
48667SOL    HW251965   8.097  11.969   6.120  2.7801 -1.0709 -0.0945
48668SOL     OW51966   1.743   3.512   1.138  0.0160  0.5052 -0.0095
48668SOL    HW151967   1.768   3.510   1.230 -2.0782  1.3635  0.6290
48668SOL    HW251968   1.722   3.421   1.117  0.3970  0.3220  0.3798
48669SOL     OW51969   5.743   5.190  12.489 -0.0235 -0.0445 -0.1039
48669SOL    HW151970   5.741   5.095  12.493 -0.5556 -0.0188  0.3549
48669SOL    HW251971   5.706   5.218  12.573 -0.8728  0.5669 -0.6636
48670SOL     OW51972  12.243   0.387   0.436  0.1262 -0.3067  0.4058
48670SOL    HW151973  12.259   0.343   0.352 -0.5799  1.0609 -0.4840
48670SOL    HW251974  12.189   0.462   0.413 -0.9448 -0.4663  2.2416
48671SOL     OW51975   3.695  10.260   6.746 -0.1769 -0.0923 -0.1999
48671SOL    HW151976   3.667  10.332   6.690  2.4887 -0.2407 -1.8592
48671SOL    HW251977   3.723  10.191   6.686 -0.2610 -1.5709  1.3573
48672SOL     OW51978   3.006   7.278   1.964  0.5617  0.0092 -0.0217
48672SOL    HW151979   2.928   7.318   1.926 -0.9036 -0.5890  2.1885
48672SOL    HW251980   3.065   7.265   1.889  0.0424  3.6390 -1.2577
48673SOL     OW51981  11.320   7.419   9.560 -0.5909  0.1507 -0.0925
48673SOL    HW151982  11.332   7.445   9.468  0.2807  1.8100  0.4584
48673SOL    HW251983  11.309   7.324   9.556  1.1550 -0.0424 -1.7694
48674SOL     OW51984   6.639   4.824   0.176  0.4106 -0.4732  0.2902
48674SOL    HW151985   6.546   4.808   0.156  0.4306 -1.1909  0.7429
48674SOL    HW251986   6.663   4.897   0.119  0.1028 -1.5695 -1.3209
48675SOL     OW51987   6.701   2.182   6.283 -0.3715  0.5362  0.0128
48675SOL    HW151988   6.753   2.211   6.357 -0.6354  0.0657  0.3835
48675SOL    HW251989   6.620   2.233   6.289 -1.0828 -0.6589  1.0017
48676SOL     OW51990   0.943   8.742   0.337  0.0098 -0.0703 -0.1645
48676SOL    HW151991   0.991   8.661   0.354 -0.6685 -0.0003  2.4815
48676SOL    HW251992   0.996   8.788   0.272  2.1354 -1.1659  0.6896
48677SOL     OW51993  12.072   4.613   0.513  0.4157 -0.2467  0.4155
48677SOL    HW151994  12.129   4.656   0.449  1.6396  1.5170  2.5692
48677SOL    HW251995  12.052   4.528   0.474  0.8602  0.8472 -2.4023
48678SOL     OW51996   4.512  10.511   0.596 -0.7206 -0.5841  0.5411
48678SOL    HW151997   4.539  10.597   0.628 -0.7913 -0.9899  1.7218
48678SOL    HW251998   4.577  10.490   0.528  0.4083 -0.3903  1.5204
48679SOL     OW51999   8.828   4.161  11.481 -0.0177  0.3529  0.1545
48679SOL    HW152000   8.915   4.124  11.468 -0.2946 -0.3661  0.2861
48679SOL    HW252001   8.771   4.107  11.426 -0.3403  1.0095 -0.1665
48680SOL     OW52002   8.111   8.786   2.336  0.0960 -0.3157 -0.3010
48680SOL    HW152003   8.034   8.731   2.327  0.4646 -1.1257  1.1110
48680SOL    HW252004   8.077   8.874   2.354 -0.4938 -0.5875 -0.0830
48681SOL     OW52005   8.605   3.269   0.634 -0.3379 -0.0999  0.0250
48681SOL    HW152006   8.643   3.300   0.717 -0.4375 -1.3084  0.5518
48681SOL    HW252007   8.511   3.273   0.648 -0.3711 -1.8182  0.6180
48682SOL     OW52008   7.816   2.271   7.113  0.2752  0.1279 -0.3875
48682SOL    HW152009   7.788   2.306   7.197  0.1024 -1.4912  0.2534
48682SOL    HW252010   7.828   2.349   7.058  0.6180  1.2309  1.1774
48683SOL     OW52011   0.464   4.710   9.651  0.2520 -0.1287  0.4755
48683SOL    HW152012   0.426   4.623   9.642 -2.4707  0.6133  3.1014
48683SOL    HW252013   0.449   4.752   9.566  0.8905 -1.9112 -0.5551
48684SOL     OW52014   0.126   0.213   0.567  0.0338  0.0384 -0.0678
48684SOL    HW152015   0.173   0.143   0.522 -0.7434 -1.0527  0.7659
48684SOL    HW252016   0.194   0.262   0.613  0.4817 -0.8049  0.1819
48685SOL     OW52017  11.698   0.379  10.534  0.2001 -0.2018  0.2716
48685SOL    HW152018  11.609   0.393  10.503 -0.0787  0.0967  1.1775
48685SOL    HW252019  11.742   0.336  10.461 -0.4453  0.4240 -0.5055
48686SOL     OW52020   6.808   0.497  10.487 -0.1162  0.0174  0.1281
48686SOL    HW152021   6.880   0.454  10.534 -1.9596 -2.2218  1.0681
48686SOL    HW252022   6.771   0.558  10.550 -1.2018 -1.3839  0.8838
48687SOL     OW52023  11.914  10.268   1.444  0.5702 -0.0018  0.4385
48687SOL    HW152024  12.008  10.248   1.441  0.7489  0.6846  1.1005
48687SOL    HW252025  11.878  10.226   1.366  1.0552 -2.0978  1.2823
48688SOL     OW52026   7.547   6.205   6.634  0.6427  0.1652 -0.0202
48688SOL    HW152027   7.558   6.113   6.611 -0.8699 -0.2864  0.9106
48688SOL    HW252028   7.619   6.249   6.590  1.3746 -1.4493 -0.5296
48689SOL     OW52029   9.153   5.369   8.984 -0.1224 -0.2930  0.0755
48689SOL    HW152030   9.121   5.279   8.977  0.9305 -0.7737  1.0154
48689SOL    HW252031   9.145   5.405   8.896  0.7451 -1.7778 -0.6520
48690SOL     OW52032   2.411   8.475   2.919  1.0647 -0.7512 -0.1148
48690SOL    HW152033   2.376   8.549   2.870  0.8547 -1.8279 -1.6318
48690SOL    HW252034   2.383   8.491   3.010 -0.3876  0.1725 -0.6922
48691SOL     OW52035   2.358  12.009   3.285  0.6827 -0.1673 -0.4439
48691SOL    HW152036   2.354  11.934   3.226 -0.6908 -0.0977 -0.4759
48691SOL    HW252037   2.318  12.081   3.235  0.0247  0.0294  0.3413
48692SOL     OW52038  11.547   8.643   6.105  0.1555 -0.3176  0.2966
48692SOL    HW152039  11.499   8.705   6.049  2.1364  0.6910 -0.3975
48692SOL    HW252040  11.515   8.660   6.193  0.1007  1.1634  0.0106
48693SOL     OW52041   5.460   2.201   4.250  0.1885  0.0250 -0.0241
48693SOL    HW152042   5.365   2.191   4.241  0.4031  0.0177 -3.5743
48693SOL    HW252043   5.496   2.115   4.228  1.0596  0.0541  1.1682
48694SOL     OW52044   6.615   9.582   7.350  0.0577  0.7544  0.2643
48694SOL    HW152045   6.534   9.607   7.394 -0.3398  0.7480 -0.4525
48694SOL    HW252046   6.660   9.666   7.335  0.9330  0.6492  2.0447
48695SOL     OW52047   0.964  11.759   4.361 -0.4646  0.2216  0.0504
48695SOL    HW152048   1.016  11.788   4.286 -1.8047  0.7742 -0.6932
48695SOL    HW252049   0.897  11.702   4.323 -2.0282  1.6187  0.5955
48696SOL     OW52050   4.787   0.582   4.187  0.2902 -0.0123 -0.3172
48696SOL    HW152051   4.700   0.548   4.208 -0.2032  0.7166 -1.0902
48696SOL    HW252052   4.844   0.547   4.255 -0.7687  0.1961  0.7055
48697SOL     OW52053   5.447  11.493   1.556  0.2512 -0.2358  0.2286
48697SOL    HW152054   5.523  11.526   1.603  0.2291  0.3065 -0.1072
48697SOL    HW252055   5.419  11.417   1.607  0.0383  0.5167  1.2795
48698SOL     OW52056   4.360   7.534   6.311  0.5235 -0.4735 -0.1093
48698SOL    HW152057   4.323   7.482   6.382 -1.2071 -0.2372 -0.7720
48698SOL    HW252058   4.429   7.586   6.351 -0.7905  0.0810  1.5230
48699SOL     OW52059  10.609   3.630   1.264  0.1619  0.0672  0.0970
48699SOL    HW152060  10.555   3.631   1.343  1.9490 -0.0237  1.3867
48699SOL    HW252061  10.698   3.649   1.296  0.7464  1.2609 -2.0524
48700SOL     OW52062   6.459  11.547   1.523 -0.1955  0.0746  0.4364
48700SOL    HW152063   6.552  11.538   1.544 -0.5553  0.3577  2.3200
48700SOL    HW252064   6.450  11.638   1.495  0.2709 -0.2673 -0.8929
48701SOL     OW52065   9.900   3.910  11.737 -0.0520 -0.4867  0.4174
48701SOL    HW152066   9.926   4.002  11.735 -2.4666  0.3003  1.5212
48701SOL    HW252067   9.982   3.862  11.729  1.1423  1.7030 -1.9980
48702SOL     OW52068  11.095   5.235  10.860  0.2573 -0.2923  0.3518
48702SOL    HW152069  11.028   5.303  10.868  0.7531  0.5535 -1.8247
48702SOL    HW252070  11.045   5.153  10.850 -0.4142  0.0953  0.4654
48703SOL     OW52071   3.503   2.920   3.743  0.2429  0.1011 -0.2139
48703SOL    HW152072   3.576   2.877   3.698 -0.2196 -0.4507 -0.4607
48703SOL    HW252073   3.470   2.985   3.681  1.4854  1.4516  0.4836
48704SOL     OW52074   9.517   3.672   9.022  0.3554 -0.2997 -0.2564
48704SOL    HW152075   9.591   3.614   9.006  0.9298 -0.4509  2.4320
48704SOL    HW252076   9.552   3.741   9.079 -0.9989  1.0980 -1.0326
48705SOL     OW52077   9.545   1.552  11.196 -0.4040 -0.4496  0.0140
48705SOL    HW152078   9.601   1.566  11.120 -1.3451 -1.3123 -0.8583
48705SOL    HW252079   9.539   1.457  11.205  0.0324 -0.3709  1.4334
48706SOL     OW52080  10.923   7.106  11.723  0.3420 -0.0565  0.0906
48706SOL    HW152081  10.998   7.073  11.773  0.1760  0.5195  0.7286
48706SOL    HW252082  10.871   7.155  11.787  0.3515  1.0661 -0.7322
48707SOL     OW52083   7.018   3.381   8.441  0.3861 -0.0975  0.0203
48707SOL    HW152084   7.088   3.429   8.398 -0.8701  1.7235 -0.1282
48707SOL    HW252085   7.009   3.300   8.391  2.6597 -0.6148  0.3531
48708SOL     OW52086  12.296   1.330   4.856  0.4218 -0.1430  0.6837
48708SOL    HW152087  12.378   1.347   4.810  0.5376 -0.6208  0.7127
48708SOL    HW252088  12.291   1.399   4.923  0.2255  0.5956 -0.0639
48709SOL     OW52089   0.046   8.739   2.781  0.3098 -0.2616  0.3822
48709SOL    HW152090  -0.021   8.696   2.727  2.0597 -1.0149 -1.3057
48709SOL    HW252091   0.060   8.823   2.738  2.1886 -1.1375 -0.8438
48710SOL     OW52092  10.661   4.422   8.113 -0.2656  0.3062  0.2841
48710SOL    HW152093  10.625   4.510   8.101  2.5706  1.3049 -2.5005
48710SOL    HW252094  10.626   4.371   8.041  1.7185  0.6133 -0.9877
48711SOL     OW52095  12.320  11.806  10.907 -0.8688 -0.0317  0.2316
48711SOL    HW152096  12.403  11.831  10.867 -1.1590  0.6055  0.0106
48711SOL    HW252097  12.267  11.886  10.904 -1.3188 -0.3016  0.8066
48712SOL     OW52098   1.318  10.511   0.238 -0.0761  0.0250 -0.0300
48712SOL    HW152099   1.338  10.513   0.144 -0.6420 -0.3997 -0.1623
48712SOL    HW252100   1.283  10.423   0.253  0.6284 -0.1391  0.7099
48713SOL     OW52101   9.802   6.586   4.278 -0.0935  0.2101 -0.4405
48713SOL    HW152102   9.807   6.623   4.190 -0.6019 -0.1926 -0.6438
48713SOL    HW252103   9.884   6.537   4.288 -0.0852  0.1643 -0.7290
48714SOL     OW52104   0.612   8.117   3.589 -0.0850  0.1518 -0.0458
48714SOL    HW152105   0.703   8.094   3.606  0.8236  2.6767 -1.1267
48714SOL    HW252106   0.593   8.081   3.503  0.2228  0.5226 -0.2679
48715SOL     OW52107   8.664   1.153   2.641 -0.1182  0.4296  0.3698
48715SOL    HW152108   8.665   1.067   2.600  2.4895  0.8242 -0.6167
48715SOL    HW252109   8.648   1.214   2.569  0.2732  0.8812  0.6544
48716SOL     OW52110   0.813   2.795  11.229 -0.3749 -0.2441 -0.5279
48716SOL    HW152111   0.741   2.795  11.167 -1.3852 -1.2740  0.5976
48716SOL    HW252112   0.805   2.878  11.275  1.0971  1.0903 -2.4795
48717SOL     OW52113   5.037  10.005   9.934  0.1578  0.3403  0.3056
48717SOL    HW152114   5.057   9.928   9.986  1.2479  0.7436  0.4985
48717SOL    HW252115   4.945  10.024   9.953  0.3797  0.1513  1.6567
48718SOL     OW52116  11.716   4.550   9.964  0.4602 -0.0379 -0.2242
48718SOL    HW152117  11.774   4.474   9.969  1.3644  0.6968  1.0912
48718SOL    HW252118  11.776   4.625   9.962 -0.4349  0.6987  0.0625
48719SOL     OW52119   6.372   1.090   5.969  0.3855 -0.2990  0.0058
48719SOL    HW152120   6.301   1.032   5.942  0.5332 -1.6676  2.3061
48719SOL    HW252121   6.328   1.167   6.005  0.0856 -0.6091  0.3085
48720SOL     OW52122   1.871   7.529   1.995 -0.7971 -0.2379 -0.1214
48720SOL    HW152123   1.945   7.578   1.958 -2.0668  0.1907 -2.2709
48720SOL    HW252124   1.885   7.439   1.966 -1.1869 -0.1231 -0.6830
48721SOL     OW52125   3.837   5.413   4.874  0.3799 -0.2409  0.0745
48721SOL    HW152126   3.893   5.356   4.927  0.4376 -0.4995 -0.2634
48721SOL    HW252127   3.827   5.367   4.791 -0.6941 -0.4057  0.2833
48722SOL     OW52128   0.797   9.063   4.745  0.0623 -0.0619  0.4988
48722SOL    HW152129   0.730   8.996   4.735  0.7025 -0.8910  1.5314
48722SOL    HW252130   0.874   9.016   4.776  0.7555  1.0413  0.5135
48723SOL     OW52131   4.511   9.330   3.440  0.3856 -0.1454  0.0880
48723SOL    HW152132   4.602   9.315   3.467 -0.1125 -1.4155  1.1893
48723SOL    HW252133   4.475   9.242   3.427 -0.4509  0.3568 -1.2433
48724SOL     OW52134  11.891   0.278   1.112 -0.4016  0.5547  0.1762
48724SOL    HW152135  11.843   0.360   1.127 -0.4898  0.6724 -0.6756
48724SOL    HW252136  11.864   0.251   1.024 -0.4013 -0.4142  0.4590
48725SOL     OW52137   0.447   9.643   4.594 -0.5876  0.3957  0.1132
48725SOL    HW152138   0.494   9.592   4.660 -0.9555  0.4204  0.3959
48725SOL    HW252139   0.382   9.583   4.557  0.4653 -0.0177 -1.1637
48726SOL     OW52140  10.885   1.043   4.903 -0.5098  0.3893 -0.1789
48726SOL    HW152141  10.825   0.989   4.954 -0.1696 -1.1004 -1.2691
48726SOL    HW252142  10.972   1.007   4.923 -0.3936 -0.4361 -1.9613
48727SOL     OW52143   9.564   5.666   2.066  0.0888  0.0798 -0.0622
48727SOL    HW152144   9.653   5.690   2.091 -0.5684  2.3366  0.2802
48727SOL    HW252145   9.575   5.585   2.016  2.1777 -0.4551  1.1289
48728SOL     OW52146   8.803   4.243   0.142 -0.0732 -0.2673 -0.5690
48728SOL    HW152147   8.831   4.159   0.178  0.5844 -0.4823 -1.5254
48728SOL    HW252148   8.709   4.235   0.132 -0.0462 -0.8035 -0.4137
48729SOL     OW52149   4.152  10.083   9.641  0.4839  0.5454  0.5790
48729SOL    HW152150   4.212  10.036   9.698  1.3861  1.0518  0.0789
48729SOL    HW252151   4.111  10.015   9.587  1.6579  0.3102 -0.0357
48730SOL     OW52152  12.248  10.680  10.884  0.0769  0.7719  0.1696
48730SOL    HW152153  12.333  10.695  10.842  0.6713  0.3914  1.1997
48730SOL    HW252154  12.265  10.690  10.977 -0.3426 -2.1908  0.6601
48731SOL     OW52155   1.033   1.087   7.953 -0.8310  0.0419  0.1857
48731SOL    HW152156   1.020   1.122   7.864 -0.3839  0.0825  0.1362
48731SOL    HW252157   1.103   1.022   7.943  1.3857  2.1695  1.0270
48732SOL     OW52158  10.527   8.930   7.547  0.3806  0.7027 -0.4880
48732SOL    HW152159  10.449   8.892   7.589 -0.1434  1.4586 -0.7602
48732SOL    HW252160  10.550   8.868   7.478  0.5166  0.0652  0.1171
48733SOL     OW52161   1.715   5.621   7.201  0.0360  0.1274 -0.4654
48733SOL    HW152162   1.720   5.591   7.292  2.1232 -1.7817 -1.1217
48733SOL    HW252163   1.622   5.637   7.186 -0.3543  0.4204  1.9607
48734SOL     OW52164   2.010   5.603   0.937  0.2801  0.5600 -0.0615
48734SOL    HW152165   2.072   5.553   0.989 -2.0224 -1.5516  0.8243
48734SOL    HW252166   1.959   5.653   1.001 -0.2140  0.7490 -0.5894
48735SOL     OW52167  10.143   2.697  10.662  0.1981 -0.2087  0.2722
48735SOL    HW152168  10.144   2.726  10.571  0.4647  0.4046  0.4596
48735SOL    HW252169  10.234   2.707  10.691  0.3033 -1.2915  0.3362
48736SOL     OW52170   4.790   1.076   3.613 -0.1373 -0.1082 -0.0809
48736SOL    HW152171   4.743   0.998   3.582 -0.9239  0.7983 -1.2839
48736SOL    HW252172   4.769   1.144   3.549  1.1967  0.8924  0.4757
48737SOL     OW52173  10.686   2.440   8.639  0.2734 -0.2879  0.2726
48737SOL    HW152174  10.695   2.426   8.733  1.7651 -0.5112  0.1100
48737SOL    HW252175  10.741   2.516   8.621  0.0901 -0.3206 -0.4451
48738SOL     OW52176   1.001   7.376   9.502 -0.6093 -0.1132  0.2825
48738SOL    HW152177   1.038   7.446   9.448 -2.9895 -1.0059 -2.8383
48738SOL    HW252178   0.940   7.420   9.561  0.2360  0.6809  0.5822
48739SOL     OW52179   3.260  11.459   2.751 -0.0913  0.2244  0.4172
48739SOL    HW152180   3.353  11.453   2.771  0.0603 -1.6985 -0.5944
48739SOL    HW252181   3.257  11.459   2.655 -1.1693 -1.4225  0.4182
48740SOL     OW52182   1.225   5.236   7.088  0.1246 -0.8604 -0.1549
48740SOL    HW152183   1.221   5.274   7.000  0.4202 -0.2632  0.0836
48740SOL    HW252184   1.318   5.222   7.104  0.5714  2.8781  1.6356
48741SOL     OW52185   6.216  11.100   7.482 -0.2013  0.1036  0.1539
48741SOL    HW152186   6.286  11.130   7.539 -0.2147 -0.5934  0.5522
48741SOL    HW252187   6.199  11.174   7.423  0.1672  0.6380  0.7093
48742SOL     OW52188   8.231  10.985   9.528  0.6969  0.0094 -0.1309
48742SOL    HW152189   8.193  10.900   9.551 -0.7406 -0.1353 -2.6564
48742SOL    HW252190   8.316  10.964   9.490  0.7382 -0.2207  0.0891
48743SOL     OW52191   2.178   7.077   8.635 -0.4599 -0.0272 -0.0404
48743SOL    HW152192   2.175   7.044   8.545 -0.6342  0.4302 -0.2048
48743SOL    HW252193   2.123   7.016   8.684  0.9248 -1.2246  0.0820
48744SOL     OW52194   8.376   6.947   5.229 -0.3067  0.5949  0.1768
48744SOL    HW152195   8.360   7.040   5.209 -1.9187  0.1439 -0.8900
48744SOL    HW252196   8.462   6.929   5.192 -0.7825  1.2372 -1.3417
48745SOL     OW52197   1.498   2.489  10.247  0.2879 -0.2940  0.4184
48745SOL    HW152198   1.519   2.428  10.176  2.3888  0.2323  0.5274
48745SOL    HW252199   1.437   2.552  10.208  0.3019 -0.8255 -0.4974
48746SOL     OW52200   6.233   5.345   6.553  0.3078 -0.5282  0.4052
48746SOL    HW152201   6.188   5.272   6.511 -1.1835  0.1145  0.8374
48746SOL    HW252202   6.193   5.424   6.515  1.5508  0.0875  0.3003
48747SOL     OW52203   7.017   8.041   9.464  0.4906 -0.1050 -0.3709
48747SOL    HW152204   7.091   8.101   9.466  1.5238 -1.3551  0.5583
48747SOL    HW252205   7.003   8.022   9.371  0.7131  0.8645 -0.6073
48748SOL     OW52206   5.284  11.699   2.018  0.0778 -0.6147  0.2482
48748SOL    HW152207   5.265  11.645   1.940 -1.6120  0.6147 -0.2558
48748SOL    HW252208   5.339  11.643   2.072  1.4884 -1.4672 -1.8995
48749SOL     OW52209   9.503   0.907  11.864 -0.2978  0.2718  0.0925
48749SOL    HW152210   9.502   0.874  11.774 -0.3433  1.6348 -0.4353
48749SOL    HW252211   9.447   0.985  11.861  0.6610  1.0291  1.0189
48750SOL     OW52212   3.780   0.223  10.486  0.2047  0.2988  0.6719
48750SOL    HW152213   3.749   0.195  10.400  0.6662 -1.2557  0.9716
48750SOL    HW252214   3.757   0.316  10.491 -1.1444  0.0694 -0.5297
48751SOL     OW52215  11.750   3.756   6.788  0.3137 -0.3321  0.2143
48751SOL    HW152216  11.728   3.819   6.855  1.1649  0.9203 -0.6403
48751SOL    HW252217  11.682   3.689   6.794 -0.8286  0.8645  0.8745
48752SOL     OW52218   7.580   3.588   5.922  0.2208  0.1684 -0.0989
48752SOL    HW152219   7.662   3.627   5.892  0.2506  2.1551  2.3298
48752SOL    HW252220   7.513   3.627   5.865  0.7118  0.3520 -0.5597
48753SOL     OW52221  10.371   7.857   4.489  0.1184  0.0904 -0.0299
48753SOL    HW152222  10.388   7.902   4.572  0.0807  1.5443 -0.7700
48753SOL    HW252223  10.277   7.865   4.477  0.1356 -0.0472 -0.2513
48754SOL     OW52224  12.075   9.770   4.587  0.0062  0.3261  0.5916
48754SOL    HW152225  12.049   9.756   4.496 -0.6441  1.2496  0.6213
48754SOL    HW252226  12.164   9.735   4.592 -0.2338 -0.4426 -0.1955
48755SOL     OW52227   0.069  10.924   4.264  0.6175 -0.2036 -0.4421
48755SOL    HW152228   0.067  11.000   4.323  1.0846  0.5103 -1.3115
48755SOL    HW252229   0.158  10.890   4.271  1.3649  1.1958 -2.2901
48756SOL     OW52230   9.741   9.416   2.205 -0.1048 -0.1071 -0.6647
48756SOL    HW152231   9.705   9.380   2.286  1.7051  0.4577  0.4563
48756SOL    HW252232   9.783   9.341   2.162  1.3481  0.0592  0.3555
48757SOL     OW52233   8.928  11.236  10.626  0.3021  0.4147  0.7625
48757SOL    HW152234   8.989  11.202  10.691  0.8641 -1.0847 -0.4860
48757SOL    HW252235   8.984  11.284  10.564  0.2948 -1.1340 -0.4965
48758SOL     OW52236   2.940   1.913   8.509 -0.2584 -0.0932 -0.0164
48758SOL    HW152237   3.002   1.844   8.489 -1.2031 -1.0715  0.3383
48758SOL    HW252238   2.937   1.917   8.605 -0.3868  0.2768 -0.0299
48759SOL     OW52239   5.921   7.461   6.171 -0.1275  0.1852  0.0420
48759SOL    HW152240   5.950   7.551   6.154  0.4861 -0.3009 -1.7895
48759SOL    HW252241   5.999   7.417   6.205  0.4491 -0.3227 -1.8114
48760SOL     OW52242  10.771   3.534   5.408 -0.4497  0.1836  0.1753
48760SOL    HW152243  10.678   3.554   5.397 -0.6755 -0.1329  1.3497
48760SOL    HW252244  10.799   3.589   5.480  0.4553  0.7600 -0.5908
48761SOL     OW52245   7.336   3.539  11.294  0.9298 -0.0039  0.8028
48761SOL    HW152246   7.315   3.472  11.359 -0.6011 -0.5592 -0.1997
48761SOL    HW252247   7.382   3.492  11.224 -1.8811 -0.5657 -0.8537
48762SOL     OW52248  12.305   6.783   2.667 -0.2415 -0.2662 -0.1007
48762SOL    HW152249  12.288   6.862   2.720  0.1134  0.6038 -1.2418
48762SOL    HW252250  12.360   6.815   2.595 -0.8503 -1.3966 -1.0846
48763SOL     OW52251   4.127   1.461   5.602  0.4028 -0.4446 -0.2424
48763SOL    HW152252   4.208   1.425   5.566  0.7668  0.2869 -0.1672
48763SOL    HW252253   4.080   1.385   5.635  0.7826 -0.9433 -0.8379
48764SOL     OW52254   2.947   7.727   6.404 -0.6427 -0.2048 -0.6065
48764SOL    HW152255   2.872   7.670   6.421 -0.4662 -0.9497 -2.1386
48764SOL    HW252256   2.908   7.813   6.387 -1.2188 -0.6638 -1.7638
48765SOL     OW52257   3.860   0.369   3.289  0.0602 -0.1722  0.5890
48765SOL    HW152258   3.844   0.420   3.209 -0.6516  0.7585  1.2978
48765SOL    HW252259   3.899   0.287   3.258  0.6050  0.5258 -0.6344
48766SOL     OW52260   9.610   7.360   3.822 -0.4672 -0.0395 -0.0228
48766SOL    HW152261   9.580   7.371   3.731 -3.0659 -2.3651  0.4100
48766SOL    HW252262   9.621   7.265   3.832  0.8345  0.2634  1.8121
48767SOL     OW52263  12.187  11.621  10.691 -0.2726 -0.7439  0.2678
48767SOL    HW152264  12.254  11.669  10.738 -0.1388 -0.8256  0.1630
48767SOL    HW252265  12.140  11.687  10.641 -0.2130 -0.6981  0.2721
48768SOL     OW52266   4.820  11.739  11.650 -0.0730  0.2281 -0.2586
48768SOL    HW152267   4.757  11.760  11.582 -0.1099  2.2230  0.3346
48768SOL    HW252268   4.898  11.709  11.602 -0.1580  1.4229 -1.1862
48769SOL     OW52269   3.239   2.768   7.044 -0.1094  0.0622  0.4671
48769SOL    HW152270   3.295   2.750   6.968 -0.9946  1.8482 -0.6585
48769SOL    HW252271   3.243   2.863   7.055 -1.1021 -0.0231  1.8008
48770SOL     OW52272  10.781   5.999   5.692 -0.4645 -0.5437  0.2103
48770SOL    HW152273  10.719   6.061   5.653 -0.4713 -0.1044  0.9002
48770SOL    HW252274  10.736   5.915   5.688 -1.1876 -0.2041  0.8503
48771SOL     OW52275   4.359   4.431   0.796  0.0162  0.5827 -0.1191
48771SOL    HW152276   4.294   4.391   0.739 -0.5100  1.2787 -0.0190
48771SOL    HW252277   4.315   4.437   0.881  0.7751 -0.4064  0.3610
48772SOL     OW52278   9.645   0.254   3.749 -0.1986 -0.0127 -0.4214
48772SOL    HW152279   9.601   0.339   3.739  1.0510  0.9654  1.6514
48772SOL    HW252280   9.738   0.275   3.750  0.2504 -1.6854 -1.7491
48773SOL     OW52281   8.820   7.921  11.011 -0.1768  0.0144 -0.0397
48773SOL    HW152282   8.835   7.897  10.920  2.0237 -2.4090  0.8346
48773SOL    HW252283   8.867   8.004  11.022 -0.1577  0.1449 -1.0207
48774SOL     OW52284   5.696   3.659  11.023 -0.1723 -1.2310 -0.0868
48774SOL    HW152285   5.714   3.669  10.930  0.1820 -1.3991 -0.0390
48774SOL    HW252286   5.638   3.584  11.029 -3.4029  1.0205 -0.5137
48775SOL     OW52287   4.284   2.695   0.840 -0.3895 -0.4641  0.3628
48775SOL    HW152288   4.265   2.707   0.746  0.6315 -1.4402  0.0083
48775SOL    HW252289   4.201   2.714   0.883 -0.5785  1.2123 -0.6299
48776SOL     OW52290   1.565  10.394   8.497  0.3400 -0.4799  0.2699
48776SOL    HW152291   1.646  10.441   8.516 -0.2145 -0.1542  1.9869
48776SOL    HW252292   1.538  10.358   8.581 -1.0166 -1.0506 -0.3862
48777SOL     OW52293   5.321   9.552   8.193  0.0974 -0.5036  0.3202
48777SOL    HW152294   5.388   9.616   8.215 -0.7318  0.3364  0.4728
48777SOL    HW252295   5.260   9.600   8.136 -0.5496 -1.1456  0.4538
48778SOL     OW52296   5.094   9.868   3.685  0.0961 -0.0084  0.5798
48778SOL    HW152297   5.036   9.873   3.608 -0.8323 -0.3304  1.2451
48778SOL    HW252298   5.142   9.786   3.674  0.6461  0.3904 -0.1124
48779SOL     OW52299   6.322   9.695  10.601 -0.1401 -0.4482 -0.5388
48779SOL    HW152300   6.395   9.635  10.593  0.4408 -0.0319  1.2838
48779SOL    HW252301   6.352   9.776  10.559 -0.0741 -0.7106 -0.9955
48780SOL     OW52302   3.644   7.296   5.533 -0.5649 -0.1254  0.4938
48780SOL    HW152303   3.638   7.390   5.515  0.8587  0.0206  0.6216
48780SOL    HW252304   3.733   7.273   5.505 -1.6286 -1.9273 -1.7101
48781SOL     OW52305  10.307   3.895   3.222  0.5994 -0.1354 -0.7092
48781SOL    HW152306  10.301   3.922   3.130 -0.4212 -0.6649 -0.8134
48781SOL    HW252307  10.299   3.977   3.271  0.8245  0.1132 -1.0781
48782SOL     OW52308  11.445   9.755  11.665 -0.4897  0.0358  0.0734
48782SOL    HW152309  11.441   9.847  11.691 -1.4649  0.6448 -2.0616
48782SOL    HW252310  11.358   9.721  11.685 -0.2206 -0.3779  0.5811
48783SOL     OW52311   7.993   0.251   3.516 -0.8139 -0.4208  0.4912
48783SOL    HW152312   8.015   0.253   3.610  2.5418 -0.1811 -0.1745
48783SOL    HW252313   7.972   0.342   3.495  1.7045  0.2271  0.4449
48784SOL     OW52314   6.751   3.242   4.019  0.2933  0.8194  0.2195
48784SOL    HW152315   6.838   3.209   4.042  0.7007 -0.0782 -2.2572
48784SOL    HW252316   6.767   3.307   3.950 -0.9882 -0.1413 -1.0524
48785SOL     OW52317   6.767  10.980   0.645 -0.3756 -0.1798  0.3038
48785SOL    HW152318   6.835  10.938   0.697 -1.8393 -2.6507  0.3631
48785SOL    HW252319   6.686  10.965   0.694 -1.4023 -0.2162 -1.3323
48786SOL     OW52320   1.785   9.486   0.566  0.0672  0.0870  0.0363
48786SOL    HW152321   1.846   9.525   0.628  0.0883  1.3667 -0.7393
48786SOL    HW252322   1.762   9.558   0.507 -2.1059 -0.3861  0.2287
48787SOL     OW52323   9.587   3.596   7.546 -0.3733 -0.0591 -0.0507
48787SOL    HW152324   9.500   3.612   7.510 -2.1880 -2.2745  2.8600
48787SOL    HW252325   9.635   3.552   7.476 -3.0671 -2.5579 -0.4983
48788SOL     OW52326   0.201   3.052  10.147  0.1033  0.3129  0.2109
48788SOL    HW152327   0.256   3.015  10.077  1.7023  1.4972  0.7817
48788SOL    HW252328   0.250   3.127  10.179 -0.6563 -0.0782  2.5110
48789SOL     OW52329   3.263   9.128   4.096 -0.0357  0.4242  0.4720
48789SOL    HW152330   3.243   9.149   4.004  1.0735  0.6366  0.2689
48789SOL    HW252331   3.337   9.069   4.092 -0.6262 -0.3869  1.2142
48790SOL     OW52332   2.704   5.158   9.860  0.4847  0.2005 -0.2246
48790SOL    HW152333   2.694   5.063   9.868  0.4952  0.3323  1.9043
48790SOL    HW252334   2.791   5.176   9.896  0.4704  1.0261 -0.5872
48791SOL     OW52335   8.601   2.434   2.472  0.9366  0.5312 -0.3185
48791SOL    HW152336   8.527   2.384   2.505 -0.6809  2.5159 -0.8002
48791SOL    HW252337   8.577   2.456   2.382  2.0464  1.3186 -0.4426
48792SOL     OW52338   7.569  10.712   9.754  0.2772 -0.1514 -0.1780
48792SOL    HW152339   7.504  10.769   9.796  0.8190  0.1391  0.2778
48792SOL    HW252340   7.564  10.630   9.803 -1.1087 -0.8432 -1.3629
48793SOL     OW52341   2.730  10.539   9.887  0.3330  0.6411  0.0098
48793SOL    HW152342   2.822  10.514   9.893 -0.1620 -1.7232 -1.1036
48793SOL    HW252343   2.721  10.577   9.799  0.1818  0.6339  0.0224
48794SOL     OW52344  11.022   9.083   4.791 -0.1002  0.2012  0.7089
48794SOL    HW152345  11.108   9.123   4.804  0.1936 -0.4618  0.8539
48794SOL    HW252346  11.036   8.991   4.810 -0.8350  0.0775  0.6700
48795SOL     OW52347   9.438  10.996   2.351 -0.1956 -0.1061 -0.6306
48795SOL    HW152348   9.427  10.939   2.427 -1.8700  0.0304 -0.7367
48795SOL    HW252349   9.431  11.084   2.386  0.5710 -0.0062 -0.7266
48796SOL     OW52350   4.772   4.492   1.211 -0.4503 -0.6750  0.7633
48796SOL    HW152351   4.731   4.430   1.152  1.9869 -0.9320 -0.7978
48796SOL    HW252352   4.799   4.440   1.286 -1.7939 -0.7219  1.2414
48797SOL     OW52353  11.752   5.884   9.581 -0.4846  0.0423 -0.0743
48797SOL    HW152354  11.740   5.845   9.495  0.9571 -1.0410  0.1571
48797SOL    HW252355  11.823   5.832   9.620  0.8208  2.2376  0.6813
48798SOL     OW52356   6.530   7.412   7.569  0.1534  0.1849  0.0795
48798SOL    HW152357   6.502   7.500   7.594 -0.0236  0.7220 -1.8002
48798SOL    HW252358   6.500   7.403   7.478 -0.9377 -2.3042  0.6034
48799SOL     OW52359  10.325  11.877   8.072 -0.0186 -0.2883 -0.0583
48799SOL    HW152360  10.402  11.930   8.088  0.1816 -0.8313  0.8150
48799SOL    HW252361  10.316  11.876   7.977 -0.0120  1.2752 -0.0956
48800SOL     OW52362   4.407   2.156   2.032  0.2066 -0.0094 -0.3674
48800SOL    HW152363   4.388   2.228   2.092  3.0944  0.9880 -0.4906
48800SOL    HW252364   4.397   2.194   1.945 -0.6783 -0.4914 -0.4845
48801SOL     OW52365   2.098   2.035   8.289  0.1440  0.5330 -0.0371
48801SOL    HW152366   2.024   2.079   8.247  1.4442  1.4339 -1.5188
48801SOL    HW252367   2.159   2.019   8.217  1.5971  0.2552  1.2247
48802SOL     OW52368   7.362   1.194   0.159 -0.4144 -0.3300 -0.4898
48802SOL    HW152369   7.405   1.109   0.158 -0.5268 -0.3985  0.1171
48802SOL    HW252370   7.311   1.196   0.078 -1.1416 -1.2300 -0.0738
48803SOL     OW52371   5.241  11.267   1.631  0.2938  0.0055 -0.2490
48803SOL    HW152372   5.219  11.332   1.563  0.5117 -0.2495 -0.5654
48803SOL    HW252373   5.170  11.202   1.625  0.7322 -0.4278 -0.7645
48804SOL     OW52374   2.811   5.006   1.501  0.2918  0.0066 -0.1164
48804SOL    HW152375   2.780   5.017   1.590  0.1615  1.5648 -0.3264
48804SOL    HW252376   2.840   4.914   1.496 -1.1389 -0.5358  1.0480
48805SOL     OW52377   6.995   9.933   9.989 -0.7590 -0.6001 -0.3649
48805SOL    HW152378   6.973   9.952  10.081 -0.5719  1.6894 -0.7381
48805SOL    HW252379   6.924   9.972   9.939 -0.0979 -0.5218 -1.2547
48806SOL     OW52380   9.521  10.934  12.146  0.1176  0.0869 -0.1723
48806SOL    HW152381   9.571  10.895  12.218  2.4779  0.4629 -1.5042
48806SOL    HW252382   9.524  10.869  12.076 -2.3289 -0.3579  0.0415
48807SOL     OW52383  12.108  11.339   8.056  0.2217 -0.0167 -0.0412
48807SOL    HW152384  12.165  11.356   8.131 -0.0710 -0.9615  0.4068
48807SOL    HW252385  12.024  11.314   8.094 -0.0728 -0.0264 -0.6835
48808SOL     OW52386   6.953   4.656   4.241 -0.0426  0.6281  0.1310
48808SOL    HW152387   7.001   4.684   4.163 -0.5787  0.0661 -0.4156
48808SOL    HW252388   6.934   4.563   4.226 -1.8498  0.9708  0.0205
48809SOL     OW52389   2.146   7.945   9.369 -0.6052  0.1576  0.0046
48809SOL    HW152390   2.198   7.909   9.297 -0.9288  0.6182 -0.4618
48809SOL    HW252391   2.205   8.006   9.413 -0.5619  0.2381 -0.1654
48810SOL     OW52392   8.752   5.361  12.316  0.1581 -0.6041 -0.3687
48810SOL    HW152393   8.792   5.444  12.339  0.2296 -0.1507 -1.9682
48810SOL    HW252394   8.752   5.310  12.397  0.9033  0.6249  0.4295
48811SOL     OW52395   6.409   0.791   4.582 -0.8851  0.4929 -0.1136
48811SOL    HW152396   6.337   0.749   4.629 -0.7709 -1.2973 -1.4617
48811SOL    HW252397   6.428   0.733   4.509  0.5743  1.9693 -0.9835
48812SOL     OW52398  10.750   4.070   2.003 -0.0947 -0.5930  1.0594
48812SOL    HW152399  10.834   4.068   2.049  0.3879 -1.2479  0.1687
48812SOL    HW252400  10.725   3.978   1.993 -1.1965 -0.3934  1.7966
48813SOL     OW52401   2.565   2.432   9.867 -0.2903 -0.1411 -0.0466
48813SOL    HW152402   2.642   2.480   9.897 -0.0550  0.4276 -1.5121
48813SOL    HW252403   2.600   2.358   9.817 -0.6987 -0.5382  0.2328
48814SOL     OW52404   4.279   6.180   6.555 -0.0468 -0.4641  0.7047
48814SOL    HW152405   4.189   6.180   6.587 -0.8885 -3.2571 -1.2668
48814SOL    HW252406   4.331   6.154   6.631 -1.2788 -1.6341  1.1974
48815SOL     OW52407  11.234   5.169  12.235 -0.4366  0.0046  0.0299
48815SOL    HW152408  11.302   5.179  12.167 -1.8153 -1.1350 -1.5971
48815SOL    HW252409  11.272   5.108  12.298  0.1721 -0.4029 -0.7085
48816SOL     OW52410  12.226   3.845   5.026  0.3716 -0.2217 -0.3514
48816SOL    HW152411  12.274   3.826   4.945 -0.4628 -0.5818 -0.7797
48816SOL    HW252412  12.147   3.891   4.997  1.0364  1.5160  0.4487
48817SOL     OW52413   0.403   7.232   2.994  0.4519 -0.2189 -0.2205
48817SOL    HW152414   0.484   7.257   2.949 -0.1319  0.5538 -0.8796
48817SOL    HW252415   0.394   7.296   3.065  0.7741 -0.7329  0.2888
48818SOL     OW52416   5.431   3.274   6.886  0.3567  0.0143  0.3734
48818SOL    HW152417   5.381   3.216   6.828  0.8415 -1.0409  0.9998
48818SOL    HW252418   5.492   3.319   6.827 -0.9910  0.9886 -0.3323
48819SOL     OW52419   2.834   9.107   0.155  0.0295 -0.3051  0.4308
48819SOL    HW152420   2.862   9.106   0.064 -1.0878 -0.7116  0.0834
48819SOL    HW252421   2.897   9.164   0.199 -0.8209  1.9082 -1.0574
48820SOL     OW52422   3.037  11.935  10.691  0.7165 -0.0451  0.3869
48820SOL    HW152423   2.960  11.896  10.650  0.2386  1.9997 -0.8167
48820SOL    HW252424   3.105  11.869  10.684 -0.0765 -0.7228 -1.4322
48821SOL     OW52425  12.452   7.930   3.434 -0.0300  0.2527 -0.1066
48821SOL    HW152426  12.473   8.020   3.458  0.1563 -0.0762  1.0087
48821SOL    HW252427  12.518   7.876   3.479 -0.1623 -0.4413 -0.7199
48822SOL     OW52428   8.619   0.965   8.063 -0.1327  0.1595 -0.2108
48822SOL    HW152429   8.540   0.990   8.111 -0.6803 -1.9335  0.0746
48822SOL    HW252430   8.594   0.974   7.971 -0.0680  1.2659 -0.1396
48823SOL     OW52431   5.068   4.583   1.464 -0.1748  0.1265  0.2853
48823SOL    HW152432   5.045   4.673   1.437 -0.4376 -0.4181 -1.4750
48823SOL    HW252433   4.985   4.536   1.463  0.0167 -0.2252  0.8367
48824SOL     OW52434   0.058  12.318  11.168 -0.6106  0.3350 -0.3039
48824SOL    HW152435   0.067  12.276  11.253 -0.3451  2.8243  0.9870
48824SOL    HW252436  -0.034  12.307  11.145 -0.4116 -1.4473 -0.3250
48825SOL     OW52437   1.927   0.952   3.849 -0.1207  0.2278 -0.0262
48825SOL    HW152438   1.954   0.930   3.938  1.2165  0.5329 -0.3365
48825SOL    HW252439   2.009   0.969   3.803 -0.8702  1.4576 -0.9494
48826SOL     OW52440   0.261   9.207   9.416  0.2497  0.3120  0.1104
48826SOL    HW152441   0.254   9.235   9.507 -0.5958 -0.8544  0.4268
48826SOL    HW252442   0.296   9.117   9.421  0.9690  0.5256 -0.7630
48827SOL     OW52443  11.969  12.051   7.048  0.2259 -0.7601 -0.3678
48827SOL    HW152444  11.899  11.988   7.031 -0.2958 -0.0691 -0.8306
48827SOL    HW252445  11.949  12.087   7.134 -0.6681  0.2770 -0.9780
48828SOL     OW52446   9.482  11.570  10.797 -0.2809 -0.0716 -0.1011
48828SOL    HW152447   9.391  11.597  10.792 -1.3357 -3.0268  1.1290
48828SOL    HW252448   9.512  11.570  10.707 -2.5341 -2.0980 -0.9401
48829SOL     OW52449   1.432   5.243   2.352 -0.7014 -0.6912  0.0540
48829SOL    HW152450   1.487   5.165   2.358 -0.0142 -0.1993  0.3577
48829SOL    HW252451   1.469   5.292   2.278 -1.9535 -1.2701 -0.9843
48830SOL     OW52452   3.713   3.379   5.906 -0.0104  0.2756  0.0159
48830SOL    HW152453   3.792   3.324   5.909  0.9867  1.6962  1.2967
48830SOL    HW252454   3.707   3.407   5.814  1.1583  0.3872 -0.0410
48831SOL     OW52455   2.120   5.166   7.344 -0.1447  0.0676 -0.0591
48831SOL    HW152456   2.080   5.116   7.415 -0.9658  0.6439 -0.0984
48831SOL    HW252457   2.095   5.257   7.361 -1.4189  0.0867 -1.7256
48832SOL     OW52458   8.327   3.816   4.530  0.0022 -0.6425  0.4373
48832SOL    HW152459   8.304   3.909   4.526  1.1559 -0.2773  1.5305
48832SOL    HW252460   8.311   3.784   4.442  1.8197  1.1720 -0.6545
48833SOL     OW52461   4.008   3.973   0.713 -0.0864  0.0407 -0.4811
48833SOL    HW152462   3.989   4.018   0.630  1.2165  0.2371 -0.6963
48833SOL    HW252463   3.987   3.881   0.696 -0.4708  0.1823 -0.8032
48834SOL     OW52464   5.074   4.331   0.568 -0.3270 -0.0753 -0.3210
48834SOL    HW152465   4.987   4.369   0.562 -0.5328 -0.7647 -2.9587
48834SOL    HW252466   5.129   4.387   0.514  0.1825 -1.3258 -1.1523
48835SOL     OW52467   2.104   0.339   6.512 -0.3497 -0.1875 -0.3941
48835SOL    HW152468   2.148   0.297   6.439 -0.8700  1.0207 -1.4567
48835SOL    HW252469   2.095   0.271   6.578  0.1133 -1.3190 -1.4668
48836SOL     OW52470   9.100   2.882   3.602  0.1311 -0.5268  0.1283
48836SOL    HW152471   9.041   2.838   3.541  0.0765 -0.2888  0.0095
48836SOL    HW252472   9.184   2.886   3.556  0.0892 -0.3462  0.0705
48837SOL     OW52473  12.251   3.873   9.424 -0.3588  0.3390  0.0539
48837SOL    HW152474  12.322   3.867   9.360 -1.1756  2.6668 -1.1921
48837SOL    HW252475  12.294   3.901   9.505  0.3951 -0.3607 -0.0939
48838SOL     OW52476   1.483   0.713   2.194  0.2537 -0.3556 -0.3508
48838SOL    HW152477   1.439   0.771   2.256 -0.3907 -0.1263 -1.0104
48838SOL    HW252478   1.574   0.712   2.224  0.2491  0.8752 -0.2195
48839SOL     OW52479   5.057   9.237  11.735 -0.1911  0.4192  0.1561
48839SOL    HW152480   5.122   9.217  11.802 -0.9177  0.9138  1.0265
48839SOL    HW252481   5.101   9.299  11.677  0.7146 -0.6187 -0.3092
48840SOL     OW52482   8.597   9.995   7.793  0.1097  0.2046 -0.4066
48840SOL    HW152483   8.538   9.920   7.780  1.3143 -1.1310  1.2751
48840SOL    HW252484   8.540  10.066   7.822 -0.7319 -1.0301  1.1311
48841SOL     OW52485   2.629   6.727   8.062  0.5284 -1.0127  0.1517
48841SOL    HW152486   2.535   6.746   8.062  0.5710 -0.5914 -1.6227
48841SOL    HW252487   2.638   6.651   8.119 -0.9351 -1.2472  0.1174
48842SOL     OW52488   3.416   3.819   9.999 -0.4602 -0.0686 -0.1994
48842SOL    HW152489   3.390   3.911  10.005 -0.1663  0.1556 -1.9469
48842SOL    HW252490   3.468   3.813   9.919  0.0704 -1.6417  0.2203
48843SOL     OW52491   9.100   9.954   3.303  0.3863 -0.3742 -0.0584
48843SOL    HW152492   9.119  10.043   3.273 -0.4484  0.2527  1.1722
48843SOL    HW252493   9.067   9.966   3.392  3.1653 -2.1384  1.3578
48844SOL     OW52494   6.387   0.045   9.456  0.4501 -0.7694  0.3000
48844SOL    HW152495   6.305   0.093   9.470  0.5074 -0.0969 -1.4591
48844SOL    HW252496   6.377  -0.035   9.507 -1.8541 -1.3294 -0.9140
48845SOL     OW52497   2.490   2.036  10.477  0.0270  0.0982 -0.0882
48845SOL    HW152498   2.548   2.052  10.403 -0.4798 -1.4155 -0.8644
48845SOL    HW252499   2.405   2.072  10.450 -0.4588 -1.4486 -0.7870
48846SOL     OW52500  12.193   2.081   3.807  0.4295  0.3891  0.3179
48846SOL    HW152501  12.205   2.049   3.896 -0.9346 -0.6490  0.1627
48846SOL    HW252502  12.102   2.112   3.805 -0.2452 -1.5165 -1.2472
48847SOL     OW52503   6.847  11.584   4.779 -0.1582 -0.1221  0.2081
48847SOL    HW152504   6.811  11.495   4.789  1.0167 -0.7970 -1.2240
48847SOL    HW252505   6.815  11.612   4.693  1.4622 -0.1468 -0.4267
48848SOL     OW52506   8.032   3.687   4.423 -0.0134 -0.4260  0.0369
48848SOL    HW152507   8.102   3.709   4.362 -0.7080 -1.8030 -1.3184
48848SOL    HW252508   8.002   3.772   4.457  0.3246  0.4020 -1.6220
48849SOL     OW52509  10.209   5.478   4.022  0.0499 -0.0033 -0.1788
48849SOL    HW152510  10.163   5.517   3.948 -1.6220  0.1789  0.8792
48849SOL    HW252511  10.191   5.537   4.095  0.8556 -0.6600  0.5687
48850SOL     OW52512   0.167   4.402   8.676 -0.2277  0.6262  0.7966
48850SOL    HW152513   0.236   4.389   8.612 -0.5161  2.7614 -0.0501
48850SOL    HW252514   0.134   4.315   8.695  1.9510 -0.3482  0.4151
48851SOL     OW52515   3.971   4.913  11.692  0.1023  0.5075  0.0623
48851SOL    HW152516   4.007   4.935  11.606 -0.9892  1.7754 -0.1124
48851SOL    HW252517   3.882   4.949  11.689 -0.0072  0.4056  1.6583
48852SOL     OW52518   4.619   7.984  11.125 -0.5766  0.1509 -0.1890
48852SOL    HW152519   4.645   7.997  11.033 -1.3352 -1.2169 -0.6195
48852SOL    HW252520   4.563   7.907  11.123 -1.5178  0.7624  1.2817
48853SOL     OW52521   9.820   7.539   5.417 -0.3670 -0.5317 -0.1928
48853SOL    HW152522   9.897   7.483   5.402  0.3193  0.7370 -1.6215
48853SOL    HW252523   9.760   7.483   5.466  0.8075 -2.1011 -0.4454
48854SOL     OW52524   1.102   8.975  10.880  0.7096  0.1247 -0.2485
48854SOL    HW152525   1.059   9.007  10.960 -1.2469 -0.7991 -0.8836
48854SOL    HW252526   1.195   8.996  10.894  0.0836  2.4945  1.0477
48855SOL     OW52527   8.129   1.468   2.208  0.8249 -1.1628 -0.0677
48855SOL    HW152528   8.060   1.499   2.268 -2.3250 -2.5105 -2.6654
48855SOL    HW252529   8.145   1.543   2.151  0.0205 -1.4311 -0.6620
48856SOL     OW52530   3.222   8.649   7.403  0.5598 -0.1940 -0.9772
48856SOL    HW152531   3.315   8.627   7.397  0.6917  0.1288 -0.2089
48856SOL    HW252532   3.182   8.604   7.328  0.9967 -2.0830 -0.1409
48857SOL     OW52533   5.678   9.789   2.173  0.0727 -0.1232 -0.3325
48857SOL    HW152534   5.759   9.778   2.124  0.4384  0.8544  0.0111
48857SOL    HW252535   5.662   9.704   2.213  1.2215 -0.1908  0.0271
48858SOL     OW52536   2.482   3.463   3.922  0.3492 -0.1147  0.1665
48858SOL    HW152537   2.517   3.447   4.010 -0.9463 -2.9658  0.2492
48858SOL    HW252538   2.387   3.461   3.932  0.0316  3.2782 -0.7760
48859SOL     OW52539   6.416   1.665   2.698 -0.1989  0.4299  0.4047
48859SOL    HW152540   6.427   1.708   2.613  2.0039 -0.4067  0.1922
48859SOL    HW252541   6.357   1.723   2.746 -1.6693  0.8226 -1.7239
48860SOL     OW52542   5.887   8.554  10.842 -0.3551 -1.0036  0.1941
48860SOL    HW152543   5.960   8.492  10.834  0.0712 -0.6123  0.9717
48860SOL    HW252544   5.917   8.618  10.906 -0.0445  1.0533 -1.8535
48861SOL     OW52545   0.447   2.015  11.384  0.1056 -0.1315 -0.3575
48861SOL    HW152546   0.452   2.030  11.478  0.2337  1.1140 -0.5549
48861SOL    HW252547   0.354   2.018  11.364  0.0951 -0.1612 -0.3141
48862SOL     OW52548   3.127   8.606   5.298 -0.5344 -0.3848  0.5421
48862SOL    HW152549   3.065   8.584   5.229  1.1069 -0.0707 -1.1263
48862SOL    HW252550   3.116   8.536   5.363 -1.4414 -1.2686 -0.5071
48863SOL     OW52551   8.812   5.815  12.154  0.3419  0.1845  0.3356
48863SOL    HW152552   8.878   5.805  12.222 -0.9774  1.3424  1.8625
48863SOL    HW252553   8.793   5.909  12.153 -1.8016 -0.1862  0.4957
48864SOL     OW52554   3.605  11.864   4.677  1.0562  0.0447  0.1340
48864SOL    HW152555   3.656  11.870   4.758  0.4471 -0.9910  0.6117
48864SOL    HW252556   3.591  11.955   4.651  0.5793  0.4261  1.6246
48865SOL     OW52557   4.264   1.753   1.294  0.3641  0.2226 -0.4419
48865SOL    HW152558   4.204   1.826   1.283  0.5144  0.2287 -1.2423
48865SOL    HW252559   4.250   1.724   1.384 -1.1717 -0.0807 -0.7471
48866SOL     OW52560   9.183  12.433   0.267  0.1412 -0.0843  0.3658
48866SOL    HW152561   9.123  12.360   0.254 -1.4539  1.2877 -0.2959
48866SOL    HW252562   9.238  12.434   0.189  0.0636 -0.4678  0.3056
48867SOL     OW52563  11.732  12.373   7.376  0.4961  0.3593 -0.1730
48867SOL    HW152564  11.645  12.389   7.337 -0.7122 -2.6751  1.0095
48867SOL    HW252565  11.764  12.295   7.331  2.4798  1.1807 -0.2696
48868SOL     OW52566   8.339  11.302   3.913 -0.4678  0.2152 -0.4797
48868SOL    HW152567   8.383  11.337   3.990 -1.4964  1.7860 -0.5665
48868SOL    HW252568   8.387  11.337   3.839 -1.9272  2.1671 -0.5809
48869SOL     OW52569  11.055   3.898  11.167 -0.8050  0.1795  0.0398
48869SOL    HW152570  11.029   3.989  11.184  0.8554  0.8695 -0.8651
48869SOL    HW252571  11.062   3.893  11.072 -1.7226 -1.1697  0.0243
48870SOL     OW52572  11.673  10.546  11.279  0.1805 -0.6163  0.4229
48870SOL    HW152573  11.728  10.602  11.225  0.8334 -2.1495 -0.5681
48870SOL    HW252574  11.657  10.598  11.358  0.4422  1.0844 -0.5821
48871SOL     OW52575   0.033   7.063   2.625 -0.4583  0.5087 -0.0988
48871SOL    HW152576   0.021   7.048   2.719  3.3834 -1.0317  0.3321
48871SOL    HW252577  -0.018   6.993   2.583  0.9090 -1.2848  1.0827
48872SOL     OW52578   8.590   6.809   7.425 -0.0845 -0.1563  0.5450
48872SOL    HW152579   8.558   6.770   7.506 -1.0712  2.6370  1.6257
48872SOL    HW252580   8.512   6.822   7.371  0.1857  0.3830  0.2651
48873SOL     OW52581   3.211   8.309   6.253 -0.2773  0.4394  0.2156
48873SOL    HW152582   3.152   8.233   6.250 -1.3905  1.2309  1.1332
48873SOL    HW252583   3.160   8.380   6.214 -0.9282  1.7220  3.1164
48874SOL     OW52584   5.343   4.842   3.717 -0.2824 -0.3746 -0.1576
48874SOL    HW152585   5.390   4.899   3.777  0.6227 -1.8204  0.5735
48874SOL    HW252586   5.407   4.822   3.648  0.1861 -2.1675  0.7219
48875SOL     OW52587   4.813   9.020   9.942  0.4599 -0.0849  0.5423
48875SOL    HW152588   4.845   8.943   9.894  1.2745  1.1246 -0.9692
48875SOL    HW252589   4.891   9.075   9.952 -0.6964  2.1599 -1.6980
48876SOL     OW52590   2.194   3.532  10.604  0.4112 -0.6205  0.0898
48876SOL    HW152591   2.222   3.477  10.531  0.8200 -0.4282  0.1000
48876SOL    HW252592   2.267   3.593  10.617  1.3279 -2.0669  2.1215
48877SOL     OW52593   9.181   6.924   3.968  0.2893 -0.4968 -0.6003
48877SOL    HW152594   9.209   7.012   3.943  1.6435 -1.2270 -1.7591
48877SOL    HW252595   9.133   6.937   4.050  0.0238  1.3703 -1.0096
48878SOL     OW52596   6.642   8.002   3.608  0.1769 -0.6212  0.4871
48878SOL    HW152597   6.613   7.932   3.548 -4.1774  2.3652 -1.4672
48878SOL    HW252598   6.730   8.025   3.578 -0.0421 -2.3312 -1.7435
48879SOL     OW52599   6.181   0.103  12.285 -0.2798 -0.1522 -0.0199
48879SOL    HW152600   6.162   0.190  12.320 -0.2476 -0.1658  0.0315
48879SOL    HW252601   6.106   0.049  12.311 -0.0233 -0.2862  0.4636
48880SOL     OW52602   2.461   9.751   9.503  0.3738 -0.2476  0.5288
48880SOL    HW152603   2.402   9.724   9.573 -0.1652  2.4012  1.1924
48880SOL    HW252604   2.541   9.780   9.548  1.9986 -3.0587 -0.3111
48881SOL     OW52605  10.525   5.667   3.567  0.3775 -0.6602  0.1526
48881SOL    HW152606  10.480   5.623   3.639  0.9096  0.1293  0.9929
48881SOL    HW252607  10.497   5.620   3.489 -1.6570 -0.3968  0.6645
48882SOL     OW52608   0.330   1.849   6.526 -0.7834 -0.4319 -0.0649
48882SOL    HW152609   0.236   1.854   6.506 -0.7069 -0.9762 -0.6036
48882SOL    HW252610   0.358   1.767   6.486 -0.1984 -0.5742  0.6300
48883SOL     OW52611   6.993   7.853   9.658  0.5363 -0.1010  0.9884
48883SOL    HW152612   7.017   7.780   9.600 -0.3616 -0.3931  0.9706
48883SOL    HW252613   7.007   7.931   9.605 -0.1597 -0.3588  0.4044
48884SOL     OW52614   0.148   0.897   6.880 -0.1641  0.4799  0.3239
48884SOL    HW152615   0.128   0.803   6.887  1.3406  0.1298  0.3260
48884SOL    HW252616   0.063   0.938   6.865 -0.7647 -0.9734 -0.5478
48885SOL     OW52617   2.560  11.486   3.103 -0.0737 -0.3524 -0.2793
48885SOL    HW152618   2.648  11.454   3.084  0.0058  0.0725 -0.6527
48885SOL    HW252619   2.574  11.572   3.143 -0.3010 -0.5300  0.1924
48886SOL     OW52620   6.986   9.381   7.263  0.0322 -0.2125 -0.4715
48886SOL    HW152621   7.029   9.345   7.186  1.4993  0.8367 -0.2024
48886SOL    HW252622   7.042   9.454   7.289 -2.1433  1.5048 -0.3099
48887SOL     OW52623   9.332   8.544  11.137 -0.0849 -0.4055  0.1246
48887SOL    HW152624   9.307   8.635  11.119 -1.7438 -0.7146  0.7010
48887SOL    HW252625   9.352   8.507  11.051 -0.9214  0.0895 -0.2919
48888SOL     OW52626   7.453   9.535   7.798 -0.1032 -0.3937  0.1774
48888SOL    HW152627   7.474   9.610   7.742 -0.8794 -0.8180 -0.7244
48888SOL    HW252628   7.536   9.511   7.839  0.7030 -0.6580 -1.5307
48889SOL     OW52629  12.196   8.075   4.740 -0.1386 -0.1700  0.6486
48889SOL    HW152630  12.105   8.098   4.762  0.1329  1.8146 -0.0673
48889SOL    HW252631  12.245   8.095   4.820 -0.2806 -1.0244  0.9599
48890SOL     OW52632   8.942   2.195  12.346  0.3927 -0.8555 -0.3350
48890SOL    HW152633   8.884   2.167  12.416  0.7076 -0.2815  0.1580
48890SOL    HW252634   9.030   2.169  12.376  0.8435  1.4870  0.6178
48891SOL     OW52635   1.543   7.273   4.103 -0.1200  0.2612 -0.6507
48891SOL    HW152636   1.619   7.294   4.157 -0.1084  2.3233 -1.4060
48891SOL    HW252637   1.481   7.344   4.119 -2.1634 -1.5925  0.3068
48892SOL     OW52638   4.392   3.857  11.330 -1.1162  0.6894  0.1754
48892SOL    HW152639   4.447   3.865  11.409  0.1387  1.0421 -0.6992
48892SOL    HW252640   4.411   3.769  11.296 -3.3962 -0.3973  1.4657
48893SOL     OW52641   4.960   9.611   6.083 -0.0151 -0.3477 -0.5974
48893SOL    HW152642   4.999   9.679   6.027 -0.5414 -2.7093 -4.1223
48893SOL    HW252643   4.866   9.624   6.075 -0.2107  1.4828  2.8828
48894SOL     OW52644   8.154   2.726   8.693  0.2328 -0.3025 -0.2132
48894SOL    HW152645   8.063   2.697   8.691 -0.1397  0.8301 -0.4849
48894SOL    HW252646   8.185   2.713   8.603  0.3376 -0.6717 -0.1249
48895SOL     OW52647   2.657   5.275   7.939 -0.6282  0.5469  0.0409
48895SOL    HW152648   2.750   5.259   7.957 -0.1788  0.7728 -1.8498
48895SOL    HW252649   2.612   5.247   8.018  0.7538 -2.6577 -0.1786
48896SOL     OW52650   1.081   2.403   3.883 -0.0886  0.0369 -0.3842
48896SOL    HW152651   1.032   2.347   3.943 -0.2651 -0.3972 -0.9301
48896SOL    HW252652   1.163   2.356   3.868  0.0644  0.2704 -0.2728
48897SOL     OW52653   9.466  11.187   1.468 -0.0575  0.3760  0.2602
48897SOL    HW152654   9.562  11.192   1.467  0.0511 -1.1591 -0.6693
48897SOL    HW252655   9.447  11.093   1.463 -1.6204  0.6670  0.2003
48898SOL     OW52656   2.218   2.560   6.413 -0.1454 -0.6320 -0.2806
48898SOL    HW152657   2.251   2.649   6.398 -0.5023 -0.5078 -0.3275
48898SOL    HW252658   2.275   2.525   6.482 -0.4144 -0.1343  0.2070
48899SOL     OW52659   7.946   2.027   4.338  0.7326 -0.1259  0.2724
48899SOL    HW152660   7.951   1.958   4.272  0.9589 -0.2889  0.4555
48899SOL    HW252661   7.892   1.989   4.408 -4.9097  2.1210 -2.2938
48900SOL     OW52662  10.270   6.440  10.628  0.2215  0.0170 -0.1650
48900SOL    HW152663  10.291   6.413  10.718  1.6051 -1.3846 -0.8627
48900SOL    HW252664  10.224   6.524  10.638 -1.2748 -0.9670  1.9365
48901SOL     OW52665  10.177   2.419   7.800  0.1386  0.1806  0.1066
48901SOL    HW152666  10.197   2.418   7.894  1.6474 -2.5435 -0.1381
48901SOL    HW252667  10.254   2.458   7.759  0.5055 -0.7583 -0.1258
48902SOL     OW52668   1.066   5.468   1.932  0.2806 -0.6304 -0.6735
48902SOL    HW152669   1.111   5.467   1.847  0.3246 -2.4535 -0.6810
48902SOL    HW252670   0.977   5.497   1.911  0.3864 -0.7272 -1.2956
48903SOL     OW52671   4.692   9.572   2.014 -0.0767 -0.0122 -0.0063
48903SOL    HW152672   4.752   9.558   2.087 -0.1145 -0.9195 -0.1394
48903SOL    HW252673   4.698   9.492   1.962 -1.5119 -0.1860  0.0636
48904SOL     OW52674   1.918  12.307   3.956 -0.0094 -0.3101 -0.4440
48904SOL    HW152675   1.854  12.302   4.026  0.1733  1.2129 -0.1301
48904SOL    HW252676   1.953  12.218   3.948 -0.2125 -0.5603  1.2134
48905SOL     OW52677  12.439   1.644   4.614 -0.1939  0.1670 -0.0065
48905SOL    HW152678  12.503   1.710   4.641 -0.9791  0.6953  0.6291
48905SOL    HW252679  12.438   1.649   4.518 -0.3344  1.1964  0.0304
48906SOL     OW52680   6.858   8.325   8.758  0.5063  0.3561  0.0734
48906SOL    HW152681   6.810   8.406   8.745  0.7863  0.6627  0.9186
48906SOL    HW252682   6.878   8.294   8.669 -0.1706  0.8603 -0.2584
48907SOL     OW52683   3.616  10.050   3.040 -0.4864 -0.6248  0.0062
48907SOL    HW152684   3.584   9.976   2.988  0.0676 -0.1122 -1.0826
48907SOL    HW252685   3.623  10.122   2.978  1.4030 -0.3330  0.5063
48908SOL     OW52686   1.363  12.457   9.148 -0.0806  0.6247 -0.0148
48908SOL    HW152687   1.441  12.450   9.093  0.1731 -0.7810  0.4786
48908SOL    HW252688   1.313  12.529   9.110  0.4567  0.1871 -1.6328
48909SOL     OW52689   9.310   7.166   7.006 -0.2144  0.0495 -0.4596
48909SOL    HW152690   9.400   7.175   6.973  0.7303  2.2019  2.3505
48909SOL    HW252691   9.320   7.137   7.097 -2.2135  2.0754  0.5111
48910SOL     OW52692  10.759   3.447   7.376 -0.6104  0.4023 -0.0488
48910SOL    HW152693  10.775   3.499   7.454  0.5017 -1.0444  0.7499
48910SOL    HW252694  10.707   3.372   7.406 -0.4089 -0.0322 -0.7402
48911SOL     OW52695   5.775   3.346   9.928  0.1951  0.1540  0.2481
48911SOL    HW152696   5.809   3.331   9.839 -1.6531  0.3154 -0.5446
48911SOL    HW252697   5.719   3.423   9.919 -0.4839 -0.1769  1.4218
48912SOL     OW52698   6.286   3.333   4.046 -0.2470  0.5276 -0.8611
48912SOL    HW152699   6.371   3.334   4.091  0.4625  0.6832 -2.1602
48912SOL    HW252700   6.261   3.241   4.044 -0.1677  0.4918 -0.3815
48913SOL     OW52701   7.907   1.784   1.336 -0.2364  0.2946 -0.7578
48913SOL    HW152702   7.883   1.692   1.347  0.7036  0.2407  1.3292
48913SOL    HW252703   7.830   1.832   1.365 -0.4227  0.1738 -1.0426
48914SOL     OW52704   3.035   5.386   9.423 -0.0064 -0.4474  0.2497
48914SOL    HW152705   2.979   5.355   9.352 -0.1520 -0.6763  0.4608
48914SOL    HW252706   3.047   5.310   9.479  0.5658 -0.4099  0.1798
48915SOL     OW52707   8.376   8.088   4.451 -0.5337 -0.3210  0.3943
48915SOL    HW152708   8.425   8.037   4.516  0.8922 -0.4900 -0.7706
48915SOL    HW252709   8.442   8.138   4.405 -1.6657  0.7785 -0.1049
48916SOL     OW52710   4.285   9.843   4.570 -0.0023  0.2927  0.1539
48916SOL    HW152711   4.239   9.871   4.491 -1.0109 -1.4299  0.0819
48916SOL    HW252712   4.252   9.901   4.639 -2.0000 -0.5871  0.0148
48917SOL     OW52713  11.359   5.256   8.012  0.0762 -0.0253 -0.4733
48917SOL    HW152714  11.324   5.248   8.101 -1.6443 -2.3688 -1.2670
48917SOL    HW252715  11.347   5.169   7.973  2.5530  0.3786 -2.4142
48918SOL     OW52716   6.963   8.592  10.961  0.0874 -0.2926 -0.1997
48918SOL    HW152717   7.021   8.555  10.893  0.4521  1.9669 -1.2110
48918SOL    HW252718   7.023   8.623  11.029 -0.1432 -0.7049  0.1914
48919SOL     OW52719   5.254  12.383   7.661  0.0454 -0.2488 -0.4707
48919SOL    HW152720   5.290  12.371   7.573  0.0913 -1.0548 -0.3456
48919SOL    HW252721   5.324  12.427   7.709  0.0845  0.0433 -0.7848
48920SOL     OW52722   3.487   1.180   9.903 -0.1018 -0.3251 -0.0919
48920SOL    HW152723   3.468   1.089   9.927 -0.6067  0.0535  0.9777
48920SOL    HW252724   3.541   1.213   9.975 -0.9109  0.5768  0.1124
48921SOL     OW52725   8.805   4.778   7.560  0.2294 -0.2602  0.3673
48921SOL    HW152726   8.857   4.700   7.580  0.2000 -0.5678 -0.6600
48921SOL    HW252727   8.717   4.758   7.590  0.3822 -0.3386  0.7584
48922SOL     OW52728   7.792   4.744   6.001 -0.1555 -0.3871 -0.1249
48922SOL    HW152729   7.792   4.782   5.913  2.1500  0.1441  0.0361
48922SOL    HW252730   7.882   4.755   6.032 -0.8758 -0.6608  2.2761
48923SOL     OW52731   8.315   9.213   6.082  0.1053  0.1491 -0.0931
48923SOL    HW152732   8.355   9.299   6.094  0.4624  0.2652 -1.8468
48923SOL    HW252733   8.383   9.161   6.037 -0.2612 -0.9217  0.5485
48924SOL     OW52734   7.467   1.161  10.558  0.5825  0.5504 -0.2046
48924SOL    HW152735   7.488   1.246  10.597 -0.3700  1.1180 -0.8830
48924SOL    HW252736   7.513   1.160  10.475  0.3052  0.5584 -0.3599
48925SOL     OW52737   0.506   5.754   4.648 -0.2768  0.1004 -0.6295
48925SOL    HW152738   0.563   5.773   4.723 -0.1825  2.2784 -1.1855
48925SOL    HW252739   0.554   5.788   4.573 -1.7762  0.8639 -1.2653
48926SOL     OW52740   1.849   7.646   2.565  0.0013 -0.0747  0.1655
48926SOL    HW152741   1.891   7.629   2.480 -1.4356 -1.1549 -0.3839
48926SOL    HW252742   1.817   7.560   2.593 -1.2525  0.5840  0.8430
48927SOL     OW52743   1.152   4.193   7.975  0.3578  0.0582 -0.0283
48927SOL    HW152744   1.231   4.208   7.924  0.6726 -0.4646  0.2919
48927SOL    HW252745   1.088   4.159   7.912  0.6087 -0.1783 -0.1564
48928SOL     OW52746   4.879  11.412   5.096 -0.4892 -0.3113  0.2332
48928SOL    HW152747   4.929  11.493   5.105 -1.8571  0.6865 -0.6639
48928SOL    HW252748   4.879  11.394   5.002 -0.0696 -1.4436  0.4433
48929SOL     OW52749   1.767   9.911  12.041 -0.3248  0.1556 -0.2851
48929SOL    HW152750   1.757   9.816  12.047 -0.4473  0.0630 -1.5928
48929SOL    HW252751   1.840   9.931  12.099 -0.2739 -0.7471 -0.0215
48930SOL     OW52752   2.722   0.014  10.063 -0.3373 -0.5251  0.1396
48930SOL    HW152753   2.673   0.045   9.987  0.9888 -0.2710 -0.6627
48930SOL    HW252754   2.731  -0.081  10.049 -1.5062 -0.7535  0.8503
48931SOL     OW52755   4.669   5.228   8.866  0.2077  0.0817  0.3822
48931SOL    HW152756   4.585   5.237   8.823  1.3449 -0.2410 -2.0800
48931SOL    HW252757   4.679   5.308   8.918 -1.4632  0.2327  0.5094
48932SOL     OW52758   8.158   5.575  10.555  0.2753  0.0581  0.0172
48932SOL    HW152759   8.119   5.491  10.580 -1.5288  1.4224  2.2354
48932SOL    HW252760   8.252   5.561  10.563 -0.0378 -1.1493  2.8286
48933SOL     OW52761   7.892   4.827   6.999  0.1385 -0.7425 -0.2582
48933SOL    HW152762   7.936   4.850   6.918  1.0444  0.3309  0.5186
48933SOL    HW252763   7.800   4.849   6.984 -0.0680 -2.3256 -1.6312
48934SOL     OW52764   7.185   9.542  11.705 -0.2026 -0.2629 -0.1033
48934SOL    HW152765   7.143   9.457  11.723 -2.6759  0.8663 -0.1523
48934SOL    HW252766   7.112   9.602  11.692  1.4960  1.7865 -0.6393
48935SOL     OW52767   2.048  11.238  10.921  0.5654 -0.2445 -0.0914
48935SOL    HW152768   1.963  11.222  10.963 -0.0702 -1.3425 -1.6879
48935SOL    HW252769   2.099  11.285  10.987 -1.4205  0.8258  0.7581
48936SOL     OW52770   9.203   3.374   5.911 -0.0081  0.1341 -0.2910
48936SOL    HW152771   9.184   3.390   5.818  1.3739 -1.7966 -0.9711
48936SOL    HW252772   9.238   3.457   5.943  0.2560  0.5997 -1.7147
48937SOL     OW52773   2.637   6.301   9.224  0.5386  0.1973  0.7198
48937SOL    HW152774   2.589   6.349   9.157  0.1622  0.9697  1.5128
48937SOL    HW252775   2.705   6.362   9.254 -0.7996  0.8289  2.7005
48938SOL     OW52776   9.523   7.740   1.735  0.0925  0.7534  0.0205
48938SOL    HW152777   9.449   7.794   1.709  1.2235  2.5897  0.4378
48938SOL    HW252778   9.532   7.675   1.665 -0.2782  2.1726 -1.3822
48939SOL     OW52779   5.207   2.132   1.366 -0.3284 -0.5923 -0.1664
48939SOL    HW152780   5.233   2.143   1.457  1.5589 -0.2443 -0.7138
48939SOL    HW252781   5.127   2.080   1.370  1.1664 -2.9347  1.5566
48940SOL     OW52782   2.695   3.589   8.763 -0.1753  0.2739 -0.0673
48940SOL    HW152783   2.724   3.679   8.751  2.3068 -0.7587 -2.7452
48940SOL    HW252784   2.775   3.539   8.775 -1.4521 -1.7234  0.6369
48941SOL     OW52785   6.468   5.841   0.857 -0.6176 -0.4174 -0.1900
48941SOL    HW152786   6.535   5.817   0.921 -1.2097 -0.4816  0.4262
48941SOL    HW252787   6.515   5.890   0.790 -0.0191 -0.1261  0.4252
48942SOL     OW52788  10.222   8.612   2.542  0.2694 -0.1995  0.4206
48942SOL    HW152789  10.299   8.618   2.599  0.0947 -0.0448  0.6411
48942SOL    HW252790  10.258   8.600   2.454  0.6858  3.5657 -0.0671
48943SOL     OW52791  12.485  11.308   0.441  0.4563  0.1625  0.3588
48943SOL    HW152792  12.499  11.322   0.348  2.2386 -0.0760  0.5505
48943SOL    HW252793  12.395  11.276   0.448 -0.2435  1.6669 -1.1012
48944SOL     OW52794   9.606   6.858   5.571 -0.0328 -0.4551 -0.0958
48944SOL    HW152795   9.520   6.899   5.578 -1.0541 -2.5110  0.1650
48944SOL    HW252796   9.664   6.928   5.543 -1.5340  1.2775  0.9478
48945SOL     OW52797   7.511   3.071   9.433 -0.1071  0.1173  0.0945
48945SOL    HW152798   7.491   3.163   9.452 -2.6897 -0.4261  0.2407
48945SOL    HW252799   7.569   3.044   9.504 -0.8502  1.1132  1.1139
48946SOL     OW52800   4.530   3.060   8.789 -0.1993 -0.4673  0.4514
48946SOL    HW152801   4.435   3.067   8.784 -0.2888 -1.5792  0.3255
48946SOL    HW252802   4.549   2.973   8.756  0.7368 -0.8735  1.9587
48947SOL     OW52803   6.269   6.050  10.233 -0.7117  0.0105 -0.3243
48947SOL    HW152804   6.286   6.042  10.139 -0.3736  0.0915 -0.2709
48947SOL    HW252805   6.204   5.982  10.252 -0.6857 -0.0897 -0.5894
48948SOL     OW52806   1.670   6.904   8.591 -1.1979  0.0649 -0.4572
48948SOL    HW152807   1.609   6.834   8.565 -0.4322 -0.5117 -0.7808
48948SOL    HW252808   1.708   6.873   8.673 -1.5512  0.5632 -0.1017
48949SOL     OW52809   4.861   6.489   9.415  0.3601 -0.5785  0.5395
48949SOL    HW152810   4.796   6.446   9.470 -0.9344  0.2021 -0.3298
48949SOL    HW252811   4.937   6.431   9.418 -0.2311 -1.3397  1.8606
48950SOL     OW52812   5.728   1.010   7.992 -0.2155 -0.2518  0.2943
48950SOL    HW152813   5.701   0.920   7.973 -0.2853 -0.4761  1.3648
48950SOL    HW252814   5.792   1.001   8.063  0.2800  0.5022 -0.0402
48951SOL     OW52815   5.255   6.954  10.560 -0.2095  0.4017 -0.0915
48951SOL    HW152816   5.291   6.908  10.484 -0.0743  2.0267 -1.0441
48951SOL    HW252817   5.294   7.041  10.556 -0.7587  0.7474  1.4523
48952SOL     OW52818   3.906   9.743   1.206 -0.5025  0.4385 -0.1659
48952SOL    HW152819   3.957   9.787   1.274  0.5018  0.6388 -1.0094
48952SOL    HW252820   3.920   9.650   1.222 -0.0274  0.4904 -0.2572
48953SOL     OW52821   6.426   2.387   8.371 -0.3148  0.0944  0.1841
48953SOL    HW152822   6.358   2.384   8.438 -0.9380 -1.7756 -0.4766
48953SOL    HW252823   6.379   2.403   8.290  0.3556  1.5631  0.0574
48954SOL     OW52824  12.321   7.780   8.553 -0.6343  0.1567  0.3473
48954SOL    HW152825  12.397   7.832   8.578 -0.7112  0.3434  0.1911
48954SOL    HW252826  12.319   7.709   8.618 -0.5430  0.3590  0.5755
48955SOL     OW52827   9.787   3.088   6.250 -0.0165 -1.0754  0.7292
48955SOL    HW152828   9.778   3.183   6.245 -0.3539 -1.1679 -1.0945
48955SOL    HW252829   9.703   3.057   6.285 -0.8421 -0.8398 -0.9707
48956SOL     OW52830   8.215   4.652   9.256 -0.3931  0.0534 -0.1323
48956SOL    HW152831   8.183   4.680   9.170  0.1771  0.2537 -0.2829
48956SOL    HW252832   8.286   4.591   9.237  0.0096  0.4120  0.1907
48957SOL     OW52833  11.565   8.633   5.653  0.0220  0.6403  0.3972
48957SOL    HW152834  11.472   8.627   5.674  0.3811  0.2690  1.9820
48957SOL    HW252835  11.571   8.709   5.596 -1.2270  0.7956  0.4341
48958SOL     OW52836   0.860   8.495   0.978 -0.6755 -0.5373 -0.1103
48958SOL    HW152837   0.922   8.453   1.038  0.3662 -0.9232 -1.4199
48958SOL    HW252838   0.795   8.428   0.959  0.0117 -1.0062 -0.8315
48959SOL     OW52839  11.824   1.124   4.367 -0.3947  0.1023  0.1391
48959SOL    HW152840  11.832   1.210   4.327  1.4889  0.3624  0.9680
48959SOL    HW252841  11.832   1.139   4.461 -2.6067 -0.7376  0.5385
48960SOL     OW52842   0.586   3.732  12.176  0.2339 -0.3498 -0.3784
48960SOL    HW152843   0.644   3.795  12.220  0.2206  0.4620 -1.4853
48960SOL    HW252844   0.522   3.708  12.243  0.0835  1.0231  0.0128
48961SOL     OW52845   9.334   5.401   6.661  0.6159  0.1324  0.0587
48961SOL    HW152846   9.270   5.350   6.711 -0.0374  0.1974 -0.6976
48961SOL    HW252847   9.282   5.469   6.618  1.1072 -0.1401 -0.9865
48962SOL     OW52848   8.102  11.475   5.059  0.3785  0.5379  0.1183
48962SOL    HW152849   8.140  11.518   5.135  0.6448 -1.8212  1.4311
48962SOL    HW252850   8.132  11.384   5.065 -1.8264 -0.3738 -1.2956
48963SOL     OW52851   1.984  12.268   9.790 -0.2095 -0.2105  0.4013
48963SOL    HW152852   1.928  12.278   9.713 -0.6598 -0.2196  0.7239
48963SOL    HW252853   2.044  12.342   9.786 -0.1317 -0.2972 -0.0391
48964SOL     OW52854   3.315   1.613   6.904  0.0786  0.0764 -0.4302
48964SOL    HW152855   3.244   1.645   6.959 -0.4688 -1.5286 -0.1536
48964SOL    HW252856   3.390   1.669   6.926 -0.6308  0.6526  0.5823
48965SOL     OW52857   0.539   2.849   0.158 -0.4772  0.4519  0.2680
48965SOL    HW152858   0.635   2.856   0.159 -0.5022  1.1157  2.2006
48965SOL    HW252859   0.511   2.914   0.093  0.4207 -1.3570 -2.0579
48966SOL     OW52860   7.111  11.242   7.449  0.0996  0.1307  0.5497
48966SOL    HW152861   7.177  11.280   7.390 -0.2104  0.6071  0.5016
48966SOL    HW252862   7.143  11.155   7.468  0.4111  0.1170 -0.0116
48967SOL     OW52863   0.234   5.755  11.811 -0.3698  0.1257  0.4289
48967SOL    HW152864   0.256   5.668  11.777  0.0308  0.6879 -0.8366
48967SOL    HW252865   0.312   5.783  11.860 -0.0918  0.1838 -0.0418
48968SOL     OW52866   2.035   9.824   6.017  0.4137 -0.0155  1.2074
48968SOL    HW152867   2.027   9.749   5.959 -2.1452  0.6478  0.5878
48968SOL    HW252868   2.122   9.859   5.998  0.6042 -1.2568 -0.4251
48969SOL     OW52869   7.760  10.088   0.786 -0.0869 -0.2825 -0.4081
48969SOL    HW152870   7.796  10.071   0.873 -0.4034  0.8745 -0.0342
48969SOL    HW252871   7.682  10.032   0.781 -1.3793  1.3092  0.9722
48970SOL     OW52872   1.158   4.868   3.084  0.0341  0.3493  0.1226
48970SOL    HW152873   1.171   4.883   3.177  0.6929 -0.5093  0.1827
48970SOL    HW252874   1.128   4.952   3.049  0.4630  0.8588  0.9757
48971SOL     OW52875   3.547  10.490  11.485 -0.1153  0.0603 -0.0033
48971SOL    HW152876   3.536  10.580  11.452  0.9311  0.7008  1.3015
48971SOL    HW252877   3.602  10.447  11.420  0.8813  0.9281  0.2383
48972SOL     OW52878   6.330   1.889   0.060 -0.4979  0.0297 -0.5496
48972SOL    HW152879   6.263   1.847   0.005 -1.2269 -0.0652  0.3892
48972SOL    HW252880   6.350   1.824   0.127 -0.0071  0.3503 -0.3818
48973SOL     OW52881   9.077   1.818   2.045 -0.5041 -0.1473 -0.5086
48973SOL    HW152882   9.075   1.725   2.024 -0.1532 -0.1847 -0.3910
48973SOL    HW252883   9.052   1.862   1.964 -1.6468 -0.3757 -0.2974
48974SOL     OW52884   5.601   4.410   9.996  0.7328 -0.4027  0.1160
48974SOL    HW152885   5.670   4.378   9.937  1.7980 -0.3775  1.3205
48974SOL    HW252886   5.568   4.331  10.039 -2.1740 -0.8940 -2.5721
48975SOL     OW52887   2.657  11.315   2.491  0.5504 -0.4231  0.0562
48975SOL    HW152888   2.635  11.328   2.399 -0.8795  0.2664  0.4695
48975SOL    HW252889   2.737  11.262   2.489  2.2924  2.0229 -1.6227
48976SOL     OW52890  12.135   3.413   8.638  0.1791 -0.2310 -0.4098
48976SOL    HW152891  12.170   3.502   8.644  1.3962 -0.6920 -0.5096
48976SOL    HW252892  12.176   3.376   8.560  0.7517 -1.3322  0.3898
48977SOL     OW52893  11.989  12.358   3.932 -0.1763  0.3055  0.7726
48977SOL    HW152894  11.943  12.434   3.968 -1.3851 -0.1291  0.2008
48977SOL    HW252895  11.942  12.338   3.851 -0.0079 -1.1820  1.0267
48978SOL     OW52896   8.205   4.872   1.214  0.3463 -0.1100 -0.3503
48978SOL    HW152897   8.173   4.813   1.281  1.0823  0.5343  0.5975
48978SOL    HW252898   8.128   4.891   1.160 -0.2487 -0.6675  0.2818
48979SOL     OW52899   1.541   2.563   2.216  0.2433  0.2230 -0.1617
48979SOL    HW152900   1.483   2.545   2.142  0.8981  1.3810 -0.9989
48979SOL    HW252901   1.510   2.646   2.251  0.7954  0.3777 -0.0289
48980SOL     OW52902   0.080   3.039   4.312 -0.4316  0.3640  0.6492
48980SOL    HW152903   0.015   3.106   4.329  0.0218  0.6724  1.1918
48980SOL    HW252904   0.048   2.994   4.233 -2.5378 -1.0471  2.2070
48981SOL     OW52905  12.176   0.746  11.879  0.5182  0.3589 -0.4339
48981SOL    HW152906  12.112   0.682  11.909  0.3150 -0.3166 -2.2257
48981SOL    HW252907  12.133   0.831  11.892  0.4361  0.1045  1.1027
48982SOL     OW52908   6.937   3.398   1.279  0.1191  0.1761  0.2837
48982SOL    HW152909   7.015   3.447   1.304  0.4374  0.7742 -1.7213
48982SOL    HW252910   6.969   3.332   1.218 -0.6836 -0.8860  0.9771
48983SOL     OW52911  12.200   2.704   2.016  0.1013  0.0704 -0.0262
48983SOL    HW152912  12.111   2.715   1.982  0.1858 -0.7117 -0.5233
48983SOL    HW252913  12.200   2.616   2.054  1.2875 -0.8684 -2.0603
48984SOL     OW52914   9.850   4.578   0.647  0.4691  0.0432  0.5199
48984SOL    HW152915   9.884   4.488   0.646 -1.3080 -0.7088  1.7511
48984SOL    HW252916   9.759   4.570   0.621 -0.1574  1.2434  2.1225
48985SOL     OW52917  11.306   5.421   1.446  0.1795  0.1480  0.5617
48985SOL    HW152918  11.383   5.377   1.483  0.6041  0.4532  0.0621
48985SOL    HW252919  11.309   5.399   1.353 -0.3605  0.1355  0.5475
48986SOL     OW52920   9.037  10.491   2.296 -0.1089  0.1091  0.4086
48986SOL    HW152921   9.050  10.579   2.331  0.7222  0.0350  0.3197
48986SOL    HW252922   8.986  10.445   2.363 -0.2330  0.5536  0.6190
48987SOL     OW52923   0.312   9.944   2.357  0.5103 -0.5309  0.2045
48987SOL    HW152924   0.246   9.951   2.288  1.1783 -0.6781 -0.4761
48987SOL    HW252925   0.354  10.030   2.359  0.4799 -0.5212  0.4431
48988SOL     OW52926   2.585  10.022   2.450  0.4933 -0.0773 -0.1651
48988SOL    HW152927   2.530  10.035   2.373  0.3988  0.7740  0.0368
48988SOL    HW252928   2.525  10.027   2.524  0.7994  0.6373  0.0451
48989SOL     OW52929   8.368   3.752   8.337  0.1775 -0.0001  0.1487
48989SOL    HW152930   8.433   3.757   8.408 -0.1214  0.1745  0.4098
48989SOL    HW252931   8.417   3.777   8.259  0.2509  0.8485  0.4529
48990SOL     OW52932   6.597   8.349  11.548 -1.0377  0.2217 -0.8621
48990SOL    HW152933   6.659   8.343  11.475 -0.0910  1.4434 -0.1959
48990SOL    HW252934   6.651   8.372  11.623 -2.1383 -0.0038  0.0180
48991SOL     OW52935  10.007   3.624  10.130  0.7167 -0.3034  0.3747
48991SOL    HW152936  10.021   3.531  10.116 -1.1852 -0.4513 -0.9191
48991SOL    HW252937  10.083   3.653  10.181  1.2266 -2.5830  0.9921
48992SOL     OW52938  11.070   5.530   5.937 -0.2876 -0.1260 -0.4352
48992SOL    HW152939  11.106   5.475   6.008 -0.3470  0.3265 -0.0516
48992SOL    HW252940  11.147   5.567   5.894 -0.2412 -0.6072 -0.7850
48993SOL     OW52941   3.558   9.347   1.684  0.5659 -0.2501  0.0916
48993SOL    HW152942   3.582   9.326   1.774  1.2706 -1.2463 -0.3141
48993SOL    HW252943   3.470   9.312   1.673  1.1286 -1.6817 -0.1023
48994SOL     OW52944  10.614   1.074   2.084  0.1175  0.0230 -0.0897
48994SOL    HW152945  10.588   1.121   2.004 -1.8206 -2.7228 -1.2315
48994SOL    HW252946  10.542   1.090   2.145  0.9858  1.0661  0.6976
48995SOL     OW52947  10.251   5.603   3.558 -0.3191 -0.1170 -0.3152
48995SOL    HW152948  10.193   5.616   3.633  1.8622 -0.1265  1.4899
48995SOL    HW252949  10.268   5.691   3.525  1.9146  0.3760  1.8726
48996SOL     OW52950   4.437   8.006  11.819  0.3334 -0.4859  0.1573
48996SOL    HW152951   4.390   7.978  11.898 -0.2793 -1.2229 -0.4542
48996SOL    HW252952   4.516   8.048  11.852 -0.1492 -0.3427  1.1833
48997SOL     OW52953   7.278   8.853   1.974 -0.0476  0.0746  0.4138
48997SOL    HW152954   7.226   8.877   1.897 -1.3178 -0.5349  1.0542
48997SOL    HW252955   7.234   8.896   2.047  1.3777  0.9692  0.7801
48998SOL     OW52956  12.047   0.281   2.172 -0.3618 -0.1815 -0.0060
48998SOL    HW152957  11.988   0.213   2.138  1.3633 -0.2281 -3.2476
48998SOL    HW252958  12.017   0.362   2.131  0.6759  0.1226 -0.1963
48999SOL     OW52959   9.822   9.719   8.127  0.2391  0.2543  0.0371
48999SOL    HW152960   9.892   9.680   8.180  0.8086  1.0999 -0.0730
48999SOL    HW252961   9.825   9.671   8.045  0.2705 -0.1323  0.2596
49000SOL     OW52962   3.399   9.239   0.392 -0.3214 -0.0258  0.4096
49000SOL    HW152963   3.310   9.255   0.360  0.0959  0.0026 -0.7625
49000SOL    HW252964   3.428   9.324   0.426 -0.4079  0.1959 -0.0604
49001SOL     OW52965   2.120  12.185   0.295  0.0572 -0.1398  0.1039
49001SOL    HW152966   2.200  12.196   0.347 -0.1486  0.7863  0.2386
49001SOL    HW252967   2.113  12.266   0.245 -1.0079 -0.0440  0.3939
49002SOL     OW52968   4.299  10.530   4.507  0.5093 -0.1839 -0.3200
49002SOL    HW152969   4.246  10.605   4.478  0.0419 -0.8519 -1.2711
49002SOL    HW252970   4.385  10.567   4.526  0.1612  0.6653 -0.3393
49003SOL     OW52971   8.128   1.439   9.547 -0.1642 -0.6289 -0.0358
49003SOL    HW152972   8.184   1.425   9.471  0.2461 -0.0055  0.1440
49003SOL    HW252973   8.187   1.470   9.616 -0.3782 -2.0226  0.8295
49004SOL     OW52974   3.923  11.115   5.230 -0.0683 -0.2456  0.1940
49004SOL    HW152975   3.847  11.173   5.226 -0.4789 -0.7965 -0.1890
49004SOL    HW252976   3.996  11.168   5.199 -0.2841  0.2988  0.5935
49005SOL     OW52977   6.365   3.364   1.491  0.4218 -0.1084 -0.6735
49005SOL    HW152978   6.311   3.288   1.473  2.2426 -1.3777 -1.0328
49005SOL    HW252979   6.362   3.374   1.586  1.7993 -1.9657 -0.3758
49006SOL     OW52980   4.341   6.128  11.209  0.6963  0.0831  0.1304
49006SOL    HW152981   4.409   6.182  11.168  1.8214 -2.7545 -2.0770
49006SOL    HW252982   4.384   6.092  11.287  0.6151  0.7085  0.4770
49007SOL     OW52983   2.653   5.466   8.464 -0.1463  0.1048 -0.1149
49007SOL    HW152984   2.661   5.545   8.410  1.2343  1.5177  2.0286
49007SOL    HW252985   2.743   5.446   8.490 -0.7992 -0.2290  2.0395
49008SOL     OW52986  10.247  10.428   6.598 -0.1425  1.2986 -0.2650
49008SOL    HW152987  10.299  10.421   6.518 -1.2647 -2.4614 -0.8616
49008SOL    HW252988  10.198  10.510   6.588 -0.4080  0.8724 -3.5764
49009SOL     OW52989   8.654   9.571  11.728  0.0158 -0.3451 -0.4361
49009SOL    HW152990   8.577   9.617  11.697 -1.3224 -1.3935  1.1898
49009SOL    HW252991   8.710   9.563  11.651 -0.7251  1.8975 -1.2737
49010SOL     OW52992   2.088   5.858   0.487  0.3989 -0.3772  0.0866
49010SOL    HW152993   2.061   5.774   0.524  1.2328  0.3011  2.4972
49010SOL    HW252994   2.144   5.897   0.555  0.5626  1.8454 -1.2024
49011SOL     OW52995   4.631   0.447   5.208 -0.3726  0.0793 -0.1035
49011SOL    HW152996   4.700   0.384   5.186  0.4204  0.6252  0.7169
49011SOL    HW252997   4.606   0.485   5.124  0.6357  0.1690 -0.3853
49012SOL     OW52998  11.070   5.419   7.218 -0.5446  0.2790  0.2578
49012SOL    HW152999  11.029   5.405   7.133  1.5914  2.5889 -1.3013
49012SOL    HW253000  11.152   5.370   7.213  1.1501  2.9693 -0.4455
49013SOL     OW53001   2.242  12.184   6.757 -0.2046 -0.0608 -0.3126
49013SOL    HW153002   2.337  12.188   6.767 -0.2502 -1.1897  0.7639
49013SOL    HW253003   2.222  12.252   6.693  1.5626 -1.2592 -2.2524
49014SOL     OW53004   4.968   3.410   1.961 -0.2034  0.2745  0.1664
49014SOL    HW153005   5.057   3.375   1.969 -1.0055 -2.0028 -0.1238
49014SOL    HW253006   4.911   3.338   1.987 -2.0049  1.4941 -0.1894
49015SOL     OW53007  10.735  11.333   6.004 -0.0634 -0.2661 -0.2634
49015SOL    HW153008  10.664  11.367   5.949  0.3886  0.6820 -0.2751
49015SOL    HW253009  10.760  11.251   5.962 -0.8195 -0.3666 -0.5406
49016SOL     OW53010   2.087   9.843   5.154  0.3090 -0.4099 -0.1115
49016SOL    HW153011   2.053   9.838   5.243  0.7325 -0.1384  0.0692
49016SOL    HW253012   2.094   9.937   5.136 -1.7442 -0.4067 -1.2029
49017SOL     OW53013   6.822   8.290   1.094  0.4217 -0.3935  0.5719
49017SOL    HW153014   6.902   8.290   1.146  0.4593 -0.8434  0.5148
49017SOL    HW253015   6.752   8.280   1.159  0.2865  1.5868  0.7944
49018SOL     OW53016   2.778   2.056  12.428  0.2108  0.2210  0.1233
49018SOL    HW153017   2.705   2.008  12.465  0.1128  0.6001  0.4306
49018SOL    HW253018   2.767   2.048  12.333  0.3020 -0.5098  0.1713
49019SOL     OW53019   0.684   9.397   2.048 -0.0034 -0.0416  0.2595
49019SOL    HW153020   0.735   9.414   2.127 -0.1931  2.3942 -0.0799
49019SOL    HW253021   0.749   9.389   1.979  0.1247 -1.5277  0.5219
49020SOL     OW53022   7.480   0.556   1.533  0.1362  0.3060 -0.2175
49020SOL    HW153023   7.388   0.531   1.544  0.3972 -0.5785  0.0122
49020SOL    HW253024   7.529   0.486   1.577  0.9507  0.3252 -1.0781
49021SOL     OW53025  10.755   6.703   9.427  0.0987 -0.0384 -0.5207
49021SOL    HW153026  10.842   6.675   9.398  0.1299 -0.0228 -0.4428
49021SOL    HW253027  10.695   6.661   9.366  0.2414  1.1676 -1.5323
49022SOL     OW53028  10.956  11.815   2.650 -0.3174  0.6900  0.2101
49022SOL    HW153029  10.913  11.826   2.735 -1.0746  1.7526 -0.2801
49022SOL    HW253030  10.934  11.725   2.624 -1.8696  1.0263  0.2170
49023SOL     OW53031   6.420  11.782  11.076 -0.4408 -0.5810  0.1632
49023SOL    HW153032   6.409  11.698  11.120  0.9454 -0.2714  1.1869
49023SOL    HW253033   6.449  11.760  10.988  2.1161 -1.2361  1.0709
49024SOL     OW53034   6.773   4.855   5.975  0.0550 -0.0135 -0.4623
49024SOL    HW153035   6.760   4.905   5.894 -1.7755  1.2858  0.5434
49024SOL    HW253036   6.862   4.876   6.003  0.2848  0.4597 -1.5107
49025SOL     OW53037   1.429   7.764   6.798  0.2400 -0.0243  0.5053
49025SOL    HW153038   1.353   7.761   6.855 -0.3127  0.0473 -0.2237
49025SOL    HW253039   1.479   7.841   6.828  1.2072 -1.3268  2.4375
49026SOL     OW53040   1.585   0.951   8.303  0.1743  0.1581 -0.1292
49026SOL    HW153041   1.663   0.901   8.327 -0.4670 -0.0023  1.7701
49026SOL    HW253042   1.593   1.033   8.353 -1.0152  0.0051  0.3351
49027SOL     OW53043  11.578  10.213   3.228 -0.0484  0.1443  0.9574
49027SOL    HW153044  11.542  10.290   3.272 -1.1169 -0.3031  0.9155
49027SOL    HW253045  11.601  10.153   3.299 -0.2347  0.0748  0.9600
49028SOL     OW53046   9.521   9.539   4.521 -0.2304  0.1043  0.1308
49028SOL    HW153047   9.494   9.493   4.442 -2.2843  0.2695  0.6797
49028SOL    HW253048   9.509   9.475   4.591 -0.8532  0.7266  0.6044
49029SOL     OW53049   6.643   5.978   5.205 -0.4539 -0.0749  0.5453
49029SOL    HW153050   6.607   5.919   5.138 -0.6904 -0.8613  1.3370
49029SOL    HW253051   6.690   6.045   5.155  0.1601 -1.1530 -0.3823
49030SOL     OW53052   8.948   2.464   2.970  0.2604 -0.8461  0.6485
49030SOL    HW153053   9.006   2.485   3.043 -0.7762 -0.3207  1.3492
49030SOL    HW253054   8.884   2.535   2.970 -0.2584 -1.3048 -0.2335
49031SOL     OW53055   3.087  10.898   8.044 -0.4800 -0.0320 -0.7547
49031SOL    HW153056   3.105  10.991   8.030 -2.2188  0.3265 -0.8731
49031SOL    HW253057   3.137  10.875   8.122 -1.1427  1.3901  0.1363
49032SOL     OW53058   2.007   6.306  12.160  0.1450 -0.5754 -0.0185
49032SOL    HW153059   1.920   6.309  12.201  0.4732  0.6984  0.6074
49032SOL    HW253060   2.068   6.327  12.230  0.8996 -0.6104 -0.6501
49033SOL     OW53061   9.356   0.143  11.519  0.3898 -0.1894  0.0302
49033SOL    HW153062   9.420   0.181  11.579  0.5348  3.4818 -2.1232
49033SOL    HW253063   9.408   0.090  11.458  0.5177 -2.0048  1.6264
49034SOL     OW53064  11.234   3.876   3.668 -0.1464  1.3785 -0.3890
49034SOL    HW153065  11.328   3.893   3.678  0.1296 -0.2193  0.0943
49034SOL    HW253066  11.198   3.893   3.755  0.0166  0.2683 -0.0893
49035SOL     OW53067   0.258   8.726  11.177 -0.0332 -0.2781 -0.1053
49035SOL    HW153068   0.256   8.780  11.256  0.4551 -1.5956  0.8335
49035SOL    HW253069   0.228   8.785  11.108  3.0112  2.0377  0.3307
49036SOL     OW53070   3.510   9.458   6.923  0.2884  0.1065  0.0457
49036SOL    HW153071   3.533   9.389   6.862  1.6350  0.6740 -0.1066
49036SOL    HW253072   3.446   9.417   6.982  0.8711 -1.1867 -0.1931
49037SOL     OW53073   2.258   4.484   4.204 -0.2849  0.4003  0.3046
49037SOL    HW153074   2.172   4.442   4.205 -0.2685  0.3642  0.1173
49037SOL    HW253075   2.242   4.570   4.242 -0.4390  0.4625  0.1018
49038SOL     OW53076  12.043   0.109   0.716 -0.8321  0.2748  0.4409
49038SOL    HW153077  12.014   0.194   0.748 -0.7373 -0.1276  1.6454
49038SOL    HW253078  12.004   0.046   0.777 -0.5291 -0.5161 -0.1634
49039SOL     OW53079   0.489   5.320   2.866  0.1267  0.1907  0.1228
49039SOL    HW153080   0.561   5.323   2.929  1.9632 -0.6260 -1.7951
49039SOL    HW253081   0.439   5.243   2.891  0.7860 -0.0870  0.6253
49040SOL     OW53082   5.422   9.800   7.631 -0.5309 -0.5557  0.2262
49040SOL    HW153083   5.400   9.824   7.721  0.7114 -1.7945  0.8975
49040SOL    HW253084   5.505   9.845   7.614 -0.8327 -0.2062 -0.3762
49041SOL     OW53085   8.083   1.827  10.848 -0.0206  0.0569 -0.2185
49041SOL    HW153086   8.078   1.832  10.943  1.1811 -0.4886 -0.1052
49041SOL    HW253087   8.114   1.738  10.830 -0.3148  0.1225 -1.1216
49042SOL     OW53088   3.868  11.409  12.315 -0.1731  0.5033 -0.2183
49042SOL    HW153089   3.835  11.336  12.263  3.2094 -2.8453  1.8887
49042SOL    HW253090   3.804  11.420  12.385 -1.5184  0.7864 -1.4302
49043SOL     OW53091   4.136   5.662   7.271 -0.4406 -0.1752 -0.5430
49043SOL    HW153092   4.203   5.599   7.297  1.2011  1.6530 -0.1136
49043SOL    HW253093   4.143   5.665   7.175 -0.6202 -0.7189 -0.5776
49044SOL     OW53094   2.265   6.992  10.316  0.0567  0.8329 -0.3963
49044SOL    HW153095   2.347   6.982  10.268  0.1111 -0.2895 -0.1046
49044SOL    HW253096   2.218   6.910  10.300 -0.3459  0.8338  0.6683
49045SOL     OW53097   1.029   6.351   2.470  0.5426 -0.0105  0.0730
49045SOL    HW153098   1.075   6.267   2.474 -0.1418 -0.4496 -0.7877
49045SOL    HW253099   1.002   6.368   2.560  0.8888 -0.6082  0.2938
49046SOL     OW53100   2.491  11.914   1.829  0.2033 -0.0049 -0.1411
49046SOL    HW153101   2.459  11.942   1.743 -0.2495 -1.0620 -0.3336
49046SOL    HW253102   2.416  11.871   1.869  1.1503 -1.9572 -0.3298
49047SOL     OW53103  12.310   8.225  11.198 -0.2088 -0.0286  0.2510
49047SOL    HW153104  12.243   8.215  11.266 -0.4790  1.2102  0.1906
49047SOL    HW253105  12.389   8.189  11.237 -0.4633  0.2643  1.0665
49048SOL     OW53106  11.251   8.163   0.488  0.2261 -0.4068 -0.1320
49048SOL    HW153107  11.300   8.178   0.569 -0.3698 -1.6300  0.4981
49048SOL    HW253108  11.250   8.247   0.444  2.6465 -0.2631 -0.0452
49049SOL     OW53109   0.151   7.608   3.993  0.2296 -0.1380  0.1591
49049SOL    HW153110   0.066   7.634   3.959  0.5836 -0.5864 -1.1209
49049SOL    HW253111   0.189   7.554   3.925  1.2940 -0.4551  0.9707
49050SOL     OW53112   9.562   1.890  12.439  0.1523 -0.1234 -0.0685
49050SOL    HW153113   9.640   1.946  12.436 -0.5566  0.8778 -0.2852
49050SOL    HW253114   9.529   1.901  12.528  0.8708 -1.4384  0.3881
49051SOL     OW53115   6.282   3.784   0.002  0.3264  0.0284  0.8510
49051SOL    HW153116   6.353   3.754  -0.056 -0.8347 -0.4583 -0.3692
49051SOL    HW253117   6.270   3.876  -0.021  0.8754  0.2470  1.4093
49052SOL     OW53118  12.164   4.510   2.196  0.0289  0.4233  0.1223
49052SOL    HW153119  12.074   4.528   2.223  0.9252  1.8493  2.4022
49052SOL    HW253120  12.184   4.424   2.234  0.1841  0.9139  1.1778
49053SOL     OW53121   7.851   7.009  10.962 -0.5281 -0.7257  0.3469
49053SOL    HW153122   7.792   6.946  10.920  0.5314 -0.9345 -0.9165
49053SOL    HW253123   7.930   7.006  10.908  0.2253  0.3484  1.3546
49054SOL     OW53124   6.535   1.716   1.605  0.6339 -0.5958 -0.3224
49054SOL    HW153125   6.454   1.682   1.570  0.1184  1.0477 -0.8206
49054SOL    HW253126   6.602   1.693   1.540 -0.2138  1.9166 -2.2417
49055SOL     OW53127   1.671   0.079  10.306 -0.3796 -0.3384 -0.3843
49055SOL    HW153128   1.620   0.013  10.260 -1.3478 -0.6831  1.0956
49055SOL    HW253129   1.611   0.154  10.314 -0.9061 -0.9169  1.7869
49056SOL     OW53130   8.671  11.061   5.596  0.3207  0.3696  0.1349
49056SOL    HW153131   8.605  11.100   5.653  0.5046 -0.3049  0.8198
49056SOL    HW253132   8.625  10.994   5.547 -0.0361  1.5063 -1.1744
49057SOL     OW53133   8.954   8.515   2.000  0.4782 -0.1273  0.4142
49057SOL    HW153134   8.964   8.607   2.024  2.2571  0.0382 -0.7109
49057SOL    HW253135   8.895   8.516   1.924 -0.0696  0.0035  0.8393
49058SOL     OW53136   5.217   4.575  11.647 -0.3686 -0.3775 -0.1470
49058SOL    HW153137   5.197   4.663  11.676 -0.1223 -0.6350  0.8487
49058SOL    HW253138   5.282   4.586  11.577 -1.1881  0.2678 -0.8223
49059SOL     OW53139  10.731  10.089   1.825 -0.1394  0.3734  0.0169
49059SOL    HW153140  10.680  10.055   1.898 -0.2032 -1.2256 -0.7247
49059SOL    HW253141  10.789  10.154   1.864 -1.3294  0.7721  1.1966
49060SOL     OW53142   0.387   8.918   2.292  0.3402  0.3121  0.0589
49060SOL    HW153143   0.453   8.948   2.229  0.1585 -0.2535 -0.4122
49060SOL    HW253144   0.322   8.872   2.238  0.8552 -1.3541  0.7818
49061SOL     OW53145   3.552  10.691   3.917 -0.4252  0.1353 -0.4128
49061SOL    HW153146   3.524  10.772   3.875 -0.9719 -1.4672 -3.4527
49061SOL    HW253147   3.641  10.710   3.947 -0.2742  1.6815 -1.6677
49062SOL     OW53148   9.537   8.987   4.085 -0.0240  0.1660  0.3602
49062SOL    HW153149   9.578   8.997   4.000 -1.9635  0.5951 -0.5752
49062SOL    HW253150   9.599   9.026   4.147  0.4806  1.8179 -1.1175
49063SOL     OW53151   1.214  10.080   6.990  1.0466  0.0467  0.1820
49063SOL    HW153152   1.185  10.040   7.072 -0.8169 -3.6275 -1.9859
49063SOL    HW253153   1.147  10.145   6.970  0.6607 -0.1258  0.8642
49064SOL     OW53154   4.072   1.240   6.211 -0.0488 -0.3840  0.0758
49064SOL    HW153155   4.071   1.200   6.298 -1.8620  0.3071  0.4133
49064SOL    HW253156   4.004   1.307   6.214  0.4989  0.3178 -1.5930
49065SOL     OW53157   1.843   0.444   4.172 -0.3624 -0.4932 -0.3357
49065SOL    HW153158   1.771   0.455   4.233  0.7591  0.7132  0.8408
49065SOL    HW253159   1.861   0.533   4.140  0.6792 -0.7483 -0.4914
49066SOL     OW53160  11.133   2.519   6.307 -0.1891 -0.7412  0.0243
49066SOL    HW153161  11.149   2.432   6.344  0.1630  0.1570  2.1746
49066SOL    HW253162  11.038   2.523   6.295 -0.0168 -2.2864 -2.5895
49067SOL     OW53163   0.535   5.390   7.088  0.2246  0.3676 -0.5313
49067SOL    HW153164   0.551   5.300   7.059  1.8141  0.1075  0.9753
49067SOL    HW253165   0.612   5.412   7.141 -1.4887  1.5438  1.6392
49068SOL     OW53166   1.293   5.953   2.007 -0.5239 -0.0724  0.4175
49068SOL    HW153167   1.365   5.901   1.972 -0.4321 -0.0669  0.6023
49068SOL    HW253168   1.227   5.889   2.034 -0.2531 -0.1070  0.9971
49069SOL     OW53169   5.088   3.038   8.466  0.1901 -0.2708  0.0280
49069SOL    HW153170   5.055   3.125   8.442  1.1160  0.2564  0.6144
49069SOL    HW253171   5.039   2.977   8.411 -1.5083  0.5014  0.6474
49070SOL     OW53172   6.486   8.404   8.754 -0.1906  0.3536 -0.3025
49070SOL    HW153173   6.481   8.412   8.850  0.5267 -1.2677 -0.1010
49070SOL    HW253174   6.485   8.310   8.738 -1.5482  0.6255 -1.9918
49071SOL     OW53175   0.209   9.679   8.366  0.0228 -0.0644 -0.2766
49071SOL    HW153176   0.229   9.702   8.456 -0.2490 -0.0279 -0.2222
49071SOL    HW253177   0.276   9.724   8.314  0.0859  0.0429 -0.1034
49072SOL     OW53178   0.219   3.353  11.332 -0.1687 -0.4568 -0.2803
49072SOL    HW153179   0.277   3.424  11.305 -2.5456  1.8367  0.1729
49072SOL    HW253180   0.208   3.300  11.253 -1.4103  2.0262 -1.9072
49073SOL     OW53181   8.876   8.012  11.956 -0.2489  0.4245 -0.1663
49073SOL    HW153182   8.937   8.011  11.882  0.6239 -0.2470  0.5392
49073SOL    HW253183   8.886   7.926  11.996 -0.4154  0.9174  0.9690
49074SOL     OW53184   4.139   4.223   7.501 -0.9604  0.3273 -0.4485
49074SOL    HW153185   4.214   4.182   7.458  0.9620  1.2927  1.7423
49074SOL    HW253186   4.088   4.149   7.536 -0.1108 -0.3128 -0.5290
49075SOL     OW53187  12.093   8.888   7.897  0.2790  1.0703  0.2134
49075SOL    HW153188  12.037   8.965   7.884 -1.2317 -0.3478 -2.5835
49075SOL    HW253189  12.137   8.877   7.813  1.2126 -0.5747  0.8751
49076SOL     OW53190   6.925   0.022   6.102  0.1251  0.2724 -0.1464
49076SOL    HW153191   6.937   0.117   6.101 -0.9054  0.4176 -1.2038
49076SOL    HW253192   6.832   0.010   6.122 -0.1123 -0.4465 -1.5271
49077SOL     OW53193   7.680   5.311  11.206  0.2040  0.3637  0.3983
49077SOL    HW153194   7.586   5.302  11.217  0.1427  1.7658  1.2466
49077SOL    HW253195   7.704   5.240  11.147 -1.1182 -1.0291  1.4498
49078SOL     OW53196   6.341  11.517   6.085 -0.0973  0.3016  0.2598
49078SOL    HW153197   6.322  11.488   5.996 -0.6545  1.1159  0.0964
49078SOL    HW253198   6.308  11.448   6.142  1.0996 -0.6707 -0.1721
49079SOL     OW53199  11.308   0.307   4.557 -0.0846  0.1529 -0.2744
49079SOL    HW153200  11.369   0.247   4.601 -0.4306 -0.6755 -0.8951
49079SOL    HW253201  11.266   0.354   4.629  1.3051  0.7885  0.1663
49080SOL     OW53202   0.113   0.213   7.395  0.0180  0.0954 -0.3659
49080SOL    HW153203   0.090   0.145   7.332  2.0852  0.4981 -1.6552
49080SOL    HW253204   0.207   0.225   7.383  0.1708  1.3447  1.6890
49081SOL     OW53205   3.755   3.620   2.543  0.0114  0.1389  0.1713
49081SOL    HW153206   3.679   3.609   2.485  1.1741 -3.1996 -0.9372
49081SOL    HW253207   3.810   3.544   2.526  2.5773  1.2661  2.5699
49082SOL     OW53208   8.043   5.042  10.702 -0.3887  0.6789  0.1698
49082SOL    HW153209   8.072   5.030  10.612  1.1040  2.2576  0.3834
49082SOL    HW253210   7.949   5.027  10.699 -0.0655 -1.5871 -1.1788
49083SOL     OW53211   8.659   3.042   3.636 -0.3294 -0.3158 -0.2165
49083SOL    HW153212   8.729   3.107   3.632 -0.5849 -0.0454 -0.2625
49083SOL    HW253213   8.700   2.961   3.603 -0.3446  0.0980 -1.2833
49084SOL     OW53214   6.322   8.795   1.452  0.8344  0.1038  0.1154
49084SOL    HW153215   6.404   8.807   1.501  0.5996  0.2944  0.4665
49084SOL    HW253216   6.282   8.882   1.452  0.2931 -0.1402  0.5595
49085SOL     OW53217   1.129   9.643   1.862 -0.3681 -0.4417  0.4091
49085SOL    HW153218   1.073   9.688   1.925 -0.8260  1.4425 -1.2558
49085SOL    HW253219   1.208   9.697   1.857  0.2759 -1.3601  0.4066
49086SOL     OW53220   1.873   6.018  12.415 -0.3974  0.2806  0.1203
49086SOL    HW153221   1.796   5.979  12.374  0.2717  0.4204 -1.3257
49086SOL    HW253222   1.901   5.953  12.479 -0.3841 -0.8220 -0.9575
49087SOL     OW53223   6.235   6.149   7.944  0.0787  0.1849 -0.5714
49087SOL    HW153224   6.330   6.152   7.955  0.0704 -0.6295 -0.2725
49087SOL    HW253225   6.208   6.068   7.986 -0.7914  0.5676 -0.3659
49088SOL     OW53226   7.568  10.293   3.902 -0.2478  0.5244  0.8997
49088SOL    HW153227   7.548  10.203   3.929 -0.4159  0.2408 -0.1480
49088SOL    HW253228   7.489  10.323   3.859 -0.4156  1.4116  1.7857
49089SOL     OW53229   7.925   4.875   7.871 -0.8703 -0.4487  0.6130
49089SOL    HW153230   7.980   4.921   7.808  0.6475 -0.1919  2.0479
49089SOL    HW253231   7.850   4.932   7.883 -0.6581  0.0063 -0.1544
49090SOL     OW53232  11.929   0.468  11.138 -0.0282 -0.0353  0.7173
49090SOL    HW153233  11.976   0.507  11.212  2.5522 -0.9436 -0.3077
49090SOL    HW253234  11.934   0.534  11.070  0.7661 -0.5365  0.2692
49091SOL     OW53235   2.821   6.357   4.547 -1.2073 -0.6332 -0.3545
49091SOL    HW153236   2.747   6.323   4.597 -1.7021 -0.0539 -0.6945
49091SOL    HW253237   2.817   6.310   4.464  0.5642 -2.8197  0.6671
49092SOL     OW53238   0.449   5.374   3.797 -0.7029 -0.0804  0.2871
49092SOL    HW153239   0.481   5.452   3.752 -1.4228 -1.0637 -2.0691
49092SOL    HW253240   0.526   5.337   3.839 -0.1090  1.1720  0.3390
49093SOL     OW53241  11.344   6.573   8.155  0.2350  0.1615 -0.2654
49093SOL    HW153242  11.399   6.508   8.198  0.6335  0.7961  0.1937
49093SOL    HW253243  11.325   6.638   8.223 -0.3443  0.4085 -0.6560
49094SOL     OW53244   0.448   3.901   8.166 -0.2033  0.3585 -0.3733
49094SOL    HW153245   0.355   3.911   8.183  0.1329  2.7252  0.4793
49094SOL    HW253246   0.487   3.888   8.253  0.3213  0.2585 -0.6207
49095SOL     OW53247  12.456  11.522   4.787  0.2601  0.7530  0.2437
49095SOL    HW153248  12.366  11.490   4.789 -0.5419  2.8492  2.8594
49095SOL    HW253249  12.463  11.570   4.705 -1.4980  1.7732  0.6485
49096SOL     OW53250   3.669   1.276   2.647 -0.2181  1.1595  0.2536
49096SOL    HW153251   3.644   1.360   2.686 -1.0105  1.5190 -0.9426
49096SOL    HW253252   3.591   1.248   2.600  0.1792 -0.0541  0.2968
49097SOL     OW53253   3.709   2.308   7.010 -0.0686  0.5810  0.7794
49097SOL    HW153254   3.614   2.298   7.006  0.0175  0.1463 -0.9742
49097SOL    HW253255   3.742   2.218   7.014  0.2981  0.6299 -0.5907
49098SOL     OW53256   7.298  11.067  10.945 -0.6494 -0.0588  0.2122
49098SOL    HW153257   7.320  10.974  10.943 -0.2686  0.0395 -0.7261
49098SOL    HW253258   7.214  11.071  10.991 -0.8841 -0.9109 -0.1206
49099SOL     OW53259   9.345  11.597   6.679  0.3406 -0.2419 -0.4379
49099SOL    HW153260   9.341  11.687   6.648 -1.1229 -0.3240 -0.5389
49099SOL    HW253261   9.350  11.604   6.775 -0.9065 -0.0608 -0.3805
49100SOL     OW53262   1.368   4.608  12.157 -0.1483 -0.1076 -0.1838
49100SOL    HW153263   1.453   4.570  12.135  0.1451 -0.6511  1.7308
49100SOL    HW253264   1.341   4.562  12.237 -1.4133  1.2920  0.2395
49101SOL     OW53265   6.618   0.309  10.419 -0.6183  0.2510  0.2254
49101SOL    HW153266   6.661   0.384  10.462 -1.7168  1.2003 -0.2666
49101SOL    HW253267   6.684   0.275  10.359 -0.0891  0.8163  0.4684
49102SOL     OW53268   2.436  11.018   9.503  0.2484  0.1639  0.2624
49102SOL    HW153269   2.514  11.035   9.556  0.7200 -2.7877  0.6920
49102SOL    HW253270   2.362  11.030   9.563  0.7485 -2.5423  1.5393
49103SOL     OW53271   3.900   7.577   3.504  0.9213 -0.2077  0.1251
49103SOL    HW153272   3.898   7.670   3.528  0.0222 -0.1430 -0.1656
49103SOL    HW253273   3.821   7.541   3.544  0.3797 -0.4884 -1.1616
49104SOL     OW53274  11.738   3.257   0.239  0.1384 -0.4024 -0.1805
49104SOL    HW153275  11.751   3.244   0.333  0.0402  1.6697  0.1631
49104SOL    HW253276  11.709   3.171   0.207  0.2481 -1.1749  1.6516
49105SOL     OW53277  11.181   2.123   7.539 -0.0096 -0.3131  0.5580
49105SOL    HW153278  11.110   2.070   7.504 -1.4023  1.2310  0.9138
49105SOL    HW253279  11.161   2.133   7.632 -0.7222  2.1159  0.2230
49106SOL     OW53280   6.148   0.240   5.218 -0.4173 -0.1713 -0.4888
49106SOL    HW153281   6.187   0.290   5.290 -0.8504 -0.1509 -0.2665
49106SOL    HW253282   6.215   0.175   5.196 -0.3440 -0.2834  0.0408
49107SOL     OW53283   1.077   4.493   2.525 -0.3609 -0.0440  0.2097
49107SOL    HW153284   1.044   4.410   2.491  0.2274  0.5099 -1.8624
49107SOL    HW253285   1.000   4.550   2.531 -0.7588 -0.6947  1.6077
49108SOL     OW53286  10.816   1.672   3.340  0.4046 -0.0911  0.1289
49108SOL    HW153287  10.765   1.650   3.418  0.3142 -2.2834 -0.4908
49108SOL    HW253288  10.890   1.723   3.374 -0.9211  1.1680  1.3129
49109SOL     OW53289   9.224   7.491   9.615 -0.0945 -0.1741 -0.0341
49109SOL    HW153290   9.214   7.398   9.595 -0.2896  0.3057 -2.4551
49109SOL    HW253291   9.184   7.500   9.701  0.6517 -2.4480  0.6399
49110SOL     OW53292   6.040  12.470   8.950  0.2157  0.7223 -0.1601
49110SOL    HW153293   5.964  12.447   9.003  0.5224  0.3515  0.1177
49110SOL    HW253294   6.005  12.530   8.884 -0.3939  0.2648 -0.2642
49111SOL     OW53295   8.176   5.170   4.227  0.0710 -0.6012  0.0166
49111SOL    HW153296   8.130   5.237   4.278  0.8730  1.6084 -1.9553
49111SOL    HW253297   8.109   5.134   4.169 -0.4259 -1.7906  1.2732
49112SOL     OW53298   0.530   1.911   5.827 -0.3059 -0.0907 -0.1310
49112SOL    HW153299   0.573   1.994   5.852  0.3194 -0.7136  0.9757
49112SOL    HW253300   0.587   1.844   5.865  0.0475 -1.0989 -2.3271
49113SOL     OW53301   3.865   0.399   8.962 -0.0422 -0.0956  0.7429
49113SOL    HW153302   3.883   0.312   8.926 -1.5145 -0.9185  1.8988
49113SOL    HW253303   3.893   0.392   9.054  1.6182  1.2832  0.3986
49114SOL     OW53304   5.906   8.833  10.402  0.3633  0.2748 -0.2035
49114SOL    HW153305   5.906   8.740  10.382 -0.0175  0.4618 -1.1241
49114SOL    HW253306   5.815   8.861  10.390  0.7745  1.1031 -1.7067
49115SOL     OW53307   0.937  11.991  11.296 -0.1724  0.0050 -0.0953
49115SOL    HW153308   0.864  11.996  11.357  0.2764 -2.1967  0.7311
49115SOL    HW253309   1.015  12.000  11.350  0.2037  0.3008 -0.6739
49116SOL     OW53310   7.686  11.733   4.562  0.3810  0.7282 -0.3124
49116SOL    HW153311   7.701  11.706   4.471  0.4215  0.3523 -0.1940
49116SOL    HW253312   7.665  11.652   4.608  1.5495  0.7443  0.2705
49117SOL     OW53313   5.815   4.852   2.066  0.4929 -0.0492  0.1884
49117SOL    HW153314   5.775   4.805   2.139  1.1889 -0.6579  0.1905
49117SOL    HW253315   5.746   4.856   1.999 -0.7569  2.0743  1.4864
49118SOL     OW53316   2.690   2.784   6.299  0.4082  0.2032  0.4744
49118SOL    HW153317   2.676   2.711   6.239  0.7326  1.4692 -1.2208
49118SOL    HW253318   2.603   2.821   6.312  0.5154  0.8399 -0.4814
49119SOL     OW53319   5.113   4.632   0.622  0.0341 -0.1873 -0.4941
49119SOL    HW153320   5.026   4.667   0.605 -0.2218 -0.7283 -0.2947
49119SOL    HW253321   5.146   4.605   0.536 -0.7493 -1.7341 -0.3309
49120SOL     OW53322   0.109   7.965   0.950  0.2019 -0.3693  0.2469
49120SOL    HW153323   0.202   7.989   0.954  0.4127 -0.8160 -1.3848
49120SOL    HW253324   0.104   7.885   1.003  1.1330 -1.3598 -1.0785
49121SOL     OW53325   7.359  11.434   9.968  0.3998 -0.4524 -0.6288
49121SOL    HW153326   7.367  11.480   9.885 -1.3536 -0.8641 -1.0860
49121SOL    HW253327   7.309  11.355   9.946 -1.5332  0.2135  1.0366
49122SOL     OW53328   0.150   7.853   6.913  0.1880  0.2865 -0.0249
49122SOL    HW153329   0.092   7.835   6.839  0.4796 -0.4462 -0.0841
49122SOL    HW253330   0.238   7.835   6.880  0.4578  1.3000  0.0913
49123SOL     OW53331   2.117   2.091  10.993  0.0765  0.4431  0.0080
49123SOL    HW153332   2.164   2.007  10.985  0.5899  0.7877 -0.6990
49123SOL    HW253333   2.183   2.152  11.027  0.2575  1.0127 -1.3099
49124SOL     OW53334   0.938  11.096   6.699  0.3250 -0.0588 -0.1174
49124SOL    HW153335   0.914  11.130   6.784  0.7769 -1.1871  0.4831
49124SOL    HW253336   0.943  11.001   6.711 -2.4819 -0.5887 -2.1066
49125SOL     OW53337   2.643   4.374  11.195  0.0866  0.3219  0.2704
49125SOL    HW153338   2.687   4.439  11.250 -2.2005  1.9225  0.3357
49125SOL    HW253339   2.572   4.341  11.249  0.4667 -1.3783 -0.2146
49126SOL     OW53340  12.011   0.284   6.660  0.2610  0.7938 -0.7787
49126SOL    HW153341  12.090   0.336   6.673  0.1922  0.8919 -0.7517
49126SOL    HW253342  12.037   0.195   6.680  0.0414  0.9932  0.5040
49127SOL     OW53343   8.623  11.773   9.914 -0.1341  0.3496  0.1299
49127SOL    HW153344   8.528  11.766   9.916 -0.0332 -1.1102  1.4035
49127SOL    HW253345   8.644  11.788   9.822 -1.5663  0.2074 -0.2354
49128SOL     OW53346   3.211   2.521  10.550 -0.4034 -0.4167  0.0176
49128SOL    HW153347   3.201   2.616  10.561  0.0849 -0.3913  0.2824
49128SOL    HW253348   3.266   2.512  10.472  0.6325 -0.4296  0.7186
49129SOL     OW53349   0.880   3.316   9.008  0.1595 -0.1190 -0.2733
49129SOL    HW153350   0.839   3.396   9.042  0.4422 -0.3007  0.5219
49129SOL    HW253351   0.850   3.247   9.067 -0.0489 -0.5917 -0.9332
49130SOL     OW53352   4.007   3.019   5.757  0.5708  0.2182  0.0275
49130SOL    HW153353   3.952   2.946   5.785  1.2676 -0.1165  0.5584
49130SOL    HW253354   4.018   3.005   5.662 -0.0251  0.1352 -0.0296
49131SOL     OW53355   1.754   8.932   7.990  0.1450  0.2884  0.0213
49131SOL    HW153356   1.753   8.945   7.895  1.2781  3.9934  0.3554
49131SOL    HW253357   1.836   8.887   8.007  0.9104  1.3779 -0.6542
49132SOL     OW53358   7.072   9.239   3.331 -0.1761 -0.5231 -0.8492
49132SOL    HW153359   7.009   9.224   3.401 -1.4235 -1.5625 -2.1225
49132SOL    HW253360   7.066   9.333   3.313 -1.5864 -0.6340 -1.0960
49133SOL     OW53361  12.120   3.849   7.847 -0.4059  0.3394 -0.2572
49133SOL    HW153362  12.127   3.896   7.930 -1.0867 -0.5193  0.3041
49133SOL    HW253363  12.054   3.898   7.797 -1.4695 -0.2424  0.5156
49134SOL     OW53364   9.186   1.457  10.515 -0.4910 -0.0832  0.3093
49134SOL    HW153365   9.141   1.437  10.596  0.5746  1.6409  1.4009
49134SOL    HW253366   9.210   1.372  10.478 -1.2188 -0.8947  1.6534
49135SOL     OW53367  11.305   7.223   4.329 -0.3519 -0.6041 -0.0065
49135SOL    HW153368  11.347   7.278   4.395 -0.9803 -0.8716  0.6293
49135SOL    HW253369  11.377   7.174   4.289 -0.0224 -0.8697  0.8884
49136SOL     OW53370   7.735   8.172   1.768 -0.1698  0.0379 -0.1786
49136SOL    HW153371   7.803   8.170   1.836 -0.3740  0.2458  0.0297
49136SOL    HW253372   7.783   8.154   1.687 -0.1961 -2.2166  0.2337
49137SOL     OW53373   8.738   3.532   3.912 -0.3116  0.2265 -0.1734
49137SOL    HW153374   8.832   3.542   3.926 -0.0174 -0.6853 -1.4365
49137SOL    HW253375   8.718   3.445   3.945 -0.5349  0.0467 -0.7761
49138SOL     OW53376   3.674   1.154   8.013 -0.8442 -0.8214  0.7162
49138SOL    HW153377   3.692   1.063   8.037  0.5955 -0.4752  1.0883
49138SOL    HW253378   3.684   1.203   8.095  0.3486 -0.0988  0.1681
49139SOL     OW53379   9.228   2.273   9.741  0.2076 -0.1151  0.3002
49139SOL    HW153380   9.253   2.340   9.805 -0.3744  1.1212 -0.7207
49139SOL    HW253381   9.137   2.253   9.762  0.5203 -0.9699  0.9051
49140SOL     OW53382   0.384   5.700   7.145 -0.1400 -0.2099 -0.2146
49140SOL    HW153383   0.443   5.774   7.159 -0.8722 -0.0057  2.3281
49140SOL    HW253384   0.314   5.734   7.090  0.9956  0.1252 -1.5053
49141SOL     OW53385  11.130   8.189   7.532  0.5912 -0.6514  0.0249
49141SOL    HW153386  11.135   8.102   7.493  0.5014 -1.3931  1.5978
49141SOL    HW253387  11.212   8.198   7.581  0.6284  0.1836 -0.1838
49142SOL     OW53388   2.555   5.854   3.238  0.1746  0.2929 -0.7379
49142SOL    HW153389   2.481   5.914   3.253  0.1911 -0.0107  0.7673
49142SOL    HW253390   2.598   5.848   3.324 -0.1967 -2.3323 -0.6520
49143SOL     OW53391   1.723   7.132  11.519  0.4002  0.2330 -0.7811
49143SOL    HW153392   1.669   7.162  11.446  1.6291 -0.7730 -2.1751
49143SOL    HW253393   1.813   7.149  11.491  0.8844  0.5911  0.8776
49144SOL     OW53394   0.223   3.381  10.202 -1.1582 -0.0646 -0.6061
49144SOL    HW153395   0.185   3.452  10.149 -2.5040 -0.4144 -0.1575
49144SOL    HW253396   0.316   3.383  10.182 -1.6488 -0.3408 -3.1602
49145SOL     OW53397   4.767   3.394   5.519  0.4237 -0.2502  0.3878
49145SOL    HW153398   4.690   3.353   5.480 -0.4862 -0.6700  2.5029
49145SOL    HW253399   4.841   3.350   5.478 -0.3962  0.3129 -1.8486
49146SOL     OW53400   9.091  10.431   8.854 -0.0995  0.5581 -0.4271
49146SOL    HW153401   9.013  10.375   8.857 -1.3574  2.2368 -0.5717
49146SOL    HW253402   9.077  10.496   8.922  0.3674  1.9040 -1.5849
49147SOL     OW53403  11.816   7.586  10.293 -0.3710  0.3759  0.4627
49147SOL    HW153404  11.727   7.590  10.328 -0.0641 -0.4276  1.4017
49147SOL    HW253405  11.865   7.649  10.346 -0.2992  0.5124  0.2323
49148SOL     OW53406   7.841   9.736  10.694  0.0010  0.3138  0.6975
49148SOL    HW153407   7.749   9.715  10.681  0.0462  0.8768 -0.6030
49148SOL    HW253408   7.865   9.688  10.774 -0.9799 -1.1340  0.1541
49149SOL     OW53409   3.914  10.758   9.431  0.2649  0.2437 -0.2994
49149SOL    HW153410   3.896  10.668   9.461  2.3923 -0.2126 -0.2423
49149SOL    HW253411   3.831  10.787   9.392 -0.9407 -1.1538  1.0924
49150SOL     OW53412   0.953   1.992  11.481  0.5331 -0.0061 -0.1423
49150SOL    HW153413   0.912   1.918  11.437 -0.0413  0.6820 -0.7897
49150SOL    HW253414   1.016   1.952  11.542  0.8772 -0.9850 -1.1182
49151SOL     OW53415   5.071   2.788   2.790 -0.3794 -0.0060  0.2746
49151SOL    HW153416   5.100   2.851   2.856  1.4410  1.3916 -1.7236
49151SOL    HW253417   5.011   2.838   2.734 -1.0635 -0.8439  0.2523
49152SOL     OW53418   8.142   1.696   6.685 -0.3712 -0.3274 -0.0723
49152SOL    HW153419   8.150   1.692   6.590  0.1535 -0.8566 -0.0108
49152SOL    HW253420   8.210   1.638   6.718 -0.6658 -0.2952  0.6263
49153SOL     OW53421   0.764   7.632   1.227 -0.2036 -0.0448 -0.0429
49153SOL    HW153422   0.826   7.559   1.228  1.6611  1.4585  1.5543
49153SOL    HW253423   0.787   7.681   1.148  0.3985  0.3072  0.3491
49154SOL     OW53424   4.726   2.835   5.648 -0.1571 -0.0105  0.1919
49154SOL    HW153425   4.673   2.841   5.728 -0.5451  0.5884 -0.0998
49154SOL    HW253426   4.706   2.916   5.600 -0.1807 -0.5070 -0.6593
49155SOL     OW53427  12.177   4.582   7.244 -0.2770 -0.4158 -0.3113
49155SOL    HW153428  12.272   4.583   7.257 -0.2664  0.5616 -0.3915
49155SOL    HW253429  12.142   4.545   7.326  0.1626 -0.6167 -0.2143
49156SOL     OW53430   0.815  11.459   5.659  0.4587  0.0891 -0.1724
49156SOL    HW153431   0.747  11.500   5.605  0.6762  1.2623  0.4223
49156SOL    HW253432   0.845  11.385   5.606  0.6135  1.1540 -1.6417
49157SOL     OW53433   7.430   5.763  10.539  0.7034 -0.3485 -0.2408
49157SOL    HW153434   7.524   5.763  10.558  0.7356 -0.3276 -0.3929
49157SOL    HW253435   7.402   5.673  10.556  0.5701 -0.1508  0.6426
49158SOL     OW53436   4.382   9.431   6.090 -0.2813 -0.3658 -0.3365
49158SOL    HW153437   4.393   9.496   6.021 -0.4014 -0.6506 -0.6254
49158SOL    HW253438   4.470   9.400   6.109 -0.2371 -0.2097 -0.2857
49159SOL     OW53439   7.527  10.931   4.302 -0.1459 -0.4690  0.2662
49159SOL    HW153440   7.575  11.014   4.300 -2.6327  1.1257  0.8462
49159SOL    HW253441   7.542  10.893   4.215 -0.2431  1.4411 -0.6599
49160SOL     OW53442   6.956  11.275   3.867  0.6307  0.2443 -0.2594
49160SOL    HW153443   6.911  11.267   3.950  0.3256  0.0407 -0.4412
49160SOL    HW253444   6.892  11.245   3.802  0.7900  0.6084 -0.5876
49161SOL     OW53445  11.079   0.642   0.603 -0.6269  0.1434  0.1190
49161SOL    HW153446  11.039   0.706   0.544 -1.0518 -0.5456 -0.3538
49161SOL    HW253447  11.071   0.558   0.557  0.3750 -0.1782  0.5049
49162SOL     OW53448   7.139   3.643   1.411  0.2587 -0.3541 -0.6354
49162SOL    HW153449   7.200   3.692   1.466 -0.1722  1.1762 -1.4884
49162SOL    HW253450   7.068   3.619   1.470  0.2204  0.5206 -0.3138
49163SOL     OW53451   1.183   8.793   7.687 -0.0589 -0.4055 -0.3277
49163SOL    HW153452   1.164   8.825   7.776 -2.0515 -2.2294 -0.0099
49163SOL    HW253453   1.221   8.707   7.701  1.9425  0.2846 -1.2398
49164SOL     OW53454   7.797   6.715   5.677  0.6160  0.2371 -0.2002
49164SOL    HW153455   7.821   6.657   5.749  0.7537  1.0903  0.4567
49164SOL    HW253456   7.804   6.660   5.599 -1.5289 -1.2902  0.5866
49165SOL     OW53457   9.794   0.506   6.226 -0.4844 -0.1233  0.7423
49165SOL    HW153458   9.721   0.502   6.288 -1.1786 -0.2899 -0.0606
49165SOL    HW253459   9.870   0.527   6.280 -0.7474 -1.9126  1.8994
49166SOL     OW53460   6.087   9.490   0.819  0.3186  0.3581 -0.2710
49166SOL    HW153461   6.073   9.488   0.914 -1.0555 -1.5218 -0.4499
49166SOL    HW253462   6.161   9.431   0.804 -0.2225 -0.2742 -0.4638
49167SOL     OW53463  10.755   2.264   3.822  0.1559  0.7242 -0.0900
49167SOL    HW153464  10.713   2.178   3.827 -1.3201  1.4418  0.4526
49167SOL    HW253465  10.849   2.245   3.821 -0.0074 -0.7834  3.0635
49168SOL     OW53466   7.850   8.420   2.224 -0.0019 -0.5010  0.1109
49168SOL    HW153467   7.925   8.408   2.166  0.2872 -1.4363  0.6618
49168SOL    HW253468   7.839   8.515   2.230  0.2954 -0.3798 -1.0385
49169SOL     OW53469   1.075   4.205   2.679 -0.1221 -0.2557 -0.0424
49169SOL    HW153470   1.159   4.190   2.722 -0.8191  0.0931  1.5010
49169SOL    HW253471   1.015   4.143   2.720 -0.2302 -1.9584 -2.5689
49170SOL     OW53472   8.372   3.148   1.488 -0.2729  0.2113  0.0081
49170SOL    HW153473   8.358   3.214   1.556 -2.1337 -0.1165  0.0039
49170SOL    HW253474   8.312   3.173   1.418 -0.4162 -1.0112 -0.3338
49171SOL     OW53475   0.872   8.478  10.927  0.3422  0.6223  0.5609
49171SOL    HW153476   0.908   8.391  10.914 -1.1551 -0.0493  0.6533
49171SOL    HW253477   0.849   8.508  10.839 -0.8357  0.1225  0.6701
49172SOL     OW53478   7.468   0.894   4.602  0.2153  0.4163  0.5173
49172SOL    HW153479   7.562   0.907   4.608  0.7207 -1.5489 -1.5890
49172SOL    HW253480   7.444   0.857   4.687  1.6732 -0.6041  0.5298
49173SOL     OW53481   6.471   7.625   3.286  0.0556 -0.2608  0.4305
49173SOL    HW153482   6.514   7.541   3.303 -0.8007 -1.1152 -1.2796
49173SOL    HW253483   6.377   7.607   3.299 -0.1060  0.5521  0.4554
49174SOL     OW53484  11.341   2.175   9.497  0.2324 -0.1804  0.2495
49174SOL    HW153485  11.413   2.142   9.443  1.9536 -0.1706  2.3950
49174SOL    HW253486  11.367   2.264   9.520 -1.2486  0.3979 -0.2043
49175SOL     OW53487   9.770   3.639  11.636 -0.0699 -0.4029 -0.0353
49175SOL    HW153488   9.682   3.667  11.610  0.0071  0.2733  0.3911
49175SOL    HW253489   9.827   3.670  11.566 -0.3027 -1.8603 -0.8866
49176SOL     OW53490   2.226   9.271   6.145 -0.1639 -0.1865 -0.0903
49176SOL    HW153491   2.215   9.230   6.059  3.0587  0.9675 -1.1611
49176SOL    HW253492   2.170   9.349   6.142  1.6358  1.1041 -2.0943
49177SOL     OW53493   4.602  10.693  10.629 -0.1914 -0.5874  0.8255
49177SOL    HW153494   4.664  10.649  10.687 -0.2937  0.1418  1.5041
49177SOL    HW253495   4.516  10.677  10.668 -0.4009 -1.1909  0.1477
49178SOL     OW53496   4.348   9.722   7.226  0.2087 -0.6789  0.0708
49178SOL    HW153497   4.286   9.670   7.176  1.2334 -1.8140 -0.0916
49178SOL    HW253498   4.358   9.674   7.309  0.1555 -0.0050  0.4704
49179SOL     OW53499   3.561   6.150   3.548  0.1417  0.0126 -0.2843
49179SOL    HW153500   3.650   6.149   3.583  0.0377  1.7034  0.1316
49179SOL    HW253501   3.512   6.088   3.602  1.3413 -2.0251 -1.4219
49180SOL     OW53502   0.442  11.357   0.383 -0.6320  0.5117 -0.1384
49180SOL    HW153503   0.444  11.316   0.297 -1.4412 -1.7964  0.8621
49180SOL    HW253504   0.529  11.342   0.419 -0.7830  0.0651  0.0461
49181SOL     OW53505   4.662   7.475   7.612 -0.6242  0.0591 -0.0010
49181SOL    HW153506   4.713   7.397   7.592 -0.0206  0.3471  0.4078
49181SOL    HW253507   4.726   7.546   7.615 -0.4598 -0.0452  3.7894
49182SOL     OW53508   1.933   8.132  11.765  0.1014  0.3631  0.1008
49182SOL    HW153509   1.961   8.140  11.674 -2.3655  0.3198 -0.7098
49182SOL    HW253510   2.004   8.083  11.807  2.0273  1.7277 -1.3904
49183SOL     OW53511   0.897   0.262   4.159 -0.9756  0.2723  0.3936
49183SOL    HW153512   0.905   0.184   4.104  1.4150 -1.3793  2.7610
49183SOL    HW253513   0.981   0.307   4.150 -0.8129  0.3716  1.9882
49184SOL     OW53514  11.345   9.235   7.834 -0.0143 -1.0597 -0.3027
49184SOL    HW153515  11.249   9.243   7.829  0.1625  1.9264 -1.0264
49184SOL    HW253516  11.367   9.278   7.916  0.7947 -0.0239 -1.0394
49185SOL     OW53517   7.232  12.417   1.906 -0.2688  0.7670 -0.3070
49185SOL    HW153518   7.223  12.341   1.849  1.9056  0.6464 -0.5725
49185SOL    HW253519   7.210  12.384   1.993  1.2417 -0.3806 -0.3168
49186SOL     OW53520   1.899   6.071   2.231 -0.3123 -0.1334 -0.6277
49186SOL    HW153521   1.980   6.063   2.182 -0.5177 -2.0639 -0.7238
49186SOL    HW253522   1.843   6.127   2.177  0.4490  0.0491 -1.2371
49187SOL     OW53523   0.196   6.043  11.083 -0.5124  0.5776 -0.4846
49187SOL    HW153524   0.230   6.003  11.163  0.1790  1.8855 -0.1018
49187SOL    HW253525   0.264   6.027  11.017 -1.6903 -1.7518 -1.2550
49188SOL     OW53526   2.783   0.741  10.845 -0.0334  0.1398  0.0264
49188SOL    HW153527   2.750   0.699  10.925 -0.4804  1.6390  0.6710
49188SOL    HW253528   2.865   0.782  10.872 -0.1991  0.6735 -0.2704
49189SOL     OW53529   1.412   1.788  10.216 -0.0437  0.0461 -0.0281
49189SOL    HW153530   1.391   1.846  10.289  2.9983 -0.0642  1.0878
49189SOL    HW253531   1.395   1.840  10.138 -2.8350  0.3717  0.6856
49190SOL     OW53532   3.272   0.034   9.108  0.0391  0.0509  0.5333
49190SOL    HW153533   3.276   0.040   9.013  3.3312 -0.5861  0.5063
49190SOL    HW253534   3.188  -0.008   9.126 -1.4547  1.7300 -1.9274
49191SOL     OW53535   4.456   7.342   7.417  0.1868 -0.6012 -0.2580
49191SOL    HW153536   4.535   7.365   7.466 -0.1729 -1.1645  0.6009
49191SOL    HW253537   4.411   7.278   7.472  0.1464 -1.8206 -1.6350
49192SOL     OW53538  10.595  11.678   2.090 -0.3326  0.3545 -0.0409
49192SOL    HW153539  10.517  11.717   2.129 -0.9438  0.3907 -1.2474
49192SOL    HW253540  10.623  11.612   2.154 -0.6793  1.1165  0.9204
49193SOL     OW53541   6.689   7.871   2.376  0.6158 -0.4104 -0.2708
49193SOL    HW153542   6.616   7.875   2.314 -0.5613 -0.6156  1.0211
49193SOL    HW253543   6.754   7.931   2.341 -0.4558  0.2899 -1.1452
49194SOL     OW53544   6.913   2.820   5.180  0.2052 -0.4810  0.0152
49194SOL    HW153545   6.890   2.734   5.214 -0.4185 -0.6533 -0.8009
49194SOL    HW253546   6.846   2.839   5.114  1.5961 -0.3648 -1.4314
49195SOL     OW53547   0.709   8.512   2.892  0.2262 -0.2604  0.4132
49195SOL    HW153548   0.724   8.605   2.906 -0.0539 -0.1338 -0.1186
49195SOL    HW253549   0.668   8.482   2.973 -0.3308  0.2251  0.3178
49196SOL     OW53550   8.080   0.719   4.052  1.0057  0.8208 -0.4183
49196SOL    HW153551   8.000   0.672   4.075  0.8441  1.4859  0.4169
49196SOL    HW253552   8.063   0.754   3.964 -0.1849  2.1523  0.3123
49197SOL     OW53553   2.132   5.045   4.715  0.3013  0.0299  0.2559
49197SOL    HW153554   2.184   5.080   4.643  0.2606  0.7493  0.5668
49197SOL    HW253555   2.041   5.053   4.685  0.3124 -0.1861  0.1644
49198SOL     OW53556   1.926   5.312   3.378  0.0745  0.2302 -0.0930
49198SOL    HW153557   1.961   5.395   3.412  0.5575 -0.0795  0.1786
49198SOL    HW253558   1.993   5.280   3.318 -0.4858  0.4451 -0.8447
49199SOL     OW53559   4.658   5.160   7.282 -0.1714  0.1327  0.6532
49199SOL    HW153560   4.716   5.107   7.338  0.3402 -1.8922 -1.6255
49199SOL    HW253561   4.717   5.210   7.226 -0.6748  1.3222  1.1493
49200SOL     OW53562  12.152   3.822   9.091  0.4071  0.7257 -0.6276
49200SOL    HW153563  12.118   3.776   9.168  1.7814 -0.0362 -0.4408
49200SOL    HW253564  12.085   3.811   9.024  0.9480 -2.1704 -0.8077
49201SOL     OW53565   5.015  10.399   0.124  0.1653  0.2822 -0.0723
49201SOL    HW153566   4.929  10.358   0.114  0.8360 -0.8736 -1.6189
49201SOL    HW253567   4.999  10.492   0.108 -0.6250 -0.0731 -1.5262
49202SOL     OW53568   8.203  11.087   1.923 -0.5706 -0.2659 -0.6868
49202SOL    HW153569   8.262  11.074   1.848  0.1200  0.7094 -0.3307
49202SOL    HW253570   8.250  11.049   1.997 -1.4089 -1.5484 -0.7923
49203SOL     OW53571   6.030   8.731  12.470 -0.1454  0.4121  0.1308
49203SOL    HW153572   6.042   8.785  12.548 -0.5439 -0.4112  0.7834
49203SOL    HW253573   6.074   8.649  12.490 -0.6042  0.0401 -0.3454
49204SOL     OW53574   4.715   6.758   2.479 -0.1908  0.0078 -0.1083
49204SOL    HW153575   4.806   6.758   2.509 -0.2479  0.2491  0.0681
49204SOL    HW253576   4.699   6.667   2.453 -0.2182 -0.2779  0.8669
49205SOL     OW53577  10.310   3.693   2.331  0.4236  0.1475  0.0198
49205SOL    HW153578  10.282   3.719   2.243 -1.6765 -0.0779  0.5620
49205SOL    HW253579  10.328   3.776   2.376 -0.6825  0.3995  0.0261
49206SOL     OW53580   6.122   5.406   0.474 -0.0584 -0.1256  0.1688
49206SOL    HW153581   6.185   5.344   0.510 -1.0638 -1.2151  0.1555
49206SOL    HW253582   6.099   5.463   0.547  0.2704 -0.3073  0.4137
49207SOL     OW53583   8.241   9.632   6.429 -0.1849 -0.1389 -0.3323
49207SOL    HW153584   8.252   9.633   6.524  0.9075  1.5160 -0.4601
49207SOL    HW253585   8.146   9.643   6.416 -0.2686  0.2464  0.5546
49208SOL     OW53586   6.013   8.440   5.686  0.0854 -0.0935 -0.1041
49208SOL    HW153587   6.065   8.368   5.649 -1.0323 -1.3294  0.6370
49208SOL    HW253588   5.924   8.406   5.688 -0.5400  1.4631 -0.0311
49209SOL     OW53589   2.996  11.065  10.994 -0.0268  0.2171 -0.2212
49209SOL    HW153590   3.038  10.995  11.043  0.9597 -0.3746 -1.8272
49209SOL    HW253591   2.902  11.044  10.997  0.2747 -1.4315 -0.9945
49210SOL     OW53592   2.104   8.404   9.327 -0.0612  0.4334 -0.8666
49210SOL    HW153593   2.052   8.329   9.353 -0.3442  0.4857 -1.2688
49210SOL    HW253594   2.194   8.371   9.322 -0.0503  0.3539 -0.1265
49211SOL     OW53595   9.794   7.712   9.616  0.6222  0.0989  0.4828
49211SOL    HW153596   9.732   7.641   9.599  2.1216 -0.8909 -1.1973
49211SOL    HW253597   9.760   7.786   9.567  0.9076 -0.5540 -0.7563
49212SOL     OW53598   5.847   3.014   4.036 -0.0034  0.6219 -0.1959
49212SOL    HW153599   5.837   3.041   4.127  1.6369  0.3591  0.0999
49212SOL    HW253600   5.851   3.095   3.986 -0.1712  0.7864  0.0606
49213SOL     OW53601   3.068   9.389   4.540  0.3813 -0.3829  0.2347
49213SOL    HW153602   3.120   9.388   4.460 -0.9486 -2.5729 -0.6972
49213SOL    HW253603   3.133   9.392   4.610  1.8612 -3.1065 -0.8780
49214SOL     OW53604   2.843   8.165  10.779  0.8882  0.6476  0.2683
49214SOL    HW153605   2.843   8.079  10.738 -0.1689  1.5779 -1.8493
49214SOL    HW253606   2.789   8.155  10.857 -0.4253 -0.3189 -0.7170
49215SOL     OW53607   3.512   0.221   9.458 -0.3425 -0.4046  0.0139
49215SOL    HW153608   3.459   0.156   9.412 -0.3128 -0.8437  0.5956
49215SOL    HW253609   3.598   0.179   9.467 -0.1104  0.0082 -0.2639
49216SOL     OW53610  12.480   5.482  10.599 -0.2224  0.4579  0.8334
49216SOL    HW153611  12.449   5.394  10.576  1.4221  0.2696 -0.9280
49216SOL    HW253612  12.572   5.471  10.620 -0.1749  1.6699  1.3630
49217SOL     OW53613   7.538   6.926   7.850 -0.0939 -0.0581 -1.0006
49217SOL    HW153614   7.554   6.857   7.914 -2.6103 -0.2789 -0.5122
49217SOL    HW253615   7.445   6.921   7.831 -0.8505  4.3115  0.3825
49218SOL     OW53616   9.938   1.304   5.027 -0.3278  0.1416 -0.5162
49218SOL    HW153617   9.880   1.329   5.099 -1.0896  0.3778 -1.2085
49218SOL    HW253618  10.015   1.267   5.071 -1.1451 -0.5236  0.4006
49219SOL     OW53619   8.540   3.723   2.243  0.1112 -0.7082 -0.5633
49219SOL    HW153620   8.505   3.655   2.300  0.4136  0.7255  1.4495
49219SOL    HW253621   8.631   3.732   2.270 -0.3261  1.5625  0.3893
49220SOL     OW53622   3.017   4.812  11.972 -0.1182 -0.2751 -0.1625
49220SOL    HW153623   2.947   4.822  11.907 -0.6762  0.6476  0.5465
49220SOL    HW253624   3.031   4.718  11.978 -1.9256 -0.5479  0.3170
49221SOL     OW53625   9.325   8.100   8.977 -0.0271 -0.3385  0.3661
49221SOL    HW153626   9.282   8.101   9.062 -0.4251 -0.7039  0.1758
49221SOL    HW253627   9.336   8.192   8.954 -0.4191 -0.2377  0.5658
49222SOL     OW53628   7.397   3.873   1.095 -0.5139 -0.3898  0.6397
49222SOL    HW153629   7.434   3.951   1.135 -0.8698 -0.4037  1.0003
49222SOL    HW253630   7.314   3.903   1.057 -0.9652 -0.7228  1.3392
49223SOL     OW53631  10.812   9.576   9.450  0.5517  0.0105 -0.0960
49223SOL    HW153632  10.828   9.666   9.477 -0.8258 -0.0594  1.0760
49223SOL    HW253633  10.720   9.573   9.426  0.7370 -0.9417 -0.7748
49224SOL     OW53634   5.467   2.816   6.207  0.2838  0.2918 -0.6757
49224SOL    HW153635   5.387   2.774   6.238 -0.6065  2.7206  0.5026
49224SOL    HW253636   5.524   2.820   6.284  1.5151 -1.1877 -1.4410
49225SOL     OW53637   2.776   3.448  11.284 -0.2830  0.2104 -0.6673
49225SOL    HW153638   2.811   3.461  11.372  1.4969 -0.5823 -1.2123
49225SOL    HW253639   2.697   3.396  11.297  1.4517 -2.4154  0.3569
49226SOL     OW53640  10.111   6.040   6.689 -0.4156 -0.2218  0.3450
49226SOL    HW153641  10.171   6.077   6.624 -2.1336  1.6031 -0.2915
49226SOL    HW253642  10.027   6.034   6.645 -1.5825  0.8379  2.2909
49227SOL     OW53643   1.061  10.041   0.620  0.0098 -0.2108 -0.0503
49227SOL    HW153644   1.115   9.967   0.649  0.9672  0.9789  1.2751
49227SOL    HW253645   1.022  10.076   0.700 -0.9887  0.3166 -0.7433
49228SOL     OW53646   2.986   5.272   9.661  0.4558 -0.1380 -0.6090
49228SOL    HW153647   2.896   5.300   9.645  0.8423  0.4649 -1.8042
49228SOL    HW253648   2.978   5.179   9.685 -0.4786 -0.0870 -0.6831
49229SOL     OW53649   3.312   6.384   1.019 -0.7098 -0.2044 -0.3474
49229SOL    HW153650   3.358   6.389   0.935  0.1877  2.4038  0.2150
49229SOL    HW253651   3.220   6.398   0.997 -0.5814 -0.3276 -0.9798
49230SOL     OW53652   1.966  10.576   8.965  0.4104 -0.1383 -0.4861
49230SOL    HW153653   1.905  10.509   8.934 -0.4079  0.3245  0.1012
49230SOL    HW253654   2.030  10.527   9.017 -2.1685 -0.1626  2.9950
49231SOL     OW53655  12.126   3.881  10.220  0.3596  0.3251 -0.0528
49231SOL    HW153656  12.219   3.895  10.203  0.2102  1.7417  0.1701
49231SOL    HW253657  12.083   3.959  10.187 -0.6247  0.2382  0.9433
49232SOL     OW53658   7.753   3.949   7.202  0.5912  0.0501 -0.0807
49232SOL    HW153659   7.806   3.932   7.125  2.3323  3.3641  0.2183
49232SOL    HW253660   7.698   4.023   7.178  0.3160  0.3872  1.4647
49233SOL     OW53661   3.684   9.294   4.274 -0.3499 -0.3148 -0.6319
49233SOL    HW153662   3.654   9.246   4.351  0.2606  1.7772  1.0230
49233SOL    HW253663   3.779   9.302   4.287 -0.6146  2.8790  0.2318
49234SOL     OW53664  10.595  11.086   5.037 -0.3828  0.2399  0.0442
49234SOL    HW153665  10.528  11.021   5.016 -0.2383 -0.1203  0.6540
49234SOL    HW253666  10.549  11.151   5.091 -0.5077  0.5993 -0.4961
49235SOL     OW53667   7.560   5.236   1.647  0.0573  0.2082 -0.3670
49235SOL    HW153668   7.514   5.262   1.728 -1.2963 -0.9290 -0.7362
49235SOL    HW253669   7.624   5.172   1.676  0.2212  0.4938 -0.0807
49236SOL     OW53670   6.271  12.434   5.551  0.4430  0.0807 -0.3855
49236SOL    HW153671   6.242  12.519   5.517 -1.5314 -1.0539 -1.7799
49236SOL    HW253672   6.361  12.425   5.519 -0.2991  0.4366 -2.8191
49237SOL     OW53673  10.977   9.643   8.376 -0.3534 -0.3708 -0.4360
49237SOL    HW153674  11.030   9.692   8.440  0.0446 -3.0314  1.4570
49237SOL    HW253675  11.038   9.625   8.305  0.4901 -0.9177  0.3912
49238SOL     OW53676  11.528   3.181  11.234  0.1353 -0.1858 -0.1783
49238SOL    HW153677  11.590   3.199  11.163  1.0402  1.3599  0.9427
49238SOL    HW253678  11.576   3.203  11.314 -0.9619 -1.5707  0.9293
49239SOL     OW53679   8.182   0.414   6.444  0.4892 -0.0236 -0.3309
49239SOL    HW153680   8.206   0.455   6.528  2.4614 -1.5809 -0.0711
49239SOL    HW253681   8.236   0.336   6.439 -0.5421 -0.6706 -2.4984
49240SOL     OW53682   4.434   8.906   5.381 -0.2010 -0.2998  0.7555
49240SOL    HW153683   4.457   8.984   5.430 -2.1017  0.9788 -0.2637
49240SOL    HW253684   4.433   8.934   5.290 -2.2612 -1.0981  0.4748
49241SOL     OW53685   4.382   1.046   5.468  0.5113  0.6156  0.0006
49241SOL    HW153686   4.364   1.134   5.436  0.2031  0.9474  1.0740
49241SOL    HW253687   4.349   1.045   5.557 -0.3721 -0.8757 -0.3047
49242SOL     OW53688   9.800   2.921  10.796  0.5586 -0.3788 -0.2524
49242SOL    HW153689   9.851   2.960  10.867 -0.1131  0.5535 -0.2630
49242SOL    HW253690   9.773   2.995  10.742  0.0259 -0.9556 -0.7986
49243SOL     OW53691   2.957  11.174   8.671  0.0658  0.0998  0.9460
49243SOL    HW153692   2.969  11.230   8.594 -0.8061  0.3097  0.9543
49243SOL    HW253693   2.863  11.176   8.688  0.2771  0.2719  2.1883
49244SOL     OW53694   9.657  11.611   1.972 -0.2628  0.4540 -0.3692
49244SOL    HW153695   9.671  11.677   2.040  0.1541  0.6676 -0.6608
49244SOL    HW253696   9.567  11.625   1.944 -1.5241 -1.5418  2.1784
49245SOL     OW53697   1.366   2.903   6.387 -0.2455 -0.1245 -0.0441
49245SOL    HW153698   1.293   2.936   6.440 -0.4660 -0.4782 -0.1241
49245SOL    HW253699   1.382   2.973   6.323 -0.6719 -0.1477 -0.1784
49246SOL     OW53700   8.654   4.975   5.302 -0.1455 -0.1985  0.0911
49246SOL    HW153701   8.706   4.915   5.249 -0.5146 -0.3562 -0.0983
49246SOL    HW253702   8.597   4.917   5.354 -1.7148  0.0068 -1.3279
49247SOL     OW53703  12.405   5.138  11.437 -0.0061 -0.4394  0.2306
49247SOL    HW153704  12.398   5.221  11.485  2.8851  2.1587 -3.2725
49247SOL    HW253705  12.323   5.133  11.387 -0.2475  0.2520  0.5323
49248SOL     OW53706   8.346   0.179   3.058  0.5003  0.2080  0.3398
49248SOL    HW153707   8.375   0.233   2.984  0.0065 -0.1256 -0.1008
49248SOL    HW253708   8.414   0.191   3.124  0.6889  0.9127  0.0247
49249SOL     OW53709   5.646   1.854   0.283  0.4954 -0.1705  0.3524
49249SOL    HW153710   5.698   1.928   0.251  0.0004 -0.1879 -0.5260
49249SOL    HW253711   5.673   1.781   0.228  0.1776 -0.3875  0.4843
49250SOL     OW53712   9.908  10.859   4.538 -1.4977  0.8107 -0.4477
49250SOL    HW153713   9.912  10.930   4.474 -0.8167  0.9976 -0.2091
49250SOL    HW253714   9.997  10.826   4.543 -1.7726  0.0575 -0.4098
49251SOL     OW53715  12.320   2.065   2.425  0.3184 -0.3669 -0.3373
49251SOL    HW153716  12.338   2.003   2.354 -0.0230 -0.8418 -0.0128
49251SOL    HW253717  12.401   2.066   2.476  0.2275 -0.7569 -0.1843
49252SOL     OW53718   7.255   2.983   7.520 -0.1540 -0.0707  0.0064
49252SOL    HW153719   7.272   2.941   7.605  0.1775 -0.0850 -0.0675
49252SOL    HW253720   7.160   2.976   7.509 -0.2365  0.2135  0.5218
49253SOL     OW53721   6.050   0.724   4.353 -0.4084  0.1937  0.1732
49253SOL    HW153722   6.069   0.743   4.445 -0.2814 -0.0953  0.2095
49253SOL    HW253723   6.020   0.633   4.354  0.1302  0.0064 -0.1393
49254SOL     OW53724   8.836   9.364   8.653  0.2300  0.4241 -0.0047
49254SOL    HW153725   8.909   9.317   8.611  0.0247 -0.0105  0.1183
49254SOL    HW253726   8.763   9.356   8.591  0.5908  1.8408 -0.6557
49255SOL     OW53727   1.681   8.216  11.710  0.1572  0.5355 -0.1029
49255SOL    HW153728   1.683   8.300  11.757  1.9353  1.8066 -2.2572
49255SOL    HW253729   1.766   8.176  11.728  0.2232  0.2907 -0.9114
49256SOL     OW53730   7.564  11.576   6.199  0.0761  0.1589 -0.2082
49256SOL    HW153731   7.477  11.578   6.159  0.1481 -0.9994 -0.4536
49256SOL    HW253732   7.547  11.560   6.292  0.0266  0.1796 -0.2137
49257SOL     OW53733  12.449   2.451   4.996  0.1819 -0.5948  0.0397
49257SOL    HW153734  12.505   2.384   5.036  0.5462 -0.0332  0.4951
49257SOL    HW253735  12.414   2.409   4.917  1.9444 -0.6943 -0.7408
49258SOL     OW53736   0.093   8.227  10.910  0.4348 -0.2637 -0.2143
49258SOL    HW153737   0.009   8.274  10.904  0.9710  0.7878  0.2589
49258SOL    HW253738   0.104   8.210  11.004  0.5287 -0.8276 -0.3252
49259SOL     OW53739  12.182   9.247   7.148  0.2925 -0.5256  0.4854
49259SOL    HW153740  12.249   9.236   7.080  1.0299  0.7473  0.9848
49259SOL    HW253741  12.182   9.340   7.168 -0.6193 -0.7283  1.5384
49260SOL     OW53742   6.503   3.258   0.837  1.2863  0.1061 -0.0196
49260SOL    HW153743   6.481   3.250   0.930  1.9766 -1.5623  0.0344
49260SOL    HW253744   6.446   3.327   0.805 -1.3883 -1.5086  0.9146
49261SOL     OW53745   4.864   0.676   8.363 -0.3416  0.6630 -0.8734
49261SOL    HW153746   4.800   0.605   8.357  0.2735  0.2098 -2.4445
49261SOL    HW253747   4.810   0.755   8.368 -1.0867  0.3274 -2.6960
49262SOL     OW53748   3.923   8.460  10.309 -0.1391  0.4529 -0.9553
49262SOL    HW153749   3.849   8.513  10.280 -0.2402  1.7549  1.4464
49262SOL    HW253750   3.967   8.514  10.374  0.4617 -1.9394  0.7618
49263SOL     OW53751   8.340   0.554   3.120 -0.3027 -0.0308 -0.1033
49263SOL    HW153752   8.368   0.482   3.063  1.2066  0.9395 -0.6709
49263SOL    HW253753   8.248   0.537   3.137 -1.2411  0.2546 -3.9060
49264SOL     OW53754   5.580   5.942   0.787  0.1391  0.4021  0.6243
49264SOL    HW153755   5.623   5.899   0.861 -0.5498 -2.5094 -0.5438
49264SOL    HW253756   5.494   5.901   0.782  0.6028 -0.4091 -2.4788
49265SOL     OW53757   3.341   1.481   0.610  0.2188 -0.0440  0.5183
49265SOL    HW153758   3.312   1.568   0.580 -0.5435 -0.6280 -0.5140
49265SOL    HW253759   3.436   1.487   0.615  0.2159  0.6576 -0.1887
49266SOL     OW53760   6.890  10.480   1.674 -0.0412 -0.5926 -0.0919
49266SOL    HW153761   6.936  10.399   1.696 -0.9459 -1.0274  0.2610
49266SOL    HW253762   6.851  10.509   1.757 -0.5924 -0.3706 -0.4178
49267SOL     OW53763  10.170   7.674  10.421  0.0761 -0.3193 -0.3627
49267SOL    HW153764  10.160   7.622  10.501  0.3697 -1.5392 -1.0847
49267SOL    HW253765  10.080   7.692  10.394 -0.0424  1.1864  0.8776
49268SOL     OW53766  12.490   9.275   7.699 -0.6766 -0.3868 -0.3941
49268SOL    HW153767  12.492   9.197   7.754 -1.8388 -0.2174 -0.0895
49268SOL    HW253768  12.571   9.270   7.648  1.8354  0.7516  3.0815
49269SOL     OW53769   6.728   1.867  10.168  0.3019  0.3633 -0.4049
49269SOL    HW153770   6.751   1.872  10.076 -1.4469 -2.1143 -1.0932
49269SOL    HW253771   6.635   1.887  10.171  0.0548 -0.7770  0.6118
49270SOL     OW53772   4.683   1.017  12.490 -0.2890  0.2877 -0.1885
49270SOL    HW153773   4.658   1.108  12.503  0.7579  0.7551 -1.2622
49270SOL    HW253774   4.702   0.985  12.578 -0.9616  1.0115  0.2298
49271SOL     OW53775   0.587   9.429   0.764  0.6288  0.3348 -0.5310
49271SOL    HW153776   0.672   9.423   0.721 -0.6998  1.4932 -3.6347
49271SOL    HW253777   0.594   9.508   0.819  1.5553  0.4000 -0.7209
49272SOL     OW53778   0.626   3.980  12.003 -0.3099 -0.2466  0.2728
49272SOL    HW153779   0.633   4.042  12.076 -0.4701  2.5183 -1.8920
49272SOL    HW253780   0.596   3.899  12.044  1.4599  0.5231  3.5291
49273SOL     OW53781   6.032   1.387   1.118  0.1850 -0.0090 -0.2452
49273SOL    HW153782   6.097   1.457   1.122  1.0815 -0.8869  1.9294
49273SOL    HW253783   6.073   1.313   1.163 -1.8980 -0.9466  0.2472
49274SOL     OW53784   0.564   9.451   6.094 -0.0864 -0.4320  0.0470
49274SOL    HW153785   0.597   9.537   6.068  1.6762 -0.5917  1.5812
49274SOL    HW253786   0.630   9.389   6.061 -0.3666 -1.0338  0.5979
49275SOL     OW53787   9.253   4.011   0.928  0.0068  0.2793 -0.2412
49275SOL    HW153788   9.183   4.070   0.954  0.6110  1.0653 -0.3470
49275SOL    HW253789   9.242   3.935   0.985 -0.4973  0.6985  0.2356
49276SOL     OW53790   8.567  10.462  12.418 -0.3826 -0.0497 -0.6622
49276SOL    HW153791   8.523  10.538  12.454 -0.3858  0.3837 -1.5398
49276SOL    HW253792   8.500  10.394  12.415 -0.7254  0.3020 -1.0485
49277SOL     OW53793   7.123   8.935  11.658 -0.1720  0.5932 -0.3737
49277SOL    HW153794   7.196   8.983  11.697  0.2749  2.9232 -3.6223
49277SOL    HW253795   7.157   8.905  11.574 -1.9831 -1.2887 -0.5125
49278SOL     OW53796   0.542   0.305   3.129 -0.7215  0.4265  0.2960
49278SOL    HW153797   0.473   0.367   3.151 -1.3709  0.3467 -1.3920
49278SOL    HW253798   0.584   0.285   3.213 -2.1232  1.2082  1.2169
49279SOL     OW53799   4.809   2.773  10.720  1.0404  0.3777 -0.0476
49279SOL    HW153800   4.737   2.715  10.747  0.9353 -1.3702 -3.5738
49279SOL    HW253801   4.765   2.854  10.694  0.5559  0.0518 -0.2698
49280SOL     OW53802  10.239  12.111   2.405  0.8993 -0.1155  0.4343
49280SOL    HW153803  10.188  12.077   2.332  1.0726  0.2362  0.1502
49280SOL    HW253804  10.257  12.034   2.459 -1.4403  0.0011  1.4849
49281SOL     OW53805   1.641   5.317   4.732 -0.1480 -0.4071  0.5388
49281SOL    HW153806   1.638   5.231   4.690 -0.9780  0.2984 -0.9358
49281SOL    HW253807   1.689   5.302   4.813  1.7781 -1.7977 -0.7508
49282SOL     OW53808   9.288   3.030   0.605 -0.3498  0.1783 -0.4689
49282SOL    HW153809   9.267   3.068   0.690 -1.9967  0.7274 -1.0858
49282SOL    HW253810   9.272   2.936   0.616  1.1175 -0.0144  0.2839
49283SOL     OW53811  11.241   0.360   9.681  0.4203  0.2005 -0.1874
49283SOL    HW153812  11.157   0.406   9.676 -0.4562 -1.1961  1.0522
49283SOL    HW253813  11.240   0.303   9.604  0.6022  0.7293 -0.5945
49284SOL     OW53814   3.111   6.792   3.681  0.0127  0.0667  0.6242
49284SOL    HW153815   3.049   6.865   3.681  1.1259  1.0342  1.0585
49284SOL    HW253816   3.070   6.726   3.624 -0.8538  1.1543 -0.0468
49285SOL     OW53817   0.867   5.643   0.252 -0.4404  0.2800  0.4599
49285SOL    HW153818   0.842   5.720   0.201 -2.0923 -0.5825 -0.0990
49285SOL    HW253819   0.793   5.583   0.243  1.5467 -2.1724 -0.6876
49286SOL     OW53820  10.326   1.411   5.222 -0.1533  0.3829  0.2553
49286SOL    HW153821  10.343   1.445   5.134 -0.8110  2.0688  0.7345
49286SOL    HW253822  10.395   1.450   5.276 -0.2857  0.0957  0.6345
49287SOL     OW53823  10.257   3.416  10.087 -0.6277 -0.0632  0.2133
49287SOL    HW153824  10.293   3.356  10.022 -0.4372 -1.3412  1.4642
49287SOL    HW253825  10.282   3.378  10.172 -1.2461  1.3195  1.0496
49288SOL     OW53826   0.611   5.731   1.652  0.0094  0.4432 -0.0521
49288SOL    HW153827   0.705   5.714   1.641 -0.0692 -0.5259  0.6139
49288SOL    HW253828   0.607   5.805   1.713  0.4003  4.4404 -4.3405
49289SOL     OW53829   3.436   9.306   1.291 -0.4092 -0.2661 -0.3029
49289SOL    HW153830   3.392   9.360   1.356  0.3534 -0.6830  0.5837
49289SOL    HW253831   3.383   9.226   1.287  1.1640 -1.5618  2.1268
49290SOL     OW53832   6.522   4.193   1.509  0.6067  0.7953  0.0569
49290SOL    HW153833   6.483   4.280   1.518  0.0568  0.5603 -0.0282
49290SOL    HW253834   6.525   4.177   1.415 -1.7777 -0.3584  0.0942
49291SOL     OW53835   5.187   7.745   5.706  0.0864 -0.3433 -0.0517
49291SOL    HW153836   5.257   7.769   5.645 -0.1199 -1.9772 -0.9966
49291SOL    HW253837   5.211   7.659   5.738 -0.3055  0.0953  1.4830
49292SOL     OW53838   8.668   6.537   3.762 -0.5981 -0.3140  0.2969
49292SOL    HW153839   8.630   6.620   3.732 -0.3388 -0.7850 -1.4750
49292SOL    HW253840   8.701   6.556   3.850 -0.9256  1.3391  0.0955
49293SOL     OW53841   0.409   7.048   3.360 -0.6490  0.1284 -0.2876
49293SOL    HW153842   0.492   7.093   3.340 -0.6349  0.8171  1.1939
49293SOL    HW253843   0.434   6.975   3.416 -1.0488  0.3308  0.1558
49294SOL     OW53844   6.674   7.062   8.215 -0.2265  0.5278  0.0934
49294SOL    HW153845   6.713   6.979   8.188  1.2837  0.8620  1.0706
49294SOL    HW253846   6.625   7.041   8.294 -0.6468  0.4065 -0.1967
49295SOL     OW53847   2.273  11.011   4.590  0.1916 -0.3448  0.3253
49295SOL    HW153848   2.268  11.106   4.600 -1.3717 -0.2608 -0.9486
49295SOL    HW253849   2.219  10.991   4.514  0.6922 -2.2457  0.4036
49296SOL     OW53850  10.180  10.310   4.010  0.0288 -1.1451  0.4343
49296SOL    HW153851  10.141  10.366   4.077  1.1595  1.0621 -0.6507
49296SOL    HW253852  10.246  10.258   4.057  0.8297  0.3800  1.0473
49297SOL     OW53853   5.698   0.702  11.806 -0.7055 -0.3236 -0.4454
49297SOL    HW153854   5.765   0.661  11.751 -1.6187 -1.5349 -0.7106
49297SOL    HW253855   5.717   0.671  11.895 -0.9346 -0.7037 -0.5274
49298SOL     OW53856   3.468   6.926  12.217  0.0500  0.0335 -0.3792
49298SOL    HW153857   3.431   7.010  12.190 -0.2911  0.1768  0.4926
49298SOL    HW253858   3.449   6.921  12.311  0.7209 -0.6842 -0.2759
49299SOL     OW53859   7.090   3.676   7.630 -0.4110 -0.1280  0.6641
49299SOL    HW153860   7.175   3.702   7.664  0.2749 -1.2672 -0.1238
49299SOL    HW253861   7.073   3.590   7.668 -0.5791 -0.5046 -0.2356
49300SOL     OW53862   6.786   3.107   3.327 -0.3004  0.0991  0.3756
49300SOL    HW153863   6.793   3.012   3.319  2.1614  0.1098  1.5760
49300SOL    HW253864   6.750   3.120   3.415 -0.5781  0.2809  0.2354
49301SOL     OW53865   1.491   6.666   2.143  0.1033 -0.9886 -0.2775
49301SOL    HW153866   1.447   6.722   2.206  0.4295 -0.3649 -0.5987
49301SOL    HW253867   1.424   6.604   2.115 -0.7401  0.3037 -1.1896
49302SOL     OW53868   7.605   8.766  10.749 -0.0128 -0.5139 -0.1148
49302SOL    HW153869   7.541   8.837  10.752 -1.7472 -1.9872 -0.6107
49302SOL    HW253870   7.563   8.694  10.796  0.0868 -2.4086 -2.7169
49303SOL     OW53871   3.770   7.672   2.973  0.2249 -0.1166 -0.0190
49303SOL    HW153872   3.819   7.653   3.054  0.4974  0.0499 -0.1422
49303SOL    HW253873   3.684   7.632   2.987 -0.8376  2.4682  1.6229
49304SOL     OW53874   1.846  10.265   2.234 -0.8800  0.6135  0.4289
49304SOL    HW153875   1.785  10.192   2.228 -0.4666  0.3021 -0.0690
49304SOL    HW253876   1.890  10.267   2.149  1.8178 -0.9676  1.6303
49305SOL     OW53877   5.172  10.415   4.473 -0.1259  0.4140 -0.0698
49305SOL    HW153878   5.213  10.462   4.546  0.5078  0.5379 -0.4919
49305SOL    HW253879   5.158  10.482   4.406 -0.9851  0.3601  0.0425
49306SOL     OW53880   8.568   8.259   3.132 -0.6400 -0.0685 -0.7546
49306SOL    HW153881   8.547   8.177   3.087 -2.9625  0.0932 -0.0698
49306SOL    HW253882   8.488   8.283   3.178  0.1380  2.3163 -0.4841
49307SOL     OW53883   0.648  11.170  12.008 -0.7122  0.0002 -0.6500
49307SOL    HW153884   0.668  11.239  11.946  0.5627  1.4834  1.2718
49307SOL    HW253885   0.719  11.106  11.996  0.0965  0.7665 -0.0936
49308SOL     OW53886   7.296   2.954  11.252  0.1106 -0.4380  0.0658
49308SOL    HW153887   7.279   2.913  11.337 -2.3842  0.9336  0.3302
49308SOL    HW253888   7.215   2.942  11.203  0.1555  1.9774 -0.7270
49309SOL     OW53889  11.410   4.579   2.926 -0.0825  0.7033  0.0837
49309SOL    HW153890  11.412   4.655   2.985  1.0986  1.1309 -0.4777
49309SOL    HW253891  11.477   4.597   2.861  0.8227 -1.2239  0.4098
49310SOL     OW53892   1.865  10.254   6.114 -0.0591 -0.4474 -0.0995
49310SOL    HW153893   1.889  10.240   6.206  1.5208 -3.2317 -0.8172
49310SOL    HW253894   1.900  10.341   6.094  0.7345 -0.3138  1.6030
49311SOL     OW53895   5.351   4.923   3.146 -0.2719 -0.0447 -0.2286
49311SOL    HW153896   5.343   4.830   3.122 -1.3471  0.0577 -0.3337
49311SOL    HW253897   5.445   4.940   3.146  0.0378 -1.5312  1.3563
49312SOL     OW53898   3.079   9.305  11.712 -0.1637  0.0534  0.1906
49312SOL    HW153899   3.129   9.224  11.717 -0.0429  0.1728  1.1440
49312SOL    HW253900   3.006   9.292  11.773 -0.2767  0.5688  0.1681
49313SOL     OW53901   6.438   2.218   1.867 -0.0529  0.1572  0.1719
49313SOL    HW153902   6.379   2.233   1.793 -0.0094 -1.7002 -0.2694
49313SOL    HW253903   6.503   2.288   1.860 -0.2340  0.1931 -1.3583
49314SOL     OW53904   2.587   1.065   6.605  0.0331 -0.0595 -0.0450
49314SOL    HW153905   2.657   1.130   6.601 -0.0619  0.1562  1.3275
49314SOL    HW253906   2.621   0.997   6.663  0.2388 -1.4114 -1.6689
49315SOL     OW53907   1.277   9.035   0.322  0.1245 -0.8483 -0.2132
49315SOL    HW153908   1.360   9.080   0.338  0.4809 -1.3098 -0.7228
49315SOL    HW253909   1.225   9.051   0.401 -0.0059  0.9563 -0.6118
49316SOL     OW53910  11.128   3.664   5.290 -0.1758 -0.3457 -0.2376
49316SOL    HW153911  11.126   3.568   5.290  0.5695 -0.4651  2.8133
49316SOL    HW253912  11.216   3.685   5.258  1.5616 -1.0254  3.4984
49317SOL     OW53913   1.149   8.454   9.881  0.1249  0.8985  0.0205
49317SOL    HW153914   1.087   8.402   9.932 -0.7389  0.9491 -0.9479
49317SOL    HW253915   1.160   8.405   9.800  1.9748  0.4894  0.4727
49318SOL     OW53916   9.852  10.845  11.528 -0.4255 -0.1466 -0.2749
49318SOL    HW153917   9.761  10.815  11.520 -0.6854  0.2225  0.9978
49318SOL    HW253918   9.845  10.940  11.529 -0.0594 -0.1247  0.2089
49319SOL     OW53919   0.806  10.871   0.821 -0.5006  0.5031  0.4950
49319SOL    HW153920   0.821  10.956   0.863 -0.3630  1.4618 -1.3753
49319SOL    HW253921   0.731  10.886   0.763 -0.0917 -0.4656 -0.3220
49320SOL     OW53922  10.744   8.560   3.184  0.4092  0.1914 -0.5407
49320SOL    HW153923  10.703   8.494   3.240  0.7145  0.4805  0.0250
49320SOL    HW253924  10.708   8.643   3.214  1.2098  0.4252 -0.2083
49321SOL     OW53925   9.962   3.285   5.018  0.7769  0.2302  0.2481
49321SOL    HW153926   9.966   3.366   4.968 -0.4186  0.2838  0.2077
49321SOL    HW253927   9.904   3.305   5.092  0.9510 -0.4114  0.5709
49322SOL     OW53928  12.200   1.095   7.923 -0.0640 -0.4878 -0.4824
49322SOL    HW153929  12.127   1.036   7.941 -0.2353 -0.6005 -1.5163
49322SOL    HW253930  12.278   1.041   7.941 -0.1819 -0.0602  1.6376
49323SOL     OW53931   0.691   0.099   8.195 -0.5286 -0.2378  0.1103
49323SOL    HW153932   0.660   0.092   8.285 -0.7418  0.5263  0.1049
49323SOL    HW253933   0.612   0.095   8.142 -0.8559  2.9306  0.1525
49324SOL     OW53934  12.320   7.181   1.344  0.2774  0.2098 -0.6509
49324SOL    HW153935  12.241   7.234   1.332  0.4906  1.2517  1.8430
49324SOL    HW253936  12.290   7.102   1.387  0.6056  0.9308  0.9896
49325SOL     OW53937  12.414   4.198   1.625  0.2952 -0.3237  0.4794
49325SOL    HW153938  12.389   4.237   1.541 -0.3844 -0.4228  0.6278
49325SOL    HW253939  12.332   4.160   1.659  0.7174 -0.9388  0.8363
49326SOL     OW53940   3.482  10.175   7.499 -0.6749  0.6032 -0.2554
49326SOL    HW153941   3.394  10.213   7.489 -1.0170 -0.1592 -0.2288
49326SOL    HW253942   3.517  10.216   7.578 -1.4115  0.1723  0.3140
49327SOL     OW53943   3.593   3.613  11.004 -0.1443  0.5061 -0.3249
49327SOL    HW153944   3.502   3.634  10.982 -0.1764 -0.4744 -1.2337
49327SOL    HW253945   3.602   3.638  11.095 -2.4219 -2.6060  0.9504
49328SOL     OW53946  11.943   5.827   4.121 -0.6107 -0.0981  0.0339
49328SOL    HW153947  11.998   5.802   4.195  0.5737  0.2257 -0.7111
49328SOL    HW253948  11.933   5.747   4.070 -1.9192 -0.4668  0.8149
49329SOL     OW53949   4.457   8.948   2.204 -0.4426 -0.1668  0.0369
49329SOL    HW153950   4.411   8.922   2.125 -2.4352 -0.0047  1.0775
49329SOL    HW253951   4.550   8.949   2.179 -0.7216 -2.8814 -1.5136
49330SOL     OW53952   4.768   1.418   7.027 -0.0691  0.3326 -0.1776
49330SOL    HW153953   4.825   1.353   6.984 -0.6926  0.0058 -0.5245
49330SOL    HW253954   4.681   1.379   7.023 -0.5835  1.5292 -1.0599
49331SOL     OW53955   7.128   1.005   2.936 -0.2605 -0.3032  0.0797
49331SOL    HW153956   7.078   0.928   2.908  0.0036 -0.5494  0.2749
49331SOL    HW253957   7.062   1.070   2.959 -0.4906 -0.5721  0.1850
49332SOL     OW53958   5.278   3.007   3.439  0.2550  0.4104 -0.2519
49332SOL    HW153959   5.274   2.917   3.471  1.5662  0.2211 -0.5529
49332SOL    HW253960   5.314   3.057   3.512 -0.1545  0.6437 -0.2031
49333SOL     OW53961   1.088   0.258   2.126  0.0636  0.5892  0.2475
49333SOL    HW153962   1.173   0.227   2.095 -0.6133  0.9542 -2.2767
49333SOL    HW253963   1.032   0.180   2.126  0.0695  0.5841  0.6152
49334SOL     OW53964   1.913  11.906   2.432 -0.5094  0.2806  0.7365
49334SOL    HW153965   1.968  11.833   2.405  0.7798  0.5549  2.4078
49334SOL    HW253966   1.874  11.877   2.515 -1.4491  0.8038  0.4918
49335SOL     OW53967   6.688   1.402  12.342 -0.3553 -1.1124  0.3672
49335SOL    HW153968   6.687   1.435  12.251 -0.5223 -0.8969  0.4451
49335SOL    HW253969   6.643   1.470  12.392 -0.4648 -1.3387  0.5774
49336SOL     OW53970   4.858   8.286   3.567 -0.0381 -0.1302 -0.4045
49336SOL    HW153971   4.842   8.378   3.547 -3.2446 -0.0579  1.8608
49336SOL    HW253972   4.905   8.288   3.651 -2.1953 -0.4845  0.8728
49337SOL     OW53973   3.858   3.842   9.328  0.0267  0.5319  0.0358
49337SOL    HW153974   3.813   3.780   9.386 -0.4683  0.2365 -0.6439
49337SOL    HW253975   3.896   3.788   9.260 -1.2920  1.0335 -1.1444
49338SOL     OW53976  11.785   7.295   1.009  0.3846 -0.7080 -0.7149
49338SOL    HW153977  11.793   7.327   0.919  0.3184  0.9759 -0.1461
49338SOL    HW253978  11.697   7.320   1.036  0.5308 -0.8854 -0.0621
49339SOL     OW53979   5.246   6.606   9.572 -0.1296  0.1304 -0.1049
49339SOL    HW153980   5.204   6.568   9.495 -0.5690 -0.6661  0.5043
49339SOL    HW253981   5.175   6.614   9.637 -0.1043  2.2117 -0.2573
49340SOL     OW53982   6.580   4.481   2.261  0.6212 -0.6553 -0.2949
49340SOL    HW153983   6.495   4.437   2.255  0.7442 -0.7816 -1.2773
49340SOL    HW253984   6.630   4.428   2.323 -0.8751  0.9021  2.4901
49341SOL     OW53985   1.571   0.825   0.256 -0.0484  0.6230 -0.2690
49341SOL    HW153986   1.597   0.914   0.232  2.6648  0.5252  1.7260
49341SOL    HW253987   1.476   0.830   0.270  0.0355  3.2224 -0.1794
49342SOL     OW53988   1.158   0.637   0.533 -0.4425  0.3615  0.3543
49342SOL    HW153989   1.085   0.607   0.479 -1.4677  1.3615  1.1351
49342SOL    HW253990   1.214   0.685   0.473 -0.6481 -0.0553 -0.1748
49343SOL     OW53991   7.840   8.967   2.797  0.0268 -0.1225 -0.2716
49343SOL    HW153992   7.848   8.948   2.704  0.6464  1.6155 -0.6079
49343SOL    HW253993   7.752   9.002   2.807 -0.4250 -1.2966  0.0081
49344SOL     OW53994   4.954   7.720   1.097 -0.2501 -0.3535  0.2357
49344SOL    HW153995   4.991   7.645   1.050  0.7415  0.0859  0.2875
49344SOL    HW253996   4.999   7.720   1.181 -1.1702 -0.4456  0.7317
49345SOL     OW53997   5.978   2.917  11.265  0.1760  0.9039 -0.0215
49345SOL    HW153998   5.969   2.845  11.328  0.0226  0.5559 -0.4379
49345SOL    HW253999   5.980   2.874  11.180 -2.5206  1.5312 -0.4807
49346SOL     OW54000  10.376  11.900   2.508 -0.2970 -0.4446 -0.2253
49346SOL    HW154001  10.368  11.842   2.583  0.4753  0.2189  0.3920
49346SOL    HW254002  10.458  11.948   2.523 -0.2007 -0.1973 -1.4186
49347SOL     OW54003   6.702   3.296   1.353  0.7593 -0.3012  0.2858
49347SOL    HW154004   6.786   3.342   1.349  0.3116  0.4294 -2.2812
49347SOL    HW254005   6.636   3.364   1.351  0.0163 -0.8516  2.7454
49348SOL     OW54006  11.018   2.264   2.500  0.2442 -0.3474  0.0745
49348SOL    HW154007  11.091   2.207   2.526 -0.4481 -1.0684  0.4742
49348SOL    HW254008  11.060   2.338   2.457  1.2408 -0.5949  0.5818
49349SOL     OW54009   6.277   1.530   4.902 -0.3145 -0.2708 -0.0143
49349SOL    HW154010   6.266   1.500   4.993  2.3003 -0.6038  0.2572
49349SOL    HW254011   6.338   1.604   4.909 -0.2825 -0.1413 -1.4834
49350SOL     OW54012   7.000   4.452  10.609 -0.3480  0.2999 -0.3889
49350SOL    HW154013   6.917   4.496  10.628 -0.7765 -0.6971  0.1873
49350SOL    HW254014   7.044   4.447  10.694  0.0400  0.3227 -0.5898
49351SOL     OW54015   5.704  12.277   9.348  0.3616  0.3369  0.2848
49351SOL    HW154016   5.793  12.266   9.382  0.6266 -0.7012 -0.7116
49351SOL    HW254017   5.715  12.287   9.254 -0.5999 -0.0729  0.1166
49352SOL     OW54018   8.267  10.657   4.982 -0.4239 -0.9951  0.7032
49352SOL    HW154019   8.246  10.685   4.893 -1.6813 -0.5939  1.1143
49352SOL    HW254020   8.184  10.663   5.030  0.3869 -0.4905  2.0939
49353SOL     OW54021  11.071   9.611  10.610 -0.1352  0.4268  0.2042
49353SOL    HW154022  11.012   9.549  10.566 -0.7957  0.1009  1.5114
49353SOL    HW254023  11.013   9.676  10.650  0.5204  1.4807 -0.5116
49354SOL     OW54024   9.769   0.402   2.608 -0.0513  0.0844  0.9430
49354SOL    HW154025   9.793   0.405   2.701  1.9431  0.6834  0.4744
49354SOL    HW254026   9.732   0.315   2.595 -2.1890  0.6460  2.6558
49355SOL     OW54027   2.885   5.135   2.177 -0.1938  0.8238  0.1960
49355SOL    HW154028   2.940   5.128   2.256 -0.6674 -0.6159  0.4321
49355SOL    HW254029   2.947   5.131   2.104  0.1984  1.5338  0.4856
49356SOL     OW54030   3.324   5.402   1.982 -0.5000 -0.3961 -0.2224
49356SOL    HW154031   3.418   5.399   2.000 -0.4496  1.3810  0.0391
49356SOL    HW254032   3.292   5.315   2.005  0.8923 -0.6659  0.8149
49357SOL     OW54033  11.675   5.079  10.735 -0.3310  0.7299  0.0667
49357SOL    HW154034  11.704   5.099  10.646 -3.3214  3.0714 -0.5486
49357SOL    HW254035  11.681   5.162  10.783  3.2153 -0.8813  2.8661
49358SOL     OW54036   5.938   9.405   9.836 -0.0230  0.2932  0.3711
49358SOL    HW154037   6.002   9.447   9.779  0.9215 -1.6116 -0.0401
49358SOL    HW254038   5.985   9.390   9.918  0.0359 -0.9253  0.1379
49359SOL     OW54039  11.451   3.519   6.025  0.0617  0.2502 -0.0383
49359SOL    HW154040  11.394   3.590   6.055 -0.6835 -0.3249 -0.0744
49359SOL    HW254041  11.540   3.555   6.031 -0.3668  1.5637 -1.0607
49360SOL     OW54042  12.203   9.058   0.757  0.5107 -0.3117  0.2850
49360SOL    HW154043  12.159   9.123   0.812 -1.6525 -0.5330 -1.0680
49360SOL    HW254044  12.261   9.011   0.817  1.3765  2.1390  1.5036
49361SOL     OW54045   3.182   7.993   5.675 -0.3280  0.4172  0.1897
49361SOL    HW154046   3.164   7.911   5.629 -1.6899  0.0715  1.2569
49361SOL    HW254047   3.112   8.052   5.648  1.2970  1.6788 -1.4905
49362SOL     OW54048   9.973   4.021   3.268  0.2109  0.1924 -0.1787
49362SOL    HW154049   9.986   3.975   3.185 -0.0749 -0.4837  0.1479
49362SOL    HW254050   9.988   3.955   3.335 -2.6797 -0.1311  0.2736
49363SOL     OW54051   1.558   1.179   3.697  0.8103 -0.0007 -0.2453
49363SOL    HW154052   1.609   1.098   3.687 -0.9408 -0.9460 -2.5239
49363SOL    HW254053   1.505   1.183   3.618 -2.7366  0.8201  1.9475
49364SOL     OW54054   3.961  11.068  11.247  0.1760  0.7817 -0.4736
49364SOL    HW154055   3.946  11.092  11.338 -0.0750  1.0534 -0.5896
49364SOL    HW254056   4.013  10.987  11.253  0.0924  0.7532 -0.0916
49365SOL     OW54057   5.475  12.323   5.943 -0.2177  0.4919 -0.0892
49365SOL    HW154058   5.452  12.380   6.015  0.7209  0.1784  0.4859
49365SOL    HW254059   5.522  12.380   5.881 -0.5662  0.6509 -0.2065
49366SOL     OW54060   3.895   2.422  12.394  0.0194 -0.2070  0.2675
49366SOL    HW154061   3.847   2.500  12.421 -1.2271 -1.4634  1.8017
49366SOL    HW254062   3.836   2.378  12.333  1.2123  0.5827 -1.5696
49367SOL     OW54063  12.414   0.212   6.507  0.6051  0.5706  0.0510
49367SOL    HW154064  12.444   0.203   6.597  0.2662 -1.7661  0.0011
49367SOL    HW254065  12.494   0.206   6.454  0.5781 -0.8048  0.1231
49368SOL     OW54066  10.544   8.399   7.411 -0.2117 -0.2878 -0.0614
49368SOL    HW154067  10.620   8.381   7.357  1.1733  0.2691  1.6250
49368SOL    HW254068  10.475   8.421   7.348  1.1851 -0.1220 -1.6037
49369SOL     OW54069   4.660  10.504   0.381 -0.4171 -0.0142 -0.0937
49369SOL    HW154070   4.632  10.439   0.317  2.9338  0.0366 -1.8345
49369SOL    HW254071   4.693  10.577   0.329  0.8513  0.7666  1.7060
49370SOL     OW54072   0.208   4.515   0.803 -0.2734 -0.6811  0.2274
49370SOL    HW154073   0.277   4.455   0.833  0.9144  0.2673 -0.5430
49370SOL    HW254074   0.142   4.457   0.764  0.1844 -1.5922  0.7627
49371SOL     OW54075  10.965   7.823  10.772  0.1826 -0.1462 -0.0617
49371SOL    HW154076  11.046   7.801  10.725 -0.3129  1.4776 -1.8230
49371SOL    HW254077  10.970   7.918  10.783 -0.7460 -0.2365  1.2798
49372SOL     OW54078   9.468   9.858   0.033 -0.1571  0.6596  0.0903
49372SOL    HW154079   9.381   9.841   0.069  0.4517 -0.0373  1.3335
49372SOL    HW254080   9.469   9.813  -0.051 -0.4470 -0.8396  0.8479
49373SOL     OW54081   1.245   6.457   9.322 -0.4452  0.0194  0.2361
49373SOL    HW154082   1.269   6.471   9.413 -0.3665  0.8685  0.0938
49373SOL    HW254083   1.321   6.414   9.284 -0.5554 -0.5145  0.6152
49374SOL     OW54084   9.926  10.066   9.054 -0.3734  0.3058  0.0156
49374SOL    HW154085   9.924  10.151   9.010 -2.2382 -0.8047 -2.2932
49374SOL    HW254086   9.859  10.073   9.122 -1.8011  0.2152 -1.3131
49375SOL     OW54087   0.060   1.666  11.488 -0.4328 -0.2490  0.1164
49375SOL    HW154088   0.074   1.650  11.394  0.6620  2.2087 -0.2060
49375SOL    HW254089   0.106   1.748  11.505  2.1366 -2.1385  3.5116
49376SOL     OW54090   0.065   8.793   3.336  0.3859 -0.0048  0.5427
49376SOL    HW154091   0.138   8.752   3.290  1.0050  0.6248  0.9465
49376SOL    HW254092   0.009   8.720   3.362 -0.4466 -0.3466 -1.9224
49377SOL     OW54093   1.750   9.245   6.141  0.1583 -0.0237  1.1804
49377SOL    HW154094   1.742   9.284   6.054 -0.8175 -1.4583  0.6005
49377SOL    HW254095   1.660   9.228   6.168  0.5222 -0.9640  1.8383
49378SOL     OW54096   2.772   9.268   6.043  0.5682 -0.2378  0.0223
49378SOL    HW154097   2.779   9.203   5.972  0.4039  0.6565 -0.8430
49378SOL    HW254098   2.745   9.217   6.119  0.8472 -1.2527 -0.5291
49379SOL     OW54099   9.252  11.065   6.966 -0.0141 -0.0561  0.1138
49379SOL    HW154100   9.337  11.094   6.998  0.3261 -0.7855 -0.1065
49379SOL    HW254101   9.194  11.072   7.043  0.3109  0.1641  0.3390
49380SOL     OW54102   0.938   3.023   9.581 -0.1481  0.3795  0.5725
49380SOL    HW154103   0.862   3.028   9.639 -0.6237 -0.5005  0.0356
49380SOL    HW254104   0.955   2.930   9.571  0.7366  0.5522  0.3200
49381SOL     OW54105   2.997   2.564   4.421 -0.3734  0.4532 -0.2012
49381SOL    HW154106   2.943   2.502   4.373 -1.6870  2.2190 -1.1090
49381SOL    HW254107   2.960   2.564   4.510  0.8281 -1.3701  0.3643
49382SOL     OW54108   8.773   6.336   3.589  0.2652  0.8359 -0.3332
49382SOL    HW154109   8.837   6.379   3.533  0.1942  1.4116  0.0087
49382SOL    HW254110   8.755   6.400   3.658  0.1165  0.2674  0.1687
49383SOL     OW54111   6.487   7.410  11.857 -0.5045  0.1431 -0.1628
49383SOL    HW154112   6.578   7.418  11.886 -0.1983  0.2809 -1.1143
49383SOL    HW254113   6.439   7.474  11.910 -0.0225  0.1622  0.2561
49384SOL     OW54114  10.686   1.214  11.360  0.4174  0.0239 -0.1939
49384SOL    HW154115  10.763   1.158  11.350 -0.3124 -0.8513 -1.2714
49384SOL    HW254116  10.721   1.300  11.383  1.8373 -0.0128 -1.9621
49385SOL     OW54117   1.173   1.414   5.361  0.3455 -0.1603 -0.4182
49385SOL    HW154118   1.102   1.360   5.327 -0.6810  1.3586 -0.8109
49385SOL    HW254119   1.129   1.491   5.399  1.7610  0.8097 -0.6497
49386SOL     OW54120  11.853   7.799   6.246  0.2626  0.1013 -0.6766
49386SOL    HW154121  11.891   7.795   6.334 -0.8892  2.3591  0.0062
49386SOL    HW254122  11.782   7.735   6.248  0.2693  0.1036  0.0071
49387SOL     OW54123   1.918   9.720   9.397  0.2206  0.0875  0.4897
49387SOL    HW154124   1.988   9.778   9.367 -0.5769  1.0400  0.3954
49387SOL    HW254125   1.960   9.634   9.406  1.1572  0.4011 -0.5427
49388SOL     OW54126  10.357   8.967   2.530  0.4058 -0.3743  0.5620
49388SOL    HW154127  10.400   8.884   2.548  1.7558 -0.3814 -2.1833
49388SOL    HW254128  10.274   8.943   2.488  0.2666 -0.3267  0.8077
49389SOL     OW54129   1.614   0.152  11.246  0.4594  0.1736 -0.4012
49389SOL    HW154130   1.529   0.192  11.264  0.4764  0.2798 -0.5668
49389SOL    HW254131   1.595   0.078  11.188  0.4091 -0.1538  0.0200
49390SOL     OW54132  10.588   3.004  12.478 -0.1970 -0.4245 -0.0580
49390SOL    HW154133  10.533   2.926  12.488 -0.5036 -0.1074  0.9411
49390SOL    HW254134  10.585   3.045  12.565 -0.0147  0.6777 -0.5615
49391SOL     OW54135   2.069   4.401   2.461 -0.1651  0.2151 -0.2802
49391SOL    HW154136   2.150   4.451   2.467  0.8300 -1.4638  1.5153
49391SOL    HW254137   2.074   4.358   2.376  1.2605 -0.4926  0.1310
49392SOL     OW54138   7.813   1.584   8.188 -0.1456 -0.7475 -0.0222
49392SOL    HW154139   7.762   1.642   8.244 -1.2719 -0.6699 -1.1067
49392SOL    HW254140   7.758   1.506   8.177  1.4073 -2.1897  1.5613
49393SOL     OW54141   3.686   1.656   3.569  0.2828  0.3612  0.1554
49393SOL    HW154142   3.682   1.560   3.564 -0.5466  0.3278  1.0124
49393SOL    HW254143   3.637   1.677   3.649  0.3143  1.5106 -0.1133
49394SOL     OW54144   4.890   1.791  10.561  0.3932  0.0669 -0.4967
49394SOL    HW154145   4.961   1.793  10.625  1.2692 -1.6917 -1.3403
49394SOL    HW254146   4.810   1.793  10.614  1.0544  1.2561  0.5027
49395SOL     OW54147   0.650  10.412   3.329 -0.5754 -0.0352  0.0732
49395SOL    HW154148   0.644  10.507   3.319 -1.7545 -0.1336 -0.2460
49395SOL    HW254149   0.560  10.382   3.325 -0.1041 -1.3755 -1.8612
49396SOL     OW54150  10.412   8.121   1.106  0.0736 -0.1986 -0.0144
49396SOL    HW154151  10.359   8.077   1.172  0.9241 -0.1542  0.7281
49396SOL    HW254152  10.349   8.157   1.043 -0.7943  0.2649  1.0858
49397SOL     OW54153   7.426   9.692  10.412 -0.2255  1.1525  0.2457
49397SOL    HW154154   7.444   9.602  10.383  1.2792  1.0790  1.3195
49397SOL    HW254155   7.492   9.745  10.367  0.8765  1.2871  1.9418
49398SOL     OW54156   2.317   0.085   5.251  0.4532  0.2257  0.5189
49398SOL    HW154157   2.336   0.174   5.280  2.0278 -0.1557  0.7988
49398SOL    HW254158   2.376   0.071   5.176  0.3219 -0.6028  0.5560
49399SOL     OW54159   7.288   5.965   6.931 -0.5250  0.2591 -0.2758
49399SOL    HW154160   7.323   6.050   6.903  1.2973 -0.0115  0.9529
49399SOL    HW254161   7.323   5.953   7.020 -1.7937 -1.2148  0.0667
49400SOL     OW54162  12.102   4.213   0.907  0.3845  0.3780 -0.4220
49400SOL    HW154163  12.033   4.250   0.853  0.7448  0.1250 -1.0618
49400SOL    HW254164  12.091   4.118   0.898  0.4881  0.3331 -0.0975
49401SOL     OW54165   3.803   5.326   3.061  0.2052  0.3204 -0.4579
49401SOL    HW154166   3.802   5.386   3.136  0.4827 -0.9462  0.5881
49401SOL    HW254167   3.728   5.354   3.008 -0.5531  0.6818  0.7503
49402SOL     OW54168   4.166  10.420   6.025 -0.3475  0.0413 -0.3336
49402SOL    HW154169   4.118  10.448   5.947 -0.4700  0.2285 -0.1926
49402SOL    HW254170   4.222  10.494   6.047  3.4632 -1.6584 -3.1051
49403SOL     OW54171   5.128   8.412   2.009  0.0369 -0.6154  0.3697
49403SOL    HW154172   5.084   8.379   1.931  0.8079  1.6148 -1.0976
49403SOL    HW254173   5.210   8.449   1.977  0.1986  0.7189  2.1586
49404SOL     OW54174   2.456   9.647   0.121  0.3627  0.1230  0.7174
49404SOL    HW154175   2.497   9.574   0.167 -0.0964 -0.5534  0.0690
49404SOL    HW254176   2.362   9.634   0.135  0.0287 -1.3734 -2.1875
49405SOL     OW54177   1.029   5.677   5.941  0.1144  0.4235 -0.0625
49405SOL    HW154178   0.975   5.612   5.986  1.4410  0.0859  1.0984
49405SOL    HW254179   1.056   5.633   5.860  0.3892 -0.2148  0.3641
49406SOL     OW54180   4.389   9.689   6.880 -0.1237  0.1370  0.2903
49406SOL    HW154181   4.470   9.649   6.914  0.1063  0.7698  0.5114
49406SOL    HW254182   4.391   9.778   6.914  0.9463  1.3858 -2.6841
49407SOL     OW54183   5.165   5.731  11.785 -0.2286  0.5488  0.2529
49407SOL    HW154184   5.214   5.657  11.748 -0.2365  0.7157 -0.0913
49407SOL    HW254185   5.208   5.809  11.751 -0.4758  0.7005  0.2820
49408SOL     OW54186   0.394  10.208   2.364 -0.1341  0.1489  0.3080
49408SOL    HW154187   0.461  10.240   2.424 -1.0902  2.2339  0.3508
49408SOL    HW254188   0.428  10.230   2.277  0.2095 -0.8125  0.1816
49409SOL     OW54189   9.733   9.682   6.693 -0.5270  0.1435 -0.7870
49409SOL    HW154190   9.652   9.732   6.678 -1.5958 -1.2743 -0.0020
49409SOL    HW254191   9.792   9.711   6.623 -1.4678  1.6990 -0.9871
49410SOL     OW54192   9.943   1.749  11.936  0.2732  0.1065 -0.2175
49410SOL    HW154193   9.870   1.779  11.880  0.8447 -0.8052 -1.4900
49410SOL    HW254194  10.021   1.779  11.890  0.7598 -0.8136  0.0063
49411SOL     OW54195   4.762   7.285   4.766 -0.4222  0.3369  0.7266
49411SOL    HW154196   4.781   7.337   4.687 -2.3716  0.6777  0.4395
49411SOL    HW254197   4.800   7.335   4.838  0.6508  0.4447  0.1039
49412SOL     OW54198   6.353  10.308   3.065 -0.4774  0.1587 -0.2988
49412SOL    HW154199   6.349  10.269   2.978 -3.7642  2.3528 -1.2906
49412SOL    HW254200   6.425  10.370   3.061 -0.6322  0.2749 -1.4734
49413SOL     OW54201   0.569   4.379   1.321 -0.1898  0.5053 -0.2304
49413SOL    HW154202   0.654   4.364   1.281 -0.2857 -0.0461 -0.2295
49413SOL    HW254203   0.547   4.296   1.364 -1.0349  0.4243 -0.7987
49414SOL     OW54204   2.531   2.691  10.733  0.6533  0.5592 -0.1000
49414SOL    HW154205   2.458   2.677  10.672  0.4931 -0.2343  0.2608
49414SOL    HW254206   2.491   2.683  10.820  0.1230  5.1919  0.3154
49415SOL     OW54207   4.941   8.168   0.195  0.1125 -1.0037 -0.7428
49415SOL    HW154208   4.996   8.138   0.122  1.3372  1.7092 -1.0492
49415SOL    HW254209   4.963   8.260   0.205 -2.6095 -0.4288  0.8102
49416SOL     OW54210   5.039   1.228   4.637  0.3167  0.1806 -0.7573
49416SOL    HW154211   5.075   1.166   4.700  0.8326  1.6232  0.4151
49416SOL    HW254212   4.944   1.218   4.647  0.3124  1.8624  1.8817
49417SOL     OW54213   4.107   1.234   2.651 -0.1841  0.0420 -0.3374
49417SOL    HW154214   4.132   1.181   2.726  1.8136 -0.5964 -1.3617
49417SOL    HW254215   4.138   1.322   2.672 -2.3360  0.5901  0.8087
49418SOL     OW54216   8.247  10.119   9.397  0.0085 -0.3094 -0.3608
49418SOL    HW154217   8.152  10.107   9.391 -0.2198  0.8312  0.5794
49418SOL    HW254218   8.271  10.078   9.481  0.2221  0.0857 -0.2276
49419SOL     OW54219   9.848   0.484   0.197  0.0689  0.2371  0.0210
49419SOL    HW154220   9.828   0.577   0.210  1.0454  0.5233 -0.4578
49419SOL    HW254221   9.934   0.472   0.237 -0.0847 -0.4838  0.1498
49420SOL     OW54222   0.791   7.199   4.795 -0.1152 -0.0682 -0.1271
49420SOL    HW154223   0.784   7.218   4.702  0.3619 -0.3059 -0.2185
49420SOL    HW254224   0.867   7.249   4.824 -1.8011  2.1471  0.7333
49421SOL     OW54225   6.655  11.349  10.214 -0.2457 -0.2066 -0.1444
49421SOL    HW154226   6.649  11.294  10.137 -0.0681 -2.2638  1.2281
49421SOL    HW254227   6.655  11.439  10.180  2.1886 -1.0304 -2.6581
49422SOL     OW54228   8.608   2.687   7.871  0.2076 -0.1037 -0.5445
49422SOL    HW154229   8.633   2.758   7.931 -0.6629  0.3443 -0.6978
49422SOL    HW254230   8.513   2.693   7.865  0.3144  0.2734 -2.4649
49423SOL     OW54231   8.604  11.905   5.357 -0.1710  0.0943 -0.1625
49423SOL    HW154232   8.651  11.873   5.434 -0.5797 -0.3790 -0.1071
49423SOL    HW254233   8.551  11.830   5.328 -0.2468  0.3599 -0.7247
49424SOL     OW54234   3.059   4.673   8.487 -0.0119  0.3053  0.1142
49424SOL    HW154235   3.062   4.729   8.565  0.3478  2.0763 -1.0981
49424SOL    HW254236   2.984   4.706   8.437 -0.6372 -1.2357 -0.0240
49425SOL     OW54237   0.380   1.880   7.633 -0.2676 -0.4984 -0.0427
49425SOL    HW154238   0.426   1.811   7.585 -2.0233 -1.0752 -1.0019
49425SOL    HW254239   0.443   1.951   7.640 -0.0723 -0.0611 -3.9339
49426SOL     OW54240   3.983   5.216   9.521  0.1641  0.1655  0.2562
49426SOL    HW154241   3.900   5.169   9.520 -0.3008  0.9414  1.1130
49426SOL    HW254242   4.049   5.148   9.529 -0.4023 -0.4323 -0.0365
49427SOL     OW54243   1.104   3.782   6.993 -0.2350  0.1858 -0.8320
49427SOL    HW154244   1.040   3.837   7.037 -0.3290 -2.2054  2.3869
49427SOL    HW254245   1.057   3.701   6.973  1.7159 -1.8413  2.0950
49428SOL     OW54246   9.020   2.252   9.367  0.0000 -0.0590 -0.0608
49428SOL    HW154247   9.022   2.284   9.277  0.3934  0.0959 -0.0006
49428SOL    HW254248   9.109   2.268   9.400  0.4664 -1.9978 -0.2887
49429SOL     OW54249  11.740   3.356   1.485  0.1242 -0.7032  0.9379
49429SOL    HW154250  11.769   3.448   1.491  1.5413 -0.8341 -1.9224
49429SOL    HW254251  11.647   3.359   1.509  0.7027  0.9850  3.4224
49430SOL     OW54252   4.872  12.141   6.099  0.2814  0.0748 -0.2226
49430SOL    HW154253   4.807  12.171   6.034 -0.6393 -0.4556  0.4214
49430SOL    HW254254   4.917  12.068   6.056  0.6583  0.6313 -0.7848
49431SOL     OW54255   9.896   5.811   5.837  0.1648 -0.0780 -0.5802
49431SOL    HW154256   9.864   5.854   5.757 -1.3969 -0.6077 -0.2822
49431SOL    HW254257   9.898   5.880   5.903 -0.0513  0.0404 -0.6970
49432SOL     OW54258  11.550  11.595  10.852  0.8206  0.5062  0.2362
49432SOL    HW154259  11.494  11.636  10.919 -2.4816  0.1677 -2.0737
49432SOL    HW254260  11.517  11.631  10.769  3.4889 -0.5043 -1.3717
49433SOL     OW54261   3.199  10.034  10.288 -0.3228 -0.4228 -0.1922
49433SOL    HW154262   3.200   9.990  10.373  2.1581  2.1240  1.2590
49433SOL    HW254263   3.126  10.096  10.293 -0.6005 -0.7491 -0.1975
49434SOL     OW54264   9.763   9.241  12.402  0.1758  0.0443  0.5132
49434SOL    HW154265   9.782   9.264  12.493 -0.9550 -0.3594  0.8705
49434SOL    HW254266   9.704   9.310  12.372 -0.7770 -0.6982  0.6256
49435SOL     OW54267   4.795   1.842   2.216 -0.0363  0.4118  0.4802
49435SOL    HW154268   4.737   1.883   2.151 -1.7635 -0.7190  1.2108
49435SOL    HW254269   4.809   1.910   2.282 -0.5873  0.7029  0.3055
49436SOL     OW54270  11.121   6.469   3.424  0.6915  0.4131 -0.3763
49436SOL    HW154271  11.190   6.441   3.363 -0.5850 -0.0213 -1.6609
49436SOL    HW254272  11.040   6.442   3.382 -0.3248  1.7582  0.6715
49437SOL     OW54273   5.011   3.041   1.407  0.3985  0.3818  0.3247
49437SOL    HW154274   4.948   3.098   1.363  0.3568 -1.0329 -1.6134
49437SOL    HW254275   4.996   3.056   1.500 -2.0685  0.9251 -0.0734
49438SOL     OW54276   4.966   7.049  10.699 -0.2030 -0.3658  0.2340
49438SOL    HW154277   4.888   7.075  10.649  0.4265  2.5926  0.6380
49438SOL    HW254278   4.943   7.066  10.791  0.0803 -1.8987  0.6254
49439SOL     OW54279   6.442   5.329   3.983  0.0562  0.1297  0.0340
49439SOL    HW154280   6.459   5.257   3.922  1.6134  0.3134  0.2023
49439SOL    HW254281   6.347   5.341   3.980 -0.0624 -0.8602 -1.2140
49440SOL     OW54282   3.127   9.925  10.541 -0.5571 -0.1971 -0.2993
49440SOL    HW154283   3.032   9.939  10.548 -0.6568 -1.0064  0.0723
49440SOL    HW254284   3.161   9.952  10.626 -0.3549  0.7813 -0.6786
49441SOL     OW54285   6.023   2.389  10.061 -0.3380  0.0005 -0.1493
49441SOL    HW154286   6.115   2.372  10.042 -0.6375 -0.2653 -1.4431
49441SOL    HW254287   6.018   2.389  10.156  1.1095  0.6177 -0.0412
49442SOL     OW54288   9.005   4.864   5.737  0.4977  0.3083 -0.0061
49442SOL    HW154289   8.965   4.779   5.718  0.7398  0.2464 -0.2399
49442SOL    HW254290   8.936   4.913   5.781 -0.4962  0.9208 -2.1436
49443SOL     OW54291   8.020   2.895   7.531 -0.0540  0.1268 -0.2792
49443SOL    HW154292   7.961   2.857   7.596 -0.2920  0.5749 -0.2262
49443SOL    HW254293   8.098   2.841   7.534 -0.1085  0.0751  0.2998
49444SOL     OW54294  10.235   1.212   9.139  0.3807  0.4097 -0.4755
49444SOL    HW154295  10.278   1.176   9.062  1.0251  0.8578 -0.3290
49444SOL    HW254296  10.236   1.307   9.126  0.8939  0.5162  0.2860
49445SOL     OW54297   5.668   7.734   3.954  0.7173  0.0012 -0.2453
49445SOL    HW154298   5.716   7.673   3.898  0.2633 -0.5476 -0.0454
49445SOL    HW254299   5.685   7.703   4.043  0.3067  0.0377 -0.1550
49446SOL     OW54300   9.131   2.084  10.294 -0.7117  0.8530  0.1354
49446SOL    HW154301   9.075   2.030  10.239 -2.2342  1.2719  1.2114
49446SOL    HW254302   9.119   2.048  10.382  2.6241 -0.6407  0.1452
49447SOL     OW54303  10.799  11.465  12.089  0.0664  0.2364 -0.7266
49447SOL    HW154304  10.778  11.548  12.133  1.2928  0.5332 -0.6889
49447SOL    HW254305  10.843  11.413  12.156 -1.7821 -0.9826 -0.3485
49448SOL     OW54306   9.429  11.908   1.942  0.1654  0.0376  0.9195
49448SOL    HW154307   9.408  11.906   2.035 -1.6151  0.5650  0.5712
49448SOL    HW254308   9.430  11.816   1.915  0.9583 -0.1308  1.4983
49449SOL     OW54309   6.959   1.230   4.296  0.1065  0.3395 -0.3511
49449SOL    HW154310   6.988   1.314   4.330  0.7994 -0.0196 -0.0388
49449SOL    HW254311   6.874   1.248   4.257  0.7644  1.4198 -1.3333
49450SOL     OW54312   6.775   9.329   2.202  0.5761  0.4408  0.5647
49450SOL    HW154313   6.785   9.389   2.128  0.6492  0.5235  0.6413
49450SOL    HW254314   6.690   9.288   2.188  0.6178  0.4097  0.4006
49451SOL     OW54315   3.159   1.308   2.991  0.1816 -0.3956 -0.4650
49451SOL    HW154316   3.132   1.304   3.083 -0.8510  0.0432 -0.7308
49451SOL    HW254317   3.084   1.275   2.943  0.3991  0.1626 -1.2003
49452SOL     OW54318  11.997   2.418   7.425  0.2889  0.6267 -0.1643
49452SOL    HW154319  12.076   2.375   7.392  1.2539 -0.3429  2.9594
49452SOL    HW254320  11.926   2.358   7.404  0.5296  0.9261 -1.9437
49453SOL     OW54321   1.861   9.736   3.750  0.2142 -0.4920 -0.6392
49453SOL    HW154322   1.867   9.802   3.819  1.7146 -1.6101  0.3781
49453SOL    HW254323   1.809   9.666   3.788  0.6584 -0.9215 -0.8115
49454SOL     OW54324  11.510   9.751   2.991  0.0517  0.2185 -0.3841
49454SOL    HW154325  11.563   9.760   3.071  0.2430 -3.1552  0.0062
49454SOL    HW254326  11.563   9.697   2.933 -2.5924 -2.9575 -0.1475
49455SOL     OW54327  11.409  10.125  11.237 -0.2107  0.1405 -0.5654
49455SOL    HW154328  11.347  10.142  11.166 -2.1658 -1.2484  0.7201
49455SOL    HW254329  11.492  10.159  11.204 -1.1517  0.0807 -3.2786
49456SOL     OW54330   8.962   8.835   8.875  0.1895 -0.7787 -0.3570
49456SOL    HW154331   9.007   8.840   8.959 -0.9245 -1.0657  0.2830
49456SOL    HW254332   8.932   8.924   8.858 -2.4242 -1.2381  1.2203
49457SOL     OW54333   1.028   9.507   9.919 -0.2893 -0.1688  0.2100
49457SOL    HW154334   1.103   9.545   9.964  0.2000 -1.3209  0.3972
49457SOL    HW254335   0.977   9.466   9.988  0.2288 -1.5560 -0.2151
49458SOL     OW54336   9.894   6.917   8.564  0.2868  0.2505  0.4814
49458SOL    HW154337   9.808   6.891   8.532  0.2945 -0.0356  0.6941
49458SOL    HW254338   9.908   7.004   8.526  0.4646 -0.2401 -0.6077
49459SOL     OW54339   2.237   1.178   1.456 -0.2067 -0.0491 -0.0271
49459SOL    HW154340   2.240   1.205   1.364 -0.9622 -0.3393 -0.1483
49459SOL    HW254341   2.274   1.090   1.456  0.7619  0.3479  0.1172
49460SOL     OW54342   3.552  10.487   9.796 -0.4360  0.5683  0.2737
49460SOL    HW154343   3.624  10.425   9.809 -0.9789  0.1115  1.2995
49460SOL    HW254344   3.588  10.571   9.823 -0.2098  0.3804  0.5762
49461SOL     OW54345   4.098   1.914   4.829 -0.1019 -0.3600  0.2150
49461SOL    HW154346   4.067   1.847   4.890  0.9941 -0.1927  0.9747
49461SOL    HW254347   4.025   1.976   4.822 -0.5978 -0.8959  0.5879
49462SOL     OW54348   5.040   8.696   3.000 -0.0214 -0.5840  0.5663
49462SOL    HW154349   5.018   8.747   2.922 -0.2452 -0.7422  0.5251
49462SOL    HW254350   5.136   8.687   2.997 -0.1434 -1.7129 -0.3966
49463SOL     OW54351   2.841  12.478  11.465  0.0997 -0.0464 -0.2436
49463SOL    HW154352   2.895  12.488  11.543  1.6681  0.8802 -1.3755
49463SOL    HW254353   2.876  12.401  11.421  1.4455  1.3022 -1.6408
49464SOL     OW54354   1.579   3.227   1.406 -0.0866  0.1991 -0.4665
49464SOL    HW154355   1.670   3.196   1.408  0.0586  0.5930  1.3179
49464SOL    HW254356   1.586   3.322   1.417 -0.7089 -0.0227  3.2716
49465SOL     OW54357   6.172   8.054   2.469 -0.2252 -0.0852  0.6143
49465SOL    HW154358   6.138   7.978   2.423  0.8900 -2.1519  2.9625
49465SOL    HW254359   6.155   8.128   2.410 -0.1284 -2.2914 -2.4129
49466SOL     OW54360  12.211   9.338   9.922 -0.1917 -0.4659  0.2200
49466SOL    HW154361  12.121   9.321   9.893 -0.6015  1.3869  0.2493
49466SOL    HW254362  12.203   9.352  10.017  0.1343 -0.3080  0.2252
49467SOL     OW54363   4.320   1.956  10.056  0.1268 -0.4610 -0.2002
49467SOL    HW154364   4.405   1.930  10.090  0.1372 -0.7950 -0.4835
49467SOL    HW254365   4.327   2.051  10.044  0.0713 -0.3123  0.8593
49468SOL     OW54366   9.542   9.134   7.186 -0.0240  0.1154  0.3285
49468SOL    HW154367   9.544   9.130   7.090 -1.0373 -1.7976  0.3395
49468SOL    HW254368   9.520   9.045   7.213  0.1674  0.6356  2.3540
49469SOL     OW54369   3.726   3.888  10.422 -0.2664 -0.2548  0.5539
49469SOL    HW154370   3.816   3.915  10.405 -1.1576  2.3196 -0.4393
49469SOL    HW254371   3.693   3.861  10.337 -0.7469 -0.2282  0.7289
49470SOL     OW54372   5.965  11.345   5.325  0.3347  0.0877 -0.0094
49470SOL    HW154373   5.874  11.324   5.302  0.3754  0.7689 -0.8668
49470SOL    HW254374   6.010  11.261   5.322 -0.0844 -0.1282 -0.4927
49471SOL     OW54375   3.995   9.903   9.482 -0.0072 -0.3077 -0.1973
49471SOL    HW154376   3.939   9.891   9.406 -0.6244  1.9076 -0.1537
49471SOL    HW254377   3.951   9.856   9.553 -2.1512  1.7925 -0.0358
49472SOL     OW54378   8.587   3.952   5.064 -0.1876 -0.5724  0.5079
49472SOL    HW154379   8.556   3.863   5.078 -1.7810  0.2034  2.2801
49472SOL    HW254380   8.635   3.974   5.144  1.8166 -0.4288 -0.6677
49473SOL     OW54381   3.520   0.155   1.214 -0.9714 -0.2992 -0.3728
49473SOL    HW154382   3.499   0.237   1.169 -0.4100 -0.2913 -0.6318
49473SOL    HW254383   3.543   0.181   1.303  0.3158 -0.0264 -0.7512
49474SOL     OW54384  11.005   4.835  12.426  0.3013 -0.0123  0.6278
49474SOL    HW154385  11.068   4.793  12.485 -0.0214  0.2205  1.1381
49474SOL    HW254386  10.988   4.921  12.465 -1.0323 -0.4232  1.0138
49475SOL     OW54387   0.408   0.962   5.690  0.3599 -0.1815 -0.4499
49475SOL    HW154388   0.318   0.972   5.720  0.6984  1.7132  0.0698
49475SOL    HW254389   0.413   0.872   5.659 -1.0000 -1.1297  1.8320
49476SOL     OW54390   9.305   0.631   5.499  0.3118  0.8677 -0.2222
49476SOL    HW154391   9.308   0.658   5.407 -0.9543  0.8083 -0.2949
49476SOL    HW254392   9.213   0.613   5.516  0.7251 -0.6391  0.6227
49477SOL     OW54393   5.154   0.724   4.582 -0.0831 -0.0498 -0.1314
49477SOL    HW154394   5.093   0.655   4.607 -2.0142  1.8460  0.8182
49477SOL    HW254395   5.175   0.706   4.491  0.2345 -2.3649  0.3388
49478SOL     OW54396   4.309   6.944   1.124 -0.5697 -0.2331  0.9604
49478SOL    HW154397   4.365   6.973   1.196  0.2184  0.2462  0.1712
49478SOL    HW254398   4.318   7.013   1.058 -0.9460 -0.8812  0.2224
49479SOL     OW54399   7.069   7.048   7.148 -0.1876  0.2102  0.0772
49479SOL    HW154400   7.094   7.036   7.240  0.9943  0.9074 -0.1427
49479SOL    HW254401   6.981   7.087   7.153  0.6680  2.1879  0.9825
49480SOL     OW54402   3.291   6.044   9.428  0.1388  0.1889  0.6914
49480SOL    HW154403   3.208   6.080   9.396 -0.5076 -0.5601  1.4493
49480SOL    HW254404   3.266   5.996   9.507  1.1491 -0.8709  0.3843
49481SOL     OW54405  10.697   1.440   2.407 -0.0227  0.1619  0.4886
49481SOL    HW154406  10.740   1.517   2.369 -0.1921  0.5295  1.0374
49481SOL    HW254407  10.751   1.366   2.378  0.4537  0.5354  0.4139
49482SOL     OW54408   0.415   3.901  11.441 -0.0179 -0.1473  0.3097
49482SOL    HW154409   0.494   3.948  11.465  0.4810 -0.2522 -1.0554
49482SOL    HW254410   0.414   3.824  11.498  1.8393 -1.0994 -0.8546
49483SOL     OW54411   6.250  10.308   3.476 -0.6113 -0.4774  0.0765
49483SOL    HW154412   6.323  10.252   3.501  0.6284  0.8762 -0.3533
49483SOL    HW254413   6.291  10.388   3.444 -2.1739 -0.6088 -2.6358
49484SOL     OW54414  11.766   3.025   5.455 -0.5072 -0.0594 -0.2785
49484SOL    HW154415  11.750   3.092   5.521  2.4044 -0.4712  0.9718
49484SOL    HW254416  11.828   3.065   5.394  1.9378 -1.7653  0.9405
49485SOL     OW54417   4.076   1.656   8.266 -0.4638 -0.3412 -0.1522
49485SOL    HW154418   3.993   1.691   8.300  0.2560 -1.4891  3.1893
49485SOL    HW254419   4.065   1.658   8.171 -1.9857  5.0645 -0.2489
49486SOL     OW54420   6.593  11.738  10.321 -0.2514  0.2360  0.8998
49486SOL    HW154421   6.593  11.683  10.242  2.3582  0.4665  0.6445
49486SOL    HW254422   6.613  11.826  10.288 -0.2545  0.5419  1.6974
49487SOL     OW54423  11.707   7.984  10.413 -0.0299 -0.3484  0.1446
49487SOL    HW154424  11.621   7.987  10.454 -0.1409  1.0071 -0.1161
49487SOL    HW254425  11.755   8.057  10.452  1.0722 -1.1868  0.4117
49488SOL     OW54426  11.992  10.829   2.880  0.1320 -0.1469  0.5841
49488SOL    HW154427  11.898  10.832   2.862  0.5947  1.1927 -2.0100
49488SOL    HW254428  12.003  10.880   2.960 -1.0724  2.3442 -0.7382
49489SOL     OW54429   2.418   4.716   7.693 -0.7297 -0.2076 -0.0800
49489SOL    HW154430   2.411   4.627   7.726  1.9024 -0.3042  0.4462
49489SOL    HW254431   2.443   4.768   7.770  1.8046  0.2102 -1.0988
49490SOL     OW54432  10.393   8.876  10.480  0.3139 -0.6281 -0.1952
49490SOL    HW154433  10.370   8.952  10.425  2.5652  1.4037  1.4403
49490SOL    HW254434  10.467   8.836  10.434  1.4518  0.3876  0.6834
49491SOL     OW54435  10.413   3.992   3.603  0.1972  0.0574 -0.0246
49491SOL    HW154436  10.443   4.062   3.661  3.2411 -0.5260 -0.7381
49491SOL    HW254437  10.390   4.037   3.522  0.7262  0.4069  0.0105
49492SOL     OW54438   2.124   8.673   9.674 -0.0078 -0.3497 -0.1144
49492SOL    HW154439   2.116   8.759   9.716 -0.0049  0.3056 -1.4178
49492SOL    HW254440   2.096   8.611   9.741  0.8503  0.5826  1.1549
49493SOL     OW54441   6.409   7.266   8.348 -0.9099 -0.2735  0.0731
49493SOL    HW154442   6.398   7.214   8.269 -1.7086  0.2658 -0.1900
49493SOL    HW254443   6.412   7.356   8.317 -0.1780 -0.1179  0.5736
49494SOL     OW54444   2.441   5.295   3.010  0.1118  0.3206  0.1557
49494SOL    HW154445   2.375   5.358   2.982  0.8594  0.6106 -1.0516
49494SOL    HW254446   2.486   5.270   2.929 -0.2682 -1.9039  0.5565
49495SOL     OW54447   5.264   4.954   3.470 -0.1651  0.2282 -0.2072
49495SOL    HW154448   5.321   4.926   3.398 -1.5191  2.4292 -2.3327
49495SOL    HW254449   5.200   4.884   3.478 -0.2231  0.1005 -1.4820
49496SOL     OW54450   2.494   9.837   2.939  0.1826 -0.0857 -0.2841
49496SOL    HW154451   2.456   9.749   2.934  0.5834 -0.3467  0.9396
49496SOL    HW254452   2.475   9.866   3.029  2.5396 -0.0941  0.2801
49497SOL     OW54453  11.943   6.033   7.503 -0.0473  0.6382  0.0671
49497SOL    HW154454  11.942   6.067   7.413 -2.4151 -0.2742 -0.3236
49497SOL    HW254455  11.851   6.034   7.530  0.3001 -1.4614  1.5591
49498SOL     OW54456   3.633   4.112   7.484  0.1772  0.3279 -0.1576
49498SOL    HW154457   3.704   4.143   7.540  1.2559 -1.2045 -0.6060
49498SOL    HW254458   3.566   4.179   7.491  0.0881  0.0541  3.2547
49499SOL     OW54459   5.683   6.585   7.292  0.0112 -0.0932  0.2295
49499SOL    HW154460   5.682   6.559   7.200  2.6889 -1.5201  0.5046
49499SOL    HW254461   5.612   6.535   7.332  0.2928 -1.2699 -0.6751
49500SOL     OW54462   8.409   7.332   2.654 -0.2466 -0.7897  0.0202
49500SOL    HW154463   8.495   7.302   2.627  0.0205 -0.6409  0.6989
49500SOL    HW254464   8.398   7.416   2.609  0.0861 -0.6634  0.1758
49501SOL     OW54465   9.147   2.728   8.872 -0.4028  0.4787  0.1550
49501SOL    HW154466   9.212   2.764   8.932  1.7556 -0.3464 -1.5671
49501SOL    HW254467   9.062   2.750   8.912  0.8615  2.8777  1.7571
49502SOL     OW54468   5.811   8.556   5.344  0.1725  0.1958  1.0623
49502SOL    HW154469   5.763   8.586   5.267  3.0862 -0.8753 -1.3736
49502SOL    HW254470   5.844   8.636   5.385 -1.7811  0.8017  1.5694
49503SOL     OW54471   4.971  11.966  10.113  0.4360  0.6189  0.1710
49503SOL    HW154472   4.954  11.977  10.206  0.9526  0.4416  0.2880
49503SOL    HW254473   5.045  11.905  10.109  0.7345  1.0094 -0.3442
49504SOL     OW54474   5.615   9.494  11.420  0.0759  0.5598 -0.1208
49504SOL    HW154475   5.633   9.407  11.385 -1.2299  0.7149 -1.2833
49504SOL    HW254476   5.687   9.511  11.481 -0.1502 -1.7285  0.8998
49505SOL     OW54477   8.342  11.815   9.908 -0.0219 -0.1380 -0.1064
49505SOL    HW154478   8.285  11.891   9.924  0.3263 -0.3410  2.3681
49505SOL    HW254479   8.283  11.748   9.876 -0.6219  0.6376 -0.6746
49506SOL     OW54480   5.035   1.064   8.708  0.0092 -0.5397  0.0125
49506SOL    HW154481   5.120   1.044   8.747 -0.5516 -2.0802  0.5134
49506SOL    HW254482   5.036   1.159   8.697  1.3711 -0.4040  1.0017
49507SOL     OW54483   7.496   3.615   4.692 -0.2783 -0.2075  0.5830
49507SOL    HW154484   7.575   3.607   4.639 -0.1811 -0.7849  0.7990
49507SOL    HW254485   7.452   3.530   4.682 -0.6854 -0.0202  0.7517
49508SOL     OW54486   3.152   9.627   4.156  0.0356 -0.8860 -0.4901
49508SOL    HW154487   3.060   9.652   4.153  0.0281 -0.9202 -0.5438
49508SOL    HW254488   3.180   9.627   4.064  0.3365  0.0712 -0.4164
49509SOL     OW54489   0.888   8.071   2.152 -0.3352  0.2894  0.6857
49509SOL    HW154490   0.890   8.052   2.245 -2.5129 -1.5885  0.4322
49509SOL    HW254491   0.842   8.155   2.146 -1.4243 -0.2415  1.2765
49510SOL     OW54492   8.302   6.396   7.291  0.4459  0.2480  0.1848
49510SOL    HW154493   8.352   6.417   7.369  0.8222 -0.2120  0.0709
49510SOL    HW254494   8.360   6.417   7.218  0.3714 -0.0237  0.0440
49511SOL     OW54495   0.965   1.338   7.739 -0.2167 -0.3377 -0.2870
49511SOL    HW154496   0.921   1.409   7.691 -1.2683 -0.6881  0.1349
49511SOL    HW254497   0.973   1.371   7.828  2.0225  0.4429 -0.6893
49512SOL     OW54498  11.466  10.307   2.681  0.7251 -0.3696 -0.3917
49512SOL    HW154499  11.413  10.325   2.603  0.5773 -1.1493 -0.4787
49512SOL    HW254500  11.510  10.224   2.661  1.4440 -0.0843 -0.0393
49513SOL     OW54501   1.500   5.689  12.044 -0.0221  0.0367 -0.3250
49513SOL    HW154502   1.489   5.619  12.108  0.9251  1.2243  1.2202
49513SOL    HW254503   1.425   5.680  11.986 -0.9782 -1.0415  1.0019
49514SOL     OW54504   1.095   0.962  10.492  0.0771 -0.6239 -0.3825
49514SOL    HW154505   1.022   0.945  10.552  1.5281 -0.8848  1.3974
49514SOL    HW254506   1.143   1.034  10.533  1.1262 -0.8140 -1.2317
49515SOL     OW54507   5.202   8.423   1.346  0.7093  0.2213  0.0688
49515SOL    HW154508   5.142   8.349   1.345  0.4007  0.4621  0.2382
49515SOL    HW254509   5.217   8.440   1.439  0.1678  0.8483  0.0510
49516SOL     OW54510  12.356   0.649   6.024  0.1997  0.5818  0.1181
49516SOL    HW154511  12.276   0.640   5.973 -0.3748 -0.2913  1.1359
49516SOL    HW254512  12.426   0.656   5.959 -0.4901 -0.6551 -0.7871
49517SOL     OW54513   9.738   3.209   3.967  0.0559  0.3437  0.4222
49517SOL    HW154514   9.739   3.262   4.046 -1.5986  0.5090  0.3559
49517SOL    HW254515   9.776   3.125   3.993 -3.6762 -0.9433  2.4277
49518SOL     OW54516   8.057  10.974   2.791  0.0318  0.0794  0.0955
49518SOL    HW154517   8.035  10.980   2.698  2.9253 -0.9625 -0.7814
49518SOL    HW254518   8.142  11.018   2.797  1.5437 -2.8113  1.5399
49519SOL     OW54519   2.277   6.599   4.808  0.5787 -0.0347  0.3168
49519SOL    HW154520   2.351   6.623   4.864  0.0818 -1.0700  1.4593
49519SOL    HW254521   2.231   6.682   4.793 -0.3924  0.0520  3.1415
49520SOL     OW54522   7.146   0.919   4.664 -0.1105 -0.1916 -0.6384
49520SOL    HW154523   7.213   0.862   4.628 -0.3336 -0.6175 -0.3954
49520SOL    HW254524   7.144   0.995   4.606  0.4205 -0.2781 -0.7739
49521SOL     OW54525   4.652   7.244  11.162  0.2022  0.5244 -0.3797
49521SOL    HW154526   4.646   7.203  11.075  1.4166 -2.2745  0.7338
49521SOL    HW254527   4.579   7.305  11.165 -0.0044  0.5771 -3.2759
49522SOL     OW54528   6.287   2.600   1.500 -0.1702  0.5820  0.1409
49522SOL    HW154529   6.256   2.684   1.464 -2.1102 -1.0043 -2.2322
49522SOL    HW254530   6.353   2.571   1.437 -0.1350 -0.0619  0.4777
49523SOL     OW54531   9.041   5.544   0.797  0.0692 -0.1278 -0.0034
49523SOL    HW154532   9.034   5.469   0.857  1.5288 -1.0264 -0.8957
49523SOL    HW254533   9.043   5.505   0.710  0.2453  1.0050 -0.5241
49524SOL     OW54534   0.302   1.603   5.271  0.1375 -0.1371  0.0801
49524SOL    HW154535   0.388   1.627   5.238 -0.0749  0.3364 -0.1394
49524SOL    HW254536   0.320   1.547   5.347  0.6383  0.6352  0.5419
49525SOL     OW54537   5.165  10.764   6.337  0.6902 -0.0102  0.3779
49525SOL    HW154538   5.115  10.812   6.402 -0.4239 -0.3820 -0.1741
49525SOL    HW254539   5.255  10.797   6.346  0.4498  0.3369  1.6995
49526SOL     OW54540   7.384   4.981   3.360  0.4107 -1.0029 -0.6767
49526SOL    HW154541   7.452   4.917   3.340  0.4570 -1.2644  0.3022
49526SOL    HW254542   7.419   5.032   3.433 -0.4332 -1.1365 -0.1649
49527SOL     OW54543   5.210   8.676   1.025 -0.0121 -0.6124 -0.0122
49527SOL    HW154544   5.162   8.598   0.998  1.0668 -1.7016  1.0808
49527SOL    HW254545   5.263   8.700   0.949  0.9303 -1.9977  0.1682
49528SOL     OW54546  10.320   0.207   9.278  0.1351  0.4722  0.1568
49528SOL    HW154547  10.401   0.176   9.317  0.7111  1.8822  0.1644
49528SOL    HW254548  10.253   0.192   9.345  1.0477  2.5281  1.6501
49529SOL     OW54549   0.101   2.430   7.137 -0.2630  0.5417 -0.1407
49529SOL    HW154550   0.042   2.476   7.077  0.9131  0.7000 -1.2240
49529SOL    HW254551   0.108   2.488   7.213 -1.2301  0.6666 -0.1304
49530SOL     OW54552   1.383   2.618   7.888  0.3879  0.6756 -0.1751
49530SOL    HW154553   1.314   2.562   7.924 -1.1698  1.2095 -2.1526
49530SOL    HW254554   1.430   2.561   7.827 -0.2296  1.0923 -1.0530
49531SOL     OW54555   4.914   6.044   1.743 -0.4962  0.0809  0.7022
49531SOL    HW154556   4.882   6.085   1.662  3.1920 -0.0988 -1.0979
49531SOL    HW254557   4.975   6.109   1.778 -0.2729 -0.8344  2.0374
49532SOL     OW54558   8.148   7.672   0.893  0.0422  0.2511  0.2260
49532SOL    HW154559   8.148   7.708   0.804 -0.3624 -0.3616 -0.0227
49532SOL    HW254560   8.236   7.692   0.926  0.2611  0.3172 -0.3731
49533SOL     OW54561   3.504   1.282   6.722  0.0730 -0.4090 -0.1741
49533SOL    HW154562   3.582   1.327   6.689 -1.0794  0.1334 -2.3275
49533SOL    HW254563   3.535   1.194   6.745  1.4514  0.0258 -0.2641
49534SOL     OW54564   4.523   0.988   9.096  0.8083 -0.4417  0.0582
49534SOL    HW154565   4.455   1.023   9.154  0.9352  3.5372 -1.8420
49534SOL    HW254566   4.476   0.928   9.038 -1.1256  1.6540 -0.7265
49535SOL     OW54567   2.482   0.735   8.439  0.2705  0.3797 -0.6995
49535SOL    HW154568   2.499   0.813   8.493 -0.2932  0.2998 -0.3980
49535SOL    HW254569   2.507   0.762   8.351 -0.3815  1.0718 -0.6850
49536SOL     OW54570  10.726  10.605  10.785 -0.4562 -0.5783  0.4331
49536SOL    HW154571  10.638  10.597  10.748  0.2329  1.1400 -1.7794
49536SOL    HW254572  10.757  10.515  10.793 -1.5129 -1.1217 -1.1060
49537SOL     OW54573   8.580   3.238   1.679 -0.7178 -0.6061  0.4913
49537SOL    HW154574   8.523   3.311   1.655  2.3555  1.6284 -0.6432
49537SOL    HW254575   8.569   3.175   1.608 -0.7429  0.4528 -0.4876
49538SOL     OW54576   4.695   9.981  10.710  0.0690  0.0980  0.1841
49538SOL    HW154577   4.702   9.931  10.629  1.6013  0.5828  0.0004
49538SOL    HW254578   4.785   9.995  10.739 -0.4424 -0.5176  2.2829
49539SOL     OW54579   4.621   8.601  10.816  0.1139  0.0364 -0.1668
49539SOL    HW154580   4.589   8.571  10.731 -1.4592 -0.4885  0.5718
49539SOL    HW254581   4.705   8.557  10.828 -0.7894 -1.8003 -0.3822
49540SOL     OW54582  11.663   8.181   0.888 -0.2422 -0.2612  0.1443
49540SOL    HW154583  11.666   8.277   0.884 -2.6750  0.0525  2.6951
49540SOL    HW254584  11.725   8.158   0.958  1.3869 -0.7620 -1.3848
49541SOL     OW54585   7.652   8.673   3.989 -0.1490  0.2229  0.7217
49541SOL    HW154586   7.560   8.663   4.011 -0.1409 -1.6354  0.0722
49541SOL    HW254587   7.684   8.583   3.976  1.9223  0.7736  1.5900
49542SOL     OW54588   4.874   0.127   8.578 -0.2720 -0.4201  0.5688
49542SOL    HW154589   4.878   0.081   8.494 -1.4565 -0.2885  0.4179
49542SOL    HW254590   4.964   0.151   8.597  0.1114 -1.1228 -0.2907
49543SOL     OW54591   4.904   4.369   2.112  0.2996  0.1431  0.4109
49543SOL    HW154592   4.989   4.331   2.133  0.8370  2.4634  2.8876
49543SOL    HW254593   4.858   4.299   2.066  2.3717 -2.2891  1.7641
49544SOL     OW54594   7.217   9.082   7.481 -0.1995  0.0092  1.3487
49544SOL    HW154595   7.160   9.005   7.482 -0.9922  0.5712  0.8246
49544SOL    HW254596   7.249   9.087   7.391 -1.3202  1.1060  0.9834
49545SOL     OW54597   9.012  10.988   8.473 -0.5791  0.5260  0.4496
49545SOL    HW154598   9.079  10.931   8.437 -0.8033  1.1870 -1.1087
49545SOL    HW254599   9.005  10.963   8.565  0.6403 -0.6489  0.2436
49546SOL     OW54600   7.146   6.304   5.585  0.4326 -0.2411  0.4358
49546SOL    HW154601   7.131   6.350   5.502 -1.4882  0.4543  1.1167
49546SOL    HW254602   7.151   6.212   5.561  2.0447  0.0838 -0.6781
49547SOL     OW54603   5.113   1.457   0.597  0.1823  0.4207  0.2391
49547SOL    HW154604   5.088   1.545   0.568 -2.6789 -0.7886 -1.3526
49547SOL    HW254605   5.184   1.432   0.539  1.1870  1.7122  0.8539
49548SOL     OW54606   5.329   5.826   8.602 -0.1558  0.4312 -0.1998
49548SOL    HW154607   5.346   5.731   8.607 -1.0397  0.2826  0.0507
49548SOL    HW254608   5.271   5.843   8.675 -0.6047  1.0465 -0.6993
49549SOL     OW54609   9.763   7.522   0.780 -0.3095  0.5596 -0.3617
49549SOL    HW154610   9.759   7.518   0.685  1.6332  2.9257 -0.6315
49549SOL    HW254611   9.827   7.455   0.804 -0.7904 -0.0309 -0.7075
49550SOL     OW54612   7.964   9.967  12.444  0.4894 -0.6164 -0.4182
49550SOL    HW154613   7.928   9.896  12.498  1.9802 -0.7994  0.3915
49550SOL    HW254614   7.942   9.942  12.355 -1.1596 -0.8252  0.0071
49551SOL     OW54615   6.802  11.834   2.647 -0.0372 -0.6714  0.3897
49551SOL    HW154616   6.797  11.929   2.644 -0.9087 -0.7262 -0.2440
49551SOL    HW254617   6.790  11.806   2.556  1.4063 -1.3439  0.3857
49552SOL     OW54618   6.213   5.513   3.154  0.5925 -0.2399  0.2811
49552SOL    HW154619   6.293   5.534   3.104  0.3769 -0.3113 -0.0993
49552SOL    HW254620   6.145   5.505   3.087  0.0431  0.8511  0.6886
49553SOL     OW54621  12.210  10.413   1.256 -0.9331 -0.4556 -0.3967
49553SOL    HW154622  12.295  10.441   1.224  0.0633 -2.3143  0.4767
49553SOL    HW254623  12.147  10.454   1.197  0.6350 -0.6586 -2.2939
49554SOL     OW54624   6.395   4.345   6.988  0.3612 -0.8775  0.3372
49554SOL    HW154625   6.363   4.408   6.924 -0.2931 -0.7223  0.7988
49554SOL    HW254626   6.483   4.375   7.010 -0.1197  0.1786  0.9138
49555SOL     OW54627   4.992   9.158   3.325 -0.1295  0.3685 -0.0146
49555SOL    HW154628   5.059   9.221   3.300  1.1204 -1.9386 -3.3603
49555SOL    HW254629   5.041   9.083   3.360 -1.3626  0.2592  1.5948
49556SOL     OW54630  11.247   8.801   2.883  0.3702 -0.4675 -0.1786
49556SOL    HW154631  11.337   8.783   2.912  0.5452 -1.9913 -1.4798
49556SOL    HW254632  11.192   8.745   2.938  0.2406  0.2843  0.4569
49557SOL     OW54633   0.289   6.878   3.996 -0.3404 -0.0666  0.4643
49557SOL    HW154634   0.262   6.962   3.959  0.1481  0.2032  0.7051
49557SOL    HW254635   0.234   6.867   4.073 -0.8794 -0.2989  0.0530
49558SOL     OW54636   9.804   1.809   1.116  0.6875 -0.1835  0.1156
49558SOL    HW154637   9.711   1.792   1.125  0.6368  0.0071 -0.0397
49558SOL    HW254638   9.844   1.722   1.106  0.4483 -0.2214 -0.5492
49559SOL     OW54639   2.294   4.090   6.427 -0.4868  0.2130  0.5586
49559SOL    HW154640   2.252   4.010   6.460 -0.3668 -0.1464 -0.1613
49559SOL    HW254641   2.300   4.147   6.504 -1.3164 -0.1506  0.9020
49560SOL     OW54642   4.692   1.286   0.954 -0.7792 -0.4417 -0.0434
49560SOL    HW154643   4.628   1.240   0.899 -0.6590 -1.4945  0.6573
49560SOL    HW254644   4.772   1.289   0.901 -1.0904 -0.0908 -0.5017
49561SOL     OW54645  11.888   1.683   4.719 -0.1704  0.0558  0.2229
49561SOL    HW154646  11.966   1.662   4.667 -1.1952 -1.3654 -0.8299
49561SOL    HW254647  11.828   1.725   4.657 -0.8605 -0.3386  0.6098
49562SOL     OW54648  10.582  11.594   9.984 -0.2752  0.5444 -0.4800
49562SOL    HW154649  10.492  11.627   9.993 -1.0997 -1.5837 -0.2251
49562SOL    HW254650  10.633  11.647  10.045 -1.4349  1.5324 -0.3163
49563SOL     OW54651   2.942   4.005   6.461 -0.3945  0.6712  0.1628
49563SOL    HW154652   2.954   4.100   6.467 -2.9028  1.0392  0.5597
49563SOL    HW254653   2.878   3.985   6.529 -0.4157 -1.2140 -0.3692
49564SOL     OW54654   5.313   4.385   0.162  0.1964  0.0327  0.1064
49564SOL    HW154655   5.244   4.324   0.135 -0.6356  0.5393  1.0165
49564SOL    HW254656   5.365   4.336   0.225 -0.4215  0.2295  0.7748
49565SOL     OW54657  11.683  10.004   7.417  0.1249  0.0365 -0.0926
49565SOL    HW154658  11.681  10.096   7.389 -0.6693 -0.4450 -1.7116
49565SOL    HW254659  11.592   9.977   7.419  0.3162 -0.5813  0.9265
49566SOL     OW54660  10.216   8.149   1.554 -0.5241 -0.1193  0.3828
49566SOL    HW154661  10.227   8.067   1.601  1.0030  0.8322  1.7976
49566SOL    HW254662  10.160   8.202   1.610 -0.7344  0.1536 -0.0796
49567SOL     OW54663   7.817   5.851   2.714  0.2512  0.2978  0.0921
49567SOL    HW154664   7.760   5.806   2.652 -0.1108  1.4801 -0.4602
49567SOL    HW254665   7.896   5.797   2.718 -0.1450 -0.3432 -0.5906
49568SOL     OW54666   0.646   0.060  10.665  0.4189 -0.5267  0.6480
49568SOL    HW154667   0.681   0.060  10.754 -0.3528 -0.0112  0.9610
49568SOL    HW254668   0.551   0.057  10.677  0.3170 -0.7724 -0.1682
49569SOL     OW54669   9.787  11.981   7.736  0.5928  0.1423  0.3138
49569SOL    HW154670   9.815  12.073   7.743  0.0620  0.3710 -0.4845
49569SOL    HW254671   9.695  11.986   7.712  0.7131 -0.6013 -0.3330
49570SOL     OW54672  10.253   7.562  11.608 -0.0821 -0.1916  0.6299
49570SOL    HW154673  10.259   7.526  11.696  1.1214 -2.5761 -0.3412
49570SOL    HW254674  10.337   7.607  11.595 -1.0440  1.9730  1.3385
49571SOL     OW54675   6.996   2.338  12.067  0.6355 -0.6545  0.3243
49571SOL    HW154676   7.062   2.305  12.129  0.6184 -0.1034  0.6428
49571SOL    HW254677   7.040   2.408  12.019 -0.1509  0.7762  1.6048
49572SOL     OW54678   9.204   0.858   0.621 -0.3701 -0.4106 -0.1953
49572SOL    HW154679   9.249   0.942   0.623 -1.8451  0.4455 -1.4320
49572SOL    HW254680   9.183   0.840   0.713  0.9536 -0.0216  0.2143
49573SOL     OW54681   9.861   9.634  10.337 -0.6166  0.4863 -0.3397
49573SOL    HW154682   9.876   9.710  10.281  0.2983  0.3430 -0.3101
49573SOL    HW254683   9.785   9.590  10.299  0.0938  0.2953 -1.5724
49574SOL     OW54684   7.941   8.140   6.017  0.1061 -0.2371  0.0214
49574SOL    HW154685   7.977   8.092   6.092  0.7481  1.1463  0.6280
49574SOL    HW254686   7.961   8.232   6.035 -1.2623  0.3038 -1.0157
49575SOL     OW54687   4.652   8.787   8.465  0.0422 -0.4705  0.1583
49575SOL    HW154688   4.657   8.772   8.560  1.1893  0.0359  0.2007
49575SOL    HW254689   4.744   8.790   8.437 -0.2873 -0.3899 -0.9323
49576SOL     OW54690  11.342   7.690   5.462  0.1909 -0.3977  0.0260
49576SOL    HW154691  11.394   7.648   5.394  0.4883  1.1346 -0.7414
49576SOL    HW254692  11.402   7.753   5.502  0.0126 -1.2499  1.7162
49577SOL     OW54693   4.905   9.440   4.146 -0.3068 -0.4984  0.0568
49577SOL    HW154694   4.885   9.386   4.222  1.4918  0.0769  0.9917
49577SOL    HW254695   4.952   9.381   4.086 -0.6149 -0.6262 -0.0614
49578SOL     OW54696   0.418   1.119  11.712 -0.3476 -0.0290 -0.4243
49578SOL    HW154697   0.348   1.089  11.770  0.5078 -2.1525 -0.4134
49578SOL    HW254698   0.491   1.140  11.771  0.2967 -1.5547 -0.6286
49579SOL     OW54699   9.408   2.065   0.553 -0.7519  0.1516 -0.5394
49579SOL    HW154700   9.484   2.123   0.549  0.9183 -1.9425 -2.0938
49579SOL    HW254701   9.337   2.115   0.514 -0.0593  1.9712  0.4042
49580SOL     OW54702   6.374   1.250   6.709 -0.4269 -0.5806  0.1520
49580SOL    HW154703   6.408   1.181   6.651 -0.3520  1.0055 -1.7947
49580SOL    HW254704   6.449   1.273   6.764  0.9829  0.9447 -2.2117
49581SOL     OW54705  11.990   8.000   3.046 -0.0655  0.2767  0.4459
49581SOL    HW154706  12.027   7.913   3.059  0.2283  0.6184  2.1663
49581SOL    HW254707  11.912   8.001   3.100 -0.7015  0.7224 -0.4544
49582SOL     OW54708   4.503   1.925   5.077 -0.7421  0.0134 -0.1820
49582SOL    HW154709   4.528   1.866   5.005  1.7568 -1.1921  1.5392
49582SOL    HW254710   4.510   2.013   5.038  1.7998 -0.5252 -1.1662
49583SOL     OW54711   5.537   1.395   2.125 -0.0554  0.8744 -0.2283
49583SOL    HW154712   5.623   1.412   2.164 -0.4185 -0.0325  1.0377
49583SOL    HW254713   5.505   1.318   2.171 -1.4811  1.0941 -0.8077
49584SOL     OW54714   3.241   4.710   3.709  0.2867  0.2183 -0.5152
49584SOL    HW154715   3.179   4.755   3.766 -0.4996 -0.4834 -0.8043
49584SOL    HW254716   3.223   4.617   3.721 -0.0454  0.0556 -2.0566
49585SOL     OW54717  12.217   4.898   8.488  0.7226 -0.5706 -0.5983
49585SOL    HW154718  12.137   4.879   8.537  0.7863  1.9775  0.6813
49585SOL    HW254719  12.286   4.853   8.536  0.4858  0.1034  0.4045
49586SOL     OW54720  11.810   7.654   0.081 -0.4605 -0.3631  0.5542
49586SOL    HW154721  11.883   7.592   0.092  1.8080  1.8123 -1.1331
49586SOL    HW254722  11.821   7.716   0.152  0.9535  1.3550 -1.0579
49587SOL     OW54723   4.181   2.083   5.057 -0.0003 -0.0282 -0.0832
49587SOL    HW154724   4.271   2.114   5.052 -0.2140  0.5705 -0.3284
49587SOL    HW254725   4.169   2.031   4.978  0.3718 -0.7789  0.3478
49588SOL     OW54726  11.660   9.010   3.006  0.0469  0.1638  0.5081
49588SOL    HW154727  11.707   9.093   3.011  0.5509 -0.1555  1.1265
49588SOL    HW254728  11.693   8.968   2.926  0.4424  0.1689  0.6665
49589SOL     OW54729  11.450   2.472  12.200  0.2028 -0.4606 -0.0290
49589SOL    HW154730  11.528   2.520  12.171  0.9321 -1.9029 -0.5497
49589SOL    HW254731  11.484   2.387  12.229 -1.2858 -1.6099 -1.4555
49590SOL     OW54732   1.869   0.403   5.892 -0.3842  0.0722  0.7385
49590SOL    HW154733   1.875   0.487   5.936  1.3151  0.5195 -0.2672
49590SOL    HW254734   1.796   0.413   5.831  0.2454  1.0665  0.1327
49591SOL     OW54735   0.363   0.486  10.137 -0.7033  0.6879  0.1499
49591SOL    HW154736   0.307   0.518  10.067 -1.0637 -0.5727 -0.1715
49591SOL    HW254737   0.302   0.447  10.200 -0.2018 -1.9885 -0.8644
49592SOL     OW54738   0.158  10.051   1.282 -0.0114  0.6115 -0.7393
49592SOL    HW154739   0.233  10.105   1.307  0.1800  1.3755 -2.7895
49592SOL    HW254740   0.083  10.095   1.323  0.6404 -0.5323  1.8874
49593SOL     OW54741   9.204  12.203   7.044  0.3642 -0.1766  0.5071
49593SOL    HW154742   9.217  12.109   7.046  0.1318 -0.2578 -0.7880
49593SOL    HW254743   9.147  12.218   6.968  1.3733  1.1012 -0.0372
49594SOL     OW54744   7.228   5.617  11.396 -0.5624 -0.1995  0.1799
49594SOL    HW154745   7.262   5.551  11.457 -0.2789 -1.1981 -1.0326
49594SOL    HW254746   7.261   5.591  11.310 -0.5936  1.4292 -0.3724
49595SOL     OW54747   7.027   2.488   6.527 -0.0186  0.3210  0.0763
49595SOL    HW154748   6.976   2.460   6.603  1.9165  0.4107  1.4975
49595SOL    HW254749   6.984   2.447   6.452 -0.5557 -1.8609  1.4880
49596SOL     OW54750   7.692   9.883  11.184  0.6628 -0.4705  0.0585
49596SOL    HW154751   7.761   9.819  11.200 -0.7519 -2.4656 -1.3118
49596SOL    HW254752   7.621   9.856  11.241  0.9374  1.5510  1.4462
49597SOL     OW54753  10.494   1.685   3.797 -0.2763 -0.2859 -0.0772
49597SOL    HW154754  10.425   1.628   3.832  0.0738 -0.3245  0.5706
49597SOL    HW254755  10.575   1.644   3.826  0.0026  0.1390 -0.2477
49598SOL     OW54756  11.862   5.785   4.682 -0.7725  0.4483 -0.3928
49598SOL    HW154757  11.957   5.792   4.679 -0.7323  1.5124  1.5762
49598SOL    HW254758  11.835   5.778   4.590  1.1966 -0.0413 -0.9704
49599SOL     OW54759   3.195   5.402   3.953 -0.1688  0.1202  0.2947
49599SOL    HW154760   3.206   5.409   4.048  0.8660  0.2386  0.1859
49599SOL    HW254761   3.129   5.334   3.941 -1.7267  1.4417  1.1259
49600SOL     OW54762   8.429   8.609   0.875 -0.5158  0.3616  0.7594
49600SOL    HW154763   8.362   8.558   0.920 -0.1321 -1.7708 -0.9232
49600SOL    HW254764   8.488   8.637   0.944 -0.9670 -1.1634  1.8147
49601SOL     OW54765   4.933   1.808   5.014  0.2536 -0.0644 -0.1529
49601SOL    HW154766   5.014   1.811   4.963  0.2859  3.3539 -0.1502
49601SOL    HW254767   4.864   1.825   4.949 -0.2790 -0.9935  0.1584
49602SOL     OW54768   7.247   4.942   8.195  0.1732 -0.6596 -0.0918
49602SOL    HW154769   7.153   4.951   8.180  0.1672  0.1956  0.3588
49602SOL    HW254770   7.254   4.899   8.281  0.1794 -0.0238  0.2346
49603SOL     OW54771   1.822   9.977   6.930 -0.4391 -0.5408  0.1586
49603SOL    HW154772   1.790  10.013   7.013  1.9067  0.8764  0.5203
49603SOL    HW254773   1.767   9.901   6.914 -0.0352 -1.7381  3.7803
49604SOL     OW54774   6.110   2.218   8.854 -0.6214  0.0668  0.5148
49604SOL    HW154775   6.205   2.210   8.844 -0.7758 -0.5989 -0.6831
49604SOL    HW254776   6.080   2.253   8.770 -1.4211  0.4343  0.9444
49605SOL     OW54777  11.919   7.210  12.452  0.1167  0.2215  0.2632
49605SOL    HW154778  11.843   7.255  12.415  0.2124  0.4855  0.3876
49605SOL    HW254779  11.982   7.279  12.470  0.8758 -0.1295 -0.9667
49606SOL     OW54780   4.343   1.887   5.551  0.0995 -0.6232  0.0717
49606SOL    HW154781   4.366   1.938   5.473  0.4028 -0.9354 -0.0514
49606SOL    HW254782   4.289   1.945   5.604  0.3187 -0.2298 -0.1353
49607SOL     OW54783   6.347   6.648   4.195 -0.0301  0.1943 -0.2588
49607SOL    HW154784   6.393   6.732   4.185 -0.3297  0.1554 -2.6683
49607SOL    HW254785   6.404   6.596   4.252  0.6367  1.7038  0.5058
49608SOL     OW54786  11.884   8.153   6.860 -0.4127  0.4066 -0.4504
49608SOL    HW154787  11.973   8.172   6.831  0.9783  1.9966  4.0041
49608SOL    HW254788  11.838   8.237   6.855 -0.9909  0.0890 -0.6272
49609SOL     OW54789   6.029   1.140   9.476  0.0118 -0.4951 -0.2806
49609SOL    HW154790   5.953   1.088   9.447  0.3743 -0.9959 -0.3575
49609SOL    HW254791   6.020   1.145   9.571 -0.6664  0.3268 -0.3832
49610SOL     OW54792   4.305   7.974  12.054  0.4932 -0.5440 -0.0708
49610SOL    HW154793   4.339   7.983  12.142 -0.0215 -0.0898  0.0896
49610SOL    HW254794   4.220   8.019  12.056 -0.6164 -2.5166 -0.1711
49611SOL     OW54795   3.993   8.606   1.831  0.3919 -0.4264  0.4297
49611SOL    HW154796   4.030   8.651   1.755  0.0298 -0.9060 -0.0299
49611SOL    HW254797   4.005   8.669   1.903 -1.4824  1.0866 -0.4895
49612SOL     OW54798   6.188   1.838   9.881 -0.1881  0.0119  0.1147
49612SOL    HW154799   6.139   1.777   9.827  0.8265 -0.9641  0.2550
49612SOL    HW254800   6.255   1.874   9.822  1.1212 -1.2884  0.7258
49613SOL     OW54801   0.163  10.371   2.205  0.1626 -0.1330 -0.4541
49613SOL    HW154802   0.157  10.329   2.119 -0.5154  0.4565 -0.7088
49613SOL    HW254803   0.201  10.305   2.262 -0.7431 -1.0321 -0.8720
49614SOL     OW54804   9.169  11.378   2.291 -0.2676 -0.0999  0.0683
49614SOL    HW154805   9.117  11.443   2.338  0.9987 -0.1731  1.6740
49614SOL    HW254806   9.229  11.430   2.237  1.5050  0.1981  2.1841
49615SOL     OW54807   1.814   0.761   0.432  0.2870 -0.8756 -0.2348
49615SOL    HW154808   1.887   0.733   0.377 -0.3817 -1.1958 -0.9783
49615SOL    HW254809   1.748   0.792   0.369 -0.0470 -0.1842  0.4453
49616SOL     OW54810   3.838   0.878   3.531 -0.3875  0.1804  0.7431
49616SOL    HW154811   3.924   0.871   3.571  0.2918 -2.3914 -0.8534
49616SOL    HW254812   3.784   0.814   3.578 -0.5069 -0.4284 -0.1726
49617SOL     OW54813  10.017   6.925   7.921 -0.5304  0.1152  0.1506
49617SOL    HW154814   9.962   6.981   7.865 -0.0631  1.4604  0.9916
49617SOL    HW254815  10.022   6.972   8.004  0.2531 -0.9784  0.7436
49618SOL     OW54816   5.455   8.265   4.619 -0.1412 -0.1290 -0.3294
49618SOL    HW154817   5.403   8.202   4.569 -0.5641  0.3581 -0.5126
49618SOL    HW254818   5.464   8.225   4.705  1.3661 -1.4073 -1.0322
49619SOL     OW54819   5.296   1.008   2.433 -0.2740 -0.0937 -0.3375
49619SOL    HW154820   5.260   0.969   2.513  0.7848 -0.9767 -0.2763
49619SOL    HW254821   5.294   0.937   2.369 -0.1308  0.3110 -0.7945
49620SOL     OW54822   7.612   3.993   6.608  0.3248 -0.0096  0.1917
49620SOL    HW154823   7.552   3.953   6.671 -0.9353  0.6254 -0.5735
49620SOL    HW254824   7.608   4.087   6.627 -1.5662  0.4501 -1.9899
49621SOL     OW54825   3.502   2.525   2.090 -0.1082  0.1416  0.0186
49621SOL    HW154826   3.595   2.533   2.068 -0.3984 -1.5202 -2.2049
49621SOL    HW254827   3.458   2.578   2.023 -0.7827  0.9651  1.0975
49622SOL     OW54828  11.662   1.921   0.068  0.3673  0.6150  0.0207
49622SOL    HW154829  11.568   1.931   0.079  0.4371  1.0523  0.2390
49622SOL    HW254830  11.671   1.860  -0.006 -0.0775  0.9977 -0.3567
49623SOL     OW54831   8.215   6.206   7.874  0.4206 -0.0714  0.1179
49623SOL    HW154832   8.220   6.273   7.943 -0.6021  0.8060 -0.6073
49623SOL    HW254833   8.203   6.257   7.793 -2.0415 -1.1219 -0.2759
49624SOL     OW54834   0.900  10.747   3.967 -0.0242  0.5960 -0.2311
49624SOL    HW154835   0.897  10.744   4.062  0.5124  0.5872 -0.2076
49624SOL    HW254836   0.859  10.665   3.939 -0.1308  0.5714 -0.0035
49625SOL     OW54837   2.344   8.940   4.141  0.0464  0.5739 -0.5556
49625SOL    HW154838   2.398   8.923   4.064  1.6425 -0.1871  0.6606
49625SOL    HW254839   2.277   8.872   4.138 -0.0603  0.7128 -1.4124
49626SOL     OW54840   2.259  10.357   9.268  0.4618 -0.4425  0.0468
49626SOL    HW154841   2.319  10.339   9.341  2.3610  1.3963 -0.9410
49626SOL    HW254842   2.231  10.447   9.281 -2.0650 -1.2189  0.3867
49627SOL     OW54843   3.679   7.524   6.704  0.1072  0.0998  0.0685
49627SOL    HW154844   3.584   7.518   6.691  0.3819 -2.0364 -1.5494
49627SOL    HW254845   3.691   7.514   6.798 -1.1853 -2.9146  0.0394
49628SOL     OW54846  11.892   2.570   7.828  0.4496  0.1029  0.0383
49628SOL    HW154847  11.808   2.563   7.784  0.0654 -0.6622  0.8509
49628SOL    HW254848  11.953   2.596   7.760 -0.7832  2.8181 -0.1624
49629SOL     OW54849   8.202   2.662   3.279 -0.0921 -0.1561 -0.4222
49629SOL    HW154850   8.145   2.716   3.333 -0.4238 -0.6769 -0.2467
49629SOL    HW254851   8.287   2.664   3.323 -0.1732 -0.0065 -0.2723
49630SOL     OW54852   2.559   6.144   8.932 -0.4203 -0.5233 -0.3948
49630SOL    HW154853   2.485   6.119   8.877 -0.2718 -0.3041 -0.6951
49630SOL    HW254854   2.531   6.226   8.973 -0.2543 -0.3197 -0.6866
49631SOL     OW54855   2.721   4.620  10.444  0.0536  0.3004  0.6187
49631SOL    HW154856   2.650   4.670  10.485 -1.2287 -1.2999  0.4465
49631SOL    HW254857   2.798   4.639  10.497  0.0140  3.5917 -0.2922
49632SOL     OW54858   6.324   8.333   6.083 -0.2660 -0.4589  0.0133
49632SOL    HW154859   6.360   8.334   5.993 -0.6339 -1.8121 -0.1695
49632SOL    HW254860   6.365   8.257   6.123  0.1506  0.3310  1.1308
49633SOL     OW54861   0.934   9.409   3.361 -0.1856  0.3824  0.4609
49633SOL    HW154862   0.960   9.341   3.423  0.1690  0.3468  0.2744
49633SOL    HW254863   1.016   9.442   3.325 -0.4083 -0.6286 -1.0999
49634SOL     OW54864   1.133   7.080   4.274  0.4235 -0.2285  0.2094
49634SOL    HW154865   1.214   7.078   4.223  0.2040  1.0625 -0.2295
49634SOL    HW254866   1.106   6.988   4.281  0.8004 -0.5001 -1.4597
49635SOL     OW54867   1.051  12.475  11.158  0.2323  0.1056  0.0043
49635SOL    HW154868   1.131  12.428  11.183  1.3008  1.1908 -1.2210
49635SOL    HW254869   1.018  12.427  11.083 -0.8485 -0.9169  1.1013
49636SOL     OW54870  10.177  10.950   2.259  0.2857 -0.1667  0.1839
49636SOL    HW154871  10.190  11.044   2.248 -1.5163 -0.0280 -1.2051
49636SOL    HW254872  10.138  10.922   2.176 -1.3460 -1.7010  1.3945
49637SOL     OW54873   6.672  11.448   2.805  0.1082 -0.1265 -0.2935
49637SOL    HW154874   6.627  11.484   2.728  0.7804  1.3490 -0.0229
49637SOL    HW254875   6.602  11.427   2.866 -0.4548 -1.5374 -1.3788
49638SOL     OW54876   1.393   9.742   3.421 -0.4808 -0.2338 -0.2401
49638SOL    HW154877   1.379   9.711   3.510  0.3237  1.5114  0.5343
49638SOL    HW254878   1.485   9.722   3.403  0.2469  2.1298  0.5202
49639SOL     OW54879   9.041   7.430   0.742 -0.2079 -0.1363 -0.0715
49639SOL    HW154880   9.011   7.414   0.831  0.8833 -0.3665  0.2718
49639SOL    HW254881   9.113   7.492   0.751  0.1829 -0.4772 -0.7486
49640SOL     OW54882   2.080   7.467  10.487 -0.5377  0.0838 -0.5594
49640SOL    HW154883   2.130   7.510  10.557 -1.5841 -0.0833  0.3340
49640SOL    HW254884   2.052   7.384  10.526  1.2226 -1.3306 -2.1735
49641SOL     OW54885   4.184   4.902   0.016  0.4977  0.2806  0.3772
49641SOL    HW154886   4.164   4.812  -0.009  1.6316  0.0582  0.2212
49641SOL    HW254887   4.098   4.945   0.021  0.0502 -0.2831 -1.5020
49642SOL     OW54888  11.295  12.462   8.202 -0.1820  0.1496 -0.6349
49642SOL    HW154889  11.366  12.505   8.250 -0.0993  0.2614 -0.8546
49642SOL    HW254890  11.237  12.428   8.270 -0.3187  0.7295 -0.4574
49643SOL     OW54891   7.964   3.762   2.450 -0.2064 -0.6558 -0.1502
49643SOL    HW154892   7.958   3.679   2.498 -1.0334 -0.2961  0.3900
49643SOL    HW254893   8.057   3.770   2.429 -0.2322 -2.1347 -0.9745
49644SOL     OW54894   7.770   1.262   4.159 -0.7206 -0.3273  0.7342
49644SOL    HW154895   7.830   1.312   4.103  0.1800 -0.5656  1.4684
49644SOL    HW254896   7.699   1.235   4.100  0.4793 -1.0416 -0.4211
49645SOL     OW54897   1.191   9.852   0.759  0.1560  0.5524 -0.6252
49645SOL    HW154898   1.177   9.901   0.840 -0.9144 -1.5460  0.5511
49645SOL    HW254899   1.276   9.810   0.771 -0.0081  0.2315 -0.5823
49646SOL     OW54900   6.110   0.976   6.567 -0.6569 -0.0912 -0.0691
49646SOL    HW154901   6.122   0.983   6.661 -0.9597 -0.3893 -0.0068
49646SOL    HW254902   6.180   1.029   6.530  0.0031 -0.6782  0.3096
49647SOL     OW54903  10.010   1.949   7.167  0.3767 -0.3490  0.6613
49647SOL    HW154904   9.990   1.894   7.091  1.1983 -1.4997  1.2669
49647SOL    HW254905  10.101   1.976   7.154  0.1102  0.5609  0.5802
49648SOL     OW54906  12.428   3.951  11.952  0.2631 -0.2087 -0.2400
49648SOL    HW154907  12.361   3.961  11.885  0.7707  2.3061 -0.4902
49648SOL    HW254908  12.509   3.936  11.903  0.1082 -2.1896  0.0222
49649SOL     OW54909  12.170   7.360  12.453  0.5010 -0.3408  0.2205
49649SOL    HW154910  12.235   7.392  12.390  0.2039 -1.2076 -0.5408
49649SOL    HW254911  12.198   7.271  12.474  0.8682  0.1011  1.7153
49650SOL     OW54912   4.083  12.227   9.270 -0.1014  0.1550 -0.0525
49650SOL    HW154913   4.117  12.268   9.191 -1.0390  0.9166 -0.0822
49650SOL    HW254914   4.036  12.150   9.240  0.2724 -0.0345 -0.1534
49651SOL     OW54915   2.269   9.304   1.653 -0.3268 -0.3449 -0.0194
49651SOL    HW154916   2.301   9.325   1.741 -1.9576 -0.7355  0.7052
49651SOL    HW254917   2.177   9.282   1.666 -0.5992 -0.4096 -1.8424
49652SOL     OW54918   0.956   4.824   9.802 -0.4534  0.3854  0.0196
49652SOL    HW154919   0.924   4.873   9.878  2.2428  1.5392  0.5160
49652SOL    HW254920   0.926   4.875   9.727 -1.0153  0.6199  0.3953
49653SOL     OW54921  11.459  10.587   1.243  0.1857 -0.1570 -0.2630
49653SOL    HW154922  11.407  10.547   1.313  0.7185  0.2691  0.3759
49653SOL    HW254923  11.549  10.560   1.261  0.4515  0.7065 -0.2588
49654SOL     OW54924  12.262  11.636   2.722  0.0307  0.3791 -0.1531
49654SOL    HW154925  12.298  11.674   2.642  1.2435  0.9458  0.6242
49654SOL    HW254926  12.253  11.710   2.782 -1.0442 -0.0034  0.1845
49655SOL     OW54927   4.212   7.508   8.075 -0.2612  0.1634 -0.4411
49655SOL    HW154928   4.119   7.519   8.057  0.1495 -0.0005 -3.0535
49655SOL    HW254929   4.257   7.556   8.005  1.5719 -2.1704 -1.0217
49656SOL     OW54930   7.991  10.379   0.477 -0.0183 -0.4531 -0.3342
49656SOL    HW154931   7.901  10.368   0.448 -1.2065  2.6519  1.6752
49656SOL    HW254932   8.029  10.442   0.416  0.0762 -0.1541  0.0233
49657SOL     OW54933   2.549   6.808   6.684  0.4149  0.5226 -0.0586
49657SOL    HW154934   2.485   6.875   6.657  1.3423  1.0355 -1.0806
49657SOL    HW254935   2.618   6.813   6.618  1.4161 -0.1637  0.8964
49658SOL     OW54936  10.681   3.813   1.963 -0.5419  0.3524 -0.2819
49658SOL    HW154937  10.691   3.819   1.868  1.0570  2.3509 -0.0633
49658SOL    HW254938  10.673   3.720   1.981 -2.9098  0.0093 -2.5154
49659SOL     OW54939  11.976   1.942   7.236 -0.4716  0.3962  0.6927
49659SOL    HW154940  12.008   1.922   7.324  1.2031 -1.8849 -0.3516
49659SOL    HW254941  11.910   1.875   7.219 -1.4893  1.3984  0.4969
49660SOL     OW54942   9.169   2.187   5.044 -0.3058 -0.7220 -0.3153
49660SOL    HW154943   9.224   2.109   5.035 -1.7428 -1.7876 -0.2881
49660SOL    HW254944   9.118   2.191   4.963  1.3991  1.6177 -1.3990
49661SOL     OW54945  11.205   5.498  10.438  0.1638 -0.1405  0.2396
49661SOL    HW154946  11.209   5.593  10.433  0.8472 -0.1943 -0.6786
49661SOL    HW254947  11.170   5.479  10.525  0.9220  0.9302  0.8011
49662SOL     OW54948  11.596   8.867   9.383 -0.3296  0.1766  0.2275
49662SOL    HW154949  11.634   8.832   9.464  0.2647  0.0777 -0.0852
49662SOL    HW254950  11.574   8.789   9.332 -1.7647  0.2102  0.7552
49663SOL     OW54951   3.343   3.870   4.234  0.2828  0.0652  0.0511
49663SOL    HW154952   3.390   3.947   4.205 -0.2093  0.0619 -0.7706
49663SOL    HW254953   3.387   3.797   4.192 -0.5540  0.0768 -0.8710
49664SOL     OW54954   0.804   7.145   5.131  0.4546 -0.2216  0.6229
49664SOL    HW154955   0.797   7.080   5.061 -0.0760 -1.0466  1.4290
49664SOL    HW254956   0.715   7.176   5.144  0.7535  1.0003 -0.0297
49665SOL     OW54957   7.838   7.661   0.621  0.3254  0.2428  0.0632
49665SOL    HW154958   7.839   7.567   0.601 -0.3179  0.1510  0.4215
49665SOL    HW254959   7.782   7.699   0.553  0.7983  0.4116 -0.2384
49666SOL     OW54960   5.415   7.459   8.547 -0.6282 -0.2470 -0.0195
49666SOL    HW154961   5.491   7.430   8.497 -0.5550 -1.5459  0.7819
49666SOL    HW254962   5.343   7.459   8.484 -0.4924 -1.6262 -0.2122
49667SOL     OW54963   3.767   2.194   6.605 -0.3039 -0.2531 -0.0009
49667SOL    HW154964   3.699   2.179   6.670 -0.4246 -0.7538 -0.2352
49667SOL    HW254965   3.730   2.161   6.523 -0.1450  0.3529 -0.3171
49668SOL     OW54966   0.910   2.775   1.395 -0.5205 -0.0422 -0.4938
49668SOL    HW154967   0.854   2.726   1.335  0.0397 -0.2528 -0.8518
49668SOL    HW254968   0.898   2.867   1.369 -1.8575  0.0621  0.4221
49669SOL     OW54969   9.606   3.089   3.305 -0.3267  0.2689 -0.3630
49669SOL    HW154970   9.641   3.025   3.243 -1.8132 -0.0682 -0.9012
49669SOL    HW254971   9.586   3.038   3.384  0.7154  0.5335  0.0923
49670SOL     OW54972   3.974   0.750   8.132  0.1803 -0.4230  0.3645
49670SOL    HW154973   4.038   0.804   8.085 -0.7131  3.9470  3.4725
49670SOL    HW254974   4.016   0.731   8.216 -0.8583 -1.6237  0.6357
49671SOL     OW54975   0.944   0.371  12.251  0.1676 -0.1755  0.2697
49671SOL    HW154976   1.013   0.403  12.192 -0.3678  2.0105  0.7438
49671SOL    HW254977   0.977   0.390  12.339 -0.7564  0.3341  0.5160
49672SOL     OW54978  10.370   5.946   3.408 -0.0268  0.0778 -0.0982
49672SOL    HW154979  10.277   5.926   3.413  0.4295 -2.3227 -0.2380
49672SOL    HW254980  10.387   5.998   3.487 -1.1847 -0.7568  0.7282
49673SOL     OW54981   5.066   3.430   9.964  0.3834  0.1673  0.7591
49673SOL    HW154982   5.049   3.340   9.990 -0.5961 -0.0969 -0.6842
49673SOL    HW254983   4.986   3.477   9.986  0.7471  0.6203  1.1482
49674SOL     OW54984   8.574   0.488   4.334  0.4713 -0.3186 -0.2164
49674SOL    HW154985   8.645   0.548   4.313  0.9353 -0.2999  1.3328
49674SOL    HW254986   8.611   0.400   4.321  1.4046 -0.3639  2.3152
49675SOL     OW54987  11.430   0.618   8.594 -0.0024 -0.0937 -0.7232
49675SOL    HW154988  11.475   0.679   8.536 -2.4803  1.7579 -0.8344
49675SOL    HW254989  11.423   0.664   8.677 -2.2955  0.0537 -0.9249
49676SOL     OW54990   2.747  11.286   7.147  0.3854 -0.2318  0.1694
49676SOL    HW154991   2.786  11.281   7.235 -1.2329  0.4099  0.9629
49676SOL    HW254992   2.661  11.324   7.161  0.3653  0.5783 -1.8207
49677SOL     OW54993   2.682   9.686  12.319  0.3547 -0.2706  0.3460
49677SOL    HW154994   2.752   9.704  12.380  0.0576 -1.6930  1.1364
49677SOL    HW254995   2.719   9.624  12.256  0.4290  0.6028 -0.5077
49678SOL     OW54996   5.537   7.370   3.582 -0.2005 -0.1706 -0.4475
49678SOL    HW154997   5.517   7.460   3.607 -0.3211 -0.2687 -0.1903
49678SOL    HW254998   5.488   7.356   3.501 -3.7226 -1.3824  1.6760
49679SOL     OW54999   7.127   0.854   1.411 -0.2247 -0.0353  0.1883
49679SOL    HW155000   7.088   0.799   1.479 -0.0801 -0.4544 -0.0647
49679SOL    HW255001   7.221   0.834   1.415 -0.0895  0.6119  0.4716
49680SOL     OW55002   9.055   9.214   3.821  0.6662  0.9007  0.5762
49680SOL    HW155003   9.118   9.171   3.763 -0.7543 -0.9642  0.3255
49680SOL    HW255004   8.978   9.157   3.819  0.5169  0.7555  4.3216
49681SOL     OW55005  10.858   4.919   4.432  0.0329  0.2368  0.4315
49681SOL    HW155006  10.911   4.989   4.394 -0.1555  0.6242  0.8838
49681SOL    HW255007  10.902   4.838   4.404  0.4306  0.5379  0.1808
49682SOL     OW55008  11.063   4.421  12.189  0.8889 -0.4427  0.2732
49682SOL    HW155009  11.027   4.377  12.111 -0.2924 -1.5856  1.4165
49682SOL    HW255010  11.158   4.413  12.179  0.7643 -3.8223  0.6685
49683SOL     OW55011   9.492  11.245   0.188 -0.3897  0.0754  0.5094
49683SOL    HW155012   9.524  11.235   0.277 -0.1662  0.0941  0.4314
49683SOL    HW255013   9.467  11.337   0.181  0.3076  0.2534  0.3176
49684SOL     OW55014   7.063   2.809   0.475  0.0807 -1.0398 -0.5976
49684SOL    HW155015   7.112   2.727   0.473  1.9270 -0.1581  2.4097
49684SOL    HW255016   7.016   2.806   0.558 -1.0324  0.3288 -1.1434
49685SOL     OW55017   9.450  10.099   8.148  0.4272 -0.2511 -0.1847
49685SOL    HW155018   9.377  10.060   8.101 -1.8577  3.0821  0.3301
49685SOL    HW255019   9.519  10.107   8.082 -0.7629 -0.6215 -1.5285
49686SOL     OW55020   7.369   0.758   6.175 -0.4389  0.1855  0.0036
49686SOL    HW155021   7.274   0.754   6.164 -0.8902 -1.4977  3.2187
49686SOL    HW255022   7.385   0.844   6.212 -0.9010  0.0176  0.6117
49687SOL     OW55023   5.558   1.651   3.002 -0.1661  0.3646 -0.0298
49687SOL    HW155024   5.473   1.607   3.003  0.6200 -1.2626 -0.4069
49687SOL    HW255025   5.579   1.664   3.094 -0.1966 -0.5654  0.1208
49688SOL     OW55026   9.712  10.350  10.506  0.0378  0.1340 -0.0178
49688SOL    HW155027   9.739  10.399  10.584  1.3261  1.2228 -1.0839
49688SOL    HW255028   9.696  10.261  10.537 -0.0807  0.6930  1.5883
49689SOL     OW55029   3.521   8.653   1.586 -0.4060  0.0422 -0.1265
49689SOL    HW155030   3.546   8.698   1.666 -2.1351  0.5512  0.1587
49689SOL    HW255031   3.579   8.690   1.519 -0.4803  1.2974  0.4725
49690SOL     OW55032   5.918   9.126   9.449  0.0130 -0.7056  0.3690
49690SOL    HW155033   5.861   9.052   9.471  1.3136 -1.4549  1.3692
49690SOL    HW255034   6.001   9.086   9.424  0.0710  0.3588 -1.2577
49691SOL     OW55035   5.284   7.107   7.187 -0.3784  0.7377 -0.3124
49691SOL    HW155036   5.263   7.118   7.095 -1.8543  2.5950  0.1814
49691SOL    HW255037   5.227   7.036   7.216 -1.7472  1.7725 -0.3395
49692SOL     OW55038   7.311   3.002   9.019 -0.4237 -1.3881 -0.2303
49692SOL    HW155039   7.376   2.989   8.950 -1.5514 -0.9659 -1.4113
49692SOL    HW255040   7.227   2.989   8.975 -1.2177 -0.0435  0.8231
49693SOL     OW55041   8.675  10.626   5.463 -0.2816  0.0139 -0.4399
49693SOL    HW155042   8.665  10.550   5.405 -0.5640  0.6659 -1.2596
49693SOL    HW255043   8.768  10.627   5.484  0.0207  0.3375 -1.6951
49694SOL     OW55044   5.680   5.595  10.722 -0.1746  0.0966 -0.2599
49694SOL    HW155045   5.724   5.591  10.806 -0.5692 -1.2921 -0.0980
49694SOL    HW255046   5.697   5.684  10.690  1.1119  0.1987  0.6498
49695SOL     OW55047   7.359   6.229   6.865 -0.0159  0.1111  0.0065
49695SOL    HW155048   7.382   6.234   6.772  0.8468 -1.9638  0.0461
49695SOL    HW255049   7.341   6.319   6.890  1.4912  0.9782 -1.7347
49696SOL     OW55050   3.437  12.255   2.517  0.3412  0.2063  0.3105
49696SOL    HW155051   3.358  12.279   2.565  0.8164  0.1998  1.1279
49696SOL    HW255052   3.439  12.314   2.442 -1.1144 -0.6724 -0.4525
49697SOL     OW55053  11.811  12.139   0.755 -0.3382 -0.0446 -0.0438
49697SOL    HW155054  11.818  12.225   0.714  1.5541 -0.3714 -0.4795
49697SOL    HW255055  11.767  12.085   0.690 -1.7998  0.6190  0.3408
49698SOL     OW55056   7.353   0.178   1.621 -0.3561 -0.3580  0.1748
49698SOL    HW155057   7.323   0.181   1.711  1.3078 -0.4524  0.7726
49698SOL    HW255058   7.277   0.147   1.571 -1.7971  1.2378  1.2719
49699SOL     OW55059   4.819   6.753   9.419  0.3426  0.0768 -0.0317
49699SOL    HW155060   4.751   6.771   9.354 -1.1325 -1.7856  0.9119
49699SOL    HW255061   4.836   6.660   9.411 -1.3726 -0.7067  3.5211
49700SOL     OW55062   9.557   0.140   0.756 -0.0385 -0.4025  0.0708
49700SOL    HW155063   9.611   0.068   0.725 -3.0200 -1.3276 -3.7798
49700SOL    HW255064   9.475   0.098   0.784 -1.3765  1.3270 -1.0597
49701SOL     OW55065   0.794   2.157   2.643  0.1891  0.1797  0.0353
49701SOL    HW155066   0.800   2.149   2.548 -2.7641  1.2076 -0.3429
49701SOL    HW255067   0.851   2.231   2.664  1.3870 -0.4578 -0.7923
49702SOL     OW55068   0.081   7.055   7.998 -0.4366 -0.0168 -0.3327
49702SOL    HW155069   0.125   7.064   8.082  0.7606 -0.8790 -0.8385
49702SOL    HW255070  -0.009   7.082   8.015 -0.4980 -1.1793  1.4620
49703SOL     OW55071   7.455   8.834   0.240  0.0710  0.2143 -0.2377
49703SOL    HW155072   7.539   8.790   0.247 -0.9580 -1.8597 -0.3240
49703SOL    HW255073   7.400   8.792   0.305 -1.5770 -0.1102 -1.7734
49704SOL     OW55074   6.707   2.303   9.822  0.3950  0.3549  0.3991
49704SOL    HW155075   6.665   2.256   9.751  1.5760 -1.7292  0.9914
49704SOL    HW255076   6.720   2.392   9.788  0.3584 -0.3971 -1.7240
49705SOL     OW55077   1.512   4.471   1.467  0.6024  0.5001 -0.3838
49705SOL    HW155078   1.488   4.448   1.378 -1.9605 -1.6796  0.7146
49705SOL    HW255079   1.547   4.391   1.505  1.5118  1.3421  0.6294
49706SOL     OW55080   8.521  10.494   6.523  0.1042  0.4385 -0.5461
49706SOL    HW155081   8.473  10.487   6.606 -1.1539 -0.9388 -1.3495
49706SOL    HW255082   8.455  10.476   6.456  1.1842  1.1719 -1.8461
49707SOL     OW55083   3.479   1.993   3.886 -0.0030 -0.1303  0.4019
49707SOL    HW155084   3.552   1.932   3.874  0.3148  0.4382 -0.6592
49707SOL    HW255085   3.427   1.983   3.807  0.4977  1.5431 -0.1710
49708SOL     OW55086  10.539   4.718   7.091  0.1267 -0.1897  0.4542
49708SOL    HW155087  10.557   4.663   7.167  0.1229  1.0983  1.4383
49708SOL    HW255088  10.496   4.796   7.128  0.6677  0.7406 -0.8003
49709SOL     OW55089   3.051   3.752   9.987  0.7361 -0.5960  1.1225
49709SOL    HW155090   3.100   3.794   9.915 -0.2602 -2.4240 -0.7335
49709SOL    HW255091   2.959   3.757   9.959  0.3357 -1.4827  2.2100
49710SOL     OW55092   4.041   1.353   8.686  0.4258  0.1514  0.3153
49710SOL    HW155093   4.053   1.274   8.738 -0.9518  1.7653  3.3993
49710SOL    HW255094   4.127   1.371   8.648  1.1665 -1.8855  0.9008
49711SOL     OW55095   6.277   5.688  12.055  0.8085  0.1744  0.0395
49711SOL    HW155096   6.263   5.597  12.029 -2.0022  0.7447 -0.7462
49711SOL    HW255097   6.248   5.691  12.147  1.2176  0.2180  0.1687
49712SOL     OW55098   5.604   3.841   4.021 -0.1890 -0.1881  0.2490
49712SOL    HW155099   5.674   3.897   4.055 -2.0820  2.2960  0.2814
49712SOL    HW255100   5.525   3.871   4.064 -1.5242 -2.0775 -0.7235
49713SOL     OW55101   4.057   8.440   8.325 -0.6698  0.3354  0.2797
49713SOL    HW155102   3.996   8.442   8.399  1.4060 -0.3931  2.1376
49713SOL    HW255103   4.041   8.355   8.284  0.4165 -0.8177  2.0620
49714SOL     OW55104   4.016   7.980   6.580  0.2801 -0.0673  0.1766
49714SOL    HW155105   3.941   7.924   6.599  0.5746  0.2947  2.8302
49714SOL    HW255106   3.982   8.069   6.591  0.8032  0.1337  0.1925
49715SOL     OW55107   6.978   8.060  11.459  0.3355 -0.4214 -0.2797
49715SOL    HW155108   6.917   8.012  11.515 -0.4259  0.9316  0.0966
49715SOL    HW255109   7.032   8.110  11.520 -0.9616  1.6066 -0.7306
49716SOL     OW55110   0.938   1.290   7.208  0.1538  0.0157 -0.5270
49716SOL    HW155111   0.865   1.352   7.216 -0.0246 -0.2419 -0.1256
49716SOL    HW255112   0.973   1.305   7.120  0.9681  1.6333  0.0387
49717SOL     OW55113   2.347   3.519   1.004 -0.6903  1.0062 -0.1215
49717SOL    HW155114   2.391   3.506   0.921 -0.6744  0.9891 -0.1105
49717SOL    HW255115   2.262   3.475   0.994  0.0294 -0.6214  0.5002
49718SOL     OW55116   2.182   6.626  10.217 -0.0581 -0.2592  0.4462
49718SOL    HW155117   2.220   6.556  10.163 -0.5174 -1.3636  1.5079
49718SOL    HW255118   2.189   6.704  10.162  1.0062 -1.0054 -0.5512
49719SOL     OW55119   9.996   7.809   4.656  0.1033 -0.0690 -0.3195
49719SOL    HW155120   9.962   7.743   4.716 -0.9508  0.3559 -0.4253
49719SOL    HW255121  10.017   7.884   4.712 -1.8283  0.7017 -0.5425
49720SOL     OW55122   1.996  10.091   4.358  0.4326 -0.3253  0.5948
49720SOL    HW155123   2.028  10.096   4.268  1.7849 -1.2927  0.9899
49720SOL    HW255124   2.014  10.178   4.395  1.4644 -0.4440  0.4184
49721SOL     OW55125   0.031   7.978   8.514 -0.6604 -0.2382 -0.9635
49721SOL    HW155126   0.060   8.017   8.431  0.9867 -0.7696 -0.6749
49721SOL    HW255127   0.110   7.974   8.567 -1.7018  0.1420  0.6791
49722SOL     OW55128   5.918   5.990   9.422 -0.2121 -0.0945 -0.3444
49722SOL    HW155129   5.872   5.963   9.502  0.3582 -0.8662 -0.2761
49722SOL    HW255130   5.931   5.909   9.373 -1.2514  0.4569 -1.6113
49723SOL     OW55131   3.364   1.212   8.912 -0.2706 -0.2788  0.0918
49723SOL    HW155132   3.312   1.170   8.844 -0.5825 -0.1908  0.2726
49723SOL    HW255133   3.301   1.264   8.962 -0.4543 -1.9871  1.7496
49724SOL     OW55134  10.359   8.572   0.934  0.2572 -0.7656  0.1272
49724SOL    HW155135  10.350   8.552   1.027 -2.4448 -1.4785 -0.1953
49724SOL    HW255136  10.396   8.660   0.931  0.5267 -0.7966  1.8690
49725SOL     OW55137   9.362  12.057   2.411  0.9482  0.5747 -0.3851
49725SOL    HW155138   9.302  11.983   2.405  1.1197  0.5185 -1.8182
49725SOL    HW255139   9.351  12.103   2.327  2.1403  1.1545 -0.2417
49726SOL     OW55140   5.559   4.581   3.156  0.0326 -0.3244  0.2820
49726SOL    HW155141   5.620   4.655   3.164  0.1540 -0.3976  0.0364
49726SOL    HW255142   5.597   4.526   3.088  1.0023 -1.6332  1.8281
49727SOL     OW55143   6.147   8.265   2.264 -0.1378 -0.1181  0.0494
49727SOL    HW155144   6.082   8.333   2.281  0.6207  1.0119 -1.3395
49727SOL    HW255145   6.201   8.301   2.194 -0.8491 -2.9234 -2.1113
49728SOL     OW55146   2.335   7.577  10.359 -0.1504  0.3138 -0.4275
49728SOL    HW155147   2.247   7.543  10.343  0.4131 -1.9015  0.7095
49728SOL    HW255148   2.357   7.547  10.448  2.1159 -0.1264 -1.0602
49729SOL     OW55149  11.105  11.056   6.350 -0.2359 -0.7205  0.1327
49729SOL    HW155150  11.062  11.130   6.307  1.5090  0.1905 -0.1463
49729SOL    HW255151  11.187  11.091   6.382 -0.0013 -2.2173  1.2880
49730SOL     OW55152   2.384  11.343   8.210 -0.1012  0.7406 -0.1786
49730SOL    HW155153   2.352  11.401   8.141 -0.2875  1.2106  0.2981
49730SOL    HW255154   2.373  11.393   8.291 -2.1357 -0.6779  0.5142
49731SOL     OW55155   8.922   5.351   2.430 -0.0545  0.4295  0.0329
49731SOL    HW155156   9.018   5.346   2.429  0.0476  1.7734  0.3776
49731SOL    HW255157   8.904   5.445   2.435 -1.2945  0.1993  4.5367
49732SOL     OW55158   2.328  11.468   5.701 -0.1035  0.6149 -0.1548
49732SOL    HW155159   2.253  11.410   5.686  0.4165 -0.3319  0.7846
49732SOL    HW255160   2.289  11.554   5.716 -1.2280 -0.2549  2.5439
49733SOL     OW55161   7.183   5.185   5.950  0.1322  0.3575  0.3141
49733SOL    HW155162   7.254   5.249   5.953  0.2384  0.2402  0.2676
49733SOL    HW255163   7.157   5.182   5.858  0.8573 -0.4757  0.1283
49734SOL     OW55164   6.549   6.225  11.005  0.7517  0.6951  0.2960
49734SOL    HW155165   6.641   6.204  10.986  0.2536 -0.9982 -0.3800
49734SOL    HW255166   6.507   6.228  10.919 -0.1415 -0.1843  0.6903
49735SOL     OW55167  11.752   8.206   7.470 -0.1585  0.0874 -0.3806
49735SOL    HW155168  11.738   8.280   7.529  0.5423  0.0579 -0.1714
49735SOL    HW255169  11.830   8.230   7.420 -0.6206  0.0208 -1.1574
49736SOL     OW55170   6.156   8.961   6.589 -0.1563 -0.1432  0.0015
49736SOL    HW155171   6.133   8.887   6.533  0.0695 -0.4220  0.2810
49736SOL    HW255172   6.136   9.038   6.535  1.4843 -0.3994 -1.0480
49737SOL     OW55173  12.038   2.743   3.013  0.3964  0.1694  0.1494
49737SOL    HW155174  12.066   2.654   3.035  0.8896  0.6224  1.4315
49737SOL    HW255175  11.996   2.734   2.928  0.3372 -1.3155  0.3054
49738SOL     OW55176   9.704  10.142  11.803  0.2246 -0.1622  0.0498
49738SOL    HW155177   9.739  10.119  11.717  0.7075 -0.9092  0.4289
49738SOL    HW255178   9.623  10.091  11.810 -1.1845  1.8308 -0.9683
49739SOL     OW55179   8.628   9.432   2.925 -0.6292  0.1818  0.5536
49739SOL    HW155180   8.538   9.415   2.951  0.0163 -2.3522  1.4264
49739SOL    HW255181   8.682   9.396   2.996  1.0906  0.0361 -0.7418
49740SOL     OW55182   3.161   3.589   1.175  0.0494 -0.8232  0.3379
49740SOL    HW155183   3.187   3.602   1.084 -0.2719  0.5855  0.4289
49740SOL    HW255184   3.202   3.661   1.222 -3.0263  0.8923  0.6487
49741SOL     OW55185   3.569   2.575   4.920 -0.0328  0.2183 -0.4067
49741SOL    HW155186   3.486   2.617   4.898 -1.2866 -2.5290 -1.4819
49741SOL    HW255187   3.607   2.553   4.834  0.4515 -0.9467  0.0887
49742SOL     OW55188   2.441   4.931   1.077  0.3140  0.1153 -0.0965
49742SOL    HW155189   2.446   4.922   1.172  2.5781 -1.5459 -0.2929
49742SOL    HW255190   2.353   4.901   1.055 -0.2263  0.4905  1.4608
49743SOL     OW55191   3.440   1.050   7.206  0.1161 -1.0004  0.1306
49743SOL    HW155192   3.431   0.984   7.137 -0.3534 -0.6259 -0.1732
49743SOL    HW255193   3.362   1.105   7.197  0.9108  0.1015 -0.1620
49744SOL     OW55194  11.356   0.987   3.399 -0.6396  0.9902 -0.1194
49744SOL    HW155195  11.393   0.967   3.485  1.2221 -0.7464 -1.2252
49744SOL    HW255196  11.392   1.072   3.376  2.9518 -0.6287 -1.1500
49745SOL     OW55197   1.643   5.542   1.411 -0.2671  0.5883  0.5408
49745SOL    HW155198   1.690   5.485   1.349  1.0833  0.7052  1.4093
49745SOL    HW255199   1.573   5.582   1.359  0.4894  0.2601 -0.7697
49746SOL     OW55200   6.707  10.606   5.658  0.9000 -0.5113 -0.0936
49746SOL    HW155201   6.715  10.528   5.713 -1.1007 -0.9065 -0.2594
49746SOL    HW255202   6.737  10.678   5.713  2.0552 -1.2856  0.3266
49747SOL     OW55203   1.717  10.922   9.873 -0.7899 -0.7287 -0.3140
49747SOL    HW155204   1.706  10.961   9.786 -0.7438  1.2857  0.5253
49747SOL    HW255205   1.812  10.921   9.887 -0.7713 -1.4850 -0.4620
49748SOL     OW55206  11.518   6.069   8.686  0.2650  0.2404  0.1639
49748SOL    HW155207  11.587   6.014   8.723  1.6866 -0.3026 -3.0071
49748SOL    HW255208  11.540   6.158   8.715  1.4077 -0.1234  0.4531
49749SOL     OW55209   9.253   1.953   9.784  0.8390 -0.5506  0.3138
49749SOL    HW155210   9.261   2.046   9.763  1.2615 -0.8289 -0.8748
49749SOL    HW255211   9.316   1.938   9.855  0.2291  0.2063  1.0240
49750SOL     OW55212   9.748   5.007  12.227  0.5647 -0.0587 -0.2158
49750SOL    HW155213   9.713   4.922  12.255 -0.7815 -0.1206 -1.9135
49750SOL    HW255214   9.827   4.985  12.177 -1.2561 -0.6772 -3.0870
49751SOL     OW55215   4.031   9.414   8.057 -0.5583  0.9717 -0.1279
49751SOL    HW155216   4.027   9.499   8.100 -1.3395  1.3001 -0.8140
49751SOL    HW255217   4.107   9.420   8.000  0.3051  0.6401  0.9548
49752SOL     OW55218   3.258   1.003   2.798  0.2595  0.0286  0.1433
49752SOL    HW155219   3.290   0.950   2.725  0.6004 -2.0225  1.7061
49752SOL    HW255220   3.167   1.022   2.776  0.3564 -0.5493 -0.8116
49753SOL     OW55221  10.700  11.677   0.244 -0.1933  0.2953  0.2133
49753SOL    HW155222  10.676  11.691   0.335  1.2775  1.4645  0.4634
49753SOL    HW255223  10.678  11.760   0.201  3.4722  1.6590  0.5493
49754SOL     OW55224   2.476   7.404   8.416 -0.4611 -0.0081 -0.0493
49754SOL    HW155225   2.534   7.350   8.470 -1.1160 -0.3189  0.3513
49754SOL    HW255226   2.431   7.341   8.359  0.6661  0.3628 -1.4227
49755SOL     OW55227   7.151   8.671   4.696  0.1075 -0.0015  0.0667
49755SOL    HW155228   7.218   8.696   4.632 -0.5495  0.2508 -0.5435
49755SOL    HW255229   7.087   8.742   4.691  0.1207  0.1115  1.1411
49756SOL     OW55230  10.206  11.192   3.114 -0.0370  0.3277  0.0300
49756SOL    HW155231  10.237  11.275   3.150  1.1941 -0.0254 -0.1647
49756SOL    HW255232  10.214  11.203   3.019  1.5061 -0.4761  0.0261
49757SOL     OW55233   8.758   9.799   9.284 -0.1977 -0.2531 -0.3032
49757SOL    HW155234   8.742   9.741   9.359  2.9252 -1.7165 -0.5969
49757SOL    HW255235   8.753   9.740   9.208  2.1571 -0.0693 -0.6831
49758SOL     OW55236   7.629   4.903   2.996 -0.1864  0.0326 -0.4025
49758SOL    HW155237   7.539   4.890   2.968 -0.0711  0.0361 -0.7798
49758SOL    HW255238   7.669   4.957   2.927 -0.0932  0.6463  0.1244
49759SOL     OW55239   9.333   7.879  11.667 -0.9106 -0.2125  0.1049
49759SOL    HW155240   9.328   7.932  11.747 -2.1151 -1.2554  0.7719
49759SOL    HW255241   9.255   7.903  11.617 -0.2269  0.3447 -0.7162
49760SOL     OW55242   0.441   4.394   0.870  0.6141 -0.0957 -0.8517
49760SOL    HW155243   0.536   4.406   0.877  0.4823  0.9544 -0.6447
49760SOL    HW255244   0.413   4.373   0.960  0.6697 -0.6102 -0.9513
49761SOL     OW55245  11.372   7.777  12.161  0.3614 -0.3243 -0.0332
49761SOL    HW155246  11.354   7.683  12.153 -0.7044 -0.2761  1.4761
49761SOL    HW255247  11.467   7.784  12.145  0.1789 -1.3959 -1.9248
49762SOL     OW55248   0.558   7.895   1.586  0.0459  0.0661 -0.0463
49762SOL    HW155249   0.596   7.902   1.673  1.3799  0.0023 -0.5860
49762SOL    HW255250   0.565   7.802   1.564 -0.0292  0.1227 -0.3223
49763SOL     OW55251   5.097  11.413   9.556  0.8834  0.7414  0.1090
49763SOL    HW155252   5.166  11.475   9.535  0.4730  0.4336 -2.5005
49763SOL    HW255253   5.020  11.466   9.571  1.1458  0.9767  0.6321
49764SOL     OW55254   5.823   1.461   0.399 -0.1033  0.6689 -0.0958
49764SOL    HW155255   5.795   1.409   0.474  0.9907  1.9654  1.2981
49764SOL    HW255256   5.765   1.436   0.328 -0.5107 -1.3710  0.9006
49765SOL     OW55257   5.636   0.619   3.261  0.2555  0.6172 -0.0296
49765SOL    HW155258   5.616   0.709   3.288 -0.0230 -0.3553  3.3902
49765SOL    HW255259   5.727   0.623   3.233  0.7230  1.7364  1.5000
49766SOL     OW55260  11.006   3.000   0.890  0.0803 -0.7965 -0.3641
49766SOL    HW155261  10.965   3.022   0.806 -0.2653 -2.2673 -0.6080
49766SOL    HW255262  10.996   2.905   0.897  0.2030 -0.7123  1.2987
49767SOL     OW55263   7.669   5.754   5.368 -0.1348 -0.7277 -0.2442
49767SOL    HW155264   7.626   5.741   5.284  1.5603  0.4456 -1.3618
49767SOL    HW255265   7.602   5.795   5.423 -1.1439 -1.1196 -1.1366
49768SOL     OW55266   0.539   5.033   9.703 -0.1648 -0.2567 -0.2552
49768SOL    HW155267   0.510   4.987   9.624  0.6705  0.5546 -1.0547
49768SOL    HW255268   0.582   5.112   9.670 -0.1024  0.2640  1.0331
49769SOL     OW55269   2.432  10.874   6.338  0.2931 -0.1358 -0.6057
49769SOL    HW155270   2.468  10.793   6.374 -2.5910 -3.0421 -3.5304
49769SOL    HW255271   2.487  10.893   6.262 -0.4330 -0.8112 -1.3162
49770SOL     OW55272   2.350   1.681   3.763  0.8364 -0.7719 -0.4027
49770SOL    HW155273   2.274   1.721   3.723  0.3243 -0.1780  1.0847
49770SOL    HW255274   2.392   1.752   3.812  1.0037 -1.6134  0.7151
49771SOL     OW55275   1.353   9.991   5.104 -0.2593 -0.1203 -0.4186
49771SOL    HW155276   1.351  10.026   5.015 -0.9989 -0.5355 -0.5820
49771SOL    HW255277   1.420  10.041   5.149 -0.4970  0.7039 -0.9646
49772SOL     OW55278   6.686   2.050   0.659 -0.5120  0.0178 -0.6203
49772SOL    HW155279   6.717   2.126   0.611 -0.3196  0.0800 -0.4006
49772SOL    HW255280   6.638   1.998   0.594  0.8052 -0.5182 -1.1930
49773SOL     OW55281  12.178   1.216   1.872 -0.4826  0.1319 -0.0323
49773SOL    HW155282  12.204   1.267   1.795  0.9073 -1.0589 -0.4035
49773SOL    HW255283  12.260   1.180   1.905 -1.3127 -1.0802  0.7710
49774SOL     OW55284   6.273   7.662   9.779  0.2461  0.3156 -0.4386
49774SOL    HW155285   6.345   7.608   9.747 -2.0763 -2.5396 -1.2088
49774SOL    HW255286   6.286   7.665   9.874  0.3697 -1.9017 -0.3234
49775SOL     OW55287   2.979   6.949   5.947  0.3030  0.4533 -0.1440
49775SOL    HW155288   2.907   6.921   5.891 -0.1806  1.8714 -0.2808
49775SOL    HW255289   2.947   6.935   6.036 -0.0544  0.8577 -0.2062
49776SOL     OW55290   3.406   5.243  11.775  0.2036 -0.2160 -0.3689
49776SOL    HW155291   3.450   5.176  11.828  1.7900 -0.6763 -2.1350
49776SOL    HW255292   3.444   5.325  11.805 -2.9690  0.2311  2.9889
49777SOL     OW55293   0.023  10.485   0.707 -0.3606  0.8095 -0.3034
49777SOL    HW155294  -0.029  10.406   0.694 -1.5744  1.6501 -0.7970
49777SOL    HW255295   0.085  10.462   0.776 -1.3835 -0.2433  0.3006
49778SOL     OW55296  12.332  11.765   0.535  0.3597 -0.1730 -0.0598
49778SOL    HW155297  12.268  11.708   0.492  0.3367 -0.7361  0.6996
49778SOL    HW255298  12.325  11.849   0.489 -0.6791 -0.3311 -0.2050
49779SOL     OW55299   1.793   5.104   9.972 -0.0087 -0.0306  0.2771
49779SOL    HW155300   1.730   5.033   9.975 -1.0640  0.9086  1.1162
49779SOL    HW255301   1.753   5.175  10.023  1.6905  0.6185  0.7929
49780SOL     OW55302  10.010   0.767   6.805  1.4435 -0.3170  0.0425
49780SOL    HW155303   9.969   0.680   6.807  1.1151 -0.2229 -1.3788
49780SOL    HW255304   9.938   0.827   6.787  1.4551  0.4360  2.2498
49781SOL     OW55305   6.340   7.897   9.645 -0.4533 -0.9094  0.6845
49781SOL    HW155306   6.436   7.893   9.637 -0.5969 -0.6946 -3.1682
49781SOL    HW255307   6.315   7.812   9.680  1.0729 -1.7167 -0.0835
49782SOL     OW55308   5.239   5.196  10.891  0.1995  0.3444  0.4400
49782SOL    HW155309   5.170   5.206  10.825  0.2416  0.4795  0.4166
49782SOL    HW255310   5.203   5.132  10.953 -0.5925  1.5516  1.2672
49783SOL     OW55311   7.734   0.077   6.128 -0.2215  0.6573  0.6298
49783SOL    HW155312   7.693   0.043   6.208 -0.1340 -1.6125 -0.2184
49783SOL    HW255313   7.662   0.115   6.078 -1.1739 -2.0218 -0.2063
49784SOL     OW55314   0.926  12.303   9.033 -0.1058  0.1484 -0.0475
49784SOL    HW155315   1.012  12.286   8.994 -0.6878 -1.7957 -0.5961
49784SOL    HW255316   0.874  12.225   9.013 -1.5162  0.5687  1.6646
49785SOL     OW55317   9.477   3.690  11.643 -0.0521  0.1103  0.5431
49785SOL    HW155318   9.408   3.705  11.578  0.1607  0.3181  0.3650
49785SOL    HW255319   9.462   3.757  11.710 -1.2998 -1.1495  1.5711
49786SOL     OW55320   0.426   2.476   4.490  0.1778  0.0900  0.5880
49786SOL    HW155321   0.390   2.467   4.402  0.4168 -0.0362  0.5051
49786SOL    HW255322   0.509   2.429   4.488  0.1469  0.0165  0.9030
49787SOL     OW55323   5.073  10.245  11.917  0.8693 -0.0349  0.3371
49787SOL    HW155324   5.121  10.238  11.834 -1.7390 -0.5097 -1.2558
49787SOL    HW255325   5.141  10.244  11.984  3.1138  0.3448 -1.7715
49788SOL     OW55326  12.246  10.927   8.257  0.0217  0.1428 -0.3833
49788SOL    HW155327  12.209  10.978   8.185  0.8856  0.3257 -0.7108
49788SOL    HW255328  12.249  10.838   8.225 -0.2487  0.1033 -0.3048
49789SOL     OW55329   1.217  10.090   3.997  0.4921  0.3689 -0.6938
49789SOL    HW155330   1.272  10.016   3.970  1.1510  0.7800 -0.4936
49789SOL    HW255331   1.128  10.059   3.985  0.7433 -0.8077  0.3162
49790SOL     OW55332   6.585   0.431   0.978 -0.0710 -0.0635  0.3034
49790SOL    HW155333   6.626   0.500   1.030 -0.4409  0.4891 -0.1257
49790SOL    HW255334   6.622   0.442   0.890 -1.7323  1.0131 -0.3271
49791SOL     OW55335   4.405   7.369  11.207  0.0994 -0.4722 -0.3484
49791SOL    HW155336   4.392   7.463  11.191 -0.5457 -0.5546 -0.3170
49791SOL    HW255337   4.379   7.357  11.298  2.9867 -0.1518  0.6074
49792SOL     OW55338   0.300   4.264   2.915  0.7556  0.0195 -0.1576
49792SOL    HW155339   0.214   4.232   2.941  1.8333 -0.5121  3.2044
49792SOL    HW255340   0.357   4.187   2.919  2.1376  1.0478  1.8527
49793SOL     OW55341   4.353   3.240   4.086  0.8172  0.2599 -1.0068
49793SOL    HW155342   4.346   3.321   4.035  1.2577  1.0636  0.1519
49793SOL    HW255343   4.393   3.177   4.026  0.7523  0.9930 -1.8382
49794SOL     OW55344   7.825   6.535  11.449  0.3560  0.1036 -1.1703
49794SOL    HW155345   7.836   6.444  11.474 -0.4856 -0.4943 -2.8524
49794SOL    HW255346   7.885   6.548  11.375  1.8882  1.4896  0.2104
49795SOL     OW55347  10.665   1.007   4.017  0.2577 -0.6425 -0.3396
49795SOL    HW155348  10.664   1.088   3.967 -0.4040 -0.4495 -0.0263
49795SOL    HW255349  10.706   0.943   3.959  1.1673  0.0143 -0.4239
49796SOL     OW55350  12.401   5.836   9.718  0.0195  0.3209  0.4613
49796SOL    HW155351  12.470   5.854   9.782  0.6163  0.7737 -0.2981
49796SOL    HW255352  12.435   5.869   9.635 -0.4843 -0.8104 -0.2264
49797SOL     OW55353   1.392   8.254   2.453  0.5430  0.3003 -0.2426
49797SOL    HW155354   1.452   8.305   2.508  1.6269 -0.4950 -0.6402
49797SOL    HW255355   1.427   8.165   2.458  0.4492  0.1530 -1.9205
49798SOL     OW55356   5.360   8.042   4.514  0.4647  0.6135  0.2110
49798SOL    HW155357   5.401   7.971   4.564  1.6636  1.3297  0.2739
49798SOL    HW255358   5.356   8.009   4.424  0.1398  0.0998  0.4118
49799SOL     OW55359  10.273   2.081   5.185 -0.2530  0.6452 -0.0625
49799SOL    HW155360  10.263   1.995   5.226 -1.8763  1.0726  0.5140
49799SOL    HW255361  10.247   2.068   5.094  1.2612  0.1612 -0.4515
49800SOL     OW55362   7.689  10.459   8.075  0.5860 -0.2360 -0.0437
49800SOL    HW155363   7.657  10.544   8.047  2.8642  1.2617  1.5494
49800SOL    HW255364   7.689  10.462   8.170  0.3723 -2.1746  0.0665
49801SOL     OW55365   9.264   5.373   3.058  0.2160  0.1490  0.6350
49801SOL    HW155366   9.186   5.328   3.025 -0.3982  0.6553  1.3471
49801SOL    HW255367   9.244   5.466   3.047 -0.4913  0.4148  3.3161
49802SOL     OW55368   6.073   7.294   0.733  0.5325 -0.0587  0.0812
49802SOL    HW155369   6.101   7.252   0.814  2.8645  0.4722 -0.4001
49802SOL    HW255370   6.144   7.353   0.709 -0.9995  1.3824 -1.2734
49803SOL     OW55371   3.532  12.197   0.189 -0.0511 -0.1882  0.6940
49803SOL    HW155372   3.540  12.155   0.274  1.1564 -0.3009  0.5323
49803SOL    HW255373   3.458  12.153   0.147 -0.8549  0.0787  1.7872
49804SOL     OW55374  12.430   6.828   4.142  0.3037 -0.5535 -0.0041
49804SOL    HW155375  12.517   6.855   4.171  0.0361  0.9758 -0.5258
49804SOL    HW255376  12.438   6.815   4.048  0.0985 -1.0141  0.0368
49805SOL     OW55377   3.170   7.165   2.465  0.3161 -0.8595  0.0516
49805SOL    HW155378   3.230   7.213   2.522 -1.2860 -1.2695  2.1987
49805SOL    HW255379   3.122   7.233   2.418  0.3200 -0.4372  0.6412
49806SOL     OW55380   7.645   2.051   7.095 -0.9107  0.0056  0.1907
49806SOL    HW155381   7.706   2.123   7.077  1.5440 -2.1466 -0.8336
49806SOL    HW255382   7.649   1.996   7.017 -1.1964 -2.2020  1.6352
49807SOL     OW55383   3.116   4.280   7.001 -0.3683  0.5020  0.4842
49807SOL    HW155384   3.078   4.221   6.936  0.2221  1.0297 -0.3749
49807SOL    HW255385   3.195   4.235   7.032  0.2005  0.9076 -0.3296
49808SOL     OW55386  11.943  11.134  12.218  0.0586 -0.2761 -0.2906
49808SOL    HW155387  12.034  11.147  12.246  0.0013  1.1928 -0.7060
49808SOL    HW255388  11.950  11.073  12.144  0.6164 -0.8060  0.1814
49809SOL     OW55389   2.236   0.254   6.311 -0.6087 -0.2926 -0.3393
49809SOL    HW155390   2.214   0.275   6.220 -1.8412  1.9669  0.3787
49809SOL    HW255391   2.330   0.269   6.317 -0.4401 -0.8910 -1.3382
49810SOL     OW55392   4.016   4.012   4.543  0.0090  0.0517 -0.0503
49810SOL    HW155393   3.932   4.056   4.527  0.6881  1.3834 -0.0713
49810SOL    HW255394   4.012   3.988   4.636 -0.2367  0.4810  0.0568
49811SOL     OW55395   6.196   1.608   2.181  0.3599 -0.0650  0.2606
49811SOL    HW155396   6.229   1.522   2.157  2.1908  0.6563  0.0170
49811SOL    HW255397   6.272   1.666   2.174 -0.4191  1.2764  2.0380
49812SOL     OW55398   9.480   5.125   9.773  0.1548 -0.1864  0.4055
49812SOL    HW155399   9.562   5.076   9.776  0.9781  0.6053 -3.4764
49812SOL    HW255400   9.427   5.078   9.709 -0.8982  1.3644  0.0945
49813SOL     OW55401   3.159  10.482   1.906  0.4346  0.0414 -0.1791
49813SOL    HW155402   3.241  10.445   1.937  0.5256  0.4961  0.1304
49813SOL    HW255403   3.182  10.530   1.827  0.1204 -1.5393 -1.2785
49814SOL     OW55404   0.843   3.406   2.073 -0.1438  0.1618  0.0604
49814SOL    HW155405   0.857   3.311   2.073  0.4571  0.2448 -0.5443
49814SOL    HW255406   0.810   3.426   1.986 -2.9781  0.1572  1.0205
49815SOL     OW55407   4.768   8.333   1.537 -0.0497  0.0701  0.7998
49815SOL    HW155408   4.800   8.302   1.452 -0.8282  0.9913  0.1466
49815SOL    HW255409   4.674   8.316   1.535 -0.0323 -0.1628  1.6060
49816SOL     OW55410   1.637   2.470  12.036 -0.1441 -0.2012  0.3553
49816SOL    HW155411   1.570   2.537  12.024  0.4008 -0.0020 -2.3930
49816SOL    HW255412   1.694   2.505  12.105 -3.0130 -0.6224  3.1660
49817SOL     OW55413   4.561   1.203   6.198  0.2231 -0.6134  0.0764
49817SOL    HW155414   4.569   1.108   6.206 -0.7701 -0.7038  0.0576
49817SOL    HW255415   4.493   1.227   6.260 -0.3123 -0.0546 -0.7059
49818SOL     OW55416  10.121   7.885   6.154  0.2991 -0.5040  0.1537
49818SOL    HW155417  10.125   7.977   6.180 -1.0807 -0.0821 -1.0000
49818SOL    HW255418  10.038   7.877   6.107  0.7878 -2.1491 -0.5002
49819SOL     OW55419  11.326   9.810   7.279 -0.5054  0.2185  0.0105
49819SOL    HW155420  11.253   9.749   7.271  0.1660 -1.0563  2.5947
49819SOL    HW255421  11.372   9.804   7.195 -2.9556  0.6119 -1.4567
49820SOL     OW55422   4.176   7.986   8.791  0.7685 -0.2863  0.5041
49820SOL    HW155423   4.265   8.011   8.814  0.9881 -2.1006  1.8746
49820SOL    HW255424   4.121   8.050   8.836  1.2842 -2.2594  4.3734
49821SOL     OW55425   5.320   4.098   6.233 -0.7339  0.1835  0.1445
49821SOL    HW155426   5.278   4.149   6.163 -1.4686 -1.1429 -0.4264
49821SOL    HW255427   5.256   4.030   6.254  0.1867 -0.4700  0.9124
49822SOL     OW55428   1.779   1.235  10.231  1.0250  0.2064 -0.3280
49822SOL    HW155429   1.778   1.194  10.318 -1.2651 -0.8725 -0.7784
49822SOL    HW255430   1.862   1.282  10.227  1.5447 -0.3793  2.1286
49823SOL     OW55431   7.661  12.490   0.101  0.4235 -0.2701  0.2687
49823SOL    HW155432   7.651  12.413   0.158  0.8797 -1.9388 -1.7953
49823SOL    HW255433   7.735  12.538   0.139 -1.3742  0.6055  3.0346
49824SOL     OW55434   0.244  10.617   2.314  0.5310 -0.5375 -0.5213
49824SOL    HW155435   0.330  10.597   2.351 -0.3736 -0.7321  1.5906
49824SOL    HW255436   0.216  10.534   2.274  1.4848 -0.3424 -1.6632
49825SOL     OW55437   7.778   5.135   7.252 -0.2958 -0.2892  0.2182
49825SOL    HW155438   7.687   5.160   7.267 -0.9444 -3.2462  1.9498
49825SOL    HW255439   7.820   5.144   7.337  0.5686 -0.7198 -0.1524
49826SOL     OW55440   9.130   6.914   1.010 -0.2248  0.1506  0.2145
49826SOL    HW155441   9.062   6.849   0.992  0.6520 -0.1920 -2.2509
49826SOL    HW255442   9.204   6.863   1.044 -1.2890  0.5995  3.5776
49827SOL     OW55443   8.845  10.423   4.694  0.4646 -0.3629 -0.0977
49827SOL    HW155444   8.810  10.474   4.621 -3.8000  0.9213  2.4839
49827SOL    HW255445   8.915  10.477   4.730  0.5458  0.4302 -1.3874
49828SOL     OW55446   7.680  10.168   8.119 -0.1222 -0.1156 -0.0103
49828SOL    HW155447   7.707  10.257   8.095 -0.9247  0.5153  1.3166
49828SOL    HW255448   7.718  10.153   8.205  0.6549 -1.3882 -0.5411
49829SOL     OW55449  10.640   1.600   3.556 -0.6088  0.0427  0.4763
49829SOL    HW155450  10.583   1.524   3.542  0.4757 -0.8241  0.6483
49829SOL    HW255451  10.594   1.652   3.622 -1.1000 -0.7585  0.7847
49830SOL     OW55452   3.021   3.620   8.100  0.6012 -0.0814  0.2287
49830SOL    HW155453   2.971   3.700   8.113 -0.4727 -0.7931  0.6753
49830SOL    HW255454   3.083   3.618   8.173  0.7736  0.4396  0.0964
49831SOL     OW55455  10.696   4.344   4.600  0.0367 -0.1171 -0.1363
49831SOL    HW155456  10.790   4.361   4.606 -0.0454  1.1233 -1.5691
49831SOL    HW255457  10.687   4.250   4.616  1.7455 -0.6351 -1.8657
49832SOL     OW55458   7.322   5.790   6.733 -0.0922 -0.1007 -0.2068
49832SOL    HW155459   7.298   5.837   6.812 -0.0146 -0.3245 -0.0474
49832SOL    HW255460   7.398   5.738   6.759 -0.3313 -0.5037 -0.3103
49833SOL     OW55461   1.021   8.690   9.943  0.5810  0.0782  0.1312
49833SOL    HW155462   1.007   8.713   9.851  0.8013 -0.1649  0.0347
49833SOL    HW255463   1.070   8.608   9.940  1.2805  0.4712  0.4540
49834SOL     OW55464   9.892   7.203   7.332 -1.1590  0.3428  0.4104
49834SOL    HW155465   9.939   7.251   7.400  1.3612  0.1948 -1.0832
49834SOL    HW255466   9.901   7.258   7.254  0.8162 -1.8649 -1.0688
49835SOL     OW55467   8.703   5.317   3.323 -0.0692 -0.1561 -0.0361
49835SOL    HW155468   8.692   5.378   3.396  2.8149 -1.2571  1.5161
49835SOL    HW255469   8.708   5.373   3.246 -0.2132  1.3476  0.9925
49836SOL     OW55470  12.477   5.743   3.577  0.3975 -0.2766 -0.1090
49836SOL    HW155471  12.394   5.747   3.624 -0.2889  1.5923 -1.3343
49836SOL    HW255472  12.479   5.656   3.537 -0.2195 -0.9071  1.1906
49837SOL     OW55473   4.156  10.761   1.767 -0.6350 -0.0220  0.1103
49837SOL    HW155474   4.148  10.715   1.850  0.2659  0.3018  0.3814
49837SOL    HW255475   4.231  10.820   1.778 -1.2679  0.9368 -0.5006
49838SOL     OW55476   0.952   9.638   5.636 -0.0268  0.0157  0.7386
49838SOL    HW155477   0.905   9.600   5.710 -0.0000 -0.6786  0.4143
49838SOL    HW255478   0.990   9.562   5.591  0.3703  0.4674  0.2981
49839SOL     OW55479   3.668   8.414  11.813 -0.2981  0.0919 -0.6265
49839SOL    HW155480   3.592   8.405  11.756 -1.3823 -0.5142  0.8479
49839SOL    HW255481   3.722   8.338  11.794 -0.0806  0.4653 -1.6009
49840SOL     OW55482   8.692   3.753  12.248 -0.1549  0.1583 -0.9927
49840SOL    HW155483   8.660   3.784  12.163  0.8322 -0.7949 -1.7433
49840SOL    HW255484   8.768   3.807  12.266 -1.3181  1.4996  0.1345
49841SOL     OW55485   4.968   6.966   0.183 -0.3370 -0.4933  0.1020
49841SOL    HW155486   4.986   6.885   0.135  2.5715 -1.1792  2.0840
49841SOL    HW255487   5.025   7.031   0.142  0.1800 -0.4314  0.8948
49842SOL     OW55488   3.588   2.562   9.721  0.7054 -0.4988  0.3940
49842SOL    HW155489   3.528   2.545   9.648 -0.4003 -0.6183  1.3020
49842SOL    HW255490   3.665   2.602   9.680  1.8253 -4.0661 -1.3739
49843SOL     OW55491   9.481   7.647  10.268 -0.4176  0.1503  0.2844
49843SOL    HW155492   9.536   7.655  10.190  0.1113  2.2625  0.8229
49843SOL    HW255493   9.501   7.725  10.320  0.3065 -1.8384  3.2450
49844SOL     OW55494   4.878   1.281   0.458  0.2742  0.0486 -0.3660
49844SOL    HW155495   4.822   1.214   0.498 -0.4790  0.9599  0.1405
49844SOL    HW255496   4.966   1.259   0.486  0.6034 -2.8670 -3.1349
49845SOL     OW55497   9.401   0.487   2.456  0.1133 -0.2338  0.1109
49845SOL    HW155498   9.383   0.439   2.536  0.6206 -1.1001 -0.2835
49845SOL    HW255499   9.316   0.521   2.428 -0.4507 -1.8352 -0.1984
49846SOL     OW55500   7.707   3.455   8.469 -0.6709 -0.2675 -0.2451
49846SOL    HW155501   7.634   3.493   8.518 -0.9284 -1.1913  0.0893
49846SOL    HW255502   7.773   3.437   8.535 -0.6850 -0.7219 -0.3543
49847SOL     OW55503  10.444   5.545   2.458  0.0491  0.1328  0.5445
49847SOL    HW155504  10.447   5.482   2.530 -0.7229  0.0042  0.4697
49847SOL    HW255505  10.478   5.497   2.382  1.4415  0.4466  0.9283
49848SOL     OW55506   5.004   3.523   8.800  0.7072 -0.4437 -0.1931
49848SOL    HW155507   4.966   3.584   8.737 -0.4724  0.0047  0.9073
49848SOL    HW255508   5.002   3.571   8.883 -1.4441 -2.3751  0.9746
49849SOL     OW55509   7.773  11.483   9.680  0.4861  0.2853 -0.4171
49849SOL    HW155510   7.685  11.488   9.643 -0.2532 -1.2568  1.0208
49849SOL    HW255511   7.829  11.463   9.604 -0.6027 -0.1533 -1.1360
49850SOL     OW55512   9.674   2.482   4.838 -0.1572  0.2984 -0.2325
49850SOL    HW155513   9.599   2.538   4.855  0.1803  0.6581  0.1083
49850SOL    HW255514   9.750   2.538   4.856  0.2036  0.2622 -1.5858
49851SOL     OW55515  11.391   7.444  11.827  0.2949 -0.6711 -0.4884
49851SOL    HW155516  11.377   7.498  11.749 -2.0416  2.5842  1.8749
49851SOL    HW255517  11.466   7.484  11.871  0.3461 -1.1759 -0.1105
49852SOL     OW55518   4.452   0.765  11.312 -0.1442  0.3432  0.7222
49852SOL    HW155519   4.429   0.688  11.364  2.2965  0.3402  1.9542
49852SOL    HW255520   4.462   0.732  11.223  0.2068 -0.6523  1.1201
49853SOL     OW55521   2.967   7.750   6.700 -0.4627 -0.3680 -0.1255
49853SOL    HW155522   2.962   7.722   6.609 -3.3803 -2.2596  0.5015
49853SOL    HW255523   3.003   7.675   6.747  0.6547  0.4543  0.3838
49854SOL     OW55524  11.868   1.172   7.256 -0.5114  0.9016  0.2056
49854SOL    HW155525  11.785   1.213   7.276 -3.0575 -2.4532 -2.3384
49854SOL    HW255526  11.873   1.098   7.317 -0.7950 -0.4492 -1.3397
49855SOL     OW55527   7.220  10.567   2.277  0.3731  0.2651  0.0006
49855SOL    HW155528   7.217  10.480   2.316  1.3566  0.8850  1.5540
49855SOL    HW255529   7.300  10.566   2.224 -0.3663 -0.2060 -1.1525
49856SOL     OW55530  10.902   6.236   3.830 -0.0016 -0.1850  0.0693
49856SOL    HW155531  10.854   6.223   3.748  0.1012  1.0972 -0.2166
49856SOL    HW255532  10.981   6.283   3.804  2.2273 -3.4431  0.3069
49857SOL     OW55533   7.802   5.280  12.337  0.0258  0.2885 -0.1054
49857SOL    HW155534   7.786   5.364  12.294  0.5351 -0.3187 -1.5349
49857SOL    HW255535   7.822   5.219  12.266  0.1476 -0.9434  0.9349
49858SOL     OW55536   1.174  11.434  10.729 -0.1755  0.1600  1.0256
49858SOL    HW155537   1.166  11.489  10.651 -0.3353  0.0111  0.9379
49858SOL    HW255538   1.124  11.480  10.796 -1.3607 -0.5089  0.6208
49859SOL     OW55539   1.284   7.642   7.906 -0.3909  0.0599  1.2693
49859SOL    HW155540   1.253   7.586   7.978 -1.5570  2.0033  2.3523
49859SOL    HW255541   1.210   7.699   7.886  0.9027  1.5450  0.5142
49860SOL     OW55542   4.606  11.328   4.042 -0.5365  0.2220  0.3704
49860SOL    HW155543   4.615  11.286   3.956 -0.9212 -0.4645  0.6603
49860SOL    HW255544   4.657  11.408   4.034 -0.9711  0.4220 -0.6715
49861SOL     OW55545   9.190   0.430  10.957  0.3656  0.5084 -0.1741
49861SOL    HW155546   9.160   0.345  10.990  0.0161  1.0349  0.9216
49861SOL    HW255547   9.141   0.494  11.008  2.7232  1.4116  1.1432
49862SOL     OW55548   9.576   2.175   5.307  0.0243 -0.3009 -0.3310
49862SOL    HW155549   9.612   2.253   5.265  0.6941 -0.4641 -0.0699
49862SOL    HW255550   9.497   2.206   5.352 -0.3553 -0.0024 -1.1795
49863SOL     OW55551   5.686   9.232  10.070  0.0845  0.3203 -0.8296
49863SOL    HW155552   5.604   9.182  10.076  0.9943 -1.1190  0.0160
49863SOL    HW255553   5.749   9.170  10.034  0.9394  1.2712 -0.9925
49864SOL     OW55554   8.329   7.664   5.069  0.6095  0.3776  0.0686
49864SOL    HW155555   8.400   7.709   5.023  0.0787 -0.3495 -1.5419
49864SOL    HW255556   8.267   7.640   5.000 -0.7855  0.2176  1.3236
49865SOL     OW55557  11.998   1.461   6.006  0.3237  0.0611 -0.7415
49865SOL    HW155558  11.938   1.419   6.068  0.2361  0.9619 -0.1925
49865SOL    HW255559  12.018   1.546   6.046  1.1362  0.2093 -1.4284
49866SOL     OW55560   3.819  12.463   2.994  0.0495  0.0820  0.2155
49866SOL    HW155561   3.767  12.457   2.914  1.1814  0.8930 -0.6078
49866SOL    HW255562   3.857  12.376   3.004 -1.4739 -0.5429  0.8677
49867SOL     OW55563   6.542   5.131   0.841 -0.2538 -0.0990  0.1274
49867SOL    HW155564   6.491   5.153   0.918 -0.3782 -0.2815  0.0961
49867SOL    HW255565   6.551   5.036   0.844 -2.0544 -0.3626 -1.1984
49868SOL     OW55566   4.709  11.303   4.570 -0.3506 -0.6782 -0.5803
49868SOL    HW155567   4.765  11.373   4.536 -0.6604  0.1079  0.4614
49868SOL    HW255568   4.649  11.348   4.630 -0.9090 -1.7650 -0.3009
49869SOL     OW55569   5.404   5.815   2.366  0.1005  0.1061  0.1673
49869SOL    HW155570   5.477   5.811   2.305 -0.8895 -0.7941 -1.0073
49869SOL    HW255571   5.342   5.875   2.325 -1.2225 -1.6246 -0.5117
49870SOL     OW55572  10.495  12.422   1.273  0.3249  0.0028  0.6195
49870SOL    HW155573  10.508  12.512   1.305  0.7332 -0.5641  2.1319
49870SOL    HW255574  10.423  12.429   1.211 -0.6390  1.1516  1.8086
49871SOL     OW55575   5.355   7.224  10.618  0.2650  0.0331 -0.3029
49871SOL    HW155576   5.439   7.262  10.591 -0.0312 -0.0555 -1.3905
49871SOL    HW255577   5.342   7.255  10.708  1.5851 -0.1688 -0.0252
49872SOL     OW55578  11.161   1.521   1.186  0.3253  0.0833  0.6119
49872SOL    HW155579  11.096   1.562   1.129  0.2789 -0.9723 -0.1300
49872SOL    HW255580  11.242   1.526   1.136  0.1423 -1.4791  0.1196
49873SOL     OW55581  11.220   2.436  10.376 -0.4151 -0.0959  0.4788
49873SOL    HW155582  11.265   2.387  10.307 -1.4218  0.0491 -0.3183
49873SOL    HW255583  11.133   2.396  10.380 -1.2519  1.5633 -0.1576
49874SOL     OW55584   9.681   0.174   3.429 -0.3417  0.0734  0.2182
49874SOL    HW155585   9.754   0.189   3.369 -1.5741 -0.7358 -1.5438
49874SOL    HW255586   9.658   0.261   3.462  0.8038  0.4354  0.0930
49875SOL     OW55587   5.092   5.514   9.593 -0.3625 -0.1224  0.0751
49875SOL    HW155588   5.072   5.439   9.649 -0.1423  1.2666  2.0978
49875SOL    HW255589   5.039   5.585   9.628  1.7066  1.4540  0.1660
49876SOL     OW55590   8.853   4.498   1.368 -0.6299 -0.7303  0.6872
49876SOL    HW155591   8.865   4.474   1.276  2.5029 -0.2265  0.8452
49876SOL    HW255592   8.808   4.583   1.365 -0.0103 -0.4179 -0.4406
49877SOL     OW55593   1.687   3.936  10.203  0.2183  0.4336  0.4119
49877SOL    HW155594   1.670   3.925  10.296 -0.3212 -0.3404  0.2257
49877SOL    HW255595   1.711   3.849  10.172  3.7683  1.2033  0.4635
49878SOL     OW55596   8.760  10.599   2.074  0.6303  0.1639  0.3216
49878SOL    HW155597   8.768  10.519   2.022 -1.1765  0.7428 -0.9441
49878SOL    HW255598   8.841  10.647   2.057  0.8039 -0.4272 -0.6233
49879SOL     OW55599   4.944   1.896   1.056  0.3735  0.3418 -0.4023
49879SOL    HW155600   5.020   1.862   1.009 -0.3719  0.3743 -1.6671
49879SOL    HW255601   4.886   1.821   1.066  1.1214 -0.0252  1.8076
49880SOL     OW55602   5.761   0.409   9.621 -0.4253  0.4687  0.1998
49880SOL    HW155603   5.741   0.342   9.686 -0.6872  1.1652  0.8501
49880SOL    HW255604   5.733   0.372   9.538 -1.3124  0.0958  0.6620
49881SOL     OW55605   9.979   1.227   5.343  0.3525 -0.2478 -0.2883
49881SOL    HW155606   9.998   1.319   5.325  0.5236  0.1732  1.7284
49881SOL    HW255607   9.894   1.212   5.303  0.9300  0.3693 -1.8303
49882SOL     OW55608   3.723  12.305   8.644  0.0313  0.0926  0.3848
49882SOL    HW155609   3.643  12.356   8.657 -0.2451 -0.6538  1.8513
49882SOL    HW255610   3.695  12.228   8.596  0.4080  1.1361 -1.6211
49883SOL     OW55611   8.954   4.859   9.760 -0.3570 -0.3957 -0.2900
49883SOL    HW155612   8.959   4.771   9.799 -0.3399  0.4502  1.7285
49883SOL    HW255613   9.016   4.911   9.811 -1.3204  1.0856 -0.5740
49884SOL     OW55614   5.995   3.386   9.181  0.2257  0.4350 -0.0492
49884SOL    HW155615   6.034   3.467   9.150 -1.7348  0.9114 -1.4641
49884SOL    HW255616   5.960   3.345   9.102  3.6037 -3.3138  0.0810
49885SOL     OW55617   7.323   3.653  10.080  0.4007  0.3968  0.2586
49885SOL    HW155618   7.390   3.721  10.070 -0.5288  0.9550 -3.4963
49885SOL    HW255619   7.243   3.693  10.046 -1.1231 -1.3733  1.5297
49886SOL     OW55620  10.743   8.948   3.063 -0.0333 -0.1068 -0.0270
49886SOL    HW155621  10.834   8.929   3.042  0.3478 -1.9195  2.7467
49886SOL    HW255622  10.734   9.042   3.049  1.7422 -0.1611 -1.9605
49887SOL     OW55623  11.549   5.974  10.571 -0.1448 -0.6488 -0.1747
49887SOL    HW155624  11.459   5.994  10.597 -1.1703 -1.4744 -2.7000
49887SOL    HW255625  11.558   6.013  10.484  2.4995  0.6905  0.5945
49888SOL     OW55626  12.189   2.286   9.678 -0.3526 -0.0580  0.2923
49888SOL    HW155627  12.271   2.289   9.629 -0.5108 -0.0687  0.0252
49888SOL    HW255628  12.177   2.194   9.700  0.0989  0.0517  1.0002
49889SOL     OW55629   8.035   8.740   3.337 -0.6269 -0.5015 -0.2568
49889SOL    HW155630   7.989   8.824   3.331  1.1511  0.5247 -0.3950
49889SOL    HW255631   8.044   8.710   3.247  1.0766  0.5563 -0.4866
49890SOL     OW55632   5.848  10.768   2.825 -0.0909 -0.1811 -0.2295
49890SOL    HW155633   5.834  10.713   2.902  0.4025 -1.5410 -1.0640
49890SOL    HW255634   5.921  10.825   2.849 -0.7999  0.3323  0.7575
49891SOL     OW55635  10.898   6.385  11.876 -0.0024  0.0550 -0.1821
49891SOL    HW155636  10.939   6.469  11.897 -0.3748  0.5626 -1.4015
49891SOL    HW255637  10.863   6.354  11.960  1.7654  0.1990  0.6528
49892SOL     OW55638   6.897   7.629   1.918  0.1582  0.3933  0.0666
49892SOL    HW155639   6.936   7.591   1.840  0.6194  0.9295  0.0302
49892SOL    HW255640   6.869   7.716   1.891  1.2772  0.9984  0.7518
49893SOL     OW55641  11.019   2.644   6.717  0.5524  0.6710 -0.3702
49893SOL    HW155642  11.066   2.561   6.707  1.0114  0.8669  0.1202
49893SOL    HW255643  10.934   2.618   6.752  1.2280  0.5070  1.2332
49894SOL     OW55644  10.177   8.211   9.616  0.2134 -0.1446  0.8827
49894SOL    HW155645  10.210   8.280   9.559 -0.9743 -0.2558  0.0255
49894SOL    HW255646  10.204   8.129   9.574 -2.2391 -0.2796 -0.6083
49895SOL     OW55647   6.386   7.323  10.754 -0.2152 -0.1661 -0.5544
49895SOL    HW155648   6.424   7.287  10.673 -1.3183 -0.7056 -0.8428
49895SOL    HW255649   6.445   7.295  10.823  0.5390 -0.0166 -1.1226
49896SOL     OW55650   9.450   8.148   1.758 -1.3252  0.8245  0.8533
49896SOL    HW155651   9.485   8.198   1.832 -1.8698  0.7850  1.1433
49896SOL    HW255652   9.526   8.104   1.721 -1.2211 -0.1080  2.1233
49897SOL     OW55653   8.172  12.426  11.735 -0.3192  0.3920  0.3488
49897SOL    HW155654   8.245  12.365  11.743 -0.3773  0.1177 -0.9733
49897SOL    HW255655   8.094  12.371  11.734 -0.3535  0.4107 -1.2042
49898SOL     OW55656  10.018   9.639   1.709 -0.5850 -0.1830 -0.1056
49898SOL    HW155657   9.955   9.573   1.738  0.2592 -0.6993  0.6048
49898SOL    HW255658  10.092   9.630   1.769  0.0906  0.5418 -0.8016
49899SOL     OW55659   6.355   2.705   4.300  0.3439  0.2506  0.0056
49899SOL    HW155660   6.375   2.662   4.383 -1.3690  0.3802  0.5316
49899SOL    HW255661   6.305   2.640   4.251  1.1208  0.2711 -0.8389
49900SOL     OW55662   2.772   4.654  12.101 -0.4962  0.0118  0.1667
49900SOL    HW155663   2.778   4.746  12.124  0.8804  0.2341 -0.9177
49900SOL    HW255664   2.843   4.612  12.150 -1.3049 -0.5395  0.8930
49901SOL     OW55665   6.437   4.468  10.225  0.2721 -0.4518 -1.2908
49901SOL    HW155666   6.498   4.439  10.293 -0.0290  1.3500 -0.1942
49901SOL    HW255667   6.451   4.406  10.152  0.0503 -2.9379  0.6409
49902SOL     OW55668   8.866   3.919   6.502 -0.3379  0.0339  0.5821
49902SOL    HW155669   8.939   3.858   6.506  0.0985 -0.0134 -3.4858
49902SOL    HW255670   8.808   3.892   6.574  2.1434 -1.8887  2.0223
49903SOL     OW55671   1.810  12.293  10.505  0.0543 -0.6182 -0.6190
49903SOL    HW155672   1.773  12.292  10.416  0.4377 -0.5413 -0.7829
49903SOL    HW255673   1.843  12.382  10.515 -0.9089 -0.3100 -0.0094
49904SOL     OW55674   3.730   0.247   0.803  0.4117  0.0643 -0.2197
49904SOL    HW155675   3.790   0.226   0.732  1.5619  0.5873  0.5673
49904SOL    HW255676   3.707   0.163   0.841  1.6115 -0.0850  0.2198
49905SOL     OW55677   6.395   9.613   2.189 -0.0543 -0.6837 -0.4612
49905SOL    HW155678   6.319   9.665   2.162  0.6749  0.2070 -0.8480
49905SOL    HW255679   6.464   9.678   2.202  0.3995 -1.3964  0.7716
49906SOL     OW55680  11.574   9.393   3.857 -0.2149  0.6176  0.1356
49906SOL    HW155681  11.553   9.427   3.770 -1.0522 -0.0644  0.0566
49906SOL    HW255682  11.591   9.300   3.843 -1.0601  0.3525  0.7900
49907SOL     OW55683   6.546   5.470   2.695 -0.2346 -0.0046 -0.3471
49907SOL    HW155684   6.576   5.558   2.721  0.7906 -0.5446  0.3863
49907SOL    HW255685   6.494   5.485   2.616 -0.3990  1.3044 -0.0219
49908SOL     OW55686   7.788   2.838   3.169 -0.3665  0.3671 -0.0036
49908SOL    HW155687   7.771   2.813   3.259  0.2826 -0.2565 -0.0424
49908SOL    HW255688   7.719   2.795   3.118 -0.3238  0.1484  0.1222
49909SOL     OW55689   5.270  12.122   6.271  0.4201 -0.2155  0.5165
49909SOL    HW155690   5.365  12.130   6.269  0.5580 -1.8170 -0.5467
49909SOL    HW255691   5.249  12.060   6.202 -1.3316 -0.6227  1.3567
49910SOL     OW55692   8.631   0.414   3.124 -0.6472 -0.0639  0.4548
49910SOL    HW155693   8.640   0.456   3.038 -0.3627  0.3080  0.6610
49910SOL    HW255694   8.699   0.455   3.177 -0.8003 -0.3179  0.8487
49911SOL     OW55695   1.140   0.322   0.540  0.1595  0.7185 -0.0422
49911SOL    HW155696   1.149   0.376   0.619 -2.9348 -0.5849  1.3568
49911SOL    HW255697   1.053   0.343   0.506  0.7727  0.0311 -2.2141
49912SOL     OW55698  12.004   8.168  10.173 -0.1126  0.7325  0.3744
49912SOL    HW155699  12.016   8.212  10.258 -1.9925 -0.0874  1.1346
49912SOL    HW255700  11.925   8.209  10.137 -0.5142 -0.3452  0.0024
49913SOL     OW55701   0.213   7.305   6.485  0.6510  0.2273  0.5034
49913SOL    HW155702   0.158   7.271   6.414  0.5461  1.2506  0.0719
49913SOL    HW255703   0.183   7.258   6.563  0.1933 -0.3070  0.0194
49914SOL     OW55704   8.833   9.049   3.812  0.5117  0.0215  0.2110
49914SOL    HW155705   8.761   9.092   3.857  1.1350  1.4247 -0.1034
49914SOL    HW255706   8.879   9.000   3.881 -0.2044 -0.1753  0.5614
49915SOL     OW55707   6.519  10.330   0.567  0.1310  0.0372  0.1868
49915SOL    HW155708   6.564  10.412   0.545  0.9275  0.2296  2.3620
49915SOL    HW255709   6.467  10.351   0.645 -0.7663 -1.1860 -0.0563
49916SOL     OW55710   5.897   8.080   1.303 -0.6467  0.0574  0.1818
49916SOL    HW155711   5.852   8.006   1.265 -0.9197 -0.1842  0.9462
49916SOL    HW255712   5.935   8.046   1.385 -0.9171  0.7876  0.6263
49917SOL     OW55713   1.247   6.380   8.256 -0.6315  0.1397  0.3770
49917SOL    HW155714   1.169   6.429   8.230 -0.8291  0.0206  0.7366
49917SOL    HW255715   1.221   6.289   8.249 -0.3994  0.0905  0.1290
49918SOL     OW55716  10.712  12.138   2.409 -0.4827 -0.6321  0.0149
49918SOL    HW155717  10.770  12.187   2.351  0.5091  0.3126  1.7057
49918SOL    HW255718  10.632  12.126   2.358  0.1413  0.5947 -1.3519
49919SOL     OW55719   2.870  11.331   9.185 -0.0632  0.0559  0.4588
49919SOL    HW155720   2.811  11.378   9.127  0.5532  0.2694 -0.0081
49919SOL    HW255721   2.956  11.368   9.167  0.6010 -1.8393 -0.5847
49920SOL     OW55722   3.823   6.922   3.275  0.1506 -0.1594  0.1966
49920SOL    HW155723   3.754   6.864   3.242 -0.7917  1.4855 -0.8338
49920SOL    HW255724   3.876   6.943   3.199  1.1280 -0.4806  0.7677
49921SOL     OW55725   3.633   7.187   1.221  0.1311  0.3213  0.4256
49921SOL    HW155726   3.569   7.119   1.198 -0.9066  1.4187 -0.0956
49921SOL    HW255727   3.683   7.150   1.294 -0.0639 -1.1804 -0.1627
49922SOL     OW55728   5.809   4.266  11.013 -0.2632  0.4123  0.7860
49922SOL    HW155729   5.849   4.220  11.087 -0.6724  0.4671  1.0402
49922SOL    HW255730   5.716   4.267  11.032 -0.2800  1.1785  0.6858
49923SOL     OW55731   5.537   3.263   0.374  0.7335  0.5044 -0.2406
49923SOL    HW155732   5.569   3.287   0.461  0.9662 -1.5620  0.2940
49923SOL    HW255733   5.610   3.216   0.333 -0.4757 -1.5251 -0.2114
49924SOL     OW55734  10.310   0.440   5.776 -0.6227  0.3280  0.3549
49924SOL    HW155735  10.290   0.506   5.844 -0.8304  0.5258  0.1028
49924SOL    HW255736  10.259   0.468   5.700  1.8517  1.8185 -0.8788
49925SOL     OW55737   8.634   4.034  10.996 -0.5813 -0.4393  0.0498
49925SOL    HW155738   8.693   3.966  11.028 -0.1249  0.2409  0.6994
49925SOL    HW255739   8.556   4.026  11.050 -0.7797 -0.8332 -0.2864
49926SOL     OW55740   8.263   4.810   7.285  0.1037 -0.1557 -0.3901
49926SOL    HW155741   8.210   4.752   7.230 -0.3504 -0.3782  0.2731
49926SOL    HW255742   8.208   4.887   7.300  0.6556  0.4009 -1.1581
49927SOL     OW55743  10.675   3.426   8.768 -0.0468 -0.4458 -0.0500
49927SOL    HW155744  10.607   3.462   8.824 -0.2640  1.3309 -1.3552
49927SOL    HW255745  10.709   3.502   8.720  3.1912 -1.1712  0.8656
49928SOL     OW55746  11.725   0.975  11.420 -0.4646  0.0065  0.7854
49928SOL    HW155747  11.673   0.980  11.339  1.4893  0.0887 -0.5227
49928SOL    HW255748  11.667   1.011  11.487 -1.8605  0.7204 -0.7220
49929SOL     OW55749  11.622   7.000   8.150 -0.1116  0.2279  0.0186
49929SOL    HW155750  11.707   7.027   8.184 -1.1700  2.6577  0.9619
49929SOL    HW255751  11.615   7.045   8.065 -1.1982  1.6893  0.8300
49930SOL     OW55752   0.833   3.490  11.332 -0.9583  0.0269  0.4663
49930SOL    HW155753   0.825   3.578  11.295 -2.7629  0.6191  2.1061
49930SOL    HW255754   0.805   3.432  11.262  1.9125  0.5362 -1.2524
49931SOL     OW55755   3.803   5.488   0.049  0.2747  0.1511  0.2562
49931SOL    HW155756   3.856   5.472  -0.029 -1.3598 -0.1119 -0.8604
49931SOL    HW255757   3.834   5.425   0.114  0.8446 -0.4765 -0.6073
49932SOL     OW55758   9.594  12.150   0.260 -0.0362  0.0737 -0.3939
49932SOL    HW155759   9.688  12.151   0.242 -0.0836  0.4694 -0.6337
49932SOL    HW255760   9.586  12.102   0.342  0.3267 -0.4309 -0.6503
49933SOL     OW55761   1.667   1.780  12.096  0.8842 -0.2252 -0.0170
49933SOL    HW155762   1.693   1.742  12.180 -0.6404 -0.6056  0.3095
49933SOL    HW255763   1.661   1.705  12.037 -0.6877 -0.3424  0.2499
49934SOL     OW55764  10.631   4.388   7.409 -0.3193 -0.1578  0.0801
49934SOL    HW155765  10.687   4.328   7.360  1.0458 -0.3194  1.7585
49934SOL    HW255766  10.691   4.451   7.448 -1.4992  0.8111  0.3896
49935SOL     OW55767   6.455  10.949   7.357  0.3972 -0.4149  0.4580
49935SOL    HW155768   6.393  11.007   7.400 -0.1832 -0.3526 -0.4481
49935SOL    HW255769   6.415  10.862   7.363  0.7571 -0.5568  0.8603
49936SOL     OW55770   1.945  10.214   7.904 -0.0633 -0.4255 -0.2796
49936SOL    HW155771   1.919  10.277   7.971 -0.8261 -1.3830  0.3606
49936SOL    HW255772   1.992  10.146   7.952  0.5889 -0.4447 -0.9308
49937SOL     OW55773   5.827   1.652   8.252  0.1118  0.6621 -0.0731
49937SOL    HW155774   5.842   1.654   8.158 -0.1130 -2.5339 -0.2975
49937SOL    HW255775   5.906   1.692   8.290  0.0238  2.3670 -1.5491
49938SOL     OW55776   8.901  10.294   9.485  0.3925 -0.0191 -0.1242
49938SOL    HW155777   8.828  10.256   9.437 -0.2789  0.2234  0.6852
49938SOL    HW255778   8.948  10.219   9.521  0.3579 -0.1601 -0.3670
49939SOL     OW55779  11.372   2.246   5.464 -0.2142 -0.2354 -0.2680
49939SOL    HW155780  11.419   2.299   5.399 -1.7577  0.2252 -1.0586
49939SOL    HW255781  11.430   2.245   5.540  0.0844  2.2302 -0.3810
49940SOL     OW55782   3.367   4.396  11.804 -0.1071 -0.3005  0.1361
49940SOL    HW155783   3.368   4.415  11.898  1.8284  0.3996  0.0166
49940SOL    HW255784   3.373   4.481  11.762  0.9397 -0.7115 -0.5767
49941SOL     OW55785   1.159   2.728   0.011  0.0238  0.5079 -0.1051
49941SOL    HW155786   1.120   2.815   0.000  1.1834  1.1095  0.3870
49941SOL    HW255787   1.170   2.696  -0.079  1.6081  1.8289 -0.4467
49942SOL     OW55788   2.207   5.399   5.596 -0.1105 -0.3682  0.1607
49942SOL    HW155789   2.292   5.361   5.577 -0.0793 -1.0178  1.4788
49942SOL    HW255790   2.209   5.486   5.556  1.2787 -0.2542  0.4534
49943SOL     OW55791  11.694   5.270   8.338 -0.4367 -0.2783  0.2979
49943SOL    HW155792  11.782   5.252   8.372 -0.4139 -0.2396  0.2607
49943SOL    HW255793  11.661   5.185   8.310 -0.0629 -0.1690 -0.5042
49944SOL     OW55794   9.941   2.005   6.818 -1.0054  0.3601  0.2771
49944SOL    HW155795   9.979   2.009   6.730 -0.9713 -1.4033  0.1815
49944SOL    HW255796   9.947   1.913   6.843 -2.6075  0.5303  1.4382
49945SOL     OW55797  12.084   4.294  11.612  0.4152  0.0341  0.1915
49945SOL    HW155798  12.125   4.209  11.595 -0.3269 -0.4371  0.6491
49945SOL    HW255799  12.157   4.356  11.619  0.8681 -0.0366 -2.7717
49946SOL     OW55800   5.163   2.583   8.656  0.2913 -0.0138  0.4848
49946SOL    HW155801   5.197   2.500   8.624 -1.9867 -0.4096 -1.1705
49946SOL    HW255802   5.146   2.568   8.749  1.0069 -0.9802  0.4779
49947SOL     OW55803   8.759  10.867   7.574  0.3560  0.0687  0.2495
49947SOL    HW155804   8.793  10.934   7.514  1.8383  0.3526  1.3417
49947SOL    HW255805   8.835  10.813   7.595 -0.3452 -0.6259  1.1096
49948SOL     OW55806   5.726   9.071   7.111  0.2246  0.2411  0.0953
49948SOL    HW155807   5.766   9.059   7.197  1.6858  0.2753 -0.5602
49948SOL    HW255808   5.632   9.080   7.130  0.3576 -1.0428  1.5561
49949SOL     OW55809   7.767   7.874   3.882  0.5602 -0.3063  0.6829
49949SOL    HW155810   7.761   7.896   3.789  0.9127  1.5977  1.0792
49949SOL    HW255811   7.822   7.942   3.920  1.5926 -1.8254  2.0721
49950SOL     OW55812   4.792   1.227   4.645 -0.0335 -0.5203 -0.0793
49950SOL    HW155813   4.741   1.196   4.571  0.7129 -1.0167 -0.3970
49950SOL    HW255814   4.807   1.320   4.627 -0.6646 -0.4178 -0.0745
49951SOL     OW55815   1.048  11.003  11.621 -0.3329  0.2317  0.7686
49951SOL    HW155816   1.036  10.910  11.602 -1.6018  0.6745 -0.7814
49951SOL    HW255817   1.122  11.030  11.567 -2.0613  0.8193 -1.4287
49952SOL     OW55818   6.088   4.923  11.467  0.2791 -0.2714  0.1732
49952SOL    HW155819   6.083   4.835  11.428  1.5693 -0.2772 -0.0059
49952SOL    HW255820   6.102   4.906  11.561  0.9319 -0.2642  0.0798
49953SOL     OW55821   1.932   0.672  10.622  0.0030  0.2360 -0.1651
49953SOL    HW155822   2.025   0.684  10.604 -0.2048  0.0655 -1.4574
49953SOL    HW255823   1.898   0.630  10.542 -0.8852 -1.1051  0.8768
49954SOL     OW55824   7.305  11.710   1.560 -0.5240  0.6616 -0.1279
49954SOL    HW155825   7.336  11.658   1.634 -2.4068  0.1081  0.3136
49954SOL    HW255826   7.317  11.654   1.484 -0.0818  0.6153 -0.0279
49955SOL     OW55827   3.634   2.766   9.003 -0.1197  0.0378 -0.2389
49955SOL    HW155828   3.629   2.738   8.912  1.3791 -0.6727 -0.1340
49955SOL    HW255829   3.649   2.686   9.052  2.1902  0.7195  0.2872
49956SOL     OW55830   6.383   5.749  10.392 -0.3512 -0.0323 -0.7000
49956SOL    HW155831   6.417   5.693  10.323 -1.2360 -1.2350 -0.1786
49956SOL    HW255832   6.291   5.762  10.370 -0.6455 -0.4425  0.2591
49957SOL     OW55833  11.677   7.139   3.756  0.1775 -0.4856 -0.1443
49957SOL    HW155834  11.609   7.085   3.796  0.8550 -0.5271  1.0093
49957SOL    HW255835  11.685   7.106   3.667 -2.0220  0.2013 -0.6588
49958SOL     OW55836   9.893   6.023   1.353  0.5926  0.6367 -0.6062
49958SOL    HW155837   9.870   6.114   1.370  0.8855  0.4268  0.9854
49958SOL    HW255838   9.953   6.027   1.278 -0.3905  1.6202 -1.3775
49959SOL     OW55839   5.663  10.080   2.844  0.1353 -0.1154  0.3348
49959SOL    HW155840   5.726  10.091   2.914 -0.7472  0.2215  1.1031
49959SOL    HW255841   5.599  10.017   2.878 -0.2279 -0.0570 -0.2168
49960SOL     OW55842   4.035   2.196   6.634 -0.4120  0.5541 -1.2404
49960SOL    HW155843   4.073   2.198   6.546 -2.1671 -0.6008 -2.0965
49960SOL    HW255844   3.940   2.190   6.619 -0.7224 -0.3069  0.7056
49961SOL     OW55845   7.530   1.332   4.509  0.5711  0.1137  0.6396
49961SOL    HW155846   7.544   1.427   4.515 -0.9829  0.2600  3.8204
49961SOL    HW255847   7.613   1.298   4.477  1.6496  2.4182  0.7561
49962SOL     OW55848   2.720   1.956   1.055  0.3860  0.0600 -0.4333
49962SOL    HW155849   2.699   2.045   1.082  2.2714  1.1085 -2.2305
49962SOL    HW255850   2.767   1.918   1.130  0.6288  0.9740 -0.1202
49963SOL     OW55851   9.598  12.312  11.113 -0.6351 -0.0790 -0.0914
49963SOL    HW155852   9.568  12.290  11.025 -0.1536  2.4096 -0.9710
49963SOL    HW255853   9.691  12.292  11.113 -0.7283 -0.5092 -0.0005
49964SOL     OW55854   7.342   6.462   5.709 -0.2744 -0.0675  0.0105
49964SOL    HW155855   7.264   6.437   5.659 -2.2882  0.9063  2.4590
49964SOL    HW255856   7.364   6.383   5.759  0.2857 -0.3008 -0.5830
49965SOL     OW55857   4.515  10.395   7.581 -0.0802  0.5660 -0.3672
49965SOL    HW155858   4.479  10.307   7.589 -0.0771  0.5778 -0.2185
49965SOL    HW255859   4.494  10.422   7.492 -0.4984  0.5999 -0.2599
49966SOL     OW55860   4.050   8.558   0.400 -0.0516  0.0037  0.6232
49966SOL    HW155861   4.130   8.527   0.440 -0.9352 -2.1515  0.8320
49966SOL    HW255862   4.067   8.557   0.306  0.8941  1.8273  0.7272
49967SOL     OW55863   5.918   4.533   1.330 -0.1116  0.1807  0.3460
49967SOL    HW155864   5.973   4.466   1.370  1.0784  0.7147 -0.3309
49967SOL    HW255865   5.980   4.598   1.297 -1.1895  1.0902  0.0538
49968SOL     OW55866   2.770   0.065   9.011  0.4575 -0.1836  0.4306
49968SOL    HW155867   2.800   0.090   8.923 -0.4314 -1.3281 -0.2236
49968SOL    HW255868   2.847   0.023   9.051  0.7372 -0.0581  0.0342
49969SOL     OW55869   3.411   8.158   1.484  0.3911 -0.1848 -0.3978
49969SOL    HW155870   3.419   8.245   1.524  4.4890  0.0087 -1.1597
49969SOL    HW255871   3.417   8.174   1.390 -2.7391 -1.1384 -0.8746
49970SOL     OW55872   7.826   8.296   6.327 -0.5649 -0.1438 -0.5579
49970SOL    HW155873   7.896   8.235   6.350  0.0212  1.0776  1.1097
49970SOL    HW255874   7.856   8.340   6.248 -1.1124 -2.1162 -1.9487
49971SOL     OW55875   4.679   2.542   1.396  0.2137 -0.3019  0.2331
49971SOL    HW155876   4.736   2.590   1.457  0.9376  1.0490 -1.4329
49971SOL    HW255877   4.590   2.564   1.423  0.3886 -2.0183  2.5496
49972SOL     OW55878   4.427   5.231  11.965 -0.2110  0.1434 -0.1166
49972SOL    HW155879   4.393   5.143  11.947  0.7662 -0.2954  0.1065
49972SOL    HW255880   4.408   5.281  11.886 -0.4672 -0.3659 -0.3799
49973SOL     OW55881  12.442   5.001   9.169  0.4205 -0.4032  0.1190
49973SOL    HW155882  12.357   5.039   9.146  0.5396 -0.5460 -0.5522
49973SOL    HW255883  12.441   5.000   9.265  1.2437  3.1784  0.2984
49974SOL     OW55884  11.898  11.739   1.134 -0.3877 -0.1891 -0.4486
49974SOL    HW155885  11.961  11.805   1.162  0.6114 -0.3845 -2.0961
49974SOL    HW255886  11.834  11.735   1.204 -0.9246  3.0999 -0.6174
49975SOL     OW55887   2.107   5.475   2.033 -0.1129  0.2125  0.2891
49975SOL    HW155888   2.190   5.482   2.079  0.0915 -2.4001  0.4307
49975SOL    HW255889   2.041   5.499   2.098  0.3814  0.1836  0.8055
49976SOL     OW55890   0.779   7.272   9.802 -0.3575 -0.3909  0.5181
49976SOL    HW155891   0.818   7.198   9.755 -0.4379 -1.2612  1.7837
49976SOL    HW255892   0.688   7.272   9.774  0.0895  0.5192 -1.0466
49977SOL     OW55893   7.264  11.717   1.074  0.0682  0.2253  0.4342
49977SOL    HW155894   7.245  11.775   1.000 -1.1597 -0.3917  0.2417
49977SOL    HW255895   7.184  11.666   1.086  0.5804 -0.3497  1.5935
49978SOL     OW55896   9.606  10.385   4.953  0.2480 -0.5879  0.6574
49978SOL    HW155897   9.596  10.372   4.858  1.1628 -1.7760  0.7002
49978SOL    HW255898   9.669  10.456   4.961  0.5880 -0.8553  0.3686
49979SOL     OW55899   9.678   9.061   5.131  0.0204  0.2015  0.6002
49979SOL    HW155900   9.681   9.085   5.224 -1.9000 -1.1987  1.1038
49979SOL    HW255901   9.592   9.092   5.102  0.6884  0.8113 -0.7983
49980SOL     OW55902   3.603   3.334   2.894  0.2923 -0.2268 -0.2119
49980SOL    HW155903   3.592   3.294   2.808 -1.0152 -0.6692  0.1413
49980SOL    HW255904   3.536   3.294   2.949  0.4255  0.7972  0.7549
49981SOL     OW55905   8.500   9.841   6.990 -0.4741  0.2491  0.3393
49981SOL    HW155906   8.525   9.752   6.963 -3.2957 -1.0781  1.5712
49981SOL    HW255907   8.572   9.871   7.044  1.2041 -0.6596 -1.2812
49982SOL     OW55908   5.028  11.225   9.766 -0.0563 -0.2820 -0.3637
49982SOL    HW155909   5.041  11.283   9.841  0.9325  0.2326 -0.9120
49982SOL    HW255910   5.053  11.277   9.690  2.8026 -1.9739 -0.7333
49983SOL     OW55911   5.329   2.506   5.360 -0.0837  0.1276  0.0864
49983SOL    HW155912   5.298   2.579   5.307  0.3431  0.8552  0.8122
49983SOL    HW255913   5.423   2.520   5.368 -0.1378  0.0394  1.0287
49984SOL     OW55914   0.779   3.034  11.401  0.4680  0.0024 -0.0857
49984SOL    HW155915   0.769   3.129  11.392  1.7706  0.1924  0.1488
49984SOL    HW255916   0.744   3.015  11.488 -0.2102  0.2001 -0.3137
49985SOL     OW55917   5.932   0.538   2.304  0.7511  0.3512  0.6148
49985SOL    HW155918   5.863   0.550   2.370 -0.8195  1.1861 -1.0900
49985SOL    HW255919   5.919   0.450   2.270 -0.5779  1.0491 -0.8184
49986SOL     OW55920   2.343   6.759   5.129  0.6433 -0.0793  0.0113
49986SOL    HW155921   2.357   6.813   5.052 -2.9986 -0.2576 -0.9812
49986SOL    HW255922   2.379   6.674   5.106 -0.1444 -0.0525 -1.4259
49987SOL     OW55923   1.406  10.961   2.832 -0.3975  0.4059 -0.1316
49987SOL    HW155924   1.333  10.944   2.773 -1.4267 -0.9458  1.4454
49987SOL    HW255925   1.466  10.887   2.820  0.6601  1.3968 -1.2574
49988SOL     OW55926   5.178   4.585  10.153 -0.0667 -0.0446 -0.4059
49988SOL    HW155927   5.165   4.680  10.150  2.3065  0.3769  0.2407
49988SOL    HW255928   5.254   4.570  10.096  0.3940 -1.3635  0.5154
49989SOL     OW55929   7.822  11.154   7.841  0.0921 -0.0863 -0.0345
49989SOL    HW155930   7.811  11.140   7.747 -1.4359 -0.6241  0.2078
49989SOL    HW255931   7.812  11.067   7.880  1.7670 -0.0570  0.5732
49990SOL     OW55932   9.513   3.873  11.969  0.0973 -0.5895 -0.6178
49990SOL    HW155933   9.459   3.928  11.911  0.1205  0.0524 -0.0461
49990SOL    HW255934   9.450   3.831  12.028  0.2919  2.7187  2.2871
49991SOL     OW55935   4.452  11.869   9.542 -0.3736 -0.0828 -0.2359
49991SOL    HW155936   4.477  11.958   9.521  0.5111 -0.6981 -1.9795
49991SOL    HW255937   4.428  11.829   9.458  0.3050 -1.7782  0.3148
49992SOL     OW55938   5.997   9.789   6.065  0.5124  0.4830  0.5237
49992SOL    HW155939   6.080   9.807   6.110  0.2541 -0.8447  1.5927
49992SOL    HW255940   6.023   9.741   5.986  0.8353  1.2138  0.1725
49993SOL     OW55941  11.662   9.188   4.609  0.0912  0.1926 -0.1973
49993SOL    HW155942  11.692   9.240   4.683  1.4890 -1.7882  0.7050
49993SOL    HW255943  11.699   9.231   4.532 -0.9778  1.9928  0.2301
49994SOL     OW55944   0.125   1.132   3.128  0.3920 -0.1435  0.1786
49994SOL    HW155945   0.206   1.131   3.077  0.1201  0.3527 -0.2673
49994SOL    HW255946   0.155   1.124   3.219  0.8700 -1.1224 -0.0553
49995SOL     OW55947   2.053   3.166   4.033  0.2790  0.4617  0.1089
49995SOL    HW155948   2.042   3.151   3.939  1.7914 -2.3211  0.2612
49995SOL    HW255949   1.965   3.157   4.070 -0.3299  1.5873 -1.0077
49996SOL     OW55950   4.694   5.926   7.187 -0.0181 -0.0814 -0.2831
49996SOL    HW155951   4.700   5.842   7.141  0.7120  0.7582 -1.7863
49996SOL    HW255952   4.614   5.919   7.238 -0.7743 -1.1534 -1.5340
49997SOL     OW55953   2.267   9.995   0.159 -0.5139  0.4452 -0.3059
49997SOL    HW155954   2.260   9.941   0.238  0.3292 -0.7816 -1.0401
49997SOL    HW255955   2.360  10.013   0.151 -0.4163 -0.6012 -1.7649
49998SOL     OW55956   6.302   8.943   4.946  0.0787  0.1310  0.6235
49998SOL    HW155957   6.277   8.922   4.856  1.0871 -0.4408  0.4654
49998SOL    HW255958   6.371   9.008   4.938  0.8842 -0.6600  0.9312
49999SOL     OW55959   6.196   0.593  11.841  0.2300 -0.0661  0.0336
49999SOL    HW155960   6.132   0.522  11.839  0.3662 -0.1947  0.1537
49999SOL    HW255961   6.279   0.550  11.864  0.0710  0.3086  1.4250
50000SOL     OW55962   4.529   5.166   9.187  0.0579  0.5504 -0.2611
50000SOL    HW155963   4.478   5.208   9.256 -0.0937 -1.7344  1.1348
50000SOL    HW255964   4.612   5.213   9.185  0.8058 -0.3978  2.8255
50001SOL     OW55965   2.338   7.244   3.978  0.5022  0.0193  0.0683
50001SOL    HW155966   2.347   7.208   3.889  0.7571  1.0649 -0.3501
50001SOL    HW255967   2.351   7.339   3.966  0.3538  0.1886  1.1985
50002SOL     OW55968   9.657   7.699   4.842 -0.0607  0.2824  0.0827
50002SOL    HW155969   9.746   7.676   4.818 -0.2472 -0.3969  0.0150
50002SOL    HW255970   9.665   7.784   4.886  0.6363  0.1531  0.2193
50003SOL     OW55971  10.876   6.841   4.410  0.7022 -0.1118 -0.1500
50003SOL    HW155972  10.958   6.877   4.376  2.3467 -0.5004  2.9999
50003SOL    HW255973  10.842   6.908   4.469 -1.4277  0.1204 -1.5423
50004SOL     OW55974   7.045   8.858   7.521  0.2983 -0.1955 -0.6892
50004SOL    HW155975   6.955   8.868   7.492  0.2107 -0.8343 -0.6423
50004SOL    HW255976   7.048   8.773   7.564  0.9403 -0.2147 -0.7552
50005SOL     OW55977   8.605   1.323   9.870 -0.5097 -0.1482  0.2834
50005SOL    HW155978   8.570   1.349   9.785 -1.0112 -1.2529  0.1316
50005SOL    HW255979   8.564   1.383   9.932 -2.5877 -1.2635  0.0815
50006SOL     OW55980   8.249   1.931   0.233 -0.7252  0.0021 -0.6757
50006SOL    HW155981   8.306   1.958   0.305 -0.8476 -1.5514  0.0595
50006SOL    HW255982   8.307   1.919   0.158 -0.4763  0.8746 -0.6240
50007SOL     OW55983   1.276  10.639   1.675 -0.2225  0.1716 -0.5254
50007SOL    HW155984   1.240  10.555   1.646  0.7858 -0.3093 -0.4669
50007SOL    HW255985   1.200  10.691   1.700 -0.8171 -1.2854  0.9374
50008SOL     OW55986   6.836   1.168   6.963  0.5509 -0.5524  0.2593
50008SOL    HW155987   6.799   1.221   7.033  0.6004  0.5940 -0.5609
50008SOL    HW255988   6.862   1.231   6.896  0.7469 -1.6039 -0.6817
50009SOL     OW55989   1.053   4.967   5.402 -0.1030  0.7738 -0.1981
50009SOL    HW155990   1.108   4.917   5.463  0.2725 -0.5455 -1.5694
50009SOL    HW255991   0.963   4.948   5.430  0.0424  2.5098  1.7141
50010SOL     OW55992   9.798   4.264   7.506  0.2691  0.4436  0.3188
50010SOL    HW155993   9.735   4.285   7.575 -0.1392 -0.5411  0.2709
50010SOL    HW255994   9.756   4.292   7.425 -0.1677 -0.2919  0.2786
50011SOL     OW55995   8.704   0.302   7.230 -0.5573  0.1909  0.1634
50011SOL    HW155996   8.689   0.380   7.177  1.4059  1.5275  1.4402
50011SOL    HW255997   8.761   0.247   7.177 -0.9789  0.1536 -0.2618
50012SOL     OW55998   2.805   6.821   5.752 -0.1163  0.0203 -0.7115
50012SOL    HW155999   2.837   6.752   5.693 -1.5548 -0.7907 -0.5943
50012SOL    HW256000   2.723   6.785   5.788  1.5829 -0.3884  3.2705
50013SOL     OW56001   1.942   0.729   6.622 -0.7645  0.1302  0.3304
50013SOL    HW156002   1.970   0.719   6.713 -1.0854  0.9915  0.5304
50013SOL    HW256003   1.982   0.812   6.593 -2.9431  1.3305  0.5830
50014SOL     OW56004   6.177   0.373   9.311 -0.5024 -0.2362  0.1586
50014SOL    HW156005   6.087   0.399   9.291 -0.4466 -0.6812 -0.7315
50014SOL    HW256006   6.170   0.319   9.390 -0.8319  0.9251  0.9433
50015SOL     OW56007   8.739   8.881  10.647  0.4730  0.0404 -0.0317
50015SOL    HW156008   8.701   8.818  10.585  1.4853 -0.1014 -0.5280
50015SOL    HW256009   8.823   8.843  10.671  0.8483  0.9378  0.1007
50016SOL     OW56010   0.969   4.996  11.381 -0.4648  0.1104  0.2150
50016SOL    HW156011   0.906   4.980  11.452 -0.0702  0.9356  0.7658
50016SOL    HW256012   1.021   4.915  11.377  0.0904  0.3723  1.4823
50017SOL     OW56013   8.341   6.826   4.777  0.6036 -0.2881 -0.2137
50017SOL    HW156014   8.288   6.762   4.730  1.9055 -0.6546 -1.2567
50017SOL    HW256015   8.300   6.834   4.862 -1.3793 -0.2124 -1.1302
50018SOL     OW56016   7.387   4.472   6.282 -0.1567 -0.1229 -0.0008
50018SOL    HW156017   7.408   4.540   6.218 -0.7446 -0.0617 -0.1303
50018SOL    HW256018   7.324   4.512   6.342  1.2585  0.1952  1.3322
50019SOL     OW56019   5.663   3.938   1.184  0.9273 -0.0945  0.3079
50019SOL    HW156020   5.624   3.881   1.117  1.2464 -0.1512  0.1678
50019SOL    HW256021   5.741   3.890   1.213  1.4950  0.5032 -0.1904
50020SOL     OW56022   3.636  10.151  11.767  0.1250  0.5041  0.2388
50020SOL    HW156023   3.729  10.150  11.791  0.0654  0.7467  0.4832
50020SOL    HW256024   3.634  10.115  11.678  0.4704  0.6308  0.1764
50021SOL     OW56025   1.383   4.206   2.742  0.3394  0.1625  0.3201
50021SOL    HW156026   1.413   4.175   2.827 -2.9807  0.2289  1.6710
50021SOL    HW256027   1.366   4.126   2.692  0.6973  0.0824  0.3241
50022SOL     OW56028   2.530   1.477   4.202 -0.2931 -0.3198  0.0837
50022SOL    HW156029   2.436   1.488   4.207 -0.2802 -0.4555  0.7441
50022SOL    HW256030   2.566   1.565   4.213 -0.3627 -0.1205 -1.1770
50023SOL     OW56031  10.464   4.715  10.022 -0.1399  0.3909  0.1546
50023SOL    HW156032  10.384   4.667   9.999  0.8754 -1.2306 -0.1660
50023SOL    HW256033  10.486   4.763   9.942  0.4694 -1.0458 -0.5904
50024SOL     OW56034   0.606  10.367   2.542 -0.0734 -0.3330 -0.0219
50024SOL    HW156035   0.603  10.386   2.636 -0.0803 -0.8587  0.0880
50024SOL    HW256036   0.687  10.317   2.530 -0.4718 -0.9665 -0.1582
50025SOL     OW56037   4.410  11.565  10.103 -0.2679 -0.8207 -0.0885
50025SOL    HW156038   4.401  11.657  10.127  0.3046 -0.4029 -1.3762
50025SOL    HW256039   4.385  11.562  10.011  2.0101 -1.4992 -0.7454
50026SOL     OW56040  10.735  11.649   2.478 -0.5976 -0.3051 -0.0783
50026SOL    HW156041  10.667  11.599   2.434 -0.0049 -1.0818 -0.1385
50026SOL    HW256042  10.816  11.626   2.432 -0.1289 -0.2715  0.7004
50027SOL     OW56043   7.166   9.131  11.934 -0.3927  0.6237  0.0572
50027SOL    HW156044   7.146   9.053  11.986  0.7112  0.8578  0.8720
50027SOL    HW256045   7.155   9.204  11.995  0.8303  0.9126 -0.0362
50028SOL     OW56046   7.827   7.663  11.652  0.2330 -0.0581  0.3025
50028SOL    HW156047   7.840   7.621  11.567 -0.7264  0.3480 -0.0551
50028SOL    HW256048   7.753   7.617  11.691  0.0341  0.4107  0.4916
50029SOL     OW56049  11.604   4.453   3.674 -0.3851 -0.0055 -0.2276
50029SOL    HW156050  11.612   4.546   3.694  0.0715 -0.4545  1.8182
50029SOL    HW256051  11.680   4.412   3.714 -1.0446 -1.3844 -0.3163
50030SOL     OW56052  11.082   9.905   6.323 -0.0499  0.0446 -0.8436
50030SOL    HW156053  11.159   9.849   6.320 -0.9873 -1.3768  0.4242
50030SOL    HW256054  11.015   9.857   6.275 -0.9204 -0.0230  0.4088
50031SOL     OW56055   4.603   0.093  11.251 -0.4158  0.6628  0.3544
50031SOL    HW156056   4.554   0.094  11.333  0.7653  2.2480  1.1065
50031SOL    HW256057   4.603   0.185  11.222  2.2980  0.8162  0.5832
50032SOL     OW56058   7.884   0.759   3.439  0.3400  0.0503  0.7718
50032SOL    HW156059   7.845   0.825   3.381  0.7172 -0.8900 -0.5890
50032SOL    HW256060   7.963   0.802   3.474 -0.4504  1.0025  1.4508
50033SOL     OW56061   3.305  11.875   2.162 -0.4516 -0.0118  0.3208
50033SOL    HW156062   3.261  11.919   2.089 -2.3256 -1.9451  0.1873
50033SOL    HW256063   3.316  11.943   2.228 -0.0315  1.4403 -1.1864
50034SOL     OW56064   6.737   0.558   1.190  0.2637  0.2963 -0.0921
50034SOL    HW156065   6.699   0.566   1.277  0.7870 -4.0125  0.7825
50034SOL    HW256066   6.826   0.590   1.199 -0.3087  1.8387  0.3265
50035SOL     OW56067   5.752   1.634   6.476 -0.0920  0.1501 -0.4604
50035SOL    HW156068   5.725   1.552   6.434 -0.2652  0.2986 -0.6396
50035SOL    HW256069   5.842   1.619   6.503 -0.5117 -0.5562  0.6333
50036SOL     OW56070   4.770   7.394   1.389  0.2386 -0.2367  0.2478
50036SOL    HW156071   4.842   7.445   1.425 -1.1208  1.3434  0.8136
50036SOL    HW256072   4.713   7.458   1.346 -0.7816 -1.4621 -0.3031
50037SOL     OW56073   5.510   3.041   4.793 -0.0838  0.0288 -0.9068
50037SOL    HW156074   5.520   3.016   4.885  1.3142 -1.3961 -1.4013
50037SOL    HW256075   5.439   2.986   4.761 -0.7563  0.7182 -0.6480
50038SOL     OW56076   4.705   0.513   3.672 -0.2207 -0.0993 -0.4116
50038SOL    HW156077   4.621   0.496   3.715 -0.1549  0.8286  0.1074
50038SOL    HW256078   4.742   0.587   3.720  1.6616 -1.5153  0.4421
50039SOL     OW56079   0.476   9.149  11.204  0.3666 -0.5398 -0.5397
50039SOL    HW156080   0.458   9.090  11.131 -0.9603 -0.7691 -0.0707
50039SOL    HW256081   0.394   9.198  11.215  1.0431  0.5476 -0.1483
50040SOL     OW56082   5.966   6.728   8.170  0.1634  0.0178 -0.9799
50040SOL    HW156083   5.951   6.734   8.264 -0.1396  1.0233 -1.0795
50040SOL    HW256084   6.021   6.803   8.149  2.3491 -1.5569 -1.2391
50041SOL     OW56085   2.579   5.330   0.206 -0.0213  0.1174 -0.2264
50041SOL    HW156086   2.532   5.299   0.283 -1.5137  2.2687 -0.2019
50041SOL    HW256087   2.621   5.411   0.235  0.5853  0.2103 -1.3124
50042SOL     OW56088   2.899   8.693   2.424  0.7792  0.0715 -0.2611
50042SOL    HW156089   2.958   8.765   2.448 -0.5628  0.9389  0.5347
50042SOL    HW256090   2.896   8.638   2.502  0.9661 -0.2797 -0.4989
50043SOL     OW56091   4.691   5.746  10.340  0.0003 -0.1637 -0.5591
50043SOL    HW156092   4.643   5.731  10.421  1.2473  1.7611  0.6050
50043SOL    HW256093   4.739   5.664  10.326  0.4583 -0.2304  1.1525
50044SOL     OW56094   5.789   5.958   3.855 -0.0213  0.4545 -0.1693
50044SOL    HW156095   5.875   5.956   3.896 -0.2371 -1.2793  0.2740
50044SOL    HW256096   5.742   5.883   3.892 -1.5075  0.9786 -0.8694
50045SOL     OW56097   5.470  10.337   6.591 -0.3864 -0.5589  0.3209
50045SOL    HW156098   5.464  10.367   6.681 -1.9108 -0.2910  0.1654
50045SOL    HW256099   5.458  10.242   6.595  1.7737 -0.8733  0.5668
50046SOL     OW56100  11.103   6.919   0.939 -0.1089  0.0653 -0.1807
50046SOL    HW156101  11.033   6.983   0.930  2.4395  3.2016  0.6256
50046SOL    HW256102  11.153   6.926   0.858  1.1580  0.3496  0.6027
50047SOL     OW56103   9.686  11.735   5.092  0.3794 -0.1133  0.6207
50047SOL    HW156104   9.636  11.811   5.062  0.3337 -0.7504 -1.0373
50047SOL    HW256105   9.668  11.667   5.026  1.7571 -1.0193  1.1332
50048SOL     OW56106   4.711   7.256   7.097  0.0714 -0.1622 -0.4483
50048SOL    HW156107   4.704   7.162   7.117  0.0285 -0.3868 -1.4671
50048SOL    HW256108   4.804   7.276   7.108  0.0796 -0.3174 -0.2213
50049SOL     OW56109   6.800  10.710   7.672  0.3148  0.2780 -0.0209
50049SOL    HW156110   6.757  10.782   7.626  0.0425 -0.4736 -0.9754
50049SOL    HW256111   6.791  10.635   7.613  1.0003 -0.4283  0.7454
50050SOL     OW56112   7.839   8.739   0.128  0.1643 -0.2239 -0.2987
50050SOL    HW156113   7.805   8.711   0.213  1.1114  1.8070  0.8109
50050SOL    HW256114   7.930   8.763   0.146  0.8303 -1.1146 -2.2156
50051SOL     OW56115   3.699   1.162   5.829  0.4005 -0.0634 -0.0147
50051SOL    HW156116   3.748   1.099   5.882  1.9560  1.2804  0.2222
50051SOL    HW256117   3.756   1.239   5.823 -1.6322  1.5481  0.1397
50052SOL     OW56118   9.236   9.720   3.283  0.1012 -0.2515 -0.1210
50052SOL    HW156119   9.185   9.655   3.235  0.2442  0.2341 -0.9449
50052SOL    HW256120   9.184   9.800   3.278 -0.6320 -0.5520  1.8649
50053SOL     OW56121   8.538  11.480   9.266 -0.0907 -0.5164  0.1243
50053SOL    HW156122   8.522  11.548   9.200  0.5872 -0.8439 -0.3988
50053SOL    HW256123   8.494  11.402   9.231  0.6336 -0.8040 -0.1649
50054SOL     OW56124   4.928  11.860   0.603 -0.0591  0.0169 -0.2644
50054SOL    HW156125   4.875  11.794   0.559 -1.5277  1.3466 -0.5548
50054SOL    HW256126   5.016  11.849   0.566 -0.7019 -0.5279 -1.6900
50055SOL     OW56127  11.630   5.766   7.082  0.0836  0.4287  0.2913
50055SOL    HW156128  11.555   5.779   7.141  0.5373 -1.3883  1.3531
50055SOL    HW256129  11.706   5.793   7.134  0.2674  1.4941 -0.4969
50056SOL     OW56130  10.554  11.891   4.318 -0.1265  0.1487  0.2741
50056SOL    HW156131  10.464  11.915   4.343 -0.0254 -1.0426  1.9422
50056SOL    HW256132  10.544  11.837   4.239 -0.8698  0.0564  0.4269
50057SOL     OW56133   9.831  11.402  11.131  0.1018  0.2711 -0.3196
50057SOL    HW156134   9.800  11.437  11.047 -0.5626 -0.8129 -0.5542
50057SOL    HW256135   9.811  11.471  11.195 -0.5674  0.5868 -0.8584
50058SOL     OW56136   2.015   0.630   8.408 -0.9503  0.1514 -0.0174
50058SOL    HW156137   2.025   0.551   8.462  1.2120 -0.1788 -0.8269
50058SOL    HW256138   1.949   0.606   8.343  1.5280 -2.0287 -1.9143
50059SOL     OW56139   7.452   1.745  10.570  0.1100 -0.0155  0.1642
50059SOL    HW156140   7.471   1.801  10.645  2.0870  0.6401 -0.7453
50059SOL    HW256141   7.477   1.798  10.494 -1.7789 -0.6711 -0.9947
50060SOL     OW56142   4.658   2.510   5.147 -0.4730  0.0069  0.0283
50060SOL    HW156143   4.745   2.469   5.140 -0.6776 -0.3335 -0.6225
50060SOL    HW256144   4.674   2.592   5.195  0.1949 -0.0832 -0.0257
50061SOL     OW56145  12.009   5.742   0.260 -0.4573 -0.7629 -0.3588
50061SOL    HW156146  12.041   5.682   0.193  0.1349  0.3850 -1.1471
50061SOL    HW256147  11.916   5.722   0.267 -0.6817 -0.4817 -2.0346
50062SOL     OW56148  10.024   5.743  10.746  0.2662 -0.3620 -0.2367
50062SOL    HW156149  10.085   5.724  10.675  0.2211 -1.1587 -0.0700
50062SOL    HW256150  10.080   5.771  10.819  0.6338 -2.7509  0.4889
50063SOL     OW56151   5.489  10.490   1.724  0.2407  0.6988 -0.1942
50063SOL    HW156152   5.439  10.424   1.676  0.6296  0.0341  0.2940
50063SOL    HW256153   5.424  10.554   1.752 -0.1422  0.5272 -0.6828
50064SOL     OW56154   2.127  11.841   9.860 -0.0250  0.1802 -0.5762
50064SOL    HW156155   2.209  11.860   9.905 -0.3359  0.1695  0.0107
50064SOL    HW256156   2.121  11.746   9.859  1.2838  0.0347 -3.0657
50065SOL     OW56157   6.462   8.272  11.138  0.4107  0.3879  0.1532
50065SOL    HW156158   6.475   8.367  11.138 -0.2277  0.5095  1.4970
50065SOL    HW256159   6.532   8.238  11.084  0.0551  1.6997 -1.2057
50066SOL     OW56160   5.470   1.171   1.056 -0.2358 -0.0619 -0.8505
50066SOL    HW156161   5.398   1.131   1.106 -0.2543  0.3004 -0.5881
50066SOL    HW256162   5.507   1.236   1.115  0.1947 -0.1197 -1.0550
50067SOL     OW56163   4.150   0.363  11.989 -0.1498 -0.0123 -0.0708
50067SOL    HW156164   4.218   0.297  11.970 -0.1045  0.0804 -0.2357
50067SOL    HW256165   4.198   0.445  11.997 -0.2835  0.1223 -0.5884
50068SOL     OW56166   6.653   8.851   0.620 -0.0085 -0.2105  0.0813
50068SOL    HW156167   6.736   8.865   0.664  1.2166  0.2053 -2.2079
50068SOL    HW256168   6.672   8.789   0.550 -1.5466  0.1727 -0.7342
50069SOL     OW56169   6.172  12.264   5.364 -0.3819  0.7119 -0.5678
50069SOL    HW156170   6.212  12.313   5.435  1.4383  0.3245 -1.2644
50069SOL    HW256171   6.219  12.292   5.286 -1.9013  0.6546 -1.5423
50070SOL     OW56172   2.667  12.217   9.088  0.4646  0.8351 -0.1574
50070SOL    HW156173   2.671  12.312   9.089  1.9604  0.8195  1.4087
50070SOL    HW256174   2.734  12.190   9.025  1.0654  0.8435  0.4563
50071SOL     OW56175   1.367   6.021   0.839 -0.3527 -0.3671  0.5347
50071SOL    HW156176   1.362   5.989   0.749  0.8801  1.3674 -0.2047
50071SOL    HW256177   1.405   5.948   0.888  1.4763 -0.4694 -0.9040
50072SOL     OW56178   4.809   9.340   3.078  0.2373 -0.3942 -0.3191
50072SOL    HW156179   4.811   9.253   3.117  0.3400 -1.2745 -2.1831
50072SOL    HW256180   4.901   9.368   3.078  0.1424 -0.0661  0.7256
50073SOL     OW56181   4.651   0.415   1.929  0.1070  0.3947  0.1559
50073SOL    HW156182   4.614   0.452   1.850 -0.1139  1.7161  0.8573
50073SOL    HW256183   4.588   0.435   1.998  0.1205 -1.0343  0.6277
50074SOL     OW56184   6.999   0.429   3.871 -0.0815  0.2618  0.6473
50074SOL    HW156185   6.972   0.516   3.900 -1.1788 -0.2232  1.1511
50074SOL    HW256186   7.077   0.409   3.922  2.0101  2.1438 -1.5936
50075SOL     OW56187   1.454   0.982   6.997  0.8111 -0.1703  0.2403
50075SOL    HW156188   1.538   1.027   6.981  0.9656  0.0452  1.5394
50075SOL    HW256189   1.437   0.996   7.090 -1.5555  1.2828 -0.3330
50076SOL     OW56190   1.718   4.484   2.353 -0.0605  0.1224 -0.1212
50076SOL    HW156191   1.755   4.460   2.438  0.4840  0.1239 -0.3546
50076SOL    HW256192   1.708   4.580   2.358 -0.3887  0.0792  0.0804
50077SOL     OW56193  10.625  11.830   5.311 -0.0445  0.0852 -0.3596
50077SOL    HW156194  10.537  11.800   5.333  0.2813 -2.0549 -1.7321
50077SOL    HW256195  10.633  11.914   5.357 -3.2447  1.0100 -1.1516
50078SOL     OW56196   7.322  10.750  11.320  0.7757  0.3120 -0.1193
50078SOL    HW156197   7.341  10.678  11.259 -1.5855  0.2238 -0.8517
50078SOL    HW256198   7.399  10.806  11.316  1.9851 -1.3181 -0.7837
50079SOL     OW56199  11.055  10.901   8.358 -0.3180 -0.4846 -0.5834
50079SOL    HW156200  11.064  10.983   8.310 -0.1243 -0.5340 -0.6314
50079SOL    HW256201  11.019  10.926   8.443 -1.0692 -0.4391 -0.9039
50080SOL     OW56202   8.076   5.418  10.195 -0.6873 -0.1024 -0.1432
50080SOL    HW156203   8.097   5.490  10.255 -0.3171 -0.3134 -0.0122
50080SOL    HW256204   8.121   5.440  10.114 -2.1578  0.7845 -0.7627
50081SOL     OW56205   5.119   0.357   1.116 -0.4254  0.1184 -0.1669
50081SOL    HW156206   5.123   0.308   1.198  2.3755  1.6893  0.7686
50081SOL    HW256207   5.029   0.388   1.111 -1.0402 -1.2049  1.5409
50082SOL     OW56208   1.048   7.658   3.536 -0.9124  0.0743 -0.1029
50082SOL    HW156209   1.004   7.606   3.469 -1.4277 -0.3787  0.5763
50082SOL    HW256210   1.012   7.626   3.618  0.0973  0.2616  0.4216
50083SOL     OW56211   5.964   0.745   7.311  0.1611  0.1412  0.3652
50083SOL    HW156212   6.019   0.739   7.232 -0.0457  1.3802  0.1026
50083SOL    HW256213   5.993   0.672   7.366  1.7471  0.4816  0.0321
50084SOL     OW56214   2.209  10.347   3.414  0.1270 -0.0761 -0.0496
50084SOL    HW156215   2.135  10.405   3.395  0.0783 -0.4479 -1.0615
50084SOL    HW256216   2.230  10.307   3.330 -1.5110 -3.5046  0.9759
50085SOL     OW56217   3.445  10.998   3.833  0.3034 -0.6065 -0.3168
50085SOL    HW156218   3.452  11.054   3.756 -1.2957  0.6656  0.4037
50085SOL    HW256219   3.503  11.039   3.897 -0.4840 -0.0464  0.0471
50086SOL     OW56220   1.362   9.752   1.813  0.6034  0.2329  0.1492
50086SOL    HW156221   1.420   9.677   1.822 -0.0825 -0.4612 -0.9675
50086SOL    HW256222   1.392   9.797   1.734 -0.0915  0.1225 -0.1855
50087SOL     OW56223   9.270   7.933   1.690  0.2351  0.3028 -0.2900
50087SOL    HW156224   9.225   7.961   1.610  0.0624  0.3847 -0.1633
50087SOL    HW256225   9.321   8.009   1.717 -0.5657  0.6517  0.2941
50088SOL     OW56226   9.511   2.424  11.228  0.2323  0.1844  0.3112
50088SOL    HW156227   9.477   2.505  11.266  1.5931 -0.2025  2.5229
50088SOL    HW256228   9.603   2.422  11.253  0.2789 -1.9546  0.1693
50089SOL     OW56229   9.877  11.055   7.471 -0.2968 -0.0707  0.2411
50089SOL    HW156230   9.889  11.043   7.565  1.1132  1.5413  0.3028
50089SOL    HW256231   9.790  11.019   7.454 -0.4966 -0.6029  2.1040
50090SOL     OW56232   5.495   7.469   2.586 -0.1301 -0.0598 -0.6363
50090SOL    HW156233   5.541   7.548   2.614  0.3395 -0.1596 -1.0922
50090SOL    HW256234   5.553   7.431   2.520  1.0223 -2.2790  1.5000
50091SOL     OW56235   8.122   9.128  11.552  0.1385  0.3329  0.1785
50091SOL    HW156236   8.066   9.051  11.562 -2.5795  1.8944 -1.6550
50091SOL    HW256237   8.197   9.096  11.501 -1.1158 -1.0776 -0.9056
50092SOL     OW56238   4.649   6.339   4.704 -0.1329 -0.3803  0.3721
50092SOL    HW156239   4.701   6.261   4.725 -0.7314 -0.7755  0.4235
50092SOL    HW256240   4.702   6.386   4.639  0.1121 -0.9738  0.1322
50093SOL     OW56241   5.299  11.102   9.386  0.9220 -0.4908 -0.0052
50093SOL    HW156242   5.341  11.161   9.449  1.6730 -0.4650 -0.5152
50093SOL    HW256243   5.272  11.159   9.314  0.9208 -0.6546 -0.1351
50094SOL     OW56244  11.687   3.889   7.853  0.0357 -0.3261  0.4164
50094SOL    HW156245  11.663   3.960   7.911 -0.0139  0.0493 -0.0548
50094SOL    HW256246  11.764   3.922   7.805  0.5140 -0.9007  0.7715
50095SOL     OW56247   8.879   9.712   1.645 -0.6551 -0.4950 -0.2999
50095SOL    HW156248   8.921   9.751   1.722  0.9587  2.6501 -2.4975
50095SOL    HW256249   8.946   9.655   1.607 -1.1498 -1.3953  0.1588
50096SOL     OW56250   7.323  10.926  10.518  0.0583 -0.3627  0.2507
50096SOL    HW156251   7.378  10.955  10.591 -1.5324  0.2254  1.2522
50096SOL    HW256252   7.323  11.000  10.457  0.6497 -0.5122  0.0568
50097SOL     OW56253   0.664   1.739   6.006 -0.1917  0.1745  0.0908
50097SOL    HW156254   0.726   1.703   5.943 -0.7709  0.3779 -0.6105
50097SOL    HW256255   0.607   1.666   6.029  0.9190 -0.2832  1.5336
50098SOL     OW56256  12.443  10.372   6.354 -0.2251 -0.2157 -0.1454
50098SOL    HW156257  12.483  10.291   6.321 -0.4413 -1.2393  1.9687
50098SOL    HW256258  12.470  10.377   6.445  0.0802  2.3401 -0.2940
50099SOL     OW56259   8.379   9.943   3.222  0.4628  0.3844 -0.1719
50099SOL    HW156260   8.327   9.954   3.142  1.1950 -1.4281 -0.9535
50099SOL    HW256261   8.324   9.979   3.292 -1.2689 -0.2645 -1.1502
50100SOL     OW56262   9.566   4.564   7.471  0.0567  0.0077  0.0711
50100SOL    HW156263   9.535   4.625   7.405 -0.5650 -0.6363 -0.2528
50100SOL    HW256264   9.573   4.480   7.425  0.8476 -0.1898  0.5144
50101SOL     OW56265   9.121   6.283   1.953  0.3826  0.2132 -0.4609
50101SOL    HW156266   9.182   6.235   2.009  0.8376  0.3763 -0.8192
50101SOL    HW256267   9.131   6.375   1.980 -2.7921 -0.0823  2.5378
50102SOL     OW56268   1.915   5.755   7.117 -0.0154 -0.7225  0.6465
50102SOL    HW156269   1.835   5.704   7.133 -0.6718  0.0072 -0.2434
50102SOL    HW256270   1.906   5.788   7.028  1.6835 -1.3143  0.2158
50103SOL     OW56271  10.128   9.553  12.010 -0.6590 -0.2178 -0.3063
50103SOL    HW156272  10.105   9.477  12.064  0.0800  0.7728  1.5067
50103SOL    HW256273  10.045   9.580  11.971 -1.2766 -0.8661  0.5008
50104SOL     OW56274   7.670   2.633   0.586  0.0595  0.2515 -0.0712
50104SOL    HW156275   7.673   2.665   0.496 -0.2119  1.1053  0.2081
50104SOL    HW256276   7.606   2.562   0.585 -0.8436  1.0533 -0.3197
50105SOL     OW56277   5.572   5.291   4.193  0.1290  0.4569 -0.1608
50105SOL    HW156278   5.541   5.205   4.222 -0.6816  0.2189 -1.6175
50105SOL    HW256279   5.646   5.271   4.135  1.4448  0.8976  1.2908
50106SOL     OW56280  11.840   5.209   8.654  0.0491  0.1983 -0.5230
50106SOL    HW156281  11.769   5.271   8.676 -0.8973 -0.5452 -1.3858
50106SOL    HW256282  11.882   5.248   8.578  0.9316  0.8975  0.2904
50107SOL     OW56283   1.089   9.801   6.243  0.3043 -0.1019 -0.2436
50107SOL    HW156284   1.136   9.745   6.304  1.1973  0.1410 -0.7024
50107SOL    HW256285   1.081   9.748   6.163  0.6595  0.2147 -0.4920
50108SOL     OW56286   5.644   7.043   7.513 -0.0080 -0.4303 -0.1266
50108SOL    HW156287   5.620   7.032   7.605 -0.8272  1.8725 -0.0016
50108SOL    HW256288   5.739   7.050   7.514  0.1774 -2.4901  0.2561
50109SOL     OW56289   0.072  10.429   0.059 -0.0356  0.1106 -0.5077
50109SOL    HW156290  -0.019  10.412   0.036  0.1511  0.1270 -1.2882
50109SOL    HW256291   0.118  10.432  -0.025  0.8828 -1.0051 -0.0675
50110SOL     OW56292   0.612   2.980   2.083  0.1639 -0.1738  0.2389
50110SOL    HW156293   0.696   3.013   2.052  1.1867 -1.9808  0.9351
50110SOL    HW256294   0.626   2.886   2.094 -2.2369 -0.6919 -0.5348
50111SOL     OW56295   4.302   7.671   1.750  0.0491  0.4573  0.9399
50111SOL    HW156296   4.331   7.697   1.663 -1.8389 -0.8625 -0.1717
50111SOL    HW256297   4.312   7.749   1.804  0.7955  1.4467 -0.5905
50112SOL     OW56298   2.092   2.841   1.685  0.2426  0.2539  0.9538
50112SOL    HW156299   2.186   2.824   1.688  0.3347  0.7470  1.0045
50112SOL    HW256300   2.063   2.801   1.603 -0.0309 -2.3587  2.2267
50113SOL     OW56301   4.958   3.182   2.388  0.5519  0.1403  0.3327
50113SOL    HW156302   5.011   3.129   2.329  2.5020  1.6686  0.5824
50113SOL    HW256303   4.988   3.157   2.475 -1.6309 -1.4144  0.6983
50114SOL     OW56304  11.936   7.023  12.079  0.5931  0.3643  0.2431
50114SOL    HW156305  11.926   6.939  12.035 -0.4577  1.0026 -0.7931
50114SOL    HW256306  12.028   7.046  12.067  0.9440 -0.6917  0.6919
50115SOL     OW56307   6.444   9.657   4.863 -0.6901 -0.2685 -0.3033
50115SOL    HW156308   6.448   9.753   4.864  1.1121 -0.2978  1.2662
50115SOL    HW256309   6.377   9.637   4.798 -2.1996  2.0696  0.3919
50116SOL     OW56310   4.258   4.315   0.090 -0.0880 -0.3998  0.0415
50116SOL    HW156311   4.339   4.306   0.039 -0.0008 -0.5239  0.2031
50116SOL    HW256312   4.256   4.408   0.114  0.2422 -0.4844  0.4223
50117SOL     OW56313   7.667   0.160   9.724  0.8338  0.2735  0.7038
50117SOL    HW156314   7.675   0.240   9.673  1.7445 -0.0180  0.3522
50117SOL    HW256315   7.717   0.095   9.674 -1.1514 -0.9247  0.1865
50118SOL     OW56316   5.497  10.276   2.370  0.1480 -0.7176  0.3035
50118SOL    HW156317   5.461  10.192   2.340  1.0636 -0.5495 -1.3729
50118SOL    HW256318   5.537  10.256   2.455  1.0115 -2.1681 -0.4121
50119SOL     OW56319  12.078   3.989   9.731  0.2181  0.2121  0.0684
50119SOL    HW156320  12.082   3.897   9.706  1.8984  0.1326  0.4902
50119SOL    HW256321  12.036   3.988   9.818  0.8144 -0.2337  0.3581
50120SOL     OW56322  12.389  11.839   8.088  0.2062  0.6708  0.3401
50120SOL    HW156323  12.301  11.854   8.055 -0.3106  0.1419  1.4108
50120SOL    HW256324  12.397  11.743   8.092  1.1003  0.7040 -0.4419
50121SOL     OW56325   4.533   0.866   5.988  0.3717  0.0752  0.6353
50121SOL    HW156326   4.558   0.930   5.922 -1.7691 -0.3694 -0.7214
50121SOL    HW256327   4.524   0.916   6.069  1.0423  1.0121  0.1452
50122SOL     OW56328   5.068   6.296   4.781 -0.0986 -0.6902 -0.3620
50122SOL    HW156329   5.037   6.276   4.869 -2.3967  1.0297 -0.6852
50122SOL    HW256330   5.092   6.389   4.786  1.8471 -1.1138 -1.0484
50123SOL     OW56331   5.748   1.545  12.135  0.7585  0.7271 -0.4771
50123SOL    HW156332   5.676   1.487  12.159  0.3190  2.1820  2.0792
50123SOL    HW256333   5.817   1.486  12.104 -1.0078 -0.7966 -1.7525
50124SOL     OW56334   9.900   0.068   5.525 -0.1023  0.1726  0.4748
50124SOL    HW156335   9.888   0.150   5.574  1.6868  1.8106 -1.6021
50124SOL    HW256336   9.976   0.027   5.567  0.3173  0.6626  0.2052
50125SOL     OW56337   6.876   7.293   0.710 -0.4626  0.4767  0.1736
50125SOL    HW156338   6.880   7.320   0.618 -1.1519  1.6081  0.4657
50125SOL    HW256339   6.801   7.234   0.715  0.5337 -0.8642 -0.2952
50126SOL     OW56340   9.835   6.102  10.997 -0.0535  0.1693  0.4302
50126SOL    HW156341   9.857   6.090  11.089  0.8944  1.9733  0.4691
50126SOL    HW256342   9.821   6.196  10.987 -1.0532 -0.0975 -1.0857
50127SOL     OW56343   9.882   9.358  10.473  0.4678  0.4996 -0.0434
50127SOL    HW156344   9.920   9.413  10.404  0.6793  1.4195  0.7895
50127SOL    HW256345   9.954   9.303  10.503  0.0975 -0.7713 -1.3464
50128SOL     OW56346   6.989   7.802   2.570  0.0482  0.0155 -0.0033
50128SOL    HW156347   6.992   7.808   2.475 -1.3460 -0.4361 -0.0982
50128SOL    HW256348   6.929   7.730   2.588  0.1658  0.1987  1.2147
50129SOL     OW56349   6.510   9.072   5.702 -0.3992  0.4074 -0.4601
50129SOL    HW156350   6.434   9.094   5.757 -1.1017 -1.0381 -0.8157
50129SOL    HW256351   6.472   9.038   5.621  0.6389  1.4221 -1.4136
50130SOL     OW56352   2.154  11.752   5.003 -0.3285  0.5030 -0.1409
50130SOL    HW156353   2.225  11.789   4.950 -0.1517 -0.9489 -0.9845
50130SOL    HW256354   2.074  11.787   4.964 -0.1305  2.2216  0.8675
50131SOL     OW56355   0.129   7.956   3.205  0.0353 -0.5219 -0.0285
50131SOL    HW156356   0.107   7.940   3.114 -0.7119 -0.4542  0.1375
50131SOL    HW256357   0.045   7.955   3.251  0.3831 -0.3340  0.6235
50132SOL     OW56358   3.428   0.166   7.795 -0.4546  0.3528  0.2313
50132SOL    HW156359   3.375   0.090   7.769 -1.6794  0.8172  1.2805
50132SOL    HW256360   3.426   0.166   7.890  0.9921  0.7212  0.2838
50133SOL     OW56361   1.781   7.947   3.529 -0.1240 -0.4483  0.2221
50133SOL    HW156362   1.735   8.020   3.569  0.0629  1.1482 -2.2757
50133SOL    HW256363   1.801   7.976   3.440  2.0887 -2.6324 -0.1229
50134SOL     OW56364   9.191   1.159   9.933 -0.3625  0.1982 -0.1115
50134SOL    HW156365   9.118   1.206   9.893  0.4781  1.1113 -0.6149
50134SOL    HW256366   9.268   1.212   9.913  0.6683 -1.5122 -0.9509
50135SOL     OW56367   6.645   1.037   2.253  0.2259  0.4067  0.1872
50135SOL    HW156368   6.731   1.003   2.231 -0.5288 -0.8334 -0.9612
50135SOL    HW256369   6.619   0.989   2.332  1.5166  2.4738  2.0079
50136SOL     OW56370   8.187   4.268   8.154 -0.2728 -0.1369 -0.0593
50136SOL    HW156371   8.103   4.241   8.117  0.3477  0.0090 -1.6313
50136SOL    HW256372   8.164   4.341   8.212 -1.2129  0.0465 -0.6362
50137SOL     OW56373   7.950   9.244   5.901 -0.0789 -0.4365  0.2661
50137SOL    HW156374   7.857   9.265   5.908 -0.0932 -0.3675 -0.1005
50137SOL    HW256375   7.992   9.302   5.964 -0.3231 -0.7592  0.7294
50138SOL     OW56376  11.769  12.118   7.281 -0.0176 -0.3510  1.0199
50138SOL    HW156377  11.688  12.068   7.284  1.3498 -2.6845  1.6045
50138SOL    HW256378  11.818  12.089   7.358  1.3000  1.1668  0.8161
50139SOL     OW56379  11.323   1.790   5.523 -0.1124 -0.5598 -0.0488
50139SOL    HW156380  11.304   1.821   5.435 -1.7387 -1.0956  0.0705
50139SOL    HW256381  11.399   1.733   5.513  1.7222  1.7765 -0.5699
50140SOL     OW56382   1.004  11.926   0.447 -0.3904 -0.7466  0.1506
50140SOL    HW156383   0.913  11.923   0.419 -0.4015  0.3238  0.0083
50140SOL    HW256384   1.035  11.836   0.441 -0.8960 -0.8309 -1.6152
50141SOL     OW56385   1.419   2.378   0.182  0.0858 -0.7947 -0.0972
50141SOL    HW156386   1.509   2.344   0.176 -0.0482 -1.0202 -1.1325
50141SOL    HW256387   1.423   2.462   0.135 -0.6985 -1.8246 -2.1298
50142SOL     OW56388   9.566  11.999   6.333  0.0912  0.0810 -0.1771
50142SOL    HW156389   9.528  12.000   6.421 -0.6555 -1.1485 -0.4666
50142SOL    HW256390   9.619  11.919   6.331  1.2880  0.8450 -0.3869
50143SOL     OW56391   4.705   4.019   6.666  0.1152  0.3330 -0.0778
50143SOL    HW156392   4.681   4.098   6.713 -1.7142 -0.8204  1.0399
50143SOL    HW256393   4.734   3.958   6.733  2.0293  0.1702 -0.9746
50144SOL     OW56394   0.542  12.086   6.298 -0.9006  0.0407  0.2154
50144SOL    HW156395   0.582  12.172   6.313  0.0222 -0.6959  2.3042
50144SOL    HW256396   0.507  12.092   6.209  0.9286  1.8906 -0.4825
50145SOL     OW56397   5.117   2.149   8.843 -0.3562  1.2368 -0.7456
50145SOL    HW156398   5.119   2.237   8.806 -0.3144  1.8097  0.5590
50145SOL    HW256399   5.024   2.126   8.846 -0.2913  0.5920 -2.4769
50146SOL     OW56400  12.131   6.355   6.832 -0.1840  0.3682  0.0065
50146SOL    HW156401  12.126   6.412   6.909  1.9579  0.8331 -0.1269
50146SOL    HW256402  12.152   6.268   6.867  3.1526  1.0148 -0.0404
50147SOL     OW56403   3.792   1.832   1.162 -0.7558  0.1232 -0.1202
50147SOL    HW156404   3.703   1.843   1.128 -0.8109  0.8976  0.2733
50147SOL    HW256405   3.843   1.900   1.119 -0.4793  0.0700  0.1225
50148SOL     OW56406   5.070   9.455   3.819  0.3908  0.6883 -0.1597
50148SOL    HW156407   4.978   9.445   3.795  0.7839  1.3655 -2.1338
50148SOL    HW256408   5.088   9.379   3.876 -1.0421 -0.1929 -0.8228
50149SOL     OW56409   1.105  11.798   7.512  0.7299 -0.0371 -0.4905
50149SOL    HW156410   1.032  11.859   7.498 -0.3082 -1.5641 -1.9483
50149SOL    HW256411   1.089  11.763   7.600 -0.5976 -0.7238 -0.9793
50150SOL     OW56412   3.294   2.570   1.636 -0.5739  0.0043  0.0515
50150SOL    HW156413   3.293   2.477   1.612  0.8943  0.1760 -0.7904
50150SOL    HW256414   3.218   2.607   1.592 -1.4934 -0.8801  0.8416
50151SOL     OW56415   6.565   3.989   0.836 -0.0708 -0.5733 -0.0463
50151SOL    HW156416   6.622   4.026   0.904  0.3353  2.8833 -2.0568
50151SOL    HW256417   6.625   3.939   0.780  0.1053 -0.9838  0.5019
50152SOL     OW56418   8.019   3.775   1.050  0.3228  0.2720 -0.0680
50152SOL    HW156419   8.099   3.810   1.010  1.0709  0.2602  1.3396
50152SOL    HW256420   8.043   3.687   1.078  0.2598  0.7470  1.5637
50153SOL     OW56421   5.409   6.195   8.594  0.1042 -0.2343  0.2045
50153SOL    HW156422   5.426   6.246   8.674  0.4174  0.9823 -0.6094
50153SOL    HW256423   5.450   6.246   8.525 -1.2635 -0.6207 -0.9248
50154SOL     OW56424   6.387   0.780   7.259  0.4637  0.0644  0.3716
50154SOL    HW156425   6.389   0.710   7.194 -1.4089  0.3367 -0.0371
50154SOL    HW256426   6.359   0.738   7.340 -1.0914  0.3662  0.0237
50155SOL     OW56427   9.895   9.030   4.712 -0.1802 -0.0899  0.0198
50155SOL    HW156428   9.983   9.067   4.696 -0.1576 -0.2619 -0.2608
50155SOL    HW256429   9.841   9.107   4.730 -0.6621  0.3854 -2.9070
50156SOL     OW56430   2.487   2.894   6.101  0.6245 -0.8128 -0.3596
50156SOL    HW156431   2.393   2.897   6.119  0.7420  0.4530  0.1693
50156SOL    HW256432   2.506   2.801   6.090 -0.0004 -1.5790  3.4521
50157SOL     OW56433   8.332   1.153   0.808 -0.0776 -0.3984  0.6792
50157SOL    HW156434   8.349   1.182   0.898  1.6345 -0.7203  0.4973
50157SOL    HW256435   8.238   1.163   0.797  0.0427  2.7997  1.4405
50158SOL     OW56436   8.871   1.396  12.192  0.3329 -0.3834 -0.2266
50158SOL    HW156437   8.928   1.468  12.217 -1.6699  0.8904  1.0313
50158SOL    HW256438   8.817   1.431  12.121 -1.5769 -0.0539  1.2825
50159SOL     OW56439   0.587   2.760   1.578  0.2329 -0.6803  0.2463
50159SOL    HW156440   0.600   2.725   1.490 -0.1120 -1.3080  0.4426
50159SOL    HW256441   0.601   2.686   1.637  0.8253 -0.1810  0.7477
50160SOL     OW56442   2.324   8.543   3.169 -0.1800 -0.1528  0.1063
50160SOL    HW156443   2.371   8.580   3.244  2.2272 -0.6743 -1.0350
50160SOL    HW256444   2.264   8.612   3.141  0.1560  0.7112  1.4177
50161SOL     OW56445  11.452   1.574   2.790  0.1201  0.1631 -0.1620
50161SOL    HW156446  11.490   1.497   2.833 -0.0688 -0.0224 -0.3219
50161SOL    HW256447  11.450   1.641   2.857  0.2335  0.0090 -0.0031
50162SOL     OW56448   2.107   8.181   3.703 -0.2014 -0.0591 -0.5838
50162SOL    HW156449   2.111   8.086   3.709  2.0795 -0.0685 -1.3731
50162SOL    HW256450   2.172   8.212   3.766 -0.4334  0.9622 -0.8338
50163SOL     OW56451  11.663  11.468  11.084 -0.0052 -0.4767  0.2575
50163SOL    HW156452  11.594  11.444  11.022  0.0455  0.0380  0.0027
50163SOL    HW256453  11.656  11.403  11.154 -1.0028 -0.2014  0.4233
50164SOL     OW56454   2.492   4.564   2.033 -0.0523  0.9195  0.0689
50164SOL    HW156455   2.419   4.526   2.081 -0.3220 -0.3314 -1.2577
50164SOL    HW256456   2.485   4.658   2.048 -2.3867  0.9157 -0.5918
50165SOL     OW56457   8.440   7.550  11.971  0.1086  0.0750 -0.3010
50165SOL    HW156458   8.529   7.545  11.936  1.1711 -0.0665  2.1992
50165SOL    HW256459   8.429   7.643  11.994  0.1763 -0.1421  0.6656
50166SOL     OW56460  12.327  12.125  11.292 -0.2473  0.2512 -0.0727
50166SOL    HW156461  12.302  12.081  11.373  1.2665  0.5058  0.5791
50166SOL    HW256462  12.423  12.114  11.288 -0.2004  0.9352 -1.4149
50167SOL     OW56463   1.979   9.246   3.556 -0.0103  0.1513  0.3978
50167SOL    HW156464   1.929   9.259   3.636 -2.3395 -0.4870 -0.8307
50167SOL    HW256465   1.921   9.278   3.486  1.1117 -1.0792 -1.1886
50168SOL     OW56466   9.165   9.765   9.212  0.2382 -0.0450  0.3621
50168SOL    HW156467   9.214   9.845   9.190  1.1440 -1.0058 -1.3000
50168SOL    HW256468   9.128   9.736   9.129  0.4686 -1.7141  0.8041
50169SOL     OW56469   2.947   8.350   6.602 -0.2894 -0.3917 -0.3423
50169SOL    HW156470   2.863   8.315   6.633 -0.3435 -1.3701 -1.5237
50169SOL    HW256471   2.922   8.422   6.544 -0.2584  0.0402  0.1697
50170SOL     OW56472   4.958   4.289  12.350 -0.2262  0.4827 -0.0753
50170SOL    HW156473   4.930   4.324  12.266  0.8274 -1.7397 -1.4396
50170SOL    HW256474   5.053   4.284  12.344 -0.1811 -0.3875  0.9422
50171SOL     OW56475   7.812   3.272   5.024 -0.1812  0.4142 -0.0382
50171SOL    HW156476   7.783   3.363   5.034  1.1555  0.7047  1.8688
50171SOL    HW256477   7.754   3.223   5.082 -0.2069  0.2157 -0.2347
50172SOL     OW56478   9.231   4.601   2.021 -0.3463  0.0324 -0.0735
50172SOL    HW156479   9.248   4.509   2.039  2.0482  0.0923 -1.5997
50172SOL    HW256480   9.187   4.601   1.936  0.0502  0.3130 -0.2809
50173SOL     OW56481  10.357   7.037   5.566 -0.7152  0.0297  0.3715
50173SOL    HW156482  10.440   7.003   5.600 -1.3541 -1.0601  0.9201
50173SOL    HW256483  10.353   7.127   5.596  0.7239  0.4148 -0.5195
50174SOL     OW56484  12.079   3.951   5.301  0.1486  0.1035  0.0722
50174SOL    HW156485  12.083   3.876   5.359  0.9850  0.2830  0.2551
50174SOL    HW256486  11.989   3.952   5.269  0.0916 -0.8878  0.1790
50175SOL     OW56487  11.463   8.896  10.957  0.5781  1.0912  0.2222
50175SOL    HW156488  11.549   8.938  10.954  0.7527  0.7391  0.3160
50175SOL    HW256489  11.441   8.892  11.050  0.7492  0.5869  0.2390
50176SOL     OW56490   4.750  12.237  11.433  0.2491  0.1286 -0.2687
50176SOL    HW156491   4.843  12.221  11.419  0.2039 -0.7354  0.3328
50176SOL    HW256492   4.706  12.166  11.388 -0.0485 -0.3548  0.7494
50177SOL     OW56493   0.036   1.412   4.743 -0.1519 -0.2143 -0.0052
50177SOL    HW156494   0.087   1.369   4.674  1.1288  0.9530  0.1597
50177SOL    HW256495   0.003   1.492   4.702 -3.6001 -1.8477 -0.7014
50178SOL     OW56496  10.709   4.580  10.331 -0.0876 -0.4017 -0.0519
50178SOL    HW156497  10.709   4.513  10.400  0.4239 -1.5986 -1.1540
50178SOL    HW256498  10.647   4.546  10.266 -0.4729  0.6445 -0.2421
50179SOL     OW56499   9.551   8.786  10.383  0.1898 -0.4725  0.3778
50179SOL    HW156500   9.614   8.730  10.340 -0.5339 -1.1469  0.1658
50179SOL    HW256501   9.600   8.829  10.453  1.8613  1.9881 -2.0783
50180SOL     OW56502  11.061   3.021  12.288  0.3852 -0.5535  0.2488
50180SOL    HW156503  11.010   2.940  12.286 -1.5932  0.6460  0.5872
50180SOL    HW256504  11.001   3.088  12.258  1.5806  1.0327  1.2663
50181SOL     OW56505   0.465   8.539   2.091  0.4895  0.2391  0.0538
50181SOL    HW156506   0.506   8.622   2.068  1.0353  0.0843  0.4575
50181SOL    HW256507   0.445   8.548   2.185 -0.6491  0.4163 -0.1860
50182SOL     OW56508   2.516  11.519   3.590 -0.0753 -0.0133  0.1816
50182SOL    HW156509   2.499  11.469   3.670 -1.1165  0.0210 -0.0057
50182SOL    HW256510   2.527  11.453   3.522  1.3793 -0.0644  0.4318
50183SOL     OW56511   5.894  12.237   4.203  0.0931 -0.6254 -0.0807
50183SOL    HW156512   5.944  12.285   4.137  0.6328 -1.2082 -0.1100
50183SOL    HW256513   5.855  12.305   4.258  1.4815 -0.1422  0.3630
50184SOL     OW56514  11.141  10.422   0.615  0.0432  0.2094  0.0462
50184SOL    HW156515  11.047  10.437   0.601  0.3918  0.5836 -2.3947
50184SOL    HW256516  11.177  10.509   0.628  0.1515  0.1281  0.2858
50185SOL     OW56517   7.680   9.997  12.288  0.3394 -0.2983  0.1949
50185SOL    HW156518   7.597  10.043  12.278  0.1776 -0.8716 -1.2814
50185SOL    HW256519   7.746  10.057  12.252  0.4028 -0.3712  0.1870
50186SOL     OW56520   3.110   4.243  10.868 -0.4097  0.4463 -0.3010
50186SOL    HW156521   3.170   4.307  10.907  0.2152  1.2923 -2.4803
50186SOL    HW256522   3.166   4.170  10.844 -0.6337  0.2864 -0.3413
50187SOL     OW56523   4.358   8.440   2.588 -0.2200 -0.1115 -0.6861
50187SOL    HW156524   4.278   8.389   2.580 -0.6401  0.7620 -2.9458
50187SOL    HW256525   4.332   8.529   2.564  0.5730  1.1573  2.7082
50188SOL     OW56526   1.105   3.385   3.039 -0.1673  0.5587  0.3767
50188SOL    HW156527   1.057   3.324   2.985 -0.2378  1.5196 -0.6907
50188SOL    HW256528   1.058   3.386   3.122  0.3753 -1.5002  0.7582
50189SOL     OW56529   6.854  10.887  12.290  0.0668 -0.1007  0.3878
50189SOL    HW156530   6.936  10.860  12.332  0.1521  1.7197  1.4991
50189SOL    HW256531   6.870  10.874  12.196  0.6286 -2.2893  0.7247
50190SOL     OW56532   9.290   7.384   3.222  0.4182  0.5568  0.5218
50190SOL    HW156533   9.304   7.428   3.306  0.8538  0.9849  0.2317
50190SOL    HW256534   9.205   7.341   3.231  0.9338 -0.2814  1.5546
50191SOL     OW56535   7.341   4.358   5.577 -0.5585  0.0996  0.1123
50191SOL    HW156536   7.355   4.444   5.616  2.3146 -0.5811  0.7548
50191SOL    HW256537   7.269   4.321   5.628  0.3195  0.8842  2.0167
50192SOL     OW56538  10.194   6.741   3.847  0.1777 -0.5601 -0.0869
50192SOL    HW156539  10.208   6.717   3.939 -0.4647  0.1670  0.2078
50192SOL    HW256540  10.152   6.827   3.851  0.2923 -0.4537 -1.0692
50193SOL     OW56541   6.867   0.532   0.874 -0.2668  0.3541  0.2781
50193SOL    HW156542   6.880   0.579   0.956  1.3599  0.3620  0.0527
50193SOL    HW256543   6.932   0.462   0.876 -0.9479 -0.3261 -0.5223
50194SOL     OW56544   1.110   2.321   2.517 -0.2078  0.5243  0.2745
50194SOL    HW156545   1.067   2.402   2.543  1.3052  0.4913  3.2026
50194SOL    HW256546   1.184   2.349   2.463 -1.6434  0.7981 -1.6421
50195SOL     OW56547   3.483   4.668   8.995  0.0610  0.9471  0.4605
50195SOL    HW156548   3.438   4.710   8.921 -0.3585 -1.6195 -0.8377
50195SOL    HW256549   3.566   4.715   9.002  0.0002  1.4451 -1.4898
50196SOL     OW56550  11.233   2.780   1.636 -0.2176  0.4086 -0.5734
50196SOL    HW156551  11.257   2.777   1.728 -1.7567 -1.8845 -0.1665
50196SOL    HW256552  11.240   2.873   1.612  2.7283  0.7423  1.0840
50197SOL     OW56553   8.215   0.964  11.649 -0.3723 -0.5609  0.6398
50197SOL    HW156554   8.163   1.044  11.654 -1.7961 -1.4432  0.4048
50197SOL    HW256555   8.157   0.895  11.681  0.2932 -1.7318 -0.5690
50198SOL     OW56556   8.528  11.536   0.728  0.2827  0.0858  0.8752
50198SOL    HW156557   8.506  11.623   0.760  1.0899  0.7527 -0.2812
50198SOL    HW256558   8.446  11.486   0.734 -1.9344  2.5351 -3.5498
50199SOL     OW56559  11.406   1.451  10.152 -1.1093  0.2167 -0.0587
50199SOL    HW156560  11.465   1.527  10.147  0.2232 -0.7113  1.0180
50199SOL    HW256561  11.361   1.451  10.067  0.4373  0.9587 -0.9208
50200SOL     OW56562   7.519   4.946   5.603 -0.3213 -0.1687 -0.0816
50200SOL    HW156563   7.441   4.997   5.579 -0.5152  0.2666  1.3928
50200SOL    HW256564   7.592   5.000   5.572 -0.4956  1.4770  2.1533
50201SOL     OW56565   4.546   3.851   3.025 -0.1835 -0.0973  0.6132
50201SOL    HW156566   4.614   3.913   3.053  0.8216 -1.3817  1.1156
50201SOL    HW256567   4.524   3.802   3.103 -2.4924  0.9577  0.7037
50202SOL     OW56568   8.344   6.653   0.274 -0.1470 -0.7496 -0.2335
50202SOL    HW156569   8.298   6.666   0.191 -0.8363  2.6813  0.5548
50202SOL    HW256570   8.282   6.605   0.329 -0.3546 -1.5074 -1.1119
50203SOL     OW56571  11.609   0.577   9.970  0.1710  0.3616  0.4855
50203SOL    HW156572  11.519   0.580   9.935 -0.1389 -0.0409  1.2463
50203SOL    HW256573  11.599   0.590  10.064  0.8557 -0.3883  0.6719
50204SOL     OW56574   3.762   0.077   0.272 -0.5151  0.1917 -0.0776
50204SOL    HW156575   3.850   0.077   0.310 -0.8744 -1.1156  0.7932
50204SOL    HW256576   3.777   0.072   0.177  0.3610  1.9199 -0.0739
50205SOL     OW56577  11.673   1.971   0.546  0.0121  0.2377 -0.0555
50205SOL    HW156578  11.581   1.999   0.539  0.1664  0.9867  0.8077
50205SOL    HW256579  11.698   1.950   0.456 -0.7139  0.9825 -0.4414
50206SOL     OW56580   1.145   5.790   1.157 -0.2086  0.2979  0.2130
50206SOL    HW156581   1.095   5.781   1.238  0.0958 -0.3335  0.3351
50206SOL    HW256582   1.100   5.732   1.095  1.0582 -1.2347  0.6611
50207SOL     OW56583  10.027   8.282  12.302  0.4331 -0.1114  0.7299
50207SOL    HW156584  10.081   8.255  12.377 -0.5591 -0.1578  1.4509
50207SOL    HW256585  10.065   8.235  12.228  1.2492 -0.3043  1.2472
50208SOL     OW56586   7.987   3.405   6.121  0.4176 -0.2503  0.5948
50208SOL    HW156587   8.026   3.435   6.039  1.2895  0.4636  1.2450
50208SOL    HW256588   7.968   3.486   6.169  2.3403 -0.6784  2.1829
50209SOL     OW56589   5.404  11.593  11.330  0.4943  0.1418  0.3247
50209SOL    HW156590   5.462  11.623  11.400 -0.1993  1.2625  0.4442
50209SOL    HW256591   5.323  11.567  11.375  0.2546  0.3207  0.0053
50210SOL     OW56592  10.509   4.820   8.844  0.1396 -0.0056 -0.1383
50210SOL    HW156593  10.459   4.879   8.900  1.6349  0.3558  0.8680
50210SOL    HW256594  10.519   4.868   8.762  0.1404  0.5456  0.1771
50211SOL     OW56595   6.395   2.635   1.912 -0.1507  0.2422 -0.2621
50211SOL    HW156596   6.458   2.662   1.845  0.0249 -0.7288 -0.5098
50211SOL    HW256597   6.345   2.564   1.871 -0.5000  0.0915  0.4032
50212SOL     OW56598   9.086   6.267   6.529  0.0414 -0.3087 -0.9451
50212SOL    HW156599   9.167   6.259   6.479 -0.0963 -0.2775 -1.1760
50212SOL    HW256600   9.082   6.359   6.554 -0.4407 -0.0923 -1.8173
50213SOL     OW56601  12.214   8.963  11.672 -0.1469  0.0521  0.2538
50213SOL    HW156602  12.253   8.879  11.693 -1.9216 -0.8655  0.0205
50213SOL    HW256603  12.274   9.001  11.607  1.0235 -0.6939  0.8523
50214SOL     OW56604   5.724   2.722   4.164 -0.4554 -0.1895 -0.1939
50214SOL    HW156605   5.739   2.805   4.118  1.2234 -0.7236 -0.7104
50214SOL    HW256606   5.659   2.742   4.230  2.0307  2.3422  1.7457
50215SOL     OW56607   6.961   0.109  11.830  0.3675  0.1145  0.5163
50215SOL    HW156608   7.045   0.132  11.791  0.8890 -1.7313  0.4289
50215SOL    HW256609   6.896   0.137  11.766  1.0408 -0.0741 -0.2630
50216SOL     OW56610   0.455   0.794  10.448  0.2195 -0.0254  0.2164
50216SOL    HW156611   0.443   0.866  10.386 -0.8364 -1.2005 -1.0177
50216SOL    HW256612   0.524   0.741  10.409  0.3114 -0.2037  0.6222
50217SOL     OW56613   3.930   7.799   4.946 -0.1231  0.3100 -0.0935
50217SOL    HW156614   3.965   7.776   5.032  0.5083  2.7989  0.3813
50217SOL    HW256615   3.979   7.744   4.885  1.0907  0.1772  0.9542
50218SOL     OW56616   4.826  11.633   3.569  0.5155  0.1639  0.4129
50218SOL    HW156617   4.880  11.687   3.511  1.5786 -1.4882 -0.2031
50218SOL    HW256618   4.770  11.696   3.614  1.1494  1.7044 -0.8340
50219SOL     OW56619   6.489  12.408   3.332  0.4098 -0.5848 -0.0654
50219SOL    HW156620   6.473  12.347   3.260 -0.5933  0.5413 -0.8538
50219SOL    HW256621   6.579  12.438   3.319 -0.6793  2.0452 -2.9134
50220SOL     OW56622   6.008   1.736   6.188 -0.6018  0.1661 -0.3865
50220SOL    HW156623   5.957   1.679   6.131 -1.6504  1.6923 -1.0695
50220SOL    HW256624   6.066   1.784   6.129  1.4457 -1.2820  0.3425
50221SOL     OW56625   6.527  10.908   9.365 -0.3013 -0.3115 -0.5114
50221SOL    HW156626   6.520  10.975   9.297 -0.3961 -0.0765 -0.2710
50221SOL    HW256627   6.500  10.953   9.446  3.6088  0.6363  0.4879
50222SOL     OW56628  12.141   3.179   0.178  0.1023 -0.1197  0.0918
50222SOL    HW156629  12.202   3.246   0.147 -0.3208  0.2078 -0.0412
50222SOL    HW256630  12.082   3.164   0.104 -0.7592  0.4872  0.6351
50223SOL     OW56631   6.015   5.416  10.082 -0.4186 -0.5017 -0.1748
50223SOL    HW156632   6.081   5.450  10.021 -0.7055  1.1314  0.3757
50223SOL    HW256633   6.053   5.433  10.169 -0.5185 -1.7480  0.1242
50224SOL     OW56634   5.534   3.457  11.207 -0.1323 -0.5886 -0.5568
50224SOL    HW156635   5.601   3.491  11.266 -0.3827  0.7197 -0.9813
50224SOL    HW256636   5.556   3.365  11.195  1.3175 -0.2927 -0.3176
50225SOL     OW56637   6.040   1.660   4.943 -0.8730  0.0556 -0.8061
50225SOL    HW156638   5.968   1.623   4.892 -0.3803 -0.2742 -1.2655
50225SOL    HW256639   6.109   1.594   4.940 -1.9193 -1.4688  2.9670
50226SOL     OW56640   8.464   5.186   9.030 -0.7283 -0.5852 -0.5953
50226SOL    HW156641   8.517   5.146   8.961  0.2236 -1.2359  0.4742
50226SOL    HW256642   8.408   5.114   9.061  1.4055 -1.3795  1.7406
50227SOL     OW56643   4.975   2.833   4.178  0.2647 -0.3342  0.2551
50227SOL    HW156644   5.029   2.852   4.101 -0.2912  1.3240  0.2370
50227SOL    HW256645   4.973   2.738   4.183  2.6488 -0.4703 -0.1118
50228SOL     OW56646   9.406   6.685   5.175  0.1119  0.0244 -0.3594
50228SOL    HW156647   9.359   6.684   5.258  1.3930  0.0248  0.3830
50228SOL    HW256648   9.374   6.608   5.128 -1.0613  0.3539 -0.1404
50229SOL     OW56649   7.764  10.418  12.291  0.0468 -0.3320  0.0680
50229SOL    HW156650   7.846  10.382  12.257 -0.3118  0.0646 -1.2635
50229SOL    HW256651   7.783  10.438  12.383  1.5990  0.2147 -0.3394
50230SOL     OW56652   9.280   6.425   0.701 -0.3842  0.4492 -0.1866
50230SOL    HW156653   9.265   6.454   0.611 -0.0572 -1.0271 -0.7402
50230SOL    HW256654   9.193   6.401   0.733 -0.2245 -1.2955 -0.9524
50231SOL     OW56655  11.767   1.380   6.788 -0.3372  0.5587  0.1340
50231SOL    HW156656  11.699   1.367   6.722 -0.7113  0.8333  0.4588
50231SOL    HW256657  11.719   1.387   6.870  0.2067 -1.1524  0.6265
50232SOL     OW56658  10.308  10.523   8.130 -0.0711 -0.1110 -0.0238
50232SOL    HW156659  10.222  10.489   8.103 -0.1055 -1.2053  1.3131
50232SOL    HW256660  10.361  10.444   8.145  0.9755  0.5346 -0.2086
50233SOL     OW56661   4.518   0.053   1.050 -0.3133  0.3766  0.3167
50233SOL    HW156662   4.588   0.097   1.099  0.3560 -1.1762  0.8218
50233SOL    HW256663   4.516   0.098   0.966 -0.6129  2.2724  1.2804
50234SOL     OW56664   5.127   8.144   1.290 -0.0224 -0.1712 -0.2743
50234SOL    HW156665   5.037   8.165   1.265  0.0367  0.9472  0.3643
50234SOL    HW256666   5.161   8.091   1.219 -1.2383 -0.7231 -0.4586
50235SOL     OW56667  12.188   3.390   7.236 -0.0800 -0.2904 -0.1607
50235SOL    HW156668  12.092   3.399   7.233 -0.0418 -0.1687 -2.6325
50235SOL    HW256669  12.202   3.297   7.254 -0.6085 -0.0635  1.6448
50236SOL     OW56670   0.876  11.013   3.813  0.0830  0.1438 -0.1782
50236SOL    HW156671   0.920  10.928   3.825 -0.1035  0.1563  0.6539
50236SOL    HW256672   0.879  11.028   3.719  0.3203 -0.6828 -0.3136
50237SOL     OW56673   6.399  11.083   2.277 -0.0194  0.4447 -0.3664
50237SOL    HW156674   6.434  11.135   2.350 -0.9855  0.2767  0.2409
50237SOL    HW256675   6.374  11.149   2.212 -2.4262  0.9193  0.9141
50238SOL     OW56676   8.023   3.783   7.689 -0.0562 -0.1181 -0.0886
50238SOL    HW156677   8.030   3.738   7.773 -1.8723  1.6528  1.0991
50238SOL    HW256678   7.944   3.746   7.649 -0.9736  1.2166  0.4329
50239SOL     OW56679   9.090   2.043   8.470 -0.1204 -0.4310 -0.1640
50239SOL    HW156680   9.002   2.067   8.499 -0.1118 -0.7104  0.0924
50239SOL    HW256681   9.079   1.959   8.426  0.1217 -0.7993  0.4646
50240SOL     OW56682  11.390   4.941  11.229 -0.2840  0.2385 -0.0560
50240SOL    HW156683  11.435   4.935  11.313 -1.0608  1.1258  0.4404
50240SOL    HW256684  11.457   4.974  11.168  0.0183  0.5196  0.4255
50241SOL     OW56685   5.472  10.335   6.851  0.1193 -0.3410  0.2375
50241SOL    HW156686   5.473  10.424   6.884 -0.9874  0.7053 -2.3035
50241SOL    HW256687   5.429  10.284   6.920 -1.3666  1.5340  0.7767
50242SOL     OW56688   8.667  11.579   2.773 -0.4314  0.1721 -0.1301
50242SOL    HW156689   8.580  11.605   2.743 -0.4103 -0.8309 -1.1158
50242SOL    HW256690   8.661  11.580   2.869 -2.6701 -3.3556 -0.0764
50243SOL     OW56691   7.684   3.788   6.452 -1.0897  0.4769  0.2840
50243SOL    HW156692   7.659   3.866   6.502 -0.7239  0.1720  0.9585
50243SOL    HW256693   7.625   3.788   6.377 -3.5047 -0.4528  2.0508
50244SOL     OW56694   2.013   0.361   1.029 -0.6971  0.1724 -0.6582
50244SOL    HW156695   1.980   0.323   1.110  0.1938 -0.2796 -0.5004
50244SOL    HW256696   1.942   0.348   0.966 -0.9990 -0.3670 -0.2112
50245SOL     OW56697   0.203   8.110   4.183 -0.2478  0.0701 -0.0752
50245SOL    HW156698   0.201   8.147   4.271  0.8541  2.2549 -0.8942
50245SOL    HW256699   0.296   8.098   4.164 -0.5232 -2.2738 -0.2571
50246SOL     OW56700  11.318   6.215   6.921  0.2022 -0.2370  0.1841
50246SOL    HW156701  11.313   6.264   7.003 -0.8726 -1.1228  0.6642
50246SOL    HW256702  11.228   6.209   6.891  0.7103  1.6943 -2.0821
50247SOL     OW56703   0.814   8.535  10.145 -0.2236  0.3107  0.0345
50247SOL    HW156704   0.901   8.543  10.184 -0.2358 -0.5642  0.2498
50247SOL    HW256705   0.812   8.447  10.108 -0.6683  0.6837 -0.8431
50248SOL     OW56706   8.720   5.555   2.716 -0.0011 -0.1141 -0.1076
50248SOL    HW156707   8.684   5.466   2.722 -0.2084 -0.1539 -1.6097
50248SOL    HW256708   8.667   5.598   2.650  0.7642  0.8167 -0.1384
50249SOL     OW56709   1.329   2.692   1.955  0.3317 -0.4157 -0.2743
50249SOL    HW156710   1.336   2.618   1.895 -1.6724 -1.2800  0.4791
50249SOL    HW256711   1.406   2.745   1.937  0.9783 -1.8518 -1.9641
50250SOL     OW56712   0.392   7.734  10.024  0.2341  0.6604  0.2731
50250SOL    HW156713   0.369   7.823   9.998 -0.1549  0.8217  1.1302
50250SOL    HW256714   0.322   7.708  10.084  0.2435 -0.2938 -0.1220
50251SOL     OW56715   0.029  10.360   5.122  0.0085 -0.3516  0.6120
50251SOL    HW156716  -0.013  10.274   5.116  1.4827 -0.9988 -1.7757
50251SOL    HW256717   0.082  10.366   5.043  2.3165  1.5260  2.1892
50252SOL     OW56718   1.383  11.949  10.185 -0.0254 -0.3356 -0.0724
50252SOL    HW156719   1.347  12.012  10.248 -0.7077 -0.4840 -0.3045
50252SOL    HW256720   1.384  11.996  10.102  1.0353 -0.0845  0.0704
50253SOL     OW56721   0.062   6.144   4.524  0.0458  0.7313  0.3220
50253SOL    HW156722   0.067   6.157   4.429 -1.8222 -1.3760 -0.1254
50253SOL    HW256723   0.131   6.080   4.543 -0.5898 -0.0397  0.0981
50254SOL     OW56724   1.329   9.413   2.751  0.3153  0.2375 -0.3233
50254SOL    HW156725   1.402   9.356   2.778  0.3175  0.1519 -0.5048
50254SOL    HW256726   1.341   9.423   2.657  0.3934  0.6521 -0.2719
50255SOL     OW56727   0.683   6.570   8.223 -0.0832  0.5280  0.7547
50255SOL    HW156728   0.753   6.634   8.206  0.4517 -0.4296 -0.9939
50255SOL    HW256729   0.613   6.596   8.164  0.5432 -1.0249 -0.7720
50256SOL     OW56730   3.254  11.188   8.629 -0.3700  0.1223  0.1133
50256SOL    HW156731   3.309  11.167   8.554  0.6401 -1.8182  1.2962
50256SOL    HW256732   3.184  11.122   8.627 -0.0621 -0.2496  1.1156
50257SOL     OW56733   3.874  10.440   3.051 -0.1198  0.0387  0.4250
50257SOL    HW156734   3.887  10.407   3.140  1.0285  0.1266  0.3135
50257SOL    HW256735   3.926  10.382   2.996 -0.7481  0.0397 -0.1849
50258SOL     OW56736   9.174  10.354   6.124 -0.7900 -0.1610  0.2454
50258SOL    HW156737   9.219  10.392   6.048 -0.7126  0.0924  0.4172
50258SOL    HW256738   9.196  10.412   6.197 -1.7425  0.2281  0.2460
50259SOL     OW56739   6.725   3.578   0.812 -0.1353  0.2339 -0.4804
50259SOL    HW156740   6.704   3.648   0.750  0.2110  0.6668 -0.1131
50259SOL    HW256741   6.640   3.539   0.834 -0.1673 -0.7565 -2.1873
50260SOL     OW56742   7.007   9.506   3.500 -0.2653 -0.3812  0.1577
50260SOL    HW156743   7.000   9.426   3.552  0.6278 -0.7557 -0.2794
50260SOL    HW256744   6.937   9.499   3.435 -1.8149  0.3925  1.6707
50261SOL     OW56745   1.596   3.777   9.251  0.2026  0.0547  0.1009
50261SOL    HW156746   1.556   3.829   9.181  1.4571 -1.3333 -1.7632
50261SOL    HW256747   1.609   3.839   9.322  1.7630  2.4140 -2.0476
50262SOL     OW56748  11.673   4.115   9.815  0.2065 -0.1674  0.1810
50262SOL    HW156749  11.596   4.089   9.765 -0.3273  2.1609 -0.3313
50262SOL    HW256750  11.736   4.144   9.748  0.3425  0.8209  0.7099
50263SOL     OW56751   6.456  12.307   1.185 -0.4114 -0.1371  0.6602
50263SOL    HW156752   6.535  12.313   1.131 -0.3353  0.4155  0.8260
50263SOL    HW256753   6.461  12.382   1.244 -0.7047 -0.5031  1.1572
50264SOL     OW56754   9.900   5.336   4.156 -0.1586  0.3091  0.2495
50264SOL    HW156755   9.932   5.400   4.219 -3.0047  0.3749  1.7988
50264SOL    HW256756   9.856   5.388   4.089 -1.0849  0.0766  0.6614
50265SOL     OW56757   1.094   3.252  10.944 -0.2551  0.1618  0.4700
50265SOL    HW156758   1.170   3.285  10.895  1.0641 -2.9694  0.1811
50265SOL    HW256759   1.024   3.246  10.879  0.1378  0.2453  0.0330
50266SOL     OW56760   4.701   0.353  11.250 -0.6595 -0.4504  0.3188
50266SOL    HW156761   4.697   0.415  11.178 -0.4311 -0.5518  0.2174
50266SOL    HW256762   4.702   0.407  11.329 -1.6825 -0.3594  0.2764
50267SOL     OW56763   5.722  11.428   3.719 -0.4386  0.1342  0.0453
50267SOL    HW156764   5.691  11.363   3.783 -0.7180 -0.1344 -0.3593
50267SOL    HW256765   5.642  11.468   3.686 -0.2821  0.4221  0.0166
50268SOL     OW56766   9.519   7.179   2.059 -0.3401 -0.2314  0.1754
50268SOL    HW156767   9.494   7.271   2.052  0.3917  0.0695  1.3311
50268SOL    HW256768   9.524   7.162   2.153 -0.5719 -1.4913 -0.0249
50269SOL     OW56769   9.011   4.187   7.204  0.3623 -0.4396  0.4720
50269SOL    HW156770   9.001   4.129   7.128  0.4107  0.9015 -0.6053
50269SOL    HW256771   8.941   4.161   7.264  0.0842 -1.2802 -0.1970
50270SOL     OW56772   3.160   1.305   0.762  0.1828  0.2266  0.8451
50270SOL    HW156773   3.155   1.380   0.822  0.9338 -0.4285  1.7504
50270SOL    HW256774   3.213   1.338   0.688 -0.8923  1.0884  0.4218
50271SOL     OW56775   2.661   5.956   3.763  0.1843 -0.5000 -0.1701
50271SOL    HW156776   2.588   5.900   3.790  0.8553 -0.9043  0.8811
50271SOL    HW256777   2.724   5.949   3.835  2.4814 -2.3215 -2.1775
50272SOL     OW56778   0.449   0.286   7.066 -0.7142 -0.5680  0.7678
50272SOL    HW156779   0.380   0.297   7.001  0.4928 -0.6319 -0.5901
50272SOL    HW256780   0.426   0.206   7.113 -0.7578 -1.4904 -0.7523
50273SOL     OW56781   1.229  10.017   6.024  0.5819 -0.0148 -0.0990
50273SOL    HW156782   1.237   9.996   5.931 -0.3730 -0.7296 -0.0373
50273SOL    HW256783   1.184   9.941   6.061  1.2221  0.1308  1.0013
50274SOL     OW56784   6.214   9.177   9.663  0.6900 -0.2418 -0.0986
50274SOL    HW156785   6.299   9.203   9.699  0.8083 -0.6853 -0.0508
50274SOL    HW256786   6.236   9.131   9.582  0.4861 -0.1920 -0.1811
50275SOL     OW56787   6.097   6.381   7.967  0.7422  0.3820  0.3196
50275SOL    HW156788   6.178   6.404   8.012  1.8111  0.7175 -1.6896
50275SOL    HW256789   6.110   6.291   7.938  0.5483  0.5528 -0.3076
50276SOL     OW56790   6.851   3.697   5.073  0.2983  0.0372  0.6015
50276SOL    HW156791   6.832   3.732   4.985  1.6556  0.2877  0.3867
50276SOL    HW256792   6.943   3.673   5.070  0.1772 -0.6420  1.7492
50277SOL     OW56793   8.626   9.086  12.234  0.5047 -0.0527 -0.1867
50277SOL    HW156794   8.682   9.106  12.159  1.5825  1.8281  1.0274
50277SOL    HW256795   8.537   9.099  12.202  0.9621  1.1156 -1.0544
50278SOL     OW56796   8.519   3.956  11.560 -0.2528 -0.7463  0.4986
50278SOL    HW156797   8.529   3.970  11.654  2.5328  1.4222  0.0070
50278SOL    HW256798   8.460   4.025  11.531  1.0482  0.3167  0.3118
50279SOL     OW56799   9.918   8.379   0.672  0.6868 -0.1766  0.0225
50279SOL    HW156800   9.893   8.373   0.580 -1.3323  0.6868  0.4659
50279SOL    HW256801  10.010   8.352   0.673  0.4241 -1.4062 -2.0512
50280SOL     OW56802   7.304   3.099  10.165 -0.1045  0.0585 -0.2543
50280SOL    HW156803   7.246   3.073  10.236  0.4241  0.2759  0.2582
50280SOL    HW256804   7.281   3.191  10.148  1.5936  0.8444  1.4550
50281SOL     OW56805   6.686   4.009   5.440 -0.2875 -0.2658 -0.1199
50281SOL    HW156806   6.706   3.970   5.355 -0.2766  0.4935 -0.4735
50281SOL    HW256807   6.761   4.065   5.458  0.0119 -0.8995  0.6972
50282SOL     OW56808   5.412   3.384   3.933 -0.2397 -0.5589  0.6988
50282SOL    HW156809   5.353   3.403   4.006  0.0390  1.6916  0.4191
50282SOL    HW256810   5.481   3.451   3.940  0.2450 -0.8179 -1.1173
50283SOL     OW56811   8.157   8.190   2.995  0.0025 -0.7340  0.2460
50283SOL    HW156812   8.249   8.215   3.005 -0.5585  1.1990  0.9923
50283SOL    HW256813   8.114   8.268   2.960 -1.3349 -1.6791 -0.3114
50284SOL     OW56814   1.921  12.404   3.669 -0.8138 -0.0926  0.0704
50284SOL    HW156815   1.999  12.459   3.672 -0.6487 -0.3354  0.2827
50284SOL    HW256816   1.905  12.379   3.760 -0.8270 -0.4801 -0.0359
50285SOL     OW56817   9.624  11.871   7.189 -0.2272 -0.0125  0.6156
50285SOL    HW156818   9.633  11.793   7.244  1.0618  0.3134  0.9114
50285SOL    HW256819   9.533  11.869   7.160 -0.6795 -0.7330  1.9557
50286SOL     OW56820  12.252  10.430   9.340  0.1303 -0.3538 -0.1340
50286SOL    HW156821  12.161  10.419   9.366  0.6246  2.0219  3.2857
50286SOL    HW256822  12.295  10.349   9.367 -0.1377  0.5328  3.4660
50287SOL     OW56823   7.831   4.043   3.647 -0.1779  0.0139  0.4535
50287SOL    HW156824   7.871   3.961   3.618 -0.2152 -0.1342  0.8135
50287SOL    HW256825   7.897   4.083   3.704 -0.4430 -0.1164  0.8585
50288SOL     OW56826   6.159   6.346   6.003  0.4435  0.4466 -0.2608
50288SOL    HW156827   6.154   6.429   6.050 -0.0726  1.7270 -2.4194
50288SOL    HW256828   6.124   6.366   5.916  0.5557 -1.9847 -0.9329
50289SOL     OW56829   9.463   8.279   5.324 -0.7560 -0.2181 -0.3933
50289SOL    HW156830   9.433   8.314   5.408 -1.1049 -2.0167  0.2691
50289SOL    HW256831   9.393   8.301   5.263 -2.5554 -2.5430  0.6995
50290SOL     OW56832  10.754   7.799   0.128 -0.3845 -0.6156  0.7948
50290SOL    HW156833  10.717   7.711   0.126  0.9228 -1.1933 -1.1874
50290SOL    HW256834  10.848   7.785   0.143 -0.1567  0.4290  0.4100
50291SOL     OW56835   2.666  11.655   3.309  0.1163  0.0226  0.0650
50291SOL    HW156836   2.726  11.716   3.351  0.1281 -0.4078  0.6879
50291SOL    HW256837   2.695  11.569   3.339 -0.3750 -0.2337 -0.1902
50292SOL     OW56838  11.624   2.550   0.345  0.3628 -0.2675  0.4269
50292SOL    HW156839  11.582   2.592   0.421  0.1214 -1.6373  1.0857
50292SOL    HW256840  11.673   2.477   0.383  1.5310 -0.0290 -0.5885
50293SOL     OW56841   1.216   0.625  11.305 -0.2829 -0.2781 -0.2976
50293SOL    HW156842   1.223   0.603  11.398  1.7202 -1.8193 -0.7156
50293SOL    HW256843   1.244   0.716  11.300 -1.3805  0.1395  0.6961
50294SOL     OW56844   4.332   3.136   1.575  0.0325  0.1561 -0.1886
50294SOL    HW156845   4.311   3.129   1.668  1.8489 -1.4638  0.1664
50294SOL    HW256846   4.253   3.107   1.529 -0.9068  1.0537  0.8020
50295SOL     OW56847   0.280   2.126   2.296 -0.0620 -0.2154 -0.2763
50295SOL    HW156848   0.199   2.129   2.245  0.5613  0.1404 -1.2792
50295SOL    HW256849   0.319   2.041   2.276  1.2900  0.7864 -2.2207
50296SOL     OW56850   2.262   2.000   1.961  0.6453 -0.2644  0.0903
50296SOL    HW156851   2.283   1.947   2.038  1.6832 -0.1686 -0.1072
50296SOL    HW256852   2.203   1.945   1.909 -2.0201  0.5486  2.0232
50297SOL     OW56853  10.950   7.153  10.328 -0.5177  0.3474  0.3980
50297SOL    HW156854  10.956   7.241  10.366  0.8871 -0.5991  2.5844
50297SOL    HW256855  10.973   7.165  10.236 -0.9731  2.3366  0.4910
50298SOL     OW56856  10.439   1.001   2.713  0.0189 -0.1014  0.3546
50298SOL    HW156857  10.516   1.055   2.697 -0.3937  0.8207  1.4238
50298SOL    HW256858  10.465   0.941   2.783  0.7554 -1.9329 -1.3896
50299SOL     OW56859   1.726   2.487   2.502 -0.2903 -0.2246  0.3047
50299SOL    HW156860   1.750   2.576   2.476 -0.5234 -0.6019 -1.3194
50299SOL    HW256861   1.631   2.490   2.513 -0.1042  0.1621  2.2008
50300SOL     OW56862   0.709   6.834  12.230  0.7627  0.2234 -0.5221
50300SOL    HW156863   0.804   6.839  12.247  0.6628  0.5118 -0.0046
50300SOL    HW256864   0.670   6.835  12.317  0.2205  1.6798 -0.7418
50301SOL     OW56865  10.012   5.246  10.679  0.1866  0.5452 -0.4485
50301SOL    HW156866  10.040   5.159  10.708  1.1652  1.6498  2.3060
50301SOL    HW256867   9.918   5.248  10.694 -0.2567 -0.7483 -2.7371
50302SOL     OW56868  11.066   0.141   5.160 -0.1327  0.1932 -0.6366
50302SOL    HW156869  11.032   0.164   5.074 -0.5990  0.8786 -0.2834
50302SOL    HW256870  10.991   0.102   5.206 -0.0304  0.3060 -0.3694
50303SOL     OW56871   4.710   3.297   9.127 -0.1683  0.3386 -0.1568
50303SOL    HW156872   4.686   3.288   9.035 -2.3550  0.1892  0.3828
50303SOL    HW256873   4.787   3.240   9.137  0.0161  0.2374 -1.8288
50304SOL     OW56874   5.596   2.410   1.377  0.1774  0.4212  0.2926
50304SOL    HW156875   5.545   2.429   1.456  1.1412  0.7408  0.8641
50304SOL    HW256876   5.641   2.493   1.357 -1.2949  0.8343 -1.5659
50305SOL     OW56877   5.684   0.510  11.452 -0.5138 -0.6563  0.0939
50305SOL    HW156878   5.714   0.600  11.464  0.9243 -0.9894 -0.8273
50305SOL    HW256879   5.743   0.457  11.505 -1.1425 -1.1086  0.3637
50306SOL     OW56880   6.504   8.313   6.990 -0.2941  0.7861  0.1606
50306SOL    HW156881   6.566   8.382   6.965 -0.5734  0.8043 -0.5224
50306SOL    HW256882   6.485   8.267   6.908 -0.8596  0.5164  0.4324
50307SOL     OW56883   6.859   0.920   4.485 -0.2410 -0.4416 -0.6133
50307SOL    HW156884   6.866   0.922   4.580 -0.3124  0.2654 -0.6203
50307SOL    HW256885   6.813   0.838   4.467  1.5948 -1.6288 -0.1833
50308SOL     OW56886   6.019   9.344  10.083  0.4942 -0.2092 -0.2334
50308SOL    HW156887   5.941   9.367  10.132 -1.0082 -3.5362 -0.7735
50308SOL    HW256888   6.076   9.300  10.147  2.0301  2.1354  0.1466
50309SOL     OW56889   7.386   2.187  10.383 -0.0168 -0.2401 -0.0388
50309SOL    HW156890   7.343   2.267  10.414  0.3692  0.0206 -0.1704
50309SOL    HW256891   7.335   2.161  10.307  0.9966  0.9741 -1.1813
50310SOL     OW56892   0.419  10.943   7.929 -0.2755 -0.2437 -0.0275
50310SOL    HW156893   0.469  11.025   7.925 -0.7417  0.0092 -1.4178
50310SOL    HW256894   0.364  10.946   7.851 -2.3054 -0.6236  1.3352
50311SOL     OW56895   3.272   7.439   0.244 -0.3435  0.1466  0.1760
50311SOL    HW156896   3.303   7.349   0.247  0.8433  0.4780 -0.9190
50311SOL    HW256897   3.184   7.436   0.280 -0.4011 -1.4778 -0.0310
50312SOL     OW56898   4.372  10.136   3.436 -0.1330 -0.2793  0.2219
50312SOL    HW156899   4.370  10.046   3.468 -4.7684 -1.0698 -1.4818
50312SOL    HW256900   4.335  10.188   3.506 -0.0560 -0.1544  0.1713
50313SOL     OW56901  11.498   5.371   2.446  0.4543 -0.1770  0.3988
50313SOL    HW156902  11.572   5.425   2.474  0.6126  0.0322 -0.4008
50313SOL    HW256903  11.432   5.433   2.415  0.1249 -0.3856  0.6647
50314SOL     OW56904   8.909  12.461   5.132 -0.4354 -0.0671 -0.0478
50314SOL    HW156905   8.999  12.432   5.113  0.3499  1.5551  0.9598
50314SOL    HW256906   8.864  12.381   5.159  0.6183 -0.9636 -0.7959
50315SOL     OW56907  10.044   9.726   5.045  0.0987  0.4050 -0.6200
50315SOL    HW156908  10.045   9.663   5.117 -0.3921 -1.3569 -2.0673
50315SOL    HW256909  10.111   9.694   4.984  1.7260  2.8171 -0.2612
50316SOL     OW56910   7.634   4.148  11.413  0.1186 -0.4763  0.1180
50316SOL    HW156911   7.595   4.228  11.377  2.7560  1.0311  0.3591
50316SOL    HW256912   7.648   4.092  11.337 -0.6490 -0.2073 -0.2304
50317SOL     OW56913   0.627  10.308   3.000  0.2719 -0.4613  0.5307
50317SOL    HW156914   0.701  10.292   3.058 -0.1223  0.1613  1.2118
50317SOL    HW256915   0.559  10.345   3.056 -0.6432 -1.2194 -0.0368
50318SOL     OW56916   2.161   1.438   4.640  0.7421 -0.0154  0.0491
50318SOL    HW156917   2.180   1.401   4.554  0.2540  0.0104 -0.0750
50318SOL    HW256918   2.163   1.363   4.699 -0.8690 -0.3824 -0.2980
50319SOL     OW56919   7.888  10.951   0.826 -0.2508 -0.3845 -0.5901
50319SOL    HW156920   7.898  11.014   0.898  1.0957 -1.6001  0.3341
50319SOL    HW256921   7.814  10.897   0.851 -0.6848  0.0882 -0.8301
50320SOL     OW56922   9.407  10.191   1.124  0.0265 -0.1868 -0.7509
50320SOL    HW156923   9.331  10.228   1.170  0.9507  0.4397  0.3114
50320SOL    HW256924   9.381  10.191   1.032 -1.5487 -0.6952 -0.3378
50321SOL     OW56925   9.819   9.326   3.393 -0.2206  0.1627 -0.5255
50321SOL    HW156926   9.814   9.363   3.305 -1.0231 -0.3003 -0.6829
50321SOL    HW256927   9.738   9.353   3.436 -0.1580 -0.2044 -0.1696
50322SOL     OW56928   8.372   7.699   7.327 -0.0930 -0.1412  0.0834
50322SOL    HW156929   8.303   7.651   7.282  1.7049 -1.0025 -1.9528
50322SOL    HW256930   8.396   7.643   7.401 -1.2785 -0.0030  0.5973
50323SOL     OW56931   6.668   7.879   0.941  0.1081  0.3142 -0.2318
50323SOL    HW156932   6.754   7.889   0.982  0.9501  0.2522 -1.9184
50323SOL    HW256933   6.663   7.786   0.918 -1.0847 -0.0213  1.2054
50324SOL     OW56934  12.237   9.861   6.835 -0.2910  0.4331 -0.5965
50324SOL    HW156935  12.185   9.795   6.790 -2.3747  0.7320  1.1876
50324SOL    HW256936  12.235   9.836   6.928  1.2309  1.4954 -0.2160
50325SOL     OW56937   7.867   0.933   9.456 -0.4874 -0.0163 -0.2256
50325SOL    HW156938   7.813   0.991   9.402  0.8439  0.1571 -1.4529
50325SOL    HW256939   7.811   0.858   9.475 -0.1564 -1.7307 -4.7165
50326SOL     OW56940   2.818   7.505   4.707  0.6626  0.0769  0.3616
50326SOL    HW156941   2.750   7.529   4.644  1.2659  2.1361  0.4275
50326SOL    HW256942   2.786   7.538   4.791 -0.2950 -2.9425  1.3288
50327SOL     OW56943   5.438   9.044  11.009 -0.2884  0.3545 -0.5526
50327SOL    HW156944   5.361   9.001  10.972 -1.3343  1.7851 -0.1244
50327SOL    HW256945   5.512   8.992  10.978 -1.4320 -1.2313 -0.7448
50328SOL     OW56946   1.691   7.865  11.384  0.4623  0.1120 -0.1543
50328SOL    HW156947   1.631   7.916  11.330 -1.7867  1.8775  3.5838
50328SOL    HW256948   1.637   7.796  11.423  1.8774 -0.8917  0.1507
50329SOL     OW56949   4.684   0.479   8.335  0.1402  0.3118 -0.0763
50329SOL    HW156950   4.596   0.502   8.364  0.5493  0.1666  1.3621
50329SOL    HW256951   4.680   0.384   8.322  0.4136  0.0913  1.3017
50330SOL     OW56952   0.865   9.628   6.511  0.2744 -0.4653  0.2097
50330SOL    HW156953   0.858   9.533   6.518  2.0453 -0.5733  1.1613
50330SOL    HW256954   0.876   9.643   6.417 -2.2276 -0.9526 -0.2337
50331SOL     OW56955   3.248  11.767   9.127 -0.4891  0.3258  0.4800
50331SOL    HW156956   3.294  11.686   9.148 -1.2678  0.1490  1.5905
50331SOL    HW256957   3.240  11.812   9.211 -2.0351  0.5121  0.2493
50332SOL     OW56958  10.739  11.820  11.379 -0.0381  0.4259 -0.4046
50332SOL    HW156959  10.794  11.792  11.306  0.3175 -0.4771  0.1919
50332SOL    HW256960  10.799  11.863  11.439 -0.0747 -0.0257 -0.0336
50333SOL     OW56961   3.253   5.801  11.198  0.3193  0.1060 -0.2078
50333SOL    HW156962   3.276   5.716  11.159 -0.0267 -1.1357  2.0630
50333SOL    HW256963   3.333   5.853  11.191  0.8242 -0.7252 -0.8711
50334SOL     OW56964   2.140   1.171   9.192 -0.2072  0.2780 -0.0821
50334SOL    HW156965   2.132   1.132   9.105 -0.5462 -0.6537  0.3550
50334SOL    HW256966   2.217   1.227   9.186 -0.1754  0.1545 -0.9549
50335SOL     OW56967   9.419   4.149   2.381 -0.2116 -0.2466  0.1542
50335SOL    HW156968   9.384   4.100   2.455 -0.5517 -1.1118 -0.5660
50335SOL    HW256969   9.510   4.168   2.406  0.2006 -1.9907  0.0964
50336SOL     OW56970   3.200   4.883   7.128 -0.6742 -0.3117 -0.0594
50336SOL    HW156971   3.265   4.832   7.080  1.4349  2.3096 -0.2456
50336SOL    HW256972   3.195   4.840   7.214  1.2180 -0.7276 -0.1043
50337SOL     OW56973   7.851  12.191   6.114  0.6002 -0.7285 -0.2037
50337SOL    HW156974   7.880  12.271   6.070  1.9260 -0.5914  0.8451
50337SOL    HW256975   7.870  12.207   6.206  1.2134 -2.3749 -0.0117
50338SOL     OW56976   9.124   3.438   8.818 -0.0869  0.8728  0.1322
50338SOL    HW156977   9.075   3.420   8.898  0.6960  0.6524  0.5739
50338SOL    HW256978   9.175   3.517   8.839  1.9436 -0.5121  0.7140
50339SOL     OW56979   6.422  11.836   0.218  0.0831  0.3372 -0.1317
50339SOL    HW156980   6.374  11.777   0.159 -1.0778  0.9287  0.1879
50339SOL    HW256981   6.396  11.808   0.306  0.7440  0.3305  0.0638
50340SOL     OW56982   5.230   5.034   7.300  0.0550 -0.0163  0.0884
50340SOL    HW156983   5.198   4.992   7.380 -0.0324 -0.6265 -0.2597
50340SOL    HW256984   5.252   5.123   7.327  0.0682 -0.2274  0.8000
50341SOL     OW56985   5.803  11.940   8.586 -0.2692  0.0228 -0.0825
50341SOL    HW156986   5.725  11.990   8.607 -0.6942 -0.0290 -1.4232
50341SOL    HW256987   5.850  11.994   8.522  0.7468  0.0051  0.6264
50342SOL     OW56988   9.975  11.121  10.839  0.5287  0.0961 -0.1836
50342SOL    HW156989   9.947  11.199  10.790 -1.1587  0.5588  1.3986
50342SOL    HW256990  10.001  11.155  10.925 -0.8550 -1.1122  0.7554
50343SOL     OW56991   0.625  11.214   2.124 -0.5220  0.4506  0.2887
50343SOL    HW156992   0.683  11.290   2.130 -1.4952  1.2784 -0.4190
50343SOL    HW256993   0.541  11.250   2.094 -0.8508 -0.9701 -0.5886
50344SOL     OW56994   4.036   9.912   9.970 -0.1070  0.0509 -0.6526
50344SOL    HW156995   4.054   9.959  10.051  0.3507 -1.5065  0.2018
50344SOL    HW256996   4.104   9.942   9.909 -0.2549  0.9919 -0.3722
50345SOL     OW56997   8.653   4.783   5.680  1.0037  0.1115 -0.0019
50345SOL    HW156998   8.634   4.783   5.774 -1.1035 -0.7849 -0.3734
50345SOL    HW256999   8.628   4.696   5.650 -0.3618  1.0217 -1.7259
50346SOL     OW57000   5.088  10.729   2.787 -0.1393 -0.1325  0.3066
50346SOL    HW157001   5.002  10.771   2.791 -0.8135 -1.5126  1.1141
50346SOL    HW257002   5.119  10.729   2.878  1.1731  1.2183 -0.1117
50347SOL     OW57003   5.397   0.306  10.940 -0.1067 -0.1737 -0.2901
50347SOL    HW157004   5.380   0.289  11.033 -0.2990  2.6205  0.2958
50347SOL    HW257005   5.481   0.264  10.922  0.9748  0.9590  1.7653
50348SOL     OW57006   8.417   2.457   4.121 -0.2242 -0.0366  0.0659
50348SOL    HW157007   8.491   2.414   4.164 -0.3227 -0.0544  0.2220
50348SOL    HW257008   8.355   2.385   4.106  0.4261 -0.3022 -1.4705
50349SOL     OW57009  11.799   6.304  10.040 -0.2639 -0.1031 -0.5400
50349SOL    HW157010  11.719   6.304  10.092  1.3688 -0.3580  2.1292
50349SOL    HW257011  11.819   6.396  10.028 -0.0383 -0.0355  0.3118
50350SOL     OW57012   3.690   9.574   3.619 -0.0293  0.2759 -0.2319
50350SOL    HW157013   3.620   9.528   3.664  1.0274 -0.3606  0.8296
50350SOL    HW257014   3.649   9.652   3.583 -0.5995  1.9502  3.5826
50351SOL     OW57015  11.418   8.389   9.967  0.3204 -0.0863  0.0836
50351SOL    HW157016  11.342   8.394   9.909 -1.3872  0.7913  2.2489
50351SOL    HW257017  11.463   8.473   9.955 -0.4613  0.4115  0.5313
50352SOL     OW57018   8.650   1.941   8.845 -0.6816  0.5617  0.0773
50352SOL    HW157019   8.582   1.915   8.783  0.0425  1.8985 -1.3514
50352SOL    HW257020   8.731   1.906   8.808 -0.5352 -1.0550  1.7843
50353SOL     OW57021   2.494   1.926   1.581  0.0385 -0.9627 -0.2845
50353SOL    HW157022   2.582   1.890   1.587  0.0265 -0.8996  0.3485
50353SOL    HW257023   2.453   1.878   1.509  0.8913 -0.3218 -1.2260
50354SOL     OW57024  10.080   0.333   0.770  0.2355  0.5460  0.5399
50354SOL    HW157025  10.057   0.426   0.770 -0.2757  0.4273 -0.0702
50354SOL    HW257026  10.007   0.291   0.725 -1.2319 -0.5693  3.6443
50355SOL     OW57027   8.109   6.310  10.817 -0.2072  0.1666 -0.9819
50355SOL    HW157028   8.082   6.218  10.818  0.0685  0.0487  1.3920
50355SOL    HW257029   8.093   6.341  10.907  3.0715  1.4283 -0.7087
50356SOL     OW57030   5.071   0.461   4.300 -0.1748 -0.4662 -0.1240
50356SOL    HW157031   5.040   0.440   4.388  1.1507  0.6100  0.6449
50356SOL    HW257032   5.154   0.507   4.314 -1.3528  2.4555 -1.7740
50357SOL     OW57033   4.908   0.176  11.263  0.1836 -0.5232 -0.0951
50357SOL    HW157034   4.859   0.258  11.255 -0.7178 -0.9049  1.2851
50357SOL    HW257035   4.842   0.108  11.256  0.4615 -1.0464  1.8178
50358SOL     OW57036   8.133   1.020   7.115 -0.0426 -0.3364 -0.4028
50358SOL    HW157037   8.215   1.068   7.107  0.3769 -0.3793  2.3899
50358SOL    HW257038   8.148   0.938   7.070  1.4778 -0.3519  0.0936
50359SOL     OW57039   3.080   6.186  12.264 -0.8472 -0.4757  0.1345
50359SOL    HW157040   3.146   6.119  12.286 -0.2918  0.3319  0.9859
50359SOL    HW257041   3.115   6.267  12.301 -2.1041  0.0609  0.1952
50360SOL     OW57042  10.802   0.014   0.017  0.0481  0.2138 -0.0567
50360SOL    HW157043  10.861   0.059   0.078 -1.9649 -0.4816  2.5788
50360SOL    HW257044  10.805  -0.078   0.045 -1.4744 -0.0027 -0.5393
50361SOL     OW57045   7.332   9.999   6.645 -0.3663  0.3592 -0.3810
50361SOL    HW157046   7.416  10.010   6.690  0.0102 -0.3206 -0.8967
50361SOL    HW257047   7.356   9.969   6.558 -1.0390  2.5990 -1.3904
50362SOL     OW57048   2.500  11.158   4.831  0.0620 -0.1906  0.4015
50362SOL    HW157049   2.430  11.189   4.888 -0.2742  0.7542 -0.5057
50362SOL    HW257050   2.530  11.236   4.783 -0.1840 -1.0656 -1.2666
50363SOL     OW57051   2.381   1.337   1.987 -0.5140  0.1829 -0.0637
50363SOL    HW157052   2.426   1.281   1.923  2.4913  0.6721  1.4355
50363SOL    HW257053   2.436   1.415   1.992 -3.3840  2.3996 -0.4512
50364SOL     OW57054   8.519   0.085   3.334  0.5701  0.2166 -0.0452
50364SOL    HW157055   8.528   0.030   3.412 -0.4839 -0.1517 -0.1662
50364SOL    HW257056   8.555   0.032   3.263  0.0483 -0.1176 -0.0697
50365SOL     OW57057   1.375   0.606  12.453 -0.6168  0.2037 -0.2484
50365SOL    HW157058   1.470   0.612  12.462 -0.6264  0.0203 -0.0552
50365SOL    HW257059   1.342   0.601  12.542 -0.8769  1.3534 -0.2652
50366SOL     OW57060   9.653   2.217   2.433  0.1641  0.4966  1.2268
50366SOL    HW157061   9.721   2.282   2.417 -0.4745  1.1462  1.0625
50366SOL    HW257062   9.688   2.162   2.503  0.3812  1.5370  1.9607
50367SOL     OW57063   3.066   1.414   8.020  0.3200  0.0383  0.0953
50367SOL    HW157064   3.047   1.324   7.991 -0.5015  0.2506 -0.0723
50367SOL    HW257065   2.980   1.456   8.024  0.5599  0.4546  1.4281
50368SOL     OW57066  10.839   7.442  11.698  0.0411 -0.2096 -0.1037
50368SOL    HW157067  10.879   7.418  11.781 -0.4152 -0.3170  0.0896
50368SOL    HW257068  10.909   7.433  11.634  0.6258  0.7085  0.3946
50369SOL     OW57069   5.313   1.516   9.600  0.4191  0.2674  0.2751
50369SOL    HW157070   5.297   1.467   9.681  1.3954 -0.0312  0.2947
50369SOL    HW257071   5.225   1.538   9.568  0.0215  0.7584  1.6303
50370SOL     OW57072   6.807   4.613   2.169 -0.0745  0.0407  0.0006
50370SOL    HW157073   6.783   4.571   2.086  0.6923 -2.3400  0.8961
50370SOL    HW257074   6.735   4.591   2.228 -0.1359  0.8871  0.2550
50371SOL     OW57075   0.782   7.688  11.547 -0.6073  0.8337  0.3138
50371SOL    HW157076   0.818   7.599  11.542 -2.2341  0.1377  0.3049
50371SOL    HW257077   0.732   7.688  11.629  1.0132  2.4053  1.3578
50372SOL     OW57078   0.406   6.680   3.421 -0.0311 -0.0755 -0.2356
50372SOL    HW157079   0.408   6.674   3.326  0.8983  0.6865 -0.2819
50372SOL    HW257080   0.406   6.589   3.451  2.1094 -0.3624 -0.9569
50373SOL     OW57081   4.657  11.193  10.739  0.1484  0.1758 -0.0628
50373SOL    HW157082   4.627  11.175  10.828 -0.2665 -1.7820 -0.5629
50373SOL    HW257083   4.702  11.113  10.712  0.8053  0.9609 -1.4063
50374SOL     OW57084  11.543  11.569   2.160 -0.3978 -0.2273 -0.1976
50374SOL    HW157085  11.499  11.568   2.245  0.4207  0.0291  0.2465
50374SOL    HW257086  11.540  11.660   2.132  1.1241  0.0965  0.5518
50375SOL     OW57087   4.418   2.416  11.327  0.4504  0.1264 -0.1102
50375SOL    HW157088   4.397   2.407  11.420  1.3519  0.8189  0.1763
50375SOL    HW257089   4.436   2.327  11.297 -0.2809 -0.1506  0.2625
50376SOL     OW57090   4.420   0.243   8.942  0.7240  0.0619 -0.2798
50376SOL    HW157091   4.473   0.202   8.873 -0.4204 -1.1254 -0.4735
50376SOL    HW257092   4.395   0.171   9.000 -1.9444  0.2904 -1.0292
50377SOL     OW57093   2.923   7.340   0.736 -0.2787  0.3179  0.2841
50377SOL    HW157094   3.001   7.396   0.730 -0.2235  0.1478 -0.7600
50377SOL    HW257095   2.906   7.333   0.830 -1.0154  3.1001  0.4384
50378SOL     OW57096   2.642   0.313   2.562 -0.3912  0.8032  0.6523
50378SOL    HW157097   2.727   0.286   2.597 -1.1640 -0.5641  1.5940
50378SOL    HW257098   2.653   0.313   2.467  0.2180 -0.9549  0.6990
50379SOL     OW57099   7.484   7.730   7.785 -0.3250  0.3361  0.3197
50379SOL    HW157100   7.406   7.759   7.832 -0.0556  1.2550  0.2204
50379SOL    HW257101   7.464   7.640   7.758 -1.7689  0.9010 -0.6189
50380SOL     OW57102   3.497  10.996   5.877  0.2798 -0.0311  0.2753
50380SOL    HW157103   3.549  10.927   5.835 -0.9050 -2.2235  2.1855
50380SOL    HW257104   3.426  11.013   5.815  0.9195 -0.0601 -0.4823
50381SOL     OW57105   7.186   2.362   3.695  0.1474  0.1218 -0.0355
50381SOL    HW157106   7.139   2.299   3.640 -0.6107  1.9824 -1.6065
50381SOL    HW257107   7.223   2.308   3.765 -0.9569 -1.9864 -0.9618
50382SOL     OW57108   3.250   7.958   6.707 -0.3166  0.4725  0.3505
50382SOL    HW157109   3.226   8.040   6.665 -0.8960  0.5040  0.7305
50382SOL    HW257110   3.212   7.890   6.650  1.6494  0.3725 -0.9299
50383SOL     OW57111   9.824   3.783  10.803 -0.1658  0.1674  0.3806
50383SOL    HW157112   9.829   3.816  10.893  0.1482  3.0122 -0.5653
50383SOL    HW257113   9.737   3.808  10.774 -0.2849 -0.7871 -0.1219
50384SOL     OW57114   7.686   7.384   1.446 -0.1848  0.0569  0.7003
50384SOL    HW157115   7.620   7.317   1.465  0.1793 -0.3068  0.7107
50384SOL    HW257116   7.769   7.336   1.445  0.0660  0.4847  0.5576
50385SOL     OW57117  11.540   5.874   9.754 -0.1834 -0.0956 -0.4209
50385SOL    HW157118  11.605   5.879   9.683  0.0822  1.3275 -0.0985
50385SOL    HW257119  11.456   5.869   9.709  0.0696 -0.7964 -0.8378
50386SOL     OW57120   3.296   3.972  12.045  0.2463 -0.3390 -0.1245
50386SOL    HW157121   3.352   3.895  12.031 -0.6479 -0.6000 -2.6079
50386SOL    HW257122   3.288   4.013  11.959 -0.9634  1.4115  0.7552
50387SOL     OW57123   8.232   7.220   8.839  0.3033  0.3124 -0.3697
50387SOL    HW157124   8.278   7.196   8.920  0.6146  1.8198 -0.0747
50387SOL    HW257125   8.145   7.249   8.868  0.8690  2.1653 -0.3851
50388SOL     OW57126   4.462  11.868   4.793 -0.0779 -0.2981 -0.3859
50388SOL    HW157127   4.531  11.802   4.797 -1.2472 -1.6705 -1.6386
50388SOL    HW257128   4.384  11.823   4.827 -0.9399  0.3287 -1.4487
50389SOL     OW57129   3.336   8.489   8.591 -0.3954  0.2077  0.5438
50389SOL    HW157130   3.335   8.418   8.656 -2.4943  0.5247  0.9241
50389SOL    HW257131   3.385   8.559   8.633  0.4691 -0.4971  0.7409
50390SOL     OW57132  10.174   6.117   5.332  0.0624  0.0037 -0.4779
50390SOL    HW157133  10.245   6.053   5.338 -0.0300 -0.2295 -1.7120
50390SOL    HW257134  10.095   6.065   5.321 -0.1509  0.3051 -0.4054
50391SOL     OW57135   8.383   7.914   8.218  0.3215 -0.1447  0.4727
50391SOL    HW157136   8.438   7.948   8.147  1.0801 -0.3473  0.9564
50391SOL    HW257137   8.425   7.832   8.244  0.2475  0.0981  1.3935
50392SOL     OW57138   9.893   4.149   4.298  0.0601 -0.4086  0.4100
50392SOL    HW157139   9.884   4.205   4.375 -1.9831 -1.1072  0.7360
50392SOL    HW257140   9.985   4.122   4.298  0.4853  0.9493  1.6309
50393SOL     OW57141   7.776   4.159   6.908 -0.2956 -0.0383 -0.3704
50393SOL    HW157142   7.701   4.168   6.849  0.5746  1.7476 -1.2911
50393SOL    HW257143   7.747   4.201   6.989 -0.3228  0.6230 -0.7119
50394SOL     OW57144  10.674   7.300   8.581 -0.2340  0.2158  0.1356
50394SOL    HW157145  10.625   7.262   8.655 -2.5939  1.8935 -0.4502
50394SOL    HW257146  10.754   7.334   8.620  0.6174 -2.6757  1.1476
50395SOL     OW57147   0.079  11.038  11.538 -0.2553 -0.2114  0.4114
50395SOL    HW157148   0.116  11.015  11.453 -1.3985  1.8213 -0.7247
50395SOL    HW257149   0.154  11.068  11.590  0.6444 -2.6306  0.6157
50396SOL     OW57150  10.503   0.772  12.149 -0.2152 -0.1725  0.0472
50396SOL    HW157151  10.459   0.779  12.064  0.2350  1.2287 -0.0872
50396SOL    HW257152  10.516   0.678  12.161  0.4730 -0.3486 -1.8226
50397SOL     OW57153  12.390   3.852   0.896 -0.6040 -0.2717 -0.0295
50397SOL    HW157154  12.303   3.858   0.936  0.0053  0.9824  1.2121
50397SOL    HW257155  12.430   3.775   0.936 -0.8964 -0.4702 -0.1156
50398SOL     OW57156   0.950   5.185   2.399 -0.4140  0.3934  0.1561
50398SOL    HW157157   1.039   5.218   2.401 -0.0642 -0.4790 -0.3606
50398SOL    HW257158   0.918   5.208   2.311 -0.1767 -0.5725 -0.1987
50399SOL     OW57159   0.047   3.333   0.243 -0.1629  0.2923  0.4377
50399SOL    HW157160  -0.041   3.363   0.219  0.1439 -0.0557 -1.2813
50399SOL    HW257161   0.104   3.405   0.217  0.2363 -0.3199 -0.4590
50400SOL     OW57162   2.885  10.298   1.065  0.2030  0.4332  0.4208
50400SOL    HW157163   2.969  10.256   1.080 -0.5274 -1.1170  0.3100
50400SOL    HW257164   2.888  10.326   0.973  0.3856 -0.1189  0.2554
50401SOL     OW57165   8.610   9.835   6.638  0.3799  0.5541  0.6444
50401SOL    HW157166   8.630   9.870   6.725  0.1446  0.6085  0.6785
50401SOL    HW257167   8.607   9.740   6.650  0.1164  0.5727  0.7490
50402SOL     OW57168   5.506   2.754   9.368 -0.6092 -0.0856 -0.0201
50402SOL    HW157169   5.538   2.723   9.453  3.1917  1.4698 -0.6863
50402SOL    HW257170   5.500   2.674   9.315  1.2379 -0.6668  0.5434
50403SOL     OW57171   9.161   4.349  11.371 -0.1487 -0.4611 -0.1170
50403SOL    HW157172   9.075   4.391  11.371  0.0925  0.0602 -0.9909
50403SOL    HW257173   9.202   4.379  11.290  1.3955  0.3988  0.9549
50404SOL     OW57174   1.762   1.621   1.906  0.4135 -0.0561 -0.0126
50404SOL    HW157175   1.668   1.637   1.904  0.3092 -0.3448  1.5497
50404SOL    HW257176   1.796   1.683   1.971  1.3239  0.1204 -0.6401
50405SOL     OW57177  10.809   7.868   1.302 -0.3647  0.3726 -0.4081
50405SOL    HW157178  10.770   7.781   1.296  0.3473 -0.0654  0.9468
50405SOL    HW257179  10.819   7.895   1.211  2.2433 -2.2999 -1.0890
50406SOL     OW57180   3.546   7.562   4.165 -0.1027  0.6031  0.1926
50406SOL    HW157181   3.571   7.478   4.126 -0.9897  0.8226 -0.9024
50406SOL    HW257182   3.457   7.548   4.197 -1.0205  1.6197 -1.7087
50407SOL     OW57183  10.016   2.869   5.382  0.1848 -0.8784  0.1533
50407SOL    HW157184   9.928   2.841   5.409 -0.2282  0.5890  0.3771
50407SOL    HW257185  10.008   2.963   5.367  1.3854 -0.9507 -1.1979
50408SOL     OW57186  11.146   0.758  10.391  0.0305  0.3091 -0.8531
50408SOL    HW157187  11.066   0.761  10.444 -0.5156  1.2976 -1.7136
50408SOL    HW257188  11.173   0.666  10.395 -0.2993  0.2426  0.6724
50409SOL     OW57189   9.243   9.711  10.330 -0.0960  0.0318  0.0615
50409SOL    HW157190   9.305   9.784  10.329  0.5316 -0.4865 -1.0034
50409SOL    HW257191   9.170   9.740  10.276 -0.3446  0.2769  0.5264
50410SOL     OW57192   0.888   2.792   4.911 -0.1477  0.1133 -0.0860
50410SOL    HW157193   0.950   2.725   4.883  1.8130  1.2180  1.3798
50410SOL    HW257194   0.807   2.771   4.864  0.5078 -2.9706 -0.0340
50411SOL     OW57195  11.601   0.706   9.246 -0.3216 -0.1661  0.1315
50411SOL    HW157196  11.610   0.664   9.160 -1.4642  1.5247 -0.8762
50411SOL    HW257197  11.523   0.666   9.283  1.5283 -2.7124  1.5572
50412SOL     OW57198   7.789   6.300   7.289  0.3499  0.3650  0.6549
50412SOL    HW157199   7.697   6.277   7.277  0.7777 -1.8169  1.0996
50412SOL    HW257200   7.787   6.390   7.320 -1.6319  0.3542  0.7037
50413SOL     OW57201  10.942   7.223   0.943 -0.5901  0.3195 -0.5540
50413SOL    HW157202  10.917   7.180   1.026  0.0553  2.0662  0.5910
50413SOL    HW257203  10.876   7.291   0.931  0.2628  1.1669 -0.5655
50414SOL     OW57204  12.152   2.769   3.995  0.7861  0.1074  0.0669
50414SOL    HW157205  12.087   2.824   3.952 -1.0374 -1.7623  0.2382
50414SOL    HW257206  12.183   2.820   4.069 -1.2084  0.7493  0.5143
50415SOL     OW57207   1.920   6.889  10.189 -0.1486  0.1559 -0.3856
50415SOL    HW157208   1.859   6.949  10.146  0.4638 -0.3326 -2.0180
50415SOL    HW257209   1.977   6.858  10.118  0.5484 -1.1382  0.6970
50416SOL     OW57210   3.840   1.273   4.928 -0.5695 -0.1970  0.0336
50416SOL    HW157211   3.882   1.244   5.009 -1.0569 -0.9233  0.0404
50416SOL    HW257212   3.805   1.359   4.948 -0.5206 -0.2919  0.5389
50417SOL     OW57213   3.451  10.674   2.370 -0.2412 -0.0806  0.4304
50417SOL    HW157214   3.379  10.676   2.433 -0.8376  0.4665 -0.2642
50417SOL    HW257215   3.409  10.660   2.285  0.6520 -2.1563  0.2727
50418SOL     OW57216   2.286  10.528   5.297 -0.3731  0.1274  0.3032
50418SOL    HW157217   2.374  10.512   5.332 -0.2804 -1.0889 -0.4232
50418SOL    HW257218   2.229  10.525   5.374  0.2840  1.8681  0.9212
50419SOL     OW57219   5.415   6.657   8.047  0.3745 -0.2993  0.5979
50419SOL    HW157220   5.410   6.712   8.125 -0.5478 -0.8359  0.9281
50419SOL    HW257221   5.336   6.604   8.049  1.0955 -1.4344  0.1260
50420SOL     OW57222   3.613  10.247  11.401 -0.2990  0.4997  0.3518
50420SOL    HW157223   3.599  10.155  11.426 -1.9008  1.2254  2.3497
50420SOL    HW257224   3.671  10.281  11.468  0.2049  1.0021 -0.3277
50421SOL     OW57225   4.609   0.658   5.360 -0.3424 -0.6370  0.3730
50421SOL    HW157226   4.614   0.580   5.305 -0.5497  0.4944 -1.3199
50421SOL    HW257227   4.698   0.668   5.394  0.4445 -0.0614 -1.6915
50422SOL     OW57228   6.208   6.446  11.960  0.1275  0.1294  0.3899
50422SOL    HW157229   6.248   6.388  12.025 -1.3533 -1.1542  0.2070
50422SOL    HW257230   6.184   6.388  11.888 -0.2685  1.1836 -0.3508
50423SOL     OW57231  11.733   8.561   9.848 -0.0494 -0.3785 -0.1247
50423SOL    HW157232  11.828   8.553   9.861  0.0648  0.9900  0.0868
50423SOL    HW257233  11.725   8.609   9.766 -0.6250 -2.0973 -1.1236
50424SOL     OW57234  12.436  12.252   9.323  0.5431 -0.1615  0.6843
50424SOL    HW157235  12.506  12.193   9.297  0.2478  0.1846 -1.0235
50424SOL    HW257236  12.359  12.196   9.331  0.0772  0.0149 -1.7297
50425SOL     OW57237   6.953   4.377   9.939  0.3968  0.1541 -0.1628
50425SOL    HW157238   6.895   4.344  10.007 -1.6338  1.8469 -0.9693
50425SOL    HW257239   7.041   4.366   9.975 -0.5377 -0.2656  2.1542
50426SOL     OW57240   3.852   9.228   7.590 -0.3758 -0.0130  0.2981
50426SOL    HW157241   3.836   9.317   7.559  0.3567 -0.3548 -1.1614
50426SOL    HW257242   3.943   9.228   7.618 -0.1993 -0.4359 -0.2557
50427SOL     OW57243   5.592   1.163   2.922  0.5595  0.0747 -0.6876
50427SOL    HW157244   5.580   1.081   2.969 -0.0740 -0.0699 -1.0858
50427SOL    HW257245   5.506   1.205   2.923  0.6421  0.2760 -1.3289
50428SOL     OW57246   6.687   9.802  10.280 -0.3872 -0.4389 -0.7197
50428SOL    HW157247   6.644   9.845  10.354  2.9535  1.9808  0.0564
50428SOL    HW257248   6.742   9.735  10.320  2.6249  1.8847 -0.5902
50429SOL     OW57249  10.926   2.638  10.315  0.3235 -0.2875 -1.1606
50429SOL    HW157250  10.916   2.693  10.237  2.2209 -1.7896 -2.5383
50429SOL    HW257251  10.989   2.684  10.369  1.8570 -1.0072 -2.2796
50430SOL     OW57252   1.085   0.939   6.334  0.0617 -0.4017  0.0175
50430SOL    HW157253   1.035   1.002   6.386 -0.9181 -0.2641 -1.0551
50430SOL    HW257254   1.052   0.853   6.360  0.7194 -0.4406  0.7758
50431SOL     OW57255   5.229   0.816   3.616  0.0306 -0.3968 -0.4229
50431SOL    HW157256   5.293   0.885   3.597  1.1292 -1.8015 -2.1566
50431SOL    HW257257   5.156   0.862   3.658  1.0313  1.6940 -0.8341
50432SOL     OW57258   1.049   6.170   5.555  0.5951 -0.5350 -0.4493
50432SOL    HW157259   1.028   6.227   5.481  1.6111 -1.8094 -1.8118
50432SOL    HW257260   1.091   6.093   5.514  0.1070 -1.8359  1.3543
50433SOL     OW57261   1.261   8.788   2.654 -0.0697 -0.2788  0.2377
50433SOL    HW157262   1.184   8.734   2.670 -1.5259  1.2864 -1.0983
50433SOL    HW257263   1.245   8.829   2.569  1.7697  0.9111  0.3925
50434SOL     OW57264   1.751  11.548   4.679 -0.7813  0.3039 -0.1466
50434SOL    HW157265   1.668  11.595   4.689 -1.0956 -0.0209 -1.1416
50434SOL    HW257266   1.725  11.460   4.652 -0.0863  0.5184 -1.5824
50435SOL     OW57267   8.986  12.354   4.646 -0.0330 -0.0937 -0.1849
50435SOL    HW157268   9.000  12.444   4.673  2.1629 -0.5887  0.4731
50435SOL    HW257269   8.924  12.319   4.710  0.0088  0.6019  0.2463
50436SOL     OW57270   7.935   1.914   8.255  0.2347 -0.6537  0.2036
50436SOL    HW157271   7.991   1.839   8.238  1.5907  0.7352 -1.9164
50436SOL    HW257272   7.852   1.876   8.284  1.7244 -2.8240  2.0268
50437SOL     OW57273   4.939   7.591   0.647  0.4269  0.1862 -0.1293
50437SOL    HW157274   4.972   7.508   0.613 -0.3522  0.6341 -2.0934
50437SOL    HW257275   4.976   7.597   0.735  1.3412 -1.7381 -0.3347
50438SOL     OW57276   9.961   7.540  12.260 -0.0920 -0.2645  0.1317
50438SOL    HW157277   9.988   7.580  12.343  1.8325 -0.7888 -0.2064
50438SOL    HW257278   9.926   7.612  12.208  1.5511  0.6631  0.2503
50439SOL     OW57279   6.046   5.501   7.325  0.1908 -0.0119  0.2953
50439SOL    HW157280   5.976   5.456   7.277  0.0685 -1.4275  1.7335
50439SOL    HW257281   6.125   5.451   7.306  0.7692  1.2847 -0.9107
50440SOL     OW57282   3.137  10.165   2.226 -0.3222  0.6232  0.3992
50440SOL    HW157283   3.042  10.155   2.214  0.0377 -0.9993 -1.7593
50440SOL    HW257284   3.155  10.254   2.195 -1.0762  0.7629  0.3341
50441SOL     OW57285   8.476   0.299   3.874  0.5833  1.0251  0.4794
50441SOL    HW157286   8.563   0.261   3.881  0.0929 -0.0914  0.6779
50441SOL    HW257287   8.419   0.226   3.852 -0.3422  1.7030  0.5479
50442SOL     OW57288  10.418   3.779   5.936  0.0921  0.3287 -0.2489
50442SOL    HW157289  10.407   3.842   5.865 -0.6957  0.0549 -0.3761
50442SOL    HW257290  10.368   3.703   5.910  0.7614 -0.2366  0.0646
50443SOL     OW57291  11.194   5.952   1.502 -0.3206 -0.7685 -0.2297
50443SOL    HW157292  11.251   5.964   1.577 -1.7696 -0.0756  0.8117
50443SOL    HW257293  11.253   5.934   1.429  1.1584 -0.7616  0.9255
50444SOL     OW57294   9.668  10.521  10.711 -0.3336  0.1711  0.0447
50444SOL    HW157295   9.585  10.475  10.726 -1.3988  1.4016 -1.7302
50444SOL    HW257296   9.702  10.536  10.799 -1.7258 -0.8336  0.8103
50445SOL     OW57297   4.614   4.133   1.422  0.4275  0.1793  0.0834
50445SOL    HW157298   4.648   4.154   1.335 -1.8310  1.8353 -0.4689
50445SOL    HW257299   4.552   4.061   1.406 -2.5503  2.6431 -0.3597
50446SOL     OW57300   4.753   6.884  10.239 -0.0951 -0.1739  0.8308
50446SOL    HW157301   4.719   6.831  10.167  1.4841  0.1636 -0.2065
50446SOL    HW257302   4.838   6.846  10.259  0.2138  0.7700  1.3826
50447SOL     OW57303   8.698   1.031   3.413  0.0862  0.0597 -0.5328
50447SOL    HW157304   8.658   0.971   3.351 -2.1977  1.1717 -0.2565
50447SOL    HW257305   8.684   0.991   3.498  1.6203 -0.6148 -0.5828
50448SOL     OW57306   6.938   0.921   5.294 -0.2911  1.0676  0.5491
50448SOL    HW157307   7.007   0.855   5.291  0.1549  1.5534  0.0408
50448SOL    HW257308   6.973   0.995   5.245 -0.9506  1.5312  0.7689
50449SOL     OW57309   5.094  12.230   2.999 -0.0467  0.1701  0.0702
50449SOL    HW157310   5.149  12.168   3.047  0.3954  0.9506  0.5880
50449SOL    HW257311   5.155  12.279   2.944 -0.2588  0.7821  0.3662
50450SOL     OW57312   7.031   3.547   2.111 -0.1593 -0.1403 -0.3454
50450SOL    HW157313   7.086   3.527   2.035  0.2072  2.2825 -0.7954
50450SOL    HW257314   7.056   3.483   2.177  1.9414 -0.2010 -1.1496
50451SOL     OW57315   3.665  11.392  10.705 -0.1091  0.4189 -0.0776
50451SOL    HW157316   3.625  11.330  10.765  0.2129 -0.6942 -0.9834
50451SOL    HW257317   3.730  11.438  10.758  0.2082 -0.5778  0.4134
50452SOL     OW57318   3.078   1.515   1.852 -0.2215  0.3275  0.5415
50452SOL    HW157319   3.159   1.472   1.827  1.6259  2.9237  1.6283
50452SOL    HW257320   3.092   1.542   1.943 -1.0759  3.3604 -0.1240
50453SOL     OW57321  12.264   2.863   9.524  0.1657 -0.6841  0.2734
50453SOL    HW157322  12.185   2.820   9.557  0.2498 -0.4957  0.7234
50453SOL    HW257323  12.335   2.802   9.545  0.0222 -1.3676 -1.1050
50454SOL     OW57324  11.241   5.811   3.114 -0.1487  0.3246  0.6057
50454SOL    HW157325  11.335   5.813   3.099 -0.2491  1.7940 -0.0406
50454SOL    HW257326  11.224   5.726   3.155  0.8118 -2.0659 -3.4197
50455SOL     OW57327   3.266   2.052   5.965 -0.0500  0.0020 -0.0636
50455SOL    HW157328   3.296   2.092   5.884  0.0377 -0.6308 -0.3465
50455SOL    HW257329   3.265   1.958   5.947 -1.2450 -0.0683  0.2623
50456SOL     OW57330   4.318   6.160   1.130  0.2693 -0.1330 -0.4457
50456SOL    HW157331   4.283   6.117   1.208  0.1466  1.7644  0.5973
50456SOL    HW257332   4.241   6.179   1.077 -0.2032  2.3108  0.9632
50457SOL     OW57333   0.234  11.708   8.470 -0.2814  0.1169 -1.3350
50457SOL    HW157334   0.283  11.685   8.550 -1.6030 -0.6931 -0.7264
50457SOL    HW257335   0.295  11.688   8.399  0.0216 -1.6225 -0.6410
50458SOL     OW57336   9.284   2.852  11.631  0.1915  0.8755 -0.5531
50458SOL    HW157337   9.223   2.786  11.664  0.9818 -0.3573 -1.4687
50458SOL    HW257338   9.228   2.914  11.583 -0.2948 -0.9647 -2.5501
50459SOL     OW57339   9.393   0.589   3.027 -0.3612 -0.0473  1.3692
50459SOL    HW157340   9.326   0.534   3.068 -0.4933  0.8702  2.4264
50459SOL    HW257341   9.476   0.553   3.057 -0.1365 -2.7588 -1.8778
50460SOL     OW57342   4.311   4.385  10.868  0.2769 -0.5462  0.4333
50460SOL    HW157343   4.370   4.310  10.878  0.9974  0.1451  1.6960
50460SOL    HW257344   4.358   4.458  10.908 -0.2003  0.7194 -1.1978
50461SOL     OW57345  11.800   5.355   5.173 -0.4416  0.3857  0.2521
50461SOL    HW157346  11.793   5.393   5.085 -1.0014  0.7609  0.4580
50461SOL    HW257347  11.806   5.430   5.231  0.8023  0.1373  0.4809
50462SOL     OW57348   5.630   4.795   6.893 -0.1200  0.4540 -0.0385
50462SOL    HW157349   5.620   4.793   6.988 -3.2112 -0.2053 -0.2795
50462SOL    HW257350   5.547   4.762   6.859  1.1389 -0.0313 -2.9906
50463SOL     OW57351  10.233   2.722  11.089 -0.1080  0.5520 -0.5344
50463SOL    HW157352  10.165   2.665  11.053 -0.2150  0.6455 -0.4800
50463SOL    HW257353  10.313   2.669  11.084 -0.4619 -0.1651  0.8642
50464SOL     OW57354  11.143   6.608   0.151 -0.6900  0.0281  0.2860
50464SOL    HW157355  11.099   6.523   0.156  0.3975 -0.5178  1.0116
50464SOL    HW257356  11.237   6.587   0.149 -0.3957  1.2158  0.6487
50465SOL     OW57357   8.459   5.221   4.642  0.5703  0.6064 -0.3138
50465SOL    HW157358   8.414   5.288   4.591 -0.5704 -0.2716 -0.5107
50465SOL    HW257359   8.390   5.160   4.669  1.3543  0.2699  1.0716
50466SOL     OW57360   1.527   0.150   6.694  0.2193  0.1039 -0.6788
50466SOL    HW157361   1.575   0.068   6.703  1.8504  1.0698 -0.0315
50466SOL    HW257362   1.591   0.211   6.656 -1.4572  0.6496 -2.9025
50467SOL     OW57363   9.028   7.840   7.907  0.2732 -0.3419  0.2891
50467SOL    HW157364   8.996   7.887   7.830  0.7595 -0.1451  0.2039
50467SOL    HW257365   9.120   7.866   7.915  0.4347 -0.9430  0.4941
50468SOL     OW57366   7.165   2.162   6.608  0.0690 -0.1070  0.2459
50468SOL    HW157367   7.133   2.105   6.678 -0.9964  0.9534  0.6718
50468SOL    HW257368   7.087   2.209   6.579  0.9778  1.4916  0.2609
50469SOL     OW57369   9.287   4.664   9.940  0.7661 -0.4514  0.4463
50469SOL    HW157370   9.284   4.744   9.993  2.4241 -1.0797  1.5446
50469SOL    HW257371   9.196   4.650   9.915  0.3416  1.4557  0.7071
50470SOL     OW57372   3.707   8.493   8.948  0.0438  0.6934 -0.3012
50470SOL    HW157373   3.731   8.567   8.892  1.0022 -0.8414 -2.0318
50470SOL    HW257374   3.705   8.530   9.036  0.0808  2.8634 -1.1330
50471SOL     OW57375   6.875   5.608  11.779 -0.7337  0.0619 -0.1790
50471SOL    HW157376   6.807   5.547  11.750 -1.3786  1.0696 -0.8684
50471SOL    HW257377   6.842   5.694  11.753  0.9232  0.5581 -0.7856
50472SOL     OW57378   7.947   4.090   5.266 -0.7311  0.2961 -0.3275
50472SOL    HW157379   8.010   4.057   5.330 -0.8191  0.5945 -0.0812
50472SOL    HW257380   7.913   4.171   5.305  1.0367  1.8607 -1.8224
50473SOL     OW57381   9.768   3.157  10.052 -0.2774  0.7835  0.0996
50473SOL    HW157382   9.805   3.086  10.105 -1.6958  1.2964  1.9061
50473SOL    HW257383   9.682   3.124  10.024  0.4409  0.5340 -1.9454
50474SOL     OW57384   9.005  11.524   4.860  0.4314  0.1160  0.2750
50474SOL    HW157385   9.050  11.461   4.917  0.2775 -0.3461 -0.1101
50474SOL    HW257386   9.065  11.537   4.786 -0.1478 -0.6720 -0.3536
50475SOL     OW57387   6.022  12.388  11.967  0.0540 -0.0671 -0.4490
50475SOL    HW157388   5.945  12.333  11.951 -0.7447  0.6083  0.9303
50475SOL    HW257389   5.996  12.445  12.040  1.9354  0.0503  0.1620
50476SOL     OW57390  12.085   2.683  10.158 -0.2313 -0.0444 -0.2436
50476SOL    HW157391  12.102   2.771  10.124 -0.7995 -0.1726 -0.8706
50476SOL    HW257392  12.038   2.638  10.087  1.2290 -1.2959 -0.5001
50477SOL     OW57393   5.570   2.588   2.055 -0.1325  0.3870  0.0199
50477SOL    HW157394   5.627   2.521   2.092  0.0627  0.0946 -0.7726
50477SOL    HW257395   5.484   2.572   2.093  0.3657  1.0487  1.5106
50478SOL     OW57396   2.658  12.441   9.352  0.2448 -0.0689  0.1595
50478SOL    HW157397   2.573  12.475   9.380  0.0971 -0.5970  0.3671
50478SOL    HW257398   2.674  12.366   9.409  0.3735 -0.5970 -0.5567
50479SOL     OW57399   9.743   5.688   3.606 -0.7203 -0.3241 -0.5410
50479SOL    HW157400   9.707   5.617   3.554 -0.9876 -1.1153  0.6645
50479SOL    HW257401   9.803   5.645   3.667 -1.2646  0.4110  0.5514
50480SOL     OW57402  12.313   6.363   8.074 -0.1419 -0.8470 -0.4102
50480SOL    HW157403  12.398   6.323   8.094  0.6800  0.5264 -0.9821
50480SOL    HW257404  12.318   6.385   7.981  0.3870  2.5575  0.2925
50481SOL     OW57405   6.505  12.102   0.280  0.2377 -0.0897  0.3373
50481SOL    HW157406   6.441  12.115   0.210 -0.2626 -2.5146  0.2522
50481SOL    HW257407   6.515  12.007   0.286  0.6219  0.0395  3.2400
50482SOL     OW57408  10.715  10.262   4.129  0.8870 -0.2702  0.6125
50482SOL    HW157409  10.693  10.296   4.216 -1.1940 -0.4334  0.2103
50482SOL    HW257410  10.715  10.167   4.140 -1.4889 -0.4089  0.0826
50483SOL     OW57411   0.377   7.213   2.072 -0.1620 -0.4421 -0.2649
50483SOL    HW157412   0.327   7.281   2.026 -1.2602 -1.2128 -0.2554
50483SOL    HW257413   0.437   7.179   2.006 -0.3537 -0.1898 -0.5745
50484SOL     OW57414   8.871   1.215   7.302  0.2321  0.0757  0.1897
50484SOL    HW157415   8.785   1.223   7.261 -0.3038  1.5788  1.5170
50484SOL    HW257416   8.872   1.127   7.339 -0.2490 -0.3781 -0.8248
50485SOL     OW57417   5.093  10.957   7.895  0.1185  0.3202 -0.2342
50485SOL    HW157418   5.144  11.026   7.854  1.0974 -0.7021 -0.7993
50485SOL    HW257419   5.059  10.997   7.976  0.6495  1.4427 -0.5476
50486SOL     OW57420  10.866   7.135   4.284 -0.4971 -0.4383 -0.1954
50486SOL    HW157421  10.808   7.210   4.299  1.2394  0.5911  1.8738
50486SOL    HW257422  10.842   7.072   4.352  1.2999  0.3854  1.3021
50487SOL     OW57423   9.623   0.557   1.544 -0.0902 -0.0047 -0.1241
50487SOL    HW157424   9.551   0.501   1.514 -0.1537 -0.8576  1.4841
50487SOL    HW257425   9.702   0.508   1.521 -0.1434 -0.7639  1.1718
50488SOL     OW57426  11.442   2.980   4.025 -0.4260  0.2212  0.3578
50488SOL    HW157427  11.409   3.065   4.053  0.9888 -0.0553  3.3624
50488SOL    HW257428  11.495   2.999   3.948 -0.7570  1.9374  0.5081
50489SOL     OW57429   9.507   1.458  11.889  0.5957 -0.2590 -0.2338
50489SOL    HW157430   9.594   1.433  11.858  0.9106  1.9919 -1.4295
50489SOL    HW257431   9.469   1.507  11.816 -0.4470  1.4108  1.3337
50490SOL     OW57432  10.586  10.088   8.003 -0.5215 -0.3484  0.3007
50490SOL    HW157433  10.600   9.993   8.001 -1.2306 -0.4505  0.0061
50490SOL    HW257434  10.560  10.106   8.093 -0.1280 -0.3913  0.4259
50491SOL     OW57435   5.011   3.141   1.060 -0.0888  0.4782  0.1466
50491SOL    HW157436   5.081   3.160   1.121  0.8765 -0.8503 -0.4792
50491SOL    HW257437   5.036   3.186   0.979  0.8154 -1.0917 -0.5035
50492SOL     OW57438   1.931   2.301   4.546  0.4080  0.3911 -0.4947
50492SOL    HW157439   1.880   2.223   4.524  0.3264  0.1684  0.4435
50492SOL    HW257440   1.891   2.335   4.626  1.7045  0.2089  0.2629
50493SOL     OW57441   1.992   7.467   5.282 -0.1623  0.9950 -0.9096
50493SOL    HW157442   2.078   7.493   5.317 -1.0377  2.5012  0.2728
50493SOL    HW257443   1.959   7.404   5.346  0.0895  0.3544 -1.4083
50494SOL     OW57444   6.433   1.808   9.401  0.7894  0.0049 -0.4644
50494SOL    HW157445   6.413   1.897   9.370  0.4510  0.1031  0.0238
50494SOL    HW257446   6.480   1.822   9.483 -1.5875 -0.2529  1.0486
50495SOL     OW57447   8.662   4.735   4.505  0.3666  0.5830  0.1136
50495SOL    HW157448   8.737   4.690   4.466  2.0960  2.4021  1.1861
50495SOL    HW257449   8.663   4.708   4.597 -1.0312 -0.2645 -0.0913
50496SOL     OW57450   5.715   3.599   8.238 -0.5802 -0.5148 -0.2391
50496SOL    HW157451   5.662   3.548   8.177  1.6498 -2.2425 -0.8377
50496SOL    HW257452   5.692   3.563   8.324 -1.4280 -0.2227 -0.3291
50497SOL     OW57453   7.523   5.057   1.093  0.2697  0.2586  0.2946
50497SOL    HW157454   7.580   5.078   1.019 -1.0464  0.6772 -0.6361
50497SOL    HW257455   7.506   5.142   1.135  0.0074  0.1879  0.3322
50498SOL     OW57456  11.318  11.279   4.192  0.4002  0.1323 -0.2290
50498SOL    HW157457  11.323  11.198   4.140  0.9034 -1.1376  1.6960
50498SOL    HW257458  11.257  11.257   4.263  0.6199  1.4324  0.3811
50499SOL     OW57459   3.068   1.890   6.201 -0.8674  0.1379  0.2414
50499SOL    HW157460   3.050   1.969   6.149 -3.0626  0.8914  1.9569
50499SOL    HW257461   3.007   1.825   6.167 -0.0588 -0.3942 -0.2166
50500SOL     OW57462   2.617   0.761   6.708 -0.3117  0.0644  0.2645
50500SOL    HW157463   2.569   0.738   6.788 -0.8067  0.3228  0.0478
50500SOL    HW257464   2.709   0.757   6.734 -0.4737  0.4714  0.9357
50501SOL     OW57465   6.272   1.837   3.758  0.1229  0.2757  0.2167
50501SOL    HW157466   6.208   1.770   3.735  0.5538  0.5763 -2.0649
50501SOL    HW257467   6.344   1.788   3.799 -0.5230 -0.3392  0.6486
50502SOL     OW57468   3.060   8.667   9.566  0.5034 -0.1849 -0.0483
50502SOL    HW157469   3.059   8.762   9.556  1.9676 -0.1230  0.2057
50502SOL    HW257470   3.032   8.634   9.480 -0.4599  0.4652  0.0003
50503SOL     OW57471   2.849   1.461   5.192  0.0872 -0.0683 -0.2497
50503SOL    HW157472   2.896   1.540   5.218  0.2378 -0.4422  0.6435
50503SOL    HW257473   2.775   1.493   5.141  0.9269  0.5624 -1.1130
50504SOL     OW57474   8.447   2.178   8.882  0.9877  0.0052 -0.5709
50504SOL    HW157475   8.515   2.110   8.884  1.4494  0.4679  0.7173
50504SOL    HW257476   8.371   2.136   8.923  0.6167 -0.3757 -1.6268
50505SOL     OW57477  12.331   4.823   6.017 -0.4449  0.0002 -0.1263
50505SOL    HW157478  12.362   4.914   6.018  0.5584 -0.3316  0.1771
50505SOL    HW257479  12.240   4.829   5.988  0.3093  0.8896 -2.5103
50506SOL     OW57480  11.317   9.121   0.785  0.1648 -0.0240  0.4599
50506SOL    HW157481  11.328   9.088   0.696 -0.1082  2.3498 -0.5375
50506SOL    HW257482  11.222   9.124   0.797  0.1882  0.2296  0.5865
50507SOL     OW57483   0.831   0.162   3.009  0.1360 -0.5652  0.0463
50507SOL    HW157484   0.781   0.233   3.049  0.2248 -0.9260  0.8295
50507SOL    HW257485   0.913   0.204   2.982 -0.4421 -0.0413 -0.9540
50508SOL     OW57486  11.765   2.626   8.590  0.2020 -0.4243  0.6412
50508SOL    HW157487  11.811   2.564   8.647  3.4952  0.6662 -0.5844
50508SOL    HW257488  11.784   2.595   8.501 -2.8248 -0.7323  0.0131
50509SOL     OW57489  11.776   7.573   5.188 -0.1496  1.0652  0.6878
50509SOL    HW157490  11.848   7.510   5.195 -0.2284  0.7979 -0.6626
50509SOL    HW257491  11.810   7.641   5.129 -0.4114  1.7973  1.3768
50510SOL     OW57492   1.937   8.794   1.315  0.3540 -0.0889 -0.1767
50510SOL    HW157493   1.989   8.766   1.239  0.4640 -0.9454  0.2042
50510SOL    HW257494   1.858   8.741   1.312 -0.0079  0.4334 -0.1290
50511SOL     OW57495  10.373  11.238   1.762 -0.2314  0.1496 -0.0652
50511SOL    HW157496  10.451  11.292   1.772 -1.0657  2.3106 -3.5005
50511SOL    HW257497  10.401  11.165   1.705 -0.5830  0.7250 -0.9950
50512SOL     OW57498   8.075   6.226   6.545 -0.0560 -0.6064  0.4367
50512SOL    HW157499   8.058   6.152   6.488 -1.7423  0.2633 -0.2612
50512SOL    HW257500   7.988   6.258   6.570  0.6147  1.0051  0.8786
50513SOL     OW57501   0.853   7.207   2.387  0.0040 -0.0518  0.6980
50513SOL    HW157502   0.939   7.214   2.428  0.4323 -0.4305 -0.1070
50513SOL    HW257503   0.821   7.297   2.380 -0.4947 -0.0250  2.6795
50514SOL     OW57504  11.550  11.951   7.299 -0.0741  0.0014 -0.7237
50514SOL    HW157505  11.481  11.930   7.237  0.1854 -0.3113 -0.9073
50514SOL    HW257506  11.568  11.869   7.345 -0.9910  0.4656  0.5036
50515SOL     OW57507   3.975   2.625   0.654  0.0718  0.3668  0.1544
50515SOL    HW157508   3.970   2.629   0.750 -2.4361 -0.8477  0.1624
50515SOL    HW257509   3.890   2.589   0.627  0.1623  1.9363 -2.6265
50516SOL     OW57510   5.798   0.054   0.714  0.1838 -0.3798  0.2606
50516SOL    HW157511   5.737   0.023   0.781  0.6601 -1.0910  0.3757
50516SOL    HW257512   5.815  -0.023   0.659  0.4353 -0.0115 -0.1846
50517SOL     OW57513   3.404  12.337  10.933 -0.6812  0.1921  0.6850
50517SOL    HW157514   3.320  12.301  10.962 -1.0116  0.1780 -0.2578
50517SOL    HW257515   3.383  12.389  10.856  0.0217  1.1335  1.1019
50518SOL     OW57516   0.808   3.007   9.189 -0.0506  0.2470 -0.0890
50518SOL    HW157517   0.825   3.088   9.238  0.0187  0.3182 -0.2278
50518SOL    HW257518   0.865   2.942   9.229  0.1396  0.3493 -0.1892
50519SOL     OW57519   1.525  11.062  11.985 -0.4811 -0.5630  0.1719
50519SOL    HW157520   1.505  10.990  11.925 -2.3927  0.1130 -0.0495
50519SOL    HW257521   1.497  11.030  12.071  0.6841 -0.8765  0.4571
50520SOL     OW57522   2.269   6.943   2.699  0.1070  0.1966  0.1411
50520SOL    HW157523   2.230   6.997   2.768  0.8123  1.5119 -0.4566
50520SOL    HW257524   2.292   7.005   2.630 -0.1446 -1.0314 -1.0854
50521SOL     OW57525   9.755   2.891   2.905 -0.5844  0.7713  0.0344
50521SOL    HW157526   9.730   2.978   2.875 -1.2279  0.6811  0.2936
50521SOL    HW257527   9.788   2.904   2.993 -0.0039  0.8478 -0.1924
50522SOL     OW57528  10.949   1.297   9.688  0.0378 -0.1593  0.0980
50522SOL    HW157529  11.034   1.269   9.653 -0.1521 -1.3549  0.5574
50522SOL    HW257530  10.969   1.325   9.778  0.2585  1.4143 -0.4183
50523SOL     OW57531   0.918   7.037   4.566 -0.5753 -0.0434 -0.0123
50523SOL    HW157532   0.995   7.062   4.617 -1.5304 -0.1143  1.5434
50523SOL    HW257533   0.897   6.948   4.597 -2.7741  0.9287  1.5551
50524SOL     OW57534   1.159   0.688  10.083  0.0632 -0.0200 -0.5939
50524SOL    HW157535   1.147   0.777  10.051 -1.1468  0.0290 -0.0337
50524SOL    HW257536   1.174   0.698  10.177  0.9597 -0.3545 -0.6841
50525SOL     OW57537   5.300   4.154  10.656 -0.3268  0.0133 -0.6880
50525SOL    HW157538   5.237   4.118  10.718 -1.0629  1.1182 -0.7544
50525SOL    HW257539   5.348   4.221  10.706  1.9918 -1.9168 -0.1635
50526SOL     OW57540   0.825   3.987   8.137 -0.0902 -0.1681  0.2478
50526SOL    HW157541   0.788   3.930   8.204 -0.8097 -0.9940 -0.7951
50526SOL    HW257542   0.917   3.964   8.134 -0.0501 -0.1197  0.9407
50527SOL     OW57543  11.393   2.873  10.445 -0.0259  0.1661  0.1736
50527SOL    HW157544  11.462   2.859  10.510 -0.5620  0.6259  0.8540
50527SOL    HW257545  11.354   2.957  10.470 -2.0918 -0.9592  0.9577
50528SOL     OW57546   1.134   0.146   4.900 -0.0364 -0.3582  0.7643
50528SOL    HW157547   1.076   0.079   4.936 -1.5837  0.7159  0.3192
50528SOL    HW257548   1.131   0.133   4.806  0.7188 -0.4971  0.7508
50529SOL     OW57549   7.057   4.211   6.152  0.0873  0.4588  0.2892
50529SOL    HW157550   7.041   4.118   6.170 -2.8511  0.5704 -1.2476
50529SOL    HW257551   7.033   4.255   6.233 -1.0785  0.0530  0.1799
50530SOL     OW57552   0.068   0.652   1.030 -0.4654 -0.4684 -0.2897
50530SOL    HW157553   0.004   0.618   1.092  0.8849  1.7421  2.5161
50530SOL    HW257554   0.016   0.701   0.966 -1.6681  0.6704  1.4926
50531SOL     OW57555  12.331   7.795   6.267 -0.0945 -0.3471 -0.4960
50531SOL    HW157556  12.265   7.800   6.198  0.4400 -0.6641 -1.0489
50531SOL    HW257557  12.339   7.702   6.285 -0.9821 -0.2019  0.7581
50532SOL     OW57558   0.407  11.463  10.538 -0.4494 -0.0749  0.0008
50532SOL    HW157559   0.449  11.408  10.604  0.1531 -0.6293 -0.8196
50532SOL    HW257560   0.421  11.553  10.568  2.2177 -0.1758 -0.7038
50533SOL     OW57561   4.645   0.954  11.044 -0.2270  0.3974 -0.5394
50533SOL    HW157562   4.653   1.023  11.110 -1.8142  0.6610 -0.5785
50533SOL    HW257563   4.731   0.950  11.002  0.6035  0.6840  1.0784
50534SOL     OW57564   9.299   8.537   2.120 -0.6101  0.3726  0.1834
50534SOL    HW157565   9.325   8.625   2.094  1.4857 -0.3580 -0.3803
50534SOL    HW257566   9.276   8.545   2.213  0.0542  1.4149  0.2678
50535SOL     OW57567   4.922   9.230   4.447  0.0610 -0.2472  0.1637
50535SOL    HW157568   4.848   9.234   4.508  0.3377  0.9049  0.4577
50535SOL    HW257569   4.922   9.141   4.414 -1.0979 -0.4241  0.6134
50536SOL     OW57570   9.882   0.282   7.757 -0.4016 -0.4277 -0.2358
50536SOL    HW157571   9.969   0.269   7.719 -0.0734 -0.2334  0.4375
50536SOL    HW257572   9.824   0.284   7.681  0.3245  0.6339 -0.7939
50537SOL     OW57573  10.612   2.788   6.499 -0.1568 -0.1504 -0.8024
50537SOL    HW157574  10.661   2.867   6.476  2.1782 -1.5730 -1.0465
50537SOL    HW257575  10.606   2.738   6.418 -0.0879 -1.0002 -0.3039
50538SOL     OW57576   5.048   5.338   5.751 -0.1111 -0.2046 -0.2998
50538SOL    HW157577   5.135   5.305   5.774 -0.7093 -0.4388  1.8633
50538SOL    HW257578   4.988   5.275   5.790 -1.3324 -1.1269 -3.4066
50539SOL     OW57579  10.858  10.697   9.587 -0.3278  0.1547 -0.8679
50539SOL    HW157580  10.859  10.612   9.631  1.8188 -0.1435 -1.3922
50539SOL    HW257581  10.765  10.720   9.583 -0.7653 -0.7373  1.9264
50540SOL     OW57582   4.016   7.847   1.796 -0.0295  0.0720  0.0610
50540SOL    HW157583   3.989   7.936   1.817  1.9017  0.3617  1.5843
50540SOL    HW257584   4.112   7.849   1.801  0.0717 -2.0196 -0.2026
50541SOL     OW57585  10.622   8.444   3.931 -0.5462  0.3008 -0.3649
50541SOL    HW157586  10.545   8.424   3.878 -0.8549  1.4133 -0.3550
50541SOL    HW257587  10.694   8.403   3.883 -0.9511  0.4432 -1.1215
50542SOL     OW57588   6.562   5.589   3.202  0.1184 -0.7060 -0.3595
50542SOL    HW157589   6.619   5.640   3.259  1.6432 -0.4665 -1.9994
50542SOL    HW257590   6.478   5.636   3.203  0.8277  0.6068 -0.1331
50543SOL     OW57591   9.164   9.130   4.205  0.0343 -0.0308 -0.0988
50543SOL    HW157592   9.090   9.190   4.211 -0.5530 -0.8653  2.5858
50543SOL    HW257593   9.238   9.184   4.177 -0.8501  1.5632  0.5639
50544SOL     OW57594   9.044   4.966   2.746 -0.3904  0.5737  0.6911
50544SOL    HW157595   9.103   4.895   2.720 -2.3792 -1.0400  0.3932
50544SOL    HW257596   9.091   5.046   2.720  1.7700 -0.5897  0.7369
50545SOL     OW57597   9.177   4.905   1.597 -0.2127  0.5932  0.9298
50545SOL    HW157598   9.243   4.957   1.644 -0.1499  2.5913 -1.2051
50545SOL    HW257599   9.209   4.902   1.507 -0.7793 -2.3548  0.7476
50546SOL     OW57600   9.877   4.576   2.151  0.0664 -0.4564 -0.3189
50546SOL    HW157601   9.825   4.557   2.229 -0.0133 -0.0448 -0.2700
50546SOL    HW257602   9.958   4.613   2.185  0.0701 -0.3660 -0.4271
50547SOL     OW57603   2.462   3.396  10.083  0.0012  0.6328 -0.2337
50547SOL    HW157604   2.378   3.404  10.037  1.4404  1.8664 -2.8817
50547SOL    HW257605   2.527   3.424  10.019  2.5015 -0.4904  1.6400
50548SOL     OW57606   5.772   2.525  11.144  0.3579 -0.0544  0.5860
50548SOL    HW157607   5.739   2.442  11.178 -2.4798  1.6964  2.5401
50548SOL    HW257608   5.727   2.536  11.060 -1.0795  0.4734  1.3852
50549SOL     OW57609   4.322   1.437   1.701 -0.0332 -0.1373  0.3273
50549SOL    HW157610   4.228   1.419   1.707 -0.3629  1.7499  1.7835
50549SOL    HW257611   4.328   1.512   1.641  0.5426 -0.1498  0.3632
50550SOL     OW57612   5.985  11.040  12.342  0.0036  0.1709 -0.0591
50550SOL    HW157613   5.964  11.124  12.383  1.1733  0.0502  0.8385
50550SOL    HW257614   6.002  10.981  12.416 -0.8362 -0.8807 -0.6712
50551SOL     OW57615   0.050  10.918   0.898 -0.3093 -0.8026 -0.1116
50551SOL    HW157616   0.006  10.865   0.831 -1.3152  1.0169 -0.9708
50551SOL    HW257617  -0.021  10.970   0.937  0.7853  0.6910 -0.0600
50552SOL     OW57618   9.599   6.309   7.945 -0.0312  0.3442 -0.4239
50552SOL    HW157619   9.661   6.252   7.991  0.1652  0.8416 -0.0556
50552SOL    HW257620   9.522   6.312   8.002 -0.1694  0.1880 -0.6014
50553SOL     OW57621  12.378   9.115  11.165 -0.3354  0.1243 -0.5239
50553SOL    HW157622  12.284   9.129  11.172 -0.0501  1.3111  2.1430
50553SOL    HW257623  12.413   9.197  11.130 -0.1612  0.3230  0.0936
50554SOL     OW57624   4.880   4.014   6.941  0.0004  0.4167 -0.0682
50554SOL    HW157625   4.937   4.046   7.010  0.9045  0.0731 -0.6435
50554SOL    HW257626   4.807   3.972   6.987  2.0491 -2.5253  0.7570
50555SOL     OW57627   2.337   2.506   9.718 -0.4380 -0.2394  0.7563
50555SOL    HW157628   2.356   2.443   9.647 -1.2684 -0.6107  0.8555
50555SOL    HW257629   2.398   2.481   9.788  0.1450 -0.0953  0.3129
50556SOL     OW57630   7.047   0.998   7.061 -0.2163  0.4073  0.0938
50556SOL    HW157631   6.958   1.019   7.031  0.1423  0.5339 -0.9319
50556SOL    HW257632   7.097   0.988   6.980  0.2073 -1.9558  0.5788
50557SOL     OW57633   0.793   5.513   4.925 -0.2092 -0.0947  0.7915
50557SOL    HW157634   0.737   5.463   4.984  1.7718 -0.5821  2.3654
50557SOL    HW257635   0.818   5.451   4.857 -0.3578 -0.3176  0.9378
50558SOL     OW57636   6.562   4.642   7.599  0.1542  0.3243  0.0401
50558SOL    HW157637   6.587   4.735   7.597 -1.9401  0.9804  1.1178
50558SOL    HW257638   6.513   4.629   7.518  0.3455  0.1813 -0.0530
50559SOL     OW57639  11.981   1.141   1.031  0.4172 -0.0414  0.5231
50559SOL    HW157640  12.026   1.196   0.966  0.5085 -1.3271 -0.5636
50559SOL    HW257641  12.016   1.053   1.015 -0.9871 -0.7180  1.0196
50560SOL     OW57642   8.081   3.290   0.758  0.2539 -0.1241 -0.5827
50560SOL    HW157643   8.156   3.333   0.799 -0.8598  1.2957  0.0371
50560SOL    HW257644   8.082   3.201   0.792  0.4811  0.4683  1.0170
50561SOL     OW57645   5.560   9.976   7.051  0.3857 -0.2129  0.0686
50561SOL    HW157646   5.490  10.041   7.061 -0.2071 -0.8781  0.3431
50561SOL    HW257647   5.611   9.983   7.131 -0.7030 -1.2663  0.8771
50562SOL     OW57648   4.683   8.049  11.942  0.0228 -0.5428  0.4689
50562SOL    HW157649   4.699   8.092  12.026  1.9023 -0.5614  0.1769
50562SOL    HW257650   4.770   8.018  11.914  0.0103  1.7179 -2.6982
50563SOL     OW57651   8.048   6.096   3.922 -0.4965  0.0325  0.0649
50563SOL    HW157652   8.009   6.183   3.913  0.6252  0.8035  1.9861
50563SOL    HW257653   8.125   6.098   3.864  0.9008  1.2516  1.8637
50564SOL     OW57654   0.859   8.731   6.984  0.5131  0.4032 -0.0330
50564SOL    HW157655   0.769   8.705   6.966  0.9417 -1.2720  0.0956
50564SOL    HW257656   0.908   8.649   6.987  1.3410  0.8111  4.0732
50565SOL     OW57657   7.398   3.458   3.354  0.1157 -0.3268 -0.5083
50565SOL    HW157658   7.464   3.510   3.310 -0.6159  0.2018 -1.0108
50565SOL    HW257659   7.328   3.521   3.375 -0.4188 -0.9483 -0.3793
50566SOL     OW57660  11.071  10.896   2.789 -0.8502  0.0798  0.3126
50566SOL    HW157661  11.132  10.966   2.764 -0.0542 -0.5939  0.3133
50566SOL    HW257662  10.993  10.942   2.818  0.6805  1.1401  3.1738
50567SOL     OW57663   0.320   8.177   0.995  0.3521  0.0126 -0.1717
50567SOL    HW157664   0.295   8.172   0.903 -0.4921 -0.5127  0.0781
50567SOL    HW257665   0.406   8.135   0.999 -0.7884 -2.4878 -0.2864
50568SOL     OW57666  11.572   5.102   0.100 -0.2342  0.1118 -0.0945
50568SOL    HW157667  11.560   5.141   0.187  2.5509  0.4941  0.2173
50568SOL    HW257668  11.664   5.119   0.079  0.4576 -3.9068 -1.1425
50569SOL     OW57669  11.402   7.693   2.899  0.0632  0.2608  0.3143
50569SOL    HW157670  11.409   7.746   2.820 -3.1721  0.7926  0.2371
50569SOL    HW257671  11.383   7.756   2.969  2.1590 -0.2783  1.4692
50570SOL     OW57672   3.282   9.503   4.360  0.4047 -0.2887 -0.4114
50570SOL    HW157673   3.239   9.544   4.285  0.6389 -0.2893 -0.5461
50570SOL    HW257674   3.247   9.549   4.436  0.0413 -0.3999 -0.5116
50571SOL     OW57675  12.279   4.306   3.637  0.2915 -0.0728  0.2385
50571SOL    HW157676  12.276   4.236   3.572  1.1849 -2.1503  2.2833
50571SOL    HW257677  12.188   4.317   3.663  0.3090 -2.3151  1.5918
50572SOL     OW57678   4.144   8.644   7.690 -0.1560  0.3023  0.0357
50572SOL    HW157679   4.218   8.584   7.689 -2.3203 -2.6238 -0.5042
50572SOL    HW257680   4.137   8.675   7.599  1.7549  2.6261  0.5755
50573SOL     OW57681   8.554   7.226  11.943 -0.1671 -0.5437 -0.3776
50573SOL    HW157682   8.511   7.276  12.012  0.2218  0.0443 -0.5581
50573SOL    HW257683   8.569   7.140  11.981  0.1095 -0.2017  0.2918
50574SOL     OW57684   0.187   8.030   2.802 -0.5066 -0.3077 -0.3151
50574SOL    HW157685   0.239   7.957   2.835 -0.2131  0.0018 -0.0898
50574SOL    HW257686   0.217   8.106   2.852 -2.2319 -0.3670  0.9181
50575SOL     OW57687   9.037   3.054   3.783 -0.6757 -0.1323 -0.1455
50575SOL    HW157688   9.070   2.978   3.735 -0.6779  0.1442 -0.5831
50575SOL    HW257689   8.972   3.093   3.725 -0.5437  0.3096  0.0020
50576SOL     OW57690   2.720   1.470   2.234  0.0411 -0.1947 -0.3816
50576SOL    HW157691   2.665   1.494   2.159 -0.6071  0.8136  0.3784
50576SOL    HW257692   2.764   1.390   2.207 -1.5630 -0.8636 -1.1411
50577SOL     OW57693   6.706  11.785   6.354  0.2760 -0.5346 -0.2276
50577SOL    HW157694   6.668  11.851   6.412  1.1557 -0.9081  0.8223
50577SOL    HW257695   6.789  11.761   6.397  1.1628 -0.5308 -1.8602
50578SOL     OW57696   7.162   1.957   0.423 -0.3261  0.5745 -0.0448
50578SOL    HW157697   7.252   1.938   0.396 -0.2015 -2.4348  1.9632
50578SOL    HW257698   7.168   2.037   0.474  1.5446 -0.4058  1.3655
50579SOL     OW57699   0.581   9.775   9.252 -0.3625 -0.3078  0.3789
50579SOL    HW157700   0.568   9.771   9.157 -0.9813  2.9723  0.1962
50579SOL    HW257701   0.493   9.768   9.289 -0.3884  0.6994  0.5333
50580SOL     OW57702   9.451   6.914   0.336  0.1264  0.2251  0.0418
50580SOL    HW157703   9.401   6.938   0.258 -0.2334  2.4145  0.8828
50580SOL    HW257704   9.386   6.889   0.401  0.3066  0.2984  0.2526
50581SOL     OW57705   6.283   1.654   7.279 -0.6103 -0.0022 -0.6627
50581SOL    HW157706   6.295   1.586   7.213  0.1515  0.5995 -1.1535
50581SOL    HW257707   6.303   1.736   7.234  0.5195  0.3688  0.4629
50582SOL     OW57708  11.041   1.615   2.657  0.0608 -0.4974 -0.4143
50582SOL    HW157709  11.032   1.669   2.578 -0.5626  0.2878  0.1720
50582SOL    HW257710  10.954   1.577   2.670  0.5287 -1.8066 -0.9014
50583SOL     OW57711   4.902   7.391   2.909 -0.1856  0.0666 -0.3221
50583SOL    HW157712   4.917   7.461   2.845  0.3758  0.3983  0.1603
50583SOL    HW257713   4.810   7.400   2.932  0.3033  2.0151  1.2597
50584SOL     OW57714   2.262   0.713  11.876  0.3004  0.1683 -0.2134
50584SOL    HW157715   2.304   0.734  11.792 -1.6880  0.5894 -1.1558
50584SOL    HW257716   2.290   0.624  11.895  0.9577  0.1447 -1.2146
50585SOL     OW57717   7.870  12.405   2.016  0.0075 -0.5989  0.5308
50585SOL    HW157718   7.850  12.404   2.109 -0.5287  0.6161  0.4389
50585SOL    HW257719   7.965  12.406   2.012  0.0332 -0.4586  1.0665
50586SOL     OW57720   9.088   0.112   9.190  0.4988  0.2522  0.4480
50586SOL    HW157721   9.114   0.027   9.154  1.2978  0.6691  0.0152
50586SOL    HW257722   8.998   0.123   9.161  0.3392 -0.5061  0.6185
50587SOL     OW57723  12.293  10.843   7.830 -0.2734 -0.1537  0.3640
50587SOL    HW157724  12.202  10.828   7.854 -0.1427  0.3654  1.2449
50587SOL    HW257725  12.293  10.929   7.787 -0.1536  0.0299  0.7208
50588SOL     OW57726   0.184   1.255  12.198 -0.5636 -0.0121 -0.6916
50588SOL    HW157727   0.262   1.203  12.220 -1.0069 -0.7561 -0.8481
50588SOL    HW257728   0.217   1.345  12.189  0.3840 -0.4093 -1.3420
50589SOL     OW57729   2.553   4.195  10.082 -0.0518  0.0565  0.4353
50589SOL    HW157730   2.522   4.277  10.120  2.1684  1.1983 -0.0289
50589SOL    HW257731   2.644   4.213  10.057 -0.3029 -1.7121 -2.1633
50590SOL     OW57732   1.365   1.608   5.549 -0.4576 -0.8388  1.0315
50590SOL    HW157733   1.305   1.548   5.504 -0.7664  0.6665 -0.7259
50590SOL    HW257734   1.330   1.615   5.638 -1.6470 -1.6249  0.6541
50591SOL     OW57735   9.057   2.907   0.984  0.3992 -0.0133  0.1470
50591SOL    HW157736   9.029   2.825   0.942  0.3130 -0.1777  0.5258
50591SOL    HW257737   8.978   2.962   0.983  1.3411  1.6235 -3.6942
50592SOL     OW57738   3.740   9.155   0.303  0.2910  0.5596 -0.1366
50592SOL    HW157739   3.680   9.148   0.229 -0.1534 -1.8533  0.3855
50592SOL    HW257740   3.703   9.225   0.358 -0.0821  1.4841 -1.5109
50593SOL     OW57741   9.794   0.214   6.193 -0.3953  0.0166 -0.7935
50593SOL    HW157742   9.747   0.286   6.152  0.6340  0.0362 -2.0142
50593SOL    HW257743   9.738   0.185   6.264 -1.0422  1.6955 -0.5988
50594SOL     OW57744   6.342   6.632   8.456 -0.2051 -0.2199 -0.1842
50594SOL    HW157745   6.255   6.594   8.443  1.1837 -3.1339 -1.7941
50594SOL    HW257746   6.390   6.566   8.505  1.1505  1.3186  0.6496
50595SOL     OW57747  11.177   2.205   6.243 -0.4470  0.1330  0.0269
50595SOL    HW157748  11.155   2.234   6.154  0.0657  0.3361 -0.0350
50595SOL    HW257749  11.272   2.203   6.245 -0.4586  0.0075  0.5380
50596SOL     OW57750  10.612   0.334   0.402  0.1008 -0.0550  0.2251
50596SOL    HW157751  10.613   0.240   0.386  0.7588  0.0751 -0.5852
50596SOL    HW257752  10.652   0.345   0.488  2.1199 -0.3771 -0.6281
50597SOL     OW57753   3.704  11.011  11.529 -0.4224  0.1213 -0.7075
50597SOL    HW157754   3.779  11.070  11.522 -0.8240  0.6485 -0.6270
50597SOL    HW257755   3.629  11.069  11.541 -0.9171 -0.3804 -1.3352
50598SOL     OW57756  12.304   2.730   0.268 -0.1769 -0.0268  0.0021
50598SOL    HW157757  12.209   2.734   0.257 -0.3929 -0.6357  1.4411
50598SOL    HW257758  12.337   2.805   0.219 -1.3339 -0.2031 -1.1051
50599SOL     OW57759  11.166   8.257   6.263  0.4261  0.3135 -0.1585
50599SOL    HW157760  11.244   8.204   6.281  0.8293  1.2379  0.9203
50599SOL    HW257761  11.201   8.336   6.220  0.0677  0.6210  0.1078
50600SOL     OW57762   3.517   7.030  11.782 -0.0743  0.3881  0.0003
50600SOL    HW157763   3.480   6.963  11.839  0.5908 -0.7825 -0.8996
50600SOL    HW257764   3.598   6.991  11.748  1.4202  2.4007  1.0134
50601SOL     OW57765   8.614   8.671   0.272 -0.0414 -0.0544 -0.2080
50601SOL    HW157766   8.527   8.677   0.312 -0.1081 -1.2133 -0.1442
50601SOL    HW257767   8.606   8.601   0.208  0.7736  0.0310 -0.4067
50602SOL     OW57768   7.877   6.930   3.493 -0.2146 -0.4271  0.4170
50602SOL    HW157769   7.885   7.021   3.523  2.3051 -0.6710  0.6784
50602SOL    HW257770   7.900   6.934   3.400 -0.4704 -0.7668  0.3367
50603SOL     OW57771  11.929   8.779  10.355  0.5914  0.5557 -0.2817
50603SOL    HW157772  11.981   8.855  10.381  1.2677  0.4813 -1.3239
50603SOL    HW257773  11.920   8.787  10.260 -0.3614 -0.0344 -0.2584
50604SOL     OW57774   9.585   9.732   9.204 -0.2047 -0.6202 -0.1482
50604SOL    HW157775   9.521   9.665   9.230 -1.3334  0.5037  0.0440
50604SOL    HW257776   9.538   9.787   9.141  1.2475 -0.9799 -1.6105
50605SOL     OW57777  10.905   2.588   7.735 -0.5925 -0.0546  0.0655
50605SOL    HW157778  10.863   2.662   7.692 -0.3108 -0.5912 -1.1807
50605SOL    HW257779  10.928   2.620   7.823 -2.7625  0.5192  0.4713
50606SOL     OW57780   1.942   7.403  10.231 -0.0359  0.0351 -0.1103
50606SOL    HW157781   2.015   7.400  10.170  1.5954 -1.0742  1.7750
50606SOL    HW257782   1.978   7.444  10.310 -1.3981 -0.6638  0.9278
50607SOL     OW57783  11.966   6.852   0.784 -0.0049 -0.0064 -0.4880
50607SOL    HW157784  12.028   6.785   0.812 -0.7354 -1.5424 -2.3225
50607SOL    HW257785  11.908   6.864   0.860 -1.3896 -3.3515 -0.8282
50608SOL     OW57786   0.185   6.935   0.988  0.4607 -0.1140  0.3273
50608SOL    HW157787   0.121   6.996   1.024 -0.7301 -0.8592 -0.4588
50608SOL    HW257788   0.219   6.979   0.910 -0.6151 -0.5347 -0.4076
50609SOL     OW57789   4.246   9.919   7.055  0.3191 -0.1630 -0.7709
50609SOL    HW157790   4.160   9.878   7.046 -0.5417  1.4820 -0.5263
50609SOL    HW257791   4.287   9.872   7.127  0.7817 -2.7763 -2.6057
50610SOL     OW57792  10.385   8.337   6.167 -0.6567  0.0744  0.1229
50610SOL    HW157793  10.462   8.342   6.110 -0.4718  2.9393  0.4590
50610SOL    HW257794  10.399   8.258   6.219  1.3872 -0.2129 -0.7538
50611SOL     OW57795   9.468   5.108   0.302  0.3803 -0.3587 -0.2600
50611SOL    HW157796   9.465   5.078   0.393  0.6891 -1.2810 -0.5354
50611SOL    HW257797   9.465   5.203   0.307  1.1305 -0.3724  0.7520
50612SOL     OW57798   7.033  11.669   2.076 -0.0958  0.1656  0.2902
50612SOL    HW157799   6.962  11.608   2.099  0.0233  0.1860  0.7239
50612SOL    HW257800   7.012  11.697   1.987 -1.0376  0.7339  0.6722
50613SOL     OW57801   2.134   2.614  10.927 -0.1667  0.1173  0.3345
50613SOL    HW157802   2.071   2.678  10.960  0.0051 -0.2506  1.4119
50613SOL    HW257803   2.091   2.574  10.851 -1.9001 -1.1748  1.9110
50614SOL     OW57804  10.229   5.557   7.513 -0.4314 -0.2667 -0.3319
50614SOL    HW157805  10.261   5.644   7.536 -0.8348 -0.4179  0.9157
50614SOL    HW257806  10.181   5.569   7.431 -1.7987  1.0155  0.6038
50615SOL     OW57807   9.421   8.295   7.470 -0.0779  0.1000  0.4346
50615SOL    HW157808   9.401   8.337   7.387  0.3466  1.0433  0.7967
50615SOL    HW257809   9.444   8.367   7.529 -0.8886 -0.4975  1.5282
50616SOL     OW57810   8.369   3.106   5.690 -0.2073  0.0689  0.5060
50616SOL    HW157811   8.420   3.121   5.610  2.3502 -0.6116  1.8960
50616SOL    HW257812   8.363   3.193   5.731  1.8517 -0.1414  1.3869
50617SOL     OW57813   4.574   5.688   2.446  0.3109  0.1958  0.1114
50617SOL    HW157814   4.569   5.615   2.384  3.7675 -0.4028  0.2868
50617SOL    HW257815   4.512   5.666   2.515 -1.2134 -0.7899 -1.4911
50618SOL     OW57816   9.208   9.115   6.839 -0.0784  0.1284 -0.0415
50618SOL    HW157817   9.137   9.129   6.902 -0.2789 -0.5693 -0.1024
50618SOL    HW257818   9.184   9.034   6.794  0.1695  0.5124 -0.8783
50619SOL     OW57819   5.637   3.298   0.925 -0.4127  0.5010 -0.5992
50619SOL    HW157820   5.573   3.232   0.954  0.5330 -0.8293 -1.4023
50619SOL    HW257821   5.687   3.319   1.004  2.2417 -3.2036 -1.0065
50620SOL     OW57822   3.983  10.933   8.836 -0.3160  0.3132  0.3056
50620SOL    HW157823   3.905  10.905   8.789 -0.7054  1.8191  0.0185
50620SOL    HW257824   4.017  10.853   8.876 -1.6875 -0.4533 -0.0175
50621SOL     OW57825   2.020   9.459  10.985  0.0560 -0.2388  0.2298
50621SOL    HW157826   2.012   9.545  11.027  1.6370 -0.1529  0.4261
50621SOL    HW257827   2.007   9.476  10.892  2.3682  0.6028  0.0078
50622SOL     OW57828   1.896  12.167  11.013 -0.6542 -0.3249  0.2687
50622SOL    HW157829   1.919  12.194  10.924 -2.4979 -2.4960 -0.9839
50622SOL    HW257830   1.915  12.074  11.015 -1.9361 -0.5873  1.6918
50623SOL     OW57831  12.408   8.490   5.617 -0.6004  0.3745 -0.7845
50623SOL    HW157832  12.367   8.410   5.585  0.4482 -0.5177  0.0553
50623SOL    HW257833  12.447   8.466   5.700  0.0510  1.6699 -0.6924
50624SOL     OW57834  10.705   8.660   9.966  0.1552  0.2437  0.3298
50624SOL    HW157835  10.779   8.610   9.933  0.5712  0.7326  0.5231
50624SOL    HW257836  10.654   8.680   9.887  0.6930  0.6657  0.0834
50625SOL     OW57837   0.830   7.371  10.658 -0.0208  0.7823  0.2317
50625SOL    HW157838   0.877   7.415  10.729 -0.3470  2.6247 -0.6299
50625SOL    HW257839   0.859   7.417  10.579  0.6022 -1.4323 -0.9147
50626SOL     OW57840  12.440  10.452   6.907 -0.3445 -0.3334 -0.4030
50626SOL    HW157841  12.347  10.475   6.902 -0.2150  0.2086 -0.4096
50626SOL    HW257842  12.481  10.530   6.945  0.0022 -0.8544  0.2978
50627SOL     OW57843   6.859   0.460  10.025 -0.2696  0.5208  0.1448
50627SOL    HW157844   6.826   0.523   9.961  0.4794  1.6020  0.8005
50627SOL    HW257845   6.831   0.495  10.110 -0.5041 -0.4454  0.4801
50628SOL     OW57846   2.955   8.779  11.079  0.1419  0.1493 -0.1474
50628SOL    HW157847   3.022   8.715  11.053  1.0767 -0.0165  2.3896
50628SOL    HW257848   2.963   8.849  11.015  2.4758 -0.0760 -0.2094
50629SOL     OW57849  12.093   8.990   3.175 -0.1110 -0.3140 -0.1446
50629SOL    HW157850  12.130   8.998   3.263  1.6922 -0.1243 -0.8794
50629SOL    HW257851  12.037   9.067   3.165  0.3213  0.1044  0.5575
50630SOL     OW57852  11.748   6.461  11.827 -0.3431  0.1758  0.4502
50630SOL    HW157853  11.724   6.376  11.864 -0.4769 -0.1863 -0.4491
50630SOL    HW257854  11.705   6.463  11.742 -2.2893  2.1357  1.4062
50631SOL     OW57855   6.795   8.897   6.303 -0.0248 -0.5992  0.1591
50631SOL    HW157856   6.758   8.809   6.311  3.4889 -2.2678 -0.1939
50631SOL    HW257857   6.834   8.899   6.216  2.1085  0.3250  1.0596
50632SOL     OW57858   4.523   8.419   1.328 -0.2285  1.1440 -0.1095
50632SOL    HW157859   4.486   8.507   1.335  0.1338  1.2098  1.4051
50632SOL    HW257860   4.617   8.434   1.317 -0.3166  0.9442 -1.2583
50633SOL     OW57861   0.822   0.303  11.883 -0.0977  0.1217 -0.3539
50633SOL    HW157862   0.769   0.250  11.823 -0.3728  0.1873 -0.1719
50633SOL    HW257863   0.780   0.292  11.968  0.2965  0.0256 -0.1723
50634SOL     OW57864   0.565  10.046   2.643  0.9006 -0.5130  0.1231
50634SOL    HW157865   0.493   9.987   2.666  0.5835 -0.4408 -0.6447
50634SOL    HW257866   0.642  10.007   2.683  0.4635 -0.6840  0.8148
50635SOL     OW57867   8.489   5.606   6.498 -0.1733 -0.2504  0.1473
50635SOL    HW157868   8.397   5.582   6.486 -0.3740  0.6369 -0.1411
50635SOL    HW257869   8.489   5.671   6.568  0.4077 -1.3024  1.1725
50636SOL     OW57870   6.818  10.644   2.079 -0.1810  0.4416  0.0655
50636SOL    HW157871   6.900  10.595   2.076  0.5982  1.5975  1.1214
50636SOL    HW257872   6.794  10.657   1.987 -0.7567 -2.3605 -0.2634
50637SOL     OW57873   2.258   7.495   2.524 -0.0025  0.0744 -0.0158
50637SOL    HW157874   2.349   7.499   2.554 -0.3614 -0.2071  1.1457
50637SOL    HW257875   2.212   7.560   2.578 -1.0457 -1.8002  1.4957
50638SOL     OW57876   2.483   5.922   9.585 -0.3533 -0.0600  0.0447
50638SOL    HW157877   2.567   5.929   9.630  0.3037 -2.4023 -0.6778
50638SOL    HW257878   2.481   5.996   9.525  0.5088  0.8557  1.1028
50639SOL     OW57879  10.388  11.800   0.806  0.1280  0.2816 -0.7950
50639SOL    HW157880  10.478  11.802   0.839  0.0807  1.5472 -0.6874
50639SOL    HW257881  10.359  11.891   0.811 -0.0623  0.4917 -3.7755
50640SOL     OW57882   4.074   3.884   5.426  0.0482  0.2309 -0.1161
50640SOL    HW157883   4.145   3.865   5.364 -0.3148  2.0721 -1.1610
50640SOL    HW257884   4.119   3.923   5.501  0.1886  1.2647 -0.7160
50641SOL     OW57885  10.629   6.221   2.326 -0.2154 -0.4261 -0.5047
50641SOL    HW157886  10.563   6.290   2.322 -0.1652 -0.2715  0.8381
50641SOL    HW257887  10.704   6.262   2.368 -0.0122 -1.1601 -0.1396
50642SOL     OW57888   1.110   2.447   1.490  0.2585 -0.3412 -0.3567
50642SOL    HW157889   1.131   2.358   1.461 -1.6551 -0.6283 -0.9763
50642SOL    HW257890   1.020   2.461   1.462  0.5423  1.8434 -0.3450
50643SOL     OW57891   9.862   9.342   5.614  0.5189  0.5247  0.7897
50643SOL    HW157892   9.934   9.346   5.551  1.1428 -0.8330  1.3693
50643SOL    HW257893   9.854   9.249   5.635  1.3080  1.0377  3.8162
50644SOL     OW57894   0.174   2.423   3.179 -0.2700 -0.2356 -0.2373
50644SOL    HW157895   0.220   2.386   3.254 -0.3871 -1.0095 -0.5411
50644SOL    HW257896   0.113   2.487   3.218  0.3237  0.0508  0.2433
50645SOL     OW57897  11.608   2.468   5.850  0.3024 -0.0970 -0.5547
50645SOL    HW157898  11.558   2.531   5.903  3.6054  0.3857  2.3340
50645SOL    HW257899  11.653   2.523   5.786  0.2825 -0.0053 -0.4915
50646SOL     OW57900  10.814  10.227   5.268 -0.1714 -0.4721 -0.4746
50646SOL    HW157901  10.780  10.140   5.291  1.6081 -1.3223 -0.9447
50646SOL    HW257902  10.857  10.215   5.184 -0.9314  1.1681 -1.1440
50647SOL     OW57903   9.636   6.664   9.231  0.3836  0.2678 -0.0477
50647SOL    HW157904   9.564   6.603   9.241  0.9662 -0.5633 -0.7736
50647SOL    HW257905   9.703   6.631   9.292  0.2324  0.9276  0.4889
50648SOL     OW57906   0.561  11.931   5.027  0.0668 -0.0228 -0.7394
50648SOL    HW157907   0.507  11.853   5.013  0.6229 -0.3995 -0.8424
50648SOL    HW257908   0.642  11.911   4.980  0.4960  0.3114 -0.1488
50649SOL     OW57909   3.930  10.512   0.278 -0.1806  0.2125 -0.4550
50649SOL    HW157910   3.891  10.503   0.191 -1.0842  2.6652 -0.3630
50649SOL    HW257911   4.003  10.573   0.267 -0.0862  0.2902  0.4473
50650SOL     OW57912   9.020  11.138  12.405 -0.1238 -0.0843 -0.2774
50650SOL    HW157913   8.996  11.138  12.312  0.8709 -2.4623 -0.6178
50650SOL    HW257914   9.002  11.049  12.434 -1.1680  0.8108  2.0781
50651SOL     OW57915   8.101   9.307  11.317 -0.6526 -0.4180  0.2274
50651SOL    HW157916   8.111   9.266  11.404  0.3242 -0.8793 -0.0796
50651SOL    HW257917   8.109   9.234  11.256  2.1208  0.2650 -0.3824
50652SOL     OW57918   5.734  11.527   0.315 -0.5085  0.5403  0.8563
50652SOL    HW157919   5.724  11.461   0.247  0.5619  1.0485  0.1866
50652SOL    HW257920   5.657  11.583   0.305  0.0787  1.1441 -0.5663
50653SOL     OW57921  11.555   6.803   5.523 -0.3369  0.0874 -0.0452
50653SOL    HW157922  11.563   6.752   5.442 -1.2068  0.4605 -0.3844
50653SOL    HW257923  11.589   6.746   5.591 -0.4215 -0.5800 -0.5497
50654SOL     OW57924  12.086   5.731   4.319 -0.2818 -0.0517  0.3577
50654SOL    HW157925  12.155   5.702   4.259 -0.0940 -0.9263  0.9830
50654SOL    HW257926  12.132   5.754   4.399 -0.4816  1.5317  0.0617
50655SOL     OW57927   1.172   9.992   4.808 -0.2888 -0.2810  0.6245
50655SOL    HW157928   1.141  10.043   4.733  1.2605 -0.0598  0.1042
50655SOL    HW257929   1.180  10.056   4.879  0.8790  0.0687  0.1966
50656SOL     OW57930   0.786   3.926  11.769  0.7823 -0.0484 -0.3790
50656SOL    HW157931   0.712   3.930  11.829  0.2529  2.2689 -1.0971
50656SOL    HW257932   0.861   3.905  11.824 -0.1893 -1.2357  0.5440
50657SOL     OW57933   8.642   8.046   6.744 -0.0402  0.1080 -0.5757
50657SOL    HW157934   8.737   8.034   6.736 -0.1796 -1.6808 -0.0810
50657SOL    HW257935   8.625   8.133   6.708  1.7757  0.4418 -0.7189
50658SOL     OW57936   8.452   2.880   8.356  0.3510 -1.0102 -0.0801
50658SOL    HW157937   8.540   2.846   8.339  0.1435 -1.2373 -0.6842
50658SOL    HW257938   8.422   2.914   8.272  1.0062  1.7705  0.6844
50659SOL     OW57939   0.318   9.945  10.388 -0.2288 -0.1596  0.3022
50659SOL    HW157940   0.301   9.919  10.298 -0.2314  0.8024  0.0150
50659SOL    HW257941   0.402   9.903  10.409 -1.4979 -2.6644  0.8156
50660SOL     OW57942   6.763   7.092   9.010  0.4282  0.2657  0.2173
50660SOL    HW157943   6.695   7.155   8.987 -0.2924 -0.7837 -0.6290
50660SOL    HW257944   6.845   7.141   9.005 -0.1552  1.2502  0.0956
50661SOL     OW57945   1.013   5.546   0.010 -0.2020  0.0094  0.0823
50661SOL    HW157946   1.057   5.630   0.025  0.5712 -0.0601 -1.5509
50661SOL    HW257947   1.079   5.480   0.029 -0.0362 -0.1406 -0.9536
50662SOL     OW57948  11.093   3.622   5.900  0.1163 -0.2594 -0.1681
50662SOL    HW157949  11.111   3.626   5.805 -1.3797  1.9568 -0.4219
50662SOL    HW257950  11.177   3.645   5.940  0.0399  1.8173 -1.0802
50663SOL     OW57951   0.909   0.199   7.369 -0.2677 -0.3902  0.3915
50663SOL    HW157952   0.929   0.279   7.320  1.3995 -0.2557  1.1980
50663SOL    HW257953   0.860   0.230   7.446 -0.8010 -0.3162  0.0260
50664SOL     OW57954   0.016   2.370   9.111  0.4121  0.2157 -0.3277
50664SOL    HW157955   0.025   2.286   9.156  0.1424 -0.4273 -1.4124
50664SOL    HW257956   0.030   2.436   9.178  0.9554 -0.7040  0.4856
50665SOL     OW57957   3.843   3.031   1.864  0.3524 -0.2095  0.1952
50665SOL    HW157958   3.787   3.106   1.886  1.5383  0.8037 -0.0943
50665SOL    HW257959   3.875   2.999   1.948  0.2530 -0.0613  0.2897
50666SOL     OW57960   4.622  11.878   2.160 -0.4718 -0.3392 -0.2730
50666SOL    HW157961   4.664  11.827   2.230  2.1492  0.5058 -1.1018
50666SOL    HW257962   4.543  11.829   2.138  0.1605 -2.1752  1.2915
50667SOL     OW57963   8.113   2.499   3.094 -0.1747 -0.1308  0.5713
50667SOL    HW157964   8.192   2.446   3.090 -1.2321 -1.7703  0.7071
50667SOL    HW257965   8.129   2.560   3.167  1.4376  0.4135 -0.2017
50668SOL     OW57966   3.129   1.050   0.584 -0.1927  1.1713 -0.4329
50668SOL    HW157967   3.221   1.042   0.557 -0.7954  1.3691 -2.7432
50668SOL    HW257968   3.124   1.136   0.625  0.9120  0.5922  1.0249
50669SOL     OW57969   4.066   7.414   2.955 -0.2745  0.3405 -0.0596
50669SOL    HW157970   4.125   7.463   3.012  0.6943 -0.2745 -0.5059
50669SOL    HW257971   4.024   7.482   2.901  1.9515  0.6840 -1.5126
50670SOL     OW57972  11.787  11.037   9.863 -0.1750 -0.8237  0.4160
50670SOL    HW157973  11.754  11.089   9.789  0.4255  0.7716  1.2367
50670SOL    HW257974  11.872  11.075   9.883  0.3599 -2.2494  0.9575
50671SOL     OW57975   3.915   1.150   4.548  0.1977  0.0410  0.1613
50671SOL    HW157976   3.830   1.192   4.563  0.5175  0.0982  2.0787
50671SOL    HW257977   3.905   1.105   4.464 -0.5476  2.9180 -1.4182
50672SOL     OW57978   2.371  10.750   8.949 -0.3354 -0.3247 -0.2023
50672SOL    HW157979   2.367  10.751   9.044 -1.5999 -1.7017 -0.1985
50672SOL    HW257980   2.408  10.663   8.927  0.6941  0.2750 -0.9733
50673SOL     OW57981   5.010   1.809  11.933  0.0917 -0.0014 -0.4944
50673SOL    HW157982   4.958   1.878  11.974  0.3437 -0.0996  0.0038
50673SOL    HW257983   5.034   1.844  11.847  0.1956  0.5217 -0.2568
50674SOL     OW57984   0.838   4.411  10.482  0.0005  0.2142 -0.1170
50674SOL    HW157985   0.789   4.333  10.457 -0.4093  0.1109  0.9591
50674SOL    HW257986   0.912   4.413  10.422 -0.7324 -0.2350 -1.0531
50675SOL     OW57987   2.313   2.107  10.084  0.4789  0.5828  0.0774
50675SOL    HW157988   2.392   2.069  10.123  0.8352  1.4019  0.1751
50675SOL    HW257989   2.314   2.076   9.994  0.4689 -0.0786  0.2981
50676SOL     OW57990   6.255   5.707   5.447 -0.3469 -0.1708  0.3971
50676SOL    HW157991   6.204   5.641   5.398  0.7041 -0.6697 -0.0520
50676SOL    HW257992   6.303   5.755   5.379  0.7678 -0.5629  0.8806
50677SOL     OW57993   1.648   3.573   6.534 -0.1935  0.0963  0.4659
50677SOL    HW157994   1.669   3.482   6.555  1.0116  0.0110 -0.9510
50677SOL    HW257995   1.553   3.579   6.545 -0.6461 -1.9513 -1.4853
50678SOL     OW57996   9.189   0.027   3.478 -0.3425 -0.4711 -0.2362
50678SOL    HW157997   9.131  -0.025   3.533 -1.4371  2.1939  1.2899
50678SOL    HW257998   9.233   0.087   3.538  0.7962  0.4631 -1.8974
50679SOL     OW57999   8.375  10.833   3.799  0.3264  0.4312 -0.2034
50679SOL    HW158000   8.338  10.792   3.721 -0.1491 -1.6990  1.0381
50679SOL    HW258001   8.443  10.772   3.828  1.9874  2.2411 -0.1051
50680SOL     OW58002  12.407   9.832   8.420  0.0433 -0.6570 -0.0527
50680SOL    HW158003  12.487   9.881   8.404 -0.3528  0.2493  0.6323
50680SOL    HW258004  12.352   9.892   8.470 -0.7969 -1.5055  0.0716
50681SOL     OW58005   7.344   0.180   3.149  0.2208  0.0095  0.3102
50681SOL    HW158006   7.410   0.225   3.096  0.9482 -1.5792 -0.1933
50681SOL    HW258007   7.351   0.088   3.123 -1.8798 -0.2752  0.6087
50682SOL     OW58008   8.526   2.195   8.614 -0.1932 -0.7855  0.9478
50682SOL    HW158009   8.516   2.273   8.559  0.1123 -1.2003  0.2959
50682SOL    HW258010   8.505   2.226   8.702  1.7591  0.4880  1.0230
50683SOL     OW58011  10.159   6.275   6.996  0.3863 -0.3394  0.0869
50683SOL    HW158012  10.088   6.221   7.029 -0.1890  0.7118  0.6313
50683SOL    HW258013  10.211   6.216   6.942 -0.9666 -1.1078 -0.4300
50684SOL     OW58014   8.797   7.020   7.422 -0.1682 -0.0719  0.1643
50684SOL    HW158015   8.731   6.957   7.394 -0.2633 -0.3736  1.0321
50684SOL    HW258016   8.770   7.102   7.382  0.6116 -0.7967 -1.9675
50685SOL     OW58017   9.922   5.947   8.912  0.3093  0.7762 -1.1335
50685SOL    HW158018  10.014   5.971   8.918  0.2105  0.9207 -0.1184
50685SOL    HW258019   9.896   5.925   9.001 -0.3676 -0.2948 -1.5694
50686SOL     OW58020  11.074   5.372   5.089  0.3728 -0.5125 -0.2775
50686SOL    HW158021  11.115   5.457   5.105 -2.4916  0.5773  2.2837
50686SOL    HW258022  11.052   5.374   4.996 -0.1369  1.8615 -0.1879
50687SOL     OW58023   5.679   9.850   4.254 -0.0677 -0.0834  0.5253
50687SOL    HW158024   5.711   9.940   4.256 -0.5506  0.0846  1.9329
50687SOL    HW258025   5.585   9.858   4.270 -0.6645 -0.6641 -2.1279
50688SOL     OW58026   3.088   0.679   8.785  0.0367 -0.1495 -0.4872
50688SOL    HW158027   3.006   0.720   8.756  1.0506  1.6961 -0.9285
50688SOL    HW258028   3.061   0.599   8.830 -1.9446 -0.0380 -1.3752
50689SOL     OW58029   9.696   4.410   9.718 -0.5316 -0.5575 -0.2852
50689SOL    HW158030   9.673   4.435   9.629  0.5768 -0.5740 -0.5972
50689SOL    HW258031   9.781   4.452   9.734 -1.4162  0.7459  1.3436
50690SOL     OW58032   1.733   1.456   1.150 -0.3253 -0.9482  0.0728
50690SOL    HW158033   1.814   1.488   1.188 -0.3121 -0.8648 -0.0258
50690SOL    HW258034   1.740   1.361   1.154  0.3080 -0.9607 -1.0575
50691SOL     OW58035   9.035   0.393  11.711 -0.5072  0.3342  0.3056
50691SOL    HW158036   9.129   0.410  11.717 -0.8233  1.6836  2.3502
50691SOL    HW258037   9.017   0.386  11.617  1.7849 -1.0213 -0.0964
50692SOL     OW58038  11.289   0.930  12.275  0.4395 -0.5523  0.1638
50692SOL    HW158039  11.315   0.890  12.358 -2.1039 -2.6542  0.0923
50692SOL    HW258040  11.193   0.939  12.282  0.2527  0.0005 -2.2230
50693SOL     OW58041   6.713  11.782   2.148 -0.0321 -0.4117 -0.5058
50693SOL    HW158042   6.709  11.835   2.069 -2.3150 -1.1356 -0.9367
50693SOL    HW258043   6.624  11.749   2.160  0.9279 -2.8829  0.5989
50694SOL     OW58044   7.245   1.124   9.661  0.3009  0.0365 -0.1538
50694SOL    HW158045   7.218   1.147   9.572 -0.1148  1.7241  0.3576
50694SOL    HW258046   7.306   1.194   9.687 -1.6566  1.1838  1.8004
50695SOL     OW58047   9.612   7.960   1.411  0.4890 -0.1610  0.2027
50695SOL    HW158048   9.637   8.033   1.468 -0.4161  1.1981 -1.0538
50695SOL    HW258049   9.695   7.931   1.372  0.7732  0.8288  0.0307
50696SOL     OW58050   4.354   8.891   3.309  0.0165  0.1339  0.3719
50696SOL    HW158051   4.289   8.894   3.239  1.0006  0.4245 -0.5747
50696SOL    HW258052   4.426   8.840   3.272  0.2359 -0.3832  1.4774
50697SOL     OW58053   8.543  12.231   2.149  0.1244 -0.0372 -0.1884
50697SOL    HW158054   8.623  12.227   2.201  0.6277 -1.0644 -1.0022
50697SOL    HW258055   8.568  12.277   2.069  0.1543 -1.0829 -0.8146
50698SOL     OW58056   9.069   0.802   2.256 -0.0782  0.2833 -0.0725
50698SOL    HW158057   9.039   0.893   2.253  0.6337  0.5128 -0.4266
50698SOL    HW258058   9.125   0.793   2.179 -0.0157 -0.4100  0.0515
50699SOL     OW58059  10.730   6.274   4.057 -0.9047  0.7853  0.5006
50699SOL    HW158060  10.706   6.185   4.080 -1.8341  0.7874 -0.3880
50699SOL    HW258061  10.763   6.268   3.967  1.2593  0.9936  1.2255
50700SOL     OW58062   6.593   6.385   9.932 -0.1799  0.2697  0.6763
50700SOL    HW158063   6.672   6.434   9.956 -0.0970  1.8100 -2.2044
50700SOL    HW258064   6.575   6.412   9.842 -3.0610 -1.3192  0.6479
50701SOL     OW58065   2.166  11.701   3.020 -0.1690 -0.2830 -0.5008
50701SOL    HW158066   2.120  11.781   3.044 -0.1373 -0.2676 -0.4890
50701SOL    HW258067   2.259  11.725   3.024 -0.1651 -0.2720 -0.6693
50702SOL     OW58068   0.621   9.295   7.046 -0.0110 -0.0248 -0.1546
50702SOL    HW158069   0.568   9.333   7.117 -3.2049 -1.7653 -1.3982
50702SOL    HW258070   0.675   9.229   7.088  0.0108  0.7082  0.9935
50703SOL     OW58071   6.157  10.474   5.681  0.3449  0.1479 -0.0699
50703SOL    HW158072   6.134  10.507   5.595 -0.5984  0.2822  0.2269
50703SOL    HW258073   6.180  10.382   5.667 -0.1436  0.0785 -0.4108
50704SOL     OW58074   9.945   1.725   6.829  0.4165 -0.0092  0.8891
50704SOL    HW158075  10.011   1.767   6.884 -0.5370  1.2166  1.1371
50704SOL    HW258076   9.985   1.722   6.742  1.6844 -1.3793  1.4786
50705SOL     OW58077  11.973   1.092  11.211 -0.1095 -0.0896 -0.0034
50705SOL    HW158078  11.979   1.028  11.282  0.9342 -0.8445 -0.7686
50705SOL    HW258079  11.894   1.068  11.163  0.7394 -1.3692 -0.8097
50706SOL     OW58080   4.208   3.828   9.497  0.0416 -0.0459  0.3352
50706SOL    HW158081   4.214   3.734   9.481  0.0140 -0.1691  0.9977
50706SOL    HW258082   4.114   3.843   9.513  0.2045 -0.1382  1.4964
50707SOL     OW58083  11.664   2.150   9.007 -0.2876  0.2646  0.1343
50707SOL    HW158084  11.580   2.187   8.978 -0.7121 -0.2815  0.6461
50707SOL    HW258085  11.707   2.222   9.053 -0.7817  0.3529  0.4701
50708SOL     OW58086   3.037  12.163   2.533 -0.2118  0.1566 -0.4478
50708SOL    HW158087   3.104  12.231   2.540  0.9104 -0.9943  0.4330
50708SOL    HW258088   3.053  12.122   2.448  0.1552 -0.0595 -0.2765
50709SOL     OW58089   3.934   9.876   4.283 -0.0990 -0.2119 -0.4309
50709SOL    HW158090   3.960   9.865   4.192 -0.2711 -1.4743 -0.3454
50709SOL    HW258091   3.840   9.894   4.280  0.1109  0.9773 -0.5487
50710SOL     OW58092   2.068   6.638   1.752  0.1285  0.0071  0.0208
50710SOL    HW158093   2.101   6.554   1.721  1.4949 -0.0025  1.3634
50710SOL    HW258094   2.065   6.629   1.848 -0.0706  1.3505  0.1623
50711SOL     OW58095  10.517   0.533   1.126 -0.2579  0.8072  0.0417
50711SOL    HW158096  10.478   0.492   1.048 -0.5000  2.0914 -0.5356
50711SOL    HW258097  10.450   0.593   1.158  0.4416  1.4612  0.3070
50712SOL     OW58098   3.116  11.201   4.180  0.8397  0.6292 -0.4487
50712SOL    HW158099   3.118  11.185   4.086  1.6362  0.9255 -0.4824
50712SOL    HW258100   3.075  11.287   4.189 -1.1362 -0.2516 -0.3970
50713SOL     OW58101   5.845   2.862   2.558 -0.2551  0.2141 -0.4279
50713SOL    HW158102   5.762   2.905   2.578  0.1200  0.9975 -0.5001
50713SOL    HW258103   5.911   2.917   2.600  0.3012  0.1781 -1.2293
50714SOL     OW58104  11.077   4.383   6.208 -0.2440  0.2322  0.1044
50714SOL    HW158105  11.173   4.385   6.201 -0.2098 -1.7163 -0.3930
50714SOL    HW258106  11.050   4.306   6.159 -1.8849 -0.5640  2.0817
50715SOL     OW58107   6.852  10.575   1.225 -0.3476  0.0120 -0.3925
50715SOL    HW158108   6.765  10.553   1.191 -0.6023 -0.0544  0.2759
50715SOL    HW258109   6.860  10.669   1.211 -0.2448 -0.0923 -1.0701
50716SOL     OW58110   9.741  12.068   4.159  0.0192 -0.4349 -0.5000
50716SOL    HW158111   9.773  12.026   4.079 -1.5616 -1.5556 -0.5952
50716SOL    HW258112   9.654  12.029   4.173 -0.8874  1.7213  0.2800
50717SOL     OW58113   1.782   6.634   6.182 -0.0385  0.0903 -0.4178
50717SOL    HW158114   1.723   6.607   6.112  0.3559 -0.4987 -0.5260
50717SOL    HW258115   1.868   6.639   6.141 -0.1285  1.8222 -0.4822
50718SOL     OW58116   4.577   3.152   2.740 -0.3445  0.2294 -0.7227
50718SOL    HW158117   4.545   3.184   2.824 -1.1309 -0.0026 -0.9260
50718SOL    HW258118   4.632   3.223   2.707  2.2116 -0.6869  1.1723
50719SOL     OW58119   4.686   6.848   1.260 -0.5057 -0.0014  0.6589
50719SOL    HW158120   4.746   6.922   1.251  0.3272 -0.4845  1.8507
50719SOL    HW258121   4.717   6.802   1.339 -1.1728 -1.4444  0.1213
50720SOL     OW58122   1.705  10.586   3.794 -0.7255  0.5857  0.2487
50720SOL    HW158123   1.702  10.677   3.822  1.8434  0.6528  0.4868
50720SOL    HW258124   1.726  10.537   3.873  0.5645  0.0977 -0.3756
50721SOL     OW58125   2.689   0.050  10.328 -0.4781  0.5783 -0.4760
50721SOL    HW158126   2.677  -0.037  10.366 -0.5587  0.3176 -1.0892
50721SOL    HW258127   2.704   0.034  10.235  4.1057  0.8269 -0.0420
50722SOL     OW58128   7.131   1.784   5.961 -0.1842  0.4223  0.0894
50722SOL    HW158129   7.147   1.728   6.037 -1.9405 -2.4186 -1.4525
50722SOL    HW258130   7.218   1.802   5.926  0.4642 -2.1231  0.2014
50723SOL     OW58131   1.472  11.540   1.293  0.2129 -0.0087  0.4613
50723SOL    HW158132   1.525  11.512   1.368 -0.1048  1.6973  1.3841
50723SOL    HW258133   1.406  11.597   1.331 -0.2296  0.5510 -1.0853
50724SOL     OW58134  11.120  12.054  11.727 -0.2504  0.1884  0.3387
50724SOL    HW158135  11.191  12.000  11.694  1.1450  0.7610  2.2381
50724SOL    HW258136  11.143  12.143  11.698  0.6396  0.5950  2.1800
50725SOL     OW58137   4.184   8.578   2.324 -0.0817  0.0045  0.1291
50725SOL    HW158138   4.116   8.643   2.339  1.2241  2.2486 -2.6173
50725SOL    HW258139   4.257   8.606   2.380 -0.8391 -1.5661  1.9954
50726SOL     OW58140   1.720   6.609  10.453 -0.1191  0.4013  0.2538
50726SOL    HW158141   1.810   6.638  10.435  0.0260  0.1129  0.5202
50726SOL    HW258142   1.725   6.565  10.537 -0.3170 -0.5061 -0.1909
50727SOL     OW58143   0.799   4.366   1.162  0.1383  0.2109 -0.2620
50727SOL    HW158144   0.879   4.315   1.174  0.5590  0.8532 -0.2833
50727SOL    HW258145   0.811   4.410   1.078 -1.5329 -1.9935 -1.7475
50728SOL     OW58146   9.651   6.044  12.384 -0.2716  0.1040  0.0551
50728SOL    HW158147   9.742   6.021  12.403 -0.1557  1.1664  0.8701
50728SOL    HW258148   9.624   5.980  12.318  0.7721 -0.8061  0.4718
50729SOL     OW58149   0.313   7.685   2.444 -0.0760 -0.2746 -0.0406
50729SOL    HW158150   0.291   7.774   2.416  1.2171  0.2170  0.4525
50729SOL    HW258151   0.323   7.691   2.539 -1.4897 -1.3002  0.2236
50730SOL     OW58152  10.857   1.293   9.366  0.2867  0.1547  0.5043
50730SOL    HW158153  10.908   1.274   9.288 -0.3781  0.2529  0.0408
50730SOL    HW258154  10.825   1.208   9.395 -1.5396  0.3443 -0.7785
50731SOL     OW58155   1.946   8.401   1.423  0.5324 -0.2322 -0.7019
50731SOL    HW158156   1.881   8.382   1.356  0.1268 -1.3722 -0.0030
50731SOL    HW258157   2.029   8.411   1.375  0.2265 -0.9006 -1.3794
50732SOL     OW58158   9.361   3.032   6.608  0.3928 -0.0750 -0.0937
50732SOL    HW158159   9.311   3.101   6.566  2.4210  0.7465 -1.2999
50732SOL    HW258160   9.383   2.971   6.538  1.3605 -0.2130  0.3013
50733SOL     OW58161   5.150   3.178   0.545  0.2833  0.0847 -0.0094
50733SOL    HW158162   5.212   3.251   0.548  0.5746  0.0247 -2.5480
50733SOL    HW258163   5.064   3.218   0.556  0.5337  0.5944  0.1063
50734SOL     OW58164   2.607   7.675   1.649 -0.1440  0.5016 -1.0021
50734SOL    HW158165   2.538   7.641   1.706  1.4025 -2.0930 -0.4652
50734SOL    HW258166   2.660   7.731   1.706  1.7182 -2.5105  0.5144
50735SOL     OW58167   0.200   6.888   4.289 -0.4909  0.2018  0.1105
50735SOL    HW158168   0.271   6.951   4.299  2.3156 -2.9241  2.2581
50735SOL    HW258169   0.170   6.872   4.378 -1.8352 -0.7245 -0.4773
50736SOL     OW58170   4.745  10.954   0.695 -0.2211 -0.2955 -0.6086
50736SOL    HW158171   4.792  11.012   0.636  1.3170 -0.1051  0.7004
50736SOL    HW258172   4.680  11.009   0.738  0.1135  0.0798 -0.5807
50737SOL     OW58173   0.100   4.314   1.817 -0.0036  0.3816  0.0050
50737SOL    HW158174   0.021   4.261   1.814 -1.3206  2.2243  0.0636
50737SOL    HW258175   0.140   4.302   1.731 -1.0980  0.4483 -0.5385
50738SOL     OW58176   2.559  10.770   0.293 -0.5005 -0.5424 -0.3178
50738SOL    HW158177   2.612  10.708   0.344 -1.6509 -1.5730 -0.3347
50738SOL    HW258178   2.469  10.740   0.305 -1.2653  1.8908  0.7326
50739SOL     OW58179   6.393   3.875   1.468 -0.1317  0.1280  0.3019
50739SOL    HW158180   6.383   3.920   1.552  1.1654 -0.6493  0.8923
50739SOL    HW258181   6.487   3.875   1.451 -0.4383  1.6137 -1.9364
50740SOL     OW58182   9.002   7.222   7.756  0.5172 -0.4180 -0.3706
50740SOL    HW158183   9.045   7.256   7.677  0.2104  2.3520  0.5642
50740SOL    HW258184   9.070   7.221   7.823 -0.2217  1.6894  0.4871
50741SOL     OW58185   7.395   7.469  10.924  0.5598 -0.2004 -0.1511
50741SOL    HW158186   7.483   7.438  10.944  0.9907 -0.9154 -2.7960
50741SOL    HW258187   7.337   7.404  10.965  1.2325 -0.0872  1.0307
50742SOL     OW58188   8.152   8.177  12.450  0.3038  0.3993 -0.3048
50742SOL    HW158189   8.179   8.160  12.360  0.1428 -0.1145 -0.2573
50742SOL    HW258190   8.058   8.194  12.445 -0.0294 -1.2268 -0.0423
50743SOL     OW58191   4.020   0.199   8.139  0.1918 -0.4155 -0.2972
50743SOL    HW158192   3.954   0.227   8.203  0.1341  2.6110 -1.5148
50743SOL    HW258193   4.080   0.274   8.133  0.8642 -1.0693 -2.9043
50744SOL     OW58194   4.718   3.470  10.578  0.3342 -0.5145 -0.0465
50744SOL    HW158195   4.634   3.498  10.613  0.0303 -2.4651  0.9462
50744SOL    HW258196   4.697   3.394  10.524  1.2749  0.1018 -1.3469
50745SOL     OW58197  11.698   4.044   8.294 -0.4795  0.2296  0.0906
50745SOL    HW158198  11.644   3.981   8.342 -2.4441  2.0578  0.4680
50745SOL    HW258199  11.785   4.006   8.293 -1.6779 -2.7463 -0.2414
50746SOL     OW58200   7.999   0.579   5.862  0.4555  0.0214 -0.5997
50746SOL    HW158201   7.969   0.669   5.874  1.5867  0.2735  0.6140
50746SOL    HW258202   8.049   0.581   5.781  0.6486  0.5374 -0.4732
50747SOL     OW58203   8.712  10.299   6.066  0.1216 -0.3300  0.1812
50747SOL    HW158204   8.764  10.364   6.019 -0.2195  1.7440  2.4968
50747SOL    HW258205   8.776  10.236   6.099  0.6014 -0.4273 -0.8739
50748SOL     OW58206   0.542   3.462   7.754 -0.0955 -0.6113  0.1040
50748SOL    HW158207   0.563   3.386   7.808 -1.1925 -1.4771 -0.6558
50748SOL    HW258208   0.576   3.537   7.804 -0.9647 -1.3845  1.9356
50749SOL     OW58209  12.024   7.326   4.882 -0.2068  0.0139 -0.0438
50749SOL    HW158210  11.975   7.264   4.828  1.6920 -0.2229 -1.6231
50749SOL    HW258211  12.108   7.282   4.899 -0.0096  0.9008  1.4960
50750SOL     OW58212   7.028   3.248   7.963 -0.1930 -0.4078 -0.3323
50750SOL    HW158213   6.964   3.182   7.936 -1.0852 -0.0496  0.7811
50750SOL    HW258214   7.003   3.268   8.054  0.9801  0.3766 -0.1713
50751SOL     OW58215   3.165   3.227   5.143  0.1302 -0.3282 -0.2322
50751SOL    HW158216   3.099   3.159   5.152  1.0920 -1.1163  1.0908
50751SOL    HW258217   3.120   3.298   5.097 -1.1541 -1.4729 -0.7959
50752SOL     OW58218   8.817   3.398   0.314 -0.0261 -0.1838  0.1042
50752SOL    HW158219   8.782   3.322   0.267  0.7455 -0.0823 -0.6820
50752SOL    HW258220   8.757   3.412   0.387  0.2970 -2.0854  0.7915
50753SOL     OW58221  10.018  11.954  11.236 -0.5336 -0.4111  0.0226
50753SOL    HW158222   9.956  11.930  11.304 -0.1357 -0.1799  0.4750
50753SOL    HW258223  10.085  11.885  11.240 -0.1758 -0.0561  0.3078
50754SOL     OW58224   6.401   8.133   6.423 -0.1326  0.4090 -0.0238
50754SOL    HW158225   6.339   8.139   6.496 -0.6637 -0.6786 -0.3825
50754SOL    HW258226   6.464   8.203   6.441  0.0514 -0.1622  1.7733
50755SOL     OW58227   0.020   7.458   4.934 -0.1538 -0.6493  0.5187
50755SOL    HW158228  -0.032   7.476   4.856 -1.1141 -3.0496  0.5285
50755SOL    HW258229  -0.001   7.368   4.956 -0.5026  0.1599  4.0320
50756SOL     OW58230   3.499   4.327   0.031  0.4996  0.8438 -0.1848
50756SOL    HW158231   3.461   4.348   0.116  0.5275  0.3447 -0.0447
50756SOL    HW258232   3.452   4.250   0.002 -0.3190  1.6866 -1.1657
50757SOL     OW58233   0.948   9.958  11.883 -0.5017 -0.0411  0.3034
50757SOL    HW158234   0.997   9.933  11.805  0.9857 -1.0948  1.4925
50757SOL    HW258235   0.864   9.990  11.851  0.6581  1.0910 -1.8064
50758SOL     OW58236   3.047  11.475   5.243 -0.5586 -0.4984 -0.1413
50758SOL    HW158237   3.035  11.391   5.199  2.0062 -1.1826  0.2994
50758SOL    HW258238   3.141  11.493   5.234 -0.9184  1.9518  0.4552
50759SOL     OW58239   0.358   7.975   1.264 -0.0144  0.3274 -0.7403
50759SOL    HW158240   0.381   8.067   1.254 -0.8882  1.0317  2.5255
50759SOL    HW258241   0.439   7.932   1.290  0.5241 -0.0133 -2.8176
50760SOL     OW58242   4.169   7.199  12.294 -0.0969  0.4239 -0.3122
50760SOL    HW158243   4.242   7.155  12.336 -0.4342  0.0538 -0.1015
50760SOL    HW258244   4.200   7.287  12.276 -0.4122  1.0744  2.0216
50761SOL     OW58245   3.868   3.828   3.011  0.0126  0.0405  0.0157
50761SOL    HW158246   3.921   3.907   3.006 -1.2879  0.9954  0.8474
50761SOL    HW258247   3.849   3.806   2.919  1.4021 -0.0569 -0.2756
50762SOL     OW58248   4.523   7.973   4.618 -0.4660 -0.0832 -0.5006
50762SOL    HW158249   4.527   8.047   4.679  1.3270  1.0578 -1.8918
50762SOL    HW258250   4.439   7.985   4.572 -1.3696 -0.3996  1.0059
50763SOL     OW58251   9.112   3.495  10.005  0.1840 -0.6013  0.3954
50763SOL    HW158252   9.061   3.513  10.084 -0.2297 -0.0706  0.0128
50763SOL    HW258253   9.058   3.434   9.955  0.3437 -0.7608  0.4184
50764SOL     OW58254  11.481   8.743   3.038 -0.4996  0.2659  0.3624
50764SOL    HW158255  11.576   8.734   3.026 -0.3623  2.0212 -0.0968
50764SOL    HW258256  11.472   8.794   3.119 -1.1391 -1.5314  1.4913
50765SOL     OW58257  11.088  12.125   5.570  0.4712 -0.0908  0.2817
50765SOL    HW158258  11.060  12.055   5.631 -1.4122 -1.2005 -1.6962
50765SOL    HW258259  11.008  12.175   5.555  1.4153  1.4621  0.3007
50766SOL     OW58260   0.854   7.470   2.643  0.7421  0.2462 -0.2338
50766SOL    HW158261   0.902   7.392   2.669  0.6220  0.1289 -0.3683
50766SOL    HW258262   0.858   7.470   2.547  0.7195  0.3900 -0.2350
50767SOL     OW58263   2.504   1.534   0.703 -0.1079  0.0304 -0.3425
50767SOL    HW158264   2.593   1.570   0.696  0.1829 -0.4375  0.7291
50767SOL    HW258265   2.473   1.563   0.789 -1.4003  1.0384 -1.1175
50768SOL     OW58266   4.736   8.017   9.950 -0.5348 -0.2768 -0.1054
50768SOL    HW158267   4.746   7.938  10.004 -0.9168  0.2646  0.7826
50768SOL    HW258268   4.701   7.985   9.867 -2.7218 -0.8615  0.9627
50769SOL     OW58269  10.470   2.038  10.259 -0.1871 -0.0642 -0.2680
50769SOL    HW158270  10.525   1.987  10.317 -1.1249 -1.6245 -0.6820
50769SOL    HW258271  10.455   2.121  10.306  1.6095 -0.0176  0.2841
50770SOL     OW58272  11.738   6.845   6.573 -0.7698  0.7385 -0.0760
50770SOL    HW158273  11.651   6.824   6.607 -0.3601  1.0215  1.2261
50770SOL    HW258274  11.755   6.934   6.605  0.2408  0.4553  0.2196
50771SOL     OW58275   9.905   7.187   3.792 -0.0457 -0.2911  0.4826
50771SOL    HW158276   9.816   7.191   3.827 -0.3921 -0.0504 -0.4186
50771SOL    HW258277   9.900   7.123   3.721 -0.2780  2.0351 -1.7455
50772SOL     OW58278   2.121   5.800   9.302 -0.2942  0.8148 -0.5818
50772SOL    HW158279   2.140   5.889   9.273  1.0416  0.4541 -0.8937
50772SOL    HW258280   2.202   5.770   9.343 -1.3902  0.4828  1.4870
50773SOL     OW58281   8.286   9.529   4.347 -0.4810 -0.3458 -0.1698
50773SOL    HW158282   8.370   9.524   4.392 -1.4593  0.1204  1.8280
50773SOL    HW258283   8.266   9.439   4.323 -0.3903 -0.7915  1.3002
50774SOL     OW58284   3.755   6.954  12.304 -0.2198  0.7030  0.3657
50774SOL    HW158285   3.669   6.923  12.276  0.5778 -3.1996  1.5008
50774SOL    HW258286   3.741   6.985  12.394 -0.5072  0.0487  0.5593
50775SOL     OW58287   1.625   7.019   0.282  0.2383  0.0290 -0.1949
50775SOL    HW158288   1.559   7.072   0.236  0.3343 -0.0969 -0.4815
50775SOL    HW258289   1.699   7.015   0.221  0.2727 -0.3461 -0.1277
50776SOL     OW58290   2.399  10.132   5.649 -0.2356  0.8869 -0.1522
50776SOL    HW158291   2.414  10.178   5.732 -1.2899  1.7134 -0.4002
50776SOL    HW258292   2.369  10.199   5.589  2.3884  0.6811 -1.8356
50777SOL     OW58293   8.419   8.086   1.145  0.1884  0.4328  0.0816
50777SOL    HW158294   8.449   8.177   1.141  0.6695  0.3073  0.6698
50777SOL    HW258295   8.426   8.063   1.237 -0.7459  0.0569  0.0688
50778SOL     OW58296  10.744   3.670   7.589  0.7973 -0.3093 -0.5188
50778SOL    HW158297  10.653   3.640   7.598  0.6504  0.1255 -0.5505
50778SOL    HW258298  10.766   3.704   7.676  0.6510  0.3551 -0.7379
50779SOL     OW58299   0.718   1.931   0.402  0.2484 -0.6704  1.0172
50779SOL    HW158300   0.757   1.953   0.318 -2.9336 -0.6069 -0.5797
50779SOL    HW258301   0.682   1.843   0.390 -2.0761  0.1354  1.5098
50780SOL     OW58302   0.639   1.442   4.187 -0.3670 -0.1406 -0.1551
50780SOL    HW158303   0.695   1.518   4.204  3.0859 -2.4820  0.0173
50780SOL    HW258304   0.639   1.433   4.092 -0.2534 -0.2418 -0.1466
50781SOL     OW58305  11.128   2.144   5.428 -0.1454 -0.6960  0.0353
50781SOL    HW158306  11.093   2.183   5.347 -0.4860 -1.1686 -0.0451
50781SOL    HW258307  11.213   2.187   5.439  0.3450 -1.3096 -1.0962
50782SOL     OW58308  12.357  11.851   5.781  0.2348 -0.0447 -0.4559
50782SOL    HW158309  12.372  11.878   5.690  1.1065  0.2312 -0.2409
50782SOL    HW258310  12.275  11.802   5.778  1.2590 -1.8326 -1.7705
50783SOL     OW58311   2.009   5.029  10.333 -0.3302  0.2179 -0.3252
50783SOL    HW158312   2.055   5.001  10.254  1.9596  0.8689  0.6902
50783SOL    HW258313   2.077   5.033  10.401 -2.1637 -0.1366  1.6592
50784SOL     OW58314  11.789   7.423   2.157  0.0729  0.3825  0.4548
50784SOL    HW158315  11.793   7.391   2.247 -0.2272  1.5834  0.9198
50784SOL    HW258316  11.844   7.502   2.157 -0.2438  0.6192 -0.3172
50785SOL     OW58317   0.358   8.534   2.346  0.2918 -0.5919  0.4092
50785SOL    HW158318   0.268   8.557   2.320  1.2573  3.0865 -0.3103
50785SOL    HW258319   0.356   8.535   2.442 -0.1888  1.1391  0.4237
50786SOL     OW58320  10.995   7.827   8.454  0.5313  0.1557 -0.1662
50786SOL    HW158321  11.053   7.754   8.476  1.5068  0.0403 -2.8233
50786SOL    HW258322  10.912   7.785   8.430  0.3479  0.1096  0.5137
50787SOL     OW58323   0.713  10.793   8.967 -0.3433  0.2086  0.3671
50787SOL    HW158324   0.737  10.703   8.992 -0.7838 -0.4312 -1.3807
50787SOL    HW258325   0.619  10.799   8.985 -0.1782  0.5820  1.1603
50788SOL     OW58326  11.987   4.798   0.995 -0.9821 -0.1831 -0.8285
50788SOL    HW158327  12.006   4.704   1.002 -1.8960 -0.2990  0.5351
50788SOL    HW258328  12.032   4.826   0.915  0.2150 -1.5458 -0.6684
50789SOL     OW58329   2.666   0.111   4.053 -0.1603  0.2017  0.0754
50789SOL    HW158330   2.645   0.043   4.118  1.2841 -1.2318 -0.9094
50789SOL    HW258331   2.584   0.123   4.004 -0.2715 -1.2822 -0.1359
50790SOL     OW58332   5.503   2.073   3.398 -0.2312  0.6329  0.4025
50790SOL    HW158333   5.454   2.047   3.321 -0.9549  0.8063  0.7893
50790SOL    HW258334   5.479   2.165   3.412  0.5047  0.8298  0.3729
50791SOL     OW58335   7.184  11.224   2.797 -0.2805  0.3039  0.4818
50791SOL    HW158336   7.150  11.141   2.763 -0.6934  0.0509  1.4940
50791SOL    HW258337   7.152  11.289   2.735  0.8415 -0.3690 -0.8638
50792SOL     OW58338   4.616   6.461  11.326  0.5387  0.6829  0.1582
50792SOL    HW158339   4.686   6.525  11.314 -0.4020  1.7890  0.4886
50792SOL    HW258340   4.570   6.459  11.242  0.1232  0.9723  0.3794
50793SOL     OW58341   0.735  10.580   4.523 -0.2452  0.2460  0.1342
50793SOL    HW158342   0.802  10.538   4.577  0.6796  0.3804 -0.8730
50793SOL    HW258343   0.759  10.673   4.523  0.4716  0.0925 -1.4323
50794SOL     OW58344  12.417   1.662   4.347  0.0475 -0.0307 -0.2101
50794SOL    HW158345  12.334   1.628   4.314  0.0191 -0.2734  0.1098
50794SOL    HW258346  12.483   1.622   4.290 -0.0773  0.4580 -0.7043
50795SOL     OW58347   5.104   9.704   0.240  0.2764 -0.2238 -0.1681
50795SOL    HW158348   5.182   9.745   0.202  0.5717 -1.0990 -0.5319
50795SOL    HW258349   5.047   9.777   0.262  0.2866  0.3510 -1.8862
50796SOL     OW58350   5.338   5.686  12.208  0.1453 -0.1585  0.0664
50796SOL    HW158351   5.290   5.624  12.152 -0.4481 -0.5874  1.0234
50796SOL    HW258352   5.351   5.763  12.153  0.1600 -0.8112 -0.8793
50797SOL     OW58353   1.455   5.323   4.073  0.8739 -0.2863  0.2090
50797SOL    HW158354   1.504   5.386   4.020  0.9792 -0.9760 -0.5513
50797SOL    HW258355   1.384   5.373   4.111  1.0083  0.3135 -0.3125
50798SOL     OW58356   1.643   3.576   2.153 -0.0498 -0.8226 -0.3146
50798SOL    HW158357   1.675   3.649   2.101  3.6928 -2.7215 -1.0742
50798SOL    HW258358   1.647   3.607   2.244  1.8345 -0.1091 -0.5965
50799SOL     OW58359   3.008  10.190   8.970  0.1887 -0.3921 -0.3820
50799SOL    HW158360   2.971  10.260   8.916  2.1178 -0.0612 -1.3773
50799SOL    HW258361   2.985  10.109   8.924  3.7015 -0.0502 -3.2028
50800SOL     OW58362   5.006  11.455   3.187 -0.2154  0.1249  0.1451
50800SOL    HW158363   5.076  11.444   3.251 -1.3352 -0.6678  1.2863
50800SOL    HW258364   5.045  11.509   3.118  2.4394 -2.6258 -0.7216
50801SOL     OW58365   6.982   7.072   6.121  0.2945 -0.7514 -0.8017
50801SOL    HW158366   7.073   7.054   6.144  0.3061  0.6297  0.4581
50801SOL    HW258367   6.941   7.097   6.204 -1.2301 -1.3162 -1.3470
50802SOL     OW58368   6.328   4.514   6.287  0.5584  0.2313 -0.0476
50802SOL    HW158369   6.302   4.588   6.343 -3.2992 -0.5045 -0.6109
50802SOL    HW258370   6.294   4.536   6.201 -1.9616 -2.6530  0.0545
50803SOL     OW58371   3.310   5.150   9.881 -0.2266 -0.1910 -0.0882
50803SOL    HW158372   3.265   5.230   9.853 -0.9266  0.5471  2.8563
50803SOL    HW258373   3.239   5.091   9.905  0.1585  0.6508  3.7158
50804SOL     OW58374  10.153   9.970   9.167  0.4170  0.1803  0.2997
50804SOL    HW158375  10.065   9.984   9.133  0.2590 -0.6490  0.3427
50804SOL    HW258376  10.139   9.928   9.252  0.8605 -0.6355 -0.0213
50805SOL     OW58377   9.959  12.103   6.714 -1.2437  0.1924 -0.4692
50805SOL    HW158378  10.025  12.080   6.648 -0.4590 -0.2670  0.4519
50805SOL    HW258379   9.947  12.197   6.704 -1.0034  0.1620 -1.1384
50806SOL     OW58380   9.317   9.763   1.071  0.1043  0.6597  0.1024
50806SOL    HW158381   9.330   9.693   1.135 -0.1866  0.3046 -0.2197
50806SOL    HW258382   9.396   9.759   1.016 -1.5852 -2.0726 -2.3975
50807SOL     OW58383   7.489   7.323  12.099  0.2199 -0.3039  0.4161
50807SOL    HW158384   7.532   7.382  12.162 -1.9748  1.6704  0.2045
50807SOL    HW258385   7.453   7.252  12.153 -1.2035  1.1009  1.4073
50808SOL     OW58386   7.983   8.709  10.177  0.4780  0.4438 -0.7373
50808SOL    HW158387   7.968   8.642  10.245 -2.1876  0.4635 -1.2167
50808SOL    HW258388   7.983   8.792  10.225 -2.2240  0.5308 -0.7421
50809SOL     OW58389   9.497  11.626   9.160 -0.3541 -0.2538  0.5148
50809SOL    HW158390   9.556  11.686   9.114 -1.4830  0.3409 -0.2220
50809SOL    HW258391   9.511  11.644   9.253 -0.0540  0.5451  0.3179
50810SOL     OW58392   1.225   6.132   7.798 -0.1004  0.5653  0.1268
50810SOL    HW158393   1.188   6.133   7.886  2.4184  2.7267  1.2917
50810SOL    HW258394   1.202   6.218   7.761 -1.6257 -0.5254 -1.6220
50811SOL     OW58395   8.052   1.460  11.400  0.0425  0.2996  0.1151
50811SOL    HW158396   7.973   1.511  11.383  0.3607  1.0769  0.8876
50811SOL    HW258397   8.047   1.387  11.338 -1.0102  0.6222 -0.2066
50812SOL     OW58398  10.833   3.608   8.653  0.1842  0.3626  0.4943
50812SOL    HW158399  10.820   3.702   8.670  1.0995  0.4804  0.6044
50812SOL    HW258400  10.926   3.600   8.633  0.0243 -0.4646  0.0359
50813SOL     OW58401   2.952   0.815   9.015  0.4117  0.2364  0.2502
50813SOL    HW158402   2.987   0.743   8.962  1.1684  0.6124  0.2241
50813SOL    HW258403   3.029   0.855   9.055 -0.0862  0.4005  1.0834
50814SOL     OW58404   1.565   6.628   8.119 -0.7535  0.5313 -0.4386
50814SOL    HW158405   1.561   6.574   8.040 -0.2011  0.7680 -0.6315
50814SOL    HW258406   1.552   6.565   8.191 -1.1104  0.2956 -0.7028
50815SOL     OW58407   6.698  12.097   8.416  0.1919  0.1151 -0.0043
50815SOL    HW158408   6.675  12.116   8.324  0.2715  0.7573  0.1044
50815SOL    HW258409   6.696  12.002   8.421  0.9015  0.0346 -0.8650
50816SOL     OW58410  12.313   8.171   8.902 -0.1984  0.2620  0.9553
50816SOL    HW158411  12.404   8.180   8.874 -0.0841 -0.3858  1.1025
50816SOL    HW258412  12.275   8.108   8.840 -1.0222  1.7757 -0.1746
50817SOL     OW58413   3.957   0.355   0.496  0.0337  0.1911  0.3988
50817SOL    HW158414   4.043   0.397   0.489 -0.3217  0.8146 -0.6306
50817SOL    HW258415   3.898   0.426   0.523 -0.4289  0.1702 -0.5126
50818SOL     OW58416   4.142  10.289   4.108 -0.5333  0.1599 -0.6288
50818SOL    HW158417   4.080  10.218   4.092  0.1218 -0.2625 -1.3490
50818SOL    HW258418   4.213  10.274   4.046 -0.9816  2.1852 -1.7452
50819SOL     OW58419   2.800   8.506   0.077  0.2468  0.0559  0.3493
50819SOL    HW158420   2.751   8.588   0.077  0.8463  0.5752 -2.9881
50819SOL    HW258421   2.741   8.442   0.037  0.7569 -0.4267  0.3494
50820SOL     OW58422  12.178   5.118   6.967 -0.3419 -1.1139  0.0833
50820SOL    HW158423  12.237   5.044   6.986  1.6432  1.0297  3.0784
50820SOL    HW258424  12.092   5.088   6.995  0.3722 -2.3938  1.0341
50821SOL     OW58425   5.368   9.813   3.234  0.6023 -0.1593 -0.2986
50821SOL    HW158426   5.292   9.773   3.276  1.6413 -1.5184  0.3747
50821SOL    HW258427   5.397   9.881   3.295  1.6297 -1.5960  0.8806
50822SOL     OW58428   8.434   8.337   4.108  0.8417  0.2963  0.0765
50822SOL    HW158429   8.352   8.357   4.063  0.0056 -0.7068  1.0909
50822SOL    HW258430   8.477   8.273   4.051 -0.6609 -1.7176  1.0659
50823SOL     OW58431   3.883   3.622  10.365  0.2547 -0.2419 -0.0509
50823SOL    HW158432   3.916   3.632  10.454  1.3848 -0.8399 -0.3818
50823SOL    HW258433   3.920   3.696  10.317  0.3195 -0.3737 -0.2040
50824SOL     OW58434   9.934   0.935   2.176 -0.3002 -0.1977  0.3001
50824SOL    HW158435   9.982   0.973   2.250  0.0536 -1.1251  0.5626
50824SOL    HW258436   9.854   0.899   2.215 -1.2118  1.2904 -0.1282
50825SOL     OW58437   2.183   1.730   1.231  0.0058 -0.0898 -0.2914
50825SOL    HW158438   2.195   1.818   1.196  0.8355 -0.4752 -1.0121
50825SOL    HW258439   2.265   1.685   1.213  0.3023 -0.4734  1.7691
50826SOL     OW58440   4.674   4.459   1.587 -0.2007  0.8785 -0.2536
50826SOL    HW158441   4.729   4.532   1.617  1.0897  0.0316 -0.4674
50826SOL    HW258442   4.659   4.477   1.494  2.0373 -0.2237 -0.9020
50827SOL     OW58443   4.580  12.207   5.423  0.0759  0.8955 -0.0651
50827SOL    HW158444   4.487  12.228   5.423  0.1412  1.1828  0.0005
50827SOL    HW258445   4.622  12.284   5.459  0.3518  0.8146 -0.2105
50828SOL     OW58446   1.484   0.045   2.521 -0.1725 -0.3591  0.5281
50828SOL    HW158447   1.491  -0.050   2.531  1.7821 -0.5007 -1.3985
50828SOL    HW258448   1.542   0.066   2.448 -0.6962  2.3167  0.7661
50829SOL     OW58449   5.368   5.770   5.951  0.1974 -0.0285 -0.6003
50829SOL    HW158450   5.293   5.799   6.003 -0.4320  1.8181 -2.3792
50829SOL    HW258451   5.412   5.705   6.005 -2.3800 -0.7756  0.7333
50830SOL     OW58452   9.097   8.987   1.918 -0.9555 -0.3304 -0.3596
50830SOL    HW158453   9.036   9.043   1.871 -0.3797 -0.8906 -1.8167
50830SOL    HW258454   9.181   8.999   1.874 -0.2741 -0.4935  0.8458
50831SOL     OW58455   9.269   8.550   1.815 -0.4414 -0.6269  0.2017
50831SOL    HW158456   9.285   8.492   1.741  0.2103 -0.7945  0.4682
50831SOL    HW258457   9.211   8.500   1.873  2.5878 -2.3869  1.9767
50832SOL     OW58458   3.152   7.773  10.315 -0.1699  0.3920  0.1009
50832SOL    HW158459   3.227   7.806  10.365 -0.4921  0.5500  0.4912
50832SOL    HW258460   3.188   7.751  10.229  0.5866 -0.7207  0.6744
50833SOL     OW58461  11.741   8.361  11.589  0.3655  0.1513  0.7944
50833SOL    HW158462  11.714   8.288  11.534 -0.6835  1.4926 -0.5806
50833SOL    HW258463  11.808   8.325  11.646  0.5554 -1.6463 -0.4737
50834SOL     OW58464  10.665   0.261   8.939 -0.1045 -0.4986  0.5911
50834SOL    HW158465  10.636   0.259   8.848  0.1573 -2.9768  0.4856
50834SOL    HW258466  10.594   0.220   8.988  0.2862 -0.3340  1.3093
50835SOL     OW58467   6.782   2.079   9.129 -0.4319  0.4760 -0.0992
50835SOL    HW158468   6.804   2.039   9.213  1.3224  0.7799 -0.3918
50835SOL    HW258469   6.695   2.044   9.108  0.6561 -2.6346  0.0332
50836SOL     OW58470   6.793   5.178   1.227 -0.0910  0.0682 -0.1477
50836SOL    HW158471   6.798   5.174   1.323 -0.1439 -1.7738 -0.1764
50836SOL    HW258472   6.755   5.093   1.202  2.7189 -0.7708 -1.9604
50837SOL     OW58473   7.326   4.606   8.729 -0.6923  0.2593 -0.0064
50837SOL    HW158474   7.336   4.585   8.821  1.3352  0.1869 -0.1828
50837SOL    HW258475   7.328   4.521   8.684 -0.5024  0.3476 -0.1728
50838SOL     OW58476   0.920   2.078   1.364  0.4299  0.5497 -0.1478
50838SOL    HW158477   0.831   2.097   1.333  0.6681  2.2917  0.0960
50838SOL    HW258478   0.976   2.095   1.287  0.6756  1.0431  0.1327
50839SOL     OW58479   6.110   0.341   3.521 -0.4731 -0.1718 -0.5011
50839SOL    HW158480   6.190   0.370   3.475  0.3991 -1.9653 -0.2049
50839SOL    HW258481   6.106   0.397   3.598  0.3840  0.0873 -0.6281
50840SOL     OW58482   4.866   4.382   9.384 -0.0021 -0.2190  0.3377
50840SOL    HW158483   4.895   4.457   9.331 -2.2844  0.1765 -0.4534
50840SOL    HW258484   4.822   4.324   9.322  1.3355 -2.0694  1.0149
50841SOL     OW58485  11.846   5.257   7.193 -0.0237  0.3059 -0.5643
50841SOL    HW158486  11.826   5.340   7.237 -1.5601 -1.9273  3.4199
50841SOL    HW258487  11.935   5.236   7.222 -0.5808 -0.5913  0.5533
50842SOL     OW58488   7.092  11.596   9.984  0.3251  0.1192  0.0495
50842SOL    HW158489   7.006  11.554   9.976  1.1433 -1.4333 -1.1432
50842SOL    HW258490   7.137  11.543  10.050  0.3951  0.9295  0.6687
50843SOL     OW58491   8.789  10.517   6.486  0.5498  0.2890 -0.2493
50843SOL    HW158492   8.787  10.612   6.492  2.4220  0.2764  2.0255
50843SOL    HW258493   8.698  10.490   6.491  0.0092  1.9533 -0.7949
50844SOL     OW58494   0.536   6.736   8.708  0.3272 -0.8606 -0.1304
50844SOL    HW158495   0.545   6.659   8.652  1.7094 -3.0542  2.8069
50844SOL    HW258496   0.536   6.700   8.797  1.1351  2.5718  1.4062
50845SOL     OW58497   4.142  11.742   6.883 -0.5274 -0.1867 -0.0026
50845SOL    HW158498   4.230  11.768   6.857 -0.5899 -1.1279 -1.2252
50845SOL    HW258499   4.085  11.805   6.839 -0.4927  0.3281  0.6660
50846SOL     OW58500   9.713   8.358   5.679 -0.7605  1.0011 -0.0240
50846SOL    HW158501   9.722   8.345   5.585  0.8732  0.7284  0.1388
50846SOL    HW258502   9.687   8.450   5.688 -0.4731  1.1537 -0.7168
50847SOL     OW58503   5.424   5.294   0.410  0.1645  0.0238 -0.2130
50847SOL    HW158504   5.440   5.266   0.319  0.5583 -0.3206 -0.0399
50847SOL    HW258505   5.506   5.275   0.456 -0.2907 -0.5430  0.3900
50848SOL     OW58506   8.332   4.992   4.441  0.5147  0.2277 -0.4325
50848SOL    HW158507   8.296   5.013   4.527  0.8107 -1.2487  0.0796
50848SOL    HW258508   8.278   5.042   4.380 -0.5502  0.3001  0.5224
50849SOL     OW58509   5.786  10.853   3.778  0.1297 -0.0667  0.9661
50849SOL    HW158510   5.727  10.905   3.724 -0.1894  0.1382  1.5099
50849SOL    HW258511   5.795  10.770   3.730  0.1293  0.2397  0.4257
50850SOL     OW58512   7.378  11.155   2.224 -0.2463  0.5238 -0.1870
50850SOL    HW158513   7.308  11.214   2.197 -1.5632  0.1003  2.0773
50850SOL    HW258514   7.383  11.090   2.153 -0.7533  1.6799 -1.3221
50851SOL     OW58515  11.241  11.113   8.923 -0.4338  0.5012  0.4254
50851SOL    HW158516  11.253  11.121   8.829 -0.4134  0.7858  0.4509
50851SOL    HW258517  11.331  11.114   8.958 -0.4842  2.7618  0.6307
50852SOL     OW58518   4.904  12.055   3.554 -0.8003  0.4522 -0.5902
50852SOL    HW158519   4.999  12.049   3.543 -0.7601  1.0030 -0.5371
50852SOL    HW258520   4.880  12.141   3.520 -1.4203 -0.0731 -1.5452
50853SOL     OW58521   0.258   6.332   8.603  0.8884 -0.0417  0.0849
50853SOL    HW158522   0.216   6.343   8.689 -0.9946  0.6608 -0.8700
50853SOL    HW258523   0.312   6.254   8.612  0.9029  0.1416  1.9683
50854SOL     OW58524   4.276   7.983   7.000  0.0229 -0.0415 -0.4256
50854SOL    HW158525   4.185   8.000   7.023  0.1503  0.5216 -0.3026
50854SOL    HW258526   4.294   8.043   6.927  0.1401 -0.5284 -0.7985
50855SOL     OW58527  11.319   6.622   9.841  0.9882  0.1165  0.1799
50855SOL    HW158528  11.287   6.690   9.900  0.0037  0.3083 -0.5383
50855SOL    HW258529  11.364   6.560   9.898 -0.7196 -0.1876  1.2953
50856SOL     OW58530   2.564  10.508  10.119 -0.4971  0.9754  0.2567
50856SOL    HW158531   2.623  10.537  10.049  0.0439 -1.0476 -0.1856
50856SOL    HW258532   2.497  10.456  10.075 -0.4126  0.0500  1.1822
50857SOL     OW58533   7.143   9.736   3.473  0.7419 -0.3936  0.8923
50857SOL    HW158534   7.122   9.644   3.483  0.5660 -0.8166 -2.3544
50857SOL    HW258535   7.226   9.737   3.425  1.7304  1.2062  2.4839
50858SOL     OW58536   1.843   1.761   8.552 -0.5442  0.0522 -0.6619
50858SOL    HW158537   1.914   1.759   8.487  1.0500 -0.7465  1.0225
50858SOL    HW258538   1.798   1.677   8.541 -1.2210  0.5249 -1.6770
50859SOL     OW58539   3.417  11.812   6.163 -0.3241  0.0678  0.0858
50859SOL    HW158540   3.433  11.860   6.245 -0.5902 -2.1988  1.5492
50859SOL    HW258541   3.441  11.874   6.094  0.6374  1.8117  1.8778
50860SOL     OW58542   0.905   7.381   5.790  0.2902 -0.6141 -0.3730
50860SOL    HW158543   0.949   7.314   5.737  1.2687  0.7719 -1.3855
50860SOL    HW258544   0.966   7.398   5.862  0.4873 -0.1564 -0.6421
50861SOL     OW58545   1.323   3.755   7.276 -0.4841  0.4697 -0.6524
50861SOL    HW158546   1.256   3.820   7.255  0.0668  1.1085 -0.4592
50861SOL    HW258547   1.302   3.728   7.366  0.4567  1.8831  0.0329
50862SOL     OW58548   0.845   5.384   3.724 -0.0772 -0.0728  0.4773
50862SOL    HW158549   0.794   5.360   3.646  1.2728 -0.1668 -0.4193
50862SOL    HW258550   0.881   5.301   3.755  1.6206  0.2584 -0.4637
50863SOL     OW58551   6.592   0.619   8.860 -0.1773  0.0223  0.2297
50863SOL    HW158552   6.499   0.595   8.861  0.3178 -2.1571 -0.4484
50863SOL    HW258553   6.594   0.707   8.897 -2.5649  0.3507 -0.2359
50864SOL     OW58554  11.717   6.090   1.066  0.0935 -0.3589  0.3679
50864SOL    HW158555  11.797   6.133   1.036 -0.5298  0.1286 -0.6640
50864SOL    HW258556  11.709   6.013   1.010 -0.4652 -0.0825  0.0623
50865SOL     OW58557   5.150   6.457   5.211  0.3250  0.0032 -0.1423
50865SOL    HW158558   5.177   6.434   5.300  1.5772 -0.9074 -0.7467
50865SOL    HW258559   5.231   6.469   5.163 -0.3351  1.1830 -1.0169
50866SOL     OW58560   9.468   6.685   1.989  0.0289  0.0883  0.5205
50866SOL    HW158561   9.468   6.693   2.085  0.4594  0.6910  0.4792
50866SOL    HW258562   9.501   6.770   1.959  1.0579 -0.5338 -0.1268
50867SOL     OW58563   6.735   0.516   6.542 -0.2719 -0.2407 -0.5450
50867SOL    HW158564   6.768   0.530   6.631  0.6302 -0.4128 -0.8430
50867SOL    HW258565   6.682   0.594   6.524 -1.2086 -0.6154  0.4568
50868SOL     OW58566   0.198   7.953  11.811 -0.4276  0.2768 -0.2634
50868SOL    HW158567   0.239   7.975  11.727 -0.6871  2.1944  0.0738
50868SOL    HW258568   0.118   7.907  11.787 -0.2106  0.2850 -1.0527
50869SOL     OW58569   0.903   9.513  10.198 -0.3914  0.1306 -0.2641
50869SOL    HW158570   0.881   9.546  10.285 -0.4476  1.0454 -0.6093
50869SOL    HW258571   0.830   9.455  10.174 -0.4402 -0.0158  0.2399
50870SOL     OW58572   9.512  11.933   9.931  0.1888 -0.2398 -0.3801
50870SOL    HW158573   9.493  12.027   9.931  1.8666  0.1746 -2.3951
50870SOL    HW258574   9.592  11.925   9.981  0.4933 -0.4632 -0.8916
50871SOL     OW58575   5.655   9.919  11.656 -0.2693  0.1427 -0.0141
50871SOL    HW158576   5.616   9.953  11.575  2.4519 -2.0760 -2.4991
50871SOL    HW258577   5.735   9.971  11.667  0.7947 -1.3636 -0.3982
50872SOL     OW58578  11.972   4.620   2.419 -0.8160 -0.3401 -0.0286
50872SOL    HW158579  12.055   4.627   2.466 -0.7536 -0.5584 -0.1074
50872SOL    HW258580  11.926   4.549   2.463 -0.2281 -1.4177 -1.1102
50873SOL     OW58581  10.651  11.878  10.522  0.0280  0.0690 -0.3544
50873SOL    HW158582  10.716  11.890  10.453  1.1732 -0.8710  0.5193
50873SOL    HW258583  10.699  11.896  10.603 -0.4668 -1.7053  0.3828
50874SOL     OW58584   3.917   4.514   1.906  0.6646  0.0150  0.1777
50874SOL    HW158585   3.840   4.566   1.932  0.4712 -1.0411  1.7977
50874SOL    HW258586   3.985   4.579   1.890 -0.0745  0.8667  0.4083
50875SOL     OW58587   6.582   3.930   9.419 -0.1866 -0.0253  0.6353
50875SOL    HW158588   6.667   3.910   9.457 -0.0554 -0.6022  0.0658
50875SOL    HW258589   6.550   3.846   9.385  0.4416  0.6979 -1.9740
50876SOL     OW58590   2.001   6.237   9.982  0.0510 -0.5271 -0.5141
50876SOL    HW158591   1.951   6.223   9.902 -0.5359  0.5213 -0.3549
50876SOL    HW258592   2.022   6.149  10.014 -0.6899 -0.9652 -1.2023
50877SOL     OW58593   1.096   0.418   1.773  0.1624  0.0004  0.3803
50877SOL    HW158594   1.103   0.509   1.804 -1.7854  0.0954  0.6747
50877SOL    HW258595   1.150   0.415   1.694  0.6562  1.2703  0.6412
50878SOL     OW58596   2.626  10.373   6.559  0.0274 -0.1157  0.1617
50878SOL    HW158597   2.607  10.462   6.528  0.3774  0.5311  1.7089
50878SOL    HW258598   2.643  10.323   6.479  0.4910  1.3691 -0.7158
50879SOL     OW58599   6.360   0.878   6.979  0.6135 -0.4314  0.9519
50879SOL    HW158600   6.434   0.938   6.982  1.6477 -1.6763  1.5840
50879SOL    HW258601   6.385   0.812   6.914 -1.1832  0.6106 -0.8941
50880SOL     OW58602   4.203  10.857   9.772  0.1120  0.0248 -0.0676
50880SOL    HW158603   4.122  10.868   9.724  1.1538 -2.8848 -2.8623
50880SOL    HW258604   4.181  10.797   9.844 -0.4578  0.3244  0.0092
50881SOL     OW58605   9.542   2.592   4.070  0.1994  0.2966 -0.2697
50881SOL    HW158606   9.518   2.653   4.140 -0.3313  0.4815 -0.6060
50881SOL    HW258607   9.458   2.567   4.031  0.5616  1.2464 -1.7204
50882SOL     OW58608   1.194  10.115   6.396  0.2751  0.1526 -0.0550
50882SOL    HW158609   1.179  10.044   6.458 -0.4084  2.2003  2.2562
50882SOL    HW258610   1.111  10.162   6.393  0.7271  0.9128 -1.4838
50883SOL     OW58611   5.133  12.299  10.082  0.1681 -0.3064  0.2027
50883SOL    HW158612   5.098  12.282   9.995  1.1402 -0.8559 -0.1045
50883SOL    HW258613   5.122  12.215  10.128 -1.0907  0.2106  0.8977
50884SOL     OW58614   1.056   3.617   8.600 -0.0539  0.7033 -0.5913
50884SOL    HW158615   1.024   3.535   8.639  0.6008  0.5633 -0.3286
50884SOL    HW258616   1.017   3.619   8.513  1.6894 -1.0298 -1.4987
50885SOL     OW58617  11.178  10.054   1.675  0.5228 -0.2764 -0.7225
50885SOL    HW158618  11.262  10.100   1.665 -0.1590  1.1115 -0.3220
50885SOL    HW258619  11.132  10.072   1.593  0.3249 -0.4119 -0.6398
50886SOL     OW58620   1.579   2.518   3.048  0.3014 -0.5814 -0.3269
50886SOL    HW158621   1.537   2.493   2.966 -0.2042 -0.7563 -0.0194
50886SOL    HW258622   1.525   2.590   3.081  0.4060 -0.6248 -0.0604
50887SOL     OW58623  10.113   4.991   5.813 -0.3772 -0.4438 -0.4325
50887SOL    HW158624  10.081   4.901   5.814 -0.9037 -0.2697 -0.8520
50887SOL    HW258625  10.113   5.015   5.721  3.3802 -1.2403 -0.7973
50888SOL     OW58626   0.805   5.673   7.397  0.1410  0.4642 -0.0622
50888SOL    HW158627   0.716   5.641   7.408  1.1864 -2.0865  1.9263
50888SOL    HW258628   0.861   5.599   7.420  2.8000  2.1242 -0.6959
50889SOL     OW58629   7.030  12.074   4.853  0.5382 -0.4762 -0.2282
50889SOL    HW158630   7.027  12.169   4.850  1.5621 -0.4184  0.3109
50889SOL    HW258631   7.062  12.053   4.941  1.0634 -1.2912 -0.5980
50890SOL     OW58632   2.706   5.615   6.862  0.0679 -0.2223 -0.8835
50890SOL    HW158633   2.616   5.638   6.839 -0.5150 -0.1583  1.2590
50890SOL    HW258634   2.703   5.521   6.880  0.8554 -0.5980 -2.5273
50891SOL     OW58635   9.106  10.229   3.747 -0.0851  0.2920  0.2157
50891SOL    HW158636   9.112  10.175   3.826  0.6895  2.2647  1.5956
50891SOL    HW258637   9.181  10.289   3.753 -0.5944  1.1677 -1.4978
50892SOL     OW58638   3.508   3.494   7.790  0.2216  0.9092  0.2888
50892SOL    HW158639   3.521   3.497   7.885  0.3294 -1.0070  0.3702
50892SOL    HW258640   3.419   3.527   7.777  0.0208  0.7082  1.1009
50893SOL     OW58641   6.937   9.383  10.808 -0.1353  0.4821  0.4571
50893SOL    HW158642   6.869   9.389  10.875  0.9327 -0.3217  1.6864
50893SOL    HW258643   7.015   9.418  10.851  0.2583  1.3565 -0.9073
50894SOL     OW58644   5.975  12.388   1.592  0.1300 -0.1127  0.0686
50894SOL    HW158645   5.957  12.480   1.575  0.7280  0.1944  1.0063
50894SOL    HW258646   5.919  12.365   1.666  0.3239 -0.3701  0.1389
50895SOL     OW58647   8.714  11.483   5.337  0.0099  0.2765  0.8466
50895SOL    HW158648   8.705  11.405   5.281 -1.5454 -0.5825  2.2040
50895SOL    HW258649   8.763  11.451   5.413  0.2312  0.8996  0.9680
50896SOL     OW58650   3.072   8.295  11.090 -0.2658  0.4185 -0.1072
50896SOL    HW158651   3.145   8.272  11.032  0.3301 -2.6268  1.6224
50896SOL    HW258652   3.114   8.319  11.173 -1.1579 -0.5699  0.6558
50897SOL     OW58653   3.569   0.764   0.389  0.1462  0.6633  0.1077
50897SOL    HW158654   3.527   0.750   0.305 -0.6304  1.2595  0.3824
50897SOL    HW258655   3.640   0.826   0.371  0.9438 -0.3605 -0.3602
50898SOL     OW58656   1.059   1.971   6.752 -0.1860  0.4906 -0.2288
50898SOL    HW158657   1.080   2.050   6.801 -1.7295 -0.4047  2.0163
50898SOL    HW258658   0.984   1.995   6.697 -0.0645  0.8056 -0.2591
50899SOL     OW58659   8.820   6.748   3.468 -0.1645 -0.5961  0.0114
50899SOL    HW158660   8.769   6.670   3.491 -1.9107  0.2158 -0.8618
50899SOL    HW258661   8.825   6.798   3.550 -2.1465  0.0173 -0.1965
50900SOL     OW58662  10.466   0.930   6.530 -0.0642  0.4011 -0.3100
50900SOL    HW158663  10.456   0.999   6.595 -1.0603  0.7188 -0.7805
50900SOL    HW258664  10.380   0.924   6.487 -0.1051 -1.3462 -0.0725
50901SOL     OW58665   1.382   6.391   2.692  0.3310 -0.2235 -0.4139
50901SOL    HW158666   1.424   6.334   2.755  0.8531  1.6854  1.0629
50901SOL    HW258667   1.402   6.352   2.607  2.9464 -0.7738  0.3691
50902SOL     OW58668  10.582   4.257   7.885 -0.1257  0.0173 -0.0993
50902SOL    HW158669  10.614   4.167   7.883  0.1177  0.1129 -0.7767
50902SOL    HW258670  10.612   4.295   7.802 -0.5018  0.6266  0.0380
50903SOL     OW58671   1.234   9.239   1.939 -0.1885 -0.0292  0.2445
50903SOL    HW158672   1.267   9.322   1.972  0.4604 -0.5909  1.0353
50903SOL    HW258673   1.301   9.209   1.877 -0.6638  0.2702 -0.4297
50904SOL     OW58674   5.987  11.733   2.354  0.1611 -0.0331  0.0075
50904SOL    HW158675   6.081  11.737   2.373  0.3927 -1.5788 -0.6328
50904SOL    HW258676   5.944  11.757   2.436  1.1251 -0.5388  0.6743
50905SOL     OW58677   7.657   2.949   6.181 -0.1499 -0.4473  0.1919
50905SOL    HW158678   7.567   2.932   6.153  0.1021 -0.1836 -0.8320
50905SOL    HW258679   7.673   3.040   6.156  0.4255 -0.5156  0.3001
50906SOL     OW58680   4.382   3.888  11.047  0.6312  0.2226  0.2911
50906SOL    HW158681   4.336   3.969  11.024  0.0156  0.0476  0.8822
50906SOL    HW258682   4.345   3.863  11.132 -0.5870 -1.7024 -0.7356
50907SOL     OW58683   6.825   3.353   1.800  0.3190 -0.2624 -0.5474
50907SOL    HW158684   6.778   3.290   1.746 -0.0735 -1.4486  1.0799
50907SOL    HW258685   6.916   3.324   1.798  0.3696 -0.0881 -0.8443
50908SOL     OW58686   6.547   0.139   8.562  0.0094 -0.0258 -0.4124
50908SOL    HW158687   6.537   0.152   8.467 -0.6009  0.7935 -0.2442
50908SOL    HW258688   6.458   0.125   8.593  0.1813 -0.0096  0.0878
50909SOL     OW58689   0.736   0.911   4.707 -0.2762  0.0483  0.1783
50909SOL    HW158690   0.652   0.901   4.752  0.9279 -0.0849  2.5585
50909SOL    HW258691   0.758   0.822   4.678 -0.4829 -0.1016  0.4739
50910SOL     OW58692   1.855   5.406   1.267  0.5335 -0.3998  0.4851
50910SOL    HW158693   1.839   5.472   1.200 -2.2748 -0.6938  0.7502
50910SOL    HW258694   1.945   5.421   1.295  1.1065  1.0592 -1.8586
50911SOL     OW58695   4.405  12.332  11.359  0.5294 -0.9197 -0.2739
50911SOL    HW158696   4.337  12.367  11.301  0.5090 -2.4079 -1.2212
50911SOL    HW258697   4.422  12.244  11.324  1.9241 -1.1097  0.8219
50912SOL     OW58698   2.513  11.203   0.316 -0.9359  1.0720 -0.2083
50912SOL    HW158699   2.594  11.211   0.366 -1.6155  1.8321  0.8076
50912SOL    HW258700   2.506  11.286   0.269 -0.2780  0.3455 -1.6396
50913SOL     OW58701   6.463   3.742   2.028  0.2616  0.0308 -0.2040
50913SOL    HW158702   6.498   3.751   1.939 -1.8629  0.6932 -1.0683
50913SOL    HW258703   6.504   3.813   2.077 -0.1587  1.0753 -1.2891
50914SOL     OW58704   4.843   5.013   0.556  0.3470 -0.1944  0.2610
50914SOL    HW158705   4.779   5.040   0.490  1.6629  0.3989 -0.8349
50914SOL    HW258706   4.846   5.086   0.618 -0.5729 -0.5601  0.7528
50915SOL     OW58707   9.278   7.281   7.930 -0.1187  0.3840 -0.3542
50915SOL    HW158708   9.356   7.331   7.955 -1.2384  1.6045  0.8423
50915SOL    HW258709   9.295   7.255   7.839  1.1100  1.7429 -0.5545
50916SOL     OW58710   8.712   4.164   1.142  0.0765  0.2464  0.2840
50916SOL    HW158711   8.657   4.163   1.220  0.0884 -2.3029  0.3477
50916SOL    HW258712   8.801   4.161   1.175  0.2256  2.2327  0.1561
50917SOL     OW58713   3.817   7.133  10.881 -0.6748 -0.8459  0.3005
50917SOL    HW158714   3.826   7.038  10.876  0.5900 -0.7259 -0.2698
50917SOL    HW258715   3.828   7.154  10.974 -0.9996 -1.2501  0.4328
50918SOL     OW58716   3.671   0.699  10.156  0.0518  0.4261 -0.2350
50918SOL    HW158717   3.618   0.644  10.214 -1.2964  1.8233 -0.0487
50918SOL    HW258718   3.719   0.757  10.216 -0.6407  1.2580 -0.4652
50919SOL     OW58719   5.498   7.046  12.111 -0.4912  0.4268  0.4673
50919SOL    HW158720   5.407   7.031  12.088 -0.2005 -0.5822 -0.1174
50919SOL    HW258721   5.546   6.977  12.064  0.4787  0.4271  1.4241
50920SOL     OW58722   3.662   4.647   7.607  0.0915 -0.1869 -0.2223
50920SOL    HW158723   3.726   4.592   7.652 -1.1180 -1.5048 -0.0581
50920SOL    HW258724   3.632   4.708   7.674  0.9301  0.2388 -0.2194
50921SOL     OW58725   7.770   7.024   9.925 -0.1266 -0.0402 -0.1029
50921SOL    HW158726   7.679   7.042   9.948  0.1223 -1.4504  2.4069
50921SOL    HW258727   7.772   6.931   9.904  0.8203 -0.1973  0.5879
50922SOL     OW58728   0.593   8.231   6.249 -0.9718  0.0770  0.6956
50922SOL    HW158729   0.664   8.293   6.235 -2.4966  1.7029 -0.3116
50922SOL    HW258730   0.605   8.165   6.182  1.0818 -1.2196  2.2159
50923SOL     OW58731  10.777   2.476   4.061 -0.3481  0.2242  0.0753
50923SOL    HW158732  10.776   2.446   3.970  3.7639  0.2218 -0.1555
50923SOL    HW258733  10.741   2.402   4.110 -0.9100 -0.5297 -1.3856
50924SOL     OW58734   7.023   6.964  10.852  0.2573  0.1021  0.4657
50924SOL    HW158735   7.092   6.965  10.786  1.1936  0.2339  1.4229
50924SOL    HW258736   6.987   6.875  10.847 -1.2690  0.7596 -1.7726
50925SOL     OW58737   8.254   5.889   5.138 -0.6860  0.2364  0.3836
50925SOL    HW158738   8.221   5.943   5.067  1.9297  2.0872  0.4216
50925SOL    HW258739   8.212   5.925   5.217  0.0725  1.4303  0.2638
50926SOL     OW58740   2.400   2.121   1.746  0.0467  0.2468  0.0477
50926SOL    HW158741   2.382   2.084   1.833 -0.7583 -0.3787 -0.3758
50926SOL    HW258742   2.440   2.050   1.697  1.2141  0.8244  0.1177
50927SOL     OW58743   8.844   3.536   6.637  0.2763  0.1018 -0.2231
50927SOL    HW158744   8.938   3.531   6.654  0.0870  1.6326  1.4644
50927SOL    HW258745   8.838   3.538   6.541  2.1640  2.5412 -0.3894
50928SOL     OW58746  12.299   7.980  11.818 -0.4373 -0.3874 -0.0256
50928SOL    HW158747  12.254   7.923  11.756 -0.9986 -0.3569  0.3519
50928SOL    HW258748  12.332   8.052  11.764 -0.7311 -0.4726 -0.3206
50929SOL     OW58749   8.728   5.009   9.784 -0.5197  0.3496 -0.5348
50929SOL    HW158750   8.807   4.957   9.766 -0.8275 -0.2597 -0.1671
50929SOL    HW258751   8.742   5.091   9.737 -0.9638 -0.8777 -2.9810
50930SOL     OW58752   3.252   4.103   8.456  0.3501 -0.1365 -0.4838
50930SOL    HW158753   3.336   4.097   8.502  0.0150  0.6663  0.2634
50930SOL    HW258754   3.264   4.173   8.392  0.7390 -1.0917 -1.4844
50931SOL     OW58755  11.867   2.496   5.416  0.1706  0.7915 -0.0948
50931SOL    HW158756  11.820   2.556   5.357 -0.3653  0.8451  0.3830
50931SOL    HW258757  11.893   2.423   5.360  0.0487  1.0504 -0.4941
50932SOL     OW58758   1.694   3.163   2.056 -0.0423  0.1235 -0.0645
50932SOL    HW158759   1.606   3.157   2.094 -1.5469  0.5104 -3.2117
50932SOL    HW258760   1.694   3.247   2.009  2.3261  0.4894  0.4606
50933SOL     OW58761   4.356   6.834  10.266  0.6808 -0.0410  0.7458
50933SOL    HW158762   4.423   6.850  10.333  0.1936 -0.0614  1.2371
50933SOL    HW258763   4.396   6.769  10.208  1.7940  1.2290  0.0140
50934SOL     OW58764   5.828  12.079   0.781 -0.4690 -0.3383  0.0055
50934SOL    HW158765   5.896  12.017   0.757  0.0402 -0.8723  2.5004
50934SOL    HW258766   5.747  12.043   0.746 -0.0203 -1.8717  0.4887
50935SOL     OW58767   4.381   7.342   0.464 -0.3946 -0.0033  0.0953
50935SOL    HW158768   4.291   7.356   0.494 -0.9487 -0.9526 -1.0416
50935SOL    HW258769   4.394   7.247   0.472  0.2442  0.0292 -0.4545
50936SOL     OW58770   8.943  10.399  11.067  0.7307 -0.5303  0.3851
50936SOL    HW158771   8.890  10.417  11.145  2.0350  1.8561  0.8411
50936SOL    HW258772   8.929  10.475  11.010  3.5598  0.2651  0.5589
50937SOL     OW58773   1.072   7.889   8.786  0.0202 -0.7469  0.3207
50937SOL    HW158774   0.987   7.864   8.823  0.0148 -0.8635  0.2323
50937SOL    HW258775   1.049   7.930   8.702  0.1180 -2.0062 -0.3513
50938SOL     OW58776  11.858   7.828   9.691 -0.4246 -0.2808 -0.2861
50938SOL    HW158777  11.921   7.835   9.764 -1.1092  0.5280  0.2482
50938SOL    HW258778  11.841   7.734   9.683  2.5272 -0.7899 -1.9273
50939SOL     OW58779  11.260  12.312   5.421  0.0066  0.3006  0.0347
50939SOL    HW158780  11.352  12.325   5.400  0.0633  0.6147  0.4609
50939SOL    HW258781  11.260  12.274   5.509 -0.2487 -0.3605 -0.2430
50940SOL     OW58782   3.095   2.304   0.201  0.1566 -0.1354  0.1138
50940SOL    HW158783   3.177   2.337   0.237 -0.1734 -0.8400  1.5976
50940SOL    HW258784   3.044   2.383   0.183  1.9520  0.4697 -3.0704
50941SOL     OW58785   0.799  10.577  11.662 -0.1589 -0.2412  0.2072
50941SOL    HW158786   0.755  10.514  11.719  0.7679 -2.0766 -1.0134
50941SOL    HW258787   0.887  10.542  11.651  0.5617  1.5766 -0.0956
50942SOL     OW58788   1.692   7.072  10.476 -0.7536  0.2066 -0.0507
50942SOL    HW158789   1.778   7.066  10.435 -0.9229  2.0330 -0.7478
50942SOL    HW258790   1.631   7.063  10.403 -1.1477 -0.2970  0.3362
50943SOL     OW58791   0.250   9.574  10.420  0.2224  0.2134 -0.5404
50943SOL    HW158792   0.273   9.491  10.378  0.6219 -0.0794  0.2487
50943SOL    HW258793   0.188   9.615  10.359  2.0752  0.6021 -2.2716
50944SOL     OW58794   0.704   3.688   2.390 -0.5485 -0.3129  0.1204
50944SOL    HW158795   0.725   3.780   2.403  0.2471 -0.5345  0.4541
50944SOL    HW258796   0.789   3.645   2.378 -0.8095 -1.1877  1.2179
50945SOL     OW58797   0.619   8.178   2.341 -0.6162  0.5011 -0.6104
50945SOL    HW158798   0.600   8.186   2.435 -0.7916 -3.1348 -0.1895
50945SOL    HW258799   0.715   8.172   2.337 -0.6563 -0.4641 -0.4768
50946SOL     OW58800   5.249   6.943   3.962 -0.4384  0.0080  0.0646
50946SOL    HW158801   5.263   7.008   3.894 -0.8974 -0.4917 -0.5109
50946SOL    HW258802   5.337   6.926   3.996 -0.3466  1.1984  0.4982
50947SOL     OW58803   0.544   0.072   7.750  0.1022  0.4911 -0.3784
50947SOL    HW158804   0.631   0.067   7.789  0.4921 -0.0708 -1.2810
50947SOL    HW258805   0.554   0.134   7.678 -0.0122 -0.2382 -1.0338
50948SOL     OW58806   5.754   9.470   9.546 -0.4064  0.0841  0.2685
50948SOL    HW158807   5.700   9.401   9.507  0.3836 -0.5463  0.2515
50948SOL    HW258808   5.843   9.435   9.541 -0.0437  0.9467  0.6269
50949SOL     OW58809   0.257  10.227   5.208  0.0916  0.2978 -0.0463
50949SOL    HW158810   0.327  10.280   5.170  2.0667  0.5630  3.5621
50949SOL    HW258811   0.179  10.281   5.201  1.3018  2.1755  0.2841
50950SOL     OW58812   8.011   5.688   4.129  0.1040 -0.3576  0.0785
50950SOL    HW158813   8.057   5.720   4.052 -0.1422 -1.0799 -0.3749
50950SOL    HW258814   7.943   5.630   4.095  0.9267 -1.8743  0.8817
50951SOL     OW58815   1.016   1.319  11.306  0.3808  0.2620  0.2566
50951SOL    HW158816   1.109   1.300  11.320  0.7534  1.6220 -0.2188
50951SOL    HW258817   1.013   1.361  11.220 -0.4337  1.7887  0.9880
50952SOL     OW58818   9.502   5.752   6.587  0.0202  0.1721 -0.4569
50952SOL    HW158819   9.557   5.758   6.510 -0.9855  0.1979 -1.1989
50952SOL    HW258820   9.413   5.764   6.554 -0.4220  0.3128  0.7231
50953SOL     OW58821  10.258   9.312  12.254 -0.5459 -0.5192 -0.2773
50953SOL    HW158822  10.287   9.293  12.343 -1.7808 -2.3086 -0.2097
50953SOL    HW258823  10.339   9.328  12.206  0.1634  0.2300  1.0963
50954SOL     OW58824   3.133   2.484   0.474 -0.1367 -0.0525 -0.6440
50954SOL    HW158825   3.045   2.456   0.448  0.0236 -1.2792  0.0682
50954SOL    HW258826   3.118   2.563   0.526 -0.9523 -1.0260  0.6499
50955SOL     OW58827   2.220  12.142   8.250  0.2375  0.2676  0.3751
50955SOL    HW158828   2.160  12.087   8.300  0.9755 -0.1182  0.8546
50955SOL    HW258829   2.193  12.131   8.159  1.2132 -2.0096  0.3004
50956SOL     OW58830  10.771   0.381   8.551  0.0195 -0.1387  0.1775
50956SOL    HW158831  10.715   0.438   8.498  1.0059 -0.0320 -0.7721
50956SOL    HW258832  10.831   0.341   8.488 -0.4674 -2.0329  0.8562
50957SOL     OW58833   5.117  10.223   6.165 -0.5700  0.4370 -0.3077
50957SOL    HW158834   5.091  10.132   6.176 -1.5362  0.7733  0.3352
50957SOL    HW258835   5.164  10.245   6.246  0.6701  0.1868 -0.9487
50958SOL     OW58836   8.033  10.251   3.115  0.5541  0.0666  0.0441
50958SOL    HW158837   8.025  10.347   3.108  1.7301  0.0339 -2.8991
50958SOL    HW258838   7.945  10.219   3.100  0.2372  0.6647  0.5608
50959SOL     OW58839   5.333   2.176   2.915 -0.4318  0.0503 -0.0647
50959SOL    HW158840   5.362   2.096   2.957 -2.7494 -0.3824  0.8034
50959SOL    HW258841   5.355   2.245   2.977  1.3431  0.1264 -0.7099
50960SOL     OW58842  10.389  11.441   5.228 -0.1575  0.0174 -0.0982
50960SOL    HW158843  10.477  11.435   5.265 -0.2207 -0.6490 -0.0468
50960SOL    HW258844  10.335  11.470   5.301  0.0173  0.4343 -0.1306
50961SOL     OW58845   4.099  11.108  11.703  0.8813 -0.0203  0.3111
50961SOL    HW158846   4.098  11.049  11.778 -1.3638  0.7143  0.9577
50961SOL    HW258847   4.130  11.192  11.738 -0.0365  0.2882  0.4109
50962SOL     OW58848   4.664   1.296  10.933 -0.4912  0.5066 -0.1101
50962SOL    HW158849   4.752   1.258  10.937 -1.1974 -1.3521 -1.0826
50962SOL    HW258850   4.647   1.325  11.023  0.8120  0.1851  0.2727
50963SOL     OW58851  11.476   9.708  10.512  0.3510 -0.7375  0.2670
50963SOL    HW158852  11.493   9.625  10.466 -1.8268 -1.0772 -0.0413
50963SOL    HW258853  11.414   9.754  10.455  2.5736  1.8220 -0.2822
50964SOL     OW58854   3.901   3.468   3.933  0.5209  0.1372  0.8076
50964SOL    HW158855   3.963   3.505   3.870  1.5392  0.8003  2.1384
50964SOL    HW258856   3.906   3.527   4.009 -0.8200 -0.5106  1.4320
50965SOL     OW58857   7.299   5.284   2.098  0.1244  0.0647  0.0023
50965SOL    HW158858   7.362   5.267   2.168 -0.4386 -0.2123  0.4431
50965SOL    HW258859   7.244   5.355   2.131 -0.4179 -0.3589  0.0204
50966SOL     OW58860   8.218   6.488   2.722 -0.6137 -0.1796  0.2669
50966SOL    HW158861   8.127   6.505   2.747 -0.4082 -1.1907  1.8047
50966SOL    HW258862   8.269   6.543   2.781 -0.2035 -0.4023  0.1201
50967SOL     OW58863   4.504   5.512   1.815 -0.4385  0.3617 -0.2643
50967SOL    HW158864   4.512   5.580   1.881 -0.4442  0.6065 -0.5147
50967SOL    HW258865   4.410   5.509   1.795 -0.3862  0.5699 -0.5532
50968SOL     OW58866   8.081   1.193   0.690  0.0207  0.0353 -0.5229
50968SOL    HW158867   7.993   1.194   0.726 -0.1736 -1.3605 -0.8748
50968SOL    HW258868   8.073   1.238   0.606  0.5725  3.7029  1.2244
50969SOL     OW58869   0.402   3.970   7.554  0.2471 -0.0749 -0.3538
50969SOL    HW158870   0.341   3.903   7.586  0.0040 -0.2303 -1.1237
50969SOL    HW258871   0.489   3.934   7.572  0.1294 -0.8903 -1.3163
50970SOL     OW58872   9.647   7.054   7.369 -0.4134 -0.4183 -0.2886
50970SOL    HW158873   9.722   7.112   7.360 -1.7330  1.2372 -1.0667
50970SOL    HW258874   9.585   7.083   7.303 -2.4777 -0.5552  1.4705
50971SOL     OW58875   6.985   6.755   8.422  0.4707  0.3663 -0.0031
50971SOL    HW158876   6.969   6.697   8.347 -0.3367  0.6585 -0.0730
50971SOL    HW258877   6.898   6.789   8.444  0.7371  0.4836  0.9050
50972SOL     OW58878   1.163  11.043   9.528  0.3921  0.5392 -0.1281
50972SOL    HW158879   1.103  11.005   9.464  0.5831  0.0495 -0.0281
50972SOL    HW258880   1.237  11.075   9.476  0.5392  0.1578 -0.1585
50973SOL     OW58881   5.611   1.256   1.573 -0.6026 -0.2472 -0.1768
50973SOL    HW158882   5.626   1.233   1.664  0.6589 -1.2625 -0.6040
50973SOL    HW258883   5.527   1.216   1.551 -0.3509 -0.9993  0.2179
50974SOL     OW58884   9.879   2.780   3.699  0.0386  0.1686 -0.0433
50974SOL    HW158885   9.850   2.710   3.641  0.3933  0.4358 -0.5516
50974SOL    HW258886   9.809   2.788   3.764  0.5288 -1.4780  0.7665
50975SOL     OW58887   1.728  10.603   8.577 -0.3308 -0.3351 -0.0630
50975SOL    HW158888   1.793  10.655   8.624  0.6229 -0.2053 -1.4707
50975SOL    HW258889   1.644  10.646   8.596  0.2814  0.9098 -0.1034
50976SOL     OW58890   6.371   3.287   3.070 -0.4771  0.2670 -0.0577
50976SOL    HW158891   6.348   3.292   3.163  0.0160  2.3374  0.0092
50976SOL    HW258892   6.356   3.376   3.037  0.9682 -0.0005 -1.5765
50977SOL     OW58893   2.637   2.206   5.166  0.5583 -0.3955 -0.1355
50977SOL    HW158894   2.581   2.270   5.210 -0.3340 -0.5722 -0.9745
50977SOL    HW258895   2.726   2.232   5.189  0.1863  0.7462  0.0842
50978SOL     OW58896   7.995   7.298   0.097  0.3159 -0.3692  0.2358
50978SOL    HW158897   7.916   7.245   0.107  1.9766 -2.6303  2.5585
50978SOL    HW258898   8.066   7.235   0.097  2.3319  1.7613  1.4714
50979SOL     OW58899   6.319   7.269   8.641 -0.6911 -0.1850 -0.3072
50979SOL    HW158900   6.351   7.355   8.670 -0.8809 -0.3619  0.4489
50979SOL    HW258901   6.382   7.242   8.574  0.3941 -0.2289  0.6898
50980SOL     OW58902   5.875  12.013   7.907  0.1398 -0.2473 -0.1281
50980SOL    HW158903   5.895  12.101   7.874 -1.8100  0.1364 -0.4075
50980SOL    HW258904   5.821  11.974   7.838  1.1096 -1.7568 -0.0797
50981SOL     OW58905  10.261   4.741   3.373 -0.2839  0.3131  0.0275
50981SOL    HW158906  10.231   4.706   3.289 -1.4871  2.0363 -0.3108
50981SOL    HW258907  10.249   4.668   3.435 -0.6811 -0.5479 -1.0365
50982SOL     OW58908  12.206  10.019  10.867  0.4368 -0.0749  0.3338
50982SOL    HW158909  12.159  10.063  10.796  1.4870  1.7691  0.7172
50982SOL    HW258910  12.261   9.954  10.822  1.3090  1.2665 -0.6152
50983SOL     OW58911   5.623   3.643   5.684 -0.9173 -0.6648  0.3310
50983SOL    HW158912   5.622   3.732   5.720 -0.2761  0.4098 -2.0669
50983SOL    HW258913   5.691   3.598   5.733  1.7750  1.5149 -1.0617
50984SOL     OW58914   5.834  11.489   1.251  0.5841  0.0254  0.1461
50984SOL    HW158915   5.802  11.428   1.184 -1.7653  1.0761  0.2292
50984SOL    HW258916   5.828  11.439   1.333 -2.9998  0.7713  0.4769
50985SOL     OW58917   1.241   7.862   8.505  0.1827  0.1083 -0.0915
50985SOL    HW158918   1.178   7.933   8.520 -0.2411 -0.6059  1.9325
50985SOL    HW258919   1.210   7.819   8.425 -1.1056  0.6146  0.1020
50986SOL     OW58920   3.028   3.938  10.191  0.1833 -0.3485 -0.3808
50986SOL    HW158921   3.038   3.856  10.143  2.9410 -1.6868  2.1601
50986SOL    HW258922   2.991   3.913  10.275  0.0533  1.1894  0.0584
50987SOL     OW58923   5.109   7.288   3.494 -0.1582 -0.0880  0.2325
50987SOL    HW158924   5.187   7.246   3.459  0.6634  2.8683 -1.8575
50987SOL    HW258925   5.044   7.283   3.423 -0.9671 -0.1874  0.9565
50988SOL     OW58926   9.862   3.364   6.213  0.3848 -0.1338  0.3709
50988SOL    HW158927   9.815   3.413   6.280  0.3425 -1.9168  1.7163
50988SOL    HW258928   9.928   3.425   6.180  1.2509  0.4528  2.9420
50989SOL     OW58929   7.652   7.874   3.373  0.6383  0.1218 -0.9076
50989SOL    HW158930   7.566   7.916   3.377  0.0260 -0.8892 -2.5654
50989SOL    HW258931   7.673   7.856   3.464 -1.0324  0.1760 -0.4647
50990SOL     OW58932   1.199   9.356  12.146 -0.2729 -0.2229  0.7457
50990SOL    HW158933   1.143   9.361  12.069  1.0822  0.2472 -0.2544
50990SOL    HW258934   1.213   9.262  12.160  1.9215 -0.3526 -1.5201
50991SOL     OW58935   7.184   4.120   3.664 -0.0663 -0.2752 -0.1651
50991SOL    HW158936   7.150   4.184   3.602  0.3850 -0.5066 -0.6622
50991SOL    HW258937   7.232   4.171   3.729  1.0011 -0.1450 -1.0156
50992SOL     OW58938   6.832   8.219   0.553  0.1838 -0.1544 -0.1319
50992SOL    HW158939   6.784   8.200   0.634  1.6759 -1.1398  0.5597
50992SOL    HW258940   6.807   8.149   0.493  0.4938 -0.4740  0.1106
50993SOL     OW58941  10.991   6.204   9.197  0.3564 -0.2206  0.4087
50993SOL    HW158942  10.934   6.275   9.168 -0.7230 -1.5146 -0.7669
50993SOL    HW258943  11.080   6.235   9.177 -0.0721  0.8841  0.1480
50994SOL     OW58944   3.853   4.311   1.272 -0.2155 -0.0129 -0.4835
50994SOL    HW158945   3.918   4.292   1.340  0.4056 -1.0523 -1.3200
50994SOL    HW258946   3.886   4.390   1.229  0.2787 -0.2901 -0.6260
50995SOL     OW58947   3.595   6.466  10.295 -0.1525  0.6270  0.1185
50995SOL    HW158948   3.681   6.435  10.321 -0.0510 -0.2739 -1.1600
50995SOL    HW258949   3.538   6.390  10.306 -0.4742  0.7808 -0.4420
50996SOL     OW58950   5.240  11.995   8.582  0.5966  0.3084  0.0702
50996SOL    HW158951   5.228  11.901   8.571 -1.1054  0.2433  1.8532
50996SOL    HW258952   5.278  12.004   8.669 -0.9438  1.3086  0.6836
50997SOL     OW58953   1.145  12.078   3.232  0.7519  0.0787  0.3433
50997SOL    HW158954   1.207  12.041   3.294 -0.0405 -2.3140 -0.1806
50997SOL    HW258955   1.118  12.004   3.178 -0.4127  1.6052 -1.2891
50998SOL     OW58956   1.688  12.468  11.781  0.1483  0.0064 -0.0397
50998SOL    HW158957   1.737  12.523  11.842 -0.2035 -0.3969  0.6139
50998SOL    HW258958   1.659  12.529  11.713  1.0041  0.3621 -0.1046
50999SOL     OW58959   5.228  11.066   6.675  0.2952 -0.1513  0.1506
50999SOL    HW158960   5.170  11.136   6.702  0.5252 -0.2021  0.7994
50999SOL    HW258961   5.306  11.110   6.641  0.3730 -0.0926  0.4070
51000SOL     OW58962   8.560   4.851   7.238  0.0242 -0.2727  0.0832
51000SOL    HW158963   8.488   4.795   7.268  0.2689 -0.4593  0.3368
51000SOL    HW258964   8.543   4.865   7.145 -0.9550  0.6155  0.3796
51001SOL     OW58965   6.195   9.282   6.074 -0.9288  0.2727  0.0214
51001SOL    HW158966   6.222   9.362   6.120  0.6344  0.4704 -1.1936
51001SOL    HW258967   6.113   9.307   6.030 -0.1288  1.4238 -0.8663
51002SOL     OW58968   0.210   5.579   1.825  0.2109 -0.7687 -0.4774
51002SOL    HW158969   0.133   5.610   1.779  0.2651  1.2371  0.6578
51002SOL    HW258970   0.275   5.565   1.757 -0.4181 -0.1200 -1.2270
51003SOL     OW58971  11.782   0.125   4.891 -0.3614  0.5214 -0.2504
51003SOL    HW158972  11.863   0.175   4.900  0.3309 -0.5077 -0.5426
51003SOL    HW258973  11.712   0.187   4.912  0.4596  1.6035 -0.6648
51004SOL     OW58974   4.763   3.066  11.025 -0.5445 -0.4074  0.0712
51004SOL    HW158975   4.855   3.054  11.048 -0.8764 -1.3453  0.9318
51004SOL    HW258976   4.719   3.083  11.108 -1.3135 -1.0159 -0.2003
51005SOL     OW58977   9.768   7.638   3.729  0.3931 -0.0793  0.4694
51005SOL    HW158978   9.857   7.617   3.699  0.6999  0.3606  1.0402
51005SOL    HW258979   9.721   7.555   3.724  0.5737 -0.1371 -0.6966
51006SOL     OW58980   4.045  10.809   8.563 -0.4426  0.4280 -0.0844
51006SOL    HW158981   4.133  10.840   8.540  0.1328 -0.8140  0.3246
51006SOL    HW258982   3.995  10.889   8.577  0.6547  1.1700 -0.2025
51007SOL     OW58983   1.624   7.569   2.959 -0.1577  0.0339 -0.1707
51007SOL    HW158984   1.687   7.523   3.014 -0.3534  2.0419  1.8437
51007SOL    HW258985   1.552   7.592   3.018 -1.5459  0.1482 -1.8202
51008SOL     OW58986   2.580   7.755   7.783  0.3442  0.5420  0.0080
51008SOL    HW158987   2.527   7.675   7.784 -1.4162  1.6719  0.4876
51008SOL    HW258988   2.656   7.733   7.837  0.1410 -0.9587 -0.2590
51009SOL     OW58989   9.260   2.859   4.828  0.0445  0.1420 -0.4131
51009SOL    HW158990   9.302   2.936   4.866 -1.3761  1.6205 -1.6504
51009SOL    HW258991   9.188   2.895   4.776 -0.1143 -1.9810 -1.7775
51010SOL     OW58992  10.251   0.440   5.009  0.4455  0.3184  0.5910
51010SOL    HW158993  10.192   0.470   5.078 -0.0723  0.8666 -0.0785
51010SOL    HW258994  10.235   0.499   4.936  0.3949 -0.7626 -0.2966
51011SOL     OW58995   6.352   1.535   3.999  0.8615 -0.0060 -0.2079
51011SOL    HW158996   6.271   1.573   4.034  0.1314  0.4902 -2.2813
51011SOL    HW258997   6.406   1.612   3.977  1.3610 -0.3015 -0.0159
51012SOL     OW58998   6.615   4.543   4.535 -0.3599 -0.0851 -0.1810
51012SOL    HW158999   6.708   4.528   4.551  0.0368  2.4866  0.4179
51012SOL    HW259000   6.611   4.583   4.448 -0.7474  0.9094  0.2763
51013SOL     OW59001   7.739   5.738  11.771 -0.2151 -0.3132  0.3108
51013SOL    HW159002   7.736   5.787  11.688  0.3679 -0.4551  0.2048
51013SOL    HW259003   7.826   5.755  11.806 -0.9638  0.9887  1.6681
51014SOL     OW59004  11.861  12.109   9.609 -0.4560  0.2447  0.2436
51014SOL    HW159005  11.817  12.073   9.532 -1.3123  3.5123 -0.9631
51014SOL    HW259006  11.814  12.191   9.627  2.0544  1.4123  1.9975
51015SOL     OW59007   6.910   2.699  11.822  0.3495 -0.0747  0.1611
51015SOL    HW159008   6.988   2.649  11.842  0.8439  1.4047  2.2794
51015SOL    HW259009   6.852   2.684  11.897 -0.6480  0.2906 -0.5141
51016SOL     OW59010  11.543   0.830   3.994 -0.3506  0.0847  0.3430
51016SOL    HW159011  11.578   0.742   4.003  0.0745  0.2002 -0.1444
51016SOL    HW259012  11.469   0.833   4.056 -0.8508 -0.8531 -0.1850
51017SOL     OW59013  11.476   2.129   8.495 -0.2419  0.1785 -0.2138
51017SOL    HW159014  11.423   2.076   8.554  1.3562 -0.0377  1.1062
51017SOL    HW259015  11.482   2.078   8.415 -1.2989 -0.1664 -0.0921
51018SOL     OW59016   8.286   6.029   0.961  0.1401  0.2549 -0.5803
51018SOL    HW159017   8.214   6.089   0.940  1.5640  1.9147 -0.9219
51018SOL    HW259018   8.345   6.080   1.015  2.3233 -0.1858 -2.4109
51019SOL     OW59019   0.476   3.745   1.431  0.6792  0.2031 -0.5396
51019SOL    HW159020   0.483   3.813   1.498  0.5896  0.0204 -0.3443
51019SOL    HW259021   0.564   3.739   1.394  0.3554  1.5129 -1.6379
51020SOL     OW59022   6.344   8.722   4.156 -0.0477 -0.4352 -0.6642
51020SOL    HW159023   6.295   8.789   4.205  1.7337  0.3170  0.1772
51020SOL    HW259024   6.316   8.640   4.195  1.6592  0.1619  2.1198
51021SOL     OW59025   5.515   4.720   5.283 -0.3203  0.2159  0.1183
51021SOL    HW159026   5.450   4.671   5.333  0.2799 -0.6399  0.0835
51021SOL    HW259027   5.565   4.653   5.236  0.0536  0.9145 -0.5023
51022SOL     OW59028  11.738   1.163   2.056 -0.0746  0.2861  0.0675
51022SOL    HW159029  11.657   1.215   2.056 -0.1745  0.1356 -0.5729
51022SOL    HW259030  11.756   1.148   2.149 -0.1001  1.3781  0.2692
51023SOL     OW59031   1.251   9.702   2.625  0.3906 -0.6355 -0.1220
51023SOL    HW159032   1.181   9.743   2.676  0.9626  1.2904 -0.7803
51023SOL    HW259033   1.210   9.626   2.584 -1.5851  0.8693 -1.1215
51024SOL     OW59034   9.393   1.293   6.718 -0.1960  0.5301 -0.5478
51024SOL    HW159035   9.343   1.273   6.797 -0.9353  1.8534 -0.6495
51024SOL    HW259036   9.475   1.245   6.729 -1.6814 -2.2883 -0.6827
51025SOL     OW59037   4.785   4.739   9.007  0.8293 -0.6962 -0.1596
51025SOL    HW159038   4.787   4.682   8.930 -0.5018  0.1356 -0.8467
51025SOL    HW259039   4.745   4.820   8.976 -0.0128 -0.4477  1.4655
51026SOL     OW59040   6.782   0.977   4.789  0.4429 -0.4998 -0.5205
51026SOL    HW159041   6.787   0.902   4.850 -0.0127 -1.2302 -1.3562
51026SOL    HW259042   6.691   0.978   4.761  0.3724  0.5870 -0.2752
51027SOL     OW59043  11.462   0.769  11.723  0.2699  0.0793  0.0880
51027SOL    HW159044  11.470   0.684  11.766  1.5199 -0.1900 -0.6222
51027SOL    HW259045  11.401   0.754  11.650  0.5315 -0.2321 -0.0682
51028SOL     OW59046   5.890   0.961   3.384  0.2569  0.3135  0.2511
51028SOL    HW159047   5.911   0.962   3.291 -0.2388  0.8558  0.1389
51028SOL    HW259048   5.967   1.000   3.427 -0.3872  2.1418 -0.1388
51029SOL     OW59049   3.174   7.826   3.574 -0.1110 -0.5553  0.4678
51029SOL    HW159050   3.157   7.835   3.480 -0.6270 -1.5045  0.4576
51029SOL    HW259051   3.221   7.905   3.597 -0.6624  0.0566 -0.4372
51030SOL     OW59052   1.387   4.976   6.767  0.2682  0.2615  0.2022
51030SOL    HW159053   1.393   5.032   6.689 -1.8041  1.7968  1.0484
51030SOL    HW259054   1.304   4.930   6.755  0.5943 -0.5172  0.8899
51031SOL     OW59055   5.489   1.710   8.178 -0.5199 -0.5464 -0.5863
51031SOL    HW159056   5.523   1.698   8.089  1.4810 -1.4857  0.2245
51031SOL    HW259057   5.400   1.677   8.175 -0.4957 -0.5247 -2.2524
51032SOL     OW59058   1.484   1.990  11.830  0.3896 -0.2240  0.4973
51032SOL    HW159059   1.578   2.004  11.840  0.5207  2.3863 -2.7936
51032SOL    HW259060   1.474   1.895  11.832  3.4481 -0.7175 -1.1448
51033SOL     OW59061   0.873   5.561   6.313  0.0616  0.1844 -0.4731
51033SOL    HW159062   0.794   5.508   6.307  1.1622 -2.0024  2.2951
51033SOL    HW259063   0.938   5.515   6.259  0.8485 -1.1111  1.4619
51034SOL     OW59064   7.113   0.758   9.135  0.3122  0.0329  0.3635
51034SOL    HW159065   7.151   0.731   9.219  0.2547  0.6778  0.6025
51034SOL    HW259066   7.188   0.766   9.077  0.1958 -2.3349 -0.2321
51035SOL     OW59067  10.354   1.635   2.195  0.2499  0.7853  0.5063
51035SOL    HW159068  10.319   1.547   2.208  0.4845  0.6231  0.0579
51035SOL    HW259069  10.279   1.693   2.209  0.3684  0.6012  2.0583
51036SOL     OW59070   6.735   2.721   3.048  0.3492  0.0531 -0.0203
51036SOL    HW159071   6.800   2.716   2.978  0.0997  1.7451 -0.4256
51036SOL    HW259072   6.701   2.632   3.056  1.2430 -0.4207 -1.2117
51037SOL     OW59073   9.569   5.125   1.906  0.2431 -0.1811  0.0082
51037SOL    HW159074   9.527   5.136   1.992  0.0663 -1.0568  0.0446
51037SOL    HW259075   9.660   5.103   1.926  0.5799  1.0879 -0.0619
51038SOL     OW59076   0.093   5.223   0.860 -0.5120  0.5048 -0.0620
51038SOL    HW159077   0.122   5.216   0.951 -0.6868 -0.8910 -0.0937
51038SOL    HW259078   0.010   5.270   0.866 -1.0296 -0.4551  0.6280
51039SOL     OW59079   2.544   8.159   4.581  0.1166  0.2126 -0.5873
51039SOL    HW159080   2.573   8.132   4.668 -1.9777  0.8804  0.3998
51039SOL    HW259081   2.546   8.079   4.529  0.9511 -0.3039  0.2119
51040SOL     OW59082  10.290   3.636   1.106 -0.6225 -0.0322  0.1774
51040SOL    HW159083  10.336   3.556   1.082  0.0984  0.5619 -0.4724
51040SOL    HW259084  10.214   3.606   1.157  0.3511 -1.0427  1.0809
51041SOL     OW59085   8.995  10.723   1.650 -0.3057  0.4521 -0.0748
51041SOL    HW159086   8.977  10.762   1.565  0.6003 -0.4369 -0.6962
51041SOL    HW259087   9.051  10.787   1.694  0.2012  0.3942 -0.6216
51042SOL     OW59088   8.591   0.630   2.856  0.5008  0.6738 -0.5781
51042SOL    HW159089   8.667   0.581   2.827  0.0086  0.0753 -0.8933
51042SOL    HW259090   8.596   0.713   2.808  1.7302  1.2570  0.5072
51043SOL     OW59091   0.148  10.075   6.145  0.2232  0.0335 -0.4157
51043SOL    HW159092   0.161  10.118   6.229 -1.7401 -0.7431  0.3449
51043SOL    HW259093   0.232  10.034   6.124  1.4502  2.2299 -0.0438
51044SOL     OW59094   9.298   3.523   0.840 -0.0242 -0.5770 -0.1210
51044SOL    HW159095   9.351   3.603   0.839 -0.2748 -0.3454  1.8434
51044SOL    HW259096   9.303   3.491   0.930 -4.4729  0.3952  0.7208
51045SOL     OW59097   6.114   0.484   0.344  0.2030  0.5490 -0.6691
51045SOL    HW159098   6.046   0.520   0.401 -0.1875 -1.5408  0.2917
51045SOL    HW259099   6.182   0.551   0.342  0.3514  0.6452  2.5098
51046SOL     OW59100   3.473   2.005   7.482 -0.3083 -0.1176  0.4621
51046SOL    HW159101   3.503   1.961   7.561 -1.1327 -2.1337 -0.2811
51046SOL    HW259102   3.553   2.022   7.432  0.0568 -0.4430  0.9312
51047SOL     OW59103   6.590   6.234   4.248 -0.5393 -0.0918 -0.5373
51047SOL    HW159104   6.507   6.271   4.217 -0.9773 -1.0250 -0.5165
51047SOL    HW259105   6.567   6.145   4.277  0.2580  0.0268  0.5081
51048SOL     OW59106   6.251  12.357  10.725  0.1418  0.1711 -0.0242
51048SOL    HW159107   6.175  12.376  10.670  1.3017 -0.3844 -1.9196
51048SOL    HW259108   6.225  12.384  10.813 -1.9656  0.6621 -0.7498
51049SOL     OW59109   2.400  11.684   3.356  0.3773  0.1974 -0.0286
51049SOL    HW159110   2.376  11.599   3.394  1.6953 -1.8539 -3.3268
51049SOL    HW259111   2.494  11.693   3.373  0.3661  0.7279 -0.2182
51050SOL     OW59112   3.145   1.748   8.461 -0.3416  0.0085 -0.4065
51050SOL    HW159113   3.155   1.655   8.481 -0.6655 -0.3505 -1.8050
51050SOL    HW259114   3.203   1.762   8.387 -3.4859 -0.1495 -3.1345
51051SOL     OW59115   0.421   7.881   4.936  0.0966 -0.2064 -0.1883
51051SOL    HW159116   0.404   7.796   4.897 -3.1361  0.3305 -0.1685
51051SOL    HW259117   0.474   7.862   5.013  0.6194 -2.0112 -0.9537
51052SOL     OW59118   8.164   5.171   3.261 -0.0818  0.4190 -0.2909
51052SOL    HW159119   8.124   5.084   3.265 -0.1615  0.3229 -2.2278
51052SOL    HW259120   8.105   5.223   3.206  0.4679  1.4082  0.0244
51053SOL     OW59121   8.941   1.004  12.114  0.0119  0.2642 -0.3077
51053SOL    HW159122   8.994   1.077  12.145 -1.2466  0.9494  0.2900
51053SOL    HW259123   9.005   0.936  12.091  1.1222  0.8410  0.9329
51054SOL     OW59124   4.003  10.432   4.317 -0.3689  0.2255  0.6747
51054SOL    HW159125   3.988  10.507   4.259  1.1831  0.0433 -0.0255
51054SOL    HW259126   4.059  10.373   4.266  0.1334 -0.4560  1.9637
51055SOL     OW59127   0.779   9.439   1.596  0.1826 -0.0681 -0.2096
51055SOL    HW159128   0.774   9.396   1.510  0.4863  0.5756 -0.5564
51055SOL    HW259129   0.765   9.532   1.577  1.7655  0.2895  0.2236
51056SOL     OW59130   1.413   1.680   8.747  0.8590 -0.1830  0.2442
51056SOL    HW159131   1.465   1.639   8.817 -1.6952 -2.0338  1.2134
51056SOL    HW259132   1.437   1.631   8.669  2.6160  0.8931  0.0582
51057SOL     OW59133   7.272   5.344  11.521 -0.0054  0.2148  0.1268
51057SOL    HW159134   7.185   5.359  11.485 -0.1093  0.4375  0.4695
51057SOL    HW259135   7.265   5.260  11.567  0.5842 -0.9771 -1.8108
51058SOL     OW59136  10.621  11.020   5.722 -0.2658  0.1547 -0.3581
51058SOL    HW159137  10.697  11.062   5.763 -1.2011  1.5105  0.0944
51058SOL    HW259138  10.597  11.080   5.651 -1.0547 -0.1374 -0.3410
51059SOL     OW59139   0.403   3.156  10.851 -0.2398 -0.0508 -0.1761
51059SOL    HW159140   0.426   3.084  10.792  0.2933 -1.1642  1.3168
51059SOL    HW259141   0.348   3.214  10.798  0.4655 -0.8291 -1.8336
51060SOL     OW59142  10.722   7.628   5.456  0.1809  0.0794 -0.3784
51060SOL    HW159143  10.637   7.598   5.488  0.4344 -0.4860 -0.2190
51060SOL    HW259144  10.758   7.680   5.528 -0.2136  0.6872 -0.6138
51061SOL     OW59145   8.859   2.925  11.918 -0.1261 -0.2796 -0.1514
51061SOL    HW159146   8.795   2.938  11.987  1.1113  0.3721  0.9111
51061SOL    HW259147   8.807   2.918  11.838 -1.5953 -1.1323  0.8250
51062SOL     OW59148   4.389   9.382   6.666 -0.4102  0.0387 -0.0472
51062SOL    HW159149   4.334   9.460   6.673 -0.6667 -0.0755 -0.7021
51062SOL    HW259150   4.458   9.407   6.605  0.9940  0.5818  1.6916
51063SOL     OW59151  11.924   1.969  11.017  0.4214 -0.3335  0.3139
51063SOL    HW159152  11.982   2.016  11.078  0.9767 -0.6011  0.0040
51063SOL    HW259153  11.839   2.011  11.028  0.4735 -0.4809  1.3858
51064SOL     OW59154   2.467   9.297   0.993  0.0262 -0.5176  0.0422
51064SOL    HW159155   2.505   9.242   0.925  0.1312  1.8790 -2.0125
51064SOL    HW259156   2.484   9.250   1.075  2.6109 -2.1225 -1.2760
51065SOL     OW59157   4.592   0.749   2.102 -0.2629 -0.3528 -0.3223
51065SOL    HW159158   4.548   0.809   2.163 -0.7125  0.4987 -1.4608
51065SOL    HW259159   4.550   0.664   2.118 -0.6475 -0.0600  0.2773
51066SOL     OW59160   9.984   0.558   3.152  0.4528  0.4212 -0.1956
51066SOL    HW159161  10.043   0.632   3.163  2.0381 -0.9561  1.0098
51066SOL    HW259162  10.037   0.490   3.110 -1.2931  0.2811 -2.4216
51067SOL     OW59163   9.554   9.460   4.248 -0.2934 -0.5822 -0.1626
51067SOL    HW159164   9.502   9.380   4.235  0.2697 -0.9289 -0.3539
51067SOL    HW259165   9.633   9.445   4.196 -0.0408 -0.0298  0.0559
51068SOL     OW59166   5.949   0.484   7.977 -0.1494  0.2854  0.1662
51068SOL    HW159167   5.907   0.522   8.054 -0.4256  1.9015 -0.7352
51068SOL    HW259168   6.018   0.546   7.953  1.7793 -1.5300  0.6696
51069SOL     OW59169   5.791   6.482   8.262  0.1516  1.5077 -0.5109
51069SOL    HW159170   5.819   6.567   8.296  0.3584  0.2783  2.6891
51069SOL    HW259171   5.752   6.437   8.337 -0.4255 -1.0501 -2.2145
51070SOL     OW59172  11.286   7.991   5.413 -0.3701 -0.3200 -0.4059
51070SOL    HW159173  11.330   8.043   5.480 -0.3314 -0.0611 -0.6316
51070SOL    HW259174  11.356   7.963   5.355 -0.4233 -0.4227 -0.4205
51071SOL     OW59175   0.059   8.698   1.007 -0.0923  0.0556  0.5218
51071SOL    HW159176   0.147   8.688   1.044 -0.2971 -1.7144  0.6321
51071SOL    HW259177   0.003   8.718   1.082 -0.2483 -1.9472  1.0040
51072SOL     OW59178   3.969   8.926   8.655 -0.1019  0.3006  0.4328
51072SOL    HW159179   3.897   8.877   8.694 -2.4581  1.2301 -2.3715
51072SOL    HW259180   4.010   8.865   8.593  1.0094  0.0606  1.3649
51073SOL     OW59181   6.084   4.240   7.220 -0.5426  0.2011  0.1582
51073SOL    HW159182   6.073   4.179   7.292  2.6605  1.6431  2.0717
51073SOL    HW259183   6.138   4.193   7.156  1.5132  0.7376  1.4130
51074SOL     OW59184   5.729   6.688   2.102  0.3330 -0.1873  0.4747
51074SOL    HW159185   5.732   6.606   2.152 -0.9348  0.9377  2.5530
51074SOL    HW259186   5.796   6.743   2.143  1.1634 -0.1241 -0.8967
51075SOL     OW59187   0.052   2.005   5.664 -0.6036  0.0200 -0.1456
51075SOL    HW159188  -0.029   1.959   5.686 -0.3128  0.1040  1.1994
51075SOL    HW259189   0.118   1.964   5.719  0.1335  0.4281 -0.7098
51076SOL     OW59190   8.197   8.901   7.796  0.0264  0.6555  0.2169
51076SOL    HW159191   8.254   8.934   7.866  1.3917 -1.1942  0.0660
51076SOL    HW259192   8.120   8.868   7.842  0.9978 -0.7168  0.9257
51077SOL     OW59193   4.358   8.519  12.381  0.5233  0.1983 -0.4149
51077SOL    HW159194   4.395   8.496  12.296  1.5476  2.0755 -0.5455
51077SOL    HW259195   4.281   8.572  12.360 -0.7103 -1.4091 -0.1310
51078SOL     OW59196   3.045  10.959   4.315  0.3118  0.0878 -0.1580
51078SOL    HW159197   3.001  10.965   4.399 -0.3892 -0.3628 -0.4767
51078SOL    HW259198   3.071  11.049   4.295 -0.8477  0.4472 -0.1455
51079SOL     OW59199  12.463   2.535   8.228  0.3637 -0.0750 -0.5815
51079SOL    HW159200  12.491   2.602   8.290  1.0750 -0.4720 -0.4634
51079SOL    HW259201  12.521   2.461   8.245 -1.7890 -1.5598  0.7847
51080SOL     OW59202   6.404   0.187   3.241 -0.8942 -0.6909  0.3303
51080SOL    HW159203   6.487   0.232   3.256 -0.7878 -0.8994  0.3737
51080SOL    HW259204   6.420   0.098   3.271 -0.8077 -1.0136 -0.6258
51081SOL     OW59205   0.267   5.520   8.109  0.8391  0.1410  0.1734
51081SOL    HW159206   0.360   5.542   8.103  0.6277  1.5952  1.5840
51081SOL    HW259207   0.262   5.427   8.087  2.9765 -0.6616  2.6233
51082SOL     OW59208  11.147  10.043   3.635  0.1683  0.3170  0.1613
51082SOL    HW159209  11.138  10.138   3.627  1.9524  0.4675 -0.3070
51082SOL    HW259210  11.079  10.019   3.699 -0.9250  1.7598 -0.3961
51083SOL     OW59211   2.845   4.765   1.936 -0.1765 -0.3086 -0.1952
51083SOL    HW159212   2.915   4.813   1.891 -0.4799  0.7389  0.4263
51083SOL    HW259213   2.890   4.688   1.973  1.1750  1.4208  2.0428
51084SOL     OW59214   4.379   2.369   8.143  0.1556 -0.5521 -0.1965
51084SOL    HW159215   4.392   2.331   8.056  2.7090 -0.7423  0.1877
51084SOL    HW259216   4.337   2.300   8.193 -2.4082 -0.0614 -1.4849
51085SOL     OW59217   5.524   4.302   1.714  0.3125 -0.7936 -0.2366
51085SOL    HW159218   5.523   4.296   1.619  0.1770  0.0542 -0.2945
51085SOL    HW259219   5.575   4.226   1.742  0.5310 -0.9359 -0.9923
51086SOL     OW59220   5.282   6.416   0.495  0.0642 -0.0009  0.1231
51086SOL    HW159221   5.320   6.499   0.525 -0.9543  1.6685 -2.7879
51086SOL    HW259222   5.324   6.401   0.410 -0.5267 -1.9640  0.1421
51087SOL     OW59223   1.034  10.995   4.188  0.5040 -0.4565  0.0564
51087SOL    HW159224   1.012  10.949   4.107  1.8657 -1.2195  0.0899
51087SOL    HW259225   1.005  11.085   4.173  1.1237 -0.4803 -1.4375
51088SOL     OW59226   9.670   6.005   6.996  0.1391  0.0943 -0.2215
51088SOL    HW159227   9.582   6.010   6.959  0.3129  3.2448 -0.4766
51088SOL    HW259228   9.722   5.961   6.930 -0.9040 -0.2737 -0.8122
51089SOL     OW59229   7.396   2.762   8.780 -0.3196  0.0537 -0.2578
51089SOL    HW159230   7.343   2.741   8.857 -1.5025 -0.5360 -1.1762
51089SOL    HW259231   7.466   2.818   8.812 -1.7133  1.1693  0.9750
51090SOL     OW59232   9.390   7.502   1.938 -0.4492  0.1005 -0.1546
51090SOL    HW159233   9.423   7.571   1.880  0.3167 -1.1741 -1.2800
51090SOL    HW259234   9.338   7.445   1.881 -0.3700 -0.7174  0.5737
51091SOL     OW59235   8.608   2.032   3.930 -0.5533 -0.2234 -0.3528
51091SOL    HW159236   8.626   2.044   3.837 -1.1073 -0.9323 -0.5572
51091SOL    HW259237   8.582   2.118   3.961  1.0363  0.3575 -0.5232
51092SOL     OW59238   6.780   7.008   3.943 -0.3121 -0.1619  0.0595
51092SOL    HW159239   6.785   6.916   3.918 -0.4509 -0.0413 -0.4230
51092SOL    HW259240   6.687   7.024   3.958 -0.2492 -0.1876  0.4881
51093SOL     OW59241  10.900   3.297  10.177 -0.1770 -0.0496 -0.2085
51093SOL    HW159242  10.906   3.387  10.145  1.5319 -0.1439 -0.2154
51093SOL    HW259243  10.884   3.307  10.271  0.0776  0.2529 -0.1958
51094SOL     OW59244   7.798   9.791   0.366  0.1591 -0.5978  0.1751
51094SOL    HW159245   7.803   9.868   0.422 -0.1947  0.2086 -0.8632
51094SOL    HW259246   7.843   9.722   0.415  0.3033  0.2149  1.2070
51095SOL     OW59247  11.169   4.487  11.259  0.1010  0.0158 -0.0379
51095SOL    HW159248  11.087   4.444  11.236  0.3537 -0.2341 -0.4778
51095SOL    HW259249  11.214   4.499  11.175  1.3826 -1.6152  0.3695
51096SOL     OW59250   6.245   3.914   7.794  0.2702  0.5809  0.0809
51096SOL    HW159251   6.229   3.839   7.851  1.2768 -0.3248 -0.7737
51096SOL    HW259252   6.338   3.933   7.805  0.2610  1.0218 -0.5078
51097SOL     OW59253   9.629   2.749   8.867  0.2045  0.2241  0.0654
51097SOL    HW159254   9.651   2.659   8.889 -0.2892 -0.3778 -1.8034
51097SOL    HW259255   9.699   2.801   8.907 -0.0803 -0.8501  2.0983
51098SOL     OW59256  12.200   8.837   7.175  0.1384  0.3148 -0.2691
51098SOL    HW159257  12.215   8.907   7.239  1.3956  0.7421 -0.9732
51098SOL    HW259258  12.193   8.758   7.227 -0.1240  0.8191  0.4772
51099SOL     OW59259   8.592   6.967   3.066 -0.1850  0.0243 -0.4162
51099SOL    HW159260   8.605   6.908   3.140  2.1542  2.0264  0.9442
51099SOL    HW259261   8.500   6.991   3.069 -0.7910 -2.1854  0.0116
51100SOL     OW59262  10.317   5.210   4.297  0.8161  0.4878  0.2310
51100SOL    HW159263  10.266   5.285   4.327 -0.4862 -0.1493 -0.2825
51100SOL    HW259264  10.395   5.248   4.256  0.9403  1.4793  1.3462
51101SOL     OW59265   4.300   4.542  10.296 -0.4973  0.2846  0.7689
51101SOL    HW159266   4.291   4.507  10.385 -1.4202 -0.7293  0.2994
51101SOL    HW259267   4.391   4.524  10.273 -1.1267 -2.8521  0.1891
51102SOL     OW59268   2.411   7.864   1.431 -0.0293  0.1177 -0.1866
51102SOL    HW159269   2.377   7.794   1.486 -0.6142  0.1683 -0.4649
51102SOL    HW259270   2.385   7.945   1.476  1.8493  0.1897  0.8605
51103SOL     OW59271   0.997   2.699  11.413  0.7804 -0.3494  0.0819
51103SOL    HW159272   0.917   2.730  11.370  1.4519 -0.6511 -1.4355
51103SOL    HW259273   1.061   2.690  11.342  1.2694 -3.0527  0.7322
51104SOL     OW59274  11.031  10.015   5.524 -0.2183 -0.2933  0.2352
51104SOL    HW159275  11.025  10.106   5.553 -2.2022 -0.3992  0.2542
51104SOL    HW259276  11.022   9.964   5.604  0.4657 -0.5324  0.1690
51105SOL     OW59277   1.606   3.174   2.399  0.2521 -0.0064  0.7740
51105SOL    HW159278   1.698   3.163   2.379  0.3916 -0.0343  1.3989
51105SOL    HW259279   1.565   3.197   2.315  0.4864 -1.9891  0.0641
51106SOL     OW59280   2.237   0.223   2.738  0.2855  0.0646  0.1845
51106SOL    HW159281   2.317   0.226   2.685 -0.4190  1.1714 -0.8619
51106SOL    HW259282   2.249   0.147   2.796  2.6554  0.9826  0.9837
51107SOL     OW59283   0.251   1.721   1.803  0.2092  0.0957 -0.1757
51107SOL    HW159284   0.266   1.802   1.853 -2.5224  0.4265  0.2356
51107SOL    HW259285   0.167   1.735   1.760 -0.0334 -2.3325 -0.5928
51108SOL     OW59286   4.039   1.087   8.281  0.1911  0.0583  0.1678
51108SOL    HW159287   3.964   1.085   8.341  0.6862 -1.5508  0.7882
51108SOL    HW259288   4.004   1.054   8.199 -0.0159  0.3281  0.1445
51109SOL     OW59289   2.193   6.653   2.938  0.3087  0.1716 -0.1418
51109SOL    HW159290   2.279   6.633   2.900  0.1262 -0.4672 -0.2264
51109SOL    HW259291   2.139   6.679   2.864  0.4698  0.7443 -0.0664
51110SOL     OW59292   8.996  11.585   6.066  0.1329  0.3865  0.0722
51110SOL    HW159293   9.062  11.619   6.127 -0.5603  0.0529  1.0194
51110SOL    HW259294   9.047  11.532   6.004  0.6187 -1.0064  1.6069
51111SOL     OW59295   7.319   0.571   5.962 -0.2562  0.5169  0.0944
51111SOL    HW159296   7.290   0.501   6.020  0.1912  1.9952  2.2298
51111SOL    HW259297   7.250   0.637   5.969 -1.0600  0.0578 -2.4928
51112SOL     OW59298   3.761   8.985   4.645 -0.0148  0.1523 -0.2692
51112SOL    HW159299   3.683   8.944   4.609 -0.4774  1.0923 -0.3459
51112SOL    HW259300   3.810   9.014   4.568 -1.7684  3.6141 -0.2470
51113SOL     OW59301   4.800   5.935   3.517  0.2822 -0.9280 -0.0450
51113SOL    HW159302   4.776   5.892   3.599 -0.7045  1.6632  1.1641
51113SOL    HW259303   4.732   6.002   3.505  1.2213 -0.2866 -2.2289
51114SOL     OW59304  10.782   4.269   5.655  0.3150 -0.3952 -0.3777
51114SOL    HW159305  10.783   4.279   5.560 -4.3805  1.3759 -0.5260
51114SOL    HW259306  10.702   4.219   5.673  1.0968 -0.7752  2.6992
51115SOL     OW59307   0.465   8.043   8.494  0.0904  0.2163 -0.4703
51115SOL    HW159308   0.430   8.128   8.523 -0.7041 -0.3865  0.3945
51115SOL    HW259309   0.481   8.054   8.401 -3.5646  0.1927 -1.2304
51116SOL     OW59310   4.039   1.308   3.014 -0.1336  0.2795 -0.1072
51116SOL    HW159311   4.026   1.250   3.089  1.9846  2.1009  1.8193
51116SOL    HW259312   3.985   1.385   3.034 -0.2198  0.4333 -0.8988
51117SOL     OW59313   8.715   4.671   3.941 -0.0109  0.2170 -0.3322
51117SOL    HW159314   8.754   4.602   3.995  0.2552 -1.5104 -2.5537
51117SOL    HW259315   8.622   4.668   3.962  0.2035  0.1874  0.6488
51118SOL     OW59316   6.668   9.871  11.347  0.0804  0.6092 -0.3743
51118SOL    HW159317   6.612   9.798  11.372  1.6215 -0.9137 -1.1840
51118SOL    HW259318   6.615   9.921  11.284 -1.0449  0.2891  0.2898
51119SOL     OW59319   4.653   5.525   4.269  0.5333 -0.4321  0.6565
51119SOL    HW159320   4.700   5.583   4.209  2.5285 -2.0721  0.5311
51119SOL    HW259321   4.717   5.458   4.293 -0.5585 -0.5712  3.6385
51120SOL     OW59322   2.861  11.898   9.888  0.0287 -0.4695 -0.4187
51120SOL    HW159323   2.921  11.947   9.943 -1.5019  1.3773 -0.3054
51120SOL    HW259324   2.815  11.839   9.949 -1.8711  1.7720  0.4618
51121SOL     OW59325   9.834   8.488   9.019  0.7040 -0.5051  0.0901
51121SOL    HW159326   9.839   8.536   9.101 -1.3169  2.5105 -1.3425
51121SOL    HW259327   9.925   8.469   8.996  1.3529 -0.5650  2.5194
51122SOL     OW59328   5.071   7.835   6.691 -0.0170  0.2667  0.3941
51122SOL    HW159329   5.063   7.930   6.704  1.7305  0.6553 -1.0188
51122SOL    HW259330   5.044   7.821   6.600  2.7397 -0.0742 -0.4628
51123SOL     OW59331   6.142   7.860   8.812 -0.1481  0.1295  0.6570
51123SOL    HW159332   6.138   7.864   8.716 -2.0125 -0.8108  0.6593
51123SOL    HW259333   6.094   7.781   8.835  0.9718 -0.1150  2.3614
51124SOL     OW59334   7.576   5.789  12.426  0.2055  0.1545 -0.5549
51124SOL    HW159335   7.600   5.708  12.470  2.0350  1.7975  1.7153
51124SOL    HW259336   7.514   5.831  12.485  0.8945  1.3431 -0.6402
51125SOL     OW59337   8.452   3.322  11.707  0.3580 -0.0396 -0.1407
51125SOL    HW159338   8.484   3.405  11.743  1.5350 -0.2430 -0.6474
51125SOL    HW259339   8.359   3.321  11.728  0.4752  1.0525  0.5512
51126SOL     OW59340   6.484  11.007   0.304 -0.1909 -0.1416  0.3811
51126SOL    HW159341   6.579  11.016   0.309  0.0858 -1.5883 -1.1452
51126SOL    HW259342   6.462  11.029   0.214 -0.9333 -2.2794 -0.0292
51127SOL     OW59343   6.198  11.913   3.304 -0.3930  0.1373  0.4021
51127SOL    HW159344   6.219  11.890   3.394 -2.2857  0.6844  1.0224
51127SOL    HW259345   6.204  12.009   3.301  2.1465  0.0375 -0.7700
51128SOL     OW59346   0.177   5.074   2.532  0.2035 -0.0121 -0.4703
51128SOL    HW159347   0.155   5.137   2.464  0.3172 -1.6636 -2.1080
51128SOL    HW259348   0.271   5.061   2.523  0.5552  1.0361  1.2097
51129SOL     OW59349   3.185   8.204   2.309 -0.5659  0.0076 -0.2033
51129SOL    HW159350   3.186   8.296   2.335  0.8050  0.0488 -0.3208
51129SOL    HW259351   3.275   8.186   2.281 -1.0363 -1.1177 -1.0726
51130SOL     OW59352   0.822   7.101   1.723  0.4554  0.0098  0.3078
51130SOL    HW159353   0.854   7.148   1.645 -1.8866 -2.3100 -2.2445
51130SOL    HW259354   0.898   7.099   1.782  1.8281  3.3969 -1.0465
51131SOL     OW59355   7.328   9.006   3.071 -0.4776  0.6751 -0.4820
51131SOL    HW159356   7.389   8.949   3.118 -0.9717 -0.8516 -1.5841
51131SOL    HW259357   7.340   8.981   2.979  1.6942  4.6828 -1.5434
51132SOL     OW59358   4.028   1.112   3.196 -0.0440  0.0832 -0.8677
51132SOL    HW159359   4.066   1.153   3.274 -0.7061  0.1478 -0.5755
51132SOL    HW259360   3.986   1.033   3.228 -0.6186  0.2869 -1.1001
51133SOL     OW59361   4.947   8.081   2.719 -0.4764  0.1543 -0.1513
51133SOL    HW159362   4.940   8.158   2.661  1.0539 -0.7607 -1.6434
51133SOL    HW259363   5.041   8.062   2.722 -0.8908 -2.3433 -0.7888
51134SOL     OW59364   0.256   4.046   5.249  0.0167  0.3607  0.1776
51134SOL    HW159365   0.184   4.002   5.296 -0.7791 -0.9825 -2.1348
51134SOL    HW259366   0.288   3.980   5.187  0.4516  2.2661 -1.7395
51135SOL     OW59367   2.680   7.461   0.662  0.4022 -0.2646 -0.2575
51135SOL    HW159368   2.756   7.416   0.702  0.3415  0.1505  0.3354
51135SOL    HW259369   2.604   7.415   0.697  0.2447  1.6288  2.1026
51136SOL     OW59370   3.943   2.872   1.682 -0.0345 -1.0232  0.4960
51136SOL    HW159371   3.889   2.795   1.694 -1.0650 -0.4674 -0.4488
51136SOL    HW259372   3.909   2.935   1.745  0.6831 -1.2616  1.1357
51137SOL     OW59373   8.190   7.437   2.080  0.4389  0.1197  0.1600
51137SOL    HW159374   8.240   7.390   2.146  1.7846 -1.2230 -1.7003
51137SOL    HW259375   8.100   7.435   2.112  1.2226  0.8281  2.6243
51138SOL     OW59376   4.334  11.113   0.155  0.2759  0.6490 -0.1053
51138SOL    HW159377   4.288  11.193   0.179  0.0045  0.2294  0.7926
51138SOL    HW259378   4.415  11.143   0.115 -0.1966  1.3781 -0.5399
51139SOL     OW59379   5.673   8.492   6.256 -0.0034 -0.0778 -0.1883
51139SOL    HW159380   5.766   8.479   6.275  0.6460  1.7126 -1.8242
51139SOL    HW259381   5.654   8.430   6.186  0.8057  1.5596 -1.9410
51140SOL     OW59382   0.082   1.194   8.193 -0.1872 -0.5428  0.1543
51140SOL    HW159383   0.151   1.128   8.197  1.2316  0.7122 -1.4719
51140SOL    HW259384   0.086   1.227   8.103 -2.2509  0.3030  0.3120
51141SOL     OW59385   0.730   5.642   8.547  0.3155  0.4673  0.4021
51141SOL    HW159386   0.787   5.660   8.622 -1.0139 -1.8126  2.0920
51141SOL    HW259387   0.734   5.547   8.536  0.0385  0.6886 -2.1190
51142SOL     OW59388  12.134  12.379   9.137  0.3805 -0.3442 -0.0202
51142SOL    HW159389  12.101  12.331   9.213 -1.8826  0.8310 -0.1794
51142SOL    HW259390  12.194  12.318   9.095  0.2649 -1.7082  1.6804
51143SOL     OW59391   1.907   6.226   1.153  0.1981 -0.0967  0.0986
51143SOL    HW159392   1.842   6.246   1.085  0.0888 -0.7730  0.0040
51143SOL    HW259393   1.861   6.169   1.214  0.8047 -0.8846 -0.1656
51144SOL     OW59394   8.270   1.424  12.249 -0.0145  0.0150  0.1918
51144SOL    HW159395   8.318   1.394  12.326  0.7212  0.1482 -0.2016
51144SOL    HW259396   8.181   1.442  12.281  0.7934  2.0625  1.4768
51145SOL     OW59397   7.513   9.574   4.330  0.0426  0.5970  0.1458
51145SOL    HW159398   7.425   9.603   4.308  0.0073  1.0813  0.8927
51145SOL    HW259399   7.568   9.652   4.317  0.6267 -0.0775 -1.7618
51146SOL     OW59400   0.795  11.392   0.689  0.2311  0.2275 -0.2768
51146SOL    HW159401   0.887  11.418   0.686 -0.3109  2.3383  0.1054
51146SOL    HW259402   0.755  11.437   0.614 -0.4613 -0.9094 -0.6196
51147SOL     OW59403   0.018   1.693   6.032  0.0957 -0.5491  0.2201
51147SOL    HW159404   0.059   1.761   5.979  1.4932 -1.7004 -0.2564
51147SOL    HW259405  -0.051   1.738   6.081  0.4916  1.0381 -0.6248
51148SOL     OW59406  10.124   7.764   0.193 -0.3036  0.0856  0.1313
51148SOL    HW159407  10.194   7.699   0.184 -0.8553 -0.5417  0.3228
51148SOL    HW259408  10.162   7.845   0.158  0.1267 -0.5260 -0.8747
51149SOL     OW59409  10.127   3.948   5.940  0.2422  1.0619  0.3557
51149SOL    HW159410  10.129   3.879   6.006  0.2030  1.6292  0.9586
51149SOL    HW259411  10.105   3.902   5.858 -1.0639  0.5407  0.9715
51150SOL     OW59412   5.167   9.649   4.309  1.0324 -0.0720  0.2840
51150SOL    HW159413   5.179   9.608   4.223  0.7200  0.2190  0.0989
51150SOL    HW259414   5.105   9.592   4.355 -0.7246  1.0660 -0.5904
51151SOL     OW59415   4.436   1.098  10.807  0.2831  0.1833  0.1965
51151SOL    HW159416   4.510   1.043  10.836  1.0007  1.0768  0.1203
51151SOL    HW259417   4.441   1.175  10.864 -0.3036  0.4636 -0.1289
51152SOL     OW59418   4.066   3.510   1.034 -0.1267  0.1156  0.0155
51152SOL    HW159419   3.971   3.503   1.026 -0.1480 -0.4538  0.6946
51152SOL    HW259420   4.081   3.560   1.114  0.1450  0.2441 -0.1143
51153SOL     OW59421   0.408   9.674   2.850  0.1317  0.5170 -0.1508
51153SOL    HW159422   0.313   9.677   2.835  0.0528 -2.2825 -0.8477
51153SOL    HW259423   0.446   9.670   2.762  0.8836  1.1065  0.1353
51154SOL     OW59424   6.437   6.421   6.921  0.2639  0.4549  0.1113
51154SOL    HW159425   6.467   6.474   6.995  0.1211  0.5386  0.1100
51154SOL    HW259426   6.421   6.334   6.958 -0.9329  0.7914  0.4283
51155SOL     OW59427   7.655   1.190  12.011 -0.7970 -0.1104  0.1788
51155SOL    HW159428   7.639   1.147  12.095 -1.8244  1.0833  0.6323
51155SOL    HW259429   7.567   1.203  11.975 -0.3530 -0.8015 -1.1962
51156SOL     OW59430  11.845   2.203   0.859  0.4460  0.2078 -0.5113
51156SOL    HW159431  11.911   2.166   0.917  2.1424  1.5835 -1.4844
51156SOL    HW259432  11.893   2.226   0.780 -1.0539  1.9697 -0.9681
51157SOL     OW59433   5.492   6.217   0.710 -0.0837  0.0073  0.1353
51157SOL    HW159434   5.544   6.138   0.719  1.8070  1.1030 -0.4588
51157SOL    HW259435   5.509   6.247   0.620 -0.3801  1.3216  0.4868
51158SOL     OW59436  10.828   1.019   5.775 -0.1075  0.5973  0.0832
51158SOL    HW159437  10.897   1.037   5.839 -0.3211 -1.4995  0.9952
51158SOL    HW259438  10.747   1.028   5.825 -0.3662  0.6382 -0.3433
51159SOL     OW59439   7.810   8.443   3.002  0.4923 -0.0934 -0.2796
51159SOL    HW159440   7.733   8.446   2.946  0.1693 -0.5400  0.1374
51159SOL    HW259441   7.840   8.353   2.999  2.1156  0.4464 -1.9101
51160SOL     OW59442   0.884   7.555   7.036 -0.5557  0.1914  0.5629
51160SOL    HW159443   0.886   7.503   6.956 -0.8518 -0.1435  0.7726
51160SOL    HW259444   0.880   7.491   7.107  0.0675  0.4764  0.8666
51161SOL     OW59445  11.368   9.638   8.486 -0.1235 -0.4002  0.1956
51161SOL    HW159446  11.340   9.564   8.538  0.0037  0.4101  1.4535
51161SOL    HW259447  11.293   9.697   8.485  0.4186  0.3170  0.8383
51162SOL     OW59448   8.100   8.029  10.352  0.0380  0.6709 -0.1638
51162SOL    HW159449   8.039   8.016  10.280  1.2849 -0.3604 -1.0898
51162SOL    HW259450   8.164   7.958  10.342  0.2893  0.5271  1.9233
51163SOL     OW59451   8.080   7.413  10.679  0.1818  0.1950  0.8895
51163SOL    HW159452   8.086   7.327  10.637 -1.5060  1.4696 -2.2931
51163SOL    HW259453   8.169   7.447  10.677  0.4803 -0.5897  0.1377
51164SOL     OW59454   2.466   3.114   3.918  0.0480 -0.0603  0.3095
51164SOL    HW159455   2.408   3.187   3.898  0.3923 -0.0358 -0.6543
51164SOL    HW259456   2.448   3.093   4.009 -2.5308 -0.9583 -0.3219
51165SOL     OW59457  12.431  10.293   4.529 -0.1165  0.3473 -0.2689
51165SOL    HW159458  12.347  10.331   4.502 -0.2369 -0.2638 -0.7931
51165SOL    HW259459  12.463  10.352   4.597 -0.0708  1.6501 -1.3601
51166SOL     OW59460   0.724   7.120   5.530  0.6123 -0.2570  0.0835
51166SOL    HW159461   0.776   7.189   5.489 -0.8133  0.5616 -0.3834
51166SOL    HW259462   0.743   7.042   5.478 -0.7799  0.6497 -1.8985
51167SOL     OW59463  11.217   2.434   9.727  0.2135  0.5084  0.0434
51167SOL    HW159464  11.234   2.428   9.821  0.7596 -3.6806 -0.1365
51167SOL    HW259465  11.301   2.416   9.686 -0.1644  1.5866 -1.2757
51168SOL     OW59466   0.787   3.815   8.621 -0.6146 -0.2225  0.1580
51168SOL    HW159467   0.843   3.835   8.696  0.2465 -1.9209  0.0055
51168SOL    HW259468   0.848   3.798   8.549 -1.3231 -1.5263 -0.1645
51169SOL     OW59469   9.540   5.920   4.130 -0.0354  0.0408 -0.6878
51169SOL    HW159470   9.479   5.952   4.197  1.7276  0.0787  0.9979
51169SOL    HW259471   9.536   5.825   4.138  1.1365  0.0686  0.4253
51170SOL     OW59472   9.886  11.304   8.983 -0.3536  0.6590  0.6696
51170SOL    HW159473   9.981  11.314   8.981 -0.1117 -1.3741 -0.6402
51170SOL    HW259474   9.853  11.381   8.936  0.7376  0.6192 -0.1941
51171SOL     OW59475   5.479   6.767   1.645  0.2031  0.1760 -0.0537
51171SOL    HW159476   5.474   6.672   1.633  0.0164 -0.0671  1.6312
51171SOL    HW259477   5.561   6.781   1.694 -0.4350  0.7211  0.8922
51172SOL     OW59478   5.030   4.947   0.056  0.0199  0.0750 -0.2705
51172SOL    HW159479   4.936   4.941   0.041  0.2379  0.3126 -1.8757
51172SOL    HW259480   5.038   4.970   0.149 -1.4548 -1.1531  0.2086
51173SOL     OW59481   5.659   4.384   8.356  0.2686  0.3969  0.0970
51173SOL    HW159482   5.654   4.294   8.387 -0.1118  0.0619 -0.9040
51173SOL    HW259483   5.569   4.406   8.330  0.7198  0.3326 -1.6221
51174SOL     OW59484  11.068   7.659  11.853  0.1458  0.4232  0.2357
51174SOL    HW159485  11.063   7.565  11.868  3.2753 -0.4522 -2.8107
51174SOL    HW259486  11.092   7.696  11.938  0.9906 -1.8218  1.0477
51175SOL     OW59487   1.361   0.164   4.646 -0.3471  0.1324  0.3136
51175SOL    HW159488   1.430   0.150   4.711 -1.1935 -0.1280  1.1927
51175SOL    HW259489   1.306   0.086   4.652 -0.4451  0.1023 -0.7367
51176SOL     OW59490   5.392   1.965   8.414  0.0963 -0.3253  0.1513
51176SOL    HW159491   5.347   1.890   8.452 -0.2529  0.5795  1.6063
51176SOL    HW259492   5.474   1.930   8.381  2.4028 -0.6393  5.3477
51177SOL     OW59493   9.733  11.469   3.537  0.0980 -0.0139  0.2537
51177SOL    HW159494   9.670  11.539   3.519  1.7988  1.3042 -0.9395
51177SOL    HW259495   9.762  11.484   3.627  0.4389  0.8413  0.0103
51178SOL     OW59496   3.889   0.909   3.017  0.6275 -0.4748 -0.1126
51178SOL    HW159497   3.813   0.949   3.057  1.3989  0.3408  0.5693
51178SOL    HW259498   3.960   0.973   3.029  1.4146 -1.1999 -0.7392
51179SOL     OW59499   6.632   3.047   4.820  0.1407  0.2004 -0.4663
51179SOL    HW159500   6.657   3.014   4.734 -0.8513 -2.6520  0.2177
51179SOL    HW259501   6.593   3.133   4.804  1.5655  0.5173 -2.5943
51180SOL     OW59502  11.075   1.679   8.364 -0.1572 -0.2371 -0.0814
51180SOL    HW159503  10.989   1.637   8.366 -0.0249 -0.5310 -0.5351
51180SOL    HW259504  11.137   1.607   8.354  0.0254  0.0937 -1.6039
51181SOL     OW59505   9.629   0.183   5.104  0.1809  0.2199 -0.1366
51181SOL    HW159506   9.697   0.123   5.136  0.9067 -0.2247 -2.3367
51181SOL    HW259507   9.547   0.140   5.127  0.6835 -1.9220 -2.0340
51182SOL     OW59508   1.007   7.935   6.075 -0.3306  0.3267  0.1261
51182SOL    HW159509   1.071   7.916   6.006  0.0924 -0.7924  0.8127
51182SOL    HW259510   0.943   7.992   6.033  0.9764  1.2790 -0.6555
51183SOL     OW59511   2.958   5.078  11.323  0.2534 -0.4590  0.8316
51183SOL    HW159512   2.948   5.138  11.249  0.7058 -1.4159 -0.0326
51183SOL    HW259513   2.891   5.105  11.385  1.5014  1.9717  1.2105
51184SOL     OW59514   4.187   0.423   4.489  0.7403  0.0546 -0.0008
51184SOL    HW159515   4.228   0.497   4.444  1.1803  0.0214  0.3464
51184SOL    HW259516   4.212   0.434   4.580 -1.0923  0.7816  0.4661
51185SOL     OW59517   7.799   3.099   3.155 -0.0767 -0.0205 -0.0445
51185SOL    HW159518   7.796   3.008   3.182  0.1166 -0.1346 -0.3940
51185SOL    HW259519   7.717   3.137   3.184  0.6694  0.2010  1.8949
51186SOL     OW59520   1.635   6.352   9.067  0.0530  0.0392  0.1317
51186SOL    HW159521   1.731   6.345   9.065  0.0050 -0.5447 -0.4575
51186SOL    HW259522   1.615   6.426   9.009  0.0409 -1.2667 -1.6092
51187SOL     OW59523   1.849  12.364   9.531 -0.0432  0.1625 -0.3219
51187SOL    HW159524   1.816  12.294   9.475 -2.1689  1.1433 -0.3937
51187SOL    HW259525   1.926  12.398   9.485 -0.5651 -0.3700 -1.6317
51188SOL     OW59526   0.339   0.018  10.753  0.0028  0.4912  0.1365
51188SOL    HW159527   0.286  -0.045  10.704 -1.0508  0.9837  0.6003
51188SOL    HW259528   0.277   0.058  10.814  0.8095  1.4453  0.3493
51189SOL     OW59529   7.502  10.978   2.042 -0.1926  0.0249 -0.1844
51189SOL    HW159530   7.538  11.027   1.967 -0.5509  1.7165  0.7094
51189SOL    HW259531   7.579  10.949   2.091  0.0690 -1.5184 -1.4052
51190SOL     OW59532  11.921   1.385  11.324  0.0300  0.2927 -0.1092
51190SOL    HW159533  11.942   1.308  11.271 -1.0950  0.1837 -0.4325
51190SOL    HW259534  11.911   1.351  11.413 -0.5526  0.0438 -0.2671
51191SOL     OW59535   5.689  11.644  11.363 -0.6444 -0.2652 -0.5730
51191SOL    HW159536   5.708  11.683  11.449 -0.9485 -0.2761 -0.4983
51191SOL    HW259537   5.671  11.719  11.306  2.4284 -0.0452 -1.3947
51192SOL     OW59538   4.204   7.107  10.796  0.1237  0.1864 -0.0052
51192SOL    HW159539   4.203   7.138  10.887 -0.6748  1.2255 -0.3557
51192SOL    HW259540   4.254   7.025  10.800  0.7395  0.5916  1.2403
51193SOL     OW59541   2.453   5.727  10.992 -0.3667  0.1177  0.3229
51193SOL    HW159542   2.544   5.704  10.971  0.2333  1.4450  1.2764
51193SOL    HW259543   2.458   5.818  11.022 -1.8795 -0.0652  1.2444
51194SOL     OW59544   8.663   4.915  11.996  0.1623  0.2759  0.1565
51194SOL    HW159545   8.688   4.833  12.039  0.2383 -0.2137 -0.8076
51194SOL    HW259546   8.573   4.900  11.966  0.4263  0.2877 -0.6503
51195SOL     OW59547   1.505   7.524   5.739 -0.4340 -0.4246 -0.4199
51195SOL    HW159548   1.553   7.547   5.659 -0.0385  0.6339  0.1066
51195SOL    HW259549   1.441   7.458   5.710  0.5159 -0.9626 -1.3622
51196SOL     OW59550   1.398   2.808   9.329  0.4787  0.0738 -0.0101
51196SOL    HW159551   1.453   2.884   9.309  0.9070 -0.6535 -1.8014
51196SOL    HW259552   1.309   2.841   9.329  0.5120  0.3269 -2.4963
51197SOL     OW59553   5.471   3.486   6.488 -0.8414 -0.5257 -0.1454
51197SOL    HW159554   5.477   3.511   6.396 -0.8433 -1.4272 -0.3939
51197SOL    HW259555   5.404   3.418   6.491 -2.6841  1.2142  0.9027
51198SOL     OW59556   8.006   9.704  10.026 -0.1790 -0.1478 -0.2069
51198SOL    HW159557   8.052   9.683  10.107  0.3623 -3.4209 -1.2310
51198SOL    HW259558   7.914   9.705  10.050  0.0709  1.0430  0.8098
51199SOL     OW59559   9.628   9.469   9.049  0.4697  0.1770  0.4006
51199SOL    HW159560   9.561   9.537   9.047 -0.6008 -0.8475  0.5091
51199SOL    HW259561   9.610   9.415   8.972 -0.1482 -1.3044  1.5345
51200SOL     OW59562   4.340   0.889   1.189 -0.9240 -0.4401 -0.0421
51200SOL    HW159563   4.283   0.825   1.233 -0.0746  0.3329  2.3666
51200SOL    HW259564   4.304   0.974   1.214  0.6275  0.0473  0.6436
51201SOL     OW59565   7.417   4.437   0.814 -0.1527  0.5458  0.7156
51201SOL    HW159566   7.360   4.459   0.888 -0.8575 -2.6657  1.2919
51201SOL    HW259567   7.357   4.416   0.742  0.2753 -1.1671  0.8054
51202SOL     OW59568   9.545   0.510   4.511 -0.5105  0.6303 -0.1312
51202SOL    HW159569   9.520   0.601   4.524  2.6326  1.3759  1.7640
51202SOL    HW259570   9.479   0.460   4.559 -0.4459  2.1827  1.7073
51203SOL     OW59571   7.036   4.015   7.054 -0.1026 -0.1236 -0.2971
51203SOL    HW159572   7.037   4.104   7.090 -0.6835 -0.1480 -0.2117
51203SOL    HW259573   6.967   3.970   7.103 -1.2286 -0.0273 -1.7311
51204SOL     OW59574  11.285   0.946   3.746 -0.4394 -0.3415 -0.0865
51204SOL    HW159575  11.280   0.920   3.839 -0.3472 -0.0553 -0.0010
51204SOL    HW259576  11.231   0.882   3.701  2.4204 -2.8434 -0.3096
51205SOL     OW59577   6.716   7.172   4.209  0.6791 -0.6260  0.5215
51205SOL    HW159578   6.731   7.266   4.209  0.4367 -0.5659 -0.8300
51205SOL    HW259579   6.781   7.137   4.270  1.0373  0.3708  0.7323
51206SOL     OW59580   2.304   4.168   0.838  0.1742  0.3752 -0.4864
51206SOL    HW159581   2.344   4.182   0.752 -0.1090  1.4312 -0.4505
51206SOL    HW259582   2.280   4.255   0.869  0.7265  0.0689  0.9028
51207SOL     OW59583   3.145   9.755   2.209 -0.1220 -0.1139 -0.3603
51207SOL    HW159584   3.227   9.795   2.182  0.9401 -1.4378  0.7309
51207SOL    HW259585   3.145   9.761   2.304 -1.1897 -0.3397 -0.3294
51208SOL     OW59586   7.043   5.290   9.278 -0.6849 -0.1429 -0.0553
51208SOL    HW159587   6.990   5.367   9.298 -0.8253 -0.1659 -0.3344
51208SOL    HW259588   7.102   5.281   9.354  0.1689  0.9521 -0.5546
51209SOL     OW59589   3.413   4.399   4.822 -0.6764 -0.4784  0.5266
51209SOL    HW159590   3.362   4.344   4.763  0.4123 -0.1021 -0.8284
51209SOL    HW259591   3.350   4.458   4.862 -1.7700 -2.2031  1.4886
51210SOL     OW59592   1.623   9.751   6.278  0.8773 -0.2485 -0.4422
51210SOL    HW159593   1.562   9.820   6.307 -0.5009 -1.4617 -0.3606
51210SOL    HW259594   1.664   9.787   6.199  0.7825  0.9776  0.0398
51211SOL     OW59595   4.239   0.217  10.743 -0.5903  0.0768  0.2242
51211SOL    HW159596   4.226   0.303  10.704 -1.5720  0.2633  0.9563
51211SOL    HW259597   4.308   0.230  10.808 -1.5229  0.5528  1.1210
51212SOL     OW59598   0.716  12.100   3.659  0.2870 -0.3408  0.7232
51212SOL    HW159599   0.626  12.130   3.652  0.1145 -1.2192 -1.4948
51212SOL    HW259600   0.745  12.089   3.568  2.3714 -0.8187  1.3974
51213SOL     OW59601  10.191   0.224   7.864  0.7585 -0.1589  0.0596
51213SOL    HW159602  10.208   0.139   7.905  3.6992  0.0352 -0.5388
51213SOL    HW259603  10.174   0.203   7.772 -1.6002 -0.2534  0.4473
51214SOL     OW59604   4.864   3.789   6.279 -0.7117  0.5057  0.2692
51214SOL    HW159605   4.903   3.859   6.332  0.6491  1.6114 -2.0457
51214SOL    HW259606   4.860   3.714   6.339 -0.4330  1.9874  2.2785
51215SOL     OW59607   6.731   8.386  10.398  0.3040 -0.1203  0.4486
51215SOL    HW159608   6.805   8.364  10.342  0.5434  1.4140  0.1232
51215SOL    HW259609   6.679   8.447  10.346 -0.1792  0.2886  1.3838
51216SOL     OW59610   5.499   3.294   7.594  0.2772 -0.1335  0.0291
51216SOL    HW159611   5.406   3.286   7.573  0.5799  0.6937 -1.8116
51216SOL    HW259612   5.509   3.246   7.676 -1.9628  0.6759  0.8585
51217SOL     OW59613  11.950  11.460   9.459 -0.1127 -0.2464 -0.1592
51217SOL    HW159614  12.010  11.434   9.390  0.6613 -0.7889  0.6843
51217SOL    HW259615  11.863  11.451   9.420  0.3385  0.3256 -1.3245
51218SOL     OW59616   7.258  10.841   2.649 -0.7068  0.7806 -0.0979
51218SOL    HW159617   7.314  10.767   2.668 -2.1350 -0.0818  1.0385
51218SOL    HW259618   7.303  10.889   2.580  1.0107 -0.2703  0.2300
51219SOL     OW59619   4.960   5.695  11.213  0.2700 -0.4435 -0.3553
51219SOL    HW159620   4.978   5.674  11.304 -0.6988  0.8031  0.1499
51219SOL    HW259621   5.045   5.687  11.169  0.6810 -1.3576  0.5825
51220SOL     OW59622   3.218   3.073   0.452 -0.4084  0.3877  0.5554
51220SOL    HW159623   3.203   3.099   0.362  0.0629 -2.5859 -0.4839
51220SOL    HW259624   3.313   3.072   0.461 -0.4496  1.0052  1.2558
51221SOL     OW59625   3.334   6.903   3.630  0.1420 -0.4377  0.2715
51221SOL    HW159626   3.253   6.873   3.670  0.0749 -0.2692  0.2590
51221SOL    HW259627   3.393   6.828   3.637 -0.2700 -0.8436 -0.4509
51222SOL     OW59628  12.065  11.975   1.208 -0.0199  0.0683  0.3858
51222SOL    HW159629  12.112  11.933   1.280  2.3816 -1.1832 -1.7370
51222SOL    HW259630  12.127  12.039   1.173 -0.6062 -0.2150 -1.2902
51223SOL     OW59631   8.681  10.324   5.639 -1.0891 -0.4438 -0.3137
51223SOL    HW159632   8.664  10.268   5.564 -0.2323  0.1189 -0.9586
51223SOL    HW259633   8.765  10.293   5.674 -0.2565  0.8158 -1.0940
51224SOL     OW59634   8.732   0.184  11.156 -0.0968  0.0193  0.5672
51224SOL    HW159635   8.713   0.193  11.062  0.0764 -1.6205  0.3398
51224SOL    HW259636   8.648   0.201  11.198 -0.7783 -1.5672 -0.0670
51225SOL     OW59637   1.654   7.774   0.848 -0.8921 -0.4332 -0.5521
51225SOL    HW159638   1.733   7.811   0.888 -2.4822  1.1527  1.3433
51225SOL    HW259639   1.687   7.721   0.776  2.0110 -1.1258  1.0904
51226SOL     OW59640   3.525   7.659   3.534  0.1021 -0.3857 -0.2273
51226SOL    HW159641   3.580   7.627   3.605 -2.0973  0.7393  2.1576
51226SOL    HW259642   3.534   7.755   3.538 -0.9522 -0.2496 -0.6557
51227SOL     OW59643   1.840   8.287  10.995  0.0988 -0.1524 -0.0706
51227SOL    HW159644   1.803   8.365  10.954  0.2748 -1.0791 -2.0811
51227SOL    HW259645   1.764   8.239  11.029 -0.0863  0.4257  0.3470
51228SOL     OW59646   9.185   5.411   6.929  0.1651  0.2718  0.1625
51228SOL    HW159647   9.274   5.379   6.911  0.4850  0.8822  0.6061
51228SOL    HW259648   9.198   5.484   6.990 -0.6737  0.0992  0.5580
51229SOL     OW59649  10.109   2.734   6.383 -0.2021 -0.1339 -0.1091
51229SOL    HW159650  10.160   2.810   6.354 -0.7293 -0.0460 -0.8486
51229SOL    HW259651  10.110   2.739   6.478  0.6299  0.2218 -0.1325
51230SOL     OW59652   1.130   2.964   7.855  0.2965  0.0680 -0.2378
51230SOL    HW159653   1.142   2.875   7.821 -1.2314 -0.2300 -0.0310
51230SOL    HW259654   1.146   3.021   7.780  1.2760 -0.3553 -0.3724
51231SOL     OW59655  10.914   4.554   4.743  0.0916  0.5436 -0.1174
51231SOL    HW159656  10.820   4.567   4.758  0.5518  0.2303  4.2474
51231SOL    HW259657  10.950   4.642   4.738 -0.1633  0.7317  1.0298
51232SOL     OW59658   2.102   9.807   8.250 -0.1738  0.0963  0.3801
51232SOL    HW159659   2.089   9.726   8.200  1.2118 -0.1466  0.3701
51232SOL    HW259660   2.188   9.796   8.291 -0.5890  0.9695  1.5389
51233SOL     OW59661   7.734   3.322   7.197 -0.1245  0.7046  0.1883
51233SOL    HW159662   7.816   3.277   7.178  0.3775  1.9222 -0.7108
51233SOL    HW259663   7.666   3.259   7.173  0.5479 -0.1052  0.3763
51234SOL     OW59664   9.530   0.241  11.165  0.1495  0.1193  0.2953
51234SOL    HW159665   9.514   0.166  11.222  0.4034  0.3410  0.6641
51234SOL    HW259666   9.475   0.310  11.199 -1.7149 -0.4748 -1.3188
51235SOL     OW59667   6.981   7.079   1.206  0.1224  0.3231  0.5747
51235SOL    HW159668   6.920   7.125   1.149  1.0878  1.5415  0.4736
51235SOL    HW259669   6.927   7.016   1.254 -1.1013  0.9610  0.0703
51236SOL     OW59670   5.784   4.843   9.904  0.4103 -0.1126 -0.1103
51236SOL    HW159671   5.818   4.857   9.815  0.3447  0.2886 -0.0767
51236SOL    HW259672   5.753   4.753   9.904 -0.4986  0.1918 -0.7990
51237SOL     OW59673  11.954   6.198   0.417 -0.1350 -0.2523  0.1615
51237SOL    HW159674  11.868   6.158   0.403  0.4428 -2.1415  1.5186
51237SOL    HW259675  11.940   6.259   0.490  0.2567 -3.2104  2.9371
51238SOL     OW59676  12.112   5.646   7.062 -0.2510  0.6160  0.1197
51238SOL    HW159677  12.092   5.567   7.012 -0.4767  0.8790 -0.2072
51238SOL    HW259678  12.169   5.697   7.004  0.2143  0.5172  0.4841
51239SOL     OW59679   5.109   5.432   4.357  0.7038  0.1386 -0.1163
51239SOL    HW159680   5.117   5.466   4.267 -0.2224  1.4617  0.2673
51239SOL    HW259681   5.189   5.461   4.401  1.3167 -0.7983 -0.5861
51240SOL     OW59682   8.293   0.426   0.930 -0.5862 -0.5714  0.5298
51240SOL    HW159683   8.213   0.467   0.962  0.6301  0.0291  3.0577
51240SOL    HW259684   8.354   0.431   1.003  1.5524 -1.6734 -1.0439
51241SOL     OW59685   2.530  12.086   5.777  0.1565 -0.7020  0.1810
51241SOL    HW159686   2.470  12.160   5.766  0.3857 -0.7361 -1.4178
51241SOL    HW259687   2.501  12.046   5.859 -1.0756  0.1412  0.2015
51242SOL     OW59688   6.087   9.636   2.416 -0.2780  0.1833 -0.8088
51242SOL    HW159689   6.132   9.601   2.493  0.8799 -0.8673 -1.9160
51242SOL    HW259690   6.140   9.711   2.389 -1.2753  1.2171 -0.0013
51243SOL     OW59691   3.715   7.773  12.077 -0.5195 -0.2332  0.6870
51243SOL    HW159692   3.738   7.682  12.095 -1.0188 -0.2264  1.4486
51243SOL    HW259693   3.658   7.769  12.000  1.6029 -0.2847 -0.9526
51244SOL     OW59694   0.435   6.587  10.087  0.7734 -0.4683 -0.1759
51244SOL    HW159695   0.393   6.670  10.063 -0.9859 -0.9163  1.0910
51244SOL    HW259696   0.470   6.602  10.175  0.4169 -1.0370  0.0751
51245SOL     OW59697   2.771   7.977   2.158  0.2259  0.2385 -0.7998
51245SOL    HW159698   2.826   8.055   2.160  1.1344 -0.3781 -1.0208
51245SOL    HW259699   2.832   7.905   2.141 -0.3794 -0.7026  0.8140
51246SOL     OW59700   3.779   0.875   2.759  0.2018  0.5850  0.2143
51246SOL    HW159701   3.805   0.868   2.850 -0.6464 -0.0242  0.4196
51246SOL    HW259702   3.820   0.956   2.728  0.4247  0.8349  1.1491
51247SOL     OW59703  10.114  11.341  11.921  0.1659  0.4432  0.1656
51247SOL    HW159704  10.101  11.271  11.857 -1.1448  0.4114  0.4445
51247SOL    HW259705  10.072  11.417  11.882  0.7493  0.8329  0.2919
51248SOL     OW59706  11.659   4.528   7.966 -0.1518  0.1706  0.2808
51248SOL    HW159707  11.650   4.618   7.998 -1.6811 -0.1477  0.8552
51248SOL    HW259708  11.641   4.473   8.043  0.6175 -0.6278 -0.0923
51249SOL     OW59709   7.328   0.697   4.444  0.3989  0.0240 -0.0909
51249SOL    HW159710   7.339   0.747   4.363  0.2126  1.1115  0.5281
51249SOL    HW259711   7.383   0.744   4.507  1.1899 -1.2821  0.2277
51250SOL     OW59712   5.704   2.960  11.042 -0.0196 -0.2495 -0.6916
51250SOL    HW159713   5.686   3.046  11.081  1.4654 -0.2112 -0.0218
51250SOL    HW259714   5.619   2.916  11.040 -0.8555  1.2891 -1.2213
51251SOL     OW59715   2.800   1.378   3.150 -0.1790 -0.2133 -0.5107
51251SOL    HW159716   2.844   1.358   3.067  0.5322  1.1628 -0.4873
51251SOL    HW259717   2.760   1.464   3.135 -0.9504 -0.4349  0.2340
51252SOL     OW59718   0.774   0.447   3.891 -0.4471 -0.5290  0.2033
51252SOL    HW159719   0.771   0.376   3.827 -0.1131 -0.2942 -0.0703
51252SOL    HW259720   0.724   0.413   3.966  0.6872 -1.5165  0.5503
51253SOL     OW59721   8.198   6.397   7.644 -0.4906  0.6738 -0.2126
51253SOL    HW159722   8.272   6.427   7.592 -0.0129 -1.9463 -1.2048
51253SOL    HW259723   8.137   6.361   7.580 -0.0844 -2.2659  0.9281
51254SOL     OW59724   7.621   4.151   2.000  0.0275  0.1124  0.1519
51254SOL    HW159725   7.712   4.177   2.012 -0.2675  0.6338  1.4415
51254SOL    HW259726   7.625   4.074   1.942  1.4562 -1.1664  1.8463
51255SOL     OW59727   7.447  10.882   0.957  0.3190 -0.0982  0.1688
51255SOL    HW159728   7.537  10.896   0.988  1.3592 -0.7006 -2.3626
51255SOL    HW259729   7.399  10.959   0.990  1.8741  0.5610  1.0518
51256SOL     OW59730   2.350   4.076   2.506  0.3027  0.3225  0.3374
51256SOL    HW159731   2.442   4.051   2.495  0.7455  2.1426 -0.4125
51256SOL    HW259732   2.308   4.048   2.424  0.3449  0.1520  0.3735
51257SOL     OW59733   7.014   4.399   5.467  1.0689 -0.5092  0.1385
51257SOL    HW159734   7.017   4.432   5.557  0.7490 -0.5900  0.1811
51257SOL    HW259735   7.096   4.429   5.428  0.4225  1.0706 -0.0773
51258SOL     OW59736  10.412  11.045   4.406  0.2090  0.2047 -0.6384
51258SOL    HW159737  10.444  11.121   4.454  0.9278 -1.9442  2.6185
51258SOL    HW259738  10.490  10.993   4.387 -0.5236 -1.2355  0.1262
51259SOL     OW59739  10.692   8.795   8.942 -0.3383 -0.4832 -0.2607
51259SOL    HW159740  10.737   8.876   8.919 -1.5868  0.4040  0.2777
51259SOL    HW259741  10.701   8.739   8.865  0.0692  0.3785 -0.8542
51260SOL     OW59742   1.652  11.398  10.115 -0.2208  0.4298 -0.3971
51260SOL    HW159743   1.702  11.445  10.048 -0.6372  0.7122 -0.5153
51260SOL    HW259744   1.565  11.438  10.112  0.2698  1.8055  1.6571
51261SOL     OW59745  10.665  10.305   9.687  0.1725  0.0762 -0.2248
51261SOL    HW159746  10.581  10.329   9.649 -1.8588  2.5543  4.7816
51261SOL    HW259747  10.650  10.219   9.726  0.7808 -0.5239 -1.2898
51262SOL     OW59748   6.909   0.975   3.626 -0.6126  0.1626  0.4655
51262SOL    HW159749   6.942   0.971   3.536 -1.2106  0.9826  0.1989
51262SOL    HW259750   6.884   0.885   3.646 -0.1306 -0.0992 -0.0528
51263SOL     OW59751   7.738   0.326   1.385 -0.1379  0.3572  1.0041
51263SOL    HW159752   7.827   0.316   1.350 -0.0001  1.4247  1.0160
51263SOL    HW259753   7.703   0.238   1.386  0.7703 -0.0239  0.5767
51264SOL     OW59754   7.551   6.544   1.980  0.4603 -0.2750 -0.3260
51264SOL    HW159755   7.611   6.470   1.977 -0.3003 -0.9479  0.4625
51264SOL    HW259756   7.532   6.556   2.073  1.1236  1.3874 -0.3578
51265SOL     OW59757   3.507   0.503  10.247  0.3092  0.0048  0.4686
51265SOL    HW159758   3.452   0.426  10.263  0.8157 -0.6468 -0.7448
51265SOL    HW259759   3.505   0.513  10.151  2.7937 -0.4312  0.3210
51266SOL     OW59760   4.413   2.273   6.526  0.5945 -0.3039  0.0839
51266SOL    HW159761   4.434   2.262   6.433  1.3373 -1.3498  0.3608
51266SOL    HW259762   4.400   2.184   6.558  0.1569  0.0625  0.9509
51267SOL     OW59763   4.381   6.456   0.679 -0.0517 -0.1538  0.0802
51267SOL    HW159764   4.305   6.409   0.644  0.2182 -0.4343 -0.1308
51267SOL    HW259765   4.455   6.396   0.666  0.0983 -0.1679  0.9058
51268SOL     OW59766   8.516   7.032   9.248  0.2775  0.0573  0.6795
51268SOL    HW159767   8.446   6.999   9.305 -1.3530  0.7514 -0.8176
51268SOL    HW259768   8.589   6.971   9.262 -0.6958 -0.8495  2.1056
51269SOL     OW59769   0.108   3.602   7.731  0.6674  0.5218  0.6018
51269SOL    HW159770   0.129   3.551   7.809 -0.1114 -0.2079  0.3556
51269SOL    HW259771   0.027   3.562   7.698  0.4008  1.5114  0.0309
51270SOL     OW59772  11.443   6.455  10.003 -0.1282  0.0286 -0.4041
51270SOL    HW159773  11.515   6.445  10.064  2.2746 -0.9121 -3.1486
51270SOL    HW259774  11.397   6.371  10.005 -0.1990  0.0777  0.2035
51271SOL     OW59775   8.838   2.983   2.573 -0.1494 -0.0459 -0.1018
51271SOL    HW159776   8.918   2.975   2.520 -0.9335 -2.4340 -1.0475
51271SOL    HW259777   8.870   3.003   2.661  1.4615 -0.3258 -0.5865
51272SOL     OW59778  10.635   5.768  11.225  0.2491  0.0724 -0.1788
51272SOL    HW159779  10.658   5.853  11.187 -0.7590  1.6627  2.5088
51272SOL    HW259780  10.540   5.762  11.211  0.0982  0.0429  0.8264
51273SOL     OW59781   3.339  10.962   3.064  0.3068  0.1000  0.0034
51273SOL    HW159782   3.302  11.049   3.074  1.4341  0.6593 -0.5293
51273SOL    HW259783   3.355  10.932   3.154  1.5047  1.1613  0.1683
51274SOL     OW59784   7.401   5.220   5.535 -0.0489  0.0173 -0.4252
51274SOL    HW159785   7.495   5.231   5.525 -0.0236 -0.5419 -0.8536
51274SOL    HW259786   7.363   5.303   5.507  0.3870  0.8168  1.2071
51275SOL     OW59787   0.823  10.217   5.603 -0.0935 -0.9420 -0.1755
51275SOL    HW159788   0.745  10.246   5.651 -0.4990 -3.5606  0.8795
51275SOL    HW259789   0.790  10.154   5.540  0.7249  0.8678 -2.5810
51276SOL     OW59790   3.263   5.125   7.037 -0.0856 -0.6217  0.1418
51276SOL    HW159791   3.329   5.114   6.969 -0.1109  1.0636 -0.1906
51276SOL    HW259792   3.264   5.042   7.086  1.6763 -0.9249 -0.3596
51277SOL     OW59793   5.190  12.054  11.690 -0.0340  0.1078 -0.2390
51277SOL    HW159794   5.153  12.106  11.761 -0.2224  1.2942 -1.1630
51277SOL    HW259795   5.225  11.976  11.732 -1.2671  0.1772  0.9860
51278SOL     OW59796   6.485   2.991   9.649  0.3080  0.1547 -0.1715
51278SOL    HW159797   6.443   3.055   9.706 -1.7361 -1.8440  0.7451
51278SOL    HW259798   6.415   2.961   9.591  1.7092  0.1986 -1.9777
51279SOL     OW59799   7.426   8.662  11.232 -0.2780  0.4215  0.1142
51279SOL    HW159800   7.497   8.724  11.216  0.7504 -0.5639  0.6776
51279SOL    HW259801   7.453   8.616  11.312 -2.7948  1.7683  1.8975
51280SOL     OW59802   3.385   1.121   0.814  0.1127  0.3588 -0.5526
51280SOL    HW159803   3.410   1.138   0.905  2.4111 -1.9924 -0.6317
51280SOL    HW259804   3.306   1.173   0.801 -0.6063  0.3558  2.9206
51281SOL     OW59805   9.031   7.146   8.063 -0.0900 -0.3372  0.1704
51281SOL    HW159806   9.067   7.072   8.111  0.3598 -0.9490 -1.0632
51281SOL    HW259807   9.107   7.193   8.029 -0.3363 -1.5747 -2.3568
51282SOL     OW59808  12.209   7.111  12.129  0.0864 -0.4688  0.5077
51282SOL    HW159809  12.220   7.054  12.205  3.6075 -0.5096  0.1041
51282SOL    HW259810  12.244   7.195  12.157 -2.0568  0.6574  0.0426
51283SOL     OW59811   0.918   1.061  11.773  0.0092  0.1608 -0.4408
51283SOL    HW159812   0.980   1.111  11.826  0.5145  1.3802 -2.0829
51283SOL    HW259813   0.929   0.971  11.801 -0.5034  0.8404  2.2323
51284SOL     OW59814   3.925   1.614  11.915 -0.2591 -0.8165 -0.0210
51284SOL    HW159815   3.930   1.693  11.861  0.3883 -0.9855 -0.2090
51284SOL    HW259816   3.889   1.548  11.857  0.4833 -1.0110 -0.2707
51285SOL     OW59817   8.036   6.765   6.820 -0.5556 -0.4608  0.5705
51285SOL    HW159818   7.995   6.682   6.843  0.1572 -1.5326 -1.6938
51285SOL    HW259819   8.101   6.742   6.754 -0.4046  1.9258 -0.2221
51286SOL     OW59820   5.221  11.293  11.776  0.2948 -0.5711  0.0010
51286SOL    HW159821   5.166  11.343  11.837  0.4490  2.3249 -2.0097
51286SOL    HW259822   5.305  11.285  11.820 -0.0352  0.1625  0.7847
51287SOL     OW59823   6.073   4.654   8.800  0.4392  0.1501 -0.0537
51287SOL    HW159824   6.135   4.711   8.754  2.2457 -1.7629 -0.1812
51287SOL    HW259825   6.098   4.660   8.892  0.6154 -0.3889 -0.0631
51288SOL     OW59826   1.478   9.513   1.860 -0.0680  0.2761 -0.5368
51288SOL    HW159827   1.555   9.543   1.813  0.1723 -0.3096 -0.5271
51288SOL    HW259828   1.513   9.452   1.926 -0.5532 -0.1267 -0.6482
51289SOL     OW59829   0.605  11.534   8.105  0.0733 -0.1340 -0.2781
51289SOL    HW159830   0.696  11.562   8.095  0.0853  0.5196  1.2895
51289SOL    HW259831   0.608  11.438   8.100  1.2712 -0.3037  2.2188
51290SOL     OW59832   9.873   2.223   3.950 -0.0518  0.1432  0.2563
51290SOL    HW159833   9.818   2.297   3.977  1.0760  0.1013  2.9459
51290SOL    HW259834   9.940   2.262   3.895 -1.0691  0.6405 -0.6769
51291SOL     OW59835  11.519  10.478  10.926 -0.0693  0.8988 -0.2685
51291SOL    HW159836  11.512  10.458  11.019 -0.8907 -0.8980 -0.6616
51291SOL    HW259837  11.473  10.561  10.915 -0.7815  0.6635  0.7917
51292SOL     OW59838   3.744   4.957   1.693  0.1369  0.5571 -0.5215
51292SOL    HW159839   3.698   5.024   1.643  0.6786  0.5621 -1.0341
51292SOL    HW259840   3.779   4.897   1.626  1.7845  1.1496 -0.2479
51293SOL     OW59841   2.828   4.114   8.491  0.0216  0.2450  0.4597
51293SOL    HW159842   2.733   4.117   8.502  0.1234  0.9289  1.3026
51293SOL    HW259843   2.861   4.093   8.579  0.7087  1.5415  0.5419
51294SOL     OW59844   7.705   3.068   4.003 -0.0656 -0.1092  0.3351
51294SOL    HW159845   7.622   3.113   3.987 -1.4028 -2.9004 -1.4799
51294SOL    HW259846   7.735   3.043   3.916  1.2518 -1.5090  1.1519
51295SOL     OW59847   9.402   3.769   3.268  0.2151 -0.5703  0.4063
51295SOL    HW159848   9.367   3.781   3.356 -2.2475 -1.5113 -0.3846
51295SOL    HW259849   9.333   3.799   3.209  1.7425 -0.0862 -1.2463
51296SOL     OW59850   8.309  10.262   2.784 -0.2048  0.0769  0.7304
51296SOL    HW159851   8.279  10.353   2.782 -0.9060 -0.1428  0.8922
51296SOL    HW259852   8.257  10.219   2.716 -0.4793 -0.3792  1.2268
51297SOL     OW59853   2.044  10.749   3.119  0.0450 -0.3131 -0.3567
51297SOL    HW159854   2.070  10.708   3.202 -1.2397 -1.7817 -0.6420
51297SOL    HW259855   2.021  10.676   3.063 -0.7406  0.7540 -1.4570
51298SOL     OW59856   8.345   1.344  11.234 -0.3019 -0.1749  0.0711
51298SOL    HW159857   8.439   1.345  11.215  0.1340 -0.1434  2.0358
51298SOL    HW259858   8.324   1.252  11.246 -0.1947 -0.0843  1.0279
51299SOL     OW59859   3.638   6.669   6.647 -0.0796  0.4505  0.4275
51299SOL    HW159860   3.572   6.606   6.677 -0.3085  1.1766  1.5150
51299SOL    HW259861   3.700   6.617   6.596 -1.5377 -0.2430 -0.7161
51300SOL     OW59862   4.588   5.086  12.218 -0.3209 -0.2819  0.3961
51300SOL    HW159863   4.500   5.048  12.225 -1.1735  1.6041  0.6986
51300SOL    HW259864   4.583   5.144  12.142  0.2735  0.7474  1.1202
51301SOL     OW59865   2.890   0.918   2.044  1.0651 -0.6299  0.3954
51301SOL    HW159866   2.932   0.833   2.033  1.8256 -0.1702 -0.3441
51301SOL    HW259867   2.955   0.982   2.014 -0.0703  0.1188 -0.5804
51302SOL     OW59868   4.913   2.520   8.261 -0.4488 -0.6427  0.1537
51302SOL    HW159869   4.938   2.538   8.351  1.1460  0.1279 -0.4093
51302SOL    HW259870   4.950   2.434   8.242  1.6520  0.3597 -0.5780
51303SOL     OW59871  11.314   3.592   2.029  0.3783  0.1528 -0.2492
51303SOL    HW159872  11.339   3.512   1.983  1.6479 -0.3532  1.2497
51303SOL    HW259873  11.349   3.582   2.117 -0.5274  1.8269  0.3517
51304SOL     OW59874   9.409   7.455   8.819 -0.7964  0.1019  0.2352
51304SOL    HW159875   9.421   7.549   8.804  1.5349  0.3108  2.6614
51304SOL    HW259876   9.441   7.414   8.739  3.6452  1.3175  1.1133
51305SOL     OW59877   7.703   2.200   7.537  0.0929 -0.1056  0.4766
51305SOL    HW159878   7.722   2.273   7.478 -2.9489  2.0065  1.8425
51305SOL    HW259879   7.778   2.196   7.596  1.8706 -0.4178 -1.6817
51306SOL     OW59880   0.765   4.100   6.732 -0.5661  0.0599  0.3143
51306SOL    HW159881   0.670   4.089   6.727 -0.7918  0.8847  2.1571
51306SOL    HW259882   0.786   4.161   6.662 -1.3282 -0.4046 -0.3361
51307SOL     OW59883   3.607   7.427   7.519  0.2243 -0.1314  0.5451
51307SOL    HW159884   3.641   7.516   7.533 -2.1982  0.5233  3.1548
51307SOL    HW259885   3.520   7.440   7.482  0.4763 -1.5214 -0.6062
51308SOL     OW59886   5.212   0.766   6.465 -0.0618 -0.2246  0.3455
51308SOL    HW159887   5.149   0.838   6.460 -0.4350 -0.5188  0.8420
51308SOL    HW259888   5.272   0.782   6.391 -1.3299 -0.5297 -0.7884
51309SOL     OW59889  12.417   8.880   0.009  0.1227 -0.6232 -0.0510
51309SOL    HW159890  12.439   8.962   0.055  1.6805  1.5496 -4.1676
51309SOL    HW259891  12.472   8.814   0.051 -0.7432  0.4167  3.0426
51310SOL     OW59892   7.151   3.690  12.054 -0.8401 -0.8656 -0.1599
51310SOL    HW159893   7.206   3.755  12.010  3.2235 -3.5243  0.4368
51310SOL    HW259894   7.144   3.619  11.991 -2.9307 -0.9846  0.1626
51311SOL     OW59895   5.951   0.430   5.172  0.3333  0.3437  0.1985
51311SOL    HW159896   5.887   0.393   5.111  1.5530  1.9425 -2.2262
51311SOL    HW259897   6.006   0.356   5.197 -0.3661 -0.4068 -0.4004
51312SOL     OW59898   0.139   3.530   4.017 -0.0979  0.6396 -0.3149
51312SOL    HW159899   0.106   3.594   3.954 -0.1622  0.8015 -0.1185
51312SOL    HW259900   0.119   3.568   4.103  0.8594  0.8756 -0.1859
51313SOL     OW59901  10.268   8.002   9.507  0.3580  0.0240 -0.0669
51313SOL    HW159902  10.290   7.954   9.427  1.0449  0.6686 -0.2773
51313SOL    HW259903  10.326   7.966   9.574 -1.1390 -1.4819  0.5244
51314SOL     OW59904   6.052   2.798   7.620  0.4739 -0.1196 -0.7082
51314SOL    HW159905   6.108   2.870   7.650 -1.0534  0.5409  0.7858
51314SOL    HW259906   6.077   2.784   7.529  2.5390  0.5985 -0.3059
51315SOL     OW59907  11.842  11.584   7.406 -0.8134 -0.0955 -0.1798
51315SOL    HW159908  11.842  11.547   7.317 -0.1036 -0.6165  0.0290
51315SOL    HW259909  11.914  11.647   7.405 -0.9696  0.0860 -0.0487
51316SOL     OW59910   7.918   5.611  10.372 -0.1918 -0.4054 -0.3560
51316SOL    HW159911   7.874   5.527  10.385 -0.0847 -0.2711  1.0746
51316SOL    HW259912   7.933   5.644  10.461  0.2831  0.8600 -0.8810
51317SOL     OW59913   3.693   8.887   2.353 -0.5667 -0.4657 -0.3481
51317SOL    HW159914   3.599   8.887   2.373 -0.2172 -1.3297  1.5398
51317SOL    HW259915   3.730   8.950   2.415  0.1317 -0.2494 -0.9730
51318SOL     OW59916   3.242   3.545  11.933  0.2203  0.1811  0.6557
51318SOL    HW159917   3.146   3.549  11.928  0.2635  0.5557 -0.0589
51318SOL    HW259918   3.270   3.535  11.842  0.8711  0.4609  0.8212
51319SOL     OW59919   5.135   0.536   7.830  0.1725 -0.2413  0.1741
51319SOL    HW159920   5.167   0.517   7.742  0.8950  2.1074 -0.1251
51319SOL    HW259921   5.208   0.511   7.887  0.8154  0.8069 -0.1506
51320SOL     OW59922   4.695   5.731   5.372  0.0784 -0.1485 -0.2273
51320SOL    HW159923   4.765   5.666   5.373 -0.4303 -0.7212  1.2113
51320SOL    HW259924   4.716   5.788   5.298  1.4285 -0.9783 -0.5196
51321SOL     OW59925   1.958   3.897   4.374 -0.4107  0.0401 -0.3171
51321SOL    HW159926   1.976   3.878   4.466  0.7758  1.7338 -0.1494
51321SOL    HW259927   1.865   3.877   4.363 -0.5762 -0.1795  1.2537
51322SOL     OW59928   8.166   9.712  12.011 -0.3427  0.1028  0.1076
51322SOL    HW159929   8.109   9.669  11.947 -0.3247 -0.3533  0.3901
51322SOL    HW259930   8.147   9.667  12.094  0.2903  0.0647  0.2388
51323SOL     OW59931   5.245   0.116   4.147 -0.6827  0.1847 -0.3202
51323SOL    HW159932   5.185   0.167   4.092 -1.4029 -0.3174 -0.0145
51323SOL    HW259933   5.203   0.031   4.155 -0.0165 -0.1121  0.0671
51324SOL     OW59934   3.414  10.168   0.278 -0.1643  0.1508 -0.1857
51324SOL    HW159935   3.362  10.219   0.216 -1.9082 -0.7678  0.4503
51324SOL    HW259936   3.468  10.233   0.323  0.1985  0.9783 -1.7698
51325SOL     OW59937   1.722   2.286   3.154 -0.3359  0.3777 -0.0492
51325SOL    HW159938   1.677   2.370   3.159  0.2704  0.6899  0.2712
51325SOL    HW259939   1.806   2.306   3.114 -1.4279 -0.5879 -3.1327
51326SOL     OW59940   7.490   3.422   5.159 -0.2935 -0.1947 -0.4081
51326SOL    HW159941   7.514   3.423   5.251 -2.0065 -0.2339  0.0765
51326SOL    HW259942   7.570   3.448   5.113  0.8007 -0.8807  1.0176
51327SOL     OW59943   6.117   5.328   0.943 -0.4258 -0.0210  0.6456
51327SOL    HW159944   6.024   5.317   0.920 -0.0566 -2.5973  0.0592
51327SOL    HW259945   6.119   5.316   1.038 -0.5889 -1.2601  0.5135
51328SOL     OW59946   4.438  11.867   9.264 -0.2065 -0.0821  0.0995
51328SOL    HW159947   4.398  11.782   9.248  1.9992 -1.0443 -0.6401
51328SOL    HW259948   4.384  11.929   9.215  0.1825 -1.5608 -2.3342
51329SOL     OW59949   0.653   4.368   8.305  0.8659  0.0408 -0.2476
51329SOL    HW159950   0.724   4.364   8.241  1.3145  1.1734  0.1547
51329SOL    HW259951   0.574   4.381   8.252  0.8143 -2.0109 -0.7559
51330SOL     OW59952   3.555   5.230  10.002 -0.1411  1.1575 -0.3483
51330SOL    HW159953   3.544   5.298  10.068 -0.1927 -0.4668  1.3924
51330SOL    HW259954   3.468   5.220   9.962 -0.1229  2.1003 -0.6434
51331SOL     OW59955   0.282   3.212   1.964 -0.3677 -0.5823  0.1793
51331SOL    HW159956   0.191   3.230   1.940  0.0403  0.9420 -0.3192
51331SOL    HW259957   0.296   3.121   1.937 -1.5264 -0.6031 -0.4287
51332SOL     OW59958   9.783   9.891   2.107 -0.2977 -0.2437  1.2542
51332SOL    HW159959   9.802   9.799   2.086  0.0460  0.4998 -2.3802
51332SOL    HW259960   9.713   9.887   2.172 -0.2818 -3.0675  1.2206
51333SOL     OW59961  10.240   0.910   6.758  0.7123 -0.0273  0.1935
51333SOL    HW159962  10.201   0.983   6.710  0.0579 -0.5152 -0.0336
51333SOL    HW259963  10.166   0.866   6.799  1.1466 -0.3204  0.6764
51334SOL     OW59964   8.028   9.326   2.159  0.2225 -0.3199  0.5758
51334SOL    HW159965   8.094   9.341   2.226  0.0918  1.6402  0.3241
51334SOL    HW259966   8.077   9.297   2.082  0.4078 -2.1830  1.3373
51335SOL     OW59967   9.512   2.217   1.129 -0.4592  0.0813 -0.0777
51335SOL    HW159968   9.598   2.234   1.165  0.2826  2.4230 -2.5616
51335SOL    HW259969   9.524   2.224   1.034 -3.1481 -0.7954 -0.5781
51336SOL     OW59970   9.800   9.596   2.030 -0.2115  0.3228  0.0920
51336SOL    HW159971   9.788   9.536   2.104 -1.1485  0.1856 -0.1664
51336SOL    HW259972   9.803   9.539   1.953 -2.7432  0.6495 -0.3423
51337SOL     OW59973   5.282   1.067   8.350 -0.1433  0.1642 -0.0320
51337SOL    HW159974   5.209   1.013   8.380  0.7467 -0.2926  1.4179
51337SOL    HW259975   5.261   1.155   8.381 -0.7419  0.3189 -0.8519
51338SOL     OW59976   6.173   3.607   7.123 -0.0737 -0.0144 -0.3117
51338SOL    HW159977   6.163   3.524   7.075  0.1024  0.1351 -0.6038
51338SOL    HW259978   6.094   3.656   7.101 -1.1812 -0.8976  1.4434
51339SOL     OW59979   0.055   1.229  10.956  0.3534 -0.3522 -0.0360
51339SOL    HW159980   0.062   1.252  11.048 -0.6873 -0.5168  0.0906
51339SOL    HW259981   0.104   1.148  10.947  2.1621  0.6927 -0.0450
51340SOL     OW59982   0.566   3.922   8.569 -0.0151 -0.4684 -0.7063
51340SOL    HW159983   0.584   4.016   8.573 -0.0426 -0.5054  0.6909
51340SOL    HW259984   0.653   3.881   8.578 -0.0227 -0.5890 -1.1418
51341SOL     OW59985  11.435   5.224  10.519  0.4484  0.1287 -0.1817
51341SOL    HW159986  11.494   5.266  10.581  1.8108 -0.3006 -1.1419
51341SOL    HW259987  11.384   5.296  10.481  3.4220  1.2167 -2.5375
51342SOL     OW59988   1.470  10.357  11.555 -0.6344 -0.4908 -0.3377
51342SOL    HW159989   1.478  10.376  11.649 -1.2510 -1.7336 -0.0111
51342SOL    HW259990   1.483  10.262  11.549  0.4278 -0.2844 -1.6482
51343SOL     OW59991   7.385  11.267   2.506  0.1191  0.4195 -0.0514
51343SOL    HW159992   7.410  11.275   2.414 -1.3701  0.3863 -0.4859
51343SOL    HW259993   7.372  11.357   2.535 -0.8700  0.3771 -0.3210
51344SOL     OW59994   3.936   7.713   2.173 -0.5221 -0.1459  0.2215
51344SOL    HW159995   4.024   7.681   2.152 -0.8662 -0.6077 -0.5404
51344SOL    HW259996   3.946   7.809   2.176  0.2095 -0.2350  1.1245
51345SOL     OW59997  11.475   9.690   8.087 -0.2313 -1.1252 -0.3601
51345SOL    HW159998  11.522   9.727   8.012  0.0322  0.0894  0.3787
51345SOL    HW259999  11.401   9.750   8.100  0.3159 -0.7032  0.9861
51346SOL     OW60000  10.282   8.902   5.686 -0.1370 -0.1441  0.2315
51346SOL    HW160001  10.224   8.940   5.619 -0.6524 -1.4369 -0.0806
51346SOL    HW260002  10.363   8.882   5.639 -0.7060 -1.6005 -0.1782
51347SOL     OW60003  10.281   4.151   4.483 -0.3883 -0.5922 -0.3135
51347SOL    HW160004  10.207   4.207   4.508 -0.6305  0.4049 -2.9558
51347SOL    HW260005  10.261   4.122   4.394  1.9172 -1.1372 -0.7361
51348SOL     OW60006   0.579   8.188   6.602 -0.0743  0.1637  0.6098
51348SOL    HW160007   0.548   8.267   6.559  1.5389  0.3228 -0.3813
51348SOL    HW260008   0.532   8.117   6.558 -1.2834  0.5206  1.2793
51349SOL     OW60009   3.548   9.815   4.112 -0.3797 -0.3741  0.4302
51349SOL    HW160010   3.475   9.806   4.173 -0.3169 -4.2234  0.1954
51349SOL    HW260011   3.606   9.741   4.134  2.0403  0.9163 -1.2150
51350SOL     OW60012   0.469   2.933   5.270 -0.1156  0.3882  0.7043
51350SOL    HW160013   0.443   2.840   5.268 -2.4075  0.9630  0.5245
51350SOL    HW260014   0.418   2.973   5.199  2.1953  1.5079 -0.4085
51351SOL     OW60015   1.727   2.862   5.382 -0.1825  0.5933  0.3633
51351SOL    HW160016   1.805   2.852   5.437 -0.1002  2.0413  0.5624
51351SOL    HW260017   1.681   2.937   5.420 -0.2333  1.5224 -1.4132
51352SOL     OW60018   6.083   7.447   4.350 -0.2452  0.2476  0.0983
51352SOL    HW160019   6.107   7.454   4.258 -0.1529  1.1567  0.1834
51352SOL    HW260020   6.165   7.457   4.398 -0.1268 -1.2534  0.2741
51353SOL     OW60021   4.962   4.182   3.818  0.1077 -0.6172  0.3370
51353SOL    HW160022   4.880   4.201   3.865  0.7247  0.6321  0.9515
51353SOL    HW260023   5.031   4.208   3.879  0.9544 -0.5753 -0.6175
51354SOL     OW60024   6.268  11.487   8.679 -0.0624 -0.6351  0.3031
51354SOL    HW160025   6.271  11.430   8.602  2.0352 -3.7032  2.4268
51354SOL    HW260026   6.184  11.466   8.721  0.2093 -1.3694  0.4921
51355SOL     OW60027   2.474  10.134  10.643 -0.3286 -0.2480  0.0878
51355SOL    HW160028   2.553  10.153  10.592 -0.8016  0.8730 -0.2592
51355SOL    HW260029   2.472  10.203  10.710 -0.8501 -0.4495  0.2821
51356SOL     OW60030   9.365  10.362   0.178  0.4662  0.0548 -0.0699
51356SOL    HW160031   9.312  10.409   0.242  1.1754 -0.5538  0.9895
51356SOL    HW260032   9.310  10.360   0.099 -0.2088  1.2687  0.3346
51357SOL     OW60033  11.089   9.436   3.518  0.1440  0.5978 -0.8434
51357SOL    HW160034  11.124   9.522   3.494 -0.7470  2.5807  3.7766
51357SOL    HW260035  10.994   9.449   3.520 -0.0681 -0.8236 -0.9626
51358SOL     OW60036   0.234   1.494   8.711 -0.2542  0.0372 -0.0506
51358SOL    HW160037   0.326   1.511   8.729 -0.4975 -0.7865  2.5010
51358SOL    HW260038   0.226   1.399   8.715 -1.1736  0.0825 -0.5198
51359SOL     OW60039   1.833   3.118   8.730  0.1863 -0.2139 -0.2610
51359SOL    HW160040   1.806   3.131   8.821 -1.1392 -1.2417 -0.4737
51359SOL    HW260041   1.753   3.128   8.679  0.4535 -1.8993 -1.0884
51360SOL     OW60042   2.394   1.635   4.907  0.2301  0.1549 -0.3663
51360SOL    HW160043   2.414   1.723   4.876 -1.4802  0.0741 -1.8926
51360SOL    HW260044   2.414   1.578   4.832  2.7585 -1.0175  1.0696
51361SOL     OW60045   2.918  10.724   7.919  0.4846  0.2385 -0.0369
51361SOL    HW160046   2.972  10.795   7.951  0.5807 -0.2010  0.7968
51361SOL    HW260047   2.974  10.646   7.924 -0.5936 -0.4877  2.1644
51362SOL     OW60048  12.371   6.552   5.036 -0.3564 -0.4788 -0.0507
51362SOL    HW160049  12.346   6.539   5.128 -0.8059  0.6936 -0.0016
51362SOL    HW260050  12.320   6.627   5.007  0.6096 -0.1426 -0.9364
51363SOL     OW60051   9.185   7.848   2.139 -0.2582  0.3584 -0.1381
51363SOL    HW160052   9.267   7.803   2.162  0.7804  2.0307 -0.4345
51363SOL    HW260053   9.117   7.786   2.165  1.0662 -0.8212  0.7276
51364SOL     OW60054   7.781   8.029   1.302 -0.0482 -0.4302  0.4459
51364SOL    HW160055   7.734   8.112   1.296 -0.3531 -0.5743  0.7974
51364SOL    HW260056   7.717   7.967   1.337  0.6457 -0.4166  1.8578
51365SOL     OW60057   4.770   8.329   4.045  0.6576 -0.0601  0.1128
51365SOL    HW160058   4.701   8.380   4.088  1.1580  0.8465 -0.1454
51365SOL    HW260059   4.835   8.315   4.114  0.4120 -0.5681  0.2469
51366SOL     OW60060   5.595   2.780   5.504  0.2298  0.1680 -0.1076
51366SOL    HW160061   5.500   2.787   5.509  0.2328  0.2872 -0.2019
51366SOL    HW260062   5.626   2.803   5.591  0.2354  1.3123 -0.3989
51367SOL     OW60063   9.549   7.741   3.921  0.0360  0.0489 -0.1306
51367SOL    HW160064   9.582   7.829   3.939  0.0233  0.3894 -1.5980
51367SOL    HW260065   9.609   7.707   3.854 -0.6925 -0.5668 -0.4851
51368SOL     OW60066  12.485   4.019   5.898  0.0422 -0.3215 -0.5085
51368SOL    HW160067  12.503   3.973   5.816  1.2093  0.5071 -0.7418
51368SOL    HW260068  12.459   3.950   5.959  2.8985 -1.5240 -0.4948
51369SOL     OW60069   2.244  12.301   9.233 -0.0352 -0.7204  0.6832
51369SOL    HW160070   2.293  12.221   9.252 -0.5385 -1.3609 -0.6189
51369SOL    HW260071   2.209  12.289   9.145  0.6291  1.3273  0.0722
51370SOL     OW60072   9.317   1.011   3.339 -0.4912 -0.0314 -0.0900
51370SOL    HW160073   9.375   0.935   3.340  0.5915  0.7675  0.7726
51370SOL    HW260074   9.340   1.059   3.260 -0.5418 -0.1318 -0.1656
51371SOL     OW60075   6.016   6.036  11.337 -0.5457  0.1855 -0.5396
51371SOL    HW160076   5.998   6.007  11.247  2.6747  1.0839 -1.5877
51371SOL    HW260077   6.063   5.962  11.377 -0.4228  0.4664 -0.1606
51372SOL     OW60078   7.997   1.885  10.063 -0.2018 -0.2701  0.3303
51372SOL    HW160079   7.964   1.872  10.152 -0.0083  0.7098  0.5578
51372SOL    HW260080   7.990   1.979  10.049  0.3475 -0.3410 -0.4634
51373SOL     OW60081   0.481   3.881   1.803 -0.2504  0.5035  0.3911
51373SOL    HW160082   0.513   3.803   1.848  0.6594 -0.1469 -1.2839
51373SOL    HW260083   0.483   3.950   1.869  1.2594 -0.3371  1.2830
51374SOL     OW60084  11.173   4.112  10.993  0.1996  0.4103  0.4041
51374SOL    HW160085  11.151   4.194  10.949 -0.3284  1.2388  2.1011
51374SOL    HW260086  11.186   4.049  10.922  1.0853  2.0570 -0.9597
51375SOL     OW60087   2.820   4.038  12.318  0.3254  0.1838  0.4000
51375SOL    HW160088   2.911   4.031  12.347 -0.0347 -0.0248  1.4845
51375SOL    HW260089   2.787   3.948  12.318  0.1972  0.2175 -0.3080
51376SOL     OW60090  10.690   0.001   3.099 -0.2100 -0.2308  0.2806
51376SOL    HW160091  10.751   0.055   3.149  1.0060 -1.3389  0.0608
51376SOL    HW260092  10.713   0.018   3.008 -0.5462 -0.3039  0.1832
51377SOL     OW60093  12.201  12.186  12.478 -0.3040  0.0380 -0.0621
51377SOL    HW160094  12.159  12.101  12.489  0.1234 -0.0471  0.9810
51377SOL    HW260095  12.218  12.192  12.384 -2.7934  0.1450 -0.5775
51378SOL     OW60096   8.191   6.997   0.236 -0.4694  0.2192 -0.0542
51378SOL    HW160097   8.123   6.953   0.286  1.3711 -3.7286 -0.6683
51378SOL    HW260098   8.263   7.010   0.299 -1.1727  3.2921  0.2976
51379SOL     OW60099  11.573   2.572   2.738 -0.1106  0.3114 -0.3852
51379SOL    HW160100  11.556   2.489   2.783 -0.9895  0.0467 -1.1541
51379SOL    HW260101  11.633   2.619   2.796  0.5145 -0.9108  0.0051
51380SOL     OW60102  11.288   1.710  10.520 -0.2101  0.6898  0.6730
51380SOL    HW160103  11.254   1.666  10.598 -2.7885 -1.0017 -1.2268
51380SOL    HW260104  11.242   1.794  10.519 -1.9638 -0.2293 -0.1354
51381SOL     OW60105   5.887   7.648   8.596 -0.5667 -0.1221 -0.0965
51381SOL    HW160106   5.982   7.640   8.603 -0.4473  0.3353 -0.9978
51381SOL    HW260107   5.874   7.711   8.525 -1.5436 -0.1515  0.0453
51382SOL     OW60108   1.371   9.850   4.344  0.3701 -0.2632  0.2549
51382SOL    HW160109   1.335   9.763   4.361 -0.7217  0.3072  1.0110
51382SOL    HW260110   1.352   9.867   4.252 -0.0070 -0.5636  0.2764
51383SOL     OW60111   8.166   0.691   8.221 -0.3566  0.1909 -0.5748
51383SOL    HW160112   8.255   0.676   8.190 -0.2352  1.8361 -1.0959
51383SOL    HW260113   8.110   0.650   8.155 -0.0167  0.5764 -1.1051
51384SOL     OW60114   5.328   2.725   4.439  0.0442  0.2182  0.9380
51384SOL    HW160115   5.358   2.739   4.349 -1.1773 -1.2067  0.2571
51384SOL    HW260116   5.233   2.731   4.433 -0.0229  0.8999  2.3142
51385SOL     OW60117   5.119   8.694   9.335  0.4662 -0.3273 -0.3384
51385SOL    HW160118   5.032   8.664   9.311  0.3092  0.2809 -0.5309
51385SOL    HW260119   5.105   8.759   9.403  0.7413  0.0925 -0.6766
51386SOL     OW60120   5.309   2.112   9.619  0.4695  0.2205 -0.5079
51386SOL    HW160121   5.238   2.074   9.671  0.5242  0.7084 -0.0811
51386SOL    HW260122   5.290   2.206   9.616  0.6431  0.2460 -1.0962
51387SOL     OW60123   9.634  12.221   2.160 -0.1053  0.6302  0.3935
51387SOL    HW160124   9.542  12.208   2.181 -0.3662  1.1922 -0.3755
51387SOL    HW260125   9.640  12.209   2.065  0.1381  3.0495  0.0478
51388SOL     OW60126   6.155   5.733  12.311 -0.3893  0.2916 -0.2413
51388SOL    HW160127   6.081   5.793  12.321  0.8561  2.0231 -0.7643
51388SOL    HW260128   6.225   5.774  12.362  0.2767 -1.1978  0.0799
51389SOL     OW60129   4.913  12.089   1.971 -0.1779  0.0072 -0.2755
51389SOL    HW160130   4.860  12.033   1.915  0.5279  0.6023 -1.5854
51389SOL    HW260131   4.866  12.172   1.976 -0.6956 -0.3267  0.8010
51390SOL     OW60132   2.878   8.123   8.698 -0.7556 -0.8431  0.7634
51390SOL    HW160133   2.905   8.080   8.779 -2.7514 -0.0825  1.9171
51390SOL    HW260134   2.958   8.161   8.663 -0.0657  0.2660  3.3161
51391SOL     OW60135  10.589   5.397   1.287 -0.1252 -0.0279 -0.1824
51391SOL    HW160136  10.581   5.414   1.193 -0.3317  1.0587  0.0145
51391SOL    HW260137  10.499   5.404   1.320 -0.0062 -0.0432  0.1461
51392SOL     OW60138   7.194   0.636  12.346  0.2125  0.0213 -0.1442
51392SOL    HW160139   7.245   0.635  12.265  0.6708 -2.2919  0.1165
51392SOL    HW260140   7.119   0.692  12.327  0.7976  0.2656 -1.8505
51393SOL     OW60141   1.560   1.568   8.936 -0.8329 -0.3090 -0.1764
51393SOL    HW160142   1.599   1.622   9.005 -0.9413 -1.4209  0.7930
51393SOL    HW260143   1.633   1.539   8.882 -0.3390 -1.8295  1.2294
51394SOL     OW60144   3.703   2.986   2.940 -0.1391 -0.2324 -0.2359
51394SOL    HW160145   3.766   2.942   2.884 -1.4475 -0.7890 -1.3373
51394SOL    HW260146   3.651   2.915   2.978  0.1415  0.1874  0.9695
51395SOL     OW60147   7.428   7.301   3.913 -0.2777  0.6645  0.3620
51395SOL    HW160148   7.462   7.322   3.826 -0.6769  1.1113  0.3124
51395SOL    HW260149   7.394   7.212   3.904  1.7346 -0.1770  0.6630
51396SOL     OW60150   7.802   4.449   6.556 -0.0971  0.4081  0.7618
51396SOL    HW160151   7.740   4.522   6.553  1.1806  1.5170  0.3556
51396SOL    HW260152   7.881   4.487   6.596  1.1035 -0.3391 -0.7940
51397SOL     OW60153   9.654   7.090   0.455 -0.5861 -0.1462  0.6646
51397SOL    HW160154   9.720   7.027   0.485  1.7770  1.0348 -1.6543
51397SOL    HW260155   9.586   7.037   0.414 -0.0700 -1.2962  1.2613
51398SOL     OW60156   3.703   8.619   9.193 -0.0877  0.2277  0.1117
51398SOL    HW160157   3.622   8.582   9.227 -0.7440  1.3819 -0.1352
51398SOL    HW260158   3.720   8.695   9.250  0.9145 -0.0898  0.2641
51399SOL     OW60159  11.409   6.104   5.610 -0.9569  0.2868 -0.0815
51399SOL    HW160160  11.402   6.156   5.690  1.6837 -1.9822  1.8128
51399SOL    HW260161  11.478   6.146   5.559  0.0274 -0.3506  0.6825
51400SOL     OW60162   0.854  10.277   3.169  0.4574  0.3894  0.2664
51400SOL    HW160163   0.885  10.204   3.222 -2.6094 -1.6980 -0.5121
51400SOL    HW260164   0.783  10.316   3.221 -0.3658  0.4330 -0.8443
51401SOL     OW60165   5.853   3.214   5.668  0.1387  0.2220 -0.5142
51401SOL    HW160166   5.833   3.178   5.755 -0.7243  0.5393 -0.5758
51401SOL    HW260167   5.910   3.149   5.628  1.7041  0.6990  0.8044
51402SOL     OW60168   1.873   9.916  11.795 -0.2634 -0.5240  0.2960
51402SOL    HW160169   1.836   9.931  11.883  0.0658 -1.2640  0.5674
51402SOL    HW260170   1.866   9.821  11.783  2.7761 -0.9371  0.9193
51403SOL     OW60171  10.748   9.481   5.287 -0.3358  0.0305 -0.6333
51403SOL    HW160172  10.843   9.472   5.301 -0.2314 -1.2256 -1.9587
51403SOL    HW260173  10.738   9.567   5.247  0.1881  0.3174 -0.1686
51404SOL     OW60174   6.092   4.749   6.135  0.0079 -0.4195  0.0806
51404SOL    HW160175   6.008   4.719   6.101  0.6513 -2.4369  0.1696
51404SOL    HW260176   6.156   4.722   6.068  0.6780  0.4655  0.3383
51405SOL     OW60177   5.675   4.008   0.727 -0.6787  0.7066 -0.0411
51405SOL    HW160178   5.666   4.085   0.671  0.2869  0.4249 -0.6156
51405SOL    HW260179   5.689   4.044   0.815 -1.7667  1.1566 -0.0389
51406SOL     OW60180   8.778  10.672   9.141 -0.0196  0.0959 -0.9416
51406SOL    HW160181   8.736  10.682   9.056 -3.3075 -1.3179  0.3441
51406SOL    HW260182   8.773  10.759   9.181 -1.9908 -0.0393 -0.7975
51407SOL     OW60183  10.595  10.552   8.894 -1.0351 -0.4042  0.1889
51407SOL    HW160184  10.655  10.480   8.914 -0.2913  0.3768  0.8400
51407SOL    HW260185  10.599  10.608   8.971 -0.5522  1.0518 -0.8573
51408SOL     OW60186   4.593   6.099   6.045 -0.5245  0.0000 -0.4876
51408SOL    HW160187   4.613   6.139   5.960 -1.8725  0.2661 -0.7090
51408SOL    HW260188   4.563   6.172   6.099 -0.9643 -0.3721 -0.2232
51409SOL     OW60189   8.227  10.714   9.279 -0.3917 -0.4982 -0.3617
51409SOL    HW160190   8.278  10.638   9.252  1.4039  0.1697  0.9849
51409SOL    HW260191   8.235  10.776   9.206  0.9517 -0.3121 -0.0740
51410SOL     OW60192   6.468   8.831   9.399  0.8825  0.0046  0.1351
51410SOL    HW160193   6.526   8.763   9.363  1.7880  1.2096 -0.8153
51410SOL    HW260194   6.443   8.798   9.485  2.4358 -0.9010  0.2941
51411SOL     OW60195   0.676   9.557   7.658  0.0625 -0.0959  0.4697
51411SOL    HW160196   0.649   9.601   7.738  0.3823 -2.2424  1.8401
51411SOL    HW260197   0.765   9.527   7.676 -0.3250 -1.7328 -0.1668
51412SOL     OW60198   7.527   9.379   1.970 -0.0577  0.4593  0.0424
51412SOL    HW160199   7.446   9.412   1.930 -0.2673  2.2118  1.7311
51412SOL    HW260200   7.558   9.452   2.024  2.9026 -0.0231 -0.8516
51413SOL     OW60201  12.026   5.358   8.117 -0.1570 -0.1452 -0.3892
51413SOL    HW160202  11.951   5.301   8.129 -0.8153  0.3335 -2.0174
51413SOL    HW260203  12.078   5.316   8.048  0.8559 -0.2240  0.3802
51414SOL     OW60204   7.121   5.054   2.465 -0.2355  0.5199 -0.4415
51414SOL    HW160205   7.056   5.068   2.534  0.3936 -0.3774  0.3591
51414SOL    HW260206   7.161   5.140   2.452  0.5131  0.4736  1.2413
51415SOL     OW60207   2.320   7.485   8.075  0.5643  0.1178 -0.1199
51415SOL    HW160208   2.341   7.407   8.126  0.5580  0.2636  0.1052
51415SOL    HW260209   2.258   7.534   8.129  0.4278  0.1904 -0.3395
51416SOL     OW60210   5.256   2.936   0.083 -0.6558 -0.6383 -0.4281
51416SOL    HW160211   5.222   3.006   0.028  0.9553 -0.3817 -1.1805
51416SOL    HW260212   5.227   2.957   0.171 -1.2431  0.2916 -0.8350
51417SOL     OW60213   7.156   5.953   0.333 -0.0246 -0.2466 -0.3262
51417SOL    HW160214   7.119   6.039   0.351  0.0178 -0.5623  1.5863
51417SOL    HW260215   7.137   5.903   0.413  3.6130 -0.7183  0.4115
51418SOL     OW60216  12.316   4.495   1.979  0.3453 -0.2028  0.1933
51418SOL    HW160217  12.269   4.519   2.059  0.7803 -0.0271  0.3957
51418SOL    HW260218  12.408   4.510   1.999  0.4813 -0.4272 -0.2477
51419SOL     OW60219   3.551   7.809  11.853 -0.3257  0.3066 -0.1882
51419SOL    HW160220   3.580   7.799  11.762  1.2001 -2.0506  0.4576
51419SOL    HW260221   3.489   7.881  11.850 -2.0609 -1.0560 -3.5108
51420SOL     OW60222   0.859   9.288   6.273 -0.6769 -0.5164 -0.2299
51420SOL    HW160223   0.774   9.321   6.304 -1.1746 -2.1245  0.2438
51420SOL    HW260224   0.849   9.281   6.178 -1.1972 -0.9953 -0.1439
51421SOL     OW60225  11.677   7.865   4.133  0.2273 -0.4781 -0.4949
51421SOL    HW160226  11.623   7.842   4.057  0.7483  4.6623 -2.8492
51421SOL    HW260227  11.615   7.877   4.205 -1.0772 -0.1498 -1.6392
51422SOL     OW60228   6.727   6.110   9.811  0.3066  0.2346 -0.7589
51422SOL    HW160229   6.771   6.137   9.892 -0.1169 -0.4408 -0.2940
51422SOL    HW260230   6.681   6.188   9.782 -3.8402 -0.6359  2.4681
51423SOL     OW60231   6.143   9.932   5.230  0.5148 -0.3370 -0.2143
51423SOL    HW160232   6.217   9.872   5.238  1.1096  0.2086 -1.3148
51423SOL    HW260233   6.072   9.878   5.195  0.6859 -0.6561 -0.0741
51424SOL     OW60234  10.231   3.163   8.754  0.1623  0.2534 -0.6485
51424SOL    HW160235  10.313   3.116   8.765 -0.2096 -0.4913 -0.9509
51424SOL    HW260236  10.188   3.119   8.680 -0.1893  1.0863 -0.9528
51425SOL     OW60237   1.476   4.841  12.020 -0.4179  0.1854 -0.2426
51425SOL    HW160238   1.453   4.753  12.050  1.0006  0.3122  1.3415
51425SOL    HW260239   1.471   4.895  12.099 -1.8157  1.6909 -1.2767
51426SOL     OW60240  10.921   2.748   2.849  0.1134  0.6398  0.1322
51426SOL    HW160241  10.918   2.652   2.850  0.9323  0.6093  0.6983
51426SOL    HW260242  10.875   2.775   2.928 -1.0417  0.7586 -0.5659
51427SOL     OW60243   3.987   7.605   8.275  0.1467  0.2511  0.0280
51427SOL    HW160244   4.040   7.592   8.353  1.3472 -0.6254 -0.8968
51427SOL    HW260245   3.972   7.517   8.240  1.0968  0.7078 -1.6517
51428SOL     OW60246   9.346   3.702   6.430  0.0187  0.0998 -0.2318
51428SOL    HW160247   9.413   3.636   6.449 -1.3560 -1.2998 -0.0728
51428SOL    HW260248   9.372   3.738   6.345  1.6533  0.4971  0.4030
51429SOL     OW60249   2.597  10.151   2.013  0.0917  0.3841 -0.2385
51429SOL    HW160250   2.679  10.155   1.965 -0.3231  1.0775 -0.9069
51429SOL    HW260251   2.555  10.071   1.981  1.4290 -1.2072  1.6894
51430SOL     OW60252   5.647  12.157   3.214 -0.1789  0.5035  0.1371
51430SOL    HW160253   5.738  12.126   3.217 -0.3712 -0.1066 -0.1828
51430SOL    HW260254   5.597  12.094   3.265 -0.4522  0.7459  0.1748
51431SOL     OW60255   6.613   3.923  10.942  0.2399  0.2013  0.3186
51431SOL    HW160256   6.544   3.989  10.933  0.0388 -0.0864 -0.3257
51431SOL    HW260257   6.694   3.970  10.925  0.1524  0.4060  0.4583
51432SOL     OW60258   9.817   2.285   0.812 -0.1169  0.4773  0.7625
51432SOL    HW160259   9.817   2.378   0.788 -0.8021  0.6301  1.3427
51432SOL    HW260260   9.908   2.266   0.835  0.2547  0.7174 -0.4264
51433SOL     OW60261   5.372   5.823   6.271 -0.6667 -0.2117  0.6215
51433SOL    HW160262   5.314   5.755   6.239 -0.7676 -0.4332  1.2661
51433SOL    HW260263   5.349   5.834   6.363 -0.1557  0.1796  0.7119
51434SOL     OW60264  11.862   9.765   5.841 -0.4204 -0.3203  0.5093
51434SOL    HW160265  11.816   9.722   5.769  0.6492 -2.2820  0.9209
51434SOL    HW260266  11.892   9.848   5.805 -0.2917 -1.0689 -1.1880
51435SOL     OW60267   8.783   2.668  10.054  0.2778  0.0028  0.0673
51435SOL    HW160268   8.782   2.593   9.995 -0.5178  0.1720 -0.1483
51435SOL    HW260269   8.799   2.743   9.996 -2.5018  0.4263 -0.2951
51436SOL     OW60270   2.048   0.289   1.432 -0.3601 -0.3532  0.3659
51436SOL    HW160271   2.123   0.231   1.445 -0.5431 -0.4009  1.2951
51436SOL    HW260272   1.981   0.254   1.490 -1.3324 -0.6779 -0.8988
51437SOL     OW60273   5.659   2.931   9.211  0.0178  0.2801  0.1625
51437SOL    HW160274   5.615   2.887   9.284  0.8568  0.4834  0.8051
51437SOL    HW260275   5.643   2.874   9.136 -0.4229 -0.2008  0.6060
51438SOL     OW60276   6.590   7.037  12.016  0.3780  0.1969 -0.0977
51438SOL    HW160277   6.666   7.019  12.072 -0.5057 -1.2806  0.6959
51438SOL    HW260278   6.515   7.028  12.075 -0.4600  0.8482 -1.0509
51439SOL     OW60279   0.091   7.782   4.986  0.1878  0.4630  0.0641
51439SOL    HW160280   0.108   7.695   4.948  0.2699  0.3062  0.4556
51439SOL    HW260281   0.007   7.809   4.948 -0.2072 -0.1106  0.5112
51440SOL     OW60282  11.383   6.887   0.367  0.6757 -0.1163  0.0131
51440SOL    HW160283  11.407   6.927   0.450 -0.5427 -1.9240  1.2876
51440SOL    HW260284  11.456   6.829   0.345  1.0921  0.5176 -0.3303
51441SOL     OW60285   2.648   3.406  10.516 -0.0766  0.1684 -0.2661
51441SOL    HW160286   2.697   3.474  10.561 -0.7312  0.9636 -0.7250
51441SOL    HW260287   2.713   3.339  10.495  0.6475  0.8330 -0.1713
51442SOL     OW60288   8.102   4.503   2.114 -0.3301 -0.3393 -0.5878
51442SOL    HW160289   8.138   4.449   2.184  3.4399  0.4683 -1.6993
51442SOL    HW260290   8.054   4.441   2.059 -0.2594 -1.6259  0.7519
51443SOL     OW60291   8.160   3.664   9.573  0.2187  0.5543 -0.2913
51443SOL    HW160292   8.074   3.621   9.575  0.1304  0.6514 -1.5647
51443SOL    HW260293   8.142   3.757   9.586  0.2520  0.4528  0.5895
51444SOL     OW60294   0.165   8.723   8.430 -0.6940 -0.4988  0.2346
51444SOL    HW160295   0.089   8.747   8.378  0.7064  2.2779 -0.7462
51444SOL    HW260296   0.162   8.781   8.506  0.8426  0.2538 -0.2453
51445SOL     OW60297  11.504   4.470   1.829  0.0072 -0.0484 -1.0422
51445SOL    HW160298  11.521   4.564   1.836  1.1344 -0.3456  1.4092
51445SOL    HW260299  11.589   4.432   1.804  0.7001 -0.6719  1.8230
51446SOL     OW60300   1.704   0.290   7.074  0.5360  0.2294  0.4337
51446SOL    HW160301   1.760   0.290   6.997 -0.7302 -0.0884 -0.5306
51446SOL    HW260302   1.763   0.302   7.147  2.5878 -5.0354  0.0347
51447SOL     OW60303   7.917   0.505   0.804  0.0099  0.0084  0.1727
51447SOL    HW160304   7.822   0.501   0.816  0.0615  1.5325  1.3731
51447SOL    HW260305   7.930   0.581   0.747  0.5243 -0.2089 -0.0031
51448SOL     OW60306   5.739   3.308   7.812  0.3208 -0.1421  0.4191
51448SOL    HW160307   5.790   3.241   7.766  0.8957  0.9130 -0.5320
51448SOL    HW260308   5.668   3.259   7.854 -0.0695 -1.1843 -1.3662
51449SOL     OW60309   8.069  10.854   3.172  0.5983  0.0782  0.5862
51449SOL    HW160310   8.091  10.935   3.124 -1.3740  0.0176 -0.5319
51449SOL    HW260311   8.101  10.784   3.115 -0.6027  0.0363 -0.0727
51450SOL     OW60312   4.449  12.301   7.329  0.3009 -0.0314 -0.3842
51450SOL    HW160313   4.519  12.260   7.278 -0.4252  0.1824 -1.5823
51450SOL    HW260314   4.408  12.363   7.269  0.0681  0.9799  0.7764
51451SOL     OW60315   1.994   8.892   2.675 -0.2142 -0.4991 -0.9989
51451SOL    HW160316   1.958   8.859   2.757  1.2563 -1.2471 -0.6242
51451SOL    HW260317   1.919   8.894   2.615 -1.7964  2.0422  0.8788
51452SOL     OW60318   0.112   8.618   2.356  0.2344  0.4400 -0.0895
51452SOL    HW160319   0.059   8.658   2.425 -0.1892  1.4356 -0.9598
51452SOL    HW260320   0.051   8.604   2.284  0.1933 -2.5218  0.3962
51453SOL     OW60321   6.525   6.596   7.475  0.5850 -0.2035  0.6489
51453SOL    HW160322   6.593   6.564   7.415  1.4753 -1.1189  2.0650
51453SOL    HW260323   6.544   6.551   7.558  0.9013  2.7983  2.3342
51454SOL     OW60324  12.044   6.033  10.413  0.4948 -0.2431  0.4293
51454SOL    HW160325  12.016   6.122  10.391  1.4170  0.5862  2.3351
51454SOL    HW260326  11.991   6.010  10.490  1.2666 -0.7551  0.8236
51455SOL     OW60327   8.044   6.266   2.474  0.6640 -0.1717  0.5148
51455SOL    HW160328   8.066   6.214   2.551  1.6972 -0.2953  0.1577
51455SOL    HW260329   8.121   6.260   2.418 -0.0025  0.0640 -0.4564
51456SOL     OW60330  10.882   3.087   0.252 -0.3943  0.6100 -0.2944
51456SOL    HW160331  10.803   3.136   0.230 -0.1611  1.7595  1.2318
51456SOL    HW260332  10.864   3.050   0.338  0.2380 -0.2342 -0.5138
51457SOL     OW60333   3.502  12.304   6.981 -0.5946  0.0257 -0.6815
51457SOL    HW160334   3.591  12.339   6.975 -0.2519 -0.6456  0.3573
51457SOL    HW260335   3.445  12.379   6.962  0.1934  0.3203 -1.9533
51458SOL     OW60336   0.764   3.134   3.543  0.2477 -0.2956  0.5785
51458SOL    HW160337   0.742   3.060   3.486  0.9545  0.3119 -0.5158
51458SOL    HW260338   0.714   3.207   3.507  0.6482  0.0835  0.7897
51459SOL     OW60339   2.833  11.037   2.469  0.0469  0.0262  0.3020
51459SOL    HW160340   2.878  11.054   2.552 -0.8329 -1.5988  1.1529
51459SOL    HW260341   2.904  11.027   2.405  0.8849 -1.2921  1.3838
51460SOL     OW60342   1.729  11.383   0.948 -0.2682  0.9156  0.1856
51460SOL    HW160343   1.755  11.390   1.040 -1.7462  0.5779  0.6575
51460SOL    HW260344   1.728  11.289   0.930  0.7363  1.0023 -0.4193
51461SOL     OW60345   4.500   3.431   5.157 -0.1353 -0.3278 -0.2905
51461SOL    HW160346   4.554   3.366   5.112 -1.2364 -0.7697 -1.0163
51461SOL    HW260347   4.530   3.515   5.123 -0.6197 -0.6300 -1.5427
51462SOL     OW60348   1.124  10.309   4.137 -0.3971  0.2531 -0.0516
51462SOL    HW160349   1.187  10.355   4.082 -1.2576  2.5578  0.7849
51462SOL    HW260350   1.121  10.220   4.101  0.2932  1.1933 -2.6574
51463SOL     OW60351   1.944   1.022   1.033 -0.5930  0.2144 -0.1486
51463SOL    HW160352   2.017   1.031   0.972 -0.2884 -3.6320 -0.6268
51463SOL    HW260353   1.866   1.018   0.978 -0.4865 -1.5647 -0.2269
51464SOL     OW60354   2.390   0.491   4.272 -0.2800  0.4181  0.5988
51464SOL    HW160355   2.361   0.417   4.326 -1.6436 -1.4665 -2.4345
51464SOL    HW260356   2.309   0.524   4.232  0.8178  0.2632 -1.9337
51465SOL     OW60357   4.202  11.555   0.545  0.8653 -0.0059 -0.2270
51465SOL    HW160358   4.186  11.566   0.639  2.3013  0.9973 -0.0556
51465SOL    HW260359   4.202  11.644   0.510  0.8233 -0.3344 -1.0983
51466SOL     OW60360   8.487   3.649  11.031  0.3519  0.2884  0.0435
51466SOL    HW160361   8.524   3.707  10.964  1.9298  2.3928  2.5696
51466SOL    HW260362   8.398   3.680  11.043  0.6850  1.1897  0.2566
51467SOL     OW60363   9.028   0.430   6.492  0.0468  0.3389  0.0416
51467SOL    HW160364   9.006   0.486   6.566  0.5875  0.6288 -0.0153
51467SOL    HW260365   8.979   0.467   6.419  1.2331  1.4086 -0.2415
51468SOL     OW60366   0.636  10.393   5.751  0.1254  0.3342 -0.1921
51468SOL    HW160367   0.553  10.347   5.744 -0.8330  1.8323  0.6963
51468SOL    HW260368   0.623  10.473   5.699  1.0738  0.5109 -0.1824
51469SOL     OW60369  11.709   1.082   5.238 -0.2763 -0.4679 -0.2085
51469SOL    HW160370  11.720   1.136   5.160  0.5336  0.8879  0.7939
51469SOL    HW260371  11.796   1.081   5.279 -0.0072 -3.3067 -0.6275
51470SOL     OW60372   1.333  12.430  11.197 -0.0697 -0.0702  0.1394
51470SOL    HW160373   1.362  12.514  11.232  1.9071  1.1665 -3.7885
51470SOL    HW260374   1.382  12.364  11.247 -0.6342  1.1283  2.3906
51471SOL     OW60375   5.041   5.018   1.216  0.0938  0.8916  0.1482
51471SOL    HW160376   5.038   5.109   1.245 -2.2666  0.7048  0.6450
51471SOL    HW260377   4.969   5.009   1.155 -0.4894 -0.9183  1.0084
51472SOL     OW60378   1.164   1.727  12.045 -0.0924 -0.3183 -0.2226
51472SOL    HW160379   1.142   1.793  11.980 -1.9060 -0.0239  0.6308
51472SOL    HW260380   1.240   1.762  12.091  0.9710 -0.3500 -1.8827
51473SOL     OW60381  11.195  11.771   8.461 -0.1613  0.0157  0.1985
51473SOL    HW160382  11.227  11.740   8.546 -0.5197  0.9621  0.6980
51473SOL    HW260383  11.100  11.767   8.468 -0.1873 -0.5594 -0.4177
51474SOL     OW60384   3.492   3.059  11.022 -0.2698  0.2047  0.1668
51474SOL    HW160385   3.510   3.146  11.056 -1.6998 -0.2320  2.2217
51474SOL    HW260386   3.537   3.000  11.082 -0.3262 -0.5262 -0.4958
51475SOL     OW60387   3.397   4.780   9.827 -0.4612 -0.6700  0.6931
51475SOL    HW160388   3.469   4.727   9.793  0.0834  0.5768 -0.2170
51475SOL    HW260389   3.339   4.793   9.752 -1.0441 -0.7280  1.1283
51476SOL     OW60390   8.501  10.268   5.219  0.5032  0.0061 -0.2299
51476SOL    HW160391   8.566  10.261   5.288 -0.2447 -0.1029  0.4702
51476SOL    HW260392   8.455  10.350   5.236  0.1377 -0.1508 -0.4385
51477SOL     OW60393   1.710  10.158   4.330 -0.0517 -0.3198  0.2663
51477SOL    HW160394   1.641  10.139   4.267  0.8451  1.4633 -1.3688
51477SOL    HW260395   1.791  10.136   4.284  0.6602  1.5351  0.5457
51478SOL     OW60396   4.401   2.004   6.595  0.2633  0.1070  0.2512
51478SOL    HW160397   4.494   1.986   6.599 -0.2876 -3.0153  2.0689
51478SOL    HW260398   4.362   1.922   6.566 -1.9812  1.1908 -0.0296
51479SOL     OW60399   0.299   5.460   7.225  0.2915 -0.9740  0.0542
51479SOL    HW160400   0.368   5.423   7.170  0.5780  0.2898 -0.4853
51479SOL    HW260401   0.307   5.555   7.212 -1.7859 -0.7926 -0.3311
51480SOL     OW60402   8.198   5.463   9.715  0.2158  0.4335  0.1246
51480SOL    HW160403   8.203   5.500   9.627 -2.5353 -0.8720 -0.7173
51480SOL    HW260404   8.259   5.389   9.714  1.1563  1.2129 -0.2450
51481SOL     OW60405   0.598  10.893   9.533  0.7496 -0.0540 -0.0821
51481SOL    HW160406   0.520  10.851   9.570  0.8639 -0.5086 -0.3453
51481SOL    HW260407   0.623  10.958   9.598 -0.5229  0.9008 -0.5118
51482SOL     OW60408   5.621   1.222  11.556 -0.3411  0.7711  0.2735
51482SOL    HW160409   5.687   1.184  11.499 -0.1582  1.0276  0.3073
51482SOL    HW260410   5.538   1.212  11.509 -0.3376  0.0845  0.4097
51483SOL     OW60411   7.645   1.641   7.902  0.1258 -0.8587  0.0157
51483SOL    HW160412   7.621   1.711   7.962 -0.8485  0.3979 -1.7164
51483SOL    HW260413   7.731   1.666   7.868  0.7109 -1.6060  0.8860
51484SOL     OW60414  10.757   0.285  10.497 -0.0138  0.2789  0.2031
51484SOL    HW160415  10.841   0.325  10.518  0.2909 -1.1800  2.1204
51484SOL    HW260416  10.703   0.302  10.574 -0.5399 -1.1396  0.1830
51485SOL     OW60417   6.147   9.159   4.992  0.6236 -0.3197  0.1415
51485SOL    HW160418   6.064   9.120   5.021  0.5705 -0.4240 -0.1540
51485SOL    HW260419   6.200   9.085   4.964  0.6375 -0.2080 -0.1267
51486SOL     OW60420   9.871  11.838   8.126 -0.1205  0.4117 -0.0723
51486SOL    HW160421   9.832  11.785   8.056 -0.0041 -0.2092  0.3230
51486SOL    HW260422   9.952  11.792   8.149 -0.5901  0.1211  1.0672
51487SOL     OW60423   7.905   8.463   9.143  0.3338  0.1248 -0.6038
51487SOL    HW160424   7.953   8.545   9.139  0.3263  0.2475  0.9981
51487SOL    HW260425   7.968   8.396   9.116  0.5595  0.5758 -1.2005
51488SOL     OW60426   5.468   8.972   0.475 -0.2335  0.4235 -0.0287
51488SOL    HW160427   5.457   9.056   0.432  1.6633  1.0178  0.5412
51488SOL    HW260428   5.393   8.965   0.533 -0.1844  1.9735  0.2704
51489SOL     OW60429   9.282  11.599   8.101 -0.4517 -0.6862  0.7750
51489SOL    HW160430   9.268  11.685   8.062  1.5623 -1.2149 -1.3412
51489SOL    HW260431   9.210  11.589   8.163 -0.7909  2.4514  1.0444
51490SOL     OW60432   7.258   5.931   7.771 -0.3928  0.6832  0.3096
51490SOL    HW160433   7.235   5.889   7.688  0.7464  1.0061 -0.1916
51490SOL    HW260434   7.237   6.023   7.758  1.4163  1.0501 -0.2892
51491SOL     OW60435   1.748   1.202   0.839 -0.9145 -0.4054 -0.2734
51491SOL    HW160436   1.747   1.110   0.813 -0.4027 -0.5999  0.3579
51491SOL    HW260437   1.657   1.230   0.832 -0.9413 -0.7021 -1.3239
51492SOL     OW60438   4.867   1.261  10.533 -0.1332 -1.1464 -0.3653
51492SOL    HW160439   4.802   1.319  10.573 -1.1668 -2.0218 -0.7221
51492SOL    HW260440   4.851   1.269  10.439  0.5250 -1.0884 -0.4741
51493SOL     OW60441   5.530  11.229   4.482 -0.4443 -0.0613 -0.4638
51493SOL    HW160442   5.457  11.197   4.534 -0.4555  0.7568  0.0336
51493SOL    HW260443   5.539  11.165   4.412 -1.1442 -0.5774 -0.0920
51494SOL     OW60444   4.312   2.362  10.631 -0.7518 -0.0671  0.4489
51494SOL    HW160445   4.241   2.337  10.572 -0.4193  0.7136 -0.2974
51494SOL    HW260446   4.367   2.284  10.636 -0.0578  0.2478 -1.3659
51495SOL     OW60447   7.756   6.728   1.301  0.3068 -0.0807  0.5524
51495SOL    HW160448   7.714   6.765   1.224 -0.6711 -1.2391  0.5052
51495SOL    HW260449   7.821   6.793   1.327 -0.9103  1.3550  0.1051
51496SOL     OW60450   4.849   8.775   6.432 -0.0484 -0.4762  0.5547
51496SOL    HW160451   4.920   8.839   6.425  1.0536 -1.6295  0.7948
51496SOL    HW260452   4.784   8.817   6.488 -0.2550  1.1899 -0.8523
51497SOL     OW60453   1.927   4.412  10.006 -0.1584  0.2817 -0.6121
51497SOL    HW160454   1.946   4.483   9.944 -0.6918  0.9120 -0.0814
51497SOL    HW260455   1.883   4.456  10.079 -0.5442 -0.6080 -0.2919
51498SOL     OW60456   3.452   0.717   6.600  0.1241 -0.0522 -0.4124
51498SOL    HW160457   3.444   0.666   6.681  1.5994  2.4425  1.4626
51498SOL    HW260458   3.545   0.738   6.595 -0.0604  0.4168 -2.4479
51499SOL     OW60459   5.444   5.922   9.009  0.1375 -0.8476  0.0262
51499SOL    HW160460   5.502   5.847   9.025  1.4932  0.1305 -0.0859
51499SOL    HW260461   5.440   5.968   9.093  0.3676 -0.3594 -0.2215
51500SOL     OW60462   8.667   0.244   4.263 -0.9585 -0.0939  0.5511
51500SOL    HW160463   8.632   0.174   4.208 -0.6098  1.0553 -1.2127
51500SOL    HW260464   8.757   0.255   4.233 -0.5354  0.1225  1.8425
51501SOL     OW60465  11.828   7.474   5.993  0.0477 -0.1797 -0.2483
51501SOL    HW160466  11.853   7.497   5.904 -0.1484  2.0166  0.2174
51501SOL    HW260467  11.898   7.509   6.048 -1.4168  1.4565  0.6787
51502SOL     OW60468  10.608   6.958   7.737 -0.1631  0.6257 -0.2895
51502SOL    HW160469  10.513   6.957   7.724 -0.2519  0.8366  0.3114
51502SOL    HW260470  10.636   7.043   7.704 -0.4436  1.3252  1.1879
51503SOL     OW60471   8.359   7.580   6.638  0.3468 -0.0519  0.4778
51503SOL    HW160472   8.409   7.649   6.681  0.0778 -0.0023  0.7133
51503SOL    HW260473   8.373   7.502   6.692 -0.3687  0.1233  0.9184
51504SOL     OW60474   8.954  10.558   9.958 -0.1146 -0.0933 -0.0427
51504SOL    HW160475   8.914  10.644   9.950 -0.8200 -0.3115  0.9441
51504SOL    HW260476   9.015  10.566  10.031 -2.4293 -1.1838  2.1600
51505SOL     OW60477  10.585   6.152  10.665  0.0081  0.1543 -0.1081
51505SOL    HW160478  10.654   6.178  10.727  0.9604  0.6824 -1.3540
51505SOL    HW260479  10.526   6.228  10.663  0.3442  0.4139 -0.3494
51506SOL     OW60480   9.548   3.944   6.047  0.2152  0.6973  0.3477
51506SOL    HW160481   9.523   4.028   6.010 -0.4120  0.5620  0.4588
51506SOL    HW260482   9.605   3.905   5.980 -1.2329  0.2726 -0.6886
51507SOL     OW60483   4.984   3.046  10.220 -0.1216 -0.0818 -0.2103
51507SOL    HW160484   4.933   3.121  10.188 -0.3490 -0.6854 -1.2999
51507SOL    HW260485   4.945   3.024  10.304  0.9961  2.0572  0.9500
51508SOL     OW60486  10.229   4.819   9.465 -0.3760  0.5448 -0.0267
51508SOL    HW160487  10.217   4.751   9.398  0.5947 -1.0584  1.3566
51508SOL    HW260488  10.321   4.845   9.457  0.2774 -0.9928  1.8211
51509SOL     OW60489   3.782   3.451   6.527  0.2847 -0.2094 -0.0886
51509SOL    HW160490   3.875   3.464   6.547  0.3670 -0.4649 -0.3006
51509SOL    HW260491   3.738   3.458   6.611  0.2893  1.7465 -0.2008
51510SOL     OW60492   5.987   2.414  11.443 -0.0275 -0.5065  0.0383
51510SOL    HW160493   6.069   2.389  11.399  0.0664  1.5793 -1.1128
51510SOL    HW260494   5.919   2.368  11.394  0.2302  0.3310 -1.1462
51511SOL     OW60495   0.183  10.256  11.746  0.2877  0.2552 -0.4392
51511SOL    HW160496   0.139  10.324  11.695 -1.1564 -0.5122 -0.2696
51511SOL    HW260497   0.114  10.193  11.767  1.4818 -1.0094 -0.1510
51512SOL     OW60498   9.637   1.518  10.376 -0.1587 -0.0779  0.5295
51512SOL    HW160499   9.680   1.603  10.388  0.4266 -0.2044 -0.5274
51512SOL    HW260500   9.698   1.468  10.322 -1.3405 -0.4787 -0.4806
51513SOL     OW60501  12.107   9.878  10.326  0.0625  0.0608  0.3925
51513SOL    HW160502  12.083   9.806  10.268 -0.5345 -0.8102  1.6672
51513SOL    HW260503  12.105   9.956  10.271  0.2353 -0.8262 -0.9070
51514SOL     OW60504  12.354   7.857   1.632  0.0262 -0.2140 -0.2907
51514SOL    HW160505  12.291   7.815   1.690  1.3300 -1.4383  0.2721
51514SOL    HW260506  12.395   7.925   1.685  1.1347 -1.2564  0.2306
51515SOL     OW60507   4.003   7.113   0.250 -0.1477  0.3094 -0.4353
51515SOL    HW160508   3.925   7.068   0.282 -0.4355  1.8610  1.2640
51515SOL    HW260509   4.074   7.051   0.266 -0.9337 -0.9887 -1.6817
51516SOL     OW60510   9.274  10.068   6.477  0.3141 -0.1146  0.3660
51516SOL    HW160511   9.266  10.163   6.486  0.6740  0.1012 -1.1552
51516SOL    HW260512   9.300  10.055   6.385 -2.7766 -1.8422 -0.4129
51517SOL     OW60513  10.056   5.581   0.967 -0.4608  0.2436 -0.2680
51517SOL    HW160514  10.095   5.527   1.036  0.2370 -0.4787 -1.1851
51517SOL    HW260515  10.129   5.600   0.908 -1.3026 -0.3495 -1.5475
51518SOL     OW60516   3.981  10.978  10.076  0.1232 -0.2288  0.2035
51518SOL    HW160517   3.895  10.943  10.097 -0.7867  0.9232 -1.3404
51518SOL    HW260518   3.983  11.064  10.119  0.7894 -0.5245  0.7852
51519SOL     OW60519   3.168   5.647   2.738 -0.0602  0.2662  0.3229
51519SOL    HW160520   3.226   5.709   2.783 -0.7651  1.7963 -0.8107
51519SOL    HW260521   3.228   5.586   2.694  0.7794  2.1820 -1.3486
51520SOL     OW60522   0.202   1.803  11.921 -0.0465  0.6172 -0.2367
51520SOL    HW160523   0.235   1.783  12.009 -3.2168 -0.9547  0.7255
51520SOL    HW260524   0.247   1.740  11.864  1.9476  1.5739  0.1842
51521SOL     OW60525   1.475   5.322   6.727 -0.6414  0.2296 -0.0357
51521SOL    HW160526   1.399   5.365   6.767  0.3093  2.1471 -0.1522
51521SOL    HW260527   1.457   5.324   6.633 -0.1009  1.5053 -0.1380
51522SOL     OW60528   9.357   2.630  10.327 -0.1225 -0.0949  0.1234
51522SOL    HW160529   9.417   2.700  10.354 -0.2044 -0.3942  1.1134
51522SOL    HW260530   9.270   2.669  10.337 -0.1388 -0.0681 -0.1229
51523SOL     OW60531   8.241  10.267  10.985 -0.4495  0.2809  0.7984
51523SOL    HW160532   8.287  10.224  11.057  0.0464 -0.6289 -0.0377
51523SOL    HW260533   8.205  10.347  11.024  0.5577  0.2567  1.8352
51524SOL     OW60534   6.268  10.776   7.115 -0.4363  0.9654 -0.1709
51524SOL    HW160535   6.330  10.747   7.182  1.5430  2.0423 -1.4540
51524SOL    HW260536   6.275  10.871   7.115 -1.5401  1.0660 -0.8857
51525SOL     OW60537   1.460  11.308   8.276  0.3332  0.3415 -0.1124
51525SOL    HW160538   1.526  11.302   8.207  0.4866  3.4945 -0.3824
51525SOL    HW260539   1.496  11.370   8.339 -1.1463 -0.1174  1.2679
51526SOL     OW60540   3.915   2.186   6.175 -0.1561 -0.5273 -0.3552
51526SOL    HW160541   3.821   2.200   6.183 -0.4530 -2.7962  1.4744
51526SOL    HW260542   3.923   2.103   6.128  0.9428 -0.2964 -0.6104
51527SOL     OW60543  11.012   3.949   4.536 -0.0405 -0.6301 -0.6940
51527SOL    HW160544  11.027   4.000   4.615 -0.7919 -2.3645  0.6436
51527SOL    HW260545  11.069   3.873   4.545  0.0138 -0.7605 -1.9259
51528SOL     OW60546   7.789   5.345   8.707 -0.5820 -0.9178 -0.5650
51528SOL    HW160547   7.788   5.355   8.612  0.5426  2.6640 -0.3282
51528SOL    HW260548   7.820   5.429   8.740 -1.4152 -1.8616  3.0389
51529SOL     OW60549   0.776   6.811  10.687 -0.2751 -0.1084  0.5835
51529SOL    HW160550   0.854   6.855  10.720 -0.0683  0.0864 -0.1520
51529SOL    HW260551   0.720   6.882  10.656 -0.0058 -0.3362 -0.4647
51530SOL     OW60552   3.173   2.899   3.518  0.0681 -0.1686  0.3046
51530SOL    HW160553   3.142   2.863   3.601  1.5544 -0.3693  0.8093
51530SOL    HW260554   3.247   2.955   3.542 -0.5404  1.1328 -0.7304
51531SOL     OW60555   5.439   9.374   4.380 -0.1695  0.1405 -0.3628
51531SOL    HW160556   5.488   9.318   4.441  0.1964  0.3949 -0.4164
51531SOL    HW260557   5.350   9.341   4.383 -0.0932 -0.0365  0.0926
51532SOL     OW60558   6.015   4.699  11.356 -0.0401  0.4206 -0.3380
51532SOL    HW160559   5.978   4.611  11.353  1.4284 -0.2558  0.4146
51532SOL    HW260560   6.035   4.719  11.264  1.1405 -0.7454 -0.3732
51533SOL     OW60561   7.774   0.714   0.731  0.0653 -0.1338 -0.5747
51533SOL    HW160562   7.807   0.797   0.696 -0.1260  0.0672 -0.2831
51533SOL    HW260563   7.688   0.703   0.689 -0.2308  0.1825 -0.0617
51534SOL     OW60564   8.784   4.462   7.761  0.3460  0.2984 -0.5511
51534SOL    HW160565   8.709   4.415   7.722 -0.2610 -0.3713  1.2890
51534SOL    HW260566   8.745   4.513   7.831  1.6938 -0.7955  1.0693
51535SOL     OW60567   0.349   4.401   2.147  0.6058 -0.2903  0.1952
51535SOL    HW160568   0.364   4.319   2.194 -0.5416 -0.1770  0.8015
51535SOL    HW260569   0.375   4.470   2.209  1.7549 -0.1783 -0.3825
51536SOL     OW60570   4.642   0.542   6.938 -0.3687  0.4742 -0.2207
51536SOL    HW160571   4.686   0.475   6.886 -0.8615  0.8658 -1.1708
51536SOL    HW260572   4.570   0.571   6.883  0.9302  3.1481 -0.6763
51537SOL     OW60573   9.871   1.638   9.557  0.1446 -0.1969 -0.1016
51537SOL    HW160574   9.805   1.577   9.591 -1.7291  1.3514 -0.7613
51537SOL    HW260575   9.941   1.582   9.525 -0.9278 -1.9464  0.4726
51538SOL     OW60576   6.076   4.154   3.137  0.1308 -0.3303 -0.0943
51538SOL    HW160577   6.049   4.230   3.188 -1.1814 -0.8963  0.0953
51538SOL    HW260578   6.162   4.178   3.102 -0.2998  1.2739 -0.1250
51539SOL     OW60579   0.928   9.659   9.394  0.5207 -0.0544 -0.2422
51539SOL    HW160580   1.002   9.659   9.333  0.4180 -0.0693 -0.3658
51539SOL    HW260581   0.872   9.588   9.365  0.4063  0.0219 -0.2089
51540SOL     OW60582  11.580   1.228   4.606  0.1050 -0.8078 -0.1229
51540SOL    HW160583  11.494   1.211   4.568  1.2236 -1.1458 -2.6846
51540SOL    HW260584  11.588   1.323   4.607 -0.6074 -0.7404  0.9659
51541SOL     OW60585   9.574   5.891   7.225  0.0043  0.1277 -0.5375
51541SOL    HW160586   9.592   5.932   7.140  0.7155 -0.4091 -0.6556
51541SOL    HW260587   9.497   5.938   7.258 -0.7224 -0.1313 -1.7906
51542SOL     OW60588   9.310   0.723  11.351 -0.0071 -0.2607 -0.3468
51542SOL    HW160589   9.306   0.779  11.428  1.1336 -0.8212  0.1562
51542SOL    HW260590   9.402   0.725  11.325 -0.2175 -0.7678 -1.1600
51543SOL     OW60591   6.475   7.134   1.703  0.2516 -0.2802  0.2195
51543SOL    HW160592   6.479   7.057   1.759 -1.0564 -0.3502  0.2392
51543SOL    HW260593   6.443   7.101   1.619 -1.6455  0.4170  0.6261
51544SOL     OW60594   1.587   6.132  11.881 -0.1080 -0.6780  0.1629
51544SOL    HW160595   1.637   6.197  11.929  0.2747 -1.6744  1.1568
51544SOL    HW260596   1.505   6.123  11.930 -0.9047  0.2549 -0.9241
51545SOL     OW60597   5.094   3.949   4.728 -0.2445 -0.3531 -0.2011
51545SOL    HW160598   5.187   3.970   4.725 -0.1143 -0.3692  2.1643
51545SOL    HW260599   5.090   3.859   4.759 -1.0344  0.2208  1.5189
51546SOL     OW60600   7.161   9.609   6.626 -0.1469  0.2608  0.0405
51546SOL    HW160601   7.107   9.534   6.650  0.2186  0.6000  2.1804
51546SOL    HW260602   7.198   9.639   6.709  0.3024  2.3566 -0.8459
51547SOL     OW60603   4.742  10.384   2.946  0.1360  0.1381  0.8923
51547SOL    HW160604   4.823  10.344   2.977 -0.3534 -0.6536  1.2156
51547SOL    HW260605   4.678  10.313   2.950  0.1245 -0.1827 -2.5042
51548SOL     OW60606   6.204   3.582   3.938  0.0637  0.1398 -0.6798
51548SOL    HW160607   6.215   3.532   3.857  0.2427 -1.0745  0.0699
51548SOL    HW260608   6.231   3.522   4.007  0.4650  1.3449  0.2513
51549SOL     OW60609   1.211   1.537   9.344  0.4048  0.2207  0.3390
51549SOL    HW160610   1.260   1.520   9.264  1.8113 -0.0814  1.2201
51549SOL    HW260611   1.250   1.479   9.409 -0.9553  0.1848  1.1664
51550SOL     OW60612   4.050  12.115   2.582  0.4940 -0.3911 -0.5689
51550SOL    HW160613   4.021  12.194   2.536  0.1035 -0.7726 -0.9842
51550SOL    HW260614   3.973  12.058   2.582  0.7472 -0.7379 -0.1878
51551SOL     OW60615   2.261   1.512   8.301  0.3754  0.3733  0.7581
51551SOL    HW160616   2.170   1.515   8.272  0.4218 -1.1145  0.3560
51551SOL    HW260617   2.297   1.597   8.275 -0.3024  0.1279 -1.1838
51552SOL     OW60618   2.122   2.125   9.523  0.3150  0.4023 -0.1465
51552SOL    HW160619   2.067   2.204   9.517 -0.7285 -0.3606 -1.0523
51552SOL    HW260620   2.154   2.126   9.613 -0.9160  1.0726  0.3223
51553SOL     OW60621   2.652   4.515   5.430  0.8143 -0.5677 -0.2597
51553SOL    HW160622   2.700   4.481   5.505  1.4340  1.7700  0.4687
51553SOL    HW260623   2.623   4.602   5.456 -0.7675 -0.4952 -1.9927
51554SOL     OW60624   5.979   6.916  11.270  0.6790  0.0801 -0.7925
51554SOL    HW160625   6.031   6.986  11.310  0.6795  0.3495 -1.2563
51554SOL    HW260626   6.036   6.878  11.203  0.8059 -0.6040 -0.3098
51555SOL     OW60627   1.805   3.211   5.808 -0.3158 -0.7601 -0.2613
51555SOL    HW160628   1.864   3.155   5.757 -0.5894 -3.2564  1.9463
51555SOL    HW260629   1.730   3.156   5.827 -1.9809  1.3463 -0.3388
51556SOL     OW60630   6.866   8.614   8.819  0.7104  0.2898  0.4114
51556SOL    HW160631   6.827   8.669   8.888  0.1491  0.0099  0.3252
51556SOL    HW260632   6.947   8.582   8.857  0.0139 -0.5271  1.2813
51557SOL     OW60633   1.856  11.497   8.990 -0.0473  0.0624 -0.4215
51557SOL    HW160634   1.916  11.547   9.046 -0.0153 -0.8153  0.3390
51557SOL    HW260635   1.892  11.409   8.989 -0.4465 -0.0998 -1.2628
51558SOL     OW60636   3.254   0.827   9.391 -0.1602  0.2182  0.1267
51558SOL    HW160637   3.165   0.856   9.409 -0.1122 -0.5550  1.7597
51558SOL    HW260638   3.310   0.894   9.431 -0.0135 -0.0583  0.3834
51559SOL     OW60639   9.027   3.920   2.680 -0.2979 -0.0677 -0.0542
51559SOL    HW160640   8.952   3.901   2.736  0.1701 -1.3286  0.1810
51559SOL    HW260641   8.988   3.957   2.600 -1.1011  0.0491  0.3817
51560SOL     OW60642  11.920   8.765   8.356  0.1304 -0.2422 -0.4460
51560SOL    HW160643  11.918   8.824   8.431 -1.1212 -1.0102  0.1660
51560SOL    HW260644  12.009   8.731   8.354 -0.1380 -1.2218  1.5516
51561SOL     OW60645  11.155   5.990   8.992 -0.2671  0.0877 -0.1312
51561SOL    HW160646  11.174   6.040   9.071  0.1412 -0.5070  0.1499
51561SOL    HW260647  11.069   6.022   8.964  0.2663  1.4151 -0.3331
51562SOL     OW60648  11.402   2.314   7.603 -0.5332  0.2303  0.2757
51562SOL    HW160649  11.483   2.348   7.641 -0.1271  1.5854 -1.6176
51562SOL    HW260650  11.387   2.231   7.647  1.1554  0.5966  1.6269
51563SOL     OW60651   3.210   5.898  10.569  0.4537  0.8187 -0.6017
51563SOL    HW160652   3.230   5.977  10.519  0.2539 -0.3313 -2.6103
51563SOL    HW260653   3.156   5.929  10.642 -1.2510  2.3432 -2.3755
51564SOL     OW60654   2.393   8.536   8.568 -0.1015  0.2361  0.2845
51564SOL    HW160655   2.415   8.457   8.519 -0.7767  0.7457 -0.8709
51564SOL    HW260656   2.331   8.507   8.635 -1.3106 -0.0128 -0.9268
51565SOL     OW60657   5.756   3.991  10.429 -0.6031  0.5895  0.0170
51565SOL    HW160658   5.812   3.999  10.506  0.3874 -1.7278 -0.3779
51565SOL    HW260659   5.667   3.995  10.463 -0.1886 -0.2212  1.2754
51566SOL     OW60660   6.262   0.664   6.288  0.7503 -0.5920  0.3604
51566SOL    HW160661   6.300   0.752   6.276 -0.8631  0.0679 -0.1327
51566SOL    HW260662   6.295   0.614   6.214  0.7116 -0.0530 -0.0266
51567SOL     OW60663   5.432   6.758   4.922  1.2173  0.0898  0.3757
51567SOL    HW160664   5.446   6.664   4.909 -0.3795 -0.1877  0.3382
51567SOL    HW260665   5.337   6.769   4.910  1.3097  1.6330  0.8528
51568SOL     OW60666   7.449  10.515   4.148  0.0686  0.3594  0.0679
51568SOL    HW160667   7.545  10.517   4.147  0.0995 -0.0526 -1.9031
51568SOL    HW260668   7.425  10.550   4.234  1.9946 -0.4255  0.9773
51569SOL     OW60669   0.273   0.151  10.009 -0.0332  0.3567  0.4423
51569SOL    HW160670   0.329   0.135  10.085  2.2626 -0.7927 -1.3236
51569SOL    HW260671   0.321   0.216   9.957 -0.6659 -0.1490 -0.8211
51570SOL     OW60672   1.519   2.179   5.587  0.6469  0.2508 -0.0810
51570SOL    HW160673   1.430   2.197   5.615  0.3715 -1.7318  0.4487
51570SOL    HW260674   1.529   2.227   5.505 -1.5507 -0.9345 -1.1267
51571SOL     OW60675   7.035   2.753  12.213 -0.2244  0.4549 -0.2576
51571SOL    HW160676   6.963   2.724  12.157 -2.1265  3.1244  0.5724
51571SOL    HW260677   7.096   2.796  12.154  0.5471 -1.4498 -0.9151
51572SOL     OW60678   5.560   8.187   3.863  0.0907  0.4973  0.4756
51572SOL    HW160679   5.617   8.255   3.827 -0.2337  1.2359  1.3514
51572SOL    HW260680   5.519   8.147   3.785 -1.0579  2.4680  0.0155
51573SOL     OW60681   6.072   7.564   9.971  0.0417 -0.2058 -0.1367
51573SOL    HW160682   6.102   7.653   9.986  1.0459 -0.5908  0.2484
51573SOL    HW260683   5.977   7.570   9.970  0.0971  0.8427  0.0347
51574SOL     OW60684   8.758   2.652   2.923  0.4344 -0.0168 -0.3271
51574SOL    HW160685   8.730   2.716   2.988  2.4519 -0.5443  1.1524
51574SOL    HW260686   8.682   2.641   2.866 -1.1233  1.1015  1.4229
51575SOL     OW60687   2.864   8.532   1.769  0.0295  0.7196  0.5690
51575SOL    HW160688   2.836   8.454   1.817 -1.0191  0.7916  0.1079
51575SOL    HW260689   2.788   8.591   1.774  0.2204  1.0612 -0.4520
51576SOL     OW60690   6.956  11.703   5.366 -0.7793 -0.0727  0.2523
51576SOL    HW160691   7.029  11.666   5.415  1.5841  1.5294 -1.7854
51576SOL    HW260692   6.945  11.645   5.291 -0.9596  0.1918  0.0716
51577SOL     OW60693   3.287   9.921  11.405  0.1197  0.0560  0.0682
51577SOL    HW160694   3.341   9.844  11.390 -0.8216 -0.5706 -0.1922
51577SOL    HW260695   3.316   9.984  11.339  0.5315 -0.2660 -0.0617
51578SOL     OW60696   3.256   9.157   5.276  0.1843 -0.1492 -0.6306
51578SOL    HW160697   3.351   9.162   5.272  0.1468  2.9410 -0.1512
51578SOL    HW260698   3.234   9.180   5.366 -1.0044  1.6446 -1.3072
51579SOL     OW60699  10.592   5.203   3.413 -0.0637  0.3324 -0.1021
51579SOL    HW160700  10.619   5.131   3.471 -0.5296  1.1973  1.2200
51579SOL    HW260701  10.631   5.281   3.453 -0.1912  0.9151 -1.1038
51580SOL     OW60702  10.384  10.259   7.517 -0.2913  0.1254 -0.5017
51580SOL    HW160703  10.315  10.310   7.475 -0.0416  0.0743 -0.9911
51580SOL    HW260704  10.350  10.170   7.519 -0.2849  0.1183 -0.6539
51581SOL     OW60705  11.469   6.947   7.767  0.0129  0.0424  0.2294
51581SOL    HW160706  11.385   6.962   7.722  0.0809  0.3512  0.1971
51581SOL    HW260707  11.451   6.879   7.831 -0.2094 -0.0501  0.0694
51582SOL     OW60708   0.963  11.953   1.874 -0.4790  0.2434 -0.0780
51582SOL    HW160709   0.890  11.975   1.817  0.3395 -0.2495 -1.3546
51582SOL    HW260710   1.017  12.033   1.875 -0.9809  0.5822  0.8031
51583SOL     OW60711   0.418   8.613   9.366  0.9075 -0.3017  0.1891
51583SOL    HW160712   0.453   8.524   9.371  1.8349 -0.0406 -1.1141
51583SOL    HW260713   0.324   8.601   9.354  0.9956 -1.0918  0.2055
51584SOL     OW60714  12.097   1.623   5.585 -0.3007 -0.1085  0.2048
51584SOL    HW160715  12.051   1.696   5.627 -0.7822 -0.0836 -0.3551
51584SOL    HW260716  12.126   1.568   5.658  1.2574  1.3192  0.7136
51585SOL     OW60717   3.819  11.216   3.734 -0.4832  0.2610  0.1977
51585SOL    HW160718   3.737  11.264   3.722 -0.4935  0.6338  1.5751
51585SOL    HW260719   3.829  11.210   3.829  0.2491 -1.2260  0.0543
51586SOL     OW60720   5.838  11.325   6.017 -0.3988 -0.1313 -0.4261
51586SOL    HW160721   5.848  11.420   6.013 -0.3355 -0.0933  0.4947
51586SOL    HW260722   5.925  11.290   5.998  0.1256  0.0605  1.4389
51587SOL     OW60723   1.033   6.994   1.901  0.0237 -0.2016  0.2497
51587SOL    HW160724   1.087   7.049   1.958  2.7147 -1.3086 -1.0750
51587SOL    HW260725   0.973   6.949   1.962  2.2485 -0.7600  2.1864
51588SOL     OW60726   6.508   9.043   6.897 -0.5938  0.4157  0.1064
51588SOL    HW160727   6.529   9.050   6.990  0.9356 -1.3340 -0.0476
51588SOL    HW260728   6.579   9.088   6.853  0.0018 -0.8472 -0.2644
51589SOL     OW60729   0.316   1.808   0.360 -0.3222 -0.1552 -0.0124
51589SOL    HW160730   0.340   1.755   0.437 -0.7717  0.7264  0.7460
51589SOL    HW260731   0.280   1.888   0.396 -0.4645  0.3141 -1.1593
51590SOL     OW60732   4.724   2.391   2.180 -0.3440  0.8209  0.4094
51590SOL    HW160733   4.774   2.312   2.159 -2.5157 -0.5430  0.1053
51590SOL    HW260734   4.751   2.455   2.113 -0.9917 -0.7612 -1.4661
51591SOL     OW60735   8.749   7.628   2.510 -0.2633  0.4735  0.6777
51591SOL    HW160736   8.788   7.692   2.450  0.6157 -1.0632 -0.4758
51591SOL    HW260737   8.823   7.577   2.542 -1.0481 -0.8240  0.5043
51592SOL     OW60738   8.233   4.808   8.938 -0.3440  0.2518 -0.4092
51592SOL    HW160739   8.150   4.849   8.913 -1.6566 -1.2416  1.1690
51592SOL    HW260740   8.273   4.781   8.856 -0.1808  3.1363 -1.3881
51593SOL     OW60741  11.702   5.140   0.791  0.3242 -0.5001 -0.4399
51593SOL    HW160742  11.672   5.163   0.879  0.4145  1.7768 -0.9497
51593SOL    HW260743  11.797   5.140   0.796  0.3260 -1.0628 -0.3920
51594SOL     OW60744  12.304   4.872   4.188 -0.2261  0.0409 -0.1275
51594SOL    HW160745  12.319   4.962   4.157 -0.1609  0.5832  1.4094
51594SOL    HW260746  12.381   4.852   4.241 -1.3109 -0.0191  1.4936
51595SOL     OW60747   6.809  11.004   4.816  0.2494 -0.2643  0.2505
51595SOL    HW160748   6.791  11.061   4.741 -1.9598  0.2606  1.0931
51595SOL    HW260749   6.875  11.050   4.867  0.3580  0.3005 -0.3941
51596SOL     OW60750   7.752  12.389   5.716  0.4040  0.5583 -0.0230
51596SOL    HW160751   7.715  12.465   5.671 -0.3875 -0.4454 -1.1190
51596SOL    HW260752   7.760  12.322   5.648  0.6947 -0.4871  1.0088
51597SOL     OW60753  11.226   0.475  12.364 -0.1057  0.8979 -0.0830
51597SOL    HW160754  11.297   0.505  12.421 -0.5258  0.9910  0.3969
51597SOL    HW260755  11.220   0.541  12.295 -1.4701  2.3350  1.3262
51598SOL     OW60756   6.958   0.817  11.185  1.0124  0.4248  0.2996
51598SOL    HW160757   6.987   0.876  11.115  0.4873 -0.7399 -0.9501
51598SOL    HW260758   7.016   0.742  11.179  0.8964  0.2624  1.0712
51599SOL     OW60759   5.220   0.350   0.213  0.0520 -0.1748  0.7742
51599SOL    HW160760   5.183   0.316   0.131 -1.4044  1.2973  0.7779
51599SOL    HW260761   5.314   0.330   0.206  0.0244  0.1734 -1.4093
51600SOL     OW60762   6.687   9.781  11.888 -0.1950 -0.0176  0.3133
51600SOL    HW160763   6.597   9.802  11.862 -0.3193 -1.0540 -0.1577
51600SOL    HW260764   6.687   9.686  11.898  1.1822 -0.2186 -1.0880
51601SOL     OW60765   7.194   9.646   2.570  0.0967  0.3270 -0.3390
51601SOL    HW160766   7.103   9.620   2.553  0.5700 -3.0234  1.3434
51601SOL    HW260767   7.238   9.634   2.486 -0.7845  0.8823 -0.8992
51602SOL     OW60768   2.633   4.057   1.614 -0.1645 -0.2734 -0.1845
51602SOL    HW160769   2.627   4.124   1.682 -2.6397 -0.7492  0.1709
51602SOL    HW260770   2.611   4.103   1.533 -1.9450 -0.6125  0.0710
51603SOL     OW60771  10.678   7.365   5.694 -0.0179 -0.4731  0.0600
51603SOL    HW160772  10.705   7.276   5.670  2.3656 -0.0447  0.8867
51603SOL    HW260773  10.707   7.419   5.621 -0.5620 -0.2306  0.0169
51604SOL     OW60774  11.179   6.796   6.699 -0.4740 -0.2823  0.6996
51604SOL    HW160775  11.239   6.820   6.770  0.2791 -0.5107  0.1479
51604SOL    HW260776  11.209   6.709   6.671 -0.0724  0.2811 -0.6381
51605SOL     OW60777   1.104   8.911   1.955 -0.0210 -0.4562  0.0491
51605SOL    HW160778   1.110   8.816   1.963 -0.4569 -0.4330  0.7372
51605SOL    HW260779   1.166   8.933   1.885  0.3344 -1.2056  0.1156
51606SOL     OW60780   9.318   0.337   7.930 -0.0599 -0.4790  0.3855
51606SOL    HW160781   9.389   0.353   7.868  0.2639 -0.4172  0.7685
51606SOL    HW260782   9.286   0.424   7.953  1.4525 -0.3484  2.1789
51607SOL     OW60783   3.342   0.071   3.865  0.0427 -0.1720  0.4008
51607SOL    HW160784   3.260   0.031   3.894  0.6600 -0.4744  1.8351
51607SOL    HW260785   3.346   0.051   3.772 -0.9000 -1.2841  0.5645
51608SOL     OW60786   0.814   2.844   2.346 -0.2091  0.1230  0.4463
51608SOL    HW160787   0.858   2.929   2.334  2.0446 -0.8255  1.3489
51608SOL    HW260788   0.882   2.779   2.328 -2.1929 -1.5950 -1.4357
51609SOL     OW60789  12.413   9.169   6.426  0.2087 -0.0850 -0.2653
51609SOL    HW160790  12.384   9.190   6.337  0.2491 -0.4250 -0.3598
51609SOL    HW260791  12.361   9.093   6.451  2.0358 -1.6982 -1.0186
51610SOL     OW60792  10.717   2.319   5.872 -0.5138  0.5833 -0.5282
51610SOL    HW160793  10.714   2.366   5.956  0.6670  0.3878 -0.3556
51610SOL    HW260794  10.706   2.388   5.806 -2.6355  0.6034 -0.2323
51611SOL     OW60795  10.155   9.505   0.012 -0.2647  0.0364 -0.1342
51611SOL    HW160796  10.236   9.511  -0.039  0.4064  1.9039  1.0344
51611SOL    HW260797  10.119   9.593   0.010 -1.8463 -0.5848  0.0693
51612SOL     OW60798   3.319   4.080  12.463 -0.3314 -0.1640  0.0980
51612SOL    HW160799   3.249   4.116  12.409  0.2941 -0.7034 -1.0992
51612SOL    HW260800   3.301   3.985  12.465  0.8897 -0.4470 -1.0514
51613SOL     OW60801   7.075  11.380  10.582 -0.4436 -0.2436  0.2763
51613SOL    HW160802   7.031  11.377  10.666 -0.2450  1.5738  0.4750
51613SOL    HW260803   7.005  11.389  10.518 -0.5569 -1.0559  0.2724
51614SOL     OW60804   2.098   7.713   2.418 -0.0500 -0.1382 -0.2707
51614SOL    HW160805   2.046   7.671   2.350  1.5866  0.1186 -1.7468
51614SOL    HW260806   2.150   7.778   2.372  0.9724  0.1874  1.2671
51615SOL     OW60807   6.994   6.373   2.321 -0.3913 -0.3355 -0.1428
51615SOL    HW160808   7.046   6.378   2.241  0.5144  0.9594  0.4957
51615SOL    HW260809   7.050   6.411   2.389 -2.2240  1.2896  0.5384
51616SOL     OW60810   6.050   9.833   0.504  0.6292 -0.0411 -0.2482
51616SOL    HW160811   5.979   9.897   0.497  0.1603 -0.6197 -0.8887
51616SOL    HW260812   6.016   9.767   0.565  0.2156 -0.8173 -1.2971
51617SOL     OW60813  11.534   3.269   9.015  0.9571 -0.1840 -0.4247
51617SOL    HW160814  11.465   3.301   9.073  1.8383  1.1511 -0.0669
51617SOL    HW260815  11.494   3.194   8.970 -0.3007 -0.2141  0.6633
51618SOL     OW60816  11.669   2.824  10.576 -0.9166 -0.1920 -0.2897
51618SOL    HW160817  11.652   2.828  10.670 -0.5717 -0.4249 -0.2166
51618SOL    HW260818  11.701   2.735  10.560 -2.7904 -0.8014 -0.9410
51619SOL     OW60819   7.095   5.979   6.424  0.2204  0.5145  0.5124
51619SOL    HW160820   7.106   5.892   6.385  0.7632  0.6552  0.3337
51619SOL    HW260821   7.181   5.998   6.463  0.5785  1.5684 -0.7148
51620SOL     OW60822   6.708  12.197   1.587 -0.2622 -0.3236 -0.1381
51620SOL    HW160823   6.662  12.169   1.666 -0.2840 -1.3959 -0.5167
51620SOL    HW260824   6.704  12.292   1.590 -1.8009 -0.3663  0.2658
51621SOL     OW60825  11.841   5.989  10.599  0.5649  0.1707  0.4165
51621SOL    HW160826  11.746   5.989  10.595  0.5753 -1.5979 -0.3443
51621SOL    HW260827  11.861   5.989  10.693 -0.2683 -2.4485  0.6748
51622SOL     OW60828   1.132  10.907   7.337 -0.2345  0.5277 -0.4444
51622SOL    HW160829   1.219  10.869   7.340 -1.0722 -1.5694 -1.0044
51622SOL    HW260830   1.121  10.936   7.247 -0.6590 -0.6532 -0.7900
51623SOL     OW60831   7.079   5.866   1.760  0.3595 -0.1909 -1.2152
51623SOL    HW160832   6.999   5.907   1.791 -0.6161 -2.9528  0.1833
51623SOL    HW260833   7.147   5.932   1.775 -1.5098  2.0534 -2.0435
51624SOL     OW60834  11.399   1.220   2.158  0.1575 -0.3365 -0.6353
51624SOL    HW160835  11.325   1.190   2.211  0.9160 -2.3556 -0.6320
51624SOL    HW260836  11.371   1.305   2.124 -1.0946  0.1744  1.4734
51625SOL     OW60837   3.370   5.129   0.210  0.5526  0.0096  0.0713
51625SOL    HW160838   3.464   5.151   0.213  0.7644 -0.8212 -0.2821
51625SOL    HW260839   3.367   5.035   0.227 -0.2795  0.1502  0.7250
51626SOL     OW60840  12.216   9.678  11.595 -0.1875 -0.2816  0.0810
51626SOL    HW160841  12.153   9.612  11.623 -0.3817  0.3151  1.0710
51626SOL    HW260842  12.268   9.697  11.674 -0.0118  0.6141 -0.2407
51627SOL     OW60843   6.731   2.489  10.033 -0.3268 -0.3838 -0.5666
51627SOL    HW160844   6.815   2.506   9.992 -0.5830 -1.0790 -1.4101
51627SOL    HW260845   6.696   2.413   9.986 -1.5834  0.1158 -0.4825
51628SOL     OW60846   6.297   9.767   9.571  0.2741  0.3780 -0.1133
51628SOL    HW160847   6.334   9.847   9.608  0.3958  0.1606  0.2429
51628SOL    HW260848   6.312   9.775   9.477  0.6967  0.5664 -0.0342
51629SOL     OW60849   5.353  11.748   7.798 -0.0637  0.2351  0.2414
51629SOL    HW160850   5.331  11.655   7.792 -0.0515  0.1955  0.7323
51629SOL    HW260851   5.434  11.750   7.849 -0.4718  0.5595  0.8880
51630SOL     OW60852  11.998   1.398   4.771  0.7120 -0.1486 -0.3632
51630SOL    HW160853  11.962   1.487   4.768  1.5226  0.1999 -0.1485
51630SOL    HW260854  12.093   1.411   4.777  0.8488 -1.0326 -0.4714
51631SOL     OW60855  11.695   5.447   1.545 -0.1712  0.2173  0.4159
51631SOL    HW160856  11.755   5.374   1.558 -1.1494 -0.5683  0.6783
51631SOL    HW260857  11.622   5.410   1.494 -0.3675  1.1795 -0.0391
51632SOL     OW60858   3.812   8.182   4.091  0.3697 -0.5235  0.2070
51632SOL    HW160859   3.748   8.246   4.060 -0.2480 -1.2665 -0.0964
51632SOL    HW260860   3.890   8.201   4.040  0.7927  1.1258  1.3801
51633SOL     OW60861   9.507   5.381   9.854  0.5717 -0.8226  0.4221
51633SOL    HW160862   9.478   5.431   9.779  0.7858 -1.2649  0.0367
51633SOL    HW260863   9.489   5.290   9.830 -0.6992 -0.8893  1.4877
51634SOL     OW60864   2.208   9.112   5.906  0.2549 -0.0557 -0.4952
51634SOL    HW160865   2.297   9.078   5.907 -0.3466 -1.7437  0.9138
51634SOL    HW260866   2.153   9.035   5.893 -1.0096  1.0069 -1.7361
51635SOL     OW60867   8.711   7.248  10.610  0.1718  0.5021 -0.3056
51635SOL    HW160868   8.797   7.291  10.613 -0.2244  1.2827  0.1887
51635SOL    HW260869   8.695   7.221  10.700 -0.4441  1.0409 -0.2566
51636SOL     OW60870   0.169   4.013   2.257 -0.2698  0.0792 -0.1801
51636SOL    HW160871   0.181   3.928   2.216 -4.2379  0.1008 -1.8620
51636SOL    HW260872   0.106   3.998   2.328  0.5105  1.3165  0.8303
51637SOL     OW60873   0.962   3.714  11.861 -0.1547 -0.3564  0.6034
51637SOL    HW160874   0.953   3.661  11.782 -0.0945  0.1984  0.2187
51637SOL    HW260875   1.056   3.734  11.865 -0.4864  1.7109 -0.5900
51638SOL     OW60876   1.976   3.897   4.647 -0.0642  0.0190 -0.3043
51638SOL    HW160877   1.978   3.847   4.728 -1.9579 -0.3225 -0.4347
51638SOL    HW260878   2.043   3.965   4.659 -0.1872 -0.1382  1.4669
51639SOL     OW60879   5.927   8.251  10.990  0.9026  0.7293  0.0257
51639SOL    HW160880   5.990   8.304  10.940  1.4667  1.8869  1.8532
51639SOL    HW260881   5.890   8.312  11.054 -1.1041 -0.2636 -0.1256
51640SOL     OW60882  12.204  11.584   0.941  0.0632 -0.3784 -0.3952
51640SOL    HW160883  12.274  11.594   0.876 -0.1859 -1.4333 -0.8468
51640SOL    HW260884  12.231  11.508   0.994 -1.6382 -2.0636 -1.8022
51641SOL     OW60885   7.582   4.726   8.894  0.4166 -0.3118  0.0093
51641SOL    HW160886   7.508   4.672   8.921  0.1557  1.4472  3.2805
51641SOL    HW260887   7.651   4.663   8.873 -1.1512 -1.9245 -0.6358
51642SOL     OW60888   5.786   9.669   0.201  0.1922  0.5764 -0.1428
51642SOL    HW160889   5.741   9.724   0.136  2.2581  1.6828 -0.7348
51642SOL    HW260890   5.791   9.724   0.279 -0.8521 -0.1519  0.4624
51643SOL     OW60891   3.560   4.331   3.111 -0.2269  0.0784  0.6749
51643SOL    HW160892   3.593   4.248   3.076  1.4298  0.9108  0.1295
51643SOL    HW260893   3.466   4.326   3.098 -0.1858 -1.7633  0.7710
51644SOL     OW60894   9.729   3.101   3.724 -0.0741 -0.0523  0.4305
51644SOL    HW160895   9.728   3.141   3.811 -1.2372  0.4521  0.2079
51644SOL    HW260896   9.680   3.163   3.669  0.6873 -0.3298 -0.6044
51645SOL     OW60897   2.264   3.559   2.850 -0.3460 -0.4830 -0.1491
51645SOL    HW160898   2.323   3.617   2.898 -0.8660  1.3537 -1.5841
51645SOL    HW260899   2.194   3.617   2.819 -0.9668 -1.9083 -1.5804
51646SOL     OW60900   9.717   0.523   9.528 -0.6196 -0.1845  0.1008
51646SOL    HW160901   9.772   0.493   9.600 -1.6177  0.5636  1.2172
51646SOL    HW260902   9.778   0.566   9.467  0.2511 -0.9425  0.4142
51647SOL     OW60903  11.162   5.993   0.495  0.5205 -0.6400 -0.4055
51647SOL    HW160904  11.124   6.073   0.458 -0.1879 -0.4806  0.6303
51647SOL    HW260905  11.090   5.953   0.544  1.0495 -1.5811 -0.3802
51648SOL     OW60906   4.445  11.183  10.489 -0.5414  0.0958 -0.1806
51648SOL    HW160907   4.426  11.183  10.395  1.2128 -0.9571 -0.5929
51648SOL    HW260908   4.386  11.118  10.526  0.4515 -1.3158 -1.0003
51649SOL     OW60909  10.451   5.588   7.198 -0.2891  0.3223  0.5774
51649SOL    HW160910  10.457   5.627   7.111 -0.5756 -0.8343  0.0288
51649SOL    HW260911  10.446   5.663   7.257 -0.4310  1.1212 -0.4197
51650SOL     OW60912   7.974  11.310   9.532  0.1133 -0.4305 -0.2749
51650SOL    HW160913   7.990  11.396   9.492  0.7825  0.6147  2.0716
51650SOL    HW260914   8.046  11.255   9.500  2.4321  1.2308  1.7230
51651SOL     OW60915  12.331   3.235   7.531 -0.0450 -0.5890 -0.8186
51651SOL    HW160916  12.328   3.159   7.589  1.6380 -0.9140 -1.1072
51651SOL    HW260917  12.270   3.298   7.571  0.5608 -1.0535  0.9376
51652SOL     OW60918   4.255   9.295   9.998  0.1007  0.2941 -0.2654
51652SOL    HW160919   4.264   9.288   9.903  1.4477 -1.3128 -0.0736
51652SOL    HW260920   4.170   9.256  10.018  0.0920  0.0628 -0.7589
51653SOL     OW60921   6.390   5.742  11.043  0.1430  0.3736 -0.5837
51653SOL    HW160922   6.378   5.837  11.051  2.1467  0.6192  0.1839
51653SOL    HW260923   6.448   5.719  11.116 -0.4042 -1.4691 -0.6994
51654SOL     OW60924  12.046   6.700  10.961  0.2191  0.6833 -1.0797
51654SOL    HW160925  11.988   6.713  10.886  1.4714 -0.8070 -2.3593
51654SOL    HW260926  12.133   6.724  10.928  0.9265 -0.8447 -0.4036
51655SOL     OW60927   9.630   2.713   9.862  0.1158 -0.5329 -0.6915
51655SOL    HW160928   9.701   2.770   9.833  0.2096  0.5302  1.4452
51655SOL    HW260929   9.560   2.773   9.888  0.3373 -1.3149  1.9458
51656SOL     OW60930   4.140   1.050  10.004  0.1969  0.5645 -0.0758
51656SOL    HW160931   4.226   1.065   9.963 -0.2782  1.1666 -0.8716
51656SOL    HW260932   4.092   0.997   9.941  0.1306 -0.1612  0.5710
51657SOL     OW60933   7.489   6.173   4.946  0.5282  0.5871  0.7154
51657SOL    HW160934   7.432   6.097   4.960 -0.1543  0.6583 -1.3535
51657SOL    HW260935   7.490   6.185   4.851  1.6958  2.3712  0.9071
51658SOL     OW60936   8.900   6.191   7.857  0.0318 -0.5940 -0.0290
51658SOL    HW160937   8.992   6.215   7.865 -0.1706 -0.3681  2.5118
51658SOL    HW260938   8.873   6.224   7.772  2.3712 -0.9951 -0.9819
51659SOL     OW60939   2.107   0.326   7.429 -0.7261  0.2945  0.5454
51659SOL    HW160940   2.193   0.301   7.463 -0.1724  2.0217  0.4844
51659SOL    HW260941   2.101   0.420   7.445 -0.7819  1.1066 -3.2591
51660SOL     OW60942   0.348  11.509  11.390 -0.5766 -0.2031 -0.3066
51660SOL    HW160943   0.401  11.535  11.315  0.4527 -2.2153 -0.3317
51660SOL    HW260944   0.281  11.451  11.353 -0.6570 -0.4259  0.1819
51661SOL     OW60945   0.085  11.061   4.021 -0.2727  0.2558 -0.4293
51661SOL    HW160946   0.088  11.016   4.105  1.0902  0.4016 -0.3655
51661SOL    HW260947   0.120  10.998   3.958 -1.6418  0.0101 -0.9815
51662SOL     OW60948   6.251   0.352  11.357 -0.0415  0.1364 -0.2735
51662SOL    HW160949   6.233   0.401  11.438  2.1958  0.2318  0.2520
51662SOL    HW260950   6.254   0.419  11.289  4.0487  1.1303  0.6020
51663SOL     OW60951  10.002   4.980   3.030 -0.2948  0.1101 -0.0611
51663SOL    HW160952   9.980   4.970   3.122 -0.2199  0.5894  0.0118
51663SOL    HW260953  10.097   4.975   3.027 -0.3439 -0.8159 -0.2315
51664SOL     OW60954   9.877  11.268   5.988  0.0843  0.0640 -0.3519
51664SOL    HW160955   9.826  11.299   6.063 -0.8948 -0.9750 -0.5761
51664SOL    HW260956   9.884  11.174   6.000 -0.5055 -0.1925 -1.8113
51665SOL     OW60957  12.364   7.516   6.458 -0.3243  0.0194 -0.1861
51665SOL    HW160958  12.273   7.517   6.489  0.1919 -2.2174  1.7490
51665SOL    HW260959  12.368   7.440   6.400  0.3794 -0.1496  0.0805
51666SOL     OW60960   8.635   4.924   7.915 -0.0820 -0.0521 -0.3169
51666SOL    HW160961   8.719   4.921   7.959  0.2582 -1.3436 -1.0251
51666SOL    HW260962   8.624   4.838   7.876 -0.4478  0.9552 -2.6012
51667SOL     OW60963  11.464   2.779   3.729 -0.5717 -0.1416 -0.5204
51667SOL    HW160964  11.375   2.809   3.750  0.1689  1.7627  0.1012
51667SOL    HW260965  11.451   2.708   3.666 -2.5206  0.3736 -0.7694
51668SOL     OW60966   2.071  12.197   4.692 -0.1155  0.8060 -0.0680
51668SOL    HW160967   1.996  12.256   4.698 -0.2746  0.7954 -1.5850
51668SOL    HW260968   2.033  12.114   4.664  0.5959  1.2261 -2.4952
51669SOL     OW60969   4.089   2.940   9.099 -0.3031  0.7607 -0.9094
51669SOL    HW160970   4.054   2.946   9.010  0.7141 -2.8763 -1.7224
51669SOL    HW260971   4.184   2.934   9.087 -0.1622 -0.0225  0.3794
51670SOL     OW60972   3.018   9.454  11.198 -0.0769  0.1661 -0.3645
51670SOL    HW160973   2.944   9.511  11.181  1.3025  2.3124  0.4345
51670SOL    HW260974   3.090   9.491  11.147  1.2082  0.0140  1.2322
51671SOL     OW60975  11.308   1.260   4.507  0.1455  0.3325 -0.4212
51671SOL    HW160976  11.343   1.325   4.446  0.6886  0.7072  0.2784
51671SOL    HW260977  11.213   1.273   4.503  0.3191  3.0276  1.6776
51672SOL     OW60978   4.872   2.398   0.603  0.1136 -0.0020 -0.9203
51672SOL    HW160979   4.938   2.408   0.671 -1.1548 -1.0884  0.5359
51672SOL    HW260980   4.877   2.479   0.552  2.3043  0.0778 -0.6652
51673SOL     OW60981   2.913   1.815   9.868  0.2239 -0.2286  0.3781
51673SOL    HW160982   2.834   1.763   9.881 -0.1877 -0.0977 -1.3936
51673SOL    HW260983   2.931   1.808   9.774  1.1163  1.4556  0.3947
51674SOL     OW60984   8.915   0.561   6.256  0.1727  0.0391 -0.2332
51674SOL    HW160985   9.009   0.566   6.234  0.2943  1.3579  0.4960
51674SOL    HW260986   8.873   0.542   6.172  1.0676 -0.2240 -0.6427
51675SOL     OW60987   5.706   0.920   6.333  0.7435  0.0994  0.9435
51675SOL    HW160988   5.749   0.975   6.399  1.3652 -0.1952  0.7941
51675SOL    HW260989   5.708   0.832   6.370 -0.2126  0.1658  1.1616
51676SOL     OW60990   3.414  11.313   7.572 -0.1595 -0.2768 -0.3698
51676SOL    HW160991   3.487  11.252   7.564 -0.5877 -0.7645 -0.6111
51676SOL    HW260992   3.394  11.337   7.481 -1.8544 -2.0215 -0.5191
51677SOL     OW60993   7.619  12.051  10.795 -0.0493  0.0857 -0.0166
51677SOL    HW160994   7.706  12.078  10.825  0.4363 -0.1684 -1.1579
51677SOL    HW260995   7.561  12.071  10.869  1.1727 -0.9916  1.2866
51678SOL     OW60996   6.669   1.277   0.126 -0.1031  0.3967  0.6005
51678SOL    HW160997   6.683   1.351   0.067  1.1967  0.2443  0.7059
51678SOL    HW260998   6.654   1.318   0.211  2.1451  0.5600  0.9813
51679SOL     OW60999   5.462   4.668   0.327 -0.0611 -0.1952  0.0072
51679SOL    HW161000   5.406   4.730   0.373 -0.2555 -1.2096  1.1961
51679SOL    HW261001   5.430   4.582   0.354  1.0114 -0.8061 -0.5929
51680SOL     OW61002  11.266   4.520   1.921  0.0534 -0.2949 -0.3023
51680SOL    HW161003  11.355   4.520   1.886 -0.4056  0.7221 -1.5675
51680SOL    HW261004  11.276   4.545   2.012  1.1168 -0.8374 -0.2572
51681SOL     OW61005   2.948   6.520   2.279  0.5285 -0.1475 -0.2481
51681SOL    HW161006   3.028   6.535   2.330 -0.0452 -1.7904  1.2449
51681SOL    HW261007   2.937   6.425   2.280 -1.5534  0.0458 -0.2457
51682SOL     OW61008   8.499   2.194   9.432  0.9468  0.2703  0.2094
51682SOL    HW161009   8.441   2.165   9.362  0.3876 -0.2555  0.8689
51682SOL    HW261010   8.582   2.151   9.415 -0.0464 -2.3770  1.5390
51683SOL     OW61011   1.200   2.375  10.670  0.3489 -0.0616 -0.6133
51683SOL    HW161012   1.270   2.367  10.604 -0.4050 -1.4125 -1.2834
51683SOL    HW261013   1.134   2.430  10.628 -0.2499 -1.1379 -1.1247
51684SOL     OW61014   7.602   6.551  11.751 -0.8875  0.2338 -0.0000
51684SOL    HW161015   7.642   6.637  11.761 -0.5354  0.0471  0.2323
51684SOL    HW261016   7.554   6.556  11.669 -0.1371  0.3675 -0.4414
51685SOL     OW61017   6.596  11.885   9.706  0.0829 -0.4888 -0.0034
51685SOL    HW161018   6.544  11.882   9.787  0.5356 -0.5906  0.2882
51685SOL    HW261019   6.624  11.794   9.692  0.4363 -0.3839  0.0129
51686SOL     OW61020  10.753   7.192   1.490 -0.4073 -0.1273 -0.3694
51686SOL    HW161021  10.823   7.154   1.542  0.3961  0.2820 -1.1097
51686SOL    HW261022  10.708   7.253   1.549 -0.7183 -1.0471  0.3651
51687SOL     OW61023   7.560   2.176  12.245 -0.0334 -0.3495 -0.0276
51687SOL    HW161024   7.561   2.183  12.149  0.8728  1.0576  0.0596
51687SOL    HW261025   7.559   2.082  12.262  3.5929 -0.7778 -1.4244
51688SOL     OW61026   9.940   2.924  10.058  0.5194 -0.0294 -0.0729
51688SOL    HW161027   9.983   2.845  10.091  0.6630 -0.2926 -0.8534
51688SOL    HW261028   9.900   2.896   9.976 -0.8565  0.2972  0.4623
51689SOL     OW61029  10.435   1.855   1.922 -0.4896  0.4469 -0.4423
51689SOL    HW161030  10.382   1.796   1.976 -0.3460  0.8302  0.1328
51689SOL    HW261031  10.411   1.833   1.832 -0.2362 -0.6645 -0.2505
51690SOL     OW61032   6.131   3.062   2.103  0.0267 -0.2774 -0.2008
51690SOL    HW161033   6.213   3.109   2.116 -0.0419  0.0272 -0.8408
51690SOL    HW261034   6.148   3.003   2.030 -0.2882 -0.2931 -0.2655
51691SOL     OW61035   4.699   8.431  10.286 -0.1637  0.0402 -0.1396
51691SOL    HW161036   4.613   8.461  10.258 -1.2554 -2.1035  0.7117
51691SOL    HW261037   4.710   8.346  10.244 -0.0841 -1.3814  2.5862
51692SOL     OW61038   6.735  10.457   7.842 -0.1523  0.0507  0.3235
51692SOL    HW161039   6.645  10.428   7.829 -0.4017  1.4193 -1.5100
51692SOL    HW261040   6.732  10.551   7.826  1.7686 -0.0481 -1.0007
51693SOL     OW61041   7.328  10.275   4.175  0.5867  0.2275  0.2158
51693SOL    HW161042   7.373  10.352   4.140 -2.4659  1.8847 -0.4649
51693SOL    HW261043   7.279  10.309   4.250 -2.3451 -0.4709 -1.2371
51694SOL     OW61044  10.490   2.103   1.790 -0.4965  0.0751 -0.3294
51694SOL    HW161045  10.441   2.161   1.848 -1.4185  0.4065 -1.4122
51694SOL    HW261046  10.470   2.015   1.821 -0.2780  0.2727  0.3927
51695SOL     OW61047   3.652   4.603   7.994 -0.3578 -0.2846  0.3345
51695SOL    HW161048   3.734   4.592   8.042  1.0246  0.8024 -1.6195
51695SOL    HW261049   3.619   4.689   8.020  0.6985  0.5675 -0.9645
51696SOL     OW61050  11.471   2.053   0.370  0.0834 -0.3280  0.2215
51696SOL    HW161051  11.447   2.043   0.278 -0.3551 -1.7551  0.4617
51696SOL    HW261052  11.412   1.993   0.417 -0.9340  1.6604  1.6447
51697SOL     OW61053   3.195   6.120   0.151 -0.1356  0.3688  0.3831
51697SOL    HW161054   3.116   6.144   0.101 -1.8608 -0.7087  2.4122
51697SOL    HW261055   3.197   6.183   0.223  0.0287 -0.4985  1.1471
51698SOL     OW61056   9.441   8.228   6.489  0.1859  0.9662  0.0675
51698SOL    HW161057   9.463   8.220   6.396  0.5604  1.2911  0.1304
51698SOL    HW261058   9.443   8.138   6.521 -0.9791  0.7151 -0.4678
51699SOL     OW61059   3.694   6.538  11.771 -0.0266 -0.5341  0.2365
51699SOL    HW161060   3.649   6.612  11.813 -0.9060 -0.5275 -0.6904
51699SOL    HW261061   3.781   6.537  11.812 -0.6741 -0.2180  1.6980
51700SOL     OW61062   4.025   6.537  10.557 -0.6984  0.0492  0.1047
51700SOL    HW161063   3.946   6.567  10.511 -1.1022 -0.8610  0.1889
51700SOL    HW261064   3.992   6.495  10.636  0.0022  1.7173  1.3434
51701SOL     OW61065   1.939   6.791   7.215 -0.4657  0.3935 -0.1162
51701SOL    HW161066   1.877   6.846   7.167 -0.9374 -0.1033 -0.0957
51701SOL    HW261067   1.927   6.817   7.307 -1.5238 -0.5104  0.0326
51702SOL     OW61068  12.416   1.052   1.511 -0.3866  0.1343 -0.3691
51702SOL    HW161069  12.350   1.038   1.443 -0.9168  0.5028  0.0601
51702SOL    HW261070  12.365   1.061   1.592  0.2077  0.1631  0.0077
51703SOL     OW61071   5.010  11.516   8.424 -0.3445  0.6673 -0.0154
51703SOL    HW161072   4.920  11.491   8.447 -0.1484  1.2786  1.5402
51703SOL    HW261073   5.039  11.571   8.497  0.8940  1.4526 -1.0583
51704SOL     OW61074   0.522   5.843  11.451  0.1385  0.1579 -0.4231
51704SOL    HW161075   0.608   5.835  11.493  1.0277 -0.7868 -2.3134
51704SOL    HW261076   0.480   5.758  11.468  0.5005 -0.2257 -1.4169
51705SOL     OW61077   2.259   0.514   1.928  0.4220  0.2359 -0.6457
51705SOL    HW161078   2.351   0.534   1.944  0.4608 -0.4590  0.0919
51705SOL    HW261079   2.246   0.529   1.835  1.4193 -0.1760 -0.8540
51706SOL     OW61080   4.713   0.947   0.241  0.6142 -0.2069 -0.2966
51706SOL    HW161081   4.796   0.983   0.270  0.0323  0.0669  1.0700
51706SOL    HW261082   4.726   0.852   0.241  0.9289 -0.1619 -0.1175
51707SOL     OW61083  11.339   4.219   4.358  0.4052 -0.5512  0.1701
51707SOL    HW161084  11.340   4.192   4.450  0.3973  2.6842  1.2261
51707SOL    HW261085  11.430   4.208   4.329  0.4949 -1.1786  0.6643
51708SOL     OW61086   8.381  11.473   1.682  0.1791  0.3980  0.2838
51708SOL    HW161087   8.431  11.393   1.700  0.7909  0.2539 -1.7753
51708SOL    HW261088   8.323  11.450   1.609 -0.6968  1.4297  0.6229
51709SOL     OW61089   3.854   8.412   0.007 -0.0381 -0.8240 -0.1575
51709SOL    HW161090   3.762   8.419   0.030 -0.1504  1.9098 -1.0392
51709SOL    HW261091   3.890   8.499   0.026  2.3281 -1.7795  0.0252
51710SOL     OW61092  10.397   3.388   2.812 -0.0087 -0.4947 -0.4092
51710SOL    HW161093  10.417   3.303   2.851 -0.9415 -1.4344 -1.8786
51710SOL    HW261094  10.474   3.409   2.759  0.0195 -0.6552 -0.4317
51711SOL     OW61095   2.569  10.533   3.572 -0.1982 -0.2373  0.5316
51711SOL    HW161096   2.589  10.570   3.658 -1.2974  0.5860  0.4475
51711SOL    HW261097   2.490  10.482   3.585 -1.2462  1.1207 -0.2789
51712SOL     OW61098   0.530  10.337   8.865 -0.0996 -0.7748 -0.3249
51712SOL    HW161099   0.479  10.418   8.859 -0.1504 -0.7919 -0.1249
51712SOL    HW261100   0.596  10.345   8.796  0.1455 -0.3914 -0.0480
51713SOL     OW61101  10.782   9.880   3.672  0.1814 -0.0548  0.5480
51713SOL    HW161102  10.732   9.831   3.607  0.0920  1.2426 -0.3922
51713SOL    HW261103  10.871   9.846   3.663  0.0775 -0.2102  0.0660
51714SOL     OW61104   6.250   2.180   6.006  0.4174  0.1496 -0.1043
51714SOL    HW161105   6.218   2.098   5.969 -0.1671  1.2763 -2.2427
51714SOL    HW261106   6.173   2.238   6.005  1.0793  1.0636  0.3782
51715SOL     OW61107   8.056   8.707   9.400 -0.1877 -0.8147 -0.0847
51715SOL    HW161108   8.095   8.741   9.480 -0.9797 -1.1753  0.4706
51715SOL    HW261109   8.131   8.687   9.343  0.4033 -0.9325  0.7170
51716SOL     OW61110   9.717  10.723   0.998 -0.4576  0.3446  0.7604
51716SOL    HW161111   9.670  10.770   1.067 -3.6978 -1.4829 -0.0028
51716SOL    HW261112   9.701  10.775   0.919  0.6803  0.8293  0.8305
51717SOL     OW61113   4.826   3.744   7.168 -0.2466  0.0879 -0.0394
51717SOL    HW161114   4.870   3.659   7.168 -0.6908 -0.1545  0.4328
51717SOL    HW261115   4.873   3.795   7.234 -0.8242 -0.2706  0.6812
51718SOL     OW61116   6.473   9.512   7.900 -0.5025 -0.1913 -0.0448
51718SOL    HW161117   6.484   9.441   7.836 -0.3130 -0.3320  0.1423
51718SOL    HW261118   6.392   9.490   7.946  0.6374 -1.4529  1.4687
51719SOL     OW61119   9.585   0.504   6.439  0.0750 -0.3338 -0.1558
51719SOL    HW161120   9.514   0.447   6.413  0.0189 -0.0343 -0.6665
51719SOL    HW261121   9.545   0.569   6.497 -0.7284  1.6881 -2.8002
51720SOL     OW61122  11.467  11.151  10.488  0.3239  0.3611 -0.2269
51720SOL    HW161123  11.471  11.110  10.575  1.7927  0.4278 -0.2500
51720SOL    HW261124  11.394  11.107  10.445 -0.4819  0.3722  1.0585
51721SOL     OW61125  10.307  10.976  10.638  0.0933  0.6442 -0.2617
51721SOL    HW161126  10.285  11.065  10.663  1.1252  0.7143  0.4331
51721SOL    HW261127  10.231  10.946  10.586  0.4889  2.5250 -2.0428
51722SOL     OW61128   0.700   5.469   9.873  0.7747  0.7406 -0.4105
51722SOL    HW161129   0.654   5.405   9.927  0.7476  1.2007  0.1262
51722SOL    HW261130   0.756   5.417   9.816  1.6105  0.2622  0.7973
51723SOL     OW61131   0.387  12.142  12.325  0.1099 -0.1621  0.1174
51723SOL    HW161132   0.480  12.157  12.341  0.1324 -0.3178  0.1319
51723SOL    HW261133   0.346  12.145  12.411 -0.2546  2.2748 -0.0605
51724SOL     OW61134   1.089  10.305   5.725 -0.0400  0.3458 -0.5419
51724SOL    HW161135   1.053  10.219   5.703  0.9177 -0.0103 -0.7600
51724SOL    HW261136   1.103  10.348   5.641  0.6773  0.2090 -0.5013
51725SOL     OW61137   1.653   9.132   5.223 -0.3615  0.1969 -0.3289
51725SOL    HW161138   1.581   9.184   5.188 -1.8791 -0.6895  1.3378
51725SOL    HW261139   1.652   9.149   5.318  0.1785 -1.5315  0.0303
51726SOL     OW61140   3.147   9.103  12.309 -0.4036  0.0314 -0.0392
51726SOL    HW161141   3.151   9.137  12.220 -1.8983  1.2077  0.2997
51726SOL    HW261142   3.214   9.151  12.357 -1.4070  1.3780  0.0583
51727SOL     OW61143  12.201   4.745   6.569  0.3462 -0.6790  0.2512
51727SOL    HW161144  12.158   4.740   6.654  0.2422 -1.4430  0.1565
51727SOL    HW261145  12.202   4.655   6.537 -1.0407 -0.2053 -1.2702
51728SOL     OW61146   3.053   3.555  10.644  0.0262  0.3103  0.4353
51728SOL    HW161147   3.146   3.536  10.634  0.0258  0.3988  0.2616
51728SOL    HW261148   3.047   3.605  10.726  0.3033  1.5277 -0.2633
51729SOL     OW61149   4.281  11.311   1.967 -0.1534 -0.2281  0.4190
51729SOL    HW161150   4.228  11.389   1.980 -0.0325 -0.1979  0.7503
51729SOL    HW261151   4.235  11.242   2.014 -1.8879 -1.0998 -2.3324
51730SOL     OW61152  12.181   5.857   9.099  0.1494  0.4247 -0.1628
51730SOL    HW161153  12.209   5.801   9.172  1.8859 -1.4026 -2.1246
51730SOL    HW261154  12.228   5.939   9.113 -0.3494  0.4956  1.3031
51731SOL     OW61155   6.124  10.440   7.822  0.0504  0.2877  0.1571
51731SOL    HW161156   6.109  10.498   7.748 -0.8127  0.9581  0.8389
51731SOL    HW261157   6.061  10.369   7.810  0.3950  0.0252 -0.1205
51732SOL     OW61158  10.607   9.089   9.748  0.7101 -0.2870 -0.2700
51732SOL    HW161159  10.681   9.048   9.793  1.6638  0.4929 -1.0830
51732SOL    HW261160  10.625   9.077   9.655 -0.3895 -0.4142 -0.4846
51733SOL     OW61161   5.958   2.617   1.765  0.0437 -0.2833  0.1750
51733SOL    HW161162   5.900   2.543   1.746 -1.4529  1.1698 -1.3417
51733SOL    HW261163   5.913   2.665   1.834 -0.8097  0.9957 -1.1926
51734SOL     OW61164  10.268   5.109   3.049  0.4303 -0.1330 -0.5254
51734SOL    HW161165  10.317   5.175   3.000  0.7074  0.0060 -0.0680
51734SOL    HW261166  10.326   5.085   3.121 -0.2072  0.1016  0.0783
51735SOL     OW61167   1.925   7.890   0.065  0.0361 -0.2154  0.0914
51735SOL    HW161168   1.914   7.970   0.014  0.6647  0.2634  0.6840
51735SOL    HW261169   2.019   7.877   0.070 -0.0572 -0.9137  0.1255
51736SOL     OW61170   2.743   1.086   9.436  0.3304 -0.1676 -0.1984
51736SOL    HW161171   2.770   1.129   9.356 -0.2054  0.5199 -0.0236
51736SOL    HW261172   2.702   1.004   9.407  1.0189 -0.3837 -0.5572
51737SOL     OW61173   5.139   7.375  12.326  0.0768  0.0403 -0.1585
51737SOL    HW161174   5.103   7.450  12.372 -1.1174 -0.3906 -0.3374
51737SOL    HW261175   5.229   7.368  12.357 -0.3856  0.3738  1.3241
51738SOL     OW61176  10.847   7.179   5.139  0.1375 -0.7516 -0.0445
51738SOL    HW161177  10.801   7.169   5.056 -0.0020 -2.4860  0.2005
51738SOL    HW261178  10.817   7.263   5.174 -0.0429 -0.1438 -1.5839
51739SOL     OW61179   5.378   3.737   5.828  0.3978 -0.0434 -0.1119
51739SOL    HW161180   5.293   3.740   5.785  0.8947  0.4332 -1.1051
51739SOL    HW261181   5.433   3.685   5.768  0.5960 -1.0625  0.9178
51740SOL     OW61182   8.615   4.449   3.062 -0.7370  0.8565  0.2304
51740SOL    HW161183   8.621   4.387   2.990  2.0978  1.3835 -0.0786
51740SOL    HW261184   8.659   4.528   3.030  1.0647  0.9325  2.6457
51741SOL     OW61185   3.381   6.830  11.335  0.0531  0.2984 -0.5380
51741SOL    HW161186   3.380   6.921  11.363  0.5891  0.8474 -2.2008
51741SOL    HW261187   3.397   6.834  11.241 -0.3702 -1.4992 -0.7197
51742SOL     OW61188   0.986   0.644   9.084 -0.0593  0.7032 -0.3132
51742SOL    HW161189   1.031   0.598   9.155 -1.0065  0.0450 -0.1156
51742SOL    HW261190   0.992   0.584   9.009 -1.6310  0.0379  0.0495
51743SOL     OW61191   7.074   5.211   3.783 -0.0873 -0.3112 -0.5286
51743SOL    HW161192   7.025   5.290   3.805  2.0177  1.2205 -1.0505
51743SOL    HW261193   7.079   5.162   3.865 -0.8885  0.3870 -0.0544
51744SOL     OW61194  12.207   4.433   4.825 -1.0602 -0.2159  0.0875
51744SOL    HW161195  12.191   4.456   4.916  0.8686 -0.6989  0.5926
51744SOL    HW261196  12.216   4.337   4.825 -3.2663 -0.4963 -1.0265
51745SOL     OW61197   8.424  10.628   6.906  0.1696 -0.0564 -0.1148
51745SOL    HW161198   8.472  10.559   6.951  0.2551  0.5359  0.7353
51745SOL    HW261199   8.490  10.695   6.887  0.1458 -0.3221 -1.1959
51746SOL     OW61200   2.117   1.471   9.337  0.1184  0.7254  0.1313
51746SOL    HW161201   2.163   1.413   9.276 -0.2051  0.6596 -0.0498
51746SOL    HW261202   2.154   1.448   9.423 -1.7470 -1.5336  0.4248
51747SOL     OW61203   5.167   0.163   0.427  0.4164 -0.8645 -0.4659
51747SOL    HW161204   5.110   0.088   0.410 -0.5104 -0.1756 -0.4844
51747SOL    HW261205   5.185   0.199   0.340 -0.6577  0.0135 -0.3411
51748SOL     OW61206   4.877   7.705   1.512  0.0665  0.5362 -0.5699
51748SOL    HW161207   4.898   7.764   1.585 -0.1262  1.0251 -0.9062
51748SOL    HW261208   4.942   7.726   1.445 -0.3571  0.7741 -0.9112
51749SOL     OW61209   6.361   3.846   4.792  0.0738  0.2690  0.6370
51749SOL    HW161210   6.417   3.806   4.858  1.0978  0.0662 -0.3115
51749SOL    HW261211   6.300   3.901   4.841  0.6573 -0.0555  1.7452
51750SOL     OW61212   0.462  10.198   5.967  0.1740 -0.4781 -0.0381
51750SOL    HW161213   0.524  10.264   5.998  0.7869 -0.9376 -0.2808
51750SOL    HW261214   0.379  10.246   5.960  0.6026  0.2630 -0.1998
51751SOL     OW61215  10.363   2.386  11.329 -0.2349 -0.8615 -0.5632
51751SOL    HW161216  10.403   2.391  11.242 -2.5375 -0.4919 -1.6738
51751SOL    HW261217  10.365   2.476  11.361  0.9879 -1.0630 -0.0103
51752SOL     OW61218  11.173   6.858   2.363 -0.0054  0.2982  0.2063
51752SOL    HW161219  11.152   6.767   2.342  2.2767 -0.0474 -0.9083
51752SOL    HW261220  11.166   6.863   2.458 -0.1095 -1.0613  0.2905
51753SOL     OW61221   9.223   5.308   5.493  0.5686  0.3449 -0.1520
51753SOL    HW161222   9.156   5.266   5.548 -1.1479 -0.2617 -2.5466
51753SOL    HW261223   9.257   5.237   5.439  1.8172  1.0306 -0.3106
51754SOL     OW61224   7.682   6.470   8.562  0.1143  0.1275  0.2002
51754SOL    HW161225   7.693   6.538   8.630  0.6550 -1.1986  1.4906
51754SOL    HW261226   7.771   6.449   8.535 -0.0068 -0.6433  0.3953
51755SOL     OW61227   1.031   4.941   6.399  0.4926  0.1049 -0.3160
51755SOL    HW161228   1.078   5.024   6.387  1.4174 -0.2990  0.4370
51755SOL    HW261229   1.037   4.898   6.313 -0.7752  1.1887 -0.9839
51756SOL     OW61230   2.669   2.211   1.820  0.1723  0.2953 -0.3424
51756SOL    HW161231   2.696   2.302   1.814 -0.0173  0.5705  2.0616
51756SOL    HW261232   2.603   2.210   1.889 -1.0895 -1.4197 -1.4885
51757SOL     OW61233   1.349   9.255   0.540 -0.6619 -0.3012 -0.2211
51757SOL    HW161234   1.389   9.318   0.601 -0.2584  0.0480 -0.8352
51757SOL    HW261235   1.335   9.176   0.593  2.4416 -1.0622 -0.3311
51758SOL     OW61236   5.222  10.739   3.908  0.4182  0.4715  0.2007
51758SOL    HW161237   5.176  10.762   3.828 -2.0165  4.0229  2.3710
51758SOL    HW261238   5.160  10.686   3.958  1.1982 -0.1226  0.5768
51759SOL     OW61239  11.473   5.925   8.968 -0.1867  0.4311 -0.2967
51759SOL    HW161240  11.438   5.991   9.027  0.5497  0.7035 -0.1561
51759SOL    HW261241  11.561   5.956   8.946  0.3111 -0.6812  0.0558
51760SOL     OW61242  10.700   9.230   6.652 -0.8127  0.3509 -0.5918
51760SOL    HW161243  10.744   9.146   6.636 -0.4469  0.3781  0.2435
51760SOL    HW261244  10.744   9.292   6.593 -0.6559  0.0941 -0.7490
51761SOL     OW61245   3.158   9.879   5.158 -0.3298 -0.0837  0.1237
51761SOL    HW161246   3.071   9.840   5.164  0.0222 -0.9467 -0.2505
51761SOL    HW261247   3.168   9.928   5.240 -1.2928  0.3112  0.0162
51762SOL     OW61248   5.361  12.327   3.521 -0.1902  0.0935 -0.3659
51762SOL    HW161249   5.338  12.374   3.441  0.7016 -0.5174 -1.0036
51762SOL    HW261250   5.455  12.310   3.513 -0.6878 -3.0222 -0.8455
51763SOL     OW61251   4.933   7.741  11.933 -0.4768 -0.3103 -0.1333
51763SOL    HW161252   4.975   7.658  11.909 -1.1624 -0.3545 -1.2403
51763SOL    HW261253   4.933   7.792  11.853 -0.4609  0.5968  0.4341
51764SOL     OW61254   9.668   5.711   2.988  0.0842 -0.6101 -0.7839
51764SOL    HW161255   9.594   5.669   2.943 -2.9702  3.2504  0.1381
51764SOL    HW261256   9.681   5.793   2.941  0.7203  0.8873  1.8570
51765SOL     OW61257   0.123   0.540   8.749 -0.2578 -0.6632 -0.6481
51765SOL    HW161258   0.184   0.467   8.749  0.6157  0.0331  0.2494
51765SOL    HW261259   0.075   0.532   8.831  1.0942  0.7244  0.3449
51766SOL     OW61260   3.629   4.657   6.819 -0.6997 -0.0648  0.4158
51766SOL    HW161261   3.646   4.563   6.827  0.2998 -0.1837 -2.1336
51766SOL    HW261262   3.573   4.666   6.742  1.1785  1.5316 -0.8750
51767SOL     OW61263   5.456   0.589   5.579  0.0120  0.5435 -0.1303
51767SOL    HW161264   5.480   0.641   5.656  2.8114 -0.1116 -0.4787
51767SOL    HW261265   5.466   0.498   5.607  0.8297  0.2927 -1.1825
51768SOL     OW61266   3.306   9.858   2.843 -0.0617 -0.4786 -0.2351
51768SOL    HW161267   3.397   9.881   2.862 -0.6040  0.6036  1.1569
51768SOL    HW261268   3.280   9.918   2.773  0.1989 -0.5764 -0.4160
51769SOL     OW61269   6.815   2.290   1.710 -0.1578 -0.2598  0.0811
51769SOL    HW161270   6.809   2.242   1.627  0.6321  1.5714 -1.0851
51769SOL    HW261271   6.821   2.221   1.777 -0.3625 -1.7769 -1.3966
51770SOL     OW61272   2.763   3.061   1.314 -0.1455  0.3131 -0.2471
51770SOL    HW161273   2.678   3.050   1.271 -0.2610  1.8715 -0.4603
51770SOL    HW261274   2.815   3.112   1.251  0.1941  1.3053  0.8094
51771SOL     OW61275   9.580   3.874   4.877 -0.2097  0.4150  0.1010
51771SOL    HW161276   9.596   3.894   4.970 -0.4108  0.3007  0.1606
51771SOL    HW261277   9.579   3.959   4.834  0.3074  0.4453  0.1348
51772SOL     OW61278  10.526  11.047   2.008 -0.2973 -0.2602 -0.0661
51772SOL    HW161279  10.505  10.989   2.081  0.8970 -0.3559  0.2269
51772SOL    HW261280  10.495  11.133   2.036 -0.8070 -0.4942  0.0921
51773SOL     OW61281   4.706   0.362   6.629 -0.1288  0.2573  0.1755
51773SOL    HW161282   4.766   0.309   6.577 -1.6141 -1.0319 -0.2657
51773SOL    HW261283   4.754   0.444   6.643  1.0613 -0.0857 -1.5774
51774SOL     OW61284  11.586   2.332   8.642  0.2323  0.4494 -0.2923
51774SOL    HW161285  11.533   2.277   8.584  0.0118  0.7556 -0.3842
51774SOL    HW261286  11.568   2.297   8.730 -1.1336  1.3413 -0.1789
51775SOL     OW61287   9.552  10.996   8.988  0.1410 -0.0190  0.7551
51775SOL    HW161288   9.596  11.051   8.923 -2.3092  1.1750 -0.0080
51775SOL    HW261289   9.580  10.907   8.967  0.0394  0.4165 -1.4542
51776SOL     OW61290   3.117  11.715   8.889 -0.4581  0.1669 -0.1819
51776SOL    HW161291   3.180  11.741   8.956 -2.3277  0.4446  1.5344
51776SOL    HW261292   3.114  11.619   8.895 -0.8580  0.2098  0.3795
51777SOL     OW61293   8.319  12.138   9.796 -0.3762  0.1465 -0.1243
51777SOL    HW161294   8.285  12.062   9.750  0.1292  0.0092 -0.2779
51777SOL    HW261295   8.256  12.154   9.866 -1.5179  0.7645 -1.2449
51778SOL     OW61296   2.597   3.717   5.505 -0.4198  0.0027  0.5393
51778SOL    HW161297   2.608   3.689   5.597 -0.9034  0.1503  0.6402
51778SOL    HW261298   2.586   3.811   5.510 -1.2748 -0.0871  0.3975
51779SOL     OW61299   4.586  10.759  11.332 -0.1175 -0.4292  0.2140
51779SOL    HW161300   4.607  10.679  11.380 -1.5341 -0.5417  0.7014
51779SOL    HW261301   4.494  10.748  11.306 -0.7038  1.4985  1.2838
51780SOL     OW61302   6.650  10.665   5.240  0.3121  0.0238 -0.3624
51780SOL    HW161303   6.598  10.714   5.304  0.6510  0.0843 -0.1302
51780SOL    HW261304   6.741  10.687   5.261  0.4050  1.0645 -1.6603
51781SOL     OW61305   1.702  12.125  11.215 -0.2234 -0.0740 -0.2244
51781SOL    HW161306   1.767  12.112  11.146 -1.4633 -0.8192 -1.2814
51781SOL    HW261307   1.743  12.089  11.294  1.3993  1.2015 -0.4315
51782SOL     OW61308   6.756   1.783   4.706 -0.3451  0.2000 -0.4556
51782SOL    HW161309   6.714   1.701   4.732 -3.5235  1.9737  0.5763
51782SOL    HW261310   6.827   1.795   4.769 -0.8425 -1.0072  0.3690
51783SOL     OW61311   2.657   8.194  10.028 -0.0083 -0.1069 -0.1577
51783SOL    HW161312   2.653   8.105  10.063 -1.9261  0.6201  1.6446
51783SOL    HW261313   2.734   8.232  10.069 -0.3771 -0.2960  0.7262
51784SOL     OW61314   0.811   1.187   3.269  0.1685 -0.1647 -0.7045
51784SOL    HW161315   0.798   1.148   3.356 -0.2761  0.1385 -0.6303
51784SOL    HW261316   0.739   1.249   3.260  1.9400  2.1124 -0.0060
51785SOL     OW61317   7.553   4.209  10.002 -0.1823  0.7827  0.0399
51785SOL    HW161318   7.539   4.289   9.951  1.5735  0.2612 -1.3658
51785SOL    HW261319   7.602   4.237  10.079 -0.1558  1.1554 -0.1129
51786SOL     OW61320  11.291   2.305   1.528  0.0849  0.2368  0.5285
51786SOL    HW161321  11.345   2.384   1.520  2.4063 -1.2544  0.2956
51786SOL    HW261322  11.289   2.268   1.439  2.8538 -2.1860  1.2985
51787SOL     OW61323   6.707   4.901  10.447  0.7057  0.6212  0.8934
51787SOL    HW161324   6.717   4.832  10.381 -0.1638  0.8964  0.4599
51787SOL    HW261325   6.754   4.976  10.410  0.3083  0.7428  0.6265
51788SOL     OW61326   7.669   3.345   3.633  0.1983  0.0264  0.1855
51788SOL    HW161327   7.743   3.284   3.638 -0.0703 -0.3975 -0.8050
51788SOL    HW261328   7.692   3.404   3.561  0.3696  1.0093  1.0124
51789SOL     OW61329  11.884  12.113   1.341 -0.7007 -0.2210 -0.4588
51789SOL    HW161330  11.952  12.077   1.284 -0.8078 -1.3473  0.1084
51789SOL    HW261331  11.862  12.197   1.301 -0.3939 -0.7438 -1.7754
51790SOL     OW61332   5.570   7.466   4.599  0.2834 -0.0999 -0.0154
51790SOL    HW161333   5.540   7.398   4.539 -0.5071  1.3583 -1.3342
51790SOL    HW261334   5.660   7.484   4.572  0.0648  0.2665 -0.5044
51791SOL     OW61335   1.267   1.985   6.324 -0.0966  0.5909 -0.2212
51791SOL    HW161336   1.185   1.935   6.322  0.0179  0.4160 -1.0654
51791SOL    HW261337   1.243   2.068   6.365 -0.3474 -0.0457  0.9608
51792SOL     OW61338   3.872   9.522   3.167 -0.1531  0.0422  0.5947
51792SOL    HW161339   3.916   9.448   3.127  0.9609  2.4013 -2.9939
51792SOL    HW261340   3.779   9.500   3.163  0.2154 -1.7976  1.1985
51793SOL     OW61341   5.206   3.448   9.514  0.9806 -0.7395  0.7067
51793SOL    HW161342   5.210   3.352   9.514 -1.4812 -0.9509 -1.4083
51793SOL    HW261343   5.287   3.476   9.472  0.0773 -2.1468 -2.1963
51794SOL     OW61344   4.617   9.713   5.545  0.1446 -0.2867 -0.3604
51794SOL    HW161345   4.679   9.765   5.597  1.5848 -0.3546 -1.9262
51794SOL    HW261346   4.595   9.769   5.471 -2.9040  0.3226  0.8609
51795SOL     OW61347   0.583   7.601   4.273  0.7914  0.2057 -0.1918
51795SOL    HW161348   0.613   7.539   4.206 -0.4465 -1.9366  1.0942
51795SOL    HW261349   0.651   7.598   4.340  1.5733  1.6283 -0.8875
51796SOL     OW61350  11.351  10.036   3.283  0.1707  0.1962  0.0705
51796SOL    HW161351  11.398  10.081   3.213 -0.1894 -1.4018 -1.2747
51796SOL    HW261352  11.312  10.106   3.335  2.4703  1.5018  0.1607
51797SOL     OW61353   2.237   9.234  12.089 -0.3877  0.2559  0.3732
51797SOL    HW161354   2.292   9.250  12.012 -2.2035 -1.2551 -1.3505
51797SOL    HW261355   2.292   9.184  12.148  0.4014 -0.4441 -0.9129
51798SOL     OW61356   7.869  12.284  11.677  0.0891 -0.3582  0.0240
51798SOL    HW161357   7.943  12.260  11.732 -0.8991 -2.5194  0.5213
51798SOL    HW261358   7.800  12.308  11.739 -0.1107  0.1154 -0.3756
51799SOL     OW61359   5.047   1.975   8.108  0.4587 -0.1398  0.1808
51799SOL    HW161360   5.132   1.952   8.070 -0.5169  1.1326 -3.1166
51799SOL    HW261361   4.993   1.897   8.094  0.5605 -0.2771  0.5454
51800SOL     OW61362   9.985  12.329   5.134  0.5237 -0.0378 -0.4375
51800SOL    HW161363   9.899  12.309   5.096  0.1725 -1.2938  0.9449
51800SOL    HW261364   9.970  12.407   5.188 -0.1983 -1.2349  1.1711
51801SOL     OW61365   8.634   0.368   6.348  0.0962 -0.2618  0.5473
51801SOL    HW161366   8.647   0.397   6.258 -0.3469 -0.1884  0.5041
51801SOL    HW261367   8.708   0.311   6.366  0.8936  0.7456  0.5733
51802SOL     OW61368   5.324   0.554   4.317  0.0894 -0.7997  0.0761
51802SOL    HW161369   5.351   0.494   4.247 -0.4391  0.2836 -1.1218
51802SOL    HW261370   5.404   0.602   4.339  0.1252 -0.7063 -0.2510
51803SOL     OW61371   5.298   9.600   9.598  0.1095 -0.3934  0.2352
51803SOL    HW161372   5.309   9.647   9.516 -0.4461 -1.7051 -0.6298
51803SOL    HW261373   5.385   9.600   9.638  0.4206  0.1002 -0.4421
51804SOL     OW61374   3.921   1.474   5.277 -0.7524  0.2229 -0.3398
51804SOL    HW161375   3.870   1.473   5.358 -0.9164 -0.2022 -0.4414
51804SOL    HW261376   3.873   1.533   5.219 -0.8149  0.2728 -0.2376
51805SOL     OW61377   8.218   6.960   2.306 -0.3230 -0.2221  0.0466
51805SOL    HW161378   8.171   7.040   2.327 -0.9500 -0.6416  0.2854
51805SOL    HW261379   8.153   6.905   2.261  0.4662 -0.0736 -1.3444
51806SOL     OW61380   6.614   2.908  10.802  0.2421  0.2431 -0.1033
51806SOL    HW161381   6.637   2.918  10.710 -0.6832 -0.2357 -0.3996
51806SOL    HW261382   6.519   2.917  10.804  0.4186  2.8694  1.1734
51807SOL     OW61383   4.525   5.390   3.460  0.1483  0.7519  0.3893
51807SOL    HW161384   4.539   5.358   3.371  0.4233  1.2906  0.2400
51807SOL    HW261385   4.478   5.318   3.504  0.5813  0.2251  0.0015
51808SOL     OW61386   5.818  10.356   8.070  0.8675  0.1489  0.0206
51808SOL    HW161387   5.869  10.277   8.053 -0.3573 -0.6981  0.1367
51808SOL    HW261388   5.852  10.421   8.008  2.5604 -0.1427  0.5988
51809SOL     OW61389   2.190   1.481   5.601  0.0716  0.3832 -0.2485
51809SOL    HW161390   2.251   1.531   5.656  1.1343 -1.3930  0.2555
51809SOL    HW261391   2.179   1.535   5.522  1.1829  1.4040  0.2648
51810SOL     OW61392   5.699   8.045   4.526  0.4420  0.2121  0.2062
51810SOL    HW161393   5.753   7.966   4.514  0.8147  0.2024  1.8121
51810SOL    HW261394   5.616   8.023   4.482  0.5457 -1.0684  0.5948
51811SOL     OW61395   8.741  11.635   6.589  0.4523  0.0965 -0.4722
51811SOL    HW161396   8.831  11.669   6.594  1.1274 -1.6409 -0.2809
51811SOL    HW261397   8.737  11.569   6.658 -0.5510 -0.8137 -1.3821
51812SOL     OW61398  11.299   4.609   7.706  0.4344 -0.4670  0.2337
51812SOL    HW161399  11.328   4.646   7.790  0.8103  2.6759 -1.1279
51812SOL    HW261400  11.379   4.573   7.667  0.3849 -1.3289  0.8930
51813SOL     OW61401   1.553   5.653   4.544  0.2346  0.1968  0.7345
51813SOL    HW161402   1.474   5.705   4.555  0.4444  0.8925 -0.7784
51813SOL    HW261403   1.523   5.562   4.550 -0.6605  0.4597  0.3670
51814SOL     OW61404   8.224   9.863   0.492 -0.0908 -0.5674 -0.0029
51814SOL    HW161405   8.270   9.909   0.562  0.7973 -1.4229 -0.0105
51814SOL    HW261406   8.205   9.777   0.527  0.6036 -1.1007 -0.8877
51815SOL     OW61407   2.622   3.151  10.078  0.1761  0.1092  0.3373
51815SOL    HW161408   2.686   3.221  10.070  0.2655 -0.0122 -0.0339
51815SOL    HW261409   2.538   3.194  10.063  0.0778  0.4457  1.7522
51816SOL     OW61410   7.602  10.464  11.405  0.4011 -0.3218 -0.0716
51816SOL    HW161411   7.512  10.439  11.383  0.6206 -2.7404  1.3979
51816SOL    HW261412   7.654  10.432  11.331 -0.0038  2.5596 -1.7436
51817SOL     OW61413  10.077   0.061   9.695  0.1127  0.9312  0.7989
51817SOL    HW161414  10.006   0.114   9.733  0.7782  2.1376  0.4130
51817SOL    HW261415  10.146   0.062   9.762 -0.3125 -0.4866  1.3007
51818SOL     OW61416   0.974   9.839  10.705 -0.1992 -0.8365  0.0261
51818SOL    HW161417   0.996   9.917  10.654 -0.6331 -1.7793 -1.6813
51818SOL    HW261418   1.009   9.857  10.792 -0.2878  1.2594 -0.3127
51819SOL     OW61419   9.876  11.395   1.348 -0.1932 -0.3522 -0.7797
51819SOL    HW161420   9.968  11.422   1.350 -0.8032  1.9228  0.3683
51819SOL    HW261421   9.843  11.432   1.266 -0.3810 -0.0436 -0.5651
51820SOL     OW61422   5.114   5.385   2.292 -0.2934 -0.1148 -0.5205
51820SOL    HW161423   5.087   5.469   2.257 -0.5416 -0.5730 -1.4700
51820SOL    HW261424   5.189   5.405   2.349  2.0919  0.4133 -3.5487
51821SOL     OW61425   0.994   1.445   6.232  0.1091 -1.2530  0.5363
51821SOL    HW161426   0.935   1.521   6.226  0.9407 -0.6063  0.2645
51821SOL    HW261427   1.029   1.436   6.143  1.6875 -0.5643  1.0580
51822SOL     OW61428   7.867  12.275   4.823 -0.0792  0.5971  0.0299
51822SOL    HW161429   7.937  12.234   4.772 -0.0721  3.0484 -2.2149
51822SOL    HW261430   7.791  12.218   4.810  0.8809 -0.8531  0.5356
51823SOL     OW61431   9.925   3.810   8.677 -0.2779  0.0111  0.2343
51823SOL    HW161432   9.860   3.845   8.738 -0.3009  1.4574 -0.5700
51823SOL    HW261433   9.925   3.716   8.693  0.8065  0.4474  3.5196
51824SOL     OW61434   4.149   4.704   3.542  0.0758  0.0981  0.6295
51824SOL    HW161435   4.183   4.784   3.581  0.2821  0.3261  0.0028
51824SOL    HW261436   4.115   4.653   3.615  2.4400 -0.4872  1.4010
51825SOL     OW61437   8.690   6.983   0.482  0.1742 -0.3968  0.4715
51825SOL    HW161438   8.603   7.008   0.451  0.5996 -0.8555 -1.1489
51825SOL    HW261439   8.748   7.050   0.448  0.6727 -0.9994  0.1081
51826SOL     OW61440   1.472   7.731  11.629  0.0288 -0.0947 -0.2030
51826SOL    HW161441   1.378   7.748  11.632  0.0330 -0.1095  0.0234
51826SOL    HW261442   1.513   7.815  11.647  0.0962  0.4586 -2.5987
51827SOL     OW61443   5.517   6.298   7.102  0.4092  0.2722  0.2042
51827SOL    HW161444   5.529   6.247   7.182  0.4516  1.4778  0.9904
51827SOL    HW261445   5.441   6.353   7.119 -0.2226 -0.1919 -0.9946
51828SOL     OW61446   4.253   3.954   7.739 -0.1725  0.4796 -0.0261
51828SOL    HW161447   4.266   4.031   7.794  0.4775  0.0394  0.4511
51828SOL    HW261448   4.297   3.883   7.785 -0.1484 -0.0362 -0.8101
51829SOL     OW61449   0.640   7.038  11.320  0.8604 -0.1696 -0.1257
51829SOL    HW161450   0.665   6.965  11.263 -1.3195 -1.1513  0.0766
51829SOL    HW261451   0.588   6.998  11.389  1.7147  1.2894  1.4237
51830SOL     OW61452  10.828   1.408  11.899  0.5012  0.0490 -0.1025
51830SOL    HW161453  10.897   1.358  11.856 -0.9535 -1.9517 -0.2659
51830SOL    HW261454  10.752   1.349  11.898 -0.6474  1.3816  1.8362
51831SOL     OW61455  12.346   3.013   3.576 -0.4922  0.0718  0.4679
51831SOL    HW161456  12.343   3.108   3.583  0.8617  0.3176 -1.5408
51831SOL    HW261457  12.388   2.984   3.657 -1.1250  1.1424  1.1967
51832SOL     OW61458   5.072   1.616   6.051  0.0513 -0.1842 -0.0068
51832SOL    HW161459   5.055   1.567   5.971 -2.8179  0.1462  0.3253
51832SOL    HW261460   5.110   1.699   6.021 -1.2725  0.0566 -1.0696
51833SOL     OW61461   8.788   5.013   7.058 -0.5877 -0.1526  0.2823
51833SOL    HW161462   8.771   5.082   6.994  1.2845 -0.2379 -0.3686
51833SOL    HW261463   8.761   5.050   7.142 -2.3159  0.2595 -0.4071
51834SOL     OW61464   9.775   5.757   8.140  0.1973  0.0355 -0.0086
51834SOL    HW161465   9.704   5.795   8.191  0.9683  1.3978  0.0981
51834SOL    HW261466   9.778   5.810   8.060 -0.7280 -1.8074 -1.3191
51835SOL     OW61467   5.369  11.336   1.872 -0.3520  1.4864 -1.0995
51835SOL    HW161468   5.455  11.307   1.843 -0.8932 -0.8843 -0.5384
51835SOL    HW261469   5.307  11.290   1.816 -1.2985  0.4300  0.7311
51836SOL     OW61470   6.070   3.919   3.673  0.2155  0.1239 -0.1353
51836SOL    HW161471   6.067   3.824   3.659  0.7808  0.0835 -0.0164
51836SOL    HW261472   6.019   3.933   3.753  2.0887 -0.3801  1.2288
51837SOL     OW61473   8.864  11.999   4.828 -0.4400 -0.0481 -0.3481
51837SOL    HW161474   8.921  12.035   4.896 -0.6684 -0.9042  0.3267
51837SOL    HW261475   8.835  12.075   4.778 -0.3013  0.6145  0.5440
51838SOL     OW61476   2.787   7.062  10.869  0.3090 -0.2140  1.0233
51838SOL    HW161477   2.732   7.027  10.798  0.0906  1.5115  0.2850
51838SOL    HW261478   2.806   7.152  10.842  1.4285  0.0218  2.4891
51839SOL     OW61479   7.870   2.252  10.329 -0.1737  0.0728 -0.2810
51839SOL    HW161480   7.891   2.199  10.252  0.6192  1.8506 -1.3669
51839SOL    HW261481   7.780   2.282  10.312 -1.2750 -2.2158  1.1600
51840SOL     OW61482   9.743   3.484   7.380 -0.3166 -0.4551 -0.0768
51840SOL    HW161483   9.729   3.487   7.285 -1.4255 -2.8104 -0.0496
51840SOL    HW261484   9.789   3.402   7.395  0.0509 -0.0046  1.4274
51841SOL     OW61485  11.010   0.373  10.311 -0.0065  0.0036  0.3841
51841SOL    HW161486  11.044   0.286  10.330 -0.3784 -0.0976  0.5973
51841SOL    HW261487  11.005   0.416  10.396 -0.8239 -0.1381  0.4181
51842SOL     OW61488  10.260   4.700   8.210 -0.2111 -0.1191 -0.1555
51842SOL    HW161489  10.178   4.711   8.161 -0.3105  0.6636  0.1699
51842SOL    HW261490  10.250   4.758   8.286  0.5477 -0.1942  0.0073
51843SOL     OW61491   9.434  10.945   0.773  0.0247 -0.2797 -0.2126
51843SOL    HW161492   9.425  10.924   0.680 -1.6398 -0.0844 -0.1227
51843SOL    HW261493   9.396  11.033   0.781  0.1783 -0.2864  0.6640
51844SOL     OW61494   8.326   8.791   5.428  0.8223 -0.3317 -0.0569
51844SOL    HW161495   8.349   8.861   5.367  0.4141  0.8396  1.0858
51844SOL    HW261496   8.259   8.741   5.382 -0.6794  1.5012 -0.0081
51845SOL     OW61497   9.097   1.065  11.705 -0.1044 -0.0345  0.1694
51845SOL    HW161498   9.034   0.999  11.676 -1.0381  1.5554 -1.6493
51845SOL    HW261499   9.044   1.131  11.748  0.7049  0.0121  1.1299
51846SOL     OW61500   1.880  10.393   3.075  0.2951 -0.0883  0.1711
51846SOL    HW161501   1.843  10.322   3.127  0.2044  0.5467  0.9813
51846SOL    HW261502   1.813  10.461   3.077  1.0806  0.6829  0.8214
51847SOL     OW61503   0.099   5.674   2.243  0.4092  0.0740 -0.0403
51847SOL    HW161504   0.087   5.745   2.180  1.3860  0.3109  0.0381
51847SOL    HW261505   0.016   5.626   2.241 -0.2757  1.2312 -0.0708
51848SOL     OW61506  11.185   7.158   5.270  0.1498 -0.5764  0.1361
51848SOL    HW161507  11.271   7.189   5.242  0.4860 -0.1412  1.5724
51848SOL    HW261508  11.138   7.140   5.188  1.1747  0.3555 -0.6858
51849SOL     OW61509   7.845   0.227   9.944  0.3456 -0.3384  0.3800
51849SOL    HW161510   7.801   0.258   9.865 -0.3569 -2.1714 -0.0053
51849SOL    HW261511   7.773   0.216  10.007  0.5329 -1.2741  0.4456
51850SOL     OW61512   0.296  10.886   0.398 -0.1418 -0.1988  0.4622
51850SOL    HW161513   0.249  10.960   0.438  0.3447  0.5467 -0.3114
51850SOL    HW261514   0.253  10.808   0.434 -2.7020  0.4151 -1.0062
51851SOL     OW61515   2.836   7.048   0.506  0.3012  0.7984  0.2060
51851SOL    HW161516   2.829   7.123   0.447 -0.5956  1.6140  1.2914
51851SOL    HW261517   2.749   7.042   0.546  0.5655 -0.4210  0.6388
51852SOL     OW61518   7.733   8.778  10.506 -0.0093 -0.2000  0.4225
51852SOL    HW161519   7.695   8.703  10.461 -1.0366  0.2080  0.5898
51852SOL    HW261520   7.704   8.769  10.597  0.3750  0.0679  0.5772
51853SOL     OW61521  10.594  11.605   6.916 -0.2361 -0.3987 -0.6741
51853SOL    HW161522  10.673  11.621   6.967  1.3072  3.1426 -3.7436
51853SOL    HW261523  10.523  11.638   6.971  0.3798 -2.6097  1.6645
51854SOL     OW61524   9.819   1.065  10.919  0.1590  0.3543 -0.4473
51854SOL    HW161525   9.882   1.049  10.989  0.0177  1.9863  0.0938
51854SOL    HW261526   9.756   0.993  10.926  1.7883 -1.1989 -0.8707
51855SOL     OW61527  11.584   8.081   8.876  0.3274 -0.1065 -0.0276
51855SOL    HW161528  11.642   8.022   8.924 -0.9025 -1.4191 -0.0823
51855SOL    HW261529  11.598   8.060   8.784  1.4170  1.1952 -0.1837
51856SOL     OW61530   0.495  12.201   3.374 -0.0266 -0.0657 -0.2501
51856SOL    HW161531   0.542  12.149   3.308  0.4799 -0.1502  0.1678
51856SOL    HW261532   0.496  12.290   3.340  1.1773  0.0843  0.1393
51857SOL     OW61533   1.409   2.365  10.476  0.1162  0.5796  0.2007
51857SOL    HW161534   1.382   2.304  10.406 -2.2361  1.9439 -0.1862
51857SOL    HW261535   1.475   2.421  10.434  0.6199 -0.2242 -0.1189
51858SOL     OW61536   8.090  11.387   9.844 -0.3495  0.3756  0.6458
51858SOL    HW161537   8.172  11.337   9.833  0.7294  2.5630 -2.8356
51858SOL    HW261538   8.030  11.349   9.781 -1.1355  0.5451  1.2710
51859SOL     OW61539   9.257   8.463   9.821  0.6382  0.0874  0.1863
51859SOL    HW161540   9.331   8.524   9.823  0.7330 -0.0568  1.8836
51859SOL    HW261541   9.235   8.449   9.913 -3.4619  2.4774 -0.2022
51860SOL     OW61542   9.246   3.515  11.913 -0.4357 -0.1837 -0.2947
51860SOL    HW161543   9.299   3.563  11.977 -1.1128 -0.5063  0.5186
51860SOL    HW261544   9.168   3.489  11.961  0.0787 -2.4297 -0.5995
51861SOL     OW61545   5.021   1.443   3.158  0.1688 -0.0250 -0.4817
51861SOL    HW161546   5.020   1.539   3.161  1.3928 -0.0051 -0.2578
51861SOL    HW261547   5.052   1.417   3.244  1.5991 -0.5514 -1.1269
51862SOL     OW61548  11.081  11.758   8.919 -0.6182  0.1329 -0.2847
51862SOL    HW161549  11.012  11.816   8.886  0.7796  1.5577 -0.8365
51862SOL    HW261550  11.116  11.803   8.996 -1.8795 -1.7606  1.5163
51863SOL     OW61551   6.301   7.562   2.014 -0.0720 -0.0526 -0.2542
51863SOL    HW161552   6.334   7.476   1.987  0.4267  0.8119 -2.6687
51863SOL    HW261553   6.374   7.603   2.060 -0.7030 -1.3112  1.9755
51864SOL     OW61554   9.360  12.340   7.819 -0.1163  0.1212 -0.1799
51864SOL    HW161555   9.428  12.366   7.882 -1.0715  0.5662  0.6932
51864SOL    HW261556   9.367  12.405   7.749  1.7086 -1.0331 -1.1461
51865SOL     OW61557   0.200   2.781   6.521  0.6092  0.1721  0.3940
51865SOL    HW161558   0.121   2.805   6.472  0.0985 -1.7906  0.1867
51865SOL    HW261559   0.167   2.757   6.608  1.1244  0.4253  0.6609
51866SOL     OW61560  11.427  12.397   5.672  0.8581  0.5780 -0.2518
51866SOL    HW161561  11.519  12.372   5.675  0.6987 -0.0755 -0.7299
51866SOL    HW261562  11.425  12.476   5.619  1.1098  0.4410 -0.4650
51867SOL     OW61563   6.382   9.864   3.401  0.1912  0.3929  0.1163
51867SOL    HW161564   6.308   9.908   3.358 -0.5389  0.4950  1.4341
51867SOL    HW261565   6.459   9.907   3.364 -0.4308  0.9914 -0.5307
51868SOL     OW61566   2.244   3.691  12.360 -0.3378 -0.9190 -0.4852
51868SOL    HW161567   2.156   3.661  12.341 -0.6389  0.1624 -0.9291
51868SOL    HW261568   2.300   3.616  12.342 -1.0400 -1.2033 -1.5525
51869SOL     OW61569  12.346   0.313   9.762 -0.4569 -0.2023 -0.4538
51869SOL    HW161570  12.267   0.365   9.782  0.0791  0.7097 -0.6381
51869SOL    HW261571  12.313   0.224   9.750 -1.1839 -0.2569  1.5583
51870SOL     OW61572  10.260  12.257  11.000 -0.3546  0.3530 -0.4752
51870SOL    HW161573  10.337  12.308  11.026  0.9701 -2.2524  1.1184
51870SOL    HW261574  10.196  12.275  11.070  0.1469 -0.1934  0.1417
51871SOL     OW61575   0.848  11.012   1.318  0.3092 -0.3393  0.7519
51871SOL    HW161576   0.871  11.088   1.265  0.8781 -0.8135  0.3069
51871SOL    HW261577   0.759  11.030   1.349 -0.1640 -0.1965 -0.6338
51872SOL     OW61578   9.889   8.217   3.805 -0.2498 -0.1643  0.2361
51872SOL    HW161579   9.836   8.205   3.727  0.9590  2.0058 -1.0147
51872SOL    HW261580   9.877   8.309   3.829  2.1387  0.1694  0.4655
51873SOL     OW61581   6.846   3.316   3.545 -0.5990 -0.2396 -0.1791
51873SOL    HW161582   6.921   3.345   3.494 -0.3123 -0.1501  0.2801
51873SOL    HW261583   6.771   3.365   3.510 -0.3066  0.2425 -0.1278
51874SOL     OW61584   7.715   3.708   3.691 -0.4390 -0.1918  0.1649
51874SOL    HW161585   7.739   3.760   3.768 -1.1265 -0.1802  0.3840
51874SOL    HW261586   7.656   3.641   3.725 -0.1440 -0.6599 -0.2363
51875SOL     OW61587  11.853   2.604   9.982  0.2438  0.1308  0.4141
51875SOL    HW161588  11.780   2.542   9.986  0.5404 -0.2113  0.6201
51875SOL    HW261589  11.835   2.667  10.051  0.0960  0.0980  0.4055
51876SOL     OW61590  11.675   0.697   6.588  0.2811 -0.1435 -0.3979
51876SOL    HW161591  11.659   0.696   6.682 -0.1055 -0.1275 -0.4632
51876SOL    HW261592  11.767   0.671   6.579  0.7076  1.1418  0.0536
51877SOL     OW61593   4.775   1.356  10.269  0.1105 -0.8286  0.5379
51877SOL    HW161594   4.684   1.386  10.268  0.3280 -0.1192 -0.9737
51877SOL    HW261595   4.784   1.304  10.189  1.3394  0.1199  0.0354
51878SOL     OW61596   9.465   3.177  10.864 -0.0043 -0.6104  0.7087
51878SOL    HW161597   9.513   3.165  10.945  0.4963  1.0607  0.7064
51878SOL    HW261598   9.376   3.147  10.883  0.4994 -1.7594  1.3461
51879SOL     OW61599  12.366   8.870   8.320 -0.5653 -0.3138 -0.1820
51879SOL    HW161600  12.306   8.906   8.255 -0.8773 -1.2926 -0.4535
51879SOL    HW261601  12.310   8.821   8.380 -0.0344 -1.2493 -0.4456
51880SOL     OW61602   9.872  12.048   1.491  0.8415  0.1657  0.6667
51880SOL    HW161603   9.842  12.134   1.462 -0.1692  0.2601  1.8825
51880SOL    HW261604   9.967  12.055   1.494  0.7330  1.5652  1.6463
51881SOL     OW61605   5.562   9.157  12.228 -0.1919  0.7021 -0.0461
51881SOL    HW161606   5.652   9.125  12.216  0.4365  2.4285 -0.1926
51881SOL    HW261607   5.549   9.154  12.323  0.4157  1.4002  0.0741
51882SOL     OW61608  12.464  11.328   7.065 -0.4417 -0.6460  0.0050
51882SOL    HW161609  12.531  11.394   7.086 -2.2350  1.8208 -1.3930
51882SOL    HW261610  12.394  11.344   7.128 -0.5301 -1.9125  0.2483
51883SOL     OW61611  11.153   7.030   7.355 -0.2964 -0.2135  0.1529
51883SOL    HW161612  11.201   7.026   7.273  0.7901 -1.1113  0.7911
51883SOL    HW261613  11.157   6.941   7.389 -0.0635  0.2970  1.5318
51884SOL     OW61614  11.545  10.665   4.153  0.4842  0.4146  0.5133
51884SOL    HW161615  11.627  10.617   4.168 -0.4576 -1.1622  0.8363
51884SOL    HW261616  11.573  10.753   4.131  2.2886 -0.2033  0.1574
51885SOL     OW61617   1.922   9.045   6.246  0.3849  0.0995  0.3925
51885SOL    HW161618   1.882   8.980   6.303 -0.3754  0.2299  0.0218
51885SOL    HW261619   1.848   9.087   6.202  0.8387  1.4073  0.8311
51886SOL     OW61620   9.416   5.891  11.904  0.4313  0.7276 -0.0063
51886SOL    HW161621   9.324   5.873  11.923 -0.3760  1.2991 -2.9033
51886SOL    HW261622   9.428   5.983  11.928  0.5928  0.3554  1.4112
51887SOL     OW61623  12.067  11.966   0.766  0.2708 -0.4608 -0.5458
51887SOL    HW161624  11.996  12.028   0.784  0.8300  0.0913 -0.2061
51887SOL    HW261625  12.022  11.883   0.749 -0.4916  0.0671 -1.1725
51888SOL     OW61626   0.365  10.144  10.080  0.2148  0.5483  0.2691
51888SOL    HW161627   0.413  10.204  10.138  0.3384 -0.5501  1.3600
51888SOL    HW261628   0.395  10.166   9.992  1.3526  1.0978  0.7760
51889SOL     OW61629  10.853   3.982  10.819 -0.1577  0.4724  0.2213
51889SOL    HW161630  10.837   4.050  10.884 -0.6797  1.2221 -0.6745
51889SOL    HW261631  10.798   4.006  10.744  0.5586 -0.2688 -0.5666
51890SOL     OW61632   3.197   0.054   1.125  0.5980 -0.0134 -0.2010
51890SOL    HW161633   3.161   0.054   1.214  0.2666 -1.0406 -0.3178
51890SOL    HW261634   3.290   0.070   1.137  0.4997  0.2296  0.3007
51891SOL     OW61635   4.290   6.157   2.125  0.3649  0.4215 -0.0925
51891SOL    HW161636   4.384   6.170   2.111  0.6348  0.0937  1.2293
51891SOL    HW261637   4.268   6.080   2.073  1.3389 -0.8697  1.3054
51892SOL     OW61638   4.584   0.064   5.029  0.3552 -0.1714 -0.8073
51892SOL    HW161639   4.642   0.132   5.061 -1.0283  1.1300 -0.9494
51892SOL    HW261640   4.612  -0.015   5.075  4.0360 -0.3239 -2.9148
51893SOL     OW61641   5.090   8.329   3.348  0.0863 -0.1519  0.2577
51893SOL    HW161642   5.069   8.414   3.386 -1.6739  0.7423 -2.3688
51893SOL    HW261643   5.171   8.344   3.299 -0.0521 -0.0618  0.0542
51894SOL     OW61644  11.699   4.189   0.796 -0.4495 -0.2672 -0.2551
51894SOL    HW161645  11.639   4.261   0.777 -1.4627 -0.6150  1.3589
51894SOL    HW261646  11.654   4.111   0.762 -1.8111 -0.7566  2.3691
51895SOL     OW61647   2.175  11.266   3.246 -0.5469 -0.1416  0.1225
51895SOL    HW161648   2.210  11.180   3.224 -1.6271 -0.2434 -1.3267
51895SOL    HW261649   2.212  11.324   3.180  1.4280  0.8638  1.9935
51896SOL     OW61650   1.535   1.740   3.620  0.3957 -0.0988 -0.1484
51896SOL    HW161651   1.447   1.715   3.592  0.5659 -1.0901  0.1637
51896SOL    HW261652   1.530   1.834   3.636 -0.6800 -0.1973  0.1291
51897SOL     OW61653   0.324  11.630   7.016 -0.4317  0.2556  0.5139
51897SOL    HW161654   0.384  11.618   6.943 -0.2080 -0.5624  0.8284
51897SOL    HW261655   0.242  11.658   6.975 -1.1482 -2.7691 -0.3339
51898SOL     OW61656   6.767   3.062   7.273 -0.7525 -0.1769 -0.4230
51898SOL    HW161657   6.709   2.992   7.242 -0.4455 -1.1578  1.0930
51898SOL    HW261658   6.719   3.102   7.345  0.7819 -1.7080  1.5773
51899SOL     OW61659   2.434   4.034   5.376  0.0868 -0.5100 -0.0312
51899SOL    HW161660   2.516   4.057   5.420  0.4656  0.7118 -1.3129
51899SOL    HW261661   2.459   4.021   5.285 -1.3140  0.9802 -0.6696
51900SOL     OW61662   3.257  11.225   3.317 -0.4814 -0.4548 -0.1872
51900SOL    HW161663   3.307  11.306   3.324 -0.4714 -0.3832 -0.9811
51900SOL    HW261664   3.171  11.246   3.353 -0.2869 -0.2620  0.1594
51901SOL     OW61665   6.350   5.039   8.841  0.3639  0.1058  0.1777
51901SOL    HW161666   6.310   5.107   8.787 -0.3247  0.7021  1.3992
51901SOL    HW261667   6.282   5.016   8.904 -0.1224 -3.0423 -1.2852
51902SOL     OW61668  11.856   3.000  12.109  0.9586 -0.5273  0.2840
51902SOL    HW161669  11.815   2.929  12.159  2.4147 -0.7348  1.2534
51902SOL    HW261670  11.783   3.047  12.070 -0.0478 -2.6452 -0.5192
51903SOL     OW61671   5.403   4.505   4.899 -0.1990 -0.0698 -0.3613
51903SOL    HW161672   5.428   4.486   4.989  0.3490 -0.5496 -0.6119
51903SOL    HW261673   5.312   4.535   4.905  0.8835  3.5341  0.8034
51904SOL     OW61674   1.080  11.623   6.433 -0.4623 -0.1821 -0.0348
51904SOL    HW161675   1.107  11.602   6.344  0.5694  2.0828 -0.3319
51904SOL    HW261676   1.049  11.540   6.469 -0.4560 -1.2551 -2.3229
51905SOL     OW61677   2.253   8.121   6.120 -0.2568  0.1688 -0.3903
51905SOL    HW161678   2.315   8.107   6.048  1.7227 -1.5554  1.5004
51905SOL    HW261679   2.167   8.109   6.080  0.7429 -0.2510 -2.5736
51906SOL     OW61680  10.652   7.063   4.972  0.6609 -0.3476  0.0270
51906SOL    HW161681  10.629   6.970   4.971  2.2287 -0.7730 -1.1523
51906SOL    HW261682  10.610   7.099   4.894 -0.2353  0.0311  0.6714
51907SOL     OW61683  11.871   8.429   2.498  0.2112 -0.3542 -0.0005
51907SOL    HW161684  11.834   8.405   2.413  2.1071 -0.5763 -0.8277
51907SOL    HW261685  11.907   8.347   2.532 -1.3222 -0.4613  1.4918
51908SOL     OW61686   3.727   0.669   2.404 -0.0551  0.5157  0.1807
51908SOL    HW161687   3.802   0.727   2.416  1.9915 -1.4763 -1.8260
51908SOL    HW261688   3.751   0.588   2.450 -0.4970 -0.4710 -1.2298
51909SOL     OW61689   7.433   3.387   2.057 -0.2155 -0.5546  0.4755
51909SOL    HW161690   7.475   3.301   2.070  1.2411  0.1461  0.5713
51909SOL    HW261691   7.444   3.432   2.141 -1.8368 -0.5956  0.7464
51910SOL     OW61692   5.231  10.658   9.240 -0.3404  0.1154 -0.6398
51910SOL    HW161693   5.203  10.703   9.161  2.2145 -1.3554 -2.5245
51910SOL    HW261694   5.322  10.632   9.223  0.1046 -0.8767  2.5111
51911SOL     OW61695   9.493   2.631   5.127  0.1602  0.2111 -0.0501
51911SOL    HW161696   9.526   2.719   5.108 -0.8249  0.6848  0.3809
51911SOL    HW261697   9.398   2.637   5.115  0.1847 -1.1106 -1.2216
51912SOL     OW61698   1.050   3.195   0.934 -0.3855 -0.1963  0.4217
51912SOL    HW161699   1.087   3.194   0.845  0.5851 -0.8473  0.8143
51912SOL    HW261700   1.105   3.134   0.983 -0.3435  0.8344  1.6953
51913SOL     OW61701   7.681   4.731  10.647 -0.2398 -0.8956 -0.2259
51913SOL    HW161702   7.713   4.821  10.638 -0.8670 -0.5299  0.9702
51913SOL    HW261703   7.590   4.735  10.619 -0.7361 -0.7901  1.2912
51914SOL     OW61704   9.813   9.701   7.369 -0.4394  0.4265 -0.7620
51914SOL    HW161705   9.908   9.690   7.367 -0.4548  0.2484 -0.5599
51914SOL    HW261706   9.782   9.633   7.429 -0.6816  0.5740 -0.7168
51915SOL     OW61707  10.712   5.343   4.554 -0.2979  0.2638 -0.3254
51915SOL    HW161708  10.775   5.325   4.485 -0.8390 -1.6032 -0.3847
51915SOL    HW261709  10.764   5.380   4.625  0.6626 -0.1474 -0.7984
51916SOL     OW61710   4.378   5.377   8.033 -0.4188 -0.2071 -0.0451
51916SOL    HW161711   4.387   5.282   8.027 -1.8670 -0.2855 -2.3991
51916SOL    HW261712   4.283   5.392   8.026 -0.0868  1.4393 -1.6787
51917SOL     OW61713  11.932   5.956  11.079  0.0313 -0.0222 -0.4247
51917SOL    HW161714  11.955   5.913  11.162  1.0601  0.0178 -0.6733
51917SOL    HW261715  11.937   5.886  11.014  0.8195  0.2769 -0.6923
51918SOL     OW61716  11.318   3.567   1.054  0.0396  0.4723 -0.3971
51918SOL    HW161717  11.362   3.522   0.982 -0.0289 -0.8182  0.3326
51918SOL    HW261718  11.379   3.559   1.128 -0.2777  0.9792 -0.0776
51919SOL     OW61719  10.885   5.230   6.020  0.3757 -0.2547 -0.1043
51919SOL    HW161720  10.877   5.143   6.059  2.0948  0.4113  1.9236
51919SOL    HW261721  10.978   5.237   5.996  0.1652  0.8834 -0.6401
51920SOL     OW61722   6.090   2.460   4.154 -0.0031  0.4761  0.3452
51920SOL    HW161723   6.082   2.410   4.072 -0.9989 -1.8693  1.7583
51920SOL    HW261724   6.001   2.492   4.171  0.0056  0.2121  0.9176
51921SOL     OW61725   0.988   7.208  12.422 -0.5449  0.0019 -0.1068
51921SOL    HW161726   1.082   7.191  12.413 -0.0110  2.3967  0.0330
51921SOL    HW261727   0.950   7.124  12.444  1.9412 -0.5553  2.6597
51922SOL     OW61728  11.230   7.713   8.971 -0.0046  0.1916 -0.4846
51922SOL    HW161729  11.318   7.741   8.996  0.3404 -1.7287  0.6787
51922SOL    HW261730  11.244   7.655   8.896 -0.1762 -0.7369  0.1882
51923SOL     OW61731   3.524  10.614   0.890 -0.2798 -0.6685  0.2126
51923SOL    HW161732   3.567  10.534   0.862  1.7543  0.5527 -0.3388
51923SOL    HW261733   3.515  10.605   0.985  2.1764 -0.5769  0.5019
51924SOL     OW61734   2.617  11.918   7.133  0.1573 -0.2597 -0.0811
51924SOL    HW161735   2.569  11.929   7.214 -0.1103 -0.5736 -0.1907
51924SOL    HW261736   2.561  11.861   7.080  0.3606 -0.1153 -0.4551
51925SOL     OW61737   3.122   0.618  10.817 -0.6565 -0.1774  0.4919
51925SOL    HW161738   3.163   0.700  10.789 -0.1580 -0.0893  1.4207
51925SOL    HW261739   3.195   0.557  10.829 -0.7844 -0.0604  2.0387
51926SOL     OW61740   3.850   1.579   0.313  0.0329  0.0801 -0.4950
51926SOL    HW161741   3.922   1.518   0.294  0.6712  0.7741 -0.3753
51926SOL    HW261742   3.837   1.570   0.408  1.5206  1.5765 -0.1011
51927SOL     OW61743   1.035   3.954  10.859 -0.0651 -0.2300 -0.2939
51927SOL    HW161744   1.105   3.890  10.873  1.4508  1.4266  0.0918
51927SOL    HW261745   1.021   3.954  10.764  1.2623  0.1625 -0.5187
51928SOL     OW61746  12.185   0.478   4.623  1.0616  0.1588 -0.1638
51928SOL    HW161747  12.198   0.411   4.556 -0.5348  0.2362 -0.5882
51928SOL    HW261748  12.126   0.542   4.582 -3.1500 -1.6404  2.4142
51929SOL     OW61749   2.126   3.090  10.964 -0.2826  0.4378  0.6621
51929SOL    HW161750   2.192   3.064  11.028 -0.9215  0.0245  1.1782
51929SOL    HW261751   2.100   3.178  10.991 -0.3767  0.3585  0.8399
51930SOL     OW61752  10.831   1.736  12.304 -0.2799 -0.5213  0.0601
51930SOL    HW161753  10.783   1.769  12.227 -0.4782 -0.1333  0.3469
51930SOL    HW261754  10.912   1.700  12.268  0.3314  1.0351 -0.1920
51931SOL     OW61755   6.592  10.234   6.769 -0.3237 -0.4378  0.1206
51931SOL    HW161756   6.581  10.153   6.719 -1.1780  0.3963 -1.1109
51931SOL    HW261757   6.596  10.206   6.860  1.6250 -2.0451 -0.3834
51932SOL     OW61758   1.233   9.619   4.399  0.4044  0.1512  0.0954
51932SOL    HW161759   1.158   9.607   4.341  0.5977 -0.5185 -0.0163
51932SOL    HW261760   1.219   9.557   4.470  1.0732 -0.2983 -0.1517
51933SOL     OW61761   9.737   7.559   2.605  0.0303  0.0960  0.5459
51933SOL    HW161762   9.661   7.583   2.657 -2.3718 -2.2865 -1.5915
51933SOL    HW261763   9.764   7.474   2.640  1.0973  0.4341  0.5963
51934SOL     OW61764  11.532  10.527   1.770 -0.1771  0.3839 -0.3971
51934SOL    HW161765  11.614  10.556   1.809 -0.4004  0.9384 -0.3167
51934SOL    HW261766  11.466  10.587   1.807 -0.4650  0.6045 -1.2349
51935SOL     OW61767   5.886   8.310  11.764 -0.6550 -0.2098 -0.1192
51935SOL    HW161768   5.893   8.385  11.705  1.8825  0.0049  0.3494
51935SOL    HW261769   5.975   8.297  11.796 -1.7857 -0.7974  3.0840
51936SOL     OW61770   0.858   5.732   8.788 -0.3462 -0.2349  0.0103
51936SOL    HW161771   0.938   5.681   8.801 -0.4178 -0.0111  1.4924
51936SOL    HW261772   0.791   5.685   8.837 -0.9505  0.0050 -0.5753
51937SOL     OW61773   0.563   8.914   5.521 -0.2627 -0.1216  0.0551
51937SOL    HW161774   0.598   8.914   5.610 -0.4560  0.7426  0.1331
51937SOL    HW261775   0.641   8.915   5.465 -0.1442 -0.3109  0.2155
51938SOL     OW61776   6.024   3.213  10.972 -0.2908 -0.2719 -0.5077
51938SOL    HW161777   6.045   3.129  10.930  0.8727  1.0656 -2.7929
51938SOL    HW261778   6.065   3.208  11.058  0.8808 -1.5745 -1.0987
51939SOL     OW61779   0.522   5.549   8.336  0.6802  0.5192 -0.3404
51939SOL    HW161780   0.598   5.532   8.393  0.9605  0.4576 -0.7253
51939SOL    HW261781   0.457   5.588   8.394  0.3919 -0.9274  0.3639
51940SOL     OW61782   1.867   0.551   5.585 -0.3158 -0.0887  0.2944
51940SOL    HW161783   1.805   0.499   5.636  1.0402 -1.5164  0.5665
51940SOL    HW261784   1.949   0.548   5.635  1.8950 -3.7519 -2.9272
51941SOL     OW61785   0.911   7.360   7.389  0.1987 -0.5628 -0.1663
51941SOL    HW161786   0.823   7.331   7.363  0.2210 -0.9267  0.1520
51941SOL    HW261787   0.941   7.293   7.450  1.3484 -1.3069 -1.4922
51942SOL     OW61788  11.750   9.353   9.260 -0.1768  0.2882 -0.1050
51942SOL    HW161789  11.779   9.442   9.239 -1.3626  0.1393 -2.8190
51942SOL    HW261790  11.655   9.356   9.246 -0.1129 -1.6166 -1.2834
51943SOL     OW61791  12.474   9.363   9.867  0.2936  0.2773 -0.3551
51943SOL    HW161792  12.477   9.293   9.801  2.0082  0.1105 -0.1484
51943SOL    HW261793  12.383   9.365   9.895  0.2765 -2.2655  0.0186
51944SOL     OW61794   0.423   6.097  11.584 -0.0030 -0.6305 -0.7556
51944SOL    HW161795   0.468   6.030  11.534 -0.4787  0.2795 -2.4708
51944SOL    HW261796   0.488   6.165  11.598 -0.2772 -0.1980 -1.5148
51945SOL     OW61797   1.811   7.920   2.462 -0.3331  0.3739  0.1375
51945SOL    HW161798   1.772   7.992   2.412  1.8910  1.5999  0.0206
51945SOL    HW261799   1.757   7.914   2.541 -2.8800 -0.4556 -1.5443
51946SOL     OW61800   3.083  12.152   4.033  0.3039 -0.1547  0.0099
51946SOL    HW161801   3.128  12.093   3.973 -1.9583  0.3433 -2.3204
51946SOL    HW261802   3.113  12.239   4.008 -0.5726  0.0521 -0.3377
51947SOL     OW61803   3.723   8.874   3.321 -0.3024 -0.1097  0.0806
51947SOL    HW161804   3.679   8.884   3.236 -1.3773 -0.8436  0.5356
51947SOL    HW261805   3.707   8.784   3.346 -1.0407  0.4294  1.6363
51948SOL     OW61806  11.637  11.854   8.455  0.0662  0.4014 -0.0718
51948SOL    HW161807  11.552  11.899   8.453 -1.6424 -2.5366 -2.1310
51948SOL    HW261808  11.626  11.786   8.522  1.0856  0.4698  0.1719
51949SOL     OW61809   2.698   1.743   6.248 -0.1804  0.2344  0.2819
51949SOL    HW161810   2.781   1.709   6.282  0.3686 -0.0507 -1.2650
51949SOL    HW261811   2.643   1.666   6.238  0.6537 -0.1319 -2.0963
51950SOL     OW61812   4.449   9.917   3.195  0.7342 -0.0535 -0.8379
51950SOL    HW161813   4.381   9.954   3.139 -0.0381  0.6964  0.5400
51950SOL    HW261814   4.508   9.991   3.213  0.3076  0.0422  0.2820
51951SOL     OW61815  12.041   2.578   0.476 -0.0367  0.2796 -0.6827
51951SOL    HW161816  11.984   2.516   0.521 -1.0309  1.7061  0.0925
51951SOL    HW261817  12.011   2.664   0.504  0.7093  1.1698 -2.4299
51952SOL     OW61818   3.802  12.002   3.781  0.0730 -0.3571  0.2369
51952SOL    HW161819   3.833  12.050   3.704 -0.5269  0.5686  0.5526
51952SOL    HW261820   3.870  12.019   3.847 -0.2222  0.2319  0.4016
51953SOL     OW61821  11.853   9.690   7.769 -0.4878  0.0370  0.0496
51953SOL    HW161822  11.807   9.727   7.694 -0.9450 -1.0133 -0.2051
51953SOL    HW261823  11.919   9.632   7.731  0.8434  1.2419  0.4189
51954SOL     OW61824   0.040   4.271   4.892  0.4847 -0.3005  0.5037
51954SOL    HW161825  -0.031   4.262   4.955  0.0965 -0.3945  0.0520
51954SOL    HW261826   0.044   4.365   4.873 -1.0301 -0.5392 -1.1975
51955SOL     OW61827   4.759   2.467   3.869 -0.1111 -0.0418  0.2796
51955SOL    HW161828   4.787   2.556   3.849  0.3271  0.0511  1.2003
51955SOL    HW261829   4.674   2.477   3.912 -0.0177 -0.0561  0.4697
51956SOL     OW61830   8.028  12.173   3.279  0.0261  0.8014 -0.2154
51956SOL    HW161831   8.109  12.218   3.305  0.4400  0.8147 -1.4463
51956SOL    HW261832   8.030  12.091   3.328  0.2464  1.2692  0.5758
51957SOL     OW61833   8.500   5.711   1.834 -0.2016 -0.3002  0.1926
51957SOL    HW161834   8.462   5.632   1.796 -1.9718 -0.0242  1.2958
51957SOL    HW261835   8.458   5.783   1.787  0.1443  0.0183  0.3580
51958SOL     OW61836   1.645  10.472  11.785 -0.2509  0.4195  0.0942
51958SOL    HW161837   1.727  10.507  11.820  0.3712 -1.6910  0.9294
51958SOL    HW261838   1.578  10.535  11.813  0.7577  0.8482  1.6786
51959SOL     OW61839   6.891   2.980   7.664 -0.0861 -0.1252  0.0647
51959SOL    HW161840   6.845   2.908   7.621  0.4824  0.2230 -1.1635
51959SOL    HW261841   6.920   3.037   7.593  4.9272 -1.8295  0.3871
51960SOL     OW61842   3.941   6.822   2.097 -0.0179  0.5045  0.4468
51960SOL    HW161843   3.993   6.845   2.020  0.0372 -0.6339  0.1359
51960SOL    HW261844   3.946   6.900   2.152 -0.5377  1.5671 -0.9360
51961SOL     OW61845   5.154  10.815   7.084  0.1376 -0.2742  0.0839
51961SOL    HW161846   5.135  10.812   7.178 -1.1957  1.1505 -0.1125
51961SOL    HW261847   5.079  10.860   7.045  1.2093  0.2105 -1.5184
51962SOL     OW61848   1.815  10.822  12.114 -0.1614  1.2016  0.2143
51962SOL    HW161849   1.741  10.798  12.170  0.6154  0.0503  0.7724
51962SOL    HW261850   1.892  10.792  12.161  0.5225  0.0354 -1.5269
51963SOL     OW61851   8.988   5.577  11.195 -0.1576 -0.8810  0.1417
51963SOL    HW161852   8.977   5.506  11.258 -2.3145 -1.2431 -0.5548
51963SOL    HW261853   9.017   5.535  11.115  0.4756 -0.6971  0.2667
51964SOL     OW61854   5.146   1.766   4.817  0.3197 -0.3230 -0.2008
51964SOL    HW161855   5.228   1.747   4.771  0.6506 -0.8571  0.6013
51964SOL    HW261856   5.081   1.711   4.774  0.5065 -0.3723 -0.4236
51965SOL     OW61857   3.684   5.518   3.560  0.5563 -0.1964 -0.1585
51965SOL    HW161858   3.643   5.431   3.552  1.0996 -0.4402 -0.3571
51965SOL    HW261859   3.701   5.528   3.653  1.1150 -0.6010 -0.2114
51966SOL     OW61860   7.303   3.466   0.764 -0.5359 -0.5550 -0.4296
51966SOL    HW161861   7.345   3.401   0.707 -0.2415 -0.8353  0.0977
51966SOL    HW261862   7.237   3.508   0.709 -0.8632 -1.4422 -0.7309
51967SOL     OW61863  12.453   2.088   3.714  0.2213 -0.2022 -0.6216
51967SOL    HW161864  12.484   2.053   3.798 -0.0851 -4.2586 -1.9690
51967SOL    HW261865  12.362   2.112   3.730  0.7136  1.0107  0.6081
51968SOL     OW61866   4.761   0.489   7.707 -0.1285 -0.0645  0.1728
51968SOL    HW161867   4.742   0.501   7.614 -0.4727 -0.1595  0.2295
51968SOL    HW261868   4.821   0.414   7.711  0.2446  0.2215 -0.0067
51969SOL     OW61869   0.782   5.082   1.212 -0.2866  0.4632  0.1277
51969SOL    HW161870   0.807   5.144   1.281 -0.7081 -1.6965  2.3359
51969SOL    HW261871   0.860   5.075   1.158  0.4516  1.3969  1.0155
51970SOL     OW61872   8.957   1.365   5.816 -0.1824  0.0985 -0.3720
51970SOL    HW161873   8.993   1.278   5.828 -0.8999 -0.2363 -0.5650
51970SOL    HW261874   9.033   1.422   5.804  0.2478 -0.6887 -1.4752
51971SOL     OW61875  10.249   9.690   3.650 -0.0902  0.0503 -0.5774
51971SOL    HW161876  10.232   9.669   3.742 -0.9306 -0.0177 -0.7473
51971SOL    HW261877  10.246   9.786   3.647 -0.0255  0.0546 -0.5370
51972SOL     OW61878  10.024   5.403   9.193 -0.0219  0.2271 -0.2490
51972SOL    HW161879   9.951   5.390   9.131 -0.2956  0.3893  0.0355
51972SOL    HW261880  10.074   5.476   9.156  1.3013 -1.2984 -1.6560
51973SOL     OW61881   6.416   9.316   4.552  0.6533  0.4811 -0.4862
51973SOL    HW161882   6.445   9.332   4.462  1.8727 -0.5849 -0.3146
51973SOL    HW261883   6.443   9.226   4.570 -3.1282 -0.8038 -0.3962
51974SOL     OW61884  11.152   3.406   2.208  0.1937 -0.4068 -0.1016
51974SOL    HW161885  11.235   3.363   2.185  1.2111  0.4175  1.7955
51974SOL    HW261886  11.172   3.499   2.204 -0.4338 -0.2083  1.0824
51975SOL     OW61887   0.752   8.987   7.953 -0.0566  0.0594 -0.2531
51975SOL    HW161888   0.712   8.900   7.952 -1.8765  0.7987  1.3550
51975SOL    HW261889   0.696   9.040   7.895 -0.3892  0.6740  0.6014
51976SOL     OW61890   6.808  11.896   1.559 -0.1251  0.2996 -0.4375
51976SOL    HW161891   6.784  11.989   1.563  0.1934  0.3383  0.9624
51976SOL    HW261892   6.745  11.853   1.617  1.7420  0.1172  1.5867
51977SOL     OW61893   1.685   2.695  11.422 -0.5314 -0.2508 -0.1580
51977SOL    HW161894   1.692   2.678  11.516 -0.4405  0.4458 -0.0340
51977SOL    HW261895   1.605   2.747  11.413  0.0237  0.5878 -0.3383
51978SOL     OW61896   0.598  10.382   6.193 -0.4047  0.4735 -0.4964
51978SOL    HW161897   0.530  10.448   6.184 -1.1304  0.1084  1.6009
51978SOL    HW261898   0.567  10.325   6.264  1.9734  0.1783  0.4083
51979SOL     OW61899   2.335   2.643   6.945 -0.3752  0.1454  0.1956
51979SOL    HW161900   2.429   2.627   6.937  0.0662  0.8991  2.9719
51979SOL    HW261901   2.327   2.738   6.950 -0.9090  0.0428  2.7774
51980SOL     OW61902  11.212   3.067   2.532  0.2673 -0.0087 -0.4995
51980SOL    HW161903  11.163   3.028   2.459 -0.4085 -1.5151  0.7011
51980SOL    HW261904  11.200   3.006   2.604 -0.2624  2.1023  1.3140
51981SOL     OW61905  10.378   2.059  11.142  0.4969 -0.9777  0.0121
51981SOL    HW161906  10.420   2.094  11.064  0.3687  0.1795  0.4462
51981SOL    HW261907  10.449   2.044  11.204  0.3917  0.3195  0.4923
51982SOL     OW61908   1.152   9.735  12.146  0.5380  0.0571 -0.3238
51982SOL    HW161909   1.062   9.762  12.161  1.1816  1.5957  1.1807
51982SOL    HW261910   1.153   9.704  12.056 -1.4561  0.1344 -0.4167
51983SOL     OW61911   2.496  12.088   5.493  0.2987 -0.2211  0.5097
51983SOL    HW161912   2.564  12.143   5.531  0.6994 -0.7644  0.5914
51983SOL    HW261913   2.458  12.041   5.567 -1.1998  1.1694  0.6724
51984SOL     OW61914  10.610  12.445   5.433  0.2098  0.4314  0.2973
51984SOL    HW161915  10.569  12.367   5.470  1.7166 -0.0294  1.1171
51984SOL    HW261916  10.616  12.506   5.507  0.0907  0.8742 -0.0551
51985SOL     OW61917  12.208   0.450   6.719 -0.4133  0.5220  0.3487
51985SOL    HW161918  12.203   0.460   6.814  1.2373 -3.9752  1.1516
51985SOL    HW261919  12.301   0.464   6.698 -0.8721  2.1441 -0.7991
51986SOL     OW61920   1.098  10.625   1.068  0.1930  0.2721 -0.0291
51986SOL    HW161921   1.096  10.717   1.044 -3.6917  0.2865 -0.3497
51986SOL    HW261922   1.063  10.623   1.158 -1.2728 -0.9141 -0.5721
51987SOL     OW61923   1.143   2.888   4.534  0.1814  0.1608 -0.1641
51987SOL    HW161924   1.058   2.846   4.551 -0.2508  1.4602  1.0739
51987SOL    HW261925   1.205   2.816   4.531 -0.4148 -0.5784  2.5925
51988SOL     OW61926   7.819  10.892   8.636 -0.3901 -0.3169  0.1119
51988SOL    HW161927   7.744  10.845   8.598  1.2766 -1.2958 -2.1686
51988SOL    HW261928   7.885  10.825   8.650  0.2760  0.6041  1.6927
51989SOL     OW61929  10.070   1.883   5.338 -0.0941 -0.6987  0.8020
51989SOL    HW161930  10.153   1.842   5.314 -0.3200 -1.1430  0.7782
51989SOL    HW261931  10.024   1.894   5.255 -0.2132 -0.7929  0.8553
51990SOL     OW61932   4.577  10.869  10.404  0.6328  0.1286  0.1208
51990SOL    HW161933   4.512  10.935  10.430  1.9951  1.2442  0.8318
51990SOL    HW261934   4.568  10.800  10.470 -1.1023 -0.6658 -0.8738
51991SOL     OW61935   5.206   1.982   1.146 -0.0602  0.2562 -0.0003
51991SOL    HW161936   5.216   2.048   1.215 -2.7352 -0.1806  0.8971
51991SOL    HW261937   5.146   2.022   1.083 -2.4088 -1.5495  0.9830
51992SOL     OW61938   6.315   9.483  11.680  0.6426 -0.4418 -0.1540
51992SOL    HW161939   6.378   9.530  11.625 -0.1934  1.1367  0.1995
51992SOL    HW261940   6.370   9.426  11.735  1.6957  0.1283 -0.5846
51993SOL     OW61941   1.533   4.821   3.861 -0.3579  0.4696 -0.4071
51993SOL    HW161942   1.571   4.907   3.848  1.2716 -0.2749 -0.8804
51993SOL    HW261943   1.565   4.769   3.787  1.1333 -1.3022  1.3426
51994SOL     OW61944   8.535   4.183   0.109  0.2227  0.7966 -0.0988
51994SOL    HW161945   8.567   4.156   0.023  0.1926  2.4610 -0.6828
51994SOL    HW261946   8.534   4.103   0.161  1.0453 -0.1001 -1.3949
51995SOL     OW61947   5.751   5.926   3.555  0.5178  0.2117 -0.2602
51995SOL    HW161948   5.760   5.943   3.649 -0.8886 -0.7282  0.0719
51995SOL    HW261949   5.688   5.991   3.525 -1.0814 -1.1414  0.0225
51996SOL     OW61950   1.309   1.417   9.107  0.1455  0.0259  0.0482
51996SOL    HW161951   1.224   1.376   9.090  0.7524 -1.1324 -0.3253
51996SOL    HW261952   1.365   1.385   9.037  1.2076 -0.2241  0.9907
51997SOL     OW61953  12.273   2.325   7.897 -0.0756  0.0213 -0.2998
51997SOL    HW161954  12.297   2.291   7.984  0.8220  1.8662  0.2233
51997SOL    HW261955  12.349   2.305   7.843 -0.4271 -0.6753 -0.5457
51998SOL     OW61956   3.486   6.078   2.615 -0.4207  0.2089  0.1026
51998SOL    HW161957   3.558   6.139   2.601 -0.7883  0.5524 -0.2983
51998SOL    HW261958   3.473   6.077   2.710 -0.5512  0.9187  0.0983
51999SOL     OW61959   4.062   6.325  11.686 -0.6587 -0.4884  0.6959
51999SOL    HW161960   4.118   6.284  11.620  0.2991  2.3929 -0.4375
51999SOL    HW261961   3.983   6.349  11.638  0.5907  2.8653  0.0657
52000SOL     OW61962   2.582   6.402   3.962  0.0776 -0.2283  0.0473
52000SOL    HW161963   2.655   6.368   4.014 -0.1068  1.2262  1.3258
52000SOL    HW261964   2.509   6.409   4.025 -0.2979  1.0876 -0.5127
52001SOL     OW61965  11.478   5.608   6.881 -0.3658 -0.1251  0.7884
52001SOL    HW161966  11.427   5.651   6.949  0.8290 -0.0854  1.7017
52001SOL    HW261967  11.516   5.680   6.830 -2.7427 -0.1227 -1.1777
52002SOL     OW61968   6.307   2.642   0.752 -0.0552  0.4627  0.1817
52002SOL    HW161969   6.281   2.550   0.756 -1.4213  0.8557  0.9599
52002SOL    HW261970   6.402   2.641   0.759 -0.1976 -0.7055  5.1188
52003SOL     OW61971   5.911   8.515  11.604 -0.3520  0.2872  0.5001
52003SOL    HW161972   5.995   8.561  11.607 -0.7029  0.8940  1.5309
52003SOL    HW261973   5.895   8.500  11.510  0.8142  0.3064  0.2810
52004SOL     OW61974  10.172   2.412   4.908  0.4223  0.9051 -0.3737
52004SOL    HW161975  10.262   2.395   4.880  0.5230  1.1976 -0.2327
52004SOL    HW261976  10.181   2.472   4.982  0.1110  0.9208 -0.3461
52005SOL     OW61977  11.994   1.530   8.096  0.1238  0.0938 -0.0491
52005SOL    HW161978  12.055   1.589   8.052  1.9291  1.1524  3.4597
52005SOL    HW261979  11.915   1.582   8.110 -0.2564 -0.0790 -1.4286
52006SOL     OW61980   2.021   2.108  10.619 -0.0784 -0.3405 -0.2829
52006SOL    HW161981   1.973   2.155  10.687 -0.7281 -1.1111 -0.1938
52006SOL    HW261982   2.106   2.088  10.659  0.3133  0.9487 -0.4114
52007SOL     OW61983   1.145   7.454   8.119  0.3663  0.2499  0.0987
52007SOL    HW161984   1.118   7.463   8.211  2.0905  0.5518  0.6047
52007SOL    HW261985   1.062   7.446   8.071 -0.5545 -1.2265  1.7917
52008SOL     OW61986  11.533  11.757   0.730  0.6590  0.3765 -0.2568
52008SOL    HW161987  11.499  11.667   0.730 -0.0386  0.6333 -0.9772
52008SOL    HW261988  11.596  11.758   0.802  0.2127 -0.5193  0.1652
52009SOL     OW61989   7.758   1.979   5.371  0.2511 -0.4820  0.0425
52009SOL    HW161990   7.839   1.985   5.422  0.6102  0.9090 -0.6354
52009SOL    HW261991   7.786   1.970   5.280 -0.3537 -0.6162 -0.1371
52010SOL     OW61992   4.268   4.309   2.115 -0.4234 -0.1165 -0.8558
52010SOL    HW161993   4.245   4.392   2.156 -0.8230  0.2807 -1.8460
52010SOL    HW261994   4.198   4.249   2.139 -0.1712 -0.1512 -0.1978
52011SOL     OW61995   0.002  11.644   1.683  0.0623 -0.1300  0.0957
52011SOL    HW161996   0.062  11.682   1.748  2.3515 -3.6863  0.3423
52011SOL    HW261997  -0.085  11.671   1.713  1.2733  2.1203  1.9704
52012SOL     OW61998   0.254   4.607   8.813  0.2295 -0.6856 -0.1751
52012SOL    HW161999   0.322   4.640   8.754  0.3043 -2.6106 -1.2288
52012SOL    HW262000   0.215   4.533   8.766 -1.4340 -0.7042  1.1454
52013SOL     OW62001  11.216   9.480  10.993  0.4666 -0.1318  0.2751
52013SOL    HW162002  11.304   9.490  11.029  0.9029 -3.5905  0.5191
52013SOL    HW262003  11.170   9.428  11.058 -0.8934 -0.6873 -1.0785
52014SOL     OW62004   2.452   2.654  11.393 -0.5495 -0.5732 -0.3287
52014SOL    HW162005   2.438   2.560  11.381 -0.5740 -0.3595 -2.2003
52014SOL    HW262006   2.379   2.682  11.448 -1.2853 -1.4163 -0.8500
52015SOL     OW62007   1.980   0.168   9.941  0.6873  0.8354 -0.5520
52015SOL    HW162008   1.958   0.096  10.001 -0.4024  1.3140 -0.3459
52015SOL    HW262009   1.950   0.138   9.855  0.0580  1.1033 -0.4339
52016SOL     OW62010   1.053   9.271  11.659 -0.4007  0.0996 -0.0481
52016SOL    HW162011   1.004   9.333  11.713 -0.7168  0.1093 -0.3419
52016SOL    HW262012   1.078   9.202  11.719 -0.6231  0.1828  0.1425
52017SOL     OW62013   2.940   9.893  11.548 -0.2961  0.4478  0.4077
52017SOL    HW162014   2.916   9.986  11.544 -0.3682  0.4302  0.4245
52017SOL    HW262015   2.857   9.847  11.564 -0.4658  0.2770 -0.8227
52018SOL     OW62016   2.318   4.156  12.343 -0.7761  0.1614 -0.4267
52018SOL    HW162017   2.291   4.213  12.415  2.8321  3.0098 -1.0364
52018SOL    HW262018   2.359   4.081  12.386 -3.0539 -0.6769  0.3939
52019SOL     OW62019   7.644   0.544   6.609  0.7513  0.7493 -0.7156
52019SOL    HW162020   7.697   0.492   6.669 -0.9155 -0.5774 -0.3023
52019SOL    HW262021   7.593   0.479   6.560 -2.0801  1.9770  0.4216
52020SOL     OW62022   9.258   0.043   5.398  0.2950 -0.2382 -0.2778
52020SOL    HW162023   9.232  -0.043   5.431  0.1579 -0.2044 -0.2952
52020SOL    HW262024   9.227   0.104   5.464  0.6346 -0.2229 -0.1350
52021SOL     OW62025   0.083   4.062   7.378 -0.2486 -0.0645  0.2358
52021SOL    HW162026   0.050   4.045   7.290  0.8800  1.6368 -0.5690
52021SOL    HW262027   0.100   3.975   7.415 -0.7389 -0.8004 -1.2230
52022SOL     OW62028   1.625   5.364   5.880 -0.6568 -0.6036 -0.3384
52022SOL    HW162029   1.669   5.295   5.930  0.2865  0.9225  1.0724
52022SOL    HW262030   1.674   5.369   5.798 -0.3009 -1.1517 -0.1676
52023SOL     OW62031   9.260  12.432   6.643 -0.4747  0.6125 -0.2202
52023SOL    HW162032   9.318  12.494   6.687  1.1378 -2.0473  1.7077
52023SOL    HW262033   9.306  12.410   6.562 -0.7519  1.4572 -0.6119
52024SOL     OW62034   1.840  11.165  11.121 -0.4646  0.2188  0.2386
52024SOL    HW162035   1.788  11.152  11.042 -2.4762 -0.2816  1.5926
52024SOL    HW262036   1.849  11.078  11.159 -1.1755  0.6908  1.5473
52025SOL     OW62037  10.327   7.745   5.956 -0.3611 -0.8850 -0.1231
52025SOL    HW162038  10.272   7.737   5.878 -0.7687  0.6470 -0.0263
52025SOL    HW262039  10.270   7.785   6.022 -0.0065 -2.1077  0.9560
52026SOL     OW62040   0.505   6.111   2.338  0.1482 -0.5683  0.0273
52026SOL    HW162041   0.596   6.129   2.314  0.5062  0.7942  2.1238
52026SOL    HW262042   0.494   6.018   2.322  1.4335 -0.4820 -1.6788
52027SOL     OW62043   6.926   2.220   0.780 -0.3723  0.3079 -0.3650
52027SOL    HW162044   6.900   2.140   0.735 -0.5889 -0.6254  1.3123
52027SOL    HW262045   6.864   2.228   0.852  0.5163  1.1865  0.3349
52028SOL     OW62046   3.336   9.507   3.522  0.9895 -0.6517  0.6962
52028SOL    HW162047   3.279   9.583   3.534  1.4522 -0.1004 -0.5482
52028SOL    HW262048   3.280   9.442   3.480  1.2241 -0.1530 -0.4143
52029SOL     OW62049  12.035   2.647   2.760  0.6337 -0.1521 -0.1421
52029SOL    HW162050  12.128   2.627   2.753  1.0740  1.2861  1.1666
52029SOL    HW262051  12.013   2.688   2.676  1.1348 -0.5893 -0.4989
52030SOL     OW62052   1.554   3.574  11.795 -0.1851  0.0137 -0.3617
52030SOL    HW162053   1.521   3.618  11.873  0.0079 -0.1186 -0.2067
52030SOL    HW262054   1.482   3.578  11.733 -0.3796  0.0084 -0.1341
52031SOL     OW62055   2.058   6.962   6.867 -0.7556  0.2962 -0.0856
52031SOL    HW162056   2.128   6.911   6.909 -1.0296 -0.0851 -0.0846
52031SOL    HW262057   2.082   7.053   6.883 -0.4166  0.1653  0.1755
52032SOL     OW62058   0.686   4.812   2.551  0.6784 -0.7486  0.0466
52032SOL    HW162059   0.643   4.888   2.591  0.7576 -2.3751  3.6714
52032SOL    HW262060   0.769   4.846   2.517 -0.4436  1.2004 -0.9263
52033SOL     OW62061   2.242   4.314   0.353  0.1386 -0.8729  0.7337
52033SOL    HW162062   2.266   4.227   0.385 -2.8639 -1.5036  1.6034
52033SOL    HW262063   2.151   4.305   0.325  1.1715  0.7414 -4.1351
52034SOL     OW62064   0.103   4.988   0.691 -0.1970  1.0979 -0.2719
52034SOL    HW162065   0.124   5.072   0.732  0.4797  0.4538  0.7423
52034SOL    HW262066   0.116   4.923   0.760 -2.5646  0.3122 -0.4632
52035SOL     OW62067  11.529   7.959   8.053  0.1161 -0.1912 -0.0329
52035SOL    HW162068  11.479   8.040   8.062  1.3374  0.5084  0.8638
52035SOL    HW262069  11.466   7.890   8.072 -0.7672  0.5970 -0.0167
52036SOL     OW62070   4.242   3.224   0.506 -0.3482  0.2791 -0.3883
52036SOL    HW162071   4.330   3.190   0.521 -1.9348 -3.2014  2.5887
52036SOL    HW262072   4.227   3.287   0.577 -0.8981 -0.7235  0.4132
52037SOL     OW62073   5.901   0.100   9.210 -0.2797  0.4070 -0.0567
52037SOL    HW162074   5.816   0.104   9.253 -0.6141  0.9174 -0.7367
52037SOL    HW262075   5.889   0.149   9.129  0.3433 -0.4981 -0.7156
52038SOL     OW62076   7.794   6.822  10.350 -0.3353 -0.4808 -0.4333
52038SOL    HW162077   7.732   6.826  10.278  0.3506 -1.2991 -1.0924
52038SOL    HW262078   7.751   6.767  10.415 -0.1427 -1.4032 -1.0659
52039SOL     OW62079  10.638   0.796  10.918 -0.1602  0.3092  0.4224
52039SOL    HW162080  10.581   0.808  10.994 -0.3553 -1.1286  0.5328
52039SOL    HW262081  10.579   0.794  10.843  0.0432  1.8580  0.1825
52040SOL     OW62082   1.791  11.803   7.858  0.3066 -0.2586 -0.1900
52040SOL    HW162083   1.716  11.746   7.880 -0.6791  0.3752 -1.7214
52040SOL    HW262084   1.846  11.749   7.801  0.8309 -0.5866  0.6079
52041SOL     OW62085   5.326   3.645   1.578  0.2668 -0.3620 -0.2545
52041SOL    HW162086   5.243   3.662   1.622  0.0393  0.8344 -1.0783
52041SOL    HW262087   5.301   3.612   1.491  0.6619 -0.4968 -0.3222
52042SOL     OW62088   4.486   0.760  10.769  0.6583  0.4934  0.4746
52042SOL    HW162089   4.473   0.754  10.863  1.8730  0.9604  0.6905
52042SOL    HW262090   4.398   0.757  10.732  0.2075 -0.4120  1.5765
52043SOL     OW62091   8.998  12.236  12.118 -0.1389  0.1484  0.4119
52043SOL    HW162092   9.086  12.263  12.142  0.6175 -0.2531 -1.7344
52043SOL    HW262093   8.947  12.317  12.121  0.6559  0.6667  0.1377
52044SOL     OW62094  11.242   8.953   7.505 -0.0243  0.2083 -0.4540
52044SOL    HW162095  11.220   8.863   7.533  3.4502 -0.6231 -0.0227
52044SOL    HW262096  11.291   8.990   7.578 -0.9381  2.3405 -0.8482
52045SOL     OW62097   7.925   6.008   1.106  0.7129 -0.4123 -0.5691
52045SOL    HW162098   7.857   6.073   1.088  0.6023 -0.3067  0.1988
52045SOL    HW262099   7.880   5.924   1.102  0.8630 -0.4650 -1.6011
52046SOL     OW62100   6.283   7.050   8.830  0.4105  0.7054 -0.3723
52046SOL    HW162101   6.366   7.004   8.823  0.8213  1.1964  0.8906
52046SOL    HW262102   6.285   7.116   8.761  0.6302  0.0716 -0.9770
52047SOL     OW62103   5.880  10.553  11.839  0.0814 -0.6549  0.1271
52047SOL    HW162104   5.928  10.555  11.922 -0.6508 -1.1025  0.5765
52047SOL    HW262105   5.793  10.587  11.861  0.4311  0.9591 -0.8505
52048SOL     OW62106   2.786   5.627   9.399  0.7309 -0.1882  0.4187
52048SOL    HW162107   2.737   5.610   9.479  0.3013 -0.9695  0.0096
52048SOL    HW262108   2.874   5.649   9.428  0.2273  0.9339  1.1587
52049SOL     OW62109   8.611   9.359   0.944  0.1588 -0.1010 -0.4803
52049SOL    HW162110   8.566   9.292   0.996  0.4149 -0.3433 -0.5720
52049SOL    HW262111   8.663   9.408   1.009 -2.2847  1.9462  0.1120
52050SOL     OW62112   9.649   0.727   8.644  0.2404  0.4099  0.2162
52050SOL    HW162113   9.614   0.638   8.646  1.3065 -0.1264 -1.8611
52050SOL    HW262114   9.738   0.719   8.677  0.1670  0.7939  0.5109
52051SOL     OW62115   1.004   8.268   6.753 -0.2701  0.2785 -0.4037
52051SOL    HW162116   1.032   8.293   6.665  1.0832 -0.7070 -0.2795
52051SOL    HW262117   1.033   8.177   6.763 -1.0447  0.1346  0.8039
52052SOL     OW62118   7.695   6.761   9.337  0.4328  0.0864 -0.3725
52052SOL    HW162119   7.683   6.845   9.381  0.4057 -0.3719  0.5003
52052SOL    HW262120   7.606   6.735   9.311  0.4032  0.1524 -0.3385
52053SOL     OW62121   2.026   4.715  11.662 -0.1271  0.3748 -0.1605
52053SOL    HW162122   2.112   4.675  11.678 -0.6608 -1.4033 -1.3829
52053SOL    HW262123   2.046   4.798  11.618  0.9773  0.0723 -0.2712
52054SOL     OW62124   9.045   1.316   2.466  0.7364 -0.1150 -0.1934
52054SOL    HW162125   8.976   1.257   2.435  2.5749 -1.5335 -1.8202
52054SOL    HW262126   9.029   1.398   2.419  0.1263 -0.3826 -0.4727
52055SOL     OW62127   9.593   7.188   6.309  0.1452 -0.2070 -0.1109
52055SOL    HW162128   9.675   7.143   6.288 -0.6645 -2.3889  1.0556
52055SOL    HW262129   9.578   7.167   6.402 -1.4585  0.5999 -0.1587
52056SOL     OW62130  10.585  11.922   2.893 -0.1708 -0.4055  0.0864
52056SOL    HW162131  10.558  11.926   2.985  1.6924 -2.0828  0.7703
52056SOL    HW262132  10.503  11.921   2.844 -1.2101 -0.0091  1.7428
52057SOL     OW62133   8.803   1.940  11.314 -0.9988 -0.6662  0.1829
52057SOL    HW162134   8.737   1.986  11.262  0.6229  2.0013  0.2506
52057SOL    HW262135   8.874   1.922  11.252 -0.2315 -0.0199  0.8523
52058SOL     OW62136  10.944   1.288   7.557 -0.2326 -0.5219 -0.1820
52058SOL    HW162137  10.939   1.311   7.650 -0.4336  2.0193 -0.7660
52058SOL    HW262138  10.854   1.298   7.525  0.2388  0.9675 -1.1283
52059SOL     OW62139   0.636   3.938   9.749 -0.1608 -0.0887 -0.4195
52059SOL    HW162140   0.560   3.928   9.807 -0.8309 -1.1334 -1.4300
52059SOL    HW262141   0.707   3.892   9.793 -0.8151 -1.3760 -0.6648
52060SOL     OW62142   5.689   1.660   8.867  0.1565 -0.5165 -0.2878
52060SOL    HW162143   5.773   1.705   8.867 -0.0932  0.0423 -2.2054
52060SOL    HW262144   5.698   1.591   8.933  1.3743  0.8258  0.9947
52061SOL     OW62145   5.999  12.490   7.199 -0.2406  0.0653  0.0588
52061SOL    HW162146   5.949  12.525   7.273  1.9133 -0.0872  1.6720
52061SOL    HW262147   5.935  12.440   7.148 -1.6306 -0.5632  2.2989
52062SOL     OW62148   0.236   0.565  12.246 -0.6331 -0.0484  0.2152
52062SOL    HW162149   0.265   0.656  12.247 -2.4394  0.5790 -0.4612
52062SOL    HW262150   0.245   0.536  12.337  1.7819  0.1459  0.1052
52063SOL     OW62151   0.726   0.174   4.491 -0.3261 -0.4660  0.1319
52063SOL    HW162152   0.636   0.145   4.507 -0.9123  0.7787 -0.7557
52063SOL    HW262153   0.755   0.121   4.417 -0.0033 -1.4794  0.9647
52064SOL     OW62154   1.460   1.772   6.401  0.0286 -0.0885  0.1415
52064SOL    HW162155   1.533   1.825   6.371 -0.5784  0.5497 -0.2501
52064SOL    HW262156   1.383   1.827   6.387 -0.6035 -1.0191 -0.1304
52065SOL     OW62157   3.501   5.211   6.419 -0.6639 -0.1793 -0.5720
52065SOL    HW162158   3.543   5.218   6.333  1.6387 -1.0030  0.3813
52065SOL    HW262159   3.507   5.118   6.441  0.2572  0.2342  1.1090
52066SOL     OW62160   8.886   0.929   7.357  0.2682 -0.5023  0.6853
52066SOL    HW162161   8.904   0.892   7.271  0.2027  0.9492  0.0087
52066SOL    HW262162   8.891   0.855   7.418  0.4396 -1.5229 -0.5469
52067SOL     OW62163   0.467   5.052   9.983  0.0561 -0.8067 -0.3823
52067SOL    HW162164   0.534   5.013  10.040  0.1979 -0.8625 -0.5866
52067SOL    HW262165   0.493   5.026   9.895 -0.9548 -1.9461 -0.3685
52068SOL     OW62166  11.371   3.245   0.034 -0.5919  0.3633 -0.1376
52068SOL    HW162167  11.409   3.324   0.073 -0.0515  0.4797 -0.8714
52068SOL    HW262168  11.292   3.275  -0.010 -0.1214  0.5968 -0.8404
52069SOL     OW62169   1.153   9.344   5.841  0.0152 -0.8411  0.4173
52069SOL    HW162170   1.197   9.266   5.808  0.0981 -0.6824  0.1443
52069SOL    HW262171   1.120   9.387   5.762  2.7453  1.1047  0.2091
52070SOL     OW62172  11.538  10.230   5.169 -0.2422 -0.1905 -0.0424
52070SOL    HW162173  11.594  10.303   5.141  1.1321 -0.6376  1.4179
52070SOL    HW262174  11.522  10.181   5.088  0.8580  0.3725 -0.6358
52071SOL     OW62175  12.161   2.119  11.785  0.1298  0.0283 -0.1948
52071SOL    HW162176  12.152   2.047  11.847 -0.2287 -0.0897 -0.3808
52071SOL    HW262177  12.255   2.124  11.767  0.0824 -0.8604 -0.7293
52072SOL     OW62178   6.260   9.226  12.153  0.6102 -0.2721  0.5754
52072SOL    HW162179   6.300   9.302  12.111  1.1635 -0.6918  0.3257
52072SOL    HW262180   6.222   9.260  12.234  0.3051  0.3812  0.1654
52073SOL     OW62181   5.147  12.166   2.506 -0.5293 -0.3817 -0.0348
52073SOL    HW162182   5.123  12.255   2.532 -0.9568 -0.4645 -0.1429
52073SOL    HW262183   5.067  12.130   2.467 -0.1412 -0.5533 -0.6763
52074SOL     OW62184   9.920   4.996   4.885  0.1691 -0.4961 -0.0644
52074SOL    HW162185   9.912   4.952   4.800 -0.1357 -1.4348  0.4365
52074SOL    HW262186  10.009   5.031   4.885  0.6030 -1.5577 -0.2837
52075SOL     OW62187  10.586   1.857   6.717  0.4510 -0.2623 -0.7073
52075SOL    HW162188  10.540   1.773   6.719 -1.4586  0.6968 -1.7231
52075SOL    HW262189  10.672   1.837   6.678  0.6810 -1.9795  0.5719
52076SOL     OW62190   9.819   1.715  12.247  0.1137  0.1802 -0.1226
52076SOL    HW162191   9.884   1.747  12.185 -1.1685 -1.2741 -2.3945
52076SOL    HW262192   9.868   1.659  12.307  1.2172  0.5410 -0.6656
52077SOL     OW62193   2.133  12.457   0.896 -0.4062 -0.1271  0.3670
52077SOL    HW162194   2.041  12.482   0.904 -0.2585  0.0010  2.0892
52077SOL    HW262195   2.134  12.362   0.912 -0.4102 -0.4289 -1.3069
52078SOL     OW62196   9.705   1.655   8.436 -0.7009  0.3217  0.0621
52078SOL    HW162197   9.752   1.609   8.506 -1.4559 -0.1441  0.2716
52078SOL    HW262198   9.613   1.632   8.449 -0.8342 -0.0210 -1.2488
52079SOL     OW62199   3.943   5.054   0.011 -0.1100  0.2790 -1.0284
52079SOL    HW162200   3.974   5.137  -0.024  1.2301  0.0887 -0.3578
52079SOL    HW262201   3.929   4.999  -0.066  0.8769  0.5068 -1.3888
52080SOL     OW62202   9.151   4.897   7.437 -0.1466  0.1784 -0.4181
52080SOL    HW162203   9.090   4.876   7.366 -0.1340  0.2209 -0.4415
52080SOL    HW262204   9.184   4.812   7.466 -0.7478  0.1113  0.0677
52081SOL     OW62205   2.438   0.887  12.447  0.2659  0.2346  0.1788
52081SOL    HW162206   2.519   0.909  12.492 -0.8162  1.1474  1.7958
52081SOL    HW262207   2.438   0.791  12.443  0.0124  0.0238  3.0364
52082SOL     OW62208   0.102   8.295   9.398 -0.1528  0.0539 -0.1549
52082SOL    HW162209   0.015   8.317   9.364 -0.7462 -1.2611  0.4324
52082SOL    HW262210   0.131   8.375   9.441 -0.4950  0.9237 -1.4895
52083SOL     OW62211   0.415   7.497  11.291 -0.0587  0.7168 -0.0096
52083SOL    HW162212   0.389   7.494  11.383 -0.9374  1.7430 -0.2041
52083SOL    HW262213   0.506   7.466  11.291 -0.0265  0.7575  1.2102
52084SOL     OW62214   4.577  11.639  12.360 -0.4404 -0.2750 -0.5189
52084SOL    HW162215   4.490  11.641  12.399 -0.6101 -0.8208 -0.8473
52084SOL    HW262216   4.586  11.549  12.328  0.2127 -0.2007 -0.5556
52085SOL     OW62217  11.531  11.234   9.642 -0.6195 -0.1661  0.4202
52085SOL    HW162218  11.466  11.177   9.683 -0.8788 -0.1073  0.0938
52085SOL    HW262219  11.583  11.174   9.588 -0.6378 -0.1536  0.3898
52086SOL     OW62220   0.228   9.945  11.137 -0.6953  0.0925  0.5120
52086SOL    HW162221   0.232  10.006  11.210  1.6858 -0.4048  0.8662
52086SOL    HW262222   0.276   9.868  11.166 -0.0913 -0.3169 -1.3782
52087SOL     OW62223   8.017   2.912   1.393  0.6417  0.8245  0.5352
52087SOL    HW162224   8.090   2.855   1.419  0.9622  0.9897  0.0097
52087SOL    HW262225   7.952   2.852   1.358  1.0840  0.7907 -0.2595
52088SOL     OW62226   7.953   7.469   5.425  0.2358  0.4766  0.1379
52088SOL    HW162227   7.868   7.428   5.413 -0.3665  1.5634  0.5996
52088SOL    HW262228   7.964   7.526   5.349 -0.0824  1.4046  0.7798
52089SOL     OW62229  11.225  10.842   5.797  0.2714 -0.3975 -0.0995
52089SOL    HW162230  11.225  10.869   5.705 -0.1259  1.1511  0.3263
52089SOL    HW262231  11.305  10.789   5.807  0.6659 -0.0241 -1.1803
52090SOL     OW62232   9.514   9.410   6.982 -0.4097 -0.1025  0.2294
52090SOL    HW162233   9.500   9.330   6.932  0.8139 -0.2897  0.1604
52090SOL    HW262234   9.570   9.384   7.055  1.6696  1.0075 -0.8653
52091SOL     OW62235   2.701   0.978   5.969 -0.5249 -0.2553 -0.5579
52091SOL    HW162236   2.702   0.883   5.959 -0.8862 -0.3379  0.1800
52091SOL    HW262237   2.715   0.993   6.062 -3.1984  0.3105 -0.1530
52092SOL     OW62238   1.629   2.288   4.121 -0.7608 -0.1125  1.0722
52092SOL    HW162239   1.535   2.270   4.116 -0.6170 -0.5099 -0.6320
52092SOL    HW262240   1.642   2.318   4.211 -2.4648 -0.3189  1.4295
52093SOL     OW62241   5.509   8.909  10.052  0.2410  0.4722  0.0117
52093SOL    HW162242   5.479   8.851  10.122 -0.9916  0.5009 -0.4617
52093SOL    HW262243   5.598   8.880  10.033  0.8866  0.9694  2.1010
52094SOL     OW62244  11.230   3.591   1.633  0.1950  0.0334 -0.1874
52094SOL    HW162245  11.249   3.547   1.549  1.4038  0.6999 -0.2909
52094SOL    HW262246  11.313   3.633   1.656 -0.7733  1.7860  0.1982
52095SOL     OW62247   5.022  11.314   2.875 -0.1539 -0.3981 -0.0021
52095SOL    HW162248   4.931  11.343   2.870  0.4584  1.4820 -1.2063
52095SOL    HW262249   5.055  11.322   2.785  2.1463  2.3618  0.9203
52096SOL     OW62250   8.718   8.681   4.197 -0.3387 -0.8908 -0.3430
52096SOL    HW162251   8.677   8.661   4.281 -2.5059  0.2571 -1.0358
52096SOL    HW262252   8.812   8.677   4.214 -0.7120 -1.7776  1.8373
52097SOL     OW62253   3.481   9.635   3.068 -0.0100 -0.2118  0.1196
52097SOL    HW162254   3.513   9.567   3.127  0.4269 -0.0202  0.1088
52097SOL    HW262255   3.456   9.589   2.988 -0.2446 -0.4246  0.3117
52098SOL     OW62256   6.569   3.835   8.667  0.6064  0.0754  0.2167
52098SOL    HW162257   6.498   3.782   8.628  0.9850 -0.4697  0.2612
52098SOL    HW262258   6.530   3.922   8.676  0.3775  0.1310 -1.0430
52099SOL     OW62259  12.035   4.882   4.261  0.2329  0.3432  0.1835
52099SOL    HW162260  12.047   4.976   4.272  0.9494  0.3187 -0.2784
52099SOL    HW262261  12.115   4.853   4.216 -0.3926 -0.3360 -0.5207
52100SOL     OW62262   2.000   0.347   3.072  0.0645 -0.2153 -0.3983
52100SOL    HW162263   1.982   0.262   3.032  0.8556 -0.4187 -0.3307
52100SOL    HW262264   1.914   0.378   3.100 -0.1962 -1.1750 -0.0663
52101SOL     OW62265   8.044   1.401   1.552 -0.1459 -0.5269  0.2686
52101SOL    HW162266   7.995   1.329   1.593 -1.4784  0.2881  0.1651
52101SOL    HW262267   7.983   1.474   1.552  1.5050  0.9504  1.3336
52102SOL     OW62268   2.909  12.015   6.519  0.2533 -0.3748  0.0596
52102SOL    HW162269   2.948  12.028   6.605  0.6912 -2.1279  0.1705
52102SOL    HW262270   2.823  11.976   6.536  0.6180 -1.3637 -0.2833
52103SOL     OW62271   8.094   5.086  11.386 -0.6842 -0.7864  0.7824
52103SOL    HW162272   8.102   5.027  11.310 -2.9051  0.7234 -0.7208
52103SOL    HW262273   8.014   5.058  11.429 -2.9843  2.2541 -1.1615
52104SOL     OW62274   5.546   1.023   7.216  0.4880  0.2530 -0.1116
52104SOL    HW162275   5.614   0.983   7.162 -0.0433 -0.8072 -0.0182
52104SOL    HW262276   5.555   0.980   7.302 -0.1058  0.3216 -0.0138
52105SOL     OW62277   1.505   8.334   0.658 -0.1211  0.0349 -0.4219
52105SOL    HW162278   1.582   8.303   0.705 -0.0727 -0.0041 -0.5286
52105SOL    HW262279   1.531   8.336   0.566 -0.5781 -0.9622 -0.5794
52106SOL     OW62280   8.056   2.982   1.006  0.4449 -0.4658  0.5195
52106SOL    HW162281   7.961   2.989   1.012  0.3345  0.8970 -1.7475
52106SOL    HW262282   8.074   2.888   1.016 -1.1362 -0.7548  0.8542
52107SOL     OW62283   0.690   8.153   0.557  0.1187  0.1657 -0.9686
52107SOL    HW162284   0.759   8.093   0.587  0.7185  1.1584 -0.3088
52107SOL    HW262285   0.659   8.116   0.474  1.0001 -0.6348 -0.9474
52108SOL     OW62286   0.677   7.161   2.646 -0.1342 -0.3318 -0.2772
52108SOL    HW162287   0.688   7.066   2.635 -0.6914 -0.3548 -0.6918
52108SOL    HW262288   0.625   7.188   2.570  0.6994  0.4395 -0.5914
52109SOL     OW62289   9.948   2.780  11.147  0.8822  0.5530  0.3221
52109SOL    HW162290   9.963   2.792  11.054 -1.0463 -2.2013 -0.4640
52109SOL    HW262291  10.014   2.716  11.174 -1.8943 -3.0692 -0.6368
52110SOL     OW62292  10.564   3.178  10.072 -0.4271  0.1342  0.2548
52110SOL    HW162293  10.628   3.192  10.142 -1.5891  1.9111  1.0089
52110SOL    HW262294  10.615   3.188   9.992  0.8782 -1.7065  0.7800
52111SOL     OW62295   5.562  12.162   7.397  0.2063  0.0505  0.4987
52111SOL    HW162296   5.553  12.253   7.423 -2.4889 -0.2031  0.7555
52111SOL    HW262297   5.638  12.161   7.338  1.0930  2.1760  1.5048
52112SOL     OW62298  12.144   2.226   7.064 -0.1422  0.1818  0.2545
52112SOL    HW162299  12.176   2.136   7.078  0.2838  0.3485  0.3705
52112SOL    HW262300  12.072   2.216   7.002 -1.0788 -0.4086  1.4004
52113SOL     OW62301   0.376   9.476   0.156 -0.8522 -0.3565 -0.3355
52113SOL    HW162302   0.419   9.472   0.242 -1.4815  2.2274  0.1874
52113SOL    HW262303   0.389   9.389   0.119  1.3068 -0.9043  1.4696
52114SOL     OW62304   8.359   0.570   5.355  0.1232 -0.6656  0.1516
52114SOL    HW162305   8.404   0.566   5.440  0.1193 -0.7758  0.1485
52114SOL    HW262306   8.309   0.488   5.351 -1.4838  0.2113  0.9491
52115SOL     OW62307   4.330   2.957   1.821 -0.8897 -0.8221 -0.3340
52115SOL    HW162308   4.345   2.863   1.832 -1.1590 -0.6751  1.8870
52115SOL    HW262309   4.234   2.966   1.824 -0.8241 -0.3274  1.6561
52116SOL     OW62310  10.440   6.043  11.458  0.3774 -0.7641  0.2785
52116SOL    HW162311  10.368   6.031  11.397 -0.8359 -0.4386  1.5841
52116SOL    HW262312  10.518   6.021  11.408 -0.4204  0.7664 -1.7808
52117SOL     OW62313   2.916   2.371  11.016  0.2659  0.2326 -1.2914
52117SOL    HW162314   2.923   2.362  10.921  0.0142 -1.5803 -1.1690
52117SOL    HW262315   3.005   2.355  11.048  0.1368 -0.2266 -1.1597
52118SOL     OW62316   4.924   5.227   5.069 -0.2747  0.7231 -0.7819
52118SOL    HW162317   4.999   5.167   5.072 -1.2967 -0.5783 -0.4402
52118SOL    HW262318   4.963   5.313   5.057  1.3413  0.2156  0.5065
52119SOL     OW62319  10.689  10.661  10.406 -0.3358  0.0941 -0.5215
52119SOL    HW162320  10.768  10.651  10.459  0.5281  1.0902 -1.5643
52119SOL    HW262321  10.680  10.578  10.359 -0.1110 -0.1418 -0.1508
52120SOL     OW62322   9.795   1.373   1.935  0.5666  0.1922 -0.0564
52120SOL    HW162323   9.883   1.384   1.900  0.8902 -2.0415 -0.0796
52120SOL    HW262324   9.805   1.382   2.029  0.5708  1.1762 -0.1373
52121SOL     OW62325   3.182   7.722   9.015  0.4941 -0.1244 -0.2152
52121SOL    HW162326   3.097   7.698   8.979 -0.2615  2.2194 -0.1434
52121SOL    HW262327   3.241   7.651   8.988 -1.0679 -0.8718 -1.8394
52122SOL     OW62328   7.341  11.010   2.458 -0.0974  0.2088  0.0864
52122SOL    HW162329   7.378  11.096   2.478  0.7028  0.3740 -1.8326
52122SOL    HW262330   7.366  10.995   2.366  0.0993 -2.2233  0.4826
52123SOL     OW62331  11.206   4.533   5.167  1.0283 -0.1827  0.1680
52123SOL    HW162332  11.274   4.584   5.123  0.8683 -1.1842 -1.3031
52123SOL    HW262333  11.182   4.465   5.104  0.1976 -1.1825  1.5063
52124SOL     OW62334   5.965  10.316   0.128 -0.2581  0.0478 -0.1642
52124SOL    HW162335   6.048  10.288   0.089  0.3935  1.1279  0.3776
52124SOL    HW262336   5.983  10.316   0.222 -1.5672 -1.8041  0.1217
52125SOL     OW62337   6.593   7.493   6.224 -0.3061 -0.0143 -0.1515
52125SOL    HW162338   6.631   7.519   6.308  1.2243 -1.0731 -0.4815
52125SOL    HW262339   6.555   7.407   6.240  0.8395 -0.6638 -0.7254
52126SOL     OW62340   0.698   7.079   3.124  0.3958 -0.3565  0.0611
52126SOL    HW162341   0.637   7.046   3.059 -1.1703 -0.1571  1.3804
52126SOL    HW262342   0.776   7.024   3.113 -0.5373 -1.5873 -0.6764
52127SOL     OW62343   2.613   4.945   2.042 -0.2517 -0.1811  0.4241
52127SOL    HW162344   2.521   4.974   2.043  0.0297  1.0166 -1.7214
52127SOL    HW262345   2.639   4.951   1.950  3.2072  3.7255  1.3449
52128SOL     OW62346  12.357  12.270   7.025 -0.6123  0.6015 -0.2052
52128SOL    HW162347  12.399  12.278   7.110 -1.2740  0.9839  0.0916
52128SOL    HW262348  12.414  12.210   6.976  0.0695  0.8175  0.3061
52129SOL     OW62349   5.491   9.390   6.867 -1.0881  0.8716 -0.3475
52129SOL    HW162350   5.433   9.405   6.793 -2.4550  1.7645  0.8489
52129SOL    HW262351   5.483   9.469   6.920 -0.4766  0.0805  0.9645
52130SOL     OW62352   0.620   1.113   4.110 -0.4207  0.3011 -0.4889
52130SOL    HW162353   0.589   1.192   4.155  1.4303  1.5889 -1.3308
52130SOL    HW262354   0.580   1.041   4.158 -2.8734  1.7343 -0.2143
52131SOL     OW62355   9.063   1.136   7.128  0.4484 -0.2315  0.0747
52131SOL    HW162356   9.013   1.058   7.102 -0.3682  0.3236 -0.0825
52131SOL    HW262357   9.015   1.171   7.203 -0.2546  1.0941 -0.9274
52132SOL     OW62358   9.153  10.393   7.019  0.0457 -0.3813 -0.0006
52132SOL    HW162359   9.246  10.384   7.040 -0.2259 -0.4920  1.2311
52132SOL    HW262360   9.147  10.474   6.969  0.7405 -0.1388  0.2994
52133SOL     OW62361   2.366   1.487   9.011  0.5034 -0.4506 -0.2420
52133SOL    HW162362   2.302   1.519   8.947  1.2071  0.2874 -0.5910
52133SOL    HW262363   2.387   1.398   8.982  0.5323 -0.2596 -0.8147
52134SOL     OW62364   9.303   3.561   3.624  0.3286  0.0798 -0.3062
52134SOL    HW162365   9.393   3.557   3.593  1.0460  1.8999  1.3352
52134SOL    HW262366   9.272   3.647   3.596 -0.6301 -0.2078 -0.1549
52135SOL     OW62367   5.886   8.299   4.339 -0.3017 -0.1352 -0.7242
52135SOL    HW162368   5.835   8.240   4.394  0.0065  1.4037  1.3318
52135SOL    HW262369   5.907   8.373   4.395  0.7328  1.1922 -2.7089
52136SOL     OW62370   6.042  11.890   7.313 -0.4582  0.0891  0.3953
52136SOL    HW162371   5.979  11.884   7.385 -1.2561 -0.4909 -0.3309
52136SOL    HW262372   5.992  11.930   7.242  0.1456  0.0804 -0.0348
52137SOL     OW62373   6.739   9.389  11.001 -0.6467  0.2880 -0.0223
52137SOL    HW162374   6.780   9.437  11.074 -2.1614 -0.1799  1.1953
52137SOL    HW262375   6.661   9.349  11.040 -0.6485 -1.3029 -1.5488
52138SOL     OW62376   8.065   2.331   5.435 -0.2265 -0.3274  0.0420
52138SOL    HW162377   8.117   2.356   5.512  1.2662  1.9278 -1.5609
52138SOL    HW262378   7.977   2.316   5.470  0.0999  1.8022  2.0595
52139SOL     OW62379   6.495  12.037   5.320  0.1074  0.0168 -0.8361
52139SOL    HW162380   6.497  11.985   5.240 -1.8070 -0.1750 -0.8140
52139SOL    HW262381   6.466  12.124   5.291 -0.0036  0.1134 -0.4369
52140SOL     OW62382   2.083   9.587   1.746  0.1904 -0.4290  0.3356
52140SOL    HW162383   2.121   9.531   1.814 -0.3294  0.1501  1.1133
52140SOL    HW262384   2.025   9.529   1.697 -0.2497 -0.6127  1.0607
52141SOL     OW62385   9.888   3.248   4.616  0.4784 -0.1420  0.0124
52141SOL    HW162386   9.931   3.320   4.570 -1.8184  0.7074 -0.9137
52141SOL    HW262387   9.881   3.178   4.552  0.1371 -0.1352  0.0410
52142SOL     OW62388   5.928   0.128   6.928 -0.5000  0.6631  0.0210
52142SOL    HW162389   5.903   0.037   6.946  1.2719  0.7329  3.7860
52142SOL    HW262390   5.852   0.180   6.957 -0.4468  0.4515  0.5598
52143SOL     OW62391  10.317   1.451   9.021  0.3563  0.1385  0.7803
52143SOL    HW162392  10.303   1.506   9.098 -2.5931 -1.0230  1.2382
52143SOL    HW262393  10.395   1.400   9.041  1.4964  2.1038  1.5494
52144SOL     OW62394   4.620   7.956   5.428  0.0548  0.1981  0.8398
52144SOL    HW162395   4.654   8.020   5.491  1.9075  1.6687 -1.4675
52144SOL    HW262396   4.682   7.884   5.430 -0.1208  0.0533  1.0215
52145SOL     OW62397  10.501   2.356  10.068 -0.1170  0.0162  0.0999
52145SOL    HW162398  10.497   2.447  10.040 -0.1211 -0.2332 -0.7301
52145SOL    HW262399  10.594   2.336  10.072 -0.0945  0.2582  0.9759
52146SOL     OW62400  12.003   9.675   0.662 -0.3832  0.2447 -0.0967
52146SOL    HW162401  11.955   9.696   0.581  0.2866  1.9262 -0.1106
52146SOL    HW262402  12.062   9.604   0.637  1.2610  2.0486 -1.7115
52147SOL     OW62403  11.872   4.259   8.407  0.2838 -0.5347  0.5714
52147SOL    HW162404  11.793   4.224   8.365  0.2005 -1.3572  1.3809
52147SOL    HW262405  11.890   4.199   8.479  2.6432 -1.4082 -0.6110
52148SOL     OW62406  10.005   8.456   5.266  0.2703 -1.0549 -0.2978
52148SOL    HW162407   9.974   8.449   5.357  1.1071 -0.0340  0.0846
52148SOL    HW262408   9.957   8.531   5.230 -0.6737 -1.9540 -0.9837
52149SOL     OW62409   4.383  11.395   5.332  0.0916  0.2019 -0.2322
52149SOL    HW162410   4.379  11.353   5.246 -1.2019 -1.0434  0.3954
52149SOL    HW262411   4.317  11.464   5.329  1.4503  1.5250 -0.8872
52150SOL     OW62412   1.566   3.102  10.568 -0.0045  0.3240  0.0921
52150SOL    HW162413   1.639   3.066  10.618  0.0529  0.2400 -0.0507
52150SOL    HW262414   1.528   3.026  10.524 -0.1206  0.3816  0.0943
52151SOL     OW62415   5.967   0.611   8.475 -0.1735 -0.2898 -0.2140
52151SOL    HW162416   5.896   0.674   8.486 -0.4833 -0.3862 -1.4946
52151SOL    HW262417   6.020   0.648   8.404  0.3965 -0.7978 -0.0541
52152SOL     OW62418   3.517   6.104   4.207  0.0957  0.0085  0.3474
52152SOL    HW162419   3.605   6.139   4.219 -0.4211  1.7282 -0.4927
52152SOL    HW262420   3.472   6.170   4.154 -1.2610 -1.5218 -0.5134
52153SOL     OW62421  12.080  12.130  10.099 -0.4475 -0.6096 -0.4777
52153SOL    HW162422  12.150  12.065  10.089 -0.9908 -1.2929  0.0274
52153SOL    HW262423  12.110  12.205  10.049  0.8443 -0.7223  0.0820
52154SOL     OW62424   6.876  12.198   3.311  0.2838  0.2732 -0.2563
52154SOL    HW162425   6.913  12.284   3.332 -0.6355  0.5720  0.1887
52154SOL    HW262426   6.908  12.140   3.380  0.2590  0.4387 -0.1047
52155SOL     OW62427  10.456   5.268   7.397  0.0627 -0.0640  0.2678
52155SOL    HW162428  10.530   5.315   7.358  0.6853 -0.0409  1.4449
52155SOL    HW262429  10.386   5.277   7.333  0.6725  1.0532 -0.2706
52156SOL     OW62430   5.081   5.361  11.747  0.1172  0.1736 -0.0363
52156SOL    HW162431   5.134   5.417  11.691 -0.3747  1.8497  1.0630
52156SOL    HW262432   5.143   5.321  11.808  0.2266  1.8915  1.0574
52157SOL     OW62433   5.111   4.286  10.487  0.1722 -0.2699  0.1771
52157SOL    HW162434   5.175   4.238  10.540  1.1970  0.7104 -0.1273
52157SOL    HW262435   5.112   4.240  10.402  0.7178 -0.0786  0.0733
52158SOL     OW62436   1.073  11.605  10.946 -0.2947  0.3146 -0.1260
52158SOL    HW162437   0.998  11.660  10.923 -1.1800 -0.2742  1.2629
52158SOL    HW262438   1.149  11.658  10.921 -1.1456  0.8472 -1.7096
52159SOL     OW62439   9.450   0.985   2.193 -0.0426 -0.6947  0.1262
52159SOL    HW162440   9.407   0.978   2.108  2.2030 -0.0374 -1.1321
52159SOL    HW262441   9.390   1.037   2.246 -1.6793 -1.4611 -0.8945
52160SOL     OW62442   8.318   0.433   8.828 -1.2807 -0.5512  0.2551
52160SOL    HW162443   8.225   0.416   8.813 -1.0749 -1.2796 -0.2824
52160SOL    HW262444   8.361   0.398   8.750 -0.5697 -0.0490  0.4131
52161SOL     OW62445  10.084   7.607   5.842 -0.3974 -0.0695  0.3034
52161SOL    HW162446  10.108   7.516   5.827 -3.3370 -1.0252  0.8187
52161SOL    HW262447  10.027   7.630   5.769 -1.3459  0.6599  1.2334
52162SOL     OW62448   9.627   7.259   5.534  0.5194 -0.0498  0.4455
52162SOL    HW162449   9.547   7.207   5.545 -0.2949  0.5306 -1.9998
52162SOL    HW262450   9.689   7.199   5.492  1.0357 -0.1957  1.3904
52163SOL     OW62451   0.211   7.513   8.839 -0.0588 -0.3484 -0.2845
52163SOL    HW162452   0.224   7.463   8.920  0.3756 -2.6768 -1.7134
52163SOL    HW262453   0.297   7.549   8.820 -0.7522  2.8312  1.7828
52164SOL     OW62454   1.883  10.983   4.721 -0.5086 -0.9713  0.5174
52164SOL    HW162455   1.910  11.075   4.714 -0.4057 -1.0483 -0.2326
52164SOL    HW262456   1.962  10.936   4.748  0.2516 -1.2261 -1.8526
52165SOL     OW62457  12.490   3.994  10.404 -0.9467 -0.0873  0.4144
52165SOL    HW162458  12.454   3.987  10.315 -1.9961  1.3102  0.6863
52165SOL    HW262459  12.476   3.908  10.442 -2.8290 -0.0036  0.0318
52166SOL     OW62460  10.394   8.351   1.764 -0.1017 -0.4304  0.0243
52166SOL    HW162461  10.318   8.314   1.808  0.3940 -1.7874 -0.1857
52166SOL    HW262462  10.437   8.275   1.724  2.1275  0.0633  1.2986
52167SOL     OW62463   8.193   9.338   9.530 -0.8114  0.2890 -0.6453
52167SOL    HW162464   8.118   9.317   9.586 -0.1247 -1.2649 -0.2539
52167SOL    HW262465   8.249   9.393   9.586 -0.4268 -0.7347 -0.0025
52168SOL     OW62466  11.833  11.917   5.251  0.2881  0.1817  0.4476
52168SOL    HW162467  11.822  11.939   5.344  0.0676  0.3368  0.3877
52168SOL    HW262468  11.781  11.983   5.205 -0.7909 -0.7353  0.2819
52169SOL     OW62469   4.214   4.643   3.216 -0.0619 -0.0875  0.3759
52169SOL    HW162470   4.256   4.727   3.200  0.1577 -0.2931 -0.1305
52169SOL    HW262471   4.260   4.581   3.160 -0.1800 -0.5622  0.7893
52170SOL     OW62472   7.852   2.231   7.990  0.2782 -0.0734 -0.5725
52170SOL    HW162473   7.895   2.182   8.060 -0.5119 -0.7201 -0.5196
52170SOL    HW262474   7.887   2.320   7.997  0.2769 -0.1565  0.5712
52171SOL     OW62475   9.465   6.438   8.832 -0.3183  0.1271 -0.7127
52171SOL    HW162476   9.533   6.494   8.868 -0.2943 -0.6083  0.4560
52171SOL    HW262477   9.452   6.469   8.742 -0.4163  2.0904 -0.0667
52172SOL     OW62478   4.235   7.718   0.289 -0.7447 -0.1028  0.3273
52172SOL    HW162479   4.146   7.732   0.322 -0.1646  0.2301  1.8440
52172SOL    HW262480   4.232   7.632   0.248 -2.4012  0.9744 -2.0206
52173SOL     OW62481   4.092   0.766   8.500 -0.9237  0.1097  0.2208
52173SOL    HW162482   4.108   0.744   8.592  0.1497  2.6712  0.7235
52173SOL    HW262483   3.997   0.771   8.493 -0.9915  1.0023  1.5010
52174SOL     OW62484   0.222   8.738   3.651  0.0161 -0.1977 -0.0057
52174SOL    HW162485   0.263   8.689   3.722  0.3443 -0.2036 -0.1948
52174SOL    HW262486   0.251   8.693   3.571  0.8363  0.6713 -0.2180
52175SOL     OW62487  10.132   0.882   9.096  0.3432  0.4602 -0.2560
52175SOL    HW162488  10.207   0.913   9.146 -0.7323  3.7568 -0.4198
52175SOL    HW262489  10.171   0.827   9.027  2.3485  0.2402  0.9644
52176SOL     OW62490   4.064   6.213  12.197  0.2310  1.3655 -0.1897
52176SOL    HW162491   4.125   6.141  12.185 -2.8355 -1.3357 -1.0499
52176SOL    HW262492   4.057   6.223  12.292 -1.7136 -1.9862  0.1940
52177SOL     OW62493   8.438   8.967   0.021  0.5576  0.9432  0.6130
52177SOL    HW162494   8.462   8.875   0.036 -0.2270  0.8463  1.3571
52177SOL    HW262495   8.344   8.970   0.041  0.0401  1.4271 -1.6223
52178SOL     OW62496   6.909  10.927   3.995 -0.2887 -0.0055  0.4253
52178SOL    HW162497   6.990  10.976   3.979 -0.8032  0.6474 -0.2352
52178SOL    HW262498   6.901  10.868   3.920 -0.3185 -0.2200  0.5968
52179SOL     OW62499  12.442   3.255   4.255  0.0676  0.8251 -0.1960
52179SOL    HW162500  12.528   3.294   4.272  1.0611 -1.9337  1.8305
52179SOL    HW262501  12.380   3.316   4.295  1.1916  2.1036 -0.3274
52180SOL     OW62502   3.490  10.540   3.553 -0.2410  0.0998 -0.1327
52180SOL    HW162503   3.548  10.571   3.484 -0.8144  0.7507 -0.3229
52180SOL    HW262504   3.415  10.599   3.551 -1.4448 -1.3908 -0.6337
52181SOL     OW62505   9.757   8.501  11.603 -0.1202  0.0871  0.5195
52181SOL    HW162506   9.693   8.432  11.586 -0.3601  0.4793 -0.2536
52181SOL    HW262507   9.840   8.456  11.613 -0.2972 -0.3220  0.1541
52182SOL     OW62508   6.234   4.432  10.538  0.0805 -0.2364 -0.2327
52182SOL    HW162509   6.167   4.500  10.539 -0.1648 -0.4746  0.4781
52182SOL    HW262510   6.205   4.371  10.470 -1.9250 -1.7465  1.8086
52183SOL     OW62511  11.060   6.064   6.549  0.5374 -0.0482 -0.7392
52183SOL    HW162512  11.047   6.060   6.644  1.7179 -1.1178 -0.6018
52183SOL    HW262513  10.975   6.039   6.513  0.0807  0.3432  0.0346
52184SOL     OW62514   6.942   0.836   3.146 -0.1070 -0.1342 -0.0158
52184SOL    HW162515   7.000   0.894   3.195  0.0621  1.3158 -1.8380
52184SOL    HW262516   6.854   0.866   3.168 -0.1106 -0.7512  0.8606
52185SOL     OW62517   8.978   4.951   4.552  0.2366  0.0254  0.2734
52185SOL    HW162518   8.949   4.944   4.643  0.2076  1.0362  0.3515
52185SOL    HW262519   8.954   5.040   4.526  0.3310 -0.2206 -0.6936
52186SOL     OW62520   1.857  12.235   6.654 -0.4232 -0.1188 -0.1104
52186SOL    HW162521   1.936  12.277   6.618 -0.8780  0.4402 -0.4715
52186SOL    HW262522   1.822  12.184   6.580 -0.1043 -0.8172  0.2063
52187SOL     OW62523   4.807   8.726  11.912 -0.0917  0.1893 -0.3904
52187SOL    HW162524   4.849   8.811  11.900 -2.1333  1.2299 -0.7911
52187SOL    HW262525   4.846   8.671  11.844 -2.1306  2.2880 -3.5902
52188SOL     OW62526  10.446   2.034   6.588 -0.3311 -0.1282  0.4520
52188SOL    HW162527  10.499   2.055   6.511 -1.1236 -0.0800 -0.0931
52188SOL    HW262528  10.495   1.964   6.632  0.3721  0.1751  0.1776
52189SOL     OW62529   6.176   1.025   0.712  0.3284 -0.0464 -0.1329
52189SOL    HW162530   6.155   1.087   0.782 -0.1492  0.3763 -0.6412
52189SOL    HW262531   6.154   0.939   0.749 -0.1545  0.1929  0.1491
52190SOL     OW62532   5.263   8.462   5.272  0.1030 -0.5536 -0.4158
52190SOL    HW162533   5.262   8.368   5.253 -0.3820 -0.1956 -2.3269
52190SOL    HW262534   5.326   8.471   5.343  1.8945 -2.0806 -1.7151
52191SOL     OW62535   4.567   9.072   9.484 -0.4698  0.5928  0.0497
52191SOL    HW162536   4.532   9.114   9.406  0.1423 -0.1074 -0.6248
52191SOL    HW262537   4.491   9.059   9.541 -0.7851  1.8811 -0.0520
52192SOL     OW62538   8.162   3.233   5.345  0.0789  0.0364 -0.2204
52192SOL    HW162539   8.096   3.296   5.316  0.8263  1.1430  0.4395
52192SOL    HW262540   8.144   3.221   5.438 -0.4319 -1.2187 -0.4503
52193SOL     OW62541   3.193   9.929   4.296  0.1880  0.1842  0.7251
52193SOL    HW162542   3.262   9.864   4.309 -0.1845 -0.1599  1.0016
52193SOL    HW262543   3.203   9.989   4.370 -0.3930 -0.3945  1.2795
52194SOL     OW62544   3.463  10.579   0.130  0.0636  0.7294 -0.1840
52194SOL    HW162545   3.445  10.608   0.041 -0.8480  1.9625  0.3660
52194SOL    HW262546   3.494  10.657   0.175  1.0996 -0.0163  0.4340
52195SOL     OW62547  11.820   4.467   2.738  0.0236 -0.5786  0.2895
52195SOL    HW162548  11.912   4.495   2.734 -0.1019 -0.1434  0.4132
52195SOL    HW262549  11.806   4.420   2.656  0.4461 -0.9240  0.4102
52196SOL     OW62550   9.105   0.636   4.286 -0.4107 -0.2451  0.1369
52196SOL    HW162551   9.090   0.693   4.211  0.9196 -1.1639 -0.8795
52196SOL    HW262552   9.135   0.695   4.356 -0.2502  0.4486 -0.5085
52197SOL     OW62553   3.359  10.307   4.416  0.4716  0.4522  1.0663
52197SOL    HW162554   3.288  10.371   4.409  1.7836  1.9536  0.9295
52197SOL    HW262555   3.418  10.344   4.482  1.0339 -0.8610  1.3295
52198SOL     OW62556   0.617  10.583   9.297 -0.4117 -0.2863 -0.3712
52198SOL    HW162557   0.547  10.589   9.362 -0.9414 -1.1275 -0.8440
52198SOL    HW262558   0.697  10.575   9.349 -0.7288 -0.0420  0.1721
52199SOL     OW62559   4.916   9.213   9.265  0.0105  0.1171 -1.1299
52199SOL    HW162560   4.832   9.253   9.242 -0.3296 -1.1715 -2.2285
52199SOL    HW262561   4.981   9.266   9.220 -0.2657  0.6685 -0.8874
52200SOL     OW62562  10.612   9.276   0.738 -0.3246  0.1714  0.5291
52200SOL    HW162563  10.547   9.242   0.800 -0.2494  0.2667  0.6613
52200SOL    HW262564  10.574   9.358   0.707 -0.7314 -0.2649 -0.1584
52201SOL     OW62565   5.994   7.555   4.781 -0.0119 -0.1925  0.1490
52201SOL    HW162566   6.037   7.637   4.757  1.1554 -1.1239 -1.0983
52201SOL    HW262567   5.965   7.518   4.697 -1.3676 -0.6332  0.7785
52202SOL     OW62568   3.621   6.639  11.440 -0.2991 -0.0469  0.0293
52202SOL    HW162569   3.648   6.711  11.383  2.0703  0.1799  1.2836
52202SOL    HW262570   3.683   6.642  11.513 -4.2900  0.9223  3.7874
52203SOL     OW62571  11.741   4.873   4.639  0.0235 -0.3571  0.6639
52203SOL    HW162572  11.766   4.876   4.731  1.7217  1.2139  0.2129
52203SOL    HW262573  11.770   4.958   4.604  1.3226 -1.7010 -1.7573
52204SOL     OW62574   2.473   9.813   2.248  0.5186  0.2172  0.2263
52204SOL    HW162575   2.535   9.761   2.197 -0.4879  0.6293 -1.5115
52204SOL    HW262576   2.472   9.772   2.334  1.6010 -1.1036 -0.3544
52205SOL     OW62577   2.456  11.485   6.446  0.3412  0.1759  0.0234
52205SOL    HW162578   2.458  11.487   6.542  0.2381 -0.4055  0.0363
52205SOL    HW262579   2.432  11.396   6.424 -0.4187  0.5076 -0.5342
52206SOL     OW62580   9.064   0.332   5.347 -0.4092  0.6958  0.0204
52206SOL    HW162581   8.996   0.265   5.336 -1.5966  1.7184  0.7979
52206SOL    HW262582   9.125   0.315   5.276 -0.8104 -1.0335  0.0320
52207SOL     OW62583   5.141   0.650   4.076  0.2868  0.6732 -0.1309
52207SOL    HW162584   5.107   0.597   4.149 -0.7114  1.3837 -0.0569
52207SOL    HW262585   5.081   0.632   4.004  0.8994  0.4714 -0.6014
52208SOL     OW62586  11.992   0.592  10.535 -0.4800 -0.5014  0.2718
52208SOL    HW162587  11.922   0.606  10.598 -0.4516 -1.1050  0.4430
52208SOL    HW262588  12.054   0.663  10.552 -0.0201 -1.1716  1.5638
52209SOL     OW62589  10.590   6.652   9.977  0.5683 -0.1457  0.2345
52209SOL    HW162590  10.667   6.606  10.010  1.7844  2.0106  0.6238
52209SOL    HW262591  10.608   6.664   9.883  0.8015  0.4552  0.3465
52210SOL     OW62592   8.895   6.995   6.776 -0.1504  0.2205  0.0797
52210SOL    HW162593   8.851   6.932   6.718 -1.5533  0.9363  0.3288
52210SOL    HW262594   8.963   7.034   6.721 -0.8826  0.2591 -0.8261
52211SOL     OW62595   7.259  12.452   8.598  0.1723  0.2731 -0.2768
52211SOL    HW162596   7.266  12.529   8.541  0.7628  0.7731  0.4451
52211SOL    HW262597   7.264  12.377   8.538 -0.9899  0.7855 -1.0536
52212SOL     OW62598   8.047   2.479   8.334  0.0245 -0.1306 -0.0243
52212SOL    HW162599   8.105   2.450   8.264  0.7309 -0.6826  0.7725
52212SOL    HW262600   8.091   2.554   8.374  0.3477 -0.7249  0.7657
52213SOL     OW62601   2.092  12.348  11.080 -0.1629  0.3126 -0.1809
52213SOL    HW162602   2.161  12.329  11.017 -0.8510  2.5040 -1.7058
52213SOL    HW262603   2.013  12.312  11.041 -0.2801 -0.0649  0.3984
52214SOL     OW62604   5.718  11.515  10.324  0.1354 -0.1419  0.3692
52214SOL    HW162605   5.754  11.487  10.408  2.6518 -2.5651 -1.3557
52214SOL    HW262606   5.792  11.557  10.279 -1.1546  1.0827 -0.7101
52215SOL     OW62607   9.818   5.217   5.050  0.4291 -0.4131 -0.2128
52215SOL    HW162608   9.861   5.150   4.997  3.5352  1.8139 -0.8439
52215SOL    HW262609   9.835   5.191   5.140 -1.1372 -2.0148 -0.3428
52216SOL     OW62610   9.993   1.411  11.357  0.2754  0.3588  0.5503
52216SOL    HW162611  10.030   1.466  11.427  1.0351 -0.6164  0.9333
52216SOL    HW262612   9.909   1.382  11.392  0.2260  0.6293  0.6664
52217SOL     OW62613  10.169   8.681   7.870  0.7974  0.3233 -0.3456
52217SOL    HW162614  10.227   8.619   7.826  0.5094  0.2568 -0.6347
52217SOL    HW262615  10.184   8.667   7.963 -0.4305 -1.2987 -0.3529
52218SOL     OW62616   5.936  12.393   4.541 -0.0154 -0.3971  0.3497
52218SOL    HW162617   5.916  12.454   4.470  0.0518 -1.1363 -0.3197
52218SOL    HW262618   5.880  12.317   4.524 -1.0058 -0.0510  1.8648
52219SOL     OW62619   2.428   6.308   4.969 -0.2099 -0.5247  0.4241
52219SOL    HW162620   2.385   6.308   4.883  1.3708  1.8365 -0.4729
52219SOL    HW262621   2.439   6.216   4.991 -0.8617 -1.1963 -1.8061
52220SOL     OW62622   5.777  11.539   2.364 -0.5061 -0.6002  0.1050
52220SOL    HW162623   5.797  11.626   2.330 -3.4161  0.4150  0.6513
52220SOL    HW262624   5.862  11.499   2.382  0.9459  1.6548 -1.2752
52221SOL     OW62625   6.632  11.618  10.088  0.4077 -0.0818  0.3660
52221SOL    HW162626   6.605  11.566  10.013  0.1833 -1.2765  1.2350
52221SOL    HW262627   6.713  11.661  10.060  1.1196 -1.6469 -0.0966
52222SOL     OW62628  11.672   4.920   3.110  0.1489  0.5027  0.3783
52222SOL    HW162629  11.724   4.944   3.186  1.2308 -0.5576 -0.0006
52222SOL    HW262630  11.695   4.984   3.043  2.3994 -0.9934 -0.3701
52223SOL     OW62631  12.466   0.187  11.986 -0.4210  0.3076  0.0087
52223SOL    HW162632  12.490   0.201  12.077 -0.8503 -1.3320  0.4142
52223SOL    HW262633  12.542   0.143  11.947 -0.5453  0.2733 -0.2016
52224SOL     OW62634  11.975   7.682   3.209 -0.3229  0.6526  0.4468
52224SOL    HW162635  11.967   7.589   3.186 -0.1012 -0.2079  3.4770
52224SOL    HW262636  12.025   7.720   3.137  0.2360 -1.7328 -0.5131
52225SOL     OW62637   1.905   0.385  11.375 -0.2543 -0.3354 -0.6089
52225SOL    HW162638   1.880   0.297  11.402 -0.3296  0.2197  1.2928
52225SOL    HW262639   1.846   0.443  11.423  1.1209  0.8120 -0.2130
52226SOL     OW62640   7.673   4.263   4.666  0.1518 -0.7816  0.0733
52226SOL    HW162641   7.623   4.198   4.715  0.0654 -1.3332 -0.7301
52226SOL    HW262642   7.735   4.212   4.615 -0.8336 -0.3349 -1.6272
52227SOL     OW62643   8.039   3.103   4.932  0.2809 -0.3228 -0.2126
52227SOL    HW162644   7.951   3.126   4.961  0.4883 -0.0544  0.2082
52227SOL    HW262645   8.040   3.125   4.839  0.6893  2.1065  0.2943
52228SOL     OW62646   0.046   1.962   8.680 -0.1285  0.2136  0.5388
52228SOL    HW162647   0.026   1.869   8.685  1.8018 -0.1902  1.7777
52228SOL    HW262648   0.108   1.969   8.607 -1.0731  0.7260 -0.2419
52229SOL     OW62649   4.089   5.410   8.002 -0.0439  0.7188 -0.3921
52229SOL    HW162650   4.049   5.326   8.025  1.8323  0.2630  1.5823
52229SOL    HW262651   4.060   5.427   7.913  0.0697 -2.4036 -1.1412
52230SOL     OW62652   9.587   4.913   5.211 -0.4772 -0.0579 -0.0790
52230SOL    HW162653   9.678   4.899   5.183  0.0191  0.9024  0.9701
52230SOL    HW262654   9.549   4.825   5.213  0.6274 -0.5464  0.1093
52231SOL     OW62655   5.840   6.517  11.276  0.0308  0.4091 -0.4034
52231SOL    HW162656   5.759   6.534  11.324  0.5199  1.0960  0.1926
52231SOL    HW262657   5.811   6.499  11.187 -1.1733 -3.6959  0.5880
52232SOL     OW62658  11.121   9.312   0.206 -0.3019  0.8048  0.2040
52232SOL    HW162659  11.207   9.272   0.220 -0.6486  0.2790  0.8912
52232SOL    HW262660  11.064   9.269   0.270 -0.8030  2.0383  0.6156
52233SOL     OW62661  10.622   6.241   1.749 -0.3031 -0.0817  0.5211
52233SOL    HW162662  10.620   6.225   1.654 -0.5488 -1.8382  0.7816
52233SOL    HW262663  10.569   6.320   1.761 -0.2952  0.1525 -0.8047
52234SOL     OW62664  10.666   6.551   4.518 -0.2805  0.3834 -0.2145
52234SOL    HW162665  10.625   6.474   4.557  1.1682 -0.0281  0.5466
52234SOL    HW262666  10.706   6.519   4.437 -0.0808  0.4468 -0.1396
52235SOL     OW62667   4.050  12.409   2.491  0.3366 -0.3597 -0.6205
52235SOL    HW162668   4.017  12.375   2.409  0.2214 -2.1320  0.1213
52235SOL    HW262669   4.142  12.383   2.493  0.9375  1.5279 -1.1036
52236SOL     OW62670  10.957  12.372   4.936  0.6801 -0.3055  0.0334
52236SOL    HW162671  10.975  12.387   5.029 -0.5350  0.6569  0.1353
52236SOL    HW262672  10.893  12.301   4.935 -1.4472  1.5185  0.1299
52237SOL     OW62673   8.339   1.545   0.777 -0.5123 -0.0301  0.0193
52237SOL    HW162674   8.273   1.578   0.838 -1.2400  1.7897 -1.6163
52237SOL    HW262675   8.385   1.624   0.748  0.6496 -0.9874 -0.8232
52238SOL     OW62676   0.789  11.937   0.982 -0.0126  0.2720  0.1932
52238SOL    HW162677   0.756  11.945   0.892  0.5295  0.3553 -0.0029
52238SOL    HW262678   0.723  11.980   1.036 -0.0405  0.7778 -0.2308
52239SOL     OW62679   2.715  10.625   5.487 -0.1730 -0.7623  0.2468
52239SOL    HW162680   2.740  10.617   5.579 -1.2846 -1.6363  0.4846
52239SOL    HW262681   2.693  10.717   5.476  0.5698 -0.5231  0.6906
52240SOL     OW62682   4.272  10.627  12.260  0.2514 -0.0347 -0.8395
52240SOL    HW162683   4.179  10.648  12.273 -0.3666 -3.1816  0.7057
52240SOL    HW262684   4.316  10.664  12.337  0.3486  1.5116 -1.6016
52241SOL     OW62685   5.511   3.978   3.312 -0.1337 -0.0527 -0.0081
52241SOL    HW162686   5.466   3.927   3.244 -1.4936  1.2936 -0.1847
52241SOL    HW262687   5.475   3.945   3.394 -1.0503  0.5999 -0.1244
52242SOL     OW62688   7.811  12.247   1.175 -0.3516  0.2033  0.3749
52242SOL    HW162689   7.794  12.211   1.088  0.3688 -0.8093  0.6293
52242SOL    HW262690   7.903  12.274   1.172  0.3018 -1.7504  1.4309
52243SOL     OW62691   0.989   7.106   6.547  0.6781 -0.0862 -0.0369
52243SOL    HW162692   1.019   7.016   6.550 -1.2625 -0.7593  2.3598
52243SOL    HW262693   0.919   7.106   6.481  0.5518 -0.3911  0.0947
52244SOL     OW62694  11.400   0.257  11.263  0.5356 -0.2444 -0.4757
52244SOL    HW162695  11.456   0.306  11.323  1.5502 -2.1624  0.2436
52244SOL    HW262696  11.429   0.166  11.273 -1.3844 -1.0290 -1.5813
52245SOL     OW62697   2.082  10.319   2.382  0.5620  0.4010 -0.5574
52245SOL    HW162698   1.992  10.339   2.410  1.0788  1.1485  0.6466
52245SOL    HW262699   2.086  10.353   2.293  0.1605  2.0484  0.0085
52246SOL     OW62700   1.444   4.938   2.468 -0.2019  0.1009 -0.1015
52246SOL    HW162701   1.393   4.901   2.540  2.0374 -0.4021  1.3313
52246SOL    HW262702   1.393   4.918   2.389 -1.0006 -2.5713  0.9921
52247SOL     OW62703  11.446   1.047  10.008 -0.1919  0.2319 -0.1629
52247SOL    HW162704  11.514   1.086  10.064  0.7528 -1.9374  0.2981
52247SOL    HW262705  11.492   0.980   9.958 -1.6399  0.0655 -1.3283
52248SOL     OW62706  11.655   5.505   4.668  0.5833 -0.4327  0.6694
52248SOL    HW162707  11.670   5.600   4.678  0.7195 -0.3588 -0.1410
52248SOL    HW262708  11.643   5.493   4.574  1.1962 -1.3148  0.6928
52249SOL     OW62709   2.415   3.952   1.776 -0.0449  0.8969 -0.3562
52249SOL    HW162710   2.477   3.949   1.703 -1.0939 -2.5921 -1.2552
52249SOL    HW262711   2.452   3.894   1.842 -0.6860  1.5322  0.5995
52250SOL     OW62712   0.487   2.969  11.091  0.1659 -0.0903  0.2151
52250SOL    HW162713   0.515   3.046  11.040 -0.6512  0.1024  0.0353
52250SOL    HW262714   0.533   2.896  11.051 -1.3620 -0.1212 -1.6511
52251SOL     OW62715   7.149   1.500   7.199 -0.0571 -0.3056 -0.0432
52251SOL    HW162716   7.119   1.410   7.214  2.1249 -0.7027  2.8959
52251SOL    HW262717   7.084   1.555   7.241  0.5712 -0.8085  1.6442
52252SOL     OW62718   3.466   0.228  11.178 -0.8214  0.2681 -0.1189
52252SOL    HW162719   3.385   0.181  11.197 -1.8329  1.7352 -0.6297
52252SOL    HW262720   3.479   0.217  11.084 -0.4193  0.0264 -0.0362
52253SOL     OW62721   5.870   3.783   1.251 -0.5691  0.8543 -0.0565
52253SOL    HW162722   5.885   3.690   1.268 -0.3858  0.4023 -2.3823
52253SOL    HW262723   5.958   3.821   1.248 -0.6474  1.1300  0.9582
52254SOL     OW62724  10.343   8.225   5.010  0.4832 -0.4415 -0.3486
52254SOL    HW162725  10.281   8.250   5.078 -0.6862 -1.8552 -0.8354
52254SOL    HW262726  10.349   8.130   5.017  0.5296 -0.5961 -2.0459
52255SOL     OW62727   4.264   8.424   0.495  0.1539 -0.0541  0.4984
52255SOL    HW162728   4.210   8.418   0.574 -1.2450 -1.6214 -0.4937
52255SOL    HW262729   4.279   8.333   0.470  2.4951  0.3599  0.1749
52256SOL     OW62730   5.198   3.779  10.780 -0.1619  0.4188 -0.2782
52256SOL    HW162731   5.157   3.806  10.698 -0.1855 -2.8462 -1.4988
52256SOL    HW262732   5.290   3.764  10.757 -0.1223 -0.3389  0.3101
52257SOL     OW62733   0.764   9.709   1.544 -0.5339 -0.1950 -0.2255
52257SOL    HW162734   0.777   9.803   1.560  0.2867 -0.5704  1.5861
52257SOL    HW262735   0.670   9.700   1.533 -0.5257  0.9832 -1.6761
52258SOL     OW62736  12.386   3.690   7.160 -0.1536 -0.1434 -0.7408
52258SOL    HW162737  12.381   3.636   7.239 -1.0680  0.0517 -0.6548
52258SOL    HW262738  12.435   3.768   7.186  0.7991 -0.7235 -0.7541
52259SOL     OW62739   0.425   0.909   4.197  0.2190 -0.1989  0.3631
52259SOL    HW162740   0.422   0.814   4.209  0.9919 -0.3992 -0.8016
52259SOL    HW262741   0.339   0.931   4.161  0.7503 -0.8294 -1.4461
52260SOL     OW62742   9.825   2.542   6.677  0.0716 -0.2796  0.4408
52260SOL    HW162743   9.903   2.574   6.724  0.5699 -0.4340 -0.2753
52260SOL    HW262744   9.775   2.622   6.659 -0.0878 -0.2063  1.1538
52261SOL     OW62745   8.868   0.125   4.722 -0.0565 -0.2208  0.0330
52261SOL    HW162746   8.816   0.109   4.644  1.7987 -0.4340 -1.2216
52261SOL    HW262747   8.903   0.214   4.711 -0.3491  0.0328  0.9883
52262SOL     OW62748  12.232   0.963  11.650  0.2127  0.3820 -0.0851
52262SOL    HW162749  12.211   0.870  11.663  0.4709  0.1315 -1.3806
52262SOL    HW262750  12.161   1.009  11.694  0.1102 -0.4228  0.6351
52263SOL     OW62751   6.267  11.161  11.887  0.5419 -0.6059  0.4251
52263SOL    HW162752   6.302  11.075  11.861 -0.0064 -0.7510  0.1505
52263SOL    HW262753   6.203  11.141  11.955  1.0187 -0.3352  0.9706
52264SOL     OW62754  10.943   2.237   8.201  0.1302 -0.3667  0.0325
52264SOL    HW162755  10.994   2.157   8.193 -0.2474 -0.5555 -0.6006
52264SOL    HW262756  10.903   2.232   8.288  0.1226 -0.8593  0.0030
52265SOL     OW62757   2.266  11.560   8.770  0.3465 -0.1816  0.7680
52265SOL    HW162758   2.228  11.617   8.703  0.3623  0.2739  1.1411
52265SOL    HW262759   2.244  11.471   8.741 -2.3962  0.0729  1.7668
52266SOL     OW62760   1.197   8.583   8.072  0.1766 -0.1511 -0.5165
52266SOL    HW162761   1.137   8.652   8.102 -0.9631 -0.7591 -1.3345
52266SOL    HW262762   1.267   8.583   8.137  0.5488  2.1904 -0.7985
52267SOL     OW62763   1.400   4.057  10.851  0.2250  0.0167  0.3697
52267SOL    HW162764   1.423   4.150  10.852 -0.1580  0.1272 -0.4321
52267SOL    HW262765   1.397   4.032  10.944  4.4028 -0.2558  0.6498
52268SOL     OW62766   2.459  10.052   1.676 -0.3445  0.0778 -0.0332
52268SOL    HW162767   2.399  10.024   1.607 -1.0471  1.5838 -0.0736
52268SOL    HW262768   2.402  10.073   1.750  0.1082  1.5223 -0.0665
52269SOL     OW62769   0.214   9.020   7.656 -0.0456 -0.7866 -0.4965
52269SOL    HW162770   0.132   8.986   7.621 -1.2153 -1.9567  2.9479
52269SOL    HW262771   0.219   9.110   7.623 -2.2876 -0.9395 -1.4351
52270SOL     OW62772   6.195  10.068   6.427 -0.1995  0.3827 -0.3561
52270SOL    HW162773   6.290  10.060   6.431 -0.0067  2.2051 -0.5780
52270SOL    HW262774   6.172  10.033   6.341  0.4077  0.9899 -0.7748
52271SOL     OW62775   2.141  10.034   4.785 -0.2863 -0.7175 -0.5769
52271SOL    HW162776   2.062   9.990   4.754 -1.0358  0.1172  0.0987
52271SOL    HW262777   2.212   9.971   4.769 -1.2078 -1.8437 -0.3604
52272SOL     OW62778   8.701   3.719   9.564 -0.1354 -0.4520  0.3336
52272SOL    HW162779   8.639   3.656   9.527 -1.9977  2.3550 -1.7638
52272SOL    HW262780   8.657   3.754   9.641  0.2548 -0.6302  0.6445
52273SOL     OW62781   6.568  11.503   6.380 -0.0066 -0.1848  0.7731
52273SOL    HW162782   6.516  11.574   6.419  0.9868  1.0171 -0.0133
52273SOL    HW262783   6.503  11.445   6.341 -0.9550 -0.7418  3.0183
52274SOL     OW62784   5.287   2.002  10.595 -0.2576  0.3577  0.3142
52274SOL    HW162785   5.279   1.945  10.519 -1.4694  0.9119 -0.0048
52274SOL    HW262786   5.340   1.953  10.657 -1.6629 -1.3236  0.2403
52275SOL     OW62787   7.313  11.509   5.781  0.6625 -0.7928  0.0095
52275SOL    HW162788   7.328  11.594   5.823 -2.1878 -0.8289  1.3281
52275SOL    HW262789   7.316  11.528   5.687 -1.1331  1.0963  0.2486
52276SOL     OW62790   8.291   4.749   6.882 -0.3030  0.1778 -0.3813
52276SOL    HW162791   8.331   4.819   6.935  2.0681 -1.1153 -0.3211
52276SOL    HW262792   8.331   4.669   6.915 -0.6180 -0.9060 -2.4848
52277SOL     OW62793   7.595   4.178   3.562 -0.6564  0.7128 -0.2360
52277SOL    HW162794   7.584   4.228   3.643 -0.3936 -0.8844  0.8398
52277SOL    HW262795   7.680   4.136   3.571 -0.6428  0.4817 -1.3267
52278SOL     OW62796   5.791   4.268   2.090  0.4212  0.0446  0.1524
52278SOL    HW162797   5.792   4.279   1.995  2.6952  0.1632  0.1564
52278SOL    HW262798   5.812   4.355   2.124  0.5696 -0.2199  0.7474
52279SOL     OW62799   1.555   1.702  11.496 -0.5685 -0.3728  0.5058
52279SOL    HW162800   1.594   1.619  11.471 -1.3902 -0.5848 -0.1204
52279SOL    HW262801   1.572   1.710  11.590  1.0222 -0.4109  0.2426
52280SOL     OW62802   5.258   3.747   2.051 -0.0127 -0.4334  0.7725
52280SOL    HW162803   5.223   3.815   2.108  0.8941 -0.1666  1.0276
52280SOL    HW262804   5.302   3.686   2.110 -1.2511 -1.5454  0.6050
52281SOL     OW62805   5.700   6.086   1.722  0.3376  0.6334  0.5288
52281SOL    HW162806   5.720   6.162   1.666  1.4048  0.3381  0.4821
52281SOL    HW262807   5.638   6.120   1.787  0.5870  1.4776  0.3401
52282SOL     OW62808   1.287   4.012   1.905  0.8085  0.0314  0.5629
52282SOL    HW162809   1.348   4.042   1.972 -1.6886  0.3364  2.8760
52282SOL    HW262810   1.272   4.088   1.850  0.6603  0.6812  1.4812
52283SOL     OW62811  10.017   2.679  10.125  0.3682 -0.7483  0.3499
52283SOL    HW162812  10.058   2.593  10.138  1.5687 -0.4122 -0.9765
52283SOL    HW262813   9.931   2.658  10.089 -0.3190 -1.4330  2.2398
52284SOL     OW62814   2.099   2.178   8.521  0.4814 -0.1016  0.4747
52284SOL    HW162815   2.157   2.124   8.574  0.1427 -2.0713 -1.0696
52284SOL    HW262816   2.104   2.140   8.433 -0.6076  1.7441 -0.4457
52285SOL     OW62817   2.113   2.435   9.915  0.3095 -0.5049  0.0936
52285SOL    HW162818   2.147   2.491   9.846 -0.5635  1.3450  1.1072
52285SOL    HW262819   2.018   2.441   9.907  0.1774 -1.9082  0.2176
52286SOL     OW62820   7.825   3.297   4.156 -0.1325  0.0530  0.0281
52286SOL    HW162821   7.762   3.355   4.197 -0.6219  0.8046 -1.6856
52286SOL    HW262822   7.775   3.218   4.135  0.3440 -0.7095  1.6629
52287SOL     OW62823   0.335  12.443   6.833  0.5050 -0.1148  0.5227
52287SOL    HW162824   0.420  12.456   6.791  0.7658 -0.6629  0.8809
52287SOL    HW262825   0.288  12.384   6.774 -0.1310  1.1834 -0.3440
52288SOL     OW62826   0.400   2.514   1.514 -0.3979  0.0176 -0.2651
52288SOL    HW162827   0.340   2.564   1.458 -0.7425  0.3998  0.4363
52288SOL    HW262828   0.410   2.430   1.469 -2.7510 -0.7044  0.4189
52289SOL     OW62829   1.163  11.637  11.981 -0.1230 -0.0983  0.5168
52289SOL    HW162830   1.108  11.712  12.003 -0.9525  0.3855 -2.7079
52289SOL    HW262831   1.208  11.663  11.900  0.5185 -2.6112 -0.0217
52290SOL     OW62832   8.562   2.440   4.571  0.1587  0.4072 -0.1214
52290SOL    HW162833   8.612   2.522   4.577 -0.7953  0.9483  0.8569
52290SOL    HW262834   8.614   2.376   4.619  0.6141  0.5978 -0.3577
52291SOL     OW62835   5.056   9.232   6.203 -0.1907  0.2334  0.1061
52291SOL    HW162836   5.103   9.149   6.212  1.3431  1.0257 -0.3708
52291SOL    HW262837   4.968   9.206   6.176  0.2228 -1.2470  0.0964
52292SOL     OW62838  10.120   7.991   1.059  0.1563  0.5959  0.0840
52292SOL    HW162839  10.117   7.943   0.976 -0.6993  2.3491 -0.9422
52292SOL    HW262840  10.096   8.081   1.036 -0.2262  1.1016  2.2519
52293SOL     OW62841  11.263  12.430   5.079  0.2484  0.1637  0.3570
52293SOL    HW162842  11.217  12.366   5.133 -0.4829  1.2467  1.0788
52293SOL    HW262843  11.207  12.508   5.082  1.4775  1.0890  0.1398
52294SOL     OW62844   4.409  10.211   7.994 -0.5121  0.1415  0.2553
52294SOL    HW162845   4.368  10.273   7.934 -0.4970 -0.7628 -0.7253
52294SOL    HW262846   4.406  10.127   7.947 -0.2881 -0.5471  1.4250
52295SOL     OW62847   9.747   2.290   4.340 -0.0582 -0.4951 -0.3559
52295SOL    HW162848   9.659   2.329   4.341  0.9017  1.7701  0.2877
52295SOL    HW262849   9.784   2.312   4.425  2.5298  2.1433 -1.9716
52296SOL     OW62850  10.969   5.041   1.009  0.3685 -0.2594  0.2161
52296SOL    HW162851  10.969   4.960   0.959  1.8220 -1.0491  1.4252
52296SOL    HW262852  11.059   5.051   1.040 -0.5645 -0.2282  3.2636
52297SOL     OW62853   9.908   0.699   4.314  0.0661 -0.3102 -0.0729
52297SOL    HW162854   9.837   0.686   4.251 -0.9807  0.4587  0.8868
52297SOL    HW262855   9.966   0.624   4.301 -0.7499 -0.7880 -1.1167
52298SOL     OW62856   4.900  11.312   8.769  0.1105  0.8588  0.2934
52298SOL    HW162857   4.900  11.369   8.846  0.2665  0.7007  0.4095
52298SOL    HW262858   4.854  11.363   8.702  1.4114  1.6695 -0.0126
52299SOL     OW62859  10.194   6.453   6.735  0.3264  0.2712 -0.4285
52299SOL    HW162860  10.189   6.419   6.824 -2.5054  0.3331 -0.4770
52299SOL    HW262861  10.222   6.544   6.745  0.6121  0.1075  0.3202
52300SOL     OW62862   2.197  11.216  11.832  0.2566  0.9068 -0.2949
52300SOL    HW162863   2.109  11.234  11.799 -0.5106  1.3654  1.7936
52300SOL    HW262864   2.207  11.276  11.906  1.5792 -0.4674  0.7044
52301SOL     OW62865   9.575   2.548   7.429 -0.3996  0.5765  0.1142
52301SOL    HW162866   9.642   2.614   7.448  0.0512  0.2791 -0.4028
52301SOL    HW262867   9.548   2.516   7.515  0.2196  0.6128  0.3288
52302SOL     OW62868   2.399   1.737   9.458  0.2587  0.3815  0.2466
52302SOL    HW162869   2.419   1.652   9.418 -0.9602  0.1405  0.1177
52302SOL    HW262870   2.353   1.716   9.539  0.3295  0.9165  0.4315
52303SOL     OW62871   5.114   0.345   4.965  0.2554 -0.3375  0.4153
52303SOL    HW162872   5.178   0.415   4.952 -1.4333  1.1628 -0.2844
52303SOL    HW262873   5.166   0.266   4.978  2.2305  0.3697 -2.4041
52304SOL     OW62874   2.471   2.796   7.610  0.2177  0.8590  0.4267
52304SOL    HW162875   2.405   2.737   7.574  1.1497  0.2643 -0.3568
52304SOL    HW262876   2.439   2.883   7.589  0.3988  0.5452 -1.3048
52305SOL     OW62877   5.294   7.978   4.203  0.1841  0.2671  0.3396
52305SOL    HW162878   5.218   7.987   4.146 -0.8515  1.1233  1.7789
52305SOL    HW262879   5.363   8.026   4.159 -0.0269 -0.6641 -1.0783
52306SOL     OW62880   6.028   7.022   7.908 -0.1479 -0.4833  0.0677
52306SOL    HW162881   5.934   7.037   7.911 -0.1811 -0.0558 -1.6749
52306SOL    HW262882   6.040   6.960   7.836  1.0347  1.2333 -1.3160
52307SOL     OW62883   7.536   2.776   7.514  0.0418 -0.0346  0.1449
52307SOL    HW162884   7.606   2.785   7.578  1.5906  1.9289 -1.6522
52307SOL    HW262885   7.481   2.854   7.528  0.1479  0.1836 -0.5908
52308SOL     OW62886  10.182  10.667   7.838 -0.2936  0.1193  0.0255
52308SOL    HW162887  10.247  10.600   7.859 -0.1331  0.3133  0.1499
52308SOL    HW262888  10.111  10.619   7.795  0.4463  0.0723 -1.1755
52309SOL     OW62889   7.311   4.754   6.207  0.4811 -0.4866  0.2970
52309SOL    HW162890   7.275   4.756   6.296 -1.1985 -1.6549 -0.3030
52309SOL    HW262891   7.353   4.839   6.197 -0.4134  0.1780  1.7695
52310SOL     OW62892   7.890   3.934  10.430  0.3600  0.1682  0.0839
52310SOL    HW162893   7.978   3.903  10.413  0.1292 -1.7752  2.0845
52310SOL    HW262894   7.833   3.863  10.400 -0.5166  1.1151 -0.5738
52311SOL     OW62895   5.528   1.505   5.060 -0.0976  0.2371 -0.0333
52311SOL    HW162896   5.539   1.497   5.155  0.6769  2.0440  0.0665
52311SOL    HW262897   5.531   1.599   5.044 -1.2951  0.0123 -1.7483
52312SOL     OW62898   7.807   7.676   4.748  0.4462  0.8395  0.1021
52312SOL    HW162899   7.755   7.595   4.741  0.2123  0.8445  1.4755
52312SOL    HW262900   7.827   7.699   4.657  0.5048 -0.7513 -0.3226
52313SOL     OW62901  10.864   8.047   3.134  0.2399 -0.8618 -0.6417
52313SOL    HW162902  10.875   8.113   3.065  1.6208  0.5732  0.8675
52313SOL    HW262903  10.791   7.993   3.104 -2.5253  2.6966 -0.9545
52314SOL     OW62904   5.061   8.450   4.466  0.0782 -0.1123 -0.0929
52314SOL    HW162905   5.094   8.503   4.538  0.4249 -1.9587  1.1690
52314SOL    HW262906   5.113   8.370   4.470 -2.0606 -1.5835 -0.3810
52315SOL     OW62907   9.277   7.744   3.907  0.1113  0.6682 -0.0864
52315SOL    HW162908   9.372   7.751   3.896  0.1025  2.8767  0.6075
52315SOL    HW262909   9.243   7.742   3.817  0.8323 -1.6737 -0.3545
52316SOL     OW62910   7.376   4.107   3.465  0.2261 -0.2995 -0.8416
52316SOL    HW162911   7.448   4.150   3.510 -0.5347  1.5178 -1.2486
52316SOL    HW262912   7.313   4.086   3.535  0.0448  0.4551 -0.7659
52317SOL     OW62913   1.459   6.380  11.057  0.0721 -0.0577 -0.4506
52317SOL    HW162914   1.551   6.363  11.034 -0.3426 -0.2753 -2.0473
52317SOL    HW262915   1.444   6.470  11.027 -0.2073  0.0080 -0.1089
52318SOL     OW62916   2.359   8.241   5.272  0.2262  0.0113 -0.5378
52318SOL    HW162917   2.403   8.171   5.320  0.1787 -1.9285 -3.0674
52318SOL    HW262918   2.414   8.318   5.286  1.3536 -0.9880  0.8159
52319SOL     OW62919  11.485   7.359   7.844 -0.3684 -0.0848  0.0237
52319SOL    HW162920  11.447   7.443   7.870 -1.2643 -1.0311  1.9973
52319SOL    HW262921  11.423   7.324   7.780 -0.3217  0.4760 -0.3364
52320SOL     OW62922   6.018   6.604   0.648  0.3753  0.1764  0.8791
52320SOL    HW162923   5.970   6.535   0.603 -0.2389  2.0534 -1.5068
52320SOL    HW262924   6.010   6.681   0.592  0.1376  2.5510  3.8810
52321SOL     OW62925  12.176  10.617  10.011 -0.2107 -0.3603 -0.1536
52321SOL    HW162926  12.169  10.705   9.974 -0.3417 -0.3759 -0.1643
52321SOL    HW262927  12.172  10.559   9.935 -0.3130 -0.3842 -0.1299
52322SOL     OW62928  12.080  10.534   4.153  0.5833  0.2583 -0.0547
52322SOL    HW162929  12.068  10.521   4.059 -2.5442 -0.1585  0.2939
52322SOL    HW262930  12.087  10.446   4.189 -1.7970  0.1893  0.3918
52323SOL     OW62931   8.085   2.323   3.514 -0.4339  0.0163 -0.0785
52323SOL    HW162932   8.112   2.393   3.573  1.7669  0.8910 -1.9659
52323SOL    HW262933   8.067   2.367   3.431 -0.8755 -1.4352 -0.7893
52324SOL     OW62934   9.560   8.875   0.802  0.0667  0.2818 -0.3210
52324SOL    HW162935   9.498   8.817   0.846 -0.2099  0.8373  0.0374
52324SOL    HW262936   9.562   8.953   0.857  0.7892  0.4269 -0.5439
52325SOL     OW62937   0.052   3.854   1.429 -0.0346  0.1018 -0.4711
52325SOL    HW162938   0.098   3.934   1.453  0.3602 -0.2139 -0.1555
52325SOL    HW262939  -0.012   3.840   1.499  0.0231  0.0396 -0.4312
52326SOL     OW62940  11.084  10.114   2.726 -0.0295  0.3121  0.1575
52326SOL    HW162941  11.157  10.089   2.782 -1.0973 -1.6011  0.7652
52326SOL    HW262942  11.118  10.106   2.637  0.7405  0.3120  0.4433
52327SOL     OW62943   9.156   4.634   1.760 -0.0930 -0.1738  0.5916
52327SOL    HW162944   9.083   4.668   1.709  0.3745  1.5322  1.0019
52327SOL    HW262945   9.234   4.667   1.716  0.4636 -1.7310  0.3309
52328SOL     OW62946   4.420   6.251   8.648  0.2731 -0.1928 -0.5271
52328SOL    HW162947   4.365   6.278   8.722  1.6614  1.2303  0.0441
52328SOL    HW262948   4.382   6.167   8.620 -0.9080 -0.2792  1.1407
52329SOL     OW62949   4.819  10.260   3.677 -0.0558 -0.0108  0.0954
52329SOL    HW162950   4.766  10.305   3.612 -0.4845 -0.9409 -0.2044
52329SOL    HW262951   4.909  10.266   3.644 -0.3741 -1.2444 -1.0470
52330SOL     OW62952  11.858   0.358  12.203  0.3569 -0.0191  0.9160
52330SOL    HW162953  11.809   0.398  12.275  0.0057 -0.3049  0.8359
52330SOL    HW262954  11.792   0.310  12.153  0.0975  2.1873 -1.0400
52331SOL     OW62955   4.250   6.903   2.409 -0.5973 -0.4430 -0.2655
52331SOL    HW162956   4.280   6.971   2.470  0.0068 -1.0362  0.1173
52331SOL    HW262957   4.167   6.936   2.375 -2.1075 -1.0026  2.4851
52332SOL     OW62958   4.051   4.500   4.341 -0.3852 -0.6561 -0.4557
52332SOL    HW162959   4.130   4.543   4.374 -1.0444  1.1893 -1.1499
52332SOL    HW262960   4.064   4.407   4.360  1.0466 -0.1527  1.2595
52333SOL     OW62961   5.509   9.129   3.135 -0.0944  0.4296 -0.0550
52333SOL    HW162962   5.449   9.162   3.202 -1.2325  0.1081 -0.8842
52333SOL    HW262963   5.518   9.201   3.073  0.7314  0.6283  0.2921
52334SOL     OW62964   8.188   4.984   2.989  0.1725 -0.1687  0.0388
52334SOL    HW162965   8.161   5.069   2.953 -0.5192  0.1659  1.2938
52334SOL    HW262966   8.187   4.925   2.913  3.6969  1.5273 -1.5557
52335SOL     OW62967   9.233   1.359   3.310  0.2890  0.0942 -0.9704
52335SOL    HW162968   9.247   1.375   3.217  1.1147  0.7430 -0.7535
52335SOL    HW262969   9.282   1.279   3.329  3.5395  2.0109 -0.3465
52336SOL     OW62970  12.242   0.801   0.266  0.1907 -0.5486  0.1065
52336SOL    HW162971  12.228   0.825   0.358  1.7583  0.5966  0.0837
52336SOL    HW262972  12.315   0.740   0.267  2.8227  2.3293 -0.5707
52337SOL     OW62973   3.125  11.152   2.398  0.2913  0.0971 -0.2342
52337SOL    HW162974   3.164  11.072   2.361 -1.6145 -0.6933 -0.6229
52337SOL    HW262975   3.191  11.183   2.461  1.4540 -1.2816 -0.7038
52338SOL     OW62976   5.162   2.875   7.235 -0.1578  0.3488  0.9442
52338SOL    HW162977   5.146   2.781   7.230 -0.2868  0.4035  0.2286
52338SOL    HW262978   5.126   2.910   7.153  1.1527  0.8262  0.5452
52339SOL     OW62979   5.329   1.590  10.467 -0.2596 -0.4919  0.0066
52339SOL    HW162980   5.312   1.528  10.395 -0.3525  0.4116 -0.7636
52339SOL    HW262981   5.422   1.580  10.485  0.0158  0.0854 -1.0262
52340SOL     OW62982  11.822   6.284  12.272 -0.0625 -0.1052 -0.2546
52340SOL    HW162983  11.827   6.319  12.361 -1.6033 -1.7626  0.5549
52340SOL    HW262984  11.889   6.216  12.268 -0.0837 -0.1242 -0.2947
52341SOL     OW62985   1.530   9.772   1.125  0.4637  0.6607  0.2369
52341SOL    HW162986   1.522   9.778   1.220 -0.0697  2.0452  0.1163
52341SOL    HW262987   1.605   9.714   1.111  0.6140  0.5355  1.5023
52342SOL     OW62988  10.573   2.031   2.835  0.0153  0.3695  0.0016
52342SOL    HW162989  10.655   2.041   2.884 -1.2073  0.4739  2.1624
52342SOL    HW262990  10.595   2.059   2.746  2.6774 -1.0037  0.1101
52343SOL     OW62991   7.538  12.130   2.463  0.0509  0.4683 -0.3733
52343SOL    HW162992   7.462  12.123   2.521 -0.6287  1.6150 -1.0865
52343SOL    HW262993   7.613  12.114   2.520 -0.7090 -0.6483  0.3519
52344SOL     OW62994   0.592   8.771   8.947  0.2582  0.6970 -0.0677
52344SOL    HW162995   0.646   8.848   8.963  0.1189  0.9653 -0.8572
52344SOL    HW262996   0.619   8.709   9.015  1.7566  0.7213 -0.5898
52345SOL     OW62997   7.216   8.526  10.820  0.2772 -0.0814 -0.5240
52345SOL    HW162998   7.203   8.433  10.804  0.0215  0.1962 -2.1240
52345SOL    HW262999   7.288   8.551  10.761  0.5557  0.6779  0.1059
52346SOL     OW63000   9.926   2.382   3.548  0.3672  0.4842 -0.1170
52346SOL    HW163001   9.967   2.388   3.634  0.3868  1.4368 -0.1711
52346SOL    HW263002  10.000   2.376   3.487  0.3292 -1.8772  0.0051
52347SOL     OW63003   4.781   0.308   8.746 -0.0781  0.1364 -0.0690
52347SOL    HW163004   4.816   0.395   8.731  0.6710 -0.3273 -1.1102
52347SOL    HW263005   4.829   0.251   8.686 -1.2745 -0.8401 -0.1532
52348SOL     OW63006   9.918   3.232   8.421  0.4467  0.0460  0.2126
52348SOL    HW163007   9.890   3.141   8.422  1.2849 -0.2345  1.4992
52348SOL    HW263008   9.839   3.283   8.440  0.4165 -0.6074  2.0382
52349SOL     OW63009   2.107   4.148   3.882 -0.3662  0.4565  0.1663
52349SOL    HW163010   2.054   4.227   3.877 -1.3305 -0.1107  1.0195
52349SOL    HW263011   2.124   4.124   3.791 -2.2963  0.2069 -0.1732
52350SOL     OW63012   1.270   8.879  11.732 -0.5120  0.1357  0.5053
52350SOL    HW163013   1.265   8.813  11.801 -0.5534 -0.0501  0.3259
52350SOL    HW263014   1.232   8.957  11.771 -0.5100  0.0394  0.7028
52351SOL     OW63015   1.198   4.265   4.434  0.3230  0.7745 -0.0558
52351SOL    HW163016   1.225   4.257   4.525 -2.4260  1.6680  0.9649
52351SOL    HW263017   1.184   4.175   4.405 -0.7359  0.5196  1.1353
52352SOL     OW63018   1.702   4.123   5.743  0.1547 -0.0457 -0.2219
52352SOL    HW163019   1.720   4.127   5.837  1.8065 -0.3637 -0.4927
52352SOL    HW263020   1.725   4.034   5.718  0.9566  0.3924 -1.1359
52353SOL     OW63021   8.636   7.309   9.658  0.2771  0.8775 -0.7794
52353SOL    HW163022   8.569   7.360   9.612 -1.0084 -2.2689 -2.7598
52353SOL    HW263023   8.593   7.282   9.739 -0.3285  0.1090 -1.3463
52354SOL     OW63024   6.013   1.612   5.698  0.2491 -0.0842  0.2401
52354SOL    HW163025   6.047   1.694   5.733 -2.2230  1.5728 -0.9559
52354SOL    HW263026   6.045   1.608   5.608  1.6060 -1.2781  0.7285
52355SOL     OW63027  10.690   5.292   6.970 -0.1905 -0.2477 -0.9240
52355SOL    HW163028  10.703   5.232   7.043  1.1640  0.1335 -0.8276
52355SOL    HW263029  10.778   5.321   6.946 -0.4502 -1.3330 -3.5732
52356SOL     OW63030  12.489  12.301   2.927  0.3002  0.4083 -0.0807
52356SOL    HW163031  12.531  12.367   2.982  2.7101 -1.1144  0.0516
52356SOL    HW263032  12.396  12.308   2.948  0.9299  0.9651  3.0467
52357SOL     OW63033   2.860   1.837   5.126 -0.0371  0.6408  0.5305
52357SOL    HW163034   2.794   1.825   5.194 -1.6184  0.9660 -0.8797
52357SOL    HW263035   2.810   1.854   5.046  1.6242 -1.8789 -1.2029
52358SOL     OW63036   5.898   3.646   0.127  0.1108  0.3464  0.1980
52358SOL    HW163037   5.904   3.568   0.183  0.9777  1.3912  1.6164
52358SOL    HW263038   5.973   3.639   0.069  1.5635  1.2500  1.8812
52359SOL     OW63039   9.881   1.557   1.029 -0.0093 -0.0711 -0.3066
52359SOL    HW163040   9.972   1.534   1.010 -0.2586 -0.4851 -1.0165
52359SOL    HW263041   9.842   1.575   0.944 -0.0518  2.2316  0.1502
52360SOL     OW63042  12.023   7.012   3.884 -0.4179  0.2825  0.0584
52360SOL    HW163043  12.074   6.934   3.864 -1.9560 -1.1043  1.2838
52360SOL    HW263044  12.031   7.022   3.979 -1.0867  1.0079  0.0501
52361SOL     OW63045  10.260   0.177   3.319  0.5477  0.1804 -0.4195
52361SOL    HW163046  10.228   0.205   3.233  0.4940  0.3468 -0.3439
52361SOL    HW263047  10.349   0.210   3.323  0.0555  1.4866  0.2093
52362SOL     OW63048   1.589   0.569   8.748  0.2023  0.3731 -0.3683
52362SOL    HW163049   1.581   0.664   8.758 -0.8102  0.2423  0.2391
52362SOL    HW263050   1.630   0.557   8.662  1.1517  1.3714 -0.0683
52363SOL     OW63051   5.616   4.623   7.862 -0.5823 -0.5174  0.7760
52363SOL    HW163052   5.665   4.645   7.783 -1.1837 -1.0623  0.2405
52363SOL    HW263053   5.535   4.584   7.830 -0.6140 -1.2251  1.6694
52364SOL     OW63054   1.072  12.308   0.689 -0.5801 -0.1836 -0.0880
52364SOL    HW163055   1.060  12.219   0.655 -2.1655 -0.2659  0.6213
52364SOL    HW263056   1.004  12.318   0.756  0.3864  1.1300  0.7379
52365SOL     OW63057   4.918   2.775   5.447  0.6500 -1.0292 -0.7950
52365SOL    HW163058   4.860   2.775   5.523  0.2164 -1.0770 -1.1167
52365SOL    HW263059   4.970   2.855   5.456 -0.7684  0.0209 -1.4556
52366SOL     OW63060   4.267   3.618  11.195  0.3120  0.0450 -0.0376
52366SOL    HW163061   4.255   3.643  11.104 -0.3489 -0.0469  0.0187
52366SOL    HW263062   4.213   3.540  11.206  0.2832  0.1311  0.4660
52367SOL     OW63063   7.939   6.421   1.279  0.1284 -0.1058  0.0268
52367SOL    HW163064   7.905   6.340   1.317 -1.2225  0.9363  1.1418
52367SOL    HW263065   7.920   6.414   1.185 -0.2282 -0.9500  0.1565
52368SOL     OW63066   4.852   7.808   5.378  0.2384 -0.0328 -0.6920
52368SOL    HW163067   4.890   7.738   5.325  0.6160  0.1405 -0.6480
52368SOL    HW263068   4.921   7.834   5.437 -0.2348 -0.3377  0.0071
52369SOL     OW63069   9.529  10.727  11.163  0.3045  0.4359  0.8116
52369SOL    HW163070   9.509  10.805  11.216 -0.5705  0.3563  0.6229
52369SOL    HW263071   9.471  10.735  11.087 -1.7709 -1.7196  2.0433
52370SOL     OW63072   6.096   7.262   7.719  0.0953 -0.1940 -0.6005
52370SOL    HW163073   6.060   7.211   7.792 -1.0164  0.9056 -0.3411
52370SOL    HW263074   6.191   7.255   7.729  0.0012 -2.5195 -0.8225
52371SOL     OW63075   7.440   6.161   0.835  0.5895 -0.2859  0.4821
52371SOL    HW163076   7.448   6.103   0.911  0.3572 -1.5833 -0.4583
52371SOL    HW263077   7.348   6.157   0.810  0.8146 -0.4984 -0.3465
52372SOL     OW63078  10.128   0.856   4.984 -0.1164 -0.6901  0.2000
52372SOL    HW163079  10.040   0.840   4.950  0.0122  0.6848 -0.8533
52372SOL    HW263080  10.132   0.805   5.065 -1.7674 -1.0025  0.1138
52373SOL     OW63081   7.044   2.313   7.439  0.0721 -0.2745 -0.5030
52373SOL    HW163082   7.052   2.229   7.485  0.1244  0.4566  0.8669
52373SOL    HW263083   7.134   2.337   7.417  0.2222  0.2339  0.6285
52374SOL     OW63084   6.472   8.980   7.918  0.2661 -0.1431 -1.0631
52374SOL    HW163085   6.376   8.983   7.908  0.0586  1.5792  0.7004
52374SOL    HW263086   6.489   8.894   7.957 -0.6044 -0.3688 -1.1494
52375SOL     OW63087   7.983  12.437   0.501 -0.0877 -0.2488 -0.7760
52375SOL    HW163088   7.974  12.344   0.476  1.9389 -1.6743  3.0665
52375SOL    HW263089   7.922  12.447   0.574  1.3351  0.7570  0.3173
52376SOL     OW63090   1.353   5.535  11.091 -0.1248 -0.3903 -0.1604
52376SOL    HW163091   1.382   5.584  11.168 -1.3455 -1.3620  0.9622
52376SOL    HW263092   1.410   5.566  11.021 -1.8741  3.9591 -0.0046
52377SOL     OW63093   7.209  10.224  10.003 -0.1273 -0.4539  0.4488
52377SOL    HW163094   7.189  10.222   9.910  1.1101  1.4847  0.0803
52377SOL    HW263095   7.142  10.280  10.041  0.8438  0.9035  0.2449
52378SOL     OW63096   7.541   8.669   9.922 -0.3819 -0.1223  0.3540
52378SOL    HW163097   7.627   8.628   9.928 -0.3249  0.1460  1.7486
52378SOL    HW263098   7.511   8.649   9.834  0.8657 -0.7014  0.0364
52379SOL     OW63099   7.176   6.014  12.336 -0.2436 -0.4932 -0.1770
52379SOL    HW163100   7.170   5.950  12.264  0.1078 -1.6342  0.7679
52379SOL    HW263101   7.221   5.966  12.406  0.2997  0.9096  0.4638
52380SOL     OW63102   8.103   6.584   9.150  0.1216 -0.4125  0.0025
52380SOL    HW163103   8.059   6.633   9.219  1.3375  0.7490 -0.0108
52380SOL    HW263104   8.184   6.632   9.134  0.8095 -1.7857 -0.8413
52381SOL     OW63105   2.230   9.833   6.664  0.3987  0.3342  0.5231
52381SOL    HW163106   2.258   9.876   6.744 -0.1773  2.5350 -0.3715
52381SOL    HW263107   2.138   9.858   6.654  0.7328  1.0234 -1.3109
52382SOL     OW63108  11.252  11.639   2.833 -0.2538 -0.3149  0.1431
52382SOL    HW163109  11.317  11.570   2.815  1.0922  0.7370  0.7544
52382SOL    HW263110  11.202  11.606   2.907  0.2611 -0.7296  0.3165
52383SOL     OW63111  10.465  12.388   9.565  0.1649  0.4214 -0.2599
52383SOL    HW163112  10.471  12.436   9.648  1.2762  1.5936 -0.9804
52383SOL    HW263113  10.376  12.352   9.565 -0.2544  1.3739  0.9268
52384SOL     OW63114   3.287  11.253   0.047  0.3725 -0.0837 -0.4775
52384SOL    HW163115   3.253  11.219   0.130 -1.5430  0.8554 -0.8177
52384SOL    HW263116   3.329  11.336   0.070  2.4436 -1.1884 -0.0727
52385SOL     OW63117   3.305   2.726   6.450  0.2470  0.4550 -0.1158
52385SOL    HW163118   3.268   2.670   6.382  0.3493  2.6495 -2.1026
52385SOL    HW263119   3.251   2.709   6.527 -1.4092 -0.3794 -1.3952
52386SOL     OW63120   9.943   9.698  12.278  0.3669 -0.1801 -0.3698
52386SOL    HW163121   9.974   9.611  12.254 -1.1634 -0.2859 -2.0507
52386SOL    HW263122   9.852   9.701  12.250 -0.1709  1.3532  1.3086
52387SOL     OW63123   3.302   2.782   5.518 -0.6107 -0.3513  0.1226
52387SOL    HW163124   3.323   2.806   5.428  1.3062  0.1600  0.6544
52387SOL    HW263125   3.206   2.782   5.522 -0.8772 -3.1823 -2.6251
52388SOL     OW63126   3.406  12.457   4.472 -0.6368 -0.0675  0.4376
52388SOL    HW163127   3.372  12.546   4.463 -0.6501 -0.2508 -2.4615
52388SOL    HW263128   3.500  12.466   4.457 -0.8355 -0.6312 -1.4929
52389SOL     OW63129   9.853   7.203   4.129 -0.6709 -0.0935  0.5044
52389SOL    HW163130   9.861   7.229   4.221 -1.7514 -1.2183  0.9388
52389SOL    HW263131   9.911   7.127   4.121 -0.1363  0.3451  0.0902
52390SOL     OW63132   7.288  11.953   9.234  0.0633  0.6158 -0.4310
52390SOL    HW163133   7.269  11.860   9.228 -0.0032  0.7091 -2.1341
52390SOL    HW263134   7.373  11.958   9.278 -1.1560 -0.0645  2.2387
52391SOL     OW63135   7.655   3.956   0.769  0.0059 -0.2515 -0.4143
52391SOL    HW163136   7.721   3.904   0.722 -0.7575 -1.5770 -0.0550
52391SOL    HW263137   7.694   3.970   0.856  0.2941 -0.0555 -0.5728
52392SOL     OW63138   4.396   6.010   5.262  0.4305  0.4808  0.3134
52392SOL    HW163139   4.342   5.996   5.340  0.1952  0.7785  0.2072
52392SOL    HW263140   4.471   6.061   5.294  1.6497 -1.5350  0.8375
52393SOL     OW63141   4.997  11.788   9.063  0.2074 -0.1098 -0.3956
52393SOL    HW163142   5.058  11.751   9.128  1.1456  0.4236 -0.9488
52393SOL    HW263143   4.912  11.783   9.106  0.9026  1.0160  1.2627
52394SOL     OW63144   8.954   6.529   7.677  0.0226  0.4022  0.3812
52394SOL    HW163145   8.921   6.609   7.636 -0.9078  0.4943  1.2579
52394SOL    HW263146   8.877   6.489   7.717  0.0400 -2.0498 -1.7812
52395SOL     OW63147   7.494   4.821   6.665 -0.5845  0.3022 -0.5954
52395SOL    HW163148   7.521   4.756   6.600  2.8964 -1.5606  2.3413
52395SOL    HW263149   7.417   4.783   6.706 -0.6797 -0.2171 -1.2330
52396SOL     OW63150   0.226   7.244   3.327 -0.3433 -0.2621 -0.5271
52396SOL    HW163151   0.216   7.290   3.410 -0.5279  0.6051 -1.0257
52396SOL    HW263152   0.297   7.181   3.343 -0.2596  0.0186  0.2319
52397SOL     OW63153  10.648   4.213   0.256  0.0597 -0.2779  0.4263
52397SOL    HW163154  10.671   4.158   0.331  0.7707 -0.9620 -0.2732
52397SOL    HW263155  10.625   4.298   0.295  0.2798 -0.6571  1.4199
52398SOL     OW63156   7.032   3.711  10.840  0.7157  0.2424  0.1755
52398SOL    HW163157   7.039   3.764  10.920 -1.4953  0.6965  0.1133
52398SOL    HW263158   7.030   3.775  10.769 -1.9259  0.1686  0.0960
52399SOL     OW63159   7.431   3.794   0.681  0.1777 -0.5998  0.1862
52399SOL    HW163160   7.516   3.836   0.688 -0.0243 -0.1803  0.1646
52399SOL    HW263161   7.437   3.718   0.738  0.0430  0.3020  1.4360
52400SOL     OW63162   1.518   1.734  10.772 -0.1097  0.1923  0.1670
52400SOL    HW163163   1.440   1.786  10.752  0.4933  1.2024  0.3200
52400SOL    HW263164   1.577   1.796  10.815 -0.5921 -1.3868  3.3629
52401SOL     OW63165   7.777   2.669   3.773  0.4824  0.5032 -0.6748
52401SOL    HW163166   7.719   2.595   3.790  0.9356  0.1024 -0.8631
52401SOL    HW263167   7.722   2.730   3.723  0.0962  0.3117 -0.4894
52402SOL     OW63168   3.760   6.219  10.821 -0.1610  0.2336  0.1624
52402SOL    HW163169   3.776   6.151  10.756 -0.3017 -0.0350  0.4097
52402SOL    HW263170   3.810   6.193  10.898 -0.7318  0.0640  0.4854
52403SOL     OW63171   3.755   3.667   1.603  0.4495  0.0597  0.4088
52403SOL    HW163172   3.813   3.703   1.536  1.5069 -0.0381  1.2572
52403SOL    HW263173   3.684   3.731   1.610  0.2652  0.0206 -0.8673
52404SOL     OW63174   5.090   3.235  10.800 -0.2771  0.6544  0.9837
52404SOL    HW163175   5.112   3.286  10.723  0.3505  1.7579  1.8692
52404SOL    HW263176   5.034   3.292  10.853  1.3516  0.9183  2.5200
52405SOL     OW63177   5.117   9.959   4.394 -0.1910  0.0994  0.2973
52405SOL    HW163178   5.130   9.897   4.322  0.6170  0.7044 -0.0958
52405SOL    HW263179   5.157   9.917   4.470 -0.4596 -0.2575  0.2410
52406SOL     OW63180   0.585   8.633   1.037  0.1177 -0.0250 -0.5213
52406SOL    HW163181   0.525   8.630   1.111 -0.9076  0.5755 -1.3016
52406SOL    HW263182   0.651   8.566   1.056  1.3607  1.7907  2.1598
52407SOL     OW63183  12.126   6.450  11.015 -1.0896 -0.2619  0.0370
52407SOL    HW163184  12.078   6.531  10.998 -0.9195 -0.4833 -1.7849
52407SOL    HW263185  12.218   6.473  10.997 -0.8192 -0.4652  1.0981
52408SOL     OW63186   1.954   6.489   6.447 -0.3528 -0.4249 -0.2311
52408SOL    HW163187   1.881   6.518   6.501  0.2426  0.1028  0.3033
52408SOL    HW263188   2.014   6.446   6.508  0.2086 -0.0434 -0.4981
52409SOL     OW63189  12.141   0.311  11.801 -0.0488  0.6445  0.2504
52409SOL    HW163190  12.143   0.216  11.810  1.6545  0.4713 -1.3335
52409SOL    HW263191  12.080   0.327  11.730  0.2976  0.6714 -0.0423
52410SOL     OW63192  10.652   4.952  10.531 -0.1878 -0.6712 -0.1628
52410SOL    HW163193  10.678   5.042  10.515 -1.7815 -0.2332 -0.5134
52410SOL    HW263194  10.732   4.901  10.521  0.5565  0.5956 -0.8672
52411SOL     OW63195   0.745   5.376  10.249 -0.1484 -0.1456 -0.7829
52411SOL    HW163196   0.693   5.456  10.258  0.8789  0.6263 -1.5877
52411SOL    HW263197   0.681   5.309  10.223 -1.5579 -0.3248  2.5072
52412SOL     OW63198   4.941   6.544   2.670 -0.0855 -0.3108  0.3706
52412SOL    HW163199   4.951   6.630   2.628  2.7904 -1.3534 -1.3385
52412SOL    HW263200   4.933   6.565   2.763  2.0719  1.8155  0.1779
52413SOL     OW63201   0.850  11.752   2.593  0.0642 -0.6711  0.5122
52413SOL    HW163202   0.795  11.808   2.537  1.7520  2.0368  1.3659
52413SOL    HW263203   0.915  11.715   2.534  1.7710  2.0778  0.5151
52414SOL     OW63204   6.009   9.145   2.046  0.6207 -0.2778 -0.7073
52414SOL    HW163205   6.022   9.186   2.132 -0.3968 -1.8369  0.2530
52414SOL    HW263206   6.059   9.199   1.985  1.2505  0.9614  0.8462
52415SOL     OW63207   7.262   0.125   8.382 -0.2932  0.0407 -0.0386
52415SOL    HW163208   7.345   0.167   8.359 -0.8563  0.9882 -0.4083
52415SOL    HW263209   7.214   0.121   8.299 -0.7508 -0.2093  0.2359
52416SOL     OW63210   7.303   3.783   7.732  0.1046  0.0538 -0.4988
52416SOL    HW163211   7.242   3.856   7.742 -2.2861 -1.8481 -0.4894
52416SOL    HW263212   7.343   3.773   7.818 -1.1716  0.0276  0.1150
52417SOL     OW63213   6.134   6.270  11.728  0.1484 -0.7028  0.4364
52417SOL    HW163214   6.175   6.293  11.645  0.5124  0.0919  0.8213
52417SOL    HW263215   6.057   6.219  11.704  0.4314 -0.7583 -0.3713
52418SOL     OW63216   0.973   4.338   5.531  0.0869 -0.3543 -0.7106
52418SOL    HW163217   0.948   4.263   5.478 -0.3953  0.0163 -1.0195
52418SOL    HW263218   0.982   4.303   5.620 -1.2408 -0.5803 -0.6431
52419SOL     OW63219   8.437   6.333   5.781 -0.2052 -0.1915  0.5030
52419SOL    HW163220   8.358   6.293   5.818  0.9027 -0.0575  3.2508
52419SOL    HW263221   8.509   6.281   5.815  0.9841 -0.3466 -1.9782
52420SOL     OW63222   3.675   7.417   6.284 -0.5216 -0.3497 -0.1201
52420SOL    HW163223   3.605   7.435   6.220 -0.9966 -0.0055  0.4868
52420SOL    HW263224   3.633   7.363   6.351 -0.0163 -0.7339 -0.1130
52421SOL     OW63225  12.461   4.559   1.710 -0.4102  0.2548  0.5903
52421SOL    HW163226  12.370   4.587   1.724 -0.1487  0.8860  1.1086
52421SOL    HW263227  12.483   4.509   1.789  0.5798  2.5197  1.8503
52422SOL     OW63228  12.333   0.085   9.251  0.5118  0.0525  0.5501
52422SOL    HW163229  12.237   0.084   9.251  0.5008  0.5764 -0.1178
52422SOL    HW263230  12.358   0.027   9.179  0.6683  0.8523 -0.0551
52423SOL     OW63231   9.521   1.694   9.344  0.1057 -0.4628 -0.4261
52423SOL    HW163232   9.457   1.755   9.382 -1.0156 -1.4604 -0.6542
52423SOL    HW263233   9.567   1.746   9.278 -0.7488  0.1697 -0.5350
52424SOL     OW63234   0.561   2.796   1.303  0.7833 -0.5116 -0.2883
52424SOL    HW163235   0.598   2.881   1.278 -0.3321  0.4135  1.0847
52424SOL    HW263236   0.474   2.816   1.336 -0.0304 -2.3598 -1.1285
52425SOL     OW63237   6.247   5.812   8.622  0.1565 -0.1102  0.1559
52425SOL    HW163238   6.313   5.743   8.613 -0.8283 -0.8551 -2.6089
52425SOL    HW263239   6.243   5.852   8.535 -2.0083  0.8761  0.6466
52426SOL     OW63240   8.498   5.380   6.892 -0.7657  0.6729 -0.2285
52426SOL    HW163241   8.455   5.295   6.905 -1.3794  0.9681 -0.2720
52426SOL    HW263242   8.431   5.444   6.917 -0.6575  1.1653 -1.1614
52427SOL     OW63243   1.305   2.120   0.136 -0.3063 -0.2401 -0.5734
52427SOL    HW163244   1.317   2.060   0.063 -0.9126 -0.0039 -0.8760
52427SOL    HW263245   1.394   2.143   0.164  0.0108  1.4705 -2.7254
52428SOL     OW63246  10.285   1.288   8.134 -0.3290  0.2113  0.4208
52428SOL    HW163247  10.193   1.264   8.129 -0.5752  1.3343 -2.2270
52428SOL    HW263248  10.323   1.255   8.052  1.0166  1.9408  0.2769
52429SOL     OW63249  12.198   3.655   4.733 -0.6061  0.1988 -0.6216
52429SOL    HW163250  12.223   3.569   4.766 -0.1339  1.3703  2.3527
52429SOL    HW263251  12.162   3.700   4.809  0.2364  3.0525 -1.8013
52430SOL     OW63252   4.564   3.055   4.991 -0.3463  0.3825  0.4396
52430SOL    HW163253   4.523   3.133   4.953 -2.0337 -0.3724  0.5897
52430SOL    HW263254   4.617   3.019   4.921 -2.5839 -0.4046 -0.9462
52431SOL     OW63255   7.668  10.076   5.866 -0.3138 -0.0560 -0.0118
52431SOL    HW163256   7.736  10.131   5.904 -0.5519  0.6864 -0.6365
52431SOL    HW263257   7.613  10.050   5.940 -0.7201  1.2838  0.1636
52432SOL     OW63258   7.520   5.966   7.844 -0.5015  0.2508  0.4843
52432SOL    HW163259   7.427   5.963   7.863 -0.5610  1.8146  0.5621
52432SOL    HW263260   7.562   5.927   7.920 -1.0701 -0.4416  0.4590
52433SOL     OW63261   2.875   9.973  10.534  0.2879  0.4967  0.6472
52433SOL    HW163262   2.810   9.927  10.588  0.2345 -1.2775 -0.8311
52433SOL    HW263263   2.823  10.035  10.482  0.0517  0.5994  1.0036
52434SOL     OW63264   5.301   4.608   7.005  0.0025 -0.0781  0.0553
52434SOL    HW163265   5.259   4.693   7.019  3.7977  2.0311 -0.0642
52434SOL    HW263266   5.367   4.602   7.075  0.3293 -2.6530 -0.3683
52435SOL     OW63267  11.830   4.815  12.048 -0.0651  0.3548 -0.8222
52435SOL    HW163268  11.781   4.760  11.986 -0.3836 -0.2500 -0.0548
52435SOL    HW263269  11.763   4.871  12.087 -0.3763 -1.1189  0.9234
52436SOL     OW63270  10.373   1.375   4.044 -0.4023  0.1311  0.2213
52436SOL    HW163271  10.423   1.436   4.098 -0.2923 -0.2161  0.5176
52436SOL    HW263272  10.339   1.310   4.106 -0.3986 -0.1875 -0.1060
52437SOL     OW63273  11.769   5.972   4.459  0.8336  0.2548  0.3250
52437SOL    HW163274  11.794   6.052   4.412 -0.6432 -0.6018 -2.1260
52437SOL    HW263275  11.794   5.901   4.399 -2.7433 -0.8280 -0.1068
52438SOL     OW63276   9.341   6.242   1.375  0.3091 -0.2261  0.4088
52438SOL    HW163277   9.249   6.269   1.383  0.2165 -1.0394  2.8463
52438SOL    HW263278   9.377   6.254   1.463  2.7602  0.7216 -0.6440
52439SOL     OW63279   7.632  12.003   3.837  0.4935 -0.1778 -0.0257
52439SOL    HW163280   7.692  12.069   3.873  2.8277 -2.3684  0.4464
52439SOL    HW263281   7.690  11.941   3.793 -1.5762 -1.9533 -0.3846
52440SOL     OW63282   8.046  11.005   8.152  0.2016 -0.3091 -0.0289
52440SOL    HW163283   8.003  11.001   8.237  0.4840  0.2232  0.1459
52440SOL    HW263284   8.069  11.098   8.141 -1.9963  0.1027 -1.7687
52441SOL     OW63285  12.034   2.256   6.015  0.1736 -0.3574  0.0027
52441SOL    HW163286  11.944   2.276   6.041 -0.6138 -0.1894 -2.6200
52441SOL    HW263287  12.083   2.336   6.032 -0.3727 -0.1135  0.4689
52442SOL     OW63288   6.898   5.859   7.993 -0.1161 -0.0248 -0.0526
52442SOL    HW163289   6.935   5.848   7.906  0.2309 -0.2375  0.1221
52442SOL    HW263290   6.974   5.870   8.050 -0.3397  0.0391  0.2344
52443SOL     OW63291   1.428   9.454  10.133 -0.0186  0.0228 -0.4402
52443SOL    HW163292   1.349   9.415  10.095  0.0510 -0.1369 -0.4194
52443SOL    HW263293   1.405   9.547  10.145 -0.3900 -0.1251  0.0576
52444SOL     OW63294   8.558  10.670   0.344  0.4787  0.3772  0.1553
52444SOL    HW163295   8.613  10.591   0.338  0.1072  0.0719  0.6452
52444SOL    HW263296   8.490  10.646   0.407 -1.2306  0.1260 -1.6770
52445SOL     OW63297   5.413   8.349   4.257 -0.7655 -0.0241 -0.4307
52445SOL    HW163298   5.360   8.278   4.294 -0.6651 -0.9176 -1.9160
52445SOL    HW263299   5.490   8.305   4.220  1.6610  1.3190  2.5444
52446SOL     OW63300   8.822  11.137   3.672 -0.6940 -0.3793  0.6985
52446SOL    HW163301   8.883  11.084   3.620 -0.7417 -0.6436  0.9073
52446SOL    HW263302   8.741  11.086   3.674 -1.8261  1.1460 -1.7760
52447SOL     OW63303   4.866   3.109   6.423  0.0852  0.3348 -0.0534
52447SOL    HW163304   4.825   3.186   6.462 -2.2504  0.0121 -1.6076
52447SOL    HW263305   4.886   3.135   6.333  2.5849  0.1631  0.3793
52448SOL     OW63306   9.147   9.561   8.287 -0.4957  0.1291  0.2056
52448SOL    HW163307   9.190   9.642   8.317  0.1487  0.5977 -1.8201
52448SOL    HW263308   9.059   9.590   8.261  0.2941  0.6339 -2.1989
52449SOL     OW63309   5.792   8.940   4.860 -0.4272  0.1173 -0.5651
52449SOL    HW163310   5.718   8.987   4.900  0.0487  0.3114  0.1066
52449SOL    HW263311   5.763   8.849   4.856 -0.0151 -0.1714  1.4952
52450SOL     OW63312   8.428   3.713   1.672  0.5444  0.1187 -0.6112
52450SOL    HW163313   8.370   3.651   1.714 -0.4774  0.1773 -1.8596
52450SOL    HW263314   8.439   3.783   1.736  0.6512 -0.7134  0.3010
52451SOL     OW63315  11.665   9.656   9.707 -0.0076 -0.2930  0.0780
52451SOL    HW163316  11.643   9.692   9.621  1.0304  1.7994  0.6156
52451SOL    HW263317  11.743   9.603   9.691  0.5941  0.6425 -0.2044
52452SOL     OW63318  10.455  10.040   0.195  0.9412 -0.1314 -0.0689
52452SOL    HW163319  10.394  10.097   0.149  2.3586 -0.5786 -2.7162
52452SOL    HW263320  10.496  10.096   0.261 -0.0680  0.9851 -0.3694
52453SOL     OW63321   9.721   1.333   0.201  0.1935 -0.1560 -0.4336
52453SOL    HW163322   9.706   1.413   0.150  2.1269  0.2231 -0.4947
52453SOL    HW263323   9.676   1.349   0.284  0.6946  1.0927 -0.3812
52454SOL     OW63324  10.152   5.010   9.870  0.4991  0.2311 -0.1464
52454SOL    HW163325  10.063   5.039   9.851 -0.3806 -0.6610  2.2270
52454SOL    HW263326  10.208   5.080   9.838 -1.1522  1.4324 -0.5024
52455SOL     OW63327   3.100   7.623   6.206  0.7421 -0.4453 -0.3816
52455SOL    HW163328   3.134   7.538   6.235  1.2872 -0.4435 -0.9961
52455SOL    HW263329   3.051   7.657   6.282  0.7000 -1.2068 -0.0634
52456SOL     OW63330   3.183   1.407   2.405  0.0951  0.6236 -0.2471
52456SOL    HW163331   3.118   1.476   2.403  0.9170  1.4144 -0.4145
52456SOL    HW263332   3.137   1.331   2.441 -1.5241  0.4687 -2.4733
52457SOL     OW63333   9.849   9.280   6.691  0.0079  0.1015 -0.7103
52457SOL    HW163334   9.831   9.196   6.734 -0.1446  0.2852 -0.4152
52457SOL    HW263335   9.848   9.344   6.762 -0.9227  0.5064 -1.0745
52458SOL     OW63336   3.902  10.216   4.449  0.0079  0.3963  0.5983
52458SOL    HW163337   3.980  10.162   4.442  0.0069  0.4296  0.3284
52458SOL    HW263338   3.921  10.293   4.395  1.2093  2.0928  3.2358
52459SOL     OW63339   2.326   4.540  11.513 -0.5411 -0.3572 -0.0733
52459SOL    HW163340   2.297   4.550  11.604  0.9466 -2.5337  0.7265
52459SOL    HW263341   2.353   4.628  11.487 -0.0079  0.1377  1.9708
52460SOL     OW63342   0.209   3.354   4.358  0.0602 -0.7800 -0.5532
52460SOL    HW163343   0.286   3.310   4.394 -0.2944 -0.3654  0.7865
52460SOL    HW263344   0.242   3.440   4.330  0.0763 -0.5477  0.1504
52461SOL     OW63345   0.464   7.717  11.820 -0.2545  0.0574 -0.0428
52461SOL    HW163346   0.515   7.636  11.825  0.7895  0.7251  0.7761
52461SOL    HW263347   0.522   7.779  11.776 -0.3500  0.8215  0.8573
52462SOL     OW63348   8.262   9.817   8.014 -0.0024  0.5736 -0.4501
52462SOL    HW163349   8.320   9.745   8.035  0.1521  0.4976 -1.0991
52462SOL    HW263350   8.236   9.854   8.098 -1.1818 -1.0884 -0.0429
52463SOL     OW63351   9.318   5.856   8.158 -0.0860  0.0381  0.0779
52463SOL    HW163352   9.306   5.796   8.084 -1.2490 -1.6579  1.5209
52463SOL    HW263353   9.246   5.834   8.217  0.1572  2.0975  1.2284
52464SOL     OW63354  12.361   0.066   3.115  0.4573  0.0073  0.0261
52464SOL    HW163355  12.301   0.129   3.156 -0.1799  0.7901 -1.9761
52464SOL    HW263356  12.411   0.030   3.188 -0.5297  1.3832  1.4641
52465SOL     OW63357   9.499   3.144   4.168  0.1047  0.2192 -0.0461
52465SOL    HW163358   9.431   3.188   4.219  0.3707  2.2842 -1.3357
52465SOL    HW263359   9.578   3.196   4.183  1.2767 -1.7205  0.8686
52466SOL     OW63360   8.006   7.743  10.438 -0.4949 -0.6360  0.0066
52466SOL    HW163361   8.040   7.706  10.519 -0.7875 -0.5542  0.1682
52466SOL    HW263362   8.083   7.752  10.381  0.1155  1.4319  1.0742
52467SOL     OW63363   1.523  11.421   5.791 -0.2718 -0.1268  0.0850
52467SOL    HW163364   1.464  11.435   5.717  0.6164 -1.4066 -0.9177
52467SOL    HW263365   1.580  11.498   5.791 -1.1983  0.5810  0.3781
52468SOL     OW63366  10.993  10.045   6.919 -0.2702  0.4599  0.1578
52468SOL    HW163367  11.005  10.140   6.922  1.4234  0.2565  0.9235
52468SOL    HW263368  11.013  10.015   7.008  1.8912 -0.8622 -0.6834
52469SOL     OW63369   7.378   3.192   3.787  0.1362 -0.4115  0.2038
52469SOL    HW163370   7.438   3.192   3.713 -0.4752 -0.7098 -0.3069
52469SOL    HW263371   7.293   3.214   3.749 -0.3161 -1.2290  0.7046
52470SOL     OW63372   9.699   1.211   8.776 -0.1681  0.6430  0.7189
52470SOL    HW163373   9.639   1.236   8.707  0.2919 -0.3569 -0.0694
52470SOL    HW263374   9.782   1.250   8.752 -0.0102  0.3044  0.7026
52471SOL     OW63375  11.225   4.789  10.791 -0.1867  0.0828 -0.0197
52471SOL    HW163376  11.314   4.824  10.779  0.3504 -1.6276 -1.5501
52471SOL    HW263377  11.174   4.829  10.721 -0.7614  1.3260  1.0624
52472SOL     OW63378  11.834   9.387   7.001  0.1104 -0.1225  0.1557
52472SOL    HW163379  11.769   9.329   6.961 -0.5847 -0.1720  1.3292
52472SOL    HW263380  11.784   9.462   7.032  0.4780 -0.4668  1.6776
52473SOL     OW63381   1.267   8.190  12.120  0.0117 -0.6329 -0.1241
52473SOL    HW163382   1.292   8.099  12.136  0.2008 -0.7348 -0.9351
52473SOL    HW263383   1.248   8.194  12.026  0.6872  0.3216 -0.2400
52474SOL     OW63384   3.383   6.243   0.559 -0.5020 -0.6362 -0.1367
52474SOL    HW163385   3.291   6.235   0.532 -0.3927 -0.4399 -0.5791
52474SOL    HW263386   3.409   6.329   0.527 -0.2164 -0.6152  0.1534
52475SOL     OW63387   1.056  11.996  10.521  0.1989 -0.2077 -0.3448
52475SOL    HW163388   1.088  11.969  10.607  2.8056 -0.4341 -1.2800
52475SOL    HW263389   1.061  12.091  10.522 -1.0103 -0.1369  0.1590
52476SOL     OW63390  10.842   1.019   0.672 -0.2579 -0.6619  0.3189
52476SOL    HW163391  10.836   0.988   0.763  1.6337  0.7595  0.9795
52476SOL    HW263392  10.903   0.958   0.630  0.3974 -0.1652  0.5449
52477SOL     OW63393   0.479   5.055   4.796  0.0106 -0.4855 -0.1593
52477SOL    HW163394   0.445   4.996   4.729 -0.9045  0.7097 -0.7796
52477SOL    HW263395   0.403   5.073   4.853  0.3057  0.0023  0.0860
52478SOL     OW63396   0.708   1.920   8.161  0.0751  0.1410  0.6353
52478SOL    HW163397   0.627   1.870   8.161  1.5230 -2.4382  1.8568
52478SOL    HW263398   0.775   1.856   8.134  1.8976  1.7768  1.0765
52479SOL     OW63399   2.398   0.063   5.906 -0.3679 -0.1560 -0.1923
52479SOL    HW163400   2.442   0.143   5.935 -0.5093 -0.0023 -0.4046
52479SOL    HW263401   2.463  -0.006   5.920 -0.1467  0.0345 -0.2713
52480SOL     OW63402   8.281  11.198   1.654  0.5479  0.3641  0.5213
52480SOL    HW163403   8.200  11.238   1.687  0.3999  1.1263 -0.7048
52480SOL    HW263404   8.254  11.154   1.573  1.1388 -0.4106  0.7369
52481SOL     OW63405   3.129  10.138   5.001 -0.4564 -0.1707 -0.0900
52481SOL    HW163406   3.161  10.049   4.984 -0.0095  0.1123 -0.7617
52481SOL    HW263407   3.121  10.143   5.096  1.1983 -0.3595  0.0915
52482SOL     OW63408   4.008   1.662   6.687 -0.1612  0.1112  0.1416
52482SOL    HW163409   4.084   1.717   6.701  1.5673 -2.5198  2.0049
52482SOL    HW263410   3.985   1.674   6.595  0.7693  2.9821  0.2067
52483SOL     OW63411   5.187   3.570   1.321  0.4754  0.2373 -0.5632
52483SOL    HW163412   5.227   3.513   1.256  0.8215 -1.3848  0.9847
52483SOL    HW263413   5.097   3.537   1.330  0.9523 -0.7285  1.0107
52484SOL     OW63414   4.064  10.496   7.978 -0.4964  0.2850 -0.2940
52484SOL    HW163415   4.046  10.436   8.050 -0.0763  1.2808  0.6717
52484SOL    HW263416   4.159  10.492   7.966 -0.7518 -1.7699 -2.5400
52485SOL     OW63417   9.116   8.322   6.743  0.1520 -0.2692  0.2504
52485SOL    HW163418   9.178   8.314   6.671  0.6038  0.5570  0.5399
52485SOL    HW263419   9.143   8.254   6.806  0.4673 -0.2268  0.1621
52486SOL     OW63420   5.075   0.520   8.393 -0.6211  0.4357 -0.1509
52486SOL    HW163421   5.011   0.590   8.400 -0.6239  0.5149 -0.8811
52486SOL    HW263422   5.082   0.502   8.299  1.0609  1.0106 -0.1794
52487SOL     OW63423   1.350   3.108   8.317 -0.0580 -0.7905 -0.0853
52487SOL    HW163424   1.310   3.081   8.234 -1.6364 -0.3662  0.5096
52487SOL    HW263425   1.444   3.093   8.304 -0.3852 -1.8437 -1.5270
52488SOL     OW63426   2.544   5.249   8.917 -0.5677  0.4040 -0.1581
52488SOL    HW163427   2.504   5.171   8.880 -0.5598 -0.3119  1.2840
52488SOL    HW263428   2.471   5.300   8.951 -0.4002 -0.2745  1.2895
52489SOL     OW63429   7.744  10.901   2.135 -0.3921 -0.3540  0.0154
52489SOL    HW163430   7.774  10.815   2.166 -2.0018 -1.2299 -0.6872
52489SOL    HW263431   7.802  10.922   2.062 -1.7624 -2.3591 -1.8201
52490SOL     OW63432   9.722   2.015   9.814 -0.3510 -0.2295 -0.6976
52490SOL    HW163433   9.646   2.065   9.782  0.6296  0.5661 -1.8496
52490SOL    HW263434   9.769   1.989   9.735  0.5401 -0.8035 -0.0016
52491SOL     OW63435   4.327   4.030   7.359 -0.3108  0.3471  0.0269
52491SOL    HW163436   4.289   3.959   7.308  0.2269  3.0275 -4.6890
52491SOL    HW263437   4.388   3.987   7.419 -0.7889 -3.1967 -1.7803
52492SOL     OW63438   7.572   9.646   0.565  0.2167 -0.0149  0.1705
52492SOL    HW163439   7.619   9.632   0.647  1.3503 -1.1452 -0.6324
52492SOL    HW263440   7.637   9.629   0.497 -0.7631  0.6449 -0.9757
52493SOL     OW63441   2.982   3.164   1.078  0.2154 -0.4551  0.1516
52493SOL    HW163442   3.047   3.200   1.138 -0.1055  0.5320 -0.0755
52493SOL    HW263443   3.033   3.110   1.017  0.7816  0.0582  0.1629
52494SOL     OW63444   8.968  10.800   5.307 -0.4939 -0.4140  0.3549
52494SOL    HW163445   8.939  10.711   5.284 -1.5259 -0.3484  1.3372
52494SOL    HW263446   8.890  10.843   5.340  0.2890  0.4448  1.1320
52495SOL     OW63447   9.528  10.904   1.910 -0.5604 -0.1936  0.1608
52495SOL    HW163448   9.475  10.968   1.958 -1.1002 -0.7328  0.2931
52495SOL    HW263449   9.582  10.957   1.851  0.8615  0.5780  2.0431
52496SOL     OW63450  11.978   5.743   7.469  0.1975  0.1209  0.1036
52496SOL    HW163451  12.054   5.685   7.482  0.7702  0.2341 -2.1880
52496SOL    HW263452  12.005   5.827   7.508  1.2238  0.1141 -0.5399
52497SOL     OW63453   4.129  10.888   3.594 -0.2347  0.2420  0.1831
52497SOL    HW163454   4.124  10.865   3.501  0.2696  1.3552 -0.1503
52497SOL    HW263455   4.049  10.937   3.611 -1.8312 -2.5348  1.1654
52498SOL     OW63456   3.561   8.288   8.881  0.3325  0.6796  0.0475
52498SOL    HW163457   3.628   8.232   8.920  0.3339 -0.6734 -1.7723
52498SOL    HW263458   3.603   8.374   8.875  1.3169  0.2416  0.3959
52499SOL     OW63459   2.601   3.244   3.706  0.0493 -0.2166  0.0249
52499SOL    HW163460   2.584   3.242   3.800  1.0375 -1.6095  0.2017
52499SOL    HW263461   2.524   3.202   3.667 -0.6157  0.8428  0.1286
52500SOL     OW63462   1.100   8.754   4.945 -0.3489 -0.5869  0.6927
52500SOL    HW163463   1.012   8.792   4.945  0.1739  0.9301 -2.2598
52500SOL    HW263464   1.158   8.830   4.941  1.0095 -1.6093  0.3331
52501SOL     OW63465   4.281   5.115   9.056 -0.3093  0.1910 -0.5041
52501SOL    HW163466   4.365   5.143   9.092  0.3780  0.2716 -2.1140
52501SOL    HW263467   4.218   5.137   9.125  1.1431 -1.4568  1.4877
52502SOL     OW63468   5.546   4.232   3.848 -0.2321  0.0126 -0.2302
52502SOL    HW163469   5.539   4.234   3.944 -0.1137  0.7923 -0.2332
52502SOL    HW263470   5.512   4.316   3.820 -0.3917 -0.2693 -0.8910
52503SOL     OW63471   6.338  10.682   7.681 -0.4163 -0.1051  0.6133
52503SOL    HW163472   6.254  10.729   7.685 -0.7151 -0.6839  1.4654
52503SOL    HW263473   6.349  10.661   7.588 -1.9279 -1.2507  0.6425
52504SOL     OW63474  11.810   9.487   0.171  0.5524  0.2465  0.4936
52504SOL    HW163475  11.832   9.395   0.156 -0.3565  0.1348 -0.1872
52504SOL    HW263476  11.887   9.535   0.139 -0.1452 -0.1333 -1.9912
52505SOL     OW63477  12.028   2.601   7.607  0.4860 -0.7115 -0.1939
52505SOL    HW163478  12.053   2.666   7.542 -1.0133  0.0896  0.0066
52505SOL    HW263479  12.009   2.522   7.557 -0.0836 -0.2719 -0.6741
52506SOL     OW63480   1.211  11.213   4.601 -0.0807 -0.6511  0.0327
52506SOL    HW163481   1.163  11.193   4.521 -0.8486 -0.9351  0.5496
52506SOL    HW263482   1.147  11.200   4.671  0.2239  0.7526  0.6106
52507SOL     OW63483  12.413   8.058   4.383  0.1773 -0.6016  0.0047
52507SOL    HW163484  12.407   8.153   4.389  0.7492 -0.6438  2.9370
52507SOL    HW263485  12.483   8.034   4.444 -0.6672 -2.9566  0.1683
52508SOL     OW63486   0.720   3.343   4.761 -0.5749  0.0822  0.6250
52508SOL    HW163487   0.648   3.380   4.710 -0.6578  0.7594  1.2070
52508SOL    HW263488   0.799   3.373   4.716 -0.6491  0.2444  0.6007
52509SOL     OW63489   0.424   9.873   3.495 -0.2156 -0.4074 -0.1329
52509SOL    HW163490   0.396   9.793   3.451  0.0007 -1.4429  1.5217
52509SOL    HW263491   0.344   9.910   3.531 -0.4684  0.7090 -1.7296
52510SOL     OW63492   4.383   9.712  11.375 -0.8634 -0.2853 -0.4343
52510SOL    HW163493   4.305   9.756  11.341 -0.2584  1.3545  0.2036
52510SOL    HW263494   4.456   9.756  11.331 -0.2354 -0.5902  0.2853
52511SOL     OW63495   1.286   1.499   4.571 -0.2808 -0.6295  0.1514
52511SOL    HW163496   1.221   1.482   4.639 -1.3334 -0.0921 -0.6930
52511SOL    HW263497   1.326   1.413   4.554 -2.2267 -1.4245 -0.7561
52512SOL     OW63498   1.167  11.124   0.617  0.6625 -0.3202  0.2039
52512SOL    HW163499   1.177  11.110   0.712 -0.5860  2.7998  0.9206
52512SOL    HW263500   1.253  11.157   0.589  0.3719  1.0220  0.8030
52513SOL     OW63501  11.256   1.755   6.830 -0.0172  0.0600 -0.2946
52513SOL    HW163502  11.198   1.826   6.857 -0.0768 -0.7640  1.9168
52513SOL    HW263503  11.344   1.788   6.847  0.0427  0.2000 -0.8470
52514SOL     OW63504   9.964   0.651   6.379 -0.2339  0.3196  0.7777
52514SOL    HW163505   9.995   0.643   6.469 -1.1250 -0.3132  1.0383
52514SOL    HW263506   9.917   0.734   6.376 -0.9023 -0.0398  1.1194
52515SOL     OW63507   4.503   4.021  11.803  0.2390 -0.3708 -0.1766
52515SOL    HW163508   4.459   3.952  11.753 -0.8952 -0.1353  0.4517
52515SOL    HW263509   4.433   4.085  11.822  0.6619 -0.3569  1.5221
52516SOL     OW63510   9.856   2.621  11.905  0.3131  0.1877 -0.0777
52516SOL    HW163511   9.845   2.709  11.870  2.5221  0.7442  0.4791
52516SOL    HW263512   9.855   2.633  12.000 -2.3609 -0.8637  0.1219
52517SOL     OW63513   9.263   9.791   2.829 -0.7878  0.3136  0.2594
52517SOL    HW163514   9.175   9.776   2.864 -0.6848 -0.2503  0.2801
52517SOL    HW263515   9.303   9.705   2.827 -0.0829  0.6268  0.6486
52518SOL     OW63516   3.939   0.020   0.644 -0.0665 -0.1664  0.2091
52518SOL    HW163517   3.881  -0.056   0.640 -0.1405 -0.1284  0.5022
52518SOL    HW263518   3.928   0.054   0.733 -0.7848  0.7682 -0.2112
52519SOL     OW63519   4.051   7.606  10.090 -0.0900 -0.0622  0.0784
52519SOL    HW163520   3.978   7.546  10.078 -0.8576  1.0907 -1.2177
52519SOL    HW263521   4.099   7.603  10.007  0.0893  0.8190  0.1374
52520SOL     OW63522  11.255   9.324   0.531  0.2445  0.0785  0.0289
52520SOL    HW163523  11.321   9.333   0.462  1.3904  0.3724  1.1062
52520SOL    HW263524  11.305   9.332   0.612 -1.1193  0.1434  0.8952
52521SOL     OW63525   4.652  11.121  11.015 -0.0103  0.4401  0.6335
52521SOL    HW163526   4.619  11.036  10.989  0.9331  0.5633 -1.1030
52521SOL    HW263527   4.584  11.156  11.073 -1.2700 -0.7288 -0.0668
52522SOL     OW63528   6.642   0.763   6.721 -0.0877  0.1657  0.0305
52522SOL    HW163529   6.563   0.713   6.745  0.3963  0.0985  1.6444
52522SOL    HW263530   6.613   0.824   6.654 -1.3164 -0.4596 -0.0341
52523SOL     OW63531   6.064   6.702   4.060 -0.1767 -0.1041 -0.2000
52523SOL    HW163532   6.096   6.733   4.145 -3.3619 -1.3474  1.6655
52523SOL    HW263533   6.106   6.616   4.048  0.5993  0.2556 -0.1002
52524SOL     OW63534   7.197   7.193   1.868  0.6659  0.2085  0.1093
52524SOL    HW163535   7.262   7.132   1.833  0.8374 -0.0197  0.8163
52524SOL    HW263536   7.164   7.151   1.948  0.1292  0.6252  0.1203
52525SOL     OW63537   0.561  10.650   5.204 -0.5210 -0.3754  0.3158
52525SOL    HW163538   0.521  10.715   5.263 -0.9335  0.0063 -0.3756
52525SOL    HW263539   0.640  10.622   5.250 -1.5894 -1.1883  1.7464
52526SOL     OW63540  12.215   1.048  12.143 -0.1069  0.1520 -0.0781
52526SOL    HW163541  12.192   1.050  12.236 -0.1142  0.6817 -0.0909
52526SOL    HW263542  12.281   1.117  12.133  0.8711 -0.7760 -0.2113
52527SOL     OW63543   3.035  11.613   0.793  0.2826  0.5487 -0.6879
52527SOL    HW163544   3.031  11.604   0.698  0.6010  0.6692 -0.7132
52527SOL    HW263545   2.943  11.615   0.821  0.1875  1.1233 -1.0454
52528SOL     OW63546   9.328   3.874   9.829 -0.4222  0.3512 -0.1478
52528SOL    HW163547   9.420   3.861   9.804 -0.2673  1.5136 -0.2333
52528SOL    HW263548   9.311   3.966   9.809 -1.5248  0.2197  0.1523
52529SOL     OW63549   1.663   1.209   5.560  0.4142 -0.3710 -0.0332
52529SOL    HW163550   1.744   1.258   5.552 -0.6507  1.2600 -1.6605
52529SOL    HW263551   1.603   1.251   5.498 -0.6078 -3.6924 -1.5569
52530SOL     OW63552  12.000   0.183   3.068  0.1809 -0.3769 -0.6144
52530SOL    HW163553  11.944   0.108   3.090  1.5656 -1.2900 -0.0640
52530SOL    HW263554  12.058   0.192   3.143  0.1590  1.1548 -0.7607
52531SOL     OW63555   4.164  12.090   2.819 -0.5262 -0.1644 -0.2935
52531SOL    HW163556   4.123  12.174   2.840  0.3593  0.4754 -1.0346
52531SOL    HW263557   4.143  12.075   2.727  1.5279  0.5991 -0.9432
52532SOL     OW63558  11.058  11.118   4.268  0.6260  0.1961 -0.7655
52532SOL    HW163559  11.130  11.071   4.311 -1.0050 -1.7529 -0.0391
52532SOL    HW263560  11.012  11.050   4.219 -0.8553  1.3650 -1.0350
52533SOL     OW63561  12.436   8.392   0.207  0.0445 -0.0676 -0.3204
52533SOL    HW163562  12.447   8.357   0.119  2.7351 -1.0303  0.2820
52533SOL    HW263563  12.456   8.318   0.265  0.9842  1.1727  1.0291
52534SOL     OW63564   0.388   0.603   7.571  0.1082 -0.4550  0.1507
52534SOL    HW163565   0.358   0.615   7.661  1.0735  0.1745  0.4011
52534SOL    HW263566   0.420   0.690   7.545  2.0818 -1.1668  0.0461
52535SOL     OW63567   7.583  10.845   4.033  0.0758 -0.0871 -0.1413
52535SOL    HW163568   7.535  10.914   3.988 -0.0690 -1.2230 -1.8059
52535SOL    HW263569   7.585  10.773   3.971  1.8251 -0.9376  0.8352
52536SOL     OW63570   0.112   3.480   9.518 -0.1261  0.4894 -0.5385
52536SOL    HW163571   0.090   3.469   9.426  0.4393 -2.5173 -0.4338
52536SOL    HW263572   0.029   3.497   9.562 -0.7404 -0.3007 -1.3647
52537SOL     OW63573   5.395   6.178   5.100 -0.2288 -0.4842  0.2002
52537SOL    HW163574   5.490   6.174   5.112 -0.1437 -0.7244 -0.5057
52537SOL    HW263575   5.359   6.143   5.181  0.3235 -2.6256 -0.4166
52538SOL     OW63576   0.512   3.604   0.146  0.2053  0.3111 -0.7161
52538SOL    HW163577   0.496   3.513   0.122 -0.0933  0.2071 -0.1368
52538SOL    HW263578   0.607   3.612   0.147  0.2344 -0.0453 -0.5680
52539SOL     OW63579   5.314   5.547   7.185  0.1293  0.3328  0.1125
52539SOL    HW163580   5.332   5.454   7.171  1.7335  0.7180 -0.5466
52539SOL    HW263581   5.360   5.592   7.115  0.2655  1.7094  1.0359
52540SOL     OW63582   6.754   0.254   4.844  0.0256  0.0702  0.0332
52540SOL    HW163583   6.839   0.278   4.882 -0.5928  0.2130  1.3902
52540SOL    HW263584   6.690   0.304   4.895 -0.8084  1.2510 -2.0215
52541SOL     OW63585   7.282  12.350   0.292 -0.2828 -0.4773 -0.2640
52541SOL    HW163586   7.263  12.423   0.233  0.4186  0.8866  1.1076
52541SOL    HW263587   7.303  12.277   0.234 -0.5859  0.5199 -1.6921
52542SOL     OW63588   1.811   2.457   9.910 -0.7009 -0.3955 -0.9875
52542SOL    HW163589   1.724   2.490   9.888 -0.6000  1.0999  0.6445
52542SOL    HW263590   1.801   2.418   9.996  0.0518 -1.1148 -1.2150
52543SOL     OW63591   5.811   3.528   2.999  0.3874  0.1871 -0.2520
52543SOL    HW163592   5.799   3.589   2.927 -0.2751  0.0594 -0.2526
52543SOL    HW263593   5.902   3.541   3.026  0.5841  0.3690 -0.9796
52544SOL     OW63594   9.123   9.146   9.580 -0.1872  0.5116 -0.0772
52544SOL    HW163595   9.088   9.145   9.669  1.2832 -2.2051  0.5879
52544SOL    HW263596   9.111   9.056   9.549 -1.6942  1.6197 -3.1405
52545SOL     OW63597  12.144  10.126   9.265 -0.1705  0.0952 -0.1894
52545SOL    HW163598  12.214  10.112   9.329  0.0830  1.2403 -0.1930
52545SOL    HW263599  12.104  10.040   9.254  0.4758 -0.3382  0.7031
52546SOL     OW63600   4.310  10.894   4.978  0.3621 -0.2819 -0.0062
52546SOL    HW163601   4.367  10.845   4.918 -0.7540  1.7150 -2.9540
52546SOL    HW263602   4.280  10.968   4.926 -2.8412  0.1877  2.2495
52547SOL     OW63603   0.688   8.842   0.384  0.6519  0.3647  0.3488
52547SOL    HW163604   0.661   8.819   0.473 -1.2454  0.4397 -0.1462
52547SOL    HW263605   0.773   8.800   0.373  0.8131  0.1313  2.0970
52548SOL     OW63606   9.368  11.564  11.853 -0.6682  0.1285  0.0414
52548SOL    HW163607   9.314  11.605  11.785 -1.1174  1.4295  1.1265
52548SOL    HW263608   9.407  11.637  11.900  0.2688 -0.7611  0.6863
52549SOL     OW63609  10.792   5.890   2.466 -0.1967  0.0768 -0.0685
52549SOL    HW163610  10.762   5.803   2.491  1.1703 -0.3455  0.1861
52549SOL    HW263611  10.761   5.902   2.377 -0.3922 -0.6808 -0.1056
52550SOL     OW63612   6.204   3.485  10.983 -0.1098  0.0347  0.5313
52550SOL    HW163613   6.235   3.563  11.029 -1.1891  1.8502 -1.5866
52550SOL    HW263614   6.109   3.496  10.977 -0.1023 -0.4632 -1.3983
52551SOL     OW63615   7.524   3.314   1.758 -0.6470 -0.3957  0.3285
52551SOL    HW163616   7.587   3.245   1.738 -2.5671 -1.9535 -0.7535
52551SOL    HW263617   7.517   3.314   1.854  1.2968  0.1701  0.5107
52552SOL     OW63618   6.930   6.296  10.409 -0.5960 -0.0798 -0.3829
52552SOL    HW163619   7.004   6.342  10.449 -0.4613 -0.7439  0.1581
52552SOL    HW263620   6.928   6.327  10.319  1.9232 -1.8778 -1.1858
52553SOL     OW63621   6.584   6.314   3.932 -0.2499  0.0164 -0.1617
52553SOL    HW163622   6.574   6.230   3.977 -1.5145  0.3650  0.2486
52553SOL    HW263623   6.504   6.323   3.881 -0.6688  1.5128  0.7289
52554SOL     OW63624   0.079   8.851   9.851  0.0724 -0.6146  0.0196
52554SOL    HW163625   0.143   8.885   9.913  0.5374  0.3275 -0.9553
52554SOL    HW263626   0.001   8.904   9.865 -0.3853 -1.4837  0.9106
52555SOL     OW63627   5.867   9.526  11.551 -0.0448 -0.0805  0.5484
52555SOL    HW163628   5.924   9.472  11.606 -0.1787  0.5107  1.2774
52555SOL    HW263629   5.916   9.535  11.469 -0.5206 -2.2383 -0.0311
52556SOL     OW63630  10.395  12.385   4.123  0.3112  0.3422 -0.2176
52556SOL    HW163631  10.352  12.431   4.194 -1.1471  0.2928 -1.0365
52556SOL    HW263632  10.414  12.298   4.158 -1.2133  0.0166 -0.1512
52557SOL     OW63633   2.804   8.532   5.375 -0.5665  0.0604  0.0402
52557SOL    HW163634   2.726   8.491   5.412 -1.0369  0.8499 -0.0675
52557SOL    HW263635   2.823   8.480   5.297 -0.4346 -0.7014  0.5631
52558SOL     OW63636   0.485   2.354  11.057  0.3883 -0.7663 -0.3116
52558SOL    HW163637   0.426   2.346  10.982 -0.4935 -2.3233  0.5031
52558SOL    HW263638   0.494   2.265  11.090  2.5407 -0.4298  0.1134
52559SOL     OW63639   2.845   7.631   5.507 -0.2514  0.4974 -0.1453
52559SOL    HW163640   2.858   7.549   5.458  0.4803  0.7272 -0.3444
52559SOL    HW263641   2.793   7.686   5.448 -1.0039  0.0753  0.1086
52560SOL     OW63642   4.764   6.395   7.278  0.7471  0.0125 -0.0409
52560SOL    HW163643   4.686   6.449   7.267 -1.3826 -2.9573 -0.8378
52560SOL    HW263644   4.837   6.453   7.256 -1.4506  2.0341 -2.6123
52561SOL     OW63645  11.489   3.549   1.254  0.7437 -0.1693 -0.1921
52561SOL    HW163646  11.517   3.637   1.279 -0.5440 -0.0045  0.7656
52561SOL    HW263647  11.561   3.516   1.200  1.9124  0.9112  0.6248
52562SOL     OW63648   7.164   7.482   7.160  0.5487 -0.4679 -0.3930
52562SOL    HW163649   7.239   7.525   7.119  1.6632 -1.8404  0.1089
52562SOL    HW263650   7.200   7.441   7.239 -1.1234  0.3855  0.8932
52563SOL     OW63651   8.550   8.428   0.141 -0.2860 -0.2581 -0.1306
52563SOL    HW163652   8.578   8.390   0.058 -0.6254  1.3271 -1.0155
52563SOL    HW263653   8.464   8.390   0.157 -0.0751 -0.8226 -0.3297
52564SOL     OW63654   8.618   1.510   4.352 -0.8909  0.6009 -0.4631
52564SOL    HW163655   8.662   1.593   4.369  1.5601 -0.5525 -0.7156
52564SOL    HW263656   8.598   1.512   4.259 -0.7428  0.8490 -0.4904
52565SOL     OW63657   5.358   4.623   0.736 -0.3176 -0.4162  0.4612
52565SOL    HW163658   5.281   4.623   0.680 -0.3978 -1.3406  0.5553
52565SOL    HW263659   5.388   4.532   0.736  3.0348  0.4602 -2.6299
52566SOL     OW63660  11.704   6.183   6.900 -0.6053  0.2244  0.1493
52566SOL    HW163661  11.758   6.112   6.867  0.1436  0.3697  1.0434
52566SOL    HW263662  11.682   6.157   6.990 -0.6061  0.9667  0.3662
52567SOL     OW63663   8.644  10.444   1.329 -0.3300  0.0819  0.1475
52567SOL    HW163664   8.642  10.534   1.296  2.3671 -0.5730 -2.1214
52567SOL    HW263665   8.700  10.449   1.407  2.2733  0.0216 -1.6112
52568SOL     OW63666   5.917   2.231   4.279  0.0439 -0.3107  0.2313
52568SOL    HW163667   5.906   2.308   4.224  0.3788  0.3222  1.0164
52568SOL    HW263668   5.834   2.223   4.326  0.1689 -0.1605  0.4786
52569SOL     OW63669  11.393   6.735   3.494 -0.5529  0.7845  0.1637
52569SOL    HW163670  11.330   6.741   3.423 -1.5941 -2.2208  0.6922
52569SOL    HW263671  11.474   6.704   3.452 -1.2496 -1.2738  0.2229
52570SOL     OW63672   3.144   8.038  11.997 -0.2177  0.2950 -0.1456
52570SOL    HW163673   3.063   8.042  11.945 -0.3111 -1.2176 -0.1455
52570SOL    HW263674   3.117   7.997  12.079  0.0208  2.2652  0.9716
52571SOL     OW63675   2.631   6.344  10.761  0.0108  0.1308 -0.6937
52571SOL    HW163676   2.675   6.328  10.844  0.2777 -0.4644 -0.9422
52571SOL    HW263677   2.542   6.372  10.785  0.3366  0.7655 -0.2034
52572SOL     OW63678  12.128   8.912  11.202 -0.3537 -0.4872  0.4625
52572SOL    HW163679  12.093   8.991  11.244  0.9897  0.1695  0.4041
52572SOL    HW263680  12.160   8.859  11.275 -4.6435 -2.8761  0.9302
52573SOL     OW63681  11.540   2.325   2.256  0.4508 -0.0765 -0.2600
52573SOL    HW163682  11.576   2.264   2.321  1.2875 -0.6559 -1.2230
52573SOL    HW263683  11.509   2.400   2.307 -0.6961 -1.3453  0.9653
52574SOL     OW63684   4.163   4.308   3.396 -0.6241  0.1836 -0.0005
52574SOL    HW163685   4.132   4.395   3.421 -1.3691 -0.2686  0.7026
52574SOL    HW263686   4.087   4.267   3.355 -1.4118 -1.3437  2.7281
52575SOL     OW63687  12.454   5.133   7.776 -0.2501 -0.4381 -0.3117
52575SOL    HW163688  12.371   5.088   7.760 -0.4677 -1.3316  2.6574
52575SOL    HW263689  12.511   5.066   7.813  0.4707  0.9802  1.3079
52576SOL     OW63690   6.411   5.771   4.127  0.1733 -0.8281 -0.2165
52576SOL    HW163691   6.419   5.813   4.041  1.1400  1.7538  0.9924
52576SOL    HW263692   6.473   5.699   4.124  1.5995  0.3622 -1.1389
52577SOL     OW63693   1.963   4.857   0.006 -0.5227 -0.2042  0.3069
52577SOL    HW163694   2.037   4.883  -0.048  0.5287 -2.2032  0.7019
52577SOL    HW263695   1.893   4.836  -0.057  0.0502 -0.6233 -0.2016
52578SOL     OW63696   3.494   1.862   1.542  0.3070 -0.0857 -0.1208
52578SOL    HW163697   3.443   1.887   1.465  0.8849  2.2808  0.1675
52578SOL    HW263698   3.488   1.939   1.599  1.8365 -0.8763  1.1565
52579SOL     OW63699  11.799  10.568   4.041  0.2120 -0.0093 -0.3535
52579SOL    HW163700  11.873  10.567   4.101  0.2936  0.2183 -0.4483
52579SOL    HW263701  11.837  10.592   3.956 -0.1649  1.4736 -0.1266
52580SOL     OW63702   9.753   4.961   8.319  0.0380 -0.1473  0.4057
52580SOL    HW163703   9.756   4.995   8.409 -0.9909 -1.8404  1.1248
52580SOL    HW263704   9.745   5.039   8.264  1.0638  0.9577  1.7339
52581SOL     OW63705  11.286   1.694   0.716  0.3154 -0.3418 -0.0323
52581SOL    HW163706  11.266   1.614   0.667  1.5642 -0.4091 -0.4763
52581SOL    HW263707  11.201   1.725   0.746 -0.6834  0.2565 -3.0889
52582SOL     OW63708   9.140  11.596   1.437  0.6428  0.0941 -0.4848
52582SOL    HW163709   9.194  11.530   1.393  0.6724 -0.8039  0.8173
52582SOL    HW263710   9.186  11.612   1.520 -0.7285 -0.2046  0.3584
52583SOL     OW63711   2.712   5.811  11.189  0.0521 -0.7913 -0.0001
52583SOL    HW163712   2.720   5.762  11.107 -1.8000 -1.9976  0.4840
52583SOL    HW263713   2.731   5.747  11.257 -0.4598 -0.3327  0.5873
52584SOL     OW63714   8.897   2.072   0.191  0.3040  0.0416 -0.3441
52584SOL    HW163715   8.930   2.154   0.226  2.3965 -0.6655 -0.5440
52584SOL    HW263716   8.802   2.085   0.186  0.1986  1.2497  2.6644
52585SOL     OW63717   5.035   3.792  11.305 -0.0275 -0.1169 -0.0730
52585SOL    HW163718   5.100   3.839  11.358  1.2640 -0.9801 -0.8356
52585SOL    HW263719   5.087   3.732  11.251 -1.4030 -0.1652 -1.4035
52586SOL     OW63720   9.750   7.545   7.748 -0.1314 -0.0323 -0.0317
52586SOL    HW163721   9.715   7.578   7.665  1.8029 -1.4300 -1.5052
52586SOL    HW263722   9.764   7.623   7.801  0.1819  1.0821 -1.6799
52587SOL     OW63723   1.503   0.829  11.932 -0.2139 -0.7546  0.0859
52587SOL    HW163724   1.593   0.814  11.959 -0.1938  1.3947  1.4852
52587SOL    HW263725   1.497   0.924  11.919 -1.9915 -0.9674 -1.1170
52588SOL     OW63726   5.038   5.617   1.375  0.3610 -0.1378 -0.3107
52588SOL    HW163727   5.125   5.658   1.376  0.2812  0.0467  0.7346
52588SOL    HW263728   5.045   5.546   1.439 -0.4878  0.4001  0.4033
52589SOL     OW63729   5.476   9.784   0.531  0.2863  0.5666 -0.3987
52589SOL    HW163730   5.419   9.852   0.567  0.2507  1.3284 -1.8322
52589SOL    HW263731   5.421   9.737   0.469  0.3298 -0.7732  0.5199
52590SOL     OW63732   5.323   5.589  10.249  0.4755  0.2845 -0.4920
52590SOL    HW163733   5.393   5.525  10.261  0.5221  0.2214 -1.0752
52590SOL    HW263734   5.331   5.616  10.157 -0.1459  0.4161 -0.5096
52591SOL     OW63735   2.186   9.408  11.270 -0.7430  0.2870  0.3455
52591SOL    HW163736   2.238   9.362  11.204 -1.4311 -1.0023  0.6814
52591SOL    HW263737   2.234   9.490  11.284 -0.3137  0.3895 -1.3888
52592SOL     OW63738   9.206   6.520   7.560  0.3379 -0.5857  0.2222
52592SOL    HW163739   9.276   6.528   7.625  0.4552  1.1776 -0.0615
52592SOL    HW263740   9.125   6.527   7.611  0.4266  0.5715  0.2295
52593SOL     OW63741   9.523  12.085   6.836 -0.6765 -0.3624 -0.1582
52593SOL    HW163742   9.447  12.058   6.888  0.5270 -0.9514  1.4000
52593SOL    HW263743   9.547  12.170   6.871 -1.1589  0.2581 -1.2940
52594SOL     OW63744   9.413   9.158  11.551  0.6176  0.0399 -0.4783
52594SOL    HW163745   9.380   9.073  11.523  1.3693  0.2832 -2.2245
52594SOL    HW263746   9.508   9.149  11.548  0.7363  0.3438  1.3160
52595SOL     OW63747   4.532   6.614   4.227 -0.5298  0.0038  0.3244
52595SOL    HW163748   4.542   6.520   4.236 -2.0612 -0.2214 -0.0929
52595SOL    HW263749   4.533   6.648   4.316 -2.3594 -0.7030  0.6557
52596SOL     OW63750   6.456   4.636   7.336 -0.4286  0.2459 -0.2001
52596SOL    HW163751   6.501   4.659   7.254  0.4022 -0.3484  0.0713
52596SOL    HW263752   6.408   4.556   7.315  0.7773 -0.6167  0.1931
52597SOL     OW63753   4.546   7.017   9.358  0.3910  0.2201 -0.6293
52597SOL    HW163754   4.499   7.058   9.431  0.0133 -1.6989  0.2658
52597SOL    HW263755   4.638   7.039   9.374  0.1364  1.3384 -0.6176
52598SOL     OW63756   2.516   9.730   2.638 -0.3923 -0.4602  0.0699
52598SOL    HW163757   2.422   9.746   2.638 -0.1465  1.4084 -1.4515
52598SOL    HW263758   2.546   9.762   2.723 -1.2565 -2.2762  1.1043
52599SOL     OW63759   2.826   0.315   2.931 -0.3668 -0.5234  0.0592
52599SOL    HW163760   2.846   0.257   3.005 -2.4432 -1.5493 -0.1160
52599SOL    HW263761   2.900   0.303   2.871  0.3042 -1.3027  1.0029
52600SOL     OW63762   8.899   1.060   4.454 -0.5591  0.1248 -0.2462
52600SOL    HW163763   8.864   1.147   4.478  0.0245  0.2492  0.1707
52600SOL    HW263764   8.906   1.063   4.359 -2.7463 -0.3123 -0.4777
52601SOL     OW63765  10.767   4.156   7.615 -0.0307  0.0326 -0.3096
52601SOL    HW163766  10.737   4.108   7.537 -1.8867  0.4511  0.0931
52601SOL    HW263767  10.769   4.090   7.684  1.8362 -0.3889 -0.7118
52602SOL     OW63768   4.615   9.067   3.666  0.3288  0.2467  0.3246
52602SOL    HW163769   4.544   9.131   3.662 -0.3940 -0.4798  1.0484
52602SOL    HW263770   4.578   8.987   3.628  1.0585  0.1075 -0.1152
52603SOL     OW63771   9.482   2.186   2.230 -0.4550 -0.5611  0.1463
52603SOL    HW163772   9.503   2.104   2.185  0.9728  0.7847 -1.7866
52603SOL    HW263773   9.544   2.190   2.303  0.0219 -0.8225 -0.2377
52604SOL     OW63774   1.036  11.965   0.880 -0.3816 -0.4183  0.9692
52604SOL    HW163775   0.951  11.936   0.913  0.7266 -1.3279  3.2158
52604SOL    HW263776   1.061  12.037   0.938 -1.2188  2.5190 -2.0057
52605SOL     OW63777   5.404   2.304   6.304 -0.0612  0.0700  0.1537
52605SOL    HW163778   5.440   2.229   6.353 -1.1255 -0.1432  0.6365
52605SOL    HW263779   5.462   2.313   6.228  0.9014 -0.3626  0.8226
52606SOL     OW63780  10.378   9.954   9.973 -0.6655 -0.1433 -0.0437
52606SOL    HW163781  10.394   9.976  10.064  1.3737  1.0206 -0.6170
52606SOL    HW263782  10.303   9.894   9.975 -1.1047  0.3987  2.3009
52607SOL     OW63783   8.608   6.982   6.125 -0.6543 -0.5361  0.2692
52607SOL    HW163784   8.588   6.998   6.033  0.7024  1.4685  0.2528
52607SOL    HW263785   8.701   7.003   6.133 -0.7120 -0.8331  2.0586
52608SOL     OW63786   4.880   2.183  10.732  0.3894 -0.4810 -0.2771
52608SOL    HW163787   4.866   2.278  10.733  0.8564 -0.4051  0.5202
52608SOL    HW263788   4.792   2.146  10.734  0.2039 -0.0393  1.1381
52609SOL     OW63789   7.546  11.061  10.090 -0.1293 -0.3509 -0.3972
52609SOL    HW163790   7.593  11.090  10.013  0.5902  2.1482  0.8621
52609SOL    HW263791   7.606  11.002  10.136  0.4572  0.1950 -0.4650
52610SOL     OW63792   8.859  11.964  11.334  0.5661  0.0644  0.0708
52610SOL    HW163793   8.919  11.996  11.266 -0.3138 -0.4985 -1.0176
52610SOL    HW263794   8.795  12.034  11.343 -0.2218 -0.5064 -0.8639
52611SOL     OW63795   5.752   8.570   7.993 -0.2749 -0.4450 -0.2063
52611SOL    HW163796   5.684   8.634   8.013  0.2327 -0.3716  1.4086
52611SOL    HW263797   5.706   8.486   7.995 -0.5498 -0.3021 -0.3555
52612SOL     OW63798   0.882  11.132   0.896 -0.3023  0.4243  0.3940
52612SOL    HW163799   0.883  11.177   0.811  0.2001  0.2931  0.3253
52612SOL    HW263800   0.942  11.183   0.950  0.1645 -0.0795  0.3557
52613SOL     OW63801  10.728   8.624  11.928  0.2040  0.2337 -0.1044
52613SOL    HW163802  10.811   8.645  11.886 -0.4669 -0.0018 -1.6168
52613SOL    HW263803  10.676   8.582  11.860 -1.2497  0.5612  0.7435
52614SOL     OW63804   7.255   2.512   6.369  0.4614 -0.2394 -0.0533
52614SOL    HW163805   7.309   2.553   6.436 -1.0449  1.5833  0.1324
52614SOL    HW263806   7.171   2.496   6.413  0.5025 -2.2039 -0.5657
52615SOL     OW63807   5.323   8.655   2.039  0.0116 -0.3705 -0.0022
52615SOL    HW163808   5.404   8.617   2.004  0.4259  1.1005 -0.7214
52615SOL    HW263809   5.324   8.632   2.132  0.7416 -1.2291 -0.2029
52616SOL     OW63810   9.413   7.865   2.918 -0.1781 -0.1288 -0.1652
52616SOL    HW163811   9.465   7.802   2.968 -0.3245  0.2471  0.4692
52616SOL    HW263812   9.420   7.947   2.967 -0.8376  0.0909 -0.4262
52617SOL     OW63813  11.243   6.863   6.443 -0.2223  0.7578  0.2317
52617SOL    HW163814  11.162   6.825   6.409 -0.5028  1.4012  0.1705
52617SOL    HW263815  11.234   6.859   6.538  0.9314 -1.8365  0.3051
52618SOL     OW63816  10.808  11.527   8.424 -0.6308 -0.4096 -0.3512
52618SOL    HW163817  10.715  11.548   8.414 -1.5818 -1.9146  3.4449
52618SOL    HW263818  10.839  11.590   8.489  1.0796  0.0829 -1.5902
52619SOL     OW63819   9.368   9.225   8.641 -0.2808 -0.2335  0.2679
52619SOL    HW163820   9.451   9.182   8.661  0.6129  1.3264  0.0638
52619SOL    HW263821   9.392   9.300   8.586 -1.7750  0.4405  0.4821
52620SOL     OW63822   7.984   1.421   0.083  0.1648  0.1426 -0.1006
52620SOL    HW163823   7.915   1.378   0.133  2.3000 -0.4758  2.5186
52620SOL    HW263824   8.057   1.358   0.083  1.2941  1.3629 -1.4265
52621SOL     OW63825   6.789  10.406  11.180 -0.0502  0.1393  0.2993
52621SOL    HW163826   6.811  10.497  11.199 -2.8981  0.7895  0.9778
52621SOL    HW263827   6.873  10.360  11.179  1.3432  2.5092  1.3678
52622SOL     OW63828  11.464   8.479   2.537  0.4792  0.0656 -0.1040
52622SOL    HW163829  11.523   8.505   2.607  0.0762  0.3723  0.1255
52622SOL    HW263830  11.388   8.536   2.546  0.6621  0.5000 -1.1458
52623SOL     OW63831   0.617   4.816   1.210 -0.6250 -0.0925  0.4725
52623SOL    HW163832   0.595   4.763   1.133 -0.8891  1.1320 -0.3227
52623SOL    HW263833   0.702   4.854   1.188 -1.2659  1.2503  0.2307
52624SOL     OW63834   4.302   4.733  11.563  0.1904  0.2867  0.7496
52624SOL    HW163835   4.395   4.715  11.550  0.2473  0.9639  0.1950
52624SOL    HW263836   4.258   4.656  11.526  0.4893  0.5379 -0.1484
52625SOL     OW63837   7.268   4.175  10.206  0.6197 -0.1923 -0.0046
52625SOL    HW163838   7.196   4.113  10.198  1.5891 -1.2792 -0.7984
52625SOL    HW263839   7.255   4.236  10.134 -0.2612  0.4577  0.6911
52626SOL     OW63840   6.825  12.326   4.486  0.4375 -0.4077 -0.3427
52626SOL    HW163841   6.825  12.287   4.399  2.1285 -2.7162  0.6072
52626SOL    HW263842   6.748  12.288   4.529  1.1570 -1.4880  0.0352
52627SOL     OW63843   9.478   1.362   5.173  0.5288  0.1655 -0.0153
52627SOL    HW163844   9.405   1.419   5.198 -0.0039 -0.4042 -0.2675
52627SOL    HW263845   9.451   1.322   5.091  0.6394 -0.9189  0.4644
52628SOL     OW63846   1.371  12.209   8.509 -0.4292  0.1022 -0.2518
52628SOL    HW163847   1.419  12.151   8.450  0.1689 -0.6203  0.8930
52628SOL    HW263848   1.314  12.151   8.560  0.3916  0.4470  1.1213
52629SOL     OW63849   7.879   8.687   9.751 -0.1122 -0.3571  0.4596
52629SOL    HW163850   7.961   8.733   9.732 -1.3801  1.8155 -0.0717
52629SOL    HW263851   7.864   8.631   9.674  0.7113 -0.5650  0.4390
52630SOL     OW63852  11.340   1.421   0.536  0.1979  0.0820 -0.0617
52630SOL    HW163853  11.308   1.331   0.541  2.0086 -0.5214  2.8943
52630SOL    HW263854  11.409   1.418   0.471 -1.0085 -0.1582 -1.3894
52631SOL     OW63855   9.267   0.318   1.753  0.0217 -0.2705 -0.3704
52631SOL    HW163856   9.204   0.273   1.697 -0.5817 -0.9100  0.7963
52631SOL    HW263857   9.339   0.341   1.694 -2.1352  2.3790 -2.2387
52632SOL     OW63858   8.047   4.546   8.176  0.2342  0.5571 -0.3381
52632SOL    HW163859   8.020   4.636   8.153  4.3641  2.1545  0.2426
52632SOL    HW263860   8.142   4.546   8.165  0.8064 -2.8349  2.8308
52633SOL     OW63861   0.751   4.918   0.182  0.0538 -0.0365  0.0277
52633SOL    HW163862   0.784   4.959   0.103  0.2373  1.4729  0.8535
52633SOL    HW263863   0.822   4.927   0.246 -0.7811  0.4866  0.9204
52634SOL     OW63864   6.540   6.904   5.984  0.6830 -0.4729 -0.4668
52634SOL    HW163865   6.595   6.918   5.906  2.0910 -1.0971  0.3660
52634SOL    HW263866   6.600   6.918   6.058 -0.5099 -0.3455  0.5007
52635SOL     OW63867   7.518  10.117   4.386  0.2741  0.6370  0.0193
52635SOL    HW163868   7.489  10.170   4.311  0.6856  1.9788  0.7686
52635SOL    HW263869   7.612  10.132   4.390  0.2920  0.3565  0.6512
52636SOL     OW63870   4.847   4.153   7.363 -0.4062  0.4595  0.0931
52636SOL    HW163871   4.772   4.125   7.311 -0.7271 -1.2230  1.3670
52636SOL    HW263872   4.807   4.191   7.442  0.0888  0.8171  0.1762
52637SOL     OW63873   1.861   7.956   6.284 -0.5147 -0.1370 -0.3241
52637SOL    HW163874   1.801   7.908   6.227 -1.3729  2.4311 -1.7978
52637SOL    HW263875   1.944   7.909   6.278 -1.6715 -2.3189 -0.3026
52638SOL     OW63876   5.574   3.184   4.286 -0.1641 -0.6781  0.1440
52638SOL    HW163877   5.661   3.144   4.289  0.2940  0.2254  4.0051
52638SOL    HW263878   5.565   3.215   4.196  3.7525 -0.3120 -0.2844
52639SOL     OW63879   3.823  11.891   6.377 -0.0107  0.0567 -0.3307
52639SOL    HW163880   3.848  11.983   6.392 -2.7173  0.7667  0.3701
52639SOL    HW263881   3.890  11.858   6.317  0.3992  2.8421 -1.5987
52640SOL     OW63882   7.662  10.781   5.896  0.4099 -0.2269 -0.1414
52640SOL    HW163883   7.661  10.861   5.845 -1.9638  0.5300  0.9902
52640SOL    HW263884   7.683  10.809   5.985 -0.2180 -0.8722  0.2225
52641SOL     OW63885  12.014  11.471  11.050 -0.6687 -0.0472  0.3182
52641SOL    HW163886  12.096  11.448  11.007 -0.4746 -0.7385  1.0364
52641SOL    HW263887  12.041  11.515  11.131 -0.9949 -0.4504  0.6534
52642SOL     OW63888   1.687   6.697   5.398 -0.5300  0.2358  0.1963
52642SOL    HW163889   1.680   6.619   5.343 -1.1201  1.0360 -0.9099
52642SOL    HW263890   1.632   6.762   5.354  0.9319  1.6650  0.4086
52643SOL     OW63891   8.453   5.974   0.737  0.3233 -0.2456 -0.1976
52643SOL    HW163892   8.371   6.001   0.778  0.4513  3.6755 -2.0284
52643SOL    HW263893   8.519   5.984   0.805 -0.2919 -0.0177  0.3726
52644SOL     OW63894  12.207   4.048   3.183  0.2440 -0.2225  0.6213
52644SOL    HW163895  12.288   4.018   3.143  0.3536 -1.6448  1.8291
52644SOL    HW263896  12.146   3.975   3.172 -1.2780  1.1869 -1.1989
52645SOL     OW63897   4.603   2.365   6.711  0.1203 -0.4213  0.8756
52645SOL    HW163898   4.693   2.357   6.679 -0.3098  1.9326 -1.1631
52645SOL    HW263899   4.549   2.345   6.635 -1.3404 -4.6608  2.7086
52646SOL     OW63900   6.912   0.285   8.368 -0.5629  0.0890  0.5037
52646SOL    HW163901   6.980   0.347   8.392  1.8731 -1.9555 -0.6095
52646SOL    HW263902   6.837   0.339   8.344  0.4178  2.4336  2.3638
52647SOL     OW63903   4.003   5.491   8.915 -0.2216  0.5678 -0.4219
52647SOL    HW163904   3.917   5.456   8.896 -0.6883  0.9100  0.9504
52647SOL    HW263905   4.063   5.417   8.903 -0.9106 -0.1008  0.2198
52648SOL     OW63906   1.842  12.487   0.329  0.2907  0.1194  0.5393
52648SOL    HW163907   1.775  12.451   0.387 -0.9021  1.4925  0.0684
52648SOL    HW263908   1.831  12.439   0.247 -0.2857  0.5064  0.3876
52649SOL     OW63909  11.184   5.841  12.331 -0.3787 -0.1360 -0.2692
52649SOL    HW163910  11.180   5.748  12.356  0.8466  0.1587  1.2281
52649SOL    HW263911  11.138   5.887  12.401 -4.0770  0.2400 -2.7041
52650SOL     OW63912  11.208   0.383  11.437  0.5500 -0.0861 -0.3442
52650SOL    HW163913  11.129   0.415  11.394  0.6670  0.5184 -0.1164
52650SOL    HW263914  11.261   0.347  11.366  1.8897  3.1934 -1.1589
52651SOL     OW63915   8.820   9.238   1.205  0.2460 -0.1304 -0.1226
52651SOL    HW163916   8.758   9.309   1.186 -1.7951 -1.7484  0.1350
52651SOL    HW263917   8.765   9.161   1.218  2.1287 -1.1082  2.9987
52652SOL     OW63918   3.260   2.062   7.943  0.4534  0.0316 -0.1136
52652SOL    HW163919   3.205   1.988   7.919  2.3740 -1.2961 -0.6892
52652SOL    HW263920   3.222   2.137   7.897 -1.3154 -0.6363  0.1854
52653SOL     OW63921   1.077   8.014   6.953 -0.2734 -0.4614  0.4868
52653SOL    HW163922   1.085   7.922   6.979 -0.3580 -0.5966  0.0456
52653SOL    HW263923   1.139   8.061   7.009  1.3072 -1.0535 -0.6885
52654SOL     OW63924   0.419   8.684  11.690  0.0730  0.6217  0.2345
52654SOL    HW163925   0.483   8.657  11.624 -0.1576  1.0669 -0.1761
52654SOL    HW263926   0.334   8.675  11.647 -0.3100 -1.5529  1.3034
52655SOL     OW63927   8.806  11.452   2.055  0.1376  0.3192  0.1666
52655SOL    HW163928   8.804  11.460   2.151  2.3382  1.2409  0.1937
52655SOL    HW263929   8.740  11.515   2.025  1.0055  1.6955  1.0478
52656SOL     OW63930   0.133   4.694   3.474 -0.2653 -0.4390  0.5621
52656SOL    HW163931   0.090   4.779   3.483 -1.9818 -0.9846 -1.6674
52656SOL    HW263932   0.098   4.641   3.546 -0.6136  0.1607  0.8384
52657SOL     OW63933   4.688   9.157   7.612 -0.3967  0.4412  0.1950
52657SOL    HW163934   4.701   9.203   7.529  2.8722  0.5596  0.6108
52657SOL    HW263935   4.774   9.162   7.655 -0.8081 -3.1019  1.7754
52658SOL     OW63936   8.088   3.180   5.607 -0.0469  0.7871  0.0834
52658SOL    HW163937   8.096   3.130   5.689 -0.2222  0.5120 -0.0618
52658SOL    HW263938   8.034   3.255   5.630 -0.2252  0.6287  0.1866
52659SOL     OW63939   6.230   0.645   3.382  0.1983 -0.5317 -0.3512
52659SOL    HW163940   6.286   0.698   3.440 -0.2881 -0.2793 -0.1056
52659SOL    HW263941   6.259   0.555   3.396 -0.5880 -0.5874  1.0563
52660SOL     OW63942   1.093   3.344   4.582  0.0736  0.2948 -0.3318
52660SOL    HW163943   1.180   3.338   4.542  1.3740 -0.9492  2.4583
52660SOL    HW263944   1.050   3.262   4.558 -0.3228  0.8227 -1.5402
52661SOL     OW63945   8.258  10.071   9.028 -0.3710 -0.4729  0.6380
52661SOL    HW163946   8.245   9.991   8.976  0.5219 -0.6686  0.7026
52661SOL    HW263947   8.347  10.064   9.061  0.4541  1.4754 -0.9497
52662SOL     OW63948   3.944   7.355  12.248 -0.1280 -0.1922 -0.2576
52662SOL    HW163949   4.026   7.404  12.244  0.7274 -1.5036  0.4776
52662SOL    HW263950   3.937   7.326  12.339 -0.1864 -2.0487 -0.8076
52663SOL     OW63951   6.479   0.874  11.441  0.5031 -0.2382  0.7208
52663SOL    HW163952   6.567   0.886  11.406 -0.1949  0.5181 -0.8693
52663SOL    HW263953   6.474   0.936  11.514  2.0651 -2.0193  2.4578
52664SOL     OW63954   0.797   9.359   6.573 -0.0883  0.3496  0.2584
52664SOL    HW163955   0.706   9.328   6.575 -0.2228  0.5447 -1.3868
52664SOL    HW263956   0.849   9.281   6.556 -0.2220  0.6148 -1.5526
52665SOL     OW63957   5.128   1.501   8.115  0.3439 -0.2605 -0.1649
52665SOL    HW163958   5.133   1.419   8.065  0.4517 -0.3540 -0.0035
52665SOL    HW263959   5.202   1.496   8.175  1.6255  0.8860 -1.5568
52666SOL     OW63960  11.386  12.457  11.635 -0.0853 -0.4121  0.3316
52666SOL    HW163961  11.388  12.437  11.541 -2.4303 -2.2685  0.5777
52666SOL    HW263962  11.362  12.549  11.639 -0.5489 -0.4581 -0.9085
52667SOL     OW63963   9.432   8.297   6.768  0.4504 -0.3798  0.3042
52667SOL    HW163964   9.452   8.223   6.825  0.8827 -0.2197  0.3658
52667SOL    HW263965   9.430   8.259   6.680 -2.3999 -1.0638  0.5701
52668SOL     OW63966   5.295   3.909  11.709  0.0073 -0.2194  0.5534
52668SOL    HW163967   5.271   3.934  11.620 -0.4834 -1.3487  0.3557
52668SOL    HW263968   5.390   3.916  11.712  0.4029 -3.2057 -1.0727
52669SOL     OW63969   7.232  10.860   5.190  0.0532 -0.4398 -0.0117
52669SOL    HW163970   7.269  10.901   5.268  0.5900 -0.0106 -0.4907
52669SOL    HW263971   7.198  10.776   5.221  1.2078 -0.7420  0.4842
52670SOL     OW63972   6.887   5.477   9.688  0.0954 -0.1047  0.5567
52670SOL    HW163973   6.794   5.464   9.702 -0.0962  1.7564  1.3028
52670SOL    HW263974   6.925   5.472   9.776  0.2174  2.2429  0.7033
52671SOL     OW63975   4.862   9.014   4.226 -0.4147 -0.0852  0.2709
52671SOL    HW163976   4.890   8.996   4.136 -1.6989 -1.7646  0.1546
52671SOL    HW263977   4.787   9.072   4.217 -0.8919 -0.6980  0.1962
52672SOL     OW63978   9.860   4.373   1.956  0.1049  0.0338 -0.7312
52672SOL    HW163979   9.795   4.373   1.886 -2.1303 -1.0781  1.2088
52672SOL    HW263980   9.866   4.465   1.982 -0.2906  0.2241 -1.2777
52673SOL     OW63981   9.320  10.107   5.327  0.0158 -0.2870 -0.6228
52673SOL    HW163982   9.329  10.013   5.314 -0.3319 -0.3877 -0.1727
52673SOL    HW263983   9.367  10.146   5.254  0.2734 -0.8104 -0.7429
52674SOL     OW63984  11.839   2.963   4.666 -0.0862  0.0972 -0.7222
52674SOL    HW163985  11.786   2.960   4.587 -0.0560  0.2578 -0.7479
52674SOL    HW263986  11.848   3.056   4.686 -0.9267  0.0278  0.0292
52675SOL     OW63987   3.553   2.875   7.744  0.5008  0.4066 -0.4594
52675SOL    HW163988   3.517   2.963   7.739 -2.4133 -0.4345  2.1464
52675SOL    HW263989   3.497   2.824   7.684  1.7248  0.1486 -1.4274
52676SOL     OW63990   7.171   4.320   2.960 -0.3526  0.1139 -0.8746
52676SOL    HW163991   7.143   4.235   2.924 -1.8010  1.0706 -2.1391
52676SOL    HW263992   7.151   4.383   2.890  1.0599  1.4665 -0.1197
52677SOL     OW63993   9.443   1.532  10.605  0.7118 -0.2478 -0.5629
52677SOL    HW163994   9.353   1.522  10.575 -0.0314  2.1635  0.6547
52677SOL    HW263995   9.494   1.539  10.525 -0.5559  1.1008 -1.2955
52678SOL     OW63996  11.076  11.400   3.847  0.1252  0.0654 -0.4660
52678SOL    HW163997  11.075  11.307   3.868 -2.3778 -0.6384 -3.0995
52678SOL    HW263998  11.030  11.441   3.921 -0.5234 -1.0528 -0.2243
52679SOL     OW63999   1.369   3.646  10.351  0.1909 -0.0816 -0.2358
52679SOL    HW164000   1.385   3.740  10.343  0.8667 -0.0094  1.4631
52679SOL    HW264001   1.456   3.607  10.354 -0.0123 -0.5068  1.1970
52680SOL     OW64002   9.009   0.909   1.902 -0.0425  0.1394 -0.4554
52680SOL    HW164003   9.033   0.951   1.820  1.0058 -1.1388 -0.8309
52680SOL    HW264004   8.921   0.875   1.887  0.3018 -0.4432 -1.2062
52681SOL     OW64005   8.662   8.954   6.955  0.4521 -0.3457  0.0604
52681SOL    HW164006   8.633   8.881   7.009 -0.3759 -0.9335 -1.1273
52681SOL    HW264007   8.615   9.030   6.990  0.2215 -0.6456  0.4091
52682SOL     OW64008   5.976   3.756  12.013 -0.9778  0.1921  0.3031
52682SOL    HW164009   5.895   3.805  11.994 -0.6512  1.0927  1.1967
52682SOL    HW264010   6.046   3.821  12.003 -0.4292 -0.3948  0.3107
52683SOL     OW64011  10.649   6.689   9.707 -0.4337 -0.1115 -0.2066
52683SOL    HW164012  10.674   6.597   9.715  1.0276  0.2716 -0.1320
52683SOL    HW264013  10.701   6.721   9.634  1.6346  1.4722  1.8411
52684SOL     OW64014   6.627   9.410   0.608 -0.6195 -0.1269 -0.5588
52684SOL    HW164015   6.615   9.316   0.613  2.2677 -0.5534  0.1816
52684SOL    HW264016   6.647   9.428   0.516  1.6498 -0.7162 -0.2227
52685SOL     OW64017   7.394   7.753   2.983 -0.2254 -0.1556  0.4867
52685SOL    HW164018   7.306   7.760   2.948 -0.4747 -1.5989  0.7308
52685SOL    HW264019   7.394   7.809   3.061 -0.6349  0.5637 -0.0220
52686SOL     OW64020  12.241   6.048  11.110 -0.3116  0.6833  0.5752
52686SOL    HW164021  12.311   5.989  11.080 -1.5579 -0.6573  0.1769
52686SOL    HW264022  12.164   6.022  11.059 -1.2815  1.6563  1.4839
52687SOL     OW64023   4.017   0.591   4.953 -0.3240  0.1626 -0.7412
52687SOL    HW164024   4.108   0.619   4.962 -0.3962  0.2120 -0.1068
52687SOL    HW264025   3.987   0.580   5.043 -1.1403  0.7771 -0.9248
52688SOL     OW64026   4.444   5.738   8.114 -0.2796 -0.2824 -0.5592
52688SOL    HW164027   4.468   5.654   8.075  2.1329  1.1242 -2.3708
52688SOL    HW264028   4.501   5.746   8.191  0.7285  0.3786 -1.3496
52689SOL     OW64029   5.178   6.072   0.011 -0.3937 -1.0245  0.1762
52689SOL    HW164030   5.221   6.138  -0.043 -0.8076  0.3048  1.4204
52689SOL    HW264031   5.087   6.071  -0.020  0.0900 -2.7446 -1.4148
52690SOL     OW64032   3.790  11.940   4.873  0.6178 -0.1708 -0.0212
52690SOL    HW164033   3.735  11.986   4.936 -0.9405 -1.0385 -0.7059
52690SOL    HW264034   3.869  11.994   4.867 -0.8303  2.0733 -0.2863
52691SOL     OW64035   0.678   8.706   9.711 -0.1030 -0.2191  0.1901
52691SOL    HW164036   0.665   8.621   9.753  1.4571 -0.3217  0.5326
52691SOL    HW264037   0.618   8.705   9.637 -0.6978 -1.2888  0.6584
52692SOL     OW64038   5.749   3.209   6.395  0.3657  0.0466 -0.5062
52692SOL    HW164039   5.712   3.278   6.341  0.8228  0.2031 -0.6257
52692SOL    HW264040   5.716   3.226   6.483  0.3961  0.3570 -0.5547
52693SOL     OW64041   2.997   9.008   7.264 -0.0686  0.2302 -0.2931
52693SOL    HW164042   2.944   9.070   7.314  1.2578  2.2781 -1.3026
52693SOL    HW264043   3.087   9.032   7.283  0.5542 -2.2063  0.2004
52694SOL     OW64044  10.246  10.788  10.899  0.1005  0.3138  0.0966
52694SOL    HW164045  10.317  10.767  10.838 -0.5965  0.7354 -0.9001
52694SOL    HW264046  10.274  10.752  10.983  1.2010 -0.0764 -0.4229
52695SOL     OW64047  10.374   7.640   7.402  0.7878 -0.2663  0.6420
52695SOL    HW164048  10.460   7.671   7.429  1.0988  0.6157 -1.1867
52695SOL    HW264049  10.369   7.661   7.309 -1.2846 -0.6018  0.6247
52696SOL     OW64050   8.307   8.052   3.585 -0.7661  0.2630  0.1925
52696SOL    HW164051   8.285   8.131   3.633 -1.9856  0.7598 -1.1024
52696SOL    HW264052   8.241   8.047   3.515 -0.5477 -1.7349  0.0574
52697SOL     OW64053  10.110   1.032  11.140  0.2081 -0.0175  0.1720
52697SOL    HW164054  10.100   1.013  11.047  0.5865  0.7697 -0.0352
52697SOL    HW264055  10.144   0.950  11.178 -1.1243 -0.7541 -0.1441
52698SOL     OW64056  12.469   2.182  10.711  0.7171  0.2477  0.6396
52698SOL    HW164057  12.526   2.153  10.640 -0.8056  0.7262 -0.8579
52698SOL    HW264058  12.486   2.121  10.783  1.2624 -1.1879 -0.6550
52699SOL     OW64059   1.060   8.553   7.242 -0.0723 -0.6215  0.0766
52699SOL    HW164060   1.005   8.629   7.260  0.1861 -0.0680 -1.3312
52699SOL    HW264061   0.999   8.479   7.242 -0.1902 -0.5975  2.3384
52700SOL     OW64062  11.976   7.129   9.513  0.3427  0.3946 -0.1112
52700SOL    HW164063  11.970   7.208   9.460 -0.6324  1.0379  0.8985
52700SOL    HW264064  12.059   7.138   9.560  0.8615  0.1688 -0.9761
52701SOL     OW64065  10.490   0.766   5.750  0.7069 -0.4753  0.8448
52701SOL    HW164066  10.497   0.735   5.659 -0.3915  0.0519  0.5592
52701SOL    HW264067  10.428   0.706   5.791 -0.6427  0.6695  0.5671
52702SOL     OW64068   8.020   1.877   1.081 -0.4472 -0.0520 -0.1297
52702SOL    HW164069   8.007   1.971   1.074 -2.3144 -0.3088 -0.6606
52702SOL    HW264070   7.983   1.854   1.167  0.5619 -0.2321  0.2685
52703SOL     OW64071  10.463   2.681   5.071 -0.0946 -0.3519 -0.0029
52703SOL    HW164072  10.492   2.688   5.162 -1.4526 -0.6927  0.4890
52703SOL    HW264073  10.416   2.598   5.068 -2.0164  0.7011 -0.4264
52704SOL     OW64074   8.631   2.820   2.699  0.3515 -0.1401 -0.0314
52704SOL    HW164075   8.695   2.841   2.631  0.1987 -0.5968 -0.3244
52704SOL    HW264076   8.601   2.905   2.731 -0.8371  0.1403 -1.7278
52705SOL     OW64077   3.287   5.556  11.072  0.6582 -0.1262  0.3328
52705SOL    HW164078   3.330   5.539  10.989 -0.6077 -0.7954 -0.2140
52705SOL    HW264079   3.345   5.519  11.138  1.4553  0.0147 -0.2818
52706SOL     OW64080  10.182   5.382  10.516  0.2538 -0.0364 -0.6196
52706SOL    HW164081  10.147   5.412  10.433 -0.4091  0.3805 -0.1996
52706SOL    HW264082  10.108   5.340  10.560  0.2365  0.9373  0.3212
52707SOL     OW64083   6.669   7.435   1.176 -0.2776  0.0154 -0.2423
52707SOL    HW164084   6.726   7.385   1.118 -2.3703 -2.1279 -0.5991
52707SOL    HW264085   6.597   7.465   1.119  0.0927  2.1202  0.3075
52708SOL     OW64086  11.829   3.225   3.600 -0.0448 -0.1216 -0.2166
52708SOL    HW164087  11.832   3.289   3.528 -1.4831 -0.2734 -0.4374
52708SOL    HW264088  11.789   3.274   3.673  0.1537 -0.3668  0.0579
52709SOL     OW64089   7.849   2.001   3.494 -0.1668  0.7149 -0.1084
52709SOL    HW164090   7.942   2.017   3.509 -0.0414  0.7232 -0.8532
52709SOL    HW264091   7.842   1.906   3.487 -0.1172  0.7468 -0.6301
52710SOL     OW64092   4.514   2.907   0.250  0.2851 -0.0066  0.2894
52710SOL    HW164093   4.500   2.915   0.345 -0.8892  1.7058  0.0244
52710SOL    HW264094   4.586   2.966   0.231  1.1513 -1.0664  0.2250
52711SOL     OW64095  10.794   5.065   6.778 -0.5291  0.6159 -0.0348
52711SOL    HW164096  10.761   5.139   6.830  0.7928  0.4407  1.1002
52711SOL    HW264097  10.719   5.006   6.771 -0.9151  0.9457  1.1407
52712SOL     OW64098   1.125  11.123   2.011 -0.0613 -0.3627  0.4647
52712SOL    HW164099   1.119  11.218   2.002 -1.1325 -0.5976 -2.0264
52712SOL    HW264100   1.042  11.097   2.049  0.6535 -0.2548  2.1829
52713SOL     OW64101   7.783  12.480   4.543  0.0259 -0.2288  0.0604
52713SOL    HW164102   7.832  12.516   4.469  0.5636 -3.0127 -1.0895
52713SOL    HW264103   7.844  12.484   4.617  0.3728  0.3958 -0.2570
52714SOL     OW64104  10.957   6.602   5.460 -0.1522 -0.3029  0.2539
52714SOL    HW164105  10.984   6.512   5.479 -2.5125 -1.5561 -1.8385
52714SOL    HW264106  11.012   6.628   5.387  0.5876  0.0305  0.9111
52715SOL     OW64107   2.486   2.538   4.372 -0.1368  0.5009 -0.0561
52715SOL    HW164108   2.564   2.503   4.416 -0.6982  2.5386  2.8315
52715SOL    HW264109   2.500   2.632   4.370 -0.5490  0.6004 -3.7588
52716SOL     OW64110   1.485  11.727   2.473  0.0463 -0.3530 -0.1716
52716SOL    HW164111   1.461  11.656   2.532  1.0530 -0.8640 -0.3404
52716SOL    HW264112   1.515  11.798   2.530  1.8919 -1.1747 -0.0439
52717SOL     OW64113   3.560  11.408   8.315 -0.2849  0.4456 -0.9667
52717SOL    HW164114   3.568  11.374   8.404 -2.1614  0.4579 -0.7542
52717SOL    HW264115   3.588  11.335   8.259  2.5655  0.9826 -0.4030
52718SOL     OW64116  11.234   6.730   3.256 -0.1599  0.2039  0.0530
52718SOL    HW164117  11.267   6.642   3.240  0.8291  0.2482  1.5982
52718SOL    HW264118  11.216   6.765   3.169 -0.2417 -1.3865 -0.6098
52719SOL     OW64119   3.480   8.460   2.976  0.6642 -0.1434  0.3771
52719SOL    HW164120   3.549   8.432   2.915 -1.1769 -2.8295 -0.6670
52719SOL    HW264121   3.482   8.395   3.046 -0.6504 -0.1640  0.4199
52720SOL     OW64122   0.889   3.565   8.396  0.7626 -0.8261  0.5447
52720SOL    HW164123   0.794   3.556   8.390  0.4934  2.0378 -1.4542
52720SOL    HW264124   0.923   3.509   8.326  0.2108  1.0643 -1.3271
52721SOL     OW64125   3.802   0.942   0.379 -0.0172 -0.0559 -0.5069
52721SOL    HW164126   3.808   0.946   0.474  1.5698 -0.2381 -0.5626
52721SOL    HW264127   3.822   1.031   0.350  2.4950 -0.6237 -0.7237
52722SOL     OW64128  12.103   9.798   6.294  0.5592  0.0616  0.4873
52722SOL    HW164129  12.064   9.824   6.211  0.7737  0.1915  0.4252
52722SOL    HW264130  12.051   9.723   6.323  0.2957  0.2060  0.3847
52723SOL     OW64131   3.030  10.259   4.449  0.5635  0.3487 -0.3496
52723SOL    HW164132   3.024  10.349   4.480  2.5457  1.0232 -1.7720
52723SOL    HW264133   3.003  10.263   4.357  0.2962 -0.5879 -0.3243
52724SOL     OW64134   6.960   5.592  12.444 -0.0478 -0.2624 -0.1305
52724SOL    HW164135   6.873   5.572  12.410  0.6444 -2.3943 -0.7886
52724SOL    HW264136   7.011   5.616  12.368  0.1381  0.2752  0.1584
52725SOL     OW64137   7.927   6.642   6.432 -0.3347 -0.3839 -0.2429
52725SOL    HW164138   7.899   6.661   6.521  0.5240 -0.1994 -0.0011
52725SOL    HW264139   7.994   6.574   6.441 -1.8527 -2.0551 -0.9410
52726SOL     OW64140  11.285   6.552   6.655 -0.0613 -0.0743 -0.7502
52726SOL    HW164141  11.248   6.466   6.638  0.2294 -0.2384 -0.5650
52726SOL    HW264142  11.358   6.535   6.714  0.0933  0.2816 -0.8365
52727SOL     OW64143   8.375  12.442  11.421  0.4396  0.4146 -0.0139
52727SOL    HW164144   8.460  12.439  11.376 -0.5383 -1.4390 -1.9057
52727SOL    HW264145   8.368  12.357  11.464 -1.3969 -0.4714 -1.8831
52728SOL     OW64146  11.335   5.165   7.596 -0.4560  0.1023 -0.3090
52728SOL    HW164147  11.387   5.107   7.541 -1.9315 -0.0549 -1.5817
52728SOL    HW264148  11.400   5.225   7.634  1.1479 -2.4384  1.2471
52729SOL     OW64149   7.415   6.607   2.224 -0.4045  0.1111  0.2459
52729SOL    HW164150   7.354   6.631   2.155  0.4049 -1.2037 -0.9924
52729SOL    HW264151   7.365   6.550   2.282 -0.2841 -1.3081 -0.9923
52730SOL     OW64152  10.129   3.229   0.716 -0.3942  0.0410 -0.0292
52730SOL    HW164153  10.049   3.278   0.736  0.0327  1.1229 -0.9128
52730SOL    HW264154  10.199   3.279   0.758 -0.1151 -0.6804  0.3913
52731SOL     OW64155   1.349   7.567   0.947  0.0189  0.3795  0.1253
52731SOL    HW164156   1.399   7.642   0.979  0.5399  0.8760 -1.7264
52731SOL    HW264157   1.294   7.603   0.877 -0.3229 -0.8042 -0.2322
52732SOL     OW64158   3.893   6.501   5.276 -0.0448  0.2532 -0.2504
52732SOL    HW164159   3.914   6.547   5.194 -0.1831  0.1955 -0.3190
52732SOL    HW264160   3.859   6.416   5.248 -2.5819  1.2022 -0.2384
52733SOL     OW64161   2.662   7.458   9.467 -0.7116 -0.4848  0.5861
52733SOL    HW164162   2.628   7.536   9.423 -0.3700 -0.0968  0.9925
52733SOL    HW264163   2.683   7.397   9.396  1.8316  0.9227 -0.0068
52734SOL     OW64164   9.948   3.058   9.432 -0.3178  0.4084 -0.4562
52734SOL    HW164165   9.951   2.974   9.387 -1.0525  0.2458 -0.2178
52734SOL    HW264166   9.989   3.120   9.371 -1.4531  0.2264 -1.4347
52735SOL     OW64167   1.021  10.841   2.078 -0.0395  0.0951  0.7386
52735SOL    HW164168   1.115  10.831   2.088 -0.0009  1.1956  1.8262
52735SOL    HW264169   0.999  10.795   1.997  1.4735  0.0937  0.3087
52736SOL     OW64170   6.162   8.274   4.940  0.8221  0.1761 -0.3795
52736SOL    HW164171   6.163   8.364   4.909 -0.5294  0.9729  1.6650
52736SOL    HW264172   6.217   8.276   5.019  0.7943 -0.7976 -0.3256
52737SOL     OW64173   7.950   2.281   9.286 -0.4129 -0.4737 -0.4590
52737SOL    HW164174   7.885   2.276   9.216 -0.1979 -1.1688 -0.6163
52737SOL    HW264175   8.029   2.313   9.243 -0.3597 -0.6312 -0.4796
52738SOL     OW64176   2.788   2.743   4.314 -0.3825 -0.4551 -0.4266
52738SOL    HW164177   2.805   2.707   4.401 -0.1156  0.4153 -0.1065
52738SOL    HW264178   2.715   2.803   4.326  0.7387  0.9654 -0.4405
52739SOL     OW64179   8.780   0.646   2.659  0.6617  0.4484  0.4760
52739SOL    HW164180   8.863   0.684   2.687  0.5478  1.2555 -0.2381
52739SOL    HW264181   8.776   0.662   2.565 -0.4468  0.7092  0.5472
52740SOL     OW64182   1.671   4.751   2.431 -0.7590  0.0688  0.8396
52740SOL    HW164183   1.742   4.772   2.492  0.5797  1.8599 -1.1485
52740SOL    HW264184   1.605   4.818   2.448  0.0352  1.1818 -0.1953
52741SOL     OW64185   2.126   3.483   4.697  0.4914  0.5396  0.6814
52741SOL    HW164186   2.179   3.434   4.760  0.2345 -0.6545  0.0004
52741SOL    HW264187   2.036   3.470   4.726  0.4882  2.1254  1.5257
52742SOL     OW64188   3.566  10.173   4.629 -0.2456  0.0596  0.2195
52742SOL    HW164189   3.590  10.206   4.715  2.7547 -0.3635 -0.3594
52742SOL    HW264190   3.592  10.242   4.568  0.7917 -0.9799 -0.5608
52743SOL     OW64191   1.731   3.947   7.815  0.6235  0.9828  0.1807
52743SOL    HW164192   1.774   4.017   7.767 -1.9114  2.7950  0.3367
52743SOL    HW264193   1.790   3.872   7.806  1.7145  2.0536 -3.1695
52744SOL     OW64194  10.580   6.577   2.128  0.0466  0.1661 -0.0434
52744SOL    HW164195  10.548   6.537   2.047  0.0178 -1.9857  0.9573
52744SOL    HW264196  10.667   6.609   2.107 -0.5510  1.0275 -1.3048
52745SOL     OW64197   3.502   6.099   9.621 -0.2852 -0.5381  0.0112
52745SOL    HW164198   3.463   6.101   9.534  1.1915  0.7265 -0.6723
52745SOL    HW264199   3.534   6.009   9.632  1.2617 -0.2491 -1.6202
52746SOL     OW64200  11.817   4.131   3.148 -0.1287  0.3086  0.3190
52746SOL    HW164201  11.799   4.126   3.242 -0.0821  0.7880  0.3562
52746SOL    HW264202  11.741   4.091   3.107 -0.0112 -0.1814  0.5683
52747SOL     OW64203   1.749   7.033   5.280  0.2081  0.0901 -0.0866
52747SOL    HW164204   1.836   6.996   5.297  1.4446  3.0721  0.8935
52747SOL    HW264205   1.723   7.072   5.364 -0.6404  1.8479 -1.0958
52748SOL     OW64206  10.623   6.974   9.791  0.0309  0.0251  0.2570
52748SOL    HW164207  10.578   6.908   9.844 -1.2220  0.4004 -0.3026
52748SOL    HW264208  10.573   7.054   9.805  0.1868  0.3258 -0.8202
52749SOL     OW64209   1.495   0.494   0.423 -0.0955  0.2020 -0.1388
52749SOL    HW164210   1.511   0.406   0.458 -0.0689  0.4351  0.4514
52749SOL    HW264211   1.411   0.487   0.379  1.2483 -0.8998 -2.7933
52750SOL     OW64212   9.674   4.929   9.825  0.2228  0.1192  0.8884
52750SOL    HW164213   9.620   4.862   9.868 -0.2877  1.1215  1.8411
52750SOL    HW264214   9.719   4.973   9.897  0.2699  1.0526  0.2968
52751SOL     OW64215   8.486  10.698   4.704  0.0268 -0.0874 -0.0456
52751SOL    HW164216   8.535  10.619   4.679  0.3239 -0.0717  0.4808
52751SOL    HW264217   8.394  10.672   4.697  0.0709  0.0296 -1.5320
52752SOL     OW64218  10.122   2.795   6.095  0.3085 -0.2243  0.2919
52752SOL    HW164219  10.101   2.706   6.121 -0.0734 -0.0974  0.4283
52752SOL    HW264220  10.171   2.831   6.170 -0.9669  0.2067  0.9491
52753SOL     OW64221   1.231   7.046   2.245 -0.5165  0.2194 -0.2343
52753SOL    HW164222   1.204   7.099   2.170 -2.3777 -1.5967 -0.9447
52753SOL    HW264223   1.299   7.098   2.288  0.0186  1.7171 -2.6822
52754SOL     OW64224  12.371   5.530   6.067  0.0078 -0.1774  0.1106
52754SOL    HW164225  12.463   5.527   6.041 -0.1668 -2.1608 -0.4123
52754SOL    HW264226  12.374   5.544   6.162  0.7418  2.3372 -0.2123
52755SOL     OW64227   4.377   4.607   4.185 -0.5882  0.5273  0.4980
52755SOL    HW164228   4.291   4.603   4.227 -0.0860 -0.7770  1.4609
52755SOL    HW264229   4.433   4.554   4.242  0.0777 -1.5877 -1.9635
52756SOL     OW64230  11.814  12.228  11.940 -0.3541 -0.6307  0.0472
52756SOL    HW164231  11.826  12.153  11.997 -3.0157 -1.7418 -0.7025
52756SOL    HW264232  11.878  12.216  11.870  0.0362 -1.5797  0.5568
52757SOL     OW64233   8.741   8.298   2.575  0.0816  0.5409  0.6654
52757SOL    HW164234   8.729   8.215   2.528  0.6944  1.4940 -1.2874
52757SOL    HW264235   8.654   8.321   2.605 -1.0298  1.3674 -2.7366
52758SOL     OW64236   5.463   0.295  12.351 -0.2067 -0.2011 -0.0241
52758SOL    HW164237   5.424   0.382  12.339 -0.6682 -0.3869  0.1131
52758SOL    HW264238   5.500   0.273  12.265  1.1742  0.7300  0.2918
52759SOL     OW64239   0.402   5.934  10.911  0.2061  0.1966  0.3836
52759SOL    HW164240   0.415   5.875  10.836 -1.3336  0.4969 -0.1446
52759SOL    HW264241   0.467   5.904  10.975  1.3105 -0.3089 -0.9001
52760SOL     OW64242  10.230   7.282  10.836 -0.4153  0.1057 -0.2992
52760SOL    HW164243  10.269   7.320  10.914  0.6933 -1.8386  0.1624
52760SOL    HW264244  10.145   7.248  10.865  0.5961 -1.8958  0.4869
52761SOL     OW64245   6.462   3.311   2.571  0.4675  0.1148 -0.4470
52761SOL    HW164246   6.494   3.244   2.632 -0.1898 -1.4882 -1.7800
52761SOL    HW264247   6.411   3.262   2.507 -0.6659  2.0262 -1.0641
52762SOL     OW64248   4.939   3.870   7.378  0.1498 -0.4892 -0.0660
52762SOL    HW164249   5.016   3.825   7.413 -0.0202 -2.9834 -2.5781
52762SOL    HW264250   4.934   3.951   7.429  2.9719 -1.3536  1.8418
52763SOL     OW64251  11.812   0.236  10.252  0.6793  0.2492 -0.3754
52763SOL    HW164252  11.802   0.226  10.157 -1.2566  0.9377 -0.2783
52763SOL    HW264253  11.829   0.329  10.264 -0.4287  0.4150  0.0257
52764SOL     OW64254   0.029   1.280   4.006 -0.3453 -0.3746 -0.4405
52764SOL    HW164255   0.112   1.233   4.011  0.3376  0.7251 -1.0391
52764SOL    HW264256  -0.038   1.212   4.010  0.5449 -1.2175  1.0420
52765SOL     OW64257   6.747   3.685   9.252  0.7883 -0.0521 -0.3596
52765SOL    HW164258   6.749   3.618   9.183  1.7622  0.3993 -0.7883
52765SOL    HW264259   6.839   3.702   9.272  0.5276  0.2833  0.6175
52766SOL     OW64260  10.523   7.653   8.091 -0.5776 -0.8776 -0.4759
52766SOL    HW164261  10.567   7.573   8.065 -0.1868 -0.4238 -1.2185
52766SOL    HW264262  10.538   7.714   8.020 -0.9272 -0.1553  0.0502
52767SOL     OW64263  12.339  10.624   8.150  0.1889 -0.4585  0.0339
52767SOL    HW164264  12.435  10.620   8.157  0.1633 -1.1996  0.0440
52767SOL    HW264265  12.322  10.613   8.056  0.1632  1.1039 -0.1747
52768SOL     OW64266   4.982   1.564  10.280  0.0942  0.1305  0.3710
52768SOL    HW164267   4.916   1.500  10.252  0.9492 -0.2850 -0.7720
52768SOL    HW264268   5.051   1.511  10.321  0.3185  0.4236  0.3769
52769SOL     OW64269   4.617   0.849   2.672 -0.2199 -0.5368 -0.0137
52769SOL    HW164270   4.555   0.848   2.600  0.0572  0.4459 -0.2755
52769SOL    HW264271   4.622   0.940   2.699  1.6107 -0.4601 -0.4444
52770SOL     OW64272   7.557   8.568   3.127 -0.2849  0.1104 -0.9079
52770SOL    HW164273   7.632   8.534   3.176 -2.3328 -0.9182  1.8191
52770SOL    HW264274   7.506   8.491   3.103 -1.7567  0.8422 -0.3297
52771SOL     OW64275  11.202   0.657  12.169 -0.4750 -0.3481 -0.3515
52771SOL    HW164276  11.193   0.650  12.074 -0.4480 -2.0843 -0.2652
52771SOL    HW264277  11.178   0.747  12.190 -2.9376 -0.6176 -1.7385
52772SOL     OW64278   6.500   4.523  11.057  0.2891  0.2212  0.0243
52772SOL    HW164279   6.432   4.463  11.087  0.2129  0.3677  0.1449
52772SOL    HW264280   6.485   4.604  11.107  2.6909 -0.8344  2.7671
52773SOL     OW64281   3.853   5.755   0.519 -0.0228 -0.6698 -0.0357
52773SOL    HW164282   3.847   5.686   0.585 -0.5160 -1.7299 -1.1443
52773SOL    HW264283   3.798   5.723   0.447 -0.4487  1.0002 -0.4753
52774SOL     OW64284   0.467   8.015  12.256 -0.0078  0.0767 -0.1611
52774SOL    HW164285   0.400   8.002  12.323  0.1876  1.6191  0.3704
52774SOL    HW264286   0.429   7.979  12.176 -0.4228 -1.4043  0.6523
52775SOL     OW64287   9.885  12.385   6.704 -0.4351 -0.4937 -0.5571
52775SOL    HW164288   9.968  12.384   6.657 -1.1765 -1.1188 -1.8866
52775SOL    HW264289   9.879  12.474   6.740  0.7229 -0.4005 -0.5726
52776SOL     OW64290  10.227   1.412   2.017 -0.1912 -0.1334 -0.0403
52776SOL    HW164291  10.154   1.408   1.956 -1.0524  1.0530  0.8767
52776SOL    HW264292  10.289   1.473   1.976 -1.7360  2.4238  1.1869
52777SOL     OW64293   6.747   4.274   0.076 -0.2305  0.2346 -0.1179
52777SOL    HW164294   6.679   4.271   0.009  0.4079 -1.3817 -0.7420
52777SOL    HW264295   6.729   4.354   0.125 -1.1980  1.0276 -1.7002
52778SOL     OW64296   9.170  10.532   8.356  0.2052  0.2019 -0.0825
52778SOL    HW164297   9.086  10.543   8.311  0.7934  0.8345 -1.0629
52778SOL    HW264298   9.211  10.457   8.314  0.8454  0.9177 -0.7654
52779SOL     OW64299   0.889   5.466  12.150  0.4875 -0.2013 -0.1439
52779SOL    HW164300   0.961   5.412  12.186  0.2754 -1.2118 -1.1730
52779SOL    HW264301   0.929   5.513  12.077 -0.2380 -2.0858 -1.8459
52780SOL     OW64302   3.399  11.760   4.527 -0.8816 -0.2639  0.0383
52780SOL    HW164303   3.389  11.666   4.512  0.5239 -0.4316  0.0482
52780SOL    HW264304   3.489  11.770   4.558 -1.4648  0.9272  1.4410
52781SOL     OW64305   2.080   8.693   3.594  0.4255 -0.1112 -0.2728
52781SOL    HW164306   2.146   8.707   3.527 -0.5666  1.7084 -0.9316
52781SOL    HW264307   2.050   8.781   3.618 -1.5751 -0.8479  0.1704
52782SOL     OW64308   5.448   6.475  12.292 -0.6237  0.4525 -0.2525
52782SOL    HW164309   5.422   6.567  12.288 -0.5245  0.5367  0.8944
52782SOL    HW264310   5.521   6.473  12.353  0.6042 -0.1289 -1.6894
52783SOL     OW64311   3.063   3.749   4.369  0.1192 -0.2071  0.4782
52783SOL    HW164312   3.031   3.807   4.300 -1.0296 -0.9342  0.3853
52783SOL    HW264313   3.114   3.807   4.426 -1.3081  0.9951  0.5964
52784SOL     OW64314   7.663   0.158   5.616  0.3370  0.6096 -0.2180
52784SOL    HW164315   7.659   0.224   5.685 -0.2026  1.0027 -0.6171
52784SOL    HW264316   7.572   0.148   5.587  0.4285 -0.2257 -0.2415
52785SOL     OW64317   8.350  11.610   6.300  0.3299  0.1283  0.3607
52785SOL    HW164318   8.400  11.550   6.355 -1.5358  0.5607  2.7155
52785SOL    HW264319   8.259  11.596   6.326 -0.4629  1.6823 -1.3648
52786SOL     OW64320   7.445   7.316   2.343  0.4826 -0.6712  0.0766
52786SOL    HW164321   7.468   7.392   2.397  1.0222 -1.2501  0.6772
52786SOL    HW264322   7.394   7.353   2.270  1.3045  0.3553 -0.0067
52787SOL     OW64323   4.447   4.023   5.119  0.0755  0.6137 -0.4939
52787SOL    HW164324   4.426   4.047   5.029  0.5437  1.6350 -0.3477
52787SOL    HW264325   4.411   4.095   5.172  0.1555  0.2225  0.1042
52788SOL     OW64326   0.009   4.064   7.129 -0.0181  0.3342  0.2173
52788SOL    HW164327   0.066   4.075   7.053  1.4243 -0.9328  1.0558
52788SOL    HW264328  -0.063   4.126   7.115  0.8829  1.0388 -1.5283
52789SOL     OW64329  11.686  12.387   6.947 -0.1134  0.1538 -0.2521
52789SOL    HW164330  11.656  12.458   7.005 -0.8307 -0.9177  0.7359
52789SOL    HW264331  11.646  12.308   6.984  0.1384 -0.6858 -1.7084
52790SOL     OW64332   0.326   4.825   8.029  0.1368  0.1532  0.1231
52790SOL    HW164333   0.393   4.812   8.096  1.1655  0.0643 -0.9048
52790SOL    HW264334   0.311   4.738   7.993  2.4509  0.6697 -2.4097
52791SOL     OW64335   1.203   8.371  10.653  0.3096 -0.1304 -0.2405
52791SOL    HW164336   1.149   8.415  10.588  1.7889  2.5697  0.2217
52791SOL    HW264337   1.272   8.330  10.603  1.3422  1.7918 -0.4875
52792SOL     OW64338   0.021   9.130   3.978 -0.0058  0.0995 -0.2349
52792SOL    HW164339   0.087   9.093   4.037 -1.8037 -0.1399  1.7512
52792SOL    HW264340   0.035   9.084   3.895  1.7486 -0.5470  0.3744
52793SOL     OW64341   4.741   4.381   4.179 -0.2162  0.3517  0.0441
52793SOL    HW164342   4.810   4.353   4.238 -0.9974 -0.8234  0.4264
52793SOL    HW264343   4.685   4.438   4.232 -0.2585  0.2557  0.1023
52794SOL     OW64344   2.840   8.098   4.533 -0.4662 -0.3307 -0.5802
52794SOL    HW164345   2.761   8.150   4.547  0.0160  0.3954 -0.4660
52794SOL    HW264346   2.881   8.094   4.620  0.7440  1.1975 -1.0264
52795SOL     OW64347  12.143   4.936   2.119 -0.2444  0.4026 -0.0962
52795SOL    HW164348  12.105   4.888   2.046 -1.9980  0.1592  0.9201
52795SOL    HW264349  12.171   4.869   2.181 -3.2577  0.5416  1.6019
52796SOL     OW64350  10.266   2.012   8.599  0.5683 -0.5970  0.2535
52796SOL    HW164351  10.180   1.970   8.609  0.2795  0.3947  2.4556
52796SOL    HW264352  10.246   2.102   8.576  1.0680 -0.5845 -0.1470
52797SOL     OW64353   9.069  12.192  10.295  0.0881 -1.0446 -0.0103
52797SOL    HW164354   9.018  12.144  10.230 -2.3960 -0.4945  1.4010
52797SOL    HW264355   9.006  12.214  10.363  1.5986  2.2378  0.5027
52798SOL     OW64356   9.663   6.920  11.255  0.5294  0.7341 -0.4153
52798SOL    HW164357   9.608   6.865  11.200 -0.8167  0.9672  0.6442
52798SOL    HW264358   9.747   6.873  11.261 -0.6198 -1.3021  0.6101
52799SOL     OW64359   1.843  10.647   7.697 -0.5303  0.4243 -0.5622
52799SOL    HW164360   1.841  10.682   7.608 -1.7287 -0.3038 -0.8449
52799SOL    HW264361   1.878  10.558   7.687  1.0639  0.9607 -0.0480
52800SOL     OW64362   1.584   4.758   4.133 -0.1205 -0.2432  0.4915
52800SOL    HW164363   1.569   4.779   4.040  1.7884  1.2525  0.4518
52800SOL    HW264364   1.632   4.675   4.131 -1.1901 -0.8642  0.2186
52801SOL     OW64365  11.008  12.054   8.638 -0.0628 -0.3608 -0.3092
52801SOL    HW164366  11.102  12.057   8.657  0.7138 -0.4201 -3.5456
52801SOL    HW264367  10.993  12.130   8.581 -1.9826 -0.3910  0.1049
52802SOL     OW64368   4.398   3.563   1.099  0.7849 -0.2615  0.0653
52802SOL    HW164369   4.316   3.552   1.147 -0.1396  0.8942 -1.1843
52802SOL    HW264370   4.374   3.613   1.021  2.3542 -1.4780 -1.2705
52803SOL     OW64371   4.143   5.800   8.022 -0.1178 -0.2602 -1.5714
52803SOL    HW164372   4.227   5.772   8.056 -0.0157  0.7945 -0.8946
52803SOL    HW264373   4.080   5.738   8.059 -0.0842  1.1158  1.0912
52804SOL     OW64374   4.874   3.579   6.483  0.2995  0.0687 -0.0022
52804SOL    HW164375   4.889   3.610   6.572  0.9747 -2.9549  1.0605
52804SOL    HW264376   4.960   3.551   6.452  0.0201  0.7998 -1.5304
52805SOL     OW64377   2.102   1.057  10.082  0.7789 -0.0729  0.3571
52805SOL    HW164378   2.090   1.044  10.176 -1.0002  0.9429  0.3266
52805SOL    HW264379   2.105   0.969  10.046  0.9544 -0.4660  1.3097
52806SOL     OW64380   4.255   4.544   6.093  0.2411 -0.4054  0.7427
52806SOL    HW164381   4.277   4.526   6.184 -1.4814  0.8803  1.4755
52806SOL    HW264382   4.160   4.556   6.093  0.3730  1.0467 -0.9464
52807SOL     OW64383   2.289   3.240   7.388 -0.1268  0.1011  0.3812
52807SOL    HW164384   2.220   3.208   7.329  0.4560  0.9441 -0.7934
52807SOL    HW264385   2.245   3.305   7.443  0.0401  1.9028 -1.4983
52808SOL     OW64386   1.989   6.102   9.516  0.0811 -0.1011 -0.2898
52808SOL    HW164387   2.077   6.101   9.555  0.8187  0.4615 -1.8657
52808SOL    HW264388   1.971   6.011   9.496  0.4641 -0.1773 -0.3011
52809SOL     OW64389   7.518  12.428   2.492  0.1385  0.5801 -1.1142
52809SOL    HW164390   7.498  12.335   2.503 -1.2852  0.8754 -1.0207
52809SOL    HW264391   7.614  12.432   2.493  0.2428 -0.6101  1.2259
52810SOL     OW64392   8.343   7.784  12.145 -0.1042  0.3535 -0.1998
52810SOL    HW164393   8.369   7.851  12.208 -4.4134  1.1088  1.1157
52810SOL    HW264394   8.295   7.719  12.197 -1.0828 -0.6743 -2.2244
52811SOL     OW64395   4.973   9.187   8.019  0.2312 -0.0789 -0.3182
52811SOL    HW164396   5.046   9.225   8.068  0.7094 -0.6613 -0.5668
52811SOL    HW264397   4.965   9.241   7.940 -0.7060  1.0196  0.4960
52812SOL     OW64398  11.621   8.362   3.108  0.3142 -0.0635  0.1142
52812SOL    HW164399  11.557   8.380   3.177 -0.0023 -0.9067  0.0571
52812SOL    HW264400  11.613   8.268   3.092  1.1833 -0.0807 -0.2854
52813SOL     OW64401  11.519   2.257   6.556  0.0914 -0.1818 -0.7243
52813SOL    HW164402  11.550   2.253   6.646 -2.0365  0.3534  0.1000
52813SOL    HW264403  11.488   2.169   6.537  1.5502 -0.5746 -1.3444
52814SOL     OW64404   1.148   6.480  10.782  0.2990 -0.4357  0.2768
52814SOL    HW164405   1.235   6.451  10.757  0.7931  1.4860 -0.4479
52814SOL    HW264406   1.158   6.515  10.871  0.1113 -0.8477  0.4604
52815SOL     OW64407  11.292  11.028   4.009  0.4184 -0.2245  0.3694
52815SOL    HW164408  11.305  10.934   4.025 -0.6444 -0.1244  2.1140
52815SOL    HW264409  11.348  11.048   3.934  0.4551 -2.3069 -0.2187
52816SOL     OW64410   5.535   6.744  11.373 -0.1276  0.2962 -0.0834
52816SOL    HW164411   5.457   6.753  11.319 -0.6346 -1.3099  0.3217
52816SOL    HW264412   5.606   6.782  11.321 -0.6962 -0.7169 -1.6310
52817SOL     OW64413  10.439  11.608   3.408 -0.3210 -0.0566 -0.4273
52817SOL    HW164414  10.412  11.584   3.497 -0.9645  0.4839 -0.4744
52817SOL    HW264415  10.495  11.535   3.381  1.3122  0.5681  1.0557
52818SOL     OW64416   4.373   9.443   3.194 -0.1266 -0.1408 -0.1626
52818SOL    HW164417   4.292   9.391   3.189 -0.4786  0.3594  0.2731
52818SOL    HW264418   4.385   9.477   3.105 -0.2527 -0.4242 -0.2906
52819SOL     OW64419   7.862   1.010   5.677 -0.5702 -0.1118  0.0483
52819SOL    HW164420   7.950   1.017   5.640 -1.0686  1.4955 -0.9590
52819SOL    HW264421   7.872   0.955   5.755  1.5457  1.0963  0.6935
52820SOL     OW64422  12.385   0.008   7.339 -0.0594 -0.2665  0.1427
52820SOL    HW164423  12.360  -0.082   7.317  1.2228 -0.4511 -0.6671
52820SOL    HW264424  12.439  -0.000   7.418  0.5896 -0.3017 -0.2914
52821SOL     OW64425   3.113   4.078   7.217  0.1460 -0.1949  0.2344
52821SOL    HW164426   3.053   4.049   7.148  0.5893  0.0416 -0.2516
52821SOL    HW264427   3.178   4.008   7.224  0.9688  0.4582 -0.6410
52822SOL     OW64428   1.439   6.966   8.273  0.3385 -0.5723 -0.5099
52822SOL    HW164429   1.417   6.875   8.296 -0.8086 -0.5026 -1.2555
52822SOL    HW264430   1.377   7.019   8.321 -0.5002 -0.3111 -1.8294
52823SOL     OW64431   7.858   4.751  11.840 -0.4781  0.1038 -0.2879
52823SOL    HW164432   7.948   4.719  11.845 -0.7870 -0.8086 -0.3406
52823SOL    HW264433   7.864   4.834  11.791  0.5962  1.2280  1.6618
52824SOL     OW64434   4.751   4.531   8.280 -0.1413  0.3683 -0.2247
52824SOL    HW164435   4.697   4.469   8.329  0.2965  0.3601  0.2503
52824SOL    HW264436   4.812   4.567   8.345 -0.3970  1.3071 -0.4891
52825SOL     OW64437   0.214   3.736   6.514 -0.1383 -0.5086 -0.3374
52825SOL    HW164438   0.155   3.687   6.571  0.5599  0.5868  1.4290
52825SOL    HW264439   0.160   3.805   6.477 -0.3447 -0.4921 -0.0135
52826SOL     OW64440   6.321   0.821   8.135  0.5026 -0.2276 -0.1192
52826SOL    HW164441   6.268   0.886   8.089  0.1542 -0.1124  0.4467
52826SOL    HW264442   6.407   0.862   8.143  0.3509  0.0628  0.0154
52827SOL     OW64443   8.421   7.504   9.540 -0.0898  0.2630  0.3005
52827SOL    HW164444   8.456   7.538   9.458 -0.3412  1.8801  0.8196
52827SOL    HW264445   8.344   7.454   9.515  0.2603  0.1184 -0.5079
52828SOL     OW64446   6.845  12.380   5.098  0.0308  0.3790  0.2130
52828SOL    HW164447   6.811  12.423   5.019 -1.5427  0.4098  0.8638
52828SOL    HW264448   6.807  12.293   5.096  2.8212 -0.9350 -0.8372
52829SOL     OW64449   5.466   1.034   3.269  0.1840  0.4501  0.0390
52829SOL    HW164450   5.500   1.009   3.183 -1.5593 -0.9717 -0.2972
52829SOL    HW264451   5.372   1.049   3.255 -0.3086 -0.6200  1.8216
52830SOL     OW64452   2.912   0.437  10.757  0.1931  0.4785  0.4128
52830SOL    HW164453   2.987   0.486  10.793 -0.8080  2.7622 -0.3798
52830SOL    HW264454   2.844   0.504  10.746 -1.5672 -1.3054 -0.0161
52831SOL     OW64455  11.406   0.947  10.344 -0.1916  0.0479 -0.0716
52831SOL    HW164456  11.410   0.998  10.425  0.3674  2.4601 -1.5157
52831SOL    HW264457  11.319   0.907  10.345 -1.6679  2.9919  0.0904
52832SOL     OW64458   2.287  11.079  11.168  0.0005 -0.0283  0.7539
52832SOL    HW164459   2.310  11.014  11.234  1.3322 -0.2885  0.0570
52832SOL    HW264460   2.260  11.028  11.091 -0.5925  0.2624  0.7614
52833SOL     OW64461   2.654   4.383   8.221  0.0031  0.0375 -0.2768
52833SOL    HW164462   2.735   4.350   8.181  0.7422  1.1852  0.2077
52833SOL    HW264463   2.607   4.304   8.248  0.0004 -0.7358 -2.3366
52834SOL     OW64464   7.763   6.775   6.123  0.1548 -0.6378  0.2676
52834SOL    HW164465   7.715   6.745   6.200 -1.5290  0.6865 -0.1727
52834SOL    HW264466   7.695   6.788   6.057  1.3752 -0.3758 -0.9819
52835SOL     OW64467   5.689   3.351   0.610 -0.2102  0.6139 -0.3129
52835SOL    HW164468   5.668   3.370   0.701 -0.2047  1.3670 -0.4572
52835SOL    HW264469   5.776   3.312   0.613 -0.8186 -0.7867  0.1250
52836SOL     OW64470   3.289   5.491   9.167 -0.1183  0.1961 -0.7364
52836SOL    HW164471   3.291   5.553   9.240 -1.7327  1.7630 -1.9453
52836SOL    HW264472   3.363   5.516   9.112  1.1030 -0.9895  0.3042
52837SOL     OW64473   4.719   1.214  10.047  0.0811 -0.1559  0.0853
52837SOL    HW164474   4.685   1.279   9.985  0.7981  0.2251  0.0847
52837SOL    HW264475   4.720   1.132   9.998  2.3328  0.4677 -1.0211
52838SOL     OW64476   6.530   8.338   4.801  0.0486 -0.2779 -0.2594
52838SOL    HW164477   6.613   8.318   4.846  0.9758 -0.3021 -1.9028
52838SOL    HW264478   6.487   8.401   4.859  0.1537 -1.9468  1.7196
52839SOL     OW64479   4.443   7.857   3.917 -0.0965 -0.0570 -0.0382
52839SOL    HW164480   4.424   7.796   3.845 -0.2575  0.2442 -0.2556
52839SOL    HW264481   4.382   7.831   3.986 -0.5447  0.1998 -0.3291
52840SOL     OW64482   2.017  12.375   8.261  0.2928  0.6420  0.2581
52840SOL    HW164483   1.982  12.414   8.181 -0.8118 -0.4681  0.1665
52840SOL    HW264484   2.088  12.318   8.230  1.1355  1.6526  0.2795
52841SOL     OW64485  12.170   8.833   7.632  0.0331 -0.3359 -0.1658
52841SOL    HW164486  12.130   8.906   7.585 -1.4558 -0.3457  1.0072
52841SOL    HW264487  12.238   8.801   7.573 -0.5952  0.7544 -1.5432
52842SOL     OW64488  10.666   1.518   1.612  0.2729  0.0179  0.3762
52842SOL    HW164489  10.690   1.427   1.591  2.7151  0.8654 -0.9026
52842SOL    HW264490  10.725   1.542   1.683 -1.0571  0.3249  1.4043
52843SOL     OW64491   0.113   0.324   9.634  0.8300 -0.1176 -0.4464
52843SOL    HW164492   0.033   0.357   9.674  1.1958  0.3274 -0.0721
52843SOL    HW264493   0.091   0.313   9.541 -0.2426 -1.8588 -0.0357
52844SOL     OW64494   0.119   3.134  12.067 -0.3968 -0.0138  0.0530
52844SOL    HW164495   0.162   3.048  12.072  0.9814  0.7345  3.1538
52844SOL    HW264496   0.186   3.193  12.033  0.2612  0.6526  2.3681
52845SOL     OW64497  10.252   1.472   2.538 -0.3830  0.4563 -0.3950
52845SOL    HW164498  10.325   1.493   2.596  0.2955  0.1840 -1.1249
52845SOL    HW264499  10.236   1.378   2.552 -0.4682  0.4749 -0.3690
52846SOL     OW64500   2.962   1.376   7.688 -0.3490 -0.3577 -0.5348
52846SOL    HW164501   2.925   1.290   7.707 -3.6677  0.8661 -0.8629
52846SOL    HW264502   2.902   1.438   7.730  1.9468  1.8665 -0.2521
52847SOL     OW64503   2.437   5.246   6.732 -0.1802  0.0629 -0.3317
52847SOL    HW164504   2.357   5.226   6.781 -0.6840 -2.6642 -2.0442
52847SOL    HW264505   2.406   5.290   6.653  0.0289 -0.5259 -0.7519
52848SOL     OW64506   4.673   1.175   4.407 -0.3560 -0.2348 -1.0406
52848SOL    HW164507   4.722   1.241   4.359 -0.3227  0.6352  0.1603
52848SOL    HW264508   4.583   1.208   4.407  0.1300  1.5850  2.2938
52849SOL     OW64509   4.039   9.099   8.971 -0.0276 -0.1486  0.2744
52849SOL    HW164510   3.989   9.018   8.958  0.4342 -0.5650  1.0147
52849SOL    HW264511   3.981   9.156   9.021 -0.0613 -0.3331  0.4491
52850SOL     OW64512   4.886   3.788   1.237 -0.2057  0.4999 -0.4424
52850SOL    HW164513   4.898   3.732   1.314  0.3786 -0.1441 -0.9930
52850SOL    HW264514   4.800   3.763   1.202 -0.1459  0.2661 -0.4246
52851SOL     OW64515  10.742   5.628  11.701 -0.3951  0.9271  0.2271
52851SOL    HW164516  10.807   5.659  11.637  0.6332 -0.2796  0.6626
52851SOL    HW264517  10.724   5.538  11.675  1.1593 -0.0933  2.4940
52852SOL     OW64518   5.707   6.889  11.243 -0.1274 -0.4247  0.2131
52852SOL    HW164519   5.671   6.968  11.284  0.2466 -0.6943  1.0880
52852SOL    HW264520   5.802   6.900  11.249 -0.0720 -0.5112 -0.5123
52853SOL     OW64521  12.230   5.160   6.665 -0.3378 -0.1035 -0.1121
52853SOL    HW164522  12.184   5.160   6.748  0.3951 -0.4668  0.3058
52853SOL    HW264523  12.323   5.164   6.689 -0.1397  0.4473 -0.9214
52854SOL     OW64524  12.135  12.176   6.391 -0.7559  0.5461 -0.6195
52854SOL    HW164525  12.097  12.094   6.359 -1.8673  0.7402  0.1673
52854SOL    HW264526  12.227  12.156   6.405 -1.0093 -0.5578 -0.4839
52855SOL     OW64527   1.044   0.802  11.166  0.7161 -0.2075 -0.1230
52855SOL    HW164528   1.109   0.836  11.104  1.5439 -0.6326  0.4938
52855SOL    HW264529   1.062   0.708  11.170  0.7915 -0.1612  0.8884
52856SOL     OW64530   7.102   9.765   5.951  0.2941  0.2085 -0.6049
52856SOL    HW164531   7.173   9.807   5.902  0.8440  0.3845  0.3121
52856SOL    HW264532   7.141   9.745   6.036 -0.9374  0.9290  0.1627
52857SOL     OW64533   6.147  11.406   6.265 -0.1867 -0.3947  0.2398
52857SOL    HW164534   6.110  11.491   6.289 -0.0405 -0.2650  0.0033
52857SOL    HW264535   6.070  11.349   6.255 -0.2507 -0.4445  0.9809
52858SOL     OW64536   7.043   2.785   7.878  0.0986 -0.3583 -0.4946
52858SOL    HW164537   7.129   2.800   7.840  0.8572 -0.0298  1.2452
52858SOL    HW264538   7.054   2.706   7.932 -0.8798 -0.7171 -0.8025
52859SOL     OW64539  11.829   7.107   6.587  0.0300 -0.3997 -0.3227
52859SOL    HW164540  11.766   7.144   6.526  0.8416  1.0172 -0.3281
52859SOL    HW264541  11.912   7.107   6.538  0.6066  0.3978  0.6347
52860SOL     OW64542   0.399   0.742   5.522 -0.0536 -0.0632  0.1119
52860SOL    HW164543   0.330   0.675   5.519 -0.9898  0.8902 -0.5414
52860SOL    HW264544   0.363   0.815   5.472  1.3592  0.5514 -0.0466
52861SOL     OW64545   5.590   1.884   4.747  0.2504 -0.1763  0.5734
52861SOL    HW164546   5.612   1.922   4.662 -0.9662  1.3662  0.9029
52861SOL    HW264547   5.512   1.831   4.731  0.4290 -0.4581  0.6150
52862SOL     OW64548   9.778   6.325   1.338 -0.3366  0.2228  0.1206
52862SOL    HW164549   9.694   6.362   1.312  0.0742  2.2728  1.4814
52862SOL    HW264550   9.823   6.309   1.255 -1.7465 -0.1698 -0.6002
52863SOL     OW64551  11.585   8.436  10.405 -0.4309 -0.1130 -0.3495
52863SOL    HW164552  11.646   8.424  10.332 -1.7865 -1.5291 -1.3331
52863SOL    HW264553  11.611   8.518  10.446 -0.1232  1.1800 -2.9607
52864SOL     OW64554   6.023   4.879   5.620 -0.8767  0.5142  0.6995
52864SOL    HW164555   5.989   4.858   5.706  0.4809  1.0194  1.3869
52864SOL    HW264556   6.114   4.848   5.621 -1.1244 -0.4106 -0.9081
52865SOL     OW64557   9.925  12.094   5.687 -0.2712 -0.0299  0.4401
52865SOL    HW164558   9.960  12.137   5.766 -0.1594 -0.7365  0.7858
52865SOL    HW264559   9.835  12.072   5.710 -0.2537 -0.1937  0.3547
52866SOL     OW64560   1.468   2.101  10.668  0.3919  0.1556  0.1916
52866SOL    HW164561   1.545   2.056  10.701  0.4976  1.0793  1.2816
52866SOL    HW264562   1.420   2.128  10.747 -1.0857 -0.4493 -0.4552
52867SOL     OW64563   3.550  10.800   0.269  0.1008 -0.3683  0.6723
52867SOL    HW164564   3.598  10.781   0.349  0.2359 -0.7049  0.5084
52867SOL    HW264565   3.600  10.870   0.227 -0.0353 -0.1046  0.9365
52868SOL     OW64566  11.033   1.443  10.331  0.0484 -0.2703 -0.0359
52868SOL    HW164567  11.111   1.389  10.339  0.1586 -0.0993  0.0620
52868SOL    HW264568  11.015   1.473  10.420 -1.0644 -1.5918  0.2166
52869SOL     OW64569   9.939   7.411   7.528 -0.0598 -0.0052  0.4790
52869SOL    HW164570   9.996   7.487   7.515  0.8640 -0.6229  0.7929
52869SOL    HW264571   9.950   7.389   7.621 -0.1319 -0.6605  0.3369
52870SOL     OW64572   4.110   3.409  11.043  0.2799  0.0616 -0.1663
52870SOL    HW164573   4.123   3.491  10.996  0.9184 -1.2341 -2.3855
52870SOL    HW264574   4.018   3.386  11.027  0.4796 -0.3465 -0.7607
52871SOL     OW64575   2.051  11.732   1.907 -0.4882  0.1414  0.1204
52871SOL    HW164576   1.957  11.743   1.893 -0.4461 -0.6570 -0.8388
52871SOL    HW264577   2.070  11.644   1.876  0.4968  0.1081  0.7838
52872SOL     OW64578   9.616   9.765   9.720  0.1935 -0.5318  0.2324
52872SOL    HW164579   9.580   9.698   9.662 -0.1386  0.4006 -0.6747
52872SOL    HW264580   9.600   9.847   9.674  2.7741  0.0065  0.1500
52873SOL     OW64581   2.185   1.356   5.972  0.1445 -0.2429 -0.5898
52873SOL    HW164582   2.158   1.419   6.039  2.7466 -1.6272  1.9931
52873SOL    HW264583   2.103   1.317   5.942 -1.2378  1.5364  0.6596
52874SOL     OW64584   2.437   0.755   1.235  0.2544 -0.1283 -0.5634
52874SOL    HW164585   2.355   0.763   1.186 -0.5322 -0.0256  0.7263
52874SOL    HW264586   2.459   0.662   1.231  0.2778 -0.1022 -1.1984
52875SOL     OW64587   7.134  10.596   1.320 -0.1298  0.2036 -0.7159
52875SOL    HW164588   7.193  10.525   1.295 -1.6253 -2.0049  1.4644
52875SOL    HW264589   7.051  10.573   1.278 -0.7941  0.2778  0.5065
52876SOL     OW64590   8.528   9.661   8.882  0.4582  0.1583  0.4946
52876SOL    HW164591   8.575   9.622   8.956  1.6210 -1.1882 -0.8968
52876SOL    HW264592   8.578   9.739   8.860  0.9641 -0.2374  0.2193
52877SOL     OW64593   7.389   6.030   1.607  0.0408  0.0453 -0.0804
52877SOL    HW164594   7.427   6.111   1.573 -0.8716 -0.1462 -1.6924
52877SOL    HW264595   7.449   5.961   1.579 -0.5619 -0.0820 -1.1255
52878SOL     OW64596   0.336   0.679  10.871  0.0203 -0.0583 -0.2342
52878SOL    HW164597   0.364   0.746  10.809  0.9491 -0.4243 -0.2303
52878SOL    HW264598   0.412   0.621  10.880 -0.6421 -0.9139  0.0297
52879SOL     OW64599   5.975   6.914   3.453 -0.4018  0.5849  0.4203
52879SOL    HW164600   5.971   6.972   3.529  1.6201 -0.0460  1.0644
52879SOL    HW264601   6.029   6.961   3.390 -0.6821  0.3884  0.0332
52880SOL     OW64602   8.143   4.962   1.576 -0.1347  0.4018 -0.6898
52880SOL    HW164603   8.170   4.876   1.608 -0.1826  0.6038 -0.0923
52880SOL    HW264604   8.049   4.953   1.560 -0.7489  1.0831  1.9996
52881SOL     OW64605  11.611   4.111   4.654 -0.0570  0.1429 -0.1722
52881SOL    HW164606  11.674   4.182   4.665  0.6382 -0.5348  0.2225
52881SOL    HW264607  11.649   4.054   4.587  0.1797 -0.7353  0.6885
52882SOL     OW64608   4.645   1.931   8.136  0.1351  0.1922  0.3872
52882SOL    HW164609   4.570   1.874   8.121 -0.7354  1.2695  0.5600
52882SOL    HW264610   4.692   1.890   8.209 -0.5200 -0.2604  0.5581
52883SOL     OW64611   0.409   1.507   4.356  0.6333  0.2278 -0.1712
52883SOL    HW164612   0.502   1.486   4.358  0.7155  0.5864 -0.1297
52883SOL    HW264613   0.396   1.552   4.272  0.9395  2.1440  0.7641
52884SOL     OW64614   3.880   9.374   8.645 -0.3872  0.4415  0.2302
52884SOL    HW164615   3.790   9.396   8.670  0.3767  2.3123  1.5414
52884SOL    HW264616   3.883   9.279   8.647 -2.7464  0.2340 -1.4153
52885SOL     OW64617   6.782   7.061   4.827  0.1710 -0.1660 -0.0924
52885SOL    HW164618   6.859   7.080   4.773 -0.1905 -0.6621 -0.8097
52885SOL    HW264619   6.708   7.092   4.774 -0.1483 -0.0814  0.4006
52886SOL     OW64620   3.782  12.329   6.175  0.2953 -0.5614  0.1483
52886SOL    HW164621   3.739  12.413   6.161 -2.2877 -1.7248  0.5162
52886SOL    HW264622   3.857  12.329   6.115 -0.1329  1.6296 -0.4536
52887SOL     OW64623   9.479   1.026   5.230 -0.1550  0.1252 -0.1759
52887SOL    HW164624   9.503   1.032   5.323  0.6435  0.1882 -0.3860
52887SOL    HW264625   9.383   1.033   5.231 -0.4095 -2.2681  0.8627
52888SOL     OW64626   0.971   1.010   9.590 -0.3320 -0.3952 -0.0154
52888SOL    HW164627   0.914   0.950   9.542  0.7225 -1.3297 -0.1364
52888SOL    HW264628   0.939   1.005   9.681 -0.6747 -0.6179 -0.1442
52889SOL     OW64629   5.952   3.824   2.994  0.0924  0.1315  0.0773
52889SOL    HW164630   5.890   3.872   3.048  0.0063  1.2911 -0.9996
52889SOL    HW264631   5.897   3.776   2.932  0.2404  0.5168 -0.3581
52890SOL     OW64632   8.571  12.347   1.324 -0.2930 -0.2595 -0.4890
52890SOL    HW164633   8.619  12.352   1.407  0.9247 -1.4063 -1.0842
52890SOL    HW264634   8.593  12.261   1.289  0.4652  0.7799 -2.7379
52891SOL     OW64635   7.383   9.643  12.123  0.0543  0.2168  0.1724
52891SOL    HW164636   7.384   9.723  12.174 -2.7661  0.2894  0.2787
52891SOL    HW264637   7.406   9.574  12.185  1.1732  0.7690  0.3955
52892SOL     OW64638  12.133   0.806  10.663 -0.4111  0.0201 -0.3398
52892SOL    HW164639  12.208   0.824  10.606  0.5470 -2.9167 -0.1582
52892SOL    HW264640  12.171   0.794  10.750 -1.0677 -1.3934 -0.2192
52893SOL     OW64641   0.403   0.402   3.935  0.0565 -0.1447  0.1950
52893SOL    HW164642   0.346   0.365   4.003 -0.2225  0.2566  0.1811
52893SOL    HW264643   0.485   0.421   3.981  0.8298 -2.3422 -0.1462
52894SOL     OW64644   1.104  12.301   6.341 -0.1915 -0.8012  0.5823
52894SOL    HW164645   1.080  12.371   6.281  1.4675 -1.5656 -1.0759
52894SOL    HW264646   1.024  12.281   6.389 -0.7439  2.0605  0.9772
52895SOL     OW64647  10.363   3.951   9.200  0.5482 -0.2132  0.2156
52895SOL    HW164648  10.388   3.972   9.110  1.1623  0.3672  0.5139
52895SOL    HW264649  10.364   4.035   9.246  2.8315 -0.7833  1.3966
52896SOL     OW64650   6.694   6.751   1.994  0.2339 -0.2641 -0.2788
52896SOL    HW164651   6.713   6.746   2.087  0.3165  3.1771  0.0249
52896SOL    HW264652   6.623   6.688   1.980 -1.5895  0.8953  2.7074
52897SOL     OW64653   5.248  10.918   2.242 -0.0620 -0.0385 -0.4791
52897SOL    HW164654   5.252  10.863   2.163 -0.7144  0.5084 -0.8977
52897SOL    HW264655   5.219  10.858   2.311 -0.5649 -0.2738 -0.8886
52898SOL     OW64656   7.897   1.757   6.797 -0.2005 -0.5481  0.6498
52898SOL    HW164657   7.890   1.704   6.877  1.6048 -0.1875  1.0966
52898SOL    HW264658   7.986   1.740   6.765  0.2442  1.7575  0.5042
52899SOL     OW64659   7.893   1.599   4.565 -0.0316  0.2527 -0.1074
52899SOL    HW164660   7.806   1.566   4.589  0.7985 -1.7853  0.2413
52899SOL    HW264661   7.905   1.570   4.474  0.9082 -0.9021  0.3635
52900SOL     OW64662   1.756   9.861   6.503  0.1392  0.2871 -0.3770
52900SOL    HW164663   1.758   9.828   6.413  1.2494  1.8663 -0.9811
52900SOL    HW264664   1.721   9.789   6.555 -0.7016 -0.5995 -2.1034
52901SOL     OW64665   9.795   2.671   0.506 -0.4012 -0.4727  0.6713
52901SOL    HW164666   9.740   2.746   0.529 -1.1270 -1.2634  1.6318
52901SOL    HW264667   9.856   2.705   0.441  1.4516  1.8020  3.3928
52902SOL     OW64668   6.231   9.331  10.332  0.2635  0.2061 -0.2261
52902SOL    HW164669   6.245   9.289  10.417  0.2402  1.2812  0.3291
52902SOL    HW264670   6.187   9.414  10.354  1.8667  1.3424 -1.1287
52903SOL     OW64671  10.389   2.529   7.004  0.0081  0.1649 -0.9052
52903SOL    HW164672  10.319   2.501   7.064  1.0087 -1.6153 -0.5091
52903SOL    HW264673  10.378   2.624   6.999 -1.9211  0.0385 -0.2127
52904SOL     OW64674   5.758  10.243   3.142  0.4599  0.5496  0.1079
52904SOL    HW164675   5.825  10.194   3.094 -0.1141 -1.2746  1.0355
52904SOL    HW264676   5.702  10.280   3.074  0.5436 -0.6798 -0.6702
52905SOL     OW64677  11.111   0.504   8.400  0.2686  0.5575  0.4668
52905SOL    HW164678  11.176   0.437   8.419 -0.4558 -0.5390 -0.7936
52905SOL    HW264679  11.152   0.560   8.335 -0.1084 -0.2879 -0.5261
52906SOL     OW64680  11.742   2.401   3.451  0.7419  0.1962 -0.8954
52906SOL    HW164681  11.690   2.356   3.385  1.2005  0.2545 -1.3013
52906SOL    HW264682  11.810   2.337   3.474 -0.9848 -0.9276  1.5371
52907SOL     OW64683   7.487   0.561  12.451  0.1356 -0.5243  0.4700
52907SOL    HW164684   7.419   0.559  12.385 -0.7643 -0.3036  1.3585
52907SOL    HW264685   7.443   0.535  12.532  1.1857 -0.7310  0.9968
52908SOL     OW64686   8.002   0.312   1.212 -0.3975  0.2373 -0.6470
52908SOL    HW164687   8.022   0.317   1.305 -2.5749  0.3149 -0.1259
52908SOL    HW264688   8.049   0.234   1.182  1.3727  0.9233  0.1837
52909SOL     OW64689   5.776  11.950   2.217  0.7098 -0.6639  0.0693
52909SOL    HW164690   5.760  12.040   2.189 -1.8833 -1.2874 -0.7506
52909SOL    HW264691   5.871  11.945   2.231  0.9946  1.9843 -0.5138
52910SOL     OW64692   7.809   4.962   4.349 -0.1620 -0.2852 -0.5294
52910SOL    HW164693   7.769   4.924   4.428 -0.1997  0.9299  0.0587
52910SOL    HW264694   7.805   5.056   4.364  1.7660 -0.0926 -1.0357
52911SOL     OW64695  11.148   5.317   4.033 -0.1186 -0.7865  0.4502
52911SOL    HW164696  11.228   5.303   3.983 -0.7519 -0.3447 -0.7179
52911SOL    HW264697  11.090   5.246   4.005 -1.2177  0.6152 -1.0572
52912SOL     OW64698   8.036   8.103   9.133  0.5632  0.9040 -0.0377
52912SOL    HW164699   7.972   8.043   9.171 -0.1544  1.1912 -0.7580
52912SOL    HW264700   8.121   8.073   9.166  0.3253 -0.9974 -1.0053
52913SOL     OW64701   8.626   3.947   1.819  0.4211  0.4154  0.0195
52913SOL    HW164702   8.667   3.938   1.733  1.3931  1.8134  0.2960
52913SOL    HW264703   8.681   4.011   1.865  0.2144 -0.6431  1.8582
52914SOL     OW64704   7.486   0.868   1.223 -0.0211  0.8226  0.2685
52914SOL    HW164705   7.575   0.849   1.254 -0.8223  1.8977  3.6561
52914SOL    HW264706   7.470   0.959   1.248 -2.3831  0.3689  0.6775
52915SOL     OW64707   5.286   1.234   9.489  0.0829  0.4977  0.1662
52915SOL    HW164708   5.330   1.315   9.517  1.7338  0.2213 -1.4254
52915SOL    HW264709   5.308   1.171   9.557 -3.1838  1.8219  2.7156
52916SOL     OW64710  10.946   9.381   6.544  0.5254 -0.2253 -0.2165
52916SOL    HW164711  10.981   9.469   6.531 -0.2776 -0.0852 -1.6589
52916SOL    HW264712  10.939   9.372   6.639  2.6002  0.4557  0.0454
52917SOL     OW64713   5.233   6.317   5.450  0.6786 -0.8906 -0.3976
52917SOL    HW164714   5.275   6.237   5.417  0.6712 -0.3842 -1.7014
52917SOL    HW264715   5.304   6.381   5.454  0.3235 -0.4270 -1.2461
52918SOL     OW64716  10.553   0.099   7.899 -0.1131 -0.2076  0.6614
52918SOL    HW164717  10.620   0.030   7.900  0.3389  0.2174  0.3450
52918SOL    HW264718  10.580   0.156   7.827 -0.8984 -0.1100  0.4439
52919SOL     OW64719   5.804   5.314   6.874 -0.8729  0.0159 -0.1115
52919SOL    HW164720   5.787   5.222   6.897 -0.0910 -0.1672 -0.2239
52919SOL    HW264721   5.899   5.318   6.862 -0.4207  1.5805  3.0569
52920SOL     OW64722  11.364   8.141   4.716 -0.2568  0.2643  0.1153
52920SOL    HW164723  11.426   8.068   4.712  0.1615  0.1697  4.3482
52920SOL    HW264724  11.279   8.099   4.731 -0.3856  0.5681  0.2411
52921SOL     OW64725   4.428   0.999   8.527  0.7498 -0.2754  0.4459
52921SOL    HW164726   4.365   1.061   8.489  1.2256 -0.9904 -1.6613
52921SOL    HW264727   4.409   0.999   8.620 -2.8065 -0.9328 -0.1581
52922SOL     OW64728   9.046   7.384   9.080 -0.1338 -0.1739 -0.0629
52922SOL    HW164729   8.968   7.360   9.129 -0.9384  0.7788 -0.8350
52922SOL    HW264730   9.105   7.421   9.145 -0.3758 -0.7670  0.4990
52923SOL     OW64731   0.973   8.199  11.061  0.3736  0.7372  0.2974
52923SOL    HW164732   1.065   8.217  11.079  0.5404  1.1653 -0.9102
52923SOL    HW264733   0.964   8.209  10.966 -0.6340 -0.6179  0.2168
52924SOL     OW64734   2.611  11.121   6.932  0.2704  0.0485 -0.6112
52924SOL    HW164735   2.521  11.152   6.941  1.0550  2.1803  1.1723
52924SOL    HW264736   2.664  11.193   6.969  2.6223 -1.5167 -0.7252
52925SOL     OW64737   7.642  11.434  10.004  0.0268 -0.3265  0.1361
52925SOL    HW164738   7.661  11.367   9.938  1.5653 -0.3797  0.5885
52925SOL    HW264739   7.547  11.433  10.013 -0.0940 -1.3487 -0.9988
52926SOL     OW64740   5.023  11.863   2.558  0.4339  0.0226  0.3356
52926SOL    HW164741   5.112  11.850   2.525  0.6623 -0.2038  1.0242
52926SOL    HW264742   5.005  11.956   2.543  0.4100 -0.1360 -0.7002
52927SOL     OW64743   0.105  10.603   4.160  0.2609  0.3154 -0.1450
52927SOL    HW164744   0.070  10.648   4.083 -1.2047 -0.9489 -0.2761
52927SOL    HW264745   0.028  10.590   4.216  0.6365 -1.9090 -0.0868
52928SOL     OW64746   6.783   4.156   4.715  0.0303  0.1096 -0.2535
52928SOL    HW164747   6.834   4.081   4.687 -0.1332 -0.1301  0.0805
52928SOL    HW264748   6.770   4.142   4.809  1.0220  1.1575  0.0587
52929SOL     OW64749   7.998   6.463   4.802  0.1577 -0.3226 -0.0303
52929SOL    HW164750   8.039   6.519   4.736  0.9236 -2.8718 -1.9027
52929SOL    HW264751   7.956   6.524   4.863 -0.0348  2.2168 -2.4804
52930SOL     OW64752   5.879   4.271  12.263 -0.2872  0.2537 -0.2181
52930SOL    HW164753   5.864   4.330  12.338  0.7072  1.2379 -0.7507
52930SOL    HW264754   5.972   4.249  12.270 -0.4027 -0.3715 -0.6621
52931SOL     OW64755   0.605   8.384   3.103 -0.1441 -0.1241 -1.1712
52931SOL    HW164756   0.563   8.364   3.186  0.9734 -0.3515 -0.6371
52931SOL    HW264757   0.612   8.300   3.058  1.9192 -0.5566 -0.1822
52932SOL     OW64758  12.015   1.427   9.964  0.2663  0.2902  0.0659
52932SOL    HW164759  11.930   1.399   9.998  1.2262 -1.5575  1.1034
52932SOL    HW264760  12.002   1.438   9.870 -0.1726 -4.3685 -0.6229
52933SOL     OW64761   0.145   5.526  11.346 -0.1767 -0.2860  0.3675
52933SOL    HW164762   0.160   5.621  11.340  0.9070 -0.4886 -0.4594
52933SOL    HW264763   0.120   5.500  11.257  1.9473 -1.1289 -0.0574
52934SOL     OW64764  11.044  10.868   3.775  0.0793  0.4335  0.8698
52934SOL    HW164765  11.035  10.773   3.781  0.3501  0.4045  0.8431
52934SOL    HW264766  11.134  10.882   3.745 -0.3828  0.6419 -0.5276
52935SOL     OW64767   2.415   2.930   6.952  0.1994  0.3744  0.1415
52935SOL    HW164768   2.501   2.931   6.994  1.2265  2.6556 -1.7997
52935SOL    HW264769   2.433   2.936   6.858 -2.0746  1.1121 -0.3195
52936SOL     OW64770   4.883  12.487   5.620 -0.1391  0.5627 -0.0874
52936SOL    HW164771   4.931  12.511   5.699  2.7921  0.5449 -1.7380
52936SOL    HW264772   4.903  12.394   5.607 -2.5004 -0.0648  0.3379
52937SOL     OW64773   5.717   1.259   4.464  0.0352 -0.3257 -0.0555
52937SOL    HW164774   5.670   1.315   4.403 -2.0807 -0.6628  1.1702
52937SOL    HW264775   5.743   1.183   4.413 -1.0375 -0.2646 -0.7097
52938SOL     OW64776   5.106   3.131   4.516 -0.1624  0.0089 -0.3238
52938SOL    HW164777   5.043   3.095   4.453  2.1283 -1.8685 -1.7244
52938SOL    HW264778   5.117   3.062   4.581 -0.9354  1.1167  1.0440
52939SOL     OW64779  11.979   7.952   1.939 -0.3205  0.0817  0.3364
52939SOL    HW164780  11.891   7.916   1.940 -0.3413  0.1277  0.1530
52939SOL    HW264781  12.036   7.879   1.963 -0.2976 -0.2464 -0.6873
52940SOL     OW64782   3.537   1.699   3.791 -0.1019  0.2008 -0.5105
52940SOL    HW164783   3.525   1.682   3.884 -1.5716  0.3473 -0.6572
52940SOL    HW264784   3.471   1.646   3.748  1.3773 -0.8683 -1.5855
52941SOL     OW64785   7.574   3.803   9.773 -0.0677 -0.5952 -0.9988
52941SOL    HW164786   7.656   3.833   9.812 -0.2403 -0.8267 -0.4479
52941SOL    HW264787   7.515   3.790   9.847 -1.0438  0.8586 -1.4940
52942SOL     OW64788   6.778   9.165   1.279 -0.1747 -0.2856 -0.2732
52942SOL    HW164789   6.850   9.103   1.264  1.2107  0.7853  1.4985
52942SOL    HW264790   6.781   9.224   1.204  1.9641  0.7611  0.5682
52943SOL     OW64791   7.921   9.983   2.528  0.1716  0.0306  0.6830
52943SOL    HW164792   7.829   9.955   2.522  1.0691 -2.9025 -0.7468
52943SOL    HW264793   7.942  10.013   2.440  0.2350  2.2429  1.3804
52944SOL     OW64794   5.888   2.214  11.275 -0.3232 -0.2221  0.1243
52944SOL    HW164795   5.972   2.175  11.251  0.1513  0.7400  0.1543
52944SOL    HW264796   5.825   2.177  11.213 -0.1889 -2.1536  1.0879
52945SOL     OW64797   1.059   9.365   8.230 -0.4938  0.1549  0.1564
52945SOL    HW164798   1.051   9.376   8.135 -2.0575  0.2226  0.2709
52945SOL    HW264799   0.989   9.419   8.267 -0.2048 -0.2381  1.3277
52946SOL     OW64800   1.061   9.021   3.159  0.3493 -0.4761  0.5855
52946SOL    HW164801   1.105   9.036   3.075  2.1393  0.1558  1.5903
52946SOL    HW264802   1.086   9.096   3.213 -2.8745  0.4998  0.9172
52947SOL     OW64803   5.033   1.182  10.278 -0.9567 -0.0311 -0.1419
52947SOL    HW164804   5.015   1.088  10.281  3.9272 -1.2703 -0.3219
52947SOL    HW264805   5.022   1.211  10.369 -2.3368 -0.7753 -0.0477
52948SOL     OW64806   2.402  11.921  10.882 -0.0741 -0.2337  0.2848
52948SOL    HW164807   2.470  11.861  10.910 -0.9729 -0.9439  1.0022
52948SOL    HW264808   2.413  11.997  10.940  1.9253  0.9476 -1.5081
52949SOL     OW64809   3.641  10.546   7.666  0.0597 -0.1968 -0.4977
52949SOL    HW164810   3.695  10.593   7.729  1.3018  0.5247 -2.0353
52949SOL    HW264811   3.641  10.455   7.697  2.0843 -0.2037 -0.3871
52950SOL     OW64812   5.921   0.611   4.916 -0.4544  0.3477 -0.0346
52950SOL    HW164813   5.974   0.535   4.940  0.4287  0.5265 -1.3761
52950SOL    HW264814   5.945   0.678   4.979 -0.4990 -0.1516  0.5292
52951SOL     OW64815   3.624   5.796   0.959 -0.0894 -0.4789  0.2774
52951SOL    HW164816   3.556   5.811   1.025 -1.0838 -0.8858 -0.6254
52951SOL    HW264817   3.706   5.797   1.008 -0.8689 -1.8721  1.7118
52952SOL     OW64818   3.903   7.173   4.421 -0.3553 -0.5241  0.3464
52952SOL    HW164819   3.839   7.125   4.368 -1.3367 -1.6631  2.4397
52952SOL    HW264820   3.861   7.257   4.439 -0.9297 -0.9326  0.9841
52953SOL     OW64821   8.774   4.233   8.879  0.0323 -0.6168  0.1423
52953SOL    HW164822   8.713   4.305   8.867  1.7943  0.8887 -0.2064
52953SOL    HW264823   8.769   4.183   8.797 -0.8298 -0.6269  0.1924
52954SOL     OW64824   6.874   7.821   8.608  0.7448  0.1606 -0.2157
52954SOL    HW164825   6.818   7.842   8.533 -1.4127  0.4794  1.3816
52954SOL    HW264826   6.932   7.897   8.617 -0.3983  1.0802 -0.3514
52955SOL     OW64827   0.193   1.623   6.294 -0.0577 -0.5932 -0.3053
52955SOL    HW164828   0.127   1.659   6.354  1.0785  0.6797  0.2187
52955SOL    HW264829   0.185   1.677   6.215  0.5695 -0.2075 -0.1122
52956SOL     OW64830   4.668   7.468  10.645  0.0575 -0.0791  0.4563
52956SOL    HW164831   4.663   7.496  10.736 -0.1692  0.8442  0.1668
52956SOL    HW264832   4.740   7.520  10.608  0.3824 -0.7044  0.1973
52957SOL     OW64833  12.097   7.767   6.126 -0.3679  0.4647 -0.0547
52957SOL    HW164834  12.080   7.723   6.043 -0.1038  0.2568 -0.0013
52957SOL    HW264835  12.011   7.779   6.166 -0.6164  1.6617 -0.9058
52958SOL     OW64836   3.173   2.922  10.815 -0.5130 -0.4292  0.2550
52958SOL    HW164837   3.192   3.016  10.817  0.7549 -0.6435 -0.6131
52958SOL    HW264838   3.158   2.903  10.722 -0.3037 -1.1633  0.3702
52959SOL     OW64839   2.655   9.706   6.117 -0.1997  0.3006 -0.2887
52959SOL    HW164840   2.602   9.786   6.124 -0.5792  0.1766 -1.5373
52959SOL    HW264841   2.653   9.684   6.024  1.6248 -0.0141 -0.2881
52960SOL     OW64842  10.430   2.527   6.029  0.5270  0.3137  0.4387
52960SOL    HW164843  10.452   2.601   5.973  0.3877  0.6514  0.8209
52960SOL    HW264844  10.349   2.554   6.073 -0.5993 -0.8355 -0.8267
52961SOL     OW64845   6.482   9.963   1.076 -0.3636  0.0158 -0.3769
52961SOL    HW164846   6.561   9.972   1.129 -1.4124  1.1738  1.0927
52961SOL    HW264847   6.494   9.881   1.028  1.7620  0.2242 -0.3113
52962SOL     OW64848  11.306  12.136   3.118  0.2241 -0.4894  0.0488
52962SOL    HW164849  11.306  12.079   3.041  1.2417  1.0385 -1.1440
52962SOL    HW264850  11.234  12.103   3.172 -0.1668 -1.9495 -1.2926
52963SOL     OW64851   8.587   7.977   7.990 -0.0524  0.0887  0.8859
52963SOL    HW164852   8.675   8.004   8.014  0.3434 -1.1704  0.8911
52963SOL    HW264853   8.592   7.883   7.977 -1.2595  0.0793  0.2493
52964SOL     OW64854   3.700   2.744   7.909  0.5946  0.3550 -0.2216
52964SOL    HW164855   3.685   2.649   7.914  0.8083  0.3375  0.1301
52964SOL    HW264856   3.619   2.779   7.871  0.5562  0.0219 -0.4528
52965SOL     OW64857   4.645   8.730   8.735  0.0414 -0.1475 -0.3107
52965SOL    HW164858   4.723   8.731   8.789 -0.0771  1.1750 -0.1526
52965SOL    HW264859   4.584   8.672   8.782  1.0272 -1.5210 -0.6469
52966SOL     OW64860  12.043   7.425   7.609  0.3098  0.5525  0.2927
52966SOL    HW164861  11.959   7.447   7.649  0.3257  0.3875  0.4204
52966SOL    HW264862  12.078   7.509   7.578 -0.7245  0.4055 -1.4127
52967SOL     OW64863   7.197   2.433   8.869 -0.3844  0.2497  0.3361
52967SOL    HW164864   7.244   2.363   8.913  1.1390  1.1444  0.2179
52967SOL    HW264865   7.110   2.397   8.852 -0.0300 -1.1645  1.3438
52968SOL     OW64866   6.259   7.627   1.598 -0.4362  0.1571 -0.5730
52968SOL    HW164867   6.267   7.532   1.585 -1.3341  0.0296 -0.2835
52968SOL    HW264868   6.266   7.664   1.510  2.8278  0.1044 -0.4642
52969SOL     OW64869   4.829   7.688   7.418 -0.2793  0.4139 -0.1347
52969SOL    HW164870   4.911   7.720   7.454 -0.6543 -0.3373  1.4692
52969SOL    HW264871   4.840   7.594   7.410 -1.2135  0.2114  0.7608
52970SOL     OW64872   3.015  11.730   2.664 -0.0859  0.2317 -0.5937
52970SOL    HW164873   3.102  11.761   2.637  1.1569 -2.4935 -0.0362
52970SOL    HW264874   3.030  11.640   2.695 -3.1432 -0.3734 -0.5924
52971SOL     OW64875   8.718   8.590   1.400 -0.2369  0.3802 -0.1788
52971SOL    HW164876   8.803   8.546   1.395  0.0789  0.9725 -0.1592
52971SOL    HW264877   8.654   8.519   1.409  0.3621 -0.0294  1.1183
52972SOL     OW64878  10.677   8.315   4.722 -0.7049 -0.2183  0.1451
52972SOL    HW164879  10.719   8.400   4.736  0.0423 -1.0206  3.5167
52972SOL    HW264880  10.584   8.336   4.713 -0.1996  1.2673 -4.1979
52973SOL     OW64881  11.896   0.527   5.336  0.2076 -0.6869  0.1017
52973SOL    HW164882  11.843   0.472   5.278 -0.3285 -0.9188  0.7979
52973SOL    HW264883  11.900   0.612   5.292  0.8166 -1.1977 -0.8537
52974SOL     OW64884   5.824   8.723   1.310 -0.0749 -0.0352  0.0446
52974SOL    HW164885   5.738   8.682   1.312 -0.1654  0.1182 -0.5142
52974SOL    HW264886   5.885   8.649   1.313 -0.1891 -0.1017  1.7239
52975SOL     OW64887   2.348   2.292   8.308  0.2316  0.4076  0.1133
52975SOL    HW164888   2.381   2.355   8.372 -0.3676  1.0590 -0.2076
52975SOL    HW264889   2.253   2.302   8.311  0.1758  0.1705 -0.5959
52976SOL     OW64890   3.965   0.654   2.204  0.0382 -0.2652  0.1918
52976SOL    HW164891   3.975   0.717   2.133  1.5703 -0.9318 -0.2373
52976SOL    HW264892   3.961   0.707   2.283  1.2272  0.4071 -0.1632
52977SOL     OW64893   6.863   6.046   0.643 -0.5327  0.2992 -0.4204
52977SOL    HW164894   6.802   6.097   0.590 -1.3791 -0.0931  0.1506
52977SOL    HW264895   6.913   6.112   0.691  0.0572  0.6487 -1.4774
52978SOL     OW64896   6.207   8.976  10.896  0.0699  0.8284 -0.5408
52978SOL    HW164897   6.219   9.062  10.856 -0.1168  0.6756 -0.9292
52978SOL    HW264898   6.281   8.924  10.863 -0.7576  0.3439 -1.6777
52979SOL     OW64899  10.405   5.161   9.622  0.2423 -0.6508  0.4880
52979SOL    HW164900  10.478   5.155   9.560  0.9547 -0.6880  1.3038
52979SOL    HW264901  10.443   5.202   9.699 -0.7540 -0.1358  0.7198
52980SOL     OW64902  10.244   2.863   7.597  0.1443 -0.4714 -0.3003
52980SOL    HW164903  10.322   2.809   7.583 -0.2635 -0.8383 -1.2467
52980SOL    HW264904  10.211   2.835   7.683  0.7037 -0.7624 -0.1768
52981SOL     OW64905   0.404   4.330   0.562 -0.1290  0.2415  0.1989
52981SOL    HW164906   0.444   4.403   0.515 -2.0087  1.6151  0.6275
52981SOL    HW264907   0.452   4.327   0.645 -0.3151  1.2989  0.3635
52982SOL     OW64908   6.289   2.183   0.557  0.1314 -0.4221  0.8208
52982SOL    HW164909   6.307   2.212   0.647  1.1360 -0.2041  0.5554
52982SOL    HW264910   6.287   2.264   0.506  2.1960 -0.7261  0.2043
52983SOL     OW64911   3.333  11.478   8.584  0.0844 -0.0092  0.0446
52983SOL    HW164912   3.345  11.496   8.677 -2.2303 -0.2338  0.4518
52983SOL    HW264913   3.326  11.383   8.578  1.5730 -0.1016 -0.5807
52984SOL     OW64914   2.488   1.426   8.653  0.1492 -0.2336  0.5397
52984SOL    HW164915   2.519   1.395   8.568  1.2232  1.7163  0.1722
52984SOL    HW264916   2.397   1.450   8.637  1.0248  2.5892 -0.8469
52985SOL     OW64917   0.495   3.252   1.741 -0.2094  0.3230 -0.7272
52985SOL    HW164918   0.522   3.166   1.709 -0.0415 -1.2896  3.1857
52985SOL    HW264919   0.427   3.234   1.805  0.8757  2.8945  1.3636
52986SOL     OW64920   1.316   0.720   7.252  0.1360  0.1862 -0.1854
52986SOL    HW164921   1.317   0.809   7.285 -1.3899  0.1025  0.1652
52986SOL    HW264922   1.398   0.681   7.284  0.6538  1.3326 -0.0609
52987SOL     OW64923   9.805   6.799  10.981 -0.0146 -0.0521 -0.0053
52987SOL    HW164924   9.830   6.788  10.890 -2.1865  0.3514 -0.7049
52987SOL    HW264925   9.713   6.774  10.985 -0.9360  3.0277  1.3565
52988SOL     OW64926   5.760   3.557   2.369 -0.4948  0.2759  0.6035
52988SOL    HW164927   5.792   3.499   2.437 -0.8302 -1.7417 -0.8803
52988SOL    HW264928   5.838   3.581   2.319 -0.5503 -0.0813  0.3455
52989SOL     OW64929   3.426  12.058  12.419 -0.1544 -0.4059  0.0755
52989SOL    HW164930   3.419  12.043  12.325 -3.2280 -4.0643  0.6651
52989SOL    HW264931   3.349  12.111  12.440 -0.3588 -0.9553  0.7270
52990SOL     OW64932   1.248  11.001   0.945  0.5388 -0.6014 -0.1041
52990SOL    HW164933   1.327  10.987   0.997  0.7667 -0.1142 -0.3139
52990SOL    HW264934   1.202  11.072   0.990  0.1794 -0.9352  0.0611
52991SOL     OW64935   3.817   2.169   4.272 -0.4298  0.0321 -0.4512
52991SOL    HW164936   3.870   2.171   4.192  0.8868  3.7584  0.3042
52991SOL    HW264937   3.727   2.172   4.241  0.0390  0.7056 -1.8292
52992SOL     OW64938  10.026   1.070   7.568 -0.3876 -0.0269  0.2219
52992SOL    HW164939  10.106   1.044   7.614  0.1151  0.7016 -0.2052
52992SOL    HW264940   9.977   0.989   7.556  0.2989 -0.4882  0.4733
52993SOL     OW64941   9.747   6.554   2.818 -0.3500  0.4960 -0.1070
52993SOL    HW164942   9.810   6.502   2.868 -0.9460  1.2834  1.5309
52993SOL    HW264943   9.791   6.573   2.735  0.8232 -0.5259  0.2661
52994SOL     OW64944   7.801   6.747   1.686  0.0333 -0.2269 -0.7278
52994SOL    HW164945   7.850   6.696   1.621 -0.7699 -1.3071 -0.5141
52994SOL    HW264946   7.792   6.834   1.647 -1.3659 -1.1314 -2.5682
52995SOL     OW64947   2.865  11.357   6.904 -0.2837  0.6019 -0.4731
52995SOL    HW164948   2.817  11.352   6.987  1.2789  0.5887  0.4650
52995SOL    HW264949   2.948  11.314   6.922 -1.3783 -3.1923 -3.2075
52996SOL     OW64950   2.575   6.062   9.932 -0.8831 -0.3095  0.1885
52996SOL    HW164951   2.642   6.041   9.867  0.6135  2.1991  0.7582
52996SOL    HW264952   2.561   5.980   9.979  0.0358 -1.4877 -1.4846
52997SOL     OW64953   2.034   9.140   1.567  0.3655  0.4749  0.1484
52997SOL    HW164954   1.984   9.131   1.486 -0.5019  1.6174  0.5291
52997SOL    HW264955   2.039   9.051   1.603 -0.3633  0.1621 -0.5048
52998SOL     OW64956   8.630   8.211   4.976  0.2177  0.1657  0.6799
52998SOL    HW164957   8.544   8.209   4.934  0.4297 -1.2085  0.2748
52998SOL    HW264958   8.614   8.177   5.064  0.1294  1.1975  1.0863
52999SOL     OW64959   6.496  10.810   4.045 -0.2554  0.3193  0.5375
52999SOL    HW164960   6.525  10.900   4.038 -1.9237  0.9165  0.8674
52999SOL    HW264961   6.402  10.813   4.026 -0.5588 -1.1913  1.5885
53000SOL     OW64962   4.964   7.719   7.139 -0.5148  0.2868 -0.0438
53000SOL    HW164963   4.894   7.690   7.198 -1.0985  2.3715  0.3748
53000SOL    HW264964   5.018   7.777   7.192  1.1431 -0.7074 -0.5780
53001SOL     OW64965   0.663   4.100   7.139 -0.3410  0.0213  0.2042
53001SOL    HW164966   0.594   4.056   7.190 -0.0515 -0.3749  0.2593
53001SOL    HW264967   0.727   4.031   7.121  0.5563  0.6152  1.0481
53002SOL     OW64968   9.518   4.783   7.273 -0.0269  0.4454  0.2490
53002SOL    HW164969   9.428   4.778   7.240 -1.2729 -0.6346  3.4257
53002SOL    HW264970   9.522   4.866   7.320  0.8599  0.7590 -0.3498
53003SOL     OW64971   1.487  10.509   2.313 -0.7285  0.3720 -0.6722
53003SOL    HW164972   1.393  10.525   2.316 -1.2897 -2.4351 -0.3617
53003SOL    HW264973   1.504  10.484   2.222 -0.5046 -0.1640 -0.4882
53004SOL     OW64974   1.036   5.632   9.070  0.4507 -0.3568  0.2072
53004SOL    HW164975   1.027   5.663   9.160 -0.2571 -1.6469  0.6049
53004SOL    HW264976   1.083   5.702   9.025 -0.3336  0.8924  1.2607
53005SOL     OW64977   2.721   3.377   1.010 -0.4018 -0.2578 -0.4001
53005SOL    HW164978   2.636   3.339   1.031  0.3911 -0.9771  1.7455
53005SOL    HW264979   2.760   3.398   1.094  0.2989  3.0608 -1.4045
53006SOL     OW64980   8.776   7.914   7.108 -0.3586  0.1330 -0.2284
53006SOL    HW164981   8.721   7.992   7.109 -0.0811  0.3376  0.8509
53006SOL    HW264982   8.736   7.856   7.173 -0.9569 -0.9289 -1.4870
53007SOL     OW64983   6.491   1.082   5.097  0.5050  0.3215  0.5946
53007SOL    HW164984   6.479   1.016   5.029 -2.5236  0.2508  1.0922
53007SOL    HW264985   6.540   1.037   5.166  0.9637 -0.5098 -0.2479
53008SOL     OW64986   2.990   1.735   9.066 -0.2236 -0.0640  0.0999
53008SOL    HW164987   3.022   1.683   8.992 -0.9992  0.0687 -0.3445
53008SOL    HW264988   2.901   1.701   9.082 -0.2719  0.2890  0.6110
53009SOL     OW64989  12.390   9.796   7.065 -0.0094 -0.2755 -0.0775
53009SOL    HW164990  12.454   9.806   6.994  1.7459  1.6435  1.6375
53009SOL    HW264991  12.410   9.711   7.104  1.0178 -0.0406 -0.0637
53010SOL     OW64992   4.257   0.713   1.381  0.5380 -0.2785 -0.8169
53010SOL    HW164993   4.165   0.698   1.400  0.8416 -2.1337 -0.6055
53010SOL    HW264994   4.286   0.773   1.449 -0.1777 -0.8645  0.0297
53011SOL     OW64995   9.346   1.271  12.062  0.2935  0.5447  0.2889
53011SOL    HW164996   9.374   1.205  11.999 -0.5392  0.0942  0.3823
53011SOL    HW264997   9.350   1.353  12.012  1.4257  0.4478  0.2052
53012SOL     OW64998   4.668   9.309   9.259  0.0783  0.3785  0.3619
53012SOL    HW164999   4.663   9.377   9.193  0.3935  1.0471  1.0042
53012SOL    HW265000   4.597   9.249   9.239  0.6676  0.1267 -1.0581
53013SOL     OW65001   8.682   8.621   3.084 -0.8526 -0.1068 -0.0006
53013SOL    HW165002   8.715   8.708   3.058 -2.7126  0.3679 -0.9253
53013SOL    HW265003   8.659   8.631   3.176 -0.2134  0.0958  0.1459
53014SOL     OW65004   3.753   5.317   1.466  0.4184  0.0485 -0.1607
53014SOL    HW165005   3.694   5.249   1.498  0.9682  0.5037  1.9778
53014SOL    HW265006   3.839   5.277   1.467  0.4619  0.1065 -1.0314
53015SOL     OW65007  10.564   0.033   5.144  0.2440 -0.1221 -0.5639
53015SOL    HW165008  10.567   0.001   5.234 -0.4074 -0.6350 -0.7160
53015SOL    HW265009  10.654   0.025   5.113  0.1847 -1.5041 -0.4694
53016SOL     OW65010   1.293  10.099   9.746  0.0837 -0.8061 -0.4678
53016SOL    HW165011   1.292  10.191   9.717  1.7477 -0.0532  1.5763
53016SOL    HW265012   1.221  10.093   9.808  1.8317  0.0773  1.7807
53017SOL     OW65013   0.138   7.968   0.229 -0.2727  0.0814  0.0137
53017SOL    HW165014   0.143   7.875   0.254 -0.5172  0.3430  1.0808
53017SOL    HW265015   0.157   7.968   0.135  2.6087 -0.7471  0.4987
53018SOL     OW65016   6.533   7.213   9.251 -0.0447  0.1025  0.3559
53018SOL    HW165017   6.481   7.157   9.194  0.1894 -1.0771  1.2737
53018SOL    HW265018   6.584   7.153   9.305 -1.2265  1.0596  2.7406
53019SOL     OW65019   8.984   9.140   2.824  0.0842  0.0370 -0.0654
53019SOL    HW165020   8.957   9.133   2.916  2.4749 -1.1320  0.6378
53019SOL    HW265021   9.004   9.233   2.812  0.9721  0.0189  1.0327
53020SOL     OW65022   3.744   7.587  10.985  0.3286 -0.0697 -0.4384
53020SOL    HW165023   3.716   7.679  10.987 -0.1768 -0.2127 -0.8601
53020SOL    HW265024   3.839   7.591  10.976  0.2789  0.4129 -0.7935
53021SOL     OW65025   3.258   1.315   2.100 -0.5103 -0.8358 -0.1688
53021SOL    HW165026   3.276   1.408   2.113 -2.7993 -0.1378 -1.3890
53021SOL    HW265027   3.277   1.274   2.184 -0.9419  1.0024  0.8604
53022SOL     OW65028   0.295  11.250   3.672 -0.3066  0.0960 -0.0729
53022SOL    HW165029   0.383  11.287   3.677 -0.6627  0.9469 -0.0337
53022SOL    HW265030   0.293  11.205   3.587 -0.1034  0.7719 -0.4369
53023SOL     OW65031   4.740   6.028  11.747  0.2578 -1.0588  0.2597
53023SOL    HW165032   4.750   6.123  11.738  0.4983 -0.9954  1.0884
53023SOL    HW265033   4.754   6.012  11.840 -1.1897 -1.7307  0.3854
53024SOL     OW65034   5.992   4.669   0.802 -0.3120 -0.1113  0.9063
53024SOL    HW165035   5.966   4.579   0.781  0.0436 -0.5143  2.0815
53024SOL    HW265036   5.997   4.713   0.718 -0.4487 -1.2128  0.3037
53025SOL     OW65037   1.839  11.929  12.288  0.2045 -0.3773 -0.2731
53025SOL    HW165038   1.765  11.942  12.349  0.2597 -1.3102  0.0007
53025SOL    HW265039   1.803  11.875  12.218  0.1812  0.5727 -1.0280
53026SOL     OW65040   9.800  12.258   2.671  0.1830  0.3976 -0.6768
53026SOL    HW165041   9.867  12.323   2.692  1.1520 -0.3814 -1.2528
53026SOL    HW265042   9.745  12.301   2.606  2.5922 -0.2875 -3.4066
53027SOL     OW65043   5.604  10.732   8.850 -0.0587 -0.3889 -0.5679
53027SOL    HW165044   5.594  10.644   8.888  1.1979 -1.3669 -2.3466
53027SOL    HW265045   5.542  10.733   8.777  0.1734  0.1020 -0.7610
53028SOL     OW65046   7.763   9.613  11.735 -0.8237 -0.0669 -0.0294
53028SOL    HW165047   7.683   9.595  11.784 -1.5244  0.6723 -0.8924
53028SOL    HW265048   7.772   9.708  11.737 -0.1110 -0.1233 -0.1712
53029SOL     OW65049   7.668   2.945   0.679 -0.1784  0.2186 -0.1407
53029SOL    HW165050   7.742   3.001   0.659 -0.2023  0.4118  0.2958
53029SOL    HW265051   7.623   2.933   0.596 -0.0254  0.6291 -0.2827
53030SOL     OW65052   2.124   6.157  11.962 -0.2481  0.4434 -0.1391
53030SOL    HW165053   2.089   6.198  12.042 -0.0673 -0.5285  0.4515
53030SOL    HW265054   2.055   6.170  11.897 -1.6730 -1.2417  0.9475
53031SOL     OW65055   0.958   8.665   1.294  0.3315  0.2853  0.6621
53031SOL    HW165056   0.939   8.573   1.274  0.5424  0.4115 -0.1756
53031SOL    HW265057   0.901   8.686   1.368 -2.1397  0.3988 -1.1483
53032SOL     OW65058  10.722  11.287   1.555 -0.2201  0.6614 -0.1448
53032SOL    HW165059  10.762  11.211   1.598 -0.9326 -0.7583 -1.8871
53032SOL    HW265060  10.795  11.331   1.512 -0.2471 -1.1973 -2.2420
53033SOL     OW65061   8.131   2.770   2.243  0.3071 -0.3729  0.0594
53033SOL    HW165062   8.204   2.821   2.206  1.1350 -1.3863  0.2421
53033SOL    HW265063   8.061   2.834   2.255  1.7274  1.0040  1.4635
53034SOL     OW65064   0.933   1.841   7.277  0.0590 -0.0692 -0.7571
53034SOL    HW165065   0.896   1.913   7.226  0.0375  0.6762  0.2713
53034SOL    HW265066   1.023   1.868   7.295  0.2461 -0.5918 -0.8852
53035SOL     OW65067   5.323  11.487   7.482 -0.1762  0.3739 -0.8746
53035SOL    HW165068   5.278  11.562   7.444 -3.0075 -0.9311 -0.3293
53035SOL    HW265069   5.293  11.484   7.572 -0.6453 -1.7657 -1.0567
53036SOL     OW65070   1.984   5.826   6.848 -0.0238  0.0256 -0.0792
53036SOL    HW165071   2.028   5.911   6.844 -0.3955  0.1901 -0.8996
53036SOL    HW265072   1.917   5.831   6.781  1.4368 -1.7533 -1.7867
53037SOL     OW65073   2.347   3.155   8.125 -0.3049  0.3271 -0.3884
53037SOL    HW165074   2.361   3.061   8.138 -2.5622 -0.0168 -0.0393
53037SOL    HW265075   2.302   3.161   8.041 -0.0713  1.1189 -0.4625
53038SOL     OW65076   1.431  11.067  10.299  0.0151 -0.4651 -0.8443
53038SOL    HW165077   1.445  11.080  10.205 -1.6654 -0.7325 -1.1558
53038SOL    HW265078   1.345  11.104  10.316  0.8121  0.7333  0.8770
53039SOL     OW65079   9.670  11.306  10.083  0.3154  0.0900  0.1065
53039SOL    HW165080   9.727  11.232  10.104  0.0863  0.2526  1.4112
53039SOL    HW265081   9.582  11.268  10.081  0.3293  0.0837 -0.5853
53040SOL     OW65082   7.483   5.844   8.581  0.4681  0.3747  0.0820
53040SOL    HW165083   7.496   5.938   8.595  1.2249  0.2564  0.2509
53040SOL    HW265084   7.397   5.837   8.539  0.8264  1.2212 -0.8435
53041SOL     OW65085   1.890   1.731   0.238 -0.2497  0.5530 -0.6568
53041SOL    HW165086   1.883   1.636   0.233  0.1585  0.4576  0.2920
53041SOL    HW265087   1.818   1.758   0.295 -0.3439  0.8148 -0.8935
53042SOL     OW65088   9.837   0.319   3.197 -0.0303 -0.2719  0.3481
53042SOL    HW165089   9.884   0.294   3.117 -1.3678 -0.2297 -0.4754
53042SOL    HW265090   9.871   0.406   3.218  0.7005 -0.4918  0.1216
53043SOL     OW65091  12.472   4.447   7.333 -0.6393 -0.6816  0.2178
53043SOL    HW165092  12.514   4.533   7.336 -1.2477 -0.3645 -0.2192
53043SOL    HW265093  12.533   4.389   7.379 -0.3724  0.0422  0.7961
53044SOL     OW65094   6.641   2.403   6.867  0.6382  0.6143  0.4672
53044SOL    HW165095   6.571   2.339   6.855  1.3443 -0.0603 -0.1714
53044SOL    HW265096   6.607   2.484   6.830  1.6139 -0.6545 -3.6576
53045SOL     OW65097   9.516   6.252   9.789  0.2123  0.1277 -0.6075
53045SOL    HW165098   9.457   6.189   9.829 -2.1960  2.3863 -0.3654
53045SOL    HW265099   9.595   6.249   9.843 -1.4067  0.2057  1.9352
53046SOL     OW65100   6.417   3.896   5.202 -0.1404  0.0259 -0.4096
53046SOL    HW165101   6.512   3.892   5.191 -0.2938  1.1359 -2.6665
53046SOL    HW265102   6.384   3.818   5.158 -0.2746 -0.5751  0.7324
53047SOL     OW65103   8.991   5.408   3.612  0.0402 -0.0679  0.2618
53047SOL    HW165104   9.053   5.405   3.685 -0.1922 -1.5643  0.4222
53047SOL    HW265105   8.987   5.501   3.588  0.2779  0.4329  2.0096
53048SOL     OW65106   1.653   7.180   8.603 -0.3108  0.2779  0.4762
53048SOL    HW165107   1.629   7.088   8.592 -0.7921  0.3014  1.2813
53048SOL    HW265108   1.585   7.228   8.555 -0.8617  0.2650  1.2253
53049SOL     OW65109   2.158   1.912   5.094  0.0902  0.1718 -0.4011
53049SOL    HW165110   2.246   1.950   5.101 -0.7802  2.0598  1.6601
53049SOL    HW265111   2.135   1.921   5.002  2.0172 -0.3128 -0.9684
53050SOL     OW65112   0.210   8.150   5.605 -0.4615  0.1262 -0.3739
53050SOL    HW165113   0.135   8.098   5.632 -0.2009  0.0165  0.1427
53050SOL    HW265114   0.217   8.220   5.670  0.2533 -0.2204 -0.0613
53051SOL     OW65115   5.624   5.014   7.781 -0.0812 -0.0054  0.4915
53051SOL    HW165116   5.673   4.995   7.861 -1.4224 -0.7268  1.1933
53051SOL    HW265117   5.672   4.968   7.712  0.7277  0.0688  0.9943
53052SOL     OW65118  10.762   0.633   7.823 -0.4029  0.1757 -0.4683
53052SOL    HW165119  10.767   0.727   7.807 -1.1586  0.1902 -0.6453
53052SOL    HW265120  10.851   0.601   7.805  0.2478  1.0572  1.0283
53053SOL     OW65121   6.073  10.275   3.718  0.0897  0.4010 -0.5145
53053SOL    HW165122   6.145  10.295   3.778 -0.4790  1.0363 -0.0206
53053SOL    HW265123   6.109  10.293   3.631 -0.3600  3.8453 -0.1352
53054SOL     OW65124   8.046   9.765   7.331  0.6083  0.0380  0.0688
53054SOL    HW165125   8.110   9.796   7.395 -1.3589  0.6060  1.8914
53054SOL    HW265126   8.022   9.843   7.281  0.7459 -0.0223 -0.0952
53055SOL     OW65127   2.363  11.788   8.497  0.9054 -0.6152 -0.0918
53055SOL    HW165128   2.383  11.834   8.578  1.0778 -0.0995 -0.4214
53055SOL    HW265129   2.441  11.799   8.443 -0.2201  1.5027 -1.4348
53056SOL     OW65130  10.128  12.486   1.979  0.0443  0.0853 -0.1005
53056SOL    HW165131  10.042  12.527   1.985 -0.1832 -0.5939  2.1163
53056SOL    HW265132  10.120  12.406   2.031  1.8921 -0.2327 -0.2411
53057SOL     OW65133  10.665   2.415   0.588  0.2072 -0.3671  0.2681
53057SOL    HW165134  10.587   2.380   0.631 -1.1186 -0.3793 -1.9729
53057SOL    HW265135  10.704   2.340   0.544 -0.7160  0.2614 -1.7330
53058SOL     OW65136   2.084  11.833   8.017  0.1909  0.6726 -0.2002
53058SOL    HW165137   2.085  11.890   7.940 -1.8345 -0.5022 -1.1699
53058SOL    HW265138   2.004  11.857   8.064 -0.7266 -1.3316 -0.6435
53059SOL     OW65139  12.275  12.475  10.614  0.5627  0.0770 -0.1528
53059SOL    HW165140  12.196  12.472  10.667  0.8644 -0.3350  0.2892
53059SOL    HW265141  12.258  12.413  10.542  0.2848  0.3806 -0.3501
53060SOL     OW65142  10.425   7.831  12.489 -0.0719  0.3434 -0.5629
53060SOL    HW165143  10.338   7.870  12.478 -0.1285 -0.5054 -4.8531
53060SOL    HW265144  10.407   7.741  12.516 -0.6536 -0.0037 -1.9921
53061SOL     OW65145   2.525   8.444  12.378  0.1381  0.3216 -0.1421
53061SOL    HW165146   2.481   8.360  12.388  0.5522  0.3935  3.5170
53061SOL    HW265147   2.457   8.503  12.344 -0.7361 -0.9859 -0.7340
53062SOL     OW65148   0.441   7.317   0.753 -0.3268 -0.1032 -0.2206
53062SOL    HW165149   0.470   7.407   0.771 -1.1916  0.3534 -1.0821
53062SOL    HW265150   0.436   7.312   0.658 -0.8491 -0.8857 -0.1550
53063SOL     OW65151   4.216   7.756   8.651  0.0668  0.0721 -0.0497
53063SOL    HW165152   4.298   7.779   8.606  0.1839  1.1797  0.6704
53063SOL    HW265153   4.186   7.839   8.688 -1.8631 -0.1553 -1.0301
53064SOL     OW65154   5.612   3.346   2.671  0.2276  0.2645  0.0585
53064SOL    HW165155   5.606   3.440   2.655  1.0399  0.2192 -0.6105
53064SOL    HW265156   5.551   3.307   2.608 -0.7955  0.3836  0.9620
53065SOL     OW65157   3.134  11.012   8.428  0.1735 -0.2938 -0.2143
53065SOL    HW165158   3.054  11.062   8.420 -0.0332 -0.1576  2.0247
53065SOL    HW265159   3.202  11.069   8.392 -0.6289 -0.2678 -1.7906
53066SOL     OW65160   1.820   2.758   8.428 -0.0041 -0.2900 -0.0653
53066SOL    HW165161   1.811   2.700   8.353 -1.3104  1.1995 -1.1121
53066SOL    HW265162   1.747   2.818   8.421  1.0566  1.2320  1.2179
53067SOL     OW65163   6.513   8.481   1.079  0.6192 -0.5024 -0.6995
53067SOL    HW165164   6.505   8.437   0.995 -0.2086  0.5649 -1.1982
53067SOL    HW265165   6.510   8.411   1.144 -0.9608 -1.1709 -1.4548
53068SOL     OW65166   2.373   2.821   0.833 -0.6381 -0.1192  0.1928
53068SOL    HW165167   2.377   2.726   0.841  2.0006  0.0657  2.7788
53068SOL    HW265168   2.316   2.850   0.904 -0.5731  0.2713  0.0913
53069SOL     OW65169   7.475   1.655   2.246 -0.4799  0.0632  0.7506
53069SOL    HW165170   7.466   1.658   2.151  1.1442 -2.5526  0.4075
53069SOL    HW265171   7.459   1.745   2.274 -2.0901  0.7000 -1.8440
53070SOL     OW65172   3.908   4.261   0.280 -0.8918 -0.2634  0.5253
53070SOL    HW165173   3.965   4.320   0.328  0.7817 -0.5274 -1.0221
53070SOL    HW265174   3.906   4.296   0.191 -2.5277 -0.7183  0.3446
53071SOL     OW65175   8.307   0.939   3.901  0.2607  0.2391 -0.6521
53071SOL    HW165176   8.317   1.008   3.835  1.4588  1.4479  0.7241
53071SOL    HW265177   8.397   0.912   3.921 -0.1387 -0.8501 -0.2503
53072SOL     OW65178   8.093   4.597   4.876 -0.4399 -0.1393 -0.2989
53072SOL    HW165179   8.067   4.505   4.872 -0.7772 -0.0536 -0.0861
53072SOL    HW265180   8.112   4.613   4.968  1.5455 -0.5151 -0.5870
53073SOL     OW65181   6.402   8.996   0.460  0.0720 -0.1043  0.0519
53073SOL    HW165182   6.374   8.925   0.519 -1.5085  1.0339  0.7313
53073SOL    HW265183   6.447   8.951   0.389 -0.2770 -1.7476  0.8168
53074SOL     OW65184  12.098   2.979   6.061  0.1783 -0.3059 -0.0435
53074SOL    HW165185  12.192   2.982   6.048  0.3668 -1.5660  0.8371
53074SOL    HW265186  12.082   3.036   6.136  0.3824 -0.7902  0.3822
53075SOL     OW65187   6.711  10.051   5.569 -0.6407 -0.2523 -0.0707
53075SOL    HW165188   6.692  10.100   5.649 -1.3743 -0.8870  0.1628
53075SOL    HW265189   6.658   9.972   5.577 -0.1167 -0.6894 -0.8264
53076SOL     OW65190   3.322   8.440   2.701 -0.4967  0.1475 -0.1167
53076SOL    HW165191   3.310   8.346   2.714  0.1731 -0.0436 -0.8406
53076SOL    HW265192   3.270   8.481   2.771 -1.8192 -0.7330 -0.5574
53077SOL     OW65193   6.114   7.191   0.981  0.1220  0.1665 -0.1840
53077SOL    HW165194   6.040   7.148   1.024 -0.4045  1.2506  0.0325
53077SOL    HW265195   6.190   7.166   1.033 -0.3685  0.6288  0.7709
53078SOL     OW65196   1.246   1.267   9.646  0.1633 -0.3270  0.2028
53078SOL    HW165197   1.164   1.269   9.597  0.2449 -1.0545  0.0243
53078SOL    HW265198   1.296   1.195   9.607  1.3366  0.7564 -0.3978
53079SOL     OW65199   3.371   1.116   1.752  0.7748 -0.0484  0.5677
53079SOL    HW165200   3.358   1.211   1.755 -0.3512 -0.1429 -0.4657
53079SOL    HW265201   3.335   1.090   1.668 -1.1499 -1.7186  1.8214
53080SOL     OW65202   7.008   5.544   2.853 -0.5874 -0.2188 -0.1641
53080SOL    HW165203   6.962   5.590   2.783 -0.1814  1.8976  0.8709
53080SOL    HW265204   6.945   5.541   2.925 -0.0788  0.1407  0.3017
53081SOL     OW65205   6.832   9.873  11.657  0.4776  0.4064  0.4235
53081SOL    HW165206   6.796   9.952  11.615  1.0648  0.9321  0.9049
53081SOL    HW265207   6.775   9.858  11.732  0.3481  0.3490  0.3150
53082SOL     OW65208   1.454   7.322   8.417  0.3648  0.1372  0.8084
53082SOL    HW165209   1.480   7.414   8.410 -0.6051  0.3726  0.1179
53082SOL    HW265210   1.368   7.324   8.459  0.1032 -0.4192  0.3180
53083SOL     OW65211  12.450   5.810   3.929  0.2920  0.5136  0.1181
53083SOL    HW165212  12.473   5.717   3.933  0.7467  0.6155 -0.0181
53083SOL    HW265213  12.379   5.815   3.864  1.0462  0.4012 -0.7386
53084SOL     OW65214   6.643   2.060   8.226  0.3729 -0.0973  0.4511
53084SOL    HW165215   6.656   1.970   8.257  0.5932  0.3495  1.6959
53084SOL    HW265216   6.558   2.086   8.263 -1.2772 -0.8362 -2.5026
53085SOL     OW65217   8.179   2.416   2.017 -0.5150 -0.3534 -0.4099
53085SOL    HW165218   8.132   2.355   1.960 -2.0929 -0.6692  1.1333
53085SOL    HW265219   8.141   2.501   1.998 -0.5600 -0.3545 -0.3267
53086SOL     OW65220   5.539   5.768   1.505  0.4263  0.4750 -0.4537
53086SOL    HW165221   5.560   5.697   1.566  0.9430  1.4451  0.5362
53086SOL    HW265222   5.509   5.840   1.561 -0.0138  1.0800 -1.4265
53087SOL     OW65223  11.631   7.475   8.949  0.5140 -0.0327 -0.4847
53087SOL    HW165224  11.704   7.490   8.889  0.5765 -2.2661 -1.0602
53087SOL    HW265225  11.553   7.497   8.897  0.6729  0.7159 -0.4266
53088SOL     OW65226   7.304   1.706   3.557 -0.2121 -0.7313  0.3161
53088SOL    HW165227   7.332   1.714   3.466 -1.3479 -1.8391 -0.1577
53088SOL    HW265228   7.317   1.793   3.594  1.4304 -0.5621 -0.5474
53089SOL     OW65229   6.828   9.862   2.634 -0.5063  0.4094  0.3170
53089SOL    HW165230   6.790   9.859   2.546 -0.6331  0.5871  0.3652
53089SOL    HW265231   6.922   9.853   2.621 -0.5766 -0.2023  0.2062
53090SOL     OW65232   8.871   3.782   7.461 -0.0761  0.1334 -0.2678
53090SOL    HW165233   8.947   3.736   7.497 -0.2925  0.4302  0.5843
53090SOL    HW265234   8.796   3.742   7.504 -0.2050  2.2377  1.6425
53091SOL     OW65235  10.236  10.405  12.007 -0.3311  0.2126  0.4700
53091SOL    HW165236  10.269  10.382  11.920  0.3119  0.5059  0.6311
53091SOL    HW265237  10.261  10.332  12.063 -2.5265 -0.9443  0.0193
53092SOL     OW65238   6.774  10.805   9.803  0.2175 -0.3491 -0.0837
53092SOL    HW165239   6.681  10.827   9.801  0.2545  0.1084  1.6470
53092SOL    HW265240   6.819  10.890   9.793  0.4157 -0.3594  0.6349
53093SOL     OW65241   2.832  11.730  12.140  0.2711 -0.3179  0.1486
53093SOL    HW165242   2.855  11.652  12.190 -0.5952 -0.2900  0.6075
53093SOL    HW265243   2.893  11.729  12.065  2.2664  0.1665  1.6627
53094SOL     OW65244   0.588   9.143   8.646 -0.5179  0.3922  0.0647
53094SOL    HW165245   0.514   9.101   8.689 -0.3862  0.1055  0.0211
53094SOL    HW265246   0.552   9.220   8.603 -0.6837  0.5828  0.5345
53095SOL     OW65247   1.091   5.871  11.376 -0.0322 -0.2024 -0.1161
53095SOL    HW165248   1.059   5.797  11.326  1.3075  0.1754 -1.6108
53095SOL    HW265249   1.177   5.890  11.339  0.5755  0.7612  1.6500
53096SOL     OW65250   3.926  10.534   4.566  0.1607  0.0987  0.2900
53096SOL    HW165251   3.960  10.499   4.484  0.9919  2.9086 -0.6935
53096SOL    HW265252   3.972  10.485   4.634 -0.2070 -1.9746 -0.9031
53097SOL     OW65253   1.062   1.710  10.456 -0.3445 -0.0141 -0.3741
53097SOL    HW165254   1.080   1.645  10.388 -1.4345 -0.0523 -0.6597
53097SOL    HW265255   1.106   1.677  10.534  0.6736 -0.1229 -0.9758
53098SOL     OW65256   8.704   2.312   9.805 -0.0085  0.0129  0.4485
53098SOL    HW165257   8.652   2.312   9.724 -1.6560  1.6544  1.4203
53098SOL    HW265258   8.650   2.360   9.868  1.4439 -0.7760  2.3997
53099SOL     OW65259   3.573   7.157   1.690  0.0592 -0.1746  0.8695
53099SOL    HW165260   3.567   7.103   1.611 -1.1090 -0.9005  1.4355
53099SOL    HW265261   3.608   7.240   1.659  1.2669 -1.0102 -0.1265
53100SOL     OW65262  11.981   5.067   1.283 -0.2316 -0.2376 -0.4538
53100SOL    HW165263  12.030   5.147   1.262  2.3200 -2.1292 -2.2511
53100SOL    HW265264  12.047   5.007   1.317 -2.2926 -1.2837  1.9992
53101SOL     OW65265  11.852  11.973   3.180 -0.3485 -0.5997  0.0311
53101SOL    HW165266  11.783  12.039   3.178 -0.5962 -0.8713 -0.5880
53101SOL    HW265267  11.933  12.024   3.181 -0.5387 -0.2505  2.7015
53102SOL     OW65268   5.359   1.852  10.364 -0.6605  0.5786 -0.1150
53102SOL    HW165269   5.454   1.858  10.361 -0.6816  1.0215  0.0130
53102SOL    HW265270   5.341   1.763  10.393 -0.2920  0.2653 -0.8345
53103SOL     OW65271   6.733   5.162   1.488  0.0912  0.4705 -0.4358
53103SOL    HW165272   6.739   5.249   1.527 -1.1262 -0.7028  2.6734
53103SOL    HW265273   6.640   5.140   1.491  0.3979 -1.0570 -0.8645
53104SOL     OW65274  11.933   1.222   9.221 -0.5306  0.2208  0.3429
53104SOL    HW165275  12.011   1.214   9.275 -1.4555 -0.0491  1.6819
53104SOL    HW265276  11.871   1.159   9.259 -1.2389  0.0802 -0.9798
53105SOL     OW65277  10.867   7.895   1.850  0.3986  0.5349 -0.3350
53105SOL    HW165278  10.813   7.924   1.777  0.1393  2.1195  0.4395
53105SOL    HW265279  10.943   7.855   1.808  0.7373  2.2819 -1.5403
53106SOL     OW65280   8.078  10.090  10.775 -0.1470 -0.7019  0.1181
53106SOL    HW165281   8.138  10.024  10.740  0.4002 -0.1383 -0.0386
53106SOL    HW265282   8.126  10.126  10.850  0.0403  0.2753 -0.4565
53107SOL     OW65283   0.738   4.437   7.382  0.2091 -0.0484  0.4386
53107SOL    HW165284   0.725   4.532   7.379  1.1687  0.0816 -0.4762
53107SOL    HW265285   0.654   4.402   7.411  0.0755  1.1245  1.5682
53108SOL     OW65286   4.250   1.379  10.864 -0.0122  0.4851 -0.6345
53108SOL    HW165287   4.241   1.464  10.906 -1.2541  0.1127 -0.1023
53108SOL    HW265288   4.188   1.323  10.910  1.5074 -0.9908 -0.2909
53109SOL     OW65289   7.125  12.318   3.093 -0.3614 -0.0894  0.1592
53109SOL    HW165290   7.106  12.281   3.180 -1.9703 -2.9883 -1.2845
53109SOL    HW265291   7.220  12.335   3.095 -0.5129  0.9834  2.7888
53110SOL     OW65292   3.730   0.742   5.798 -0.0475 -0.6035  0.6801
53110SOL    HW165293   3.691   0.718   5.714  0.7073  1.6994 -0.4438
53110SOL    HW265294   3.814   0.696   5.799 -0.5610 -1.5536  0.7222
53111SOL     OW65295  11.861   0.071   4.060  0.6068  0.0175 -0.1465
53111SOL    HW165296  11.792   0.023   4.106  1.3447 -1.0066 -0.0674
53111SOL    HW265297  11.826   0.159   4.048  0.1442  0.1510  1.8585
53112SOL     OW65298   4.892   7.809  12.199 -0.1068  0.0841  0.1594
53112SOL    HW165299   4.901   7.786  12.107 -1.1555  2.0501 -0.4866
53112SOL    HW265300   4.941   7.742  12.246  2.0305  0.0818 -1.9372
53113SOL     OW65301  10.105  12.143   5.966  0.5429  0.3758 -0.4005
53113SOL    HW165302  10.174  12.198   5.930 -0.3799  2.0893  0.3399
53113SOL    HW265303  10.108  12.160   6.060 -0.9274  0.5289 -0.3648
53114SOL     OW65304  10.204   9.585  10.452  0.1023 -0.3661  0.5697
53114SOL    HW165305  10.249   9.590  10.537 -1.9825  1.2147  1.6980
53114SOL    HW265306  10.150   9.664  10.450 -1.1054 -1.1800 -1.5520
53115SOL     OW65307  10.223  11.023   3.764  0.3783 -0.3743  0.3510
53115SOL    HW165308  10.265  10.971   3.833  0.4307  1.0386  1.4422
53115SOL    HW265309  10.272  11.002   3.685  0.1420 -2.2572  0.6629
53116SOL     OW65310  10.359  10.266   2.311  0.8124 -0.1227  0.4163
53116SOL    HW165311  10.298  10.194   2.329 -0.1776  0.7814  0.8003
53116SOL    HW265312  10.383  10.254   2.219 -2.7251  1.4558 -0.8647
53117SOL     OW65313   3.028   6.582  10.593  0.1376  0.6846 -0.2230
53117SOL    HW165314   2.987   6.508  10.638 -1.4169  2.3683  1.3446
53117SOL    HW265315   2.960   6.650  10.595  1.3260  1.9892 -2.0415
53118SOL     OW65316   8.635   9.876   7.232 -0.1872  0.2010  0.2021
53118SOL    HW165317   8.542   9.871   7.254 -0.7286 -0.0699 -1.9705
53118SOL    HW265318   8.665   9.785   7.234 -0.8085 -0.1322 -2.2082
53119SOL     OW65319   9.127  10.967  11.248 -0.1128 -0.0667 -0.5192
53119SOL    HW165320   9.138  10.884  11.203  1.8500 -0.3558  0.3616
53119SOL    HW265321   9.084  10.945  11.331 -0.1586 -0.1162 -0.5562
53120SOL     OW65322  11.044   8.390   7.708 -0.4974  0.2186  0.2092
53120SOL    HW165323  11.078   8.459   7.651 -1.6424  0.8170  0.2356
53120SOL    HW265324  11.055   8.310   7.656  2.4962  0.0882  0.8570
53121SOL     OW65325   1.414   3.313  10.466  0.2460  0.1832 -0.5451
53121SOL    HW165326   1.482   3.252  10.493  0.8735  0.9257 -0.4250
53121SOL    HW265327   1.370   3.269  10.394  2.3450  0.6346 -2.1922
53122SOL     OW65328   9.033   4.618   3.776 -0.5584 -0.1006 -0.0044
53122SOL    HW165329   9.125   4.592   3.772 -0.9154 -1.3096 -1.3233
53122SOL    HW265330   9.002   4.583   3.859  0.2971  0.7817  0.6953
53123SOL     OW65331   9.022   5.729   6.755  0.0197  0.7072 -0.7412
53123SOL    HW165332   8.926   5.732   6.756 -0.0834 -0.3730  1.7875
53123SOL    HW265333   9.042   5.643   6.717  0.0452  1.1235 -1.7099
53124SOL     OW65334   1.603   3.588   6.905  0.0987  0.2570  0.0307
53124SOL    HW165335   1.520   3.541   6.904  0.7722 -1.0196 -1.5530
53124SOL    HW265336   1.669   3.519   6.895  1.1312  1.4594 -2.3951
53125SOL     OW65337   1.214   0.365   8.573 -0.1060  0.0473  0.7149
53125SOL    HW165338   1.213   0.404   8.485  2.2932 -1.6248 -0.1628
53125SOL    HW265339   1.248   0.434   8.629  2.1529 -0.0334 -0.4431
53126SOL     OW65340   2.056   0.649   2.417 -0.0959  0.5039  0.3595
53126SOL    HW165341   1.998   0.725   2.404 -0.6872  0.2524  1.4528
53126SOL    HW265342   2.090   0.660   2.506 -1.9920 -1.6930  1.4577
53127SOL     OW65343  11.588   3.017   9.255  0.0693  0.7792 -0.1264
53127SOL    HW165344  11.600   3.010   9.350 -1.3228 -0.2267  0.0021
53127SOL    HW265345  11.667   3.063   9.225  1.5526 -0.7091  1.2603
53128SOL     OW65346   9.510   1.862   0.249  0.0233 -0.2317  0.2605
53128SOL    HW165347   9.547   1.839   0.334 -0.4796 -1.7072  0.0978
53128SOL    HW265348   9.424   1.898   0.269  0.4854  0.8107  0.4566
53129SOL     OW65349   6.790   6.505  10.083  0.3134  0.1110  0.0176
53129SOL    HW165350   6.778   6.432  10.143  0.7860 -0.4765 -0.5994
53129SOL    HW265351   6.780   6.583  10.138  0.7801 -0.4154  0.8633
53130SOL     OW65352   7.065   6.091   3.556 -0.3427 -0.0021 -0.6474
53130SOL    HW165353   7.129   6.154   3.522  2.3010 -1.2168  1.6628
53130SOL    HW265354   7.015   6.141   3.620  0.6416  0.1681  0.0065
53131SOL     OW65355   6.777  11.641   9.677  0.0045  0.2152  0.0508
53131SOL    HW165356   6.832  11.687   9.740  0.2642  0.8573 -0.6311
53131SOL    HW265357   6.837  11.581   9.632 -0.0159  0.3519 -0.1569
53132SOL     OW65358   2.842  11.773  10.971 -0.1043  0.1071  0.7308
53132SOL    HW165359   2.930  11.777  10.934 -0.1186 -1.9711  0.3876
53132SOL    HW265360   2.853  11.800  11.062  1.3260 -2.3298  1.3572
53133SOL     OW65361   8.091   1.505   2.903  0.3195  0.2957 -0.2902
53133SOL    HW165362   8.107   1.540   2.815 -1.7828  0.0905 -0.8087
53133SOL    HW265363   8.082   1.411   2.890  0.0170  0.2616  0.1363
53134SOL     OW65364   3.286   2.350   6.794 -0.5500  0.5746  0.0460
53134SOL    HW165365   3.199   2.347   6.755  0.3487 -0.4040 -2.0440
53134SOL    HW265366   3.340   2.396   6.729  1.1071 -1.4160 -0.0832
53135SOL     OW65367   7.568   3.132  10.041 -0.4325  0.6810  0.1682
53135SOL    HW165368   7.594   3.129  10.133  0.4516  0.8632 -0.0618
53135SOL    HW265369   7.479   3.097  10.040 -0.6942  1.2738  1.1754
53136SOL     OW65370  11.309   7.971   1.634 -0.5180  0.4593  0.6603
53136SOL    HW165371  11.387   7.942   1.586 -1.0087 -0.2815  0.2998
53136SOL    HW265372  11.283   7.894   1.686 -1.5001  0.4296  0.1380
53137SOL     OW65373   6.956   8.375   7.856  0.2114  0.1481 -0.0642
53137SOL    HW165374   7.012   8.333   7.921 -0.8807  1.3869  1.7390
53137SOL    HW265375   6.928   8.302   7.799  0.1468 -1.1980  1.6152
53138SOL     OW65376   4.133   7.532   6.972 -0.0902 -0.3389  0.7262
53138SOL    HW165377   4.062   7.471   6.950 -0.1672  0.0805 -0.2360
53138SOL    HW265378   4.213   7.483   6.951 -0.1190 -0.5345  1.0751
53139SOL     OW65379   4.020  10.612   1.568  0.0298 -0.1427  0.7273
53139SOL    HW165380   4.081  10.575   1.504  0.5033 -1.1000  1.7153
53139SOL    HW265381   4.077  10.654   1.633 -0.4447  0.6249  0.6626
53140SOL     OW65382   5.361  10.725   1.822 -0.1137 -0.2928  0.5016
53140SOL    HW165383   5.340  10.818   1.814 -1.4635 -0.6354 -0.2440
53140SOL    HW265384   5.397  10.716   1.910  2.4813  1.3634 -0.2704
53141SOL     OW65385   7.730   0.266   4.827  0.5431 -0.0063  0.3633
53141SOL    HW165386   7.725   0.250   4.732  0.2264 -0.2715  0.4197
53141SOL    HW265387   7.651   0.224   4.862  0.7702 -0.1023  0.7702
53142SOL     OW65388   6.002   1.232   7.443 -0.1909 -0.5961 -0.8710
53142SOL    HW165389   5.933   1.271   7.390 -1.3573 -1.4169 -0.0081
53142SOL    HW265390   6.011   1.143   7.410 -0.0701 -0.7244 -0.4971
53143SOL     OW65391   2.078   8.154  11.506 -0.2138 -0.3148 -0.3191
53143SOL    HW165392   2.072   8.249  11.500  0.5408 -0.1882  0.7193
53143SOL    HW265393   2.009   8.122  11.448 -1.2517  0.8811  0.2193
53144SOL     OW65394  10.770  10.409   2.174  0.1322 -0.1805  0.2288
53144SOL    HW165395  10.755  10.329   2.224 -0.1906  0.6476  1.4919
53144SOL    HW265396  10.700  10.468   2.201  1.3934  1.1616  0.6903
53145SOL     OW65397   8.168  11.885   1.645 -0.0159 -0.7083 -0.5009
53145SOL    HW165398   8.217  11.851   1.720 -1.8677  0.2629  1.2545
53145SOL    HW265399   8.147  11.976   1.669 -0.1408 -0.1599 -2.4946
53146SOL     OW65400  11.202   4.391   1.699  0.0306  0.3222 -0.7569
53146SOL    HW165401  11.231   4.440   1.776 -0.3047  1.8185 -1.5409
53146SOL    HW265402  11.219   4.299   1.721  1.6376  0.8405  0.3789
53147SOL     OW65403   6.878   8.407   4.501  0.3127 -0.0483 -0.3751
53147SOL    HW165404   6.930   8.470   4.451 -0.8577  0.9232 -0.4187
53147SOL    HW265405   6.809   8.379   4.440  0.2352 -0.6136 -0.0321
53148SOL     OW65406   6.132   9.287  11.081 -0.4358  0.3349  0.4564
53148SOL    HW165407   6.184   9.220  11.125  0.1492  1.1081  0.9672
53148SOL    HW265408   6.041   9.260  11.094 -0.2288 -2.0609 -2.0189
53149SOL     OW65409   4.704  10.421   4.149 -0.3415  0.4723  0.0698
53149SOL    HW165410   4.634  10.469   4.104 -0.9796 -0.0370  0.4905
53149SOL    HW265411   4.752  10.377   4.079 -1.2227 -0.1762 -0.1488
53150SOL     OW65412   2.092   1.961   7.256 -0.0661 -0.0238 -0.2393
53150SOL    HW165413   2.175   1.917   7.238  0.9249  1.6334  0.0282
53150SOL    HW265414   2.049   1.908   7.323  0.5287 -1.1870 -0.7639
53151SOL     OW65415   8.603   5.832   5.929  0.0154  0.4518 -0.3982
53151SOL    HW165416   8.608   5.784   6.012  0.6110  0.5917 -0.3458
53151SOL    HW265417   8.662   5.906   5.941 -0.4363  0.8629 -0.6973
53152SOL     OW65418  11.555   4.064   5.703 -0.2206 -0.0020  0.2654
53152SOL    HW165419  11.499   4.115   5.761  1.1466  0.4317  1.2560
53152SOL    HW265420  11.593   3.997   5.760 -1.7314 -1.9746 -0.9393
53153SOL     OW65421   2.456   8.070  11.299  0.1261 -0.0977  0.1738
53153SOL    HW165422   2.443   7.990  11.248  0.9429 -0.8504  1.0989
53153SOL    HW265423   2.400   8.059  11.376 -0.1062  0.4386  0.0883
53154SOL     OW65424   5.711  11.718   1.254 -0.4861 -0.4621  0.2698
53154SOL    HW165425   5.763  11.780   1.305  0.8044  0.2271 -1.7437
53154SOL    HW265426   5.763  11.638   1.252  1.1263  0.5038 -2.4952
53155SOL     OW65427   7.017   0.075   4.441 -1.0920  0.3520 -0.1883
53155SOL    HW165428   6.959  -0.001   4.451 -0.2321 -0.2103  0.8802
53155SOL    HW265429   7.067   0.057   4.362 -0.6571 -0.3797  0.2414
53156SOL     OW65430   6.336   6.208   1.634 -0.0720 -0.0992  0.2268
53156SOL    HW165431   6.313   6.280   1.575  0.7997  0.4749  0.5763
53156SOL    HW265432   6.421   6.177   1.603  0.9745  0.9969  1.8734
53157SOL     OW65433   0.064   7.046  11.882 -0.2327  0.2488 -0.2895
53157SOL    HW165434   0.088   7.100  11.957 -2.1893  3.4637 -1.7583
53157SOL    HW265435   0.137   7.055  11.821 -0.8146  1.9861 -0.8012
53158SOL     OW65436   9.525  11.401   2.319  0.2931  0.1949 -0.1568
53158SOL    HW165437   9.473  11.338   2.369 -1.0688  1.3856  0.0017
53158SOL    HW265438   9.614  11.391   2.352 -0.2131 -0.4361  1.0838
53159SOL     OW65439   8.076   4.135   2.074 -0.3720  0.4088  0.0670
53159SOL    HW165440   8.026   4.217   2.076 -1.3249 -0.1411 -0.2694
53159SOL    HW265441   8.139   4.147   2.004 -0.2678  0.9842  0.2540
53160SOL     OW65442   9.454   1.583   3.345  0.5206  0.0201  0.0925
53160SOL    HW165443   9.392   1.567   3.274  1.4650  0.3870 -0.8392
53160SOL    HW265444   9.468   1.678   3.343  1.9199 -0.1720 -0.4383
53161SOL     OW65445   3.169  11.752   4.034  0.1975 -0.4678 -0.0108
53161SOL    HW165446   3.188  11.817   3.966 -0.7671  0.6954  0.8176
53161SOL    HW265447   3.255  11.717   4.058  0.8204  1.0822  0.1045
53162SOL     OW65448   2.696  12.151   7.435 -0.2829 -0.3201 -0.5598
53162SOL    HW165449   2.754  12.092   7.388  1.4251  1.2346 -0.5413
53162SOL    HW265450   2.724  12.144   7.527  1.2114  1.7826 -0.7902
53163SOL     OW65451   5.982  11.764   3.694 -0.0324 -0.4000  0.0812
53163SOL    HW165452   6.067  11.739   3.658 -0.6624 -2.2632 -0.2223
53163SOL    HW265453   5.971  11.706   3.770 -1.9261 -1.6969 -1.1142
53164SOL     OW65454   7.419  11.540   1.734  0.2599  0.2088  0.0368
53164SOL    HW165455   7.444  11.605   1.799 -0.0319 -0.2933  0.6624
53164SOL    HW265456   7.352  11.487   1.777  1.6806 -1.5850  0.1903
53165SOL     OW65457   5.759   3.692   6.220 -0.5034  0.1313  0.1198
53165SOL    HW165458   5.809   3.755   6.271  0.4528  0.0720 -0.7107
53165SOL    HW265459   5.691   3.745   6.177 -0.7704  0.3134  0.7549
53166SOL     OW65460   5.867   7.418   0.889  0.2083  0.4622 -0.4496
53166SOL    HW165461   5.840   7.345   0.833  1.2093 -1.4672  1.4197
53166SOL    HW265462   5.952   7.445   0.855  0.5691 -0.3353 -0.1990
53167SOL     OW65463   1.957   5.305   2.554 -1.1138 -0.2777 -0.3249
53167SOL    HW165464   1.897   5.305   2.480 -1.7208  1.7170  0.0998
53167SOL    HW265465   1.902   5.320   2.631 -0.2349  0.4040  0.2038
53168SOL     OW65466  11.065   8.729   1.763  0.2704 -0.3084  0.0349
53168SOL    HW165467  10.993   8.699   1.707 -0.9984  0.7111  1.0509
53168SOL    HW265468  11.129   8.766   1.702 -1.9314  2.5920 -0.7447
53169SOL     OW65469   5.291   0.942   6.126  0.1482  0.8255 -0.3821
53169SOL    HW165470   5.374   0.933   6.080 -0.5234 -1.9493 -1.2265
53169SOL    HW265471   5.225   0.942   6.057 -0.6555  1.2334  0.3687
53170SOL     OW65472   6.049  12.061   4.659 -0.7479 -0.2585  0.1271
53170SOL    HW165473   6.094  12.142   4.680  1.8247 -1.6709  0.5384
53170SOL    HW265474   6.089  12.032   4.577  0.0150 -2.1274  1.0820
53171SOL     OW65475  11.549   5.834  11.526  0.2792  0.2243 -0.1319
53171SOL    HW165476  11.533   5.787  11.444 -1.0062 -2.7996  1.6821
53171SOL    HW265477  11.638   5.869  11.516  0.4498 -0.6785 -2.4919
53172SOL     OW65478   0.280   2.376   6.824 -0.3114  0.3299 -0.2383
53172SOL    HW165479   0.201   2.362   6.877 -0.1641 -1.8743 -0.5070
53172SOL    HW265480   0.283   2.301   6.765  0.2670  2.0103 -2.4951
53173SOL     OW65481   9.258   9.615   5.947  0.2726 -0.0813 -0.4581
53173SOL    HW165482   9.200   9.598   6.021  1.8748  1.5280  1.2746
53173SOL    HW265483   9.324   9.547   5.952 -0.3684 -0.7787 -1.2683
53174SOL     OW65484  11.798  11.299   3.964  0.0017  0.2907  0.1912
53174SOL    HW165485  11.814  11.355   3.888  2.2702 -0.5646 -0.0501
53174SOL    HW265486  11.757  11.357   4.028 -0.7002  1.3792 -1.1819
53175SOL     OW65487   5.401  11.562   3.104  0.3100 -0.2826  0.2405
53175SOL    HW165488   5.461  11.635   3.103 -0.2633  0.2097 -0.9441
53175SOL    HW265489   5.446  11.492   3.056 -0.7230  0.7142 -2.3694
53176SOL     OW65490   0.420  12.000   5.817 -0.3258 -0.1073  0.1837
53176SOL    HW165491   0.446  12.033   5.903 -2.4782  0.1021  0.8124
53176SOL    HW265492   0.431  11.906   5.824  1.0442  0.0259  0.1073
53177SOL     OW65493   1.402   0.005   0.719  0.0315  0.5838 -0.0015
53177SOL    HW165494   1.347  -0.031   0.789  0.5724  0.1731  0.2180
53177SOL    HW265495   1.342   0.017   0.645 -0.5113  0.8682  0.4800
53178SOL     OW65496   3.608   1.436   9.026  0.2900 -0.2735 -0.6358
53178SOL    HW165497   3.595   1.354   8.978  1.4973  0.0865 -1.6328
53178SOL    HW265498   3.520   1.464   9.050 -0.5000  0.0499 -3.5389
53179SOL     OW65499   2.102   9.335   8.591  0.3175 -0.1117 -0.2895
53179SOL    HW165500   2.180   9.331   8.646  0.4869 -1.1765 -0.5918
53179SOL    HW265501   2.099   9.426   8.561  0.3915  0.4033  1.2036
53180SOL     OW65502   3.950   4.411   0.986  0.0416 -0.0845 -0.4103
53180SOL    HW165503   3.948   4.482   1.049 -0.0444 -0.6823  0.2737
53180SOL    HW265504   3.858   4.392   0.969  0.0637 -0.4063 -0.1659
53181SOL     OW65505   7.061   6.308   4.881  0.3552  0.7057  0.2930
53181SOL    HW165506   7.042   6.269   4.967 -1.1528 -2.1522 -1.1894
53181SOL    HW265507   6.991   6.371   4.868 -0.5620 -0.2652  0.3858
53182SOL     OW65508   9.882   1.800  10.272 -0.1088 -0.4646  0.4433
53182SOL    HW165509   9.791   1.803  10.244 -0.1748 -1.0479  0.5846
53182SOL    HW265510   9.930   1.772  10.194  0.0564  0.6105  0.1414
53183SOL     OW65511   3.973   4.848   1.201 -0.6850 -0.7936 -0.2441
53183SOL    HW165512   3.962   4.924   1.143 -3.1907  0.5606  1.8152
53183SOL    HW265513   4.066   4.825   1.192 -0.7107 -0.1648 -4.0318
53184SOL     OW65514   1.668   0.579   1.032 -0.1938  0.2138  0.1984
53184SOL    HW165515   1.705   0.494   1.012 -0.2246  0.1545  0.3979
53184SOL    HW265516   1.573   0.565   1.030 -0.2085  0.3277 -0.1435
53185SOL     OW65517   7.043   5.785  11.280  0.1416 -0.1480 -0.2573
53185SOL    HW165518   7.099   5.707  11.286  1.1612  0.2657 -3.0326
53185SOL    HW265519   6.980   5.763  11.212  0.0743  1.2287 -0.6623
53186SOL     OW65520   6.015   1.028   4.688  0.1602 -0.9632  0.0231
53186SOL    HW165521   5.989   1.056   4.775  1.8557 -0.6266  0.4510
53186SOL    HW265522   5.999   0.933   4.688  0.3638 -1.0023  0.7809
53187SOL     OW65523   7.598   2.347   4.478 -0.3286  0.6085 -0.4479
53187SOL    HW165524   7.571   2.369   4.567 -0.1677  0.8276 -0.4518
53187SOL    HW265525   7.539   2.396   4.422 -0.2892  0.6424 -0.4602
53188SOL     OW65526   5.647  11.372   6.725  0.5673  0.6094  0.8272
53188SOL    HW165527   5.663  11.284   6.691  1.3353  1.3353 -0.8058
53188SOL    HW265528   5.615  11.358   6.814  0.2445 -1.3242  0.4462
53189SOL     OW65529   5.423   5.551   7.956  0.6659  0.5232  0.0801
53189SOL    HW165530   5.464   5.602   8.026  0.7039  0.1893  0.3014
53189SOL    HW265531   5.495   5.501   7.918  0.5641  0.3629  0.0989
53190SOL     OW65532   0.951  10.355   9.642  0.2246  0.2031  0.4752
53190SOL    HW165533   1.046  10.351   9.653  0.9078  2.7850 -2.8458
53190SOL    HW265534   0.929  10.275   9.594  0.5043 -0.8147  1.9687
53191SOL     OW65535   8.036   8.250   0.518 -1.0343  0.1861 -0.2947
53191SOL    HW165536   7.995   8.167   0.542 -0.8580 -0.0164 -0.6889
53191SOL    HW265537   8.127   8.241   0.546 -0.7657 -0.1459 -1.2363
53192SOL     OW65538   4.185   6.407   2.640  0.6724 -0.3820 -0.7147
53192SOL    HW165539   4.184   6.321   2.598 -1.3320  0.1513 -1.8746
53192SOL    HW265540   4.197   6.469   2.569 -1.2107  0.4498 -0.3754
53193SOL     OW65541   1.360   3.143   0.450 -0.2233  0.2731 -0.2749
53193SOL    HW165542   1.390   3.205   0.384  1.2450 -1.1726 -1.0242
53193SOL    HW265543   1.438   3.096   0.477 -1.0641 -0.3081  1.3254
53194SOL     OW65544  12.087  11.444   9.219  0.1497  0.3568  0.0521
53194SOL    HW165545  12.023  11.411   9.155  0.0485  1.1180 -0.2512
53194SOL    HW265546  12.172  11.431   9.177  0.2515 -1.1340  0.6690
53195SOL     OW65547   2.497   9.557   8.834  0.0988 -0.1085 -0.2886
53195SOL    HW165548   2.535   9.578   8.749  1.6429  0.1687  0.4432
53195SOL    HW265549   2.448   9.635   8.859  1.0612  0.4718 -0.1711
53196SOL     OW65550   3.798   8.486  11.558 -0.1887  0.0811 -0.7461
53196SOL    HW165551   3.742   8.422  11.514  2.3129 -2.2737 -0.7905
53196SOL    HW265552   3.784   8.470  11.652  1.7150 -1.9482 -0.7196
53197SOL     OW65553   1.086   8.279   8.636 -0.0803  0.3685 -0.1663
53197SOL    HW165554   1.119   8.266   8.725 -0.4521  0.0583 -0.0725
53197SOL    HW265555   0.991   8.273   8.644 -0.0610 -1.4859 -0.8601
53198SOL     OW65556  11.111   0.054   7.711 -0.3595 -0.0808 -0.0455
53198SOL    HW165557  11.115  -0.035   7.747 -0.3458 -0.0520  0.0233
53198SOL    HW265558  11.108   0.041   7.616  0.2926 -0.1355 -0.0602
53199SOL     OW65559   5.821   3.108   4.303  0.6161 -0.1216  0.4084
53199SOL    HW165560   5.884   3.158   4.355  1.8307 -0.9510 -0.2326
53199SOL    HW265561   5.840   3.017   4.323 -2.0000 -0.3910  2.0651
53200SOL     OW65562   3.937   7.024   3.686 -0.0911 -0.4533  0.5951
53200SOL    HW165563   3.967   7.106   3.647  0.8773 -1.1995 -0.2774
53200SOL    HW265564   3.945   6.959   3.616 -1.9815 -1.0888  0.8860
53201SOL     OW65565   5.191   3.883  10.226  0.0941 -0.0865 -0.8229
53201SOL    HW165566   5.190   3.847  10.137 -1.9375 -0.4570 -0.6987
53201SOL    HW265567   5.206   3.807  10.282  1.8304  0.2151 -0.8492
53202SOL     OW65568   4.363  10.006   8.710  0.2922  0.4944  0.3364
53202SOL    HW165569   4.290  10.047   8.663 -0.0528  0.1841  0.5961
53202SOL    HW265570   4.377   9.923   8.665  1.3006  1.0891 -0.4829
53203SOL     OW65571   8.639   7.856   7.364 -0.4587 -0.2121 -0.0060
53203SOL    HW165572   8.692   7.801   7.422 -1.0150  0.6215  1.3345
53203SOL    HW265573   8.550   7.849   7.399 -0.3531  2.5316  1.0471
53204SOL     OW65574   2.437   0.474  11.942  0.1813  0.0586 -0.0373
53204SOL    HW165575   2.493   0.397  11.945  0.0696 -0.0153  0.2142
53204SOL    HW265576   2.489   0.542  11.986  0.3121  0.1484 -0.3291
53205SOL     OW65577   6.075  12.431  10.057 -0.0854  0.1155 -0.6827
53205SOL    HW165578   6.081  12.506  10.116 -0.7241 -0.5984  0.3140
53205SOL    HW265579   5.983  12.431  10.029 -0.9897 -2.1037  1.8397
53206SOL     OW65580  11.923   5.317  11.296 -0.0045 -0.3675  0.1675
53206SOL    HW165581  11.941   5.263  11.373  1.8797 -0.5273 -0.3264
53206SOL    HW265582  11.996   5.299  11.237 -0.1845  1.5131 -0.6931
53207SOL     OW65583   8.640  10.505   4.515  0.5083  0.1581 -0.2828
53207SOL    HW165584   8.597  10.467   4.439  0.0149  1.4484 -0.6712
53207SOL    HW265585   8.700  10.570   4.480  4.8265 -3.2013  0.0296
53208SOL     OW65586   8.657   2.309  11.001 -0.3229 -0.1561 -0.7445
53208SOL    HW165587   8.684   2.315  11.093 -2.4023 -0.6707 -0.0567
53208SOL    HW265588   8.681   2.220  10.975  1.2842  0.3314 -1.1068
53209SOL     OW65589   1.443   5.311   1.725  0.3623 -0.3009 -0.0386
53209SOL    HW165590   1.438   5.222   1.760 -0.5746 -1.0665 -1.9919
53209SOL    HW265591   1.527   5.314   1.680  0.1702 -0.3852 -0.4089
53210SOL     OW65592  10.924   5.091   7.425 -0.1248 -0.1169  0.6978
53210SOL    HW165593  10.960   5.039   7.353 -1.4314 -0.6105  0.3827
53210SOL    HW265594  10.946   5.181   7.402 -1.9236 -0.0993 -1.1929
53211SOL     OW65595   3.823   2.956   3.956 -0.0051  0.0734  0.0531
53211SOL    HW165596   3.789   3.035   3.913 -0.8171  0.4691  1.3497
53211SOL    HW265597   3.746   2.914   3.994  0.2995 -1.8420 -1.3263
53212SOL     OW65598   8.815   4.051   1.612  0.0958 -0.4338  0.5319
53212SOL    HW165599   8.900   4.016   1.585  0.0753 -0.1438  0.0754
53212SOL    HW265600   8.831   4.144   1.625  0.3924 -0.7373  2.7306
53213SOL     OW65601   0.811   0.795   6.606  0.3533  0.2415  0.3187
53213SOL    HW165602   0.781   0.716   6.652  0.0108  0.0867 -0.1706
53213SOL    HW265603   0.854   0.761   6.527  1.9969  0.4383  1.0840
53214SOL     OW65604   0.078   9.548   5.668 -0.8243 -0.8598 -0.2007
53214SOL    HW165605   0.128   9.558   5.748 -0.5666  1.8569 -0.6164
53214SOL    HW265606   0.126   9.482   5.617  1.1029  0.0623  0.3425
53215SOL     OW65607   1.980   2.895  11.651  0.0420  0.0037 -0.3272
53215SOL    HW165608   1.943   2.981  11.667  1.8649  0.9546 -0.8945
53215SOL    HW265609   1.981   2.886  11.556  2.6591  0.7603 -0.4669
53216SOL     OW65610   1.914   9.267   5.228  0.5117 -0.0558 -0.4367
53216SOL    HW165611   1.850   9.195   5.230 -0.4805  0.8034  1.5541
53216SOL    HW265612   1.871   9.335   5.177  0.6254 -0.1560 -0.6671
53217SOL     OW65613   1.539   0.767  10.877  0.8506 -0.0519 -0.1629
53217SOL    HW165614   1.604   0.710  10.919 -1.0156 -1.5773  0.7958
53217SOL    HW265615   1.503   0.714  10.806  0.0830  0.4778 -0.1751
53218SOL     OW65616   6.357   7.702   9.117  0.1752  0.0692  0.7849
53218SOL    HW165617   6.332   7.793   9.102  1.9128  0.2893 -1.1762
53218SOL    HW265618   6.439   7.708   9.167  0.1184 -0.4436  0.9505
53219SOL     OW65619   6.835   0.405   5.166  0.1649  0.1817 -0.0625
53219SOL    HW165620   6.855   0.318   5.199  0.1844  0.3657  0.4183
53219SOL    HW265621   6.920   0.449   5.161 -0.0287  0.8154  1.5562
53220SOL     OW65622   0.999  10.028   5.721  0.7850 -0.1108  0.4536
53220SOL    HW165623   0.947  10.037   5.641  1.9357  0.6531 -0.2626
53220SOL    HW265624   0.936  10.024   5.792 -0.2381  0.8742 -0.3731
53221SOL     OW65625  10.843   2.941   3.031 -0.1588  0.6837  0.0816
53221SOL    HW165626  10.840   2.998   3.108  0.3790  1.6919 -0.6284
53221SOL    HW265627  10.843   3.000   2.957 -0.4548 -0.2776 -0.7073
53222SOL     OW65628   0.946   2.753   7.189 -0.3818 -0.3099 -0.2173
53222SOL    HW165629   0.879   2.822   7.180 -0.1054 -0.1722 -1.4685
53222SOL    HW265630   1.018   2.782   7.132  0.9796 -0.2049  1.4814
53223SOL     OW65631   9.981   2.743  11.463 -0.3127  0.4534 -0.1529
53223SOL    HW165632   9.956   2.780  11.548 -1.8583 -1.1302  0.1284
53223SOL    HW265633   9.928   2.791  11.399 -0.5187  0.3654 -0.0457
53224SOL     OW65634   2.971  10.882   8.628  0.0448  0.2796  0.4312
53224SOL    HW165635   2.977  10.973   8.599 -0.5820  0.1485 -0.1181
53224SOL    HW265636   2.971  10.831   8.547 -2.3065 -0.0611  0.5822
53225SOL     OW65637   9.898   3.914   0.528 -0.0851  0.6115 -0.2870
53225SOL    HW165638   9.894   3.929   0.434 -0.9875  0.5641 -0.2588
53225SOL    HW265639   9.971   3.853   0.539  0.2264  0.8550 -0.9171
53226SOL     OW65640   3.584   9.970   0.593  0.3684  0.2302  0.4016
53226SOL    HW165641   3.561  10.063   0.602 -0.1022  0.3289 -1.4043
53226SOL    HW265642   3.651   9.968   0.525  0.7852 -0.7074  0.8271
53227SOL     OW65643  10.838   0.890   2.085 -0.1882  0.4758 -0.8173
53227SOL    HW165644  10.790   0.825   2.034  1.3225  1.1227 -3.2438
53227SOL    HW265645  10.792   0.972   2.069 -1.1356  0.3171  0.9188
53228SOL     OW65646   6.470   9.955   4.891 -0.5431  0.0787  0.3572
53228SOL    HW165647   6.403  10.006   4.846 -0.6450 -0.4842 -0.1350
53228SOL    HW265648   6.479   9.998   4.976 -0.9164  0.6706  0.1034
53229SOL     OW65649   5.272   4.029   5.646  1.1175 -0.0248  0.4436
53229SOL    HW165650   5.209   4.044   5.576  0.2177  0.6743  1.3781
53229SOL    HW265651   5.221   4.033   5.726  2.2364 -0.1515  1.1908
53230SOL     OW65652   4.757   0.407   1.439 -0.3005 -0.2002 -0.7267
53230SOL    HW165653   4.691   0.474   1.417 -2.0553 -1.8134 -0.6567
53230SOL    HW265654   4.783   0.428   1.529 -0.0242  1.0073 -1.0779
53231SOL     OW65655   6.490   1.594  10.093  0.3841 -0.2509 -0.4601
53231SOL    HW165656   6.485   1.665  10.157 -0.0698 -0.4533 -0.2668
53231SOL    HW265657   6.569   1.547  10.116 -0.0337 -0.6180  0.2703
53232SOL     OW65658   3.763   6.568   2.559 -0.6138 -0.1620  0.0840
53232SOL    HW165659   3.749   6.590   2.651  2.6570  1.8741  0.2609
53232SOL    HW265660   3.818   6.489   2.561  1.7083  1.3559  0.1010
53233SOL     OW65661   6.766   7.315   3.009  1.2510  0.1792 -0.4258
53233SOL    HW165662   6.778   7.393   2.955  0.5742 -0.2795 -1.2696
53233SOL    HW265663   6.679   7.325   3.046 -0.0097 -1.3856 -2.6871
53234SOL     OW65664   4.112   5.311   3.071  0.0683 -0.8491 -0.1149
53234SOL    HW165665   4.129   5.310   3.166  1.6682 -0.2368 -0.3675
53234SOL    HW265666   4.066   5.393   3.056  0.0539 -0.8182  0.0838
53235SOL     OW65667   9.058   2.658   3.789 -0.3883  0.6234  0.1739
53235SOL    HW165668   9.079   2.595   3.720  2.0308 -1.2571  2.4219
53235SOL    HW265669   9.093   2.741   3.757  2.0756 -0.5106 -0.3008
53236SOL     OW65670  11.833   6.730   5.372  0.1653 -0.3399  0.3627
53236SOL    HW165671  11.866   6.666   5.436 -1.8632 -0.8931  0.9571
53236SOL    HW265672  11.838   6.814   5.418 -0.9995 -0.6939  1.1925
53237SOL     OW65673   2.524   7.405   3.273  0.0382  0.0470  0.2531
53237SOL    HW165674   2.537   7.323   3.226 -0.8084  0.0460  0.0002
53237SOL    HW265675   2.468   7.457   3.215  1.8571  1.4721 -0.3528
53238SOL     OW65676   3.391   2.024   1.070 -0.3183  0.0573  0.7370
53238SOL    HW165677   3.445   1.960   1.025 -1.9629 -0.6623 -0.2900
53238SOL    HW265678   3.386   2.098   1.010 -1.1658 -0.2366  0.4326
53239SOL     OW65679  12.288  10.788   8.876  0.1293 -0.1905 -0.4176
53239SOL    HW165680  12.216  10.833   8.832 -1.0042  0.9986  2.4142
53239SOL    HW265681  12.359  10.789   8.813 -1.7887  0.0766 -2.7179
53240SOL     OW65682   6.146   0.065   2.315  0.1736  0.0940 -0.2477
53240SOL    HW165683   6.075   0.029   2.261 -0.8129 -0.6157  1.4570
53240SOL    HW265684   6.226   0.030   2.275 -0.5595 -0.9048 -0.8953
53241SOL     OW65685   8.400   5.650   8.857  0.1476 -0.0248  0.3963
53241SOL    HW165686   8.369   5.563   8.881 -0.7884 -0.2263 -1.3297
53241SOL    HW265687   8.326   5.690   8.812  1.4397  0.5862 -1.3223
53242SOL     OW65688   1.204   3.382  12.003 -0.7904  0.1427 -0.0469
53242SOL    HW165689   1.207   3.331  12.084 -0.8116 -1.4138 -1.0053
53242SOL    HW265690   1.113   3.378  11.976 -0.3470 -1.4404 -1.4283
53243SOL     OW65691  12.101   0.782   5.181 -0.6637  0.1641  0.1871
53243SOL    HW165692  12.008   0.758   5.175 -0.3480 -1.2830  0.7314
53243SOL    HW265693  12.134   0.771   5.092 -1.3019  2.1046 -0.3432
53244SOL     OW65694  11.831   3.106   9.722  0.3108 -0.6126  0.3788
53244SOL    HW165695  11.794   3.128   9.808 -3.1210 -0.5453 -0.9692
53244SOL    HW265696  11.769   3.045   9.684  0.9648  0.4484 -2.6315
53245SOL     OW65697   4.551   6.602   8.942  0.2320 -0.3267  0.0169
53245SOL    HW165698   4.596   6.674   8.897 -0.4723 -0.1269 -0.3761
53245SOL    HW265699   4.468   6.641   8.971 -0.4413 -1.1531 -0.7554
53246SOL     OW65700   3.087  11.882  10.979  0.4561 -0.2145  0.4778
53246SOL    HW165701   3.171  11.856  11.017  0.8800  0.1622 -0.1831
53246SOL    HW265702   3.110  11.951  10.916 -0.2010 -0.9607 -0.6091
53247SOL     OW65703   5.054   9.045   2.881  0.2025  0.2308 -0.5423
53247SOL    HW165704   5.025   9.025   2.792  0.4266 -0.7126 -0.4128
53247SOL    HW265705   5.136   8.996   2.892  0.5915  0.9570 -0.0781
53248SOL     OW65706   9.763   1.424   1.261 -0.1292  0.4050  0.3806
53248SOL    HW165707   9.823   1.487   1.221 -0.4383 -1.1334 -2.8751
53248SOL    HW265708   9.676   1.454   1.234 -0.3605 -0.6173 -0.0521
53249SOL     OW65709   6.167   8.717  10.674  0.9347  0.0519  0.1062
53249SOL    HW165710   6.096   8.752  10.728 -2.3405 -1.5684 -2.7668
53249SOL    HW265711   6.211   8.654  10.731 -1.2260 -0.3603  1.4593
53250SOL     OW65712   5.303   5.641   1.687 -0.7551 -0.0062 -0.5744
53250SOL    HW165713   5.296   5.577   1.758  0.7117  2.4511  1.9989
53250SOL    HW265714   5.348   5.594   1.617  0.5266 -1.7538  1.2821
53251SOL     OW65715  11.951  10.237   4.882  0.1003 -0.0833 -0.1961
53251SOL    HW165716  11.901  10.216   4.960 -0.1216 -1.2828 -0.6467
53251SOL    HW265717  12.001  10.158   4.863  1.0962  0.6084 -0.5725
53252SOL     OW65718   7.836   3.454   5.477 -0.5765  0.2015  0.7703
53252SOL    HW165719   7.847   3.428   5.569 -1.1605  2.2447  1.4584
53252SOL    HW265720   7.750   3.496   5.474  0.2810  2.0009 -0.2494
53253SOL     OW65721  11.595   7.559  11.948 -0.4481  0.1799  0.8220
53253SOL    HW165722  11.671   7.503  11.964 -0.9141  0.0003  2.5708
53253SOL    HW265723  11.619   7.644  11.986 -1.5874 -0.2492  2.5816
53254SOL     OW65724   9.173   4.606   2.670  0.4974  0.6801  0.2991
53254SOL    HW165725   9.144   4.596   2.760  1.1431  1.0618  0.5565
53254SOL    HW265726   9.221   4.689   2.669 -0.8342  1.4825 -0.7385
53255SOL     OW65727  11.402  10.758   2.964 -0.1049  0.8151 -0.3079
53255SOL    HW165728  11.377  10.718   3.048 -1.2528  1.0560 -0.5248
53255SOL    HW265729  11.390  10.688   2.900 -2.8998  1.6240 -0.8140
53256SOL     OW65730   9.056   7.948   8.630  0.0757 -1.0013 -0.3562
53256SOL    HW165731   9.114   8.006   8.581  1.4751 -1.5917  0.5606
53256SOL    HW265732   9.001   8.008   8.681  0.4075 -0.4439 -0.6350
53257SOL     OW65733   0.614  10.700   6.597 -0.2111  0.3660  0.7834
53257SOL    HW165734   0.544  10.712   6.534 -0.3184  0.2571  0.8791
53257SOL    HW265735   0.587  10.623   6.648  0.1578  0.0957  0.5755
53258SOL     OW65736   0.135   1.484   6.536 -0.4043 -0.2655 -0.5182
53258SOL    HW165737   0.188   1.527   6.470 -0.5187  0.3301 -0.2302
53258SOL    HW265738   0.044   1.499   6.508 -0.5084  1.2118  0.4904
53259SOL     OW65739   4.065   8.414  12.094  0.1406 -0.5146 -0.0306
53259SOL    HW165740   4.064   8.377  12.183  1.3589 -0.8513 -0.1431
53259SOL    HW265741   4.116   8.495  12.102  1.6131 -1.3222 -0.6818
53260SOL     OW65742   7.252   1.876   6.369 -0.1318  0.1049  0.0572
53260SOL    HW165743   7.272   1.887   6.462 -0.6977 -0.2473  0.2212
53260SOL    HW265744   7.198   1.798   6.364  0.0668 -0.0045 -0.5975
53261SOL     OW65745   4.785   1.917   7.746  0.2649 -0.2326 -0.5092
53261SOL    HW165746   4.770   1.949   7.836 -0.6485 -2.2590  0.1237
53261SOL    HW265747   4.857   1.855   7.755 -0.4601 -1.1652 -0.9748
53262SOL     OW65748  11.743   5.943   8.745 -0.0960  0.1022  0.3069
53262SOL    HW165749  11.745   5.847   8.744  0.1595  0.1130  0.0020
53262SOL    HW265750  11.771   5.969   8.658 -1.9868  0.4291 -0.2569
53263SOL     OW65751  10.012   7.792   3.919 -0.1706  0.2106  0.1945
53263SOL    HW165752  10.101   7.759   3.907 -0.4795 -1.1485  1.4146
53263SOL    HW265753   9.968   7.774   3.836 -0.8278 -4.2459  1.2536
53264SOL     OW65754  11.322   0.438   2.441 -0.1033 -0.0611  0.1845
53264SOL    HW165755  11.382   0.501   2.481  0.6944 -1.8479  1.9687
53264SOL    HW265756  11.238   0.484   2.437  0.5932  1.3197  0.8254
53265SOL     OW65757   7.060   3.226   8.729  0.1348  0.7638  0.3284
53265SOL    HW165758   7.110   3.280   8.790 -0.0379  0.1227  1.0524
53265SOL    HW265759   7.032   3.287   8.660  2.3440  1.0464 -0.4056
53266SOL     OW65760   8.796   8.838   5.252  0.5714  1.0302  0.2268
53266SOL    HW165761   8.835   8.757   5.285 -1.4438 -0.5749 -1.0750
53266SOL    HW265762   8.866   8.880   5.203  1.4391 -0.3764  0.2035
53267SOL     OW65763   1.273   6.135   8.557  0.6475 -0.4037  0.1309
53267SOL    HW165764   1.348   6.151   8.614  1.0346 -0.7155 -0.2866
53267SOL    HW265765   1.286   6.046   8.523  0.5121 -0.1603 -0.5808
53268SOL     OW65766   2.009   8.488   9.820  0.1847  0.2734 -0.1380
53268SOL    HW165767   2.014   8.396   9.846 -0.1365 -0.0873 -1.2880
53268SOL    HW265768   1.922   8.515   9.848 -0.3964 -0.2868 -1.3136
53269SOL     OW65769   8.235   2.676   0.815 -0.1850 -0.3107  0.2371
53269SOL    HW165770   8.176   2.694   0.888  0.9432  1.0224  0.8657
53269SOL    HW265771   8.312   2.730   0.833  0.4677 -0.6109 -1.5089
53270SOL     OW65772   1.000   0.109  10.763  0.4059  0.1499 -0.4946
53270SOL    HW165773   1.045   0.152  10.836  1.5201 -0.4909 -0.7883
53270SOL    HW265774   1.066   0.104  10.694  0.2612 -1.8780 -0.5346
53271SOL     OW65775   0.026   9.071   1.721 -0.5041  0.3389 -0.3573
53271SOL    HW165776   0.010   9.133   1.792  1.2281  0.3346  0.0771
53271SOL    HW265777   0.110   9.098   1.683 -0.6629 -0.5661 -1.4312
53272SOL     OW65778   7.111   0.306   9.325  0.1352  0.0755  0.6196
53272SOL    HW165779   7.190   0.360   9.326  0.6541 -0.6245  1.9942
53272SOL    HW265780   7.052   0.348   9.388 -1.3703  1.5908 -1.6774
53273SOL     OW65781  11.284   2.948   0.594  0.3579 -0.2274  0.0205
53273SOL    HW165782  11.363   2.977   0.639  0.6157  0.9629 -1.1353
53273SOL    HW265783  11.242   3.028   0.564 -0.7963 -0.8905 -0.1992
53274SOL     OW65784   2.622  10.877   6.095  0.0484 -0.2844 -0.0699
53274SOL    HW165785   2.692  10.856   6.157 -0.8770 -2.5802  0.2947
53274SOL    HW265786   2.585  10.792   6.070 -1.5950  0.7575 -1.4485
53275SOL     OW65787   0.398   9.225   7.951 -0.2065  0.0864 -0.0882
53275SOL    HW165788   0.321   9.267   7.912 -1.5449 -1.1964  1.0443
53275SOL    HW265789   0.408   9.267   8.036  1.2734  1.2433 -0.7852
53276SOL     OW65790   0.788   7.888   9.593 -1.0488 -0.7443 -0.5109
53276SOL    HW165791   0.758   7.929   9.674 -1.4414  0.2032 -1.1158
53276SOL    HW265792   0.716   7.900   9.532 -0.9304 -1.8304 -0.8974
53277SOL     OW65793   7.763   2.432   1.987  0.3986  0.6965 -0.1426
53277SOL    HW165794   7.840   2.375   1.987 -0.4814 -0.5434 -0.5387
53277SOL    HW265795   7.799   2.521   1.990  1.8541  0.1687 -0.7980
53278SOL     OW65796   6.174   6.883   7.541  0.1138  0.0008  0.3766
53278SOL    HW165797   6.115   6.851   7.473  1.7655 -0.9372 -0.6904
53278SOL    HW265798   6.139   6.847   7.623 -0.4640 -1.0402 -0.3094
53279SOL     OW65799   6.740  11.425   9.129 -0.1760 -0.4070 -0.5243
53279SOL    HW165800   6.752  11.467   9.044  1.3042 -0.1923 -0.2287
53279SOL    HW265801   6.815  11.365   9.137  1.6076  1.9043  1.9874
53280SOL     OW65802  11.716   6.346   9.488  0.0407 -0.1315 -0.1391
53280SOL    HW165803  11.642   6.378   9.437  1.0361  0.5792 -1.1769
53280SOL    HW265804  11.781   6.318   9.423  1.6063  1.4175  0.6604
53281SOL     OW65805   3.306   8.774   3.480 -0.3316  0.5249 -0.6434
53281SOL    HW165806   3.320   8.797   3.388 -1.3201  2.3295 -0.3890
53281SOL    HW265807   3.256   8.693   3.478 -1.5389  1.2743 -1.7402
53282SOL     OW65808  11.711  11.373   2.155  0.3878  0.6253  0.3236
53282SOL    HW165809  11.640  11.436   2.140 -1.2746 -0.9782  1.1406
53282SOL    HW265810  11.694  11.302   2.093 -0.3127 -1.0185  2.3240
53283SOL     OW65811   2.710  12.253  10.392  0.4335 -0.1727 -0.1599
53283SOL    HW165812   2.692  12.259  10.486  2.4599 -1.2327  0.3552
53283SOL    HW265813   2.677  12.167  10.366 -1.9819  0.9159 -0.9372
53284SOL     OW65814   9.699   0.125   2.615  0.0883 -0.3947  0.1273
53284SOL    HW165815   9.613   0.100   2.651 -0.2683  1.5186  0.6955
53284SOL    HW265816   9.757   0.128   2.691  0.0277  0.8142  0.1467
53285SOL     OW65817   6.628   2.015  11.705  0.6607  0.1745  0.7563
53285SOL    HW165818   6.685   1.950  11.665  0.5961  0.4694  0.1660
53285SOL    HW265819   6.588   2.061  11.630  1.0838  1.2203  1.1525
53286SOL     OW65820   9.020   6.895   4.173  0.3539  0.5409 -0.2084
53286SOL    HW165821   9.040   6.830   4.241  0.4767  0.0525 -0.7029
53286SOL    HW265822   8.986   6.970   4.221  1.1680  0.4991  0.4565
53287SOL     OW65823   8.986   2.916   0.003 -0.1430  0.1707  0.2924
53287SOL    HW165824   8.932   2.851   0.048  0.3607 -0.8313 -0.5025
53287SOL    HW265825   9.076   2.897   0.032  0.0325  0.3737 -0.1090
53288SOL     OW65826   1.019   4.664  12.450 -0.0458 -0.6183  0.1388
53288SOL    HW165827   1.068   4.728  12.399  1.4366  0.6353  2.9059
53288SOL    HW265828   1.050   4.579  12.418  3.0058  0.1313  0.8483
53289SOL     OW65829   8.680   1.841   6.633 -0.2616 -0.0223  0.6974
53289SOL    HW165830   8.676   1.929   6.670 -0.2666  0.3601 -0.2079
53289SOL    HW265831   8.769   1.832   6.599 -1.0097  0.6544 -1.6375
53290SOL     OW65832   8.724   9.939   1.207 -0.0600  0.2725  0.0221
53290SOL    HW165833   8.633   9.912   1.210  0.1417 -0.5071 -0.5009
53290SOL    HW265834   8.721  10.035   1.196 -0.8402  0.1158 -1.4872
53291SOL     OW65835   1.369  11.144   7.648 -0.0119 -0.0321  0.2729
53291SOL    HW165836   1.314  11.191   7.711  0.9175 -0.1429  1.1866
53291SOL    HW265837   1.447  11.119   7.698  1.0586  0.4823 -1.1011
53292SOL     OW65838   7.743   3.689   5.263  0.1450  0.3768 -0.0871
53292SOL    HW165839   7.657   3.728   5.243 -0.2277  0.5964  1.7969
53292SOL    HW265840   7.757   3.707   5.356  0.7557 -2.4809  0.4639
53293SOL     OW65841   6.250  12.056   8.170 -0.2975 -0.1885  0.5607
53293SOL    HW165842   6.158  12.028   8.173 -0.4038 -0.3508 -1.8013
53293SOL    HW265843   6.299  11.979   8.199 -0.8652 -0.7414  0.1090
53294SOL     OW65844  10.094   0.732   4.565  0.3535 -0.1497 -0.2049
53294SOL    HW165845  10.000   0.741   4.550  0.5057 -0.7778 -1.7008
53294SOL    HW265846  10.122   0.819   4.595 -0.3096  0.7713 -2.1315
53295SOL     OW65847   2.552   5.088   4.030  0.8072  0.2235 -0.2572
53295SOL    HW165848   2.602   5.009   4.050 -0.0771 -0.3396 -0.2112
53295SOL    HW265849   2.593   5.124   3.952 -0.3147 -1.6625 -1.7880
53296SOL     OW65850   9.788   6.697   7.882  0.8537  0.0836 -0.6416
53296SOL    HW165851   9.806   6.609   7.848  0.7994 -0.0512 -0.3294
53296SOL    HW265852   9.874   6.732   7.904  0.8433 -0.0653 -0.3525
53297SOL     OW65853   1.937   7.172   7.408  0.1587 -0.7882  0.2124
53297SOL    HW165854   1.999   7.113   7.452 -0.8075 -1.2135  1.0524
53297SOL    HW265855   1.901   7.225   7.479 -1.0758 -1.1444 -0.1291
53298SOL     OW65856   1.737   4.038   4.590  0.0244  0.4004 -0.2411
53298SOL    HW165857   1.807   3.972   4.599 -1.3722 -1.0754  0.3064
53298SOL    HW265858   1.700   4.022   4.504 -0.4729  0.3130 -0.0126
53299SOL     OW65859   6.690   0.086   3.322 -0.1596  0.2262 -0.2703
53299SOL    HW165860   6.738   0.077   3.240  1.2416 -1.6582  0.6671
53299SOL    HW265861   6.695   0.179   3.342  0.4635  0.5463 -1.7417
53300SOL     OW65862   7.800   1.619  10.187  0.4796 -0.2695 -0.1501
53300SOL    HW165863   7.783   1.671  10.266  1.0966 -0.5873  0.1961
53300SOL    HW265864   7.893   1.599  10.191  0.4417 -0.6005 -0.7792
53301SOL     OW65865  12.411   6.970   8.959  0.1111  0.0039 -0.1239
53301SOL    HW165866  12.437   6.971   9.051 -0.9611 -0.4203  0.1932
53301SOL    HW265867  12.431   6.882   8.929 -0.5312 -0.1911  0.0048
53302SOL     OW65868   3.140  10.585   7.622 -0.0909 -0.1218 -0.3559
53302SOL    HW165869   3.166  10.622   7.706 -0.5714  1.3052 -0.8027
53302SOL    HW265870   3.167  10.650   7.557  1.1615 -1.6287 -1.4303
53303SOL     OW65871   4.269  10.859   6.462 -0.5201 -0.3625  0.5628
53303SOL    HW165872   4.359  10.848   6.493 -0.4644  0.3531  0.6962
53303SOL    HW265873   4.247  10.777   6.418  0.0133 -0.7393  0.9928
53304SOL     OW65874   2.607   5.487   6.511 -0.1384  1.3335  0.1534
53304SOL    HW165875   2.680   5.427   6.517 -0.5377  0.8695  0.4249
53304SOL    HW265876   2.584   5.507   6.602 -0.3291  1.4973  0.0707
53305SOL     OW65877  10.658  11.939   8.996  0.1923  0.2172  0.1224
53305SOL    HW165878  10.621  11.953   8.909 -0.4135  0.3145  0.3920
53305SOL    HW265879  10.676  11.845   9.000 -1.6375 -0.1354  0.6068
53306SOL     OW65880   0.133   3.249  10.776  0.8401  0.4250 -0.8994
53306SOL    HW165881   0.093   3.320  10.825  0.7788  0.9706 -1.7178
53306SOL    HW265882   0.086   3.248  10.693  0.5290 -0.8757 -0.7329
53307SOL     OW65883  11.609   0.060   6.495 -0.5181  0.7991 -0.1267
53307SOL    HW165884  11.555   0.096   6.424 -0.7666  1.9032  0.5866
53307SOL    HW265885  11.682   0.018   6.450 -0.8492  1.1743 -1.0537
53308SOL     OW65886   2.134   8.323   5.824  0.4824  0.3894  0.3330
53308SOL    HW165887   2.104   8.345   5.913 -0.6403 -1.3027  0.4312
53308SOL    HW265888   2.055   8.290   5.780  1.3450 -0.2515 -0.7955
53309SOL     OW65889   0.687   5.708   9.177 -0.3824  0.2389 -0.5226
53309SOL    HW165890   0.654   5.618   9.177  0.2611 -0.0060  0.3596
53309SOL    HW265891   0.779   5.701   9.203 -0.2779  1.1394 -0.5926
53310SOL     OW65892   3.915   1.003   7.665 -0.3748  0.0788  0.3873
53310SOL    HW165893   3.918   1.089   7.708 -0.3454  0.1683  0.2058
53310SOL    HW265894   3.822   0.989   7.647 -0.6098 -0.7497  2.0724
53311SOL     OW65895   6.032   0.649   5.335 -0.0380  0.3506 -0.1205
53311SOL    HW165896   5.948   0.692   5.349 -1.3679 -2.6813  2.8579
53311SOL    HW265897   6.014   0.582   5.269 -0.1465 -0.4583  0.6897
53312SOL     OW65898  12.017  10.006  11.425  0.1442  0.6214 -0.7504
53312SOL    HW165899  12.015  10.102  11.420  1.2788  0.6252 -1.3915
53312SOL    HW265900  12.109   9.985  11.441 -0.1571 -0.3584 -0.2157
53313SOL     OW65901   3.558   2.248   0.352 -1.2373  0.2965 -0.2457
53313SOL    HW165902   3.493   2.317   0.336 -1.6013  0.3324  1.1724
53313SOL    HW265903   3.635   2.295   0.383 -1.1629  0.1300 -0.1780
53314SOL     OW65904   1.208   6.818  10.464 -0.1474  0.1549  0.6304
53314SOL    HW165905   1.267   6.744  10.447  1.2754  1.4938 -0.7052
53314SOL    HW265906   1.138   6.808  10.399 -0.1216 -0.1766  0.6523
53315SOL     OW65907   6.106  10.516   3.954  0.0131  0.4763 -0.5546
53315SOL    HW165908   6.159  10.437   3.945 -1.0240 -0.1513 -1.2646
53315SOL    HW265909   6.078  10.537   3.865 -1.5380  0.3776 -0.1091
53316SOL     OW65910   6.258   5.123  11.433 -0.1525  0.3309 -0.2998
53316SOL    HW165911   6.184   5.184  11.433  0.8858  1.6554 -1.5040
53316SOL    HW265912   6.217   5.037  11.442 -1.7912  1.0670 -0.2702
53317SOL     OW65913   6.258   9.742   1.877  0.0042  0.0971  0.2933
53317SOL    HW165914   6.314   9.691   1.936  1.0661 -0.8569 -1.4630
53317SOL    HW265915   6.177   9.692   1.872  0.4335 -0.5597 -0.1446
53318SOL     OW65916   1.815  11.057   4.392 -0.4650 -0.0076 -0.4127
53318SOL    HW165917   1.743  11.045   4.331 -0.4308 -0.8464 -0.3014
53318SOL    HW265918   1.843  11.148   4.379 -1.4394  0.2799 -0.5581
53319SOL     OW65919   3.721   2.837   1.132  0.7279 -0.1010  0.1377
53319SOL    HW165920   3.803   2.792   1.150 -0.0480 -1.4656  0.4637
53319SOL    HW265921   3.696   2.876   1.217  0.8925  0.0654  0.1097
53320SOL     OW65922  12.100   0.534  10.845  0.1557  0.2327 -0.1542
53320SOL    HW165923  12.007   0.558  10.846 -0.4076 -1.8008  0.3876
53320SOL    HW265924  12.146   0.617  10.853 -1.6557  1.1572  1.3500
53321SOL     OW65925  10.510   5.743   9.260 -0.0570  0.2577  0.3220
53321SOL    HW165926  10.490   5.681   9.330  0.5827  1.3793  1.5288
53321SOL    HW265927  10.480   5.828   9.293  3.3908  1.4538  0.8108
53322SOL     OW65928   0.673   2.679   8.283 -0.0644 -0.0599  0.0838
53322SOL    HW165929   0.709   2.757   8.323 -3.0768  0.9932  0.9825
53322SOL    HW265930   0.584   2.673   8.317 -1.6696 -1.0562 -3.7648
53323SOL     OW65931   1.752   5.762  10.079 -0.4409  0.9347 -0.0642
53323SOL    HW165932   1.813   5.714  10.136  0.4394 -1.0851 -2.4962
53323SOL    HW265933   1.669   5.716  10.089  0.0092 -0.1798 -1.2174
53324SOL     OW65934  11.742   3.078  10.646  0.3670  0.1331 -0.2047
53324SOL    HW165935  11.780   3.066  10.733 -2.8797  0.6728  1.4304
53324SOL    HW265936  11.750   2.992  10.605  3.7277  0.3458 -0.2878
53325SOL     OW65937   6.870   5.163   6.373 -0.7470  0.6508  0.0380
53325SOL    HW165938   6.943   5.205   6.328  0.4988 -0.3086  1.0659
53325SOL    HW265939   6.816   5.126   6.304  0.0835  0.8618 -0.7357
53326SOL     OW65940   6.613   1.749  12.102 -0.0358 -0.9278 -0.0285
53326SOL    HW165941   6.654   1.825  12.144 -0.3665  0.2597 -1.7605
53326SOL    HW265942   6.567   1.785  12.027 -1.8942 -2.6016  0.2291
53327SOL     OW65943   1.296   2.833   6.739 -0.3531 -0.1992  0.0971
53327SOL    HW165944   1.275   2.914   6.693 -3.3695 -0.5679  0.6433
53327SOL    HW265945   1.268   2.763   6.680 -2.5978 -0.6966  1.6247
53328SOL     OW65946   6.567   7.863  11.397 -0.5908 -0.4146 -0.1505
53328SOL    HW165947   6.611   7.867  11.312 -0.7489 -0.6245 -0.2439
53328SOL    HW265948   6.529   7.950  11.408 -1.3127 -0.6444 -0.7017
53329SOL     OW65949   9.877   7.099   7.775 -0.1781 -0.2127 -0.5140
53329SOL    HW165950   9.941   7.165   7.748  0.0001 -0.5515 -0.9396
53329SOL    HW265951   9.798   7.149   7.795  0.3009  0.2440  0.3110
53330SOL     OW65952   8.874   3.858   2.023  0.4965 -0.4312  0.3536
53330SOL    HW165953   8.799   3.854   1.964  0.6484  1.3917 -0.0209
53330SOL    HW265954   8.950   3.845   1.966  0.5482 -0.5714  0.4543
53331SOL     OW65955  11.038   0.320   6.154 -0.2698 -0.2850 -0.6909
53331SOL    HW165956  11.036   0.226   6.135  0.6302 -0.8138  1.5353
53331SOL    HW265957  10.946   0.345   6.162 -0.5232 -0.9115 -1.5050
53332SOL     OW65958   8.279   0.714  12.210  0.0345  0.2121  0.0309
53332SOL    HW165959   8.300   0.793  12.161  1.1545 -0.1916 -0.1649
53332SOL    HW265960   8.338   0.647  12.175  0.0385 -0.3798  1.1077
53333SOL     OW65961  12.120   3.410   3.357 -0.0624  0.3496  0.6358
53333SOL    HW165962  12.157   3.403   3.445  1.6679  1.2726  0.0439
53333SOL    HW265963  12.165   3.342   3.307 -2.6684 -1.7164  0.8930
53334SOL     OW65964   5.603   9.681   1.080  0.6949  0.4723  0.3661
53334SOL    HW165965   5.620   9.705   1.171  1.3473 -0.0355  0.3887
53334SOL    HW265966   5.677   9.718   1.032  0.8945 -0.1409  0.1923
53335SOL     OW65967  11.411   8.491  11.961  0.5553  0.6243 -0.0650
53335SOL    HW165968  11.461   8.557  12.009 -0.6218  1.8975 -0.5100
53335SOL    HW265969  11.351   8.455  12.026 -1.0984  2.4101 -0.5168
53336SOL     OW65970   9.488  12.487   9.747  0.7243  0.4685  0.6806
53336SOL    HW165971   9.431  12.556   9.713  0.1135  0.6049  1.9331
53336SOL    HW265972   9.516  12.438   9.669 -2.5062 -0.7147  0.1246
53337SOL     OW65973  12.226   8.971   5.117 -0.2254 -0.0893  0.0267
53337SOL    HW165974  12.216   8.877   5.107  2.1741 -0.4357  0.1875
53337SOL    HW265975  12.221   9.005   5.027 -2.2795 -0.1542  0.0635
53338SOL     OW65976  11.455   8.693  10.261  0.0922 -0.1976 -0.3835
53338SOL    HW165977  11.525   8.745  10.303 -0.9182  0.6224  0.3512
53338SOL    HW265978  11.416   8.753  10.198 -1.2716  0.0681  0.6704
53339SOL     OW65979   6.160   9.386   5.124 -0.5751 -0.6047 -0.3449
53339SOL    HW165980   6.149   9.449   5.053  1.2667 -1.8480 -1.8325
53339SOL    HW265981   6.163   9.301   5.080 -2.0878 -1.6842  1.5157
53340SOL     OW65982   2.659   5.696   0.005 -0.4773  0.6072 -0.3058
53340SOL    HW165983   2.638   5.685   0.097  0.8810 -0.3774 -0.0871
53340SOL    HW265984   2.622   5.618  -0.038  0.1849  0.3084 -0.3497
53341SOL     OW65985  10.354   1.768   7.714  0.3484 -0.0764  0.3820
53341SOL    HW165986  10.294   1.717   7.769 -0.9648  2.3711  1.3663
53341SOL    HW265987  10.299   1.838   7.678  2.3233  1.4663  0.2167
53342SOL     OW65988   0.879   0.260   1.780 -0.4981 -0.2786  0.1034
53342SOL    HW165989   0.945   0.330   1.783  0.4279 -1.0754 -0.7294
53342SOL    HW265990   0.799   0.301   1.812  0.3353  0.8017  0.8996
53343SOL     OW65991  12.133   9.036   6.154  0.0403  0.0589  0.2504
53343SOL    HW165992  12.054   9.030   6.207 -0.4402  1.2427 -0.2865
53343SOL    HW265993  12.180   9.112   6.190 -0.1726  0.7274 -0.8370
53344SOL     OW65994   1.197   4.004   7.226  0.1226  0.0707 -0.7542
53344SOL    HW165995   1.283   4.024   7.189 -0.8993  3.6645 -1.6405
53344SOL    HW265996   1.187   4.066   7.298 -1.2219 -1.2336  0.2427
53345SOL     OW65997   4.132  11.237  12.075 -0.0824 -0.4075  0.0417
53345SOL    HW165998   4.196  11.255  12.144  0.2560  0.2326 -0.4260
53345SOL    HW265999   4.048  11.266  12.111  0.2315  0.7443 -0.1463
53346SOL     OW66000   1.011   0.906   4.573 -0.3470 -0.4177 -0.1754
53346SOL    HW166001   1.039   0.823   4.534  1.3219 -0.2869  0.6342
53346SOL    HW266002   0.922   0.919   4.541 -0.2029 -1.9079 -1.3009
53347SOL     OW66003   0.009   1.200   1.887 -0.1824 -0.2674  0.7265
53347SOL    HW166004   0.098   1.209   1.919 -0.8189  0.4400  2.4273
53347SOL    HW266005  -0.005   1.277   1.833 -0.1685  0.3278  1.5471
53348SOL     OW66006   1.127   4.629   5.007 -0.4317 -0.4441  0.8262
53348SOL    HW166007   1.209   4.602   5.049  0.9574 -0.6742 -1.8335
53348SOL    HW266008   1.125   4.580   4.925 -1.3776  2.3237 -0.9257
53349SOL     OW66009  11.634   6.189   5.931 -0.0233  0.0672  0.0368
53349SOL    HW166010  11.722   6.165   5.901  0.7346  1.7556  0.7624
53349SOL    HW266011  11.589   6.105   5.943  2.0984 -0.9723  1.4179
53350SOL     OW66012   0.873   5.050  12.441  0.2050 -0.1522 -0.1637
53350SOL    HW166013   0.904   4.995  12.369  2.3035 -2.4567  2.2723
53350SOL    HW266014   0.945   5.112  12.456 -0.4302  0.6381 -0.3282
53351SOL     OW66015  10.491   4.466   9.778  0.2455  0.0719  0.1193
53351SOL    HW166016  10.463   4.388   9.731  2.5959 -0.1967 -0.9774
53351SOL    HW266017  10.420   4.484   9.839 -1.0338 -2.0262 -0.6463
53352SOL     OW66018  11.173   1.051   0.063 -0.2382 -0.0341 -0.0879
53352SOL    HW166019  11.260   1.086   0.049  0.6601 -1.6771  1.0755
53352SOL    HW266020  11.151   1.074   0.153  0.1302 -1.8371  0.5102
53353SOL     OW66021  10.045   4.963  10.763  0.1025  0.4101  0.2591
53353SOL    HW166022  10.055   4.960  10.668 -2.7530  1.6575 -0.2029
53353SOL    HW266023  10.039   4.871  10.790  3.2293 -0.0770 -0.3383
53354SOL     OW66024  11.012   6.168   8.537 -0.3799 -0.0578  0.0809
53354SOL    HW166025  10.964   6.234   8.486  2.6817  1.1795 -1.4785
53354SOL    HW266026  11.019   6.206   8.624 -1.0144  0.3612 -0.0408
53355SOL     OW66027   6.951   3.930   8.293 -0.3529  0.0465 -0.7544
53355SOL    HW166028   6.876   3.968   8.338 -0.8802 -0.5284 -1.1394
53355SOL    HW266029   6.914   3.860   8.239  0.5278 -0.5883 -0.5469
53356SOL     OW66030   8.437   5.677   3.401 -0.1652 -0.2971  0.2183
53356SOL    HW166031   8.480   5.761   3.383  0.9987 -0.5333  1.6793
53356SOL    HW266032   8.388   5.657   3.321 -0.8297  1.9783 -0.0225
53357SOL     OW66033  10.494   8.010   5.587 -0.3436  0.5484 -0.4496
53357SOL    HW166034  10.473   8.070   5.658  1.6261  1.3625 -0.5102
53357SOL    HW266035  10.469   7.923   5.621 -0.8200  1.0875  0.6256
53358SOL     OW66036   6.657   1.802   8.351  0.2092 -0.0019  0.2962
53358SOL    HW166037   6.739   1.829   8.392  0.7182 -2.0545  0.7417
53358SOL    HW266038   6.605   1.766   8.423 -0.0468 -1.0454 -0.3926
53359SOL     OW66039   5.992   7.663   8.083 -0.0151  0.2918 -0.7941
53359SOL    HW166040   6.021   7.718   8.157  3.4532 -0.9964 -1.0170
53359SOL    HW266041   6.072   7.646   8.034 -1.7023 -1.5584 -3.0796
53360SOL     OW66042   2.042   7.091   4.865  0.2033 -0.1673 -0.3759
53360SOL    HW166043   2.025   7.140   4.945 -0.4407  0.7446 -1.0540
53360SOL    HW266044   2.123   7.129   4.830  0.6883 -0.8131  0.0118
53361SOL     OW66045   7.491   7.855  11.756 -0.1140  0.0333  0.3955
53361SOL    HW166046   7.415   7.886  11.806 -2.4345 -1.1144 -2.1393
53361SOL    HW266047   7.538   7.935  11.732 -0.6683  0.8129  1.7976
53362SOL     OW66048   2.517   4.807   7.954  0.1007 -0.0670 -0.1073
53362SOL    HW166049   2.536   4.727   8.004  0.4248 -0.2216 -0.4725
53362SOL    HW266050   2.600   4.854   7.952 -0.2259  0.5695  0.6032
53363SOL     OW66051   6.844   6.726  10.804 -0.1215 -0.1417 -0.1074
53363SOL    HW166052   6.822   6.709  10.896 -1.6210  1.6934 -0.0588
53363SOL    HW266053   6.767   6.697  10.756  0.2027 -0.0489 -0.6829
53364SOL     OW66054  10.070   8.210   6.912  0.3991 -0.0993  0.6182
53364SOL    HW166055   9.976   8.228   6.902  0.5751  0.0573 -1.1266
53364SOL    HW266056  10.080   8.184   7.003 -1.3891 -0.4245  0.7574
53365SOL     OW66057   5.030  11.808   1.270 -0.3222  0.3849  0.1383
53365SOL    HW166058   5.058  11.892   1.233 -1.9220  1.9116  2.1618
53365SOL    HW266059   5.111  11.758   1.280  0.6315  1.5024 -1.4358
53366SOL     OW66060   6.712   8.151   2.560 -0.7229 -0.3802  0.6246
53366SOL    HW166061   6.741   8.195   2.480  0.4953  0.0336  1.2762
53366SOL    HW266062   6.624   8.119   2.539  0.5412 -2.6381 -1.8074
53367SOL     OW66063   1.666   6.128   5.489  0.4940 -0.0284  0.1775
53367SOL    HW166064   1.579   6.137   5.449 -0.1896 -0.0300  1.5857
53367SOL    HW266065   1.708   6.213   5.474  0.7518 -0.4443 -1.5996
53368SOL     OW66066   5.292   7.467   5.402  0.5573 -0.9541  0.3450
53368SOL    HW166067   5.351   7.426   5.339 -1.0387 -0.8087 -1.3143
53368SOL    HW266068   5.257   7.543   5.356  0.0332 -0.3037  1.7623
53369SOL     OW66069   0.176   6.975   5.436 -0.2236 -0.0982 -0.2432
53369SOL    HW166070   0.246   6.959   5.373 -0.2572  1.1749 -0.6226
53369SOL    HW266071   0.190   6.909   5.504  1.5714  0.3845 -0.1027
53370SOL     OW66072   8.021   2.637   2.021  0.2471 -0.5009 -0.2442
53370SOL    HW166073   7.930   2.668   2.026  0.3882 -0.2092  0.7676
53370SOL    HW266074   8.064   2.679   2.096  1.1585 -0.8256 -0.5797
53371SOL     OW66075  11.605   1.567   4.163  0.0352 -0.0240  0.2649
53371SOL    HW166076  11.527   1.560   4.109  0.0644 -0.6153  0.2994
53371SOL    HW266077  11.646   1.480   4.159  0.8518  0.3552  0.0014
53372SOL     OW66078  11.619  12.409   0.786 -0.6840  0.6881 -0.1603
53372SOL    HW166079  11.685  12.413   0.717 -1.4370  2.1633 -0.8507
53372SOL    HW266080  11.545  12.364   0.745 -0.3190 -0.5052  0.4489
53373SOL     OW66081   9.077  11.271   2.038 -0.2286 -0.1076 -0.2407
53373SOL    HW166082   9.103  11.290   2.128 -0.4902  0.9524 -0.3810
53373SOL    HW266083   9.039  11.352   2.006  2.5181  0.5531 -2.2698
53374SOL     OW66084   9.254  10.857   5.401 -0.3744  0.2080 -0.0343
53374SOL    HW166085   9.167  10.822   5.382 -0.1020 -0.9471  0.7302
53374SOL    HW266086   9.246  10.895   5.489 -0.1257  0.1268  0.0260
53375SOL     OW66087   2.971   7.094   0.913 -0.3675  0.1633  0.1776
53375SOL    HW166088   3.038   7.088   0.981  0.0908 -2.2081 -0.3851
53375SOL    HW266089   2.924   7.175   0.933  1.0122  0.5709  2.1140
53376SOL     OW66090   0.028   9.868  11.311  0.3650 -0.4016  0.5453
53376SOL    HW166091  -0.042   9.850  11.248  0.5068 -0.4886  0.4109
53376SOL    HW266092   0.077   9.940  11.272  0.3467 -0.3362  0.6423
53377SOL     OW66093   3.764  12.151   8.997 -0.4868 -0.2643 -0.1940
53377SOL    HW166094   3.688  12.131   9.052  0.6735  0.2358  1.7073
53377SOL    HW266095   3.838  12.115   9.045  0.5946  0.1191 -1.5113
53378SOL     OW66096  12.414   0.352   5.565  0.0485 -0.1762  0.6676
53378SOL    HW166097  12.320   0.360   5.584 -0.1414  1.1718 -0.6320
53378SOL    HW266098  12.429   0.412   5.492  1.3859 -2.3632 -1.0048
53379SOL     OW66099   1.012   1.966   4.101 -0.0045 -0.1581  0.0172
53379SOL    HW166100   0.942   1.901   4.110 -0.4948  0.2974 -0.3608
53379SOL    HW266101   1.076   1.924   4.043 -1.1383  0.3138 -1.6724
53380SOL     OW66102   4.630   4.429   0.819 -0.1517  0.2602 -0.2230
53380SOL    HW166103   4.634   4.340   0.785 -1.5468 -0.7720  2.0403
53380SOL    HW266104   4.546   4.463   0.789 -0.1453  0.3785 -0.1090
53381SOL     OW66105   2.193   3.412   4.035 -0.2004 -0.2319  0.1956
53381SOL    HW166106   2.153   3.331   4.001 -0.9077 -0.9374  2.4799
53381SOL    HW266107   2.129   3.480   4.014 -1.4698 -0.9363  1.5094
53382SOL     OW66108   6.907  12.329   6.860  0.1152 -0.5961 -0.4926
53382SOL    HW166109   6.833  12.272   6.836  1.0764 -0.6775 -3.7658
53382SOL    HW266110   6.866  12.405   6.901 -1.8071 -0.7926 -1.8849
53383SOL     OW66111  11.366   7.014  11.556 -0.0532 -0.3486  0.6198
53383SOL    HW166112  11.308   6.972  11.493  2.1997 -1.0168 -1.1455
53383SOL    HW266113  11.376   6.949  11.627 -0.1021 -0.9407  0.0916
53384SOL     OW66114   4.526   4.754   7.789  0.5050  0.1029 -0.2987
53384SOL    HW166115   4.452   4.766   7.729 -1.8561 -2.8647  1.6883
53384SOL    HW266116   4.519   4.828   7.850 -0.0321  0.5789 -0.9220
53385SOL     OW66117   4.085   9.727  12.269  0.0910  0.3738 -0.6215
53385SOL    HW166118   4.028   9.798  12.240 -0.2304  0.4179  0.0914
53385SOL    HW266119   4.174   9.764  12.266 -0.0559  0.7484 -0.4382
53386SOL     OW66120  12.223   8.173   1.637 -0.1742 -0.7960  0.1821
53386SOL    HW166121  12.285   8.115   1.593  0.5087 -0.5237  0.7636
53386SOL    HW266122  12.277   8.225   1.697 -0.4408  1.7666 -1.6007
53387SOL     OW66123   3.546  11.715  11.109  0.5305  0.1030  0.0409
53387SOL    HW166124   3.453  11.720  11.128  0.2535 -2.9575  0.0104
53387SOL    HW266125   3.587  11.698  11.193  0.5011 -2.6370 -0.3875
53388SOL     OW66126   0.451   9.635   1.452  0.0162 -0.2265  0.1963
53388SOL    HW166127   0.428   9.545   1.477  1.5865 -0.7089  0.0305
53388SOL    HW266128   0.415   9.646   1.364  0.7209 -1.0838 -0.2142
53389SOL     OW66129   9.055   7.233  11.713 -0.4625 -0.0665 -0.1455
53389SOL    HW166130   9.085   7.306  11.768 -1.2778 -0.4642  0.8663
53389SOL    HW266131   8.972   7.264  11.676 -0.5940 -0.3225 -0.0654
53390SOL     OW66132   5.408   4.935  11.324  0.2080 -0.4421  0.2806
53390SOL    HW166133   5.496   4.970  11.335  1.6311 -2.3104 -3.3228
53390SOL    HW266134   5.420   4.840  11.330 -1.5034 -0.7391 -0.4765
53391SOL     OW66135   9.666  10.297  11.075 -0.3402 -0.1583 -0.1844
53391SOL    HW166136   9.692  10.378  11.032  2.4381 -0.9594 -0.1667
53391SOL    HW266137   9.675  10.230  11.007  1.0712 -0.9684  0.7476
53392SOL     OW66138   4.402   5.000   8.858  0.2424  0.0888 -0.8233
53392SOL    HW166139   4.342   5.026   8.927  0.0458 -3.0963  0.3828
53392SOL    HW266140   4.349   4.998   8.779 -0.0654  1.6330 -0.6848
53393SOL     OW66141   7.660   9.028  10.455 -0.2166 -0.7882  0.8773
53393SOL    HW166142   7.670   8.935  10.475 -0.3689 -0.8580  0.6311
53393SOL    HW266143   7.623   9.030  10.367  2.0019 -0.4601 -0.0966
53394SOL     OW66144   9.582   0.131   9.176 -0.5139  0.6678 -0.5842
53394SOL    HW166145   9.658   0.170   9.132 -0.5369  2.7030  1.0006
53394SOL    HW266146   9.588   0.163   9.266 -2.8850  0.3420 -0.2517
53395SOL     OW66147   2.901   7.788   3.257 -0.0885  0.5598  0.1829
53395SOL    HW166148   2.845   7.861   3.229 -1.7570 -0.9991 -0.7475
53395SOL    HW266149   2.848   7.742   3.323  1.2269  0.5505  1.2830
53396SOL     OW66150  10.630   6.417  11.871  0.2277 -0.2005 -0.1566
53396SOL    HW166151  10.726   6.420  11.875  0.2964 -1.7036  0.2466
53396SOL    HW266152  10.607   6.470  11.795  1.2765  1.3033  0.5329
53397SOL     OW66153  10.265   4.050   5.265 -0.2456  0.5516  0.0057
53397SOL    HW166154  10.221   3.965   5.257  0.5767 -0.0036  1.0876
53397SOL    HW266155  10.215   4.097   5.332 -1.0070  1.1510 -0.9511
53398SOL     OW66156  11.023   2.949   3.377 -0.3401  0.0791 -0.0105
53398SOL    HW166157  11.104   2.945   3.426 -0.5213  0.8298  0.3726
53398SOL    HW266158  11.038   3.019   3.312 -0.2219 -0.6647 -0.8006
53399SOL     OW66159  10.746   9.506   0.944 -0.5705 -0.0761  0.2906
53399SOL    HW166160  10.787   9.574   0.998 -1.8734  0.7870  0.2569
53399SOL    HW266161  10.679   9.553   0.894 -1.8095 -1.4372  0.5891
53400SOL     OW66162  11.083   6.856   1.408  0.3514  0.5586  0.0191
53400SOL    HW166163  11.009   6.796   1.411  1.4387 -0.9360 -1.3244
53400SOL    HW266164  11.105   6.873   1.499 -1.2084  0.5118  0.4242
53401SOL     OW66165   7.647   1.595   2.914  0.8044 -0.2665  0.5588
53401SOL    HW166166   7.694   1.515   2.893 -0.7036 -0.8714 -0.6972
53401SOL    HW266167   7.585   1.606   2.842  0.3711  1.5642  1.1482
53402SOL     OW66168   1.462   2.822   2.218 -0.1458 -0.3962  0.6820
53402SOL    HW166169   1.430   2.862   2.137 -0.0466  1.2914  1.4330
53402SOL    HW266170   1.400   2.852   2.285 -0.2259 -1.7670  1.2619
53403SOL     OW66171   2.375   9.785   8.868 -0.4863  0.2313 -0.6855
53403SOL    HW166172   2.316   9.811   8.798 -1.6144 -0.5120 -0.0379
53403SOL    HW266173   2.322   9.787   8.948 -0.6852 -3.6958 -0.5173
53404SOL     OW66174   8.079   3.369   4.218 -0.1500  1.0318 -0.5134
53404SOL    HW166175   7.995   3.332   4.192  0.1182  0.3796 -0.4925
53404SOL    HW266176   8.078   3.367   4.314  0.8880 -1.4384 -0.4707
53405SOL     OW66177  11.222   6.289  11.235 -0.3661  0.6391 -0.3333
53405SOL    HW166178  11.192   6.355  11.173  0.2348  0.8125 -0.4447
53405SOL    HW266179  11.141   6.254  11.273 -0.6793  2.0893  0.4183
53406SOL     OW66180   4.042   2.598   4.757  0.1342 -0.1589  0.3366
53406SOL    HW166181   3.995   2.666   4.805  2.5331  1.6603  0.3197
53406SOL    HW266182   4.054   2.634   4.669 -0.9860 -1.8766 -0.5874
53407SOL     OW66183   4.332   2.247   7.895 -0.3424  0.4283 -0.0618
53407SOL    HW166184   4.247   2.254   7.851 -0.5520 -0.4605  0.1821
53407SOL    HW266185   4.357   2.156   7.883 -0.1239  0.3136  1.1530
53408SOL     OW66186   6.959   7.656  11.646 -0.3956  0.0226 -0.0459
53408SOL    HW166187   6.990   7.731  11.698 -1.1121 -0.3510  0.9460
53408SOL    HW266188   6.949   7.692  11.557  1.3878  0.5317 -0.0983
53409SOL     OW66189   5.278   9.015   4.297 -0.3992  0.2417 -0.0884
53409SOL    HW166190   5.245   9.105   4.294  1.7150  1.0800 -0.3146
53409SOL    HW266191   5.244   8.979   4.379  1.6298  2.5462  1.9254
53410SOL     OW66192   8.169   7.894  10.727 -0.1970 -0.1716 -0.2199
53410SOL    HW166193   8.086   7.924  10.691 -0.5144  0.4032  0.9577
53410SOL    HW266194   8.148   7.863  10.815  0.1951 -3.4997 -1.1541
53411SOL     OW66195  11.382   1.150   7.620 -0.0662 -0.0326 -0.4939
53411SOL    HW166196  11.291   1.151   7.590  0.4123 -2.6896 -2.3946
53411SOL    HW266197  11.425   1.218   7.568 -0.8833  1.1491  0.3230
53412SOL     OW66198   0.395   0.142   6.239  0.0071 -0.5344  0.0144
53412SOL    HW166199   0.436   0.164   6.322 -1.0303 -1.4036  0.7875
53412SOL    HW266200   0.433   0.203   6.176  1.1090 -0.1337  1.0408
53413SOL     OW66201   5.823   5.200  10.442 -0.2305 -0.4387 -0.1125
53413SOL    HW166202   5.819   5.203  10.537  0.7736  0.9101 -0.0866
53413SOL    HW266203   5.889   5.264  10.418  1.1169 -2.2521 -1.6217
53414SOL     OW66204   1.810   5.264   0.796 -0.1795  0.3189  0.3233
53414SOL    HW166205   1.752   5.197   0.760  0.2624  0.1717 -0.1192
53414SOL    HW266206   1.849   5.306   0.719  0.1637  0.5395  0.6150
53415SOL     OW66207   5.745   6.286   2.585 -0.1210 -0.1654  0.4477
53415SOL    HW166208   5.715   6.268   2.496  0.8838 -2.9269  0.5675
53415SOL    HW266209   5.770   6.200   2.620  1.4790  1.0912  2.6728
53416SOL     OW66210   3.755   3.208   8.067 -0.1296 -0.0781 -0.4780
53416SOL    HW166211   3.700   3.140   8.029 -0.0039 -0.0870 -0.6442
53416SOL    HW266212   3.819   3.229   7.999 -1.4808  1.7485 -1.2480
53417SOL     OW66213   9.212   1.492   5.878  0.5830 -0.0578  0.3696
53417SOL    HW166214   9.226   1.408   5.921 -0.0406 -0.0950  0.4972
53417SOL    HW266215   9.232   1.557   5.946 -0.9446 -0.1184  0.8993
53418SOL     OW66216   9.316   2.096   4.368 -0.4212  0.2343 -0.8958
53418SOL    HW166217   9.382   2.072   4.304 -0.1380  0.9483 -0.8860
53418SOL    HW266218   9.303   2.018   4.421  2.4023  0.8225  0.8695
53419SOL     OW66219   7.633   7.452  11.617 -0.3379  0.0253  0.8250
53419SOL    HW166220   7.549   7.492  11.594 -0.9096 -0.7647  1.5113
53419SOL    HW266221   7.618   7.409  11.700 -0.3750 -3.4475 -0.8009
53420SOL     OW66222  12.266   5.530   3.647 -0.0399 -0.2957 -0.2572
53420SOL    HW166223  12.183   5.578   3.646  1.1390  1.8874 -1.0167
53420SOL    HW266224  12.282   5.508   3.555  0.7765  0.4012 -0.2976
53421SOL     OW66225   0.320   0.120  11.977  0.2793 -0.4265  0.2275
53421SOL    HW166226   0.361   0.041  12.013  0.3422 -1.0081 -1.0545
53421SOL    HW266227   0.309   0.178  12.053  0.7061 -1.4535  1.1079
53422SOL     OW66228   7.671   3.426  11.726  0.3019  0.3200 -0.6458
53422SOL    HW166229   7.599   3.458  11.780 -0.4940 -2.5184  0.1305
53422SOL    HW266230   7.743   3.487  11.743 -1.0104  1.5548  0.8085
53423SOL     OW66231   0.009   6.481  10.342  0.0173  0.4470 -0.4872
53423SOL    HW166232   0.103   6.463  10.354 -0.3568 -1.5667 -0.1940
53423SOL    HW266233  -0.006   6.469  10.248 -0.6331 -3.5517 -0.0629
53424SOL     OW66234   8.143  12.211  10.762 -0.1926  0.2318 -0.7638
53424SOL    HW166235   8.211  12.145  10.772 -1.1417 -0.8784 -1.3571
53424SOL    HW266236   8.177  12.272  10.697  1.6646  1.6817  1.4299
53425SOL     OW66237   4.962   0.469   9.606 -0.1014 -0.6561 -0.4255
53425SOL    HW166238   4.958   0.427   9.520  0.1182 -1.7112  0.0759
53425SOL    HW266239   5.054   0.462   9.632 -0.3202 -1.0433  0.2468
53426SOL     OW66240   6.491   4.085   7.707 -0.0527 -0.6002  0.2828
53426SOL    HW166241   6.465   4.048   7.623  0.2833 -0.3117  0.0464
53426SOL    HW266242   6.578   4.122   7.690  0.3419 -1.2022  0.9488
53427SOL     OW66243  10.826   3.129   2.524  0.0122 -0.8819  0.1871
53427SOL    HW166244  10.811   3.223   2.514 -0.0637 -0.8673  0.4286
53427SOL    HW266245  10.873   3.104   2.444 -0.5362 -0.7658 -0.1765
53428SOL     OW66246   1.790  10.539   7.325 -0.4534  0.1498  0.5731
53428SOL    HW166247   1.812  10.621   7.368 -1.1076  0.4665  0.3136
53428SOL    HW266248   1.695  10.532   7.333 -0.6202  0.3115 -0.9625
53429SOL     OW66249   0.938   2.756   6.041  0.2250 -0.1548 -0.0084
53429SOL    HW166250   1.013   2.715   5.999  0.7885  1.2068 -0.3963
53429SOL    HW266251   0.962   2.849   6.047 -0.6091 -0.0205  1.6790
53430SOL     OW66252   1.692  11.749  10.348  0.6057 -0.1446 -0.0513
53430SOL    HW166253   1.730  11.670  10.386  0.3463 -0.2206  0.0529
53430SOL    HW266254   1.747  11.768  10.272  1.8268  0.6619  0.9973
53431SOL     OW66255   1.458   4.049  11.109  0.3197 -0.3703 -0.0575
53431SOL    HW166256   1.483   3.977  11.166 -0.7082 -0.0473  0.8371
53431SOL    HW266257   1.541   4.080  11.071  0.6669 -2.7433 -1.4034
53432SOL     OW66258   5.482   8.472   2.816 -0.1162  0.3879 -0.7031
53432SOL    HW166259   5.451   8.390   2.854 -1.2842  1.1267 -0.0153
53432SOL    HW266260   5.469   8.461   2.722  0.5479 -0.5390 -0.7003
53433SOL     OW66261   5.122   4.694  10.733  0.0636  0.6570 -0.0582
53433SOL    HW166262   5.104   4.629  10.666 -0.4476  1.2105 -0.4670
53433SOL    HW266263   5.210   4.726  10.713 -0.2275  1.0749 -0.6776
53434SOL     OW66264  10.631   6.020   1.918 -0.5229  0.2413 -0.6987
53434SOL    HW166265  10.624   6.087   1.850  2.0289 -0.8033 -2.1424
53434SOL    HW266266  10.603   5.939   1.875 -1.2660 -0.0413  0.2834
53435SOL     OW66267   4.474   8.293   9.928  0.3621 -0.6804 -0.2060
53435SOL    HW166268   4.458   8.224   9.993  1.3846  0.7693  1.7105
53435SOL    HW266269   4.558   8.270   9.889  1.1575 -0.1134  1.0896
53436SOL     OW66270   4.422   8.464  12.107  0.0863 -0.3518  0.1423
53436SOL    HW166271   4.512   8.438  12.088  0.4886  0.3171  1.0962
53436SOL    HW266272   4.396   8.516  12.031  1.3678  1.5161  0.8975
53437SOL     OW66273  11.299   4.794   7.182  0.4733  0.0330  0.5214
53437SOL    HW166274  11.251   4.796   7.265  0.5208  1.8874  0.5325
53437SOL    HW266275  11.302   4.701   7.158 -3.1067 -0.2203  0.5410
53438SOL     OW66276  11.983   3.969   9.314 -0.3165  0.3226 -0.0569
53438SOL    HW166277  12.051   3.952   9.379 -1.3238  0.4458  1.0648
53438SOL    HW266278  11.955   3.882   9.285  0.0752  0.2647 -0.2672
53439SOL     OW66279   1.061   8.132  11.469  0.8569  0.5435 -0.6257
53439SOL    HW166280   0.993   8.192  11.437  0.0167  0.7599  1.4593
53439SOL    HW266281   1.016   8.049  11.482  0.4581  1.1258  2.4249
53440SOL     OW66282   7.448  11.824  10.337 -0.5803  0.2193  0.0564
53440SOL    HW166283   7.519  11.864  10.288  1.3326 -2.8746  0.0276
53440SOL    HW266284   7.473  11.834  10.429  2.3524 -4.3083  0.0785
53441SOL     OW66285  10.897   2.312   4.540  0.4356 -0.6403  0.3474
53441SOL    HW166286  10.811   2.273   4.558  0.5191 -0.8210  0.3575
53441SOL    HW266287  10.958   2.239   4.546  0.7070 -0.3486  1.2630
53442SOL     OW66288   8.411   5.752   0.528 -0.1383  0.1961 -0.2277
53442SOL    HW166289   8.351   5.807   0.578  0.6318  1.1461 -0.3161
53442SOL    HW266290   8.462   5.814   0.476 -0.9335 -0.7655 -2.2416
53443SOL     OW66291   5.954   1.371   0.776  0.7611  0.5604 -0.8809
53443SOL    HW166292   6.024   1.429   0.747  2.1511 -0.2231  0.7487
53443SOL    HW266293   5.884   1.430   0.805  1.4365  1.3849 -0.9005
53444SOL     OW66294  10.303   4.691   1.190  0.1453 -0.4244 -0.1783
53444SOL    HW166295  10.294   4.597   1.203  1.9443 -0.6317 -0.1954
53444SOL    HW266296  10.275   4.729   1.273 -0.2934 -0.9983 -0.0600
53445SOL     OW66297   2.567   3.527  10.781  0.5197 -0.5479  0.2023
53445SOL    HW166298   2.593   3.471  10.708  0.2089 -1.5619  0.8502
53445SOL    HW266299   2.635   3.515  10.847 -0.0417 -0.9137  0.7254
53446SOL     OW66300   9.570   7.807   0.385 -0.6458  0.4247  0.5073
53446SOL    HW166301   9.538   7.828   0.472  1.4590  0.8209  1.2286
53446SOL    HW266302   9.639   7.742   0.399  0.1225  0.9062 -0.7820
53447SOL     OW66303   2.054   9.833   4.425  0.5900 -0.0246  0.5361
53447SOL    HW166304   2.008   9.917   4.425  2.3420  1.1085 -2.6811
53447SOL    HW266305   2.138   9.851   4.466  0.8740 -0.2339  0.0573
53448SOL     OW66306   1.397   9.885   8.059 -0.5347  0.2584 -0.1325
53448SOL    HW166307   1.422   9.892   7.967 -0.0117 -3.9767 -0.5004
53448SOL    HW266308   1.480   9.880   8.106 -0.7930  0.6823  0.3789
53449SOL     OW66309   2.552   2.817   4.650 -0.5365  0.3249  0.6866
53449SOL    HW166310   2.647   2.822   4.661 -0.5157 -0.7344  1.0696
53449SOL    HW266311   2.538   2.823   4.556 -0.2253  2.2544  0.7275
53450SOL     OW66312   0.883   5.664   3.031 -0.3551 -0.2009 -0.3729
53450SOL    HW166313   0.851   5.617   3.107 -1.6548  1.9347  0.4879
53450SOL    HW266314   0.959   5.714   3.064 -1.5299  1.5207 -0.1367
53451SOL     OW66315  10.305   1.798   1.162 -0.1882 -0.2133 -0.2976
53451SOL    HW166316  10.396   1.822   1.179  0.7097 -3.4359  0.2277
53451SOL    HW266317  10.291   1.822   1.071  1.6369 -0.7100 -0.7633
53452SOL     OW66318   8.704   3.344  10.112  0.2153  0.5310  0.6875
53452SOL    HW166319   8.707   3.333  10.017  1.4617  0.4268  0.7251
53452SOL    HW266320   8.626   3.397  10.128 -0.7576 -0.5616 -0.2791
53453SOL     OW66321   1.399  11.781   5.537 -0.1684  0.3077 -0.4164
53453SOL    HW166322   1.370  11.844   5.470 -0.7683 -0.8232 -1.2494
53453SOL    HW266323   1.494  11.789   5.538 -0.1605  0.4031 -1.3445
53454SOL     OW66324   1.333   5.480   6.067 -0.0852  0.2212 -0.8126
53454SOL    HW166325   1.336   5.437   5.982  0.3849 -2.5481  0.4767
53454SOL    HW266326   1.407   5.540   6.067  0.7478 -0.7793 -1.8722
53455SOL     OW66327  10.938   8.284  10.122 -0.4560 -0.2889 -0.7756
53455SOL    HW166328  10.874   8.219  10.153 -0.1293 -0.0484  0.4675
53455SOL    HW266329  11.022   8.237  10.123 -0.3719 -0.1391 -0.8471
53456SOL     OW66330   9.594   3.604   0.672 -0.3490 -0.1569 -0.3208
53456SOL    HW166331   9.606   3.652   0.590  0.7652 -0.4056 -0.3167
53456SOL    HW266332   9.563   3.670   0.734 -0.2441  0.2434 -0.6868
53457SOL     OW66333   1.244   9.714   3.018  0.4823  0.9000 -0.1065
53457SOL    HW166334   1.294   9.793   2.997  0.1146  1.3277  0.6198
53457SOL    HW266335   1.310   9.652   3.050  1.0840  0.2030 -2.4494
53458SOL     OW66336   0.318   9.143   1.658  0.6893  0.0529  0.0240
53458SOL    HW166337   0.352   9.224   1.698  1.6510 -0.3274 -0.0035
53458SOL    HW266338   0.396   9.089   1.645  0.1182 -0.6462 -0.4965
53459SOL     OW66339   1.996   1.303   0.918  0.1784 -0.1740 -0.2147
53459SOL    HW166340   1.910   1.262   0.911 -0.3413  0.8520 -0.0195
53459SOL    HW266341   2.057   1.233   0.897 -0.5938 -1.5107  1.6719
53460SOL     OW66342   5.115  10.853   4.503  0.1796  0.3474 -0.0635
53460SOL    HW166343   5.149  10.861   4.414  1.8094 -0.3775  0.4554
53460SOL    HW266344   5.106  10.944   4.533 -2.6380  0.7202 -1.7086
53461SOL     OW66345  11.976   4.977  11.786 -0.4519  0.1542  0.1447
53461SOL    HW166346  11.892   5.013  11.757  0.2031  1.5391 -0.1240
53461SOL    HW266347  11.953   4.916  11.856 -1.9041 -1.7154 -1.8392
53462SOL     OW66348  11.634   6.920   9.778  0.1811  0.0589 -0.1290
53462SOL    HW166349  11.634   6.865   9.700  0.5717  0.6080 -0.5255
53462SOL    HW266350  11.693   6.993   9.756  1.3878 -0.4641  1.1600
53463SOL     OW66351   8.960   2.030   6.309  0.0231 -0.6678 -0.6907
53463SOL    HW166352   9.043   2.077   6.305 -0.6716  0.6027 -0.7801
53463SOL    HW266353   8.977   1.946   6.266  1.5777 -0.9451  0.3904
53464SOL     OW66354   5.065   8.604  12.140 -0.0795  0.6989  0.5864
53464SOL    HW166355   5.118   8.683  12.139  1.4556 -0.2639  1.1542
53464SOL    HW266356   5.110   8.545  12.201 -0.8662 -0.7941 -0.1943
53465SOL     OW66357  12.377   5.544   9.753  0.3951  0.0727  0.2081
53465SOL    HW166358  12.402   5.471   9.810 -1.3848 -0.3352  0.5038
53465SOL    HW266359  12.432   5.617   9.783  2.1333 -1.0592 -0.0282
53466SOL     OW66360   5.790   4.300   9.778 -0.3864  0.2323 -0.4868
53466SOL    HW166361   5.808   4.256   9.694 -1.1348 -0.6998 -0.1751
53466SOL    HW266362   5.831   4.243   9.844 -0.9929  0.2216 -0.1142
53467SOL     OW66363   2.376   0.018   9.404  0.0396 -0.0854 -0.2998
53467SOL    HW166364   2.327  -0.048   9.355 -0.0107 -0.1591 -0.1485
53467SOL    HW266365   2.313   0.088   9.419  0.3367  0.4078 -1.2613
53468SOL     OW66366  10.880   9.735   1.044  0.1530 -0.8395  0.3757
53468SOL    HW166367  10.940   9.787   0.991 -0.6249  1.1747  1.3496
53468SOL    HW266368  10.938   9.683   1.101  1.0007  0.2314  0.5376
53469SOL     OW66369   7.595   6.175   7.022  0.3647  0.4494  0.2907
53469SOL    HW166370   7.559   6.224   6.948  0.2754  0.8089  0.5709
53469SOL    HW266371   7.610   6.086   6.987  0.1520  0.5669 -0.1038
53470SOL     OW66372   6.923   6.717   5.316 -0.8988 -0.4064 -0.2484
53470SOL    HW166373   6.926   6.755   5.403  0.5420  0.9289 -0.8278
53470SOL    HW266374   7.008   6.674   5.306 -1.2112 -0.9017 -0.8392
53471SOL     OW66375  10.268   3.077   7.310  0.4368  0.2060 -0.0230
53471SOL    HW166376  10.301   3.105   7.395 -0.3774 -0.9317  0.7063
53471SOL    HW266377  10.316   2.996   7.291  1.0072  0.7413 -0.9219
53472SOL     OW66378   0.762   5.283   3.488 -0.0637  0.3734  0.2900
53472SOL    HW166379   0.695   5.229   3.447 -0.5081  1.7425 -0.8625
53472SOL    HW266380   0.775   5.356   3.427 -0.1389  2.0617  2.1818
53473SOL     OW66381   4.887   0.310   7.106  0.7872  0.3643  0.3957
53473SOL    HW166382   4.795   0.301   7.132  0.3261  3.7037  0.4248
53473SOL    HW266383   4.883   0.355   7.021  2.3534  1.2234  0.7424
53474SOL     OW66384   2.838   6.659  10.990 -0.2097  0.2869 -0.2549
53474SOL    HW166385   2.745   6.661  11.012 -0.3420 -1.2582 -0.5751
53474SOL    HW266386   2.864   6.751  10.990 -2.3644  1.0208 -2.8452
53475SOL     OW66387   3.837   8.833  11.744 -0.3104 -0.6368 -0.2131
53475SOL    HW166388   3.836   8.898  11.814  0.0663 -1.5142  0.6319
53475SOL    HW266389   3.883   8.759  11.782 -1.3870 -1.6858 -0.8949
53476SOL     OW66390   0.297   4.514   3.760  0.0270 -0.2866  0.1965
53476SOL    HW166391   0.289   4.483   3.850  0.5213 -0.2836  0.2478
53476SOL    HW266392   0.392   4.519   3.745 -0.0488  0.2170 -0.1458
53477SOL     OW66393   2.023   6.639  11.244 -0.0348 -0.3102 -0.0399
53477SOL    HW166394   2.068   6.614  11.325  0.1420  1.8709  0.6088
53477SOL    HW266395   2.078   6.709  11.207 -0.2289 -1.0967 -1.9634
53478SOL     OW66396   8.369   0.823   2.990 -0.6560 -0.5751 -0.5074
53478SOL    HW166397   8.449   0.793   2.946  1.3469 -0.1001  2.5412
53478SOL    HW266398   8.350   0.756   3.055  0.6762  1.8254  2.6263
53479SOL     OW66399   6.078  10.357   1.743  0.4783 -0.0175  0.5406
53479SOL    HW166400   6.024  10.434   1.761  0.9678  0.4497  0.0378
53479SOL    HW266401   6.015  10.287   1.727  0.0289  0.2953  0.9025
53480SOL     OW66402   1.312   6.223   5.612 -0.8377 -0.4911  0.0886
53480SOL    HW166403   1.217   6.219   5.616 -0.8834 -1.2101 -1.2745
53480SOL    HW266404   1.341   6.133   5.626 -0.4724 -0.6534 -1.5027
53481SOL     OW66405   6.822  10.852  11.278  0.0221 -0.3195 -0.3900
53481SOL    HW166406   6.761  10.922  11.253  0.4442  0.7925  1.5250
53481SOL    HW266407   6.907  10.882  11.246  0.0714 -0.3376 -0.2760
53482SOL     OW66408  10.072   5.605   5.791 -0.4602  0.2835 -0.2357
53482SOL    HW166409  10.119   5.645   5.718  0.4043 -0.2494  0.0112
53482SOL    HW266410  10.009   5.671   5.819 -1.8752 -0.0474 -2.4149
53483SOL     OW66411   1.502   5.094   8.244  0.2930 -0.2795  0.1039
53483SOL    HW166412   1.560   5.162   8.210  0.1284  1.0475  2.2762
53483SOL    HW266413   1.441   5.076   8.173  1.6588  0.2840 -1.2538
53484SOL     OW66414   0.620   5.434   5.602 -0.0194  0.7971  0.2549
53484SOL    HW166415   0.550   5.427   5.536  1.1990 -0.6373 -0.9374
53484SOL    HW266416   0.670   5.354   5.593  1.8145  1.7948  1.0745
53485SOL     OW66417   3.124  10.227   1.202 -0.4592  0.3186 -0.5835
53485SOL    HW166418   3.203  10.195   1.245  0.4097  0.1571 -2.2034
53485SOL    HW266419   3.056  10.164   1.227 -0.3128  0.9324  1.5074
53486SOL     OW66420  11.454   2.653  11.545  0.4336 -0.4868  0.6226
53486SOL    HW166421  11.380   2.712  11.561  1.0685  0.3109  0.7099
53486SOL    HW266422  11.494   2.640  11.631 -0.1265 -1.6473  0.7242
53487SOL     OW66423  11.930  11.948   3.474  0.0639 -0.2255 -0.3212
53487SOL    HW166424  11.934  11.928   3.381  1.4122  1.8296 -0.7606
53487SOL    HW266425  11.846  11.991   3.487 -0.3715 -1.0181 -0.4526
53488SOL     OW66426   8.165   4.691   9.745  0.0949 -0.4862 -0.4796
53488SOL    HW166427   8.226   4.715   9.815  0.5872 -1.0323 -0.7079
53488SOL    HW266428   8.138   4.774   9.707 -0.2671 -0.1822  0.4328
53489SOL     OW66429   7.145   8.480   3.494 -0.0169 -0.2486 -0.0512
53489SOL    HW166430   7.224   8.459   3.545  0.5299 -1.5043 -1.3333
53489SOL    HW266431   7.078   8.422   3.530  0.2809 -0.8954 -0.5188
53490SOL     OW66432   0.542   9.524   3.060 -0.5079  1.0260 -0.0543
53490SOL    HW166433   0.493   9.585   3.005 -0.9914 -0.5869 -1.4616
53490SOL    HW266434   0.520   9.437   3.027  0.8020  0.0883  1.3721
53491SOL     OW66435  12.419   0.796   8.820  0.2368  0.2284  0.1504
53491SOL    HW166436  12.364   0.757   8.752  0.3273  1.9070 -0.9693
53491SOL    HW266437  12.433   0.727   8.884 -1.1035 -0.9651 -0.8055
53492SOL     OW66438   3.391   1.031   3.045 -0.4658 -0.2274 -0.4711
53492SOL    HW166439   3.362   0.961   2.987 -0.2961 -0.7579  0.0799
53492SOL    HW266440   3.365   1.112   3.000 -0.4207 -0.6327 -1.2378
53493SOL     OW66441   1.133   3.254   4.226  0.5042  0.3122  0.1314
53493SOL    HW166442   1.160   3.204   4.303  0.5748 -0.0340 -0.1114
53493SOL    HW266443   1.074   3.195   4.180 -0.7291  1.0756  0.6838
53494SOL     OW66444   1.731   9.588   4.119 -0.4455 -0.7244  0.0920
53494SOL    HW166445   1.722   9.560   4.028  0.4144 -0.2905 -0.1389
53494SOL    HW266446   1.704   9.512   4.170 -0.4742 -1.1386 -0.5297
53495SOL     OW66447  11.745   3.807   3.274 -0.8750  0.2080 -0.0348
53495SOL    HW166448  11.676   3.789   3.209 -1.3139  0.0864  0.4589
53495SOL    HW266449  11.698   3.842   3.349 -0.2614  1.2955 -0.1412
53496SOL     OW66450   6.477  10.200   3.585  0.4555 -0.1215  0.3892
53496SOL    HW166451   6.542  10.206   3.655 -0.1508  0.9397  0.8772
53496SOL    HW266452   6.528  10.210   3.504  1.1736 -1.4634  0.6450
53497SOL     OW66453   8.554   7.115   8.966  0.4407 -0.5472 -0.1891
53497SOL    HW166454   8.523   7.097   9.055 -0.1072 -1.3485 -0.5241
53497SOL    HW266455   8.640   7.153   8.978 -0.0921  0.4247  0.7301
53498SOL     OW66456   7.005   2.938   7.389 -0.2206 -0.3110  0.2979
53498SOL    HW166457   6.950   3.000   7.341 -0.7123 -0.6955  0.3521
53498SOL    HW266458   6.944   2.894   7.449  0.3560  0.0779  1.1900
53499SOL     OW66459   6.589  10.986   7.818  0.1542  0.1701  0.0614
53499SOL    HW166460   6.532  10.918   7.855  0.6330  0.3484  1.1936
53499SOL    HW266461   6.589  10.970   7.724 -0.4651 -0.8389  0.2238
53500SOL     OW66462   8.393  10.590   9.990 -0.6388 -0.0759  0.3369
53500SOL    HW166463   8.332  10.618   9.922  0.0760  1.1122  0.1717
53500SOL    HW266464   8.404  10.496   9.975 -2.8606 -0.4557  0.7278
53501SOL     OW66465   9.865   0.684   3.906  0.0142 -0.1004 -0.6438
53501SOL    HW166466   9.818   0.746   3.961 -0.2652  0.2284 -1.2437
53501SOL    HW266467   9.944   0.662   3.956 -0.0371  0.4956 -0.2948
53502SOL     OW66468  10.822  12.181  11.268  0.1494  0.5185 -0.6411
53502SOL    HW166469  10.904  12.194  11.219  0.6315  0.1692  0.0564
53502SOL    HW266470  10.763  12.140  11.204  0.8652 -0.2091 -0.8670
53503SOL     OW66471   1.557   9.441  11.247 -0.4321  0.0020 -0.3216
53503SOL    HW166472   1.528   9.361  11.202  0.7423 -0.2609 -0.6468
53503SOL    HW266473   1.529   9.512  11.189  0.3923 -0.2948 -1.1140
53504SOL     OW66474   5.048   9.150   9.994 -0.2096  0.4247 -0.0691
53504SOL    HW166475   5.119   9.089   9.975 -0.0377  0.0005  1.7164
53504SOL    HW266476   5.078   9.233   9.957  1.4361  0.3382  0.9189
53505SOL     OW66477   9.449   0.373   5.483 -0.4250 -0.2787 -0.0763
53505SOL    HW166478   9.385   0.445   5.481 -0.3348 -0.1957  0.0196
53505SOL    HW266479   9.532   0.416   5.463 -0.1436 -0.1219  1.3737
53506SOL     OW66480   2.208   5.835   7.535 -0.7332  0.3378  0.3104
53506SOL    HW166481   2.174   5.835   7.445 -0.4462 -2.4709  0.1183
53506SOL    HW266482   2.297   5.801   7.526 -0.6707  0.1233  1.6650
53507SOL     OW66483   1.740  10.841   3.082 -0.2938 -0.0479 -0.5077
53507SOL    HW166484   1.832  10.868   3.078 -0.6504  1.1925 -0.7750
53507SOL    HW266485   1.691  10.924   3.085 -1.3602 -0.6882  0.6027
53508SOL     OW66486   7.219   3.910   3.306  0.2096  0.0667 -0.3075
53508SOL    HW166487   7.277   3.964   3.360  0.4738  0.3150 -0.8354
53508SOL    HW266488   7.197   3.965   3.231 -0.9474  0.0825  0.0246
53509SOL     OW66489   1.456   0.146   1.011  0.1498 -0.3159 -0.7289
53509SOL    HW166490   1.370   0.111   0.989  0.0729 -0.2892 -0.4715
53509SOL    HW266491   1.503   0.148   0.927 -0.9130  2.0023 -1.3589
53510SOL     OW66492   5.278  11.189   8.489  0.5649  0.8125 -0.3710
53510SOL    HW166493   5.299  11.210   8.580 -0.6785 -1.2683  0.4678
53510SOL    HW266494   5.194  11.142   8.494 -1.1760  3.3519 -2.9092
53511SOL     OW66495   7.161   8.171   5.963 -0.5948  0.1210  0.7287
53511SOL    HW166496   7.072   8.198   5.941 -0.8735  1.5508  3.2523
53511SOL    HW266497   7.216   8.242   5.930 -0.5648  0.1221  0.7821
53512SOL     OW66498  11.084   5.355   1.614  0.6134 -0.1917  0.4531
53512SOL    HW166499  11.007   5.385   1.568 -0.4617 -1.9195  1.0255
53512SOL    HW266500  11.157   5.375   1.555 -0.2923  1.1153 -0.2618
53513SOL     OW66501   7.989   2.999  11.221 -0.6094 -0.0977  0.2934
53513SOL    HW166502   8.071   3.035  11.185 -1.4630  0.2921 -1.3935
53513SOL    HW266503   8.013   2.966  11.307  1.2694  0.2407 -0.0492
53514SOL     OW66504   0.481   0.967   3.646 -0.0458  0.0095  0.2636
53514SOL    HW166505   0.508   0.906   3.578 -1.1087 -0.5665  0.3290
53514SOL    HW266506   0.532   0.941   3.723  1.1911  0.6962 -0.3046
53515SOL     OW66507  12.302   7.864   5.148 -0.2499 -0.0527  0.1757
53515SOL    HW166508  12.365   7.837   5.216 -1.1562  1.8026  1.8432
53515SOL    HW266509  12.242   7.789   5.141 -1.3246  0.4176  2.9581
53516SOL     OW66510   5.131   8.154   8.823 -0.0229  0.6503  0.1780
53516SOL    HW166511   5.166   8.204   8.750  0.9313  0.7142  0.6687
53516SOL    HW266512   5.116   8.218   8.892 -0.2807  0.4909  0.2728
53517SOL     OW66513   2.972   7.230   7.305  0.2591 -0.1739  0.0874
53517SOL    HW166514   2.934   7.298   7.250 -0.5327 -0.0079  0.8200
53517SOL    HW266515   2.943   7.251   7.393  0.7977 -0.9191  0.4547
53518SOL     OW66516   2.811   0.809   7.807 -0.2917  0.6090  0.1233
53518SOL    HW166517   2.875   0.868   7.768 -0.9165  0.7554 -0.7140
53518SOL    HW266518   2.732   0.863   7.817 -0.1421  0.5920  1.6534
53519SOL     OW66519   9.762   2.399  10.578 -0.1470 -0.3983 -0.7592
53519SOL    HW166520   9.756   2.402  10.483  0.0934  0.5527 -0.7571
53519SOL    HW266521   9.848   2.435  10.599  0.1780 -1.4377 -0.2101
53520SOL     OW66522   6.394   8.345   1.417 -0.2988 -0.4192  0.8860
53520SOL    HW166523   6.430   8.433   1.412  0.6406 -0.8387 -0.5747
53520SOL    HW266524   6.371   8.332   1.509  0.7538  0.8678  1.3438
53521SOL     OW66525   2.978   8.764   9.163  0.2399  0.2009  0.0288
53521SOL    HW166526   3.057   8.804   9.127  0.7933 -2.1910 -1.6441
53521SOL    HW266527   2.909   8.783   9.099  0.4758 -1.3045 -0.7064
53522SOL     OW66528   4.989   3.336  11.702  0.5203  0.2156 -0.5213
53522SOL    HW166529   4.901   3.371  11.686  0.6302  0.3352 -0.8697
53522SOL    HW266530   4.975   3.245  11.727  0.1750  0.6752  1.0827
53523SOL     OW66531   0.223   4.006   7.834 -0.3029  0.2939 -0.3281
53523SOL    HW166532   0.247   3.923   7.793  0.4875 -0.2407  1.1537
53523SOL    HW266533   0.307   4.047   7.856 -0.6989  0.9521 -0.0053
53524SOL     OW66534   9.782   3.011   8.984 -0.3656 -0.2747  0.7019
53524SOL    HW166535   9.709   3.062   9.020  0.6421  1.6071  0.2363
53524SOL    HW266536   9.771   3.019   8.889  0.5222  0.1789  0.6262
53525SOL     OW66537  11.421   2.212   3.747 -0.4686 -0.6675 -0.1584
53525SOL    HW166538  11.386   2.220   3.835 -2.1286  3.0919 -0.9859
53525SOL    HW266539  11.344   2.205   3.691  0.3000  1.3788 -1.5755
53526SOL     OW66540  12.069   3.974   4.626 -0.1986  0.1745  0.4171
53526SOL    HW166541  12.062   3.884   4.595  2.2392  0.3183 -0.7076
53526SOL    HW266542  12.056   3.967   4.721 -1.0251 -1.1936  0.2331
53527SOL     OW66543   4.537   8.174   2.648 -0.3528 -0.5519 -0.3287
53527SOL    HW166544   4.625   8.202   2.623 -0.7290 -0.8776 -2.2043
53527SOL    HW266545   4.492   8.254   2.673  0.1337 -0.2301 -0.4662
53528SOL     OW66546   1.482   8.206   7.014 -0.3334 -0.1194 -0.3719
53528SOL    HW166547   1.434   8.268   6.959 -0.9398  0.5582  0.8762
53528SOL    HW266548   1.567   8.198   6.971 -0.0870  1.9087 -0.3781
53529SOL     OW66549   0.905   4.788   0.479  0.0156 -0.1134 -0.1194
53529SOL    HW166550   0.877   4.701   0.453 -0.4625  0.0653 -0.2018
53529SOL    HW266551   0.918   4.781   0.574  0.9136 -0.5254 -0.2589
53530SOL     OW66552  10.053   8.782   0.909 -0.5873  0.2992 -0.1954
53530SOL    HW166553  10.022   8.763   0.997  3.2624 -1.0570  1.1027
53530SOL    HW266554  10.054   8.878   0.905  1.5174  0.5139  2.3690
53531SOL     OW66555   0.616   0.005   3.249 -0.1128  0.7239 -0.2792
53531SOL    HW166556   0.646  -0.031   3.165  2.0627  0.4479  0.5300
53531SOL    HW266557   0.672  -0.038   3.314 -1.3875  1.3200  1.2686
53532SOL     OW66558   3.657   8.143   4.511 -0.4688  0.3567 -0.7787
53532SOL    HW166559   3.622   8.155   4.599 -0.8532  2.0974 -1.1351
53532SOL    HW266560   3.580   8.136   4.455 -0.2247 -0.2871 -1.0462
53533SOL     OW66561   2.945   2.305   1.643  0.1871  0.1871  0.7286
53533SOL    HW166562   2.869   2.253   1.617  1.5879 -0.9685 -1.2933
53533SOL    HW266563   2.928   2.392   1.606  0.2840 -0.3469 -0.6209
53534SOL     OW66564  11.868   6.720  12.374 -0.3588 -0.2188  0.1046
53534SOL    HW166565  11.856   6.676  12.290  0.8480 -0.6864  0.1556
53534SOL    HW266566  11.860   6.813  12.354  1.9656 -0.1748 -0.9675
53535SOL     OW66567   4.170   8.259   7.115 -0.2985 -0.6714  0.1557
53535SOL    HW166568   4.211   8.331   7.164 -0.9507  0.2384 -0.6160
53535SOL    HW266569   4.197   8.273   7.025 -1.0864 -0.9367 -0.1248
53536SOL     OW66570   5.907   0.179   1.520  0.1989  0.0733 -0.5982
53536SOL    HW166571   5.990   0.204   1.478 -0.7454  1.3161 -1.8347
53536SOL    HW266572   5.845   0.171   1.447 -0.7336 -1.0451  0.2842
53537SOL     OW66573   6.539   5.432   4.476 -0.1254 -0.4153  0.3091
53537SOL    HW166574   6.563   5.362   4.537 -1.0643 -1.8086 -0.8419
53537SOL    HW266575   6.560   5.397   4.390 -0.0116  1.0019 -0.2693
53538SOL     OW66576  10.669   7.265   3.969  0.3314 -0.3027 -0.4057
53538SOL    HW166577  10.630   7.284   4.054 -0.1806 -1.0278 -0.4632
53538SOL    HW266578  10.753   7.311   3.969  0.1523  0.0292  0.3269
53539SOL     OW66579  11.709   4.756  11.320  0.3247  0.6466  0.0887
53539SOL    HW166580  11.662   4.680  11.352  0.4194  0.3773 -0.4073
53539SOL    HW266581  11.694   4.756  11.225  0.8078  0.9057  0.0075
53540SOL     OW66582   4.283   7.628   9.319 -0.3401 -0.0244  0.1209
53540SOL    HW166583   4.296   7.534   9.328  1.9060  0.2216  0.0300
53540SOL    HW266584   4.339   7.667   9.386 -1.9542  1.2473  0.7745
53541SOL     OW66585   4.007   4.405   8.173 -0.3096 -0.3964  0.8549
53541SOL    HW166586   3.928   4.351   8.179 -0.5167 -0.6291 -2.3652
53541SOL    HW266587   4.080   4.343   8.178 -0.4296 -0.5379  0.8369
53542SOL     OW66588   9.921   3.954  12.048 -0.5145  0.0171  0.4452
53542SOL    HW166589   9.965   3.961  11.964  0.2294 -1.0429  0.7176
53542SOL    HW266590   9.838   3.910  12.028 -0.0935 -0.7407  0.3318
53543SOL     OW66591   2.453   4.239   0.622 -0.0009 -0.1061 -0.6434
53543SOL    HW166592   2.536   4.203   0.591 -0.1649 -1.2604  0.1874
53543SOL    HW266593   2.432   4.309   0.560  2.6158  1.6453  0.2660
53544SOL     OW66594  11.627   6.539   4.507 -0.3837  0.1032 -0.0839
53544SOL    HW166595  11.722   6.536   4.516 -0.3321  0.1594 -0.5767
53544SOL    HW266596  11.599   6.606   4.569 -0.4275 -2.0636  2.4000
53545SOL     OW66597   9.194  11.900   4.208  0.4593  0.1367 -0.3442
53545SOL    HW166598   9.224  11.809   4.206 -3.2167 -1.2076 -2.0207
53545SOL    HW266599   9.254  11.946   4.149  3.1475 -0.7779  1.4489
53546SOL     OW66600   2.374   2.044   7.643  0.4047  0.0959 -0.1933
53546SOL    HW166601   2.463   2.039   7.678  0.3561 -1.7700 -0.2313
53546SOL    HW266602   2.384   2.026   7.550  0.0044 -0.0662 -0.2059
53547SOL     OW66603   2.872   7.208   2.955 -0.3264 -0.2333  0.0433
53547SOL    HW166604   2.778   7.212   2.971 -1.1003  0.9835 -3.8172
53547SOL    HW266605   2.899   7.299   2.944  1.2070 -0.6048  0.4259
53548SOL     OW66606   6.019   7.455   5.028 -0.0501 -0.3296 -1.1448
53548SOL    HW166607   6.036   7.491   4.941  0.7390  0.3317 -0.7385
53548SOL    HW266608   6.062   7.517   5.087 -1.8132  0.0231 -0.1886
53549SOL     OW66609   4.081   2.369   0.381  0.4100 -0.1378 -0.0769
53549SOL    HW166610   4.052   2.292   0.430  1.1696 -0.3500  0.0502
53549SOL    HW266611   4.042   2.359   0.294 -1.2755  0.4412  0.5685
53550SOL     OW66612   1.460   3.373   0.250  0.0234 -0.0813 -0.8844
53550SOL    HW166613   1.515   3.426   0.307 -1.0332 -1.7535  1.9544
53550SOL    HW266614   1.520   3.336   0.185  1.0292  3.1193 -1.9305
53551SOL     OW66615   0.345   6.069   4.929  0.4721  0.4644  0.3801
53551SOL    HW166616   0.307   6.046   5.014  0.2143 -1.7100 -0.2697
53551SOL    HW266617   0.433   6.099   4.950  0.3045  0.2509  1.4344
53552SOL     OW66618   6.950   3.314  11.847 -0.2743 -0.0914 -0.9938
53552SOL    HW166619   6.991   3.275  11.925 -0.5969 -0.5677 -1.0592
53552SOL    HW266620   7.006   3.388  11.826  1.5546 -1.6704 -2.0590
53553SOL     OW66621   6.192   6.333  10.787 -0.4267  0.2285  0.4254
53553SOL    HW166622   6.279   6.350  10.751 -0.7718 -0.6457 -0.9082
53553SOL    HW266623   6.132   6.343  10.712 -1.3244 -0.3911  1.0339
53554SOL     OW66624  10.332  11.622   5.686  0.0450  0.1325 -0.6348
53554SOL    HW166625  10.379  11.705   5.692  1.0144 -0.1764 -2.9136
53554SOL    HW266626  10.253  11.634   5.738  1.6951  1.3514  1.7223
53555SOL     OW66627   5.802   6.216   3.337  0.1532  0.4458 -0.2783
53555SOL    HW166628   5.783   6.252   3.251  0.9135  1.9588  0.1533
53555SOL    HW266629   5.720   6.224   3.385  0.2425  1.3910 -0.2723
53556SOL     OW66630   1.267   3.380   4.909  0.2705 -0.1600 -0.0691
53556SOL    HW166631   1.178   3.409   4.890  0.3851 -1.1948 -2.6339
53556SOL    HW266632   1.299   3.442   4.974 -1.2339  2.2435 -1.4476
53557SOL     OW66633   3.279   1.091   5.674  0.2277 -0.2011 -0.1701
53557SOL    HW166634   3.256   1.013   5.724  1.5925 -0.3912  0.2035
53557SOL    HW266635   3.228   1.161   5.714 -1.0611 -0.8911 -0.5488
53558SOL     OW66636   0.432   6.026   4.215  0.1508 -0.2678  0.1136
53558SOL    HW166637   0.405   6.101   4.268 -0.9054 -0.2516 -0.4314
53558SOL    HW266638   0.448   6.062   4.128  0.2494 -0.5722  0.0043
53559SOL     OW66639   9.132  12.487   1.219 -0.6354 -0.6288  0.0202
53559SOL    HW166640   9.196  12.417   1.205 -0.3811 -0.2241 -0.8912
53559SOL    HW266641   9.098  12.507   1.132  0.5109  1.5220  0.0154
53560SOL     OW66642   0.359   2.682   5.325  0.0854 -0.1093  0.7937
53560SOL    HW166643   0.268   2.711   5.328  0.2797  0.4501  1.2648
53560SOL    HW266644   0.392   2.696   5.413  0.1799 -1.7857  1.0647
53561SOL     OW66645   8.157   4.928   6.581 -0.4342  0.8846 -0.0927
53561SOL    HW166646   8.144   4.834   6.599  0.7203  0.5035 -1.1071
53561SOL    HW266647   8.120   4.940   6.494  0.3924  1.1290 -0.4150
53562SOL     OW66648  11.882   9.949   9.496  0.2112  0.3762 -0.5614
53562SOL    HW166649  11.891  10.015   9.427  1.0957  0.8609 -0.0044
53562SOL    HW266650  11.938   9.981   9.566  0.7024 -1.0053 -0.3055
53563SOL     OW66651  10.557   2.698   2.872 -0.3827  0.7206  0.2281
53563SOL    HW166652  10.470   2.734   2.855 -0.0011  0.5906 -2.2922
53563SOL    HW266653  10.606   2.713   2.791  1.1948 -1.3835  0.7128
53564SOL     OW66654   2.853   0.135   0.300 -0.1798 -0.1215  0.6193
53564SOL    HW166655   2.864   0.134   0.395 -2.2668 -0.3680  0.8975
53564SOL    HW266656   2.879   0.224   0.274  0.1853  0.0187  1.4257
53565SOL     OW66657   1.776   9.315   3.372 -0.1392  0.1743  0.5856
53565SOL    HW166658   1.690   9.284   3.346  0.3831 -1.5670  0.7901
53565SOL    HW266659   1.829   9.308   3.293 -0.1659  1.2120  0.4674
53566SOL     OW66660   3.484   2.060   5.002  0.0591 -0.5643 -0.0687
53566SOL    HW166661   3.478   1.968   4.977 -0.6003 -0.8252  0.9878
53566SOL    HW266662   3.535   2.060   5.083  2.7479  0.3291 -1.6525
53567SOL     OW66663   0.732   8.867  12.160 -0.1625 -0.3550  0.0252
53567SOL    HW166664   0.698   8.793  12.210 -0.2802 -0.6882 -0.5362
53567SOL    HW266665   0.672   8.939  12.178  0.6578 -0.0282  1.5754
53568SOL     OW66666   8.835   8.634  11.447  0.8516 -0.0513 -0.1429
53568SOL    HW166667   8.781   8.680  11.384  0.5617  0.5632  0.5491
53568SOL    HW266668   8.798   8.656  11.532  1.4757 -0.5555  0.2718
53569SOL     OW66669   1.584   3.769   5.003 -0.2106 -0.1245 -0.2985
53569SOL    HW166670   1.586   3.714   5.082  0.8466  1.8535  1.1374
53569SOL    HW266671   1.657   3.739   4.950 -0.7507 -1.2750 -0.4340
53570SOL     OW66672  11.396   6.940  11.171  0.1720 -0.3500  0.2392
53570SOL    HW166673  11.395   6.857  11.218 -0.3700 -1.0536 -0.9632
53570SOL    HW266674  11.332   6.994  11.218 -1.5418 -1.5754 -0.5692
53571SOL     OW66675   3.388   6.083   6.127 -0.3086  0.1094 -0.3186
53571SOL    HW166676   3.433   6.132   6.057 -1.9298 -0.2166 -1.6559
53571SOL    HW266677   3.373   6.148   6.196  1.6954  0.3446 -0.0312
53572SOL     OW66678  10.254   7.293   3.387  0.2386 -0.5122  0.7205
53572SOL    HW166679  10.336   7.243   3.384  0.4988 -0.0953  0.8529
53572SOL    HW266680  10.246   7.322   3.478  0.1271 -0.2453  0.6274
53573SOL     OW66681   1.573  12.304   7.734  0.2170 -0.5951  0.4757
53573SOL    HW166682   1.558  12.280   7.825 -1.2861  0.3922  0.5196
53573SOL    HW266683   1.665  12.330   7.731  0.6234 -1.8119  1.4173
53574SOL     OW66684   2.174   3.937   7.285  0.1566  0.1855  0.0070
53574SOL    HW166685   2.114   3.881   7.237 -2.6318  0.8124  2.5074
53574SOL    HW266686   2.205   4.001   7.220 -3.3455  0.9639 -1.0730
53575SOL     OW66687  11.699  10.588   4.468 -0.9662 -0.1383 -0.4008
53575SOL    HW166688  11.787  10.602   4.504 -0.5793 -1.6128 -0.6883
53575SOL    HW266689  11.642  10.642   4.522 -0.0036  0.0760  0.4347
53576SOL     OW66690   2.115   5.771   3.270 -0.0455  0.0414 -0.6806
53576SOL    HW166691   2.125   5.866   3.269 -0.9915  0.1727  0.1380
53576SOL    HW266692   2.205   5.738   3.267  0.3679  0.9915  0.2861
53577SOL     OW66693   9.772  11.421   8.460 -0.4985 -0.3502 -0.3176
53577SOL    HW166694   9.787  11.330   8.438 -0.0736  0.1043 -2.0624
53577SOL    HW266695   9.678  11.426   8.481 -0.7003 -1.0447 -1.0204
53578SOL     OW66696   8.870  11.559   1.360  0.0575 -0.0070  1.0598
53578SOL    HW166697   8.829  11.636   1.320 -1.3214 -1.5714 -0.7426
53578SOL    HW266698   8.957  11.589   1.386 -0.9587  2.5435  1.8675
53579SOL     OW66699   7.890   5.655   5.464 -0.0191  0.3329  0.5790
53579SOL    HW166700   7.921   5.735   5.508 -0.3779  0.9486 -0.2584
53579SOL    HW266701   7.815   5.684   5.412 -2.3170 -1.1607  2.7863
53580SOL     OW66702   9.949  11.047   0.975  0.1137 -0.4361  0.0206
53580SOL    HW166703   9.857  11.022   0.962 -0.1011  0.5683 -0.4078
53580SOL    HW266704   9.998  10.985   0.921 -0.4549  0.4180 -1.5345
53581SOL     OW66705   3.124   0.525  11.806 -0.4191 -0.4290 -0.3260
53581SOL    HW166706   3.071   0.448  11.783  0.8811 -1.0718 -1.2880
53581SOL    HW266707   3.163   0.501  11.891 -0.3178 -0.6728 -0.4389
53582SOL     OW66708   5.649  12.441  11.876  0.4319  0.3034 -0.0221
53582SOL    HW166709   5.711  12.459  11.805  0.1902 -2.2825 -0.9867
53582SOL    HW266710   5.699  12.389  11.939  0.2157  1.2836  0.9857
53583SOL     OW66711   6.142  11.758   6.550  0.1312 -0.6004  0.2959
53583SOL    HW166712   6.154  11.845   6.590  0.7275 -0.0306 -1.0382
53583SOL    HW266713   6.073  11.717   6.602 -0.2145  0.7066  0.9296
53584SOL     OW66714   7.163   8.861   2.601  0.5809 -0.4803 -0.0465
53584SOL    HW166715   7.130   8.922   2.535 -0.1004  2.1237  2.5143
53584SOL    HW266716   7.087   8.808   2.625 -0.8062  2.3362  2.4541
53585SOL     OW66717   3.971   4.274   8.566 -0.4561  0.1246 -0.4186
53585SOL    HW166718   4.002   4.191   8.531  0.8446 -0.1430  1.2959
53585SOL    HW266719   3.992   4.338   8.497  3.2556 -0.1711  0.2387
53586SOL     OW66720   8.478  11.805  11.069  0.1557 -0.1591 -0.6647
53586SOL    HW166721   8.486  11.894  11.101  0.5566 -0.5073  0.2351
53586SOL    HW266722   8.457  11.753  11.146  3.7058 -1.4199 -0.3427
53587SOL     OW66723   1.129   5.234   4.572  0.4168  0.1790 -0.3220
53587SOL    HW166724   1.035   5.215   4.576  0.0854  1.0131 -2.5452
53587SOL    HW266725   1.139   5.315   4.622 -0.9547  2.6578 -3.6506
53588SOL     OW66726   8.522   3.089  10.907  0.0685 -0.1552 -0.2262
53588SOL    HW166727   8.434   3.059  10.927  0.0562 -0.3750 -0.5878
53588SOL    HW266728   8.520   3.109  10.813  0.4324 -0.2651 -0.2595
53589SOL     OW66729   4.286  10.094   2.207 -0.1402 -0.1149  0.3377
53589SOL    HW166730   4.264  10.177   2.165  0.2895 -0.7361 -1.1862
53589SOL    HW266731   4.245  10.028   2.151  1.6541 -1.0443  0.0490
53590SOL     OW66732  10.033   2.447  11.512 -0.5406  0.0687  0.0872
53590SOL    HW166733  10.054   2.540  11.519  1.9108 -0.5443  3.3172
53590SOL    HW266734   9.956   2.436  11.568 -1.9823  0.3390 -1.7465
53591SOL     OW66735  10.476   2.662  10.073 -0.3096 -0.1092  0.1855
53591SOL    HW166736  10.507   2.740  10.026  1.9171 -1.6975 -1.1990
53591SOL    HW266737  10.492   2.682  10.165  1.7391  0.5133 -0.2529
53592SOL     OW66738   3.293   8.773   8.453  0.1205 -0.6633 -0.4979
53592SOL    HW166739   3.304   8.693   8.505 -1.3175 -1.9664 -2.0724
53592SOL    HW266740   3.329   8.752   8.367 -0.8610  0.1421 -1.1324
53593SOL     OW66741   5.660   7.863   2.371  0.2501 -0.1881  0.0715
53593SOL    HW166742   5.719   7.917   2.318  0.9680 -1.1716 -0.1594
53593SOL    HW266743   5.626   7.798   2.310 -0.5710 -0.0335  0.3590
53594SOL     OW66744  10.415   1.275  10.735 -0.0876  0.0573  0.1970
53594SOL    HW166745  10.404   1.294  10.828 -2.8502 -1.4187  0.2966
53594SOL    HW266746  10.404   1.359  10.691 -0.3022  0.5248  1.1249
53595SOL     OW66747   1.008   4.687   7.685 -0.4481  0.1149 -0.3520
53595SOL    HW166748   1.061   4.742   7.743  0.8289 -1.5612  0.1669
53595SOL    HW266749   1.067   4.617   7.657 -1.8873 -0.8081 -1.2543
53596SOL     OW66750   7.496   0.757  10.324 -0.8978 -0.3119  0.1119
53596SOL    HW166751   7.570   0.749  10.383 -1.1360  2.0095  0.8188
53596SOL    HW266752   7.423   0.718  10.372 -0.7210 -0.0442  0.6031
53597SOL     OW66753   6.919   5.428   3.919  0.1260  0.4117  0.7349
53597SOL    HW166754   6.843   5.376   3.894  1.8830 -1.0755 -2.0321
53597SOL    HW266755   6.908   5.511   3.873 -0.4420  0.7443  1.4488
53598SOL     OW66756   1.438   7.990  10.503 -0.4953  0.0423 -0.3047
53598SOL    HW166757   1.532   7.977  10.497 -0.4631 -0.3031  0.8059
53598SOL    HW266758   1.402   7.936  10.432  0.0890 -0.4586 -0.2278
53599SOL     OW66759   8.900   5.486   9.891 -0.0490 -0.1713 -0.1180
53599SOL    HW166760   8.886   5.577   9.917 -2.1205 -0.5483  0.3077
53599SOL    HW266761   8.813   5.445   9.900  0.3625 -1.6909 -2.2622
53600SOL     OW66762   8.879   1.528   2.684 -0.1635 -0.2427 -0.3147
53600SOL    HW166763   8.859   1.481   2.765  0.2026  1.3858  0.7559
53600SOL    HW266764   8.971   1.506   2.666 -0.4390 -1.1544 -0.7111
53601SOL     OW66765  10.647   1.447   5.570 -0.0594 -0.2175 -0.1836
53601SOL    HW166766  10.590   1.497   5.630 -2.1103 -2.2245 -0.3183
53601SOL    HW266767  10.623   1.356   5.585  1.6332 -1.0029 -1.8642
53602SOL     OW66768   8.111   5.100   8.228  0.1166 -0.0305 -0.2561
53602SOL    HW166769   8.178   5.031   8.232 -0.7907 -1.2475 -3.3036
53602SOL    HW266770   8.147   5.166   8.169  0.3866  1.5254  1.5561
53603SOL     OW66771   5.449   7.929   2.594  0.3885  0.1076 -0.4270
53603SOL    HW166772   5.513   7.993   2.626  2.5247 -1.3474 -1.6211
53603SOL    HW266773   5.481   7.903   2.508 -2.6025  0.3228 -1.7550
53604SOL     OW66774   0.359   3.543   7.274  0.1832  0.0813 -0.1736
53604SOL    HW166775   0.397   3.627   7.246 -0.4620  0.3475 -0.2602
53604SOL    HW266776   0.375   3.539   7.368  2.5291 -0.8962 -0.5405
53605SOL     OW66777   7.604   8.653   7.795  0.0572  0.0357 -0.2179
53605SOL    HW166778   7.525   8.672   7.745 -1.3410 -0.6000  1.6290
53605SOL    HW266779   7.620   8.560   7.780  0.4743  0.1597 -0.5766
53606SOL     OW66780  11.005   6.561   6.986 -0.1161  0.2303 -0.3521
53606SOL    HW166781  10.981   6.471   7.010 -0.2265  0.2395 -0.4278
53606SOL    HW266782  11.098   6.555   6.963  0.1128  0.3071  0.5069
53607SOL     OW66783   3.316   3.460   5.252 -0.0817  0.7906  0.1666
53607SOL    HW166784   3.259   3.389   5.283  0.1696 -0.4274 -1.9941
53607SOL    HW266785   3.259   3.515   5.199  0.1596  1.1191  0.2462
53608SOL     OW66786  11.393   4.020   8.004  0.0289  0.5887  0.2568
53608SOL    HW166787  11.319   4.024   7.943  0.3596 -0.4105 -0.2241
53608SOL    HW266788  11.396   4.107   8.043 -0.6336  1.0246 -0.6257
53609SOL     OW66789   1.687  10.008   2.192  0.3334 -0.4066 -0.0710
53609SOL    HW166790   1.646   9.933   2.236  0.9028 -0.2331  0.7940
53609SOL    HW266791   1.764   9.971   2.149  1.6203 -0.0925  1.8111
53610SOL     OW66792   9.277   4.009   5.863  0.1154  0.0752  0.0731
53610SOL    HW166793   9.229   4.064   5.801 -0.9417  1.1649  1.7782
53610SOL    HW266794   9.323   4.072   5.919  0.9994 -0.8771  0.4450
53611SOL     OW66795   8.728   8.394   4.815 -0.3676 -0.1939  0.1047
53611SOL    HW166796   8.680   8.470   4.846 -0.9453 -0.1576 -0.8599
53611SOL    HW266797   8.690   8.320   4.863 -2.6818 -0.4231 -1.9158
53612SOL     OW66798  12.356   4.739   2.302 -0.2272 -0.5975  0.6473
53612SOL    HW166799  12.443   4.755   2.340  0.7918  1.7001 -2.2401
53612SOL    HW266800  12.358   4.647   2.278  0.9976 -0.8470  1.5685
53613SOL     OW66801  10.491   7.894   4.842  0.1045  0.0631  0.1379
53613SOL    HW166802  10.456   7.903   4.930  0.3989 -1.4754  0.4336
53613SOL    HW266803  10.558   7.963   4.836  0.6247 -0.2988  1.3937
53614SOL     OW66804   4.473   5.450  11.792 -0.3095 -0.3830  0.0051
53614SOL    HW166805   4.469   5.486  11.881  1.4868 -0.5630  0.2033
53614SOL    HW266806   4.445   5.522  11.736  1.0766  0.6496  0.5593
53615SOL     OW66807  12.361   8.339   7.043  0.3631 -0.2495  0.1421
53615SOL    HW166808  12.338   8.399   6.973 -0.0388 -0.8626 -0.2603
53615SOL    HW266809  12.440   8.294   7.013  0.6347  0.0275  0.4212
53616SOL     OW66810   0.985   2.052  12.117 -0.0837  0.4296  0.1980
53616SOL    HW166811   0.918   2.111  12.151 -0.3479  1.8728 -2.5961
53616SOL    HW266812   0.938   1.987  12.065  0.5428  0.4418 -0.4057
53617SOL     OW66813   1.409  11.911   6.974  0.0666  0.2275 -0.1648
53617SOL    HW166814   1.433  11.976   6.909  2.2153  2.7646  2.8671
53617SOL    HW266815   1.345  11.955   7.030  0.8708 -0.5744  1.4450
53618SOL     OW66816  10.001   1.071   8.922 -1.0432  0.4379 -0.0954
53618SOL    HW166817  10.077   1.019   8.950 -0.4967  0.9461 -0.6068
53618SOL    HW266818   9.931   1.046   8.983 -0.4707 -0.0474  0.3764
53619SOL     OW66819   5.511   8.968   4.809 -0.4571 -0.9612 -0.3660
53619SOL    HW166820   5.505   8.985   4.715  0.1402 -1.5311 -0.5094
53619SOL    HW266821   5.480   9.049   4.849 -1.0058 -0.8191 -1.0485
53620SOL     OW66822  11.162   9.440  12.321  0.8783 -0.0080 -0.2691
53620SOL    HW166823  11.141   9.355  12.360 -0.8888  0.0992 -0.8836
53620SOL    HW266824  11.213   9.418  12.242  0.1092 -0.5316 -0.6335
53621SOL     OW66825   3.935  11.387   1.133 -0.1454 -0.2490 -0.4025
53621SOL    HW166826   3.889  11.459   1.175 -0.5155 -1.4103  1.2769
53621SOL    HW266827   3.898  11.383   1.045 -2.5174 -0.4317  0.5223
53622SOL     OW66828   6.514   5.249   6.136 -0.9708 -0.0902 -0.3383
53622SOL    HW166829   6.568   5.172   6.158 -0.8550 -0.1084 -0.6867
53622SOL    HW266830   6.534   5.267   6.044  2.2167  2.9185  0.7199
53623SOL     OW66831   1.140  12.237   9.892 -0.1916 -0.1006  0.4370
53623SOL    HW166832   1.135  12.169   9.959 -1.1991 -2.1209 -1.5535
53623SOL    HW266833   1.067  12.296   9.913 -0.2952 -0.5034  1.2859
53624SOL     OW66834  11.196  10.214   5.702  0.0191 -0.5153 -0.1225
53624SOL    HW166835  11.161  10.187   5.787  1.2656  0.0775  0.5995
53624SOL    HW266836  11.282  10.173   5.697  0.9366  1.3157 -0.0564
53625SOL     OW66837   3.023   3.787   0.942 -0.2408 -0.3749 -0.3347
53625SOL    HW166838   3.067   3.867   0.972 -0.0591 -0.1003 -1.2845
53625SOL    HW266839   2.944   3.782   0.995  1.0836 -1.0852  1.6668
53626SOL     OW66840   5.066   4.020   3.031 -0.0359 -0.3394  0.2963
53626SOL    HW166841   5.038   4.055   2.947  0.0229  0.3591  0.5650
53626SOL    HW266842   5.048   4.090   3.094 -0.3574 -0.9593  0.9148
53627SOL     OW66843   6.099   4.516  11.811  0.6948  0.3418  0.6062
53627SOL    HW166844   6.171   4.491  11.869  1.6557  0.5196 -0.4711
53627SOL    HW266845   6.142   4.539  11.728 -0.6184  0.3107 -0.1082
53628SOL     OW66846  11.538  11.869   6.792 -0.2779 -0.0470 -0.7415
53628SOL    HW166847  11.472  11.801   6.780 -0.8846  0.4768 -0.3905
53628SOL    HW266848  11.515  11.936   6.728 -0.3545  0.3369 -0.3115
53629SOL     OW66849   6.383   0.891   6.262 -0.2779  0.3131  0.2005
53629SOL    HW166850   6.437   0.936   6.197  0.3761 -0.3619  0.2571
53629SOL    HW266851   6.425   0.910   6.346 -0.8520  0.8023  0.3817
53630SOL     OW66852   1.858   6.103  11.802  0.1196 -0.1987  1.0581
53630SOL    HW166853   1.881   6.193  11.778  0.8441 -0.2231  1.6237
53630SOL    HW266854   1.764   6.107  11.822 -0.0690  0.2210  0.1489
53631SOL     OW66855   0.454   6.564  11.294  0.0750 -0.7257  0.1766
53631SOL    HW166856   0.453   6.503  11.220 -1.4221 -2.0482  1.2055
53631SOL    HW266857   0.423   6.511  11.368 -0.0033  0.9708  1.4017
53632SOL     OW66858  11.671  10.747   8.998 -0.5633 -0.3265  0.1060
53632SOL    HW166859  11.728  10.721   9.071 -0.6975  0.6666  0.5698
53632SOL    HW266860  11.671  10.842   9.000 -0.2842 -0.2656 -1.4247
53633SOL     OW66861  12.252   0.067   7.826  0.4008 -0.1159  0.0160
53633SOL    HW166862  12.164   0.091   7.797  0.7592  1.3504  0.0432
53633SOL    HW266863  12.289   0.149   7.859  2.1102 -0.4975 -0.8622
53634SOL     OW66864   2.442   7.181   5.461  0.2107 -0.1694 -0.2708
53634SOL    HW166865   2.371   7.120   5.441 -0.6178  0.8868 -0.6535
53634SOL    HW266866   2.463   7.164   5.553  1.4536 -2.4530 -0.8914
53635SOL     OW66867   9.375   6.529   5.923  0.3686 -0.1202  0.4391
53635SOL    HW166868   9.356   6.452   5.869  1.3525  1.2193 -1.9742
53635SOL    HW266869   9.301   6.588   5.907  2.2818  1.7301 -2.4207
53636SOL     OW66870   6.692  12.184   3.098 -0.1934  0.1294  0.0559
53636SOL    HW166871   6.753  12.194   3.171  0.3703  0.5484 -0.4624
53636SOL    HW266872   6.708  12.095   3.065 -0.1757  0.0793  0.1986
53637SOL     OW66873   5.648   2.261   9.463 -0.7055  0.7294 -0.1762
53637SOL    HW166874   5.732   2.300   9.484 -1.1282  1.4286  0.2589
53637SOL    HW266875   5.584   2.312   9.512 -1.1222 -2.0010  2.4352
53638SOL     OW66876   0.511   5.612   6.443  0.1893  0.1608 -0.0868
53638SOL    HW166877   0.527   5.640   6.353 -1.5999 -1.1757 -0.8814
53638SOL    HW266878   0.425   5.649   6.464 -1.3746 -2.9064 -0.5079
53639SOL     OW66879   0.076  11.207   3.165  0.0193  0.1311  0.1779
53639SOL    HW166880   0.120  11.227   3.082  0.5478  0.1162  0.4484
53639SOL    HW266881   0.004  11.149   3.140  2.6875 -3.5362  0.1383
53640SOL     OW66882   8.614  12.447  12.134 -0.2695  0.0256 -0.0047
53640SOL    HW166883   8.705  12.444  12.165 -0.4917  3.3817  1.4997
53640SOL    HW266884   8.562  12.424  12.211 -0.7306 -0.3760 -0.4299
53641SOL     OW66885   3.272  11.031   5.633 -0.1167 -0.1461  0.1572
53641SOL    HW166886   3.246  11.059   5.546 -1.2608 -2.5408 -0.3609
53641SOL    HW266887   3.310  10.945   5.621  1.7679  0.3768  1.8048
53642SOL     OW66888   3.035   3.934  10.766 -0.2598  0.0758 -0.2238
53642SOL    HW166889   2.959   3.945  10.708 -0.7771  0.3214  0.4817
53642SOL    HW266890   3.111   3.947  10.709 -0.5496 -3.8020 -1.8001
53643SOL     OW66891  12.285   4.754   1.100  0.4148 -0.7396 -0.2628
53643SOL    HW166892  12.232   4.732   1.177  1.5407  0.1886  0.8212
53643SOL    HW266893  12.348   4.683   1.094  2.8587  1.0341  2.1217
53644SOL     OW66894   3.545   9.791   9.393  0.5651 -0.1777  0.2943
53644SOL    HW166895   3.531   9.704   9.357 -2.2618  0.4293 -0.3426
53644SOL    HW266896   3.547   9.778   9.488 -0.3670 -0.9097  0.2252
53645SOL     OW66897   7.636   7.973   0.532 -0.3492 -0.1360 -0.5362
53645SOL    HW166898   7.693   8.000   0.604  0.1432 -0.1631 -0.9112
53645SOL    HW266899   7.584   7.901   0.568 -2.5236  1.9590  0.8673
53646SOL     OW66900  11.006   8.523   5.403  0.1684  0.1935 -0.4390
53646SOL    HW166901  11.096   8.497   5.419  0.2436  0.3111 -0.6722
53646SOL    HW266902  10.956   8.478   5.471  0.7851  2.8212  2.0097
53647SOL     OW66903   3.739   8.946   3.695 -0.8849 -0.5911 -0.0849
53647SOL    HW166904   3.703   9.004   3.629 -0.0001 -0.7967 -0.7615
53647SOL    HW266905   3.759   9.003   3.770 -0.3188 -0.0679 -0.6262
53648SOL     OW66906   3.638   6.871   7.982  0.0044 -0.9148  0.0294
53648SOL    HW166907   3.697   6.930   8.028 -0.4860 -0.5093  0.1394
53648SOL    HW266908   3.615   6.918   7.901 -0.5513 -0.8598  0.2151
53649SOL     OW66909  11.204   3.007   1.491 -0.0626  0.0666  0.1985
53649SOL    HW166910  11.210   3.010   1.396  0.7561  1.4455  0.2629
53649SOL    HW266911  11.126   3.058   1.512  0.2169  0.4613  0.2923
53650SOL     OW66912  10.462   8.615  10.222 -0.4584  0.4825 -0.0887
53650SOL    HW166913  10.516   8.668  10.281  0.7154  0.6660 -1.2778
53650SOL    HW266914  10.385   8.593  10.273  0.3397  0.9699  1.3734
53651SOL     OW66915   0.790   2.959   9.820  0.0911  0.2276  0.2902
53651SOL    HW166916   0.882   2.969   9.843  0.4449 -0.7522 -0.6521
53651SOL    HW266917   0.761   2.882   9.869  0.5076 -1.0798 -1.4185
53652SOL     OW66918   7.989   6.071   2.696 -0.2618 -0.0454 -0.5788
53652SOL    HW166919   7.921   6.005   2.707  0.6195 -0.6868  1.7889
53652SOL    HW266920   7.998   6.111   2.783  1.1273  1.2754 -1.2705
53653SOL     OW66921  10.582   5.980   6.237 -0.7405  0.4652  0.1757
53653SOL    HW166922  10.609   5.956   6.148  0.7012  0.4692  0.5835
53653SOL    HW266923  10.664   5.991   6.284 -1.4792 -0.6509  1.8185
53654SOL     OW66924   5.267   9.145   8.404 -0.0144  0.4884 -0.6017
53654SOL    HW166925   5.274   9.185   8.490 -0.8000 -1.1193  0.2607
53654SOL    HW266926   5.357   9.125   8.379  0.1253 -0.4714  0.5877
53655SOL     OW66927   4.240   1.101   7.809 -0.6320  0.5503  0.2652
53655SOL    HW166928   4.185   1.145   7.744 -1.3686 -0.2607  0.3197
53655SOL    HW266929   4.276   1.173   7.861  1.2854  1.3518 -1.9980
53656SOL     OW66930   3.118   1.544   8.922 -0.1445  0.8411 -0.2526
53656SOL    HW166931   3.198   1.572   8.877 -0.8455  0.8528 -1.5230
53656SOL    HW266932   3.051   1.545   8.855 -1.2179  0.7695  0.7859
53657SOL     OW66933   9.029   6.765   6.487  0.0018 -0.4152  0.2771
53657SOL    HW166934   8.959   6.829   6.476  1.7322  1.2556 -2.1859
53657SOL    HW266935   9.098   6.812   6.534  0.4386 -1.1733  0.4112
53658SOL     OW66936  11.999   8.403   3.965 -0.4433  0.6266  0.2536
53658SOL    HW166937  11.933   8.447   4.019 -0.5569  0.4398  0.2662
53658SOL    HW266938  11.974   8.311   3.967  0.0902  0.4807  0.6550
53659SOL     OW66939   3.060   8.152   4.360  0.0341 -0.1075 -0.2540
53659SOL    HW166940   3.129   8.120   4.417 -0.1335 -0.5166 -0.2781
53659SOL    HW266941   2.992   8.184   4.420 -0.1985 -0.6582 -0.2197
53660SOL     OW66942  12.447   2.212   5.488  0.3466  0.2625 -0.2002
53660SOL    HW166943  12.508   2.271   5.530 -0.5051  0.8255  0.2654
53660SOL    HW266944  12.459   2.128   5.533  1.6433  0.0119 -0.9489
53661SOL     OW66945  11.860  11.562   2.315  0.5878 -0.4759  0.2140
53661SOL    HW166946  11.787  11.508   2.345  1.1556 -0.4254  1.7360
53661SOL    HW266947  11.819  11.645   2.288 -0.2066 -1.3703 -1.5067
53662SOL     OW66948   0.994   8.488   9.519 -0.1726  0.2645 -0.3086
53662SOL    HW166949   0.948   8.416   9.476  0.8411 -0.0019 -0.9682
53662SOL    HW266950   1.042   8.446   9.591 -1.3636  0.6206  0.7357
53663SOL     OW66951   2.381  10.674   7.467 -0.4882 -0.2893  0.3849
53663SOL    HW166952   2.433  10.595   7.474 -1.2924 -0.9417 -0.6898
53663SOL    HW266953   2.397  10.706   7.378 -0.9159  0.2202  0.4834
53664SOL     OW66954   7.410   0.212   2.037  0.0283  0.4955  0.3346
53664SOL    HW166955   7.474   0.144   2.058  1.0037  0.7235 -1.6416
53664SOL    HW266956   7.447   0.258   1.962 -1.7649  1.6453  0.0766
53665SOL     OW66957  11.008  12.005   2.985 -0.1896 -0.4156  0.2012
53665SOL    HW166958  11.086  11.986   2.932 -0.8338 -1.4596 -0.4077
53665SOL    HW266959  11.041  12.006   3.075  0.6903  0.1113 -0.1138
53666SOL     OW66960  11.856   1.671   5.345  0.0005  0.0077  0.4755
53666SOL    HW166961  11.849   1.726   5.423 -0.7307 -0.2182  0.5727
53666SOL    HW266962  11.891   1.729   5.278 -0.6653  0.5743  0.6075
53667SOL     OW66963  11.450   6.824   8.034  0.7126 -0.3619  0.0874
53667SOL    HW166964  11.510   6.884   8.077  0.4037  0.5217 -0.6781
53667SOL    HW266965  11.363   6.852   8.063  0.6006 -0.8580  0.2366
53668SOL     OW66966  11.051   2.398   5.830 -0.0085 -0.8146 -0.1708
53668SOL    HW166967  11.039   2.463   5.899 -3.2462 -0.0624 -1.2565
53668SOL    HW266968  11.110   2.439   5.767 -1.1638  0.7187 -0.3187
53669SOL     OW66969  11.348   8.050   2.691  0.0963  0.3189 -0.1605
53669SOL    HW166970  11.275   8.075   2.748 -0.2806  0.1139 -0.5480
53669SOL    HW266971  11.338   8.106   2.614  0.7208  0.7376  0.0520
53670SOL     OW66972  12.240   0.905   6.553  0.3693  0.0715  0.0473
53670SOL    HW166973  12.253   0.875   6.463  0.1486 -0.9388  0.3471
53670SOL    HW266974  12.315   0.963   6.570  2.8902 -3.1230  0.6717
53671SOL     OW66975  11.279  11.695   4.977 -0.4709 -0.1615 -0.6959
53671SOL    HW166976  11.243  11.774   4.935 -1.7329 -1.1615 -1.5435
53671SOL    HW266977  11.211  11.667   5.039  0.6929  0.3552  0.8937
53672SOL     OW66978   6.393   3.671   3.651  0.0668  0.1964 -0.8094
53672SOL    HW166979   6.349   3.684   3.567 -1.2534  0.4625 -0.0892
53672SOL    HW266980   6.426   3.581   3.647 -1.6685 -0.4682 -0.8621
53673SOL     OW66981   9.635   0.251  11.634 -0.4101  0.0808 -0.2083
53673SOL    HW166982   9.625   0.330  11.688  0.6161  0.7781 -0.9969
53673SOL    HW266983   9.709   0.204  11.673 -0.4347 -0.0247 -0.2886
53674SOL     OW66984   8.430   5.735   5.299 -0.3582 -0.5830 -0.1072
53674SOL    HW166985   8.388   5.651   5.281 -1.2338 -0.8092  2.5119
53674SOL    HW266986   8.381   5.798   5.248 -1.8080 -1.2853  0.3645
53675SOL     OW66987   7.930   9.534   1.719  0.5839  0.2806 -0.2189
53675SOL    HW166988   7.940   9.499   1.807  1.1819 -3.1190 -1.4715
53675SOL    HW266989   7.836   9.548   1.709  0.0943 -2.3391  0.0266
53676SOL     OW66990   3.801  10.027   0.398  0.3544  0.5189  0.0916
53676SOL    HW166991   3.874  10.002   0.343 -0.4505  0.4501 -0.9761
53676SOL    HW266992   3.772  10.111   0.362 -0.6106  0.1427 -0.0238
53677SOL     OW66993   2.491   3.828   9.873 -0.4904  0.0054 -0.5487
53677SOL    HW166994   2.432   3.885   9.923 -1.0111 -0.2922 -0.8166
53677SOL    HW266995   2.578   3.862   9.892 -0.7182  0.2128  0.1608
53678SOL     OW66996  11.436   5.910   7.282 -0.0980 -0.2390  0.0955
53678SOL    HW166997  11.432   5.864   7.366 -1.9363 -0.2569  0.0346
53678SOL    HW266998  11.366   5.871   7.230  0.2831  0.5573 -1.0536
53679SOL     OW66999   5.792   4.610   5.583  0.0954  0.5161 -0.0875
53679SOL    HW167000   5.710   4.660   5.582 -0.8348 -0.9559 -0.2106
53679SOL    HW267001   5.842   4.645   5.509 -0.3256  1.5627  0.1106
53680SOL     OW67002   8.213   3.334   8.768  0.3403 -0.0712  0.0845
53680SOL    HW167003   8.250   3.282   8.840 -1.2663 -0.9095  0.3552
53680SOL    HW267004   8.201   3.422   8.805  1.0063 -0.0784  0.3278
53681SOL     OW67005   9.036   9.524   4.418 -0.0813  0.0826 -0.7941
53681SOL    HW167006   9.032   9.457   4.350 -1.5297  0.5443 -1.2084
53681SOL    HW267007   8.990   9.485   4.493 -0.5014  0.4068 -0.8739
53682SOL     OW67008   4.077   5.203  10.651  0.0404  0.1540 -0.1030
53682SOL    HW167009   3.987   5.172  10.652  0.1980 -0.2966  0.2375
53682SOL    HW267010   4.103   5.206  10.743  0.8713 -1.1889 -0.2705
53683SOL     OW67011   5.716   7.637   2.581  0.2017  0.2313  0.3273
53683SOL    HW167012   5.696   7.727   2.556 -1.0039  0.3646  1.6604
53683SOL    HW267013   5.764   7.646   2.663 -0.3012 -0.3516  0.6877
53684SOL     OW67014   2.682   5.098   5.466  0.3349  0.2243  0.2733
53684SOL    HW167015   2.662   5.007   5.490  1.9883  0.0511  1.1078
53684SOL    HW267016   2.760   5.120   5.517  0.0416  2.0829 -0.0214
53685SOL     OW67017  10.848   3.512   4.950 -0.0308 -0.4232  0.2052
53685SOL    HW167018  10.877   3.503   5.041 -0.4541  0.6463  0.4618
53685SOL    HW267019  10.802   3.431   4.931 -0.5685 -0.3634  1.1871
53686SOL     OW67020   2.822  12.010   8.614 -0.5977  0.2123  0.4451
53686SOL    HW167021   2.781  12.001   8.700  1.7776 -0.1319  1.6125
53686SOL    HW267022   2.913  12.032   8.632  0.6875 -2.4515 -1.8759
53687SOL     OW67023   2.826   9.576   7.999 -0.0136 -0.2425 -0.0610
53687SOL    HW167024   2.867   9.561   8.084  0.0234 -1.8692 -0.3381
53687SOL    HW267025   2.740   9.613   8.020 -0.1022 -0.8637  0.7153
53688SOL     OW67026   9.787  12.345   7.665  0.3530  0.1783 -0.3932
53688SOL    HW167027   9.764  12.336   7.573 -2.9911 -0.4866  0.3837
53688SOL    HW267028   9.703  12.353   7.711  1.9243  1.9283  2.5019
53689SOL     OW67029  11.544   7.465   5.819  0.3504  0.0755  0.4116
53689SOL    HW167030  11.455   7.479   5.854  1.8912  2.4787  3.9720
53689SOL    HW267031  11.590   7.420   5.889  2.5734  1.1339 -0.2889
53690SOL     OW67032   0.177   4.416   5.354  0.1809  0.0188 -0.3116
53690SOL    HW167033   0.118   4.371   5.415  0.7443 -1.4259 -0.7984
53690SOL    HW267034   0.152   4.382   5.268  0.7715  0.4752 -0.6649
53691SOL     OW67035   6.815  10.748   2.350  0.5662  0.0377 -0.5734
53691SOL    HW167036   6.817  10.717   2.259 -1.9106 -1.2314 -0.2861
53691SOL    HW267037   6.817  10.668   2.402  0.1364  0.6648  0.4295
53692SOL     OW67038   9.917   8.072   2.164  0.1557  0.1080 -0.0086
53692SOL    HW167039   9.907   8.044   2.073  0.3538 -1.7814  0.4982
53692SOL    HW267040  10.011   8.064   2.182  0.1991  1.0274  0.2051
53693SOL     OW67041   5.037   4.703   3.936  0.4024  0.1328  0.6563
53693SOL    HW167042   5.017   4.671   4.024 -1.5236 -1.8671 -0.3843
53693SOL    HW267043   4.952   4.718   3.896  1.2298  0.8578 -0.9285
53694SOL     OW67044  12.013   7.145   7.033 -0.3939  0.5235  0.0854
53694SOL    HW167045  11.935   7.176   7.079 -0.8641  1.6657 -1.4177
53694SOL    HW267046  12.067   7.223   7.023 -0.0538  0.1848 -0.7956
53695SOL     OW67047   8.536   7.453  10.620  0.3105 -0.1825  0.2640
53695SOL    HW167048   8.604   7.386  10.617  0.1167 -0.3645 -0.1260
53695SOL    HW267049   8.575   7.530  10.578  0.0289 -0.5154 -0.6190
53696SOL     OW67050   5.349   0.201   8.864  0.3110 -0.7937  0.5391
53696SOL    HW167051   5.346   0.207   8.959  0.9640  0.9828  0.5026
53696SOL    HW267052   5.437   0.231   8.841  0.7014 -2.6213 -0.5761
53697SOL     OW67053   2.084   4.053   1.169 -0.2019  0.6369  0.4635
53697SOL    HW167054   2.112   4.020   1.255 -0.6815 -0.9754  0.0246
53697SOL    HW267055   2.078   3.975   1.114 -0.6585  1.5589 -0.8332
53698SOL     OW67056   0.501   6.340   6.487 -0.2839  0.0782  0.2226
53698SOL    HW167057   0.463   6.296   6.411 -0.5427  1.2785 -0.3724
53698SOL    HW267058   0.591   6.361   6.460 -0.5326  0.9539  0.0378
53699SOL     OW67059   0.262   5.652   9.976 -0.3058  0.2191 -0.0661
53699SOL    HW167060   0.280   5.618   9.889 -1.6262  0.1760 -0.3515
53699SOL    HW267061   0.215   5.734   9.961 -0.1087  0.4607  0.6026
53700SOL     OW67062   8.781   1.476   8.664 -0.3272  0.2695  0.6055
53700SOL    HW167063   8.727   1.471   8.585  1.0372  2.3229 -0.5288
53700SOL    HW267064   8.727   1.525   8.726 -0.4785  0.7566  0.0997
53701SOL     OW67065   6.213   1.527   5.164 -0.1814  0.5055  0.4077
53701SOL    HW167066   6.257   1.448   5.193  0.1599  0.3382 -0.5154
53701SOL    HW267067   6.180   1.568   5.244  0.4030 -0.1126  0.9728
53702SOL     OW67068   6.098   3.075   6.368 -0.2660  0.4721  0.6308
53702SOL    HW167069   6.070   3.024   6.444  0.6675  0.4282  0.9702
53702SOL    HW267070   6.192   3.087   6.382  0.2511 -0.8869 -1.3040
53703SOL     OW67071  11.856   3.591  12.387  0.2560 -0.2354  0.6132
53703SOL    HW167072  11.900   3.580  12.303 -1.5691  0.3933 -0.4667
53703SOL    HW267073  11.890   3.674  12.421  0.3666 -0.0659  0.0903
53704SOL     OW67074   5.229   3.596   6.081  0.3451  0.0788  0.2655
53704SOL    HW167075   5.195   3.614   5.993 -0.6695 -1.8993  0.2016
53704SOL    HW267076   5.294   3.527   6.067  0.7542  0.3108  0.9895
53705SOL     OW67077   5.095   6.572   0.303 -0.3138  0.0716  0.2723
53705SOL    HW167078   5.117   6.569   0.210 -1.0841  0.5217  0.0624
53705SOL    HW267079   5.146   6.646   0.337  0.4229 -0.4659  0.3381
53706SOL     OW67080   6.562   8.731   4.573 -0.2218 -0.2080  0.0780
53706SOL    HW167081   6.627   8.802   4.570 -2.2906  1.8101  0.4879
53706SOL    HW267082   6.561   8.696   4.483  0.5794  0.5219 -0.2334
53707SOL     OW67083   3.125  11.410   4.440  0.3631  0.5534 -0.0885
53707SOL    HW167084   3.063  11.451   4.380  0.9862  0.6982 -0.6489
53707SOL    HW267085   3.153  11.330   4.396 -0.0170  0.0852  0.5139
53708SOL     OW67086  11.252   8.149   4.256  0.3489 -0.1120  0.1420
53708SOL    HW167087  11.205   8.069   4.234 -0.4327  0.3189  0.2218
53708SOL    HW267088  11.212   8.180   4.336  1.5834 -0.3698  0.8940
53709SOL     OW67089   8.049   8.179   8.473 -0.7832  0.1731 -0.0493
53709SOL    HW167090   7.992   8.164   8.398  0.3295  1.5641 -1.2252
53709SOL    HW267091   8.012   8.255   8.517 -2.0753 -1.2886  1.5236
53710SOL     OW67092   4.712  10.079   6.390 -0.1664 -0.2448 -0.3509
53710SOL    HW167093   4.698  10.059   6.482  0.5030 -1.8895 -0.5848
53710SOL    HW267094   4.632  10.050   6.346  0.2035 -1.0717 -0.4953
53711SOL     OW67095   7.968  11.442   0.738  0.3591 -0.0631 -0.0247
53711SOL    HW167096   7.882  11.403   0.753  0.2151  1.1195  2.6551
53711SOL    HW267097   7.954  11.500   0.663 -1.0530 -0.2221  0.0818
53712SOL     OW67098  11.044  10.552   5.475  0.1336 -0.1730 -0.1673
53712SOL    HW167099  10.949  10.562   5.480 -0.1203 -1.5879 -1.5556
53712SOL    HW267100  11.069  10.597   5.394  0.6613  0.1670  0.1751
53713SOL     OW67101  10.987  10.472   9.070  0.0474  0.6927  0.0415
53713SOL    HW167102  10.900  10.441   9.096  0.4615 -0.3217  0.2379
53713SOL    HW267103  11.010  10.418   8.994  1.3834 -0.5117  1.2516
53714SOL     OW67104  11.486   7.778   3.968 -0.6725 -0.4121  0.4772
53714SOL    HW167105  11.420   7.819   4.024 -1.2044 -0.5893 -0.0126
53714SOL    HW267106  11.439   7.710   3.921 -0.7641  1.0831 -1.7488
53715SOL     OW67107   8.527   3.680   5.225 -0.3977  0.0732 -0.1986
53715SOL    HW167108   8.617   3.705   5.244 -0.8178  0.0177  2.2367
53715SOL    HW267109   8.534   3.609   5.161  1.3210 -0.2660  0.3127
53716SOL     OW67110   7.532   4.097   4.295  0.1087  0.5116  0.1379
53716SOL    HW167111   7.575   4.049   4.366  0.8277 -0.1834 -0.7293
53716SOL    HW267112   7.593   4.167   4.273 -1.0206  1.9794  1.5147
53717SOL     OW67113   2.237   6.521  12.067  0.2279  0.1616  0.3499
53717SOL    HW167114   2.241   6.471  12.149  2.4566  1.2854  1.0231
53717SOL    HW267115   2.205   6.458  12.002  0.4665 -1.3844  1.6691
53718SOL     OW67116   4.012   4.061   2.937  0.2364  0.1944 -0.2238
53718SOL    HW167117   4.084   4.049   2.876  0.4960  1.3007 -0.1684
53718SOL    HW267118   4.025   4.150   2.971  0.9610 -0.8569  2.5454
53719SOL     OW67119   5.219   6.141   0.563 -0.7860 -0.0891 -0.7476
53719SOL    HW167120   5.270   6.144   0.644 -0.7886 -2.9987 -0.5100
53719SOL    HW267121   5.219   6.231   0.531 -1.7740  1.4655  3.0469
53720SOL     OW67122   3.897  12.180  10.984 -0.2376  0.2619 -0.4980
53720SOL    HW167123   3.820  12.236  10.978 -0.9246 -0.7289 -1.4035
53720SOL    HW267124   3.910  12.147  10.895  0.9146 -0.0099 -0.2469
53721SOL     OW67125   8.531   6.223   6.958  0.2651  0.1779 -0.6254
53721SOL    HW167126   8.515   6.317   6.956 -1.3241 -0.0712 -0.2825
53721SOL    HW267127   8.445   6.183   6.952  0.8521 -1.2564  0.0042
53722SOL     OW67128   7.252   0.409  11.306  0.2605  0.0785 -0.3648
53722SOL    HW167129   7.301   0.389  11.226  0.1904  1.3114 -0.7292
53722SOL    HW267130   7.319   0.427  11.372  0.3318  1.5367 -0.8043
53723SOL     OW67131  12.242   2.583   1.544  0.2502  0.1854 -0.0350
53723SOL    HW167132  12.294   2.648   1.497 -0.9343 -0.0213 -1.7483
53723SOL    HW267133  12.307   2.528   1.588  1.3693  1.2002 -0.3508
53724SOL     OW67134   1.099   0.407   8.024 -0.0194  0.2505 -0.8646
53724SOL    HW167135   1.112   0.444   7.937 -0.1635 -1.1981 -1.5200
53724SOL    HW267136   1.005   0.413   8.039  0.0405  0.7753 -0.6686
53725SOL     OW67137   6.447   8.100  12.263 -0.1017 -0.2456  0.1893
53725SOL    HW167138   6.519   8.045  12.231 -0.0575  0.2694 -0.6145
53725SOL    HW267139   6.488   8.183  12.286 -0.3752 -0.0804  0.0875
53726SOL     OW67140  11.508   7.041  12.488  0.2297  0.1138  0.4854
53726SOL    HW167141  11.577   7.054  12.553  1.5166 -0.2322 -0.7673
53726SOL    HW267142  11.506   7.122  12.438 -0.5235  0.2485  0.7132
53727SOL     OW67143   3.306   2.226   0.858 -0.0211  0.5402 -0.5036
53727SOL    HW167144   3.230   2.269   0.898  1.2142  3.1458 -0.7430
53727SOL    HW267145   3.300   2.248   0.765 -0.8723 -2.3553 -1.2305
53728SOL     OW67146   4.892   3.465  10.785 -0.1004  0.6873 -0.5843
53728SOL    HW167147   4.840   3.444  10.708 -0.5203  0.4639 -0.2474
53728SOL    HW267148   4.883   3.560  10.796 -0.0463  0.7170 -0.8041
53729SOL     OW67149  10.746   6.048   0.866  0.2325 -0.0547 -0.1345
53729SOL    HW167150  10.787   6.019   0.947  1.5310  1.7001 -0.1109
53729SOL    HW267151  10.670   5.991   0.856  0.1604 -0.4609  2.1787
53730SOL     OW67152  10.221   4.427  10.956 -0.3308 -0.0523  0.0587
53730SOL    HW167153  10.249   4.349  11.002 -1.4844  0.0720  1.0031
53730SOL    HW267154  10.225   4.497  11.021 -0.9173  0.3488 -0.3168
53731SOL     OW67155  11.747  10.738  10.226  0.1754  0.1194 -0.3526
53731SOL    HW167156  11.722  10.646  10.218  1.6728 -0.3439  0.0275
53731SOL    HW267157  11.798  10.756  10.148  1.5661  0.0461  0.5154
53732SOL     OW67158   8.130   8.202  10.050  0.2501  0.2987 -0.1298
53732SOL    HW167159   8.137   8.253  10.130  1.2572  0.4334 -0.2942
53732SOL    HW267160   8.219   8.175  10.030 -0.2318 -1.5059 -0.0704
53733SOL     OW67161   8.295   8.625   8.243  0.1154  0.4228  0.1381
53733SOL    HW167162   8.318   8.533   8.232  0.7115  0.7162 -1.3747
53733SOL    HW267163   8.298   8.640   8.337  0.1079 -1.0720  0.3963
53734SOL     OW67164  11.984   5.176   7.701 -0.0678  0.8380  0.2896
53734SOL    HW167165  11.963   5.258   7.656 -1.3831  0.6265  0.4661
53734SOL    HW267166  12.041   5.201   7.773  0.1491  1.4869 -0.1016
53735SOL     OW67167   4.724   1.332   2.732  0.4082  0.1062 -0.3679
53735SOL    HW167168   4.647   1.385   2.751  0.6243  0.2761  0.0370
53735SOL    HW267169   4.795   1.395   2.722  0.6291 -0.0929 -0.0639
53736SOL     OW67170   4.638  12.069   4.054  0.7137  0.4292  0.1754
53736SOL    HW167171   4.726  12.092   4.085  0.4009  1.3341  0.4088
53736SOL    HW267172   4.584  12.070   4.133  0.5571 -0.5145  0.0939
53737SOL     OW67173   3.458   2.975   7.137 -0.8701  0.2252  0.5543
53737SOL    HW167174   3.523   3.032   7.179  0.2501 -0.4901 -0.1750
53737SOL    HW267175   3.499   2.889   7.136 -1.4887 -0.0675 -0.6851
53738SOL     OW67176   8.845   8.772   5.659 -0.4502 -0.1073  0.9593
53738SOL    HW167177   8.752   8.795   5.655 -0.0757  1.4127 -0.0120
53738SOL    HW267178   8.852   8.693   5.605 -0.9593  0.6631 -0.2964
53739SOL     OW67179  10.341   7.189   2.057  0.1358  0.6196 -0.2240
53739SOL    HW167180  10.339   7.168   1.963 -0.6498  0.6944 -0.2336
53739SOL    HW267181  10.263   7.242   2.071 -0.9008 -1.0602  0.8497
53740SOL     OW67182   4.523   2.006   3.091  0.0247  0.0074 -0.5681
53740SOL    HW167183   4.495   2.026   3.181  5.0594 -0.0013  1.3669
53740SOL    HW267184   4.566   2.086   3.061  1.3224 -1.0261 -1.5878
53741SOL     OW67185   8.960   9.635   8.529  0.6640  0.0070  0.1957
53741SOL    HW167186   8.930   9.643   8.620  0.0244 -0.0603 -0.0059
53741SOL    HW267187   8.921   9.711   8.485  1.0420  0.0858 -0.0035
53742SOL     OW67188   9.754   8.139   6.199  0.4218 -0.3261  0.3051
53742SOL    HW167189   9.731   8.062   6.251 -2.0875  0.3782  0.3945
53742SOL    HW267190   9.754   8.211   6.262 -1.0363  0.2775 -0.3284
53743SOL     OW67191   6.470   3.683   9.442 -0.2501  0.0728  0.1292
53743SOL    HW167192   6.409   3.706   9.512 -0.6372  0.9806 -0.4928
53743SOL    HW267193   6.454   3.590   9.426 -0.8956  0.1104  0.5278
53744SOL     OW67194  11.219  11.513  11.269  0.1840 -0.5564 -0.2073
53744SOL    HW167195  11.208  11.593  11.217  0.0748 -0.1770  0.3882
53744SOL    HW267196  11.255  11.544  11.352 -3.8559 -0.5291  1.7831
53745SOL     OW67197  11.846   4.320   9.963 -0.4853  0.2510  0.4790
53745SOL    HW167198  11.929   4.369   9.967 -0.6669  0.7929 -1.4703
53745SOL    HW267199  11.872   4.229   9.979  0.7609  0.1869 -1.5146
53746SOL     OW67200   4.734  10.362   2.221  0.4560 -0.3056 -0.1770
53746SOL    HW167201   4.659  10.313   2.257 -0.1645  0.4142 -0.4728
53746SOL    HW267202   4.756  10.425   2.290  0.4879 -0.2049 -0.2795
53747SOL     OW67203   4.061  10.600   8.796  0.2141 -0.0286 -0.7463
53747SOL    HW167204   4.100  10.668   8.741 -0.2294  0.3587 -0.5833
53747SOL    HW267205   4.107  10.609   8.880  0.9609 -0.6839 -1.0627
53748SOL     OW67206   6.711   5.356   0.825 -0.0916 -0.1857 -0.6416
53748SOL    HW167207   6.707   5.417   0.899  1.1308 -1.3875  0.4606
53748SOL    HW267208   6.649   5.287   0.847  0.0257 -0.3794 -0.9165
53749SOL     OW67209   8.052   4.584   2.600  0.6523 -0.1455  0.1033
53749SOL    HW167210   8.012   4.509   2.555  0.2829  0.2476 -0.2227
53749SOL    HW267211   8.025   4.574   2.691 -0.9751  0.6248 -0.2715
53750SOL     OW67212   1.391   6.444  11.434  0.5558  0.6467  0.5112
53750SOL    HW167213   1.322   6.415  11.494  0.0975  0.3028 -0.1723
53750SOL    HW267214   1.473   6.415  11.475  0.1190 -2.1134 -0.3688
53751SOL     OW67215   1.829   9.907  11.231 -0.0787 -0.3982 -0.0108
53751SOL    HW167216   1.888   9.886  11.304  1.5918 -0.0567 -1.1843
53751SOL    HW267217   1.806   9.999  11.245  0.2532 -0.3290  0.1007
53752SOL     OW67218   8.441   1.070  11.258 -0.2107 -0.1300  0.5110
53752SOL    HW167219   8.456   1.069  11.353 -0.0438 -0.3397  0.4834
53752SOL    HW267220   8.347   1.057  11.249 -0.0114 -1.8837  0.6014
53753SOL     OW67221  12.410  11.072   7.458 -0.2762 -0.4330 -0.0156
53753SOL    HW167222  12.364  11.037   7.534 -0.7791  1.6563  0.7095
53753SOL    HW267223  12.342  11.113   7.405  0.5375  1.7450  0.5192
53754SOL     OW67224  11.015   6.766   9.134  0.0385 -0.1473  0.2789
53754SOL    HW167225  10.971   6.833   9.082 -0.0078  0.0576  0.5856
53754SOL    HW267226  11.078   6.727   9.073  0.5397  0.6272  0.2798
53755SOL     OW67227  11.138   0.169   6.392  0.0255  0.2734  0.3709
53755SOL    HW167228  11.085   0.110   6.338 -0.1490  1.0406 -0.3232
53755SOL    HW267229  11.142   0.127   6.477  0.5776 -1.1299 -0.3256
53756SOL     OW67230   6.687   8.544   7.192 -0.0610 -0.4252 -0.1613
53756SOL    HW167231   6.648   8.537   7.279  0.8590  0.0525  0.3091
53756SOL    HW267232   6.781   8.555   7.208 -0.1214  2.2148 -1.0785
53757SOL     OW67233   6.861   1.259  11.156 -0.1518 -0.0050 -0.0146
53757SOL    HW167234   6.834   1.201  11.085 -0.0757  2.8822 -2.6127
53757SOL    HW267235   6.953   1.277  11.138 -0.4264  1.6382  0.1390
53758SOL     OW67236   3.914  12.305   4.176  0.4425  0.1536  0.2167
53758SOL    HW167237   3.935  12.242   4.107 -1.1442 -0.9415  0.6804
53758SOL    HW267238   3.883  12.383   4.129 -2.4102 -1.2222 -0.3940
53759SOL     OW67239   9.980   4.500   4.471 -0.3558 -0.5219  0.0780
53759SOL    HW167240   9.898   4.493   4.521 -0.5677  4.0383  0.7816
53759SOL    HW267241   9.951   4.512   4.380 -0.2950 -1.0334 -0.0175
53760SOL     OW67242  10.441   2.376   4.936  0.0597 -0.8526 -0.3897
53760SOL    HW167243  10.503   2.344   4.870  0.5605 -0.7027 -0.0003
53760SOL    HW267244  10.477   2.345   5.019 -0.0289 -0.1992 -0.1024
53761SOL     OW67245   0.466   9.412   1.747  0.0790 -0.0034 -0.1761
53761SOL    HW167246   0.510   9.496   1.758  1.1510 -0.3550 -1.4840
53761SOL    HW267247   0.468   9.396   1.652 -0.0523 -1.5276  0.0482
53762SOL     OW67248   3.521   9.561   0.769 -0.9287 -0.0589 -0.1734
53762SOL    HW167249   3.567   9.512   0.837 -0.5715 -1.2967 -1.2618
53762SOL    HW267250   3.506   9.647   0.808 -0.0622 -0.4825  1.1856
53763SOL     OW67251   4.271   7.440   1.186  0.0729 -0.2114  0.5701
53763SOL    HW167252   4.189   7.431   1.138  0.1725 -0.0103  0.3574
53763SOL    HW267253   4.283   7.356   1.230  0.0938 -0.4799  0.0579
53764SOL     OW67254   1.507  10.918   0.331 -0.5812 -0.0740  0.1108
53764SOL    HW167255   1.557  10.922   0.249  0.4157  1.7039  0.7574
53764SOL    HW267256   1.573  10.915   0.400 -1.3253  1.8027  0.9748
53765SOL     OW67257   8.448   7.104   6.766  0.0234 -0.5194 -0.3700
53765SOL    HW167258   8.521   7.154   6.804 -1.2847  1.3921 -0.2127
53765SOL    HW267259   8.393   7.082   6.841 -1.0343  0.6492 -0.7639
53766SOL     OW67260  12.192   3.140   1.683 -0.1754  0.5331  0.6712
53766SOL    HW167261  12.202   3.186   1.767 -0.1482  0.3798  0.7523
53766SOL    HW267262  12.202   3.209   1.617  0.1054  0.6029  0.7853
53767SOL     OW67263   2.111   8.941   8.320  0.0384 -0.0073 -0.4853
53767SOL    HW167264   2.175   9.006   8.350  0.2293 -0.1618 -0.5577
53767SOL    HW267265   2.150   8.857   8.341 -0.7558 -0.1021  0.7306
53768SOL     OW67266   6.832   4.377  11.695  0.1808  0.3526  0.2459
53768SOL    HW167267   6.870   4.289  11.694  1.7537  0.9784 -0.8278
53768SOL    HW267268   6.885   4.425  11.758  0.0065  0.7781  0.0706
53769SOL     OW67269   9.297   8.509   3.669 -0.1102  0.1786 -0.1799
53769SOL    HW167270   9.202   8.517   3.677 -0.2200 -0.8389 -0.4007
53769SOL    HW267271   9.332   8.570   3.734 -0.8909  2.0764 -1.4608
53770SOL     OW67272   8.358   9.189   8.548  0.0711  0.3898  0.2611
53770SOL    HW167273   8.287   9.250   8.566 -1.3132 -1.2972  0.8408
53770SOL    HW267274   8.425   9.211   8.612  0.6842  2.8410 -1.0975
53771SOL     OW67275   2.109   3.099  11.355 -0.0874 -0.5566  0.3158
53771SOL    HW167276   2.062   3.018  11.335 -0.9181 -0.5403  1.9987
53771SOL    HW267277   2.054   3.168  11.317 -0.9665 -0.6041  1.4472
53772SOL     OW67278  11.547   5.599  11.696  0.6753  0.2340 -0.1076
53772SOL    HW167279  11.584   5.636  11.777 -1.6462  1.4889  0.4595
53772SOL    HW267280  11.526   5.675  11.642  0.3472 -0.5047 -1.0510
53773SOL     OW67281  10.630   3.917   1.192 -0.3865  0.0419  0.1529
53773SOL    HW167282  10.556   3.864   1.222 -1.7467  1.5562 -0.3882
53773SOL    HW267283  10.646   3.979   1.262  0.3122 -0.1978  0.2141
53774SOL     OW67284   9.663   6.314   8.567  0.1600 -0.0950 -0.0806
53774SOL    HW167285   9.754   6.315   8.537  0.7522  1.0552  1.5714
53774SOL    HW267286   9.650   6.226   8.600  1.1604  0.1108  0.9359
53775SOL     OW67287   5.670  10.274   8.286  0.2731  0.0441  0.5041
53775SOL    HW167288   5.722  10.305   8.212  0.4233  0.2479  0.6942
53775SOL    HW267289   5.727  10.212   8.332 -0.5977 -1.8404 -0.8116
53776SOL     OW67290   9.065   6.240   4.837 -0.5981 -0.3485  0.4513
53776SOL    HW167291   9.136   6.189   4.797 -1.3026 -1.1523  0.2088
53776SOL    HW267292   9.070   6.325   4.793  0.9197  0.0060  1.2232
53777SOL     OW67293   5.195  11.108   6.965 -0.2500  0.2060 -0.2159
53777SOL    HW167294   5.106  11.080   6.986  0.6062 -0.7606  2.5055
53777SOL    HW267295   5.207  11.084   6.873 -1.6524 -2.8757  0.2948
53778SOL     OW67296   8.195  10.093  10.113 -0.3334 -0.4801  0.4252
53778SOL    HW167297   8.164  10.182  10.129 -0.3597 -0.3038 -0.5798
53778SOL    HW267298   8.116  10.039  10.115 -0.2582 -0.5937  1.6243
53779SOL     OW67299   6.858   0.885  10.720 -0.2750 -0.2053  0.0469
53779SOL    HW167300   6.846   0.900  10.626 -0.5073  0.0865  0.1222
53779SOL    HW267301   6.772   0.860  10.751  0.4541 -3.8320 -0.4422
53780SOL     OW67302   0.712   1.454   7.132  0.2954  0.6011 -0.0933
53780SOL    HW167303   0.711   1.535   7.082 -4.3803  1.0648  0.2887
53780SOL    HW267304   0.641   1.401   7.095  0.4137 -1.5017  2.3380
53781SOL     OW67305   8.719  10.803   0.010 -0.8488  0.4258 -0.0894
53781SOL    HW167306   8.703  10.758  -0.073  1.2597  0.3629 -0.5374
53781SOL    HW267307   8.682  10.745   0.077 -1.3401 -0.2063 -0.8916
53782SOL     OW67308  10.735  11.463   5.027  0.1707  0.2191  0.7686
53782SOL    HW167309  10.718  11.447   5.120 -0.8078 -0.1350  0.5495
53782SOL    HW267310  10.717  11.556   5.014 -1.8848 -0.1617  0.5255
53783SOL     OW67311  10.605   8.612   1.582 -0.2198 -0.0871 -0.2704
53783SOL    HW167312  10.690   8.655   1.583 -0.2585 -0.0108 -0.2121
53783SOL    HW267313  10.602   8.564   1.665 -0.0320 -0.4897 -0.4924
53784SOL     OW67314   1.277   5.620   6.334  0.1201 -0.0979  0.1694
53784SOL    HW167315   1.317   5.692   6.285 -0.1013  0.0315  0.1805
53784SOL    HW267316   1.245   5.560   6.266 -0.6715  0.3430  0.1440
53785SOL     OW67317   1.804   3.156   9.570 -0.5038 -0.1766  0.2510
53785SOL    HW167318   1.776   3.128   9.657  0.9606 -0.7359  0.5753
53785SOL    HW267319   1.795   3.078   9.516  0.3991 -0.3835  0.3738
53786SOL     OW67320  10.425   4.607   0.933 -0.0781  0.3973 -0.1509
53786SOL    HW167321  10.341   4.562   0.941  0.0694 -0.0996 -1.1864
53786SOL    HW267322  10.448   4.632   1.023 -0.7325 -0.5651  0.3026
53787SOL     OW67323  12.401   3.272   0.671  0.4238 -0.1488 -0.9469
53787SOL    HW167324  12.419   3.328   0.595  0.5776 -1.4044 -1.8853
53787SOL    HW267325  12.345   3.203   0.636 -0.6448 -0.0131  0.4191
53788SOL     OW67326   2.928   7.390  11.184  0.2633  0.1941  0.3160
53788SOL    HW167327   2.930   7.311  11.237 -1.7918 -0.1712 -0.0529
53788SOL    HW267328   2.966   7.458  11.240  1.1369 -0.8449  1.0047
53789SOL     OW67329   5.932   9.051   8.339  0.1754  0.2993 -0.2164
53789SOL    HW167330   5.950   8.971   8.388 -1.0110  0.0890 -0.1083
53789SOL    HW267331   5.877   9.023   8.266 -2.3302  1.3081  1.1623
53790SOL     OW67332   0.721   9.160  11.609 -0.0694 -0.1990 -0.2509
53790SOL    HW167333   0.715   9.091  11.543  3.0416 -1.9795  1.1184
53790SOL    HW267334   0.766   9.232  11.563  2.3654 -1.5433 -0.1391
53791SOL     OW67335   4.240   9.097   6.616  0.3180  0.0857  0.6250
53791SOL    HW167336   4.294   9.160   6.568 -0.7463  0.5129 -0.0495
53791SOL    HW267337   4.302   9.047   6.668  1.5821 -0.6249 -1.4434
53792SOL     OW67338  10.105   8.196   3.364  0.2057  0.5802 -0.1047
53792SOL    HW167339  10.145   8.152   3.439 -1.1068 -0.3325  0.0857
53792SOL    HW267340  10.175   8.250   3.328  1.1178  0.3310  1.2279
53793SOL     OW67341   3.353   9.444   5.837 -0.1309  0.1596  0.0961
53793SOL    HW167342   3.399   9.403   5.910  0.1585 -1.5527 -0.9982
53793SOL    HW267343   3.405   9.521   5.816 -0.4819  0.9457  1.9699
53794SOL     OW67344   3.479   2.169   1.492 -0.1126 -0.9125  0.3969
53794SOL    HW167345   3.459   2.168   1.585  0.2197  2.9472  0.6747
53794SOL    HW267346   3.417   2.231   1.455  1.0351 -0.8718 -1.5910
53795SOL     OW67347  10.918   5.215   2.376 -0.2476  0.5601  0.3685
53795SOL    HW167348  10.889   5.138   2.424 -2.0643  0.8286 -0.2387
53795SOL    HW267349  10.933   5.183   2.287  0.6739  0.5770  0.5067
53796SOL     OW67350   1.715   4.256   4.034 -0.6564  0.1781  0.0511
53796SOL    HW167351   1.663   4.229   3.958 -1.0645 -0.6125  0.5987
53796SOL    HW267352   1.756   4.338   4.007 -3.5666  1.8273  0.1844
53797SOL     OW67353   8.449   7.277   0.574 -0.2943  0.2694  0.1315
53797SOL    HW167354   8.517   7.298   0.638  0.5261 -0.9447 -0.3133
53797SOL    HW267355   8.400   7.359   0.564  0.0120  0.6870  1.7430
53798SOL     OW67356   1.282  12.080   1.105 -0.3576 -0.0501 -0.6089
53798SOL    HW167357   1.193  12.115   1.110 -0.5902 -0.4865 -1.4921
53798SOL    HW267358   1.337  12.157   1.097 -0.7012  0.2071 -0.5334
53799SOL     OW67359   2.433   5.466  11.032 -0.2319 -0.1904  0.3643
53799SOL    HW167360   2.458   5.471  11.124  0.1428  1.2567  0.1933
53799SOL    HW267361   2.408   5.555  11.008  1.6436 -0.0824 -1.4721
53800SOL     OW67362   5.297   4.956   9.849 -0.1085  0.6484  0.5358
53800SOL    HW167363   5.388   4.974   9.875 -0.0630  1.5439 -0.1689
53800SOL    HW267364   5.267   5.039   9.813 -0.1823 -0.4849 -2.1856
53801SOL     OW67365   0.763   0.859   6.907  0.3922  0.5738  0.4496
53801SOL    HW167366   0.765   0.883   6.814 -2.3998 -1.4432 -0.2956
53801SOL    HW267367   0.848   0.819   6.923  1.0292  1.1756 -1.1756
53802SOL     OW67368   4.149   4.200   3.822  0.1696  0.0536 -0.3667
53802SOL    HW167369   4.089   4.186   3.749 -2.9232  0.7660  1.8613
53802SOL    HW267370   4.168   4.294   3.820 -0.6067  0.2349  0.1776
53803SOL     OW67371  10.646   6.913   6.844 -0.5145 -0.3048  0.2745
53803SOL    HW167372  10.651   6.940   6.936 -1.2071 -1.3023  0.6265
53803SOL    HW267373  10.727   6.865   6.828  0.3138  1.1566 -0.0994
53804SOL     OW67374  10.623   1.444  12.289  0.3955 -0.7148  0.0073
53804SOL    HW167375  10.536   1.405  12.281 -0.1575  0.5674 -0.5689
53804SOL    HW267376  10.635   1.491  12.206  1.0530  0.2554  0.6408
53805SOL     OW67377  10.033  11.007   9.112 -0.0374  0.1723  0.0476
53805SOL    HW167378   9.977  11.042   9.042 -2.6762 -0.3645  1.7397
53805SOL    HW267379   9.983  10.934   9.149  2.5701 -1.4603  0.6540
53806SOL     OW67380   2.505   2.354  11.388  0.0796  0.2877 -0.5679
53806SOL    HW167381   2.595   2.373  11.416  0.3488 -0.2831 -1.0193
53806SOL    HW267382   2.453   2.363  11.467  0.7484 -0.7518  0.0111
53807SOL     OW67383  10.755   6.397   8.667  0.5765  0.4328  0.3656
53807SOL    HW167384  10.766   6.426   8.758 -0.0133  1.3006  0.1804
53807SOL    HW267385  10.835   6.424   8.623  1.1815 -0.6474  0.7736
53808SOL     OW67386   0.082   4.547   2.033  0.4549  0.4461  0.3514
53808SOL    HW167387   0.120   4.634   2.030 -1.9538  1.6320  1.5757
53808SOL    HW267388   0.065   4.531   2.126 -2.7531  0.4358 -0.1075
53809SOL     OW67389   7.200  10.704  10.784  0.7374 -0.0920  0.0594
53809SOL    HW167390   7.230  10.687  10.695 -0.7041  1.1135 -0.6977
53809SOL    HW267391   7.267  10.762  10.821  1.0477 -0.1375 -0.4227
53810SOL     OW67392   6.296   8.639   0.886  0.2922 -0.2706 -0.2543
53810SOL    HW167393   6.352   8.702   0.840  0.5320 -0.1398  0.2004
53810SOL    HW267394   6.332   8.637   0.975 -1.2286  0.8148  0.4348
53811SOL     OW67395   7.631   9.982   2.439  0.1145  0.1559 -0.1873
53811SOL    HW167396   7.619   9.890   2.462  0.2971  0.6833  2.3792
53811SOL    HW267397   7.549  10.024   2.464 -0.7527  0.4475 -3.2328
53812SOL     OW67398   9.667  10.385   2.681  0.0172  0.2430  0.6174
53812SOL    HW167399   9.681  10.299   2.722  1.9684  0.5594  0.7249
53812SOL    HW267400   9.740  10.393   2.619 -1.8318  0.5578 -1.6368
53813SOL     OW67401   6.447   7.779   0.662  0.2561 -0.0861 -0.2345
53813SOL    HW167402   6.504   7.716   0.707  1.8727  0.9642 -0.7282
53813SOL    HW267403   6.451   7.858   0.717 -1.8904 -0.4101  0.4761
53814SOL     OW67404   6.210   9.557  12.385 -0.2678  0.2330  0.1757
53814SOL    HW167405   6.214   9.466  12.357  3.1202 -0.0823  1.2606
53814SOL    HW267406   6.167   9.554  12.471 -1.1795 -0.1645 -0.2882
53815SOL     OW67407   5.795   0.787   1.151  0.0725 -0.3652 -0.2115
53815SOL    HW167408   5.845   0.838   1.214 -0.3627  0.8909 -0.8549
53815SOL    HW267409   5.738   0.731   1.204  0.6219 -0.2545  0.4992
53816SOL     OW67410   3.982   7.021   9.867 -0.5310  0.6816  0.2931
53816SOL    HW167411   3.925   6.999   9.940 -0.9954 -1.6324 -0.6804
53816SOL    HW267412   3.950   7.106   9.836 -1.0180  1.1835  2.0559
53817SOL     OW67413   2.479  10.757   5.664 -0.0346  0.0633  0.0174
53817SOL    HW167414   2.571  10.748   5.686  0.4143 -1.3434 -2.1462
53817SOL    HW267415   2.478  10.816   5.589 -1.2556  2.4747  1.7550
53818SOL     OW67416   5.062   5.687  10.682 -0.5000  0.8170  0.2417
53818SOL    HW167417   5.108   5.647  10.757 -0.4054  2.4042  1.0831
53818SOL    HW267418   5.117   5.667  10.607 -0.2024 -0.1948  0.7118
53819SOL     OW67419   0.288   3.443   8.364 -0.3091 -0.3152  0.4579
53819SOL    HW167420   0.304   3.458   8.457 -0.4794  1.6294  0.2099
53819SOL    HW267421   0.265   3.529   8.329 -1.0213 -1.1405 -1.2399
53820SOL     OW67422   7.170   5.625   9.091  0.4461 -0.1786  0.2568
53820SOL    HW167423   7.084   5.623   9.050  0.4098  0.1168  0.3166
53820SOL    HW267424   7.224   5.567   9.036  0.0323 -0.9569  0.6498
53821SOL     OW67425   6.323   6.872  12.314  0.3460 -0.1431  0.1883
53821SOL    HW167426   6.391   6.837  12.256 -1.4228 -2.0487 -0.8682
53821SOL    HW267427   6.348   6.842  12.401  1.2929 -0.0752 -0.0514
53822SOL     OW67428   5.083   5.926   4.661 -0.0876 -0.4421  0.1528
53822SOL    HW167429   5.107   5.847   4.613 -1.0071 -0.0380 -1.0135
53822SOL    HW267430   5.162   5.980   4.659  0.6336 -1.4045  1.1800
53823SOL     OW67431   0.232   3.666   1.370 -1.1454 -0.1888  0.3376
53823SOL    HW167432   0.318   3.704   1.387 -1.0808 -0.5670  0.8780
53823SOL    HW267433   0.171   3.736   1.391 -0.9238  0.7073 -1.8075
53824SOL     OW67434   0.148   8.507   7.035  1.0747 -0.3875 -0.2100
53824SOL    HW167435   0.062   8.538   7.008  1.3830  0.5606 -0.1287
53824SOL    HW267436   0.146   8.413   7.016  0.1275 -0.3285 -0.4691
53825SOL     OW67437   9.745  10.165   3.824  0.1209  0.4563 -0.3771
53825SOL    HW167438   9.761  10.082   3.779  2.1718  1.7613 -2.2404
53825SOL    HW267439   9.678  10.144   3.889  1.3477 -2.8884  0.0046
53826SOL     OW67440   7.287   7.983  10.379 -0.3398 -0.0771  0.7143
53826SOL    HW167441   7.310   7.983  10.471 -1.7902  0.9050  1.1164
53826SOL    HW267442   7.203   7.937  10.375  0.1913 -1.0207 -0.2755
53827SOL     OW67443   7.244   4.451   7.216 -0.1532  0.1349 -0.8359
53827SOL    HW167444   7.265   4.459   7.309  1.9896 -2.5262 -0.9393
53827SOL    HW267445   7.176   4.515   7.200 -1.8311 -0.4783  2.9515
53828SOL     OW67446   3.605   5.064   7.895 -0.1129 -0.0337 -0.0869
53828SOL    HW167447   3.557   5.142   7.923  1.2888  0.3572  1.3498
53828SOL    HW267448   3.587   4.999   7.963  0.1560 -0.3923 -0.3533
53829SOL     OW67449   5.638  10.848   1.695  0.7754  0.0826 -0.5073
53829SOL    HW167450   5.684  10.776   1.652 -1.7452 -1.5031 -0.7160
53829SOL    HW267451   5.547  10.818   1.703 -0.2660  3.0063 -0.0660
53830SOL     OW67452   1.198   6.424   8.569 -0.0145  0.1432  0.0032
53830SOL    HW167453   1.269   6.487   8.579  0.7574 -0.9252  1.9168
53830SOL    HW267454   1.240   6.338   8.579 -1.6029 -0.4942  1.9014
53831SOL     OW67455   4.240  10.312   2.059 -0.4096 -0.0466  0.2118
53831SOL    HW167456   4.234  10.361   2.141 -1.2060  0.9114 -0.3895
53831SOL    HW267457   4.240  10.380   1.991  2.1340 -0.7089 -0.5519
53832SOL     OW67458  12.136  10.278   0.976  0.0488  0.4764 -0.3512
53832SOL    HW167459  12.192  10.264   0.899 -0.8586  0.0288 -0.9547
53832SOL    HW267460  12.073  10.344   0.948  0.1177  0.7972  0.2390
53833SOL     OW67461   4.789   0.766   3.776 -0.3056 -0.1785  0.0191
53833SOL    HW167462   4.867   0.820   3.787 -1.2032  0.9591  1.0805
53833SOL    HW267463   4.722   0.828   3.746 -1.2911 -0.7520  0.9839
53834SOL     OW67464   2.985   7.707   1.106  0.4599  0.2037 -0.4572
53834SOL    HW167465   3.042   7.634   1.130 -0.5225  0.1443  1.9512
53834SOL    HW267466   2.962   7.748   1.189 -1.8188  1.1298 -1.4713
53835SOL     OW67467   2.828   0.588   4.558 -0.2249 -0.2238  0.0638
53835SOL    HW167468   2.899   0.542   4.514 -0.3747 -0.3974  0.0060
53835SOL    HW267469   2.756   0.526   4.561  0.8371 -1.5095  3.6195
53836SOL     OW67470   3.771   2.993   2.611 -0.0826 -0.3393  0.1676
53836SOL    HW167471   3.830   2.926   2.645 -1.2049 -0.5364  1.8760
53836SOL    HW267472   3.819   3.075   2.621 -0.5145 -0.3192  2.8226
53837SOL     OW67473  10.043   8.879  10.292  0.3545 -0.3461 -0.1734
53837SOL    HW167474  10.075   8.968  10.280  0.6540 -0.4068  0.1754
53837SOL    HW267475   9.956   8.880  10.252 -0.2274  0.4824  1.0616
53838SOL     OW67476   7.996   0.477   9.972 -0.1834  0.8004 -0.4968
53838SOL    HW167477   7.944   0.480  10.052  0.6880 -0.4118  0.1331
53838SOL    HW267478   7.960   0.403   9.923  0.6862  0.2007 -0.2344
53839SOL     OW67479   6.323   5.292  10.090 -0.5336 -0.2327 -0.4550
53839SOL    HW167480   6.400   5.340  10.060 -1.7077  1.7352 -0.4873
53839SOL    HW267481   6.295   5.243  10.013  1.0881 -1.6160 -0.2283
53840SOL     OW67482   4.997   6.100   4.370 -0.4979 -0.0668  0.2801
53840SOL    HW167483   4.943   6.163   4.322 -1.6937 -1.2920 -0.0453
53840SOL    HW267484   4.934   6.039   4.408  0.6606 -2.7639 -1.7806
53841SOL     OW67485   6.768   7.084  11.605 -0.0759 -0.5796  1.0270
53841SOL    HW167486   6.812   7.021  11.663 -1.1962 -2.4617 -0.0581
53841SOL    HW267487   6.705   7.129  11.662 -0.4324 -1.6579  1.5172
53842SOL     OW67488   3.017   8.820   1.314  0.1943 -0.5752 -0.0204
53842SOL    HW167489   3.018   8.768   1.394 -1.9458 -0.8341 -0.1048
53842SOL    HW267490   3.101   8.800   1.272  0.7299 -1.5713  1.4194
53843SOL     OW67491   1.953   1.177   4.778 -0.4217  0.8852  0.3563
53843SOL    HW167492   1.959   1.083   4.762 -0.0439  1.0604 -0.5947
53843SOL    HW267493   2.042   1.203   4.802 -0.3582  1.1249 -0.1283
53844SOL     OW67494   8.264   9.512   6.702 -0.4152 -0.2401  0.2579
53844SOL    HW167495   8.305   9.437   6.745 -0.9426 -1.9965 -2.1267
53844SOL    HW267496   8.190   9.534   6.759 -1.0775 -2.4586  0.3492
53845SOL     OW67497  10.365   6.874   2.799  0.0748 -1.0733  0.2385
53845SOL    HW167498  10.436   6.873   2.735  0.5299 -3.3121  0.7180
53845SOL    HW267499  10.407   6.893   2.882 -0.2331 -0.2373  0.2185
53846SOL     OW67500   8.182   3.618  11.764  0.4914  0.2435 -0.2347
53846SOL    HW167501   8.132   3.698  11.750  0.4588  0.9418  2.9458
53846SOL    HW267502   8.266   3.633  11.721  0.5203  2.0566  0.3813
53847SOL     OW67503   7.610   9.934   5.092  0.1259  0.0979 -0.8223
53847SOL    HW167504   7.562   9.868   5.143  0.7311 -0.1837 -0.5951
53847SOL    HW267505   7.678   9.884   5.047 -0.1977  0.3993 -1.6482
53848SOL     OW67506  11.477  10.198   9.749 -0.1551 -0.0916 -0.1704
53848SOL    HW167507  11.383  10.208   9.763 -0.1246 -1.2730  1.0151
53848SOL    HW267508  11.487  10.199   9.654 -1.6341 -2.0674 -0.4048
53849SOL     OW67509   0.948   2.884   8.668 -0.6780 -0.3712  0.2036
53849SOL    HW167510   0.962   2.814   8.605  1.6110 -0.2661  0.5189
53849SOL    HW267511   0.924   2.839   8.749  2.7577 -1.0965  0.9889
53850SOL     OW67512   8.105   3.229  12.143  0.4305  0.4186  0.4782
53850SOL    HW167513   8.127   3.317  12.170 -0.4958  1.7140 -2.5123
53850SOL    HW267514   8.032   3.203  12.200 -0.4212  2.2967  0.2975
53851SOL     OW67515  10.264   9.615   1.820 -0.0340 -0.7940  0.3093
53851SOL    HW167516  10.259   9.563   1.901 -0.2430 -0.3131  0.6103
53851SOL    HW267517  10.324   9.566   1.764 -0.3752 -1.4623  0.5128
53852SOL     OW67518   0.909   1.713   8.820 -0.0579  0.4932  0.2170
53852SOL    HW167519   0.976   1.657   8.781  1.2614  2.0888  0.1033
53852SOL    HW267520   0.831   1.657   8.824  0.9526 -1.0637 -0.6746
53853SOL     OW67521   3.891   0.819   5.098  0.0529 -0.3959 -0.2305
53853SOL    HW167522   3.864   0.784   5.013  1.2947 -0.2010 -0.7286
53853SOL    HW267523   3.925   0.743   5.145  0.3082 -0.3322 -0.3079
53854SOL     OW67524   8.496   6.528   5.418  0.5385  0.4500  0.8470
53854SOL    HW167525   8.516   6.480   5.499  1.5806  0.3876  0.5661
53854SOL    HW267526   8.575   6.520   5.365 -0.5626 -0.5907 -0.7293
53855SOL     OW67527   0.213   0.062   5.445 -0.2997 -0.1396  0.1623
53855SOL    HW167528   0.257   0.120   5.383 -0.5586 -0.3412 -0.2163
53855SOL    HW267529   0.127   0.046   5.406 -0.4828 -0.2361  0.5961
53856SOL     OW67530   5.694   6.718  10.345  0.3579 -0.7162 -0.6629
53856SOL    HW167531   5.618   6.777  10.350  1.9593  1.3270  1.9090
53856SOL    HW267532   5.661   6.634  10.374 -0.9616  0.1120  0.3386
53857SOL     OW67533   9.665   1.947   2.905 -0.0924  0.1863  0.2545
53857SOL    HW167534   9.719   2.013   2.949  0.9309 -1.2673  1.2944
53857SOL    HW267535   9.725   1.874   2.889 -1.3116 -0.7155 -0.3544
53858SOL     OW67536   1.348   7.500  11.891 -0.3788  0.2632 -0.1208
53858SOL    HW167537   1.393   7.482  11.973 -0.2893 -0.5981 -0.3509
53858SOL    HW267538   1.419   7.515  11.828 -0.4422  2.1304  0.1893
53859SOL     OW67539  11.677  10.373   7.065 -0.2800 -0.6559 -0.3683
53859SOL    HW167540  11.766  10.398   7.090  0.0720 -2.0830 -0.0899
53859SOL    HW267541  11.687  10.332   6.979 -0.5189 -1.5770  0.0224
53860SOL     OW67542   5.400   1.458   3.752 -0.3717 -0.2660  0.0566
53860SOL    HW167543   5.470   1.504   3.704 -0.5018 -0.6116 -0.4644
53860SOL    HW267544   5.352   1.528   3.796 -0.1195  0.0338 -0.1370
53861SOL     OW67545  12.210   4.734   4.484  0.0127 -0.4941 -0.0381
53861SOL    HW167546  12.164   4.651   4.469  0.7247 -0.6073 -1.8983
53861SOL    HW267547  12.145   4.790   4.526 -1.5676 -0.9886 -1.6719
53862SOL     OW67548  12.439   9.079   5.243 -0.0195 -0.2232  0.2202
53862SOL    HW167549  12.367   9.039   5.194  0.5077  0.3644 -1.0705
53862SOL    HW267550  12.455   9.018   5.315 -0.3519 -1.4830 -0.7316
53863SOL     OW67551  12.096   5.775   8.323 -0.1800 -0.3268  0.5279
53863SOL    HW167552  12.004   5.750   8.321 -0.1135 -0.5399 -0.2338
53863SOL    HW267553  12.101   5.853   8.268  0.5210 -1.9036 -1.8330
53864SOL     OW67554   0.379   2.673  11.297  0.4244  0.0677 -0.8433
53864SOL    HW167555   0.463   2.636  11.270  0.7909  0.7125 -0.6214
53864SOL    HW267556   0.402   2.759  11.332 -0.3373  0.2579 -0.8079
53865SOL     OW67557   0.826   7.794   2.091  0.4746 -0.0022  0.2439
53865SOL    HW167558   0.765   7.746   2.147  0.1966 -1.5231 -1.3170
53865SOL    HW267559   0.821   7.884   2.124 -1.6907 -0.3079  0.9311
53866SOL     OW67560   2.407   8.603   3.544 -0.0815  0.0642  0.0164
53866SOL    HW167561   2.343   8.653   3.492 -2.1753 -0.7538  1.6644
53866SOL    HW267562   2.471   8.572   3.479 -1.2051  1.1356 -1.6906
53867SOL     OW67563  12.430   4.491   8.029 -0.0970  0.2537  0.3024
53867SOL    HW167564  12.370   4.518   8.098 -0.4518  1.7232 -0.5274
53867SOL    HW267565  12.392   4.411   7.993 -0.8810  0.4826  0.6120
53868SOL     OW67566  11.164   1.437   3.207  0.6051  0.4517  0.1285
53868SOL    HW167567  11.148   1.497   3.280 -0.2058  1.0781 -0.5270
53868SOL    HW267568  11.130   1.485   3.130  0.7386 -0.4992 -0.5368
53869SOL     OW67569   8.878  10.958  12.193 -0.4910  0.0348 -0.0403
53869SOL    HW167570   8.821  10.967  12.116  1.9987 -2.1342 -2.3167
53869SOL    HW267571   8.857  10.872  12.228  0.6597 -0.3831 -0.3371
53870SOL     OW67572   2.729   1.120   7.806  0.3646 -0.2337 -0.4295
53870SOL    HW167573   2.635   1.134   7.819  0.1718 -1.5088 -0.2956
53870SOL    HW267574   2.739   1.104   7.713  0.4453 -0.1003 -0.4436
53871SOL     OW67575   4.966   9.744   2.142 -0.1685  0.1772  0.0109
53871SOL    HW167576   4.896   9.695   2.186  0.1931  0.9652  1.5551
53871SOL    HW267577   5.019   9.779   2.214  1.1054  0.6239 -1.1030
53872SOL     OW67578   1.505  11.884   7.762 -0.0874  0.1732 -0.3576
53872SOL    HW167579   1.468  11.844   7.841 -0.5494  0.8644 -0.2171
53872SOL    HW267580   1.460  11.968   7.755 -0.1446  0.0602 -1.4269
53873SOL     OW67581  12.293  10.646   6.525 -0.3916 -0.0675  0.1573
53873SOL    HW167582  12.328  10.707   6.460 -0.9113  1.1887  1.0161
53873SOL    HW267583  12.367  10.627   6.583  0.2984 -1.8267 -1.1854
53874SOL     OW67584   9.910   3.977   1.891  0.7695 -0.4336 -0.3695
53874SOL    HW167585   9.847   4.014   1.953 -0.1613 -0.9863 -0.9529
53874SOL    HW267586   9.864   3.902   1.853  1.5617 -0.4872 -1.2514
53875SOL     OW67587   2.504   2.890   2.974 -0.0157  0.8547 -0.0029
53875SOL    HW167588   2.447   2.927   2.907 -0.2681 -1.2196 -1.0091
53875SOL    HW267589   2.581   2.860   2.926 -0.5003 -1.2970  0.4496
53876SOL     OW67590   0.499   7.093   0.365  0.0466 -0.2519  0.2864
53876SOL    HW167591   0.479   7.028   0.297 -0.2194 -0.5969  0.6935
53876SOL    HW267592   0.556   7.046   0.426 -1.0392 -0.4472  1.1698
53877SOL     OW67593   1.396  11.924   4.383 -0.0297 -0.0960 -0.4119
53877SOL    HW167594   1.396  11.942   4.477  0.7935  0.0655 -0.4373
53877SOL    HW267595   1.349  11.998   4.344 -0.2746 -0.1064 -0.1366
53878SOL     OW67596   2.282   2.885   3.409 -0.3977  0.2265  0.6700
53878SOL    HW167597   2.354   2.823   3.397  0.2650  0.3345  3.4062
53878SOL    HW267598   2.307   2.962   3.356  0.9536 -0.1595  0.7172
53879SOL     OW67599   9.910   3.988  11.399 -0.0462  0.5861  0.1366
53879SOL    HW167600   9.901   3.993  11.304  0.3297 -2.5572 -0.1771
53879SOL    HW267601  10.005   3.996  11.414  0.0790 -0.5768  0.0476
53880SOL     OW67602   7.262   0.762  11.557  0.4447  0.4632  0.0963
53880SOL    HW167603   7.204   0.810  11.498  0.7861  1.0986  0.2752
53880SOL    HW267604   7.228   0.782  11.645  0.0635 -0.3150  0.1411
53881SOL     OW67605   4.457   5.662   6.104  0.4777  0.0231  0.5428
53881SOL    HW167606   4.511   5.586   6.126  0.3994  0.2687  1.6090
53881SOL    HW267607   4.508   5.738   6.130  0.4170  0.3379 -0.2198
53882SOL     OW67608  10.403   2.810   9.687 -0.4125  0.2398  0.2982
53882SOL    HW167609  10.322   2.776   9.648  0.3056 -2.2170  0.7393
53882SOL    HW267610  10.473   2.766   9.639  0.6033  0.6654  1.3363
53883SOL     OW67611   8.015   7.850   8.816 -0.5560  0.3621 -0.0299
53883SOL    HW167612   8.090   7.817   8.866 -0.9270  0.3431  0.5231
53883SOL    HW267613   8.054   7.908   8.751  0.0172 -0.3484 -0.3433
53884SOL     OW67614   3.819  11.901   7.909 -0.1088  0.0220  0.2891
53884SOL    HW167615   3.807  11.820   7.959 -0.2356  0.1003  0.3869
53884SOL    HW267616   3.747  11.957   7.937  0.7986  0.7183  1.3214
53885SOL     OW67617   7.834   0.560  10.980 -0.0183 -0.2627 -0.5128
53885SOL    HW167618   7.815   0.639  10.930  0.8722 -0.3290 -0.9726
53885SOL    HW267619   7.920   0.576  11.018  1.3096 -1.9358 -2.5746
53886SOL     OW67620   7.692  10.876   5.312  0.1211  0.5896  0.0447
53886SOL    HW167621   7.685  10.923   5.395  1.2913  1.4531 -0.3260
53886SOL    HW267622   7.783  10.888   5.285  0.2935 -1.3512 -0.3903
53887SOL     OW67623   5.163   2.183  10.864 -0.0734  0.4180  0.3661
53887SOL    HW167624   5.239   2.216  10.816  0.0240  3.3848  2.3174
53887SOL    HW267625   5.120   2.261  10.897 -3.2205 -1.2474  0.5660
53888SOL     OW67626   7.084   8.089  10.687 -0.4978  0.2474 -0.2132
53888SOL    HW167627   7.111   8.024  10.752 -1.4593  1.5275  1.5827
53888SOL    HW267628   7.012   8.048  10.640  0.7840 -1.0362 -1.1239
53889SOL     OW67629  10.428  11.702  10.532 -0.1026  0.2361 -0.0028
53889SOL    HW167630  10.497  11.767  10.526 -1.3283  1.4597 -1.3534
53889SOL    HW267631  10.406  11.699  10.625  2.8291 -1.4144  0.7726
53890SOL     OW67632   6.630   8.562   6.580 -0.5466  0.1204 -0.5420
53890SOL    HW167633   6.579   8.625   6.630  0.2157  0.8049 -0.6204
53890SOL    HW267634   6.709   8.548   6.632 -0.5979 -0.5916 -0.6444
53891SOL     OW67635   2.375   9.975   3.485 -0.4049  0.5002 -0.4129
53891SOL    HW167636   2.400  10.051   3.537 -0.4343  0.2250  0.0138
53891SOL    HW267637   2.408   9.900   3.535 -0.5778  0.2217 -0.7112
53892SOL     OW67638   4.857   5.029   9.252  0.2087 -0.5793  0.0550
53892SOL    HW167639   4.890   5.006   9.165  0.1393 -2.2030  0.4113
53892SOL    HW267640   4.849   5.124   9.251  0.6445 -0.5300 -1.5545
53893SOL     OW67641   0.255   4.135   0.824  0.7824  0.2809  0.1372
53893SOL    HW167642   0.255   4.070   0.754 -3.6186  1.4179 -1.2041
53893SOL    HW267643   0.325   4.196   0.800 -0.1953  0.3196 -3.0598
53894SOL     OW67644  11.961   4.342   0.703  0.3930 -0.1078 -0.3793
53894SOL    HW167645  12.025   4.412   0.695  0.6077 -0.1151  1.0040
53894SOL    HW267646  11.896   4.360   0.635  0.8557  0.9775 -0.5421
53895SOL     OW67647   1.783   4.889   2.203  0.4345  0.6802 -0.2100
53895SOL    HW167648   1.815   4.964   2.254  1.1719 -0.0292  0.3858
53895SOL    HW267649   1.750   4.828   2.269 -2.2437  1.3744 -0.7769
53896SOL     OW67650  12.279   2.101   0.159 -0.2233 -0.0523  0.0177
53896SOL    HW167651  12.282   2.038   0.230 -0.3521 -0.4565 -0.3333
53896SOL    HW267652  12.235   2.178   0.196  1.3168  0.4418  0.9091
53897SOL     OW67653   0.784   4.983   9.925  0.4573  0.2099  0.1995
53897SOL    HW167654   0.818   5.059   9.973 -0.7084  0.3521  0.8235
53897SOL    HW267655   0.765   5.015   9.837  1.7250  0.1734 -0.1081
53898SOL     OW67656   4.345  10.725  11.659  0.7806 -0.4987 -0.2467
53898SOL    HW167657   4.363  10.745  11.751  1.7001  0.9604 -0.7045
53898SOL    HW267658   4.283  10.652  11.662  0.0439  0.1359  1.5424
53899SOL     OW67659  11.137   9.050  10.344 -0.1144 -0.2676  0.3492
53899SOL    HW167660  11.093   8.967  10.323  0.5482 -0.4752 -0.2624
53899SOL    HW267661  11.223   9.024  10.376  0.0027  0.1818  0.4032
53900SOL     OW67662   5.399   9.466   1.710  0.2798  0.6546  0.2896
53900SOL    HW167663   5.311   9.472   1.747  0.9259  0.8744  1.8586
53900SOL    HW267664   5.432   9.381   1.740  1.0988  1.1709  0.9065
53901SOL     OW67665   8.634   6.577  10.442  0.9590  0.0829  0.1938
53901SOL    HW167666   8.546   6.549  10.417  0.3367  1.3163  0.9238
53901SOL    HW267667   8.635   6.671  10.425  2.3446 -0.0157 -0.3494
53902SOL     OW67668   9.895   4.374   3.501  0.6339 -0.3401 -0.7483
53902SOL    HW167669   9.874   4.437   3.569  2.6513 -0.6049  0.1928
53902SOL    HW267670   9.842   4.298   3.521 -0.5695  0.4387 -0.9086
53903SOL     OW67671   7.211   4.520   2.427  0.2302  0.1494 -0.0162
53903SOL    HW167672   7.244   4.430   2.427 -0.7049 -0.2107  0.3460
53903SOL    HW267673   7.165   4.529   2.511 -1.8944  0.0959 -1.0954
53904SOL     OW67674  11.821  11.132   6.027  0.0010  0.7231 -0.4771
53904SOL    HW167675  11.852  11.191   5.958  1.6300  0.8129  0.2705
53904SOL    HW267676  11.898  11.117   6.082 -0.0899 -2.7752 -1.0868
53905SOL     OW67677   8.466   4.500   5.252 -0.1627 -0.0439 -0.1874
53905SOL    HW167678   8.408   4.563   5.294  0.7839  0.0894  0.9537
53905SOL    HW267679   8.419   4.417   5.259 -1.0334  0.3591 -0.9475
53906SOL     OW67680   9.309  11.990   0.684  0.0717 -0.3894  0.3532
53906SOL    HW167681   9.334  12.055   0.749  0.9616 -0.2796 -0.0911
53906SOL    HW267682   9.247  12.036   0.627  1.3329  0.3674 -0.4647
53907SOL     OW67683  10.327   3.213   0.529  0.4231 -0.0645 -0.0176
53907SOL    HW167684  10.284   3.221   0.444 -0.0506  1.0451  0.3167
53907SOL    HW267685  10.257   3.221   0.593  0.4993 -2.5701  0.5119
53908SOL     OW67686   9.748   7.306   0.341 -0.2638 -0.2405  0.8288
53908SOL    HW167687   9.703   7.241   0.396 -0.6126  0.0387  0.8806
53908SOL    HW267688   9.682   7.332   0.277 -0.0522 -0.1065  0.6653
53909SOL     OW67689   0.573   8.507   6.517 -0.0222 -0.1828 -0.8054
53909SOL    HW167690   0.620   8.565   6.457  1.1137  1.2160  1.3009
53909SOL    HW267691   0.481   8.526   6.500  0.2395 -0.2638 -2.4798
53910SOL     OW67692   6.514   4.979  10.116  1.0214 -0.1854  0.5265
53910SOL    HW167693   6.465   4.900  10.096 -1.3496  1.7279 -1.8316
53910SOL    HW267694   6.585   4.981  10.052  1.4271 -0.6547  0.9550
53911SOL     OW67695  10.472  11.242   3.596  0.5214 -0.5768 -0.2676
53911SOL    HW167696  10.562  11.265   3.618  0.1466  0.3055  0.3931
53911SOL    HW267697  10.418  11.291   3.659 -0.6546  2.1996 -3.1713
53912SOL     OW67698   7.403   6.325   5.353  0.2757 -0.0605  0.1991
53912SOL    HW167699   7.415   6.280   5.437 -0.0289  0.3443  0.4582
53912SOL    HW267700   7.362   6.259   5.296 -0.5638  0.0217  0.7048
53913SOL     OW67701   0.358   0.029   2.064 -0.1732  0.0016  0.3986
53913SOL    HW167702   0.325   0.031   2.153  0.4731  0.8215  0.6319
53913SOL    HW267703   0.440  -0.020   2.070  0.6586  1.3652  0.5526
53914SOL     OW67704   6.808   3.607   8.425 -0.3302  0.0592 -0.6314
53914SOL    HW167705   6.902   3.613   8.437  0.0126 -3.2780 -0.6922
53914SOL    HW267706   6.797   3.554   8.346 -2.3514  2.5011 -2.1626
53915SOL     OW67707   9.598   9.161   3.032  0.2369  0.3935 -0.0229
53915SOL    HW167708   9.656   9.168   2.956 -2.0604  1.8006 -1.8024
53915SOL    HW267709   9.515   9.197   3.001 -2.0242 -2.6856  1.9690
53916SOL     OW67710   6.096   9.094  10.624  0.0376 -0.1008  0.7564
53916SOL    HW167711   6.151   9.033  10.574 -0.4885 -0.0054  0.0491
53916SOL    HW267712   6.159   9.154  10.665  0.4895 -0.2436  0.2902
53917SOL     OW67713   2.386   1.138   4.271 -0.5196  0.6659  0.2893
53917SOL    HW167714   2.320   1.069   4.282  1.2098 -0.9873  0.8838
53917SOL    HW267715   2.452   1.099   4.213  0.8549  1.5235  1.2076
53918SOL     OW67716   7.329   1.691  11.031  0.0684 -0.5123 -0.3177
53918SOL    HW167717   7.250   1.716  11.079  0.0810  0.3497 -0.7423
53918SOL    HW267718   7.313   1.600  11.004 -0.7120 -0.3843 -0.2897
53919SOL     OW67719   0.888   1.170   4.688 -0.5443  0.0925 -0.1893
53919SOL    HW167720   0.816   1.172   4.751  0.3232  0.2273  0.8195
53919SOL    HW267721   0.909   1.077   4.679 -0.7440  0.0639 -0.3798
53920SOL     OW67722   7.031   6.639   5.864 -0.0908  0.2226 -0.2643
53920SOL    HW167723   6.958   6.594   5.822 -0.5073  0.9810 -0.3853
53920SOL    HW267724   7.017   6.732   5.843 -0.0418  0.5699  1.1249
53921SOL     OW67725   7.846   9.095   1.407 -0.1843 -0.1584 -0.1776
53921SOL    HW167726   7.877   9.175   1.450 -2.2756  1.2244 -1.0384
53921SOL    HW267727   7.806   9.044   1.478  0.8175 -0.2645  0.3189
53922SOL     OW67728   9.452   0.122   8.641  0.3307 -0.1677 -0.0054
53922SOL    HW167729   9.495   0.170   8.570 -0.1183  0.9470  0.4637
53922SOL    HW267730   9.462   0.030   8.616  0.5390  0.1822 -1.3125
53923SOL     OW67731   0.221   7.552   7.761 -0.0645 -0.2871 -0.0866
53923SOL    HW167732   0.264   7.615   7.818 -0.0891  2.5848 -2.9328
53923SOL    HW267733   0.128   7.569   7.773 -0.0904 -0.1490 -0.4795
53924SOL     OW67734   9.788  10.344   9.357 -0.0006 -0.1729  0.0645
53924SOL    HW167735   9.735  10.392   9.421 -0.9336 -1.9290  0.6947
53924SOL    HW267736   9.737  10.265   9.338  1.4671 -0.9428 -0.8818
53925SOL     OW67737   6.716   2.888   8.951  0.5029 -0.3004 -0.6528
53925SOL    HW167738   6.699   2.982   8.947  1.5269 -0.0588  0.2837
53925SOL    HW267739   6.666   2.852   8.878 -0.6720  0.8435 -0.4509
53926SOL     OW67740   6.534   4.589   6.897 -0.2446 -0.0521  0.1656
53926SOL    HW167741   6.608   4.553   6.847 -1.2753  0.1826 -1.6131
53926SOL    HW267742   6.464   4.600   6.832 -1.2573  1.4379  1.4295
53927SOL     OW67743   7.593   2.657   5.546 -0.4499  0.1680 -0.4701
53927SOL    HW167744   7.636   2.650   5.461 -1.8087  3.7476 -1.6089
53927SOL    HW267745   7.652   2.709   5.600 -0.8755  0.3427 -0.1644
53928SOL     OW67746  11.917  11.227  10.938  0.4207 -0.1927 -0.6916
53928SOL    HW167747  11.950  11.312  10.968  0.3513  0.4321 -2.2994
53928SOL    HW267748  11.847  11.205  11.000 -0.0505  1.2831 -0.6633
53929SOL     OW67749   4.818  11.594   6.713 -0.2805  0.3237  0.1737
53929SOL    HW167750   4.770  11.669   6.748  1.4452  0.9062  1.3987
53929SOL    HW267751   4.840  11.541   6.789  0.3592 -0.3189 -0.4407
53930SOL     OW67752   5.946   1.892   5.836  0.5023  0.2843 -0.1946
53930SOL    HW167753   5.918   1.970   5.788 -0.0748  0.1835 -0.0368
53930SOL    HW267754   5.865   1.844   5.853  0.9705 -0.8915 -1.2052
53931SOL     OW67755   2.404   3.993   4.233  0.5991 -0.1165  0.1186
53931SOL    HW167756   2.313   4.018   4.253  0.4881 -1.2591  1.2106
53931SOL    HW267757   2.429   4.049   4.160 -0.8947  0.4280 -0.0168
53932SOL     OW67758   3.781   6.476   9.506 -0.5115  0.0883  0.2271
53932SOL    HW167759   3.736   6.536   9.447 -2.1866 -2.1807 -0.9339
53932SOL    HW267760   3.713   6.445   9.566 -0.1951 -2.0628 -0.4217
53933SOL     OW67761   9.850   7.969   5.170  0.3122  0.4686 -0.4620
53933SOL    HW167762   9.829   7.897   5.228 -0.7507  1.3505  0.2763
53933SOL    HW267763   9.766   8.011   5.151  0.8487  1.2320 -1.2451
53934SOL     OW67764  12.013   3.417   5.577 -0.0124 -0.0515 -0.2529
53934SOL    HW167765  11.926   3.380   5.563 -0.3690  1.2691 -1.9770
53934SOL    HW267766  11.997   3.504   5.613  0.7492 -0.8792  2.2692
53935SOL     OW67767  11.277   5.835   8.765  0.3777 -0.4470 -0.0725
53935SOL    HW167768  11.217   5.878   8.826  0.0369  0.2365 -0.8780
53935SOL    HW267769  11.365   5.858   8.797  0.2015  0.2207 -0.0684
53936SOL     OW67770  10.101  11.084   1.196 -0.4851  0.7917 -0.3321
53936SOL    HW167771  10.185  11.054   1.161 -1.0967 -0.7778 -0.5598
53936SOL    HW267772  10.043  11.086   1.120 -0.7023  1.7642 -0.1587
53937SOL     OW67773   9.600   5.933   0.325 -0.6783  0.6513 -0.3836
53937SOL    HW167774   9.670   5.916   0.388 -0.4498 -1.4870 -1.1084
53937SOL    HW267775   9.537   5.988   0.372 -0.5982 -0.9861  1.8141
53938SOL     OW67776  12.340   5.791   7.792 -0.8005  0.7624  0.1390
53938SOL    HW167777  12.370   5.722   7.852 -2.6186  0.8000  1.1928
53938SOL    HW267778  12.361   5.873   7.837 -1.1104  0.8155  0.1916
53939SOL     OW67779   1.782   1.461   1.513  0.4632 -0.5299  0.0588
53939SOL    HW167780   1.765   1.369   1.534 -0.3134 -0.1702  1.1388
53939SOL    HW267781   1.839   1.458   1.436  0.1416 -1.9016 -0.1620
53940SOL     OW67782  10.778   5.267  11.030  0.0130 -0.2990  0.0830
53940SOL    HW167783  10.688   5.299  11.031  0.0642 -0.1016 -0.8356
53940SOL    HW267784  10.780   5.203  10.959  0.9652  0.8302 -0.9572
53941SOL     OW67785   2.832   9.443   4.980  0.1168  0.0051 -0.4217
53941SOL    HW167786   2.837   9.440   4.884 -1.7001 -0.7787 -0.5290
53941SOL    HW267787   2.824   9.536   5.001 -0.2843  0.1289 -1.0904
53942SOL     OW67788   5.048   9.099   6.634 -0.0808 -0.3447  0.4073
53942SOL    HW167789   5.103   9.172   6.662  2.2509 -1.6309 -0.5563
53942SOL    HW267790   4.978   9.141   6.583  0.5861  1.3003  0.7630
53943SOL     OW67791   4.479   2.298   5.300 -0.3419 -0.4150 -0.0466
53943SOL    HW167792   4.418   2.359   5.342  1.9592  0.4903  2.2416
53943SOL    HW267793   4.541   2.353   5.253 -0.5447 -1.2504 -1.3350
53944SOL     OW67794  10.481   8.488  10.599  0.1699  0.3175  0.3356
53944SOL    HW167795  10.504   8.451  10.684 -0.7512  1.0535  0.9218
53944SOL    HW267796  10.555   8.465  10.542  1.0076  0.1977  1.4363
53945SOL     OW67797   8.174  10.200   8.812  0.4562 -0.2060  0.3788
53945SOL    HW167798   8.208  10.289   8.825 -0.5529  0.2506  0.0301
53945SOL    HW267799   8.193  10.155   8.893 -0.9091  0.9801  1.4128
53946SOL     OW67800   1.805   8.529   8.981  0.2443 -0.2895 -0.5498
53946SOL    HW167801   1.808   8.613   9.026  1.0495  0.2805 -1.6168
53946SOL    HW267802   1.792   8.465   9.050 -0.1049  0.6861  0.3132
53947SOL     OW67803   2.522  11.879  11.273 -0.6883  0.4551 -0.4275
53947SOL    HW167804   2.440  11.848  11.312 -1.0451  1.7433 -0.1316
53947SOL    HW267805   2.531  11.827  11.193  0.1387 -2.3292  1.3387
53948SOL     OW67806   8.913   6.124  12.033 -0.1504  0.0164  0.2062
53948SOL    HW167807   9.006   6.146  12.032 -0.0430 -0.4403 -0.8506
53948SOL    HW267808   8.899   6.073  11.954 -1.1358 -0.6339  0.7721
53949SOL     OW67809   0.227   2.422   1.820  0.0079  0.2434  0.2483
53949SOL    HW167810   0.277   2.503   1.827  0.6497 -0.2435  1.7527
53949SOL    HW267811   0.157   2.432   1.885 -0.6368  0.0700 -0.4019
53950SOL     OW67812   0.409   3.945   4.960 -0.6502 -0.3337  0.4115
53950SOL    HW167813   0.417   4.040   4.955 -0.2973 -0.3101  1.2004
53950SOL    HW267814   0.483   3.912   4.909  0.0324 -0.1614  1.2549
53951SOL     OW67815   1.020   5.406   9.518  0.2147  0.7588 -0.2112
53951SOL    HW167816   0.990   5.403   9.609  1.5697 -1.7486  0.2428
53951SOL    HW267817   1.081   5.480   9.516  1.4982 -0.1684  1.4450
53952SOL     OW67818   0.316  10.330   5.464  0.1339  0.2569  0.3810
53952SOL    HW167819   0.257  10.404   5.448  0.8387  0.6090 -0.7184
53952SOL    HW267820   0.307  10.276   5.385  0.0740 -0.5315  0.9174
53953SOL     OW67821   4.886   0.798   8.695 -0.3951 -0.7739 -0.4590
53953SOL    HW167822   4.930   0.883   8.703  0.0702 -0.9651 -0.9607
53953SOL    HW267823   4.802   0.818   8.654 -1.5754 -0.1677  2.0238
53954SOL     OW67824   5.439   5.564   9.075  0.6704  0.2133  0.1240
53954SOL    HW167825   5.526   5.602   9.064  1.3475 -1.1635  0.5400
53954SOL    HW267826   5.454   5.471   9.088 -0.9106 -0.1698 -0.4669
53955SOL     OW67827  11.420   2.130   3.411 -0.3667  0.5333  0.6068
53955SOL    HW167828  11.447   2.164   3.326 -1.5115  0.5544  0.2365
53955SOL    HW267829  11.343   2.182   3.434 -1.2413 -0.7795  0.7335
53956SOL     OW67830  11.427   0.077   8.685  0.1171  0.0137  0.0892
53956SOL    HW167831  11.333   0.060   8.682  0.3451 -1.2040 -1.4870
53956SOL    HW267832  11.443   0.111   8.773 -1.6746 -0.4808  0.6351
53957SOL     OW67833   5.677   0.381   9.104 -0.1053  0.2487 -0.9997
53957SOL    HW167834   5.708   0.472   9.104  0.5270  0.0665  1.0344
53957SOL    HW267835   5.750   0.332   9.067  1.2698  0.1087  1.6962
53958SOL     OW67836   5.496   0.962   4.404  0.4457  0.2190 -0.0072
53958SOL    HW167837   5.450   1.046   4.402  1.2013  0.6472  0.1845
53958SOL    HW267838   5.461   0.918   4.482  1.0982  0.9731  0.7273
53959SOL     OW67839  12.426   5.844   6.383  0.6767 -0.1862 -0.2081
53959SOL    HW167840  12.411   5.938   6.397  1.0779 -0.1103 -0.2555
53959SOL    HW267841  12.512   5.828   6.423  0.0133 -0.8217  1.0378
53960SOL     OW67842  10.803   7.346   2.518  0.0302  0.2335 -0.1113
53960SOL    HW167843  10.800   7.438   2.489  0.7883  0.2492 -0.1556
53960SOL    HW267844  10.733   7.339   2.583  0.6914  1.1336  0.7267
53961SOL     OW67845   7.918   1.665   5.917 -0.0842  0.0724 -0.2427
53961SOL    HW167846   7.988   1.605   5.941 -1.0313 -0.1225  2.3067
53961SOL    HW267847   7.849   1.609   5.880  0.7286  0.1829 -2.0464
53962SOL     OW67848   6.666   3.589   3.911  0.0410  0.2138 -0.2408
53962SOL    HW167849   6.739   3.644   3.939 -0.2662  0.9492 -0.8460
53962SOL    HW267850   6.614   3.576   3.990  0.0113  0.9693 -0.1273
53963SOL     OW67851   2.347   4.937   9.898 -0.0281 -0.0797 -0.2512
53963SOL    HW167852   2.286   4.863   9.894 -1.6850  1.1213  1.0213
53963SOL    HW267853   2.434   4.897   9.889 -0.9128 -2.0239 -0.7478
53964SOL     OW67854  10.516   3.571   8.917 -0.7427 -0.3900 -0.2979
53964SOL    HW167855  10.495   3.595   9.007  1.8957  0.7779  0.1226
53964SOL    HW267856  10.453   3.620   8.864 -0.5844  1.1341  0.8486
53965SOL     OW67857   1.268   3.580  10.891 -0.7550  0.2245  0.2021
53965SOL    HW167858   1.205   3.508  10.879 -1.4624  0.9553 -0.5642
53965SOL    HW267859   1.338   3.561  10.829 -0.2423 -0.5468  0.9966
53966SOL     OW67860   4.572   0.372   3.316 -0.3998 -0.1018 -0.4486
53966SOL    HW167861   4.621   0.373   3.398 -0.1214  0.8593 -0.6129
53966SOL    HW267862   4.564   0.465   3.292  2.5808 -0.4042 -3.2878
53967SOL     OW67863   7.138   7.718  11.359  0.1200  0.5549 -0.4354
53967SOL    HW167864   7.192   7.766  11.421  0.4965 -1.1705  0.6631
53967SOL    HW267865   7.200   7.676  11.300 -0.1474  0.6554 -0.7892
53968SOL     OW67866   8.209   0.820   6.665 -0.1144  0.7657  0.1383
53968SOL    HW167867   8.235   0.911   6.677  0.5497  0.3861  1.8110
53968SOL    HW267868   8.186   0.814   6.572  1.1384  2.3042 -0.3153
53969SOL     OW67869   7.753   5.582  11.217 -0.3498 -0.0048  0.1506
53969SOL    HW167870   7.722   5.619  11.135 -1.8646  0.7007  1.0015
53969SOL    HW267871   7.722   5.492  11.216  1.0781 -0.5107 -0.7647
53970SOL     OW67872   7.894   4.383   1.372  0.1356  0.6723 -0.1311
53970SOL    HW167873   7.973   4.414   1.328  0.7046  0.5950  0.7998
53970SOL    HW267874   7.886   4.439   1.449 -0.9246  0.9081 -0.3967
53971SOL     OW67875   8.059   7.925   0.390  0.1459  0.2449 -0.2627
53971SOL    HW167876   8.086   7.843   0.432  2.2501  0.7213 -0.5795
53971SOL    HW267877   8.139   7.959   0.350 -1.0437  1.6082 -1.6071
53972SOL     OW67878   9.612   8.618   0.036  0.3190 -0.2510  0.7920
53972SOL    HW167879   9.539   8.556   0.037 -1.7607  2.0366  2.5650
53972SOL    HW267880   9.615   8.650  -0.054 -0.0051 -1.2535  0.4032
53973SOL     OW67881   5.647   1.842   6.891 -0.0405 -0.2512  0.1215
53973SOL    HW167882   5.592   1.844   6.813 -2.4050  1.6299  1.7042
53973SOL    HW267883   5.620   1.763   6.938 -0.2694 -0.1599  0.1424
53974SOL     OW67884   0.568  11.482   3.895 -0.2536 -0.0715 -0.1638
53974SOL    HW167885   0.543  11.427   3.970  3.3284 -2.3396 -0.3809
53974SOL    HW267886   0.569  11.421   3.821  0.1535  1.2202 -1.2535
53975SOL     OW67887   9.065   0.608   8.302  0.1683  0.1197  0.3721
53975SOL    HW167888   8.986   0.615   8.355 -1.8553 -0.3385 -2.3585
53975SOL    HW267889   9.066   0.687   8.249  2.5802  0.9597  1.5173
53976SOL     OW67890   1.916   1.092   9.892 -0.4523  0.2723  0.2103
53976SOL    HW167891   1.992   1.100   9.950 -0.2701  0.2057 -0.0154
53976SOL    HW267892   1.863   1.023   9.931  1.1880 -2.0374 -1.3475
53977SOL     OW67893   1.695   7.254  10.674  0.2507 -0.3462 -0.1484
53977SOL    HW167894   1.790   7.258  10.672  0.2731 -1.2669 -1.4923
53977SOL    HW267895   1.671   7.194  10.604 -1.2470 -1.5236  1.3003
53978SOL     OW67896   7.036   3.404   4.522 -1.0924  0.1020  0.5464
53978SOL    HW167897   7.070   3.430   4.437  0.4538  1.4544  1.5187
53978SOL    HW267898   6.959   3.351   4.502 -0.3980 -0.1643 -1.6905
53979SOL     OW67899   4.905   6.029   4.053  0.1778 -0.2710 -0.3766
53979SOL    HW167900   4.997   6.046   4.034  0.6166 -0.3332  1.4699
53979SOL    HW267901   4.867   6.115   4.066  0.2245 -0.2902 -0.1097
53980SOL     OW67902   7.854   8.285   0.200 -0.0101 -0.0906 -1.2284
53980SOL    HW167903   7.853   8.250   0.289  0.9342  1.4958 -0.5410
53980SOL    HW267904   7.902   8.220   0.149  1.2956 -0.0567 -0.1058
53981SOL     OW67905   4.703   9.268   7.368 -0.0341 -0.2141  0.0730
53981SOL    HW167906   4.617   9.308   7.380 -0.3483 -0.0383 -2.3049
53981SOL    HW267907   4.743   9.316   7.295  0.7914 -2.2689 -0.9117
53982SOL     OW67908   0.788   1.702   5.219  1.0561  0.6928  0.5432
53982SOL    HW167909   0.785   1.774   5.281  2.1437  0.5453  0.7817
53982SOL    HW267910   0.718   1.721   5.156 -0.4895  0.5303  2.1265
53983SOL     OW67911   5.755   0.312  10.638  0.3348  0.5421 -0.4710
53983SOL    HW167912   5.806   0.256  10.580 -1.1599 -2.1202  0.5944
53983SOL    HW267913   5.691   0.355  10.581  1.0145  0.5687 -1.2197
53984SOL     OW67914   9.562   6.748   6.965 -0.2046 -0.4793 -0.3137
53984SOL    HW167915   9.508   6.720   6.891 -0.1011 -2.0943  0.2013
53984SOL    HW267916   9.614   6.821   6.930 -1.9532  0.4569 -1.0950
53985SOL     OW67917   8.912  12.249   9.200 -0.0923 -0.1660  0.6036
53985SOL    HW167918   9.003  12.249   9.227  0.1860  0.2894 -0.2834
53985SOL    HW267919   8.914  12.226   9.107 -0.7792  0.8304  0.3157
53986SOL     OW67920   6.484  10.468   7.607 -0.3897 -0.2809  0.2426
53986SOL    HW167921   6.456  10.530   7.540  2.3374  0.8514  0.0261
53986SOL    HW267922   6.447  10.503   7.688  0.8731  1.5887  0.0905
53987SOL     OW67923   3.776  12.400   1.984 -0.1646  0.3725 -0.0681
53987SOL    HW167924   3.706  12.339   1.960  1.0280 -0.2437 -2.2615
53987SOL    HW267925   3.856  12.348   1.980  0.6793  1.5990  0.1105
53988SOL     OW67926   6.239   3.783  10.735  0.6010  0.0139  0.1622
53988SOL    HW167927   6.243   3.820  10.823  0.6905  0.8305 -0.1798
53988SOL    HW267928   6.312   3.720  10.733  0.9088  0.3503  0.5099
53989SOL     OW67929   5.830   1.978   8.581  0.2137  0.1344 -0.2188
53989SOL    HW167930   5.859   1.982   8.672  0.8506  1.9348 -0.4481
53989SOL    HW267931   5.770   2.052   8.572 -0.9610 -0.8593 -0.9278
53990SOL     OW67932   1.572  10.946   2.241  0.0232 -0.1131 -0.3539
53990SOL    HW167933   1.580  10.874   2.304 -0.6819 -1.4676 -1.7646
53990SOL    HW267934   1.622  10.917   2.165 -0.4107  0.8308 -1.0097
53991SOL     OW67935   7.868  11.469   3.186 -0.0040  0.4335 -0.4587
53991SOL    HW167936   7.871  11.381   3.223 -2.0226  0.4067 -0.2550
53991SOL    HW267937   7.834  11.456   3.097 -1.1275  1.0539 -0.1365
53992SOL     OW67938  11.481   2.556  11.037 -0.2237  0.2272  0.0459
53992SOL    HW167939  11.516   2.598  11.115 -0.7043  0.6331  0.0473
53992SOL    HW267940  11.454   2.469  11.066  0.7089 -0.0632  0.0594
53993SOL     OW67941   4.636   2.800   8.388 -0.4876 -0.0349 -0.1109
53993SOL    HW167942   4.619   2.715   8.346 -0.6531 -0.3485  0.5732
53993SOL    HW267943   4.727   2.820   8.364 -0.9907  0.4547 -1.7328
53994SOL     OW67944   9.344   6.061   3.238 -0.2214 -0.3458 -0.3963
53994SOL    HW167945   9.371   6.076   3.329 -0.7538 -1.6036 -0.0064
53994SOL    HW267946   9.416   6.096   3.186 -0.0834  0.7481  0.4968
53995SOL     OW67947  11.458  11.829  11.514  0.5310 -0.4228  0.2057
53995SOL    HW167948  11.494  11.751  11.471  0.8934  0.1073 -0.4793
53995SOL    HW267949  11.535  11.872  11.552  0.3739 -0.2426  0.3208
53996SOL     OW67950   0.587   6.930   8.139 -0.4759 -0.1131  0.0984
53996SOL    HW167951   0.559   6.909   8.050 -0.0011 -2.1582  0.3847
53996SOL    HW267952   0.519   6.893   8.195 -0.1694  0.1208  0.6328
53997SOL     OW67953  11.109   7.615   7.144  0.4297  0.4674  0.4725
53997SOL    HW167954  11.064   7.548   7.094  1.5811 -0.3043  0.4263
53997SOL    HW267955  11.150   7.671   7.078  2.4127 -0.8727  0.4873
53998SOL     OW67956   2.843   1.235   7.256  0.6486 -0.4459 -0.1621
53998SOL    HW167957   2.889   1.295   7.314  0.7031 -0.0852 -0.5705
53998SOL    HW267958   2.786   1.291   7.204 -0.3423 -0.9049  0.4080
53999SOL     OW67959  10.068  10.872  10.524 -0.1188  0.3150 -0.5204
53999SOL    HW167960   9.994  10.887  10.582  0.5694  0.8209  0.2497
53999SOL    HW267961  10.046  10.791  10.477 -1.1813  0.5054 -0.3679
54000SOL     OW67962   5.132   8.683   8.530  0.2813 -0.0407 -0.4944
54000SOL    HW167963   5.158   8.729   8.610  0.2905 -0.1617 -0.4270
54000SOL    HW267964   5.205   8.697   8.470 -0.1948  0.9672 -0.8616
54001SOL     OW67965   3.505   6.785   0.278 -0.0771 -0.7768 -0.3943
54001SOL    HW167966   3.540   6.873   0.294  0.1340 -0.8740 -0.3256
54001SOL    HW267967   3.540   6.731   0.349  3.1303 -1.8420 -2.5168
54002SOL     OW67968   2.817   7.244  10.052 -0.7903 -0.2560 -0.1853
54002SOL    HW167969   2.879   7.202   9.993 -0.4596 -0.1112  0.0606
54002SOL    HW267970   2.736   7.249  10.001 -0.9886 -1.6543 -0.0393
54003SOL     OW67971   2.325   7.303   9.366 -0.2636  0.4431  0.3000
54003SOL    HW167972   2.302   7.330   9.455 -0.1312  0.8868  0.1996
54003SOL    HW267973   2.271   7.226   9.350 -0.2787  0.3528  0.7703
54004SOL     OW67974  10.074   9.991   1.703 -0.4285  0.0056 -0.3063
54004SOL    HW167975   9.995  10.005   1.755  0.7308 -0.5075  1.6902
54004SOL    HW267976  10.044   9.943   1.626 -1.9658 -0.7834  0.7293
54005SOL     OW67977   4.240   9.130   4.865  0.5193 -0.2298 -0.3361
54005SOL    HW167978   4.317   9.118   4.809 -0.0658 -0.1059 -1.1907
54005SOL    HW267979   4.261   9.082   4.945  1.3552 -0.4612 -0.6827
54006SOL     OW67980   6.456  12.276   8.434  0.5662 -0.3072 -0.3585
54006SOL    HW167981   6.488  12.363   8.411  2.2366 -0.9314 -0.6019
54006SOL    HW267982   6.528  12.217   8.410  0.7353 -1.4558  2.5201
54007SOL     OW67983   4.463   6.079  11.437 -0.3304  0.3999 -0.5326
54007SOL    HW167984   4.456   6.022  11.514 -3.3774  1.3327  0.0359
54007SOL    HW267985   4.465   6.168  11.472 -0.5779  0.7999 -1.4805
54008SOL     OW67986   4.221   5.542   9.886 -0.2689 -0.5249 -0.2805
54008SOL    HW167987   4.211   5.613   9.824 -0.9723 -0.3459  0.0217
54008SOL    HW267988   4.199   5.581   9.971 -1.0365 -1.1829 -0.1661
54009SOL     OW67989   9.695   4.588   0.242  0.1092 -0.1554  0.2545
54009SOL    HW167990   9.775   4.637   0.225 -0.8412  0.5854 -2.9090
54009SOL    HW267991   9.626   4.654   0.238 -0.8548 -1.1523  0.1228
54010SOL     OW67992  10.163  10.328   1.437  0.0985  0.4389 -0.3196
54010SOL    HW167993  10.226  10.358   1.373 -0.3067  2.7063  0.2662
54010SOL    HW267994  10.216  10.301   1.512  0.6134 -2.7276 -1.6344
54011SOL     OW67995  11.136   5.903   4.469 -0.2133  0.2762 -0.1440
54011SOL    HW167996  11.173   5.933   4.552  0.1294  0.5305 -0.3841
54011SOL    HW267997  11.204   5.921   4.404 -1.2927  2.1332 -0.8411
54012SOL     OW67998   8.429   3.680   0.557  0.2511  0.2543 -0.5047
54012SOL    HW167999   8.381   3.762   0.571 -0.9529 -0.1440 -2.0266
54012SOL    HW268000   8.429   3.637   0.642 -0.7348  0.9994 -0.1108
54013SOL     OW68001   5.684   7.219  10.899 -0.5647 -0.0452  0.2384
54013SOL    HW168002   5.718   7.240  10.812  0.4527 -0.5077  0.5061
54013SOL    HW268003   5.759   7.230  10.957 -0.9856 -0.6696  0.9213
54014SOL     OW68004   4.371   6.019   4.976  0.2299  0.0530  0.0443
54014SOL    HW168005   4.339   6.037   5.064  1.6387  0.7707  0.4493
54014SOL    HW268006   4.457   6.062   4.973  1.6391 -2.5769 -0.6092
54015SOL     OW68007   8.469   7.786   1.411 -0.0428 -0.2946 -0.1951
54015SOL    HW168008   8.515   7.869   1.396  1.4747 -0.5767  2.2207
54015SOL    HW268009   8.454   7.751   1.324  2.6014  0.8132 -1.2164
54016SOL     OW68010   5.143   8.689  10.368  0.9492 -0.1318  0.1770
54016SOL    HW168011   5.222   8.701  10.420 -0.6470  1.9532  2.3410
54016SOL    HW268012   5.073   8.682  10.432 -1.1378  2.5436 -1.5980
54017SOL     OW68013   0.677   6.328   7.940 -0.1615 -0.2072 -0.2488
54017SOL    HW168014   0.635   6.370   8.015  0.4520 -0.0585  0.0089
54017SOL    HW268015   0.766   6.309   7.969  0.0448 -0.2568 -0.8968
54018SOL     OW68016   5.480   0.743  10.733  0.2576 -0.0796 -0.2442
54018SOL    HW168017   5.567   0.717  10.766 -0.0941 -0.5135  0.3596
54018SOL    HW268018   5.442   0.661  10.700  0.3927  0.2569 -1.2526
54019SOL     OW68019   4.466  10.853   1.828 -0.3516  0.5505 -0.3370
54019SOL    HW168020   4.505  10.819   1.748 -0.2826 -0.1885  0.0068
54019SOL    HW268021   4.516  10.812   1.899 -0.9374  0.5654  0.0909
54020SOL     OW68022   9.287   0.593  10.635  0.2089  0.0767 -0.0982
54020SOL    HW168023   9.303   0.538  10.558 -0.3923 -0.6663  0.2935
54020SOL    HW268024   9.206   0.558  10.672  0.8937 -0.0753  1.3082
54021SOL     OW68025  11.639  12.453   9.176 -0.1363  0.4744  0.4418
54021SOL    HW168026  11.598  12.447   9.262  0.4234  0.6662  0.7253
54021SOL    HW268027  11.725  12.491   9.192  0.6457 -1.0074  0.0151
54022SOL     OW68028  11.127   7.894   7.664  0.2407  0.2320  0.0585
54022SOL    HW168029  11.221   7.897   7.649  0.3626 -0.0987  0.7711
54022SOL    HW268030  11.091   7.859   7.582  0.7262  0.3934 -0.2266
54023SOL     OW68031   0.279   0.749  11.802  0.3515  0.4138  0.0852
54023SOL    HW168032   0.222   0.675  11.781 -1.7219  2.0766 -0.5695
54023SOL    HW268033   0.223   0.808  11.853  2.2765  1.0698  1.5773
54024SOL     OW68034   2.793   4.243   0.633 -0.5777  0.2142  0.2893
54024SOL    HW168035   2.812   4.336   0.622  2.9555 -0.3503  0.4912
54024SOL    HW268036   2.803   4.206   0.545 -0.3409 -0.1754  0.4745
54025SOL     OW68037  11.036  11.882  10.608 -1.0087  0.1326  0.1817
54025SOL    HW168038  11.072  11.952  10.661 -1.0795  1.2396 -1.1730
54025SOL    HW268039  11.027  11.920  10.521 -1.1068 -1.5442 -0.5811
54026SOL     OW68040   9.645  10.219   6.567 -0.2927 -0.5405 -0.4304
54026SOL    HW168041   9.653  10.298   6.621  1.6597 -0.4826 -0.7488
54026SOL    HW268042   9.613  10.152   6.627  1.2996 -0.3364  0.6908
54027SOL     OW68043   1.101   7.323  11.376  0.0919  0.2122  0.0979
54027SOL    HW168044   1.153   7.398  11.405 -0.4545  0.7648 -0.3198
54027SOL    HW268045   1.132   7.250  11.430  2.0736  0.2592 -0.8714
54028SOL     OW68046   0.522  11.126   9.983 -0.7150 -0.6468 -0.0653
54028SOL    HW168047   0.486  11.209   9.952 -0.3975 -0.3834  0.2549
54028SOL    HW268048   0.528  11.137  10.078  0.2860 -0.6465 -0.1211
54029SOL     OW68049   7.564  12.341   1.532 -0.2247  0.4057 -0.2488
54029SOL    HW168050   7.500  12.378   1.593  1.0941 -1.4790  2.4736
54029SOL    HW268051   7.612  12.417   1.498 -2.8902  1.7394 -1.2972
54030SOL     OW68052   9.101   1.702  11.474 -0.2401 -0.5313  0.2542
54030SOL    HW168053   9.107   1.624  11.419 -0.0316  1.0486 -2.1032
54030SOL    HW268054   9.190   1.739  11.474  0.5325 -1.8774  4.0348
54031SOL     OW68055   7.671  12.110   8.027  0.3613 -0.3328  0.1385
54031SOL    HW168056   7.722  12.053   7.969  1.8621 -0.8481  1.8552
54031SOL    HW268057   7.631  12.175   7.969  1.5593 -0.9896 -1.4834
54032SOL     OW68058   4.379   1.747   1.832 -0.0940  0.1203  0.7090
54032SOL    HW168059   4.355   1.831   1.792 -0.3524  0.0871  0.7911
54032SOL    HW268060   4.449   1.713   1.777 -2.6687 -1.5790 -1.8452
54033SOL     OW68061   2.929   3.271  10.851 -0.1655  0.5256  0.0555
54033SOL    HW168062   2.897   3.347  10.901 -0.9307 -0.1074  0.5464
54033SOL    HW268063   2.868   3.201  10.872 -0.8341  0.3540 -2.1787
54034SOL     OW68064   0.608   3.056   6.408  0.4877 -0.1529 -0.4246
54034SOL    HW168065   0.610   2.988   6.341 -2.1562  0.5433 -1.3312
54034SOL    HW268066   0.567   3.131   6.366  1.5227  1.3646  1.1246
54035SOL     OW68067   7.631   2.096   1.013 -0.0117  0.4498 -0.0566
54035SOL    HW168068   7.565   2.028   1.030  1.0749 -0.5803  0.1835
54035SOL    HW268069   7.712   2.047   1.000  0.5787  1.6565 -1.0630
54036SOL     OW68070   7.694  11.506   1.802  0.3116  0.2677 -0.4734
54036SOL    HW168071   7.651  11.493   1.717  0.1450 -1.8298 -0.1121
54036SOL    HW268072   7.622  11.505   1.865  0.5793  0.1367 -0.1656
54037SOL     OW68073   0.953   2.296   6.441 -0.2217 -0.2070  0.5039
54037SOL    HW168074   0.894   2.294   6.366  1.4885  1.8043 -1.0655
54037SOL    HW268075   0.944   2.385   6.475  2.0965  0.3201 -0.0748
54038SOL     OW68076  12.385   3.717   8.928  0.3221 -0.2188 -0.0471
54038SOL    HW168077  12.424   3.801   8.903 -2.3142  0.2029 -3.6070
54038SOL    HW268078  12.301   3.741   8.968  0.4130 -1.1284  0.7052
54039SOL     OW68079   0.831   9.169   0.480 -0.1360  0.3144  0.2024
54039SOL    HW168080   0.762   9.173   0.546 -0.2327  1.0266  0.0648
54039SOL    HW268081   0.787   9.138   0.400 -0.0416 -0.4325  0.4297
54040SOL     OW68082   2.517  11.559  11.404 -0.2487  0.3981  0.2930
54040SOL    HW168083   2.479  11.642  11.375  0.0491 -0.2172 -2.0439
54040SOL    HW268084   2.449  11.494  11.386  0.8050 -0.3246 -1.2662
54041SOL     OW68085  11.517   0.253  11.001 -0.3848 -0.1409  0.2943
54041SOL    HW168086  11.600   0.215  11.029  0.8507  2.0615 -0.2120
54041SOL    HW268087  11.464   0.254  11.081 -0.3656 -2.5216  0.3951
54042SOL     OW68088  10.661   9.278  11.841 -0.1151 -0.0081  0.3549
54042SOL    HW168089  10.754   9.295  11.823 -0.4586  0.6081 -0.8985
54042SOL    HW268090  10.614   9.334  11.779 -1.3697  1.8382  2.7964
54043SOL     OW68091   8.486   3.734   7.499  0.0034  0.5382 -0.6671
54043SOL    HW168092   8.419   3.749   7.432 -1.5011  0.0016  0.6606
54043SOL    HW268093   8.523   3.649   7.478  0.6284  1.0380 -1.6738
54044SOL     OW68094   8.740   4.719   8.796 -0.0372  0.7937  0.1704
54044SOL    HW168095   8.743   4.728   8.891 -0.4421 -0.1551  0.2821
54044SOL    HW268096   8.791   4.793   8.763  1.5374  0.1862  1.1620
54045SOL     OW68097   4.908  11.046   2.493  0.0244  0.3117 -0.2765
54045SOL    HW168098   4.953  11.034   2.409 -2.5195  1.6557 -1.9552
54045SOL    HW268099   4.880  11.137   2.492 -1.4089 -0.0746  1.3478
54046SOL     OW68100  10.428   8.764  12.109  0.1928  0.6544  0.0282
54046SOL    HW168101  10.506   8.722  12.146 -0.4212 -0.3595  0.2044
54046SOL    HW268102  10.429   8.852  12.146 -0.0010 -0.0812  1.9195
54047SOL     OW68103   1.815   9.385   6.788  0.5316 -0.1875 -0.1680
54047SOL    HW168104   1.772   9.467   6.812 -0.4108 -0.7826  0.2101
54047SOL    HW268105   1.770   9.356   6.709  0.6498 -0.4960 -0.1244
54048SOL     OW68106   1.918   7.914   1.546 -0.2765 -0.2491 -0.0795
54048SOL    HW168107   1.976   7.859   1.599 -0.1387 -1.3617 -1.3310
54048SOL    HW268108   1.830   7.883   1.567 -0.2673 -0.1982  0.0337
54049SOL     OW68109   1.704   0.850  10.618 -0.3935  0.4451  0.1503
54049SOL    HW168110   1.779   0.791  10.626 -0.2013  0.8238  1.2693
54049SOL    HW268111   1.717   0.915  10.687  0.1013  2.6019 -1.8418
54050SOL     OW68112   4.805   2.520   2.961  0.0402 -0.3156 -0.5610
54050SOL    HW168113   4.733   2.467   2.925 -2.4927  1.4641  1.4862
54050SOL    HW268114   4.794   2.606   2.920  2.2047 -0.4238 -1.5321
54051SOL     OW68115   7.720   2.701   3.399 -0.1448  0.8013 -0.1375
54051SOL    HW168116   7.734   2.699   3.494  0.1760  1.1767 -0.1752
54051SOL    HW268117   7.640   2.650   3.386  0.1032  0.2974  0.2797
54052SOL     OW68118   4.175   1.293   7.609 -0.3351 -0.1330 -0.3275
54052SOL    HW168119   4.094   1.318   7.564 -1.1350 -0.3961  0.9093
54052SOL    HW268120   4.233   1.368   7.598 -0.7889  0.1042 -1.1510
54053SOL     OW68121   0.850   4.335   8.126  0.3023 -0.4731 -0.5885
54053SOL    HW168122   0.909   4.363   8.055  0.4023 -0.9839 -0.7107
54053SOL    HW268123   0.905   4.283   8.184  0.2460  0.0359 -0.0660
54054SOL     OW68124   6.261  11.712  11.527  0.3836  0.0351 -0.4775
54054SOL    HW168125   6.275  11.626  11.565  1.9065 -0.1667 -1.4169
54054SOL    HW268126   6.169  11.712  11.500  0.3790 -1.3088 -0.5046
54055SOL     OW68127   2.072   7.579   0.498  0.0096  0.4396  0.0668
54055SOL    HW168128   2.060   7.564   0.591 -0.2538 -0.6837 -0.1346
54055SOL    HW268129   2.160   7.546   0.480  0.1091  0.7721 -0.0571
54056SOL     OW68130  11.014   6.187   0.358  0.7762  0.5230 -0.2455
54056SOL    HW168131  10.953   6.257   0.383  0.9314  0.5788 -0.0140
54056SOL    HW268132  11.081   6.231   0.307  0.4969  0.4211 -0.6998
54057SOL     OW68133   2.354   0.818   3.462  0.1226  0.7791  0.0998
54057SOL    HW168134   2.263   0.805   3.489  0.4116  0.7203  1.0934
54057SOL    HW268135   2.364   0.913   3.459  0.5307  0.8350  1.8838
54058SOL     OW68136  12.187   1.231  10.051 -0.0318  0.5523  0.1444
54058SOL    HW168137  12.220   1.307  10.005 -0.6396  0.5625 -0.2915
54058SOL    HW268138  12.093   1.249  10.064 -0.3710 -0.4841 -0.7232
54059SOL     OW68139   3.097   7.533   8.326 -0.1369 -0.2169 -0.3235
54059SOL    HW168140   3.011   7.574   8.337  0.8585  2.1037 -0.8064
54059SOL    HW268141   3.139   7.583   8.257  2.1846 -0.2985  0.9382
54060SOL     OW68142   7.584  11.026   3.637  0.2575  0.0262 -0.1528
54060SOL    HW168143   7.538  11.013   3.720 -0.0244  0.5261 -0.2268
54060SOL    HW268144   7.577  11.120   3.620  0.8780  0.0347 -0.4178
54061SOL     OW68145   9.629  12.337   6.839  0.0956 -0.4974  0.1363
54061SOL    HW168146   9.684  12.314   6.914 -0.1393 -2.3782 -0.2145
54061SOL    HW268147   9.691  12.353   6.768  0.2355 -2.4863 -0.2257
54062SOL     OW68148   2.250   4.694  10.636  0.2958 -0.0099 -0.0365
54062SOL    HW168149   2.215   4.664  10.552  0.7856  1.9265 -0.9965
54062SOL    HW268150   2.340   4.721  10.617  0.3997  0.5228  1.1126
54063SOL     OW68151  11.394   9.421   8.276 -0.2855  0.0191  0.0846
54063SOL    HW168152  11.433   9.474   8.346  2.2924 -0.0817 -1.1757
54063SOL    HW268153  11.400   9.330   8.308 -1.6567  0.1487  0.8241
54064SOL     OW68154   7.109   0.061   0.931  0.2384  0.4552 -0.0606
54064SOL    HW168155   7.125   0.055   1.025  0.0424 -2.0627 -0.1260
54064SOL    HW268156   7.194   0.086   0.894  0.0991  2.4117  0.7882
54065SOL     OW68157   2.500   3.205   6.566  0.0294 -0.0745 -0.3298
54065SOL    HW168158   2.563   3.234   6.632 -0.2974 -0.7128  0.2784
54065SOL    HW268159   2.447   3.283   6.549 -0.8942 -0.2725  1.3478
54066SOL     OW68160   1.599   1.137   4.025 -0.5030  0.3721  0.2182
54066SOL    HW168161   1.620   1.045   4.040  0.7213  0.7072  0.6548
54066SOL    HW268162   1.600   1.176   4.113 -1.0823  0.7982  0.0416
54067SOL     OW68163   1.974   8.616   5.696 -1.0199  0.1463 -0.1476
54067SOL    HW168164   1.924   8.611   5.778 -1.3365  1.2604 -0.2547
54067SOL    HW268165   1.972   8.527   5.661 -1.4705 -0.1907  0.7131
54068SOL     OW68166   0.652   8.097   5.567  0.2373  0.0245 -0.2634
54068SOL    HW168167   0.570   8.047   5.571  0.6263 -0.5266  2.2089
54068SOL    HW268168   0.721   8.033   5.581  1.2243  0.4032 -2.8270
54069SOL     OW68169  12.049   9.757   7.165  0.0106  0.0865 -0.0043
54069SOL    HW168170  11.977   9.820   7.167 -0.1605 -0.0298 -1.3739
54069SOL    HW268171  12.115   9.793   7.225 -1.2968  0.0234  1.5271
54070SOL     OW68172   2.940  10.724   0.570  0.1816  0.0296  0.1712
54070SOL    HW168173   3.006  10.729   0.501 -0.7484  0.3133 -0.7296
54070SOL    HW268174   2.878  10.794   0.549 -3.0650 -3.1052 -1.9049
54071SOL     OW68175  10.869   1.010   3.191  0.0174  0.2045  0.2652
54071SOL    HW168176  10.910   1.083   3.144 -0.5803  0.7498  0.5791
54071SOL    HW268177  10.941   0.969   3.239  0.8972 -1.0841 -1.9667
54072SOL     OW68178   6.537   9.987   4.141  0.2574  0.1073 -0.1983
54072SOL    HW168179   6.579  10.068   4.171  1.1033  0.3901 -1.9797
54072SOL    HW268180   6.584   9.918   4.187  0.7473  0.5627  0.0073
54073SOL     OW68181   2.160   9.642   0.243 -0.5089 -0.1415 -0.7197
54073SOL    HW168182   2.166   9.731   0.279 -1.3537 -0.1382 -0.5538
54073SOL    HW268183   2.132   9.589   0.317 -1.3975 -0.2917 -1.1506
54074SOL     OW68184  12.264   9.069   7.343 -0.1941  0.2385 -0.2840
54074SOL    HW168185  12.245   9.127   7.269  2.0453  0.1278 -1.0150
54074SOL    HW268186  12.279   9.128   7.417  1.5521  0.6493 -0.9062
54075SOL     OW68187   2.282   4.613   9.191 -0.0371  1.0420 -0.2147
54075SOL    HW168188   2.249   4.524   9.207  0.2382  0.8244 -0.8513
54075SOL    HW268189   2.273   4.626   9.097  0.8500  1.3169 -0.2718
54076SOL     OW68190  12.479  10.074   7.707 -0.3813  0.4469 -0.1400
54076SOL    HW168191  12.399  10.090   7.757 -0.4624  1.7900 -0.6741
54076SOL    HW268192  12.527  10.009   7.759 -1.5645  0.0208  0.4513
54077SOL     OW68193   4.935  10.823   1.369 -0.4198  0.1924  0.1135
54077SOL    HW168194   4.853  10.825   1.320 -0.3691 -1.7903 -0.1386
54077SOL    HW268195   4.989  10.891   1.329 -1.2743  0.2654 -0.9474
54078SOL     OW68196   3.316   0.343   4.060 -0.0686 -0.7028  0.2425
54078SOL    HW168197   3.320   0.390   3.976  0.5911  0.6149  0.9794
54078SOL    HW268198   3.238   0.289   4.053  0.1198 -0.8314 -1.3361
54079SOL     OW68199   0.200  12.381   5.634 -0.2408  0.4760 -0.4036
54079SOL    HW168200   0.112  12.391   5.670  0.6955  1.5076  1.8358
54079SOL    HW268201   0.204  12.442   5.561 -1.0550  1.2812  0.1996
54080SOL     OW68202   6.206   7.357   1.581 -0.2037  0.4955 -0.5285
54080SOL    HW168203   6.111   7.368   1.594 -0.4852 -0.7910 -1.2502
54080SOL    HW268204   6.213   7.276   1.531  1.2895  0.6436 -0.5900
54081SOL     OW68205   7.315  10.657  12.110  0.0516 -0.3301  0.0816
54081SOL    HW168206   7.355  10.685  12.193 -1.3283  1.1041  0.3085
54081SOL    HW268207   7.253  10.588  12.135  0.9244 -1.1650 -0.0148
54082SOL     OW68208   0.462   4.416   7.391 -0.2900  0.2513 -0.0400
54082SOL    HW168209   0.426   4.498   7.358 -0.0652  1.0000  1.5211
54082SOL    HW268210   0.387   4.367   7.423 -0.3705  0.0130 -0.5719
54083SOL     OW68211  11.464   9.948  12.470  0.5666  0.1190 -0.5400
54083SOL    HW168212  11.462   9.984  12.382  0.6401 -0.0812 -0.6249
54083SOL    HW268213  11.430   9.859  12.460 -0.3800  0.4376 -0.1987
54084SOL     OW68214   7.385  12.395  12.407 -0.2918  0.0616 -0.1908
54084SOL    HW168215   7.402  12.488  12.421  0.8809 -0.1712  0.0564
54084SOL    HW268216   7.458  12.366  12.352  0.9467 -1.2921  2.0226
54085SOL     OW68217  10.276   8.160   9.187 -0.2405 -0.2462 -0.2480
54085SOL    HW168218  10.306   8.130   9.101 -1.6553 -1.0020 -0.5098
54085SOL    HW268219  10.257   8.080   9.235  0.3538  0.1744  0.7332
54086SOL     OW68220   1.793   4.268   2.152  0.4548  0.0852 -0.2094
54086SOL    HW168221   1.771   4.352   2.193 -0.9946  0.2350 -1.2422
54086SOL    HW268222   1.756   4.202   2.210 -0.3498  0.2525 -0.5171
54087SOL     OW68223   5.077  11.589  10.326  0.4898  0.1163 -0.0467
54087SOL    HW168224   5.157  11.538  10.327  1.5196  1.5461 -2.1390
54087SOL    HW268225   5.041  11.579  10.414  1.9038 -2.1485  0.3501
54088SOL     OW68226  12.023   9.588   8.541  0.3405 -0.2873  0.3831
54088SOL    HW168227  12.042   9.501   8.577  3.0064 -0.0907 -0.3648
54088SOL    HW268228  12.053   9.649   8.609 -1.1802  0.1059  0.7479
54089SOL     OW68229  10.802  11.040  11.044 -0.2558  0.5856  0.0395
54089SOL    HW168230  10.768  11.038  11.133  0.6253  0.4926  0.3740
54089SOL    HW268231  10.727  11.016  10.990  0.0184 -2.8994  0.9842
54090SOL     OW68232   4.224  12.275   9.499 -0.0393  0.3380 -0.4568
54090SOL    HW168233   4.171  12.226   9.436  1.8888 -0.1314 -1.7864
54090SOL    HW268234   4.173  12.272   9.580 -1.4865 -1.0728 -1.3603
54091SOL     OW68235   5.876  10.323   0.634  0.0008  0.0207  0.3871
54091SOL    HW168236   5.782  10.322   0.652  0.5500  0.6424  3.9177
54091SOL    HW268237   5.914  10.376   0.703  2.8077  1.8267 -2.2563
54092SOL     OW68238   6.848  10.618   0.417 -0.4926  0.0066 -0.2478
54092SOL    HW168239   6.765  10.580   0.389  0.2300 -0.7834 -1.4195
54092SOL    HW268240   6.840  10.625   0.512 -3.3560  3.4888 -0.5289
54093SOL     OW68241   5.688   7.753   7.003  0.0788  0.0217  0.6360
54093SOL    HW168242   5.731   7.686   7.057  0.3449  0.2881  0.7553
54093SOL    HW268243   5.757   7.785   6.945 -0.2470 -0.3924  0.0029
54094SOL     OW68244   4.601  10.179  11.613 -0.3555 -0.4844 -0.3705
54094SOL    HW168245   4.608  10.141  11.701 -1.6656 -3.5220 -1.4188
54094SOL    HW268246   4.690  10.176  11.579  0.1719  0.7320  0.7919
54095SOL     OW68247  11.746   9.140   5.900 -0.3026  0.1875 -0.2110
54095SOL    HW168248  11.796   9.063   5.926 -0.1131  0.2349 -0.4376
54095SOL    HW268249  11.666   9.134   5.952  0.3808  0.6732  0.9324
54096SOL     OW68250   8.887   7.033   6.168 -0.0408 -0.1909 -0.4558
54096SOL    HW168251   8.853   6.976   6.238 -0.4729 -0.4431 -0.8628
54096SOL    HW268252   8.961   7.079   6.208  0.8653 -1.6679 -0.3523
54097SOL     OW68253   2.877   4.618   9.575 -0.1166  0.1621  0.1084
54097SOL    HW168254   2.932   4.605   9.652  0.2293 -0.2086 -0.2008
54097SOL    HW268255   2.938   4.636   9.504 -0.4864  1.8812  0.1774
54098SOL     OW68256  12.120   8.241   7.794  0.2046  0.1562  0.4340
54098SOL    HW168257  12.061   8.165   7.794  0.6597 -0.2125  0.9054
54098SOL    HW268258  12.207   8.204   7.775  0.2982  0.6822 -0.1891
54099SOL     OW68259   4.720   2.282   8.429  0.0478 -0.2350  0.5412
54099SOL    HW168260   4.660   2.355   8.416 -1.5609 -1.7152 -0.7409
54099SOL    HW268261   4.682   2.233   8.502  1.3225  0.3459  1.6484
54100SOL     OW68262   0.499   2.319   9.953 -0.4784  0.0992 -0.1423
54100SOL    HW168263   0.518   2.226   9.968 -0.3816  0.0867 -0.3452
54100SOL    HW268264   0.430   2.319   9.886 -0.4035  0.1776 -0.2188
54101SOL     OW68265  11.253   2.843   8.098  0.7297  0.8044  0.2822
54101SOL    HW168266  11.307   2.920   8.084  0.8488  1.0505  1.9035
54101SOL    HW268267  11.258   2.794   8.016  1.8741  1.7625 -0.2359
54102SOL     OW68268   6.753   4.827   2.993 -0.1571 -1.0041 -0.2265
54102SOL    HW168269   6.676   4.872   3.029 -1.1046 -3.1926  0.6892
54102SOL    HW268270   6.819   4.833   3.063  0.0910 -0.2201 -0.5119
54103SOL     OW68271  10.876  11.758   3.208  0.3486 -0.3019  0.4822
54103SOL    HW168272  10.918  11.837   3.241  1.6415 -0.2805 -1.1375
54103SOL    HW268273  10.885  11.695   3.280 -2.9918  1.6349  2.8791
54104SOL     OW68274   2.486  10.155  12.378 -0.7707 -0.5910 -0.3730
54104SOL    HW168275   2.493  10.072  12.424  0.7472 -0.3586 -0.1438
54104SOL    HW268276   2.572  10.169  12.339 -0.2301  1.9209  1.4252
54105SOL     OW68277   4.518   3.081   2.466 -0.5501 -0.2576  0.1536
54105SOL    HW168278   4.518   3.117   2.554  0.2400 -0.8039  0.3941
54105SOL    HW268279   4.500   3.155   2.409  0.9273  0.5147  0.6368
54106SOL     OW68280   7.204  10.614   5.388 -0.4458  0.4449 -0.1698
54106SOL    HW168281   7.222  10.679   5.456  0.6134 -2.0935  2.1982
54106SOL    HW268282   7.116  10.583   5.406 -0.5380  0.4564 -0.5904
54107SOL     OW68283   5.373   0.615   1.103  0.1240  0.2464  0.0001
54107SOL    HW168284   5.408   0.696   1.141 -0.2292  0.1464  0.5535
54107SOL    HW268285   5.293   0.643   1.057  0.0849  0.2383  0.0625
54108SOL     OW68286   9.213   1.484   5.309 -0.1246  0.5006  0.2703
54108SOL    HW168287   9.169   1.489   5.394  1.5612 -2.8728  1.5481
54108SOL    HW268288   9.164   1.417   5.261  0.5253  0.4455 -0.3381
54109SOL     OW68289  10.548  10.968   6.890 -0.4340 -0.0094  0.0277
54109SOL    HW168290  10.574  10.987   6.801  0.2024  2.0726  0.6159
54109SOL    HW268291  10.582  10.880   6.907  2.9078  1.0447 -0.5379
54110SOL     OW68292   4.798   9.829   3.272  0.0282  0.4903  0.0404
54110SOL    HW168293   4.762   9.744   3.298  1.2218  0.1843  0.7564
54110SOL    HW268294   4.793   9.829   3.177  0.8012 -0.7599 -0.0290
54111SOL     OW68295   9.543  10.162   5.888 -0.6092  0.2177  0.0844
54111SOL    HW168296   9.457  10.123   5.872  0.0196 -1.1823 -0.1101
54111SOL    HW268297   9.540  10.247   5.844 -1.7574  0.0266 -0.2383
54112SOL     OW68298  11.638   7.366   3.460  0.7612  0.4913  0.4086
54112SOL    HW168299  11.626   7.272   3.468  2.0890  0.3270  0.5238
54112SOL    HW268300  11.719   7.385   3.507  1.9282  1.2990 -1.8041
54113SOL     OW68301   1.919   5.035   0.209 -0.0986  0.3273 -0.3442
54113SOL    HW168302   1.851   5.077   0.157 -0.6384 -1.0749 -0.8404
54113SOL    HW268303   1.932   4.950   0.166  0.7048 -0.1454  0.7807
54114SOL     OW68304   4.446   3.313   2.332 -0.1772 -0.0797  0.5227
54114SOL    HW168305   4.443   3.330   2.237  0.0459 -0.1247  0.5075
54114SOL    HW268306   4.434   3.399   2.372  1.6691  0.2575  0.4431
54115SOL     OW68307   1.253   3.001  10.119 -0.3340 -0.1512  0.0827
54115SOL    HW168308   1.210   3.014  10.034 -0.7463  0.3736  0.3611
54115SOL    HW268309   1.266   3.090  10.153 -0.2440 -0.3572  0.5977
54116SOL     OW68310   4.776   3.800  10.232 -0.2249 -0.2939 -0.2155
54116SOL    HW168311   4.722   3.868  10.272  0.4816  0.7402 -0.9754
54116SOL    HW268312   4.838   3.774  10.301  0.8050  1.2764 -0.5125
54117SOL     OW68313  11.696   8.670   9.586  0.3390 -0.0148  0.7502
54117SOL    HW168314  11.761   8.642   9.522 -0.0688  2.0276 -0.6723
54117SOL    HW268315  11.621   8.613   9.571  0.3238  0.3081 -0.4769
54118SOL     OW68316  10.813  11.699   1.557  0.3699  0.7357 -0.5714
54118SOL    HW168317  10.885  11.761   1.561  0.6708  0.3456  0.2888
54118SOL    HW268318  10.780  11.693   1.647 -1.1183  1.3386 -1.0388
54119SOL     OW68319   8.284   6.159   3.566 -0.1539 -0.4459  0.2782
54119SOL    HW168320   8.240   6.244   3.561 -0.6895 -0.6557  1.2160
54119SOL    HW268321   8.334   6.162   3.647 -0.7465 -1.2724  0.7016
54120SOL     OW68322   9.578   3.375   9.854  0.8035  0.2714 -0.5611
54120SOL    HW168323   9.670   3.384   9.881  0.9405 -2.6335  0.3240
54120SOL    HW268324   9.529   3.428   9.917  1.6950 -0.3799  0.7193
54121SOL     OW68325   2.377   1.852   8.839  0.2116  0.3206  0.3997
54121SOL    HW168326   2.441   1.781   8.844  0.8914  0.9921  2.3618
54121SOL    HW268327   2.296   1.814   8.873  0.0905  0.0166 -0.2161
54122SOL     OW68328   4.126   5.642   3.429  0.3478 -0.2441  0.3494
54122SOL    HW168329   4.082   5.718   3.391 -1.2194 -0.7905  0.9978
54122SOL    HW268330   4.121   5.655   3.524  2.0899 -0.0691  0.4558
54123SOL     OW68331   0.817   5.091   4.133 -0.0069  0.7010  0.1541
54123SOL    HW168332   0.899   5.140   4.131 -1.3457  3.0722 -0.0336
54123SOL    HW268333   0.773   5.120   4.213 -1.0290  0.1293 -0.1707
54124SOL     OW68334   5.099  10.540   6.198 -0.6662 -0.3080 -0.4085
54124SOL    HW168335   5.101  10.449   6.229 -1.2463 -0.9192 -2.0377
54124SOL    HW268336   5.094  10.593   6.277  1.1036 -1.6272  0.6551
54125SOL     OW68337  12.093   4.450   2.796  0.5763 -0.4501  0.1732
54125SOL    HW168338  12.182   4.421   2.775 -0.3691 -2.8093 -1.0215
54125SOL    HW268339  12.057   4.379   2.850 -0.3246  0.8964  1.4340
54126SOL     OW68340   0.975   4.841   2.192  0.5281 -0.0349 -0.1966
54126SOL    HW168341   1.016   4.888   2.120 -1.0275  0.9746 -0.4664
54126SOL    HW268342   0.943   4.760   2.152  0.7503 -0.0510 -0.3465
54127SOL     OW68343   3.446   4.186  12.167 -0.3092 -0.2220 -0.0105
54127SOL    HW168344   3.432   4.196  12.261 -0.1596 -1.3894  0.1501
54127SOL    HW268345   3.386   4.116  12.141 -2.5077  2.0011 -1.3777
54128SOL     OW68346   7.068   0.414   8.121 -0.0311 -0.6274 -0.4932
54128SOL    HW168347   7.126   0.441   8.193 -0.8659 -0.8279  0.2680
54128SOL    HW268348   6.994   0.474   8.127 -0.9290 -1.7313 -0.0791
54129SOL     OW68349   0.414   9.258   2.487  0.1770 -0.3739 -0.4126
54129SOL    HW168350   0.360   9.328   2.451  1.8438  1.6773  0.8271
54129SOL    HW268351   0.459   9.221   2.411 -0.1379  0.4526 -1.0158
54130SOL     OW68352   5.977   4.764  12.111 -0.3293  0.5725 -0.3359
54130SOL    HW168353   5.894   4.802  12.081 -0.6541 -1.2962 -2.0650
54130SOL    HW268354   5.959   4.735  12.201 -0.9642  1.8263 -0.0444
54131SOL     OW68355   0.742   9.852   3.207  0.2085  0.1035 -0.4937
54131SOL    HW168356   0.678   9.871   3.139 -1.2282 -2.2326  0.1089
54131SOL    HW268357   0.718   9.765   3.240  2.2348  0.1776  1.4342
54132SOL     OW68358   3.168   4.683   0.887  0.2838  0.1329 -0.3653
54132SOL    HW168359   3.214   4.617   0.938  0.7500  1.2648  0.7267
54132SOL    HW268360   3.175   4.653   0.797  0.1956 -1.4673  0.1378
54133SOL     OW68361  10.213   5.486   5.984 -0.3757  0.0290 -0.0006
54133SOL    HW168362  10.193   5.407   6.034 -0.4967  1.3361  2.1574
54133SOL    HW268363  10.134   5.505   5.934 -1.2361  0.0871  1.3485
54134SOL     OW68364   0.014   5.142   1.365 -0.6516 -0.1402 -0.2215
54134SOL    HW168365  -0.046   5.216   1.378  0.1318  0.5971 -0.6767
54134SOL    HW268366  -0.029   5.087   1.301 -0.5190  0.7735 -1.1216
54135SOL     OW68367   0.967   1.714   4.615 -0.4536  0.0988 -0.8506
54135SOL    HW168368   0.953   1.627   4.653 -0.4100  0.7876  0.8607
54135SOL    HW268369   0.879   1.742   4.587 -0.6139 -0.1489 -0.6031
54136SOL     OW68370  11.533   2.286   1.331 -0.0293 -0.4852  0.1406
54136SOL    HW168371  11.542   2.305   1.237 -0.5892  1.0639  0.3707
54136SOL    HW268372  11.622   2.273   1.361  0.2723  0.2748 -0.3798
54137SOL     OW68373   2.357   9.065   1.797  0.2391 -0.2205 -0.3067
54137SOL    HW168374   2.355   9.084   1.891  2.2882 -0.5688 -0.1516
54137SOL    HW268375   2.268   9.082   1.767 -0.4348 -0.0450  1.6863
54138SOL     OW68376   2.242   0.597   0.699 -0.1932  0.4598  0.3014
54138SOL    HW168377   2.268   0.522   0.752  0.6507  0.5541  0.0356
54138SOL    HW268378   2.210   0.558   0.617 -0.0750  0.3768  0.2945
54139SOL     OW68379   8.560  10.628  10.743 -0.2066  0.5529 -0.0954
54139SOL    HW168380   8.542  10.539  10.711  1.5062  0.4233 -0.8236
54139SOL    HW268381   8.604  10.671  10.670  0.0046  1.6449  0.6541
54140SOL     OW68382   9.320   8.939   4.805 -0.0843 -0.2184 -0.7893
54140SOL    HW168383   9.391   8.893   4.760  0.8925  1.0958 -0.6188
54140SOL    HW268384   9.303   9.016   4.751 -1.0494 -0.2590 -0.5625
54141SOL     OW68385   2.579   3.166   3.086  0.5574  0.3626  0.3186
54141SOL    HW168386   2.568   3.080   3.044  0.9601  0.9522 -1.0549
54141SOL    HW268387   2.659   3.201   3.046 -0.5524  2.1169 -0.4349
54142SOL     OW68388   7.678   8.645   9.009  0.5807  0.4813 -0.3425
54142SOL    HW168389   7.713   8.711   9.069 -0.4617  1.0647 -0.3608
54142SOL    HW268390   7.735   8.650   8.932  1.4283  0.2902  0.2618
54143SOL     OW68391   8.070   0.578  11.076 -0.1654 -0.3713  0.2585
54143SOL    HW168392   8.139   0.642  11.099 -0.6891  1.6308 -3.0922
54143SOL    HW268393   8.113   0.493  11.083  1.3858  0.4928  2.2388
54144SOL     OW68394   3.169   7.720  11.554 -0.8490  0.1824  0.1474
54144SOL    HW168395   3.238   7.784  11.570 -0.5058 -0.1360 -0.0355
54144SOL    HW268396   3.132   7.702  11.640 -0.8364  0.4985  0.2214
54145SOL     OW68397   4.819   0.981   1.501  0.4649 -0.0535  0.1209
54145SOL    HW168398   4.774   1.013   1.423 -0.2092  0.0268  0.5346
54145SOL    HW268399   4.823   1.057   1.559 -0.5985 -0.5416  0.8630
54146SOL     OW68400   5.598   5.347   5.730  1.0913 -0.1593  0.3891
54146SOL    HW168401   5.598   5.310   5.818 -0.0499  1.0387  0.9320
54146SOL    HW268402   5.656   5.424   5.737 -0.9018  1.3966  0.8114
54147SOL     OW68403   1.376   6.714   8.350 -0.0476 -0.6508 -0.0059
54147SOL    HW168404   1.417   6.627   8.350 -1.5907 -1.4124  0.4032
54147SOL    HW268405   1.296   6.703   8.401 -0.7884  0.7683 -0.7968
54148SOL     OW68406   3.553   0.086   8.129 -0.0160 -0.2643  0.0328
54148SOL    HW168407   3.506   0.169   8.118  0.4145  0.2828  1.8807
54148SOL    HW268408   3.520   0.051   8.212  0.7087 -1.3369 -0.1097
54149SOL     OW68409  10.372   4.377   8.838 -0.1828  0.1970  0.6382
54149SOL    HW168410  10.337   4.465   8.833  1.8967  1.1034  0.9153
54149SOL    HW268411  10.437   4.373   8.767  0.7024 -0.6239  1.4566
54150SOL     OW68412   2.413   9.143  10.774  0.0889 -0.4593 -0.3527
54150SOL    HW168413   2.319   9.129  10.766  0.1977 -0.3546 -2.2521
54150SOL    HW268414   2.446   9.059  10.809 -0.7201 -0.3320  0.7968
54151SOL     OW68415   7.868   0.402  10.199 -0.0117  0.3588  0.2184
54151SOL    HW168416   7.897   0.316  10.227  0.4654  0.3046 -0.4123
54151SOL    HW268417   7.777   0.389  10.171  0.1983 -0.0390 -0.2917
54152SOL     OW68418   4.195   4.391  12.009 -0.1608 -0.2352 -0.6508
54152SOL    HW168419   4.150   4.471  12.038  0.0494 -0.0237 -0.8976
54152SOL    HW268420   4.240   4.417  11.928  1.9077  0.0737  0.5204
54153SOL     OW68421   7.847  11.087   3.838 -0.1014 -0.3092 -0.0539
54153SOL    HW168422   7.766  11.132   3.815 -0.5542 -0.1679  1.6491
54153SOL    HW268423   7.860  11.023   3.768 -2.4471 -1.2839  0.2957
54154SOL     OW68424   5.321   8.961  11.734 -0.1504 -0.2342  0.1501
54154SOL    HW168425   5.233   8.956  11.698  0.6338  1.5127 -2.2858
54154SOL    HW268426   5.323   9.043  11.784  0.1727 -0.0897 -0.0917
54155SOL     OW68427   4.484   9.456   0.861 -0.1374  0.2476  0.2025
54155SOL    HW168428   4.522   9.541   0.838  0.2675  0.0931  0.3011
54155SOL    HW268429   4.451   9.468   0.950  1.1540 -0.1022  0.7462
54156SOL     OW68430   4.998   0.442   5.948  0.1508  0.3187  0.1843
54156SOL    HW168431   5.011   0.377   6.017 -0.1375 -0.0994 -0.1495
54156SOL    HW268432   5.073   0.431   5.890 -0.1573 -0.0801 -0.1507
54157SOL     OW68433  11.214   5.361   2.179 -0.3324  0.0291 -0.1607
54157SOL    HW168434  11.174   5.279   2.208  3.6703 -1.5900  1.4229
54157SOL    HW268435  11.273   5.336   2.108 -0.9679  2.0449 -1.4777
54158SOL     OW68436  10.395  10.737   5.321 -0.7238 -0.3215  0.4249
54158SOL    HW168437  10.488  10.756   5.304 -0.7059 -0.0030  0.8493
54158SOL    HW268438  10.350  10.764   5.241 -0.4749 -0.2488  0.3072
54159SOL     OW68439   6.809   5.616  10.631 -0.1511 -0.7604 -0.1964
54159SOL    HW168440   6.717   5.599  10.611 -0.6819 -1.1385  2.3341
54159SOL    HW268441   6.814   5.711  10.644 -0.0209 -0.6540 -0.9606
54160SOL     OW68442  11.183   6.926   8.345  1.0775 -0.0972 -0.6621
54160SOL    HW168443  11.245   6.857   8.370  1.6647  1.1498  1.5999
54160SOL    HW268444  11.123   6.932   8.419  1.8161  2.6208 -0.1680
54161SOL     OW68445  12.340  10.451  11.899 -0.3294 -0.0876 -0.0593
54161SOL    HW168446  12.339  10.503  11.980 -0.7294  1.5164 -1.0491
54161SOL    HW268447  12.313  10.364  11.927  1.1282 -0.0167  1.8004
54162SOL     OW68448  11.267   4.570   2.195 -0.4008 -0.2809 -0.0050
54162SOL    HW168449  11.254   4.661   2.222 -0.2610  0.1672 -1.3980
54162SOL    HW268450  11.291   4.525   2.276 -0.9284  0.8233  0.7904
54163SOL     OW68451  11.352   7.775   0.854  0.2732 -0.2107 -0.0086
54163SOL    HW168452  11.351   7.746   0.763  0.6093  0.5684 -0.2714
54163SOL    HW268453  11.271   7.825   0.865  0.2679 -0.2408  0.1005
54164SOL     OW68454   6.931   3.103   2.597 -0.4490  0.3003  0.3779
54164SOL    HW168455   7.016   3.138   2.569 -0.4467  0.2703  0.3482
54164SOL    HW268456   6.921   3.135   2.687  0.9175 -2.0744  1.4527
54165SOL     OW68457   9.712   5.328   4.846  0.0688 -0.0317  0.1629
54165SOL    HW168458   9.712   5.423   4.862 -1.2871 -0.1882  1.2554
54165SOL    HW268459   9.756   5.291   4.922  0.7951 -0.2873 -0.3677
54166SOL     OW68460   9.289   5.834   3.117  0.1979 -0.0734 -0.0633
54166SOL    HW168461   9.278   5.918   3.161 -1.8516  0.7846 -2.0419
54166SOL    HW268462   9.377   5.805   3.143 -0.1702  1.2001  3.0201
54167SOL     OW68463   5.130   0.409   8.126  0.0969  0.2649  0.8463
54167SOL    HW168464   5.215   0.403   8.084 -0.5943 -0.4120 -0.5132
54167SOL    HW268465   5.096   0.319   8.124 -0.9871  0.6663  0.6082
54168SOL     OW68466  12.320   8.754  10.787  0.5190 -0.0995 -0.1718
54168SOL    HW168467  12.409   8.718  10.787  1.3356  1.7767 -1.4048
54168SOL    HW268468  12.263   8.677  10.793  2.2080 -1.3389  0.8080
54169SOL     OW68469   5.269   6.888  11.310 -0.2964 -0.6503 -0.5153
54169SOL    HW168470   5.187   6.937  11.319 -0.2993 -0.7740  0.1476
54169SOL    HW268471   5.305   6.917  11.226  0.6875  2.0063  0.7138
54170SOL     OW68472   6.449  10.950   4.559  0.1048  0.1625 -0.0494
54170SOL    HW168473   6.437  10.858   4.535 -0.4097 -0.3593  2.0607
54170SOL    HW268474   6.361  10.985   4.564  0.2168  0.3289  0.7875
54171SOL     OW68475   4.721   0.943   9.968  0.2974 -0.0051  0.0771
54171SOL    HW168476   4.671   0.915   9.892 -0.9773  3.7438 -0.6454
54171SOL    HW268477   4.748   0.861  10.010 -1.4200 -2.1999 -2.7396
54172SOL     OW68478   6.426  11.662   1.770  0.2355  0.2425  0.2386
54172SOL    HW168479   6.352  11.650   1.710  0.5182 -0.1152 -0.0482
54172SOL    HW268480   6.495  11.605   1.735  0.0654 -0.7760  1.4846
54173SOL     OW68481   1.446   0.706   3.701 -0.5116 -0.0444 -0.1131
54173SOL    HW168482   1.380   0.740   3.762 -0.5018  0.7524 -0.5237
54173SOL    HW268483   1.516   0.772   3.703 -0.9301  0.4898 -1.6705
54174SOL     OW68484   8.831   2.382   9.515  0.3589  0.2115  0.0439
54174SOL    HW168485   8.877   2.313   9.468  0.5075  0.2470  0.1354
54174SOL    HW268486   8.875   2.463   9.488 -1.0273  0.4839 -1.5324
54175SOL     OW68487   4.567   5.440   6.788  0.0005 -0.2167  0.1179
54175SOL    HW168488   4.586   5.370   6.726 -1.0408 -2.3998  2.1048
54175SOL    HW268489   4.640   5.437   6.850  0.5436  1.3061 -0.3938
54176SOL     OW68490   5.097   5.557   0.056 -0.1616 -0.6696 -0.2240
54176SOL    HW168491   5.141   5.576   0.139  0.9388 -0.1794 -0.9004
54176SOL    HW268492   5.091   5.643   0.013 -1.5743 -0.7592 -0.2695
54177SOL     OW68493   2.809  10.677   9.394  0.1542 -0.4646  0.1797
54177SOL    HW168494   2.899  10.649   9.408  0.1056 -0.6788  0.0667
54177SOL    HW268495   2.779  10.626   9.319  0.8208  1.5627 -1.5613
54178SOL     OW68496   4.572  11.315  11.484 -0.9583  0.5801 -0.4211
54178SOL    HW168497   4.609  11.357  11.562 -0.3643  0.3096 -0.5505
54178SOL    HW268498   4.499  11.263  11.517  0.0781 -0.5701  0.1654
54179SOL     OW68499   2.427  10.063   2.723 -0.1238  0.3494 -0.6094
54179SOL    HW168500   2.443  10.002   2.795  1.7430 -0.8314 -1.8920
54179SOL    HW268501   2.341  10.038   2.690 -0.8564  0.6926  0.9791
54180SOL     OW68502   4.732   7.156   6.408 -0.5169  0.3700 -0.1599
54180SOL    HW168503   4.694   7.069   6.419  1.0420 -0.4065 -0.6144
54180SOL    HW268504   4.797   7.163   6.478  0.0278  0.7835 -0.6985
54181SOL     OW68505   6.281   4.395  11.202 -0.4283  0.1079  0.0499
54181SOL    HW168506   6.215   4.345  11.251 -1.2723 -0.3274 -1.4308
54181SOL    HW268507   6.244   4.401  11.114 -0.0683  2.8708  0.0234
54182SOL     OW68508   4.915   3.073  11.844 -0.0517  0.2978  0.0961
54182SOL    HW168509   4.861   3.138  11.887 -1.7301 -0.6277 -0.5287
54182SOL    HW268510   4.998   3.075  11.892 -0.1885  2.5847  0.3266
54183SOL     OW68511  12.283  10.287  11.495 -0.2020 -0.5939  0.2397
54183SOL    HW168512  12.190  10.288  11.518 -0.4778 -2.0966 -0.6650
54183SOL    HW268513  12.294  10.358  11.432 -0.9436 -1.0023 -0.3551
54184SOL     OW68514   2.496   3.885   8.323 -0.2771  0.4790  0.3387
54184SOL    HW168515   2.574   3.833   8.305  0.3104 -0.2889  4.2226
54184SOL    HW268516   2.427   3.821   8.337 -0.7169  0.9811  0.5266
54185SOL     OW68517   7.603   3.637   2.528 -0.2375 -0.3762 -0.6364
54185SOL    HW168518   7.640   3.685   2.453 -0.2399 -1.2405 -1.1968
54185SOL    HW268519   7.519   3.604   2.496 -1.1652  0.9030  0.3812
54186SOL     OW68520   8.174   6.324  11.457 -0.5141  0.5858  0.3173
54186SOL    HW168521   8.185   6.243  11.507 -1.4004  0.4995  0.3959
54186SOL    HW268522   8.173   6.393  11.523  2.0570  0.8795  0.1248
54187SOL     OW68523   7.745   8.338   5.882 -0.1924  0.1705 -0.3145
54187SOL    HW168524   7.777   8.253   5.852 -0.8383 -0.7275  1.4090
54187SOL    HW268525   7.649   8.330   5.876 -0.2925  0.3709  0.8494
54188SOL     OW68526   8.253   0.506   1.591  0.0083 -0.0311  0.5068
54188SOL    HW168527   8.272   0.456   1.670 -0.8053 -0.5203  0.4130
54188SOL    HW268528   8.315   0.474   1.526 -1.2493 -1.8311  0.1075
54189SOL     OW68529   2.154   8.872   6.224 -0.0761  0.6912 -0.5072
54189SOL    HW168530   2.075   8.925   6.213 -0.5252 -0.0036 -0.7097
54189SOL    HW268531   2.159   8.820   6.144  0.1154  0.1198 -0.1284
54190SOL     OW68532   5.368   6.482   4.785 -0.1365  0.6536  0.5214
54190SOL    HW168533   5.282   6.477   4.745 -0.0009 -0.6112  0.3336
54190SOL    HW268534   5.428   6.449   4.718  0.2125 -0.4874  1.3490
54191SOL     OW68535   4.917   0.588   3.943 -0.1172  0.3708  0.6882
54191SOL    HW168536   4.870   0.606   4.024 -0.9484  0.8345  0.1183
54191SOL    HW268537   4.875   0.645   3.878  0.8365  0.3458  0.0316
54192SOL     OW68538   3.879   0.893   2.442 -0.0284  0.1798  0.4170
54192SOL    HW168539   3.910   0.944   2.367  1.5658 -0.0674  0.8666
54192SOL    HW268540   3.910   0.942   2.518 -0.5757 -0.2086  0.8932
54193SOL     OW68541   1.807   2.459  10.710  0.1852 -0.0034 -0.2323
54193SOL    HW168542   1.735   2.396  10.714  0.2452 -0.0054  1.1141
54193SOL    HW268543   1.765   2.541  10.683 -0.2844 -0.0788  0.2338
54194SOL     OW68544   1.074   0.001   8.824  0.1702  0.2642  0.0655
54194SOL    HW168545   1.062  -0.091   8.799 -1.3570 -0.0216  1.6179
54194SOL    HW268546   0.985   0.032   8.843  0.8280  1.5299  1.2647
54195SOL     OW68547   7.423   8.216   6.645 -0.0161 -0.2150  0.5549
54195SOL    HW168548   7.492   8.275   6.615 -0.2039  0.9815  2.3520
54195SOL    HW268549   7.349   8.235   6.587  0.4338  0.1611  0.0958
54196SOL     OW68550   4.238   4.536   1.524  0.0815 -0.2579 -0.1404
54196SOL    HW168551   4.259   4.524   1.616 -1.2685  0.2963  0.2557
54196SOL    HW268552   4.323   4.533   1.480  0.7495 -0.4521  1.1211
54197SOL     OW68553  10.183   6.125   6.284 -0.4545 -0.0965  0.8425
54197SOL    HW168554  10.163   6.218   6.275  0.5187  0.0718  0.2306
54197SOL    HW268555  10.268   6.122   6.329 -0.3157 -0.6659  0.5648
54198SOL     OW68556   9.704   1.813   6.913  0.5467 -0.7514 -0.2854
54198SOL    HW168557   9.690   1.766   6.995  1.4882 -1.0338 -0.2619
54198SOL    HW268558   9.783   1.771   6.876  1.6877  1.0874 -0.0518
54199SOL     OW68559  11.045   9.206   7.885 -0.7983  0.3179  0.2457
54199SOL    HW168560  11.016   9.118   7.909 -2.5355  1.3044  2.0430
54199SOL    HW268561  11.018   9.216   7.793 -0.8744 -0.8870  0.1231
54200SOL     OW68562   2.411   7.485   3.507 -0.6123  0.5160  0.2696
54200SOL    HW168563   2.458   7.431   3.443 -1.1691 -0.0444  0.3171
54200SOL    HW268564   2.347   7.534   3.455 -0.5886  0.5940  0.3135
54201SOL     OW68565   9.945  11.118   5.280  0.1877 -0.9272 -0.0679
54201SOL    HW168566  10.003  11.080   5.214  0.5092  0.7127 -0.7836
54201SOL    HW268567   9.859  11.082   5.261  0.4481 -1.1456 -0.8485
54202SOL     OW68568   1.415   4.317   9.885 -0.6013 -0.3505  0.2897
54202SOL    HW168569   1.386   4.302   9.795 -0.8686  2.6499 -0.2488
54202SOL    HW268570   1.504   4.351   9.876 -0.7461  0.2822  1.0916
54203SOL     OW68571   1.090  11.624   2.827 -0.2807 -0.2557 -0.8414
54203SOL    HW168572   1.092  11.644   2.733 -0.3884  2.0163 -0.4203
54203SOL    HW268573   1.114  11.531   2.832  0.6517 -0.2026 -3.0307
54204SOL     OW68574   3.725   6.625   3.996  0.2282 -0.5978 -0.0716
54204SOL    HW168575   3.754   6.692   3.934  0.1979 -0.8831 -0.3908
54204SOL    HW268576   3.630   6.625   3.989  0.1892 -0.2518  0.3700
54205SOL     OW68577   9.804   1.453   2.695 -0.3053  0.5274 -0.1739
54205SOL    HW168578   9.815   1.360   2.715 -0.8744  0.3104 -0.8586
54205SOL    HW268579   9.887   1.479   2.655 -0.6126  0.0008 -1.1573
54206SOL     OW68580   0.465   7.322   7.588 -0.5256 -0.2136 -0.4116
54206SOL    HW168581   0.371   7.304   7.599 -0.5564 -0.4488 -1.0214
54206SOL    HW268582   0.476   7.411   7.621 -0.5092 -1.0459  1.9659
54207SOL     OW68583   8.259   4.011   5.795 -0.2113 -0.5092 -0.1414
54207SOL    HW168584   8.348   4.042   5.780 -0.8576  1.4343 -0.1745
54207SOL    HW268585   8.225   4.066   5.866 -1.2037 -1.6198  0.2918
54208SOL     OW68586   9.861   8.065   7.063  0.4530 -0.6293 -0.3935
54208SOL    HW168587   9.877   8.002   7.133 -0.3075  0.1452  0.5019
54208SOL    HW268588   9.782   8.112   7.091 -0.4404 -0.9475 -2.2291
54209SOL     OW68589   9.925   4.811   9.786  0.4477 -0.4076  0.4152
54209SOL    HW168590   9.847   4.862   9.806  1.8936  0.7056  4.1090
54209SOL    HW268591   9.955   4.844   9.701 -2.3820 -0.0872 -0.5440
54210SOL     OW68592   6.025   3.140   3.834 -0.2523  0.2736 -0.3039
54210SOL    HW168593   6.070   3.144   3.919  1.4442  1.8608 -1.2212
54210SOL    HW268594   6.092   3.110   3.773 -1.2795 -0.1758 -1.2378
54211SOL     OW68595   0.519   5.619   7.385 -0.0400  0.4276 -0.7843
54211SOL    HW168596   0.508   5.670   7.305 -1.1484  1.3758 -0.0674
54211SOL    HW268597   0.459   5.545   7.376  2.0461 -1.2344 -2.1167
54212SOL     OW68598  12.130   8.604   4.799  0.3987  0.6094 -0.1109
54212SOL    HW168599  12.177   8.649   4.729 -0.7748 -1.7936 -2.6087
54212SOL    HW268600  12.047   8.577   4.760 -0.9661  0.3500  2.6648
54213SOL     OW68601   3.160  12.251  11.009 -0.5336  0.5656  0.4077
54213SOL    HW168602   3.077  12.282  11.045 -2.1809 -1.3382 -1.5013
54213SOL    HW268603   3.191  12.186  11.073 -1.1379  0.4122  0.5495
54214SOL     OW68604   1.979  11.474   3.335  0.3762  0.2721  0.1854
54214SOL    HW168605   1.960  11.421   3.412  2.3111  0.6915  1.0140
54214SOL    HW268606   2.023  11.414   3.275 -1.2042 -0.0751 -0.6662
54215SOL     OW68607  10.297  11.331   9.259 -0.1831  0.0590 -0.1206
54215SOL    HW168608  10.263  11.399   9.201 -2.6847  0.6642  1.8674
54215SOL    HW268609  10.385  11.361   9.282 -0.0805  1.0287 -1.6199
54216SOL     OW68610   3.057   4.204   3.643  0.6805  0.4706 -0.0134
54216SOL    HW168611   2.977   4.251   3.664  0.4499 -0.2054  0.6438
54216SOL    HW268612   3.027   4.121   3.607  1.0649  1.2294 -2.2646
54217SOL     OW68613  10.945   8.458   1.872  0.0862  0.1590  0.6572
54217SOL    HW168614  10.918   8.366   1.878 -1.6105  0.5078 -0.8229
54217SOL    HW268615  10.949   8.476   1.779 -1.1011  1.9666  0.9048
54218SOL     OW68616  10.521   9.643   3.662 -0.2294  0.2675  0.5890
54218SOL    HW168617  10.581   9.676   3.595  0.5314 -0.4979  0.8815
54218SOL    HW268618  10.434   9.670   3.631  0.3320  2.5586  0.8361
54219SOL     OW68619  10.866   2.541   2.473  0.1170 -0.0249  0.2369
54219SOL    HW168620  10.810   2.474   2.512  0.3773  0.1548  0.9277
54219SOL    HW268621  10.954   2.521   2.505  0.2241  0.5410  0.3011
54220SOL     OW68622  11.617   3.461  10.383 -0.1768 -0.1034 -0.0928
54220SOL    HW168623  11.537   3.417  10.355  0.8229 -1.6544 -0.6873
54220SOL    HW268624  11.648   3.409  10.457  1.3898 -0.8974 -1.2373
54221SOL     OW68625  12.028  10.985   3.646 -0.2480  0.1660 -0.3840
54221SOL    HW168626  12.074  11.063   3.616 -0.5026  0.6687  0.4783
54221SOL    HW268627  11.974  11.016   3.719  0.0680 -0.9176  0.3387
54222SOL     OW68628   0.710   3.818   8.318 -0.2670  0.1025 -0.3963
54222SOL    HW168629   0.653   3.741   8.314  1.4132 -1.3625  1.4536
54222SOL    HW268630   0.668   3.876   8.381 -0.4611 -0.3183 -0.1290
54223SOL     OW68631   8.398   3.122   9.483 -0.0117 -0.3406 -0.3596
54223SOL    HW168632   8.364   3.211   9.483  0.6005 -0.0691  1.2522
54223SOL    HW268633   8.490   3.132   9.507  0.8113 -1.1989 -2.8398
54224SOL     OW68634   5.405  10.839   4.473 -0.1225  0.3235  0.2221
54224SOL    HW168635   5.398  10.750   4.506  1.1287  0.4305  0.8322
54224SOL    HW268636   5.437  10.829   4.383 -1.8824  0.1044 -0.4174
54225SOL     OW68637   1.468   2.894  10.407 -0.1417  0.2360  0.2502
54225SOL    HW168638   1.525   2.841  10.353  0.2043  0.8905 -0.0392
54225SOL    HW268639   1.385   2.897  10.359  0.1312  0.7301 -0.1978
54226SOL     OW68640   5.734  11.328   1.469 -0.0018  0.7628  0.0119
54226SOL    HW168641   5.752  11.262   1.535 -2.0682 -0.1587 -0.2546
54226SOL    HW268642   5.697  11.402   1.517 -1.4997  0.0943 -0.0332
54227SOL     OW68643  11.632   8.854   2.106 -0.5014 -0.1926 -0.2544
54227SOL    HW168644  11.680   8.811   2.177  1.4826 -0.6466 -1.7610
54227SOL    HW268645  11.542   8.826   2.117 -0.4318  0.4293  2.5556
54228SOL     OW68646   4.130  10.262   3.165  0.2242  0.0333 -0.1418
54228SOL    HW168647   4.082  10.288   3.086 -0.4098 -0.6204  0.0158
54228SOL    HW268648   4.170  10.178   3.141  0.6246  0.1841 -0.0019
54229SOL     OW68649   8.424   4.912   9.593 -0.2029  0.6725  0.0961
54229SOL    HW168650   8.492   4.861   9.637 -1.2290  0.1938  1.1408
54229SOL    HW268651   8.472   4.987   9.556  1.1634 -0.5135 -0.6470
54230SOL     OW68652   2.189   5.356  11.851 -0.3150 -0.1150  0.2825
54230SOL    HW168653   2.206   5.346  11.945 -0.2446  0.0368  0.2865
54230SOL    HW268654   2.245   5.429  11.824  0.7026 -1.0219 -0.1549
54231SOL     OW68655   8.769  10.517   0.132 -0.0547  0.2053 -0.0119
54231SOL    HW168656   8.725  10.509   0.048 -0.9117  1.2306  0.3175
54231SOL    HW268657   8.721  10.458   0.191 -1.6365  1.9864  0.5736
54232SOL     OW68658   1.005   6.123   8.637 -0.4592  0.2752  0.5158
54232SOL    HW168659   1.099   6.128   8.620 -0.2153  1.1078  1.9476
54232SOL    HW268660   0.966   6.104   8.551  0.8431  1.9774 -0.5117
54233SOL     OW68661  11.065   5.205   3.524  0.2150  0.5257 -0.9722
54233SOL    HW168662  11.012   5.229   3.449 -1.2379  1.7401  0.3862
54233SOL    HW268663  11.003   5.168   3.587  1.3853 -0.4021 -0.3189
54234SOL     OW68664  12.172   7.085   7.982 -0.4783 -0.3714 -0.0545
54234SOL    HW168665  12.207   7.167   8.017 -0.2643 -0.3996 -0.2043
54234SOL    HW268666  12.099   7.113   7.926  0.2311 -0.2099 -0.9146
54235SOL     OW68667   0.392   7.525   2.223  0.0289  0.0117  0.6044
54235SOL    HW168668   0.368   7.434   2.240  0.7259  0.2455  3.5114
54235SOL    HW268669   0.339   7.575   2.285  0.7546  1.4320  0.1223
54236SOL     OW68670   4.627   2.739   4.032  0.2835 -0.0714 -0.5800
54236SOL    HW168671   4.623   2.688   4.113  1.4214  0.6926 -0.0211
54236SOL    HW268672   4.538   2.735   3.997 -0.0518 -1.0156  0.3270
54237SOL     OW68673   5.688  10.650   3.224 -0.0704 -0.0260  0.4975
54237SOL    HW168674   5.716  10.721   3.282  0.7481  0.2870 -0.2545
54237SOL    HW268675   5.764  10.634   3.168 -0.1792 -1.6087  0.7389
54238SOL     OW68676   0.302   4.924   7.338 -0.1851  0.2882 -0.3022
54238SOL    HW168677   0.263   4.896   7.255 -0.6223  0.0281 -0.0160
54238SOL    HW268678   0.280   4.853   7.399  1.1347 -0.0941 -0.2357
54239SOL     OW68679   1.737   1.403   2.816 -0.0656 -0.0169 -0.0646
54239SOL    HW168680   1.704   1.319   2.848 -0.9473 -1.1088 -3.4500
54239SOL    HW268681   1.659   1.458   2.810  0.0701  0.1365 -0.4117
54240SOL     OW68682   8.785   8.888   4.860 -0.4072  0.0744 -0.0752
54240SOL    HW168683   8.842   8.917   4.788 -0.9282 -0.9938 -0.9592
54240SOL    HW268684   8.845   8.869   4.932  0.4780 -1.7945 -1.2448
54241SOL     OW68685   5.098   4.904   5.228 -0.1223  0.5548  0.8850
54241SOL    HW168686   5.174   4.892   5.171 -0.1225 -0.6637  1.1203
54241SOL    HW268687   5.089   4.999   5.236  1.2966  0.7201  0.7408
54242SOL     OW68688   6.897   7.638   7.564  0.6623 -0.1390 -0.1142
54242SOL    HW168689   6.843   7.592   7.628 -2.0001  0.8972 -1.4589
54242SOL    HW268690   6.896   7.582   7.486  1.6430 -0.1368 -0.1469
54243SOL     OW68691   7.468   3.585   0.425  0.0349  0.5439 -0.4432
54243SOL    HW168692   7.406   3.521   0.389  0.0386  0.1141  0.2939
54243SOL    HW268693   7.412   3.651   0.468  0.0565  0.6708 -0.6087
54244SOL     OW68694   5.670  11.856   6.817 -0.9262  0.1781 -0.2126
54244SOL    HW168695   5.656  11.950   6.819 -2.5827 -0.0487  1.5174
54244SOL    HW268696   5.587  11.819   6.787 -0.8465 -0.8034  0.7028
54245SOL     OW68697  11.588  11.021   5.964 -0.0332  0.7099  0.1578
54245SOL    HW168698  11.578  11.022   5.869 -0.1501  0.8383  0.1720
54245SOL    HW268699  11.682  11.030   5.978  0.1704 -0.9141  0.0117
54246SOL     OW68700  10.933  11.385   3.090 -0.4077 -0.4829 -0.0996
54246SOL    HW168701  10.854  11.427   3.055 -0.0186 -0.2250 -0.6763
54246SOL    HW268702  11.003  11.448   3.074 -0.3483  0.0652  1.9896
54247SOL     OW68703   3.411   2.101   0.104  0.3143  0.2754  0.4680
54247SOL    HW168704   3.441   2.187   0.134 -1.2450  1.1450 -0.3355
54247SOL    HW268705   3.359   2.067   0.176 -0.1536  0.5907  0.2780
54248SOL     OW68706   6.109   0.684   2.674  0.3242 -0.5262  0.6805
54248SOL    HW168707   6.194   0.678   2.719 -0.1893 -1.1380  1.5884
54248SOL    HW268708   6.119   0.628   2.597  0.8983 -0.2124  0.5174
54249SOL     OW68709   0.557   6.998   1.056  0.0556 -0.5143  0.1623
54249SOL    HW168710   0.612   6.975   1.131  1.1534  0.0379 -0.4400
54249SOL    HW268711   0.492   7.059   1.091  1.4724  0.9239  0.4232
54250SOL     OW68712   7.705   9.211   6.038  0.0609  0.7021 -0.3574
54250SOL    HW168713   7.736   9.147   6.103  0.3370  0.2260 -0.9495
54250SOL    HW268714   7.625   9.172   6.003  0.6146  0.3281 -1.2349
54251SOL     OW68715   5.943   5.570  12.215  0.7489  0.0817  0.0418
54251SOL    HW168716   6.025   5.587  12.262  0.6758  0.2101  0.1221
54251SOL    HW268717   5.890   5.520  12.278  0.2306  1.1730  0.4957
54252SOL     OW68718   3.202  11.500   2.160  0.2100  0.7176 -0.0124
54252SOL    HW168719   3.162  11.456   2.085 -1.2698  2.3985 -0.2894
54252SOL    HW268720   3.286  11.531   2.129  2.1179 -3.1436  0.6533
54253SOL     OW68721   5.760   6.630   1.277 -0.3557 -0.0055 -0.3130
54253SOL    HW168722   5.675   6.591   1.296  0.4186 -1.0512  1.2704
54253SOL    HW268723   5.754   6.720   1.310 -0.8992 -0.0289 -0.3459
54254SOL     OW68724   6.478   7.361   0.957 -0.0950 -0.1633 -0.0521
54254SOL    HW168725   6.389   7.356   0.990  0.0864 -0.8620  0.3569
54254SOL    HW268726   6.504   7.269   0.945  0.6903  0.0186  0.1814
54255SOL     OW68727   1.789   7.984   2.990 -0.4634  0.1096 -0.5624
54255SOL    HW168728   1.704   7.967   3.030  0.2009 -0.2813  0.7304
54255SOL    HW268729   1.805   7.908   2.934 -0.6739 -0.1225 -0.3066
54256SOL     OW68730   5.635   5.493   4.551 -0.5255 -0.2278 -0.1416
54256SOL    HW168731   5.663   5.522   4.465  1.4667  0.4008  0.6597
54256SOL    HW268732   5.673   5.406   4.561 -1.9011 -0.8953 -0.3865
54257SOL     OW68733   2.166   8.370   8.608 -0.3115 -0.7346  0.0223
54257SOL    HW168734   2.071   8.369   8.595 -0.5374 -1.4814  1.5135
54257SOL    HW268735   2.177   8.370   8.703  1.1918 -0.2975 -0.1275
54258SOL     OW68736  11.928   6.434   9.116  0.6954 -0.1863  0.8838
54258SOL    HW168737  11.854   6.491   9.137 -0.5610 -2.1570  2.1150
54258SOL    HW268738  11.945   6.452   9.023 -2.1455 -0.4917  0.1974
54259SOL     OW68739   2.959   4.548  12.254 -0.2408  0.6567  0.5381
54259SOL    HW168740   3.014   4.518  12.182 -0.2469 -0.6520  1.0605
54259SOL    HW268741   3.004   4.624  12.288  0.4330  0.5202 -0.0246
54260SOL     OW68742   2.331  11.595  10.320 -0.2231 -0.2844 -0.1873
54260SOL    HW168743   2.308  11.556  10.236 -0.7964 -0.9353  0.2615
54260SOL    HW268744   2.261  11.567  10.379  0.1915  0.1380  0.5094
54261SOL     OW68745   6.840  11.253   4.172  0.5149  0.1993 -0.2488
54261SOL    HW168746   6.933  11.233   4.186  0.5667  0.2195 -0.5479
54261SOL    HW268747   6.828  11.340   4.207  0.2181 -0.4642  1.3715
54262SOL     OW68748   5.671   6.911   3.832  0.0691  0.1006 -0.4486
54262SOL    HW168749   5.614   6.987   3.815 -0.5355 -0.4466 -0.9149
54262SOL    HW268750   5.756   6.938   3.797  0.1324  0.9510  0.3091
54263SOL     OW68751   0.199   3.679   9.811 -0.0151 -0.0038  0.2067
54263SOL    HW168752   0.228   3.767   9.836 -0.1727 -0.0682  0.6223
54263SOL    HW268753   0.278   3.637   9.776  0.3082 -0.0498  0.9732
54264SOL     OW68754   9.268   4.413   3.927  0.5795 -0.4748  0.4690
54264SOL    HW168755   9.282   4.325   3.891  0.8335 -0.0092 -0.5891
54264SOL    HW268756   9.271   4.400   4.022 -0.3810 -1.7769  0.3577
54265SOL     OW68757  12.455   3.925  12.243 -0.3812  0.0133  0.2809
54265SOL    HW168758  12.425   3.836  12.260  0.4332 -0.1584  0.8442
54265SOL    HW268759  12.438   3.939  12.150  0.4184 -1.0922 -0.0487
54266SOL     OW68760   4.970   1.531   0.371 -0.2699 -0.4653  0.4843
54266SOL    HW168761   4.933   1.450   0.408  0.9181  0.1006  3.1839
54266SOL    HW268762   4.916   1.601   0.409 -0.9171  0.0701 -1.3515
54267SOL     OW68763   2.175   9.421   2.738 -0.6467  0.3018  0.6317
54267SOL    HW168764   2.227   9.342   2.723 -0.9072  0.1820  0.3543
54267SOL    HW268765   2.230   9.475   2.795  0.7134  1.1283 -1.3928
54268SOL     OW68766   8.115   1.224   4.607 -0.1146 -0.3644  0.0411
54268SOL    HW168767   8.036   1.172   4.590  0.2439 -0.7114 -0.6373
54268SOL    HW268768   8.085   1.297   4.662 -1.0318 -0.1281 -0.7450
54269SOL     OW68769   3.580   4.429   7.293 -0.1018 -0.1906 -0.3297
54269SOL    HW168770   3.555   4.421   7.386  1.5100  1.2627  0.2837
54269SOL    HW268771   3.671   4.457   7.296  0.1081 -0.5529 -2.3982
54270SOL     OW68772   9.272   2.273   0.418  0.3972 -0.4068  0.0724
54270SOL    HW168773   9.366   2.284   0.408  0.5996 -0.9994  1.1021
54270SOL    HW268774   9.239   2.360   0.441  0.2210  0.4848 -3.0580
54271SOL     OW68775   6.823  10.038   1.716  0.1200 -0.0188  0.7516
54271SOL    HW168776   6.914  10.037   1.689 -0.4293 -1.0717 -1.2967
54271SOL    HW268777   6.797   9.946   1.719 -0.7174  0.2311  1.9213
54272SOL     OW68778   2.311   4.134  11.319 -0.7411 -0.6480  0.3667
54272SOL    HW168779   2.352   4.220  11.322  0.5850 -1.1016 -1.9136
54272SOL    HW268780   2.333   4.094  11.403  2.5974 -0.3938 -0.2630
54273SOL     OW68781   7.911   3.667   4.814 -0.0477 -0.0552 -0.1794
54273SOL    HW168782   7.961   3.586   4.807  0.2595 -0.0987  1.8777
54273SOL    HW268783   7.944   3.708   4.895 -1.2021  1.4081 -0.4123
54274SOL     OW68784  12.237  10.755  10.539 -0.0712 -0.1391 -0.3425
54274SOL    HW168785  12.150  10.793  10.533  0.7726  1.7256 -1.5578
54274SOL    HW268786  12.222  10.667  10.574 -2.5276 -0.2283 -1.4074
54275SOL     OW68787   8.805  10.001  12.266 -0.3470 -0.4144  1.0081
54275SOL    HW168788   8.807  10.066  12.336 -0.4911  0.3219  0.3429
54275SOL    HW268789   8.860  10.039  12.197 -0.5560 -0.9287  0.5533
54276SOL     OW68790   7.802  11.057   1.194 -0.0214  0.4973  0.4552
54276SOL    HW168791   7.857  11.115   1.142  0.0293  0.6466  0.6723
54276SOL    HW268792   7.837  11.063   1.283 -0.4181  0.6391  0.6078
54277SOL     OW68793   4.068   5.339   8.289  0.1215  0.7452  0.2447
54277SOL    HW168794   4.040   5.257   8.248 -1.4290  1.4076 -0.0904
54277SOL    HW268795   4.155   5.320   8.323  0.0982 -0.8152 -0.4757
54278SOL     OW68796   1.916   3.502   7.410  0.0259 -0.1422 -0.4326
54278SOL    HW168797   1.940   3.578   7.358  0.0463  0.5357  0.5334
54278SOL    HW268798   1.837   3.529   7.458  0.6659 -0.3282  0.7631
54279SOL     OW68799   7.234   7.510   6.702  0.2283  0.5216 -0.1757
54279SOL    HW168800   7.216   7.501   6.608  0.3587  1.5757 -0.3177
54279SOL    HW268801   7.327   7.533   6.707  0.0368  1.2812  0.1401
54280SOL     OW68802   2.717   0.767   3.288  0.4011 -0.5174  0.1995
54280SOL    HW168803   2.801   0.722   3.275  1.1870  0.4992  1.4817
54280SOL    HW268804   2.699   0.757   3.381 -2.0931 -2.6366 -0.3736
54281SOL     OW68805   7.553   3.053   3.444  0.4521 -0.1740 -0.2296
54281SOL    HW168806   7.505   2.993   3.386  1.9356 -0.1064 -1.5865
54281SOL    HW268807   7.493   3.127   3.454  0.4170  0.1735 -2.3629
54282SOL     OW68808   9.800  11.634   4.279  0.0584  0.2317 -0.2562
54282SOL    HW168809   9.728  11.666   4.224  0.1705 -0.0526 -0.5708
54282SOL    HW268810   9.794  11.687   4.359  0.2770  1.0844 -0.7872
54283SOL     OW68811  12.208   9.871   2.872 -0.1029 -0.4424 -0.7067
54283SOL    HW168812  12.300   9.877   2.849  0.2016 -0.8957  0.3169
54283SOL    HW268813  12.173   9.800   2.819  0.0068  0.0531 -1.4592
54284SOL     OW68814  10.520  11.550   8.372  0.3277 -0.1895 -0.4541
54284SOL    HW168815  10.466  11.523   8.298 -0.3398  0.1158 -0.0909
54284SOL    HW268816  10.476  11.512   8.448  0.9049 -0.3517 -0.1988
54285SOL     OW68817   0.997   5.635  11.666  0.1589  0.8667 -0.2598
54285SOL    HW168818   0.945   5.589  11.600  1.0917 -0.7736  0.0948
54285SOL    HW268819   1.082   5.650  11.623  0.3991  0.8028  0.1871
54286SOL     OW68820   2.695   9.847  10.714 -0.1420 -0.4040 -0.0676
54286SOL    HW168821   2.663   9.757  10.706 -0.1821 -0.4468  0.5409
54286SOL    HW268822   2.751   9.846  10.791 -0.3932  0.1616  0.1322
54287SOL     OW68823   2.248  11.933   7.119  0.7659 -0.4213  0.4155
54287SOL    HW168824   2.275  11.880   7.044 -1.3267 -2.5039  1.0154
54287SOL    HW268825   2.177  11.883   7.160 -0.0503  1.9744  2.1775
54288SOL     OW68826   4.851   6.163   9.996  0.8398 -0.9461 -0.5071
54288SOL    HW168827   4.809   6.133  10.077 -0.7914  2.1112 -0.1029
54288SOL    HW268828   4.937   6.194  10.024  0.5310 -0.4924 -0.0481
54289SOL     OW68829   4.834  10.772   4.122  0.3873  0.2827  0.4577
54289SOL    HW168830   4.749  10.740   4.154  1.0829 -1.8737  0.2489
54289SOL    HW268831   4.815  10.805   4.034 -0.2724  0.0779  0.5172
54290SOL     OW68832   1.013   1.224   8.687  0.0271  0.0007 -0.1881
54290SOL    HW168833   0.967   1.167   8.748  0.8649  0.5170  0.9656
54290SOL    HW268834   1.103   1.229   8.721  0.3051  0.9498 -1.0021
54291SOL     OW68835   8.312  11.945  10.462 -0.3917  0.1887 -0.8053
54291SOL    HW168836   8.348  11.982  10.542 -1.5169 -0.6390  0.1301
54291SOL    HW268837   8.379  11.885  10.431  0.5605  1.4081 -1.1766
54292SOL     OW68838  11.984   2.713   2.219  0.4069 -0.4654 -0.0630
54292SOL    HW168839  11.948   2.708   2.131 -0.4614 -0.3332  0.2694
54292SOL    HW268840  11.919   2.668   2.274  0.7035 -0.1388  0.5716
54293SOL     OW68841   2.392   6.149  11.633 -0.6649  0.6814 -0.3597
54293SOL    HW168842   2.368   6.204  11.558 -2.2530  0.7773  0.1714
54293SOL    HW268843   2.369   6.201  11.710 -0.2651  0.0825  0.1822
54294SOL     OW68844   6.660   1.556   6.236 -0.1053 -0.1832  0.4913
54294SOL    HW168845   6.734   1.615   6.233  0.5081 -0.9712 -0.4568
54294SOL    HW268846   6.586   1.607   6.202  0.3518  0.1202 -0.0570
54295SOL     OW68847   2.463  11.618  11.810 -0.3334 -0.0923 -0.2625
54295SOL    HW168848   2.419  11.533  11.802  1.4173 -0.8427 -3.5195
54295SOL    HW268849   2.404  11.680  11.766 -1.0337  0.2342  1.0558
54296SOL     OW68850   7.122   8.064   0.903 -0.1649  0.3596  0.3063
54296SOL    HW168851   7.115   8.110   0.819  0.1374 -1.8434 -1.0030
54296SOL    HW268852   7.212   8.031   0.904  0.0152  0.8340  1.7895
54297SOL     OW68853  10.055   2.107   1.866  0.0332 -0.1733  0.4081
54297SOL    HW168854  10.034   2.015   1.879  0.4707 -0.4218 -0.6081
54297SOL    HW268855  10.118   2.108   1.795  1.5090  0.7619  1.6621
54298SOL     OW68856   0.826   8.182   9.696  0.4232 -0.1893  1.2221
54298SOL    HW168857   0.733   8.198   9.713  0.4756  1.8800 -0.1454
54298SOL    HW268858   0.833   8.177   9.601  1.6363 -1.0236  1.3320
54299SOL     OW68859   5.500   9.494   4.773  0.1076 -0.2146 -0.4895
54299SOL    HW168860   5.570   9.464   4.715  0.1655 -1.4250  0.1539
54299SOL    HW268861   5.475   9.415   4.822 -1.5422  0.2487 -0.5347
54300SOL     OW68862   0.869   2.187   3.772  0.4647  0.3605 -0.4534
54300SOL    HW168863   0.935   2.257   3.770 -0.4892  1.3934  1.3251
54300SOL    HW268864   0.786   2.233   3.780 -0.3958 -0.9550 -1.4698
54301SOL     OW68865   5.278   1.114   4.488 -0.3358 -0.0604 -0.2069
54301SOL    HW168866   5.195   1.153   4.515  0.2362  0.7130  0.4914
54301SOL    HW268867   5.340   1.141   4.556  1.2141  2.1288 -2.2992
54302SOL     OW68868   9.262   2.194  10.988  0.5451  0.6187  1.1518
54302SOL    HW168869   9.322   2.181  11.061 -0.2475  1.0170  1.8925
54302SOL    HW268870   9.269   2.114  10.936  2.6491  1.1690  0.5136
54303SOL     OW68871   6.912   8.560   0.107 -1.1834 -0.1198 -0.4457
54303SOL    HW168872   6.994   8.536   0.064 -0.0895  0.4378  1.2121
54303SOL    HW268873   6.907   8.500   0.182 -0.9095  1.5465  0.9660
54304SOL     OW68874   1.437   8.591   9.825 -0.0370  0.2479  0.2606
54304SOL    HW168875   1.349   8.590   9.864 -0.3599  2.1080 -0.2785
54304SOL    HW268876   1.426   8.548   9.740 -0.2428 -0.2457  0.5349
54305SOL     OW68877   3.909  11.598   2.410  0.6137 -0.2574  0.2020
54305SOL    HW168878   3.906  11.517   2.359  3.3844 -0.8463  0.7977
54305SOL    HW268879   3.868  11.663   2.354  2.3168 -1.1651 -2.2842
54306SOL     OW68880   4.061  11.565   1.405  0.7899 -0.4766 -0.8867
54306SOL    HW168881   4.133  11.623   1.431 -0.5794  0.3731  1.2481
54306SOL    HW268882   4.098  11.477   1.412  1.8831 -0.0309 -0.7631
54307SOL     OW68883   5.247   6.338  12.460  0.1562  0.6707  0.2385
54307SOL    HW168884   5.314   6.355  12.394  1.1309  1.4505  1.3848
54307SOL    HW268885   5.164   6.341  12.412  0.9631 -1.9733 -1.5319
54308SOL     OW68886   1.490   1.467  10.689 -0.2874  0.1816 -0.3242
54308SOL    HW168887   1.500   1.559  10.712  2.1803 -0.4720  1.7471
54308SOL    HW268888   1.505   1.464  10.594  0.6792  1.8095 -0.2568
54309SOL     OW68889   0.997   0.983   6.788  0.0311  0.0367 -0.1339
54309SOL    HW168890   1.015   0.921   6.858 -1.1326  0.2496  0.3825
54309SOL    HW268891   0.986   0.928   6.710  0.3620 -0.2838  0.0442
54310SOL     OW68892   7.285   2.093   0.066  0.3026  0.2353  0.5406
54310SOL    HW168893   7.228   2.153   0.115 -1.9708 -2.1841  1.0597
54310SOL    HW268894   7.226   2.052   0.002  1.5795 -2.0186  0.7445
54311SOL     OW68895  11.351   8.230   3.109  0.3246 -0.1337 -0.3063
54311SOL    HW168896  11.327   8.137   3.102 -4.0608  0.7990 -0.7479
54311SOL    HW268897  11.355   8.247   3.203 -3.1660 -0.0866 -0.0160
54312SOL     OW68898   7.482   1.777   6.834  0.3386  0.5557  0.2694
54312SOL    HW168899   7.557   1.831   6.809  1.9832 -1.7211 -0.0877
54312SOL    HW268900   7.423   1.781   6.759  0.5428  1.5915  0.1509
54313SOL     OW68901   3.520  12.456  12.081  0.1150  0.1098  0.0279
54313SOL    HW168902   3.530  12.381  12.022  1.2272 -1.0587  1.6207
54313SOL    HW268903   3.463  12.425  12.151  0.0329  0.9861  0.3660
54314SOL     OW68904   2.154  11.997   1.145  0.5826  0.4751  0.3663
54314SOL    HW168905   2.160  12.065   1.213 -0.4381  0.1603  0.7901
54314SOL    HW268906   2.147  12.047   1.063  0.4827  0.8807  0.6153
54315SOL     OW68907   4.171  10.845   6.722 -0.2834  0.7702 -0.1257
54315SOL    HW168908   4.075  10.845   6.722 -0.2840  0.9691 -0.0334
54315SOL    HW268909   4.194  10.906   6.652 -0.2306  1.9595  0.8946
54316SOL     OW68910  11.120   0.806   6.046  0.1596  0.5260  0.3246
54316SOL    HW168911  11.209   0.808   6.083  1.2636 -1.9745 -1.8469
54316SOL    HW268912  11.095   0.714   6.052 -1.3045  0.7848 -1.2578
54317SOL     OW68913   7.143   8.863   8.500 -0.0811 -0.7598  0.2729
54317SOL    HW168914   7.218   8.818   8.460 -0.9504 -0.7239 -1.4928
54317SOL    HW268915   7.081   8.793   8.519 -0.8551 -0.4999 -1.1708
54318SOL     OW68916   4.344  11.331   9.066 -0.3257  0.1973  0.0549
54318SOL    HW168917   4.249  11.325   9.054 -0.2820  1.8618 -1.4388
54318SOL    HW268918   4.358  11.417   9.104  0.4596 -0.9832  2.6589
54319SOL     OW68919  11.497   3.176   0.522 -0.0059  0.1790  0.3164
54319SOL    HW168920  11.441   3.143   0.452 -3.0253  2.5997  1.3384
54319SOL    HW268921  11.586   3.153   0.496 -1.2048 -1.2409 -2.9794
54320SOL     OW68922   8.659   0.231   8.396  0.1896  0.8873  0.3956
54320SOL    HW168923   8.652   0.318   8.357  0.6873  0.3911 -0.8430
54320SOL    HW268924   8.747   0.201   8.372 -0.3452 -0.3658 -0.0496
54321SOL     OW68925   5.003   3.244   5.686  0.5000  0.0974  0.0593
54321SOL    HW168926   5.009   3.339   5.682 -0.2447  0.1186 -0.5630
54321SOL    HW268927   5.095   3.215   5.687  0.7326  0.8028  0.0391
54322SOL     OW68928  11.932   0.613   9.093 -0.3843  0.0223  0.6923
54322SOL    HW168929  11.932   0.693   9.145 -0.4636  0.7924 -0.4498
54322SOL    HW268930  11.848   0.614   9.048  0.7866  0.9119 -1.6528
54323SOL     OW68931  10.818   0.112   6.407 -0.0725 -0.1674  0.2130
54323SOL    HW168932  10.727   0.114   6.437 -0.4491 -0.6196 -0.8432
54323SOL    HW268933  10.865   0.067   6.477 -0.5772  0.4244  0.9552
54324SOL     OW68934   7.327   8.428   5.669  0.8796 -0.3899 -0.0894
54324SOL    HW168935   7.371   8.388   5.745 -0.9797 -1.7931  0.3484
54324SOL    HW268936   7.254   8.477   5.708  1.2377  0.7863 -0.8611
54325SOL     OW68937  12.437  11.738   0.034  0.5633  0.0867  0.6325
54325SOL    HW168938  12.528  11.758   0.011  0.6988  0.1750  1.2307
54325SOL    HW268939  12.386  11.805  -0.012  0.9161  0.9807  1.5119
54326SOL     OW68940   6.304   8.559   9.782 -0.2986 -0.1680 -0.0915
54326SOL    HW168941   6.305   8.621   9.855 -2.2462  1.1213 -1.0847
54326SOL    HW268942   6.223   8.510   9.792 -0.1198 -0.6465 -0.8564
54327SOL     OW68943   0.403   1.600   6.548 -0.3161 -0.7825  0.0770
54327SOL    HW168944   0.431   1.523   6.499  0.9222 -0.9393  0.9818
54327SOL    HW268945   0.482   1.629   6.593 -1.1964 -0.0641  1.1990
54328SOL     OW68946   5.536   2.611  11.448  0.3605  0.1682  0.0337
54328SOL    HW168947   5.445   2.636  11.460  0.6669  1.4258 -0.0305
54328SOL    HW268948   5.566   2.665  11.374  1.0994 -0.3436 -0.0513
54329SOL     OW68949  10.116  10.735   3.422 -0.2414  0.6574 -0.2985
54329SOL    HW168950  10.128  10.778   3.337 -2.0755 -0.2823 -1.0782
54329SOL    HW268951  10.197  10.686   3.435 -0.1457  0.3542 -1.8032
54330SOL     OW68952   1.048   8.778   3.074  0.0362  0.4169  0.2317
54330SOL    HW168953   1.141   8.788   3.055  0.0765 -0.3480  0.0077
54330SOL    HW268954   1.017   8.868   3.087  0.5463  0.7750 -0.8896
54331SOL     OW68955   9.567  11.293   2.003  0.6322 -0.1310  0.2230
54331SOL    HW168956   9.479  11.260   1.984  0.5827  0.4109 -0.5622
54331SOL    HW268957   9.557  11.388   2.000  1.6026 -0.0343 -1.7751
54332SOL     OW68958   0.722  11.248   0.419  0.0979 -0.1226 -0.5541
54332SOL    HW168959   0.726  11.263   0.325 -1.3746 -1.5596 -0.8894
54332SOL    HW268960   0.812  11.225   0.444  0.0970 -1.9376 -2.0356
54333SOL     OW68961   7.816   0.929   6.157  0.0974 -0.4163 -0.2028
54333SOL    HW168962   7.861   0.991   6.214  2.0142 -0.8788 -1.1170
54333SOL    HW268963   7.724   0.935   6.182  0.2204  2.6477 -0.1530
54334SOL     OW68964  11.718   7.838   9.292 -0.3721 -0.5679  0.2329
54334SOL    HW168965  11.646   7.777   9.280  0.4949 -1.6503  0.4256
54334SOL    HW268966  11.778   7.820   9.220 -0.3211  0.4049  0.0051
54335SOL     OW68967   8.436   5.922   5.737  0.5066 -0.6605  0.4323
54335SOL    HW168968   8.460   5.889   5.824  0.3485 -1.0719  0.3260
54335SOL    HW268969   8.516   5.959   5.702  0.0523  1.8127  1.7358
54336SOL     OW68970   0.974   0.492  10.451 -0.1236  0.1570 -0.0790
54336SOL    HW168971   0.988   0.553  10.378 -1.4088 -0.7665 -1.1423
54336SOL    HW268972   0.879   0.482  10.457 -0.0210 -0.2306  1.3702
54337SOL     OW68973   6.281   2.254   2.521  0.2510  0.1506 -0.8529
54337SOL    HW168974   6.209   2.294   2.472 -0.5866  0.6738  0.7286
54337SOL    HW268975   6.244   2.237   2.607  2.4901  2.0478  0.5998
54338SOL     OW68976   6.628   0.209   7.370  0.3531  0.3154  0.6440
54338SOL    HW168977   6.596   0.292   7.404  0.4418  0.5219  0.2279
54338SOL    HW268978   6.557   0.178   7.313  1.4036  1.4413 -1.3898
54339SOL     OW68979   0.363   2.460   4.904  0.3135 -0.3732 -0.4029
54339SOL    HW168980   0.403   2.542   4.875 -2.4718  1.8037  1.3769
54339SOL    HW268981   0.390   2.453   4.996 -0.2624 -0.8723 -0.2674
54340SOL     OW68982   5.136   0.304  12.202  0.0886 -0.1621  0.6443
54340SOL    HW168983   5.124   0.387  12.248  0.5790  0.2906 -0.0186
54340SOL    HW268984   5.197   0.255  12.257  1.5046  0.7962  0.0009
54341SOL     OW68985   3.151   3.689   5.133  0.1536 -0.5718  0.6772
54341SOL    HW168986   3.127   3.754   5.067  1.6444 -0.3551  0.3046
54341SOL    HW268987   3.184   3.740   5.207  2.1032 -0.8653  0.0693
54342SOL     OW68988   6.281  11.423  11.023  0.0314  0.0976  0.1944
54342SOL    HW168989   6.371  11.423  10.990  0.6495  4.0019  1.3903
54342SOL    HW268990   6.278  11.349  11.085  1.8568 -1.1039 -1.0573
54343SOL     OW68991   5.431  10.100   8.871  0.6801  0.1375  0.1924
54343SOL    HW168992   5.403  10.105   8.963 -0.3973  2.7275 -0.1926
54343SOL    HW268993   5.383  10.026   8.836  1.3579 -1.1139  1.7518
54344SOL     OW68994   7.404   2.071   2.019  0.1642  0.2827 -0.0987
54344SOL    HW168995   7.429   2.048   1.930 -1.6230 -2.4752  0.0205
54344SOL    HW268996   7.377   2.163   2.013  1.7792  0.7063 -1.9575
54345SOL     OW68997  11.548  10.860   4.874 -0.2266  0.0632 -0.3577
54345SOL    HW168998  11.457  10.837   4.889 -0.4115  1.1191  0.2765
54345SOL    HW268999  11.590  10.854   4.960 -0.0031  0.8062 -0.4009
54346SOL     OW69000   8.784   4.506   4.156 -0.3118  0.3056  0.2299
54346SOL    HW169001   8.834   4.443   4.209 -0.4976  0.8605  1.0946
54346SOL    HW269002   8.713   4.534   4.215 -0.9916  0.3529 -0.5972
54347SOL     OW69003   1.481   3.863  11.964  0.5265 -0.2783 -0.3384
54347SOL    HW169004   1.466   3.773  11.993  0.8655 -0.4159 -0.5737
54347SOL    HW269005   1.575   3.877  11.980  0.4317  0.1060 -0.1071
54348SOL     OW69006   7.905   2.544   2.290 -0.3474 -0.0243  0.1303
54348SOL    HW169007   7.995   2.578   2.282 -0.6807  1.1544  1.0374
54348SOL    HW269008   7.913   2.470   2.350 -0.1822  1.1068  1.5743
54349SOL     OW69009   7.185   9.056   8.690  0.9653 -0.4226 -0.3346
54349SOL    HW169010   7.243   9.117   8.644 -0.2328  1.0557  0.0475
54349SOL    HW269011   7.167   8.987   8.626  0.2551  0.9921 -1.7162
54350SOL     OW69012   2.657   1.912   2.885  0.1710  0.6537  0.4569
54350SOL    HW169013   2.733   1.884   2.834 -0.3205 -1.1728  0.6618
54350SOL    HW269014   2.684   1.903   2.976 -0.6854 -1.4109  0.5699
54351SOL     OW69015   5.124   8.467   2.469 -0.2223 -0.1292 -0.1017
54351SOL    HW169016   5.038   8.470   2.428 -0.6968  1.2418  0.9240
54351SOL    HW269017   5.107   8.478   2.563  1.0599  0.1516  0.1240
54352SOL     OW69018   7.054   1.016   6.050  0.2817  0.0502  0.4444
54352SOL    HW169019   7.085   1.105   6.030  0.5023 -0.0397  0.3789
54352SOL    HW269020   6.959   1.020   6.035  0.1476  0.5235  1.3566
54353SOL     OW69021   0.497   8.475   4.395 -0.1759 -1.2934  0.0013
54353SOL    HW169022   0.574   8.475   4.452  0.9667  0.7264 -1.3995
54353SOL    HW269023   0.532   8.454   4.309 -0.9263  0.7768 -0.8820
54354SOL     OW69024  10.330   3.288   9.881  0.3983 -0.3728  1.0735
54354SOL    HW169025  10.277   3.209   9.896 -0.3541  0.3560  2.4179
54354SOL    HW269026  10.368   3.275   9.794 -0.0810 -2.0041  1.0747
54355SOL     OW69027   0.526   9.772   0.753 -0.1203  0.8032 -0.3456
54355SOL    HW169028   0.516   9.791   0.659  0.3658 -0.3782 -0.6539
54355SOL    HW269029   0.565   9.851   0.789  0.7835  0.8443 -1.3637
54356SOL     OW69030   1.503   9.452   2.338  0.4590  0.2856 -0.5104
54356SOL    HW169031   1.548   9.396   2.401 -3.0514  0.2416  2.3070
54356SOL    HW269032   1.511   9.540   2.374 -1.9905  0.1996  0.4811
54357SOL     OW69033   9.891   3.483   6.881  0.2544 -0.1494 -0.1249
54357SOL    HW169034   9.910   3.455   6.792  3.7130  0.9836  0.1155
54357SOL    HW269035   9.967   3.455   6.932  0.3162  2.7673  1.6189
54358SOL     OW69036   1.533   7.926   9.375  0.6508 -0.3867  0.4078
54358SOL    HW169037   1.608   7.917   9.317  0.4121 -1.3379  0.2269
54358SOL    HW269038   1.478   7.992   9.334  0.9774 -0.3046  0.0988
54359SOL     OW69039  12.484   2.101   7.660 -0.1927  0.2500 -0.2772
54359SOL    HW169040  12.515   2.018   7.694 -0.5778  0.0150 -0.4871
54359SOL    HW269041  12.530   2.167   7.711 -1.0175 -0.0947  0.9474
54360SOL     OW69042   4.995  10.122   6.637  0.0409 -0.7757  0.4589
54360SOL    HW169043   4.977  10.189   6.571 -1.7452 -0.9915  0.6641
54360SOL    HW269044   5.056  10.163   6.698  0.6448 -0.0981 -0.5728
54361SOL     OW69045  11.239   6.082   3.567  0.3733  0.4822 -0.2026
54361SOL    HW169046  11.298   6.111   3.497  0.3092 -1.2292 -1.0289
54361SOL    HW269047  11.251   5.987   3.569  0.4446  0.4989  2.2200
54362SOL     OW69048  11.300   6.345   5.709 -0.5429  0.4542  0.3365
54362SOL    HW169049  11.290   6.339   5.614 -0.8748 -0.5102  0.4202
54362SOL    HW269050  11.228   6.292   5.744  0.7710 -0.9129  1.0828
54363SOL     OW69051   8.809   2.423   6.223  0.3875 -0.0651  0.1949
54363SOL    HW169052   8.892   2.420   6.271 -0.8890  1.5042  2.6699
54363SOL    HW269053   8.775   2.334   6.230  0.7755 -0.1532  1.2445
54364SOL     OW69054   0.129   5.850   1.127 -0.7194 -0.0312  0.1139
54364SOL    HW169055   0.173   5.923   1.085  1.0314 -1.0629  0.0221
54364SOL    HW269056   0.135   5.869   1.221 -0.8796  0.2683  0.0632
54365SOL     OW69057   6.443  10.590  12.202  0.0778 -0.2168 -0.2201
54365SOL    HW169058   6.347  10.584  12.199  0.1605 -2.1108 -0.2727
54365SOL    HW269059   6.469  10.520  12.263  1.4220  0.3627 -0.1102
54366SOL     OW69060   7.137   9.198   6.038  0.3712  0.1849 -0.1758
54366SOL    HW169061   7.219   9.160   6.070  1.0920  2.0231  0.3055
54366SOL    HW269062   7.156   9.291   6.030 -0.6507  0.2082 -3.3673
54367SOL     OW69063   5.484   5.158   2.516 -0.0295  0.0427 -0.0133
54367SOL    HW169064   5.495   5.083   2.576 -1.4792 -0.0032  0.2302
54367SOL    HW269065   5.517   5.126   2.432 -0.3626 -0.7903  0.1579
54368SOL     OW69066   6.051   8.071   4.292  0.2254 -0.0323 -0.0644
54368SOL    HW169067   6.135   8.101   4.326  0.9625 -0.6207 -1.2781
54368SOL    HW269068   5.995   8.148   4.295  0.8669  0.4257  0.5840
54369SOL     OW69069   8.364   7.956   7.468  0.0440  0.0281 -0.4802
54369SOL    HW169070   8.361   8.040   7.422  0.9683  0.0485 -0.5126
54369SOL    HW269071   8.315   7.896   7.412 -2.3274  0.9520  0.4596
54370SOL     OW69072   6.841   7.310   1.015  0.2932 -0.0666 -0.0783
54370SOL    HW169073   6.848   7.307   0.920 -2.1256  0.7265 -0.3386
54370SOL    HW269074   6.927   7.342   1.044  1.6359 -1.8323 -1.8203
54371SOL     OW69075   6.471  11.093  10.686 -0.1856 -0.0440  0.3904
54371SOL    HW169076   6.386  11.081  10.729 -0.1623 -1.7880  0.0459
54371SOL    HW269077   6.526  11.024  10.724  0.7723  0.4187 -0.1420
54372SOL     OW69078   6.286   7.811   3.519  0.1795  0.5332  0.2223
54372SOL    HW169079   6.301   7.728   3.564 -1.2692  0.9672  1.5780
54372SOL    HW269080   6.273   7.786   3.427  2.3643 -0.4426  0.1149
54373SOL     OW69081   7.308  11.395   3.000 -0.5349  0.0152 -0.1748
54373SOL    HW169082   7.306  11.361   2.910  0.3007  1.2209 -0.6672
54373SOL    HW269083   7.216  11.396   3.027 -0.9475  0.9168 -1.5181
54374SOL     OW69084  11.330   8.162   0.821  0.0912  0.1247  0.0667
54374SOL    HW169085  11.383   8.142   0.898  1.6894  2.2676 -0.3735
54374SOL    HW269086  11.389   8.210   0.763 -1.2255 -0.9416 -2.2842
54375SOL     OW69087   5.246   2.489   3.408 -0.1112 -0.5464 -0.5850
54375SOL    HW169088   5.267   2.570   3.454 -0.3377 -0.0999 -1.2373
54375SOL    HW269089   5.329   2.442   3.403  0.0776 -0.2395 -0.4090
54376SOL     OW69090   9.772   2.816   6.862 -0.3076 -0.2367 -0.4687
54376SOL    HW169091   9.721   2.765   6.924  0.1396 -0.6699 -0.4488
54376SOL    HW269092   9.858   2.774   6.862 -0.5806 -0.8677 -2.1159
54377SOL     OW69093   3.640   2.171   6.343  0.1495  0.7622  0.2510
54377SOL    HW169094   3.611   2.251   6.387 -0.2696  1.9494 -2.0272
54377SOL    HW269095   3.565   2.144   6.290  0.5455 -0.7334  0.4106
54378SOL     OW69096   1.731   6.974   2.036 -0.0613  1.0626 -0.3105
54378SOL    HW169097   1.666   6.959   1.968  0.5025  2.9626 -1.3269
54378SOL    HW269098   1.811   6.931   2.004 -0.1477  0.8519 -0.2415
54379SOL     OW69099  10.171  12.209   8.993  0.1144  0.2182  0.3036
54379SOL    HW169100  10.127  12.125   8.998 -0.8680  0.7890  2.2937
54379SOL    HW269101  10.205  12.214   8.904 -0.8535 -1.7435 -0.2090
54380SOL     OW69102   0.513   3.296   4.962 -0.2924 -0.9887  0.1399
54380SOL    HW169103   0.597   3.252   4.944  0.3026 -0.6594  1.9471
54380SOL    HW269104   0.531   3.388   4.946 -0.5498 -0.9936 -0.2052
54381SOL     OW69105   9.871   4.969   0.781 -0.5585 -0.3422  0.0023
54381SOL    HW169106   9.872   4.972   0.686 -2.9168  1.7053 -0.0612
54381SOL    HW269107   9.778   4.966   0.804 -0.1939  1.8271  2.1930
54382SOL     OW69108   6.417   5.424   7.767  0.5499 -0.2034  0.4491
54382SOL    HW169109   6.500   5.468   7.747  0.3674 -0.1709 -0.2503
54382SOL    HW269110   6.404   5.439   7.861  0.8340  0.6420  0.3600
54383SOL     OW69111   9.966  11.908   0.292  0.0903 -0.0828  0.5890
54383SOL    HW169112   9.892  11.927   0.234 -0.6803  1.7653  2.0464
54383SOL    HW269113   9.949  11.820   0.325 -1.1132  0.0338  0.3528
54384SOL     OW69114   5.297  10.109  12.369 -0.0882 -0.5149  0.4186
54384SOL    HW169115   5.270  10.195  12.339  0.6539  0.7561  3.1140
54384SOL    HW269116   5.384  10.096  12.331  1.0037  1.2281  2.1233
54385SOL     OW69117   6.321   6.887   6.166 -0.3574  0.2215 -0.1126
54385SOL    HW169118   6.402   6.893   6.115 -0.4274 -1.5998 -0.4877
54385SOL    HW269119   6.351   6.886   6.257 -0.0951  1.2214 -0.1657
54386SOL     OW69120   8.163  11.359   0.916 -0.1543 -0.0528 -0.0413
54386SOL    HW169121   8.229  11.336   0.851 -0.7760  0.2649 -0.8117
54386SOL    HW269122   8.092  11.398   0.865 -1.4918 -1.5254  0.6113
54387SOL     OW69123   5.895   0.150  10.463  0.2881  0.2840  0.1788
54387SOL    HW169124   5.925   0.083  10.525  1.6615  0.7526  0.0683
54387SOL    HW269125   5.971   0.164  10.406 -0.9998 -0.2383 -1.7249
54388SOL     OW69126   0.446   6.013   3.065 -0.1603  0.1309  0.5555
54388SOL    HW169127   0.498   6.075   3.015  0.2943  1.9196  3.0493
54388SOL    HW269128   0.430   5.941   3.004  3.8547  0.1675 -0.8448
54389SOL     OW69129   0.525   7.324   6.749 -0.0887 -0.8444  0.3069
54389SOL    HW169130   0.549   7.395   6.809  1.4820  1.7802 -3.0964
54389SOL    HW269131   0.442   7.291   6.783 -0.5772  2.1964  2.4576
54390SOL     OW69132  10.251   2.082   7.866  0.3157 -0.2282 -0.0759
54390SOL    HW169133  10.202   2.050   7.789 -0.1740 -0.3851  0.2967
54390SOL    HW269134  10.343   2.075   7.840  0.1328  1.2156 -1.2400
54391SOL     OW69135  11.433  10.794  10.264  0.4942  0.5072 -0.3331
54391SOL    HW169136  11.442  10.707  10.301 -1.0538  0.1468 -0.7512
54391SOL    HW269137  11.523  10.821  10.245  1.1153 -0.3478  1.2186
54392SOL     OW69138  12.324  10.361   5.817 -0.5093 -0.0623 -0.1679
54392SOL    HW169139  12.370  10.411   5.748  0.6537 -0.3370  0.3758
54392SOL    HW269140  12.350  10.405   5.898  0.5283 -1.5052  0.3216
54393SOL     OW69141   7.516   3.423   5.437  0.3001 -0.0981 -0.6812
54393SOL    HW169142   7.449   3.354   5.445 -0.3964  0.4886 -1.2842
54393SOL    HW269143   7.485   3.493   5.494  2.4861 -1.3259  2.2720
54394SOL     OW69144  10.054   1.155   8.189 -0.0025  0.9802 -0.6986
54394SOL    HW169145  10.012   1.203   8.259 -2.7446 -0.0863 -1.4847
54394SOL    HW269146  10.098   1.082   8.233 -0.7817  0.9287  0.0223
54395SOL     OW69147   9.723   3.921   3.609 -0.6052 -0.1000 -0.0653
54395SOL    HW169148   9.767   3.837   3.615 -0.7630 -0.2303 -0.6563
54395SOL    HW269149   9.786   3.978   3.564  0.2085  0.6074  1.8709
54396SOL     OW69150  10.527   6.501   9.083 -0.7897 -0.5790 -0.0282
54396SOL    HW169151  10.526   6.428   9.144  0.2034  0.2458  1.0218
54396SOL    HW269152  10.530   6.579   9.139  0.5355  0.1911 -1.1233
54397SOL     OW69153   7.378   9.871   5.492 -0.4785 -0.4008  0.3617
54397SOL    HW169154   7.337   9.943   5.445 -0.1577 -0.2181  0.3516
54397SOL    HW269155   7.445   9.914   5.546 -0.3022 -0.6878  0.3727
54398SOL     OW69156   9.056  11.105  11.519 -0.2888  1.0236 -0.0565
54398SOL    HW169157   9.144  11.101  11.556  0.2043  0.4814 -1.2372
54398SOL    HW269158   8.998  11.099  11.595  0.6574 -1.1503  0.5672
54399SOL     OW69159   8.691  10.905   7.939  0.1740  0.1641 -0.0443
54399SOL    HW169160   8.649  10.821   7.954 -0.0142  0.2573 -0.0509
54399SOL    HW269161   8.671  10.926   7.848 -1.3329  1.0894  0.4800
54400SOL     OW69162   7.568   5.845   2.360  0.0475 -0.6965  0.4383
54400SOL    HW169163   7.616   5.804   2.433  0.0140 -0.4430  0.6011
54400SOL    HW269164   7.633   5.901   2.318  1.0954 -3.3794 -1.8245
54401SOL     OW69165   8.911   0.575   7.992  0.6879  0.3821  0.4428
54401SOL    HW169166   9.003   0.580   8.016  0.4940 -0.2155  1.3387
54401SOL    HW269167   8.888   0.664   7.965  1.1036  0.9187  1.8074
54402SOL     OW69168   0.096  10.286   7.548  0.4995  0.0331  0.5369
54402SOL    HW169169   0.093  10.223   7.620 -1.2704 -0.5413  0.0104
54402SOL    HW269170   0.129  10.367   7.587  2.7930 -1.1557  1.2344
54403SOL     OW69171  12.304   1.978   1.608  0.2412 -0.6483  0.3059
54403SOL    HW169172  12.286   2.014   1.695 -1.0283 -1.4967  0.4222
54403SOL    HW269173  12.361   2.042   1.567 -1.5069  1.2427  0.6925
54404SOL     OW69174   8.575   4.464   8.216 -0.3365  0.5903  0.6295
54404SOL    HW169175   8.581   4.389   8.157 -2.1852  0.2494  0.8159
54404SOL    HW269176   8.587   4.427   8.303  1.0949  0.8993  0.5876
54405SOL     OW69177   3.151   2.536   2.745  0.2088 -0.1813 -0.0947
54405SOL    HW169178   3.076   2.520   2.688 -0.1384  2.1699 -0.3996
54405SOL    HW269179   3.227   2.517   2.691 -0.1390  1.0240 -1.0414
54406SOL     OW69180   9.067   7.413   2.315  0.0786 -0.4016 -0.0576
54406SOL    HW169181   9.067   7.333   2.367  1.0386 -1.3928 -1.5086
54406SOL    HW269182   9.145   7.461   2.343  0.3150 -0.6877 -0.2250
54407SOL     OW69183   7.206  12.153   4.372  0.1981  0.0816 -0.3579
54407SOL    HW169184   7.211  12.108   4.456 -0.9985  0.4335 -0.0742
54407SOL    HW269185   7.283  12.209   4.370  0.4690 -0.2598  0.3128
54408SOL     OW69186   5.145   9.425   5.251  0.5262  0.0269  0.3258
54408SOL    HW169187   5.135   9.427   5.156  0.6216  2.0759  0.3295
54408SOL    HW269188   5.067   9.469   5.284  0.7082 -0.2745  1.1878
54409SOL     OW69189   6.711   3.241  11.935 -0.1004 -0.0157 -0.3974
54409SOL    HW169190   6.780   3.274  11.877  0.5724 -2.6741 -1.2440
54409SOL    HW269191   6.754   3.176  11.990 -1.4190  0.1811  0.9409
54410SOL     OW69192   9.271   5.569   7.394  0.2452 -0.2329 -0.7561
54410SOL    HW169193   9.361   5.572   7.425  0.1622 -1.4559 -0.3174
54410SOL    HW269194   9.278   5.569   7.299  0.6331  0.9751 -0.7397
54411SOL     OW69195   5.287   0.297   9.982 -0.1826 -0.2027  0.3750
54411SOL    HW169196   5.299   0.285   9.888  1.2846 -0.4615  0.5714
54411SOL    HW269197   5.297   0.209  10.019 -1.3559 -0.2053  0.7312
54412SOL     OW69198  10.701   6.085   2.975 -0.2116  0.1411 -0.0985
54412SOL    HW169199  10.676   6.001   2.936  0.8971 -0.7255  0.9733
54412SOL    HW269200  10.669   6.080   3.065 -0.5081  1.0580 -0.1442
54413SOL     OW69201   7.519   8.119  10.286  0.5789  0.0739 -0.0928
54413SOL    HW169202   7.590   8.079  10.335  1.4507  0.6315 -0.8447
54413SOL    HW269203   7.440   8.070  10.310  1.1350 -0.2262  1.1392
54414SOL     OW69204   1.625   7.057  11.755  0.5048 -0.2762 -0.1439
54414SOL    HW169205   1.608   6.964  11.743 -0.8387 -0.2528  1.1950
54414SOL    HW269206   1.650   7.089  11.669 -3.3833 -1.0203 -1.7684
54415SOL     OW69207   8.980   4.052   0.986 -0.5536 -0.3024  0.2127
54415SOL    HW169208   8.903   4.088   0.942  0.2089  0.8572 -0.2108
54415SOL    HW269209   8.944   3.993   1.052 -1.8033  0.1777 -0.0102
54416SOL     OW69210   5.579   7.738  10.291 -0.3065  0.1355 -0.2647
54416SOL    HW169211   5.527   7.711  10.367  0.7340 -0.2517  0.3323
54416SOL    HW269212   5.665   7.758  10.328  0.3719 -0.5777 -1.4266
54417SOL     OW69213   5.436   1.780  11.175  0.2693  0.0379 -0.5198
54417SOL    HW169214   5.470   1.776  11.265 -0.4461  0.8083 -0.2104
54417SOL    HW269215   5.360   1.722  11.176  1.3081 -1.4099 -1.1250
54418SOL     OW69216   4.021   7.012   7.355 -0.1326 -0.3023  0.1712
54418SOL    HW169217   4.098   6.993   7.303 -0.1526 -1.0693  0.4105
54418SOL    HW269218   3.987   7.095   7.320  0.2524 -0.4516 -0.5541
54419SOL     OW69219  11.741  10.699   5.734  0.0467 -0.1643 -0.3320
54419SOL    HW169220  11.792  10.766   5.779  1.2458 -1.4778  0.3515
54419SOL    HW269221  11.767  10.706   5.642  0.9067 -0.3185 -0.1110
54420SOL     OW69222   0.046   2.565   0.077 -0.1367  0.2034 -0.5565
54420SOL    HW169223   0.027   2.493   0.017  0.9144 -0.2933 -0.3295
54420SOL    HW269224  -0.002   2.640   0.042  0.1452 -0.1807 -1.8008
54421SOL     OW69225  11.841   9.490   7.351  0.3079 -0.2088 -0.5548
54421SOL    HW169226  11.901   9.563   7.344  1.7797 -1.2932  0.1735
54421SOL    HW269227  11.894   9.413   7.329 -0.1807 -1.4504  2.1914
54422SOL     OW69228   6.519   4.424   3.335 -0.0500  0.5057 -0.0648
54422SOL    HW169229   6.442   4.432   3.279 -0.1942  0.3242  0.1054
54422SOL    HW269230   6.559   4.510   3.333 -1.6943  1.4020  1.9276
54423SOL     OW69231   5.237   0.429   5.774 -0.5711  0.2750  0.0944
54423SOL    HW169232   5.312   0.474   5.812  1.3886 -1.1072 -1.8385
54423SOL    HW269233   5.266   0.338   5.764 -2.4502 -0.2755 -0.8837
54424SOL     OW69234   5.335   1.572   2.500 -0.2443  0.3638 -0.0732
54424SOL    HW169235   5.254   1.602   2.542 -0.9610 -0.0246 -1.1383
54424SOL    HW269236   5.309   1.553   2.410  0.3595 -2.5319  0.2792
54425SOL     OW69237   2.421   0.872   0.326 -0.1591 -0.8369 -0.1982
54425SOL    HW169238   2.344   0.921   0.355 -0.5290 -0.7837 -1.2527
54425SOL    HW269239   2.428   0.799   0.388 -0.4240 -0.2542  0.5377
54426SOL     OW69240   7.675   7.811   2.505 -0.5012 -0.0900  0.3197
54426SOL    HW169241   7.741   7.813   2.574 -1.2949 -1.8308  1.1857
54426SOL    HW269242   7.607   7.753   2.538 -0.8852 -1.0436 -1.9436
54427SOL     OW69243   7.628   0.328   2.708  0.5239  0.0886  0.0061
54427SOL    HW169244   7.630   0.385   2.631  1.3045  0.4634  0.2862
54427SOL    HW269245   7.632   0.389   2.782 -0.7330 -0.2406  0.3681
54428SOL     OW69246   2.869   5.903  11.833 -0.2050  0.0704 -0.0471
54428SOL    HW169247   2.815   5.948  11.898  0.0224  1.0028 -0.4813
54428SOL    HW269248   2.955   5.944  11.842 -0.0366 -0.1595 -0.5847
54429SOL     OW69249   0.421  10.576   6.198  0.0129 -0.0808 -0.4468
54429SOL    HW169250   0.379  10.618   6.123 -0.5712 -0.1663 -0.1689
54429SOL    HW269251   0.404  10.635   6.272 -1.3412 -1.0612  0.0799
54430SOL     OW69252   3.219   3.351   5.553 -0.2681 -0.1153 -0.1532
54430SOL    HW169253   3.313   3.332   5.561 -0.1673  0.6170  0.4610
54430SOL    HW269254   3.177   3.265   5.560  0.3760 -0.5187 -0.9380
54431SOL     OW69255   2.356   4.772   3.044 -0.4240 -0.4763  0.1502
54431SOL    HW169256   2.272   4.730   3.026 -0.8428 -0.3221  1.6464
54431SOL    HW269257   2.341   4.824   3.123  0.8522  0.2487 -0.0533
54432SOL     OW69258   2.331   0.253   4.456  0.3545  0.0843  0.4702
54432SOL    HW169259   2.392   0.182   4.438  0.9255  1.2025 -2.6670
54432SOL    HW269260   2.249   0.227   4.413 -0.4596 -0.0134  1.9959
54433SOL     OW69261   0.819   9.225   8.872 -0.5267 -0.1122 -0.1428
54433SOL    HW169262   0.761   9.212   8.797  0.3882 -1.7663 -0.6018
54433SOL    HW269263   0.803   9.316   8.898 -2.8499 -0.3234 -0.6262
54434SOL     OW69264   0.511   3.952  10.325  0.6017  0.1901  0.3122
54434SOL    HW169265   0.421   3.981  10.340 -0.9361 -3.6487 -0.3772
54434SOL    HW269266   0.516   3.942  10.230  0.9643 -1.7296  0.5060
54435SOL     OW69267   7.648  11.166  12.126 -0.3524 -0.3515  0.3067
54435SOL    HW169268   7.605  11.082  12.112 -2.0203  0.4953  0.1924
54435SOL    HW269269   7.733  11.143  12.165 -1.2900 -2.0240  1.4716
54436SOL     OW69270   5.149   4.791   9.274 -0.1457  0.2157  0.0199
54436SOL    HW169271   5.241   4.771   9.287  0.0529  0.6138 -0.6939
54436SOL    HW269272   5.147   4.885   9.255 -0.7261  0.2636  0.2986
54437SOL     OW69273   0.477   3.673   6.189  0.4946 -0.8224 -0.2532
54437SOL    HW169274   0.510   3.634   6.108 -0.5437 -0.7350 -0.7348
54437SOL    HW269275   0.423   3.605   6.228  1.4315 -1.0653  0.6717
54438SOL     OW69276   6.181  11.479  11.292  0.2070  0.3811 -0.7497
54438SOL    HW169277   6.276  11.470  11.304  0.0432 -0.4705 -0.0413
54438SOL    HW269278   6.171  11.495  11.198  1.0939  1.2021 -0.7217
54439SOL     OW69279   2.151   8.898   1.622  0.1292 -0.7165 -0.2874
54439SOL    HW169280   2.141   8.857   1.708  0.2481 -0.9023 -0.3598
54439SOL    HW269281   2.233   8.861   1.588 -0.2373 -1.1278 -0.7441
54440SOL     OW69282   9.039   6.885   8.620 -0.6395  0.0206 -0.7255
54440SOL    HW169283   9.126   6.890   8.580 -0.5965  0.4836 -0.5889
54440SOL    HW269284   9.011   6.795   8.607  0.3820 -0.4738  0.3250
54441SOL     OW69285   4.030   6.762   9.471  0.2609 -0.1453 -0.4085
54441SOL    HW169286   3.968   6.751   9.543  0.9160 -0.4942  0.1194
54441SOL    HW269287   4.010   6.848   9.435 -0.7736 -0.4112 -0.4922
54442SOL     OW69288   9.708   9.386   3.992  0.3000  0.4493 -0.0343
54442SOL    HW169289   9.728   9.294   3.974  0.4302  0.6170 -0.7855
54442SOL    HW269290   9.629   9.404   3.941  0.3980  0.8120 -0.0640
54443SOL     OW69291   5.141   6.488   2.315  0.4052 -0.2233 -0.2315
54443SOL    HW169292   5.182   6.561   2.268  0.8531  0.2323  0.8283
54443SOL    HW269293   5.049   6.491   2.291  0.6281  0.0066 -1.0610
54444SOL     OW69294   2.691   6.198   4.357 -0.2969 -0.1757 -0.0781
54444SOL    HW169295   2.768   6.141   4.356 -0.4416 -0.3678 -0.4070
54444SOL    HW269296   2.618   6.140   4.337 -0.6013 -0.0956  0.7979
54445SOL     OW69297   2.567   3.868   0.879  0.0578  0.5008 -0.0207
54445SOL    HW169298   2.586   3.816   0.801  0.4016 -0.5438  0.7442
54445SOL    HW269299   2.617   3.949   0.866 -0.3223  0.5744 -1.1288
54446SOL     OW69300   2.012   6.626   6.044  0.1211  0.2349  0.3506
54446SOL    HW169301   2.093   6.574   6.040  1.0573  1.6964 -2.1528
54446SOL    HW269302   1.959   6.593   5.972  0.2075  1.8292 -0.4935
54447SOL     OW69303   8.645   2.814  11.457  0.1911 -0.7905  0.2204
54447SOL    HW169304   8.672   2.778  11.373 -1.8493  0.0138 -0.8339
54447SOL    HW269305   8.563   2.769  11.477 -0.7873  0.9984  0.3966
54448SOL     OW69306   1.437  11.334  11.752 -0.4018 -0.2844 -0.9798
54448SOL    HW169307   1.401  11.356  11.838 -2.6098 -0.3355 -1.8296
54448SOL    HW269308   1.478  11.249  11.764  1.5982  0.7977  0.5726
54449SOL     OW69309   5.269   7.118   3.775  0.8218 -0.2512  0.3144
54449SOL    HW169310   5.193   7.114   3.716  1.0231  1.1196 -0.0736
54449SOL    HW269311   5.283   7.212   3.789  2.3028 -0.4868  0.5644
54450SOL     OW69312   4.306   4.460   6.368  0.9456 -0.2720 -0.4718
54450SOL    HW169313   4.368   4.415   6.426  0.6950 -0.3555 -0.2681
54450SOL    HW269314   4.223   4.413   6.381  0.0698  1.6406  1.4921
54451SOL     OW69315   8.799   7.192   8.280 -0.6005  0.1598 -0.0925
54451SOL    HW169316   8.855   7.222   8.351 -1.0613  3.4940 -0.9412
54451SOL    HW269317   8.737   7.132   8.321  0.0640  0.8180  1.9734
54452SOL     OW69318  11.073   3.828   8.391  0.8012 -0.5212  0.2102
54452SOL    HW169319  11.070   3.742   8.432  3.5056 -0.5379  0.5539
54452SOL    HW269320  11.076   3.810   8.297 -0.5381 -0.6834  0.1807
54453SOL     OW69321   6.949   2.434   3.972  0.7667 -0.7920 -0.1733
54453SOL    HW169322   6.883   2.440   3.903  1.1477  1.3055 -0.4199
54453SOL    HW269323   7.028   2.470   3.933  0.8535  0.9603  1.4523
54454SOL     OW69324  12.246  10.950   2.790 -0.3785  0.4551  0.3343
54454SOL    HW169325  12.164  10.936   2.836 -0.7177  0.6256 -0.2156
54454SOL    HW269326  12.240  10.895   2.712  0.9347 -1.2306  1.3577
54455SOL     OW69327  11.875  11.943   8.628  0.0443 -0.1391  0.4211
54455SOL    HW169328  11.808  11.896   8.579  0.1509 -1.3549  1.4094
54455SOL    HW269329  11.944  11.959   8.564 -1.0513  0.9081 -0.5435
54456SOL     OW69330   9.859   1.183  11.901 -0.0559 -0.0908  0.5565
54456SOL    HW169331   9.853   1.180  11.997 -0.0457  0.8548  0.5981
54456SOL    HW269332   9.786   1.239  11.874  0.3248  0.1833  0.0678
54457SOL     OW69333   6.824   1.483  10.607  0.4850  0.2076  0.2498
54457SOL    HW169334   6.844   1.577  10.609  0.8285  0.1624 -0.6414
54457SOL    HW269335   6.732   1.478  10.631  0.0395  0.9153 -1.2104
54458SOL     OW69336   2.073   5.757   4.189  0.3843 -0.3931  0.1517
54458SOL    HW169337   2.010   5.747   4.118  0.2669 -0.9366  0.3253
54458SOL    HW269338   2.117   5.672   4.194  0.4881 -0.3152  0.6358
54459SOL     OW69339   7.237   3.960  12.109  0.3511  0.8316  0.1319
54459SOL    HW169340   7.300   4.029  12.085 -0.0192  1.0765 -0.1448
54459SOL    HW269341   7.190   3.942  12.028  0.2279  0.4769  0.2829
54460SOL     OW69342  12.265   5.076   0.543 -0.4525 -0.5086  0.4820
54460SOL    HW169343  12.346   5.082   0.492 -0.1535 -1.3237  0.8391
54460SOL    HW269344  12.269   5.150   0.603 -0.1697 -0.3027  0.2086
54461SOL     OW69345   2.398   1.475  11.397 -0.0959  0.1518  0.5295
54461SOL    HW169346   2.305   1.463  11.379 -0.1559 -0.3679  1.1333
54461SOL    HW269347   2.419   1.562  11.363 -0.4056 -0.3822 -1.1063
54462SOL     OW69348   6.085  12.211   6.875 -0.9623 -0.2625  0.4053
54462SOL    HW169349   6.115  12.236   6.961 -0.3517 -1.1591  0.4717
54462SOL    HW269350   5.991  12.230   6.875 -0.7538  0.7968  0.8557
54463SOL     OW69351   7.227   3.532   1.940  0.7520  0.3465  0.1030
54463SOL    HW169352   7.307   3.483   1.959  1.3529  0.7890 -1.1548
54463SOL    HW269353   7.252   3.624   1.950 -0.1660  0.4617  1.7003
54464SOL     OW69354   2.042   2.951   6.783 -0.1672  0.3213  0.2765
54464SOL    HW169355   2.075   2.947   6.693  0.9311 -0.3158  0.6904
54464SOL    HW269356   2.015   2.861   6.803 -0.2013  0.4138  0.6563
54465SOL     OW69357   8.473   7.546   7.528 -0.0257 -0.9178  0.5391
54465SOL    HW169358   8.504   7.456   7.516  0.3688 -0.4999 -2.2148
54465SOL    HW269359   8.551   7.595   7.556 -0.3744 -1.4679  2.6558
54466SOL     OW69360   8.898   4.334   6.520 -0.0591  0.3672 -0.4220
54466SOL    HW169361   8.875   4.273   6.590 -0.3443  1.1759  0.2157
54466SOL    HW269362   8.841   4.410   6.535 -0.0957  0.5704 -1.5155
54467SOL     OW69363  10.896   6.952  10.686 -0.0215 -0.1560  0.1804
54467SOL    HW169364  10.849   6.949  10.603  0.7998 -0.8971 -0.2690
54467SOL    HW269365  10.843   7.009  10.741 -0.3576  0.6806 -0.9815
54468SOL     OW69366  12.320   4.684   3.498  0.1110 -0.9528 -0.3253
54468SOL    HW169367  12.399   4.651   3.543  0.0899 -1.2871 -0.5293
54468SOL    HW269368  12.248   4.662   3.558  0.3370  1.1453  0.8416
54469SOL     OW69369   6.801   0.831   0.017  0.1094  0.5583  0.0202
54469SOL    HW169370   6.745   0.763   0.054  1.5718 -0.9396 -0.4017
54469SOL    HW269371   6.784   0.908   0.072 -1.7419 -0.0445  0.3850
54470SOL     OW69372   9.681  11.229   8.174  0.7644 -0.7271 -0.1952
54470SOL    HW169373   9.726  11.163   8.121 -0.5984 -0.7990 -1.3416
54470SOL    HW269374   9.697  11.203   8.264  0.8342 -2.2519 -0.6157
54471SOL     OW69375   6.704  10.539   8.160  0.2099  0.1560 -0.1268
54471SOL    HW169376   6.675  10.626   8.190 -1.4712 -0.1762 -0.6749
54471SOL    HW269377   6.791  10.555   8.122 -0.5218  1.8384 -1.2359
54472SOL     OW69378   0.005  11.085   5.781 -0.1105  0.1371 -0.1473
54472SOL    HW169379   0.088  11.063   5.822 -0.4206  0.7811  0.8734
54472SOL    HW269380  -0.039  11.001   5.768  0.2539 -0.1228  0.2949
54473SOL     OW69381   4.230   5.580  11.221  0.3703  0.5850 -0.4596
54473SOL    HW169382   4.231   5.626  11.305  0.1165 -0.0008 -0.1307
54473SOL    HW269383   4.319   5.588  11.188  0.8024 -0.2539  0.4617
54474SOL     OW69384   9.357   0.793   6.219  0.6429  0.0783 -0.5957
54474SOL    HW169385   9.444   0.785   6.181  1.1186  2.3967 -0.1446
54474SOL    HW269386   9.373   0.822   6.308 -0.6030  1.3820 -0.7771
54475SOL     OW69387   7.716   7.464  10.838 -0.3674 -0.6582 -0.3294
54475SOL    HW169388   7.734   7.397  10.904 -0.7362  0.3332  0.8133
54475SOL    HW269389   7.781   7.532  10.855 -0.5675 -0.3262 -0.8941
54476SOL     OW69390   0.836   4.514   2.762  0.5298 -0.0080  0.5294
54476SOL    HW169391   0.764   4.477   2.711  0.4941 -0.5891  0.9852
54476SOL    HW269392   0.833   4.465   2.845  1.8235 -0.4709  0.3190
54477SOL     OW69393   4.719   1.646   1.878 -0.4420 -0.3990  0.6620
54477SOL    HW169394   4.715   1.740   1.862 -3.1119 -0.2694  1.6374
54477SOL    HW269395   4.645   1.628   1.935 -0.4040 -3.2156 -0.0334
54478SOL     OW69396   6.169   1.897  10.908  0.6155 -0.1021  0.5162
54478SOL    HW169397   6.163   1.852  10.992 -0.0956 -0.6785  0.1652
54478SOL    HW269398   6.130   1.983  10.925 -0.6907 -0.6615  0.4802
54479SOL     OW69399   8.687   7.653  10.515  0.1202 -0.4634 -0.0981
54479SOL    HW169400   8.768   7.610  10.489  0.7558  0.2678  0.6139
54479SOL    HW269401   8.715   7.728  10.567 -0.8685  1.5891 -2.2912
54480SOL     OW69402   2.096  11.442  12.368  0.5431 -0.4402  0.3128
54480SOL    HW169403   2.064  11.400  12.288 -0.4160 -2.6883  1.7610
54480SOL    HW269404   2.056  11.529  12.368  1.9875  0.3309 -2.4582
54481SOL     OW69405   3.444   3.683  11.564  0.2644  0.3913  0.1038
54481SOL    HW169406   3.480   3.685  11.653  2.0797  0.2148 -0.5778
54481SOL    HW269407   3.521   3.694  11.508 -0.6346 -1.0558 -1.4915
54482SOL     OW69408   6.662   8.293   1.963  0.1663  0.0510 -0.0522
54482SOL    HW169409   6.623   8.316   1.879  1.4263  1.9732 -0.1659
54482SOL    HW269410   6.744   8.248   1.940  0.3810  0.3369  0.1447
54483SOL     OW69411   6.027  11.617   1.105 -0.6858  0.7709 -0.2266
54483SOL    HW169412   5.956  11.583   1.159 -1.3108  0.1866 -1.3737
54483SOL    HW269413   6.056  11.542   1.054 -1.1132  1.6116 -1.7643
54484SOL     OW69414  11.007   1.038   5.984 -0.2496 -0.5813 -0.3610
54484SOL    HW169415  11.094   1.069   5.958 -0.5029 -1.3783 -2.3656
54484SOL    HW269416  11.020   0.946   6.006 -0.7964 -1.2369 -2.4488
54485SOL     OW69417   5.102   2.890  10.040 -0.2681  0.7841  0.5306
54485SOL    HW169418   5.057   2.944  10.104  0.5587  1.4338  0.5775
54485SOL    HW269419   5.189   2.929  10.032 -0.4267  0.8801 -1.1650
54486SOL     OW69420   6.672   7.323   2.596  0.2003  0.0720  0.4479
54486SOL    HW169421   6.739   7.256   2.584 -1.0161 -1.4260  1.5966
54486SOL    HW269422   6.658   7.359   2.508 -0.1415 -2.2208 -0.5175
54487SOL     OW69423   7.642  11.096   2.676 -0.0871 -0.2389 -0.7270
54487SOL    HW169424   7.551  11.123   2.682 -0.4467 -1.3506 -1.0008
54487SOL    HW269425   7.665  11.109   2.584  0.2435  0.6475 -0.5339
54488SOL     OW69426  11.397   9.523   2.141  0.2392  0.1622  0.6516
54488SOL    HW169427  11.414   9.612   2.175 -1.6639  0.0280  2.1645
54488SOL    HW269428  11.368   9.537   2.051  0.5047  1.0391  0.6893
54489SOL     OW69429   3.751   8.983   9.581  0.0637 -0.3678  0.0858
54489SOL    HW169430   3.801   9.065   9.573 -0.6557  0.0526 -0.2130
54489SOL    HW269431   3.748   8.966   9.675 -0.3813  0.3365  0.2069
54490SOL     OW69432   0.426   4.184   7.937  0.2799  0.3408  0.1220
54490SOL    HW169433   0.519   4.161   7.942  0.3663  0.4059 -0.8779
54490SOL    HW269434   0.410   4.239   8.013  1.2386  0.9225 -0.0831
54491SOL     OW69435   1.314   2.636   4.976 -0.4665  0.2808  0.2349
54491SOL    HW169436   1.394   2.584   4.971 -0.0774  0.7586  1.2670
54491SOL    HW269437   1.335   2.718   4.930 -1.1559 -0.5201 -1.6028
54492SOL     OW69438   1.326   6.858   9.679  0.0319 -0.2119  0.6117
54492SOL    HW169439   1.261   6.893   9.619  0.5807  2.1051  1.2447
54492SOL    HW269440   1.399   6.921   9.675  1.0439 -1.2240  1.9829
54493SOL     OW69441   5.015   7.377   0.507  0.2655 -0.7890  0.3795
54493SOL    HW169442   5.011   7.427   0.426  0.8280  0.3811  1.0400
54493SOL    HW269443   5.083   7.312   0.492 -1.6215 -2.5648 -1.0914
54494SOL     OW69444   5.237   2.625   6.031  0.1231  0.0524 -0.1540
54494SOL    HW169445   5.289   2.618   5.951  1.3099  1.2197  0.4656
54494SOL    HW269446   5.167   2.560   6.021  1.4971 -1.3331 -1.1769
54495SOL     OW69447   4.915   0.949   6.149 -0.6103 -0.3296 -0.0903
54495SOL    HW169448   4.962   0.881   6.101 -0.9989 -0.8141  0.1994
54495SOL    HW269449   4.980   0.987   6.208  0.3060  1.3501 -2.0349
54496SOL     OW69450   1.789   9.179  11.847 -0.4764  0.9971  0.1394
54496SOL    HW169451   1.879   9.149  11.855  0.2056  2.6745 -0.8417
54496SOL    HW269452   1.750   9.121  11.781 -0.9651 -1.4278  2.3898
54497SOL     OW69453   3.234  11.668   8.428  0.2484 -0.8280 -0.0927
54497SOL    HW169454   3.256  11.722   8.503  0.5905  2.1913 -2.1749
54497SOL    HW269455   3.259  11.580   8.454  2.9267  0.4622  2.3360
54498SOL     OW69456   9.145  11.543   0.065  0.4578 -0.2721 -0.5979
54498SOL    HW169457   9.152  11.576  -0.025 -3.1431  0.2160 -0.8572
54498SOL    HW269458   9.082  11.471   0.059  1.6970 -1.5990  1.2855
54499SOL     OW69459   3.264   1.736  11.925 -0.0239  0.4292  0.3699
54499SOL    HW169460   3.174   1.765  11.938 -0.7460 -1.4007 -0.2421
54499SOL    HW269461   3.291   1.703  12.011 -0.5151 -0.4698  0.1917
54500SOL     OW69462   0.510   5.561   6.864 -0.7467 -0.1866 -0.3342
54500SOL    HW169463   0.512   5.474   6.904  1.2914 -0.2536 -0.4548
54500SOL    HW269464   0.490   5.620   6.937 -2.6313 -0.7607 -0.3437
54501SOL     OW69465   4.898   9.136   0.787 -0.8028  0.1674  0.2124
54501SOL    HW169466   4.928   9.151   0.697  1.8460 -0.8432  0.8431
54501SOL    HW269467   4.821   9.193   0.796 -1.0314  0.4649 -2.5884
54502SOL     OW69468   8.281   1.087   6.662 -0.4312 -0.0467  0.4054
54502SOL    HW169469   8.217   1.157   6.650 -0.6636 -0.3066  0.0955
54502SOL    HW269470   8.342   1.097   6.589 -0.5068 -0.2081  0.3182
54503SOL     OW69471   3.364   6.909   1.811  0.0982 -0.2849  0.2577
54503SOL    HW169472   3.383   7.003   1.812  0.6749 -0.4004  1.2614
54503SOL    HW269473   3.317   6.893   1.892  1.3504 -1.1162  0.8547
54504SOL     OW69474   8.976   1.824   8.374 -0.3505  0.2955  0.0925
54504SOL    HW169475   8.912   1.851   8.309 -0.5349 -0.4043 -0.0281
54504SOL    HW269476   9.044   1.778   8.324  0.4645  1.3803  0.1634
54505SOL     OW69477   7.840   9.897   6.428 -0.2720  0.1710  0.5911
54505SOL    HW169478   7.901   9.929   6.493 -0.4872 -1.0326  1.4217
54505SOL    HW269479   7.837   9.966   6.361  2.3106  0.0863  0.2835
54506SOL     OW69480   3.755   0.334   5.097 -0.4517  0.1408  0.1566
54506SOL    HW169481   3.715   0.420   5.115  0.0610  0.9242 -2.1329
54506SOL    HW269482   3.835   0.334   5.149  0.3940  1.8036 -1.0627
54507SOL     OW69483  11.377   3.860   0.435 -0.1416 -0.0007  0.2694
54507SOL    HW169484  11.320   3.933   0.411 -0.2588  0.6520  2.3352
54507SOL    HW269485  11.431   3.845   0.357 -0.6405  1.7832 -0.4762
54508SOL     OW69486  12.008  11.116   6.245  0.0146  0.0335  0.1083
54508SOL    HW169487  11.963  11.199   6.265 -0.6112 -0.1563 -0.4735
54508SOL    HW269488  12.022  11.075   6.330  0.7493  0.9424  0.4493
54509SOL     OW69489   9.712   8.531   8.776 -0.1671 -0.7292  0.6942
54509SOL    HW169490   9.713   8.627   8.782  1.9715 -0.6043 -0.6330
54509SOL    HW269491   9.746   8.502   8.860 -1.5300 -0.3856  1.3935
54510SOL     OW69492   6.006  11.446   9.699  0.0155 -0.3225 -0.7568
54510SOL    HW169493   5.935  11.503   9.728  0.0708  0.0203 -1.2620
54510SOL    HW269494   6.016  11.466   9.605  1.7023  0.6886 -0.4122
54511SOL     OW69495  11.427   8.452   7.085  0.0889  0.3377  0.3606
54511SOL    HW169496  11.396   8.394   7.155 -1.9132  0.6306 -0.2377
54511SOL    HW269497  11.382   8.421   7.006  1.1108  1.0053 -0.5180
54512SOL     OW69498   0.743   8.197   9.417  0.1007  0.2124  0.4498
54512SOL    HW169499   0.831   8.211   9.382 -0.2046  1.4822  0.1570
54512SOL    HW269500   0.707   8.126   9.363  1.2383 -0.9492  1.1496
54513SOL     OW69501  11.961  11.719   3.662  0.3279 -0.0566 -0.0881
54513SOL    HW169502  12.042  11.764   3.687  1.0886  0.2079 -2.7992
54513SOL    HW269503  11.903  11.789   3.632  0.9019 -0.6283 -2.7216
54514SOL     OW69504   6.354   1.147  10.934  0.3844 -0.4377 -0.2343
54514SOL    HW169505   6.298   1.073  10.961  0.8608 -1.0678 -0.9360
54514SOL    HW269506   6.346   1.210  11.006  0.1291 -1.2567  0.4776
54515SOL     OW69507   9.500  11.928  11.611  0.0050 -0.1569  0.3863
54515SOL    HW169508   9.539  11.962  11.691  1.6273  0.1300 -0.4711
54515SOL    HW269509   9.444  11.998  11.579 -0.0180  0.0342  0.8401
54516SOL     OW69510   2.106   1.740  11.150  0.3001  0.2059 -0.7081
54516SOL    HW169511   2.040   1.691  11.199  1.8190 -2.6281 -1.2455
54516SOL    HW269512   2.165   1.774  11.217  0.3722 -0.5315 -0.3854
54517SOL     OW69513   2.408   4.977   8.919 -0.0873  0.4440  0.1000
54517SOL    HW169514   2.493   4.935   8.907  0.2943  0.7225  1.6474
54517SOL    HW269515   2.373   4.939   9.000 -1.3172  0.5456 -0.3545
54518SOL     OW69516  10.303   0.875   1.745  0.0633  0.2487 -0.1235
54518SOL    HW169517  10.365   0.931   1.792  0.5333  1.3144 -1.9062
54518SOL    HW269518  10.218   0.917   1.760  0.0135 -0.1742  0.8314
54519SOL     OW69519   5.663   9.237   2.941  0.4804 -0.0163 -0.1591
54519SOL    HW169520   5.696   9.314   2.894 -1.0977  1.7883  1.4995
54519SOL    HW269521   5.720   9.166   2.913  1.3620  1.5076 -2.5860
54520SOL     OW69522   2.362   0.705   7.458 -0.3792 -0.1304  0.2039
54520SOL    HW169523   2.417   0.779   7.482  1.1460 -1.5742  1.4257
54520SOL    HW269524   2.410   0.659   7.390  0.3380 -1.7585  1.7184
54521SOL     OW69525   3.298   5.373   6.710 -0.2817  0.2662  0.3376
54521SOL    HW169526   3.388   5.387   6.739  0.1133 -0.8101 -0.3005
54521SOL    HW269527   3.246   5.377   6.790  0.1304  2.2783  0.5566
54522SOL     OW69528   5.809   5.031   0.479 -0.2389  0.3089 -0.4700
54522SOL    HW169529   5.892   5.040   0.525 -0.8623 -0.6977  0.9541
54522SOL    HW269530   5.814   4.944   0.438 -0.1805  0.6829 -1.2652
54523SOL     OW69531   8.212   0.260   2.476 -0.4209 -0.1838  0.3004
54523SOL    HW169532   8.166   0.290   2.555  0.0142  0.4914  0.3061
54523SOL    HW269533   8.227   0.167   2.491 -3.8167 -1.0201 -0.6810
54524SOL     OW69534  10.981   4.374   5.430  0.3617  0.4520 -0.1094
54524SOL    HW169535  11.070   4.356   5.399  0.3597 -0.2652  0.2776
54524SOL    HW269536  10.936   4.412   5.354 -0.2563 -3.0990 -1.7425
54525SOL     OW69537   5.869   7.660   1.585  0.2142  0.0407  0.1517
54525SOL    HW169538   5.932   7.644   1.656 -1.0545 -0.1799  1.2525
54525SOL    HW269539   5.887   7.591   1.521 -0.3156 -1.3644  1.4554
54526SOL     OW69540   9.222   8.725   5.691  0.1292  0.1986  0.5065
54526SOL    HW169541   9.239   8.701   5.600  0.1253  1.7308  0.0861
54526SOL    HW269542   9.258   8.813   5.700  2.9906 -1.0696  2.8647
54527SOL     OW69543   7.555   6.656   9.920  0.0860  0.1945  0.6626
54527SOL    HW169544   7.465   6.625   9.925 -0.0039  0.1771 -0.8321
54527SOL    HW269545   7.607   6.586   9.959 -0.4506 -0.1880  0.7012
54528SOL     OW69546   0.868   9.688   1.965  0.5715 -0.3921 -0.0115
54528SOL    HW169547   0.773   9.690   1.966  0.5148 -1.8896 -0.2368
54528SOL    HW269548   0.890   9.600   1.936  2.0166 -0.6691  1.7232
54529SOL     OW69549   0.455   0.859  11.220  0.0092 -0.2143  0.1588
54529SOL    HW169550   0.502   0.858  11.136  0.2890 -2.2549  0.2939
54529SOL    HW269551   0.524   0.859  11.286 -0.2165  0.8066  0.4173
54530SOL     OW69552   7.422   3.075   6.587  0.3736  0.4475  0.1701
54530SOL    HW169553   7.429   3.103   6.678 -0.4760 -0.3042  0.4810
54530SOL    HW269554   7.355   3.006   6.588  0.1844  0.5884 -1.0545
54531SOL     OW69555   5.028   1.776   1.480  0.2895 -0.0910 -0.1887
54531SOL    HW169556   4.995   1.686   1.480  3.7996 -1.5525 -1.2928
54531SOL    HW269557   5.055   1.792   1.571 -0.6348  0.0419  0.0800
54532SOL     OW69558   7.272   8.443   7.925  0.0278  0.9648  0.1329
54532SOL    HW169559   7.332   8.495   7.979  0.9693 -0.3245  0.3950
54532SOL    HW269560   7.215   8.399   7.988  1.5045 -1.0013  0.2142
54533SOL     OW69561   7.728  11.914  12.173  0.0486  0.2323 -0.3865
54533SOL    HW169562   7.667  11.964  12.120  1.0693  0.4043 -1.4445
54533SOL    HW269563   7.710  11.822  12.151 -0.8121  0.1975  0.4239
54534SOL     OW69564   3.377   1.015   0.552 -0.0487  0.1371 -0.5496
54534SOL    HW169565   3.373   1.035   0.646 -0.1208 -1.4669 -0.1806
54534SOL    HW269566   3.400   0.922   0.548 -1.8170 -0.3047 -2.0793
54535SOL     OW69567   6.423   2.974   2.857 -0.1265  0.3647  0.6197
54535SOL    HW169568   6.367   3.046   2.827  0.5093  0.4103 -0.5423
54535SOL    HW269569   6.365   2.899   2.864 -0.5107  0.6253  0.2789
54536SOL     OW69570   6.088   8.629   1.402  0.3142  0.0351  0.8790
54536SOL    HW169571   6.107   8.550   1.351  0.9648  0.1765  0.8909
54536SOL    HW269572   6.157   8.690   1.378 -0.8298  1.0393 -0.0043
54537SOL     OW69573   5.627   3.145  11.956  0.0244 -0.2924  0.1144
54537SOL    HW169574   5.607   3.200  12.031  0.3421 -0.6890  0.4947
54537SOL    HW269575   5.574   3.181  11.885 -0.0798  0.2445  0.4603
54538SOL     OW69576  11.040   5.580   4.123 -0.2392 -0.6359 -0.1435
54538SOL    HW169577  11.050   5.489   4.095  1.5582 -0.8031  0.9220
54538SOL    HW269578  10.994   5.575   4.206  0.9350 -0.6945  0.5256
54539SOL     OW69579  10.494   3.082   4.370 -0.2713 -0.7384  0.3187
54539SOL    HW169580  10.438   3.093   4.446 -0.6958  0.6003 -0.1564
54539SOL    HW269581  10.571   3.135   4.388 -1.3088  1.3845 -1.0267
54540SOL     OW69582   9.516   4.034  10.077 -0.0328  0.4200  0.1077
54540SOL    HW169583   9.454   4.093  10.032 -1.1503 -0.7394  0.0662
54540SOL    HW269584   9.460   3.967  10.116  1.2170 -0.7396 -0.0313
54541SOL     OW69585   4.215   1.933   7.457 -0.2711  0.0438  0.1782
54541SOL    HW169586   4.270   2.008   7.480  0.1415 -0.4415  0.8258
54541SOL    HW269587   4.214   1.932   7.361  2.0831 -0.7700  0.0933
54542SOL     OW69588   6.787   4.233   8.343  0.1810  0.1945 -0.3606
54542SOL    HW169589   6.808   4.184   8.422  0.0818  1.1000  0.2518
54542SOL    HW269590   6.842   4.195   8.274  0.3125 -0.5615  0.1547
54543SOL     OW69591   7.800   6.886   5.428  0.1935 -0.0652 -0.4396
54543SOL    HW169592   7.713   6.864   5.462  0.4386  0.5454  0.6541
54543SOL    HW269593   7.855   6.811   5.452  0.1171 -0.1527 -0.5355
54544SOL     OW69594   4.160   8.952   7.630 -0.3750 -0.0582 -0.0518
54544SOL    HW169595   4.082   8.913   7.670  0.0090 -0.9626 -0.1799
54544SOL    HW269596   4.149   9.046   7.645  0.0590 -0.3687  2.7840
54545SOL     OW69597  10.283  11.618   9.357  0.0423 -0.4015  0.6061
54545SOL    HW169598  10.311  11.606   9.448  2.3821 -1.1958 -0.1439
54545SOL    HW269599  10.355  11.666   9.315 -2.1746  2.5257 -0.2704
54546SOL     OW69600   7.355   4.196   1.094 -0.0915  0.2698 -0.9403
54546SOL    HW169601   7.423   4.188   1.027  1.4732  2.0623  0.3441
54546SOL    HW269602   7.276   4.161   1.052  1.3358 -0.8312 -2.8775
54547SOL     OW69603  10.904   8.241   6.262  0.3174  0.1447  0.2020
54547SOL    HW169604  10.893   8.266   6.170 -0.0292  1.2783  0.5245
54547SOL    HW269605  10.998   8.228   6.273  0.1849 -2.0772 -0.7874
54548SOL     OW69606   7.381   8.736   8.112 -0.5106  0.0814  0.0627
54548SOL    HW169607   7.472   8.720   8.086 -0.7936 -0.6592 -0.4928
54548SOL    HW269608   7.385   8.749   8.207  0.2684  0.8106 -0.0563
54549SOL     OW69609   1.174  12.448   5.907 -0.5187 -0.0242 -0.0998
54549SOL    HW169610   1.222  12.429   5.827  1.4207 -2.2519  1.4492
54549SOL    HW269611   1.185  12.542   5.920  1.9157 -0.1328 -0.8381
54550SOL     OW69612   3.740   7.342   4.109 -0.2871 -0.2128  0.0901
54550SOL    HW169613   3.785   7.319   4.028 -1.2930 -1.6540 -0.1118
54550SOL    HW269614   3.806   7.385   4.162  0.5990  0.0620 -1.1916
54551SOL     OW69615   3.790   0.041   6.467 -0.0299  0.3087 -0.1620
54551SOL    HW169616   3.735  -0.021   6.514 -1.1705  2.2313  1.1936
54551SOL    HW269617   3.745   0.125   6.475  3.3234  2.1895  1.5759
54552SOL     OW69618   8.281   2.611  10.695 -0.1534 -0.4122  0.4558
54552SOL    HW169619   8.191   2.630  10.722 -1.7061 -3.9533 -1.4763
54552SOL    HW269620   8.305   2.535  10.748  1.1448 -0.4214 -0.1247
54553SOL     OW69621   0.789   2.242   0.640  0.1514  0.2050 -0.0148
54553SOL    HW169622   0.820   2.163   0.597 -0.8824  0.3587 -1.1078
54553SOL    HW269623   0.696   2.247   0.616 -0.1158  1.0375  1.1296
54554SOL     OW69624   5.486  12.136   4.508 -0.8056 -0.1287 -0.4254
54554SOL    HW169625   5.489  12.187   4.589  0.3408 -1.0037  0.0997
54554SOL    HW269626   5.425  12.064   4.527 -0.5097 -0.3539 -0.3196
54555SOL     OW69627   0.032   4.219   6.492  0.0400 -0.0014 -0.3598
54555SOL    HW169628   0.030   4.187   6.402 -0.3017  1.5044 -0.9137
54555SOL    HW269629  -0.016   4.153   6.542 -2.4605  0.6084 -1.7847
54556SOL     OW69630   9.277   9.546   1.203 -0.0845  0.3385  0.1912
54556SOL    HW169631   9.191   9.509   1.224 -0.3073  0.5927 -0.2653
54556SOL    HW269632   9.337   9.501   1.262  0.0455 -2.5293 -1.9280
54557SOL     OW69633  10.555   0.560   5.283  0.5385 -0.4033 -0.0202
54557SOL    HW169634  10.549   0.593   5.194 -3.0505 -0.8535 -0.1097
54557SOL    HW269635  10.530   0.468   5.276 -0.8354 -0.1973  1.4975
54558SOL     OW69636  12.395  11.970  12.351  0.0851  0.2074  0.1131
54558SOL    HW169637  12.471  12.021  12.378  0.8874  0.1225 -1.8543
54558SOL    HW269638  12.350  12.026  12.288  0.2943 -0.9800 -1.1383
54559SOL     OW69639   4.926   8.852   4.559 -0.2777 -0.8560 -0.5815
54559SOL    HW169640   4.944   8.760   4.578  0.1203 -0.3777  1.6153
54559SOL    HW269641   5.012   8.892   4.548 -0.3633 -0.4316  0.2128
54560SOL     OW69642   5.553  11.209   8.043 -1.1714  0.7043  0.0247
54560SOL    HW169643   5.599  11.132   8.010 -0.7838  0.8548  0.2109
54560SOL    HW269644   5.600  11.283   8.005  0.2661  0.9452  2.1128
54561SOL     OW69645   2.901   4.723  11.728 -0.2455  0.2122 -0.3250
54561SOL    HW169646   2.982   4.684  11.697 -0.5364  0.2489 -1.1732
54561SOL    HW269647   2.844   4.648  11.748  0.5678  0.1352  1.9769
54562SOL     OW69648   1.982   6.839  10.896  0.0376  0.2966 -0.2235
54562SOL    HW169649   2.073   6.816  10.877  0.4784  1.2597  0.5905
54562SOL    HW269650   1.939   6.755  10.911  0.9416 -0.1505 -0.0246
54563SOL     OW69651   4.374  10.986   4.365 -0.4559  0.2486  0.1299
54563SOL    HW169652   4.386  11.072   4.406 -0.0708 -0.1436  0.8649
54563SOL    HW269653   4.383  11.003   4.271 -4.3536  1.7022 -0.1686
54564SOL     OW69654   9.726  11.468   1.748  0.1403  0.7046  0.1928
54564SOL    HW169655   9.707  11.513   1.831 -2.6934  0.7905 -0.3955
54564SOL    HW269656   9.788  11.400   1.772 -1.8838 -0.3886  2.8167
54565SOL     OW69657  11.441   2.752   4.381  0.7538 -0.5022  0.2561
54565SOL    HW169658  11.385   2.783   4.310 -1.2686 -0.0325  1.9670
54565SOL    HW269659  11.421   2.658   4.388 -0.5887 -0.1549  1.4673
54566SOL     OW69660   3.812   1.446   5.557  0.0439 -0.4325 -0.5557
54566SOL    HW169661   3.828   1.357   5.527 -1.1259 -0.5684 -0.7946
54566SOL    HW269662   3.824   1.442   5.652  0.3964 -0.7428 -0.6099
54567SOL     OW69663   0.846   1.928  10.393  0.1731  0.3555  0.1033
54567SOL    HW169664   0.854   1.911  10.299 -0.3077  0.6741 -0.0002
54567SOL    HW269665   0.889   1.854  10.435 -0.8088 -0.4932 -0.3458
54568SOL     OW69666   3.279   1.403   6.052 -0.0148 -0.2251 -0.1165
54568SOL    HW169667   3.344   1.344   6.091  0.1126  0.3377  0.5497
54568SOL    HW269668   3.260   1.365   5.967 -1.5720 -2.4843  1.1153
54569SOL     OW69669  10.995   2.716   8.008  1.0035  0.1327  0.3297
54569SOL    HW169670  11.088   2.713   7.986  1.1140 -0.3348  0.8369
54569SOL    HW269671  10.992   2.748   8.098  0.8239 -1.8063  1.0665
54570SOL     OW69672   1.050   2.698   0.361 -0.3648 -0.0377 -0.1524
54570SOL    HW169673   1.087   2.779   0.327 -0.2203 -0.5198 -1.1913
54570SOL    HW269674   0.960   2.721   0.385  0.2789  0.8948  1.4466
54571SOL     OW69675   4.860   3.558   0.550  0.0317  0.2236 -0.1502
54571SOL    HW169676   4.898   3.482   0.506 -0.9138 -0.3107 -0.0726
54571SOL    HW269677   4.876   3.543   0.643 -0.3648 -0.0188 -0.1149
54572SOL     OW69678  11.987   0.294   9.349 -0.4587  0.1524 -0.0813
54572SOL    HW169679  12.058   0.255   9.400  1.0179 -1.4264 -3.1052
54572SOL    HW269680  12.007   0.387   9.345  1.8462 -0.3437 -1.3515
54573SOL     OW69681  11.006   5.416   0.148 -0.0688  0.4059 -0.3742
54573SOL    HW169682  10.915   5.393   0.128 -0.7984  2.1703  0.6407
54573SOL    HW269683  11.057   5.379   0.076 -1.2394 -2.7835  0.2804
54574SOL     OW69684   5.231   3.193   5.418  0.2833  0.0923 -0.2223
54574SOL    HW169685   5.243   3.267   5.478 -0.4310 -0.1336  0.2118
54574SOL    HW269686   5.287   3.213   5.343 -1.4744  2.1082 -1.0761
54575SOL     OW69687   0.475   8.986   8.146  0.1985 -0.0400 -0.3401
54575SOL    HW169688   0.392   8.951   8.114  1.5367 -2.3688 -1.4972
54575SOL    HW269689   0.517   9.023   8.069  0.6839  0.1824  0.0269
54576SOL     OW69690   6.605   5.321   3.400 -0.3023  0.5415  0.3744
54576SOL    HW169691   6.587   5.384   3.330 -3.2800 -1.5457 -0.9325
54576SOL    HW269692   6.534   5.257   3.395  0.8457 -1.2593  3.6078
54577SOL     OW69693   8.827   2.262   4.495 -0.1106 -0.2299  0.5342
54577SOL    HW169694   8.768   2.232   4.564  0.8568 -1.7016  0.7750
54577SOL    HW269695   8.895   2.194   4.491  0.9850  0.8847 -0.4445
54578SOL     OW69696   6.476   4.136   3.395  0.5372  0.8646  0.5184
54578SOL    HW169697   6.522   4.153   3.477  0.4056  2.1777  0.3359
54578SOL    HW269698   6.525   4.184   3.328  0.6090 -0.1345 -0.1790
54579SOL     OW69699   3.629   2.653  11.409  0.4233 -0.0587 -0.0693
54579SOL    HW169700   3.614   2.603  11.329  1.2989 -0.3719 -0.0530
54579SOL    HW269701   3.562   2.622  11.470 -1.4470  1.5069 -1.2282
54580SOL     OW69702   1.373   7.709   3.993  0.2512 -0.0080  0.0170
54580SOL    HW169703   1.463   7.678   3.985  0.3833  0.6397 -1.2039
54580SOL    HW269704   1.335   7.696   3.906  0.0086  2.2825 -0.2696
54581SOL     OW69705   5.452   6.460  11.238 -0.7523 -0.4377 -0.1530
54581SOL    HW169706   5.460   6.369  11.208 -0.8046 -0.0394 -1.4127
54581SOL    HW269707   5.501   6.511  11.174 -2.4075  0.6327 -0.6228
54582SOL     OW69708   6.223  11.110   4.671  0.2398 -0.3002  0.3924
54582SOL    HW169709   6.173  11.182   4.710  0.2700 -0.1075  0.0735
54582SOL    HW269710   6.160  11.065   4.615 -0.1175 -1.2828  1.5546
54583SOL     OW69711   9.390   0.378   2.092 -0.2001 -0.1320  0.7392
54583SOL    HW169712   9.371   0.285   2.099 -1.4955  0.0315 -0.2502
54583SOL    HW269713   9.336   0.408   2.019 -1.0945  1.7250  2.0951
54584SOL     OW69714   8.327   2.008   6.759 -0.0743 -0.0905  0.7317
54584SOL    HW169715   8.275   2.005   6.679 -0.0363 -0.2487  0.7124
54584SOL    HW269716   8.281   1.950   6.820  0.6054 -0.9991  0.3998
54585SOL     OW69717   3.788   2.803   9.588  0.4376  0.0520  0.1840
54585SOL    HW169718   3.863   2.810   9.648 -2.0011  0.0817  3.5041
54585SOL    HW269719   3.753   2.891   9.582 -0.4442 -0.2833  0.2603
54586SOL     OW69720   6.324   6.771  10.091  0.4528  0.7202 -0.0261
54586SOL    HW169721   6.262   6.811  10.030 -0.4894  0.5722  0.8237
54586SOL    HW269722   6.339   6.683  10.055 -1.0103  0.2093  0.5776
54587SOL     OW69723   5.541   4.974  10.679  0.7454  0.1701 -0.2637
54587SOL    HW169724   5.633   4.957  10.660  0.8067  0.5935 -0.3498
54587SOL    HW269725   5.501   4.986  10.593  0.6175  0.0226 -0.2241
54588SOL     OW69726   3.344   4.158   7.009  0.1126  0.0058 -0.1550
54588SOL    HW169727   3.432   4.176   7.043  0.0443  0.0284  0.0121
54588SOL    HW269728   3.359   4.112   6.927  0.3129  1.9591 -1.2812
54589SOL     OW69729   1.018  11.700   9.872  0.3126 -0.4408 -0.5706
54589SOL    HW169730   1.064  11.709   9.955  0.7658 -2.0137 -0.6231
54589SOL    HW269731   1.058  11.764   9.815 -0.3089  0.9828  0.5314
54590SOL     OW69732   0.266   1.928  12.450 -0.2577  0.1428 -0.0594
54590SOL    HW169733   0.344   1.946  12.502 -0.6438  0.7218  0.3263
54590SOL    HW269734   0.242   2.013  12.412 -0.7188 -0.0240 -0.1512
54591SOL     OW69735   7.235   6.339   1.520 -0.3303  0.2021 -0.0198
54591SOL    HW169736   7.287   6.393   1.580 -0.7153 -0.3937  0.8805
54591SOL    HW269737   7.299   6.292   1.467  0.0365  0.2617  0.3672
54592SOL     OW69738   0.820   2.198  10.010 -0.5304 -0.3288 -0.5270
54592SOL    HW169739   0.778   2.202  10.096  0.6968  2.9684  0.1035
54592SOL    HW269740   0.893   2.138  10.022 -0.8271 -0.4992  0.5231
54593SOL     OW69741   3.451  12.391   2.259 -0.0608 -0.0391  0.0858
54593SOL    HW169742   3.427  12.475   2.220  0.5586  0.1228  0.0516
54593SOL    HW269743   3.541  12.376   2.231 -0.3921 -1.0505 -0.4820
54594SOL     OW69744  12.050   1.837  11.337 -0.2757  0.2920 -0.2494
54594SOL    HW169745  12.101   1.756  11.343 -1.0580 -0.1615  0.4432
54594SOL    HW269746  11.961   1.808  11.320 -0.8267  0.9117  1.3672
54595SOL     OW69747   5.213   4.672   1.790 -0.4226 -0.3871 -0.1966
54595SOL    HW169748   5.130   4.624   1.797 -0.9574  0.5986  0.5600
54595SOL    HW269749   5.276   4.618   1.838 -0.3847 -1.6099 -1.5739
54596SOL     OW69750   4.211   6.254  10.693  0.4998 -0.6446 -0.0377
54596SOL    HW169751   4.228   6.227  10.783 -1.0705 -0.4196  0.3653
54596SOL    HW269752   4.183   6.346  10.700  0.4963 -0.5845 -0.7636
54597SOL     OW69753   3.929   3.244   7.872 -0.1062 -0.3311 -0.3919
54597SOL    HW169754   4.001   3.181   7.879  1.0011  0.7870 -1.3426
54597SOL    HW269755   3.943   3.288   7.788 -1.1714  0.7872 -0.0131
54598SOL     OW69756   3.219   3.985   2.010 -0.4446  0.0677  0.3202
54598SOL    HW169757   3.132   3.944   2.012 -1.2630  1.7132  0.7984
54598SOL    HW269758   3.243   3.987   1.918 -0.9080 -0.4341  0.1843
54599SOL     OW69759   7.499  11.228   4.764  0.2470  0.3988  0.4035
54599SOL    HW169760   7.494  11.266   4.851 -0.3993 -0.1938  0.6393
54599SOL    HW269761   7.416  11.254   4.722  0.9249  1.4145 -0.3513
54600SOL     OW69762   9.107  11.117   4.048  0.3276 -0.3331  0.2958
54600SOL    HW169763   9.179  11.086   4.104  1.6988  0.1546 -1.1457
54600SOL    HW269764   9.127  11.082   3.961  0.0761  1.7151 -0.6266
54601SOL     OW69765   8.507   1.942  12.215 -0.1456 -0.4622 -0.0505
54601SOL    HW169766   8.419   1.928  12.249 -1.1849  2.3695 -1.1818
54601SOL    HW269767   8.501   2.027  12.170  2.3993 -1.5183 -2.7126
54602SOL     OW69768  12.133  12.305   3.098 -0.5094 -0.0900 -0.1498
54602SOL    HW169769  12.146  12.332   3.007  1.9638 -0.9291 -0.1013
54602SOL    HW269770  12.180  12.370   3.149  1.1872 -1.5935  0.2725
54603SOL     OW69771   2.284   2.887   9.236 -0.0571 -0.3116  0.0411
54603SOL    HW169772   2.307   2.924   9.321 -2.2013  0.0053  0.5489
54603SOL    HW269773   2.289   2.792   9.248  1.9589 -0.2637 -0.2080
54604SOL     OW69774   6.917   7.575   8.505 -0.1268  0.2943 -0.1471
54604SOL    HW169775   6.844   7.566   8.444  0.8343  1.1113 -1.4894
54604SOL    HW269776   6.903   7.659   8.548 -0.4476  0.0243  0.2909
54605SOL     OW69777   0.081   3.038   5.974  0.9128  0.0196 -0.1355
54605SOL    HW169778   0.061   2.999   5.889 -0.8502 -1.0755  0.7418
54605SOL    HW269779   0.073   2.967   6.037  3.9896  0.3713  0.8301
54606SOL     OW69780   6.471  11.583   0.940 -0.6467  0.1752 -0.0762
54606SOL    HW169781   6.455  11.647   1.009  0.5999  1.1506 -0.6463
54606SOL    HW269782   6.422  11.616   0.864 -2.1463 -0.9792  0.3528
54607SOL     OW69783  12.328   8.351   4.274 -0.2032 -0.1620 -0.4650
54607SOL    HW169784  12.416   8.367   4.307 -0.3280 -0.9013  0.2453
54607SOL    HW269785  12.278   8.428   4.301  0.1540  0.1382 -0.6463
54608SOL     OW69786   1.448  10.262   9.433  0.4431 -0.1711 -0.5732
54608SOL    HW169787   1.370  10.261   9.489 -0.8921 -1.4401 -2.3452
54608SOL    HW269788   1.510  10.205   9.478  0.7604  1.4927  1.2835
54609SOL     OW69789   5.638   0.535   7.534  0.7248 -0.5282 -0.2179
54609SOL    HW169790   5.673   0.551   7.622 -0.3421 -1.5151  0.4217
54609SOL    HW269791   5.714   0.511   7.481  1.4307  0.4152  0.3330
54610SOL     OW69792   4.605   0.366   2.826  0.1795 -0.3135 -0.4047
54610SOL    HW169793   4.650   0.446   2.854 -0.4702  0.2785 -1.0271
54610SOL    HW269794   4.622   0.304   2.896  0.6887  0.3723  0.0948
54611SOL     OW69795   6.753   5.715   7.312 -0.6818 -0.1748  0.0644
54611SOL    HW169796   6.749   5.710   7.407 -0.4081 -1.4342  0.0205
54611SOL    HW269797   6.768   5.625   7.283 -0.8082  0.1789 -1.1731
54612SOL     OW69798   9.164   0.861   0.333 -0.6364 -0.3409 -0.1081
54612SOL    HW169799   9.133   0.846   0.244  0.0446  0.5992 -0.5199
54612SOL    HW269800   9.135   0.950   0.355  0.7052  0.1129 -0.0689
54613SOL     OW69801   7.748   2.740   1.439 -0.3517  0.2435  0.0764
54613SOL    HW169802   7.713   2.818   1.483  0.7323  1.4769 -1.1732
54613SOL    HW269803   7.802   2.698   1.506 -0.0618  1.1654  0.4408
54614SOL     OW69804   5.250  12.408   2.860 -0.2313  0.2888  0.3450
54614SOL    HW169805   5.321  12.370   2.809 -0.0926  2.0291 -0.8730
54614SOL    HW269806   5.293  12.476   2.913 -0.8406  0.7290  0.2856
54615SOL     OW69807   5.231   4.620   0.022  0.0003  0.2492 -0.4352
54615SOL    HW169808   5.141   4.650   0.035 -0.2463  0.2249 -1.9052
54615SOL    HW269809   5.243   4.550   0.086 -0.9987  0.3090 -0.1632
54616SOL     OW69810   4.589   9.738   0.856 -0.1403  0.2803 -0.5654
54616SOL    HW169811   4.563   9.827   0.834  0.2574  1.3029  2.5623
54616SOL    HW269812   4.670   9.749   0.906  0.0579 -1.8615 -0.3306
54617SOL     OW69813   1.921   4.586   7.607  1.0430 -0.1996 -0.5894
54617SOL    HW169814   1.866   4.658   7.637  2.1042  0.6348 -0.5741
54617SOL    HW269815   1.940   4.535   7.686 -2.3399 -2.4859 -1.0228
54618SOL     OW69816   3.353   6.567   6.778 -0.4672 -0.2525 -0.1030
54618SOL    HW169817   3.360   6.490   6.723 -0.2703  0.0921 -0.5643
54618SOL    HW269818   3.271   6.554   6.826 -1.4791  0.1750 -1.6285
54619SOL     OW69819   8.745   6.732   6.165  0.2368 -0.1741 -0.1928
54619SOL    HW169820   8.675   6.789   6.135 -0.9096 -0.5196  1.6286
54619SOL    HW269821   8.722   6.645   6.133  0.5629 -0.0690 -0.7229
54620SOL     OW69822   5.388   7.118   4.583 -0.0146  0.5712 -0.7330
54620SOL    HW169823   5.304   7.112   4.538 -1.0039  1.1943  0.9225
54620SOL    HW269824   5.451   7.140   4.515 -0.9100 -1.3075 -2.2828
54621SOL     OW69825   5.254   6.214   4.275  0.2744 -0.4958  0.7538
54621SOL    HW169826   5.302   6.132   4.264 -0.0419 -0.5834 -0.0231
54621SOL    HW269827   5.169   6.188   4.310  0.2331 -0.4783  0.6647
54622SOL     OW69828   1.717   7.041   5.805  0.8908 -0.0113 -0.5938
54622SOL    HW169829   1.804   7.001   5.808  1.2630  0.7674  2.0741
54622SOL    HW269830   1.665   6.990   5.868 -0.7522 -0.6909 -2.3974
54623SOL     OW69831   9.157   6.074   3.957  0.0630 -0.3201 -0.1418
54623SOL    HW169832   9.242   6.101   3.991 -0.4603  1.2607 -0.0296
54623SOL    HW269833   9.142   5.987   3.996  1.6254 -0.6485 -0.2098
54624SOL     OW69834   1.987   3.731   0.795 -0.1046  0.1585  0.3443
54624SOL    HW169835   1.931   3.759   0.722 -0.7166  0.6383  0.9849
54624SOL    HW269836   2.035   3.809   0.820 -0.6783  0.2665  1.1375
54625SOL     OW69837  10.458   3.666   4.150  0.6307 -0.2868 -0.6727
54625SOL    HW169838  10.497   3.733   4.206  1.5759 -1.7147  0.4265
54625SOL    HW269839  10.487   3.690   4.062  1.6243  0.3088 -0.2037
54626SOL     OW69840   9.506   2.246   4.021 -0.6434  0.3355 -0.0560
54626SOL    HW169841   9.479   2.297   4.098 -0.3770  0.9344 -0.3567
54626SOL    HW269842   9.578   2.296   3.983 -2.8260  1.7895 -2.5587
54627SOL     OW69843   3.051   9.509   3.751  0.0980 -0.5445 -0.1202
54627SOL    HW169844   2.970   9.560   3.755  0.5294  0.9102 -4.4682
54627SOL    HW269845   3.113   9.558   3.805 -1.6146 -1.4121  2.8677
54628SOL     OW69846   8.769   0.494  11.025 -0.3143 -0.1204 -1.0599
54628SOL    HW169847   8.793   0.410  10.987  0.5798  0.3950 -1.6788
54628SOL    HW269848   8.685   0.516  10.985 -2.0390 -1.9970  1.2021
54629SOL     OW69849   5.377   0.202   9.666 -0.4062 -0.2569  0.0702
54629SOL    HW169850   5.394   0.170   9.577 -2.6284 -0.6973 -0.2340
54629SOL    HW269851   5.346   0.292   9.653 -0.2808 -0.1540  0.4638
54630SOL     OW69852   0.334   3.755   2.501 -0.1494  0.6040 -0.3733
54630SOL    HW169853   0.261   3.767   2.563  0.0511  0.7587 -0.1636
54630SOL    HW269854   0.395   3.825   2.523  1.0568 -0.7675  0.8677
54631SOL     OW69855   1.850   9.654  11.835 -0.2526 -0.1785  0.1109
54631SOL    HW169856   1.771   9.625  11.790 -1.0355  1.5406  0.2883
54631SOL    HW269857   1.827   9.654  11.928  0.3351 -0.7385  0.2658
54632SOL     OW69858   4.946   8.624  11.721  0.1235 -0.4574  0.3868
54632SOL    HW169859   4.955   8.538  11.681  1.4827  0.4330 -1.3285
54632SOL    HW269860   4.926   8.683  11.649  0.3692  0.8656  1.3568
54633SOL     OW69861   9.748   1.354   5.237  0.3597 -0.2397 -0.0976
54633SOL    HW169862   9.662   1.356   5.196  1.2274  1.1346 -2.0446
54633SOL    HW269863   9.746   1.424   5.302 -0.3429 -0.9904  0.7041
54634SOL     OW69864  11.538   5.730  10.370  0.0501  0.5025  0.7090
54634SOL    HW169865  11.544   5.760  10.280 -0.6114 -0.2955  0.3813
54634SOL    HW269866  11.502   5.642  10.363  1.3418 -0.1417  1.6612
54635SOL     OW69867   8.074   7.801   3.651  0.1725 -0.0884 -0.1901
54635SOL    HW169868   8.121   7.789   3.568  0.9925 -1.3684  0.4227
54635SOL    HW269869   8.143   7.798   3.717 -0.5105  0.6259  0.5577
54636SOL     OW69870  11.821   5.348   0.455 -0.1616  0.4345  0.7732
54636SOL    HW169871  11.797   5.258   0.475  1.0614 -0.1021 -0.0616
54636SOL    HW269872  11.756   5.401   0.501 -0.8735 -0.8637  1.3103
54637SOL     OW69873   3.736   6.406   6.099 -0.0571  0.3722 -0.0564
54637SOL    HW169874   3.685   6.389   6.019 -1.2241 -1.3637  0.9800
54637SOL    HW269875   3.751   6.319   6.136  2.8722  0.9204  0.2240
54638SOL     OW69876   0.178   9.043  11.312  0.0382 -0.0450 -0.3344
54638SOL    HW169877   0.217   9.130  11.310  1.5579 -0.6862 -0.4529
54638SOL    HW269878   0.096   9.051  11.263  0.2591  1.2619 -0.5078
54639SOL     OW69879   9.950   5.021   7.670 -0.4081  0.0184 -0.2066
54639SOL    HW169880   9.951   5.058   7.582 -1.4911  2.1702  0.6251
54639SOL    HW269881   9.884   4.951   7.666 -0.7699  0.3912 -0.9898
54640SOL     OW69882  11.820   6.588   0.901 -0.1769 -0.3437  0.2647
54640SOL    HW169883  11.751   6.646   0.931 -0.5289 -1.0112  0.7719
54640SOL    HW269884  11.876   6.576   0.978  0.9050  0.7253 -0.3143
54641SOL     OW69885   7.712   0.376   9.569  0.1056 -0.0936 -0.3374
54641SOL    HW169886   7.714   0.365   9.474  3.1816  0.7840 -0.5044
54641SOL    HW269887   7.792   0.426   9.589 -0.7603  0.3073  2.6556
54642SOL     OW69888   6.609  12.342  11.314 -0.2069  0.2150 -0.6338
54642SOL    HW169889   6.702  12.323  11.297  0.0353  1.3313 -0.6330
54642SOL    HW269890   6.574  12.367  11.229 -0.8079 -1.3186 -0.8586
54643SOL     OW69891   5.947   6.746   0.880 -0.5873 -0.1470  0.1192
54643SOL    HW169892   5.977   6.677   0.821  0.1745  1.0549 -0.9727
54643SOL    HW269893   5.853   6.730   0.891 -0.4054 -1.3724 -0.0510
54644SOL     OW69894   4.702   5.194   5.226 -0.0189 -0.2924  0.0522
54644SOL    HW169895   4.769   5.193   5.157 -0.1123  1.6942 -0.1382
54644SOL    HW269896   4.624   5.231   5.183 -0.5409 -0.4434  0.8391
54645SOL     OW69897   1.175   4.794  12.228 -0.4680  0.4465 -0.0979
54645SOL    HW169898   1.227   4.731  12.179 -1.1049 -1.1891  1.2482
54645SOL    HW269899   1.238   4.859  12.258  0.4356 -0.3320 -0.2884
54646SOL     OW69900   5.183   6.589   0.047 -0.0509 -0.2265  0.0839
54646SOL    HW169901   5.203   6.497   0.031 -2.5647 -0.7306 -0.6281
54646SOL    HW269902   5.265   6.635   0.029  1.6014 -2.3813  1.5495
54647SOL     OW69903   4.105  10.353   7.483  0.3725 -0.6356  0.2563
54647SOL    HW169904   4.175  10.299   7.446  0.2141 -0.5424 -0.1817
54647SOL    HW269905   4.063  10.393   7.407  0.1427 -0.3213  0.5467
54648SOL     OW69906   9.428   3.630   4.482  0.4312  0.2252  0.7291
54648SOL    HW169907   9.493   3.575   4.438  0.0009  1.3741 -1.5228
54648SOL    HW269908   9.472   3.715   4.492 -0.2560  0.6312  0.3824
54649SOL     OW69909   5.107  10.996   5.588 -0.1341 -0.0278 -0.0225
54649SOL    HW169910   5.037  11.052   5.621  0.5954 -0.3367  2.2345
54649SOL    HW269911   5.187  11.050   5.596 -0.0139  0.2659 -2.4085
54650SOL     OW69912   9.844   0.139   2.834  0.0597 -0.4955  0.1355
54650SOL    HW169913   9.859   0.222   2.880  0.5092 -1.2792  1.4771
54650SOL    HW269914   9.908   0.079   2.873  1.6389 -0.8401 -2.6668
54651SOL     OW69915   3.979   4.189   4.808 -0.3205  0.0302  0.4555
54651SOL    HW169916   4.001   4.097   4.815  0.5941  0.2780  0.9759
54651SOL    HW269917   3.912   4.203   4.875 -0.4074 -0.2357  0.4243
54652SOL     OW69918   0.992   9.345  11.953 -0.0921 -0.0420  0.2956
54652SOL    HW169919   0.991   9.440  11.945 -0.4037 -0.1428 -1.2209
54652SOL    HW269920   0.929   9.326  12.023 -3.7120  0.7258 -2.4272
54653SOL     OW69921   7.794   7.885   7.254  0.2042  0.0811 -0.1017
54653SOL    HW169922   7.809   7.974   7.223 -1.8982 -0.0727 -1.7991
54653SOL    HW269923   7.874   7.838   7.231  2.1293  1.7802  2.4121
54654SOL     OW69924   2.863  10.198   5.336 -0.1995 -0.1444 -0.1882
54654SOL    HW169925   2.956  10.209   5.316  0.0437 -1.5591  0.0057
54654SOL    HW269926   2.850  10.251   5.415  0.6405 -0.5324  0.2348
54655SOL     OW69927   9.646   2.028   4.624 -0.1529  0.0770 -0.4463
54655SOL    HW169928   9.623   1.942   4.590 -1.2686 -0.0447  0.5567
54655SOL    HW269929   9.742   2.029   4.625 -0.1194 -0.7858 -1.3314
54656SOL     OW69930   9.353   0.177  12.348 -0.1584 -0.8334  0.0409
54656SOL    HW169931   9.309   0.237  12.288  0.1580 -3.2857 -2.8387
54656SOL    HW269932   9.435   0.222  12.370 -1.3123  1.1177  0.6052
54657SOL     OW69933   4.907   2.675   7.626  0.1879  0.3097  0.2364
54657SOL    HW169934   4.971   2.692   7.695  0.4113 -0.7528  0.3085
54657SOL    HW269935   4.869   2.591   7.650 -1.3843  1.0067  0.2991
54658SOL     OW69936   4.056  11.169  12.361 -0.1896 -0.3978  0.0932
54658SOL    HW169937   4.132  11.224  12.382  0.2047 -0.1745 -1.6858
54658SOL    HW269938   3.987  11.231  12.338 -0.9512 -0.6023  1.7350
54659SOL     OW69939  11.208  10.250   3.349  0.1845  0.0930 -0.5496
54659SOL    HW169940  11.207  10.297   3.433  2.1515 -0.2244 -0.2967
54659SOL    HW269941  11.169  10.311   3.287 -0.9550  0.4847  0.5190
54660SOL     OW69942  10.419   1.012   1.198 -0.1244 -0.2066  0.2853
54660SOL    HW169943  10.328   0.985   1.185 -1.1703  3.3912 -0.9569
54660SOL    HW269944  10.467   0.962   1.132 -1.2210 -1.8516  0.6669
54661SOL     OW69945  10.602   3.924   0.680 -0.0735  0.1558  0.4528
54661SOL    HW169946  10.601   3.919   0.775  1.6496 -0.3515  0.4630
54661SOL    HW269947  10.523   3.876   0.653  0.0076 -0.6434  1.5842
54662SOL     OW69948   5.218   2.993  10.421  0.2335  0.3181  0.9916
54662SOL    HW169949   5.163   3.020  10.347 -1.6240 -0.1499  2.1260
54662SOL    HW269950   5.194   2.901  10.436  0.4214  0.4562  2.2718
54663SOL     OW69951   8.446   1.505   2.539  0.3622 -0.1154 -0.7457
54663SOL    HW169952   8.450   1.501   2.635 -0.3932  0.0194 -0.7078
54663SOL    HW269953   8.439   1.413   2.511  1.6311 -0.2343 -0.7295
54664SOL     OW69954  10.448   8.708   5.517  0.3115  0.2117  0.1045
54664SOL    HW169955  10.457   8.663   5.433  0.7502 -0.4885  0.5060
54664SOL    HW269956  10.500   8.787   5.507  0.1253  0.2788 -0.3780
54665SOL     OW69957   8.012  11.087   2.540  0.3865 -0.3945  0.3314
54665SOL    HW169958   7.943  11.073   2.475 -0.1527  2.1944  0.2591
54665SOL    HW269959   8.078  11.140   2.494  0.0445  1.4076  1.8114
54666SOL     OW69960  12.376   7.692   7.091 -0.3611  0.7320  0.5818
54666SOL    HW169961  12.391   7.773   7.139  1.0915 -0.9490  3.2545
54666SOL    HW269962  12.435   7.628   7.132 -1.5741 -1.7449 -1.2194
54667SOL     OW69963   6.005   1.340   7.779  0.1428  0.2558 -0.1229
54667SOL    HW169964   5.953   1.368   7.703 -0.6052  0.6345  0.5179
54667SOL    HW269965   6.039   1.422   7.816  1.6427 -0.0150 -0.8229
54668SOL     OW69966   8.902   2.518  12.400 -0.2037  0.9986 -0.0757
54668SOL    HW169967   8.943   2.605  12.403 -1.3557  1.7394 -2.6982
54668SOL    HW269968   8.970   2.461  12.364 -0.3225  1.4613 -1.0689
54669SOL     OW69969  12.010   8.240   7.428  0.0177 -0.9132 -0.1296
54669SOL    HW169970  12.056   8.287   7.359 -0.7527 -1.0868 -0.7784
54669SOL    HW269971  12.035   8.148   7.417 -0.1572 -0.9508 -0.2319
54670SOL     OW69972  10.928   9.907   1.935 -0.0964  0.7566 -0.1812
54670SOL    HW169973  10.961   9.870   1.854 -0.9698  0.8953 -0.6178
54670SOL    HW269974  10.835   9.922   1.918 -0.2517  0.9556  0.7840
54671SOL     OW69975  11.805   6.165   9.140 -0.0620 -0.0120 -0.2579
54671SOL    HW169976  11.830   6.159   9.233 -1.6632 -0.9908  0.1433
54671SOL    HW269977  11.858   6.237   9.106  0.8180  0.1376  1.3263
54672SOL     OW69978   1.824   4.010   2.985  0.0210 -0.8542  1.0719
54672SOL    HW169979   1.736   3.976   2.973 -0.1913  0.5453 -2.2729
54672SOL    HW269980   1.818   4.066   3.063 -2.3085 -0.0297  0.3566
54673SOL     OW69981  11.270  11.446   6.745  0.1232 -0.1215 -0.9527
54673SOL    HW169982  11.185  11.470   6.707 -0.1191  0.1208 -0.2662
54673SOL    HW269983  11.258  11.357   6.777 -0.2263  0.3020  0.1446
54674SOL     OW69984  10.284  10.892   8.738  0.2779 -0.0229  0.0884
54674SOL    HW169985  10.367  10.844   8.731  1.3531  1.7140  0.3276
54674SOL    HW269986  10.264  10.891   8.832  0.2590 -0.0952  0.0836
54675SOL     OW69987  12.315   2.838   3.071 -0.4008  0.2423  0.4181
54675SOL    HW169988  12.312   2.905   3.140 -1.1524  0.4180  0.2234
54675SOL    HW269989  12.240   2.781   3.090 -0.4846  0.1672 -0.1382
54676SOL     OW69990   9.999   1.250   0.181 -0.4739  0.3375  0.0279
54676SOL    HW169991   9.905   1.265   0.192 -0.3187  1.2466  0.1957
54676SOL    HW269992  10.025   1.313   0.114 -0.1678 -0.6273 -0.7820
54677SOL     OW69993   6.371   0.388   3.447  0.0046  0.1842 -0.0774
54677SOL    HW169994   6.451   0.356   3.489  0.0403 -0.3187 -0.5164
54677SOL    HW269995   6.362   0.334   3.369 -0.7715  0.2347 -0.0289
54678SOL     OW69996  10.425   0.388   8.298 -0.5975  0.1792  0.5504
54678SOL    HW169997  10.515   0.373   8.268 -0.7187  0.2293  0.1590
54678SOL    HW269998  10.402   0.308   8.345  0.0316  0.5887  1.6007
54679SOL     OW69999   2.761   3.198   7.007 -0.3554 -0.1027 -0.3104
54679SOL    HW170000   2.695   3.163   7.066  0.3250  0.6492  0.9495
54679SOL    HW270001   2.835   3.220   7.064  0.2090  0.9462 -1.3948
54680SOL     OW70002   8.890   7.320   1.304 -0.7124 -0.4874 -0.1085
54680SOL    HW170003   8.839   7.248   1.265 -1.5681 -2.0256  3.4855
54680SOL    HW270004   8.964   7.277   1.347 -0.1939  1.0032  0.5469
54681SOL     OW70005   3.966   8.384   3.138  0.3059 -0.6570 -0.5005
54681SOL    HW170006   3.924   8.354   3.219 -0.3880 -0.8249 -0.9169
54681SOL    HW270007   3.982   8.477   3.154  1.5504 -0.9988  0.4036
54682SOL     OW70008   3.531   7.338   2.362  0.5730  0.6898  0.3191
54682SOL    HW170009   3.491   7.298   2.439  1.9196 -0.2260  0.5812
54682SOL    HW270010   3.481   7.417   2.347 -1.7323 -0.6986  0.2328
54683SOL     OW70011   3.642  11.237   9.899 -0.3952 -0.2626 -0.3563
54683SOL    HW170012   3.658  11.146   9.926  1.1656  0.6586  2.1787
54683SOL    HW270013   3.572  11.267   9.956 -0.9223  0.1518 -1.2002
54684SOL     OW70014  12.322   2.951   6.910  0.1058 -0.1840  0.1910
54684SOL    HW170015  12.393   3.004   6.949 -0.1681  1.0933 -0.9636
54684SOL    HW270016  12.253   2.951   6.977 -0.1771  1.5790 -0.0529
54685SOL     OW70017   9.291   7.445  11.484  0.4825 -0.1416 -0.2770
54685SOL    HW170018   9.239   7.462  11.563 -0.5887 -2.0763 -0.5136
54685SOL    HW270019   9.375   7.413  11.518  1.4516  2.4718  0.0899
54686SOL     OW70020  11.600   4.799   1.382  0.1704  0.6449  0.0141
54686SOL    HW170021  11.575   4.727   1.439 -1.4488  2.2984  1.5351
54686SOL    HW270022  11.548   4.873   1.412  2.4426  2.7318 -0.8234
54687SOL     OW70023   7.322   5.354  10.402 -0.4110  0.1421 -0.7003
54687SOL    HW170024   7.243   5.377  10.353 -0.6283 -0.6448 -0.7276
54687SOL    HW270025   7.394   5.374  10.342 -0.7062 -1.8011 -1.7954
54688SOL     OW70026  10.191   1.364   8.570  0.5127 -0.0517 -0.3455
54688SOL    HW170027  10.153   1.379   8.484 -1.2834 -0.9162  0.2523
54688SOL    HW270028  10.196   1.451   8.610 -1.1646  0.0611 -0.3336
54689SOL     OW70029  10.263  10.105   3.387  0.0330  0.0787 -0.5666
54689SOL    HW170030  10.169  10.086   3.376  0.2606 -2.3190  0.8911
54689SOL    HW270031  10.268  10.149   3.471  0.3795 -2.1000  0.6251
54690SOL     OW70032   4.443   0.303  11.915  0.0692 -0.0396  0.0427
54690SOL    HW170033   4.509   0.234  11.914 -0.3028 -0.3920 -0.6352
54690SOL    HW270034   4.471   0.362  11.985  0.4165 -0.8467  0.5976
54691SOL     OW70035  11.376   3.897   8.256 -0.2645 -0.1852  0.2750
54691SOL    HW170036  11.373   3.926   8.165 -0.7173 -1.1767 -0.0461
54691SOL    HW270037  11.336   3.968   8.306 -3.4446 -1.0868 -0.7280
54692SOL     OW70038   4.753  12.325   2.016  0.2233 -0.4175  0.3177
54692SOL    HW170039   4.757  12.417   1.992  0.4409 -0.0250  1.7721
54692SOL    HW270040   4.660  12.303   2.011  0.2650 -0.3925 -0.9234
54693SOL     OW70041  10.890   0.289   1.920  0.3649  0.2140  0.3448
54693SOL    HW170042  10.797   0.303   1.935  0.0679  0.6566 -1.6235
54693SOL    HW270043  10.894   0.216   1.859  1.3071  0.2723  0.3200
54694SOL     OW70044   0.938  10.407   2.248  0.3026  0.0183 -0.5106
54694SOL    HW170045   0.909  10.497   2.262  0.5238  0.1430 -0.8592
54694SOL    HW270046   0.921  10.390   2.155 -0.9591 -0.7397 -0.1660
54695SOL     OW70047   2.544   2.579  10.166  0.0265  0.0571  0.4847
54695SOL    HW170048   2.551   2.541  10.253  1.7437 -0.7720  0.0325
54695SOL    HW270049   2.475   2.529  10.123 -0.7121  0.3598  1.2837
54696SOL     OW70050  12.271   8.322   0.859  0.3311  0.1307 -0.4978
54696SOL    HW170051  12.232   8.359   0.780  0.4987  0.3475 -0.4782
54696SOL    HW270052  12.361   8.303   0.835  0.6782  1.1540 -0.0542
54697SOL     OW70053   4.360   9.248   2.747  0.3915  0.0947 -0.6180
54697SOL    HW170054   4.301   9.194   2.801 -1.5811  2.4316 -0.3026
54697SOL    HW270055   4.356   9.335   2.786  0.8026  1.3265 -3.1357
54698SOL     OW70056  10.259   2.933   6.306 -0.2138 -0.2340  0.0331
54698SOL    HW170057  10.352   2.932   6.330  0.4449  1.2112 -2.1679
54698SOL    HW270058  10.229   3.021   6.329 -0.4828 -0.0272 -1.0576
54699SOL     OW70059   7.012   2.753  10.284  0.0345  0.2942 -0.3960
54699SOL    HW170060   7.051   2.715  10.363 -2.0483 -2.1336 -0.3901
54699SOL    HW270061   7.069   2.724  10.213  0.2494 -0.1004 -0.0704
54700SOL     OW70062   1.996   9.125   2.040 -0.2002 -0.2052  0.3304
54700SOL    HW170063   1.976   9.050   1.983 -1.7541 -0.3352  0.9895
54700SOL    HW270064   1.926   9.123   2.106 -0.4978  2.0636  0.1335
54701SOL     OW70065   4.970   0.037   4.985 -0.4083 -0.1357  0.1267
54701SOL    HW170066   4.995   0.050   5.077  2.0828 -0.0474 -0.4892
54701SOL    HW270067   4.914  -0.040   4.986 -0.1942 -0.3114  1.6827
54702SOL     OW70068   9.033  12.110   7.442  0.2246  0.3173 -0.6753
54702SOL    HW170069   9.112  12.133   7.490 -0.2032 -0.4640  0.4350
54702SOL    HW270070   9.065  12.083   7.355  1.5404 -2.7955  0.6216
54703SOL     OW70071   5.984   1.275  11.573  0.1656  0.5042 -0.2505
54703SOL    HW170072   5.975   1.217  11.648  1.8799  1.0259  0.3928
54703SOL    HW270073   5.981   1.217  11.497 -2.4705  0.0473  0.0941
54704SOL     OW70074   3.700   8.992   0.656 -0.4348 -0.3190  0.1446
54704SOL    HW170075   3.705   8.897   0.648  1.4484 -0.0784 -3.5263
54704SOL    HW270076   3.763   9.014   0.725 -0.7581 -1.6480  0.9100
54705SOL     OW70077   1.047   7.633  10.700  0.2607  0.3610 -0.0479
54705SOL    HW170078   1.045   7.603  10.791 -0.3426 -2.7162 -0.9568
54705SOL    HW270079   1.139   7.632  10.677  0.2616 -1.0272 -0.0657
54706SOL     OW70080   7.750   6.352   2.485  0.4404 -0.1468 -0.0502
54706SOL    HW170081   7.732   6.388   2.398 -1.0793  1.6166  0.9276
54706SOL    HW270082   7.844   6.335   2.485  0.9134  2.1391 -1.2358
54707SOL     OW70083   0.547  10.508   1.599 -0.4123 -0.4236 -0.3784
54707SOL    HW170084   0.480  10.501   1.531  0.5363 -3.4276 -1.1354
54707SOL    HW270085   0.581  10.420   1.609  2.2865  0.6666  1.1952
54708SOL     OW70086  12.356   0.233   3.478  0.8458 -0.0715 -0.6463
54708SOL    HW170087  12.391   0.144   3.481  0.8375 -0.0540  1.5574
54708SOL    HW270088  12.388   0.274   3.558  1.6038  2.2409 -2.0456
54709SOL     OW70089   8.220   8.798  10.003 -0.3033 -0.3060  0.4308
54709SOL    HW170090   8.173   8.758  10.076  1.5363 -1.4155  1.0824
54709SOL    HW270091   8.176   8.766   9.925  0.2641 -2.5951  0.9839
54710SOL     OW70092   0.482   4.278  11.166 -0.6108 -0.4335 -0.2390
54710SOL    HW170093   0.513   4.188  11.155  0.0139 -0.2082 -0.3211
54710SOL    HW270094   0.397   4.268  11.209  0.6781 -0.9725  2.4076
54711SOL     OW70095   6.476   3.360  11.559 -0.3391  0.6927  0.2855
54711SOL    HW170096   6.413   3.432  11.560 -2.1778 -0.7705 -1.2130
54711SOL    HW270097   6.479   3.333  11.467 -0.2222 -1.5124  0.8655
54712SOL     OW70098  12.472   4.686   8.384  0.1561  0.0696 -0.4967
54712SOL    HW170099  12.468   4.734   8.467  1.5289  0.4300 -0.6219
54712SOL    HW270100  12.467   4.753   8.317  0.1086 -0.1372 -0.7013
54713SOL     OW70101   3.474   7.381   6.106 -0.4243  0.0907  0.2318
54713SOL    HW170102   3.483   7.454   6.044  1.5052 -0.0444  0.3073
54713SOL    HW270103   3.395   7.335   6.076  1.2854 -0.9591 -3.2776
54714SOL     OW70104  12.093   2.240   2.476 -0.1444  0.2836 -0.1070
54714SOL    HW170105  12.136   2.309   2.527  0.6143  0.2874 -0.7218
54714SOL    HW270106  12.165   2.182   2.450 -0.8998 -1.5531  1.5579
54715SOL     OW70107   8.935   7.718   6.034 -0.4205  0.1155  0.3629
54715SOL    HW170108   8.958   7.810   6.022 -0.0020  0.4678  3.2900
54715SOL    HW270109   8.995   7.670   5.977 -0.8617  1.6051 -1.4571
54716SOL     OW70110   3.418   2.267   8.111 -0.2493  0.0038  0.1514
54716SOL    HW170111   3.421   2.187   8.058  0.2302  0.4414 -0.5092
54716SOL    HW270112   3.507   2.303   8.105 -0.4733  0.6085  0.3926
54717SOL     OW70113   4.238   6.485   1.849  0.5887 -0.3045 -0.4229
54717SOL    HW170114   4.212   6.459   1.761 -0.8120  0.0133 -0.1255
54717SOL    HW270115   4.300   6.557   1.836  0.7639 -0.5775 -1.1447
54718SOL     OW70116   5.749   5.268   3.580 -0.0665  0.1111  0.0878
54718SOL    HW170117   5.714   5.193   3.532  1.9326 -0.7303 -0.1950
54718SOL    HW270118   5.697   5.342   3.550 -0.7326 -0.8428 -1.2310
54719SOL     OW70119   8.597   4.295  11.850 -0.1667 -0.4735  0.2394
54719SOL    HW170120   8.664   4.259  11.791  0.1983 -1.0148  0.9688
54719SOL    HW270121   8.635   4.375  11.884  0.8347 -1.5934  1.9076
54720SOL     OW70122   1.022   6.668  11.924 -0.0745  0.4036  0.6574
54720SOL    HW170123   1.068   6.641  11.844  1.0194  2.6506  0.4614
54720SOL    HW270124   0.955   6.729  11.893 -0.9213 -0.1949  1.2874
54721SOL     OW70125  11.262   3.912   8.538  0.1349 -0.2993  0.1237
54721SOL    HW170126  11.247   3.874   8.624 -0.1736  0.2650  0.3202
54721SOL    HW270127  11.188   3.883   8.485  0.9329 -1.6455 -0.3010
54722SOL     OW70128   9.295   9.274  11.146 -0.3122 -0.1922  0.2405
54722SOL    HW170129   9.331   9.186  11.136 -0.9803 -0.4197 -0.2086
54722SOL    HW270130   9.360   9.321  11.199  1.3697 -0.1589 -1.7549
54723SOL     OW70131   3.095   8.043  10.832  0.0549  0.7172  0.3600
54723SOL    HW170132   3.055   7.978  10.889 -1.8434  1.3312 -0.2132
54723SOL    HW270133   3.026   8.107  10.815  1.3793  2.0156 -0.4188
54724SOL     OW70134   7.295   3.100   0.698 -0.3935 -0.0073  0.1620
54724SOL    HW170135   7.319   3.018   0.741  1.0448  1.3344  2.1090
54724SOL    HW270136   7.229   3.138   0.755  0.2051  0.9698  0.2294
54725SOL     OW70137   5.456   6.650   0.409  0.3457  0.1522  0.4366
54725SOL    HW170138   5.449   6.621   0.500 -1.7626 -1.7008 -0.2418
54725SOL    HW270139   5.383   6.711   0.398  0.6750  0.4753  0.0022
54726SOL     OW70140   3.188   2.490   9.689 -0.8942  0.0856 -0.0205
54726SOL    HW170141   3.129   2.483   9.764 -1.1935 -0.5694 -0.3097
54726SOL    HW270142   3.133   2.528   9.619 -1.1776 -1.1282 -0.4861
54727SOL     OW70143   9.990   3.106  10.485  0.2002 -0.1008 -0.0073
54727SOL    HW170144   9.997   3.149  10.571  1.3861 -0.0154 -0.1220
54727SOL    HW270145  10.069   3.053  10.479  1.2294  1.4871 -1.8871
54728SOL     OW70146   6.478  11.448   8.395 -0.5259  0.1439  0.0302
54728SOL    HW170147   6.399  11.503   8.389 -0.1483  0.7486  0.4189
54728SOL    HW270148   6.535  11.496   8.455 -0.9424 -1.6292  1.9813
54729SOL     OW70149  10.830   4.894   9.709 -0.2582 -0.5921  0.3418
54729SOL    HW170150  10.913   4.846   9.710  2.1535  3.1247 -0.8556
54729SOL    HW270151  10.813   4.909   9.616 -0.3673  1.5564  0.6598
54730SOL     OW70152   2.548  10.835   9.283  0.2586  0.2770 -0.7167
54730SOL    HW170153   2.609  10.907   9.267  0.3695  0.5454  0.8064
54730SOL    HW270154   2.466  10.878   9.307 -0.5192 -0.0850 -2.5532
54731SOL     OW70155   8.534   6.776   3.636 -0.3874  0.4456 -0.8940
54731SOL    HW170156   8.549   6.867   3.611  1.4830  1.0459  1.9848
54731SOL    HW270157   8.450   6.778   3.683 -1.0406  0.3699 -2.0146
54732SOL     OW70158  10.508  12.261   4.993 -0.5483  0.3989  0.2724
54732SOL    HW170159  10.431  12.214   5.027 -1.7802  1.9124 -0.3049
54732SOL    HW270160  10.582  12.208   5.022 -1.8316 -1.8620 -0.2905
54733SOL     OW70161   5.368   9.090   6.319  0.8790 -0.2475 -0.3221
54733SOL    HW170162   5.406   9.058   6.237  2.6050 -1.1484  0.7600
54733SOL    HW270163   5.424   9.163   6.345  0.2851  0.0951  0.0150
54734SOL     OW70164   1.227   2.968   9.574  0.3159  0.1270 -0.3623
54734SOL    HW170165   1.134   2.967   9.551  0.8194  0.6335 -2.7463
54734SOL    HW270166   1.239   2.893   9.631 -1.6249  0.3185  0.3697
54735SOL     OW70167   8.311   4.661   0.092  0.3307  0.0086  0.1041
54735SOL    HW170168   8.321   4.579   0.141  0.7527 -1.1394 -1.7870
54735SOL    HW270169   8.344   4.641   0.005 -2.2965  1.3064 -1.3142
54736SOL     OW70170   9.350  12.427   5.694  0.3229  0.1961  0.0123
54736SOL    HW170171   9.392  12.345   5.668  0.8469 -0.9868  3.9410
54736SOL    HW270172   9.256  12.410   5.685  0.3894  0.7723 -3.0919
54737SOL     OW70173   5.343   5.476  11.898 -0.6273  0.1276 -0.5351
54737SOL    HW170174   5.385   5.398  11.862  0.9448 -0.3680  2.1902
54737SOL    HW270175   5.409   5.545  11.890 -0.0427 -0.1157  1.7348
54738SOL     OW70176  10.632   3.786   8.393 -0.0793  0.4066 -0.0549
54738SOL    HW170177  10.703   3.848   8.412 -0.5960  0.7004  1.0295
54738SOL    HW270178  10.557   3.820   8.443 -0.7459 -0.3571 -0.5208
54739SOL     OW70179   7.926   7.526   2.441 -0.2627 -0.0111  0.2287
54739SOL    HW170180   8.001   7.472   2.416  0.1223  0.3705  0.5568
54739SOL    HW270181   7.880   7.475   2.508 -0.7320 -0.5843 -0.5029
54740SOL     OW70182  10.986   3.785   6.714  0.2700 -0.4264 -0.3862
54740SOL    HW170183  11.009   3.710   6.659  0.8978 -0.6661  0.1885
54740SOL    HW270184  10.922   3.752   6.776 -0.4438 -0.1536 -0.9697
54741SOL     OW70185   8.378   1.923   4.960  0.6118  0.7557  0.1413
54741SOL    HW170186   8.368   2.018   4.948 -1.6600  0.6227  0.5438
54741SOL    HW270187   8.385   1.888   4.871  0.1643  1.1838 -0.0653
54742SOL     OW70188   8.901   4.282   9.284  0.1364 -0.6275 -0.7344
54742SOL    HW170189   8.928   4.235   9.363  0.1308 -0.2369 -0.4981
54742SOL    HW270190   8.849   4.356   9.317 -0.9263 -1.1563 -1.1586
54743SOL     OW70191  11.654   3.428   1.072 -0.4157 -0.5450 -0.1411
54743SOL    HW170192  11.625   3.376   0.997  0.2206 -0.7820 -0.2310
54743SOL    HW270193  11.740   3.392   1.094 -0.3365 -0.0816  0.3276
54744SOL     OW70194  10.357  12.080  10.045  0.2398  0.0871  0.1838
54744SOL    HW170195  10.376  12.141   9.974  1.0511  0.7946  0.9843
54744SOL    HW270196  10.302  12.013  10.005 -0.0900  0.9698 -0.8840
54745SOL     OW70197  11.945   8.990   8.571  0.5835  0.1002  0.0805
54745SOL    HW170198  12.038   9.012   8.572  0.8341 -0.9157 -0.0954
54745SOL    HW270199  11.921   8.984   8.664  1.1168 -1.3026  0.1521
54746SOL     OW70200   5.477  11.609   3.664 -0.0630 -0.6627  0.0443
54746SOL    HW170201   5.509  11.619   3.574 -0.7628  2.6053  0.0271
54746SOL    HW270202   5.388  11.576   3.654 -0.4057  0.3879 -0.5438
54747SOL     OW70203   9.062  11.477   3.285  0.2310  0.2900  0.1770
54747SOL    HW170204   8.983  11.436   3.320  1.0641 -1.5873 -0.0092
54747SOL    HW270205   9.133  11.443   3.340  1.2441 -0.5180 -1.5420
54748SOL     OW70206  11.246   3.741   8.750 -0.2527  0.1459 -0.4647
54748SOL    HW170207  11.278   3.728   8.839  0.2640  2.3274 -0.2763
54748SOL    HW270208  11.302   3.684   8.696 -0.8008 -1.4658  0.5877
54749SOL     OW70209   9.521   4.333   4.772  0.2085 -0.1222 -0.6836
54749SOL    HW170210   9.463   4.404   4.745  1.1263  1.4768  1.2695
54749SOL    HW270211   9.540   4.352   4.864  1.1446 -2.4774 -0.3336
54750SOL     OW70212   0.692  11.823   7.929  0.6289 -0.0722  0.3155
54750SOL    HW170213   0.600  11.796   7.931  0.0082  1.9085  0.4605
54750SOL    HW270214   0.738  11.753   7.975 -0.8358 -0.9865  0.4602
54751SOL     OW70215   7.734  12.028   1.332 -1.0255 -0.0222  0.4657
54751SOL    HW170216   7.764  12.057   1.418  2.3416 -1.1531 -0.1975
54751SOL    HW270217   7.724  12.109   1.282  0.7285  0.4575  0.8398
54752SOL     OW70218   6.885   5.767   5.775  0.2001  0.3211  0.2103
54752SOL    HW170219   6.955   5.703   5.760 -0.2789 -0.5767  1.6150
54752SOL    HW270220   6.842   5.775   5.689  0.2563 -1.2818 -0.0013
54753SOL     OW70221  12.480   7.652  10.144 -0.4614  0.1326 -0.2986
54753SOL    HW170222  12.526   7.731  10.173 -1.3969  0.9310 -0.9353
54753SOL    HW270223  12.542   7.608  10.086 -0.4079  1.1132 -1.0199
54754SOL     OW70224   3.272   2.410   2.505 -0.4842  0.0500 -0.1732
54754SOL    HW170225   3.267   2.315   2.515 -0.4874  0.1947  1.4581
54754SOL    HW270226   3.336   2.423   2.435  1.1357 -1.1441  0.9987
54755SOL     OW70227  12.232  12.155   8.978 -0.0671 -0.5392  0.1588
54755SOL    HW170228  12.165  12.118   8.919  0.3748  0.2390 -0.8797
54755SOL    HW270229  12.307  12.098   8.968  0.2896  0.0527 -0.7061
54756SOL     OW70230  10.590   1.963  12.464  0.3314  0.1894 -0.8116
54756SOL    HW170231  10.613   1.873  12.488  1.0095  0.4887 -0.3043
54756SOL    HW270232  10.495   1.966  12.469  0.3374 -0.3442 -0.2409
54757SOL     OW70233   1.856   1.591   8.829 -0.7469 -0.3980  0.2266
54757SOL    HW170234   1.872   1.507   8.787 -1.0106  0.3086 -1.3520
54757SOL    HW270235   1.837   1.651   8.757 -1.7542  0.7514  1.3905
54758SOL     OW70236   6.579   0.103   7.759 -0.5268 -1.0107 -0.3375
54758SOL    HW170237   6.663   0.057   7.767 -0.4334 -1.0405 -1.3510
54758SOL    HW270238   6.524   0.045   7.707 -0.8534 -0.5706 -0.4921
54759SOL     OW70239   1.461   8.542   6.195 -0.3842 -0.3199  0.0831
54759SOL    HW170240   1.489   8.538   6.287  2.1065  1.8259 -0.4563
54759SOL    HW270241   1.450   8.450   6.169 -1.6326 -0.9648  2.5975
54760SOL     OW70242   8.229   7.321   1.562 -0.0556 -0.0782  0.6250
54760SOL    HW170243   8.282   7.395   1.591  1.9434 -0.9466 -0.5571
54760SOL    HW270244   8.160   7.360   1.508  1.8921  0.9232 -1.3068
54761SOL     OW70245   3.625   2.064   9.863 -0.5435  0.3735  0.2828
54761SOL    HW170246   3.627   2.136   9.925 -1.3839  0.4407  0.2440
54761SOL    HW270247   3.532   2.046   9.849 -0.5339  2.0066 -2.8326
54762SOL     OW70248   8.448   1.113   5.530 -0.6474 -0.0155  0.2428
54762SOL    HW170249   8.516   1.047   5.521 -0.1385  0.3069  1.5381
54762SOL    HW270250   8.426   1.136   5.440  0.7352 -0.3555 -0.2149
54763SOL     OW70251   3.822   3.179   4.627  0.0760  0.5708  0.2344
54763SOL    HW170252   3.811   3.257   4.573 -1.4005  1.0615  1.1537
54763SOL    HW270253   3.746   3.124   4.606  1.2007 -0.7520 -0.5554
54764SOL     OW70254   1.088   1.851   0.523 -0.2140  0.5744 -0.0487
54764SOL    HW170255   1.109   1.914   0.454 -0.8135  0.1417 -0.6443
54764SOL    HW270256   1.037   1.901   0.587  1.0443  1.1793  0.4974
54765SOL     OW70257   9.595   8.552  10.929 -0.3251  0.1518 -0.1703
54765SOL    HW170258   9.614   8.523  11.018 -0.7282  0.2678 -0.0443
54765SOL    HW270259   9.567   8.473  10.883 -0.3350  0.1313 -0.1297
54766SOL     OW70260   2.275   7.935   0.119  0.6968 -0.1599 -0.0355
54766SOL    HW170261   2.348   7.879   0.145 -0.1242 -0.8107  0.8881
54766SOL    HW270262   2.316   8.003   0.064  1.5833 -2.1668 -2.0200
54767SOL     OW70263   6.411  11.343   5.250 -0.3200  0.2429 -0.4707
54767SOL    HW170264   6.358  11.384   5.319 -0.0373  1.2027 -0.8054
54767SOL    HW270265   6.488  11.400   5.242  0.4735 -0.7818 -0.4268
54768SOL     OW70266   9.244   0.919  12.206 -0.2063  0.1457  0.1944
54768SOL    HW170267   9.208   1.007  12.208  0.5826  0.4746  0.4825
54768SOL    HW270268   9.339   0.932  12.205 -0.0820 -0.6932 -0.0846
54769SOL     OW70269  12.142   8.099   0.556 -0.3748 -0.5178  0.8719
54769SOL    HW170270  12.102   8.087   0.643 -1.3077  1.3782  0.7406
54769SOL    HW270271  12.236   8.087   0.571 -0.0010  3.4431  3.0151
54770SOL     OW70272   2.253   7.264  10.310  0.7545 -0.0331  0.3425
54770SOL    HW170273   2.247   7.169  10.302  2.2652 -0.1732  0.5218
54770SOL    HW270274   2.208   7.285  10.392  1.1638 -0.6986  0.7444
54771SOL     OW70275   0.005   9.132   8.548 -0.7024  0.4027 -0.1593
54771SOL    HW170276   0.000   9.166   8.459  0.8823  0.2143 -0.3475
54771SOL    HW270277  -0.037   9.199   8.602 -0.2378  1.2759 -0.8607
54772SOL     OW70278   7.428   6.727   8.875 -0.2861  0.8495 -0.1758
54772SOL    HW170279   7.379   6.665   8.821  0.0479  0.2071  0.2485
54772SOL    HW270280   7.456   6.676   8.952  3.2845  0.4242 -1.5712
54773SOL     OW70281  11.902   6.632   8.560 -0.0273 -0.0957  0.1071
54773SOL    HW170282  11.935   6.555   8.512 -0.1321 -1.4576  2.1203
54773SOL    HW270283  11.950   6.705   8.522  2.1644 -1.4942 -0.0143
54774SOL     OW70284   9.907   8.194   9.817 -0.1976  0.0254 -0.2092
54774SOL    HW170285   9.855   8.139   9.758  0.8505 -0.1362 -1.0068
54774SOL    HW270286   9.843   8.232   9.877 -0.9304 -2.2923  0.5706
54775SOL     OW70287  10.790  11.224   7.449 -0.0318 -0.2740 -0.0024
54775SOL    HW170288  10.728  11.226   7.522  1.1423 -1.9169  1.1208
54775SOL    HW270289  10.874  11.205   7.490  0.9783  0.5341 -1.6267
54776SOL     OW70290  11.148  11.929   1.980  0.0140  0.0724  0.2892
54776SOL    HW170291  11.094  11.955   2.054 -1.0774  0.6533 -0.6714
54776SOL    HW270292  11.085  11.919   1.908  1.2403  1.2082 -0.9851
54777SOL     OW70293   7.500   3.014   2.728  1.0346  0.6737  0.0564
54777SOL    HW170294   7.427   2.968   2.688  2.3964  0.0756 -1.9192
54777SOL    HW270295   7.475   3.107   2.726 -0.5220  0.3202  1.4190
54778SOL     OW70296   9.704  12.131  12.466 -0.3172  0.6499  0.0487
54778SOL    HW170297   9.731  12.222  12.453 -0.6077  0.9828  1.5489
54778SOL    HW270298   9.628  12.119  12.410  0.6983  0.8054 -1.4273
54779SOL     OW70299  11.822  10.019   0.693 -0.5418  0.0560 -0.4653
54779SOL    HW170300  11.761   9.957   0.652 -0.3987 -1.5646  1.6037
54779SOL    HW270301  11.771  10.059   0.763  0.5473 -0.8916  0.9194
54780SOL     OW70302   6.997   7.211   8.989 -0.2274  0.2558  0.6375
54780SOL    HW170303   7.024   7.226   8.899 -0.1480  0.3132  0.6704
54780SOL    HW270304   7.052   7.271   9.041 -1.1140  1.1260  0.6128
54781SOL     OW70305   2.245   9.016  12.314  0.4027  1.1325 -0.5640
54781SOL    HW170306   2.281   8.961  12.384 -0.4961  1.7055  0.3644
54781SOL    HW270307   2.153   8.990  12.309  0.3039  1.5788 -1.0713
54782SOL     OW70308   4.352  11.546   5.055 -0.5292 -0.3976  0.2401
54782SOL    HW170309   4.444  11.522   5.058 -0.7084 -1.0188  1.0514
54782SOL    HW270310   4.352  11.636   5.022  0.4249 -0.1430  0.8847
54783SOL     OW70311   3.464   1.668  11.441  0.2294 -0.4441 -0.3106
54783SOL    HW170312   3.508   1.660  11.357 -0.1767  0.7010 -0.6521
54783SOL    HW270313   3.500   1.748  11.480 -0.5868 -0.2061 -0.0217
54784SOL     OW70314   2.782   0.331   5.748  0.5653 -0.0098 -0.5769
54784SOL    HW170315   2.852   0.351   5.685  1.7837 -0.6590  0.5059
54784SOL    HW270316   2.735   0.258   5.709 -0.9652  1.7989 -2.3492
54785SOL     OW70317  10.598  10.053   2.556  0.4260 -0.5437  0.5170
54785SOL    HW170318  10.602   9.995   2.480  0.3937 -0.5069  0.4872
54785SOL    HW270319  10.651  10.009   2.622 -1.2587 -1.6345  1.1959
54786SOL     OW70320   8.484   3.489   8.907  0.3048 -0.3422  0.3278
54786SOL    HW170321   8.449   3.549   8.841  1.5116 -1.5056 -1.4550
54786SOL    HW270322   8.462   3.530   8.990 -0.5417  1.6261 -0.7936
54787SOL     OW70323  11.610   4.455  11.378  0.1807  0.0398  0.1305
54787SOL    HW170324  11.702   4.466  11.352  0.7588 -0.8945  1.6316
54787SOL    HW270325  11.574   4.394  11.314 -0.0157  1.9627 -1.7014
54788SOL     OW70326  11.087   5.553   1.026 -0.2562 -0.0190  0.4965
54788SOL    HW170327  11.061   5.587   1.112 -1.6912  0.6142 -0.1547
54788SOL    HW270328  11.037   5.605   0.963  1.3293  0.0339 -0.7825
54789SOL     OW70329  12.427  11.952   1.209 -0.5074  0.0957  0.1875
54789SOL    HW170330  12.374  11.929   1.133  0.6208  0.4385 -0.7453
54789SOL    HW270331  12.396  12.039   1.234 -0.7519  0.0656 -0.0048
54790SOL     OW70332   0.637   2.543   6.612  0.1363  0.0178  0.2316
54790SOL    HW170333   0.590   2.575   6.689 -1.4560  1.3438 -1.2063
54790SOL    HW270334   0.582   2.472   6.578  0.1013  0.3426 -0.4143
54791SOL     OW70335   1.714  11.603   5.780 -0.3662  0.4205 -0.1849
54791SOL    HW170336   1.779  11.673   5.785  1.3870 -1.0269 -1.4036
54791SOL    HW270337   1.752  11.539   5.721 -1.8525 -1.6126  0.9243
54792SOL     OW70338   0.349   1.971   4.427  0.2526 -0.2867 -0.1518
54792SOL    HW170339   0.418   2.028   4.392 -0.9603  1.7522  0.6101
54792SOL    HW270340   0.324   2.011   4.510 -0.5558 -2.0777  0.5307
54793SOL     OW70341   7.910  10.713  11.867 -0.0279 -0.6807 -0.2211
54793SOL    HW170342   8.003  10.731  11.878  0.2900 -2.6284  0.7951
54793SOL    HW270343   7.888  10.656  11.940 -1.7710 -1.1054 -1.0227
54794SOL     OW70344   8.650   9.653  12.001 -0.1271 -0.5952 -0.4610
54794SOL    HW170345   8.641   9.616  11.913 -0.8848 -2.2113  0.2535
54794SOL    HW270346   8.745   9.654  12.017  0.0429  0.0585 -1.4086
54795SOL     OW70347   7.387   8.952  10.778  0.4823  0.1873 -0.1592
54795SOL    HW170348   7.360   9.044  10.786  0.6801  0.2980 -0.7162
54795SOL    HW270349   7.313   8.902  10.812 -0.5566  0.4667 -1.9055
54796SOL     OW70350  10.262   8.332   8.646 -0.2358  0.2680  0.0005
54796SOL    HW170351  10.271   8.409   8.703 -0.8036 -0.6841  1.4367
54796SOL    HW270352  10.206   8.272   8.696  2.2698 -2.1874  0.1327
54797SOL     OW70353  11.303   6.523   9.355  0.0087 -0.1973  0.6354
54797SOL    HW170354  11.230   6.584   9.342  0.5885  0.5149  0.6537
54797SOL    HW270355  11.300   6.503   9.449  0.1723  0.2704  0.7448
54798SOL     OW70356   7.688   3.321   9.881  0.1428  0.0905 -0.1463
54798SOL    HW170357   7.619   3.387   9.887 -0.2711 -0.1546 -1.8601
54798SOL    HW270358   7.654   3.246   9.929  0.1129  0.6605  0.7724
54799SOL     OW70359   9.672   6.923  12.477 -0.2482 -0.1894  0.9276
54799SOL    HW170360   9.655   6.865  12.551 -0.8018  0.1379  1.0615
54799SOL    HW270361   9.688   7.008  12.517  1.9004 -0.4923  0.8257
54800SOL     OW70362   1.213   6.249   5.302  0.3614 -0.2453  0.2682
54800SOL    HW170363   1.143   6.305   5.337  0.5540 -0.4811  1.0657
54800SOL    HW270364   1.172   6.199   5.232  0.0172  0.4189 -0.0194
54801SOL     OW70365   4.940   4.061   1.320  0.3348  0.5090  0.0085
54801SOL    HW170366   4.901   3.975   1.333 -0.0804  0.3999 -1.6869
54801SOL    HW270367   4.965   4.062   1.228  1.7276  1.6574  0.3608
54802SOL     OW70368   0.917   1.202   3.735  0.1719 -0.0694  0.1901
54802SOL    HW170369   0.825   1.218   3.757 -0.1079  0.2482 -1.1383
54802SOL    HW270370   0.965   1.228   3.814 -0.8628 -0.0723  0.8364
54803SOL     OW70371   5.849   0.932  12.401 -0.2500 -0.6373  0.3173
54803SOL    HW170372   5.836   0.882  12.482 -1.6680  0.3981  0.7787
54803SOL    HW270373   5.903   1.006  12.427 -1.4225  0.1619  0.5338
54804SOL     OW70374   8.364   0.262   6.054  0.0212  0.3936  0.6708
54804SOL    HW170375   8.297   0.317   6.012 -0.1987 -0.7356 -0.5113
54804SOL    HW270376   8.320   0.178   6.070  0.9574 -0.1456  0.4898
54805SOL     OW70377   3.069   0.629  11.086 -1.0487  0.0923  0.3165
54805SOL    HW170378   3.079   0.634  10.991 -0.5601  0.8850  0.4003
54805SOL    HW270379   3.050   0.537  11.103 -1.0809 -0.0722 -0.5411
54806SOL     OW70380   4.963   0.686   2.593 -0.5870 -0.0925  0.8201
54806SOL    HW170381   5.056   0.664   2.600 -0.4219 -0.1805 -1.1056
54806SOL    HW270382   4.917   0.608   2.624 -0.0004 -0.8432 -0.1538
54807SOL     OW70383   5.921  11.306   1.946  0.3126  0.2845  0.0329
54807SOL    HW170384   5.847  11.249   1.967  1.1119 -0.2099  1.6768
54807SOL    HW270385   5.980  11.250   1.896 -0.2694  0.6062 -1.0547
54808SOL     OW70386   0.204   0.227  11.227 -0.2362  0.2625 -0.0457
54808SOL    HW170387   0.272   0.221  11.295 -1.1646 -0.1316  0.8646
54808SOL    HW270388   0.165   0.313  11.240 -0.4978  0.1373 -0.0100
54809SOL     OW70389   6.404   4.909   6.185 -0.2923  0.1352  0.0499
54809SOL    HW170390   6.326   4.866   6.220  0.0073 -0.5368 -0.0797
54809SOL    HW270391   6.462   4.836   6.160 -0.0417  0.6053 -0.7883
54810SOL     OW70392   9.488   8.652   6.300 -0.0066  0.0192 -0.1801
54810SOL    HW170393   9.446   8.611   6.376 -1.0826  0.6756 -0.3934
54810SOL    HW270394   9.509   8.579   6.242  0.1758 -0.4266  0.4352
54811SOL     OW70395  12.163   3.275   2.951 -0.0952 -0.2762 -0.1231
54811SOL    HW170396  12.082   3.321   2.973 -0.0554 -0.7086  0.9946
54811SOL    HW270397  12.199   3.323   2.876 -0.9228  0.4609 -0.0613
54812SOL     OW70398   4.827   0.782   8.969  0.6671  0.2138  0.0627
54812SOL    HW170399   4.857   0.773   8.879  1.5124  1.5858  0.1752
54812SOL    HW270400   4.756   0.846   8.965  0.6479  0.2144  0.3566
54813SOL     OW70401   6.744   9.259   9.692  0.0978 -0.4442 -0.1913
54813SOL    HW170402   6.782   9.234   9.776 -2.0855  0.3920  1.1184
54813SOL    HW270403   6.818   9.255   9.630  1.9585 -0.2666  1.8915
54814SOL     OW70404   9.037   3.362  12.488  0.2452  0.4739  0.2670
54814SOL    HW170405   9.041   3.269  12.465  0.4810  0.9669 -1.8617
54814SOL    HW270406   8.967   3.398  12.434  1.4280  1.8888 -0.4081
54815SOL     OW70407   6.559   0.341   9.678 -0.4283  0.0904 -0.1480
54815SOL    HW170408   6.557   0.247   9.663  0.3410 -0.0464  0.5847
54815SOL    HW270409   6.599   0.377   9.599  0.9785 -0.3721  0.3364
54816SOL     OW70410  11.267   3.799  11.859  0.1235 -0.5222  0.0198
54816SOL    HW170411  11.268   3.747  11.779 -1.0043  0.6287 -0.7807
54816SOL    HW270412  11.274   3.890  11.829 -1.4839  0.0040  1.1247
54817SOL     OW70413   5.568   2.081   9.727  0.1007  0.3713 -0.4049
54817SOL    HW170414   5.489   2.094   9.675  0.2056  1.0285 -0.4096
54817SOL    HW270415   5.577   1.986   9.735 -0.7380  0.2989 -0.3202
54818SOL     OW70416   9.765   2.079   2.658  0.0376 -0.2179  0.3031
54818SOL    HW170417   9.769   2.092   2.753 -2.0044  1.2165  0.2693
54818SOL    HW270418   9.727   1.991   2.648 -1.1197  0.1860  0.8823
54819SOL     OW70419  10.483  10.973   7.649  0.4823 -0.0307  0.4072
54819SOL    HW170420  10.565  10.974   7.600  0.1236 -1.5204 -0.3180
54819SOL    HW270421  10.485  10.890   7.698 -0.5966 -0.1366  0.3133
54820SOL     OW70422  12.298   4.726   4.881  0.8176  0.5951  0.7773
54820SOL    HW170423  12.207   4.726   4.852  1.4686  2.1244 -1.5481
54820SOL    HW270424  12.300   4.663   4.953 -0.9085 -4.1591 -2.8400
54821SOL     OW70425   2.767   6.325   7.472  0.1746  0.0852  0.3691
54821SOL    HW170426   2.780   6.404   7.523  0.5056  1.8009 -2.1595
54821SOL    HW270427   2.672   6.316   7.465  0.1250  0.9108 -0.1959
54822SOL     OW70428   7.001   4.344   5.093  0.1238 -0.7550  0.2924
54822SOL    HW170429   6.926   4.292   5.066 -1.9942  2.9085 -1.7364
54822SOL    HW270430   6.974   4.386   5.174  1.2919 -1.7022  1.2168
54823SOL     OW70431   1.118   5.127   6.075 -0.3434  0.1220 -0.2423
54823SOL    HW170432   1.074   5.043   6.086  0.4661 -0.4688 -1.2743
54823SOL    HW270433   1.210   5.108   6.096 -0.3669  1.0797  0.8303
54824SOL     OW70434   7.606  10.950   9.035 -0.5654  0.4677  0.2252
54824SOL    HW170435   7.659  11.006   9.093  0.8703 -1.1838  0.5808
54824SOL    HW270436   7.647  10.960   8.949 -0.6305  0.3536  0.1815
54825SOL     OW70437   7.703   5.915   0.765 -0.5257  0.1394  0.2386
54825SOL    HW170438   7.705   5.879   0.853  0.2006 -0.0148  0.1668
54825SOL    HW270439   7.627   5.974   0.764 -2.3100 -2.0399  0.0831
54826SOL     OW70440   3.405   8.349   6.438 -0.2035 -0.6213  0.6705
54826SOL    HW170441   3.345   8.327   6.366 -0.1080 -2.1009  1.0151
54826SOL    HW270442   3.469   8.278   6.438  2.1644  1.3593 -0.2842
54827SOL     OW70443  10.225   8.638   4.087 -0.8901  0.4437  0.9519
54827SOL    HW170444  10.244   8.546   4.104  3.8820  0.8544 -0.6149
54827SOL    HW270445  10.187   8.670   4.168  0.0372 -2.3027  2.6082
54828SOL     OW70446   3.237  11.061   9.427 -0.0237  0.7521 -0.0675
54828SOL    HW170447   3.245  11.079   9.333  1.8138  2.0509  0.2769
54828SOL    HW270448   3.314  11.007   9.447  1.2053  2.8517  1.1702
54829SOL     OW70449   7.048   4.311   8.139  0.3322 -0.2002  0.3872
54829SOL    HW170450   6.988   4.384   8.127  0.7237  0.1863  0.7702
54829SOL    HW270451   6.991   4.234   8.145 -0.1881  0.2729  1.7188
54830SOL     OW70452   8.288   4.997   9.169 -0.1758 -0.3955 -0.2718
54830SOL    HW170453   8.245   4.974   9.252 -1.8606  1.1026 -0.6515
54830SOL    HW270454   8.310   4.913   9.130 -0.0313 -1.1557  1.3502
54831SOL     OW70455  12.388  10.811   1.431  0.0980  0.8132  0.0346
54831SOL    HW170456  12.395  10.768   1.517 -1.4100 -0.6750 -0.5370
54831SOL    HW270457  12.448  10.762   1.375 -0.5249  0.3743 -0.2628
54832SOL     OW70458   2.890   2.284   4.237 -0.1097 -0.2018  1.1818
54832SOL    HW170459   2.830   2.355   4.215 -1.3655 -1.1723  1.4050
54832SOL    HW270460   2.865   2.212   4.179  0.8817 -0.6129  1.2424
54833SOL     OW70461  10.722   2.968   9.091 -0.0403 -0.1636 -0.1825
54833SOL    HW170462  10.798   2.923   9.127 -1.3376 -1.9848  0.4178
54833SOL    HW270463  10.750   2.993   9.003  0.2108 -3.9759 -1.3957
54834SOL     OW70464   6.037   1.137   0.262  0.1778  0.0795 -0.0584
54834SOL    HW170465   5.958   1.087   0.284  0.4411  0.6724  2.5158
54834SOL    HW270466   6.110   1.080   0.286  0.4850  1.5526  3.0178
54835SOL     OW70467  10.247   4.403  10.236 -0.4678 -0.2203 -0.1690
54835SOL    HW170468  10.233   4.342  10.164  1.1332  0.8288 -1.4376
54835SOL    HW270469  10.180   4.470  10.224 -0.1758 -0.0238 -0.7123
54836SOL     OW70470  10.934  11.491   9.977  0.1837 -0.7001 -0.3483
54836SOL    HW170471  10.915  11.429  10.048  0.2149  0.3554  0.6106
54836SOL    HW270472  11.015  11.535  10.005 -2.4574  3.4905  1.7096
54837SOL     OW70473   8.073   1.396   6.191  0.0239  0.4524 -0.0354
54837SOL    HW170474   8.089   1.453   6.116  2.3275  1.3681  1.0537
54837SOL    HW270475   8.152   1.405   6.246  0.0219 -2.8955  0.7752
54838SOL     OW70476  12.300  10.182  10.231 -0.2537  0.3364  0.5707
54838SOL    HW170477  12.339  10.097  10.248  0.8837  0.8684  0.7289
54838SOL    HW270478  12.243  10.168  10.155  2.3624  0.0897 -1.4657
54839SOL     OW70479   5.987   5.723   8.775  0.6555  0.0587 -0.2553
54839SOL    HW170480   5.925   5.685   8.713 -0.2312 -0.2572  0.7826
54839SOL    HW270481   6.061   5.751   8.722 -0.7088  1.2037 -1.6593
54840SOL     OW70482  11.425   9.088   4.575  0.6252 -0.1724 -0.3632
54840SOL    HW170483  11.453   8.997   4.563  0.8194 -0.1611 -0.0070
54840SOL    HW270484  11.506   9.138   4.580  0.5527 -0.1351  0.6339
54841SOL     OW70485  11.244   2.840   7.806 -0.1031 -0.1565  0.1245
54841SOL    HW170486  11.273   2.928   7.782  0.0910 -0.0194  0.8303
54841SOL    HW270487  11.227   2.797   7.722  0.9416  0.1639 -0.2645
54842SOL     OW70488  11.841   5.564  11.636  0.6743  0.4630 -0.7855
54842SOL    HW170489  11.772   5.590  11.697  0.2088 -1.1350 -0.5768
54842SOL    HW270490  11.891   5.498  11.684  1.8395  0.9875 -1.2502
54843SOL     OW70491   2.084   0.577   5.083  0.0882  0.1146  0.0724
54843SOL    HW170492   2.053   0.549   5.169 -0.1695 -1.2846 -0.4352
54843SOL    HW270493   2.020   0.642   5.054 -2.3457 -2.4325 -0.7938
54844SOL     OW70494   3.515   1.509   7.903 -0.0115 -0.1142  0.2979
54844SOL    HW170495   3.447   1.538   7.964 -1.0190 -0.2885 -0.7066
54844SOL    HW270496   3.499   1.560   7.824 -0.1167 -1.4360 -0.5674
54845SOL     OW70497   9.512  12.262   9.549 -0.3931 -0.3185 -0.2335
54845SOL    HW170498   9.418  12.262   9.568 -0.1506 -1.5050  1.1402
54845SOL    HW270499   9.517  12.257   9.454 -1.6911  2.8134 -0.5672
54846SOL     OW70500   8.277  11.335   7.573 -0.1428 -0.1106  0.5396
54846SOL    HW170501   8.219  11.275   7.620  0.7261  0.4085  2.3698
54846SOL    HW270502   8.240  11.421   7.588  0.7167  0.1623  1.1750
54847SOL     OW70503  10.554  11.189   2.295 -0.2975 -0.4409 -0.4229
54847SOL    HW170504  10.557  11.257   2.227 -0.6192 -1.7823 -1.8354
54847SOL    HW270505  10.637  11.142   2.286 -0.7203 -1.1864 -0.4958
54848SOL     OW70506   6.726   9.480  12.409 -0.2966 -0.1191 -0.0400
54848SOL    HW170507   6.766   9.563  12.381 -0.2759 -0.1587 -0.1291
54848SOL    HW270508   6.678   9.502  12.489 -0.1111 -0.0681  0.0580
54849SOL     OW70509   3.247   5.953  10.925  0.1730 -0.4845 -0.0766
54849SOL    HW170510   3.190   6.019  10.886 -0.1600 -0.6494  0.1225
54849SOL    HW270511   3.190   5.903  10.983  1.2927  1.7783  3.2012
54850SOL     OW70512   6.703   9.274   4.074  0.0317  0.5465 -0.4287
54850SOL    HW170513   6.785   9.230   4.054  0.3539  1.5426 -1.4086
54850SOL    HW270514   6.719   9.366   4.052 -0.4368  1.2963  2.0689
54851SOL     OW70515  11.995   8.568  10.531 -0.0739 -0.2614  0.6646
54851SOL    HW170516  11.946   8.642  10.493  0.1304 -0.5999 -0.2905
54851SOL    HW270517  11.932   8.525  10.588 -0.8026 -0.4708 -0.2631
54852SOL     OW70518   8.398   4.293   7.969 -0.5201 -0.2795  0.0185
54852SOL    HW170519   8.320   4.298   8.025 -0.3048  0.4268  0.2640
54852SOL    HW270520   8.410   4.382   7.937  0.4365 -0.2840  0.3355
54853SOL     OW70521   3.257   1.647  10.965  0.4780  0.2845 -0.5390
54853SOL    HW170522   3.256   1.654  10.869  0.7625 -1.0065 -0.6500
54853SOL    HW270523   3.341   1.686  10.990  1.1855 -0.9050 -0.9715
54854SOL     OW70524   6.583   6.881   4.304  0.0494  0.3476  0.6371
54854SOL    HW170525   6.626   6.953   4.258  1.1907 -0.4413  0.4239
54854SOL    HW270526   6.649   6.812   4.308 -0.6593 -0.2947  1.8065
54855SOL     OW70527   1.938  12.171   8.552 -0.2903 -0.5618 -0.1232
54855SOL    HW170528   1.978  12.129   8.628 -1.8789 -2.0974 -0.0747
54855SOL    HW270529   1.931  12.100   8.487  0.0765  0.4683 -1.3330
54856SOL     OW70530   4.080   3.435   3.395  0.5680  0.5477 -0.6766
54856SOL    HW170531   4.164   3.420   3.439  0.7923 -0.5057 -1.4216
54856SOL    HW270532   4.072   3.362   3.334 -0.3321  1.2891 -1.4738
54857SOL     OW70533   1.509   4.477   4.383 -0.2190 -0.2007  0.8377
54857SOL    HW170534   1.464   4.561   4.384 -0.7679 -0.4649 -0.0559
54857SOL    HW270535   1.439   4.413   4.399 -0.5075 -0.7227 -1.9330
54858SOL     OW70536   5.960   2.690   0.260  0.1586 -0.0509 -0.4701
54858SOL    HW170537   5.958   2.631   0.335  2.4146 -0.8680 -0.9741
54858SOL    HW270538   5.968   2.632   0.184 -1.7867  0.7645 -1.3664
54859SOL     OW70539   2.348   0.052   5.639  0.3992  0.1785  0.0668
54859SOL    HW170540   2.336   0.137   5.596  0.3332  0.7346  1.1509
54859SOL    HW270541   2.371   0.074   5.729  1.6194 -0.9549  0.0608
54860SOL     OW70542  10.044   7.103   2.368 -0.1993  0.0232  0.2104
54860SOL    HW170543  10.113   7.089   2.304 -0.8049  0.3283 -0.5228
54860SOL    HW270544  10.090   7.109   2.452  0.7056  0.6260 -0.3140
54861SOL     OW70545   8.008   1.243   3.720  0.4548  0.0849  0.4254
54861SOL    HW170546   7.991   1.293   3.640  0.9905 -0.9990 -0.3963
54861SOL    HW270547   8.061   1.169   3.691 -0.1828 -0.8722  1.6259
54862SOL     OW70548   5.148  10.702   5.575  0.1708  0.2195 -0.3260
54862SOL    HW170549   5.140  10.794   5.600 -1.0675 -0.0163  0.2080
54862SOL    HW270550   5.069  10.683   5.526 -0.9594 -1.2292  1.8710
54863SOL     OW70551  12.305  11.056   6.433 -0.5816 -0.4492  0.2715
54863SOL    HW170552  12.375  10.991   6.436  0.4993  0.6926  0.7886
54863SOL    HW270553  12.229  11.007   6.403  0.5963 -1.5712 -1.0482
54864SOL     OW70554   0.935  11.516   9.429 -0.4251  0.1157 -0.0572
54864SOL    HW170555   1.015  11.469   9.454 -1.3863 -0.5254  1.9562
54864SOL    HW270556   0.864  11.466   9.468 -2.1369 -0.7273 -3.8113
54865SOL     OW70557   8.233   9.973   2.270  0.4111  0.0763  0.7092
54865SOL    HW170558   8.265   9.927   2.192 -0.4323 -1.1890  1.0683
54865SOL    HW270559   8.259   9.917   2.343  0.1920  0.6708  1.2518
54866SOL     OW70560   0.963  12.446   5.013 -0.1706  0.0945 -0.4897
54866SOL    HW170561   0.958  12.396   5.095  0.1613  0.4373 -0.2601
54866SOL    HW270562   0.979  12.379   4.946  0.0198 -0.1398 -0.2162
54867SOL     OW70563   8.538   0.868   4.006  0.0526 -0.0935  0.0167
54867SOL    HW170564   8.623   0.831   4.029 -0.3680 -0.8213  0.4221
54867SOL    HW270565   8.509   0.913   4.086  0.5513  1.1253 -0.4632
54868SOL     OW70566   8.293   1.513   1.574  0.3757  0.1258 -0.0331
54868SOL    HW170567   8.203   1.479   1.564  0.5685 -0.5878  0.5233
54868SOL    HW270568   8.291   1.599   1.532 -0.5485  0.0800 -0.1149
54869SOL     OW70569  11.478   7.898   4.318 -0.1452  0.1379 -0.1934
54869SOL    HW170570  11.468   7.993   4.315  0.0001  0.2027  0.9743
54869SOL    HW270571  11.393   7.866   4.346  0.3693  0.0830  1.3824
54870SOL     OW70572   6.456   7.185   3.874 -0.2247  0.2972  0.1427
54870SOL    HW170573   6.458   7.207   3.967  0.2308  1.6105 -0.1669
54870SOL    HW270574   6.366   7.201   3.847 -0.5691 -0.8751  0.5170
54871SOL     OW70575   0.790   8.006   5.330  0.1420  0.1921 -0.1859
54871SOL    HW170576   0.823   8.060   5.258  0.8550  1.0980  0.7819
54871SOL    HW270577   0.731   8.064   5.378  1.0936  0.1946  1.0040
54872SOL     OW70578   2.359   8.645   5.206 -0.0126  0.5672 -0.1247
54872SOL    HW170579   2.342   8.586   5.279 -0.9917  0.1922 -0.6382
54872SOL    HW270580   2.381   8.728   5.248  0.5922  0.0574  0.5986
54873SOL     OW70581   6.761   3.868  10.527 -0.4546  0.2856 -0.6768
54873SOL    HW170582   6.852   3.854  10.552 -0.6814  0.6569  0.4499
54873SOL    HW270583   6.743   3.958  10.555 -1.0633  0.3273 -1.1996
54874SOL     OW70584   5.773   6.114   9.219 -0.1614 -0.4478 -0.0194
54874SOL    HW170585   5.835   6.086   9.286  0.1849  1.1754  0.3723
54874SOL    HW270586   5.786   6.052   9.146  0.3976 -1.4048  0.8713
54875SOL     OW70587   4.815  11.142   5.634  0.4330 -0.2871  0.0320
54875SOL    HW170588   4.807  11.232   5.602 -0.2052 -0.1315  0.5885
54875SOL    HW270589   4.790  11.148   5.726  0.3222 -1.0436  0.0551
54876SOL     OW70590  10.640  10.285   7.111 -0.1984  0.0584 -0.3045
54876SOL    HW170591  10.657  10.264   7.203  0.5739  0.7371 -0.2780
54876SOL    HW270592  10.551  10.318   7.110  0.0938  0.9060  0.3643
54877SOL     OW70593   8.512   0.529   6.102 -0.2010 -0.3232 -0.2529
54877SOL    HW170594   8.447   0.563   6.164 -1.7862  0.3959 -2.1898
54877SOL    HW270595   8.483   0.440   6.084  0.7992 -0.8615  0.6977
54878SOL     OW70596   9.177  11.590   7.650 -0.3283 -0.1435 -0.4586
54878SOL    HW170597   9.246  11.537   7.610 -0.0299 -0.9054  1.0024
54878SOL    HW270598   9.131  11.529   7.708 -1.0692  0.7979 -0.0352
54879SOL     OW70599   1.309   2.384  10.981 -0.0918 -0.9598 -0.4947
54879SOL    HW170600   1.287   2.398  10.889 -1.1317 -0.3094 -0.1690
54879SOL    HW270601   1.225   2.367  11.024  0.1539  0.3835  0.6123
54880SOL     OW70602  11.239   8.342   9.753  0.1679  0.3029  0.2144
54880SOL    HW170603  11.174   8.360   9.685  0.9852 -0.5303 -0.8293
54880SOL    HW270604  11.259   8.249   9.743  2.2629  0.7446 -0.1736
54881SOL     OW70605   8.515   7.499   9.017 -0.5011  0.1520 -0.1353
54881SOL    HW170606   8.584   7.537   9.071 -1.7157  0.6643  1.1237
54881SOL    HW270607   8.544   7.511   8.927  0.9013  0.6060  0.3641
54882SOL     OW70608   1.692   7.062  12.309  0.2358  0.6465 -0.6087
54882SOL    HW170609   1.778   7.068  12.268 -0.5970 -1.5463 -2.9094
54882SOL    HW270610   1.697   6.985  12.365 -0.5399 -0.2215 -1.6969
54883SOL     OW70611   8.513   0.435   7.579  0.8523 -0.4013 -0.3527
54883SOL    HW170612   8.550   0.347   7.576  1.0469 -0.4085  1.3941
54883SOL    HW270613   8.569   0.486   7.520  2.0067 -1.0078  0.1893
54884SOL     OW70614   3.230   4.964   2.454  0.5259  0.6872 -0.0637
54884SOL    HW170615   3.242   4.953   2.548 -0.1825  1.0174  0.0702
54884SOL    HW270616   3.182   4.886   2.426  1.5394  0.1339 -0.3249
54885SOL     OW70617   9.177   1.966   2.499  0.0990  1.0629 -0.5219
54885SOL    HW170618   9.174   2.040   2.437  0.6068 -0.4779 -2.5006
54885SOL    HW270619   9.171   1.888   2.443  1.0404 -0.4373  1.3511
54886SOL     OW70620   6.165   6.422  11.068 -0.5463  0.8644  0.4319
54886SOL    HW170621   6.158   6.401  10.975 -0.9572 -0.1403  0.6840
54886SOL    HW270622   6.244   6.476  11.074  1.2239 -1.4671 -0.1266
54887SOL     OW70623  10.348  11.207   5.114 -0.2370 -0.3097  0.3834
54887SOL    HW170624  10.290  11.202   5.038 -0.9996  1.1055  0.8510
54887SOL    HW270625  10.353  11.300   5.135 -1.6230 -0.7699  3.2762
54888SOL     OW70626   0.662   3.633   5.048 -0.5393 -0.5135  0.2602
54888SOL    HW170627   0.585   3.578   5.037  0.8936 -3.0084  1.7828
54888SOL    HW270628   0.642   3.688   5.124 -1.9055  1.0166 -1.1497
54889SOL     OW70629   7.495   7.051   0.057 -0.1691  0.0743 -0.3327
54889SOL    HW170630   7.469   7.141   0.075 -1.6206  0.0213 -1.9217
54889SOL    HW270631   7.469   7.003   0.136 -0.4595  0.8504  0.0567
54890SOL     OW70632  11.040   1.514  11.023 -0.3109  0.6439  0.1051
54890SOL    HW170633  11.099   1.568  11.076  0.3070  1.4280 -1.3092
54890SOL    HW270634  10.954   1.526  11.064 -0.3075  3.1847 -0.4364
54891SOL     OW70635   9.657   0.076   1.627 -0.3179  0.1785 -0.7630
54891SOL    HW170636   9.708   0.141   1.578  1.9178 -1.4213 -0.7003
54891SOL    HW270637   9.627   0.014   1.560 -0.1859 -0.1624 -0.5081
54892SOL     OW70638   7.647   2.901   1.619  0.6772  0.1309 -0.2119
54892SOL    HW170639   7.554   2.880   1.625  0.6827 -0.3289 -1.4136
54892SOL    HW270640   7.650   2.996   1.611  0.4434  0.3421  1.7600
54893SOL     OW70641   2.612   8.911   5.688 -0.4087 -0.2398  0.1030
54893SOL    HW170642   2.577   8.824   5.708 -1.3171  0.4031  1.3825
54893SOL    HW270643   2.549   8.950   5.628  0.7274 -0.9649 -1.6575
54894SOL     OW70644  11.490  11.497   8.933  0.1202  0.0673 -0.4784
54894SOL    HW170645  11.432  11.533   8.866 -2.1150 -1.0107  0.7641
54894SOL    HW270646  11.439  11.500   9.013  3.0633  2.2819  1.5090
54895SOL     OW70647   6.347   9.932   3.678 -0.5977  0.8419  0.2144
54895SOL    HW170648   6.371  10.024   3.683  2.4655  0.1423  0.3322
54895SOL    HW270649   6.366   9.907   3.588 -0.2699  0.0679  0.4861
54896SOL     OW70650   2.541   0.146   0.685  0.2039 -1.0788  0.3230
54896SOL    HW170651   2.452   0.113   0.677 -0.2000  0.0260  0.0637
54896SOL    HW270652   2.593   0.088   0.629 -0.5326 -1.0690 -0.3915
54897SOL     OW70653   2.761   0.960  12.239  0.4870 -0.0264 -0.1777
54897SOL    HW170654   2.788   0.894  12.175 -0.1710 -1.0449  0.5670
54897SOL    HW270655   2.712   1.024  12.188  0.6346 -0.4064 -0.8189
54898SOL     OW70656   7.329  10.014   0.642 -0.1109 -0.0061 -0.2617
54898SOL    HW170657   7.352   9.980   0.556 -0.1885  0.7621 -0.6025
54898SOL    HW270658   7.252   9.964   0.668  0.2599 -0.6427 -0.3760
54899SOL     OW70659  10.150   2.217  12.002  0.1331  0.1934 -0.0573
54899SOL    HW170660  10.067   2.252  12.035  0.0185 -0.8836  0.8627
54899SOL    HW270661  10.180   2.282  11.939  0.0001  2.0205  1.6603
54900SOL     OW70662  10.709   7.099   5.632 -0.3507 -0.3904  0.7952
54900SOL    HW170663  10.786   7.054   5.666 -0.0896  0.6055  1.5991
54900SOL    HW270664  10.666   7.035   5.577  1.3729 -0.8012 -0.1550
54901SOL     OW70665   1.580   0.143   5.377  0.0735  0.3505  0.1600
54901SOL    HW170666   1.607   0.233   5.359 -0.3641  0.4467 -0.0281
54901SOL    HW270667   1.635   0.115   5.450  0.1657  0.7911  0.2585
54902SOL     OW70668  10.325   6.253   1.353  0.1282  0.1949 -0.0374
54902SOL    HW170669  10.411   6.260   1.313 -0.2397  0.1828 -0.8447
54902SOL    HW270670  10.275   6.325   1.315 -0.5325 -0.4357 -0.3917
54903SOL     OW70671   8.484   8.731  10.054 -0.8350  0.0090  0.0846
54903SOL    HW170672   8.519   8.809  10.013  1.0912 -1.2493 -0.7952
54903SOL    HW270673   8.405   8.711  10.004  0.3353 -0.3069 -1.7251
54904SOL     OW70674  11.179  10.826   0.196 -0.5802  0.1598 -0.2719
54904SOL    HW170675  11.136  10.883   0.259 -0.3592 -0.8557  0.8364
54904SOL    HW270676  11.255  10.791   0.243 -0.4019 -0.6138 -1.1066
54905SOL     OW70677   2.904   2.214   3.388  0.0136 -0.2733 -0.0150
54905SOL    HW170678   2.963   2.285   3.413 -0.5054 -0.2101  1.0570
54905SOL    HW270679   2.933   2.139   3.439 -0.0016 -0.5954 -0.4757
54906SOL     OW70680  11.066   6.978   3.855  0.2253  0.4982  0.3559
54906SOL    HW170681  11.120   6.922   3.799 -0.5519 -0.5187  0.6003
54906SOL    HW270682  10.976   6.955   3.833 -0.1046 -0.0022  2.0824
54907SOL     OW70683   2.516   5.828   5.717 -1.3264  0.0342  0.0828
54907SOL    HW170684   2.578   5.839   5.790  1.6275 -0.8629 -2.0809
54907SOL    HW270685   2.544   5.746   5.675 -3.9880 -0.3580 -1.1349
54908SOL     OW70686   2.849   5.877  12.429 -0.6592  0.3712  0.0104
54908SOL    HW170687   2.823   5.908  12.516 -4.1860  1.0993 -1.1507
54908SOL    HW270688   2.809   5.790  12.421 -2.5527  1.3311 -1.7106
54909SOL     OW70689  10.344   2.780   0.965 -0.2691 -0.3900  0.0675
54909SOL    HW170690  10.373   2.847   1.027  0.3187 -0.6461  0.0741
54909SOL    HW270691  10.288   2.828   0.904  0.1256  0.1090  0.0860
54910SOL     OW70692   3.574   2.868   4.322 -0.0947 -0.4746  0.1825
54910SOL    HW170693   3.605   2.950   4.285  1.4810 -1.0239  0.1889
54910SOL    HW270694   3.542   2.892   4.409  0.9404  0.0690  0.4372
54911SOL     OW70695   0.188  11.138   8.106 -0.2509  0.5136 -0.3899
54911SOL    HW170696   0.130  11.065   8.130  0.1383  0.4611  0.4134
54911SOL    HW270697   0.130  11.200   8.062 -1.0201  0.6401  0.7502
54912SOL     OW70698   4.659   2.640   7.045 -0.0968 -0.1702 -0.5604
54912SOL    HW170699   4.589   2.575   7.034  0.1953 -0.0865 -4.6112
54912SOL    HW270700   4.739   2.592   7.023  0.6494  0.6722  0.2338
54913SOL     OW70701   3.368   1.554   8.741  0.2518 -0.1612 -0.4391
54913SOL    HW170702   3.298   1.548   8.675 -0.3513  0.2648  0.1491
54913SOL    HW270703   3.439   1.601   8.696  0.5431 -1.4220 -1.3410
54914SOL     OW70704  11.260   3.062   7.435  0.2800 -0.3426  0.1031
54914SOL    HW170705  11.210   3.141   7.457  0.1726 -0.8342  1.7643
54914SOL    HW270706  11.306   3.085   7.354  0.6261  1.6136  0.7848
54915SOL     OW70707   6.580   2.260  10.695  0.5639 -0.1633  0.1769
54915SOL    HW170708   6.492   2.299  10.700 -0.3548 -2.0408 -0.3055
54915SOL    HW270709   6.640   2.335  10.700 -1.0663  1.2119  0.1208
54916SOL     OW70710   9.252  10.169   7.476 -0.1260 -0.0328 -0.7691
54916SOL    HW170711   9.273  10.178   7.383  1.2503  0.1343 -0.4664
54916SOL    HW270712   9.254  10.258   7.510  0.3066 -0.1803 -0.3989
54917SOL     OW70713   8.035   6.824   4.171 -0.5134  0.0595  0.0168
54917SOL    HW170714   8.054   6.813   4.078  0.3782 -0.8930  0.2919
54917SOL    HW270715   8.029   6.735   4.205 -1.2799  0.3885  0.7971
54918SOL     OW70716   1.273   8.969   4.940  0.1840 -0.2578  0.1373
54918SOL    HW170717   1.343   8.985   4.877  1.1944 -0.9321  1.0570
54918SOL    HW270718   1.274   9.046   4.997  0.7573 -0.6505  0.6667
54919SOL     OW70719   0.497   1.657   3.473  0.4847 -0.4107 -0.6412
54919SOL    HW170720   0.422   1.599   3.464  1.9911 -3.4850  3.4391
54919SOL    HW270721   0.478   1.710   3.551  1.6338  0.3184 -0.8302
54920SOL     OW70722   6.742   1.699   5.263 -0.3845  0.2524 -0.1577
54920SOL    HW170723   6.667   1.654   5.224 -0.7322  2.5877 -2.4769
54920SOL    HW270724   6.708   1.738   5.343 -1.3070  0.1257 -0.4755
54921SOL     OW70725   3.451   5.134   9.614  0.3347 -0.8531  0.5026
54921SOL    HW170726   3.470   5.059   9.557 -0.0098 -0.6811  0.1614
54921SOL    HW270727   3.442   5.096   9.701  0.4656 -1.1687  0.3806
54922SOL     OW70728  10.881   0.194  11.029 -0.0698 -0.0870  0.3232
54922SOL    HW170729  10.896   0.258  11.099  0.8127  1.0048 -0.8204
54922SOL    HW270730  10.786   0.182  11.027 -0.0902 -0.4952  1.9909
54923SOL     OW70731   7.724   3.122  10.680  0.5276 -0.4552  0.5422
54923SOL    HW170732   7.807   3.133  10.726  1.2676 -2.2491 -0.2676
54923SOL    HW270733   7.710   3.205  10.635  2.5330 -0.5294 -0.3182
54924SOL     OW70734   7.637   8.309   1.375 -0.0955  0.2830 -0.0825
54924SOL    HW170735   7.544   8.284   1.373  0.1262 -0.5109 -2.5179
54924SOL    HW270736   7.636   8.404   1.363 -0.5855 -0.0400 -3.6082
54925SOL     OW70737   1.059   5.248   6.415  1.0868  0.1529  0.2214
54925SOL    HW170738   0.971   5.213   6.404  0.9666 -0.2645  2.1474
54925SOL    HW270739   1.076   5.296   6.334 -0.6873 -0.2172 -0.4178
54926SOL     OW70740  10.070   8.621   0.232 -0.2577 -0.5539  0.1892
54926SOL    HW170741  10.161   8.649   0.244  0.1443 -2.5156  2.4983
54926SOL    HW270742  10.024   8.653   0.310 -1.2503 -0.7619 -0.2915
54927SOL     OW70743   7.289   7.032   8.094 -0.0806 -0.4234  0.5181
54927SOL    HW170744   7.240   7.104   8.133 -0.4697 -0.2815 -0.2107
54927SOL    HW270745   7.288   7.051   8.000 -0.2205 -1.3974  0.3150
54928SOL     OW70746   2.545   7.695   5.585 -0.3994  0.0316  0.0030
54928SOL    HW170747   2.516   7.617   5.538  1.4768 -1.0550  0.5204
54928SOL    HW270748   2.566   7.758   5.516  3.4430 -1.9362 -0.9092
54929SOL     OW70749   9.356   8.932   1.457  0.5097 -0.1856 -0.2565
54929SOL    HW170750   9.278   8.979   1.426  0.9762 -0.0907 -1.3063
54929SOL    HW270751   9.429   8.974   1.412  1.1615 -0.3714  0.6117
54930SOL     OW70752   1.315   2.135   6.670  0.2118 -0.1907  0.1770
54930SOL    HW170753   1.276   2.186   6.598  0.5718 -2.2439 -1.5889
54930SOL    HW270754   1.245   2.078   6.700  0.0739  0.6331  1.5212
54931SOL     OW70755   0.917   4.261   2.470  0.2255  0.1128  0.1411
54931SOL    HW170756   0.967   4.241   2.549  3.5310  0.6378 -1.6414
54931SOL    HW270757   0.826   4.255   2.497  1.1904 -1.0050  3.6400
54932SOL     OW70758   9.126   1.482   9.550 -0.3886  0.0706  0.1508
54932SOL    HW170759   9.133   1.576   9.537 -2.8557  0.3637  0.3947
54932SOL    HW270760   9.100   1.473   9.642  1.1379 -0.9668  0.5172
54933SOL     OW70761   5.236   5.582   8.898 -0.4456 -0.0505  0.4513
54933SOL    HW170762   5.311   5.581   8.958 -1.0147  0.5570  1.1894
54933SOL    HW270763   5.253   5.510   8.837  1.6226  1.1375 -0.4775
54934SOL     OW70764   2.939   1.045   2.289 -0.1108 -0.2598  0.1843
54934SOL    HW170765   2.913   0.993   2.213 -1.2904 -0.1831  0.5162
54934SOL    HW270766   2.913   0.991   2.364  0.3098  0.0262  0.5426
54935SOL     OW70767   3.972   2.524   6.800 -0.4392  0.0664 -0.0853
54935SOL    HW170768   3.913   2.505   6.727 -1.4877 -1.4261  1.1005
54935SOL    HW270769   4.000   2.438   6.832  0.2476  0.6909  1.0813
54936SOL     OW70770   4.300   5.271   2.401  0.5318 -0.1805  0.1361
54936SOL    HW170771   4.234   5.210   2.371  1.3813 -1.3712  0.6326
54936SOL    HW270772   4.260   5.317   2.475 -0.0838 -0.1554 -0.2078
54937SOL     OW70773  10.324  11.296   5.740 -0.0915  0.3738 -0.1582
54937SOL    HW170774  10.400  11.273   5.686  0.9491  2.1452  0.4607
54937SOL    HW270775  10.271  11.352   5.685 -0.7279 -0.4767 -0.4268
54938SOL     OW70776   8.685   5.010   1.434  0.6581  0.0043 -0.1821
54938SOL    HW170777   8.753   5.042   1.375  0.2578  0.2706 -0.5041
54938SOL    HW270778   8.722   5.021   1.522  1.3760 -0.6883 -0.3967
54939SOL     OW70779   9.684   4.805   1.041 -0.0490  0.9882 -0.3365
54939SOL    HW170780   9.632   4.801   1.121 -0.8258  0.0964 -0.8726
54939SOL    HW270781   9.769   4.839   1.070  0.0174 -0.2619  1.0465
54940SOL     OW70782   4.712  10.970   5.347  0.1046  0.2850  0.0718
54940SOL    HW170783   4.756  11.035   5.292 -0.8615  1.2773  0.4490
54940SOL    HW270784   4.708  10.891   5.292 -1.7317  1.5240 -1.7041
54941SOL     OW70785   3.223   9.546   0.207 -0.3065  0.3561  0.0917
54941SOL    HW170786   3.185   9.607   0.270  0.3971  0.7159  0.1771
54941SOL    HW270787   3.244   9.599   0.130 -0.4530  0.0652 -0.1548
54942SOL     OW70788  11.594   4.683   5.124  0.0202  0.3804 -0.2379
54942SOL    HW170789  11.520   4.741   5.104 -0.6124 -0.6515 -0.9822
54942SOL    HW270790  11.555   4.609   5.170  0.9748  1.0278  1.6936
54943SOL     OW70791  12.250   6.711   5.491 -0.2851  0.1533  1.1446
54943SOL    HW170792  12.214   6.650   5.555 -0.2604 -1.7313 -0.5267
54943SOL    HW270793  12.325   6.752   5.535 -0.3084 -1.0425  2.3353
54944SOL     OW70794  10.443  12.431  11.103 -0.0514 -0.1921  0.2137
54944SOL    HW170795  10.386  12.498  11.141 -0.1089  0.3567 -0.7851
54944SOL    HW270796  10.522  12.432  11.157 -1.0019 -1.0288  1.6683
54945SOL     OW70797   3.799   2.485   6.597  0.0054  0.5372 -0.2377
54945SOL    HW170798   3.799   2.389   6.597  1.7038  0.5083  0.5846
54945SOL    HW270799   3.838   2.509   6.513  0.6390  0.4869  0.0406
54946SOL     OW70800  11.830   6.248   4.986 -0.2180  0.0465  0.5800
54946SOL    HW170801  11.767   6.294   5.041 -1.0204  0.2319 -0.4731
54946SOL    HW270802  11.846   6.166   5.031 -0.7096  0.2794  1.1928
54947SOL     OW70803   5.786   6.170  11.028  0.2208  0.7931 -0.1470
54947SOL    HW170804   5.879   6.153  11.016 -0.2769 -1.8528 -0.9489
54947SOL    HW270805   5.755   6.198  10.942  0.1109  0.7097 -0.1363
54948SOL     OW70806   0.608   1.486   7.947  0.6054 -0.6134 -0.3908
54948SOL    HW170807   0.618   1.397   7.981 -0.7085 -0.3968  0.6261
54948SOL    HW270808   0.612   1.475   7.852 -1.5789 -2.0969 -0.3812
54949SOL     OW70809   2.230   6.171   0.456  0.3383  0.3580  0.0603
54949SOL    HW170810   2.241   6.166   0.550 -2.5252 -0.2502  0.4777
54949SOL    HW270811   2.222   6.080   0.428 -0.4867  0.5862 -0.4864
54950SOL     OW70812  10.633   2.929   5.100  0.1854 -0.0406  0.5666
54950SOL    HW170813  10.624   2.861   5.167  1.4461  0.3025  1.1282
54950SOL    HW270814  10.584   2.896   5.025 -0.9395 -0.6095  1.5295
54951SOL     OW70815  12.057  10.553  10.724 -0.9991  0.1293  0.2846
54951SOL    HW170816  11.974  10.557  10.771 -1.0991  0.7645  0.0655
54951SOL    HW270817  12.124  10.565  10.791 -1.0042 -1.6500  0.6640
54952SOL     OW70818   6.862   6.676   7.605 -0.3781  0.8795 -0.7037
54952SOL    HW170819   6.793   6.621   7.643 -1.2032  1.9417 -0.6041
54952SOL    HW270820   6.928   6.681   7.674 -0.7604  0.8264 -0.3213
54953SOL     OW70821   4.106   1.538  11.295 -0.3947 -0.2691  0.6148
54953SOL    HW170822   4.044   1.610  11.280  1.1002  1.3949  1.9396
54953SOL    HW270823   4.051   1.466  11.326 -1.8542  0.6169  0.1967
54954SOL     OW70824  10.376   8.837   0.872  0.1985 -0.5363 -0.5313
54954SOL    HW170825  10.415   8.896   0.938 -0.0774 -0.6598 -0.2560
54954SOL    HW270826  10.287   8.870   0.861 -0.3308 -1.5667  0.4546
54955SOL     OW70827   1.592   1.267  11.224 -0.5035 -0.4044 -0.2773
54955SOL    HW170828   1.533   1.337  11.252  0.0243 -0.4131  0.9353
54955SOL    HW270829   1.578   1.197  11.288  0.5146 -0.5569 -0.2060
54956SOL     OW70830   0.713   1.266   6.168  0.1467  0.4632  0.3731
54956SOL    HW170831   0.797   1.256   6.123 -1.3870 -1.9557 -2.3211
54956SOL    HW270832   0.686   1.177   6.188 -2.5426  1.0121 -0.4677
54957SOL     OW70833   1.899  11.690   1.121 -0.5796 -0.4652 -0.5873
54957SOL    HW170834   1.994  11.678   1.125 -0.7683 -1.7856  1.9660
54957SOL    HW270835   1.886  11.783   1.137  0.2759 -0.2375 -1.1421
54958SOL     OW70836   5.238   3.085   2.301 -0.3054  0.1133 -0.4316
54958SOL    HW170837   5.249   3.176   2.273 -0.6690  0.9522  1.9683
54958SOL    HW270838   5.317   3.065   2.350 -0.8670 -0.3649  0.2966
54959SOL     OW70839   2.163   2.721  11.242  0.7580  0.1001 -0.2162
54959SOL    HW170840   2.080   2.738  11.197  0.7823  1.8092  0.3198
54959SOL    HW270841   2.228   2.771  11.192  1.1542  0.2250  0.4147
54960SOL     OW70842   5.629  11.631   7.007  0.4336  0.0533 -0.3190
54960SOL    HW170843   5.706  11.678   6.974  0.6068  1.2730  1.6444
54960SOL    HW270844   5.556  11.666   6.956  1.0998 -0.7866 -1.8923
54961SOL     OW70845  11.370  11.607   0.485 -0.2701  0.5084 -0.3238
54961SOL    HW170846  11.317  11.532   0.459  2.4504 -0.4033 -4.0385
54961SOL    HW270847  11.435  11.571   0.545 -1.7227  0.9745  1.6258
54962SOL     OW70848   8.236   2.322   7.453 -0.7618  0.2631  0.0283
54962SOL    HW170849   8.317   2.305   7.404  0.2136  1.4020  1.1897
54962SOL    HW270850   8.214   2.413   7.433 -0.1911  0.8379  1.8748
54963SOL     OW70851   0.282   9.738   9.430 -0.3565  0.1524 -0.3618
54963SOL    HW170852   0.317   9.649   9.427 -1.3586 -0.2517 -0.5474
54963SOL    HW270853   0.190   9.728   9.403 -0.8885  1.0260  1.0221
54964SOL     OW70854   2.437  10.455   0.685 -0.0015  0.8039  0.1705
54964SOL    HW170855   2.512  10.450   0.744 -0.0173  2.1175  0.3262
54964SOL    HW270856   2.476  10.460   0.597  0.1306  1.9927  0.2809
54965SOL     OW70857   9.910   9.723   3.872 -0.2598 -0.3489 -0.6373
54965SOL    HW170858   9.874   9.739   3.960 -1.3318 -0.5563 -1.0210
54965SOL    HW270859  10.002   9.751   3.878 -0.9922  2.2786 -0.2072
54966SOL     OW70860   4.960   3.706   9.001  0.5271 -0.3427  0.2434
54966SOL    HW170861   4.971   3.702   9.096  1.3661 -0.1280  0.1595
54966SOL    HW270862   4.989   3.794   8.976  1.8772 -0.9455 -0.3992
54967SOL     OW70863  11.328  11.955   1.342  0.4542  0.0008 -0.0611
54967SOL    HW170864  11.365  12.042   1.359  1.6700  0.2597 -3.3216
54967SOL    HW270865  11.372  11.898   1.405 -0.4868  1.6736  2.2691
54968SOL     OW70866   4.999   4.503   3.695  0.2950  0.0713  0.1324
54968SOL    HW170867   5.064   4.573   3.687  0.0516  0.2872  0.0295
54968SOL    HW270868   5.042   4.436   3.748  1.1679 -0.4375 -1.1701
54969SOL     OW70869   7.231   2.164   0.600 -0.6509  0.4716  0.1819
54969SOL    HW170870   7.310   2.131   0.643 -0.5659 -0.5981 -0.7445
54969SOL    HW270871   7.213   2.247   0.644  0.7310  0.5216  0.7127
54970SOL     OW70872   2.312  11.573   6.225 -0.0986 -0.4965 -0.6789
54970SOL    HW170873   2.244  11.623   6.270 -0.9386 -0.6405 -1.7651
54970SOL    HW270874   2.381  11.563   6.291 -1.3801 -0.9102  0.6649
54971SOL     OW70875   9.138   4.543   4.396  0.0168  0.1103  0.2174
54971SOL    HW170876   9.054   4.587   4.384 -0.4136 -0.5608  0.6687
54971SOL    HW270877   9.118   4.469   4.453  0.6924 -0.7238 -0.5960
54972SOL     OW70878   8.269  10.264   4.069 -0.1419  0.2911 -0.5149
54972SOL    HW170879   8.229  10.223   4.145  0.5232  3.0999  1.4974
54972SOL    HW270880   8.200  10.321   4.034  0.5727  1.5597  0.0850
54973SOL     OW70881   5.123   4.830   0.815 -0.1275 -0.0094  0.1795
54973SOL    HW170882   5.056   4.850   0.880 -0.6777 -0.3981 -0.2603
54973SOL    HW270883   5.084   4.763   0.759  0.8678 -0.7119  0.2957
54974SOL     OW70884   1.679   7.928   3.842 -0.1248  0.0091  0.3612
54974SOL    HW170885   1.672   7.883   3.926 -1.8433  3.2420  2.1283
54974SOL    HW270886   1.611   7.996   3.845 -0.5170  0.0676 -3.8396
54975SOL     OW70887   7.835   0.170   7.721 -0.0065  0.4020  0.2213
54975SOL    HW170888   7.900   0.187   7.653  0.7805 -2.0967  0.2316
54975SOL    HW270889   7.788   0.253   7.731  0.1497  1.0026 -2.9957
54976SOL     OW70890   9.312   3.670   5.076  0.5776  0.2000  0.4174
54976SOL    HW170891   9.281   3.681   4.986 -0.9264 -0.6874  0.7818
54976SOL    HW270892   9.332   3.576   5.082  0.7322  0.2705  0.9917
54977SOL     OW70893   6.805  12.122   2.673 -0.7327 -0.4263  0.0135
54977SOL    HW170894   6.834  12.164   2.593 -1.5347  0.7355  0.2955
54977SOL    HW270895   6.876  12.137   2.736 -0.3232 -0.9015 -0.3321
54978SOL     OW70896  10.355   1.819   5.570  0.0932 -0.1303 -0.3356
54978SOL    HW170897  10.260   1.815   5.580  0.2011 -0.4811  0.7003
54978SOL    HW270898  10.381   1.896   5.620  0.1033  1.7391 -3.0071
54979SOL     OW70899  11.037  11.512   0.773 -0.4382 -0.1414 -0.3087
54979SOL    HW170900  11.053  11.568   0.849 -1.9011 -0.3634  0.1952
54979SOL    HW270901  11.010  11.572   0.704 -0.6520 -0.0970 -0.1850
54980SOL     OW70902   7.003   5.433   9.948  0.2524  0.0750 -0.1717
54980SOL    HW170903   7.047   5.428  10.033 -0.6358 -3.8237  0.2687
54980SOL    HW270904   7.074   5.448   9.885  0.9685  2.7299  1.1241
54981SOL     OW70905   8.733  10.612   6.191 -0.2957 -0.4620 -0.4335
54981SOL    HW170906   8.730  10.546   6.260 -0.3465  0.4606  0.4552
54981SOL    HW270907   8.770  10.565   6.116 -0.2482 -1.4804  0.2026
54982SOL     OW70908   2.261   0.126   9.815 -0.3938 -0.2330 -0.3214
54982SOL    HW170909   2.211   0.123   9.897 -1.1269  0.0372 -0.7465
54982SOL    HW270910   2.331   0.190   9.831 -1.2716  0.7545 -0.3006
54983SOL     OW70911   7.145  10.744   3.295 -0.5738 -0.4043 -0.1336
54983SOL    HW170912   7.168  10.734   3.387 -1.6414 -2.2578 -0.0259
54983SOL    HW270913   7.050  10.734   3.292 -0.4428 -1.5701 -1.5414
54984SOL     OW70914   2.918  12.106   0.251 -0.4777 -0.2290 -0.5616
54984SOL    HW170915   2.909  12.140   0.162  4.5712  1.6582 -0.6651
54984SOL    HW270916   2.907  12.183   0.308  0.4993 -0.5128  0.0493
54985SOL     OW70917   8.073   3.123   5.894  0.0385 -0.3758  0.4031
54985SOL    HW170918   7.990   3.113   5.941 -0.5313 -1.0842 -0.7052
54985SOL    HW270919   8.115   3.038   5.902  0.5970 -0.0649  0.8255
54986SOL     OW70920   4.319   4.750   5.595  0.1852 -0.1934 -0.5141
54986SOL    HW170921   4.364   4.718   5.673  0.0328 -0.8489 -0.6934
54986SOL    HW270922   4.291   4.839   5.619 -1.1088 -0.8791  0.7165
54987SOL     OW70923   0.668  11.365   7.026 -0.0181  0.3569 -0.2336
54987SOL    HW170924   0.659  11.359   7.121 -0.2649 -0.3345 -0.2997
54987SOL    HW270925   0.579  11.354   6.992  0.2761 -1.0030 -0.6190
54988SOL     OW70926  11.206   8.368   1.967  0.5657  0.3107  0.1298
54988SOL    HW170927  11.227   8.310   1.894  3.2500  2.0075 -0.6182
54988SOL    HW270928  11.113   8.389   1.955 -0.2547 -2.9305 -0.0917
54989SOL     OW70929   9.026  11.527   0.708 -0.1930  0.6113  0.5485
54989SOL    HW170930   8.959  11.460   0.696 -1.3255  1.0893  3.5141
54989SOL    HW270931   8.992  11.603   0.661 -0.1950 -0.0471 -0.5525
54990SOL     OW70932   5.956   3.420   4.174  0.1764 -0.4593  0.3283
54990SOL    HW170933   5.894   3.372   4.120 -1.3219  0.7911  0.8879
54990SOL    HW270934   5.992   3.487   4.116 -1.1787  0.6636  0.7349
54991SOL     OW70935  11.812  10.311  11.339 -0.4041  0.0717 -0.1324
54991SOL    HW170936  11.771  10.283  11.421 -0.6882  0.1729 -0.2378
54991SOL    HW270937  11.764  10.390  11.314 -0.4818 -0.0981 -0.5248
54992SOL     OW70938   4.756  10.668   1.774 -0.4480  0.6339 -0.5624
54992SOL    HW170939   4.851  10.656   1.772 -0.5571 -0.4815  0.1292
54992SOL    HW270940   4.735  10.708   1.689  0.6176  0.7501 -0.7781
54993SOL     OW70941  10.211   9.861   6.513 -0.0531 -0.2733  0.0334
54993SOL    HW170942  10.169   9.928   6.567  0.3843  0.5620 -0.6467
54993SOL    HW270943  10.155   9.785   6.522 -0.0106 -0.1502  1.6417
54994SOL     OW70944  11.434   6.557   0.215 -0.0050  0.4127 -0.1208
54994SOL    HW170945  11.480   6.590   0.293 -0.7023  0.4913  0.2636
54994SOL    HW270946  11.483   6.595   0.141  0.8984  0.0224  0.2556
54995SOL     OW70947  12.372   1.923  12.461 -0.1614  0.0503 -0.3416
54995SOL    HW170948  12.436   1.867  12.506 -1.0468 -0.6520  0.0810
54995SOL    HW270949  12.333   1.975  12.531 -1.1853 -0.6815 -0.3444
54996SOL     OW70950   6.864   3.800  11.211  0.5257  0.2308  0.2186
54996SOL    HW170951   6.944   3.850  11.193  0.4331 -0.1395 -1.3307
54996SOL    HW270952   6.870   3.723  11.156 -0.2851 -0.4872  1.0926
54997SOL     OW70953  11.645   3.481  11.471 -0.2008  0.0007  0.1446
54997SOL    HW170954  11.565   3.498  11.422 -0.9097  0.4831  1.4140
54997SOL    HW270955  11.680   3.568  11.490  0.5021 -0.2041 -0.2054
54998SOL     OW70956   6.024   1.858  12.386 -0.0767  0.0551  0.0825
54998SOL    HW170957   5.996   1.767  12.392  1.3170 -0.3334  1.0505
54998SOL    HW270958   5.975   1.902  12.456 -1.6742  0.3507 -1.1453
54999SOL     OW70959   6.196   3.036   3.658  0.2547  0.0596  0.3831
54999SOL    HW170960   6.157   2.966   3.607 -0.3286  0.5563  0.1419
54999SOL    HW270961   6.270   3.066   3.606  0.3039 -0.1523  0.3323
55000SOL     OW70962   7.944   2.321   5.935 -0.5773 -0.5021 -0.0722
55000SOL    HW170963   8.018   2.327   5.875  0.6082 -0.2080  1.3521
55000SOL    HW270964   7.873   2.284   5.883  0.6428 -1.0173 -1.4215
55001SOL     OW70965   1.060   6.678   0.440  0.2513  0.2693  0.1472
55001SOL    HW170966   1.110   6.710   0.515 -0.2813 -1.2420  1.2085
55001SOL    HW270967   1.113   6.700   0.364  1.7486  0.1478  1.1112
55002SOL     OW70968  10.904   7.814   6.879  0.0152 -0.0783  0.3396
55002SOL    HW170969  10.943   7.727   6.887  1.2645  0.4614  0.4227
55002SOL    HW270970  10.946   7.865   6.948 -0.3162  0.7205 -0.0347
55003SOL     OW70971   8.290   1.368   6.399 -0.6824  0.2628 -0.0324
55003SOL    HW170972   8.382   1.362   6.426 -0.6477  0.4832 -0.0983
55003SOL    HW270973   8.241   1.336   6.474 -0.5735  0.5878  0.1795
55004SOL     OW70974  10.034  11.888   2.805  0.7452  0.0196 -0.0754
55004SOL    HW170975  10.014  11.901   2.712  1.6282  0.9205 -0.1551
55004SOL    HW270976  10.096  11.816   2.807 -1.0661 -1.6140  0.0340
55005SOL     OW70977   8.163  12.007  12.367  0.0587  0.4208  0.0571
55005SOL    HW170978   8.100  11.936  12.351  0.0459  0.1318  1.2909
55005SOL    HW270979   8.246  11.961  12.380  0.5198  0.7915 -1.4013
55006SOL     OW70980   7.911   2.618   8.675 -0.4175  0.2008 -0.0487
55006SOL    HW170981   7.917   2.536   8.625  0.2820  0.0025  0.3458
55006SOL    HW270982   7.860   2.594   8.753 -0.7395  0.2915 -0.2310
55007SOL     OW70983   8.250   5.656   8.514 -0.1004  0.3520  0.1726
55007SOL    HW170984   8.307   5.583   8.541 -0.6003  0.0056  0.3201
55007SOL    HW270985   8.231   5.702   8.596 -0.4749  0.1423  0.2031
55008SOL     OW70986   1.033   4.152   7.036 -0.2080 -0.4280  0.3865
55008SOL    HW170987   1.004   4.081   7.095 -3.0053  0.9830  0.8696
55008SOL    HW270988   1.034   4.230   7.091 -1.1695  0.6204 -1.0285
55009SOL     OW70989   7.145   9.806  11.106  0.2480 -0.4327 -0.0429
55009SOL    HW170990   7.236   9.833  11.110  0.6817 -1.6936 -0.7301
55009SOL    HW270991   7.116   9.833  11.019  0.3767 -1.2151 -0.3358
55010SOL     OW70992   8.054   0.565   5.329 -0.0851 -0.5416 -0.0672
55010SOL    HW170993   8.084   0.655   5.336 -0.2111 -0.5984  1.7329
55010SOL    HW270994   8.021   0.557   5.240  1.3087  0.7386 -0.7433
55011SOL     OW70995  12.462   4.884   6.271  0.2121 -0.1105 -0.0058
55011SOL    HW170996  12.415   4.911   6.350 -0.0558 -0.3780 -0.0723
55011SOL    HW270997  12.393   4.865   6.208  0.4260  0.0907 -0.3041
55012SOL     OW70998   7.120  10.738   0.975 -0.2496 -0.1012 -0.1816
55012SOL    HW170999   7.212  10.717   0.956 -0.0450  0.4511  0.1814
55012SOL    HW271000   7.122  10.777   1.062 -0.5538  1.7879 -0.9607
55013SOL     OW71001   1.996   3.210   7.949 -0.2531  0.2788  0.1002
55013SOL    HW171002   1.930   3.140   7.948  1.3752 -1.3333  0.7949
55013SOL    HW271003   2.075   3.171   7.913  1.2797  1.0953  2.2965
55014SOL     OW71004   6.423   0.127   8.962  0.0490  0.6649  0.0910
55014SOL    HW171005   6.346   0.153   9.014 -0.2107  2.0056 -0.9335
55014SOL    HW271006   6.387   0.068   8.895  0.2885 -0.5383  0.9787
55015SOL     OW71007   4.963   4.178   8.029 -0.2307  0.4583 -0.8507
55015SOL    HW171008   4.893   4.192   7.965  0.2226  0.6685 -1.3093
55015SOL    HW271009   5.031   4.130   7.980 -0.4328 -0.5566 -0.1688
55016SOL     OW71010   8.876   1.913   2.241  0.0692 -0.6374  0.0458
55016SOL    HW171011   8.897   1.986   2.299 -0.4647  0.2582 -0.8607
55016SOL    HW271012   8.945   1.915   2.174  1.1687 -2.1811  1.0705
55017SOL     OW71013   3.600  12.103   8.245 -0.4746  0.3567  0.4031
55017SOL    HW171014   3.573  12.181   8.294 -1.1167  0.2263  0.2689
55017SOL    HW271015   3.548  12.032   8.284 -1.8827  0.4363 -1.2179
55018SOL     OW71016   4.424   7.571   8.281  0.2262  0.4049  0.1392
55018SOL    HW171017   4.419   7.656   8.238  0.0751  1.0174  1.3315
55018SOL    HW271018   4.333   7.541   8.284  0.0873  0.9064  1.0815
55019SOL     OW71019   0.067   1.944   9.905 -0.5846 -0.0632  0.5577
55019SOL    HW171020   0.086   1.913   9.994  1.3107 -0.7560 -0.0462
55019SOL    HW271021   0.023   2.028   9.918 -0.6565 -0.3226  2.1573
55020SOL     OW71022   4.732   2.304   1.172  0.0861 -0.1877 -0.1168
55020SOL    HW171023   4.766   2.388   1.203  1.7231 -0.6022 -0.7388
55020SOL    HW271024   4.779   2.287   1.091 -2.5067 -0.1914 -1.7668
55021SOL     OW71025   8.219  10.000   7.800  0.6100  0.1423  0.6666
55021SOL    HW171026   8.268  10.080   7.819  0.5621 -0.0249  1.5673
55021SOL    HW271027   8.257   9.935   7.859  1.0344 -0.6485 -0.4613
55022SOL     OW71028   0.105   3.475   5.847 -0.4424  0.0335  0.1196
55022SOL    HW171029   0.017   3.470   5.810  0.2602  1.1967 -1.8906
55022SOL    HW271030   0.111   3.399   5.905 -2.2646 -0.8908 -0.8010
55023SOL     OW71031   9.893   4.766  11.209 -0.2683 -0.2315  0.2219
55023SOL    HW171032   9.837   4.812  11.271 -2.3502  1.4655 -2.6799
55023SOL    HW271033   9.926   4.835  11.152  0.5525 -1.8281 -1.3115
55024SOL     OW71034   5.935   1.727   7.183 -0.4128 -0.2781 -0.0842
55024SOL    HW171035   5.944   1.710   7.277 -0.1279  0.9086  0.1275
55024SOL    HW271036   5.872   1.798   7.178  0.9540  0.9531 -0.6390
55025SOL     OW71037   6.859   0.671   2.941  0.0187 -0.0128  0.4372
55025SOL    HW171038   6.767   0.700   2.944 -0.0155  0.1335 -1.1505
55025SOL    HW271039   6.904   0.728   3.003 -0.8124  0.5149  0.5718
55026SOL     OW71040   3.654  11.409  11.008  0.0264  0.0890 -0.0856
55026SOL    HW171041   3.716  11.338  11.026 -0.6929 -0.2612  1.1480
55026SOL    HW271042   3.709  11.486  10.995  0.7957 -0.5998 -0.9758
55027SOL     OW71043   3.144   1.962   7.438 -0.6463  0.0557  0.1695
55027SOL    HW171044   3.224   2.012   7.454 -0.8108  0.1956  0.5530
55027SOL    HW271045   3.163   1.913   7.357 -0.6078  0.9789 -0.3967
55028SOL     OW71046   4.980  11.892   8.284  0.1688 -0.8348 -0.1207
55028SOL    HW171047   4.979  11.812   8.232  0.3743  0.3854 -2.0640
55028SOL    HW271048   5.069  11.925   8.276 -0.3641  0.4975 -0.7885
55029SOL     OW71049   7.002   5.253   1.564  0.2062  0.3664  0.2428
55029SOL    HW171050   7.097   5.260   1.575  0.0462  1.7897  0.9336
55029SOL    HW271051   6.976   5.338   1.530 -0.8539  0.0354  0.2046
55030SOL     OW71052   2.028   3.651   8.850  0.3401  0.1454  0.5844
55030SOL    HW171053   1.997   3.563   8.827  1.8232 -0.4793  0.8930
55030SOL    HW271054   2.071   3.683   8.771 -1.2085  1.1106  0.0797
55031SOL     OW71055   3.908  10.216   5.760 -0.5815  0.0306  0.6398
55031SOL    HW171056   3.947  10.149   5.817  1.0137 -1.1030 -1.6042
55031SOL    HW271057   3.818  10.185   5.745 -1.3106  0.7742  3.0607
55032SOL     OW71058  10.899   8.072   3.603 -0.2287  0.2702 -0.1471
55032SOL    HW171059  10.930   8.070   3.693  0.0095  0.2007 -0.2296
55032SOL    HW271060  10.806   8.094   3.610 -0.3917 -0.5052  0.1588
55033SOL     OW71061   1.028   6.950   2.547  0.5505 -0.2582  0.4164
55033SOL    HW171062   1.055   7.012   2.479 -0.5007  1.1524  1.2421
55033SOL    HW271063   1.075   6.870   2.525  0.9280  0.4143 -1.4581
55034SOL     OW71064   1.507   8.182   8.466  0.2049 -0.8133 -0.0413
55034SOL    HW171065   1.603   8.190   8.466  0.1237  0.3668 -0.3184
55034SOL    HW271066   1.488   8.123   8.538  1.0916 -0.3051  0.6282
55035SOL     OW71067   7.199  10.362   7.390 -0.8228 -0.5885 -0.1938
55035SOL    HW171068   7.271  10.326   7.442 -1.0134 -0.8144 -0.0840
55035SOL    HW271069   7.120  10.320   7.426 -1.0011 -0.3968 -0.3597
55036SOL     OW71070   5.584  11.084   5.435 -0.4278  0.1342  0.0225
55036SOL    HW171071   5.621  11.157   5.385  0.3303 -0.5048 -0.3885
55036SOL    HW271072   5.527  11.039   5.373 -0.2683 -0.0802  0.0291
55037SOL     OW71073   9.520   4.144   3.433  0.0913  0.2085  0.1454
55037SOL    HW171074   9.596   4.127   3.378 -0.3044  1.0144 -0.6652
55037SOL    HW271075   9.531   4.234   3.462 -0.8845  0.5621 -0.5345
55038SOL     OW71076   7.077   6.911   9.425 -0.0643  0.1591  0.0441
55038SOL    HW171077   7.028   6.929   9.344  0.5790 -0.8734 -0.5899
55038SOL    HW271078   7.035   6.834   9.462  0.8853 -0.5659 -0.3580
55039SOL     OW71079   7.755   0.505   0.031 -0.0039 -0.2265 -0.5050
55039SOL    HW171080   7.673   0.552   0.018  0.5634  1.7090  1.9948
55039SOL    HW271081   7.816   0.546  -0.030 -0.4060 -0.2990 -0.9621
55040SOL     OW71082   0.645   7.910  11.739  0.1743 -0.0806  0.0494
55040SOL    HW171083   0.620   7.969  11.669  0.7519 -0.6129 -0.6261
55040SOL    HW271084   0.714   7.957  11.786 -1.9281  1.3698  1.8941
55041SOL     OW71085   5.936   4.492   3.224  0.1110  0.1787  0.1169
55041SOL    HW171086   5.891   4.411   3.249  0.0276  0.1558 -0.0993
55041SOL    HW271087   5.973   4.472   3.138  0.0113  0.4010  0.0213
55042SOL     OW71088   9.169   6.983   5.462  0.2968 -0.3481 -0.1128
55042SOL    HW171089   9.253   7.027   5.446  0.1557  1.4407  3.1635
55042SOL    HW271090   9.177   6.950   5.551 -2.2756 -0.6312  0.0746
55043SOL     OW71091   0.563  11.174   7.933  0.6146 -0.2111  0.2966
55043SOL    HW171092   0.533  11.251   7.886 -0.3414 -0.8686 -0.2093
55043SOL    HW271093   0.600  11.208   8.014 -0.7969  0.7173  0.5911
55044SOL     OW71094  10.643  11.600   6.639  0.2832  0.4865  0.0086
55044SOL    HW171095  10.625  11.613   6.732  0.1225  0.0893  0.0374
55044SOL    HW271096  10.718  11.656   6.621  1.7794 -1.1151  0.9125
55045SOL     OW71097   5.763   4.702   3.420 -0.4473  0.1512 -0.3451
55045SOL    HW171098   5.822   4.776   3.432 -0.2786 -0.2119  1.1865
55045SOL    HW271099   5.790   4.663   3.336  0.5478  0.8222 -0.3521
55046SOL     OW71100   2.893   4.549   6.729  0.0894 -0.5220  0.0983
55046SOL    HW171101   2.915   4.457   6.745  1.0449 -0.0942  1.5361
55046SOL    HW271102   2.804   4.558   6.763  0.0776 -0.8780  0.1712
55047SOL     OW71103   8.643  10.353  10.930  0.0705  0.5288 -0.3392
55047SOL    HW171104   8.716  10.413  10.920 -0.0157  0.5099 -1.1679
55047SOL    HW271105   8.576  10.404  10.976 -0.0410  1.1156 -1.1272
55048SOL     OW71106  10.186  12.322   9.563  0.2053  0.4094  0.1707
55048SOL    HW171107  10.139  12.385   9.618 -1.2750  0.3985 -0.9932
55048SOL    HW271108  10.119  12.289   9.503  1.8249  0.7670 -1.9494
55049SOL     OW71109   0.803   8.062   7.063  0.0363  0.0327 -0.3362
55049SOL    HW171110   0.777   8.108   6.984  1.1734 -1.4793 -1.6628
55049SOL    HW271111   0.896   8.043   7.050  0.6709  1.0692  2.0677
55050SOL     OW71112  10.531   1.459  10.259  0.0851 -0.0252  0.4212
55050SOL    HW171113  10.607   1.401  10.258 -0.3694 -0.6477 -1.4623
55050SOL    HW271114  10.462   1.407  10.301 -0.6070 -1.3385 -2.1381
55051SOL     OW71115  10.071   2.345   8.288 -0.1642 -0.5100 -0.5165
55051SOL    HW171116   9.976   2.336   8.295  0.0353 -2.8896 -0.1458
55051SOL    HW271117  10.095   2.289   8.215  1.1140 -1.2857  0.4678
55052SOL     OW71118   4.030   8.031   7.103  0.6368 -0.2372 -0.2249
55052SOL    HW171119   4.070   8.112   7.133  0.0032 -0.0087  0.0198
55052SOL    HW271120   3.949   8.024   7.155  0.3165 -0.6371 -0.7746
55053SOL     OW71121  10.672   2.721   8.100  0.4517  0.3879 -0.0846
55053SOL    HW171122  10.723   2.801   8.082  1.0850  0.1155  0.4182
55053SOL    HW271123  10.725   2.650   8.063  0.0718  0.1646 -0.2027
55054SOL     OW71124   1.908   5.684   3.494  0.1804 -0.1367  0.1739
55054SOL    HW171125   1.961   5.763   3.508 -0.5253  0.4099 -0.2084
55054SOL    HW271126   1.951   5.617   3.548  1.2985  0.2735 -0.1824
55055SOL     OW71127   6.914   5.907   1.024  0.5146  0.1435  0.1830
55055SOL    HW171128   6.891   5.969   1.094  0.3769 -0.0235  0.2854
55055SOL    HW271129   7.009   5.915   1.017  0.5504  0.0403  0.5065
55056SOL     OW71130   7.391   4.699   9.708 -0.2026  0.6701  0.2158
55056SOL    HW171131   7.437   4.748   9.640  1.1091 -0.0957  0.5130
55056SOL    HW271132   7.310   4.670   9.667  0.6150  0.1262 -1.0676
55057SOL     OW71133   6.471   3.495  12.112 -0.2193  0.1375  0.0842
55057SOL    HW171134   6.555   3.457  12.084 -0.3677 -0.3890  0.3464
55057SOL    HW271135   6.412   3.478  12.039  0.1531  1.4339 -0.5548
55058SOL     OW71136   3.397   0.300   5.716 -0.8357 -0.0916 -0.4934
55058SOL    HW171137   3.325   0.294   5.654 -0.0853 -2.4898 -1.2459
55058SOL    HW271138   3.397   0.216   5.762 -0.4768  1.0742  1.7847
55059SOL     OW71139  10.363  11.082   8.942  0.2850  0.3699 -0.0286
55059SOL    HW171140  10.312  11.155   8.976 -0.2746  0.5290 -1.1784
55059SOL    HW271141  10.452  11.099   8.973 -0.0827  0.8360  0.8046
55060SOL     OW71142   0.430   0.101  11.357  0.2393 -0.2278  0.0764
55060SOL    HW171143   0.407   0.044  11.284  0.9853 -1.6616  0.9055
55060SOL    HW271144   0.512   0.144  11.330  0.3971 -0.5891 -0.0211
55061SOL     OW71145  12.205   1.127   0.810 -0.0438 -0.0298  0.0072
55061SOL    HW171146  12.177   1.077   0.887 -1.1457  0.5149 -0.0206
55061SOL    HW271147  12.202   1.064   0.738 -0.2830 -0.2143  0.1768
55062SOL     OW71148   6.889  10.692   3.861 -0.4017  0.3200  0.4306
55062SOL    HW171149   6.839  10.648   3.929 -1.3948 -0.2915 -0.6646
55062SOL    HW271150   6.938  10.623   3.818 -2.7282 -0.0193 -1.9553
55063SOL     OW71151   0.411   9.953   1.551 -0.3972  0.0137  0.3441
55063SOL    HW171152   0.483   9.988   1.603 -0.3916 -0.7776  0.8875
55063SOL    HW271153   0.452   9.927   1.468 -0.6030  2.3361 -0.5696
55064SOL     OW71154   1.779   3.132   0.855  0.8727 -0.3209 -0.2913
55064SOL    HW171155   1.842   3.061   0.863  0.4734 -0.7819 -1.1540
55064SOL    HW271156   1.800   3.175   0.772  1.2666  0.7318  0.3316
55065SOL     OW71157   7.190   5.606   9.387  0.1111  0.2292  0.3055
55065SOL    HW171158   7.189   5.589   9.481  0.5735  0.6420  0.3938
55065SOL    HW271159   7.120   5.551   9.351  0.7464 -0.8855  0.7240
55066SOL     OW71160  12.195  10.594   6.861 -0.1049 -0.5950  0.0746
55066SOL    HW171161  12.143  10.656   6.811  0.0907 -1.5706 -1.4102
55066SOL    HW271162  12.186  10.511   6.814 -1.1649 -1.9898  2.5312
55067SOL     OW71163   1.710  10.863   3.848  0.3889 -0.1656  0.0257
55067SOL    HW171164   1.708  10.942   3.901  2.8683  1.2358 -1.7532
55067SOL    HW271165   1.688  10.892   3.760  1.3409 -1.4292 -0.6648
55068SOL     OW71166  11.496   0.808   8.780 -0.2679 -0.1696  0.9034
55068SOL    HW171167  11.558   0.867   8.737  0.4554 -1.0109  0.7677
55068SOL    HW271168  11.517   0.814   8.873 -0.2614 -0.1323  0.8995
55069SOL     OW71169   0.125   5.372   5.858 -0.0303  0.8402  0.0575
55069SOL    HW171170   0.060   5.302   5.854 -0.0116  0.8652 -0.6673
55069SOL    HW271171   0.106   5.429   5.784  1.9388 -0.1442 -1.2961
55070SOL     OW71172   3.207   1.888   8.724  0.3795  0.0854 -0.3068
55070SOL    HW171173   3.228   1.831   8.650 -0.1217 -1.1123  0.4441
55070SOL    HW271174   3.274   1.957   8.720  1.6576 -1.1151 -0.6375
55071SOL     OW71175   4.034   5.066  11.258 -0.0607  0.1728 -0.3724
55071SOL    HW171176   4.061   5.155  11.279 -1.1170  0.7513 -1.3058
55071SOL    HW271177   4.089   5.010  11.312  0.2305  1.4092  0.6526
55072SOL     OW71178   9.465  11.221   0.834 -0.3529  0.7605 -0.0441
55072SOL    HW171179   9.383  11.271   0.834 -0.4236  0.7228  1.7671
55072SOL    HW271180   9.528  11.278   0.790 -1.1796  1.0512 -0.9088
55073SOL     OW71181  12.169   8.712   5.805  0.0912 -0.4379 -0.3227
55073SOL    HW171182  12.228   8.757   5.746  0.2728 -1.9110 -1.2933
55073SOL    HW271183  12.081   8.740   5.778  0.2396  3.1813  2.2618
55074SOL     OW71184  11.042  12.491   8.721 -0.0895 -0.0696 -0.9842
55074SOL    HW171185  11.078  12.568   8.678  0.0791 -0.2382 -1.1502
55074SOL    HW271186  10.997  12.525   8.798  1.1627  0.0749 -0.2909
55075SOL     OW71187   4.521   8.564   2.096  0.3304 -0.0391 -0.3095
55075SOL    HW171188   4.550   8.624   2.164 -0.2925 -0.5708  0.4375
55075SOL    HW271189   4.596   8.505   2.084  0.6583  0.4123 -0.5059
55076SOL     OW71190   7.539   8.227   7.157 -0.1615  0.1194  0.1881
55076SOL    HW171191   7.566   8.155   7.100  0.9452  0.6258  0.0421
55076SOL    HW271192   7.447   8.210   7.176  0.3151 -1.8312  0.9047
55077SOL     OW71193  10.867   1.038  10.985 -0.3247  0.3390 -0.6647
55077SOL    HW171194  10.823   1.043  10.900 -0.4728  0.2704 -0.5916
55077SOL    HW271195  10.868   0.944  11.006 -2.0137  0.5122  0.3186
55078SOL     OW71196   9.025   4.439   5.431  0.3809  0.4622 -0.2361
55078SOL    HW171197   9.023   4.419   5.337 -0.6205 -0.2959 -0.0776
55078SOL    HW271198   8.953   4.387   5.467  1.3098  0.0616  1.0956
55079SOL     OW71199  11.732   3.875  11.867  0.4167 -0.0912  0.0466
55079SOL    HW171200  11.807   3.928  11.842  0.2984  0.8150  1.4814
55079SOL    HW271201  11.756   3.839  11.953  0.4686 -2.3331 -0.8331
55080SOL     OW71202   2.410  11.693   3.916 -0.4146  0.4111 -0.5671
55080SOL    HW171203   2.317  11.686   3.938 -0.1170  1.0848  1.0667
55080SOL    HW271204   2.437  11.603   3.898 -1.3860  0.2117 -1.0647
55081SOL     OW71205   2.746   6.630   1.853 -0.3843 -0.3164  0.0414
55081SOL    HW171206   2.736   6.584   1.936 -1.1905 -0.4613 -0.1287
55081SOL    HW271207   2.680   6.591   1.795  1.2352 -1.3584 -1.2016
55082SOL     OW71208   2.208   9.898   9.782  0.5326  0.6787  0.2797
55082SOL    HW171209   2.272   9.845   9.733  0.8631  0.3766  1.0109
55082SOL    HW271210   2.126   9.887   9.734  0.8036  0.2352 -0.1000
55083SOL     OW71211   0.538   0.258   1.604 -0.1134  0.3113  0.1082
55083SOL    HW171212   0.520   0.200   1.678  0.0016 -0.3507 -0.3763
55083SOL    HW271213   0.452   0.273   1.564 -0.5262  2.4155  1.6139
55084SOL     OW71214   3.079   5.637   5.345  0.0871  0.9738 -0.6464
55084SOL    HW171215   2.993   5.613   5.382  0.7491 -0.0829  0.2855
55084SOL    HW271216   3.058   5.683   5.264 -1.3937 -2.4049 -2.4181
55085SOL     OW71217   1.811   1.197   3.161  0.5823  0.3251  0.0609
55085SOL    HW171218   1.762   1.201   3.078  1.2111 -1.5725 -0.4483
55085SOL    HW271219   1.856   1.113   3.158  0.1476 -0.0649  2.6234
55086SOL     OW71220  10.743  10.056   9.935  0.2093 -0.0940 -0.2504
55086SOL    HW171221  10.774   9.971   9.964  0.0879 -0.6040 -1.5694
55086SOL    HW271222  10.684  10.037   9.862  0.6715  1.1426 -0.9836
55087SOL     OW71223   2.592   5.262   9.379 -0.1384  0.3288 -0.4365
55087SOL    HW171224   2.584   5.180   9.427  1.6625  1.6600  2.4567
55087SOL    HW271225   2.651   5.242   9.306 -1.4314 -1.3503 -1.0812
55088SOL     OW71226   9.699   3.611  10.236  0.6117  0.3391  0.3535
55088SOL    HW171227   9.752   3.538  10.266 -0.4712 -0.0684  1.3394
55088SOL    HW271228   9.746   3.645  10.160  1.9317 -0.4018  0.8105
55089SOL     OW71229  11.012   7.659  12.258  0.5490  0.5537  0.1173
55089SOL    HW171230  11.066   7.737  12.242  1.1543  0.2536  0.6713
55089SOL    HW271231  10.922   7.693  12.260  0.6584  0.9723 -1.3723
55090SOL     OW71232   9.164   9.816  12.106  0.1026 -0.0565  0.2188
55090SOL    HW171233   9.186   9.879  12.175 -0.8220 -0.1001  0.5759
55090SOL    HW271234   9.245   9.804  12.056  0.9742 -0.4766  1.6662
55091SOL     OW71235   3.834  10.178   6.974  0.3351 -0.1785 -0.0514
55091SOL    HW171236   3.929  10.190   6.971  0.2834  0.5686  0.7632
55091SOL    HW271237   3.805  10.195   6.885  1.1606 -2.3734 -0.7888
55092SOL     OW71238   3.456   5.206   8.112 -0.2208  0.8094 -0.4795
55092SOL    HW171239   3.383   5.148   8.137 -1.8686  2.2941 -1.6148
55092SOL    HW271240   3.416   5.292   8.100  1.6846  1.6284 -1.4499
55093SOL     OW71241  11.632   5.148   2.280 -0.2539 -0.1836  0.6445
55093SOL    HW171242  11.642   5.233   2.323  0.7528 -0.0753  0.2124
55093SOL    HW271243  11.538   5.130   2.286 -0.5045  1.0087  0.6331
55094SOL     OW71244   3.743   1.778  12.324  0.2318 -0.3499 -0.5436
55094SOL    HW171245   3.736   1.724  12.403 -0.4940 -1.6667 -1.4695
55094SOL    HW271246   3.833   1.766  12.295  0.5365  0.2256  0.1178
55095SOL     OW71247   8.529  11.028   3.385 -0.5283 -0.4948  0.1688
55095SOL    HW171248   8.440  11.034   3.419 -0.5492  0.9175 -0.0524
55095SOL    HW271249   8.522  11.056   3.294  0.0753 -0.7729  0.0306
55096SOL     OW71250   1.253   1.867  10.665  0.3900  0.3953 -0.5469
55096SOL    HW171251   1.275   1.901  10.578  0.0857  0.4356 -0.6083
55096SOL    HW271252   1.222   1.943  10.714 -0.6201  0.1654 -0.7924
55097SOL     OW71253   7.104   7.687   1.203  0.5088  0.0467  0.3093
55097SOL    HW171254   7.057   7.603   1.210  0.3027  0.2862  2.7974
55097SOL    HW271255   7.146   7.684   1.117 -1.7616 -1.3868 -0.8549
55098SOL     OW71256   9.125   3.159   4.541  0.4962 -0.1828  0.2566
55098SOL    HW171257   9.095   3.105   4.614  0.8449 -0.0372  0.5090
55098SOL    HW271258   9.128   3.248   4.577  1.1080 -0.1773  0.1949
55099SOL     OW71259   5.271   7.376   2.125  0.0108 -0.1854  0.1279
55099SOL    HW171260   5.217   7.296   2.123  1.6895 -1.3635 -0.5465
55099SOL    HW271261   5.361   7.344   2.130  0.6808  1.7257  1.7924
55100SOL     OW71262   4.368   8.171   0.485  0.0403 -0.4772  0.1290
55100SOL    HW171263   4.387   8.116   0.561  1.8247 -3.1656 -2.0790
55100SOL    HW271264   4.369   8.111   0.411 -0.2842  2.2173 -2.2255
55101SOL     OW71265   6.361   1.468   7.660  0.2437 -0.4410 -0.0406
55101SOL    HW171266   6.397   1.398   7.607  1.9463 -0.1199  0.6242
55101SOL    HW271267   6.431   1.491   7.721 -0.5773  1.2464  0.3355
55102SOL     OW71268   8.931   7.231   5.782  0.2487 -0.2268  0.4222
55102SOL    HW171269   8.896   7.142   5.781 -2.4772  0.6803  2.5376
55102SOL    HW271270   8.881   7.277   5.714  0.2214  0.1629  0.7060
55103SOL     OW71271   8.146   5.407   7.594  0.6575  0.1081 -0.0314
55103SOL    HW171272   8.080   5.428   7.528 -0.4357 -1.1830  0.6071
55103SOL    HW271273   8.118   5.454   7.673  0.4510 -0.4805  0.2555
55104SOL     OW71274  11.116   1.918   4.986  0.0853  0.4104 -0.1169
55104SOL    HW171275  11.134   1.965   4.904  1.9870 -1.3285 -0.7760
55104SOL    HW271276  11.168   1.963   5.052 -0.2684  0.8860 -0.1546
55105SOL     OW71277  12.170   6.044   4.305 -0.6632  0.0031  0.4739
55105SOL    HW171278  12.080   6.060   4.332 -0.4719 -0.9370  1.7472
55105SOL    HW271279  12.167   6.044   4.209 -2.2975 -1.4695  0.4762
55106SOL     OW71280   1.035  10.937   5.473 -0.2646 -0.4762 -0.3793
55106SOL    HW171281   1.068  10.847   5.476  0.1396 -0.3244 -0.1627
55106SOL    HW271282   0.980  10.944   5.552  0.4502 -0.2515  0.1020
55107SOL     OW71283   6.918   4.459  10.335 -0.1805 -0.7878 -0.1468
55107SOL    HW171284   6.990   4.519  10.315 -1.4197  1.3960  1.4273
55107SOL    HW271285   6.928   4.439  10.428 -2.1783  0.5396  0.4266
55108SOL     OW71286   0.472   0.139  10.321  0.1322  0.0382  0.2206
55108SOL    HW171287   0.410   0.112  10.389  1.2323 -1.3735  0.7360
55108SOL    HW271288   0.509   0.221  10.353  0.6328 -0.6051  1.3716
55109SOL     OW71289  11.532   2.903  12.183 -0.5058  0.5274  0.0573
55109SOL    HW171290  11.494   2.986  12.212  0.5589  1.3773 -0.8598
55109SOL    HW271291  11.601   2.885  12.247 -0.9192  0.1911  0.4146
55110SOL     OW71292   7.219  12.369   8.172 -0.3030  0.9212  0.1200
55110SOL    HW171293   7.309  12.403   8.176  0.3363 -0.7686  0.7228
55110SOL    HW271294   7.164  12.445   8.192  0.9066  2.2484 -1.3114
55111SOL     OW71295  12.396   1.614   0.096 -0.1528  0.1801 -0.5095
55111SOL    HW171296  12.407   1.569   0.012 -1.6907  0.4003 -0.8405
55111SOL    HW271297  12.462   1.683   0.094  0.1830 -0.1396 -1.3001
55112SOL     OW71298  11.645  10.760   3.284 -0.6020 -0.3503  0.4724
55112SOL    HW171299  11.555  10.790   3.301 -0.1528  1.9287 -0.7899
55112SOL    HW271300  11.683  10.828   3.229  1.1281 -2.5294 -1.1823
55113SOL     OW71301   4.258   0.380  12.317 -0.4024  0.4565  0.3195
55113SOL    HW171302   4.329   0.416  12.370  1.6642  1.9144 -3.0870
55113SOL    HW271303   4.186   0.440  12.329  0.6569  1.8178  0.0870
55114SOL     OW71304   4.667   7.764   2.787  0.4282  0.2580  0.1057
55114SOL    HW171305   4.631   7.675   2.780  0.4199  0.3446 -1.1947
55114SOL    HW271306   4.620   7.814   2.720  0.0696  1.3830  1.1598
55115SOL     OW71307   0.065   2.035  10.388 -0.4647 -0.0181  0.6604
55115SOL    HW171308   0.059   1.941  10.405  1.6858 -0.8748 -2.4562
55115SOL    HW271309   0.137   2.065  10.443 -0.4540 -0.4179  0.8671
55116SOL     OW71310   1.975  10.884   9.986  1.0758 -0.7694 -0.7015
55116SOL    HW171311   1.955  10.879  10.079  0.7816  0.1025 -0.7154
55116SOL    HW271312   2.005  10.796   9.964  0.0886 -1.2913 -0.0351
55117SOL     OW71313  10.362   2.310   1.014  0.5020 -0.1919  0.3136
55117SOL    HW171314  10.325   2.394   1.043 -0.7472 -0.0958 -1.4188
55117SOL    HW271315  10.431   2.334   0.953 -1.5322 -0.3262 -2.2038
55118SOL     OW71316   0.231   8.952   7.996 -0.1398  0.0307 -0.9256
55118SOL    HW171317   0.276   9.005   7.930  1.0213 -0.1790 -0.3197
55118SOL    HW271318   0.159   9.007   8.026  0.0980  0.6322 -1.4465
55119SOL     OW71319   8.346   8.411   4.358 -0.6721  0.2172  0.7799
55119SOL    HW171320   8.256   8.382   4.372 -0.6883  0.3479  0.9568
55119SOL    HW271321   8.373   8.368   4.278 -0.9515  0.3102  0.6336
55120SOL     OW71322   1.543   0.125   8.781 -0.7168 -0.6743  0.2705
55120SOL    HW171323   1.543   0.209   8.828 -0.8736  0.8523 -2.2637
55120SOL    HW271324   1.451   0.111   8.758 -0.7785 -1.8942  1.1804
55121SOL     OW71325   7.885   1.889   7.131 -0.0401 -0.4610 -0.0753
55121SOL    HW171326   7.973   1.867   7.159  0.0843  0.1906  0.0570
55121SOL    HW271327   7.837   1.906   7.212 -0.6062 -1.9129 -0.0699
55122SOL     OW71328  11.540   8.511  11.129 -0.3297  0.1630 -0.0660
55122SOL    HW171329  11.533   8.444  11.062 -0.5582  0.2089 -0.0880
55122SOL    HW271330  11.469   8.492  11.191  0.0725 -0.0676  0.3285
55123SOL     OW71331  11.885   8.421  10.710 -0.0308 -0.5329 -0.3569
55123SOL    HW171332  11.793   8.430  10.736  0.0597  2.7157 -0.6838
55123SOL    HW271333  11.934   8.431  10.792  0.0554 -0.0485 -0.4644
55124SOL     OW71334   2.313  11.454   5.419 -0.2244  0.2364  0.6536
55124SOL    HW171335   2.374  11.495   5.479  0.5419 -0.3310  0.2818
55124SOL    HW271336   2.365  11.433   5.341 -1.0224  0.2720  0.0891
55125SOL     OW71337   5.898   6.606   3.843 -0.0470  0.4358 -0.1439
55125SOL    HW171338   5.827   6.555   3.881 -0.4190  0.9937 -0.0776
55125SOL    HW271339   5.944   6.643   3.918  0.0210  0.4701 -0.2020
55126SOL     OW71340   3.768  11.493   3.565  0.5737  0.4383 -0.0269
55126SOL    HW171341   3.697  11.517   3.624  1.5362  0.0236  1.3410
55126SOL    HW271342   3.847  11.529   3.605  1.7869 -2.9881  1.0128
55127SOL     OW71343   9.215  11.413   8.875  0.2737  0.7645 -0.3064
55127SOL    HW171344   9.146  11.376   8.929 -0.0375 -0.1204 -1.2666
55127SOL    HW271345   9.179  11.410   8.786  1.7414 -0.2413 -0.8979
55128SOL     OW71346   3.041   5.592  11.570  0.0341 -0.9207  0.8351
55128SOL    HW171347   3.065   5.596  11.662 -1.6459 -2.1458  1.3585
55128SOL    HW271348   3.125   5.582  11.524  0.7970 -1.4572  2.3036
55129SOL     OW71349  12.069  11.615   6.000  0.6230  0.0964 -0.0861
55129SOL    HW171350  12.082  11.613   5.906  0.7959 -1.7799 -0.0523
55129SOL    HW271351  12.134  11.554   6.035  0.5472  0.7416  1.2508
55130SOL     OW71352   5.814   7.030  10.529 -0.7576  0.3343  0.2659
55130SOL    HW171353   5.754   7.099  10.498 -0.7671  0.6515  0.9738
55130SOL    HW271354   5.776   7.000  10.611  0.0192  0.4950  0.6928
55131SOL     OW71355   1.456   8.793   2.858 -0.1027  0.4584  0.3556
55131SOL    HW171356   1.385   8.778   2.795 -0.3876 -1.3064  1.0400
55131SOL    HW271357   1.411   8.818   2.939  0.1009  0.1782  0.5566
55132SOL     OW71358   7.208   2.768   1.866  0.1943 -0.7725 -0.2288
55132SOL    HW171359   7.193   2.676   1.885 -2.1474 -0.1964  1.0446
55132SOL    HW271360   7.150   2.788   1.792 -2.7575  0.5713  2.2270
55133SOL     OW71361   3.165   2.151   4.078  0.1366  0.3118  0.1009
55133SOL    HW171362   3.168   2.207   4.155 -1.8020  0.0823  0.3859
55133SOL    HW271363   3.218   2.075   4.101  0.5294  0.7732  0.7485
55134SOL     OW71364   3.199  10.624   3.011 -0.2673  0.0222 -0.0717
55134SOL    HW171365   3.123  10.663   3.054 -1.1446 -1.0299 -0.6341
55134SOL    HW271366   3.209  10.675   2.930 -1.3542 -0.7983 -0.7570
55135SOL     OW71367   2.829  10.965  11.538 -0.0383 -0.6649 -0.0808
55135SOL    HW171368   2.827  11.060  11.526  1.2811 -0.7191 -0.9404
55135SOL    HW271369   2.749  10.934  11.498 -0.5112  0.0875  0.2535
55136SOL     OW71370   1.854   1.402   9.342  0.4867  0.3841 -0.1399
55136SOL    HW171371   1.945   1.396   9.370  0.1240 -0.6914  0.8874
55136SOL    HW271372   1.858   1.413   9.247  1.6838  0.6390 -0.0724
55137SOL     OW71373   8.347  11.373   3.472  0.2841 -0.4887  0.3948
55137SOL    HW171374   8.356  11.459   3.431 -0.4020 -0.7780 -0.3674
55137SOL    HW271375   8.405  11.378   3.549  1.1614  0.2426 -0.2886
55138SOL     OW71376   3.717  10.150   7.376  0.1474  0.5497  0.2655
55138SOL    HW171377   3.629  10.158   7.413 -0.2334 -0.4137 -0.3837
55138SOL    HW271378   3.774  10.146   7.453 -0.2388  2.2760  0.6834
55139SOL     OW71379   2.487   6.545   5.047 -0.2882  0.4826 -0.5804
55139SOL    HW171380   2.446   6.458   5.046 -1.8774  1.1977 -1.0082
55139SOL    HW271381   2.554   6.540   4.979  2.4232 -1.6060  1.9968
55140SOL     OW71382   9.730  10.147   2.790 -0.0391  0.2745 -0.5349
55140SOL    HW171383   9.815  10.135   2.747  0.4157  0.4639  0.3026
55140SOL    HW271384   9.702  10.059   2.814  0.2599  0.2761 -0.1748
55141SOL     OW71385  11.987   9.026   4.895  0.8629 -0.4505  0.4305
55141SOL    HW171386  12.072   8.990   4.871  0.8218 -0.4589  0.3002
55141SOL    HW271387  11.932   9.010   4.819  0.7713 -0.3545  0.4769
55142SOL     OW71388  12.378  10.829   9.463 -0.0741  0.5115  0.1555
55142SOL    HW171389  12.450  10.889   9.444 -1.2037  1.3754 -1.7001
55142SOL    HW271390  12.303  10.886   9.481 -0.7415 -0.3627  0.2304
55143SOL     OW71391   4.066   5.571   6.994 -0.4586 -0.0515 -0.0272
55143SOL    HW171392   4.122   5.510   6.945  0.0435 -1.6979  2.4226
55143SOL    HW271393   4.007   5.607   6.928  0.3143 -1.9499 -1.8830
55144SOL     OW71394   9.928  12.347   0.004 -0.4491  0.0174 -0.1552
55144SOL    HW171395   9.986  12.412  -0.036 -1.0038  0.1247 -0.7905
55144SOL    HW271396   9.913  12.380   0.093  0.3459  0.0560 -0.0212
55145SOL     OW71397   6.036   4.242   8.621 -0.3793  0.3370  0.1195
55145SOL    HW171398   6.077   4.161   8.590  1.4597  2.2320 -2.8694
55145SOL    HW271399   5.944   4.233   8.595 -0.1725 -0.7235 -0.3157
55146SOL     OW71400  10.087   4.397   9.520 -0.0886  0.3293 -0.5664
55146SOL    HW171401  10.124   4.417   9.434  0.5181 -0.3434 -0.4748
55146SOL    HW271402  10.095   4.302   9.528  0.6148  0.4669  0.5611
55147SOL     OW71403  11.409   4.904   3.374 -0.1726  0.0938  0.0670
55147SOL    HW171404  11.327   4.952   3.360 -1.7426 -2.6191 -0.6767
55147SOL    HW271405  11.431   4.868   3.288  1.7013  0.5595  0.3145
55148SOL     OW71406   9.645  11.308   9.583 -0.3214  0.3770 -0.0677
55148SOL    HW171407   9.619  11.217   9.568  0.6343 -0.1704  1.3941
55148SOL    HW271408   9.583  11.360   9.531 -2.0063 -1.0279  0.4421
55149SOL     OW71409   3.367   1.425   7.385 -0.2702  0.5487  0.3771
55149SOL    HW171410   3.372   1.349   7.443 -0.2380  0.3005  0.0475
55149SOL    HW271411   3.322   1.394   7.307 -1.4019  1.1932  0.7507
55150SOL     OW71412   8.119   1.012  10.390 -0.2402  0.4689  0.1182
55150SOL    HW171413   8.046   1.055  10.435 -0.4547  0.2592 -0.0315
55150SOL    HW271414   8.080   0.935  10.350 -0.0970  0.7916 -0.6494
55151SOL     OW71415  10.121  10.007   0.741  0.7425 -0.1599  0.3529
55151SOL    HW171416  10.034  10.014   0.703  0.9270  2.2660  0.2229
55151SOL    HW271417  10.180  10.004   0.665  0.9311  1.6971  0.3789
55152SOL     OW71418   1.335   3.840   5.325  0.3022 -0.1406 -0.1477
55152SOL    HW171419   1.333   3.935   5.315 -0.8249 -0.2535 -1.1220
55152SOL    HW271420   1.275   3.823   5.397  1.2073 -0.0696  0.6527
55153SOL     OW71421  11.897   5.593   2.884  0.2473  0.2221  0.3647
55153SOL    HW171422  11.827   5.528   2.891  1.6893 -1.5549 -0.7864
55153SOL    HW271423  11.854   5.669   2.843 -1.0530 -0.7391 -0.1493
55154SOL     OW71424  12.043  10.048  11.930 -0.1678 -0.4112 -0.5524
55154SOL    HW171425  12.022   9.955  11.918 -0.6160 -0.1203 -2.2920
55154SOL    HW271426  11.965  10.094  11.900  0.4522  0.5551 -0.7010
55155SOL     OW71427   0.067   2.650   8.007  0.3308  0.0587  0.0403
55155SOL    HW171428   0.050   2.578   8.067  0.2204  0.3653  0.3809
55155SOL    HW271429   0.159   2.673   8.023 -0.1282  1.1667  1.2248
55156SOL     OW71430   8.326   2.140   3.913 -0.6873 -0.2704 -0.1463
55156SOL    HW171431   8.279   2.166   3.992  0.6531  1.6195  0.1099
55156SOL    HW271432   8.277   2.066   3.879 -3.1796  0.8943  0.6744
55157SOL     OW71433   0.000   1.866  11.753  0.1275  0.0856 -0.1535
55157SOL    HW171434   0.044   1.882  11.669  1.2301 -0.6775  0.2584
55157SOL    HW271435   0.070   1.835  11.811 -1.0490 -1.8020  0.3436
55158SOL     OW71436   1.010   9.570   6.113  0.1895  0.1203 -0.0661
55158SOL    HW171437   0.923   9.536   6.089  0.4445 -0.2243 -0.5247
55158SOL    HW271438   1.051   9.498   6.161  0.7803 -0.2816 -1.1511
55159SOL     OW71439   7.197   5.188   7.299  0.4482 -0.3861  0.1187
55159SOL    HW171440   7.170   5.212   7.211  1.6578 -1.1978 -0.5123
55159SOL    HW271441   7.288   5.217   7.305  0.8799 -1.7495  0.5140
55160SOL     OW71442   4.704   8.489   5.592  0.1288  0.2476 -0.0560
55160SOL    HW171443   4.682   8.542   5.669 -1.4364 -2.1243  1.2361
55160SOL    HW271444   4.791   8.454   5.612 -0.4639 -0.7401  0.9210
55161SOL     OW71445   6.375   0.241   5.410  0.0239  0.1600 -0.2896
55161SOL    HW171446   6.407   0.330   5.422  0.5983  0.0232 -0.7446
55161SOL    HW271447   6.439   0.200   5.351  1.8276 -1.6227  2.6102
55162SOL     OW71448   0.284   4.303  10.486  0.2977 -0.1659 -0.1637
55162SOL    HW171449   0.197   4.339  10.475  0.0951 -0.9778 -1.4765
55162SOL    HW271450   0.313   4.335  10.571 -0.9832  0.7035 -0.0279
55163SOL     OW71451   4.898   7.755   0.383  0.3992  0.0208  0.4795
55163SOL    HW171452   4.843   7.705   0.323 -0.9926  1.1064  0.7941
55163SOL    HW271453   4.870   7.728   0.470  2.1500 -1.2672  0.7019
55164SOL     OW71454  11.717   4.818  12.429 -0.2746  0.2539  0.4738
55164SOL    HW171455  11.719   4.722  12.425 -2.2161  0.1598  0.8236
55164SOL    HW271456  11.651   4.838  12.495 -1.9260  1.8264 -1.5182
55165SOL     OW71457   8.719   6.948  12.438 -0.4008 -0.0879  0.5024
55165SOL    HW171458   8.647   7.008  12.458 -2.2186 -1.3959 -1.6780
55165SOL    HW271459   8.753   6.978  12.354 -1.7834 -2.3427 -0.9812
55166SOL     OW71460   2.525   5.536   5.698  0.2470 -0.3647  0.0616
55166SOL    HW171461   2.468   5.540   5.774 -2.6580 -1.8228 -1.8314
55166SOL    HW271462   2.568   5.451   5.704  0.1165 -0.4259  0.1268
55167SOL     OW71463   8.256   9.102  11.141  0.1773  0.0775 -0.0813
55167SOL    HW171464   8.178   9.048  11.153 -0.6217  1.5362  1.8687
55167SOL    HW271465   8.243   9.144  11.056 -0.7256 -0.3808 -0.1852
55168SOL     OW71466   5.603   0.131  11.558  0.2940  0.2129  0.1171
55168SOL    HW171467   5.664   0.199  11.584 -0.6247  1.0826  0.0500
55168SOL    HW271468   5.516   0.168  11.575 -0.2223 -1.1552  0.6216
55169SOL     OW71469   3.455   9.118  11.059  0.2551  0.7070 -0.2239
55169SOL    HW171470   3.373   9.100  11.106  1.1243 -2.2617  0.3806
55169SOL    HW271471   3.428   9.161  10.978 -1.9934 -0.7442 -0.3306
55170SOL     OW71472  12.490   1.370   9.570  0.5814 -0.2695 -0.7691
55170SOL    HW171473  12.474   1.315   9.646  2.4915  1.8093  1.3245
55170SOL    HW271474  12.409   1.421   9.560 -0.9167 -2.7433 -2.2806
55171SOL     OW71475  12.017   5.139   3.379  0.2029  0.4119  0.1306
55171SOL    HW171476  12.095   5.195   3.371  0.6464  0.0748  1.7990
55171SOL    HW271477  12.050   5.059   3.420 -0.9408  0.0482  0.3586
55172SOL     OW71478   9.265  11.147   1.182 -0.2082  0.5098 -0.6299
55172SOL    HW171479   9.261  11.222   1.240  0.0201  0.8194 -1.0051
55172SOL    HW271480   9.358  11.128   1.172 -0.1790  1.1605 -1.7640
55173SOL     OW71481   8.648  11.613  10.469 -0.0688 -0.0701 -0.1113
55173SOL    HW171482   8.651  11.553  10.543  0.6089  0.7978  0.6012
55173SOL    HW271483   8.738  11.613  10.435 -0.1727  0.1917 -0.3890
55174SOL     OW71484   5.178   7.802   9.941  0.3425 -0.2116 -0.4295
55174SOL    HW171485   5.208   7.892   9.931  0.4432 -0.1878  0.1070
55174SOL    HW271486   5.186   7.783  10.034 -1.5827 -0.0915 -0.1859
55175SOL     OW71487   3.677   4.352  10.995 -0.3963  0.2609  0.0602
55175SOL    HW171488   3.734   4.276  10.982  0.4162  0.7319  0.7584
55175SOL    HW271489   3.665   4.388  10.907  1.3492  0.8119 -0.0031
55176SOL     OW71490  10.639   6.275   4.642 -0.2027  0.8928 -0.1552
55176SOL    HW171491  10.728   6.288   4.675 -0.8896 -2.2117  3.6533
55176SOL    HW271492  10.648   6.201   4.581 -0.1029  0.8326 -0.0691
55177SOL     OW71493   7.072   9.217   7.055 -0.4721  0.0624  0.3974
55177SOL    HW171494   7.035   9.246   6.972 -0.0098  0.5449  0.3452
55177SOL    HW271495   7.002   9.170   7.099 -1.3583  1.4953  0.5840
55178SOL     OW71496   7.905   3.582   2.867 -0.0706  0.1317 -0.1099
55178SOL    HW171497   7.836   3.585   2.801  1.2016  2.2955 -1.5072
55178SOL    HW271498   7.938   3.493   2.864 -0.9977 -0.1947 -1.3963
55179SOL     OW71499  11.368   9.991   2.193  0.1163  0.4077 -0.0212
55179SOL    HW171500  11.423  10.036   2.129 -1.1543  2.3623  0.1836
55179SOL    HW271501  11.347  10.058   2.258 -1.1090 -0.7350  0.8125
55180SOL     OW71502  11.326   7.115   5.590 -0.7247 -0.0346  0.2634
55180SOL    HW171503  11.274   7.041   5.557 -0.1695 -0.2651 -0.1045
55180SOL    HW271504  11.409   7.108   5.544 -0.8055  1.0567 -0.0724
55181SOL     OW71505   6.810   1.259   3.275  0.5310  0.3591 -0.2679
55181SOL    HW171506   6.721   1.230   3.298 -0.4352  1.6194 -2.1595
55181SOL    HW271507   6.801   1.353   3.259  1.8257  0.2101 -2.1422
55182SOL     OW71508   5.211   2.627   2.491  0.2380 -0.3995  0.4606
55182SOL    HW171509   5.127   2.615   2.536  0.7077  0.3354  1.5941
55182SOL    HW271510   5.264   2.552   2.517 -0.2629 -1.1871 -0.7529
55183SOL     OW71511   4.677   4.131   2.864 -0.3439  0.1424  0.6117
55183SOL    HW171512   4.757   4.173   2.831 -0.2253 -1.0940 -0.7840
55183SOL    HW271513   4.703   4.090   2.946  0.4868 -0.2893  0.1458
55184SOL     OW71514  11.493  10.250   9.480  0.5020  0.0972  0.2095
55184SOL    HW171515  11.455  10.333   9.451  2.9777  0.8043 -1.2996
55184SOL    HW271516  11.488  10.193   9.403 -1.4069 -1.3119  1.3064
55185SOL     OW71517   1.126   9.823  10.937  0.2098 -0.3798 -0.1327
55185SOL    HW171518   1.179   9.862  11.007  0.4932 -0.0353 -0.5327
55185SOL    HW271519   1.152   9.731  10.936  0.7069 -0.2378 -0.2420
55186SOL     OW71520   0.526   4.623   3.225 -0.0163  0.2893  0.1420
55186SOL    HW171521   0.486   4.559   3.284  0.9684 -1.0613 -0.5928
55186SOL    HW271522   0.523   4.581   3.139 -1.6785  2.3117 -0.9079
55187SOL     OW71523   4.886  11.119   7.575 -0.0522 -0.2200  0.2549
55187SOL    HW171524   4.868  11.033   7.613  1.7093 -1.0265 -0.6070
55187SOL    HW271525   4.965  11.106   7.522 -1.2403  1.2978 -2.0805
55188SOL     OW71526   6.091   2.350   7.392  0.4757  0.2156 -0.0400
55188SOL    HW171527   6.136   2.433   7.375  1.4009  0.1377  1.7954
55188SOL    HW271528   6.030   2.370   7.463 -1.0880 -0.1466 -1.2122
55189SOL     OW71529   0.315   0.998   6.466 -0.3876 -0.4034 -0.1497
55189SOL    HW171530   0.318   0.957   6.552  0.2829 -0.2641 -0.1047
55189SOL    HW271531   0.388   0.959   6.418 -1.0457 -0.8430 -0.8240
55190SOL     OW71532   6.313  11.057  10.889 -0.4426  0.2661  0.4969
55190SOL    HW171533   6.294  11.106  10.968  1.4149  1.3352  0.3274
55190SOL    HW271534   6.368  10.984  10.918 -2.2714 -1.1622  0.5826
55191SOL     OW71535   3.026   6.978   2.605 -0.2593  0.3352 -0.2172
55191SOL    HW171536   3.063   7.041   2.544 -0.6982  0.6509 -0.1587
55191SOL    HW271537   3.085   6.903   2.600  0.1541  0.6705 -0.4328
55192SOL     OW71538   2.607   6.361  10.456 -0.4369 -0.2356 -0.3996
55192SOL    HW171539   2.616   6.338  10.548 -0.2117  1.5081  0.0370
55192SOL    HW271540   2.520   6.400  10.449 -0.1105  0.4488 -0.7341
55193SOL     OW71541  11.876   9.785   8.766  0.0531 -0.4172  0.0024
55193SOL    HW171542  11.823   9.862   8.744 -0.3074  0.2714  2.8241
55193SOL    HW271543  11.966   9.814   8.751 -0.1899 -0.3647 -1.4427
55194SOL     OW71544   2.268  11.142  12.191  0.3151  0.2483  0.4244
55194SOL    HW171545   2.216  11.084  12.135 -0.0387  0.8007  0.1651
55194SOL    HW271546   2.235  11.125  12.279  0.2552  0.0060  0.3560
55195SOL     OW71547  10.981  10.885   3.265 -0.4564 -0.3088  0.9137
55195SOL    HW171548  11.016  10.889   3.176 -0.6159 -0.1149  0.8589
55195SOL    HW271549  11.001  10.796   3.295  2.9586  0.6879  2.0522
55196SOL     OW71550   4.103  10.409  10.661 -0.2716  0.2670 -0.1682
55196SOL    HW171551   4.010  10.387  10.654  0.1755 -1.8504 -0.3042
55196SOL    HW271552   4.113  10.447  10.748 -1.0965 -0.6078  0.3279
55197SOL     OW71553  12.409   4.739   7.901 -0.1736 -0.0763  0.2344
55197SOL    HW171554  12.338   4.732   7.837  0.4602 -2.0789 -0.3223
55197SOL    HW271555  12.418   4.651   7.937  1.0121  0.4953  1.4315
55198SOL     OW71556   9.285   0.662   7.342 -0.8279  0.6226 -0.2325
55198SOL    HW171557   9.341   0.653   7.265 -1.5849  1.2077 -0.8740
55198SOL    HW271558   9.196   0.650   7.308 -1.1720  0.9664  0.5344
55199SOL     OW71559   3.619  11.281   2.155 -0.5316 -0.3521 -0.1431
55199SOL    HW171560   3.644  11.374   2.163 -0.5855 -0.4235  1.0261
55199SOL    HW271561   3.535  11.283   2.109 -0.6757  0.2143  0.1283
55200SOL     OW71562  11.898   9.359   5.447 -0.2359 -0.0980  0.3755
55200SOL    HW171563  11.981   9.379   5.404 -0.6858  0.5122 -0.2282
55200SOL    HW271564  11.922   9.341   5.538  0.7516 -1.6862 -0.1593
55201SOL     OW71565   8.378   0.150   9.453 -0.0694 -0.1176 -0.0129
55201SOL    HW171566   8.419   0.231   9.483  0.3533  0.1836 -1.3610
55201SOL    HW271567   8.435   0.081   9.489  0.9878  0.2675 -0.8924
55202SOL     OW71568   7.761   1.248   7.099  0.2910 -0.4853 -0.1384
55202SOL    HW171569   7.697   1.269   7.031 -0.4487 -0.2437  0.6102
55202SOL    HW271570   7.751   1.319   7.164  1.1571 -0.5715  0.0996
55203SOL     OW71571   6.396   2.166   9.899 -0.5769 -0.2818  0.1249
55203SOL    HW171572   6.468   2.124   9.852 -1.0386 -0.8034 -0.1223
55203SOL    HW271573   6.342   2.205   9.831 -0.5135  0.1429  0.3138
55204SOL     OW71574   8.280   7.063   2.573  0.9373  0.0583 -0.6214
55204SOL    HW171575   8.326   7.146   2.563 -1.7819  1.6190 -1.3445
55204SOL    HW271576   8.279   7.024   2.486  0.1845  0.4535 -0.7949
55205SOL     OW71577   9.957  11.093   4.378 -0.3031  0.0652 -0.4766
55205SOL    HW171578  10.011  11.103   4.299 -0.9916  1.1679 -0.8200
55205SOL    HW271579   9.867  11.095   4.346 -0.5827 -1.1362  0.1688
55206SOL     OW71580  11.496   2.226  11.396 -0.5202  0.2464 -0.2463
55206SOL    HW171581  11.433   2.297  11.413  0.4697  0.9098  0.8074
55206SOL    HW271582  11.463   2.152  11.447  0.3560  1.0762  1.6401
55207SOL     OW71583   0.108  12.404  12.162 -0.5885  0.0502 -0.7660
55207SOL    HW171584   0.039  12.422  12.226  0.4608  0.2892  0.3285
55207SOL    HW271585   0.061  12.375  12.084 -2.0250  1.7550 -0.6025
55208SOL     OW71586  12.097   1.940  10.793 -0.3305  0.4478 -0.2435
55208SOL    HW171587  12.055   1.854  10.785  0.5938  0.0798 -1.4195
55208SOL    HW271588  12.054   1.980  10.869 -1.9678 -0.3695 -0.6743
55209SOL     OW71589   1.984   9.774   2.395  0.3348  0.5647 -0.3915
55209SOL    HW171590   1.990   9.868   2.376  0.0558  0.0982 -3.1639
55209SOL    HW271591   2.058   9.735   2.347  1.0229 -0.5889  1.4790
55210SOL     OW71592   7.785   6.474   9.978 -0.0867  0.4722  0.0312
55210SOL    HW171593   7.806   6.385  10.005  1.0718  1.3617  2.4173
55210SOL    HW271594   7.867   6.507   9.940 -0.6609  0.4008 -1.3282
55211SOL     OW71595   9.843   8.399   2.164  0.3804  1.0612 -0.0556
55211SOL    HW171596   9.898   8.329   2.200  0.1100  0.3687 -0.9401
55211SOL    HW271597   9.773   8.352   2.118  1.7913  1.7906 -3.2362
55212SOL     OW71598   5.385   1.028   3.533 -0.1186 -0.1534  0.0281
55212SOL    HW171599   5.359   1.119   3.543 -2.6822 -0.7316 -0.5550
55212SOL    HW271600   5.413   1.020   3.441  1.5658  0.3139  0.4658
55213SOL     OW71601  11.214   6.823   5.090 -0.4341 -0.2556  0.5270
55213SOL    HW171602  11.178   6.910   5.074 -2.4679 -0.3943  3.5481
55213SOL    HW271603  11.204   6.777   5.006  1.4809  2.5473 -1.4013
55214SOL     OW71604   1.054   2.582   0.732  0.0885  0.0384  0.3252
55214SOL    HW171605   1.036   2.509   0.792 -2.4075 -0.1356 -0.4959
55214SOL    HW271606   1.020   2.552   0.648  2.2699  0.8177 -0.9027
55215SOL     OW71607  12.094   1.752  10.559 -0.1664  0.2648 -0.5589
55215SOL    HW171608  12.171   1.713  10.516  0.7346  1.8208 -0.4615
55215SOL    HW271609  12.125   1.838  10.588 -1.6931  0.5356  0.3509
55216SOL     OW71610  11.862   9.266   8.984  0.5357 -0.4555 -0.2989
55216SOL    HW171611  11.779   9.226   8.959  0.5920 -0.0526 -1.1946
55216SOL    HW271612  11.856   9.279   9.078 -1.0409  0.9686 -0.5442
55217SOL     OW71613   6.796   6.909   3.645 -0.0933  0.5091  0.3319
55217SOL    HW171614   6.869   6.846   3.652 -1.0009 -0.3852  2.5657
55217SOL    HW271615   6.718   6.854   3.639 -1.1100  1.2094  4.2590
55218SOL     OW71616   7.943   8.024  12.263 -0.3914 -0.2148 -0.3617
55218SOL    HW171617   7.929   7.931  12.245 -2.5970 -0.0721  0.3205
55218SOL    HW271618   8.016   8.049  12.206 -0.3735 -2.1364 -1.2503
55219SOL     OW71619   3.306   2.832   6.039 -0.4656  0.0443  0.3162
55219SOL    HW171620   3.378   2.827   5.976  0.5784  0.9206  1.4020
55219SOL    HW271621   3.309   2.749   6.085  0.2585  0.3096  0.7680
55220SOL     OW71622   5.702   1.282   6.600 -0.0855 -0.2527 -0.1595
55220SOL    HW171623   5.656   1.258   6.520 -0.1449  2.0580 -0.8947
55220SOL    HW271624   5.794   1.288   6.573 -0.1628  0.9876 -0.2226
55221SOL     OW71625   3.810   0.165   4.746 -0.3726  0.4111  0.1833
55221SOL    HW171626   3.904   0.157   4.763 -0.1316  3.8572  1.3284
55221SOL    HW271627   3.802   0.246   4.696 -2.7760  0.2676  0.2204
55222SOL     OW71628   7.622   0.811  11.497 -0.3924 -0.1312 -0.0080
55222SOL    HW171629   7.647   0.869  11.425 -0.5625 -0.1949 -0.1171
55222SOL    HW271630   7.648   0.859  11.576  3.4192 -1.6311 -0.1159
55223SOL     OW71631   1.493   6.269   3.264 -0.0401 -0.2831  0.2677
55223SOL    HW171632   1.576   6.273   3.311  0.5710 -1.2844 -0.6882
55223SOL    HW271633   1.435   6.327   3.314  1.1388  0.2250  1.1045
55224SOL     OW71634   0.555   8.287   3.823  0.5787 -0.7301  0.0452
55224SOL    HW171635   0.503   8.361   3.790  1.9554  0.6839  0.9162
55224SOL    HW271636   0.588   8.245   3.743  0.7535  0.3210 -0.4577
55225SOL     OW71637   2.298   1.327   0.781 -0.0051  0.0552 -0.5001
55225SOL    HW171638   2.263   1.399   0.834 -0.6076 -1.0401  0.6577
55225SOL    HW271639   2.393   1.334   0.789 -0.0293  1.1334 -0.9980
55226SOL     OW71640  11.667   9.874  10.696  0.0572 -0.1675 -0.0049
55226SOL    HW171641  11.587   9.834  10.730 -0.3990  1.4177  0.8888
55226SOL    HW271642  11.709   9.805  10.646 -0.5980 -1.8037  1.5989
55227SOL     OW71643   3.789   6.076   9.810  0.4457  0.1850  0.6197
55227SOL    HW171644   3.743   6.065   9.893 -0.7682  0.4335  0.0054
55227SOL    HW271645   3.748   6.013   9.751  0.0532  1.2347 -0.2697
55228SOL     OW71646   1.679   5.962   7.498  0.1259 -0.1051 -0.0803
55228SOL    HW171647   1.677   5.960   7.402  1.3361 -2.8282 -0.1146
55228SOL    HW271648   1.593   5.928   7.524  0.4301 -1.0004 -0.2284
55229SOL     OW71649  11.314   1.057   8.898  0.4448  0.0574  0.3419
55229SOL    HW171650  11.309   1.083   8.806  1.3845 -0.0286  0.2502
55229SOL    HW271651  11.294   0.964   8.898 -0.1770  0.1876  0.3106
55230SOL     OW71652   0.511   6.896   5.549  0.3030  0.1327  0.1179
55230SOL    HW171653   0.576   6.957   5.514 -0.1260  1.1515  1.0310
55230SOL    HW271654   0.559   6.846   5.616  0.3635  0.2923  0.1947
55231SOL     OW71655   1.287   1.586  11.683 -0.9361  0.3195  0.0257
55231SOL    HW171656   1.203   1.572  11.726 -1.0214  1.2562  0.1942
55231SOL    HW271657   1.268   1.646  11.611 -0.7378 -1.0014 -1.1589
55232SOL     OW71658   8.776  11.804  11.052 -0.5123  0.0389  0.0622
55232SOL    HW171659   8.791  11.894  11.024  0.1370  0.7304  2.3690
55232SOL    HW271660   8.683  11.790  11.036 -0.4694  0.8339 -1.0373
55233SOL     OW71661   6.356   4.429   1.594  0.2095 -0.3841  0.2818
55233SOL    HW171662   6.324   4.466   1.677  1.5705  0.5735  0.4098
55233SOL    HW271663   6.278   4.420   1.540 -0.7223 -1.1232  1.7016
55234SOL     OW71664   4.580   8.227  11.442 -0.0731  0.1090 -0.2220
55234SOL    HW171665   4.523   8.200  11.370  0.7972 -0.7489 -0.6169
55234SOL    HW271666   4.562   8.320  11.453 -0.1927  0.2822 -1.5994
55235SOL     OW71667   8.482   1.659  12.370 -0.1895 -0.3125  0.1294
55235SOL    HW171668   8.461   1.659  12.276 -1.0890  0.2785  0.3148
55235SOL    HW271669   8.522   1.573  12.385 -1.0747 -0.8829 -0.5863
55236SOL     OW71670   7.053  12.114   2.002  0.1178  0.0271 -0.7131
55236SOL    HW171671   7.083  12.188   2.054  0.5789  0.5326 -1.6667
55236SOL    HW271672   6.958  12.123   2.000  0.0780 -0.1617  0.2716
55237SOL     OW71673   8.602  10.926   7.100  0.0361 -0.3902  0.0100
55237SOL    HW171674   8.572  10.852   7.154  1.1397  0.4297  1.8133
55237SOL    HW271675   8.549  11.000   7.130  1.7249  0.4155  1.1410
55238SOL     OW71676   6.956   2.627   8.712  0.2757  0.3730  0.6122
55238SOL    HW171677   6.944   2.533   8.723  0.5988  0.2827  0.2007
55238SOL    HW271678   6.897   2.666   8.777 -0.4899 -0.0978  0.2124
55239SOL     OW71679   7.456   0.380  11.062  0.1265 -0.3236 -0.0865
55239SOL    HW171680   7.505   0.304  11.032  0.6579 -1.0612  2.3762
55239SOL    HW271681   7.519   0.431  11.113 -0.4968  1.2538 -0.8283
55240SOL     OW71682   6.390   5.776   8.914  0.1886 -0.3556  0.0921
55240SOL    HW171683   6.409   5.698   8.861 -0.6829 -0.5746  0.0877
55240SOL    HW271684   6.313   5.752   8.965  1.2877 -0.3403  1.8658
55241SOL     OW71685   3.658   0.802   7.799 -0.4659 -0.1318  0.1124
55241SOL    HW171686   3.615   0.727   7.840  0.7517 -0.9569 -0.0737
55241SOL    HW271687   3.676   0.862   7.871  0.5335 -1.0191  0.6377
55242SOL     OW71688   1.643   9.069   3.843 -0.0484  0.0721 -0.0316
55242SOL    HW171689   1.669   9.084   3.752  0.9546 -0.9234  0.0592
55242SOL    HW271690   1.656   8.975   3.856 -0.0048  0.2312  1.1963
55243SOL     OW71691   1.857   6.853   2.704  0.0692 -0.2060 -0.0842
55243SOL    HW171692   1.770   6.891   2.697  0.4753  0.8260  0.2857
55243SOL    HW271693   1.887   6.877   2.792  0.6186 -0.7830 -0.1024
55244SOL     OW71694   3.709   7.116   2.447  0.1735  0.4730 -0.4779
55244SOL    HW171695   3.681   7.031   2.481 -0.9060  0.1573 -2.0703
55244SOL    HW271696   3.643   7.139   2.382  1.7514  1.4008 -1.8097
55245SOL     OW71697   6.321   7.807  11.166  0.1705  0.0071 -0.0020
55245SOL    HW171698   6.302   7.900  11.161  2.8899  0.5624 -2.7466
55245SOL    HW271699   6.237   7.764  11.149 -0.5652  2.0452 -1.9818
55246SOL     OW71700  12.043   2.770   6.733 -0.0612  0.4017 -0.6882
55246SOL    HW171701  12.026   2.860   6.708 -0.0055  0.1430 -1.7048
55246SOL    HW271702  12.088   2.732   6.658  0.1959 -0.3909 -0.1549
55247SOL     OW71703   8.397  11.895   6.970  0.3666  0.4753  0.3284
55247SOL    HW171704   8.438  11.976   7.001  0.3673  0.8513 -0.6321
55247SOL    HW271705   8.431  11.883   6.882 -0.1465 -0.2283  0.2207
55248SOL     OW71706  11.796   7.153   1.240  0.2961  0.4293  0.9437
55248SOL    HW171707  11.831   7.066   1.224  0.1435  0.4651  0.3951
55248SOL    HW271708  11.798   7.196   1.155 -0.4803  0.6558  1.0339
55249SOL     OW71709  11.383   4.392   4.793 -0.9550 -0.1645 -0.0208
55249SOL    HW171710  11.433   4.474   4.796  0.3835 -0.9931  1.1360
55249SOL    HW271711  11.292   4.420   4.803 -0.6258  1.2578 -0.6828
55250SOL     OW71712  10.230   6.258  10.882  0.0193 -0.3043 -0.2686
55250SOL    HW171713  10.213   6.177  10.930 -0.7724 -0.4822 -0.8281
55250SOL    HW271714  10.149   6.275  10.835  0.6185  0.1254 -1.1658
55251SOL     OW71715   2.088   7.980   9.056  0.3830  0.1372 -0.4989
55251SOL    HW171716   2.177   8.003   9.029  0.8015 -0.5434  0.2735
55251SOL    HW271717   2.099   7.906   9.115 -0.7960 -0.8711 -1.4793
55252SOL     OW71718  10.293   9.917   1.542 -0.2647  0.6940  0.7506
55252SOL    HW171719  10.232   9.981   1.578 -0.6428 -0.0818  1.5430
55252SOL    HW271720  10.238   9.859   1.490 -0.0402  0.6057  0.6110
55253SOL     OW71721   8.430  10.339   1.597 -0.4241 -0.0080 -0.1442
55253SOL    HW171722   8.421  10.250   1.565  3.5587 -1.0131  0.9735
55253SOL    HW271723   8.375  10.342   1.676  0.3923 -1.9524  0.5530
55254SOL     OW71724  10.373  12.051   6.185  0.0962  0.3250  0.2465
55254SOL    HW171725  10.334  11.970   6.220  1.4336 -0.7396 -0.6180
55254SOL    HW271726  10.357  12.117   6.252 -0.5072 -0.7934  1.2382
55255SOL     OW71727   6.485   2.879   0.178  0.3157 -0.1084 -0.1940
55255SOL    HW171728   6.431   2.846   0.249 -0.6846  2.1984  0.2193
55255SOL    HW271729   6.575   2.868   0.209 -0.0860  0.0800  1.0744
55256SOL     OW71730   1.464   9.033   4.742  0.0323 -0.3337  0.5308
55256SOL    HW171731   1.527   9.105   4.738 -0.5537  0.1592 -0.2169
55256SOL    HW271732   1.518   8.955   4.748  0.6848  0.1505  1.1654
55257SOL     OW71733   3.289  10.442   2.455  0.7982  0.0813 -0.2901
55257SOL    HW171734   3.323  10.453   2.544  0.0338 -1.1919  0.2019
55257SOL    HW271735   3.199  10.412   2.468  0.4426  0.5508 -1.5142
55258SOL     OW71736   1.560   5.622   5.991 -0.3909  0.1777 -0.4891
55258SOL    HW171737   1.595   5.546   5.945  0.7234  0.7695 -0.6593
55258SOL    HW271738   1.629   5.688   5.984 -0.6213  0.6386  1.1438
55259SOL     OW71739  10.611   7.261  10.291  0.0959 -0.4189  0.1096
55259SOL    HW171740  10.629   7.291  10.380 -1.4599 -0.8825  0.6219
55259SOL    HW271741  10.525   7.219  10.297  0.9152 -2.4249 -1.1662
55260SOL     OW71742   3.962   1.233  11.716 -0.0228 -0.4480 -0.0434
55260SOL    HW171743   4.014   1.310  11.736  0.9429 -0.9302 -0.6636
55260SOL    HW271744   3.871   1.261  11.730  0.3559  0.5764  0.4371
55261SOL     OW71745   9.959   5.156   9.765  0.3924 -0.0556 -0.3225
55261SOL    HW171746   9.908   5.169   9.844  0.1456  1.5623 -0.7191
55261SOL    HW271747   9.896   5.165   9.694  0.6818 -1.1091 -0.7252
55262SOL     OW71748   8.972   3.543   7.063  0.0341 -0.0269  0.1195
55262SOL    HW171749   9.030   3.491   7.008 -0.3125  0.0518 -0.3305
55262SOL    HW271750   8.885   3.530   7.025 -0.5146 -1.4217  1.7312
55263SOL     OW71751  12.169   8.428   2.937  0.1163  0.3875 -0.2189
55263SOL    HW171752  12.168   8.364   3.009  2.1999 -0.1740 -0.6174
55263SOL    HW271753  12.194   8.377   2.860 -0.8831  1.2139 -1.1157
55264SOL     OW71754   6.011   6.265   9.499 -0.3785  0.0230 -0.3141
55264SOL    HW171755   6.102   6.258   9.528 -1.1419  1.4167  2.8008
55264SOL    HW271756   5.991   6.179   9.463  1.5324 -1.0258  0.9554
55265SOL     OW71757   2.520   1.179   5.273 -0.1837  0.1546  0.1307
55265SOL    HW171758   2.468   1.108   5.310  0.2448 -0.6172 -0.7208
55265SOL    HW271759   2.566   1.217   5.347  1.0497 -1.6816  0.3478
55266SOL     OW71760   3.730   1.948   5.451  0.5793  0.0096  0.0930
55266SOL    HW171761   3.740   1.853   5.443 -2.2888 -0.3859  0.2143
55266SOL    HW271762   3.802   1.975   5.508  3.5038 -1.4988 -2.5881
55267SOL     OW71763   8.962  11.374   9.023 -0.4414 -0.0636  0.4491
55267SOL    HW171764   8.976  11.368   9.118  1.2677 -1.4826  0.1640
55267SOL    HW271765   8.890  11.313   9.006  0.3297 -1.0803  0.6785
55268SOL     OW71766   4.420  10.511  10.774 -0.8268 -0.0526 -0.3919
55268SOL    HW171767   4.498  10.494  10.826 -1.3380 -2.1562 -0.2353
55268SOL    HW271768   4.411  10.435  10.717 -3.5165 -0.5896  0.5796
55269SOL     OW71769   0.736   8.006   4.809 -0.0221  0.0485 -0.0500
55269SOL    HW171770   0.674   8.066   4.850  1.1417  1.1422  0.1507
55269SOL    HW271771   0.765   7.948   4.879 -2.0392 -1.5958 -0.4784
55270SOL     OW71772  11.064   8.814   5.403  0.2730  0.0467 -0.2410
55270SOL    HW171773  11.063   8.830   5.497  1.0919 -0.6969 -0.0964
55270SOL    HW271774  11.153   8.835   5.376  0.3676 -0.8207 -0.6480
55271SOL     OW71775   7.293   4.565   3.013 -0.1350  0.1943  0.1872
55271SOL    HW171776   7.294   4.470   3.019 -1.6859  0.0298 -1.1516
55271SOL    HW271777   7.200   4.588   3.017 -0.1923  1.2538 -3.4038
55272SOL     OW71778  10.578   2.655  10.835 -0.2982 -0.2306  0.0599
55272SOL    HW171779  10.666   2.687  10.819  0.4070 -1.7824  0.6473
55272SOL    HW271780  10.526   2.689  10.762  0.9202  0.1708 -0.6378
55273SOL     OW71781  12.166   8.197   3.132  0.5250 -0.3852  0.4877
55273SOL    HW171782  12.096   8.144   3.093  0.7391 -1.0176  0.9459
55273SOL    HW271783  12.146   8.197   3.226  1.4477 -1.0499  0.6989
55274SOL     OW71784   9.447  10.581  11.379 -0.2297 -0.3268  0.4271
55274SOL    HW171785   9.486  10.640  11.444 -0.0842 -1.0529  1.0104
55274SOL    HW271786   9.470  10.620  11.295 -0.2335  0.5082  0.8041
55275SOL     OW71787   1.702   1.134   6.244  0.3503  0.6399  0.3712
55275SOL    HW171788   1.657   1.214   6.219  0.3774  0.1354 -1.4196
55275SOL    HW271789   1.680   1.122   6.337 -1.6069  1.4362  0.0633
55276SOL     OW71790   8.444   7.172   4.486  0.0696 -0.5250 -0.3991
55276SOL    HW171791   8.435   7.077   4.486  3.1961 -0.9642  1.7753
55276SOL    HW271792   8.528   7.189   4.443  0.7619  1.0280  1.4377
55277SOL     OW71793  10.230   1.397   2.929 -0.6034 -0.1571 -0.4340
55277SOL    HW171794  10.321   1.373   2.950 -0.8016 -0.2762  0.3006
55277SOL    HW271795  10.184   1.313   2.920 -0.3479 -0.1430 -2.2171
55278SOL     OW71796   4.628  11.013   6.802 -0.8669  0.1668  0.0529
55278SOL    HW171797   4.648  10.980   6.714  0.8235  1.2682 -0.0252
55278SOL    HW271798   4.560  10.953   6.835 -0.5273 -1.1269 -1.4455
55279SOL     OW71799   4.431   5.067   5.160  0.2682  0.1924 -0.5079
55279SOL    HW171800   4.394   4.979   5.149  1.1571 -0.2888  0.2173
55279SOL    HW271801   4.363   5.125   5.125 -0.8034 -0.7045 -0.0090
55280SOL     OW71802   7.135   7.611   9.517  0.1974 -0.0292 -0.1829
55280SOL    HW171803   7.086   7.546   9.567 -1.4780  1.7937  0.6631
55280SOL    HW271804   7.085   7.621   9.436 -0.3771  1.1825  0.2966
55281SOL     OW71805   0.078   8.705   1.994  0.4894 -0.7430 -0.1679
55281SOL    HW171806   0.162   8.742   2.019  0.7367 -1.7607  0.5725
55281SOL    HW271807   0.071   8.721   1.900  2.5678 -2.6344 -0.7383
55282SOL     OW71808  10.231  11.208   0.372 -0.8819  0.3453 -0.0111
55282SOL    HW171809  10.321  11.234   0.393 -0.0986 -0.5525 -1.9284
55282SOL    HW271810  10.194  11.178   0.455  0.7798  0.2479  0.7278
55283SOL     OW71811   8.281   2.674   6.315 -0.1631  0.0861 -0.3364
55283SOL    HW171812   8.278   2.661   6.410  0.0365 -1.4022 -0.5109
55283SOL    HW271813   8.371   2.651   6.290 -0.2908  0.2032 -0.9216
55284SOL     OW71814   3.052   5.443   8.767 -0.1677  0.8280 -0.5095
55284SOL    HW171815   2.958   5.425   8.773  0.3941 -3.0829 -0.7608
55284SOL    HW271816   3.070   5.502   8.840 -2.4941  0.0835  0.7476
55285SOL     OW71817   3.742  11.683  10.592  0.1277  0.6436 -0.1877
55285SOL    HW171818   3.659  11.665  10.637 -0.2135  1.1538 -0.5953
55285SOL    HW271819   3.800  11.716  10.660 -0.0795  0.5109  0.0550
55286SOL     OW71820   3.249   1.456   5.548 -0.2046  0.0702 -0.2955
55286SOL    HW171821   3.311   1.413   5.607 -0.2905  0.7234  0.2762
55286SOL    HW271822   3.281   1.435   5.460  0.3788 -0.2408 -0.0141
55287SOL     OW71823   0.323   3.172   5.909 -0.0143 -0.3035 -0.5203
55287SOL    HW171824   0.271   3.092   5.914  0.8189 -0.8578 -0.3354
55287SOL    HW271825   0.291   3.218   5.832 -0.2067 -1.0417 -0.8901
55288SOL     OW71826   7.087   9.792   9.161 -0.1618  0.0068  0.1227
55288SOL    HW171827   7.115   9.866   9.108 -0.3422 -0.3703 -0.5168
55288SOL    HW271828   7.007   9.761   9.119  0.1843 -0.8646  0.0736
55289SOL     OW71829  10.598   8.130   7.857 -0.2419 -0.9684  0.0208
55289SOL    HW171830  10.598   8.153   7.950 -0.0749  0.2591 -0.2586
55289SOL    HW271831  10.539   8.195   7.817  0.2467 -1.0398 -0.8269
55290SOL     OW71832   4.466   9.123   0.185 -0.0912  0.1819 -0.1733
55290SOL    HW171833   4.439   9.084   0.102 -0.7740  1.1436 -0.4185
55290SOL    HW271834   4.546   9.171   0.164 -0.3319  0.5265 -0.3030
55291SOL     OW71835  11.285   0.535  11.665 -0.3466  0.1224  0.6640
55291SOL    HW171836  11.247   0.477  11.599  0.7905  0.6686 -0.5079
55291SOL    HW271837  11.328   0.604  11.615  1.3224  0.0701  1.9294
55292SOL     OW71838  11.992   6.293   0.069  0.0816  0.1626 -0.3411
55292SOL    HW171839  11.949   6.344   0.138 -0.1122 -1.7054  0.9965
55292SOL    HW271840  12.064   6.349   0.039 -0.0832  1.1972  1.1064
55293SOL     OW71841  11.640   9.320   4.965  1.1239 -0.5197  0.1371
55293SOL    HW171842  11.649   9.412   4.990 -0.6673 -0.0954 -0.6140
55293SOL    HW271843  11.718   9.301   4.913  2.4883 -0.0363  1.8814
55294SOL     OW71844   6.947  11.022   4.425 -0.2126  0.2523 -0.2574
55294SOL    HW171845   7.002  11.004   4.502 -2.1682 -0.3475  1.0569
55294SOL    HW271846   7.007  11.063   4.362  1.9251 -1.0959  0.7821
55295SOL     OW71847   6.608   6.285   4.981  0.0621 -0.0939 -0.1671
55295SOL    HW171848   6.657   6.204   4.989  1.4848  0.5141 -2.0412
55295SOL    HW271849   6.607   6.321   5.070  0.8908 -1.3184  0.3638
55296SOL     OW71850   3.919   6.970   4.019 -0.1515  0.9954 -0.0286
55296SOL    HW171851   3.956   7.019   4.093 -1.1949  0.8786  0.5849
55296SOL    HW271852   3.993   6.958   3.959  0.2660  2.8421  0.0543
55297SOL     OW71853   0.456   4.856   4.591  0.0231  0.4621 -0.4656
55297SOL    HW171854   0.436   4.780   4.537  1.2117 -0.4053  0.2556
55297SOL    HW271855   0.539   4.834   4.633  0.0801  1.9069  0.2402
55298SOL     OW71856   9.929   3.710  11.417 -0.5902 -0.0585  0.2588
55298SOL    HW171857   9.952   3.726  11.325 -0.3459 -0.7184  0.1988
55298SOL    HW271858   9.924   3.797  11.456  1.3584  0.1678  0.1197
55299SOL     OW71859   0.533   4.928   6.531 -0.1057  0.4985  0.0825
55299SOL    HW171860   0.474   4.867   6.486  0.2556  0.7275 -0.7312
55299SOL    HW271861   0.585   4.872   6.589 -0.5289  0.1770  0.1560
55300SOL     OW71862   7.169   2.109   2.274 -0.4729  0.0851  0.3420
55300SOL    HW171863   7.215   2.147   2.348 -1.6561 -0.5904  1.4746
55300SOL    HW271864   7.144   2.184   2.220  1.7212  0.4702 -0.2132
55301SOL     OW71865   9.592  10.093  10.249 -0.2543 -0.3704 -0.2726
55301SOL    HW171866   9.628  10.180  10.234  1.1528 -1.1734 -1.9155
55301SOL    HW271867   9.523  10.106  10.315  1.7068  1.5439  1.5388
55302SOL     OW71868   6.575   5.135   2.204 -0.6194 -0.2883  0.8392
55302SOL    HW171869   6.532   5.060   2.246 -1.2545 -0.5105 -0.1753
55302SOL    HW271870   6.562   5.208   2.265  0.8266 -1.1822  2.2925
55303SOL     OW71871   3.530   3.112   0.203  0.5688  0.0722 -0.2229
55303SOL    HW171872   3.579   3.192   0.181 -0.7235  1.0379  0.2409
55303SOL    HW271873   3.508   3.122   0.295 -0.1160 -0.5380 -0.3102
55304SOL     OW71874  10.073   8.354   8.031 -0.2167  0.3719  0.1227
55304SOL    HW171875  10.056   8.421   8.097  0.6345  0.6505  0.0754
55304SOL    HW271876  10.137   8.296   8.073  1.0577  1.0831 -0.7701
55305SOL     OW71877   7.709   2.656   5.288  0.5405 -0.3235 -0.4667
55305SOL    HW171878   7.782   2.718   5.292 -0.2778  0.5918  1.0191
55305SOL    HW271879   7.732   2.598   5.216  2.3706  0.3956 -0.5266
55306SOL     OW71880   3.650   6.549   0.925 -0.6779 -0.4832 -0.4731
55306SOL    HW171881   3.600   6.482   0.878 -0.4782  0.2661 -1.7946
55306SOL    HW271882   3.624   6.632   0.885  1.7552 -0.0678 -1.3931
55307SOL     OW71883   5.068   5.822   8.421  0.2181 -0.0084 -0.0629
55307SOL    HW171884   5.118   5.744   8.444  1.2795  0.8359  0.5850
55307SOL    HW271885   5.025   5.848   8.503 -0.9217 -0.4563 -0.5055
55308SOL     OW71886   7.284   1.959   3.646 -0.2968 -0.7449 -0.0128
55308SOL    HW171887   7.289   1.929   3.737 -2.1198 -0.3659  0.2513
55308SOL    HW271888   7.349   2.029   3.641 -0.5890 -0.3541  1.1743
55309SOL     OW71889   1.130  10.143  12.454 -0.0271  0.4408  0.2368
55309SOL    HW171890   1.194  10.214  12.457 -0.6344  0.9590  1.5420
55309SOL    HW271891   1.181  10.066  12.430  0.8984  1.0328  0.2439
55310SOL     OW71892   2.562  11.491   9.884  0.3300 -0.0011  0.0428
55310SOL    HW171893   2.549  11.418   9.823 -1.3776 -0.3246  0.7357
55310SOL    HW271894   2.511  11.563   9.847 -1.5041 -0.4815  1.5050
55311SOL     OW71895   7.405   7.098  12.253 -0.1147 -0.5465  0.5008
55311SOL    HW171896   7.319   7.060  12.272 -0.2670 -0.2169  0.4653
55311SOL    HW271897   7.443   7.114  12.339 -1.2286  1.9298  0.6039
55312SOL     OW71898   7.331   0.715  12.094 -0.1089 -0.3475 -0.1815
55312SOL    HW171899   7.377   0.777  12.037  0.0806 -2.8737 -3.0377
55312SOL    HW271900   7.396   0.649  12.115 -1.1350 -1.3523 -0.0581
55313SOL     OW71901  11.939  11.697   6.213 -0.7169 -1.0258  0.7249
55313SOL    HW171902  11.977  11.664   6.131  0.2780 -0.6297  1.0128
55313SOL    HW271903  11.856  11.737   6.187  0.7902  1.5552 -0.5846
55314SOL     OW71904  11.538   6.266   4.565  0.1375 -0.1918  0.6887
55314SOL    HW171905  11.583   6.341   4.525 -1.2106  1.1603  1.6152
55314SOL    HW271906  11.486   6.303   4.636 -1.7632 -1.7828  0.2361
55315SOL     OW71907   8.638   6.683   8.527 -0.0237  0.5919 -0.1149
55315SOL    HW171908   8.664   6.647   8.442  0.2313 -2.4543  1.1594
55315SOL    HW271909   8.717   6.724   8.561  0.6107 -0.5001 -0.2358
55316SOL     OW71910   5.274   8.647   7.043  0.4350  0.0676  0.3105
55316SOL    HW171911   5.315   8.565   7.069  1.1345  0.7994  1.6578
55316SOL    HW271912   5.314   8.713   7.100 -1.2093  1.1124  0.3503
55317SOL     OW71913   1.064   9.248  10.330 -0.1610  0.5091  0.3647
55317SOL    HW171914   1.024   9.238  10.416 -1.1890 -0.8804 -0.2345
55317SOL    HW271915   1.037   9.335  10.301 -0.6944  0.5643  0.9968
55318SOL     OW71916   6.070   4.192   9.263 -0.1408  0.1341 -0.4603
55318SOL    HW171917   6.108   4.268   9.306  0.9859 -1.5931  1.8054
55318SOL    HW271918   6.133   4.168   9.195 -1.2151  1.9988 -2.2277
55319SOL     OW71919  12.026  10.727   6.640  0.3567 -0.4085 -0.0789
55319SOL    HW171920  12.054  10.659   6.579 -1.3595 -0.3910 -0.9422
55319SOL    HW271921  11.952  10.689   6.687  0.1072  0.4466  0.2550
55320SOL     OW71922  11.198   7.227   1.007  0.0383 -0.8092 -0.5116
55320SOL    HW171923  11.118   7.216   0.957 -0.9581  0.4251  0.7429
55320SOL    HW271924  11.188   7.168   1.082  0.2728 -0.5925 -0.3072
55321SOL     OW71925   4.881   5.694   9.653  0.1116  0.1638  0.0757
55321SOL    HW171926   4.863   5.737   9.737 -1.5021  1.4173 -0.8411
55321SOL    HW271927   4.830   5.613   9.657 -0.0977  0.3002  0.2506
55322SOL     OW71928   7.741  10.084   6.932 -0.0695  0.4379 -0.0479
55322SOL    HW171929   7.787  10.010   6.891  1.3372  1.6340 -0.7550
55322SOL    HW271930   7.656  10.086   6.889  0.1202 -0.3893 -0.4911
55323SOL     OW71931   9.030   5.957   0.661  0.3097 -0.0988  0.5937
55323SOL    HW171932   9.014   5.905   0.740 -1.4527  0.6385  0.7791
55323SOL    HW271933   9.023   6.048   0.691 -0.2434  0.1948 -0.3718
55324SOL     OW71934   3.605   4.720  11.463 -0.5188  0.2413  0.3716
55324SOL    HW171935   3.695   4.707  11.493 -0.1176  0.4223 -0.6944
55324SOL    HW271936   3.614   4.758  11.375 -1.6437  1.1721  0.6302
55325SOL     OW71937   4.837   0.127   3.304 -0.3052 -0.5267  0.1780
55325SOL    HW171938   4.904   0.061   3.324  1.4009  0.8156 -0.7964
55325SOL    HW271939   4.828   0.177   3.385 -0.7116 -1.1868  0.5467
55326SOL     OW71940   5.510  12.101   0.234  0.5452 -0.2798  0.9604
55326SOL    HW171941   5.584  12.041   0.222  0.4200 -0.0652 -1.3983
55326SOL    HW271942   5.529  12.174   0.176 -2.7464 -1.4819 -1.9980
55327SOL     OW71943   0.475   7.662   3.821 -0.1523  0.2828 -0.2631
55327SOL    HW171944   0.495   7.594   3.885 -0.0764  0.4857 -0.0713
55327SOL    HW271945   0.514   7.630   3.739  0.7543  0.5664  0.0543
55328SOL     OW71946  12.195   1.641   0.452 -0.0296  0.0431  0.5162
55328SOL    HW171947  12.139   1.697   0.399  1.7914  2.8988  1.3594
55328SOL    HW271948  12.177   1.668   0.543  1.5058 -0.1072  0.8930
55329SOL     OW71949   0.817   9.678  12.303  0.1956  0.0464 -0.4317
55329SOL    HW171950   0.811   9.716  12.391  1.1340 -0.2127 -0.2381
55329SOL    HW271951   0.848   9.750  12.248  0.6445 -0.0692 -0.3345
55330SOL     OW71952   5.004   3.562   3.714  0.1808  0.3803  0.7109
55330SOL    HW171953   4.936   3.569   3.781  0.5386 -1.4481  1.3312
55330SOL    HW271954   5.083   3.594   3.757  0.2117  0.1401  0.8341
55331SOL     OW71955  10.962  10.900   4.154  0.3217  0.0241  0.0684
55331SOL    HW171956  10.918  10.907   4.069 -0.5680  1.6677  0.6131
55331SOL    HW271957  11.046  10.858   4.134 -1.0096 -2.2464 -1.1544
55332SOL     OW71958  10.547  10.080  12.417  0.2206 -0.2990  0.1330
55332SOL    HW171959  10.601  10.084  12.497 -1.3442 -2.3293  1.3916
55332SOL    HW271960  10.595  10.020  12.360 -0.0603 -1.1479  0.7624
55333SOL     OW71961   7.292   2.213   4.180  0.0161 -0.6302  0.2342
55333SOL    HW171962   7.307   2.272   4.106  1.4140 -0.9160  0.2767
55333SOL    HW271963   7.207   2.241   4.215  1.0900  2.0730  0.9164
55334SOL     OW71964   5.136  11.838  10.321  0.0252 -0.2131  0.0108
55334SOL    HW171965   5.095  11.867  10.403 -1.7300  0.7725 -1.1439
55334SOL    HW271966   5.136  11.742  10.327  0.4104 -0.1611  1.3486
55335SOL     OW71967   9.177   4.295   6.614  0.1303 -0.5486 -0.1777
55335SOL    HW171968   9.144   4.233   6.679  0.8674 -1.4167 -0.6103
55335SOL    HW271969   9.106   4.358   6.603 -0.7965 -1.5187  0.0132
55336SOL     OW71970   9.536   3.357  12.479 -0.0501 -0.1320 -0.2328
55336SOL    HW171971   9.476   3.314  12.540 -0.6877 -0.2715 -0.9424
55336SOL    HW271972   9.481   3.420  12.433  0.1093 -0.9780 -1.6238
55337SOL     OW71973   8.844   9.341  11.102 -0.3283  0.2158 -0.1774
55337SOL    HW171974   8.820   9.404  11.171  0.6254  2.4332 -1.7636
55337SOL    HW271975   8.939   9.331  11.111 -0.4547 -0.9635 -0.0132
55338SOL     OW71976   4.891   8.242   5.968 -0.0070 -0.4288  0.2863
55338SOL    HW171977   4.937   8.324   5.987 -0.7602  0.8869 -2.8749
55338SOL    HW271978   4.872   8.246   5.875  0.5318 -4.6069 -0.2007
55339SOL     OW71979   0.671  10.854  10.342  0.2053 -0.8100 -0.2457
55339SOL    HW171980   0.583  10.887  10.324 -0.8638 -3.5382 -0.5323
55339SOL    HW271981   0.661  10.802  10.422  1.9747  0.2493  0.7123
55340SOL     OW71982   7.789   3.519   6.490  0.3361  0.3882  0.0479
55340SOL    HW171983   7.763   3.609   6.472  0.5965  0.1863 -1.4015
55340SOL    HW271984   7.709   3.468   6.477  0.2761  0.3531  0.5172
55341SOL     OW71985  10.918   0.095   0.827  0.0127  1.0199 -0.1755
55341SOL    HW171986  10.841   0.076   0.774 -0.8613 -0.5353  1.5162
55341SOL    HW271987  10.956   0.009   0.845 -0.0249  1.4045  2.0501
55342SOL     OW71988   2.063   4.373   4.990  0.3625  0.4909  0.1167
55342SOL    HW171989   2.021   4.432   5.053  1.5285  1.5873 -0.0810
55342SOL    HW271990   2.023   4.396   4.906  1.3844  1.6441 -0.0973
55343SOL     OW71991   6.359   9.493  12.124 -0.1781 -0.5227 -0.6875
55343SOL    HW171992   6.340   9.576  12.080 -0.6565  0.0694  0.5675
55343SOL    HW271993   6.440   9.462  12.084 -0.0723  0.4833 -1.2828
55344SOL     OW71994   7.828  11.508   6.851 -0.6183 -0.2545  0.1366
55344SOL    HW171995   7.769  11.583   6.850 -1.9292 -1.2177  1.2226
55344SOL    HW271996   7.810  11.464   6.934  3.5317  0.8064  1.8523
55345SOL     OW71997   1.111   4.491   4.238 -0.5125  0.4356 -0.2573
55345SOL    HW171998   1.117   4.436   4.317  0.3587  0.4558 -0.2966
55345SOL    HW271999   1.167   4.567   4.258  1.3310 -0.4798 -1.6152
55346SOL     OW72000   6.030  10.678   2.088 -0.2117 -0.0270  0.0959
55346SOL    HW172001   6.002  10.588   2.069 -0.0211 -0.1329  0.3097
55346SOL    HW272002   6.107  10.691   2.033 -1.2730  0.6286 -1.2953
55347SOL     OW72003   2.456   5.245   7.499 -0.2393  0.7345  0.2499
55347SOL    HW172004   2.522   5.313   7.488  1.0195 -0.7484 -2.2694
55347SOL    HW272005   2.472   5.209   7.586  0.7634  1.9372  0.5834
55348SOL     OW72006   0.732   8.579   3.299 -0.3190  0.1344  0.0468
55348SOL    HW172007   0.660   8.593   3.238  0.1104  1.7552 -0.1441
55348SOL    HW272008   0.735   8.484   3.312  0.2452 -0.4698 -3.3298
55349SOL     OW72009  10.096   3.162  11.182 -0.4048 -0.3719 -0.0895
55349SOL    HW172010  10.187   3.134  11.184  0.4142  2.1145 -0.3343
55349SOL    HW272011  10.067   3.155  11.273 -0.2879 -2.0071 -0.1452
55350SOL     OW72012   1.501   5.515   5.045  0.0103 -0.5603 -0.6461
55350SOL    HW172013   1.438   5.541   4.978  0.4118 -0.3728 -0.9556
55350SOL    HW272014   1.525   5.598   5.087 -1.3464 -0.8119  0.7405
55351SOL     OW72015  10.429   1.818   2.419  0.2525 -0.5838 -0.1065
55351SOL    HW172016  10.451   1.734   2.381  0.8957  0.5697 -2.4948
55351SOL    HW272017  10.376   1.862   2.352 -1.1631  0.4562  1.5921
55352SOL     OW72018   2.675   2.637  12.371 -0.1791 -0.1705 -0.4411
55352SOL    HW172019   2.605   2.593  12.323 -0.0212 -1.4112  0.4376
55352SOL    HW272020   2.755   2.589  12.347  0.0833  0.0071  0.0730
55353SOL     OW72021   4.050   3.660   9.216 -0.3811  0.6567 -0.0997
55353SOL    HW172022   4.102   3.633   9.292 -2.1467  2.0425  1.7354
55353SOL    HW272023   4.052   3.585   9.157  1.2246 -0.4113  1.2228
55354SOL     OW72024   6.674   7.560   6.487 -0.0842  0.0266  0.1795
55354SOL    HW172025   6.699   7.638   6.537  2.0958 -0.4565 -0.0622
55354SOL    HW272026   6.727   7.490   6.525  0.1934 -0.7294 -1.5452
55355SOL     OW72027   5.093   8.039  11.791  0.2980  0.5920  0.0333
55355SOL    HW172028   5.045   7.957  11.781 -0.0966  0.8100  0.1327
55355SOL    HW272029   5.120   8.062  11.702  1.3635 -0.2142  0.1364
55356SOL     OW72030   0.698   1.757  10.754 -0.1439  0.1059 -0.0955
55356SOL    HW172031   0.706   1.685  10.816 -0.1461  0.8083  0.7438
55356SOL    HW272032   0.789   1.785  10.740  0.2075 -2.0403 -2.8789
55357SOL     OW72033   4.548  10.068   1.730  0.6473  0.0991 -0.0282
55357SOL    HW172034   4.630  10.085   1.684 -0.2421  0.4591 -1.5416
55357SOL    HW272035   4.513   9.989   1.690 -0.4864  0.8095 -0.5144
55358SOL     OW72036   5.324   7.840   4.966 -0.0980  0.2333 -0.2207
55358SOL    HW172037   5.264   7.913   4.952  1.1269  1.2209 -0.5172
55358SOL    HW272038   5.295   7.801   5.048 -0.5753  1.2673  0.1242
55359SOL     OW72039   6.075   7.381   0.387 -0.2592 -0.0441  0.5385
55359SOL    HW172040   6.060   7.462   0.436  0.9232 -0.5484  1.7986
55359SOL    HW272041   5.989   7.358   0.351 -0.7516  1.3785  0.7642
55360SOL     OW72042   2.762   0.383   1.544 -0.2443 -0.7449 -0.1743
55360SOL    HW172043   2.804   0.358   1.626  2.2075 -0.4455 -1.2429
55360SOL    HW272044   2.692   0.443   1.569  0.2433 -0.9090  1.7006
55361SOL     OW72045   1.264   2.191   2.727  0.3362  0.5109 -0.3550
55361SOL    HW172046   1.234   2.237   2.650 -0.1427  0.8457  0.0243
55361SOL    HW272047   1.223   2.237   2.801 -0.5550 -0.7917  0.0074
55362SOL     OW72048   9.629   5.544   1.097 -0.0019  0.2941  0.4698
55362SOL    HW172049   9.708   5.559   1.045 -0.6178 -1.0996 -0.9365
55362SOL    HW272050   9.625   5.450   1.108 -1.5700  0.3113  0.3217
55363SOL     OW72051   0.773   0.640   7.804 -0.6771  0.0807  0.2642
55363SOL    HW172052   0.713   0.566   7.796 -1.7954  1.0066 -0.1739
55363SOL    HW272053   0.721   0.717   7.779  0.8747  0.8423 -0.8428
55364SOL     OW72054   1.818   9.163   9.913 -0.0026  0.5053 -0.2970
55364SOL    HW172055   1.764   9.239   9.892  1.6956  1.7348 -0.5035
55364SOL    HW272056   1.908   9.193   9.896  0.8041 -1.1891  0.7306
55365SOL     OW72057   1.633   8.392   8.253  0.1336  0.4387 -0.5923
55365SOL    HW172058   1.718   8.435   8.263  0.9402 -1.2818  0.6344
55365SOL    HW272059   1.628   8.332   8.328 -1.0699 -1.3078 -1.9880
55366SOL     OW72060   1.124   1.620   4.392 -0.1427  0.2556  0.2001
55366SOL    HW172061   1.178   1.551   4.431 -0.1770 -0.4739 -0.9658
55366SOL    HW272062   1.098   1.675   4.465  0.3666 -0.6519  1.0920
55367SOL     OW72063  10.223   5.813  11.401  0.6258  0.0381  0.0188
55367SOL    HW172064  10.308   5.784  11.433 -0.1648 -1.7875  0.5818
55367SOL    HW272065  10.243   5.888  11.346  2.7202 -0.9836 -0.7247
55368SOL     OW72066   3.048   2.684   9.515 -0.5132 -0.1154  0.0876
55368SOL    HW172067   3.059   2.755   9.452 -0.0451 -1.0661 -0.9160
55368SOL    HW272068   3.029   2.729   9.598 -1.2559  1.1434 -0.7379
55369SOL     OW72069   5.782   8.514   2.833 -0.0770 -0.4645 -0.1322
55369SOL    HW172070   5.764   8.593   2.884  0.7596 -0.7230  0.5896
55369SOL    HW272071   5.698   8.469   2.829  0.2272 -1.6489  3.1359
55370SOL     OW72072  10.907  11.913   8.241  0.7378  0.2798  0.0922
55370SOL    HW172073  10.925  12.004   8.218  2.0659  0.3263  1.2119
55370SOL    HW272074  10.956  11.862   8.177  2.2668  0.3959  1.1211
55371SOL     OW72075   9.014   0.468   0.143 -0.3075  0.2612 -0.2553
55371SOL    HW172076   8.961   0.471   0.063 -0.3168 -1.1108 -0.3300
55371SOL    HW272077   9.091   0.521   0.123  0.4251 -1.2884 -1.7509
55372SOL     OW72078   3.482  11.060   0.638 -0.2053 -0.4122  0.0070
55372SOL    HW172079   3.544  11.006   0.686  0.2156 -0.4282 -0.5518
55372SOL    HW272080   3.409  11.002   0.618  0.0133 -0.6404 -0.1345
55373SOL     OW72081   9.674   5.903  11.254  0.2650  0.2571 -0.2695
55373SOL    HW172082   9.602   5.880  11.313 -0.2836  2.8189  0.2067
55373SOL    HW272083   9.642   5.879  11.167  0.8286 -2.9782  0.3124
55374SOL     OW72084   2.790   2.276   9.444  0.2111  0.1850 -0.0549
55374SOL    HW172085   2.763   2.239   9.360 -0.7024  0.8391 -0.0589
55374SOL    HW272086   2.854   2.213   9.478  0.2459 -0.3203 -1.0175
55375SOL     OW72087   4.610   4.159   9.822 -0.6724  0.1811  0.8539
55375SOL    HW172088   4.613   4.127   9.732  1.6967 -4.0116  2.1642
55375SOL    HW272089   4.535   4.114   9.861  1.1187 -2.0415  2.0335
55376SOL     OW72090   9.461  11.534   6.024  0.0067 -0.4244  0.4887
55376SOL    HW172091   9.393  11.474   5.995 -1.2973  0.8929  0.7218
55376SOL    HW272092   9.539  11.509   5.974 -0.5455 -2.1454  0.4404
55377SOL     OW72093  12.213   9.273   7.956  1.0868  0.5484  0.3891
55377SOL    HW172094  12.241   9.306   8.041 -0.8013  2.2498  0.4207
55377SOL    HW272095  12.227   9.346   7.896 -1.2892  0.7973  0.0574
55378SOL     OW72096   3.099   1.695   0.705  0.2721  0.0746 -0.0520
55378SOL    HW172097   3.120   1.650   0.787  0.2389 -0.6588 -0.4306
55378SOL    HW272098   3.184   1.726   0.672  0.4167 -0.4840 -0.2179
55379SOL     OW72099  12.077   4.774   6.814  0.7491  0.5007  0.6194
55379SOL    HW172100  12.063   4.844   6.877  0.7516 -0.3054  1.5444
55379SOL    HW272101  11.989   4.739   6.797  0.8962 -0.2839  1.3821
55380SOL     OW72102  10.373  12.084   7.368 -0.4666  0.1082 -0.3180
55380SOL    HW172103  10.468  12.084   7.381 -0.5275  0.4495  0.1357
55380SOL    HW272104  10.348  11.992   7.380 -0.1305 -0.0649 -0.9231
55381SOL     OW72105   7.785   2.993   0.973  0.2293  0.2350 -0.3170
55381SOL    HW172106   7.759   2.905   0.944  0.4886  0.9603 -3.1188
55381SOL    HW272107   7.708   3.048   0.954  0.0052  0.6415  1.5700
55382SOL     OW72108  11.550  11.042   7.685  0.0769 -0.0886 -0.1779
55382SOL    HW172109  11.608  10.999   7.623  0.1404  1.0079 -0.9250
55382SOL    HW272110  11.485  11.086   7.629 -1.4716 -1.2696  0.6252
55383SOL     OW72111   3.457   4.996  11.940 -0.2027  0.3068  0.3564
55383SOL    HW172112   3.495   5.052  12.008 -0.3634 -0.5189  1.1476
55383SOL    HW272113   3.448   4.911  11.982  1.3902 -0.7145 -1.2554
55384SOL     OW72114  10.417   8.865  10.085  0.2200 -0.0436  0.1594
55384SOL    HW172115  10.414   8.854   9.990  0.4632 -0.5531  0.2045
55384SOL    HW272116  10.457   8.784  10.117  0.3950  0.2388  0.6747
55385SOL     OW72117   7.367  12.033   4.839  0.5570 -0.1800 -1.0467
55385SOL    HW172118   7.323  12.118   4.845  0.6544 -0.1784 -0.2707
55385SOL    HW272119   7.361  12.010   4.746  0.0709  0.4287 -1.1760
55386SOL     OW72120  10.629   9.522   7.875  0.6389  0.1746 -0.5180
55386SOL    HW172121  10.645   9.443   7.823  0.1685 -1.2174  1.3225
55386SOL    HW272122  10.566   9.494   7.942 -0.6755  2.5118 -0.6728
55387SOL     OW72123  10.057   0.368   5.418  0.2619 -0.0346 -0.1882
55387SOL    HW172124  10.036   0.341   5.507 -1.8926 -1.3121 -1.0299
55387SOL    HW272125  10.124   0.306   5.389 -1.7413 -2.0355 -0.7048
55388SOL     OW72126   0.544   8.200  11.326  0.5002  0.5201  0.1683
55388SOL    HW172127   0.459   8.163  11.303 -0.5025  1.8628  1.5031
55388SOL    HW272128   0.549   8.281  11.275  1.4429 -0.0212 -0.6374
55389SOL     OW72129   2.105   4.982  11.587 -0.3146  0.2419  0.3547
55389SOL    HW172130   2.090   5.076  11.586 -0.5302  0.2091 -1.4681
55389SOL    HW272131   2.180   4.971  11.646  0.4024  1.6656 -0.2357
55390SOL     OW72132   7.376   1.107   1.489  0.0692  0.1451 -0.1137
55390SOL    HW172133   7.298   1.102   1.434 -0.5082  0.5095  0.6487
55390SOL    HW272134   7.420   1.188   1.462  1.0689 -0.8626 -1.6561
55391SOL     OW72135  12.219   8.900   9.084  0.0677  0.5621 -0.1910
55391SOL    HW172136  12.313   8.901   9.070 -0.0469 -0.0980 -1.1088
55391SOL    HW272137  12.190   8.816   9.049 -0.8617  0.7568  0.0718
55392SOL     OW72138   5.266   4.829   8.950  0.0828 -0.3098  0.0816
55392SOL    HW172139   5.334   4.891   8.922  0.1589 -0.7614 -0.8032
55392SOL    HW272140   5.313   4.765   9.003  0.3846 -0.6452 -0.5652
55393SOL     OW72141  11.635   2.447   9.898 -0.2788 -0.0213  0.1541
55393SOL    HW172142  11.617   2.385   9.828 -0.4856  0.1459  0.0590
55393SOL    HW272143  11.628   2.395   9.978 -0.6199 -0.0858  0.0864
55394SOL     OW72144   2.279   5.752   2.665  0.0394  0.0502  0.0644
55394SOL    HW172145   2.229   5.830   2.640 -2.3467 -1.1401  0.8086
55394SOL    HW272146   2.255   5.738   2.757  0.6959 -1.3604  0.0369
55395SOL     OW72147  10.419   0.227   9.638 -0.0582  0.1390  0.5867
55395SOL    HW172148  10.432   0.169   9.712  0.7202  0.8132  0.9964
55395SOL    HW272149  10.472   0.189   9.568 -0.4585 -0.2662  0.5004
55396SOL     OW72150   0.390   4.118   8.877  0.4893  0.3936  0.2010
55396SOL    HW172151   0.321   4.055   8.857  0.6478  0.2335  0.1549
55396SOL    HW272152   0.349   4.203   8.865  0.0352  0.3093  1.0581
55397SOL     OW72153  12.409   2.234   9.510 -0.8099 -0.3842  0.2529
55397SOL    HW172154  12.383   2.161   9.453 -0.5844 -0.5559  0.3654
55397SOL    HW272155  12.467   2.194   9.575 -0.2035  0.0012 -0.0429
55398SOL     OW72156  10.480  10.373   5.315 -0.2963  0.7134 -0.0788
55398SOL    HW172157  10.474  10.376   5.220  1.2819  0.6945 -0.2153
55398SOL    HW272158  10.544  10.304   5.333 -1.0424  0.2779  1.0313
55399SOL     OW72159   4.084   8.638   2.684 -0.0189  0.5715  0.1051
55399SOL    HW172160   4.022   8.692   2.636  1.4150  1.6359 -0.6332
55399SOL    HW272161   4.049   8.549   2.677  0.3575  0.5683 -3.3841
55400SOL     OW72162  10.344   1.068  10.118 -0.4610  0.3621  0.4515
55400SOL    HW172163  10.281   1.139  10.127 -1.7573 -0.4919 -1.3031
55400SOL    HW272164  10.417   1.106  10.068 -1.6853  0.2103 -1.5369
55401SOL     OW72165  10.547   2.502   4.442 -0.0537  0.3117 -0.2886
55401SOL    HW172166  10.493   2.570   4.401  0.4630  0.5783 -0.5374
55401SOL    HW272167  10.485   2.434   4.466 -0.5552  0.7804 -0.2255
55402SOL     OW72168   2.114  12.221   1.287 -0.0850 -0.0510  0.3657
55402SOL    HW172169   2.020  12.240   1.291  0.1254  0.8590  1.5973
55402SOL    HW272170   2.156  12.301   1.320  1.0638 -0.8981  1.0174
55403SOL     OW72171   0.939   7.404   1.234  0.1075 -0.1892  0.0630
55403SOL    HW172172   1.003   7.362   1.176  0.5615  1.0814 -0.3928
55403SOL    HW272173   0.991   7.459   1.293 -0.3415 -1.5106  1.7660
55404SOL     OW72174   8.874  12.162   5.425  0.6435 -0.1103  0.7396
55404SOL    HW172175   8.804  12.194   5.368  1.8559  0.0846 -0.6710
55404SOL    HW272176   8.888  12.072   5.397 -0.0790 -0.6670  2.0771
55405SOL     OW72177   9.707   5.158   8.007  0.6888  0.1203 -0.0642
55405SOL    HW172178   9.801   5.141   8.006  0.7707  0.4771  0.5792
55405SOL    HW272179   9.667   5.071   8.005  1.0437 -0.0503  0.1355
55406SOL     OW72180   7.554  11.552   4.770 -0.4846  0.0517 -0.7435
55406SOL    HW172181   7.479  11.511   4.814 -0.1204  0.7885  0.6413
55406SOL    HW272182   7.557  11.641   4.807  0.6281  0.2684 -1.3268
55407SOL     OW72183   8.196   6.237   8.497 -0.3685 -0.0677  0.0933
55407SOL    HW172184   8.278   6.188   8.487 -0.7049 -0.3721 -1.4869
55407SOL    HW272185   8.203   6.307   8.432 -1.5603 -0.4013 -0.4176
55408SOL     OW72186   8.168  11.303   6.215 -0.0356 -0.0005 -0.1921
55408SOL    HW172187   8.261  11.278   6.215  0.2165  0.8715  0.2385
55408SOL    HW272188   8.154  11.340   6.128  0.4553  1.3088  0.2568
55409SOL     OW72189   6.521   8.086  11.521 -0.2478  0.5401  0.0283
55409SOL    HW172190   6.583   8.050  11.584 -1.3204 -0.5625  0.4852
55409SOL    HW272191   6.547   8.178  11.511  1.4793  0.0812  0.1434
55410SOL     OW72192  10.022  10.771   6.017  0.3063  0.0403 -0.1240
55410SOL    HW172193   9.969  10.712   5.963  0.0766 -0.3951  0.5594
55410SOL    HW272194  10.109  10.768   5.977 -0.1261  0.6232 -1.1528
55411SOL     OW72195   7.033   6.221   7.374  0.1324  1.0909  0.3598
55411SOL    HW172196   6.995   6.274   7.304  0.6301 -1.1703 -1.7306
55411SOL    HW272197   6.961   6.165   7.404  0.4089  0.6729  0.2558
55412SOL     OW72198  12.287   0.859  10.349 -0.0487  0.0427 -0.6170
55412SOL    HW172199  12.283   0.929  10.415  0.6833 -1.2006  0.8083
55412SOL    HW272200  12.257   0.901  10.268  1.4976  2.3677 -0.1155
55413SOL     OW72201  12.220   7.401   3.344  0.3954  0.0487  0.1484
55413SOL    HW172202  12.272   7.453   3.283  0.3139  0.0191  0.0533
55413SOL    HW272203  12.151   7.362   3.290  0.4554 -0.1583  0.2172
55414SOL     OW72204   3.779   1.446  11.777 -0.2962 -0.2603  0.2198
55414SOL    HW172205   3.701   1.395  11.799  0.1072 -2.2077 -2.3994
55414SOL    HW272206   3.758   1.485  11.692  0.5169  1.6751  0.8510
55415SOL     OW72207  11.466   6.898   1.308  0.0983 -0.4286  0.3101
55415SOL    HW172208  11.521   6.970   1.338 -0.8412  0.6958 -0.5847
55415SOL    HW272209  11.520   6.820   1.321  1.8766  0.6010 -0.4241
55416SOL     OW72210   9.925   8.445   1.333  0.2896  0.2168 -0.0579
55416SOL    HW172211   9.895   8.457   1.242 -0.0516  0.2497  0.0585
55416SOL    HW272212   9.901   8.526   1.377  0.5388  0.2383  0.0431
55417SOL     OW72213   9.210   9.240   4.748 -0.0001 -0.1354 -0.1898
55417SOL    HW172214   9.200   9.249   4.653 -0.6409 -1.4858 -0.2629
55417SOL    HW272215   9.305   9.238   4.762  0.0907 -0.9464 -0.9082
55418SOL     OW72216  12.182   7.339  10.680 -1.0605  0.3090 -0.5558
55418SOL    HW172217  12.239   7.267  10.705  1.5409  1.5991 -2.3012
55418SOL    HW272218  12.115   7.299  10.625  0.5592 -0.8016 -1.8212
55419SOL     OW72219   4.226   7.731   4.077 -0.1570 -0.4438 -0.4686
55419SOL    HW172220   4.139   7.715   4.040 -1.9854 -0.8545  3.5065
55419SOL    HW272221   4.258   7.644   4.103 -0.1352 -0.0044  1.1009
55420SOL     OW72222  10.015   4.732   1.585  0.2309 -0.3163  0.0497
55420SOL    HW172223   9.949   4.735   1.515 -0.7028 -0.6848  0.8855
55420SOL    HW272224  10.031   4.824   1.607 -0.1244 -0.2276 -0.0535
55421SOL     OW72225   5.967   0.932   2.697 -0.3543  0.2978  0.3276
55421SOL    HW172226   6.037   0.988   2.663 -0.6135  1.1831  1.1852
55421SOL    HW272227   6.007   0.845   2.703  1.0874  1.0003  1.9058
55422SOL     OW72228   4.029   0.948   0.787  0.4924  0.0664 -0.2036
55422SOL    HW172229   4.025   0.852   0.785  1.5439  0.0019 -0.0820
55422SOL    HW272230   4.115   0.968   0.749 -0.2329  1.0179 -1.3970
55423SOL     OW72231   1.259   5.434   5.342  0.5080  0.9430 -0.1623
55423SOL    HW172232   1.277   5.388   5.260 -1.4892  0.9946 -0.6778
55423SOL    HW272233   1.192   5.382   5.384  0.8117  1.4572  0.9972
55424SOL     OW72234   9.912   0.331   3.698  0.2112 -0.0038 -0.0344
55424SOL    HW172235   9.970   0.331   3.773 -2.6070  0.3413  2.3341
55424SOL    HW272236   9.956   0.278   3.632  2.8235 -0.2758  1.8091
55425SOL     OW72237   4.000  12.127   1.709 -0.3037 -0.4449  0.8856
55425SOL    HW172238   3.919  12.083   1.735 -1.1575  0.5237 -0.0619
55425SOL    HW272239   3.985  12.155   1.619  0.4326  1.2730  1.2560
55426SOL     OW72240  11.033   6.354   5.515  0.1868  0.2985 -0.2510
55426SOL    HW172241  11.005   6.270   5.550  1.2406  0.5885  1.3695
55426SOL    HW272242  11.116   6.336   5.472 -0.4516  0.2027 -1.4917
55427SOL     OW72243   3.338   4.094  11.795 -0.0868 -0.0633  0.0778
55427SOL    HW172244   3.421   4.047  11.793 -0.2501 -0.3850  0.7503
55427SOL    HW272245   3.361   4.184  11.817  0.2362  0.2151 -1.2947
55428SOL     OW72246   9.105   9.098   3.445  0.2286 -0.1300 -0.3911
55428SOL    HW172247   9.014   9.109   3.471  0.3072 -1.5086  0.5811
55428SOL    HW272248   9.153   9.093   3.528  0.6039 -3.7529 -0.6781
55429SOL     OW72249   9.616   3.567   3.635  0.5410  0.1018 -0.2430
55429SOL    HW172250   9.595   3.566   3.729  0.6265 -1.8598 -0.2092
55429SOL    HW272251   9.650   3.480   3.617  1.1983  0.6780 -1.9718
55430SOL     OW72252   3.566   8.311   4.735  0.5885  0.2904  0.1236
55430SOL    HW172253   3.536   8.375   4.800  2.6040  1.2598  0.1518
55430SOL    HW272254   3.564   8.358   4.652 -0.7318 -0.5599 -0.3635
55431SOL     OW72255  11.069   6.766   7.328 -0.0472  0.0366 -0.0967
55431SOL    HW172256  10.978   6.787   7.349  0.3308  0.0161  1.7868
55431SOL    HW272257  11.070   6.671   7.318  0.0059 -0.1601  1.4818
55432SOL     OW72258   0.974   4.450   6.297 -0.5124 -0.0420  0.0524
55432SOL    HW172259   0.961   4.540   6.327 -0.7543  0.3326 -1.1347
55432SOL    HW272260   0.926   4.397   6.360 -0.3872  0.6530  0.7570
55433SOL     OW72261   8.554   4.179   7.314  0.0320 -0.1277  0.4224
55433SOL    HW172262   8.522   4.140   7.396  0.0733 -0.0234  0.4883
55433SOL    HW272263   8.491   4.151   7.248  0.9302 -1.6601  0.1703
55434SOL     OW72264   1.386   2.228   9.342 -0.0375 -0.4450  0.1298
55434SOL    HW172265   1.426   2.314   9.329 -0.6390 -0.4148 -1.8057
55434SOL    HW272266   1.455   2.166   9.320 -0.1178 -0.4425 -0.1233
55435SOL     OW72267   0.914   5.774   9.792 -0.3515 -0.0033  0.0865
55435SOL    HW172268   0.981   5.733   9.737  0.5376  1.5606 -0.0389
55435SOL    HW272269   0.881   5.847   9.739 -1.0691  0.1671  0.7616
55436SOL     OW72270   0.388   9.351   4.561  0.0739  0.2060 -0.8129
55436SOL    HW172271   0.384   9.343   4.657  1.4143 -1.5578 -0.8557
55436SOL    HW272272   0.302   9.383   4.536 -1.6031 -2.7222  0.7080
55437SOL     OW72273   7.699   4.552   4.297 -0.0402  0.6960  0.6301
55437SOL    HW172274   7.659   4.639   4.305 -1.0415  0.2953  0.0918
55437SOL    HW272275   7.723   4.546   4.204 -0.1437  0.3225  0.6284
55438SOL     OW72276   8.586   1.259  12.080 -0.4866 -0.0417 -0.0668
55438SOL    HW172277   8.527   1.331  12.102 -0.4269 -0.2995  0.9920
55438SOL    HW272278   8.570   1.193  12.147 -0.8857 -1.2379 -1.2805
55439SOL     OW72279   5.366   6.404   6.529  0.0598  0.1910 -0.1305
55439SOL    HW172280   5.318   6.441   6.603  0.1793  1.6126 -0.7187
55439SOL    HW272281   5.298   6.361   6.476 -0.1803  0.0490  0.2914
55440SOL     OW72282   7.442   3.720   7.968 -0.4180 -0.8182  0.0349
55440SOL    HW172283   7.536   3.728   7.951 -0.0870 -3.0893  0.4633
55440SOL    HW272284   7.435   3.717   8.063 -0.9136 -0.7963  0.0005
55441SOL     OW72285  10.150   5.131   9.456 -0.8640  0.5090  0.4132
55441SOL    HW172286  10.178   5.223   9.455 -0.2064  0.3435 -1.3566
55441SOL    HW272287  10.191   5.094   9.534 -0.0745  1.4285  0.4568
55442SOL     OW72288  12.264   1.146   7.153  0.1632  0.1114  0.5203
55442SOL    HW172289  12.360   1.146   7.153  0.3083 -2.8603  2.8220
55442SOL    HW272290  12.240   1.188   7.236 -0.5950  1.3863 -0.3185
55443SOL     OW72291   3.779   2.781   6.265 -0.0905  0.0095  0.1917
55443SOL    HW172292   3.791   2.865   6.220  0.4257 -1.1245 -1.8982
55443SOL    HW272293   3.686   2.779   6.287 -0.1735  1.0019 -0.0246
55444SOL     OW72294   1.140  11.416   2.133 -0.0006  0.4227 -0.0244
55444SOL    HW172295   1.206  11.424   2.202 -1.2336 -0.8789  1.3733
55444SOL    HW272296   1.108  11.505   2.119 -0.0741  0.6357  1.4234
55445SOL     OW72297   3.234   8.392  10.697 -0.5925  0.2500  0.2610
55445SOL    HW172298   3.147   8.381  10.736  0.0126 -1.1170  1.3167
55445SOL    HW272299   3.220   8.452  10.624 -2.2319  0.8803  1.0409
55446SOL     OW72300   2.293   2.846  11.858  0.0458 -0.2031  0.1575
55446SOL    HW172301   2.356   2.855  11.785 -0.0104  0.1522  0.1499
55446SOL    HW272302   2.333   2.782  11.916  0.7886  0.5661  0.5296
55447SOL     OW72303   5.468   3.518  10.898 -0.1499 -0.0353  0.3708
55447SOL    HW172304   5.422   3.541  10.979  3.3113  0.6354  2.4091
55447SOL    HW272305   5.454   3.593  10.840 -2.0639 -0.1661  0.6202
55448SOL     OW72306   5.984   9.885   0.013 -0.3035  0.6147 -0.3194
55448SOL    HW172307   5.903   9.876   0.063 -0.1480 -1.8456 -0.4146
55448SOL    HW272308   6.052   9.846   0.068  0.4502  0.7041 -1.1498
55449SOL     OW72309   3.948   0.334   5.357  0.7470 -0.4179 -0.4523
55449SOL    HW172310   3.974   0.243   5.340 -0.1239 -0.7240 -0.2041
55449SOL    HW272311   3.853   0.330   5.367  0.9674 -0.1117  3.2731
55450SOL     OW72312  10.501  10.967   1.748  0.0319 -0.0114  0.4295
55450SOL    HW172313  10.486  10.872   1.748  1.5054 -0.3110 -1.7491
55450SOL    HW272314  10.509  10.990   1.840 -1.2759 -1.8187  1.0588
55451SOL     OW72315  10.227   7.600   4.442  0.2321  0.1155  0.3306
55451SOL    HW172316  10.282   7.677   4.452  0.3841  0.0475  0.0174
55451SOL    HW272317  10.260   7.556   4.363  0.5318 -0.5791  0.8245
55452SOL     OW72318   3.017   4.716   8.971 -0.4365 -0.1003  0.1624
55452SOL    HW172319   2.972   4.789   9.014  0.4765  0.6472 -0.1191
55452SOL    HW272320   2.957   4.688   8.902 -0.3219  1.1452 -0.4775
55453SOL     OW72321   6.726   5.231   7.874 -0.2072  0.0371  0.7932
55453SOL    HW172322   6.779   5.163   7.831  2.5609  2.1574  0.5799
55453SOL    HW272323   6.687   5.280   7.802 -0.7791 -0.2384  0.9081
55454SOL     OW72324   9.506   7.009   0.973  0.7123  0.3594  0.4837
55454SOL    HW172325   9.457   7.043   1.048 -0.1680  0.8843 -0.3009
55454SOL    HW272326   9.580   7.069   0.964  0.9784  0.1294  1.0912
55455SOL     OW72327   5.498   7.914  12.175  0.1591  0.1281 -0.4808
55455SOL    HW172328   5.579   7.959  12.153  0.4436 -0.1594 -0.0480
55455SOL    HW272329   5.434   7.945  12.111  0.6345  0.2912 -0.8796
55456SOL     OW72330  11.001   5.746  12.088 -0.4438 -0.5465 -0.4803
55456SOL    HW172331  11.093   5.772  12.090 -0.6769  0.3844 -1.1187
55456SOL    HW272332  11.000   5.658  12.126  0.2812  0.6010  2.4096
55457SOL     OW72333   0.113   0.617   4.936 -0.4491  0.0440  0.2761
55457SOL    HW172334   0.081   0.683   4.997  2.0154  2.1213 -0.4823
55457SOL    HW272335   0.096   0.655   4.849  1.3226 -0.0733 -0.1615
55458SOL     OW72336   4.763   6.225   0.872  0.2003 -0.6181  0.4052
55458SOL    HW172337   4.809   6.295   0.918  1.7806 -1.3181 -0.0540
55458SOL    HW272338   4.714   6.270   0.803  2.1792 -0.0060 -0.6995
55459SOL     OW72339  11.341  11.015   6.100  0.5765 -0.2855 -0.0792
55459SOL    HW172340  11.347  11.055   6.187  0.1787 -0.8322  0.2087
55459SOL    HW272341  11.428  11.026   6.062  1.1848 -1.2953  0.9522
55460SOL     OW72342   6.053   2.116   9.525 -0.0070  0.3585  0.5541
55460SOL    HW172343   6.057   2.102   9.620 -3.0858 -1.0058  0.5988
55460SOL    HW272344   5.974   2.169   9.512  0.3042  0.4247 -1.2663
55461SOL     OW72345   5.677   3.554   1.832  0.1257 -0.0763  0.1701
55461SOL    HW172346   5.667   3.643   1.799 -1.0081 -0.0006  0.6554
55461SOL    HW272347   5.750   3.559   1.893 -1.0095  0.9536  1.5133
55462SOL     OW72348   3.185   2.284   6.074  0.2951 -0.0152  0.5825
55462SOL    HW172349   3.205   2.203   6.028  1.9776  0.3011  0.6854
55462SOL    HW272350   3.222   2.272   6.162  3.1978  1.8448 -0.2237
55463SOL     OW72351   9.186   4.142   3.859  0.2825  0.1051  0.0980
55463SOL    HW172352   9.117   4.137   3.792 -0.1371  0.0379  0.5276
55463SOL    HW272353   9.146   4.193   3.930  1.1936  1.3625 -0.2635
55464SOL     OW72354  11.111   4.387   4.662 -0.8843 -0.2926 -0.4535
55464SOL    HW172355  11.039   4.450   4.656 -1.1586 -0.6744 -1.4443
55464SOL    HW272356  11.094   4.325   4.590  2.3280  1.5408 -3.0247
55465SOL     OW72357   1.685   9.435   7.541 -0.0838  0.0761  0.2530
55465SOL    HW172358   1.663   9.485   7.461 -0.5915  0.4699  0.6316
55465SOL    HW272359   1.602   9.399   7.571  0.3028 -1.1648 -0.1041
55466SOL     OW72360   7.926   0.887  10.635  0.5970 -0.0505  0.6809
55466SOL    HW172361   8.021   0.900  10.641  0.5293  0.8038  0.1040
55466SOL    HW272362   7.889   0.970  10.666  0.0635 -0.0416  0.0454
55467SOL     OW72363   2.025   6.682  11.878 -0.2859  0.2021 -0.1510
55467SOL    HW172364   1.987   6.653  11.961 -0.5952  3.2669  0.9226
55467SOL    HW272365   2.083   6.611  11.851 -0.0015 -0.8273  2.8466
55468SOL     OW72366  11.474   8.850   0.778 -0.1881  0.2075  0.7154
55468SOL    HW172367  11.399   8.791   0.771 -0.5135  0.5178  1.4654
55468SOL    HW272368  11.478   8.894   0.693 -0.1776 -0.6005  0.2857
55469SOL     OW72369  11.884   5.771   5.779  0.2272  0.1779 -0.5084
55469SOL    HW172370  11.945   5.723   5.835  2.6001  3.5685  0.1920
55469SOL    HW272371  11.822   5.811   5.840  0.8124  1.2491 -0.5926
55470SOL     OW72372   8.790   3.409   5.432 -0.4854  0.2494 -0.5203
55470SOL    HW172373   8.785   3.385   5.340  0.7181 -1.4726 -0.1967
55470SOL    HW272374   8.867   3.466   5.438  0.9496 -1.6161 -0.2715
55471SOL     OW72375   1.309   5.131   6.521 -0.1729  0.2261 -0.1263
55471SOL    HW172376   1.337   5.213   6.480  0.7435 -0.5088 -1.0362
55471SOL    HW272377   1.214   5.138   6.526 -0.0023  1.9925  1.2667
55472SOL     OW72378   0.428   2.143   8.310 -0.2282  0.3254 -0.5084
55472SOL    HW172379   0.410   2.070   8.251  1.9963 -0.5628 -0.1798
55472SOL    HW272380   0.478   2.205   8.258 -1.5388  1.3633 -0.5907
55473SOL     OW72381   5.319   1.017  10.956 -0.2075  0.2115  0.6217
55473SOL    HW172382   5.272   1.097  10.977 -0.5300  0.5673 -1.3003
55473SOL    HW272383   5.391   1.045  10.899 -1.3235 -0.9922 -1.5060
55474SOL     OW72384   7.097   2.734   4.834  0.4690 -0.5114 -0.2523
55474SOL    HW172385   7.094   2.830   4.836 -2.9476 -0.5051 -0.2562
55474SOL    HW272386   7.107   2.713   4.741 -0.2467 -0.1556 -0.4103
55475SOL     OW72387   1.154   4.935  11.640  0.0590 -0.1767  0.4850
55475SOL    HW172388   1.070   4.981  11.638 -0.1089 -0.4950  0.1641
55475SOL    HW272389   1.133   4.846  11.668  0.3259 -0.1859  0.6648
55476SOL     OW72390   5.404  12.324   5.429  0.6356  0.4673 -0.0802
55476SOL    HW172391   5.455  12.250   5.396 -1.6121 -0.7728 -0.9410
55476SOL    HW272392   5.424  12.396   5.368 -0.5494 -0.7354 -1.9766
55477SOL     OW72393   2.327   5.477   4.458  0.3418  0.1509  0.4569
55477SOL    HW172394   2.300   5.525   4.535  1.1033  2.1077 -0.4386
55477SOL    HW272395   2.248   5.473   4.403  0.3987  0.8908  0.3069
55478SOL     OW72396   9.291   9.758   8.382 -0.0873 -0.2181  0.0380
55478SOL    HW172397   9.303   9.754   8.476 -0.9110 -1.6639  0.1188
55478SOL    HW272398   9.379   9.749   8.345  0.4785  2.2109  0.6374
55479SOL     OW72399   8.216  11.354   2.889  0.0137 -0.0233  0.2854
55479SOL    HW172400   8.149  11.393   2.833  1.9584  0.0378 -2.1560
55479SOL    HW272401   8.263  11.428   2.925 -0.0868 -0.0905  0.5605
55480SOL     OW72402   6.017   1.632   3.112  0.2550 -0.5764 -0.1313
55480SOL    HW172403   5.990   1.705   3.167  0.0381 -1.0236  0.3736
55480SOL    HW272404   6.011   1.665   3.023 -0.9637 -0.3379  0.0279
55481SOL     OW72405   5.804   4.691  11.572  0.2146  0.3139 -0.5162
55481SOL    HW172406   5.892   4.705  11.606 -0.5621  0.9559  1.3303
55481SOL    HW272407   5.764   4.778  11.570 -1.4021 -0.2967  1.6921
55482SOL     OW72408   2.278   4.561  10.096  0.0157 -0.7806  0.3446
55482SOL    HW172409   2.364   4.570  10.139  0.6588 -0.9656 -0.8553
55482SOL    HW272410   2.221   4.621  10.143  1.4405  1.2643 -0.4179
55483SOL     OW72411   9.404   2.972   1.669 -1.0919 -0.4945 -0.6183
55483SOL    HW172412   9.364   3.056   1.693  0.2813 -0.0291  0.1449
55483SOL    HW272413   9.355   2.907   1.720 -2.4830 -0.2299 -1.5830
55484SOL     OW72414   0.863   9.438   5.217  0.2060  0.0656  0.0551
55484SOL    HW172415   0.893   9.459   5.129 -1.8081 -0.6898 -0.8757
55484SOL    HW272416   0.921   9.368   5.246  0.1652 -0.5108 -1.1814
55485SOL     OW72417   5.204  12.288   4.862 -0.1388 -0.1204 -0.1004
55485SOL    HW172418   5.161  12.336   4.792 -0.9362 -1.8795 -0.8975
55485SOL    HW272419   5.133  12.244   4.909  0.6151 -1.6842 -0.3503
55486SOL     OW72420   7.840  11.456   6.150  0.3458 -0.0175 -0.0227
55486SOL    HW172421   7.823  11.444   6.243  1.2509  0.3339  0.1955
55486SOL    HW272422   7.883  11.542   6.144  1.6664 -0.6945 -0.5907
55487SOL     OW72423   4.462   2.951   8.259  0.7468 -0.4354 -0.1370
55487SOL    HW172424   4.416   3.001   8.327  0.6872 -0.8319  0.1188
55487SOL    HW272425   4.514   2.887   8.308  0.5779 -0.8320 -0.4719
55488SOL     OW72426   0.140   8.383   3.699 -0.1418  0.2742 -0.1364
55488SOL    HW172427   0.205   8.409   3.765 -1.0802 -0.1057  0.9623
55488SOL    HW272428   0.094   8.463   3.678  0.0727  0.3740 -0.2253
55489SOL     OW72429   9.101   2.640   0.198  0.2862  0.2227  0.2830
55489SOL    HW172430   9.117   2.578   0.128 -0.5147  0.1798  0.1253
55489SOL    HW272431   9.149   2.719   0.172  0.1310  0.1496 -0.2315
55490SOL     OW72432   1.813   6.234  11.431  0.0080 -0.1048 -0.5708
55490SOL    HW172433   1.745   6.290  11.469  1.8317  2.5576 -0.9705
55490SOL    HW272434   1.861   6.200  11.507 -1.1591 -1.2736 -0.3231
55491SOL     OW72435   8.995   1.125  10.974  0.4331  0.0090 -0.3289
55491SOL    HW172436   9.076   1.175  10.973  0.7627 -0.4331  1.2509
55491SOL    HW272437   8.928   1.189  10.997  0.1558  0.5421 -2.4028
55492SOL     OW72438  11.265   2.265   4.293  0.3423 -0.0621  0.0882
55492SOL    HW172439  11.264   2.245   4.200  0.5681 -0.3054  0.1367
55492SOL    HW272440  11.298   2.185   4.334 -1.5424 -0.6728  0.5421
55493SOL     OW72441   2.976  10.200   3.776 -0.3370 -0.0365  0.6344
55493SOL    HW172442   3.067  10.212   3.750 -0.6873 -1.3333 -1.4441
55493SOL    HW272443   2.925  10.217   3.697 -1.7088 -1.5111  1.1216
55494SOL     OW72444   3.517   2.835   1.456 -0.1255 -0.2030  0.1501
55494SOL    HW172445   3.557   2.790   1.530  0.1049 -0.7686 -0.3092
55494SOL    HW272446   3.457   2.770   1.418 -0.3027  0.1095 -0.1075
55495SOL     OW72447   8.428   6.799   0.981 -0.2170  0.1750  0.2449
55495SOL    HW172448   8.422   6.821   0.888 -2.4081  0.5904  0.4301
55495SOL    HW272449   8.472   6.714   0.982 -2.9498 -1.4275 -1.4833
55496SOL     OW72450   8.465   2.327  11.502 -0.6391 -0.0420 -0.4830
55496SOL    HW172451   8.466   2.410  11.551  0.2153 -0.6431  0.5582
55496SOL    HW272452   8.485   2.260  11.567  0.9003 -0.8462 -1.7181
55497SOL     OW72453  10.268   4.743  11.408 -0.2483  0.8571  0.4563
55497SOL    HW172454  10.193   4.693  11.438 -1.3902  2.0260 -0.3465
55497SOL    HW272455  10.284   4.807  11.478  0.9234 -0.2749  1.2709
55498SOL     OW72456   4.846   2.251  11.820 -0.1036  0.7695  0.2568
55498SOL    HW172457   4.811   2.332  11.783  0.5271  0.6334 -0.6795
55498SOL    HW272458   4.769   2.196  11.834 -0.3210  0.5048 -1.6841
55499SOL     OW72459   7.062  11.991   2.464  0.0168  0.2312  0.5433
55499SOL    HW172460   7.083  11.962   2.375 -1.1881  0.9255  0.0014
55499SOL    HW272461   7.021  12.077   2.452 -0.5962  0.1236  1.7317
55500SOL     OW72462   5.643  10.661   2.150 -0.3262  0.1286 -0.2492
55500SOL    HW172463   5.723  10.700   2.115  0.5876 -0.5358  0.9943
55500SOL    HW272464   5.633  10.579   2.101  0.0200  0.0038 -0.1213
55501SOL     OW72465  11.422   2.890   9.524  0.0965  0.4758  0.4592
55501SOL    HW172466  11.343   2.944   9.532  0.8579  1.6831  0.0538
55501SOL    HW272467  11.406   2.838   9.445 -1.1131 -0.7324  1.4637
55502SOL     OW72468   2.619   9.387   9.725 -0.0895  0.2448 -0.4529
55502SOL    HW172469   2.710   9.416   9.734 -0.4945  1.1347  1.2402
55502SOL    HW272470   2.594   9.413   9.637  1.1940  0.2936 -0.8231
55503SOL     OW72471   3.327   9.900   9.267  0.1037  0.0595 -0.0677
55503SOL    HW172472   3.394   9.848   9.313  0.1166  1.0846  1.1304
55503SOL    HW272473   3.324   9.863   9.179  0.0388 -2.0436  0.7572
55504SOL     OW72474   6.574   0.017   5.911 -0.3749  0.4467  0.2151
55504SOL    HW172475   6.629   0.092   5.891 -1.4762  1.4356  0.7954
55504SOL    HW272476   6.487   0.042   5.881 -1.0575  0.0022  1.7368
55505SOL     OW72477   9.986   8.357   5.763  0.0305  0.2947 -0.0430
55505SOL    HW172478  10.011   8.431   5.818  0.1290  0.3938 -0.2179
55505SOL    HW272479   9.890   8.355   5.768  0.0070  0.6378 -0.2968
55506SOL     OW72480   3.801   2.930   8.617  0.7399  0.0139  0.4882
55506SOL    HW172481   3.882   2.888   8.591  0.4903 -0.7823  0.9675
55506SOL    HW272482   3.764   2.964   8.535  0.4322 -1.6185 -0.0894
55507SOL     OW72483   4.864  10.912   2.020 -0.5684 -0.2909  0.2251
55507SOL    HW172484   4.807  10.834   2.024  0.7386 -1.2766  0.4238
55507SOL    HW272485   4.886  10.929   2.111 -0.2294 -0.1675  0.1194
55508SOL     OW72486   6.601   4.552   1.107  0.3866 -0.0685 -0.3301
55508SOL    HW172487   6.687   4.540   1.067  0.5774 -2.2020  0.5718
55508SOL    HW272488   6.620   4.587   1.194  0.4915 -1.8010  0.3809
55509SOL     OW72489   1.396  12.198   4.885 -0.1154 -0.6152  0.2856
55509SOL    HW172490   1.368  12.191   4.977 -0.3308  1.0132  0.3764
55509SOL    HW272491   1.455  12.273   4.884  0.7956 -1.3207 -0.7235
55510SOL     OW72492   5.337  11.869  11.261 -0.1083 -0.3938 -0.5537
55510SOL    HW172493   5.411  11.809  11.255  0.1316 -0.0976 -0.6033
55510SOL    HW272494   5.307  11.881  11.171 -1.4428 -2.0038 -0.3679
55511SOL     OW72495   4.413  12.270   9.255 -0.0674  0.1361  0.1801
55511SOL    HW172496   4.356  12.206   9.214 -0.5921  0.4290  0.4469
55511SOL    HW272497   4.357  12.317   9.317  0.9383 -1.1527  2.2098
55512SOL     OW72498   3.278   7.811   7.223 -0.1278  0.1994  0.1528
55512SOL    HW172499   3.255   7.860   7.145  1.4073 -1.7459 -1.6436
55512SOL    HW272500   3.287   7.720   7.193 -0.9101 -0.9026  2.8976
55513SOL     OW72501   1.606   7.115  10.911  0.4543  0.1125 -0.0491
55513SOL    HW172502   1.697   7.104  10.940  0.0862  1.0989  1.5954
55513SOL    HW272503   1.612   7.169  10.832  1.4257 -1.8038 -1.3512
55514SOL     OW72504  12.061   3.951   0.854  0.0594  0.4301 -0.1446
55514SOL    HW172505  11.972   3.919   0.867  0.1351 -0.0633 -0.8392
55514SOL    HW272506  12.105   3.882   0.805  0.3921  1.3157 -1.1287
55515SOL     OW72507   4.958  11.606   2.636 -0.5911  0.0159 -0.0077
55515SOL    HW172508   4.949  11.701   2.637 -2.1398 -0.1125  0.0528
55515SOL    HW272509   5.052  11.591   2.644 -0.4842  1.5133  2.6357
55516SOL     OW72510   4.638   2.250   7.360  0.3437 -0.1955 -0.0731
55516SOL    HW172511   4.679   2.235   7.446 -0.1564  2.0843  0.6409
55516SOL    HW272512   4.708   2.291   7.308 -0.0166  0.5846  0.0417
55517SOL     OW72513   7.168   5.842   4.537 -0.3057 -0.2124 -0.2973
55517SOL    HW172514   7.230   5.900   4.492 -0.3816 -0.2825 -0.4943
55517SOL    HW272515   7.082   5.869   4.504 -0.5652  1.1508  1.3565
55518SOL     OW72516   7.832   7.733   2.765  0.6647  0.0770  0.0734
55518SOL    HW172517   7.869   7.648   2.743  1.3605  0.7108 -1.3322
55518SOL    HW272518   7.737   7.720   2.762  0.7544 -0.9298  1.1141
55519SOL     OW72519   0.435   1.560   0.227 -0.1556  0.0772 -0.3527
55519SOL    HW172520   0.361   1.619   0.240 -1.3018 -0.9992 -1.6339
55519SOL    HW272521   0.467   1.541   0.316 -0.9189  1.1609  0.1736
55520SOL     OW72522  11.035   6.155   2.911 -0.2742 -0.4179  0.2167
55520SOL    HW172523  10.948   6.136   2.945 -0.9115 -0.7505 -1.5070
55520SOL    HW272524  11.029   6.245   2.879 -0.3660 -0.8193 -0.9534
55521SOL     OW72525   0.509  11.007   3.460 -0.0675  0.3125  0.1892
55521SOL    HW172526   0.577  11.054   3.411 -0.1885  0.4947  0.1952
55521SOL    HW272527   0.428  11.051   3.437  0.0016  1.1551  1.4463
55522SOL     OW72528   3.186   6.098   6.673  0.0673 -0.4805 -0.2938
55522SOL    HW172529   3.278   6.079   6.692 -0.1286 -1.6383 -0.4432
55522SOL    HW272530   3.138   6.060   6.746 -0.1262  3.3357  1.7846
55523SOL     OW72531   0.237   6.187   9.103  0.0061  0.1234 -0.3092
55523SOL    HW172532   0.221   6.118   9.167  1.1867  2.3080  2.5773
55523SOL    HW272533   0.331   6.183   9.086  0.6181  2.5095  1.9574
55524SOL     OW72534   8.504   4.540   3.342  0.4134  0.2855 -0.1063
55524SOL    HW172535   8.544   4.624   3.367  0.8317  0.1268 -0.2323
55524SOL    HW272536   8.574   4.493   3.297  0.1028 -0.0309 -0.2593
55525SOL     OW72537   6.885   4.221   3.649  0.4447  0.8381  0.1133
55525SOL    HW172538   6.918   4.310   3.650  1.8999  0.3271  0.2869
55525SOL    HW272539   6.917   4.184   3.566  0.8665  0.1267  0.5837
55526SOL     OW72540   4.333   7.081   4.214  0.7079 -0.1620 -0.4520
55526SOL    HW172541   4.412   7.030   4.197  0.5440 -0.4938 -0.2134
55526SOL    HW272542   4.365   7.163   4.251  0.8835 -0.7824  0.8230
55527SOL     OW72543   9.238   6.368   0.031 -0.3664  0.0596  0.4851
55527SOL    HW172544   9.275   6.280   0.042  0.3320  0.3323  0.3444
55527SOL    HW272545   9.281   6.403  -0.047 -0.7475  0.4769  0.4582
55528SOL     OW72546   9.924   1.204   6.801 -0.3128  0.0587  0.4295
55528SOL    HW172547   9.923   1.195   6.896 -0.5373  1.2590  0.5537
55528SOL    HW272548   9.897   1.294   6.785 -1.1331 -0.3808 -0.8156
55529SOL     OW72549   7.794  10.475   9.292  0.4129 -0.2060  0.2254
55529SOL    HW172550   7.767  10.496   9.382  2.3688 -0.4506  0.9198
55529SOL    HW272551   7.760  10.548   9.240  1.2007  1.1560  1.5260
55530SOL     OW72552   3.068  10.302   0.460  0.2007  0.7826 -0.9696
55530SOL    HW172553   3.083  10.246   0.536 -0.4121  2.8232  0.7624
55530SOL    HW272554   3.148  10.354   0.453 -0.2259  1.4565 -0.9178
55531SOL     OW72555   6.344   4.854   0.167 -0.0625  0.0733 -0.5337
55531SOL    HW172556   6.356   4.907   0.246  1.7431 -0.6711 -0.2525
55531SOL    HW272557   6.258   4.879   0.134 -0.9675  0.2596  1.7682
55532SOL     OW72558   9.927   4.983   4.347 -0.2262  0.0402 -0.8205
55532SOL    HW172559   9.852   4.927   4.329 -0.2611  0.1002 -0.8676
55532SOL    HW272560  10.002   4.924   4.349 -0.6119 -0.4778  2.1460
55533SOL     OW72561   4.308   9.245   7.940  0.3615  0.1438 -0.0046
55533SOL    HW172562   4.339   9.189   8.011  0.1125  0.2909  0.2268
55533SOL    HW272563   4.354   9.214   7.862  2.5630  1.5909  0.6303
55534SOL     OW72564   5.533   5.363   1.760 -0.1058 -0.0353 -0.0697
55534SOL    HW172565   5.523   5.338   1.852 -0.9471  1.6587  0.3437
55534SOL    HW272566   5.594   5.438   1.762 -0.8805  0.6393 -0.7668
55535SOL     OW72567   0.518   7.539   3.219 -0.4974  0.2403  0.1396
55535SOL    HW172568   0.576   7.568   3.150  0.5791  0.5887  1.1597
55535SOL    HW272569   0.559   7.570   3.300 -1.6285 -0.2926  0.9468
55536SOL     OW72570   7.464   9.162   8.882 -0.0610 -0.0536 -0.0458
55536SOL    HW172571   7.523   9.177   8.956 -0.4703  2.7279 -0.1771
55536SOL    HW272572   7.511   9.197   8.806 -1.2939  1.0161 -0.3575
55537SOL     OW72573   3.676   0.547  11.773  0.4149  0.6758 -0.7963
55537SOL    HW172574   3.687   0.564  11.679  1.2209  1.2823 -0.6004
55537SOL    HW272575   3.717   0.622  11.816  0.3821  0.2176  0.0516
55538SOL     OW72576   4.319   3.584   7.454  0.1596  0.5752 -0.0471
55538SOL    HW172577   4.262   3.532   7.398 -0.0274  0.3177  0.3796
55538SOL    HW272578   4.379   3.627   7.394  0.5574 -0.4227 -0.3829
55539SOL     OW72579   2.083   9.171  10.895 -0.2009 -0.3063  0.3945
55539SOL    HW172580   2.099   9.259  10.927  2.2665  0.3777 -2.2993
55539SOL    HW272581   2.150   9.117  10.935  0.0295 -0.3740 -0.0724
55540SOL     OW72582   9.711  10.191   0.801 -0.3719 -0.2694 -0.4319
55540SOL    HW172583   9.720  10.281   0.769 -1.7615 -0.1417 -0.5118
55540SOL    HW272584   9.719  10.199   0.897  0.9895 -0.2828 -0.5212
55541SOL     OW72585   6.596   6.630  10.879  0.3221 -0.1302 -0.1376
55541SOL    HW172586   6.532   6.638  10.950  1.3346 -0.8083  0.8816
55541SOL    HW272587   6.560   6.562  10.823  0.5145 -1.0825  0.8613
55542SOL     OW72588  10.074   7.458   5.229  0.1528  0.1742 -0.4265
55542SOL    HW172589  10.151   7.507   5.259 -0.0893 -0.3394  1.1210
55542SOL    HW272590  10.109   7.384   5.180  0.6387  0.0922  0.0415
55543SOL     OW72591   1.597   3.915   5.403 -0.1572 -0.1615 -0.0269
55543SOL    HW172592   1.525   3.866   5.361 -0.5200  0.6972 -0.4253
55543SOL    HW272593   1.661   3.927   5.333  0.1778 -0.5242  0.2116
55544SOL     OW72594   5.809   5.202   5.370  0.0171 -0.1892  1.1083
55544SOL    HW172595   5.856   5.284   5.351  0.4883 -0.6143  0.3958
55544SOL    HW272596   5.827   5.185   5.462  1.4502 -0.4521  0.7949
55545SOL     OW72597  11.714   7.200   6.808 -0.1846 -0.4279 -1.3056
55545SOL    HW172598  11.736   7.292   6.823  0.3653 -0.8340  0.6808
55545SOL    HW272599  11.764   7.176   6.729  2.0101  0.2204 -0.1970
55546SOL     OW72600  10.828   2.654  12.402  0.4919  0.6958  0.4599
55546SOL    HW172601  10.922   2.667  12.389  0.6833  1.6954  2.4830
55546SOL    HW272602  10.817   2.559  12.402  1.8647  0.4894  2.1663
55547SOL     OW72603   3.119   3.993  12.281  0.0038  0.1720  0.1736
55547SOL    HW172604   3.155   3.996  12.192  1.6878  1.2252  0.8448
55547SOL    HW272605   3.106   3.900  12.298 -0.7169 -0.0331 -1.3019
55548SOL     OW72606   7.438   8.129   0.016  0.2032  0.0765 -0.1256
55548SOL    HW172607   7.415   8.066   0.084 -0.8309 -1.9287 -2.1553
55548SOL    HW272608   7.495   8.080  -0.043 -0.3473  1.1340 -1.5985
55549SOL     OW72609   7.736   4.495   2.057  0.5816 -0.5880  0.0528
55549SOL    HW172610   7.696   4.441   2.125 -2.1558 -0.1454 -1.0963
55549SOL    HW272611   7.718   4.585   2.084  0.7644 -0.3774 -0.5180
55550SOL     OW72612   7.667  11.601  10.667 -0.6299  0.2580  0.4424
55550SOL    HW172613   7.641  11.564  10.582 -0.8027 -1.2326  1.1222
55550SOL    HW272614   7.605  11.672  10.682 -2.0748 -0.9569  0.3822
55551SOL     OW72615   7.193   3.664   3.422  0.3334  0.3621 -0.3833
55551SOL    HW172616   7.199   3.743   3.369  1.8034  0.3283 -0.3160
55551SOL    HW272617   7.217   3.692   3.510  1.1827 -0.1903 -0.4186
55552SOL     OW72618   4.189   3.976   2.656  0.2553  0.1462 -0.0496
55552SOL    HW172619   4.227   4.062   2.643  0.0767  0.0983 -0.9444
55552SOL    HW272620   4.233   3.941   2.734 -0.3923  1.4301  0.9392
55553SOL     OW72621   6.313   9.069  11.144  0.2980 -0.0049 -0.0638
55553SOL    HW172622   6.302   9.002  11.077 -1.5290 -1.1023  1.2442
55553SOL    HW272623   6.362   9.026  11.214 -0.5230  0.1294  0.6113
55554SOL     OW72624  11.692  12.474   6.141  0.6354  0.3670  0.0972
55554SOL    HW172625  11.720  12.397   6.191  0.6656 -0.8596 -1.6927
55554SOL    HW272626  11.598  12.464   6.132  0.7756 -0.0746 -1.0519
55555SOL     OW72627  11.052   1.615   3.945  0.1787 -0.0166 -0.9383
55555SOL    HW172628  11.060   1.633   3.852  0.5906 -1.5385 -1.2353
55555SOL    HW272629  11.036   1.520   3.950 -0.9274  0.2109  0.4828
55556SOL     OW72630   9.604   7.242   0.029 -0.0461 -0.4507 -0.5971
55556SOL    HW172631   9.664   7.223  -0.044  0.3328 -0.0331 -0.3984
55556SOL    HW272632   9.573   7.331   0.013  0.0515 -0.3500 -0.2410
55557SOL     OW72633   1.785   4.963   2.566 -0.2112  0.3284  0.1861
55557SOL    HW172634   1.731   5.030   2.608 -2.7651 -1.6942  0.4572
55557SOL    HW272635   1.842   5.011   2.506 -0.5040  2.8368  1.7682
55558SOL     OW72636   8.470   7.324  11.445 -0.4464 -0.2347  0.1775
55558SOL    HW172637   8.381   7.292  11.459 -0.6290  0.1428 -0.1259
55558SOL    HW272638   8.520   7.287  11.518 -1.5678  2.3915  2.4612
55559SOL     OW72639   3.773   0.874   6.480  0.6016  0.0921  0.5521
55559SOL    HW172640   3.757   0.968   6.468  3.4293  0.5983 -0.1691
55559SOL    HW272641   3.809   0.867   6.568  1.2746 -0.1376  0.2685
55560SOL     OW72642   0.385  11.240  11.980 -0.9144  0.0798 -0.2629
55560SOL    HW172643   0.430  11.156  11.993 -1.9133 -0.4760 -0.2894
55560SOL    HW272644   0.454  11.305  11.988 -0.2263 -0.7015  0.4628
55561SOL     OW72645  11.402   7.100   8.348  0.4560  0.2076  0.1310
55561SOL    HW172646  11.339   7.029   8.340 -0.4781  1.0574 -0.3169
55561SOL    HW272647  11.486   7.061   8.322  0.4662 -1.3702  2.3269
55562SOL     OW72648   7.137   4.029   7.461  0.1727 -0.3780  0.1374
55562SOL    HW172649   7.221   3.989   7.483  0.1754 -0.5183 -0.1206
55562SOL    HW272650   7.111   3.986   7.380 -0.0978 -0.2589  0.1599
55563SOL     OW72651   8.594   2.573   7.235  0.1791 -0.0948 -0.4658
55563SOL    HW172652   8.542   2.650   7.215  1.8796  1.5454  0.9771
55563SOL    HW272653   8.614   2.534   7.150 -2.2516 -0.0856 -1.1215
55564SOL     OW72654  10.932   1.006   7.618 -0.3416  0.7384  0.3371
55564SOL    HW172655  10.949   1.098   7.597  1.9573  0.0150 -1.4627
55564SOL    HW272656  10.882   0.974   7.543 -1.8888  0.6790  1.3638
55565SOL     OW72657  11.465  12.491  11.197  0.0322  0.0974  0.6935
55565SOL    HW172658  11.370  12.484  11.209  0.0337 -1.4479 -0.0758
55565SOL    HW272659  11.480  12.466  11.106  1.1158  1.2045  0.5347
55566SOL     OW72660   0.908   7.604   5.010 -0.3200 -0.0834  0.0984
55566SOL    HW172661   0.883   7.575   4.923 -1.6974 -0.8245  0.6969
55566SOL    HW272662   0.868   7.690   5.019  0.5718  0.3825 -0.3089
55567SOL     OW72663  12.198   7.628  10.103  0.5893 -0.1664  0.3584
55567SOL    HW172664  12.215   7.537  10.129  1.1626  0.0551  0.7907
55567SOL    HW272665  12.285   7.666  10.093  0.3482  0.4194  0.4888
55568SOL     OW72666  12.148   0.853   2.525 -0.3434 -0.0206  0.3405
55568SOL    HW172667  12.092   0.818   2.456 -1.5347  0.8184  0.8589
55568SOL    HW272668  12.231   0.873   2.480 -0.7396 -0.4670 -0.6122
55569SOL     OW72669   7.380  11.710  12.089  0.5926 -0.0872 -0.4934
55569SOL    HW172670   7.342  11.768  12.023  1.2674 -0.2833 -1.0752
55569SOL    HW272671   7.453  11.668  12.044 -0.1633 -1.7388 -0.2191
55570SOL     OW72672   0.249   5.145   9.407 -0.3812 -0.1969  0.2033
55570SOL    HW172673   0.154   5.132   9.402 -0.3836 -0.2197  0.3010
55570SOL    HW272674   0.269   5.136   9.500 -0.5526  1.7079  0.4577
55571SOL     OW72675   6.281   0.875  11.007  0.1549 -0.6897 -0.6428
55571SOL    HW172676   6.362   0.824  11.014  0.1863 -0.4633  1.1569
55571SOL    HW272677   6.245   0.874  11.096 -1.3274  0.0262 -1.2100
55572SOL     OW72678   0.093   2.693   2.750 -0.2467  0.1875 -0.1587
55572SOL    HW172679   0.142   2.614   2.726  0.4612  0.5091  0.2014
55572SOL    HW272680   0.090   2.744   2.669  1.5649  0.9659  0.2200
55573SOL     OW72681   3.625  12.023   8.818 -0.0539 -0.4079  0.7370
55573SOL    HW172682   3.675  12.073   8.883  0.5603 -1.1522  0.8549
55573SOL    HW272683   3.542  12.071   8.809  1.1997  1.6781 -0.5221
55574SOL     OW72684   5.941   0.963   5.822 -0.5832  0.6613 -0.6918
55574SOL    HW172685   5.948   1.028   5.891 -0.3182  0.1545 -0.2327
55574SOL    HW272686   5.964   1.010   5.742 -0.2488  1.0932 -0.3461
55575SOL     OW72687   8.284   8.636  11.219  0.0797  0.0444 -0.2808
55575SOL    HW172688   8.370   8.594  11.222  1.1619  2.1144 -0.2609
55575SOL    HW272689   8.285   8.686  11.137 -0.8040  0.6903  0.0840
55576SOL     OW72690   5.451   6.827   7.047 -0.3831  0.0572 -0.0494
55576SOL    HW172691   5.441   6.733   7.063 -0.0886 -0.1396 -0.9733
55576SOL    HW272692   5.488   6.861   7.129  2.8278 -1.2068 -0.8431
55577SOL     OW72693   3.629   8.399   4.036 -0.5305 -0.4086  0.1495
55577SOL    HW172694   3.570   8.467   4.003  1.1563  0.9188 -0.2665
55577SOL    HW272695   3.632   8.414   4.130 -3.9019 -3.0426  0.8798
55578SOL     OW72696   9.797   0.527   9.799 -0.0202  1.1890 -0.1995
55578SOL    HW172697   9.730   0.459   9.814  1.4455 -0.2976 -0.0853
55578SOL    HW272698   9.771   0.598   9.857 -0.6716  0.0252  1.0003
55579SOL     OW72699   8.524   7.110   0.093  0.1458  0.1264 -0.0092
55579SOL    HW172700   8.590   7.168   0.131 -1.9113  1.8708  1.0914
55579SOL    HW272701   8.457   7.101   0.160 -0.7311 -1.6705 -1.0396
55580SOL     OW72702   7.213   6.177   7.656  0.9829  0.6612  0.2125
55580SOL    HW172703   7.155   6.231   7.604 -1.9200 -1.0941  1.4032
55580SOL    HW272704   7.219   6.222   7.741 -0.0575  0.0403  0.6371
55581SOL     OW72705   8.077   1.263   7.028 -0.6441 -0.2560 -0.1927
55581SOL    HW172706   8.058   1.295   7.117  0.3531  0.5118 -0.2329
55581SOL    HW272707   8.013   1.193   7.014  0.2812 -1.6076  1.7987
55582SOL     OW72708  10.899   6.487   1.192 -0.4262 -0.1631  0.3828
55582SOL    HW172709  10.957   6.554   1.157  0.5674  0.3220  2.7634
55582SOL    HW272710  10.924   6.407   1.146  0.8493  0.4195  0.0201
55583SOL     OW72711  10.994   4.158   0.357  0.1771 -0.0720  0.2810
55583SOL    HW172712  10.957   4.071   0.338  1.1223 -0.8823  1.9549
55583SOL    HW272713  10.996   4.163   0.452 -0.1621  1.9613  0.2376
55584SOL     OW72714   8.297  11.268   3.216  0.1765 -0.1696 -0.5315
55584SOL    HW172715   8.304  11.262   3.312  1.2587  0.1473 -0.5758
55584SOL    HW272716   8.352  11.198   3.183 -1.2959 -1.1729 -0.9402
55585SOL     OW72717   7.263   6.080   7.388  0.1637  0.2752 -0.3957
55585SOL    HW172718   7.174   6.114   7.377  0.2687  0.1698 -1.7143
55585SOL    HW272719   7.279   6.087   7.482 -0.5133  2.1434 -0.3646
55586SOL     OW72720   2.232   0.659  11.533  0.2054  0.0752  0.1163
55586SOL    HW172721   2.263   0.578  11.574 -0.8448  0.4033  1.6706
55586SOL    HW272722   2.293   0.726  11.564  1.6254 -0.2098 -1.9050
55587SOL     OW72723  11.627   3.945   9.324 -0.8933 -0.0690  0.3113
55587SOL    HW172724  11.626   3.906   9.237  0.5639  1.6943 -0.5618
55587SOL    HW272725  11.720   3.964   9.341 -1.0807 -0.8425  2.4841
55588SOL     OW72726  11.289   7.755  10.276 -0.0718  0.3090  0.0638
55588SOL    HW172727  11.277   7.677  10.330 -1.5178  0.7790  0.4421
55588SOL    HW272728  11.355   7.729  10.211  1.1287 -0.5003  1.5638
55589SOL     OW72729  11.681   4.426   1.349  0.2615 -0.4226 -0.2895
55589SOL    HW172730  11.756   4.413   1.407  0.3600 -0.0073 -0.3206
55589SOL    HW272731  11.715   4.480   1.277 -0.4669  1.2754  0.5729
55590SOL     OW72732   1.873  11.796   0.575  0.6695  0.0375 -0.0071
55590SOL    HW172733   1.791  11.826   0.615  0.2128  1.0807 -1.6388
55590SOL    HW272734   1.854  11.706   0.546 -0.2217  0.5637 -1.1410
55591SOL     OW72735   1.382   9.894   5.799 -0.1751  0.0325 -0.0460
55591SOL    HW172736   1.381   9.824   5.864  3.0591 -1.0597 -0.9804
55591SOL    HW272737   1.308   9.874   5.742 -0.4598 -1.5220  0.8051
55592SOL     OW72738   3.735   5.056   2.922 -0.3158 -0.6174  0.4275
55592SOL    HW172739   3.730   5.024   2.832  0.7492  0.5126 -0.0550
55592SOL    HW272740   3.681   5.136   2.922  0.4565 -0.0821  0.5254
55593SOL     OW72741   7.721   2.815   8.309  0.1329 -0.4382  0.2381
55593SOL    HW172742   7.771   2.805   8.228 -1.2473  0.8484 -0.8031
55593SOL    HW272743   7.756   2.894   8.350 -1.6140  1.0635 -0.9998
55594SOL     OW72744   6.513   4.229  12.077  0.2109 -0.2950 -0.4545
55594SOL    HW172745   6.485   4.167  12.144  2.3562 -0.8753 -0.0448
55594SOL    HW272746   6.502   4.315  12.119  2.1504 -0.6781  0.9372
55595SOL     OW72747   7.728   6.427   5.981  0.1733  0.3675 -0.1726
55595SOL    HW172748   7.805   6.473   5.945 -0.0244  1.9165  1.2871
55595SOL    HW272749   7.655   6.487   5.967 -0.7420 -0.8924 -1.1054
55596SOL     OW72750   7.493   4.124   7.531 -0.0941 -0.1414  0.1369
55596SOL    HW172751   7.432   4.162   7.594  0.8562 -0.6487  1.4050
55596SOL    HW272752   7.474   4.169   7.449 -2.7364 -0.8594  0.2532
55597SOL     OW72753  10.427  10.241   3.857 -0.1346 -0.0469  0.1888
55597SOL    HW172754  10.400  10.159   3.816  0.3125  1.1017 -2.6352
55597SOL    HW272755  10.368  10.307   3.820  0.8364  1.2105  0.7970
55598SOL     OW72756   0.581  10.986   2.283 -0.3578 -0.2049 -0.0574
55598SOL    HW172757   0.582  11.072   2.240 -0.5733 -0.6737 -1.0463
55598SOL    HW272758   0.556  11.005   2.373  0.6123  0.8768  0.0074
55599SOL     OW72759   3.718   0.598   3.615 -0.0986 -0.0817 -0.1751
55599SOL    HW172760   3.666   0.569   3.690 -1.1593 -0.5584 -1.0678
55599SOL    HW272761   3.657   0.651   3.563  0.9837  1.3101 -0.0661
55600SOL     OW72762  12.343   5.593   2.304  0.7589 -0.0598 -0.4885
55600SOL    HW172763  12.326   5.499   2.312  0.7828 -0.1055 -0.9445
55600SOL    HW272764  12.286   5.633   2.370  1.7859 -0.4894  0.7160
55601SOL     OW72765   9.802   4.851  11.953 -0.1706  0.2804 -0.4283
55601SOL    HW172766   9.851   4.848  11.870 -0.5723 -0.9032 -0.6470
55601SOL    HW272767   9.850   4.792  12.011 -0.9195 -0.3338 -0.4169
55602SOL     OW72768   3.690   7.227   9.509  0.3591  0.6825 -0.1077
55602SOL    HW172769   3.691   7.134   9.485 -1.2400  0.4964  0.3968
55602SOL    HW272770   3.763   7.237   9.570 -0.1947 -0.5513  0.7982
55603SOL     OW72771   4.792   9.968   1.135 -0.6080  0.4179 -0.2082
55603SOL    HW172772   4.760  10.057   1.150 -0.2585  0.5269 -0.0846
55603SOL    HW272773   4.849   9.950   1.210  0.9651  0.8797 -1.2238
55604SOL     OW72774   6.573   3.406  10.305  0.5847  0.8981 -0.6924
55604SOL    HW172775   6.564   3.384  10.398  0.8728 -0.0443 -0.8749
55604SOL    HW272776   6.620   3.489  10.305 -0.0690  1.2875  0.0222
55605SOL     OW72777   2.202   7.023   9.092  0.7062 -0.1131 -0.0915
55605SOL    HW172778   2.124   7.058   9.136  0.0139 -0.8243 -0.7150
55605SOL    HW272779   2.167   6.969   9.021  1.7572 -1.4016  0.3378
55606SOL     OW72780   7.207   6.594   0.748 -0.0748 -0.1111  0.1803
55606SOL    HW172781   7.296   6.561   0.763 -0.2573 -0.4105  0.6471
55606SOL    HW272782   7.203   6.675   0.800  0.6041  1.0788 -1.5262
55607SOL     OW72783   1.610  11.658  10.869 -0.4559 -0.1183 -0.2467
55607SOL    HW172784   1.559  11.654  10.788 -0.5010 -2.9500 -0.1716
55607SOL    HW272785   1.689  11.708  10.845 -1.3275  0.7456 -1.4727
55608SOL     OW72786   9.472  11.659  11.103  0.3481 -0.3794  0.2578
55608SOL    HW172787   9.474  11.572  11.142  1.6608 -0.8875 -0.8543
55608SOL    HW272788   9.433  11.645  11.016 -1.5700  0.5546  0.9056
55609SOL     OW72789  10.858   1.792   4.569 -0.1761 -0.1536  0.4972
55609SOL    HW172790  10.775   1.841   4.576 -0.9781 -1.1908 -1.1796
55609SOL    HW272791  10.832   1.705   4.541  1.5237 -0.3190 -0.7204
55610SOL     OW72792   1.668   5.050   2.924  0.0039  0.8096  0.2565
55610SOL    HW172793   1.640   5.097   2.846 -1.0236  2.0415  1.3196
55610SOL    HW272794   1.629   4.963   2.915 -0.9185  1.2522 -0.1355
55611SOL     OW72795   5.907   3.603   7.035 -0.2647 -0.0953 -0.2140
55611SOL    HW172796   5.864   3.525   7.001 -1.2616  0.8271 -1.1395
55611SOL    HW272797   5.896   3.669   6.967 -0.3639  1.1663  0.9671
55612SOL     OW72798   6.196  11.290   8.136 -0.1100 -0.2877 -0.0916
55612SOL    HW172799   6.129  11.222   8.133 -3.7075  2.9544 -1.0621
55612SOL    HW272800   6.169  11.348   8.207  1.8924  0.9777 -0.2725
55613SOL     OW72801   8.441   9.678   2.777 -1.0133  0.5997 -0.7587
55613SOL    HW172802   8.445   9.591   2.737  0.0069 -0.5297  1.5976
55613SOL    HW272803   8.517   9.724   2.743  0.0625 -0.4810  0.0976
55614SOL     OW72804   4.316   3.511   9.822 -0.1925 -0.1667  0.3511
55614SOL    HW172805   4.365   3.500   9.903 -0.5696 -1.0663  0.4750
55614SOL    HW272806   4.380   3.545   9.759  0.4639 -0.8419  0.6429
55615SOL     OW72807   6.732   5.836   2.061 -0.0460 -0.4024  0.0460
55615SOL    HW172808   6.721   5.903   1.994  0.5931  0.4288  0.7361
55615SOL    HW272809   6.649   5.790   2.063 -0.2676 -0.0770 -0.9205
55616SOL     OW72810   4.162   4.753  10.611 -0.0119  0.2855  0.3100
55616SOL    HW172811   4.168   4.796  10.696  0.6316  0.8663 -0.0130
55616SOL    HW272812   4.078   4.781  10.575  0.2696  1.0566  0.2305
55617SOL     OW72813   0.353   1.341   8.051 -0.2143  0.2025  0.1038
55617SOL    HW172814   0.386   1.277   8.114  0.0292  0.9049  0.7056
55617SOL    HW272815   0.357   1.425   8.097 -1.3320  0.5413 -0.3711
55618SOL     OW72816   2.394   9.081   5.034 -0.0686 -0.3410  0.4703
55618SOL    HW172817   2.432   9.169   5.026 -0.5479 -0.1843 -0.1158
55618SOL    HW272818   2.309   9.095   5.075 -0.7429 -0.3723 -0.8783
55619SOL     OW72819   2.322   0.338   3.948 -0.2789  0.2687  0.0891
55619SOL    HW172820   2.240   0.323   3.899 -1.2309  0.9042  1.4183
55619SOL    HW272821   2.308   0.422   3.992  0.6303 -0.1882  1.2788
55620SOL     OW72822   5.259   2.472   1.979  0.0630 -0.1919  0.4747
55620SOL    HW172823   5.306   2.474   2.062  0.0632  1.2774  0.4671
55620SOL    HW272824   5.273   2.384   1.945  0.1042 -0.8022  1.9978
55621SOL     OW72825   2.226   9.756  10.196 -0.4178  0.3767  0.4883
55621SOL    HW172826   2.201   9.829  10.140  0.1770  1.6224  1.7779
55621SOL    HW272827   2.319   9.769  10.212 -0.1867 -0.9713  0.3340
55622SOL     OW72828   8.178   4.462   9.566  0.1928 -0.1223  1.0309
55622SOL    HW172829   8.136   4.534   9.613  0.5950  1.0400 -0.3194
55622SOL    HW272830   8.264   4.495   9.541 -0.0869 -0.5762 -0.7088
55623SOL     OW72831   2.707   4.325   5.217 -0.3236  0.2550 -0.2415
55623SOL    HW172832   2.680   4.401   5.268  0.7616  0.7987 -0.4492
55623SOL    HW272833   2.778   4.286   5.267 -1.4906 -1.2142  0.3468
55624SOL     OW72834   6.024   8.489   3.750  0.3158 -0.2200 -0.5843
55624SOL    HW172835   5.952   8.546   3.723  0.1139  0.1337  0.6294
55624SOL    HW272836   6.076   8.543   3.809  1.6645 -0.4297 -1.5374
55625SOL     OW72837   7.094   2.508  11.638  0.1516  0.0702 -0.1836
55625SOL    HW172838   7.039   2.515  11.560  0.3567  0.7689 -0.2698
55625SOL    HW272839   7.136   2.422  11.631  0.5471  0.3281 -1.0933
55626SOL     OW72840   3.981  11.299   6.690  0.2679  0.2784  0.2515
55626SOL    HW172841   3.978  11.273   6.782 -0.3696 -0.4507  0.0363
55626SOL    HW272842   4.038  11.234   6.648 -0.1149  0.1075 -0.0149
55627SOL     OW72843   6.945   1.498   4.476  0.0971  0.8732 -0.8643
55627SOL    HW172844   6.889   1.421   4.488  0.4347  0.0654 -3.7085
55627SOL    HW272845   6.955   1.534   4.564 -2.6457 -0.5046  0.1315
55628SOL     OW72846   0.638  12.239  11.179  0.0605  0.1355  0.1321
55628SOL    HW172847   0.579  12.313  11.170  0.7507  0.5459 -1.2907
55628SOL    HW272848   0.707  12.270  11.237 -0.9428 -0.2623  1.5938
55629SOL     OW72849   0.261   5.333  10.639 -0.0411 -0.3258 -0.4635
55629SOL    HW172850   0.353   5.310  10.623  0.3607  0.5323  0.5383
55629SOL    HW272851   0.212   5.260  10.601  1.0134 -0.4920 -1.5951
55630SOL     OW72852   0.719   3.193   1.340  0.5296  1.1227 -0.2466
55630SOL    HW172853   0.757   3.108   1.316  1.3403  1.0155  1.2767
55630SOL    HW272854   0.779   3.227   1.407 -0.6714  2.1517  0.3298
55631SOL     OW72855   7.029   0.488   9.531 -0.0108 -0.0394  0.1865
55631SOL    HW172856   7.054   0.576   9.501  1.3170 -0.0979  1.0387
55631SOL    HW272857   6.935   0.494   9.546 -0.2883  0.6784 -1.5793
55632SOL     OW72858  11.800   2.341   2.502 -0.5164  0.2724  0.1695
55632SOL    HW172859  11.880   2.322   2.454 -1.6480 -2.0144 -1.0093
55632SOL    HW272860  11.773   2.427   2.472  1.1722  0.8414  0.1815
55633SOL     OW72861   3.452   2.962  10.071  0.4328  0.0945  0.6677
55633SOL    HW172862   3.514   2.926  10.007 -0.3627 -0.3780  0.1576
55633SOL    HW272863   3.390   3.014  10.019  0.5789  0.8432  1.2143
55634SOL     OW72864  11.782   2.353  11.782 -0.4553 -0.3596  0.0301
55634SOL    HW172865  11.762   2.381  11.693 -0.0781 -2.0141 -0.6122
55634SOL    HW272866  11.877   2.363  11.790 -0.6158  0.8821  0.6742
55635SOL     OW72867   5.128   7.063   1.451 -0.4314 -0.4120  0.1854
55635SOL    HW172868   5.161   6.979   1.484  1.8960  0.2098 -0.3503
55635SOL    HW272869   5.145   7.125   1.522 -1.8961 -0.3008  0.4752
55636SOL     OW72870   3.526  11.900   8.420  0.5750 -0.4726  0.4466
55636SOL    HW172871   3.600  11.935   8.469 -0.8503  0.9044  1.7076
55636SOL    HW272872   3.518  11.810   8.450  1.6805 -0.6294  0.3259
55637SOL     OW72873   7.830   5.930   9.986  0.2169 -0.2013 -0.1189
55637SOL    HW172874   7.880   5.929   9.904 -1.3229 -0.7591 -1.0974
55637SOL    HW272875   7.795   6.019   9.991 -1.5032 -0.7535 -1.2773
55638SOL     OW72876   8.315   5.385   4.469 -0.1456  0.5294 -0.4807
55638SOL    HW172877   8.223   5.396   4.492 -0.4012 -0.1646 -1.1066
55638SOL    HW272878   8.319   5.401   4.374  0.3263  0.3004 -0.5065
55639SOL     OW72879  11.654   5.856   5.490  0.1022 -0.0676 -0.0699
55639SOL    HW172880  11.699   5.906   5.422  0.5495  0.0132  0.2817
55639SOL    HW272881  11.561   5.874   5.475  0.2430  0.7128 -0.0756
55640SOL     OW72882  12.483   8.586  10.018  0.1160  0.2606  0.1901
55640SOL    HW172883  12.445   8.660   9.971 -0.5542 -0.1321  0.1007
55640SOL    HW272884  12.419   8.567  10.087  0.5471  0.1105  0.5525
55641SOL     OW72885   5.719   8.589   3.566 -0.2164 -0.2266  0.5986
55641SOL    HW172886   5.638   8.565   3.522 -0.1367 -0.9074  0.7988
55641SOL    HW272887   5.763   8.649   3.506 -1.5802  1.4288  1.1728
55642SOL     OW72888   6.620   6.747  11.301 -0.3516  0.8163  0.2218
55642SOL    HW172889   6.565   6.718  11.229 -1.0311 -0.8196  1.3328
55642SOL    HW272890   6.663   6.668  11.332 -0.1618  1.4450  1.6551
55643SOL     OW72891   8.831   5.135   1.251  0.0887  0.4745  0.5572
55643SOL    HW172892   8.866   5.091   1.173  0.8116  0.7024  0.7445
55643SOL    HW272893   8.754   5.181   1.219 -0.4985 -0.6572  0.2915
55644SOL     OW72894   0.481   7.882   2.271  0.4597 -0.2833 -0.1271
55644SOL    HW172895   0.518   7.968   2.290 -0.0986  0.2881 -1.4529
55644SOL    HW272896   0.386   7.896   2.270  0.3487 -0.9927 -0.0240
55645SOL     OW72897   2.171   3.806   1.082 -0.6968 -0.0112  0.5327
55645SOL    HW172898   2.138   3.723   1.048  0.3651 -0.2245 -0.0280
55645SOL    HW272899   2.266   3.794   1.085 -0.6634  0.4822  2.3498
55646SOL     OW72900   6.275   3.460   6.582  0.3495 -0.5210 -0.2436
55646SOL    HW172901   6.192   3.414   6.601  0.4879 -0.7879 -0.2768
55646SOL    HW272902   6.315   3.408   6.513 -0.1611  0.4581 -1.3111
55647SOL     OW72903  11.121   5.786   0.319  0.3879  0.0856 -0.1966
55647SOL    HW172904  11.109   5.834   0.237  2.0024  0.0017 -0.5225
55647SOL    HW272905  11.160   5.850   0.378  1.6188 -0.5272 -0.3221
55648SOL     OW72906   8.867   9.383   9.471 -0.7905 -0.4391 -0.5152
55648SOL    HW172907   8.960   9.377   9.453 -0.7751  0.8130 -1.0126
55648SOL    HW272908   8.825   9.366   9.387 -0.9994 -0.6533 -0.3690
55649SOL     OW72909   6.365   9.950   8.517 -0.1738 -0.3528  0.1627
55649SOL    HW172910   6.310   9.914   8.585  0.2339 -1.5891 -0.1416
55649SOL    HW272911   6.347   9.897   8.439 -0.6434  1.0327 -0.7229
55650SOL     OW72912   2.691   7.545   4.309 -0.2394  0.3412 -0.3914
55650SOL    HW172913   2.678   7.450   4.301 -1.4053  0.5437 -1.0245
55650SOL    HW272914   2.650   7.568   4.392 -0.4622  0.3780 -0.5115
55651SOL     OW72915   0.751   8.059   1.293  0.0118  1.1093 -0.2161
55651SOL    HW172916   0.761   8.133   1.353 -1.4216  0.0590  1.3893
55651SOL    HW272917   0.799   7.988   1.334 -0.3819  0.5687 -0.6721
55652SOL     OW72918   5.023   4.678   3.074  1.0575  0.0471  0.2338
55652SOL    HW172919   4.983   4.765   3.063 -0.5280 -0.3743  2.0599
55652SOL    HW272920   5.013   4.636   2.988 -0.4390  0.7902  0.0115
55653SOL     OW72921   2.935   7.661   5.192  0.2976  0.2209 -0.4554
55653SOL    HW172922   2.995   7.734   5.182  0.6543 -0.1112 -0.7881
55653SOL    HW272923   2.856   7.699   5.230  0.8439  0.6070  0.3186
55654SOL     OW72924   2.844   5.682   8.607  0.1970 -0.3213  0.1387
55654SOL    HW172925   2.778   5.703   8.673 -0.2641  1.3581 -0.8026
55654SOL    HW272926   2.927   5.696   8.651 -0.0732  2.8957 -0.1340
55655SOL     OW72927   0.210   7.184   7.581 -1.2530  0.4371 -0.6292
55655SOL    HW172928   0.145   7.118   7.553 -1.2483 -0.0434  0.4594
55655SOL    HW272929   0.158   7.249   7.629 -0.8979 -0.1027  0.5031
55656SOL     OW72930   7.611   7.847  10.920  0.1444  0.0054  0.0290
55656SOL    HW172931   7.651   7.817  10.838  0.6556 -1.4480  0.7716
55656SOL    HW272932   7.630   7.940  10.924  2.2772 -0.3789 -0.3297
55657SOL     OW72933   2.809   3.595   9.875 -0.1789 -0.0949 -0.3656
55657SOL    HW172934   2.719   3.572   9.854 -0.6258  0.3128  0.9892
55657SOL    HW272935   2.860   3.564   9.801 -1.6056  1.0677 -1.8989
55658SOL     OW72936   5.259  12.084   3.145  0.2227 -0.3975 -0.0664
55658SOL    HW172937   5.270  12.032   3.225 -0.5243  0.1391  0.3989
55658SOL    HW272938   5.327  12.051   3.086 -0.7369 -2.4950 -0.1117
55659SOL     OW72939  12.372   9.390   3.071 -0.0302 -0.0741  0.1960
55659SOL    HW172940  12.331   9.346   3.146 -0.5302 -0.2066 -0.1533
55659SOL    HW272941  12.465   9.367   3.078 -0.0421  0.0446  0.8621
55660SOL     OW72942   0.553   6.617   9.597  0.1423  0.3784 -1.0399
55660SOL    HW172943   0.495   6.665   9.538 -0.8416 -0.0756 -0.4682
55660SOL    HW272944   0.517   6.633   9.684  0.7321 -0.1224 -0.6950
55661SOL     OW72945   7.268   5.107   3.154  0.6720 -0.0694 -0.2578
55661SOL    HW172946   7.303   5.066   3.234  1.3264 -1.7416 -1.3490
55661SOL    HW272947   7.345   5.139   3.108  0.1633  3.0805  0.8101
55662SOL     OW72948  12.314   1.954   3.046  0.0333 -0.0425  0.1480
55662SOL    HW172949  12.286   1.974   3.135  2.1441 -0.0444  0.8689
55662SOL    HW272950  12.326   1.859   3.045 -1.1432 -0.2124 -0.5453
55663SOL     OW72951   3.006   1.323   6.105 -0.2236  0.8010  0.0388
55663SOL    HW172952   3.099   1.332   6.126 -0.6002  0.0052  2.3354
55663SOL    HW272953   2.962   1.336   6.189 -2.1168  0.0751 -0.7979
55664SOL     OW72954   6.201  10.471   0.686 -0.2799 -0.4354  0.2846
55664SOL    HW172955   6.251  10.397   0.721 -0.7479 -1.1943 -0.5838
55664SOL    HW272956   6.265  10.521   0.635 -0.1571 -0.7539  0.1227
55665SOL     OW72957   0.626   0.299   5.481 -0.6183 -0.4202  0.1012
55665SOL    HW172958   0.616   0.228   5.544 -1.6267 -0.8555 -0.5298
55665SOL    HW272959   0.709   0.281   5.438  0.1499 -0.0450  1.3680
55666SOL     OW72960   3.505   1.803   5.129  0.0548 -0.3430 -0.6374
55666SOL    HW172961   3.430   1.790   5.187 -0.3036  1.2747 -0.6758
55666SOL    HW272962   3.468   1.802   5.041  0.3513 -1.2091 -0.7580
55667SOL     OW72963   0.682   5.955   1.019  0.0568  0.5123  0.0358
55667SOL    HW172964   0.711   5.956   0.928 -0.5863 -0.4516 -0.1979
55667SOL    HW272965   0.653   6.045   1.036  2.4346  1.3220  0.0731
55668SOL     OW72966   0.143   8.124  10.378 -0.2126 -0.0258  0.2884
55668SOL    HW172967   0.102   8.191  10.324 -1.3301 -0.5222  0.4888
55668SOL    HW272968   0.232   8.155  10.392 -0.0824  0.4124 -1.3129
55669SOL     OW72969   5.100   7.146   3.141 -0.3452 -0.2346 -0.5793
55669SOL    HW172970   5.106   7.070   3.198 -0.4130 -1.3269 -1.9564
55669SOL    HW272971   5.012   7.139   3.102 -1.3409  1.9196  1.0513
55670SOL     OW72972   2.341   9.838  11.057  0.6233 -0.8492 -0.2570
55670SOL    HW172973   2.348   9.746  11.081 -1.4645 -1.3611 -1.3708
55670SOL    HW272974   2.335   9.837  10.961 -3.3326  0.0321 -0.1663
55671SOL     OW72975   3.687   5.199   6.149 -0.2128  0.1471  0.5451
55671SOL    HW172976   3.768   5.155   6.122 -0.4104 -1.2925  2.1647
55671SOL    HW272977   3.638   5.209   6.067  1.4513  0.7880 -0.4197
55672SOL     OW72978   9.824   4.682  10.052  0.1272  0.4292  0.4201
55672SOL    HW172979   9.765   4.611  10.079  1.9540 -1.5367 -0.4835
55672SOL    HW272980   9.790   4.709   9.967 -1.5171  1.8260  1.4498
55673SOL     OW72981  11.039   7.736   1.673  0.8556 -0.6475  0.5964
55673SOL    HW172982  11.065   7.789   1.599  1.9828 -1.4126  0.4177
55673SOL    HW272983  11.121   7.700   1.708  0.2815 -0.9225  1.7313
55674SOL     OW72984   7.840   1.727  12.457  0.5583 -0.3693  0.0010
55674SOL    HW172985   7.790   1.645  12.458  3.6715 -2.4593 -0.9267
55674SOL    HW272986   7.875   1.735  12.545  3.5994 -2.5099 -0.8054
55675SOL     OW72987   8.123   5.889  10.526 -0.1960  0.3858  0.0273
55675SOL    HW172988   8.212   5.921  10.539  0.3661 -0.5438 -1.3421
55675SOL    HW272989   8.128   5.795  10.541 -1.2785  0.5018  1.3733
55676SOL     OW72990   4.586   3.507   4.722  0.3295 -0.0536 -0.2337
55676SOL    HW172991   4.644   3.444   4.678  0.8531 -0.9028  1.5633
55676SOL    HW272992   4.591   3.483   4.815  0.6508  2.7275  0.5492
55677SOL     OW72993   1.371   1.512   3.119  0.8857 -0.1747  0.7452
55677SOL    HW172994   1.402   1.424   3.142 -2.6373 -1.4567  1.1423
55677SOL    HW272995   1.342   1.550   3.202 -1.3551 -0.2928  0.0651
55678SOL     OW72996   0.326   7.978   2.574 -0.0896 -0.0275 -0.2571
55678SOL    HW172997   0.404   8.033   2.566  0.4140 -0.3661  1.8208
55678SOL    HW272998   0.271   8.023   2.638 -1.7042  0.2613 -1.7645
55679SOL     OW72999   2.272   5.203   4.917 -0.0222 -0.2007 -0.1602
55679SOL    HW173000   2.203   5.149   4.877  0.6528 -1.0102 -0.2538
55679SOL    HW273001   2.348   5.191   4.860  0.4173  0.0791  0.3617
55680SOL     OW73002   8.065   3.593   2.151 -0.4344  0.0583 -0.1798
55680SOL    HW173003   8.103   3.674   2.185  0.3859  0.3012 -1.6141
55680SOL    HW273004   8.104   3.524   2.204 -0.2379  0.5199  0.2849
55681SOL     OW73005   9.044   6.855   7.154 -0.2160 -0.1448  0.2072
55681SOL    HW173006   9.110   6.786   7.159  1.2803  0.9662 -2.2545
55681SOL    HW273007   9.092   6.936   7.171 -0.7321  0.7342 -2.0823
55682SOL     OW73008   5.355   3.624  11.775  0.0330  0.5689  0.0328
55682SOL    HW173009   5.284   3.566  11.747 -0.4382  0.5479  1.1871
55682SOL    HW273010   5.323   3.712  11.755 -0.5100  0.5845  0.8975
55683SOL     OW73011   2.013   4.353   6.284  0.6641  0.0655  0.0568
55683SOL    HW173012   1.946   4.415   6.315 -1.4728 -1.1235 -1.9028
55683SOL    HW273013   2.041   4.388   6.200  1.4825 -0.1945  0.2186
55684SOL     OW73014   1.095   6.618   4.076 -0.2362  0.1841  0.3554
55684SOL    HW173015   1.160   6.631   4.145 -0.8444 -0.4391  1.0690
55684SOL    HW273016   1.017   6.587   4.123 -1.5280  2.2503 -0.2616
55685SOL     OW73017   1.628   8.338   4.932  0.4351  0.0948  0.0126
55685SOL    HW173018   1.635   8.385   5.015  2.4340 -2.6111  1.5313
55685SOL    HW273019   1.714   8.348   4.892  1.3415 -2.9829  0.9301
55686SOL     OW73020   4.050  10.796  11.312  0.2626 -0.3924  0.0027
55686SOL    HW173021   4.042  10.820  11.404 -0.2983 -1.8249  0.3456
55686SOL    HW273022   3.987  10.726  11.299  1.0416 -0.9081 -1.2262
55687SOL     OW73023   5.956   0.133   8.733  0.0624 -0.5285 -0.3959
55687SOL    HW173024   5.978   0.107   8.643 -0.7527  0.0939 -0.7914
55687SOL    HW273025   5.868   0.168   8.727  0.3374  0.3685  0.4877
55688SOL     OW73026   1.203   7.710   0.491 -0.1153 -0.8379  0.0226
55688SOL    HW173027   1.281   7.756   0.462  0.6596 -1.4975  1.0027
55688SOL    HW273028   1.190   7.641   0.426 -0.7280  0.1198 -0.9174
55689SOL     OW73029   5.926   7.729   5.976 -0.3227 -0.1623 -0.0720
55689SOL    HW173030   5.870   7.756   5.903  0.7080  0.0619 -0.8036
55689SOL    HW273031   5.898   7.785   6.049 -0.2819  0.7600 -0.7391
55690SOL     OW73032   7.181   7.579   0.573 -0.1247  0.2266  0.1264
55690SOL    HW173033   7.092   7.604   0.598 -0.6958 -0.1050 -1.4399
55690SOL    HW273034   7.169   7.521   0.497  1.3813 -0.6709  0.5311
55691SOL     OW73035   1.582   3.739   5.925 -0.0672 -0.4442 -0.8775
55691SOL    HW173036   1.594   3.645   5.910  0.5068 -0.8076  1.4846
55691SOL    HW273037   1.615   3.780   5.844 -0.1795 -2.2460 -1.8901
55692SOL     OW73038   4.069  11.678  11.536  0.3956  0.4584  0.8747
55692SOL    HW173039   4.037  11.733  11.608  0.7302  0.5571  0.9546
55692SOL    HW273040   4.011  11.697  11.463 -0.1379  0.1300  1.2021
55693SOL     OW73041   0.716   6.271   5.709 -0.3437  0.4760  0.0657
55693SOL    HW173042   0.656   6.203   5.677  0.3298 -0.0315 -0.1417
55693SOL    HW273043   0.756   6.305   5.629 -0.0283  0.5045  0.2391
55694SOL     OW73044   5.922   4.417  10.832  0.2078 -0.1071  0.6303
55694SOL    HW173045   5.876   4.346  10.877  2.4284 -2.6526 -0.7852
55694SOL    HW273046   5.874   4.428  10.750 -0.9240  1.0502  1.4098
55695SOL     OW73047   3.888   2.785   1.362  0.2234 -0.2090  0.0991
55695SOL    HW173048   3.858   2.749   1.445  0.1969  0.9649  0.6255
55695SOL    HW273049   3.866   2.878   1.368  0.0857 -0.1392 -1.2896
55696SOL     OW73050   0.821   0.300  10.226  0.4499  0.1433  0.3675
55696SOL    HW173051   0.882   0.365  10.191 -0.2283  0.1830 -0.8141
55696SOL    HW273052   0.770   0.347  10.292 -1.6420  1.5933 -2.0696
55697SOL     OW73053   8.067   9.027   1.232  0.2979  1.1691  0.0287
55697SOL    HW173054   8.007   9.045   1.160 -0.2988 -1.6985 -0.3325
55697SOL    HW273055   8.015   9.045   1.311 -0.7394 -0.2236 -0.2890
55698SOL     OW73056   3.966   5.212   0.229 -0.0332  0.0791 -0.3905
55698SOL    HW173057   3.937   5.150   0.162  2.1819  0.2139 -1.5585
55698SOL    HW273058   4.038   5.168   0.274 -0.5028  0.5934  0.9176
55699SOL     OW73059   8.243   8.547   5.229 -0.1514  0.4588 -0.2486
55699SOL    HW173060   8.158   8.568   5.267  0.0798  1.2135 -0.1443
55699SOL    HW273061   8.237   8.577   5.138  0.1184  0.8329 -0.1462
55700SOL     OW73062   2.875   3.882   8.055 -0.3877 -0.2102  0.5809
55700SOL    HW173063   2.922   3.920   7.981 -2.1506  0.0678 -0.4605
55700SOL    HW273064   2.853   3.956   8.111 -0.5940 -0.1834  0.4651
55701SOL     OW73065   8.415   0.731   3.349 -0.1869  0.1579  0.1305
55701SOL    HW173066   8.397   0.672   3.276 -0.9348  0.0949  0.3574
55701SOL    HW273067   8.502   0.704   3.381  0.4452  0.6137 -1.1282
55702SOL     OW73068   3.670   1.814   6.633  0.8900 -0.1653 -0.0737
55702SOL    HW173069   3.648   1.899   6.671  0.6875 -0.5607  0.7026
55702SOL    HW273070   3.602   1.799   6.568  0.6944  0.0783  0.0728
55703SOL     OW73071   6.850   0.421  11.549  0.1581  0.2655 -0.2043
55703SOL    HW173072   6.803   0.369  11.615  0.0720  1.2670  0.5415
55703SOL    HW273073   6.791   0.422  11.473 -0.8036  1.0334  0.5191
55704SOL     OW73074   1.354   3.166   3.232 -0.0455 -0.1263 -0.0204
55704SOL    HW173075   1.276   3.114   3.247  0.2467  0.0178  2.3366
55704SOL    HW273076   1.380   3.198   3.319  0.9769  2.2341 -1.0820
55705SOL     OW73077   8.591   0.926   5.797  0.6199  0.2454  0.1066
55705SOL    HW173078   8.599   0.910   5.703  0.1568  1.7685 -0.2160
55705SOL    HW273079   8.682   0.929   5.827  0.7671 -1.3265 -0.0527
55706SOL     OW73080  11.113   6.558   3.816  0.2808  0.5972  0.4851
55706SOL    HW173081  11.119   6.484   3.756 -0.6684  1.3164 -0.5338
55706SOL    HW273082  11.019   6.569   3.832  0.4634  1.0006  1.3811
55707SOL     OW73083   5.702   8.869   0.645 -0.5686 -0.4067 -0.7269
55707SOL    HW173084   5.738   8.949   0.683 -1.0006 -0.4668 -0.1692
55707SOL    HW273085   5.640   8.899   0.579 -2.2063 -0.1918  0.8056
55708SOL     OW73086   8.334  10.354   4.962  0.1411  0.3514  0.1281
55708SOL    HW173087   8.357  10.434   5.009 -1.2299  0.4060  0.7512
55708SOL    HW273088   8.391  10.354   4.885  0.5369  1.6398  0.4036
55709SOL     OW73089   2.297   0.806   8.700  0.3757 -0.4597  0.6926
55709SOL    HW173090   2.371   0.857   8.668 -1.1983  1.5470  0.0104
55709SOL    HW273091   2.313   0.717   8.669  0.6696  0.6746 -2.7978
55710SOL     OW73092   1.871   3.218   5.170 -0.3001  0.3724  0.1305
55710SOL    HW173093   1.926   3.167   5.230 -0.3649 -0.8984 -0.8608
55710SOL    HW273094   1.929   3.242   5.099 -0.4202  1.2040  0.3072
55711SOL     OW73095  11.904   0.626   3.139  0.9368  0.0241  0.0829
55711SOL    HW173096  11.922   0.705   3.088  0.1095 -0.3069 -0.7684
55711SOL    HW273097  11.808   0.623   3.144  0.9723  0.4683  2.3686
55712SOL     OW73098   0.321   6.460  10.465  0.4161 -0.1940  0.0544
55712SOL    HW173099   0.388   6.432  10.402  0.3819  1.3753 -0.7331
55712SOL    HW273100   0.297   6.380  10.512  2.1913 -0.9503 -0.2632
55713SOL     OW73101  12.019   2.372   1.209 -0.1651 -0.0537  0.0408
55713SOL    HW173102  12.014   2.321   1.129 -3.1773 -0.8226  0.6074
55713SOL    HW273103  12.084   2.326   1.263 -0.4790 -1.4369 -0.7111
55714SOL     OW73104   7.006   7.561   0.113 -0.0983  0.3923  0.3724
55714SOL    HW173105   6.971   7.511   0.039 -0.9343 -0.6363  1.4185
55714SOL    HW273106   7.079   7.509   0.146 -0.0938  0.5492  0.6202
55715SOL     OW73107  11.595   9.196   2.710 -0.1212  0.1845 -0.0334
55715SOL    HW173108  11.521   9.256   2.699  0.4549  0.4230 -3.8636
55715SOL    HW273109  11.569   9.118   2.662  1.0824 -0.7879  0.8500
55716SOL     OW73110   9.327  10.188   8.917  0.4568 -0.2333  0.0070
55716SOL    HW173111   9.232  10.198   8.925  0.3211 -1.7082  0.7309
55716SOL    HW273112   9.343  10.172   8.824  0.0501  0.4174 -0.1788
55717SOL     OW73113   6.073   4.939   9.486 -0.5844 -0.1019  0.5302
55717SOL    HW173114   6.036   4.916   9.401  0.8080  0.6295 -0.2997
55717SOL    HW273115   6.163   4.965   9.467 -0.7676  1.7533  1.9962
55718SOL     OW73116  11.521   4.840   0.126  0.1530 -0.1347 -0.0782
55718SOL    HW173117  11.542   4.934   0.128  0.0654 -0.1282  0.9271
55718SOL    HW273118  11.514   4.815   0.218  4.3370 -2.0784 -0.0613
55719SOL     OW73119  10.521   2.485   2.043 -0.4941  0.3438 -0.3815
55719SOL    HW173120  10.494   2.514   1.956 -1.1267 -0.6275 -0.5169
55719SOL    HW273121  10.599   2.432   2.027  0.1590  1.2111 -0.2106
55720SOL     OW73122   7.162   8.996   2.189 -0.1228 -0.2267  0.4852
55720SOL    HW173123   7.089   8.940   2.216 -1.3415  0.8225 -0.4860
55720SOL    HW273124   7.138   9.084   2.221  0.0378  0.3826 -1.0095
55721SOL     OW73125   5.061   1.006  12.038 -0.2231 -0.1021  0.2543
55721SOL    HW173126   5.011   0.952  11.976  0.4117  0.0414 -0.4077
55721SOL    HW273127   5.004   1.015  12.114 -0.5632 -1.2486  0.1570
55722SOL     OW73128  11.176   4.897   1.858  0.0437 -0.3867 -0.1709
55722SOL    HW173129  11.265   4.928   1.874 -0.3613  0.1175  1.2545
55722SOL    HW273130  11.129   4.975   1.827 -0.2173 -0.3220  0.3769
55723SOL     OW73131   3.201   7.788   6.451  0.1620 -0.0294  0.1450
55723SOL    HW173132   3.112   7.762   6.430  0.7893 -0.7561 -1.9337
55723SOL    HW273133   3.253   7.755   6.378  1.9235  1.6716  0.5356
55724SOL     OW73134   5.551   3.614   6.718  0.4882 -0.2187 -0.0022
55724SOL    HW173135   5.490   3.595   6.647 -0.4271 -0.5041  0.8391
55724SOL    HW273136   5.576   3.705   6.704  1.4319 -0.6637 -1.4871
55725SOL     OW73137   6.385   0.424   5.675 -0.5029  0.0077 -0.0482
55725SOL    HW173138   6.414   0.494   5.616 -0.2479 -0.1479 -0.1063
55725SOL    HW273139   6.309   0.462   5.720 -0.2865  0.3723  0.0193
55726SOL     OW73140   9.264   9.344   6.677  0.2647 -0.0263 -0.4090
55726SOL    HW173141   9.285   9.421   6.729 -2.7438  0.5632  0.1167
55726SOL    HW273142   9.240   9.277   6.742 -0.3158 -0.3376 -0.9314
55727SOL     OW73143   3.731   4.306   0.656 -0.5705 -0.7817  0.3246
55727SOL    HW173144   3.804   4.368   0.664 -0.4532 -0.8072 -0.4387
55727SOL    HW273145   3.659   4.347   0.702 -0.2204 -0.5131  0.6399
55728SOL     OW73146   6.787   3.855   1.591  0.5778 -0.0953 -0.0175
55728SOL    HW173147   6.767   3.848   1.498  1.3840 -1.6377 -0.1232
55728SOL    HW273148   6.786   3.764   1.622  0.3071  0.3919  1.4871
55729SOL     OW73149  10.952   9.903   8.686 -0.2423  0.2147  0.8015
55729SOL    HW173150  10.908   9.825   8.721 -0.9806  0.1431 -0.2469
55729SOL    HW273151  10.905   9.976   8.726 -0.0884  0.1272  1.1451
55730SOL     OW73152   8.671   2.424  10.215 -0.1468 -0.1094 -0.5632
55730SOL    HW173153   8.691   2.371  10.293 -0.0051 -0.7254 -1.0049
55730SOL    HW273154   8.676   2.514  10.245  2.5851 -0.2140 -0.4329
55731SOL     OW73155   6.845   1.479  11.348  0.3424  0.4356  0.4401
55731SOL    HW173156   6.926   1.463  11.396  0.3704  0.9144  0.5469
55731SOL    HW273157   6.858   1.431  11.265  0.9311  0.9073  0.2517
55732SOL     OW73158  10.001  10.838   3.716 -0.1496 -0.2702  0.0466
55732SOL    HW173159   9.958  10.803   3.794 -0.0813 -1.1260 -0.2848
55732SOL    HW273160  10.077  10.886   3.749 -1.0120  0.7448  0.6007
55733SOL     OW73161   0.308   9.137   3.705 -0.5742 -0.2858 -0.0134
55733SOL    HW173162   0.245   9.065   3.708 -2.8199  1.5943  0.6410
55733SOL    HW273163   0.349   9.137   3.792 -1.3907 -0.1138  0.3812
55734SOL     OW73164  12.398   3.122   2.546  0.1014 -0.5000 -0.2796
55734SOL    HW173165  12.474   3.099   2.493 -0.1304  1.0324 -1.3664
55734SOL    HW273166  12.435   3.169   2.621  0.3553 -1.6784  0.3462
55735SOL     OW73167   5.815   2.915   0.336 -0.3223 -0.5326 -0.4533
55735SOL    HW173168   5.871   2.847   0.297 -0.4254 -1.9510  1.7110
55735SOL    HW273169   5.726   2.885   0.320 -0.4459  0.4002 -1.6357
55736SOL     OW73170   0.237   6.845  10.388  0.5102 -0.1273  0.5517
55736SOL    HW173171   0.312   6.887  10.347  1.2274 -2.6615 -0.9170
55736SOL    HW273172   0.168   6.848  10.321  0.6321 -1.3705  0.3454
55737SOL     OW73173   2.080   7.998   5.580 -0.1326 -0.1267  0.4467
55737SOL    HW173174   2.154   8.027   5.526  1.8693 -0.5963  2.7555
55737SOL    HW273175   2.003   8.008   5.523  1.3622  2.6138 -1.3034
55738SOL     OW73176   2.528   1.892  10.717 -0.0048  0.8525  0.0192
55738SOL    HW173177   2.509   1.920  10.628 -1.0509 -0.4567 -0.2111
55738SOL    HW273178   2.615   1.852  10.712 -0.2558  0.3596 -0.5406
55739SOL     OW73179   4.652   9.267   2.220  0.2776  0.3967  0.2037
55739SOL    HW173180   4.573   9.319   2.237  0.6275  0.7371  0.7985
55739SOL    HW273181   4.655   9.260   2.125 -0.0960  0.9783  0.1398
55740SOL     OW73182  11.652   9.855   1.303  0.3498 -0.6391  0.0506
55740SOL    HW173183  11.646   9.781   1.243 -1.0166 -0.2812 -0.2886
55740SOL    HW273184  11.597   9.830   1.378 -1.7580  0.7713 -0.9229
55741SOL     OW73185  10.965   6.022   6.065 -0.6168 -0.0153 -0.0513
55741SOL    HW173186  11.007   6.060   5.987 -2.4902 -0.4004 -1.3303
55741SOL    HW273187  10.881   5.990   6.033 -0.9783 -1.2215  1.9316
55742SOL     OW73188  10.659  10.770   7.526  0.3472  1.0425  0.1809
55742SOL    HW173189  10.616  10.743   7.607  0.5676  0.7192  0.1915
55742SOL    HW273190  10.602  10.738   7.457  1.4128 -0.9001  0.1494
55743SOL     OW73191  12.343   5.185   3.559 -0.2558  0.1595  0.1475
55743SOL    HW173192  12.268   5.148   3.607 -0.6973 -1.4505 -1.6422
55743SOL    HW273193  12.304   5.246   3.497 -0.0477 -0.1438 -0.2945
55744SOL     OW73194   3.850  12.159   0.400  0.5917 -0.0916 -0.0289
55744SOL    HW173195   3.828  12.188   0.312  0.5125  1.1608  0.3870
55744SOL    HW273196   3.838  12.064   0.397  1.2961 -0.1554 -1.5474
55745SOL     OW73197  12.084   4.421   7.922  0.1346  0.0595 -0.2481
55745SOL    HW173198  12.151   4.371   7.875 -1.2448 -1.6632 -0.5222
55745SOL    HW273199  12.007   4.363   7.922 -1.3507  1.9296  0.0740
55746SOL     OW73200  12.350   0.289   1.406 -0.0083 -0.2030 -0.0421
55746SOL    HW173201  12.269   0.338   1.396  0.9920  1.3000 -1.3262
55746SOL    HW273202  12.323   0.198   1.410 -1.7743  0.2913 -0.0808
55747SOL     OW73203   8.265   1.922   4.229 -0.4758  0.3384  0.4664
55747SOL    HW173204   8.235   1.855   4.168 -0.3749  0.4965  0.2426
55747SOL    HW273205   8.202   1.920   4.300 -1.6144  1.3782 -0.4776
55748SOL     OW73206   2.075   2.305   2.081 -0.0753 -0.2532  0.4077
55748SOL    HW173207   2.136   2.291   2.009  1.9773  0.6859  1.8549
55748SOL    HW273208   2.011   2.367   2.046  0.5231 -0.2777 -0.7949
55749SOL     OW73209  11.628  10.433   9.885  0.1543  0.0946 -0.1252
55749SOL    HW173210  11.586  10.364   9.835 -0.1909  1.2301 -1.4901
55749SOL    HW273211  11.559  10.468   9.941  0.0657 -0.0289 -0.1580
55750SOL     OW73212   6.547   2.622  11.786  0.5768  0.2350  0.1583
55750SOL    HW173213   6.527   2.531  11.807 -0.4906  0.0132 -1.6050
55750SOL    HW273214   6.639   2.633  11.810  0.8492 -1.4397  0.0103
55751SOL     OW73215  10.788   3.251   0.727  0.7513  0.3661 -0.3020
55751SOL    HW173216  10.801   3.157   0.713 -0.8769  0.0517  0.0890
55751SOL    HW273217  10.876   3.289   0.717  1.4352 -1.1789 -0.5009
55752SOL     OW73218   8.565   5.067   0.360  0.5838  0.3398 -0.2276
55752SOL    HW173219   8.616   5.140   0.324  1.1734 -0.7649 -1.7413
55752SOL    HW273220   8.526   5.025   0.283  1.1525 -1.5829  0.4805
55753SOL     OW73221   6.988   8.939   8.242 -0.2142 -0.7824  0.0762
55753SOL    HW173222   7.010   8.917   8.332 -0.1961 -0.8491  0.0560
55753SOL    HW273223   7.068   8.980   8.208 -0.0068 -1.3056 -0.0914
55754SOL     OW73224   1.309   8.645   4.301  0.1284 -0.2511 -0.0624
55754SOL    HW173225   1.264   8.658   4.218 -0.0114 -0.8637 -0.0913
55754SOL    HW273226   1.384   8.589   4.279  0.1985 -0.2594  0.1921
55755SOL     OW73227   9.419   1.526   4.399 -0.1459  0.2184 -0.0286
55755SOL    HW173228   9.393   1.547   4.489  1.2988  0.3240  0.3968
55755SOL    HW273229   9.414   1.431   4.395 -1.5421  0.2786 -0.2911
55756SOL     OW73230  11.109  11.555   1.704  0.2957  0.4227  0.0766
55756SOL    HW173231  11.129  11.619   1.636 -0.0538  0.5892  0.1299
55756SOL    HW273232  11.172  11.485   1.690 -0.0954  0.2166 -0.7481
55757SOL     OW73233   3.135   8.213   4.706 -0.6703  0.0100  0.5286
55757SOL    HW173234   3.178   8.226   4.791 -1.5281  0.3028  0.9253
55757SOL    HW273235   3.132   8.301   4.668  1.0340 -0.3179 -0.4802
55758SOL     OW73236   0.032  10.165  10.835 -1.0622 -0.4318 -0.6497
55758SOL    HW173237  -0.007  10.172  10.748 -1.3873  1.2886 -0.4020
55758SOL    HW273238  -0.038  10.194  10.895 -1.2004 -2.5442  0.3206
55759SOL     OW73239   3.653  10.135   7.923 -0.1054 -0.2099 -0.2539
55759SOL    HW173240   3.719  10.127   7.992  1.1286 -0.9058 -1.4697
55759SOL    HW273241   3.608  10.050   7.923  0.3290 -0.4392 -0.7348
55760SOL     OW73242  10.645   4.419   3.451 -0.1169  0.0384  0.1597
55760SOL    HW173243  10.681   4.331   3.440 -0.1166  0.0945 -0.2965
55760SOL    HW273244  10.666   4.465   3.369 -0.8996  0.1801  0.0300
55761SOL     OW73245  12.284   6.665   5.863 -0.3814 -0.1456 -0.1934
55761SOL    HW173246  12.357   6.714   5.901 -0.9385 -0.0921  0.8370
55761SOL    HW273247  12.248   6.723   5.796 -0.8555  0.7470  0.8135
55762SOL     OW73248  10.110  12.240   2.090 -0.7204  0.3014 -0.0910
55762SOL    HW173249  10.078  12.186   2.017 -0.6832 -0.7090  0.6185
55762SOL    HW273250  10.038  12.238   2.154  0.3875 -1.3516  1.1891
55763SOL     OW73251  10.911   8.599   2.687  0.4246 -0.3041 -0.4811
55763SOL    HW173252  10.923   8.554   2.770  0.7064 -1.5115 -1.1543
55763SOL    HW273253  10.998   8.598   2.646  0.4249  0.8095 -0.5523
55764SOL     OW73254   0.599   9.143   7.792  0.2659 -0.0960  0.4075
55764SOL    HW173255   0.517   9.160   7.838 -0.4741 -0.5225 -0.7236
55764SOL    HW273256   0.585   9.177   7.704  0.9724 -1.0088 -0.0675
55765SOL     OW73257  11.255  12.358   7.969  0.1371 -0.6253  0.1397
55765SOL    HW173258  11.337  12.400   7.943 -0.4026 -1.0144 -2.4868
55765SOL    HW273259  11.248  12.375   8.063  2.4109  0.7856  0.1289
55766SOL     OW73260   7.804   4.660  11.571 -0.8681  0.1164  0.1458
55766SOL    HW173261   7.838   4.571  11.569  2.6355  1.2962  0.5363
55766SOL    HW273262   7.835   4.696  11.655 -1.0843  2.0658 -0.5450
55767SOL     OW73263   1.768   1.030   0.177 -0.1091 -0.9436  0.1635
55767SOL    HW173264   1.855   0.991   0.185  0.2521 -0.3972 -0.8495
55767SOL    HW273265   1.756   1.080   0.257 -0.8190 -3.5354  1.7686
55768SOL     OW73266  10.931  11.559   0.483 -0.1601  0.1132  0.6751
55768SOL    HW173267  10.886  11.643   0.478 -0.1203  0.1297  0.6030
55768SOL    HW273268  10.861  11.494   0.480 -0.1010  0.0804 -1.0948
55769SOL     OW73269   4.045   9.280  12.217  0.0516 -0.3972  0.5703
55769SOL    HW173270   4.134   9.255  12.241  1.0632  0.8093 -1.6535
55769SOL    HW273271   4.033   9.367  12.256  0.5938  0.2607 -0.6645
55770SOL     OW73272  12.378   8.054  12.373 -0.8465 -0.1465  0.0108
55770SOL    HW173273  12.392   8.070  12.280  1.0395 -1.5690 -0.0017
55770SOL    HW273274  12.392   8.139  12.415 -3.1775  0.8642 -1.0694
55771SOL     OW73275   1.708   7.844   1.737  0.0144  0.3155  0.0945
55771SOL    HW173276   1.705   7.903   1.812 -0.0115  0.0358  0.3122
55771SOL    HW273277   1.649   7.884   1.673 -1.3884 -0.3978  0.9147
55772SOL     OW73278   3.459   4.215   0.401 -0.2268 -0.5113 -0.2987
55772SOL    HW173279   3.463   4.298   0.448 -1.6107  0.0547 -1.1089
55772SOL    HW273280   3.512   4.155   0.454 -3.9200 -0.7353  3.7028
55773SOL     OW73281  10.381   7.688   2.813  0.5495  0.0615  0.3047
55773SOL    HW173282  10.454   7.667   2.872  1.9685 -0.5631 -1.5722
55773SOL    HW273283  10.330   7.607   2.809 -0.3960  0.5509  1.7529
55774SOL     OW73284   1.340  12.471   5.693  0.4383 -0.0110 -0.2332
55774SOL    HW173285   1.401  12.433   5.630  1.5508 -2.6778  2.1971
55774SOL    HW273286   1.361  12.564   5.694  1.0103 -0.0278 -2.9944
55775SOL     OW73287   5.191   4.846   4.117 -0.2477  0.0688 -0.2799
55775SOL    HW173288   5.148   4.854   4.032  0.8015 -0.4665 -0.8673
55775SOL    HW273289   5.273   4.802   4.099 -0.7593 -1.6152  1.2513
55776SOL     OW73290   4.043   8.234   8.926 -0.4496 -0.0800 -0.1369
55776SOL    HW173291   4.114   8.257   8.986 -0.6142  0.1644 -0.0318
55776SOL    HW273292   4.005   8.319   8.901 -2.9651 -0.2655  2.5063
55777SOL     OW73293   0.136   3.125   7.638 -0.7068 -0.4975 -0.0143
55777SOL    HW173294   0.056   3.166   7.669  0.2798 -0.4506  2.7158
55777SOL    HW273295   0.132   3.036   7.672  0.2450 -0.5927 -0.1269
55778SOL     OW73296   8.633   8.006   0.044  0.1290  0.7639  0.6854
55778SOL    HW173297   8.716   8.023   0.000  0.9760  1.2319  2.4070
55778SOL    HW273298   8.657   7.979   0.132 -1.4445 -2.4786  0.2548
55779SOL     OW73299   7.296   6.158  10.438  0.0595  0.0578  0.5217
55779SOL    HW173300   7.383   6.197  10.440  0.1072 -0.0360  2.0650
55779SOL    HW273301   7.237   6.229  10.463 -0.4065  0.2963 -1.1701
55780SOL     OW73302   6.054   9.600   5.840 -0.3538  0.1440  0.1242
55780SOL    HW173303   6.038   9.514   5.879 -1.3754  0.6130  0.8006
55780SOL    HW273304   6.138   9.591   5.795 -0.4565 -1.2098  0.1557
55781SOL     OW73305   7.097   8.522  12.178  0.1142  0.2760 -0.2237
55781SOL    HW173306   7.004   8.545  12.180 -0.0924 -0.5994  1.1981
55781SOL    HW273307   7.121   8.526  12.086 -1.5654 -0.3831 -0.7145
55782SOL     OW73308   2.113   6.309  11.024  0.2060 -0.0027  0.1181
55782SOL    HW173309   2.096   6.296  10.931 -1.0208  1.5878  0.0768
55782SOL    HW273310   2.162   6.392  11.028  0.2196 -0.0405  0.8790
55783SOL     OW73311  12.318  10.489   0.453  0.1260 -0.0094  0.2804
55783SOL    HW173312  12.357  10.503   0.539  0.6650 -0.6689  0.1603
55783SOL    HW273313  12.258  10.415   0.465  1.5820 -1.3447 -0.2733
55784SOL     OW73314   6.522   1.357   5.893  0.4356  0.0899  0.4117
55784SOL    HW173315   6.581   1.399   5.830 -1.2042  0.7961 -0.7084
55784SOL    HW273316   6.581   1.323   5.961  2.0507  1.6685 -0.1043
55785SOL     OW73317  11.747  10.811   7.012 -0.0348 -0.6997 -0.1020
55785SOL    HW173318  11.805  10.883   6.989  0.7099 -0.9471  0.9109
55785SOL    HW273319  11.745  10.812   7.108 -0.6284 -1.5376 -0.0945
55786SOL     OW73320  12.294   0.339   2.266 -0.2397 -0.2895 -0.0586
55786SOL    HW173321  12.283   0.342   2.361 -0.0308 -2.2333  0.0746
55786SOL    HW273322  12.205   0.344   2.231 -0.2248  2.3313  0.0932
55787SOL     OW73323  11.235   4.357   5.368 -0.2803 -0.0585  0.5486
55787SOL    HW173324  11.229   4.422   5.299  0.2494  1.0933  1.5471
55787SOL    HW273325  11.327   4.329   5.367 -0.7094 -1.5327 -0.5005
55788SOL     OW73326   5.569   7.332  11.285 -0.7502  0.3306 -0.1513
55788SOL    HW173327   5.657   7.347  11.319 -0.8536  1.1213 -0.2071
55788SOL    HW273328   5.541   7.250  11.326 -1.5844  2.1188  3.2794
55789SOL     OW73329  10.919  11.862  10.073  0.2811 -0.1752  0.1329
55789SOL    HW173330  10.845  11.801  10.075 -0.1354  0.1323 -2.3424
55789SOL    HW273331  10.880  11.945  10.046  1.2713  0.4639  0.6254
55790SOL     OW73332   5.579   2.262  12.061  0.2776 -0.5802  0.1736
55790SOL    HW173333   5.642   2.286  11.994 -0.8538  0.0965 -0.6829
55790SOL    HW273334   5.618   2.187  12.105  1.6928 -0.1371 -0.2913
55791SOL     OW73335   5.246   4.479   4.022 -0.1676 -0.2008 -0.1161
55791SOL    HW173336   5.276   4.566   3.997  0.1448 -0.0845  0.6274
55791SOL    HW273337   5.210   4.491   4.110 -0.3017 -0.7836 -0.0884
55792SOL     OW73338   4.398  11.977  10.532  0.0037 -0.6036  0.1028
55792SOL    HW173339   4.331  11.950  10.468  0.4356  0.0775 -0.6535
55792SOL    HW273340   4.372  12.066  10.557  0.9355 -0.1150 -0.6321
55793SOL     OW73341   9.494   4.708  11.964 -0.3130 -0.3327 -0.1246
55793SOL    HW173342   9.491   4.649  12.040 -0.5162  0.2210  0.3059
55793SOL    HW273343   9.551   4.780  11.992 -1.2456  0.4173 -0.0971
55794SOL     OW73344   0.524   6.042   8.281 -0.4171 -0.4235  0.4495
55794SOL    HW173345   0.584   6.026   8.354  0.4530 -2.5058 -0.6616
55794SOL    HW273346   0.544   6.132   8.254  1.1109 -0.5345  1.1026
55795SOL     OW73347   8.229   8.348   2.678 -0.0931  0.3249  0.5372
55795SOL    HW173348   8.203   8.430   2.637 -0.6627 -0.0573  0.1294
55795SOL    HW273349   8.162   8.331   2.744  0.0097  0.1742  0.6048
55796SOL     OW73350   0.728  12.106   6.857 -0.4670  0.3242 -0.0331
55796SOL    HW173351   0.733  12.084   6.949  0.4932  1.0287  0.1018
55796SOL    HW273352   0.785  12.043   6.814  0.9827  1.4252  0.1646
55797SOL     OW73353   5.150   9.790  10.724 -0.1919  0.2401  0.4397
55797SOL    HW173354   5.200   9.771  10.645 -0.9229  2.0263 -0.4971
55797SOL    HW273355   5.203   9.755  10.795  1.5227  0.5123 -0.6555
55798SOL     OW73356   4.527   9.495   5.713 -0.4691  0.2598  0.4042
55798SOL    HW173357   4.551   9.560   5.647 -0.1796 -0.0763  0.1756
55798SOL    HW273358   4.604   9.439   5.720  0.0417  1.0881  2.0158
55799SOL     OW73359   0.281   0.058   4.885  0.6766 -0.3118 -0.3040
55799SOL    HW173360   0.223   0.036   4.812  1.0799 -2.3835 -0.0601
55799SOL    HW273361   0.224   0.104   4.947 -0.3510 -0.9550 -0.7331
55800SOL     OW73362   8.714   4.128   8.432 -0.1628  0.0667  0.3485
55800SOL    HW173363   8.693   4.138   8.339 -1.7051 -0.0851  0.6450
55800SOL    HW273364   8.735   4.217   8.462  2.2578 -0.1351 -0.5161
55801SOL     OW73365  10.082   7.828   2.864  0.0995 -0.2000 -0.2227
55801SOL    HW173366  10.127   7.745   2.853 -2.4437 -1.7580  0.2920
55801SOL    HW273367  10.127   7.870   2.937  0.2776 -1.9930  0.7545
55802SOL     OW73368   1.323   7.952   0.364 -0.0251  0.2512  0.4742
55802SOL    HW173369   1.258   7.950   0.294 -0.3666  1.4543  0.7416
55802SOL    HW273370   1.374   8.031   0.347  0.3605  0.1595  1.1618
55803SOL     OW73371  11.115   1.681   0.285  0.3277 -0.1016 -0.3568
55803SOL    HW173372  11.118   1.617   0.214 -1.1864 -1.3011  0.6144
55803SOL    HW273373  11.064   1.754   0.249 -0.4565 -0.7159 -0.4945
55804SOL     OW73374  10.195  11.755   1.389 -0.0261  0.5554 -0.2424
55804SOL    HW173375  10.103  11.772   1.411  0.1520  0.8042  0.3226
55804SOL    HW273376  10.245  11.805   1.453  0.5143 -0.7494  0.3921
55805SOL     OW73377  10.005   9.920  11.360  0.0796  0.0879 -0.6582
55805SOL    HW173378   9.971  10.004  11.328  0.0111  0.1012 -0.5491
55805SOL    HW273379  10.089   9.910  11.315  0.4232  0.5481 -0.1375
55806SOL     OW73380  10.433   8.261   6.884 -0.0355 -0.2028  0.0646
55806SOL    HW173381  10.361   8.252   6.823  0.1041  0.8381 -0.2652
55806SOL    HW273382  10.394   8.247   6.970 -0.6041  0.2446 -0.1209
55807SOL     OW73383   7.799   6.330   2.861 -0.7963 -0.1998  0.0532
55807SOL    HW173384   7.863   6.276   2.908  1.8724  2.7191  0.0761
55807SOL    HW273385   7.804   6.300   2.770 -1.3992 -1.7073  0.4827
55808SOL     OW73386   9.682   0.241  12.303  0.3458 -0.0261 -0.1484
55808SOL    HW173387   9.731   0.315  12.340 -0.6668  0.7113 -0.2263
55808SOL    HW273388   9.749   0.181  12.271  1.2599 -0.1803  1.8567
55809SOL     OW73389   9.524  12.198   5.573  0.0209  0.0829 -0.9498
55809SOL    HW173390   9.570  12.232   5.496  0.8118  0.1853 -0.4427
55809SOL    HW273391   9.463  12.133   5.538  0.3937  0.1051 -1.6605
55810SOL     OW73392   3.274   0.801   4.540  0.6562  0.0567 -0.0842
55810SOL    HW173393   3.346   0.748   4.505  0.1944  1.1072 -2.8520
55810SOL    HW273394   3.207   0.798   4.473  0.1345  3.1243  0.1648
55811SOL     OW73395   6.494   3.486   1.958 -0.1975  0.3423 -0.0450
55811SOL    HW173396   6.490   3.569   2.006  1.8152 -0.0335  0.8340
55811SOL    HW273397   6.483   3.419   2.025 -1.5880 -0.1529 -0.7234
55812SOL     OW73398   4.403   4.200   2.984  0.2155 -0.2196 -0.3640
55812SOL    HW173399   4.393   4.109   3.011 -1.7845  0.1097  0.1662
55812SOL    HW273400   4.467   4.197   2.913 -1.5964 -2.4035 -2.0670
55813SOL     OW73401   0.549   9.932  11.388  0.8327 -0.2548 -0.4946
55813SOL    HW173402   0.473   9.908  11.442 -0.8894  0.3425 -2.5048
55813SOL    HW273403   0.608   9.977  11.448 -1.1694  0.7670  0.8106
55814SOL     OW73404  11.939   2.099  10.416 -0.1777  0.0141  0.4070
55814SOL    HW173405  12.013   2.122  10.474 -0.1664 -0.8061  0.7258
55814SOL    HW273406  11.952   2.006  10.397  0.0358  0.3609 -1.2533
55815SOL     OW73407   6.464  12.295  12.113  0.5321  0.3436  0.2963
55815SOL    HW173408   6.377  12.255  12.109  1.1647 -0.9939 -0.9384
55815SOL    HW273409   6.490  12.304  12.022  2.1168 -0.2571  0.6604
55816SOL     OW73410  10.710   6.993   3.297 -0.4198  0.8857 -0.1039
55816SOL    HW173411  10.770   7.022   3.366 -1.3417  0.3131  0.9738
55816SOL    HW273412  10.762   6.934   3.243  0.2168  1.0563  0.3087
55817SOL     OW73413   4.679   5.958   3.925  0.8015 -0.2759  0.0247
55817SOL    HW173414   4.767   5.978   3.955  0.3157  2.7906 -0.2584
55817SOL    HW273415   4.691   5.894   3.854  2.9487  1.1004 -0.9458
55818SOL     OW73416   0.276   6.421   0.626  0.5439  0.3958 -0.0107
55818SOL    HW173417   0.249   6.385   0.541  0.3768  1.7045 -0.5355
55818SOL    HW273418   0.358   6.376   0.645  0.2670 -0.3691 -0.5666
55819SOL     OW73419   3.036   4.295   1.553 -0.0727  0.0790 -0.3859
55819SOL    HW173420   3.110   4.289   1.614 -0.2361 -1.7642 -0.3183
55819SOL    HW273421   3.077   4.307   1.467  0.2418  0.5928 -0.1674
55820SOL     OW73422   7.166   5.660   3.801 -0.3636  0.2143 -0.1657
55820SOL    HW173423   7.260   5.645   3.812 -0.3043 -0.5253 -1.5260
55820SOL    HW273424   7.159   5.708   3.718 -1.3215 -1.7182 -1.2557
55821SOL     OW73425  11.295  10.705   9.795 -0.1776  0.0573 -0.0477
55821SOL    HW173426  11.227  10.747   9.846  0.5443  0.1915  0.8130
55821SOL    HW273427  11.347  10.657   9.859  1.6640  1.4609 -0.4118
55822SOL     OW73428   7.759   7.431  10.527  0.0714  0.4094  0.0798
55822SOL    HW173429   7.737   7.437  10.620 -0.0311  1.0895  0.0243
55822SOL    HW273430   7.854   7.429  10.524  0.0942 -2.3393  0.3154
55823SOL     OW73431  11.884   7.485   2.914  0.3132 -0.2949  0.2137
55823SOL    HW173432  11.886   7.500   2.820  0.7447 -0.6497  0.1620
55823SOL    HW273433  11.793   7.499   2.939 -0.1527 -1.7501 -0.5213
55824SOL     OW73434   9.557  10.402   1.969 -0.0673  0.1527 -0.2176
55824SOL    HW173435   9.541  10.478   2.025 -0.1057 -0.0823  0.0954
55824SOL    HW273436   9.502  10.333   2.006  0.0724 -0.0679 -0.4156
55825SOL     OW73437   0.460   1.715   9.574  0.4976 -0.3907 -0.2310
55825SOL    HW173438   0.524   1.786   9.580  1.7666 -1.5243  0.1552
55825SOL    HW273439   0.465   1.687   9.482  0.4716 -0.3996 -0.2295
55826SOL     OW73440   3.484   3.995  10.486  0.2052 -0.1253  0.4936
55826SOL    HW173441   3.569   3.952  10.484  0.1661 -0.2471  1.2159
55826SOL    HW273442   3.504   4.088  10.477  0.3277 -0.2376 -0.4967
55827SOL     OW73443   7.921  12.420   5.037  0.4808 -0.4575  0.5866
55827SOL    HW173444   7.879  12.367   4.969  0.2858 -0.0345  0.3773
55827SOL    HW273445   8.014  12.401   5.027  0.3424 -1.5277  1.1612
55828SOL     OW73446   2.520   9.105   0.816  0.0364  0.1022  0.0993
55828SOL    HW173447   2.490   9.031   0.765 -0.3294 -0.6482  1.3691
55828SOL    HW273448   2.601   9.132   0.773 -0.3738 -0.3640 -0.9910
55829SOL     OW73449   0.728   3.939   3.479  0.3453  0.0080  0.1933
55829SOL    HW173450   0.674   3.873   3.436  0.6681 -0.5303  0.5981
55829SOL    HW273451   0.771   3.892   3.551  0.7242  0.6135  0.3719
55830SOL     OW73452   9.803  12.232   9.846 -0.1517 -0.2521  0.5156
55830SOL    HW173453   9.710  12.232   9.823  0.0661 -0.5227 -0.4068
55830SOL    HW273454   9.819  12.320   9.880 -0.5358  0.1300 -0.2492
55831SOL     OW73455  11.753   7.340  10.396 -0.4786  0.0930 -0.3159
55831SOL    HW173456  11.791   7.418  10.355  0.3270  1.5266  2.8363
55831SOL    HW273457  11.828   7.283  10.413 -0.7929 -0.4611 -0.7713
55832SOL     OW73458   5.456   2.952  12.092 -0.3177  0.1173 -0.0399
55832SOL    HW173459   5.492   2.984  12.009  0.2708 -0.8586 -0.1853
55832SOL    HW273460   5.533   2.938  12.148 -0.5347 -0.9675  0.0207
55833SOL     OW73461   8.934   9.673  12.082 -0.0250  0.5787 -0.3943
55833SOL    HW173462   8.903   9.669  12.172  0.6672 -1.0949 -0.1886
55833SOL    HW273463   9.017   9.718  12.086  0.6176 -0.5997  0.0248
55834SOL     OW73464   9.141  11.894   2.402  0.4645  0.2767  0.9089
55834SOL    HW173465   9.049  11.902   2.374  0.6421  0.5605  0.3970
55834SOL    HW273466   9.150  11.803   2.429 -0.5703  0.7528  3.1350
55835SOL     OW73467   9.887  10.356   3.334  0.4482  0.2974 -0.0965
55835SOL    HW173468   9.898  10.415   3.259 -0.6059 -0.3342 -0.7842
55835SOL    HW273469   9.929  10.275   3.307  1.4601  0.5467  0.6536
55836SOL     OW73470   8.095   5.464   9.087 -0.3820  0.0235  0.2788
55836SOL    HW173471   8.010   5.420   9.092  0.1093 -1.1826 -1.2279
55836SOL    HW273472   8.154   5.408   9.138 -0.6485  1.4578  2.3093
55837SOL     OW73473   1.279   0.044   2.247  0.5146  0.2636  0.1308
55837SOL    HW173474   1.190   0.071   2.268  0.0600  0.3137 -1.6772
55837SOL    HW273475   1.302  -0.020   2.315 -0.8771  0.2921  0.6488
55838SOL     OW73476  10.719   1.860   4.226 -0.7026 -0.2879 -0.0266
55838SOL    HW173477  10.802   1.876   4.183 -0.0304  0.4441  1.4436
55838SOL    HW273478  10.722   1.767   4.252 -0.8680 -0.5739 -1.0141
55839SOL     OW73479   6.385  10.248   1.035 -0.2240 -0.0410  0.3928
55839SOL    HW173480   6.396  10.266   1.128  1.4826  0.0273  0.2010
55839SOL    HW273481   6.408  10.156   1.025 -2.8414 -0.7743  0.3835
55840SOL     OW73482   0.565   9.050   9.148  0.0175 -0.4483  0.5357
55840SOL    HW173483   0.548   8.970   9.197 -1.1227 -0.7103 -0.2578
55840SOL    HW273484   0.641   9.029   9.094  0.3352 -0.6554  1.0549
55841SOL     OW73485  11.721  10.763   2.418  0.2004  0.1623 -0.6781
55841SOL    HW173486  11.738  10.840   2.364 -0.0932  0.9985  0.3820
55841SOL    HW273487  11.732  10.794   2.508 -0.5123 -0.8880 -0.2089
55842SOL     OW73488   0.277   3.317   6.936 -0.0651 -0.9050 -0.4251
55842SOL    HW173489   0.250   3.273   6.855 -1.5862  0.9897 -1.0210
55842SOL    HW273490   0.208   3.380   6.953  2.3878  1.9161 -0.1465
55843SOL     OW73491   2.756   7.675  12.450 -0.3156 -0.0317 -0.4271
55843SOL    HW173492   2.807   7.613  12.502 -0.4256  0.1445 -0.1046
55843SOL    HW273493   2.821   7.737  12.416 -0.0433 -0.9960 -1.7376
55844SOL     OW73494   1.502   3.464   8.135  0.5200 -0.8674  0.3696
55844SOL    HW173495   1.585   3.476   8.089  0.1407 -0.2264 -0.1539
55844SOL    HW273496   1.461   3.388   8.092 -0.2544  0.2783 -1.0142
55845SOL     OW73497   9.146   6.835   5.678 -0.3456  0.2260  0.1048
55845SOL    HW173498   9.096   6.844   5.760  0.9028  0.5863  0.8499
55845SOL    HW273499   9.177   6.745   5.679 -1.8520 -0.3486 -0.9060
55846SOL     OW73500   2.767   0.674   7.535  0.5198  0.4602 -0.1478
55846SOL    HW173501   2.796   0.709   7.619  3.4348 -1.9345  0.0263
55846SOL    HW273502   2.848   0.647   7.491 -1.1658 -2.4800 -1.7728
55847SOL     OW73503   0.954  10.452   7.109 -0.4788 -0.7117 -0.0104
55847SOL    HW173504   1.029  10.461   7.050 -0.4961  1.8897  0.2464
55847SOL    HW273505   0.900  10.529   7.091 -1.2144 -0.5837  2.3747
55848SOL     OW73506   9.551   5.833   3.775 -0.6697  0.1698  0.0567
55848SOL    HW173507   9.549   5.923   3.805  0.2862  0.1792  0.1169
55848SOL    HW273508   9.598   5.837   3.692 -0.7417 -0.2613 -0.0072
55849SOL     OW73509   4.103   4.003   8.501  0.0627  0.1834 -0.3189
55849SOL    HW173510   4.147   3.978   8.582  0.7905  2.2506 -0.0211
55849SOL    HW273511   4.056   3.924   8.475  1.7012 -1.2718  0.8356
55850SOL     OW73512   8.593   2.477   0.281  0.2999 -0.3229  0.5974
55850SOL    HW173513   8.657   2.516   0.340 -0.1490  1.9826 -0.3640
55850SOL    HW273514   8.580   2.542   0.212  0.0682 -2.4870 -1.5556
55851SOL     OW73515   1.818  10.331   2.730  0.0024 -0.6764 -0.1719
55851SOL    HW173516   1.811  10.407   2.788  2.0770 -0.6922  0.1948
55851SOL    HW273517   1.796  10.365   2.643 -0.9686 -0.1245  0.2826
55852SOL     OW73518  11.509  10.480   3.307  0.2064  0.3320  0.3756
55852SOL    HW173519  11.554  10.543   3.363  0.1293  1.6322 -0.9665
55852SOL    HW273520  11.416  10.505   3.312  0.1959  0.4349 -0.3070
55853SOL     OW73521   8.729   9.863   0.769 -0.0797 -0.2016 -0.0652
55853SOL    HW173522   8.716   9.860   0.674 -0.6282  0.1054 -0.0064
55853SOL    HW273523   8.765   9.950   0.786 -0.2218 -0.1614  0.0344
55854SOL     OW73524   5.216   0.901   5.535 -0.5507 -0.0388 -0.4029
55854SOL    HW173525   5.184   0.816   5.566  0.8385 -0.3967  0.1646
55854SOL    HW273526   5.139   0.945   5.500 -1.1904 -1.8376 -1.4006
55855SOL     OW73527   6.910   2.501   6.232  0.3005  0.4245 -0.0561
55855SOL    HW173528   6.935   2.411   6.214  1.0823  0.4078  0.9989
55855SOL    HW273529   6.834   2.517   6.175 -0.1322 -1.0341  0.0621
55856SOL     OW73530  11.968   0.439   4.160 -0.0854 -0.1137 -0.3018
55856SOL    HW173531  12.024   0.421   4.084  0.2719 -0.6799  0.0917
55856SOL    HW273532  11.970   0.534   4.169  1.7901 -0.1813  0.4380
55857SOL     OW73533   9.525   5.948   7.877  0.0093  0.1925 -0.1218
55857SOL    HW173534   9.472   6.011   7.926  0.3430  0.0619  0.4087
55857SOL    HW273535   9.462   5.901   7.822 -0.3707  0.3123  0.2098
55858SOL     OW73536   5.287   5.999   0.281  0.3506 -0.1541  0.2153
55858SOL    HW173537   5.264   6.083   0.319  0.6305 -0.2107  0.5057
55858SOL    HW273538   5.258   6.005   0.190  0.3430  0.2417  0.2452
55859SOL     OW73539   4.627   0.771  10.368 -0.7772  0.7893  0.0107
55859SOL    HW173540   4.606   0.864  10.381  0.5910  0.9909  1.1257
55859SOL    HW273541   4.690   0.771  10.296 -0.3377  0.8103  0.3867
55860SOL     OW73542   3.568   3.271   8.302 -0.0468 -0.1222  0.0479
55860SOL    HW173543   3.606   3.235   8.382  0.2169 -0.5068 -0.2481
55860SOL    HW273544   3.634   3.256   8.234 -0.3479  0.0245 -0.2839
55861SOL     OW73545   7.830   6.031   5.855 -0.0890  0.5069 -0.2806
55861SOL    HW173546   7.777   5.979   5.795  0.0878  0.3183 -0.2716
55861SOL    HW273547   7.770   6.099   5.887 -0.7151 -0.5062  0.7654
55862SOL     OW73548   0.097   7.511   9.929 -0.0101  0.0899 -0.2996
55862SOL    HW173549   0.018   7.467   9.899  0.5084 -0.6359 -0.6221
55862SOL    HW273550   0.164   7.442   9.932  0.1654  0.2786  1.7521
55863SOL     OW73551   5.915   0.275   8.985 -0.3308  0.2344 -0.5861
55863SOL    HW173552   5.878   0.257   8.899  1.3975  0.2609 -1.3773
55863SOL    HW273553   6.010   0.267   8.973 -0.0732 -0.7012  1.5300
55864SOL     OW73554   3.996  11.122   8.524  0.2682  0.5738 -0.3327
55864SOL    HW173555   3.967  11.183   8.457  2.7382  0.6338 -1.4730
55864SOL    HW273556   3.928  11.125   8.591 -2.2157  0.6654 -2.6934
55865SOL     OW73557  12.171   2.285  11.582  0.3046  0.1884 -0.0667
55865SOL    HW173558  12.160   2.219  11.651 -0.6019 -0.9488 -1.2566
55865SOL    HW273559  12.135   2.365  11.620  0.1111 -0.3322  0.8896
55866SOL     OW73560   1.706   0.883   1.705  0.7664 -0.2849  0.7425
55866SOL    HW173561   1.633   0.865   1.765 -0.3317 -1.4534 -0.8460
55866SOL    HW273562   1.716   0.978   1.709 -0.4133 -0.1608  1.5074
55867SOL     OW73563   6.524   5.394   9.979 -1.0132  0.0502 -0.0985
55867SOL    HW173564   6.517   5.357   9.891 -0.3664 -1.5481  0.4779
55867SOL    HW273565   6.582   5.469   9.970 -0.0084 -0.7915 -0.8554
55868SOL     OW73566   1.088   7.733   6.976 -0.0784  0.1287 -0.1104
55868SOL    HW173567   1.018   7.674   7.002  0.4405 -1.0912 -1.3679
55868SOL    HW273568   1.168   7.686   6.998  0.3525  0.0393 -1.7665
55869SOL     OW73569   2.842   0.943   1.228 -0.1206  0.1323 -0.5628
55869SOL    HW173570   2.872   0.872   1.285  0.0213  0.3540 -0.3551
55869SOL    HW273571   2.859   1.022   1.279  0.5249  0.3740 -1.1279
55870SOL     OW73572   5.414  11.319   8.254 -0.0090 -0.0375  0.0842
55870SOL    HW173573   5.467  11.283   8.183 -0.1690  0.2513 -0.1820
55870SOL    HW273574   5.403  11.246   8.315 -1.1435 -0.7252 -0.9030
55871SOL     OW73575   9.349   4.855   1.917  0.1572 -0.1279  0.0702
55871SOL    HW173576   9.402   4.845   1.839  0.2568  0.3029  0.0787
55871SOL    HW273577   9.306   4.770   1.929  1.5292 -0.7750  0.5794
55872SOL     OW73578   2.501   2.458  11.152  0.0629 -0.0736  0.0650
55872SOL    HW173579   2.493   2.415  11.237 -1.2836 -0.1168 -0.0750
55872SOL    HW273580   2.580   2.511  11.160  0.4279 -0.7365  1.0438
55873SOL     OW73581  11.596  11.639   4.104  0.7374 -0.6806 -0.0960
55873SOL    HW173582  11.552  11.660   4.186  1.8979 -0.6293  0.5244
55873SOL    HW273583  11.541  11.572   4.064 -1.3709  1.2431 -0.6403
55874SOL     OW73584   4.602  12.259  11.998  0.0176  0.0101 -0.2535
55874SOL    HW173585   4.585  12.331  12.059 -0.1097 -0.7459  0.6153
55874SOL    HW273586   4.679  12.288  11.949 -0.6581  1.1930 -0.6525
55875SOL     OW73587  11.908  10.376  11.059  0.3641  0.4350  0.6897
55875SOL    HW173588  11.921  10.348  11.149  0.8512 -0.3715  0.3779
55875SOL    HW273589  11.919  10.471  11.061 -0.7775  0.5673  1.6769
55876SOL     OW73590   0.422  10.786   5.998  0.2759  0.2468 -0.0988
55876SOL    HW173591   0.493  10.727   5.974  1.2948  0.6944  1.6094
55876SOL    HW273592   0.466  10.864   6.033 -1.0368  0.7717  0.4673
55877SOL     OW73593   3.809   2.951  10.763  0.4660  0.4937 -0.6348
55877SOL    HW173594   3.878   2.889  10.790 -0.8572 -0.6209  0.3102
55877SOL    HW273595   3.816   3.023  10.825  0.0115 -0.1920  0.2321
55878SOL     OW73596  11.379   5.419   7.104  0.3237 -0.3875  0.3531
55878SOL    HW173597  11.399   5.444   7.014 -1.3405  2.2924  0.5963
55878SOL    HW273598  11.314   5.349   7.096  1.4765 -1.3853 -0.4804
55879SOL     OW73599   1.313  11.276   4.273  0.0779 -0.2207 -0.0394
55879SOL    HW173600   1.360  11.203   4.313 -0.0306 -0.2198  0.0923
55879SOL    HW273601   1.226  11.273   4.313  0.0181 -0.1260 -0.1630
55880SOL     OW73602  10.540  10.778  11.590  0.2113 -0.9356  0.0812
55880SOL    HW173603  10.514  10.744  11.676  0.1995  0.0940  0.5041
55880SOL    HW273604  10.596  10.853  11.611 -1.0317  0.2909 -0.7803
55881SOL     OW73605  11.107   5.859   1.185 -0.1511 -0.6728 -0.0223
55881SOL    HW173606  11.166   5.928   1.216 -2.1481  1.5911 -0.9443
55881SOL    HW273607  11.092   5.879   1.093 -3.5992 -0.0526  0.5330
55882SOL     OW73608   5.522   1.574   7.379  0.4632  0.2577  0.4078
55882SOL    HW173609   5.438   1.528   7.384 -0.3313  1.3792 -1.4942
55882SOL    HW273610   5.585   1.506   7.352  0.3951 -0.7599  2.5772
55883SOL     OW73611   6.667  10.870   3.311 -0.3044 -0.3129 -0.2712
55883SOL    HW173612   6.715  10.936   3.260  0.7299 -1.7299 -1.1978
55883SOL    HW273613   6.580  10.909   3.322  0.6417  1.7903  0.3934
55884SOL     OW73614  12.007   1.333   0.779 -0.1694 -0.2807  0.4385
55884SOL    HW173615  12.089   1.284   0.785 -0.9561 -1.6320  0.8749
55884SOL    HW273616  12.010   1.376   0.694  0.3700 -1.4921 -0.1759
55885SOL     OW73617   0.300   3.939   8.498 -0.1640 -0.0844 -0.2279
55885SOL    HW173618   0.386   3.961   8.535  0.7908 -2.2044 -1.0540
55885SOL    HW273619   0.270   4.022   8.460  1.4243  0.7550  0.2202
55886SOL     OW73620   7.386   1.457   6.009 -0.1653  0.1490  0.5061
55886SOL    HW173621   7.412   1.482   5.920  0.0582 -0.2663  0.4486
55886SOL    HW273622   7.369   1.540   6.053  2.0353  0.5331  0.7736
55887SOL     OW73623  10.200  11.688  11.568 -0.0518 -0.0748  0.0787
55887SOL    HW173624  10.230  11.650  11.486 -1.8769  0.1302 -0.7275
55887SOL    HW273625  10.267  11.663  11.632  1.1871 -0.5913 -1.3652
55888SOL     OW73626   2.019   4.571   0.275 -0.3119  0.2372 -0.3029
55888SOL    HW173627   1.968   4.651   0.290 -0.2947  0.3748 -0.9595
55888SOL    HW273628   2.094   4.579   0.334 -1.0485  0.0248  0.6956
55889SOL     OW73629   4.730   7.113  10.565 -0.3448  0.3362  0.4288
55889SOL    HW173630   4.762   7.143  10.479 -1.4419  2.3743  0.6806
55889SOL    HW273631   4.643   7.150  10.572 -0.0531  0.7106  2.6934
55890SOL     OW73632   2.459   5.817   8.174 -0.5022  0.4719  0.6283
55890SOL    HW173633   2.407   5.761   8.117 -1.2628  1.6543  0.1314
55890SOL    HW273634   2.395   5.867   8.225  0.1598  0.6661  1.2977
55891SOL     OW73635   3.696   5.650   1.881  0.1872  0.3615 -0.4409
55891SOL    HW173636   3.717   5.635   1.789 -0.1970 -1.5813 -0.2605
55891SOL    HW273637   3.602   5.665   1.883 -0.2585 -2.0618 -0.1817
55892SOL     OW73638   1.983   6.581   7.997  0.2384 -0.2819 -0.0458
55892SOL    HW173639   1.919   6.639   8.038 -0.5766 -1.1142 -0.1042
55892SOL    HW273640   1.942   6.495   8.000  0.5497 -0.5267 -1.7484
55893SOL     OW73641   5.503   6.989   7.291 -0.2413 -0.1291 -0.1562
55893SOL    HW173642   5.448   7.065   7.271  0.2415  0.3500  0.2677
55893SOL    HW273643   5.556   7.018   7.365  1.7107  0.0033 -1.5332
55894SOL     OW73644   7.804   2.670  11.945 -0.7990 -0.6014  0.1394
55894SOL    HW173645   7.836   2.592  11.991 -1.5196 -0.8285  0.2673
55894SOL    HW273646   7.725   2.641  11.901 -0.5293 -0.1857 -0.6330
55895SOL     OW73647   8.554   1.541   7.066  0.6785 -0.1958  0.1211
55895SOL    HW173648   8.546   1.599   6.990  0.3114  1.3540  1.3050
55895SOL    HW273649   8.639   1.564   7.104  1.4947 -1.9298 -0.5580
55896SOL     OW73650   8.343  11.867   0.398 -0.0982 -0.0532  0.1109
55896SOL    HW173651   8.296  11.907   0.471  0.7289 -0.9735  1.1917
55896SOL    HW273652   8.337  11.773   0.414  0.1591 -0.2756 -0.9833
55897SOL     OW73653   5.691   9.512   3.168  0.2125 -0.1189 -0.3315
55897SOL    HW173654   5.670   9.462   3.247  1.0348  0.9562  0.6066
55897SOL    HW273655   5.778   9.480   3.142 -0.2496 -0.7881 -1.0715
55898SOL     OW73656  11.345   5.695   0.817 -0.0173  0.6185 -0.5040
55898SOL    HW173657  11.251   5.713   0.822 -0.8234 -2.8961  0.0666
55898SOL    HW273658  11.360   5.670   0.726  0.3081  0.8596 -0.5188
55899SOL     OW73659   2.928   7.451   0.063  0.8780  0.1669 -0.2188
55899SOL    HW173660   2.978   7.374   0.034  0.8818 -0.0985  0.4715
55899SOL    HW273661   2.961   7.469   0.151  0.4772  0.6183 -0.1572
55900SOL     OW73662   6.379  12.086   1.303 -0.2508  0.1463  0.0775
55900SOL    HW173663   6.313  12.115   1.366 -0.3657  1.0509 -0.4414
55900SOL    HW273664   6.400  12.164   1.253 -0.0141 -0.5177 -0.8819
55901SOL     OW73665   4.902   9.553  11.673  0.3641  0.8731 -0.3042
55901SOL    HW173666   4.888   9.634  11.625 -1.7727 -1.4335 -4.0097
55901SOL    HW273667   4.973   9.510  11.627  0.3593 -0.1238  0.5837
55902SOL     OW73668   7.611   1.452   0.771 -0.0873  0.1119  0.4167
55902SOL    HW173669   7.549   1.511   0.728 -0.8617 -1.1164 -0.2103
55902SOL    HW273670   7.568   1.367   0.771  0.4329 -0.2173  2.5048
55903SOL     OW73671   1.334   8.088   3.326  0.5839  0.6283 -0.2048
55903SOL    HW173672   1.418   8.047   3.345  1.3525  1.3306 -1.8440
55903SOL    HW273673   1.270   8.039   3.377  1.8222 -0.7649  0.0518
55904SOL     OW73674   2.989   2.710  10.839  0.3704  0.1059  0.1763
55904SOL    HW173675   3.053   2.782  10.840  1.5618 -0.9214  0.5241
55904SOL    HW273676   3.036   2.636  10.877 -0.3550 -1.2760 -1.4872
55905SOL     OW73677   3.350   2.285   5.155 -0.2985  0.4528  0.1799
55905SOL    HW173678   3.265   2.272   5.114 -0.0596  1.2452 -0.5957
55905SOL    HW273679   3.410   2.231   5.103 -0.1583  0.6882  0.0981
55906SOL     OW73680   9.087  10.287   5.850  0.1125 -0.2930 -0.3947
55906SOL    HW173681   9.056  10.263   5.937  1.1230 -1.9791 -0.4393
55906SOL    HW273682   9.085  10.383   5.848  1.7782 -0.1102  2.1723
55907SOL     OW73683   7.172   0.751   0.857  0.5436  0.1857 -0.1228
55907SOL    HW173684   7.210   0.680   0.908  1.8344  0.1657 -1.0786
55907SOL    HW273685   7.103   0.786   0.913  0.5486 -1.1643  0.7745
55908SOL     OW73686  11.336   5.481   1.170  0.5790  0.3616  0.3202
55908SOL    HW173687  11.248   5.481   1.133  0.6869  1.3693  0.0376
55908SOL    HW273688  11.363   5.573   1.168  1.3136  0.1771  1.1916
55909SOL     OW73689   7.162   0.720   9.408  0.2777  0.1869 -0.2512
55909SOL    HW173690   7.180   0.814   9.401 -1.2483  0.4905 -0.3152
55909SOL    HW273691   7.244   0.683   9.442  1.0933  1.4467 -0.7514
55910SOL     OW73692   2.271  10.796   9.760 -0.1010  0.2100  0.6101
55910SOL    HW173693   2.325  10.754   9.693 -1.7085 -0.7233 -0.1407
55910SOL    HW273694   2.234  10.873   9.716 -1.2850 -0.4910  0.3288
55911SOL     OW73695   4.247   8.214   6.804 -0.2351  0.2334  0.2409
55911SOL    HW173696   4.303   8.211   6.726  0.1887  1.8902  0.4527
55911SOL    HW273697   4.241   8.307   6.826  0.3707 -0.2429  2.6992
55912SOL     OW73698   5.961   7.091   5.559  0.3257  0.1795 -0.4594
55912SOL    HW173699   5.984   7.184   5.563  0.1867  0.1920  0.1655
55912SOL    HW273700   5.869   7.088   5.588  0.5287 -0.2190  0.1709
55913SOL     OW73701   2.775   7.251   3.372 -0.0776  0.2614  0.0359
55913SOL    HW173702   2.690   7.221   3.340  0.9613 -1.6532 -1.0828
55913SOL    HW273703   2.806   7.311   3.303  0.3205 -0.5836 -0.5342
55914SOL     OW73704   8.295   4.366   7.192 -0.3472  0.2929 -0.1506
55914SOL    HW173705   8.275   4.273   7.199 -0.9116  0.2758 -1.6141
55914SOL    HW273706   8.239   4.408   7.257  0.3225 -0.4208  0.9184
55915SOL     OW73707  10.051  10.404   9.240  0.1726 -0.8775 -0.6798
55915SOL    HW173708  10.027  10.358   9.160  1.0154 -0.1875 -1.3512
55915SOL    HW273709   9.985  10.377   9.304 -1.8987  0.2817 -2.1928
55916SOL     OW73710   4.786   7.138   5.494  0.4472 -0.3699  0.5059
55916SOL    HW173711   4.847   7.065   5.498  0.0883 -0.7067 -0.0313
55916SOL    HW273712   4.708   7.108   5.541  1.1980  0.5987  2.5307
55917SOL     OW73713   7.894   8.330  11.916 -0.1727  0.2551  0.0330
55917SOL    HW173714   7.859   8.249  11.952 -0.0132  0.5903  0.9534
55917SOL    HW273715   7.869   8.398  11.978 -0.0258  0.8743 -0.5631
55918SOL     OW73716   9.131   3.554  11.103 -0.4182  0.0318 -0.4255
55918SOL    HW173717   9.128   3.649  11.104 -1.5015  0.0619 -2.4759
55918SOL    HW273718   9.046   3.527  11.139  0.5469 -0.2573  1.8354
55919SOL     OW73719   9.961   8.161  10.710  0.5565 -0.0395  0.2363
55919SOL    HW173720   9.979   8.145  10.618  0.4988 -1.2405  0.4129
55919SOL    HW273721  10.020   8.101  10.756 -0.7307 -0.8057  0.9297
55920SOL     OW73722   8.868   7.475   4.103  0.0998 -0.1514 -0.4920
55920SOL    HW173723   8.948   7.453   4.152 -1.2823 -2.4195  0.9640
55920SOL    HW273724   8.883   7.438   4.016  0.1702 -1.7772  0.1718
55921SOL     OW73725  11.842   7.413   6.926  0.1482 -0.3130 -0.7181
55921SOL    HW173726  11.924   7.417   6.974  0.1729  0.8384 -0.8340
55921SOL    HW273727  11.774   7.410   6.994  0.2621 -0.8205 -0.6233
55922SOL     OW73728   1.390   3.589  12.028 -0.0848 -0.0472 -0.2102
55922SOL    HW173729   1.314   3.531  12.026 -0.2154  0.1269 -0.1930
55922SOL    HW273730   1.454   3.542  12.082 -0.6214  0.3620  0.8022
55923SOL     OW73731   8.018   5.450   2.234 -0.5281  0.4189  0.0475
55923SOL    HW173732   8.033   5.502   2.313  0.3810 -0.4223  0.4618
55923SOL    HW273733   8.034   5.360   2.262  2.7673  0.3077 -1.6959
55924SOL     OW73734  10.210  10.668   5.853  0.0435 -0.1178  0.2729
55924SOL    HW173735  10.283  10.707   5.806 -1.6481  0.6218 -1.9488
55924SOL    HW273736  10.213  10.575   5.830 -0.0221  0.0095 -0.2557
55925SOL     OW73737   2.233   4.054   9.615 -0.1447 -0.2286 -0.5976
55925SOL    HW173738   2.207   4.145   9.602  0.6396  0.2112  0.6401
55925SOL    HW273739   2.167   4.003   9.569 -2.1151  0.8756  0.8397
55926SOL     OW73740   5.052   2.236   5.659  0.1755 -0.0213 -0.2099
55926SOL    HW173741   5.074   2.229   5.566 -0.2461 -0.0699 -0.3068
55926SOL    HW273742   4.985   2.169   5.672 -0.9911  1.1226 -0.2474
55927SOL     OW73743   2.362   7.139   2.530  0.0853 -0.0528 -0.3105
55927SOL    HW173744   2.434   7.202   2.524 -0.6202  0.7158 -1.0556
55927SOL    HW273745   2.308   7.157   2.453 -2.0106  0.8069  1.2521
55928SOL     OW73746   5.743   1.219   8.445  0.4353  0.3972 -0.1697
55928SOL    HW173747   5.688   1.173   8.381  0.0086  2.2400 -1.2297
55928SOL    HW273748   5.682   1.247   8.513  0.5999 -0.1212  0.1967
55929SOL     OW73749   6.146   3.122  11.223  0.1432 -0.2837  0.0967
55929SOL    HW173750   6.079   3.056  11.241  0.8961 -1.4723 -1.1638
55929SOL    HW273751   6.217   3.072  11.183  0.0152  1.5579 -2.6504
55930SOL     OW73752   2.905   4.131   1.876 -0.0067 -0.3573 -0.3909
55930SOL    HW173753   2.986   4.179   1.892  0.2735 -0.9739  0.0774
55930SOL    HW273754   2.845   4.197   1.841  0.6990  0.0993 -0.7682
55931SOL     OW73755  10.827  12.459   5.244  0.1616 -0.2361 -0.0373
55931SOL    HW173756  10.752  12.430   5.296 -0.1139 -1.5887 -1.1062
55931SOL    HW273757  10.903  12.422   5.290  0.1402  0.6344  0.7213
55932SOL     OW73758   4.762   3.874   0.815 -0.0319 -0.9941  0.0388
55932SOL    HW173759   4.741   3.924   0.736 -0.3545 -2.2668 -0.7045
55932SOL    HW273760   4.840   3.915   0.850 -0.0361 -0.2488 -0.8013
55933SOL     OW73761  10.948  10.596   6.490  0.2437 -0.1537  0.4155
55933SOL    HW173762  10.990  10.682   6.499  1.6042 -0.6986 -0.4765
55933SOL    HW273763  11.012  10.534   6.524  0.0381 -0.9752 -0.6683
55934SOL     OW73764   6.598  11.523   1.981  0.0532  0.1535 -0.0246
55934SOL    HW173765   6.576  11.610   2.014 -0.8363 -0.6464  1.5743
55934SOL    HW273766   6.562  11.522   1.892 -1.0079  1.0014  0.3721
55935SOL     OW73767   7.989   3.407  10.789  0.6302 -0.0783 -0.6043
55935SOL    HW173768   7.938   3.328  10.805  0.2915  0.1676 -0.4705
55935SOL    HW273769   8.032   3.426  10.872 -0.7561  0.9295 -0.0784
55936SOL     OW73770  10.029   4.557   2.791 -0.2224  0.1086 -0.1716
55936SOL    HW173771  10.097   4.621   2.771 -0.6821 -0.0558 -2.5132
55936SOL    HW273772   9.951   4.591   2.747 -0.2045 -2.5945 -2.5761
55937SOL     OW73773   3.309   5.502   5.438  0.1408  0.0116 -0.1815
55937SOL    HW173774   3.225   5.541   5.415  0.2845  1.0025  0.8647
55937SOL    HW273775   3.289   5.444   5.512  0.4538  0.6483  0.4066
55938SOL     OW73776   4.002   3.083   5.197  0.1037 -0.0826  0.3133
55938SOL    HW173777   4.024   3.162   5.148 -1.2319 -0.0965 -0.3423
55938SOL    HW273778   3.909   3.070   5.181  0.2377 -1.6318  0.6495
55939SOL     OW73779   8.926   1.704   8.938 -0.1197 -0.3015  0.8402
55939SOL    HW173780   9.001   1.760   8.962  0.7946 -1.5624  0.9953
55939SOL    HW273781   8.886   1.681   9.022 -0.6743  0.3331  0.7587
55940SOL     OW73782   3.002   6.656   2.036  0.6790  0.3520  0.0119
55940SOL    HW173783   2.943   6.609   1.977  0.1428  2.5028 -1.2830
55940SOL    HW273784   2.976   6.627   2.124 -1.5467  0.3595 -0.5745
55941SOL     OW73785   1.926   9.694   0.756  0.1278 -0.3746  0.0637
55941SOL    HW173786   1.895   9.784   0.759  2.1922  0.4154 -0.3322
55941SOL    HW273787   1.886   9.651   0.831 -0.3747  1.0524  0.6323
55942SOL     OW73788   5.235   9.096   0.617  0.4702  0.5714 -0.7277
55942SOL    HW173789   5.272   9.181   0.596 -0.2693  1.3979  1.1156
55942SOL    HW273790   5.182   9.073   0.540 -0.4504  2.4382 -0.7128
55943SOL     OW73791   1.185   2.671   7.520 -0.0575  0.3470  0.7309
55943SOL    HW173792   1.164   2.628   7.603 -1.5519 -0.0796  0.1734
55943SOL    HW273793   1.119   2.740   7.512  1.0335  1.4145  0.6143
55944SOL     OW73794  11.558  11.445   3.606  0.3534  0.3005 -0.2598
55944SOL    HW173795  11.565  11.503   3.530 -2.2682  1.2827  0.1181
55944SOL    HW273796  11.465  11.446   3.628  0.9302 -0.2755  2.7050
55945SOL     OW73797   4.204   8.314   0.162 -0.3236  0.2474  0.0949
55945SOL    HW173798   4.202   8.410   0.163 -0.7012  0.2838 -1.6331
55945SOL    HW273799   4.288   8.291   0.201  0.3392  1.3197 -0.6668
55946SOL     OW73800   6.145   4.586   2.420 -0.0160 -0.4413  0.1670
55946SOL    HW173801   6.156   4.504   2.371 -0.2692 -1.2618  1.4302
55946SOL    HW273802   6.234   4.617   2.435  0.0820 -0.4840 -0.3156
55947SOL     OW73803   4.865   9.583   0.701 -0.2318  0.4419 -0.2031
55947SOL    HW173804   4.876   9.645   0.773  1.7894  2.2392 -1.9070
55947SOL    HW273805   4.941   9.525   0.707  0.2876  0.9859 -1.1618
55948SOL     OW73806   9.936  12.393   6.019  0.3654 -0.1376 -0.6314
55948SOL    HW173807   9.945  12.450   5.943  0.2030  0.1360 -0.4498
55948SOL    HW273808   9.891  12.315   5.986  2.3725 -1.0557 -1.3117
55949SOL     OW73809  11.205   1.359   7.817 -0.4023  0.5087 -0.1490
55949SOL    HW173810  11.282   1.355   7.760 -1.6210 -1.7105 -1.7705
55949SOL    HW273811  11.186   1.268   7.839 -2.2833  1.0297  0.5931
55950SOL     OW73812  12.263   1.136  11.241 -0.1658 -0.8207 -0.1693
55950SOL    HW173813  12.307   1.104  11.162 -0.8665  0.3837 -1.0952
55950SOL    HW273814  12.178   1.167  11.209 -0.4120 -0.1889  1.0442
55951SOL     OW73815   1.685   8.058   2.683  0.0574  0.5403  0.1663
55951SOL    HW173816   1.757   8.120   2.667  0.4642  0.2219  0.7185
55951SOL    HW273817   1.643   8.091   2.763  0.1731  0.2033  0.3698
55952SOL     OW73818   9.288   7.054   3.591  0.0361 -0.5435  0.5729
55952SOL    HW173819   9.379   7.036   3.612  0.3007 -0.9955 -0.8509
55952SOL    HW273820   9.255   6.974   3.551 -1.1592 -0.5701  1.5317
55953SOL     OW73821   8.495   6.301  11.547  0.0376  0.0631 -0.4796
55953SOL    HW173822   8.496   6.205  11.540  1.6657  0.0560 -0.4365
55953SOL    HW273823   8.415   6.320  11.597  0.8762 -1.4578  1.6088
55954SOL     OW73824   7.477   8.193  10.753 -0.4290 -0.0620 -0.3677
55954SOL    HW173825   7.549   8.185  10.691 -0.0926 -0.8836  0.1135
55954SOL    HW273826   7.431   8.109  10.748 -1.2637  0.3917 -0.5469
55955SOL     OW73827   8.855   0.790   8.766  0.0367  0.7460  0.0493
55955SOL    HW173828   8.856   0.779   8.861 -0.8213  1.1487  0.1149
55955SOL    HW273829   8.947   0.793   8.741  0.2768  1.4640  0.9662
55956SOL     OW73830   2.197   3.647   7.758 -0.1832  0.4602 -0.1952
55956SOL    HW173831   2.223   3.739   7.759 -1.5110  0.8777  1.7873
55956SOL    HW273832   2.102   3.649   7.767 -0.1102 -1.1194  1.3756
55957SOL     OW73833   7.859   4.185   6.539  0.0179 -0.2759 -0.7623
55957SOL    HW173834   7.842   4.277   6.521  0.8911  0.3815  1.4239
55957SOL    HW273835   7.809   4.166   6.618  1.7802 -0.9556  0.2440
55958SOL     OW73836   5.309   0.178   2.607  0.1787  0.1717 -0.6141
55958SOL    HW173837   5.236   0.171   2.669 -0.4085 -0.3528 -1.3597
55958SOL    HW273838   5.368   0.243   2.647 -0.5018  0.3126  0.1793
55959SOL     OW73839   4.780   8.044   0.476  0.3854  0.6221  0.0200
55959SOL    HW173840   4.695   8.009   0.447  0.9224 -0.2573 -0.5392
55959SOL    HW273841   4.839   7.969   0.472  1.3323  1.3681 -0.1971
55960SOL     OW73842  11.539   7.893  11.810 -0.2206  0.0700  0.0499
55960SOL    HW173843  11.488   7.971  11.832 -0.0324  0.2845 -0.2839
55960SOL    HW273844  11.590   7.875  11.889  1.8519  1.9176 -0.7934
55961SOL     OW73845   6.351  12.000  10.373 -0.4440 -0.5926  0.3839
55961SOL    HW173846   6.440  12.032  10.388 -0.1921 -1.4585  0.7994
55961SOL    HW273847   6.297  12.079  10.372  0.0340 -0.1943  2.1889
55962SOL     OW73848  12.287  12.004   0.396 -0.0895 -0.2359 -0.6646
55962SOL    HW173849  12.345  12.043   0.330 -0.2319  0.3305 -0.4580
55962SOL    HW273850  12.288  12.066   0.469  1.9662 -1.9683  0.9093
55963SOL     OW73851   1.098  11.549  11.220 -0.2869 -0.0574 -0.1559
55963SOL    HW173852   1.023  11.596  11.259 -1.3276 -0.8226 -1.1685
55963SOL    HW273853   1.088  11.563  11.126  2.7540  2.6507 -0.2861
55964SOL     OW73854   3.253   4.536   2.111 -0.8046  0.8484 -0.5157
55964SOL    HW173855   3.224   4.453   2.149 -0.5147 -0.2507 -2.5489
55964SOL    HW273856   3.187   4.557   2.045  1.4714 -0.3778 -3.4249
55965SOL     OW73857  10.523   3.959   6.121 -0.1782  0.2334 -0.1834
55965SOL    HW173858  10.510   3.886   6.060 -0.3285  0.3280 -0.2664
55965SOL    HW273859  10.617   3.970   6.126 -0.1355 -0.2305  0.1429
55966SOL     OW73860   8.842  12.096   8.148  0.0579  0.0783  0.1690
55966SOL    HW173861   8.874  12.186   8.145 -1.6967  0.7120 -0.4805
55966SOL    HW273862   8.893  12.054   8.217 -1.5945  2.5801  3.1214
55967SOL     OW73863  10.698   0.035   2.758  0.0395  0.2126 -0.0718
55967SOL    HW173864  10.623   0.034   2.698 -0.3113 -1.6736  0.3471
55967SOL    HW273865  10.752   0.109   2.728 -2.1334  1.8716 -0.1697
55968SOL     OW73866   4.887   1.576  11.035  0.4199  0.0457  0.1567
55968SOL    HW173867   4.810   1.548  11.085  0.0673  0.2463 -0.2677
55968SOL    HW273868   4.892   1.671  11.050  0.6481  0.0175  0.2666
55969SOL     OW73869   0.879   4.594   1.663  0.4285  0.0701 -0.2482
55969SOL    HW173870   0.858   4.522   1.723 -1.6066  0.7033 -0.1101
55969SOL    HW273871   0.914   4.663   1.719  1.0027 -0.2731 -0.1762
55970SOL     OW73872   1.632  12.458   2.101 -0.0728 -0.4423 -0.8186
55970SOL    HW173873   1.657  12.513   2.175  0.5968 -1.2784 -0.4081
55970SOL    HW273874   1.541  12.434   2.119  0.2720 -1.1391  0.0644
55971SOL     OW73875   7.117   2.903  11.802 -0.2782  0.3581  0.8931
55971SOL    HW173876   7.134   2.932  11.892  0.1259 -0.4960  1.1022
55971SOL    HW273877   7.042   2.844  11.810  0.6904 -0.9106  0.9094
55972SOL     OW73878   4.736   4.864   9.799  0.2218 -0.4929 -0.2346
55972SOL    HW173879   4.821   4.849   9.757  0.2712  1.1208 -0.7657
55972SOL    HW273880   4.754   4.856   9.892  0.3776 -2.8288 -0.4026
55973SOL     OW73881   9.448   4.485   7.212  0.7764  0.2429  0.5403
55973SOL    HW173882   9.401   4.402   7.227  1.3719 -0.6611 -2.1088
55973SOL    HW273883   9.390   4.534   7.154  2.2404 -0.1316 -1.3067
55974SOL     OW73884  11.509   2.712   7.326  0.3114  0.4461  0.2766
55974SOL    HW173885  11.424   2.699   7.285 -0.6141  2.2132  1.5069
55974SOL    HW273886  11.492   2.704   7.420  1.6143  0.3037  0.5227
55975SOL     OW73887   8.711   7.230   5.099 -0.3890  0.0561  0.1286
55975SOL    HW173888   8.675   7.142   5.111  1.4963 -0.9545 -1.0341
55975SOL    HW273889   8.649   7.275   5.042 -0.9968 -0.7778  0.1163
55976SOL     OW73890   9.397   3.529   8.339 -0.1330  0.7578 -0.8294
55976SOL    HW173891   9.315   3.574   8.357 -1.7913 -1.3277 -2.6297
55976SOL    HW273892   9.448   3.539   8.419 -2.8059  0.7617  0.9967
55977SOL     OW73893   0.095   3.460   1.347  0.6940 -0.3421 -0.5845
55977SOL    HW173894   0.166   3.524   1.349 -0.1360  0.6094 -0.9675
55977SOL    HW273895   0.140   3.376   1.338  1.7804  0.2178 -0.6374
55978SOL     OW73896   0.086   9.347   7.010 -0.0530  0.2150  0.0504
55978SOL    HW173897   0.077   9.424   6.953  1.1087  1.0943  0.9957
55978SOL    HW273898   0.022   9.285   6.976  0.8776  0.5198 -2.4977
55979SOL     OW73899   7.157   5.309   6.632  0.3970  0.4773  0.5140
55979SOL    HW173900   7.222   5.256   6.679  0.3558  1.0466  1.2375
55979SOL    HW273901   7.087   5.248   6.611  0.0902  0.3263  1.8394
55980SOL     OW73902   6.182   9.107   3.652  0.5789 -0.1717 -0.8667
55980SOL    HW173903   6.178   9.172   3.722 -0.8590  0.4643 -1.4878
55980SOL    HW273904   6.233   9.035   3.688 -0.6489 -0.1252  1.0821
55981SOL     OW73905   0.283   3.441   5.595 -0.5275 -0.5512 -0.3352
55981SOL    HW173906   0.256   3.361   5.639  0.2086 -0.9854 -0.6513
55981SOL    HW273907   0.349   3.479   5.652  0.2831 -1.0093 -0.9446
55982SOL     OW73908   1.572  11.922   2.703  0.5171  0.5374  0.3570
55982SOL    HW173909   1.549  12.013   2.723 -0.6998  0.4132 -0.3344
55982SOL    HW273910   1.540  11.872   2.778  0.3019  0.5797  0.2949
55983SOL     OW73911   0.050   5.107   0.433 -0.1589  0.3241 -0.3347
55983SOL    HW173912   0.074   5.196   0.459 -0.3183  0.4128 -0.4903
55983SOL    HW273913   0.084   5.052   0.503  2.2135  0.2516 -1.4499
55984SOL     OW73914   9.746   7.823   4.142 -0.0506  0.2376 -0.2217
55984SOL    HW173915   9.829   7.778   4.127 -0.8014 -1.7022  1.1300
55984SOL    HW273916   9.685   7.781   4.081  0.2848  3.0495 -2.7392
55985SOL     OW73917  11.332   9.493  10.246  0.3509 -0.0300 -0.3174
55985SOL    HW173918  11.255   9.459  10.293 -0.1777  0.6954 -0.6373
55985SOL    HW273919  11.325   9.588  10.254  0.8258  0.0642 -0.9641
55986SOL     OW73920   5.304   1.961   9.370  0.1593 -0.1071  0.0164
55986SOL    HW173921   5.299   1.995   9.459 -1.2799  3.8124 -1.3070
55986SOL    HW273922   5.215   1.930   9.352  0.2594 -0.2316 -0.2605
55987SOL     OW73923   4.870   5.389   6.120 -0.1419  0.6333 -0.1299
55987SOL    HW173924   4.878   5.313   6.063  1.0072  2.0200 -1.9268
55987SOL    HW273925   4.934   5.452   6.087 -2.2001  3.0841  0.1487
55988SOL     OW73926  10.096   4.107   9.502  0.6885 -0.1035  0.4183
55988SOL    HW173927  10.089   4.039   9.435 -2.8572  0.0571  0.4481
55988SOL    HW273928  10.060   4.066   9.581 -0.3166  1.3711  0.7641
55989SOL     OW73929   5.292   9.923   8.677 -0.2241 -0.2537  0.2022
55989SOL    HW173930   5.315   9.965   8.594  1.8956 -1.4122  0.1167
55989SOL    HW273931   5.237   9.848   8.652 -0.0598 -0.2712 -0.1069
55990SOL     OW73932   7.737   5.084   2.781 -0.5650  0.0746  0.2815
55990SOL    HW173933   7.725   5.016   2.714 -2.6575  0.2615  0.4051
55990SOL    HW273934   7.822   5.121   2.762 -0.0808 -1.4759 -0.8164
55991SOL     OW73935  11.350   9.734  12.325 -0.1568  0.2022  0.1790
55991SOL    HW173936  11.299   9.710  12.248 -0.5524  0.1501  0.4525
55991SOL    HW273937  11.352   9.655  12.378 -1.6030  0.7712  1.1577
55992SOL     OW73938   6.327   1.332  12.311 -0.5256 -0.0098  0.2689
55992SOL    HW173939   6.290   1.409  12.354  1.4917  0.1207  1.9060
55992SOL    HW273940   6.317   1.350  12.218 -1.9837  1.2504  0.6252
55993SOL     OW73941   6.477   8.917  11.297  0.4912 -0.2115 -0.1126
55993SOL    HW173942   6.520   8.887  11.378  0.4245 -2.2757 -0.7802
55993SOL    HW273943   6.547   8.921  11.233 -0.0061 -2.1185 -0.8284
55994SOL     OW73944   7.935   7.232   1.477 -0.0752  0.2520  0.4026
55994SOL    HW173945   7.990   7.163   1.515  0.0824  0.4730  0.5790
55994SOL    HW273946   7.984   7.264   1.402 -0.7442 -0.7272 -0.4724
55995SOL     OW73947   6.928   7.436  11.166  0.2486 -0.2435 -0.6708
55995SOL    HW173948   6.911   7.522  11.127  0.1773 -0.8004 -1.9117
55995SOL    HW273949   6.921   7.451  11.260  0.3885  1.1403 -0.8557
55996SOL     OW73950   8.848   0.500   3.285 -0.1611 -0.1679  0.3584
55996SOL    HW173951   8.918   0.519   3.222  0.2246  1.6795  1.2644
55996SOL    HW273952   8.882   0.426   3.337 -0.3294 -1.4616 -1.3008
55997SOL     OW73953   4.878   2.463   3.334  0.2071 -0.3150  0.5810
55997SOL    HW173954   4.928   2.412   3.397 -2.8354 -3.0529  1.0450
55997SOL    HW273955   4.787   2.436   3.348 -1.2118  2.7725 -1.5800
55998SOL     OW73956   7.258   0.966   5.554 -0.8454 -0.1289  0.2518
55998SOL    HW173957   7.189   1.024   5.523 -0.9800 -0.5725 -0.2797
55998SOL    HW273958   7.304   1.018   5.620 -1.2392  0.4229  0.1026
55999SOL     OW73959   9.420   4.020  10.484 -0.1067  0.1896 -0.6669
55999SOL    HW173960   9.505   3.980  10.465  0.6794  1.4447  0.0572
55999SOL    HW273961   9.393   4.059  10.401  0.7595  1.0655 -0.5580
56000SOL     OW73962   4.109   1.049   2.439 -0.6851  0.1277  0.2700
56000SOL    HW173963   4.109   1.133   2.484 -1.0585 -0.5747  1.6488
56000SOL    HW273964   4.168   1.061   2.364 -0.9259  1.6664  0.3141
56001SOL     OW73965   8.021   5.094  12.441  0.0231 -0.5869 -0.0508
56001SOL    HW173966   7.978   5.159  12.385  0.9375  0.4895  0.4547
56001SOL    HW273967   8.097   5.140  12.476  0.2355 -1.6855  0.9739
56002SOL     OW73968   3.598   7.747   5.670 -0.0554 -0.0787 -0.1601
56002SOL    HW173969   3.605   7.842   5.673 -2.8497  0.2071 -0.6239
56002SOL    HW273970   3.565   7.723   5.757 -1.6162 -0.3349 -0.7931
56003SOL     OW73971   7.155  10.329  11.184  0.1908 -0.1095  0.0938
56003SOL    HW173972   7.114  10.259  11.133 -1.1943  0.0250  0.9563
56003SOL    HW273973   7.164  10.401  11.122 -3.7410  0.9357  0.4290
56004SOL     OW73974   3.971   4.006   3.356  0.3895  0.1806 -0.5715
56004SOL    HW173975   4.039   3.994   3.289  1.2668 -0.1227  0.3528
56004SOL    HW273976   4.005   3.961   3.433 -0.2522  1.1832  0.3288
56005SOL     OW73977  11.007  10.728  12.482  0.1920 -0.3362 -0.2577
56005SOL    HW173978  11.056  10.762  12.556 -2.3161  1.8960  0.5388
56005SOL    HW273979  10.967  10.647  12.514 -1.0665  0.7267  1.0176
56006SOL     OW73980  10.641   2.477   2.987  0.1778  0.5668  0.0444
56006SOL    HW173981  10.609   2.567   2.975  0.2877  0.9360  2.0339
56006SOL    HW273982  10.727   2.477   2.945  1.2193  2.1678  1.9296
56007SOL     OW73983   4.212   1.855  12.434 -0.6283  0.0983 -0.7251
56007SOL    HW173984   4.123   1.854  12.470 -0.3638 -0.2066 -0.0705
56007SOL    HW273985   4.240   1.763  12.438 -0.6042  0.0552 -1.7368
56008SOL     OW73986  10.066   3.846   5.631  0.0552  0.2281  0.1503
56008SOL    HW173987  10.123   3.784   5.586  0.5780  0.5286  0.3986
56008SOL    HW273988   9.985   3.797   5.646 -0.4994  0.3729 -1.9185
56009SOL     OW73989   1.540   7.598   9.219 -0.0392  0.1594 -0.1371
56009SOL    HW173990   1.621   7.550   9.234 -1.1202 -1.4139  1.0972
56009SOL    HW273991   1.503   7.610   9.307 -1.1876  0.7442 -0.6729
56010SOL     OW73992   0.261   3.236   4.704 -0.3055  0.0204 -0.4987
56010SOL    HW173993   0.277   3.169   4.637 -1.4267  0.2581 -1.0169
56010SOL    HW273994   0.204   3.193   4.768 -0.5628  0.2963 -0.5396
56011SOL     OW73995   1.301  10.986   3.105  0.2156 -0.4501  0.1250
56011SOL    HW173996   1.356  11.006   3.029 -0.6430 -0.0059 -0.4043
56011SOL    HW273997   1.269  10.898   3.088  1.6327 -1.1721  0.9943
56012SOL     OW73998   5.087   0.291   9.059 -0.1795  0.1427 -0.2048
56012SOL    HW173999   5.135   0.348   9.119  0.4891  0.7881 -1.3168
56012SOL    HW274000   5.111   0.202   9.086  0.1997  0.4214  0.4052
56013SOL     OW74001   2.553   0.799   7.279 -0.6112 -0.8616 -0.0561
56013SOL    HW174002   2.612   0.872   7.295 -0.4656 -0.9341 -0.2615
56013SOL    HW274003   2.524   0.811   7.189  0.1348 -1.5676 -0.4031
56014SOL     OW74004   7.460   9.101   5.945 -0.1662  0.1115  0.1299
56014SOL    HW174005   7.418   9.146   5.872  0.1570  0.4780  0.1637
56014SOL    HW274006   7.493   9.019   5.907  1.1834  0.9003 -0.4737
56015SOL     OW74007   9.323   6.226   6.400  0.4136 -0.0301  0.2626
56015SOL    HW174008   9.316   6.210   6.306  0.8695 -1.5246  0.4655
56015SOL    HW274009   9.361   6.314   6.406 -0.5379  0.4975 -0.9233
56016SOL     OW74010   6.494   9.101   4.878  0.7286 -0.7063 -0.3379
56016SOL    HW174011   6.489   9.067   4.789 -1.5159 -0.5278 -0.3517
56016SOL    HW274012   6.487   9.196   4.867  2.9364 -0.4672 -0.0690
56017SOL     OW74013   9.716   1.366  11.721  0.2853  0.3480 -0.1544
56017SOL    HW174014   9.642   1.331  11.670  0.1991 -0.1986  0.3390
56017SOL    HW274015   9.750   1.438  11.667  0.6050 -0.6305 -1.2953
56018SOL     OW74016  12.400   3.299   1.155  0.5373 -0.0753  0.3110
56018SOL    HW174017  12.436   3.264   1.073  0.0774 -1.2117  0.5740
56018SOL    HW274018  12.477   3.328   1.204  0.7405  1.9753 -1.0852
56019SOL     OW74019   3.174   0.909   2.532 -0.4029 -0.0499  0.2270
56019SOL    HW174020   3.206   0.876   2.448  1.0356 -0.5495  0.9334
56019SOL    HW274021   3.087   0.871   2.542 -0.0920 -0.9814 -0.4802
56020SOL     OW74022   2.484   7.839   5.083 -0.4980  0.2958 -0.1085
56020SOL    HW174023   2.454   7.929   5.072 -0.0132  0.5795  0.8416
56020SOL    HW274024   2.552   7.843   5.150  1.7069 -0.3274 -2.1247
56021SOL     OW74025   2.014   2.404   0.786 -0.1197  0.5508  0.3762
56021SOL    HW174026   2.017   2.410   0.691  0.0304  1.5704  0.4286
56021SOL    HW274027   2.104   2.383   0.812 -0.1073  0.5173  0.3053
56022SOL     OW74028   4.968   0.491   7.348 -0.1420 -0.2195  0.2682
56022SOL    HW174029   4.874   0.503   7.362 -0.1530 -0.2035  0.1827
56022SOL    HW274030   4.974   0.455   7.259 -0.1025 -0.7138  0.4663
56023SOL     OW74031   8.093   7.114   7.896  0.5587 -0.6599  0.4220
56023SOL    HW174032   8.142   7.032   7.901  2.0456  0.2188  1.1688
56023SOL    HW274033   8.029   7.109   7.966 -1.9349 -2.6786 -1.8026
56024SOL     OW74034   0.951   3.937   5.702  0.3841 -0.1815 -0.2748
56024SOL    HW174035   0.932   3.882   5.778 -2.3692  1.2319  0.1610
56024SOL    HW274036   0.937   4.026   5.732  1.4201  0.5745 -1.8897
56025SOL     OW74037   6.717   7.012  10.059  0.0366 -0.4072  0.6490
56025SOL    HW174038   6.671   7.089  10.026 -0.1159 -1.3449 -1.4892
56025SOL    HW274039   6.654   6.970  10.117 -0.8389 -0.2495 -0.1489
56026SOL     OW74040   6.477  12.338   0.408 -0.4998  0.7394 -0.1744
56026SOL    HW174041   6.468  12.246   0.384  0.4916  0.4739  0.4338
56026SOL    HW274042   6.388  12.367   0.426 -0.8273 -0.0793 -0.4362
56027SOL     OW74043   8.915   1.254   1.900  0.2108 -0.2103 -0.6170
56027SOL    HW174044   8.878   1.276   1.986  0.8522 -1.4724  0.0103
56027SOL    HW274045   8.839   1.235   1.845 -0.1987  0.4836 -0.3057
56028SOL     OW74046   5.419   2.720   6.874  0.1811 -0.2749  0.3388
56028SOL    HW174047   5.368   2.643   6.899 -0.9304  0.6937  1.1769
56028SOL    HW274048   5.353   2.787   6.854  1.1051  0.9615  1.2916
56029SOL     OW74049  11.640   5.439   2.791 -0.1753  0.0782  0.7210
56029SOL    HW174050  11.680   5.451   2.705  2.5340 -0.4720  1.8241
56029SOL    HW274051  11.580   5.366   2.779  0.2296 -0.0493 -0.6751
56030SOL     OW74052   5.853  11.589   8.295  0.3572  0.1554  0.3340
56030SOL    HW174053   5.888  11.678   8.300  0.6148 -0.0304  2.6586
56030SOL    HW274054   5.759  11.601   8.280  0.3074  0.8542  1.1231
56031SOL     OW74055  10.370   6.594   0.847  0.6985  0.1721 -0.0639
56031SOL    HW174056  10.454   6.556   0.821 -0.1791 -2.3945  0.5440
56031SOL    HW274057  10.392   6.682   0.878  2.7836  0.5347 -2.2567
56032SOL     OW74058   2.630   4.954   9.194 -0.1530  0.2441  0.4814
56032SOL    HW174059   2.613   5.047   9.180 -0.1677  0.3951  1.4769
56032SOL    HW274060   2.593   4.935   9.280 -2.9623 -1.3809 -0.9222
56033SOL     OW74061   3.747   7.398   9.230 -0.1721 -0.1554  0.1341
56033SOL    HW174062   3.827   7.436   9.267 -1.3437  1.5048  1.0602
56033SOL    HW274063   3.758   7.303   9.242  1.7535  0.0063 -0.0134
56034SOL     OW74064   6.349   2.801   0.397 -0.1465 -0.0214  0.1533
56034SOL    HW174065   6.261   2.774   0.422 -0.0473  0.2716  0.8368
56034SOL    HW274066   6.350   2.896   0.412  0.6033 -0.1698  1.1380
56035SOL     OW74067   4.431   8.443   5.393 -0.5901 -0.5702 -0.1610
56035SOL    HW174068   4.425   8.512   5.459  1.2565 -0.9361  0.4557
56035SOL    HW274069   4.520   8.451   5.359 -0.9627 -1.4724 -1.4076
56036SOL     OW74070  11.702   7.944   7.819 -0.6076 -0.2493  0.5311
56036SOL    HW174071  11.763   7.872   7.838  0.7432  0.9386  0.8716
56036SOL    HW274072  11.653   7.957   7.900 -0.1112 -0.1013  0.8115
56037SOL     OW74073  10.296   1.469  11.785  0.1085 -0.5592  0.1704
56037SOL    HW174074  10.205   1.463  11.814 -0.0389 -1.1804 -0.4107
56037SOL    HW274075  10.336   1.387  11.815  0.1831 -0.8023 -0.5866
56038SOL     OW74076  12.255   0.279   4.929  0.3187  0.7428  0.0824
56038SOL    HW174077  12.252   0.374   4.924 -0.6098  0.7267  0.2031
56038SOL    HW274078  12.225   0.258   5.018  1.6758  0.3761  0.4886
56039SOL     OW74079  11.801   6.847   1.759  0.1626  0.4268  0.3529
56039SOL    HW174080  11.805   6.867   1.852  0.4392 -2.2211  0.9884
56039SOL    HW274081  11.848   6.763   1.750 -2.3487 -0.9239 -1.6506
56040SOL     OW74082   1.277   3.596   7.918 -0.0937  0.5316  0.1990
56040SOL    HW174083   1.370   3.620   7.916 -0.1401  0.8806  1.3658
56040SOL    HW274084   1.232   3.673   7.885  0.0034  0.5051  0.0016
56041SOL     OW74085   7.051   6.310  11.746 -0.0866  0.0034  0.2628
56041SOL    HW174086   7.113   6.241  11.723  1.5796  0.5695  2.6592
56041SOL    HW274087   7.105   6.378  11.787 -2.1951  0.8458  1.8449
56042SOL     OW74088  10.394   7.602   9.243 -0.2672  0.0081  0.0805
56042SOL    HW174089  10.300   7.603   9.260 -0.2767  1.1263  0.0035
56042SOL    HW274090  10.431   7.549   9.315 -0.9885 -0.8468 -0.1608
56043SOL     OW74091   7.325  11.938   5.645 -0.0024 -0.0278  0.6112
56043SOL    HW174092   7.406  11.988   5.640  0.7691 -1.1552  1.2887
56043SOL    HW274093   7.259  12.001   5.674  0.7168  0.8224  0.4209
56044SOL     OW74094   7.288   2.779   8.213 -0.3644 -0.2737 -0.4000
56044SOL    HW174095   7.279   2.687   8.235 -0.5454  0.0563  0.9832
56044SOL    HW274096   7.332   2.779   8.128 -0.1587 -1.6210 -0.3107
56045SOL     OW74097   1.201  11.230   7.861  0.3655  0.4096  0.0359
56045SOL    HW174098   1.223  11.167   7.930  0.6373  0.5854  0.1100
56045SOL    HW274099   1.113  11.204   7.833  0.6214 -0.2393 -0.1936
56046SOL     OW74100  11.623   8.881   3.268 -0.1289  0.5796  0.0781
56046SOL    HW174101  11.651   8.953   3.325  1.7073  0.5229 -0.6680
56046SOL    HW274102  11.619   8.920   3.180 -0.3235  0.0542 -0.1532
56047SOL     OW74103   5.111   4.757   7.209  0.2524  0.1762  0.1141
56047SOL    HW174104   5.139   4.695   7.276  1.3014 -0.1181 -0.5777
56047SOL    HW274105   5.169   4.832   7.220 -1.0833  1.1230  1.0190
56048SOL     OW74106   9.605   4.510   2.904  0.1084 -0.2031 -0.0425
56048SOL    HW174107   9.678   4.450   2.924  0.9146 -0.0091 -2.1482
56048SOL    HW274108   9.633   4.594   2.940 -0.8920 -0.9240  2.6575
56049SOL     OW74109   3.274  10.107  12.372  0.2807 -0.1384 -0.2686
56049SOL    HW174110   3.223  10.100  12.291  0.3207 -0.5849 -0.2553
56049SOL    HW274111   3.285  10.017  12.402  1.6560 -0.1118 -0.6197
56050SOL     OW74112  10.232   2.699   3.117 -0.4092 -0.5543 -0.4422
56050SOL    HW174113  10.263   2.790   3.113  1.1157 -1.0497 -0.7425
56050SOL    HW274114  10.162   2.695   3.052  2.1465 -0.5030 -3.4153
56051SOL     OW74115   4.687   2.970   1.738 -0.6870  0.6308 -0.4100
56051SOL    HW174116   4.611   2.959   1.795  0.2147  0.0199  0.6931
56051SOL    HW274117   4.651   2.961   1.649 -1.7752 -0.5224  0.1184
56052SOL     OW74118  11.439   4.765   5.460  0.2643 -0.4888 -0.1938
56052SOL    HW174119  11.382   4.837   5.432 -0.8986 -1.5362 -0.6057
56052SOL    HW274120  11.383   4.710   5.515  0.4700 -2.2252 -1.6365
56053SOL     OW74121   2.369   0.632   5.860 -0.0186  0.7602  0.0047
56053SOL    HW174122   2.377   0.721   5.894 -0.3142  0.9683 -0.4589
56053SOL    HW274123   2.449   0.618   5.809 -0.7461  1.3936 -1.3450
56054SOL     OW74124  11.628   9.800  11.243  0.3252 -0.0728  0.7949
56054SOL    HW174125  11.680   9.879  11.253 -0.1890  0.2365  1.0541
56054SOL    HW274126  11.629   9.759  11.330  0.8228 -0.4979  0.5922
56055SOL     OW74127   4.969   6.385   3.169 -0.1645  0.2887  0.0995
56055SOL    HW174128   4.962   6.455   3.104 -0.4932 -0.1294 -0.3172
56055SOL    HW274129   4.984   6.431   3.251 -1.2905  0.9034 -0.0156
56056SOL     OW74130   2.059   3.359   2.374 -0.0332 -0.0379  0.1046
56056SOL    HW174131   2.019   3.358   2.461 -1.3466  0.6303 -0.4698
56056SOL    HW274132   2.012   3.428   2.327  0.7082 -0.3408 -1.1148
56057SOL     OW74133  12.478   0.638   7.339 -0.3204  0.4176  0.0614
56057SOL    HW174134  12.571   0.650   7.320 -0.0903 -0.1543  0.7708
56057SOL    HW274135  12.433   0.695   7.277  0.4477 -0.2726 -1.1819
56058SOL     OW74136   3.903   8.606  11.905 -0.4540  0.2828 -0.1478
56058SOL    HW174137   3.831   8.617  11.967 -1.8082  0.4494 -1.6508
56058SOL    HW274138   3.919   8.512  11.902  0.4377  0.3613  1.2731
56059SOL     OW74139   5.810   4.901   7.313  0.2027  0.1368 -0.5510
56059SOL    HW174140   5.895   4.857   7.320 -0.7342 -1.8323 -0.6419
56059SOL    HW274141   5.753   4.835   7.273 -1.6467  1.0146  0.5318
56060SOL     OW74142   5.825   6.125  10.626  0.3820  0.3670 -0.1444
56060SOL    HW174143   5.891   6.195  10.618  1.6888 -0.9560 -1.4552
56060SOL    HW274144   5.752   6.155  10.572  0.5291  1.1542  0.0787
56061SOL     OW74145  10.235   8.137   4.788  0.0803  0.3280  0.1685
56061SOL    HW174146  10.270   8.197   4.854 -0.4158 -0.7093  1.4124
56061SOL    HW274147  10.312   8.105   4.741  0.9339 -1.9098  2.8486
56062SOL     OW74148   2.161   6.053   5.880 -0.0868  0.2142  0.3968
56062SOL    HW174149   2.093   6.019   5.822  0.8059 -0.8297 -0.0844
56062SOL    HW274150   2.116   6.117   5.935 -2.3755 -3.0313  2.6846
56063SOL     OW74151   5.238   7.750   2.485 -0.6123  0.1072 -0.0459
56063SOL    HW174152   5.315   7.783   2.530  0.2539  0.1102 -1.4767
56063SOL    HW274153   5.173   7.820   2.494 -0.4816  0.0898  1.1867
56064SOL     OW74154   9.670  10.607  11.819 -0.6406  0.3696  0.4395
56064SOL    HW174155   9.618  10.552  11.878 -1.0178 -0.2330 -0.4199
56064SOL    HW274156   9.721  10.544  11.767 -0.1523  0.8909  0.2831
56065SOL     OW74157   1.146   8.752  12.255 -0.3160 -0.2240 -0.0353
56065SOL    HW174158   1.153   8.660  12.230  1.9408 -0.6422  1.8206
56065SOL    HW274159   1.077   8.753  12.321 -0.9325 -0.4183 -0.6641
56066SOL     OW74160   4.293   6.009   1.825 -0.4467  0.0116  0.3907
56066SOL    HW174161   4.200   6.015   1.804 -0.2665 -0.4577 -0.6118
56066SOL    HW274162   4.335   6.071   1.765 -0.1614  0.7452  1.3152
56067SOL     OW74163   6.512   2.563   0.393 -0.0315  0.2881 -0.1181
56067SOL    HW174164   6.454   2.637   0.412  0.1319  1.0362 -2.2199
56067SOL    HW274165   6.599   2.603   0.383 -0.1513  0.0856 -2.5489
56068SOL     OW74166   1.597   6.268   3.691  0.2815  0.2499 -0.1177
56068SOL    HW174167   1.596   6.176   3.716 -0.1292  0.2794 -0.0169
56068SOL    HW274168   1.639   6.312   3.765  2.7320 -0.1366 -1.2035
56069SOL     OW74169   0.101   1.233  11.219  0.1149  1.2048  0.0822
56069SOL    HW174170   0.190   1.198  11.216 -0.0035  0.9500 -0.6156
56069SOL    HW274171   0.103   1.300  11.287 -0.0145 -1.1968  2.6485
56070SOL     OW74172  11.263   7.269  10.513  0.7310 -0.0148  0.5746
56070SOL    HW174173  11.208   7.224  10.577 -0.2892 -0.2468 -0.4470
56070SOL    HW274174  11.338   7.300  10.564  0.0095 -0.3085  1.8528
56071SOL     OW74175   0.438   5.629   4.024 -0.1150 -0.0992  0.2816
56071SOL    HW174176   0.394   5.549   4.051 -0.6437  0.2744  0.5465
56071SOL    HW274177   0.460   5.614   3.932  1.5640 -1.3206  0.8420
56072SOL     OW74178   3.663   6.706   3.234  1.2369  0.3138 -0.0539
56072SOL    HW174179   3.683   6.640   3.300 -0.5500 -0.1139  0.1196
56072SOL    HW274180   3.617   6.658   3.165 -0.2609  1.3822  0.1584
56073SOL     OW74181  11.709   5.339   5.617  0.1168  0.0745  0.4551
56073SOL    HW174182  11.688   5.291   5.537  1.3114  0.3186 -0.0298
56073SOL    HW274183  11.704   5.432   5.591  0.9608  0.1452  0.5297
56074SOL     OW74184   1.051   8.554   0.723 -0.1225 -0.3577  0.0709
56074SOL    HW174185   0.995   8.479   0.705 -0.1099 -0.6332  1.1230
56074SOL    HW274186   1.008   8.599   0.796  0.3099  0.1799 -0.0051
56075SOL     OW74187   9.745   1.923   0.883 -0.3232  0.1406 -0.0752
56075SOL    HW174188   9.787   1.902   0.967 -1.5721  0.2908  0.6050
56075SOL    HW274189   9.735   1.838   0.840  0.9930  0.1348 -0.4297
56076SOL     OW74190  10.546  12.042   7.623  0.5611 -0.1626 -0.0529
56076SOL    HW174191  10.609  12.000   7.683 -0.6033 -1.7761  0.1125
56076SOL    HW274192  10.584  12.030   7.536  0.9737 -0.2235  0.1336
56077SOL     OW74193   0.208   9.731   5.491  0.0038 -0.1758 -0.2604
56077SOL    HW174194   0.172   9.818   5.510  0.3507 -0.4782  1.9956
56077SOL    HW274195   0.169   9.674   5.557  2.5883 -1.0086  0.6667
56078SOL     OW74196   3.368   7.918   2.072 -0.7398 -0.0001 -0.1755
56078SOL    HW174197   3.363   7.919   2.167  0.6152  2.2734 -0.0467
56078SOL    HW274198   3.352   7.827   2.047 -0.2969 -0.8097  2.2718
56079SOL     OW74199   7.633   3.135   5.174  0.2981 -0.0803  0.5129
56079SOL    HW174200   7.666   3.097   5.255  0.9322  1.3200  0.9465
56079SOL    HW274201   7.539   3.114   5.175  0.3438 -0.3108  1.4898
56080SOL     OW74202   1.053  11.423   8.476 -0.5857  0.3156 -0.1381
56080SOL    HW174203   1.096  11.428   8.391 -1.4672  2.0674 -0.5253
56080SOL    HW274204   0.970  11.379   8.459  0.0280 -1.0016  0.1837
56081SOL     OW74205   6.363   2.996  11.003  0.3979  0.0732 -0.1979
56081SOL    HW174206   6.298   2.953  10.947  0.6488 -2.2323  1.1614
56081SOL    HW274207   6.415   3.050  10.943 -1.2466  0.1045 -1.6681
56082SOL     OW74208   8.065   3.423   4.496 -0.0539  0.1359  0.0390
56082SOL    HW174209   8.017   3.407   4.578 -0.6063 -1.6667 -0.5831
56082SOL    HW274210   8.060   3.518   4.484  1.4429  0.6973  2.8936
56083SOL     OW74211   4.753   1.491   8.689  0.6696 -0.1872  0.7765
56083SOL    HW174212   4.680   1.548   8.664  0.1079 -0.1847  2.2765
56083SOL    HW274213   4.810   1.489   8.613  0.0922  1.4077  0.2694
56084SOL     OW74214  10.161   8.552   3.180  0.3966 -0.0596 -0.0398
56084SOL    HW174215  10.189   8.634   3.220 -0.1840  0.2257 -0.2196
56084SOL    HW274216  10.236   8.493   3.193  2.1451  1.3653 -2.6829
56085SOL     OW74217   0.613   3.317   2.757  0.2445 -0.3524  0.2276
56085SOL    HW174218   0.627   3.244   2.696 -2.7140 -0.9198  0.0697
56085SOL    HW274219   0.585   3.390   2.701 -2.4889 -0.8735  0.7708
56086SOL     OW74220   2.541   1.398  10.121 -0.2185  0.3612 -0.2462
56086SOL    HW174221   2.621   1.450  10.113 -0.0001  0.4155  1.8202
56086SOL    HW274222   2.572   1.308  10.124 -0.3427  0.3042 -0.6357
56087SOL     OW74223   0.895  10.686   0.429 -0.6963 -0.5605  0.0390
56087SOL    HW174224   0.821  10.648   0.476  0.0618 -2.0913  0.0595
56087SOL    HW274225   0.929  10.754   0.488 -0.6847 -1.4157  1.0388
56088SOL     OW74226   2.058  11.188   5.020 -0.1598 -0.3419 -0.9041
56088SOL    HW174227   1.991  11.160   5.083  0.2681 -2.4156 -1.2958
56088SOL    HW274228   2.028  11.274   4.990 -1.6375 -0.3835  0.3241
56089SOL     OW74229   0.407  10.736   0.784  0.3410 -0.0412  0.6134
56089SOL    HW174230   0.361  10.680   0.722  0.8793 -1.2458  1.2573
56089SOL    HW274231   0.476  10.777   0.732  0.2311 -0.3439  0.2174
56090SOL     OW74232   5.001  11.241   1.991  0.1691  0.1490 -0.2551
56090SOL    HW174233   5.023  11.308   2.055  0.8932 -0.1468 -0.1815
56090SOL    HW274234   4.988  11.289   1.909  2.8840  0.2234 -0.7410
56091SOL     OW74235   7.276   6.460   6.955  0.2006 -0.0681 -0.4333
56091SOL    HW174236   7.189   6.479   6.919  0.1069 -1.0840 -0.7982
56091SOL    HW274237   7.258   6.415   7.038  0.3237 -1.4537 -1.1228
56092SOL     OW74238   8.083   6.894  10.396  0.0443  0.8873  0.2257
56092SOL    HW174239   8.014   6.836  10.365  2.4890 -1.6332 -1.0531
56092SOL    HW274240   8.127   6.844  10.465  0.6839  2.3368  0.9091
56093SOL     OW74241  11.310   3.179   3.355  0.1361  0.1817 -0.2227
56093SOL    HW174242  11.323   3.116   3.426 -0.2579  2.1371  1.7138
56093SOL    HW274243  11.277   3.127   3.282  1.8541 -2.1338  0.5476
56094SOL     OW74244   4.751  11.653   1.263  0.2878  0.0995 -0.0182
56094SOL    HW174245   4.698  11.644   1.183 -0.7092 -2.2859  0.7998
56094SOL    HW274246   4.836  11.685   1.232  0.1415 -1.3559 -2.1693
56095SOL     OW74247   7.399   8.942  11.063 -0.0611  0.3966 -0.7525
56095SOL    HW174248   7.469   8.946  10.998  1.2672 -2.3060  0.3845
56095SOL    HW274249   7.332   8.886  11.023  0.3190 -0.4589 -0.2069
56096SOL     OW74250  11.237   1.592   9.313 -0.0720  0.1321  0.2270
56096SOL    HW174251  11.249   1.677   9.356  0.1653  0.7813 -1.0678
56096SOL    HW274252  11.168   1.549   9.363 -1.8238  2.0367 -0.4287
56097SOL     OW74253   4.656   5.042  11.497  0.4660 -0.0113 -0.4598
56097SOL    HW174254   4.634   5.113  11.558  2.0750 -0.8997  1.2560
56097SOL    HW274255   4.699   4.976  11.551  0.0012 -1.8464 -2.2072
56098SOL     OW74256   6.596   0.675   3.772  0.2760  0.0589  0.2576
56098SOL    HW174257   6.564   0.753   3.819  1.6162 -0.0237  1.3598
56098SOL    HW274258   6.544   0.674   3.691 -0.1708  1.7783  0.4634
56099SOL     OW74259   2.732   0.163   3.215  0.1253  0.4765  0.1065
56099SOL    HW174260   2.704   0.072   3.214  0.9904  0.2053 -0.4951
56099SOL    HW274261   2.693   0.199   3.295 -1.6546  0.0585 -0.5372
56100SOL     OW74262   9.339   6.488   6.466 -0.3346 -0.3213  0.4407
56100SOL    HW174263   9.258   6.516   6.510 -1.2206 -1.6122 -0.2801
56100SOL    HW274264   9.359   6.559   6.405 -1.2683 -0.2181  0.2265
56101SOL     OW74265   9.491   2.316   8.114 -0.2176  0.1018  0.2874
56101SOL    HW174266   9.495   2.373   8.191  1.8428 -1.2867  1.2917
56101SOL    HW274267   9.398   2.314   8.092 -0.9610  0.3387  2.9477
56102SOL     OW74268   4.775   0.650  11.686  0.3459 -0.1278 -0.7832
56102SOL    HW174269   4.725   0.729  11.665  0.7548  0.5580  0.6521
56102SOL    HW274270   4.712   0.579  11.679 -0.4745  0.5472 -0.4390
56103SOL     OW74271   1.881   5.195   5.123  0.3602 -0.2075 -0.2505
56103SOL    HW174272   1.885   5.266   5.187 -1.1080 -0.4327  0.1313
56103SOL    HW274273   1.957   5.140   5.143  1.9163  1.5693 -0.9882
56104SOL     OW74274   7.269   8.107   8.152 -0.8518 -0.2744  0.6577
56104SOL    HW174275   7.310   8.029   8.113 -0.9779  0.4545 -1.0169
56104SOL    HW274276   7.334   8.139   8.214  0.5922  0.0317 -0.9121
56105SOL     OW74277   0.895   4.013   1.193 -0.4806  0.5582 -0.1780
56105SOL    HW174278   0.984   3.991   1.163 -0.8367 -2.1364  0.4417
56105SOL    HW274279   0.907   4.039   1.284 -0.2410  1.0330 -0.3417
56106SOL     OW74280  11.420   3.968   2.067  0.2588 -0.3789 -0.0097
56106SOL    HW174281  11.426   4.053   2.022  1.3177 -0.9459 -0.9703
56106SOL    HW274282  11.506   3.955   2.106 -0.3588 -0.3372  1.4474
56107SOL     OW74283   3.930  10.690   5.311  0.3688  0.0742  0.2591
56107SOL    HW174284   4.001  10.722   5.255 -0.9156  4.4401  0.7064
56107SOL    HW274285   3.851  10.723   5.270 -1.2125 -2.1264  1.3394
56108SOL     OW74286  10.019   8.582   2.276  0.5610 -0.4688  0.3820
56108SOL    HW174287   9.950   8.586   2.209 -0.1943 -0.0680  1.1562
56108SOL    HW274288   9.985   8.636   2.348  0.6894 -2.0373  1.6857
56109SOL     OW74289   2.184  10.757   1.483  0.0559  0.0972 -0.4863
56109SOL    HW174290   2.271  10.788   1.508 -0.5577 -0.2721  2.4226
56109SOL    HW274291   2.192  10.661   1.480 -0.6529 -0.1007  1.9097
56110SOL     OW74292  10.061   2.911   2.651 -0.4238 -0.9552 -0.0316
56110SOL    HW174293  10.052   2.965   2.729 -0.4588  1.2568 -1.4716
56110SOL    HW274294   9.979   2.924   2.603  0.2031 -1.0091 -1.1580
56111SOL     OW74295   8.416   6.880  11.131 -0.1074 -0.5750  0.3070
56111SOL    HW174296   8.357   6.877  11.207 -1.3199  0.1846 -0.5703
56111SOL    HW274297   8.504   6.869  11.169 -0.6964 -0.4591  1.7921
56112SOL     OW74298   5.491   3.865   2.396  0.1370 -0.0100  0.0852
56112SOL    HW174299   5.524   3.775   2.398  0.4806  0.1176  0.2577
56112SOL    HW274300   5.568   3.919   2.379 -0.1535  0.2124 -0.5514
56113SOL     OW74301   9.663  10.758   6.933  0.2626 -0.3167 -0.6315
56113SOL    HW174302   9.584  10.788   6.889 -0.4465 -1.8554 -0.4495
56113SOL    HW274303   9.663  10.805   7.017 -0.5846 -0.4788 -0.5384
56114SOL     OW74304   5.059   6.283   1.846  0.5670  0.4114  0.6934
56114SOL    HW174305   5.127   6.329   1.894 -0.3605  2.7696 -0.0778
56114SOL    HW274306   5.021   6.350   1.789 -0.8927 -1.3555 -0.5357
56115SOL     OW74307  11.757  10.787  12.225 -0.7431  1.0339 -0.4182
56115SOL    HW174308  11.745  10.698  12.193 -2.3724  1.3908 -0.9136
56115SOL    HW274309  11.741  10.781  12.319 -2.4624  1.0171 -0.6707
56116SOL     OW74310   3.753   9.187   5.166 -0.2582 -0.2853 -0.2339
56116SOL    HW174311   3.829   9.175   5.224 -0.2536 -2.9993 -0.6719
56116SOL    HW274312   3.788   9.175   5.078 -1.2525 -2.4663 -0.4042
56117SOL     OW74313   9.429   9.047  11.138 -0.3474  0.0336 -0.3344
56117SOL    HW174314   9.514   9.084  11.113  0.4302  0.2860  2.3871
56117SOL    HW274315   9.451   8.964  11.180 -1.4278  0.1960  0.5919
56118SOL     OW74316   6.955   2.021   8.292  0.2385  0.2828 -0.5016
56118SOL    HW174317   6.880   2.080   8.286 -0.9831 -1.1372  0.0963
56118SOL    HW274318   6.947   1.982   8.379  1.0245 -0.7307 -0.8647
56119SOL     OW74319   2.378   2.538   1.955 -0.4006  0.3203 -0.0260
56119SOL    HW174320   2.332   2.622   1.960  0.4706  0.8245 -0.2710
56119SOL    HW274321   2.467   2.557   1.985 -0.0449 -0.4076 -0.5817
56120SOL     OW74322  11.957   1.045   8.643 -0.4296 -0.0402  0.1007
56120SOL    HW174323  12.045   1.046   8.605 -0.6416  1.3832 -0.4070
56120SOL    HW274324  11.949   1.129   8.689 -0.8718 -0.9364  1.7281
56121SOL     OW74325   0.104   9.615   0.845  0.2770  0.7640  0.2348
56121SOL    HW174326   0.130   9.528   0.875 -0.8515  0.2385 -0.2554
56121SOL    HW274327   0.023   9.634   0.892  1.0109  2.0002  1.0845
56122SOL     OW74328   1.623   9.825   8.213 -0.3068  0.0597  0.0909
56122SOL    HW174329   1.699   9.785   8.171 -0.0744  2.5379 -2.1808
56122SOL    HW274330   1.659   9.895   8.268 -0.8487  1.0443 -0.7519
56123SOL     OW74331   0.060  10.747   2.924  0.5509 -0.2678 -0.0717
56123SOL    HW174332   0.002  10.684   2.882 -0.2195  0.2001  0.2753
56123SOL    HW274333   0.008  10.827   2.932  0.7366 -0.2791  1.5596
56124SOL     OW74334   6.595   7.754   3.058  0.3531 -0.6620 -0.4262
56124SOL    HW174335   6.524   7.729   2.998 -1.1116  1.6309  0.2259
56124SOL    HW274336   6.580   7.701   3.136 -2.3952  1.5499  0.7484
56125SOL     OW74337   1.173  10.461   1.974 -0.0956  0.5083 -0.0314
56125SOL    HW174338   1.251  10.513   1.994 -0.4129  0.3668  1.7305
56125SOL    HW274339   1.203  10.370   1.979  0.0979  0.4705 -1.5270
56126SOL     OW74340   5.205   7.972   9.518 -0.2174  0.2676  0.5870
56126SOL    HW174341   5.202   7.880   9.490  0.5873  0.2602  0.5017
56126SOL    HW274342   5.165   8.020   9.445 -0.4146  0.0111  0.5234
56127SOL     OW74343   7.753   8.164   2.216 -0.4365  0.2038  0.4713
56127SOL    HW174344   7.809   8.124   2.282  0.3229  0.2871 -0.1130
56127SOL    HW274345   7.783   8.254   2.209  1.7860 -0.5795 -2.3055
56128SOL     OW74346   8.653   3.939   4.612  0.2420  0.3553  0.5090
56128SOL    HW174347   8.658   3.977   4.524 -2.0576 -0.6812 -0.1438
56128SOL    HW274348   8.691   3.852   4.602  1.6401  0.8844  1.0075
56129SOL     OW74349   5.914   7.297   6.452  0.8441 -0.1305 -0.1682
56129SOL    HW174350   5.844   7.233   6.458 -0.2801  0.9900 -0.8150
56129SOL    HW274351   5.890   7.365   6.514  1.4882  0.1489 -0.2160
56130SOL     OW74352   1.895   2.188   7.328  0.1920  0.4147  0.0800
56130SOL    HW174353   1.840   2.168   7.252 -1.9161 -1.4431  1.9613
56130SOL    HW274354   1.980   2.150   7.307 -0.1907  0.3431 -1.4997
56131SOL     OW74355   9.613  10.642   2.701  0.2057 -0.0824 -0.5169
56131SOL    HW174356   9.548  10.646   2.631 -1.1484  1.2684  0.7217
56131SOL    HW274357   9.632  10.549   2.711 -0.1284 -0.3575 -2.1527
56132SOL     OW74358  11.621   7.267  12.324  0.2160  0.3259  0.0695
56132SOL    HW174359  11.663   7.346  12.359 -1.3066  0.5053  1.6695
56132SOL    HW274360  11.677   7.240  12.252  1.0980  2.5430 -0.1721
56133SOL     OW74361   7.679   8.012   1.024 -0.2980 -0.0397 -0.1477
56133SOL    HW174362   7.685   7.917   1.017 -2.3922 -0.2441  0.2012
56133SOL    HW274363   7.728   8.033   1.103 -0.6583 -0.9692  0.3465
56134SOL     OW74364   5.283   6.014   1.187 -0.3406 -0.2903 -0.5899
56134SOL    HW174365   5.214   5.961   1.147  1.0226 -3.7121  1.1326
56134SOL    HW274366   5.354   5.951   1.204  2.7452  2.7320 -1.0899
56135SOL     OW74367   4.393   3.473   4.250  0.0469 -0.4445  0.0429
56135SOL    HW174368   4.311   3.522   4.239  0.7655  0.7844 -0.0512
56135SOL    HW274369   4.378   3.391   4.204 -0.1327  0.9353 -2.5590
56136SOL     OW74370   4.664   8.722   4.880  0.2341  0.0589  0.6406
56136SOL    HW174371   4.697   8.801   4.838 -1.6360  0.4708 -0.1910
56136SOL    HW274372   4.628   8.751   4.963  0.3522 -0.0607  0.7333
56137SOL     OW74373   8.560   3.804  10.548  0.2050 -0.0421  0.4461
56137SOL    HW174374   8.649   3.837  10.558 -0.1467  0.7595  1.1330
56137SOL    HW274375   8.519   3.863  10.484 -0.2202  0.4613  1.1561
56138SOL     OW74376   1.361   3.747   9.486  0.1828  0.5604 -0.3903
56138SOL    HW174377   1.304   3.817   9.456  1.2598  1.2078 -0.9929
56138SOL    HW274378   1.449   3.786   9.486  0.5880 -0.2796  0.8998
56139SOL     OW74379   7.531  12.227  11.597  0.0423 -0.2969 -0.7438
56139SOL    HW174380   7.552  12.165  11.528  0.8803  0.6871 -1.4095
56139SOL    HW274381   7.553  12.313  11.560  0.6378  0.2504  0.7720
56140SOL     OW74382   9.653   8.021   5.486 -0.0905 -0.4745 -0.1581
56140SOL    HW174383   9.672   7.990   5.575 -0.6275  0.9634  0.4726
56140SOL    HW274384   9.659   7.942   5.432  1.6367 -1.1447  0.9240
56141SOL     OW74385  10.663   5.257   8.676 -0.0587  0.2648  1.1118
56141SOL    HW174386  10.579   5.215   8.693 -0.4294  0.3083 -0.4740
56141SOL    HW274387  10.641   5.339   8.633  0.7884  0.1077  0.3440
56142SOL     OW74388  10.065   0.063   5.754 -0.6740 -0.0667 -0.3835
56142SOL    HW174389  10.129   0.100   5.815  0.0125 -0.4292 -0.8690
56142SOL    HW274390  10.004   0.135   5.737  0.2766  0.6525 -0.8223
56143SOL     OW74391   1.303  11.858   2.314  0.7465  0.8086  0.0537
56143SOL    HW174392   1.384  11.871   2.363  1.3773 -1.1611 -0.3506
56143SOL    HW274393   1.321  11.782   2.258 -1.2831  0.4968 -0.2642
56144SOL     OW74394  10.221   0.754   3.182 -0.3148  0.4944 -0.0307
56144SOL    HW174395  10.212   0.742   3.088 -0.9519 -0.2275  0.1148
56144SOL    HW274396  10.273   0.679   3.211  0.4370  1.0606  0.1032
56145SOL     OW74397   5.180   4.653   6.259 -0.5922  0.3936 -0.5343
56145SOL    HW174398   5.174   4.724   6.324  0.8110  1.1324 -1.1730
56145SOL    HW274399   5.197   4.697   6.176  1.2922 -0.6845 -0.7970
56146SOL     OW74400  10.521   1.017   0.699  0.5697  0.2656  0.2001
56146SOL    HW174401  10.485   0.958   0.766  2.8834 -1.4651  0.0637
56146SOL    HW274402  10.585   1.070   0.747  1.7426 -0.5074 -0.4638
56147SOL     OW74403   3.592   5.004   2.408  0.4889 -0.0847  0.6967
56147SOL    HW174404   3.650   5.078   2.391  2.0800 -1.4311 -0.0870
56147SOL    HW274405   3.650   4.928   2.406 -1.4854 -1.6637 -1.5371
56148SOL     OW74406   7.286  11.453  12.168  0.7379 -0.2767  0.2976
56148SOL    HW174407   7.190  11.454  12.170  0.6321 -0.1573 -2.0560
56148SOL    HW274408   7.310  11.543  12.146  1.4271 -0.2396  1.1388
56149SOL     OW74409   6.548  10.426   9.987  1.1056  0.1705 -1.0800
56149SOL    HW174410   6.640  10.435  10.014  1.1480  1.4309 -1.5538
56149SOL    HW274411   6.552  10.368   9.911  1.1554 -2.1227  0.5878
56150SOL     OW74412  11.977   8.963   1.706  0.5261  0.1002 -0.0053
56150SOL    HW174413  12.054   9.020   1.700  1.5231 -1.0840  0.9197
56150SOL    HW274414  11.907   9.020   1.737  1.9260  0.5194  2.6136
56151SOL     OW74415  12.251   3.835   7.482 -0.1746  0.3963  0.3666
56151SOL    HW174416  12.200   3.755   7.470  2.3131 -1.1787 -0.5058
56151SOL    HW274417  12.238   3.885   7.401  1.2355 -1.0081 -0.7949
56152SOL     OW74418   7.204   8.502   3.234 -0.0214 -0.3734  0.7093
56152SOL    HW174419   7.178   8.508   3.326  2.0460  0.8536  1.2669
56152SOL    HW274420   7.280   8.445   3.234  1.3499  1.3735  0.1106
56153SOL     OW74421   7.441   3.413   6.849  0.8612  0.4552 -0.1758
56153SOL    HW174422   7.414   3.380   6.934  3.2634 -2.1948 -0.2765
56153SOL    HW274423   7.537   3.407   6.850  1.0576  1.7103 -2.5651
56154SOL     OW74424   9.836   3.098   2.340  0.0609  0.3024  0.4614
56154SOL    HW174425   9.925   3.097   2.305 -0.0777  0.9172  0.0797
56154SOL    HW274426   9.784   3.144   2.274 -0.2463  1.3089  1.3696
56155SOL     OW74427   4.314  11.700  11.122  0.1432 -0.1940  0.1471
56155SOL    HW174428   4.308  11.619  11.070  0.4775 -0.7554  0.9667
56155SOL    HW274429   4.402  11.699  11.158 -0.5034 -0.5089  1.8286
56156SOL     OW74430   3.146   2.870  11.753  0.0376 -0.6673 -0.3333
56156SOL    HW174431   3.174   2.942  11.696 -0.5982  0.1399  0.3308
56156SOL    HW274432   3.133   2.796  11.695  0.3919 -0.1479 -1.0875
56157SOL     OW74433  10.982   3.776  10.453  0.4756 -0.5615  0.3623
56157SOL    HW174434  11.067   3.752  10.417  0.3241 -1.1517  0.3818
56157SOL    HW274435  10.973   3.869  10.435  0.7174 -0.6934 -0.4898
56158SOL     OW74436   0.750  11.653   3.467  0.1948  0.0741  0.2430
56158SOL    HW174437   0.667  11.608   3.484  0.3137 -0.0170  0.6011
56158SOL    HW274438   0.812  11.583   3.450 -0.0640  0.1767 -1.3257
56159SOL     OW74439   0.976   2.017   8.137  0.3393 -0.0391  0.5012
56159SOL    HW174440   0.893   2.030   8.183  0.1686 -0.8188  0.4253
56159SOL    HW274441   0.955   2.036   8.045  0.4085  0.3989  0.5710
56160SOL     OW74442  10.472   9.498   2.657 -0.2700 -0.3190 -0.7990
56160SOL    HW174443  10.518   9.482   2.575 -2.5672  0.0483 -2.2740
56160SOL    HW274444  10.472   9.413   2.701  1.3003 -0.4364 -0.9732
56161SOL     OW74445   2.308   2.539   5.907  0.3292 -0.5125  0.2024
56161SOL    HW174446   2.260   2.458   5.888  1.8672 -1.2982 -0.4938
56161SOL    HW274447   2.380   2.540   5.845  0.1805  1.5862 -0.0236
56162SOL     OW74448   5.874   3.368   2.560  0.0709 -0.4070 -0.5024
56162SOL    HW174449   5.802   3.324   2.606 -1.1161 -1.1834 -2.9468
56162SOL    HW274450   5.915   3.423   2.627 -3.1599  0.5421  0.8732
56163SOL     OW74451   9.110   0.952   6.888  0.3575 -0.1483 -0.1713
56163SOL    HW174452   9.132   0.908   6.805  0.5861 -1.0110  0.3317
56163SOL    HW274453   9.040   1.013   6.865  0.7572 -0.0267 -1.0936
56164SOL     OW74454   7.183   5.528   5.999  0.2398 -0.2627 -0.4682
56164SOL    HW174455   7.263   5.566   5.962 -0.2206 -0.3054 -1.5515
56164SOL    HW274456   7.211   5.489   6.081  1.5318 -1.0750 -1.2563
56165SOL     OW74457   8.197  10.900   7.578  0.1068  0.6158  0.2033
56165SOL    HW174458   8.152  10.840   7.518 -1.0891  0.8391  0.8436
56165SOL    HW274459   8.148  10.892   7.660  1.9022  0.0919  1.2601
56166SOL     OW74460   2.611   9.958   8.458 -0.3250 -0.0830  0.9313
56166SOL    HW174461   2.590   9.875   8.501 -1.5984  0.1740  0.8440
56166SOL    HW274462   2.653   9.933   8.376 -1.3069 -0.6748  0.5903
56167SOL     OW74463   1.988   9.334  11.438  0.0757  0.2910 -0.4257
56167SOL    HW174464   1.922   9.404  11.434  0.8606  0.9778 -3.2950
56167SOL    HW274465   2.066   9.372  11.398  1.9653 -0.8644  1.9314
56168SOL     OW74466   9.649   1.378   8.231  0.0785  0.3111  0.6362
56168SOL    HW174467   9.715   1.312   8.211  0.0931  0.9090 -1.5768
56168SOL    HW274468   9.693   1.462   8.214 -0.6027  0.8047  1.2380
56169SOL     OW74469   1.589   2.254   5.323  0.0823 -0.2258  0.7849
56169SOL    HW174470   1.520   2.210   5.273  1.6595 -0.4856 -1.3216
56169SOL    HW274471   1.669   2.208   5.297  1.5837  2.6697 -0.0893
56170SOL     OW74472   0.700   0.219  11.303  0.2314  0.2984  0.5745
56170SOL    HW174473   0.697   0.302  11.350 -1.7172  0.4219  0.2896
56170SOL    HW274474   0.713   0.242  11.212 -2.5883  0.5079  0.1433
56171SOL     OW74475   1.581   6.133   1.864 -0.3261 -0.0150  0.2035
56171SOL    HW174476   1.581   6.038   1.878  0.3509 -0.1548 -0.6561
56171SOL    HW274477   1.661   6.163   1.907 -0.4556  0.1465  0.3331
56172SOL     OW74478   4.046  10.324  11.190 -0.1566  0.0126 -0.1147
56172SOL    HW174479   4.128  10.333  11.142 -0.1083  2.0580  0.2883
56172SOL    HW274480   3.980  10.362  11.133 -0.6678 -0.6233  0.0365
56173SOL     OW74481   8.874  10.634   4.476  0.4692 -0.0837  0.2823
56173SOL    HW174482   8.918  10.711   4.513  1.7975 -0.6647 -0.0101
56173SOL    HW274483   8.946  10.581   4.440 -0.4047 -1.4550  0.4782
56174SOL     OW74484   9.379   8.511  11.933  0.8329  0.1689  0.4487
56174SOL    HW174485   9.449   8.571  11.906  1.4317 -1.5113 -2.0361
56174SOL    HW274486   9.299   8.556  11.908  1.2748 -0.0227 -1.4137
56175SOL     OW74487  11.996   5.699   1.359  0.3873  0.2078  0.2064
56175SOL    HW174488  11.908   5.679   1.329  0.7455 -0.3438 -0.5039
56175SOL    HW274489  11.999   5.667   1.449 -0.2666  0.6348  0.3870
56176SOL     OW74490   5.645   5.730   9.000 -0.2487  0.3114 -0.0797
56176SOL    HW174491   5.653   5.736   8.905  0.3173 -0.4780 -0.0874
56176SOL    HW274492   5.717   5.674   9.027 -0.3393  0.6166  0.8308
56177SOL     OW74493   6.711   2.461   3.168 -0.4915 -0.1993  0.4310
56177SOL    HW174494   6.765   2.389   3.135 -0.3491 -0.3688  1.0304
56177SOL    HW274495   6.752   2.487   3.250 -1.1078 -0.0830  0.7111
56178SOL     OW74496  12.057   7.833   9.464  0.4959  0.1034  1.0167
56178SOL    HW174497  11.971   7.841   9.506  0.5956  1.9344  0.9465
56178SOL    HW274498  12.037   7.814   9.373  0.1869 -0.1421  1.1319
56179SOL     OW74499   8.594  10.593   3.302 -0.0881  0.0512 -0.0710
56179SOL    HW174500   8.501  10.615   3.301  0.3115  1.9157 -1.0220
56179SOL    HW274501   8.598  10.503   3.268 -1.4267  0.5122 -1.5520
56180SOL     OW74502   9.550   3.769   2.714 -0.0345 -0.0782 -1.1474
56180SOL    HW174503   9.466   3.815   2.710  0.1308  0.1615 -2.2282
56180SOL    HW274504   9.610   3.831   2.757 -0.5785 -0.5587  0.3783
56181SOL     OW74505   4.880   3.484   9.659  0.1392 -0.3283 -0.0623
56181SOL    HW174506   4.938   3.514   9.730 -0.5725 -0.8345  0.7444
56181SOL    HW274507   4.832   3.411   9.696 -0.6160 -0.2815 -0.9145
56182SOL     OW74508   5.986  11.172  11.805  0.4578  0.0179 -0.2182
56182SOL    HW174509   6.079  11.196  11.806  1.0758 -2.0513 -1.4209
56182SOL    HW274510   5.968  11.148  11.714 -1.6285  1.5541 -0.2761
56183SOL     OW74511   9.793  11.669   2.922  0.6206  0.6621 -0.2047
56183SOL    HW174512   9.755  11.735   2.864  0.1518  0.8755  0.3290
56183SOL    HW274513   9.758  11.691   3.009  0.4297 -0.3104 -0.0241
56184SOL     OW74514   7.956   5.425  11.739  0.3724  0.0629 -0.2688
56184SOL    HW174515   7.914   5.342  11.717 -1.5960  0.7231  0.7377
56184SOL    HW274516   7.932   5.483  11.666  1.0673 -0.0341 -0.5762
56185SOL     OW74517  12.194   0.980  10.133 -0.1341  0.3098  0.0734
56185SOL    HW174518  12.212   1.047  10.067 -0.2783  0.3855  0.1110
56185SOL    HW274519  12.136   0.917  10.089  0.7403 -0.2833 -0.2579
56186SOL     OW74520   3.462   1.151   8.370  0.1351 -0.0066 -0.1692
56186SOL    HW174521   3.426   1.093   8.437 -0.7472 -1.3727 -1.7622
56186SOL    HW274522   3.385   1.191   8.329  0.7057  1.6781  0.3255
56187SOL     OW74523  11.962   3.351   6.556  0.3042  0.4116  0.0102
56187SOL    HW174524  12.036   3.365   6.616  1.2540 -1.4944 -0.6242
56187SOL    HW274525  11.892   3.319   6.612  0.1967  1.4610  0.5043
56188SOL     OW74526   8.070   8.344  11.710 -0.2796 -0.2730 -0.4097
56188SOL    HW174527   7.995   8.337  11.768  0.3102 -1.3952  0.2471
56188SOL    HW274528   8.137   8.388  11.763 -0.1557 -0.1468 -0.6681
56189SOL     OW74529   0.597   0.391   8.769  0.3665 -0.0766  0.2177
56189SOL    HW174530   0.565   0.419   8.683 -1.2854  0.0534  0.8386
56189SOL    HW274531   0.535   0.324   8.797  0.2570  0.6364  1.7592
56190SOL     OW74532   5.391   2.104   8.984  0.3661  0.4603  0.0215
56190SOL    HW174533   5.393   2.013   8.954  1.0211  0.3217  0.4676
56190SOL    HW274534   5.307   2.138   8.951  1.7083  0.8522 -3.4583
56191SOL     OW74535   0.499   3.416   1.216 -0.9918 -0.0097 -0.0594
56191SOL    HW174536   0.590   3.406   1.242 -0.3109  2.4765 -1.2455
56191SOL    HW274537   0.461   3.474   1.281 -1.2227  0.4488 -0.5972
56192SOL     OW74538   1.417   0.986   7.282 -0.6317  0.4511 -0.1293
56192SOL    HW174539   1.504   1.005   7.317 -0.4002  1.1993 -1.0500
56192SOL    HW274540   1.369   1.069   7.290 -0.5216  0.7020 -1.6623
56193SOL     OW74541   9.713   2.074   3.186  0.2664 -0.0795 -0.2970
56193SOL    HW174542   9.690   1.982   3.174  1.9876 -0.2934 -2.6005
56193SOL    HW274543   9.794   2.073   3.237 -0.2763  0.2552  0.6051
56194SOL     OW74544   8.439  12.120   6.659 -0.1148  0.5663  0.0281
56194SOL    HW174545   8.470  12.035   6.690  0.3125  1.0165  0.8634
56194SOL    HW274546   8.357  12.101   6.614  0.5820 -0.4500 -0.8739
56195SOL     OW74547   6.627  11.008  11.174 -0.0446  0.0135  0.2553
56195SOL    HW174548   6.600  10.979  11.087 -0.5134 -0.2606  0.4909
56195SOL    HW274549   6.628  11.103  11.169  0.6257 -0.0138 -0.2599
56196SOL     OW74550   1.895   1.112  12.361  0.2169 -0.1679  0.4432
56196SOL    HW174551   1.874   1.047  12.429 -0.8902  0.2015  0.4651
56196SOL    HW274552   1.825   1.103  12.297  0.6229  0.3051 -0.0717
56197SOL     OW74553   9.820  12.069   2.851  0.4854 -0.0666  0.3057
56197SOL    HW174554   9.907  12.046   2.817  0.3392 -0.0936 -0.0554
56197SOL    HW274555   9.782  12.124   2.783 -1.1666 -2.8748 -1.2190
56198SOL     OW74556   1.126   2.374   8.971  0.4066 -0.2658  0.5346
56198SOL    HW174557   1.031   2.369   8.959  0.2770  1.3459  0.6648
56198SOL    HW274558   1.146   2.305   9.034 -0.4265 -1.6964 -0.6955
56199SOL     OW74559   9.858   6.370   3.018 -0.8678  0.4599 -0.3887
56199SOL    HW174560   9.879   6.332   3.104 -1.0894  0.6403 -0.2565
56199SOL    HW274561   9.881   6.300   2.956 -1.5464 -0.0088 -0.1291
56200SOL     OW74562   9.081  11.398   4.051 -0.1968  0.3057 -0.3793
56200SOL    HW174563   9.059  11.305   4.038  0.0048  0.3614 -1.2172
56200SOL    HW274564   9.165  11.408   4.006 -0.3242  0.9383 -0.4814
56201SOL     OW74565   1.708   7.292   4.826  0.1809 -0.5082 -0.6954
56201SOL    HW174566   1.693   7.267   4.917  1.0767 -0.4982 -0.5336
56201SOL    HW274567   1.700   7.388   4.826  2.0214 -0.3089 -0.2227
56202SOL     OW74568  10.876   4.493   8.829  0.1270  0.1955  0.4726
56202SOL    HW174569  10.793   4.510   8.874  0.5018 -0.4764  1.4719
56202SOL    HW274570  10.935   4.561   8.861 -0.7941  2.6433 -2.6028
56203SOL     OW74571   9.846   3.535   8.678  0.0208  0.2117  0.8880
56203SOL    HW174572   9.884   3.451   8.705 -0.9250 -1.0685 -1.4304
56203SOL    HW274573   9.803   3.515   8.595 -0.9640  2.8430  0.6964
56204SOL     OW74574   4.203   0.225   1.783 -0.1868 -0.0334 -0.0101
56204SOL    HW174575   4.216   0.289   1.714  1.0035 -0.2860 -0.0269
56204SOL    HW274576   4.189   0.142   1.737 -0.1709 -0.0665  0.0445
56205SOL     OW74577   2.024   1.461   0.182 -0.2039  0.0550 -0.3696
56205SOL    HW174578   2.065   1.539   0.144 -1.6664  1.2396  0.3534
56205SOL    HW274579   2.096   1.414   0.224  0.5906  1.5480  0.0280
56206SOL     OW74580   3.756  11.148  12.209  0.2202  0.5167 -0.0014
56206SOL    HW174581   3.671  11.184  12.235  0.2874  0.1026  0.8219
56206SOL    HW274582   3.744  11.053  12.214  0.5152  0.4464 -0.6077
56207SOL     OW74583   6.114   5.468   2.374 -0.2827 -0.0720  0.1815
56207SOL    HW174584   6.158   5.487   2.291  0.7833 -0.9576  0.5235
56207SOL    HW274585   6.158   5.524   2.438 -1.1732  0.6864  0.1377
56208SOL     OW74586  10.971  11.919   3.749  0.8831  0.2421 -0.1951
56208SOL    HW174587  10.957  11.964   3.832  2.6040 -0.3292  0.4428
56208SOL    HW274588  10.922  11.837   3.756 -0.0125  0.7550 -0.2776
56209SOL     OW74589  11.324   2.026   5.133 -0.2181  0.6308  0.3569
56209SOL    HW174590  11.304   2.114   5.100 -2.1604  0.0166 -0.2282
56209SOL    HW274591  11.419   2.028   5.149 -0.0060  2.4484 -0.7513
56210SOL     OW74592  10.379   0.523   3.244 -1.0432 -0.4565 -0.2132
56210SOL    HW174593  10.377   0.529   3.339 -1.7551  0.2572 -0.2560
56210SOL    HW274594  10.389   0.430   3.226  0.1571 -0.4880  0.5550
56211SOL     OW74595   7.440   1.980   1.227  0.1108 -0.1407  0.2080
56211SOL    HW174596   7.358   2.002   1.182 -0.5046 -2.6669 -0.0560
56211SOL    HW274597   7.492   2.061   1.222 -0.9904  0.5312 -2.6836
56212SOL     OW74598   8.666   2.150   3.410 -0.2161  0.3365 -0.1108
56212SOL    HW174599   8.636   2.080   3.352 -0.9780  1.3002 -0.8981
56212SOL    HW274600   8.684   2.224   3.352 -1.1147  1.3609  0.8721
56213SOL     OW74601   7.747   4.484  10.359 -0.4387  0.3208  0.0025
56213SOL    HW174602   7.662   4.442  10.370 -0.3105 -0.3197 -1.2955
56213SOL    HW274603   7.763   4.482  10.265  0.0003  2.4813 -0.0206
56214SOL     OW74604   8.226   3.362  11.838  0.7741 -0.4383  0.3223
56214SOL    HW174605   8.148   3.324  11.879  0.4111  0.2315  0.2585
56214SOL    HW274606   8.196   3.445  11.801  1.2594 -0.6851 -0.6744
56215SOL     OW74607  10.252   0.553  12.018 -0.0570  0.3740 -0.5631
56215SOL    HW174608  10.298   0.534  12.100 -2.1851  1.5282  0.9798
56215SOL    HW274609  10.221   0.468  11.988 -0.4828  0.0987  0.6138
56216SOL     OW74610   2.419   9.570   0.817  0.2441 -0.1176 -0.4116
56216SOL    HW174611   2.506   9.601   0.842  0.1394  0.0708 -0.2700
56216SOL    HW274612   2.406   9.490   0.869 -0.9440  1.5531  2.0918
56217SOL     OW74613   4.462   7.840   8.491 -0.2769  0.3737 -0.6493
56217SOL    HW174614   4.494   7.751   8.480  0.1625  0.6634 -1.8148
56217SOL    HW274615   4.450   7.873   8.402  0.2275  1.7100 -0.2537
56218SOL     OW74616   2.235   2.506   2.255 -0.3757 -0.1160 -0.0093
56218SOL    HW174617   2.306   2.443   2.270  0.0876  0.5148  0.4670
56218SOL    HW274618   2.177   2.461   2.193  0.0275 -0.9521  0.1970
56219SOL     OW74619  12.094   9.174   5.269  0.0291  0.1678  0.0510
56219SOL    HW174620  12.141   9.106   5.221  0.4282  0.5272 -0.0804
56219SOL    HW274621  12.026   9.127   5.317  2.4770 -0.8369  2.8282
56220SOL     OW74622   8.935   6.883   0.552 -0.2327  0.1070  0.3530
56220SOL    HW174623   8.974   6.933   0.481  0.1091 -0.3492  0.2175
56220SOL    HW274624   8.841   6.884   0.533 -0.2452  0.7998  0.4233
56221SOL     OW74625   4.843   8.958  11.540 -0.6862 -0.1057  0.2396
56221SOL    HW174626   4.843   9.036  11.596 -3.4931 -0.5647  1.0172
56221SOL    HW274627   4.934   8.929  11.540 -0.1033  1.4675  2.3913
56222SOL     OW74628   0.812  10.251   4.510  0.2857 -0.7429 -0.0099
56222SOL    HW174629   0.872  10.198   4.562  1.1589  0.5749  0.3785
56222SOL    HW274630   0.863  10.328   4.486 -1.0689  0.1301 -0.1965
56223SOL     OW74631  10.643   8.968  10.859 -0.5463  0.5015 -0.3324
56223SOL    HW174632  10.562   8.916  10.858  0.1721 -0.6839 -2.2878
56223SOL    HW274633  10.615   9.055  10.830 -0.7588 -0.6939 -4.2664
56224SOL     OW74634   9.189   7.507   9.285 -0.1071 -0.1222  0.1714
56224SOL    HW174635   9.137   7.564   9.341  0.2835  0.5589 -0.1526
56224SOL    HW274636   9.255   7.468   9.344  0.2320  0.5030  0.2076
56225SOL     OW74637   4.641   1.073   1.203  0.0804 -0.5289  0.3024
56225SOL    HW174638   4.660   1.010   1.133  1.1925  0.9613 -0.8299
56225SOL    HW274639   4.579   1.134   1.164 -0.4029 -0.4759  1.1292
56226SOL     OW74640   1.820   0.079  11.382 -0.0647 -0.1998  0.6289
56226SOL    HW174641   1.748   0.121  11.336 -0.4950 -1.0082  0.5392
56226SOL    HW274642   1.873   0.039  11.313 -1.0058 -1.8729  0.8310
56227SOL     OW74643   7.473   4.703  12.088  0.2294  0.1454 -0.0666
56227SOL    HW174644   7.506   4.788  12.062 -0.3250  0.4246  0.1228
56227SOL    HW274645   7.415   4.721  12.162 -0.6441 -0.2766 -0.6295
56228SOL     OW74646   4.757   5.142   6.602  0.6506 -0.5375 -0.5416
56228SOL    HW174647   4.796   5.212   6.654  0.8089 -0.1989 -1.1167
56228SOL    HW274648   4.759   5.174   6.512  2.1793 -1.8863 -1.0526
56229SOL     OW74649  10.572   1.564   8.648  0.2823  0.4221  0.1487
56229SOL    HW174650  10.591   1.471   8.640  0.7402  0.4934  0.3552
56229SOL    HW274651  10.657   1.606   8.650  0.0853  1.1250 -2.7597
56230SOL     OW74652   9.419   1.947   2.735 -0.2544  0.1489  0.4064
56230SOL    HW174653   9.483   1.945   2.805  0.4924  1.5559 -0.1820
56230SOL    HW274654   9.462   1.906   2.660 -0.4387  0.1320  0.3067
56231SOL     OW74655   8.907   4.051  10.089  0.2063  0.9348  0.0337
56231SOL    HW174656   8.847   3.981  10.064  0.7390  0.3913  0.2621
56231SOL    HW274657   8.855   4.109  10.145 -0.0773  0.4114  0.3117
56232SOL     OW74658   4.209   0.276   3.668 -0.5653 -0.4191  0.8246
56232SOL    HW174659   4.224   0.272   3.573  0.1129  2.2023  0.7583
56232SOL    HW274660   4.130   0.328   3.677  0.5703  1.2341  1.7159
56233SOL     OW74661   9.218   5.845   7.458 -1.2121  0.3236 -0.1407
56233SOL    HW174662   9.266   5.796   7.524 -1.5473  0.5710  0.2946
56233SOL    HW274663   9.187   5.778   7.396  1.4596  0.3344 -1.6421
56234SOL     OW74664  12.210   9.406  10.223  0.1569 -0.2246 -0.3645
56234SOL    HW174665  12.280   9.427  10.286 -0.1968 -0.6001  0.1636
56234SOL    HW274666  12.233   9.319  10.191  1.1101  0.5341 -1.8454
56235SOL     OW74667   9.515  12.191   3.157  0.0755 -0.0744  0.0613
56235SOL    HW174668   9.591  12.220   3.106 -1.0813  0.8234 -1.2244
56235SOL    HW274669   9.492  12.267   3.210 -1.5292  0.6463 -1.5654
56236SOL     OW74670   7.802   8.404   8.016 -0.1960 -0.4545 -0.4418
56236SOL    HW174671   7.776   8.390   7.925 -1.2661  1.3184 -0.4359
56236SOL    HW274672   7.739   8.353   8.067 -0.7441  0.0478 -0.6171
56237SOL     OW74673  10.782   4.404   1.797 -0.0856  0.3188  0.1323
56237SOL    HW174674  10.848   4.433   1.860  0.4819 -0.3277 -0.1588
56237SOL    HW274675  10.830   4.397   1.714 -0.2586 -1.2412  0.1469
56238SOL     OW74676   8.977  11.654  10.349  0.3672 -0.3220  0.1211
56238SOL    HW174677   9.035  11.671  10.274 -1.1493 -0.3817 -1.1226
56238SOL    HW274678   8.943  11.740  10.372 -0.6713 -0.5429 -0.5490
56239SOL     OW74679   9.034  10.698   3.231  0.2053  0.3885 -0.4546
56239SOL    HW174680   8.977  10.648   3.289 -0.7471  2.0395  0.0868
56239SOL    HW274681   9.121  10.692   3.271  0.5145 -2.2360 -1.3402
56240SOL     OW74682   2.775   0.043   7.211 -0.2154  0.0393  0.5541
56240SOL    HW174683   2.693   0.057   7.164 -1.0808 -0.9389  1.7252
56240SOL    HW274684   2.802  -0.046   7.187 -0.3700 -0.2572  1.4304
56241SOL     OW74685   6.225   3.270   8.622  0.0668  0.0194  0.0692
56241SOL    HW174686   6.212   3.331   8.695  0.0972 -0.3052  0.3514
56241SOL    HW274687   6.178   3.309   8.549  0.9626  0.9218 -0.0480
56242SOL     OW74688   7.433   0.141  11.622  0.2795 -0.2662  0.2760
56242SOL    HW174689   7.481   0.224  11.621 -0.1920  0.0064  0.0266
56242SOL    HW274690   7.471   0.093  11.695 -1.7734  1.5718  2.7647
56243SOL     OW74691   3.257   0.278   0.682  0.1429  0.3328  0.3203
56243SOL    HW174692   3.351   0.289   0.691  0.2486 -1.0049  1.1278
56243SOL    HW274693   3.226   0.264   0.771 -0.8556  0.9161  0.0839
56244SOL     OW74694   4.469  10.789   4.770 -0.0994  0.0068 -0.1641
56244SOL    HW174695   4.479  10.740   4.688  2.6398 -2.3821  1.4395
56244SOL    HW274696   4.521  10.868   4.758 -1.7684  0.9818 -1.5292
56245SOL     OW74697   6.152   5.081   6.491 -0.1681 -0.0124 -0.7727
56245SOL    HW174698   6.223   5.086   6.426  1.0099 -2.0225  0.2447
56245SOL    HW274699   6.099   5.006   6.463  0.6136 -1.1933  0.7489
56246SOL     OW74700   3.809   4.205   6.160 -0.4148  0.2619  0.0482
56246SOL    HW174701   3.874   4.139   6.138  1.8241  2.0326  0.9751
56246SOL    HW274702   3.782   4.183   6.250 -0.0855  0.2903  0.1543
56247SOL     OW74703   9.093  11.405   8.479 -0.2187  0.1752 -0.0295
56247SOL    HW174704   9.101  11.489   8.525 -0.6623 -0.8253  1.9674
56247SOL    HW274705   9.012  11.367   8.512 -1.2641 -0.0785 -2.6470
56248SOL     OW74706   1.381   2.877   3.783 -0.1062 -0.1605 -0.1127
56248SOL    HW174707   1.288   2.867   3.805  0.5254 -3.1676  1.7389
56248SOL    HW274708   1.417   2.926   3.857 -0.0460  0.2442 -0.4063
56249SOL     OW74709  10.767   6.522   8.349  0.0124  0.0820  0.4224
56249SOL    HW174710  10.714   6.601   8.364  0.1224 -0.1638  2.3815
56249SOL    HW274711  10.834   6.525   8.416  1.2425 -0.6945 -0.7273
56250SOL     OW74712   2.359   7.229   8.204 -0.5584 -0.0900  0.3101
56250SOL    HW174713   2.274   7.186   8.203 -0.4093 -0.3940  0.4489
56250SOL    HW274714   2.420   7.161   8.174 -0.3074 -0.0073  0.6337
56251SOL     OW74715   7.371   4.272  10.900 -0.4313 -0.0770  0.5204
56251SOL    HW174716   7.439   4.327  10.860  1.4485 -2.1793  0.5664
56251SOL    HW274717   7.361   4.198  10.839 -1.5027 -0.6224  1.3209
56252SOL     OW74718   9.392  12.435   6.386 -0.5417  0.1926 -0.7444
56252SOL    HW174719   9.336  12.394   6.320 -1.4159 -1.4148  0.8824
56252SOL    HW274720   9.481  12.409   6.361 -0.4885  2.1773 -2.9474
56253SOL     OW74721   0.937   8.423   5.250  0.7483  0.7110 -0.4880
56253SOL    HW174722   0.885   8.423   5.331  0.2459  1.6677 -0.7975
56253SOL    HW274723   0.890   8.481   5.191  0.9518 -0.2174 -1.5917
56254SOL     OW74724   5.276  10.187   9.894  0.4337  0.6407 -0.2751
56254SOL    HW174725   5.208  10.120   9.889 -0.0557  1.0371  0.7809
56254SOL    HW274726   5.252  10.252   9.828 -0.4942  1.0181  0.4165
56255SOL     OW74727   8.009  11.287  10.815  0.6549  0.2143 -0.2280
56255SOL    HW174728   7.918  11.309  10.833  1.2003  2.1163  0.4467
56255SOL    HW274729   8.022  11.313  10.723  0.8009  1.0279  0.0156
56256SOL     OW74730   6.712   7.288  11.132 -0.0817  0.5928  0.2305
56256SOL    HW174731   6.802   7.319  11.123  0.2482 -0.0478  1.2253
56256SOL    HW274732   6.707   7.212  11.073  0.3621 -0.0522  1.0182
56257SOL     OW74733   6.172   9.582   9.716 -0.4625 -0.2550  0.0214
56257SOL    HW174734   6.219   9.650   9.668 -1.5226  0.9216  0.5780
56257SOL    HW274735   6.105   9.630   9.766 -2.4100 -1.8290 -0.9039
56258SOL     OW74736   0.401   2.477   7.902  0.7079 -0.1256  0.3385
56258SOL    HW174737   0.393   2.444   7.813  1.9558  0.0115  0.1555
56258SOL    HW274738   0.352   2.415   7.956  0.4770 -0.5550 -0.3591
56259SOL     OW74739   8.536   5.287   9.288  0.3363 -0.1714 -0.2506
56259SOL    HW174740   8.577   5.374   9.287  0.9706 -0.4216  1.2097
56259SOL    HW274741   8.534   5.260   9.197 -1.6926  2.2087 -1.0266
56260SOL     OW74742   2.748   9.412   3.114 -0.0164 -0.5419  0.7451
56260SOL    HW174743   2.686   9.484   3.119 -2.0370 -2.1561  0.4734
56260SOL    HW274744   2.764   9.387   3.205  0.5425  0.1274  0.8311
56261SOL     OW74745   9.851  12.327   4.104 -0.2500 -0.2388 -0.1784
56261SOL    HW174746   9.815  12.246   4.140  2.2185 -1.2530  0.2076
56261SOL    HW274747   9.891  12.371   4.179  2.0665 -0.7713 -1.0007
56262SOL     OW74748   8.533   6.316  11.955 -0.2115 -0.3146 -1.1956
56262SOL    HW174749   8.566   6.398  11.918  0.1003 -0.6869 -1.7574
56262SOL    HW274750   8.605   6.283  12.008  0.0742 -0.7617 -1.8402
56263SOL     OW74751  11.853   1.911   1.076 -0.5482 -0.6177 -0.0345
56263SOL    HW174752  11.785   1.958   1.125 -0.1687 -1.2146  1.0970
56263SOL    HW274753  11.818   1.905   0.987 -0.9076  1.1837 -0.0532
56264SOL     OW74754  12.409   7.838   7.337  0.1113 -0.3012 -0.1740
56264SOL    HW174755  12.472   7.908   7.319  0.7035 -0.4304  1.2987
56264SOL    HW274756  12.458   7.774   7.389 -1.0846 -0.6680  0.5424
56265SOL     OW74757   8.824   3.594   6.380  0.0467 -0.2987  0.2603
56265SOL    HW174758   8.821   3.688   6.396 -0.7982 -0.2217 -0.2505
56265SOL    HW274759   8.799   3.585   6.288  0.9872 -0.9690  0.0568
56266SOL     OW74760   5.704  11.182   3.865 -0.1014 -0.0137 -0.4281
56266SOL    HW174761   5.779  11.152   3.916 -1.7228 -1.1562  1.4183
56266SOL    HW274762   5.715  11.142   3.779  0.8675 -1.0129  0.1512
56267SOL     OW74763   7.506   7.990   8.057  0.3334 -0.1124  0.8740
56267SOL    HW174764   7.557   7.939   7.994  0.0010 -1.1762  1.4424
56267SOL    HW274765   7.519   7.945   8.141 -0.8388  0.0939  1.1872
56268SOL     OW74766   5.126   3.118   8.058  0.3340 -0.1585 -0.3052
56268SOL    HW174767   5.174   3.046   8.101 -0.4673 -0.7022 -0.3117
56268SOL    HW274768   5.171   3.129   7.975  1.3054  0.2583  0.2516
56269SOL     OW74769   3.357   6.792   2.912 -0.1223 -0.0038  0.2979
56269SOL    HW174770   3.385   6.879   2.886  1.5839 -0.2178  1.2874
56269SOL    HW274771   3.324   6.802   3.001  0.9745 -0.4925  0.7826
56270SOL     OW74772   1.297   1.747  12.391 -0.1093  0.1103  0.5104
56270SOL    HW174773   1.370   1.731  12.451  1.0190  1.2889 -0.4855
56270SOL    HW274774   1.335   1.799  12.320 -1.1456 -1.9931 -1.7460
56271SOL     OW74775  11.533   1.989   5.406  0.3365 -0.4802 -0.0082
56271SOL    HW174776  11.525   2.050   5.332 -1.4957 -0.9716 -0.2563
56271SOL    HW274777  11.558   2.045   5.480  4.1523 -0.2277 -1.2801
56272SOL     OW74778   7.808   8.341   1.121 -0.2737 -0.2216  0.2054
56272SOL    HW174779   7.763   8.394   1.056 -0.8489 -2.2319 -1.1107
56272SOL    HW274780   7.748   8.338   1.196 -1.0705 -0.5487 -0.4348
56273SOL     OW74781   4.797   4.746   3.814  0.0043  0.5543  0.0473
56273SOL    HW174782   4.723   4.801   3.790 -0.9614 -0.6513  0.1937
56273SOL    HW274783   4.781   4.663   3.769  1.5849  0.4709 -0.4133
56274SOL     OW74784   5.150  11.649   4.400 -0.3902 -0.4720  0.0457
56274SOL    HW174785   5.059  11.632   4.422 -1.1473  0.6078 -2.0656
56274SOL    HW274786   5.194  11.564   4.412 -1.9647 -1.3715 -0.3437
56275SOL     OW74787  12.280   2.445   0.365  0.5668 -0.1953 -0.7424
56275SOL    HW174788  12.215   2.507   0.398  1.0776 -0.3622  0.6321
56275SOL    HW274789  12.363   2.493   0.370  0.7477 -0.4523 -1.1868
56276SOL     OW74790   2.586   7.471   7.168 -0.3100 -0.1849 -0.6421
56276SOL    HW174791   2.528   7.405   7.205  0.9578 -0.3190  1.2664
56276SOL    HW274792   2.535   7.552   7.169 -0.7033 -0.4384  0.3263
56277SOL     OW74793   7.266   3.938   4.372 -0.3275 -0.0180  0.3027
56277SOL    HW174794   7.327   4.008   4.348 -2.7598  2.2537  0.3578
56277SOL    HW274795   7.197   3.942   4.307 -1.1534 -1.5809  1.0328
56278SOL     OW74796   5.909   6.506   2.684 -0.7907 -0.3896 -0.5681
56278SOL    HW174797   5.931   6.559   2.608 -1.1613  0.3642 -0.1643
56278SOL    HW274798   5.847   6.441   2.651 -1.0011 -0.0258 -0.9014
56279SOL     OW74799   5.067  10.071   4.992 -0.4451 -0.3461 -0.4007
56279SOL    HW174800   4.995  10.021   4.952 -0.6347 -1.0086  0.7255
56279SOL    HW274801   5.053  10.160   4.961 -1.9271 -0.4113 -0.0070
56280SOL     OW74802   1.824   9.798   7.582  0.3098  0.8450  0.0748
56280SOL    HW174803   1.793   9.759   7.664  1.6777 -0.5000 -0.0137
56280SOL    HW274804   1.810   9.892   7.593 -0.6552  0.5751  1.3495
56281SOL     OW74805   2.954   8.793   1.695 -0.0641 -0.4344 -0.2660
56281SOL    HW174806   2.924   8.704   1.713 -1.1606 -0.4119 -1.7592
56281SOL    HW274807   3.044   8.783   1.664  0.5560 -0.7889  1.5330
56282SOL     OW74808   3.602   3.361  11.830  0.3264 -0.1318 -0.3646
56282SOL    HW174809   3.509   3.340  11.828  0.2565  0.1377  0.0047
56282SOL    HW274810   3.620   3.384  11.921  1.0834 -1.6054 -0.1098
56283SOL     OW74811   1.078   3.334   7.087 -0.0418  0.3417 -0.3264
56283SOL    HW174812   1.110   3.308   7.173 -0.9529  0.6466  0.1216
56283SOL    HW274813   1.048   3.253   7.047 -2.0460  0.5121  0.7105
56284SOL     OW74814   1.024   8.034   8.547 -0.2361  0.0117 -0.5354
56284SOL    HW174815   0.929   8.041   8.534 -0.5907  1.2488  2.0959
56284SOL    HW274816   1.054   8.125   8.553  0.6455 -0.3436  1.1868
56285SOL     OW74817   0.810  11.525   6.283  0.5959 -0.4727 -0.2086
56285SOL    HW174818   0.761  11.557   6.207  1.2803  1.8719  0.2591
56285SOL    HW274819   0.784  11.583   6.354  0.2819 -2.3637  1.2977
56286SOL     OW74820  10.309   7.944   3.792  0.0457  0.1503 -0.2813
56286SOL    HW174821  10.256   7.864   3.793  0.7348 -0.3103 -0.3566
56286SOL    HW274822  10.272   7.996   3.720  0.3913 -0.6429 -1.0446
56287SOL     OW74823   1.442   3.194   3.500 -0.2290 -0.5539 -0.0324
56287SOL    HW174824   1.486   3.199   3.585 -1.0789  1.2071  0.3408
56287SOL    HW274825   1.405   3.105   3.498  0.3341 -0.8391  1.1635
56288SOL     OW74826  10.356   7.487   4.243 -0.4750  0.4808  0.2836
56288SOL    HW174827  10.440   7.441   4.245 -1.0891 -0.7542 -0.7265
56288SOL    HW274828  10.375   7.567   4.194  0.4234  0.9559  1.3493
56289SOL     OW74829   2.601   6.207   1.029  0.0308 -0.1664 -0.2190
56289SOL    HW174830   2.692   6.181   1.041  0.0243  0.0604  0.3428
56289SOL    HW274831   2.607   6.295   0.990  0.0742  0.7761  1.8183
56290SOL     OW74832   8.256   7.833  11.140 -0.4436  0.3276 -0.1734
56290SOL    HW174833   8.233   7.925  11.148 -0.9672  0.2271 -0.4652
56290SOL    HW274834   8.289   7.809  11.226  0.6306  1.0303 -0.3656
56291SOL     OW74835   3.505  10.743   4.808  0.4741  0.5151  0.4995
56291SOL    HW174836   3.555  10.714   4.884  1.6171  1.8581  0.3015
56291SOL    HW274837   3.566  10.734   4.734 -0.1528  0.5479 -0.0341
56292SOL     OW74838  11.773  11.442   1.261  0.5828  0.3132  0.6869
56292SOL    HW174839  11.864  11.467   1.245  0.6248  2.0071  3.1314
56292SOL    HW274840  11.733  11.441   1.174  2.9673 -0.8522 -0.4993
56293SOL     OW74841  11.005   9.230   6.259 -0.3634 -0.1911 -0.3265
56293SOL    HW174842  11.100   9.234   6.267 -0.4037  0.4408 -0.0687
56293SOL    HW274843  10.973   9.277   6.336 -0.8772 -0.1319 -0.5721
56294SOL     OW74844  11.514   7.676   7.291 -0.2841 -0.0640 -0.5199
56294SOL    HW174845  11.507   7.674   7.386  2.4408  2.1165 -0.1593
56294SOL    HW274846  11.461   7.602   7.262 -0.2586 -1.5425  2.7474
56295SOL     OW74847   6.861   4.538   0.991 -0.1672 -0.5437 -0.5477
56295SOL    HW174848   6.904   4.604   1.047 -0.4847 -1.3353  0.6795
56295SOL    HW274849   6.920   4.527   0.917  0.3212  0.4764 -0.3293
56296SOL     OW74850  11.306  10.009   6.188 -0.5464  0.0524 -0.3855
56296SOL    HW174851  11.228   9.991   6.241 -0.0217  0.4897  0.5508
56296SOL    HW274852  11.376   9.959   6.228  0.0490  1.0608 -0.1162
56297SOL     OW74853  12.083   8.482  11.621  0.0889 -0.5719  0.0240
56297SOL    HW174854  12.023   8.417  11.658 -1.2494  0.1757 -0.7308
56297SOL    HW274855  12.043   8.506  11.538  0.2293  1.6123  0.5328
56298SOL     OW74856   0.906   9.220   3.530 -0.6334 -0.0150  0.1167
56298SOL    HW174857   0.822   9.229   3.574  0.1978 -0.2191  1.8397
56298SOL    HW274858   0.903   9.134   3.489 -1.6931  0.4706 -0.8772
56299SOL     OW74859   2.793  10.317   6.760 -0.1899 -0.4029  0.0910
56299SOL    HW174860   2.871  10.277   6.721  0.1573  0.8242 -0.5485
56299SOL    HW274861   2.736  10.336   6.686 -0.7178 -0.5020  0.4665
56300SOL     OW74862   5.117   3.043  12.011 -0.4415 -0.3695  0.1868
56300SOL    HW174863   5.180   3.104  12.049 -0.6480 -0.3652  0.5281
56300SOL    HW274864   5.152   2.956  12.030 -0.7235 -0.3747  0.7090
56301SOL     OW74865  12.126   1.979   4.283  0.7672  0.3008 -0.1216
56301SOL    HW174866  12.166   2.045   4.340 -0.7381  0.4282  0.8531
56301SOL    HW274867  12.062   1.935   4.339  0.0752 -0.3969 -1.4128
56302SOL     OW74868   7.551   7.673   3.654 -0.2604 -0.1444  0.4041
56302SOL    HW174869   7.474   7.628   3.688 -0.0424 -1.1663 -0.3924
56302SOL    HW274870   7.622   7.646   3.712 -0.2913 -0.1368  0.4453
56303SOL     OW74871   8.986   9.843   8.142 -0.2092  0.0805  0.2453
56303SOL    HW174872   9.063   9.900   8.148  0.3916 -0.4791 -1.7398
56303SOL    HW274873   8.917   9.900   8.106 -0.5806  0.3947  1.3853
56304SOL     OW74874   4.430   2.050   0.656  0.6108  0.5593  0.4099
56304SOL    HW174875   4.348   2.100   0.656  1.1360  1.4693  1.5005
56304SOL    HW274876   4.402   1.960   0.672 -0.1847  0.8531  0.7649
56305SOL     OW74877  12.284   5.613  11.243  0.1509  0.1025  0.3283
56305SOL    HW174878  12.278   5.555  11.319  1.7282 -0.4562  0.0591
56305SOL    HW274879  12.283   5.702  11.280 -0.7850 -0.1123  0.8504
56306SOL     OW74880   6.538   3.956   7.971  0.8118  0.0501  0.0506
56306SOL    HW174881   6.630   3.932   7.977  1.0082  0.4701 -1.0350
56306SOL    HW274882   6.529   3.994   7.884  0.0796  1.9601  0.9037
56307SOL     OW74883   1.872   4.130   8.079  0.3908 -0.3301 -0.0770
56307SOL    HW174884   1.792   4.166   8.117 -0.2333 -0.8963 -0.8376
56307SOL    HW274885   1.845   4.049   8.037  1.4111 -0.6552 -0.1460
56308SOL     OW74886   8.160   0.535   9.475 -0.3384  0.6457  0.2702
56308SOL    HW174887   8.250   0.501   9.475 -0.4192  0.4376  0.3969
56308SOL    HW274888   8.171   0.630   9.478 -0.1164  0.6319 -0.0407
56309SOL     OW74889  11.492  12.076  10.911  0.9661 -0.0544 -0.0770
56309SOL    HW174890  11.467  12.040  10.826  0.7399  0.0538 -0.0554
56309SOL    HW274891  11.582  12.108  10.898  0.7142  0.5204 -0.4467
56310SOL     OW74892   9.895   8.771   0.414 -0.5859 -0.0188 -0.0141
56310SOL    HW174893   9.949   8.845   0.441 -2.8330  1.7348  0.0282
56310SOL    HW274894   9.855   8.739   0.495 -0.0600 -0.9613 -0.1074
56311SOL     OW74895   6.578   0.144   1.036  0.2702  0.2791  0.0418
56311SOL    HW174896   6.546   0.081   0.972  2.1909 -1.7060  0.9273
56311SOL    HW274897   6.585   0.226   0.988  1.2697 -1.0408 -2.1866
56312SOL     OW74898   6.544   9.105   2.965 -0.2013 -0.7261 -0.1559
56312SOL    HW174899   6.602   9.055   2.907 -0.2393 -1.1481  0.1694
56312SOL    HW274900   6.489   9.039   3.007 -0.2875 -0.4041  0.2402
56313SOL     OW74901   5.074   4.219   7.715 -0.0748  0.2664  0.0566
56313SOL    HW174902   5.114   4.137   7.686 -0.0792  0.0506  0.6542
56313SOL    HW274903   5.138   4.257   7.775 -0.3622  0.3775  0.2948
56314SOL     OW74904   4.352  11.356   2.784  0.8122 -0.0618 -0.7055
56314SOL    HW174905   4.434  11.319   2.817  0.1752 -0.4323  0.5336
56314SOL    HW274906   4.355  11.340   2.690  1.2601 -1.8772 -0.4240
56315SOL     OW74907  11.990  10.900   4.027 -0.3005 -0.0284  0.1621
56315SOL    HW174908  12.007  10.867   4.115  0.1275 -1.8923 -0.5616
56315SOL    HW274909  12.038  10.982   4.022  1.6072 -1.0431  0.9120
56316SOL     OW74910   7.960   0.055   5.569  0.3571 -0.2795  0.6642
56316SOL    HW174911   8.002  -0.022   5.530  1.0358  0.3755  0.0669
56316SOL    HW274912   7.939   0.028   5.659 -0.7018 -1.6219  0.0477
56317SOL     OW74913   1.402   9.860   8.918  0.0153 -0.4084  0.1555
56317SOL    HW174914   1.329   9.800   8.927 -0.9091  0.6061 -0.2868
56317SOL    HW274915   1.458   9.842   8.994 -0.7867 -1.0732  0.6032
56318SOL     OW74916  11.158  11.443   8.705  0.4614  0.5467 -0.4097
56318SOL    HW174917  11.193  11.367   8.659 -0.1597  0.8972 -1.4899
56318SOL    HW274918  11.232  11.503   8.714  1.0905 -0.3677  0.9247
56319SOL     OW74919   4.477   1.218   3.845 -0.0880 -0.0526  0.4285
56319SOL    HW174920   4.568   1.189   3.857 -0.0953  0.2361  1.2252
56319SOL    HW274921   4.472   1.301   3.891 -0.9000 -0.3223  0.8448
56320SOL     OW74922   1.471  10.786   1.561  0.2898 -0.4788  0.1701
56320SOL    HW174923   1.428  10.818   1.482 -0.2040  2.2511  1.4294
56320SOL    HW274924   1.404  10.735   1.606  0.0660 -0.6881 -0.3863
56321SOL     OW74925   9.359  12.218   2.172  0.6019  0.0725  0.2094
56321SOL    HW174926   9.265  12.221   2.157  0.3092 -0.8901  1.6661
56321SOL    HW274927   9.391  12.304   2.145 -0.6204  0.2775 -0.6560
56322SOL     OW74928   9.863   9.054   7.442 -0.4229 -0.5985 -0.8869
56322SOL    HW174929   9.946   9.030   7.483 -0.2432  0.2636 -0.7080
56322SOL    HW274930   9.832   8.974   7.401 -1.0571 -1.7927  1.7059
56323SOL     OW74931   4.996  11.283   9.344 -0.1983  0.7869 -0.0877
56323SOL    HW174932   5.062  11.315   9.282  0.3256 -1.0221 -0.5366
56323SOL    HW274933   5.040  11.284   9.429  0.5352 -0.5538 -0.4053
56324SOL     OW74934   7.558   3.070   6.966 -0.4410 -0.0047 -0.3002
56324SOL    HW174935   7.534   2.987   6.924 -0.8198 -0.3241  0.5218
56324SOL    HW274936   7.624   3.046   7.031  0.3143  0.5182 -0.8578
56325SOL     OW74937   1.912   0.205   8.396  0.0715 -0.0385  0.5266
56325SOL    HW174938   1.858   0.238   8.324  0.1312  1.6337  1.2104
56325SOL    HW274939   1.849   0.169   8.459 -0.0579 -0.4149  0.1858
56326SOL     OW74940   9.488   4.771  10.725 -0.3271 -0.2102 -0.3829
56326SOL    HW174941   9.505   4.828  10.800  2.5330  0.3062 -1.2876
56326SOL    HW274942   9.510   4.825  10.649 -0.3775 -1.6178 -1.4370
56327SOL     OW74943   0.923   6.869   4.240 -0.0607  0.4547  0.3610
56327SOL    HW174944   0.952   6.780   4.219 -0.6754  0.0895  1.0065
56327SOL    HW274945   0.829   6.860   4.257 -0.3588  1.4316 -0.6862
56328SOL     OW74946   8.855   6.158  11.462 -0.3466 -0.8498  0.3909
56328SOL    HW174947   8.918   6.196  11.524 -1.5675  0.6448  0.7666
56328SOL    HW274948   8.813   6.088  11.510 -1.4709  0.4699  1.3949
56329SOL     OW74949   7.808  11.155  11.420  0.1965 -0.0040  0.1980
56329SOL    HW174950   7.834  11.177  11.510  1.7398  0.0845 -0.2467
56329SOL    HW274951   7.838  11.065  11.408 -0.0599 -0.0369 -0.2132
56330SOL     OW74952   5.261   4.231  12.301  0.3963  0.3883 -0.2036
56330SOL    HW174953   5.336   4.183  12.265  0.4277  0.5345 -0.3390
56330SOL    HW274954   5.294   4.319  12.316  0.2973  0.4087 -0.1034
56331SOL     OW74955   7.507  11.998   3.388 -0.5662 -0.4774  0.2602
56331SOL    HW174956   7.437  11.968   3.446 -0.0510  0.6010  1.5126
56331SOL    HW274957   7.525  11.923   3.331 -0.1220 -2.1454  2.4568
56332SOL     OW74958   0.854   9.914   1.738  0.3301  0.4105 -0.1493
56332SOL    HW174959   0.885   9.839   1.789  2.2258  2.4898  1.9842
56332SOL    HW274960   0.933   9.961   1.713 -0.7609  1.3908 -2.0553
56333SOL     OW74961   7.283   6.475   0.240  0.6835 -0.1960  0.2221
56333SOL    HW174962   7.289   6.383   0.217  1.2451 -0.1343  0.1111
56333SOL    HW274963   7.190   6.496   0.232  0.6267 -0.6234 -0.2455
56334SOL     OW74964   1.636   7.734   3.624  0.0069 -0.2293 -0.1871
56334SOL    HW174965   1.657   7.762   3.713 -1.8540 -1.1101  0.5720
56334SOL    HW274966   1.684   7.796   3.568 -1.6805  2.7683  1.3997
56335SOL     OW74967   2.817   1.362   6.318  0.4371 -0.2473  0.6276
56335SOL    HW174968   2.754   1.291   6.327 -0.9756  0.7522 -0.7875
56335SOL    HW274969   2.797   1.421   6.390  0.6590 -0.5846  0.9667
56336SOL     OW74970   9.047   1.920  11.124 -0.1254 -0.2465 -0.1718
56336SOL    HW174971   9.129   1.916  11.174 -0.3212 -1.7483  0.0905
56336SOL    HW274972   9.034   1.830  11.094 -1.3648  0.1091 -0.7512
56337SOL     OW74973  11.676   2.643   5.267  0.7690  0.5360 -0.1597
56337SOL    HW174974  11.623   2.563   5.262  2.5332 -0.6573 -0.3936
56337SOL    HW274975  11.687   2.671   5.176 -2.1840  2.7460  0.0031
56338SOL     OW74976   1.409   8.281   6.091  0.0408 -0.3042 -0.2085
56338SOL    HW174977   1.488   8.264   6.040 -1.3092  1.2270 -3.1223
56338SOL    HW274978   1.337   8.263   6.029 -1.7390  1.8170  1.1035
56339SOL     OW74979   4.677   2.677   0.417  0.1161 -0.1209  0.0011
56339SOL    HW174980   4.667   2.706   0.327  0.7364  0.5507  0.1400
56339SOL    HW274981   4.760   2.630   0.418  0.5856  0.7057  0.4256
56340SOL     OW74982   8.205   6.208   4.759  0.3087  0.1171 -0.5139
56340SOL    HW174983   8.228   6.150   4.687 -1.8225 -1.5571  0.0378
56340SOL    HW274984   8.118   6.242   4.736  0.4095  1.0492  0.3967
56341SOL     OW74985   2.466   0.460   2.694 -0.0032 -0.5872  0.4934
56341SOL    HW174986   2.526   0.406   2.643  0.2510 -1.0272  1.2433
56341SOL    HW274987   2.518   0.489   2.769 -0.5697 -0.5349  0.8753
56342SOL     OW74988   8.349  10.112   0.607 -0.0785 -0.5067 -0.9429
56342SOL    HW174989   8.254  10.102   0.608 -0.1061 -0.6330  1.5677
56342SOL    HW274990   8.371  10.123   0.514 -2.6584  0.8426 -1.4881
56343SOL     OW74991   2.351   1.317   5.043 -0.1140 -0.1423  0.0633
56343SOL    HW174992   2.364   1.410   5.064  0.3938 -0.1866 -0.0275
56343SOL    HW274993   2.408   1.271   5.105 -0.5193 -0.4022  0.2403
56344SOL     OW74994  12.399   8.513   6.829  0.2655 -0.0373  0.0183
56344SOL    HW174995  12.306   8.527   6.813  0.9066  3.6678 -1.4401
56344SOL    HW274996  12.433   8.481   6.745  0.4583 -0.7254  0.3477
56345SOL     OW74997   8.830  10.303   3.009  0.8344 -0.2667  0.2746
56345SOL    HW174998   8.786  10.243   3.069 -0.9119 -0.3572 -1.0116
56345SOL    HW274999   8.771  10.379   3.004  0.6113 -0.5165 -1.7294
56346SOL     OW75000   8.043   0.164   3.767 -0.1896 -0.3954 -0.0055
56346SOL    HW175001   7.983   0.094   3.792 -1.5626  0.6570 -0.2799
56346SOL    HW275002   8.100   0.175   3.843 -0.9346 -0.7999  0.6220
56347SOL     OW75003   1.188   4.564   3.324 -0.1365  0.5190 -0.7243
56347SOL    HW175004   1.211   4.517   3.404 -0.5159  1.4728 -0.0325
56347SOL    HW275005   1.253   4.535   3.260  1.7539  1.5551  0.5892
56348SOL     OW75006   1.060   4.187   8.814  0.3291 -0.0538  0.4684
56348SOL    HW175007   1.154   4.194   8.796  0.6781 -1.3110  1.6201
56348SOL    HW275008   1.054   4.192   8.910 -0.6398 -1.2792  0.4948
56349SOL     OW75009  12.237  12.067   9.344 -0.5541 -0.2200 -0.2421
56349SOL    HW175010  12.257  12.000   9.278 -2.3692  0.2111 -1.2621
56349SOL    HW275011  12.150  12.098   9.322 -0.8961  0.4952  1.9203
56350SOL     OW75012   8.141   3.891  10.366 -0.2771  0.6631 -0.3521
56350SOL    HW175013   8.163   3.847  10.284  0.4969  0.6724 -0.1514
56350SOL    HW275014   8.177   3.979  10.355 -1.0228  0.9720 -0.3854
56351SOL     OW75015   9.024   2.905   3.041 -0.5530  0.0120  0.1607
56351SOL    HW175016   9.112   2.870   3.028  0.1896  1.8179  0.0972
56351SOL    HW275017   8.979   2.838   3.092  0.8662 -0.9220  0.2335
56352SOL     OW75018   2.902   6.593   4.448  0.1987  0.0075 -0.1326
56352SOL    HW175019   2.840   6.529   4.484  1.7715 -1.0515  0.8337
56352SOL    HW275020   2.847   6.665   4.417 -1.4866 -0.7565  0.9252
56353SOL     OW75021   0.265   7.740   6.292  0.0638  0.0662  0.0359
56353SOL    HW175022   0.260   7.655   6.337 -2.2839  0.4835  0.6870
56353SOL    HW275023   0.231   7.722   6.204 -3.5251  0.8301  1.1199
56354SOL     OW75024   0.055   6.801   1.580 -0.0691 -0.5743  0.3991
56354SOL    HW175025   0.063   6.783   1.486  1.0112  0.4343  0.2859
56354SOL    HW275026   0.108   6.733   1.621  0.2307 -0.4489  0.2244
56355SOL     OW75027   8.183   4.442   7.448  0.4515  0.1903  0.1223
56355SOL    HW175028   8.173   4.426   7.542  0.2597 -2.4168 -0.2534
56355SOL    HW275029   8.094   4.434   7.413  0.6656  0.0992 -0.4046
56356SOL     OW75030   3.417   2.070   8.913 -0.7257 -0.0992 -0.1820
56356SOL    HW175031   3.453   1.982   8.928 -1.4303 -0.5066 -0.8073
56356SOL    HW275032   3.338   2.074   8.967 -1.5749 -0.4515 -1.3565
56357SOL     OW75033   9.968  10.385  10.147  0.8044 -0.1557  0.1159
56357SOL    HW175034  10.061  10.383  10.170  0.7046  0.9581  0.6795
56357SOL    HW275035   9.952  10.475  10.120 -0.1185 -0.3389  0.0192
56358SOL     OW75036   4.521   1.976   0.980  0.3283  0.6360 -0.2340
56358SOL    HW175037   4.550   1.892   0.944  0.0996  0.1850  0.6030
56358SOL    HW275038   4.546   2.041   0.914 -2.7183 -0.4294 -2.6649
56359SOL     OW75039   4.117   2.558  11.588 -0.1414 -0.1815  0.4061
56359SOL    HW175040   4.155   2.622  11.528  0.3436  0.7372  1.6278
56359SOL    HW275041   4.024   2.556  11.566 -0.1585  0.9442  0.3082
56360SOL     OW75042   6.853   8.098   3.999  0.4995  0.3684  0.6555
56360SOL    HW175043   6.910   8.104   4.076  1.6234 -1.4877  0.0520
56360SOL    HW275044   6.790   8.030   4.021  0.4942  0.2017  0.1293
56361SOL     OW75045  10.728   9.586  10.614 -0.0053 -0.4732  0.0877
56361SOL    HW175046  10.745   9.680  10.613 -0.9904 -0.2742  0.5505
56361SOL    HW275047  10.662   9.575  10.682 -0.5482 -1.3818 -0.5750
56362SOL     OW75048   3.555   5.072   7.432  0.0018  0.0326 -0.0163
56362SOL    HW175049   3.538   5.156   7.475 -0.0000  0.1620 -0.2676
56362SOL    HW275050   3.621   5.092   7.365 -1.6587  0.3110 -1.6538
56363SOL     OW75051   5.133   4.677   5.394  0.4279 -0.2075  0.0999
56363SOL    HW175052   5.061   4.666   5.457  0.7944 -0.6258  0.4564
56363SOL    HW275053   5.120   4.764   5.356 -0.7612 -0.6074 -0.4654
56364SOL     OW75054  10.049   8.014  11.455  0.7319 -0.0792  0.0905
56364SOL    HW175055   9.982   8.051  11.397  0.7269 -0.9550 -0.4845
56364SOL    HW275056  10.063   8.081  11.521  0.8528  1.0208 -1.0215
56365SOL     OW75057   2.160   5.906   9.890  0.3774  0.4364  0.4535
56365SOL    HW175058   2.238   5.876   9.843  0.3151  0.3947  0.3747
56365SOL    HW275059   2.087   5.863   9.844  0.2611  0.9545  0.1448
56366SOL     OW75060   4.072  11.694   3.033  0.2912 -0.0339 -0.1952
56366SOL    HW175061   4.074  11.599   3.023 -2.9816 -0.2339  0.1896
56366SOL    HW275062   4.153  11.724   2.990  1.6287 -2.9647  0.0347
56367SOL     OW75063   8.383   0.549   0.680  0.0472 -0.0320 -0.5250
56367SOL    HW175064   8.295   0.581   0.701 -0.9433 -1.5307 -2.1872
56367SOL    HW275065   8.403   0.487   0.750 -0.8186 -0.7173 -0.8702
56368SOL     OW75066  10.314   0.765  10.900  0.0441 -0.6420  0.0475
56368SOL    HW175067  10.236   0.817  10.882  0.8532  0.2184 -1.1189
56368SOL    HW275068  10.369   0.777  10.823  1.8428 -0.2920  1.3322
56369SOL     OW75069  11.143   7.068   5.003 -0.5290  0.0948 -0.4885
56369SOL    HW175070  11.061   7.075   4.954 -1.0960 -0.0073  0.4322
56369SOL    HW275071  11.187   7.151   4.987 -1.6923  0.9500  0.5564
56370SOL     OW75072   0.919  11.269   2.590  0.1628 -0.0663  0.2133
56370SOL    HW175073   0.955  11.231   2.511  0.2283  0.1858  0.1200
56370SOL    HW275074   0.984  11.252   2.658  1.0431  1.4433 -0.2068
56371SOL     OW75075  10.465  11.572   4.754 -0.0524 -0.1512  0.3865
56371SOL    HW175076  10.510  11.487   4.751  0.6530  0.2596 -1.4140
56371SOL    HW275077  10.376  11.550   4.782  0.0690 -1.5191 -0.2013
56372SOL     OW75078   1.193   9.294   6.992  0.0818 -0.3647 -0.0617
56372SOL    HW175079   1.147   9.221   7.033  0.0793  0.0937  0.7656
56372SOL    HW275080   1.209   9.264   6.903  2.0169 -2.2648  0.8422
56373SOL     OW75081   8.735   7.104  11.148 -0.5745 -0.4171 -0.3111
56373SOL    HW175082   8.826   7.135  11.158 -1.3194  1.5576  1.1513
56373SOL    HW275083   8.734   7.020  11.193  0.5784 -0.5596 -0.5082
56374SOL     OW75084   8.526   7.915   5.778 -0.0377 -0.3442 -0.5232
56374SOL    HW175085   8.548   7.880   5.865  0.2743 -0.9601 -0.8487
56374SOL    HW275086   8.607   7.908   5.728 -0.1120  0.3689 -0.7560
56375SOL     OW75087  11.980  10.474   4.696  0.0319  0.1530  0.4471
56375SOL    HW175088  11.911  10.515   4.748  0.3087  0.2015  0.7809
56375SOL    HW275089  11.998  10.391   4.740 -0.8558 -0.5704 -0.4901
56376SOL     OW75090   6.062  11.456   5.086 -0.0675  0.1100  0.1092
56376SOL    HW175091   5.992  11.436   5.024 -0.7495  0.2369  0.8178
56376SOL    HW275092   6.039  11.405   5.164 -0.0615  1.1242  0.7950
56377SOL     OW75093   0.841   9.235   4.021 -0.0087  0.1820  0.0815
56377SOL    HW175094   0.771   9.296   4.045 -1.2379 -1.0724 -0.2261
56377SOL    HW275095   0.878   9.272   3.941 -2.4010 -0.6899 -1.5476
56378SOL     OW75096   3.920  11.442   0.606  0.6034 -0.9251  0.0106
56378SOL    HW175097   3.941  11.355   0.570  0.7892 -0.5993 -0.6767
56378SOL    HW275098   3.987  11.500   0.570 -0.3374 -0.2286 -0.6830
56379SOL     OW75099  11.730   9.718  10.981  0.0966 -0.4555 -0.2936
56379SOL    HW175100  11.640   9.711  10.949 -0.1728  0.6629  0.1711
56379SOL    HW275101  11.730   9.796  11.037  1.7068  0.4638 -1.4909
56380SOL     OW75102  11.664   0.279  12.039 -0.0519 -0.1745  0.1604
56380SOL    HW175103  11.591   0.230  12.078 -1.4256  0.8963 -0.9543
56380SOL    HW275104  11.672   0.244  11.950 -1.1428  1.6196 -0.7007
56381SOL     OW75105  11.602   1.373   6.319 -0.0480  0.3870  0.3562
56381SOL    HW175106  11.692   1.379   6.288  0.2273  0.7811  1.2165
56381SOL    HW275107  11.600   1.293   6.372 -0.4824 -0.2141 -0.5446
56382SOL     OW75108   6.144   6.221   8.973 -0.0316  0.6530  0.3704
56382SOL    HW175109   6.186   6.140   8.944  0.5876  1.3388 -0.7020
56382SOL    HW275110   6.127   6.207   9.067 -0.6182 -0.9944  0.0580
56383SOL     OW75111   6.822   6.221   5.482  0.3566  0.2122  0.4236
56383SOL    HW175112   6.750   6.179   5.529 -0.7343  1.3126 -0.2012
56383SOL    HW275113   6.900   6.175   5.512 -0.5111 -0.4777  1.7473
56384SOL     OW75114  10.936  12.284   4.590 -0.2816 -0.4356 -0.4215
56384SOL    HW175115  10.990  12.242   4.523  0.4298 -1.2959  0.6473
56384SOL    HW275116  10.975  12.371   4.601 -0.9324  0.0445 -1.6956
56385SOL     OW75117  11.382   3.550  10.033  0.2814 -0.2384  0.5774
56385SOL    HW175118  11.476   3.570  10.029  0.5721 -1.6452 -0.0607
56385SOL    HW275119  11.340   3.620   9.983  1.3231 -1.4298 -2.1406
56386SOL     OW75120   1.968   9.949   9.235 -0.2163  0.0006 -0.1145
56386SOL    HW175121   1.905   9.877   9.243  0.2396 -0.4763 -0.7335
56386SOL    HW275122   1.913  10.027   9.227 -0.8215 -0.5895 -2.5841
56387SOL     OW75123  11.562   1.713  11.736  0.4017  0.6984  0.9155
56387SOL    HW175124  11.471   1.684  11.744  1.0265 -1.4229  1.0606
56387SOL    HW275125  11.588   1.736  11.825  0.4886 -0.3711  1.1822
56388SOL     OW75126   9.736   8.468   7.469  0.0453  0.4858 -0.0481
56388SOL    HW175127   9.648   8.445   7.496 -0.5175  2.1184 -0.3932
56388SOL    HW275128   9.753   8.553   7.509  1.0916  0.6402 -0.7577
56389SOL     OW75129  11.391   7.852   9.964 -0.7195 -0.4341 -0.2065
56389SOL    HW175130  11.338   7.931   9.952  1.7947  1.2738 -1.1061
56389SOL    HW275131  11.449   7.873  10.038  0.4322 -1.1357 -0.8753
56390SOL     OW75132   3.959  10.762   8.023 -0.3322  0.1111  0.3812
56390SOL    HW175133   3.951  10.746   8.117  2.5645  1.3000  0.9365
56390SOL    HW275134   4.000  10.682   7.989 -1.9205 -0.5615 -0.0303
56391SOL     OW75135   6.822   0.157   9.627 -0.4420 -0.0889  0.1486
56391SOL    HW175136   6.917   0.162   9.630 -0.4098  0.5617 -1.2563
56391SOL    HW275137   6.799   0.186   9.539 -1.8691 -1.5874 -0.0149
56392SOL     OW75138   8.748  10.011   2.760  0.6081 -0.5443 -0.5057
56392SOL    HW175139   8.685  10.050   2.820 -0.6091 -1.3854 -1.1967
56392SOL    HW275140   8.749  10.069   2.684 -0.0477 -1.0233 -0.8870
56393SOL     OW75141   6.162   9.831   7.929  0.4940 -0.2490 -0.8537
56393SOL    HW175142   6.180   9.755   7.985  1.3320  1.6878  1.6935
56393SOL    HW275143   6.069   9.824   7.909  0.3720 -1.5104  0.0311
56394SOL     OW75144  11.534   1.356   7.524  0.1000 -0.1120 -0.3219
56394SOL    HW175145  11.617   1.399   7.544  0.0502  1.1049 -2.3543
56394SOL    HW275146  11.553   1.304   7.446 -0.7841 -0.6738 -0.1669
56395SOL     OW75147   6.029   9.200   7.625 -0.0680 -0.6935  0.1926
56395SOL    HW175148   6.083   9.221   7.549 -0.7265  0.1467 -0.0572
56395SOL    HW275149   6.079   9.233   7.700 -0.2813  0.2009 -0.0476
56396SOL     OW75150  10.338   2.463   0.499 -0.4189 -0.4794 -0.4011
56396SOL    HW175151  10.370   2.375   0.479  0.0420 -0.4138  0.0351
56396SOL    HW275152  10.305   2.457   0.588 -0.7787 -0.3104 -0.5204
56397SOL     OW75153   3.570   8.710   0.231 -0.2733 -0.5525  0.2858
56397SOL    HW175154   3.546   8.773   0.163 -0.5378 -0.1755  0.7269
56397SOL    HW275155   3.488   8.689   0.276 -0.5449 -2.6364 -1.0116
56398SOL     OW75156  11.006   0.561   7.778 -0.0615  0.3773  0.3975
56398SOL    HW175157  11.038   0.621   7.845  1.8759  0.9294 -0.9336
56398SOL    HW275158  11.011   0.475   7.819  1.2517  0.6831  0.9410
56399SOL     OW75159   5.831   4.985  10.649 -0.0980 -0.8415 -0.4013
56399SOL    HW175160   5.907   4.958  10.700 -0.9058  0.0989  1.3893
56399SOL    HW275161   5.865   4.998  10.561  1.1514 -3.5291 -0.4282
56400SOL     OW75162  12.294  12.192   7.485  0.7623  0.5707  0.0068
56400SOL    HW175163  12.245  12.151   7.414  1.7042 -1.9403  0.6865
56400SOL    HW275164  12.382  12.205   7.449  0.6743  1.3704  0.0494
56401SOL     OW75165   1.956   0.119   2.523 -0.0482 -0.8064 -0.0277
56401SOL    HW175166   1.968   0.211   2.500  0.5071 -0.4018  1.7240
56401SOL    HW275167   1.864   0.111   2.547 -0.2143 -0.8318 -0.6648
56402SOL     OW75168   6.497   8.806   3.958 -0.3846 -0.2553 -0.0998
56402SOL    HW175169   6.454   8.773   4.037  1.4059  0.0975  1.0868
56402SOL    HW275170   6.579   8.844   3.990  0.8129 -0.9072 -2.2305
56403SOL     OW75171   1.312   6.688   8.005 -0.3654  0.0876  0.1536
56403SOL    HW175172   1.298   6.594   8.022 -2.3147  0.6789  2.5343
56403SOL    HW275173   1.390   6.710   8.055  1.8026 -0.7198 -2.6739
56404SOL     OW75174   8.183   8.410   9.772 -0.6971 -0.3607  0.3143
56404SOL    HW175175   8.244   8.367   9.832 -0.1094  0.3706  0.2592
56404SOL    HW275176   8.099   8.368   9.788 -0.6611  0.1738  2.0157
56405SOL     OW75177   8.196   3.133   7.034  0.2140  0.3568 -0.1495
56405SOL    HW175178   8.287   3.103   7.039  0.0728 -1.2902 -4.0830
56405SOL    HW275179   8.203   3.228   7.021  1.2526  0.4316  0.7817
56406SOL     OW75180   5.801   8.362  11.392 -0.4960  0.4456  0.8644
56406SOL    HW175181   5.707   8.355  11.380 -0.2162 -1.0335 -0.6947
56406SOL    HW275182   5.827   8.278  11.430  0.3870  0.2246 -0.1852
56407SOL     OW75183   6.671   8.296   6.032 -0.2903  0.9724  0.2705
56407SOL    HW175184   6.693   8.341   6.114 -0.5265  1.7361 -0.0766
56407SOL    HW275185   6.600   8.236   6.057 -0.3138  1.1492  0.6419
56408SOL     OW75186   2.001   2.476   6.820 -0.2157 -0.5559  0.0489
56408SOL    HW175187   1.909   2.468   6.793 -0.1013  0.0985 -0.5497
56408SOL    HW275188   2.049   2.419   6.761 -0.0744  0.1737 -0.5488
56409SOL     OW75189  10.549   7.854   9.508 -0.6128  0.0955 -0.2309
56409SOL    HW175190  10.565   7.801   9.430  0.3193 -1.2140  0.8035
56409SOL    HW275191  10.632   7.898   9.525 -0.3452 -0.8184  0.8814
56410SOL     OW75192   6.952   1.559   2.620 -0.2319  0.4797 -0.1340
56410SOL    HW175193   7.026   1.514   2.578  0.9058  0.0257  2.1952
56410SOL    HW275194   6.878   1.543   2.561  0.7803 -1.9620 -0.8897
56411SOL     OW75195   9.735   1.595   5.415  0.4753  0.3072 -0.2042
56411SOL    HW175196   9.653   1.642   5.403 -0.0415 -0.6175 -0.4582
56411SOL    HW275197   9.791   1.624   5.343 -0.5174 -0.8464 -1.5116
56412SOL     OW75198   8.529   1.939   2.106  0.1471  0.4869  0.5921
56412SOL    HW175199   8.566   2.011   2.158 -0.0638  0.1914  1.1549
56412SOL    HW275200   8.605   1.891   2.075  0.4106  2.1423 -1.5623
56413SOL     OW75201   8.015  10.525   3.413  0.4775 -0.0289 -0.6358
56413SOL    HW175202   7.999  10.609   3.454  0.4967  0.4199 -1.5216
56413SOL    HW275203   8.035  10.546   3.322  1.7379 -0.8914 -0.5884
56414SOL     OW75204   7.533   9.185   1.012  0.4189  0.2612  0.2379
56414SOL    HW175205   7.491   9.101   1.026 -1.8334  1.1335 -0.8513
56414SOL    HW275206   7.518   9.234   1.094 -1.5836  0.8904 -0.4663
56415SOL     OW75207   1.096   7.770   2.440 -0.2018  0.2934 -0.4975
56415SOL    HW175208   1.158   7.699   2.457 -0.4463 -0.3364 -2.0782
56415SOL    HW275209   1.075   7.762   2.347 -1.0788  1.7757 -0.4617
56416SOL     OW75210   5.849   6.692   8.433 -0.0417 -0.8793  0.3978
56416SOL    HW175211   5.889   6.613   8.469  1.0983 -0.0700  0.9649
56416SOL    HW275212   5.867   6.760   8.497 -0.8701 -0.1109 -0.1567
56417SOL     OW75213   5.170  10.664  10.927  0.1663  0.6083 -0.0928
56417SOL    HW175214   5.135  10.629  11.008  1.3085 -1.0399 -0.2689
56417SOL    HW275215   5.104  10.726  10.896 -0.2938  1.2676  2.0597
56418SOL     OW75216   8.420   3.910   1.156  0.3218  0.3959 -0.2473
56418SOL    HW175217   8.426   3.886   1.248  2.2489  0.9473 -0.1897
56418SOL    HW275218   8.500   3.873   1.116 -0.0401  0.9148 -1.5119
56419SOL     OW75219   1.621   6.908   2.947 -0.2208  0.2354  0.1424
56419SOL    HW175220   1.597   6.816   2.937 -1.1494  0.5483 -0.6993
56419SOL    HW275221   1.579   6.935   3.028  1.2630 -0.4291  1.1866
56420SOL     OW75222   4.277   1.023   0.643 -0.1126  0.0852  0.2819
56420SOL    HW175223   4.239   1.013   0.555  0.1528  0.0785  0.1673
56420SOL    HW275224   4.286   1.118   0.654 -1.6685  0.1914  0.9586
56421SOL     OW75225   0.060   1.739   3.864 -0.3845  0.2111 -0.7355
56421SOL    HW175226   0.080   1.715   3.773 -1.5976 -3.4591 -0.2025
56421SOL    HW275227   0.000   1.813   3.856 -0.1872  0.2029 -2.9362
56422SOL     OW75228   3.308   6.349   9.926  0.1366  0.0185 -0.3492
56422SOL    HW175229   3.325   6.255   9.912  0.0390  0.3439 -3.2671
56422SOL    HW275230   3.213   6.356   9.925  0.1599  0.2984 -1.6035
56423SOL     OW75231   5.858   9.501   2.500 -0.4671  0.1527  0.2370
56423SOL    HW175232   5.943   9.536   2.474 -0.0723 -2.5040 -2.7392
56423SOL    HW275233   5.868   9.478   2.592  2.9991 -2.2345 -0.5252
56424SOL     OW75234   8.809   9.009   9.230 -0.1388 -0.3149 -0.2623
56424SOL    HW175235   8.877   8.941   9.225 -0.0394 -0.1954 -0.5482
56424SOL    HW275236   8.729   8.964   9.204  0.4399  0.4038 -3.7377
56425SOL     OW75237   6.054   6.163   4.515  0.3706  0.0425 -0.5227
56425SOL    HW175238   5.983   6.111   4.477  1.6230 -1.9924 -0.2251
56425SOL    HW275239   6.028   6.175   4.607 -0.1946  0.4775 -0.7306
56426SOL     OW75240   2.241  11.693   7.727  0.1905  0.1707  0.2250
56426SOL    HW175241   2.230  11.674   7.821 -0.6174 -1.8936 -0.2223
56426SOL    HW275242   2.155  11.672   7.689  0.1052  2.1916 -0.8432
56427SOL     OW75243   1.433   6.683  10.446 -0.3118 -0.0811 -0.3452
56427SOL    HW175244   1.396   6.595  10.450 -0.1635 -0.1276 -0.0186
56427SOL    HW275245   1.527   6.669  10.444 -0.2999  0.0300 -1.3492
56428SOL     OW75246   9.423  11.830   1.037  0.3574  0.1225  0.1233
56428SOL    HW175247   9.370  11.783   0.972 -1.1611 -0.1207  1.4782
56428SOL    HW275248   9.432  11.767   1.109 -0.8936  1.5088  1.5655
56429SOL     OW75249   7.258   2.757   1.361 -0.5841  0.2094  0.1058
56429SOL    HW175250   7.172   2.715   1.370 -0.2719 -0.0713  2.6172
56429SOL    HW275251   7.318   2.685   1.342 -0.5414 -0.0295  1.0782
56430SOL     OW75252   9.009   5.196  10.784  0.3345 -0.3476 -0.7610
56430SOL    HW175253   9.094   5.238  10.789 -1.0860  2.6725  1.0461
56430SOL    HW275254   8.951   5.262  10.746 -1.4889 -1.7498 -0.5663
56431SOL     OW75255   0.433   6.323   7.689 -0.0042 -0.6800  0.2845
56431SOL    HW175256   0.518   6.364   7.700 -0.5620  0.3713  0.8927
56431SOL    HW275257   0.445   6.234   7.723  0.6949 -0.3545  0.9232
56432SOL     OW75258   5.966   5.953  12.086 -0.0921  0.0883  0.4654
56432SOL    HW175259   5.930   5.865  12.093 -1.8902  0.7577  0.3990
56432SOL    HW275260   5.989   5.978  12.175 -0.6067 -0.0609  0.6426
56433SOL     OW75261  10.301   4.435   1.209  0.1755 -0.1231 -0.1106
56433SOL    HW175262  10.358   4.361   1.228 -1.7953 -1.4275  0.9707
56433SOL    HW275263  10.298   4.438   1.113  0.3206 -1.4130 -0.1736
56434SOL     OW75264  10.476  12.358   2.284 -0.4145 -0.0906  1.1603
56434SOL    HW175265  10.483  12.265   2.263 -3.4553  0.0251 -1.1525
56434SOL    HW275266  10.398  12.364   2.339 -1.2739  1.1896 -0.1318
56435SOL     OW75267   5.404  10.420   4.802 -0.0231  0.6664  0.6246
56435SOL    HW175268   5.344  10.349   4.781  0.2292  0.6443 -0.0488
56435SOL    HW275269   5.439  10.447   4.718  2.2845 -0.5048  1.1508
56436SOL     OW75270   5.990  10.757   2.341 -0.6929 -0.4942  0.1109
56436SOL    HW175271   6.008  10.738   2.249 -0.1670 -1.3050  0.3731
56436SOL    HW275272   6.041  10.835   2.360  0.5348 -1.2878  0.1513
56437SOL     OW75273   7.213   2.314   1.422 -0.1744  0.3728  0.3379
56437SOL    HW175274   7.307   2.330   1.413 -0.1031  2.0016  2.8842
56437SOL    HW275275   7.201   2.225   1.389  2.0173  0.5365 -1.1818
56438SOL     OW75276   6.124  10.110   0.880 -0.2386  0.3381 -0.1025
56438SOL    HW175277   6.148  10.069   0.797 -1.4500 -1.0987  0.2143
56438SOL    HW275278   6.057  10.174   0.856 -1.4162 -0.8662 -0.1415
56439SOL     OW75279   7.955   1.632   0.975  0.1842  0.2092  1.1477
56439SOL    HW175280   8.030   1.643   0.916 -0.6171 -1.0455 -0.1920
56439SOL    HW275281   7.943   1.718   1.014  0.5255  1.2403 -0.8529
56440SOL     OW75282   9.608  11.621   2.604  0.2720  0.4468  0.0388
56440SOL    HW175283   9.527  11.648   2.560  0.7580 -0.1299 -1.2699
56440SOL    HW275284   9.645  11.702   2.638 -0.5470  0.7962  0.1267
56441SOL     OW75285   0.649   4.478   9.330  0.4000  0.4038  0.0299
56441SOL    HW175286   0.658   4.539   9.403 -0.5480 -1.0641  1.4394
56441SOL    HW275287   0.740   4.461   9.302  0.7264  1.5749  0.3344
56442SOL     OW75288   1.269   7.180   4.514 -0.1402  0.1711  0.3279
56442SOL    HW175289   1.298   7.263   4.476  0.0176 -0.1942 -0.3625
56442SOL    HW275290   1.218   7.138   4.445  1.5717 -1.2850 -0.1535
56443SOL     OW75291  11.700   9.161   7.353 -0.4957 -0.3728  0.0284
56443SOL    HW175292  11.769   9.205   7.304  0.3682 -0.1491  1.3957
56443SOL    HW275293  11.736   9.074   7.371 -1.6886 -1.2651 -1.5700
56444SOL     OW75294   1.223   4.034   5.772  0.0987  0.4729 -0.2287
56444SOL    HW175295   1.301   4.036   5.718  0.2685  1.1058  0.0303
56444SOL    HW275296   1.236   3.960   5.830  0.4055  0.4395 -0.3382
56445SOL     OW75297   1.843  12.056   4.039  0.1946 -0.1000  0.3041
56445SOL    HW175298   1.870  11.967   4.018  1.8187  0.3762  0.2105
56445SOL    HW275299   1.748  12.056   4.026  0.2463 -1.6348 -0.3206
56446SOL     OW75300   0.507   5.873  11.176  0.0083  0.3609  0.0735
56446SOL    HW175301   0.513   5.962  11.142 -1.0769  1.0095  1.5029
56446SOL    HW275302   0.517   5.882  11.271 -2.4891 -0.7116  0.5274
56447SOL     OW75303   4.695   0.783   7.542 -0.4543  0.7804  0.4820
56447SOL    HW175304   4.671   0.831   7.622 -0.2093  1.0863  0.3729
56447SOL    HW275305   4.678   0.691   7.564 -1.2063  0.9402  0.5908
56448SOL     OW75306   4.331  10.527   9.770 -0.2207 -0.3156 -0.5179
56448SOL    HW175307   4.239  10.504   9.788 -0.4702 -0.9518 -2.3049
56448SOL    HW275308   4.381  10.480   9.836 -1.0501 -2.2686 -1.1920
56449SOL     OW75309   8.293   7.033   9.425  0.4976  0.2602 -0.1736
56449SOL    HW175310   8.314   7.079   9.506 -0.9502 -1.1194  1.0498
56449SOL    HW275311   8.214   6.983   9.445  0.0624 -0.1102 -2.4558
56450SOL     OW75312   9.407   9.314  10.192  0.2735  0.7061 -0.0482
56450SOL    HW175313   9.361   9.344  10.270  1.6810 -2.4128  2.1797
56450SOL    HW275314   9.342   9.260  10.146  0.7943 -1.6182  1.7648
56451SOL     OW75315   1.766   2.966   9.914 -0.1478  0.5684 -0.0039
56451SOL    HW175316   1.850   3.010   9.933  0.1593  0.3402 -0.8147
56451SOL    HW275317   1.785   2.873   9.927 -0.0160  0.4330 -1.0777
56452SOL     OW75318  12.328   0.773   8.247  0.1530  0.6619 -0.0568
56452SOL    HW175319  12.414   0.748   8.216 -0.6086 -1.0782 -0.9140
56452SOL    HW275320  12.321   0.867   8.227  2.4606  1.2548  1.6376
56453SOL     OW75321   1.237  12.007   0.567 -0.0793  0.0258  0.2181
56453SOL    HW175322   1.153  11.982   0.528  0.1413 -1.2795  0.5485
56453SOL    HW275323   1.284  11.924   0.578  1.3192  0.7545 -0.0976
56454SOL     OW75324   9.946   8.586  11.086 -0.0929  0.5349 -0.2659
56454SOL    HW175325   9.959   8.573  10.992 -2.5435  0.0973 -0.6068
56454SOL    HW275326   9.977   8.504  11.125  1.0851  0.7772 -0.6485
56455SOL     OW75327   7.123   3.827   5.031  0.1035 -0.1236 -0.2165
56455SOL    HW175328   7.208   3.808   4.990  1.8357  2.8662  1.5750
56455SOL    HW275329   7.097   3.911   4.994  0.7898  1.7402  3.1262
56456SOL     OW75330   1.471   9.488   0.382  0.2941 -0.6357 -0.5560
56456SOL    HW175331   1.513   9.483   0.468 -0.0452  1.0919 -0.2453
56456SOL    HW275332   1.544   9.480   0.320  0.7419 -0.3771 -0.0734
56457SOL     OW75333   1.499   5.689   0.567  0.1864  0.0965  0.0604
56457SOL    HW175334   1.579   5.738   0.584 -0.2221  0.7804  0.0603
56457SOL    HW275335   1.433   5.731   0.622 -0.7842  1.2912 -1.9107
56458SOL     OW75336  10.970   5.075   6.514 -0.2073 -0.1160  0.3486
56458SOL    HW175337  10.922   5.130   6.452 -0.3372 -0.6582 -0.0326
56458SOL    HW275338  10.907   5.057   6.584 -0.5497 -0.7802 -0.1227
56459SOL     OW75339  11.553   8.602   9.267  0.2168  1.0750 -0.7012
56459SOL    HW175340  11.550   8.596   9.171  0.6240  0.2060 -0.6721
56459SOL    HW275341  11.520   8.517   9.297 -1.0215  1.7705 -0.0423
56460SOL     OW75342   9.660   7.546   4.333 -0.0757 -0.0083 -0.0476
56460SOL    HW175343   9.745   7.584   4.356 -0.6748  1.8256 -0.7000
56460SOL    HW275344   9.674   7.506   4.247  0.2071  0.0778 -0.0422
56461SOL     OW75345   2.088   2.615  10.181  0.2991  0.3352  0.5591
56461SOL    HW175346   2.010   2.575  10.142  1.1334 -0.3371 -0.4631
56461SOL    HW275347   2.162   2.576  10.134  1.2806  0.6602  1.7771
56462SOL     OW75348  11.985   4.871   6.342  0.5958 -0.3871  0.2290
56462SOL    HW175349  12.060   4.815   6.357  0.7899 -0.8567 -2.0899
56462SOL    HW275350  11.916   4.811   6.312  0.0889  0.3262 -0.0583
56463SOL     OW75351   6.167   8.914   5.185  0.0661 -0.0937 -0.2537
56463SOL    HW175352   6.207   8.926   5.099 -1.5369 -0.7393 -1.1407
56463SOL    HW275353   6.174   8.820   5.202 -2.3370 -0.5147 -1.1600
56464SOL     OW75354   1.517   9.143   0.363 -0.3433 -0.2277  0.3950
56464SOL    HW175355   1.470   9.189   0.432  0.3582 -1.8799  2.0540
56464SOL    HW275356   1.609   9.154   0.385 -0.0951 -0.6171 -0.4067
56465SOL     OW75357   9.945   6.598  11.842 -0.3946 -0.1940  0.5257
56465SOL    HW175358   9.890   6.527  11.875 -0.6068  0.0183  0.6266
56465SOL    HW275359  10.034   6.567  11.855 -0.4745 -0.1501  1.2152
56466SOL     OW75360   4.865   9.382  11.880  0.7956  0.0692 -0.2359
56466SOL    HW175361   4.952   9.345  11.869  1.7278  2.1462 -0.2904
56466SOL    HW275362   4.852   9.437  11.802  1.7529  4.0294  2.1417
56467SOL     OW75363   4.299   6.773   0.405  0.2162  0.5207 -0.2235
56467SOL    HW175364   4.315   6.788   0.498  0.6990 -0.7779 -0.0790
56467SOL    HW275365   4.236   6.701   0.403  1.2644 -0.3968 -0.9040
56468SOL     OW75366   6.167   3.938  12.003 -0.1828  0.5039  0.3512
56468SOL    HW175367   6.199   3.970  11.919 -1.1328 -0.8423 -0.5654
56468SOL    HW275368   6.244   3.902  12.046 -0.0655 -0.9183 -0.9741
56469SOL     OW75369   2.844   2.957  10.074 -0.2236  0.6342 -0.2499
56469SOL    HW175370   2.842   2.898   9.998  0.5378  0.7394 -0.3525
56469SOL    HW275371   2.776   3.022  10.055  0.2607  0.9264 -1.0651
56470SOL     OW75372  12.138   0.054   5.881  0.0206  0.0184  0.0547
56470SOL    HW175373  12.150   0.149   5.888  1.6017 -0.1836  0.4792
56470SOL    HW275374  12.045   0.040   5.898 -0.5728  1.6170 -1.5437
56471SOL     OW75375   9.705   7.993   1.062 -0.5831  0.0681  0.2503
56471SOL    HW175376   9.719   8.035   0.977 -2.1447  1.7874  0.7835
56471SOL    HW275377   9.611   7.978   1.066 -0.4005 -0.9135  1.2932
56472SOL     OW75378   1.191   9.165   8.348  0.3879  0.2929  0.0625
56472SOL    HW175379   1.164   9.234   8.287  0.1601  0.9255  0.8490
56472SOL    HW275380   1.282   9.146   8.324  0.1926  0.2781 -0.6951
56473SOL     OW75381   3.688  10.401   6.325  0.0312 -0.4646 -0.3020
56473SOL    HW175382   3.764  10.457   6.341 -0.2070 -0.0917 -0.4533
56473SOL    HW275383   3.691  10.384   6.231  0.0067 -0.5679 -0.2839
56474SOL     OW75384   7.021   4.481   5.743  0.3416  0.1382 -0.1803
56474SOL    HW175385   7.093   4.493   5.805  0.3088  2.6110 -0.5414
56474SOL    HW275386   6.951   4.442   5.795  1.9866 -2.7940  0.0746
56475SOL     OW75387   1.197  11.647   2.557 -0.1361 -0.1772  0.1424
56475SOL    HW175388   1.235  11.562   2.582  0.9615  0.3130  0.1919
56475SOL    HW275389   1.134  11.625   2.489 -1.8470 -1.3373  1.9881
56476SOL     OW75390   0.278   8.375   6.507 -0.5808 -0.4493 -0.2791
56476SOL    HW175391   0.244   8.401   6.592  1.8170 -1.9538  1.2758
56476SOL    HW275392   0.229   8.295   6.485  0.9637 -1.9400  1.3713
56477SOL     OW75393   2.513   8.867  11.906 -0.3870  0.2131 -0.2471
56477SOL    HW175394   2.492   8.891  11.996 -0.0173  0.9285 -0.3440
56477SOL    HW275395   2.526   8.951  11.861 -0.5096 -0.1372 -0.9489
56478SOL     OW75396  12.185   3.294  12.221  0.4280 -0.0877  0.0633
56478SOL    HW175397  12.092   3.312  12.229  0.8298  2.1139  0.4420
56478SOL    HW275398  12.216   3.356  12.155  1.5014 -1.3671 -0.6935
56479SOL     OW75399   7.052   5.577   1.663  0.1465 -0.3268 -0.2982
56479SOL    HW175400   7.146   5.574   1.647  0.2545 -0.1914  0.2802
56479SOL    HW275401   7.042   5.549   1.754 -0.3609 -0.2456 -0.3259
56480SOL     OW75402  10.540   7.012   5.841 -0.3106  0.2965  0.3426
56480SOL    HW175403  10.623   6.980   5.876 -0.3904 -0.0934  0.1836
56480SOL    HW275404  10.557   7.104   5.819  0.4880 -0.1169 -0.9229
56481SOL     OW75405   9.151   8.857   6.491  0.0188  0.0165  0.1650
56481SOL    HW175406   9.166   8.847   6.585  1.1587 -0.0429 -0.0002
56481SOL    HW275407   9.067   8.901   6.484 -0.9755 -1.6231  1.1635
56482SOL     OW75408  10.884  10.773   8.204  0.2108  0.5873  0.4387
56482SOL    HW175409  10.918  10.804   8.288  0.7202  1.2265  0.0004
56482SOL    HW275410  10.790  10.761   8.219  0.6904 -2.1959  1.9780
56483SOL     OW75411   4.753   3.792   3.907  0.0965  0.4724  0.0429
56483SOL    HW175412   4.738   3.863   3.970  2.6879  0.6086  0.6403
56483SOL    HW275413   4.827   3.822   3.854  1.5885 -1.9019  0.6055
56484SOL     OW75414  10.008   7.537   3.678  0.3810  0.0702 -0.4083
56484SOL    HW175415   9.991   7.473   3.746  1.7641  0.8388  0.7143
56484SOL    HW275416  10.098   7.519   3.650  0.3021  0.6414 -1.0647
56485SOL     OW75417   9.755   9.010   2.154  0.4030 -0.0411 -0.4427
56485SOL    HW175418   9.682   8.968   2.199  0.2867  0.6024 -0.0137
56485SOL    HW275419   9.822   9.022   2.222  0.4408  0.4371 -0.5541
56486SOL     OW75420   2.075   1.135   8.931  0.3320  0.0628  0.2622
56486SOL    HW175421   2.051   1.063   8.872  1.6713  0.1294 -0.4003
56486SOL    HW275422   2.072   1.213   8.876  1.2924  0.1689  0.3319
56487SOL     OW75423  11.980   1.278  10.496 -0.0194  0.1896  0.3599
56487SOL    HW175424  11.924   1.342  10.452 -0.3472  0.1037  0.6454
56487SOL    HW275425  11.950   1.194  10.463  0.4326  0.1861 -0.0381
56488SOL     OW75426   2.745   6.927   0.982  0.1228 -0.0923  0.9172
56488SOL    HW175427   2.821   6.981   0.960 -0.2511  0.7268  1.5571
56488SOL    HW275428   2.770   6.882   1.063 -1.0487  2.3706  2.7762
56489SOL     OW75429   7.983   6.978  12.288  0.0911  0.4005  0.1109
56489SOL    HW175430   7.958   6.894  12.326  0.5385 -1.0251 -2.4869
56489SOL    HW275431   8.054   7.009  12.344 -0.7947 -0.3848  1.7538
56490SOL     OW75432   4.838   6.141   4.730  0.7789  0.0051  0.3651
56490SOL    HW175433   4.871   6.061   4.688 -0.3422  0.3752 -1.3177
56490SOL    HW275434   4.914   6.198   4.738  1.5214 -1.0659  1.2547
56491SOL     OW75435   1.838   3.239   7.523 -0.2010 -0.0674 -0.1018
56491SOL    HW175436   1.743   3.247   7.519 -0.1322  1.1702  0.2290
56491SOL    HW275437   1.868   3.325   7.553  1.0311 -0.3745 -0.3835
56492SOL     OW75438   6.227   0.819  11.310  0.5328 -0.0213 -0.2707
56492SOL    HW175439   6.175   0.796  11.388 -1.4254  0.9976 -1.1913
56492SOL    HW275440   6.315   0.835  11.344 -0.5047  1.5088  1.9437
56493SOL     OW75441  11.474   7.931   6.607 -0.2333  0.7096  0.4176
56493SOL    HW175442  11.414   7.887   6.547 -0.1477  1.3334 -0.1347
56493SOL    HW275443  11.504   7.862   6.667 -0.5426  0.1465 -0.0752
56494SOL     OW75444  12.270   0.564   3.439 -0.2033 -0.1068  0.1451
56494SOL    HW175445  12.260   0.658   3.451  0.0597  0.0864 -1.0230
56494SOL    HW275446  12.364   0.549   3.434 -0.2633 -0.1300 -1.6346
56495SOL     OW75447   5.075   6.646   1.731 -0.3259  0.7733  0.1726
56495SOL    HW175448   5.137   6.652   1.804  0.4521 -0.7060 -0.3234
56495SOL    HW275449   4.991   6.627   1.772  0.1481 -0.2961  0.6948
56496SOL     OW75450   3.157   2.561   3.191 -0.2102 -0.4570 -0.3184
56496SOL    HW175451   3.132   2.563   3.099 -0.4542 -0.1591 -0.2488
56496SOL    HW275452   3.141   2.650   3.222 -1.1579 -0.8262  0.2828
56497SOL     OW75453   0.923   6.242   8.309  0.3180  0.1716  0.6209
56497SOL    HW175454   0.894   6.155   8.282  0.3152 -0.1822  1.7383
56497SOL    HW275455   1.018   6.240   8.294 -0.0353  1.1646 -2.5676
56498SOL     OW75456   7.089   5.124   0.474 -0.1602  0.0342  0.5649
56498SOL    HW175457   7.029   5.092   0.542 -3.1592  0.5987 -1.5890
56498SOL    HW275458   7.078   5.219   0.475  0.4301  0.1179 -0.1171
56499SOL     OW75459   3.357   5.138   0.574 -0.2668  0.0444 -0.0162
56499SOL    HW175460   3.340   5.097   0.659  0.3467 -0.0843  0.0459
56499SOL    HW275461   3.270   5.157   0.539 -0.5097  0.7523  0.9568
56500SOL     OW75462   4.655  11.266   7.458 -0.3590 -0.2371 -0.0210
56500SOL    HW175463   4.702  11.226   7.531  0.4759  1.2679  0.2998
56500SOL    HW275464   4.714  11.334   7.426  0.0316 -1.9427 -3.2371
56501SOL     OW75465  10.301   6.017   5.587 -0.1573  0.4064  0.1809
56501SOL    HW175466  10.299   6.084   5.654 -2.1457  2.0496 -1.3758
56501SOL    HW275467  10.351   6.056   5.515 -2.1028  0.7367 -1.1041
56502SOL     OW75468  12.421  11.918   4.551  0.0808  0.1367 -0.0274
56502SOL    HW175469  12.475  11.987   4.513  1.2177 -0.1644  0.9832
56502SOL    HW275470  12.388  11.955   4.633  0.6134 -0.4549  0.4698
56503SOL     OW75471  10.337   2.207   4.242  0.2253 -0.2562  0.0806
56503SOL    HW175472  10.272   2.273   4.269  0.2982  0.2375 -0.9103
56503SOL    HW275473  10.309   2.127   4.286 -0.3417  0.2445  0.6517
56504SOL     OW75474   0.858   5.662  10.037  0.6068 -0.1401 -0.3559
56504SOL    HW175475   0.888   5.716   9.964  1.2046  0.9225  0.6310
56504SOL    HW275476   0.839   5.576   9.998  1.0346  0.3591 -1.7159
56505SOL     OW75477   2.943   6.278   6.326  0.0032  0.2194 -0.6272
56505SOL    HW175478   2.898   6.227   6.394 -0.0728 -0.2305 -1.0123
56505SOL    HW275479   3.035   6.253   6.335  0.3642  1.8848  0.8221
56506SOL     OW75480   0.149   7.919  12.209 -0.3836  0.0126 -0.1486
56506SOL    HW175481   0.179   7.875  12.130  1.6163  1.8646 -0.5276
56506SOL    HW275482   0.060   7.950  12.188  0.1094  0.4501 -1.6861
56507SOL     OW75483   4.776   6.367   5.607  0.0295  0.6642  0.7312
56507SOL    HW175484   4.844   6.416   5.654  1.4222  1.1675 -1.6714
56507SOL    HW275485   4.730   6.433   5.556  0.6624 -0.2404 -1.0663
56508SOL     OW75486   1.271  10.283   2.670 -0.2632  0.0905 -0.1051
56508SOL    HW175487   1.213  10.328   2.609 -1.3999 -0.1995  0.7339
56508SOL    HW275488   1.355  10.278   2.623 -1.5202 -1.6763 -2.3540
56509SOL     OW75489   9.439  10.879   8.704  0.3248  0.0147  0.0222
56509SOL    HW175490   9.486  10.817   8.761  0.9399  0.3192 -0.1442
56509SOL    HW275491   9.363  10.830   8.673 -0.0720 -0.1266  1.1746
56510SOL     OW75492   6.476   1.322   9.213  0.1374  0.3318 -0.1781
56510SOL    HW175493   6.498   1.407   9.250 -0.1303  0.4021 -0.1749
56510SOL    HW275494   6.412   1.285   9.275 -0.5879  0.6057 -0.7458
56511SOL     OW75495   9.416   1.727   7.250  0.0624  0.2610 -0.1489
56511SOL    HW175496   9.504   1.731   7.213  0.3898  1.3915  0.6935
56511SOL    HW275497   9.389   1.818   7.259 -1.2988 -0.0715 -0.6015
56512SOL     OW75498   0.901  11.106   3.551  0.5663  0.4147 -0.7291
56512SOL    HW175499   0.920  11.064   3.467 -0.1401  1.1459 -1.2680
56512SOL    HW275500   0.840  11.176   3.529  0.6757  0.8570  0.3484
56513SOL     OW75501   8.508   0.288   2.165 -0.1268  0.3276 -1.2823
56513SOL    HW175502   8.496   0.223   2.234  3.2609 -0.1260 -0.9323
56513SOL    HW275503   8.477   0.245   2.085  1.0602 -1.3552 -0.8828
56514SOL     OW75504   2.577   7.481   3.747 -0.2135  0.2192  0.1443
56514SOL    HW175505   2.508   7.461   3.809  1.4756 -0.6860  1.8177
56514SOL    HW275506   2.531   7.518   3.671 -2.4086  0.6459  1.5911
56515SOL     OW75507   8.046   2.554   3.703 -0.3643 -0.3634 -0.1140
56515SOL    HW175508   7.970   2.604   3.733  0.2151 -0.1264  0.9932
56515SOL    HW275509   8.071   2.501   3.779  0.9010 -0.0407 -0.2882
56516SOL     OW75510   9.951   5.208   1.634 -0.3751 -0.8137  0.1330
56516SOL    HW175511  10.041   5.242   1.642 -0.5327  0.5923 -2.6333
56516SOL    HW275512   9.962   5.122   1.593 -0.2727 -0.0811 -1.4561
56517SOL     OW75513   6.565   1.306   7.555 -0.4200  0.2775  0.2856
56517SOL    HW175514   6.527   1.269   7.475 -1.4643 -0.0453  0.9059
56517SOL    HW275515   6.649   1.262   7.564 -1.9340 -2.6655  1.4277
56518SOL     OW75516  10.174   3.333   8.406 -0.0193  0.4383  0.0881
56518SOL    HW175517  10.176   3.404   8.341 -0.0058  1.1217  0.8171
56518SOL    HW275518  10.087   3.295   8.396 -0.6633  1.6518  0.8113
56519SOL     OW75519   0.838  10.744  11.377  0.6491 -0.1682 -0.6322
56519SOL    HW175520   0.813  10.698  11.457 -1.6153 -0.6422 -1.5332
56519SOL    HW275521   0.861  10.675  11.315 -0.8351 -0.0278 -1.3770
56520SOL     OW75522   6.568   7.173   5.599  0.1209  0.1353 -0.2859
56520SOL    HW175523   6.547   7.203   5.688  3.9185  0.4137  0.7146
56520SOL    HW275524   6.595   7.082   5.610 -0.3775 -0.1637 -1.3804
56521SOL     OW75525   9.217   8.645  12.383 -0.1320 -0.1081 -0.3693
56521SOL    HW175526   9.247   8.690  12.462 -1.3981  0.4256 -0.1616
56521SOL    HW275527   9.129   8.615  12.405  0.1249 -1.4101 -1.0248
56522SOL     OW75528   9.011   2.409   7.767  0.3219 -0.0661 -0.3947
56522SOL    HW175529   8.927   2.442   7.736 -0.0636  0.6160  1.3143
56522SOL    HW275530   9.067   2.487   7.771  0.7274 -0.3490 -0.5335
56523SOL     OW75531   9.204   8.600   4.663 -0.0109 -0.2486 -0.0060
56523SOL    HW175532   9.291   8.639   4.659 -0.5800  0.9532 -2.5618
56523SOL    HW275533   9.187   8.570   4.573 -0.8681 -3.6869  1.1560
56524SOL     OW75534   8.332   0.487   4.514  0.3050 -0.4047 -0.3737
56524SOL    HW175535   8.390   0.473   4.439 -0.2384 -0.2531 -0.8239
56524SOL    HW275536   8.245   0.502   4.476 -0.0218 -0.5503  0.2897
56525SOL     OW75537   1.947   9.225  11.186  0.1386  0.1671 -0.0047
56525SOL    HW175538   1.985   9.259  11.267 -0.0446  0.5321 -0.0679
56525SOL    HW275539   1.946   9.300  11.127 -0.9456  0.2434  0.0935
56526SOL     OW75540   0.554   3.230   8.212  0.0127  0.4462  0.5821
56526SOL    HW175541   0.513   3.171   8.276 -1.6363  2.4535  1.4630
56526SOL    HW275542   0.644   3.241   8.244  0.8896 -2.6054 -0.3933
56527SOL     OW75543  11.072  10.043   2.113  0.2747 -0.2047  0.6075
56527SOL    HW175544  11.141   9.976   2.110  0.1032 -0.3552 -1.0791
56527SOL    HW275545  10.995   9.999   2.075 -1.1263 -0.3778  3.3768
56528SOL     OW75546   1.130  12.174   1.806  0.0128 -0.1059 -0.3198
56528SOL    HW175547   1.222  12.164   1.830 -0.6294 -2.2661  1.6073
56528SOL    HW275548   1.117  12.268   1.799  2.1216  0.2886  0.3779
56529SOL     OW75549   0.002   0.604  12.475 -0.3339  0.5103  0.6560
56529SOL    HW175550  -0.032   0.600  12.565 -1.4228 -0.0061  0.2311
56529SOL    HW275551   0.082   0.656  12.483 -1.0551  1.5205  1.7434
56530SOL     OW75552   2.359   9.746   8.373  0.2581  0.0448  0.1938
56530SOL    HW175553   2.359   9.813   8.443  0.6229  1.2354 -0.9111
56530SOL    HW275554   2.419   9.679   8.405  0.6728  0.7207  0.8983
56531SOL     OW75555   8.807  10.550   1.554 -0.0399  0.6982 -0.2662
56531SOL    HW175556   8.810  10.456   1.576 -1.5174  0.2538 -1.7507
56531SOL    HW275557   8.871  10.590   1.613  0.0254 -1.1185  1.0006
56532SOL     OW75558   8.548   5.768   3.015  0.0899 -0.1929 -0.2470
56532SOL    HW175559   8.612   5.704   2.984 -0.1945 -1.4178  1.5148
56532SOL    HW275560   8.601   5.844   3.042  0.3835  0.6460 -2.8856
56533SOL     OW75561  10.912  10.251   1.961 -0.5513 -0.1150 -0.4050
56533SOL    HW175562  10.869  10.315   2.018 -0.0485 -0.4330  0.3459
56533SOL    HW275563  10.984  10.217   2.013  0.0078 -0.3174 -1.2912
56534SOL     OW75564  11.056   9.731   5.964 -0.4405 -0.3410 -0.1457
56534SOL    HW175565  11.146   9.699   5.972 -0.5003 -0.8153 -1.2824
56534SOL    HW275566  11.017   9.711   6.049  0.9289  1.2154  0.9095
56535SOL     OW75567   6.579   0.689   2.915 -0.5803 -0.4011  0.1608
56535SOL    HW175568   6.484   0.699   2.909 -0.5430  0.0833  0.3174
56535SOL    HW275569   6.614   0.773   2.884 -0.0815 -1.7328 -3.2029
56536SOL     OW75570   6.507  12.064   0.630 -0.1972  0.0483  0.0221
56536SOL    HW175571   6.492  12.103   0.716  1.2034  0.6662  0.0115
56536SOL    HW275572   6.436  12.098   0.575  0.2654  1.5806  0.3436
56537SOL     OW75573   5.039  10.540   4.242 -0.3455 -0.4116 -0.1423
56537SOL    HW175574   5.040  10.467   4.180 -0.2446  0.7350 -1.5475
56537SOL    HW275575   4.987  10.608   4.198  1.1752  1.0744  0.2567
56538SOL     OW75576   6.265   6.431  10.436 -0.4914 -0.3656 -0.0228
56538SOL    HW175577   6.266   6.506  10.377 -0.7037  0.0156  0.4603
56538SOL    HW275578   6.318   6.458  10.511  0.6764 -1.2337 -0.5048
56539SOL     OW75579   0.949   3.385   7.977 -0.3565 -0.2471 -0.3505
56539SOL    HW175580   0.984   3.468   8.012  1.1748 -0.7300 -0.6547
56539SOL    HW275581   0.950   3.397   7.882  2.7767 -1.6234 -0.6079
56540SOL     OW75582   1.863   7.591   7.474  0.3327  0.4233 -0.4072
56540SOL    HW175583   1.858   7.580   7.379 -1.9708  1.2926 -0.4660
56540SOL    HW275584   1.827   7.509   7.509  0.1740  0.5241 -0.3312
56541SOL     OW75585   9.350   7.229   5.446  0.0784  0.3343  0.1557
56541SOL    HW175586   9.320   7.250   5.358  0.3195 -1.2327 -0.3231
56541SOL    HW275587   9.298   7.286   5.503 -0.9715  0.4816 -0.9136
56542SOL     OW75588   3.227  10.052   0.839  0.0141 -0.3388 -0.3611
56542SOL    HW175589   3.257  10.007   0.760 -0.4357 -1.2005 -0.0486
56542SOL    HW275590   3.259   9.998   0.912 -0.9752 -0.4458  0.0082
56543SOL     OW75591   3.373   5.295   1.716 -0.1603  0.1292 -0.4852
56543SOL    HW175592   3.391   5.225   1.778 -1.2524  0.2900  0.0354
56543SOL    HW275593   3.329   5.362   1.767  1.6608  1.6295 -0.7664
56544SOL     OW75594   1.939   4.036  10.592 -0.2518 -0.1364 -0.1522
56544SOL    HW175595   1.906   4.099  10.528  0.5310  1.5588  1.0412
56544SOL    HW275596   1.916   3.951  10.555 -1.0130  0.8084 -2.0183
56545SOL     OW75597   4.198   4.771   8.879 -0.3266 -0.6706  0.3838
56545SOL    HW175598   4.198   4.747   8.786 -1.5606 -0.9936  0.4497
56545SOL    HW275599   4.287   4.803   8.895 -0.2995  0.1268 -1.0995
56546SOL     OW75600   7.775   0.205   8.413  0.2017  0.4361  0.3046
56546SOL    HW175601   7.776   0.259   8.491  2.2252 -0.7575  1.1964
56546SOL    HW275602   7.816   0.259   8.345  0.1359  0.8062  0.5591
56547SOL     OW75603   9.020   4.062   7.982 -0.1423  0.1297 -0.2090
56547SOL    HW175604   8.971   4.131   8.025  0.2555  0.2543  0.0569
56547SOL    HW275605   9.007   3.985   8.037 -0.6353 -0.0252 -0.5390
56548SOL     OW75606   5.419   9.233   7.078  0.0391 -0.1385  0.2411
56548SOL    HW175607   5.485   9.265   7.017 -0.4876 -0.6542 -0.6098
56548SOL    HW275608   5.335   9.244   7.033 -0.5189  0.8652  1.4495
56549SOL     OW75609  10.329   2.413   8.079  0.2157  0.5211  0.2430
56549SOL    HW175610  10.418   2.421   8.111  0.5780 -0.1964 -0.5552
56549SOL    HW275611  10.288   2.349   8.137 -0.2724  1.9849  1.5819
56550SOL     OW75612   2.201   1.900   0.661 -0.8337 -0.0368  0.2774
56550SOL    HW175613   2.176   1.884   0.570  0.5071  1.7412 -0.4572
56550SOL    HW275614   2.137   1.963   0.693 -0.0640  1.0075 -0.1643
56551SOL     OW75615   1.668   0.044   7.399  0.5214  0.5591  0.0534
56551SOL    HW175616   1.703   0.041   7.310 -0.7096 -1.5689 -0.4214
56551SOL    HW275617   1.731  -0.003   7.452 -0.9557 -2.4290 -0.6334
56552SOL     OW75618  12.438   6.370   4.606 -0.0486  0.0418 -0.1410
56552SOL    HW175619  12.388   6.376   4.524 -0.4176  0.6454  0.1134
56552SOL    HW275620  12.493   6.293   4.595 -0.1088  0.0978 -0.9490
56553SOL     OW75621  12.169   7.021   8.832  0.2310  0.2432 -0.2447
56553SOL    HW175622  12.255   7.010   8.872  0.3984 -0.6633 -0.8185
56553SOL    HW275623  12.128   7.092   8.881  0.5185 -0.6535  1.3385
56554SOL     OW75624   7.279   2.628  10.249 -0.0229 -0.7685 -0.0822
56554SOL    HW175625   7.277   2.647  10.343  0.6909 -1.9263  0.1867
56554SOL    HW275626   7.371   2.612  10.229 -0.2786 -1.4467 -0.7857
56555SOL     OW75627  12.351   5.373   7.691  0.1923  0.5020 -0.0855
56555SOL    HW175628  12.418   5.436   7.720  0.5967 -0.4370  1.1343
56555SOL    HW275629  12.387   5.288   7.715 -0.9443 -0.1080 -0.4740
56556SOL     OW75630  10.611   4.426   2.629  0.2383 -0.1079  0.3491
56556SOL    HW175631  10.680   4.486   2.599  0.8802 -0.1702  1.6257
56556SOL    HW275632  10.588   4.376   2.551 -1.2050  2.5843 -1.0759
56557SOL     OW75633   7.846   7.245   5.953 -0.0182 -0.0671  0.6841
56557SOL    HW175634   7.875   7.160   5.984  0.3161  0.5985  2.2618
56557SOL    HW275635   7.926   7.297   5.945 -0.2669  0.2522  0.1562
56558SOL     OW75636  10.468   8.081   2.797 -0.0311  0.1131 -0.5190
56558SOL    HW175637  10.429   8.105   2.880 -0.9211  2.1941 -1.4647
56558SOL    HW275638  10.405   8.023   2.755 -0.5319  0.7083 -0.5933
56559SOL     OW75639   1.395   9.262   3.604 -0.3399  0.2314  0.3662
56559SOL    HW175640   1.364   9.189   3.550  0.8619 -0.1465  0.1518
56559SOL    HW275641   1.317   9.293   3.649 -0.9224 -1.0339  0.2763
56560SOL     OW75642   1.584   1.119  12.442  0.2325 -0.2200  0.2990
56560SOL    HW175643   1.552   1.053  12.381  1.2081  0.7211 -1.2966
56560SOL    HW275644   1.669   1.085  12.472  1.1552  0.6583 -1.2070
56561SOL     OW75645   3.360   7.892   2.338  0.1236  0.2682 -0.4808
56561SOL    HW175646   3.427   7.840   2.382 -0.4311  0.5400  0.7420
56561SOL    HW275647   3.398   7.980   2.330 -0.3714  0.6620  1.0344
56562SOL     OW75648   4.813   9.846  10.515  0.6731  0.5325  0.1861
56562SOL    HW175649   4.827   9.752  10.514 -0.5901  0.3181  0.5290
56562SOL    HW275650   4.884   9.882  10.461  1.5280 -0.5478  0.5495
56563SOL     OW75651   1.728  11.262  10.567  0.7516  0.0300  0.6135
56563SOL    HW175652   1.721  11.331  10.501  0.7433 -1.3792 -0.9276
56563SOL    HW275653   1.657  11.280  10.629 -0.2185  0.5236 -0.6085
56564SOL     OW75654   2.978   4.697  10.013 -0.4426 -1.1598 -0.2819
56564SOL    HW175655   2.953   4.670  10.102  0.4550  0.5583  0.5486
56564SOL    HW275656   2.931   4.780   9.999  0.7968 -0.4985 -0.6826
56565SOL     OW75657   4.176   8.702  11.871 -0.6021 -0.2761 -0.3604
56565SOL    HW175658   4.212   8.646  11.802 -0.2914 -0.6701  0.1181
56565SOL    HW275659   4.108   8.649  11.912  0.5777 -0.8436  0.9694
56566SOL     OW75660   0.207   6.805   2.344  0.3606 -0.8554 -0.5204
56566SOL    HW175661   0.234   6.798   2.435 -2.2332  0.9164  0.5067
56566SOL    HW275662   0.237   6.891   2.316 -0.4141 -0.6525 -0.7444
56567SOL     OW75663   5.805   9.307  10.605  0.4848  0.1943  0.2478
56567SOL    HW175664   5.768   9.281  10.689 -0.3283 -0.3044 -0.2470
56567SOL    HW275665   5.848   9.228  10.573  1.3538  0.5655  0.4836
56568SOL     OW75666   3.245   7.995   5.944  0.1355 -0.3545 -0.2994
56568SOL    HW175667   3.224   8.011   5.852  2.3151 -1.5667 -1.0619
56568SOL    HW275668   3.244   7.900   5.953 -0.7989 -0.2448  1.1662
56569SOL     OW75669   4.441   6.504   1.657  0.0926 -0.0285 -0.0430
56569SOL    HW175670   4.454   6.440   1.587 -0.7035  0.5107 -0.7070
56569SOL    HW275671   4.431   6.587   1.611 -0.0342  0.3994  0.7394
56570SOL     OW75672   7.815   1.362   8.553  0.9017  0.0858 -0.2095
56570SOL    HW175673   7.818   1.322   8.466  0.0136 -0.0153 -0.2069
56570SOL    HW275674   7.725   1.395   8.561  1.4377  1.5453  0.0325
56571SOL     OW75675   1.200  10.499   0.505  0.2936 -0.5229 -0.3091
56571SOL    HW175676   1.122  10.457   0.541  0.4126 -1.8590 -1.5621
56571SOL    HW275677   1.207  10.467   0.415  0.8478  1.5742 -1.0891
56572SOL     OW75678  10.118   9.519  10.862  0.2190 -0.1276 -0.2208
56572SOL    HW175679  10.127   9.614  10.847  1.5803 -0.3748 -1.1669
56572SOL    HW275680  10.180   9.500  10.933  2.3499 -0.7581 -2.1333
56573SOL     OW75681   1.607   4.579   8.598  0.2229 -0.6301 -0.1552
56573SOL    HW175682   1.600   4.529   8.516 -0.9030 -1.1841  0.2500
56573SOL    HW275683   1.687   4.546   8.639  0.0938 -1.3109 -0.4249
56574SOL     OW75684  10.254   0.884   9.525 -0.1430  0.5310 -0.7526
56574SOL    HW175685  10.159   0.899   9.534 -0.4230 -0.8110 -1.1843
56574SOL    HW275686  10.278   0.838   9.605  0.5711  2.5507  0.2644
56575SOL     OW75687   8.364   3.384   1.630  0.5799 -0.0116  0.1140
56575SOL    HW175688   8.302   3.433   1.684  1.3298 -0.1686  1.1560
56575SOL    HW275689   8.355   3.422   1.543  0.6673  1.5681  0.7529
56576SOL     OW75690   8.932  10.881   3.943 -0.2615  0.1167  0.1496
56576SOL    HW175691   8.841  10.895   3.915 -0.2890 -1.3480 -0.5350
56576SOL    HW275692   8.941  10.937   4.021 -1.3603  1.2413 -0.4926
56577SOL     OW75693   6.206   5.588   0.209 -0.0688  0.1619 -0.3940
56577SOL    HW175694   6.170   5.531   0.142  1.4697 -0.3585 -0.7976
56577SOL    HW275695   6.152   5.667   0.204  0.1715  0.2437 -2.4336
56578SOL     OW75696   8.213   2.335   7.932 -0.4890 -0.2852 -0.6565
56578SOL    HW175697   8.257   2.373   8.008  0.6159 -0.8632 -0.9852
56578SOL    HW275698   8.159   2.265   7.968  0.1698 -0.6756 -0.4222
56579SOL     OW75699   5.791   6.020   9.847  0.6394  0.0508  0.8346
56579SOL    HW175700   5.781   5.957   9.776  0.1850  0.3165  0.6552
56579SOL    HW275701   5.885   6.037   9.851  0.7038 -0.2131  0.5143
56580SOL     OW75702  10.472   0.571   0.456  0.7379  0.6996 -0.1386
56580SOL    HW175703  10.512   0.487   0.434 -0.1107 -0.1003  1.2360
56580SOL    HW275704  10.384   0.550   0.485  0.5204  2.0594  0.2990
56581SOL     OW75705   4.768   1.066   9.482 -0.0150 -0.4731  0.2000
56581SOL    HW175706   4.831   1.128   9.445  0.0812 -0.9210 -0.4045
56581SOL    HW275707   4.792   1.059   9.574  1.0081 -0.8474 -0.0836
56582SOL     OW75708   7.622   5.169  11.926  0.1447 -0.3454  0.0665
56582SOL    HW175709   7.547   5.220  11.897 -0.7540 -1.4410  0.3996
56582SOL    HW275710   7.675   5.158  11.846 -0.6426 -0.5489 -0.4442
56583SOL     OW75711   6.605   4.915   7.632  0.0982  0.3172 -0.7257
56583SOL    HW175712   6.700   4.914   7.633  0.2283  0.6591 -3.6939
56583SOL    HW275713   6.582   5.008   7.636 -0.0488  0.2999 -1.1117
56584SOL     OW75714   9.162  10.301   4.815  0.7096  0.5992  0.1592
56584SOL    HW175715   9.132  10.251   4.739  1.4825  1.6955 -0.8921
56584SOL    HW275716   9.110  10.266   4.888 -0.7177  0.1542 -1.0168
56585SOL     OW75717   1.403   9.642   3.686 -0.2465 -0.7376  0.0992
56585SOL    HW175718   1.456   9.562   3.686  0.4927 -0.2547 -0.2009
56585SOL    HW275719   1.459   9.707   3.728 -0.3310 -0.0463 -0.8347
56586SOL     OW75720   3.097  11.347   7.329 -0.1668  0.5323  0.4929
56586SOL    HW175721   3.132  11.402   7.259  0.1437  0.4929  0.6158
56586SOL    HW275722   3.131  11.259   7.311  0.9080  0.7517  1.3577
56587SOL     OW75723   0.464   8.277   2.142  0.6027 -0.2877  0.2851
56587SOL    HW175724   0.520   8.264   2.219  0.3907  0.0915  0.5042
56587SOL    HW275725   0.477   8.369   2.118  0.0907 -0.2025  0.3216
56588SOL     OW75726   2.906   0.575   9.305  0.4238 -0.6808  0.2983
56588SOL    HW175727   2.835   0.534   9.353  0.5765  0.2415  1.3545
56588SOL    HW275728   2.976   0.510   9.305  0.0240 -1.1137  0.3435
56589SOL     OW75729   8.061  12.134   4.701  0.4952 -0.1936 -0.0818
56589SOL    HW175730   8.137  12.077   4.696  0.4893 -0.1709 -0.4606
56589SOL    HW275731   8.085  12.211   4.649  0.3133 -0.0739  0.0099
56590SOL     OW75732   1.127   4.888   0.831 -0.3023 -0.7343  0.1018
56590SOL    HW175733   1.036   4.891   0.803 -1.1597  1.0378  2.6960
56590SOL    HW275734   1.132   4.809   0.886 -0.3025 -0.7548  0.0728
56591SOL     OW75735   4.678   4.534   7.383  0.3323 -0.1823  0.1995
56591SOL    HW175736   4.693   4.586   7.462  0.3365 -2.0528  1.5030
56591SOL    HW275737   4.753   4.473   7.381 -0.7418 -1.5385 -0.0412
56592SOL     OW75738   0.141   9.804  12.479  0.0887 -0.6200 -0.2878
56592SOL    HW175739   0.159   9.776  12.568 -0.0829 -0.1990 -0.1182
56592SOL    HW275740   0.102   9.727  12.437 -0.9226 -0.4675  0.3397
56593SOL     OW75741   9.035   1.105   3.248 -0.7202  0.6621 -0.1054
56593SOL    HW175742   9.090   1.082   3.323  1.1062  1.3163 -1.1872
56593SOL    HW275743   8.957   1.050   3.258  0.3342 -0.6743  1.2232
56594SOL     OW75744   8.392   8.831   2.276 -0.5592 -0.3543 -0.3219
56594SOL    HW175745   8.423   8.861   2.362 -1.1759 -2.3709  0.6842
56594SOL    HW275746   8.298   8.814   2.290 -1.0558  0.9166 -1.9031
56595SOL     OW75747  10.263   5.550   9.848  0.1158 -0.7055 -0.2050
56595SOL    HW175748  10.338   5.585   9.799  0.2487  0.2304  0.6444
56595SOL    HW275749  10.265   5.596   9.931 -1.7265 -0.2751 -0.3724
56596SOL     OW75750   3.903   9.502  11.531  0.2998 -0.7652 -0.7262
56596SOL    HW175751   3.941   9.501  11.619  0.6792  0.4681 -0.8589
56596SOL    HW275752   3.867   9.414  11.519  0.6238 -1.0766  0.4938
56597SOL     OW75753   5.383   0.040   9.445  0.2065  0.3017  0.1229
56597SOL    HW175754   5.423  -0.037   9.484 -0.2741 -0.3616 -0.6704
56597SOL    HW275755   5.293   0.013   9.425  0.4487  0.6139 -1.4771
56598SOL     OW75756   8.619   4.175   8.171 -0.2142  0.6880  0.1373
56598SOL    HW175757   8.558   4.110   8.207  0.5504  0.2657  0.7034
56598SOL    HW275758   8.619   4.158   8.076 -0.8305  0.5783  0.1517
56599SOL     OW75759   6.012  10.125   5.869 -0.3665 -0.4162  0.3470
56599SOL    HW175760   6.087  10.153   5.816  2.1210 -0.8043  3.3971
56599SOL    HW275761   6.008  10.030   5.856  0.7140 -0.6134  1.3918
56600SOL     OW75762   8.404   4.733   9.920  0.2783  0.3220  0.0409
56600SOL    HW175763   8.497   4.751   9.933  0.5257 -0.6211 -0.3052
56600SOL    HW275764   8.401   4.638   9.905 -0.8593  0.1589  1.1791
56601SOL     OW75765   9.611   2.666   0.838 -1.1079  0.4957  0.2394
56601SOL    HW175766   9.688   2.616   0.812 -1.0139  1.6186 -1.8099
56601SOL    HW275767   9.602   2.649   0.932 -1.6982 -4.2257 -0.4036
56602SOL     OW75768  11.290   7.090   9.151  0.3937  0.1308  0.6111
56602SOL    HW175769  11.248   7.041   9.220 -2.0371  0.5850 -0.4411
56602SOL    HW275770  11.328   7.024   9.093 -0.3982 -0.3756  0.6687
56603SOL     OW75771   1.474   1.687   6.010 -0.2751 -0.1223 -0.0326
56603SOL    HW175772   1.405   1.749   6.034 -0.1103  0.2466 -0.4776
56603SOL    HW275773   1.539   1.695   6.079 -0.6492 -0.4299  0.3591
56604SOL     OW75774   4.994   3.013   3.310 -0.4301 -0.3779 -0.4835
56604SOL    HW175775   5.069   3.041   3.363  0.3576  2.6623 -2.9015
56604SOL    HW275776   5.017   2.925   3.280  1.4008 -0.1550  0.1392
56605SOL     OW75777   0.014   7.324   9.616  0.0322 -0.2092  0.1094
56605SOL    HW175778  -0.071   7.316   9.573  0.3421 -0.2253 -0.5033
56605SOL    HW275779   0.061   7.391   9.565  1.2235 -1.7723 -0.9402
56606SOL     OW75780   9.523   2.388  10.410 -0.3062 -0.6367 -0.4689
56606SOL    HW175781   9.495   2.475  10.380  0.2572 -0.1422  0.3764
56606SOL    HW275782   9.514   2.392  10.505  1.7294 -0.7427 -0.2189
56607SOL     OW75783   8.813  10.871   0.796 -0.2135 -0.1094 -0.5577
56607SOL    HW175784   8.810  10.791   0.848 -0.4109 -0.1036 -0.5615
56607SOL    HW275785   8.805  10.942   0.860 -0.1244 -0.0938 -0.5630
56608SOL     OW75786   4.402  12.334   4.328  0.5214 -0.1575  0.1842
56608SOL    HW175787   4.487  12.352   4.288  0.2992  1.7423  0.4761
56608SOL    HW275788   4.401  12.386   4.408 -0.0793 -1.8732  1.3345
56609SOL     OW75789  10.452   9.412  11.549  0.1809 -0.2252 -0.7317
56609SOL    HW175790  10.365   9.374  11.563  1.0216 -1.2197  2.7463
56609SOL    HW275791  10.478   9.445  11.635  2.6790  1.3681 -1.9949
56610SOL     OW75792   0.179  10.325   8.769 -0.5957  0.1265  0.5871
56610SOL    HW175793   0.224  10.280   8.841 -1.1003 -1.0534  0.2024
56610SOL    HW275794   0.151  10.408   8.806 -1.9431 -0.9650  2.1658
56611SOL     OW75795   8.381   8.281   8.535  0.0063 -0.0952 -0.5099
56611SOL    HW175796   8.469   8.257   8.562 -0.0252 -0.4889 -0.7456
56611SOL    HW275797   8.360   8.220   8.464 -0.5583 -0.1947 -0.2704
56612SOL     OW75798   3.470   1.331   2.408  0.0897 -0.1766  0.3000
56612SOL    HW175799   3.483   1.243   2.443 -0.4217 -1.3170 -2.1422
56612SOL    HW275800   3.383   1.356   2.439  0.1199 -0.6586  0.7863
56613SOL     OW75801   7.975   3.861   4.110  0.4790  0.3812  0.6800
56613SOL    HW175802   7.903   3.836   4.168  0.8882 -1.4762  0.4195
56613SOL    HW275803   8.007   3.943   4.148 -1.0015  0.6348  1.4801
56614SOL     OW75804   7.602   1.314  10.316 -0.4425 -0.6203  0.3533
56614SOL    HW175805   7.608   1.221  10.295 -0.2782 -0.3545 -0.7940
56614SOL    HW275806   7.529   1.346  10.263 -0.7498 -0.1699  1.0336
56615SOL     OW75807   4.728   4.208   3.964 -0.0295  0.5839 -1.2187
56615SOL    HW175808   4.746   4.265   4.038  3.4477 -2.6229  0.7571
56615SOL    HW275809   4.656   4.152   3.994 -0.5600  1.1339 -1.4508
56616SOL     OW75810   5.978  10.542  11.583 -0.1120  0.1052 -0.7676
56616SOL    HW175811   5.932  10.553  11.666 -0.7763 -0.5267 -1.0464
56616SOL    HW275812   5.936  10.467  11.541 -0.0764  0.6874 -1.8822
56617SOL     OW75813   3.814   1.418   5.819  0.3792  0.1478 -0.7082
56617SOL    HW175814   3.745   1.463   5.868  0.0777  1.1018 -1.9575
56617SOL    HW275815   3.894   1.466   5.840  0.6952 -0.8936  0.6567
56618SOL     OW75816   7.726   5.155   5.921 -0.1254  0.0332 -0.8209
56618SOL    HW175817   7.718   5.230   5.979 -0.8451 -0.6025 -0.0729
56618SOL    HW275818   7.636   5.128   5.904  0.0301 -2.9193  1.9970
56619SOL     OW75819   6.063  10.218   6.132  0.1954  0.4507  0.0040
56619SOL    HW175820   6.100  10.305   6.115  1.4983 -0.1110 -0.1507
56619SOL    HW275821   6.020  10.194   6.050 -1.4743  1.5328  0.5007
56620SOL     OW75822   7.414   3.243   7.108 -0.2612 -0.3447 -0.1111
56620SOL    HW175823   7.458   3.185   7.046 -0.3039  0.3823 -0.8507
56620SOL    HW275824   7.414   3.195   7.191  3.2372  0.1667  0.3442
56621SOL     OW75825  10.940  11.880   7.623  0.1410 -0.5100 -0.7892
56621SOL    HW175826  10.861  11.827   7.632 -0.7191  0.4801 -2.1288
56621SOL    HW275827  10.975  11.887   7.712 -0.8364 -1.6175 -0.2958
56622SOL     OW75828  10.822   4.732   0.256 -0.6291 -0.0336  0.6151
56622SOL    HW175829  10.917   4.719   0.248 -0.7332  0.0048 -0.9143
56622SOL    HW275830  10.788   4.645   0.275 -0.3386 -0.1343  0.6799
56623SOL     OW75831   7.973   8.473   3.871 -0.7943 -0.8411  0.2847
56623SOL    HW175832   7.889   8.437   3.899 -1.1344  0.1336  0.5540
56623SOL    HW275833   8.027   8.471   3.949 -1.0339 -0.1632  0.4780
56624SOL     OW75834  10.328   8.682   5.953 -0.0149 -0.4784 -0.2047
56624SOL    HW175835  10.364   8.770   5.938  0.1227 -0.5154 -0.0953
56624SOL    HW275836  10.386   8.624   5.905 -0.6333 -0.4249 -1.0367
56625SOL     OW75837  10.881   1.301   0.622 -0.4111  0.8725  0.6472
56625SOL    HW175838  10.824   1.234   0.660 -0.5301  1.5030  1.6004
56625SOL    HW275839  10.959   1.301   0.678  0.4653  0.1495 -0.5340
56626SOL     OW75840  11.288  10.362   4.831  0.0318 -0.3004 -0.0135
56626SOL    HW175841  11.201  10.344   4.795 -0.4481 -0.7649  1.3001
56626SOL    HW275842  11.281  10.337   4.923  2.3224 -2.8103 -0.4261
56627SOL     OW75843   7.057   3.475   7.833  0.6297  0.0522  0.0918
56627SOL    HW175844   6.984   3.520   7.876  2.6557  2.1420  1.6409
56627SOL    HW275845   7.057   3.387   7.870 -1.5162 -0.2490 -0.5331
56628SOL     OW75846   1.138   8.347   8.323  0.3596 -0.2210 -0.0820
56628SOL    HW175847   1.051   8.359   8.284 -0.2017  0.6247  1.3686
56628SOL    HW275848   1.126   8.366   8.416  2.2834  0.8122  0.0089
56629SOL     OW75849   3.363   7.404   0.830  0.1750 -0.1863 -0.3696
56629SOL    HW175850   3.380   7.420   0.923 -0.9568  4.3268 -0.6773
56629SOL    HW275851   3.426   7.460   0.784  0.0542 -1.5450 -2.2937
56630SOL     OW75852   5.845   3.328   3.750 -0.2583 -0.0011  0.0331
56630SOL    HW175853   5.925   3.277   3.761 -0.9377 -1.2868 -0.7320
56630SOL    HW275854   5.816   3.309   3.660 -1.6306  0.1125  0.4217
56631SOL     OW75855   4.107   3.967   1.080  0.0335  0.5173  0.2444
56631SOL    HW175856   4.036   4.030   1.082 -0.5491 -0.1065 -0.2426
56631SOL    HW275857   4.138   3.968   0.989  1.0549  1.2189  0.5840
56632SOL     OW75858   3.970   1.716  12.165  0.5984 -0.1175  0.7275
56632SOL    HW175859   4.036   1.783  12.147  0.0041  0.3605  0.2975
56632SOL    HW275860   3.951   1.677  12.080  0.8044 -0.7185  0.9486
56633SOL     OW75861   4.789   5.319   9.255  0.0971 -0.4312  0.3078
56633SOL    HW175862   4.730   5.393   9.270 -0.1712 -1.0733  2.8715
56633SOL    HW275863   4.876   5.353   9.275 -0.0040 -0.7356  1.3005
56634SOL     OW75864  11.115   8.025   2.390  0.2009 -0.6297 -0.0575
56634SOL    HW175865  11.102   8.061   2.302 -0.0545 -1.8569 -0.5377
56634SOL    HW275866  11.191   8.073   2.425 -1.0407  1.4272 -0.0628
56635SOL     OW75867   9.985   6.843   6.233 -0.0488  0.1309 -0.8158
56635SOL    HW175868   9.927   6.769   6.220 -0.4556  0.4274 -0.7195
56635SOL    HW275869  10.001   6.878   6.145 -1.3935  1.0783 -0.7089
56636SOL     OW75870  11.797   9.006   4.165  0.7568 -1.0223  0.7606
56636SOL    HW175871  11.786   8.943   4.236  1.3687 -0.6042  1.2391
56636SOL    HW275872  11.861   8.965   4.106 -0.5870 -1.8767 -0.1769
56637SOL     OW75873  11.107   4.106  12.342 -0.3773  0.6229 -0.4047
56637SOL    HW175874  11.119   4.173  12.409  0.9886  1.0474 -1.0483
56637SOL    HW275875  11.095   4.154  12.260 -0.8644  0.0989 -0.6486
56638SOL     OW75876  12.063  11.136  10.390 -0.0479  0.1913 -0.4443
56638SOL    HW175877  12.074  11.131  10.485 -0.9641  0.4181 -0.3142
56638SOL    HW275878  12.124  11.205  10.363  3.6431 -2.8129 -0.6794
56639SOL     OW75879   4.863   4.312   1.389 -0.0901  0.4741  0.5101
56639SOL    HW175880   4.807   4.266   1.452  0.5868 -0.4197  0.4749
56639SOL    HW275881   4.894   4.244   1.330 -0.3518  1.2392 -0.5228
56640SOL     OW75882   6.953   1.501   0.790 -0.5247 -0.2236 -0.2033
56640SOL    HW175883   7.017   1.548   0.738 -0.8492  1.5568  0.9105
56640SOL    HW275884   6.868   1.529   0.755 -0.7262  0.1673  0.5814
56641SOL     OW75885  12.192   5.336   7.439  0.2159 -0.0831 -0.4454
56641SOL    HW175886  12.250   5.337   7.515 -0.1597 -2.8365 -0.0342
56641SOL    HW275887  12.236   5.393   7.375  2.2733 -0.3677  0.6141
56642SOL     OW75888   0.467  12.323   5.569 -0.0055  0.3972  0.2308
56642SOL    HW175889   0.441  12.302   5.480  0.9370  3.2249 -0.8264
56642SOL    HW275890   0.385  12.346   5.614 -0.3254  0.4823 -0.3907
56643SOL     OW75891   8.275  12.235   6.339  0.5845  0.2104  0.2544
56643SOL    HW175892   8.370  12.242   6.338  0.5396  1.1049 -1.2616
56643SOL    HW275893   8.255  12.165   6.277  0.2121  1.3391 -0.9477
56644SOL     OW75894   0.765   0.715   3.796 -0.0946  0.3483  0.2848
56644SOL    HW175895   0.762   0.624   3.825  1.7312  0.0411 -0.4168
56644SOL    HW275896   0.745   0.712   3.702  0.6462  0.5778  0.1111
56645SOL     OW75897   3.154   6.602   9.628 -0.8228 -0.6982 -0.1462
56645SOL    HW175898   3.095   6.614   9.703  0.5421 -0.4856  0.9435
56645SOL    HW275899   3.233   6.650   9.652  0.6733 -2.8214 -0.4940
56646SOL     OW75900   2.120   4.697  11.176  0.1794  0.1365 -0.4771
56646SOL    HW175901   2.059   4.627  11.153 -1.5115  1.3866 -0.0192
56646SOL    HW275902   2.099   4.769  11.116  1.2496  0.5779 -0.3517
56647SOL     OW75903   0.040   6.205   0.919 -0.1735 -0.3899  0.1498
56647SOL    HW175904   0.023   6.284   0.869 -0.4246 -0.8359 -0.4891
56647SOL    HW275905   0.060   6.236   1.008  0.4755  0.4274 -0.2668
56648SOL     OW75906   3.683   2.135  11.585  0.0903 -0.2164 -0.2193
56648SOL    HW175907   3.617   2.163  11.522 -1.3152 -0.3715  1.1218
56648SOL    HW275908   3.699   2.213  11.639  1.0570 -0.1672 -0.5679
56649SOL     OW75909   1.726  11.213  10.881 -0.0313 -0.0609 -0.3521
56649SOL    HW175910   1.642  11.202  10.836 -0.0389 -0.7330 -0.1762
56649SOL    HW275911   1.743  11.307  10.876 -1.6439  0.3574  1.1414
56650SOL     OW75912  11.064   5.129   1.783 -0.0801 -0.1340 -0.1484
56650SOL    HW175913  10.972   5.129   1.808  0.2965 -1.6114  1.4319
56650SOL    HW275914  11.075   5.210   1.733 -2.7179 -1.0339 -2.4152
56651SOL     OW75915   0.972   8.341   7.512 -0.3746  0.4444 -1.2891
56651SOL    HW175916   0.888   8.385   7.500 -1.1213 -0.9162 -1.1986
56651SOL    HW275917   0.961   8.288   7.591  1.3838  2.0700  0.1368
56652SOL     OW75918   9.555   6.163  11.639  0.1545  0.0829 -0.3542
56652SOL    HW175919   9.559   6.120  11.554 -0.5321 -1.0492  0.1585
56652SOL    HW275920   9.600   6.247  11.626  2.0271 -0.9975 -1.2480
56653SOL     OW75921  11.610   1.831   4.242  0.0428 -0.5902 -0.4743
56653SOL    HW175922  11.603   1.736   4.249 -2.7960 -0.4111  0.2194
56653SOL    HW275923  11.585   1.850   4.151  1.0378 -0.4832 -0.7461
56654SOL     OW75924   8.414   1.129  11.540 -0.0354 -0.3341  0.3568
56654SOL    HW175925   8.350   1.085  11.596 -1.0831  0.9085  0.1722
56654SOL    HW275926   8.373   1.212  11.517  0.6006 -0.5460 -1.7817
56655SOL     OW75927  12.074  10.766   4.268 -0.3934  0.7330 -0.5087
56655SOL    HW175928  12.166  10.779   4.242 -0.2911  0.4473 -0.2892
56655SOL    HW275929  12.053  10.678   4.238  0.1997 -0.2360  1.7290
56656SOL     OW75930   5.560   3.891   6.044 -0.0488  0.3183 -0.1875
56656SOL    HW175931   5.496   3.940   5.993  0.9826  1.4504 -0.4544
56656SOL    HW275932   5.637   3.887   5.988  1.5202  2.5818  1.6025
56657SOL     OW75933   6.147   8.911   7.607  0.2475 -0.3110 -0.3667
56657SOL    HW175934   6.161   8.965   7.529  3.0308  0.3995  0.5363
56657SOL    HW275935   6.136   8.974   7.678 -0.7548 -0.9679  0.0907
56658SOL     OW75936   5.263   9.072  10.291 -0.0227 -0.4536  0.7196
56658SOL    HW175937   5.193   9.124  10.330 -0.5989 -1.5277  1.1912
56658SOL    HW275938   5.218   9.016  10.227  0.1505 -2.0746  1.9351
56659SOL     OW75939   9.671  10.016   9.551 -0.1053  0.2190  0.1386
56659SOL    HW175940   9.685  10.051   9.639  0.1530 -2.8960  1.4752
56659SOL    HW275941   9.752   9.969   9.530 -0.0210  1.1839 -1.9653
56660SOL     OW75942   1.266   4.777   2.634 -0.1662  0.4328  0.1458
56660SOL    HW175943   1.295   4.747   2.720  1.4274  0.6142 -0.2905
56660SOL    HW275944   1.267   4.699   2.579 -0.4276  0.4616  0.0987
56661SOL     OW75945   3.686  10.707   0.494 -0.0940 -0.0098  0.2505
56661SOL    HW175946   3.705  10.618   0.465  0.7348  0.1325  0.3028
56661SOL    HW275947   3.743  10.720   0.570  0.1780  0.7347 -0.0648
56662SOL     OW75948   4.469   5.324   7.170  0.2728  0.5369 -0.2469
56662SOL    HW175949   4.396   5.265   7.151 -1.2922  1.7822  1.5382
56662SOL    HW275950   4.539   5.266   7.201 -1.7689 -0.4447  3.0987
56663SOL     OW75951   5.649   3.566   5.423  0.5782 -0.1046 -0.1666
56663SOL    HW175952   5.625   3.583   5.514  3.8140  1.0294  0.6011
56663SOL    HW275953   5.670   3.472   5.421 -0.1439 -0.2731  0.0821
56664SOL     OW75954   3.555   9.606  10.253  0.0180  0.2979 -0.1884
56664SOL    HW175955   3.483   9.633  10.309 -0.0151  0.2213 -0.1947
56664SOL    HW275956   3.627   9.664  10.277 -0.0131  0.3028 -0.1076
56665SOL     OW75957   1.369   7.892   1.352 -0.2274 -0.9662 -0.4333
56665SOL    HW175958   1.284   7.882   1.309 -0.7362 -3.1048  0.8944
56665SOL    HW275959   1.373   7.818   1.413  2.0373 -0.1606  0.4825
56666SOL     OW75960  10.031   3.576   3.937  0.5355 -0.1380  0.7428
56666SOL    HW175961  10.099   3.580   3.869 -0.3303 -2.0493 -0.3000
56666SOL    HW275962  10.078   3.548   4.016  1.4300  1.4114  0.7969
56667SOL     OW75963   3.239   6.221   4.740  0.6121 -0.5548 -0.2059
56667SOL    HW175964   3.262   6.129   4.731 -1.1931 -1.0909  0.1324
56667SOL    HW275965   3.145   6.224   4.722  0.7383  1.3138 -0.7432
56668SOL     OW75966   5.269   0.773   1.912 -0.3172 -0.1907 -0.0439
56668SOL    HW175967   5.198   0.835   1.931 -0.0735 -0.3318  1.3761
56668SOL    HW275968   5.241   0.691   1.953 -0.1871 -0.7721 -1.0896
56669SOL     OW75969  10.937  11.920  12.109  0.0588 -0.1807 -0.1804
56669SOL    HW175970  10.864  11.957  12.159 -0.6276 -1.5221 -0.1438
56669SOL    HW275971  10.924  11.953  12.020 -0.6884 -0.5126 -0.2037
56670SOL     OW75972   1.233   1.910   5.610 -0.1428 -0.6122 -0.5071
56670SOL    HW175973   1.307   1.925   5.550  1.1646  1.6547  1.4776
56670SOL    HW275974   1.269   1.854   5.679  0.6358  2.3353  1.7047
56671SOL     OW75975   9.734   4.867   0.237 -0.3617 -0.6705  0.0823
56671SOL    HW175976   9.704   4.865   0.146 -0.0617 -2.4108 -0.0146
56671SOL    HW275977   9.786   4.947   0.243 -2.3873  0.7886 -0.5736
56672SOL     OW75978   2.218   5.283   8.390  0.1486 -0.5637 -0.2948
56672SOL    HW175979   2.299   5.299   8.439 -0.2638  0.4773  0.0779
56672SOL    HW275980   2.224   5.339   8.313 -0.4070 -0.1364 -0.0372
56673SOL     OW75981   1.159  10.938   8.600  0.0243  0.0543  0.0289
56673SOL    HW175982   1.231  10.976   8.650 -0.1036  0.0724  0.2002
56673SOL    HW275983   1.178  10.960   8.509  0.4520 -0.2967  0.0315
56674SOL     OW75984   5.427   3.912   7.199 -0.4720 -0.1241 -0.0776
56674SOL    HW175985   5.488   3.984   7.215  0.6095 -0.8215 -0.9673
56674SOL    HW275986   5.419   3.907   7.104 -1.8368 -0.1343  0.0117
56675SOL     OW75987   4.738  10.585  10.098 -0.1121  0.3275 -0.5161
56675SOL    HW175988   4.762  10.673  10.125 -0.4921  0.9155 -1.9983
56675SOL    HW275989   4.655  10.568  10.143  0.5382  0.2397  0.6910
56676SOL     OW75990   8.821   8.127   6.024  0.3790 -0.2853  0.9745
56676SOL    HW175991   8.755   8.058   6.035  0.3518 -0.3749  0.2591
56676SOL    HW275992   8.891   8.086   5.973 -0.1382  0.5255 -0.4483
56677SOL     OW75993  11.234  11.231   8.575  0.0531  0.6187 -0.0044
56677SOL    HW175994  11.261  11.290   8.505 -0.8206  0.1790 -0.7322
56677SOL    HW275995  11.140  11.218   8.562 -0.0247  0.1008  0.9253
56678SOL     OW75996  10.673   0.035   5.702  0.4689 -0.3892 -0.4245
56678SOL    HW175997  10.748   0.095   5.706 -0.3789  0.6241  1.8022
56678SOL    HW275998  10.699  -0.038   5.759 -0.1705 -0.0803  0.2741
56679SOL     OW75999   7.107   4.095   1.003 -0.2543  0.3517 -0.1212
56679SOL    HW176000   7.019   4.062   1.018 -0.9672  2.5121  0.8904
56679SOL    HW276001   7.127   4.072   0.912 -1.0060 -1.9254  0.2247
56680SOL     OW76002  10.103   6.155   1.670  0.4938  0.0717  0.2241
56680SOL    HW176003  10.055   6.078   1.701  1.2037 -1.3358 -1.9342
56680SOL    HW276004  10.040   6.204   1.618 -0.2118  1.5131  2.3157
56681SOL     OW76005  10.876   6.490   7.558  0.2110 -0.3335 -0.1373
56681SOL    HW176006  10.864   6.400   7.528 -0.6227  0.1135 -1.2145
56681SOL    HW276007  10.790   6.517   7.590  0.0280  0.5883 -1.3164
56682SOL     OW76008   0.053  12.329   8.783 -0.7189  0.4303 -0.0119
56682SOL    HW176009   0.130  12.383   8.766  0.4192 -0.2355  2.5929
56682SOL    HW276010   0.000  12.380   8.845 -2.1358  0.6011 -1.2803
56683SOL     OW76011   2.069   7.953   0.640 -0.4490  0.2166 -0.4909
56683SOL    HW176012   2.079   7.974   0.547 -0.8827 -0.6671 -0.7513
56683SOL    HW276013   2.155   7.970   0.678 -0.1735  0.2659 -1.1231
56684SOL     OW76014   7.829   2.397  10.734  0.7505 -0.3555 -0.0943
56684SOL    HW176015   7.860   2.392  10.825 -2.3214  0.9381  1.1740
56684SOL    HW276016   7.814   2.490  10.719  2.2034 -0.4350 -2.3878
56685SOL     OW76017   9.377   9.196   2.585 -0.0664 -0.2828 -0.0009
56685SOL    HW176018   9.355   9.103   2.586 -0.9595 -0.0854  1.2125
56685SOL    HW276019   9.336   9.230   2.506  0.0723 -0.8757 -0.3313
56686SOL     OW76020  11.268   1.028   6.298 -0.1980 -0.2248 -0.0159
56686SOL    HW176021  11.277   1.112   6.344  0.1789  0.4188 -1.2275
56686SOL    HW276022  11.190   0.988   6.336  0.6322 -0.1610  1.8602
56687SOL     OW76023   8.720   9.559   3.537 -0.0193 -0.1173  0.7013
56687SOL    HW176024   8.649   9.550   3.600  0.0104  1.0282  0.9165
56687SOL    HW276025   8.752   9.649   3.548  0.8531 -0.3147 -0.0305
56688SOL     OW76026   1.748   9.190   7.971 -0.9356  0.2007 -0.0446
56688SOL    HW176027   1.681   9.255   7.994 -0.1263  0.5295  1.5656
56688SOL    HW276028   1.734   9.118   8.033  2.1912  1.6978  2.7515
56689SOL     OW76029   3.880   5.124   2.538  0.1519 -0.3621  0.2957
56689SOL    HW176030   3.843   5.046   2.580  1.3333 -1.3636 -0.4439
56689SOL    HW276031   3.965   5.095   2.506  0.0515  0.8715 -1.1827
56690SOL     OW76032  11.516   7.148   4.157 -0.4566 -0.6972  0.5650
56690SOL    HW176033  11.600   7.126   4.117 -0.0009 -0.2096  1.2435
56690SOL    HW276034  11.472   7.203   4.092  0.1647 -0.1334  0.6115
56691SOL     OW76035   9.291   0.148   3.159 -0.1485  0.0482 -0.4183
56691SOL    HW176036   9.273   0.197   3.240  0.4359 -0.6582  0.1528
56691SOL    HW276037   9.365   0.091   3.181 -0.1371 -0.3276 -1.3832
56692SOL     OW76038   7.500   4.982  12.107  0.3859  0.3668  0.0571
56692SOL    HW176039   7.559   5.048  12.070  0.8733 -0.5572 -0.8510
56692SOL    HW276040   7.414   5.004  12.070 -0.1240  2.3527  2.1997
56693SOL     OW76041   4.727   5.716   1.513  0.4823  0.0310  0.8594
56693SOL    HW176042   4.776   5.771   1.452  0.1644 -1.5914 -0.9723
56693SOL    HW276043   4.672   5.777   1.561 -1.0386  1.2841 -2.1790
56694SOL     OW76044   8.892   2.963   9.481 -0.1767  0.1903  0.2606
56694SOL    HW176045   8.882   3.025   9.410 -0.0210 -0.5279 -0.4091
56694SOL    HW276046   8.980   2.927   9.469 -0.6663 -0.9777 -0.0709
56695SOL     OW76047   4.714   9.931   7.852  0.3324 -0.3167  0.2601
56695SOL    HW176048   4.720   9.845   7.894 -1.6264 -0.9403 -0.5905
56695SOL    HW276049   4.792   9.936   7.797  0.4160 -1.6291  0.2206
56696SOL     OW76050   8.069   4.581   6.399 -0.4228 -0.5173 -0.2269
56696SOL    HW176051   7.999   4.642   6.425  1.7038  1.9689  0.0412
56696SOL    HW276052   8.123   4.573   6.477  0.4883 -1.0843 -0.9098
56697SOL     OW76053   7.310   9.914   3.733  0.0060  0.1351 -0.2401
56697SOL    HW176054   7.314   9.826   3.695 -0.8922 -0.1773  0.3472
56697SOL    HW276055   7.232   9.953   3.695  1.2555  1.2968 -1.7242
56698SOL     OW76056  11.467   3.023   1.595 -0.2315 -0.1897 -0.1047
56698SOL    HW176057  11.521   3.022   1.516  0.9256  0.7188  0.6458
56698SOL    HW276058  11.378   3.008   1.562  0.5637 -3.0449 -1.2291
56699SOL     OW76059   2.047   1.789  12.178  0.0574 -0.6521 -0.1636
56699SOL    HW176060   2.083   1.701  12.173  0.8266 -0.4672  1.2907
56699SOL    HW276061   1.990   1.787  12.255 -2.0015 -0.5531 -1.6323
56700SOL     OW76062   5.730   3.364   7.500  0.4096  0.4028 -0.1248
56700SOL    HW176063   5.773   3.434   7.549 -2.9498  3.1094 -0.6762
56700SOL    HW276064   5.653   3.341   7.552 -0.7624  0.1124 -1.8812
56701SOL     OW76065   2.271   2.938   2.548 -0.1578 -0.8966  0.8587
56701SOL    HW176066   2.349   2.927   2.494 -0.1045  3.5330 -0.3103
56701SOL    HW276067   2.303   2.976   2.629 -0.9617  0.7071  0.4705
56702SOL     OW76068   4.156   5.746   6.369 -0.6670  0.1233 -0.2338
56702SOL    HW176069   4.063   5.767   6.371 -0.4211  1.3332 -0.8030
56702SOL    HW276070   4.190   5.779   6.453 -0.4598  1.1697 -0.7184
56703SOL     OW76071  10.480   7.576  11.212  1.1071 -0.4214 -0.0668
56703SOL    HW176072  10.411   7.641  11.198  0.3533 -0.7236  1.8580
56703SOL    HW276073  10.555   7.626  11.243  1.1899 -0.2750 -0.4967
56704SOL     OW76074  10.686   8.238   2.776 -0.5850 -0.0078 -0.1741
56704SOL    HW176075  10.610   8.181   2.786 -0.7575  0.1761 -0.4012
56704SOL    HW276076  10.728   8.208   2.695  0.0594 -0.6467  0.3838
56705SOL     OW76077   6.786   7.505   9.023 -0.0261 -0.0701 -0.2687
56705SOL    HW176078   6.765   7.567   8.953  1.6583  0.0289 -0.7243
56705SOL    HW276079   6.834   7.435   8.980  0.5461 -0.2903  0.6942
56706SOL     OW76080   2.361   9.061   3.047 -0.0008  0.1650  0.0402
56706SOL    HW176081   2.315   9.133   3.091 -1.1474 -0.8040  0.4842
56706SOL    HW276082   2.313   9.049   2.965  0.4937  0.2204 -0.2595
56707SOL     OW76083   3.948   5.251   5.062  0.1396  0.0333 -0.2988
56707SOL    HW176084   3.994   5.256   5.146 -0.9123 -0.0994  0.2984
56707SOL    HW276085   3.856   5.240   5.085 -0.3922  1.6641 -1.4400
56708SOL     OW76086   2.482   2.361   1.629 -0.1430 -0.3613 -0.8429
56708SOL    HW176087   2.544   2.413   1.679 -1.7837  0.1344  0.7651
56708SOL    HW276088   2.475   2.279   1.677  0.5695 -1.1507 -2.0145
56709SOL     OW76089   9.740   9.921   1.073  0.0686  0.0842  0.2586
56709SOL    HW176090   9.649   9.917   1.103  0.3917 -1.1921  1.1725
56709SOL    HW276091   9.771  10.006   1.103 -0.2799 -0.2593  1.7119
56710SOL     OW76092   6.142   4.738   1.369 -0.1926 -0.2469  0.4659
56710SOL    HW176093   6.205   4.693   1.313 -1.4554 -2.7257  0.8868
56710SOL    HW276094   6.116   4.816   1.320  1.6011 -0.2760 -0.6128
56711SOL     OW76095   1.549  11.083   9.622 -0.2078 -0.7275 -0.0248
56711SOL    HW176096   1.509  11.170   9.627  0.5543 -0.2558 -1.4892
56711SOL    HW276097   1.482  11.024   9.656 -2.0510  0.0770 -2.0479
56712SOL     OW76098   2.352   2.727   9.013  0.1746  0.1052 -0.3211
56712SOL    HW176099   2.394   2.801   9.057 -0.2878 -0.2126  0.6792
56712SOL    HW276100   2.326   2.762   8.928 -0.3334  1.2078  0.2543
56713SOL     OW76101   1.917   7.717  11.499 -0.8600 -0.2909  0.0508
56713SOL    HW176102   1.919   7.802  11.544 -0.8499 -1.2115  1.9119
56713SOL    HW276103   1.989   7.721  11.436 -0.3804  0.8133  0.6501
56714SOL     OW76104  12.186   9.240  10.530  0.0062  0.0830  0.3248
56714SOL    HW176105  12.154   9.326  10.558  0.8098  0.1457  1.0797
56714SOL    HW276106  12.250   9.215  10.596 -1.6257 -2.0058  1.2458
56715SOL     OW76107   3.986   8.046  10.638  0.3554 -0.3376  0.0367
56715SOL    HW176108   3.985   7.988  10.714 -1.3660 -0.0680  0.2437
56715SOL    HW276109   4.064   8.019  10.589  1.5237 -0.4817  1.8879
56716SOL     OW76110   6.619   4.676  12.044  0.1509  0.0630  1.2088
56716SOL    HW176111   6.669   4.595  12.055 -2.7652 -2.1720 -0.5892
56716SOL    HW276112   6.616   4.689  11.949 -1.2188  1.0814  1.3642
56717SOL     OW76113   5.222   5.120   1.774  0.4531 -0.3273 -0.3555
56717SOL    HW176114   5.162   5.046   1.783 -0.4709  0.3683 -0.6209
56717SOL    HW276115   5.210   5.171   1.854 -0.1591  0.4134 -0.9053
56718SOL     OW76116   1.282  10.939   2.154 -0.4754  0.2862 -0.4348
56718SOL    HW176117   1.255  11.024   2.119 -1.5821  0.6074  1.0910
56718SOL    HW276118   1.377  10.946   2.164 -0.4037  0.8981 -1.4425
56719SOL     OW76119   6.388   6.334   2.679  0.1473 -0.6281 -0.1223
56719SOL    HW176120   6.426   6.393   2.614 -0.6513  0.3783  0.3067
56719SOL    HW276121   6.463   6.295   2.724  0.7033  1.3809  0.7746
56720SOL     OW76122   3.464   6.987   1.182  0.7243 -0.4841  0.6012
56720SOL    HW176123   3.411   6.983   1.103  1.1879  1.5437  0.1261
56720SOL    HW276124   3.411   6.946   1.250  0.4213 -2.5013 -0.7737
56721SOL     OW76125   4.589   2.599  10.777 -0.4361 -0.5019 -0.4052
56721SOL    HW176126   4.523   2.652  10.732 -0.7122 -1.8620 -1.6943
56721SOL    HW276127   4.541   2.558  10.849  0.1501  2.1780  1.6583
56722SOL     OW76128   5.324   8.380   4.972 -0.2155 -0.3740  0.3810
56722SOL    HW176129   5.347   8.399   5.063 -0.2819  2.6958 -0.1602
56722SOL    HW276130   5.234   8.411   4.962 -0.1686 -0.5494 -0.7871
56723SOL     OW76131  11.652   3.285   2.730  0.1741  0.4521 -0.4608
56723SOL    HW176132  11.701   3.233   2.793  0.8317  2.5351  0.8051
56723SOL    HW276133  11.567   3.241   2.724  0.7874 -0.9015  0.3555
56724SOL     OW76134   1.156   5.704  10.285  0.1911 -0.0012  0.0798
56724SOL    HW176135   1.113   5.676  10.367  0.2955  1.6043  0.7182
56724SOL    HW276136   1.226   5.763  10.314 -0.6077  1.6654 -1.2005
56725SOL     OW76137   1.556   8.941   7.218 -0.1839  0.2771  0.7191
56725SOL    HW176138   1.626   8.994   7.257 -0.4237  1.8762 -0.8721
56725SOL    HW276139   1.504   9.003   7.168 -0.5775 -1.4523 -1.1554
56726SOL     OW76140   9.234  12.227   4.156 -0.1885 -0.0747 -0.0688
56726SOL    HW176141   9.242  12.245   4.250  0.2623 -1.3750  0.1513
56726SOL    HW276142   9.139  12.221   4.141 -0.2329 -1.0206  0.5358
56727SOL     OW76143   6.649  11.378   1.305  0.4411 -0.2649  0.6223
56727SOL    HW176144   6.667  11.326   1.227 -1.0084 -1.1962  0.8738
56727SOL    HW276145   6.657  11.469   1.275 -0.4622 -0.5980 -0.7390
56728SOL     OW76146   4.345   9.827  12.196 -0.9277  0.3128 -0.6515
56728SOL    HW176147   4.351   9.751  12.139 -2.6102  0.2490 -0.7850
56728SOL    HW276148   4.342   9.902  12.136 -0.2665  0.4217 -0.5541
56729SOL     OW76149   5.905   1.967   2.004 -0.0316 -0.0681 -0.2417
56729SOL    HW176150   5.907   1.895   2.067  0.1965  0.4118  0.3066
56729SOL    HW276151   5.948   2.039   2.049 -2.8649  1.3620  0.3752
56730SOL     OW76152   2.429   7.002   8.814 -0.1125  0.4541 -0.0458
56730SOL    HW176153   2.437   7.070   8.881 -1.2697  1.1938 -0.6154
56730SOL    HW276154   2.366   7.038   8.752 -0.8298 -1.1836 -0.3201
56731SOL     OW76155   4.551   4.319   4.672 -0.3389 -0.0045 -0.3165
56731SOL    HW176156   4.626   4.372   4.697 -0.5516 -0.5345  1.6225
56731SOL    HW276157   4.576   4.278   4.590  0.6723  1.3897 -0.7378
56732SOL     OW76158   2.663   2.325   7.598 -0.1516  0.3791 -0.2407
56732SOL    HW176159   2.579   2.337   7.555  0.4023  1.6369 -1.0119
56732SOL    HW276160   2.724   2.302   7.527  0.1708 -0.5413  0.3062
56733SOL     OW76161   2.783  11.523   2.166 -0.0935  0.4522  0.2029
56733SOL    HW176162   2.730  11.602   2.166 -0.4572  0.2165 -0.7550
56733SOL    HW276163   2.844  11.535   2.239  0.6987  2.1705 -0.6714
56734SOL     OW76164   4.064   1.823   7.930  0.0658  0.2075  0.1408
56734SOL    HW176165   3.970   1.838   7.940 -0.1827 -1.9906  2.0579
56734SOL    HW276166   4.075   1.729   7.947  2.8276  0.7684  2.1836
56735SOL     OW76167   5.445   1.721   0.981 -0.3617 -0.1177 -0.2088
56735SOL    HW176168   5.531   1.755   1.004 -0.7901  0.4127  0.6496
56735SOL    HW276169   5.398   1.716   1.064 -0.3669 -2.7244 -0.2678
56736SOL     OW76170   7.786   7.822   9.694 -0.0077  0.7176 -0.4978
56736SOL    HW176171   7.691   7.810   9.697 -0.2368  2.1332 -1.1905
56736SOL    HW276172   7.807   7.829   9.601  0.7108  0.8513 -0.3357
56737SOL     OW76173  10.994   9.554   5.087  0.3282  0.4859 -0.0367
56737SOL    HW176174  11.082   9.533   5.056 -0.7087 -2.7983 -1.2091
56737SOL    HW276175  11.002   9.557   5.182  1.8186  1.1031 -0.1475
56738SOL     OW76176   1.059   1.714   9.812 -0.3667  0.4678  0.0636
56738SOL    HW176177   1.010   1.796   9.817 -1.5941 -0.2234 -0.1521
56738SOL    HW276178   1.055   1.690   9.719 -2.6516 -1.3364  0.5460
56739SOL     OW76179  10.203  10.192   9.446 -0.0320 -0.1819  0.3997
56739SOL    HW176180  10.224  10.155   9.360  0.3011 -0.2079  0.4943
56739SOL    HW276181  10.274  10.253   9.464 -0.4829  0.3713  0.3283
56740SOL     OW76182   6.300   7.421  11.643 -0.5114  0.3282  0.1500
56740SOL    HW176183   6.372   7.399  11.701  0.0832 -0.0184 -0.6989
56740SOL    HW276184   6.309   7.514  11.625  1.5457 -0.2383 -2.3080
56741SOL     OW76185   3.207   5.370   0.287 -0.2472 -0.0225  0.0421
56741SOL    HW176186   3.287   5.402   0.329 -0.6135 -0.0067  0.7456
56741SOL    HW276187   3.217   5.275   0.285  0.0361  0.0100 -0.3977
56742SOL     OW76188   2.821   3.761   1.112  1.0583 -0.6714 -0.1412
56742SOL    HW176189   2.738   3.773   1.066  1.4815  1.4908 -0.4712
56742SOL    HW276190   2.796   3.728   1.198 -0.1460 -0.2645 -0.3073
56743SOL     OW76191   5.646   2.433   8.428  0.6378 -0.1806  0.5160
56743SOL    HW176192   5.720   2.482   8.464 -0.1292  2.1645 -0.8795
56743SOL    HW276193   5.588   2.418   8.503  1.5923 -0.3166  1.2478
56744SOL     OW76194   1.687  11.848   5.493  0.1704  0.2837 -0.1860
56744SOL    HW176195   1.669  11.867   5.401 -0.5923 -0.7185 -0.2581
56744SOL    HW276196   1.766  11.793   5.490 -0.4099 -0.5698 -0.3341
56745SOL     OW76197   4.400   5.908   3.551 -0.2097  0.3130 -0.0857
56745SOL    HW176198   4.401   5.943   3.641 -2.1784  0.4455 -0.0726
56745SOL    HW276199   4.450   5.827   3.557  0.7357  0.9371  0.8516
56746SOL     OW76200   9.501   5.388  10.114 -0.4933  0.2258  1.0033
56746SOL    HW176201   9.517   5.387  10.020  0.3574  1.1750  1.1222
56746SOL    HW276202   9.406   5.378  10.123 -0.7592  1.5954 -0.0096
56747SOL     OW76203   9.004  10.752   1.349  0.0823 -0.4834  0.3430
56747SOL    HW176204   8.923  10.714   1.313 -0.3342 -0.8112  1.5729
56747SOL    HW276205   9.027  10.821   1.287  0.6874 -2.4805 -1.8151
56748SOL     OW76206   0.707  11.494   2.168 -0.3577  0.6158  0.3576
56748SOL    HW176207   0.791  11.523   2.131  0.0084 -2.1220 -1.2484
56748SOL    HW276208   0.641  11.536   2.114  0.1585 -1.4294 -2.0779
56749SOL     OW76209   7.082   0.789   2.204  0.2812  0.5688 -0.0089
56749SOL    HW176210   7.031   0.862   2.169  0.9405  0.9237 -0.2541
56749SOL    HW276211   7.033   0.760   2.281 -0.5856  0.5187 -0.5727
56750SOL     OW76212   2.176   1.653   3.470 -0.0754 -0.1584 -0.5348
56750SOL    HW176213   2.178   1.728   3.410 -1.0399 -0.2703 -0.7267
56750SOL    HW276214   2.126   1.684   3.546  1.4325  0.0940  0.3921
56751SOL     OW76215   0.123  10.493   0.405 -0.1141  0.1970 -0.5868
56751SOL    HW176216   0.177  10.572   0.414 -1.1847  0.7883  1.1374
56751SOL    HW276217   0.118  10.458   0.493 -2.8607  0.4019 -0.5973
56752SOL     OW76218   7.329   0.929  10.104  0.0497  0.5499 -0.4960
56752SOL    HW176219   7.370   0.842  10.107 -3.0967 -1.0213  1.2732
56752SOL    HW276220   7.358   0.971  10.185 -1.8619 -0.6753  0.9067
56753SOL     OW76221   8.493   3.069  10.016 -0.8853 -0.5768  0.1645
56753SOL    HW176222   8.442   3.123   9.955 -2.5078 -2.4187 -0.2207
56753SOL    HW276223   8.427   3.028  10.072  0.3432 -1.4702  1.0168
56754SOL     OW76224   2.270   6.831   0.119 -0.2101 -0.2946  0.1058
56754SOL    HW176225   2.326   6.887   0.066  0.0020  2.1393  2.6573
56754SOL    HW276226   2.330   6.773   0.165 -0.0604  0.0461  0.3449
56755SOL     OW76227   1.906   4.194   3.548  0.3908 -0.3236 -0.0034
56755SOL    HW176228   1.890   4.148   3.630 -2.6390 -1.2948 -1.0291
56755SOL    HW276229   1.880   4.284   3.564 -0.4550 -0.5729  0.0607
56756SOL     OW76230   5.558   8.963   2.797  0.0337  0.1882 -0.1556
56756SOL    HW176231   5.623   8.906   2.757 -0.0729 -0.0277 -0.0209
56756SOL    HW276232   5.562   8.943   2.890 -0.9008 -0.5304 -0.2469
56757SOL     OW76233   3.205   3.853   1.267  0.0379  0.3269 -0.5886
56757SOL    HW176234   3.223   3.899   1.185  0.0831 -0.0554 -0.7972
56757SOL    HW276235   3.258   3.898   1.332  0.2390  0.4419 -0.8285
56758SOL     OW76236   1.844   2.381  11.662 -0.2921 -0.2991 -0.0058
56758SOL    HW176237   1.815   2.290  11.670 -1.2029 -0.1607 -1.4997
56758SOL    HW276238   1.865   2.392  11.570 -1.1273  1.2685 -0.0488
56759SOL     OW76239   2.597   1.179  12.166  0.3450 -0.5290 -0.1286
56759SOL    HW176240   2.573   1.224  12.247  2.8783 -1.8098  1.4798
56759SOL    HW276241   2.524   1.119  12.149 -0.7790  0.6242  0.4706
56760SOL     OW76242   3.729   4.863   8.421 -0.6233  0.1272  0.4674
56760SOL    HW176243   3.700   4.772   8.422 -1.2378  0.3183  1.0569
56760SOL    HW276244   3.650   4.913   8.439 -1.0014  1.0170 -2.9302
56761SOL     OW76245   6.296   0.557   5.197 -0.2174  0.5464  0.1662
56761SOL    HW176246   6.336   0.476   5.165 -1.0910  0.1922 -0.0872
56761SOL    HW276247   6.260   0.598   5.118 -0.9103  0.5200  0.4557
56762SOL     OW76248   2.126   8.267   2.129 -0.2265  0.1985  0.0910
56762SOL    HW176249   2.071   8.240   2.055 -0.9023 -2.1486  1.3484
56762SOL    HW276250   2.214   8.238   2.105 -0.4893 -0.8073  0.2775
56763SOL     OW76251   1.716   6.055   3.937 -0.1086 -0.0104  0.7573
56763SOL    HW176252   1.773   6.018   3.869 -0.8904  0.1909 -0.0244
56763SOL    HW276253   1.775   6.072   4.011  0.7714 -0.1607  0.1071
56764SOL     OW76254   6.277   5.359   7.283  0.1534 -0.7876  0.1290
56764SOL    HW176255   6.285   5.281   7.228 -0.3546 -0.5498 -0.2902
56764SOL    HW276256   6.309   5.331   7.369  0.9495 -1.1586 -0.2837
56765SOL     OW76257   7.507  10.313   3.040 -0.1405 -0.2862  0.6205
56765SOL    HW176258   7.416  10.300   3.068 -0.4370 -0.0681 -0.1874
56765SOL    HW276259   7.534  10.393   3.086 -1.1720  1.0264 -0.9124
56766SOL     OW76260  11.047   2.881   9.588 -0.0097  0.4007  0.2680
56766SOL    HW176261  11.004   2.914   9.668  1.4307 -0.4601  1.4548
56766SOL    HW276262  11.096   2.956   9.556 -0.7259  0.8020  0.0789
56767SOL     OW76263   5.841   7.420   8.862  0.0301 -0.1750  0.4837
56767SOL    HW176264   5.792   7.445   8.940 -0.5748 -1.1217  0.4103
56767SOL    HW276265   5.779   7.431   8.790  0.8734  1.6692 -0.0261
56768SOL     OW76266   8.308   5.031   0.680 -0.2621  0.4627 -0.2579
56768SOL    HW176267   8.263   5.035   0.765  2.7971  0.1105  1.5295
56768SOL    HW276268   8.318   5.123   0.654  1.9826  0.8820  1.7247
56769SOL     OW76269   4.648   3.878   2.236 -0.1608  0.3519  0.8627
56769SOL    HW176270   4.712   3.814   2.205 -0.2837  0.9213 -0.6083
56769SOL    HW276271   4.565   3.848   2.200 -0.1623  1.5250 -0.1646
56770SOL     OW76272  10.393  11.736  12.165 -0.0565  0.1785  0.0716
56770SOL    HW176273  10.417  11.644  12.160  2.2181  0.7549 -0.7329
56770SOL    HW276274  10.302  11.738  12.137  0.3949 -1.6207 -1.7639
56771SOL     OW76275  10.834  10.432   3.517 -0.1370 -0.0711 -0.2368
56771SOL    HW176276  10.770  10.501   3.534 -2.8588 -1.9113 -2.0937
56771SOL    HW276277  10.820  10.368   3.586  0.8896  0.2490  0.2801
56772SOL     OW76278   6.040   2.093   0.656 -0.5416 -0.2351 -0.3472
56772SOL    HW176279   6.124   2.115   0.615  0.2562 -0.9572  0.8567
56772SOL    HW276280   5.982   2.074   0.582  0.1079  1.0335 -1.2278
56773SOL     OW76281   4.657   3.645  11.299  0.9507  0.0872 -0.0387
56773SOL    HW176282   4.699   3.684  11.375  1.2306 -0.1624 -0.0626
56773SOL    HW276283   4.714   3.572  11.275  0.7087 -0.0148 -0.3083
56774SOL     OW76284  10.721   0.418   1.479  0.3389 -1.2172 -0.6063
56774SOL    HW176285  10.729   0.389   1.388  1.0635 -1.4475 -0.4780
56774SOL    HW276286  10.637   0.462   1.483  0.8202 -0.1452 -1.6786
56775SOL     OW76287   5.959   4.473   0.435  0.2263 -0.7450  0.4776
56775SOL    HW176288   6.028   4.444   0.494 -0.9971 -2.3161  1.2066
56775SOL    HW276289   5.933   4.559   0.468  1.8754 -0.0704  0.1131
56776SOL     OW76290   4.268   0.206  11.708 -0.2352  0.3317  0.2586
56776SOL    HW176291   4.340   0.237  11.763  0.2844  2.1413 -1.3495
56776SOL    HW276292   4.224   0.141  11.762 -0.3623  2.6589  3.2604
56777SOL     OW76293   1.230  11.399   1.403 -0.1163 -0.1895 -0.0039
56777SOL    HW176294   1.153  11.416   1.349  1.4782 -0.4630 -2.5089
56777SOL    HW276295   1.208  11.435   1.489 -2.1558  1.7846 -1.2678
56778SOL     OW76296   7.690  10.080   1.323 -0.1901 -0.3442 -0.3076
56778SOL    HW176297   7.606  10.124   1.336  0.8172  1.8123 -0.5436
56778SOL    HW276298   7.684  10.041   1.236 -1.2596 -1.0677  0.0684
56779SOL     OW76299   0.053   0.809   2.851  0.1476  0.0899 -0.4674
56779SOL    HW176300   0.137   0.801   2.895  0.4328 -1.7756 -1.2750
56779SOL    HW276301  -0.009   0.768   2.911 -0.3635  2.0749  0.4468
56780SOL     OW76302   4.253   5.064  10.260  0.1484  0.0757  0.3673
56780SOL    HW176303   4.268   4.978  10.298 -1.5906 -0.6188 -0.4352
56780SOL    HW276304   4.159   5.077  10.264 -0.3302 -0.3159 -4.0580
56781SOL     OW76305  11.692   5.739   1.197 -0.2624 -0.6399 -0.0747
56781SOL    HW176306  11.700   5.644   1.191 -1.7833 -0.7052 -2.0102
56781SOL    HW276307  11.727   5.771   1.113 -2.0505  0.2989 -0.5015
56782SOL     OW76308   0.617   8.253   4.225  1.0085  0.0623  0.4462
56782SOL    HW176309   0.649   8.167   4.254 -0.0101  0.0701  1.6838
56782SOL    HW276310   0.539   8.234   4.174  0.6800  0.2470  0.8704
56783SOL     OW76311   0.756  11.572   4.287 -0.4307 -0.1313 -0.5431
56783SOL    HW176312   0.674  11.582   4.336  0.2954 -0.0357  0.7228
56783SOL    HW276313   0.747  11.490   4.240 -1.7669  0.5199 -1.5035
56784SOL     OW76314  11.644   9.384   7.738  0.6619 -0.1705 -0.1450
56784SOL    HW176315  11.634   9.383   7.643  0.5252  1.7310 -0.1998
56784SOL    HW276316  11.554   9.386   7.771  0.6540  2.1381 -0.1277
56785SOL     OW76317   7.179   2.225   1.796  0.4351 -0.1683 -0.4903
56785SOL    HW176318   7.141   2.205   1.710  1.3401 -0.4942 -0.8345
56785SOL    HW276319   7.156   2.151   1.851 -0.8415  0.4198 -0.2068
56786SOL     OW76320   0.347   5.661   9.714  0.1881 -0.1774 -0.0992
56786SOL    HW176321   0.287   5.701   9.651 -1.3634 -0.9616  0.8070
56786SOL    HW276322   0.432   5.700   9.695 -0.5399  0.7405 -1.6534
56787SOL     OW76323   6.739  11.804   5.519 -0.0341 -0.4400  0.1364
56787SOL    HW176324   6.708  11.734   5.578 -1.6137 -0.3575 -0.5275
56787SOL    HW276325   6.803  11.761   5.463  1.5910 -0.4948  1.9502
56788SOL     OW76326   0.682   5.325   3.045 -0.4876  0.2439  0.0718
56788SOL    HW176327   0.722   5.384   3.109 -0.8149  0.0528  0.4615
56788SOL    HW276328   0.700   5.237   3.079 -0.0193  0.1151 -0.4955
56789SOL     OW76329  10.428   8.471   3.737 -0.7024 -0.0258  0.0826
56789SOL    HW176330  10.427   8.555   3.783  0.7309 -0.0077  0.1472
56789SOL    HW276331  10.428   8.495   3.644  1.0743  0.1345  0.0883
56790SOL     OW76332   8.041   8.933   6.438  0.1392  0.1061 -0.0089
56790SOL    HW176333   8.090   8.919   6.357  2.0035 -0.4206  1.1561
56790SOL    HW276334   7.997   9.017   6.425  1.4042  0.6304 -1.0885
56791SOL     OW76335  11.032   3.762   0.076  0.2371  0.5719 -0.5991
56791SOL    HW176336  11.034   3.688   0.136 -0.6863  1.4746  0.5780
56791SOL    HW276337  11.107   3.815   0.101 -1.0575  1.7864  0.9151
56792SOL     OW76338  12.208  10.316   8.401  0.2658  0.0595  0.4217
56792SOL    HW176339  12.265  10.267   8.342 -0.9033 -2.2211  1.0904
56792SOL    HW276340  12.177  10.389   8.348  1.6177 -0.2141 -0.8084
56793SOL     OW76341   4.941   7.134   6.564 -0.1768  0.4403  0.1430
56793SOL    HW176342   5.019   7.169   6.520 -0.5504 -0.0266 -0.9207
56793SOL    HW276343   4.977   7.075   6.631  0.4211 -1.4761 -1.7613
56794SOL     OW76344   1.435   4.822   6.998  0.5396 -0.1406  0.3153
56794SOL    HW176345   1.397   4.893   6.946 -0.9909  0.1055  1.7133
56794SOL    HW276346   1.527   4.847   7.008  0.2974  1.0319 -0.2175
56795SOL     OW76347   8.999   6.524   4.741  0.7785 -0.3501  0.6508
56795SOL    HW176348   9.090   6.541   4.761  0.4701  0.9425  1.0526
56795SOL    HW276349   8.975   6.592   4.678  0.5612 -1.7560 -0.8410
56796SOL     OW76350   3.122  12.349   0.948  0.3705 -0.3091  0.5182
56796SOL    HW176351   3.153  12.274   0.999  1.3632  0.7818  1.6141
56796SOL    HW276352   3.164  12.424   0.990  0.2323  0.7664 -1.1783
56797SOL     OW76353  12.273   2.325   6.349 -0.4679 -0.1068  0.0100
56797SOL    HW176354  12.216   2.371   6.411 -0.2731  0.6947 -0.3877
56797SOL    HW276355  12.292   2.390   6.281  2.0066  0.0681  0.7851
56798SOL     OW76356  11.467   2.005   6.424  0.3947 -0.1247 -0.1472
56798SOL    HW176357  11.510   1.921   6.406 -0.8555 -0.8728  0.2055
56798SOL    HW276358  11.414   2.021   6.345 -0.1496 -0.1983  0.1927
56799SOL     OW76359   1.274   6.049   6.870 -0.2813 -0.5332  0.6131
56799SOL    HW176360   1.207   6.118   6.875 -0.2707 -0.4914  0.1750
56799SOL    HW276361   1.286   6.022   6.961 -0.0317  0.2853  0.8377
56800SOL     OW76362   7.133   6.826  11.300  0.2759  0.5171  0.4564
56800SOL    HW176363   7.049   6.868  11.317 -0.6987 -1.1003 -0.1073
56800SOL    HW276364   7.166   6.803  11.386 -1.6435 -2.0411  0.6422
56801SOL     OW76365   9.541   7.630   6.936  0.4111 -0.1675  0.0201
56801SOL    HW176366   9.455   7.595   6.958  0.6196 -1.8759 -1.6527
56801SOL    HW276367   9.534   7.654   6.844  0.6553  3.2397  0.7698
56802SOL     OW76368  11.360  10.197   7.094 -0.1019  0.2098  0.1680
56802SOL    HW176369  11.420  10.126   7.071 -0.7501  0.1207 -1.4084
56802SOL    HW276370  11.316  10.168   7.174  0.3665 -0.7106  0.0945
56803SOL     OW76371   1.725  11.357   5.494  0.2582  0.4859  0.4221
56803SOL    HW176372   1.635  11.348   5.524 -0.0119 -2.5078 -0.9419
56803SOL    HW276373   1.777  11.309   5.559  0.1568 -2.2948 -1.3817
56804SOL     OW76374   8.100   6.622  10.545 -0.8530  0.5665 -0.1725
56804SOL    HW176375   8.061   6.536  10.561 -1.9548  1.0561 -0.0854
56804SOL    HW276376   8.159   6.609  10.471 -1.6418 -0.1025 -0.7001
56805SOL     OW76377   2.026   4.121  12.462  0.1552 -0.1281  0.6790
56805SOL    HW176378   2.063   4.048  12.511  0.7176  0.9700  1.9768
56805SOL    HW276379   2.090   4.191  12.471 -1.4322  1.2982  1.5533
56806SOL     OW76380   5.350   1.982  11.031 -0.9695 -0.3495 -0.0162
56806SOL    HW176381   5.399   1.912  11.073 -0.1760  1.1325  1.7031
56806SOL    HW276382   5.267   1.942  11.004 -0.9597 -1.6932  1.8103
56807SOL     OW76383   9.378  10.332   4.545  0.3226 -0.1330 -0.4486
56807SOL    HW176384   9.319  10.397   4.583  0.6703  0.0471 -0.2059
56807SOL    HW276385   9.466  10.369   4.559  0.4969 -0.4485 -0.7019
56808SOL     OW76386   1.463   8.558   1.381  0.0982 -0.3500 -0.4269
56808SOL    HW176387   1.406   8.630   1.352  1.0224  0.0705 -1.2836
56808SOL    HW276388   1.484   8.511   1.300  1.3983 -0.1602 -0.2156
56809SOL     OW76389   0.826  11.061   8.287 -0.1407  0.2551 -0.4875
56809SOL    HW176390   0.912  11.021   8.277  1.4412  2.3557  2.7673
56809SOL    HW276391   0.766  10.988   8.301  1.6261 -1.1926 -0.1164
56810SOL     OW76392  10.663   4.552   5.541 -0.2105  0.9642  0.3267
56810SOL    HW176393  10.668   4.577   5.449 -0.5606  0.8031  0.2638
56810SOL    HW276394  10.603   4.478   5.543  0.3865  0.4755  0.5871
56811SOL     OW76395   4.292   9.352   9.386  0.5941 -0.3299 -0.3674
56811SOL    HW176396   4.301   9.325   9.478  2.7268 -3.1155 -1.2467
56811SOL    HW276397   4.247   9.436   9.390 -3.5593 -2.3038  3.0015
56812SOL     OW76398   0.060   9.999  11.725  0.2151  0.0819  0.3229
56812SOL    HW176399  -0.031  10.025  11.739  0.3862  1.6960 -1.1114
56812SOL    HW276400   0.057   9.905  11.708 -1.1789  0.1171  0.3040
56813SOL     OW76401   9.426   1.104   0.360 -0.3525  0.1493 -0.3299
56813SOL    HW176402   9.370   1.033   0.329  0.6022 -0.9387  0.3494
56813SOL    HW276403   9.365   1.174   0.383 -1.2265  0.0976 -2.3189
56814SOL     OW76404   7.190   2.308   8.013  0.0373 -0.3261  0.0017
56814SOL    HW176405   7.207   2.244   7.944 -0.3119 -0.4079 -0.0101
56814SOL    HW276406   7.215   2.263   8.094 -2.8953 -1.5960  0.3374
56815SOL     OW76407   7.822   0.834   6.763  0.3153 -0.2368  0.5711
56815SOL    HW176408   7.844   0.825   6.670 -1.4743 -0.8340  0.1504
56815SOL    HW276409   7.823   0.928   6.779  1.3328 -0.1681  0.1389
56816SOL     OW76410   0.640   8.737  11.890 -0.6550 -0.3210  0.4050
56816SOL    HW176411   0.593   8.756  11.971 -0.4097 -0.7169  0.6428
56816SOL    HW276412   0.572   8.737  11.822 -0.8577  0.0294  0.6064
56817SOL     OW76413  11.288   4.458  11.780  0.4874  0.0555  0.3022
56817SOL    HW176414  11.358   4.477  11.843  0.3264  0.5202  0.3490
56817SOL    HW276415  11.333   4.454  11.696  0.8894 -1.7392  0.5640
56818SOL     OW76416   5.786  10.690   0.099  0.2555 -0.5069 -0.0500
56818SOL    HW176417   5.749  10.607   0.131  1.5233 -1.3325 -0.6263
56818SOL    HW276418   5.719  10.725   0.041 -0.6751 -0.6604  0.8907
56819SOL     OW76419   5.099   8.118   2.393  0.9171 -0.4950 -0.2463
56819SOL    HW176420   5.156   8.159   2.327 -2.5605  0.9212 -2.6856
56819SOL    HW276421   5.028   8.181   2.406 -0.3212 -2.2435  2.3686
56820SOL     OW76422   6.705  10.018   1.269  0.4252  0.2053 -0.1290
56820SOL    HW176423   6.714  10.086   1.337  1.5795  0.8435 -0.8867
56820SOL    HW276424   6.714   9.935   1.317 -1.8882  0.4862  0.9497
56821SOL     OW76425   5.893   8.985   0.360  0.1689  0.1833 -0.0657
56821SOL    HW176426   5.956   8.955   0.294  0.0316 -0.6126  0.1622
56821SOL    HW276427   5.877   9.077   0.337  0.6826  0.1234 -0.6995
56822SOL     OW76428   3.997   9.952   0.244  0.5546  0.5766 -0.1362
56822SOL    HW176429   3.998   9.926   0.151  1.2892 -2.2270  0.5459
56822SOL    HW276430   4.085   9.986   0.260  1.2196 -1.1036  0.0034
56823SOL     OW76431  10.664   1.861   3.202 -0.6043 -0.0971  0.5178
56823SOL    HW176432  10.659   1.927   3.271  1.8617  2.2241 -1.3165
56823SOL    HW276433  10.715   1.790   3.241  2.4291  1.9785  0.6872
56824SOL     OW76434   3.878  12.473  12.480  0.0481 -0.3759  0.2528
56824SOL    HW176435   3.925  12.548  12.444 -0.2769  0.3443  1.3006
56824SOL    HW276436   3.864  12.415  12.404  0.1207  0.7089 -0.6081
56825SOL     OW76437   1.766   8.328   9.196  0.1892  0.5894  0.3425
56825SOL    HW176438   1.830   8.257   9.204  0.7777  1.1595  0.8012
56825SOL    HW276439   1.753   8.360   9.286 -1.6474 -0.2783  0.4380
56826SOL     OW76440   8.402   8.284   6.095 -0.5380  0.8055 -0.1672
56826SOL    HW176441   8.472   8.277   6.029 -0.3329  0.6126  0.0696
56826SOL    HW276442   8.448   8.305   6.176 -0.5642 -1.0227  0.3664
56827SOL     OW76443  11.026  11.105   3.942  0.0326  0.8437  0.0704
56827SOL    HW176444  11.011  11.025   3.891 -0.8115  0.5882  0.7048
56827SOL    HW276445  11.102  11.086   3.996  0.5543  0.8973 -0.6234
56828SOL     OW76446  12.313  10.601   2.850  0.7783  0.4213 -0.1991
56828SOL    HW176447  12.228  10.563   2.828  0.0698  1.3752  0.7812
56828SOL    HW276448  12.301  10.638   2.937  3.0060 -1.8474  1.2063
56829SOL     OW76449   5.018  11.008   2.876 -0.4860  0.1322  0.1895
56829SOL    HW176450   4.990  11.098   2.894 -0.0293  0.6697 -1.6057
56829SOL    HW276451   5.111  11.008   2.897 -0.4182  0.1685 -0.1076
56830SOL     OW76452   5.626   6.430   3.829 -0.0943 -0.1204 -0.4396
56830SOL    HW176453   5.683   6.359   3.857 -1.1226 -0.6744  0.3394
56830SOL    HW276454   5.641   6.438   3.735  0.5929 -0.8537 -0.4002
56831SOL     OW76455  11.077   4.817   8.774 -0.1666  0.1232 -0.1448
56831SOL    HW176456  11.011   4.872   8.817 -1.0225 -0.2299 -0.9817
56831SOL    HW276457  11.146   4.809   8.839 -0.7941  0.7821  0.6333
56832SOL     OW76458   3.968  12.195   8.798 -0.1088 -0.2439  0.0984
56832SOL    HW176459   3.957  12.189   8.893 -0.6477 -2.4431 -0.0658
56832SOL    HW276460   3.894  12.247   8.768 -0.6783 -0.6624  0.7617
56833SOL     OW76461   5.763   4.478   8.107  0.4752  0.4664  0.1137
56833SOL    HW176462   5.788   4.422   8.034  0.3339  0.7062 -0.1180
56833SOL    HW276463   5.796   4.432   8.184  0.4975  0.1386 -0.0863
56834SOL     OW76464  11.571   3.195   0.911 -0.5113 -0.4911  0.0054
56834SOL    HW176465  11.499   3.246   0.874  1.3193  2.4085  0.1517
56834SOL    HW276466  11.551   3.190   1.004 -0.1596  1.0947  0.1997
56835SOL     OW76467   2.042   7.733  10.592  0.3385  0.4391  0.5993
56835SOL    HW176468   2.045   7.824  10.562 -0.8676  0.5805  0.8948
56835SOL    HW276469   1.984   7.734  10.667 -1.0306 -0.8532 -0.3964
56836SOL     OW76470  10.348   6.132  11.704  0.5790 -0.1018  0.9228
56836SOL    HW176471  10.377   6.087  11.625  0.2940 -1.2537  1.4641
56836SOL    HW276472  10.300   6.209  11.672  0.7353 -0.3914 -0.0080
56837SOL     OW76473   1.681   8.119   7.931  0.4643 -0.1687 -0.2487
56837SOL    HW176474   1.692   8.050   7.866 -2.9466 -1.2288  0.1131
56837SOL    HW276475   1.703   8.076   8.014 -1.2262 -0.7642 -0.0744
56838SOL     OW76476  10.255  11.643   4.526  0.3315 -0.2131  0.2926
56838SOL    HW176477  10.328  11.610   4.474 -0.6409  0.0128 -1.2774
56838SOL    HW276478  10.183  11.653   4.463 -0.5499  1.1831  1.4597
56839SOL     OW76479   8.351   5.569   5.846 -0.2184  0.2326  0.2181
56839SOL    HW176480   8.383   5.656   5.871 -0.4621  0.1683  0.7662
56839SOL    HW276481   8.259   5.583   5.824 -0.0426  0.2618 -0.5209
56840SOL     OW76482   4.853   5.029   2.458 -0.0804 -0.6630 -0.0672
56840SOL    HW176483   4.796   5.072   2.394 -0.2768 -0.8174  0.0025
56840SOL    HW276484   4.923   5.092   2.474 -1.0286  0.1636  0.9796
56841SOL     OW76485   9.827   1.983   6.421 -0.3131  0.1053  0.2976
56841SOL    HW176486   9.902   2.025   6.462  0.6639 -0.7549 -0.5684
56841SOL    HW276487   9.814   2.032   6.339  0.0755 -0.5155 -0.1373
56842SOL     OW76488   4.344  10.562  11.908 -0.2079  0.2511  0.6510
56842SOL    HW176489   4.396  10.482  11.915 -0.7671 -0.2838 -0.8545
56842SOL    HW276490   4.253  10.532  11.904 -0.5134  1.0517  1.2721
56843SOL     OW76491  11.610   9.115   1.483  0.2367  0.8970  0.2428
56843SOL    HW176492  11.565   9.200   1.487  1.7237  1.7031  0.4485
56843SOL    HW276493  11.694   9.134   1.442  0.1164 -0.7193 -0.8263
56844SOL     OW76494   0.648  12.172   7.239  0.0159 -0.2797 -0.0314
56844SOL    HW176495   0.603  12.211   7.164  0.2562 -2.7923 -1.6023
56844SOL    HW276496   0.684  12.090   7.205 -0.1056 -1.6822  2.9229
56845SOL     OW76497  12.199   9.536   4.239 -0.3927 -0.1578 -0.5214
56845SOL    HW176498  12.285   9.575   4.258 -0.0603 -1.4465  0.8432
56845SOL    HW276499  12.219   9.454   4.194 -0.9628 -0.0185 -1.0447
56846SOL     OW76500  11.201   0.318   0.796  0.0333  0.0308 -0.8383
56846SOL    HW176501  11.114   0.335   0.832  0.6370  0.2679  0.5798
56846SOL    HW276502  11.202   0.224   0.780  0.6991 -0.6836  2.6206
56847SOL     OW76503   0.003   2.724   0.744 -0.5915 -0.4470 -0.2792
56847SOL    HW176504   0.048   2.731   0.660  0.3091  0.3145  0.2569
56847SOL    HW276505   0.025   2.636   0.775  0.5814 -0.0785 -0.0098
56848SOL     OW76506   5.154  12.373  11.627  0.2132  0.3289 -0.2918
56848SOL    HW176507   5.095  12.303  11.651 -1.9590  2.2737  0.3924
56848SOL    HW276508   5.220  12.375  11.696  0.9106 -1.6140 -0.8548
56849SOL     OW76509   6.636   6.923  10.906 -0.3445  0.7741  0.2410
56849SOL    HW176510   6.607   6.839  10.871 -0.1078  1.4506 -1.7600
56849SOL    HW276511   6.582   6.937  10.983 -1.7517 -0.3364 -0.4902
56850SOL     OW76512   0.788   1.039   3.499 -0.7448 -0.0193  0.2920
56850SOL    HW176513   0.836   1.064   3.578 -0.3731 -0.8604  0.3465
56850SOL    HW276514   0.793   0.944   3.497  1.2452  0.0399 -1.9558
56851SOL     OW76515   9.428   4.589  10.230 -0.4134  0.1537 -0.6151
56851SOL    HW176516   9.377   4.626  10.157 -1.0642 -0.7554 -0.6370
56851SOL    HW276517   9.466   4.665  10.273 -1.2646  0.8153 -0.9943
56852SOL     OW76518   9.017   2.784   0.437 -0.2709 -0.0741  0.1460
56852SOL    HW176519   9.060   2.735   0.367  0.1115  0.6897 -0.1656
56852SOL    HW276520   8.975   2.857   0.392  0.3484  0.6708  0.7501
56853SOL     OW76521  10.485   6.133   2.783  0.0092 -0.0677  0.2757
56853SOL    HW176522  10.477   6.135   2.879 -0.3872 -0.1241  0.2446
56853SOL    HW276523  10.579   6.134   2.767  0.0815  1.2128  0.6443
56854SOL     OW76524   4.551   8.633  10.164  0.0587 -0.0631  0.1500
56854SOL    HW176525   4.644   8.646  10.178  0.2063  0.5646 -1.2555
56854SOL    HW276526   4.519   8.718  10.132 -0.6514 -0.7435 -1.0085
56855SOL     OW76527   4.178   6.826   8.315 -0.1647  0.3510 -0.2961
56855SOL    HW176528   4.263   6.869   8.312 -0.0567  0.0737 -2.1596
56855SOL    HW276529   4.118   6.894   8.344  0.4617  0.9409 -0.3676
56856SOL     OW76530   7.609   4.708   7.087 -0.3372 -0.1289  0.0767
56856SOL    HW176531   7.634   4.760   7.011  0.5418  0.7285  0.9236
56856SOL    HW276532   7.518   4.730   7.104 -0.0923  0.8406  0.1729
56857SOL     OW76533   7.870   9.188  10.546  0.1573 -0.1831 -0.2411
56857SOL    HW176534   7.787   9.146  10.524 -0.3182  0.6194 -0.0336
56857SOL    HW276535   7.895   9.150  10.630 -1.4588  1.5581  1.1191
56858SOL     OW76536  10.893  11.603   8.674 -0.2846 -0.5414  0.1857
56858SOL    HW176537  10.965  11.605   8.736 -0.4772  0.1762  0.3884
56858SOL    HW276538  10.885  11.693   8.642 -1.0954 -0.6077  0.1766
56859SOL     OW76539  12.282   1.725   2.688  0.4403 -0.9552  0.2201
56859SOL    HW176540  12.214   1.671   2.728 -0.6376  2.3379  3.3138
56859SOL    HW276541  12.362   1.699   2.733 -0.0408 -0.1399  1.5808
56860SOL     OW76542  11.997   5.479   6.797 -0.1140  0.5599  0.3889
56860SOL    HW176543  11.925   5.518   6.847 -0.7783 -0.6784  0.4267
56860SOL    HW276544  11.972   5.491   6.706 -0.0400  0.7204  0.3887
56861SOL     OW76545   0.958   0.784   5.710 -0.1000 -0.3436  0.2552
56861SOL    HW176546   0.884   0.782   5.650  0.4739 -0.6400 -0.4568
56861SOL    HW276547   1.034   0.801   5.655  0.3694 -0.0459  0.9742
56862SOL     OW76548   4.885   4.808   5.077 -0.4364  0.0626 -0.0188
56862SOL    HW176549   4.926   4.871   5.135 -0.6359  1.0375 -0.8941
56862SOL    HW276550   4.847   4.742   5.135 -1.3885  1.4615  1.0103
56863SOL     OW76551  12.227   7.444   9.573 -0.4454 -0.2659  0.0209
56863SOL    HW176552  12.145   7.443   9.523 -0.4244  1.0291 -0.0856
56863SOL    HW276553  12.212   7.510   9.641  1.4483  2.1845 -1.7266
56864SOL     OW76554  10.017   7.994   5.587  0.0561 -0.2147  0.8028
56864SOL    HW176555  10.030   8.006   5.681 -1.6710  0.9864  0.9494
56864SOL    HW276556   9.974   7.909   5.579  1.5968 -1.0408  0.9148
56865SOL     OW76557  11.301  10.949   2.265  0.3588 -0.4150  0.2708
56865SOL    HW176558  11.305  10.888   2.339 -1.6627 -0.2122  0.6038
56865SOL    HW276559  11.292  11.035   2.305 -1.0009 -0.3236 -0.1649
56866SOL     OW76560   6.869   8.108   7.824  0.3278  0.2024  0.0941
56866SOL    HW176561   6.850   8.110   7.918  0.9544 -0.6041  0.2422
56866SOL    HW276562   6.919   8.028   7.810  2.2172  1.4206 -0.5531
56867SOL     OW76563   6.276   0.982   3.761  0.0370 -0.4238  0.2451
56867SOL    HW176564   6.278   1.077   3.751 -1.2807 -0.4926 -0.8808
56867SOL    HW276565   6.304   0.967   3.852  1.7301  0.9272  0.0028
56868SOL     OW76566   6.321   4.307   1.978  0.0082 -0.5015 -0.6532
56868SOL    HW176567   6.327   4.366   1.902  1.8620 -1.4625 -1.3067
56868SOL    HW276568   6.244   4.254   1.961 -0.4033  0.2431 -1.1632
56869SOL     OW76569   7.968   4.005  10.964 -0.8157 -0.4643 -0.0725
56869SOL    HW176570   7.926   3.965  11.040 -0.9794  0.3916  0.2985
56869SOL    HW276571   7.931   3.958  10.889 -1.0548 -0.9508  0.3412
56870SOL     OW76572   8.036  12.202   2.502  0.2382 -0.1144 -0.0280
56870SOL    HW176573   8.007  12.279   2.550 -0.1406 -1.7357  2.5154
56870SOL    HW276574   7.968  12.189   2.435 -0.3599  1.0036  0.3398
56871SOL     OW76575  10.558   1.184   4.906  0.1403  0.0737  0.3330
56871SOL    HW176576  10.613   1.258   4.932 -1.1839  0.2920  2.8212
56871SOL    HW276577  10.470   1.220   4.901 -0.1410 -0.7375 -1.4397
56872SOL     OW76578   0.736   9.779  10.194  0.1011 -0.2090 -0.4332
56872SOL    HW176579   0.764   9.772  10.285  1.4553  1.1545 -0.6848
56872SOL    HW276580   0.712   9.871  10.184  2.1379  0.2344 -1.9635
56873SOL     OW76581   1.423   2.434   2.819  0.6701  0.0880 -0.4189
56873SOL    HW176582   1.348   2.492   2.827 -0.4665 -1.5148  1.4306
56873SOL    HW276583   1.457   2.450   2.731 -1.5885  1.1668 -1.1495
56874SOL     OW76584   3.801   8.034   9.234  0.1187 -0.0399 -0.1102
56874SOL    HW176585   3.737   8.080   9.180 -0.7581 -0.8949  0.1697
56874SOL    HW276586   3.839   7.969   9.175 -1.7202 -1.8161  0.5249
56875SOL     OW76587   4.495   3.681   5.049 -0.3699 -0.0474 -0.3539
56875SOL    HW176588   4.412   3.709   5.087 -1.1668 -0.2822 -1.8458
56875SOL    HW276589   4.527   3.757   5.001  0.0344 -0.1031 -0.1706
56876SOL     OW76590   7.978  10.054   8.602  0.2613 -0.4286  0.3005
56876SOL    HW176591   8.044  10.078   8.667  0.2629 -1.8211  0.8382
56876SOL    HW276592   7.951   9.966   8.626 -1.8097  0.0993  0.0947
56877SOL     OW76593   1.266   1.562  10.317  0.3704  0.2922  0.3251
56877SOL    HW176594   1.323   1.634  10.290  1.5867 -0.4622  0.8142
56877SOL    HW276595   1.270   1.500  10.244  0.9467 -0.1911  0.7579
56878SOL     OW76596   8.560   3.566   9.232  0.0138  0.1710 -0.1229
56878SOL    HW176597   8.570   3.472   9.217 -3.3054 -0.0690 -1.6423
56878SOL    HW276598   8.495   3.572   9.302 -2.4881  1.2022 -2.3787
56879SOL     OW76599   8.735  10.524  11.239  0.2250 -0.2413  0.2607
56879SOL    HW176600   8.713  10.592  11.303  3.8506  0.6298  0.7701
56879SOL    HW276601   8.751  10.571  11.158 -0.1852 -0.8949 -0.2200
56880SOL     OW76602  11.594   5.802   6.361 -0.1433 -0.4465 -0.3866
56880SOL    HW176603  11.652   5.830   6.291  1.3649 -0.9939  0.6065
56880SOL    HW276604  11.580   5.880   6.413  1.6030 -0.7784  0.6604
56881SOL     OW76605   9.185   5.678  11.354  0.2306 -0.5920 -0.0026
56881SOL    HW176606   9.219   5.606  11.408 -0.0743 -1.2794 -0.7076
56881SOL    HW276607   9.123   5.636  11.294 -1.3171  0.5112  0.7426
56882SOL     OW76608   6.802   0.190  12.057 -0.0251 -0.5592 -0.9570
56882SOL    HW176609   6.813   0.177  12.151 -1.9439  0.0497 -0.6066
56882SOL    HW276610   6.867   0.132  12.017  1.0194 -0.6202  0.7309
56883SOL     OW76611   6.119   6.872   5.446 -0.5507  0.4261  0.1628
56883SOL    HW176612   6.062   6.944   5.474  0.1958  1.3584 -0.6398
56883SOL    HW276613   6.059   6.806   5.411 -1.2084  0.8965  0.3817
56884SOL     OW76614   7.745   5.568   9.217 -0.1015  0.2486 -0.3033
56884SOL    HW176615   7.732   5.609   9.132 -1.8407  1.8479  0.6602
56884SOL    HW276616   7.762   5.476   9.198  1.6905  0.9422 -2.4464
56885SOL     OW76617   1.253  10.719   3.056 -0.4067 -0.3461  0.2709
56885SOL    HW176618   1.226  10.707   2.965 -0.0175  0.3702  0.0557
56885SOL    HW276619   1.308  10.643   3.075 -1.4747 -1.1376  0.3020
56886SOL     OW76620   3.874   2.179   2.550 -0.1905 -0.1628  0.3507
56886SOL    HW176621   3.847   2.087   2.551 -0.1642 -0.1819  1.9517
56886SOL    HW276622   3.847   2.211   2.464 -2.4491 -1.0212  0.6718
56887SOL     OW76623  10.915  10.632   3.839  0.4215  0.7859  0.0124
56887SOL    HW176624  11.001  10.593   3.854  0.7446  0.7498 -1.7802
56887SOL    HW276625  10.868  10.566   3.788  0.7969  2.4311 -2.6166
56888SOL     OW76626   1.370   7.815   9.591  0.0127  0.8651  0.6014
56888SOL    HW176627   1.402   7.883   9.532  0.8106  0.0708  0.0918
56888SOL    HW276628   1.425   7.821   9.668 -0.3438  1.2086  0.8370
56889SOL     OW76629   5.467  11.350  12.392 -0.6995 -0.2664 -0.6008
56889SOL    HW176630   5.399  11.320  12.452 -0.3025  1.2171  0.6560
56889SOL    HW276631   5.546  11.303  12.420 -0.4675  0.5816  0.2156
56890SOL     OW76632   2.671   9.628   4.612 -0.6266  0.4481 -0.4638
56890SOL    HW176633   2.672   9.698   4.547 -1.2500  0.0983 -0.8465
56890SOL    HW276634   2.579   9.617   4.636 -0.5229 -0.1644 -0.3199
56891SOL     OW76635   7.307   7.020  11.532 -0.1205  0.0123  0.2773
56891SOL    HW176636   7.369   7.074  11.581 -1.0804  0.2328  1.2819
56891SOL    HW276637   7.224   7.028  11.580 -0.6821 -1.0916 -0.4538
56892SOL     OW76638   6.913   5.027   3.585 -0.3312  0.2535 -1.0470
56892SOL    HW176639   7.002   5.028   3.619 -0.6968  0.4114 -0.0641
56892SOL    HW276640   6.900   5.115   3.547 -0.0426  0.1978 -1.2742
56893SOL     OW76641   8.152   7.846   2.562  0.7551  0.2161  0.0201
56893SOL    HW176642   8.185   7.936   2.558 -0.9136  0.8205 -1.4031
56893SOL    HW276643   8.155   7.816   2.471  0.3529 -0.8120  0.3389
56894SOL     OW76644   4.915   2.942   5.951 -0.9304  0.0595 -0.0346
56894SOL    HW176645   4.879   2.887   6.020 -1.4709  0.7763  0.2621
56894SOL    HW276646   4.864   2.919   5.873  0.7941 -2.0000 -0.6694
56895SOL     OW76647   8.961   1.508   2.289  0.2094  0.0750 -0.5007
56895SOL    HW176648   8.880   1.478   2.329 -0.2149 -0.2952 -1.5992
56895SOL    HW276649   8.938   1.523   2.197  1.2776  0.3922 -0.7304
56896SOL     OW76650   7.602   0.799   3.921 -0.3863 -0.0911  0.0569
56896SOL    HW176651   7.693   0.789   3.950 -0.6988 -0.1721  1.0499
56896SOL    HW276652   7.606   0.863   3.851  0.4137  0.0782  0.2476
56897SOL     OW76653  10.579   6.544   1.685  0.3472 -0.2662  0.9656
56897SOL    HW176654  10.661   6.510   1.648  0.3100 -0.4681  1.0659
56897SOL    HW276655  10.545   6.602   1.618  0.5505 -0.2188  0.9028
56898SOL     OW76656   6.370   7.230   7.705 -0.2551 -0.2988 -0.3871
56898SOL    HW176657   6.424   7.151   7.701  0.4221  0.1936 -1.3151
56898SOL    HW276658   6.424   7.298   7.666 -0.6503  0.7452  0.8393
56899SOL     OW76659   0.176   7.774   1.141  0.0452 -0.1721  0.3813
56899SOL    HW176660   0.126   7.733   1.212  0.3068 -0.3310  0.4727
56899SOL    HW276661   0.243   7.826   1.185  0.7277 -0.9121  0.2463
56900SOL     OW76662   0.125   3.660   5.287  0.5796  0.8570  0.0580
56900SOL    HW176663   0.079   3.729   5.336 -0.0379 -0.1456  0.9274
56900SOL    HW276664   0.127   3.692   5.197  0.1616  1.9379  0.4147
56901SOL     OW76665   9.582   9.176  11.980 -0.1568  0.6121 -0.4697
56901SOL    HW176666   9.527   9.207  12.052  1.7844  0.8387  0.9860
56901SOL    HW276667   9.588   9.081  11.994 -0.2960  0.5677 -0.7117
56902SOL     OW76668  11.321   6.850   2.071 -0.0821 -0.1247  0.0013
56902SOL    HW176669  11.269   6.780   2.111  0.5337  0.1310  1.2909
56902SOL    HW276670  11.290   6.930   2.113  0.3079  0.2031 -0.3298
56903SOL     OW76671   5.024   1.616   9.766 -0.2399  0.0969  0.2969
56903SOL    HW176672   5.029   1.654   9.679 -0.7879 -2.3050 -0.8493
56903SOL    HW276673   4.990   1.528   9.753  0.4056 -0.6345  2.8661
56904SOL     OW76674   8.301   9.850  11.355  0.1657 -0.3943 -0.4736
56904SOL    HW176675   8.295   9.787  11.283  1.3880 -0.4264 -0.5634
56904SOL    HW276676   8.339   9.928  11.315  3.4927 -1.2954  0.6160
56905SOL     OW76677   1.727   3.960  11.683 -0.9830  0.5897 -0.3299
56905SOL    HW176678   1.780   4.038  11.667 -0.0882  0.2481  0.8455
56905SOL    HW276679   1.665   3.987  11.750 -1.2461  0.5315 -0.5479
56906SOL     OW76680  10.725   2.646  12.041  0.5734  0.4373 -0.0180
56906SOL    HW176681  10.656   2.603  12.093  0.6264 -0.4080 -0.6211
56906SOL    HW276682  10.806   2.611  12.076  0.6184  0.0557 -0.4836
56907SOL     OW76683   0.660   9.805   7.452 -0.1617  0.0356  0.4039
56907SOL    HW176684   0.713   9.738   7.409  0.1391 -1.2345  2.5955
56907SOL    HW276685   0.660   9.879   7.391 -0.5356 -1.9312 -2.1360
56908SOL     OW76686   9.363   5.722   9.800 -0.6669 -0.4024 -0.4301
56908SOL    HW176687   9.315   5.665   9.860 -2.8835  1.0312 -0.6841
56908SOL    HW276688   9.411   5.782   9.856 -1.5546 -0.0145 -0.0520
56909SOL     OW76689  10.153   0.492   2.528 -0.7352  0.0142 -0.5140
56909SOL    HW176690  10.107   0.489   2.444 -0.0651  1.1085 -0.9472
56909SOL    HW276691  10.204   0.411   2.530 -0.9683 -0.1507 -1.0428
56910SOL     OW76692   3.060   0.335   2.785 -0.2453 -0.4909 -0.0635
56910SOL    HW176693   3.051   0.420   2.742  0.1640  0.1096  0.9958
56910SOL    HW276694   3.154   0.315   2.778 -0.1003 -0.1861  0.8935
56911SOL     OW76695   8.057  11.385   3.684  0.2981  0.3478  0.2232
56911SOL    HW176696   8.099  11.386   3.770  0.7241 -2.3082  0.1522
56911SOL    HW276697   8.129  11.377   3.622 -0.0803  0.7209 -0.2695
56912SOL     OW76698   2.302   4.361   8.680  0.0860  0.0062  0.6213
56912SOL    HW176699   2.384   4.326   8.714  0.8059  2.5344  1.7012
56912SOL    HW276700   2.327   4.406   8.599  0.3771  3.0057  2.2367
56913SOL     OW76701   0.991   5.084   3.102  1.0803  0.8388  0.3785
56913SOL    HW176702   1.017   5.168   3.139 -1.6458  1.7907  0.3602
56913SOL    HW276703   0.919   5.054   3.158  0.2067 -0.1472 -1.1856
56914SOL     OW76704  11.307   9.302   9.493  0.1403  0.1106 -0.3673
56914SOL    HW176705  11.242   9.293   9.563  0.1243 -1.3011 -0.5479
56914SOL    HW276706  11.288   9.387   9.454 -0.6453  0.3710  0.5383
56915SOL     OW76707   1.511  10.219   7.097 -0.4297  0.0761 -0.0835
56915SOL    HW176708   1.452  10.269   7.041 -1.5459 -0.3963  0.6293
56915SOL    HW276709   1.468  10.218   7.182  0.1838 -1.0379  0.2363
56916SOL     OW76710   8.955   7.380  10.675  0.5408 -0.1356 -0.0802
56916SOL    HW176711   9.032   7.323  10.682  0.2433 -0.7648 -1.5216
56916SOL    HW276712   8.974   7.436  10.600  0.5317  1.2296  0.9098
56917SOL     OW76713   6.464  12.464   0.852 -0.3444 -0.3166  0.7237
56917SOL    HW176714   6.386  12.482   0.800  0.2716 -0.2588 -0.2151
56917SOL    HW276715   6.535  12.462   0.788  0.9103  2.7119  1.8624
56918SOL     OW76716   5.681   2.819  10.651  0.0562 -0.4358  0.0259
56918SOL    HW176717   5.723   2.825  10.566  1.2613  0.5005  0.6495
56918SOL    HW276718   5.648   2.908  10.668  0.7171 -0.3556  0.9534
56919SOL     OW76719  10.356  11.404  12.426 -0.0692  0.9424 -1.0921
56919SOL    HW176720  10.443  11.370  12.445 -0.5962 -0.0965 -0.4129
56919SOL    HW276721  10.350  11.484  12.479 -0.2906 -0.1450  0.6185
56920SOL     OW76722   5.170   5.736   4.495  0.0572 -0.7211 -0.3738
56920SOL    HW176723   5.174   5.776   4.408 -0.9271  1.5135  0.5318
56920SOL    HW276724   5.262   5.727   4.521  0.3407  0.6447 -0.7978
56921SOL     OW76725   9.494  10.034   7.057  0.7137 -0.1573 -0.4395
56921SOL    HW176726   9.519   9.951   7.017 -1.3062 -0.6475 -0.7989
56921SOL    HW276727   9.504  10.098   6.986 -1.0117 -0.7103 -1.2506
56922SOL     OW76728   2.955   7.516   1.432 -0.0396 -0.0506 -0.1743
56922SOL    HW176729   3.027   7.462   1.464  0.4559  0.8892  0.3650
56922SOL    HW276730   2.928   7.568   1.508 -0.2975  0.6638 -0.7389
56923SOL     OW76731   1.834   3.080   2.250 -0.2157  0.4667  0.1271
56923SOL    HW176732   1.918   3.054   2.211  0.4322  1.4290  0.8228
56923SOL    HW276733   1.776   3.094   2.175  1.1064  2.6239 -0.5983
56924SOL     OW76734   1.561   7.854   3.101  0.0276 -0.4975  0.0165
56924SOL    HW176735   1.473   7.879   3.073 -0.5004 -1.6716  0.5407
56924SOL    HW276736   1.591   7.793   3.033  0.6947  0.3838 -0.4876
56925SOL     OW76737   2.865  10.138   4.759 -0.6262 -0.1763  0.2134
56925SOL    HW176738   2.936  10.074   4.749 -0.1823  0.3643 -0.1777
56925SOL    HW276739   2.785  10.086   4.746 -0.2726 -0.6450 -0.1759
56926SOL     OW76740   2.118   4.085   3.103  0.5123  0.0664  0.3846
56926SOL    HW176741   2.124   4.133   3.021  1.8614 -0.9273 -0.1322
56926SOL    HW276742   2.119   4.153   3.171 -0.8918  0.9174 -0.3877
56927SOL     OW76743   6.221   8.083  12.065  0.1408 -0.2028 -0.2894
56927SOL    HW176744   6.229   8.077  12.160  1.1859 -0.9637 -0.4073
56927SOL    HW276745   6.127   8.096  12.049  0.1957  2.5674  0.9489
56928SOL     OW76746   7.863   6.202   0.502 -0.0550 -0.1026  0.2539
56928SOL    HW176747   7.824   6.268   0.446  0.5369 -0.4400 -0.5826
56928SOL    HW276748   7.808   6.201   0.581  1.1449  2.9083  1.2782
56929SOL     OW76749   7.889   6.499   7.909 -0.0881 -0.4800  0.1646
56929SOL    HW176750   7.865   6.589   7.932  0.4942 -0.3366  0.2223
56929SOL    HW276751   7.830   6.476   7.837 -0.5731 -0.2267  0.4788
56930SOL     OW76752   6.194   7.372   2.383  0.7138 -0.4728  0.3879
56930SOL    HW176753   6.222   7.446   2.437  2.8424 -1.7678  1.2134
56930SOL    HW276754   6.141   7.318   2.442  2.2105 -1.3854  0.9570
56931SOL     OW76755   2.071   2.653   0.930 -0.2801 -0.4358  0.2502
56931SOL    HW176756   2.061   2.584   0.865  3.2523 -0.2963 -0.6624
56931SOL    HW276757   2.111   2.610   1.005 -0.8003  0.0970  0.8441
56932SOL     OW76758  11.583   7.601   4.534 -0.2036 -0.2622 -0.1398
56932SOL    HW176759  11.638   7.527   4.506 -1.4546 -1.7029  1.0459
56932SOL    HW276760  11.592   7.602   4.630 -1.2337  0.2944 -0.0367
56933SOL     OW76761   1.156   1.614   7.514 -0.0065 -0.5474  0.1491
56933SOL    HW176762   1.153   1.664   7.433  0.4361 -1.5254 -0.4932
56933SOL    HW276763   1.237   1.640   7.556 -0.8297  0.9039  0.9350
56934SOL     OW76764   8.755   2.946  11.669  0.4745  0.2051 -0.3676
56934SOL    HW176765   8.834   2.983  11.629  0.9115 -0.2049  0.1105
56934SOL    HW276766   8.719   2.890  11.601  0.0983  1.0776 -0.9076
56935SOL     OW76767   0.768   8.656   1.475 -0.1053 -0.3605 -1.4553
56935SOL    HW176768   0.750   8.563   1.490 -0.8257 -0.0818 -0.4928
56935SOL    HW276769   0.690   8.701   1.506  2.1625  0.9518  3.2138
56936SOL     OW76770   0.872   8.323  11.356 -0.1864  0.9517  0.1514
56936SOL    HW176771   0.820   8.359  11.284  0.3352  0.0677 -0.6901
56936SOL    HW276772   0.821   8.344  11.434 -0.5400  2.3379 -0.4117
56937SOL     OW76773   8.743   2.219   2.155 -0.0597 -0.3663 -0.5603
56937SOL    HW176774   8.789   2.184   2.232 -0.2872  0.0037 -0.2551
56937SOL    HW276775   8.744   2.314   2.167 -0.6446 -0.3411 -0.7004
56938SOL     OW76776  10.182   2.829   9.845 -0.0797  0.4563  0.1435
56938SOL    HW176777  10.123   2.754   9.851  0.7681 -0.0993  2.1562
56938SOL    HW276778  10.265   2.793   9.813  0.1503  0.6294  0.5331
56939SOL     OW76779  10.790   8.365   3.728 -0.4720 -0.3366  0.1342
56939SOL    HW176780  10.829   8.374   3.641 -1.3735 -0.3704 -0.2812
56939SOL    HW276781  10.836   8.430   3.782 -0.7359  0.5256 -0.6612
56940SOL     OW76782   9.055  11.608   0.963  0.3564 -0.4571 -0.2511
56940SOL    HW176783   8.969  11.583   0.997 -0.0463  3.0670  1.8694
56940SOL    HW276784   9.042  11.618   0.869 -2.0122  1.1497  0.1407
56941SOL     OW76785   9.748  11.911   8.624  0.0345  0.2165  0.1094
56941SOL    HW176786   9.811  11.979   8.602 -1.1866  1.3327 -0.0319
56941SOL    HW276787   9.775  11.835   8.571  2.1921  0.1234  1.2590
56942SOL     OW76788   8.586   8.651   5.800  0.3658  0.2649 -0.0153
56942SOL    HW176789   8.548   8.675   5.716 -0.2313 -0.6225 -0.0141
56942SOL    HW276790   8.529   8.692   5.865  1.3111  1.6640 -0.0255
56943SOL     OW76791  10.360   7.414   5.929  0.0565 -0.3881  0.0992
56943SOL    HW176792  10.372   7.507   5.949  0.9813 -0.5776  0.4746
56943SOL    HW276793  10.446   7.375   5.944 -0.7052 -1.6050  1.5857
56944SOL     OW76794   7.618   0.044   6.438 -0.1267 -0.0067  0.8606
56944SOL    HW176795   7.530   0.007   6.443 -0.1234 -0.1062  0.2300
56944SOL    HW276796   7.627   0.094   6.519 -1.1909  0.9404  0.4308
56945SOL     OW76797   8.022   5.335  10.651  0.5929 -0.7483  0.0191
56945SOL    HW176798   8.102   5.299  10.688  0.1738 -0.1674  1.5977
56945SOL    HW276799   7.969   5.359  10.727 -0.3314  0.5214 -0.9678
56946SOL     OW76800   3.471   8.741   4.278  0.5792 -1.0356 -0.7442
56946SOL    HW176801   3.383   8.730   4.314 -0.3301 -0.3962 -2.6257
56946SOL    HW276802   3.470   8.691   4.196  2.3083 -1.8287 -0.3245
56947SOL     OW76803   7.406  11.513   8.534  0.1844  0.5180  0.1856
56947SOL    HW176804   7.475  11.525   8.600  0.8075  0.0608 -0.3793
56947SOL    HW276805   7.369  11.600   8.523  0.3341  0.6766  0.8582
56948SOL     OW76806   1.849   5.821   9.822 -0.2440  0.6491 -0.3649
56948SOL    HW176807   1.878   5.732   9.802 -1.0223  0.7442 -2.1347
56948SOL    HW276808   1.788   5.812   9.895 -1.2427 -0.4497 -1.3016
56949SOL     OW76809   5.324   2.255   7.399 -0.9025  0.0682 -0.4290
56949SOL    HW176810   5.348   2.300   7.480 -0.2504  0.8328 -1.0235
56949SOL    HW276811   5.303   2.166   7.427  0.2935  0.0280  0.4669
56950SOL     OW76812  11.285   0.716   7.427 -0.7031  0.3267 -0.0475
56950SOL    HW176813  11.217   0.769   7.385 -0.3403  0.2185 -0.7816
56950SOL    HW276814  11.302   0.645   7.365 -0.2522  0.0890  0.3400
56951SOL     OW76815   1.706   1.131   0.445  0.1347 -0.0691  0.4244
56951SOL    HW176816   1.747   1.072   0.508 -1.5075 -0.2248  1.4022
56951SOL    HW276817   1.709   1.217   0.488 -1.0098 -0.1802  0.7587
56952SOL     OW76818   9.039   5.380   0.565 -0.0292  0.1996 -0.1346
56952SOL    HW176819   8.994   5.447   0.513  0.0605  0.5949  0.2863
56952SOL    HW276820   9.079   5.322   0.500 -1.7667 -0.6174 -0.5310
56953SOL     OW76821   4.464   5.636   3.529  0.2836  0.8501  0.2022
56953SOL    HW176822   4.494   5.550   3.499 -0.6501  0.7019 -0.3377
56953SOL    HW276823   4.408   5.667   3.459 -0.4634  1.3075  0.9942
56954SOL     OW76824   6.278   3.356   3.334 -0.0835 -0.4055 -0.7635
56954SOL    HW176825   6.357   3.409   3.351 -2.1093  1.9537  2.3177
56954SOL    HW276826   6.281   3.287   3.400 -0.8229  0.0529 -0.2308
56955SOL     OW76827  12.319  10.592   4.973 -0.3711  0.5129 -0.3273
56955SOL    HW176828  12.303  10.677   5.014 -2.1617  1.2136 -2.2833
56955SOL    HW276829  12.259  10.532   5.019  0.0305  0.5487  0.2582
56956SOL     OW76830   7.730   1.838   5.718 -0.4255 -0.6601  0.0866
56956SOL    HW176831   7.805   1.823   5.776 -0.3497 -1.8412 -0.2934
56956SOL    HW276832   7.767   1.888   5.645 -0.1112 -0.8294  0.1256
56957SOL     OW76833   4.789   2.491   9.557  0.0615  0.7774  0.3552
56957SOL    HW176834   4.753   2.425   9.617  1.7127 -1.5361 -1.0165
56957SOL    HW276835   4.720   2.556   9.549 -0.7970  0.4428  3.5707
56958SOL     OW76836  10.007   7.340   0.514  0.0611 -0.4480  0.4850
56958SOL    HW176837   9.994   7.347   0.608  0.4832  0.0969  0.5102
56958SOL    HW276838  10.046   7.424   0.489 -1.7267  0.1415 -0.4722
56959SOL     OW76839   5.790  12.416   7.646  0.2071 -0.0079  0.4170
56959SOL    HW176840   5.829  12.504   7.643  0.7771 -0.2604  0.3416
56959SOL    HW276841   5.718  12.419   7.583  2.2020 -0.5403 -2.0593
56960SOL     OW76842   2.642   0.543  10.622 -0.0840 -0.3727 -0.6674
56960SOL    HW176843   2.638   0.623  10.570 -0.7805 -0.2071 -0.3720
56960SOL    HW276844   2.596   0.565  10.703 -2.3107 -1.7352 -1.4781
56961SOL     OW76845   9.869  12.220   2.272 -0.0739  0.3036 -0.0362
56961SOL    HW176846   9.783  12.226   2.230 -0.0401 -0.7341 -0.2787
56961SOL    HW276847   9.878  12.127   2.295  0.4201  0.6267  1.1797
56962SOL     OW76848   3.433   9.051   1.810  0.2202 -0.0479  0.4238
56962SOL    HW176849   3.508   8.992   1.801 -1.0237 -1.4535 -1.8767
56962SOL    HW276850   3.389   9.022   1.890 -0.7279 -2.8125 -0.9943
56963SOL     OW76851   0.846   6.245   6.822  0.0970 -0.2180 -0.0783
56963SOL    HW176852   0.811   6.215   6.738  3.2538  2.7700 -2.8065
56963SOL    HW276853   0.787   6.315   6.849 -0.9635 -1.2267  0.3046
56964SOL     OW76854   5.277   9.794  12.354 -0.3378 -0.2223 -0.7997
56964SOL    HW176855   5.337   9.791  12.280 -0.8284 -0.8442 -1.1789
56964SOL    HW276856   5.303   9.872  12.402  0.9403 -0.6065 -0.8164
56965SOL     OW76857  11.435  11.730   0.201  0.0925  0.2965  0.0343
56965SOL    HW176858  11.412  11.666   0.133 -1.9289  0.4749  0.4876
56965SOL    HW276859  11.440  11.680   0.281  0.7861  0.3486  0.0220
56966SOL     OW76860  11.258  10.350  11.953 -0.3199 -0.2533 -0.0730
56966SOL    HW176861  11.275  10.339  11.860 -0.6304 -0.0640 -0.1521
56966SOL    HW276862  11.163  10.362  11.960 -0.4077 -1.0706  0.3407
56967SOL     OW76863  12.393   0.161   8.730 -0.2878  0.1558  0.8556
56967SOL    HW176864  12.344   0.138   8.809 -1.0757  2.8014  1.2458
56967SOL    HW276865  12.347   0.116   8.659 -1.0033 -0.3846  1.6468
56968SOL     OW76866   9.746  10.627   5.003  0.5059 -0.0537  0.7938
56968SOL    HW176867   9.800  10.635   4.925  0.4348  0.0315  0.7525
56968SOL    HW276868   9.661  10.662   4.977  0.2657 -0.6910  0.6951
56969SOL     OW76869   4.709   5.181   7.622 -0.3319  0.7873 -0.1212
56969SOL    HW176870   4.726   5.241   7.549 -0.7958 -0.1856 -1.0684
56969SOL    HW276871   4.648   5.117   7.585 -0.7262  0.3834  1.1978
56970SOL     OW76872   3.206   3.646   7.204 -0.3018 -0.2055 -0.1462
56970SOL    HW176873   3.171   3.608   7.123 -0.5959  0.5382 -0.3765
56970SOL    HW276874   3.259   3.720   7.175  0.9429 -0.9240  0.2469
56971SOL     OW76875   1.368   5.092   7.601  0.0289  0.0167 -0.0862
56971SOL    HW176876   1.412   5.115   7.519 -0.4264  0.5186 -0.1953
56971SOL    HW276877   1.438   5.094   7.666  0.8952 -2.6850 -0.8030
56972SOL     OW76878  12.283  10.895   5.985 -1.0048  0.4644  0.0488
56972SOL    HW176879  12.308  10.975   5.939 -1.7018  0.4206 -0.4309
56972SOL    HW276880  12.352  10.832   5.964  0.7199  1.5345  2.1831
56973SOL     OW76881   2.900   7.158   9.448 -1.0682  0.0742 -1.2321
56973SOL    HW176882   2.986   7.123   9.424 -0.8397 -0.4744  0.2646
56973SOL    HW276883   2.897   7.245   9.407 -0.3921 -0.4596 -2.4577
56974SOL     OW76884  12.323  10.333   3.604  0.5349  0.0441 -0.4976
56974SOL    HW176885  12.344  10.276   3.678 -0.0672  0.8470  0.3096
56974SOL    HW276886  12.227  10.328   3.596  0.3934  1.4733  0.0428
56975SOL     OW76887   5.223   4.395   3.203 -0.6965  0.6410  0.1066
56975SOL    HW176888   5.269   4.313   3.222  0.7731  1.4855  0.3385
56975SOL    HW276889   5.182   4.420   3.286 -1.8346 -0.2531 -0.1677
56976SOL     OW76890   1.659   4.833   4.996 -0.2907  0.1374  0.1613
56976SOL    HW176891   1.706   4.829   5.079  1.8729 -0.6182 -1.0274
56976SOL    HW276892   1.662   4.925   4.971  0.4933  0.1135  0.1501
56977SOL     OW76893   7.848  11.261  10.200  0.1867 -0.0401  0.1996
56977SOL    HW176894   7.774  11.240  10.143 -1.1345  1.4619  1.2388
56977SOL    HW276895   7.915  11.197  10.178 -1.1537 -1.0011 -1.3160
56978SOL     OW76896  12.493   2.006   0.797  0.0396  0.3695  0.1800
56978SOL    HW176897  12.533   2.007   0.709  2.3750 -1.0903  1.1331
56978SOL    HW276898  12.435   1.930   0.796  0.1284  0.3037 -0.0684
56979SOL     OW76899   8.668   4.519   6.173 -0.1401 -0.2379  0.4630
56979SOL    HW176900   8.632   4.444   6.220  0.7664 -0.2031  1.2420
56979SOL    HW276901   8.740   4.483   6.120 -0.5731 -0.1301 -0.2121
56980SOL     OW76902   9.248   1.004   2.568 -0.2058 -0.2786 -0.0030
56980SOL    HW176903   9.243   1.016   2.473 -1.0501 -2.8512 -0.3512
56980SOL    HW276904   9.342   0.994   2.586 -0.1747 -2.0438 -0.9375
56981SOL     OW76905   7.061   4.025   4.852 -0.5594  0.4145  0.5376
56981SOL    HW176906   6.988   4.079   4.882 -0.7649  0.3283  0.1893
56981SOL    HW276907   7.123   4.088   4.815 -1.1046  0.3583 -0.5046
56982SOL     OW76908   8.917   2.230   0.891 -0.5304  0.3761  0.2178
56982SOL    HW176909   8.899   2.244   0.983 -2.8058  1.1266 -0.2819
56982SOL    HW276910   8.869   2.151   0.868  3.5255 -2.4689  0.5360
56983SOL     OW76911   0.758   0.296  11.023 -0.1200 -0.1804 -0.0691
56983SOL    HW176912   0.844   0.337  11.033  0.1895 -0.3709 -1.6430
56983SOL    HW276913   0.734   0.314  10.932 -2.1863  0.6937  0.5992
56984SOL     OW76914   1.976  11.170   8.130 -0.0504 -0.2687 -0.3332
56984SOL    HW176915   2.036  11.099   8.152 -0.2799 -0.0673  1.0616
56984SOL    HW276916   1.943  11.148   8.043  2.4416 -0.0796 -1.3880
56985SOL     OW76917  10.104   0.803   0.595  0.0342 -0.3281 -0.0128
56985SOL    HW176918  10.194   0.805   0.563  0.2865  0.7768  0.6930
56985SOL    HW276919  10.050   0.796   0.517  0.7471 -1.7227 -0.4002
56986SOL     OW76920  12.016   0.358   1.780  0.1223 -0.2167  0.2562
56986SOL    HW176921  11.999   0.327   1.691 -0.3268  0.6231  0.0447
56986SOL    HW276922  11.942   0.324   1.832  1.5256 -2.6678  0.8183
56987SOL     OW76923   9.825   1.840   5.685 -0.0140  0.2472  0.3391
56987SOL    HW176924   9.778   1.861   5.603 -0.7713  0.4450  0.8107
56987SOL    HW276925   9.823   1.745   5.690  0.9008  0.1776 -0.3601
56988SOL     OW76926  11.362   9.928   8.449 -0.5208  0.1367 -0.7264
56988SOL    HW176927  11.407  10.012   8.436 -0.7731 -0.0392 -3.3226
56988SOL    HW276928  11.415   9.865   8.400 -0.3326 -1.2786  1.1788
56989SOL     OW76929   7.028   5.998  11.916 -0.0728 -0.1694  0.0618
56989SOL    HW176930   7.096   6.051  11.957  0.2142 -0.4297 -0.0720
56989SOL    HW276931   7.062   5.979  11.829  0.6169 -2.0147  0.6807
56990SOL     OW76932   1.270   7.047   6.151 -0.1555 -0.1090  0.7871
56990SOL    HW176933   1.204   7.115   6.168 -1.8506 -1.7210  0.9915
56990SOL    HW276934   1.298   7.018   6.238  0.9847  0.6647  0.7031
56991SOL     OW76935   8.429   4.226  10.654 -0.2145  0.1683 -0.2593
56991SOL    HW176936   8.374   4.148  10.660  0.4385 -0.4031 -1.2800
56991SOL    HW276937   8.385   4.281  10.589 -0.1974  0.2285 -0.2197
56992SOL     OW76938   1.323   5.267   7.992  0.1095  0.2267  0.2641
56992SOL    HW176939   1.296   5.189   8.040  1.5350 -0.1768  0.4312
56992SOL    HW276940   1.336   5.333   8.059  1.3682 -0.1242  0.3813
56993SOL     OW76941   0.337  11.783   1.256 -0.1241 -0.1825 -0.1175
56993SOL    HW176942   0.269  11.754   1.316 -2.2065 -0.8083 -2.5842
56993SOL    HW276943   0.291  11.796   1.173  2.2613  2.2775 -1.1891
56994SOL     OW76944   9.396  12.454   6.919  0.4308  0.1417  0.1528
56994SOL    HW176945   9.331  12.396   6.958 -0.7011  1.4471  0.2954
56994SOL    HW276946   9.461  12.395   6.880 -0.5081 -1.2007  0.5465
56995SOL     OW76947  12.473   1.119   9.139  0.1845 -0.0422  0.0247
56995SOL    HW176948  12.405   1.088   9.078 -1.5166  0.1662  1.7142
56995SOL    HW276949  12.501   1.040   9.185 -1.0571  0.2151  1.3248
56996SOL     OW76950  10.956  11.568   4.053 -0.2148 -0.1097 -0.1839
56996SOL    HW176951  11.046  11.549   4.080  0.5719  3.5334  0.1951
56996SOL    HW276952  10.903  11.536   4.126  1.0454  0.4710  1.0463
56997SOL     OW76953   3.681   0.728   7.494 -0.2416  0.1015  0.0288
56997SOL    HW176954   3.663   0.640   7.461 -0.7048  0.3194 -0.3173
56997SOL    HW276955   3.775   0.729   7.511  0.4629  0.5693 -3.1758
56998SOL     OW76956   7.131   7.077   2.102  0.0086  0.4063  0.3560
56998SOL    HW176957   7.098   6.987   2.107  2.6665 -0.7084 -0.2448
56998SOL    HW276958   7.208   7.078   2.158  1.2001  1.7284 -1.2093
56999SOL     OW76959  10.008  10.278   4.416 -0.8259 -0.0763 -0.4429
56999SOL    HW176960  10.024  10.330   4.338  0.1292 -0.6513 -0.6550
56999SOL    HW276961  10.061  10.320   4.484 -1.2530  0.1264 -0.2373
57000SOL     OW76962  11.270   8.487   6.169 -0.5784 -0.4169 -0.4267
57000SOL    HW176963  11.341   8.550   6.157 -0.5713 -0.4351 -0.4797
57000SOL    HW276964  11.252   8.454   6.081 -0.0231 -1.0955 -0.2906
57001SOL     OW76965  10.239   2.988   3.243  0.0276 -0.2028 -0.2638
57001SOL    HW176966  10.200   2.981   3.330 -0.7214 -1.6533 -0.6852
57001SOL    HW276967  10.217   3.077   3.215 -1.5215 -0.3940  0.2248
57002SOL     OW76968   5.805   5.505   3.812 -0.6685 -0.1538  0.3042
57002SOL    HW176969   5.798   5.463   3.726  1.1255  0.6798 -0.3072
57002SOL    HW276970   5.856   5.443   3.864 -0.5323 -0.0250  0.3231
57003SOL     OW76971   4.230   9.978   6.376 -0.0708 -0.0482 -0.4375
57003SOL    HW176972   4.147   9.951   6.415 -0.1348 -0.3220 -0.7613
57003SOL    HW276973   4.211   9.991   6.283  0.0297  0.8302 -0.3455
57004SOL     OW76974   8.780   0.402   9.595  0.3797 -0.3355 -0.2415
57004SOL    HW176975   8.801   0.481   9.646 -0.9378  0.0101 -0.2034
57004SOL    HW276976   8.793   0.330   9.657  0.7216 -0.0826 -0.0132
57005SOL     OW76977   7.722   2.567   2.650  0.0728 -0.4094  0.6308
57005SOL    HW176978   7.765   2.652   2.653 -1.8161  0.5872  2.1247
57005SOL    HW276979   7.692   2.552   2.740  1.7750 -3.4859  0.8153
57006SOL     OW76980  11.719  12.053   9.354 -0.2096  0.4410  0.0991
57006SOL    HW176981  11.667  12.125   9.390 -2.1386 -0.1550 -1.3629
57006SOL    HW276982  11.731  12.076   9.262  3.0430  1.0197  0.5323
57007SOL     OW76983   8.902   3.514   1.298 -0.5620 -1.2018 -0.0368
57007SOL    HW176984   8.845   3.565   1.356  0.1805  0.8808 -1.0583
57007SOL    HW276985   8.986   3.513   1.343 -0.1598 -0.1451 -0.7384
57008SOL     OW76986   3.145   7.962   3.327 -0.3845 -0.5780  0.0614
57008SOL    HW176987   3.067   7.945   3.274  0.3243  1.2420 -1.6813
57008SOL    HW276988   3.119   8.033   3.386  0.1568  0.6656 -1.1461
57009SOL     OW76989  11.201   8.704  11.051 -0.3525  0.3214  0.5039
57009SOL    HW176990  11.114   8.724  11.086 -0.1713  1.9777  0.1131
57009SOL    HW276991  11.193   8.718  10.956  0.3554  0.6387  0.4776
57010SOL     OW76992  11.591  10.859   5.430 -0.3993 -0.4095  0.4195
57010SOL    HW176993  11.566  10.909   5.352 -2.1711  1.7350  2.2047
57010SOL    HW276994  11.531  10.784   5.431 -2.4472  1.1554  1.1920
57011SOL     OW76995  11.571   7.941   5.275  0.0000 -0.1270  0.4328
57011SOL    HW176996  11.634   8.007   5.246 -0.8553  1.6437  2.3738
57011SOL    HW276997  11.546   7.896   5.195 -1.1934  3.5410 -1.4957
57012SOL     OW76998   0.955   3.541  11.635  0.3004  0.4370 -0.2859
57012SOL    HW176999   0.957   3.506  11.546  0.4916 -1.8301  0.5303
57012SOL    HW277000   0.867   3.578  11.645 -0.0581 -0.1597 -1.1319
57013SOL     OW77001   9.710   4.985  10.113  0.1211  0.0105  0.9669
57013SOL    HW177002   9.778   4.929  10.149 -0.6372 -1.9378 -0.4532
57013SOL    HW277003   9.649   4.998  10.186 -1.4060 -3.8720  0.6226
57014SOL     OW77004   8.387   3.745   5.623 -0.0326  0.0982 -0.6534
57014SOL    HW177005   8.338   3.674   5.664  2.2785 -1.8663 -1.0303
57014SOL    HW277006   8.392   3.719   5.531 -2.2667  2.7289 -1.6566
57015SOL     OW77007   9.150   2.616   4.508  0.0463 -0.4546  0.3260
57015SOL    HW177008   9.078   2.605   4.570 -1.0174 -1.3781 -1.0220
57015SOL    HW277009   9.182   2.528   4.491 -0.9607 -0.4536 -1.8654
57016SOL     OW77010   7.389   2.918  11.958 -0.2098 -0.1050 -0.0482
57016SOL    HW177011   7.413   2.873  11.876  0.5925 -0.2650  0.2677
57016SOL    HW277012   7.453   2.886  12.022  1.4266  2.6554 -0.1549
57017SOL     OW77013   4.607   3.385   3.261  0.3142 -0.0642 -0.8118
57017SOL    HW177014   4.643   3.299   3.281 -1.6664 -0.6860  0.3439
57017SOL    HW277015   4.531   3.393   3.318 -0.0220  2.1329 -1.4765
57018SOL     OW77016   8.349   1.753  11.629  0.3108 -0.2405  0.0161
57018SOL    HW177017   8.345   1.683  11.564 -0.1385 -0.2195  0.0210
57018SOL    HW277018   8.440   1.753  11.658  0.2437 -1.0351  0.2404
57019SOL     OW77019   6.396   1.735  11.388 -0.2543 -0.2772  0.0932
57019SOL    HW177020   6.491   1.731  11.377 -0.0492  0.4527  1.3421
57019SOL    HW277021   6.374   1.651  11.429 -0.5649 -1.5850 -2.5601
57020SOL     OW77022  12.245   5.013   0.060  0.3465  0.1187 -0.5238
57020SOL    HW177023  12.181   4.945   0.037  0.9417 -0.4741 -0.4719
57020SOL    HW277024  12.196   5.095   0.053 -0.4867 -0.3354 -0.2415
57021SOL     OW77025   6.114   7.310   6.263 -0.0234 -0.0412 -0.0764
57021SOL    HW177026   6.117   7.239   6.200 -2.4075 -1.4165  1.1983
57021SOL    HW277027   6.047   7.283   6.327  0.3812  2.4512  1.5616
57022SOL     OW77028   2.525   6.898   0.776 -0.6002  0.3557  0.0297
57022SOL    HW177029   2.471   6.822   0.795  1.4397 -1.3528 -0.6516
57022SOL    HW277030   2.584   6.905   0.851  0.9383 -0.3906 -1.0531
57023SOL     OW77031   1.556   0.699   3.440 -0.1227  0.3797  0.4682
57023SOL    HW177032   1.550   0.693   3.535 -0.7421  1.5923  0.5211
57023SOL    HW277033   1.645   0.731   3.423  0.1505 -0.2812  0.5945
57024SOL     OW77034  10.226  10.020   8.210  0.0328  0.4636  0.1301
57024SOL    HW177035  10.261   9.931   8.204  1.0287  0.8690 -0.4086
57024SOL    HW277036  10.133  10.011   8.191  0.5954 -0.1133 -2.9533
57025SOL     OW77037   8.235   1.114   9.962  0.5258  0.1846  0.7246
57025SOL    HW177038   8.166   1.154   9.910  0.2430 -2.5259 -1.2112
57025SOL    HW277039   8.316   1.143   9.920  0.3462 -0.6035 -0.2140
57026SOL     OW77040   9.058   4.163   8.312 -0.1063  0.0140  0.3325
57026SOL    HW177041   8.982   4.220   8.297  0.0726  0.1555 -0.0567
57026SOL    HW277042   9.129   4.223   8.335  0.0761 -0.0500 -0.0493
57027SOL     OW77043   0.661   5.604  11.652  0.1377  0.1307 -0.3054
57027SOL    HW177044   0.718   5.662  11.602 -0.3889  0.8346 -0.1058
57027SOL    HW277045   0.600   5.568  11.588 -1.1177  1.7349 -0.0596
57028SOL     OW77046   1.997   3.572   1.007 -0.2612  0.1242  0.8878
57028SOL    HW177047   1.984   3.627   0.930  0.5702  0.2257  0.8082
57028SOL    HW277048   1.909   3.543   1.031 -0.5661  0.3875  0.1242
57029SOL     OW77049   9.580  10.634   7.376  0.0607 -0.0105  0.6379
57029SOL    HW177050   9.637  10.642   7.299 -1.0539 -0.8442 -0.3092
57029SOL    HW277051   9.636  10.659   7.450  1.0957  1.0630 -0.4519
57030SOL     OW77052  10.394   2.608   0.773 -0.5456 -0.0192 -0.3202
57030SOL    HW177053  10.462   2.658   0.728 -0.8848  0.8981  0.1658
57030SOL    HW277054  10.384   2.652   0.857 -0.9564 -0.8278  0.0669
57031SOL     OW77055   2.450   8.732  10.611  0.1311  0.0293 -0.0227
57031SOL    HW177056   2.383   8.710  10.675  1.4596 -1.9021  0.8195
57031SOL    HW277057   2.402   8.759  10.533 -1.7370 -3.1858 -0.1250
57032SOL     OW77058   3.533   5.993  10.215  0.1574 -0.1634  0.8172
57032SOL    HW177059   3.576   6.066  10.171  2.8810 -1.4461  1.0770
57032SOL    HW277060   3.501   6.029  10.298 -0.5968  1.1994 -0.0540
57033SOL     OW77061   0.243   0.450   0.943  0.2091  0.0476  0.1204
57033SOL    HW177062   0.281   0.484   0.862 -1.3220 -1.3525 -1.2647
57033SOL    HW277063   0.195   0.525   0.980  1.9406  1.0465  0.4467
57034SOL     OW77064   1.171   2.661   5.972 -0.4886 -0.5582 -0.2283
57034SOL    HW177065   1.185   2.615   6.055  0.0098  0.2884  0.1629
57034SOL    HW277066   1.213   2.604   5.906 -1.0038 -1.2992  0.0636
57035SOL     OW77067  11.086   6.860   9.582 -0.4055  0.7137  0.3084
57035SOL    HW177068  11.033   6.854   9.661  0.4059 -0.9348  0.7855
57035SOL    HW277069  11.165   6.906   9.610 -0.9620  1.9185 -0.0578
57036SOL     OW77070   6.475   5.941   2.897 -0.0120  0.2160 -0.3673
57036SOL    HW177071   6.422   5.946   2.817 -2.1020  0.4917  0.9368
57036SOL    HW277072   6.410   5.941   2.968  1.7531 -0.3671  1.3235
57037SOL     OW77073   0.533   5.673   0.766  0.2503 -0.1958  0.6210
57037SOL    HW177074   0.575   5.669   0.852  0.0535  0.3417  0.7412
57037SOL    HW277075   0.604   5.657   0.704  0.8882  1.8231  0.7594
57038SOL     OW77076   8.982   8.374   4.029 -0.1372 -0.4088  0.0417
57038SOL    HW177077   9.035   8.331   3.962 -0.0728  0.6674 -0.6146
57038SOL    HW277078   8.907   8.410   3.982 -0.4290 -0.2049  0.6484
57039SOL     OW77079  10.633  10.289   2.406 -0.3765 -0.1697 -0.2526
57039SOL    HW177080  10.658  10.207   2.449 -0.7062 -0.5165 -0.7230
57039SOL    HW277081  10.554  10.268   2.357  0.4434  0.0083 -1.7072
57040SOL     OW77082  10.664   2.986   4.042  0.3502 -0.1365 -0.3093
57040SOL    HW177083  10.728   2.920   4.069 -1.2433 -1.5332  0.2071
57040SOL    HW277084  10.584   2.963   4.089 -0.7423  1.1515 -1.4488
57041SOL     OW77085   3.315   3.176  11.244  0.0613  0.1621  0.2142
57041SOL    HW177086   3.295   3.270  11.243 -2.2122 -0.2683 -0.3637
57041SOL    HW277087   3.281   3.143  11.161  2.5820 -0.9162 -0.5188
57042SOL     OW77088   3.481   1.786   2.605 -0.2183 -0.1677 -0.1362
57042SOL    HW177089   3.498   1.712   2.546  1.9434  0.2563 -0.1640
57042SOL    HW277090   3.480   1.863   2.547  2.7533  0.3545  0.3134
57043SOL     OW77091  11.772   1.288  11.566  0.3308  0.4694  0.5879
57043SOL    HW177092  11.688   1.242  11.563 -0.2769  1.4940  1.0313
57043SOL    HW277093  11.752   1.371  11.611  1.1152  1.6701 -1.1529
57044SOL     OW77094   3.728   8.342   9.976 -0.2822 -0.0011 -0.3409
57044SOL    HW177095   3.821   8.334  10.000  0.3832  1.7138 -2.0880
57044SOL    HW277096   3.712   8.436   9.973 -2.1326 -0.2674  0.0194
57045SOL     OW77097   3.319   5.247   3.382  0.2823 -0.0963 -0.3805
57045SOL    HW177098   3.294   5.182   3.448  1.1565 -0.7396 -0.6573
57045SOL    HW277099   3.277   5.216   3.301 -0.2852  0.3517 -0.2594
57046SOL     OW77100   3.222   8.250   3.999  0.0815  0.6383 -0.3859
57046SOL    HW177101   3.210   8.236   3.906 -1.0647 -1.8345  0.0717
57046SOL    HW277102   3.275   8.176   4.028 -1.1678  0.3168  1.2208
57047SOL     OW77103   5.616   5.189   9.257 -0.2773 -0.0881 -0.1454
57047SOL    HW177104   5.699   5.161   9.217  0.0017  0.6016 -0.0581
57047SOL    HW277105   5.619   5.153   9.346  0.8748  1.6410  0.5646
57048SOL     OW77106   3.664   1.565   5.146  0.0314 -0.2079  0.7716
57048SOL    HW177107   3.614   1.647   5.139 -0.6205 -0.6197  0.6140
57048SOL    HW277108   3.708   1.558   5.061  0.3509  0.1401  0.9014
57049SOL     OW77109   0.586   6.497   5.833  0.7132 -0.5902  0.1986
57049SOL    HW177110   0.597   6.411   5.793  0.4941 -0.2412 -0.6315
57049SOL    HW277111   0.651   6.500   5.903  1.2754 -1.1207 -0.2939
57050SOL     OW77112   1.080   5.192   1.508  0.0081 -0.2655  0.4943
57050SOL    HW177113   1.117   5.278   1.488  0.5955 -0.9843 -1.9147
57050SOL    HW277114   1.151   5.130   1.489 -0.9693 -1.3849  0.3668
57051SOL     OW77115  10.872   3.723   1.370  0.1917  0.3282 -0.5511
57051SOL    HW177116  10.916   3.773   1.301 -0.6157  1.5827 -0.1883
57051SOL    HW277117  10.817   3.788   1.415  0.4397 -0.5394  1.0478
57052SOL     OW77118  12.352   5.135   5.250 -0.2715  0.0838  0.7048
57052SOL    HW177119  12.400   5.217   5.265  0.4558  0.2521 -2.0047
57052SOL    HW277120  12.313   5.146   5.164 -3.1210 -1.1111  1.7340
57053SOL     OW77121  11.609  10.072   0.860 -0.3006  0.4016  0.3251
57053SOL    HW177122  11.595   9.982   0.830 -0.0446  0.3581  0.3252
57053SOL    HW277123  11.580  10.072   0.951 -3.4096  1.1410 -0.5466
57054SOL     OW77124   2.408   0.003   4.652  0.0577  0.0219 -0.9695
57054SOL    HW177125   2.395   0.025   4.560 -2.1234 -0.0986 -0.7438
57054SOL    HW277126   2.471   0.068   4.684  0.6226  0.2354 -2.4568
57055SOL     OW77127   6.417   4.718  11.678 -0.1375 -0.3868  0.0598
57055SOL    HW177128   6.509   4.741  11.692 -0.7197  1.7405  0.8140
57055SOL    HW277129   6.412   4.689  11.587  1.0588  0.7715 -0.4007
57056SOL     OW77130   4.608   2.326   4.129  0.4467  0.3628 -0.0433
57056SOL    HW177131   4.592   2.406   4.177  0.6318  0.1046  0.4539
57056SOL    HW277132   4.544   2.263   4.163  0.4154  0.2479 -0.3064
57057SOL     OW77133  11.123  11.741  11.096 -0.0344 -0.2683  0.5522
57057SOL    HW177134  11.036  11.709  11.120  0.2416 -1.0971  0.4570
57057SOL    HW277135  11.111  11.778  11.008 -0.7287  1.4783  1.3196
57058SOL     OW77136   7.969  10.778   9.317  0.2464 -0.3386 -0.3171
57058SOL    HW177137   7.993  10.827   9.395 -0.5969 -0.1771 -0.1452
57058SOL    HW277138   8.046  10.726   9.295  0.6489 -0.0164  0.3399
57059SOL     OW77139  10.175   9.240   2.164 -0.4132 -0.1407 -0.8972
57059SOL    HW177140  10.202   9.193   2.085 -1.7658 -1.4500 -0.6356
57059SOL    HW277141  10.160   9.170   2.228 -0.3389  0.8300  0.1921
57060SOL     OW77142   4.351  11.685   5.490  0.4266  0.3984  0.4609
57060SOL    HW177143   4.372  11.626   5.562 -2.1038 -0.5237  0.5714
57060SOL    HW277144   4.295  11.752   5.529 -0.9859 -0.1158 -0.5699
57061SOL     OW77145   1.338   7.650  12.465  0.1857 -0.0071  0.4869
57061SOL    HW177146   1.303   7.590  12.531 -0.9666  1.8845  1.7210
57061SOL    HW277147   1.268   7.714  12.453  1.5798  1.4341 -0.2846
57062SOL     OW77148   9.696  10.000   0.240  0.6624  0.3314 -0.3732
57062SOL    HW177149   9.631   9.983   0.172  2.5082 -1.4399 -1.8281
57062SOL    HW277150   9.703  10.095   0.245 -0.5448  0.5083 -1.6280
57063SOL     OW77151   4.712   8.490  12.075  0.7011 -0.3799  0.2426
57063SOL    HW177152   4.779   8.476  12.142  0.1626 -1.3957  0.5843
57063SOL    HW277153   4.758   8.475  11.992  0.6614 -2.2657  0.5139
57064SOL     OW77154   5.308   0.231   0.638 -0.0148  0.7440 -0.0176
57064SOL    HW177155   5.362   0.290   0.585 -2.7383  3.3841 -0.1788
57064SOL    HW277156   5.250   0.188   0.575  0.4434 -0.4277  0.3378
57065SOL     OW77157  10.210  10.985   6.700 -0.5361 -0.3847 -0.3812
57065SOL    HW177158  10.165  11.021   6.624  1.4855  1.3635 -0.8484
57065SOL    HW277159  10.295  11.030   6.702 -1.0812  0.9971  3.8855
57066SOL     OW77160   0.680   3.139   6.981 -0.8308  0.3450 -0.2106
57066SOL    HW177161   0.616   3.189   7.031  2.1799  4.3645  0.2256
57066SOL    HW277162   0.666   3.166   6.890 -1.5337 -1.0523 -0.5369
57067SOL     OW77163   4.306   6.201   8.992  0.1695 -0.0684  0.0203
57067SOL    HW177164   4.311   6.165   9.080  1.3242  1.2441  0.5387
57067SOL    HW277165   4.238   6.150   8.948 -1.0019 -0.1995  1.9157
57068SOL     OW77166  11.960   4.234   2.937 -0.0885  0.4818  0.6270
57068SOL    HW177167  11.881   4.281   2.910 -0.0122  0.1859 -0.1165
57068SOL    HW277168  11.944   4.211   3.029 -1.2100 -0.2895  0.2542
57069SOL     OW77169   9.746  12.297   7.380  0.1657  0.5997  0.3267
57069SOL    HW177170   9.692  12.364   7.339  1.6436  2.0818  0.7134
57069SOL    HW277171   9.703  12.214   7.358 -0.9595  1.5769 -1.2834
57070SOL     OW77172   9.685   1.175   2.209 -0.5940 -0.5644  0.2956
57070SOL    HW177173   9.669   1.102   2.269  0.2916 -0.0817  1.1552
57070SOL    HW277174   9.615   1.237   2.227  0.4121  0.1931  1.8673
57071SOL     OW77175   7.013   4.091   8.841 -0.5243 -0.3829  0.4276
57071SOL    HW177176   7.064   4.172   8.837 -0.0669 -0.7162 -1.7909
57071SOL    HW277177   6.929   4.117   8.878 -0.3147  1.0915 -0.0740
57072SOL     OW77178   8.185   9.890   7.545  0.1457 -0.1305 -0.0410
57072SOL    HW177179   8.213   9.931   7.627 -0.0333  1.0443 -0.5402
57072SOL    HW277180   8.263   9.893   7.489  0.7509 -2.4149  0.6032
57073SOL     OW77181   9.941   4.808   6.818 -0.5280 -0.0751 -0.0514
57073SOL    HW177182   9.890   4.862   6.879 -2.3222  0.1327 -1.6343
57073SOL    HW277183   9.907   4.719   6.831  0.1787 -0.2983  0.3164
57074SOL     OW77184   0.268   5.440   3.238 -0.1202  0.6127 -0.4259
57074SOL    HW177185   0.340   5.487   3.197 -0.7406  3.1902  1.2507
57074SOL    HW277186   0.309   5.390   3.309  0.1329  1.5448  0.0993
57075SOL     OW77187  12.264   5.734   1.577 -0.3956 -0.6398  0.3772
57075SOL    HW177188  12.197   5.669   1.598 -0.1799 -0.6285  1.1294
57075SOL    HW277189  12.219   5.818   1.586 -0.0332 -0.5694  2.0110
57076SOL     OW77190   3.415   0.567   2.970  0.2409 -0.3661  0.6383
57076SOL    HW177191   3.406   0.623   2.894  1.5743 -0.5573  0.3149
57076SOL    HW277192   3.451   0.485   2.936 -1.3651 -1.3171  1.1462
57077SOL     OW77193   8.864   8.978  10.899 -0.4431 -0.0245  0.7096
57077SOL    HW177194   8.784   9.028  10.917 -2.1758 -1.3375 -2.5649
57077SOL    HW277195   8.844   8.889  10.928 -0.1988 -0.3693 -0.1476
57078SOL     OW77196  12.421   2.947   1.931 -0.3125  0.3421  0.0310
57078SOL    HW177197  12.490   2.925   1.993  0.1810 -0.2591 -0.7047
57078SOL    HW277198  12.351   2.984   1.984 -0.2189 -0.8709  1.0469
57079SOL     OW77199   4.307  10.144  12.221  0.0540 -0.5255  0.1061
57079SOL    HW177200   4.379  10.100  12.266  0.3983  0.7327  0.8017
57079SOL    HW277201   4.344  10.226  12.189 -1.3542  0.7910  1.6490
57080SOL     OW77202   6.019   5.180   3.506  0.2689  0.3985  0.2639
57080SOL    HW177203   6.020   5.224   3.421 -0.5604  1.1410  0.6195
57080SOL    HW277204   5.946   5.221   3.553  0.9995  0.3219  1.5068
57081SOL     OW77205   8.426  12.161   4.159 -0.0130 -0.1267  0.4628
57081SOL    HW177206   8.453  12.071   4.178  1.7521  0.1913 -0.3211
57081SOL    HW277207   8.434  12.169   4.064  1.9651  1.4410  0.6815
57082SOL     OW77208   7.082   8.638   9.365 -0.2987  0.3200 -0.2230
57082SOL    HW177209   7.103   8.572   9.299  2.4296  0.3602  0.4699
57082SOL    HW277210   7.103   8.722   9.323  0.2662  0.4289  0.2634
57083SOL     OW77211  11.782  11.745   1.377  0.3647  0.3067  0.1723
57083SOL    HW177212  11.688  11.759   1.391  0.2920 -1.3999  1.8026
57083SOL    HW277213  11.824  11.797   1.445  0.6258  1.0431 -0.5383
57084SOL     OW77214   5.045  12.388   4.190 -1.3757 -0.4882 -0.2886
57084SOL    HW177215   5.096  12.341   4.124 -0.3520 -0.1479  0.2450
57084SOL    HW277216   4.995  12.320   4.235  1.0239 -1.3214  1.3295
57085SOL     OW77217  12.385   8.727  11.610  0.3698  0.6811  0.3237
57085SOL    HW177218  12.406   8.637  11.632 -0.2211  0.1759 -1.0625
57085SOL    HW277219  12.461   8.777  11.638  1.0662 -0.3635  0.3457
57086SOL     OW77220   6.901   6.162   2.908 -0.6001 -0.4949 -0.2565
57086SOL    HW177221   6.987   6.123   2.922 -0.0811  0.8991  0.6320
57086SOL    HW277222   6.911   6.215   2.829 -0.0506  1.2173  0.9229
57087SOL     OW77223  12.350   6.120   6.701 -0.1514 -0.6335 -0.2090
57087SOL    HW177224  12.305   6.126   6.785 -1.2486 -0.5376 -0.7824
57087SOL    HW277225  12.375   6.028   6.694 -0.5541 -0.7633 -0.0202
57088SOL     OW77226   2.904   2.019   3.598  0.0468 -0.5803 -0.3519
57088SOL    HW177227   2.928   2.052   3.685  0.5930  3.0011 -1.6635
57088SOL    HW277228   2.823   1.970   3.612  0.7783 -1.2054  2.3076
57089SOL     OW77229  12.045   5.210   2.172 -0.5173  0.0785 -0.0935
57089SOL    HW177230  12.050   5.156   2.093  0.3206  0.0398 -0.0167
57089SOL    HW277231  12.094   5.162   2.238 -1.6644 -0.1531  0.6278
57090SOL     OW77232   8.177   8.467   7.846 -0.4762  0.0613  0.1718
57090SOL    HW177233   8.166   8.399   7.913 -0.8187  0.3207  0.3842
57090SOL    HW277234   8.187   8.548   7.895  1.7349 -0.0462 -0.0310
57091SOL     OW77235   7.314   0.561   7.030  0.6322 -0.3895 -0.5494
57091SOL    HW177236   7.338   0.552   6.938 -1.1503  0.2073 -1.1116
57091SOL    HW277237   7.219   0.568   7.029  0.5077 -1.1807  1.4219
57092SOL     OW77238   0.424   6.906   5.271  0.4167  0.0242  0.1995
57092SOL    HW177239   0.508   6.885   5.230  1.1916 -0.0509  1.7330
57092SOL    HW277240   0.431   6.868   5.359 -2.3551 -2.4762 -0.5183
57093SOL     OW77241   5.837   2.412   6.764  1.0088 -0.2172  0.0016
57093SOL    HW177242   5.884   2.397   6.846 -0.4679 -0.3086  0.8661
57093SOL    HW277243   5.864   2.339   6.707  0.8560 -1.0604  0.9726
57094SOL     OW77244   4.193  10.794   4.460  0.3417 -0.1239 -0.3418
57094SOL    HW177245   4.262  10.851   4.425 -0.8725  0.0758 -2.5933
57094SOL    HW277246   4.116  10.815   4.407 -1.0681 -1.4053  1.1087
57095SOL     OW77247   3.298   5.487  10.695 -0.3517 -0.1216  0.1220
57095SOL    HW177248   3.340   5.550  10.637 -0.2684  2.0420  2.3785
57095SOL    HW277249   3.211   5.524  10.712 -1.4226 -2.1052 -0.7084
57096SOL     OW77250   6.198  12.002  12.460  0.0770  0.8563  0.1274
57096SOL    HW177251   6.223  11.982  12.369 -0.0635 -0.0632  0.2849
57096SOL    HW277252   6.207  11.919  12.506 -1.7029  0.8630  0.5449
57097SOL     OW77253   0.126   3.791   5.036  0.5243  0.3871  0.1916
57097SOL    HW177254   0.192   3.801   4.967  0.6848  0.7021  0.3889
57097SOL    HW277255   0.062   3.730   4.999  0.8537  0.1837 -0.0546
57098SOL     OW77256   4.798   8.214   1.844 -0.7354  0.0371  0.2123
57098SOL    HW177257   4.817   8.237   1.753 -0.1786 -1.5486 -0.0991
57098SOL    HW277258   4.762   8.126   1.840 -0.9485  0.0377  1.5141
57099SOL     OW77259   3.154   4.707   2.399  0.5727  0.3278  1.0631
57099SOL    HW177260   3.127   4.699   2.308  1.2511  1.3960  0.7517
57099SOL    HW277261   3.089   4.655   2.448 -0.3283  0.4830  0.0728
57100SOL     OW77262   5.916   3.406   5.374 -0.5535  0.1567  0.6156
57100SOL    HW177263   5.899   3.438   5.285 -1.9082  1.0703  1.1654
57100SOL    HW277264   5.845   3.345   5.391 -1.1882  1.1174  1.5835
57101SOL     OW77265   2.328   7.249   9.876  0.1817 -0.5313 -0.2293
57101SOL    HW177266   2.252   7.209   9.919 -0.1519 -0.1238 -0.4328
57101SOL    HW277267   2.404   7.204   9.914 -0.1162 -0.2991  0.6593
57102SOL     OW77268   8.971   1.926   9.814 -0.3004 -0.4734 -0.3234
57102SOL    HW177269   9.062   1.940   9.789 -0.7576  2.6139 -0.6486
57102SOL    HW277270   8.976   1.887   9.902  1.2906 -1.6445 -0.8900
57103SOL     OW77271   3.606   4.026  11.831  0.1507  0.0340  0.0114
57103SOL    HW177272   3.621   3.932  11.835 -0.0925 -0.0753 -1.1468
57103SOL    HW277273   3.639   4.052  11.744  3.1833  1.5895  1.4573
57104SOL     OW77274   8.589   9.306  12.038 -0.0144  0.9450  0.0966
57104SOL    HW177275   8.527   9.375  12.060  0.3591  1.3977 -0.2439
57104SOL    HW277276   8.589   9.304  11.942 -0.4056  0.1186  0.1067
57105SOL     OW77277   3.875   7.248  11.659  0.3737 -0.0366 -0.6266
57105SOL    HW177278   3.885   7.170  11.712  1.1735  1.0669  0.9095
57105SOL    HW277279   3.910   7.319  11.712  0.9510  1.1892 -2.5133
57106SOL     OW77280   7.721   5.200   3.086 -0.1498 -0.1581  0.0860
57106SOL    HW177281   7.651   5.177   3.147 -0.2963 -0.2793 -0.1255
57106SOL    HW277282   7.689   5.170   3.001  0.4754 -0.8852  0.0972
57107SOL     OW77283  11.255   0.062   0.695  0.1353 -0.1189  0.5277
57107SOL    HW177284  11.271  -0.012   0.754  0.3863 -0.9941 -0.6219
57107SOL    HW277285  11.332   0.064   0.638 -0.0338  0.8188  0.3166
57108SOL     OW77286   4.362   3.405   8.674 -0.0120 -0.6209  0.4957
57108SOL    HW177287   4.414   3.447   8.605 -1.4871  0.2585 -0.1201
57108SOL    HW277288   4.345   3.475   8.736 -2.0483 -0.3607 -0.2715
57109SOL     OW77289  11.215   0.348   5.637  0.2809  0.3548  0.3158
57109SOL    HW177290  11.176   0.310   5.715 -1.6426  2.9132  0.7176
57109SOL    HW277291  11.199   0.284   5.567 -1.6516 -0.1553  1.1894
57110SOL     OW77292   3.913   8.853   6.877 -0.2460 -0.4396 -0.0213
57110SOL    HW177293   3.919   8.856   6.972  0.5198  1.0925 -0.0871
57110SOL    HW277294   3.823   8.883   6.858 -0.0530  0.3108  0.2035
57111SOL     OW77295  10.764   5.682  11.962  0.3368  0.5164  0.0385
57111SOL    HW177296  10.774   5.653  11.871 -0.1605 -1.9603  0.6950
57111SOL    HW277297  10.848   5.722  11.984  0.7650  0.3718 -1.2386
57112SOL     OW77298  12.273  10.496  11.311  0.3890 -0.0815 -0.1654
57112SOL    HW177299  12.205  10.563  11.314  1.7548  1.3373  0.9248
57112SOL    HW277300  12.334  10.528  11.245  1.8882  0.6946  1.4957
57113SOL     OW77301   6.714   4.532  11.494  0.5204 -0.4877  0.4746
57113SOL    HW177302   6.622   4.514  11.472  0.4179  0.3563  0.1660
57113SOL    HW277303   6.722   4.506  11.586 -0.0714 -0.4386  0.5463
57114SOL     OW77304   0.386   3.511   7.535 -0.5111  0.6649 -0.0743
57114SOL    HW177305   0.317   3.568   7.569 -2.8150 -0.3839 -2.5856
57114SOL    HW277306   0.438   3.487   7.612 -4.7152 -0.8628  2.6440
57115SOL     OW77307   9.345   2.109   1.303  0.5038  0.3164  0.2796
57115SOL    HW177308   9.319   2.200   1.317  1.2821  0.6348 -0.3028
57115SOL    HW277309   9.423   2.114   1.248  0.8139 -0.6849  0.6036
57116SOL     OW77310  11.393   3.410   9.239  0.2011 -0.2320 -0.0842
57116SOL    HW177311  11.422   3.498   9.261 -0.1953 -0.2292  0.4638
57116SOL    HW277312  11.309   3.423   9.194  1.1467 -0.2222 -1.9000
57117SOL     OW77313   3.762   7.167  11.148  0.0692 -0.3056 -0.3224
57117SOL    HW177314   3.718   7.142  11.230 -0.2887 -1.2631 -0.7924
57117SOL    HW277315   3.771   7.262  11.154 -0.0130 -0.3552  0.8018
57118SOL     OW77316   7.592   7.166   8.051 -0.5141 -0.3894  0.7487
57118SOL    HW177317   7.568   7.090   7.999 -0.1191 -1.1805  1.6902
57118SOL    HW277318   7.538   7.160   8.130 -0.4875  0.3184  0.8354
57119SOL     OW77319   6.074   7.873   2.866  0.0786 -0.9391 -0.0339
57119SOL    HW177320   6.052   7.870   2.773 -0.0401 -0.6238 -0.0148
57119SOL    HW277321   6.020   7.804   2.905 -0.0963 -0.8699 -0.1513
57120SOL     OW77322   3.423  11.502  11.277  0.3040 -0.4437 -0.1157
57120SOL    HW177323   3.515  11.480  11.291  0.0615 -0.5919  1.4308
57120SOL    HW277324   3.380  11.418  11.264  0.1492 -0.5384  0.8694
57121SOL     OW77325   5.444   0.308   1.148  0.3259  0.2154  0.6137
57121SOL    HW177326   5.362   0.285   1.192 -0.1645  1.2925  0.3064
57121SOL    HW277327   5.430   0.398   1.119  0.9652 -0.1832 -0.9828
57122SOL     OW77328  10.245   6.770   4.120 -0.0307 -0.1489 -0.1940
57122SOL    HW177329  10.189   6.843   4.147  0.3624 -0.5715  2.0304
57122SOL    HW277330  10.316   6.770   4.184  1.4132 -0.8946 -1.7213
57123SOL     OW77331   2.672   0.853   0.119 -0.1498 -0.1047 -0.1443
57123SOL    HW177332   2.618   0.855   0.197  0.2171 -1.3856  0.1672
57123SOL    HW277333   2.760   0.877   0.149 -0.0678 -0.3084 -0.2215
57124SOL     OW77334   8.027   3.464   9.362 -0.6581  0.7700 -0.2348
57124SOL    HW177335   7.980   3.543   9.335 -0.6457  0.9607  0.2847
57124SOL    HW277336   7.971   3.391   9.334  0.4889  0.8203 -3.0241
57125SOL     OW77337   6.939   4.665   1.856  0.0551  0.0684 -0.2458
57125SOL    HW177338   6.886   4.745   1.847  1.4864  1.2547  1.3338
57125SOL    HW277339   6.884   4.597   1.818 -1.1483  1.8033 -1.8456
57126SOL     OW77340  11.726   6.263   7.440  0.1511 -0.0124 -0.1202
57126SOL    HW177341  11.688   6.260   7.352  0.7973  0.3719 -0.4175
57126SOL    HW277342  11.690   6.343   7.479  1.0899  0.6774 -0.6181
57127SOL     OW77343   4.841   7.980   9.571  0.2312  0.6019 -0.3813
57127SOL    HW177344   4.877   8.049   9.626 -2.7734  1.3120  0.8922
57127SOL    HW277345   4.856   7.899   9.621  1.0290  0.6924 -0.4507
57128SOL     OW77346   0.504   4.475  11.388 -0.0056  0.3094  0.3673
57128SOL    HW177347   0.502   4.402  11.326  1.5764 -1.2936  2.0899
57128SOL    HW277348   0.496   4.553  11.333 -1.1217 -1.0896 -1.6020
57129SOL     OW77349   0.590   9.644   2.623 -0.4538  0.2296  0.1501
57129SOL    HW177350   0.590   9.593   2.542  0.5625 -2.3914  1.6657
57129SOL    HW277351   0.680   9.673   2.633 -0.1159 -1.1064  1.2416
57130SOL     OW77352   5.346   3.318  12.493  0.6333 -0.1556 -0.0207
57130SOL    HW177353   5.297   3.239  12.472 -0.1585 -0.2564  1.9325
57130SOL    HW277354   5.428   3.286  12.530  1.0284 -0.0335 -0.7902
57131SOL     OW77355  10.473   3.615   1.824  0.1200 -0.0196  0.2594
57131SOL    HW177356  10.390   3.589   1.864  0.5006 -0.3153  0.8751
57131SOL    HW277357  10.531   3.539   1.837 -0.1212 -0.6968 -2.0561
57132SOL     OW77358   1.956   4.269   0.292 -0.2370  0.0449 -0.4061
57132SOL    HW177359   1.925   4.221   0.215  0.7430  0.6087 -1.1676
57132SOL    HW277360   1.953   4.361   0.267  1.0572  0.1833 -0.1539
57133SOL     OW77361   6.571   5.992   8.967  0.2949 -0.2948 -0.7329
57133SOL    HW177362   6.486   5.961   8.936 -0.3067  0.8251 -0.2337
57133SOL    HW277363   6.563   5.992   9.062  0.9098 -0.3048 -0.6792
57134SOL     OW77364   1.151   7.262   0.203 -0.3161 -0.1064  0.1894
57134SOL    HW177365   1.173   7.323   0.274  2.3957 -0.6588 -0.0907
57134SOL    HW277366   1.058   7.278   0.187  0.0195  3.2466  0.8176
57135SOL     OW77367   5.050  12.215  11.018  0.0997  0.2376 -0.6505
57135SOL    HW177368   5.113  12.151  11.049 -0.0563  0.3455 -0.0997
57135SOL    HW277369   5.102  12.292  10.996  0.0884  0.6313  0.6188
57136SOL     OW77370  10.996  11.901   4.374  0.1026 -0.2598 -1.1566
57136SOL    HW177371  11.044  11.842   4.315 -1.7245 -2.6607 -0.4336
57136SOL    HW277372  11.051  11.978   4.381  2.9585 -2.0756 -1.7976
57137SOL     OW77373  11.612   5.069  11.147 -0.6335  0.1734 -0.8229
57137SOL    HW177374  11.606   5.124  11.068  0.4623  1.6226  0.0515
57137SOL    HW277375  11.627   5.131  11.218 -0.2478 -1.2156  0.3544
57138SOL     OW77376   4.910   6.836   2.253  0.0175 -0.0602 -0.0899
57138SOL    HW177377   4.941   6.897   2.186  1.1669  0.0571  0.5287
57138SOL    HW277378   4.825   6.870   2.280 -0.3010  0.0898 -1.2313
57139SOL     OW77379  10.062   9.237   4.308  0.0517 -0.2222 -0.6683
57139SOL    HW177380  10.083   9.197   4.224  0.8169 -1.6511  0.1604
57139SOL    HW277381  10.121   9.194   4.370 -1.5455 -0.3546  0.8497
57140SOL     OW77382   1.777  11.480   0.039 -0.9431  0.1063 -0.5215
57140SOL    HW177383   1.764  11.406   0.099  0.1739 -0.0638 -0.4685
57140SOL    HW277384   1.850  11.528   0.077 -0.8617  0.5510 -1.2333
57141SOL     OW77385  10.222  11.064   9.359  0.1910 -0.6324  0.2112
57141SOL    HW177386  10.276  11.137   9.329 -0.5184 -0.4823 -0.7512
57141SOL    HW277387  10.172  11.037   9.281  0.5023 -2.2084  0.5095
57142SOL     OW77388   9.132   2.922   2.438 -0.2248 -0.0949  0.4220
57142SOL    HW177389   9.193   2.960   2.501  0.1850 -2.1665  1.3613
57142SOL    HW277390   9.153   2.828   2.438 -1.8433 -0.5028 -1.0021
57143SOL     OW77391  10.553  11.494   2.371  0.2398 -0.5242 -0.2691
57143SOL    HW177392  10.521  11.469   2.284 -2.1036 -1.8949  0.8793
57143SOL    HW277393  10.520  11.425   2.429  1.9603  0.1999  1.6989
57144SOL     OW77394   4.821   6.483   1.488 -0.3372  0.2229 -0.0798
57144SOL    HW177395   4.793   6.433   1.412  0.0689 -0.3575  0.1397
57144SOL    HW277396   4.805   6.574   1.465 -2.1290 -0.0567 -0.0661
57145SOL     OW77397  12.061   8.838   3.642  0.3078 -0.0150 -0.1957
57145SOL    HW177398  12.025   8.761   3.598  1.9497 -1.1672  0.3891
57145SOL    HW277399  12.073   8.809   3.733  1.3869  0.7770 -0.0771
57146SOL     OW77400  11.117   8.005   8.283  0.4643 -0.9957 -0.4678
57146SOL    HW177401  11.039   8.055   8.258  1.3456  0.3958 -0.5782
57146SOL    HW277402  11.086   7.941   8.346 -0.6737 -0.0464 -0.0304
57147SOL     OW77403   1.300   3.255   8.547 -0.0184 -0.5954 -0.1382
57147SOL    HW177404   1.224   3.208   8.582  1.1832 -1.5074  1.3366
57147SOL    HW277405   1.311   3.221   8.459 -1.6689  0.0049 -0.6217
57148SOL     OW77406  11.275   1.751  10.885 -0.0878  0.1878  0.2686
57148SOL    HW177407  11.242   1.678  10.833  0.9847  0.7396 -1.2625
57148SOL    HW277408  11.348   1.715  10.935 -1.7171 -0.5846  2.2518
57149SOL     OW77409   0.083   1.998   9.137  0.4993 -0.0948 -0.0190
57149SOL    HW177410   0.088   2.060   9.209  0.3117 -1.3383  1.1107
57149SOL    HW277411   0.099   2.050   9.059  0.6251  1.3069  0.9095
57150SOL     OW77412   2.854   4.265   0.379  0.2633 -0.3313 -0.0734
57150SOL    HW177413   2.811   4.342   0.341  0.8026 -0.3766 -0.8007
57150SOL    HW277414   2.940   4.296   0.405  0.3394 -0.5944 -0.0058
57151SOL     OW77415   7.143   5.870   0.607 -0.0281 -0.2575  0.5352
57151SOL    HW177416   7.088   5.814   0.662  0.5364 -1.2344  0.1255
57151SOL    HW277417   7.222   5.818   0.591 -0.3131 -0.1614 -1.4710
57152SOL     OW77418   0.752   5.921   0.723 -0.1661  0.2721 -0.6780
57152SOL    HW177419   0.789   5.997   0.677 -1.3200  0.8784 -0.6630
57152SOL    HW277420   0.757   5.850   0.659 -0.1263  0.6606 -1.1139
57153SOL     OW77421  10.695   9.134   0.299  0.5737  0.5096  0.2301
57153SOL    HW177422  10.738   9.214   0.329  1.4643  0.0832  0.1129
57153SOL    HW277423  10.753   9.063   0.325 -1.3542 -0.3551  2.5411
57154SOL     OW77424   0.827   9.729  11.117  0.4056  0.5192 -0.3393
57154SOL    HW177425   0.870   9.662  11.170  1.8399 -0.6932 -2.8945
57154SOL    HW277426   0.741   9.739  11.158  0.8831 -1.4188  1.3112
57155SOL     OW77427  12.383   5.106  10.655 -0.3901 -0.7802  0.4128
57155SOL    HW177428  12.386   5.013  10.675 -0.8398 -0.4525  2.2467
57155SOL    HW277429  12.460   5.122  10.600 -0.5167 -2.2717 -0.2323
57156SOL     OW77430   7.156   7.196   5.104  0.0133 -0.2592 -0.0356
57156SOL    HW177431   7.158   7.212   5.198 -0.2194 -1.3988  0.1727
57156SOL    HW277432   7.237   7.237   5.071 -0.4075  1.0547  0.4838
57157SOL     OW77433   3.370   6.807   4.387 -0.6126  0.4724 -0.0096
57157SOL    HW177434   3.401   6.863   4.459  1.0535 -1.5030  0.9182
57157SOL    HW277435   3.302   6.753   4.426  0.2388 -0.5487  0.0953
57158SOL     OW77436   9.814   3.564   0.982 -0.2077 -0.3597  0.2201
57158SOL    HW177437   9.739   3.511   1.007  0.1576 -0.9209  0.1632
57158SOL    HW277438   9.817   3.558   0.887  0.3647 -0.9977  0.2671
57159SOL     OW77439   1.538   9.151   3.301 -0.0077  0.4566  0.2435
57159SOL    HW177440   1.576   9.064   3.310 -0.4854  0.4366  2.8601
57159SOL    HW277441   1.448   9.141   3.329 -0.9119  1.3123 -2.0921
57160SOL     OW77442   2.979   0.980   2.779  0.5422 -0.0891  0.2366
57160SOL    HW177443   2.943   0.917   2.715  1.4814 -0.8446  0.4286
57160SOL    HW277444   2.929   1.060   2.764  0.1211 -0.5270 -0.8337
57161SOL     OW77445   2.130   1.025   6.687  0.0633  0.2690 -0.1095
57161SOL    HW177446   2.186   1.084   6.738  1.3157 -0.9725  0.0337
57161SOL    HW277447   2.191   0.960   6.651 -0.9033  0.5426 -2.4148
57162SOL     OW77448   5.258   2.997   9.701 -0.0205 -0.0652 -0.1421
57162SOL    HW177449   5.295   2.983   9.788 -0.1773 -0.3665 -0.1234
57162SOL    HW277450   5.189   2.931   9.693 -0.6913  0.6193 -0.0967
57163SOL     OW77451  10.654   2.965  10.519 -0.0524 -0.3914 -0.0091
57163SOL    HW177452  10.697   3.007  10.593  0.4892  0.4865 -0.8029
57163SOL    HW277453  10.634   3.036  10.459 -2.2186 -0.8236  0.1116
57164SOL     OW77454  11.280   4.679   1.188 -0.0002  0.5499  0.5432
57164SOL    HW177455  11.276   4.722   1.273  1.1167  1.2944  0.2511
57164SOL    HW277456  11.370   4.647   1.183  0.3029  1.5232 -0.8100
57165SOL     OW77457  11.100  12.167   2.752 -0.2624 -0.9243  0.0466
57165SOL    HW177458  11.079  12.127   2.668  0.1988  1.1938 -1.1720
57165SOL    HW277459  11.192  12.192   2.743 -0.3211 -0.3255  1.0337
57166SOL     OW77460   6.220   9.985   6.156  0.9262  0.0545 -0.3571
57166SOL    HW177461   6.261   9.988   6.069 -0.9132 -1.5436 -1.3730
57166SOL    HW277462   6.161  10.061   6.156  1.0877  0.1815 -0.4127
57167SOL     OW77463   3.345   5.392   9.508 -0.6854 -0.3537 -0.1002
57167SOL    HW177464   3.393   5.309   9.497 -0.9340 -0.6703  1.0416
57167SOL    HW277465   3.273   5.386   9.445  0.2700 -0.2519 -1.2202
57168SOL     OW77466   8.243   5.660   6.377 -0.1775  0.3300 -0.3761
57168SOL    HW177467   8.257   5.614   6.294  1.0742 -0.3617  0.1924
57168SOL    HW277468   8.297   5.739   6.370  1.6799 -0.7881  0.5841
57169SOL     OW77469   4.722   9.848   0.580 -0.1175  0.0178  0.3334
57169SOL    HW177470   4.714   9.763   0.623 -1.9189  0.9985  2.1189
57169SOL    HW277471   4.802   9.886   0.615 -0.2035 -0.2560  0.8274
57170SOL     OW77472   7.234  10.696   8.799  0.3041  0.5985  0.1218
57170SOL    HW177473   7.201  10.690   8.889  0.4964 -0.5278  0.1279
57170SOL    HW277474   7.172  10.755   8.755 -0.4582  0.2527  0.6989
57171SOL     OW77475   9.887  10.983   4.780 -0.5464 -0.3993 -0.4042
57171SOL    HW177476   9.850  10.951   4.698 -0.8172 -0.7593 -0.1459
57171SOL    HW277477   9.813  11.019   4.828 -0.3147  0.2030 -0.5004
57172SOL     OW77478   2.211  11.065  12.465 -0.2072  0.0231  0.6780
57172SOL    HW177479   2.257  10.989  12.430  0.8799  0.6649  0.6734
57172SOL    HW277480   2.246  11.075  12.554 -2.4153 -1.1658  1.7748
57173SOL     OW77481   8.842   9.180  11.627 -0.0129 -0.2932  0.2122
57173SOL    HW177482   8.900   9.116  11.668 -0.0323  0.0925  0.8570
57173SOL    HW277483   8.763   9.130  11.606 -1.2267  0.0779  3.3905
57174SOL     OW77484  10.214  12.393   2.410  0.4197 -0.2083  0.4260
57174SOL    HW177485  10.179  12.426   2.327  2.2392 -1.3139 -0.8724
57174SOL    HW277486  10.209  12.298   2.402  1.6634 -0.3496  1.0955
57175SOL     OW77487   9.532   9.937   1.258 -0.0917  0.0102 -0.1781
57175SOL    HW177488   9.578  10.018   1.237  0.3843  0.3586  1.9293
57175SOL    HW277489   9.441   9.963   1.272 -0.1684 -0.0206 -0.6160
57176SOL     OW77490   8.176   1.289   8.301  0.3641  0.0213  0.1908
57176SOL    HW177491   8.252   1.326   8.345 -0.0985  1.2943 -0.0562
57176SOL    HW277492   8.189   1.310   8.208  0.5881 -1.3328 -0.1102
57177SOL     OW77493   0.392   8.841  12.040 -0.1087  0.2250  0.0749
57177SOL    HW177494   0.305   8.871  12.065 -0.2502 -0.8917  1.0051
57177SOL    HW277495   0.452   8.899  12.087 -0.3712 -1.4437  2.6883
57178SOL     OW77496   0.007   2.404   6.794  0.4300 -0.1640  0.2051
57178SOL    HW177497  -0.084   2.420   6.821  0.3492 -0.3411  0.0416
57178SOL    HW277498   0.026   2.474   6.731  0.2706 -0.3599 -0.0660
57179SOL     OW77499   1.546   2.779   8.176  0.0102 -0.5090  0.4363
57179SOL    HW177500   1.511   2.690   8.171 -0.7476 -0.2768  1.3395
57179SOL    HW277501   1.509   2.823   8.099  0.5852 -1.0243 -0.1508
57180SOL     OW77502   5.193   0.498  10.215 -0.1020  0.2814  0.1588
57180SOL    HW177503   5.219   0.439  10.144 -1.7322 -1.0951  0.6246
57180SOL    HW277504   5.205   0.586  10.179 -0.3502 -0.3671 -1.6391
57181SOL     OW77505   8.446   5.601  11.673  0.2566  0.2394 -0.6239
57181SOL    HW177506   8.429   5.527  11.731 -1.9697  1.2770  0.1428
57181SOL    HW277507   8.375   5.599  11.609  1.4510  0.4181 -2.0303
57182SOL     OW77508   5.644   2.218   5.659 -0.0368  0.3795  0.7411
57182SOL    HW177509   5.664   2.304   5.621  1.4818  0.1224  0.8679
57182SOL    HW277510   5.590   2.237   5.735  0.5106  1.2676  0.9248
57183SOL     OW77511   6.562  10.674   2.752  0.2105 -0.2465  0.0466
57183SOL    HW177512   6.646  10.709   2.721  0.1074 -0.6704 -0.7266
57183SOL    HW277513   6.531  10.739   2.815  1.3821 -0.3554  0.7675
57184SOL     OW77514   6.214   9.007   9.450  0.1740  0.0871 -0.7569
57184SOL    HW177515   6.227   8.976   9.360  2.3262 -0.0488 -0.4391
57184SOL    HW277516   6.221   8.928   9.504 -1.1069  0.1677 -0.4312
57185SOL     OW77517   9.855   7.771   7.897 -0.5446 -0.0776  0.2533
57185SOL    HW177518   9.840   7.836   7.828  0.6321 -0.4861 -0.4154
57185SOL    HW277519   9.928   7.806   7.948 -0.4976 -0.4432  0.4416
57186SOL     OW77520   4.311   9.902  12.468  0.0122 -0.0747  0.2446
57186SOL    HW177521   4.341   9.871  12.382 -1.9946 -0.2418 -0.4622
57186SOL    HW277522   4.375   9.868  12.530  0.8340 -1.0088 -1.0636
57187SOL     OW77523   4.952   4.596   9.196 -0.1535 -0.3235 -0.3424
57187SOL    HW177524   5.023   4.660   9.202 -0.2093 -0.2540 -0.4220
57187SOL    HW277525   4.883   4.641   9.147 -0.8765  0.1811  1.0712
57188SOL     OW77526  11.953   0.253   6.378 -0.8381  0.3179  0.1305
57188SOL    HW177527  11.963   0.283   6.469 -0.0858  0.4855 -0.0005
57188SOL    HW277528  12.011   0.177   6.372 -1.3763 -0.0854 -0.0386
57189SOL     OW77529  11.434   4.972   1.938 -0.0568  0.2092 -0.1482
57189SOL    HW177530  11.514   4.976   1.885 -0.5075 -0.6690 -0.9190
57189SOL    HW277531  11.457   4.914   2.010  0.0786  0.1611 -0.2276
57190SOL     OW77532   5.822   0.924  10.315 -0.2005 -0.5141 -0.1554
57190SOL    HW177533   5.798   0.835  10.338 -1.5982  0.1029  0.9379
57190SOL    HW277534   5.914   0.932  10.341 -0.5286 -1.1618  1.3242
57191SOL     OW77535   9.589  11.904   3.102 -0.1609  0.3532 -0.1063
57191SOL    HW177536   9.581  11.996   3.127 -2.9791  0.0702  0.4185
57191SOL    HW277537   9.518  11.889   3.039 -0.6176 -1.7196  0.7876
57192SOL     OW77538   2.888   4.797   8.662  0.2555 -0.3477  0.3616
57192SOL    HW177539   2.883   4.718   8.716  0.4615  0.7612  2.0953
57192SOL    HW277540   2.798   4.829   8.659  0.0060 -1.0943 -1.1123
57193SOL     OW77541   0.540   0.276   4.816  0.2773  0.1396  0.0095
57193SOL    HW177542   0.605   0.210   4.840 -0.5591 -0.6427  0.1455
57193SOL    HW277543   0.505   0.307   4.899 -0.4613 -0.3864 -0.1060
57194SOL     OW77544   2.385   9.599   2.980  0.0059 -0.3012 -0.4218
57194SOL    HW177545   2.380   9.506   2.958  2.2750 -0.2427 -1.4339
57194SOL    HW277546   2.446   9.603   3.053  2.0571  0.5249 -2.0586
57195SOL     OW77547   1.817  10.328   7.112 -0.3958  0.0065  0.5008
57195SOL    HW177548   1.792  10.239   7.138  0.4127 -0.0232  1.1914
57195SOL    HW277549   1.777  10.384   7.178 -1.7582  0.2585 -0.4913
57196SOL     OW77550   4.625   5.140  10.057  0.2403 -0.1330 -0.1184
57196SOL    HW177551   4.634   5.049  10.087 -0.7012 -0.0409  0.4898
57196SOL    HW277552   4.582   5.132   9.972  1.3753 -0.3127 -0.6904
57197SOL     OW77553   5.494   5.631   3.813 -0.2132  0.5960  0.3001
57197SOL    HW177554   5.467   5.561   3.754 -0.4097  1.4822 -0.7006
57197SOL    HW277555   5.586   5.613   3.831 -0.2853  0.0343  0.1183
57198SOL     OW77556   1.585   3.962  10.462  0.5490  0.1328 -0.2482
57198SOL    HW177557   1.532   4.042  10.461  1.3117  0.6542  0.1821
57198SOL    HW277558   1.569   3.924  10.549  2.3682  1.3367  0.6786
57199SOL     OW77559   7.805   1.427   6.731  0.3156 -0.3506 -0.4036
57199SOL    HW177560   7.883   1.448   6.782  0.7845 -2.0269 -0.3795
57199SOL    HW277561   7.733   1.469   6.779  1.2103  1.6208 -0.6896
57200SOL     OW77562   7.065  11.109  11.910  0.1489 -0.5509  0.5326
57200SOL    HW177563   7.148  11.069  11.884  0.1290 -0.4712  0.3426
57200SOL    HW277564   7.016  11.038  11.951 -0.6284 -1.2080 -1.4574
57201SOL     OW77565   8.062   0.233   0.052  0.4620 -0.0390  0.7841
57201SOL    HW177566   8.127   0.290   0.009  0.8502 -0.2141  1.1349
57201SOL    HW277567   7.981   0.247   0.002  1.1792 -1.1094 -0.7772
57202SOL     OW77568   6.538   8.119   8.371 -0.0796  0.7368 -0.0099
57202SOL    HW177569   6.608   8.118   8.306  0.8130  2.4262  0.8356
57202SOL    HW277570   6.494   8.203   8.357 -1.1903  0.2038  0.2262
57203SOL     OW77571   9.422   0.681   0.525  0.1361 -0.0771  0.4225
57203SOL    HW177572   9.475   0.749   0.567 -0.2785 -0.3686  1.4214
57203SOL    HW277573   9.410   0.614   0.591 -1.6391  0.0588  0.3002
57204SOL     OW77574   8.227   5.119   0.257  0.3200  0.4695 -0.1096
57204SOL    HW177575   8.290   5.048   0.250 -1.5481 -1.2813 -0.2879
57204SOL    HW277576   8.255   5.169   0.334  1.8367 -0.2850 -0.1401
57205SOL     OW77577   7.504   4.147   0.875  0.7261 -0.1247  0.2595
57205SOL    HW177578   7.541   4.223   0.831  0.0394  0.6132  0.9187
57205SOL    HW277579   7.542   4.072   0.830  0.7206  0.6024 -0.9995
57206SOL     OW77580   8.765   0.905  11.135 -0.2857 -0.2699  0.3405
57206SOL    HW177581   8.793   0.862  11.216 -1.1079  0.7556  1.1843
57206SOL    HW277582   8.765   0.998  11.155 -1.0060 -0.0316 -0.6841
57207SOL     OW77583  11.624   0.981   6.169  0.2713 -0.2056 -0.0114
57207SOL    HW177584  11.601   0.906   6.224 -2.0044 -0.0299 -0.6429
57207SOL    HW277585  11.662   1.045   6.229  2.0453 -1.7204  0.5733
57208SOL     OW77586   8.930   2.720   6.151 -0.0753  0.1052 -0.1449
57208SOL    HW177587   8.882   2.639   6.135  1.0423 -0.9214  1.3639
57208SOL    HW277588   8.862   2.785   6.167 -0.9989 -0.5696 -1.1661
57209SOL     OW77589  10.088  10.320   2.001  0.0855  0.3036  0.4727
57209SOL    HW177590  10.067  10.283   1.915 -0.0670  0.1977  0.5538
57209SOL    HW277591  10.003  10.345   2.038  0.0834 -0.2422  0.8547
57210SOL     OW77592   9.196   1.771   9.536 -0.6465  0.3417  0.5979
57210SOL    HW177593   9.215   1.806   9.623 -0.7976  1.2168  0.2904
57210SOL    HW277594   9.268   1.803   9.481  0.2606 -1.4314  0.6864
57211SOL     OW77595  11.253   6.430   8.838 -0.7037  0.4383 -0.2048
57211SOL    HW177596  11.295   6.425   8.752 -1.3199 -1.4156 -0.4385
57211SOL    HW277597  11.170   6.384   8.826 -1.2496  1.0485  1.1322
57212SOL     OW77598  11.697   2.482  10.239  0.4594 -0.3625 -0.0489
57212SOL    HW177599  11.630   2.437  10.291 -0.4337  0.1119 -0.7603
57212SOL    HW277600  11.763   2.414  10.221  0.3857 -0.7308  1.0099
57213SOL     OW77601   9.888   2.433   5.089 -0.5056  0.1149 -0.0036
57213SOL    HW177602   9.961   2.384   5.124  0.1349  0.4108 -0.8864
57213SOL    HW277603   9.860   2.383   5.012 -1.9071 -0.5465  0.8843
57214SOL     OW77604   2.341   8.235   4.088  0.5511 -0.2982  0.8781
57214SOL    HW177605   2.300   8.174   4.026  0.5064  0.0496  0.5605
57214SOL    HW277606   2.365   8.181   4.163 -1.0164 -0.4105  1.3352
57215SOL     OW77607   3.637   5.094   4.765 -0.1719  0.0834  0.2405
57215SOL    HW177608   3.728   5.108   4.792 -0.0867  1.3718 -0.6129
57215SOL    HW277609   3.612   5.176   4.720 -1.0675 -1.0342 -1.4075
57216SOL     OW77610   9.641   7.661  10.050  0.4010  0.2558  0.3204
57216SOL    HW177611   9.616   7.752  10.036 -1.3955 -0.1536  0.5971
57216SOL    HW277612   9.628   7.618   9.966  1.0806  0.1959  0.2348
57217SOL     OW77613  11.809  10.610   6.846 -0.4286 -0.1024 -0.2646
57217SOL    HW177614  11.797  10.683   6.907 -1.3359 -0.0593 -0.4805
57217SOL    HW277615  11.870  10.551   6.890 -2.1191 -0.7443  1.3128
57218SOL     OW77616   3.598   6.244   6.307  0.2452 -0.2195 -0.3618
57218SOL    HW177617   3.504   6.256   6.320  0.5223  0.7516  1.0017
57218SOL    HW277618   3.636   6.260   6.394  1.6670 -0.6273 -0.8817
57219SOL     OW77619   9.630   5.699  10.329 -0.3007 -0.3282 -0.2398
57219SOL    HW177620   9.539   5.713  10.305 -0.2746  0.3995  0.0699
57219SOL    HW277621   9.666   5.787  10.342  1.0455 -0.4836 -2.4979
57220SOL     OW77622   7.143   3.924  12.386 -0.1348 -0.0509 -0.4327
57220SOL    HW177623   7.178   3.926  12.297 -0.5038  2.4929 -0.5978
57220SOL    HW277624   7.048   3.916  12.375 -0.1797  0.2428 -0.2844
57221SOL     OW77625   8.680   1.134   1.730  0.8096  0.1636 -0.1584
57221SOL    HW177626   8.590   1.108   1.751  0.8028  0.0313 -0.3454
57221SOL    HW277627   8.724   1.052   1.707  0.3230  0.4838 -2.4670
57222SOL     OW77628   6.093  11.134   3.695 -0.5571 -0.0248 -0.5661
57222SOL    HW177629   6.171  11.149   3.749 -0.2194 -0.1247 -1.0152
57222SOL    HW277630   6.052  11.221   3.688 -0.6408 -0.0257 -0.0971
57223SOL     OW77631   0.187   2.528  10.593 -0.5956 -0.3317 -0.2596
57223SOL    HW177632   0.091   2.525  10.598 -0.5663  0.4311  1.1811
57223SOL    HW277633   0.216   2.476  10.667  0.0418  2.4815  1.5939
57224SOL     OW77634  10.304   0.275   2.169 -0.3011 -0.0811 -0.1873
57224SOL    HW177635  10.241   0.222   2.217  0.3365 -0.6415  0.0373
57224SOL    HW277636  10.358   0.212   2.121  0.9085  0.2956  0.6187
57225SOL     OW77637  11.998   7.985   4.324  0.7272  0.0850  0.2283
57225SOL    HW177638  12.037   7.915   4.272  0.0249  0.4895 -0.8794
57225SOL    HW277639  11.985   7.947   4.411 -0.7945 -1.5974 -0.6653
57226SOL     OW77640   0.086  12.166  10.723 -0.2381  0.1003 -0.2794
57226SOL    HW177641   0.029  12.178  10.647 -1.2579 -0.5618  0.3503
57226SOL    HW277642   0.086  12.252  10.766 -0.5541  0.1788 -0.4303
57227SOL     OW77643   6.231   4.635   9.929  0.3909  0.6711  0.4880
57227SOL    HW177644   6.234   4.662   9.837  0.0434 -0.5538  0.1064
57227SOL    HW277645   6.153   4.580   9.935  1.3471 -0.6371  1.1419
57228SOL     OW77646   2.234   7.594   1.846 -0.1862 -0.0886  0.1521
57228SOL    HW177647   2.199   7.632   1.926  0.7903  0.9651  0.0959
57228SOL    HW277648   2.328   7.583   1.863 -0.0556 -0.3332 -0.6706
57229SOL     OW77649  11.135   0.040   6.617  0.0491 -0.0021 -0.0145
57229SOL    HW177650  11.182  -0.030   6.570 -1.7410 -1.1220 -0.2235
57229SOL    HW277651  11.178   0.045   6.702  0.2538 -1.3378 -0.0205
57230SOL     OW77652   5.490   8.409   6.575  1.3598  0.9347 -0.2551
57230SOL    HW177653   5.515   8.414   6.482  2.2077 -0.7514 -0.1581
57230SOL    HW277654   5.398   8.381   6.574  1.9280 -1.1081 -0.6387
57231SOL     OW77655   0.682   4.176   7.980 -0.2399  0.1075 -0.3511
57231SOL    HW177656   0.710   4.116   8.048 -2.2982  0.8615  1.2624
57231SOL    HW277657   0.723   4.260   8.003  1.2032 -0.2152 -1.5996
57232SOL     OW77658   4.809  10.178   8.011 -0.2541  0.2476 -0.1539
57232SOL    HW177659   4.796  10.244   7.943  1.9890  0.3200 -0.5629
57232SOL    HW277660   4.793  10.094   7.967  2.6080  0.1908 -1.2454
57233SOL     OW77661   0.103   4.288   9.791 -0.2474  0.5213  0.4665
57233SOL    HW177662   0.189   4.308   9.753 -0.7896 -0.6038 -1.4912
57233SOL    HW277663   0.099   4.193   9.795 -2.0215  0.4661 -1.1159
57234SOL     OW77664  10.486   8.566   1.342  0.2867 -0.3917  0.1462
57234SOL    HW177665  10.533   8.549   1.424  0.4902 -1.0566 -0.1047
57234SOL    HW277666  10.523   8.504   1.279 -2.2607 -2.3706  0.4271
57235SOL     OW77667   3.090   7.886   2.277 -0.3492  0.7800 -0.4689
57235SOL    HW177668   3.032   7.849   2.343 -0.3279 -1.1855 -1.5030
57235SOL    HW277669   3.178   7.874   2.313 -0.3750  0.3229 -0.5582
57236SOL     OW77670  11.061   5.258   5.696  0.1281  0.2082 -0.1762
57236SOL    HW177671  10.999   5.186   5.698  0.8752 -0.4460  1.7831
57236SOL    HW277672  11.095   5.263   5.785 -0.5905  3.6239  0.0443
57237SOL     OW77673  10.765  12.082   2.737  0.1874 -0.1074  0.2909
57237SOL    HW177674  10.729  11.997   2.760 -0.4354  0.6821  2.5039
57237SOL    HW277675  10.693  12.127   2.692  0.6274 -0.8002 -1.1976
57238SOL     OW77676   2.805   9.646   3.800  0.0968 -0.6350  0.0707
57238SOL    HW177677   2.734   9.708   3.788  0.6612 -0.3750 -2.5009
57238SOL    HW277678   2.762   9.563   3.823 -1.1572 -0.7165 -2.3222
57239SOL     OW77679   7.215   1.466   8.998 -0.1043  0.9069 -0.3652
57239SOL    HW177680   7.134   1.416   9.011 -1.2154  2.5058 -0.8321
57239SOL    HW277681   7.201   1.513   8.915  1.0556  1.6700 -0.1552
57240SOL     OW77682   0.397  11.909   8.640  0.1573 -0.1586 -0.3618
57240SOL    HW177683   0.443  11.945   8.564  0.1311 -1.5432 -1.0687
57240SOL    HW277684   0.308  11.892   8.609  0.2403 -1.0655 -0.1404
57241SOL     OW77685   5.338  10.644   7.745 -0.4916  0.0656  0.2934
57241SOL    HW177686   5.346  10.549   7.747 -0.2544  0.0936  0.7998
57241SOL    HW277687   5.342  10.666   7.652 -0.2258 -0.3944  0.1904
57242SOL     OW77688   4.072   4.438   4.664 -0.2776  0.0094  0.4465
57242SOL    HW177689   3.985   4.477   4.660  0.3993  1.5416  0.3042
57242SOL    HW277690   4.061   4.362   4.723 -2.1759 -1.1992 -1.3329
57243SOL     OW77691   8.240   0.897   2.746 -0.2476  0.2638 -0.8562
57243SOL    HW177692   8.173   0.841   2.784 -0.4079  0.2961 -1.0865
57243SOL    HW277693   8.297   0.921   2.820  1.2100 -2.0791 -1.1305
57244SOL     OW77694   1.647   4.015   2.637  0.0337 -0.5234 -0.3315
57244SOL    HW177695   1.582   3.966   2.587  0.4485  0.7107 -2.1570
57244SOL    HW277696   1.726   4.012   2.583  0.5522  0.6870  0.3308
57245SOL     OW77697   8.421   4.726  10.207  0.1542 -0.4066 -0.1322
57245SOL    HW177698   8.400   4.818  10.226 -1.1437 -0.8581  0.7324
57245SOL    HW277699   8.420   4.720  10.112 -1.6800  0.0650 -0.1783
57246SOL     OW77700   0.185   4.745   6.183 -0.2538  0.9964  0.0060
57246SOL    HW177701   0.105   4.774   6.227 -0.5000 -0.3662  0.5032
57246SOL    HW277702   0.158   4.668   6.132  0.5355  1.1282 -0.6426
57247SOL     OW77703   9.756   2.031   9.283 -0.5843  0.5210 -0.0761
57247SOL    HW177704   9.748   2.120   9.249  1.5937  0.8505  0.1447
57247SOL    HW277705   9.800   1.983   9.214 -1.3411 -0.2964 -0.0084
57248SOL     OW77706   0.839  12.085   4.405 -0.0454 -0.6123  0.2943
57248SOL    HW177707   0.778  12.082   4.479 -1.5766 -0.0694 -0.8808
57248SOL    HW277708   0.815  12.009   4.352  2.8782 -2.6514  1.6310
57249SOL     OW77709   5.349  11.543   2.406  0.7426 -0.0766 -0.1202
57249SOL    HW177710   5.265  11.501   2.420 -0.1377  0.7959 -2.2283
57249SOL    HW277711   5.414  11.473   2.416 -0.4551 -1.3670 -0.9732
57250SOL     OW77712   1.308  10.357  11.879 -0.1664  0.4792 -0.0924
57250SOL    HW177713   1.255  10.277  11.883 -0.6253  0.6972 -1.4446
57250SOL    HW277714   1.371  10.347  11.951 -0.2728 -1.0459 -0.1750
57251SOL     OW77715   7.717   4.082  11.128 -0.0618  0.1140  0.1656
57251SOL    HW177716   7.774   4.157  11.142 -0.4870  0.4710  0.0122
57251SOL    HW277717   7.707   4.077  11.033  1.2494 -1.1123  0.0667
57252SOL     OW77718   5.388   1.256   8.824 -0.2573  0.3969  0.0030
57252SOL    HW177719   5.380   1.351   8.830 -1.0976  0.3813 -0.6789
57252SOL    HW277720   5.314   1.223   8.877 -0.4140  0.1363 -0.3762
57253SOL     OW77721   3.404   7.638   9.660  0.3188 -0.1669  0.0068
57253SOL    HW177722   3.396   7.583   9.738 -0.2685 -2.6992 -1.7409
57253SOL    HW277723   3.431   7.578   9.591 -1.9286  1.4086 -2.4063
57254SOL     OW77724  10.043   8.216   5.152 -0.1406  0.6073 -0.1565
57254SOL    HW177725  10.050   8.305   5.186 -0.7050  1.1149 -1.2860
57254SOL    HW277726   9.958   8.185   5.183 -0.8985  1.2680 -1.4727
57255SOL     OW77727   2.411   2.384   0.597  0.0233 -0.0227  0.0874
57255SOL    HW177728   2.385   2.449   0.532  1.7517  1.1895  0.5216
57255SOL    HW277729   2.449   2.312   0.545 -0.7401 -0.1260 -0.3357
57256SOL     OW77730   7.930  10.912   5.194  0.4790 -1.0278 -0.3049
57256SOL    HW177731   7.932  10.970   5.119 -3.3615  1.8913  1.4536
57256SOL    HW277732   8.018  10.917   5.231  1.0187  1.7347 -1.6823
57257SOL     OW77733   7.509   7.254   8.338 -0.2036 -0.1921 -0.5492
57257SOL    HW177734   7.593   7.209   8.347 -0.5464 -0.8625 -0.6659
57257SOL    HW277735   7.513   7.324   8.403 -0.0002 -0.9088  0.2385
57258SOL     OW77736   8.981  11.565   9.920  0.1029 -0.0407 -0.6874
57258SOL    HW177737   8.937  11.493   9.874 -0.3262  0.2706 -0.7748
57258SOL    HW277738   9.041  11.601   9.855  1.2209 -1.0905 -0.2626
57259SOL     OW77739   1.960   2.669   9.459 -0.3917 -0.1335  0.2129
57259SOL    HW177740   2.020   2.633   9.393 -0.8969 -0.1296 -0.2529
57259SOL    HW277741   2.015   2.727   9.512  0.4950 -1.7263  1.1242
57260SOL     OW77742   2.582   6.684   7.532 -0.3310  0.1273 -0.4851
57260SOL    HW177743   2.487   6.692   7.531 -0.3601  0.5070  1.7341
57260SOL    HW277744   2.612   6.757   7.478 -1.2800 -0.3119 -1.6578
57261SOL     OW77745  11.183   2.090   0.781  0.0107  0.5157 -0.1177
57261SOL    HW177746  11.127   2.012   0.786 -0.4187  0.8294  0.0227
57261SOL    HW277747  11.262   2.066   0.828  0.7819 -0.5763 -1.8614
57262SOL     OW77748   8.219   9.675   7.038 -0.1277 -0.4364  0.2649
57262SOL    HW177749   8.223   9.759   7.084  0.6063 -0.4129  0.1646
57262SOL    HW277750   8.289   9.679   6.973 -0.8564 -0.6571 -0.5518
57263SOL     OW77751   9.479   8.697   5.925  0.3530  0.2942  0.3820
57263SOL    HW177752   9.498   8.744   5.844  0.8931 -0.0593  0.2993
57263SOL    HW277753   9.403   8.743   5.962 -1.3905 -0.9078 -1.4647
57264SOL     OW77754  11.987   6.126   0.824  0.6411  0.4622 -0.1981
57264SOL    HW177755  11.972   6.075   0.745  1.5909  0.5742 -0.4722
57264SOL    HW277756  12.082   6.137   0.827  0.4255  2.9138 -0.5846
57265SOL     OW77757   3.275   1.597   8.019 -0.6515 -0.3559 -0.1505
57265SOL    HW177758   3.225   1.622   7.942 -0.4124  0.1010 -0.1592
57265SOL    HW277759   3.230   1.520   8.054 -0.2481 -1.1219 -1.2697
57266SOL     OW77760   3.733   7.540  11.814  0.1409  0.2344  0.0947
57266SOL    HW177761   3.826   7.550  11.832  0.6175 -2.1839 -0.5692
57266SOL    HW277762   3.698   7.496  11.892 -0.6031  1.5967  0.5700
57267SOL     OW77763   5.101   2.768   9.715  0.1704  0.3453  0.1006
57267SOL    HW177764   5.023   2.748   9.767 -0.1782 -0.2339 -0.6418
57267SOL    HW277765   5.157   2.690   9.724 -1.6302 -1.6200 -3.6263
57268SOL     OW77766   8.526   1.481   8.966 -0.0746 -0.0775  0.3815
57268SOL    HW177767   8.542   1.389   8.949 -0.0319 -0.2220  1.1520
57268SOL    HW277768   8.463   1.508   8.899  1.3242 -0.1762 -1.0331
57269SOL     OW77769   5.952   2.530   0.056  0.6798  0.5603  0.4953
57269SOL    HW177770   5.886   2.593   0.026  0.0022 -0.4158 -0.1360
57269SOL    HW277771   5.914   2.444   0.035  1.0998 -0.1100  2.3112
57270SOL     OW77772   1.189   6.146   3.197  0.6045  0.0407  0.0209
57270SOL    HW177773   1.170   6.231   3.237  0.3543  0.5210 -1.0848
57270SOL    HW277774   1.211   6.089   3.271 -4.3361 -0.4135  1.4523
57271SOL     OW77775   9.360   0.868   9.357 -0.2948 -0.1881 -0.1999
57271SOL    HW177776   9.312   0.814   9.420 -0.2460  0.2506  0.2177
57271SOL    HW277777   9.422   0.807   9.316 -0.2789 -0.4647  0.2277
57272SOL     OW77778   0.591   1.347   9.217 -0.4444  0.1047  0.1390
57272SOL    HW177779   0.666   1.400   9.245 -1.4089  0.6492  1.8278
57272SOL    HW277780   0.629   1.281   9.159  1.0223  1.6578 -0.7660
57273SOL     OW77781   3.621   5.425  11.804  0.2546 -0.0183  0.0640
57273SOL    HW177782   3.606   5.452  11.714 -3.2753 -0.8736  0.2521
57273SOL    HW277783   3.651   5.505  11.848 -0.7480  1.1409 -1.2839
57274SOL     OW77784   1.673  12.046   0.224  0.0875 -0.1136  0.0333
57274SOL    HW177785   1.699  11.977   0.162  4.5377  1.5627 -0.3079
57274SOL    HW277786   1.615  12.103   0.173 -0.5128 -1.4733 -0.8799
57275SOL     OW77787  11.976  12.204   2.768 -0.4924 -0.0434  0.4579
57275SOL    HW177788  11.939  12.284   2.729 -1.2733 -0.9464 -0.7490
57275SOL    HW277789  11.902  12.165   2.815 -0.2664 -0.3419  0.5657
57276SOL     OW77790  10.713   1.907   0.582 -0.6056  0.9108 -0.3501
57276SOL    HW177791  10.634   1.895   0.530 -2.2812 -0.3218  2.2627
57276SOL    HW277792  10.758   1.822   0.577  0.8730  1.7096 -2.1183
57277SOL     OW77793   6.096  12.387   5.036 -0.1364 -1.0970  0.4668
57277SOL    HW177794   6.181  12.357   5.071 -0.3615 -0.3011  1.7602
57277SOL    HW277795   6.042  12.308   5.035  0.7543 -1.7408 -0.9046
57278SOL     OW77796   6.278   6.563   0.790  0.1903 -0.3445 -0.0967
57278SOL    HW177797   6.199   6.546   0.739 -0.6791  2.0429  0.3471
57278SOL    HW277798   6.312   6.646   0.755  2.1869 -0.9951  0.1356
57279SOL     OW77799   7.470   3.165   0.010  0.1888 -0.0466 -0.0743
57279SOL    HW177800   7.380   3.188  -0.011  0.0582 -1.9396 -1.8624
57279SOL    HW277801   7.468   3.072   0.030  1.8089 -0.2631 -0.7045
57280SOL     OW77802  10.422  12.285   7.104  0.5826 -0.0537 -0.2668
57280SOL    HW177803  10.364  12.291   7.028  0.2998 -2.0430 -0.2655
57280SOL    HW277804  10.371  12.238   7.170  0.3403  2.7213  1.6997
57281SOL     OW77805   2.166   7.534   2.894 -0.0927  0.0662 -0.5539
57281SOL    HW177806   2.163   7.444   2.861  2.9100  0.0145 -0.9505
57281SOL    HW277807   2.160   7.589   2.817  0.1855  0.1292 -0.5333
57282SOL     OW77808   0.053   2.050   6.182  0.0032 -0.0942 -0.5896
57282SOL    HW177809   0.118   2.117   6.163 -0.0669  0.5609  1.2494
57282SOL    HW277810   0.021   2.072   6.269 -0.1493 -2.4046  0.0130
57283SOL     OW77811   3.648   7.706   6.203  0.0611 -0.3823 -0.6766
57283SOL    HW177812   3.618   7.709   6.113  5.5730  0.3113 -2.9016
57283SOL    HW277813   3.680   7.616   6.216 -0.5113 -0.4338  0.5553
57284SOL     OW77814   4.414   6.911  10.887  0.1457 -0.3844 -0.5579
57284SOL    HW177815   4.506   6.929  10.906 -0.1462 -0.1487  0.7560
57284SOL    HW277816   4.394   6.832  10.937 -0.8713  0.7188  0.8582
57285SOL     OW77817   1.415   5.786   3.782  0.1073  0.9956  0.2203
57285SOL    HW177818   1.327   5.760   3.806  0.2371 -0.2129 -0.5192
57285SOL    HW277819   1.410   5.805   3.688  0.3706  2.1178  0.4244
57286SOL     OW77820   9.565   8.926   7.737 -0.2991 -0.2485 -0.6526
57286SOL    HW177821   9.532   8.886   7.818  1.0378  0.0625  0.0602
57286SOL    HW277822   9.652   8.888   7.725  0.3629  1.2436 -0.8158
57287SOL     OW77823   1.227   8.192  11.848 -0.2737  0.6331  0.3132
57287SOL    HW177824   1.266   8.276  11.824 -0.0402  0.6642  0.7993
57287SOL    HW277825   1.137   8.198  11.817  0.3456  0.1855 -1.7268
57288SOL     OW77826   1.688  12.275   9.742  0.0231  0.3051 -0.3953
57288SOL    HW177827   1.741  12.304   9.667 -0.2079  0.6086 -0.4446
57288SOL    HW277828   1.655  12.189   9.716 -1.4245  1.0974 -1.3724
57289SOL     OW77829  10.147   6.331  11.379  0.4746  0.0557 -0.1189
57289SOL    HW177830  10.225   6.354  11.430  0.0183  2.0705 -0.2392
57289SOL    HW277831  10.074   6.368  11.428 -0.5947 -2.6093  0.4862
57290SOL     OW77832   0.200   8.786   8.772 -0.4620  0.2091 -0.0674
57290SOL    HW177833   0.159   8.700   8.779  0.9901 -0.6318 -1.2522
57290SOL    HW277834   0.131   8.848   8.796 -1.7185 -1.2486  0.2201
57291SOL     OW77835   1.288   7.517   9.762 -0.0262 -0.2098  0.2574
57291SOL    HW177836   1.210   7.552   9.720 -1.1090 -0.5719  1.8776
57291SOL    HW277837   1.272   7.423   9.768 -0.2699 -0.0787  2.1449
57292SOL     OW77838   4.546   1.050  11.805 -0.0055 -0.3638  0.2861
57292SOL    HW177839   4.544   1.106  11.882  1.5924 -1.3452  1.0953
57292SOL    HW277840   4.633   1.063  11.768 -0.5326 -0.3783 -1.0083
57293SOL     OW77841   7.038   7.990   8.845 -0.1009 -0.0989  0.6613
57293SOL    HW177842   7.106   8.012   8.909  0.0956  1.4826 -0.0431
57293SOL    HW277843   6.956   8.019   8.886 -0.0166  0.5729  0.3697
57294SOL     OW77844   9.840   5.784   8.448 -0.1371  0.3609 -0.3115
57294SOL    HW177845   9.859   5.726   8.375  0.4384 -0.8906  0.7818
57294SOL    HW277846   9.755   5.754   8.481  0.4810 -0.3794  0.6877
57295SOL     OW77847  11.515   9.748   2.259  0.3347 -0.0022  0.1962
57295SOL    HW177848  11.470   9.832   2.249  0.4843  0.1710  0.9059
57295SOL    HW277849  11.597   9.769   2.304 -0.4747 -0.7411  2.1253
57296SOL     OW77850   3.908   7.917  10.887  0.0364 -0.2574 -0.3693
57296SOL    HW177851   3.820   7.929  10.922  0.7410 -2.2099  2.3805
57296SOL    HW277852   3.965   7.965  10.946  1.0392 -1.2520 -0.4908
57297SOL     OW77853   6.831  10.162  11.935 -0.4927 -0.3493 -0.3417
57297SOL    HW177854   6.906  10.211  11.901  0.8426 -1.3904  0.9996
57297SOL    HW277855   6.806  10.208  12.015 -1.5947  0.2329 -0.9873
57298SOL     OW77856  10.434   0.783   7.400  0.1167 -0.5290 -0.2350
57298SOL    HW177857  10.406   0.870   7.430  1.3728 -0.6910  1.5349
57298SOL    HW277858  10.493   0.801   7.327 -0.2352  0.0641 -0.3841
57299SOL     OW77859   2.611   6.352  11.960  0.2656  0.2311  0.2646
57299SOL    HW177860   2.665   6.417  12.003 -1.4468  1.4983  0.5869
57299SOL    HW277861   2.568   6.399  11.888 -0.4494 -0.6967  0.0545
57300SOL     OW77862   1.191  10.466   5.927  0.3666 -0.0300 -0.3002
57300SOL    HW177863   1.167  10.415   5.850 -0.3576 -1.3256  0.7380
57300SOL    HW277864   1.170  10.409   6.001  1.5120  0.9772  0.8455
57301SOL     OW77865   3.418  10.968   2.520  0.3329 -0.2771  0.4943
57301SOL    HW177866   3.482  11.021   2.473  0.8624 -0.4848  0.9676
57301SOL    HW277867   3.396  11.020   2.598 -0.7010  0.1648 -0.0653
57302SOL     OW77868   3.997   1.480  10.660  0.0532 -0.0819 -0.8272
57302SOL    HW177869   4.047   1.467  10.580  0.1462  0.7708 -0.9175
57302SOL    HW277870   4.030   1.562  10.696  1.5287 -1.4550  1.2239
57303SOL     OW77871   1.353  10.669   5.333  0.2137  0.1778 -0.1376
57303SOL    HW177872   1.417  10.736   5.358 -0.3141  0.8201 -0.4686
57303SOL    HW277873   1.291  10.666   5.406  0.6067 -0.4420  0.1814
57304SOL     OW77874   4.748  10.960  10.651 -0.3207  0.0312  0.1800
57304SOL    HW177875   4.722  10.893  10.713 -0.0243 -1.2673 -1.0489
57304SOL    HW277876   4.687  10.950  10.578  0.6633  0.0814 -0.6710
57305SOL     OW77877  11.799   4.239   4.921 -0.3864  0.1093 -0.0007
57305SOL    HW177878  11.821   4.286   5.001 -0.2727 -0.1466  0.1185
57305SOL    HW277879  11.765   4.154   4.951  2.1623 -1.0886 -0.2694
57306SOL     OW77880   9.386   9.164   5.107 -0.0406 -0.2298 -0.3180
57306SOL    HW177881   9.359   9.225   5.176  0.4891  0.0170 -0.3261
57306SOL    HW277882   9.321   9.094   5.111 -0.1402 -0.1088  0.2860
57307SOL     OW77883   1.218   7.312   8.552  0.3577  0.1065 -0.4715
57307SOL    HW177884   1.184   7.381   8.609 -0.7818  0.2148 -1.2258
57307SOL    HW277885   1.144   7.251   8.542  1.3654 -1.2680  0.2268
57308SOL     OW77886   1.577   5.178   7.402 -0.3960  0.8294  0.2279
57308SOL    HW177887   1.540   5.175   7.314  1.9627  1.5198 -0.8515
57308SOL    HW277888   1.591   5.271   7.420  0.6002  0.6141  0.6592
57309SOL     OW77889   8.978   1.777  10.684 -0.1830 -0.5773 -0.2368
57309SOL    HW177890   8.957   1.707  10.622  1.9367 -0.6537 -0.9359
57309SOL    HW277891   8.999   1.732  10.765  2.0139 -0.8732 -0.9207
57310SOL     OW77892   1.638   2.297   1.645 -0.2147 -0.5301  0.1364
57310SOL    HW177893   1.648   2.344   1.728 -0.4024 -1.9744  1.0044
57310SOL    HW277894   1.572   2.348   1.597 -1.3020 -0.5330  1.5400
57311SOL     OW77895  11.533   6.092   4.898  0.2931 -0.0573  0.4990
57311SOL    HW177896  11.592   6.054   4.832  1.1479  0.3309  1.0195
57311SOL    HW277897  11.511   6.178   4.863  1.3478  0.4558  1.0447
57312SOL     OW77898   3.459   5.629   0.712  0.2360 -0.1691 -0.0817
57312SOL    HW177899   3.519   5.691   0.673 -1.4447  0.4796 -1.8042
57312SOL    HW277900   3.379   5.680   0.729 -1.7369 -1.9890 -2.9010
57313SOL     OW77901   6.345  10.087   8.198  0.0298  0.3673 -0.3936
57313SOL    HW177902   6.261  10.123   8.172 -0.3408  1.1899  1.7228
57313SOL    HW277903   6.384  10.153   8.255  1.2646 -0.7747  0.1663
57314SOL     OW77904   2.055   1.698   9.543 -0.0197  0.4851  0.2258
57314SOL    HW177905   2.010   1.738   9.469  0.8698  0.1729 -0.4994
57314SOL    HW277906   2.018   1.610   9.548 -0.6392  0.7645  0.6511
57315SOL     OW77907   1.452   0.071   0.386 -0.6346  0.5164  0.5105
57315SOL    HW177908   1.435   0.087   0.293  0.0794 -2.2553 -0.2172
57315SOL    HW277909   1.370   0.032   0.418 -0.6020  0.7209  0.8452
57316SOL     OW77910   2.030   7.543  12.442  0.1380 -0.5643  0.2988
57316SOL    HW177911   1.940   7.573  12.454 -0.1133  0.3271 -2.8579
57316SOL    HW277912   2.079   7.622  12.418  1.3746 -1.3229  0.2127
57317SOL     OW77913   1.390  12.029   2.109  0.1405  0.3380  0.0622
57317SOL    HW177914   1.450  11.961   2.078 -0.5801  0.1018 -0.8649
57317SOL    HW277915   1.351  11.993   2.189  0.0122 -0.2032 -0.2402
57318SOL     OW77916   2.507   8.927   3.926  0.1117  0.2762  0.7259
57318SOL    HW177917   2.489   8.876   3.848 -0.8884  0.9155  0.5164
57318SOL    HW277918   2.527   9.015   3.894 -0.4149  0.5730  1.1941
57319SOL     OW77919  11.363  10.698   0.365  0.0303  0.0311  0.5786
57319SOL    HW177920  11.437  10.749   0.400 -1.1438  1.8342  0.5292
57319SOL    HW277921  11.301  10.692   0.438  0.7557 -2.7649  1.1092
57320SOL     OW77922   7.182   9.425  10.933  0.8392 -0.1997 -0.4208
57320SOL    HW177923   7.184   9.380  11.018 -0.0355  2.1961  0.9498
57320SOL    HW277924   7.240   9.500  10.945 -1.2750  1.6292 -1.0146
57321SOL     OW77925  11.001   0.576   9.724 -0.2488 -0.0496  0.4011
57321SOL    HW177926  10.962   0.634   9.788  0.6142  0.2362  0.6849
57321SOL    HW277927  11.001   0.626   9.642  0.1863  0.2285  0.5687
57322SOL     OW77928  10.805   7.490   6.701  0.4551  0.1300  0.3120
57322SOL    HW177929  10.743   7.417   6.692  0.0542  0.5790 -0.8245
57322SOL    HW277930  10.792   7.542   6.621 -0.2311  2.1844  1.6734
57323SOL     OW77931   1.294   9.096   3.423  0.1655  0.2951  0.3108
57323SOL    HW177932   1.218   9.041   3.437 -0.2119  0.5076 -0.8229
57323SOL    HW277933   1.261   9.171   3.374  0.5589  1.8351  2.2462
57324SOL     OW77934  11.040   2.262   6.837  0.4240 -0.1908 -0.1752
57324SOL    HW177935  11.118   2.231   6.883  0.0494 -3.7619 -1.6315
57324SOL    HW277936  11.074   2.313   6.763  1.1938  1.1721  1.0841
57325SOL     OW77937   9.140  11.169   8.055  0.4510  0.4227  0.1721
57325SOL    HW177938   9.228  11.143   8.079  0.8828  0.0004 -1.7327
57325SOL    HW277939   9.096  11.088   8.029 -0.5698  0.6048  1.2035
57326SOL     OW77940   1.676   0.923  11.277 -0.0250 -0.5240  0.2017
57326SOL    HW177941   1.708   0.846  11.230  3.8718  1.0328 -0.1274
57326SOL    HW277942   1.683   0.899  11.369 -1.1900 -1.3390  0.0899
57327SOL     OW77943  12.133   6.880   4.788 -0.0966  0.4566  0.2314
57327SOL    HW177944  12.126   6.838   4.874 -1.4616 -1.0147 -0.5427
57327SOL    HW277945  12.045   6.874   4.751 -0.3920  4.0360  0.0018
57328SOL     OW77946   5.105   0.087  11.079 -0.0179  0.2280  0.1420
57328SOL    HW177947   5.033   0.129  11.126  1.3185  1.6157  1.0133
57328SOL    HW277948   5.099   0.121  10.990 -2.2853 -2.0643 -0.6902
57329SOL     OW77949   8.038   4.856   1.007 -0.3270 -0.4544  0.2603
57329SOL    HW177950   7.998   4.780   1.050 -0.7168 -0.6715 -0.4614
57329SOL    HW277951   8.022   4.841   0.914 -1.6300  1.1884  0.1697
57330SOL     OW77952   1.879   8.201   0.611  0.0002 -0.3104 -0.0207
57330SOL    HW177953   1.793   8.178   0.575  0.5341 -2.4624 -0.0201
57330SOL    HW277954   1.904   8.281   0.564 -1.7852  0.1060 -0.3272
57331SOL     OW77955   7.891   4.277   2.912  0.1298  0.3115 -0.1821
57331SOL    HW177956   7.823   4.320   2.860 -0.8515 -0.7348  0.1713
57331SOL    HW277957   7.868   4.296   3.003 -0.0043 -0.4766 -0.0430
57332SOL     OW77958   2.336   2.386  11.579  0.6863 -0.0369  0.6936
57332SOL    HW177959   2.322   2.409  11.671  1.6803  2.9133  0.2347
57332SOL    HW277960   2.256   2.417  11.535  0.1635 -1.5444  0.5411
57333SOL     OW77961   9.232  12.330  12.232  0.2593  0.4561  0.1585
57333SOL    HW177962   9.247  12.290  12.318  0.0017  1.5522  0.7258
57333SOL    HW277963   9.232  12.424  12.249  2.2501  0.7973 -1.3595
57334SOL     OW77964   4.588   7.952   6.850  0.9649  0.0506 -0.0308
57334SOL    HW177965   4.511   7.921   6.896  1.1729  0.7833  0.8348
57334SOL    HW277966   4.556   7.983   6.765  0.3408  0.1818  0.2549
57335SOL     OW77967  10.792   9.883   3.256 -0.0061 -0.4358 -0.3458
57335SOL    HW177968  10.883   9.902   3.280  0.2628 -0.8197 -1.0075
57335SOL    HW277969  10.751   9.969   3.248  0.7455 -0.1624 -1.6555
57336SOL     OW77970  11.370   0.687   1.645 -0.4785  0.1633  0.0769
57336SOL    HW177971  11.396   0.680   1.553  1.1680 -1.5511  0.5909
57336SOL    HW277972  11.450   0.666   1.693 -1.8421 -1.1874  1.8766
57337SOL     OW77973   5.581   4.298   4.537  0.1158 -0.7477 -0.2356
57337SOL    HW177974   5.625   4.218   4.508  0.9024 -0.1576 -0.7097
57337SOL    HW277975   5.628   4.324   4.617 -0.5098 -1.0704  0.2409
57338SOL     OW77976   5.580   3.979   3.678 -0.0419  0.4275  0.0633
57338SOL    HW177977   5.507   3.935   3.724 -1.3780  1.4622 -0.9928
57338SOL    HW277978   5.555   4.071   3.678  1.2344  0.7785 -0.4475
57339SOL     OW77979   3.046   8.117   0.972 -0.1085 -0.2799 -0.4012
57339SOL    HW177980   2.998   8.200   0.964 -2.3950 -1.2592  1.6960
57339SOL    HW277981   3.026   8.070   0.891 -1.3331  0.0318 -0.3007
57340SOL     OW77982   5.918   2.578  10.799  0.2214  0.1647 -0.1315
57340SOL    HW177983   5.834   2.544  10.831 -0.2535 -0.1506 -1.6408
57340SOL    HW277984   5.927   2.662  10.843  0.6037 -1.0788  2.3784
57341SOL     OW77985  11.957   1.433   5.331 -0.5598  0.5329 -0.3815
57341SOL    HW177986  11.935   1.524   5.353  2.1589  0.8898  1.2031
57341SOL    HW277987  11.999   1.439   5.245  1.0753  1.0748  0.4090
57342SOL     OW77988   1.933   4.441   7.849 -0.1102  0.3975  0.1868
57342SOL    HW177989   1.951   4.516   7.906  0.5593  1.3070 -1.1491
57342SOL    HW277990   1.845   4.413   7.872 -0.4151  1.6746  0.6597
57343SOL     OW77991  10.372   4.848   9.171  0.1927  0.1827  0.4932
57343SOL    HW177992  10.401   4.934   9.142  1.4732 -1.2280 -2.9921
57343SOL    HW277993  10.423   4.829   9.249 -1.2223  3.0919  2.2598
57344SOL     OW77994   0.353   1.267   2.140  0.2954 -0.0012 -0.0454
57344SOL    HW177995   0.414   1.332   2.174 -1.4536  1.9194 -0.3684
57344SOL    HW277996   0.310   1.311   2.067 -0.1567 -1.9730 -1.0483
57345SOL     OW77997   0.691   1.879   9.478 -0.9452 -0.4867  0.0932
57345SOL    HW177998   0.743   1.919   9.409 -0.3161 -0.4870  0.5573
57345SOL    HW277999   0.682   1.949   9.544 -0.0459 -1.0190  0.7997
57346SOL     OW78000   9.285   1.922  10.920  0.1846 -0.2715 -0.1743
57346SOL    HW178001   9.238   1.887  10.845  0.2077 -1.5248  0.3663
57346SOL    HW278002   9.218   1.931  10.988  0.2980  0.1704 -0.1167
57347SOL     OW78003  11.187   1.112   4.217  0.4683  0.7588 -0.3973
57347SOL    HW178004  11.106   1.095   4.266  0.5264  0.4849 -0.3945
57347SOL    HW278005  11.202   1.206   4.227  1.2566  0.4898  1.3518
57348SOL     OW78006  10.810   6.775   1.011 -0.3583  0.1316  0.3412
57348SOL    HW178007  10.824   6.717   1.085  0.3711 -0.4387 -0.2357
57348SOL    HW278008  10.841   6.861   1.041  0.2012 -0.1616  0.6053
57349SOL     OW78009   9.113   8.598   0.315  0.1451 -0.6378 -0.5594
57349SOL    HW178010   9.055   8.545   0.370  0.4873 -0.0721  0.3648
57349SOL    HW278011   9.059   8.672   0.288 -0.1415 -1.1110 -1.3320
57350SOL     OW78012  10.784   9.363   4.711 -0.0795  0.1637 -0.1550
57350SOL    HW178013  10.862   9.356   4.655  0.5831 -0.1563  0.7822
57350SOL    HW278014  10.818   9.362   4.800 -1.1869 -0.2962  0.2855
57351SOL     OW78015  11.811  12.364   9.768 -1.1966  0.2492  0.2409
57351SOL    HW178016  11.870  12.351   9.842  0.3362 -2.4098 -1.2785
57351SOL    HW278017  11.743  12.297   9.780 -0.2107 -1.1097 -1.3157
57352SOL     OW78018   5.830   6.243  10.358  0.2061  0.1888 -0.7396
57352SOL    HW178019   5.828   6.178  10.289 -1.6127 -1.1408  0.4894
57352SOL    HW278020   5.920   6.275  10.357  0.4513 -0.3509 -3.1449
57353SOL     OW78021   0.768   5.138   9.394 -0.2855 -0.1098 -0.0663
57353SOL    HW178022   0.684   5.182   9.376 -0.7969 -1.3233 -0.7923
57353SOL    HW278023   0.812   5.137   9.309 -1.0991 -2.5947 -0.5561
57354SOL     OW78024   0.472   8.919   1.324  0.2994  0.0277 -0.6790
57354SOL    HW178025   0.399   8.904   1.265 -0.1734 -0.8909  0.1236
57354SOL    HW278026   0.473   8.843   1.381  1.2175  0.5434  0.0158
57355SOL     OW78027   6.199   4.988   3.315  0.1437  0.2786 -0.2540
57355SOL    HW178028   6.178   4.951   3.229  1.0265 -1.5616  0.2823
57355SOL    HW278029   6.125   4.964   3.370  1.3424 -2.1157  0.4579
57356SOL     OW78030   5.298   2.820   8.502  0.2537  0.0023  0.5573
57356SOL    HW178031   5.233   2.890   8.506  0.2195 -0.0036  0.1370
57356SOL    HW278032   5.298   2.783   8.590 -2.0058 -1.5134  0.0330
57357SOL     OW78033   0.419   6.878   6.727 -0.2935 -0.4021  0.3019
57357SOL    HW178034   0.345   6.817   6.722  0.3568 -1.1278 -1.7330
57357SOL    HW278035   0.380   6.962   6.749 -1.5336 -1.0618  0.7283
57358SOL     OW78036   8.557   5.875   9.329  0.2616 -0.3740 -0.1606
57358SOL    HW178037   8.503   5.869   9.250  0.7449 -2.0209 -0.4103
57358SOL    HW278038   8.644   5.849   9.300  0.7863  0.4440  0.6328
57359SOL     OW78039   1.016   4.972   0.319  0.3802 -0.0405  0.2571
57359SOL    HW178040   0.978   4.912   0.383 -1.9242  1.4900  0.4363
57359SOL    HW278041   1.055   5.042   0.371  0.7540 -0.0850  0.0337
57360SOL     OW78042   9.368   1.424  10.120 -0.5477 -0.5547  0.3150
57360SOL    HW178043   9.273   1.435  10.124 -0.5542 -0.8978  1.9788
57360SOL    HW278044   9.390   1.432  10.027 -2.0469  0.7273  0.0382
57361SOL     OW78045   2.122   2.284   8.092 -0.5738 -0.2415  0.3898
57361SOL    HW178046   2.165   2.344   8.032  0.0175 -0.5832  0.4640
57361SOL    HW278047   2.169   2.201   8.081 -1.3420 -0.6833  0.3235
57362SOL     OW78048   3.987   3.079   8.212 -0.3009  0.1154 -0.3833
57362SOL    HW178049   4.020   2.999   8.171  1.7348  1.2237 -1.0670
57362SOL    HW278050   3.922   3.113   8.150 -0.9358 -0.8090 -0.2450
57363SOL     OW78051   7.046   0.755   9.879  0.1970 -0.3339 -0.3763
57363SOL    HW178052   6.994   0.775   9.957  0.4378  0.3250 -0.3748
57363SOL    HW278053   6.996   0.688   9.833 -0.5782  0.1785 -0.2993
57364SOL     OW78054   3.750   7.420   4.447 -0.5611 -0.3394  0.3891
57364SOL    HW178055   3.698   7.498   4.425 -0.9615 -1.1451 -1.8582
57364SOL    HW278056   3.697   7.373   4.511 -1.6265 -0.0912 -0.2818
57365SOL     OW78057   8.848   5.250  11.192  0.4850  0.1281  0.7330
57365SOL    HW178058   8.787   5.292  11.254  1.0225  1.7735  0.2098
57365SOL    HW278059   8.909   5.202  11.248 -0.1250  0.0717  1.3701
57366SOL     OW78060  11.536   2.603   0.634  0.0945  0.2733 -0.6868
57366SOL    HW178061  11.446   2.596   0.665  0.4209  1.2621  0.5976
57366SOL    HW278062  11.586   2.544   0.690  0.3237  0.0375 -1.1271
57367SOL     OW78063   8.645   7.730   9.155  0.2742  0.8668 -0.2909
57367SOL    HW178064   8.724   7.775   9.185 -0.1507  1.3140  0.1866
57367SOL    HW278065   8.573   7.785   9.185 -0.3012 -0.5013  1.0113
57368SOL     OW78066  10.548   6.246  10.206 -0.2984  0.6050 -0.3880
57368SOL    HW178067  10.480   6.314  10.211 -2.5578 -1.6168  1.2770
57368SOL    HW278068  10.544   6.201  10.290  1.8408 -0.9806 -1.0518
57369SOL     OW78069   5.941   2.813   6.044 -0.3485  0.1899 -0.4205
57369SOL    HW178070   5.891   2.734   6.025  0.0254  0.4711 -2.9122
57369SOL    HW278071   5.881   2.867   6.097 -1.1296 -1.1250  0.0923
57370SOL     OW78072   1.749   5.767  10.483  0.4995  0.0992  0.0012
57370SOL    HW178073   1.701   5.688  10.506 -0.3172  0.4156 -0.5722
57370SOL    HW278074   1.841   5.746  10.501  0.4209 -1.3323 -1.0867
57371SOL     OW78075   5.909   1.041  11.673  0.8101  0.6972 -0.1395
57371SOL    HW178076   5.828   1.033  11.723  1.3018 -0.3510  0.5125
57371SOL    HW278077   5.945   0.953  11.671  1.6863  1.0531 -0.8693
57372SOL     OW78078   0.193   1.913  11.131 -0.1892 -0.2471 -0.2919
57372SOL    HW178079   0.192   1.929  11.036  0.6442 -0.4294 -0.3396
57372SOL    HW278080   0.196   2.001  11.169  1.7023 -0.1689 -0.5031
57373SOL     OW78081   2.237   9.035   4.377  0.9951  0.3960 -0.5870
57373SOL    HW178082   2.272   8.981   4.448  0.7916 -0.0175 -0.7986
57373SOL    HW278083   2.278   9.000   4.298 -0.6836 -0.8286 -0.9851
57374SOL     OW78084   7.865  11.883  10.834 -0.2576 -0.0901  0.4581
57374SOL    HW178085   7.838  11.796  10.865 -1.9286  0.8782  1.9558
57374SOL    HW278086   7.859  11.878  10.739 -2.0227 -1.1302  0.5821
57375SOL     OW78087  10.084   2.686   3.379  0.1861  0.4149  0.1569
57375SOL    HW178088  10.012   2.750   3.374  0.5719  1.1371  2.5110
57375SOL    HW278089  10.137   2.703   3.301 -1.6980  0.4402 -1.1789
57376SOL     OW78090  12.057   3.036   2.875 -0.2370 -0.4979  0.1787
57376SOL    HW178091  12.030   2.990   2.955  1.1381 -1.0183  0.3804
57376SOL    HW278092  12.118   3.104   2.907  1.1861 -1.4191 -0.4936
57377SOL     OW78093   9.606  12.259   5.305 -0.0873  0.4121  0.1742
57377SOL    HW178094   9.684  12.220   5.344  0.8915 -0.0617 -2.0900
57377SOL    HW278095   9.623  12.353   5.306 -0.4142  0.4821  1.4759
57378SOL     OW78096   4.100  11.956   9.833  0.0244  0.3764  0.3997
57378SOL    HW178097   4.186  11.970   9.873  0.1956  1.2019 -0.2187
57378SOL    HW278098   4.085  12.035   9.781 -0.8122 -0.0521 -0.0307
57379SOL     OW78099   9.991  11.217   2.066  0.1659 -0.1942  0.1026
57379SOL    HW178100   9.938  11.137   2.070  0.8497 -0.6395  0.4895
57379SOL    HW278101   9.972  11.262   2.148 -0.0274 -0.0815 -0.0030
57380SOL     OW78102   9.900   6.038   8.648 -0.3840 -0.0733 -0.1551
57380SOL    HW178103   9.887   5.981   8.572 -0.0494 -0.8906  0.3898
57380SOL    HW278104   9.900   5.979   8.723 -0.0458  0.6480  0.4290
57381SOL     OW78105   6.569   0.357   4.186  1.1119 -0.3799  1.0056
57381SOL    HW178106   6.569   0.278   4.133  2.6162 -0.4505  1.0566
57381SOL    HW278107   6.662   0.373   4.205  0.8410  1.3569  1.0478
57382SOL     OW78108   2.056   8.314  10.571 -0.4972  0.5488  0.0157
57382SOL    HW178109   2.116   8.288  10.641  0.1744  0.1399 -0.6964
57382SOL    HW278110   2.048   8.237  10.516  0.6835  1.4657 -1.5461
57383SOL     OW78111   1.138   7.648  12.205 -0.2805 -0.9932  0.0660
57383SOL    HW178112   1.141   7.597  12.287  2.0495 -1.4905 -0.2764
57383SOL    HW278113   1.117   7.583  12.138  0.0420 -1.0140 -0.0165
57384SOL     OW78114   6.362  11.101   4.201 -0.0791 -0.1837 -0.4557
57384SOL    HW178115   6.436  11.120   4.259  0.2460  0.3396 -1.0305
57384SOL    HW278116   6.392  11.127   4.114 -1.6867  2.2739 -0.4002
57385SOL     OW78117   8.974   1.114   1.383  0.5320  0.5219  0.4163
57385SOL    HW178118   9.004   1.162   1.305 -1.1004 -0.9354 -1.2101
57385SOL    HW278119   8.899   1.165   1.415  1.9552  1.8114  1.8830
57386SOL     OW78120   4.136  12.403  10.910 -0.1642 -0.2757  0.2705
57386SOL    HW178121   4.064  12.462  10.890  0.9326  0.9628 -0.1865
57386SOL    HW278122   4.097  12.316  10.909 -1.7824  0.4056  0.7463
57387SOL     OW78123  11.812   4.660   2.017  0.1376  0.4266  0.2044
57387SOL    HW178124  11.830   4.713   2.094  2.1613 -0.2360  0.2523
57387SOL    HW278125  11.734   4.700   1.978  0.5520  2.3263  1.1961
57388SOL     OW78126   0.521   8.048   6.048 -0.3222 -0.0175  0.0241
57388SOL    HW178127   0.481   7.973   6.004  0.1004 -1.4321  1.9261
57388SOL    HW278128   0.530   8.114   5.979 -0.6739 -1.7064 -1.7407
57389SOL     OW78129   6.292   5.352   4.693 -0.3852  0.1934  0.0961
57389SOL    HW178130   6.261   5.263   4.676  1.2396 -0.1443 -1.3872
57389SOL    HW278131   6.316   5.385   4.606  4.5954 -0.0919  1.0556
57390SOL     OW78132   2.001   7.655   3.492 -0.1768  0.2171 -0.2752
57390SOL    HW178133   2.012   7.699   3.576 -0.7669 -1.3720  0.6602
57390SOL    HW278134   1.923   7.696   3.453  0.3376  1.2399 -0.2614
57391SOL     OW78135   8.932  11.922  10.471 -0.0491  0.5521  0.2143
57391SOL    HW178136   8.913  11.889  10.558 -0.8383 -0.6135 -0.3818
57391SOL    HW278137   8.923  12.017  10.479 -0.5856  0.4226  1.2958
57392SOL     OW78138   7.739   4.255   5.918 -0.6952  0.4934  0.0772
57392SOL    HW178139   7.829   4.227   5.900 -1.1256 -0.7805 -0.1673
57392SOL    HW278140   7.721   4.322   5.852 -0.5255 -0.5443 -1.0544
57393SOL     OW78141   4.929   3.019   8.772 -0.1826 -0.0094 -0.5865
57393SOL    HW178142   4.840   3.054   8.783 -0.0136 -0.3463  2.8056
57393SOL    HW278143   4.922   2.961   8.697 -3.1850 -0.9713  0.2801
57394SOL     OW78144   6.030  11.635   0.063  0.1096 -0.4171 -0.2075
57394SOL    HW178145   6.050  11.543   0.077  0.8807 -0.2625 -0.2802
57394SOL    HW278146   5.950  11.634   0.009  0.8339 -1.0583 -1.3206
57395SOL     OW78147   6.773   8.592  11.148 -0.6171 -0.4723 -0.2008
57395SOL    HW178148   6.834   8.583  11.075  0.2939 -0.7300  0.5767
57395SOL    HW278149   6.821   8.644  11.213 -1.7014  0.4365 -0.0922
57396SOL     OW78150  11.570   3.423   1.952  0.3057 -0.0837 -0.6031
57396SOL    HW178151  11.510   3.420   1.877 -0.0235 -1.0521 -0.3226
57396SOL    HW278152  11.636   3.357   1.931  1.5782  1.3053 -1.1330
57397SOL     OW78153   4.779   4.190   1.962 -0.0845 -0.5930  0.8015
57397SOL    HW178154   4.845   4.120   1.962  0.4481 -0.1067  1.0984
57397SOL    HW278155   4.764   4.209   1.870  0.6465 -0.3018  0.7336
57398SOL     OW78156   2.392   7.767   4.836 -0.2797 -0.0822 -0.3958
57398SOL    HW178157   2.427   7.777   4.925 -2.0177 -0.3448  0.3512
57398SOL    HW278158   2.452   7.704   4.795  1.6107  1.4063 -0.0544
57399SOL     OW78159   5.441   3.298   4.856 -0.3292 -0.1707  0.4105
57399SOL    HW178160   5.383   3.298   4.781 -0.5776  1.5689  0.5537
57399SOL    HW278161   5.486   3.213   4.853 -0.0386  0.0125 -1.9113
57400SOL     OW78162  12.465   9.969   1.859  0.1541  0.3242 -0.2841
57400SOL    HW178163  12.560   9.968   1.860  0.1523 -0.7040 -0.2178
57400SOL    HW278164  12.440   9.949   1.949 -0.1328  0.3183 -0.3628
57401SOL     OW78165   8.345   9.413   7.543  0.1547  0.0836 -0.3622
57401SOL    HW178166   8.435   9.398   7.571 -0.2501  0.2902  1.1410
57401SOL    HW278167   8.342   9.381   7.453  1.6095 -0.3540 -0.2773
57402SOL     OW78168   9.371  11.842   2.906  0.4841 -0.3005  0.4543
57402SOL    HW178169   9.321  11.770   2.943  0.1882  0.4512  1.5592
57402SOL    HW278170   9.311  11.885   2.846  0.4559 -0.5947  0.2703
57403SOL     OW78171   6.509   0.208   9.237  0.4908  0.0224  0.2269
57403SOL    HW178172   6.573   0.152   9.192  0.1053 -0.0683 -0.2189
57403SOL    HW278173   6.472   0.151   9.305 -0.1055 -0.3623 -0.4109
57404SOL     OW78174  10.002  12.437   9.234  0.7119 -0.1051  0.0016
57404SOL    HW178175   9.968  12.424   9.146  0.0887  1.3469  0.0144
57404SOL    HW278176  10.042  12.352   9.256 -3.0583 -2.0864  0.1163
57405SOL     OW78177  12.352   3.063  11.676 -0.0034  0.2666 -0.0965
57405SOL    HW178178  12.262   3.092  11.659  0.4507  2.3720  0.7228
57405SOL    HW278179  12.406   3.113  11.615  0.8418  1.4218  1.4963
57406SOL     OW78180   3.436   1.153   3.907  0.0863 -0.2175  0.1024
57406SOL    HW178181   3.456   1.168   3.814 -0.2685  1.5300  0.2736
57406SOL    HW278182   3.427   1.241   3.944  1.5939 -0.8359  2.1187
57407SOL     OW78183   4.643   7.592   3.734 -0.1909 -0.6718  0.3198
57407SOL    HW178184   4.697   7.649   3.788 -1.3013 -0.2027  0.9581
57407SOL    HW278185   4.583   7.651   3.688  2.0733 -0.7818 -3.1765
57408SOL     OW78186  10.037   5.493   1.888 -0.5381  0.0503  0.5082
57408SOL    HW178187   9.976   5.419   1.889  0.7855 -1.1901 -1.8722
57408SOL    HW278188   9.985   5.567   1.855 -0.8773 -0.9537 -1.3466
57409SOL     OW78189   1.957   4.617   5.080  0.6426 -0.3156  0.7808
57409SOL    HW178190   1.906   4.690   5.115  1.4058 -0.0291  1.3302
57409SOL    HW278191   1.983   4.645   4.992  0.7390 -0.0182  0.9024
57410SOL     OW78192   2.739   9.169   0.650 -0.0497 -0.3602 -0.2012
57410SOL    HW178193   2.745   9.119   0.569  1.9314 -1.6857  0.6959
57410SOL    HW278194   2.829   9.181   0.678 -0.6616  0.5589  1.5305
57411SOL     OW78195   7.114   1.306   1.512  0.5512 -0.1129 -0.0317
57411SOL    HW178196   7.044   1.242   1.518  0.3332  0.1385  0.1825
57411SOL    HW278197   7.134   1.329   1.603  2.1521 -1.4975  0.0145
57412SOL     OW78198   6.587  10.318   8.639  0.0425 -0.5240  0.5221
57412SOL    HW178199   6.572  10.224   8.647 -0.0982 -0.4176  1.5841
57412SOL    HW278200   6.505  10.353   8.604  0.0605 -0.7761  0.2237
57413SOL     OW78201   8.662   3.203  12.375  0.1498  0.2627 -0.3002
57413SOL    HW178202   8.638   3.294  12.356 -1.4886  0.2160  1.3222
57413SOL    HW278203   8.579   3.159  12.389  1.0245 -0.7986  1.9463
57414SOL     OW78204  12.222   2.445   2.121 -0.0864  1.1554 -0.2044
57414SOL    HW178205  12.297   2.463   2.178  2.0021  0.8952 -2.6946
57414SOL    HW278206  12.216   2.350   2.117  0.5843  1.1526 -1.3718
57415SOL     OW78207  11.917   5.490   0.042 -0.5638 -0.0568 -0.0046
57415SOL    HW178208  11.959   5.465   0.125 -1.7382 -0.5787  0.4560
57415SOL    HW278209  11.956   5.432  -0.023 -1.7375 -1.7187  0.6937
57416SOL     OW78210   5.060  11.599   2.953  0.6299  0.4189  0.5954
57416SOL    HW178211   5.015  11.518   2.926 -1.7638  1.6866  0.5030
57416SOL    HW278212   5.098  11.633   2.872 -2.0448  1.5230 -0.2917
57417SOL     OW78213  11.560   2.960   0.800  0.0985 -0.0758  0.0782
57417SOL    HW178214  11.558   3.047   0.840 -0.0671  0.3920 -0.9240
57417SOL    HW278215  11.653   2.943   0.784  0.1087  0.0470  0.0051
57418SOL     OW78216  10.260   1.255   1.364 -0.0850 -0.2849 -0.0759
57418SOL    HW178217  10.277   1.291   1.277 -0.3318  0.7612  0.2950
57418SOL    HW278218  10.343   1.216   1.391  0.6681  1.4185  0.1616
57419SOL     OW78219   9.047   9.701   2.932 -0.3986  0.2311  0.3420
57419SOL    HW178220   8.961   9.705   2.889 -1.1125  2.0378  1.8200
57419SOL    HW278221   9.034   9.641   3.006  0.1458 -0.9209 -0.4718
57420SOL     OW78222   3.435  10.686  10.483  0.3979 -0.3904  0.2789
57420SOL    HW178223   3.502  10.751  10.501  0.7729 -0.7762  0.3036
57420SOL    HW278224   3.455  10.656  10.394  0.2896 -0.5454  0.3068
57421SOL     OW78225  11.150   2.155   0.501 -0.2241 -0.1249 -0.3553
57421SOL    HW178226  11.169   2.128   0.591 -0.4024  0.0626 -0.2603
57421SOL    HW278227  11.121   2.245   0.509  0.7494  0.2344 -0.7125
57422SOL     OW78228   5.011   9.845   9.194  0.1855  0.4424  0.5557
57422SOL    HW178229   5.104   9.825   9.185  0.1020  0.2899 -0.0124
57422SOL    HW278230   4.972   9.810   9.114  0.0053  2.7388 -0.4180
57423SOL     OW78231   7.853   4.157   7.460  0.1949 -0.5146  0.2563
57423SOL    HW178232   7.797   4.234   7.458  1.1128  0.1999  1.2747
57423SOL    HW278233   7.880   4.145   7.369  0.3902  0.6251  0.1483
57424SOL     OW78234  11.365   7.470   4.129  0.0449 -0.5908 -0.4804
57424SOL    HW178235  11.444   7.503   4.172 -0.3342  0.1188 -0.3017
57424SOL    HW278236  11.314   7.429   4.199 -0.3502  0.1383 -0.3242
57425SOL     OW78237   4.393   2.973   5.470 -0.3276  0.2528 -0.5271
57425SOL    HW178238   4.452   2.990   5.397 -1.3211 -0.8981 -1.6368
57425SOL    HW278239   4.317   2.930   5.431  0.5898 -3.8040  1.5179
57426SOL     OW78240  11.255   1.903  12.356 -0.3285  0.9405 -0.1930
57426SOL    HW178241  11.182   1.952  12.320 -1.0187 -0.2101 -0.4085
57426SOL    HW278242  11.326   1.916  12.293 -1.1440 -0.0356 -1.3637
57427SOL     OW78243  12.245   6.763   1.132  0.5080  0.2810  0.6233
57427SOL    HW178244  12.260   6.858   1.134  1.6784  0.1599 -0.9020
57427SOL    HW278245  12.245   6.738   1.224  3.4237  1.3293  1.0153
57428SOL     OW78246   9.248   8.372   9.357 -0.2790 -0.1206  0.8306
57428SOL    HW178247   9.264   8.284   9.321  0.6998  0.6345 -0.6727
57428SOL    HW278248   9.305   8.376   9.434  0.4423 -0.4587  0.3290
57429SOL     OW78249   8.975   6.737   2.229  0.4569  0.2662 -0.5006
57429SOL    HW178250   8.886   6.729   2.195  0.0914  0.4384  0.3909
57429SOL    HW278251   8.974   6.817   2.281  1.2470  0.4869 -0.8041
57430SOL     OW78252   9.907   0.708   8.759 -0.0306 -0.3784 -0.9215
57430SOL    HW178253   9.936   0.673   8.675  1.4393  3.5876 -2.3059
57430SOL    HW278254   9.985   0.747   8.798 -1.6783  3.1029 -0.6585
57431SOL     OW78255   9.943   5.922   7.502  0.0897 -0.4724 -0.3428
57431SOL    HW178256   9.851   5.948   7.498 -0.4382 -2.0214  0.6913
57431SOL    HW278257   9.941   5.833   7.536  2.1466  0.6054  3.0374
57432SOL     OW78258   3.550  10.123   9.877 -0.1205  0.1723 -0.6732
57432SOL    HW178259   3.618  10.066   9.840 -0.5518 -0.5310 -0.4120
57432SOL    HW278260   3.519  10.175   9.803  1.7156  1.5857 -0.5217
57433SOL     OW78261   7.672  12.362  10.495 -0.1918 -0.1333 -0.0789
57433SOL    HW178262   7.737  12.310  10.448 -0.7211 -0.1114 -0.8416
57433SOL    HW278263   7.721  12.400  10.568  0.9217  0.7815 -1.2627
57434SOL     OW78264   3.202  12.101   1.126 -0.3584 -0.4106 -0.3165
57434SOL    HW178265   3.236  12.128   1.212 -0.8127  1.6122 -0.7162
57434SOL    HW278266   3.223  12.008   1.120  0.2249 -0.4629  1.7311
57435SOL     OW78267   4.190   2.249   2.995  0.5080  0.0158  0.1080
57435SOL    HW178268   4.205   2.170   3.047 -0.6895 -1.5913 -1.8092
57435SOL    HW278269   4.119   2.225   2.935  2.3494  1.3749 -2.8577
57436SOL     OW78270   5.921   7.212   0.235 -0.4506 -0.1484 -0.1248
57436SOL    HW178271   5.968   7.212   0.151 -1.5981 -1.1454 -0.8097
57436SOL    HW278272   5.896   7.120   0.247  1.0447 -0.3284  2.1297
57437SOL     OW78273   1.668   3.679  12.039  0.0952  0.3118 -0.1123
57437SOL    HW178274   1.706   3.604  11.994 -0.7739 -2.1114  2.8486
57437SOL    HW278275   1.742   3.738  12.054  1.3638 -1.1643 -0.2846
57438SOL     OW78276  12.296   7.646   8.815  0.1347  0.6845  0.7298
57438SOL    HW178277  12.321   7.709   8.883 -0.3363  0.2818  1.2925
57438SOL    HW278278  12.357   7.573   8.825  0.1348  0.6735  0.6522
57439SOL     OW78279   7.743   0.573  11.439 -0.0490 -0.5551 -0.6350
57439SOL    HW178280   7.690   0.646  11.470 -1.1329 -0.8953 -1.6242
57439SOL    HW278281   7.833   0.601  11.454 -0.4276 -0.7816  2.9875
57440SOL     OW78282  11.461   0.400   0.819  0.0759 -0.6801 -0.6019
57440SOL    HW178283  11.369   0.383   0.799 -0.4696  1.9268 -0.6593
57440SOL    HW278284  11.461   0.422   0.913  0.3975  0.5842 -0.8802
57441SOL     OW78285  11.276  11.298   9.239 -0.4422 -0.4126 -0.5975
57441SOL    HW178286  11.232  11.357   9.178 -2.0579  0.2509  1.0921
57441SOL    HW278287  11.210  11.231   9.259  0.4800 -1.3153 -0.5089
57442SOL     OW78288   5.745   5.506  11.499 -0.0549  0.1062  0.0652
57442SOL    HW178289   5.778   5.564  11.431  0.1626  0.2502  0.2894
57442SOL    HW278290   5.772   5.418  11.472  0.7893  0.2538  0.3975
57443SOL     OW78291   8.700   6.689   6.440 -0.2832  0.0959 -0.3583
57443SOL    HW178292   8.691   6.594   6.440 -0.5575  0.1208 -0.2258
57443SOL    HW278293   8.737   6.710   6.354 -0.4308 -0.1109 -0.4734
57444SOL     OW78294   3.712   3.906   8.324  0.1197 -0.5064  0.1789
57444SOL    HW178295   3.628   3.951   8.317 -0.2405 -1.2349 -0.3781
57444SOL    HW278296   3.704   3.831   8.266 -0.3162 -2.8208  2.9722
57445SOL     OW78297   1.800   7.682  10.411  0.4111  0.7537 -0.0424
57445SOL    HW178298   1.887   7.648  10.432  0.2359 -0.2212 -0.8324
57445SOL    HW278299   1.740   7.610  10.434 -0.0800  0.9737 -0.6167
57446SOL     OW78300  12.443  11.281   5.589  0.0815 -0.1571 -0.2147
57446SOL    HW178301  12.349  11.261   5.589  0.1383 -0.4544  0.0870
57446SOL    HW278302  12.480  11.217   5.650  0.5824 -0.5013 -0.8693
57447SOL     OW78303   6.379   2.847   2.559  0.1713 -0.1217  0.0410
57447SOL    HW178304   6.298   2.828   2.606  0.4697 -1.0227  0.2009
57447SOL    HW278305   6.447   2.848   2.627  0.6017 -1.3954 -0.3474
57448SOL     OW78306   0.739   8.928   8.328  0.2044  0.5488 -0.2517
57448SOL    HW178307   0.755   8.934   8.422  3.0196  0.0377 -0.5947
57448SOL    HW278308   0.752   9.017   8.295 -2.7881  1.1609  0.0133
57449SOL     OW78309   7.969   5.329   6.968 -0.1780 -0.5731 -0.3296
57449SOL    HW178310   8.042   5.311   7.028 -0.7521 -0.3558  0.4467
57449SOL    HW278311   7.933   5.413   6.997 -1.2966 -1.1010 -0.1210
57450SOL     OW78312   4.168   9.888  11.907 -0.0985 -0.1784  0.1466
57450SOL    HW178313   4.093   9.889  11.847 -0.2053  0.6734  0.2859
57450SOL    HW278314   4.244   9.895  11.849 -0.0763 -1.6277 -0.0390
57451SOL     OW78315   4.942   8.915   6.820 -0.5261 -0.4103  0.0576
57451SOL    HW178316   4.989   8.832   6.820 -1.4144 -0.9213  0.0095
57451SOL    HW278317   4.972   8.959   6.740 -1.0224 -1.2527 -0.6108
57452SOL     OW78318  12.006  12.130   4.090 -0.1193 -0.3635 -0.1001
57452SOL    HW178319  11.991  12.217   4.051 -2.7220  0.3111  2.1208
57452SOL    HW278320  12.069  12.146   4.160  1.5702 -0.8644 -1.4414
57453SOL     OW78321   8.824   6.546   1.353  0.1380 -0.8298  0.0905
57453SOL    HW178322   8.917   6.568   1.363 -0.2288  0.0588  2.1802
57453SOL    HW278323   8.808   6.476   1.417 -0.7830 -0.4103  0.3471
57454SOL     OW78324   4.184   7.525   3.447  0.5115  0.3974  0.9402
57454SOL    HW178325   4.221   7.608   3.476  0.1560  0.3143  1.6609
57454SOL    HW278326   4.093   7.527   3.477 -0.2674  0.8304 -1.2599
57455SOL     OW78327   0.405   7.066  11.971  0.0784  0.0833  0.7790
57455SOL    HW178328   0.347   7.028  12.036  1.4802 -0.2973  1.8622
57455SOL    HW278329   0.353   7.135  11.929 -1.0532 -0.0787  1.8640
57456SOL     OW78330   7.442   9.785   0.163  0.1986  0.0561 -0.3300
57456SOL    HW178331   7.426   9.869   0.119  1.1956  0.7752  0.6008
57456SOL    HW278332   7.461   9.809   0.253  0.0043 -1.2331  0.0746
57457SOL     OW78333   2.246   2.185   7.053  0.2689  0.3506  0.7183
57457SOL    HW178334   2.186   2.112   7.040  0.9522 -0.1549  0.3284
57457SOL    HW278335   2.238   2.238   6.973  0.1079  0.4564  0.8047
57458SOL     OW78336  12.348  11.450   3.748 -0.2770 -0.7430  0.0844
57458SOL    HW178337  12.268  11.441   3.696 -0.9336  1.9944  0.4666
57458SOL    HW278338  12.418  11.456   3.683 -0.6745 -0.7898 -0.3535
57459SOL     OW78339   0.276   7.566   4.575 -0.1317  0.3528 -0.3985
57459SOL    HW178340   0.328   7.593   4.650 -0.4570 -0.3059  0.0794
57459SOL    HW278341   0.188   7.601   4.593 -0.1639  0.3598 -0.5660
57460SOL     OW78342   2.771   9.696   1.419  0.1901  0.4744 -0.0194
57460SOL    HW178343   2.715   9.770   1.395 -0.0747  1.2915  2.7448
57460SOL    HW278344   2.711   9.629   1.450  0.5697  0.0634 -0.1578
57461SOL     OW78345   4.943   6.565  11.012  0.0995 -0.2866  0.6416
57461SOL    HW178346   5.017   6.622  11.032  1.2517 -1.8236  1.0178
57461SOL    HW278347   4.984   6.480  10.991 -1.5811 -1.3014  1.2894
57462SOL     OW78348   0.745   7.513   9.393 -0.0948  0.3427 -0.1856
57462SOL    HW178349   0.763   7.543   9.482  3.2403 -0.7075 -0.3866
57462SOL    HW278350   0.695   7.432   9.405  1.9889 -0.8724  0.9256
57463SOL     OW78351   1.814   7.856   0.643 -0.4535  0.2631 -0.6328
57463SOL    HW178352   1.897   7.903   0.655 -0.7376  0.5223  0.3189
57463SOL    HW278353   1.815   7.830   0.550  1.2121 -0.7048 -0.3871
57464SOL     OW78354  11.856   4.193  12.108  0.3419  0.3831 -0.4381
57464SOL    HW178355  11.952   4.194  12.119  0.2419  0.4051  0.5552
57464SOL    HW278356  11.843   4.193  12.013  1.3020  2.8945 -0.6561
57465SOL     OW78357   7.160  11.706   4.358  0.2387  0.3513 -0.2399
57465SOL    HW178358   7.213  11.631   4.330 -0.8078 -0.3729 -0.3716
57465SOL    HW278359   7.222  11.778   4.365  1.1660 -0.3636 -0.7746
57466SOL     OW78360   2.850   5.024   3.297  0.2272  0.3910  0.2113
57466SOL    HW178361   2.796   5.017   3.375  1.6204 -3.0325  1.0452
57466SOL    HW278362   2.812   4.960   3.236  0.8689  0.9512 -0.8121
57467SOL     OW78363   3.161  11.107   1.659 -0.1498 -0.1384  0.4994
57467SOL    HW178364   3.087  11.116   1.600  0.1808  0.6942  0.2020
57467SOL    HW278365   3.234  11.080   1.603  0.1141  0.4506  0.5535
57468SOL     OW78366  11.690   5.363  10.349  0.6563  0.3895  0.0593
57468SOL    HW178367  11.604   5.404  10.335 -0.2122 -1.3210  0.1142
57468SOL    HW278368  11.713   5.387  10.439  0.5150  1.3387 -0.1468
57469SOL     OW78369   1.013   0.636   3.418  0.1991 -0.4442  0.2017
57469SOL    HW178370   1.031   0.672   3.330 -1.3872  2.1675  0.8133
57469SOL    HW278371   1.099   0.625   3.457  0.8779  1.5175 -0.5822
57470SOL     OW78372   0.745   8.479  11.169  0.3034 -0.1071  0.7347
57470SOL    HW178373   0.782   8.472  11.081 -1.5220 -0.2231 -0.0749
57470SOL    HW278374   0.682   8.551  11.163 -0.4634 -0.6721  1.7043
57471SOL     OW78375  10.116   1.196   9.374  0.4321 -0.2780  0.4389
57471SOL    HW178376  10.185   1.236   9.426 -0.0239 -1.0782  1.7183
57471SOL    HW278377  10.157   1.178   9.290  1.0006  1.6729  0.2514
57472SOL     OW78378   4.117   6.800  10.876 -0.0098  0.2695 -0.3546
57472SOL    HW178379   4.184   6.741  10.911 -0.6369 -0.2998 -0.1026
57472SOL    HW278380   4.117   6.782  10.782  0.8581  0.9663 -0.5020
57473SOL     OW78381   9.538   5.520   8.849 -0.3690  0.2154  0.4896
57473SOL    HW178382   9.560   5.516   8.942 -0.3443  1.3764  0.5388
57473SOL    HW278383   9.512   5.610   8.834  1.3129  0.5074 -1.0123
57474SOL     OW78384   6.781   2.667  12.073  0.0841  0.1393  0.6644
57474SOL    HW178385   6.693   2.703  12.070 -0.0044 -0.1126  0.1076
57474SOL    HW278386   6.770   2.575  12.048  0.8321  0.7468 -2.2432
57475SOL     OW78387   4.187  11.419   4.295  0.3753 -0.2599 -0.0201
57475SOL    HW178388   4.195  11.515   4.299  0.4166 -0.2928  0.6424
57475SOL    HW278389   4.217  11.397   4.207  0.2845  0.3458 -0.2089
57476SOL     OW78390   4.586  11.825   6.503 -0.3529  0.6778  0.1789
57476SOL    HW178391   4.643  11.901   6.513  0.9023 -0.1053 -0.7444
57476SOL    HW278392   4.594  11.778   6.586  1.0867  0.1052 -0.2582
57477SOL     OW78393   6.237  11.515   6.671 -0.1992  0.0291 -0.1587
57477SOL    HW178394   6.239  11.578   6.599 -0.3299  0.2052 -0.0071
57477SOL    HW278395   6.287  11.440   6.638 -0.9247 -0.2129 -0.7350
57478SOL     OW78396   6.679  12.270  10.058 -0.4313  0.0741  0.4031
57478SOL    HW178397   6.751  12.224  10.015  0.4007  1.3239  0.3808
57478SOL    HW278398   6.600  12.235  10.019  0.1742 -1.2248  0.3095
57479SOL     OW78399   4.798   2.979  12.462  0.0785 -0.3873  0.6287
57479SOL    HW178400   4.720   2.971  12.407  0.6394 -1.6631 -0.0334
57479SOL    HW278401   4.830   2.890  12.471  1.3250  0.0879  1.0887
57480SOL     OW78402   9.794   2.100   5.824  0.1207  0.7357 -0.5406
57480SOL    HW178403   9.712   2.066   5.859 -1.6898  0.9982 -4.0674
57480SOL    HW278404   9.839   2.023   5.790 -1.1500  0.9900 -3.0800
57481SOL     OW78405  12.100   1.309   8.805 -0.2096 -0.2534  0.1560
57481SOL    HW178406  12.096   1.239   8.870 -1.5469  0.2601  0.6740
57481SOL    HW278407  12.093   1.389   8.856  0.2860  0.2194 -0.5053
57482SOL     OW78408   7.227  10.414  11.605  0.2409  0.0944  0.4382
57482SOL    HW178409   7.257  10.399  11.695  0.6625 -1.5001  0.0535
57482SOL    HW278410   7.137  10.379  11.604  0.4110 -0.3311  0.1159
57483SOL     OW78411   4.418   6.737   2.308 -0.0098 -0.4638  0.0528
57483SOL    HW178412   4.445   6.663   2.363  1.5108 -1.0982 -1.4582
57483SOL    HW278413   4.353   6.783   2.360  0.7089 -1.5420  2.0081
57484SOL     OW78414   8.449   9.533   2.270  0.6500 -0.2546 -0.6205
57484SOL    HW178415   8.525   9.476   2.281  1.7103  1.3256  0.5454
57484SOL    HW278416   8.483   9.612   2.228  0.0190  1.1646  1.4224
57485SOL     OW78417  10.222   6.764   9.420  0.2735  0.1724 -0.1709
57485SOL    HW178418  10.140   6.785   9.464 -0.2435  0.4689 -1.2345
57485SOL    HW278419  10.289   6.772   9.488 -0.4466  1.0149  0.4597
57486SOL     OW78420   7.020  11.567   0.741  0.0829  0.4977 -0.3320
57486SOL    HW178421   6.991  11.595   0.654  0.8160  1.4947 -0.2847
57486SOL    HW278422   6.957  11.606   0.801 -0.3695 -0.1128 -0.4039
57487SOL     OW78423   7.977   3.462  11.600  0.2439  0.1368 -0.3135
57487SOL    HW178424   8.061   3.438  11.562 -0.4752  1.5021 -3.0619
57487SOL    HW278425   7.969   3.407  11.677  3.1046 -0.8775 -0.6163
57488SOL     OW78426   1.595   9.847   4.905 -0.7743 -0.0785 -0.1165
57488SOL    HW178427   1.638   9.865   4.989 -0.2082 -1.7103 -0.0329
57488SOL    HW278428   1.655   9.880   4.839 -1.3695  1.5165  0.0859
57489SOL     OW78429   4.531  10.352  10.185 -0.4772  0.0581 -0.5996
57489SOL    HW178430   4.471  10.278  10.191 -1.6376  0.9989 -0.4207
57489SOL    HW278431   4.612  10.320  10.224 -1.3585 -0.7044  0.6677
57490SOL     OW78432   9.089   1.953  10.529 -0.2120  0.3308 -0.3608
57490SOL    HW178433   9.027   1.891  10.567 -0.6285  1.2044  0.4281
57490SOL    HW278434   9.173   1.909  10.534 -0.3384  0.2243  1.1591
57491SOL     OW78435   9.177   4.211   0.316 -0.1574  0.1791 -0.3197
57491SOL    HW178436   9.251   4.265   0.340 -1.7033  1.8679  0.9153
57491SOL    HW278437   9.161   4.231   0.224  2.0189 -1.6675 -1.1904
57492SOL     OW78438   3.084   4.617  10.947 -0.4321  0.1689 -0.3568
57492SOL    HW178439   3.125   4.578  10.869 -0.8453 -0.2537 -0.3705
57492SOL    HW278440   3.146   4.600  11.018  0.5764  1.7477 -0.8350
57493SOL     OW78441   9.239   6.745  10.022 -0.2968  0.0981  0.3775
57493SOL    HW178442   9.240   6.681   9.951  2.0843  2.2817 -1.8143
57493SOL    HW278443   9.159   6.796  10.007 -0.2005  0.0607 -0.2998
57494SOL     OW78444   0.970   3.886   5.315  0.1982  0.0503 -0.3937
57494SOL    HW178445   1.037   3.865   5.380  0.2971 -1.3139 -0.9077
57494SOL    HW278446   0.900   3.822   5.332 -1.2868  1.7864  0.5176
57495SOL     OW78447   9.628   1.144   4.792  0.0458  0.1637 -0.5868
57495SOL    HW178448   9.707   1.096   4.765  1.2761  2.5099 -1.4028
57495SOL    HW278449   9.635   1.149   4.887 -0.0677 -1.1591 -0.4919
57496SOL     OW78450   6.690   7.434   2.325 -0.2665 -0.4607  0.0919
57496SOL    HW178451   6.778   7.460   2.351 -1.0236  0.4741  1.8412
57496SOL    HW278452   6.692   7.435   2.229  1.4541  0.0652  0.1037
57497SOL     OW78453   3.900  10.775   5.900 -0.4396  0.2515  0.4577
57497SOL    HW178454   3.926  10.860   5.865 -0.4440 -0.4270 -1.2918
57497SOL    HW278455   3.982  10.728   5.913 -0.5315 -0.3890 -1.0819
57498SOL     OW78456   3.463   8.687  10.226 -0.9415  0.1012 -0.1068
57498SOL    HW178457   3.425   8.708  10.311 -2.1927 -1.2162 -0.3045
57498SOL    HW278458   3.435   8.759  10.169 -0.9857  0.4487  0.3511
57499SOL     OW78459   1.832   8.678   9.541 -0.9456 -0.0218 -0.2636
57499SOL    HW178460   1.924   8.690   9.519 -0.4004 -2.2971  0.5408
57499SOL    HW278461   1.820   8.726   9.624 -0.2621 -0.3745  0.0450
57500SOL     OW78462   6.480   3.232  11.794 -0.8590 -0.1769  0.3061
57500SOL    HW178463   6.566   3.218  11.834 -0.1815 -1.4658 -1.4654
57500SOL    HW278464   6.495   3.300  11.729 -1.1362 -0.5100 -0.1108
57501SOL     OW78465   8.086   1.397   8.625  0.3970  0.2894  0.3925
57501SOL    HW178466   7.992   1.401   8.609  0.6958  0.7778 -1.4269
57501SOL    HW278467   8.123   1.360   8.546  1.6845 -0.7624  1.4371
57502SOL     OW78468  11.461   1.386   1.738 -0.1785 -0.3313  0.1609
57502SOL    HW178469  11.494   1.398   1.649 -0.4365 -1.7144 -0.1469
57502SOL    HW278470  11.376   1.430   1.738 -0.5798 -1.0826 -0.5575
57503SOL     OW78471   7.708   2.946  12.094 -0.1214  0.2080  0.5502
57503SOL    HW178472   7.761   3.014  12.053  0.3941 -0.9326 -0.7609
57503SOL    HW278473   7.759   2.866  12.084 -1.2094 -0.5788  1.0347
57504SOL     OW78474   2.836   1.192   2.629 -0.4083  0.5692 -0.2831
57504SOL    HW178475   2.791   1.108   2.628  0.7190 -0.0669 -1.8381
57504SOL    HW278476   2.772   1.256   2.598 -1.5202  0.4763  1.6592
57505SOL     OW78477   9.917   3.674   4.286 -0.1873  0.1235 -0.0893
57505SOL    HW178478   9.895   3.767   4.290  1.3457  0.5544 -1.1729
57505SOL    HW278479  10.007   3.671   4.255  0.4797 -1.6710  1.7676
57506SOL     OW78480   5.002   8.349  10.255  0.4954  0.1391 -0.8298
57506SOL    HW178481   5.004   8.383  10.345  2.4696  1.9985 -1.5180
57506SOL    HW278482   4.911   8.324  10.242 -0.7068  3.3885  0.4282
57507SOL     OW78483  10.581   9.367   5.926  0.3103  0.0287  0.1001
57507SOL    HW178484  10.535   9.451   5.917 -0.4581 -0.4097 -0.1519
57507SOL    HW278485  10.671   9.392   5.945  0.1787  0.9225 -0.3558
57508SOL     OW78486   5.543   6.968   7.756 -0.0754 -1.0125 -0.3680
57508SOL    HW178487   5.491   6.992   7.833 -0.6353 -0.4066 -0.9222
57508SOL    HW278488   5.520   6.876   7.739 -0.8877 -0.7811 -0.5429
57509SOL     OW78489   9.493   4.576   8.565 -0.0457  0.3922  0.5820
57509SOL    HW178490   9.490   4.625   8.647 -1.3153 -2.4579  2.4199
57509SOL    HW278491   9.428   4.506   8.577  1.7174 -1.8219 -1.7260
57510SOL     OW78492  11.623   2.465   4.292 -0.2540 -0.3442 -0.6746
57510SOL    HW178493  11.700   2.497   4.339  0.4384  1.1995 -2.7247
57510SOL    HW278494  11.642   2.373   4.276  0.8954 -0.1335 -0.6347
57511SOL     OW78495   1.465   2.893   0.532  0.3116 -0.2517  0.6702
57511SOL    HW178496   1.378   2.880   0.570  0.0388  0.7304  0.4076
57511SOL    HW278497   1.523   2.905   0.608 -0.3387  2.3959  0.8513
57512SOL     OW78498   1.513   5.994   6.638 -0.4973  0.1235 -0.1561
57512SOL    HW178499   1.465   6.024   6.715 -0.2759 -3.0781  1.3996
57512SOL    HW278500   1.454   6.008   6.565 -1.6077  1.2260  0.9213
57513SOL     OW78501   7.961   9.195   6.854  0.1378  0.1962 -0.2392
57513SOL    HW178502   8.014   9.217   6.778 -0.3420  1.0483 -0.3444
57513SOL    HW278503   8.001   9.116   6.890  0.7840  0.1834 -0.9700
57514SOL     OW78504   5.667   7.067   5.583  0.0450  0.0702 -0.1311
57514SOL    HW178505   5.661   7.140   5.521 -0.0689 -0.0666 -0.2807
57514SOL    HW278506   5.576   7.045   5.603  0.0023  2.0508  2.3705
57515SOL     OW78507   3.957   3.164   8.492  0.9217  0.4251 -0.1894
57515SOL    HW178508   3.952   3.158   8.397 -0.2698 -0.5322 -0.0882
57515SOL    HW278509   3.894   3.231   8.515 -0.6919 -1.1145  0.0692
57516SOL     OW78510   8.567   8.432   2.939 -0.0918 -0.2845  0.2010
57516SOL    HW178511   8.564   8.388   3.024 -1.2274  0.0819  0.3722
57516SOL    HW278512   8.609   8.516   2.957 -0.9198  0.0742  0.5632
57517SOL     OW78513  10.746   7.248  12.340  0.2103 -0.7550 -0.1979
57517SOL    HW178514  10.662   7.206  12.323 -0.7061  0.8433  0.1400
57517SOL    HW278515  10.768   7.223  12.429 -1.1421  0.6969  0.6031
57518SOL     OW78516  11.205   5.855   1.839 -0.8459 -0.4036  0.4198
57518SOL    HW178517  11.235   5.888   1.924 -0.8168  1.3608 -0.2381
57518SOL    HW278518  11.134   5.914   1.814  0.2492  0.1512 -1.5404
57519SOL     OW78519   5.017   4.538   2.853  0.3513 -0.6498  0.0994
57519SOL    HW178520   5.043   4.463   2.799 -0.2948  0.3197 -1.6230
57519SOL    HW278521   5.058   4.614   2.811 -0.6226  0.2073  0.6521
57520SOL     OW78522   5.532   4.117   8.731 -0.1000  0.3369 -0.5599
57520SOL    HW178523   5.569   4.043   8.779 -0.2123 -0.6848 -1.9781
57520SOL    HW278524   5.607   4.169   8.704  0.1333 -0.2563 -1.0915
57521SOL     OW78525   6.652  10.080   7.437  0.0604 -0.2386  0.0572
57521SOL    HW178526   6.567  10.118   7.461  1.2648  1.5575  1.8621
57521SOL    HW278527   6.716  10.137   7.480  2.2406 -1.0340 -1.9197
57522SOL     OW78528   7.849   9.585   2.626  0.2349 -0.2382 -0.2172
57522SOL    HW178529   7.924   9.634   2.593  0.2801  0.1220  0.4018
57522SOL    HW278530   7.885   9.499   2.651 -0.0288 -0.9779 -2.2461
57523SOL     OW78531   9.190   2.193   7.683 -0.5679  0.2492 -0.1748
57523SOL    HW178532   9.109   2.242   7.695 -0.4312  0.8373 -1.4653
57523SOL    HW278533   9.201   2.187   7.588  0.4826 -0.5216 -0.0279
57524SOL     OW78534   2.260   8.246   6.735 -0.0109  0.2640 -0.2650
57524SOL    HW178535   2.303   8.278   6.656 -0.7927 -0.3437 -0.9605
57524SOL    HW278536   2.257   8.151   6.725  3.4453 -0.3134  2.3695
57525SOL     OW78537   9.707   1.623   3.050  0.1702 -0.5736 -0.2907
57525SOL    HW178538   9.681   1.709   3.081 -0.5027 -1.0436  0.4823
57525SOL    HW278539   9.749   1.639   2.965  0.2900  0.5271 -0.0290
57526SOL     OW78540   0.538   8.362   0.617 -0.1663 -0.1544 -0.2464
57526SOL    HW178541   0.593   8.284   0.608  0.1901  0.1146 -0.3991
57526SOL    HW278542   0.449   8.330   0.600  0.1815 -0.1617 -2.2274
57527SOL     OW78543  11.997   9.445  10.612  0.4798  0.3478 -0.0459
57527SOL    HW178544  11.960   9.359  10.629  0.6409  0.1982 -0.4308
57527SOL    HW278545  11.999   9.488  10.698 -1.7628  0.8520 -0.1768
57528SOL     OW78546   6.234   0.090   2.870  0.2678 -0.2977  0.6991
57528SOL    HW178547   6.264  -0.000   2.856  3.1294  0.4619  1.2888
57528SOL    HW278548   6.215   0.095   2.964 -1.0173 -0.5469  0.4712
57529SOL     OW78549   2.008   5.035   6.147 -0.0319  0.0226 -0.2100
57529SOL    HW178550   2.050   5.013   6.231  1.4609 -1.1424 -1.1979
57529SOL    HW278551   2.035   4.965   6.088 -4.5928 -1.6793 -0.6778
57530SOL     OW78552  10.786   4.250   7.240 -0.0143  0.5310  0.0457
57530SOL    HW178553  10.853   4.304   7.199  1.9107 -2.3376 -0.8762
57530SOL    HW278554  10.754   4.193   7.170 -1.6111  0.0996  1.0601
57531SOL     OW78555  12.209   3.066   0.606  0.1696 -0.0445 -0.3353
57531SOL    HW178556  12.219   2.973   0.623 -1.1551 -0.5947 -2.1976
57531SOL    HW278557  12.138   3.094   0.664  1.7827  0.2767  1.5584
57532SOL     OW78558   0.970  11.269   8.066  0.3578 -0.3473 -0.5891
57532SOL    HW178559   0.917  11.334   8.019 -0.7166  0.1967  1.2350
57532SOL    HW278560   0.968  11.191   8.011  0.0270  0.5502 -1.8996
57533SOL     OW78561   6.356   1.314   4.708  0.1739  0.0548 -1.0043
57533SOL    HW178562   6.312   1.381   4.762 -0.8388 -0.3340 -1.3204
57533SOL    HW278563   6.364   1.355   4.622  1.0257  0.3618 -0.7852
57534SOL     OW78564  11.331  10.724   2.546  0.0525 -0.0392 -0.3405
57534SOL    HW178565  11.267  10.795   2.546  2.4656  2.3086 -0.4372
57534SOL    HW278566  11.327  10.687   2.634 -1.2634  0.1900 -0.2859
57535SOL     OW78567   4.802   9.253   6.821  0.2405 -0.0925  0.7643
57535SOL    HW178568   4.815   9.233   6.729  2.8368  0.6301  0.8723
57535SOL    HW278569   4.711   9.281   6.828  0.3257  1.0587 -1.8327
57536SOL     OW78570   1.306   1.177   2.284  0.0891 -0.1777 -0.4072
57536SOL    HW178571   1.233   1.128   2.324 -0.3049 -0.3040 -1.2548
57536SOL    HW278572   1.315   1.255   2.339  1.5835 -1.7520  1.7742
57537SOL     OW78573   8.744   5.210   8.514  0.0161 -0.2695  0.1200
57537SOL    HW178574   8.687   5.138   8.488  0.3040  0.5344 -3.2344
57537SOL    HW278575   8.684   5.282   8.534 -0.3913  0.5003 -3.1577
57538SOL     OW78576   3.013   4.903  10.638  0.3310 -0.0771  0.0849
57538SOL    HW178577   3.068   4.969  10.595 -0.7552  0.3179 -0.7533
57538SOL    HW278578   2.930   4.907  10.591 -0.5306 -0.4460  1.5116
57539SOL     OW78579   4.924   6.445  10.625 -0.4377 -0.4891 -0.2560
57539SOL    HW178580   4.966   6.531  10.632  1.4227 -1.4306  0.8976
57539SOL    HW278581   4.868   6.439  10.703 -3.5433  1.0600 -2.1468
57540SOL     OW78582   5.767   2.081  12.153  0.0159 -0.3187  0.2259
57540SOL    HW178583   5.732   1.997  12.184 -0.1496  0.2264  1.5765
57540SOL    HW278584   5.765   2.073  12.058  0.3905 -2.0127  0.3145
57541SOL     OW78585   8.534   1.630   5.930  0.5550 -0.1301  0.2279
57541SOL    HW178586   8.451   1.652   5.889  1.1238 -0.5044 -1.1709
57541SOL    HW278587   8.592   1.703   5.908  0.7621 -0.1327  0.7362
57542SOL     OW78588   0.575   3.128   2.511  0.2302 -0.1808  0.3357
57542SOL    HW178589   0.502   3.162   2.459  0.5504 -0.5576 -0.3685
57542SOL    HW278590   0.590   3.039   2.478 -0.4781 -0.9866  2.0212
57543SOL     OW78591   2.759  11.121   1.574 -0.2790  0.1381  0.3255
57543SOL    HW178592   2.805  11.199   1.543 -0.1509  0.6135  1.6643
57543SOL    HW278593   2.819  11.049   1.553  0.3562  0.5793  0.5784
57544SOL     OW78594   3.599   5.655   6.765 -0.2488 -0.1616 -0.7134
57544SOL    HW178595   3.607   5.650   6.670  0.1332 -3.1568 -0.6397
57544SOL    HW278596   3.680   5.615   6.798 -0.6507  0.2483  0.8574
57545SOL     OW78597   6.753  12.453   4.827  0.0476 -0.5520 -0.1291
57545SOL    HW178598   6.747  12.545   4.852 -1.4960  0.0640 -2.4917
57545SOL    HW278599   6.662  12.425   4.814  0.5833 -1.7351 -1.6375
57546SOL     OW78600   6.172   5.816  11.445  0.2894  0.1402 -0.0097
57546SOL    HW178601   6.195   5.754  11.375  1.7516  1.0145 -0.3287
57546SOL    HW278602   6.212   5.780  11.524 -0.6930 -0.4240  0.2608
57547SOL     OW78603   9.729   4.452   8.154  0.0992 -0.0913 -0.6406
57547SOL    HW178604   9.636   4.430   8.149  0.0365  0.3570 -1.8488
57547SOL    HW278605   9.771   4.393   8.091  0.6858 -0.4891  0.1025
57548SOL     OW78606   7.153   6.223  12.017  0.4828 -0.0800 -0.4513
57548SOL    HW178607   7.193   6.237  12.103  0.3251 -2.6341  0.1269
57548SOL    HW278608   7.068   6.267  12.022  1.7130  2.4268 -0.4533
57549SOL     OW78609   2.416   4.016   3.214  0.3023 -0.0393 -0.5547
57549SOL    HW178610   2.332   4.061   3.201  0.9344  1.2803 -0.3076
57549SOL    HW278611   2.437   3.979   3.128 -1.6888 -2.5801 -0.0608
57550SOL     OW78612   2.613   0.411   0.582 -0.1747  0.1226  0.2502
57550SOL    HW178613   2.594   0.332   0.633  0.0458  0.1840  0.4336
57550SOL    HW278614   2.696   0.391   0.537 -0.6382 -0.1315 -0.5081
57551SOL     OW78615   5.132   8.190   5.695 -0.1149 -0.4170  0.3386
57551SOL    HW178616   5.197   8.251   5.729 -0.1224 -0.1859 -0.0546
57551SOL    HW278617   5.156   8.105   5.733 -0.2668 -0.1281  1.1054
57552SOL     OW78618   1.280  11.341   2.582 -0.4384  0.3020 -0.1440
57552SOL    HW178619   1.239  11.261   2.551 -1.7656  1.4128 -1.3801
57552SOL    HW278620   1.349  11.311   2.642 -1.0206 -1.7252 -0.4209
57553SOL     OW78621  10.426   9.524   8.683 -0.7965 -0.3234 -0.3690
57553SOL    HW178622  10.515   9.525   8.718 -0.6017  1.6365 -0.7993
57553SOL    HW278623  10.421   9.602   8.628 -2.6864 -0.5589 -0.6050
57554SOL     OW78624   4.615   6.311   0.640  0.3954  0.4303 -0.0823
57554SOL    HW178625   4.574   6.231   0.609  0.9969  0.5248 -1.1589
57554SOL    HW278626   4.707   6.304   0.613  0.7271  0.9563  0.8377
57555SOL     OW78627   6.153   0.180   9.118 -0.0428  0.6177  0.1082
57555SOL    HW178628   6.115   0.098   9.150  0.9222  0.7703  1.7522
57555SOL    HW278629   6.197   0.218   9.194 -1.2870  3.1671 -0.3217
57556SOL     OW78630  11.934  11.309   3.551 -0.5739 -1.1828  0.2253
57556SOL    HW178631  11.889  11.224   3.543 -1.1178 -0.8637 -0.1265
57556SOL    HW278632  11.883  11.357   3.615 -0.1324 -1.1961  0.5958
57557SOL     OW78633  10.133   0.165   2.612 -0.4217 -0.3662  0.2637
57557SOL    HW178634  10.073   0.224   2.658  0.1619 -0.3485  1.0126
57557SOL    HW278635  10.220   0.197   2.635 -0.0433 -2.3174  1.8234
57558SOL     OW78636   4.174   7.287   6.201 -0.0843  0.0425 -0.4502
57558SOL    HW178637   4.158   7.331   6.284 -0.3606 -0.5735 -0.1670
57558SOL    HW278638   4.156   7.194   6.219  1.6938 -0.3911 -0.6918
57559SOL     OW78639   6.751   3.725   5.717 -0.5715  0.1164 -0.1772
57559SOL    HW178640   6.726   3.666   5.788 -1.2119  0.5600 -0.0269
57559SOL    HW278641   6.699   3.804   5.732  0.1317  0.6445 -0.4926
57560SOL     OW78642   7.327   7.167   6.760 -0.1336 -0.0424  0.7100
57560SOL    HW178643   7.388   7.104   6.719  0.1624 -0.7134  2.1251
57560SOL    HW278644   7.382   7.242   6.781 -0.5776  0.9686 -1.4148
57561SOL     OW78645   1.959   9.775   4.870 -0.0051  1.0389  0.1614
57561SOL    HW178646   1.947   9.804   4.960  0.0758  1.2323  0.1093
57561SOL    HW278647   1.925   9.846   4.816 -2.4267 -0.1029  0.0429
57562SOL     OW78648   9.687   4.519  11.832  0.6838  0.2406  0.2930
57562SOL    HW178649   9.727   4.565  11.758  0.7123  0.6604  0.5643
57562SOL    HW278650   9.628   4.583  11.871 -2.7428 -1.2574 -1.9387
57563SOL     OW78651   5.860  11.553   0.679 -0.3573 -0.7576  0.3190
57563SOL    HW178652   5.788  11.608   0.647 -0.6361 -0.8971  0.7032
57563SOL    HW278653   5.863  11.569   0.773  0.2552 -0.5940  0.2723
57564SOL     OW78654   8.739   2.262   2.943 -0.5775 -0.0680  0.5171
57564SOL    HW178655   8.825   2.291   2.911 -0.7877  0.7688  0.6928
57564SOL    HW278656   8.730   2.173   2.909  0.6917 -0.4598  1.1330
57565SOL     OW78657   3.110   4.002   3.924 -0.3523  0.3267 -0.2304
57565SOL    HW178658   3.037   3.945   3.901 -2.9188  3.6814 -1.3168
57565SOL    HW278659   3.147   4.029   3.840 -1.5919  2.8746 -0.0802
57566SOL     OW78660   4.564  10.772   4.180 -0.2360  0.5134  0.0209
57566SOL    HW178661   4.506  10.696   4.184  0.0284  0.3194  0.3067
57566SOL    HW278662   4.522  10.832   4.119 -0.1112 -0.1469 -0.7260
57567SOL     OW78663   9.805   0.649   9.022 -0.2825 -0.5718  0.4469
57567SOL    HW178664   9.827   0.660   8.930  1.0270  1.0792  0.9241
57567SOL    HW278665   9.721   0.601   9.021 -1.2256  0.9953 -1.6315
57568SOL     OW78666   2.092   1.393   1.965 -0.0766  0.2244  0.1447
57568SOL    HW178667   2.074   1.465   1.904 -0.1603  0.4709  0.4569
57568SOL    HW278668   2.186   1.380   1.960  0.1372  1.2377  1.0515
57569SOL     OW78669   0.858   9.420  10.990 -0.6081 -0.4401  0.2810
57569SOL    HW178670   0.829   9.473  11.064 -0.8116  2.3203 -1.6373
57569SOL    HW278671   0.777   9.391  10.947 -0.5179 -0.0491 -0.1650
57570SOL     OW78672   2.613   8.888   7.285  0.0919  0.2494 -0.1701
57570SOL    HW178673   2.590   8.901   7.193 -0.4296  2.2376  0.2084
57570SOL    HW278674   2.658   8.969   7.311 -0.1978 -0.0683  1.4539
57571SOL     OW78675   9.876   6.543  11.590 -0.1408  0.8817  0.5806
57571SOL    HW178676   9.895   6.603  11.662  0.1714  0.6946  0.6576
57571SOL    HW278677   9.843   6.598  11.520 -1.3364  0.9542  1.1892
57572SOL     OW78678  11.077  10.915   9.700 -0.0292 -0.4233 -0.0782
57572SOL    HW178679  11.090  10.954   9.613  1.1714  0.4658  0.4715
57572SOL    HW278680  11.032  10.832   9.682 -0.9542  0.3211 -1.4350
57573SOL     OW78681   8.068   6.965   1.689 -0.3339 -0.0753  0.2407
57573SOL    HW178682   8.137   6.998   1.632  1.2817  0.4166  2.3322
57573SOL    HW278683   8.054   6.875   1.660 -0.9388  0.7186 -2.0878
57574SOL     OW78684  10.999  10.585   8.608  0.0477  0.4380 -0.1992
57574SOL    HW178685  11.014  10.555   8.519  0.9350  1.1628 -0.2991
57574SOL    HW278686  11.015  10.508   8.663  1.1050  0.4052 -0.5433
57575SOL     OW78687   7.458   7.624   1.879 -0.6294  0.3941 -0.1534
57575SOL    HW178688   7.462   7.713   1.913 -2.4523  0.4364  0.0750
57575SOL    HW278689   7.365   7.600   1.885 -0.5031 -0.8230 -1.9738
57576SOL     OW78690   9.486  11.713  12.303 -0.2103 -0.2433  0.7067
57576SOL    HW178691   9.570  11.703  12.349 -1.1066  2.5010  3.2328
57576SOL    HW278692   9.450  11.625  12.300  1.8409 -1.1737  1.3805
57577SOL     OW78693   9.930   9.483   4.112  0.1575 -0.2299 -0.0619
57577SOL    HW178694   9.843   9.472   4.075  0.4041 -0.7726 -0.4959
57577SOL    HW278695   9.973   9.398   4.099  0.8323  0.1043 -0.0733
57578SOL     OW78696   9.434  12.453   3.328  0.5706  0.3225 -0.2130
57578SOL    HW178697   9.362  12.448   3.391  0.1865 -1.5457 -0.7445
57578SOL    HW278698   9.508  12.485   3.379 -0.1154  0.3218  0.8233
57579SOL     OW78699   1.644  10.939   0.087  0.1298  0.6374 -0.2227
57579SOL    HW178700   1.733  10.944   0.122 -0.0862  0.2730  0.4045
57579SOL    HW278701   1.635  11.015   0.030  0.8389  0.6798 -0.2776
57580SOL     OW78702   0.602   6.743   1.898 -0.5127  0.1431 -0.2486
57580SOL    HW178703   0.665   6.809   1.925  0.1486 -0.0562 -1.2576
57580SOL    HW278704   0.580   6.696   1.979 -0.9533  1.5260  0.4768
57581SOL     OW78705   1.278   8.271   0.494 -0.1550  0.1756 -0.6442
57581SOL    HW178706   1.326   8.320   0.561  0.0983 -0.5719 -0.2648
57581SOL    HW278707   1.346   8.237   0.436 -0.1259 -1.5118  0.3178
57582SOL     OW78708   9.063  11.092   6.039  0.0140  0.2182  0.0458
57582SOL    HW178709   9.134  11.106   6.102  0.9795 -2.2634 -0.3990
57582SOL    HW278710   9.102  11.110   5.954  0.2523 -1.5161 -0.2328
57583SOL     OW78711   8.979  11.386  11.073 -0.3229  0.0312 -0.1328
57583SOL    HW178712   9.000  11.472  11.109 -2.4010 -0.3022  2.1337
57583SOL    HW278713   9.061  11.337  11.079  0.4811  1.3530  0.0323
57584SOL     OW78714   2.127   3.347  12.237 -0.0724  0.0956 -0.5240
57584SOL    HW178715   2.079   3.399  12.173 -0.7319 -0.9141 -0.8561
57584SOL    HW278716   2.110   3.391  12.321  0.5322  1.2262 -0.9724
57585SOL     OW78717  12.128   9.718   7.491  0.3001  0.5890  0.4629
57585SOL    HW178718  12.216   9.752   7.503  0.9572  0.0218 -2.0390
57585SOL    HW278719  12.075   9.794   7.467  1.1050  0.4334 -2.1414
57586SOL     OW78720   0.739   3.637   3.316  0.4247 -0.3576 -0.0509
57586SOL    HW178721   0.667   3.691   3.283  0.4909 -0.2853 -0.0775
57586SOL    HW278722   0.767   3.584   3.242 -0.1584 -1.0015  0.1770
57587SOL     OW78723   5.319  12.463  12.247  0.2656  0.3399  0.6817
57587SOL    HW178724   5.253  12.493  12.184  0.2540  0.3632  0.7050
57587SOL    HW278725   5.275  12.469  12.332  0.0999 -0.2005  0.6404
57588SOL     OW78726   9.264  11.856   7.764  0.1242 -0.2513 -0.0185
57588SOL    HW178727   9.296  11.792   7.828  1.5524 -0.0876 -0.5326
57588SOL    HW278728   9.247  11.935   7.815 -1.0626 -0.8361  0.5212
57589SOL     OW78729   1.233   3.516   8.154  0.2267 -0.2221 -0.0969
57589SOL    HW178730   1.245   3.548   8.065  1.9286 -0.8032 -0.1219
57589SOL    HW278731   1.321   3.495   8.184 -0.3483 -0.4012  1.6003
57590SOL     OW78732   2.085   1.767   8.391  1.1212 -0.1422  0.4060
57590SOL    HW178733   2.180   1.755   8.388  1.2527  0.7641  0.5554
57590SOL    HW278734   2.071   1.854   8.354  0.3192 -0.3840  0.1152
57591SOL     OW78735   8.863  10.517   3.332 -0.4609  0.0622  0.3732
57591SOL    HW178736   8.768  10.531   3.327 -0.1755  2.5044  0.7920
57591SOL    HW278737   8.874  10.457   3.405 -1.6314  0.8591  1.2475
57592SOL     OW78738   2.362   7.257   1.936 -0.1987  0.3653 -0.0546
57592SOL    HW178739   2.384   7.251   2.029  1.7922 -0.5052 -0.5412
57592SOL    HW278740   2.402   7.179   1.897 -0.1131  1.2530 -1.8066
57593SOL     OW78741  10.008   8.851   5.736 -0.4229  0.4046  0.1699
57593SOL    HW178742  10.099   8.866   5.761 -0.0761 -0.6381 -0.3735
57593SOL    HW278743  10.010   8.766   5.692 -1.8715 -0.2177  1.2371
57594SOL     OW78744   0.402   5.393   1.152 -0.2017 -0.0623 -0.3464
57594SOL    HW178745   0.346   5.437   1.216 -0.0760 -0.0262 -0.2598
57594SOL    HW278746   0.371   5.302   1.151 -0.3639 -0.0054 -0.4150
57595SOL     OW78747   8.271   8.399   1.808 -0.2854  0.3383 -0.8107
57595SOL    HW178748   8.287   8.492   1.795 -1.4225  0.6855  0.1417
57595SOL    HW278749   8.191   8.381   1.758 -0.7153  0.1407 -0.0589
57596SOL     OW78750   7.317   7.386   1.435  0.9236  0.0851 -0.4363
57596SOL    HW178751   7.369   7.385   1.516 -0.6018 -1.5936  0.5830
57596SOL    HW278752   7.248   7.322   1.450  2.6492 -3.1231 -4.4631
57597SOL     OW78753   8.595   8.148   8.590 -0.0091  0.0590  1.0434
57597SOL    HW178754   8.631   8.168   8.677  0.2054 -1.2220  1.2662
57597SOL    HW278755   8.671   8.121   8.539 -0.4238 -1.3252  1.1119
57598SOL     OW78756   3.521  12.179   9.517 -0.3920  0.2559  0.0607
57598SOL    HW178757   3.448  12.200   9.458  0.7201  1.1053 -1.0673
57598SOL    HW278758   3.484  12.188   9.605 -1.3408  1.9339 -0.4584
57599SOL     OW78759  11.023  11.549   1.221 -0.2218 -0.5904  0.0502
57599SOL    HW178760  11.051  11.593   1.141  0.5938  0.7150  1.0122
57599SOL    HW278761  10.957  11.486   1.192 -0.8367  0.7046 -1.4819
57600SOL     OW78762   9.191   0.138   6.940  0.2707  0.6519  0.2253
57600SOL    HW178763   9.200   0.154   7.034  1.2946  1.3284  0.0362
57600SOL    HW278764   9.277   0.105   6.914  0.4102  1.6718 -0.6836
57601SOL     OW78765  11.584   4.767   5.851  0.0070 -0.3154 -0.0936
57601SOL    HW178766  11.565   4.848   5.899 -0.8015 -0.5208 -0.0565
57601SOL    HW278767  11.531   4.701   5.894 -0.0535 -0.6814 -0.7218
57602SOL     OW78768   3.087   9.897   3.883 -0.3852 -0.4188 -0.7959
57602SOL    HW178769   3.033   9.933   3.813 -0.7938  1.4728  0.4217
57602SOL    HW278770   3.147   9.969   3.906 -0.4215 -0.9140  0.9359
57603SOL     OW78771   5.268   2.335   2.699 -0.4318 -0.2338  0.0661
57603SOL    HW178772   5.191   2.377   2.737 -0.1048  0.4217  0.0259
57603SOL    HW278773   5.313   2.294   2.773 -0.5738 -0.2211  0.1583
57604SOL     OW78774   0.266   4.631  10.532  0.0546  0.9113 -0.1959
57604SOL    HW178775   0.343   4.625  10.474  1.7294  2.6864  1.6706
57604SOL    HW278776   0.204   4.685  10.483 -0.3096 -0.9677 -1.9510
57605SOL     OW78777  12.392  11.288   1.898 -0.0703  0.0771 -0.1679
57605SOL    HW178778  12.392  11.345   1.975 -0.7872  0.3100 -0.3375
57605SOL    HW278779  12.378  11.200   1.933  1.2596 -0.0461  0.1168
57606SOL     OW78780  11.668   4.322   6.259  0.1176  0.6078 -0.3752
57606SOL    HW178781  11.746   4.365   6.294  1.0850  0.8056 -2.5614
57606SOL    HW278782  11.674   4.336   6.164 -1.0277 -1.8979 -0.9080
57607SOL     OW78783   7.826   5.225   7.776 -0.0991 -0.0775  0.1898
57607SOL    HW178784   7.768   5.152   7.796 -1.3227  0.6277 -0.7094
57607SOL    HW278785   7.838   5.269   7.860 -0.9603 -0.1656  0.3658
57608SOL     OW78786   4.426  12.089  11.882  0.4374 -1.0032 -0.0157
57608SOL    HW178787   4.399  12.131  11.800 -0.2405 -2.1823 -0.4277
57608SOL    HW278788   4.487  12.151  11.922  2.2529 -1.1811 -2.3102
57609SOL     OW78789   7.736  10.746   0.113 -0.0785 -0.3875 -0.5116
57609SOL    HW178790   7.715  10.839   0.122  0.3625 -0.2290 -1.0550
57609SOL    HW278791   7.653  10.705   0.087 -0.5272 -0.3209  0.7558
57610SOL     OW78792   6.426   4.536  11.435  0.1082  0.2810  0.4472
57610SOL    HW178793   6.396   4.454  11.396 -2.5396  1.0769  0.5919
57610SOL    HW278794   6.425   4.599  11.362  2.4663  0.2044  0.2529
57611SOL     OW78795   8.863   3.211   8.730 -0.4659 -0.5560  0.3433
57611SOL    HW178796   8.917   3.182   8.803 -0.6364 -0.3493  0.5520
57611SOL    HW278797   8.817   3.289   8.763 -1.4933 -1.1794  0.4427
57612SOL     OW78798   1.100   7.808   4.756  0.6540  0.1277  0.4265
57612SOL    HW178799   1.055   7.888   4.783 -1.1903 -0.8821  0.4761
57612SOL    HW278800   1.163   7.837   4.690 -0.4369  1.5317 -0.0410
57613SOL     OW78801   6.622   0.997  11.643 -0.1578 -0.3655  0.0033
57613SOL    HW178802   6.710   1.003  11.606  0.2252  2.8063  1.0888
57613SOL    HW278803   6.620   0.912  11.686  1.3039 -1.7481 -2.4418
57614SOL     OW78804   7.730   7.794   8.698 -0.0731 -0.0357  0.1488
57614SOL    HW178805   7.716   7.845   8.618 -0.5078  0.0412  0.2700
57614SOL    HW278806   7.782   7.851   8.754  0.5324 -0.2244 -0.2124
57615SOL     OW78807   3.010   3.478   5.099  0.1000 -0.7141 -0.4986
57615SOL    HW178808   3.074   3.547   5.118 -0.2753 -0.6343  0.5700
57615SOL    HW278809   2.975   3.501   5.013 -0.2575  0.6367 -0.0191
57616SOL     OW78810   1.595  11.992   9.764  0.3621 -0.0478 -0.1790
57616SOL    HW178811   1.677  11.967   9.806  0.6024 -0.7015 -1.0027
57616SOL    HW278812   1.531  11.995   9.836  1.0912  0.4283  0.4607
57617SOL     OW78813   6.241   3.728   3.412 -0.2004  0.3410 -0.3561
57617SOL    HW178814   6.199   3.799   3.364 -1.6013 -0.4287 -0.2945
57617SOL    HW278815   6.284   3.675   3.345  2.2976  2.1139 -0.2750
57618SOL     OW78816   9.802   0.218   6.997 -0.0263 -0.1059  0.3916
57618SOL    HW178817   9.719   0.176   7.021 -0.4783  0.6967  0.2753
57618SOL    HW278818   9.869   0.159   7.030 -0.6219 -1.5529 -0.8903
57619SOL     OW78819   0.833   5.351   0.751 -0.6324 -0.1562 -0.0860
57619SOL    HW178820   0.802   5.350   0.842  1.9863 -1.8111  0.8779
57619SOL    HW278821   0.796   5.271   0.713  0.1640 -0.7041  0.2606
57620SOL     OW78822  11.506   1.752  11.388  0.5835  0.6503 -0.3632
57620SOL    HW178823  11.587   1.751  11.337  2.2083  1.2011  1.9873
57620SOL    HW278824  11.521   1.686  11.456 -1.0400  0.6496  0.0240
57621SOL     OW78825   9.920   1.099   3.078 -0.2598  0.2492 -0.2376
57621SOL    HW178826  10.009   1.090   3.113 -0.6945 -0.0063  0.8600
57621SOL    HW278827   9.925   1.065   2.989  0.8620  0.7469 -0.3829
57622SOL     OW78828   6.722   1.371   9.573  0.0649  0.1857  0.1384
57622SOL    HW178829   6.798   1.314   9.586 -1.3521 -2.3105 -1.6170
57622SOL    HW278830   6.750   1.433   9.506  0.7538 -0.3466 -0.0792
57623SOL     OW78831  11.807   2.478   8.338  0.2855 -0.6705 -1.0660
57623SOL    HW178832  11.872   2.412   8.363 -0.8279 -2.3242 -2.3293
57623SOL    HW278833  11.846   2.523   8.263  0.2629 -1.1801 -1.3820
57624SOL     OW78834   2.422   8.491   4.973  0.5681  0.5360  0.2979
57624SOL    HW178835   2.405   8.522   5.062 -0.0192  1.4754 -0.1206
57624SOL    HW278836   2.351   8.529   4.921  0.6046 -0.4407 -0.4834
57625SOL     OW78837   5.988   2.797   3.554 -0.0717 -0.2547  0.0726
57625SOL    HW178838   6.048   2.750   3.496  0.1053  1.0823 -0.8556
57625SOL    HW278839   5.983   2.741   3.632  0.3610 -1.6565 -0.8578
57626SOL     OW78840  10.005   4.908  10.086 -0.1548  0.9966  0.2685
57626SOL    HW178841   9.935   4.842  10.086  0.1607  0.6497  0.8132
57626SOL    HW278842  10.056   4.889  10.007  0.7927 -0.3806  1.1489
57627SOL     OW78843  11.770   3.065  10.947  0.1894 -0.0683 -0.2890
57627SOL    HW178844  11.717   2.986  10.945 -0.8100  0.5784 -2.3502
57627SOL    HW278845  11.736   3.115  11.021  0.5335 -1.3385  0.7584
57628SOL     OW78846   4.754   3.166   1.451  0.3483  0.2951 -0.4792
57628SOL    HW178847   4.726   3.221   1.377 -2.6588 -2.0622 -1.3296
57628SOL    HW278848   4.718   3.209   1.528 -2.7733 -0.6566 -1.2184
57629SOL     OW78849  11.209   2.705  11.945  0.0687 -0.0158  0.6301
57629SOL    HW178850  11.195   2.741  12.033 -0.4560 -0.8372  0.8915
57629SOL    HW278851  11.231   2.613  11.959 -0.1738 -0.1950 -0.1034
57630SOL     OW78852   9.844   9.107   9.289  0.0960 -0.5627  0.5079
57630SOL    HW178853   9.937   9.093   9.306  0.1388 -0.2771  0.5163
57630SOL    HW278854   9.843   9.165   9.212 -0.0881 -2.5748 -1.0977
57631SOL     OW78855   9.825   3.392   3.596  0.4009 -0.1222 -0.1118
57631SOL    HW178856   9.834   3.337   3.518  0.0691 -0.0577 -0.1977
57631SOL    HW278857   9.898   3.453   3.592  0.3672 -0.1013 -0.3895
57632SOL     OW78858   6.832   6.327   1.886 -0.3891  0.5253 -0.4377
57632SOL    HW178859   6.795   6.249   1.843 -1.6293  1.8052 -1.7969
57632SOL    HW278860   6.865   6.380   1.814  0.9540  1.0259  0.5192
57633SOL     OW78861   8.960   5.851   7.820  0.2341 -0.2449 -0.0830
57633SOL    HW178862   8.901   5.898   7.762  0.2547  0.8248  0.7234
57633SOL    HW278863   9.021   5.918   7.851  0.5805 -0.9083  0.7102
57634SOL     OW78864   4.035   6.428   9.472  0.0629  0.5156  0.1770
57634SOL    HW178865   4.081   6.443   9.554 -0.2724 -2.4456  1.0218
57634SOL    HW278866   3.942   6.440   9.494  0.0436  0.7567 -0.0339
57635SOL     OW78867   9.898   2.512   7.796  0.0566  0.2035 -0.1590
57635SOL    HW178868   9.918   2.553   7.712  1.6878 -0.8377 -0.3244
57635SOL    HW278869   9.978   2.464   7.819  0.2251  1.6106  2.6989
57636SOL     OW78870   8.070  12.336   4.528 -0.4040  0.3274 -0.3608
57636SOL    HW178871   8.020  12.307   4.453 -0.4043 -3.5082  0.9353
57636SOL    HW278872   8.140  12.389   4.491 -0.8321 -0.7925 -2.9767
57637SOL     OW78873   3.579   9.520   9.390  0.3019  0.2285  0.2685
57637SOL    HW178874   3.515   9.450   9.378  0.7741 -0.3274  0.9409
57637SOL    HW278875   3.603   9.515   9.482  0.3389  1.2831  0.3217
57638SOL     OW78876  11.646  10.329   4.027  0.3460  0.2542 -0.0584
57638SOL    HW178877  11.686  10.416   4.039  1.8045 -0.3510 -0.3085
57638SOL    HW278878  11.687  10.274   4.094 -1.5672  0.0298  1.0062
57639SOL     OW78879  11.944   8.936   5.582 -0.6224  0.4726 -0.1554
57639SOL    HW178880  12.004   8.935   5.507  0.2314 -2.9713  0.4155
57639SOL    HW278881  11.977   9.007   5.638  1.2262  0.4570 -1.1450
57640SOL     OW78882  10.662   7.915  10.795  0.2384 -0.2238  0.1442
57640SOL    HW178883  10.751   7.881  10.784  0.9165  1.5932 -0.5012
57640SOL    HW278884  10.673   7.991  10.852 -0.6042  1.0837 -1.3617
57641SOL     OW78885   4.153   9.671   2.118  0.2766  0.0517 -0.1955
57641SOL    HW178886   4.217   9.633   2.058  1.9718 -0.0667  1.5899
57641SOL    HW278887   4.154   9.764   2.098 -0.1878 -0.1507 -1.2295
57642SOL     OW78888   8.168   8.686   4.492  0.4494 -0.4679 -0.3481
57642SOL    HW178889   8.083   8.691   4.449  0.1398  0.2984  0.3328
57642SOL    HW278890   8.151   8.645   4.577  0.5181  0.8571  0.3351
57643SOL     OW78891   7.764  11.813   3.011 -0.1701 -0.5611  0.7942
57643SOL    HW178892   7.825  11.826   2.938 -0.6870  1.0807  0.6068
57643SOL    HW278893   7.677  11.816   2.969 -0.5893  2.3785  1.5980
57644SOL     OW78894   7.722   3.534   0.493 -0.0484  0.2922  0.0536
57644SOL    HW178895   7.627   3.539   0.479  0.2036  0.6801 -1.6592
57644SOL    HW278896   7.733   3.557   0.586 -1.5618  1.0068  0.0956
57645SOL     OW78897   7.371   5.812   2.903 -0.0697  0.4476 -0.0993
57645SOL    HW178898   7.370   5.797   2.998 -1.3773  2.0398  0.1873
57645SOL    HW278899   7.437   5.881   2.891 -2.2371  2.7174  0.1693
57646SOL     OW78900   2.225   5.892   4.804  0.5646 -0.6632 -0.3265
57646SOL    HW178901   2.162   5.963   4.812  1.3036 -0.1811  2.3232
57646SOL    HW278902   2.183   5.817   4.847  1.2162 -0.7240  0.2317
57647SOL     OW78903   0.308   0.002   8.820  0.3419  0.2232 -0.0081
57647SOL    HW178904   0.364   0.046   8.756 -0.1235 -0.5346 -0.9631
57647SOL    HW278905   0.366  -0.014   8.894  0.8090  1.4128 -0.0908
57648SOL     OW78906  11.373   8.062   6.279 -0.2074 -0.1140 -0.2214
57648SOL    HW178907  11.437   8.119   6.238 -0.0633 -0.4356 -0.4457
57648SOL    HW278908  11.424   8.007   6.338 -0.6131  1.6151  1.8724
57649SOL     OW78909   1.867   6.323   9.454 -0.4361 -0.4899  0.1611
57649SOL    HW178910   1.921   6.257   9.497  0.4253 -0.3743 -0.7064
57649SOL    HW278911   1.796   6.274   9.414 -0.9411 -0.6562  1.2395
57650SOL     OW78912   1.876   7.216   9.928  0.2550 -0.1917 -0.4645
57650SOL    HW178913   1.903   7.274   9.856  0.1090  0.2694 -0.1494
57650SOL    HW278914   1.785   7.195   9.908 -0.4718  1.6292  0.6690
57651SOL     OW78915   6.053   6.309  11.424 -0.6131 -0.0963 -0.0455
57651SOL    HW178916   5.996   6.232  11.420 -1.5751  0.5693  0.3601
57651SOL    HW278917   6.011   6.373  11.366  0.4531 -0.0415 -0.7853
57652SOL     OW78918   9.134   3.031   5.398 -0.6702 -0.5673 -0.3008
57652SOL    HW178919   9.219   3.019   5.355  0.2512 -0.1213  1.2947
57652SOL    HW278920   9.145   3.111   5.450 -2.6046  0.3636 -1.2290
57653SOL     OW78921  10.640   9.235  10.726  0.7377  0.1783 -0.1531
57653SOL    HW178922  10.578   9.288  10.777  2.5894  1.9546  0.4028
57653SOL    HW278923  10.603   9.233  10.638 -0.4332  0.6365  0.3046
57654SOL     OW78924   4.744   3.451   2.980 -0.6830  0.0082  0.9556
57654SOL    HW178925   4.784   3.498   3.053 -1.2044 -0.7702  1.7687
57654SOL    HW278926   4.669   3.506   2.955  0.8513  1.5238 -0.6444
57655SOL     OW78927   9.130   8.910   3.084 -0.4656 -0.3598  0.0585
57655SOL    HW178928   9.191   8.940   3.016 -1.2592 -1.3888 -1.1438
57655SOL    HW278929   9.163   8.824   3.110  0.5262  0.5117  1.9035
57656SOL     OW78930   7.530  11.878   9.791 -0.6751  0.1466 -0.2168
57656SOL    HW178931   7.593  11.944   9.761  0.4849 -1.6506 -1.9807
57656SOL    HW278932   7.455  11.887   9.733 -0.6332  0.0962 -0.2789
57657SOL     OW78933   2.991   2.475  12.002  0.2509 -0.3161  0.3444
57657SOL    HW178934   2.906   2.443  12.032 -0.2542 -0.4921 -1.2234
57657SOL    HW278935   2.978   2.569  11.991 -0.0633 -0.4945 -0.8964
57658SOL     OW78936  10.216   6.371   6.485 -0.0671 -0.2619  0.1550
57658SOL    HW178937  10.290   6.311   6.491  0.3447  0.1228 -0.8704
57658SOL    HW278938  10.217   6.418   6.569  0.0678 -1.1365  0.6543
57659SOL     OW78939   7.277  12.281  10.968  1.0796  0.0289 -0.5956
57659SOL    HW178940   7.266  12.282  10.873  2.7615  1.0697 -0.8178
57659SOL    HW278941   7.219  12.350  11.000  0.4024 -0.4181 -0.8252
57660SOL     OW78942   5.205  10.483   0.334  0.1624  0.8589  0.3006
57660SOL    HW178943   5.134  10.463   0.273 -0.9887  3.8751  0.5019
57660SOL    HW278944   5.283  10.491   0.279  0.5318 -2.6368  0.0948
57661SOL     OW78945  11.741  12.372  10.920 -0.3394 -0.4319 -0.7358
57661SOL    HW178946  11.740  12.391  11.014 -1.7982  0.8541 -0.9612
57661SOL    HW278947  11.763  12.456  10.879 -3.2972  0.0084 -1.6437
57662SOL     OW78948   4.264  11.351  12.344  0.2474  0.0302 -0.4923
57662SOL    HW178949   4.342  11.297  12.360 -0.1883 -0.5845 -0.3977
57662SOL    HW278950   4.283  11.434  12.387  0.0721 -0.7685  1.2274
57663SOL     OW78951   4.529   5.082   3.463 -0.2406 -0.4028  0.8550
57663SOL    HW178952   4.582   5.110   3.537  0.8143 -2.1588  0.7943
57663SOL    HW278953   4.569   5.001   3.432 -2.2877 -1.2090  0.0936
57664SOL     OW78954   2.708   4.581   3.069 -0.0445  0.1841 -0.1477
57664SOL    HW178955   2.640   4.603   3.005 -0.1502  2.1503  0.5543
57664SOL    HW278956   2.706   4.653   3.132  1.1498 -0.8755  1.1809
57665SOL     OW78957   9.646  10.494   6.845  0.3912 -0.4946 -0.2339
57665SOL    HW178958   9.558  10.478   6.811  1.0785 -1.2016 -1.8100
57665SOL    HW278959   9.636  10.566   6.907 -1.3797 -0.9710  0.0694
57666SOL     OW78960   0.211  12.031   0.367  0.3722 -0.0366 -0.1528
57666SOL    HW178961   0.122  12.061   0.349  0.6802  0.6939 -0.5080
57666SOL    HW278962   0.202  11.937   0.382 -0.6162  0.2216  0.9665
57667SOL     OW78963   3.555   8.675   1.937  0.1631  0.3710 -0.3577
57667SOL    HW178964   3.486   8.625   1.981  0.7035  0.1825  0.2918
57667SOL    HW278965   3.530   8.767   1.949  0.5055  0.3322  0.6857
57668SOL     OW78966   1.752   2.850   1.698  0.6417  0.5546  0.6257
57668SOL    HW178967   1.840   2.811   1.697 -0.2692 -1.6897  1.2954
57668SOL    HW278968   1.718   2.837   1.610  1.7037  3.4125 -0.3112
57669SOL     OW78969   4.663   4.190   0.706 -0.4790  0.3769 -0.2166
57669SOL    HW178970   4.722   4.148   0.644 -1.3052 -2.9738  1.0621
57669SOL    HW278971   4.580   4.145   0.694 -1.7369  2.3576  0.6590
57670SOL     OW78972   5.275   8.074  10.281  0.4489 -0.7834  0.0013
57670SOL    HW178973   5.290   8.168  10.276 -0.6408 -0.6766 -2.6440
57670SOL    HW278974   5.188   8.065  10.320  1.1099 -0.8045  1.5466
57671SOL     OW78975   0.711   7.082  10.297 -0.4328  0.3562 -0.2088
57671SOL    HW178976   0.681   7.151  10.238 -0.6424  0.5923  0.1674
57671SOL    HW278977   0.760   7.128  10.365 -0.6108  0.1429  0.0696
57672SOL     OW78978  11.801   7.159   8.372 -0.0012  0.6672 -0.3478
57672SOL    HW178979  11.835   7.248   8.358  0.3463  0.6139  0.1418
57672SOL    HW278980  11.857   7.104   8.317  0.4023  0.6415  0.0776
57673SOL     OW78981  12.205   4.848   3.804  0.6825  0.4719  0.4138
57673SOL    HW178982  12.146   4.788   3.849  1.3256 -0.8836 -0.4764
57673SOL    HW278983  12.283   4.851   3.860  2.3983 -2.9425 -1.4570
57674SOL     OW78984   0.876   7.743   2.589  0.2920  0.1507  0.0026
57674SOL    HW178985   0.863   7.654   2.622 -0.2619 -0.1681 -1.0382
57674SOL    HW278986   0.943   7.734   2.521  0.7516  0.6517  0.3770
57675SOL     OW78987   1.441   5.885  10.228 -0.4641 -0.2018  0.1010
57675SOL    HW178988   1.498   5.937  10.285 -1.7457  1.1227  0.2165
57675SOL    HW278989   1.479   5.797  10.230  2.0135  0.7790 -0.4194
57676SOL     OW78990   3.488   3.719   1.049  0.2441 -0.3232 -0.0070
57676SOL    HW178991   3.505   3.625   1.059 -1.6900 -0.4576  3.6267
57676SOL    HW278992   3.401   3.723   1.010  0.5874  0.0468 -0.7706
57677SOL     OW78993   3.083   0.522   7.767  0.1143 -0.3743  0.0874
57677SOL    HW178994   2.997   0.539   7.805  0.7589  0.8841  1.0849
57677SOL    HW278995   3.065   0.470   7.689 -1.3116 -2.5888  1.7773
57678SOL     OW78996   4.910   5.535   5.386  0.2851  0.4383  0.0225
57678SOL    HW178997   4.992   5.518   5.433  1.8859 -0.3872 -2.8480
57678SOL    HW278998   4.870   5.448   5.375  0.1094  0.5758 -0.4470
57679SOL     OW78999   0.587   8.231  12.008  0.3816 -0.4053  0.1093
57679SOL    HW179000   0.563   8.197  12.095  0.0026 -0.4293 -0.0044
57679SOL    HW279001   0.504   8.248  11.965  0.5316  1.6475  0.5328
57680SOL     OW79002  11.610   3.761   8.718 -0.0938  0.5157  0.0565
57680SOL    HW179003  11.553   3.694   8.756  0.2258  0.1358 -0.1265
57680SOL    HW279004  11.675   3.779   8.786 -0.1774  0.6359  0.1039
57681SOL     OW79005   4.528   0.925   6.564 -0.1834 -0.0959  0.2119
57681SOL    HW179006   4.556   0.839   6.533  2.0030 -0.3967  2.6151
57681SOL    HW279007   4.590   0.986   6.523 -1.3020  0.2904 -0.9514
57682SOL     OW79008   2.498   4.962   9.450  0.3067  0.2689  0.0670
57682SOL    HW179009   2.536   4.895   9.507  0.1668  1.5523  1.7655
57682SOL    HW279010   2.404   4.959   9.469  0.3667  1.3004  0.5914
57683SOL     OW79011   6.938  10.362  10.807  0.5628  0.0219  0.1228
57683SOL    HW179012   6.938  10.457  10.793  2.8016  0.0689  0.1084
57683SOL    HW279013   6.847  10.341  10.829  0.1081  2.2349  0.5920
57684SOL     OW79014   0.991   0.741   6.950 -0.2956  0.2321  0.1501
57684SOL    HW179015   1.019   0.660   6.908 -0.7939 -0.5945  1.3587
57684SOL    HW279016   1.071   0.777   6.988 -0.4910 -1.1250  1.9395
57685SOL     OW79017   3.607   2.467   2.880  0.3650 -0.0349  0.5617
57685SOL    HW179018   3.601   2.448   2.786 -0.5463 -0.0990  0.6224
57685SOL    HW279019   3.632   2.383   2.920 -1.1186 -0.5121  0.5584
57686SOL     OW79020   3.095   8.087   2.556  0.0554 -0.7864 -0.9744
57686SOL    HW179021   3.023   8.025   2.546 -2.1228  1.5590 -0.7745
57686SOL    HW279022   3.134   8.092   2.468 -1.5825 -0.3268 -1.7104
57687SOL     OW79023  11.444   6.908  11.894  0.1616 -0.6153  0.0190
57687SOL    HW179024  11.513   6.843  11.884 -0.1514 -0.9213 -0.2006
57687SOL    HW279025  11.488   6.992  11.889  0.8065 -0.7850  1.9041
57688SOL     OW79026   7.722   5.654   4.104 -0.3206 -0.3388 -0.5109
57688SOL    HW179027   7.737   5.746   4.083  0.8656 -0.6303 -0.9957
57688SOL    HW279028   7.731   5.649   4.200 -1.6956  0.2619 -0.3257
57689SOL     OW79029   1.886   0.775   1.547 -0.0881  0.2432  0.0281
57689SOL    HW179030   1.809   0.799   1.599  0.0334  0.0185  0.3116
57689SOL    HW279031   1.925   0.859   1.523  0.2938  0.3417  0.9575
57690SOL     OW79032   6.412   7.284   6.292 -0.2015  0.2871  0.2680
57690SOL    HW179033   6.412   7.202   6.343  0.3908  0.6089  0.8071
57690SOL    HW279034   6.320   7.300   6.272 -0.3673 -0.2778  0.5458
57691SOL     OW79035   3.295   3.634   4.729  0.6174 -0.0769  0.2355
57691SOL    HW179036   3.336   3.606   4.647 -0.8261  3.4589 -1.9449
57691SOL    HW279037   3.201   3.620   4.715  0.4428 -1.3805  2.2468
57692SOL     OW79038   9.709   0.010  10.254  0.5986  0.2796  0.0846
57692SOL    HW179039   9.785  -0.007  10.309  1.0994 -0.2181 -0.7507
57692SOL    HW279040   9.675   0.094  10.287  2.3358  1.2475 -0.4388
57693SOL     OW79041   8.698   2.229  11.353 -0.7092 -0.4907 -0.6497
57693SOL    HW179042   8.766   2.217  11.419 -0.4444 -0.5780 -0.9377
57693SOL    HW279043   8.618   2.241  11.403  0.0124  3.3518 -0.1508
57694SOL     OW79044   1.957   4.104   6.554  0.5482  0.0387  0.1663
57694SOL    HW179045   2.033   4.046   6.558  1.7804  1.6442  0.4935
57694SOL    HW279046   1.960   4.154   6.635 -0.0095  1.1651 -0.4882
57695SOL     OW79047  11.077  10.510   2.687 -0.3023 -0.2162 -0.0352
57695SOL    HW179048  11.003  10.469   2.642  1.6108 -3.3925 -0.6304
57695SOL    HW279049  11.053  10.508   2.780 -1.5198  0.1746 -0.3250
57696SOL     OW79050   5.076   4.586  10.975 -0.2870  0.1258 -0.0966
57696SOL    HW179051   4.998   4.639  10.991  0.9046  1.4214  1.9509
57696SOL    HW279052   5.124   4.633  10.907  0.1980  1.1169  0.8901
57697SOL     OW79053   5.678   9.728   6.026 -0.0312 -0.1955 -0.3508
57697SOL    HW179054   5.668   9.650   5.972  0.3446  0.5794 -1.5813
57697SOL    HW279055   5.771   9.729   6.049  1.0314  2.0027 -3.8407
57698SOL     OW79056  11.012   2.358  10.629  0.0902 -0.5172  0.0697
57698SOL    HW179057  11.023   2.450  10.654  2.3375  0.2841 -3.2212
57698SOL    HW279058  11.082   2.312  10.675 -0.3706 -0.4456  0.8719
57699SOL     OW79059   7.642   5.307   6.444  0.5105  0.3714  0.2101
57699SOL    HW179060   7.619   5.234   6.501 -0.3344  0.5316  0.0901
57699SOL    HW279061   7.571   5.370   6.455 -0.4310 -0.1862 -2.0184
57700SOL     OW79062   3.993   6.563  11.848  0.0155  0.1030 -0.7034
57700SOL    HW179063   4.022   6.645  11.808  2.2612 -0.8422 -1.2055
57700SOL    HW279064   4.026   6.495  11.789  1.0546 -1.2508  1.3211
57701SOL     OW79065   2.441   2.852   4.945  0.3567 -0.4232  0.0871
57701SOL    HW179066   2.428   2.925   4.885  0.9587 -0.0920  0.3391
57701SOL    HW279067   2.531   2.822   4.928  0.5343 -0.3291  0.7984
57702SOL     OW79068   4.636   7.397   3.522 -0.2130  0.1083 -0.4388
57702SOL    HW179069   4.545   7.368   3.524 -0.0658 -0.3134  0.3134
57702SOL    HW279070   4.648   7.447   3.603  0.1013  0.5579 -0.7535
57703SOL     OW79071   7.625   2.605   6.076  0.0702  0.1612  0.2004
57703SOL    HW179072   7.609   2.602   6.170 -1.3358 -2.1243 -0.0299
57703SOL    HW279073   7.717   2.629   6.068  0.1143  0.7745  2.1399
57704SOL     OW79074  11.678  10.904   7.505  0.5579 -0.5405  0.0194
57704SOL    HW179075  11.607  10.846   7.532  1.3427 -0.8309  1.6399
57704SOL    HW279076  11.689  10.889   7.411  0.2835 -2.5074  0.2807
57705SOL     OW79077   1.269   6.699   6.633  0.0173 -0.1323  0.2941
57705SOL    HW179078   1.333   6.649   6.582 -1.2983 -0.8500 -0.7011
57705SOL    HW279079   1.263   6.652   6.716  0.8862  0.0486  0.4755
57706SOL     OW79080   8.048  12.480   8.394 -0.5897 -0.6387 -0.1256
57706SOL    HW179081   8.096  12.532   8.459 -1.4322  0.0708 -0.0487
57706SOL    HW279082   8.095  12.494   8.312  0.6527 -1.7691  0.3542
57707SOL     OW79083   2.212   8.794   8.940 -0.1622 -0.1282  0.2891
57707SOL    HW179084   2.276   8.845   8.990  1.0095 -0.5351 -0.7423
57707SOL    HW279085   2.255   8.710   8.923 -0.1959  0.2393 -1.9749
57708SOL     OW79086   7.938   3.829   6.591  0.1187 -0.3355 -0.3092
57708SOL    HW179087   7.860   3.812   6.538  0.2913 -2.0337 -0.0722
57708SOL    HW279088   7.948   3.751   6.645  0.7413  0.7910  1.2591
57709SOL     OW79089   7.579   5.911   6.075 -0.7642 -0.4800  0.1216
57709SOL    HW179090   7.604   6.003   6.085  0.8440 -0.9651  0.9288
57709SOL    HW279091   7.633   5.879   6.003 -1.2645 -0.8102 -0.1087
57710SOL     OW79092   7.125   4.038   3.017  0.0318 -0.0284  0.2323
57710SOL    HW179093   7.152   3.955   2.977  2.0409 -0.3486  2.0492
57710SOL    HW279094   7.031   4.028   3.031  0.1215 -1.7571 -0.1168
57711SOL     OW79095   9.925   1.105   4.636  0.1050  0.2167 -0.4771
57711SOL    HW179096   9.874   1.106   4.555 -1.0714  0.4056  0.2514
57711SOL    HW279097   9.968   1.019   4.636 -1.3002 -0.5127 -0.4480
57712SOL     OW79098   4.059   5.828   7.491 -0.4858  0.3092 -0.1278
57712SOL    HW179099   4.081   5.776   7.413 -0.2363 -0.8073  0.6571
57712SOL    HW279100   3.964   5.825   7.496 -0.4294 -1.8005  0.9859
57713SOL     OW79101   8.909   6.220   7.566  0.3390 -0.2664  0.5594
57713SOL    HW179102   8.993   6.252   7.533  0.9643 -0.9317  1.4469
57713SOL    HW279103   8.896   6.135   7.524 -0.8567  0.6579 -1.0603
57714SOL     OW79104  10.482  11.377   2.103  0.0730  0.0803 -0.1454
57714SOL    HW179105  10.398  11.349   2.067  0.8371 -0.9968 -1.1737
57714SOL    HW279106  10.544  11.365   2.031  2.1188 -4.2662  1.9388
57715SOL     OW79107   4.274   2.406   1.356 -0.7318  0.1628 -0.1211
57715SOL    HW179108   4.340   2.418   1.287  0.9031  0.3551  1.4282
57715SOL    HW279109   4.192   2.392   1.307  0.4000  0.0052 -2.1009
57716SOL     OW79110   0.213   4.669   5.093  0.0760 -0.0016 -0.1145
57716SOL    HW179111   0.299   4.695   5.060  0.1046  0.9263  0.6409
57716SOL    HW279112   0.230   4.589   5.144  0.1656 -0.9329 -1.5468
57717SOL     OW79113   1.390   7.238   2.360 -0.5017 -0.5879 -0.0250
57717SOL    HW179114   1.463   7.228   2.421 -0.2502 -0.7575 -0.3462
57717SOL    HW279115   1.426   7.290   2.288 -1.2410  0.9469  0.6851
57718SOL     OW79116   2.715  11.398   9.417 -0.2539 -0.4192  0.7674
57718SOL    HW179117   2.698  11.333   9.349 -0.0610  0.4489 -0.1260
57718SOL    HW279118   2.767  11.466   9.374  0.6119 -0.2614  2.0025
57719SOL     OW79119  10.286   3.881  12.436 -0.6502  0.0256  0.2852
57719SOL    HW179120  10.233   3.953  12.469 -0.2345  0.4461  0.0599
57719SOL    HW279121  10.236   3.846  12.362 -2.2496 -1.8165  2.1324
57720SOL     OW79122   7.633   7.051   6.769  0.6612 -0.7089  0.1031
57720SOL    HW179123   7.680   7.123   6.726 -0.4753  0.1279  0.2265
57720SOL    HW279124   7.645   7.067   6.862 -3.9268  2.5542  0.4816
57721SOL     OW79125   8.373   3.576   9.679  0.3349  0.3527  0.6958
57721SOL    HW179126   8.296   3.596   9.626  1.3459  1.6371 -0.4036
57721SOL    HW279127   8.431   3.527   9.620 -0.2175 -1.9834  1.9835
57722SOL     OW79128   8.977   6.867   5.943  0.1825  0.3062  0.4018
57722SOL    HW179129   8.884   6.854   5.924  0.3497 -0.5072  0.0882
57722SOL    HW279130   8.979   6.920   6.023 -0.5440  2.1288 -0.7287
57723SOL     OW79131   7.028   0.295   3.509 -0.6686  0.0175 -0.2852
57723SOL    HW179132   7.051   0.259   3.424 -0.6106  0.7364 -0.5816
57723SOL    HW279133   7.052   0.227   3.571  0.3511 -0.0655 -0.7484
57724SOL     OW79134  10.112   1.115   6.611 -0.3803  0.0519  0.3969
57724SOL    HW179135  10.062   1.161   6.678 -0.4393 -0.4463  0.7017
57724SOL    HW279136  10.175   1.179   6.579  0.3299  0.0152  1.6404
57725SOL     OW79137  10.246   9.059   0.646 -0.4312  0.6062  0.1385
57725SOL    HW179138  10.230   9.109   0.566 -0.2817  2.4362  1.2039
57725SOL    HW279139  10.323   9.005   0.626 -0.8452  0.4766 -1.1710
57726SOL     OW79140   5.367   0.408   2.755 -0.3503 -0.0989 -0.9781
57726SOL    HW179141   5.315   0.466   2.701  1.2531  2.7642  0.3094
57726SOL    HW279142   5.450   0.455   2.769  0.8201 -2.4221  0.7004
57727SOL     OW79143  10.869   2.194   7.792  0.4825 -0.1061  0.0507
57727SOL    HW179144  10.931   2.209   7.863  0.8366 -1.6964  0.0970
57727SOL    HW279145  10.837   2.105   7.805 -0.9679  0.2665 -0.6417
57728SOL     OW79146   0.458   9.093   3.946  0.2015  0.2735 -0.3684
57728SOL    HW179147   0.552   9.111   3.951 -0.0307  1.1834  1.5975
57728SOL    HW279148   0.451   8.999   3.962  0.7906  0.1294 -0.9131
57729SOL     OW79149   7.438  10.501   9.422 -1.1133  0.1886 -0.3383
57729SOL    HW179150   7.441  10.577   9.363  1.6334 -0.2544 -0.8770
57729SOL    HW279151   7.506  10.517   9.487 -0.6116 -1.6922 -0.3300
57730SOL     OW79152  12.220   5.636   0.067 -0.1918  0.0820  0.0423
57730SOL    HW179153  12.242   5.594  -0.017  2.1775  1.7635 -0.3026
57730SOL    HW279154  12.303   5.674   0.096 -0.9665 -0.4084  3.1797
57731SOL     OW79155  10.727  10.444  10.245 -0.1194 -0.3939  0.2329
57731SOL    HW179156  10.751  10.351  10.235  0.7952 -0.1108 -0.3702
57731SOL    HW279157  10.736  10.480  10.157 -3.2714 -0.3252 -0.1946
57732SOL     OW79158  10.543   0.892   9.845  0.2408 -0.1119  0.8479
57732SOL    HW179159  10.550   0.842   9.764  1.3433  0.2615  0.6887
57732SOL    HW279160  10.488   0.839   9.902  0.9843 -1.2800  0.5091
57733SOL     OW79161   4.585   6.457   0.393  0.4143  0.2304  0.1592
57733SOL    HW179162   4.658   6.516   0.374  1.6280 -1.0448  0.7741
57733SOL    HW279163   4.596   6.433   0.485 -1.0949  0.4202  0.4162
57734SOL     OW79164   5.076   4.050  10.793 -0.2913 -0.3379  0.1220
57734SOL    HW179165   5.067   3.999  10.712  1.5679 -0.1509 -0.2652
57734SOL    HW279166   5.031   4.132  10.775  0.2999 -0.2069 -0.8320
57735SOL     OW79167  10.983  12.088   2.504 -0.2263  0.3290 -0.1160
57735SOL    HW179168  10.899  12.134   2.512 -0.5211  0.0679 -1.4588
57735SOL    HW279169  10.965  11.999   2.534 -0.2205  0.4886  0.3657
57736SOL     OW79170   8.786   1.004   0.240 -0.1910 -0.3379 -0.5161
57736SOL    HW179171   8.746   0.929   0.283  0.7340 -0.6580 -0.1766
57736SOL    HW279172   8.878   1.001   0.267 -0.0778  0.7665 -0.7008
57737SOL     OW79173   8.079   1.480   0.499 -0.3675 -0.2983 -0.1897
57737SOL    HW179174   8.093   1.559   0.447  0.8326  0.7461  1.6291
57737SOL    HW279175   8.155   1.425   0.481 -0.7984 -0.7043 -0.8217
57738SOL     OW79176   7.644  12.202   4.200  0.0240 -0.6261  0.4866
57738SOL    HW179177   7.670  12.176   4.112 -0.0778 -0.9750  0.5606
57738SOL    HW279178   7.573  12.264   4.186  0.9515  0.4273  0.2754
57739SOL     OW79179   7.485   8.475   5.428  0.2445 -0.4156  0.6262
57739SOL    HW179180   7.424   8.473   5.502  0.6581  0.0637  0.9796
57739SOL    HW279181   7.444   8.535   5.365 -0.0794 -0.7793  0.4803
57740SOL     OW79182  10.065  11.691   5.808 -0.0379  0.0090 -0.2445
57740SOL    HW179183  10.010  11.713   5.733 -0.3831 -1.5527 -0.4784
57740SOL    HW279184  10.029  11.609   5.842  1.1419 -0.1931  0.6079
57741SOL     OW79185   6.550   9.458   1.454 -0.0765 -0.1083 -0.4720
57741SOL    HW179186   6.569   9.527   1.391  1.5506  0.5526  0.6948
57741SOL    HW279187   6.495   9.500   1.521 -0.1631 -0.2938 -0.4228
57742SOL     OW79188   5.884   6.617   0.256  0.6113 -0.0389  0.0165
57742SOL    HW179189   5.804   6.589   0.212  0.6740  1.7014 -1.2921
57742SOL    HW279190   5.944   6.641   0.186  1.1759  1.5946  0.9765
57743SOL     OW79191   6.942   0.097   7.908 -0.2142 -0.1947 -0.0917
57743SOL    HW179192   6.906   0.181   7.879  0.4022 -0.0570 -0.4860
57743SOL    HW279193   6.890   0.032   7.861 -0.5262 -0.0252  0.0182
57744SOL     OW79194   6.913  11.311  10.792 -0.4043  0.0825 -0.1325
57744SOL    HW179195   6.844  11.245  10.782 -0.4950  0.3147 -1.1234
57744SOL    HW279196   6.952  11.293  10.878 -1.3881 -0.3413  0.2294
57745SOL     OW79197   4.520   4.651  11.861 -0.1492  0.1255 -0.2176
57745SOL    HW179198   4.483   4.736  11.837  0.7966  0.4530 -0.5666
57745SOL    HW279199   4.614   4.663  11.852 -0.0077 -0.9703 -0.2801
57746SOL     OW79200   4.510   2.075   3.889 -0.0896 -0.7838  0.3894
57746SOL    HW179201   4.538   2.127   3.964 -1.0088  0.0643  0.1646
57746SOL    HW279202   4.588   2.068   3.834  0.2732 -0.3853  0.8418
57747SOL     OW79203   2.295   1.581   9.777  0.2700  0.2113  0.0337
57747SOL    HW179204   2.377   1.540   9.808 -0.8774 -1.0906  1.5142
57747SOL    HW279205   2.275   1.645   9.845 -0.6330 -0.4504  0.4083
57748SOL     OW79206  11.754   1.416   2.688 -0.4438 -0.3776 -0.4228
57748SOL    HW179207  11.782   1.336   2.732  1.3183  0.7597  0.6361
57748SOL    HW279208  11.757   1.394   2.594  0.6688 -1.3508 -0.1843
57749SOL     OW79209   0.283   7.716  10.618  0.7210 -0.3285  0.3859
57749SOL    HW179210   0.205   7.760  10.586 -0.2635 -2.1128  0.2053
57749SOL    HW279211   0.355   7.755  10.569 -0.1771  0.5667 -0.2514
57750SOL     OW79212   6.278   7.650   4.812 -0.2038  0.3959 -0.5699
57750SOL    HW179213   6.270   7.667   4.906 -1.5786 -1.6784 -0.2258
57750SOL    HW279214   6.201   7.692   4.773 -1.3726 -1.3209 -0.2664
57751SOL     OW79215   0.066   2.712   1.830 -0.4468  0.0974  0.2331
57751SOL    HW179216  -0.005   2.775   1.838 -0.1967  0.5432 -0.8501
57751SOL    HW279217   0.140   2.763   1.797  0.4528 -0.3173  1.4973
57752SOL     OW79218  12.140   5.967  10.840  0.5416  0.0909 -0.2135
57752SOL    HW179219  12.102   6.051  10.865 -0.1599  0.1693 -1.4444
57752SOL    HW279220  12.073   5.902  10.863  0.6410 -0.0247 -0.2454
57753SOL     OW79221   6.856   2.695   2.643 -0.1358 -0.5401  0.3674
57753SOL    HW179222   6.872   2.706   2.736 -0.4730  1.2098  0.2459
57753SOL    HW279223   6.834   2.783   2.611  0.9888 -0.9019 -1.5539
57754SOL     OW79224  10.806  11.050   9.896  0.5455 -0.8359 -0.2624
57754SOL    HW179225  10.736  10.984   9.897 -0.1333 -0.1542 -1.2511
57754SOL    HW279226  10.870  11.017   9.959 -0.1266 -2.0621 -0.1830
57755SOL     OW79227  11.093   7.915   3.253  0.5129  0.0216 -0.2243
57755SOL    HW179228  11.018   7.956   3.210 -0.1544  1.1701  1.8965
57755SOL    HW279229  11.056   7.877   3.333  1.7714 -1.6362 -0.3847
57756SOL     OW79230   8.347   4.332  12.281 -0.1025  0.3717 -0.0101
57756SOL    HW179231   8.328   4.327  12.187 -0.9039 -0.7071  0.1964
57756SOL    HW279232   8.442   4.325  12.287 -0.0897 -0.1605 -0.7050
57757SOL     OW79233   0.222   8.885   1.198 -0.2069 -0.2994  0.4341
57757SOL    HW179234   0.140   8.899   1.244 -0.7883 -0.9467 -0.3717
57757SOL    HW279235   0.216   8.942   1.121 -0.1947 -0.8527  0.0221
57758SOL     OW79236   7.221   0.167   8.857  0.4102 -0.5445  0.5897
57758SOL    HW179237   7.149   0.112   8.891  0.9790 -1.7219 -0.0518
57758SOL    HW279238   7.300   0.115   8.873  1.2983  1.2409  2.3761
57759SOL     OW79239   6.025   8.724  11.052 -0.6026 -0.2974  0.0065
57759SOL    HW179240   6.117   8.723  11.075 -1.2591  0.8174  3.2041
57759SOL    HW279241   5.988   8.648  11.097 -1.7460  1.2452  1.8535
57760SOL     OW79242   6.536   7.714   1.978 -0.2465 -0.5630  0.7899
57760SOL    HW179243   6.597   7.776   2.019 -0.3903  1.5030 -1.8282
57760SOL    HW279244   6.577   7.628   1.991  1.8304  0.4568  1.4988
57761SOL     OW79245   0.007   8.021   9.524  0.3989 -0.1859 -0.3320
57761SOL    HW179246  -0.067   8.019   9.463 -0.4380 -1.6482  0.6865
57761SOL    HW279247   0.027   8.114   9.533 -1.6635  0.2974 -0.2457
57762SOL     OW79248   1.379   4.233   6.816  0.4216 -0.3191  0.4015
57762SOL    HW179249   1.395   4.210   6.724 -0.8179 -1.1216  0.3589
57762SOL    HW279250   1.299   4.284   6.814 -0.3525 -1.4639  1.1512
57763SOL     OW79251  10.221   1.802   3.625  0.3761  0.4066 -0.0094
57763SOL    HW179252  10.213   1.707   3.634 -1.5318  0.5151 -0.0069
57763SOL    HW279253  10.230   1.834   3.714 -0.7789  0.3235  0.1515
57764SOL     OW79254   1.404   6.935   6.667 -0.4827 -0.2915  0.2200
57764SOL    HW179255   1.373   6.871   6.731 -0.1712  0.4024  1.0809
57764SOL    HW279256   1.442   7.006   6.719 -0.0854  0.2261 -0.7349
57765SOL     OW79257   5.944   7.851   3.480 -0.1600  0.0160  0.0309
57765SOL    HW179258   5.974   7.781   3.538  1.7175  0.5704 -0.2311
57765SOL    HW279259   5.991   7.929   3.509  0.0131  0.5375 -1.5463
57766SOL     OW79260   6.971  12.340   4.738  0.3036  0.0674  0.3266
57766SOL    HW179261   6.887  12.369   4.774  0.3736  0.6762  0.0156
57766SOL    HW279262   6.957  12.337   4.643  0.4565 -0.4273  0.3148
57767SOL     OW79263   8.738   1.429   0.417  0.1325 -0.2304 -0.3234
57767SOL    HW179264   8.708   1.476   0.495  1.0138 -1.2969  0.6969
57767SOL    HW279265   8.662   1.378   0.390 -0.2947  0.4302 -0.4044
57768SOL     OW79266   1.976   1.526   4.083  0.0640 -0.1766  0.5762
57768SOL    HW179267   2.059   1.502   4.043  1.6813  3.0667  1.6414
57768SOL    HW279268   1.993   1.609   4.128 -4.0387  1.3084 -0.1274
57769SOL     OW79269   6.345   1.490   8.810  0.2854  0.3977  0.4026
57769SOL    HW179270   6.346   1.584   8.826  0.3137  0.2586  1.2520
57769SOL    HW279271   6.350   1.450   8.897  0.8429 -0.3925  0.0223
57770SOL     OW79272   8.267   5.460  12.353  0.2980 -0.1816 -0.5680
57770SOL    HW179273   8.221   5.469  12.270 -1.4626 -0.2006  0.3505
57770SOL    HW279274   8.275   5.366  12.366 -1.1860 -0.2477  0.1449
57771SOL     OW79275   0.355   4.829  12.447  0.1922 -1.0522  0.0102
57771SOL    HW179276   0.367   4.902  12.508 -1.2750 -0.9251  0.1984
57771SOL    HW279277   0.438   4.781  12.449  0.4103 -0.6505  1.5636
57772SOL     OW79278  11.912   7.482   5.730  1.0599  0.0818 -0.0920
57772SOL    HW179279  11.833   7.479   5.675 -0.5682  0.9697  2.0543
57772SOL    HW279280  11.960   7.403   5.705 -0.9179 -0.9552 -0.9228
57773SOL     OW79281   1.778   3.090   4.042  0.0640 -0.8500  0.1773
57773SOL    HW179282   1.786   2.995   4.042 -0.4386 -0.8981  0.6969
57773SOL    HW279283   1.684   3.106   4.026 -0.5845 -0.5451  3.6444
57774SOL     OW79284   0.062   4.117   2.976  0.5082  0.3735 -0.5795
57774SOL    HW179285   0.054   4.062   3.054 -0.0333  2.2023  0.7144
57774SOL    HW279286   0.036   4.060   2.904  2.8266 -1.9661  0.2545
57775SOL     OW79287   1.003   9.434   1.406 -0.1850 -0.0458  0.0671
57775SOL    HW179288   1.036   9.390   1.485  0.1617  1.1763  0.6277
57775SOL    HW279289   0.920   9.390   1.387 -0.3870 -0.2222  1.2556
57776SOL     OW79290  12.059   4.071   1.314  0.4681 -0.2861  0.3241
57776SOL    HW179291  12.044   4.164   1.296  0.0689 -0.4345 -0.1417
57776SOL    HW279292  11.980   4.043   1.361 -1.2889 -1.2781 -2.8954
57777SOL     OW79293  10.672   8.151   6.837  0.0188 -0.0701 -0.5331
57777SOL    HW179294  10.670   8.126   6.929  2.3234  2.1587  0.2171
57777SOL    HW279295  10.609   8.224   6.831  0.7268  0.5680 -0.4111
57778SOL     OW79296  11.800   3.074  11.706 -0.0992  0.1487  0.1687
57778SOL    HW179297  11.772   3.117  11.786 -0.4766 -1.0086  0.6637
57778SOL    HW279298  11.741   3.108  11.638  0.2215  1.1251  0.3583
57779SOL     OW79299   6.631   3.040   1.827  0.7961 -0.3940 -0.0935
57779SOL    HW179300   6.719   3.008   1.843  1.3189  0.1344 -1.6950
57779SOL    HW279301   6.632   3.068   1.735 -0.0977  2.6257  0.7033
57780SOL     OW79302   1.262  10.962  12.375 -0.2599 -0.4816 -0.6944
57780SOL    HW179303   1.235  11.053  12.368  2.1362  0.5580  1.9082
57780SOL    HW279304   1.210  10.927  12.448 -0.1629 -0.7685 -0.7617
57781SOL     OW79305   4.405  10.399   2.434  0.2866  0.5544 -0.4253
57781SOL    HW179306   4.425  10.320   2.384  0.2016 -0.6714  1.3948
57781SOL    HW279307   4.472  10.462   2.406  0.1647 -0.0050 -2.1418
57782SOL     OW79308   3.772   1.049   8.958 -0.0475 -0.2580 -0.4047
57782SOL    HW179309   3.847   1.056   9.018 -1.1196  1.8434  0.8096
57782SOL    HW279310   3.803   1.091   8.878  0.3294 -0.0844 -0.1748
57783SOL     OW79311  11.016   6.305   6.344  0.1321 -0.1087  0.2783
57783SOL    HW179312  11.066   6.242   6.397  0.8255 -0.4822 -0.7729
57783SOL    HW279313  11.079   6.374   6.324  0.1053 -0.3345 -0.6489
57784SOL     OW79314   3.332   7.040   8.904  0.5552 -0.6438 -0.1052
57784SOL    HW179315   3.297   6.969   8.957 -0.9136 -0.2688 -0.5255
57784SOL    HW279316   3.295   7.025   8.817 -1.8068  1.9329  0.3117
57785SOL     OW79317  11.037   0.441   2.843  0.0070 -1.2187 -0.3650
57785SOL    HW179318  11.065   0.489   2.922  1.7014  1.0608 -2.1948
57785SOL    HW279319  11.115   0.396   2.813  0.3106  0.4945 -2.3836
57786SOL     OW79320  12.365  11.667   1.297 -0.6494  0.2179  0.4521
57786SOL    HW179321  12.434  11.730   1.279 -1.7813  1.1063 -0.9237
57786SOL    HW279322  12.410  11.582   1.294  0.5103  0.8066  0.3450
57787SOL     OW79323   0.203   0.010   0.763 -0.1027  0.4703 -0.0317
57787SOL    HW179324   0.188  -0.084   0.754 -0.4422  0.5446 -0.2529
57787SOL    HW279325   0.118   0.050   0.745  0.6692  0.9952 -3.0463
57788SOL     OW79326   3.211   9.614  10.201  0.0596  0.2079  0.0318
57788SOL    HW179327   3.224   9.707  10.180 -0.4782  0.5035  0.9626
57788SOL    HW279328   3.247   9.568  10.125  0.7347  1.1611 -0.2587
57789SOL     OW79329   5.372   2.022   5.875  0.4857 -0.1658  0.0632
57789SOL    HW179330   5.389   1.996   5.965 -0.7573  0.0686  0.3793
57789SOL    HW279331   5.316   1.953   5.840  1.1723 -0.3984 -0.6352
57790SOL     OW79332   8.180  10.768  11.906 -0.1190  0.2406 -0.0687
57790SOL    HW179333   8.240  10.693  11.911  0.2309  0.4693 -0.7049
57790SOL    HW279334   8.191  10.801  11.817 -1.2579  0.2358 -0.2254
57791SOL     OW79335   4.019  10.281   3.413 -0.1102  0.3079  0.4251
57791SOL    HW179336   4.062  10.258   3.330  1.4861  1.6270  0.8233
57791SOL    HW279337   3.948  10.339   3.388  2.1111  3.1016  0.0501
57792SOL     OW79338  11.510  12.179   9.121  0.4866 -0.2439  0.0658
57792SOL    HW179339  11.471  12.160   9.036 -1.5476  0.6363  0.7311
57792SOL    HW279340  11.551  12.265   9.110 -2.0392  1.1131  0.5899
57793SOL     OW79341   3.362   5.198  12.424  0.3993 -0.4842  0.2056
57793SOL    HW179342   3.457   5.184  12.428  0.1650 -2.4735  0.0969
57793SOL    HW279343   3.333   5.197  12.515  0.8045  3.6779  0.5770
57794SOL     OW79344   8.027   8.470   3.598  0.3133 -0.1714  0.2401
57794SOL    HW179345   7.989   8.483   3.685  2.5286 -0.0516  1.2442
57794SOL    HW279346   8.055   8.557   3.571  2.9555 -0.6778  1.0770
57795SOL     OW79347   1.231   3.965   6.268  0.8248 -0.3133 -0.2814
57795SOL    HW179348   1.150   3.915   6.270  0.4731  0.2412  1.2565
57795SOL    HW279349   1.204   4.056   6.283  1.6103  0.0793 -1.1259
57796SOL     OW79350   0.713   6.175   9.314  0.0044  0.0424  0.2145
57796SOL    HW179351   0.734   6.186   9.221 -0.4898 -2.3528 -0.2420
57796SOL    HW279352   0.784   6.220   9.360  1.3643 -0.4456 -1.3063
57797SOL     OW79353   0.696   4.459  12.297  0.4485 -0.5463  0.2571
57797SOL    HW179354   0.690   4.546  12.258  1.7917 -1.2985 -1.8394
57797SOL    HW279355   0.632   4.407  12.248  2.5714 -1.6523 -1.5438
57798SOL     OW79356   6.386   1.495  10.375  0.0154 -0.3357 -0.5199
57798SOL    HW179357   6.394   1.589  10.356  0.1232 -0.2736 -0.1880
57798SOL    HW279358   6.456   1.454  10.325  0.0578 -0.2211 -0.5552
57799SOL     OW79359   8.612   9.162  10.618 -0.3419 -0.4815 -0.2019
57799SOL    HW179360   8.672   9.187  10.689  0.4628 -0.7372 -0.7711
57799SOL    HW279361   8.603   9.067  10.626  2.5706 -1.1004 -2.4890
57800SOL     OW79362   9.845   2.710   6.335  0.3374 -0.0499 -0.1641
57800SOL    HW179363   9.835   2.759   6.416 -1.5971  0.7898 -0.8479
57800SOL    HW279364   9.937   2.721   6.311  0.1427  2.7891  0.0326
57801SOL     OW79365   0.464  11.630   0.197 -0.1643  0.6561  0.1228
57801SOL    HW179366   0.389  11.570   0.197 -0.5809  1.1491  1.1126
57801SOL    HW279367   0.497  11.627   0.287  0.5646  0.9901 -0.1276
57802SOL     OW79368   3.981   1.672   3.877  0.2554 -0.7973  0.1001
57802SOL    HW179369   3.994   1.723   3.957  1.4230 -1.1194  0.1204
57802SOL    HW279370   4.033   1.717   3.810 -1.3334 -0.0664 -0.7095
57803SOL     OW79371   0.034   6.995   7.158  0.2159 -0.7172  0.2226
57803SOL    HW179372   0.121   6.970   7.126  0.5305 -0.5230  0.9144
57803SOL    HW279373  -0.019   6.916   7.150  0.1140 -0.5174 -1.3464
57804SOL     OW79374   9.766  10.530   5.517 -0.0381 -0.0206 -0.2947
57804SOL    HW179375   9.701  10.490   5.460  0.1528  0.8915 -1.1738
57804SOL    HW279376   9.848  10.486   5.496 -0.0649 -0.0555 -0.3293
57805SOL     OW79377   8.875   6.623   9.698 -0.1769  0.2537  0.1637
57805SOL    HW179378   8.918   6.659   9.621 -0.3534  0.9384  0.3833
57805SOL    HW279379   8.942   6.624   9.766 -0.3490  0.7261  0.3306
57806SOL     OW79380   0.906   6.553   4.278 -0.1587  0.2635 -0.6801
57806SOL    HW179381   0.887   6.590   4.365 -0.0437  2.4416 -1.5193
57806SOL    HW279382   0.898   6.458   4.290  1.5539  0.3625  2.1261
57807SOL     OW79383   0.098   1.915  10.811 -0.3945  0.1910 -0.4222
57807SOL    HW179384   0.111   1.834  10.761 -0.1361 -1.3169  1.9188
57807SOL    HW279385   0.014   1.902  10.855 -0.1471  1.0163  0.3027
57808SOL     OW79386  11.042  11.700   9.367  0.1385 -0.1069 -0.3506
57808SOL    HW179387  11.024  11.649   9.288  2.2355 -0.6979 -0.5127
57808SOL    HW279388  10.978  11.770   9.366 -2.0050 -1.9437 -0.8440
57809SOL     OW79389   8.372   6.023  10.018 -0.0681 -0.4426  0.9923
57809SOL    HW179390   8.338   5.938  10.045 -1.9070  0.1791  0.8195
57809SOL    HW279391   8.297   6.082  10.028  0.9366  0.9948  0.3374
57810SOL     OW79392   7.830  11.348   2.908 -0.0363 -0.0916 -0.5460
57810SOL    HW179393   7.751  11.382   2.867 -0.1332 -1.5768 -1.7119
57810SOL    HW279394   7.897  11.353   2.839  0.2922 -0.8859 -0.3053
57811SOL     OW79395   1.191   9.868   6.802 -0.5647 -0.0170  0.3226
57811SOL    HW179396   1.131   9.933   6.764 -1.2679  1.2207  3.2783
57811SOL    HW279397   1.206   9.899   6.891  2.2078 -1.8984  0.6181
57812SOL     OW79398   5.179   2.572   4.847  0.3165  0.3643 -0.3242
57812SOL    HW179399   5.133   2.582   4.764 -0.4107  1.6003  0.2008
57812SOL    HW279400   5.232   2.493   4.835  0.9455  1.0266 -2.2821
57813SOL     OW79401  12.110   8.076   3.944  0.3565 -0.1762 -0.1077
57813SOL    HW179402  12.084   8.135   4.015  0.6677  0.0842 -0.2032
57813SOL    HW279403  12.052   8.001   3.952 -1.1627  0.8515 -0.9694
57814SOL     OW79404  10.820   6.293   4.969  0.2378 -0.0726  0.3098
57814SOL    HW179405  10.815   6.355   5.041  0.4629  0.1048  0.1729
57814SOL    HW279406  10.729   6.280   4.942  0.2964  1.5704 -0.8199
57815SOL     OW79407   1.237   0.417   4.663 -0.5103 -0.2842  0.5979
57815SOL    HW179408   1.266   0.330   4.637 -0.3035 -0.1799  0.4814
57815SOL    HW279409   1.211   0.407   4.755 -0.1357 -0.3840  0.6957
57816SOL     OW79410  10.543   7.881   8.802 -0.1470 -0.5313 -0.3467
57816SOL    HW179411  10.629   7.850   8.776  1.3717  2.0589  1.0686
57816SOL    HW279412  10.519   7.826   8.877  0.6104 -0.8712 -0.3440
57817SOL     OW79413  10.346   4.242   1.698 -0.3381  0.0806 -0.3444
57817SOL    HW179414  10.372   4.176   1.763 -1.0628  0.3004  0.1813
57817SOL    HW279415  10.367   4.202   1.614  2.8323  0.7025  0.0094
57818SOL     OW79416   6.914  11.190   2.585 -0.3716 -0.2973  0.0508
57818SOL    HW179417   6.862  11.116   2.618  0.7274  0.2204  3.3016
57818SOL    HW279418   6.986  11.148   2.537  0.0114 -1.4059  1.4989
57819SOL     OW79419   8.148   2.692   2.883  0.4551  0.3596 -0.1437
57819SOL    HW179420   8.143   2.625   2.950 -1.4202 -0.0994 -0.6798
57819SOL    HW279421   8.104   2.768   2.921 -1.7564 -0.3021 -1.2299
57820SOL     OW79422  10.442   2.433   9.369  0.6299 -0.3226  0.2012
57820SOL    HW179423  10.359   2.397   9.338  0.3152 -0.5488  1.2730
57820SOL    HW279424  10.507   2.366   9.347  0.5991 -0.0208 -0.9015
57821SOL     OW79425   4.153  12.105   5.112  0.1139  0.2561 -0.2829
57821SOL    HW179426   4.118  12.185   5.149 -0.5363  0.2138 -0.8042
57821SOL    HW279427   4.241  12.129   5.083 -0.0364  0.7447 -0.3414
57822SOL     OW79428   6.180   6.211   8.599  0.1394 -0.4837 -0.0493
57822SOL    HW179429   6.167   6.171   8.685 -1.4693  1.1560  0.5251
57822SOL    HW279430   6.110   6.174   8.545  0.2854 -0.4505 -0.2596
57823SOL     OW79431   3.351   8.046  11.829 -0.2126 -0.4435 -0.5650
57823SOL    HW179432   3.273   8.029  11.882  1.0134  1.8411  2.2296
57823SOL    HW279433   3.419   8.068  11.892  2.0501  0.1837 -3.0242
57824SOL     OW79434  12.475  10.154   9.067 -0.3583  0.8490  0.8408
57824SOL    HW179435  12.560  10.166   9.025 -0.9523 -0.2155 -0.7546
57824SOL    HW279436  12.494  10.104   9.147  0.5068  0.5805  0.4773
57825SOL     OW79437   2.090  12.398  12.235  0.6303  0.4045  0.4282
57825SOL    HW179438   2.065  12.366  12.149  0.3922 -0.2447  0.7307
57825SOL    HW279439   2.166  12.346  12.260  0.5689  0.4383  0.6971
57826SOL     OW79440   6.727   7.938   3.226  0.7297 -0.1945  0.6613
57826SOL    HW179441   6.679   7.884   3.163  2.0494 -1.7664  0.9286
57826SOL    HW279442   6.769   8.005   3.172 -0.7244  0.4631  0.2907
57827SOL     OW79443   9.345   3.340   7.244  0.2549  0.1456 -0.0275
57827SOL    HW179444   9.420   3.290   7.278 -0.6879 -1.4977 -0.2532
57827SOL    HW279445   9.366   3.354   7.152 -0.6668 -2.3450 -0.6955
57828SOL     OW79446   2.192  12.097   0.894 -0.8082  0.0929 -0.6109
57828SOL    HW179447   2.252  12.161   0.856 -1.2078  1.7386  1.3657
57828SOL    HW279448   2.135  12.071   0.822 -1.1792  2.6592 -1.3122
57829SOL     OW79449  10.342   4.977   6.991  0.4642 -0.1460  0.2249
57829SOL    HW179450  10.407   4.956   7.058  1.0591  1.0731  0.0606
57829SOL    HW279451  10.378   5.054   6.946 -0.5831 -0.1049 -0.5831
57830SOL     OW79452   0.468  12.146   0.429 -0.2520  0.4090  0.1208
57830SOL    HW179453   0.387  12.097   0.438  0.0296  0.1243  1.2989
57830SOL    HW279454   0.444  12.237   0.445 -0.5258  0.4737 -0.6400
57831SOL     OW79455  12.442   6.994   9.728 -0.2745 -0.0696 -0.0973
57831SOL    HW179456  12.424   7.038   9.811 -0.9565  0.5623 -0.5670
57831SOL    HW279457  12.391   6.913   9.732  2.5697 -1.9476  1.6414
57832SOL     OW79458   3.149   1.663   0.241  0.3121 -0.4113  0.2294
57832SOL    HW179459   3.096   1.737   0.269  1.6781  1.0349 -0.8219
57832SOL    HW279460   3.175   1.620   0.323  1.0952  1.4485  1.0107
57833SOL     OW79461   5.598   5.464   9.612  0.4919 -0.4743 -0.5356
57833SOL    HW179462   5.529   5.525   9.586 -1.3346 -2.0976  0.2548
57833SOL    HW279463   5.620   5.489   9.702  0.2512 -0.5338 -0.4597
57834SOL     OW79464   9.919   8.732   2.499  0.3158  0.5813 -0.6862
57834SOL    HW179465   9.837   8.781   2.489 -0.5495 -0.7432 -0.3540
57834SOL    HW279466   9.938   8.736   2.593  0.0424  0.0092 -0.5987
57835SOL     OW79467   8.045  10.437   4.897 -0.3993 -0.6494 -0.4626
57835SOL    HW179468   8.013  10.513   4.848  0.6775 -1.0536 -1.8747
57835SOL    HW279469   8.064  10.471   4.985  2.0050  1.2584 -1.5972
57836SOL     OW79470  12.132   2.808  12.417  0.2703  0.0844 -0.0324
57836SOL    HW179471  12.082   2.778  12.341  0.7757 -0.7716 -0.0475
57836SOL    HW279472  12.201   2.862  12.379 -0.2892  0.7903 -0.0593
57837SOL     OW79473   2.753   0.689   5.983 -0.2122 -0.3174  0.1681
57837SOL    HW179474   2.778   0.606   6.023 -2.7708 -0.6328  1.2567
57837SOL    HW279475   2.738   0.668   5.891 -0.3119 -0.9405  0.3259
57838SOL     OW79476   9.805   1.922   9.045  0.4744  0.1581 -0.1679
57838SOL    HW179477   9.897   1.919   9.019 -0.0968 -0.6654 -2.2922
57838SOL    HW279478   9.759   1.955   8.968 -1.1533 -0.7612  0.3571
57839SOL     OW79479   4.739  10.424   0.968  0.2633  0.3916  0.5114
57839SOL    HW179480   4.793  10.423   0.889 -1.0735  2.1150 -0.4925
57839SOL    HW279481   4.776  10.495   1.020 -0.0860  0.5599  0.5274
57840SOL     OW79482   6.821   9.728  10.997  0.3217  0.7495  0.3130
57840SOL    HW179483   6.857   9.711  11.084  0.5555  2.1841  0.5218
57840SOL    HW279484   6.892   9.773  10.951 -0.2163  1.0617 -0.2148
57841SOL     OW79485   3.064   6.629   5.140  0.3957  0.2442 -0.3285
57841SOL    HW179486   3.142   6.641   5.194  1.6110 -2.8536 -1.1753
57841SOL    HW279487   3.093   6.651   5.052  0.0482 -0.0467 -0.5171
57842SOL     OW79488   5.980  11.872   9.704  0.7902 -0.6477  0.2298
57842SOL    HW179489   5.902  11.830   9.668 -0.1015  1.7619 -0.8570
57842SOL    HW279490   5.948  11.923   9.778  1.8295 -1.7084  1.4614
57843SOL     OW79491   5.685   1.570   5.306  0.1281  0.1128  0.1581
57843SOL    HW179492   5.751   1.506   5.281  0.1678 -0.4345  1.5952
57843SOL    HW279493   5.723   1.655   5.281  0.5413 -0.3322 -0.7543
57844SOL     OW79494  10.109   1.166   3.411 -0.7195 -0.4905  0.0366
57844SOL    HW179495  10.059   1.210   3.480  0.8598  0.9580  0.3422
57844SOL    HW279496  10.153   1.237   3.365  0.0858 -1.6167 -0.9844
57845SOL     OW79497   4.383   7.324   4.329  0.1911  0.2322 -0.5173
57845SOL    HW179498   4.314   7.366   4.278  0.2604  0.7516 -0.1901
57845SOL    HW279499   4.462   7.373   4.307 -0.1139  1.8815  1.6599
57846SOL     OW79500   5.423   5.165  12.123 -0.3570  0.0544 -0.3738
57846SOL    HW179501   5.373   5.246  12.133  0.1766  0.2455  1.1077
57846SOL    HW279502   5.479   5.179  12.047  0.7379  1.6744  0.6640
57847SOL     OW79503   0.575   8.673   7.486  0.5585 -0.2811 -0.2389
57847SOL    HW179504   0.647   8.729   7.457  0.1846 -0.3355 -1.3303
57847SOL    HW279505   0.514   8.734   7.528  0.4177  0.0633 -0.9188
57848SOL     OW79506   0.748   3.717   1.379 -0.1713 -0.2243 -0.1399
57848SOL    HW179507   0.768   3.642   1.436 -2.4307 -1.4700 -0.8513
57848SOL    HW279508   0.763   3.684   1.290  2.1101  1.3104 -0.4067
57849SOL     OW79509  10.262   6.032  11.205  0.1659  0.4785  0.1782
57849SOL    HW179510  10.214   6.026  11.122  1.0613 -0.6146 -0.3002
57849SOL    HW279511  10.348   6.067  11.180  0.4809  0.0331  0.6094
57850SOL     OW79512   4.501   4.942   0.404  0.5560 -0.0082  1.2173
57850SOL    HW179513   4.574   5.003   0.419  1.0673 -0.7939  1.9786
57850SOL    HW279514   4.477   4.957   0.312 -0.2252  2.2985  1.7223
57851SOL     OW79515   0.662  11.251   8.176  0.1398 -0.5482 -0.0037
57851SOL    HW179516   0.600  11.281   8.242  0.8566  1.8194 -0.3035
57851SOL    HW279517   0.710  11.180   8.218  0.8847  1.1927  2.2602
57852SOL     OW79518   5.567  10.529  11.935 -0.0675 -0.6457  0.4906
57852SOL    HW179519   5.480  10.567  11.947 -0.0431 -0.7688  1.0654
57852SOL    HW279520   5.627  10.596  11.968  0.0439 -0.6407  0.2769
57853SOL     OW79521  10.534   4.875   4.375  0.4806  0.3705 -0.0638
57853SOL    HW179522  10.614   4.928   4.370 -0.2698  1.4555 -1.2970
57853SOL    HW279523  10.485   4.913   4.449  1.5433 -1.0112  1.4215
57854SOL     OW79524   8.305  10.417  12.341 -0.2921  0.1450  0.6374
57854SOL    HW179525   8.307  10.326  12.311  0.2319  0.0988  0.8117
57854SOL    HW279526   8.226  10.422  12.395  0.5558 -0.6603  2.0190
57855SOL     OW79527  10.148   0.686  10.080  0.5929 -0.0063  0.1417
57855SOL    HW179528  10.137   0.745  10.005  2.2130  0.5638  0.3025
57855SOL    HW279529  10.089   0.721  10.147  0.8062  0.8674 -0.1084
57856SOL     OW79530   2.870   0.008   3.616  0.4253  0.3216  0.4740
57856SOL    HW179531   2.909   0.039   3.535 -0.2022  1.2952  0.5239
57856SOL    HW279532   2.855  -0.085   3.602  1.8848  0.1177  0.1194
57857SOL     OW79533   7.599  10.536   2.095 -0.2572  0.3170 -0.1984
57857SOL    HW179534   7.670  10.558   2.156 -0.6748 -1.6395  1.0927
57857SOL    HW279535   7.544  10.476   2.144 -1.9639  0.5562 -1.7300
57858SOL     OW79536   5.577   9.359  10.492 -0.1638 -0.6155  0.0791
57858SOL    HW179537   5.661   9.340  10.532 -0.2971 -2.2378 -0.3408
57858SOL    HW279538   5.513   9.347  10.563  0.0220  2.2761  0.8600
57859SOL     OW79539  11.313   7.061   7.140  0.1081  0.0378  0.4596
57859SOL    HW179540  11.376   7.006   7.093  0.0420 -0.3842  0.8612
57859SOL    HW279541  11.314   7.144   7.093  1.0160  0.0571  0.4907
57860SOL     OW79542   2.928   3.290   3.972 -0.3094  0.3100  0.0717
57860SOL    HW179543   2.883   3.205   3.973  0.7765 -0.2939  1.8549
57860SOL    HW279544   2.879   3.342   3.909  0.3699 -2.3574 -2.9409
57861SOL     OW79545   0.391  12.220  10.778  0.4068  0.3893 -0.2808
57861SOL    HW179546   0.347  12.256  10.855 -0.3544 -0.6075 -0.2283
57861SOL    HW279547   0.321  12.186  10.723  0.9935  0.4431 -1.0936
57862SOL     OW79548   0.449  10.387   5.145  0.7115 -0.2456 -0.3347
57862SOL    HW179549   0.438  10.373   5.051 -0.6108  1.0374 -0.4089
57862SOL    HW279550   0.484  10.476   5.152  2.1755 -0.8439  0.3580
57863SOL     OW79551   3.539   5.888   3.907 -0.0226  0.1292  0.6833
57863SOL    HW179552   3.526   5.806   3.859  0.8387  0.7193 -0.6256
57863SOL    HW279553   3.484   5.951   3.861  1.2906  0.8471  0.0427
57864SOL     OW79554   6.276   7.968   1.214  0.3221 -0.6904 -0.3209
57864SOL    HW179555   6.333   7.938   1.285 -1.3653 -1.6607  0.6693
57864SOL    HW279556   6.319   8.047   1.182  1.5382 -0.6431  1.2734
57865SOL     OW79557  10.156  10.088   4.746 -0.1404 -0.4681  0.0371
57865SOL    HW179558  10.196  10.148   4.809  0.2307 -0.1157 -0.5197
57865SOL    HW279559  10.072  10.065   4.784 -1.0529  1.7436 -0.5092
57866SOL     OW79560   0.554   9.829   8.863  0.1700  0.1895 -0.0709
57866SOL    HW179561   0.605   9.899   8.904  1.3854 -1.6427  1.7432
57866SOL    HW279562   0.468   9.868   8.847  0.9921  2.2756  0.2168
57867SOL     OW79563   6.018  12.093   3.604  0.4814 -0.3039  0.6750
57867SOL    HW179564   6.040  12.140   3.524  0.5167 -0.6752  0.4614
57867SOL    HW279565   5.980  12.010   3.574 -2.4290  0.7972  0.9826
57868SOL     OW79566  11.300   3.233   2.854 -0.1140 -0.0857 -0.1873
57868SOL    HW179567  11.228   3.179   2.887 -0.0025  0.4675  0.9832
57868SOL    HW279568  11.379   3.185   2.879 -0.0355  0.1448  0.0041
57869SOL     OW79569   7.129  12.394  12.139 -0.3847 -0.1102 -0.6955
57869SOL    HW179570   7.181  12.346  12.203  0.9344  0.9540 -0.9287
57869SOL    HW279571   7.065  12.442  12.192 -0.9361 -1.1658 -0.3802
57870SOL     OW79572   8.452   7.680   4.792  0.1914  0.1671  0.0933
57870SOL    HW179573   8.490   7.599   4.758 -1.9145 -1.3178  1.0296
57870SOL    HW279574   8.389   7.706   4.725 -1.0843 -0.5343  0.9836
57871SOL     OW79575   1.752   5.350  10.780 -0.2206 -0.1897  0.1928
57871SOL    HW179576   1.836   5.395  10.788 -0.0098 -0.6716  0.6936
57871SOL    HW279577   1.716   5.351  10.868 -1.6778  1.7759 -0.3400
57872SOL     OW79578   4.036  11.438  11.061 -0.2915  0.1294  0.4748
57872SOL    HW179579   4.012  11.424  11.153 -0.2242  1.1022  0.6517
57872SOL    HW279580   3.977  11.508  11.032 -0.1394 -0.0005 -0.1512
57873SOL     OW79581   3.166   5.008   2.174  0.2165 -0.3158 -0.4259
57873SOL    HW179582   3.156   5.003   2.270 -0.5060 -1.1223 -0.5314
57873SOL    HW279583   3.203   4.923   2.150 -2.2540 -1.2739 -1.1421
57874SOL     OW79584  11.653  11.174   2.358  0.3726 -0.4981  0.2754
57874SOL    HW179585  11.704  11.237   2.306 -1.9015  0.8528 -0.4318
57874SOL    HW279586  11.643  11.217   2.443  1.0859 -1.1358  0.6908
57875SOL     OW79587   5.453   6.723  12.119  0.8135  0.1940 -0.0984
57875SOL    HW179588   5.367   6.721  12.076  1.2527 -2.2900 -1.0547
57875SOL    HW279589   5.515   6.734  12.047  1.3824  0.0186  0.3575
57876SOL     OW79590   7.820   8.112   8.237  0.0254  0.2202 -0.0126
57876SOL    HW179591   7.758   8.167   8.188  1.0528  1.6197  0.2038
57876SOL    HW279592   7.883   8.082   8.171  0.3916  0.6511  0.1342
57877SOL     OW79593   3.900   1.418   3.824  0.1226  0.1895  0.1363
57877SOL    HW179594   3.839   1.387   3.891 -0.8355  0.1714 -0.7237
57877SOL    HW279595   3.924   1.507   3.853  0.3552 -0.1212  0.9159
57878SOL     OW79596   0.700   8.631   5.891  0.0073 -0.6727 -0.2408
57878SOL    HW179597   0.660   8.546   5.909 -0.2229 -0.1451  2.0471
57878SOL    HW279598   0.732   8.661   5.976  1.8893  0.6543 -1.3511
57879SOL     OW79599   6.371   2.784   9.144 -0.4471 -0.4128 -0.6074
57879SOL    HW179600   6.460   2.748   9.145  1.0180  2.8136  1.6323
57879SOL    HW279601   6.338   2.768   9.232 -0.2882  2.2019 -0.0017
57880SOL     OW79602   7.650   0.426   2.147  0.2238 -0.0649 -0.2154
57880SOL    HW179603   7.580   0.368   2.120 -0.2356 -0.2601  1.3029
57880SOL    HW279604   7.731   0.379   2.125 -0.1379 -1.0361  0.4653
57881SOL     OW79605   0.815   1.966   4.458  0.4318  0.5058  0.3368
57881SOL    HW179606   0.779   1.880   4.481  1.2539  0.2314  0.6230
57881SOL    HW279607   0.872   1.949   4.383 -0.4146  1.0247 -0.4541
57882SOL     OW79608   8.086   8.493   0.796  0.5537  0.2371 -0.0749
57882SOL    HW179609   8.127   8.507   0.710  0.6924 -1.8111 -0.3959
57882SOL    HW279610   8.012   8.435   0.778 -0.1123  0.7164  1.0453
57883SOL     OW79611   5.422   2.453  11.689  0.1874 -0.5171 -0.1157
57883SOL    HW179612   5.394   2.417  11.774  0.7313 -0.9070 -0.0949
57883SOL    HW279613   5.444   2.544  11.708 -0.9622 -0.2327 -0.1160
57884SOL     OW79614   2.988   1.086   3.668  0.8200 -0.1703  0.1546
57884SOL    HW179615   3.002   1.070   3.762 -1.3588 -0.4395  0.4891
57884SOL    HW279616   2.993   1.181   3.659 -1.0008  0.0428  0.9737
57885SOL     OW79617   5.020   5.005  10.374 -0.4522 -0.1533  0.3723
57885SOL    HW179618   4.940   4.956  10.395 -0.0906 -0.5558  0.8324
57885SOL    HW279619   5.040   5.054  10.453 -0.2039 -0.1039  0.2802
57886SOL     OW79620   5.109   0.018   6.160  0.0221 -1.1268 -0.5421
57886SOL    HW179621   5.064  -0.050   6.210  1.0128 -1.6378 -0.3206
57886SOL    HW279622   5.201  -0.007   6.163  0.3353 -0.0707 -0.9336
57887SOL     OW79623   1.334   5.248   2.950  0.1341  0.3025  0.8584
57887SOL    HW179624   1.304   5.167   2.908 -0.3904  0.6268  0.5975
57887SOL    HW279625   1.356   5.221   3.040 -1.3256  0.1123  1.1919
57888SOL     OW79626   3.621   9.267   4.015  0.8766  0.0898 -0.0037
57888SOL    HW179627   3.632   9.288   4.108  1.0891 -1.3531  0.3193
57888SOL    HW279628   3.541   9.315   3.989 -1.2666 -2.2218  1.8659
57889SOL     OW79629  11.927   4.557   5.983  0.0456 -0.2592  0.8309
57889SOL    HW179630  11.978   4.477   5.971 -2.6202 -1.8995 -0.2685
57889SOL    HW279631  11.885   4.572   5.898 -0.9410  1.3121  1.5396
57890SOL     OW79632   2.773  11.609   0.879 -0.3314 -0.1059  0.2400
57890SOL    HW179633   2.715  11.535   0.864 -0.5167 -0.3402  1.9365
57890SOL    HW279634   2.724  11.685   0.846 -0.8744 -0.5093  0.1020
57891SOL     OW79635   7.171   4.166   4.010 -0.1034 -0.1901 -0.0092
57891SOL    HW179636   7.236   4.212   3.957 -0.2245 -0.7721 -0.6805
57891SOL    HW279637   7.199   4.180   4.100  0.2085  0.6644 -0.2335
57892SOL     OW79638  11.336   0.357   6.204  0.1755 -0.2327 -0.0480
57892SOL    HW179639  11.411   0.363   6.263 -1.2257 -2.1493  2.0811
57892SOL    HW279640  11.352   0.277   6.153 -0.5773 -0.8968  0.7262
57893SOL     OW79641   3.205   0.194  10.619 -0.7498  0.0850 -0.3754
57893SOL    HW179642   3.249   0.256  10.560 -0.1370  1.5368  1.5061
57893SOL    HW279643   3.240   0.109  10.593  0.2873  0.7898 -1.4263
57894SOL     OW79644   8.622   3.400   3.145 -0.5531 -0.5396  0.0250
57894SOL    HW179645   8.650   3.467   3.082  1.4917  0.6397  2.0478
57894SOL    HW279646   8.553   3.353   3.099 -1.7298  2.5621 -1.7334
57895SOL     OW79647   2.689  12.410   3.231  0.3837 -0.2079  0.1689
57895SOL    HW179648   2.617  12.351   3.255 -0.2215  0.4006 -0.1161
57895SOL    HW279649   2.768  12.360   3.251 -0.0979 -0.3462  1.8555
57896SOL     OW79650   6.272   2.000   2.226 -0.0246 -0.3258 -0.0065
57896SOL    HW179651   6.207   2.051   2.177  0.2776 -0.1451 -0.2227
57896SOL    HW279652   6.334   2.066   2.259  0.7637 -0.6091 -0.8802
57897SOL     OW79653   8.591   2.871   1.654  0.0681  0.4599  0.7357
57897SOL    HW179654   8.635   2.787   1.640 -2.4759 -0.6962 -0.9001
57897SOL    HW279655   8.619   2.925   1.581 -1.4112 -0.4079 -0.5284
57898SOL     OW79656   7.960   9.644   6.427  0.4591 -0.1310 -0.4961
57898SOL    HW179657   7.929   9.735   6.434  0.3760 -0.1594 -0.4949
57898SOL    HW279658   7.919   9.599   6.500 -0.3762 -0.4150 -1.1229
57899SOL     OW79659   4.684   1.589  11.896  0.2762  0.4118 -0.2560
57899SOL    HW179660   4.684   1.628  11.983 -0.5461  1.8340 -0.8486
57899SOL    HW279661   4.591   1.579  11.875  0.4351  1.1625 -1.4105
57900SOL     OW79662   5.344   6.184   2.628 -0.3127 -0.6359  0.2180
57900SOL    HW179663   5.274   6.205   2.690  0.4167  0.1389  0.8035
57900SOL    HW279664   5.300   6.176   2.544 -1.1012 -0.1529  0.5751
57901SOL     OW79665   8.194   2.202   2.187 -0.0998 -0.3269 -0.3904
57901SOL    HW179666   8.199   2.239   2.274  2.6153 -1.1047 -0.1363
57901SOL    HW279667   8.162   2.274   2.132 -0.6844  0.5252  1.0114
57902SOL     OW79668  11.214   5.643   2.193 -0.5034 -0.6620  0.1306
57902SOL    HW179669  11.207   5.549   2.181 -0.0314 -1.0550  2.4583
57902SOL    HW279670  11.290   5.655   2.249  1.2766  1.3853 -2.4579
57903SOL     OW79671   9.994   0.392   8.933 -0.3607 -0.3505  0.1408
57903SOL    HW179672   9.955   0.478   8.951  2.9457  1.1830  0.6363
57903SOL    HW279673  10.069   0.387   8.992  0.8081 -2.6762 -1.4280
57904SOL     OW79674   6.127   1.722   9.247  0.0072 -0.0677  0.2281
57904SOL    HW179675   6.179   1.779   9.191 -1.0196  0.6292 -0.0418
57904SOL    HW279676   6.178   1.715   9.328 -1.2916  4.0042  1.6470
57905SOL     OW79677   5.458  11.718   4.974 -0.2802  0.3519 -0.5791
57905SOL    HW179678   5.411  11.798   4.951  2.7260  2.3324 -0.3732
57905SOL    HW279679   5.467  11.670   4.892 -1.6433  0.4445 -0.8022
57906SOL     OW79680   9.358   8.771   9.369 -0.2821 -0.3236 -0.1068
57906SOL    HW179681   9.413   8.703   9.407 -2.0459 -0.7879  1.8328
57906SOL    HW279682   9.418   8.826   9.319  1.5659 -1.9534  0.2225
57907SOL     OW79683  10.451   4.383   5.512  0.1572 -0.1442  0.3341
57907SOL    HW179684  10.384   4.413   5.451  0.4435  0.5635  0.3570
57907SOL    HW279685  10.403   4.338   5.581 -0.0774 -2.3744 -1.1633
57908SOL     OW79686   1.053   0.502   4.383  0.5402  0.4131 -0.4236
57908SOL    HW179687   1.047   0.458   4.468 -1.2466 -0.8403 -1.1205
57908SOL    HW279688   1.142   0.485   4.353  0.8048 -0.2049  0.6477
57909SOL     OW79689   5.025  12.327  11.370  0.4609  0.1544  0.1795
57909SOL    HW179690   5.039  12.330  11.465  0.1551  1.2954  0.2080
57909SOL    HW279691   5.102  12.370  11.333 -0.6928  2.2688  0.0888
57910SOL     OW79692  10.761   1.490   9.608 -0.0947 -0.1938  0.4279
57910SOL    HW179693  10.818   1.418   9.633  1.5626  0.9196  0.0355
57910SOL    HW279694  10.801   1.568   9.648  0.4628  1.0906 -2.4086
57911SOL     OW79695   1.976  11.447   8.135 -0.3026 -0.1772 -0.3441
57911SOL    HW179696   1.933  11.463   8.051  0.5988  1.2552 -0.5738
57911SOL    HW279697   1.990  11.352   8.137  0.6423 -0.1375 -2.3362
57912SOL     OW79698   9.253  11.639   6.188 -0.2632 -0.1512  0.0305
57912SOL    HW179699   9.348  11.629   6.188 -0.2603 -0.1871  0.7779
57912SOL    HW279700   9.237  11.718   6.136  0.1212 -0.5266 -0.6760
57913SOL     OW79701   1.795   8.945   3.326  0.4255  0.1029  0.0794
57913SOL    HW179702   1.886   8.913   3.322 -0.0164 -1.1495 -0.7018
57913SOL    HW279703   1.745   8.877   3.281 -1.0033  0.4485  1.1141
57914SOL     OW79704  10.140   4.539   3.755  0.2622 -0.3833  0.2290
57914SOL    HW179705  10.068   4.517   3.813 -1.4293 -2.8431 -2.5674
57914SOL    HW279706  10.131   4.633   3.740 -2.2933 -0.6006  0.0868
57915SOL     OW79707   8.447   7.380   1.384  0.2292 -0.0229 -0.4417
57915SOL    HW179708   8.505   7.336   1.446  0.7085  0.9390 -0.1868
57915SOL    HW279709   8.358   7.355   1.411  0.5062 -2.1855 -1.3435
57916SOL     OW79710   2.945  11.125  12.155 -0.9611  0.0069  0.0516
57916SOL    HW179711   2.963  11.138  12.248 -0.1266 -1.6759  0.1573
57916SOL    HW279712   2.892  11.046  12.151  0.7172 -1.1197 -1.0087
57917SOL     OW79713  12.040   5.572   1.614  0.2250  0.0182 -0.5378
57917SOL    HW179714  12.062   5.550   1.704 -1.0914  0.4823 -0.0822
57917SOL    HW279715  12.016   5.488   1.574  0.2211 -0.1024 -0.2814
57918SOL     OW79716   1.097   0.831  11.776 -0.2893  0.2397 -0.0315
57918SOL    HW179717   1.040   0.756  11.760  1.0192 -0.5177 -1.5749
57918SOL    HW279718   1.090   0.885  11.697 -2.4903  2.7405  1.7034
57919SOL     OW79719   5.170   3.536   6.682 -0.2269  0.3513  0.2711
57919SOL    HW179720   5.255   3.580   6.688 -0.0271 -0.0577  0.5108
57919SOL    HW279721   5.119   3.571   6.754 -0.2750  0.6306  0.1003
57920SOL     OW79722   3.756   1.931   2.549  0.5747 -0.0311 -0.4467
57920SOL    HW179723   3.679   1.949   2.495  0.2618  1.5078  0.4231
57920SOL    HW279724   3.719   1.905   2.634  1.0441 -0.7911 -0.4680
57921SOL     OW79725   1.751  12.118   5.049 -0.9541 -0.1760  0.2934
57921SOL    HW179726   1.821  12.183   5.052  0.0953 -1.2902  1.6792
57921SOL    HW279727   1.752  12.084   4.960  0.7616 -0.6545  0.4683
57922SOL     OW79728   1.464   2.613   0.056 -0.0683 -0.4997 -0.1131
57922SOL    HW179729   1.391   2.648   0.004  0.2577  0.3388 -0.0193
57922SOL    HW279730   1.476   2.678   0.126  1.6827  0.1215 -0.9434
57923SOL     OW79731   9.980   4.971   3.309 -0.3336 -0.0614  0.1154
57923SOL    HW179732  10.029   5.052   3.326  0.2263 -0.3071 -0.2893
57923SOL    HW279733   9.891   4.990   3.339  0.1655  0.1580  1.5190
57924SOL     OW79734   4.815   7.728   3.931  0.0910 -0.4393 -0.3425
57924SOL    HW179735   4.845   7.810   3.892 -1.4331  0.2878 -0.0604
57924SOL    HW279736   4.772   7.755   4.012  1.7572 -1.7594  1.0693
57925SOL     OW79737   1.437   0.238   9.464  0.0076  0.4282 -0.0645
57925SOL    HW179738   1.388   0.300   9.518  1.0140  0.3012  1.0155
57925SOL    HW279739   1.371   0.174   9.437 -0.8830  1.4940 -0.5483
57926SOL     OW79740   2.001   6.625   2.018  0.8608  0.2836 -0.2953
57926SOL    HW179741   2.071   6.563   2.040  1.8808  1.3039 -0.5744
57926SOL    HW279742   1.928   6.570   1.991  1.8016 -0.7943 -0.7080
57927SOL     OW79743  11.073   4.162   2.359  0.5923 -0.0265 -0.6867
57927SOL    HW179744  11.152   4.108   2.351  0.4582 -0.3990  0.3863
57927SOL    HW279745  11.098   4.234   2.416  0.3545  0.2657 -0.9413
57928SOL     OW79746   1.627   0.590   1.746 -0.7809  0.8931 -0.2010
57928SOL    HW179747   1.678   0.528   1.799 -2.6352 -0.2518  0.3120
57928SOL    HW279748   1.614   0.665   1.803 -1.3248  0.3679  0.3756
57929SOL     OW79749   2.088  10.334   4.823  0.2029  0.2458 -0.0639
57929SOL    HW179750   2.091  10.241   4.802  0.5117  0.2033  0.1566
57929SOL    HW279751   2.044  10.338   4.908  0.7175  0.2474  0.2077
57930SOL     OW79752   1.579   7.004  11.175 -0.2933  0.4084  0.3265
57930SOL    HW179753   1.584   6.909  11.184 -0.2393  0.4469  0.6911
57930SOL    HW279754   1.579   7.019  11.080 -1.1168  0.0021  0.2581
57931SOL     OW79755   7.821   3.405   1.426 -0.3659 -0.1874 -0.1691
57931SOL    HW179756   7.866   3.438   1.504  0.2856 -2.3222  0.4413
57931SOL    HW279757   7.781   3.482   1.386  1.2421  1.3230  0.9874
57932SOL     OW79758   9.389   8.649   3.971  0.5802 -0.1611  0.1381
57932SOL    HW179759   9.295   8.638   3.958  0.1079  3.3917 -0.5403
57932SOL    HW279760   9.397   8.680   4.062  0.9100  0.7434 -0.1858
57933SOL     OW79761   0.410   2.799   3.767 -0.7233 -0.4139  0.6997
57933SOL    HW179762   0.342   2.853   3.807  0.3428  2.1559 -0.7304
57933SOL    HW279763   0.483   2.802   3.828 -1.1717 -1.5381  1.3153
57934SOL     OW79764  11.449  10.722   3.840 -0.0787  0.1358  0.4995
57934SOL    HW179765  11.386  10.760   3.901 -0.2164 -1.7229  1.6160
57934SOL    HW279766  11.534  10.740   3.879 -0.0291  0.7545  0.1240
57935SOL     OW79767  11.602   7.364   7.145 -0.3311  0.3104  0.1500
57935SOL    HW179768  11.671   7.399   7.202 -0.5004  1.0985 -0.1166
57935SOL    HW279769  11.525   7.418   7.165 -0.8683 -0.5246  0.4050
57936SOL     OW79770   0.806   4.409   2.221  0.0507 -0.3943  0.1981
57936SOL    HW179771   0.864   4.360   2.279  0.9578  1.0451  0.5436
57936SOL    HW279772   0.784   4.488   2.270 -1.0261 -0.2235 -0.5207
57937SOL     OW79773   7.223  10.315  12.436 -0.0301  0.1441 -0.3366
57937SOL    HW179774   7.300  10.262  12.415 -1.0627 -1.7340  0.3039
57937SOL    HW279775   7.180  10.329  12.352 -0.5716 -1.4852 -0.3799
57938SOL     OW79776   7.655   4.105   0.151 -0.7326 -0.4217  0.0736
57938SOL    HW179777   7.620   4.032   0.101  0.5769 -0.5198 -0.7399
57938SOL    HW279778   7.607   4.182   0.119 -2.2630 -0.9129  1.0820
57939SOL     OW79779  11.632  10.177  10.789 -0.0604  0.0536  0.3285
57939SOL    HW179780  11.715  10.203  10.749  1.3933  0.0614  3.1123
57939SOL    HW279781  11.648  10.088  10.820 -1.2236 -0.0746  0.5921
57940SOL     OW79782   6.328   0.931   9.197  0.0277 -0.3834 -0.0112
57940SOL    HW179783   6.410   0.918   9.246  0.8654  0.4020 -1.1497
57940SOL    HW279784   6.297   1.017   9.225  0.8093  0.3234 -1.2218
57941SOL     OW79785   4.213   7.636   2.757  0.3802 -0.2243 -0.5336
57941SOL    HW179786   4.121   7.611   2.743 -0.4321  0.7993  2.1939
57941SOL    HW279787   4.229   7.707   2.695 -0.7827 -0.2102 -0.8433
57942SOL     OW79788   7.592   4.770   0.111 -0.4016  0.0777 -0.1060
57942SOL    HW179789   7.677   4.794   0.148 -1.5472  1.7642  1.6922
57942SOL    HW279790   7.574   4.838   0.046 -1.0779  0.7868  0.7783
57943SOL     OW79791   7.856   1.481   1.860  0.3951  0.3920 -0.2160
57943SOL    HW179792   7.926   1.543   1.839 -0.5747  1.3389 -0.7553
57943SOL    HW279793   7.900   1.396   1.862  1.5415  0.9445 -0.6585
57944SOL     OW79794   1.157   2.110  10.761  0.1595 -0.6381 -0.1362
57944SOL    HW179795   1.178   2.203  10.753  0.2330 -0.6833 -0.4666
57944SOL    HW279796   1.069   2.101  10.725  0.7298 -0.9425 -1.4973
57945SOL     OW79797  11.986   6.194   3.282 -0.4889 -0.0659 -0.2037
57945SOL    HW179798  12.035   6.132   3.228 -1.5916 -1.5859  0.4712
57945SOL    HW279799  12.047   6.267   3.295  1.8911 -2.0937  1.0867
57946SOL     OW79800  10.753   0.308   3.832 -0.2966 -0.1455  0.3575
57946SOL    HW179801  10.707   0.390   3.849  0.3163  0.2788  0.0051
57946SOL    HW279802  10.809   0.296   3.909 -0.8895 -0.5968  0.7281
57947SOL     OW79803   8.304   2.669   8.443 -0.3092  0.5773  0.3219
57947SOL    HW179804   8.335   2.757   8.419 -0.1854  0.2286 -0.8477
57947SOL    HW279805   8.381   2.613   8.433 -0.2475  0.4040  1.5842
57948SOL     OW79806   3.111   4.531  11.996  0.0581  0.1117 -0.0725
57948SOL    HW179807   3.082   4.463  11.934 -1.2246 -0.6491  1.2971
57948SOL    HW279808   3.188   4.494  12.038 -2.0996 -1.8051  2.5706
57949SOL     OW79809   6.826   3.493   2.389  0.1192  0.3466  0.8521
57949SOL    HW179810   6.900   3.442   2.355  0.3383  1.3295 -0.2035
57949SOL    HW279811   6.865   3.575   2.419 -0.5706  1.0223 -0.0424
57950SOL     OW79812   8.552  10.203   3.569  0.4298  0.0918  0.5664
57950SOL    HW179813   8.504  10.261   3.510 -0.5909  0.0594  1.3458
57950SOL    HW279814   8.634  10.250   3.587  0.4129  0.4466 -0.2656
57951SOL     OW79815   4.981   4.954  12.119 -0.2781  0.0093  0.3182
57951SOL    HW179816   4.942   4.952  12.031 -0.6825 -1.0972  0.5121
57951SOL    HW279817   5.074   4.943  12.104 -0.3953 -0.6525  0.0460
57952SOL     OW79818   1.486   0.138   8.251 -0.1717 -0.1577 -0.1909
57952SOL    HW179819   1.478   0.126   8.346  1.7064  1.0109  0.1687
57952SOL    HW279820   1.452   0.057   8.214  1.0741 -1.5787  1.5671
57953SOL     OW79821   8.849   3.259   2.081  0.0569  0.0175  0.2013
57953SOL    HW179822   8.817   3.202   2.151  0.8408  0.2972  0.8024
57953SOL    HW279823   8.813   3.345   2.101  1.6425  0.4842  1.2541
57954SOL     OW79824  11.935   4.086   0.554  0.0102 -0.1881 -0.3687
57954SOL    HW179825  11.868   4.019   0.557  0.3268 -0.4788  0.7474
57954SOL    HW279826  11.912   4.147   0.624  1.5580 -0.9573  0.8710
57955SOL     OW79827  10.573   2.114   7.820  0.1325 -0.3770  0.1027
57955SOL    HW179828  10.580   2.099   7.914  0.8770  0.6005  0.2206
57955SOL    HW279829  10.652   2.163   7.798  1.0058 -2.3494 -1.4106
57956SOL     OW79830   0.972   9.195  10.789  0.3256 -0.3677  0.3272
57956SOL    HW179831   1.025   9.127  10.831 -0.1003 -1.5721 -1.0029
57956SOL    HW279832   0.938   9.247  10.861  2.3790 -0.2332  1.2839
57957SOL     OW79833   3.038   4.372   2.282 -0.1400  0.9841 -0.0748
57957SOL    HW179834   3.069   4.390   2.370 -0.3898 -3.4975  1.1742
57957SOL    HW279835   3.100   4.308   2.247 -3.1904 -1.9197 -0.6966
57958SOL     OW79836   6.406   2.361  11.824 -0.3645  0.2327  0.0447
57958SOL    HW179837   6.450   2.300  11.882  0.2088  0.8577  0.2860
57958SOL    HW279838   6.326   2.386  11.871 -1.0803 -1.0186 -0.4597
57959SOL     OW79839   7.188   2.687   2.746 -0.4243  0.2633 -0.2217
57959SOL    HW179840   7.267   2.633   2.741 -0.6816 -0.0020 -2.5781
57959SOL    HW279841   7.211   2.767   2.697 -2.2245 -0.7586 -2.9724
57960SOL     OW79842   0.400   9.164   8.961  0.0409 -0.0731 -0.3397
57960SOL    HW179843   0.415   9.084   8.910  0.1875  0.9728 -2.0220
57960SOL    HW279844   0.459   9.156   9.036 -1.5386 -2.5341  0.7817
57961SOL     OW79845   7.418   1.735   3.877 -0.1158 -0.2384  0.0800
57961SOL    HW179846   7.485   1.774   3.820  0.7516 -1.6193  0.1066
57961SOL    HW279847   7.448   1.645   3.892 -1.2632 -0.4649  1.2510
57962SOL     OW79848   3.209  10.522   3.837  0.4449 -0.1676 -0.0603
57962SOL    HW179849   3.282  10.478   3.880  0.5802  0.3809  0.2795
57962SOL    HW279850   3.232  10.615   3.839 -0.4606  0.0603  0.4404
57963SOL     OW79851   9.467  10.778   2.899  0.0435 -0.6675  0.2927
57963SOL    HW179852   9.516  10.724   2.837 -0.6818 -0.7180 -0.2424
57963SOL    HW279853   9.519  10.859   2.907  0.0634 -0.5978 -0.4946
57964SOL     OW79854   0.831   4.244   9.531 -0.2220  0.3313 -0.4143
57964SOL    HW179855   0.788   4.159   9.519  0.3333  0.0172 -0.2145
57964SOL    HW279856   0.774   4.293   9.590  0.7512 -0.8837  1.6391
57965SOL     OW79857  11.153  11.427   0.377  0.4087 -0.1386 -0.4205
57965SOL    HW179858  11.093  11.485   0.424  0.0981 -0.4269 -0.4586
57965SOL    HW279859  11.103  11.347   0.362  0.5644 -0.1233 -1.0790
57966SOL     OW79860   7.010   6.754   3.685  0.3346  0.3302 -0.0949
57966SOL    HW179861   7.043   6.682   3.631  1.2903 -0.9064  2.0221
57966SOL    HW279862   7.086   6.808   3.703 -0.3037  1.7019 -1.3227
57967SOL     OW79863   2.136   9.070  11.641 -0.0115  0.1646  0.1046
57967SOL    HW179864   2.043   9.091  11.634 -0.3179 -1.2768 -0.5201
57967SOL    HW279865   2.140   9.003  11.709  0.2363 -1.4707 -1.4503
57968SOL     OW79866  11.407   5.960   0.629  0.0070  0.1658  0.0016
57968SOL    HW179867  11.458   5.994   0.556  1.0629  1.5217  1.2888
57968SOL    HW279868  11.320   5.944   0.594  0.8386 -0.5249 -1.8527
57969SOL     OW79869   3.583   1.828   7.674 -0.1035  0.2522 -0.4405
57969SOL    HW179870   3.674   1.805   7.694 -0.2270  1.2175  1.4553
57969SOL    HW279871   3.547   1.749   7.635  1.3296 -0.4061 -0.5205
57970SOL     OW79872   7.482   2.150   0.700  0.6468 -0.3530  0.4081
57970SOL    HW179873   7.502   2.223   0.642 -1.4702 -0.7843 -0.9823
57970SOL    HW279874   7.520   2.073   0.656 -0.7992 -0.6527 -0.3882
57971SOL     OW79875   4.631   7.589   1.612  0.1231  0.2230  0.3852
57971SOL    HW179876   4.572   7.611   1.539 -0.2480  1.7162  1.0979
57971SOL    HW279877   4.718   7.616   1.582  0.1372 -0.0988  0.1233
57972SOL     OW79878   7.155   0.305   7.877  0.4921 -0.1532  0.3522
57972SOL    HW179879   7.097   0.230   7.888 -1.4755  1.1356 -0.6908
57972SOL    HW279880   7.137   0.361   7.953 -0.2569  0.6329 -0.3922
57973SOL     OW79881   5.058  11.727   3.427 -0.0781  0.1348  0.6139
57973SOL    HW179882   5.099  11.746   3.343  0.7966  0.9281  1.2014
57973SOL    HW279883   5.112  11.773   3.492 -2.1544  1.7274  1.3786
57974SOL     OW79884   6.171   6.332   0.003  0.4275 -0.6340  0.4097
57974SOL    HW179885   6.169   6.249  -0.046  1.2181  0.1860 -1.0795
57974SOL    HW279886   6.129   6.395  -0.056 -0.4754 -0.0235  1.6668
57975SOL     OW79887  11.650   9.379   4.115 -0.4342  0.0032  0.1712
57975SOL    HW179888  11.651   9.399   4.022 -0.5412  1.4922  0.4752
57975SOL    HW279889  11.604   9.452   4.155 -0.0745 -0.4431  1.4438
57976SOL     OW79890   5.310   2.114   5.501 -0.6326 -0.0074  0.1934
57976SOL    HW179891   5.377   2.123   5.433 -1.2357 -0.1121 -0.4298
57976SOL    HW279892   5.359   2.116   5.583  0.1262 -0.0211 -0.2458
57977SOL     OW79893   5.712   1.156   9.675 -0.0428 -0.0071 -0.0378
57977SOL    HW179894   5.651   1.222   9.707  0.3554  1.7287 -2.5463
57977SOL    HW279895   5.798   1.189   9.698  0.1042 -1.4469  1.7073
57978SOL     OW79896   1.395   1.667   0.598 -0.5092  0.6777  0.2352
57978SOL    HW179897   1.461   1.599   0.613 -0.6766  0.7585  1.3988
57978SOL    HW279898   1.356   1.643   0.514  0.0873 -0.1195  0.1676
57979SOL     OW79899   7.837   9.865   6.768 -0.3460  0.4637  0.3524
57979SOL    HW179900   7.765   9.872   6.705 -1.4278 -1.3959  1.2750
57979SOL    HW279901   7.915   9.891   6.719 -1.3624  0.5717 -1.2776
57980SOL     OW79902   1.993   7.216  11.479 -0.7511  0.6027  0.6133
57980SOL    HW179903   2.025   7.221  11.569  2.3430  1.1780 -0.4317
57980SOL    HW279904   1.954   7.302  11.463  0.6789  1.3032  0.7504
57981SOL     OW79905   0.133  12.033   7.115 -0.3463  0.0358  0.0470
57981SOL    HW179906   0.078  11.964   7.152 -1.9699  0.8284 -0.7574
57981SOL    HW279907   0.149  12.004   7.025  1.8642 -0.8947  0.6702
57982SOL     OW79908   5.536   7.277   7.743 -0.5902 -0.2314 -0.4129
57982SOL    HW179909   5.564   7.213   7.809 -0.8514  0.8039  0.7356
57982SOL    HW279910   5.446   7.253   7.723 -0.5611 -0.4579 -0.2736
57983SOL     OW79911   1.762   2.634   6.885  0.4803 -0.0639  0.0325
57983SOL    HW179912   1.778   2.724   6.858  0.4115 -0.0184  0.1415
57983SOL    HW279913   1.690   2.604   6.829  2.2212 -0.9240 -1.8524
57984SOL     OW79914   5.331   2.905   7.653  0.5182  0.2022  0.3031
57984SOL    HW179915   5.376   2.911   7.568 -2.3507  0.1088 -1.3295
57984SOL    HW279916   5.365   2.824   7.692  2.1822  0.4472 -0.5438
57985SOL     OW79917   0.954   7.561   6.455 -0.4075  0.4329  0.4675
57985SOL    HW179918   1.008   7.607   6.390  0.4149  0.6521  1.2963
57985SOL    HW279919   0.974   7.604   6.538 -1.3873  0.0921  0.8925
57986SOL     OW79920   7.026   5.074   0.922 -0.2443 -0.0268 -0.2502
57986SOL    HW179921   6.973   5.064   1.001 -0.9025 -3.1680 -0.9791
57986SOL    HW279922   7.094   5.008   0.929  0.8943  0.9686 -1.4171
57987SOL     OW79923  11.929   7.170   7.875  0.3994  0.3542  0.6582
57987SOL    HW179924  11.856   7.152   7.934  1.3573 -0.2966  1.6947
57987SOL    HW279925  11.888   7.203   7.796 -0.9875  0.4898  1.3921
57988SOL     OW79926   3.992   9.796   4.025 -0.0187  0.0619 -0.0826
57988SOL    HW179927   3.935   9.787   3.948 -1.1698 -0.3707  0.7838
57988SOL    HW279928   4.055   9.864   4.000  0.4343 -0.9566 -1.8592
57989SOL     OW79929   0.665   1.219   9.001 -0.6302 -0.0329  0.1337
57989SOL    HW179930   0.733   1.151   8.994 -0.4096  0.3193 -1.8006
57989SOL    HW279931   0.687   1.281   8.932 -1.9811  0.9758  0.5809
57990SOL     OW79932  12.075   9.542  10.842  0.3318  0.3443 -0.0381
57990SOL    HW179933  12.054   9.492  10.920 -2.6220  0.9276 -0.3594
57990SOL    HW279934  12.060   9.633  10.867  0.2537  0.6139 -1.0299
57991SOL     OW79935   7.754   8.844   9.908  0.2738  0.1554  0.3942
57991SOL    HW179936   7.669   8.800   9.911 -0.5274  1.6715  0.4023
57991SOL    HW279937   7.807   8.788   9.851 -0.3122 -1.4753  1.3809
57992SOL     OW79938   0.580   3.021   1.682 -0.4833  0.0297 -0.0161
57992SOL    HW179939   0.674   3.039   1.685 -0.3859 -0.0806 -1.5119
57992SOL    HW279940   0.574   2.932   1.646 -1.1720  0.8412 -2.0565
57993SOL     OW79941   8.642   9.819   1.631 -0.4255  0.0139 -0.2342
57993SOL    HW179942   8.728   9.779   1.650 -0.5255  0.0249  0.2691
57993SOL    HW279943   8.663   9.902   1.589 -0.0991  1.0249  1.7615
57994SOL     OW79944   3.617  11.103  10.602 -0.1394 -0.1081 -0.3320
57994SOL    HW179945   3.656  11.172  10.549 -0.9711 -0.0927 -0.9397
57994SOL    HW279946   3.538  11.143  10.639  1.4934  0.6115  2.7308
57995SOL     OW79947   7.655   1.344   3.200  0.1519 -0.1948  0.3550
57995SOL    HW179948   7.742   1.368   3.167 -0.2277  0.5009 -0.1315
57995SOL    HW279949   7.594   1.397   3.150 -0.4238  1.1841  2.4011
57996SOL     OW79950   9.917  11.341   2.280  0.8406 -0.2038 -0.3428
57996SOL    HW179951   9.912  11.375   2.369  0.6552  0.3903 -0.5739
57996SOL    HW279952   9.834  11.294   2.268  0.5891  0.2497 -0.4114
57997SOL     OW79953   3.693  10.856   5.258  0.0099 -0.0142 -0.0250
57997SOL    HW179954   3.718  10.883   5.170  1.4289  1.3206  0.7355
57997SOL    HW279955   3.608  10.813   5.247  0.9463 -1.4648 -2.2583
57998SOL     OW79956   8.324   7.981  11.930  0.5837 -0.5064  0.0986
57998SOL    HW179957   8.357   7.911  11.987  1.9651 -1.0366 -1.2878
57998SOL    HW279958   8.398   8.005  11.875 -1.0964 -1.3709 -2.8153
57999SOL     OW79959   1.343   2.860   2.681 -0.2800 -0.0392  0.1089
57999SOL    HW179960   1.295   2.879   2.761 -1.5240 -1.4040 -0.2614
57999SOL    HW279961   1.435   2.861   2.707 -0.4235  2.7443  0.8227
58000SOL     OW79962  10.721   7.107   8.008  0.1414  0.6316  0.0185
58000SOL    HW179963  10.777   7.113   8.086 -1.3685  0.9018  1.1239
58000SOL    HW279964  10.649   7.167   8.025  0.3739  1.6067 -2.1501
58001SOL     OW79965   5.086   0.770  10.524 -0.3382 -0.1721 -0.4439
58001SOL    HW179966   5.017   0.818  10.570  0.3062  1.1837 -0.8627
58001SOL    HW279967   5.038   0.710  10.467 -1.3301  2.6766 -2.8395
58002SOL     OW79968   4.543  10.635   4.541  0.0867  0.2645 -0.1889
58002SOL    HW179969   4.568  10.704   4.479  1.1112 -1.3548 -1.7112
58002SOL    HW279970   4.594  10.559   4.513 -1.3373 -1.2554  1.1058
58003SOL     OW79971   9.102  11.062   7.202 -0.2704  0.2685 -0.5863
58003SOL    HW179972   9.049  11.003   7.256 -1.7851  1.5928 -0.5311
58003SOL    HW279973   9.166  11.099   7.263  1.1535 -1.7796 -0.7721
58004SOL     OW79974  12.356   1.251   9.825  0.3028  0.2690 -0.1057
58004SOL    HW179975  12.391   1.184   9.883  1.3934  0.4293 -0.5539
58004SOL    HW279976  12.391   1.333   9.859  1.6576  0.2889 -1.4501
58005SOL     OW79977   1.071   8.961   4.683  0.0743 -0.8604 -0.2026
58005SOL    HW179978   1.085   8.930   4.593 -0.3833 -1.1858 -0.1653
58005SOL    HW279979   1.132   8.909   4.736  1.0154 -0.0202 -0.4312
58006SOL     OW79980   3.866   9.235   2.826  0.8133  1.2204  0.2746
58006SOL    HW179981   3.857   9.316   2.775  0.9300  0.9243 -0.2311
58006SOL    HW279982   3.933   9.256   2.891  0.3007  1.7648  0.6362
58007SOL     OW79983   6.015   4.450   7.622  0.8450  0.1218 -0.5616
58007SOL    HW179984   6.029   4.485   7.710  0.1810 -0.7574 -0.0909
58007SOL    HW279985   6.072   4.374   7.616  0.9172  0.1993 -0.9060
58008SOL     OW79986  10.701   2.634   6.271  0.0577 -0.2317 -0.3921
58008SOL    HW179987  10.740   2.710   6.227 -0.6373  0.5019  0.2375
58008SOL    HW279988  10.776   2.579   6.293  0.6090  0.4420 -0.5448
58009SOL     OW79989  10.346  11.957   1.531 -0.3698  0.7321  0.4253
58009SOL    HW179990  10.429  11.996   1.502 -0.0541 -0.7133 -0.7639
58009SOL    HW279991  10.369  11.913   1.613 -0.1920  1.1343  0.5962
58010SOL     OW79992  11.862   2.747   0.548 -0.3502  0.5759 -0.0417
58010SOL    HW179993  11.766   2.745   0.544 -0.4855  2.7867  0.7538
58010SOL    HW279994  11.887   2.808   0.478  0.4428  0.4224  0.1085
58011SOL     OW79995  11.282   3.704  12.118 -0.2773 -0.2484  0.5062
58011SOL    HW179996  11.220   3.634  12.097  0.7394 -1.1155  0.2726
58011SOL    HW279997  11.280   3.762  12.042 -0.6642 -0.3622  0.4261
58012SOL     OW79998  11.486   3.680   1.702  0.2118 -0.0109  0.5780
58012SOL    HW179999  11.505   3.724   1.785 -0.2992  0.5935  0.3815
58012SOL    HW280000  11.469   3.752   1.641  1.2011 -0.4275 -0.2062
58013SOL     OW80001   8.512   5.729  10.146  0.4847 -0.0329 -0.4014
58013SOL    HW180002   8.530   5.793  10.216  0.6181 -1.9499  1.4128
58013SOL    HW280003   8.418   5.737  10.130  0.7667  1.7252 -1.3856
58014SOL     OW80004   6.786  11.137  11.564  0.1457  0.9205 -0.2704
58014SOL    HW180005   6.714  11.150  11.502  0.2699  1.9341 -0.2235
58014SOL    HW280006   6.778  11.046  11.592 -1.0892  1.0084 -0.2969
58015SOL     OW80007   3.209   8.054   8.903 -0.7342  0.7965  0.2406
58015SOL    HW180008   3.131   8.023   8.857  0.5623 -1.4828 -0.5937
58015SOL    HW280009   3.206   8.009   8.988  0.2268 -0.2889 -0.2641
58016SOL     OW80010   3.316   3.903  11.428  0.1751 -0.6184  0.0681
58016SOL    HW180011   3.402   3.940  11.409 -0.3771  0.3599 -0.6470
58016SOL    HW280012   3.332   3.836  11.495  1.5154 -0.6369 -0.2451
58017SOL     OW80013   7.405   5.743   0.635 -0.3424  0.1481 -0.1690
58017SOL    HW180014   7.365   5.662   0.604  0.6425 -0.2141 -0.5462
58017SOL    HW280015   7.478   5.714   0.691 -1.3799  0.7879  1.6028
58018SOL     OW80016  11.472   3.400   3.333 -0.0083  0.0271 -0.0890
58018SOL    HW180017  11.425   3.317   3.338  1.3126 -0.9215 -2.0306
58018SOL    HW280018  11.409   3.462   3.297 -0.6514 -0.4101  0.2561
58019SOL     OW80019   0.082   9.750  11.557  0.5990 -0.2791 -0.1136
58019SOL    HW180020   0.058   9.793  11.475  1.7047 -0.4540 -0.5481
58019SOL    HW280021   0.034   9.668  11.556 -1.1647  0.6874  0.5016
58020SOL     OW80022   2.438   2.323   9.560 -0.3345  0.2539 -0.0568
58020SOL    HW180023   2.423   2.269   9.482 -1.0637  1.3718 -0.7216
58020SOL    HW280024   2.458   2.260   9.629  0.3322 -0.7770 -1.1301
58021SOL     OW80025  11.329   9.397   1.332  0.3816 -0.7049  0.0745
58021SOL    HW180026  11.239   9.422   1.349  1.2064  1.8213  1.1838
58021SOL    HW280027  11.332   9.377   1.239 -1.2624 -0.6261 -0.0172
58022SOL     OW80028  11.986   3.918  12.013  0.1200 -0.0024  1.1363
58022SOL    HW180029  12.043   3.845  12.038  0.0427 -0.0944  1.0449
58022SOL    HW280030  12.031   3.995  12.046  0.6959 -0.0033  0.3880
58023SOL     OW80031  11.814   8.937   8.183 -0.2174  0.5355  0.1199
58023SOL    HW180032  11.847   9.011   8.234 -0.6400 -0.3321  1.7272
58023SOL    HW280033  11.838   8.860   8.235 -0.6742 -0.3956 -1.0119
58024SOL     OW80034   1.968  10.187   9.531 -0.1892 -0.1078 -0.4397
58024SOL    HW180035   2.034  10.167   9.466  2.3405  0.3871  1.7974
58024SOL    HW280036   1.970  10.283   9.539  3.0649 -0.2358  3.4646
58025SOL     OW80037   1.509  11.452   0.627  0.5190 -0.0095 -0.1490
58025SOL    HW180038   1.588  11.457   0.575  0.9205 -1.6481  0.2601
58025SOL    HW280039   1.532  11.496   0.710  0.6315  0.4848 -0.4373
58026SOL     OW80040  11.407   8.903   4.839  0.2969  0.4722 -0.7417
58026SOL    HW180041  11.412   8.835   4.773 -0.3105  0.5538 -0.8783
58026SOL    HW280042  11.332   8.956   4.813  0.3034  0.7468 -0.2160
58027SOL     OW80043   1.935   8.381   2.288  0.0844 -0.0146  0.1686
58027SOL    HW180044   1.990   8.326   2.232  0.8449  0.2178  0.6741
58027SOL    HW280045   1.855   8.395   2.236  0.8008  0.2661 -0.9003
58028SOL     OW80046   9.208  11.972   2.702  0.0512  0.2275  0.6724
58028SOL    HW180047   9.183  12.063   2.688  2.1062  0.7570  0.0673
58028SOL    HW280048   9.176  11.926   2.624  2.0813  1.1590 -0.8067
58029SOL     OW80049   0.484   7.573   9.661  0.4578 -0.2942 -0.6206
58029SOL    HW180050   0.533   7.625   9.724 -0.3151  0.0390 -0.2858
58029SOL    HW280051   0.420   7.634   9.624 -0.1466 -0.8830 -0.5641
58030SOL     OW80052  12.176  12.048   2.352  0.1017  0.1674 -0.2444
58030SOL    HW180053  12.166  12.140   2.327 -1.2688 -0.1096 -0.7409
58030SOL    HW280054  12.095  12.006   2.325  0.9380 -1.3201 -0.5270
58031SOL     OW80055  11.862   8.401   7.621  0.3261  0.0676 -0.2035
58031SOL    HW180056  11.934   8.374   7.565  0.5153  1.4579 -0.6827
58031SOL    HW280057  11.904   8.433   7.700  0.0481 -2.0926  0.8851
58032SOL     OW80058   8.436   1.922   5.239  0.1703 -0.3235  0.5973
58032SOL    HW180059   8.501   1.991   5.233  1.7377 -1.7570  0.4368
58032SOL    HW280060   8.407   1.907   5.149  0.1173 -0.1467  0.5856
58033SOL     OW80061  11.946   6.954   1.528  0.2990  0.1194 -0.1815
58033SOL    HW180062  11.986   6.909   1.602  1.1629  0.9056 -0.1552
58033SOL    HW280063  11.875   7.005   1.567  0.5801  0.3244  0.0617
58034SOL     OW80064  10.979   9.585   1.985 -0.0940  0.1767  0.0531
58034SOL    HW180065  10.989   9.576   2.080 -0.5923 -0.0011  0.0925
58034SOL    HW280066  11.048   9.645   1.959 -0.8785  1.4160  0.7465
58035SOL     OW80067  12.206   2.420   6.643  0.6508  0.0359  0.2642
58035SOL    HW180068  12.158   2.383   6.718  1.0171 -2.0647 -0.4676
58035SOL    HW280069  12.256   2.346   6.608  0.8589  1.0812 -1.7794
58036SOL     OW80070   8.184   7.803   8.367  0.0895 -0.2665 -0.1288
58036SOL    HW180071   8.239   7.738   8.411  0.9265 -0.1867 -1.0391
58036SOL    HW280072   8.220   7.810   8.279 -1.2582 -0.0593 -0.6924
58037SOL     OW80073   4.511   4.731   1.849 -0.0683  0.0204 -0.2321
58037SOL    HW180074   4.496   4.645   1.808  0.3048  0.4833 -1.3695
58037SOL    HW280075   4.566   4.712   1.925 -0.2606 -0.7901 -0.2880
58038SOL     OW80076   3.862   8.518   2.263  0.0878 -0.1417  0.5313
58038SOL    HW180077   3.841   8.490   2.352 -0.9542  0.8396  0.6283
58038SOL    HW280078   3.817   8.455   2.206 -0.8428  0.3265  0.7305
58039SOL     OW80079   6.175   4.227  11.574 -0.1726  0.3049  0.1412
58039SOL    HW180080   6.196   4.140  11.538 -0.1247  0.3000  0.1815
58039SOL    HW280081   6.257   4.257  11.612 -0.3420  0.1095  0.6673
58040SOL     OW80082   7.091   7.241   1.438  0.0474 -0.4832 -0.1603
58040SOL    HW180083   7.022   7.262   1.502  0.4260 -0.5040  0.2622
58040SOL    HW280084   7.080   7.148   1.420 -0.1234 -0.4553 -0.2032
58041SOL     OW80085   9.539   8.918   9.245  0.0384 -0.5899  0.2590
58041SOL    HW180086   9.532   9.009   9.272 -1.8428 -0.8954  0.9474
58041SOL    HW280087   9.592   8.920   9.165 -0.7900  1.2179 -0.2890
58042SOL     OW80088   5.748   9.465  12.303  0.7801 -0.2010  0.3064
58042SOL    HW180089   5.806   9.464  12.379  1.9363 -1.2104 -0.5399
58042SOL    HW280090   5.678   9.404  12.325  0.7384  0.0373  0.8328
58043SOL     OW80091   2.654   3.430   8.243  0.4764 -0.1189  0.1336
58043SOL    HW180092   2.566   3.397   8.258  0.3661  0.3353  0.5161
58043SOL    HW280093   2.672   3.485   8.319  1.3218 -0.6878  0.3620
58044SOL     OW80094  10.733  11.180  10.679  0.4637 -0.4390  0.2883
58044SOL    HW180095  10.809  11.237  10.669  0.6222 -0.9339 -1.8280
58044SOL    HW280096  10.758  11.119  10.748  2.2626 -0.9159 -0.7013
58045SOL     OW80097   1.431   0.819   5.088  0.1056 -0.5537  0.2486
58045SOL    HW180098   1.504   0.813   5.027  0.6895 -1.3913  1.0088
58045SOL    HW280099   1.355   0.790   5.037  0.4715 -0.6127 -0.2672
58046SOL     OW80100   9.924  11.956   4.962  0.1558  0.0614 -0.5058
58046SOL    HW180101   9.850  12.016   4.970  0.6723  0.9939 -2.3320
58046SOL    HW280102  10.000  12.013   4.949  1.3691 -0.8315  1.9968
58047SOL     OW80103   7.666   7.450   8.022 -0.1960  0.0499  0.3099
58047SOL    HW180104   7.583   7.488   8.051 -0.7481 -0.5913 -0.3900
58047SOL    HW280105   7.653   7.355   8.031  0.3969 -0.0636  0.0214
58048SOL     OW80106  10.318   6.304   2.630 -0.0798  0.5645 -0.2342
58048SOL    HW180107  10.397   6.255   2.652  1.5101  3.6645  1.7378
58048SOL    HW280108  10.253   6.275   2.694 -0.2086 -1.0928 -1.0640
58049SOL     OW80109   1.187   1.064   8.207 -0.1680 -0.1195  0.7647
58049SOL    HW180110   1.116   1.060   8.143 -0.5457 -3.5143  1.2044
58049SOL    HW280111   1.145   1.088   8.289 -0.3774  0.2527  0.5509
58050SOL     OW80112   3.705   3.742  12.072 -0.3303  0.6299 -0.2091
58050SOL    HW180113   3.721   3.825  12.117  0.3573  0.8322 -0.7949
58050SOL    HW280114   3.688   3.679  12.142 -0.9591  1.2810  0.2376
58051SOL     OW80115   6.657   6.658   8.333 -0.0125 -0.2331  0.4487
58051SOL    HW180116   6.583   6.710   8.364  1.0338  0.3693  1.9760
58051SOL    HW280117   6.694   6.618   8.411  1.1330 -0.7542 -0.3257
58052SOL     OW80118   3.775   3.828   7.865 -0.6389 -0.6826  0.0544
58052SOL    HW180119   3.807   3.751   7.911 -0.1955 -0.5132  0.0337
58052SOL    HW280120   3.695   3.854   7.913  0.5627  0.3240  1.6181
58053SOL     OW80121   4.901   3.336   7.760  0.0962 -0.5175 -0.2008
58053SOL    HW180122   4.929   3.250   7.792 -0.6860 -0.8473 -0.3881
58053SOL    HW280123   4.903   3.329   7.665  0.9234 -0.0259 -0.2313
58054SOL     OW80124   7.629  10.997   0.644 -0.2935  0.1713  0.0586
58054SOL    HW180125   7.647  11.029   0.556  1.8471 -1.4553 -0.1727
58054SOL    HW280126   7.695  11.038   0.699 -0.8847  0.2692  0.7187
58055SOL     OW80127   2.670   3.304   6.766  0.7059  0.9975  0.4513
58055SOL    HW180128   2.604   3.346   6.821 -0.0915  1.2114 -0.6349
58055SOL    HW280129   2.714   3.243   6.824  0.2526  1.5952  1.4578
58056SOL     OW80130   5.321   7.646   0.594 -0.1113 -0.3309 -0.2550
58056SOL    HW180131   5.319   7.595   0.676 -0.1723 -0.8385 -0.5684
58056SOL    HW280132   5.381   7.718   0.612  1.0800 -1.2932 -0.2546
58057SOL     OW80133   5.612   9.914   5.822  0.1033  0.8766  0.6988
58057SOL    HW180134   5.613   9.884   5.913  0.3086  0.8076  0.6733
58057SOL    HW280135   5.647   9.841   5.772  2.4130  1.7967  0.8327
58058SOL     OW80136   1.223   8.238  11.178 -0.1585 -0.3872  0.2504
58058SOL    HW180137   1.303   8.289  11.170 -0.0882 -0.7102 -1.8152
58058SOL    HW280138   1.182   8.269  11.258  1.7295  0.2007  1.0519
58059SOL     OW80139   1.576   7.477   5.152 -0.1435 -0.1562 -0.1600
58059SOL    HW180140   1.614   7.391   5.140 -0.4840 -0.0925 -2.1430
58059SOL    HW280141   1.650   7.537   5.154  0.0624 -0.4271  0.6724
58060SOL     OW80142   2.675   5.916   8.561  0.3397  0.1754 -0.5946
58060SOL    HW180143   2.706   5.917   8.651  0.3500  2.8039 -0.5492
58060SOL    HW280144   2.710   5.835   8.524  0.8309 -0.6604  1.5663
58061SOL     OW80145   9.293  10.580  11.784 -0.0041 -0.8713  0.1135
58061SOL    HW180146   9.229  10.551  11.849  0.3054 -0.2239  0.7174
58061SOL    HW280147   9.332  10.659  11.821  2.7973 -2.4503  0.8524
58062SOL     OW80148   8.224   9.727   8.377 -0.2237 -0.9463 -0.5337
58062SOL    HW180149   8.129   9.724   8.366 -0.1820 -2.3749 -0.7933
58062SOL    HW280150   8.244   9.649   8.429  0.7940 -0.5686 -0.3363
58063SOL     OW80151   2.813   1.541   7.949  0.1601 -0.0907 -0.3452
58063SOL    HW180152   2.764   1.524   7.869  1.6413 -0.3816 -1.2182
58063SOL    HW280153   2.810   1.636   7.959  0.3893 -0.0118 -1.0137
58064SOL     OW80154   7.764  10.709   8.286  0.0724  0.2333 -0.3813
58064SOL    HW180155   7.725  10.698   8.372  1.7122 -0.1072  0.3671
58064SOL    HW280156   7.690  10.722   8.227 -0.9985  3.5192  1.4730
58065SOL     OW80157   3.569   9.653   8.362  0.6391  0.2189  0.5625
58065SOL    HW180158   3.490   9.636   8.311  1.0058  3.4407 -1.3373
58065SOL    HW280159   3.641   9.633   8.302  1.2545 -0.6940  1.5710
58066SOL     OW80160   5.366   7.569   9.984  0.0986  0.7237 -0.0615
58066SOL    HW180161   5.277   7.554  10.016  0.3350 -0.4898  0.0543
58066SOL    HW280162   5.375   7.664   9.985 -0.6127  0.8073  1.5419
58067SOL     OW80163   1.050   4.629   8.329 -0.4282 -0.1713 -0.3228
58067SOL    HW180164   1.037   4.653   8.421 -0.4456  0.3310 -0.4519
58067SOL    HW280165   1.079   4.538   8.331 -1.4129 -0.4818  0.1258
58068SOL     OW80166   3.167   6.224   7.193  0.7550 -0.7056 -0.5574
58068SOL    HW180167   3.118   6.165   7.136 -0.0082  0.0903 -0.7489
58068SOL    HW280168   3.259   6.208   7.172  0.5104 -0.9538 -1.4752
58069SOL     OW80169   8.802   0.828   5.024  0.0574 -0.0899  0.6685
58069SOL    HW180170   8.898   0.826   5.015 -0.0955 -1.0200 -1.4276
58069SOL    HW280171   8.783   0.758   5.086  0.6288 -2.0500 -1.2148
58070SOL     OW80172  12.427   5.965   0.846 -0.0006 -0.7272 -0.0760
58070SOL    HW180173  12.482   5.914   0.787 -0.6859 -0.2583 -1.1479
58070SOL    HW280174  12.470   6.051   0.850 -0.4453 -0.4713 -0.6345
58071SOL     OW80175   2.524   1.888   5.528  0.2357  0.0361 -0.3753
58071SOL    HW180176   2.545   1.856   5.616  1.0752 -0.4024 -0.7183
58071SOL    HW280177   2.429   1.875   5.520  0.4642 -2.1061 -0.3570
58072SOL     OW80178   6.827   6.433   3.142 -0.0603 -0.3804  0.1908
58072SOL    HW180179   6.749   6.425   3.088  0.7174 -0.9919 -0.8744
58072SOL    HW280180   6.883   6.496   3.095 -0.0114  0.2556  1.0748
58073SOL     OW80181   2.935   9.987   0.490 -0.0152  0.4069 -0.3484
58073SOL    HW180182   2.934   9.923   0.561  0.1471  0.3278 -0.4173
58073SOL    HW280183   3.024   9.982   0.455 -0.1010  0.4318 -0.5686
58074SOL     OW80184   6.904  12.269   2.411 -0.5171 -0.5773 -0.0203
58074SOL    HW180185   6.874  12.334   2.474 -0.1023  0.8413 -1.2205
58074SOL    HW280186   6.830  12.257   2.351 -0.5415 -1.1276  0.1093
58075SOL     OW80187   0.622   0.068   6.959  0.0676 -0.7716  0.3039
58075SOL    HW180188   0.601   0.002   7.024  0.6813 -1.0264  0.2499
58075SOL    HW280189   0.622   0.151   7.008  0.0428 -0.9008  0.5229
58076SOL     OW80190   8.078   1.984   2.430 -0.2661 -0.2937 -0.7719
58076SOL    HW180191   8.150   2.028   2.476 -0.0081 -0.8897 -0.5964
58076SOL    HW280192   8.010   2.051   2.422  0.4000  0.3505 -1.1534
58077SOL     OW80193   9.338   1.107  11.820  0.3697  0.5263  0.7528
58077SOL    HW180194   9.244   1.115  11.802 -0.0047 -0.1991  2.2399
58077SOL    HW280195   9.377   1.183  11.776 -1.2524  2.3896  2.3075
58078SOL     OW80196  10.937   6.707   3.450  0.0860  0.1429 -0.0566
58078SOL    HW180197  11.014   6.653   3.467  0.3600  0.2950 -0.7800
58078SOL    HW280198  10.925   6.758   3.530  0.0211 -0.7394  0.5118
58079SOL     OW80199   7.059   6.343   3.333  0.1485  0.2531  0.4992
58079SOL    HW180200   7.139   6.322   3.382  0.2770 -1.3858 -0.3686
58079SOL    HW280201   7.084   6.334   3.241 -1.1636 -0.8851  0.2184
58080SOL     OW80202   5.496   8.768   4.122 -0.7576 -0.2552 -0.0518
58080SOL    HW180203   5.406   8.798   4.111 -0.3796  0.8727 -0.2144
58080SOL    HW280204   5.515   8.720   4.041 -1.1136 -0.2504 -0.1409
58081SOL     OW80205   8.395   2.878   3.409  0.2619  0.0413 -0.6077
58081SOL    HW180206   8.459   2.946   3.388  1.2476 -0.5343  0.3793
58081SOL    HW280207   8.421   2.846   3.495 -1.1582 -0.4763 -0.3389
58082SOL     OW80208  10.786   1.653   2.228 -0.0121  0.2355 -0.1426
58082SOL    HW180209  10.775   1.747   2.239  1.1569  0.3929 -0.1898
58082SOL    HW280210  10.706   1.624   2.184 -0.0530  1.3238 -0.8119
58083SOL     OW80211   4.342   5.100   2.709  0.2159 -0.4210 -0.0429
58083SOL    HW180212   4.437   5.092   2.698  0.3104 -1.2172  1.1875
58083SOL    HW280213   4.320   5.038   2.779 -1.1118  0.2345  0.1624
58084SOL     OW80214  10.873   2.451   6.325 -0.0275  0.2863  0.2079
58084SOL    HW180215  10.867   2.373   6.269  1.8003  0.3964 -0.1990
58084SOL    HW280216  10.857   2.417   6.413 -0.8619 -0.2567 -0.1386
58085SOL     OW80217   0.729   1.131   1.753 -0.0542 -0.2449 -0.2562
58085SOL    HW180218   0.687   1.045   1.752 -1.4609  0.3896  0.7123
58085SOL    HW280219   0.787   1.130   1.677  0.5161 -2.3047  0.1445
58086SOL     OW80220  10.997   5.997   2.234 -0.8605 -0.4886 -0.4329
58086SOL    HW180221  10.995   5.904   2.212 -2.3483 -0.6253  0.1208
58086SOL    HW280222  10.912   6.030   2.205 -0.0569  0.8813 -1.3159
58087SOL     OW80223  10.960   1.960   0.239  0.3592  0.2447  0.6591
58087SOL    HW180224  11.030   2.026   0.235  0.6786 -0.0810  0.8178
58087SOL    HW280225  10.979   1.901   0.166  1.7280 -1.2871  2.1713
58088SOL     OW80226  10.702   1.786   9.323  0.1592 -0.0729  0.6877
58088SOL    HW180227  10.785   1.786   9.370  1.3633 -0.5914 -1.2780
58088SOL    HW280228  10.671   1.876   9.327  1.4383  0.3917  0.4895
58089SOL     OW80229   6.737   2.910   4.275 -0.1406  0.1020 -0.0760
58089SOL    HW180230   6.698   2.890   4.189  0.5783  0.1186 -0.4130
58089SOL    HW280231   6.827   2.877   4.269 -0.4987 -1.2445  1.1966
58090SOL     OW80232  10.018   8.799   1.246  0.4936  0.6956  0.1135
58090SOL    HW180233   9.968   8.792   1.327  1.1248  0.5274  0.5042
58090SOL    HW280234  10.075   8.722   1.247 -2.1382 -1.5037 -2.4023
58091SOL     OW80235  12.428   1.950   5.325  0.2020  0.5461 -0.0798
58091SOL    HW180236  12.505   1.896   5.342  0.3990 -0.9393 -4.5503
58091SOL    HW280237  12.354   1.888   5.329 -0.5088  1.4270  1.4767
58092SOL     OW80238   5.246  11.628   1.249  0.5719  0.2647 -0.0050
58092SOL    HW180239   5.339  11.622   1.228  0.1444 -3.4920 -1.6392
58092SOL    HW280240   5.202  11.584   1.176 -2.3829  0.5670  1.4370
58093SOL     OW80241   5.426   6.680   5.723 -0.0315 -0.3843  0.2017
58093SOL    HW180242   5.480   6.608   5.754  2.2366 -0.4321 -3.2700
58093SOL    HW280243   5.454   6.693   5.632 -3.9773  1.5273 -0.9413
58094SOL     OW80244   9.476   5.438   6.382 -0.1957  0.4293  0.9814
58094SOL    HW180245   9.435   5.490   6.313 -0.8904 -0.0269  1.0359
58094SOL    HW280246   9.458   5.486   6.463 -2.8127 -0.9714  1.3270
58095SOL     OW80247   7.381   4.840   1.163  0.1072 -0.1794 -0.3633
58095SOL    HW180248   7.442   4.908   1.135 -2.2655  3.1184  1.6526
58095SOL    HW280249   7.349   4.870   1.248 -1.5077 -3.6520  0.4429
58096SOL     OW80250   9.163   4.783   6.283  0.0041 -0.2935 -0.4551
58096SOL    HW180251   9.079   4.780   6.330 -0.0682  0.7175 -0.4934
58096SOL    HW280252   9.225   4.741   6.342  0.0725  1.6110  0.9311
58097SOL     OW80253   0.387  11.168   5.645 -0.1570 -0.2434  0.6670
58097SOL    HW180254   0.376  11.073   5.641  0.0740 -0.2533  0.1956
58097SOL    HW280255   0.474  11.184   5.608  1.4905 -0.1407  4.1717
58098SOL     OW80256  11.298  12.044   8.688  0.3532 -0.6322  0.3967
58098SOL    HW180257  11.312  12.020   8.596 -0.1479  0.8477 -0.0976
58098SOL    HW280258  11.385  12.065   8.720  0.3430  0.4124 -0.2264
58099SOL     OW80259  10.751   9.930   6.673  0.8369  0.6126  0.6388
58099SOL    HW180260  10.665   9.936   6.631  1.6815 -0.1150 -1.2757
58099SOL    HW280261  10.765  10.017   6.709 -0.0390  1.2169 -0.4029
58100SOL     OW80262   0.144  11.471   5.620  0.7340  0.0653  0.6246
58100SOL    HW180263   0.129  11.524   5.542 -0.6588 -1.2482 -0.0557
58100SOL    HW280264   0.076  11.404   5.617  1.7435 -1.0972  2.0261
58101SOL     OW80265  10.414   8.235   7.668 -0.4327  0.3711 -0.5944
58101SOL    HW180266  10.479   8.235   7.598 -0.4643 -1.3526 -0.6679
58101SOL    HW280267  10.331   8.214   7.623 -0.6671  0.4873 -0.2157
58102SOL     OW80268   4.956  11.642   8.190  0.2874 -0.1034 -0.4631
58102SOL    HW180269   5.031  11.627   8.133  0.0622  1.7020 -1.2996
58102SOL    HW280270   4.987  11.617   8.277  1.7620  0.3033 -0.8384
58103SOL     OW80271  10.553  10.548   0.478  0.3976  0.5675  0.0041
58103SOL    HW180272  10.627  10.496   0.510  0.9417  0.7648 -0.9155
58103SOL    HW280273  10.513  10.584   0.557  0.5608 -0.5043  0.5983
58104SOL     OW80274   9.277   6.510   2.656 -0.2129 -0.3524 -0.2172
58104SOL    HW180275   9.266   6.416   2.668  0.1149 -0.2116  1.2638
58104SOL    HW280276   9.194   6.548   2.685  0.2373 -0.0807  0.7597
58105SOL     OW80277   6.239   7.039   0.562  0.6213  0.5103 -0.8191
58105SOL    HW180278   6.255   7.040   0.468  0.7732  3.3288 -0.8595
58105SOL    HW280279   6.148   7.069   0.572  1.0955  1.7821 -0.0603
58106SOL     OW80280  12.228   2.996   9.182 -0.6615 -0.3250  0.0232
58106SOL    HW180281  12.205   3.011   9.274  0.9163 -0.1955  0.4219
58106SOL    HW280282  12.307   3.048   9.168 -0.0648 -1.4561 -0.9980
58107SOL     OW80283   2.100  10.818  12.287  0.0299  0.5638  0.0012
58107SOL    HW180284   2.105  10.886  12.220 -0.1336  1.0928  0.5221
58107SOL    HW280285   2.130  10.739  12.242  0.7875  1.0900 -0.4574
58108SOL     OW80286   1.714  10.795   6.054 -0.0389  0.1544 -0.2402
58108SOL    HW180287   1.758  10.853   5.990  0.6406 -0.5139 -0.3945
58108SOL    HW280288   1.714  10.709   6.012 -0.7541 -0.0256  0.1243
58109SOL     OW80289   8.479  12.095   7.548  0.1781 -0.1796  0.2622
58109SOL    HW180290   8.471  12.020   7.489 -0.9454  1.0916 -1.2968
58109SOL    HW280291   8.562  12.136   7.522  1.4409 -1.4791  1.9529
58110SOL     OW80292   2.005   5.714   2.367  0.4046  0.2149 -0.5615
58110SOL    HW180293   1.936   5.723   2.433 -0.5194  0.3021 -1.5309
58110SOL    HW280294   1.968   5.657   2.300  0.5616  1.7829 -2.0242
58111SOL     OW80295   5.441   5.078   7.490 -0.0504  0.3355 -0.8319
58111SOL    HW180296   5.389   5.158   7.492  1.0456  1.0918  1.5644
58111SOL    HW280297   5.531   5.107   7.506  0.2130 -1.4162  1.4302
58112SOL     OW80298   9.415   7.704   0.090 -0.3078  0.2322  0.3466
58112SOL    HW180299   9.487   7.738   0.143  0.7729 -0.0280 -0.9008
58112SOL    HW280300   9.414   7.761   0.012  2.2109 -2.9845 -2.3269
58113SOL     OW80301  11.094  11.697   6.922 -0.8126 -0.0670 -1.0110
58113SOL    HW180302  11.101  11.778   6.973  1.4943 -1.3153  0.8612
58113SOL    HW280303  11.064  11.632   6.986  1.3257 -1.5078 -1.3882
58114SOL     OW80304  11.366   4.758   8.182  0.2159  0.3461 -0.0765
58114SOL    HW180305  11.398   4.715   8.261 -0.6036  1.5152  0.9247
58114SOL    HW280306  11.352   4.849   8.208 -1.8617  0.3642 -1.0315
58115SOL     OW80307  10.448  11.077   3.003  0.3101  0.4712  0.3313
58115SOL    HW180308  10.379  11.088   3.068  0.0863 -2.5596  0.7185
58115SOL    HW280309  10.522  11.043   3.052  0.2269 -1.6113 -0.8823
58116SOL     OW80310   4.557   4.815  12.381 -0.2639 -0.1284  0.2071
58116SOL    HW180311   4.628   4.869  12.346 -1.7554  1.3025 -0.7646
58116SOL    HW280312   4.506   4.789  12.304 -1.6596  0.1905  0.9783
58117SOL     OW80313   1.729   1.479  11.508 -0.1325  0.0938  0.4331
58117SOL    HW180314   1.764   1.424  11.578 -0.5875  0.9093  1.3159
58117SOL    HW280315   1.756   1.434  11.427  1.1751 -0.3814  1.0989
58118SOL     OW80316   2.649   7.361   8.182  0.1961  0.2966  0.6480
58118SOL    HW180317   2.664   7.312   8.263  1.0438 -0.5032  0.0299
58118SOL    HW280318   2.602   7.301   8.125  0.3593  0.5459  0.2396
58119SOL     OW80319   8.890   1.076   8.491 -0.5080  0.1667  0.1745
58119SOL    HW180320   8.951   1.132   8.539  0.3621 -0.5331 -0.0723
58119SOL    HW280321   8.806   1.122   8.495 -0.2905  0.4852  1.7091
58120SOL     OW80322  10.500   8.405   9.068  0.2845 -0.2505 -0.1130
58120SOL    HW180323  10.440   8.475   9.096  1.5897  1.0140 -0.3537
58120SOL    HW280324  10.449   8.325   9.079 -1.8275  0.8298 -1.2356
58121SOL     OW80325   1.123   3.382   2.166 -0.0141 -0.0864 -0.1649
58121SOL    HW180326   1.202   3.397   2.113 -0.4340  1.1928 -0.4580
58121SOL    HW280327   1.054   3.428   2.119 -1.0903 -1.7213 -0.2362
58122SOL     OW80328  11.978   4.512   1.860  0.0704  0.1372 -0.0653
58122SOL    HW180329  12.034   4.581   1.824 -2.2442  1.4043 -1.5574
58122SOL    HW280330  11.915   4.559   1.915 -0.6507 -0.9478  0.0680
58123SOL     OW80331  10.731   6.723  11.880  0.1470  0.4175  0.1646
58123SOL    HW180332  10.697   6.687  11.798 -1.6438 -2.2971  1.9178
58123SOL    HW280333  10.820   6.689  11.886 -0.4979 -1.3454  0.3480
58124SOL     OW80334   3.372   6.116   5.335  0.2313 -0.1067  0.6263
58124SOL    HW180335   3.425   6.041   5.364 -0.1717 -0.7026 -0.1546
58124SOL    HW280336   3.369   6.174   5.412  0.2418 -1.0644  1.3706
58125SOL     OW80337   6.639   5.415   0.004  0.0593  0.0465  0.0916
58125SOL    HW180338   6.573   5.469   0.048  2.6214  1.3661  2.6177
58125SOL    HW280339   6.652   5.459  -0.081  0.1294  1.8244  0.9740
58126SOL     OW80340  11.451   1.911   4.822  0.2400 -0.2472 -0.2908
58126SOL    HW180341  11.364   1.952   4.823 -0.0551 -0.7837 -1.5526
58126SOL    HW280342  11.449   1.848   4.893  0.3121  1.1165  0.9651
58127SOL     OW80343   6.682  11.525  11.065 -0.0117 -0.3890 -0.6916
58127SOL    HW180344   6.759  11.579  11.084  0.5175 -0.9284 -1.2742
58127SOL    HW280345   6.647  11.561  10.984 -0.1064 -0.4376 -0.6723
58128SOL     OW80346   2.847   5.516   3.776  0.5134  0.1970 -0.0287
58128SOL    HW180347   2.862   5.582   3.708 -0.3210  1.6345  1.1052
58128SOL    HW280348   2.765   5.474   3.750 -0.0338  1.0402  0.2813
58129SOL     OW80349   6.036   7.714   0.729 -0.1332  0.5138  0.3724
58129SOL    HW180350   6.111   7.714   0.788 -1.0153 -0.1703  1.5485
58129SOL    HW280351   5.964   7.748   0.782 -0.4773  2.0474 -1.0160
58130SOL     OW80352   1.000   1.068   1.410 -0.2197 -0.6246  0.1260
58130SOL    HW180353   0.934   1.010   1.448  0.1222 -0.1243  1.5584
58130SOL    HW280354   1.079   1.015   1.402 -0.0865 -0.5475  0.8413
58131SOL     OW80355   5.723   4.487   3.553 -0.2463  0.4062  0.0429
58131SOL    HW180356   5.666   4.444   3.490  2.2382 -1.6915 -0.9866
58131SOL    HW280357   5.761   4.561   3.504 -0.4012  0.4574 -0.0004
58132SOL     OW80358   0.450  11.285   4.141 -0.0623 -0.3363 -0.4157
58132SOL    HW180359   0.378  11.348   4.138 -0.0099 -0.1071  1.4758
58132SOL    HW280360   0.426  11.225   4.211  1.8020  0.0644  0.6386
58133SOL     OW80361   7.535  11.069   5.178  0.3878  0.5518  0.4662
58133SOL    HW180362   7.454  11.077   5.229 -1.4114 -2.3040 -1.6231
58133SOL    HW280363   7.584  11.000   5.223  0.9947  1.2408  0.8803
58134SOL     OW80364   6.962  10.666   5.133 -0.1906 -0.1942 -0.0709
58134SOL    HW180365   6.962  10.660   5.229  0.6735  0.3713 -0.0284
58134SOL    HW280366   7.053  10.650   5.108 -0.3621 -0.0620 -0.7817
58135SOL     OW80367   2.585   6.733  10.018  0.3446 -0.4905  0.3168
58135SOL    HW180368   2.632   6.796   9.962  0.5560  0.1429  1.1878
58135SOL    HW280369   2.538   6.677   9.956  0.3450  0.3707 -0.4901
58136SOL     OW80370   9.938  12.033   6.179 -0.0056 -0.2238  0.2078
58136SOL    HW180371   9.974  11.975   6.112 -0.2474  0.2217 -0.3138
58136SOL    HW280372   9.854  12.062   6.143 -0.2682 -0.2015  0.8265
58137SOL     OW80373  10.273   3.026  12.025 -0.8182  0.3868 -0.3491
58137SOL    HW180374  10.212   3.030  11.951 -0.8016  1.9708 -0.3067
58137SOL    HW280375  10.358   3.050  11.988 -1.0219  2.3716  0.3556
58138SOL     OW80376   0.437   0.815  11.581  0.1020 -0.2452 -0.2937
58138SOL    HW180377   0.373   0.798  11.650 -0.3390  0.3293 -0.5505
58138SOL    HW280378   0.492   0.885  11.616  0.2463 -0.3617 -0.2885
58139SOL     OW80379  12.077  10.178   6.931  0.1309 -0.2742 -0.6024
58139SOL    HW180380  12.157  10.142   6.970 -0.0453 -3.2900 -2.6622
58139SOL    HW280381  12.109  10.241   6.866  0.6782  0.3098  0.2131
58140SOL     OW80382   9.711   9.042  11.127  0.0525  0.4427  0.0926
58140SOL    HW180383   9.778   8.980  11.154  0.9107  0.9816 -0.7494
58140SOL    HW280384   9.731   9.061  11.036 -1.3554  0.4875 -0.2260
58141SOL     OW80385  12.321   7.016   4.490  0.4899 -0.3276 -0.3716
58141SOL    HW180386  12.279   6.947   4.438  1.9553 -0.9648 -0.7732
58141SOL    HW280387  12.306   6.990   4.581 -0.4631 -0.2290 -0.4904
58142SOL     OW80388   1.959   5.649   8.346  0.6611  0.4914 -0.1225
58142SOL    HW180389   1.980   5.568   8.392  1.4569  0.9398  0.3161
58142SOL    HW280390   1.928   5.708   8.414  1.9190  1.1875 -0.1309
58143SOL     OW80391   2.705   9.457   8.283 -0.0244  0.3044  0.4530
58143SOL    HW180392   2.697   9.476   8.376 -0.8883 -3.9390  1.4488
58143SOL    HW280393   2.798   9.473   8.263  0.4472  0.1642  2.3553
58144SOL     OW80394   5.462   2.692   8.819 -0.6527  0.0740  0.4246
58144SOL    HW180395   5.482   2.651   8.735  1.6503 -0.6584  1.2668
58144SOL    HW280396   5.367   2.706   8.816 -0.6010  0.3909 -2.4003
58145SOL     OW80397  11.904  12.111   9.056  0.1798  0.2789 -0.2341
58145SOL    HW180398  11.895  12.020   9.083 -0.8720  0.2742 -0.5865
58145SOL    HW280399  11.932  12.106   8.964 -3.0524  0.2552 -1.3304
58146SOL     OW80400  10.148   6.721  10.760 -0.1921  0.2543 -0.0608
58146SOL    HW180401  10.204   6.798  10.755 -0.2697  0.3542  0.5106
58146SOL    HW280402  10.133   6.708  10.854 -1.0000  0.1431 -0.1984
58147SOL     OW80403   0.229   0.425  11.778 -0.0229  0.4702 -0.0364
58147SOL    HW180404   0.220   0.396  11.687  0.3066 -0.8966  0.3332
58147SOL    HW280405   0.139   0.431  11.811 -0.1064 -0.4372 -0.0624
58148SOL     OW80406   8.871  10.621  12.252  0.0109 -0.3545  0.6264
58148SOL    HW180407   8.843  10.655  12.166  1.8745  0.3632  0.2624
58148SOL    HW280408   8.875  10.526  12.240 -1.7475 -0.4651  0.5782
58149SOL     OW80409   0.381   2.422  10.161 -0.2260 -0.5243 -0.1255
58149SOL    HW180410   0.357   2.502  10.115  0.4913 -0.2732 -0.0784
58149SOL    HW280411   0.444   2.379  10.103 -0.0666 -0.6988  0.1772
58150SOL     OW80412   8.562  11.111   9.200  1.1206  0.1432  0.0819
58150SOL    HW180413   8.490  11.170   9.176  1.7276  0.4740 -1.0219
58150SOL    HW280414   8.613  11.161   9.264  1.1795  0.4969 -0.2375
58151SOL     OW80415  11.073  10.367   7.842 -0.2314  0.1863  0.0688
58151SOL    HW180416  11.134  10.359   7.916  0.3865  0.3575 -0.4206
58151SOL    HW280417  11.119  10.421   7.778 -0.6796 -0.1338 -0.5344
58152SOL     OW80418  10.078   8.530  11.528 -0.2253 -0.1837 -0.3404
58152SOL    HW180419  10.070   8.479  11.447  0.5384  0.3873 -0.7860
58152SOL    HW280420  10.036   8.614  11.507  0.8300  0.3248 -0.4749
58153SOL     OW80421  10.177   7.897   0.789  0.5995 -0.2569 -0.4119
58153SOL    HW180422  10.256   7.951   0.785  1.5062 -1.5394 -0.3955
58153SOL    HW280423  10.207   7.808   0.771 -0.7661 -0.8577  0.0841
58154SOL     OW80424   6.696   1.496  12.072  0.0328  0.0087  0.0911
58154SOL    HW180425   6.661   1.583  12.090 -1.1523 -0.5214  0.5168
58154SOL    HW280426   6.757   1.508  11.999 -0.3734  1.1321 -0.0792
58155SOL     OW80427   4.070  10.309   8.173  0.0116 -0.1865 -0.1449
58155SOL    HW180428   4.070  10.234   8.233 -0.3918  0.0467  0.1480
58155SOL    HW280429   4.007  10.370   8.210  1.0711  0.7474  0.1760
58156SOL     OW80430   2.741   5.334  11.222  0.1368  0.4684  0.2240
58156SOL    HW180431   2.815   5.337  11.160 -1.4651  0.1289 -1.8027
58156SOL    HW280432   2.686   5.262  11.191 -2.5648  2.5551 -0.2139
58157SOL     OW80433  10.428   9.426   4.103  0.4091 -0.3894 -0.5730
58157SOL    HW180434  10.348   9.469   4.131  0.2633 -0.6508 -0.5854
58157SOL    HW280435  10.399   9.343   4.065  0.6415 -0.2552 -1.0579
58158SOL     OW80436   9.704   9.147  10.591 -0.7155 -0.4963 -0.3944
58158SOL    HW180437   9.704   9.074  10.653 -0.2145 -0.6531 -0.5740
58158SOL    HW280438   9.743   9.111  10.512 -0.8111 -0.1325 -0.6094
58159SOL     OW80439   6.267   8.350   2.758 -0.1282  0.1771 -0.3225
58159SOL    HW180440   6.309   8.293   2.822  0.6208  1.1454  0.0712
58159SOL    HW280441   6.339   8.402   2.721 -0.8810  1.4688 -0.0423
58160SOL     OW80442   4.226   3.160   8.270 -0.1823  0.0074 -0.2248
58160SOL    HW180443   4.138   3.124   8.260  0.0851 -0.7951  0.2127
58160SOL    HW280444   4.259   3.169   8.181 -0.1747 -1.0762 -0.3511
58161SOL     OW80445  10.025   4.106   1.361 -0.0546 -0.2810  0.4766
58161SOL    HW180446  10.035   4.090   1.455 -3.1512 -1.3522  0.7582
58161SOL    HW280447  10.038   4.020   1.321 -0.2226 -0.1294  0.0942
58162SOL     OW80448   2.626   9.149   8.524  1.1609 -0.3026 -0.0080
58162SOL    HW180449   2.565   9.220   8.505  2.7581  1.0636 -0.3046
58162SOL    HW280450   2.678   9.140   8.444  1.0368 -1.7821  0.0472
58163SOL     OW80451   5.404   9.797   7.941 -0.1924  0.2934 -0.8832
58163SOL    HW180452   5.463   9.872   7.936  1.2844 -0.8154 -0.7196
58163SOL    HW280453   5.348   9.815   8.017  2.9478 -0.6437  1.8759
58164SOL     OW80454   4.615   2.088   8.642  0.3249  0.3679 -0.0873
58164SOL    HW180455   4.590   2.011   8.590 -0.0431 -1.8221  3.0809
58164SOL    HW280456   4.532   2.131   8.664  0.3608  0.3966 -0.0077
58165SOL     OW80457   1.286  11.372   7.197  0.0699 -0.2081 -0.1131
58165SOL    HW180458   1.261  11.359   7.288 -1.1210  0.3470 -0.3404
58165SOL    HW280459   1.301  11.466   7.189 -1.9339  0.1089 -0.9437
58166SOL     OW80460   2.859   2.001  11.514 -0.2920  0.2677  0.1663
58166SOL    HW180461   2.899   2.026  11.431 -1.2937 -0.2541 -0.5030
58166SOL    HW280462   2.794   1.934  11.490 -3.2103  2.6312  0.8321
58167SOL     OW80463   6.988   1.380   8.633  0.5137 -0.2588 -0.2717
58167SOL    HW180464   7.014   1.371   8.725 -1.1963  0.1304  0.3039
58167SOL    HW280465   7.015   1.468   8.608  1.0979 -0.4125 -0.1873
58168SOL     OW80466   2.170   5.696   0.123 -0.3593 -0.7300  0.2031
58168SOL    HW180467   2.116   5.763   0.164  1.1615  0.7910 -0.1560
58168SOL    HW280468   2.155   5.708   0.029  0.0320 -0.7821  0.1330
58169SOL     OW80469  12.443   8.262   8.547 -0.3497 -0.1392 -0.0078
58169SOL    HW180470  12.416   8.176   8.513  0.5564 -0.0161 -1.0772
58169SOL    HW280471  12.481   8.242   8.633 -2.7157 -0.4444  1.0544
58170SOL     OW80472   4.176  10.934   1.485  0.1492  0.0102  0.6308
58170SOL    HW180473   4.224  10.933   1.567 -1.4299 -2.6814  1.6524
58170SOL    HW280474   4.110  11.002   1.496  0.3487  0.0947  1.3393
58171SOL     OW80475   2.494   2.599   6.088  0.2596  0.0310  0.0070
58171SOL    HW180476   2.487   2.532   6.157 -0.6119 -0.1222 -0.2141
58171SOL    HW280477   2.423   2.577   6.027  1.4747 -0.2849 -1.3383
58172SOL     OW80478   3.600   9.828   3.209 -0.0458 -0.1990 -0.1644
58172SOL    HW180479   3.602   9.920   3.184 -0.8981  0.1984  1.1500
58172SOL    HW280480   3.540   9.788   3.146 -0.5728  0.3808 -0.0437
58173SOL     OW80481   7.063   3.212  11.586  0.0034  0.1958  0.3967
58173SOL    HW180482   6.993   3.157  11.552 -0.5930  1.2660 -0.1795
58173SOL    HW280483   7.019   3.274  11.644  0.8552 -0.8270  2.2049
58174SOL     OW80484   5.158   0.125   3.501  0.0597  0.0625 -0.2164
58174SOL    HW180485   5.223   0.144   3.433 -0.1589  0.3252 -0.3510
58174SOL    HW280486   5.198   0.157   3.581  0.7390 -1.1067 -0.0514
58175SOL     OW80487   9.524  10.650   6.429  1.0472 -0.1022  0.1078
58175SOL    HW180488   9.505  10.557   6.444  2.3016 -0.6721 -1.4241
58175SOL    HW280489   9.615  10.650   6.396  0.3274  1.3973 -2.1442
58176SOL     OW80490  10.345   4.299  11.255  0.0083 -0.3800  0.0215
58176SOL    HW180491  10.416   4.326  11.314  1.6534 -0.3389 -1.8689
58176SOL    HW280492  10.322   4.379  11.207 -0.8403 -0.5670  0.0973
58177SOL     OW80493   2.575   9.959   8.814 -0.2925 -0.0006  0.1801
58177SOL    HW180494   2.640   9.891   8.835 -2.1342 -1.0993  2.8499
58177SOL    HW280495   2.491   9.916   8.824 -1.5319  2.4021  0.8149
58178SOL     OW80496   3.606   5.290   6.668 -0.3121  0.2624 -0.2879
58178SOL    HW180497   3.696   5.322   6.661  0.7862 -2.2357  1.0458
58178SOL    HW280498   3.594   5.236   6.590  0.3017 -1.4085  0.7222
58179SOL     OW80499   4.754   4.287  10.009 -0.1599  0.4588 -0.0492
58179SOL    HW180500   4.694   4.252   9.943  0.7285 -0.2866 -0.4907
58179SOL    HW280501   4.817   4.338   9.959 -0.1704  0.8773  0.3615
58180SOL     OW80502  12.394   6.839   3.035  0.4001  0.3434 -0.1185
58180SOL    HW180503  12.333   6.891   3.088  1.0704  0.2932  0.7246
58180SOL    HW280504  12.400   6.887   2.952 -1.1871  0.0637 -0.4223
58181SOL     OW80505   7.275   3.920   6.171  0.3885 -0.4824 -0.1381
58181SOL    HW180506   7.348   3.960   6.219  1.1636 -0.2907 -1.4428
58181SOL    HW280507   7.278   3.828   6.197  1.0262 -0.4541 -0.0873
58182SOL     OW80508   8.029   8.598   5.371  0.0275 -0.7981 -0.1979
58182SOL    HW180509   7.935   8.606   5.360 -0.2182 -1.5902  1.1344
58182SOL    HW280510   8.040   8.544   5.449  1.5862 -1.5609 -0.8974
58183SOL     OW80511   1.617   7.690   2.440 -0.0460 -0.2566  0.2523
58183SOL    HW180512   1.698   7.709   2.487  0.4785 -0.8630 -0.3884
58183SOL    HW280513   1.620   7.746   2.363 -0.2629 -0.2386  0.2565
58184SOL     OW80514   7.968   6.250   4.989 -0.6655  0.1933 -0.0528
58184SOL    HW180515   8.046   6.244   5.045 -0.4395  0.0928 -0.3722
58184SOL    HW280516   7.994   6.311   4.919 -0.7293 -0.1580 -0.3861
58185SOL     OW80517  10.629   5.921   9.674  0.4790  0.0352 -0.0095
58185SOL    HW180518  10.661   5.872   9.598 -0.6152 -1.0331  0.1983
58185SOL    HW280519  10.632   5.858   9.746 -0.2333  0.4969  0.4344
58186SOL     OW80520   9.519   2.826   7.636 -0.0475 -0.2552  0.4707
58186SOL    HW180521   9.609   2.852   7.615 -0.4537  1.9878  1.2839
58186SOL    HW280522   9.469   2.847   7.557  0.3846 -3.5291 -0.8352
58187SOL     OW80523   5.588   6.638   6.174  0.2798  0.0621  0.0748
58187SOL    HW180524   5.577   6.690   6.253  2.6623  0.9287 -0.0585
58187SOL    HW280525   5.518   6.666   6.116 -0.0421  1.2097  0.9804
58188SOL     OW80526   9.736  11.106  11.104  0.1380 -0.2179 -0.3288
58188SOL    HW180527   9.830  11.096  11.116  0.0173  0.4380  1.3978
58188SOL    HW280528   9.723  11.201  11.096 -0.4643 -0.2271  0.4417
58189SOL     OW80529   7.170   0.768   3.338 -0.2118 -0.2213 -0.9718
58189SOL    HW180530   7.079   0.791   3.357  1.0421  2.8787  2.1705
58189SOL    HW280531   7.186   0.689   3.390  0.1571  2.1590  2.8822
58190SOL     OW80532   0.446  10.334  11.676 -0.3336  0.0016 -0.5799
58190SOL    HW180533   0.365  10.297  11.712 -0.3911 -0.8144 -1.5035
58190SOL    HW280534   0.482  10.264  11.620  0.8245  0.4810 -0.4648
58191SOL     OW80535  11.749   3.881   0.497 -0.1168 -0.1429  0.1168
58191SOL    HW180536  11.716   3.822   0.565 -2.0331 -0.2356 -0.8458
58191SOL    HW280537  11.780   3.822   0.428 -1.6813 -0.0523 -0.6841
58192SOL     OW80538  11.033   7.450   0.058  0.1494 -0.5156  0.0194
58192SOL    HW180539  11.095   7.396   0.009 -1.8187 -2.2533 -0.6936
58192SOL    HW280540  11.045   7.538   0.022  0.3554 -1.3219 -2.0433
58193SOL     OW80541   8.685   5.204   4.815 -0.5517  0.1435  0.0434
58193SOL    HW180542   8.728   5.286   4.791  0.7883 -0.9201 -1.4267
58193SOL    HW280543   8.599   5.208   4.774 -0.7500  1.0565  0.5202
58194SOL     OW80544   1.300   5.847   6.023 -0.1198 -0.3814  0.7114
58194SOL    HW180545   1.240   5.790   5.975  0.7334 -1.8061  1.2796
58194SOL    HW280546   1.271   5.935   6.001 -1.9793 -1.0086  0.4189
58195SOL     OW80547   8.858   8.277   6.662  0.7514  0.1157 -0.1368
58195SOL    HW180548   8.796   8.345   6.689  0.4530  0.9755 -2.6993
58195SOL    HW280549   8.943   8.310   6.689  0.4507  0.7768  0.0214
58196SOL     OW80550   4.744   0.163   6.381  0.4309 -0.4694 -0.4158
58196SOL    HW180551   4.827   0.158   6.427  0.3796 -0.5170 -0.3277
58196SOL    HW280552   4.740   0.083   6.329  1.3565  0.4570 -1.9897
58197SOL     OW80553   8.330   8.249  11.250  0.2172  0.5692  0.2300
58197SOL    HW180554   8.241   8.217  11.234  0.5874 -0.2848 -0.1733
58197SOL    HW280555   8.318   8.322  11.310 -0.6701 -0.3952  1.2850
58198SOL     OW80556   2.922  10.451   9.117  0.3298  0.1034 -0.4704
58198SOL    HW180557   3.014  10.469   9.096  0.4156  0.0743 -0.1193
58198SOL    HW280558   2.886  10.417   9.035  0.7602 -0.3602 -0.4762
58199SOL     OW80559   1.825  10.861  10.571 -0.3977  0.1430 -0.5656
58199SOL    HW180560   1.901  10.811  10.542 -0.9573 -0.8869 -0.3046
58199SOL    HW280561   1.861  10.928  10.629  0.3596  0.0018 -0.8616
58200SOL     OW80562   3.190   8.822   1.541 -0.4711  0.8808  0.4698
58200SOL    HW180563   3.246   8.887   1.500 -1.4494  1.6753  0.3597
58200SOL    HW280564   3.236   8.798   1.621  0.1869  1.2668  0.2112
58201SOL     OW80565   1.691   0.676   0.645  0.1790 -0.0177 -0.0643
58201SOL    HW180566   1.636   0.611   0.600  0.5840 -0.3384 -0.0966
58201SOL    HW280567   1.740   0.719   0.575 -0.6956  0.9177 -0.1366
58202SOL     OW80568   9.864  10.879   9.784  0.1264  0.0446 -0.1526
58202SOL    HW180569   9.829  10.790   9.794 -2.0333  0.9827  1.6713
58202SOL    HW280570   9.809  10.919   9.716 -1.2704  0.9669  1.4371
58203SOL     OW80571  10.346   0.027   0.549 -0.3488 -0.1517  0.1538
58203SOL    HW180572  10.339   0.078   0.468 -1.5548 -0.5031  0.0197
58203SOL    HW280573  10.400  -0.048   0.525  0.5532  0.5069  0.0791
58204SOL     OW80574   9.066   2.202   2.984  0.0013 -0.3521  0.1121
58204SOL    HW180575   9.068   2.297   2.980  1.2582 -0.3681 -0.1198
58204SOL    HW280576   9.060   2.173   2.893  2.7292 -0.4809 -0.1182
58205SOL     OW80577  10.566   0.015   7.191  0.5479  0.5312  0.5082
58205SOL    HW180578  10.615  -0.026   7.263 -0.8638  1.4710  2.1012
58205SOL    HW280579  10.510  -0.055   7.158 -1.3209  0.8350  2.7235
58206SOL     OW80580   8.592   4.300   7.658 -0.2489  0.0473  0.0083
58206SOL    HW180581   8.578   4.248   7.579 -2.2165  0.6733 -0.1123
58206SOL    HW280582   8.505   4.308   7.697  0.7225 -0.5569  2.4682
58207SOL     OW80583   3.976   9.889   6.394  0.1804 -0.2431  0.0926
58207SOL    HW180584   3.921   9.874   6.316  0.4675 -0.6982 -0.0272
58207SOL    HW280585   3.916   9.876   6.468  0.0919 -0.6165 -0.0407
58208SOL     OW80586   1.708   0.348  10.769  0.6487  0.1732 -0.5045
58208SOL    HW180587   1.664   0.391  10.842 -2.0721 -0.6213 -1.5369
58208SOL    HW280588   1.723   0.259  10.800 -0.1722 -0.0596 -0.7365
58209SOL     OW80589   1.082   4.189   8.240  0.7657  0.3302  0.7509
58209SOL    HW180590   1.130   4.176   8.158 -0.6130  1.2110 -0.2480
58209SOL    HW280591   1.128   4.260   8.284  1.7331 -0.3942  0.9391
58210SOL     OW80592   3.362   3.571   9.257  0.4419 -0.6231 -0.2112
58210SOL    HW180593   3.331   3.481   9.268 -1.0812 -0.4469 -2.3956
58210SOL    HW280594   3.298   3.624   9.304  0.2400 -0.5739 -0.5382
58211SOL     OW80595   4.744   3.202   5.783 -0.1109  0.3996 -0.3662
58211SOL    HW180596   4.819   3.235   5.832  0.1263  0.6652 -0.8920
58211SOL    HW280597   4.782   3.165   5.703 -0.6136  1.6700 -1.2355
58212SOL     OW80598   3.938   2.141   9.669  0.0546  0.2424  0.2762
58212SOL    HW180599   3.874   2.071   9.685  0.5993 -0.5523 -0.8543
58212SOL    HW280600   3.980   2.156   9.754 -1.0988  0.2543  0.8626
58213SOL     OW80601  11.141   1.888   4.292  0.6737  0.2110 -0.1307
58213SOL    HW180602  11.213   1.909   4.352 -0.0731  1.1983  0.4587
58213SOL    HW280603  11.088   1.968   4.290 -0.8837 -0.7681  0.1288
58214SOL     OW80604  10.764   0.300   5.395 -0.8630  0.1569  0.5102
58214SOL    HW180605  10.818   0.264   5.324 -1.0025 -1.8941  1.3639
58214SOL    HW280606  10.674   0.284   5.366 -1.0134  1.7773 -0.0186
58215SOL     OW80607   0.317   7.157   4.846  0.1498  0.0807 -0.0644
58215SOL    HW180608   0.402   7.194   4.871  1.8156 -2.7735 -0.9272
58215SOL    HW280609   0.301   7.191   4.758  1.3719 -0.7323 -0.6321
58216SOL     OW80610   3.209   2.151   2.850 -0.1329 -0.1883 -0.0527
58216SOL    HW180611   3.270   2.095   2.897 -0.6486 -0.2717  0.5328
58216SOL    HW280612   3.233   2.240   2.875 -2.0634 -0.2917  2.5511
58217SOL     OW80613   9.181   2.455   3.343  0.0020  0.4041 -0.1588
58217SOL    HW180614   9.164   2.466   3.249  0.4257  0.2491 -0.2550
58217SOL    HW280615   9.276   2.441   3.349 -0.2850 -1.7605  0.0915
58218SOL     OW80616   0.315  10.249   1.437 -0.6193 -0.1082  0.6847
58218SOL    HW180617   0.294  10.279   1.526 -2.0922 -0.2355  0.4103
58218SOL    HW280618   0.342  10.328   1.391  4.0018 -0.5273  2.1590
58219SOL     OW80619   0.274   4.117   6.145  0.2511  0.4220  0.2400
58219SOL    HW180620   0.291   4.025   6.126 -0.3419  0.1974  0.7450
58219SOL    HW280621   0.355   4.149   6.185  1.4080  0.8354 -2.2768
58220SOL     OW80622   4.941   1.588   8.878  0.6177 -0.2227  0.3343
58220SOL    HW180623   4.858   1.588   8.832  0.7525 -0.9522  0.0778
58220SOL    HW280624   4.917   1.594   8.971  0.3042  0.0720  0.2365
58221SOL     OW80625  11.526   4.999   6.570  0.6010 -0.3835 -0.0702
58221SOL    HW180626  11.541   5.068   6.505  0.2420 -1.2852 -1.1316
58221SOL    HW280627  11.604   5.002   6.626  1.5259 -0.4299 -1.3065
58222SOL     OW80628   5.725   5.497   1.444  0.0921  0.0948 -0.3891
58222SOL    HW180629   5.764   5.409   1.452  0.7002  0.2318 -1.5207
58222SOL    HW280630   5.678   5.494   1.361  0.6947  1.0438 -0.7811
58223SOL     OW80631   6.342  11.428   1.301  0.3233  0.6835  0.0062
58223SOL    HW180632   6.417  11.449   1.357 -1.0201  1.9549  1.4360
58223SOL    HW280633   6.293  11.510   1.294 -1.3323 -0.2676 -0.2655
58224SOL     OW80634   2.207   8.409   1.262 -0.3476 -0.3102  0.3771
58224SOL    HW180635   2.158   8.459   1.197  0.6648  1.9581  1.2485
58224SOL    HW280636   2.294   8.449   1.262  0.2295 -1.4697  1.8263
58225SOL     OW80637   6.271   2.691   1.039 -0.0946 -0.0546  0.2386
58225SOL    HW180638   6.284   2.715   0.948  2.2708  1.2764  0.8548
58225SOL    HW280639   6.183   2.724   1.060 -0.6335 -0.3060 -1.4906
58226SOL     OW80640  10.341   8.973   6.449 -0.0684  0.5100  0.6161
58226SOL    HW180641  10.320   8.922   6.527 -1.2048 -0.7668 -0.4761
58226SOL    HW280642  10.412   9.031   6.477 -1.3002  1.0213  2.9436
58227SOL     OW80643   7.420   0.624   6.756 -0.3661  0.6363  0.5462
58227SOL    HW180644   7.401   0.714   6.729  0.4234  0.4055 -0.8744
58227SOL    HW280645   7.502   0.603   6.712 -1.3610 -1.3212 -0.4836
58228SOL     OW80646   9.378   3.554   0.111  0.4188 -0.6052  0.3904
58228SOL    HW180647   9.369   3.465   0.145  0.5970 -0.5075  0.6995
58228SOL    HW280648   9.323   3.555   0.032  1.4117 -1.3551 -0.3361
58229SOL     OW80649   8.868   8.839   6.773  0.0749 -0.2625 -0.7439
58229SOL    HW180650   8.963   8.847   6.783 -0.0085  1.8559 -1.1536
58229SOL    HW280651   8.832   8.877   6.853 -0.4231  0.5335 -1.3247
58230SOL     OW80652  10.428   5.418   8.061  0.6261 -0.0171  0.1499
58230SOL    HW180653  10.403   5.418   8.153  1.2198  4.0249  0.5116
58230SOL    HW280654  10.371   5.484   8.021  0.6990 -1.3276 -2.3179
58231SOL     OW80655  10.745   2.378   2.655  0.6481  0.8903 -0.1423
58231SOL    HW180656  10.650   2.378   2.648  0.4614 -2.7762  0.2568
58231SOL    HW280657  10.770   2.286   2.645  4.0053  1.4496  1.4802
58232SOL     OW80658   1.855  12.431   7.576 -1.2206 -0.0550  0.0754
58232SOL    HW180659   1.936  12.480   7.558 -0.8021 -1.5006 -2.4405
58232SOL    HW280660   1.852  12.426   7.672  0.3642  2.0959  0.3391
58233SOL     OW80661   1.668   7.104   6.709 -0.0738 -0.0270 -0.3353
58233SOL    HW180662   1.751   7.141   6.741 -0.1099  0.3130 -0.6352
58233SOL    HW280663   1.694   7.049   6.635 -0.0288 -0.5591  0.0638
58234SOL     OW80664   7.423   7.323  12.470 -0.2000  0.3651  0.4961
58234SOL    HW180665   7.474   7.384  12.418  0.9058 -1.6701 -0.9554
58234SOL    HW280666   7.459   7.330  12.558  0.5392  1.1240  0.1404
58235SOL     OW80667   9.466   3.080   2.315  0.3720 -0.2613 -0.2229
58235SOL    HW180668   9.502   3.121   2.236  1.3185  0.8005  0.7056
58235SOL    HW280669   9.495   2.989   2.310  3.6098  0.5941  0.5994
58236SOL     OW80670   2.553   7.266   9.222 -0.3207  0.1071 -0.1672
58236SOL    HW180671   2.527   7.261   9.130 -0.4916  0.9549 -0.1748
58236SOL    HW280672   2.474   7.294   9.268  0.2577  1.6606 -0.0476
58237SOL     OW80673   3.697   5.414   4.073  0.1293 -0.4248 -0.1970
58237SOL    HW180674   3.755   5.347   4.110 -0.2404 -0.7584 -0.2185
58237SOL    HW280675   3.639   5.438   4.146 -1.3828 -1.9308 -0.8359
58238SOL     OW80676   5.595   1.765   3.256 -0.2541 -0.4538 -0.1027
58238SOL    HW180677   5.525   1.822   3.289  0.2425 -0.4620  1.0056
58238SOL    HW280678   5.634   1.815   3.184  0.4820  0.8605  1.1500
58239SOL     OW80679  11.253  10.659  10.685 -0.0258 -0.1968  0.0937
58239SOL    HW180680  11.190  10.702  10.627  0.3939  1.8261  1.0574
58239SOL    HW280681  11.218  10.672  10.773  2.0613  1.7628  0.7409
58240SOL     OW80682   1.045  12.287   4.142  0.0062 -0.1351  0.0264
58240SOL    HW180683   1.111  12.237   4.095 -0.5279 -0.8061 -0.0265
58240SOL    HW280684   0.962  12.248   4.116 -0.4569  0.9685 -0.2445
58241SOL     OW80685   4.795   1.622  11.615  0.3539  0.1312  0.3606
58241SOL    HW180686   4.769   1.610  11.706 -2.7753  0.0723 -0.4265
58241SOL    HW280687   4.878   1.669  11.620 -0.3130  1.2107  3.2294
58242SOL     OW80688   3.380   3.608   1.587  0.3898  0.3301 -0.1286
58242SOL    HW180689   3.353   3.591   1.497 -0.8863 -0.4943  0.3864
58242SOL    HW280690   3.461   3.658   1.578  1.3637 -1.3749 -1.7420
58243SOL     OW80691   6.158   5.157  11.712 -0.2324 -0.4282 -0.2828
58243SOL    HW180692   6.215   5.106  11.769  1.3273  1.3833 -0.1326
58243SOL    HW280693   6.210   5.175  11.635 -0.5277  1.3731 -0.0990
58244SOL     OW80694   5.843  11.157   1.681 -0.1182 -0.1724 -0.1271
58244SOL    HW180695   5.855  11.068   1.712  1.6253 -0.2920 -1.0169
58244SOL    HW280696   5.923  11.203   1.706 -1.2143  1.3380  0.8346
58245SOL     OW80697  10.922   3.235  10.745 -0.3830  0.6119  0.4758
58245SOL    HW180698  10.846   3.180  10.762  0.1047 -0.2475 -0.0753
58245SOL    HW280699  10.893   3.323  10.770 -0.7299 -0.0662  2.6653
58246SOL     OW80700   3.911   1.368  10.309 -0.1098 -0.4398 -0.1858
58246SOL    HW180701   3.869   1.378  10.223  1.7410 -1.4313 -1.2887
58246SOL    HW280702   3.986   1.428  10.305  0.1881 -0.7536  0.6087
58247SOL     OW80703   8.464  11.532   1.949 -0.4150 -0.2061 -0.0818
58247SOL    HW180704   8.489  11.521   1.857 -0.2425 -1.5582  0.1025
58247SOL    HW280705   8.368  11.524   1.949 -0.4076 -0.3072 -0.1402
58248SOL     OW80706  10.242   6.383   3.360  0.0224 -0.5842  0.1798
58248SOL    HW180707  10.326   6.414   3.327  0.5782 -0.7665  1.3499
58248SOL    HW280708  10.186   6.461   3.360  0.5966 -0.1630  0.6039
58249SOL     OW80709   7.907   8.063  11.643  0.0852  0.1346  0.9319
58249SOL    HW180710   7.925   8.155  11.624 -1.6795  0.9118  2.6268
58249SOL    HW280711   7.957   8.044  11.722 -0.1128 -0.1373  0.9936
58250SOL     OW80712   1.563   7.510   9.749  0.0661  0.2863  0.1357
58250SOL    HW180713   1.601   7.573   9.687  0.1489 -0.0665 -0.1752
58250SOL    HW280714   1.470   7.531   9.750  0.0495  0.2321 -0.1838
58251SOL     OW80715   7.985  10.067   9.303 -0.2521 -0.4529  0.2721
58251SOL    HW180716   8.029   9.995   9.258  0.6674 -0.8590  1.7229
58251SOL    HW280717   7.905  10.029   9.337  0.2191 -0.8164  1.0109
58252SOL     OW80718   8.345   4.479   6.600  0.5786  0.3263 -0.0970
58252SOL    HW180719   8.319   4.401   6.551 -0.0401  0.0825  0.5866
58252SOL    HW280720   8.282   4.483   6.672  1.7939  0.3386  1.0030
58253SOL     OW80721   7.500   4.505  10.796 -0.3632 -0.0777  0.7100
58253SOL    HW180722   7.559   4.547  10.733 -1.8914 -0.6035 -1.1364
58253SOL    HW280723   7.412   4.529  10.767 -1.1436 -0.8123  2.3402
58254SOL     OW80724   6.948   9.399   0.665 -0.0597  0.1920 -0.4284
58254SOL    HW180725   7.030   9.428   0.627  0.3297  2.3042  1.7386
58254SOL    HW280726   6.881   9.432   0.606  0.5785  1.1934 -0.6080
58255SOL     OW80727   0.084   5.097   6.090 -1.0575 -0.1752 -0.4954
58255SOL    HW180728   0.091   5.024   6.151 -1.6249 -0.4453 -0.7539
58255SOL    HW280729   0.136   5.167   6.131 -1.6310 -0.2705  0.4192
58256SOL     OW80730   7.722   3.174   8.056 -0.2415  0.4324 -0.1175
58256SOL    HW180731   7.653   3.213   8.003 -1.2385 -2.1165 -0.8621
58256SOL    HW280732   7.689   3.177   8.146 -1.2212 -0.4525 -0.4286
58257SOL     OW80733   3.443   4.751   2.382 -0.1523 -0.1047 -0.0487
58257SOL    HW180734   3.450   4.841   2.414 -1.0000 -0.5514  1.5068
58257SOL    HW280735   3.351   4.728   2.395 -0.1386 -0.9178 -1.2437
58258SOL     OW80736   0.714  12.464  12.478  0.1132 -0.5138 -0.0195
58258SOL    HW180737   0.619  12.467  12.490  0.1088 -0.6808 -0.0117
58258SOL    HW280738   0.739  12.555  12.464 -0.3872 -0.6813 -2.5671
58259SOL     OW80739   3.977   3.622  10.620  0.2388 -0.1175  0.2475
58259SOL    HW180740   4.070   3.617  10.597 -0.4553  2.1020 -4.1995
58259SOL    HW280741   3.972   3.686  10.690  2.0726 -1.2639  1.5031
58260SOL     OW80742   2.879   5.501   5.793 -0.1086 -0.6535 -0.5834
58260SOL    HW180743   2.809   5.544   5.744 -1.1124 -2.4237 -0.8041
58260SOL    HW280744   2.918   5.571   5.845  0.0074  1.0111 -2.7417
58261SOL     OW80745   1.649  10.640   7.069  0.3443 -0.7331  0.2458
58261SOL    HW180746   1.707  10.589   7.014 -0.1993 -0.8632 -0.2094
58261SOL    HW280747   1.562  10.602   7.056 -0.1999  0.7110 -0.6307
58262SOL     OW80748   4.588   1.532   4.457  0.6722  0.1594  0.2998
58262SOL    HW180749   4.599   1.616   4.413  0.6031 -1.1702 -2.4575
58262SOL    HW280750   4.676   1.494   4.459  0.4627 -0.3503  0.0895
58263SOL     OW80751   8.399   3.379   6.521  0.0758  0.0314  0.1397
58263SOL    HW180752   8.358   3.336   6.447  3.1736 -1.1485 -1.0463
58263SOL    HW280753   8.371   3.327   6.597  0.6622 -1.7880 -0.8188
58264SOL     OW80754   9.090   4.264   2.638 -0.0507 -0.3245  0.0117
58264SOL    HW180755   9.056   4.341   2.593  0.5476  0.8642  1.4827
58264SOL    HW280756   9.018   4.235   2.694 -0.4569 -1.1940 -0.9292
58265SOL     OW80757   6.959   0.383  10.660 -0.0148  0.4036  0.1554
58265SOL    HW180758   6.996   0.412  10.743 -0.1665  1.3570 -0.0979
58265SOL    HW280759   6.906   0.307  10.682 -0.1850  0.7463  0.9512
58266SOL     OW80760  12.285   4.895   7.601 -0.0238  0.8409 -0.1503
58266SOL    HW180761  12.275   4.800   7.604  0.2640  0.8226  0.6092
58266SOL    HW280762  12.369   4.909   7.557  0.7683  0.6601  1.2251
58267SOL     OW80763   7.088   2.866   2.096  0.4410  0.0561 -0.3641
58267SOL    HW180764   7.029   2.792   2.088  0.2717  0.3765 -3.0639
58267SOL    HW280765   7.143   2.862   2.018  0.7141  2.5087 -0.3953
58268SOL     OW80766   3.242   2.198   5.731 -0.2233 -0.8134  0.2434
58268SOL    HW180767   3.331   2.232   5.717  0.5753 -2.2465  1.5522
58268SOL    HW280768   3.209   2.180   5.643  0.2879  0.8769 -0.3368
58269SOL     OW80769  10.262   0.593  10.637 -0.7803 -0.2688 -0.2826
58269SOL    HW180770  10.354   0.576  10.620 -0.5283  0.4988  0.2390
58269SOL    HW280771  10.233   0.520  10.691 -0.1572  0.0694  0.5308
58270SOL     OW80772   5.142  10.132  10.604  0.0621 -0.1170  0.1861
58270SOL    HW180773   5.131  10.210  10.548 -2.8328 -0.8027 -0.3804
58270SOL    HW280774   5.206  10.079  10.558  1.1452  1.3488 -0.0818
58271SOL     OW80775  10.333   6.648   3.220  0.1921 -0.5139  0.1186
58271SOL    HW180776  10.364   6.725   3.267 -0.4811 -1.1580  1.6887
58271SOL    HW280777  10.413   6.600   3.198  0.5462  0.0558  0.1396
58272SOL     OW80778   9.480   3.532   2.856 -0.0035 -0.0042 -0.0066
58272SOL    HW180779   9.415   3.557   2.922  0.9401 -0.4630  1.1381
58272SOL    HW280780   9.508   3.615   2.818 -0.4891  0.2789  0.2340
58273SOL     OW80781   5.649   8.437   2.354  0.0708 -0.4527 -0.1258
58273SOL    HW180782   5.620   8.526   2.371  2.1627  0.5255 -1.3156
58273SOL    HW280783   5.681   8.405   2.439 -0.9441 -0.1949  0.3628
58274SOL     OW80784  11.042  10.687   4.801  0.2047 -0.4045 -0.3344
58274SOL    HW180785  11.027  10.781   4.795 -0.5828 -0.3118  2.1523
58274SOL    HW280786  10.993  10.650   4.727  0.0755  1.0563 -1.0111
58275SOL     OW80787   3.204   1.619   5.840  0.3541  0.4761 -0.2100
58275SOL    HW180788   3.176   1.619   5.931  0.7154 -0.6081 -0.0894
58275SOL    HW280789   3.281   1.675   5.838 -1.6326  3.4260 -0.5204
58276SOL     OW80790   7.577   4.569   6.796 -0.1601 -0.2098 -0.6465
58276SOL    HW180791   7.599   4.657   6.765 -1.2540 -0.1521 -1.3259
58276SOL    HW280792   7.518   4.583   6.870  1.2511 -0.3726  0.5639
58277SOL     OW80793  11.751   0.062  12.375  0.2415  0.2565  0.3051
58277SOL    HW180794  11.705  -0.002  12.319  0.4292 -1.4392  1.9861
58277SOL    HW280795  11.834   0.019  12.397  0.0600  0.7357  2.0759
58278SOL     OW80796   0.737   4.524  11.525 -0.2852  0.0276 -0.2288
58278SOL    HW180797   0.708   4.551  11.612  0.6629 -0.9028  0.3902
58278SOL    HW280798   0.656   4.517  11.474 -0.9015  0.0125  0.7261
58279SOL     OW80799   5.616   4.028   0.028 -0.3516 -0.3512 -0.2153
58279SOL    HW180800   5.587   3.942   0.058  0.9644 -0.3830  1.0797
58279SOL    HW280801   5.712   4.024   0.032 -0.2286  0.7556 -1.3826
58280SOL     OW80802   0.318   0.129   3.052 -0.1568  0.2466  0.1863
58280SOL    HW180803   0.413   0.142   3.056  0.2006 -1.1114 -2.2964
58280SOL    HW280804   0.289   0.183   2.979 -0.9610 -0.9220 -0.3913
58281SOL     OW80805   4.176   0.305   3.362  0.4665 -0.2984  0.4231
58281SOL    HW180806   4.218   0.319   3.277  0.4692  0.4839  0.5420
58281SOL    HW280807   4.117   0.231   3.348 -0.5566  0.6807 -0.6353
58282SOL     OW80808   7.191  11.636   2.730  0.3858  0.2756  0.1437
58282SOL    HW180809   7.123  11.571   2.749  0.6959 -0.7859 -2.1116
58282SOL    HW280810   7.188  11.696   2.805 -1.7233 -0.8130  1.0145
58283SOL     OW80811   9.068   3.593   2.269  0.2138 -0.4298 -0.1802
58283SOL    HW180812   9.129   3.583   2.196  1.5594 -0.6819  0.9275
58283SOL    HW280813   9.025   3.508   2.276  0.0338 -0.3860 -0.7102
58284SOL     OW80814  11.848   2.100   0.140  0.0107  0.4747 -0.2987
58284SOL    HW180815  11.898   2.085   0.059  1.2711 -3.1447  0.9522
58284SOL    HW280816  11.767   2.052   0.128 -0.8589  1.8461 -0.2090
58285SOL     OW80817   8.069   8.332   8.063  0.0686 -0.0367  0.8016
58285SOL    HW180818   7.980   8.350   8.031  0.5162 -1.3735 -1.3803
58285SOL    HW280819   8.061   8.334   8.158 -1.8600  1.8561  0.6739
58286SOL     OW80820   9.067   2.706  11.655  0.3580 -0.0645  0.2558
58286SOL    HW180821   9.047   2.612  11.660 -0.6765  0.0136 -1.5225
58286SOL    HW280822   8.982   2.749  11.658  0.4482  0.5397 -2.8087
58287SOL     OW80823   1.377   2.483   8.512  0.1972 -0.0968  0.1265
58287SOL    HW180824   1.284   2.487   8.535 -0.2120  0.4408 -1.4920
58287SOL    HW280825   1.396   2.389   8.507 -0.8598 -0.2606 -1.6707
58288SOL     OW80826   2.116   4.415  10.583  0.4027 -0.6531 -0.4904
58288SOL    HW180827   2.024   4.412  10.609 -0.0699 -0.6680 -2.1030
58288SOL    HW280828   2.123   4.489  10.523  1.5975 -0.2325  0.1232
58289SOL     OW80829   8.537   4.517   5.620 -0.0848  0.0476 -0.4928
58289SOL    HW180830   8.479   4.568   5.564 -0.9181 -1.0364 -0.6539
58289SOL    HW280831   8.487   4.504   5.701  0.9672  1.3104  0.4125
58290SOL     OW80832  11.593   2.277   0.001  0.4982  0.6285  0.1987
58290SOL    HW180833  11.673   2.303  -0.044 -0.3151 -0.0771 -1.7970
58290SOL    HW280834  11.545   2.225  -0.064 -1.3413  0.5988  1.4975
58291SOL     OW80835   7.207   7.960   1.243  0.2100  0.1531  0.6435
58291SOL    HW180836   7.285   7.957   1.188  0.9426  1.2152  1.5952
58291SOL    HW280837   7.171   7.871   1.239  0.5232  0.0770 -1.1225
58292SOL     OW80838   2.447   1.077   3.717  0.0198 -0.4688  0.2888
58292SOL    HW180839   2.504   1.085   3.640 -0.3465  3.2285  0.2210
58292SOL    HW280840   2.508   1.064   3.790  1.0129  2.1967  0.0619
58293SOL     OW80841   1.125   0.492  12.066  0.0751 -0.0032 -0.1574
58293SOL    HW180842   1.167   0.552  12.127  0.2960 -0.8608  0.5662
58293SOL    HW280843   1.197   0.440  12.030 -0.2943 -1.3734  0.9690
58294SOL     OW80844  12.123  11.241   5.565  0.7104 -0.2064 -0.3269
58294SOL    HW180845  12.065  11.192   5.508 -0.4501  0.1806  0.4802
58294SOL    HW280846  12.142  11.322   5.517  0.2138 -0.1384 -0.4104
58295SOL     OW80847   0.452   9.919   5.584 -0.1335 -0.0080 -1.0557
58295SOL    HW180848   0.379   9.862   5.565 -1.3075  1.6863 -1.9037
58295SOL    HW280849   0.526   9.881   5.535 -0.3627 -1.7857 -0.1007
58296SOL     OW80850  12.488   9.347  11.070 -0.0652  0.1395 -0.1969
58296SOL    HW180851  12.428   9.379  11.003 -0.2424 -0.1248 -0.1664
58296SOL    HW280852  12.492   9.418  11.134  0.9566  0.8486 -1.0192
58297SOL     OW80853   0.797   0.229  12.456  0.1575 -0.0779 -0.1745
58297SOL    HW180854   0.709   0.266  12.464  0.7433  1.1194  1.1946
58297SOL    HW280855   0.828   0.260  12.372 -0.6831 -0.4292 -0.6276
58298SOL     OW80856  11.825  10.563  10.534  0.0147  0.2967 -0.4244
58298SOL    HW180857  11.834  10.657  10.549 -0.6084  0.2464  0.2927
58298SOL    HW280858  11.915  10.530  10.537  0.4515  1.1159 -2.5088
58299SOL     OW80859  10.222  10.678  11.971 -0.2222 -0.3359  0.0079
58299SOL    HW180860  10.212  10.585  11.993 -1.3592 -0.3138 -0.3433
58299SOL    HW280861  10.167  10.724  12.034  0.3038  0.1019  0.1509
58300SOL     OW80862   0.670   7.946   1.817  0.0437 -0.0963  0.0512
58300SOL    HW180863   0.750   7.899   1.842  0.0369  0.3080  0.8530
58300SOL    HW280864   0.610   7.931   1.890 -0.0606  0.9046  0.1831
58301SOL     OW80865   6.362   3.132   0.116  0.2526  0.2640 -0.3544
58301SOL    HW180866   6.377   3.041   0.140  1.1981  0.6718  0.6858
58301SOL    HW280867   6.439   3.156   0.064  1.0199  1.0232  1.0668
58302SOL     OW80868   7.282   7.598   3.730 -0.3713 -0.0421 -0.5139
58302SOL    HW180869   7.219   7.568   3.664 -0.5551 -1.2335  0.1747
58302SOL    HW280870   7.235   7.589   3.813  0.4830 -0.3332 -0.0528
58303SOL     OW80871   1.368   7.602   2.496  0.2534 -0.1559  0.6616
58303SOL    HW180872   1.461   7.618   2.479  0.4208 -1.5756  0.1263
58303SOL    HW280873   1.329   7.592   2.409 -0.5491  1.0423  0.8518
58304SOL     OW80874   1.069  10.217   5.073 -0.2661 -0.4460  0.1031
58304SOL    HW180875   0.992  10.265   5.044  0.0840 -0.0712 -0.2252
58304SOL    HW280876   1.042  10.175   5.155 -0.8426 -0.3953 -0.0603
58305SOL     OW80877  11.095   2.417   0.517  0.1778  0.0975  0.5921
58305SOL    HW180878  11.062   2.402   0.605 -2.9134  1.6391 -0.1602
58305SOL    HW280879  11.127   2.508   0.519 -0.6343  0.4108 -0.0225
58306SOL     OW80880   0.569  10.187   8.343  0.7985 -0.5283  0.3879
58306SOL    HW180881   0.627  10.113   8.360  0.6372 -0.4043  1.6000
58306SOL    HW280882   0.515  10.194   8.422 -0.9011 -0.6607 -0.7085
58307SOL     OW80883   5.385   5.632   9.556  0.0588 -0.0269  0.0119
58307SOL    HW180884   5.316   5.576   9.520 -0.0327  1.3124 -2.1106
58307SOL    HW280885   5.339   5.698   9.607 -0.0938 -0.1292  0.0060
58308SOL     OW80886   2.642   6.723   0.348 -0.0850 -0.3552  0.1277
58308SOL    HW180887   2.592   6.694   0.271  0.4268 -1.1615  0.0899
58308SOL    HW280888   2.575   6.739   0.415 -0.3933 -1.6166  0.1431
58309SOL     OW80889  11.744   9.438   3.453 -0.6123 -0.2382  0.2826
58309SOL    HW180890  11.680   9.495   3.495  0.2559  1.5598 -0.7462
58309SOL    HW280891  11.692   9.380   3.397 -1.4694 -0.1448  0.9673
58310SOL     OW80892   8.952  12.339   8.170  0.2309 -0.2577 -0.4043
58310SOL    HW180893   9.039  12.346   8.132 -0.1830  1.6002 -1.1226
58310SOL    HW280894   8.926  12.430   8.188 -0.6419 -0.8984  1.9580
58311SOL     OW80895  10.990   0.203   9.925 -0.4891  0.2767  0.2763
58311SOL    HW180896  11.049   0.142   9.881  0.0758  0.7565  0.3540
58311SOL    HW280897  11.033   0.223  10.008  1.0526  3.3158 -1.0810
58312SOL     OW80898  11.166   8.134  10.857  0.3113  0.1821  0.2275
58312SOL    HW180899  11.179   8.119  10.950 -1.6776  1.3391  0.7554
58312SOL    HW280900  11.251   8.115  10.817  0.3850 -3.5493  1.8021
58313SOL     OW80901   7.378   4.091   2.795  0.7039  0.6192  0.2409
58313SOL    HW180902   7.332   4.124   2.872 -1.9265 -2.2527  0.0918
58313SOL    HW280903   7.400   4.000   2.817  3.8313  1.0024 -0.8524
58314SOL     OW80904   5.890   5.126  11.686 -0.3434  0.3109 -0.1105
58314SOL    HW180905   5.985   5.128  11.695 -0.1960 -2.0033 -0.6462
58314SOL    HW280906   5.865   5.218  11.678  1.7251  1.0400  1.0484
58315SOL     OW80907   6.438   0.483   9.250 -0.2381 -0.0278 -0.5271
58315SOL    HW180908   6.359   0.454   9.297  1.1539 -2.1403  0.6964
58315SOL    HW280909   6.477   0.402   9.217  2.2069  0.7514  0.2341
58316SOL     OW80910   0.271   4.215   3.889 -0.2586 -0.4342  0.2312
58316SOL    HW180911   0.176   4.207   3.889 -0.3887  0.8859  0.7186
58316SOL    HW280912   0.295   4.219   3.796 -0.9324  1.4885  0.0873
58317SOL     OW80913  11.169   0.507  10.142  0.3062  0.5837 -0.1839
58317SOL    HW180914  11.235   0.510  10.212  0.4384  2.4052 -0.3370
58317SOL    HW280915  11.095   0.460  10.181  0.6590  0.9231  0.9365
58318SOL     OW80916   8.385   0.689   2.602 -0.4145 -0.4366  0.2219
58318SOL    HW180917   8.301   0.734   2.609 -0.8515 -1.1013 -0.4898
58318SOL    HW280918   8.441   0.733   2.665 -1.2309  0.1681  0.5521
58319SOL     OW80919  12.003   2.432   1.915 -0.4203 -0.1653 -0.1043
58319SOL    HW180920  12.086   2.432   1.961 -0.6547 -0.1734  0.3293
58319SOL    HW280921  11.937   2.425   1.984 -0.7211 -2.2903 -0.5426
58320SOL     OW80922  12.016  10.332   2.174 -0.9329 -0.5949  0.1794
58320SOL    HW180923  11.986  10.422   2.185 -1.0525 -0.6284  0.1320
58320SOL    HW280924  12.001  10.291   2.259  0.3692 -0.2128  0.6204
58321SOL     OW80925   8.621   5.101   8.824  0.4992  0.0672  0.2294
58321SOL    HW180926   8.717   5.104   8.818  0.9167 -3.7865  1.8762
58321SOL    HW280927   8.594   5.047   8.751 -0.2352 -0.1242  0.6345
58322SOL     OW80928  11.776   0.257   1.943 -0.0704 -0.6410  0.3898
58322SOL    HW180929  11.782   0.309   2.024  0.6571  0.6549 -0.4522
58322SOL    HW280930  11.719   0.308   1.886 -1.5157 -2.1120  0.4629
58323SOL     OW80931   1.081   6.048   1.711  0.0894 -0.1289  0.2391
58323SOL    HW180932   1.160   6.102   1.721  0.3217  0.1277 -2.2447
58323SOL    HW280933   1.027   6.070   1.787  1.4144  1.4445  0.7869
58324SOL     OW80934   7.658   3.332   0.738 -0.2349  0.1248 -0.1226
58324SOL    HW180935   7.587   3.322   0.674 -0.6188 -0.9315  0.4463
58324SOL    HW280936   7.626   3.397   0.800 -0.7747 -0.4237  0.1907
58325SOL     OW80937   3.332   9.575   1.855 -0.4651  0.1925 -0.2610
58325SOL    HW180938   3.328   9.508   1.922  0.3786 -1.1149 -1.4728
58325SOL    HW280939   3.346   9.527   1.773 -0.1494  1.8163 -1.2063
58326SOL     OW80940   0.041  10.985   2.099 -0.6586 -0.4260 -0.7875
58326SOL    HW180941  -0.033  11.042   2.078 -0.7498 -0.0824  0.3738
58326SOL    HW280942   0.077  10.960   2.014 -3.2308 -2.1452 -1.4929
58327SOL     OW80943   5.597   8.432   3.264 -0.0035 -0.1518 -0.4287
58327SOL    HW180944   5.583   8.502   3.200  0.3769  0.4232  0.1122
58327SOL    HW280945   5.688   8.443   3.291 -0.7842  1.0260  1.9023
58328SOL     OW80946   5.591   6.475   6.798 -0.4747  0.3927 -0.0564
58328SOL    HW180947   5.497   6.483   6.786 -0.4318 -1.5272 -2.4069
58328SOL    HW280948   5.604   6.384   6.825  0.7631  0.3552 -0.6866
58329SOL     OW80949   9.570   3.758  12.448 -0.2440 -0.0881  0.5874
58329SOL    HW180950   9.524   3.722  12.524  0.7923 -0.7829  0.9028
58329SOL    HW280951   9.661   3.768  12.477 -0.2386  1.6864  0.1277
58330SOL     OW80952   0.787   8.520   0.594  0.0365 -0.0994 -0.0788
58330SOL    HW180953   0.778   8.610   0.625 -0.6202  0.1522 -0.9760
58330SOL    HW280954   0.698   8.485   0.595  0.2775 -0.7305  0.2173
58331SOL     OW80955   8.781   9.601   2.784  0.0315 -0.1654  0.4867
58331SOL    HW180956   8.733   9.673   2.743 -0.8986 -1.4461 -0.7547
58331SOL    HW280957   8.717   9.560   2.843  0.0653 -0.8894  0.0387
58332SOL     OW80958   3.858   8.242   6.092 -0.1663  0.2908 -0.0387
58332SOL    HW180959   3.887   8.217   6.180 -0.5341  2.1949  0.6517
58332SOL    HW280960   3.855   8.159   6.044  1.6562 -0.5843  1.2482
58333SOL     OW80961   2.874   1.272   2.903 -0.2461  0.2209  0.5543
58333SOL    HW180962   2.875   1.288   2.809 -0.5209 -1.0366  0.3076
58333SOL    HW280963   2.787   1.234   2.919  0.8779 -2.4971  0.7427
58334SOL     OW80964   2.549   5.506   0.540  0.6413  0.1446 -0.8334
58334SOL    HW180965   2.600   5.431   0.509  2.3617  1.5011 -1.4703
58334SOL    HW280966   2.597   5.537   0.618 -0.6349 -0.0224  0.0501
58335SOL     OW80967   9.117  12.148  11.410  0.1475  0.0147  0.2243
58335SOL    HW180968   9.040  12.202  11.423  1.2692  1.9782 -0.8377
58335SOL    HW280969   9.109  12.115  11.320  0.2094 -0.3799  0.3590
58336SOL     OW80970   2.795   8.882   6.399 -0.2341  0.0811  0.2559
58336SOL    HW180971   2.880   8.881   6.442 -0.5530 -1.5524  0.9311
58336SOL    HW280972   2.795   8.803   6.344 -1.5369 -0.3187  0.7834
58337SOL     OW80973   2.251   9.991   1.471 -0.1617  0.1982  0.1953
58337SOL    HW180974   2.263   9.921   1.406  1.2660  0.5514  0.0439
58337SOL    HW280975   2.156   9.999   1.480 -0.3687 -1.8035  0.2722
58338SOL     OW80976   0.493  12.468  11.585  0.0273  0.3956  0.0061
58338SOL    HW180977   0.418  12.483  11.642  0.0502  1.1659 -0.1576
58338SOL    HW280978   0.462  12.488  11.497  0.8789  2.4921  0.1248
58339SOL     OW80979  10.710   5.983   2.176  0.1916 -0.1723 -0.0070
58339SOL    HW180980  10.683   6.068   2.212  2.3010  1.0359 -1.0779
58339SOL    HW280981  10.694   5.991   2.082  0.5538 -0.9055 -0.1353
58340SOL     OW80982  10.072   8.251  11.956 -1.1665  0.1764 -0.2527
58340SOL    HW180983   9.982   8.223  11.971 -1.5917  2.1525  1.3994
58340SOL    HW280984  10.065   8.345  11.937  0.3761 -0.0967 -2.5851
58341SOL     OW80985   9.126   7.464   1.665  0.5546 -0.1631  0.0287
58341SOL    HW180986   9.172   7.537   1.706 -0.3796  0.9382 -0.8071
58341SOL    HW280987   9.191   7.423   1.608  0.4974  1.5336 -1.3351
58342SOL     OW80988   1.899   7.066   4.229  0.5965  0.0230 -0.5280
58342SOL    HW180989   1.950   7.069   4.310  0.3076 -0.6016 -0.3172
58342SOL    HW280990   1.964   7.062   4.159  0.8525  0.7860 -0.3408
58343SOL     OW80991  10.198   5.046   5.533 -0.2002  0.6212  0.1857
58343SOL    HW180992  10.187   5.118   5.472  0.1021 -0.6756 -1.4714
58343SOL    HW280993  10.115   4.998   5.529  0.6838 -0.8967 -1.1981
58344SOL     OW80994   2.735   9.956   9.296  0.4074 -0.2613 -0.1976
58344SOL    HW180995   2.821   9.915   9.304  0.1700 -0.8350 -0.5078
58344SOL    HW280996   2.735   9.994   9.208 -0.1245 -1.3917 -0.7071
58345SOL     OW80997   9.902   9.726   1.184 -0.2877 -0.2714 -0.8067
58345SOL    HW180998   9.997   9.710   1.177 -0.3444  0.1453 -3.1801
58345SOL    HW280999   9.887   9.807   1.136 -1.7939  0.1015  0.2006
58346SOL     OW81000   5.049   6.823   2.962  0.2749 -0.2067  0.2231
58346SOL    HW181001   4.986   6.833   3.034  1.3648  1.6031  0.9884
58346SOL    HW281002   5.056   6.911   2.925  0.6376 -0.8743 -1.3613
58347SOL     OW81003   0.226   8.004  10.778 -0.2923  0.2639 -0.4908
58347SOL    HW181004   0.174   8.074  10.817 -1.0046  0.1755 -1.2734
58347SOL    HW281005   0.184   7.985  10.694  1.6875  1.0518 -1.7497
58348SOL     OW81006   3.538   1.573   2.435 -0.4695  0.1322  0.5947
58348SOL    HW181007   3.495   1.488   2.441  0.2971 -0.1474  3.4588
58348SOL    HW281008   3.613   1.558   2.378 -0.3184 -1.1602  1.0899
58349SOL     OW81009   7.412   2.357   8.322  0.3110 -0.1826 -0.0441
58349SOL    HW181010   7.359   2.434   8.304 -0.9680 -0.3621  2.4182
58349SOL    HW281011   7.353   2.283   8.307  1.7849 -0.8693 -3.2859
58350SOL     OW81012   9.664   3.363   1.552 -0.5624  0.2455  1.1603
58350SOL    HW181013   9.684   3.276   1.516 -0.2229  0.7427  0.1077
58350SOL    HW281014   9.568   3.368   1.552 -0.5832 -0.1440  1.2731
58351SOL     OW81015   1.203   3.748   4.635 -0.0263  0.6125 -0.7239
58351SOL    HW181016   1.287   3.747   4.680 -0.2129 -1.4858 -0.3215
58351SOL    HW281017   1.149   3.808   4.687  1.4064  2.6472 -1.4714
58352SOL     OW81018   0.104   1.750  10.449  0.1738 -1.0617  0.0390
58352SOL    HW181019   0.133   1.731  10.538  1.0524 -2.1583 -0.4546
58352SOL    HW281020   0.185   1.749  10.397 -0.2362  0.3177 -0.6538
58353SOL     OW81021  12.310   6.744  10.090 -0.5937 -0.4369 -0.6827
58353SOL    HW181022  12.383   6.771  10.034 -1.6551  0.1823 -1.8022
58353SOL    HW281023  12.270   6.671  10.045 -2.6630  1.2928 -1.8483
58354SOL     OW81024   8.254  11.939  10.765 -0.1350 -0.2896 -0.0136
58354SOL    HW181025   8.332  11.883  10.775 -0.5003 -0.7150  0.5023
58354SOL    HW281026   8.200  11.919  10.841  0.2348  1.6230  0.8006
58355SOL     OW81027   1.968   2.754   1.457  0.0119  0.6322  0.6580
58355SOL    HW181028   1.874   2.743   1.468 -0.1539  0.0061 -1.1078
58355SOL    HW281029   1.978   2.803   1.375  1.2146  0.2874  0.5684
58356SOL     OW81030   9.901   6.082  11.247  0.4544 -0.2561  0.3677
58356SOL    HW181031   9.936   6.090  11.336  0.8572  0.2787  0.1653
58356SOL    HW281032   9.821   6.030  11.258  0.0426  0.5116  1.1660
58357SOL     OW81033   0.602   2.509  11.238  0.4728  0.0254  0.4757
58357SOL    HW181034   0.615   2.450  11.312  2.3745 -0.1084  0.0855
58357SOL    HW281035   0.563   2.454  11.170 -4.0150  0.7250  2.1038
58358SOL     OW81036   1.152   7.603   1.331 -0.7501 -0.3094 -0.1590
58358SOL    HW181037   1.173   7.663   1.403  0.4765 -1.8333  0.8081
58358SOL    HW281038   1.198   7.639   1.256  1.7930 -1.1514  0.9124
58359SOL     OW81039   7.881   6.277   1.765  0.3809 -0.4486 -0.2915
58359SOL    HW181040   7.897   6.191   1.726  0.5610 -1.0627  1.0841
58359SOL    HW281041   7.809   6.262   1.826 -1.0874  0.8729 -1.6038
58360SOL     OW81042   1.836   8.257   9.668 -0.0869 -0.1890 -0.1682
58360SOL    HW181043   1.774   8.185   9.682  1.1686 -1.1057  0.9510
58360SOL    HW281044   1.899   8.248   9.739  0.0400  2.1292  0.0812
58361SOL     OW81045   1.844   8.558   8.294  0.0739  0.4697 -0.1320
58361SOL    HW181046   1.795   8.640   8.296  0.4611  0.7420 -1.0928
58361SOL    HW281047   1.907   8.569   8.222  1.6714  0.1940  1.1663
58362SOL     OW81048   2.733   0.434  10.225 -0.3821  0.2248 -0.6938
58362SOL    HW181049   2.694   0.367  10.280  0.0003  0.4569 -0.1411
58362SOL    HW281050   2.793   0.481  10.282  1.3898 -0.6690 -1.7443
58363SOL     OW81051   0.333   5.026  11.552  0.0888  0.6649 -0.1638
58363SOL    HW181052   0.278   5.009  11.628  0.7286 -1.3656 -0.0974
58363SOL    HW281053   0.276   5.007  11.477  0.4430 -0.7089 -0.1067
58364SOL     OW81054   2.218  11.157   1.992  0.3559 -0.0532 -0.3401
58364SOL    HW181055   2.156  11.165   1.919  0.0306  0.0486 -0.0531
58364SOL    HW281056   2.171  11.105   2.058  0.0592  1.1820  0.4391
58365SOL     OW81057   0.175   0.084  10.960  0.1548 -0.1281 -0.4896
58365SOL    HW181058   0.132   0.161  10.996  0.3757 -0.4050  0.3818
58365SOL    HW281059   0.212   0.039  11.036  0.8946 -0.5633 -1.0905
58366SOL     OW81060   5.747  10.443   0.337  0.1652 -0.6159 -0.1757
58366SOL    HW181061   5.774  10.454   0.428 -1.5424 -0.0471  0.3105
58366SOL    HW281062   5.827  10.418   0.290  0.9054 -1.7728  1.6239
58367SOL     OW81063   7.467   5.564   4.559  0.2389  0.2544  1.1972
58367SOL    HW181064   7.561   5.555   4.576  0.2639 -1.7130  0.3050
58367SOL    HW281065   7.462   5.629   4.488  1.0049 -0.1598  0.7465
58368SOL     OW81066  11.699   2.498  12.007 -0.2916  0.0325 -0.3781
58368SOL    HW181067  11.734   2.462  11.926  0.2614 -2.6222  0.9082
58368SOL    HW281068  11.760   2.568  12.032 -0.0353  0.3459 -1.8105
58369SOL     OW81069   5.048   0.680   8.125 -0.0198 -0.2298 -0.3794
58369SOL    HW181070   5.052   0.590   8.091  0.0712 -0.2912 -0.2076
58369SOL    HW281071   4.962   0.687   8.166  0.6469 -0.8197  1.2026
58370SOL     OW81072  11.599   9.570   6.082  0.1305 -0.5333  0.3466
58370SOL    HW181073  11.646   9.652   6.101 -0.5010  0.2548 -1.3196
58370SOL    HW281074  11.666   9.503   6.088  1.0068  0.3020  0.2131
58371SOL     OW81075  10.608   3.036   1.939  0.2476  0.2263  0.5877
58371SOL    HW181076  10.668   3.094   1.893 -2.1799  2.6392  0.2068
58371SOL    HW281077  10.639   3.038   2.030  2.5975 -1.2496 -0.0989
58372SOL     OW81078   4.555   3.413   3.804 -0.7490  0.0784  0.3394
58372SOL    HW181079   4.574   3.327   3.841 -1.2498 -1.6661 -3.0606
58372SOL    HW281080   4.467   3.434   3.836 -0.4349 -0.4061  1.5712
58373SOL     OW81081   9.886  10.750   8.263 -0.2474  0.5679 -0.2709
58373SOL    HW181082   9.844  10.719   8.183  0.5551 -1.9154  0.1912
58373SOL    HW281083   9.980  10.734   8.249 -0.0483  0.5224  0.9792
58374SOL     OW81084   7.587   4.787   4.867  0.2531  0.2259  0.5172
58374SOL    HW181085   7.579   4.707   4.815 -0.0807  1.5326 -1.5582
58374SOL    HW281086   7.560   4.761   4.955  1.3781 -2.2126  0.2137
58375SOL     OW81087   8.470   0.277   5.284  0.0458  0.6770  0.5454
58375SOL    HW181088   8.412   0.292   5.209  1.0579 -2.1055 -0.9354
58375SOL    HW281089   8.414   0.236   5.350 -0.7710  2.8308  1.2901
58376SOL     OW81090   4.364   5.442   5.848 -0.0690 -0.2839 -0.3740
58376SOL    HW181091   4.369   5.387   5.770  1.2009 -1.1674  0.2728
58376SOL    HW281092   4.387   5.382   5.920  0.3473  0.8653  0.4788
58377SOL     OW81093   2.800   1.999   4.280  0.2419  0.3292 -0.1535
58377SOL    HW181094   2.728   2.044   4.324  0.9197  0.6501  0.6403
58377SOL    HW281095   2.877   2.019   4.333  0.6370 -1.3982 -0.0125
58378SOL     OW81096   0.237  12.174   1.744 -0.1897  0.1934  0.1308
58378SOL    HW181097   0.189  12.204   1.667  1.0384 -0.9244 -1.1333
58378SOL    HW281098   0.316  12.132   1.709  0.9465  0.5809  2.0540
58379SOL     OW81099  10.944   5.944   6.954  0.2196 -0.3253 -0.2206
58379SOL    HW181100  11.026   5.899   6.972  0.9623  0.2372 -1.9607
58379SOL    HW281101  10.882   5.908   7.017  1.8933 -0.4482  1.4176
58380SOL     OW81102   8.802   9.243   2.611  0.1506  0.1968 -1.0753
58380SOL    HW181103   8.815   9.331   2.574 -1.7658  1.3807  0.8190
58380SOL    HW281104   8.876   9.231   2.671 -0.1469  1.0534 -0.5089
58381SOL     OW81105   9.003   1.645   4.596 -0.2830 -0.3339 -0.4849
58381SOL    HW181106   8.942   1.579   4.562 -2.4056  1.1319  0.2666
58381SOL    HW281107   9.080   1.595   4.623 -0.8657 -2.2031 -2.0619
58382SOL     OW81108   5.776   1.744  11.604  0.1215  0.5887 -0.2113
58382SOL    HW181109   5.709   1.679  11.624  0.8239 -0.1189 -0.1086
58382SOL    HW281110   5.792   1.790  11.687 -1.3878  1.8993 -0.5887
58383SOL     OW81111   0.936   0.153   8.080 -0.4818 -0.6309 -0.7925
58383SOL    HW181112   0.914   0.246   8.083  1.1939 -0.2102 -0.0076
58383SOL    HW281113   0.883   0.113   8.149 -0.5904 -0.1068 -0.5699
58384SOL     OW81114  11.428   4.953  10.546 -0.4014 -0.0868 -0.5792
58384SOL    HW181115  11.423   4.946  10.642 -2.3867  0.3154 -0.6302
58384SOL    HW281116  11.473   5.036  10.531 -0.5803  0.1279  0.0133
58385SOL     OW81117  10.783   0.786   5.457 -0.2575  0.1312 -0.3570
58385SOL    HW181118  10.820   0.734   5.386 -1.6396 -2.1644  0.5187
58385SOL    HW281119  10.711   0.834   5.416  0.7940  1.1679 -1.0853
58386SOL     OW81120   7.000   5.480   5.784 -0.2149 -0.4005  0.1892
58386SOL    HW181121   7.064   5.485   5.855  3.6479  0.9313 -3.0181
58386SOL    HW281122   6.915   5.486   5.827  1.8195 -0.1064  4.6401
58387SOL     OW81123   1.864   3.148   1.418 -0.0900  0.0483  0.1108
58387SOL    HW181124   1.922   3.072   1.421 -0.6676 -0.3880  0.3364
58387SOL    HW281125   1.923   3.222   1.404  0.4799 -0.4365 -0.1151
58388SOL     OW81126   4.229  12.464   5.995 -0.1718  0.0271  0.0131
58388SOL    HW181127   4.191  12.515   6.067 -3.5512 -0.7806 -1.0683
58388SOL    HW281128   4.276  12.528   5.942  0.6762  0.9552  1.8015
58389SOL     OW81129   0.155   0.430   3.134  0.4219  0.0766 -0.5455
58389SOL    HW181130   0.170   0.404   3.043  0.6104  2.3260 -1.2225
58389SOL    HW281131   0.243   0.442   3.171  0.3375 -0.1986 -0.2432
58390SOL     OW81132   4.196   3.617   8.466  0.2070  0.1553  0.2826
58390SOL    HW181133   4.265   3.571   8.418 -0.5624  1.0368 -1.7861
58390SOL    HW281134   4.136   3.548   8.493  0.6713 -0.3723 -0.0023
58391SOL     OW81135   2.218   4.553   5.504 -0.1826  0.1017 -0.2833
58391SOL    HW181136   2.229   4.463   5.535  2.0031  0.6460  0.7220
58391SOL    HW281137   2.239   4.549   5.410  0.2795 -0.3995 -0.1658
58392SOL     OW81138   5.724   4.783   3.147 -0.7323 -0.2747 -0.6677
58392SOL    HW181139   5.714   4.878   3.147  1.3274 -0.0046  0.1297
58392SOL    HW281140   5.773   4.763   3.067  1.3523 -0.2616  0.5168
58393SOL     OW81141   2.178   2.523   1.129 -0.1342 -0.0485 -0.5618
58393SOL    HW181142   2.153   2.431   1.138  0.6686 -0.3907 -1.6673
58393SOL    HW281143   2.192   2.553   1.219  3.9756 -2.2743 -0.2332
58394SOL     OW81144   8.633   8.299   6.979  0.2775 -0.3005 -0.3404
58394SOL    HW181145   8.580   8.368   7.019 -1.2418 -0.6063 -1.7234
58394SOL    HW281146   8.655   8.333   6.892  0.8600 -0.9295 -0.4495
58395SOL     OW81147  12.305   1.123  10.899  0.5295  0.1207  0.1732
58395SOL    HW181148  12.368   1.193  10.916  0.0008  0.8091 -0.6085
58395SOL    HW281149  12.317   1.101  10.807  1.0823 -1.2410  0.5386
58396SOL     OW81150   6.874   2.275   1.125  0.6733 -0.6711 -0.2242
58396SOL    HW181151   6.803   2.253   1.064  0.9987  0.3145 -1.0013
58396SOL    HW281152   6.836   2.339   1.184 -0.0248 -2.5852  1.4897
58397SOL     OW81153   2.785   8.629   7.705  0.4423  0.0798  0.9359
58397SOL    HW181154   2.850   8.561   7.687  0.3249 -0.7528  3.3088
58397SOL    HW281155   2.728   8.629   7.628  3.8541  1.7225 -1.8335
58398SOL     OW81156   1.268   3.908  10.651  0.2540 -0.2682  0.2304
58398SOL    HW181157   1.266   3.972  10.723  0.0633  1.5718 -1.3153
58398SOL    HW281158   1.343   3.852  10.671  0.2652  0.2402  1.8029
58399SOL     OW81159   2.813  11.888  10.274  0.4056  0.2386  0.0757
58399SOL    HW181160   2.852  11.810  10.314 -0.8614 -1.0838 -1.1209
58399SOL    HW281161   2.883  11.924  10.219  0.9635 -0.1505  0.5269
58400SOL     OW81162   6.971   0.523   5.834 -0.2790  0.2944  0.0330
58400SOL    HW181163   6.962   0.463   5.908 -1.3706 -0.1371 -0.4132
58400SOL    HW281164   6.882   0.554   5.818 -0.5250 -1.3257 -2.4529
58401SOL     OW81165   4.168  10.518  10.941 -0.1561  0.0267 -0.0126
58401SOL    HW181166   4.242  10.555  10.893  0.5279 -1.5927 -0.2997
58401SOL    HW281167   4.208  10.465  11.010 -1.1180  1.1698  1.4673
58402SOL     OW81168   7.588  11.972   8.573 -0.0706 -0.0966 -0.1004
58402SOL    HW181169   7.661  12.008   8.623  1.5231 -1.7128 -1.1619
58402SOL    HW281170   7.543  12.048   8.537  1.9803  0.9216 -0.6385
58403SOL     OW81171   1.271   4.399  10.932  0.5143 -0.0059  0.5590
58403SOL    HW181172   1.219   4.320  10.939 -1.3019  0.8488 -1.8929
58403SOL    HW281173   1.357   4.369  10.901  0.6312 -1.1697  1.9142
58404SOL     OW81174   0.195   3.379   1.024 -0.2690  0.8225 -0.0475
58404SOL    HW181175   0.267   3.442   1.019  0.2514  0.3271  0.9665
58404SOL    HW281176   0.202   3.329   0.943  0.3938  0.9270 -0.0640
58405SOL     OW81177  10.407   2.793   2.355 -0.4428  0.0183  0.5872
58405SOL    HW181178  10.442   2.880   2.377 -2.5062  0.5370  2.0125
58405SOL    HW281179  10.426   2.739   2.432  2.7160 -1.5346 -1.0529
58406SOL     OW81180   3.970   2.713   7.960 -0.1519 -0.1545  0.0708
58406SOL    HW181181   3.884   2.724   7.918  0.3915  0.1686 -0.9943
58406SOL    HW281182   3.988   2.619   7.952  0.1578 -0.0240 -0.8643
58407SOL     OW81183   7.829   0.748   8.415 -0.1195 -0.2379  0.2969
58407SOL    HW181184   7.805   0.731   8.323 -1.1605 -0.3958  0.5830
58407SOL    HW281185   7.841   0.843   8.419 -1.9300  0.0225  0.3920
58408SOL     OW81186   4.905   0.319   9.843 -0.0354 -0.4377  0.6954
58408SOL    HW181187   4.899   0.378   9.769  0.1369 -0.7838  0.4031
58408SOL    HW281188   4.823   0.271   9.843 -0.7823  0.7626  1.7672
58409SOL     OW81189   9.951   4.835   2.821  0.9475  0.2437  0.2042
58409SOL    HW181190   9.962   4.889   2.900  1.5985 -0.4507  0.6004
58409SOL    HW281191  10.040   4.817   2.792  0.7431 -0.8875  0.2589
58410SOL     OW81192   3.255  11.592   6.084 -0.2567  0.1458 -0.6745
58410SOL    HW181193   3.324  11.643   6.127 -2.1789  2.0969  0.3034
58410SOL    HW281194   3.238  11.639   6.002 -0.5302 -0.2182 -0.8297
58411SOL     OW81195  11.090   3.614   8.571 -0.1161  0.0532 -0.0133
58411SOL    HW181196  11.146   3.547   8.533  0.0337  0.4144 -0.4361
58411SOL    HW281197  11.143   3.654   8.640  0.2373  0.5518 -0.5681
58412SOL     OW81198   0.440   4.095   9.635 -0.6056 -0.3338  0.7320
58412SOL    HW181199   0.499   4.037   9.683 -0.7198 -1.2062 -0.1473
58412SOL    HW281200   0.373   4.036   9.600  0.5668 -0.0644 -2.2006
58413SOL     OW81201  12.222   0.327   2.533  0.1180 -0.1393  0.2482
58413SOL    HW181202  12.278   0.301   2.606 -0.0765  1.4744  1.0096
58413SOL    HW281203  12.169   0.399   2.567  0.3312  0.9561 -1.6031
58414SOL     OW81204  10.235   6.547  12.420  0.1209 -0.6847 -0.0298
58414SOL    HW181205  10.207   6.638  12.424  0.0513 -0.6532 -0.9315
58414SOL    HW281206  10.318   6.545  12.468  0.3321 -0.0589 -0.3592
58415SOL     OW81207   0.945   2.912   2.863  0.0848  0.1530  0.1381
58415SOL    HW181208   0.971   2.857   2.936  2.3402  1.2771  0.2805
58415SOL    HW281209   0.866   2.956   2.892  0.1208 -0.5182  1.2976
58416SOL     OW81210  11.635   9.033   0.921 -0.6548  0.1022  0.8029
58416SOL    HW181211  11.632   9.076   0.835 -0.4740  0.6423  1.0655
58416SOL    HW281212  11.726   9.008   0.932 -0.8289 -0.7071  0.4833
58417SOL     OW81213  10.846   0.771  11.891 -0.1060 -0.1395 -0.5203
58417SOL    HW181214  10.882   0.683  11.878  0.2364 -0.3290  1.3568
58417SOL    HW281215  10.799   0.765  11.975  0.2374  1.5563 -0.1730
58418SOL     OW81216   6.949  10.390  11.604  0.7611 -0.4924 -0.6742
58418SOL    HW181217   6.873  10.424  11.651  1.4784 -0.5340  0.5541
58418SOL    HW281218   6.912  10.339  11.532 -0.3584  1.1467 -1.3326
58419SOL     OW81219   2.963   7.335   7.566  0.5897  0.1908 -0.2763
58419SOL    HW181220   3.001   7.421   7.547 -0.6373  0.5265 -1.3799
58419SOL    HW281221   2.879   7.354   7.606  0.2261 -0.4851 -0.6942
58420SOL     OW81222   3.656   5.854  10.974 -0.0582  0.0040  0.4634
58420SOL    HW181223   3.597   5.928  10.986 -0.7384  0.0422 -2.5383
58420SOL    HW281224   3.743   5.894  10.966 -0.4114  0.5028 -1.0557
58421SOL     OW81225   9.881   2.882  11.685  0.4727 -0.3506 -0.6534
58421SOL    HW181226   9.832   2.939  11.626  1.1783  0.3752 -0.5640
58421SOL    HW281227   9.826   2.874  11.763  0.0443 -0.3866 -0.9588
58422SOL     OW81228  10.614  10.966   6.611  0.0956  0.5920  0.3944
58422SOL    HW181229  10.636  10.998   6.523 -1.3909  0.3922 -0.0724
58422SOL    HW281230  10.628  10.871   6.605 -1.3670  0.3813 -0.0873
58423SOL     OW81231  10.563  11.159   9.648 -0.2077 -0.0769  0.3525
58423SOL    HW181232  10.635  11.216   9.619 -1.5340  1.3542 -0.2529
58423SOL    HW281233  10.511  11.214   9.706 -1.0527 -0.9741  0.4643
58424SOL     OW81234  12.426   3.374   5.449 -0.3020  0.1056  0.3391
58424SOL    HW181235  12.406   3.323   5.528  0.7121  1.3867  1.4838
58424SOL    HW281236  12.341   3.408   5.421 -0.8010 -1.0896  0.3310
58425SOL     OW81237   1.797   8.718  12.407 -0.0007  0.5246  0.0428
58425SOL    HW181238   1.723   8.778  12.413 -0.6005 -0.2984  1.4303
58425SOL    HW281239   1.809   8.686  12.497  1.1819 -0.3643 -0.4091
58426SOL     OW81240  10.306   1.488   5.797 -0.3310  0.0980 -0.0337
58426SOL    HW181241  10.376   1.530   5.748  0.6761 -0.4740  0.8789
58426SOL    HW281242  10.244   1.459   5.730  0.4307  0.3717 -0.8695
58427SOL     OW81243   0.049  11.033   9.509  0.1229  0.3758  0.0439
58427SOL    HW181244   0.093  11.097   9.454 -1.1222  1.1537 -0.0838
58427SOL    HW281245   0.111  11.015   9.579  1.4612 -0.1118 -1.2096
58428SOL     OW81246   8.994   7.529   2.598 -0.0040  0.4563 -0.5156
58428SOL    HW181247   9.076   7.558   2.556  0.7475  0.6813  1.0467
58428SOL    HW281248   8.979   7.442   2.562  1.4630  0.0126 -0.1403
58429SOL     OW81249   0.040   8.311   2.352  0.4434 -0.4532  0.3277
58429SOL    HW181250  -0.042   8.320   2.401 -0.3909  0.2571 -1.1220
58429SOL    HW281251   0.081   8.397   2.359  1.0940 -0.8124  1.0648
58430SOL     OW81252   0.503   4.412   5.335 -0.2961 -0.4327 -0.0699
58430SOL    HW181253   0.411   4.439   5.340 -0.2948 -0.1653 -1.2446
58430SOL    HW281254   0.532   4.408   5.426 -1.3494 -0.0935  0.2896
58431SOL     OW81255  11.056   6.725   2.028 -0.1900 -0.0919  0.4781
58431SOL    HW181256  11.111   6.698   1.954  1.1882  1.9937  0.6418
58431SOL    HW281257  10.970   6.742   1.989  0.4949  0.9028 -0.6817
58432SOL     OW81258   6.374   2.345   0.766 -0.0311  0.3732  0.0387
58432SOL    HW181259   6.466   2.346   0.791  0.1417  0.0144 -0.5631
58432SOL    HW281260   6.328   2.310   0.842  0.3577  0.3207  0.2485
58433SOL     OW81261   0.974   5.552   3.949  0.3543  0.4056 -0.2026
58433SOL    HW181262   0.952   5.565   4.042 -1.3094 -0.3785 -0.4676
58433SOL    HW281263   0.941   5.465   3.928  1.8447  0.0450 -1.2333
58434SOL     OW81264  11.811   2.630   3.598  0.3091 -0.1493  0.3809
58434SOL    HW181265  11.779   2.568   3.533 -0.9266 -1.9499  2.5604
58434SOL    HW281266  11.884   2.586   3.641  0.2122  0.3966  1.1433
58435SOL     OW81267   4.013   6.318   2.874  0.1072  0.0340 -0.3983
58435SOL    HW181268   4.056   6.349   2.794 -3.6922  0.4764 -2.5028
58435SOL    HW281269   3.967   6.238   2.847 -0.4879 -0.3579  1.6315
58436SOL     OW81270   4.302   3.158   7.625  0.1244  0.2965  0.1356
58436SOL    HW181271   4.247   3.137   7.700  0.8825  0.9695  0.8986
58436SOL    HW281272   4.357   3.080   7.613 -1.5037 -0.7158 -1.1464
58437SOL     OW81273   7.858   8.045   7.778 -0.5243  0.3781 -0.0269
58437SOL    HW181274   7.811   8.058   7.696  0.5318  1.3610 -0.4942
58437SOL    HW281275   7.945   8.017   7.751 -0.6260 -0.8575  0.8208
58438SOL     OW81276  10.882  11.435   5.467  0.0205  0.2110 -0.1213
58438SOL    HW181277  10.971  11.404   5.486 -0.1527 -1.4740 -1.8121
58438SOL    HW281278  10.837  11.428   5.551  2.0714  3.6924  1.5184
58439SOL     OW81279   6.793   5.614  10.154 -0.1247 -0.2796 -0.5540
58439SOL    HW181280   6.747   5.673  10.213  0.8469  0.1214 -0.1745
58439SOL    HW281281   6.746   5.621  10.071 -1.2510 -0.5419  0.0491
58440SOL     OW81282  11.580   0.365   3.127 -0.3716 -0.2771  0.3158
58440SOL    HW181283  11.632   0.442   3.151 -1.9135  0.3765  1.8067
58440SOL    HW281284  11.556   0.326   3.211 -0.7097 -1.6360 -0.3936
58441SOL     OW81285   8.673   6.126   6.488  0.4460 -0.9571 -0.1037
58441SOL    HW181286   8.645   6.091   6.573  0.7166 -2.8228 -0.7302
58441SOL    HW281287   8.591   6.144   6.442  0.2821  0.7822  0.7800
58442SOL     OW81288   3.983   6.798   6.359  0.2427 -0.4604  0.4511
58442SOL    HW181289   3.967   6.720   6.412  1.2820 -0.2696  1.0710
58442SOL    HW281290   3.957   6.871   6.415 -2.2675 -0.3730 -0.6980
58443SOL     OW81291   9.280   9.877  11.503  0.8198 -0.0814  0.5324
58443SOL    HW181292   9.323   9.792  11.517  0.7731 -0.2998 -0.5643
58443SOL    HW281293   9.351   9.941  11.508  1.6735 -0.5584 -2.8118
58444SOL     OW81294   6.944   1.227   9.569 -0.1612  0.0332  0.8818
58444SOL    HW181295   7.026   1.239   9.520 -0.6694  1.3669  0.3011
58444SOL    HW281296   6.972   1.212   9.659  0.7345  0.4788  0.6955
58445SOL     OW81297  10.879   6.074   5.425  0.2917  0.0474  0.2155
58445SOL    HW181298  10.860   6.012   5.495 -1.5684  0.5983  0.2623
58445SOL    HW281299  10.849   6.029   5.346  0.6955  0.1499  0.0035
58446SOL     OW81300   6.063   2.060   7.626  0.3907 -0.1494  0.0975
58446SOL    HW181301   6.104   2.141   7.657  0.5962 -0.3370  0.3204
58446SOL    HW281302   6.099   1.992   7.682 -0.0274 -0.3548  0.1240
58447SOL     OW81303  11.818   0.732  10.180 -0.2640  0.0814  0.1051
58447SOL    HW181304  11.728   0.757  10.158  0.4096  1.1649 -1.5963
58447SOL    HW281305  11.841   0.785  10.256 -0.2803  1.6405 -0.9284
58448SOL     OW81306   8.226  12.347   0.212  0.3323  0.0166  0.2150
58448SOL    HW181307   8.239  12.422   0.269  1.3709  0.2729 -0.3408
58448SOL    HW281308   8.174  12.381   0.139  1.1938  0.3114 -0.2654
58449SOL     OW81309   5.812   5.113   4.391  0.2871 -0.3138 -0.3759
58449SOL    HW181310   5.858   5.149   4.315  3.6242 -0.3599  1.4410
58449SOL    HW281311   5.809   5.186   4.453 -0.7988 -0.7647  0.1272
58450SOL     OW81312   5.500  10.818   4.201 -0.0100  0.5670  0.3548
58450SOL    HW181313   5.568  10.806   4.136  2.4681 -2.1934  3.1316
58450SOL    HW281314   5.419  10.796   4.156  1.5305 -0.9112 -1.8960
58451SOL     OW81315   6.047  10.364   0.402  0.6162 -0.1529 -0.3352
58451SOL    HW181316   5.989  10.391   0.473 -0.4487 -3.5178  0.2402
58451SOL    HW281317   6.131  10.349   0.444 -0.1129 -2.5357  0.4184
58452SOL     OW81318   6.114   6.175   0.426 -0.0137  0.4971  0.6888
58452SOL    HW181319   6.087   6.084   0.422  1.7140 -0.0165 -0.5328
58452SOL    HW281320   6.073   6.216   0.350 -0.8151  0.7552  1.2551
58453SOL     OW81321   0.818   7.521   1.558 -0.0063 -0.5753  0.3645
58453SOL    HW181322   0.855   7.552   1.641  0.3889 -2.3819  0.9151
58453SOL    HW281323   0.865   7.440   1.539 -1.0346 -0.9145 -0.9248
58454SOL     OW81324   2.241   9.579   0.579  0.2066 -0.2471 -0.0179
58454SOL    HW181325   2.284   9.573   0.664 -2.0565 -0.8965  1.1642
58454SOL    HW281326   2.178   9.507   0.579  0.0422 -0.1738 -2.2089
58455SOL     OW81327   8.692   1.886  10.047 -0.1756  0.2392  0.5387
58455SOL    HW181328   8.604   1.848  10.057 -1.2288  1.7608 -2.0932
58455SOL    HW281329   8.679   1.980  10.059  1.0110  0.5370 -0.4039
58456SOL     OW81330   3.937   8.252  11.217  0.7987 -0.2802  0.2105
58456SOL    HW181331   3.847   8.280  11.231  0.7263  0.0695 -0.8337
58456SOL    HW281332   3.968   8.226  11.303 -0.5198 -1.0765  0.4807
58457SOL     OW81333   7.711   8.500   2.758  0.1732  0.7704 -0.4229
58457SOL    HW181334   7.768   8.475   2.685  0.5148  0.2200  0.0258
58457SOL    HW281335   7.625   8.468   2.733  0.4097  0.0257 -0.3191
58458SOL     OW81336  11.416   0.107  10.307 -0.0018  0.0395 -0.1350
58458SOL    HW181337  11.408   0.037  10.372 -0.4967  0.0794 -0.1529
58458SOL    HW281338  11.467   0.068  10.236 -1.3455 -0.7292 -0.7315
58459SOL     OW81339   7.991   2.012   5.131  0.0865  0.0383  0.2250
58459SOL    HW181340   8.060   2.066   5.170  1.0163  0.2390 -1.5676
58459SOL    HW281341   7.936   2.074   5.083  0.2086 -0.4078 -0.5080
58460SOL     OW81342   0.296   6.313   6.959  0.2364  0.3060  0.5087
58460SOL    HW181343   0.359   6.256   7.004  0.4208  1.4645  1.7907
58460SOL    HW281344   0.329   6.319   6.870 -0.4960 -2.5902 -0.0369
58461SOL     OW81345   2.957   9.295   0.883  0.1484  0.0095  0.0087
58461SOL    HW181346   2.918   9.377   0.853 -1.3296 -0.9221 -0.7297
58461SOL    HW281347   3.046   9.297   0.849  0.3666  1.6095  0.6024
58462SOL     OW81348   1.257   5.380  12.424  0.0937 -0.2558  0.3868
58462SOL    HW181349   1.233   5.288  12.441 -0.6430 -0.4689 -1.5276
58462SOL    HW281350   1.186   5.413  12.368  2.1102  0.3598 -2.0087
58463SOL     OW81351   1.392   7.946   2.060 -0.1643 -0.0855  0.2525
58463SOL    HW181352   1.432   7.953   2.146 -0.2772 -0.1857  0.3126
58463SOL    HW281353   1.349   7.861   2.060  1.8293 -1.1665 -0.7410
58464SOL     OW81354   4.538   8.592   2.835  0.1616  0.0697  0.8495
58464SOL    HW181355   4.498   8.679   2.829 -1.3879 -0.3989  3.0091
58464SOL    HW281356   4.504   8.544   2.760 -0.3787  0.8045  0.6112
58465SOL     OW81357   9.544   9.155   8.996  0.1811 -0.4558 -0.9130
58465SOL    HW181358   9.611   9.089   9.010 -0.1158 -1.2186 -2.7341
58465SOL    HW281359   9.572   9.201   8.916  0.1698  1.3866  0.0757
58466SOL     OW81360   0.286   0.025   2.375 -0.2677 -0.3924 -0.0703
58466SOL    HW181361   0.192   0.009   2.374 -0.3323 -0.0287  0.2132
58466SOL    HW281362   0.296   0.112   2.412  0.0603  0.5168 -2.1762
58467SOL     OW81363  12.446  12.478   3.456  0.4053  0.5256 -0.3102
58467SOL    HW181364  12.538  12.478   3.481  0.9490  1.7630 -2.0985
58467SOL    HW281365  12.437  12.404   3.396  0.5918  1.2283 -1.2247
58468SOL     OW81366   1.038   9.196  11.087 -0.2026  0.6002  0.6633
58468SOL    HW181367   1.014   9.282  11.053 -0.9716  0.5579  1.0606
58468SOL    HW281368   1.066   9.212  11.177  0.2798  0.5141  0.5315
58469SOL     OW81369   6.068   4.520   8.136 -0.1536 -0.0014 -0.5542
58469SOL    HW181370   6.046   4.429   8.160 -0.3627  0.4909  1.2501
58469SOL    HW281371   5.993   4.571   8.165 -1.7165  0.4772 -4.6541
58470SOL     OW81372   9.871   6.801  10.719  0.1344 -0.2500  0.2355
58470SOL    HW181373   9.850   6.888  10.685 -0.9097 -0.7751 -0.5161
58470SOL    HW281374   9.967   6.800  10.724  0.1508  1.1590  0.8947
58471SOL     OW81375   0.767   9.665  11.410  0.1039 -0.7358  0.5017
58471SOL    HW181376   0.771   9.755  11.376  1.3233 -0.8986  0.1521
58471SOL    HW281377   0.850   9.625  11.381 -0.4144 -1.9716  0.6592
58472SOL     OW81378   6.973   7.591   3.607 -0.8924 -0.0646 -0.5568
58472SOL    HW181379   6.972   7.541   3.689 -1.7828 -1.0625 -1.1465
58472SOL    HW281380   6.881   7.596   3.582 -0.7034  0.9517 -1.0782
58473SOL     OW81381   9.247  10.152  10.162  0.0017  0.0500  0.5086
58473SOL    HW181382   9.295  10.079  10.123 -0.0441  0.4836 -0.3926
58473SOL    HW281383   9.282  10.229  10.118 -0.9066  0.4454  0.4623
58474SOL     OW81384   2.064   6.439   9.630 -0.5925 -0.0983  0.2578
58474SOL    HW181385   2.003   6.411   9.562 -0.9214  1.2080 -0.0104
58474SOL    HW281386   2.054   6.374   9.699 -2.8713  0.4904  0.5543
58475SOL     OW81387   8.672   2.809   3.125 -0.4498  0.2968  0.3662
58475SOL    HW181388   8.634   2.885   3.168 -2.2052 -0.5181  0.3634
58475SOL    HW281389   8.620   2.735   3.158 -1.7139 -0.4094 -2.8631
58476SOL     OW81390  12.437   7.099   5.880  0.6527  0.1652  0.1767
58476SOL    HW181391  12.521   7.056   5.898  0.8965  0.7605  0.4818
58476SOL    HW281392  12.459   7.192   5.871  0.4785  0.0025 -2.7648
58477SOL     OW81393   1.769  10.256   0.206 -0.0414 -0.1704 -0.3168
58477SOL    HW181394   1.766  10.311   0.285 -0.9001  1.1288 -1.2052
58477SOL    HW281395   1.861  10.253   0.183  0.1604 -0.1410  0.4431
58478SOL     OW81396   0.962   2.274   8.435 -0.0650 -0.0571 -0.1643
58478SOL    HW181397   1.039   2.235   8.393  0.0018 -0.5923  0.4283
58478SOL    HW281398   0.934   2.343   8.376  1.5392  0.8905  0.1339
58479SOL     OW81399   9.163   0.674   9.472 -0.2770  0.0527  0.0112
58479SOL    HW181400   9.162   0.680   9.567 -0.1699  0.8806 -0.0374
58479SOL    HW281401   9.107   0.746   9.442  1.1722  0.9689 -0.5965
58480SOL     OW81402   9.810   6.640   6.222  0.2688 -0.4537 -0.6823
58480SOL    HW181403   9.841   6.586   6.294  1.3608 -1.2341 -1.6803
58480SOL    HW281404   9.722   6.607   6.203  0.2566 -0.7236 -0.1682
58481SOL     OW81405   9.717   2.427   1.525 -0.1020  0.3489 -0.0382
58481SOL    HW181406   9.635   2.440   1.477 -2.1155 -2.6164  2.2013
58481SOL    HW281407   9.721   2.500   1.586 -0.7677  0.8499 -0.5735
58482SOL     OW81408  10.678   1.956   6.960 -0.1534  0.3173 -0.3699
58482SOL    HW181409  10.695   2.048   6.943 -0.6635  0.5543  0.3656
58482SOL    HW281410  10.652   1.920   6.875  0.3604  0.7734 -0.7259
58483SOL     OW81411   6.143   8.759   3.338  0.3718  0.3041 -0.1835
58483SOL    HW181412   6.176   8.819   3.405 -1.3865  0.2229  0.8520
58483SOL    HW281413   6.205   8.686   3.338  1.2120  1.0000  0.2803
58484SOL     OW81414  10.423   4.200   3.798 -0.0425  0.0645 -0.3196
58484SOL    HW181415  10.516   4.196   3.820  0.3538  0.6557 -1.7700
58484SOL    HW281416  10.382   4.239   3.875  0.9761  0.1612  0.1891
58485SOL     OW81417   5.966   0.109   3.497  0.5165  0.1166  0.5739
58485SOL    HW181418   5.911   0.119   3.575 -0.1296  0.9760  0.0180
58485SOL    HW281419   6.030   0.180   3.502 -0.2250  0.8623 -0.2344
58486SOL     OW81420   0.198   1.662   7.439 -0.6551 -0.2116  0.0530
58486SOL    HW181421   0.249   1.617   7.507  0.6079  1.5245  0.3285
58486SOL    HW281422   0.261   1.680   7.369 -1.5190 -0.3367 -0.7854
58487SOL     OW81423   7.704   7.032   3.923  0.0020 -0.8377  0.3719
58487SOL    HW181424   7.654   6.979   3.861  1.0605 -1.1718 -0.2157
58487SOL    HW281425   7.722   6.973   3.996 -3.5531  0.2611  2.3861
58488SOL     OW81426   3.260   4.350   9.526 -0.5699 -0.0785 -0.3915
58488SOL    HW181427   3.333   4.290   9.542 -1.1276 -0.9295 -0.9656
58488SOL    HW281428   3.221   4.364   9.613 -0.4938 -0.6235 -0.2666
58489SOL     OW81429   7.408   5.308   5.848 -0.1280  0.7470  0.8160
58489SOL    HW181430   7.467   5.360   5.902  2.5745 -0.6185 -0.6131
58489SOL    HW281431   7.404   5.355   5.765 -0.2530  0.2893  0.5628
58490SOL     OW81432   6.625   3.597   9.840  0.2354 -0.1415 -0.6311
58490SOL    HW181433   6.545   3.643   9.866 -0.1794 -0.6348 -1.0281
58490SOL    HW281434   6.677   3.664   9.795 -0.0094  0.1413 -0.5005
58491SOL     OW81435   0.330   1.036   9.272 -0.2001  0.1030  0.4701
58491SOL    HW181436   0.410   1.026   9.220 -0.1008  0.5341  0.5405
58491SOL    HW281437   0.293   0.948   9.275 -0.3415  0.1100 -0.5488
58492SOL     OW81438   8.691   1.027  12.015 -0.2471 -0.2667 -0.5442
58492SOL    HW181439   8.665   1.115  12.041 -0.2735 -0.3394 -0.3256
58492SOL    HW281440   8.785   1.023  12.032 -0.6302 -1.0663  1.7340
58493SOL     OW81441   6.159  11.744  12.182  0.2225 -0.5138  0.5965
58493SOL    HW181442   6.068  11.714  12.182 -0.1748  0.6383 -0.4383
58493SOL    HW281443   6.153  11.839  12.189  1.2913 -0.2835 -1.1922
58494SOL     OW81444   9.241   7.307   3.659  0.4343  0.1811  0.3100
58494SOL    HW181445   9.227   7.289   3.752  1.1327  0.8832  0.5671
58494SOL    HW281446   9.261   7.222   3.620  1.3202  0.0505  1.0321
58495SOL     OW81447   6.795   8.450   9.979  0.2894  1.2173  0.0032
58495SOL    HW181448   6.791   8.489   9.891 -2.8043  1.6703  0.2274
58495SOL    HW281449   6.804   8.356   9.963  1.0851  1.3933 -0.7132
58496SOL     OW81450   6.528   0.676   6.449  0.4533  0.2276  0.2795
58496SOL    HW181451   6.467   0.664   6.376  0.8150 -0.7514  0.1204
58496SOL    HW281452   6.513   0.766   6.479 -0.7743  0.1329 -0.0102
58497SOL     OW81453   0.358   1.558   7.628  0.0138 -1.2664 -0.7201
58497SOL    HW181454   0.322   1.484   7.677 -1.8177 -0.0398 -0.0967
58497SOL    HW281455   0.453   1.551   7.641 -0.3086 -1.4718  2.4281
58498SOL     OW81456  12.224   4.867   9.512 -0.6109 -0.2281 -0.1048
58498SOL    HW181457  12.201   4.831   9.426 -1.4292 -1.7097  0.7005
58498SOL    HW281458  12.241   4.790   9.567  1.3316  0.7140  0.7089
58499SOL     OW81459   3.050  11.823   7.053 -0.2345  0.3513  0.8100
58499SOL    HW181460   3.112  11.815   6.981 -1.4168 -0.8079 -0.1196
58499SOL    HW281461   3.054  11.915   7.078  1.1353  0.4996  0.1305
58500SOL     OW81462   8.577   9.268  11.752 -0.2019 -0.3514 -0.1693
58500SOL    HW181463   8.532   9.326  11.690 -3.8746 -3.9490 -1.3044
58500SOL    HW281464   8.670   9.284  11.736 -0.8475  4.9029 -0.4520
58501SOL     OW81465   4.541   0.544   4.967  0.1923 -0.3538 -0.5976
58501SOL    HW181466   4.464   0.592   4.998  0.5071 -0.4396  0.3760
58501SOL    HW281467   4.588   0.607   4.912 -0.2320 -0.0823 -0.6551
58502SOL     OW81468   8.040  12.262   5.581 -0.1211 -0.2231  0.0836
58502SOL    HW181469   8.094  12.223   5.512  0.7259  1.3886 -0.2008
58502SOL    HW281470   7.952  12.227   5.564  0.4362 -1.3796 -0.6074
58503SOL     OW81471   3.463   9.854   7.200  0.0571  0.2563  0.1047
58503SOL    HW181472   3.404   9.844   7.126  1.2304  1.0955 -0.9856
58503SOL    HW281473   3.509   9.770   7.205  0.4130  0.4015 -0.5397
58504SOL     OW81474   6.527  10.905   0.773  0.0969 -0.2765 -0.0025
58504SOL    HW181475   6.467  10.853   0.826 -1.2317  0.4387 -0.7572
58504SOL    HW281476   6.491  10.901   0.685  1.6976 -0.6046 -0.6874
58505SOL     OW81477   8.328   2.623   4.712  0.0922  0.2694  0.1560
58505SOL    HW181478   8.233   2.612   4.711  0.1994 -0.8016  0.0196
58505SOL    HW281479   8.361   2.538   4.743  0.9852  0.7359  0.5006
58506SOL     OW81480   0.948   4.856   7.320 -0.3313 -0.5513  1.0278
58506SOL    HW181481   1.027   4.906   7.342 -1.5028  0.4873  3.2673
58506SOL    HW281482   0.899   4.913   7.261 -0.5227 -0.0790  1.6274
58507SOL     OW81483   6.696   4.161  10.550  0.6419 -0.4304  0.3816
58507SOL    HW181484   6.632   4.147  10.621 -0.8234 -3.2976 -1.3351
58507SOL    HW281485   6.654   4.226  10.493  0.6760 -0.0243  0.8103
58508SOL     OW81486   3.590  10.725  11.802  0.3066 -0.0798  0.4358
58508SOL    HW181487   3.601  10.630  11.804  0.4016 -0.0787  0.1009
58508SOL    HW281488   3.669  10.757  11.759  0.7975  0.2473  1.5587
58509SOL     OW81489   3.077   8.644   6.381 -0.0687  0.1289  0.3247
58509SOL    HW181490   2.988   8.613   6.364 -0.1472  1.2111 -1.5272
58509SOL    HW281491   3.076   8.736   6.353  1.6241  0.1530  0.2636
58510SOL     OW81492   6.056   4.910   1.728  0.1649  0.1138  0.2406
58510SOL    HW181493   6.124   4.950   1.674 -1.5231 -0.3693 -2.4321
58510SOL    HW281494   6.050   4.820   1.697 -0.8229 -0.2140  1.3087
58511SOL     OW81495  11.947   3.067   4.984  0.0814  0.0026  0.1012
58511SOL    HW181496  11.946   3.102   4.894  1.3341  0.3342  0.1973
58511SOL    HW281497  11.980   3.139   5.037 -1.8037  0.2165  1.0463
58512SOL     OW81498  11.521  11.915   9.494  0.0035  0.1201 -0.1589
58512SOL    HW181499  11.489  11.887   9.408 -0.1677 -0.9199  0.2226
58512SOL    HW281500  11.443  11.948   9.539  0.4318  2.5982 -1.0877
58513SOL     OW81501  11.643   5.524   7.673 -0.5305 -0.0828  0.1147
58513SOL    HW181502  11.660   5.593   7.609 -1.9123 -1.5187 -1.9168
58513SOL    HW281503  11.560   5.548   7.713  0.6857  1.2108  2.0529
58514SOL     OW81504   9.785   4.817   5.053 -0.2205 -0.1712 -0.2862
58514SOL    HW181505   9.839   4.890   5.020  0.9096 -1.3620 -1.1935
58514SOL    HW281506   9.787   4.753   4.982 -0.1301 -1.6220  0.9845
58515SOL     OW81507   9.104   9.988   6.092  0.5948  0.5422  0.5847
58515SOL    HW181508   9.061   9.948   6.016 -0.1104 -0.4026  1.4500
58515SOL    HW281509   9.161   9.920   6.127  0.4766  0.7672  1.2408
58516SOL     OW81510   2.583   7.164   3.164  0.1238  0.2958  0.1318
58516SOL    HW181511   2.566   7.102   3.235 -1.2166  0.5745  0.0809
58516SOL    HW281512   2.613   7.109   3.091  1.7383  0.0325  0.9526
58517SOL     OW81513   2.430   0.521   4.609 -0.4221 -0.4654  0.1260
58517SOL    HW181514   2.367   0.453   4.588 -1.2179 -0.9539  3.5176
58517SOL    HW281515   2.510   0.474   4.631 -0.6023 -0.2693  1.2647
58518SOL     OW81516   9.894   3.499   2.661  0.0240  0.1219  0.5705
58518SOL    HW181517   9.901   3.495   2.566  0.1196  0.2854  0.5708
58518SOL    HW281518   9.811   3.455   2.681 -0.2046  0.4662  0.3856
58519SOL     OW81519   8.927   0.690   7.501 -0.2599  0.2070 -0.7725
58519SOL    HW181520   9.010   0.694   7.549 -1.1062  0.1781  0.7728
58519SOL    HW281521   8.916   0.597   7.480  0.9312  0.4310 -2.5947
58520SOL     OW81522   9.321   2.807   3.109  0.3598  0.0587 -0.3980
58520SOL    HW181523   9.404   2.764   3.091  0.5377  0.6754 -1.1037
58520SOL    HW281524   9.304   2.860   3.032 -0.7981 -0.2123 -0.3565
58521SOL     OW81525   9.512   2.065   8.002 -0.6993  0.2667  0.5219
58521SOL    HW181526   9.502   2.099   7.913 -1.5866  0.4521  0.6767
58521SOL    HW281527   9.495   2.140   8.058 -0.9930 -0.0428  0.8509
58522SOL     OW81528   0.943   9.118   6.553  0.1903 -0.2685 -0.4333
58522SOL    HW181529   1.005   9.087   6.486 -0.2570 -0.5005 -0.7405
58522SOL    HW281530   0.927   9.042   6.608  1.7381  0.3020  0.8774
58523SOL     OW81531  10.503  11.292   0.410 -0.2483  0.0252  0.4095
58523SOL    HW181532  10.559  11.359   0.448 -0.6116  0.2783  0.4956
58523SOL    HW281533  10.564  11.233   0.366  0.0434  0.6067  0.0234
58524SOL     OW81534   8.851  12.479   9.362 -0.2112 -0.2200 -0.0058
58524SOL    HW181535   8.885  12.564   9.390 -0.1783 -0.1809 -0.1665
58524SOL    HW281536   8.920  12.417   9.387  0.4649 -0.0156 -1.2942
58525SOL     OW81537   2.822   3.254   0.769 -0.2021  0.1526 -0.3096
58525SOL    HW181538   2.855   3.271   0.858  0.2637 -3.1072  0.2476
58525SOL    HW281539   2.900   3.261   0.713 -0.2367  0.8349 -0.2857
58526SOL     OW81540  10.218  10.547   9.388  0.3129 -0.2968  0.3443
58526SOL    HW181541  10.196  10.474   9.330  0.3457 -0.3029  0.3400
58526SOL    HW281542  10.134  10.576   9.423  0.3923 -1.0019  1.1436
58527SOL     OW81543   6.000   4.444   6.122 -0.0109 -0.0774 -0.3589
58527SOL    HW181544   6.084   4.475   6.088  0.5481 -1.8568 -0.7061
58527SOL    HW281545   6.011   4.350   6.132 -1.8321 -0.2962  0.0142
58528SOL     OW81546  12.422   9.968   2.169  0.0785 -0.8132  0.6300
58528SOL    HW181547  12.407   9.944   2.260  1.3701  1.1636  1.4430
58528SOL    HW281548  12.366  10.044   2.154 -1.4875 -2.1624 -0.8511
58529SOL     OW81549   8.379   6.732   4.359  0.7151 -0.0593  0.0042
58529SOL    HW181550   8.293   6.762   4.390  0.7539 -0.3307  0.3865
58529SOL    HW281551   8.366   6.641   4.336  0.0397  0.7588 -3.3185
58530SOL     OW81552  10.426   1.169  12.027 -0.1214 -0.1861 -0.0055
58530SOL    HW181553  10.417   1.096  11.966 -1.9268 -0.2082  0.2220
58530SOL    HW281554  10.468   1.130  12.104 -3.0001 -1.6497  1.0018
58531SOL     OW81555  10.881   1.340   2.989  0.1087  0.1169 -0.1083
58531SOL    HW181556  10.864   1.409   2.924 -0.4450  0.4816  0.4073
58531SOL    HW281557  10.815   1.355   3.056 -1.2416 -2.0311 -0.8554
58532SOL     OW81558  12.190   8.163   3.677 -0.1149 -0.2760  0.1780
58532SOL    HW181559  12.282   8.179   3.699 -0.1564  0.5254 -0.1909
58532SOL    HW281560  12.154   8.120   3.755  1.0054 -2.3379 -0.3610
58533SOL     OW81561   7.313   1.499  12.110  0.3050 -0.0474  0.0898
58533SOL    HW181562   7.236   1.545  12.076  0.4438  0.5725  0.5910
58533SOL    HW281563   7.312   1.518  12.204 -0.5012 -2.3520  0.6162
58534SOL     OW81564   1.168   5.130  12.445 -0.0742 -0.5022  0.6388
58534SOL    HW181565   1.241   5.107  12.388 -0.7005 -1.7682  0.3258
58534SOL    HW281566   1.157   5.054  12.502 -0.9680 -0.2004  0.8877
58535SOL     OW81567   3.406  11.885   1.401  0.0680  0.1989 -0.1113
58535SOL    HW181568   3.481  11.903   1.344  1.0799 -1.8691  0.4663
58535SOL    HW281569   3.370  11.802   1.368  0.3651 -0.7796  1.8602
58536SOL     OW81570   9.687   5.176   7.247  0.4676 -0.5862 -0.1851
58536SOL    HW181571   9.749   5.248   7.235  2.7175 -2.1606  1.2601
58536SOL    HW281572   9.726   5.123   7.317 -3.3803 -0.7717  2.1005
58537SOL     OW81573   3.198  10.627   8.219  0.0533  0.2416 -0.4587
58537SOL    HW181574   3.245  10.675   8.287 -2.1008  0.3590  1.0730
58537SOL    HW281575   3.263  10.611   8.151  2.0019  1.2242  1.0672
58538SOL     OW81576  11.429   2.106   6.180  0.5547 -0.6666  0.3332
58538SOL    HW181577  11.512   2.153   6.175  0.5117 -0.7095 -1.0804
58538SOL    HW281578  11.414   2.073   6.092 -1.2255 -0.2236  0.4205
58539SOL     OW81579   5.607   7.720   1.520  0.0798  0.3988 -0.2905
58539SOL    HW181580   5.688   7.685   1.556  0.3449 -0.3787 -1.5520
58539SOL    HW281581   5.608   7.813   1.541  1.8613  0.6275 -1.2684
58540SOL     OW81582   1.641  10.408   1.777  0.1564 -0.6298  0.5005
58540SOL    HW181583   1.580  10.335   1.765 -1.0608  0.1786  1.4334
58540SOL    HW281584   1.666  10.434   1.689 -0.3850 -1.3787  0.1210
58541SOL     OW81585  12.059   0.386  11.531 -0.1103 -0.3017 -0.5635
58541SOL    HW181586  12.056   0.464  11.475  0.5681  0.1158 -0.0436
58541SOL    HW281587  12.150   0.357  11.527 -0.1996 -0.6464 -0.1939
58542SOL     OW81588   6.404   0.128   7.233  0.2554 -0.0077  0.3265
58542SOL    HW181589   6.440   0.052   7.187 -0.8108 -1.3547  1.5976
58542SOL    HW281590   6.393   0.195   7.165 -0.0199 -1.4580 -1.1092
58543SOL     OW81591   9.847  11.867   2.409 -0.0866 -0.0048 -0.3990
58543SOL    HW181592   9.896  11.930   2.462 -0.6912 -0.8060  1.1604
58543SOL    HW281593   9.867  11.782   2.447 -0.3381 -0.6407 -1.6334
58544SOL     OW81594   3.384  11.346  11.840 -0.3972 -0.0347  0.2128
58544SOL    HW181595   3.402  11.304  11.756  0.3590 -0.2238  0.4568
58544SOL    HW281596   3.314  11.408  11.822  0.8504  1.1131 -0.9407
58545SOL     OW81597  12.031   0.940   6.034  0.0593 -0.3112  0.0434
58545SOL    HW181598  11.944   0.961   5.998  0.7314 -0.7427 -1.9477
58545SOL    HW281599  12.020   0.853   6.073  0.1160 -1.4680 -2.3481
58546SOL     OW81600  10.155  11.621  12.036 -0.4123 -0.0241  0.5343
58546SOL    HW181601  10.137  11.553  12.101 -1.7202 -0.9736 -0.7508
58546SOL    HW281602  10.189  11.574  11.961 -0.4056  0.8587 -0.0299
58547SOL     OW81603   4.108   4.390   5.704  0.2810  0.0655 -0.2941
58547SOL    HW181604   4.203   4.394   5.710  0.2741 -0.7360  0.7264
58547SOL    HW281605   4.085   4.449   5.632  1.5180  0.5261 -0.3300
58548SOL     OW81606   7.086  11.010   4.994 -0.1579  0.5379 -0.0149
58548SOL    HW181607   7.095  11.103   4.971  0.4439  0.6995  0.8297
58548SOL    HW281608   7.163  10.991   5.047  0.5268 -0.8701 -1.4529
58549SOL     OW81609  10.718   5.297   9.242 -0.3131 -0.6128  0.2710
58549SOL    HW181610  10.760   5.231   9.188 -1.5503 -0.5299 -0.8434
58549SOL    HW281611  10.763   5.379   9.220 -0.1962 -0.7318  0.0664
58550SOL     OW81612  10.323   5.937   4.543 -0.2381  0.9674  0.5789
58550SOL    HW181613  10.374   5.871   4.496  0.3061  1.4124  0.5301
58550SOL    HW281614  10.281   5.889   4.614 -0.1870  0.4915  0.2891
58551SOL     OW81615   8.555  12.077   9.316 -0.1013 -0.0094 -0.5538
58551SOL    HW181616   8.608  12.026   9.255 -0.1315 -1.5280  0.6135
58551SOL    HW281617   8.476  12.024   9.329 -0.7930  1.0294 -0.3651
58552SOL     OW81618   7.827   8.562   9.995  0.6318  0.0186  0.5963
58552SOL    HW181619   7.853   8.582   9.905  0.8754 -0.4437  0.5622
58552SOL    HW281620   7.879   8.622  10.049  0.3825  0.3924  0.4224
58553SOL     OW81621   0.670   0.380   7.790  0.0851  0.0634  0.1428
58553SOL    HW181622   0.722   0.317   7.739  1.3401  0.8938  0.3532
58553SOL    HW281623   0.649   0.334   7.871  2.0234  0.2949  0.8151
58554SOL     OW81624   5.989  10.967   8.815  0.2922 -0.6115  0.2972
58554SOL    HW181625   5.987  10.953   8.720  0.0128 -0.8431  0.3393
58554SOL    HW281626   5.969  11.060   8.826  0.2892 -0.5917  0.1313
58555SOL     OW81627   9.526   1.026   6.136  0.2186 -0.2754 -0.4684
58555SOL    HW181628   9.500   1.068   6.218  1.7841  0.0334 -0.1098
58555SOL    HW281629   9.505   1.090   6.068  0.9572  0.3825 -0.0909
58556SOL     OW81630   3.755   0.263   4.332 -0.4030 -0.3899 -0.3458
58556SOL    HW181631   3.767   0.307   4.417 -0.1202  0.4881 -0.8297
58556SOL    HW281632   3.677   0.208   4.344 -0.5489 -0.0350  0.3828
58557SOL     OW81633   8.008   6.112   9.820  0.0555  0.2761  0.1125
58557SOL    HW181634   8.102   6.126   9.829  0.0537  0.1282  0.3588
58557SOL    HW281635   7.977   6.189   9.773  0.0534  1.0699  1.3724
58558SOL     OW81636   0.724   0.637  11.810  0.6692  0.2810  0.1918
58558SOL    HW181637   0.764   0.621  11.896  2.1244 -0.2297 -0.5381
58558SOL    HW281638   0.683   0.554  11.787  1.0125  0.1501  0.0386
58559SOL     OW81639  11.093   0.875   5.635  0.0718  0.4632 -0.4351
58559SOL    HW181640  11.140   0.811   5.689 -1.7465  2.0730  3.4671
58559SOL    HW281641  11.162   0.919   5.585  1.9567 -1.1109  0.6183
58560SOL     OW81642   8.856  10.243   8.843 -0.5307  0.3310  0.6808
58560SOL    HW181643   8.798  10.318   8.862  1.2801  2.0725 -0.3262
58560SOL    HW281644   8.807  10.191   8.780 -1.4690  1.1696  0.6818
58561SOL     OW81645   8.577   2.851   0.522  0.3665 -0.2253 -0.6664
58561SOL    HW181646   8.516   2.785   0.488 -0.0405  0.5394 -1.4449
58561SOL    HW281647   8.528   2.933   0.518  0.5122 -0.0065  1.2413
58562SOL     OW81648   3.131   9.097   3.061 -0.3934 -0.1246  0.1983
58562SOL    HW181649   3.153   9.064   3.148  1.2636 -1.0762 -0.5432
58562SOL    HW281650   3.108   9.189   3.075 -1.7383 -0.6663  1.8406
58563SOL     OW81651   0.224   0.085   9.687 -0.0001 -0.5900  0.4307
58563SOL    HW181652   0.218   0.096   9.781  2.4467 -0.0060  0.5676
58563SOL    HW281653   0.172   0.157   9.651 -1.0446 -0.8838  1.2997
58564SOL     OW81654  10.812  11.627   5.882  0.5329 -0.2440  0.1949
58564SOL    HW181655  10.869  11.569   5.932  2.9136 -0.1532 -2.1805
58564SOL    HW281656  10.786  11.695   5.943 -1.0580 -2.8147  2.6613
58565SOL     OW81657   8.328   0.885   5.077  0.6279  0.1174  0.3522
58565SOL    HW181658   8.296   0.881   4.987  0.4577 -0.8233  0.4424
58565SOL    HW281659   8.327   0.978   5.099 -2.2049  0.1728  0.3877
58566SOL     OW81660   0.219   4.319   3.593 -0.4020 -0.1091  0.1420
58566SOL    HW181661   0.240   4.398   3.642  0.6302 -0.0988 -0.2849
58566SOL    HW281662   0.150   4.346   3.532 -1.1561  0.0598  1.0498
58567SOL     OW81663   2.016   5.319   9.794  0.0226  0.2083  0.0215
58567SOL    HW181664   2.105   5.309   9.827 -0.1568  0.7221  0.6938
58567SOL    HW281665   1.960   5.297   9.869 -0.4205 -0.2858 -0.4459
58568SOL     OW81666   0.156   4.499  11.546 -0.0206 -0.3379 -0.1534
58568SOL    HW181667   0.118   4.509  11.634  1.2151  2.0189  0.1915
58568SOL    HW281668   0.250   4.494  11.561  0.1895 -0.1224 -1.3359
58569SOL     OW81669  10.639   1.293   8.640 -0.1910  0.0901  0.2957
58569SOL    HW181670  10.545   1.279   8.643 -0.2859  0.3176 -0.9450
58569SOL    HW281671  10.674   1.238   8.710 -1.4720  2.2512  2.8286
58570SOL     OW81672   2.546   4.056   8.512 -0.1254 -0.5259  0.1126
58570SOL    HW181673   2.538   3.990   8.444 -1.5474  0.4236 -0.6979
58570SOL    HW281674   2.470   4.042   8.568 -0.7310  0.7179 -0.3620
58571SOL     OW81675   7.911   7.745   2.283 -0.3185 -0.2704  0.2080
58571SOL    HW181676   7.927   7.672   2.343  1.4156  0.2945  0.4955
58571SOL    HW281677   7.905   7.705   2.197  0.0734 -0.8109  0.4293
58572SOL     OW81678   2.615   9.488   3.597 -0.2467  0.0654  0.3976
58572SOL    HW181679   2.673   9.557   3.565 -1.7380  1.0701 -0.2485
58572SOL    HW281680   2.672   9.412   3.607  1.0731  0.8468 -0.7432
58573SOL     OW81681   4.349   3.726   8.668  0.0721 -0.2285  0.1259
58573SOL    HW181682   4.289   3.788   8.709  1.4426  1.9240 -0.8970
58573SOL    HW281683   4.303   3.694   8.591 -0.9648 -1.1718  1.1063
58574SOL     OW81684   0.799  10.721   7.886  0.0060 -0.0353  0.1596
58574SOL    HW181685   0.818  10.630   7.906 -0.1074 -0.5692 -1.9295
58574SOL    HW281686   0.707  10.733   7.909 -0.1805 -0.6686 -0.2459
58575SOL     OW81687   2.467   3.958  11.777  0.2406 -0.2267  0.9978
58575SOL    HW181688   2.450   3.913  11.859 -0.0697  0.9488  1.6014
58575SOL    HW281689   2.493   4.047  11.803  3.0155 -0.6447 -0.0659
58576SOL     OW81690   2.158   4.604   6.588 -0.0834 -0.0072  0.0761
58576SOL    HW181691   2.221   4.643   6.649 -0.1334 -2.9354  2.2444
58576SOL    HW281692   2.211   4.549   6.530 -0.3250  0.4825 -0.6216
58577SOL     OW81693   7.328   5.910   2.546 -0.3698 -0.1456  0.9492
58577SOL    HW181694   7.376   5.851   2.489 -2.6019  1.1555 -2.5881
58577SOL    HW281695   7.300   5.854   2.619  2.1408 -2.0433  0.6166
58578SOL     OW81696  10.053   1.948  12.470 -0.2821 -0.1701  0.5064
58578SOL    HW181697  10.052   2.041  12.491 -0.0311  0.2454 -1.1295
58578SOL    HW281698   9.964   1.919  12.486 -1.1335  1.0410 -1.5610
58579SOL     OW81699   7.366  12.442  11.379 -0.0642 -0.6229  0.5364
58579SOL    HW181700   7.405  12.420  11.294 -1.8120  0.1580 -0.5285
58579SOL    HW281701   7.432  12.495  11.423  0.3439  0.1342 -0.9353
58580SOL     OW81702  10.250   7.963  11.753 -0.1510 -0.1187  0.0324
58580SOL    HW181703  10.274   7.994  11.840  0.2005 -0.4492  0.0508
58580SOL    HW281704  10.156   7.944  11.760 -0.0180 -0.6227  0.4772
58581SOL     OW81705  12.393   9.937  10.247 -0.2945 -0.0118  0.1349
58581SOL    HW181706  12.403   9.922  10.153 -0.0321  0.0493  0.1502
58581SOL    HW281707  12.377   9.850  10.284  0.8625 -0.2310  0.1812
58582SOL     OW81708   7.811   4.201   1.640 -0.2478  0.3954 -0.1382
58582SOL    HW181709   7.791   4.287   1.676 -1.3617  0.2586 -0.4030
58582SOL    HW281710   7.729   4.153   1.645  0.2574 -0.5118 -0.3886
58583SOL     OW81711  10.382   7.835   9.713  0.3757  0.2236  0.3872
58583SOL    HW181712  10.453   7.830   9.648  0.5690  0.5326  0.5750
58583SOL    HW281713  10.350   7.745   9.719 -0.2717  0.3537 -0.8398
58584SOL     OW81714   0.123   4.066   6.882  0.2606 -0.3390  0.1073
58584SOL    HW181715   0.179   4.063   6.805  1.4877 -3.4231  0.9903
58584SOL    HW281716   0.034   4.076   6.846  0.7732 -1.8910 -1.7522
58585SOL     OW81717   6.863   7.556  12.368  0.3289 -0.3249 -0.6208
58585SOL    HW181718   6.835   7.508  12.290 -4.2517  0.1276  0.4926
58585SOL    HW281719   6.859   7.648  12.341  2.0374 -0.2268 -0.6824
58586SOL     OW81720   3.929   2.589   6.386 -0.4234  0.4528  0.0321
58586SOL    HW181721   3.886   2.665   6.344 -0.8466 -1.0644 -2.5181
58586SOL    HW281722   4.012   2.580   6.338 -0.3305 -0.6221  0.3805
58587SOL     OW81723   9.406   7.539  11.917  0.3298  0.0783  0.3048
58587SOL    HW181724   9.414   7.595  11.994 -0.7465  0.7339 -0.0350
58587SOL    HW281725   9.497   7.525  11.889  0.7636 -0.4939  1.8931
58588SOL     OW81726   5.407   5.967   4.198 -0.3193  0.3044  0.6238
58588SOL    HW181727   5.454   5.928   4.271 -0.5266  0.5545  0.8944
58588SOL    HW281728   5.415   5.903   4.127  1.3172  0.8051  0.3305
58589SOL     OW81729  11.941   9.065  11.683  0.0060  0.0611 -0.4254
58589SOL    HW181730  11.920   8.988  11.736 -0.9181  0.9375  0.5201
58589SOL    HW281731  12.035   9.059  11.669  0.1375 -0.6113  0.6442
58590SOL     OW81732   5.894   1.606  10.523  0.0489 -0.2178 -0.0722
58590SOL    HW181733   5.896   1.514  10.497  0.2383 -0.0543 -0.6554
58590SOL    HW281734   5.903   1.654  10.440  0.5055  0.3185  0.2822
58591SOL     OW81735   8.404   4.199   3.549  0.5392  0.3685 -0.1846
58591SOL    HW181736   8.385   4.201   3.643 -0.3911  1.2678 -0.3731
58591SOL    HW281737   8.372   4.283   3.517  0.7869  0.0381 -1.3241
58592SOL     OW81738   7.637   3.985   2.988 -0.1043  0.0384 -0.0598
58592SOL    HW181739   7.573   4.044   3.027  0.1601  1.5273 -1.7833
58592SOL    HW281740   7.720   4.007   3.032 -0.3005 -0.2193  0.4546
58593SOL     OW81741   5.818   0.845   9.907  0.5174 -0.4063 -0.0057
58593SOL    HW181742   5.725   0.835   9.886 -0.4367  0.9336  3.0248
58593SOL    HW281743   5.863   0.838   9.823 -2.4385  0.4393 -1.7765
58594SOL     OW81744   7.735   1.094  12.446  0.2747 -0.2020  0.1167
58594SOL    HW181745   7.722   1.184  12.415 -0.8849  0.1984  1.5942
58594SOL    HW281746   7.666   1.043  12.403 -0.6426  0.1359  1.1412
58595SOL     OW81747   7.698   4.892   1.268  0.3474  0.2804 -0.4968
58595SOL    HW181748   7.620   4.932   1.228 -0.9186 -1.8357 -0.2992
58595SOL    HW281749   7.717   4.817   1.212  2.1140  0.5963 -0.3600
58596SOL     OW81750  10.565   5.815   5.682 -0.1274  0.0157 -0.3373
58596SOL    HW181751  10.562   5.887   5.620  0.2729 -0.5433 -1.0090
58596SOL    HW281752  10.473   5.799   5.704 -0.2045  1.0538  0.2262
58597SOL     OW81753   4.726   0.037   4.106  0.6065 -0.0269 -0.0452
58597SOL    HW181754   4.755  -0.039   4.054  0.0231 -0.9336  0.9183
58597SOL    HW281755   4.760   0.019   4.194  1.2543  1.3017 -0.0101
58598SOL     OW81756  11.137   4.199   2.014 -0.7705  0.0993 -0.5922
58598SOL    HW181757  11.114   4.268   2.077 -1.1846 -1.2794  0.8423
58598SOL    HW281758  11.230   4.213   1.996 -1.1077  1.7397 -1.2975
58599SOL     OW81759   7.342   7.733   2.375  0.3621 -0.2335  0.8195
58599SOL    HW181760   7.309   7.816   2.409  0.1254 -0.6796  1.6900
58599SOL    HW281761   7.404   7.759   2.306  0.7713  0.6812  1.5152
58600SOL     OW81762  12.194   5.930   5.410  0.3042  0.2813 -0.8879
58600SOL    HW181763  12.191   5.835   5.420  0.6753  0.0911 -2.3851
58600SOL    HW281764  12.288   5.951   5.405  0.2348  0.7579 -0.3765
58601SOL     OW81765   8.524   3.648   0.844  0.1809  0.2090 -0.0057
58601SOL    HW181766   8.552   3.643   0.936  0.9385  1.1491 -0.1623
58601SOL    HW281767   8.599   3.617   0.794  0.6429  1.8571 -0.3914
58602SOL     OW81768  11.706   3.992   5.499 -0.1159  0.4517  0.1898
58602SOL    HW181769  11.663   4.002   5.584  2.5101 -0.2595  1.7129
58602SOL    HW281770  11.770   4.062   5.495 -0.0839  0.3770 -1.1615
58603SOL     OW81771  11.596   8.734   3.491  0.3831 -0.0806  0.3025
58603SOL    HW181772  11.567   8.790   3.419  0.8054 -0.0693  0.1405
58603SOL    HW281773  11.689   8.755   3.502  0.2512  0.1451  1.0573
58604SOL     OW81774   1.857   4.134   7.178 -0.2245 -0.5862 -0.5393
58604SOL    HW181775   1.837   4.217   7.133 -0.1140 -0.2916 -0.0504
58604SOL    HW281776   1.771   4.100   7.205 -0.2969 -0.7944 -1.0197
58605SOL     OW81777  12.389   3.465   2.920  0.2575 -0.3858 -0.4412
58605SOL    HW181778  12.415   3.382   2.880 -0.0024 -0.0028 -1.4279
58605SOL    HW281779  12.456   3.483   2.985  1.1599 -0.6084 -1.2934
58606SOL     OW81780   9.479  12.326   8.912  0.3302 -0.4030  0.8123
58606SOL    HW181781   9.451  12.359   8.997 -2.9520 -1.6783  0.3641
58606SOL    HW281782   9.547  12.388   8.883 -1.9280  2.9858  2.1767
58607SOL     OW81783  10.437  10.733   1.926  0.5196 -0.1392  0.3172
58607SOL    HW181784  10.448  10.790   2.003 -0.6769 -0.4312  0.7160
58607SOL    HW281785  10.368  10.672   1.951  0.4851 -0.5747 -0.8096
58608SOL     OW81786   2.152   7.691   2.679  0.3869 -0.2929  0.1829
58608SOL    HW181787   2.128   7.762   2.738 -0.3513 -0.6034  0.2600
58608SOL    HW281788   2.112   7.714   2.595  0.7526 -0.2596  0.0153
58609SOL     OW81789   6.662   2.178   3.443  0.1136  0.1504 -0.4702
58609SOL    HW181790   6.613   2.191   3.361 -1.3557  0.4724  0.4177
58609SOL    HW281791   6.660   2.264   3.485 -0.0220 -0.2495  0.3556
58610SOL     OW81792   1.293   1.145   9.916  0.1476  0.7153  0.5263
58610SOL    HW181793   1.253   1.224   9.879 -0.8438 -0.2820 -0.6661
58610SOL    HW281794   1.364   1.124   9.855  0.4804  0.7574  0.9016
58611SOL     OW81795   0.024   7.888   4.162  0.3034  0.2635  0.2079
58611SOL    HW181796  -0.023   7.943   4.225  1.0342  1.6484 -0.3888
58611SOL    HW281797   0.112   7.927   4.157  0.3064  0.1462 -1.5484
58612SOL     OW81798   3.651   5.367  10.575 -0.0668 -0.1471 -0.1115
58612SOL    HW181799   3.665   5.273  10.571 -2.7469 -0.6904  1.3728
58612SOL    HW281800   3.657   5.389  10.667 -0.5295  0.9372 -0.3244
58613SOL     OW81801   2.365   2.092   9.402  0.2881 -0.6392 -0.4449
58613SOL    HW181802   2.272   2.108   9.415  0.5538  0.9104 -0.2164
58613SOL    HW281803   2.391   2.154   9.333  1.3201 -0.3436  0.1746
58614SOL     OW81804   9.471   5.747   4.434 -0.0906  0.5407  0.0461
58614SOL    HW181805   9.485   5.677   4.370 -0.0692  0.6553 -0.0738
58614SOL    HW281806   9.467   5.702   4.519 -0.3617  0.3622 -0.0599
58615SOL     OW81807   2.918   3.506   9.646 -0.0756  0.5774 -0.3851
58615SOL    HW181808   2.954   3.417   9.654 -2.4831 -0.6112 -1.6603
58615SOL    HW281809   2.850   3.498   9.579 -0.3001  3.4429 -0.6095
58616SOL     OW81810   1.558   1.422  10.442 -0.4011  0.4386  0.0800
58616SOL    HW181811   1.569   1.511  10.408  1.2752  0.6364  1.0020
58616SOL    HW281812   1.639   1.377  10.420 -0.4933 -0.3180  1.1584
58617SOL     OW81813  11.318   2.518   0.870 -0.0741 -0.5007 -0.2410
58617SOL    HW181814  11.299   2.561   0.953 -1.1716 -2.0621  0.3500
58617SOL    HW281815  11.387   2.455   0.891 -0.3248 -0.8685 -0.5170
58618SOL     OW81816   2.268   2.089   4.007  0.3963  0.1659 -0.1319
58618SOL    HW181817   2.313   2.131   3.933  2.0480  1.6435  1.6011
58618SOL    HW281818   2.207   2.155   4.039  0.1451 -0.2317  0.2187
58619SOL     OW81819   4.721   0.121   1.987 -1.0616  0.3672  0.1252
58619SOL    HW181820   4.800   0.161   2.025 -1.8260  0.2831  1.9137
58619SOL    HW281821   4.705   0.172   1.907  0.7406  0.4299 -0.2434
58620SOL     OW81822  10.347   4.257   0.799 -0.1112 -0.5777  0.3668
58620SOL    HW181823  10.313   4.190   0.858 -1.0405 -0.3112  0.1526
58620SOL    HW281824  10.401   4.314   0.855 -0.4198 -0.7241  0.8153
58621SOL     OW81825  11.569   6.010  11.219  0.1288 -0.0668  0.2482
58621SOL    HW181826  11.621   5.935  11.248 -0.0563 -0.3431 -0.1157
58621SOL    HW281827  11.548   6.059  11.298  0.1478 -0.4692  0.4994
58622SOL     OW81828   1.824   8.428   7.379 -0.3290 -0.1668 -0.4470
58622SOL    HW181829   1.821   8.522   7.361 -1.1129 -0.0157  0.3706
58622SOL    HW281830   1.738   8.408   7.415 -0.2265 -1.2380 -0.7629
58623SOL     OW81831   6.371   4.085  10.259  0.1154  0.0776  0.2179
58623SOL    HW181832   6.462   4.066  10.284 -0.4027 -1.5275  1.0128
58623SOL    HW281833   6.330   4.117  10.339  0.0598  1.2201 -0.2461
58624SOL     OW81834   3.194  11.747   5.842 -0.1463  1.0917  0.3436
58624SOL    HW181835   3.222  11.725   5.754 -1.7340 -0.4715  0.1632
58624SOL    HW281836   3.210  11.841   5.850  1.2957  1.0109 -1.0855
58625SOL     OW81837  10.736   2.118  11.679  0.1036 -0.0853  0.3214
58625SOL    HW181838  10.675   2.058  11.722 -0.4323 -0.1441 -0.5082
58625SOL    HW281839  10.688   2.151  11.603  1.5307 -1.1354 -1.1078
58626SOL     OW81840   6.608   6.113   8.444 -0.1803 -0.0607 -0.2876
58626SOL    HW181841   6.630   6.067   8.525  1.7388 -0.5947 -1.0569
58626SOL    HW281842   6.595   6.044   8.379 -0.7609  0.3849 -0.6567
58627SOL     OW81843   5.991   8.991   1.333  0.4191  0.5929 -0.1643
58627SOL    HW181844   5.947   8.908   1.350 -1.1722  1.4799  0.2247
58627SOL    HW281845   6.031   8.980   1.247  0.2624 -0.5842 -0.0968
58628SOL     OW81846   3.903   8.792   2.577 -0.4140  0.0617 -0.8711
58628SOL    HW181847   3.836   8.730   2.549 -1.6055  0.9432 -0.0588
58628SOL    HW281848   3.935   8.830   2.495 -0.9446 -0.3273 -1.2703
58629SOL     OW81849   2.573   6.593   5.877 -0.3084 -0.1542  0.5496
58629SOL    HW181850   2.510   6.530   5.911 -0.4351 -0.1313  0.3592
58629SOL    HW281851   2.571   6.665   5.940  0.7973 -0.9007  1.4803
58630SOL     OW81852   9.171   9.547   4.758  0.1583 -0.3058  0.0319
58630SOL    HW181853   9.205   9.459   4.741  0.4154  0.1036 -1.7097
58630SOL    HW281854   9.080   9.533   4.784  0.7427 -1.2020  1.7884
58631SOL     OW81855   2.835   3.182   6.300 -0.0030  0.2328  0.5131
58631SOL    HW181856   2.885   3.260   6.276  1.0526 -0.5148  0.2140
58631SOL    HW281857   2.743   3.211   6.300  0.4141  1.6233  1.0391
58632SOL     OW81858   2.409   1.649  12.015 -0.3491 -0.0559 -0.0114
58632SOL    HW181859   2.492   1.693  11.999 -0.3478 -0.5738 -1.5799
58632SOL    HW281860   2.372   1.694  12.091  1.5636 -0.1120  1.0313
58633SOL     OW81861   6.229  11.909  10.055 -1.0297 -0.5334 -0.5090
58633SOL    HW181862   6.289  11.961  10.109 -0.3743 -0.5815 -1.1694
58633SOL    HW281863   6.260  11.922   9.966 -0.3513 -2.6695 -0.6458
58634SOL     OW81864   6.690   6.365  10.295 -0.7564  0.2044  0.0809
58634SOL    HW181865   6.623   6.296  10.293 -0.6640  0.1237 -0.4302
58634SOL    HW281866   6.640   6.446  10.289 -0.8130  0.1406 -0.4047
58635SOL     OW81867   7.975   5.470   0.865 -0.1096  0.5392 -0.3386
58635SOL    HW181868   8.009   5.448   0.951  1.2838 -1.0911 -1.2451
58635SOL    HW281869   8.013   5.555   0.845  0.1041  0.6141  0.3629
58636SOL     OW81870  10.017   3.591  12.416 -0.1071 -0.2818  1.0137
58636SOL    HW181871   9.988   3.615  12.328  2.3729  1.2946  0.5081
58636SOL    HW281872   9.999   3.497  12.422 -1.9799 -0.0837 -0.4460
58637SOL     OW81873   7.640  11.868  11.207 -0.0782  0.4605  0.6911
58637SOL    HW181874   7.727  11.908  11.221  1.2931 -2.0116 -0.1518
58637SOL    HW281875   7.616  11.893  11.118  0.6114 -0.2467  0.2916
58638SOL     OW81876   9.224   1.466  11.361 -0.2275 -0.5267  0.2699
58638SOL    HW181877   9.214   1.381  11.316  1.2855 -1.1009  0.9565
58638SOL    HW281878   9.283   1.516  11.304 -2.0025  0.5607 -0.7234
58639SOL     OW81879   0.620   8.144  11.581 -0.3804 -0.1688 -0.0388
58639SOL    HW181880   0.663   8.226  11.607 -0.5103 -0.1106 -0.0067
58639SOL    HW281881   0.594   8.159  11.490 -0.3605 -0.1923 -0.0482
58640SOL     OW81882   4.001   2.529   9.219  0.2078 -0.0125  0.4679
58640SOL    HW181883   3.999   2.492   9.307  3.0667  0.2086  0.7316
58640SOL    HW281884   4.083   2.578   9.216 -0.5071  1.1958 -1.8727
58641SOL     OW81885   4.556   8.324   7.750 -0.5069 -0.6273  0.3544
58641SOL    HW181886   4.524   8.324   7.841 -0.5412  0.9332  0.3709
58641SOL    HW281887   4.544   8.414   7.721  1.2727 -0.6442 -0.5679
58642SOL     OW81888   9.103   7.736  12.214  0.1887  0.2552 -0.2231
58642SOL    HW181889   9.042   7.808  12.226 -0.9580 -0.6093 -0.7065
58642SOL    HW281890   9.109   7.724  12.119 -1.7487 -1.9634 -0.1690
58643SOL     OW81891   0.921  11.763   8.691  0.1679  0.1395  0.4268
58643SOL    HW181892   0.965  11.847   8.675  0.6204  0.2527  2.1117
58643SOL    HW281893   0.832  11.776   8.659  0.4623  0.9755 -0.0972
58644SOL     OW81894   7.831   4.353   3.177 -0.1364  0.1719 -0.6265
58644SOL    HW181895   7.903   4.416   3.183 -1.0664  1.4046 -1.7958
58644SOL    HW281896   7.826   4.313   3.264  1.6952  0.3266 -0.4092
58645SOL     OW81897   4.515   3.866   0.039 -0.1108  0.5174 -0.2596
58645SOL    HW181898   4.583   3.831  -0.018 -0.5843 -0.0888 -0.4693
58645SOL    HW281899   4.448   3.798   0.041  0.6695 -0.2740  2.4771
58646SOL     OW81900  11.005  10.918  10.006 -0.4478  0.1202 -0.0570
58646SOL    HW181901  11.096  10.909  10.037 -0.7165  2.4427  1.7355
58646SOL    HW281902  11.010  10.900   9.912  1.2339 -3.0442  0.4937
58647SOL     OW81903   4.395   5.659   5.399 -0.4694 -0.6834 -0.0961
58647SOL    HW181904   4.371   5.645   5.308  1.2525  2.5523 -1.1836
58647SOL    HW281905   4.490   5.662   5.400 -0.4268 -0.9021  1.8665
58648SOL     OW81906   9.192  10.292  10.974  0.2790 -0.3607 -0.4655
58648SOL    HW181907   9.225  10.373  10.936 -0.3194 -0.4368 -1.1572
58648SOL    HW281908   9.119  10.319  11.029  0.6843 -0.3353  0.0752
58649SOL     OW81909   2.553  12.240   3.411 -0.2835 -0.0212  0.0557
58649SOL    HW181910   2.504  12.224   3.491  0.2212 -0.8805  0.2009
58649SOL    HW281911   2.529  12.168   3.353  0.9462 -0.5536  0.1947
58650SOL     OW81912   6.841   4.092  10.923  0.7750 -0.5038 -0.3596
58650SOL    HW181913   6.777   4.163  10.936 -0.2093 -1.2202 -1.0916
58650SOL    HW281914   6.918   4.135  10.886  0.7863  0.4034  0.6737
58651SOL     OW81915   2.154  10.427   2.117 -0.5147  0.6783  0.4859
58651SOL    HW181916   2.232  10.378   2.089 -1.4793 -0.1641 -0.9042
58651SOL    HW281917   2.186  10.515   2.136  0.8765  0.1812  0.5673
58652SOL     OW81918  12.418   1.629   5.584  0.3042  0.0840  0.4059
58652SOL    HW181919  12.396   1.681   5.662 -0.8854 -0.7934  0.6981
58652SOL    HW281920  12.365   1.667   5.514  1.0088  0.5678  0.1303
58653SOL     OW81921   6.345   2.050   3.594  0.2968 -0.2647  0.1028
58653SOL    HW181922   6.286   1.998   3.649  0.4908 -0.1675  0.4082
58653SOL    HW281923   6.424   1.996   3.585 -0.3437 -1.0006 -1.4526
58654SOL     OW81924  11.616   7.810  12.394  0.1884  0.4506  0.2768
58654SOL    HW181925  11.697   7.791  12.441  0.6580  0.6970 -0.4222
58654SOL    HW281926  11.625   7.764  12.311  0.6524  2.3651 -0.7867
58655SOL     OW81927  11.008   3.539   8.871 -1.0155  0.3738 -0.4689
58655SOL    HW181928  11.005   3.453   8.829  2.2365  0.1706 -0.5455
58655SOL    HW281929  10.923   3.547   8.915 -0.5623 -4.0929  1.7897
58656SOL     OW81930   1.013   0.928   5.210 -0.2896  0.1330  0.7091
58656SOL    HW181931   0.994   0.997   5.274  0.6806  0.5642  0.5569
58656SOL    HW281932   0.974   0.960   5.129 -0.9317 -0.0946  0.9244
58657SOL     OW81933   3.688  11.934   9.549  0.0060  0.8751 -0.0476
58657SOL    HW181934   3.704  11.881   9.471  0.5327  0.4457  0.3435
58657SOL    HW281935   3.638  12.009   9.518  0.1103  0.6446 -0.7771
58658SOL     OW81936   6.733   3.493   9.057 -0.0898 -0.6061  0.2360
58658SOL    HW181937   6.806   3.431   9.056 -1.2703 -2.0650 -0.5662
58658SOL    HW281938   6.725   3.522   8.966 -0.8427 -0.9118  0.1935
58659SOL     OW81939  11.547  10.087   1.158  0.1882  0.5977  0.0034
58659SOL    HW181940  11.613  10.156   1.169 -0.9765  1.7466  0.0546
58659SOL    HW281941  11.579  10.014   1.210  0.2547  1.9771  2.0094
58660SOL     OW81942   0.213   7.256   4.155  0.3218 -0.4574  0.5178
58660SOL    HW181943   0.240   7.344   4.180 -0.2796 -0.4972  1.3587
58660SOL    HW281944   0.287   7.200   4.181  0.1922 -0.3485  1.1275
58661SOL     OW81945   0.765   0.773   3.501 -0.3866 -0.1525  0.2260
58661SOL    HW181946   0.826   0.758   3.430  0.7423  1.4400  0.8025
58661SOL    HW281947   0.678   0.763   3.461  0.2268 -0.3429 -1.1087
58662SOL     OW81948   2.059   0.938   7.116  0.3649 -1.3186 -0.2628
58662SOL    HW181949   1.982   0.941   7.172  0.9988  1.8374  0.6786
58662SOL    HW281950   2.028   0.966   7.030  0.5100  1.1002  0.3830
58663SOL     OW81951   3.651   8.454   0.744 -0.9300  0.0739  0.2851
58663SOL    HW181952   3.697   8.468   0.661 -0.2270 -1.8344  0.2999
58663SOL    HW281953   3.621   8.363   0.739  0.6207 -0.6498  2.8217
58664SOL     OW81954  12.132  10.483   3.885  0.0476  0.3924 -0.0855
58664SOL    HW181955  12.166  10.537   3.814 -0.4733 -0.9268 -1.3696
58664SOL    HW281956  12.064  10.429   3.845 -0.2427 -0.4045  1.3983
58665SOL     OW81957   8.514   1.411   6.577 -0.0573 -0.3692  0.4025
58665SOL    HW181958   8.597   1.363   6.574  0.1108 -0.2122  1.7389
58665SOL    HW281959   8.530   1.490   6.526  0.7612 -0.1574  0.9566
58666SOL     OW81960  10.534  11.572  11.976  0.3144 -0.3769  0.3575
58666SOL    HW181961  10.627  11.551  11.974 -0.0207 -1.9126 -0.4550
58666SOL    HW281962  10.491  11.491  12.003 -0.8865 -0.1414 -0.7499
58667SOL     OW81963   7.439  10.743  10.326 -0.8838 -0.0101  0.3158
58667SOL    HW181964   7.416  10.801  10.398 -2.4153  1.5609 -1.3169
58667SOL    HW281965   7.513  10.787  10.283 -0.9665 -0.1328  0.0494
58668SOL     OW81966   8.662   1.221   8.511 -0.2361 -0.4661  0.2150
58668SOL    HW181967   8.637   1.310   8.489  2.5646  0.4458  0.3628
58668SOL    HW281968   8.579   1.174   8.520 -1.7466  1.7800 -1.1462
58669SOL     OW81969   6.845  11.651   5.043  0.4115 -0.1330 -0.2424
58669SOL    HW181970   6.811  11.645   4.954  0.1429  0.3244 -0.1775
58669SOL    HW281971   6.927  11.701   5.034 -0.0648  0.6970 -0.1349
58670SOL     OW81972   4.336   2.887   5.110  0.1134  0.2015  0.4594
58670SOL    HW181973   4.394   2.948   5.065  2.2540 -1.1954  1.2071
58670SOL    HW281974   4.334   2.809   5.055 -1.0974  0.2067  0.4543
58671SOL     OW81975   0.618   5.437  12.149  0.4403  0.5631  0.1097
58671SOL    HW181976   0.604   5.446  12.243  0.7799 -1.2815  0.3674
58671SOL    HW281977   0.713   5.436  12.139  0.4072  0.2221 -0.1868
58672SOL     OW81978   2.050   8.470  11.168  0.0949 -0.7111 -0.1726
58672SOL    HW181979   2.071   8.395  11.113 -0.9073 -0.3275 -1.1059
58672SOL    HW281980   2.004   8.531  11.111  0.5351  0.4601  0.6683
58673SOL     OW81981   1.862   6.078   8.551  0.0676 -0.4288  0.5465
58673SOL    HW181982   1.800   6.143   8.586 -0.8621 -0.2551 -1.2919
58673SOL    HW281983   1.838   5.996   8.595 -2.7719 -0.7783 -1.3588
58674SOL     OW81984   8.556   9.576   3.754 -0.0255 -0.0827  0.0912
58674SOL    HW181985   8.618   9.597   3.823 -1.1421 -1.3702  1.5712
58674SOL    HW281986   8.472   9.611   3.786 -0.2001  1.1556 -1.6077
58675SOL     OW81987  11.126   5.260   2.980  0.4816 -0.3745  0.0018
58675SOL    HW181988  11.201   5.313   3.006  0.9569 -0.7260 -0.6425
58675SOL    HW281989  11.063   5.323   2.944  0.7190 -0.1518 -0.0224
58676SOL     OW81990   0.373   9.376  12.353  0.6155 -0.1359 -0.7542
58676SOL    HW181991   0.439   9.443  12.372 -0.2207  0.2854  0.8677
58676SOL    HW281992   0.348   9.393  12.262  2.0622  0.2830 -1.1005
58677SOL     OW81993   6.451   9.278   3.914  0.0386  0.6527 -0.3559
58677SOL    HW181994   6.529   9.257   3.966  1.1272  1.5528 -1.5831
58677SOL    HW281995   6.447   9.374   3.915 -0.0034  0.6782 -1.7914
58678SOL     OW81996   5.558  11.713   9.470  0.0978 -0.9201  0.6472
58678SOL    HW181997   5.555  11.799   9.429  1.0995 -0.5911  1.2400
58678SOL    HW281998   5.589  11.729   9.559  0.1276 -1.8725  0.8233
58679SOL     OW81999  10.327  12.199  12.322 -0.1913 -0.0641 -0.5155
58679SOL    HW182000  10.352  12.267  12.259  0.8259  1.2084  1.1570
58679SOL    HW282001  10.391  12.129  12.310 -0.4030 -0.1287 -1.3177
58680SOL     OW82002   9.107   8.633   8.759 -0.2414  0.0015  0.3113
58680SOL    HW182003   9.080   8.638   8.667  2.0733  3.2301 -0.3889
58680SOL    HW282004   9.045   8.690   8.805 -0.5989 -0.5631  0.5392
58681SOL     OW82005  12.182  11.396   4.757 -0.1781  0.1694 -0.2729
58681SOL    HW182006  12.101  11.443   4.775 -1.3487 -1.0380 -1.9950
58681SOL    HW282007  12.166  11.308   4.791  0.8228  0.1836  0.2656
58682SOL     OW82008   9.795   2.805   9.186  0.1804 -0.3969 -0.4916
58682SOL    HW182009   9.784   2.898   9.169  0.7313 -0.1196  0.5908
58682SOL    HW282010   9.829   2.769   9.103  1.5144  0.6606 -0.4469
58683SOL     OW82011  10.725   6.534  12.374 -0.0749 -0.2353 -0.5997
58683SOL    HW182012  10.747   6.626  12.390  0.2991 -0.3545 -0.4245
58683SOL    HW282013  10.808   6.493  12.353  0.1417 -0.9883  1.4734
58684SOL     OW82014   0.772   9.724   8.491  0.4761 -0.0443 -0.3987
58684SOL    HW182015   0.693   9.687   8.529  0.4239 -0.7309 -1.1560
58684SOL    HW282016   0.785   9.807   8.538  1.8961 -1.9862  3.0536
58685SOL     OW82017   1.836   9.791   5.693  0.3783  0.1987 -0.2023
58685SOL    HW182018   1.894   9.716   5.701 -1.7242 -1.7077 -1.4126
58685SOL    HW282019   1.748   9.753   5.690 -0.9933  2.8955  1.4778
58686SOL     OW82020   2.306  10.290   3.641 -0.7054 -0.0779 -0.2803
58686SOL    HW182021   2.275  10.291   3.551 -1.8202 -2.0305  0.0187
58686SOL    HW282022   2.379  10.229   3.641  1.1682  2.0545 -0.3493
58687SOL     OW82023  10.893   9.402  10.479 -0.2215  0.1209 -0.4234
58687SOL    HW182024  10.853   9.317  10.461 -2.3293  1.0719 -0.4965
58687SOL    HW282025  10.820   9.458  10.504  1.1303  1.9088 -0.2975
58688SOL     OW82026   6.258   1.528   8.026 -0.7659  0.6684 -0.2062
58688SOL    HW182027   6.339   1.564   7.991 -0.4442 -0.4547 -0.6664
58688SOL    HW282028   6.276   1.434   8.037 -1.5826  0.6218  0.8922
58689SOL     OW82029   2.400   3.528   3.354 -0.8379  0.4267  0.7785
58689SOL    HW182030   2.321   3.482   3.383  0.2311 -0.3409  2.6116
58689SOL    HW282031   2.436   3.567   3.433 -0.3176  2.3183 -0.3266
58690SOL     OW82032   9.233   2.776   0.687  0.0891 -0.4416 -0.5756
58690SOL    HW182033   9.226   2.719   0.763 -0.1632 -0.8590 -0.9070
58690SOL    HW282034   9.152   2.761   0.638  1.4623 -2.3326 -2.4106
58691SOL     OW82035  10.484   3.398   1.140  0.5440  0.1566 -0.2082
58691SOL    HW182036  10.571   3.359   1.145  0.6977  0.4985 -0.1871
58691SOL    HW282037  10.495   3.486   1.176  0.0304 -0.0616  0.5104
58692SOL     OW82038   9.852   4.148   6.349  0.1857 -0.2407 -0.2211
58692SOL    HW182039   9.913   4.199   6.297 -0.8440 -0.1007 -1.3384
58692SOL    HW282040   9.779   4.208   6.367 -2.1891 -1.8210 -3.5507
58693SOL     OW82041   8.158  10.737   9.594 -0.2202  0.1178 -0.0752
58693SOL    HW182042   8.171  10.684   9.673 -1.5398  1.0500  0.8027
58693SOL    HW282043   8.204  10.688   9.525  1.1056 -0.6356  1.2754
58694SOL     OW82044   6.046   6.003   9.729  0.5493 -0.3791 -0.0555
58694SOL    HW182045   6.115   5.954   9.775 -0.5631 -2.0898 -0.0993
58694SOL    HW282046   6.029   5.952   9.650  2.1994  2.3516 -2.3581
58695SOL     OW82047  10.595   1.067   9.182  0.5577 -0.1599  0.1524
58695SOL    HW182048  10.630   1.088   9.268 -2.3799 -1.9581  1.9264
58695SOL    HW282049  10.531   1.135   9.164  2.0206  0.9175 -1.2839
58696SOL     OW82050   8.700   0.465  12.185  0.2883  0.7892 -0.0544
58696SOL    HW182051   8.673   0.428  12.101  1.3626 -3.3601  1.1644
58696SOL    HW282052   8.621   0.462  12.239  0.0468  1.7036 -0.3346
58697SOL     OW82053  11.332  11.402   7.544 -0.1079  0.1302 -0.0164
58697SOL    HW182054  11.335  11.319   7.497 -1.9370  0.2989 -0.5191
58697SOL    HW282055  11.272  11.456   7.492  0.1318  1.3484  0.9382
58698SOL     OW82056  10.496   3.813   2.725 -0.3161 -0.9625 -0.4872
58698SOL    HW182057  10.496   3.767   2.809  1.5004  0.5329  0.4015
58698SOL    HW282058  10.587   3.808   2.695 -0.6108 -0.1352 -1.5924
58699SOL     OW82059   3.296   4.694   5.098 -0.8599  0.0041  0.2959
58699SOL    HW182060   3.256   4.767   5.052 -1.2104  0.7721  1.7420
58699SOL    HW282061   3.268   4.616   5.050 -2.2999  0.6797 -0.0144
58700SOL     OW82062   6.638   0.621   5.272 -0.6721  0.6360  0.2193
58700SOL    HW182063   6.700   0.554   5.242  1.0525  3.1237 -2.3334
58700SOL    HW282064   6.575   0.574   5.326  2.4324 -2.3902  1.5486
58701SOL     OW82065   1.983   7.819   5.146  0.5292 -0.3714 -0.0745
58701SOL    HW182066   2.074   7.790   5.158  0.7067  0.1634 -0.0985
58701SOL    HW282067   1.990   7.898   5.093  0.0782 -0.0879  0.2816
58702SOL     OW82068   8.537   5.546  12.395 -0.2813  0.0527 -0.0381
58702SOL    HW182069   8.584   5.467  12.370 -1.7870 -0.5405 -1.1472
58702SOL    HW282070   8.446   5.529  12.371 -1.0378  1.2799  1.7133
58703SOL     OW82071   4.318   2.731   9.749 -0.1323  0.4132 -0.0554
58703SOL    HW182072   4.389   2.778   9.706  0.7063 -0.9414 -0.2304
58703SOL    HW282073   4.238   2.768   9.711  0.5201  0.9723 -0.9327
58704SOL     OW82074   3.476   5.578   4.671 -0.1309  0.0460  0.4031
58704SOL    HW182075   3.523   5.598   4.751  1.9673  0.9629 -0.9812
58704SOL    HW282076   3.505   5.644   4.608 -0.7823 -1.3452 -1.4655
58705SOL     OW82077   0.729   8.016   8.557  0.0381  0.0782  0.0407
58705SOL    HW182078   0.724   7.921   8.563  1.8335  0.0232  1.7116
58705SOL    HW282079   0.640   8.044   8.538 -0.4520 -1.9467 -0.9415
58706SOL     OW82080  10.969  11.282  10.565  0.6872  0.2469 -0.2559
58706SOL    HW182081  10.975  11.208  10.506 -0.2406  0.2390 -0.3644
58706SOL    HW282082  11.001  11.357  10.514  0.1808  0.1871 -0.6680
58707SOL     OW82083  11.149   9.645   8.802 -0.7233  0.2534  0.2627
58707SOL    HW182084  11.108   9.676   8.722 -1.6418 -1.3871  0.0435
58707SOL    HW282085  11.178   9.724   8.848 -0.2398  1.2255 -1.6390
58708SOL     OW82086  10.141   4.158   5.506 -0.2152  0.0936 -0.0081
58708SOL    HW182087  10.085   4.100   5.556  0.2446  0.0586  0.4806
58708SOL    HW282088  10.130   4.244   5.546 -1.3804  0.4942 -1.1311
58709SOL     OW82089   1.396  11.040   5.982 -0.1187  0.1662  0.3294
58709SOL    HW182090   1.391  10.946   5.965 -1.2991  0.2920 -0.0718
58709SOL    HW282091   1.311  11.074   5.956  0.3997  1.4025  0.1699
58710SOL     OW82092   0.594  12.406   2.091  0.1400  0.6708 -0.2433
58710SOL    HW182093   0.665  12.419   2.153  0.7305  0.6416 -0.8996
58710SOL    HW282094   0.628  12.343   2.028 -0.6647  0.2498 -0.2671
58711SOL     OW82095   6.909   7.688  10.687  0.1757 -0.7656  0.3249
58711SOL    HW182096   6.831   7.651  10.729  1.6515 -0.6524  3.4376
58711SOL    HW282097   6.881   7.773  10.654 -1.1193 -0.8783  1.0696
58712SOL     OW82098   0.510   6.577  10.618 -0.2196 -0.2411  0.3383
58712SOL    HW182099   0.510   6.671  10.600  0.0674 -0.3428 -0.2100
58712SOL    HW282100   0.441   6.541  10.562 -2.3646  0.0131  2.6706
58713SOL     OW82101   2.832   7.421   1.834  0.4495 -0.1016  0.1150
58713SOL    HW182102   2.752   7.422   1.781  1.6483 -0.2803 -1.8083
58713SOL    HW282103   2.889   7.485   1.792  1.4119 -0.1434  1.3117
58714SOL     OW82104   4.592   1.388   1.550 -0.0860  0.5308  0.3344
58714SOL    HW182105   4.541   1.459   1.589 -1.0266 -0.2375  0.5650
58714SOL    HW282106   4.646   1.430   1.483  0.5085  1.6662  1.4964
58715SOL     OW82107  11.559   5.317   9.572 -0.0359  0.5237  0.4545
58715SOL    HW182108  11.503   5.390   9.546 -0.0775  0.0570 -0.8404
58715SOL    HW282109  11.648   5.354   9.570 -0.1273  0.7523  0.6006
58716SOL     OW82110   8.332   7.315   0.295 -0.3748 -0.7034 -0.0748
58716SOL    HW182111   8.355   7.334   0.204  0.5067 -1.7743 -0.1011
58716SOL    HW282112   8.396   7.365   0.346  0.3352 -1.5655 -0.0960
58717SOL     OW82113  12.366  11.720   7.495 -0.0862  0.1772 -1.0117
58717SOL    HW182114  12.329  11.797   7.539  1.2036  0.9227 -1.1907
58717SOL    HW282115  12.292  11.682   7.447 -1.8591 -1.2757  2.4800
58718SOL     OW82116   8.805   3.194  10.889 -0.1874 -0.6661 -0.2187
58718SOL    HW182117   8.869   3.244  10.940 -0.6955  0.4396 -0.6208
58718SOL    HW282118   8.720   3.232  10.914 -0.4761 -0.3631 -1.5765
58719SOL     OW82119   6.653   0.893   7.256 -0.0201  0.1813 -0.8885
58719SOL    HW182120   6.561   0.872   7.273  0.1513  0.9423  1.2469
58719SOL    HW282121   6.671   0.854   7.171 -1.7439 -1.7972 -0.4239
58720SOL     OW82122  12.390  11.362   4.422  0.2783  0.1793  0.2533
58720SOL    HW182123  12.462  11.369   4.484  0.4216 -1.4429  0.2990
58720SOL    HW282124  12.426  11.393   4.339  0.8890 -0.1712  0.3851
58721SOL     OW82125   6.538   9.175   7.458  0.9543  0.0252 -0.1246
58721SOL    HW182126   6.575   9.090   7.479  0.5296  0.1632  1.2708
58721SOL    HW282127   6.614   9.229   7.433  1.1557 -0.8964 -1.5980
58722SOL     OW82128   0.213   5.632  11.079 -0.2841 -0.1487 -0.3929
58722SOL    HW182129   0.268   5.708  11.100 -0.3992 -0.4866  1.2199
58722SOL    HW282130   0.220   5.624  10.984  0.5584  1.2540 -0.4802
58723SOL     OW82131   6.525   9.894   1.496  0.9066  0.4011  0.3865
58723SOL    HW182132   6.565   9.851   1.571  0.6863 -0.5888 -0.0457
58723SOL    HW282133   6.510   9.984   1.524  3.7306  0.9321  0.4720
58724SOL     OW82134   2.183   6.093   3.755  0.5296  0.8180 -0.2795
58724SOL    HW182135   2.132   6.136   3.824  0.3941 -0.3777  0.3915
58724SOL    HW282136   2.272   6.126   3.766  0.4805  0.7327  0.3860
58725SOL     OW82137   3.347   4.461   9.124 -0.4417 -0.5057 -0.4723
58725SOL    HW182138   3.383   4.424   9.043  0.0636  0.5813 -0.7659
58725SOL    HW282139   3.388   4.548   9.131 -1.7298  0.0775  0.0878
58726SOL     OW82140   5.952   7.486   3.402 -0.6319 -0.0650 -0.0846
58726SOL    HW182141   5.922   7.513   3.315 -0.1423 -2.7923 -1.1916
58726SOL    HW282142   5.910   7.402   3.417 -0.6864  0.3458  2.3678
58727SOL     OW82143   6.545   5.448   0.528 -0.2657  0.4623  0.4499
58727SOL    HW182144   6.516   5.356   0.526 -0.0534  0.3772  1.1954
58727SOL    HW282145   6.520   5.479   0.615 -1.0429  1.3488 -0.0708
58728SOL     OW82146   2.402   0.291   0.409 -0.3404 -0.3744  0.3358
58728SOL    HW182147   2.468   0.340   0.458  0.4933 -0.0383 -1.0422
58728SOL    HW282148   2.376   0.350   0.339 -0.5305 -1.2909 -0.3889
58729SOL     OW82149   5.466   5.051   8.933 -0.4751  0.7112 -0.1779
58729SOL    HW182150   5.470   5.113   8.860  0.0697 -0.2106 -0.9677
58729SOL    HW282151   5.552   5.009   8.933  0.1760  1.9345  2.1512
58730SOL     OW82152   1.206  12.226   1.445 -0.1963  0.4703 -0.3334
58730SOL    HW182153   1.248  12.281   1.511 -2.8467  0.1750  1.7619
58730SOL    HW282154   1.268  12.155   1.429  0.6757  0.7528  1.5937
58731SOL     OW82155  12.151   9.548   5.829 -0.1135  0.0222 -0.5134
58731SOL    HW182156  12.197   9.563   5.747 -0.1513 -1.1067 -0.7627
58731SOL    HW282157  12.216   9.563   5.897  1.1828 -3.0671 -0.8876
58732SOL     OW82158  12.021  11.671  12.361  0.1471  0.2939 -0.2070
58732SOL    HW182159  11.935  11.632  12.346 -0.2057  0.8972  0.2236
58732SOL    HW282160  12.083  11.605  12.330 -0.4827  0.1824 -1.2799
58733SOL     OW82161   1.660   7.660   5.929  0.6107 -0.8061 -0.5536
58733SOL    HW182162   1.641   7.637   5.838 -0.5267  0.1806 -0.5818
58733SOL    HW282163   1.665   7.575   5.974  0.0131 -1.2576 -1.3124
58734SOL     OW82164   4.265  10.923   9.011  0.0229 -0.6206  0.6382
58734SOL    HW182165   4.184  10.973   9.010  0.2476  0.0289  3.7218
58734SOL    HW282166   4.285  10.907   8.919 -3.5903 -0.8612 -0.2413
58735SOL     OW82167  12.450   9.404   2.151  0.3359  0.5670  0.0381
58735SOL    HW182168  12.431   9.377   2.241  1.1489  1.3288  0.4541
58735SOL    HW282169  12.482   9.494   2.159 -1.3141  1.3089 -1.2225
58736SOL     OW82170   4.778   8.011   4.647 -0.0690  0.0694  0.9099
58736SOL    HW182171   4.692   7.970   4.637 -0.3707  0.6834  0.9806
58736SOL    HW282172   4.839   7.937   4.653 -0.7328 -0.4054  2.1770
58737SOL     OW82173   8.936   1.657   0.344 -0.5047  0.0016  0.2370
58737SOL    HW182174   8.846   1.657   0.375 -0.8441  0.4599 -0.7031
58737SOL    HW282175   8.979   1.588   0.394 -1.7985 -1.3754 -0.4779
58738SOL     OW82176   2.424   5.917   6.957  0.4232 -0.1535  0.3290
58738SOL    HW182177   2.345   5.959   6.922  1.1812 -0.5612 -2.0373
58738SOL    HW282178   2.433   5.837   6.905  1.9760 -0.5016  1.0939
58739SOL     OW82179   6.377  12.073   6.537  0.0272  0.0908 -0.2032
58739SOL    HW182180   6.358  12.093   6.445 -1.8778  1.4320  0.4186
58739SOL    HW282181   6.297  12.031   6.569  0.6536 -0.3176  0.8655
58740SOL     OW82182   5.077   5.867   9.879 -0.1772  0.1877 -0.1354
58740SOL    HW182183   5.173   5.870   9.877 -0.1118 -1.0634  0.2091
58740SOL    HW282184   5.056   5.773   9.874 -1.3477  0.3718  0.8777
58741SOL     OW82185   4.002  11.010   9.321 -0.1130 -0.1313 -0.7144
58741SOL    HW182186   3.944  11.061   9.379  0.8401 -0.0481  0.1994
58741SOL    HW282187   4.032  10.937   9.376  1.5371  0.4558 -0.7928
58742SOL     OW82188   9.663   8.981   1.557  0.3907 -0.4283  0.5083
58742SOL    HW182189   9.747   9.000   1.598 -0.4659  0.4385  1.9370
58742SOL    HW282190   9.629   9.067   1.532 -0.1763 -0.7505  0.1505
58743SOL     OW82191   3.386   9.879  11.721 -0.1159 -0.1435  0.2342
58743SOL    HW182192   3.295   9.850  11.724 -0.0923 -0.4153 -1.2795
58743SOL    HW282193   3.437   9.799  11.715  0.1128  0.0633 -0.7797
58744SOL     OW82194  10.643   1.490   9.285  0.1462 -0.5342  0.4939
58744SOL    HW182195  10.675   1.580   9.277  2.4236 -1.2927  0.4795
58744SOL    HW282196  10.686   1.456   9.363  0.5148 -2.0685 -0.3447
58745SOL     OW82197   0.171  12.466   8.243  0.2408 -0.1088 -0.5000
58745SOL    HW182198   0.112  12.518   8.298  0.2631  1.9104 -2.2476
58745SOL    HW282199   0.174  12.514   8.160  0.2055 -3.0054 -2.2977
58746SOL     OW82200   0.292   7.490  10.248 -0.3247  0.4006  0.2892
58746SOL    HW182201   0.205   7.511  10.281 -1.3118 -0.9181 -1.2803
58746SOL    HW282202   0.349   7.494  10.325 -2.2122 -1.1776  1.8777
58747SOL     OW82203   0.730   8.311   3.353 -0.0681 -0.0627 -0.2278
58747SOL    HW182204   0.775   8.303   3.437 -1.8125  2.5443  1.0905
58747SOL    HW282205   0.652   8.257   3.363  0.1417 -0.4355 -0.5446
58748SOL     OW82206   4.603   3.498   9.519  0.0045  0.3217 -0.4236
58748SOL    HW182207   4.678   3.460   9.565 -1.1320 -1.3856  0.1044
58748SOL    HW282208   4.637   3.517   9.431  1.6776  1.8472  0.4968
58749SOL     OW82209   4.785   6.517   4.842 -0.0731  0.0404 -0.2251
58749SOL    HW182210   4.834   6.517   4.924  0.1246  2.0568 -0.2953
58749SOL    HW282211   4.738   6.433   4.842  2.7963 -1.7175  0.1270
58750SOL     OW82212   7.622   0.337   7.066  0.9432 -0.6515  0.2326
58750SOL    HW182213   7.689   0.405   7.061  0.4366 -0.1332  0.3663
58750SOL    HW282214   7.552   0.375   7.120 -0.4952 -0.2691 -1.7802
58751SOL     OW82215   1.260   2.964   5.895 -0.5305  0.0890  0.3249
58751SOL    HW182216   1.274   2.876   5.930 -1.7956  0.5156  2.0066
58751SOL    HW282217   1.173   2.989   5.924  0.1357  2.2614  0.6798
58752SOL     OW82218   5.366   2.464   2.236 -0.0733 -0.2248  0.7957
58752SOL    HW182219   5.388   2.551   2.269 -1.8976 -0.2427  2.1733
58752SOL    HW282220   5.344   2.413   2.313  1.3107 -2.0850  0.0620
58753SOL     OW82221   7.225   1.791   9.781 -0.5272 -0.1509  0.1039
58753SOL    HW182222   7.269   1.833   9.707 -0.0502 -3.1835 -1.5087
58753SOL    HW282223   7.142   1.838   9.789 -0.6971  0.1807 -2.5358
58754SOL     OW82224  10.420   3.999   5.060 -0.4307 -0.0258 -0.4737
58754SOL    HW182225  10.359   4.013   5.133 -1.3438 -1.8427 -0.8201
58754SOL    HW282226  10.502   3.974   5.102 -1.0548 -1.4299 -0.0427
58755SOL     OW82227   8.266   4.195   6.544 -0.1019 -0.5635 -0.5130
58755SOL    HW182228   8.361   4.186   6.553  0.0499  0.6873 -0.7138
58755SOL    HW282229   8.230   4.134   6.608  0.8556 -0.1823  0.4168
58756SOL     OW82230   7.772   7.071  11.791 -0.0814  0.4536 -1.0412
58756SOL    HW182231   7.682   7.099  11.779 -1.1339  0.1312  3.9717
58756SOL    HW282232   7.817   7.149  11.825  0.4038 -0.4247  0.4040
58757SOL     OW82233   1.397   9.285   6.690  0.1247 -0.3777 -0.2931
58757SOL    HW182234   1.405   9.194   6.719  0.3407 -0.2274  0.1247
58757SOL    HW282235   1.303   9.298   6.677  0.0084 -0.4239  0.4449
58758SOL     OW82236   9.364   0.177   3.639  0.3904  0.1666 -0.1542
58758SOL    HW182237   9.425   0.240   3.678  0.1626  0.3136 -0.0376
58758SOL    HW282238   9.390   0.093   3.675 -0.5579  0.4436  1.2286
58759SOL     OW82239   8.097   0.397   7.807 -0.0095  0.3025 -0.1232
58759SOL    HW182240   8.176   0.349   7.833 -1.3150 -0.9205  1.8661
58759SOL    HW282241   8.072   0.359   7.724  1.1889  0.3429 -0.5223
58760SOL     OW82242  11.579   2.969   1.359 -0.1383  0.3608  0.4179
58760SOL    HW182243  11.506   2.943   1.303  0.0160  2.3525 -0.8044
58760SOL    HW282244  11.629   2.888   1.371 -1.2460 -0.5415 -0.6900
58761SOL     OW82245   1.248   6.033   0.253  0.0792 -0.3723  0.2269
58761SOL    HW182246   1.302   6.105   0.285  1.8498 -0.2493 -2.6915
58761SOL    HW282247   1.159   6.058   0.275  0.9038  0.9783  2.3584
58762SOL     OW82248  10.496   7.914   8.427  0.5426 -0.0492 -0.0592
58762SOL    HW182249  10.571   7.958   8.389 -0.0498  1.9748  0.9836
58762SOL    HW282250  10.490   7.948   8.516 -0.7330 -1.3034  0.3831
58763SOL     OW82251  11.832  11.614   3.042  0.7535  0.3483 -0.1235
58763SOL    HW182252  11.909  11.562   3.018 -0.4166 -0.5200 -2.2573
58763SOL    HW282253  11.758  11.560   3.014 -0.5647  2.1971 -0.3005
58764SOL     OW82254   8.213   9.431   2.351 -0.2895 -0.2747 -0.4224
58764SOL    HW182255   8.238   9.348   2.391  1.2766 -0.1682 -1.0812
58764SOL    HW282256   8.295   9.465   2.315 -0.8150  1.7433  0.1572
58765SOL     OW82257   3.174   8.531   8.304 -0.3598  0.2840  0.0125
58765SOL    HW182258   3.116   8.604   8.285 -0.4697  0.7099  1.8187
58765SOL    HW282259   3.115   8.457   8.317 -0.2579 -0.1289 -1.6342
58766SOL     OW82260  12.476   6.555  12.473  0.1086 -0.0337  0.0816
58766SOL    HW182261  12.527   6.569  12.553  1.5749  0.5746 -0.9236
58766SOL    HW282262  12.408   6.492  12.499  1.9599 -1.6889  1.2215
58767SOL     OW82263  10.059   7.719   3.457 -0.4419  0.3648 -0.7508
58767SOL    HW182264  10.056   7.654   3.528  2.4221 -1.0150 -1.7373
58767SOL    HW282265  10.016   7.676   3.383 -0.6411  0.5541 -0.7466
58768SOL     OW82266   9.195   7.236   3.927  0.0424 -0.2897 -0.2100
58768SOL    HW182267   9.119   7.268   3.976 -0.0429 -2.3498  1.1581
58768SOL    HW282268   9.268   7.241   3.990  0.8510  0.7865 -1.2039
58769SOL     OW82269  11.616   8.254   2.067  0.1637 -0.5464  0.4013
58769SOL    HW182270  11.555   8.328   2.068  0.2063 -0.5063  0.0405
58769SOL    HW282271  11.679   8.276   1.999  1.7136  0.3103  2.0335
58770SOL     OW82272   4.546  11.121  12.322  0.7998  0.0838 -0.1319
58770SOL    HW182273   4.561  11.049  12.262 -1.1491 -0.8423  0.4349
58770SOL    HW282274   4.553  11.082  12.409 -2.8680 -0.1683  0.2215
58771SOL     OW82275   8.832  11.603   8.056  0.4786  0.0050 -0.2524
58771SOL    HW182276   8.923  11.612   8.083  0.9514  1.2232 -2.0667
58771SOL    HW282277   8.820  11.669   7.988 -1.7639 -0.1383 -0.0982
58772SOL     OW82278   5.647   9.975   3.789  0.5630 -0.2377  0.3001
58772SOL    HW182279   5.572   9.929   3.752  0.0298  1.4712 -0.8309
58772SOL    HW282280   5.711   9.906   3.806 -0.2273 -1.4187 -1.2589
58773SOL     OW82281   5.801   5.019   8.587 -0.5168  0.0465  0.0071
58773SOL    HW182282   5.726   4.975   8.545 -0.2103 -1.3941  0.8884
58773SOL    HW282283   5.762   5.065   8.662 -0.5970 -0.3415  0.2104
58774SOL     OW82284   1.375   7.255   8.906  0.0506  0.9625 -0.3175
58774SOL    HW182285   1.296   7.308   8.907 -0.1462  0.6903  0.9338
58774SOL    HW282286   1.351   7.177   8.856 -0.3625  1.0508 -0.2630
58775SOL     OW82287   0.799   5.766   5.424 -0.4994 -0.3175 -0.0143
58775SOL    HW182288   0.818   5.745   5.332 -0.6582 -1.1785  0.1405
58775SOL    HW282289   0.860   5.712   5.474 -1.1247 -0.6493  0.4028
58776SOL     OW82290   0.256   3.720   3.479  0.4173 -0.2367  0.3578
58776SOL    HW182291   0.264   3.652   3.545  0.6654 -0.1133  0.4570
58776SOL    HW282292   0.309   3.793   3.513 -0.3622  0.2443  0.5545
58777SOL     OW82293   2.867   3.617   3.858  0.3749 -0.7718  0.6350
58777SOL    HW182294   2.776   3.636   3.835  1.1065  2.1251 -0.2418
58777SOL    HW282295   2.899   3.562   3.786  0.4692  1.9105 -1.5503
58778SOL     OW82296   3.240   0.043   8.848 -0.4532 -0.6006 -0.1095
58778SOL    HW182297   3.217   0.136   8.842  1.0797 -0.2283 -0.8396
58778SOL    HW282298   3.161  -0.003   8.821 -0.7787  0.5432 -1.2001
58779SOL     OW82299   4.450   8.526  11.837 -0.7829 -0.1041 -0.3493
58779SOL    HW182300   4.379   8.489  11.784 -3.5355  1.6663  1.8289
58779SOL    HW282301   4.465   8.613  11.799  0.2614 -0.4509 -0.7663
58780SOL     OW82302   7.338   5.466   5.440 -0.2924 -0.2415 -0.2492
58780SOL    HW182303   7.355   5.500   5.352 -0.5824  0.3103 -0.0980
58780SOL    HW282304   7.246   5.490   5.457  0.1621  0.9172  0.7474
58781SOL     OW82305   7.890  10.714  10.702 -0.1000 -0.4473  0.2116
58781SOL    HW182306   7.904  10.625  10.670 -1.6978 -0.8359  0.5073
58781SOL    HW282307   7.860  10.703  10.793 -0.9951  0.3233  0.0332
58782SOL     OW82308   1.576   8.510   4.105  0.3058 -0.2883 -0.1366
58782SOL    HW182309   1.667   8.520   4.079 -0.0438  0.8546 -0.9969
58782SOL    HW282310   1.544   8.600   4.115 -0.7037 -0.6744  0.2550
58783SOL     OW82311   6.103   0.407   4.907  0.3680  0.3304  0.0281
58783SOL    HW182312   6.046   0.338   4.874  0.7013  0.0898 -0.0477
58783SOL    HW282313   6.188   0.365   4.919  0.5636  0.7158  0.0218
58784SOL     OW82314   3.342   3.219   9.443  0.3362 -0.7962  0.7988
58784SOL    HW182315   3.352   3.241   9.351  1.2940  1.6993  1.4331
58784SOL    HW282316   3.289   3.139   9.443 -0.2893 -0.4632 -1.8616
58785SOL     OW82317   0.106   7.616   3.517 -0.4805 -0.2397 -0.2502
58785SOL    HW182318   0.012   7.598   3.510 -1.1257  1.3436  2.9065
58785SOL    HW282319   0.136   7.559   3.588 -0.3464  2.9652  2.5256
58786SOL     OW82320   7.937   4.404  11.521 -0.0989  0.0606  0.4124
58786SOL    HW182321   7.950   4.365  11.434 -1.2954 -3.2597  1.5605
58786SOL    HW282322   7.874   4.346  11.564 -0.3925  2.2144  3.1527
58787SOL     OW82323   2.164  10.717   3.717  0.2094  0.4216  0.5942
58787SOL    HW182324   2.071  10.737   3.720  0.4192  1.6092 -0.1259
58787SOL    HW282325   2.201  10.757   3.796  0.1149 -0.0511  0.8810
58788SOL     OW82326   7.943   3.389  11.903 -0.1134  0.3771  0.5527
58788SOL    HW182327   8.002   3.464  11.904 -0.1891  0.4346  0.6932
58788SOL    HW282328   7.903   3.389  11.990  1.3077 -0.9349  1.2581
58789SOL     OW82329   4.077   5.761  10.572  0.0269 -0.3949  0.4765
58789SOL    HW182330   4.163   5.802  10.562 -0.6274  1.3742  1.6563
58789SOL    HW282331   4.096   5.670  10.596  1.5366 -0.4010 -0.6127
58790SOL     OW82332   2.994   4.367   7.248  0.4652 -0.1321  0.2691
58790SOL    HW182333   3.038   4.330   7.171 -2.1755  0.2329 -1.5544
58790SOL    HW282334   2.957   4.450   7.217 -0.5419  0.1062  1.9741
58791SOL     OW82335   1.688  10.118   2.822  0.0215  0.2042 -0.2568
58791SOL    HW182336   1.697  10.064   2.743  0.9198 -1.2693  0.7981
58791SOL    HW282337   1.742  10.195   2.805  0.9757 -0.5476 -0.7122
58792SOL     OW82338   9.068   8.088  10.726 -0.0511 -1.1243 -0.2788
58792SOL    HW182339   9.041   8.162  10.671 -2.1543 -2.7723 -1.6460
58792SOL    HW282340   8.997   8.024  10.717  0.0651 -2.0023  3.5093
58793SOL     OW82341  11.750   0.705  10.634 -0.4608 -0.7461 -0.3163
58793SOL    HW182342  11.690   0.651  10.582  1.7068 -2.5127 -1.1344
58793SOL    HW282343  11.776   0.775  10.574 -0.0498 -1.2353 -0.7224
58794SOL     OW82344  10.791   5.306   5.420  0.2209  0.0879  0.0835
58794SOL    HW182345  10.871   5.257   5.436  0.4203  0.6592  0.8676
58794SOL    HW282346  10.730   5.275   5.487 -0.2985 -0.4962 -0.6374
58795SOL     OW82347   2.439   2.448  10.387 -0.4658  0.3565 -0.0604
58795SOL    HW182348   2.434   2.474  10.479 -0.1393 -0.4069  0.1770
58795SOL    HW282349   2.443   2.353  10.389 -2.3681  0.2060 -0.9430
58796SOL     OW82350   7.701   1.164   2.024 -0.1643  0.1571 -0.0466
58796SOL    HW182351   7.709   1.109   2.101 -1.7712 -0.0325  0.0081
58796SOL    HW282352   7.739   1.112   1.953 -0.3039 -0.4069  0.2853
58797SOL     OW82353   9.348   8.597  10.355  0.3404  0.3433  0.1145
58797SOL    HW182354   9.413   8.666  10.363 -0.7162  1.3706 -0.0044
58797SOL    HW282355   9.265   8.638  10.376 -0.2799 -0.9701  0.3653
58798SOL     OW82356   3.651   7.098   8.467  0.0804  0.2674 -0.0564
58798SOL    HW182357   3.561   7.129   8.460 -0.3080 -0.8632 -0.3550
58798SOL    HW282358   3.644   7.016   8.515  0.9235  0.0636 -0.2628
58799SOL     OW82359   7.886   0.729   4.398 -0.1502  0.4751  0.1114
58799SOL    HW182360   7.850   0.797   4.341 -1.6145  1.6051  2.2215
58799SOL    HW282361   7.887   0.769   4.485  0.5128 -1.6598  1.1582
58800SOL     OW82362   2.147   8.524   1.014  0.2453 -0.7748  0.0627
58800SOL    HW182363   2.113   8.517   0.925  1.2552  0.9781 -0.5195
58800SOL    HW282364   2.242   8.517   1.005  0.6087  2.1142  0.5535
58801SOL     OW82365   3.272   5.013   7.470  0.3363  0.1902  0.3617
58801SOL    HW182366   3.252   4.926   7.436 -1.7901  1.3456 -1.6103
58801SOL    HW282367   3.356   5.035   7.431  1.2945 -1.2221  1.5133
58802SOL     OW82368  10.004   8.867   7.771  0.0399  0.5592  0.6127
58802SOL    HW182369  10.064   8.793   7.771  0.8708  1.2122 -0.0743
58802SOL    HW282370   9.933   8.840   7.713 -0.9230 -0.6540  2.2947
58803SOL     OW82371   8.207  11.725   2.176 -0.7798 -0.0158  0.6876
58803SOL    HW182372   8.210  11.687   2.089 -1.2576 -0.4814  0.8677
58803SOL    HW282373   8.250  11.810   2.167  1.0567 -0.9253  0.4550
58804SOL     OW82374   8.890  10.908   7.328 -0.0183 -0.2991  0.0261
58804SOL    HW182375   8.807  10.888   7.284 -0.5722  0.1646  0.8543
58804SOL    HW282376   8.922  10.822   7.357  0.0046 -0.5281 -0.6580
58805SOL     OW82377   9.828   5.192   0.361 -0.3184 -0.3384  0.1686
58805SOL    HW182378   9.789   5.175   0.275 -0.3848 -0.3211  0.1946
58805SOL    HW282379   9.908   5.242   0.342 -1.1394  1.0605  0.1906
58806SOL     OW82380   7.042  10.113   8.734  0.4631 -0.1726 -0.2395
58806SOL    HW182381   7.065  10.162   8.656 -0.1804  0.4409 -0.0500
58806SOL    HW282382   6.990  10.174   8.787  0.0256 -0.9093  0.1998
58807SOL     OW82383   4.466  11.814   5.949 -0.3187  0.7674 -0.1450
58807SOL    HW182384   4.535  11.811   5.882  0.5987 -0.4846  0.8137
58807SOL    HW282385   4.411  11.889   5.923  0.8465  1.2202 -1.4539
58808SOL     OW82386   0.755   8.493   0.194 -0.2312 -0.5186  0.4484
58808SOL    HW182387   0.812   8.519   0.266  0.5121 -3.2567  0.9949
58808SOL    HW282388   0.672   8.470   0.237 -0.4381 -0.2875  0.1731
58809SOL     OW82389   1.898   9.860   7.962 -0.1783  0.5941  0.4440
58809SOL    HW182390   1.880   9.768   7.984  0.5563  1.0292  3.2359
58809SOL    HW282391   1.987   9.859   7.926 -0.0739  0.2400  0.7060
58810SOL     OW82392   8.549   3.524   8.512 -0.5887  0.4958  0.1944
58810SOL    HW182393   8.562   3.608   8.467 -1.5330  0.9805  0.7952
58810SOL    HW282394   8.550   3.547   8.605  2.4873 -0.6394  0.5708
58811SOL     OW82395   4.781   7.445   9.637  0.1950 -0.1881  0.0413
58811SOL    HW182396   4.688   7.441   9.660 -0.1406  0.4596 -1.1136
58811SOL    HW282397   4.789   7.525   9.585  1.3176 -0.4595 -0.2262
58812SOL     OW82398   5.544  11.289   0.495  0.6173 -0.0155 -0.4220
58812SOL    HW182399   5.500  11.351   0.554  1.6296 -0.3673  0.7405
58812SOL    HW282400   5.514  11.315   0.408  0.4462  1.6530  0.0832
58813SOL     OW82401   5.992   8.851   4.330  0.0345  0.0950 -0.0941
58813SOL    HW182402   5.996   8.764   4.290 -0.8293 -1.1616  2.3340
58813SOL    HW282403   5.964   8.835   4.420 -1.6279  3.0275  0.0500
58814SOL     OW82404  10.843   9.233   1.362  0.0601  0.3289  0.0464
58814SOL    HW182405  10.781   9.211   1.293  0.5609  0.3252 -0.4082
58814SOL    HW282406  10.811   9.187   1.439  0.7134 -1.4772 -0.7073
58815SOL     OW82407   8.671   7.571   4.570  0.5399 -0.5797 -0.7288
58815SOL    HW182408   8.700   7.521   4.494  0.2760 -0.3213 -0.9973
58815SOL    HW282409   8.715   7.656   4.561 -0.7078  0.0181 -1.4320
58816SOL     OW82410  10.630   6.802   3.864 -0.4778 -0.4352 -0.0435
58816SOL    HW182411  10.640   6.802   3.959 -1.5557 -0.6813  0.0879
58816SOL    HW282412  10.558   6.864   3.847 -0.4889 -0.6065 -0.6699
58817SOL     OW82413   7.908  10.350   5.505  0.2423 -0.5989 -0.6266
58817SOL    HW182414   7.930  10.435   5.544 -1.2503  0.1052 -1.2171
58817SOL    HW282415   7.818  10.334   5.534 -0.2693 -0.9209 -2.2833
58818SOL     OW82416   8.325   5.654   4.017 -0.4820  0.0080  0.3168
58818SOL    HW182417   8.298   5.566   3.993  0.5716 -0.4425  0.7101
58818SOL    HW282418   8.285   5.711   3.951 -0.8964 -0.7940 -0.1334
58819SOL     OW82419   2.386   1.775  11.412  0.0683  0.3036 -0.1177
58819SOL    HW182420   2.403   1.747  11.502 -0.4717  1.7294  0.4427
58819SOL    HW282421   2.290   1.780  11.406  0.1011  0.2700 -0.7618
58820SOL     OW82422   2.056   1.924   4.683 -0.6654 -0.1950 -0.6306
58820SOL    HW182423   2.056   1.857   4.751  3.0269  0.4147  0.2207
58820SOL    HW282424   2.083   1.877   4.604  1.5875  0.0754 -0.1060
58821SOL     OW82425   0.272   1.027   2.021 -0.2512 -0.4174  0.1690
58821SOL    HW182426   0.319   0.952   2.058 -0.4677 -0.3894  0.5049
58821SOL    HW282427   0.288   1.098   2.083  2.9113  0.8670 -1.8533
58822SOL     OW82428   9.797   0.264   9.070 -0.1116 -0.2763 -0.2443
58822SOL    HW182429   9.824   0.286   9.159  0.3687  0.4882 -0.5748
58822SOL    HW282430   9.869   0.294   9.015 -1.2140  0.9727 -1.0562
58823SOL     OW82431   2.112   5.015   5.636  0.4879 -0.1311  0.5694
58823SOL    HW182432   2.077   5.087   5.689 -0.0684  0.4170 -0.5313
58823SOL    HW282433   2.206   5.018   5.653  0.4708  0.8450  0.5570
58824SOL     OW82434   7.939   0.186   0.826  0.3771 -0.7179 -0.1188
58824SOL    HW182435   7.953   0.129   0.902  0.1511 -0.0560  0.4308
58824SOL    HW282436   7.912   0.269   0.864 -0.3947 -0.5734 -0.9634
58825SOL     OW82437   0.675  11.701   3.764  0.1018 -0.3998 -0.3972
58825SOL    HW182438   0.631  11.651   3.833  0.0714 -1.4174 -1.1451
58825SOL    HW282439   0.674  11.644   3.688 -1.2040  1.2695 -1.7118
58826SOL     OW82440  11.490   9.278  10.493 -0.2396  0.4592 -1.1399
58826SOL    HW182441  11.465   9.188  10.469 -0.1339 -0.4000  1.6053
58826SOL    HW282442  11.410   9.316  10.530  0.4462  0.3818  0.5144
58827SOL     OW82443   7.040   5.955   6.803 -0.3022  0.4851 -0.0026
58827SOL    HW182444   7.128   5.940   6.837 -0.3341 -0.9361 -0.4920
58827SOL    HW282445   6.982   5.913   6.867 -0.5153 -0.0350 -0.5284
58828SOL     OW82446  12.319  11.152   1.220  0.5358 -0.6172 -0.1959
58828SOL    HW182447  12.358  11.148   1.307  0.2467  0.4539 -0.0126
58828SOL    HW282448  12.226  11.168   1.236  0.6172  0.4471 -0.7091
58829SOL     OW82449   1.266  12.436  10.938 -0.1789 -0.5562 -0.3321
58829SOL    HW182450   1.287  12.442  11.031 -0.4551 -1.8393 -0.1786
58829SOL    HW282451   1.171  12.424  10.936  0.1387 -3.7749 -0.5866
58830SOL     OW82452  10.722   2.959   7.661  0.2340 -0.2889  0.3789
58830SOL    HW182453  10.653   3.007   7.707  0.2075  0.6688 -0.6290
58830SOL    HW282454  10.789   3.024   7.642  0.0877 -0.5585 -1.2518
58831SOL     OW82455   8.401   6.229   0.607  0.3706 -0.3246 -0.0850
58831SOL    HW182456   8.403   6.139   0.640 -0.9326  0.2743  1.7710
58831SOL    HW282457   8.314   6.262   0.632 -0.0379  0.7894 -2.6350
58832SOL     OW82458   6.108   3.619   9.551  0.0926  0.2299 -0.3585
58832SOL    HW182459   6.091   3.525   9.545  0.4233  0.1219  0.3087
58832SOL    HW282460   6.031   3.654   9.595  0.1249  0.2238 -0.2973
58833SOL     OW82461   2.949   0.605   8.419 -0.0269 -0.0690 -0.6751
58833SOL    HW182462   2.890   0.543   8.461  1.3604 -0.3521  1.0025
58833SOL    HW282463   2.910   0.622   8.333 -1.7390 -1.3285 -0.2010
58834SOL     OW82464  12.204  12.095   3.560 -0.6078  0.2975 -0.4287
58834SOL    HW182465  12.215  12.006   3.528 -2.7762 -0.0396 -0.3292
58834SOL    HW282466  12.151  12.138   3.493 -1.8139  0.7347  0.7746
58835SOL     OW82467   7.744   9.648   0.790 -0.3569 -0.1598  0.0409
58835SOL    HW182468   7.683   9.602   0.848 -0.1595  1.4874  1.6236
58835SOL    HW282469   7.826   9.600   0.799 -0.0366  0.6902  2.0057
58836SOL     OW82470   3.801   1.953   5.113 -0.2841 -0.5580  0.3955
58836SOL    HW182471   3.716   1.927   5.148 -0.6331  1.7463  1.4104
58836SOL    HW282472   3.826   2.030   5.164  0.3994  1.4835 -2.7745
58837SOL     OW82473   8.242   5.974   9.781  0.0363 -0.3291  0.1702
58837SOL    HW182474   8.276   5.974   9.870 -1.6162 -0.9179  0.8449
58837SOL    HW282475   8.290   5.904   9.737  0.1812 -0.6874  0.8824
58838SOL     OW82476   2.205   5.722  11.722 -0.1727 -0.0497 -0.0325
58838SOL    HW182477   2.240   5.798  11.675 -2.4109  0.6721 -0.6539
58838SOL    HW282478   2.128   5.756  11.767 -1.2395 -1.9501 -0.3350
58839SOL     OW82479   9.131   9.487   9.740  0.5532 -0.7531 -1.5337
58839SOL    HW182480   9.107   9.396   9.718 -0.0088 -0.5774 -1.6834
58839SOL    HW282481   9.083   9.505   9.821  3.2803 -1.6709  0.4154
58840SOL     OW82482   3.825  11.450  11.563 -0.1692 -0.0869 -0.3896
58840SOL    HW182483   3.893  11.425  11.626  0.2423 -0.0126 -0.8009
58840SOL    HW282484   3.872  11.495  11.493 -0.4589 -1.1912 -1.3383
58841SOL     OW82485   0.246   0.374   0.194 -0.0175 -0.2257  0.0317
58841SOL    HW182486   0.271   0.441   0.131  0.1298 -0.9805 -0.7291
58841SOL    HW282487   0.290   0.401   0.275 -0.1956  0.7401 -0.1812
58842SOL     OW82488   5.638   7.108   3.342  0.1720 -0.6289 -0.3094
58842SOL    HW182489   5.627   7.035   3.403 -2.1418  0.4466  0.6387
58842SOL    HW282490   5.710   7.160   3.379 -1.1169 -0.0482  1.4953
58843SOL     OW82491   9.088   0.307   8.330  0.1494  0.2690 -0.2098
58843SOL    HW182492   9.073   0.294   8.424 -3.0179  1.6456 -0.3919
58843SOL    HW282493   9.095   0.402   8.320 -1.0212  0.2524 -1.4718
58844SOL     OW82494   6.297   8.942   0.001  0.2942 -0.4383 -0.8914
58844SOL    HW182495   6.309   8.849  -0.018 -2.3727 -1.3850  1.4784
58844SOL    HW282496   6.285   8.982  -0.085  1.3993 -2.2418 -1.9726
58845SOL     OW82497   9.050   4.902  11.385 -0.3670  0.0475 -0.3401
58845SOL    HW182498   8.963   4.864  11.372  0.4362 -1.8182 -0.5828
58845SOL    HW282499   9.035   4.997  11.382 -2.5056 -0.2023  0.5215
58846SOL     OW82500   5.701   7.656   8.079 -0.3905  0.3899  0.0566
58846SOL    HW182501   5.795   7.650   8.096 -0.2891 -1.1102 -0.8230
58846SOL    HW282502   5.689   7.741   8.036  0.4469  0.8807  0.7691
58847SOL     OW82503   7.225   2.301  10.768  0.1354  0.0344  0.3547
58847SOL    HW182504   7.256   2.330  10.682  0.6754  1.2984  0.9397
58847SOL    HW282505   7.305   2.274  10.814  0.0046  0.4931  0.8554
58848SOL     OW82506   4.404   8.583   9.596  0.2442 -0.0512  0.2168
58848SOL    HW182507   4.481   8.575   9.653  0.3136 -2.5565 -0.1192
58848SOL    HW282508   4.330   8.595   9.656  0.7756  2.0106  0.5577
58849SOL     OW82509   6.441   6.266  12.459  0.0046  0.3696  0.3687
58849SOL    HW182510   6.433   6.189  12.516 -1.3106  1.5551  1.8930
58849SOL    HW282511   6.352   6.287  12.434  0.3638  1.2924 -0.1862
58850SOL     OW82512   9.226   6.659   0.518 -0.0286  0.5650  0.6754
58850SOL    HW182513   9.187   6.624   0.438  0.8232 -0.7163  0.7883
58850SOL    HW282514   9.228   6.753   0.505  0.4577  0.3490 -1.0020
58851SOL     OW82515   8.979   5.347   2.879 -0.0549  0.8701 -0.0972
58851SOL    HW182516   8.893   5.333   2.840 -0.1645  0.7475  0.1935
58851SOL    HW282517   8.964   5.412   2.948 -0.4051 -1.0881  1.7490
58852SOL     OW82518   6.702   9.664   3.811  0.2282 -0.1053 -0.2133
58852SOL    HW182519   6.748   9.642   3.892  1.4333 -1.6228 -1.2549
58852SOL    HW282520   6.679   9.580   3.772 -0.0787  0.5839 -1.5890
58853SOL     OW82521   2.150   3.081  11.862  0.0388  0.0163  0.5009
58853SOL    HW182522   2.209   3.006  11.870  1.0752  0.6325 -0.9939
58853SOL    HW282523   2.089   3.056  11.793 -0.6384 -0.0860  1.1284
58854SOL     OW82524   5.362   4.609   7.516  0.0098 -0.2175 -0.3955
58854SOL    HW182525   5.359   4.545   7.587  0.4316 -1.1506 -1.1794
58854SOL    HW282526   5.277   4.602   7.473 -0.8540  1.4689  0.9141
58855SOL     OW82527   2.001   2.773  10.661  0.2151 -0.0552  0.5941
58855SOL    HW182528   1.966   2.794  10.575  1.2145  0.8931  0.3882
58855SOL    HW282529   2.062   2.701  10.646  0.7158  0.3978  0.4265
58856SOL     OW82530  11.520  12.088   0.631  0.5975 -0.1679  0.4125
58856SOL    HW182531  11.523  12.056   0.722  1.6424 -0.3556  0.3245
58856SOL    HW282532  11.507  12.010   0.578  0.4038 -0.1102  0.3763
58857SOL     OW82533  11.857   9.842   3.737 -0.3285  0.1511 -0.0942
58857SOL    HW182534  11.935   9.890   3.763 -1.2032  1.7137 -0.2465
58857SOL    HW282535  11.787   9.907   3.738 -1.4030 -0.9268 -1.1652
58858SOL     OW82536   2.948   8.098  11.810  0.4107 -0.7985 -0.3488
58858SOL    HW182537   2.875   8.047  11.776 -0.2030 -0.2576  0.1350
58858SOL    HW282538   2.976   8.151  11.735  0.8786 -1.6313 -0.7744
58859SOL     OW82539   0.715   5.906   6.341 -0.1234  0.2849 -0.2627
58859SOL    HW182540   0.788   5.938   6.287  0.6447 -1.0704 -0.0573
58859SOL    HW282541   0.674   5.838   6.288 -0.7520  0.4820 -0.0402
58860SOL     OW82542   8.549   5.269   4.274  0.1008 -0.4388 -0.3793
58860SOL    HW182543   8.586   5.217   4.345  0.6445 -0.8025 -0.9241
58860SOL    HW282544   8.454   5.267   4.290  0.1670 -1.0652 -0.0461
58861SOL     OW82545   1.621   8.617  12.195  0.5614  0.3652 -0.2822
58861SOL    HW182546   1.568   8.574  12.128  0.8626 -1.7834  0.7785
58861SOL    HW282547   1.683   8.672  12.146  1.3816 -1.8384 -1.8544
58862SOL     OW82548   8.560   6.309   0.960  0.1520 -0.0093 -0.1285
58862SOL    HW182549   8.595   6.346   1.041 -0.4088 -0.3558  0.2808
58862SOL    HW282550   8.465   6.303   0.975  0.0020  0.2465 -0.9423
58863SOL     OW82551   2.716   7.875   1.813 -0.0053  0.3348  0.5860
58863SOL    HW182552   2.639   7.932   1.819 -1.9023 -2.1488  1.7768
58863SOL    HW282553   2.749   7.869   1.902  0.4254 -0.0734  0.4035
58864SOL     OW82554   5.325  12.115   2.788 -0.0280  1.2836  0.0445
58864SOL    HW182555   5.393  12.181   2.779  0.0883  1.1083 -0.3740
58864SOL    HW282556   5.360  12.037   2.744  0.3284  0.5666  1.5197
58865SOL     OW82557   8.893  11.894   6.067 -0.2462 -0.1113 -0.4179
58865SOL    HW182558   8.932  11.807   6.060 -0.4797 -0.2023 -0.5928
58865SOL    HW282559   8.801  11.881   6.044 -0.3405  0.1346 -0.1920
58866SOL     OW82560   3.947   7.577   4.160 -0.1956  0.5030  0.0000
58866SOL    HW182561   3.981   7.619   4.081 -3.1642 -0.0617 -1.7037
58866SOL    HW282562   3.858   7.610   4.169 -0.5790 -0.8815  2.0804
58867SOL     OW82563   8.568   5.503   7.936 -0.3822 -0.1368  0.0967
58867SOL    HW182564   8.615   5.422   7.956 -0.0897  0.1201  0.4616
58867SOL    HW282565   8.492   5.474   7.885 -0.2137 -0.6262  0.1108
58868SOL     OW82566   3.629   5.598  11.087 -0.0116  0.3282 -0.1630
58868SOL    HW182567   3.658   5.672  11.034 -0.9208  1.0192  0.2779
58868SOL    HW282568   3.707   5.544  11.097 -0.2237 -1.0131 -4.0130
58869SOL     OW82569   0.672  12.292   8.032  0.3147  0.1246 -0.3404
58869SOL    HW182570   0.599  12.257   8.083  0.4688  0.8526  0.4090
58869SOL    HW282571   0.734  12.324   8.098  1.3361 -0.5200 -0.9596
58870SOL     OW82572   1.064  10.242   1.243  0.2072  0.2081 -0.6266
58870SOL    HW182573   1.076  10.318   1.186  0.6777 -1.4507 -2.8467
58870SOL    HW282574   1.153  10.213   1.263  0.0393  0.4765  0.6277
58871SOL     OW82575   6.544   5.405   8.353  0.3343  0.3469 -0.7510
58871SOL    HW182576   6.597   5.331   8.382 -0.0932  0.0426 -0.7470
58871SOL    HW282577   6.463   5.366   8.321 -0.6144  0.8995  0.8370
58872SOL     OW82578   8.270   7.367   9.953 -0.3700  0.0040 -0.0659
58872SOL    HW182579   8.304   7.393  10.039 -2.1137 -1.2073  1.0685
58872SOL    HW282580   8.286   7.272   9.949 -1.3577 -0.1585 -0.5460
58873SOL     OW82581   9.827   0.234  11.416 -0.4557  1.2920 -0.2262
58873SOL    HW182582   9.749   0.233  11.470 -0.2545 -0.1034  0.0840
58873SOL    HW282583   9.893   0.279  11.468 -0.2431 -0.1031  0.7530
58874SOL     OW82584   3.617   8.304  12.094  0.2383  0.3200 -0.0349
58874SOL    HW182585   3.566   8.362  12.151  0.8134  1.0099 -0.2229
58874SOL    HW282586   3.600   8.336  12.005 -2.4966 -2.1186 -0.5630
58875SOL     OW82587   1.333   1.339   2.504  0.1848  0.1607 -0.1734
58875SOL    HW182588   1.244   1.362   2.531  0.5652  0.6268  0.7282
58875SOL    HW282589   1.380   1.326   2.586  1.0980  0.4836 -0.6394
58876SOL     OW82590   0.834  11.589   6.992 -0.8980  0.0472  0.2522
58876SOL    HW182591   0.785  11.651   6.939 -0.3860  0.9259  0.7906
58876SOL    HW282592   0.772  11.517   7.008 -2.6846  1.8733  2.3550
58877SOL     OW82593   2.509   4.616   2.879 -0.4002 -0.5751 -0.3227
58877SOL    HW182594   2.498   4.630   2.785  1.2429  0.5862 -0.3854
58877SOL    HW282595   2.442   4.670   2.919 -0.4250 -0.2281 -0.8163
58878SOL     OW82596   7.467   5.968   0.109 -0.4401  0.2677  0.3384
58878SOL    HW182597   7.513   5.914   0.174  0.2976  1.0401  0.4782
58878SOL    HW282598   7.382   5.927   0.100  0.3992 -1.4500 -0.1994
58879SOL     OW82599  12.208  10.693   4.638 -0.2637 -0.4030  0.0303
58879SOL    HW182600  12.243  10.633   4.704 -0.9683  0.4367  1.2056
58879SOL    HW282601  12.123  10.656   4.615  0.1320 -0.8849 -0.6813
58880SOL     OW82602   3.548  12.225   1.296  0.2814 -0.1610 -0.5511
58880SOL    HW182603   3.515  12.271   1.373  1.5523  0.6603 -0.4622
58880SOL    HW282604   3.587  12.144   1.331  0.2413 -0.1228 -0.4185
58881SOL     OW82605  12.045   7.527   0.794 -0.1299 -0.3833  0.0489
58881SOL    HW182606  12.120   7.574   0.758  2.2758 -2.4566  1.9493
58881SOL    HW282607  12.020   7.465   0.725 -0.2717  0.4362 -0.6580
58882SOL     OW82608   9.540   7.987   6.672  0.4354  0.1696 -0.1384
58882SOL    HW182609   9.494   8.008   6.754 -1.9043 -1.1059 -1.0420
58882SOL    HW282610   9.503   7.904   6.644  1.5444  0.3276 -2.2643
58883SOL     OW82611   9.872   8.943   2.727 -0.2235  0.6440  0.4596
58883SOL    HW182612   9.859   8.952   2.821  2.8368  3.8016  0.7967
58883SOL    HW282613   9.953   8.893   2.718 -0.5447  0.2631 -0.5142
58884SOL     OW82614   9.817   2.936   4.062  0.0181 -0.4041  0.2722
58884SOL    HW182615   9.828   2.907   4.152 -0.8513  2.7363  1.5206
58884SOL    HW282616   9.906   2.957   4.033  0.1767 -0.3515  0.7935
58885SOL     OW82617   0.882   9.014   0.838  0.0999  0.1818  0.5510
58885SOL    HW182618   0.912   8.949   0.775 -0.3234  2.4571 -2.2370
58885SOL    HW282619   0.853   8.963   0.913  0.1787 -2.7918 -1.2685
58886SOL     OW82620   4.948   0.525   4.565 -0.1070 -0.7256 -0.0502
58886SOL    HW182621   4.862   0.493   4.536  0.5025 -2.2699 -0.2343
58886SOL    HW282622   4.940   0.530   4.660 -1.0814  1.2841 -0.1802
58887SOL     OW82623   3.428   7.594   3.298 -0.1667  0.3601 -0.1018
58887SOL    HW182624   3.336   7.609   3.320 -0.3801 -0.5527 -0.3437
58887SOL    HW282625   3.476   7.627   3.373 -0.4897  3.4754 -1.0968
58888SOL     OW82626   2.498   0.809   9.853  0.0050 -0.4443  0.3103
58888SOL    HW182627   2.415   0.765   9.833  0.6722 -1.5666 -0.0515
58888SOL    HW282628   2.476   0.870   9.923 -1.0176 -1.1437  0.6191
58889SOL     OW82629   6.499   1.760   3.876  0.7286  0.4534  0.5806
58889SOL    HW182630   6.566   1.716   3.824  0.6018  0.6759  0.2283
58889SOL    HW282631   6.547   1.826   3.926  0.5759  1.7138 -0.8679
58890SOL     OW82632   3.645   9.244   6.495  0.4645  0.2980 -0.0278
58890SOL    HW182633   3.721   9.278   6.541  1.5966 -0.3927 -1.3158
58890SOL    HW282634   3.652   9.279   6.407 -1.2414  0.9799  0.0623
58891SOL     OW82635   1.378   8.528  11.360 -0.3154 -0.3872 -0.8402
58891SOL    HW182636   1.406   8.468  11.429 -1.2818  1.7837  1.6089
58891SOL    HW282637   1.286   8.506  11.345 -0.8377  0.6933  0.4659
58892SOL     OW82638   4.464  11.578   4.547  0.1981 -0.1908 -0.0051
58892SOL    HW182639   4.497  11.514   4.610  2.9465  0.5467 -0.5744
58892SOL    HW282640   4.501  11.551   4.463 -0.3477  0.9356 -0.6371
58893SOL     OW82641   8.312   4.530  10.814 -0.1047  0.2764  0.2075
58893SOL    HW182642   8.221   4.558  10.803  0.3345  1.3104 -1.0402
58893SOL    HW282643   8.311   4.436  10.796 -1.3854 -0.4201  3.1712
58894SOL     OW82644   0.818   8.298   4.775  0.1097 -0.1833  0.0004
58894SOL    HW182645   0.766   8.295   4.855 -1.4970 -0.6686 -1.0250
58894SOL    HW282646   0.872   8.376   4.785 -2.3603  1.6002  0.2116
58895SOL     OW82647   4.446   8.621   7.971  0.1572 -0.1672 -0.7060
58895SOL    HW182648   4.536   8.638   7.998  0.1100 -2.4312  1.2414
58895SOL    HW282649   4.423   8.695   7.915  1.7615  2.7990  2.2107
58896SOL     OW82650   3.141   9.255  10.037 -0.1657 -0.1904  0.1484
58896SOL    HW182651   3.111   9.188   9.975 -0.4742  0.3231 -0.2696
58896SOL    HW282652   3.074   9.255  10.105  0.1878 -0.7750  0.5022
58897SOL     OW82653   0.127   5.911   8.517 -0.7094  0.3845  0.1196
58897SOL    HW182654   0.055   5.854   8.491  0.0883 -0.7301  0.3182
58897SOL    HW282655   0.203   5.853   8.527 -0.0047  1.3834  0.8715
58898SOL     OW82656  12.171   3.355   4.255 -0.1960 -0.6206 -0.0459
58898SOL    HW182657  12.079   3.380   4.261 -0.2193  0.0137 -2.2661
58898SOL    HW282658  12.172   3.277   4.201  0.5342 -0.9611  0.4405
58899SOL     OW82659   4.919   0.821   2.350 -0.1453 -0.4028 -0.5494
58899SOL    HW182660   4.923   0.781   2.437 -0.1945  0.4187 -0.1669
58899SOL    HW282661   4.867   0.760   2.299 -1.2835 -0.2328  0.3660
58900SOL     OW82662  10.592   1.282  10.034 -0.1440 -0.1260 -0.0008
58900SOL    HW182663  10.684   1.307  10.042 -0.2571  0.3709 -0.1849
58900SOL    HW282664  10.544   1.364  10.050 -0.5177 -0.1480 -0.9865
58901SOL     OW82665   7.858   8.916   4.758 -0.1605 -0.4190 -0.4875
58901SOL    HW182666   7.800   8.979   4.716 -1.0466 -1.5988 -1.0773
58901SOL    HW282667   7.940   8.964   4.770 -0.8694  0.9029 -0.7217
58902SOL     OW82668   3.602   2.366   5.292  0.5052 -0.1889 -0.1548
58902SOL    HW182669   3.535   2.306   5.259 -0.8517  0.4337  1.3412
58902SOL    HW282670   3.555   2.425   5.350  1.8171  2.2886 -1.4587
58903SOL     OW82671   5.046   2.414   9.479 -0.2137 -0.2688  0.1095
58903SOL    HW182672   5.110   2.436   9.547 -0.8881  0.3677  0.5521
58903SOL    HW282673   4.961   2.429   9.520 -0.6473 -0.5278 -0.6645
58904SOL     OW82674   1.721   9.975   7.786  0.2273  0.3214  0.3276
58904SOL    HW182675   1.717  10.071   7.793  2.3920  0.5242 -0.4093
58904SOL    HW282676   1.757   9.947   7.870  0.9327  0.3125  0.0338
58905SOL     OW82677  11.705   0.069   9.625  0.1044 -0.1090  0.0907
58905SOL    HW182678  11.616   0.053   9.654  0.5033 -0.0381  1.3934
58905SOL    HW282679  11.757   0.001   9.668  0.9415  0.9681  0.8242
58906SOL     OW82680   2.736   2.206   6.276 -0.2869  0.2720 -0.3323
58906SOL    HW182681   2.812   2.179   6.327 -0.6269 -1.7988 -0.8332
58906SOL    HW282682   2.720   2.133   6.215 -1.6152  1.4159 -1.4418
58907SOL     OW82683   0.438   2.094   0.389  0.2899 -0.2109  0.0650
58907SOL    HW182684   0.507   2.035   0.420  2.0135  1.3425 -0.6131
58907SOL    HW282685   0.456   2.177   0.434 -1.4617  0.1145  0.2345
58908SOL     OW82686  10.252  10.127   6.854 -0.0981  0.5729  0.7912
58908SOL    HW182687  10.213  10.144   6.768  1.2528  0.1818  0.0721
58908SOL    HW282688  10.347  10.128   6.838  0.2009  1.2917  2.4351
58909SOL     OW82689   6.880   7.383   6.512 -0.1847 -0.0153 -0.2827
58909SOL    HW182690   6.971   7.413   6.518 -0.8014  2.1199 -0.9059
58909SOL    HW282691   6.879   7.324   6.437  0.6887 -0.1333 -0.2168
58910SOL     OW82692   4.361  10.314   1.191 -0.4854 -0.1543  0.3209
58910SOL    HW182693   4.386  10.252   1.122 -1.1905  0.0214 -0.1001
58910SOL    HW282694   4.394  10.274   1.271 -1.1036 -1.1808  0.0856
58911SOL     OW82695   9.692   9.400  11.762 -0.0689  0.2851 -0.3882
58911SOL    HW182696   9.686   9.334  11.831  1.6315  1.9560  1.4563
58911SOL    HW282697   9.610   9.448  11.767 -1.2424 -1.4470 -1.6244
58912SOL     OW82698   0.280   6.886   6.396 -0.3645  0.3699 -0.8821
58912SOL    HW182699   0.294   6.964   6.450  0.0269  0.7831 -1.5676
58912SOL    HW282700   0.346   6.893   6.327  0.3588 -1.0969 -0.3714
58913SOL     OW82701   9.417   5.627   0.456  0.2213  0.0496 -0.0730
58913SOL    HW182702   9.380   5.622   0.544  0.7465  0.8800  0.2028
58913SOL    HW282703   9.422   5.535   0.427  2.2786 -0.4991  1.6930
58914SOL     OW82704  12.490   5.363  10.255  0.2476  0.2037  0.0609
58914SOL    HW182705  12.569   5.418  10.257  0.9437 -0.7486 -0.3225
58914SOL    HW282706  12.448   5.377  10.340  1.2935  0.0787  0.6177
58915SOL     OW82707   3.179   3.375   0.229 -0.2610 -0.1596  0.2441
58915SOL    HW182708   3.266   3.409   0.248  0.0362 -0.5401 -0.3937
58915SOL    HW282709   3.187   3.336   0.142 -0.2134 -3.0401  1.4258
58916SOL     OW82710   7.950   5.833   7.986  0.2980  0.1133 -0.6289
58916SOL    HW182711   8.023   5.851   7.927  0.9725 -1.6082 -0.3940
58916SOL    HW282712   7.990   5.830   8.073  0.2356 -2.1063 -0.6271
58917SOL     OW82713  12.253   5.598   5.840  0.3890  0.4566 -0.2467
58917SOL    HW182714  12.193   5.531   5.807 -0.5475  1.3638 -0.4228
58917SOL    HW282715  12.315   5.549   5.895  0.9157 -0.8327 -1.8979
58918SOL     OW82716   2.266   8.577  12.182 -0.0086  0.0293  0.0480
58918SOL    HW182717   2.292   8.496  12.139  1.1314  0.7593 -0.7001
58918SOL    HW282718   2.220   8.627  12.115 -0.3091  0.1836  0.3666
58919SOL     OW82719  12.299  11.864   2.844 -0.1717  0.5969 -0.5509
58919SOL    HW182720  12.288  11.898   2.755 -1.0809  1.4721 -0.1134
58919SOL    HW282721  12.294  11.941   2.900 -0.2712 -0.0332  0.3200
58920SOL     OW82722   4.581   8.482   3.179  0.4759  0.6313 -0.6094
58920SOL    HW182723   4.675   8.461   3.177  0.3211 -0.1221 -0.4140
58920SOL    HW282724   4.549   8.440   3.259 -0.4540 -1.0694 -1.8016
58921SOL     OW82725   8.737   0.309   1.388  0.4970 -0.1661  0.1139
58921SOL    HW182726   8.753   0.241   1.323 -0.5855 -1.2269  0.9035
58921SOL    HW282727   8.805   0.374   1.372  0.2501 -0.3709 -2.0721
58922SOL     OW82728  12.384  10.025   3.520  0.1863  0.0944 -0.3535
58922SOL    HW182729  12.406  10.086   3.591  1.1909 -0.2016 -0.3911
58922SOL    HW282730  12.356   9.946   3.565  1.0056 -0.1589 -0.2680
58923SOL     OW82731   6.077  12.085   1.253 -0.3685 -0.1875  0.0859
58923SOL    HW182732   6.095  12.138   1.330  0.7053  0.5305 -0.6295
58923SOL    HW282733   6.071  11.996   1.286 -1.5398  0.2740  1.2172
58924SOL     OW82734   3.289   1.066   9.522  0.2256  0.3418  0.3666
58924SOL    HW182735   3.252   1.153   9.508 -1.0500 -0.2741 -0.3075
58924SOL    HW282736   3.372   1.082   9.568  0.9266  2.0048 -1.3409
58925SOL     OW82737   2.448  10.503   8.850 -0.3821 -0.2705 -0.0858
58925SOL    HW182738   2.511  10.488   8.780  0.7301 -1.2041  1.0586
58925SOL    HW282739   2.366  10.466   8.817  0.2887 -1.3178 -0.6329
58926SOL     OW82740  10.604   2.385   1.708 -0.2469  0.0186 -0.1317
58926SOL    HW182741  10.515   2.367   1.736 -0.4472 -0.1178 -0.8366
58926SOL    HW282742  10.600   2.472   1.668 -0.1683 -0.2036 -0.6233
58927SOL     OW82743   9.912   2.658   2.262  0.5815 -0.3768 -0.3157
58927SOL    HW182744   9.852   2.733   2.260 -0.4175 -1.1635 -1.3315
58927SOL    HW282745   9.995   2.695   2.292  0.2876  1.2802 -1.3686
58928SOL     OW82746   7.290   8.450   1.363 -0.1918 -0.0226  0.8523
58928SOL    HW182747   7.337   8.382   1.315  0.0218  0.3132  0.5800
58928SOL    HW282748   7.215   8.405   1.402 -0.5337 -0.2466 -0.0332
58929SOL     OW82749   4.152   1.903   8.505 -0.0617 -0.3384  0.2927
58929SOL    HW182750   4.182   1.832   8.448 -0.4497 -0.3566  0.1128
58929SOL    HW282751   4.207   1.977   8.483  0.1304 -0.4916  0.2552
58930SOL     OW82752   0.616   0.192   2.145  0.6960  0.2521  0.1129
58930SOL    HW182753   0.542   0.247   2.171  1.5212  2.1446 -1.3907
58930SOL    HW282754   0.632   0.137   2.222 -1.4320  0.6801  0.9388
58931SOL     OW82755  11.652   4.244   2.893  1.0613  0.2047  0.4974
58931SOL    HW182756  11.627   4.245   2.801 -0.7939  2.0866  0.9452
58931SOL    HW282757  11.621   4.159   2.925 -0.9940  0.7157  0.0144
58932SOL     OW82758   4.704   3.225   4.107 -0.8839 -0.1135 -0.2121
58932SOL    HW182759   4.676   3.207   4.017  0.8744 -2.0842 -0.4524
58932SOL    HW282760   4.742   3.143   4.137 -2.1305  0.2389  2.6656
58933SOL     OW82761   9.887  10.589   8.030  0.1923  0.3695  0.5325
58933SOL    HW182762   9.807  10.573   7.979  0.5674 -1.7588  0.5242
58933SOL    HW282763   9.925  10.668   7.991 -0.9828  0.3913 -0.6358
58934SOL     OW82764   8.492   0.006   4.601  0.1561 -0.1469  0.1744
58934SOL    HW182765   8.457   0.090   4.632  0.1711  0.4070 -1.2464
58934SOL    HW282766   8.577   0.028   4.562 -1.0429 -0.2904 -2.7657
58935SOL     OW82767   2.718   8.096   9.552  0.1203 -0.0877  0.1253
58935SOL    HW182768   2.780   8.029   9.522 -0.0588  0.5758 -1.8675
58935SOL    HW282769   2.757   8.131   9.632  1.0739 -1.3567  0.2512
58936SOL     OW82770  10.555   7.334   8.119 -0.0453  0.0107 -0.5855
58936SOL    HW182771  10.627   7.357   8.178  0.7669  2.9166 -2.4645
58936SOL    HW282772  10.485   7.304   8.177  1.1855  1.2817  1.7111
58937SOL     OW82773   4.786   8.304   2.609  0.3830  0.1759 -0.0628
58937SOL    HW182774   4.804   8.376   2.549  1.2152  0.9658  1.0899
58937SOL    HW282775   4.784   8.345   2.696 -2.4269 -0.6448  0.3639
58938SOL     OW82776  12.182   8.185   4.505 -0.2264  0.0565  0.6686
58938SOL    HW182777  12.194   8.132   4.584  0.2031 -3.6329 -1.6478
58938SOL    HW282778  12.265   8.178   4.458 -1.2588  0.0102 -1.2632
58939SOL     OW82779   8.037   7.889  11.453  0.3468  0.0078 -0.3228
58939SOL    HW182780   8.001   7.939  11.526  1.1175 -0.4167  0.3807
58939SOL    HW282781   7.977   7.815  11.442  0.3972 -0.0987  0.1029
58940SOL     OW82782   6.562   3.566   2.396 -0.0771  0.0611  0.6173
58940SOL    HW182783   6.643   3.517   2.378 -0.2968 -0.5229  1.1590
58940SOL    HW282784   6.591   3.642   2.446  0.5180  1.5895 -1.8488
58941SOL     OW82785   0.703   1.489   9.850  0.4326 -0.2804  0.5800
58941SOL    HW182786   0.733   1.470   9.761  1.3688  2.0057  0.3410
58941SOL    HW282787   0.611   1.511   9.839  0.6102  0.2675  0.1122
58942SOL     OW82788  10.883   4.225   3.260 -0.0528  0.0948  0.1042
58942SOL    HW182789  10.942   4.175   3.204  1.0242  0.2440  1.0825
58942SOL    HW282790  10.864   4.167   3.334  0.3677  0.7376  0.7248
58943SOL     OW82791   2.674  12.250   9.568  0.4732  0.2078 -0.0968
58943SOL    HW182792   2.669  12.167   9.519 -0.0579  0.4232 -0.4175
58943SOL    HW282793   2.767  12.261   9.586  0.5596 -0.4282 -0.1099
58944SOL     OW82794   8.038   9.573   0.132 -0.0744  0.6847  0.3699
58944SOL    HW182795   7.964   9.633   0.124 -1.5636 -1.1449 -0.4924
58944SOL    HW282796   8.007   9.491   0.092  2.5295 -0.0895 -0.2683
58945SOL     OW82797   2.536  10.885  11.656 -0.8316 -1.2865 -0.4574
58945SOL    HW182798   2.602  10.824  11.689  1.8401  1.6793  0.1341
58945SOL    HW282799   2.475  10.897  11.728  1.5551  0.5434  1.4064
58946SOL     OW82800   2.851  10.803   2.316  0.5409  0.3589 -0.1458
58946SOL    HW182801   2.793  10.734   2.284 -0.0953 -0.7785  3.1553
58946SOL    HW282802   2.793  10.865   2.359  1.4923  0.7227  0.6485
58947SOL     OW82803   9.727   5.131   5.872  0.3775  0.0693  0.2516
58947SOL    HW182804   9.761   5.053   5.917  0.3032  0.0320  0.2439
58947SOL    HW282805   9.634   5.112   5.859  0.5798 -0.3306 -0.7553
58948SOL     OW82806   0.474   0.650   2.795 -0.0458 -0.4605 -0.4775
58948SOL    HW182807   0.385   0.644   2.760  0.3739 -3.3128 -1.3752
58948SOL    HW282808   0.467   0.618   2.885 -0.3547  2.3675  0.5980
58949SOL     OW82809   0.831   5.396   7.667  0.2318  0.1222 -0.1179
58949SOL    HW182810   0.757   5.401   7.607  1.1886 -0.1019 -1.3428
58949SOL    HW282811   0.872   5.311   7.648  1.2306  0.5549  0.0244
58950SOL     OW82812   3.575   9.736   0.427  0.3093 -0.1830 -0.7937
58950SOL    HW182813   3.542   9.822   0.453 -1.0640 -0.9135  0.0216
58950SOL    HW282814   3.635   9.711   0.497 -0.1052 -0.3254 -0.4833
58951SOL     OW82815   4.162   8.148   1.179 -0.5035 -0.2394 -0.6673
58951SOL    HW182816   4.157   8.057   1.150 -0.5323 -0.5303  0.2211
58951SOL    HW282817   4.072   8.180   1.174 -0.8668 -0.9101  1.0083
58952SOL     OW82818   9.182   6.884   2.994 -0.0350  0.0565 -0.3718
58952SOL    HW182819   9.249   6.921   2.937  1.7632 -0.0393  1.5789
58952SOL    HW282820   9.206   6.792   3.004 -0.9069 -0.1688 -0.2380
58953SOL     OW82821   6.819   5.585   3.036 -0.1309 -1.3329  0.1761
58953SOL    HW182822   6.748   5.632   2.993  0.8453 -0.3785 -0.4377
58953SOL    HW282823   6.833   5.632   3.118  0.5095 -0.8519 -0.2054
58954SOL     OW82824   5.834   6.025   8.130 -0.2340  0.1001  0.3711
58954SOL    HW182825   5.752   6.019   8.179  0.3730  1.1116  1.5976
58954SOL    HW282826   5.860   6.117   8.140  0.0460  0.2903 -1.7056
58955SOL     OW82827   1.147   9.192   4.038 -0.4145 -0.5217 -0.2431
58955SOL    HW182828   1.190   9.112   4.006  0.6642  1.0201 -3.0844
58955SOL    HW282829   1.055   9.180   4.015  0.2089  0.2271 -3.7722
58956SOL     OW82830  11.983   5.365   9.782 -0.0096  0.1120 -0.2055
58956SOL    HW182831  11.906   5.309   9.790  0.5290 -0.6636 -0.3530
58956SOL    HW282832  12.024   5.338   9.700  1.0088 -0.2380  0.3964
58957SOL     OW82833  12.192   8.161   9.174  0.2136 -0.2751  0.5971
58957SOL    HW182834  12.123   8.098   9.153 -0.3868  0.4190  0.4433
58957SOL    HW282835  12.232   8.182   9.090  0.2278 -0.2463  0.6104
58958SOL     OW82836   1.417   7.595   3.538  0.2823  0.1170 -0.4224
58958SOL    HW182837   1.439   7.554   3.454  3.5396 -1.2611  0.9397
58958SOL    HW282838   1.499   7.633   3.569 -0.7482  0.3969  2.2696
58959SOL     OW82839   4.839   2.216   4.415 -0.1964 -0.2355  0.1542
58959SOL    HW182840   4.780   2.140   4.409 -1.3678  0.6399  0.3123
58959SOL    HW282841   4.914   2.192   4.359 -0.5845 -1.4611  0.1170
58960SOL     OW82842   8.060   5.716   0.781  0.3809  0.1238  0.0153
58960SOL    HW182843   8.049   5.749   0.692  0.5357  0.3945  0.0927
58960SOL    HW282844   8.023   5.785   0.836 -2.5394 -1.3236  0.0765
58961SOL     OW82845   9.548  11.286   9.087  0.5336 -0.6838  0.1256
58961SOL    HW182846   9.555  11.374   9.122 -3.1791 -0.6577  1.2232
58961SOL    HW282847   9.599  11.232   9.147  0.2116  0.3270  1.3467
58962SOL     OW82848   4.575   7.198   6.872 -0.6188 -0.2556  0.7813
58962SOL    HW182849   4.609   7.109   6.860 -0.1460 -0.0949  0.9166
58962SOL    HW282850   4.606   7.224   6.959 -1.4800 -0.2799  1.1065
58963SOL     OW82851   9.009   5.487   8.469  0.2268 -0.2318  0.1119
58963SOL    HW182852   8.918   5.505   8.444  0.4155  3.4439  1.4331
58963SOL    HW282853   9.055   5.475   8.386 -1.1039 -0.0352 -0.6780
58964SOL     OW82854   8.406   6.068   6.101  0.4283 -0.0646  0.6061
58964SOL    HW182855   8.352   6.105   6.171  1.2194 -2.0961  2.3788
58964SOL    HW282856   8.363   5.985   6.078  1.5075 -0.5822  0.3942
58965SOL     OW82857   4.091  10.497  10.317 -0.2466  0.4726  0.3036
58965SOL    HW182858   4.158  10.544  10.368  0.2895  0.4016 -0.3272
58965SOL    HW282859   4.120  10.405  10.319 -1.7103 -0.0269  2.2171
58966SOL     OW82860   5.294   1.988   7.180  0.4403 -0.0701 -0.2283
58966SOL    HW182861   5.202   1.992   7.153  0.4716 -0.0411 -0.3326
58966SOL    HW282862   5.318   1.896   7.170  0.6804  0.0729 -1.0817
58967SOL     OW82863   3.958   4.884   2.143  0.1247 -0.0254  0.1692
58967SOL    HW182864   4.026   4.944   2.174  1.7463 -1.1593 -1.0354
58967SOL    HW282865   3.879   4.911   2.191  1.1683  1.9524  0.9068
58968SOL     OW82866   3.581   4.172   4.123 -0.1045 -0.4565 -0.3733
58968SOL    HW182867   3.611   4.259   4.098 -0.4286 -0.4477 -0.7366
58968SOL    HW282868   3.526   4.186   4.200  0.1918 -0.3889 -0.1720
58969SOL     OW82869  12.125  11.269   8.788  0.0590  0.4241  0.6946
58969SOL    HW182870  12.090  11.188   8.752 -1.0923  1.6809 -1.2264
58969SOL    HW282871  12.211  11.279   8.746 -1.3898  2.0220 -2.2268
58970SOL     OW82872   8.464   3.019   2.454 -0.1595 -0.2842 -0.2517
58970SOL    HW182873   8.422   2.933   2.445  0.7746 -0.7521 -0.2440
58970SOL    HW282874   8.485   3.045   2.364 -1.5436  0.5269 -0.3797
58971SOL     OW82875   4.829  12.428   0.583 -0.2207 -0.6496  0.0116
58971SOL    HW182876   4.742  12.391   0.595 -0.0745 -0.3855  2.4466
58971SOL    HW282877   4.813  12.516   0.548 -0.8542 -1.0454 -0.7153
58972SOL     OW82878   2.123  11.224   5.444  0.3466  0.2069  0.1868
58972SOL    HW182879   2.201  11.281   5.447  0.9868 -0.5966 -0.7303
58972SOL    HW282880   2.148  11.152   5.386 -1.2929  0.2386 -0.6180
58973SOL     OW82881  11.974   4.983   1.911  0.4319  0.0816 -0.1320
58973SOL    HW182882  11.906   4.983   1.978 -1.4054 -1.2293 -1.8960
58973SOL    HW282883  11.948   5.050   1.849 -0.0109 -1.2916 -1.4920
58974SOL     OW82884   4.342   7.841   5.486  0.5144  0.0267  0.1273
58974SOL    HW182885   4.269   7.897   5.512 -0.3027 -0.6302 -0.6786
58974SOL    HW282886   4.416   7.901   5.477  0.4536  0.5025  2.3229
58975SOL     OW82887   6.048  12.169  11.056 -0.5209 -0.0366 -0.2963
58975SOL    HW182888   6.021  12.140  11.143 -0.1983  1.5571  0.3633
58975SOL    HW282889   6.143  12.157  11.054 -0.5609 -0.3507 -0.5587
58976SOL     OW82890  10.896   0.255   4.121 -0.6166 -0.8491  0.2442
58976SOL    HW182891  10.910   0.274   4.213 -2.2600 -2.3993  0.8742
58976SOL    HW282892  10.969   0.197   4.097 -0.2232 -0.4968  0.5761
58977SOL     OW82893   0.097   6.002  10.789 -0.4162 -0.2151 -0.1759
58977SOL    HW182894   0.113   6.077  10.732 -1.4148  0.9976  1.0726
58977SOL    HW282895   0.181   5.984  10.830 -0.2076  0.3081 -0.3764
58978SOL     OW82896   0.691   9.712   6.061  0.4685 -0.0731 -0.9268
58978SOL    HW182897   0.611   9.756   6.032 -1.4167 -1.1358  2.1689
58978SOL    HW282898   0.737   9.777   6.114  0.9865  0.0969 -1.5677
58979SOL     OW82899   8.883   0.625   6.929  0.4002 -0.3629  0.4405
58979SOL    HW182900   8.795   0.620   6.966  0.0888 -1.3784 -0.3803
58979SOL    HW282901   8.923   0.540   6.949  0.1094 -1.0875 -1.7068
58980SOL     OW82902  12.282  11.294   7.812  0.6648 -0.3008  0.4365
58980SOL    HW182903  12.349  11.353   7.777  0.0258  0.5124  0.5543
58980SOL    HW282904  12.262  11.329   7.899  0.6843 -1.0326  0.7420
58981SOL     OW82905   7.388   8.255   8.645 -0.2561 -0.2571 -0.2105
58981SOL    HW182906   7.294   8.256   8.659 -0.0973  0.0840  0.9332
58981SOL    HW282907   7.416   8.168   8.674 -0.0039  0.2488  1.1432
58982SOL     OW82908   1.616   7.260   9.866  0.1288 -0.7141 -0.1952
58982SOL    HW182909   1.583   7.337   9.819 -0.7887 -0.4730  0.8015
58982SOL    HW282910   1.538   7.218   9.902  0.7266 -1.4232  0.3215
58983SOL     OW82911   1.874  10.596   2.845 -0.2527  0.0259  0.2684
58983SOL    HW182912   1.960  10.571   2.881 -0.3442 -1.7583 -0.6677
58983SOL    HW282913   1.892  10.676   2.796  1.1910 -1.0026 -0.9941
58984SOL     OW82914   2.726  10.550   1.919  0.3099  0.0301 -0.4284
58984SOL    HW182915   2.799  10.612   1.926  0.2193  0.0411  0.4993
58984SOL    HW282916   2.650  10.599   1.949 -0.5204  0.6700 -3.2109
58985SOL     OW82917   8.616   3.377   2.553 -0.1401  0.0808  0.1195
58985SOL    HW182918   8.692   3.436   2.560  0.5240 -0.5452 -1.2540
58985SOL    HW282919   8.602   3.368   2.458  1.1234 -3.5780  0.1231
58986SOL     OW82920   2.694  12.078   1.909  0.5628  0.4338  0.0040
58986SOL    HW182921   2.645  12.112   1.984  0.7531  0.6199  0.0434
58986SOL    HW282922   2.640  12.006   1.877 -0.5153  1.5867 -0.8771
58987SOL     OW82923   8.744   2.642   0.465  0.2065  0.6338 -0.1539
58987SOL    HW182924   8.699   2.726   0.453  0.1346  0.4331 -1.3545
58987SOL    HW282925   8.783   2.649   0.552 -1.2463  1.2291  0.4910
58988SOL     OW82926  10.855   8.467  10.672 -0.1266  0.6016  0.3719
58988SOL    HW182927  10.775   8.425  10.705  0.0892  0.4241  0.6731
58988SOL    HW282928  10.828   8.509  10.590 -0.6263  0.8865  0.6749
58989SOL     OW82929   1.568  12.122   7.255 -0.4128  0.2315 -0.3991
58989SOL    HW182930   1.630  12.057   7.223 -0.3302  0.7998 -1.4200
58989SOL    HW282931   1.623  12.193   7.288 -0.5048  0.4744 -0.7589
58990SOL     OW82932  12.249   0.041  11.908 -0.3253  0.3613 -0.3530
58990SOL    HW182933  12.308   0.095  11.960 -0.8657  0.8160 -0.2004
58990SOL    HW282934  12.178   0.018  11.967 -0.6978  0.4756 -0.7468
58991SOL     OW82935   6.250   5.125  10.727 -0.0920  0.7248  0.4447
58991SOL    HW182936   6.248   5.131  10.631 -0.6667  1.9163  0.5229
58991SOL    HW282937   6.337   5.157  10.751 -0.4834  1.8572  0.4003
58992SOL     OW82938   0.802   1.031  10.381  0.0138 -1.2842 -0.2479
58992SOL    HW182939   0.813   0.959  10.443  1.0271  0.2682  1.5049
58992SOL    HW282940   0.890   1.044  10.344 -0.1387 -0.8953 -0.4763
58993SOL     OW82941   2.152   4.314   1.198 -0.0080 -0.1525 -1.0267
58993SOL    HW182942   2.125   4.347   1.284  1.7270  0.5698 -0.7186
58993SOL    HW282943   2.133   4.220   1.201 -2.5876  0.2922 -0.9396
58994SOL     OW82944  11.746  10.063   3.402  0.1350 -0.5513  0.1956
58994SOL    HW182945  11.779   9.973   3.401  0.2887 -0.4961 -1.5881
58994SOL    HW282946  11.823  10.117   3.384 -0.3363 -0.2033 -0.7948
58995SOL     OW82947   8.600   9.621   8.544 -0.0177 -0.7519  0.3406
58995SOL    HW182948   8.582   9.638   8.452  0.7930 -0.1126  0.2837
58995SOL    HW282949   8.653   9.696   8.572 -0.5006 -0.7896  1.4032
58996SOL     OW82950  11.438   2.261   0.562  0.0656  0.4237  0.1091
58996SOL    HW182951  11.456   2.191   0.499  0.4969 -2.0559  2.7674
58996SOL    HW282952  11.358   2.303   0.530  0.6679 -0.1968 -2.4181
58997SOL     OW82953  10.355   4.273   2.609  0.3579  0.2274  0.1496
58997SOL    HW182954  10.432   4.299   2.660 -1.0614  1.9712  1.5519
58997SOL    HW282955  10.388   4.264   2.519  2.5849 -1.2215  1.0170
58998SOL     OW82956   5.827  10.218  10.396 -0.2387 -0.0733 -0.7573
58998SOL    HW182957   5.777  10.137  10.402  1.4320 -1.0590  1.3108
58998SOL    HW282958   5.898  10.198  10.335  1.3514 -0.9400  1.2728
58999SOL     OW82959   0.099   7.253   7.146  0.1261  0.5470 -0.5067
58999SOL    HW182960   0.050   7.179   7.111 -0.6242 -0.7732  2.8974
58999SOL    HW282961   0.191   7.228   7.138 -0.0368  0.1392 -1.1340
59000SOL     OW82962   6.646   0.107   1.818 -0.6404 -0.1440  0.3660
59000SOL    HW182963   6.731   0.094   1.859 -0.3517  0.0222 -0.1668
59000SOL    HW282964   6.620   0.196   1.843  0.0945  0.4234 -0.7736
59001SOL     OW82965  11.799   5.754  10.113  0.0498  0.0486 -0.3925
59001SOL    HW182966  11.832   5.704  10.188  1.4904  0.1557 -0.9173
59001SOL    HW282967  11.868   5.818  10.095 -1.6391  2.1427  0.1257
59002SOL     OW82968   4.309   6.114   4.267 -0.3735  0.1942 -0.2169
59002SOL    HW182969   4.389   6.072   4.237 -0.2918  0.3533 -0.2232
59002SOL    HW282970   4.244   6.092   4.201 -0.6025 -0.8146  0.3204
59003SOL     OW82971   1.853   6.506   7.720 -0.0096  0.2522 -0.4522
59003SOL    HW182972   1.850   6.437   7.654 -0.4477  0.3019 -0.4861
59003SOL    HW282973   1.799   6.473   7.792 -0.4704  0.6796 -0.5933
59004SOL     OW82974   2.083   3.483   1.287 -0.1821  0.9021 -0.5559
59004SOL    HW182975   2.044   3.529   1.212 -2.0072  0.0805 -0.1675
59004SOL    HW282976   2.079   3.390   1.262  1.9733  0.7812 -0.6614
59005SOL     OW82977   8.662   2.200   4.715 -0.1442 -0.1165  0.6487
59005SOL    HW182978   8.708   2.160   4.789 -1.0005 -0.8117  0.8159
59005SOL    HW282979   8.577   2.156   4.712 -0.1470 -0.0665 -0.7251
59006SOL     OW82980   2.436   6.344   5.889  0.2947  0.3965 -0.4853
59006SOL    HW182981   2.492   6.266   5.885 -0.9750 -0.5396 -0.5214
59006SOL    HW282982   2.354   6.317   5.849 -0.9509  1.0788  1.4691
59007SOL     OW82983  11.176  11.737   7.721  0.3810  0.7012 -0.5725
59007SOL    HW182984  11.241  11.671   7.745  1.3023  1.7804  0.0578
59007SOL    HW282985  11.176  11.738   7.625  0.9217  0.3222 -0.5797
59008SOL     OW82986   8.771   8.655   9.236 -0.3417 -0.2902  0.1350
59008SOL    HW182987   8.717   8.576   9.230  1.7060 -1.7156 -0.5206
59008SOL    HW282988   8.824   8.642   9.314 -0.3452  0.6946  0.3117
59009SOL     OW82989  10.164   4.982   1.647  0.2683  0.3965  0.3194
59009SOL    HW182990  10.236   4.995   1.585  1.1560  2.5255  1.6822
59009SOL    HW282991  10.196   5.018   1.729 -1.8503  0.0864  1.3604
59010SOL     OW82992   3.923   6.739  10.257 -0.7990 -0.6838  0.7264
59010SOL    HW182993   3.885   6.681  10.190 -1.6269 -0.2604  0.8118
59010SOL    HW282994   3.847   6.769  10.308 -0.3338  0.1190  0.9584
59011SOL     OW82995  10.769   8.240   9.140  0.1186 -0.0548 -0.1643
59011SOL    HW182996  10.698   8.302   9.124  1.6471  1.3895 -1.7258
59011SOL    HW282997  10.846   8.280   9.101  1.4842 -2.3234 -0.0070
59012SOL     OW82998  12.084   7.275   5.740 -0.3080 -0.2121  0.1611
59012SOL    HW182999  12.134   7.231   5.671 -0.1632 -0.3057  0.3258
59012SOL    HW283000  12.056   7.205   5.798 -1.3354 -0.2617 -0.3655
59013SOL     OW83001   3.357  11.191   3.643 -0.0718  0.5769  0.7753
59013SOL    HW183002   3.291  11.126   3.618 -1.1142  0.7151  2.9926
59013SOL    HW283003   3.321  11.274   3.614 -0.1811  0.5009  0.6922
59014SOL     OW83004   5.685   5.783   2.496 -0.1951 -0.0910 -0.2079
59014SOL    HW183005   5.667   5.865   2.541 -1.7209  0.5034 -1.7602
59014SOL    HW283006   5.600   5.756   2.460 -0.1025 -3.2260  1.5684
59015SOL     OW83007  11.134  10.360   1.609 -0.1127 -0.2839  0.1296
59015SOL    HW183008  11.049  10.386   1.646 -0.8276 -2.4266  0.1305
59015SOL    HW283009  11.114  10.328   1.521  0.6156 -1.1398  0.2551
59016SOL     OW83010  10.690   8.696  12.198  0.1916 -0.4173  0.3101
59016SOL    HW183011  10.702   8.686  12.104  0.8443 -1.2162  0.4615
59016SOL    HW283012  10.774   8.730  12.229  0.3581 -1.1967  0.7379
59017SOL     OW83013   8.944   4.523  11.470 -0.2780 -0.3056  0.0484
59017SOL    HW183014   8.873   4.582  11.492  0.6194  0.4988  0.8788
59017SOL    HW283015   8.961   4.473  11.549  0.8912  0.4003  0.2769
59018SOL     OW83016   2.544  10.364   9.809 -0.5171  0.2264  0.4698
59018SOL    HW183017   2.622  10.416   9.825 -1.4796  2.1261 -0.6894
59018SOL    HW283018   2.490  10.377   9.887  0.6299 -1.8253  1.6866
59019SOL     OW83019   3.014  11.041   3.127 -0.0930  0.3000 -0.1865
59019SOL    HW183020   3.091  11.079   3.170  0.0102 -0.2291  0.0988
59019SOL    HW283021   2.940  11.069   3.180  0.0043 -0.0780  0.1523
59020SOL     OW83022   1.903   8.657  10.324 -0.5292  0.1866  0.0647
59020SOL    HW183023   1.986   8.639  10.369 -0.8029  1.8619  1.3496
59020SOL    HW283024   1.903   8.598  10.249  2.0657  0.4707 -0.2595
59021SOL     OW83025   7.459   8.843   0.749  0.3937 -0.6609  0.1081
59021SOL    HW183026   7.521   8.914   0.735  0.1699 -0.6368 -0.7968
59021SOL    HW283027   7.427   8.856   0.839  2.3301 -1.1859  0.9268
59022SOL     OW83028   1.640   7.761   8.901  0.2874  0.5650  0.7448
59022SOL    HW183029   1.676   7.673   8.915 -0.8951  0.3305  2.6492
59022SOL    HW283030   1.708   7.820   8.932  1.7899  0.4889 -2.0544
59023SOL     OW83031  11.825   8.049  11.795  0.3879  0.6056 -0.0487
59023SOL    HW183032  11.893   8.007  11.847  1.2953  0.3907 -1.3684
59023SOL    HW283033  11.755   7.983  11.789  0.6157  0.3376  0.2245
59024SOL     OW83034  10.561   0.046   3.591  0.5501 -0.0281  0.3702
59024SOL    HW183035  10.480   0.097   3.594  1.0792  0.8508  0.1675
59024SOL    HW283036  10.551  -0.010   3.514  0.2463  0.2769  0.1831
59025SOL     OW83037   3.241  10.088   4.068  0.1846  0.3775 -0.2766
59025SOL    HW183038   3.333  10.112   4.062 -0.1857  1.5437 -2.3156
59025SOL    HW283039   3.237  10.024   4.139  2.9415 -1.5964 -1.7392
59026SOL     OW83040   5.850   8.578   0.295 -0.1584 -0.2732 -0.1145
59026SOL    HW183041   5.881   8.531   0.372 -0.2567  0.2232  0.2332
59026SOL    HW283042   5.926   8.630   0.266 -0.1526 -0.3775 -0.2877
59027SOL     OW83043   5.243   4.683   7.874 -0.0539  0.0123 -0.1285
59027SOL    HW183044   5.165   4.725   7.911 -0.0732 -0.4547  0.3773
59027SOL    HW283045   5.300   4.755   7.849 -1.2997  0.4228 -1.9688
59028SOL     OW83046   7.892   9.146   7.870  0.3815  0.3511 -0.1123
59028SOL    HW183047   7.889   9.050   7.876 -1.1386  0.4510  2.3564
59028SOL    HW283048   7.973   9.170   7.917  0.2789  0.3101  0.0861
59029SOL     OW83049   1.705   6.996  10.087  0.1141  0.2449  0.2700
59029SOL    HW183050   1.687   6.920  10.031  1.3436 -0.3057  0.5951
59029SOL    HW283051   1.620   7.038  10.097 -0.5207 -0.8578 -0.2533
59030SOL     OW83052   0.378   6.295   4.325  0.0982 -0.9320  0.4788
59030SOL    HW183053   0.365   6.371   4.269  0.3878 -1.3324 -0.1350
59030SOL    HW283054   0.342   6.322   4.410 -0.2511 -0.2899  0.1348
59031SOL     OW83055   1.633   9.043   1.659 -0.8310  0.4771  0.5134
59031SOL    HW183056   1.606   9.086   1.578 -1.9747  0.0304  0.6412
59031SOL    HW283057   1.697   8.977   1.632  0.7708  2.0561  0.2892
59032SOL     OW83058  10.880   1.148   8.046 -0.0686  0.1324  0.6797
59032SOL    HW183059  10.851   1.227   8.092 -1.1187 -0.6420  1.3865
59032SOL    HW283060  10.805   1.088   8.050 -0.5379  0.2622 -2.6988
59033SOL     OW83061   3.271   9.236   4.368 -0.6576  0.1453  0.3637
59033SOL    HW183062   3.266   9.190   4.284 -1.3764  1.2149 -0.1889
59033SOL    HW283063   3.306   9.322   4.346 -0.2751  0.2233  1.2563
59034SOL     OW83064   4.621   2.988  11.257  0.0455 -0.4259  0.1524
59034SOL    HW183065   4.596   2.918  11.196 -1.3769 -0.4964  0.7958
59034SOL    HW283066   4.581   2.964  11.340 -2.3743  2.1925 -0.0854
59035SOL     OW83067   7.862  12.461  12.185  0.0918 -0.1023 -0.1487
59035SOL    HW183068   7.857  12.453  12.090  1.2398 -0.0739 -0.2213
59035SOL    HW283069   7.914  12.540  12.200 -0.4866  0.1677  0.5113
59036SOL     OW83070   6.314   4.406   7.242  0.6060 -0.0221  0.1342
59036SOL    HW183071   6.347   4.399   7.153  0.9536  4.0766 -0.2583
59036SOL    HW283072   6.222   4.383   7.236  1.2872 -2.8935 -0.5427
59037SOL     OW83073  12.072   1.300   4.472 -0.0548  0.9606 -0.6977
59037SOL    HW183074  12.157   1.258   4.486 -0.2943  0.2663 -1.2898
59037SOL    HW283075  12.040   1.319   4.561 -0.6059 -1.4950 -0.3085
59038SOL     OW83076  11.693  11.147  11.093 -0.3722 -0.0233  0.3613
59038SOL    HW183077  11.737  11.066  11.120 -1.8694 -1.6067 -1.5944
59038SOL    HW283078  11.639  11.172  11.168  1.1378 -0.0172  1.4907
59039SOL     OW83079   6.821   9.684   6.353  0.1823 -0.0936  0.4799
59039SOL    HW183080   6.884   9.715   6.288 -1.4904  0.3593 -1.0325
59039SOL    HW283081   6.801   9.594   6.326 -0.5749  0.1209  0.2889
59040SOL     OW83082   4.468   9.379   3.763 -0.3764 -0.0531 -0.1925
59040SOL    HW183083   4.446   9.441   3.694 -0.7471  1.8837  1.5675
59040SOL    HW283084   4.409   9.305   3.749 -1.1618  0.7491 -1.3181
59041SOL     OW83085   8.988   0.116   5.943 -0.1070 -0.4017  0.9498
59041SOL    HW183086   8.918   0.085   6.001 -1.2138  0.5853  0.1779
59041SOL    HW283087   9.028   0.189   5.990 -0.3740 -0.2149  0.8870
59042SOL     OW83088   9.355   4.667   6.444  0.0226  0.1342 -0.0877
59042SOL    HW183089   9.440   4.679   6.486 -0.1484  0.1157  0.2653
59042SOL    HW283090   9.375   4.627   6.359  0.1800 -2.6959  1.1802
59043SOL     OW83091   2.035   6.732   5.641  0.4719 -0.1821 -0.5051
59043SOL    HW183092   2.017   6.706   5.551 -0.3603 -1.3729 -0.0203
59043SOL    HW283093   1.953   6.768   5.673 -0.2513 -2.6838  0.7179
59044SOL     OW83094   9.951  10.631  10.044  0.0973  0.0586  0.0742
59044SOL    HW183095   9.906  10.704  10.086 -2.0842 -0.2652 -1.4980
59044SOL    HW283096  10.016  10.672   9.987 -1.5109  0.8849 -1.2499
59045SOL     OW83097   7.379   2.320  11.299  0.4973  0.2431 -0.1108
59045SOL    HW183098   7.400   2.260  11.371  1.7212  0.2135 -0.4647
59045SOL    HW283099   7.324   2.387  11.339 -1.8989 -1.6767  0.0520
59046SOL     OW83100   0.519  10.721  11.320  0.2570  0.2425 -0.0960
59046SOL    HW183101   0.485  10.732  11.232 -1.5404  0.0892  0.5358
59046SOL    HW283102   0.539  10.627  11.327  0.8728  0.3403 -0.4855
59047SOL     OW83103   7.391   9.320   5.521 -0.1526 -0.2826 -0.0533
59047SOL    HW183104   7.310   9.320   5.470 -0.8621  3.0916  0.7694
59047SOL    HW283105   7.456   9.361   5.463  0.1550 -0.2298  0.3245
59048SOL     OW83106   8.597   4.267   6.285 -0.5823  0.3095 -0.4614
59048SOL    HW183107   8.592   4.216   6.366 -0.9057 -0.3806 -0.9045
59048SOL    HW283108   8.640   4.209   6.223  0.2239  1.0614 -0.6207
59049SOL     OW83109   5.065   1.345   2.873  0.2963  0.2214  0.5641
59049SOL    HW183110   5.006   1.405   2.827 -0.3408 -0.4798  0.4366
59049SOL    HW283111   5.045   1.358   2.966 -0.8734 -0.7717  0.4918
59050SOL     OW83112   0.266   2.961   0.832  0.3523 -0.8195 -0.0888
59050SOL    HW183113   0.292   2.968   0.740  0.7246 -0.1216  0.0616
59050SOL    HW283114   0.207   3.036   0.845  0.2804 -0.9329  0.2305
59051SOL     OW83115  12.311  11.902   0.936 -0.1349 -0.0275 -0.0871
59051SOL    HW183116  12.254  11.917   0.861  2.1463  0.1745 -1.8931
59051SOL    HW283117  12.294  11.812   0.961 -0.5749 -0.2607 -1.1625
59052SOL     OW83118   0.887   2.633   7.438 -0.4509 -0.5744 -0.2047
59052SOL    HW183119   0.933   2.658   7.358  0.3258  1.2211  0.7323
59052SOL    HW283120   0.798   2.614   7.410 -0.0519 -0.5167 -1.5685
59053SOL     OW83121   7.075  11.267   4.877  0.3066  0.2807  0.0817
59053SOL    HW183122   7.033  11.316   4.948 -0.3382  0.8818 -0.7059
59053SOL    HW283123   7.142  11.327   4.843 -0.9382  0.9306 -1.3353
59054SOL     OW83124   1.193   3.064   9.868 -0.1946  0.1924  0.2878
59054SOL    HW183125   1.257   3.011   9.822 -1.8215 -0.7224 -1.0279
59054SOL    HW283126   1.145   3.109   9.799 -1.6654  0.0090  1.1497
59055SOL     OW83127  12.000   2.711   5.073 -0.7177  0.6426  0.5481
59055SOL    HW183128  11.905   2.705   5.078 -0.6688 -1.5760 -0.2859
59055SOL    HW283129  12.017   2.756   4.990 -1.0396 -0.5229 -0.1620
59056SOL     OW83130   7.506  11.625   9.085  0.2762  0.1259  0.8124
59056SOL    HW183131   7.548  11.638   9.170  0.5208 -1.0968  0.8993
59056SOL    HW283132   7.551  11.550   9.047 -0.7570 -0.2178  0.2093
59057SOL     OW83133   1.836   6.894   0.531  1.1543  0.1523  1.1560
59057SOL    HW183134   1.861   6.804   0.509  1.8049  0.6629 -0.3901
59057SOL    HW283135   1.853   6.943   0.450  0.3996  1.5857  1.8337
59058SOL     OW83136   1.341   9.417   2.111 -1.1333 -0.2120  0.3048
59058SOL    HW183137   1.305   9.504   2.131  0.0151  0.3916 -0.1697
59058SOL    HW283138   1.401   9.398   2.183 -0.2472  0.0704 -0.3371
59059SOL     OW83139   3.089  12.303   6.691 -0.3555  0.1355  0.4814
59059SOL    HW183140   3.034  12.343   6.623  1.0773  0.3337 -0.6256
59059SOL    HW283141   3.107  12.374   6.752 -2.4892 -0.2878  1.6878
59060SOL     OW83142   0.898   6.170  10.242 -0.3088  0.5431  0.0474
59060SOL    HW183143   0.814   6.217  10.238 -0.6309 -0.1015 -1.2207
59060SOL    HW283144   0.874   6.078  10.242  0.4121  0.3532 -0.1922
59061SOL     OW83145   6.913   3.098  11.324 -0.1021  0.2875 -0.3828
59061SOL    HW183146   6.854   3.161  11.364  1.2324  1.2188  0.1958
59061SOL    HW283147   6.872   3.075  11.240 -1.0707  1.1964 -0.1609
59062SOL     OW83148   0.939   2.733   8.408 -0.4421  0.0996  0.6224
59062SOL    HW183149   0.987   2.815   8.397 -0.0173 -0.2825 -0.6231
59062SOL    HW283150   1.007   2.665   8.405 -0.7990 -0.3044  1.5512
59063SOL     OW83151   9.452  11.669  10.144  0.1818 -0.3156 -0.4533
59063SOL    HW183152   9.440  11.739  10.208 -2.2279 -0.4731 -0.6218
59063SOL    HW283153   9.505  11.709  10.075  3.1845 -0.2610  1.7002
59064SOL     OW83154   8.802   8.816  12.320 -0.1642 -0.3755  0.3011
59064SOL    HW183155   8.743   8.801  12.246  1.8228 -1.0304 -1.2695
59064SOL    HW283156   8.794   8.909  12.339 -0.9526 -0.2637 -0.5246
59065SOL     OW83157   4.603   4.642   5.174 -0.3770  0.7533  0.4488
59065SOL    HW183158   4.516   4.631   5.213 -0.6741  1.7937  0.1225
59065SOL    HW283159   4.602   4.586   5.096 -0.6504  0.5373  0.6083
59066SOL     OW83160   6.495   3.529   3.335 -0.3966  1.0710  0.0719
59066SOL    HW183161   6.448   3.578   3.268 -2.3762 -3.5083 -2.3634
59066SOL    HW283162   6.571   3.493   3.290 -0.0802  0.3237  1.1526
59067SOL     OW83163   8.097  10.609   7.906  0.4239  0.5201  0.0619
59067SOL    HW183164   8.134  10.641   7.987 -0.3803  1.6990 -0.0206
59067SOL    HW283165   8.136  10.522   7.895  0.1150  0.1014  1.9801
59068SOL     OW83166   3.846   1.215   7.809  0.1471  0.4917 -0.0252
59068SOL    HW183167   3.843   1.310   7.808 -0.3939  0.4806 -0.9497
59068SOL    HW283168   3.773   1.189   7.865 -2.2689  0.6107 -2.8658
59069SOL     OW83169   3.061   1.063  10.531 -0.2749 -0.0010 -0.5879
59069SOL    HW183170   3.157   1.065  10.526 -0.1731 -2.5446 -1.3952
59069SOL    HW283171   3.041   1.064  10.624  0.5028  0.7657 -0.4150
59070SOL     OW83172   4.925   9.118   1.094 -0.4674  1.0799 -0.6802
59070SOL    HW183173   4.962   9.099   1.008  1.4084 -2.4536  0.7059
59070SOL    HW283174   4.973   9.197   1.123  1.4402  0.3036 -1.5361
59071SOL     OW83175  10.712   7.847  10.514 -0.1249  0.2433 -0.0806
59071SOL    HW183176  10.676   7.865  10.601 -0.0752 -1.2053  0.2699
59071SOL    HW283177  10.790   7.903  10.508  0.6102 -0.5603  1.3443
59072SOL     OW83178   6.460   4.610   2.510  0.3461  0.0299 -0.3927
59072SOL    HW183179   6.474   4.645   2.598  0.1380 -0.3861 -0.1933
59072SOL    HW283180   6.542   4.630   2.463  0.5452  0.0473 -0.0412
59073SOL     OW83181   3.030   1.460   3.503 -0.3075  0.2189 -0.1009
59073SOL    HW183182   2.944   1.419   3.513  0.1258 -0.3808  1.3134
59073SOL    HW283183   3.033   1.527   3.572  1.5474 -1.8967  2.0199
59074SOL     OW83184  11.545   5.461  10.673 -0.1328  0.0387  0.5154
59074SOL    HW183185  11.524   5.554  10.663  1.7569  0.4948  0.4624
59074SOL    HW283186  11.640   5.456  10.660 -0.1378 -1.8464  0.9245
59075SOL     OW83187   5.697   9.387   3.420 -0.4036  0.0771 -0.2782
59075SOL    HW183188   5.631   9.359   3.484 -0.4385  1.5662  0.3919
59075SOL    HW283189   5.781   9.371   3.463 -0.4015  0.2589 -0.2128
59076SOL     OW83190  11.568   9.115   2.023 -0.4954 -0.7423  0.1424
59076SOL    HW183191  11.619   9.192   2.050  0.1356 -1.0415 -0.1776
59076SOL    HW283192  11.627   9.041   2.037 -1.0787 -1.1618  0.3894
59077SOL     OW83193   0.768   7.702   6.211 -0.0024  0.2027 -0.1316
59077SOL    HW183194   0.725   7.710   6.296 -1.0490  0.4902 -0.6648
59077SOL    HW283195   0.860   7.685   6.232 -0.3732 -0.4935  1.0523
59078SOL     OW83196   2.102   0.565  11.312  0.2779 -0.6742  0.5296
59078SOL    HW183197   2.045   0.495  11.345 -0.4704 -0.8338 -0.9848
59078SOL    HW283198   2.137   0.607  11.390 -0.7988 -1.5110  1.4952
59079SOL     OW83199  10.028   7.191   1.109 -0.2477  0.1525  0.3262
59079SOL    HW183200   9.977   7.110   1.098 -0.2184  0.1855 -0.0775
59079SOL    HW283201  10.028   7.231   1.022  0.1584  0.3376  0.4103
59080SOL     OW83202   8.909  10.167   5.662 -0.2008  0.3242 -0.0187
59080SOL    HW183203   8.952  10.163   5.577  0.3042  3.1458 -0.0088
59080SOL    HW283204   8.980  10.189   5.723 -1.0722  1.7822  0.5253
59081SOL     OW83205   0.865   2.987   0.446 -0.4073  0.2382 -0.0530
59081SOL    HW183206   0.917   2.931   0.504 -0.3732 -1.3885 -1.5456
59081SOL    HW283207   0.865   3.073   0.488 -0.7641 -0.9346  2.5692
59082SOL     OW83208   0.895   6.298   4.395  0.5357 -0.1047  0.1303
59082SOL    HW183209   0.937   6.252   4.322 -0.4676 -0.7404 -0.0743
59082SOL    HW283210   0.843   6.230   4.439 -0.1941  0.6218  0.4231
59083SOL     OW83211   4.800  10.945   3.880 -0.5206 -0.0756  0.1846
59083SOL    HW183212   4.842  11.030   3.896 -1.3512  0.4324 -0.2398
59083SOL    HW283213   4.849  10.908   3.808 -0.4913  0.3015  0.0053
59084SOL     OW83214   2.159   8.485   0.489  0.3899  0.0141 -0.4543
59084SOL    HW183215   2.244   8.528   0.480  0.3893  1.0273  2.9479
59084SOL    HW283216   2.179   8.392   0.494  1.2959  0.2268  0.0848
59085SOL     OW83217   1.102   1.394   9.834  0.0759 -0.1479 -0.4646
59085SOL    HW183218   1.115   1.488   9.828  1.3294 -0.2745 -0.0849
59085SOL    HW283219   1.173   1.356   9.782  1.4007 -0.9147  1.7418
59086SOL     OW83220   9.059   3.219  10.682  0.2591 -0.1591  0.5797
59086SOL    HW183221   8.975   3.181  10.658  0.0270  0.5912  0.1918
59086SOL    HW283222   9.095   3.252  10.600  0.3051  0.7604  0.9622
59087SOL     OW83223   8.047   0.723   7.727 -0.1691 -0.2964 -0.3008
59087SOL    HW183224   7.972   0.690   7.676  0.7246  0.3856 -2.1428
59087SOL    HW283225   8.124   0.691   7.679  0.7539  3.4238 -1.6283
59088SOL     OW83226   7.739  12.164   2.644  0.2824  0.7771  0.2233
59088SOL    HW183227   7.777  12.250   2.664 -0.5827  1.3760 -0.6397
59088SOL    HW283228   7.814  12.105   2.644  0.9218  1.5570  0.6448
59089SOL     OW83229   9.272   7.824   6.356 -0.5536 -0.1275 -0.0691
59089SOL    HW183230   9.270   7.759   6.286  0.1824 -0.3717  0.1297
59089SOL    HW283231   9.267   7.772   6.436  0.9647 -0.0304  0.1225
59090SOL     OW83232   5.379   1.076   5.776  0.0853  0.2851  0.4741
59090SOL    HW183233   5.363   1.131   5.699  0.4372  0.6623  0.6686
59090SOL    HW283234   5.293   1.043   5.801 -0.0966  0.5687  0.2222
59091SOL     OW83235   8.322  10.465   8.803 -0.4210 -0.1972 -0.2540
59091SOL    HW183236   8.394  10.424   8.755  0.0492 -0.7946  0.9271
59091SOL    HW283237   8.365  10.513   8.874 -0.9907  1.9195 -1.2562
59092SOL     OW83238   0.592  12.073   2.358 -0.0659  0.0559 -0.0574
59092SOL    HW183239   0.648  12.117   2.294 -0.6402  0.8901 -0.0105
59092SOL    HW283240   0.532  12.142   2.388  0.3293 -0.2627  1.5353
59093SOL     OW83241  11.173   3.360  11.351  0.1565  0.5733  0.5632
59093SOL    HW183242  11.138   3.287  11.401  1.6529 -1.1563 -0.7428
59093SOL    HW283243  11.107   3.429  11.358 -1.8949 -1.3225  0.8795
59094SOL     OW83244   6.164   8.936  11.892 -0.2875  0.2099 -0.6586
59094SOL    HW183245   6.092   8.874  11.892 -0.3100  0.2001 -1.9596
59094SOL    HW283246   6.124   9.021  11.913 -0.1689 -0.2470  1.6997
59095SOL     OW83247   2.568  11.384   2.247 -0.4920 -0.3696  0.2040
59095SOL    HW183248   2.645  11.429   2.213 -1.4986  0.3784 -1.1850
59095SOL    HW283249   2.583  11.292   2.226  0.2068 -0.2938  0.3299
59096SOL     OW83250   5.057   7.289   7.813  0.0219 -0.0231 -0.6092
59096SOL    HW183251   5.083   7.226   7.880  0.4709 -0.9296 -1.6093
59096SOL    HW283252   4.962   7.279   7.807  0.1840 -1.2818 -1.3959
59097SOL     OW83253   8.909   8.855   3.318  0.5536  0.5500 -0.1449
59097SOL    HW183254   8.891   8.903   3.399  1.5475  2.6815 -1.1006
59097SOL    HW283255   9.004   8.858   3.309  0.3628  2.2935 -2.4356
59098SOL     OW83256   6.452   7.294  11.400 -0.2047 -0.0024 -0.3383
59098SOL    HW183257   6.428   7.335  11.483 -2.4193 -1.0595 -0.3918
59098SOL    HW283258   6.469   7.202  11.423 -0.8076 -0.2959 -1.0258
59099SOL     OW83259   4.568  10.621   8.358  0.0118  0.0381  0.6615
59099SOL    HW183260   4.644  10.622   8.301  0.4426  0.9751  1.2310
59099SOL    HW283261   4.504  10.566   8.312  0.1184  1.2512 -1.0147
59100SOL     OW83262   9.239   0.563   0.298 -0.3841  0.0130 -0.3650
59100SOL    HW183263   9.278   0.587   0.214 -0.0161  0.5245 -0.0549
59100SOL    HW283264   9.288   0.486   0.327  2.0883  2.0411  1.1624
59101SOL     OW83265   3.513   5.592   9.034 -0.0410 -0.3382 -0.2757
59101SOL    HW183266   3.554   5.507   9.046  0.9072  0.0534 -0.6355
59101SOL    HW283267   3.563   5.651   9.091 -0.3644  0.0741 -0.4125
59102SOL     OW83268   3.939  12.129   1.440  0.0338  0.2241  0.1167
59102SOL    HW183269   4.003  12.176   1.386 -1.7175  1.6284 -0.8441
59102SOL    HW283270   3.934  12.042   1.399 -0.3648  0.8681 -1.2771
59103SOL     OW83271   0.605   9.418   6.359 -0.2764  0.0958 -0.0118
59103SOL    HW183272   0.581   9.439   6.269  1.0727  0.4463 -0.3095
59103SOL    HW283273   0.615   9.502   6.402  0.1977 -0.0427  0.1549
59104SOL     OW83274   1.666   3.535   7.563 -0.3567  0.1540  0.3457
59104SOL    HW183275   1.595   3.509   7.622 -1.0666  2.3702  0.5383
59104SOL    HW283276   1.718   3.597   7.613  0.9250 -0.3601 -0.2968
59105SOL     OW83277   8.347   7.801   0.082  0.9017  0.0500 -0.2575
59105SOL    HW183278   8.335   7.891   0.113  1.7008  0.3177 -0.6953
59105SOL    HW283279   8.436   7.778   0.109  0.0516 -1.3590  1.6576
59106SOL     OW83280   2.026  11.991   9.345  0.6966  0.5312 -0.1673
59106SOL    HW183281   2.000  11.901   9.327 -0.2206  0.8806 -0.6698
59106SOL    HW283282   2.069  11.987   9.431 -0.2890 -0.2161  0.3087
59107SOL     OW83283   4.097   4.910   3.283  0.1869  0.4931  0.1424
59107SOL    HW183284   4.024   4.936   3.228 -0.2094 -1.0090 -0.0782
59107SOL    HW283285   4.140   4.992   3.306 -1.5638  1.4148  0.2890
59108SOL     OW83286   0.808   2.340   7.587  0.6998  0.2591 -0.3934
59108SOL    HW183287   0.800   2.434   7.571 -0.1089  0.2500 -0.1052
59108SOL    HW283288   0.822   2.302   7.500  0.2414  0.5768 -0.6124
59109SOL     OW83289  10.223   9.439   0.287  0.5861  0.1099  0.1899
59109SOL    HW183290  10.192   9.455   0.197 -0.7344  2.5015  0.9828
59109SOL    HW283291  10.317   9.452   0.283  0.6482 -0.5339 -0.9640
59110SOL     OW83292   0.863   9.012   3.370 -1.0160 -0.7328 -0.4507
59110SOL    HW183293   0.825   8.938   3.418 -0.5649 -0.8073 -0.1978
59110SOL    HW283294   0.944   8.977   3.333 -0.3102 -0.1140  0.4662
59111SOL     OW83295  10.482  11.244   6.185  0.1273 -0.1739  0.0829
59111SOL    HW183296  10.433  11.306   6.131  0.2855  0.1024  0.2538
59111SOL    HW283297  10.569  11.283   6.194 -0.0131 -0.0299  0.8554
59112SOL     OW83298  10.530   1.960   0.383 -0.6437  0.1005 -0.4766
59112SOL    HW183299  10.586   2.017   0.330  0.4926  0.3109  0.8944
59112SOL    HW283300  10.525   1.879   0.334  2.2118 -0.4972  0.0499
59113SOL     OW83301  11.668   2.923   8.317  0.2657 -0.3941  0.1055
59113SOL    HW183302  11.764   2.916   8.315  0.1622 -3.3836 -1.4219
59113SOL    HW283303  11.645   2.906   8.408  1.1789  0.6773  0.5552
59114SOL     OW83304   2.193   7.281   7.304  0.2890 -0.4218 -0.3199
59114SOL    HW183305   2.147   7.241   7.378 -0.4238 -0.7877 -0.9503
59114SOL    HW283306   2.126   7.293   7.238  0.2817  2.6827  0.1379
59115SOL     OW83307   4.323   5.791   4.810 -0.1123  0.0576  0.3037
59115SOL    HW183308   4.232   5.786   4.839 -0.1894 -1.2476 -0.0864
59115SOL    HW283309   4.362   5.860   4.864 -2.0848  2.9332 -1.6482
59116SOL     OW83310   3.415   8.914   2.430 -0.4858  0.3303 -0.4135
59116SOL    HW183311   3.332   8.962   2.431  0.0564  1.2874  0.0591
59116SOL    HW283312   3.437   8.901   2.522 -1.5938 -2.6379 -0.4476
59117SOL     OW83313   7.034   1.857   7.804  0.2752 -0.0004  0.6926
59117SOL    HW183314   7.008   1.765   7.802  0.3707 -0.0392  1.0354
59117SOL    HW283315   7.010   1.887   7.892 -0.3390  0.4780  0.3659
59118SOL     OW83316   3.232   4.777   3.437  0.3549 -0.5082  0.6127
59118SOL    HW183317   3.236   4.691   3.394 -0.1555 -0.6234  0.7886
59118SOL    HW283318   3.219   4.757   3.530 -2.5314 -0.2394  0.3384
59119SOL     OW83319   4.023   7.304   3.690 -0.1508 -0.1085  0.5333
59119SOL    HW183320   4.108   7.310   3.732 -0.4766 -0.6224  1.2892
59119SOL    HW283321   4.018   7.380   3.632  0.9811 -0.2972  0.1718
59120SOL     OW83322   3.218   6.978   6.095  0.1202  0.0668  0.0683
59120SOL    HW183323   3.143   6.965   6.038 -0.6270  0.5019  0.9272
59120SOL    HW283324   3.262   6.892   6.097  0.0286 -0.0190 -0.9413
59121SOL     OW83325   4.124   8.026   1.592 -0.1195  0.0461 -0.1602
59121SOL    HW183326   4.124   7.948   1.537  0.0675 -0.4345  0.5228
59121SOL    HW283327   4.047   8.017   1.647  0.8514 -0.5260  1.1381
59122SOL     OW83328   2.067   0.399   8.554  0.1136 -0.2104 -0.1444
59122SOL    HW183329   2.023   0.401   8.640 -0.9222  0.1604 -0.6579
59122SOL    HW283330   2.038   0.317   8.514 -0.3274  0.1511 -0.5852
59123SOL     OW83331   6.759   7.591   2.700 -0.4587 -0.4350  0.1135
59123SOL    HW183332   6.828   7.587   2.766 -0.7444  1.5866  0.6018
59123SOL    HW283333   6.720   7.504   2.700  0.2246 -0.7719  1.8712
59124SOL     OW83334   7.501   1.191   4.741 -0.1019  0.0193 -0.4592
59124SOL    HW183335   7.516   1.265   4.682 -3.3288  2.0240  0.9691
59124SOL    HW283336   7.445   1.131   4.691  0.2264 -0.1371 -0.6490
59125SOL     OW83337   8.799   9.238  10.123  0.2328 -0.0727 -0.5763
59125SOL    HW183338   8.744   9.294  10.068 -0.5496 -0.4520 -0.2018
59125SOL    HW283339   8.763   9.250  10.211  1.0714  0.0453 -0.2469
59126SOL     OW83340  11.967   9.838   8.428  0.4623 -0.1403 -0.0044
59126SOL    HW183341  11.888   9.848   8.482 -0.8278 -0.5070 -1.7332
59126SOL    HW283342  11.994   9.747   8.443 -0.5486 -0.5909 -0.7714
59127SOL     OW83343   9.881   7.044   6.526 -0.5323 -0.0775  0.0021
59127SOL    HW183344   9.831   6.968   6.557 -0.5873 -0.5949 -1.3025
59127SOL    HW283345   9.929   7.074   6.604  0.4718 -2.2179  0.2826
59128SOL     OW83346  11.122   9.386  10.358 -0.5513 -0.1872 -0.3582
59128SOL    HW183347  11.119   9.292  10.340  0.3309 -0.1488 -0.7811
59128SOL    HW283348  11.051   9.401  10.420  0.8526 -1.5743  1.7210
59129SOL     OW83349   6.836   2.209   7.139 -0.2122 -0.0701  0.0420
59129SOL    HW183350   6.784   2.132   7.163 -0.6984 -0.7719 -2.8791
59129SOL    HW283351   6.900   2.177   7.076 -0.1006  1.8321 -0.8908
59130SOL     OW83352   7.594   8.779   2.082  0.5246 -0.6259 -0.0238
59130SOL    HW183353   7.611   8.854   2.025 -0.2077 -0.4230  0.0046
59130SOL    HW283354   7.511   8.801   2.125  1.4559 -0.4078  1.7208
59131SOL     OW83355  11.012  11.530   7.542 -0.1871  0.1671 -0.2363
59131SOL    HW183356  10.991  11.604   7.599 -0.1524  0.3775 -0.4973
59131SOL    HW283357  11.086  11.561   7.490  0.0480 -0.1726 -0.1068
59132SOL     OW83358  11.717   3.850  10.599 -0.3528  0.7717  0.1759
59132SOL    HW183359  11.748   3.906  10.669 -2.1314  1.9934  0.0641
59132SOL    HW283360  11.683   3.911  10.533 -2.5013 -0.3889  0.1222
59133SOL     OW83361   0.713  12.394   5.247  0.1152  0.1461  0.3637
59133SOL    HW183362   0.763  12.476   5.246 -1.6188  1.2710  1.0118
59133SOL    HW283363   0.752  12.344   5.319  1.1055  0.4551  0.0609
59134SOL     OW83364  11.376   8.773   2.137 -0.3410 -0.2197 -0.7593
59134SOL    HW183365  11.291   8.760   2.096  0.5358 -2.7710 -1.9595
59134SOL    HW283366  11.387   8.697   2.195  0.6668  0.6417  0.2278
59135SOL     OW83367  11.112   2.593   6.034 -0.0312  0.3257  0.0300
59135SOL    HW183368  11.080   2.670   5.988 -0.2148 -0.4113 -1.1288
59135SOL    HW283369  11.137   2.625   6.121 -1.1703  1.4567 -0.0302
59136SOL     OW83370  12.127   4.296  10.030 -0.1928  0.4545  0.1875
59136SOL    HW183371  12.222   4.294  10.020  0.4394  3.0057  3.9217
59136SOL    HW283372  12.105   4.388  10.042 -3.1623 -0.0811 -0.2925
59137SOL     OW83373   5.095   2.966   4.725  0.0082  0.1523 -0.7816
59137SOL    HW183374   5.167   2.903   4.728 -0.6869 -0.7728 -2.3247
59137SOL    HW283375   5.019   2.915   4.696 -0.4389  1.7942 -2.7015
59138SOL     OW83376  11.003   9.188   3.929  0.0752 -0.3801  0.1928
59138SOL    HW183377  10.922   9.184   3.878 -0.5979 -1.5109  1.2876
59138SOL    HW283378  10.998   9.112   3.987  1.6528 -0.1314  0.6875
59139SOL     OW83379   8.802   9.944   6.860 -1.2533 -0.5030 -0.0444
59139SOL    HW183380   8.820  10.020   6.805  0.4915  0.2535  1.4621
59139SOL    HW283381   8.824   9.869   6.805 -2.7979  0.0469 -1.4856
59140SOL     OW83382   8.868   9.600  12.330 -0.3561  0.3545 -0.0247
59140SOL    HW183383   8.806   9.568  12.396 -1.4082  2.4638  0.0913
59140SOL    HW283384   8.949   9.616  12.379 -0.6169  0.3321  0.4234
59141SOL     OW83385  11.552   8.490   2.824  0.5614 -0.2660  0.2673
59141SOL    HW183386  11.577   8.497   2.916  1.3135 -0.0211  0.0451
59141SOL    HW283387  11.456   8.487   2.826  0.5926 -1.6473  1.1503
59142SOL     OW83388   8.124   4.352   7.690  0.2472 -0.1323 -0.6262
59142SOL    HW183389   8.068   4.343   7.767  1.0839  1.0770  0.1570
59142SOL    HW283390   8.175   4.271   7.688 -1.4337 -1.2436 -1.3315
59143SOL     OW83391   2.889   5.741   2.295  0.2593 -0.1709 -0.7803
59143SOL    HW183392   2.945   5.738   2.372 -1.1451  0.3710  0.3149
59143SOL    HW283393   2.827   5.669   2.307 -1.1966  1.0707 -0.3529
59144SOL     OW83394  11.284   9.608   3.003 -0.1498 -0.3179 -0.2198
59144SOL    HW183395  11.221   9.632   2.934 -0.5948 -2.0724 -0.4667
59144SOL    HW283396  11.360   9.664   2.986 -0.5205 -0.2258 -1.7189
59145SOL     OW83397   7.083  11.370   5.857 -0.0008  0.1105  0.7551
59145SOL    HW183398   7.146  11.439   5.836 -1.7165  1.7676  0.7967
59145SOL    HW283399   7.109  11.341   5.945  0.0426  1.5874  1.2664
59146SOL     OW83400   9.283   4.009  11.625 -0.0227 -0.5135  0.2102
59146SOL    HW183401   9.253   3.924  11.658 -1.8051 -0.0692 -0.1637
59146SOL    HW283402   9.304   4.059  11.703  2.1980 -1.6263  0.4233
59147SOL     OW83403   5.661   9.658  11.701  0.0767 -0.6666  0.5354
59147SOL    HW183404   5.681   9.751  11.684  0.1496 -0.9033 -0.7932
59147SOL    HW283405   5.746   9.615  11.700  0.0340 -0.7674  1.0693
59148SOL     OW83406   7.221   1.662   4.175  0.3004 -0.3691  0.2620
59148SOL    HW183407   7.151   1.725   4.158  0.2000 -0.2481  1.0771
59148SOL    HW283408   7.263   1.649   4.090  0.0275  0.4494 -0.0084
59149SOL     OW83409   1.484   5.174   5.468  0.5519 -0.6522  0.3400
59149SOL    HW183410   1.442   5.165   5.383  1.5381  2.3051 -0.5889
59149SOL    HW283411   1.576   5.154   5.451  0.4570 -1.9262  1.1886
59150SOL     OW83412   1.468   8.893   5.809 -0.4114  0.2483  0.0268
59150SOL    HW183413   1.427   8.905   5.895 -1.4217 -2.7781  0.0728
59150SOL    HW283414   1.518   8.811   5.818  0.9200  0.8033 -1.7749
59151SOL     OW83415   7.863   1.604   4.981 -0.2634 -0.1040  0.0964
59151SOL    HW183416   7.881   1.511   4.971  0.5065 -0.0623  0.9676
59151SOL    HW283417   7.790   1.621   4.922 -0.2658 -1.2103 -0.2342
59152SOL     OW83418  11.940   1.842   6.394  0.1964 -0.4234  0.4430
59152SOL    HW183419  12.015   1.901   6.391  0.2367 -0.5037 -1.5296
59152SOL    HW283420  11.882   1.874   6.325 -0.9914 -1.1233  1.0999
59153SOL     OW83421  12.324   8.484  11.755  0.2595  0.2950 -0.4014
59153SOL    HW183422  12.253   8.508  11.694  0.9613  0.5987 -1.1192
59153SOL    HW283423  12.294   8.516  11.840 -1.0263 -0.7024 -0.4468
59154SOL     OW83424   6.911   1.666   1.010 -0.3207  0.2118 -0.0528
59154SOL    HW183425   6.950   1.615   0.939  1.1788  0.2167  0.7313
59154SOL    HW283426   6.977   1.668   1.078 -0.8786  2.0160  0.5190
59155SOL     OW83427   4.194   7.261  11.019  0.0613 -0.2673 -0.6128
59155SOL    HW183428   4.160   7.342  11.057  0.0572  0.3929 -1.9416
59155SOL    HW283429   4.285   7.257  11.049  0.6982  1.3408 -2.1231
59156SOL     OW83430  12.464   6.625  11.996 -0.4560  0.2492 -0.3125
59156SOL    HW183431  12.412   6.705  11.991 -2.2306 -0.8389 -0.3455
59156SOL    HW283432  12.481   6.601  11.905  2.1581  1.7801 -0.3327
59157SOL     OW83433   1.257   2.036   2.034 -0.1703  0.1832  0.5540
59157SOL    HW183434   1.290   2.001   2.117  1.0130 -2.0058 -0.7423
59157SOL    HW283435   1.256   1.960   1.975  0.2055  1.8960 -1.7904
59158SOL     OW83436   3.026   3.388   0.923  0.0269  0.2095  0.0053
59158SOL    HW183437   3.015   3.321   0.990 -3.6264  0.2453 -0.3958
59158SOL    HW283438   3.084   3.348   0.858  0.1398 -1.4817  1.0977
59159SOL     OW83439   1.297   9.089   8.639  0.6049  0.2140 -0.0143
59159SOL    HW183440   1.214   9.137   8.632 -0.1846 -0.8903  1.1172
59159SOL    HW283441   1.338   9.098   8.553 -1.0358  0.2099 -0.8430
59160SOL     OW83442   4.414   9.781   0.638  0.1380 -0.4823 -0.6045
59160SOL    HW183443   4.466   9.852   0.601 -0.2919 -0.2032 -0.6866
59160SOL    HW283444   4.463   9.753   0.715  0.2016  0.0573 -0.4436
59161SOL     OW83445   9.314  11.370   1.370  0.6860  0.0255 -0.0136
59161SOL    HW183446   9.363  11.309   1.424  1.6793  1.9754  1.4050
59161SOL    HW283447   9.371  11.387   1.295  1.8904  1.5769  1.1769
59162SOL     OW83448   2.926   8.029   8.943  0.0397 -0.0123 -0.2369
59162SOL    HW183449   2.903   7.984   9.024 -0.6268 -0.2773 -0.5640
59162SOL    HW283450   2.869   8.106   8.941 -2.2690 -1.6175 -1.9424
59163SOL     OW83451   9.650   0.541  11.063 -0.2417  0.2261  0.6704
59163SOL    HW183452   9.637   0.448  11.080  2.0165 -0.3239 -0.1750
59163SOL    HW283453   9.598   0.559  10.985  0.7527 -0.8431 -0.2853
59164SOL     OW83454   9.024   9.935   6.497  0.2713  0.3217  0.4377
59164SOL    HW183455   9.015   9.892   6.581 -0.6471  2.2691  1.3955
59164SOL    HW283456   9.118   9.932   6.479  0.4928 -0.0486  1.5657
59165SOL     OW83457   3.251   8.125   0.278  0.1514  0.0760  0.1746
59165SOL    HW183458   3.180   8.151   0.338  1.1156 -1.1425  1.9063
59165SOL    HW283459   3.205   8.090   0.202 -1.1109  0.0154  0.9292
59166SOL     OW83460  10.761  10.510   6.265 -0.1015  0.5130 -0.8758
59166SOL    HW183461  10.770  10.592   6.215 -0.4058  0.1816 -1.4930
59166SOL    HW283462  10.704  10.456   6.210  0.0263 -0.0770 -0.4274
59167SOL     OW83463  10.219   4.753   2.747  0.1577 -0.6190  0.5433
59167SOL    HW183464  10.312   4.734   2.760  0.1765 -0.4826  0.6110
59167SOL    HW283465  10.218   4.839   2.706  0.1715 -1.6915 -1.8701
59168SOL     OW83466   6.678   7.492   2.041 -0.1005 -0.2826 -0.0292
59168SOL    HW183467   6.758   7.543   2.032  0.0145 -0.3753  0.4296
59168SOL    HW283468   6.683   7.427   1.971  0.5842 -0.7612  0.4586
59169SOL     OW83469   4.002  11.443  11.800  0.4978  0.1838 -0.0696
59169SOL    HW183470   3.933  11.414  11.859 -1.3534  0.5900 -1.9247
59169SOL    HW283471   4.046  11.514  11.847 -0.7608  0.3448  0.9044
59170SOL     OW83472   6.372   9.980   0.243  0.4156 -0.5730  0.3252
59170SOL    HW183473   6.301   9.917   0.254 -0.0198 -0.2244 -0.4055
59170SOL    HW283474   6.341  10.059   0.288  0.2723 -0.3749 -0.1150
59171SOL     OW83475   9.135   3.500   6.674  0.2689  0.2164 -0.0462
59171SOL    HW183476   9.178   3.580   6.706  0.9331 -0.4833  0.8606
59171SOL    HW283477   9.154   3.434   6.741 -0.2009 -0.7346 -0.8249
59172SOL     OW83478   5.216  12.060   1.447  0.7548  0.0822  0.0379
59172SOL    HW183479   5.308  12.044   1.467  0.2886 -1.9886  0.8738
59172SOL    HW283480   5.198  12.147   1.483  2.0501 -0.0659  1.1544
59173SOL     OW83481   1.575   4.952   4.346  0.4214  0.1249  0.3117
59173SOL    HW183482   1.638   4.903   4.398  0.0138  0.2815  0.9655
59173SOL    HW283483   1.544   4.890   4.280  1.7818  0.2593 -0.4702
59174SOL     OW83484   3.342   0.486  12.458 -0.1266  0.3622  0.2149
59174SOL    HW183485   3.307   0.421  12.398  0.1396 -0.1067  0.5594
59174SOL    HW283486   3.366   0.436  12.536  0.0232  0.8830  0.5086
59175SOL     OW83487   6.110  11.168   1.773 -0.0934 -0.0053  0.2610
59175SOL    HW183488   6.183  11.106   1.769  0.5317  0.7372 -0.1936
59175SOL    HW283489   6.143  11.247   1.730 -0.5446  0.9755  1.6389
59176SOL     OW83490   7.927   8.711   2.888 -0.2564  0.1372  0.2326
59176SOL    HW183491   7.859   8.645   2.901  0.3724 -0.3444  1.2654
59176SOL    HW283492   7.881   8.795   2.890 -0.8624 -0.1996  0.6327
59177SOL     OW83493   6.284   5.507   4.362 -0.6099 -0.7368 -0.5481
59177SOL    HW183494   6.286   5.463   4.276  0.6925 -0.4975 -0.6645
59177SOL    HW283495   6.373   5.495   4.396 -0.9802 -0.4011  0.5572
59178SOL     OW83496  11.529   1.326   0.336 -0.5045  0.0622  0.0592
59178SOL    HW183497  11.603   1.281   0.294 -1.4635 -0.4036 -1.1633
59178SOL    HW283498  11.561   1.415   0.351 -0.1127  0.2363 -1.6248
59179SOL     OW83499  11.132   1.945   2.938  0.2590 -0.3643  0.2161
59179SOL    HW183500  11.051   1.896   2.922 -0.3232  1.2795 -2.5262
59179SOL    HW283501  11.141   1.946   3.033 -3.1444 -0.3333  0.6718
59180SOL     OW83502   8.883   7.349   7.311  0.0594 -0.1190  0.1945
59180SOL    HW183503   8.814   7.415   7.320 -1.4368 -1.4110 -1.2701
59180SOL    HW283504   8.911   7.357   7.220  0.2553 -1.1348  0.1575
59181SOL     OW83505   6.492   1.101   9.937 -0.2500 -0.6197  0.0025
59181SOL    HW183506   6.581   1.073   9.919 -0.1253 -1.1323  1.2750
59181SOL    HW283507   6.487   1.190   9.901  0.2767 -1.1610 -1.4398
59182SOL     OW83508   6.221   5.991   3.078  0.3577  0.0064 -0.1213
59182SOL    HW183509   6.285   6.061   3.091 -0.1344  0.5390 -0.5295
59182SOL    HW283510   6.194   5.965   3.166  1.7567 -0.8167  0.0999
59183SOL     OW83511   2.736   8.184   1.183 -0.4364  0.0866  0.4364
59183SOL    HW183512   2.677   8.110   1.200 -1.2306  0.8552  1.1132
59183SOL    HW283513   2.823   8.144   1.177 -0.7855 -0.8499  1.3140
59184SOL     OW83514   4.391  12.106  12.417  0.0879 -0.2096  0.7312
59184SOL    HW183515   4.378  12.184  12.363 -0.3071  0.9955  2.4714
59184SOL    HW283516   4.336  12.039  12.377 -3.2975  1.7134  1.7689
59185SOL     OW83517   0.250  11.626   6.598 -0.3363 -0.3364  0.3928
59185SOL    HW183518   0.275  11.658   6.511  1.2717 -2.6737 -0.0908
59185SOL    HW283519   0.170  11.575   6.583 -0.5220 -0.0563  0.4292
59186SOL     OW83520   9.503  11.371   4.178 -0.3845  0.7933 -0.3307
59186SOL    HW183521   9.462  11.422   4.248 -0.6621  0.2003 -0.0519
59186SOL    HW283522   9.546  11.298   4.224 -0.9075  0.1727 -0.7982
59187SOL     OW83523   7.173   0.161   9.872 -0.1944  0.2198 -0.8087
59187SOL    HW183524   7.151   0.168   9.779  1.1303 -0.0409 -1.1638
59187SOL    HW283525   7.095   0.122   9.912 -0.5763 -0.1869 -1.9045
59188SOL     OW83526   6.788   8.109   8.964 -0.1187  0.3664  0.0935
59188SOL    HW183527   6.723   8.042   8.944 -0.3564  0.4296  0.6167
59188SOL    HW283528   6.782   8.171   8.892 -1.3918  0.9247  0.6523
59189SOL     OW83529   4.790   5.359   3.930  0.2434  0.0899  0.8870
59189SOL    HW183530   4.791   5.446   3.969 -0.1963 -0.0688  1.2586
59189SOL    HW283531   4.882   5.340   3.910  0.3415  0.6266  0.8245
59190SOL     OW83532   9.633  11.033   4.932 -0.7002  0.0776 -0.0317
59190SOL    HW183533   9.604  11.124   4.925 -1.0192 -0.0269 -0.0714
59190SOL    HW283534   9.561  10.982   4.896 -1.1567 -0.2871  1.3114
59191SOL     OW83535   5.917   2.638   5.628  0.4794  0.0984  0.9748
59191SOL    HW183536   5.935   2.579   5.555 -0.8813 -0.4015  1.0166
59191SOL    HW283537   5.968   2.716   5.608 -0.3738  0.2430 -0.8850
59192SOL     OW83538   6.057   1.837   1.331 -0.6216 -0.2547 -0.4981
59192SOL    HW183539   5.981   1.839   1.273 -0.7559 -0.1989 -0.3186
59192SOL    HW283540   6.129   1.811   1.274 -0.6067  0.5435 -0.8513
59193SOL     OW83541   6.888  10.864   8.971 -0.5364  0.4533  0.9598
59193SOL    HW183542   6.908  10.799   9.038  0.6768  0.8556  1.0136
59193SOL    HW283543   6.898  10.817   8.888 -1.7188  0.0417  1.0254
59194SOL     OW83544   8.191   5.956   1.821 -0.7376 -0.2705  0.1738
59194SOL    HW183545   8.153   5.997   1.898 -1.3404 -0.5128  0.0092
59194SOL    HW283546   8.150   5.870   1.816  0.7473 -1.0392  0.6887
59195SOL     OW83547  10.746   6.359   7.019  0.5388 -0.6153 -0.2779
59195SOL    HW183548  10.781   6.443   7.050  0.1408 -0.4275 -0.3328
59195SOL    HW283549  10.769   6.356   6.926  0.8397 -0.7169 -0.2021
59196SOL     OW83550   1.756   1.316   2.013 -0.4842  0.0490 -0.4711
59196SOL    HW183551   1.785   1.388   1.957 -1.3111 -0.9376 -2.2675
59196SOL    HW283552   1.677   1.350   2.057  0.1191  0.8055  0.0499
59197SOL     OW83553   8.156   6.572   7.865 -0.0217 -0.1024  0.1141
59197SOL    HW183554   8.062   6.560   7.874 -0.7688  2.6054 -2.4842
59197SOL    HW283555   8.181   6.513   7.793  0.2052 -0.5296  0.5394
59198SOL     OW83556   4.360   8.478   0.829  0.1009  0.3442  0.0085
59198SOL    HW183557   4.333   8.516   0.913 -0.1923  0.6806 -0.2375
59198SOL    HW283558   4.278   8.461   0.783  0.2834  1.4374 -0.7746
59199SOL     OW83559   6.598   2.614   0.754  0.3305 -0.9270  0.0675
59199SOL    HW183560   6.633   2.689   0.706  0.9679  0.6141  2.7522
59199SOL    HW283561   6.662   2.544   0.740  2.9030  0.8457  2.1752
59200SOL     OW83562   0.174   7.500   6.829  0.0622  0.4079 -0.2016
59200SOL    HW183563   0.119   7.489   6.907  0.8256 -1.7656  0.1104
59200SOL    HW283564   0.116   7.538   6.763 -1.3649 -0.2738  0.6170
59201SOL     OW83565  11.038   6.693  11.208  0.0432 -0.2821 -0.2066
59201SOL    HW183566  10.964   6.646  11.171 -0.6087  0.1487  0.5122
59201SOL    HW283567  11.046   6.658  11.297  0.8815 -0.5185 -0.3682
59202SOL     OW83568   5.909   1.662   2.596  0.0940 -0.1054 -0.3395
59202SOL    HW183569   5.903   1.569   2.575  2.1070 -0.5254  0.6372
59202SOL    HW283570   5.845   1.675   2.666  1.4016 -1.3466  1.1613
59203SOL     OW83571  12.177   5.033   1.655 -0.1377  0.3081  0.1202
59203SOL    HW183572  12.151   4.993   1.738 -0.9620 -0.9588 -0.7045
59203SOL    HW283573  12.240   5.101   1.679  0.0445 -0.3886  1.7290
59204SOL     OW83574  12.025   3.722   1.939  0.4434  0.4742 -0.1476
59204SOL    HW183575  12.111   3.692   1.969  0.4427  0.9797  0.3626
59204SOL    HW283576  11.963   3.677   1.996  0.2683 -1.0043 -1.4085
59205SOL     OW83577  12.021  10.616  11.051 -0.1141  0.6790 -0.6416
59205SOL    HW183578  12.093  10.651  10.997 -0.8554  1.6129 -1.0587
59205SOL    HW283579  11.945  10.670  11.027 -1.1257 -0.7386 -0.7163
59206SOL     OW83580   3.971  10.882   2.546  0.4695 -0.0963 -0.0489
59206SOL    HW183581   3.959  10.886   2.641 -0.6312 -0.5475 -0.1461
59206SOL    HW283582   3.912  10.812   2.517  1.6475 -0.7576 -0.9429
59207SOL     OW83583   2.935   9.172  11.179  0.1409  0.3967  0.0875
59207SOL    HW183584   2.845   9.165  11.208 -0.1377 -1.8040 -1.0587
59207SOL    HW283585   2.953   9.266  11.176 -2.7055  0.9894 -1.3499
59208SOL     OW83586   5.937   7.645   3.134  0.5317  0.1303 -0.0645
59208SOL    HW183587   5.886   7.660   3.054 -2.6329  0.9179  1.9458
59208SOL    HW283588   5.994   7.571   3.112  0.2803  0.7164 -3.2161
59209SOL     OW83589   9.914   2.746   8.944 -0.0258 -0.0161 -0.0474
59209SOL    HW183590   9.981   2.815   8.940 -0.4271  0.3132 -1.3141
59209SOL    HW283591   9.964   2.666   8.959  0.6827  0.2212 -1.0258
59210SOL     OW83592   1.852   4.865  10.820  0.5411  0.0561 -0.6194
59210SOL    HW183593   1.836   4.931  10.752 -0.8432  0.5505  0.1454
59210SOL    HW283594   1.793   4.888  10.891  0.4522 -1.6634 -0.0725
59211SOL     OW83595  12.325   9.636   4.605 -0.1340  0.0430  0.5719
59211SOL    HW183596  12.263   9.565   4.620 -0.9598  0.5488 -0.2960
59211SOL    HW283597  12.400   9.594   4.561 -0.1999 -0.4377  0.9113
59212SOL     OW83598   3.793   2.048   8.272 -0.5175  0.0526 -0.3691
59212SOL    HW183599   3.842   2.001   8.339  2.3644  3.5871  0.3048
59212SOL    HW283600   3.715   2.082   8.317  0.6058  1.0975  0.8527
59213SOL     OW83601   0.238   9.397  10.001 -0.1266 -0.1555  0.2591
59213SOL    HW183602   0.323   9.401   9.957  0.7354  2.6155  1.8774
59213SOL    HW283603   0.175   9.410   9.930  1.0862  1.9479 -0.5667
59214SOL     OW83604   9.237  12.292   4.539  0.2055 -0.1395 -0.1157
59214SOL    HW183605   9.143  12.305   4.551  0.0040 -0.5528 -1.1227
59214SOL    HW283606   9.278  12.363   4.589 -0.6881  1.0567 -1.0090
59215SOL     OW83607  10.004  11.052   1.437  0.3373 -0.4149  0.2014
59215SOL    HW183608  10.040  11.078   1.352  2.0286  1.7210  1.4647
59215SOL    HW283609   9.926  11.107   1.448  1.5857  1.2998  1.0688
59216SOL     OW83610  12.483   4.617  11.382  0.0802 -0.1660 -0.6373
59216SOL    HW183611  12.553   4.580  11.435 -1.0068 -0.7949  0.4043
59216SOL    HW283612  12.469   4.704  11.418 -1.8077 -1.1944  1.3382
59217SOL     OW83613  11.020   2.783  11.034 -0.1539  0.5552 -0.5571
59217SOL    HW183614  11.055   2.872  11.037 -1.5980  1.1505 -0.7964
59217SOL    HW283615  11.094   2.730  11.004  0.9148  1.5618  0.1875
59218SOL     OW83616   0.892   5.893   4.233  0.2570 -0.0395 -0.2997
59218SOL    HW183617   0.915   5.800   4.234  0.4302 -0.0739 -2.6764
59218SOL    HW283618   0.804   5.896   4.196  0.1403  0.7387  0.0214
59219SOL     OW83619   9.070  11.661   2.526  0.0798  0.0538 -0.0348
59219SOL    HW183620   9.117  11.591   2.571 -1.4758 -1.6387 -0.8704
59219SOL    HW283621   8.979  11.649   2.553 -0.0083  3.2778  1.6336
59220SOL     OW83622   7.668   5.216   8.220  0.0108 -0.3096  0.3855
59220SOL    HW183623   7.685   5.261   8.302 -0.9978  2.3280 -0.7512
59220SOL    HW283624   7.590   5.163   8.238  1.1807 -1.6866  1.7215
59221SOL     OW83625   7.424   9.076   3.895  0.4275 -0.1057 -0.3645
59221SOL    HW183626   7.475   9.020   3.837 -0.1185  0.3962 -1.3406
59221SOL    HW283627   7.394   9.148   3.840  1.0571  1.1346  0.8514
59222SOL     OW83628   3.085   9.608   8.727 -0.3734  0.2528 -0.2711
59222SOL    HW183629   3.028   9.558   8.669 -1.4264  2.1905 -1.0005
59222SOL    HW283630   3.039   9.608   8.811 -0.7684  0.6436 -0.4837
59223SOL     OW83631  11.695   4.106   8.024  0.4380  0.4152 -0.0422
59223SOL    HW183632  11.600   4.112   8.032  0.3565 -1.9294  1.8578
59223SOL    HW283633  11.728   4.110   8.113  1.9846 -0.3516 -0.5369
59224SOL     OW83634   4.959   1.455   4.996  0.2454 -0.4243 -0.8674
59224SOL    HW183635   4.972   1.362   5.019  0.8215 -0.7767 -2.4879
59224SOL    HW283636   5.044   1.496   5.015 -0.1336 -0.1084  0.2488
59225SOL     OW83637   0.339  10.317   3.526  0.0242 -0.0466 -0.8510
59225SOL    HW183638   0.278  10.249   3.495 -0.3965  0.5525 -1.3597
59225SOL    HW283639   0.293  10.399   3.509  0.6536  0.3772 -0.5025
59226SOL     OW83640   8.052   9.375   7.132  0.4437  0.1884  0.1690
59226SOL    HW183641   8.051   9.452   7.189 -0.6748 -0.0908  0.5394
59226SOL    HW283642   8.095   9.308   7.185  1.3459  0.5066 -0.1249
59227SOL     OW83643   3.680   2.527   6.037 -1.0182  0.4281  0.5073
59227SOL    HW183644   3.661   2.614   6.001 -1.3115 -0.2279 -0.9872
59227SOL    HW283645   3.765   2.504   6.000 -2.1126 -0.9944 -1.3030
59228SOL     OW83646   2.108   0.469   9.465  0.6171  0.1565 -0.1813
59228SOL    HW183647   2.034   0.516   9.425 -0.1695 -2.1580 -1.6341
59228SOL    HW283648   2.071   0.428   9.544  0.5309 -0.3754 -0.4937
59229SOL     OW83649   5.828  12.193  11.870  0.3974  0.3116  0.1880
59229SOL    HW183650   5.825  12.123  11.935  0.1412 -0.2413 -0.4035
59229SOL    HW283651   5.758  12.171  11.809 -0.1875  1.5066  0.4036
59230SOL     OW83652   7.429   1.737   4.378  0.2587  0.2763 -0.3600
59230SOL    HW183653   7.361   1.697   4.324  1.7554 -0.8385 -1.4807
59230SOL    HW283654   7.431   1.829   4.350 -1.2708  0.5276  0.2444
59231SOL     OW83655   5.994   4.885   6.692  0.2519 -0.2237 -0.0895
59231SOL    HW183656   5.977   4.797   6.726  0.9681  0.0221  0.9566
59231SOL    HW283657   6.090   4.891   6.690  0.2098  0.3328 -0.7077
59232SOL     OW83658   9.712  11.918  10.123 -0.0046  0.3238  0.0040
59232SOL    HW183659   9.743  11.955  10.206 -2.7714 -0.7793  1.6598
59232SOL    HW283660   9.784  11.861  10.095  0.4490 -0.4677  2.4894
59233SOL     OW83661   6.157   0.042   7.665  0.4208 -0.3122  0.6935
59233SOL    HW183662   6.065   0.067   7.669  0.5996  0.2494  1.5200
59233SOL    HW283663   6.192   0.088   7.589  0.5428  1.3174  1.6919
59234SOL     OW83664   3.872   9.520   4.152 -0.2248  0.1320  0.2883
59234SOL    HW183665   3.803   9.574   4.191 -1.8230 -1.0050 -0.8273
59234SOL    HW283666   3.912   9.475   4.227  0.0205  1.5754  1.0580
59235SOL     OW83667  11.766  12.231  10.638  0.4434 -0.4790 -0.0026
59235SOL    HW183668  11.722  12.199  10.559  1.8037 -0.5678 -0.7432
59235SOL    HW283669  11.709  12.202  10.710 -0.1948 -1.4476 -0.8674
59236SOL     OW83670  12.353   3.990   5.235  0.0036  0.1878 -0.3060
59236SOL    HW183671  12.263   3.988   5.270 -0.5933  1.6370 -1.6513
59236SOL    HW283672  12.346   3.947   5.150 -0.1092  2.9084 -1.7645
59237SOL     OW83673  12.082  12.446   7.127  0.0504 -0.2290 -0.8769
59237SOL    HW183674  12.064  12.410   7.214  0.7514 -0.0151 -0.6328
59237SOL    HW283675  12.108  12.371   7.074  0.6798 -0.2119 -0.5996
59238SOL     OW83676  12.453   8.212   4.617 -0.2250  0.3754  0.5919
59238SOL    HW183677  12.500   8.138   4.655  0.4643  2.1862  3.6324
59238SOL    HW283678  12.366   8.207   4.657 -0.2032  1.1437  0.7443
59239SOL     OW83679   1.650   2.072   0.938 -0.6412  0.3977 -0.2151
59239SOL    HW183680   1.706   2.145   0.964  0.4813 -0.1379 -1.0348
59239SOL    HW283681   1.571   2.113   0.905 -0.8684  1.1695  1.2046
59240SOL     OW83682   8.402   3.140   8.680 -0.0623 -0.3228  0.5685
59240SOL    HW183683   8.397   3.233   8.656  0.9838 -0.2194  0.7026
59240SOL    HW283684   8.339   3.097   8.621 -1.2627  0.5741  1.1571
59241SOL     OW83685   7.868   7.395   0.530  0.0944  0.1886 -0.2674
59241SOL    HW183686   7.903   7.433   0.449  0.9741  1.2551  0.5753
59241SOL    HW283687   7.934   7.331   0.556 -0.7693 -1.0235 -1.0104
59242SOL     OW83688  10.944   7.691   7.764 -0.8878  0.2785  0.4170
59242SOL    HW183689  11.018   7.746   7.789  0.5600 -2.1288  1.8530
59242SOL    HW283690  10.982   7.625   7.706 -2.0338 -0.6155  0.6464
59243SOL     OW83691  10.252   7.032   4.702 -0.4264 -0.2702  0.0408
59243SOL    HW183692  10.217   6.943   4.699 -0.7011 -0.2025  0.8468
59243SOL    HW283693  10.196   7.077   4.766  1.4880 -0.3251  1.8352
59244SOL     OW83694   2.028   2.598   4.096  0.1458 -0.4412  0.2228
59244SOL    HW183695   2.072   2.652   4.031 -2.2877  2.0198  0.4467
59244SOL    HW283696   2.095   2.581   4.163  1.4870  0.6940 -0.7749
59245SOL     OW83697  11.922   3.368   8.814  0.4546 -0.3768  0.3847
59245SOL    HW183698  12.013   3.381   8.787  1.2331 -0.1146  2.8726
59245SOL    HW283699  11.912   3.273   8.815  1.3171 -0.4816  1.8192
59246SOL     OW83700   0.224  10.597   4.644 -0.2979  0.5814 -0.3034
59246SOL    HW183701   0.219  10.692   4.643 -1.4345  0.6775  2.9831
59246SOL    HW283702   0.302  10.577   4.697 -1.3896 -0.2393  1.0490
59247SOL     OW83703   9.648   8.487   4.342  0.3976  0.3959  0.0483
59247SOL    HW183704   9.560   8.464   4.371 -0.3398  1.2875 -1.3696
59247SOL    HW283705   9.635   8.542   4.265  2.1934  1.0787  0.1669
59248SOL     OW83706   1.772   4.230   2.741  0.2177 -0.1414 -0.1330
59248SOL    HW183707   1.839   4.196   2.799  0.2320  1.5357  0.9058
59248SOL    HW283708   1.724   4.153   2.711  0.1367 -1.0694  2.1959
59249SOL     OW83709   2.520   5.109   4.694 -0.0713  0.4437  0.0124
59249SOL    HW183710   2.443   5.078   4.646 -0.0155  0.1031  0.1372
59249SOL    HW283711   2.541   5.193   4.655 -1.1083  1.0183  0.6284
59250SOL     OW83712   6.996   7.189  10.337  0.1334  0.1167 -0.1481
59250SOL    HW183713   6.946   7.220  10.412 -0.5498 -0.1983 -0.4595
59250SOL    HW283714   7.087   7.201  10.362 -0.0233 -1.5454  1.4278
59251SOL     OW83715   2.067   9.533   4.974 -0.2014  0.1887 -0.5614
59251SOL    HW183716   2.049   9.608   4.916 -1.4771  0.8533  0.6373
59251SOL    HW283717   2.100   9.573   5.055  0.1812 -0.6296 -0.3051
59252SOL     OW83718   9.529   5.537   4.620 -0.6101  0.0472 -0.2802
59252SOL    HW183719   9.614   5.553   4.579  0.3133  0.8772  1.8015
59252SOL    HW283720   9.537   5.450   4.659 -0.8444 -0.0099 -0.3575
59253SOL     OW83721   9.836   3.964   9.324  0.1119  0.1637 -0.1960
59253SOL    HW183722   9.847   4.059   9.334  0.4817  0.0202  0.7477
59253SOL    HW283723   9.922   3.932   9.300 -0.0908  0.0952 -0.8774
59254SOL     OW83724   6.351  11.960  11.451 -0.1166 -0.1499 -0.0064
59254SOL    HW183725   6.414  11.943  11.380  0.3671 -2.7358  0.9399
59254SOL    HW283726   6.327  11.873  11.483 -2.4775  0.8512  1.1888
59255SOL     OW83727   0.289  11.460  10.840  0.2099  0.0673  0.2408
59255SOL    HW183728   0.272  11.399  10.911 -0.1430  1.0456  1.0188
59255SOL    HW283729   0.360  11.516  10.872  0.8492 -0.2148 -0.6424
59256SOL     OW83730   7.224   3.811   5.431 -0.5624  0.0274  0.0285
59256SOL    HW183731   7.135   3.780   5.449 -0.8303  0.4994 -0.4450
59256SOL    HW283732   7.231   3.893   5.480  0.5751 -1.3318  2.2992
59257SOL     OW83733   1.490  10.952   1.081 -0.3826  0.4494 -0.0593
59257SOL    HW183734   1.518  10.865   1.052 -1.4406  0.2483 -0.5142
59257SOL    HW283735   1.541  10.969   1.160  0.5242 -0.1807 -0.4898
59258SOL     OW83736   8.298   8.191   0.685 -0.3670 -0.3393  0.2234
59258SOL    HW183737   8.262   8.144   0.760  0.7827 -0.0550  0.9811
59258SOL    HW283738   8.384   8.221   0.715  0.1858 -0.3770 -1.2778
59259SOL     OW83739  12.269   3.974   0.622 -0.2441 -0.0634 -0.7025
59259SOL    HW183740  12.195   3.937   0.574 -0.8391 -1.2095  0.9829
59259SOL    HW283741  12.287   3.909   0.691  0.4903  1.5126  0.6542
59260SOL     OW83742   8.719   0.707   3.389 -0.4473 -0.7441  0.4366
59260SOL    HW183743   8.741   0.614   3.375  1.1335 -0.0825 -1.9869
59260SOL    HW283744   8.800   0.747   3.419 -0.2376  0.3865 -1.4898
59261SOL     OW83745   1.787   2.018   0.195  0.3705  0.2122 -0.1538
59261SOL    HW183746   1.845   1.964   0.142 -0.1478 -0.7768  0.2521
59261SOL    HW283747   1.828   2.021   0.281  0.1112 -0.0220 -0.0194
59262SOL     OW83748   7.045   7.472   7.917 -0.3805  0.0489 -0.0578
59262SOL    HW183749   7.069   7.532   7.846 -0.5306 -0.6426 -0.7141
59262SOL    HW283750   7.117   7.410   7.921  0.7798  1.4322  2.0050
59263SOL     OW83751  11.727   9.289  10.014 -0.2564  0.8142  0.1614
59263SOL    HW183752  11.763   9.351  10.077 -0.7157  1.5889 -0.3217
59263SOL    HW283753  11.632   9.296  10.026 -0.2850 -0.9072  1.1468
59264SOL     OW83754   9.704   2.663   4.435  0.3782 -0.3694  0.0857
59264SOL    HW183755   9.666   2.678   4.521 -1.0029  0.4448 -0.6362
59264SOL    HW283756   9.637   2.617   4.386  0.9243 -0.3190 -0.7357
59265SOL     OW83757  11.001   7.328   7.037  0.5785  0.0552 -0.0546
59265SOL    HW183758  10.986   7.330   7.131  0.8841 -0.6163  0.0094
59265SOL    HW283759  11.018   7.236   7.017 -1.0669 -0.0885 -1.0070
59266SOL     OW83760  11.659  10.177  11.530  0.1558  0.9051 -0.3355
59266SOL    HW183761  11.569  10.153  11.507 -0.3299  2.2696  0.0147
59266SOL    HW283762  11.708  10.095  11.526 -1.3269 -0.0747  0.5562
59267SOL     OW83763  12.142   3.245   1.242  0.7361 -0.0112  0.1348
59267SOL    HW183764  12.223   3.288   1.214  0.7130  0.3504  0.6162
59267SOL    HW283765  12.164   3.152   1.244  0.6372 -0.0949 -1.4287
59268SOL     OW83766   1.859   6.812   3.885 -0.7606  0.1108  0.1542
59268SOL    HW183767   1.790   6.858   3.932 -1.2773 -0.1872 -0.3033
59268SOL    HW283768   1.901   6.880   3.831 -0.9087  0.2272  0.1855
59269SOL     OW83769  12.122   0.407   3.926  0.5185  0.2644  0.9485
59269SOL    HW183770  12.133   0.318   3.892  2.6572  1.4097 -1.7833
59269SOL    HW283771  12.130   0.464   3.849  1.4187  2.9336  2.8408
59270SOL     OW83772   8.322  12.399   3.051 -0.1122  0.2834  0.8691
59270SOL    HW183773   8.405  12.358   3.026 -0.5157 -0.7573  1.2162
59270SOL    HW283774   8.346  12.490   3.067  1.2062 -0.2440  2.1184
59271SOL     OW83775  11.996   2.585   6.941  0.0604 -0.1182  0.4722
59271SOL    HW183776  12.077   2.535   6.951 -0.0149 -0.6561 -1.2936
59271SOL    HW283777  12.012   2.645   6.869 -1.5426 -1.2698 -0.9397
59272SOL     OW83778   0.985   6.668   9.939 -0.1045  0.6536 -0.0193
59272SOL    HW183779   0.955   6.731  10.004  1.2231 -1.8614  3.3374
59272SOL    HW283780   1.079   6.686   9.929 -0.1471  0.5385 -0.7089
59273SOL     OW83781   0.558   2.990   8.826 -0.3550  0.2098  0.4894
59273SOL    HW183782   0.569   2.908   8.875  1.4800  1.1638  1.8073
59273SOL    HW283783   0.618   2.981   8.752  0.2787  0.5403  0.9445
59274SOL     OW83784   4.882   4.363  11.052  0.1699  0.2685 -0.2322
59274SOL    HW183785   4.790   4.371  11.027  0.1937  1.0656 -0.0967
59274SOL    HW283786   4.917   4.452  11.044  0.7821  0.0797  0.2679
59275SOL     OW83787   4.520   6.828   4.002  0.3057  0.0114 -0.2324
59275SOL    HW183788   4.586   6.790   3.944 -0.0281  0.6994 -1.0916
59275SOL    HW283789   4.570   6.865   4.075  0.8064 -0.1130 -0.5115
59276SOL     OW83790  12.469   7.913  10.968 -0.3647  0.2461  0.0004
59276SOL    HW183791  12.410   7.922  11.042  1.4536  0.9538  1.4595
59276SOL    HW283792  12.503   8.002  10.954  1.2457 -0.3233  0.0375
59277SOL     OW83793   5.504  12.481  11.013 -0.4683  0.4685 -0.1290
59277SOL    HW183794   5.518  12.519  11.100 -1.0676  1.0227 -0.2652
59277SOL    HW283795   5.534  12.550  10.953  0.2371 -0.0305 -0.3667
59278SOL     OW83796   6.356  10.323   5.958 -0.3696  0.1211  0.3382
59278SOL    HW183797   6.264  10.335   5.936 -0.5261 -0.8681  0.3702
59278SOL    HW283798   6.374  10.231   5.935  1.2287  0.8953 -1.9263
59279SOL     OW83799  11.945   9.130   8.331  0.3340 -0.3985 -0.1151
59279SOL    HW183800  11.917   9.071   8.401  0.4628  0.2902  0.5292
59279SOL    HW283801  11.889   9.207   8.341  1.5427  0.4342  0.3354
59280SOL     OW83802  11.063   4.405   4.960  0.2149 -0.1985 -0.0832
59280SOL    HW183803  11.063   4.361   4.875 -0.4210 -1.1415  0.3924
59280SOL    HW283804  10.997   4.474   4.952  1.8443  1.3171 -1.1302
59281SOL     OW83805   0.519   1.744   8.436 -0.0829 -0.1855  0.9823
59281SOL    HW183806   0.437   1.741   8.386 -0.1928 -0.2508  1.1638
59281SOL    HW283807   0.499   1.802   8.510  0.3106  0.5312  0.5374
59282SOL     OW83808   4.116   9.252   1.159 -0.2448 -0.0975 -0.1557
59282SOL    HW183809   4.035   9.203   1.177 -1.4166  1.5826 -0.6374
59282SOL    HW283810   4.098   9.300   1.079  0.3563  2.1092  0.9462
59283SOL     OW83811   9.713   2.974   0.837  0.2498 -0.2314 -0.1232
59283SOL    HW183812   9.635   2.926   0.811  1.0952 -0.0221 -3.5863
59283SOL    HW283813   9.753   2.921   0.905 -0.9072 -2.3699 -1.0152
59284SOL     OW83814   8.811   1.745   3.010 -0.0174  0.2182  0.5357
59284SOL    HW183815   8.822   1.655   2.979  1.2091  0.3067  0.6504
59284SOL    HW283816   8.880   1.756   3.076 -0.9352  0.8572  1.4280
59285SOL     OW83817   4.111   6.959   4.932  0.2364  0.1988 -0.1673
59285SOL    HW183818   4.034   6.920   4.891 -1.0193  0.3653  1.8761
59285SOL    HW283819   4.181   6.948   4.868 -1.6139  0.6065 -2.3726
59286SOL     OW83820   6.048   7.295  12.116  0.2730  0.2646 -0.1875
59286SOL    HW183821   6.035   7.201  12.133 -0.7680 -0.0027 -2.2171
59286SOL    HW283822   5.972   7.336  12.158  0.3498  0.1430  0.0807
59287SOL     OW83823   5.803   7.138   4.314 -0.0925 -0.4891 -0.1400
59287SOL    HW183824   5.889   7.128   4.356 -0.4843 -1.5263  0.4551
59287SOL    HW283825   5.817   7.204   4.246  1.0258 -0.1976  0.3516
59288SOL     OW83826   6.933   7.035   5.063  0.3268  0.1616  0.5138
59288SOL    HW183827   7.020   7.077   5.067  0.6506 -0.4294 -0.1807
59288SOL    HW283828   6.884   7.087   5.000 -0.1610  1.0668  1.5884
59289SOL     OW83829   7.491   0.424   1.854 -0.2095  0.1420 -0.7407
59289SOL    HW183830   7.432   0.497   1.870  0.2166  0.5476 -0.9873
59289SOL    HW283831   7.563   0.462   1.804  0.1389 -0.3961 -0.6577
59290SOL     OW83832   1.962   4.020  10.959 -0.3783 -0.2881 -0.2047
59290SOL    HW183833   2.040   4.006  11.013  0.6470  0.9069 -1.3132
59290SOL    HW283834   1.951   3.938  10.911 -2.1785 -1.9657  2.7454
59291SOL     OW83835   0.315  12.165  11.751  0.1285 -0.1249 -0.0750
59291SOL    HW183836   0.223  12.149  11.770  0.3380 -0.0518  1.0639
59291SOL    HW283837   0.357  12.174  11.837  0.7725  2.2431 -0.5508
59292SOL     OW83838   4.719  10.066   6.657  0.2552 -0.0272  0.1906
59292SOL    HW183839   4.805  10.074   6.698  0.8741 -1.1903 -0.8028
59292SOL    HW283840   4.660  10.113   6.715  1.6110  1.0688  0.7332
59293SOL     OW83841   0.457   2.553   9.799  0.5751 -0.3933  0.1987
59293SOL    HW183842   0.390   2.621   9.802 -0.1119 -1.0330 -0.3076
59293SOL    HW283843   0.408   2.471   9.796  1.3918 -0.8986  0.4542
59294SOL     OW83844   4.599   8.298  11.814 -0.4884  1.1281 -0.0940
59294SOL    HW183845   4.559   8.385  11.813 -2.7801  0.1637 -0.3034
59294SOL    HW283846   4.602   8.275  11.907 -2.7213  0.3183 -0.1469
59295SOL     OW83847   9.906   3.407   6.612 -0.0416  0.2165  0.6772
59295SOL    HW183848   9.858   3.452   6.543  0.3883  1.2333  1.0317
59295SOL    HW283849   9.876   3.316   6.607 -2.2126  0.8579  1.0762
59296SOL     OW83850   4.606   4.137   5.465  0.5575 -0.0361  0.1855
59296SOL    HW183851   4.649   4.193   5.400  0.1075 -0.5784 -0.6113
59296SOL    HW283852   4.627   4.176   5.549  0.6701  1.0381 -0.3281
59297SOL     OW83853  11.270  11.766   8.716 -0.8668  0.4722 -0.0655
59297SOL    HW183854  11.211  11.747   8.789  1.1799  0.1758  1.5917
59297SOL    HW283855  11.307  11.851   8.738  1.6028 -0.6887  0.5942
59298SOL     OW83856  11.696   2.088   1.189 -0.7202  0.0742  0.3396
59298SOL    HW183857  11.654   2.148   1.127 -2.0716  0.3408  1.4628
59298SOL    HW283858  11.774   2.135   1.218 -1.8919  1.4770  1.3974
59299SOL     OW83859   8.800   0.768   7.765  0.2291 -0.0230  0.1061
59299SOL    HW183860   8.813   0.751   7.672 -0.3391  1.0875 -0.1931
59299SOL    HW283861   8.744   0.697   7.796  0.0587 -0.1547 -0.5008
59300SOL     OW83862  10.190   8.214   1.863  0.5368  0.0150 -0.5637
59300SOL    HW183863  10.210   8.168   1.944 -1.8943 -0.2246 -0.0255
59300SOL    HW283864  10.096   8.202   1.851  0.5863  1.2284 -2.6980
59301SOL     OW83865   2.968  10.403   9.392 -0.0233 -0.5370 -0.4333
59301SOL    HW183866   2.939  10.390   9.301  2.3939 -0.1047 -1.3437
59301SOL    HW283867   3.021  10.326   9.411  0.0700 -0.2827  0.3616
59302SOL     OW83868   8.151  10.873  11.661  0.3703  0.0536  0.0698
59302SOL    HW183869   8.232  10.908  11.625  0.8509 -0.6795  0.4256
59302SOL    HW283870   8.115  10.819  11.591 -0.1752  0.9156 -0.3380
59303SOL     OW83871   6.047   6.168   1.708 -0.0970  0.3914  0.3590
59303SOL    HW183872   6.142   6.180   1.696  0.1393 -0.3156  1.4132
59303SOL    HW283873   6.022   6.110   1.636  0.7859 -1.5582  1.5418
59304SOL     OW83874   8.565   3.437  12.281 -0.1216 -0.7291  0.7648
59304SOL    HW183875   8.483   3.436  12.230  0.5792  0.2241 -0.4468
59304SOL    HW283876   8.546   3.494  12.355 -0.1974  0.5379 -0.1961
59305SOL     OW83877   5.310   0.624   7.254 -0.0605  0.3603  0.1430
59305SOL    HW183878   5.270   0.652   7.337  1.3224 -0.5621  1.1746
59305SOL    HW283879   5.237   0.595   7.200 -0.9814  0.8865  1.0706
59306SOL     OW83880   7.363  11.430  10.466  0.0685  0.8463 -0.0357
59306SOL    HW183881   7.290  11.462  10.520  0.3965  1.3613  0.1069
59306SOL    HW283882   7.325  11.418  10.379 -0.4177  0.2034  0.2591
59307SOL     OW83883   4.769   9.399   3.754 -0.3236  0.3509  0.0095
59307SOL    HW183884   4.780   9.338   3.682  2.7887 -0.0399  0.6839
59307SOL    HW283885   4.678   9.389   3.781 -0.7191 -1.6971 -1.8814
59308SOL     OW83886   6.442   4.476   4.769  0.5070 -0.0337 -0.1476
59308SOL    HW183887   6.526   4.474   4.724  0.7102 -0.4874  0.2379
59308SOL    HW283888   6.406   4.562   4.749  0.9842  0.0986 -0.4569
59309SOL     OW83889   8.318   5.436   2.629  0.3901  0.3715  0.4582
59309SOL    HW183890   8.400   5.472   2.662  1.3222 -0.6694 -0.6451
59309SOL    HW283891   8.302   5.482   2.547  0.8635 -0.7104 -0.2608
59310SOL     OW83892   3.907   7.209   2.613 -0.5130 -0.1679  0.6212
59310SOL    HW183893   3.920   7.300   2.589 -0.7486 -0.4526 -0.6768
59310SOL    HW283894   3.845   7.176   2.548  1.2795 -1.8420 -0.3616
59311SOL     OW83895   9.998  12.034   9.824 -0.5117  0.1241 -0.1830
59311SOL    HW183896   9.922  12.092   9.825  0.4038  1.3716 -0.1125
59311SOL    HW283897   9.973  11.964   9.764 -1.1968  1.2647 -1.3006
59312SOL     OW83898   4.758  11.196  11.347  0.4117 -0.1092 -0.4963
59312SOL    HW183899   4.680  11.221  11.397 -0.3103 -0.0474 -1.6134
59312SOL    HW283900   4.821  11.266  11.364  0.4370 -0.4424  0.8637
59313SOL     OW83901   8.924   3.939   4.361 -0.1872  0.7795 -0.2874
59313SOL    HW183902   8.840   3.984   4.365 -0.5686  0.0014  2.1953
59313SOL    HW283903   8.975   3.977   4.432  0.7901 -0.2048 -0.4364
59314SOL     OW83904   0.312   2.336   9.747 -0.0145 -0.2026  0.1254
59314SOL    HW183905   0.217   2.325   9.749 -0.0407 -0.0188  2.5600
59314SOL    HW283906   0.343   2.264   9.692 -1.6167  0.7412 -2.1782
59315SOL     OW83907  11.278   8.487   0.159 -0.4454  0.2799  0.2171
59315SOL    HW183908  11.208   8.427   0.132  0.0685 -0.2076 -0.0399
59315SOL    HW283909  11.358   8.436   0.151  0.1530  1.3540 -1.2006
59316SOL     OW83910   6.336   7.786   5.044 -0.3437 -0.4990 -0.8095
59316SOL    HW183911   6.403   7.827   5.099 -0.5942 -0.7729 -0.2821
59316SOL    HW283912   6.290   7.859   5.004  0.4952 -0.3167 -1.4605
59317SOL     OW83913   7.532  11.691   7.032 -0.2446  0.0954  0.4372
59317SOL    HW183914   7.590  11.689   6.955  0.3347 -0.6595  0.8723
59317SOL    HW283915   7.538  11.781   7.064  0.9669 -0.0460  0.6605
59318SOL     OW83916   4.135   0.949   4.915 -0.2991  0.2821 -0.4140
59318SOL    HW183917   4.045   0.940   4.945 -0.2811  0.9306 -0.1366
59318SOL    HW283918   4.187   0.894   4.974 -0.2857  1.4073  0.6617
59319SOL     OW83919  11.180  11.827   3.545 -0.3333 -0.3142  0.1527
59319SOL    HW183920  11.146  11.861   3.463  3.4103  0.9576 -1.0681
59319SOL    HW283921  11.130  11.872   3.613 -1.0355  1.4164 -1.4368
59320SOL     OW83922  11.377  12.105   2.700  0.7628  0.1259  0.1950
59320SOL    HW183923  11.435  12.175   2.730  0.6625  0.6328 -0.7652
59320SOL    HW283924  11.432  12.027   2.700  1.7135  0.7404 -1.4738
59321SOL     OW83925   9.651   1.304   7.636 -0.1108  0.0673 -0.4107
59321SOL    HW183926   9.599   1.357   7.697  0.7080  1.2282 -0.6923
59321SOL    HW283927   9.644   1.349   7.552 -2.3741 -2.2542 -1.6220
59322SOL     OW83928   7.386   6.443  11.627 -0.5794 -0.4915 -0.5652
59322SOL    HW183929   7.392   6.354  11.662 -3.4782 -0.5834 -0.0541
59322SOL    HW283930   7.327   6.488  11.688 -0.0656  1.4644 -1.4455
59323SOL     OW83931   8.765   5.044   1.684 -0.3667  0.3254  0.3818
59323SOL    HW183932   8.695   4.980   1.702 -1.0960  0.3919 -1.9876
59323SOL    HW283933   8.740   5.121   1.735  0.7283 -1.2715  3.6267
59324SOL     OW83934   8.051   5.506   8.106 -0.0032  0.1114 -0.1751
59324SOL    HW183935   8.001   5.434   8.067  1.6079 -0.2752 -1.6786
59324SOL    HW283936   8.021   5.511   8.196  0.4418 -3.0613  0.2500
59325SOL     OW83937   4.320  11.075   1.700  0.1750 -0.1958  0.1379
59325SOL    HW183938   4.339  11.166   1.721  0.5804 -0.4338  0.8693
59325SOL    HW283939   4.381  11.025   1.755 -0.1364 -0.9102 -0.1502
59326SOL     OW83940   8.986   3.299   9.845 -0.2099 -0.1994 -0.5830
59326SOL    HW183941   9.057   3.242   9.815  0.6618  1.1700 -1.2317
59326SOL    HW283942   8.964   3.267   9.932  1.2645 -0.6131 -0.3447
59327SOL     OW83943   3.973  10.342   7.240  0.1803  0.0411  0.1827
59327SOL    HW183944   3.911  10.278   7.275  0.5689 -0.9718 -0.8888
59327SOL    HW283945   4.003  10.303   7.157  0.0306  1.8533 -0.7818
59328SOL     OW83946  10.634   0.072   0.703  0.8856 -0.2617  0.3030
59328SOL    HW183947  10.612   0.123   0.626 -0.2296 -0.3079  0.5650
59328SOL    HW283948  10.606  -0.017   0.681  1.7070 -0.5206  0.2960
59329SOL     OW83949  11.717   1.496   9.356  0.3688  0.2030  0.5939
59329SOL    HW183950  11.630   1.462   9.336  0.5052 -1.1592  2.0858
59329SOL    HW283951  11.758   1.509   9.270 -0.9697 -0.0282 -0.1064
59330SOL     OW83952  10.484   1.108   1.452  0.8731 -0.1234 -0.1865
59330SOL    HW183953  10.467   1.079   1.362 -1.4607  0.9066 -0.1501
59330SOL    HW283954  10.578   1.093   1.465  1.1305 -0.9324 -2.5518
59331SOL     OW83955   8.719   5.463   9.152  0.2697 -0.0404 -0.3005
59331SOL    HW183956   8.745   5.513   9.074 -0.5055  0.5434 -0.2011
59331SOL    HW283957   8.755   5.376   9.137  2.0498  0.6478 -0.2710
59332SOL     OW83958  12.411  10.432   3.345 -0.3530 -0.1570  0.2935
59332SOL    HW183959  12.377  10.359   3.294  1.1824 -0.8187  0.1809
59332SOL    HW283960  12.398  10.406   3.436 -0.7717 -0.0906  0.2564
59333SOL     OW83961   1.287   8.093   1.868  0.3769  0.3982  0.0347
59333SOL    HW183962   1.349   8.153   1.825  0.7590  0.1533  0.2321
59333SOL    HW283963   1.341   8.043   1.930  0.2125 -0.6645 -0.6466
59334SOL     OW83964   3.223   7.588   1.695  0.1620  0.4898  0.1571
59334SOL    HW183965   3.253   7.668   1.652  2.7969  0.5053  1.7747
59334SOL    HW283966   3.271   7.518   1.651  0.3251  0.1568  0.8503
59335SOL     OW83967   4.115   3.216   3.229  0.5410  0.6436  0.3323
59335SOL    HW183968   4.208   3.194   3.226  0.7650  1.5791 -0.7039
59335SOL    HW283969   4.073   3.148   3.176  1.0382  1.7636 -1.6322
59336SOL     OW83970   2.369   0.892   8.960 -0.1815  0.4685  0.0149
59336SOL    HW183971   2.339   0.857   8.877 -0.2935  0.7355 -0.0559
59336SOL    HW283972   2.336   0.830   9.025 -0.4476  0.4851 -0.1037
59337SOL     OW83973   2.010   2.338   6.012  0.1360  0.2894 -0.3271
59337SOL    HW183974   2.034   2.373   6.098 -0.5324 -0.4225  0.1607
59337SOL    HW283975   1.928   2.290   6.027 -0.5662  1.0405 -1.5662
59338SOL     OW83976   9.358   5.985  12.277  0.1878 -0.6903  0.4634
59338SOL    HW183977   9.304   5.906  12.281 -1.7000  0.4936 -0.1061
59338SOL    HW283978   9.412   5.974  12.200 -0.0269 -1.4591  0.4209
59339SOL     OW83979   5.040   2.774   6.458  0.3476 -0.2593  0.4998
59339SOL    HW183980   5.050   2.757   6.365  0.2866  0.8365  0.2802
59339SOL    HW283981   4.953   2.739   6.479 -1.0025  2.2232 -0.5645
59340SOL     OW83982  11.210   9.939   9.194  0.8371 -0.2584 -0.0525
59340SOL    HW183983  11.174   9.957   9.281  1.4150  0.4952  0.0381
59340SOL    HW283984  11.136   9.902   9.145  0.2446  0.2023  0.4704
59341SOL     OW83985   2.160   6.255   2.881 -0.3426  0.1351  0.4372
59341SOL    HW183986   2.109   6.299   2.950  0.9161  1.1473  0.7512
59341SOL    HW283987   2.237   6.220   2.926  0.4310  0.6984 -0.4168
59342SOL     OW83988   0.696   3.868   5.533 -0.1311 -0.2616  0.5540
59342SOL    HW183989   0.633   3.798   5.516 -0.0279 -0.5642  1.3515
59342SOL    HW283990   0.748   3.836   5.607  0.1318  0.5215  0.7204
59343SOL     OW83991  11.069   9.383   2.501 -0.0376 -0.3935  0.2478
59343SOL    HW183992  11.055   9.451   2.435 -0.3333 -0.3336  0.3736
59343SOL    HW283993  11.063   9.301   2.452 -1.4266 -0.3996  0.3903
59344SOL     OW83994   3.519   1.915   7.935  0.4494  0.0070  0.1985
59344SOL    HW183995   3.434   1.957   7.922  1.0389  0.8653 -1.1065
59344SOL    HW283996   3.544   1.884   7.848  1.0013 -1.2034  0.7592
59345SOL     OW83997  10.627   8.116  11.919 -0.2403  0.2001 -0.2755
59345SOL    HW183998  10.671   8.102  11.835 -0.1611 -0.3910 -0.1389
59345SOL    HW283999  10.693   8.092  11.984 -0.4627  0.1989 -0.0504
59346SOL     OW84000   9.074   0.824   4.081  0.1677 -0.0641 -0.3812
59346SOL    HW184001   9.104   0.914   4.066 -0.4927  0.1356 -0.5424
59346SOL    HW284002   9.109   0.774   4.007 -0.5773  0.3274 -1.0103
59347SOL     OW84003   5.875  11.756   0.298 -0.3673 -0.3903  0.2311
59347SOL    HW184004   5.883  11.662   0.319  1.5905 -0.2326  0.4403
59347SOL    HW284005   5.924  11.766   0.216 -1.1450  0.3545 -0.1579
59348SOL     OW84006   8.296   3.623   6.877  0.3459  0.1038  0.6677
59348SOL    HW184007   8.310   3.716   6.861 -1.8806  0.6653  1.6883
59348SOL    HW284008   8.307   3.582   6.791 -0.2102  1.5195 -0.1003
59349SOL     OW84009   3.546   0.772   8.253 -0.9826 -0.6074  0.1223
59349SOL    HW184010   3.499   0.743   8.331 -0.5487 -0.0334  0.6119
59349SOL    HW284011   3.513   0.860   8.237 -0.4852 -0.4121  0.1452
59350SOL     OW84012   5.262   4.299   4.304  0.2109  0.0116 -0.3724
59350SOL    HW184013   5.215   4.383   4.306 -0.8428 -0.4937 -2.0902
59350SOL    HW284014   5.221   4.250   4.233  0.8609 -1.9584  0.5335
59351SOL     OW84015   2.083   8.333   5.343 -0.0901 -0.2905 -0.1122
59351SOL    HW184016   2.159   8.280   5.320  0.5548  0.5405  0.0455
59351SOL    HW284017   2.042   8.355   5.259  0.6030  0.3384 -0.2976
59352SOL     OW84018   7.470   2.806   1.038  0.6075  0.3038 -0.2577
59352SOL    HW184019   7.447   2.713   1.042  0.6023  0.1750 -2.2540
59352SOL    HW284020   7.526   2.820   1.115 -0.5053 -0.9908  0.8521
59353SOL     OW84021   9.580   9.830   2.304  0.1685 -0.1110  0.0991
59353SOL    HW184022   9.643   9.787   2.363  0.4974 -0.5444 -0.5504
59353SOL    HW284023   9.533   9.892   2.359 -0.2937 -1.2935  1.0665
59354SOL     OW84024   8.354   1.044   0.405  0.0405 -0.0056  0.0691
59354SOL    HW184025   8.331   0.996   0.485  1.7628  0.1911  0.7068
59354SOL    HW284026   8.275   1.095   0.386 -0.7626 -0.8031  1.0657
59355SOL     OW84027  12.078  10.845   6.155  0.2124  0.1237 -0.2087
59355SOL    HW184028  12.056  10.938   6.163  2.3649  0.5383  1.8369
59355SOL    HW284029  12.163  10.844   6.111  1.7385 -0.5866  2.5206
59356SOL     OW84030  10.834   5.667   9.722 -0.6269  0.1167  0.4561
59356SOL    HW184031  10.915   5.718   9.715  0.0207 -0.9606 -0.2229
59356SOL    HW284032  10.779   5.717   9.783 -1.1353  3.0756 -2.1578
59357SOL     OW84033   8.372   5.809   9.596 -0.3598  0.1919  0.3181
59357SOL    HW184034   8.439   5.742   9.578  1.1455  1.4641  0.9824
59357SOL    HW284035   8.302   5.790   9.533  1.9567  0.6692 -2.6365
59358SOL     OW84036   6.349   3.291   4.337  0.0315 -1.2630 -0.0140
59358SOL    HW184037   6.407   3.223   4.303  0.1048 -0.4852 -1.5383
59358SOL    HW284038   6.408   3.359   4.369  0.0657 -0.0808 -2.3572
59359SOL     OW84039   7.134   3.522   1.023  0.1334  0.7254  0.0083
59359SOL    HW184040   7.157   3.536   0.931  1.9924 -2.5811 -0.1639
59359SOL    HW284041   7.041   3.545   1.028 -0.4231 -0.3926 -3.0785
59360SOL     OW84042   3.776   1.758  10.002  0.5875 -0.1955  0.3958
59360SOL    HW184043   3.697   1.720  10.041 -0.8479  2.0008 -0.2051
59360SOL    HW284044   3.748   1.843   9.970  2.6588 -0.2797 -1.9088
59361SOL     OW84045   9.334   4.083   0.603 -0.6031 -0.1854  0.3438
59361SOL    HW184046   9.340   3.987   0.602  1.8799 -0.1383  1.8558
59361SOL    HW284047   9.405   4.113   0.547  1.1540  0.6848  2.8320
59362SOL     OW84048   7.718   5.323   2.249  0.3717  0.5542  0.7071
59362SOL    HW184049   7.672   5.327   2.164  0.0369  0.3330  0.8743
59362SOL    HW284050   7.808   5.299   2.227 -0.0785 -1.0519  0.5269
59363SOL     OW84051   9.718   8.852   0.210 -0.0146 -0.5725  0.4097
59363SOL    HW184052   9.649   8.787   0.199 -0.5145 -0.4105  2.2906
59363SOL    HW284053   9.787   8.807   0.260  1.2509 -0.6917 -1.3199
59364SOL     OW84054  11.313   7.398   4.793  0.5241 -0.0750  0.5376
59364SOL    HW184055  11.378   7.405   4.863  1.5994 -1.7661 -0.2311
59364SOL    HW284056  11.356   7.346   4.725 -1.0413  0.2049 -0.7424
59365SOL     OW84057   6.935   1.904   1.515 -0.0210 -0.0305  0.5653
59365SOL    HW184058   6.962   1.812   1.512 -1.4288 -0.4928  0.9490
59365SOL    HW284059   6.873   1.908   1.588 -0.8392  0.9701 -0.1479
59366SOL     OW84060   7.853   5.912   1.384 -0.0240 -0.4073 -0.3303
59366SOL    HW184061   7.938   5.883   1.416  0.8718 -0.9888 -2.9524
59366SOL    HW284062   7.866   5.922   1.289 -2.9932 -0.9410 -0.8842
59367SOL     OW84063  11.672  11.643  10.447  0.0577 -0.3323  0.1459
59367SOL    HW184064  11.682  11.554  10.482 -1.6914 -0.8725 -0.5587
59367SOL    HW284065  11.696  11.634  10.354  0.1580 -0.0103  0.1424
59368SOL     OW84066   3.680   5.291   2.628 -0.4047  0.4170 -0.0365
59368SOL    HW184067   3.741   5.223   2.599  0.7735  1.5429 -0.2970
59368SOL    HW284068   3.682   5.357   2.559 -0.9760  1.0582  0.5376
59369SOL     OW84069   7.645   9.849   3.033  0.0723  0.2044 -0.3939
59369SOL    HW184070   7.735   9.882   3.028 -0.6014  2.2840  0.4441
59369SOL    HW284071   7.594   9.923   3.064 -1.7617 -1.3053  0.3449
59370SOL     OW84072   5.801   2.540   4.481 -0.1328 -0.1676  0.3040
59370SOL    HW184073   5.859   2.557   4.556  0.3548  0.7646 -0.2603
59370SOL    HW284074   5.845   2.582   4.407 -2.1087  1.7039  0.0807
59371SOL     OW84075   9.191   2.567  10.106 -0.2079 -0.5020 -0.4317
59371SOL    HW184076   9.274   2.587  10.148  0.1071 -0.8020 -0.8998
59371SOL    HW284077   9.187   2.471  10.105 -0.7459 -0.4886 -0.0527
59372SOL     OW84078   5.805   3.621  10.068 -0.4524  0.2215 -0.4164
59372SOL    HW184079   5.783   3.650   9.979  0.7240  1.7967 -0.2304
59372SOL    HW284080   5.869   3.551  10.054  1.4296  1.9255 -0.8573
59373SOL     OW84081   1.968   3.034   2.486 -0.6722 -0.4151 -0.0705
59373SOL    HW184082   1.927   3.048   2.401 -0.0082  1.8672 -0.0993
59373SOL    HW284083   2.062   3.031   2.466 -0.2969  2.5312  0.6888
59374SOL     OW84084   0.274   5.835   4.122 -0.2805  0.0694  0.2888
59374SOL    HW184085   0.328   5.789   4.057  1.1116  1.5453  0.3267
59374SOL    HW284086   0.336   5.894   4.166 -1.2391 -0.6613  2.7624
59375SOL     OW84087   5.083   1.848   9.258 -0.4717 -0.0228 -0.8593
59375SOL    HW184088   5.124   1.782   9.202  2.4285  0.0059  1.0413
59375SOL    HW284089   4.992   1.819   9.265  0.0460 -2.2744 -2.2491
59376SOL     OW84090   2.351   6.734   7.811  0.5560  0.0537  0.0950
59376SOL    HW184091   2.315   6.659   7.763  1.2453 -0.4868  0.4180
59376SOL    HW284092   2.368   6.700   7.898  1.3760  0.4473  0.0890
59377SOL     OW84093   1.963   9.814   6.298 -0.4273 -0.2257 -0.1976
59377SOL    HW184094   1.970   9.904   6.329 -1.5364  0.5318 -1.9313
59377SOL    HW284095   2.003   9.816   6.211 -4.6359 -0.0794 -2.4368
59378SOL     OW84096  11.206   6.689   2.781  0.2180  0.5102 -0.0004
59378SOL    HW184097  11.126   6.654   2.742  0.5236 -0.9364  0.6149
59378SOL    HW284098  11.256   6.724   2.707  0.2396 -1.0834 -0.7813
59379SOL     OW84099  10.398  11.359   3.847  0.2286  0.0141  0.1786
59379SOL    HW184100  10.304  11.366   3.860  0.4443  2.5949  0.8691
59379SOL    HW284101  10.427  11.449   3.831  2.5291 -0.7623 -0.3969
59380SOL     OW84102   6.183   7.868   2.219 -0.6539 -0.4508 -0.3688
59380SOL    HW184103   6.122   7.924   2.171 -0.1489  1.2964  0.9508
59380SOL    HW284104   6.132   7.789   2.237 -2.2271  0.5565 -0.1659
59381SOL     OW84105   3.925   2.857  11.581  0.6528  0.8139  0.3558
59381SOL    HW184106   3.920   2.779  11.525  0.5622 -0.3871  1.9623
59381SOL    HW284107   4.006   2.900  11.555  0.6539  0.2424 -0.6327
59382SOL     OW84108   0.612   8.809   9.301 -0.1139  0.1793 -0.5075
59382SOL    HW184109   0.561   8.729   9.317  0.3675 -0.0193  0.0803
59382SOL    HW284110   0.702   8.778   9.291  0.2740  0.7548  0.9616
59383SOL     OW84111   6.100   0.846   8.369 -0.4759 -0.4541  0.0140
59383SOL    HW184112   6.173   0.833   8.307 -0.1010 -2.5876  0.7979
59383SOL    HW284113   6.140   0.890   8.444 -0.2331 -0.6355 -0.0063
59384SOL     OW84114   8.701   9.870   8.844 -0.0775  0.1454 -0.2163
59384SOL    HW184115   8.676   9.935   8.779  1.2762  1.4519  0.5073
59384SOL    HW284116   8.734   9.921   8.918 -2.3650 -1.2551  1.9244
59385SOL     OW84117   1.850   1.490   3.565 -0.3527 -0.6020  0.1597
59385SOL    HW184118   1.767   1.494   3.613  0.1169  0.9968  0.9148
59385SOL    HW284119   1.848   1.566   3.508  0.1931 -1.0970 -0.5345
59386SOL     OW84120  11.879   0.366   7.557 -0.5520 -0.2547 -0.3871
59386SOL    HW184121  11.849   0.389   7.645  1.3147  3.2698 -0.4714
59386SOL    HW284122  11.840   0.433   7.501  1.1506 -0.2480 -1.6363
59387SOL     OW84123  12.353   9.198   6.927 -0.1135 -0.2563 -0.5222
59387SOL    HW184124  12.319   9.109   6.919  1.1366 -0.6809 -1.4380
59387SOL    HW284125  12.340   9.238   6.841  0.9502 -0.1828 -0.6705
59388SOL     OW84126   3.067   9.296  10.896  0.2254 -0.2117 -0.1240
59388SOL    HW184127   3.143   9.341  10.858 -0.8266  1.1088 -0.7718
59388SOL    HW284128   2.994   9.357  10.881 -0.5538 -0.3388  2.5862
59389SOL     OW84129   2.108  12.102   2.225  0.3433 -0.0426 -0.0512
59389SOL    HW184130   2.094  12.195   2.206  2.3117  0.1454 -0.8305
59389SOL    HW284131   2.036  12.057   2.181 -1.1288  1.1342  1.0566
59390SOL     OW84132   5.271  10.172   4.501  0.0766  0.2102 -0.3337
59390SOL    HW184133   5.241  10.256   4.466  1.3812  0.3182 -1.2761
59390SOL    HW284134   5.222  10.106   4.451  0.4049  0.3996 -0.9154
59391SOL     OW84135  11.231  10.575   9.557 -0.5522  0.8483 -0.0598
59391SOL    HW184136  11.238  10.645   9.492  0.0104  2.0211  1.2156
59391SOL    HW284137  11.253  10.618   9.640 -1.3904 -0.5730  0.9249
59392SOL     OW84138   1.488   1.027   9.438  0.7194  0.0897 -0.1167
59392SOL    HW184139   1.549   1.101   9.430  0.9983 -0.3096 -2.0523
59392SOL    HW284140   1.493   0.982   9.354  1.2086 -2.6827  1.2824
59393SOL     OW84141  11.014   3.422  11.022  0.4743  0.1321 -0.0826
59393SOL    HW184142  11.095   3.412  10.972 -0.0590  0.6379 -1.0732
59393SOL    HW284143  11.027   3.502  11.072  0.0511  1.0207 -1.3411
59394SOL     OW84144   5.298   9.296  12.208  0.5270 -0.1131 -0.0087
59394SOL    HW184145   5.313   9.375  12.259  1.1414  0.0276 -0.3920
59394SOL    HW284146   5.385   9.257  12.199  0.2095 -0.8900  0.2696
59395SOL     OW84147   8.569  10.384   4.166  0.2305 -0.3196 -0.0071
59395SOL    HW184148   8.549  10.326   4.093  0.1403  0.5815 -0.7200
59395SOL    HW284149   8.605  10.327   4.234 -2.7424 -1.7366  0.5407
59396SOL     OW84150   0.684  11.204   3.349 -0.8467  0.3480  0.2138
59396SOL    HW184151   0.619  11.258   3.304 -0.1403  0.9893 -0.0636
59396SOL    HW284152   0.744  11.176   3.279 -0.9118 -0.3681  0.4373
59397SOL     OW84153   5.211   0.933   1.367 -0.3919 -1.1236 -0.4030
59397SOL    HW184154   5.173   1.015   1.336  1.2257  0.0152  0.4910
59397SOL    HW284155   5.171   0.919   1.453 -1.9464 -2.2135 -1.2676
59398SOL     OW84156   1.368   6.153   4.922  0.5823 -0.6369  0.9017
59398SOL    HW184157   1.348   6.242   4.950  0.4270 -0.1367 -0.7144
59398SOL    HW284158   1.464   6.148   4.923  0.7306  0.4005 -1.3240
59399SOL     OW84159  11.071   6.158   6.829  0.5193 -0.1419 -0.3186
59399SOL    HW184160  11.013   6.095   6.873 -0.5111  0.6429 -0.5253
59399SOL    HW284161  11.012   6.221   6.789  1.5515  1.2100  0.2342
59400SOL     OW84162   2.323   1.377   3.435 -0.0153 -0.7497  0.2731
59400SOL    HW184163   2.336   1.441   3.365 -0.1064 -1.0131  0.0143
59400SOL    HW284164   2.306   1.430   3.513 -1.8630 -0.4643 -0.2743
59401SOL     OW84165   7.571   7.281   9.430 -0.5866 -0.4932 -0.2068
59401SOL    HW184166   7.600   7.366   9.463  1.4820 -1.3545  0.3367
59401SOL    HW284167   7.540   7.299   9.341  0.9706  0.6489 -0.5572
59402SOL     OW84168   6.684   4.665   1.371  0.2043  0.3715  0.3932
59402SOL    HW184169   6.640   4.685   1.454 -0.3328 -0.4812  0.3271
59402SOL    HW284170   6.752   4.602   1.394  0.4196  0.5582  0.2710
59403SOL     OW84171   1.949   2.560   2.005  0.5577 -0.1328 -0.1338
59403SOL    HW184172   1.931   2.654   2.003 -1.3482 -0.4716 -2.2466
59403SOL    HW284173   1.900   2.528   2.081 -0.3918  0.2962 -0.5613
59404SOL     OW84174   8.511   6.161   7.380  0.1916  0.6521  0.1017
59404SOL    HW184175   8.471   6.247   7.367  1.5558  1.4114  0.7407
59404SOL    HW284176   8.499   6.142   7.473 -1.4608 -0.5814 -0.3237
59405SOL     OW84177   5.242  12.111   0.903 -0.1375 -0.5230  0.3961
59405SOL    HW184178   5.311  12.060   0.947  0.0710  0.2561  0.9957
59405SOL    HW284179   5.167  12.106   0.962  0.0217  0.2092  0.6760
59406SOL     OW84180   7.767   1.395   7.840  0.3845  0.2811 -0.1430
59406SOL    HW184181   7.724   1.399   7.755  2.9533  1.0056 -1.5090
59406SOL    HW284182   7.728   1.467   7.890 -0.6709  0.2752 -0.9267
59407SOL     OW84183   8.995   2.092   2.725 -0.0067 -0.4198  0.0514
59407SOL    HW184184   8.938   2.038   2.779 -0.1395  1.0167  1.4157
59407SOL    HW284185   8.937   2.135   2.663  0.0138 -1.2890 -0.5870
59408SOL     OW84186   6.632   8.340   3.006  0.1679 -0.0571 -0.3306
59408SOL    HW184187   6.628   8.298   2.920  2.3464 -0.4598 -0.2958
59408SOL    HW284188   6.687   8.418   2.992  0.8606 -0.3219  0.7464
59409SOL     OW84189   4.855  10.659   5.464  0.6555 -0.1132 -0.5510
59409SOL    HW184190   4.794  10.715   5.512 -0.1360  0.7852 -2.4729
59409SOL    HW284191   4.865  10.703   5.379  0.6443 -2.4470 -1.8377
59410SOL     OW84192   6.257   0.009   8.764 -0.0877 -0.3943 -0.2809
59410SOL    HW184193   6.220  -0.011   8.678 -0.0244  0.8635 -0.6200
59410SOL    HW284194   6.181   0.010   8.822 -0.4753  1.0814 -0.7723
59411SOL     OW84195   3.839  11.118   7.353  0.0662 -0.0531 -0.3604
59411SOL    HW184196   3.844  11.122   7.257 -1.1756 -0.5602 -0.4737
59411SOL    HW284197   3.918  11.162   7.383  0.7504 -0.3612 -1.6220
59412SOL     OW84198   5.662   8.213   8.494 -0.2775  0.2590 -0.0465
59412SOL    HW184199   5.749   8.251   8.481 -0.1987  0.0780 -0.0539
59412SOL    HW284200   5.661   8.136   8.439 -0.9153  0.9734 -1.0711
59413SOL     OW84201   0.391   0.619  11.393  0.1124 -0.1293  0.0071
59413SOL    HW184202   0.407   0.696  11.447  0.7341  0.6835 -1.2830
59413SOL    HW284203   0.463   0.618  11.330 -0.4863 -1.1469 -0.7005
59414SOL     OW84204   0.576  10.153  11.127  0.1952 -0.7910  0.3986
59414SOL    HW184205   0.650  10.131  11.183 -0.6864  0.1821  2.0476
59414SOL    HW284206   0.521  10.210  11.182 -1.3959 -0.8828 -1.0158
59415SOL     OW84207   8.644   1.688   0.209  0.0037 -0.1974  0.0203
59415SOL    HW184208   8.727   1.733   0.197 -0.7880  1.1555 -0.5406
59415SOL    HW284209   8.646   1.658   0.300  1.8027 -1.7186 -0.4481
59416SOL     OW84210  10.604   6.177   5.597 -0.3261  0.7421  0.0343
59416SOL    HW184211  10.526   6.223   5.564 -0.4316  0.8944  0.4858
59416SOL    HW284212  10.614   6.210   5.686 -0.0368  0.3444  0.1475
59417SOL     OW84213   1.488   0.978   5.985 -0.2956  0.0630 -0.6887
59417SOL    HW184214   1.529   0.897   6.017  1.3330  0.1461 -2.4081
59417SOL    HW284215   1.409   0.986   6.037  1.3048 -0.6940  2.0983
59418SOL     OW84216   6.149   5.531   8.551 -0.1837 -0.6410  0.0792
59418SOL    HW184217   6.169   5.478   8.628 -0.4312 -1.3221 -0.3153
59418SOL    HW284218   6.234   5.552   8.513 -0.0470 -0.1168  0.6458
59419SOL     OW84219   2.117   6.576   9.209 -0.2688  0.1721  0.2867
59419SOL    HW184220   2.036   6.571   9.261 -0.7929 -1.2949 -0.6212
59419SOL    HW284221   2.144   6.485   9.198  1.6667  0.6344  0.7544
59420SOL     OW84222  10.583   6.104   8.277  0.4166 -0.0690 -0.1795
59420SOL    HW184223  10.515   6.122   8.212  0.7065  0.5138 -0.3309
59420SOL    HW284224  10.539   6.052   8.344 -0.3221  0.7508 -0.0069
59421SOL     OW84225   7.635   9.605   1.668  0.1638  0.1261  0.3473
59421SOL    HW184226   7.664   9.688   1.629  0.9643 -0.3657 -0.1447
59421SOL    HW284227   7.597   9.557   1.594 -0.8898  0.3051  0.7622
59422SOL     OW84228   4.350   9.692   3.345 -0.1382 -0.1976 -0.2561
59422SOL    HW184229   4.389   9.742   3.273  1.8412  1.2672  1.6842
59422SOL    HW284230   4.263   9.729   3.356  0.0858  0.5611 -0.9834
59423SOL     OW84231   2.177   9.046   7.000  0.1134  0.3094 -0.4636
59423SOL    HW184232   2.140   9.133   6.989  0.7316  0.5805 -0.4497
59423SOL    HW284233   2.272   9.060   7.002  0.1973 -0.2482  0.4964
59424SOL     OW84234   0.249  10.683   6.677 -0.2876 -0.1158 -0.1917
59424SOL    HW184235   0.214  10.676   6.588 -0.7047  0.4376 -0.0757
59424SOL    HW284236   0.305  10.606   6.686  1.3118  0.8108 -1.6116
59425SOL     OW84237   4.251   5.250   6.725 -0.0534  0.3655 -0.2218
59425SOL    HW184238   4.268   5.308   6.799  1.1806 -0.9529  0.5719
59425SOL    HW284239   4.202   5.304   6.664  0.7090  2.1280  0.6440
59426SOL     OW84240   9.091   3.753   4.896  0.2730  0.1147 -0.2142
59426SOL    HW184241   9.005   3.729   4.861 -0.5833  2.4057  0.1754
59426SOL    HW284242   9.149   3.756   4.820 -0.6397  1.1860 -0.8779
59427SOL     OW84243   9.086   8.256   9.980 -0.0333  0.0083 -0.2905
59427SOL    HW184244   9.002   8.218  10.005 -0.2591  0.7212  0.0642
59427SOL    HW284245   9.101   8.224   9.891 -0.4321 -0.5349 -0.1697
59428SOL     OW84246   8.432   5.973   2.487 -0.3140 -0.1542 -0.6387
59428SOL    HW184247   8.461   6.040   2.425 -1.1293 -1.2761 -2.3108
59428SOL    HW284248   8.338   5.966   2.473 -0.2913 -1.4397 -0.3060
59429SOL     OW84249   9.999   3.598  10.712  0.1783 -0.7220  0.2092
59429SOL    HW184250   9.952   3.681  10.725  0.9497 -0.0316 -1.1459
59429SOL    HW284251   9.974   3.570  10.625  1.1604 -1.0746  0.0263
59430SOL     OW84252   4.498   8.749  11.655 -0.0894 -0.5922 -0.2165
59430SOL    HW184253   4.551   8.797  11.591  0.0116  0.2664  0.4951
59430SOL    HW284254   4.470   8.816  11.718 -0.7802 -1.2986  0.2443
59431SOL     OW84255   3.677   3.591   8.925 -0.0983  0.6186 -0.2455
59431SOL    HW184256   3.636   3.617   8.842 -1.5362  0.7622  0.4714
59431SOL    HW284257   3.760   3.551   8.899 -1.2097 -0.7933 -1.8990
59432SOL     OW84258   0.278   5.152   3.726 -0.0739 -0.1303  0.0307
59432SOL    HW184259   0.322   5.068   3.714 -1.0250 -0.8122  1.0968
59432SOL    HW284260   0.348   5.215   3.741  0.7356 -0.4639 -2.0234
59433SOL     OW84261   1.875   1.419   5.499  0.1586  1.1318 -0.2364
59433SOL    HW184262   1.910   1.408   5.587  0.0044  0.1798 -0.2819
59433SOL    HW284263   1.901   1.507   5.474 -0.9034  1.9164  1.2557
59434SOL     OW84264   1.322   2.200  10.282  0.3212  0.3675  0.0438
59434SOL    HW184265   1.356   2.133  10.341  1.2931  1.8810  1.2907
59434SOL    HW284266   1.389   2.210  10.214  0.2857  0.2234 -0.0105
59435SOL     OW84267  12.119   2.339  12.200 -0.2696  0.2786  0.1079
59435SOL    HW184268  12.163   2.404  12.255  0.8510 -0.1312 -0.2792
59435SOL    HW284269  12.162   2.257  12.221 -0.7065 -0.1017 -0.4521
59436SOL     OW84270   6.727   0.917   3.963  0.2460  0.0342  0.2106
59436SOL    HW184271   6.731   0.874   4.048  0.5261 -2.0923 -0.8047
59436SOL    HW284272   6.655   0.979   3.970 -0.7829 -1.2407  1.5199
59437SOL     OW84273   1.164   6.174  10.415  0.4225  0.2869  0.3624
59437SOL    HW184274   1.094   6.150  10.354  1.0835 -0.5123 -0.0896
59437SOL    HW284275   1.245   6.151  10.370  0.9148 -1.3853  1.9532
59438SOL     OW84276  12.103   8.031   0.018  0.9795  0.1046 -0.2840
59438SOL    HW184277  12.031   8.072  -0.029  1.0112  0.8120  0.2642
59438SOL    HW284278  12.180   8.049  -0.035  0.6509 -1.4214 -1.3375
59439SOL     OW84279   6.170   3.039   1.690 -0.3422  0.0542 -0.0714
59439SOL    HW184280   6.215   2.983   1.752  0.3197  0.6904  0.0416
59439SOL    HW284281   6.087   2.994   1.671 -0.6209 -0.0796  1.3740
59440SOL     OW84282  11.944   5.352  11.780  0.0322  0.5346  0.4780
59440SOL    HW184283  11.889   5.274  11.791  0.3772  0.2105 -0.0487
59440SOL    HW284284  11.976   5.371  11.868 -0.4925  0.4087  0.7007
59441SOL     OW84285   3.476   5.740   2.536  0.1584 -0.2550  0.6397
59441SOL    HW184286   3.392   5.719   2.495  0.2953 -0.1508  0.3034
59441SOL    HW284287   3.463   5.827   2.573  0.4405  0.2096 -0.3194
59442SOL     OW84288   5.933   2.814  11.819 -0.6352  0.3387 -0.6989
59442SOL    HW184289   5.995   2.765  11.873 -2.2738  0.3315  1.3131
59442SOL    HW284290   5.928   2.766  11.737 -0.0017 -1.1806  0.1212
59443SOL     OW84291   2.328  10.277  10.316  0.6336 -0.4099 -0.6551
59443SOL    HW184292   2.319  10.367  10.347 -0.4746 -1.1274  1.2529
59443SOL    HW284293   2.422  10.266  10.299  1.2801  0.2044  2.1080
59444SOL     OW84294  11.619  11.714   5.965  0.1376  0.4560  0.5769
59444SOL    HW184295  11.608  11.621   5.948 -1.4109  1.1841 -3.4450
59444SOL    HW284296  11.696  11.739   5.915  0.1652  1.4686  1.1020
59445SOL     OW84297   6.658   6.191  12.126 -0.4237 -0.1802  0.2259
59445SOL    HW184298   6.733   6.145  12.164  2.2254  2.3657 -1.5368
59445SOL    HW284299   6.650   6.271  12.178  0.9935  1.6309 -2.1363
59446SOL     OW84300   4.591  10.140  11.158  0.6239 -0.0593 -0.2568
59446SOL    HW184301   4.655  10.082  11.117  0.1494 -0.7817 -0.0064
59446SOL    HW284302   4.523  10.150  11.092  1.1530  0.9965 -0.6560
59447SOL     OW84303   0.256   3.294   2.879  0.0436  0.6319  0.7017
59447SOL    HW184304   0.244   3.262   2.968 -2.1802  0.0226  0.2403
59447SOL    HW284305   0.286   3.218   2.829  0.0180  0.6446  0.6665
59448SOL     OW84306   0.992   9.225   2.148  0.8699 -0.2073 -0.5916
59448SOL    HW184307   0.981   9.132   2.166 -1.1475 -0.0740 -0.9645
59448SOL    HW284308   1.086   9.235   2.129  1.3089 -1.9521  0.4683
59449SOL     OW84309   8.682   9.158   2.328 -0.8518  0.9954  0.3706
59449SOL    HW184310   8.730   9.162   2.411 -0.0686  2.6474 -0.1350
59449SOL    HW284311   8.709   9.236   2.280  1.6184 -1.6327 -3.0272
59450SOL     OW84312   8.490  11.413   3.704  0.0000  0.4129  1.3498
59450SOL    HW184313   8.559  11.475   3.681  1.8326 -1.5714  1.1696
59450SOL    HW284314   8.537  11.338   3.742 -1.7535 -2.0529 -0.9448
59451SOL     OW84315  12.437   9.206   5.543 -0.0840  0.1062 -0.3782
59451SOL    HW184316  12.453   9.220   5.637 -1.8708  1.4773 -0.2330
59451SOL    HW284317  12.513   9.245   5.500  0.4472  0.0361  0.4548
59452SOL     OW84318   7.102   8.844   0.169 -0.1706  0.1744 -0.6253
59452SOL    HW184319   7.146   8.878   0.247 -0.3059  1.4183 -1.0671
59452SOL    HW284320   7.047   8.773   0.201 -0.1182  0.5757  0.3818
59453SOL     OW84321   1.849   5.365   0.265  0.3236  0.3956  0.0742
59453SOL    HW184322   1.915   5.296   0.262  1.5934  1.3842  2.6857
59453SOL    HW284323   1.863   5.415   0.184  2.4810  0.3012  0.3389
59454SOL     OW84324   5.415  10.279   4.219 -0.1345 -0.1853 -0.0781
59454SOL    HW184325   5.473  10.354   4.227 -0.4026  0.1131 -0.8539
59454SOL    HW284326   5.444  10.235   4.139 -2.7486  1.5694 -2.1430
59455SOL     OW84327   3.842   6.319   6.524  0.2747  0.4945  0.0091
59455SOL    HW184328   3.914   6.263   6.554 -0.2110  0.4871  1.2469
59455SOL    HW284329   3.776   6.312   6.593 -1.0899  0.2087 -1.2795
59456SOL     OW84330   9.963  10.316   5.438  0.4023  0.3758 -0.5422
59456SOL    HW184331  10.051  10.345   5.414  0.0147  1.0896 -1.1590
59456SOL    HW284332   9.935  10.260   5.366  0.4173  0.0063 -0.2637
59457SOL     OW84333   1.884   0.277   5.348  0.1338 -0.1971  0.5502
59457SOL    HW184334   1.905   0.251   5.258  0.6296  0.0021  0.6050
59457SOL    HW284335   1.812   0.339   5.339  1.2717  1.1159  0.1558
59458SOL     OW84336   3.202   3.175   7.860 -0.3363 -0.3453  0.2883
59458SOL    HW184337   3.284   3.136   7.831 -0.2435  0.3065 -0.3722
59458SOL    HW284338   3.186   3.246   7.797 -1.5014 -0.5831  0.2864
59459SOL     OW84339   1.259   1.825   9.322  0.3374  0.0344 -0.0428
59459SOL    HW184340   1.218   1.740   9.305  0.9977 -0.3514  0.2559
59459SOL    HW284341   1.186   1.881   9.349  0.1651 -1.0359  1.9610
59460SOL     OW84342   3.101   0.566   9.103 -0.3109  0.4653  0.2593
59460SOL    HW184343   3.045   0.615   9.163 -0.4047  1.8304 -0.8943
59460SOL    HW284344   3.175   0.623   9.087 -0.6966  0.5231 -1.5739
59461SOL     OW84345   4.568   4.718   6.180  0.5802 -0.1521 -0.1139
59461SOL    HW184346   4.524   4.745   6.260 -1.4681 -1.5442 -0.6731
59461SOL    HW284347   4.531   4.774   6.112  1.9268  0.6740 -0.2047
59462SOL     OW84348   8.055   9.897   1.180  0.1543 -0.2468  0.7925
59462SOL    HW184349   7.998   9.858   1.246 -4.2395  2.8831 -0.7225
59462SOL    HW284350   8.095   9.972   1.225 -0.8615  0.4258  0.5891
59463SOL     OW84351  10.005   2.520   4.722 -0.7903 -0.4458  0.2860
59463SOL    HW184352   9.929   2.562   4.764 -1.1426 -0.4480 -0.3328
59463SOL    HW284353  10.059   2.491   4.795 -0.2547  1.5618  0.7696
59464SOL     OW84354  11.656   0.459   7.748 -0.3058 -0.2165 -0.3717
59464SOL    HW184355  11.584   0.496   7.698 -0.0077 -0.3889 -0.9425
59464SOL    HW284356  11.629   0.369   7.766 -0.8105  0.1120  0.5785
59465SOL     OW84357  10.451   2.802   7.871 -0.0933 -0.2691  0.1251
59465SOL    HW184358  10.361   2.827   7.890 -0.4032 -0.3682 -1.1306
59465SOL    HW284359  10.502   2.844   7.941 -0.7449  2.6476 -0.9808
59466SOL     OW84360  10.825  12.259   5.570  0.1995  0.4716 -0.3940
59466SOL    HW184361  10.781  12.235   5.651  0.1310 -0.7221 -0.7730
59466SOL    HW284362  10.841  12.353   5.579 -0.9783  0.6170  0.4323
59467SOL     OW84363  10.152   2.799   7.840 -0.6244 -0.4505 -0.2288
59467SOL    HW184364  10.139   2.740   7.914  0.1922 -1.2113 -0.6845
59467SOL    HW284365  10.128   2.886   7.874 -3.2993 -1.1938  0.0372
59468SOL     OW84366   4.637   4.758  11.244 -0.1759  0.4065 -0.6150
59468SOL    HW184367   4.555   4.806  11.255 -0.2556 -0.0605  1.0361
59468SOL    HW284368   4.684   4.772  11.326  0.2395 -1.4797 -0.4917
59469SOL     OW84369   6.890   1.780   2.768  0.2378 -0.2650  0.5191
59469SOL    HW184370   6.910   1.854   2.711  1.1892 -0.4032  0.6572
59469SOL    HW284371   6.931   1.705   2.725 -1.4033 -0.8701 -0.0402
59470SOL     OW84372  11.457   8.719   7.972  0.3927 -0.2697 -0.6455
59470SOL    HW184373  11.475   8.670   8.053 -1.7617 -1.3068 -0.7291
59470SOL    HW284374  11.474   8.656   7.902 -0.4444 -0.2724 -0.8530
59471SOL     OW84375   1.435   5.222   8.756 -0.2466 -0.4552  0.4038
59471SOL    HW184376   1.398   5.215   8.668 -1.1963  0.5801  0.6866
59471SOL    HW284377   1.440   5.132   8.788 -0.9591 -0.7527 -0.2942
59472SOL     OW84378  10.746  12.047  12.256 -0.4790  1.2234  0.2708
59472SOL    HW184379  10.688  12.042  12.180  0.1584 -2.6192 -0.1908
59472SOL    HW284380  10.692  12.014  12.329  0.5064 -0.7132  0.1897
59473SOL     OW84381   7.349   5.592   5.169 -0.2416  0.1407 -0.4128
59473SOL    HW184382   7.273   5.650   5.164  0.5196  1.0351 -2.5744
59473SOL    HW284383   7.424   5.651   5.170  0.4901 -0.7540  1.0667
59474SOL     OW84384  10.512   3.492   6.893 -0.1993  0.0423  0.3493
59474SOL    HW184385  10.552   3.516   6.977 -2.3898  0.3039  1.3885
59474SOL    HW284386  10.505   3.397   6.897 -0.0632  0.0315  0.3431
59475SOL     OW84387   5.569   0.918   3.056 -0.1898  0.3586 -0.4668
59475SOL    HW184388   5.513   0.841   3.060 -0.0883  0.3313  0.7592
59475SOL    HW284389   5.656   0.883   3.036 -0.5707  0.4069 -2.4301
59476SOL     OW84390   5.751   3.122   9.061 -0.1456  0.1133  0.2826
59476SOL    HW184391   5.798   3.172   9.128  0.7893 -1.1901  0.6500
59476SOL    HW284392   5.686   3.071   9.109 -0.7208  0.5491 -0.0214
59477SOL     OW84393   9.148   7.762   3.046  0.2351 -0.1648  0.3334
59477SOL    HW184394   9.128   7.701   2.974  0.1676 -0.9693  1.0121
59477SOL    HW284395   9.063   7.795   3.074  0.1999 -0.4103  0.5175
59478SOL     OW84396   9.564   1.710   7.637 -0.6904 -0.1486  0.3484
59478SOL    HW184397   9.587   1.748   7.722  0.9445  0.6306 -0.3886
59478SOL    HW284398   9.530   1.784   7.586  0.1353 -0.1796 -0.2730
59479SOL     OW84399   1.866   5.023   4.274  0.0722 -0.3043  0.0633
59479SOL    HW184400   1.819   5.081   4.214 -1.8546 -0.5290  1.2739
59479SOL    HW284401   1.882   4.943   4.223  2.4817  1.0375 -1.5266
59480SOL     OW84402   8.658   1.721   0.484  0.2330  0.4024  0.6195
59480SOL    HW184403   8.657   1.655   0.553 -1.1199  0.4792  0.6945
59480SOL    HW284404   8.687   1.801   0.527 -0.0415  0.3176  0.9632
59481SOL     OW84405   8.187  12.356   0.814 -0.3185  0.1372  0.7039
59481SOL    HW184406   8.131  12.378   0.740  1.1704 -0.6198 -0.7181
59481SOL    HW284407   8.239  12.435   0.829 -0.3988  0.1867  0.7211
59482SOL     OW84408  10.600  12.091   1.482  0.0985 -0.1079 -0.0504
59482SOL    HW184409  10.681  12.105   1.531  1.1891  0.8125 -2.0041
59482SOL    HW284410  10.551  12.172   1.493 -0.6338 -0.7067  1.2233
59483SOL     OW84411   5.598   0.570   2.723 -0.0043 -0.1551 -0.5188
59483SOL    HW184412   5.670   0.546   2.780  0.3518 -2.0744 -1.6779
59483SOL    HW284413   5.595   0.665   2.726  1.9960 -0.0789  0.2606
59484SOL     OW84414   3.455   4.784   5.527 -0.4801 -0.1216  0.0141
59484SOL    HW184415   3.407   4.726   5.587  2.4093 -0.2491  2.3771
59484SOL    HW284416   3.471   4.729   5.450  0.1534 -1.7597  1.2443
59485SOL     OW84417  11.820   0.595   8.214  0.3404 -0.1230  0.2561
59485SOL    HW184418  11.785   0.624   8.298  3.0573  0.0834  1.4154
59485SOL    HW284419  11.898   0.545   8.236 -0.2788 -2.3544 -2.0710
59486SOL     OW84420   5.485   3.158   6.520 -0.1329  0.6665  0.0846
59486SOL    HW184421   5.535   3.139   6.441  2.6125  2.6330  1.1681
59486SOL    HW284422   5.516   3.095   6.584 -0.0023  1.0453  0.4020
59487SOL     OW84423  11.384   5.914   1.314 -0.1078  0.0627  0.0112
59487SOL    HW184424  11.457   5.962   1.353  0.2890  0.1273 -0.7910
59487SOL    HW284425  11.413   5.894   1.225 -1.5983  1.2666 -0.7773
59488SOL     OW84426   3.352   4.614  11.432  0.7719  0.3844  0.4297
59488SOL    HW184427   3.359   4.519  11.447 -0.0312  0.1457 -0.6037
59488SOL    HW284428   3.435   4.649  11.465  0.7353 -0.5593  1.6357
59489SOL     OW84429   3.377   8.837   2.697  0.3077 -0.0627 -0.1448
59489SOL    HW184430   3.371   8.780   2.774 -0.2689 -1.4069 -1.1485
59489SOL    HW284431   3.393   8.924   2.734  1.2917 -0.8490  1.4377
59490SOL     OW84432   2.622   3.990   2.460 -0.1598  0.4330  0.1254
59490SOL    HW184433   2.654   3.909   2.500 -1.3789  1.1455  2.6774
59490SOL    HW284434   2.657   4.059   2.515  0.7127  1.7117 -1.9179
59491SOL     OW84435  10.471   4.752   2.052 -0.4425 -0.4748 -0.1095
59491SOL    HW184436  10.514   4.705   1.981 -1.5313 -0.2976 -0.9233
59491SOL    HW284437  10.378   4.734   2.039 -0.6935 -0.0413  0.9917
59492SOL     OW84438   9.716   8.798   6.087  0.2905 -0.6128  0.5223
59492SOL    HW184439   9.751   8.762   6.005  2.5155  0.4689  0.8975
59492SOL    HW284440   9.622   8.805   6.072  0.8297  1.7598 -2.9092
59493SOL     OW84441  10.695   4.597   8.524  0.4081 -0.2615  0.1023
59493SOL    HW184442  10.740   4.668   8.570  1.2118  0.8400 -2.2608
59493SOL    HW284443  10.763   4.552   8.475 -0.6243 -0.4409 -1.2170
59494SOL     OW84444   9.543   0.154   2.230 -0.5825 -0.0450 -0.5513
59494SOL    HW184445   9.544   0.069   2.188 -2.5540 -0.6472  0.4950
59494SOL    HW284446   9.474   0.148   2.296  1.3142  1.3192  1.7523
59495SOL     OW84447  11.818   8.934   7.407 -0.1169 -0.4203 -0.3489
59495SOL    HW184448  11.889   8.961   7.465  0.1653 -1.9505  0.0781
59495SOL    HW284449  11.849   8.852   7.369 -0.7515  0.0187 -1.8649
59496SOL     OW84450   1.035   7.471   2.237 -0.2952 -0.5467  0.1028
59496SOL    HW184451   1.122   7.511   2.232 -0.0814 -1.0925 -3.0017
59496SOL    HW284452   1.045   7.397   2.296  0.7280  0.7269  1.5799
59497SOL     OW84453   7.578   4.627   1.535  0.3482 -0.3623 -0.3928
59497SOL    HW184454   7.581   4.572   1.457  0.5933 -0.5582 -0.2476
59497SOL    HW284455   7.488   4.620   1.566  0.0356  0.3866 -1.1329
59498SOL     OW84456   3.443  11.710   4.074 -0.3892 -0.2968  0.4902
59498SOL    HW184457   3.527  11.725   4.031 -0.0101 -2.6436  0.2568
59498SOL    HW284458   3.465  11.687   4.164 -0.7522 -0.8794  0.4424
59499SOL     OW84459   2.825   9.969   0.196  0.2282  0.5206  0.7714
59499SOL    HW184460   2.812   9.982   0.290  0.5713 -1.3412  1.1169
59499SOL    HW284461   2.845   9.875   0.187 -0.8335  0.4295 -1.2739
59500SOL     OW84462   0.556   1.386   0.948  0.1171  0.2349  0.3331
59500SOL    HW184463   0.509   1.303   0.960 -1.2271  1.0355  0.8297
59500SOL    HW284464   0.533   1.438   1.025  1.3662  0.8929  0.2912
59501SOL     OW84465   8.028   4.750   1.395 -0.1556 -0.1664  0.7576
59501SOL    HW184466   8.014   4.666   1.440 -0.7240 -1.2959 -1.4109
59501SOL    HW284467   7.939   4.782   1.378  0.0599  0.8418  1.4167
59502SOL     OW84468  12.085  10.307   1.896  0.8363 -0.1027  0.1357
59502SOL    HW184469  12.067  10.312   1.990 -0.4802  0.3937 -0.1206
59502SOL    HW284470  11.998  10.305   1.855  1.3109  2.4042 -1.2042
59503SOL     OW84471   9.815   8.678   2.915  0.0665 -0.0549 -0.2639
59503SOL    HW184472   9.720   8.693   2.919  0.1900  1.8069 -2.2861
59503SOL    HW284473   9.850   8.735   2.983 -0.2238 -0.1839 -0.0024
59504SOL     OW84474  11.398  12.354  10.918 -0.8509  0.0927 -0.2997
59504SOL    HW184475  11.402  12.261  10.940 -0.7503  0.4813  1.4832
59504SOL    HW284476  11.398  12.356  10.822  0.5115 -1.6711 -0.3872
59505SOL     OW84477  10.577   4.290  12.340  0.0492  0.0541  0.1882
59505SOL    HW184478  10.511   4.350  12.375 -0.2378 -0.3833  0.4056
59505SOL    HW284479  10.639   4.347  12.294 -0.2651  0.5079  0.3160
59506SOL     OW84480   9.221   4.662   7.163 -0.2920 -0.2555 -0.4309
59506SOL    HW184481   9.154   4.622   7.107 -0.6196  0.6435 -0.6979
59506SOL    HW284482   9.208   4.756   7.153  1.2358 -0.0440 -0.7735
59507SOL     OW84483   5.615   2.166   4.670 -0.6085  0.2853 -0.3702
59507SOL    HW184484   5.697   2.212   4.688  0.7460 -2.2237  0.1731
59507SOL    HW284485   5.584   2.136   4.755 -0.8083 -0.8690 -0.8397
59508SOL     OW84486   4.861   1.171   1.689 -0.2324  0.0323  0.4684
59508SOL    HW184487   4.851   1.134   1.776  1.0489 -1.5950 -0.0201
59508SOL    HW284488   4.841   1.264   1.700 -1.6058 -0.4087  2.1587
59509SOL     OW84489   4.906   4.513   5.030 -0.2587 -0.2722 -0.0382
59509SOL    HW184490   4.878   4.435   4.981  1.5435 -1.6565  1.0090
59509SOL    HW284491   5.000   4.520   5.012 -0.1860  1.0754  0.7107
59510SOL     OW84492  12.129   1.150   5.159  0.2092 -0.6896  0.4975
59510SOL    HW184493  12.077   1.107   5.091 -0.9297  0.2827  0.7219
59510SOL    HW284494  12.071   1.156   5.234  1.0042 -0.5330  1.1113
59511SOL     OW84495  11.884  11.932   1.539  0.0051  0.3710  0.1111
59511SOL    HW184496  11.878  11.998   1.608  1.4100  0.0765  0.5617
59511SOL    HW284497  11.874  11.981   1.457  0.3397  1.0489  0.4670
59512SOL     OW84498   1.444   2.409  11.607  0.1438  0.3906 -0.0262
59512SOL    HW184499   1.473   2.499  11.617  2.6357 -0.4327  1.2138
59512SOL    HW284500   1.355   2.415  11.573 -0.9426  3.3633  2.7748
59513SOL     OW84501   5.207   1.948   0.339 -0.5474  0.1144 -0.4972
59513SOL    HW184502   5.234   2.005   0.411 -0.3625  0.6958 -1.0174
59513SOL    HW284503   5.119   1.920   0.362 -1.3309  2.0043 -1.0614
59514SOL     OW84504   1.316   2.002  10.014 -0.0203  0.4166  0.5346
59514SOL    HW184505   1.397   2.045  10.041 -0.1985  0.8423  0.3994
59514SOL    HW284506   1.326   1.989   9.920  0.1264 -0.0505  0.6090
59515SOL     OW84507   2.178   0.187  11.369 -0.1248  0.0307  0.3711
59515SOL    HW184508   2.164   0.218  11.458  1.8804  0.0180  0.7431
59515SOL    HW284509   2.093   0.197  11.326 -0.9815  0.5812  2.1047
59516SOL     OW84510  11.499   5.704   3.134  0.0751  0.1865  0.3867
59516SOL    HW184511  11.530   5.665   3.216 -1.6407  0.7589  1.3657
59516SOL    HW284512  11.546   5.788   3.130 -0.0121  0.2685  0.9228
59517SOL     OW84513   1.851   1.471   5.137 -0.2566 -0.2323  0.3570
59517SOL    HW184514   1.772   1.448   5.087  0.1122 -1.8079  0.4503
59517SOL    HW284515   1.873   1.559   5.108 -1.0953 -0.4246 -0.9307
59518SOL     OW84516   9.066   1.166   9.562 -0.0877  0.4095  0.3434
59518SOL    HW184517   9.026   1.188   9.477  3.2534 -2.0269 -2.1336
59518SOL    HW284518   9.157   1.192   9.553  0.9980 -2.3773  2.1098
59519SOL     OW84519   0.663   0.445   9.423 -0.3117  0.2836 -0.0783
59519SOL    HW184520   0.626   0.526   9.456 -0.1926 -0.3044  1.6179
59519SOL    HW284521   0.745   0.434   9.472 -0.7464 -1.2723  0.3797
59520SOL     OW84522   9.282  12.261   8.413  0.0935 -0.3657 -0.0272
59520SOL    HW184523   9.335  12.259   8.492 -3.2122  0.8414  2.4716
59520SOL    HW284524   9.320  12.332   8.360  2.0418 -0.8249  0.6813
59521SOL     OW84525   6.480  12.408   7.090 -0.5174 -0.4875  0.1913
59521SOL    HW184526   6.515  12.463   7.020 -0.4954  0.0785  0.6367
59521SOL    HW284527   6.547  12.342   7.105 -0.8275 -1.0343 -0.7897
59522SOL     OW84528  10.073   3.805   8.960  0.3331  0.1605  0.1958
59522SOL    HW184529  10.104   3.859   9.033  0.6988 -0.3494  0.4268
59522SOL    HW284530  10.044   3.724   9.002  0.5369 -0.1311 -0.2232
59523SOL     OW84531   3.296   5.208   4.964  0.5317  0.3848 -0.4223
59523SOL    HW184532   3.230   5.213   5.033  1.9305 -0.4699  1.0436
59523SOL    HW284533   3.359   5.276   4.986  1.2739 -0.2516 -0.5329
59524SOL     OW84534   9.734   3.823   2.328  0.5443 -0.4915 -0.1616
59524SOL    HW184535   9.718   3.890   2.395  0.8089  0.6157 -1.1685
59524SOL    HW284536   9.825   3.835   2.304  0.3138 -0.5400 -1.0796
59525SOL     OW84537  10.819   1.115   3.645  0.3314 -0.5368  0.2022
59525SOL    HW184538  10.845   1.036   3.691  0.3634 -0.7499 -0.1742
59525SOL    HW284539  10.729   1.130   3.671 -0.0054 -1.2689 -0.4956
59526SOL     OW84540   4.293   4.885   9.721 -0.0976  0.2245  0.4335
59526SOL    HW184541   4.294   4.904   9.815 -0.7333 -0.7789  0.6690
59526SOL    HW284542   4.307   4.790   9.716  1.8925  0.5292 -0.6031
59527SOL     OW84543   0.423   4.713   4.899 -0.0515 -0.4676  0.1083
59527SOL    HW184544   0.432   4.653   4.825 -1.2131 -1.0599  0.4134
59527SOL    HW284545   0.458   4.796   4.867 -0.2126 -0.8024 -0.9925
59528SOL     OW84546   9.311   2.463   4.862  0.7020 -0.2353 -0.3112
59528SOL    HW184547   9.234   2.428   4.818 -0.1231 -0.4210  1.2017
59528SOL    HW284548   9.349   2.387   4.907 -0.2375  0.4487  1.7517
59529SOL     OW84549   0.167   3.792   6.884  0.4828  0.1789  0.3923
59529SOL    HW184550   0.148   3.883   6.905 -1.1997 -0.1027  0.1986
59529SOL    HW284551   0.081   3.752   6.868  0.9794 -1.9818  2.5838
59530SOL     OW84552   4.245   1.760   9.226 -0.3131 -0.0567 -0.2111
59530SOL    HW184553   4.332   1.799   9.224 -1.0369  1.7766 -3.4579
59530SOL    HW284554   4.200   1.806   9.297  0.1910  2.0083 -1.1542
59531SOL     OW84555   9.742   5.010   3.449  0.0440 -0.2904  0.3396
59531SOL    HW184556   9.726   4.939   3.512  0.8652 -0.4434  0.3874
59531SOL    HW284557   9.677   5.077   3.471 -0.4075 -0.8134  0.6223
59532SOL     OW84558   8.027   9.248   8.435  0.5960 -0.4993 -0.1532
59532SOL    HW184559   7.979   9.166   8.428  0.8629 -0.6071 -0.8094
59532SOL    HW284560   8.052   9.254   8.527 -0.7718 -0.3759  0.2262
59533SOL     OW84561   7.294  10.427   5.889  0.4918 -0.2142 -0.0041
59533SOL    HW184562   7.360  10.485   5.849 -0.5552 -0.1114 -1.6782
59533SOL    HW284563   7.340  10.386   5.963  1.9911  0.9162 -0.2512
59534SOL     OW84564   7.092   2.306   5.074 -0.1717 -0.5494 -0.2731
59534SOL    HW184565   7.166   2.264   5.117 -0.5384 -0.2014  0.7474
59534SOL    HW284566   7.020   2.296   5.136 -0.8984 -0.6112 -1.1143
59535SOL     OW84567   2.169  10.184   6.309 -0.0422  0.3081  0.2459
59535SOL    HW184568   2.089  10.230   6.334 -0.4694 -0.3996  0.2232
59535SOL    HW284569   2.223  10.250   6.267 -1.3083  0.4379 -1.2804
59536SOL     OW84570   1.359  11.613   8.217 -0.2190 -0.0007 -0.0096
59536SOL    HW184571   1.387  11.571   8.299 -1.6049 -0.5174  0.2154
59536SOL    HW284572   1.284  11.562   8.188 -0.0610  0.4913 -1.3562
59537SOL     OW84573  12.414   5.481   5.007  0.0154 -0.4250 -0.2228
59537SOL    HW184574  12.324   5.475   5.038  0.1317 -1.0254  0.0006
59537SOL    HW284575  12.407   5.527   4.923 -0.5725 -1.0498 -0.5245
59538SOL     OW84576   2.851   4.489   1.370 -0.0071 -0.0972 -0.2039
59538SOL    HW184577   2.869   4.395   1.364  1.1193  0.1782 -1.6258
59538SOL    HW284578   2.822   4.502   1.461 -0.1156 -1.7914  0.0333
59539SOL     OW84579   2.860   3.394   7.159  0.7959  0.0973  0.0793
59539SOL    HW184580   2.942   3.425   7.121  0.7217  0.3066  0.0879
59539SOL    HW284581   2.796   3.460   7.133  0.3904 -0.6607 -0.9081
59540SOL     OW84582   0.461   2.613   2.195 -0.0173  0.1332 -0.4404
59540SOL    HW184583   0.518   2.681   2.159 -1.1896 -0.1381 -3.0833
59540SOL    HW284584   0.496   2.531   2.158 -0.7713 -0.2736 -0.2594
59541SOL     OW84585  10.548  10.546  11.423  0.2156 -0.1939 -0.1038
59541SOL    HW184586  10.584  10.606  11.489 -2.2502  0.9050  0.3358
59541SOL    HW284587  10.580  10.460  11.450  1.0916  0.4935  1.2078
59542SOL     OW84588  10.819   4.091   1.726 -0.1188  0.3534  0.6327
59542SOL    HW184589  10.770   4.078   1.807 -0.4756  0.3045  0.4091
59542SOL    HW284590  10.910   4.075   1.751 -0.4839 -2.6649  0.4027
59543SOL     OW84591   0.389   3.416  10.704  0.2012 -0.1375  0.1312
59543SOL    HW184592   0.463   3.430  10.645 -0.8657  0.0802 -1.1901
59543SOL    HW284593   0.313   3.406  10.647 -0.6424 -1.5477  1.3972
59544SOL     OW84594  10.592   7.611   6.298 -0.5381  0.3417  0.0680
59544SOL    HW184595  10.524   7.605   6.365 -0.1646  0.8469  0.5041
59544SOL    HW284596  10.635   7.525   6.300  0.0828  0.6543  1.1570
59545SOL     OW84597   4.829   6.322   2.624  0.0157  0.5404  0.3108
59545SOL    HW184598   4.862   6.411   2.637 -0.6738  0.9121 -0.3980
59545SOL    HW284599   4.799   6.321   2.533 -1.8723  0.2106  0.8899
59546SOL     OW84600   9.941  12.230   1.245  0.1793 -0.2864 -0.4760
59546SOL    HW184601  10.030  12.213   1.212  0.9852 -2.1274  2.3053
59546SOL    HW284602   9.885  12.171   1.195  0.5598  0.3816 -1.7525
59547SOL     OW84603  10.162  11.149   2.818  0.5007 -0.7253  0.5373
59547SOL    HW184604  10.103  11.082   2.783  0.6848 -0.1634 -0.9447
59547SOL    HW284605  10.141  11.228   2.768  2.2276 -0.4175  0.2107
59548SOL     OW84606  11.726   8.879   6.413 -0.2689 -0.6448  0.7078
59548SOL    HW184607  11.719   8.882   6.508 -1.0168 -0.9924  0.6719
59548SOL    HW284608  11.796   8.815   6.396 -1.1533 -1.7196  1.0074
59549SOL     OW84609  10.065  11.215   6.874  0.0222  0.2361  0.4060
59549SOL    HW184610  10.008  11.261   6.936 -0.8505  0.4811 -0.5467
59549SOL    HW284611  10.154  11.239   6.900 -0.2614 -0.4861  2.1808
59550SOL     OW84612   5.091   6.013  12.202  0.2892  0.6727  0.1631
59550SOL    HW184613   5.157   6.068  12.160 -1.9027  2.1253 -1.5630
59550SOL    HW284614   5.094   5.931  12.154  2.1309 -0.0466  1.3923
59551SOL     OW84615   2.246   9.959   2.190  0.2854  0.1535 -0.2091
59551SOL    HW184616   2.332   9.926   2.218  0.1643 -1.2770 -1.3955
59551SOL    HW284617   2.253   9.967   2.095 -0.9475 -0.1384 -0.3430
59552SOL     OW84618  10.426   0.731  10.044 -0.1257 -0.3503  0.2912
59552SOL    HW184619  10.332   0.712  10.042 -0.4850  0.6414  3.1115
59552SOL    HW284620  10.468   0.648  10.020 -1.6816 -0.7626 -1.2105
59553SOL     OW84621   1.146  10.433   6.853 -0.1068 -0.6103 -0.8158
59553SOL    HW184622   1.131  10.463   6.763 -0.9302 -1.5035 -0.9879
59553SOL    HW284623   1.242  10.424   6.859  0.4062  3.2526 -0.3181
59554SOL     OW84624   6.988   5.692   6.095 -0.1076 -0.6160 -0.1149
59554SOL    HW184625   7.061   5.651   6.048 -0.2544  0.1695 -1.0372
59554SOL    HW284626   6.918   5.627   6.092  0.0274 -0.7399 -0.5923
59555SOL     OW84627   3.985   5.932  11.659 -0.0983  0.2845 -0.0660
59555SOL    HW184628   3.980   5.894  11.571 -1.1779  0.6325 -0.1684
59555SOL    HW284629   3.903   5.981  11.669  0.3832  0.9371  0.8233
59556SOL     OW84630   0.033   6.227   9.463  1.0523  0.3387  0.0813
59556SOL    HW184631   0.048   6.274   9.381  1.8136 -0.5919 -0.3334
59556SOL    HW284632  -0.004   6.292   9.522  0.0500  0.9112 -1.1429
59557SOL     OW84633   4.505  10.780   2.275 -0.4234  0.3523 -0.0155
59557SOL    HW184634   4.461  10.725   2.211 -0.0645  1.5843 -1.3713
59557SOL    HW284635   4.591  10.796   2.238  0.1713  0.2852  1.2676
59558SOL     OW84636   2.963   9.429   1.699 -0.5110  0.4213 -0.0602
59558SOL    HW184637   2.945   9.347   1.652 -0.9583  0.1639  0.5395
59558SOL    HW284638   2.997   9.488   1.633 -0.7954 -0.0491 -0.6336
59559SOL     OW84639   1.214   9.096  12.188 -0.4205 -0.0157 -0.0540
59559SOL    HW184640   1.133   9.045  12.192  0.4819 -1.4495  0.9740
59559SOL    HW284641   1.255   9.083  12.274 -0.1099  2.4501  0.2524
59560SOL     OW84642   8.715   9.278   7.059  0.1041  0.0903 -0.0165
59560SOL    HW184643   8.657   9.217   7.105  0.3251 -0.2530 -0.1917
59560SOL    HW284644   8.701   9.362   7.103  0.9344 -0.4096  1.2292
59561SOL     OW84645   5.465  10.934  11.074  0.3939  0.5036 -0.4660
59561SOL    HW184646   5.552  10.936  11.113 -0.3515 -0.8059  1.4304
59561SOL    HW284647   5.436  11.025  11.075  1.2401  0.7835  0.0664
59562SOL     OW84648   9.557   8.113  11.207 -0.2216 -0.6457 -0.2163
59562SOL    HW184649   9.561   8.021  11.181 -1.1682 -0.0598 -2.6733
59562SOL    HW284650   9.608   8.159  11.141  0.5414  0.5909  1.1870
59563SOL     OW84651   2.425   2.387   7.461  0.3798  0.0803 -0.3106
59563SOL    HW184652   2.407   2.478   7.440 -1.1248 -0.1092  0.0214
59563SOL    HW284653   2.338   2.346   7.467  1.0014 -1.2416  0.0973
59564SOL     OW84654   0.784   5.021  10.464  0.2867 -0.4753 -0.0070
59564SOL    HW184655   0.834   5.103  10.466 -1.5335  0.8552 -2.5776
59564SOL    HW284656   0.804   4.984  10.378 -0.4372 -1.7230  0.3414
59565SOL     OW84657   0.169   6.346   0.388  0.0413  0.6922  0.3871
59565SOL    HW184658   0.240   6.290   0.357 -0.0674  0.3238  0.7892
59565SOL    HW284659   0.153   6.406   0.315 -1.4223 -1.2891 -1.0588
59566SOL     OW84660   7.935   1.748  12.193  0.6549  0.4408 -0.5966
59566SOL    HW184661   7.920   1.834  12.154  0.5200  0.7204  0.0481
59566SOL    HW284662   7.892   1.754  12.279  1.3573  0.0143 -0.2080
59567SOL     OW84663   9.399  11.279   4.738 -0.1288 -0.2030 -0.4583
59567SOL    HW184664   9.345  11.357   4.747  1.1251  0.6962 -0.5018
59567SOL    HW284665   9.413  11.249   4.828  0.5218  0.4393 -0.3337
59568SOL     OW84666   8.454   8.862   1.801  0.0354  0.0513 -0.0615
59568SOL    HW184667   8.477   8.856   1.894  0.1848  0.1346 -0.0935
59568SOL    HW284668   8.496   8.786   1.761  1.1550  0.7792 -0.3054
59569SOL     OW84669   7.300   0.133   5.332 -0.6031 -0.4628 -0.3404
59569SOL    HW184670   7.367   0.110   5.269  1.2938  0.2274  1.3193
59569SOL    HW284671   7.280   0.225   5.314  1.2424  0.2840  1.0765
59570SOL     OW84672   6.992  12.000   3.496  0.2140 -0.0868 -0.7429
59570SOL    HW184673   6.964  11.934   3.433 -3.1428  0.7591 -0.3725
59570SOL    HW284674   6.935  11.986   3.572  1.3751  1.4305  0.4665
59571SOL     OW84675   6.421   4.560   3.848  0.4864  0.3351  0.0992
59571SOL    HW184676   6.387   4.536   3.934 -2.8937 -0.2358 -1.2585
59571SOL    HW284677   6.506   4.515   3.842  0.3026 -0.5134  2.6380
59572SOL     OW84678   0.677   7.899  12.040 -0.5089 -0.9625  0.1831
59572SOL    HW184679   0.620   7.946  11.980  0.5462 -0.6062 -0.5681
59572SOL    HW284680   0.659   7.806  12.023 -0.5220 -0.8570 -0.3714
59573SOL     OW84681   2.856   5.620  11.826  0.3110  0.1854 -0.3726
59573SOL    HW184682   2.836   5.713  11.834 -0.2603  0.1136 -0.8654
59573SOL    HW284683   2.951   5.615  11.836  0.1179  0.4906  2.5617
59574SOL     OW84684   6.157   9.158   4.011  0.5720 -0.1101  0.6611
59574SOL    HW184685   6.183   9.236   4.060  1.3388 -1.5358  2.6618
59574SOL    HW284686   6.239   9.125   3.973  1.1919 -2.3233  3.5532
59575SOL     OW84687  10.130   2.384   4.254 -0.3164  0.1947 -0.1854
59575SOL    HW184688  10.135   2.459   4.313  0.6053 -0.4695  0.6152
59575SOL    HW284689  10.048   2.341   4.277  0.0955 -0.1295  0.7197
59576SOL     OW84690   3.562  10.864  10.736  0.1485  0.3974 -0.3898
59576SOL    HW184691   3.599  10.940  10.692  0.4951  1.1323  1.0902
59576SOL    HW284692   3.488  10.899  10.786  0.9952  0.0126  1.2128
59577SOL     OW84693   9.464   6.781   8.846 -0.6788 -0.0997  0.5947
59577SOL    HW184694   9.403   6.835   8.896 -1.0909  1.5472 -1.5359
59577SOL    HW284695   9.543   6.777   8.901 -1.7106  0.0412  2.1597
59578SOL     OW84696   0.344   0.206   5.248 -0.5152 -0.2748  0.6755
59578SOL    HW184697   0.351   0.295   5.214 -0.9269 -0.4111  0.2092
59578SOL    HW284698   0.396   0.153   5.187 -1.7888 -0.6183 -0.1743
59579SOL     OW84699   1.338   3.972   3.127  0.6404  0.2332 -0.0117
59579SOL    HW184700   1.351   4.056   3.081  2.0919 -0.7232 -1.4472
59579SOL    HW284701   1.316   3.910   3.057  1.4481 -0.9728  0.7787
59580SOL     OW84702   1.875   2.518   6.543 -0.1610  0.2803 -0.0951
59580SOL    HW184703   1.801   2.533   6.483 -1.9220 -2.2759  1.2226
59580SOL    HW284704   1.916   2.603   6.553 -0.8446  1.1431 -3.5172
59581SOL     OW84705   1.416   9.995   6.661  0.5714  0.1000 -0.2280
59581SOL    HW184706   1.326   9.963   6.655  0.4978 -0.2458  2.1004
59581SOL    HW284707   1.443   9.977   6.751  2.6119  1.1735 -0.5591
59582SOL     OW84708   0.487   0.799   8.075 -0.6022  0.7309  0.3867
59582SOL    HW184709   0.460   0.725   8.130 -1.9208  0.0899 -1.0593
59582SOL    HW284710   0.582   0.789   8.068 -0.7869 -1.0463 -0.0423
59583SOL     OW84711   1.532   1.717   0.018  0.6037  0.0520 -0.0635
59583SOL    HW184712   1.548   1.693   0.109  0.2050 -0.0825 -0.0305
59583SOL    HW284713   1.558   1.810   0.013  0.9912 -0.0451  0.0897
59584SOL     OW84714   3.759   6.209   2.720 -0.4945 -0.1960 -0.3407
59584SOL    HW184715   3.741   6.264   2.796 -0.7997 -0.5058 -0.1842
59584SOL    HW284716   3.810   6.265   2.661  0.3709 -0.1922  0.3981
59585SOL     OW84717   4.173   5.249   0.658 -0.1252 -0.2532 -0.1032
59585SOL    HW184718   4.207   5.162   0.637  0.8198  0.1047 -0.0955
59585SOL    HW284719   4.250   5.306   0.660 -0.3334  0.0566  2.7544
59586SOL     OW84720  11.713   1.257   5.019  0.2150  0.2613  0.1263
59586SOL    HW184721  11.625   1.260   4.982 -0.7011 -0.9886  2.0714
59586SOL    HW284722  11.740   1.349   5.024 -1.6446  0.8050  0.9933
59587SOL     OW84723   0.822   4.936   7.081 -0.0729 -0.1826  0.2434
59587SOL    HW184724   0.894   4.908   7.025 -0.1482  0.7315 -0.3431
59587SOL    HW284725   0.763   4.861   7.085  0.3739 -0.5581 -0.1869
59588SOL     OW84726   4.183   7.483  12.201  0.1792  0.0493  0.0263
59588SOL    HW184727   4.254   7.508  12.259 -0.1759  0.2313  0.3855
59588SOL    HW284728   4.207   7.521  12.116  0.7616 -0.3296  0.0168
59589SOL     OW84729   0.009   4.716   7.325 -0.4506  0.0025 -0.1151
59589SOL    HW184730   0.014   4.771   7.403  1.4523 -0.5515  0.1962
59589SOL    HW284731  -0.032   4.772   7.258 -0.6371  1.0112  0.8190
59590SOL     OW84732   3.231   1.026   4.123 -0.2764 -0.1106  0.2166
59590SOL    HW184733   3.256   1.084   4.051 -1.6132  0.8417  0.4949
59590SOL    HW284734   3.173   0.961   4.083  0.1514 -0.4716  0.1683
59591SOL     OW84735   9.391   9.249   4.093 -0.2577 -0.2890  0.3127
59591SOL    HW184736   9.405   9.154   4.094 -1.5506 -0.5314 -0.8202
59591SOL    HW284737   9.419   9.276   4.006 -0.3785  0.2885  0.4506
59592SOL     OW84738   2.641   6.835   8.889 -0.1336  0.1679 -0.2971
59592SOL    HW184739   2.587   6.890   8.832 -1.0292 -0.8802 -0.4938
59592SOL    HW284740   2.600   6.841   8.975  0.5803  0.8906 -0.0024
59593SOL     OW84741  11.357  10.450   0.243  0.4434  0.0223  0.5983
59593SOL    HW184742  11.269  10.431   0.274  0.3728 -0.5735  0.0450
59593SOL    HW284743  11.373  10.540   0.272 -0.6181  0.3903  0.1060
59594SOL     OW84744   5.855   3.286  12.299  0.6422 -0.2420 -0.0965
59594SOL    HW184745   5.906   3.206  12.289 -1.8418 -1.6167 -3.9756
59594SOL    HW284746   5.889   3.344  12.230 -0.2934  0.4359  0.0021
59595SOL     OW84747  11.742   8.637  11.357  0.1969 -0.0713 -0.0123
59595SOL    HW184748  11.807   8.686  11.406  0.5458 -0.2017 -0.3432
59595SOL    HW284749  11.771   8.546  11.364  0.2958 -0.0813 -0.5313
59596SOL     OW84750   6.764   5.036  11.460 -0.4892 -0.8864 -0.2401
59596SOL    HW184751   6.855   5.059  11.477  0.2719 -1.9191 -2.5579
59596SOL    HW284752   6.768   4.951  11.418 -2.5711 -1.0716 -0.1703
59597SOL     OW84753   8.977   5.497   5.461  0.5439  0.0975  0.6861
59597SOL    HW184754   8.934   5.474   5.542  1.3766  1.3079  1.5106
59597SOL    HW284755   9.055   5.442   5.458  0.4603 -0.0188  0.6574
59598SOL     OW84756   1.462   6.650  10.958  0.5212 -0.2791 -0.8726
59598SOL    HW184757   1.401   6.714  10.920  2.1916  1.3773 -0.8729
59598SOL    HW284758   1.499   6.605  10.882 -2.2671 -2.9800 -0.8433
59599SOL     OW84759   9.594   3.558  12.263  0.6903  0.5686 -0.0857
59599SOL    HW184760   9.589   3.619  12.336  2.5071  1.1517 -0.3807
59599SOL    HW284761   9.522   3.582  12.206  0.5422  1.5171  0.4816
59600SOL     OW84762   6.734   6.503   3.787  0.1330  0.2353  0.0506
59600SOL    HW184763   6.687   6.428   3.824 -1.0440  0.1825 -1.4422
59600SOL    HW284764   6.665   6.566   3.767  0.9344  1.0039 -0.3065
59601SOL     OW84765   8.819   0.128  11.619  0.0169 -0.1620 -0.0586
59601SOL    HW184766   8.771   0.196  11.573  1.2934 -0.4468 -1.9780
59601SOL    HW284767   8.898   0.171  11.651  0.8643 -0.6853 -1.3420
59602SOL     OW84768   2.300   3.579   6.675 -0.7533  0.7493 -0.2268
59602SOL    HW184769   2.220   3.534   6.702 -0.1341 -0.5458 -0.5055
59602SOL    HW284770   2.334   3.528   6.602  1.6718 -0.2356  1.4643
59603SOL     OW84771   5.084   3.064   0.275 -0.2593  0.3747  0.0017
59603SOL    HW184772   5.083   3.094   0.366  0.8210  1.1359 -0.2156
59603SOL    HW284773   5.045   3.136   0.226  0.6485  0.6735 -0.3067
59604SOL     OW84774   8.341   9.349   7.289  0.5116 -0.2856  0.4538
59604SOL    HW184775   8.374   9.263   7.263  0.1112 -0.0268 -1.0111
59604SOL    HW284776   8.411   9.410   7.264 -0.4083  0.1070 -1.3270
59605SOL     OW84777   1.815   4.840   5.533 -0.1877  0.4524 -0.1819
59605SOL    HW184778   1.893   4.797   5.568 -0.2652  0.7595  0.3776
59605SOL    HW284779   1.751   4.770   5.525 -0.7780  0.6542  2.0669
59606SOL     OW84780   7.866   0.487   3.445  0.1088 -0.0117  0.3343
59606SOL    HW184781   7.780   0.458   3.415  0.0507  0.6076 -0.1226
59606SOL    HW284782   7.862   0.583   3.441  0.8448  0.0237  0.2317
59607SOL     OW84783   7.334   7.302  10.299  0.0938  0.0771 -0.6333
59607SOL    HW184784   7.429   7.299  10.303  0.0978  0.0147 -0.7634
59607SOL    HW284785   7.315   7.342  10.214  0.0071  0.4511 -0.4383
59608SOL     OW84786   0.212   3.164   2.544 -0.6048  0.1161  0.1563
59608SOL    HW184787   0.260   3.141   2.624 -0.7956  1.0942  0.5690
59608SOL    HW284788   0.221   3.259   2.536 -1.6691  0.2054 -0.2687
59609SOL     OW84789   1.441   1.887   9.132  0.2137  0.3618 -0.0611
59609SOL    HW184790   1.364   1.861   9.182 -0.1063  1.3522 -0.0120
59609SOL    HW284791   1.470   1.806   9.089 -0.7684 -0.0563  0.0247
59610SOL     OW84792   1.557  11.969   1.786 -0.0184  0.4459 -0.5391
59610SOL    HW184793   1.530  12.057   1.811 -1.2167  0.0139 -0.2504
59610SOL    HW284794   1.615  11.982   1.711  0.9056  1.5490  0.3264
59611SOL     OW84795   5.869   5.540   7.539  0.0197 -0.2695  0.0531
59611SOL    HW184796   5.921   5.495   7.472 -1.3500 -0.9533 -0.5736
59611SOL    HW284797   5.881   5.488   7.618 -1.2658 -1.5787 -0.5804
59612SOL     OW84798   0.071   3.735   4.623 -0.1419  0.2506  0.4048
59612SOL    HW184799   0.106   3.646   4.615 -2.0913 -0.5032 -0.2409
59612SOL    HW284800  -0.001   3.727   4.685 -0.5979  1.2984  0.0350
59613SOL     OW84801   4.769   2.849   9.431 -0.0034  0.1914  0.1837
59613SOL    HW184802   4.772   2.943   9.417  0.0296  0.5498  2.2211
59613SOL    HW284803   4.703   2.817   9.369  0.5783  1.4040 -1.1068
59614SOL     OW84804  11.393   4.225   1.867 -0.4608 -0.0328  0.5018
59614SOL    HW184805  11.441   4.307   1.857  0.0608 -0.2084  1.4989
59614SOL    HW284806  11.429   4.168   1.799 -0.4787  0.3901  0.1271
59615SOL     OW84807   2.300   3.648   5.747 -0.4426  0.1503 -0.3241
59615SOL    HW184808   2.325   3.723   5.801 -0.1156 -1.0647  1.2732
59615SOL    HW284809   2.204   3.645   5.752 -0.4368  0.2881 -0.1302
59616SOL     OW84810   8.683  12.241   2.856 -1.1966  0.0192 -0.0962
59616SOL    HW184811   8.644  12.154   2.867 -1.3882  0.0726 -0.3592
59616SOL    HW284812   8.763  12.238   2.908 -1.2021 -0.3159 -0.1084
59617SOL     OW84813  10.408  10.683   3.835  1.0328  0.0821 -0.6555
59617SOL    HW184814  10.419  10.619   3.764  1.6353 -1.1276  0.4929
59617SOL    HW284815  10.428  10.634   3.915  1.9216  1.8111  0.2368
59618SOL     OW84816   3.765   1.951  10.971  0.0405  0.3891  0.7113
59618SOL    HW184817   3.777   1.857  10.960  1.7339  0.5491  0.9986
59618SOL    HW284818   3.688   1.971  10.918 -0.8198 -1.2629  1.2611
59619SOL     OW84819   5.832  12.285   8.688 -0.1421  0.0620  0.0107
59619SOL    HW184820   5.884  12.253   8.615 -0.5398 -0.7926  0.0892
59619SOL    HW284821   5.765  12.340   8.647  0.4127  0.6322 -0.1439
59620SOL     OW84822  11.803   1.286   0.126  0.5986 -0.3713 -0.6943
59620SOL    HW184823  11.893   1.318   0.124  0.9923 -1.4050 -0.3777
59620SOL    HW284824  11.796   1.239   0.209 -0.7556  1.0930  0.0766
59621SOL     OW84825   5.109   9.810   1.917  0.1355  0.0805  0.3170
59621SOL    HW184826   5.192   9.845   1.950  0.2176 -0.5913  0.8472
59621SOL    HW284827   5.061   9.784   1.995 -0.6990  0.6930  0.0329
59622SOL     OW84828   7.145   8.429   1.037 -0.1193  0.2605  0.6931
59622SOL    HW184829   7.173   8.346   1.078 -0.9605  0.6972  2.2191
59622SOL    HW284830   7.059   8.410   1.001  0.6636 -0.1515 -1.0550
59623SOL     OW84831   5.965   9.377   1.379 -0.6980 -0.0373 -0.1111
59623SOL    HW184832   6.020   9.388   1.302 -1.2892 -2.1453 -0.9140
59623SOL    HW284833   6.027   9.370   1.452 -0.1141  1.4404 -0.4463
59624SOL     OW84834   1.107   8.176   7.319 -0.5507 -0.0227  0.0996
59624SOL    HW184835   1.181   8.122   7.346  0.2601  0.0607 -1.8451
59624SOL    HW284836   1.090   8.232   7.395  0.8610 -0.5699  0.8604
59625SOL     OW84837   4.855   6.058   2.041  0.1025 -0.1576  0.0846
59625SOL    HW184838   4.787   5.992   2.027  1.1763 -1.3805  0.3949
59625SOL    HW284839   4.836   6.126   1.977 -1.8859 -0.0549  0.7184
59626SOL     OW84840   3.592   0.597   6.285 -0.5718 -0.6089  0.0439
59626SOL    HW184841   3.674   0.629   6.322 -1.8045  0.3101  2.1862
59626SOL    HW284842   3.561   0.667   6.228 -0.6150 -0.2788  0.4690
59627SOL     OW84843   0.479   0.840   7.482 -0.7888 -0.0417 -0.0205
59627SOL    HW184844   0.467   0.892   7.562 -1.1456 -1.1893  0.6915
59627SOL    HW284845   0.477   0.905   7.411  0.4617  1.1035  0.9477
59628SOL     OW84846   3.223   2.822  10.531  0.0948  0.0609 -0.4663
59628SOL    HW184847   3.300   2.834  10.475  0.9823  0.6716  0.8235
59628SOL    HW284848   3.152   2.865  10.483  0.6144 -0.2158 -1.5249
59629SOL     OW84849   7.706   4.775   9.337 -0.5221  0.0149  0.3870
59629SOL    HW184850   7.665   4.847   9.291 -0.9234  0.5696  1.5833
59629SOL    HW284851   7.800   4.785   9.319 -0.6612  0.2874 -0.1942
59630SOL     OW84852   9.232   7.605   2.472 -0.0091  0.0306  0.2388
59630SOL    HW184853   9.292   7.680   2.472  0.0796  0.0480  3.0859
59630SOL    HW284854   9.290   7.529   2.474  0.0290  0.0461  2.8726
59631SOL     OW84855   3.141   8.584   2.866  0.5908  0.4754 -0.4040
59631SOL    HW184856   3.136   8.680   2.867 -0.9446  0.4270 -0.6063
59631SOL    HW284857   3.092   8.559   2.788  0.1843 -0.5037  0.1537
59632SOL     OW84858  11.016   9.606   1.562 -0.8392  0.2251  0.4834
59632SOL    HW184859  10.994   9.678   1.502 -2.3611 -0.4639  0.1547
59632SOL    HW284860  11.063   9.648   1.634  1.2639  1.0472 -1.2677
59633SOL     OW84861   2.567   2.265  10.092 -0.1055  0.1362  0.1522
59633SOL    HW184862   2.549   2.334  10.029 -0.2359 -0.0325  0.0020
59633SOL    HW284863   2.528   2.296  10.174  3.3190  2.1655  1.2396
59634SOL     OW84864   4.297   1.801   2.836  0.3724  0.5670  0.3421
59634SOL    HW184865   4.390   1.816   2.848  0.6331 -0.5566 -0.1777
59634SOL    HW284866   4.272   1.857   2.763  0.6893  0.6760  0.3199
59635SOL     OW84867   4.652   7.110   2.840  0.2732  0.0141 -0.2283
59635SOL    HW184868   4.654   7.167   2.917  0.7131  0.1063 -0.3060
59635SOL    HW284869   4.562   7.115   2.809  0.7673  2.3517 -1.4893
59636SOL     OW84870   2.763   4.231   1.273 -0.6839  0.5839 -0.1668
59636SOL    HW184871   2.814   4.150   1.267  0.0406  0.9779  0.5370
59636SOL    HW284872   2.677   4.203   1.302  0.1687  0.2368  2.2562
59637SOL     OW84873   3.152  11.031   3.539 -0.3515  0.3322  0.5627
59637SOL    HW184874   3.104  11.107   3.504  0.6466 -0.1959 -2.2027
59637SOL    HW284875   3.100  10.955   3.512  0.0273 -0.0768  0.9722
59638SOL     OW84876  12.437   4.502   2.647 -0.0791  0.1168  0.1546
59638SOL    HW184877  12.451   4.579   2.702 -1.5022  1.5069 -1.3184
59638SOL    HW284878  12.513   4.500   2.590  0.0482  0.3578  0.3115
59639SOL     OW84879   8.350   8.288  11.817  0.4094 -0.2736  0.6515
59639SOL    HW184880   8.337   8.375  11.857  2.5269 -0.0417  0.9307
59639SOL    HW284881   8.443   8.285  11.797 -0.1703 -1.2947 -2.2656
59640SOL     OW84882  12.476   6.738   6.940  0.4539  0.0696 -0.5240
59640SOL    HW184883  12.499   6.697   6.856  0.6659  1.0799 -0.9787
59640SOL    HW284884  12.516   6.682   7.006  2.9373  0.8935 -1.2110
59641SOL     OW84885   1.498   0.591   9.108  0.0139 -0.1956 -0.7469
59641SOL    HW184886   1.530   0.532   9.040  1.7295 -0.0343 -0.1409
59641SOL    HW284887   1.457   0.534   9.173  0.4832 -0.5988 -0.7981
59642SOL     OW84888   9.059   3.739   6.522 -0.0285 -0.1084 -0.2999
59642SOL    HW184889   9.154   3.753   6.529 -0.0499 -0.0266 -0.1659
59642SOL    HW284890   9.041   3.669   6.585 -0.0340 -0.2246 -0.4317
59643SOL     OW84891  11.631   2.171   5.244  0.0864 -0.0625 -0.4087
59643SOL    HW184892  11.697   2.109   5.274  1.1097  1.7897  1.4568
59643SOL    HW284893  11.657   2.192   5.154 -0.2755 -2.2120 -1.0724
59644SOL     OW84894  12.418   3.938  10.767  0.3400 -0.3758 -0.4898
59644SOL    HW184895  12.363   3.999  10.817  0.7577 -0.4259  0.0370
59644SOL    HW284896  12.493   3.991  10.739  0.6747 -0.6235 -0.0800
59645SOL     OW84897   2.310   5.130  11.009 -0.0094 -0.0789 -0.3305
59645SOL    HW184898   2.218   5.143  10.984 -0.0008 -0.0994 -0.3743
59645SOL    HW284899   2.310   5.138  11.105  0.3302  2.3276 -0.4792
59646SOL     OW84900   9.001   0.026   6.535  0.0434 -0.2934 -0.1081
59646SOL    HW184901   9.076   0.011   6.592 -1.6158  0.3165  2.3905
59646SOL    HW284902   8.978  -0.061   6.502  0.1477 -0.9136  1.3962
59647SOL     OW84903   6.563   9.728   6.500  0.1989  0.7477 -0.5894
59647SOL    HW184904   6.640   9.759   6.548 -0.3583  3.5276 -1.3013
59647SOL    HW284905   6.591   9.730   6.408 -0.3180  0.4676 -0.7516
59648SOL     OW84906   8.712  10.834   3.438 -0.1911  1.2476 -0.8927
59648SOL    HW184907   8.640  10.894   3.419 -0.8021  0.7578 -0.1633
59648SOL    HW284908   8.681  10.749   3.406 -1.4887  0.2590  2.5907
59649SOL     OW84909  12.126   6.070   2.049 -0.2762  0.4580  0.7932
59649SOL    HW184910  12.112   5.996   2.108  0.7288 -0.2067  0.2284
59649SOL    HW284911  12.056   6.061   1.984  1.2273 -1.4950 -0.6916
59650SOL     OW84912   3.301  10.731   2.128 -0.0068  0.0720 -0.1018
59650SOL    HW184913   3.304  10.725   2.033 -1.3155 -0.8590 -0.1141
59650SOL    HW284914   3.225  10.787   2.146 -0.0448 -0.1343  0.3982
59651SOL     OW84915  10.559   1.321   9.059 -0.2440 -0.0904  0.2341
59651SOL    HW184916  10.630   1.290   9.003 -1.5093 -1.5085 -0.6696
59651SOL    HW284917  10.602   1.376   9.125  1.8731 -1.9368  0.5106
59652SOL     OW84918   0.672   6.396  11.817 -0.2916 -0.4577 -0.4130
59652SOL    HW184919   0.684   6.481  11.860  2.0258 -0.0523 -1.6931
59652SOL    HW284920   0.631   6.341  11.883  2.3446  0.3611  2.1175
59653SOL     OW84921  10.513   7.290   0.112 -0.0627 -0.0369 -0.0889
59653SOL    HW184922  10.511   7.299   0.017  1.2098  1.9487  0.0013
59653SOL    HW284923  10.424   7.310   0.141 -0.5273 -0.9348 -0.8679
59654SOL     OW84924   6.143  11.949   7.558  0.7341  0.0963  0.2203
59654SOL    HW184925   6.072  12.011   7.542  0.6301 -0.0785 -0.0100
59654SOL    HW284926   6.156  11.905   7.473 -0.5638 -1.6241  0.8432
59655SOL     OW84927  11.425   0.742   4.218 -0.1336 -0.0140  0.3079
59655SOL    HW184928  11.406   0.672   4.281 -0.2297  0.0911  0.3977
59655SOL    HW284929  11.475   0.807   4.268 -0.2099  0.0696  0.2769
59656SOL     OW84930   1.039   0.511   1.289 -0.1802 -0.0782 -0.3427
59656SOL    HW184931   1.101   0.577   1.260 -0.3383  0.0406 -0.4087
59656SOL    HW284932   1.074   0.481   1.374  1.0889 -1.4840 -1.3054
59657SOL     OW84933  11.929   2.886   9.483 -0.0622 -0.0058 -0.0672
59657SOL    HW184934  11.956   2.797   9.504 -1.1117 -0.3171 -0.0060
59657SOL    HW284935  11.854   2.903   9.540  0.6447  1.2349  0.5451
59658SOL     OW84936  10.163   9.549   5.688 -0.2357  0.2224  0.0426
59658SOL    HW184937  10.194   9.518   5.773  0.5604 -0.6965 -0.5628
59658SOL    HW284938  10.234   9.604   5.655 -0.3853  0.2737 -0.1939
59659SOL     OW84939   1.334   5.898  11.250 -0.0522 -1.1264 -0.1841
59659SOL    HW184940   1.412   5.844  11.235  0.8433  0.5755 -2.1932
59659SOL    HW284941   1.365   5.988  11.242 -2.0600 -0.3734 -0.1242
59660SOL     OW84942   8.318  10.577   0.480  0.1567 -0.0060 -0.0638
59660SOL    HW184943   8.260  10.537   0.545 -0.0676 -3.3169 -2.0882
59660SOL    HW284944   8.271  10.568   0.397  2.0053  0.6169 -1.2273
59661SOL     OW84945   0.492   3.071   1.118  0.5313 -0.1863 -0.4263
59661SOL    HW184946   0.573   3.106   1.080  1.1156  0.8206  1.6348
59661SOL    HW284947   0.475   3.126   1.194 -2.2397 -0.2533 -0.9123
59662SOL     OW84948   1.228   8.490   2.439  0.3917 -0.5754  0.3656
59662SOL    HW184949   1.259   8.401   2.420  1.1212 -0.3161  0.3027
59662SOL    HW284950   1.186   8.483   2.525  3.2479 -0.4058  1.9094
59663SOL     OW84951   1.640   2.226  10.943 -0.0419  0.5336  0.0477
59663SOL    HW184952   1.611   2.269  10.863  0.6205  1.1850  0.1514
59663SOL    HW284953   1.574   2.159  10.959 -0.2354  0.4567 -0.9882
59664SOL     OW84954  11.075   3.261   5.380  0.0675 -0.2067 -0.3748
59664SOL    HW184955  11.046   3.171   5.366 -1.7114 -0.0690  1.7868
59664SOL    HW284956  11.138   3.255   5.452 -0.6509  0.3229  0.3163
59665SOL     OW84957   0.999  11.616   2.383 -0.1459  0.4064  0.3424
59665SOL    HW184958   0.971  11.675   2.313 -0.0482  2.5542  2.0174
59665SOL    HW284959   0.943  11.539   2.373 -2.3122  1.9588 -0.2023
59666SOL     OW84960   4.938   4.910  10.819  0.2444 -0.1255 -0.3256
59666SOL    HW184961   5.014   4.860  10.787  0.4203  0.0153 -0.1319
59666SOL    HW284962   4.948   4.910  10.914 -0.5655 -0.9984 -0.2277
59667SOL     OW84963   5.982   0.608   6.250 -0.1139  0.6681 -0.2733
59667SOL    HW184964   6.066   0.578   6.283 -1.0453 -0.1527  1.4459
59667SOL    HW284965   5.990   0.704   6.247  1.5728  0.5352 -2.1891
59668SOL     OW84966   4.683   3.938   4.171 -0.2530 -0.4186  0.3266
59668SOL    HW184967   4.619   3.982   4.226  0.5171 -0.3084  1.1560
59668SOL    HW284968   4.643   3.854   4.150 -1.4828  0.4068 -0.7894
59669SOL     OW84969   1.804   4.204  10.184 -0.1538  0.0617 -0.2374
59669SOL    HW184970   1.773   4.114  10.181 -0.9419  0.3163  0.0388
59669SOL    HW284971   1.782   4.234  10.273 -0.1837  0.6226 -0.4276
59670SOL     OW84972   4.034   1.706   0.104  0.3084 -0.7407  0.2058
59670SOL    HW184973   4.094   1.634   0.125 -0.2475 -1.2464  0.1063
59670SOL    HW284974   3.962   1.696   0.167  0.4506  0.0215  0.5006
59671SOL     OW84975  12.124   0.444   0.690 -0.0716  0.2890  0.3943
59671SOL    HW184976  12.152   0.425   0.600  0.7009 -0.2288  0.7264
59671SOL    HW284977  12.205   0.440   0.741 -0.8245 -2.0811  1.5507
59672SOL     OW84978   1.588  12.024  10.349 -0.0721 -0.1852  0.5450
59672SOL    HW184979   1.591  11.984  10.436  0.7970 -0.1057  0.5706
59672SOL    HW284980   1.569  11.952  10.290 -0.0661 -0.3546  0.7472
59673SOL     OW84981   7.608  10.656   5.551 -0.6909 -0.0529 -0.0831
59673SOL    HW184982   7.566  10.629   5.469 -1.3718  1.4917 -0.2669
59673SOL    HW284983   7.536  10.671   5.611 -0.4550  2.1900 -0.2693
59674SOL     OW84984   2.182   0.869   8.386 -0.6116 -0.1527 -0.2066
59674SOL    HW184985   2.148   0.782   8.365 -0.8121 -0.2319  0.4110
59674SOL    HW284986   2.276   0.856   8.397 -0.3965  0.0300 -1.7346
59675SOL     OW84987   0.012   2.943   1.216  0.7350  0.5772  0.5519
59675SOL    HW184988   0.089   2.988   1.182 -0.2213  1.3270 -0.7021
59675SOL    HW284989  -0.043   2.927   1.139 -0.0373 -0.6126  1.3080
59676SOL     OW84990   7.477   7.535   2.487 -0.0525  0.7273  0.4941
59676SOL    HW184991   7.433   7.608   2.444  2.2490  3.4780  2.4335
59676SOL    HW284992   7.434   7.527   2.572  0.3030  0.4557  0.6552
59677SOL     OW84993   2.145   0.214  10.275  0.2885  0.2098  0.4995
59677SOL    HW184994   2.086   0.254  10.211  1.0999 -0.9261 -1.0169
59677SOL    HW284995   2.133   0.120  10.263  2.1225 -0.0428  0.3852
59678SOL     OW84996   6.723   1.895   6.240 -0.1988  0.4835 -0.7763
59678SOL    HW184997   6.685   1.982   6.225  1.0194  0.9345 -1.3611
59678SOL    HW284998   6.784   1.907   6.312  0.3603  0.2401 -1.1991
59679SOL     OW84999   1.846   0.367  11.738  0.0491 -0.6813  0.3350
59679SOL    HW185000   1.940   0.383  11.727  0.2427 -1.3342  0.9625
59679SOL    HW285001   1.835   0.274  11.721 -0.9740 -0.1066 -2.6670
59680SOL     OW85002   6.315   4.256   7.827 -0.0269  0.6489 -0.1296
59680SOL    HW185003   6.381   4.194   7.795 -0.0415  0.0103  1.0194
59680SOL    HW285004   6.354   4.342   7.810  0.8269  0.2929 -0.0706
59681SOL     OW85005   1.122   7.374   8.987  0.3202 -0.2711  0.0095
59681SOL    HW185006   1.098   7.467   8.982  3.0749  0.4834 -2.6570
59681SOL    HW285007   1.173   7.368   9.067 -0.3940  0.3650  0.5304
59682SOL     OW85008   1.982   0.383   2.465  0.5422 -0.3568 -0.4251
59682SOL    HW185009   1.928   0.403   2.388  1.5516 -0.1216 -1.0967
59682SOL    HW285010   2.030   0.464   2.482 -2.3523  0.9301  2.8171
59683SOL     OW85011   6.376   5.279  12.348 -0.4910  0.0367  0.5133
59683SOL    HW185012   6.470   5.265  12.332 -0.8977 -0.5999 -1.6685
59683SOL    HW285013   6.366   5.374  12.351  0.3897  0.1158  2.1772
59684SOL     OW85014   6.224   3.691   7.993 -0.2239 -0.0501 -0.3855
59684SOL    HW185015   6.188   3.667   8.078 -1.0602 -0.0839 -0.7404
59684SOL    HW285016   6.318   3.698   8.008 -0.4272  0.5388  0.6783
59685SOL     OW85017   1.222   0.752   5.540  0.6458  0.3280  0.5306
59685SOL    HW185018   1.198   0.844   5.528  0.6737  0.0677 -2.1283
59685SOL    HW285019   1.307   0.754   5.584  0.9693  1.5985 -0.1276
59686SOL     OW85020   3.367   4.420   5.911  0.0457 -0.6025  0.2585
59686SOL    HW185021   3.348   4.482   5.981 -2.4324  0.2591 -1.0500
59686SOL    HW285022   3.305   4.348   5.925  0.5380 -1.1337 -0.2114
59687SOL     OW85023   8.690  10.039  10.092  0.1642  0.7993  0.1516
59687SOL    HW185024   8.608  10.058  10.138  0.2825  0.4507  0.5127
59687SOL    HW285025   8.703   9.945  10.104  0.1434  0.6816 -0.6925
59688SOL     OW85026   1.228   5.604  10.799  0.6972 -0.4447  0.0653
59688SOL    HW185027   1.216   5.657  10.878 -0.7146 -1.3847  0.5234
59688SOL    HW285028   1.320   5.579  10.801  0.7845 -0.1046  1.1942
59689SOL     OW85029   6.800   8.942   0.349 -0.3069 -0.0504  0.5236
59689SOL    HW185030   6.719   8.966   0.304  0.2665  1.7881  0.4048
59689SOL    HW285031   6.790   8.849   0.368 -2.8986  0.3400  1.4397
59690SOL     OW85032   9.175   6.700   9.144 -0.0319 -0.2747  0.4334
59690SOL    HW185033   9.202   6.733   9.230 -1.4234 -1.8039  1.5171
59690SOL    HW285034   9.205   6.767   9.082  0.5610  1.1187  2.1462
59691SOL     OW85035   2.665   5.149   6.244 -0.6460 -0.4875 -0.0496
59691SOL    HW185036   2.649   5.242   6.255 -2.3959 -0.7763  0.0341
59691SOL    HW285037   2.644   5.110   6.329 -0.0227 -0.9828 -0.1100
59692SOL     OW85038  11.437   0.630   9.672 -0.3036  0.0852 -0.3856
59692SOL    HW185039  11.388   0.596   9.747  0.8619 -1.4317 -0.2599
59692SOL    HW285040  11.525   0.594   9.682  0.8243  2.5099 -0.7298
59693SOL     OW85041   8.213  10.157  12.234 -0.1030 -0.2084 -0.0910
59693SOL    HW185042   8.260  10.083  12.195  0.0105 -1.0494  1.5682
59693SOL    HW285043   8.197  10.131  12.324  4.2455  3.6005  2.2234
59694SOL     OW85044   0.276   1.865   6.138  0.0190  0.0804 -0.0168
59694SOL    HW185045   0.223   1.919   6.197  0.8891  0.1263  0.7436
59694SOL    HW285046   0.366   1.890   6.157  0.4524 -1.6267  0.3571
59695SOL     OW85047   6.644   3.367   9.725  0.5125 -0.5349 -0.0927
59695SOL    HW185048   6.713   3.311   9.759 -0.3627 -0.8202  1.3042
59695SOL    HW285049   6.636   3.437   9.791 -0.7048 -0.6677 -0.0787
59696SOL     OW85050   5.190   2.022   7.752 -0.4101 -0.5789  0.2760
59696SOL    HW185051   5.246   2.008   7.675 -1.2885 -1.2689 -0.2485
59696SOL    HW285052   5.112   2.066   7.718 -0.4069 -0.0460  0.9305
59697SOL     OW85053   7.837  10.502   7.652 -0.1692  0.0273  0.7919
59697SOL    HW185054   7.824  10.457   7.736 -0.4277 -0.0879  0.6946
59697SOL    HW285055   7.927  10.483   7.628 -0.4014 -0.8211  0.5412
59698SOL     OW85056   0.046   4.748   0.868  0.2759 -0.2336 -0.4109
59698SOL    HW185057  -0.020   4.747   0.799 -0.7028 -0.9091  0.5130
59698SOL    HW285058   0.102   4.672   0.849 -0.4683 -0.8916 -0.0274
59699SOL     OW85059   4.092   0.130   2.869  0.2185 -0.6134 -0.7585
59699SOL    HW185060   4.127   0.213   2.835 -1.6231  0.8567  0.6647
59699SOL    HW285061   4.139   0.117   2.951  0.7450 -1.1779 -1.1448
59700SOL     OW85062  10.782   1.730   8.717  0.1464  0.1842  0.0327
59700SOL    HW185063  10.766   1.806   8.660 -0.1744  0.5377  0.5791
59700SOL    HW285064  10.782   1.767   8.806  1.4161 -0.2334  0.2238
59701SOL     OW85065   5.443   9.545  12.176 -0.0810  0.5067  0.2555
59701SOL    HW185066   5.436   9.578  12.087  1.9018  0.3790  0.0110
59701SOL    HW285067   5.527   9.578  12.208  1.4415 -3.0895  0.4445
59702SOL     OW85068   0.166   6.352  11.915 -0.4597 -0.7492  0.0986
59702SOL    HW185069   0.107   6.278  11.903 -1.5688  0.2330 -0.7076
59702SOL    HW285070   0.128   6.422  11.862  0.5894  0.3828  0.7939
59703SOL     OW85071   6.605  12.449   1.595  0.2326  0.5236 -0.2549
59703SOL    HW185072   6.629  12.500   1.673  2.3064 -0.8658  0.1054
59703SOL    HW285073   6.513  12.428   1.608  0.6850 -0.3384  2.3139
59704SOL     OW85074   1.745   5.863   6.714  0.5746  0.2354  0.0896
59704SOL    HW185075   1.670   5.920   6.699  0.6550 -0.0494 -1.6156
59704SOL    HW285076   1.706   5.780   6.743  0.3882  0.7404  1.3435
59705SOL     OW85077   1.378   2.497   9.610 -0.6364 -1.0887 -0.8177
59705SOL    HW185078   1.420   2.433   9.553 -2.4476 -3.0927 -0.0489
59705SOL    HW285079   1.317   2.543   9.553 -0.6708 -1.3764 -1.0175
59706SOL     OW85080   1.135   4.985   7.061  1.2700  0.0014 -0.3295
59706SOL    HW185081   1.148   5.079   7.052  3.5693 -0.2855 -0.6572
59706SOL    HW285082   1.209   4.955   7.113  1.0814 -1.7520 -0.9935
59707SOL     OW85083   4.647  11.782  11.428 -0.5119 -0.0469 -0.2016
59707SOL    HW185084   4.660  11.827  11.345 -0.0401 -0.6800 -0.4771
59707SOL    HW285085   4.581  11.715  11.410 -0.7553  0.1164  0.0563
59708SOL     OW85086   4.095   7.849  11.896  0.6619  0.0951  0.0596
59708SOL    HW185087   4.030   7.836  11.965 -0.8262  2.2705 -0.8146
59708SOL    HW285088   4.165   7.898  11.938  0.5500 -0.0526  0.4222
59709SOL     OW85089   0.684   5.397   6.387 -0.5738  0.4722 -0.1260
59709SOL    HW185090   0.635   5.467   6.431 -0.7486  0.4012 -0.2036
59709SOL    HW285091   0.670   5.320   6.442 -0.9691  0.3313 -0.4096
59710SOL     OW85092   4.948   4.111   2.724 -0.1413 -0.1810 -0.3538
59710SOL    HW185093   5.021   4.147   2.674  0.2314 -0.6798 -0.1716
59710SOL    HW285094   4.879   4.097   2.658 -0.5467  1.4774 -0.3263
59711SOL     OW85095  11.539   5.910   5.962  0.3452 -0.2923 -0.3819
59711SOL    HW185096  11.476   5.933   5.893  1.5984 -1.6737 -2.0741
59711SOL    HW285097  11.488   5.911   6.043 -1.1882  1.3932 -1.2960
59712SOL     OW85098  10.602  11.788   3.163  0.1319 -0.7038  0.9688
59712SOL    HW185099  10.570  11.850   3.229  2.3884  2.3845 -0.5701
59712SOL    HW285100  10.688  11.761   3.195  0.3218 -0.8658  0.3455
59713SOL     OW85101   1.994   4.871   9.302 -0.7621 -0.0607 -0.5177
59713SOL    HW185102   1.921   4.933   9.305 -1.5632 -1.0043  0.1340
59713SOL    HW285103   1.958   4.793   9.260  0.0342 -0.3524 -0.6844
59714SOL     OW85104   8.478  11.075   3.126  0.3084  0.0997 -0.5790
59714SOL    HW185105   8.472  10.989   3.084  0.5712 -1.0721  1.6132
59714SOL    HW285106   8.536  11.125   3.069  0.9869 -1.5266 -1.4062
59715SOL     OW85107   6.332   8.553   9.207 -0.2654 -0.2225  0.3803
59715SOL    HW185108   6.242   8.582   9.223 -0.0962 -0.1293  1.2011
59715SOL    HW285109   6.323   8.460   9.184 -0.6329 -0.0229 -0.3148
59716SOL     OW85110  11.823   6.835   3.779  0.1997  0.2853 -0.8370
59716SOL    HW185111  11.743   6.859   3.732 -0.2893 -0.0585 -0.1880
59716SOL    HW285112  11.859   6.919   3.807  0.1119  0.4481 -1.1933
59717SOL     OW85113   7.080   3.925   8.637  0.0603  0.4440 -0.2619
59717SOL    HW185114   6.997   3.879   8.621  0.1932  0.3543 -0.7115
59717SOL    HW285115   7.076   3.950   8.729 -1.1254  1.7837 -0.6576
59718SOL     OW85116  10.364   1.368  10.984  0.3430  0.3432  0.1578
59718SOL    HW185117  10.279   1.406  11.005  0.0085 -0.7727  0.8878
59718SOL    HW285118  10.403   1.348  11.069  0.2172 -1.5543 -0.1928
59719SOL     OW85119   1.123   0.944   3.487  0.0791  0.5206  0.3829
59719SOL    HW185120   1.088   0.888   3.557  0.4092 -0.3800 -0.1638
59719SOL    HW285121   1.159   1.020   3.533 -0.8208  0.5340  1.0995
59720SOL     OW85122  11.289  10.611   2.144 -0.5211 -0.1218 -1.0453
59720SOL    HW185123  11.324  10.629   2.056  0.4048  0.2460 -0.6227
59720SOL    HW285124  11.365  10.620   2.201 -0.7573 -1.9589 -0.3804
59721SOL     OW85125   1.957   9.123   4.392  0.5251 -0.4985 -0.5699
59721SOL    HW185126   1.921   9.188   4.331 -0.6400  0.1800  0.7906
59721SOL    HW285127   1.959   9.042   4.341 -1.3267 -0.1715 -1.2664
59722SOL     OW85128   9.512   8.031   4.118  0.0760 -0.1167  0.4437
59722SOL    HW185129   9.427   8.027   4.162 -0.4366  0.9976 -0.4118
59722SOL    HW285130   9.490   8.041   4.026  1.1445  0.4573  0.2474
59723SOL     OW85131  12.210   0.979   2.156  0.2841  0.0941  0.3331
59723SOL    HW185132  12.180   1.064   2.123 -0.8618 -0.2427  0.4388
59723SOL    HW285133  12.130   0.926   2.162  0.7888 -0.5972  1.4379
59724SOL     OW85134  10.513   7.332   5.232  0.3552 -0.3175 -0.6475
59724SOL    HW185135  10.496   7.382   5.152  0.0345  1.1205  0.2667
59724SOL    HW285136  10.592   7.372   5.268  0.2883 -0.7039 -0.0634
59725SOL     OW85137   7.257   9.690   1.573 -0.4377 -0.3425 -0.1016
59725SOL    HW185138   7.232   9.650   1.656  1.3873 -0.2295  0.5589
59725SOL    HW285139   7.223   9.779   1.578 -0.7340 -0.4778  0.3360
59726SOL     OW85140  10.408   9.886   3.328  0.1870  0.1967  0.1337
59726SOL    HW185141  10.369   9.973   3.340 -1.2670 -0.6205  1.7103
59726SOL    HW285142  10.335   9.830   3.301  1.0893 -0.5779 -0.7760
59727SOL     OW85143   2.788   3.952  10.568 -0.0811 -0.0972  0.1452
59727SOL    HW185144   2.704   3.922  10.601  0.1546 -0.2531  0.6117
59727SOL    HW285145   2.785   4.047  10.578  0.3255 -0.2024  1.4532
59728SOL     OW85146   1.880   1.888  11.069  0.3772 -0.5020  0.0806
59728SOL    HW185147   1.889   1.979  11.098  0.7600  0.5694 -3.0606
59728SOL    HW285148   1.964   1.848  11.092  0.3274 -0.0276  1.2019
59729SOL     OW85149  10.807   2.032   1.185 -0.0111 -0.0297  0.1860
59729SOL    HW185150  10.772   2.120   1.199  1.1850  0.3231  1.0508
59729SOL    HW285151  10.815   1.994   1.272  1.7819 -0.0683  0.0445
59730SOL     OW85152  11.833   6.049   0.169 -0.1883 -0.0858  0.3676
59730SOL    HW185153  11.887   6.122   0.140  0.4664 -0.3378  0.9300
59730SOL    HW285154  11.786   6.021   0.090 -0.4722  0.9530  0.1551
59731SOL     OW85155   4.261   0.177   6.416 -0.1002 -0.4850 -0.1803
59731SOL    HW185156   4.301   0.150   6.499  0.4800 -0.5172 -0.4670
59731SOL    HW285157   4.335   0.199   6.360 -0.4037 -1.8692 -1.1742
59732SOL     OW85158   4.380   8.013   7.267 -0.2072 -0.3079 -0.2538
59732SOL    HW185159   4.351   8.030   7.177 -1.6387  1.1244  0.4268
59732SOL    HW285160   4.414   7.924   7.265 -1.1593 -0.6686 -1.9975
59733SOL     OW85161  12.041   1.639   8.795 -0.0394  0.5439 -0.3276
59733SOL    HW185162  12.136   1.632   8.788  0.1760  3.1007 -0.6612
59733SOL    HW285163  12.011   1.642   8.704 -0.9379 -4.0157 -0.4463
59734SOL     OW85164  11.441   9.469   7.201  0.5794 -0.0622  0.1506
59734SOL    HW185165  11.493   9.444   7.124 -0.1192 -1.2068  0.0208
59734SOL    HW285166  11.406   9.386   7.234 -2.4087  0.7124 -0.6856
59735SOL     OW85167   2.475   0.057   6.646 -0.1437  0.0062  0.0470
59735SOL    HW185168   2.563   0.020   6.649 -0.1407  0.0494  0.5331
59735SOL    HW285169   2.421  -0.012   6.607  0.1489  0.0771 -0.4991
59736SOL     OW85170  11.394   7.918   7.598  0.1507  0.4744 -0.1251
59736SOL    HW185171  11.370   8.006   7.570  1.1316  0.6693 -0.3935
59736SOL    HW285172  11.490   7.916   7.591  0.1892 -0.3862  0.5426
59737SOL     OW85173   3.957   0.122  10.894 -0.7052  0.3291 -0.3219
59737SOL    HW185174   3.994   0.137  10.807 -0.3672  3.1211  0.2314
59737SOL    HW285175   3.996   0.190  10.949 -2.1175 -0.3845  1.6636
59738SOL     OW85176   3.314   4.809   2.086  0.3284 -0.0614  0.1386
59738SOL    HW185177   3.310   4.714   2.092  0.9205 -0.0431  0.9892
59738SOL    HW285178   3.381   4.826   2.020  1.8313 -0.2541  1.5386
59739SOL     OW85179   6.852   1.717   7.168  0.1305  0.1935  0.3490
59739SOL    HW185180   6.800   1.796   7.182  0.2023  0.0172  1.8031
59739SOL    HW285181   6.867   1.714   7.074 -0.9920  1.1932  0.1189
59740SOL     OW85182   4.994   3.500  11.198 -0.2576  0.1765 -0.8199
59740SOL    HW185183   5.066   3.437  11.200 -0.8842 -0.5781 -1.5478
59740SOL    HW285184   4.948   3.482  11.117 -1.6714  0.1959 -0.0547
59741SOL     OW85185   0.537  10.994   6.738  0.3657 -0.0141 -0.2025
59741SOL    HW185186   0.518  11.030   6.825  1.4615 -1.2097  0.5765
59741SOL    HW285187   0.570  10.906   6.756  1.3726  0.0101 -1.7921
59742SOL     OW85188  10.246  10.239   0.172  0.2520 -0.3332  0.6564
59742SOL    HW185189  10.157  10.258   0.142  0.4772  0.3433  0.4192
59742SOL    HW285190  10.252  10.282   0.258  0.1142 -0.9945  1.0058
59743SOL     OW85191   3.793   4.063   1.110  0.2899  1.0501  0.5422
59743SOL    HW185192   3.801   4.141   1.164  0.1515  0.6759  1.1124
59743SOL    HW285193   3.770   4.096   1.023  0.0021  1.6251  0.8314
59744SOL     OW85194   3.203   3.338   7.649  0.0867  0.0051  0.1756
59744SOL    HW185195   3.121   3.294   7.629 -0.8555  1.9260 -0.4079
59744SOL    HW285196   3.257   3.327   7.571  0.1751 -0.7609  0.3398
59745SOL     OW85197  12.058   7.804   2.705 -0.3353 -0.1176 -0.2853
59745SOL    HW185198  12.115   7.879   2.727  1.3466 -0.4400 -3.0469
59745SOL    HW285199  12.048   7.809   2.610 -3.8494 -0.9557 -0.0853
59746SOL     OW85200   9.985   4.909   9.555  0.1049  0.1288 -0.0489
59746SOL    HW185201   9.995   5.004   9.547  0.7210  0.2650  1.7157
59746SOL    HW285202  10.065   4.874   9.516 -1.0387  0.1761 -2.5762
59747SOL     OW85203  11.145   4.853   5.795  0.2630 -0.1815 -0.1082
59747SOL    HW185204  11.099   4.925   5.751  0.1837 -0.1971 -0.0503
59747SOL    HW285205  11.092   4.776   5.775  1.4258 -0.5823 -1.8930
59748SOL     OW85206   0.346  10.711   2.648 -0.1463  0.0134 -0.5029
59748SOL    HW185207   0.420  10.667   2.607 -1.4452 -2.4553 -0.3747
59748SOL    HW285208   0.323  10.781   2.586  0.5516 -0.9747 -1.9356
59749SOL     OW85209   1.399   4.498   0.987  0.1448  0.1310 -0.8252
59749SOL    HW185210   1.441   4.424   1.031 -1.3395 -0.6344 -0.6326
59749SOL    HW285211   1.392   4.470   0.896 -0.6688 -0.1052 -0.6998
59750SOL     OW85212  11.352   7.966   3.174  0.2045 -0.2685 -0.0480
59750SOL    HW185213  11.408   7.898   3.213 -0.5985 -0.2581  1.1736
59750SOL    HW285214  11.267   7.954   3.216  0.0379  1.4756  0.1834
59751SOL     OW85215   3.284  10.319  11.350  0.2720  1.1049  0.4310
59751SOL    HW185216   3.298  10.356  11.263  0.6678 -1.4967 -0.7092
59751SOL    HW285217   3.371  10.317  11.390  0.5368  0.0737 -0.1378
59752SOL     OW85218   1.595  12.214   5.731  0.6713 -0.0423 -0.2554
59752SOL    HW185219   1.689  12.224   5.715  1.0862  0.0633  1.8899
59752SOL    HW285220   1.583  12.246   5.821 -1.6925  1.4360 -1.0086
59753SOL     OW85221  11.251   5.780  10.226 -0.5654 -0.6701 -0.1974
59753SOL    HW185222  11.217   5.703  10.180 -0.3494 -0.5958 -0.4765
59753SOL    HW285223  11.253   5.849  10.160 -0.9272 -0.3730  0.0955
59754SOL     OW85224   2.197   9.335   4.316 -0.9300 -0.0783 -0.5774
59754SOL    HW185225   2.105   9.319   4.297 -1.4964  0.7132  1.2702
59754SOL    HW285226   2.223   9.402   4.253 -1.4001 -0.7782 -1.5484
59755SOL     OW85227   9.490   0.575  11.543  0.6708 -0.5339  0.5417
59755SOL    HW185228   9.550   0.593  11.471 -0.1112  1.8598  0.3675
59755SOL    HW285229   9.421   0.521  11.504  0.8377 -0.2143 -0.2127
59756SOL     OW85230   3.212   0.636   2.441  0.4283 -0.0488 -0.1337
59756SOL    HW185231   3.175   0.548   2.433 -1.1603  0.5466  0.2142
59756SOL    HW285232   3.305   0.621   2.458  0.4508 -1.6180 -1.3744
59757SOL     OW85233  11.089   8.178  12.059  0.6128 -0.1192  0.1428
59757SOL    HW185234  11.003   8.194  12.097  0.7860 -2.4599  1.7219
59757SOL    HW285235  11.072   8.133  11.977  0.2722 -1.1652  0.7586
59758SOL     OW85236   1.172   5.600   5.711 -0.0765  0.5034  0.1665
59758SOL    HW185237   1.202   5.509   5.718 -0.9724  0.2353  0.6034
59758SOL    HW285238   1.252   5.652   5.716  0.4009 -0.2387  0.3588
59759SOL     OW85239   4.768   2.989   4.826 -0.1621 -0.4511  0.0961
59759SOL    HW185240   4.797   2.979   4.735 -1.2023 -0.1111 -0.2957
59759SOL    HW285241   4.730   2.904   4.848  0.1477 -0.5536  0.2318
59760SOL     OW85242   2.334   0.866   7.816 -0.1310 -0.0038  0.3539
59760SOL    HW185243   2.375   0.805   7.754  2.1153  0.5835  1.1763
59760SOL    HW285244   2.313   0.943   7.764  0.6468  0.0294  0.0786
59761SOL     OW85245   7.692   4.584   9.555 -0.5790 -0.1268 -0.0704
59761SOL    HW185246   7.699   4.602   9.649 -0.7325 -0.0919 -0.0661
59761SOL    HW285247   7.744   4.653   9.513 -2.2449  1.1618 -0.1341
59762SOL     OW85248  11.846   8.261   6.440  0.4233 -0.2731  0.0069
59762SOL    HW185249  11.924   8.245   6.387 -0.2619  1.2868 -1.5903
59762SOL    HW285250  11.787   8.309   6.381 -1.7333 -1.3525  1.1726
59763SOL     OW85251   7.758   0.890   5.175  0.1707 -0.0919 -0.8110
59763SOL    HW185252   7.691   0.881   5.243  1.5677 -1.3739  0.4754
59763SOL    HW285253   7.801   0.973   5.194  0.3663 -0.3093 -0.2824
59764SOL     OW85254  10.952   3.980   2.553  0.0792  0.1392 -0.1701
59764SOL    HW185255  11.001   4.020   2.482  0.2259 -2.2974 -1.5130
59764SOL    HW285256  10.860   3.999   2.532  0.1082 -0.7650 -1.1493
59765SOL     OW85257   7.327   5.222   8.229  0.6261  0.1378 -0.5032
59765SOL    HW185258   7.290   5.143   8.191  1.8813 -1.1190  0.7698
59765SOL    HW285259   7.402   5.243   8.173  0.9677 -0.2645 -0.2126
59766SOL     OW85260   6.494   3.203   4.596 -0.2042 -0.4511  0.3838
59766SOL    HW185261   6.503   3.109   4.578  0.3159 -0.2840 -0.2380
59766SOL    HW285262   6.400   3.217   4.604 -0.3599 -0.8160 -0.6919
59767SOL     OW85263   2.984   4.414   0.005  0.1041  0.1793  0.4412
59767SOL    HW185264   2.972   4.470   0.082  0.2023  0.3683  0.3168
59767SOL    HW285265   2.956   4.467  -0.069  1.2025  0.4449  0.2063
59768SOL     OW85266   0.567   5.548   1.983  0.3650  0.0125  0.5285
59768SOL    HW185267   0.477   5.541   2.013  0.1634 -1.5613 -0.3481
59768SOL    HW285268   0.593   5.638   2.006 -1.0316  0.1284  1.7938
59769SOL     OW85269   5.678   6.622   9.606  0.5673 -0.3279 -0.1078
59769SOL    HW185270   5.636   6.551   9.557  2.5607  0.5155 -3.3912
59769SOL    HW285271   5.756   6.583   9.644  0.5779 -0.3571 -0.1596
59770SOL     OW85272   6.154   5.666   3.443  0.1542 -0.1386  0.1829
59770SOL    HW185273   6.201   5.705   3.370 -0.4511 -0.6473 -0.4868
59770SOL    HW285274   6.066   5.705   3.439 -0.0360 -0.5394  0.3290
59771SOL     OW85275   2.799   3.118  11.196 -0.9031 -0.3062  0.1873
59771SOL    HW185276   2.785   3.086  11.107  1.9157 -1.2032 -0.0329
59771SOL    HW285277   2.800   3.214  11.187 -1.3530 -0.3651 -0.6058
59772SOL     OW85278   0.082   6.809   0.304 -0.3208  0.6453  0.1657
59772SOL    HW185279  -0.011   6.831   0.293 -0.0932  1.4169 -0.3355
59772SOL    HW285280   0.096   6.815   0.398 -1.4834 -2.5714  0.6527
59773SOL     OW85281  11.232   5.355   6.431 -0.2436 -0.2660  0.0512
59773SOL    HW185282  11.164   5.406   6.475 -0.2755 -1.4910  1.5206
59773SOL    HW285283  11.191   5.270   6.413  0.5749 -0.6827  0.0610
59774SOL     OW85284   0.321   0.828  10.035  0.3115 -0.3882 -0.0397
59774SOL    HW185285   0.387   0.875  10.085 -0.7512 -0.5407  1.5916
59774SOL    HW285286   0.237   0.860  10.069 -0.4824 -0.3295 -1.9137
59775SOL     OW85287   1.703  10.516   0.355  0.1397 -0.4544 -0.6524
59775SOL    HW185288   1.670  10.591   0.404 -1.5518 -2.1360  0.9468
59775SOL    HW285289   1.631  10.490   0.298 -0.3113 -2.3368  0.6663
59776SOL     OW85290  10.587   2.921   7.000 -0.3388  0.4789 -0.0153
59776SOL    HW185291  10.641   2.864   7.055 -1.2038  0.3524  0.7170
59776SOL    HW285292  10.573   2.870   6.920 -1.0034 -0.3074  0.5836
59777SOL     OW85293   6.628   9.654   3.273 -0.1582 -0.5144  0.6423
59777SOL    HW185294   6.708   9.612   3.242 -1.3033 -2.4955  0.1169
59777SOL    HW285295   6.621   9.627   3.365 -0.3775 -0.6314  0.5930
59778SOL     OW85296   9.348   9.736   4.667 -0.1313 -0.0954 -0.1768
59778SOL    HW185297   9.281   9.670   4.684 -1.3114  0.7506 -1.3429
59778SOL    HW285298   9.406   9.696   4.602 -0.0692 -0.4738  0.1116
59779SOL     OW85299   5.337   3.167   5.085 -0.2367  0.1354 -0.2600
59779SOL    HW185300   5.358   3.205   5.000 -0.4790 -0.5388 -0.6290
59779SOL    HW285301   5.242   3.164   5.087 -0.2290  0.0287 -0.0153
59780SOL     OW85302   9.988  10.852   0.161 -0.4176 -0.4327  0.7845
59780SOL    HW185303   9.923  10.869   0.093 -0.5020  1.1387  1.2175
59780SOL    HW285304  10.037  10.934   0.168  1.6332 -1.5754  0.4608
59781SOL     OW85305   0.994   6.969   7.135  0.4158  0.0027  0.1435
59781SOL    HW185306   1.080   6.994   7.101  0.5394 -0.6207 -0.0215
59781SOL    HW285307   0.932   7.026   7.089  0.9003  2.3899  2.2259
59782SOL     OW85308   3.081   9.711  11.074 -0.2266  0.1089 -0.1175
59782SOL    HW185309   3.173   9.689  11.063 -0.7811 -2.7387 -0.0425
59782SOL    HW285310   3.079   9.769  11.150  1.3935 -1.2171  1.0117
59783SOL     OW85311   8.276   1.647  11.873 -0.2024  0.3877  0.5377
59783SOL    HW185312   8.297   1.661  11.781  0.8841  3.6251  1.1492
59783SOL    HW285313   8.194   1.695  11.887 -0.0529  0.4157  1.3752
59784SOL     OW85314   8.068   8.212   3.528  0.2495 -0.2272  0.3221
59784SOL    HW185315   8.066   8.301   3.562 -1.5777 -0.4985  1.0619
59784SOL    HW285316   8.054   8.221   3.434  1.8596  0.3371  0.1150
59785SOL     OW85317   0.064   6.286   8.125  0.0487 -0.4878 -0.3857
59785SOL    HW185318   0.147   6.307   8.081  0.2729 -0.1119  0.1960
59785SOL    HW285319   0.090   6.230   8.199 -0.0578  0.6228  0.5196
59786SOL     OW85320   5.324   4.322   4.611 -0.2116 -0.4883  0.5988
59786SOL    HW185321   5.283   4.292   4.530 -1.2264  0.0772  0.8872
59786SOL    HW285322   5.418   4.312   4.595 -0.4498 -1.7994 -0.0772
59787SOL     OW85323   2.213   2.899   0.014 -0.6888  0.1389 -0.3147
59787SOL    HW185324   2.138   2.859   0.057 -1.2100  2.0094  0.6623
59787SOL    HW285325   2.190   2.903  -0.078 -1.1800 -0.5554 -0.2233
59788SOL     OW85326   1.866   8.973   4.790 -0.1166  0.4519  0.0920
59788SOL    HW185327   1.868   8.879   4.773 -1.3432  0.4310 -0.0067
59788SOL    HW285328   1.863   8.980   4.886 -1.1838  0.3477  0.0754
59789SOL     OW85329   7.902   1.000   8.432  0.0993 -0.0610  0.1617
59789SOL    HW185330   7.883   1.072   8.372 -2.0320  0.9431  1.9477
59789SOL    HW285331   7.925   1.042   8.514  1.5763 -1.4413  0.5127
59790SOL     OW85332   3.059   5.645   9.545  0.4918  0.3374  0.5244
59790SOL    HW185333   3.044   5.554   9.519 -2.0629 -0.1463  3.0911
59790SOL    HW285334   3.154   5.655   9.542  0.7862 -1.9350 -1.1654
59791SOL     OW85335  10.053   2.753   5.139 -0.7316  0.1379  0.4278
59791SOL    HW185336  10.044   2.799   5.223 -0.9535 -1.0034  1.0390
59791SOL    HW285337  10.111   2.680   5.158 -1.4614 -0.6265 -0.2209
59792SOL     OW85338   5.622   4.882   3.724 -0.0384 -0.4844  0.6801
59792SOL    HW185339   5.625   4.846   3.636  1.5232  2.2664 -0.5219
59792SOL    HW285340   5.700   4.847   3.768 -0.2095 -0.9700  0.5975
59793SOL     OW85341   9.388   2.010   5.709 -0.1077 -0.2025  0.5203
59793SOL    HW185342   9.412   2.003   5.801 -1.8643 -0.2531  1.0142
59793SOL    HW285343   9.361   2.102   5.699 -1.5185 -0.5855  0.5172
59794SOL     OW85344   6.189   4.361   1.208  0.2856 -0.5108  0.4885
59794SOL    HW185345   6.137   4.317   1.141  0.2807 -0.7921  0.6715
59794SOL    HW285346   6.280   4.352   1.177  0.1221  1.8345 -0.9157
59795SOL     OW85347   4.620  12.333  11.674 -0.2415 -0.4279 -0.6001
59795SOL    HW185348   4.525  12.340  11.664 -0.2185 -1.5768 -1.9888
59795SOL    HW285349   4.653  12.315  11.586  1.3001  0.1435 -0.1811
59796SOL     OW85350  11.432  12.205   1.435 -0.0603 -0.3837 -0.0947
59796SOL    HW185351  11.449  12.291   1.394 -0.5767 -0.0506  0.3726
59796SOL    HW285352  11.453  12.218   1.527  1.2763 -1.1888 -0.2588
59797SOL     OW85353   7.614   3.293   2.388  0.5118 -0.3227 -0.1640
59797SOL    HW185354   7.673   3.221   2.413  1.0774 -0.3578 -1.5401
59797SOL    HW285355   7.652   3.329   2.308  0.7109  2.1055  0.9673
59798SOL     OW85356   4.304  10.051   7.568 -0.2208  0.4705 -0.4014
59798SOL    HW185357   4.319  10.097   7.485  0.5181 -0.0099 -0.5433
59798SOL    HW285358   4.238   9.984   7.547 -0.4104  0.6783 -0.4743
59799SOL     OW85359  11.234   1.934   1.232  0.3803  0.4483  0.0366
59799SOL    HW185360  11.305   1.883   1.193 -0.0450  1.2989 -1.9694
59799SOL    HW285361  11.196   1.982   1.159 -1.9003  0.4791  1.1569
59800SOL     OW85362   3.435  12.251   0.885  0.0565 -0.0037  0.7202
59800SOL    HW185363   3.425  12.260   0.979  1.6986 -0.1399  0.9487
59800SOL    HW285364   3.394  12.167   0.864 -0.2753  0.0036  1.3271
59801SOL     OW85365   6.602   0.090   6.863  0.2650  0.5600 -0.3384
59801SOL    HW185366   6.681   0.072   6.913 -0.7487 -1.5681  0.6107
59801SOL    HW285367   6.610   0.036   6.785  1.0725  2.6228 -1.7670
59802SOL     OW85368   5.317   7.905   5.511  0.3307 -0.6100 -0.0117
59802SOL    HW185369   5.269   7.988   5.501 -1.9602 -1.7125  1.0072
59802SOL    HW285370   5.394   7.928   5.563  1.2721  1.3229 -2.0691
59803SOL     OW85371  11.549   4.998   9.535 -0.1454 -0.1013  0.3760
59803SOL    HW185372  11.557   5.072   9.596  0.4286  0.7854 -0.7364
59803SOL    HW285373  11.563   5.037   9.449 -0.3116 -1.4402 -0.2727
59804SOL     OW85374   9.248   9.694   6.589 -0.1716 -0.3233 -0.2567
59804SOL    HW185375   9.237   9.772   6.644  1.2896  0.7158 -1.3631
59804SOL    HW285376   9.312   9.640   6.636  0.0444 -0.0808 -0.2709
59805SOL     OW85377   9.618  10.738   0.665  0.1565 -0.2045 -0.0184
59805SOL    HW185378   9.554  10.806   0.687  1.2257  1.4608 -1.7242
59805SOL    HW285379   9.691  10.786   0.626  2.2487 -2.0611  1.3517
59806SOL     OW85380  10.512   5.245   6.119  0.2444  0.3440 -0.5623
59806SOL    HW185381  10.534   5.241   6.026 -1.4982  0.8894 -1.0338
59806SOL    HW285382  10.439   5.306   6.124 -2.1726 -2.3916  0.6564
59807SOL     OW85383  11.015   2.864   1.927  0.1320 -0.4323 -0.1515
59807SOL    HW185384  10.979   2.776   1.933 -0.6168 -0.4447 -3.1800
59807SOL    HW285385  11.108   2.851   1.906  0.2825 -0.4679  0.5185
59808SOL     OW85386   8.292   9.415   9.003  0.2576 -0.0247 -0.3436
59808SOL    HW185387   8.226   9.484   9.006  2.0716  1.7837  0.2087
59808SOL    HW285388   8.305   9.390   9.094  0.0175 -0.7327 -0.4942
59809SOL     OW85389  10.150   6.944   6.414  0.2861 -0.9266 -0.0486
59809SOL    HW185390  10.078   6.969   6.471  1.1535  1.1722  0.2038
59809SOL    HW285391  10.107   6.909   6.335 -1.0141  0.4514  0.0076
59810SOL     OW85392   0.638   8.692   5.170  0.1173  0.1733  0.0143
59810SOL    HW185393   0.551   8.660   5.193 -0.1199  1.0398  0.3634
59810SOL    HW285394   0.683   8.702   5.254  0.8015 -0.9266 -0.2063
59811SOL     OW85395   1.708  11.519   4.342  0.4582  0.2765  0.0146
59811SOL    HW185396   1.725  11.593   4.401  0.6367  1.4651 -1.4802
59811SOL    HW285397   1.615  11.500   4.353  0.2845  1.1000 -0.0040
59812SOL     OW85398   5.650   5.109   9.508 -0.0212 -0.5862 -0.5738
59812SOL    HW185399   5.588   5.123   9.580 -1.3607 -2.4816 -1.2560
59812SOL    HW285400   5.726   5.068   9.550 -0.2907 -0.5846 -0.0696
59813SOL     OW85401   8.106   7.245  11.083  0.3811 -0.8193  0.3726
59813SOL    HW185402   8.184   7.214  11.037  0.7399 -0.3297  0.6440
59813SOL    HW285403   8.081   7.172  11.140  0.3649 -1.1532 -0.0610
59814SOL     OW85404   5.567  11.964   3.588 -0.2300  0.3855 -0.6992
59814SOL    HW185405   5.529  11.948   3.674 -1.0523  0.4133 -1.0403
59814SOL    HW285406   5.639  11.902   3.581  0.5799  1.1697  0.4576
59815SOL     OW85407   4.740   1.528   0.567  0.4965 -0.0506  0.4974
59815SOL    HW185408   4.798   1.573   0.628  0.3524 -0.0827  0.6586
59815SOL    HW285409   4.778   1.441   0.557  0.3043 -0.1754  0.8447
59816SOL     OW85410   1.950  12.214  10.748  0.4859 -0.6710  0.0388
59816SOL    HW185411   2.024  12.230  10.690 -0.4894 -1.9551 -1.6992
59816SOL    HW285412   1.873  12.222  10.690 -0.7214  0.1740  1.6671
59817SOL     OW85413  10.790  12.118   3.334  0.5970  0.9577 -0.0314
59817SOL    HW185414  10.785  12.155   3.422  0.9409 -1.9686  1.3196
59817SOL    HW285415  10.880  12.089   3.324  0.5343  1.1228 -1.3265
59818SOL     OW85416   0.070   2.775   5.318 -0.6562 -0.3463 -0.0815
59818SOL    HW185417   0.056   2.737   5.232 -0.1659  1.6225 -1.0821
59818SOL    HW285418  -0.016   2.806   5.346 -1.0410 -2.0135  0.6995
59819SOL     OW85419   4.900   3.080   7.372  0.3659 -0.4404  0.1640
59819SOL    HW185420   4.992   3.071   7.399  0.4093 -0.4667  0.0090
59819SOL    HW285421   4.892   3.022   7.296  0.4509  0.2509 -0.3797
59820SOL     OW85422   8.628   5.617   3.756 -0.4125 -0.0017 -0.3848
59820SOL    HW185423   8.709   5.666   3.764  0.0328 -0.8609  0.4995
59820SOL    HW285424   8.622   5.566   3.837 -1.0458 -1.1145 -1.1082
59821SOL     OW85425   3.843   3.240  12.046  0.5057 -0.4975  0.4533
59821SOL    HW185426   3.890   3.322  12.060 -0.4715  0.4816 -1.5887
59821SOL    HW285427   3.754   3.257  12.076  0.2332 -0.7152 -0.2047
59822SOL     OW85428   7.935   4.020   7.942 -0.0638 -0.5451 -0.1299
59822SOL    HW185429   8.026   3.994   7.928 -0.0565 -0.3676 -0.4239
59822SOL    HW285430   7.893   4.006   7.857  0.7962  4.0785 -1.5898
59823SOL     OW85431   5.610   1.652   2.421  0.3323 -0.1460 -0.0308
59823SOL    HW185432   5.637   1.737   2.457  0.3683  0.4464 -1.3731
59823SOL    HW285433   5.544   1.620   2.482  0.5569  0.6991  0.6722
59824SOL     OW85434   4.388   2.996  10.935 -0.0466 -0.3106  0.1913
59824SOL    HW185435   4.443   3.065  10.970  0.1584 -0.0565 -0.6049
59824SOL    HW285436   4.299   3.031  10.938 -0.1286 -0.5819  1.1400
59825SOL     OW85437  12.084   4.728   2.842  0.8591 -0.1166 -0.2198
59825SOL    HW185438  12.054   4.706   2.930  1.6406 -0.4611 -0.0265
59825SOL    HW285439  12.066   4.649   2.791 -0.5751  0.4485 -0.6455
59826SOL     OW85440   0.538   5.721   7.645  0.2428  0.2750 -0.1299
59826SOL    HW185441   0.462   5.728   7.702  0.1855  0.7480 -0.2547
59826SOL    HW285442   0.509   5.668   7.571  0.1207  0.2145 -0.0375
59827SOL     OW85443   8.470   2.911   9.704  0.3850 -0.1464 -0.1518
59827SOL    HW185444   8.531   2.899   9.631 -0.1866 -1.4773 -0.4553
59827SOL    HW285445   8.453   3.005   9.707  1.8334  0.1520 -0.5549
59828SOL     OW85446   1.637   0.292   9.764  0.4811 -0.0967  0.0544
59828SOL    HW185447   1.592   0.286   9.680  1.2333 -1.0921 -0.2997
59828SOL    HW285448   1.578   0.343   9.819 -1.3720 -1.8708 -0.1759
59829SOL     OW85449   8.283   7.542   0.506 -0.0975  0.3296 -0.0056
59829SOL    HW185450   8.266   7.578   0.419  2.4834  3.7930  0.6774
59829SOL    HW285451   8.226   7.593   0.564 -0.1758 -0.3949  0.5675
59830SOL     OW85452  10.184   7.722   5.421  0.5497  0.2533  0.1196
59830SOL    HW185453  10.259   7.687   5.373  1.3865  0.7053  1.0643
59830SOL    HW285454  10.182   7.815   5.397 -0.0236  0.1420 -0.2882
59831SOL     OW85455   5.970  11.462  11.845  0.1718 -0.1923  0.7835
59831SOL    HW185456   5.953  11.368  11.859  2.0653 -0.6141  0.5627
59831SOL    HW285457   5.968  11.472  11.750 -0.2074  0.0446  0.8138
59832SOL     OW85458   9.769   1.859   4.909  0.0682 -0.2782  0.3819
59832SOL    HW185459   9.694   1.799   4.914  0.5588 -0.8374  1.0664
59832SOL    HW285460   9.787   1.866   4.815 -0.3092 -0.8084  0.2624
59833SOL     OW85461   7.102   4.349   1.167  0.1159  0.2503 -0.0815
59833SOL    HW185462   7.033   4.323   1.228  0.3266 -0.9339 -0.3083
59833SOL    HW285463   7.142   4.266   1.140  0.3116  0.7803 -1.5014
59834SOL     OW85464   7.547   7.479  12.305  0.1671 -0.4815  0.0329
59834SOL    HW185465   7.501   7.561  12.290  1.6787  0.4549  0.2589
59834SOL    HW285466   7.615   7.501  12.369 -0.0578 -2.1643  0.9297
59835SOL     OW85467   9.355  10.473   9.034 -0.0467 -0.6840  0.1200
59835SOL    HW185468   9.399  10.388   9.035  1.3037 -0.0283 -0.1599
59835SOL    HW285469   9.348  10.495   8.941  0.4149 -0.1236  0.2074
59836SOL     OW85470  11.162   7.177  12.091 -0.0467 -0.0862  0.3022
59836SOL    HW185471  11.108   7.133  12.157 -0.1519 -2.2405 -1.1325
59836SOL    HW285472  11.248   7.185  12.132 -0.4304 -0.2641  1.1587
59837SOL     OW85473  11.217   2.599   3.964  0.4381  0.0809 -0.1391
59837SOL    HW185474  11.307   2.577   3.987  0.4958 -0.5378 -0.9161
59837SOL    HW285475  11.165   2.567   4.038  0.3594 -4.0665 -1.7061
59838SOL     OW85476   2.904   1.032   8.193  0.0351  0.4149 -0.6745
59838SOL    HW185477   2.919   1.047   8.286  0.1428  0.6978 -0.7340
59838SOL    HW285478   2.968   0.965   8.169  0.8306  1.1894 -0.7981
59839SOL     OW85479   2.185  10.672   8.742  0.1129  0.0183 -0.1009
59839SOL    HW185480   2.230  10.747   8.781  2.6253 -2.5181  2.2900
59839SOL    HW285481   2.098  10.672   8.782 -0.0766  1.7696 -0.4243
59840SOL     OW85482   5.630   8.877  11.628 -0.1484  0.1539  0.1757
59840SOL    HW185483   5.660   8.966  11.647  2.4388 -0.8793  1.4860
59840SOL    HW285484   5.610   8.839  11.714  0.4004 -1.0021 -0.1789
59841SOL     OW85485   4.000   3.431   5.705  0.1565 -0.0165  0.0239
59841SOL    HW185486   3.971   3.510   5.750  0.9074 -0.7761  1.8985
59841SOL    HW285487   3.972   3.359   5.761 -0.9638 -1.1673 -1.8920
59842SOL     OW85488  12.293  10.060  11.800 -0.1711  0.0958  0.5237
59842SOL    HW185489  12.236  10.132  11.774  0.8717  0.6113 -0.3967
59842SOL    HW285490  12.251  10.023  11.878 -0.6598  1.7652  1.0784
59843SOL     OW85491   1.891   8.246   4.420  0.5489  0.2284 -0.9031
59843SOL    HW185492   1.979   8.279   4.401  0.4371  0.0687 -1.7555
59843SOL    HW285493   1.835   8.324   4.414  0.4858  0.1433 -1.4535
59844SOL     OW85494   1.587   2.368   1.902 -0.0294 -0.4351 -0.2579
59844SOL    HW185495   1.501   2.380   1.943  0.4022  0.7632  0.3328
59844SOL    HW285496   1.642   2.334   1.972  0.1755 -0.4417 -0.4219
59845SOL     OW85497  12.225   0.967   1.033 -0.5650 -0.0916  0.7547
59845SOL    HW185498  12.276   0.943   1.110 -0.3126  0.2750  0.7052
59845SOL    HW285499  12.158   0.899   1.026  0.0301 -0.6814  0.7130
59846SOL     OW85500   3.598   5.403   0.755 -0.2069 -0.0291 -0.2059
59846SOL    HW185501   3.525   5.465   0.745 -0.7957 -0.9849 -2.4706
59846SOL    HW285502   3.568   5.341   0.822 -0.2768  1.1426  0.8984
59847SOL     OW85503   8.624   9.874   3.405  0.1988  0.3446 -0.3230
59847SOL    HW185504   8.548   9.867   3.346 -0.2783  1.6956  0.0845
59847SOL    HW285505   8.699   9.879   3.346 -0.2807  1.7813 -0.8505
59848SOL     OW85506   8.961   3.108  10.066 -0.2275  0.1106  0.2297
59848SOL    HW185507   8.879   3.059  10.060  0.4454 -1.1781  1.1664
59848SOL    HW285508   9.028   3.041  10.080  1.1827  0.9989 -1.7116
59849SOL     OW85509   9.909   1.190   0.831 -0.2179  0.2258  0.4015
59849SOL    HW185510   9.860   1.178   0.750 -1.8971  1.8222  1.1049
59849SOL    HW285511   9.850   1.242   0.887  0.5121 -1.5283  2.9716
59850SOL     OW85512   1.704   9.313   0.847  0.0662  0.1102  0.0350
59850SOL    HW185513   1.790   9.281   0.877 -0.1376  1.3459  2.1427
59850SOL    HW285514   1.650   9.234   0.844  0.8738 -0.4668  0.1450
59851SOL     OW85515   1.736   0.431   9.115 -0.0939 -0.2404  0.8068
59851SOL    HW185516   1.686   0.440   9.196 -0.0503 -1.5348  0.9980
59851SOL    HW285517   1.822   0.401   9.144  0.6939  1.5450  0.4434
59852SOL     OW85518  12.123   6.779   1.669  0.4268  0.1633  0.4589
59852SOL    HW185519  12.160   6.740   1.590  1.2927  2.6488 -0.4490
59852SOL    HW285520  12.195   6.826   1.710 -0.6531  1.2739  1.1716
59853SOL     OW85521  10.432   0.267   7.124 -0.1049 -0.1229  0.3977
59853SOL    HW185522  10.446   0.295   7.033 -1.6145 -1.0545 -0.1621
59853SOL    HW285523  10.465   0.177   7.126 -1.6224 -0.6985  0.2943
59854SOL     OW85524   1.214  10.339   4.711  0.1224  0.0958 -0.0045
59854SOL    HW185525   1.225  10.273   4.642  0.5032  0.9569 -0.7848
59854SOL    HW285526   1.273  10.311   4.781 -0.0262 -0.6121 -0.1568
59855SOL     OW85527   8.779   5.928   3.585 -0.2111 -0.3492  0.5616
59855SOL    HW185528   8.835   5.875   3.641 -1.1057 -0.5900  1.2517
59855SOL    HW285529   8.702   5.946   3.638  0.0164  1.5792  0.3314
59856SOL     OW85530   4.764   8.135  11.652  0.2482 -0.2887  0.0537
59856SOL    HW185531   4.739   8.211  11.706 -0.3490  0.9130 -1.8144
59856SOL    HW285532   4.700   8.135  11.581  0.1973 -2.6390  0.0382
59857SOL     OW85533   4.761   1.537   6.367  0.2777 -0.3810 -0.5321
59857SOL    HW185534   4.809   1.582   6.436 -0.4845  0.0116 -0.2536
59857SOL    HW285535   4.805   1.452   6.359  0.2563 -0.5166  0.5766
59858SOL     OW85536   8.742  10.128   8.619  0.3103 -0.0973 -0.0078
59858SOL    HW185537   8.815  10.078   8.582  1.0045 -0.9659  2.3522
59858SOL    HW285538   8.738  10.207   8.566  2.2411 -0.5509 -0.9299
59859SOL     OW85539   9.562   8.710   0.530  0.1101  0.1940 -0.0063
59859SOL    HW185540   9.577   8.626   0.487 -0.7547  0.6144 -1.2073
59859SOL    HW285541   9.627   8.714   0.600  1.2525 -0.7560 -0.9748
59860SOL     OW85542  12.068  10.271   0.063  0.4535 -0.5825 -0.0728
59860SOL    HW185543  11.974  10.255   0.060  0.5927 -1.3647 -0.4621
59860SOL    HW285544  12.080  10.330   0.137 -0.3673 -0.2733 -0.1738
59861SOL     OW85545  11.785   8.535   1.224 -0.2460 -0.3785 -0.3629
59861SOL    HW185546  11.745   8.604   1.278 -0.3188 -0.5701 -0.1682
59861SOL    HW285547  11.737   8.456   1.248  0.1311 -0.5756 -0.2654
59862SOL     OW85548  10.841  12.395   8.187 -0.2240  0.5871  0.1793
59862SOL    HW185549  10.913  12.387   8.249 -0.0775 -2.5497 -0.2151
59862SOL    HW285550  10.764  12.367   8.237 -0.7103  1.3317 -0.1402
59863SOL     OW85551   4.240   1.262  12.466 -0.2122 -0.2572 -0.4218
59863SOL    HW185552   4.307   1.260  12.397 -1.0902 -0.5112 -1.2958
59863SOL    HW285553   4.260   1.341  12.516  0.5177 -0.1270 -0.8984
59864SOL     OW85554   1.282   9.241   8.967 -0.4933  0.5907  0.0606
59864SOL    HW185555   1.300   9.224   9.059 -1.0770 -1.2059 -0.1137
59864SOL    HW285556   1.259   9.155   8.931  0.4759  1.1205 -1.9450
59865SOL     OW85557   8.041   0.758   2.845 -0.2757  0.1042  0.2281
59865SOL    HW185558   8.039   0.771   2.940 -0.0136 -0.5872  0.3334
59865SOL    HW285559   7.953   0.781   2.816 -0.1589  0.9750  0.5436
59866SOL     OW85560  10.651  10.441   1.554 -0.2139  0.2009  0.4274
59866SOL    HW185561  10.640  10.521   1.604  0.7760  0.4814  0.2138
59866SOL    HW285562  10.719  10.392   1.600 -0.7995 -0.5222  0.5522
59867SOL     OW85563  10.389   5.064   5.741  0.1313 -0.3929  0.1495
59867SOL    HW185564  10.300   5.036   5.718  0.2479 -0.5090 -0.1587
59867SOL    HW285565  10.389   5.064   5.837 -0.6542  1.0525  0.1763
59868SOL     OW85566  11.730  11.397   0.428 -0.0509 -0.6009  0.0316
59868SOL    HW185567  11.703  11.417   0.338  1.0594  1.1857  0.0298
59868SOL    HW285568  11.665  11.334   0.460 -0.6771 -0.9859 -1.8914
59869SOL     OW85569   8.864  11.108   5.078  0.0610 -0.5783 -0.6441
59869SOL    HW185570   8.852  11.037   5.015  3.2293 -0.1773 -1.9101
59869SOL    HW285571   8.930  11.075   5.139  0.8957  0.8568 -0.7024
59870SOL     OW85572   9.154   5.884  11.977  0.0587 -0.2348 -0.3505
59870SOL    HW185573   9.132   5.925  11.893 -1.7650 -1.2840 -0.4504
59870SOL    HW285574   9.071   5.847  12.007  1.0160 -1.2477  1.1581
59871SOL     OW85575   5.084   0.664  11.158  0.4067 -0.4920  0.0839
59871SOL    HW185576   5.130   0.587  11.190  1.1887  0.1666  0.5692
59871SOL    HW285577   5.068   0.646  11.065  1.0260 -1.0261  0.0756
59872SOL     OW85578   0.782   4.657   3.298 -0.7019  0.3106  0.6895
59872SOL    HW185579   0.838   4.654   3.220 -2.1380  0.4312 -0.4004
59872SOL    HW285580   0.693   4.653   3.263 -1.3791 -1.5895  2.4401
59873SOL     OW85581   0.225   3.752   5.843 -0.0116 -0.3789  0.3500
59873SOL    HW185582   0.203   3.659   5.848  1.0106 -0.5950  0.9484
59873SOL    HW285583   0.319   3.756   5.861 -0.1471  0.8230  0.8761
59874SOL     OW85584   4.846  11.400   6.918  0.2145  0.1393 -0.4100
59874SOL    HW185585   4.766  11.396   6.971 -0.1250 -0.6549 -0.9576
59874SOL    HW285586   4.915  11.422   6.980 -0.1173 -1.1192  0.4497
59875SOL     OW85587  11.715   4.107   3.431  0.4085 -0.0456  0.1236
59875SOL    HW185588  11.786   4.129   3.491 -1.1555  1.3383  1.5748
59875SOL    HW285589  11.689   4.018   3.456  0.0827  0.3435  1.2452
59876SOL     OW85590  11.365  10.243  10.823  0.4066 -0.0008  0.5167
59876SOL    HW185591  11.438  10.198  10.779  0.0636 -1.4692  1.3953
59876SOL    HW285592  11.403  10.327  10.851  1.6971 -0.6107  0.6935
59877SOL     OW85593  11.167   9.238   3.696  0.5092 -0.5492 -0.4506
59877SOL    HW185594  11.138   9.304   3.633  2.0102  0.5108 -0.0830
59877SOL    HW285595  11.111   9.252   3.773  2.6663  2.4247  0.8004
59878SOL     OW85596   2.646   6.126   5.995 -0.1806 -0.3044  0.0614
59878SOL    HW185597   2.671   6.056   5.934  0.6676 -0.7472  0.8940
59878SOL    HW285598   2.727   6.173   6.011 -0.3406 -0.3465  1.0391
59879SOL     OW85599   1.394   9.649   5.901  0.1864  0.1354 -0.3172
59879SOL    HW185600   1.371   9.569   5.854 -0.3134  0.4854 -0.6810
59879SOL    HW285601   1.444   9.619   5.976 -0.1564 -0.5352 -0.3469
59880SOL     OW85602   5.956   2.931   4.946  0.1234  0.0793 -0.2339
59880SOL    HW185603   5.925   2.841   4.942  0.8060 -0.4801  3.2164
59880SOL    HW285604   5.922   2.964   5.030  1.0740  2.5479 -0.7338
59881SOL     OW85605   0.237   2.818   6.917  0.3104 -0.1978  0.3047
59881SOL    HW185606   0.275   2.862   6.840  1.2154  0.1236  0.9166
59881SOL    HW285607   0.171   2.880   6.949 -1.0503 -0.9145 -0.9744
59882SOL     OW85608   2.354  11.920   8.741  0.5948  0.2913 -0.0388
59882SOL    HW185609   2.423  11.897   8.803  0.4187  0.0508  0.0707
59882SOL    HW285610   2.335  12.012   8.759 -0.1546 -0.0358  0.9660
59883SOL     OW85611  12.212   3.652   0.341 -0.1582  0.6121  0.2161
59883SOL    HW185612  12.178   3.740   0.327  1.8001  1.1255 -2.0288
59883SOL    HW285613  12.294   3.665   0.389  1.1377  0.3003 -1.7692
59884SOL     OW85614  10.242   6.368   9.282 -0.6528  0.0857  0.2971
59884SOL    HW185615  10.173   6.314   9.321 -1.5983  1.1523  0.1411
59884SOL    HW285616  10.215   6.379   9.191 -0.8400  1.3572  0.4847
59885SOL     OW85617   1.196   1.607   6.981 -0.3343  0.4487  0.4819
59885SOL    HW185618   1.139   1.672   6.938  0.3019  2.0772  2.0148
59885SOL    HW285619   1.195   1.631   7.073  2.4968  0.2506  0.6328
59886SOL     OW85620   0.375   3.540   5.369  0.2210 -0.1021  0.7593
59886SOL    HW185621   0.334   3.497   5.444 -1.2144 -1.0850 -0.5222
59886SOL    HW285622   0.307   3.597   5.333  1.0298  0.6947  0.4410
59887SOL     OW85623   4.239   9.633   5.479  0.1406  0.7865 -0.2701
59887SOL    HW185624   4.161   9.680   5.508 -0.6723 -1.4087  1.3154
59887SOL    HW285625   4.247   9.656   5.386 -1.8559  1.7517 -0.2634
59888SOL     OW85626   5.520   8.039  10.407 -0.0061 -0.6194  0.2534
59888SOL    HW185627   5.444   8.056  10.351  0.8748  0.3882 -0.6869
59888SOL    HW285628   5.583   8.106  10.381  1.2701 -1.5511  0.8875
59889SOL     OW85629   2.412   7.198   8.983  0.1032 -0.1722 -0.0196
59889SOL    HW185630   2.339   7.150   9.021 -0.8816 -1.5903 -3.3114
59889SOL    HW285631   2.371   7.268   8.932  1.2437  0.6793  0.1802
59890SOL     OW85632   3.698   6.315   3.155  0.0855  0.3679  0.5277
59890SOL    HW185633   3.729   6.354   3.237 -0.2012 -1.2457  1.4497
59890SOL    HW285634   3.607   6.290   3.174 -0.2280  0.6509 -0.5423
59891SOL     OW85635   3.932   0.598   2.750 -0.0424 -0.4229 -0.1746
59891SOL    HW185636   3.923   0.503   2.745 -0.4747 -0.3635 -0.5792
59891SOL    HW285637   3.844   0.630   2.768  0.4693 -0.2383  2.4921
59892SOL     OW85638   3.863  10.091  12.260  0.9443 -0.2823  0.2064
59892SOL    HW185639   3.833  10.145  12.187 -0.5613  0.5664  1.4038
59892SOL    HW285640   3.893  10.010  12.219 -1.0825 -0.3631 -1.2673
59893SOL     OW85641   8.555  11.016   0.336  0.3107  0.0408 -0.8617
59893SOL    HW185642   8.559  11.103   0.298 -0.2127  1.2692  1.6531
59893SOL    HW285643   8.474  10.978   0.303 -0.7229  1.5113 -0.1381
59894SOL     OW85644   1.060   5.260  12.226 -0.3791 -0.3902  0.3074
59894SOL    HW185645   1.087   5.214  12.305  0.5499 -1.3617 -0.5371
59894SOL    HW285646   1.118   5.226  12.158 -2.4160 -1.0711 -1.2053
59895SOL     OW85647   2.196   4.091   3.637 -0.0941 -0.2131 -0.9164
59895SOL    HW185648   2.199   4.005   3.594 -0.9364  0.1924 -1.8241
59895SOL    HW285649   2.244   4.148   3.577 -0.0188  0.0660 -0.5898
59896SOL     OW85650   6.062   6.740  11.093  0.2161 -0.4598 -0.3524
59896SOL    HW185651   6.030   6.707  11.009  0.4872 -2.2443  0.1922
59896SOL    HW285652   6.148   6.700  11.102  1.9700  2.7887 -0.9535
59897SOL     OW85653   9.445  10.218   4.277 -0.1092 -0.0915  0.1490
59897SOL    HW185654   9.382  10.247   4.210 -0.8696 -2.6816 -0.3490
59897SOL    HW285655   9.435  10.281   4.348 -0.7969  1.5173 -1.2934
59898SOL     OW85656   8.614   0.656  10.397  0.7202  0.2247 -0.0947
59898SOL    HW185657   8.660   0.592  10.452  0.5642  0.5252  0.3927
59898SOL    HW285658   8.658   0.651  10.313  0.1352 -1.1824 -0.3455
59899SOL     OW85659   6.902   4.622   9.309 -0.2102 -0.6661  0.0605
59899SOL    HW185660   6.961   4.575   9.250  0.9357  1.9692 -1.0437
59899SOL    HW285661   6.816   4.612   9.268  0.7282  2.1893 -3.0154
59900SOL     OW85662   8.830   5.611  11.736 -0.0933  1.1230 -0.2825
59900SOL    HW185663   8.764   5.596  11.668  1.1357  0.5037 -1.3829
59900SOL    HW285664   8.897   5.664  11.694  0.6159  0.8633  0.4900
59901SOL     OW85665   0.249   2.128   8.024 -0.0945  0.2721 -0.1617
59901SOL    HW185666   0.173   2.077   7.994 -0.5524  0.0931  1.2154
59901SOL    HW285667   0.297   2.067   8.080  1.7188  0.0236 -1.9027
59902SOL     OW85668   8.967   5.963   7.472 -0.4547 -0.3121 -0.0714
59902SOL    HW185669   8.927   5.889   7.519 -1.1975  1.0387  1.5251
59902SOL    HW285670   9.059   5.939   7.464 -0.9390 -2.0751 -0.9707
59903SOL     OW85671   3.594   5.929   1.696  0.1941  0.2227  0.4952
59903SOL    HW185672   3.582   5.836   1.679 -0.1361  0.4315 -0.5016
59903SOL    HW285673   3.661   5.933   1.763 -0.9850 -0.7929  1.7908
59904SOL     OW85674  11.240  10.531   7.675 -0.4947  0.4918  0.0065
59904SOL    HW185675  11.235  10.605   7.614  0.0422  0.2434 -0.3438
59904SOL    HW285676  11.307  10.557   7.738 -0.0551  0.1710 -0.3158
59905SOL     OW85677   7.942   5.978   0.342  0.0348 -0.2067  0.1743
59905SOL    HW185678   7.866   5.921   0.354  2.0269 -2.9397  0.8164
59905SOL    HW285679   7.921   6.058   0.390 -3.0568 -0.1402 -1.0823
59906SOL     OW85680  10.786  10.543   7.889  0.3165  0.0401 -0.2425
59906SOL    HW185681  10.778  10.450   7.911  0.5371  0.0468 -0.1335
59906SOL    HW285682  10.823  10.543   7.801  1.2350  0.0327  0.1355
59907SOL     OW85683   2.489   7.182   2.815  0.0167  0.1671  0.1426
59907SOL    HW185684   2.423   7.189   2.883  0.3314 -0.5070  0.5243
59907SOL    HW285685   2.545   7.110   2.842  0.7363  0.5314 -0.3302
59908SOL     OW85686   3.886  10.152   2.392 -0.3320  0.9982 -0.1448
59908SOL    HW185687   3.819  10.149   2.324 -1.3635 -0.8003  0.8806
59908SOL    HW285688   3.839  10.137   2.474  1.2358  0.2321  0.6797
59909SOL     OW85689   6.379   5.486   2.474 -0.0754 -0.1789 -0.4497
59909SOL    HW185690   6.393   5.465   2.381  2.4691 -2.6063  0.3749
59909SOL    HW285691   6.339   5.408   2.510 -1.4062  0.8947  0.4994
59910SOL     OW85692  10.615   3.253  12.346 -0.4421  0.9113 -0.1614
59910SOL    HW185693  10.609   3.174  12.400  1.2587  0.4518 -0.5969
59910SOL    HW285694  10.536   3.249  12.291 -1.1128  0.2845  0.8026
59911SOL     OW85695   7.398   2.960   1.922 -0.1850  0.1552 -0.2853
59911SOL    HW185696   7.393   3.024   1.850  2.6763 -0.2258 -0.9829
59911SOL    HW285697   7.333   2.894   1.901  0.0159  0.4873 -2.1366
59912SOL     OW85698   4.408   8.685   5.538 -0.5699 -0.1451  0.3151
59912SOL    HW185699   4.423   8.774   5.505  1.4640 -0.6635 -0.3020
59912SOL    HW285700   4.467   8.678   5.614  3.8042 -2.6362 -2.8348
59913SOL     OW85701   3.864   2.709  12.196 -0.2457 -0.3473  0.1907
59913SOL    HW185702   3.893   2.726  12.285 -0.1587  1.7067 -0.1887
59913SOL    HW285703   3.840   2.616  12.196 -0.7485 -0.2794  2.4888
59914SOL     OW85704   2.724   6.249  11.020  0.1422  0.2154 -0.6930
59914SOL    HW185705   2.759   6.168  11.058 -0.6250 -0.0475 -0.5194
59914SOL    HW285706   2.629   6.243  11.035 -0.0490  0.6425 -1.6402
59915SOL     OW85707   7.779  11.079   2.364  0.0956 -0.0869  0.0178
59915SOL    HW185708   7.724  11.156   2.352  1.6543  1.1625  0.4260
59915SOL    HW285709   7.766  11.027   2.285 -0.0440  1.2394 -0.8512
59916SOL     OW85710   7.982   5.555   8.687 -0.0002  0.1827  0.2135
59916SOL    HW185711   7.925   5.607   8.630 -0.5184 -1.6304 -1.0400
59916SOL    HW285712   8.033   5.619   8.736 -2.2234  1.8816  0.4620
59917SOL     OW85713  10.448   0.423   6.359  0.3233  0.2994  0.2978
59917SOL    HW185714  10.468   0.346   6.306  0.9820  0.2268  0.6299
59917SOL    HW285715  10.364   0.455   6.326  0.2045 -0.3683 -0.0631
59918SOL     OW85716   4.653   7.421   2.944  0.2993  0.0155 -0.6027
59918SOL    HW185717   4.571   7.440   2.898  0.0524  0.0536 -0.1441
59918SOL    HW285718   4.627   7.400   3.033  0.9286  1.7772  0.0369
59919SOL     OW85719   9.721   5.379   8.210  0.0140 -0.1106  0.2234
59919SOL    HW185720   9.794   5.354   8.267  0.7589 -0.1250 -0.7037
59919SOL    HW285721   9.700   5.299   8.163  0.9086  0.4030 -1.1246
59920SOL     OW85722   3.336   5.008   9.378  0.1744  0.5312 -0.0438
59920SOL    HW185723   3.294   5.037   9.298 -0.8622  1.1900  0.7259
59920SOL    HW285724   3.266   4.968   9.430  1.0386 -0.9188  0.0846
59921SOL     OW85725  12.291   3.524   4.440 -0.2725  0.4496 -0.8384
59921SOL    HW185726  12.277   3.464   4.513  0.2756  1.2152 -0.0866
59921SOL    HW285727  12.254   3.479   4.365 -0.1398 -0.6933 -0.2356
59922SOL     OW85728   2.701   2.123   5.518 -0.0145  0.0265 -0.2255
59922SOL    HW185729   2.678   2.031   5.508 -0.4350  0.1311 -0.2361
59922SOL    HW285730   2.619   2.166   5.539 -0.4171  0.8745 -3.1129
59923SOL     OW85731   9.512   6.123   6.629  0.3240 -0.5757  0.3737
59923SOL    HW185732   9.522   6.207   6.675  2.3085  0.9003 -2.4872
59923SOL    HW285733   9.471   6.146   6.546 -1.6346 -2.9287  0.5673
59924SOL     OW85734   7.830  11.286  11.679 -0.3125  0.2557  0.3750
59924SOL    HW185735   7.865  11.371  11.655  0.3015 -0.2445 -0.5587
59924SOL    HW285736   7.764  11.305  11.746  0.2225  1.3992  0.5929
59925SOL     OW85737  10.804  10.511   5.235 -0.2055  0.6115 -0.1305
59925SOL    HW185738  10.802  10.416   5.224  2.4740  0.4566 -0.0103
59925SOL    HW285739  10.794  10.525   5.329  1.2624  0.2741  0.1033
59926SOL     OW85740   9.783   3.360  10.344 -0.3203 -0.6420 -0.0232
59926SOL    HW185741   9.865   3.338  10.300 -1.5008 -2.2083 -1.6100
59926SOL    HW285742   9.753   3.277  10.381  0.7059  0.6159  4.1494
59927SOL     OW85743   9.057  10.768  11.812 -0.4043 -0.6195  0.0271
59927SOL    HW185744   8.979  10.713  11.825 -0.7426 -0.4519 -1.1515
59927SOL    HW285745   9.106  10.723  11.743  0.2408 -0.4055  0.3475
59928SOL     OW85746   5.107   1.792   1.786  0.3523 -0.7669  0.0398
59928SOL    HW185747   5.198   1.791   1.758  0.5283  1.1451  0.4517
59928SOL    HW285748   5.109   1.761   1.876  0.7592  0.4462  0.4548
59929SOL     OW85749   3.363   7.210   0.272 -0.2216 -0.3122 -0.5098
59929SOL    HW185750   3.367   7.163   0.189 -0.6541 -1.4915  0.1178
59929SOL    HW285751   3.403   7.151   0.336  0.6572  0.8253  0.0356
59930SOL     OW85752   5.004   9.516   2.812 -0.5376  0.2092  0.3882
59930SOL    HW185753   5.013   9.533   2.719 -0.1611  0.3021  0.4399
59930SOL    HW285754   5.052   9.434   2.826 -0.9531 -0.0320  0.4271
59931SOL     OW85755   5.676  10.977   7.994 -0.9357  0.0724 -0.6887
59931SOL    HW185756   5.619  10.902   7.979 -0.7634  0.3620 -3.3817
59931SOL    HW285757   5.765  10.944   7.978 -0.2252 -0.2862  3.1202
59932SOL     OW85758   4.530   9.307   9.797 -0.1159 -0.0730  0.6628
59932SOL    HW185759   4.586   9.342   9.727 -2.4344  0.0312 -1.2549
59932SOL    HW285760   4.442   9.307   9.759 -1.7829  1.4259  4.1204
59933SOL     OW85761   9.065   0.308   6.773  0.4846  0.1758 -0.3584
59933SOL    HW185762   9.129   0.244   6.804 -0.9869 -1.6139 -0.8020
59933SOL    HW285763   9.036   0.274   6.689 -1.2921  0.6931  0.0019
59934SOL     OW85764   8.377  11.056   5.954 -0.0647 -0.4079 -0.0433
59934SOL    HW185765   8.352  11.088   6.041 -0.0842 -1.3354  0.3069
59934SOL    HW285766   8.472  11.068   5.951 -0.0135 -0.7019  0.2575
59935SOL     OW85767   9.125   1.582   5.635  0.2151  0.0396 -0.1050
59935SOL    HW185768   9.162   1.561   5.720  1.7665 -1.4640 -1.0772
59935SOL    HW285769   9.178   1.655   5.603 -0.2893  0.5255  0.1536
59936SOL     OW85770   8.781   8.036   8.415 -0.3629  0.0959  0.5572
59936SOL    HW185771   8.706   8.045   8.356 -1.3664  0.4820  1.8237
59936SOL    HW285772   8.814   7.948   8.400 -1.5577 -0.3609  0.4984
59937SOL     OW85773   7.923   9.594   0.483  0.1222  0.3833  0.7193
59937SOL    HW185774   7.991   9.593   0.550  0.7809 -0.8601  0.0689
59937SOL    HW285775   7.914   9.502   0.456  0.7973  0.9726 -1.7900
59938SOL     OW85776   6.804   3.767   3.400 -0.8477 -0.0204  0.3246
59938SOL    HW185777   6.842   3.719   3.473 -0.1225 -0.4311 -0.3129
59938SOL    HW285778   6.718   3.796   3.432 -0.0809  0.7974  1.7237
59939SOL     OW85779  11.439  11.568  11.892  0.0647  0.5463  0.7661
59939SOL    HW185780  11.459  11.506  11.963 -0.2565 -2.0358 -1.2596
59939SOL    HW285781  11.350  11.598  11.911  0.7341  1.5735  2.5340
59940SOL     OW85782  10.366   7.118   7.733 -0.4375 -0.0378 -0.2508
59940SOL    HW185783  10.316   7.037   7.743  1.9297 -1.4257  1.5040
59940SOL    HW285784  10.326   7.179   7.794 -0.7359 -0.7144  0.2412
59941SOL     OW85785   9.999   9.679   9.804 -0.5335  0.2377 -0.5724
59941SOL    HW185786  10.061   9.751   9.812  0.8916 -1.1278  1.9419
59941SOL    HW285787   9.914   9.722   9.793  0.4520  2.2210 -0.9979
59942SOL     OW85788   2.842   1.159  11.061 -0.2170  0.3545  0.3094
59942SOL    HW185789   2.796   1.190  11.139 -2.0148 -1.0497 -0.1137
59942SOL    HW285790   2.832   1.229  10.997 -3.3280 -0.4803 -0.3003
59943SOL     OW85791   0.147   4.599   7.559 -0.2649 -0.0235  0.6636
59943SOL    HW185792   0.061   4.617   7.597 -0.5997  1.7237 -0.7703
59943SOL    HW285793   0.202   4.673   7.585  0.4632 -0.5038  0.5482
59944SOL     OW85794   1.536   7.278   7.006  0.1208 -0.3601  0.1088
59944SOL    HW185795   1.492   7.211   7.058 -0.9393 -0.3551 -0.7462
59944SOL    HW285796   1.526   7.359   7.056 -0.6377 -0.4108  0.0468
59945SOL     OW85797   9.239   3.102   1.417  0.6445  0.2834 -0.0521
59945SOL    HW185798   9.266   3.015   1.446  2.5218  0.8728  0.0573
59945SOL    HW285799   9.226   3.092   1.322 -2.2766 -0.8247  0.3416
59946SOL     OW85800   9.887   0.163   0.628  0.3125  0.1625 -0.4052
59946SOL    HW185801   9.805   0.192   0.588 -0.2925 -1.0606 -0.1041
59946SOL    HW285802   9.919   0.094   0.570 -0.8178 -1.9753  1.3594
59947SOL     OW85803   2.152   0.571   3.758 -0.3327 -0.3594 -0.5199
59947SOL    HW185804   2.240   0.590   3.725 -0.5270  1.3209 -0.1712
59947SOL    HW285805   2.157   0.588   3.852 -1.1929  0.4814 -0.6105
59948SOL     OW85806   3.727   2.562   9.144 -0.1513 -0.2855  0.0642
59948SOL    HW185807   3.735   2.469   9.123 -1.5880 -0.7759  1.4716
59948SOL    HW285808   3.811   2.584   9.186  0.1470 -0.9744 -0.1569
59949SOL     OW85809   1.817   4.521   8.334  0.3465 -0.2331  0.1302
59949SOL    HW185810   1.889   4.465   8.309  0.4493  0.3159 -0.8377
59949SOL    HW285811   1.855   4.581   8.399  0.4791 -0.6246  0.4213
59950SOL     OW85812   9.198   1.875   6.119  0.1071 -0.1315  0.1849
59950SOL    HW185813   9.283   1.889   6.076  0.1949  0.6107  0.5857
59950SOL    HW285814   9.212   1.902   6.209 -0.6605  0.3757  0.1616
59951SOL     OW85815   8.198   8.339   4.635  0.5497 -0.0291  0.0952
59951SOL    HW185816   8.129   8.395   4.671  0.2066 -0.8226  0.7058
59951SOL    HW285817   8.278   8.388   4.649  0.3082  0.1182  1.0625
59952SOL     OW85818   2.330   1.016   8.047 -0.5650 -0.2683 -0.3581
59952SOL    HW185819   2.350   0.960   7.972 -1.0965 -2.2634  0.9133
59952SOL    HW285820   2.405   1.005   8.106 -0.8888 -0.0096  0.1063
59953SOL     OW85821  10.709   1.758   7.142  0.2522  0.1421  0.2739
59953SOL    HW185822  10.704   1.838   7.088  3.2775  0.3616  0.1548
59953SOL    HW285823  10.632   1.763   7.199  0.4060  3.2509  0.3775
59954SOL     OW85824  10.294   1.141  12.327 -0.2980 -0.2653  0.2523
59954SOL    HW185825  10.376   1.135  12.376 -0.2290  2.1201  0.5338
59954SOL    HW285826  10.304   1.219  12.273 -1.4273 -1.3427 -1.6240
59955SOL     OW85827   3.428   1.255   0.423  0.3899  0.1521  0.4417
59955SOL    HW185828   3.400   1.307   0.499  1.5167 -0.9878  1.6870
59955SOL    HW285829   3.395   1.167   0.441  0.1352  0.0085 -0.7042
59956SOL     OW85830   9.300   6.243   6.963 -0.2621  0.1306 -0.0618
59956SOL    HW185831   9.291   6.320   6.906 -3.5121 -1.0712 -1.4090
59956SOL    HW285832   9.354   6.183   6.911 -0.1364  0.4137 -0.2672
59957SOL     OW85833   9.315   6.713   1.052 -0.0829  0.6123 -0.1558
59957SOL    HW185834   9.303   6.629   1.096  0.0170  0.8359  0.2961
59957SOL    HW285835   9.308   6.692   0.959 -0.0879  0.1078 -0.0434
59958SOL     OW85836   2.674   8.930  10.551 -0.3549  0.2289 -0.1093
59958SOL    HW185837   2.739   8.917  10.620  0.7175 -1.8440 -1.4098
59958SOL    HW285838   2.608   8.863  10.566 -0.6548  0.4321 -0.4905
59959SOL     OW85839   7.014   8.723  11.850 -0.1998 -0.2114  0.6194
59959SOL    HW185840   7.083   8.753  11.791  0.2750 -0.9950  0.7603
59959SOL    HW285841   7.025   8.776  11.928 -0.4014  0.3637  0.2638
59960SOL     OW85842  10.875  10.384   1.706  0.3463  0.9668  0.8103
59960SOL    HW185843  10.824  10.449   1.755 -0.0417  0.5345  0.9867
59960SOL    HW285844  10.884  10.310   1.766 -1.0728 -0.0154 -0.1158
59961SOL     OW85845  12.079   0.124  10.078  0.4397 -0.6567  0.4199
59961SOL    HW185846  12.104   0.216  10.087 -1.8258  0.2757 -1.6545
59961SOL    HW285847  12.081   0.090  10.168  1.9568  1.2150  1.1642
59962SOL     OW85848   9.993  10.347   1.113 -0.1426 -0.0707 -0.2404
59962SOL    HW185849   9.953  10.423   1.154  0.6855 -0.6819  1.8390
59962SOL    HW285850  10.088  10.362   1.121  0.0302 -0.8701 -0.6473
59963SOL     OW85851  10.699   3.486   4.328  0.5294 -0.0331  0.4112
59963SOL    HW185852  10.765   3.551   4.350  0.0264  0.8423 -0.5730
59963SOL    HW285853  10.707   3.475   4.233 -0.0994 -0.6237  0.4186
59964SOL     OW85854   5.793   3.302   8.461  0.1279 -0.9233 -0.0579
59964SOL    HW185855   5.764   3.324   8.549  1.7283  0.1776  0.2565
59964SOL    HW285856   5.715   3.307   8.407 -0.8509 -1.4759  1.2607
59965SOL     OW85857   4.216   5.518   4.154 -0.5251  0.4702  1.1362
59965SOL    HW185858   4.180   5.457   4.219 -0.1492 -0.8058  0.2028
59965SOL    HW285859   4.305   5.485   4.138 -1.6384 -1.3423 -2.3967
59966SOL     OW85860   6.432   6.938   4.658  0.3280 -0.2589  0.2802
59966SOL    HW185861   6.461   6.866   4.603 -1.4837 -1.6618  1.0759
59966SOL    HW285862   6.484   7.013   4.629  2.7283 -1.9798 -0.1748
59967SOL     OW85863   0.659   5.354   1.247  0.1217 -0.1908 -0.3118
59967SOL    HW185864   0.576   5.348   1.200  1.1125  0.7196 -2.2996
59967SOL    HW285865   0.638   5.403   1.326 -1.2778 -0.1581 -0.6797
59968SOL     OW85866   5.804   7.305   9.196 -0.2984 -0.0854 -0.1498
59968SOL    HW185867   5.723   7.355   9.190 -0.6425 -0.6861 -0.5671
59968SOL    HW285868   5.785   7.222   9.152  0.4187 -0.3897  0.0990
59969SOL     OW85869   8.316   6.449   1.533  0.0859  1.1946  0.1411
59969SOL    HW185870   8.267   6.450   1.615  0.8932  0.9368  0.6376
59969SOL    HW285871   8.407   6.432   1.559  0.1179 -0.5217 -0.9042
59970SOL     OW85872   5.459   1.818   0.477 -0.2274 -0.5288 -0.1561
59970SOL    HW185873   5.377   1.867   0.468 -1.2339 -2.2961 -1.3089
59970SOL    HW285874   5.513   1.847   0.403 -0.4251 -0.4436 -0.2675
59971SOL     OW85875   0.585   5.901   4.407  0.0965 -0.5938  0.1766
59971SOL    HW185876   0.615   5.828   4.353 -1.3298 -0.7934 -0.3738
59971SOL    HW285877   0.537   5.958   4.347 -1.4160 -0.7532  1.1894
59972SOL     OW85878   1.671   8.646   2.150  0.2552  0.7232  0.5929
59972SOL    HW185879   1.588   8.691   2.167  0.8890  1.0430  3.2599
59972SOL    HW285880   1.737   8.698   2.195  1.8959  0.2695 -1.1699
59973SOL     OW85881   5.883   7.073   9.084  0.0650  0.1477  0.4378
59973SOL    HW185882   5.960   7.100   9.134 -0.1984  2.0748 -0.1331
59973SOL    HW285883   5.906   7.091   8.993  0.1462 -2.3598 -0.1179
59974SOL     OW85884  11.291   7.701   3.786  0.5536 -0.2275  0.7315
59974SOL    HW185885  11.265   7.787   3.754  0.3409 -0.9540 -1.2069
59974SOL    HW285886  11.212   7.667   3.830 -0.1202 -0.3145 -0.4935
59975SOL     OW85887   0.186   1.445   2.458  0.2164  0.2337 -0.0499
59975SOL    HW185888   0.093   1.469   2.464  0.3201  1.0007 -1.2446
59975SOL    HW285889   0.186   1.357   2.421 -0.0317  0.4615 -0.6083
59976SOL     OW85890   7.541   3.205   6.200  0.6853 -0.6023 -0.1622
59976SOL    HW185891   7.498   3.281   6.162  2.9427 -0.0750 -1.8200
59976SOL    HW285892   7.469   3.144   6.220 -1.1265  1.6913  0.7663
59977SOL     OW85893   3.444   8.886   0.050  0.7119 -1.0461 -0.2384
59977SOL    HW185894   3.352   8.866   0.071 -0.1584  1.7870 -0.9071
59977SOL    HW285895   3.457   8.849  -0.037  0.3639 -1.8145  0.0176
59978SOL     OW85896   1.534  10.149   5.247 -0.1033  0.5572  0.0689
59978SOL    HW185897   1.483  10.230   5.253  0.5603  1.1828 -2.0171
59978SOL    HW285898   1.616  10.171   5.293  0.1339  1.1311 -0.6118
59979SOL     OW85899   6.401   2.513   6.471 -0.1799 -0.2086 -0.1913
59979SOL    HW185900   6.455   2.533   6.547 -0.5924  0.1902  0.0002
59979SOL    HW285901   6.331   2.458   6.504  1.1230 -2.3474 -0.7713
59980SOL     OW85902   0.976   9.697   7.268  0.0711 -0.2290 -0.5460
59980SOL    HW185903   0.905   9.739   7.220  0.0433  1.3764  0.7881
59980SOL    HW285904   0.933   9.628   7.319 -0.6396  0.9291  0.4890
59981SOL     OW85905  10.527   6.749   3.574  0.3700  0.3808 -0.2013
59981SOL    HW185906  10.592   6.687   3.607 -0.1291  0.0172  0.1009
59981SOL    HW285907  10.568   6.835   3.584  0.4285  0.2338  0.8733
59982SOL     OW85908   3.994   9.528  10.527 -0.6738  0.4532  0.1001
59982SOL    HW185909   4.010   9.567  10.612  0.4289 -0.0244  0.1249
59982SOL    HW285910   3.971   9.602  10.471 -0.5683  0.8796  0.6088
59983SOL     OW85911   8.991   3.803  10.841 -0.1348 -0.9617  0.5296
59983SOL    HW185912   9.052   3.740  10.805  1.1331  0.0864  0.7707
59983SOL    HW285913   9.005   3.799  10.936  0.2202 -0.0781  0.5241
59984SOL     OW85914   3.964   0.390  11.517  0.0595  0.6380 -0.2207
59984SOL    HW185915   4.039   0.337  11.489 -0.4181 -0.6998  0.9108
59984SOL    HW285916   3.912   0.402  11.437  0.9072  0.6390 -0.7890
59985SOL     OW85917   1.179   2.813   0.830 -0.1234 -0.7604  0.5417
59985SOL    HW185918   1.151   2.722   0.821 -0.2755 -0.7942  1.3480
59985SOL    HW285919   1.274   2.810   0.822 -0.0321 -1.1314  1.6367
59986SOL     OW85920   4.797   8.754   2.766 -0.3033  0.5611 -0.3371
59986SOL    HW185921   4.706   8.765   2.738 -0.1712  1.4312 -0.4776
59986SOL    HW285922   4.847   8.807   2.703  0.2205  0.7035  0.1911
59987SOL     OW85923   5.095   2.765  10.531 -0.2742 -0.1662  0.0414
59987SOL    HW185924   5.037   2.788  10.603  0.1042  0.0196  0.2920
59987SOL    HW285925   5.165   2.714  10.572  0.3920  0.6614 -0.0562
59988SOL     OW85926   9.597   4.182   8.813 -0.3786  0.0368 -0.2816
59988SOL    HW185927   9.681   4.194   8.856 -0.6202  0.4660  0.0830
59988SOL    HW285928   9.535   4.170   8.885 -0.5698 -0.6846 -0.5578
59989SOL     OW85929   6.390   9.843   7.782 -0.2540  0.6349  0.5323
59989SOL    HW185930   6.330   9.845   7.856  1.5959  0.7638  2.1091
59989SOL    HW285931   6.417   9.752   7.776  0.4373  0.8190  0.7495
59990SOL     OW85932   0.369   1.184   0.029 -0.2580 -0.0750 -0.4315
59990SOL    HW185933   0.274   1.190   0.018 -0.5520 -0.7234  1.4572
59990SOL    HW285934   0.405   1.225  -0.050 -2.0892  1.9655 -0.2914
59991SOL     OW85935  12.114   8.179  11.369  0.3076  0.2369 -0.2906
59991SOL    HW185936  12.078   8.094  11.391 -0.9904  0.7000 -0.5350
59991SOL    HW285937  12.106   8.231  11.449  0.6298  0.2906 -0.2891
59992SOL     OW85938   4.115  11.720   8.787 -0.2587 -0.2747  0.0743
59992SOL    HW185939   4.081  11.662   8.719 -1.0579  0.6717 -0.3659
59992SOL    HW285940   4.068  11.802   8.774  0.1662  0.1833  1.2722
59993SOL     OW85941   3.576   8.292   6.017  0.1395 -0.5763 -0.4388
59993SOL    HW185942   3.523   8.220   6.054  0.1312 -0.1899  0.3319
59993SOL    HW285943   3.666   8.266   6.034  0.2025  1.6578  4.2446
59994SOL     OW85944  10.262   0.427   8.088  0.5075 -0.1059 -0.1409
59994SOL    HW185945  10.172   0.404   8.111  0.4044 -1.0077 -1.3767
59994SOL    HW285946  10.314   0.400   8.164 -0.0521 -1.2385 -0.1438
59995SOL     OW85947   4.008  12.373   2.785 -0.2447 -0.6029  0.9604
59995SOL    HW185948   4.015  12.405   2.695  1.7762 -1.3034  0.8362
59995SOL    HW285949   4.043  12.445   2.838 -0.2678 -0.6970  1.1018
59996SOL     OW85950  11.908   6.834   6.353 -0.1586 -0.6923  0.2538
59996SOL    HW185951  11.865   6.793   6.427 -0.7596 -1.2245 -0.3743
59996SOL    HW285952  11.837   6.870   6.300  0.1295 -1.7405 -0.8946
59997SOL     OW85953   6.371   5.820   5.208 -0.3583  0.2988  0.4953
59997SOL    HW185954   6.422   5.798   5.130  2.4101  0.3610  2.1567
59997SOL    HW285955   6.379   5.915   5.216 -0.9534  0.3383  0.6650
59998SOL     OW85956   7.512   8.774   4.609  0.0056  0.0951 -0.5042
59998SOL    HW185957   7.433   8.742   4.566 -1.0874  1.3896  0.4620
59998SOL    HW285958   7.568   8.803   4.537  0.1225 -1.8581 -1.2682
59999SOL     OW85959   2.266  11.623   2.747  0.3337  0.0014 -0.5791
59999SOL    HW185960   2.294  11.711   2.721 -2.9040  1.2000 -0.5087
59999SOL    HW285961   2.287  11.568   2.672 -1.5150  1.7754 -2.5308
60000SOL     OW85962   4.639   5.474   2.764  0.1417  0.0752 -0.3440
60000SOL    HW185963   4.642   5.493   2.857  3.3302  0.8223 -0.4972
60000SOL    HW285964   4.687   5.392   2.754  1.3715  0.8927 -1.4701
60001SOL     OW85965  10.071   4.166   4.937 -0.2397 -0.3664 -0.2505
60001SOL    HW185966   9.982   4.186   4.910 -0.0190  0.7417 -0.1900
60001SOL    HW285967  10.086   4.076   4.905 -0.7559  0.0754 -1.8475
60002SOL     OW85968   8.290   0.546   6.682  0.2319  0.8228  0.0570
60002SOL    HW185969   8.264   0.639   6.682 -4.3099 -0.2037 -0.5449
60002SOL    HW285970   8.244   0.509   6.758  0.2712 -1.2914 -0.9067
60003SOL     OW85971   8.953   0.640   6.670  0.1093  0.0543 -0.2417
60003SOL    HW185972   8.947   0.644   6.765 -1.0016  0.6412 -0.3178
60003SOL    HW285973   8.981   0.728   6.644  0.0042  0.0216 -0.4742
60004SOL     OW85974   5.017   7.290   2.526 -0.2537  0.1657 -0.7026
60004SOL    HW185975   4.976   7.375   2.541 -1.1300 -0.3250 -0.2371
60004SOL    HW285976   5.109   7.311   2.508 -0.7634  1.3232 -2.1776
60005SOL     OW85977  11.703   9.928  10.365 -0.1514  0.2823  0.3880
60005SOL    HW185978  11.722   9.846  10.411 -1.0241 -0.4055 -0.4250
60005SOL    HW285979  11.662   9.900  10.283 -1.0456  1.5501  0.3699
60006SOL     OW85980  10.733   5.137   7.191 -0.5714 -0.1735  0.0314
60006SOL    HW185981  10.826   5.121   7.177 -0.5269 -0.7720  0.9207
60006SOL    HW285982  10.729   5.213   7.250 -0.6365 -0.2875  0.1757
60007SOL     OW85983   8.371   2.442   9.007  0.2478 -0.7203  0.1025
60007SOL    HW185984   8.360   2.530   8.969 -0.0663 -1.0147 -0.4941
60007SOL    HW285985   8.422   2.394   8.941 -1.5403 -1.6759 -0.6410
60008SOL     OW85986   6.366   4.910   7.808  0.0386 -0.6753 -0.4451
60008SOL    HW185987   6.440   4.878   7.756  1.2150  2.9855 -1.3510
60008SOL    HW285988   6.405   4.942   7.888 -0.9298 -0.7679  0.0825
60009SOL     OW85989   2.616   2.766   0.375 -0.0021 -0.0947  0.4629
60009SOL    HW185990   2.545   2.771   0.311 -1.4173 -1.5152  1.8066
60009SOL    HW285991   2.652   2.855   0.379 -1.0415  0.4286 -0.9744
60010SOL     OW85992   4.503   5.582   9.891 -0.0124  0.0398  0.1924
60010SOL    HW185993   4.427   5.539   9.930 -0.2805  1.1396  0.9028
60010SOL    HW285994   4.496   5.562   9.798 -0.4798 -0.9068  0.4103
60011SOL     OW85995   1.011   3.742   1.156 -0.0104 -0.3808  0.2424
60011SOL    HW185996   1.051   3.714   1.238  0.7140 -0.8303 -0.2536
60011SOL    HW285997   0.922   3.708   1.159 -0.0601 -0.2016  0.9315
60012SOL     OW85998   1.450   3.749   7.605  0.6116  0.2429  0.5450
60012SOL    HW185999   1.429   3.842   7.606 -0.2766  0.0479  1.3585
60012SOL    HW286000   1.516   3.740   7.536  0.4746  1.4146  0.2419
60013SOL     OW86001   8.447  11.908  11.654 -0.1089 -0.5658  0.1209
60013SOL    HW186002   8.524  11.869  11.695  0.8323  1.1486  0.0780
60013SOL    HW286003   8.377  11.896  11.718  0.1766 -2.1412  0.1655
60014SOL     OW86004   2.708   1.894   7.434 -0.2229 -0.6693  0.5860
60014SOL    HW186005   2.706   1.799   7.449 -1.9048 -0.5478  1.2860
60014SOL    HW286006   2.790   1.922   7.475  0.2763 -1.8000  0.4057
60015SOL     OW86007   9.234  10.686   7.152 -0.0125 -0.4369  0.0583
60015SOL    HW186008   9.153  10.681   7.203  0.5193  0.2588  1.0035
60015SOL    HW286009   9.205  10.685   7.061 -1.0801 -0.1953  0.3766
60016SOL     OW86010   1.047  11.206   2.335  0.3651 -0.6139  0.3699
60016SOL    HW186011   1.074  11.281   2.281  2.0414  1.1357  3.3887
60016SOL    HW286012   0.979  11.163   2.283 -0.1712  2.5466 -1.8617
60017SOL     OW86013   9.357  10.820   4.481  0.0061  0.2071 -0.2585
60017SOL    HW186014   9.403  10.875   4.545 -0.0864 -1.1624  1.0344
60017SOL    HW286015   9.277  10.869   4.461 -0.7797 -0.0475  1.9534
60018SOL     OW86016   4.831   8.323   3.218 -0.0400 -0.2709 -0.6800
60018SOL    HW186017   4.871   8.286   3.140  0.7724  1.1612 -0.9754
60018SOL    HW286018   4.834   8.418   3.204 -1.5964 -0.0442  0.2579
60019SOL     OW86019   1.838  12.141   4.301  0.0844 -0.2099 -0.3169
60019SOL    HW186020   1.861  12.115   4.212  0.3535 -2.1914  0.2780
60019SOL    HW286021   1.747  12.171   4.295 -0.4376 -1.8454 -1.0137
60020SOL     OW86022  10.057  11.163   4.664 -0.5075  0.1355 -0.3169
60020SOL    HW186023  10.019  11.102   4.727  2.4727 -0.0881  1.4527
60020SOL    HW286024  10.027  11.131   4.578 -1.8691 -1.6611  0.7592
60021SOL     OW86025   3.714   8.675   3.821 -0.3065 -0.4693  0.2296
60021SOL    HW186026   3.623   8.681   3.850 -1.0085  0.2712 -1.8829
60021SOL    HW286027   3.724   8.750   3.762  1.0331 -1.6751 -1.1650
60022SOL     OW86028   3.401  11.199   2.016 -0.1901  0.2277  0.1098
60022SOL    HW186029   3.319  11.154   2.033  0.8861 -1.7800  0.2359
60022SOL    HW286030   3.440  11.153   1.942  1.3760  0.3451  0.8132
60023SOL     OW86031   7.228   9.206   8.289 -0.0875  0.2376 -0.0485
60023SOL    HW186032   7.273   9.209   8.374 -1.3674  1.0082  0.6219
60023SOL    HW286033   7.246   9.117   8.257  1.7634  0.4483  0.2489
60024SOL     OW86034   9.534   4.943   6.670  0.0291  0.0646 -0.7880
60024SOL    HW186035   9.540   5.039   6.676  0.2023 -0.0213  1.4395
60024SOL    HW286036   9.444   4.923   6.694  0.5381 -0.3834  0.9394
60025SOL     OW86037   4.686   1.245  11.944  0.4865 -0.6494 -0.5366
60025SOL    HW186038   4.730   1.313  11.994 -2.0712  0.6624  0.1383
60025SOL    HW286039   4.753   1.209  11.886  2.6084  0.4256  1.1436
60026SOL     OW86040   7.721   3.538   7.372  0.5138 -0.0630 -0.0791
60026SOL    HW186041   7.735   3.483   7.294  0.1020 -0.0572 -0.1565
60026SOL    HW286042   7.632   3.572   7.362  0.3413 -0.3165  0.5504
60027SOL     OW86043  11.412   0.287   0.118 -0.7584  0.3037  0.2838
60027SOL    HW186044  11.375   0.265   0.032  1.1857 -0.9944 -0.3030
60027SOL    HW286045  11.412   0.383   0.119 -0.1261  0.3728 -1.5284
60028SOL     OW86046   6.449  12.200   0.862  0.4516 -0.0634  0.1467
60028SOL    HW186047   6.451  12.295   0.859 -1.4702 -0.0251 -1.1131
60028SOL    HW286048   6.500  12.178   0.941  2.0771  1.8992 -0.2615
60029SOL     OW86049   6.483  11.303   0.514  0.0963  0.6440  0.7140
60029SOL    HW186050   6.462  11.265   0.429  1.2741 -0.2516  0.7941
60029SOL    HW286051   6.463  11.396   0.505 -0.7761  0.3866 -0.1934
60030SOL     OW86052  11.368  11.501   1.489  0.6765 -0.6471 -0.2664
60030SOL    HW186053  11.404  11.418   1.458 -0.1580 -0.6436 -1.2869
60030SOL    HW286054  11.346  11.549   1.409 -1.8878 -0.7837  0.2783
60031SOL     OW86055   7.532   2.457   4.099 -0.1463  0.8636  0.1182
60031SOL    HW186056   7.542   2.469   4.005 -3.5147 -0.1330 -0.5065
60031SOL    HW286057   7.547   2.364   4.113 -0.4482  0.8527  0.3917
60032SOL     OW86058  12.029   0.059   0.448  0.5012 -0.4660  0.0572
60032SOL    HW186059  12.044   0.048   0.542 -0.7531 -0.1645  0.3106
60032SOL    HW286060  11.950   0.114   0.443 -0.1550 -1.4805 -1.1603
60033SOL     OW86061   8.179   4.186   4.770 -0.1436 -0.1798  0.1760
60033SOL    HW186062   8.100   4.181   4.824  0.4639 -1.7710  0.9826
60033SOL    HW286063   8.246   4.142   4.822  1.0764  0.4072 -0.8528
60034SOL     OW86064   7.409   8.448   6.258 -0.3200 -0.2846  0.1289
60034SOL    HW186065   7.326   8.416   6.293 -1.3008  1.5481 -0.3682
60034SOL    HW286066   7.396   8.452   6.163  0.3430 -0.0010  0.0412
60035SOL     OW86067  12.434   4.869   6.780  0.0694 -0.4224  0.3435
60035SOL    HW186068  12.348   4.908   6.763 -0.3332 -0.4545  2.1203
60035SOL    HW286069  12.465   4.841   6.694 -1.3676  0.2621 -0.4339
60036SOL     OW86070   4.990   3.465   8.285  0.1670 -0.6106 -0.5709
60036SOL    HW186071   4.916   3.432   8.235  0.3037  0.6911 -1.6694
60036SOL    HW286072   4.967   3.447   8.376 -0.2685 -2.6560 -1.0361
60037SOL     OW86073   9.013   3.603   5.460 -0.3185  0.1895  0.1373
60037SOL    HW186074   9.037   3.670   5.525 -0.8827  0.0166  0.5271
60037SOL    HW286075   9.066   3.625   5.383 -1.3179  1.7829 -0.1448
60038SOL     OW86076   5.337   9.709  10.894  0.5132 -0.3719 -0.4984
60038SOL    HW186077   5.420   9.676  10.859  0.7972 -0.3922  0.1670
60038SOL    HW286078   5.314   9.645  10.962 -0.0613 -0.3741 -0.6913
60039SOL     OW86079   1.995   7.013  11.236  0.6166 -0.6687 -0.1217
60039SOL    HW186080   1.994   7.079  11.306 -2.0532  0.0762 -0.7787
60039SOL    HW286081   1.930   6.948  11.263 -2.8451  1.1864 -3.1713
60040SOL     OW86082   4.281   3.723   0.910  0.3555  0.0660  0.5957
60040SOL    HW186083   4.305   3.724   0.817  0.9471 -2.7612  0.6563
60040SOL    HW286084   4.185   3.722   0.910  0.3369  0.6967  0.0746
60041SOL     OW86085   9.903  11.352   7.605 -0.1796  0.3645  0.3642
60041SOL    HW186086   9.996  11.328   7.606 -0.2131  0.2290  0.2443
60041SOL    HW286087   9.887  11.386   7.693 -0.0833  0.1308  0.4734
60042SOL     OW86088   1.866   0.827   9.976 -0.4022 -0.0836 -0.2008
60042SOL    HW186089   1.778   0.800   9.949 -1.0285  1.9075 -0.3389
60042SOL    HW286090   1.874   0.798  10.067 -1.3842  0.0967 -0.0491
60043SOL     OW86091   0.221   2.040   8.466  0.2123 -0.1035 -0.0503
60043SOL    HW186092   0.175   2.005   8.389  0.6883 -1.2466  0.1605
60043SOL    HW286093   0.286   2.101   8.430  0.3632 -0.5563 -0.5504
60044SOL     OW86094   8.603  11.043   4.281 -0.0706 -0.1151  0.1225
60044SOL    HW186095   8.582  11.043   4.374 -0.1854 -0.8393  0.1022
60044SOL    HW286096   8.535  10.990   4.240  1.0684 -1.4569 -0.1011
60045SOL     OW86097   7.812   4.788  11.332 -0.7551  0.1414  0.5151
60045SOL    HW186098   7.828   4.735  11.410 -1.7054 -0.3145  0.4159
60045SOL    HW286099   7.719   4.807  11.334 -0.8334 -0.0275 -0.5988
60046SOL     OW86100   2.089   5.759   4.463  0.3308  0.2288  0.4708
60046SOL    HW186101   2.183   5.745   4.471  1.1946  4.6113  0.6336
60046SOL    HW286102   2.076   5.784   4.371 -0.9439 -1.4375  0.1470
60047SOL     OW86103   0.619   8.936   5.788  0.2001  0.2752  0.8411
60047SOL    HW186104   0.643   8.846   5.812  1.3036  0.7428  1.5877
60047SOL    HW286105   0.677   8.990   5.840  0.9563  1.4035 -1.0631
60048SOL     OW86106  11.772   7.629   2.658  0.1430 -0.0689 -0.1068
60048SOL    HW186107  11.774   7.705   2.716  2.1725  0.4166 -0.7591
60048SOL    HW286108  11.710   7.653   2.589  0.3414  0.7542 -0.0015
60049SOL     OW86109   2.962   1.739  11.992 -0.1794  0.3074  0.2468
60049SOL    HW186110   2.939   1.654  12.031 -0.2948  0.5884  0.8038
60049SOL    HW286111   2.883   1.792  12.002  0.1527  0.7350  0.6313
60050SOL     OW86112   2.124  11.409   7.774 -0.0045  0.0232 -0.0244
60050SOL    HW186113   2.060  11.360   7.825  0.1755  0.5439  0.7112
60050SOL    HW286114   2.074  11.474   7.727 -0.3868 -1.4624 -1.8098
60051SOL     OW86115   7.597   7.058   7.115 -0.1513 -0.4076 -0.2111
60051SOL    HW186116   7.509   7.045   7.080  1.0275  1.8661 -4.7173
60051SOL    HW286117   7.642   6.976   7.099 -0.6195 -0.5596 -0.7667
60052SOL     OW86118  11.485   9.687  10.808  0.2680  0.5238  0.0430
60052SOL    HW186119  11.473   9.649  10.721  1.3380 -0.8599  0.4614
60052SOL    HW286120  11.400   9.726  10.830 -0.2431  0.1922 -1.2768
60053SOL     OW86121   8.716   1.774   4.424  0.3434  0.0100  0.3816
60053SOL    HW186122   8.664   1.759   4.503  0.0900  0.0478  0.2260
60053SOL    HW286123   8.694   1.863   4.398 -1.1254 -0.6631 -0.8420
60054SOL     OW86124  12.208  10.225   5.455 -0.0058  0.2443 -0.4004
60054SOL    HW186125  12.301  10.200   5.461 -0.0858  0.0247 -0.0835
60054SOL    HW286126  12.208  10.318   5.478 -0.0054 -0.0283  0.8073
60055SOL     OW86127  11.131   6.624   5.257 -0.1663  0.1968 -0.4438
60055SOL    HW186128  11.170   6.709   5.239  0.7480 -0.1057  0.0389
60055SOL    HW286129  11.174   6.563   5.197 -1.2356  0.1648 -1.1954
60056SOL     OW86130   1.040   8.365   2.952  0.5972  0.6425 -0.2547
60056SOL    HW186131   0.968   8.384   3.011  0.1282  0.8711 -0.8865
60056SOL    HW286132   1.052   8.271   2.958  1.5036  0.8204  1.2677
60057SOL     OW86133  10.341   4.366   7.918 -0.2397  0.0426  0.5978
60057SOL    HW186134  10.419   4.313   7.900  0.7838  1.2592  1.2580
60057SOL    HW286135  10.308   4.390   7.832 -0.0515 -0.7204  0.3073
60058SOL     OW86136   5.733   4.853  12.044 -0.1478  0.2252  0.0545
60058SOL    HW186137   5.698   4.767  12.021 -0.6609  0.6979 -1.0365
60058SOL    HW286138   5.690   4.875  12.127 -0.2131 -0.4505  0.2053
60059SOL     OW86139   0.756   6.417   9.094 -0.4647  0.0748  0.3694
60059SOL    HW186140   0.816   6.343   9.084  0.6320  1.0138 -0.1561
60059SOL    HW286141   0.810   6.488   9.128 -1.5380  0.6126  1.0285
60060SOL     OW86142   0.719   2.835   2.624  0.1711 -0.0655 -0.2599
60060SOL    HW186143   0.799   2.865   2.581  1.9919 -2.8368  0.9675
60060SOL    HW286144   0.676   2.780   2.558  0.3910 -0.2971 -0.2118
60061SOL     OW86145  12.100  11.160  10.687 -0.3622  0.8813  0.3682
60061SOL    HW186146  12.033  11.197  10.745  0.3872  0.7829  1.3184
60061SOL    HW286147  12.164  11.122  10.746  0.2274  0.4217 -0.5483
60062SOL     OW86148   1.033  10.371  12.187  0.0059  0.0110  0.1471
60062SOL    HW186149   1.119  10.328  12.187  0.2652  0.4908 -0.7613
60062SOL    HW286150   1.052  10.462  12.162 -0.8453 -0.0762 -0.9041
60063SOL     OW86151  11.394   0.728   3.212  0.3661  0.2069  0.4636
60063SOL    HW186152  11.344   0.807   3.232  0.4640 -0.1255  2.2032
60063SOL    HW286153  11.369   0.666   3.280  1.4585 -0.7342  0.0510
60064SOL     OW86154   0.562   3.737   2.732  0.6696 -0.0446 -0.4573
60064SOL    HW186155   0.502   3.742   2.807  0.5922 -1.3772 -0.4004
60064SOL    HW286156   0.586   3.827   2.714 -0.2891  0.3995  0.3945
60065SOL     OW86157   3.439   8.674   8.742 -0.2580  0.4174 -0.2537
60065SOL    HW186158   3.530   8.697   8.724 -0.2994  0.0115 -1.0582
60065SOL    HW286159   3.430   8.681   8.837  1.3691 -2.1974  0.1940
60066SOL     OW86160   4.385   5.221  12.438 -0.2917  0.1309 -0.2900
60066SOL    HW186161   4.465   5.177  12.407  0.0551  0.3918  0.2221
60066SOL    HW286162   4.363   5.282  12.367  0.2233  0.3777 -0.2481
60067SOL     OW86163   7.081  11.078   2.406  0.5012 -0.2006 -1.1062
60067SOL    HW186164   7.170  11.045   2.421  1.0840  0.8080 -2.1438
60067SOL    HW286165   7.035  11.006   2.364 -0.1747 -1.8810  2.1699
60068SOL     OW86166   3.525   1.587   6.291 -0.0490 -0.2847  0.3563
60068SOL    HW186167   3.542   1.645   6.217  0.4662 -0.0240  0.6666
60068SOL    HW286168   3.516   1.646   6.366 -1.5999 -0.4743  0.3475
60069SOL     OW86169   6.477   1.765   5.640 -0.6341 -0.2989  0.2062
60069SOL    HW186170   6.421   1.691   5.616 -0.9971 -0.6340  1.9065
60069SOL    HW286171   6.419   1.824   5.688  0.3844 -0.6258  1.9536
60070SOL     OW86172  11.569   7.799  10.191 -0.1729  0.1991  0.1338
60070SOL    HW186173  11.562   7.726  10.252  0.7509 -1.1204 -1.2681
60070SOL    HW286174  11.652   7.842  10.214 -1.1246  1.4035  1.5189
60071SOL     OW86175   6.385   5.982  12.074  0.1550 -0.2354 -0.9473
60071SOL    HW186176   6.324   5.909  12.065 -0.3212  0.1838 -1.2393
60071SOL    HW286177   6.330   6.055  12.102  0.7130 -0.1150 -0.1487
60072SOL     OW86178   7.866   2.356   2.496 -0.4020  0.8040 -0.0643
60072SOL    HW186179   7.917   2.332   2.574 -0.9217  1.3163  0.4384
60072SOL    HW286180   7.785   2.392   2.530 -1.2126 -0.2074 -0.8681
60073SOL     OW86181  11.095   0.178   5.811 -0.4627  0.0181 -0.5232
60073SOL    HW186182  11.066   0.094   5.775 -0.0293 -0.3868  0.0571
60073SOL    HW286183  11.015   0.217   5.845 -0.3861 -1.0815  1.0396
60074SOL     OW86184   1.096  12.186   4.538  0.0267  0.1957 -0.4432
60074SOL    HW186185   1.013  12.146   4.512 -0.1268  1.2329 -1.6638
60074SOL    HW286186   1.133  12.220   4.456  2.3248 -1.4260 -0.1733
60075SOL     OW86187   5.378   8.371   5.988  0.3501 -0.0689  0.8450
60075SOL    HW186188   5.374   8.467   5.994  0.9691 -0.0467  0.9535
60075SOL    HW286189   5.347   8.351   5.900 -0.3158  0.1894  1.0083
60076SOL     OW86190  10.462   2.749   8.280  0.3176  0.3362  0.0536
60076SOL    HW186191  10.498   2.727   8.195 -0.5302 -0.9626 -0.0025
60076SOL    HW286192  10.474   2.843   8.288  0.5128  0.4549 -1.4489
60077SOL     OW86193   0.125   0.775   6.050  0.3207  0.2304  0.5754
60077SOL    HW186194   0.039   0.784   6.089 -0.6031 -0.1472 -1.2814
60077SOL    HW286195   0.160   0.694   6.087 -0.4635 -0.0526  0.6961
60078SOL     OW86196   9.047   2.385   4.801  0.2992 -0.2379  0.0607
60078SOL    HW186197   8.987   2.403   4.874  1.2681  0.6879  0.6643
60078SOL    HW286198   9.030   2.294   4.777 -0.8865 -0.1839  0.6460
60079SOL     OW86199  12.188   7.374   6.017 -0.1705 -0.3060 -0.2736
60079SOL    HW186200  12.225   7.338   5.937  0.1466 -0.4805 -0.0479
60079SOL    HW286201  12.215   7.466   6.016  1.2877 -0.7106  0.4834
60080SOL     OW86202   8.299   5.808   6.976 -0.6344  0.2715  0.3900
60080SOL    HW186203   8.382   5.826   7.021  0.6620 -0.0302 -1.7452
60080SOL    HW286204   8.283   5.715   6.993  0.0545  0.0614 -0.0878
60081SOL     OW86205  12.244  10.327   1.634 -0.3306 -0.1858  0.0873
60081SOL    HW186206  12.223  10.312   1.726  1.5464  2.1118  0.9995
60081SOL    HW286207  12.185  10.398   1.607 -0.9840 -0.9576 -0.5591
60082SOL     OW86208   4.143  10.567   6.821  1.0497  0.2801 -0.0375
60082SOL    HW186209   4.191  10.638   6.778 -0.8230  0.6917 -1.5771
60082SOL    HW286210   4.067  10.610   6.860  0.1375 -0.7959 -0.5837
60083SOL     OW86211   6.596   5.360   9.691 -0.2891 -0.0065 -0.0358
60083SOL    HW186212   6.608   5.277   9.644 -0.5118  0.5908 -1.2044
60083SOL    HW286213   6.510   5.391   9.661 -0.3441  0.4888  0.6292
60084SOL     OW86214   3.961   2.172  12.153  1.2490 -0.1420  0.1473
60084SOL    HW186215   4.030   2.168  12.220  1.3593 -0.8244  0.0005
60084SOL    HW286216   3.880   2.150  12.200  0.8295  2.2931  0.6848
60085SOL     OW86217   3.326   2.231   3.428 -0.3025 -0.0135  0.2987
60085SOL    HW186218   3.250   2.282   3.455  0.1357 -0.5433  2.7706
60085SOL    HW286219   3.300   2.191   3.346 -2.4826  0.2667  0.7911
60086SOL     OW86220   9.473   6.923   9.973 -0.2552 -0.1847  0.3490
60086SOL    HW186221   9.393   6.872   9.988  0.9428 -1.9194  1.2457
60086SOL    HW286222   9.488   6.969  10.056 -1.0258  1.2648 -0.2745
60087SOL     OW86223   9.834   2.881   9.809  0.4694 -0.3197  0.6327
60087SOL    HW186224   9.838   2.956   9.750  0.8173 -0.5070  0.4149
60087SOL    HW286225   9.894   2.817   9.771 -0.8811 -1.2738  0.0419
60088SOL     OW86226   7.129   3.478   6.418 -0.7636 -0.0489  0.7326
60088SOL    HW186227   7.170   3.457   6.503 -0.8647  0.1736  0.8362
60088SOL    HW286228   7.151   3.403   6.362  0.1034  0.2438  0.6741
60089SOL     OW86229   3.855  11.625   4.827  0.2044  0.3737  0.2987
60089SOL    HW186230   3.904  11.548   4.857  0.7037  0.9512  1.0061
60089SOL    HW286231   3.764  11.606   4.851  0.1862 -0.3798 -0.3390
60090SOL     OW86232   5.674   0.681   3.786 -0.4274 -0.0543 -0.4383
60090SOL    HW186233   5.750   0.683   3.728 -0.2640 -1.2087 -0.3014
60090SOL    HW286234   5.611   0.740   3.745 -0.8327 -1.7835 -2.5743
60091SOL     OW86235   8.621   7.609   4.035 -0.8976  0.0585  0.3863
60091SOL    HW186236   8.671   7.533   4.064 -0.4019  0.1520 -0.1849
60091SOL    HW286237   8.687   7.677   4.023 -0.8556 -0.3415 -2.1775
60092SOL     OW86238  10.127   0.804  10.601  0.4751 -0.5248  0.4022
60092SOL    HW186239  10.206   0.857  10.606  1.6321 -1.7563 -2.7526
60092SOL    HW286240  10.157   0.715  10.616 -0.1578 -1.0721 -1.3439
60093SOL     OW86241   3.552   5.650   3.100 -0.8513 -0.1300 -0.5806
60093SOL    HW186242   3.506   5.722   3.144 -1.1251  0.4483 -1.7872
60093SOL    HW286243   3.485   5.583   3.087 -0.6433 -0.5371  0.3561
60094SOL     OW86244   3.341   1.605   6.638 -0.2446 -0.8115 -0.3788
60094SOL    HW186245   3.313   1.588   6.728  0.8688  1.7084  0.5398
60094SOL    HW286246   3.423   1.557   6.629  0.2379 -0.1675  0.3919
60095SOL     OW86247   8.032   0.717   8.781  0.0556  0.2410  0.4606
60095SOL    HW186248   7.989   0.731   8.866  0.0045  0.1555  0.4481
60095SOL    HW286249   8.020   0.624   8.762  1.4534 -0.1102  1.1161
60096SOL     OW86250   1.770   5.354   7.047 -0.2425  0.1011  0.0207
60096SOL    HW186251   1.741   5.442   7.071  0.6023  0.1764  0.8126
60096SOL    HW286252   1.690   5.310   7.017 -0.6991  1.0884 -0.2618
60097SOL     OW86253   5.796   5.423   0.646 -0.1645 -0.0403 -0.6097
60097SOL    HW186254   5.775   5.442   0.555 -0.4018  1.2244 -0.3102
60097SOL    HW286255   5.838   5.502   0.679 -2.0392  0.4090  0.9559
60098SOL     OW86256   5.026   1.185   5.047  0.2362 -0.2384  0.2939
60098SOL    HW186257   4.988   1.119   4.988 -0.3894 -1.2905  1.7978
60098SOL    HW286258   5.117   1.191   5.020 -0.6809  1.8362 -2.9734
60099SOL     OW86259   7.485   6.930   2.559 -0.3475 -0.3252 -0.7053
60099SOL    HW186260   7.486   7.022   2.585  0.6979 -0.0989 -1.4628
60099SOL    HW286261   7.516   6.883   2.637 -0.0114  0.0633 -0.6001
60100SOL     OW86262   4.179   7.332   8.996 -0.0903 -0.0437 -0.4249
60100SOL    HW186263   4.169   7.338   8.901  1.3888 -0.2518 -0.6221
60100SOL    HW286264   4.134   7.410   9.030 -1.3358 -0.3834 -1.2117
60101SOL     OW86265   3.687   6.104   4.657  0.1924  0.2729  0.3642
60101SOL    HW186266   3.700   6.010   4.650 -2.7530 -0.3480  1.6788
60101SOL    HW286267   3.775   6.141   4.649  1.3192 -2.4683 -1.1928
60102SOL     OW86268   2.537   1.001  11.842  0.2513  0.7104 -0.2538
60102SOL    HW186269   2.554   1.095  11.830  0.8059  0.6943  0.3255
60102SOL    HW286270   2.488   0.997  11.925  0.9906  0.4224  0.1762
60103SOL     OW86271  10.654  11.042  11.641 -0.4514  0.6619  0.5765
60103SOL    HW186272  10.690  11.119  11.598 -0.2732  1.5766  2.2831
60103SOL    HW286273  10.704  11.034  11.723 -0.7946 -0.9785  0.6635
60104SOL     OW86274   2.494   0.362   8.768  0.5716  0.0492  0.0689
60104SOL    HW186275   2.523   0.295   8.706 -1.6358 -0.0245 -0.9856
60104SOL    HW286276   2.445   0.424   8.714 -1.0210  0.2307  1.6543
60105SOL     OW86277   9.158   9.249   4.471  0.0559 -0.3085 -0.0555
60105SOL    HW186278   9.222   9.188   4.433 -0.1205 -1.0809  0.8547
60105SOL    HW286279   9.084   9.248   4.410 -0.2658 -1.6056  0.3373
60106SOL     OW86280   0.693   8.356  12.417 -0.1880 -0.4030 -0.1665
60106SOL    HW186281   0.736   8.403  12.489 -3.2264  2.5000  0.0430
60106SOL    HW286282   0.764   8.331  12.359  2.0938  0.1909  2.1556
60107SOL     OW86283   4.095   2.700  11.184 -0.2461  0.2193  0.5593
60107SOL    HW186284   4.185   2.725  11.207 -0.0665 -0.7425  0.9755
60107SOL    HW286285   4.106   2.627  11.123 -0.7509  1.1032 -0.6405
60108SOL     OW86286   3.104   6.541   0.588 -0.0030 -0.0350  0.0420
60108SOL    HW186287   3.189   6.566   0.551 -0.7311  1.6343 -0.5688
60108SOL    HW286288   3.083   6.458   0.547  0.9025  0.0051 -0.5223
60109SOL     OW86289  12.489   9.802   9.408  0.5227  0.2003 -0.0530
60109SOL    HW186290  12.462   9.714   9.437 -1.5710  1.0354  0.7279
60109SOL    HW286291  12.439   9.817   9.328  0.6871  0.7725 -0.0510
60110SOL     OW86292   1.270   0.781   8.321 -0.0970  0.3190  0.0227
60110SOL    HW186293   1.234   0.862   8.285 -2.2668 -0.6663 -0.1637
60110SOL    HW286294   1.236   0.777   8.411 -0.0688 -0.4162  0.0074
60111SOL     OW86295   0.027   5.933   7.513  0.2301  0.0271 -0.1749
60111SOL    HW186296  -0.043   5.953   7.576 -0.6403 -0.9210 -0.8114
60111SOL    HW286297  -0.014   5.943   7.427  0.9994 -0.1018 -0.5611
60112SOL     OW86298   5.935  12.158  10.497  0.0906 -0.3513  0.4431
60112SOL    HW186299   5.912  12.066  10.508 -1.3378 -0.0300  0.3552
60112SOL    HW286300   5.971  12.164  10.409  1.7724 -1.0904  1.0317
60113SOL     OW86301   2.720   1.552   8.214 -0.1470 -0.0421  0.3277
60113SOL    HW186302   2.746   1.640   8.243 -0.3701 -0.1956  0.9986
60113SOL    HW286303   2.742   1.551   8.121 -1.2995  1.1813 -0.0011
60114SOL     OW86304   1.049  10.113   8.702 -0.0121  0.0487 -0.2835
60114SOL    HW186305   1.037  10.109   8.797 -0.6619  1.4368 -0.2763
60114SOL    HW286306   1.143  10.104   8.689 -0.0331 -1.3569  0.3927
60115SOL     OW86307   3.731   5.128   3.303 -0.2151 -0.0026 -0.5266
60115SOL    HW186308   3.746   5.196   3.237  3.1969 -0.0198  0.0226
60115SOL    HW286309   3.751   5.046   3.257 -1.8185 -0.4511 -0.4908
60116SOL     OW86310  11.338   6.539   7.886  0.3442 -0.3472 -0.6645
60116SOL    HW186311  11.355   6.619   7.936  3.7592 -1.0632 -0.4059
60116SOL    HW286312  11.305   6.477   7.950 -1.7467  0.6026 -0.7494
60117SOL     OW86313   1.523   7.950   6.384 -0.0986  0.3397 -0.1767
60117SOL    HW186314   1.525   7.855   6.398 -0.4893  0.2145 -0.9307
60117SOL    HW286315   1.455   7.964   6.318  0.7782  1.0101 -0.9885
60118SOL     OW86316   6.421  10.660  10.979 -0.2214 -0.3176  0.2841
60118SOL    HW186317   6.466  10.584  11.016 -0.3915  0.3757  1.9716
60118SOL    HW286318   6.328  10.644  10.997 -0.2637  0.2639  0.6079
60119SOL     OW86319   5.844   3.800   6.831 -0.2431  0.0609  0.0388
60119SOL    HW186320   5.809   3.829   6.915 -0.9303 -0.6912  0.0138
60119SOL    HW286321   5.835   3.877   6.774  0.0195  0.5011  0.5777
60120SOL     OW86322  11.896   9.295   9.460 -0.2741  0.1460  0.4462
60120SOL    HW186323  11.843   9.321   9.385  1.9719  0.9826 -0.9459
60120SOL    HW286324  11.845   9.227   9.503 -2.1020  0.3773 -1.2313
60121SOL     OW86325   0.583   6.163  11.983 -0.1713  0.4208 -0.5235
60121SOL    HW186326   0.519   6.220  12.026  1.0142  2.9886 -1.8804
60121SOL    HW286327   0.610   6.102  12.050 -1.3181  1.6657  1.1613
60122SOL     OW86328   0.659   1.819   6.409  0.0990  0.3406 -0.4650
60122SOL    HW186329   0.696   1.758   6.345  1.2350  0.2975  0.2081
60122SOL    HW286330   0.676   1.778   6.494  0.6670  1.4578 -0.0138
60123SOL     OW86331   5.290   3.521   9.803 -0.3178 -0.4253  0.1672
60123SOL    HW186332   5.263   3.526   9.712 -0.1004  0.0965  0.1271
60123SOL    HW286333   5.224   3.465   9.845 -0.3338 -0.7817 -0.3360
60124SOL     OW86334   2.879   6.699   3.122 -0.1136  0.5604 -0.3768
60124SOL    HW186335   2.958   6.745   3.091 -1.5097  1.1634 -3.3855
60124SOL    HW286336   2.905   6.607   3.124  1.2957  0.9363  0.9725
60125SOL     OW86337   1.831   3.025   6.170 -1.1059  0.2508  0.9064
60125SOL    HW186338   1.831   3.068   6.085  1.2812 -0.4403  0.4770
60125SOL    HW286339   1.831   2.931   6.150  1.4645  0.0424  1.4954
60126SOL     OW86340   6.496   8.126  10.299 -0.3887  0.1502 -0.0336
60126SOL    HW186341   6.533   8.049  10.257 -0.8988  0.5638 -1.3026
60126SOL    HW286342   6.571   8.184  10.313 -0.2674  0.1998 -0.8365
60127SOL     OW86343   5.718  10.519   0.984  0.0213  0.2824 -0.3172
60127SOL    HW186344   5.691  10.603   1.021 -3.2560  0.4425 -2.6010
60127SOL    HW286345   5.798  10.539   0.935  0.2654  1.6309  0.5639
60128SOL     OW86346   8.850   3.264  11.199 -0.2798  0.0871  0.3139
60128SOL    HW186347   8.773   3.213  11.222 -1.3946  1.6646  0.2283
60128SOL    HW286348   8.869   3.318  11.276  0.3002  0.2270  0.0846
60129SOL     OW86349   6.223   2.069  10.561 -0.8838  0.1589 -0.2149
60129SOL    HW186350   6.307   2.041  10.596 -0.3178 -0.0155 -1.6329
60129SOL    HW286351   6.176   1.988  10.543 -0.8302  0.2154 -0.6260
60130SOL     OW86352   5.055   8.911   5.536 -0.4353 -0.0752  0.3759
60130SOL    HW186353   5.116   8.846   5.570 -0.6314 -0.2779  0.3449
60130SOL    HW286354   4.969   8.870   5.544 -0.4091 -0.4948 -1.1893
60131SOL     OW86355   0.483   7.926   3.785 -0.2133 -0.5050  0.0969
60131SOL    HW186356   0.564   7.972   3.759 -0.9178  0.0829 -1.1820
60131SOL    HW286357   0.513   7.842   3.819  1.0770  0.5790  1.8214
60132SOL     OW86358   6.985  10.623   8.134 -0.3829 -0.0556 -0.9333
60132SOL    HW186359   7.034  10.543   8.152 -1.1936 -0.3077  0.2673
60132SOL    HW286360   7.014  10.650   8.047  3.3044  0.8590  0.4254
60133SOL     OW86361   5.475   0.763  10.363  0.2349  0.0295 -0.4951
60133SOL    HW186362   5.397   0.714  10.389 -0.7082  1.4013 -0.6275
60133SOL    HW286363   5.470   0.769  10.268  0.9447 -0.5816 -0.5745
60134SOL     OW86364   7.356   6.422   4.839 -0.1005  0.3083 -0.3012
60134SOL    HW186365   7.373   6.416   4.933 -0.0807 -0.9831 -0.3708
60134SOL    HW286366   7.270   6.381   4.827  0.2996 -0.3580 -0.9586
60135SOL     OW86367   4.612   0.261   5.635 -0.3426  0.2811 -0.1764
60135SOL    HW186368   4.643   0.288   5.722  0.2889  1.1091 -0.6486
60135SOL    HW286369   4.573   0.339   5.598  1.3771  0.5785 -1.5020
60136SOL     OW86370   3.339   4.767  11.764 -0.1142  0.1449 -0.2986
60136SOL    HW186371   3.429   4.744  11.789 -0.0420  1.2590  0.5700
60136SOL    HW286372   3.344   4.859  11.738 -1.0961  0.3748  0.2725
60137SOL     OW86373  12.201   1.220   1.251 -0.7613 -0.5393  0.3710
60137SOL    HW186374  12.120   1.240   1.205 -1.2759  1.4814  1.9681
60137SOL    HW286375  12.205   1.285   1.321  1.6101 -1.3910  1.1357
60138SOL     OW86376   5.309   4.944   0.404  0.3086  0.2648  0.0289
60138SOL    HW186377   5.307   4.973   0.496  0.2204 -0.3725  0.2279
60138SOL    HW286378   5.223   4.969   0.370 -1.0667 -2.5955  1.0952
60139SOL     OW86379   4.434  12.428   9.526  0.0708 -0.2901 -0.3216
60139SOL    HW186380   4.490  12.393   9.595  0.3032  1.8399  0.6556
60139SOL    HW286381   4.365  12.362   9.515  1.7382 -2.1309 -0.2953
60140SOL     OW86382   3.468   0.595   4.489  0.4032  0.0531 -0.1448
60140SOL    HW186383   3.421   0.534   4.545  1.2616  0.3606  0.9743
60140SOL    HW286384   3.537   0.630   4.546  0.0084  1.9781 -0.7668
60141SOL     OW86385  10.512   4.098  11.165 -0.0596 -0.1219  0.1417
60141SOL    HW186386  10.440   4.145  11.208 -0.7970  0.1083 -1.2834
60141SOL    HW286387  10.591   4.128  11.209 -0.6881  0.9871  0.5499
60142SOL     OW86388   9.272   0.165   6.112  0.3460 -0.5169  0.3859
60142SOL    HW186389   9.253   0.193   6.023  0.0679  0.3270  0.6992
60142SOL    HW286390   9.341   0.099   6.103  0.4448 -0.3051 -0.4359
60143SOL     OW86391   9.789   8.813   0.658 -0.3399 -0.1311 -0.7873
60143SOL    HW186392   9.841   8.893   0.669  2.0853 -1.7660  0.6861
60143SOL    HW286393   9.712   8.827   0.713  2.4685 -0.6095  3.8032
60144SOL     OW86394   6.284   7.582   7.393  0.2867  0.4412  0.6486
60144SOL    HW186395   6.190   7.595   7.380  0.3797  0.7740  0.2724
60144SOL    HW286396   6.312   7.659   7.442  0.7275  1.4090 -1.0390
60145SOL     OW86397   4.785   7.232  11.922 -0.2379 -0.0932  0.3303
60145SOL    HW186398   4.708   7.222  11.978  0.8194  0.8648  2.0510
60145SOL    HW286399   4.856   7.253  11.982  1.3066 -0.5582 -1.2491
60146SOL     OW86400   4.228   1.943  11.718 -0.0255  0.4583 -0.4072
60146SOL    HW186401   4.139   1.908  11.730  1.5496 -3.8368  0.8528
60146SOL    HW286402   4.228   2.025  11.767 -2.5825 -0.8120  2.0723
60147SOL     OW86403   4.239   4.678   9.357  0.1608 -0.1701  0.2605
60147SOL    HW186404   4.231   4.602   9.299 -1.6986  0.5425 -0.5055
60147SOL    HW286405   4.319   4.722   9.328 -0.0015 -0.5767 -0.8580
60148SOL     OW86406   4.744   4.195   6.261 -0.1318  0.4813  0.7114
60148SOL    HW186407   4.680   4.264   6.243 -0.7554 -0.3899 -0.5816
60148SOL    HW286408   4.691   4.115   6.271  0.6588 -0.0306  0.9354
60149SOL     OW86409   3.302   4.058  10.101 -0.1280 -0.2222  0.2152
60149SOL    HW186410   3.303   4.153  10.107  0.7279 -0.3145  3.1726
60149SOL    HW286411   3.210   4.034  10.114 -0.1858  0.1844  0.5643
60150SOL     OW86412  11.249   9.852   4.835  0.5818  0.5995  0.0129
60150SOL    HW186413  11.157   9.860   4.859  0.6398  0.8184  0.1665
60150SOL    HW286414  11.296   9.907   4.898  1.0187 -0.9771  1.1334
60151SOL     OW86415   8.335   9.318   9.259  0.2313  0.4195 -0.1770
60151SOL    HW186416   8.370   9.230   9.272  0.1587 -0.1341 -2.9717
60151SOL    HW286417   8.253   9.319   9.309 -0.0370 -1.3289 -0.5054
60152SOL     OW86418   3.093   6.533   6.874 -0.0324  0.4569 -0.0835
60152SOL    HW186419   3.078   6.504   6.964  1.9365  0.2571  0.2231
60152SOL    HW286420   3.040   6.613   6.866  2.1467  2.3240  2.3532
60153SOL     OW86421   8.652  12.453   3.116  0.5647 -0.4387 -0.0189
60153SOL    HW186422   8.735  12.414   3.140  1.0290 -0.7190 -1.9235
60153SOL    HW286423   8.670  12.501   3.035 -1.0940 -0.4618 -0.4549
60154SOL     OW86424   7.805   2.705  10.987 -0.4910  0.4595 -0.1456
60154SOL    HW186425   7.808   2.704  11.083 -1.4049  0.7418 -0.0953
60154SOL    HW286426   7.711   2.709  10.967 -0.2853  1.4386 -1.0259
60155SOL     OW86427   8.606  10.342  11.388 -0.3930 -0.6571 -0.0893
60155SOL    HW186428   8.639  10.388  11.312  0.8949 -0.6650  0.4435
60155SOL    HW286429   8.611  10.249  11.365 -3.6945 -0.6215 -1.4534
60156SOL     OW86430   7.035   0.477  10.914  0.0291  0.4238 -0.3606
60156SOL    HW186431   7.069   0.539  10.978 -1.5651 -0.1405  1.0991
60156SOL    HW286432   6.949   0.453  10.947 -0.4902 -0.5620 -2.2836
60157SOL     OW86433   5.782  11.791  11.576 -0.0920 -0.2668 -0.2729
60157SOL    HW186434   5.836  11.777  11.653  0.9868 -0.1675 -0.9973
60157SOL    HW286435   5.695  11.811  11.611  0.6140  0.8138  0.9494
60158SOL     OW86436   0.990   7.247   1.531  0.0466 -0.1104  0.7673
60158SOL    HW186437   1.085   7.258   1.541  0.0654 -0.5717  1.1417
60158SOL    HW286438   0.980   7.209   1.444  0.0951  1.2621  0.1377
60159SOL     OW86439   1.880   2.308   3.715  0.1164  0.4154  0.4291
60159SOL    HW186440   1.797   2.339   3.678 -0.7252 -1.6993  0.3857
60159SOL    HW286441   1.931   2.388   3.730 -1.1693  1.6594 -1.3147
60160SOL     OW86442  12.338   0.963  10.599 -0.1388 -0.1762 -0.5656
60160SOL    HW186443  12.432   0.975  10.607 -0.1823 -0.2444  0.1046
60160SOL    HW286444  12.303   1.052  10.595 -0.0583 -0.1480 -0.6376
60161SOL     OW86445   2.662   7.476   7.510  0.6254 -0.7381  0.9644
60161SOL    HW186446   2.676   7.413   7.580  1.7526 -2.1181 -0.4418
60161SOL    HW286447   2.691   7.431   7.430 -2.0046  0.1887 -0.6484
60162SOL     OW86448   3.594   5.514  11.539 -0.4865 -0.6693  0.4768
60162SOL    HW186449   3.500   5.512  11.558 -0.7014 -0.3972 -0.5183
60162SOL    HW286450   3.610   5.600  11.502  0.0893 -0.8630  0.2576
60163SOL     OW86451   3.328   6.167   8.674  0.1753  0.3752  0.2692
60163SOL    HW186452   3.274   6.097   8.710  1.0031 -0.0715  0.6838
60163SOL    HW286453   3.410   6.124   8.650 -0.1715  0.7474 -1.7477
60164SOL     OW86454   8.843   1.738  11.627  0.1102 -0.0917 -0.1787
60164SOL    HW186455   8.871   1.760  11.716 -0.1134 -1.0158  0.1388
60164SOL    HW286456   8.924   1.729  11.578  0.2907 -0.7289  0.2263
60165SOL     OW86457   2.665   9.209   2.121  0.1700 -0.1380  0.1588
60165SOL    HW186458   2.657   9.134   2.181  2.3966 -0.1034  0.5702
60165SOL    HW286459   2.693   9.170   2.038  3.3230  0.2917  0.8901
60166SOL     OW86460   2.181   2.568   4.315  0.2840  0.3562 -0.4088
60166SOL    HW186461   2.267   2.526   4.322 -0.6600 -1.5209  0.9480
60166SOL    HW286462   2.189   2.649   4.364  1.5311  0.6891 -1.1208
60167SOL     OW86463   5.202   9.836   5.207 -0.7284  0.2787 -0.4139
60167SOL    HW186464   5.230   9.750   5.178 -1.3075  0.0347 -0.2728
60167SOL    HW286465   5.177   9.882   5.127  0.5520  0.6958 -0.6034
60168SOL     OW86466  10.736  11.532   2.961 -0.4145  0.5866 -0.0546
60168SOL    HW186467  10.706  11.521   2.871 -1.6884 -0.2882  0.4505
60168SOL    HW286468  10.732  11.627   2.976 -0.7403  0.6837 -0.7258
60169SOL     OW86469   6.655   1.441   6.493  0.1186  0.3793 -0.0365
60169SOL    HW186470   6.642   1.458   6.400 -3.4117 -1.8162 -0.1387
60169SOL    HW286471   6.627   1.521   6.536  0.6104  0.9766 -0.8023
60170SOL     OW86472  10.626   9.427   5.037  0.0817  0.3938  0.5392
60170SOL    HW186473  10.697   9.365   5.020 -0.2220  0.0129  0.6541
60170SOL    HW286474  10.611   9.422   5.131 -0.5350 -0.0079  0.4249
60171SOL     OW86475   2.595   2.186   0.165 -0.4863  0.3090 -0.1555
60171SOL    HW186476   2.525   2.149   0.111  1.3958 -2.7648 -0.7830
60171SOL    HW286477   2.606   2.123   0.236  1.2698  0.9626  0.2049
60172SOL     OW86478  11.411   5.329   2.714  0.1751 -0.5019 -0.2515
60172SOL    HW186479  11.344   5.397   2.711  0.9435  0.2648 -0.8815
60172SOL    HW286480  11.430   5.311   2.622 -1.2382 -2.8553 -0.1433
60173SOL     OW86481  12.030   0.885   7.633  0.0848 -0.1136  0.1050
60173SOL    HW186482  11.984   0.906   7.714 -0.4506 -1.6488  0.2175
60173SOL    HW286483  11.961   0.864   7.570  0.5697 -2.3427  0.2522
60174SOL     OW86484   8.908  11.596   1.685  0.4817  0.1676  0.1617
60174SOL    HW186485   8.885  11.569   1.596 -0.6289  0.2595  0.4107
60174SOL    HW286486   8.867  11.531   1.742 -0.3322  1.0875  0.6705
60175SOL     OW86487  10.593   0.040   1.767 -0.2259  0.3758  0.3318
60175SOL    HW186488  10.624   0.040   1.858 -0.2710 -0.3607  0.3535
60175SOL    HW286489  10.576  -0.052   1.748  0.0277  0.4986 -0.5096
60176SOL     OW86490  11.241   5.727   6.289  0.3272  0.0191  0.2845
60176SOL    HW186491  11.164   5.696   6.242 -0.5622  0.1146  1.6300
60176SOL    HW286492  11.224   5.819   6.306  1.0750  0.2275 -0.0469
60177SOL     OW86493   2.633   1.655   3.886 -0.2974 -0.3417 -0.3035
60177SOL    HW186494   2.709   1.617   3.930 -0.4479 -1.8384 -1.2709
60177SOL    HW286495   2.628   1.744   3.920  0.4962 -0.9487  1.5172
60178SOL     OW86496  12.148   7.308  11.886  0.3490  0.1294  0.0621
60178SOL    HW186497  12.178   7.242  11.949  2.4764 -1.5024 -2.4688
60178SOL    HW286498  12.228   7.345  11.850 -0.8024  2.9845  0.1445
60179SOL     OW86499   1.114   5.371  11.029 -0.5547  0.4801  0.1730
60179SOL    HW186500   1.028   5.401  10.999 -0.4091  1.0700  0.3294
60179SOL    HW286501   1.168   5.371  10.950 -0.3970  1.2176  0.2742
60180SOL     OW86502   3.232   3.458   6.056  0.0768  0.0289 -0.8919
60180SOL    HW186503   3.321   3.444   6.022  0.2712  0.0365 -0.3951
60180SOL    HW286504   3.221   3.553   6.058 -0.0849  0.0210 -1.3107
60181SOL     OW86505   8.188   0.168   8.535 -0.0986 -0.0056  0.1192
60181SOL    HW186506   8.256   0.193   8.597  1.5356  1.0542 -1.9443
60181SOL    HW286507   8.165   0.250   8.491 -3.4546 -0.1680  1.3647
60182SOL     OW86508   3.017  10.002   9.168 -0.4138  0.4509  0.3254
60182SOL    HW186509   2.968  10.069   9.121  1.0274  1.3426  0.0292
60182SOL    HW286510   3.088  10.050   9.211  0.3106 -0.8086  0.5884
60183SOL     OW86511   2.732   8.879   3.195 -0.0145  0.3979 -0.0491
60183SOL    HW186512   2.800   8.872   3.263  0.7015  0.0780 -0.7717
60183SOL    HW286513   2.773   8.932   3.127 -0.5167  0.2364 -0.4789
60184SOL     OW86514   6.680  10.705   1.828  0.1102 -0.4309 -0.1578
60184SOL    HW186515   6.608  10.642   1.824 -1.0607  0.5956  2.4388
60184SOL    HW286516   6.736  10.682   1.754 -1.5801 -2.8607 -0.8083
60185SOL     OW86517  10.949   2.636  11.412  0.1932  0.0516 -0.1224
60185SOL    HW186518  10.938   2.573  11.484  0.5492 -1.1572 -1.0839
60185SOL    HW286519  10.878   2.616  11.351  0.4823  0.3989 -0.5785
60186SOL     OW86520   3.103   2.267   4.998 -0.3091 -0.1234  0.2862
60186SOL    HW186521   3.109   2.356   5.034  0.2866  0.3028 -0.8229
60186SOL    HW286522   3.043   2.221   5.058 -0.1937  0.8555  1.1898
60187SOL     OW86523   7.529   5.153   3.550  0.1512 -0.6154  0.2003
60187SOL    HW186524   7.567   5.210   3.484 -0.8395 -0.7700 -0.5178
60187SOL    HW286525   7.452   5.200   3.582 -0.8126 -1.6231 -0.5669
60188SOL     OW86526   2.742  11.601   6.700 -0.2521  0.3803 -0.1241
60188SOL    HW186527   2.682  11.532   6.727 -2.3113  1.7333 -0.9259
60188SOL    HW286528   2.776  11.637   6.782 -0.4854 -0.4769  0.3543
60189SOL     OW86529   1.930   8.639   4.630  0.4015  0.0891 -0.4696
60189SOL    HW186530   2.002   8.583   4.601 -0.3617 -0.7817 -0.7594
60189SOL    HW286531   1.948   8.656   4.722  1.7584  1.1522 -0.8919
60190SOL     OW86532   0.157  11.282   8.826  0.7642 -0.0919 -0.5953
60190SOL    HW186533   0.216  11.253   8.756  0.2328 -0.2363 -0.9899
60190SOL    HW286534   0.070  11.274   8.788  0.4190 -0.8415  0.3239
60191SOL     OW86535   7.399  10.308  11.008 -0.2469 -0.0574 -0.1576
60191SOL    HW186536   7.353  10.391  11.007  1.2893  0.8356 -0.3539
60191SOL    HW286537   7.426  10.295  10.917  0.6828 -0.0716  0.1070
60192SOL     OW86538  11.985   7.845  11.956 -0.5407  0.3360  0.0008
60192SOL    HW186539  12.040   7.836  12.034 -0.2110 -3.0208 -0.4404
60192SOL    HW286540  11.897   7.822  11.986 -1.0112  1.9156 -0.0807
60193SOL     OW86541   3.960   4.471   6.499 -0.2872 -0.0692 -0.1007
60193SOL    HW186542   3.892   4.403   6.499  0.1741 -0.5381  0.1156
60193SOL    HW286543   3.997   4.469   6.411 -0.1404 -0.2420 -0.0372
60194SOL     OW86544   8.878  10.110   6.668  0.3050  0.4039  0.4571
60194SOL    HW186545   8.861  10.153   6.584 -2.1360 -1.3110 -0.0578
60194SOL    HW286546   8.935  10.036   6.646 -0.5396 -0.1968  0.1934
60195SOL     OW86547   9.256   9.787   1.632 -0.2385  0.0391  0.4311
60195SOL    HW186548   9.273   9.826   1.718  0.3234  1.5788 -0.3425
60195SOL    HW286549   9.339   9.795   1.585 -0.8090  0.1444 -0.5989
60196SOL     OW86550  10.790   5.560   9.464  0.4599 -0.2186 -0.1847
60196SOL    HW186551  10.796   5.586   9.556  0.7211 -0.8629 -0.0218
60196SOL    HW286552  10.696   5.568   9.444  0.1608 -1.5948  0.5866
60197SOL     OW86553   1.959   9.824   2.667 -0.7837  0.2069 -0.5237
60197SOL    HW186554   1.913   9.795   2.746 -0.5832  0.4804 -0.3010
60197SOL    HW286555   1.961   9.747   2.610  1.5427 -0.9056  0.8647
60198SOL     OW86556   0.761  11.447   3.141  0.2443 -0.0217  0.6962
60198SOL    HW186557   0.676  11.417   3.173 -0.8832  0.8785 -1.2918
60198SOL    HW286558   0.780  11.390   3.067  0.7114  0.6633  0.2799
60199SOL     OW86559   0.317   2.367   4.268 -0.3308  0.3026 -0.5055
60199SOL    HW186560   0.379   2.304   4.231 -0.2375  0.4320 -0.5735
60199SOL    HW286561   0.231   2.330   4.249 -0.2772 -0.8949  1.3677
60200SOL     OW86562   2.552   2.932   5.753  0.1837 -0.0614 -0.4714
60200SOL    HW186563   2.589   3.019   5.769 -2.5474  0.8357  2.1129
60200SOL    HW286564   2.510   2.909   5.836 -0.5530 -3.1716 -1.5730
60201SOL     OW86565   2.156   6.777   0.538  0.5221 -0.3327 -0.0687
60201SOL    HW186566   2.142   6.773   0.633  0.3752 -0.3756 -0.0914
60201SOL    HW286567   2.074   6.744   0.501  1.4389 -2.7435 -0.1706
60202SOL     OW86568   2.207   6.987   7.175 -0.3476 -0.1368 -0.0697
60202SOL    HW186569   2.300   6.965   7.164 -0.2371  0.4059 -0.2318
60202SOL    HW286570   2.201   7.020   7.265 -0.0346  1.5109 -0.6152
60203SOL     OW86571   7.357   1.106   7.074  0.2337 -0.2925  0.0753
60203SOL    HW186572   7.411   1.118   7.152  1.6894  0.3888 -0.9752
60203SOL    HW286573   7.362   1.012   7.056  0.7800 -0.2900  0.1997
60204SOL     OW86574   9.851   9.709  10.597 -0.2564  0.1217  0.0661
60204SOL    HW186575   9.827   9.682  10.509  0.1274  0.5831 -0.1793
60204SOL    HW286576   9.862   9.626  10.645 -1.4498 -0.1101 -0.0423
60205SOL     OW86577   3.786  11.379   0.858 -0.2193 -0.3650  0.5206
60205SOL    HW186578   3.804  11.397   0.766 -0.9415 -2.6429 -0.1378
60205SOL    HW286579   3.704  11.424   0.876 -0.0292  0.1638  0.0985
60206SOL     OW86580   3.924  12.261   3.332  0.0964  0.0765 -0.4373
60206SOL    HW186581   3.852  12.303   3.380  1.4359 -0.1421  1.9212
60206SOL    HW286582   3.884  12.228   3.252 -2.4729 -0.2422  0.8871
60207SOL     OW86583   8.565   1.517  10.846  0.2448  0.1346 -0.0468
60207SOL    HW186584   8.579   1.477  10.932 -0.6293  0.2543  0.1654
60207SOL    HW286585   8.489   1.574  10.859 -1.1205 -1.2816 -1.3472
60208SOL     OW86586   7.227   4.869   7.564 -0.0921 -0.1567 -0.5330
60208SOL    HW186587   7.275   4.952   7.563 -1.5149  0.7348  0.5496
60208SOL    HW286588   7.231   4.838   7.474  1.9476  0.1848 -0.5965
60209SOL     OW86589   1.509   7.393   6.297 -0.1014 -0.1241  0.7918
60209SOL    HW186590   1.457   7.332   6.348 -0.5280  0.7988  1.5053
60209SOL    HW286591   1.447   7.461   6.271  0.6660  0.8667  1.4505
60210SOL     OW86592   9.591   9.548   5.989  0.5719 -0.7763  0.9247
60210SOL    HW186593   9.670   9.500   5.963  1.3106  1.0599 -0.4494
60210SOL    HW286594   9.594   9.548   6.085  2.8291  0.0782  0.9306
60211SOL     OW86595   0.074   7.445   0.078 -0.5958  0.1428 -0.3666
60211SOL    HW186596   0.153   7.400   0.048  0.3952  1.3429  0.3753
60211SOL    HW286597   0.083   7.448   0.173 -2.4836 -1.3951 -0.0782
60212SOL     OW86598   2.913   8.392   5.168  0.3486  0.0789 -0.6644
60212SOL    HW186599   2.967   8.330   5.217 -0.7770 -0.3545  0.0723
60212SOL    HW286600   2.856   8.336   5.115  0.8613  0.5332 -1.7310
60213SOL     OW86601   0.128   7.327   3.690  0.4291  0.4173 -0.2758
60213SOL    HW186602   0.033   7.319   3.682  0.3363  0.1783  0.8603
60213SOL    HW286603   0.161   7.241   3.667  0.3927  0.5585 -0.8742
60214SOL     OW86604   3.768   6.177   4.306 -0.0080 -0.2318 -0.0584
60214SOL    HW186605   3.724   6.253   4.345  2.2471  0.2446  1.7932
60214SOL    HW286606   3.861   6.189   4.328  0.6598 -2.6806 -1.1746
60215SOL     OW86607   3.558   3.920  10.783 -0.2479 -0.2703 -0.4663
60215SOL    HW186608   3.516   4.006  10.782  1.5101  0.6240 -1.8543
60215SOL    HW286609   3.567   3.899  10.876  0.2380  1.5266 -0.0743
60216SOL     OW86610   7.150  11.908   0.223 -0.8840 -0.7919  0.0128
60216SOL    HW186611   7.122  11.825   0.184  1.9633 -2.5373  1.3839
60216SOL    HW286612   7.109  11.909   0.310 -1.3215 -0.4875 -0.1926
60217SOL     OW86613   0.443   7.155  10.456  0.6118 -0.4453  0.0265
60217SOL    HW186614   0.414   7.122  10.371 -0.9921  0.0296  0.3510
60217SOL    HW286615   0.520   7.207  10.436 -0.4900  0.7665 -1.3646
60218SOL     OW86616   4.736   2.772   5.227  0.4782 -0.0096  0.1456
60218SOL    HW186617   4.713   2.865   5.228  2.8257  0.6398 -0.9293
60218SOL    HW286618   4.805   2.763   5.293  4.1029  0.2465 -3.2362
60219SOL     OW86619   8.232   2.351   1.171 -0.8803  0.7888 -0.1758
60219SOL    HW186620   8.168   2.413   1.207 -0.3532  1.7121 -0.7854
60219SOL    HW286621   8.189   2.266   1.179 -1.6377  1.2226  0.6602
60220SOL     OW86622   1.809   1.030  10.839  0.2307  0.0973 -1.0089
60220SOL    HW186623   1.879   1.094  10.827 -0.1177  0.2386 -2.4690
60220SOL    HW286624   1.728   1.080  10.832 -0.0262 -0.1781 -0.0630
60221SOL     OW86625   5.692  10.172   8.847  0.2284  0.6091  0.1227
60221SOL    HW186626   5.597  10.158   8.849  0.2474  0.5481  2.2112
60221SOL    HW286627   5.729  10.094   8.889  1.2273  0.6634 -0.5987
60222SOL     OW86628   8.343   2.278   9.900  0.3791 -0.1073 -0.2721
60222SOL    HW186629   8.415   2.336   9.926  0.3795 -1.0206  2.0158
60222SOL    HW286630   8.378   2.229   9.826  1.4732  0.7112 -0.3277
60223SOL     OW86631   0.039   2.059   2.652  0.1927 -0.1646 -0.2234
60223SOL    HW186632   0.116   2.109   2.626 -0.3910  0.0101 -1.6963
60223SOL    HW286633   0.005   2.105   2.728  1.9413 -0.6770  0.9466
60224SOL     OW86634   8.334   8.657   4.229 -0.2203 -0.0224  0.5672
60224SOL    HW186635   8.341   8.583   4.289 -0.3906 -0.0753  0.5214
60224SOL    HW286636   8.240   8.673   4.221 -0.1848  0.1968  0.5743
60225SOL     OW86637   2.203   2.199   7.336 -0.0765 -0.1505  0.4136
60225SOL    HW186638   2.237   2.228   7.251 -0.5810  1.3782  0.7153
60225SOL    HW286639   2.167   2.112   7.318  1.7256 -0.7657 -0.4504
60226SOL     OW86640   9.924   9.956   3.063 -0.0514  0.1076 -0.1717
60226SOL    HW186641  10.006  10.003   3.049 -0.3640  0.3591 -1.2453
60226SOL    HW286642   9.899   9.925   2.975 -0.2186 -1.4513  0.3908
60227SOL     OW86643   2.273   4.647   9.820  0.2464 -0.1007  0.3685
60227SOL    HW186644   2.348   4.592   9.800  0.5191 -0.5740  2.4470
60227SOL    HW286645   2.252   4.626   9.911  0.2894  3.1038  1.2454
60228SOL     OW86646   2.707   2.128   7.030 -0.0330  0.1410  0.1671
60228SOL    HW186647   2.661   2.209   7.050 -1.0784  0.1362 -1.9501
60228SOL    HW286648   2.639   2.061   7.030  0.7313 -0.6749  1.3477
60229SOL     OW86649   5.506   2.786   0.088 -0.1206  0.0087  0.2441
60229SOL    HW186650   5.467   2.715   0.139 -2.0638  0.9636  0.1552
60229SOL    HW286651   5.433   2.844   0.067  1.4898  2.4414  0.9315
60230SOL     OW86652   9.863  10.140   5.611  0.1517 -0.4787 -0.6832
60230SOL    HW186653   9.900  10.215   5.565  0.5024 -0.9314 -1.1634
60230SOL    HW286654   9.858  10.071   5.544  1.3104 -1.3646  0.0999
60231SOL     OW86655   1.389   9.548   4.173 -0.0423  0.1188  0.5645
60231SOL    HW186656   1.370   9.564   4.266  0.5318 -0.1222  0.7277
60231SOL    HW286657   1.460   9.484   4.174  0.3656  0.5587 -0.0365
60232SOL     OW86658   4.927   7.107   2.920 -0.7715 -0.6997 -0.4201
60232SOL    HW186659   4.834   7.088   2.930 -1.1247  1.3253  0.7543
60232SOL    HW286660   4.932   7.203   2.918  1.3862 -0.6964  1.0085
60233SOL     OW86661   5.452   1.851   3.933  0.4767  0.2148  0.0145
60233SOL    HW186662   5.392   1.796   3.882  1.9441 -0.7019 -0.7876
60233SOL    HW286663   5.510   1.891   3.868  0.5330  1.3831  0.7382
60234SOL     OW86664   2.052   1.888   1.825  0.4218  0.9345 -0.0045
60234SOL    HW186665   2.005   1.971   1.830 -2.4117 -0.5955  0.7323
60234SOL    HW286666   2.030   1.854   1.739  0.9406  0.5872 -0.0005
60235SOL     OW86667   7.341   7.626   1.326  0.2457  0.4386  0.3202
60235SOL    HW186668   7.277   7.611   1.257  1.6722 -1.2978 -0.7283
60235SOL    HW286669   7.336   7.548   1.381  1.5267  0.1850  0.1171
60236SOL     OW86670   6.038   7.971  10.995 -0.0471  0.2650  0.1670
60236SOL    HW186671   5.973   8.037  11.020 -0.3247  0.0487  0.0158
60236SOL    HW286672   6.122   8.010  11.021  0.0748  1.8333 -2.2190
60237SOL     OW86673   6.687   6.139   0.266  0.4817 -0.1156  0.1430
60237SOL    HW186674   6.744   6.156   0.191 -1.6238  2.4658 -1.0692
60237SOL    HW286675   6.739   6.164   0.342  1.4147  1.0058 -0.8149
60238SOL     OW86676   9.135  10.204   0.895  0.2538  0.3038 -0.4417
60238SOL    HW186677   9.079  10.177   0.967  1.1199  1.0740  0.5435
60238SOL    HW286678   9.188  10.128   0.875  0.2754  0.2107 -0.0167
60239SOL     OW86679   1.888   5.049   7.937  0.0600 -0.2737  0.3053
60239SOL    HW186680   1.844   5.101   8.004  1.3222 -0.6984  1.5050
60239SOL    HW286681   1.822   4.986   7.908 -0.1404 -0.9370  2.0879
60240SOL     OW86682  11.540   3.244  10.534 -0.0683 -0.5141  0.2049
60240SOL    HW186683  11.465   3.188  10.555  0.6106 -1.1097  1.0797
60240SOL    HW286684  11.616   3.187  10.543  0.5507  0.2535 -0.0392
60241SOL     OW86685   4.048   3.581   9.867 -0.5859  0.1057  0.3536
60241SOL    HW186686   4.054   3.662   9.917 -0.4175  0.3229 -0.0188
60241SOL    HW286687   4.139   3.559   9.846 -0.6915  0.3140 -0.3416
60242SOL     OW86688   6.890   4.837   6.318 -0.3488 -0.0030  0.1935
60242SOL    HW186689   6.831   4.765   6.338 -0.1274 -0.2223  0.0620
60242SOL    HW286690   6.836   4.901   6.271 -0.7607  0.3120  1.0701
60243SOL     OW86691  11.072   1.745   1.850  0.0218  0.3971 -0.1423
60243SOL    HW186692  11.062   1.830   1.893  1.5554  0.2496  0.5526
60243SOL    HW286693  11.065   1.681   1.920 -3.1276 -0.2502 -0.9125
60244SOL     OW86694  10.817   9.826   0.704  0.6176  0.2550 -0.1190
60244SOL    HW186695  10.849   9.857   0.619 -0.1992  0.4487 -0.3695
60244SOL    HW286696  10.771   9.901   0.741  0.1691 -0.1079  0.0719
60245SOL     OW86697   4.576   4.398   6.164  0.1998 -0.1172 -0.1773
60245SOL    HW186698   4.629   4.433   6.093  2.6444 -2.1339  0.5088
60245SOL    HW286699   4.512   4.341   6.120  1.2697 -0.8401 -0.8490
60246SOL     OW86700   8.207   0.863   9.326  0.0281 -0.2512 -0.3390
60246SOL    HW186701   8.144   0.800   9.291  0.0485 -1.2349  1.2846
60246SOL    HW286702   8.173   0.884   9.413  0.9177  0.7171 -0.2100
60247SOL     OW86703   8.567   0.942   7.576  0.0218 -0.0143  0.7521
60247SOL    HW186704   8.549   0.990   7.495  1.0154 -0.8861 -0.0133
60247SOL    HW286705   8.574   0.851   7.548 -3.3643 -0.9486  2.3578
60248SOL     OW86706  12.078  10.779   2.177  0.1676  0.0774  0.2480
60248SOL    HW186707  12.125  10.696   2.186  0.5957  0.3581  0.6543
60248SOL    HW286708  12.041  10.795   2.264 -0.7427 -0.1638 -0.0739
60249SOL     OW86709   7.106  12.431  10.150 -0.4665 -0.1386 -0.3421
60249SOL    HW186710   7.055  12.473  10.081 -0.9844 -2.8012 -1.7114
60249SOL    HW286711   7.057  12.448  10.231 -2.0770 -0.3459 -1.2414
60250SOL     OW86712  11.232   6.371   7.128 -0.6928  0.1055 -0.0972
60250SOL    HW186713  11.309   6.367   7.185 -0.4881 -0.8330 -0.4069
60250SOL    HW286714  11.160   6.339   7.182 -0.5491 -0.5367 -0.2787
60251SOL     OW86715   9.720   7.532   6.008 -0.1546  0.5149  0.0015
60251SOL    HW186716   9.715   7.471   5.934 -2.1566  1.8040 -0.9874
60251SOL    HW286717   9.809   7.520   6.041  0.4580 -0.8917 -1.9195
60252SOL     OW86718   7.264   1.090  11.423 -0.1215 -0.1199  0.5169
60252SOL    HW186719   7.329   1.085  11.353 -1.5058 -0.5209 -0.7632
60252SOL    HW286720   7.216   1.008  11.419 -1.3074  0.5297  0.8557
60253SOL     OW86721  10.985   9.989   0.170 -0.3590  0.3916  0.2891
60253SOL    HW186722  11.078   9.965   0.175 -0.3381  0.6365  1.2193
60253SOL    HW286723  10.956   9.992   0.261 -0.7676  2.3232  0.1368
60254SOL     OW86724   6.813  11.264   4.546  0.2138  0.1329 -0.0761
60254SOL    HW186725   6.848  11.184   4.506 -1.2681 -0.3067 -0.5740
60254SOL    HW286726   6.875  11.332   4.521  0.4556 -0.5175 -1.3458
60255SOL     OW86727   3.891   9.471   1.271 -0.5073  0.8893 -0.1684
60255SOL    HW186728   3.973   9.458   1.317  0.0657  1.4733 -0.9779
60255SOL    HW286729   3.824   9.432   1.327  0.2954  0.6118  0.6064
60256SOL     OW86730   8.083   5.380   6.604 -0.2534 -0.0688 -0.4828
60256SOL    HW186731   8.025   5.417   6.537 -0.1803  1.9356  0.4657
60256SOL    HW286732   8.034   5.306   6.640 -2.3403  1.6007  0.3398
60257SOL     OW86733   9.388   8.522   8.495 -0.1027 -0.7820 -0.0639
60257SOL    HW186734   9.417   8.501   8.406  1.7435  0.0599  0.2755
60257SOL    HW286735   9.374   8.437   8.537 -1.7952 -1.1946 -1.3494
60258SOL     OW86736   0.413   0.015   8.332  0.0330  0.0068  0.3564
60258SOL    HW186737   0.334  -0.039   8.335 -0.5862  0.8122 -0.8849
60258SOL    HW286738   0.425   0.036   8.239  2.1430 -0.7058  0.4025
60259SOL     OW86739  10.623   1.566  12.046 -0.3975  0.5751 -0.2571
60259SOL    HW186740  10.703   1.540  12.001 -0.3750  0.0876  0.0577
60259SOL    HW286741  10.631   1.661  12.056  0.1668  0.5222 -0.1818
60260SOL     OW86742   7.027   8.895   2.940  0.0835 -0.4175 -0.7630
60260SOL    HW186743   7.052   8.840   3.015 -0.3822 -0.3965 -0.5886
60260SOL    HW286744   7.109   8.935   2.912  0.4091 -1.0969 -0.8070
60261SOL     OW86745   3.417   9.009   4.568 -0.0997 -0.0217 -0.2504
60261SOL    HW186746   3.495   9.015   4.512 -0.1988  1.1737 -0.2798
60261SOL    HW286747   3.343   9.023   4.509 -0.2504  0.3757  0.0271
60262SOL     OW86748   8.438   8.424  10.926  0.0109 -0.1510  0.0754
60262SOL    HW186749   8.458   8.513  10.955  0.1667 -0.1103 -0.1575
60262SOL    HW286750   8.385   8.435  10.847  1.2130 -0.2581 -0.7747
60263SOL     OW86751   0.515   9.168   3.192  0.1283 -0.4934  0.1134
60263SOL    HW186752   0.517   9.078   3.159  0.1765 -0.1381 -0.8690
60263SOL    HW286753   0.607   9.194   3.196  0.0474  0.0660 -1.1893
60264SOL     OW86754   2.852   7.598   8.366  0.2973 -0.1039 -0.6696
60264SOL    HW186755   2.797   7.539   8.315  0.8567 -0.3581 -0.9878
60264SOL    HW286756   2.811   7.684   8.357 -0.6717 -0.4722  0.0096
60265SOL     OW86757   9.859  11.066   8.034  0.2977  0.0430  0.3403
60265SOL    HW186758   9.911  10.986   8.023  2.5520  1.6267 -1.7031
60265SOL    HW286759   9.914  11.123   8.088 -0.2990  0.9760 -0.0140
60266SOL     OW86760   4.072   1.151  11.459 -0.0118  0.2251  0.2708
60266SOL    HW186761   4.116   1.068  11.475 -1.0377 -0.0743  1.8060
60266SOL    HW286762   4.037   1.176  11.545 -1.0324  1.4682 -0.4700
60267SOL     OW86763   2.510   2.872   7.336  0.2149  0.2851  0.3822
60267SOL    HW186764   2.544   2.945   7.388  1.7884 -1.5382  2.1067
60267SOL    HW286765   2.556   2.878   7.253  1.5109  0.4210  1.0809
60268SOL     OW86766   2.802   7.969   6.740 -0.1117  0.0580 -0.0051
60268SOL    HW186767   2.844   8.000   6.659  0.4156 -1.2137 -0.2546
60268SOL    HW286768   2.855   7.893   6.766 -1.4043 -0.6983  0.4940
60269SOL     OW86769   1.362   0.245  11.254 -0.4472 -0.5860  0.6001
60269SOL    HW186770   1.360   0.262  11.348  0.7875  0.9968  0.3678
60269SOL    HW286771   1.343   0.329  11.213  0.5325 -0.9174 -0.5888
60270SOL     OW86772   6.017   9.577   4.925  0.2608 -0.0979  0.0905
60270SOL    HW186773   5.956   9.516   4.884 -0.3225  0.2436  0.4230
60270SOL    HW286774   6.090   9.584   4.864  0.2014 -0.9030 -0.0841
60271SOL     OW86775   0.382   6.023   0.685  0.0498  0.3448 -0.1151
60271SOL    HW186776   0.420   6.053   0.603  0.6220  1.4793  0.5314
60271SOL    HW286777   0.451   5.972   0.726 -0.2034 -0.1461 -0.2983
60272SOL     OW86778   9.832   0.937   0.024  0.1956  0.1822  0.6385
60272SOL    HW186779   9.765   0.978  -0.029  0.2104 -2.7695 -1.9380
60272SOL    HW286780   9.915   0.965  -0.016  0.2540 -0.9164 -0.0419
60273SOL     OW86781   3.308   8.553   5.062  0.2451  0.3330 -0.5294
60273SOL    HW186782   3.301   8.573   5.155 -0.7758 -1.3060 -0.2011
60273SOL    HW286783   3.234   8.598   5.021  0.7920  1.1926 -0.5939
60274SOL     OW86784  12.260   7.631  10.607  0.0666  0.2039 -0.1244
60274SOL    HW186785  12.296   7.543  10.623 -0.3584  0.0355 -0.0908
60274SOL    HW286786  12.183   7.615  10.552  2.0086  0.8036 -3.2609
60275SOL     OW86787   4.703  10.210   1.192  0.4038 -0.0492  0.0588
60275SOL    HW186788   4.697  10.280   1.127 -0.6510 -0.1218  0.0567
60275SOL    HW286789   4.757  10.246   1.262 -0.3828  0.8977  0.2022
60276SOL     OW86790   3.092   3.113   4.879  0.5314 -0.4909 -0.2673
60276SOL    HW186791   3.117   3.033   4.926  2.4026  0.5689  0.6433
60276SOL    HW286792   3.004   3.133   4.911  0.1482 -2.0085 -0.2997
60277SOL     OW86793  11.176   8.046  12.485  0.3956 -0.1288 -0.2297
60277SOL    HW186794  11.150   8.078  12.572  0.8191  2.4522 -0.9761
60277SOL    HW286795  11.097   8.055  12.432  0.6246 -0.0283 -0.5508
60278SOL     OW86796   7.563   4.586   8.417 -0.1976 -0.1359 -0.1360
60278SOL    HW186797   7.615   4.643   8.362  0.7772  0.3945  1.2654
60278SOL    HW286798   7.534   4.642   8.489  0.4277 -1.2683  1.0445
60279SOL     OW86799   8.032   0.619  11.414 -0.1155 -0.7948  0.5756
60279SOL    HW186800   8.053   0.536  11.370 -0.1347 -1.3431  1.5682
60279SOL    HW286801   8.111   0.640  11.464 -0.8037 -1.2662  1.9074
60280SOL     OW86802   2.380   3.096   3.269 -0.0345 -0.0303  0.1504
60280SOL    HW186803   2.431   3.106   3.189 -0.6652 -0.3409 -0.2945
60280SOL    HW286804   2.377   3.184   3.306  0.6833  0.0230  0.1017
60281SOL     OW86805   5.870   7.855   0.881  0.5102  0.1472 -0.1213
60281SOL    HW186806   5.814   7.925   0.849  1.5797  0.0252 -2.4818
60281SOL    HW286807   5.859   7.857   0.976 -0.4477  2.6653 -0.2085
60282SOL     OW86808   1.197   5.365   1.213 -0.0236 -0.3811 -0.1671
60282SOL    HW186809   1.194   5.329   1.124  1.2016  0.6654 -0.6605
60282SOL    HW286810   1.110   5.403   1.226  0.8685  2.8923 -2.4587
60283SOL     OW86811   8.215   8.192   2.235  0.5104 -0.5752 -0.2545
60283SOL    HW186812   8.279   8.167   2.168  1.0766 -0.1867  0.1359
60283SOL    HW286813   8.240   8.280   2.261 -0.0535 -0.5024  0.0664
60284SOL     OW86814   7.320   7.050   3.878  0.0662 -0.1673  0.0088
60284SOL    HW186815   7.350   7.033   3.788  0.3215 -0.1101  0.0808
60284SOL    HW286816   7.231   7.015   3.881 -0.0591  0.1160 -0.3587
60285SOL     OW86817   2.685   0.064   1.339 -0.2666 -0.2515  0.2354
60285SOL    HW186818   2.674  -0.013   1.283 -0.9530  0.5021 -0.6966
60285SOL    HW286819   2.604   0.113   1.328  0.0203  0.4239  1.1043
60286SOL     OW86820   8.061   2.991   3.823  0.2380 -0.1046  0.5286
60286SOL    HW186821   8.042   3.079   3.791 -0.5265 -0.1584  0.8261
60286SOL    HW286822   8.134   3.004   3.884  0.8313  0.1731 -0.2215
60287SOL     OW86823   9.032  10.442  11.431 -0.2125 -0.0860 -0.0836
60287SOL    HW186824   8.998  10.354  11.446 -0.0843 -0.5627 -2.3292
60287SOL    HW286825   9.126  10.435  11.449  0.0282 -0.7697 -1.4795
60288SOL     OW86826   0.066  11.302   7.925  0.5515 -0.4445  0.5193
60288SOL    HW186827   0.157  11.328   7.941  0.8051 -0.2744 -1.0632
60288SOL    HW286828   0.037  11.357   7.853 -0.5381 -1.0913  0.4376
60289SOL     OW86829  12.298   2.818  10.369 -0.2099 -0.7689  0.3983
60289SOL    HW186830  12.276   2.762  10.443  1.7152 -0.6380  1.1374
60289SOL    HW286831  12.340   2.760  10.306  0.2334 -0.4891  0.4281
60290SOL     OW86832   0.773  10.168  11.820  0.0388 -0.3235  0.1923
60290SOL    HW186833   0.859  10.201  11.846  0.3580 -1.5536  0.8061
60290SOL    HW286834   0.711  10.233  11.853  0.7279  0.6378 -0.3687
60291SOL     OW86835   4.504   7.137   9.846  0.0211  0.1235 -0.6581
60291SOL    HW186836   4.457   7.103   9.922  0.6525  0.8322  0.0780
60291SOL    HW286837   4.573   7.073   9.830  0.1353  0.1675 -0.3652
60292SOL     OW86838   9.621   7.316   4.841 -0.1248 -0.8463  0.2575
60292SOL    HW186839   9.531   7.326   4.874  0.2800  1.5009  0.8459
60292SOL    HW286840   9.664   7.261   4.907 -0.7550 -0.7784  0.7428
60293SOL     OW86841  10.628   4.568   8.951  0.6491  0.2914 -0.0338
60293SOL    HW186842  10.592   4.638   8.896  1.3932  1.5195  0.9812
60293SOL    HW286843  10.589   4.583   9.037  1.3498 -0.1224  0.3653
60294SOL     OW86844  12.128   8.432   5.894 -0.2547 -0.1514  0.9683
60294SOL    HW186845  12.155   8.359   5.838 -0.5690 -0.3626  1.0905
60294SOL    HW286846  12.149   8.511   5.843 -0.4256 -0.3412  0.6029
60295SOL     OW86847   7.053   7.036   0.786  0.2343 -0.3501 -0.0580
60295SOL    HW186848   6.975   7.067   0.831  1.5386  0.3176  1.8610
60295SOL    HW286849   7.059   7.089   0.707 -1.2153 -0.3990 -0.2135
60296SOL     OW86850   8.496   4.755   9.165  0.1039 -0.1626 -0.1344
60296SOL    HW186851   8.588   4.741   9.146  0.1951  2.1309 -1.8588
60296SOL    HW286852   8.491   4.753   9.261  2.0740  0.2669  0.0229
60297SOL     OW86853   0.691   3.019   8.585 -0.5428 -0.3422 -0.7741
60297SOL    HW186854   0.666   2.997   8.495  0.3873 -1.4230 -0.7949
60297SOL    HW286855   0.783   2.992   8.592  0.0829  1.7045 -0.1300
60298SOL     OW86856   8.180   1.338   5.022  0.0218 -0.5605  0.0026
60298SOL    HW186857   8.276   1.333   5.015  0.1540 -0.2940  1.4229
60298SOL    HW286858   8.162   1.431   5.037 -0.4026 -0.7302  0.5345
60299SOL     OW86859  11.998  10.644   1.221 -0.4277  0.4909 -0.3793
60299SOL    HW186860  11.985  10.640   1.126 -0.1732  4.2983 -0.7189
60299SOL    HW286861  12.056  10.719   1.235 -1.7512  1.0969  2.8816
60300SOL     OW86862   7.245  10.208   0.405  0.2266 -0.6302  0.3172
60300SOL    HW186863   7.168  10.263   0.416 -0.1724 -0.6904 -1.8109
60300SOL    HW286864   7.211  10.125   0.371  1.2971  0.1438 -3.0501
60301SOL     OW86865   4.448   0.523   8.999  0.4133  0.6695 -0.2408
60301SOL    HW186866   4.431   0.435   8.966  1.2086  0.4816 -0.1616
60301SOL    HW286867   4.417   0.521   9.090  1.0395  0.2688 -0.0320
60302SOL     OW86868   8.805   8.719  10.980  0.1413  0.0931 -0.0724
60302SOL    HW186869   8.819   8.684  10.892 -1.0455 -0.3066 -0.1162
60302SOL    HW286870   8.852   8.659  11.038  2.8949  1.5842 -0.5308
60303SOL     OW86871   0.600   5.629  10.357 -0.8247 -0.1002 -0.1436
60303SOL    HW186872   0.631   5.716  10.330  1.4917 -1.0170 -0.7301
60303SOL    HW286873   0.506   5.630  10.339 -0.7854  2.1544 -0.4776
60304SOL     OW86874   8.372   4.068   6.105  0.4423 -0.4322  0.0478
60304SOL    HW186875   8.395   3.977   6.121 -1.1845 -1.2412 -1.7176
60304SOL    HW286876   8.297   4.085   6.163 -0.3605 -0.8117 -0.8470
60305SOL     OW86877   2.764   5.434   8.826  0.1858  0.5832 -0.3861
60305SOL    HW186878   2.741   5.527   8.817  0.5675  0.9217  1.6439
60305SOL    HW286879   2.679   5.389   8.826 -0.0847  1.0823  0.0297
60306SOL     OW86880   1.617   4.038   8.836  0.3863  0.5362  0.2822
60306SOL    HW186881   1.659   4.123   8.820  2.2678 -0.1810  1.1274
60306SOL    HW286882   1.667   3.976   8.784  0.7279 -0.4202  1.6852
60307SOL     OW86883   4.506   9.884   9.409 -0.2701 -0.8081  0.4804
60307SOL    HW186884   4.508   9.865   9.503  0.8224 -1.2182  0.3914
60307SOL    HW286885   4.596   9.868   9.380 -0.1812  0.9216 -0.3258
60308SOL     OW86886   0.862   7.131   9.411  0.3168  0.2375 -0.0060
60308SOL    HW186887   0.906   7.114   9.494 -0.2974  1.7256  0.6636
60308SOL    HW286888   0.898   7.215   9.382 -1.3935  1.0519  0.1268
60309SOL     OW86889   4.801  12.274   6.725  0.3828  0.2737  0.4930
60309SOL    HW186890   4.889  12.302   6.749  1.7049 -1.9284 -1.2919
60309SOL    HW286891   4.797  12.288   6.630 -0.6060 -1.0435  0.3105
60310SOL     OW86892   8.226  10.060   2.596 -0.7677 -0.5214  0.0849
60310SOL    HW186893   8.138  10.050   2.559 -1.2585 -0.0665  1.0937
60310SOL    HW286894   8.236   9.984   2.654 -0.3159 -0.8008 -0.3467
60311SOL     OW86895   5.382   0.027  11.788  0.1089  0.7187 -0.1332
60311SOL    HW186896   5.377   0.074  11.705  0.8890  0.1275 -0.5283
60311SOL    HW286897   5.474   0.002  11.796  0.7476  3.3429  2.3777
60312SOL     OW86898   8.513   1.645   2.260  0.0882  0.5402 -0.2926
60312SOL    HW186899   8.560   1.699   2.325  0.8410  0.1293 -0.4827
60312SOL    HW286900   8.440   1.608   2.309  1.2654 -0.6453  0.6508
60313SOL     OW86901  12.206   6.674   3.182  0.2087  0.4123  0.4320
60313SOL    HW186902  12.144   6.746   3.174  0.9644  1.2829  1.9203
60313SOL    HW286903  12.274   6.694   3.117  0.4800  1.1372  0.9237
60314SOL     OW86904   8.602   8.963   6.686  0.3346  0.1690 -0.1323
60314SOL    HW186905   8.642   8.967   6.773  3.2571 -1.6121 -1.2289
60314SOL    HW286906   8.621   9.048   6.646  1.2054  0.1001  0.1229
60315SOL     OW86907   6.432  10.730   9.608 -0.0120  0.6109  0.5177
60315SOL    HW186908   6.488  10.766   9.539  0.4540  0.5076  0.8333
60315SOL    HW286909   6.481  10.654   9.640 -0.8352 -0.1187  0.0703
60316SOL     OW86910   2.059  11.999  12.449 -0.3694  0.0491 -0.7269
60316SOL    HW186911   2.031  12.059  12.517 -0.2335 -0.4472 -0.2279
60316SOL    HW286912   1.979  11.980  12.399 -0.6858 -0.3807 -0.0752
60317SOL     OW86913   4.673   9.630  11.059 -0.0548  0.4837 -0.0409
60317SOL    HW186914   4.665   9.721  11.031 -0.4351  1.0604  1.7610
60317SOL    HW286915   4.766   9.618  11.078 -0.1703  0.8778  0.8250
60318SOL     OW86916   6.766  11.675  11.333 -0.3605 -0.6553 -0.0586
60318SOL    HW186917   6.704  11.673  11.405 -1.5036 -0.3477 -1.0138
60318SOL    HW286918   6.834  11.612  11.358  1.1839  1.9121  2.9053
60319SOL     OW86919   1.819  12.190   9.330 -0.2903 -0.1374 -0.4328
60319SOL    HW186920   1.897  12.134   9.327  1.8239  2.5864 -0.5942
60319SOL    HW286921   1.748  12.133   9.301  1.7504 -2.5492 -1.1235
60320SOL     OW86922  12.373   3.617   8.380  0.4369 -0.6560 -0.6107
60320SOL    HW186923  12.344   3.694   8.429 -0.2968 -1.0775 -0.3786
60320SOL    HW286924  12.414   3.561   8.447  0.9621 -0.4748 -0.7777
60321SOL     OW86925   4.970   0.207   2.326  0.7300  0.3081 -0.1870
60321SOL    HW186926   5.065   0.199   2.319  0.7592  1.1225 -0.8408
60321SOL    HW286927   4.941   0.239   2.240 -0.0007  1.1702  0.3516
60322SOL     OW86928  12.444   5.617  11.017  0.0407  0.2665  0.2460
60322SOL    HW186929  12.537   5.621  11.037  0.2209 -1.1242 -0.1647
60322SOL    HW286930  12.401   5.607  11.102  0.1759  1.7211  0.5100
60323SOL     OW86931   5.575   9.558   8.629 -0.5912  0.2063 -0.9205
60323SOL    HW186932   5.575   9.492   8.560  0.3229 -0.7122 -0.0796
60323SOL    HW286933   5.661   9.600   8.623  0.4168 -1.3944  0.9889
60324SOL     OW86934   4.216   3.835   9.037 -0.0579 -0.8680 -0.0171
60324SOL    HW186935   4.123   3.814   9.025 -1.1978  3.0944  0.4297
60324SOL    HW286936   4.230   3.827   9.131 -0.4525  0.0968  0.1367
60325SOL     OW86937   8.338   2.936   5.897 -0.2706  0.5776  0.2676
60325SOL    HW186938   8.273   2.883   5.851  0.9849 -0.6289 -0.2094
60325SOL    HW286939   8.370   2.997   5.831 -0.4252  0.6979  0.3047
60326SOL     OW86940   6.530   3.159   4.181 -0.2898 -0.1072  0.1002
60326SOL    HW186941   6.555   3.067   4.184  1.9551  0.4461  0.2709
60326SOL    HW286942   6.608   3.204   4.148 -1.3640  1.7278 -0.0695
60327SOL     OW86943  10.035   8.753  10.520  0.1088 -0.0331 -0.1295
60327SOL    HW186944  10.023   8.808  10.443 -1.9479 -1.1914 -0.6999
60327SOL    HW286945  10.048   8.815  10.592  0.2229  1.1108 -1.1005
60328SOL     OW86946   8.097   9.713   4.311  0.3023  0.0525 -0.3903
60328SOL    HW186947   8.169   9.655   4.337  0.9225  0.9186 -0.1355
60328SOL    HW286948   8.062   9.746   4.393 -0.0602  0.0351 -0.5360
60329SOL     OW86949   1.197   0.326  10.417  0.1360  0.1695  0.1098
60329SOL    HW186950   1.118   0.371  10.448 -1.3599 -1.6523 -0.8326
60329SOL    HW286951   1.218   0.265  10.487  0.7421  0.6864  0.3784
60330SOL     OW86952   9.786   2.775   0.184 -0.6991  0.0463 -0.1114
60330SOL    HW186953   9.841   2.804   0.256 -1.6091  0.3788  0.4625
60330SOL    HW286954   9.842   2.716   0.133  0.1350  0.2705  0.5292
60331SOL     OW86955   1.662   2.601   9.175 -0.3475  0.7211  0.0760
60331SOL    HW186956   1.710   2.534   9.126  0.9501  1.5830  0.1529
60331SOL    HW286957   1.655   2.675   9.114 -0.0321  1.2514  0.6814
60332SOL     OW86958  10.719   9.881  10.268  0.2130 -0.4774 -0.4135
60332SOL    HW186959  10.652   9.824  10.305  1.5061 -0.9584  1.3130
60332SOL    HW286960  10.733   9.848  10.180  0.8473 -2.8138  0.4847
60333SOL     OW86961   2.599   4.621   3.928  0.7351  0.2815  0.5385
60333SOL    HW186962   2.524   4.561   3.927 -0.0685  1.1564  2.7266
60333SOL    HW286963   2.675   4.564   3.915 -0.2031 -0.7660 -0.5788
60334SOL     OW86964   3.256   4.318   8.272  0.5292 -0.4106 -0.1572
60334SOL    HW186965   3.263   4.413   8.263 -0.1526 -0.1590  1.6796
60334SOL    HW286966   3.176   4.295   8.225  0.8782 -0.1511 -0.9041
60335SOL     OW86967   0.816   6.262   6.078 -0.6745 -0.3197 -0.0773
60335SOL    HW186968   0.856   6.236   5.995 -2.0774 -2.0275 -0.2719
60335SOL    HW286969   0.728   6.292   6.054 -1.7094 -2.3717  0.8820
60336SOL     OW86970  12.318   9.597  10.083  0.0494 -0.0347  0.4662
60336SOL    HW186971  12.282   9.517  10.121  0.2302  0.5660  1.9926
60336SOL    HW286972  12.242   9.650  10.061 -0.0582 -0.3721  0.0215
60337SOL     OW86973   4.442  10.498   7.313  0.1038 -0.5041 -0.1539
60337SOL    HW186974   4.407  10.526   7.228 -0.2650  1.7738  0.6818
60337SOL    HW286975   4.514  10.558   7.330  1.1067 -1.8614  0.5292
60338SOL     OW86976   2.802   1.751   0.898 -0.0769 -0.4441  0.1115
60338SOL    HW186977   2.739   1.791   0.958  0.4013 -0.6366  0.7568
60338SOL    HW286978   2.874   1.813   0.893 -0.6977  0.1979 -1.3415
60339SOL     OW86979   5.749   6.233  12.163 -0.0839  0.4134  0.0613
60339SOL    HW186980   5.832   6.188  12.148  1.1030  1.7777  2.0712
60339SOL    HW286981   5.733   6.283  12.083  0.6226 -0.4564 -0.6470
60340SOL     OW86982   5.057   2.545   3.135  0.1073 -0.4978  0.9123
60340SOL    HW186983   4.987   2.549   3.201 -1.0706  1.2385 -0.3636
60340SOL    HW286984   5.024   2.483   3.069  0.0509 -0.1416  0.6074
60341SOL     OW86985   5.847   6.895   8.650 -0.1311 -1.3719  0.6540
60341SOL    HW186986   5.819   6.984   8.671  0.6403 -1.3847  1.7717
60341SOL    HW286987   5.930   6.884   8.695  0.2113 -2.3777 -0.1800
60342SOL     OW86988   8.968   6.318   1.754 -0.9285  0.5842 -0.4278
60342SOL    HW186989   9.028   6.292   1.824  0.7432  1.2664 -1.5627
60342SOL    HW286990   8.916   6.388   1.792  0.3436  1.3315 -0.0090
60343SOL     OW86991   8.645  11.413  11.129  0.1058  0.2350 -0.5592
60343SOL    HW186992   8.583  11.482  11.154 -1.1662 -0.9841 -0.2558
60343SOL    HW286993   8.728  11.441  11.168 -0.8439  0.5866  1.3302
60344SOL     OW86994   1.638   2.080   4.402 -0.0470  0.1096  0.5630
60344SOL    HW186995   1.695   2.035   4.464 -0.5053 -1.1710  0.0770
60344SOL    HW286996   1.672   2.170   4.399  0.5424 -0.0431  1.9649
60345SOL     OW86997   9.096  10.338   2.068  0.1109 -0.1254 -0.3810
60345SOL    HW186998   9.099  10.390   2.148  0.5287 -0.4313 -0.2007
60345SOL    HW286999   9.104  10.403   1.997  0.2646  0.0893 -0.1668
60346SOL     OW87000   5.509  10.730   0.822  0.2649 -0.0376  0.0921
60346SOL    HW187001   5.528  10.783   0.899  1.6824  1.0823 -0.9674
60346SOL    HW287002   5.415  10.740   0.808  0.0940  0.2038  1.3256
60347SOL     OW87003   5.258   8.962   9.133  0.3729 -0.4267  0.5677
60347SOL    HW187004   5.204   8.886   9.111  2.6999 -1.7661 -0.9114
60347SOL    HW287005   5.292   8.943   9.220 -2.0910  0.8626  1.9333
60348SOL     OW87006   5.647   6.923   8.472 -0.1737  0.8633 -0.0996
60348SOL    HW187007   5.695   6.964   8.401  0.1895 -0.0627 -0.4094
60348SOL    HW287008   5.714   6.909   8.540 -0.2990  0.8075  0.0119
60349SOL     OW87009   7.230   8.680   9.628 -0.6852 -0.3553 -0.2221
60349SOL    HW187010   7.159   8.707   9.569 -0.3351 -0.3121 -0.6354
60349SOL    HW287011   7.310   8.715   9.586 -0.3449 -1.0528 -0.1693
60350SOL     OW87012   0.988   6.325   9.352 -0.5167  0.4338 -0.4286
60350SOL    HW187013   0.983   6.351   9.444 -1.8015  0.7378 -0.5633
60350SOL    HW287014   1.034   6.397   9.309  0.4956  0.0787  0.0445
60351SOL     OW87015  11.793   7.513   8.734 -0.2524 -0.3579  0.3340
60351SOL    HW187016  11.877   7.506   8.688 -0.7233 -1.9552 -0.3515
60351SOL    HW287017  11.746   7.582   8.688 -0.4674 -1.4968 -1.2387
60352SOL     OW87018  10.305  11.634   0.065  0.0380  0.2344 -0.3817
60352SOL    HW187019  10.236  11.698   0.085  0.2301 -0.1642  1.8035
60352SOL    HW287020  10.345  11.614   0.150 -0.0806 -2.8634 -0.9211
60353SOL     OW87021   5.891   7.537  11.600 -0.4273  0.4646  0.1941
60353SOL    HW187022   5.932   7.477  11.662 -2.1886 -2.2492 -1.0863
60353SOL    HW287023   5.959   7.557  11.537 -0.1931 -1.5061 -0.2238
60354SOL     OW87024  10.782  11.246  11.512  0.0666  0.1296 -0.1023
60354SOL    HW187025  10.782  11.279  11.602 -0.5642  0.4991 -0.2224
60354SOL    HW287026  10.868  11.270  11.477  0.3297 -0.0525  0.4126
60355SOL     OW87027   1.734   3.419   9.542  0.1295  0.2913  0.1507
60355SOL    HW187028   1.641   3.430   9.564  0.3186  0.4238  0.9043
60355SOL    HW287029   1.755   3.331   9.574  0.6389  0.8334  1.3555
60356SOL     OW87030   4.990   9.781   4.758 -0.0991  0.1367  0.5136
60356SOL    HW187031   4.922   9.778   4.691 -0.7912 -0.0081  1.2037
60356SOL    HW287032   5.068   9.812   4.712 -0.6742  0.4790 -0.2551
60357SOL     OW87033   4.250   4.455   2.820 -0.1918 -0.6982  0.4332
60357SOL    HW187034   4.317   4.472   2.754 -2.5776  2.9498 -1.3175
60357SOL    HW287035   4.290   4.484   2.902  0.6909  0.5769 -0.4217
60358SOL     OW87036   1.212  12.184   5.106 -0.1915 -0.1138 -0.1901
60358SOL    HW187037   1.121  12.195   5.136 -0.4778  1.2612 -1.4544
60358SOL    HW287038   1.265  12.220   5.178 -0.5845 -1.4565  0.8131
60359SOL     OW87039   0.448   6.667   3.160  0.8194  0.1915 -0.2756
60359SOL    HW187040   0.433   6.604   3.089  0.7830  0.3136 -0.3779
60359SOL    HW287041   0.531   6.709   3.136  0.3921  0.8171 -0.6842
60360SOL     OW87042   9.028   7.172   8.880 -0.4496 -0.0756  0.1062
60360SOL    HW187043   9.041   7.217   8.963  1.7078  0.6124 -0.5157
60360SOL    HW287044   9.012   7.243   8.817  0.0657 -0.4030 -0.4003
60361SOL     OW87045   3.881   5.270  10.945  0.2528 -0.4037  0.3753
60361SOL    HW187046   3.946   5.340  10.945  0.5504 -0.5921 -2.0061
60361SOL    HW287047   3.932   5.190  10.938 -0.1733 -0.5931 -0.8445
60362SOL     OW87048   9.388   8.289   4.063 -0.0631  0.0137 -0.6592
60362SOL    HW187049   9.400   8.377   4.097  0.5061 -1.2195  2.6445
60362SOL    HW287050   9.455   8.280   3.995  0.2086  1.9046 -0.6928
60363SOL     OW87051   0.860   8.245   3.136 -0.3764  0.5855 -0.7046
60363SOL    HW187052   0.818   8.268   3.219  0.1722 -2.2570  0.4853
60363SOL    HW287053   0.789   8.208   3.083 -0.2599  0.0372 -0.4847
60364SOL     OW87054   6.234   8.754   9.603  0.0408 -0.0820 -0.5180
60364SOL    HW187055   6.281   8.693   9.659  0.6162 -1.1273 -2.0775
60364SOL    HW287056   6.157   8.705   9.574 -1.4834  1.2099  1.0700
60365SOL     OW87057   4.657  12.380  12.244  0.0136  0.0071 -0.9305
60365SOL    HW187058   4.721  12.323  12.289  1.2734  1.4160 -0.8455
60365SOL    HW287059   4.699  12.466  12.244 -0.7096  0.4164 -3.3289
60366SOL     OW87060   6.425   0.994   4.350  0.1228 -0.2011  0.1927
60366SOL    HW187061   6.348   0.972   4.402 -1.2319 -1.7265 -2.2782
60366SOL    HW287062   6.430   0.925   4.284  1.9670  1.3880 -1.4513
60367SOL     OW87063  10.642   7.978   5.159 -0.3295 -0.5908 -0.4316
60367SOL    HW187064  10.633   8.042   5.088 -1.5291  1.4678  1.4713
60367SOL    HW287065  10.555   7.973   5.198  0.8604  0.5744  2.6790
60368SOL     OW87066   2.696   0.458  12.294  0.1066  0.3669 -0.0727
60368SOL    HW187067   2.741   0.537  12.324 -2.1163  1.6095  0.2270
60368SOL    HW287068   2.660   0.419  12.373  3.0096 -2.2976  0.1069
60369SOL     OW87069   5.567   9.989   7.874 -0.0022  0.6368 -0.3222
60369SOL    HW187070   5.644   9.943   7.908 -0.9216 -1.7718 -1.2759
60369SOL    HW287071   5.580   9.990   7.779 -1.7249 -1.0371 -0.6251
60370SOL     OW87072   5.604   2.164   1.500  0.2161 -0.1312 -0.0053
60370SOL    HW187073   5.684   2.116   1.481  0.7344  0.3209  0.9493
60370SOL    HW287074   5.613   2.247   1.453 -1.0882 -1.2693 -2.4068
60371SOL     OW87075   4.422  11.875   8.492 -0.9274 -0.1095  0.0571
60371SOL    HW187076   4.487  11.890   8.561 -0.4662 -0.2947 -0.3344
60371SOL    HW287077   4.376  11.796   8.520 -1.4205  0.3709  0.6566
60372SOL     OW87078   1.564  10.380  10.845  0.5768  0.2621  0.2345
60372SOL    HW187079   1.527  10.450  10.792  0.5822  0.7725  0.9034
60372SOL    HW287080   1.500  10.309  10.840 -0.8096  1.3263  1.8283
60373SOL     OW87081   0.741  11.913  11.934  0.5181 -0.5058  0.8178
60373SOL    HW187082   0.720  11.831  11.889  1.5686 -0.7970  0.8295
60373SOL    HW287083   0.713  11.982  11.873  0.4185 -0.8820  0.4396
60374SOL     OW87084  12.166   4.419   6.139 -0.1018  0.1313 -0.1670
60374SOL    HW187085  12.200   4.332   6.158  1.9443  0.8687 -0.2430
60374SOL    HW287086  12.138   4.415   6.048 -0.1375 -0.4812 -0.1300
60375SOL     OW87087  10.943   3.804   3.581  0.1303 -0.0536 -0.3798
60375SOL    HW187088  10.848   3.804   3.571 -0.0090 -1.2011  0.6558
60375SOL    HW287089  10.963   3.888   3.623 -0.9641 -1.3960  3.2208
60376SOL     OW87090   8.182   2.887  12.327 -0.4734  0.0449 -0.0587
60376SOL    HW187091   8.139   2.803  12.344 -0.8491  0.1886 -0.2686
60376SOL    HW287092   8.129   2.950  12.375  0.9150 -0.0545  1.6829
60377SOL     OW87093   9.691   9.618   5.658 -0.2066  0.0355  0.5974
60377SOL    HW187094   9.706   9.524   5.660  0.7314  0.1777  0.6029
60377SOL    HW287095   9.753   9.651   5.593 -0.5559  0.6504  0.5629
60378SOL     OW87096  12.374   6.469  11.221 -0.3202 -0.2981 -0.2137
60378SOL    HW187097  12.383   6.380  11.255 -0.7518 -0.9021 -1.6016
60378SOL    HW287098  12.324   6.515  11.288  1.6970 -0.4859  1.5113
60379SOL     OW87099  11.582   6.863   3.670 -0.3217 -0.2104  0.0075
60379SOL    HW187100  11.526   6.859   3.747 -0.9361  0.6573 -0.3731
60379SOL    HW287101  11.530   6.823   3.600  0.0157 -0.5052 -0.0796
60380SOL     OW87102   4.258  11.626   7.564 -0.1487  0.4788  0.1249
60380SOL    HW187103   4.268  11.593   7.474 -1.2386  1.8670 -0.5539
60380SOL    HW287104   4.229  11.717   7.552 -1.0728  0.4430  1.8865
60381SOL     OW87105   1.220   3.530  11.373  0.3632 -0.1449 -0.1864
60381SOL    HW187106   1.182   3.617  11.383  0.9925 -0.1210  2.9558
60381SOL    HW287107   1.309   3.545  11.342  0.3277  0.3226 -0.0683
60382SOL     OW87108   4.602  12.420   5.774  0.1992  0.3142  0.4382
60382SOL    HW187109   4.662  12.439   5.703  1.5472 -1.1839  1.1091
60382SOL    HW287110   4.623  12.485   5.842  0.6287  0.1950  0.4196
60383SOL     OW87111  11.845   6.958   0.325  0.3938 -0.4326 -0.0385
60383SOL    HW187112  11.928   6.971   0.280  0.4207  1.5662  0.5046
60383SOL    HW287113  11.787   7.025   0.288 -0.1554 -0.0164  1.4937
60384SOL     OW87114   2.391   1.936  10.988  0.0001  0.1634 -0.1881
60384SOL    HW187115   2.454   1.940  10.916 -0.9171 -1.9231 -1.2154
60384SOL    HW287116   2.403   2.017  11.036  1.0357  1.4009 -2.3867
60385SOL     OW87117   0.653   8.607   2.413 -0.0389  0.4591  0.0629
60385SOL    HW187118   0.693   8.684   2.374 -1.3324 -0.0935 -2.5810
60385SOL    HW287119   0.559   8.618   2.399 -0.3309 -1.1534  0.4640
60386SOL     OW87120   4.692   7.214   2.592  0.1875  0.5948  0.2845
60386SOL    HW187121   4.779   7.231   2.555 -0.6328  1.1955 -1.4359
60386SOL    HW287122   4.709   7.200   2.685  2.1632  0.4142 -0.0534
60387SOL     OW87123   7.424   8.057   1.104 -0.4583 -0.6584 -0.2121
60387SOL    HW187124   7.490   7.988   1.116  1.3099  1.2103  1.5637
60387SOL    HW287125   7.457   8.108   1.031  1.8336  1.9779  2.4248
60388SOL     OW87126   6.829   6.294   7.170  0.2343  0.2188  0.0779
60388SOL    HW187127   6.820   6.358   7.099  0.8603 -0.6331 -0.8049
60388SOL    HW287128   6.808   6.210   7.129 -0.1244 -0.2020  1.0989
60389SOL     OW87129   1.752   4.421   5.812 -0.3356 -0.1320  0.3663
60389SOL    HW187130   1.739   4.477   5.734 -0.8141  0.6239  0.9698
60389SOL    HW287131   1.704   4.341   5.791 -1.1014  0.3565  0.1665
60390SOL     OW87132   2.233   6.798   6.047 -0.3740 -0.4810 -0.6231
60390SOL    HW187133   2.290   6.731   6.009 -0.6652 -1.5303  0.6986
60390SOL    HW287134   2.145   6.761   6.038 -0.5830 -0.0617 -0.2914
60391SOL     OW87135  11.713   1.958   9.207  0.2753  0.5542  0.4392
60391SOL    HW187136  11.700   2.011   9.128 -0.7642  0.4292  0.5068
60391SOL    HW287137  11.721   1.869   9.174  0.1694  0.5406  0.4493
60392SOL     OW87138   1.321   2.362   0.643 -0.0240 -0.4686 -1.1640
60392SOL    HW187139   1.376   2.380   0.567  3.1583 -1.5000  0.7149
60392SOL    HW287140   1.323   2.443   0.694  0.6323 -0.8257 -0.6072
60393SOL     OW87141  11.611  11.753   8.719  0.0693 -0.3115  0.2466
60393SOL    HW187142  11.628  11.800   8.800  2.4537  1.0672 -0.9444
60393SOL    HW287143  11.678  11.685   8.715  0.4654  0.1243 -0.8888
60394SOL     OW87144   2.439   8.805   9.674 -0.3203  0.3902 -0.3354
60394SOL    HW187145   2.378   8.801   9.747 -1.2001  1.5771 -0.9816
60394SOL    HW287146   2.487   8.886   9.687  0.3701  0.0053 -0.4294
60395SOL     OW87147   8.619   4.075   3.096 -0.4153  0.3259 -0.1289
60395SOL    HW187148   8.540   4.097   3.146 -0.4485  0.1649 -0.1103
60395SOL    HW287149   8.681   4.045   3.163 -0.4529  0.1279 -0.1845
60396SOL     OW87150   8.960   0.984   9.129  0.7139  0.7124  0.0329
60396SOL    HW187151   8.872   0.947   9.125  0.6111  0.9292  0.2570
60396SOL    HW287152   9.006   0.943   9.056  0.2236  1.1283 -0.5173
60397SOL     OW87153   4.460   6.578  10.438 -0.4141 -0.0296 -0.5667
60397SOL    HW187154   4.538   6.613  10.481 -0.7068 -0.8481  0.6811
60397SOL    HW287155   4.490   6.555  10.350  1.1252 -1.5335  0.2850
60398SOL     OW87156   2.216  12.230   6.001  0.1006 -0.1538 -0.2061
60398SOL    HW187157   2.160  12.306   6.016 -0.8374 -1.0060  0.8892
60398SOL    HW287158   2.245  12.238   5.911 -2.6427 -0.1840 -1.1911
60399SOL     OW87159   5.158  12.278   1.592  0.1549  0.7256 -0.2711
60399SOL    HW187160   5.215  12.348   1.623  0.2304 -0.0204  1.4463
60399SOL    HW287161   5.083  12.323   1.553  0.0934  1.7900  0.9851
60400SOL     OW87162  12.001   9.347  12.221 -0.5237  0.0323 -0.3259
60400SOL    HW187163  11.968   9.434  12.201 -1.7612 -0.5365 -0.8851
60400SOL    HW287164  12.064   9.360  12.292 -2.0597  1.1951  0.8956
60401SOL     OW87165   3.884  10.958   4.684 -0.1236  0.1750 -0.4112
60401SOL    HW187166   3.955  10.894   4.689 -0.6006 -0.4880 -1.6561
60401SOL    HW287167   3.900  11.017   4.758  0.8672 -0.8193  0.2060
60402SOL     OW87168   7.018   0.174   1.386  0.0163 -0.4204 -0.4288
60402SOL    HW187169   7.018   0.241   1.454 -0.1033 -0.4727 -0.3774
60402SOL    HW287170   6.934   0.185   1.342  0.1767 -0.2543 -0.6988
60403SOL     OW87171   7.959   7.353  11.500 -0.3671  0.8524  0.8287
60403SOL    HW187172   7.894   7.295  11.538  1.3086 -1.4022  0.4789
60403SOL    HW287173   7.920   7.383  11.417 -0.4873 -1.5653 -0.0596
60404SOL     OW87174   4.376  12.179  10.173  0.0093  0.3499  0.3610
60404SOL    HW187175   4.449  12.152  10.230  1.3725 -1.6508 -2.1398
60404SOL    HW287176   4.301  12.130  10.207  0.6152 -0.2286  0.9141
60405SOL     OW87177   1.030   7.057   8.082  0.2711 -0.1134 -0.4416
60405SOL    HW187178   1.004   7.148   8.068 -1.5943 -0.5603 -0.2156
60405SOL    HW287179   1.045   7.023   7.994  1.0292  0.4188 -0.5237
60406SOL     OW87180  12.441   5.066  10.137 -0.1702  0.0749 -0.0840
60406SOL    HW187181  12.449   5.138  10.199  0.3198 -1.3768  1.6216
60406SOL    HW287182  12.523   5.068  10.088 -0.5415  1.2059 -0.6967
60407SOL     OW87183   2.820   6.246   4.021  0.2113  0.0652  0.3388
60407SOL    HW187184   2.811   6.151   4.028 -0.6239 -0.1223 -2.1508
60407SOL    HW287185   2.911   6.264   4.041  0.0410 -1.0437  2.3408
60408SOL     OW87186  11.570  10.608   7.303  0.4275 -0.6042 -0.1951
60408SOL    HW187187  11.597  10.520   7.329  0.8399 -1.3290 -2.8754
60408SOL    HW287188  11.523  10.596   7.221  1.5414  1.7823 -1.2722
60409SOL     OW87189   6.138   9.934  11.215  0.7680  0.1934  0.2113
60409SOL    HW187190   6.059   9.881  11.203  0.2143  1.0932 -0.2834
60409SOL    HW287191   6.160   9.964  11.126  0.6263  1.4002  0.5733
60410SOL     OW87192   8.899   7.955   3.254  0.1384  0.1180 -0.2541
60410SOL    HW187193   8.883   7.861   3.240 -0.1738  0.2772 -1.0721
60410SOL    HW287194   8.827   7.983   3.311  0.5284 -0.2387  0.4229
60411SOL     OW87195   9.342   5.601   1.258  0.3424 -0.1352 -0.4230
60411SOL    HW187196   9.280   5.593   1.185  0.1322  0.7308 -0.3511
60411SOL    HW287197   9.427   5.616   1.216  0.0087  1.7857 -0.5101
60412SOL     OW87198  12.119   1.166   9.720 -0.2359 -0.1929 -0.4031
60412SOL    HW187199  12.201   1.192   9.763  0.7377 -3.2939 -0.1464
60412SOL    HW287200  12.056   1.157   9.791 -0.9261  2.2624 -0.6074
60413SOL     OW87201   0.376   8.816   1.787 -0.2366 -0.0672 -0.3495
60413SOL    HW187202   0.423   8.880   1.734  0.5523 -0.2931  0.0448
60413SOL    HW287203   0.284   8.840   1.779 -0.0346  0.5200 -0.9837
60414SOL     OW87204   7.809   6.725   8.384  0.2404 -0.0409 -1.1367
60414SOL    HW187205   7.805   6.639   8.426 -1.4828  0.7456  0.4681
60414SOL    HW287206   7.896   6.729   8.345  0.4799 -2.3645 -0.9602
60415SOL     OW87207   9.983   9.847   8.903 -0.4006  0.2518  0.6171
60415SOL    HW187208   9.897   9.806   8.915 -1.1697  1.9373  1.1882
60415SOL    HW287209   9.971   9.937   8.933  1.2113  0.9175 -0.5893
60416SOL     OW87210   0.826   7.693   8.416  0.1264 -0.6215  0.1051
60416SOL    HW187211   0.749   7.661   8.368  0.9637 -0.7212 -1.2138
60416SOL    HW287212   0.810   7.667   8.507 -1.2634 -0.8829 -0.1911
60417SOL     OW87213   9.348   2.491  12.234 -0.0236 -0.2167 -0.1639
60417SOL    HW187214   9.369   2.567  12.288 -0.8867  0.1686 -0.3581
60417SOL    HW287215   9.422   2.431  12.247 -1.1407 -1.0780  3.1027
60418SOL     OW87216   7.408  11.595   4.420 -0.7183  0.2306 -0.5097
60418SOL    HW187217   7.462  11.517   4.411 -0.7908 -0.0169  0.9548
60418SOL    HW287218   7.444  11.657   4.357 -1.3730 -1.3440 -2.5300
60419SOL     OW87219   6.537   2.782   1.744  0.2096  0.2087 -0.5841
60419SOL    HW187220   6.576   2.866   1.767  1.0298 -0.5923  1.2003
60419SOL    HW287221   6.528   2.784   1.649  0.5874  2.1326 -0.6182
60420SOL     OW87222   2.828  10.143  11.536  0.3270  0.0947 -0.2132
60420SOL    HW187223   2.753  10.200  11.545 -0.8558 -1.1373 -1.6557
60420SOL    HW287224   2.898  10.199  11.502 -0.4110  0.9385 -0.3606
60421SOL     OW87225   0.121   9.946   4.087 -0.2778  0.6640  0.2468
60421SOL    HW187226   0.070  10.023   4.062  0.1356  0.5412 -1.0865
60421SOL    HW287227   0.210   9.979   4.098 -0.1773  0.4512  0.0797
60422SOL     OW87228   8.409   6.322   2.000 -0.2541  0.2870  0.3539
60422SOL    HW187229   8.371   6.365   2.077  0.6312  0.9457  0.4540
60422SOL    HW287230   8.391   6.383   1.928 -0.6419 -0.0886  0.1321
60423SOL     OW87231  10.871   9.624   7.208  0.4930 -0.0308  0.2010
60423SOL    HW187232  10.818   9.545   7.220  0.2116  0.1131 -0.0763
60423SOL    HW287233  10.961   9.596   7.224  0.2309 -0.0358  1.7905
60424SOL     OW87234   0.021   8.576   5.144 -0.4575  0.3604  0.4680
60424SOL    HW187235   0.087   8.645   5.136 -0.7319  0.6458  0.6450
60424SOL    HW287236   0.020   8.554   5.237 -2.3711  2.1276  0.9397
60425SOL     OW87237   0.977   7.749   9.869 -0.3513  0.4984 -0.0432
60425SOL    HW187238   0.957   7.670   9.918 -2.5669 -0.3638 -2.1147
60425SOL    HW287239   0.932   7.819   9.917  1.1258  0.4633  1.4665
60426SOL     OW87240   5.456   0.717   1.724 -0.4410  0.1276  0.1547
60426SOL    HW187241   5.400   0.757   1.791  0.1315  2.2727 -0.5563
60426SOL    HW287242   5.434   0.624   1.727 -1.5013  0.3698  2.2801
60427SOL     OW87243   2.390   7.745   5.981  0.3299 -0.9120  0.2223
60427SOL    HW187244   2.469   7.749   5.928  0.2822 -0.2851  0.1923
60427SOL    HW287245   2.323   7.786   5.927 -0.3422 -2.5896 -0.2968
60428SOL     OW87246   2.316  11.313   5.020 -0.1106  0.2233 -0.4325
60428SOL    HW187247   2.313  11.367   4.941 -0.4780 -0.6804 -1.0518
60428SOL    HW287248   2.235  11.263   5.017  0.4255 -0.6848 -0.1071
60429SOL     OW87249   3.487   6.752   9.438  0.1869 -0.0872 -0.4620
60429SOL    HW187250   3.497   6.758   9.534  0.0044  1.3515 -0.5147
60429SOL    HW287251   3.556   6.691   9.411  1.2250  0.6450  0.4455
60430SOL     OW87252   1.888  11.917  11.744  0.1258  0.1169  0.6487
60430SOL    HW187253   1.804  11.934  11.787 -0.4734  0.3228 -0.5611
60430SOL    HW287254   1.921  12.004  11.721  0.1450 -0.0183  0.1570
60431SOL     OW87255  11.452   4.105   6.123 -0.0733 -0.8742 -0.2703
60431SOL    HW187256  11.510   4.110   6.199  0.4396 -0.9989 -0.6440
60431SOL    HW287257  11.481   4.026   6.076 -0.8395 -1.1869 -0.2275
60432SOL     OW87258   9.232   7.685   1.466 -0.0139  0.3437 -0.2074
60432SOL    HW187259   9.179   7.613   1.431 -1.2523  0.5395  1.1527
60432SOL    HW287260   9.322   7.655   1.459 -0.0876  0.5211 -3.8686
60433SOL     OW87261   9.060   1.406   8.892 -0.3725 -0.5197 -0.0786
60433SOL    HW187262   9.025   1.494   8.901  2.7599  0.9502 -0.7884
60433SOL    HW287263   9.107   1.407   8.808  1.2705 -2.2295  0.7314
60434SOL     OW87264   7.205   1.294   1.274 -0.4394 -0.1514 -0.1828
60434SOL    HW187265   7.165   1.291   1.361  2.0479  1.4617  1.1645
60434SOL    HW287266   7.259   1.373   1.276  0.3614 -0.5204 -2.9449
60435SOL     OW87267   7.853   7.584   9.874  0.6932  0.1432 -0.1714
60435SOL    HW187268   7.764   7.572   9.907  0.3216 -0.5499 -1.3385
60435SOL    HW287269   7.848   7.661   9.817  0.5778 -0.4847 -1.0389
60436SOL     OW87270   4.589   6.039   8.773 -0.0916  0.3839  0.4011
60436SOL    HW187271   4.562   6.050   8.864 -0.5933  1.5577  0.1180
60436SOL    HW287272   4.544   6.108   8.726  1.0653  0.5080 -0.5596
60437SOL     OW87273   1.355   7.136  11.792 -1.1324 -0.3207  0.0624
60437SOL    HW187274   1.450   7.142  11.793 -1.1880  0.8062  0.1637
60437SOL    HW287275   1.332   7.129  11.699 -1.0026  0.7300 -0.0593
60438SOL     OW87276   0.028   6.465   3.202  0.2764  0.6124  0.5905
60438SOL    HW187277  -0.028   6.394   3.235  1.0028 -0.2177  0.0826
60438SOL    HW287278   0.115   6.425   3.195  1.1238  2.0697  2.0409
60439SOL     OW87279  10.886   5.372   1.415  0.9716 -0.1243 -0.0009
60439SOL    HW187280  10.925   5.407   1.335 -0.3705  1.9739  0.1872
60439SOL    HW287281  10.791   5.373   1.398  0.5460  1.6278  2.0032
60440SOL     OW87282   0.299   9.369   6.073 -0.4117 -0.7334  0.2058
60440SOL    HW187283   0.284   9.310   6.147  0.2451 -3.0402 -1.3742
60440SOL    HW287284   0.393   9.387   6.076 -0.5594  0.0004  0.5062
60441SOL     OW87285  11.632  11.099   6.251 -0.7612  0.5265 -0.1893
60441SOL    HW187286  11.691  11.051   6.309  0.4129  2.0823 -0.0374
60441SOL    HW287287  11.685  11.119   6.174 -0.9739  2.1426  0.0407
60442SOL     OW87288   4.124   9.214   3.343 -0.1398 -0.6024  0.0760
60442SOL    HW187289   4.113   9.124   3.375 -1.3082 -0.4567  0.1040
60442SOL    HW287290   4.039   9.237   3.306  0.7147 -0.2351 -1.8115
60443SOL     OW87291   6.297   7.014   3.085  0.1808  0.5780  0.0840
60443SOL    HW187292   6.279   7.080   3.018  0.1224 -1.0274 -1.5690
60443SOL    HW287293   6.391   6.997   3.077  0.2635  0.6810  0.7378
60444SOL     OW87294   9.138  11.217   9.993  0.6233 -0.1775 -0.4929
60444SOL    HW187295   9.165  11.186   9.907 -1.8380 -0.1797 -1.3362
60444SOL    HW287296   9.129  11.311   9.983 -0.3993 -0.2664 -0.4690
60445SOL     OW87297   0.635  11.947  10.227 -0.5366  0.2790 -0.3211
60445SOL    HW187298   0.633  11.936  10.132 -1.0296  1.6732 -0.4945
60445SOL    HW287299   0.699  11.882  10.258  0.3508  0.4650 -1.6931
60446SOL     OW87300   6.645   5.659   9.921 -0.4251  0.1027 -0.0605
60446SOL    HW187301   6.558   5.654   9.882 -0.0325 -2.5168 -0.7619
60446SOL    HW287302   6.697   5.708   9.857 -1.3862  1.9944  0.5244
60447SOL     OW87303   3.518   5.682  12.096  0.2058  0.0001  0.2442
60447SOL    HW187304   3.462   5.615  12.136  1.4931 -0.7714  0.8098
60447SOL    HW287305   3.546   5.736  12.170  0.4485  0.1996  0.0073
60448SOL     OW87306   9.724   0.683   3.478 -0.0419 -0.5616  0.0505
60448SOL    HW187307   9.799   0.657   3.532 -0.4240 -2.3664 -0.2183
60448SOL    HW287308   9.762   0.735   3.408  1.0309 -1.7117 -0.2631
60449SOL     OW87309   7.374   3.870   7.500 -0.1063 -0.2125 -0.0801
60449SOL    HW187310   7.363   3.815   7.577  3.8395 -1.7040 -0.3716
60449SOL    HW287311   7.413   3.951   7.533 -2.0200  0.8275 -0.1766
60450SOL     OW87312  11.310   1.587   6.176 -0.6884  0.3005  0.2302
60450SOL    HW187313  11.346   1.593   6.264  0.9898 -2.3835 -0.1479
60450SOL    HW287314  11.292   1.677   6.151  1.1960  1.3713  2.3704
60451SOL     OW87315   3.159  10.560  11.703  0.4966  0.3390  0.4357
60451SOL    HW187316   3.237  10.512  11.731  0.7603  1.6675  2.1143
60451SOL    HW287317   3.192  10.648  11.682 -0.0197 -0.0274 -2.2683
60452SOL     OW87318   8.055  10.071  11.442 -0.0035  0.2712  0.2047
60452SOL    HW187319   7.992  10.096  11.374 -2.0503 -1.2356  1.4341
60452SOL    HW287320   8.034  10.126  11.517  3.1362  2.9134 -0.6245
60453SOL     OW87321  11.552   9.563   3.603 -0.1251 -0.2888  0.0063
60453SOL    HW187322  11.500   9.578   3.524  0.4888 -0.2538 -0.3949
60453SOL    HW287323  11.517   9.625   3.667 -0.5443 -0.2338 -0.2769
60454SOL     OW87324   2.690   1.615  12.233 -0.1366 -0.5145 -0.5285
60454SOL    HW187325   2.772   1.574  12.262 -0.2018 -0.3871 -0.1641
60454SOL    HW287326   2.697   1.617  12.138  0.7969  0.5602 -0.4581
60455SOL     OW87327   4.349   2.168   4.150 -0.1488  0.0572 -0.4048
60455SOL    HW187328   4.305   2.083   4.152  0.4969 -0.2651  0.2584
60455SOL    HW287329   4.297   2.223   4.209 -0.0961 -0.1097 -0.2027
60456SOL     OW87330   7.212   9.158   9.227 -0.1306 -0.4831  0.4400
60456SOL    HW187331   7.209   9.182   9.134  1.3310 -0.4270  0.3823
60456SOL    HW287332   7.122   9.135   9.249 -1.0959  2.1451 -0.2823
60457SOL     OW87333   3.109   1.493   0.451 -0.0230 -0.1621 -0.0352
60457SOL    HW187334   3.182   1.459   0.502  0.8209  2.1775  0.4117
60457SOL    HW287335   3.037   1.501   0.513 -0.8117 -2.5732 -0.4984
60458SOL     OW87336   1.767   1.426   7.259 -0.4540  0.4370  0.0839
60458SOL    HW187337   1.687   1.373   7.252 -0.9242  1.2515 -1.1332
60458SOL    HW287338   1.767   1.457   7.349 -0.6916 -0.7923  0.5380
60459SOL     OW87339   2.505  10.861   7.642 -0.1225  0.4327 -0.4131
60459SOL    HW187340   2.468  10.805   7.574 -1.8128  0.7867  0.1590
60459SOL    HW287341   2.483  10.816   7.724 -0.7752  1.4754  0.0126
60460SOL     OW87342   0.968  11.145   0.441 -0.2138  0.3314  0.2275
60460SOL    HW187343   1.046  11.156   0.496  0.0778 -1.7119  0.3043
60460SOL    HW287344   1.002  11.114   0.357 -0.9184 -0.8370  0.3483
60461SOL     OW87345  11.143   9.650   3.896 -0.3132 -0.1217 -0.0018
60461SOL    HW187346  11.093   9.679   3.972  1.0056  0.1082  0.8035
60461SOL    HW287347  11.197   9.579   3.928 -0.4746 -0.7073 -0.9849
60462SOL     OW87348   3.020   4.704   5.832 -0.6549 -0.1918 -0.8816
60462SOL    HW187349   3.089   4.745   5.780  0.1811 -0.3143  0.1073
60462SOL    HW287350   2.942   4.710   5.776  0.4564 -1.4690 -2.7110
60463SOL     OW87351  11.020   5.391  10.268 -0.6200  0.3089  0.7373
60463SOL    HW187352  11.041   5.420  10.357  0.7772  1.4704  0.0848
60463SOL    HW287353  11.065   5.454  10.211 -4.1455  1.6345 -0.8683
60464SOL     OW87354  12.475   8.152   0.333  0.8000 -0.2744  0.3779
60464SOL    HW187355  12.474   8.124   0.424  2.6819 -0.2613  0.4338
60464SOL    HW287356  12.529   8.088   0.288  0.8429  0.3550 -0.5011
60465SOL     OW87357   2.805   5.886   0.582 -0.5611  0.8513 -0.1116
60465SOL    HW187358   2.768   5.962   0.626  0.7217  2.8208 -2.2286
60465SOL    HW287359   2.746   5.870   0.508 -0.2972  0.3810 -0.2213
60466SOL     OW87360   8.650   3.258   9.204  0.2062  0.0003  0.3611
60466SOL    HW187361   8.603   3.185   9.244  0.5673  0.8927  2.6099
60466SOL    HW287362   8.624   3.256   9.112 -0.8487 -2.1042  0.6344
60467SOL     OW87363   6.336  11.086   3.016  0.4412  0.2060 -0.3519
60467SOL    HW187364   6.318  11.122   2.929  0.9002 -1.4930 -1.1845
60467SOL    HW287365   6.256  11.104   3.065  0.4686  1.9072 -0.8466
60468SOL     OW87366   7.717   0.557   5.565 -0.2224  0.5467 -0.2631
60468SOL    HW187367   7.639   0.599   5.601  0.0814 -0.4924  1.7523
60468SOL    HW287368   7.770   0.630   5.532 -0.7237  1.5519  1.0650
60469SOL     OW87369   2.560   8.022   4.806 -0.1367  0.4141  0.2937
60469SOL    HW187370   2.530   8.047   4.893  0.1294 -0.6798  0.7191
60469SOL    HW287371   2.519   7.937   4.790 -0.0496  0.5289 -0.5837
60470SOL     OW87372   2.722  10.094   4.467  0.3663 -0.3566 -0.1962
60470SOL    HW187373   2.707  10.149   4.391  0.4691 -0.4368 -0.2739
60470SOL    HW287374   2.803  10.126   4.506  0.0779 -0.0205  0.1400
60471SOL     OW87375   0.757   5.637   0.969  0.0112 -0.1383  0.4714
60471SOL    HW187376   0.756   5.685   1.052  0.6439 -0.6309  0.7745
60471SOL    HW287377   0.764   5.545   0.994  0.3071 -0.2868 -0.1278
60472SOL     OW87378   0.717   9.858   0.022  0.1740  0.2516  0.5697
60472SOL    HW187379   0.775   9.935   0.030  0.5945  0.0555 -0.3642
60472SOL    HW287380   0.745   9.799   0.092  1.3497  0.0229 -0.0647
60473SOL     OW87381   6.273   3.943   9.236  0.6316  0.1970 -0.0510
60473SOL    HW187382   6.347   3.883   9.223  0.6975  0.1960  0.3380
60473SOL    HW287383   6.295   3.993   9.315 -0.1414 -0.3482  0.5241
60474SOL     OW87384   8.463  11.649   5.343 -0.2230  0.0137  0.0156
60474SOL    HW187385   8.401  11.577   5.336  1.3105 -1.2617 -1.3193
60474SOL    HW287386   8.548  11.609   5.325  1.1189  1.5702  2.3101
60475SOL     OW87387   7.896   3.497  10.532  0.2435  0.4597 -0.1334
60475SOL    HW187388   7.821   3.441  10.514  0.5770 -0.2459  0.6374
60475SOL    HW287389   7.922   3.475  10.621  2.3108 -0.4272 -0.8919
60476SOL     OW87390   8.007   3.325   2.787  0.4192  0.6706  0.1454
60476SOL    HW187391   8.058   3.298   2.710 -1.6606  0.6628 -1.3137
60476SOL    HW287392   7.990   3.244   2.834  1.9585  0.7114  0.8471
60477SOL     OW87393   6.414   7.285   5.404 -0.1426  0.1052  0.4624
60477SOL    HW187394   6.436   7.241   5.322  1.6953  2.3365 -0.3536
60477SOL    HW287395   6.469   7.242   5.469  1.2666  0.8118 -0.2256
60478SOL     OW87396   2.138  11.074   6.197 -0.3018 -0.6031 -0.2454
60478SOL    HW187397   2.122  11.017   6.122 -0.6304 -0.4108 -0.3242
60478SOL    HW287398   2.194  11.143   6.163 -0.9349 -0.1899 -0.4669
60479SOL     OW87399   6.853   6.153   5.813 -0.1010 -0.0657  1.3755
60479SOL    HW187400   6.940   6.123   5.840  0.3102  1.2275  1.5317
60479SOL    HW287401   6.852   6.246   5.834 -1.0067  0.2419  0.0583
60480SOL     OW87402   1.552   6.002   5.733 -0.4122 -0.0325 -0.4527
60480SOL    HW187403   1.601   6.028   5.655 -1.2389  0.1330 -0.9247
60480SOL    HW287404   1.577   6.065   5.799 -0.4654  0.4322 -0.8723
60481SOL     OW87405   1.691   8.907   7.706  0.1135 -0.1880 -0.2976
60481SOL    HW187406   1.617   8.966   7.692 -0.8480 -0.2953  3.1899
60481SOL    HW287407   1.652   8.820   7.705  0.2489 -0.2828  0.9625
60482SOL     OW87408   4.388   6.724   6.552  0.9245  0.5928  0.0422
60482SOL    HW187409   4.425   6.707   6.639 -0.0429  0.5007  0.4403
60482SOL    HW287410   4.334   6.648   6.533 -0.4640  1.4901  0.2315
60483SOL     OW87411   6.795   2.129   3.890  0.2766 -0.1624 -0.4209
60483SOL    HW187412   6.829   2.091   3.810 -1.5071 -2.0746 -0.3402
60483SOL    HW287413   6.862   2.110   3.956  1.0219  0.0325 -1.1028
60484SOL     OW87414   2.828  11.920   2.285  0.2289  0.2427 -0.3709
60484SOL    HW187415   2.862  11.971   2.211 -1.1495  1.4425 -0.2216
60484SOL    HW287416   2.904  11.873   2.319  0.8708 -0.5322 -2.6874
60485SOL     OW87417  10.959   6.017   4.277 -0.0424 -0.5719 -0.5409
60485SOL    HW187418  11.017   5.967   4.335  0.7425  0.1478 -0.6828
60485SOL    HW287419  11.014   6.089   4.244 -0.7056 -0.5089 -1.5540
60486SOL     OW87420  10.325   8.448   8.425  0.7501 -0.0896 -0.4845
60486SOL    HW187421  10.315   8.404   8.510  0.6737  0.4456 -0.2133
60486SOL    HW287422  10.243   8.428   8.379  1.0901 -0.9830 -0.7218
60487SOL     OW87423   1.005   6.830   3.935  0.2929  0.3756 -0.4267
60487SOL    HW187424   1.054   6.750   3.955 -2.0258 -0.8529  0.7459
60487SOL    HW287425   1.070   6.900   3.942  1.4715 -0.8364  3.6906
60488SOL     OW87426  11.589   4.240   4.282 -0.1400  0.3616 -0.2846
60488SOL    HW187427  11.570   4.285   4.200  1.4689 -0.1480 -0.9684
60488SOL    HW287428  11.642   4.303   4.331 -1.9250  1.0709  0.8483
60489SOL     OW87429   1.940   8.276   3.322  0.7324 -0.3271 -0.3476
60489SOL    HW187430   1.967   8.322   3.402 -1.8831  0.8293 -0.0167
60489SOL    HW287431   1.979   8.327   3.251  1.1425  0.0298  0.1233
60490SOL     OW87432   9.026   5.113   9.588 -0.4942 -0.5483  0.4427
60490SOL    HW187433   9.026   5.208   9.581  0.7654 -0.4988  0.9259
60490SOL    HW287434   8.986   5.095   9.673 -0.1236 -0.4304  0.6395
60491SOL     OW87435   0.772   5.003   9.065  0.2445 -0.2833 -0.0591
60491SOL    HW187436   0.708   5.073   9.060  1.7693  1.1904  0.1416
60491SOL    HW287437   0.853   5.046   9.092  1.4327 -1.9965 -0.6936
60492SOL     OW87438  11.253   2.437   8.733  0.0286  0.0618 -0.0224
60492SOL    HW187439  11.228   2.345   8.720 -0.9052  0.2380  0.4711
60492SOL    HW287440  11.173   2.486   8.718  0.7111  0.8889 -1.1501
60493SOL     OW87441   6.296   4.057  10.889 -0.3452 -0.0085 -0.1025
60493SOL    HW187442   6.339   4.082  10.971 -1.0789  0.5182  0.1261
60493SOL    HW287443   6.299   4.136  10.835  0.0901 -0.3390 -0.5729
60494SOL     OW87444   1.611   5.589   3.075 -0.0038 -0.4797 -0.0762
60494SOL    HW187445   1.597   5.528   3.148 -0.1401 -1.5075 -0.9334
60494SOL    HW287446   1.706   5.598   3.069 -0.0126  1.4895  1.7076
60495SOL     OW87447   3.669   0.068  11.590 -0.1959 -0.0081 -0.4369
60495SOL    HW187448   3.662   0.127  11.514 -1.5816 -0.2316 -0.5075
60495SOL    HW287449   3.631  -0.014  11.560  2.7035 -1.3935 -0.7039
60496SOL     OW87450   8.833  10.994   2.176 -0.7139  0.2074  0.0881
60496SOL    HW187451   8.873  10.959   2.096  1.2804  2.2686  0.0792
60496SOL    HW287452   8.897  10.978   2.244 -0.6026  1.9813  0.4514
60497SOL     OW87453  11.670   1.319   9.641  0.6115 -0.1153 -0.2580
60497SOL    HW187454  11.608   1.283   9.578 -0.0920  0.9895 -0.2155
60497SOL    HW287455  11.668   1.413   9.626  2.0151 -0.0204 -0.0016
60498SOL     OW87456   1.445   6.753  10.148  0.6342  0.1130  0.0542
60498SOL    HW187457   1.470   6.671  10.192 -1.0204  0.0305  0.9004
60498SOL    HW287458   1.450   6.819  10.217  2.0307  0.7832 -0.6406
60499SOL     OW87459   8.770   0.761   9.878 -0.4731  0.0453 -0.0876
60499SOL    HW187460   8.813   0.846   9.887  0.9581 -0.6699 -0.0096
60499SOL    HW287461   8.802   0.726   9.795 -0.0047 -0.9944  0.5198
60500SOL     OW87462   4.850   4.277   4.891  0.1342  0.2373  0.4191
60500SOL    HW187463   4.827   4.290   4.799  1.1685 -0.0721  0.1093
60500SOL    HW287464   4.899   4.195   4.893 -2.4306 -1.4023  1.7126
60501SOL     OW87465   1.441   3.878  11.518 -0.0164  0.1577  0.8659
60501SOL    HW187466   1.362   3.827  11.502  0.4897 -0.2863 -0.3810
60501SOL    HW287467   1.414   3.946  11.579 -1.3603  0.0140  0.4670
60502SOL     OW87468   4.502   7.436   7.176  0.1342 -0.2458 -0.2814
60502SOL    HW187469   4.478   7.404   7.263 -1.8239 -0.6326 -0.9152
60502SOL    HW287470   4.577   7.382   7.151  0.7884 -0.0701  1.1713
60503SOL     OW87471   4.194   9.535   4.418  0.0755  0.4376 -1.0673
60503SOL    HW187472   4.282   9.499   4.431 -0.2338  0.2884  0.9735
60503SOL    HW287473   4.208   9.629   4.406  0.4717  0.6094  0.4964
60504SOL     OW87474   6.526   2.618   7.753  0.0309 -0.2711  0.2271
60504SOL    HW187475   6.562   2.695   7.709 -0.4813 -0.1276  0.0611
60504SOL    HW287476   6.541   2.546   7.692  0.3914 -0.2839  0.3271
60505SOL     OW87477   4.647  10.741   2.852 -0.7591 -0.0890 -0.0065
60505SOL    HW187478   4.717  10.708   2.908 -1.6615 -1.6922  0.2454
60505SOL    HW287479   4.687  10.813   2.803  0.8425 -0.4887  0.6548
60506SOL     OW87480  10.964   9.150   8.908  0.5233 -0.0694 -0.6486
60506SOL    HW187481  10.941   9.065   8.870  2.5107 -1.3226  0.7695
60506SOL    HW287482  10.914   9.155   8.989  1.2011 -0.3823 -0.2059
60507SOL     OW87483   9.809   9.036   1.191  0.9174  0.5040  0.1588
60507SOL    HW187484   9.863   8.957   1.188  0.3687  0.1254  0.1589
60507SOL    HW287485   9.869   9.105   1.218  1.9000  0.5293 -1.9200
60508SOL     OW87486   4.990   6.863   6.001 -0.5015  0.5182 -0.1322
60508SOL    HW187487   5.062   6.812   5.963 -0.3520  0.5639  0.0843
60508SOL    HW287488   4.930   6.879   5.928  0.5848  2.0199 -0.7441
60509SOL     OW87489   4.579   8.779   3.125  0.1117 -0.3480  0.4944
60509SOL    HW187490   4.589   8.849   3.061  0.5735 -0.2575  0.6642
60509SOL    HW287491   4.571   8.699   3.073  0.4316 -0.2683  0.3247
60510SOL     OW87492   2.702   1.009   7.286 -0.6851  0.0861 -0.2162
60510SOL    HW187493   2.615   1.030   7.251 -0.6631  0.3693 -0.1046
60510SOL    HW287494   2.756   1.085   7.263 -0.0785 -0.7236 -1.6057
60511SOL     OW87495  12.432   6.338   9.003 -0.3408 -0.1225  0.4159
60511SOL    HW187496  12.495   6.357   8.934 -1.2602 -0.2429 -0.4869
60511SOL    HW287497  12.351   6.379   8.973 -0.6162  0.3173  1.7102
60512SOL     OW87498   5.969   8.281   0.764 -0.2141  0.3159  0.6500
60512SOL    HW187499   5.991   8.189   0.748  0.1446  0.5277 -0.1063
60512SOL    HW287500   5.899   8.300   0.701  0.2077  0.7568  0.3037
60513SOL     OW87501  10.109   2.972   2.158 -0.4258 -0.4261  0.1464
60513SOL    HW187502  10.077   2.892   2.200 -1.1119  0.8843  2.2512
60513SOL    HW287503  10.162   3.015   2.225 -1.0877  1.4812 -0.4802
60514SOL     OW87504   1.105   2.460   8.654 -0.5664  0.3298  0.6227
60514SOL    HW187505   1.015   2.469   8.623 -0.5911 -2.3965 -0.4231
60514SOL    HW287506   1.096   2.426   8.743 -0.4995  2.0742  1.3410
60515SOL     OW87507   1.067  10.462   3.143  0.1580 -0.1153  0.0149
60515SOL    HW187508   0.987  10.411   3.144  0.1042 -0.1366 -1.8878
60515SOL    HW287509   1.066  10.507   3.058  1.0119  1.7490  0.9218
60516SOL     OW87510   5.497   3.653   4.329  0.4311  0.0041 -0.3631
60516SOL    HW187511   5.528   3.654   4.420  1.2423 -0.3634 -0.6306
60516SOL    HW287512   5.576   3.647   4.277 -0.0515 -0.0886 -1.0926
60517SOL     OW87513  10.709   5.917   5.236 -0.1020  0.4131  0.4373
60517SOL    HW187514  10.656   5.996   5.227  1.6431  1.9147  2.3568
60517SOL    HW287515  10.656   5.859   5.292  0.1157  1.8322  2.2252
60518SOL     OW87516   3.309   5.696   1.308 -0.2754  0.1472 -0.3705
60518SOL    HW187517   3.268   5.609   1.297 -0.6116  0.1970  0.3643
60518SOL    HW287518   3.293   5.717   1.400  1.0644  0.3596 -0.1741
60519SOL     OW87519   3.483   4.188   1.332 -0.8768 -0.4403  0.1283
60519SOL    HW187520   3.476   4.246   1.256 -0.5783  0.0445  0.4666
60519SOL    HW287521   3.577   4.175   1.344 -0.9606 -1.5001 -0.3228
60520SOL     OW87522   2.749   3.973   9.931 -0.2946 -0.3442  0.4793
60520SOL    HW187523   2.705   4.055   9.911  1.1417  0.9407  2.2883
60520SOL    HW287524   2.828   3.975   9.877 -0.7258 -1.0129 -0.1913
60521SOL     OW87525   0.866   6.105  10.853 -0.0204  0.0501  0.6893
60521SOL    HW187526   0.810   6.181  10.867 -0.5295  0.0572 -1.1435
60521SOL    HW287527   0.891   6.110  10.761  3.3140  0.2378  1.4426
60522SOL     OW87528   7.824   2.330   1.625  0.1608 -1.0444 -0.4857
60522SOL    HW187529   7.729   2.330   1.634  0.1417 -0.6929 -0.6644
60522SOL    HW287530   7.840   2.325   1.531  0.2692  1.5905 -0.6882
60523SOL     OW87531  11.794   9.277  10.558  0.3853 -0.4036 -0.2540
60523SOL    HW187532  11.716   9.254  10.509 -0.2789  2.3715 -0.7007
60523SOL    HW287533  11.764   9.344  10.621  2.2430  0.2266  0.0316
60524SOL     OW87534  12.352   6.724  10.361  0.4292  0.3115  0.0152
60524SOL    HW187535  12.315   6.745  10.275 -1.8811  0.4059  0.9585
60524SOL    HW287536  12.407   6.647  10.345  0.5695  0.7009 -1.6348
60525SOL     OW87537   6.245   8.739   3.605  1.0869 -0.3495  0.3181
60525SOL    HW187538   6.267   8.646   3.606 -0.8695 -0.8553  0.3344
60525SOL    HW287539   6.150   8.742   3.617  1.1146  1.6650  0.4884
60526SOL     OW87540   2.749   4.266   3.453 -0.3921 -0.1634  0.2245
60526SOL    HW187541   2.673   4.210   3.467 -1.1028  0.7614  0.1325
60526SOL    HW287542   2.791   4.230   3.375 -0.4107 -1.0133  0.5880
60527SOL     OW87543   4.001   2.904   3.611  0.1346 -0.0310  0.3732
60527SOL    HW187544   4.013   2.915   3.517  0.6552 -0.8810  0.3257
60527SOL    HW287545   3.942   2.975   3.636 -1.8404 -1.1163 -0.9611
60528SOL     OW87546   1.873   4.536   2.027 -0.2634 -0.8890 -0.6524
60528SOL    HW187547   1.792   4.556   1.979 -0.0077 -0.5353 -0.9414
60528SOL    HW287548   1.902   4.621   2.060 -0.1177 -1.0469 -0.3780
60529SOL     OW87549   8.600   5.147  11.839 -0.0604 -0.0939 -0.0043
60529SOL    HW187550   8.655   5.214  11.881  0.3208 -1.3354  1.5901
60529SOL    HW287551   8.623   5.066  11.885 -2.1187 -0.9222 -0.3605
60530SOL     OW87552   7.054  11.980   3.126  0.2487  0.0530 -0.5480
60530SOL    HW187553   7.142  12.009   3.104  0.0431 -0.1216 -1.6285
60530SOL    HW287554   7.029  12.034   3.201  0.6660  1.2140 -1.2299
60531SOL     OW87555  12.136  10.002   7.386 -0.2704 -0.0505  0.2491
60531SOL    HW187556  12.086  10.019   7.465  0.2418  0.9760  0.3735
60531SOL    HW287557  12.218  10.050   7.399 -0.6937  1.2414 -1.4450
60532SOL     OW87558   5.329   4.035   6.539  0.5871  0.1409 -0.5246
60532SOL    HW187559   5.382   4.055   6.616  0.2692  1.3542 -0.6111
60532SOL    HW287560   5.328   3.939   6.535  0.6524  0.0613  0.9398
60533SOL     OW87561   6.207   6.905   9.891 -0.2597 -0.3851  0.5508
60533SOL    HW187562   6.152   6.852   9.834 -1.5740 -0.4115  1.7825
60533SOL    HW287563   6.160   6.988   9.899  1.6208  0.9469 -1.1286
60534SOL     OW87564   9.892   9.475   8.733 -0.0914  0.1434 -0.2946
60534SOL    HW187565   9.932   9.395   8.768  0.2855  0.3000 -0.3627
60534SOL    HW287566   9.964   9.520   8.688 -0.7708 -0.5497 -2.1545
60535SOL     OW87567   2.695   5.457   5.107 -0.5477 -0.4015 -0.4105
60535SOL    HW187568   2.689   5.493   5.019  0.0284  0.9936  0.0986
60535SOL    HW287569   2.775   5.404   5.106 -1.0448 -1.1656 -0.9742
60536SOL     OW87570   8.215   3.003   3.165 -0.5609  0.2897  0.3830
60536SOL    HW187571   8.268   2.940   3.214 -1.9864 -1.1148  0.1981
60536SOL    HW287572   8.274   3.037   3.098  0.1348 -1.1714  0.2212
60537SOL     OW87573  11.607   0.918   1.773 -0.2519  0.3391 -0.4285
60537SOL    HW187574  11.550   0.995   1.772  1.3888  1.6893  1.6108
60537SOL    HW287575  11.589   0.875   1.856 -0.7787 -1.2656 -1.3235
60538SOL     OW87576  11.728   0.658   4.786  0.2752 -0.2847  0.5196
60538SOL    HW187577  11.702   0.663   4.694 -0.8506  1.5298  0.8837
60538SOL    HW287578  11.796   0.591   4.789  0.4700 -0.2359 -1.6638
60539SOL     OW87579   8.282   8.511   5.528  0.1328  0.0777  0.1693
60539SOL    HW187580   8.360   8.455   5.527  1.3457  1.7025  0.2941
60539SOL    HW287581   8.276   8.546   5.439  0.2046  0.8217  0.4484
60540SOL     OW87582   1.250   3.373   9.903  0.5622 -0.2065 -0.6582
60540SOL    HW187583   1.227   3.382   9.811 -1.2898 -0.5456 -0.2628
60540SOL    HW287584   1.231   3.282   9.924 -0.4735  0.2421  0.4169
60541SOL     OW87585   7.927   2.412   2.791 -0.6386 -0.3126 -0.0551
60541SOL    HW187586   7.917   2.475   2.862  2.6268 -0.7543  0.9344
60541SOL    HW287587   7.954   2.464   2.716 -0.7626 -0.2404 -0.0506
60542SOL     OW87588   8.989   0.307   7.557 -0.6480  0.6623  0.1532
60542SOL    HW187589   8.996   0.345   7.644  1.1591 -2.0727  1.3456
60542SOL    HW287590   9.078   0.281   7.535 -1.5160 -1.5681 -1.0737
60543SOL     OW87591   7.817   7.997   9.899 -0.1111 -0.6965  0.0757
60543SOL    HW187592   7.723   8.003   9.913  0.0470  1.1658  0.5602
60543SOL    HW287593   7.827   7.928   9.833 -1.9114 -0.0462 -0.9470
60544SOL     OW87594   0.610   2.265   3.715 -0.2814 -0.0588  0.3069
60544SOL    HW187595   0.664   2.305   3.646  0.1221  0.8831  1.1421
60544SOL    HW287596   0.570   2.340   3.760  0.5278 -0.5691  1.9459
60545SOL     OW87597   0.244  10.123   4.696 -0.8585 -0.1118 -0.3785
60545SOL    HW187598   0.291  10.100   4.616 -1.1071 -1.2228 -0.2188
60545SOL    HW287599   0.284  10.069   4.764  1.6229  3.1076  1.0115
60546SOL     OW87600   1.886   5.643  12.079 -0.0532 -0.3796  0.0008
60546SOL    HW187601   1.821   5.658  12.010 -1.3703  0.1557  1.3220
60546SOL    HW287602   1.916   5.553  12.063 -1.5078 -0.8413 -0.3212
60547SOL     OW87603   1.518   9.672   2.534 -0.6694  0.2122  0.3059
60547SOL    HW187604   1.443   9.706   2.583 -0.0883  1.7726  0.1848
60547SOL    HW287605   1.564   9.616   2.596 -1.0257  0.5823  0.9195
60548SOL     OW87606   5.631   1.041   4.864  0.0939  0.0349 -0.4791
60548SOL    HW187607   5.573   1.099   4.815 -1.8005 -0.7339  0.7288
60548SOL    HW287608   5.580   0.961   4.877  0.5957  0.0733  2.3710
60549SOL     OW87609   1.110   4.178  10.978  0.1172 -0.7128  0.2933
60549SOL    HW187610   1.054   4.238  10.929  0.0929 -1.2254 -0.3257
60549SOL    HW287611   1.097   4.093  10.935 -0.4971 -1.3469  1.6880
60550SOL     OW87612   0.026  10.245   0.955 -0.1815 -0.6815 -0.4307
60550SOL    HW187613   0.104  10.198   0.986 -1.0298 -2.3611 -0.7615
60550SOL    HW287614   0.011  10.212   0.866 -1.4392 -0.6143 -0.2648
60551SOL     OW87615   0.233   5.775   2.484  0.3120  0.4178 -0.1197
60551SOL    HW187616   0.164   5.759   2.419  0.0032 -0.4901  0.4150
60551SOL    HW287617   0.266   5.688   2.506  0.5723  0.7271  0.7607
60552SOL     OW87618   1.722   0.708  11.092  0.0889 -0.7167  0.0250
60552SOL    HW187619   1.709   0.614  11.101 -1.6897 -0.5410 -0.4103
60552SOL    HW287620   1.793   0.716  11.028  1.1591 -1.7423  1.0345
60553SOL     OW87621   4.637   5.751   1.178  0.2374  0.0738 -0.2605
60553SOL    HW187622   4.586   5.678   1.144 -1.9146  0.9960  0.7561
60553SOL    HW287623   4.678   5.716   1.257  0.5591 -0.4729 -0.6636
60554SOL     OW87624   9.291  11.631   5.655 -0.4048 -0.0425 -0.2167
60554SOL    HW187625   9.339  11.711   5.676 -0.8819 -0.3801  2.5284
60554SOL    HW287626   9.321  11.607   5.568  1.8131  1.6094  0.0071
60555SOL     OW87627   8.777  10.841   0.372 -0.6215 -0.0914  0.7432
60555SOL    HW187628   8.746  10.922   0.330  0.3529 -0.6809 -1.2479
60555SOL    HW287629   8.702  10.782   0.366 -0.6192 -0.0409  0.1587
60556SOL     OW87630  11.689   7.433   4.180 -0.1547  0.0683 -0.2121
60556SOL    HW187631  11.720   7.371   4.113  1.6653  0.4219  0.2647
60556SOL    HW287632  11.661   7.510   4.130 -0.7868 -0.4556 -0.6895
60557SOL     OW87633   5.979   6.669   6.267 -0.4130 -0.2245 -0.3258
60557SOL    HW187634   6.069   6.642   6.247 -0.0796  0.1277  0.6416
60557SOL    HW287635   5.925   6.618   6.207  0.3954 -0.8439 -0.5480
60558SOL     OW87636  11.980  11.654   8.171 -0.3610 -0.9328  0.0574
60558SOL    HW187637  12.011  11.578   8.220  0.8134 -0.2451  0.4297
60558SOL    HW287638  11.887  11.661   8.193  0.0380 -0.8738  1.9005
60559SOL     OW87639   8.707   3.591   5.648 -0.1604 -0.2882 -0.3246
60559SOL    HW187640   8.707   3.548   5.563 -2.0367 -0.7507 -0.1331
60559SOL    HW287641   8.761   3.535   5.704  1.1290  0.0529 -1.2029
60560SOL     OW87642  11.577   1.726   5.232  0.2710 -0.2513  0.2871
60560SOL    HW187643  11.664   1.731   5.271  0.0264 -1.0591  0.9551
60560SOL    HW287644  11.517   1.745   5.304 -0.2816 -3.5812  0.8817
60561SOL     OW87645   5.586   3.526   1.357 -0.5534 -0.0021  0.0976
60561SOL    HW187646   5.575   3.505   1.450 -1.0901  0.3477  0.1188
60561SOL    HW287647   5.561   3.618   1.350 -0.3338  0.0267 -0.3645
60562SOL     OW87648   5.758   3.916  11.951 -0.3440 -0.4035  0.0324
60562SOL    HW187649   5.791   4.004  11.971  0.3769 -0.6447 -0.1023
60562SOL    HW287650   5.678   3.933  11.901  0.5825  0.1996 -1.3188
60563SOL     OW87651   3.998   7.617  12.485 -0.0060  0.2420 -0.1812
60563SOL    HW187652   4.054   7.574  12.549  0.4074 -0.6233 -1.1010
60563SOL    HW287653   4.047   7.695  12.459 -0.0711  0.4733  0.3602
60564SOL     OW87654   3.365   4.865   3.194  0.3498 -0.0240 -0.4101
60564SOL    HW187655   3.297   4.903   3.138 -0.0713  0.3824  0.3674
60564SOL    HW287656   3.336   4.883   3.283  1.2480 -0.2599 -0.0573
60565SOL     OW87657   0.827   7.354  10.205  0.0211  0.2378  0.2058
60565SOL    HW187658   0.840   7.428  10.145 -1.1640  0.8800  0.7121
60565SOL    HW287659   0.856   7.387  10.290 -1.5782  0.5374  0.6659
60566SOL     OW87660  11.507   2.516   1.495 -0.7515  0.4512 -0.1203
60566SOL    HW187661  11.529   2.449   1.430 -0.1234  0.1112  0.4303
60566SOL    HW287662  11.589   2.533   1.541 -1.1086  0.9434  0.3479
60567SOL     OW87663  12.355   9.977   8.108 -0.0406  0.0613 -0.3740
60567SOL    HW187664  12.313  10.016   8.031  0.6881  1.3985 -0.1179
60567SOL    HW287665  12.282   9.939   8.157 -0.7689  0.9145 -0.7547
60568SOL     OW87666  10.836   2.110   6.539  0.1044  0.2654  0.3528
60568SOL    HW187667  10.929   2.123   6.519  0.7485 -0.2972  2.6884
60568SOL    HW287668  10.811   2.190   6.586 -0.3505  0.0512  0.4793
60569SOL     OW87669   1.706  11.557   3.382 -0.0028  0.0924 -0.2168
60569SOL    HW187670   1.731  11.623   3.447  0.0957  0.1497 -0.3112
60569SOL    HW287671   1.790  11.522   3.352 -0.0686 -0.5536  0.3179
60570SOL     OW87672   0.400   8.771  10.302  0.3931  0.6264  0.0851
60570SOL    HW187673   0.388   8.726  10.218  4.3630  0.9864 -0.8912
60570SOL    HW287674   0.456   8.712  10.352 -1.5245  0.6361  2.4204
60571SOL     OW87675   7.069   9.983   3.557 -0.4852 -0.1545  0.2267
60571SOL    HW187676   7.093   9.896   3.527  0.4420  0.3626 -0.5530
60571SOL    HW287677   6.979   9.995   3.525 -0.1821 -0.3474 -0.7190
60572SOL     OW87678   5.963   1.338   6.517  0.6020  0.0612 -0.0582
60572SOL    HW187679   5.989   1.429   6.501  0.7145  0.1963  0.8261
60572SOL    HW287680   6.013   1.313   6.594  0.0975 -0.5538  0.0715
60573SOL     OW87681   5.901   0.996   1.668  0.0347  0.1321  0.3674
60573SOL    HW187682   5.858   0.977   1.752 -0.4247  0.9476  0.3280
60573SOL    HW287683   5.994   0.980   1.685  0.1230  1.5610  1.4439
60574SOL     OW87684   3.937  10.866  10.345  0.3517 -0.1354 -0.5884
60574SOL    HW187685   3.933  10.950  10.391 -0.1955 -0.9303  0.8311
60574SOL    HW287686   4.021  10.828  10.372  0.3692 -0.2751 -0.8359
60575SOL     OW87687   4.149   9.840   7.485  0.3961 -0.1364  0.0706
60575SOL    HW187688   4.204   9.762   7.492  1.3889  0.4997 -0.4113
60575SOL    HW287689   4.101   9.828   7.402  0.4485 -0.2870  0.0618
60576SOL     OW87690   8.233   4.213   2.261  0.6390 -0.6654 -0.1510
60576SOL    HW187691   8.183   4.196   2.341 -1.1379 -1.6543 -1.3831
60576SOL    HW287692   8.182   4.169   2.192  1.7854  0.6502 -1.9088
60577SOL     OW87693   5.362   8.908   7.762  0.0119  0.0540  0.0680
60577SOL    HW187694   5.436   8.967   7.775 -0.5596  1.4142 -2.2364
60577SOL    HW287695   5.286   8.960   7.787 -0.3235 -0.6480  0.5350
60578SOL     OW87696   8.184   9.029   3.119  0.2194  0.1616  0.1114
60578SOL    HW187697   8.124   9.062   3.052  0.5234  0.5756  0.0385
60578SOL    HW287698   8.174   9.091   3.192  1.8614  1.2959 -0.5703
60579SOL     OW87699   5.148   2.924   5.764  0.0692 -0.2949  0.3380
60579SOL    HW187700   5.192   3.006   5.783  0.4213 -0.6813  1.2330
60579SOL    HW287701   5.084   2.914   5.834 -0.2985 -0.5590 -0.0270
60580SOL     OW87702   4.180  11.732   6.044 -0.4281  0.4448  0.7221
60580SOL    HW187703   4.274  11.713   6.036 -0.9862 -1.8689 -1.3634
60580SOL    HW287704   4.176  11.827   6.055  2.1734  0.5103  1.8425
60581SOL     OW87705   2.758   0.912   1.657 -0.1282 -0.3699  0.1407
60581SOL    HW187706   2.734   0.827   1.621 -0.0289 -0.1696 -0.4107
60581SOL    HW287707   2.710   0.918   1.740 -1.3085 -0.3479 -0.5171
60582SOL     OW87708  11.249  12.454   1.937 -0.0576  0.4301 -0.1105
60582SOL    HW187709  11.201  12.535   1.953  0.4928  0.8314 -0.5003
60582SOL    HW287710  11.331  12.465   1.984 -0.2134 -0.1367  0.3075
60583SOL     OW87711   7.113  10.511   3.598  0.4545 -0.5266  0.2189
60583SOL    HW187712   7.119  10.416   3.593 -1.1309 -0.6683  0.5862
60583SOL    HW287713   7.203  10.539   3.615  0.7926 -2.0320  1.1177
60584SOL     OW87714   9.952   2.292   8.652 -0.0893  0.0315  0.3431
60584SOL    HW187715  10.027   2.276   8.709 -0.6451 -0.8420  0.8540
60584SOL    HW287716   9.943   2.212   8.600 -1.0835 -0.1688  0.7892
60585SOL     OW87717   8.391   3.011   8.106 -0.2897  0.1288  0.4526
60585SOL    HW187718   8.407   3.085   8.165  0.7778  1.1831 -1.0828
60585SOL    HW287719   8.361   3.052   8.025 -1.4918 -1.2796  0.1418
60586SOL     OW87720   8.768   2.185   0.541 -0.0007  0.0540 -0.2755
60586SOL    HW187721   8.742   2.218   0.455 -1.2985 -0.9045 -0.2803
60586SOL    HW287722   8.772   2.090   0.530 -0.9322 -0.1446  0.8949
60587SOL     OW87723   2.183  11.560   3.951 -0.0196 -0.2084  0.0171
60587SOL    HW187724   2.216  11.475   3.923 -0.3999 -0.1182 -0.7352
60587SOL    HW287725   2.089  11.556   3.934 -0.0198  0.4089 -0.1679
60588SOL     OW87726   4.368   1.410   5.467 -0.2967 -0.0706 -0.0726
60588SOL    HW187727   4.413   1.487   5.502  1.3966 -0.0145 -2.1506
60588SOL    HW287728   4.319   1.443   5.392  1.2017 -1.0727 -1.5660
60589SOL     OW87729  12.235   4.057   8.414 -0.0469  1.0051 -0.4872
60589SOL    HW187730  12.189   4.073   8.497 -0.3718  0.5588 -0.5822
60589SOL    HW287731  12.188   3.985   8.374  1.2294 -0.0114 -0.2132
60590SOL     OW87732  10.746   9.605   2.545 -0.8065  0.0668 -0.5779
60590SOL    HW187733  10.831   9.578   2.510 -0.5974 -1.2434  0.8344
60590SOL    HW287734  10.683   9.577   2.479 -0.4346 -2.3246 -0.0186
60591SOL     OW87735   1.929   2.080   4.897 -0.0884 -0.2777  0.0331
60591SOL    HW187736   1.973   2.039   4.822  1.7589 -0.9207  1.3986
60591SOL    HW287737   1.916   2.171   4.870  2.0491 -0.0803 -0.5076
60592SOL     OW87738   0.533   7.060   0.795 -0.1041  0.5103 -0.4603
60592SOL    HW187739   0.562   7.050   0.886 -0.8745  0.5919 -0.1941
60592SOL    HW287740   0.544   7.153   0.776 -0.3949  0.5860 -0.2783
60593SOL     OW87741   9.179   2.060   1.524 -0.2387  0.1432 -0.2087
60593SOL    HW187742   9.108   2.026   1.470 -1.0706 -0.6866  1.3411
60593SOL    HW287743   9.254   2.063   1.465 -1.1955 -0.3405 -1.5065
60594SOL     OW87744  10.052   3.900   8.219  0.0603  0.1824  0.3216
60594SOL    HW187745  10.058   3.992   8.242 -0.3605  0.6626 -1.3906
60594SOL    HW287746   9.985   3.865   8.278  2.2128  0.2295  2.9985
60595SOL     OW87747   3.263   4.726   8.821  0.3927  0.0633 -0.2454
60595SOL    HW187748   3.240   4.786   8.750 -1.1473  0.7052  0.7480
60595SOL    HW287749   3.189   4.731   8.881  1.4063 -0.8969  1.1349
60596SOL     OW87750  10.354   8.808   9.515  0.0971 -0.4387 -0.7212
60596SOL    HW187751  10.430   8.750   9.526  0.6483  0.3522 -0.3295
60596SOL    HW287752  10.289   8.774   9.576 -0.3723 -1.9109 -1.9542
60597SOL     OW87753   1.874   0.767  11.400 -0.2084 -0.0903 -0.0273
60597SOL    HW187754   1.941   0.787  11.335 -2.1488  2.3444 -1.4518
60597SOL    HW287755   1.885   0.834  11.467 -0.6754 -0.2237  0.1863
60598SOL     OW87756   5.880   0.533   3.133  0.1881  0.0585  0.2325
60598SOL    HW187757   5.865   0.536   3.039  0.7290  1.4225  0.1687
60598SOL    HW287758   5.895   0.440   3.152 -2.3980 -0.6020 -0.5886
60599SOL     OW87759   9.807   2.189  11.112 -0.6691 -0.2282  0.6142
60599SOL    HW187760   9.834   2.248  11.183 -2.4580  1.6705 -0.1771
60599SOL    HW287761   9.856   2.109  11.127  1.5332  1.2959  2.0327
60600SOL     OW87762   1.726   1.761   6.113  0.2614  0.3532 -0.5972
60600SOL    HW187763   1.778   1.793   6.039  0.4269  1.8266  0.1147
60600SOL    HW287764   1.768   1.679   6.138  0.9639  0.4660 -1.3591
60601SOL     OW87765  11.090   8.807   0.649 -0.3182  0.0212  0.0792
60601SOL    HW187766  11.038   8.792   0.570 -0.9423  0.9143  0.3004
60601SOL    HW287767  11.118   8.898   0.642  0.7667 -0.2897  0.2406
60602SOL     OW87768   5.666  11.296   4.725 -0.2600 -0.3534 -0.3451
60602SOL    HW187769   5.650  11.203   4.707 -4.0940  0.2195 -0.8041
60602SOL    HW287770   5.672  11.337   4.638  0.8756 -0.0448 -0.1429
60603SOL     OW87771   5.674   4.365   4.793 -0.2957  0.0446 -0.1647
60603SOL    HW187772   5.650   4.458   4.798  1.8624  0.5943  1.0271
60603SOL    HW287773   5.769   4.364   4.801 -0.4514 -2.4416  3.2719
60604SOL     OW87774  10.391   3.425  11.344 -0.3570 -0.1428  0.9639
60604SOL    HW187775  10.483   3.415  11.365 -0.2385  0.9172  1.0342
60604SOL    HW287776  10.350   3.345  11.374  0.5062 -0.5309  1.1376
60605SOL     OW87777   0.071   4.541   4.861 -0.4150 -0.6949 -0.2536
60605SOL    HW187778  -0.008   4.570   4.815  0.8640 -0.2522 -2.3011
60605SOL    HW287779   0.091   4.611   4.922 -0.2740  0.3490 -1.4565
60606SOL     OW87780  11.451   7.753   6.361 -0.3602  0.0793 -0.2383
60606SOL    HW187781  11.517   7.753   6.292  0.7976  0.2963  0.8346
60606SOL    HW287782  11.461   7.669   6.405  0.4947  0.8433  1.0944
60607SOL     OW87783   2.377   5.919   8.573  0.4033  0.1965 -1.0212
60607SOL    HW187784   2.339   5.946   8.657 -2.0975 -1.3348 -1.5415
60607SOL    HW287785   2.466   5.952   8.575  0.7677 -0.5762  2.6440
60608SOL     OW87786   0.776   6.759   1.061  0.3396 -0.3908  0.5536
60608SOL    HW187787   0.740   6.816   1.129 -1.3705  0.5962 -1.0914
60608SOL    HW287788   0.835   6.815   1.011 -1.9359  0.2714 -1.5458
60609SOL     OW87789   6.488  12.416   1.968  0.1265  0.2169 -0.3047
60609SOL    HW187790   6.562  12.462   1.930  1.6187 -0.1476  1.9709
60609SOL    HW287791   6.501  12.324   1.944 -0.3250  0.3297 -0.9975
60610SOL     OW87792  10.173   0.485   6.590 -0.2342 -0.1255  0.0458
60610SOL    HW187793  10.142   0.395   6.603 -1.0524  0.2466  0.7630
60610SOL    HW287794  10.179   0.495   6.495 -1.1452 -0.6143 -0.0710
60611SOL     OW87795   8.347   3.148  12.038  0.0339  0.2989 -0.7692
60611SOL    HW187796   8.308   3.192  11.963 -0.3553 -0.1915 -0.8583
60611SOL    HW287797   8.283   3.159  12.108 -0.4469 -0.8116 -1.0119
60612SOL     OW87798   9.287  11.683   8.802  0.3301 -0.0327 -0.1419
60612SOL    HW187799   9.296  11.776   8.826  0.3263 -0.3737  1.3010
60612SOL    HW287800   9.376  11.655   8.782  0.1736  0.5640 -1.7936
60613SOL     OW87801   2.456   9.120   9.992  0.1329 -0.2903  0.6453
60613SOL    HW187802   2.441   9.200   9.941  3.8662 -0.1384 -0.5148
60613SOL    HW287803   2.421   9.050   9.937  1.6785  0.1379 -1.0214
60614SOL     OW87804   8.684  10.880   9.319 -0.4016  0.3387 -0.4770
60614SOL    HW187805   8.601  10.914   9.286  0.0489  1.8960 -0.1059
60614SOL    HW287806   8.704  10.936   9.394 -0.6335 -2.1272  1.5448
60615SOL     OW87807   8.148  11.303  11.731 -0.1153 -0.1078 -0.7955
60615SOL    HW187808   8.234  11.336  11.759  1.3474 -2.5146 -2.0867
60615SOL    HW287809   8.163  11.272  11.642 -1.5037 -3.2155 -0.0830
60616SOL     OW87810   9.519   8.119   9.945  0.0514  0.2567  0.9728
60616SOL    HW187811   9.448   8.135  10.008  0.0678 -0.2555  1.1223
60616SOL    HW287812   9.518   8.025   9.931 -1.8230  0.5843 -1.9691
60617SOL     OW87813  10.879  11.654  11.167  0.3931 -0.3077 -0.8175
60617SOL    HW187814  10.898  11.594  11.240 -2.1056  0.6344  0.7725
60617SOL    HW287815  10.849  11.596  11.097 -0.3585 -1.0622  0.0896
60618SOL     OW87816   9.740   0.713   9.999  0.1321  0.2030 -0.0712
60618SOL    HW187817   9.764   0.692  10.089 -0.1462  0.9074  0.1729
60618SOL    HW287818   9.647   0.737  10.004  0.2301  0.6798 -0.4737
60619SOL     OW87819   4.083   6.552   2.074 -0.2993 -0.4045  0.1393
60619SOL    HW187820   4.030   6.626   2.045  1.5471  1.9713  2.3668
60619SOL    HW287821   4.141   6.533   2.000 -0.3952  0.8003 -0.2599
60620SOL     OW87822   5.178   9.125   3.737  0.0695  0.7341  0.5299
60620SOL    HW187823   5.087   9.109   3.711  0.1097  1.6880 -0.2702
60620SOL    HW287824   5.209   9.190   3.674  1.5851 -0.2279  0.2407
60621SOL     OW87825   8.320   7.458   7.081  0.2425 -0.1918  0.3213
60621SOL    HW187826   8.392   7.398   7.102  0.0598 -0.0698  1.3387
60621SOL    HW287827   8.264   7.457   7.158  1.1232  2.5697  1.1009
60622SOL     OW87828   3.035   3.927   8.775  0.2818  0.2976 -0.0617
60622SOL    HW187829   3.030   4.022   8.767  0.9678  0.3074 -0.4827
60622SOL    HW287830   3.129   3.907   8.770  0.2142 -0.3286  0.8815
60623SOL     OW87831  10.466   1.423   0.303  0.1815 -0.1971 -0.2522
60623SOL    HW187832  10.545   1.443   0.353  0.8822 -2.6673 -0.2086
60623SOL    HW287833  10.424   1.352   0.352 -2.7467  1.8017  0.3362
60624SOL     OW87834   6.288   0.380   8.418  0.0780  0.1041  0.1303
60624SOL    HW187835   6.213   0.325   8.398  1.3610 -2.1390  1.0382
60624SOL    HW287836   6.311   0.421   8.335 -0.9471 -0.7302 -0.5931
60625SOL     OW87837  12.433   3.443   8.884 -0.2726 -0.1971  0.7103
60625SOL    HW187838  12.382   3.524   8.893 -0.2412 -0.2550  1.4341
60625SOL    HW287839  12.369   3.377   8.856 -0.4265 -0.0778  0.7828
60626SOL     OW87840   3.142   8.307   1.267  0.1876  0.4413 -0.3915
60626SOL    HW187841   3.227   8.263   1.270 -0.5783 -1.0376  1.3492
60626SOL    HW287842   3.163   8.400   1.258  2.1704  0.4661  2.9676
60627SOL     OW87843   9.298   6.335   9.023  0.6466 -0.3204  0.7101
60627SOL    HW187844   9.228   6.400   9.019  0.2721 -0.5567  2.6342
60627SOL    HW287845   9.338   6.337   8.936  1.4350  3.3272  1.0098
60628SOL     OW87846   2.056   3.791   5.320 -0.4024 -0.2911 -0.0007
60628SOL    HW187847   2.117   3.811   5.392 -0.8581  0.0692  0.2964
60628SOL    HW287848   2.064   3.697   5.306  0.4456 -0.1973 -0.1708
60629SOL     OW87849   9.609   6.979   4.324 -0.0056  0.5209 -0.4615
60629SOL    HW187850   9.591   7.026   4.406 -0.2702  0.8449 -0.7002
60629SOL    HW287851   9.686   6.925   4.343 -0.6724 -0.1826  0.3054
60630SOL     OW87852  10.562   2.474   8.231 -0.2134 -0.0775 -0.2522
60630SOL    HW187853  10.652   2.497   8.208  0.0433 -1.6757 -0.9668
60630SOL    HW287854  10.523   2.557   8.260  1.0935  0.9096 -1.1913
60631SOL     OW87855   9.780  11.977   0.577 -0.2536 -0.3472  0.4226
60631SOL    HW187856   9.849  11.936   0.524 -0.3588  0.7165 -0.5877
60631SOL    HW287857   9.813  12.064   0.597 -0.4370 -0.5564  1.7335
60632SOL     OW87858   8.911   4.492   2.534  0.1054 -0.3221 -0.4347
60632SOL    HW187859   8.827   4.528   2.562  0.7019  0.8788 -0.1244
60632SOL    HW287860   8.974   4.563   2.548  1.3622 -1.5183  0.3403
60633SOL     OW87861   2.030  11.967   8.307  0.0876  0.4372 -0.2464
60633SOL    HW187862   1.989  11.889   8.345 -0.7915  0.0726 -1.8150
60633SOL    HW287863   1.984  11.979   8.224  1.0516  1.9217 -0.5987
60634SOL     OW87864   5.511  12.278   5.147 -0.5805  0.0708 -0.1511
60634SOL    HW187865   5.516  12.192   5.105 -0.1086 -1.1745  2.2860
60634SOL    HW287866   5.599  12.315   5.136  0.2349 -1.2119  1.5219
60635SOL     OW87867   5.127   9.473  11.499  0.1202 -0.2083 -0.3883
60635SOL    HW187868   5.115   9.556  11.453 -0.6009 -0.1532 -0.1217
60635SOL    HW287869   5.184   9.422  11.441 -1.0144 -0.2588 -1.5055
60636SOL     OW87870   3.780   3.551   3.675 -0.0323  0.0838 -0.4868
60636SOL    HW187871   3.825   3.543   3.759 -2.9884  0.5887  1.3210
60636SOL    HW287872   3.688   3.534   3.696 -0.6358 -2.5260 -4.1509
60637SOL     OW87873   9.476   6.545   8.242 -0.7157  0.3751  0.2708
60637SOL    HW187874   9.548   6.595   8.204 -1.7801  1.5434 -0.3189
60637SOL    HW287875   9.491   6.547   8.336 -0.0065  0.6314  0.1571
60638SOL     OW87876   8.053   4.119   3.855  0.1289  0.1280  0.3992
60638SOL    HW187877   8.098   4.121   3.770 -0.3781  0.4557  0.1326
60638SOL    HW287878   8.091   4.194   3.902 -1.5947  1.7303 -0.6084
60639SOL     OW87879  10.440   5.756  10.995  0.4656  0.2098  0.1506
60639SOL    HW187880  10.345   5.766  11.002  0.2722  0.2933 -2.0474
60639SOL    HW287881  10.460   5.774  10.904  2.3753 -1.7395  0.0929
60640SOL     OW87882   5.675   8.097   3.169 -0.0989 -0.0410  0.0665
60640SOL    HW187883   5.748   8.151   3.200  1.0343 -1.1713 -0.5132
60640SOL    HW287884   5.707   8.007   3.180 -1.6332 -0.5754  0.3061
60641SOL     OW87885   7.303   9.085   7.221  0.0932 -0.2367  0.1748
60641SOL    HW187886   7.250   9.118   7.149  0.2510 -1.9694 -0.7795
60641SOL    HW287887   7.390   9.123   7.207 -0.2704  0.6787  0.3630
60642SOL     OW87888   9.497   8.736   1.760 -0.1484 -0.4688  0.7911
60642SOL    HW187889   9.428   8.678   1.792  0.0600 -0.7694  0.6906
60642SOL    HW287890   9.449   8.815   1.731 -0.3070 -0.0198  2.1931
60643SOL     OW87891  12.487  11.197   6.691  0.2127 -0.0936 -0.1930
60643SOL    HW187892  12.485  11.102   6.688  0.2586 -0.0809 -1.7839
60643SOL    HW287893  12.411  11.224   6.637  1.2722  0.7363 -1.3376
60644SOL     OW87894   2.193   6.732  11.439 -0.0914 -0.4246 -0.1177
60644SOL    HW187895   2.211   6.825  11.451  0.1683 -0.4091 -0.5955
60644SOL    HW287896   2.110   6.717  11.485 -0.3364  0.1227 -0.3786
60645SOL     OW87897   3.640   1.960   0.330 -0.2302  0.3427 -0.2214
60645SOL    HW187898   3.626   2.049   0.364 -0.3172  0.2408  0.0162
60645SOL    HW287899   3.680   1.973   0.244 -0.8506  0.6253 -0.4728
60646SOL     OW87900  12.422   1.453  12.329  0.5543  0.2778 -0.7145
60646SOL    HW187901  12.515   1.477  12.328  0.6832 -0.2297 -1.0998
60646SOL    HW287902  12.415   1.380  12.267  0.3892 -1.5123  1.3010
60647SOL     OW87903   2.003  11.649   0.133  0.6984 -0.1066  0.1419
60647SOL    HW187904   1.981  11.730   0.179  1.6407 -0.3458  1.0689
60647SOL    HW287905   2.093  11.630   0.160  0.9320 -0.7974 -1.0488
60648SOL     OW87906  11.445   0.317  10.471 -0.5836  0.3807 -0.5213
60648SOL    HW187907  11.419   0.246  10.412 -1.3777 -0.7892  1.1515
60648SOL    HW287908  11.405   0.294  10.555  1.5104  1.3277  0.8142
60649SOL     OW87909   9.984  10.525   7.730  0.3358 -0.6368  0.1248
60649SOL    HW187910   9.902  10.502   7.774  0.3692 -0.6989  0.1547
60649SOL    HW287911  10.012  10.444   7.688  0.0037 -0.4346 -0.5045
60650SOL     OW87912  12.185   0.784   4.295  0.0292 -0.2443 -0.2541
60650SOL    HW187913  12.151   0.794   4.206 -1.1341  0.2070  0.2251
60650SOL    HW287914  12.210   0.872   4.322  1.1593 -0.4964 -0.4120
60651SOL     OW87915   5.872   2.961   3.360  0.1698 -0.6779  0.0555
60651SOL    HW187916   5.932   2.927   3.426 -0.4641  1.6133  1.9322
60651SOL    HW287917   5.824   2.884   3.330  1.7246 -2.0573  0.9073
60652SOL     OW87918  10.197   5.395   2.722 -0.7233  0.0202 -0.5629
60652SOL    HW187919  10.176   5.489   2.725 -2.3111 -0.2823 -0.9958
60652SOL    HW287920  10.124   5.357   2.673 -0.3508 -1.5193  0.0416
60653SOL     OW87921   8.667   3.140   5.099 -0.2438 -0.1760  0.1126
60653SOL    HW187922   8.659   3.075   5.169 -1.0959 -1.5437 -1.2116
60653SOL    HW287923   8.577   3.159   5.073  0.1023 -1.0597 -1.8249
60654SOL     OW87924  11.590  10.428   3.032  0.5012 -0.3542  0.3268
60654SOL    HW187925  11.520  10.365   3.014  1.1762 -1.3610  1.1287
60654SOL    HW287926  11.571  10.461   3.120  0.9815 -0.5733  0.5155
60655SOL     OW87927   2.833  11.359   1.417  0.0727 -0.4899  0.0798
60655SOL    HW187928   2.785  11.346   1.336  3.0976  0.8117 -2.1277
60655SOL    HW287929   2.824  11.453   1.435 -2.1551 -1.0656  2.4604
60656SOL     OW87930   6.398   2.736   6.011  0.3445 -0.6017 -0.1857
60656SOL    HW187931   6.467   2.703   6.068 -0.4698 -0.2923  1.0426
60656SOL    HW287932   6.317   2.697   6.046  0.0846 -3.3304 -3.3445
60657SOL     OW87933  11.034   9.215  11.048  0.5496  0.4378 -0.3634
60657SOL    HW187934  11.002   9.261  11.126  0.8175 -0.5344  0.3370
60657SOL    HW287935  10.982   9.135  11.044  2.7869 -1.2027  0.8178
60658SOL     OW87936   7.477   1.474  10.019  0.0813 -0.2668  0.4596
60658SOL    HW187937   7.551   1.501   9.965 -0.2674  0.8718  0.5410
60658SOL    HW287938   7.481   1.530  10.096 -0.8507 -0.1988  0.4728
60659SOL     OW87939   4.898   7.159   5.943 -0.0663  0.0175 -0.2927
60659SOL    HW187940   4.965   7.135   6.007  0.4636 -0.7258 -1.1141
60659SOL    HW287941   4.941   7.152   5.858 -0.5907  1.6018 -0.7147
60660SOL     OW87942   1.694   3.710  11.594 -0.0424  0.0633  0.1462
60660SOL    HW187943   1.754   3.782  11.613 -0.2160  1.0470 -2.6361
60660SOL    HW287944   1.609   3.740  11.627  0.3669 -0.0472  1.3634
60661SOL     OW87945   0.469  12.256   3.660  0.2978 -0.5963  0.4512
60661SOL    HW187946   0.376  12.236   3.673  0.4849 -1.7080  0.1566
60661SOL    HW287947   0.482  12.247   3.566  0.5621  0.2331  0.4016
60662SOL     OW87948  12.243  11.617   7.819 -0.6256 -0.1424 -0.1288
60662SOL    HW187949  12.197  11.669   7.884  1.0644  0.2268  0.8206
60662SOL    HW287950  12.317  11.579   7.866 -0.3611 -1.3254 -1.4194
60663SOL     OW87951   0.006   5.365   5.246  0.1064 -0.2176 -0.3340
60663SOL    HW187952   0.101   5.373   5.238  0.2281 -1.4191 -0.2303
60663SOL    HW287953  -0.029   5.424   5.179  0.9481 -0.7496 -1.2634
60664SOL     OW87954   5.417   0.072  10.675 -0.2991  0.6198 -0.2344
60664SOL    HW187955   5.512   0.065  10.674 -0.3743 -1.1315 -1.8792
60664SOL    HW287956   5.400   0.165  10.684  1.5194  0.8441  1.5404
60665SOL     OW87957   2.840   8.868   2.716 -0.3875  0.2467  0.6078
60665SOL    HW187958   2.825   8.919   2.637  0.3289 -0.4487  0.0056
60665SOL    HW287959   2.774   8.799   2.713 -0.7429  0.5699  0.9296
60666SOL     OW87960   3.930   4.817   6.244 -0.6163  0.0558  0.7972
60666SOL    HW187961   3.980   4.739   6.221 -0.5772  0.5065 -0.7994
60666SOL    HW287962   3.888   4.795   6.327 -0.8544 -1.7928  0.2421
60667SOL     OW87963   7.985  12.102   6.778 -0.0716 -0.3350 -0.5239
60667SOL    HW187964   8.004  12.008   6.776  0.1798 -0.3327  0.6908
60667SOL    HW287965   8.051  12.141   6.721 -0.0779 -0.8787 -0.9126
60668SOL     OW87966   7.739   8.673   1.864  0.4234  0.4225 -0.3215
60668SOL    HW187967   7.666   8.685   1.924  0.6379 -0.9352  0.2375
60668SOL    HW287968   7.786   8.757   1.866 -0.7496  1.0928 -0.2176
60669SOL     OW87969   3.035   5.600   7.201  0.2216  1.0251  0.2350
60669SOL    HW187970   2.984   5.667   7.155 -2.6072 -0.8110  0.4205
60669SOL    HW287971   3.000   5.600   7.290  0.9676  0.0578  0.5463
60670SOL     OW87972   3.844   5.555   4.357 -0.1355  0.1306  0.4321
60670SOL    HW187973   3.872   5.475   4.314  0.9157  1.2523 -1.0873
60670SOL    HW287974   3.890   5.556   4.441  1.8849  0.3548 -0.6343
60671SOL     OW87975   1.761   8.369   0.201  0.2786  0.2264 -0.2377
60671SOL    HW187976   1.851   8.401   0.199  1.3073 -2.4546 -1.9586
60671SOL    HW287977   1.739   8.353   0.109 -1.3116 -0.8585  0.2872
60672SOL     OW87978   2.026   4.119   7.448  0.2259 -0.4688 -0.2053
60672SOL    HW187979   1.979   4.044   7.486  1.4073 -0.6589  0.9402
60672SOL    HW287980   2.064   4.085   7.367  1.8493 -1.5408  0.9390
60673SOL     OW87981   6.406   9.717   8.933 -0.1882  0.0743  0.1962
60673SOL    HW187982   6.451   9.649   8.882  1.4029  0.0225  1.5892
60673SOL    HW287983   6.369   9.776   8.867  1.6953 -0.0526 -1.0542
60674SOL     OW87984  10.551   1.534   4.188 -0.0252 -0.1083 -0.2592
60674SOL    HW187985  10.607   1.469   4.231  0.2460  0.2438 -0.0805
60674SOL    HW287986  10.603   1.564   4.113 -0.3004 -0.3651 -0.5583
60675SOL     OW87987   9.811   7.807   2.549 -0.4054  0.4022 -0.8709
60675SOL    HW187988   9.739   7.862   2.580 -0.2479  1.0948 -1.7089
60675SOL    HW287989   9.794   7.721   2.588 -0.0376  1.2949  1.4108
60676SOL     OW87990   1.355   9.018   1.259 -0.0332 -0.3665  0.3892
60676SOL    HW187991   1.324   9.099   1.298  0.2605 -0.2260  0.3289
60676SOL    HW287992   1.435   8.996   1.308  0.3965 -0.1316 -0.1988
60677SOL     OW87993   2.429   6.758  11.275 -0.2496 -0.2913  0.4448
60677SOL    HW187994   2.448   6.814  11.350 -3.5138 -2.6509  3.3398
60677SOL    HW287995   2.351   6.796  11.235  0.0747 -0.3759 -0.2813
60678SOL     OW87996   2.538   5.549   2.518  0.2700 -0.1597  1.2891
60678SOL    HW187997   2.478   5.614   2.483 -0.2546 -1.1459  0.3148
60678SOL    HW287998   2.528   5.556   2.613 -2.7991 -1.5608  1.1806
60679SOL     OW87999  10.569  11.822   8.208  0.0652 -0.2052  0.3480
60679SOL    HW188000  10.663  11.806   8.219 -0.0972 -1.0041  0.6672
60679SOL    HW288001  10.539  11.747   8.157 -0.5281 -0.3366  0.8824
60680SOL     OW88002   6.766   6.426   1.270 -0.4923 -0.2405 -0.7655
60680SOL    HW188003   6.833   6.416   1.337 -1.0510 -0.9647 -0.3077
60680SOL    HW288004   6.686   6.396   1.311 -0.8325 -0.7554 -1.7832
60681SOL     OW88005   5.507   2.234   6.708 -0.0969  0.0403 -0.2486
60681SOL    HW188006   5.588   2.256   6.755  0.7764 -2.1615 -0.6055
60681SOL    HW288007   5.490   2.143   6.731 -2.4673  0.4265 -0.2605
60682SOL     OW88008  11.638   5.170   3.779 -0.4022  0.2518 -0.4001
60682SOL    HW188009  11.593   5.195   3.698 -0.1023  0.4233 -0.5148
60682SOL    HW288010  11.573   5.119   3.827 -0.5487  0.0644 -0.7918
60683SOL     OW88011  11.900   6.111   6.207 -0.0001  0.0920 -0.4175
60683SOL    HW188012  11.864   6.127   6.120 -0.3152  0.5993 -0.2023
60683SOL    HW288013  11.991   6.138   6.201  0.8773 -2.7979 -1.4393
60684SOL     OW88014   2.309  11.623  12.445 -0.0666 -0.2179  0.2352
60684SOL    HW188015   2.336  11.600  12.534  0.2434 -0.7106  0.0196
60684SOL    HW288016   2.273  11.542  12.409  1.2864 -0.4687 -0.6233
60685SOL     OW88017   8.173  11.304  10.545 -0.3543 -0.4220 -0.0737
60685SOL    HW188018   8.193  11.286  10.453  0.6506  1.0475 -0.1853
60685SOL    HW288019   8.233  11.249  10.594 -1.6755 -2.0898 -0.2239
60686SOL     OW88020  10.742   4.614   9.304 -0.4854  0.2491  0.0133
60686SOL    HW188021  10.786   4.533   9.277 -0.1152  0.6639 -0.6590
60686SOL    HW288022  10.714   4.597   9.394  1.5643  0.1617  0.6878
60687SOL     OW88023  11.254   7.919   5.915 -0.1762 -0.0831  0.6314
60687SOL    HW188024  11.226   7.906   6.005  0.5875 -0.3757  0.8383
60687SOL    HW288025  11.350   7.922   5.920 -0.1532  0.7420 -0.0635
60688SOL     OW88026   3.070   8.451  11.466  0.5198 -0.6874  0.5472
60688SOL    HW188027   3.038   8.539  11.451 -1.7743 -1.4572  0.5170
60688SOL    HW288028   3.137   8.437  11.400  0.7446  0.9273  0.4069
60689SOL     OW88029   2.622   1.161   6.331 -0.3521  0.0631  0.5197
60689SOL    HW188030   2.551   1.139   6.391 -0.2827  0.2193  0.6581
60689SOL    HW288031   2.578   1.174   6.246 -0.4696  0.0131  0.5725
60690SOL     OW88032  11.845  10.004   5.004 -0.0576  0.0542 -0.2750
60690SOL    HW188033  11.883   9.983   5.089  0.5789 -0.6623 -0.7304
60690SOL    HW288034  11.852   9.924   4.953  0.7035  0.8083 -1.4136
60691SOL     OW88035  11.199   7.130   2.870 -0.1343  0.1042  0.4650
60691SOL    HW188036  11.238   7.189   2.936 -0.0389 -0.2391  0.7197
60691SOL    HW288037  11.106   7.149   2.873  0.0493  1.2325 -0.4457
60692SOL     OW88038   4.218   3.615   2.927 -0.1102 -0.1542  0.3566
60692SOL    HW188039   4.155   3.563   2.978  0.4901 -1.1027  0.1587
60692SOL    HW288040   4.188   3.607   2.837  0.6994 -1.2506  0.1605
60693SOL     OW88041   8.771  11.083   6.102 -0.0120 -0.0475 -0.3608
60693SOL    HW188042   8.735  10.998   6.075 -0.7105  0.8440 -2.4174
60693SOL    HW288043   8.863  11.079   6.078  0.3649 -0.7995  1.0890
60694SOL     OW88044   5.524  11.117   0.137 -0.2104  0.1115 -0.1910
60694SOL    HW188045   5.450  11.064   0.167  0.7987 -0.5735  1.2165
60694SOL    HW288046   5.601  11.071   0.171  0.8117  1.3721 -0.7276
60695SOL     OW88047   3.833  12.249  10.384 -0.6215 -0.1231  0.4056
60695SOL    HW188048   3.777  12.291  10.450 -0.1098  2.3213 -0.6063
60695SOL    HW288049   3.921  12.250  10.423 -0.3767  1.0230 -0.1391
60696SOL     OW88050   7.250   1.540   6.631  0.4073  0.1870 -0.3709
60696SOL    HW188051   7.177   1.486   6.600  1.1576 -0.4126 -1.1223
60696SOL    HW288052   7.218   1.577   6.714 -1.0459  0.5806 -1.0713
60697SOL     OW88053   0.603   8.626   7.825 -0.1693  0.2951 -0.4010
60697SOL    HW188054   0.567   8.634   7.737  0.6536 -1.5407 -0.9518
60697SOL    HW288055   0.624   8.533   7.835 -0.3645  0.4157  1.7943
60698SOL     OW88056  11.499   7.415   6.747 -0.3221 -0.0415  0.1811
60698SOL    HW188057  11.430   7.416   6.681 -1.7393  0.4636  1.6125
60698SOL    HW288058  11.546   7.497   6.734 -0.7925  0.2026 -0.0026
60699SOL     OW88059   4.998  10.842  10.841 -0.3911 -0.0462 -0.6039
60699SOL    HW188060   4.904  10.850  10.856 -0.2082 -0.3265  0.8385
60699SOL    HW288061   5.034  10.927  10.868 -0.0306 -0.6290  0.8556
60700SOL     OW88062   7.450  10.997   3.024  0.6861  0.0478  0.3773
60700SOL    HW188063   7.488  11.038   2.947 -0.2457  0.6792  0.2298
60700SOL    HW288064   7.440  11.068   3.087 -2.0114  0.3793 -0.2894
60701SOL     OW88065   9.487  11.327   3.713  0.3640 -0.0366  0.2642
60701SOL    HW188066   9.550  11.378   3.764 -1.2377  1.5611  0.7520
60701SOL    HW288067   9.541  11.265   3.663  2.3557  1.6267  0.2086
60702SOL     OW88068   6.287  10.250   4.326 -0.0981  0.1439  0.0532
60702SOL    HW188069   6.263  10.215   4.412 -0.4395 -0.1431 -0.1567
60702SOL    HW288070   6.207  10.290   4.292 -0.0880 -0.1474 -0.3262
60703SOL     OW88071   6.611   2.644   5.735  0.5170 -0.7335  0.2825
60703SOL    HW188072   6.518   2.663   5.724  0.9981  1.4767 -0.6628
60703SOL    HW288073   6.633   2.590   5.659  0.2762  0.0176 -0.3461
60704SOL     OW88074   8.436   3.530   4.088  0.4627 -0.0914  0.0036
60704SOL    HW188075   8.474   3.543   4.001 -0.2442 -1.1784 -0.4877
60704SOL    HW288076   8.348   3.568   4.081 -0.6551 -2.6279 -0.6586
60705SOL     OW88077   6.116   9.288  12.393 -0.2690  0.3133  0.0000
60705SOL    HW188078   6.115   9.266  12.486  0.0299 -2.0866 -0.4880
60705SOL    HW288079   6.030   9.259  12.361 -0.4283  1.2605 -0.4575
60706SOL     OW88080   7.900  11.667   0.539 -0.0089 -0.1569  0.0071
60706SOL    HW188081   7.815  11.672   0.495  0.5610  1.0745 -1.0275
60706SOL    HW288082   7.903  11.744   0.595  1.5021  1.3962 -2.0758
60707SOL     OW88083   1.681   5.613   0.282  0.5030  0.6670 -0.2583
60707SOL    HW188084   1.612   5.561   0.240  1.4773  0.2087 -1.3644
60707SOL    HW288085   1.752   5.551   0.297  1.6189  1.6062 -1.4287
60708SOL     OW88086  11.278   2.335   8.419 -0.2739  0.6373 -0.4880
60708SOL    HW188087  11.208   2.272   8.400 -0.5200  0.5780  0.5460
60708SOL    HW288088  11.356   2.281   8.430 -0.4817  0.4895  0.3781
60709SOL     OW88089   8.764   1.408   9.431 -0.2364  0.1456  0.2021
60709SOL    HW188090   8.826   1.435   9.364  0.2323 -1.1149  0.1005
60709SOL    HW288091   8.786   1.317   9.448 -0.1311  0.5136  2.3079
60710SOL     OW88092   3.561   5.903   5.429  0.2752  0.5620 -0.3566
60710SOL    HW188093   3.489   5.850   5.395  0.5340 -0.1003  0.1050
60710SOL    HW288094   3.532   5.928   5.518  1.0025 -0.4920  0.1912
60711SOL     OW88095   2.998   6.018   3.715 -0.2880  0.1934 -0.1687
60711SOL    HW188096   3.062   6.014   3.644 -0.6536 -0.4915 -0.4690
60711SOL    HW288097   2.932   6.080   3.685 -0.1587  0.3208 -0.1885
60712SOL     OW88098   6.281   5.531  11.627  0.6832  0.4418 -0.4767
60712SOL    HW188099   6.288   5.609  11.683  0.7495 -0.6573  1.0914
60712SOL    HW288100   6.307   5.563  11.540  0.1573  2.2986 -0.0146
60713SOL     OW88101   5.599   5.731   5.582  0.4852  0.1364 -0.4183
60713SOL    HW188102   5.625   5.750   5.491  0.0923 -0.4038 -0.6542
60713SOL    HW288103   5.547   5.650   5.575 -0.3643  0.6193  0.1665
60714SOL     OW88104   3.397   3.948   1.443  0.0276  0.1479  0.4753
60714SOL    HW188105   3.453   3.938   1.519 -0.1879  2.9794  1.1108
60714SOL    HW288106   3.413   4.038   1.412 -1.6913 -0.0820 -1.3307
60715SOL     OW88107   8.840   4.172   5.248  0.4363 -0.4426  0.0503
60715SOL    HW188108   8.809   4.085   5.270 -2.3947  0.6589  0.8705
60715SOL    HW288109   8.887   4.202   5.326 -0.2207 -0.5387  0.4827
60716SOL     OW88110   9.215   5.662  10.850 -0.2328 -0.2793  0.2048
60716SOL    HW188111   9.284   5.650  10.784  0.4207  0.3091  0.7598
60716SOL    HW288112   9.226   5.753  10.879 -0.3884 -0.5845  1.2578
60717SOL     OW88113   9.512   7.467   2.749 -0.0753  0.7631  0.4807
60717SOL    HW188114   9.444   7.488   2.812 -1.3001  1.7446 -1.1000
60717SOL    HW288115   9.575   7.414   2.798 -1.4686  0.6547  2.2372
60718SOL     OW88116   0.026   6.190   2.209  0.8919 -0.5345 -0.0795
60718SOL    HW188117   0.112   6.152   2.226  1.0675  0.1663  0.6289
60718SOL    HW288118  -0.002   6.226   2.293 -0.0707 -0.7063 -0.3150
60719SOL     OW88119  11.119   3.504   0.411  0.0442 -0.5000  0.2579
60719SOL    HW188120  11.075   3.430   0.370 -2.5984  1.7343 -1.2970
60719SOL    HW288121  11.194   3.521   0.354 -2.0141  0.8193 -2.2707
60720SOL     OW88122   1.106   6.149   5.078 -0.0245  0.6173 -0.5486
60720SOL    HW188123   1.127   6.056   5.087  1.3447  0.9354 -0.1630
60720SOL    HW288124   1.136   6.172   4.990  0.5191  0.8821 -0.3056
60721SOL     OW88125   1.422   8.322   3.138  0.1783 -0.0062 -0.3285
60721SOL    HW188126   1.512   8.301   3.114 -0.5645 -1.0567 -2.4404
60721SOL    HW288127   1.394   8.249   3.194  0.3814 -0.0667 -0.3052
60722SOL     OW88128   5.713   4.945  11.557 -0.0410  0.7771 -0.2331
60722SOL    HW188129   5.789   4.985  11.600  2.0682 -1.9275 -1.1455
60722SOL    HW288130   5.721   4.971  11.466 -0.6469  1.0405 -0.2162
60723SOL     OW88131   1.612   0.144   9.988  0.2992  0.2260 -0.3648
60723SOL    HW188132   1.675   0.166   9.920 -0.1178  0.0717 -0.8020
60723SOL    HW288133   1.567   0.066   9.955 -1.8480  1.7471 -1.2151
60724SOL     OW88134   8.229   3.890  12.289 -0.2042  0.0958 -0.1115
60724SOL    HW188135   8.252   3.938  12.368 -1.0620 -1.3759  1.0662
60724SOL    HW288136   8.136   3.910  12.276 -0.2561 -0.2654 -0.3130
60725SOL     OW88137   5.942  11.553  12.116  0.1281 -0.0310  0.0658
60725SOL    HW188138   5.851  11.529  12.137 -0.6393  1.9369 -0.7307
60725SOL    HW288139   5.956  11.520  12.028 -0.2942  0.8029 -0.3239
60726SOL     OW88140   9.604   2.556   2.406 -0.1643 -0.0142 -0.2095
60726SOL    HW188141   9.530   2.509   2.368  0.0997 -0.8817  0.3021
60726SOL    HW288142   9.674   2.547   2.340 -0.2948  0.1741 -0.3737
60727SOL     OW88143  10.819   9.786   2.181  0.4855 -0.5319  0.2487
60727SOL    HW188144  10.886   9.730   2.221  3.3490  3.2534  1.4263
60727SOL    HW288145  10.846   9.794   2.089  0.6482 -0.3475  0.3119
60728SOL     OW88146   0.629   0.934   3.873  0.0334 -0.2660 -0.1933
60728SOL    HW188147   0.678   0.851   3.875 -0.6300 -0.7274 -1.4784
60728SOL    HW288148   0.658   0.981   3.951  0.3717 -1.7392  0.6173
60729SOL     OW88149   1.839  12.016  11.412 -0.1927 -0.4312  0.0399
60729SOL    HW188150   1.852  12.077  11.485  0.1739 -0.4079 -0.0440
60729SOL    HW288151   1.814  11.934  11.454  0.5214 -0.5584  0.2243
60730SOL     OW88152  10.206   3.804  11.582  0.3644 -0.1723 -0.2220
60730SOL    HW188153  10.250   3.888  11.596  0.2453 -0.2266  0.5041
60730SOL    HW288154  10.231   3.779  11.493  1.4363  0.0115  0.0165
60731SOL     OW88155   6.822   2.930  11.054  0.0028  0.2428  0.1612
60731SOL    HW188156   6.792   2.944  10.964 -0.4155 -0.6753  0.1479
60731SOL    HW288157   6.750   2.962  11.108  0.8126  2.0838  0.2190
60732SOL     OW88158   4.341   7.549   0.779 -0.2047 -0.1501  0.0060
60732SOL    HW188159   4.280   7.501   0.722  1.3937 -2.7563  0.3342
60732SOL    HW288160   4.426   7.538   0.737  0.2061  3.2005 -0.2951
60733SOL     OW88161   1.970  11.708  10.529 -0.9238 -0.0807 -0.5982
60733SOL    HW188162   2.000  11.679  10.616 -0.2459  3.3544  0.4669
60733SOL    HW288163   1.943  11.799  10.543  0.7354  1.1370 -4.3323
60734SOL     OW88164  11.561   7.606   1.674 -0.5647 -0.1463 -0.1346
60734SOL    HW188165  11.599   7.568   1.594 -0.6977 -0.7768  0.0911
60734SOL    HW288166  11.551   7.531   1.733  0.2370  0.4346  0.7607
60735SOL     OW88167   4.439   9.187   7.706 -0.7010 -0.0844 -0.0751
60735SOL    HW188168   4.402   9.178   7.618  0.9994 -1.9335 -0.6875
60735SOL    HW288169   4.534   9.185   7.692 -0.3799  0.6555  1.7351
60736SOL     OW88170   7.997   5.607  12.395  0.4262  0.1836  0.3524
60736SOL    HW188171   7.994   5.686  12.449  1.0055 -0.8017  1.9000
60736SOL    HW288172   8.045   5.544  12.448  0.4097 -1.0661 -1.0546
60737SOL     OW88173  11.239   6.343   9.111 -0.5819  0.1984 -0.0238
60737SOL    HW188174  11.245   6.411   9.178 -0.8040 -0.1908  0.3990
60737SOL    HW288175  11.249   6.390   9.028 -2.2993  0.9868  0.1686
60738SOL     OW88176   8.769   5.816   9.169  0.6056  0.0717 -0.5671
60738SOL    HW188177   8.834   5.885   9.152 -0.1013  0.6749 -0.8629
60738SOL    HW288178   8.747   5.781   9.083  1.9732 -1.4986 -0.3223
60739SOL     OW88179   6.508   3.374  10.557  0.5427  0.2537  0.6305
60739SOL    HW188180   6.421   3.402  10.531  0.2228 -1.1555  0.0798
60739SOL    HW288181   6.526   3.422  10.638 -0.7517  0.5316  0.7713
60740SOL     OW88182   7.439   0.914   7.750 -0.7680 -0.5439 -0.2232
60740SOL    HW188183   7.394   0.994   7.723 -0.6560 -0.0212  1.0383
60740SOL    HW288184   7.396   0.889   7.832  0.5409 -0.6078  0.4688
60741SOL     OW88185   7.949   3.320   9.786 -0.0265 -0.1694  0.4842
60741SOL    HW188186   7.859   3.292   9.800  0.0772 -1.2957 -0.8696
60741SOL    HW288187   7.985   3.256   9.724  1.6256  0.4066  0.7889
60742SOL     OW88188   4.276   6.621   9.621  0.0058  0.3310 -0.1508
60742SOL    HW188189   4.344   6.678   9.585  0.2831  0.4728  0.5808
60742SOL    HW288190   4.279   6.543   9.566 -0.9327  1.3066 -1.7029
60743SOL     OW88191   7.492   6.090   1.091 -0.2214  0.0544 -0.7703
60743SOL    HW188192   7.450   6.156   1.145  1.3208  0.0964  0.4333
60743SOL    HW288193   7.487   6.010   1.143  1.8454  0.2332 -0.2281
60744SOL     OW88194   7.411   9.295   1.247 -0.7901 -0.7940  0.5500
60744SOL    HW188195   7.395   9.200   1.247 -3.1861 -0.4608 -0.3757
60744SOL    HW288196   7.328   9.333   1.219 -0.5224  1.7362  2.8090
60745SOL     OW88197  12.223   4.664   2.552  0.0192  0.3319 -0.1616
60745SOL    HW188198  12.262   4.714   2.481 -0.4198 -0.5958 -1.0798
60745SOL    HW288199  12.286   4.595   2.570 -1.0365 -1.0539 -1.5160
60746SOL     OW88200   7.679   9.800   8.157  0.3149 -1.1676 -0.7052
60746SOL    HW188201   7.752   9.744   8.129  0.3051 -0.8889 -1.3186
60746SOL    HW288202   7.685   9.802   8.252  1.1394 -1.1172 -0.7483
60747SOL     OW88203  10.546   0.735   0.030  0.0222 -1.2518  0.0313
60747SOL    HW188204  10.629   0.747  -0.015  0.3163 -1.8033  0.4197
60747SOL    HW288205  10.545   0.801   0.099 -0.2727 -0.6389 -0.5480
60748SOL     OW88206   4.996   6.768   2.550  0.4286  0.2657 -0.1986
60748SOL    HW188207   5.037   6.762   2.463  1.0454 -0.5059  0.1401
60748SOL    HW288208   4.999   6.862   2.571  3.0736  0.1362  0.3069
60749SOL     OW88209   7.786  11.805   2.286 -0.0154  0.1765  0.2653
60749SOL    HW188210   7.723  11.747   2.329 -1.5782  0.0989 -1.9398
60749SOL    HW288211   7.820  11.753   2.213  2.8243  0.1720  1.4555
60750SOL     OW88212   7.078  10.841   9.716  0.0762 -0.3775  0.4288
60750SOL    HW188213   7.028  10.914   9.752 -0.8205 -0.4067 -0.7133
60750SOL    HW288214   7.031  10.816   9.636  0.9849 -1.4905  0.2108
60751SOL     OW88215   3.125  12.455  11.653 -0.2945  0.1351  0.4450
60751SOL    HW188216   3.198  12.451  11.591 -0.2856 -0.8576  0.5174
60751SOL    HW288217   3.093  12.366  11.659 -0.7215  0.3411  1.3731
60752SOL     OW88218   9.012  10.183   9.244  0.1667  0.1284  0.4622
60752SOL    HW188219   9.020  10.134   9.326  2.1602 -0.4506 -0.0290
60752SOL    HW288220   9.066  10.261   9.257  0.2467  0.1856 -0.1964
60753SOL     OW88221   4.802   3.088   0.490 -0.5036  0.3184 -0.3865
60753SOL    HW188222   4.834   3.083   0.580 -0.7591 -0.5449 -0.3339
60753SOL    HW288223   4.739   3.017   0.483 -0.5544  0.4350 -1.2262
60754SOL     OW88224  11.675   0.770   3.466 -0.1209  0.0843 -0.1651
60754SOL    HW188225  11.690   0.707   3.537  0.1877 -0.0278 -0.3264
60754SOL    HW288226  11.631   0.844   3.508 -1.1209 -0.5270 -0.0999
60755SOL     OW88227  11.727  10.189   6.864  0.3644 -0.6158 -0.1835
60755SOL    HW188228  11.794  10.180   6.931 -0.2838  0.5367  0.6579
60755SOL    HW288229  11.775  10.190   6.781  1.3570 -0.1322  0.3822
60756SOL     OW88230   7.096   7.593   4.877  0.7253  0.5410 -0.6201
60756SOL    HW188231   7.178   7.632   4.907  0.7261  1.7687 -2.0739
60756SOL    HW288232   7.116   7.558   4.790 -0.5263  1.9049 -1.5143
60757SOL     OW88233  11.940   3.261  10.580 -0.4158  0.3819  0.6739
60757SOL    HW188234  11.945   3.256  10.484 -0.7192 -0.9458  0.7095
60757SOL    HW288235  11.868   3.202  10.603  1.3249 -1.3748  1.8944
60758SOL     OW88236   0.024   6.735   0.783 -0.2053  0.0440 -0.1626
60758SOL    HW188237   0.050   6.806   0.843 -0.8697 -1.0911  1.5651
60758SOL    HW288238  -0.030   6.778   0.717  0.4237  1.3278  0.1042
60759SOL     OW88239   5.773   3.197   3.109 -0.0463 -0.4892 -0.3480
60759SOL    HW188240   5.697   3.255   3.121 -0.0242 -0.6997  0.9011
60759SOL    HW288241   5.836   3.226   3.174  1.0010 -0.2803 -1.4219
60760SOL     OW88242  11.007   4.698   4.281  0.7070 -0.2242 -0.3511
60760SOL    HW188243  11.102   4.691   4.270  0.5117 -2.4584 -1.3241
60760SOL    HW288244  10.976   4.733   4.198  0.7276  1.4934  0.3384
60761SOL     OW88245   2.308   8.375  10.301 -0.6417 -0.0840 -0.0938
60761SOL    HW188246   2.308   8.351  10.208 -1.8399 -0.0497 -0.1140
60761SOL    HW288247   2.359   8.306  10.343  0.4177  0.2068 -0.8347
60762SOL     OW88248   2.799  11.740   3.799 -0.2511  0.3781 -0.5162
60762SOL    HW188249   2.783  11.832   3.822 -1.8484  0.3777 -1.4524
60762SOL    HW288250   2.778  11.692   3.879 -2.6233  0.6216 -0.9153
60763SOL     OW88251   0.826  10.780   0.178  0.3084  0.0476 -0.7238
60763SOL    HW188252   0.856  10.747   0.263  1.1715  2.7177  0.1280
60763SOL    HW288253   0.758  10.719   0.151  1.7498 -2.3266  0.6345
60764SOL     OW88254  12.156  11.193   7.435  0.4408  0.2067  0.0382
60764SOL    HW188255  12.067  11.210   7.464  0.4428  0.4574 -0.0990
60764SOL    HW288256  12.146  11.139   7.356  0.3918  0.6854 -0.2881
60765SOL     OW88257   5.961   5.841   4.173 -0.2591 -0.1027  0.0762
60765SOL    HW188258   5.998   5.837   4.085  0.8134 -0.4461  0.5332
60765SOL    HW288259   6.028   5.803   4.229 -1.3458 -0.8436  0.9195
60766SOL     OW88260   0.316  10.705   4.023  0.6155 -0.0109 -0.1345
60766SOL    HW188261   0.335  10.622   3.977 -1.7738 -0.1415 -1.0448
60766SOL    HW288262   0.281  10.678   4.108 -1.2505 -0.0544 -0.8634
60767SOL     OW88263   7.852   9.877   1.426 -0.0499 -0.6450 -0.5136
60767SOL    HW188264   7.810   9.945   1.373  0.4120 -1.2533 -1.7196
60767SOL    HW288265   7.787   9.855   1.492 -0.9621 -0.3608 -1.2818
60768SOL     OW88266   9.415   3.498   3.286 -0.1517  0.1642  0.3878
60768SOL    HW188267   9.417   3.594   3.290 -0.7256  0.1589  0.9729
60768SOL    HW288268   9.322   3.476   3.289 -0.1694 -0.3420 -2.0405
60769SOL     OW88269   5.310  11.815  11.575 -0.0075  0.5236  0.2509
60769SOL    HW188270   5.393  11.848  11.611  0.3354 -0.5377  0.4781
60769SOL    HW288271   5.305  11.855  11.488  0.8450  0.4631  0.1584
60770SOL     OW88272   6.399   7.028   5.166  0.0929  0.3540 -0.4753
60770SOL    HW188273   6.463   6.972   5.121 -1.2215 -1.4525 -0.1975
60770SOL    HW288274   6.340   7.057   5.097 -1.6931 -2.1010 -0.1019
60771SOL     OW88275  10.792   5.162  10.774  0.5602 -0.1446  0.1935
60771SOL    HW188276  10.807   5.178  10.681  0.0635 -0.3665  0.0733
60771SOL    HW288277  10.697   5.157  10.783  0.4963  1.5711  0.9966
60772SOL     OW88278   9.104   2.042  12.074  0.8464 -0.0183 -0.0882
60772SOL    HW188279   9.074   2.047  12.165  2.0331 -0.8620  0.3793
60772SOL    HW288280   9.040   2.093  12.025 -0.1926 -0.0898  1.1268
60773SOL     OW88281   2.239   7.901   8.446 -0.3334 -0.2442  0.0237
60773SOL    HW188282   2.190   7.881   8.526 -0.9464  0.5175 -0.1509
60773SOL    HW288283   2.244   7.996   8.444  0.9572 -0.2955 -0.0918
60774SOL     OW88284  10.759  11.987   4.474 -0.1897  0.1547  0.4905
60774SOL    HW188285  10.837  11.942   4.441 -1.2922 -0.4133 -1.5050
60774SOL    HW288286  10.685  11.933   4.444 -1.4945  2.4415 -0.6178
60775SOL     OW88287   7.613   8.004   6.726 -0.2539  0.3903  0.3140
60775SOL    HW188288   7.554   8.071   6.692  0.8966  1.6077  0.6465
60775SOL    HW288289   7.683   7.998   6.660  1.2343  1.7291  1.6736
60776SOL     OW88290  11.795   7.555  10.024  0.2260  0.7604  0.1896
60776SOL    HW188291  11.806   7.588  10.113  1.0612 -0.6807  0.6557
60776SOL    HW288292  11.721   7.495  10.030 -1.0435  2.1754 -0.5665
60777SOL     OW88293   0.737   4.627   8.248  0.1885  0.0846  0.1662
60777SOL    HW188294   0.695   4.558   8.300  0.1828 -0.2005 -0.2111
60777SOL    HW288295   0.826   4.596   8.236  0.4033  0.5038  0.6299
60778SOL     OW88296  11.502   2.593   8.729  0.4707 -0.3181  0.1124
60778SOL    HW188297  11.454   2.510   8.733  0.3324 -0.3032 -0.9353
60778SOL    HW288298  11.578   2.574   8.673  1.2627 -0.1226  1.0838
60779SOL     OW88299   1.397  11.512  10.113 -0.0008  0.3045  0.1714
60779SOL    HW188300   1.381  11.588  10.056  0.5659  1.1614  1.1048
60779SOL    HW288301   1.313  11.495  10.155  0.5248  2.4157  2.2697
60780SOL     OW88302   8.313  11.792   2.937 -0.1515 -0.1957 -0.7707
60780SOL    HW188303   8.320  11.698   2.953  0.1405  0.3030  2.6510
60780SOL    HW288304   8.220  11.806   2.917 -1.1319 -0.8171  2.7347
60781SOL     OW88305   4.482  11.390   0.057  0.2259  0.5114 -0.3624
60781SOL    HW188306   4.548  11.375  -0.012 -1.0581  2.9969 -2.3237
60781SOL    HW288307   4.531  11.429   0.129  1.3814 -0.8120 -0.3843
60782SOL     OW88308   0.192   4.327  11.301 -0.5618  0.8967  0.1442
60782SOL    HW188309   0.189   4.235  11.328  1.9589 -0.0158 -2.1978
60782SOL    HW288310   0.183   4.376  11.383 -0.3667 -1.4630  1.6759
60783SOL     OW88311   3.822   6.083  10.477 -0.2322 -0.0694  0.1834
60783SOL    HW188312   3.869   6.076  10.560 -3.8056 -2.0878  2.2851
60783SOL    HW288313   3.783   5.997  10.465 -3.1194  1.3288 -1.4520
60784SOL     OW88314   3.595   5.123  12.164 -0.2729 -0.1214  0.0514
60784SOL    HW188315   3.604   5.034  12.199 -2.4757 -0.1862  0.5855
60784SOL    HW288316   3.624   5.180  12.236 -2.8743 -0.3259  1.3650
60785SOL     OW88317  11.930   3.490   1.080  0.2869  0.1363  0.2455
60785SOL    HW188318  11.916   3.441   1.161  0.9127 -0.7612 -0.1683
60785SOL    HW288319  12.013   3.536   1.094  0.4470 -0.0988  0.0897
60786SOL     OW88320   9.645   4.747   3.512 -0.1861 -0.3850  0.2531
60786SOL    HW188321   9.725   4.705   3.543  1.4554  1.5568 -1.1074
60786SOL    HW288322   9.623   4.699   3.432  1.9299  1.4109 -1.5392
60787SOL     OW88323   3.000   1.835   2.217  0.2555  0.2679  0.1935
60787SOL    HW188324   3.005   1.749   2.257 -0.8914 -0.0991 -0.4081
60787SOL    HW288325   2.989   1.895   2.290 -1.8437 -0.3985  0.4876
60788SOL     OW88326  11.929  11.888   3.974  0.2313 -0.2271  0.1346
60788SOL    HW188327  11.977  11.963   4.010  1.9299 -1.5679  0.8119
60788SOL    HW288328  11.873  11.926   3.907  0.4433  1.7444  0.9876
60789SOL     OW88329  10.585   9.093   5.934  0.3474  0.5545  0.0125
60789SOL    HW188330  10.643   9.078   6.009 -0.1268  0.3971  0.3543
60789SOL    HW288331  10.556   9.183   5.944 -0.0623  0.3982  0.2686
60790SOL     OW88332  12.178  11.781   4.084 -0.1354 -0.0765 -0.2438
60790SOL    HW188333  12.196  11.687   4.080  0.7001  0.1173 -2.7063
60790SOL    HW288334  12.106  11.794   4.023 -0.6142  0.8282  0.4943
60791SOL     OW88335   1.320  10.073   3.632 -0.2097 -0.0830 -1.0649
60791SOL    HW188336   1.307   9.997   3.688  1.7661  0.1263 -0.2522
60791SOL    HW288337   1.320  10.037   3.543 -0.6491 -0.8109 -0.7828
60792SOL     OW88338  10.550   9.235   1.431  0.0775 -0.3242 -0.5339
60792SOL    HW188339  10.493   9.298   1.387 -1.4212 -1.1297  0.1794
60792SOL    HW288340  10.510   9.150   1.414  0.1139 -0.7692  1.3371
60793SOL     OW88341   7.038   4.405  11.502  0.0773 -0.4579  0.0532
60793SOL    HW188342   7.046   4.314  11.530  1.0725 -0.0113  1.3330
60793SOL    HW288343   6.953   4.433  11.533 -0.7353 -1.2428 -1.3423
60794SOL     OW88344  10.575   7.523   9.615 -0.0257  0.2826 -0.3024
60794SOL    HW188345  10.486   7.556   9.610 -0.5459 -0.7889  1.2557
60794SOL    HW288346  10.584   7.467   9.538 -0.7608  0.2419 -0.3602
60795SOL     OW88347  11.719   9.152   3.872  0.3668 -0.6184  0.2959
60795SOL    HW188348  11.674   9.088   3.927 -0.9252  0.3769  0.4371
60795SOL    HW288349  11.705   9.120   3.782 -1.2925  0.0451  0.2807
60796SOL     OW88350   3.391   7.597   6.642  0.2475  0.4518  0.3463
60796SOL    HW188351   3.402   7.661   6.713  1.2489  0.0620  0.5586
60796SOL    HW288352   3.405   7.648   6.562 -0.0152  0.7113  0.4622
60797SOL     OW88353   0.154   2.454   8.875  0.2590 -0.1040 -0.4483
60797SOL    HW188354   0.201   2.531   8.845 -0.1947 -0.0260 -0.9877
60797SOL    HW288355   0.137   2.470   8.968 -2.1563  1.7109 -1.0774
60798SOL     OW88356   2.002   7.932   7.640  0.4260  0.0996 -0.4769
60798SOL    HW188357   2.088   7.927   7.681  0.2289 -1.7303 -0.1819
60798SOL    HW288358   2.018   7.906   7.549  0.3132  0.6488 -0.6577
60799SOL     OW88359   5.421  11.516   4.142 -0.1448  0.6417  0.7198
60799SOL    HW188360   5.336  11.488   4.109  0.7371 -1.8670  0.2870
60799SOL    HW288361   5.484  11.464   4.091  1.5492  1.2287  2.1172
60800SOL     OW88362   6.568   2.167  11.937 -0.2628 -0.2397  0.3669
60800SOL    HW188363   6.532   2.103  11.998  0.4000  0.1862  1.2298
60800SOL    HW288364   6.586   2.117  11.857  0.5563 -1.2117  1.1295
60801SOL     OW88365   1.713   5.425   8.848 -0.1106 -0.1112 -0.2508
60801SOL    HW188366   1.651   5.383   8.907  0.2153 -0.8379 -0.4233
60801SOL    HW288367   1.769   5.477   8.906 -1.0416  0.7948 -0.1174
60802SOL     OW88368  11.451   2.611   2.232 -0.2676 -0.1897 -0.3491
60802SOL    HW188369  11.512   2.629   2.161 -0.1487  4.3923  0.6180
60802SOL    HW288370  11.504   2.618   2.312 -1.4252  0.8467  0.3695
60803SOL     OW88371   3.162   5.699   1.847 -0.0983 -0.1022 -0.5960
60803SOL    HW188372   3.138   5.690   1.939  0.0687 -1.1392 -0.6357
60803SOL    HW288373   3.159   5.609   1.813  0.4041  0.1968 -1.4579
60804SOL     OW88374  11.378   2.576   9.323 -0.1609 -0.0833 -0.1921
60804SOL    HW188375  11.474   2.579   9.313  0.3267  0.6056  3.4529
60804SOL    HW288376  11.346   2.641   9.261  1.8502  0.7956 -0.4005
60805SOL     OW88377   2.801   1.135  11.654 -0.4785  0.2579  0.1184
60805SOL    HW188378   2.721   1.176  11.619 -0.1531 -0.1534 -1.1616
60805SOL    HW288379   2.821   1.066  11.591  1.3467  0.8809 -0.0200
60806SOL     OW88380  11.670   2.000   0.815 -0.4976  0.4369  0.3295
60806SOL    HW188381  11.683   1.998   0.720 -1.8777  1.6596  0.0757
60806SOL    HW288382  11.719   2.076   0.844 -0.5654  0.4140  0.5038
60807SOL     OW88383   6.207  10.113  12.209 -0.0742 -0.6094  0.1556
60807SOL    HW188384   6.147  10.053  12.165 -0.0294  1.1629 -2.5884
60807SOL    HW288385   6.293  10.072  12.200 -0.3555 -1.3010  0.5773
60808SOL     OW88386   0.713  11.447   2.572 -0.1276 -0.6823  0.2138
60808SOL    HW188387   0.778  11.385   2.540  0.8318  0.6933 -0.6148
60808SOL    HW288388   0.743  11.469   2.661  0.2582 -0.4300  0.0214
60809SOL     OW88389   9.017  12.279   6.390 -0.2545 -0.0097  0.0974
60809SOL    HW188390   8.957  12.205   6.384 -0.9665  0.4757  0.9059
60809SOL    HW288391   9.102  12.244   6.365 -0.0478 -1.7628  2.8337
60810SOL     OW88392   4.109  11.846  10.749  0.3818 -0.4698 -0.5304
60810SOL    HW188393   4.103  11.811  10.660  1.0000 -0.1074 -0.7212
60810SOL    HW288394   4.199  11.877  10.757  0.0593  0.3887 -0.1117
60811SOL     OW88395   5.508  11.551   1.152 -0.5778 -0.4763  0.1347
60811SOL    HW188396   5.584  11.608   1.162 -0.9732  0.0132  0.3506
60811SOL    HW288397   5.546  11.464   1.140  0.0332 -0.1500 -0.3901
60812SOL     OW88398  10.906  11.459   1.458  0.1464 -0.3004  0.0003
60812SOL    HW188399  10.870  11.537   1.499 -1.9183 -1.1212 -0.1505
60812SOL    HW288400  10.962  11.492   1.387  0.5456  1.0265  0.9005
60813SOL     OW88401   3.947   3.988   8.202 -0.3942  0.3422  1.0460
60813SOL    HW188402   3.942   4.015   8.111  0.2507 -1.4632  0.4269
60813SOL    HW288403   3.856   3.985   8.231 -0.7600 -0.8367 -0.1213
60814SOL     OW88404  11.650   0.678   1.650  0.3544  0.2206  0.0344
60814SOL    HW188405  11.739   0.646   1.664 -0.4603 -1.7948  1.0938
60814SOL    HW288406  11.646   0.761   1.696  1.6010  0.2077  0.2021
60815SOL     OW88407   6.887   5.439   6.109  0.6519  0.4483  0.1412
60815SOL    HW188408   6.940   5.378   6.160 -0.2438  0.2597  0.8906
60815SOL    HW288409   6.854   5.388   6.035  1.8803  0.6941 -0.5921
60816SOL     OW88410  11.273   8.105  11.108 -0.1698  0.1691  0.0908
60816SOL    HW188411  11.364   8.091  11.135 -0.9435 -2.9966  1.4816
60816SOL    HW288412  11.233   8.151  11.183 -0.2841 -0.8195  0.6571
60817SOL     OW88413  11.725   5.231   1.213  0.0898 -0.0742 -0.4623
60817SOL    HW188414  11.640   5.221   1.170 -0.5837  0.1134  0.7865
60817SOL    HW288415  11.773   5.153   1.187 -2.0479 -2.5562  2.2657
60818SOL     OW88416   0.512  11.104   2.535  0.2875  0.9137 -0.2098
60818SOL    HW188417   0.495  11.196   2.559 -0.1634  0.6900  0.3386
60818SOL    HW288418   0.425  11.065   2.529  0.5388 -0.0829  1.9318
60819SOL     OW88419   0.554   1.849   6.934  0.5077  0.3781 -0.6273
60819SOL    HW188420   0.565   1.879   6.844 -2.2755 -0.1125 -1.2308
60819SOL    HW288421   0.513   1.922   6.979 -1.2764 -0.5255 -0.7002
60820SOL     OW88422   7.636  12.120   3.091  0.4569  0.1034  0.2700
60820SOL    HW188423   7.610  12.096   3.003 -0.3585  1.5492  0.0961
60820SOL    HW288424   7.625  12.039   3.142  1.3052 -0.8448 -0.9975
60821SOL     OW88425  12.097   5.125  10.641 -0.3090  0.3494  0.6139
60821SOL    HW188426  12.112   5.164  10.727  0.5157 -1.3058  1.2651
60821SOL    HW288427  12.179   5.080  10.621 -1.5708 -2.0190  0.4608
60822SOL     OW88428  10.379  12.257   5.943 -0.1970 -0.0996  0.3878
60822SOL    HW188429  10.398  12.176   5.990  1.2737 -0.5877 -0.9405
60822SOL    HW288430  10.367  12.230   5.852 -0.5321  1.0840  0.0530
60823SOL     OW88431   6.223   8.011   9.427  0.5191  0.0952  0.2604
60823SOL    HW188432   6.188   8.096   9.455  1.1311 -0.0577  1.5590
60823SOL    HW288433   6.268   7.978   9.504 -3.2740 -3.3578  1.3687
60824SOL     OW88434   6.099   6.719   9.753  0.5084 -0.2954 -0.4169
60824SOL    HW188435   6.183   6.680   9.777  0.4217 -0.1345  0.1857
60824SOL    HW288436   6.070   6.669   9.677  0.4219 -1.3957  0.3081
60825SOL     OW88437   9.516   4.606   2.050  0.3188 -0.4411  0.9299
60825SOL    HW188438   9.469   4.523   2.053 -1.6099  0.5358 -0.1960
60825SOL    HW288439   9.494   4.649   2.132  1.4387 -1.0737  1.5802
60826SOL     OW88440  11.197   1.823   5.251 -0.1035 -0.1306  0.3798
60826SOL    HW188441  11.112   1.851   5.287  1.6749  1.1189  4.1384
60826SOL    HW288442  11.236   1.903   5.217  0.3649 -0.2826  0.5473
60827SOL     OW88443   8.778   2.346   8.785 -0.0718 -0.7156 -0.3040
60827SOL    HW188444   8.782   2.366   8.692 -1.0704  1.1571  0.0001
60827SOL    HW288445   8.713   2.276   8.792 -1.9877  0.8965 -0.8475
60828SOL     OW88446   6.574   6.492   0.083  0.8329 -0.2841  0.8146
60828SOL    HW188447   6.560   6.410   0.035  0.0457  0.3291 -0.0320
60828SOL    HW288448   6.625   6.546   0.023 -0.9550  0.8399  0.2465
60829SOL     OW88449   3.215  12.014   6.585 -0.1302 -0.5987  0.0687
60829SOL    HW188450   3.181  12.083   6.641 -0.0678 -1.0940  0.7386
60829SOL    HW288451   3.245  11.946   6.646  2.3966 -0.0510 -0.4332
60830SOL     OW88452   4.766  11.993   8.131 -0.0373 -0.3614 -0.3568
60830SOL    HW188453   4.764  11.901   8.104  0.7747  0.0223 -1.8610
60830SOL    HW288454   4.839  11.999   8.192 -0.2187 -0.7459 -0.0997
60831SOL     OW88455   4.512   2.555   7.297  0.3677  0.5925 -0.2695
60831SOL    HW188456   4.549   2.467   7.301 -0.0688  0.4130 -0.0456
60831SOL    HW288457   4.587   2.613   7.307  0.5090  0.2309  0.8804
60832SOL     OW88458  12.243   6.711   6.702  0.8489 -0.4887  0.3914
60832SOL    HW188459  12.301   6.696   6.777  0.6863 -0.1916  0.5794
60832SOL    HW288460  12.155   6.713   6.739  0.8573  1.0678  0.4282
60833SOL     OW88461   8.967  10.234   8.359  0.2232 -0.2720 -0.4554
60833SOL    HW188462   8.970  10.301   8.290  2.3894 -0.6164 -0.7550
60833SOL    HW288463   8.878  10.241   8.395 -0.6373  0.6032 -2.5893
60834SOL     OW88464   0.461   7.080   9.124 -0.0896  0.3151 -0.4964
60834SOL    HW188465   0.475   7.032   9.206 -0.3439 -0.9121 -1.1571
60834SOL    HW288466   0.530   7.049   9.066 -1.0514 -0.2649 -1.3611
60835SOL     OW88467   5.937   4.981  10.322 -0.5158 -0.2643 -0.0445
60835SOL    HW188468   5.929   5.066  10.366 -0.1409  0.1534 -0.7685
60835SOL    HW288469   6.014   4.941  10.362 -0.4616 -0.0944  0.0212
60836SOL     OW88470  10.654   7.199   9.599 -0.7576 -0.2882 -0.4668
60836SOL    HW188471  10.569   7.244   9.593 -1.5258 -1.4998  0.8333
60836SOL    HW288472  10.643   7.122   9.543 -0.3344 -0.2074 -0.6630
60837SOL     OW88473   8.777   1.301   4.516 -0.3960  0.6942 -0.1059
60837SOL    HW188474   8.781   1.345   4.601 -0.1104  1.1140 -0.3296
60837SOL    HW288475   8.757   1.371   4.454 -1.4155  0.2494 -0.2856
60838SOL     OW88476   4.287   2.656   4.937 -0.3958 -0.4044  0.2063
60838SOL    HW188477   4.285   2.708   4.856  0.2446 -0.4485  0.1561
60838SOL    HW288478   4.196   2.657   4.968 -0.6215 -0.2572 -0.4294
60839SOL     OW88479   9.709   0.211   6.505  0.4679  0.0850 -0.3849
60839SOL    HW188480   9.726   0.223   6.598  2.1814 -0.9781 -0.5014
60839SOL    HW288481   9.692   0.299   6.472  0.2125  0.5221  0.8664
60840SOL     OW88482   5.849  11.910   7.061  0.0100  0.6564 -0.7320
60840SOL    HW188483   5.904  11.833   7.044  0.3821  0.7857 -0.1386
60840SOL    HW288484   5.778  11.903   6.996 -2.0451 -2.1506  1.5424
60841SOL     OW88485   6.570  11.217   5.720 -0.1509 -0.3568 -0.1079
60841SOL    HW188486   6.626  11.281   5.674  0.2050  0.4820  1.4125
60841SOL    HW288487   6.506  11.271   5.766  0.2720 -1.0475  1.3631
60842SOL     OW88488   0.871  11.346  12.350  0.0383  0.3211 -0.1582
60842SOL    HW188489   0.932  11.288  12.396 -0.7023 -0.0112  0.4371
60842SOL    HW288490   0.920  11.427  12.335  0.7689 -0.1058 -0.1209
60843SOL     OW88491  11.145   2.259   7.985 -0.0826  0.2215 -0.0429
60843SOL    HW188492  11.166   2.167   7.969 -2.1346 -0.1482 -0.9336
60843SOL    HW288493  11.101   2.260   8.070 -2.2191 -0.0543 -1.0750
60844SOL     OW88494   0.355   7.737   7.927 -0.0119  0.0818 -0.1806
60844SOL    HW188495   0.446   7.754   7.902 -0.2035 -0.0187 -0.9806
60844SOL    HW288496   0.352   7.753   8.021  0.6056  1.0475 -0.3170
60845SOL     OW88497   3.563   1.000  10.632  0.2000 -0.1232 -0.1419
60845SOL    HW188498   3.564   1.006  10.727  1.6708 -0.8675 -0.0776
60845SOL    HW288499   3.568   1.090  10.601  0.5833  0.0843  0.5118
60846SOL     OW88500   7.907   5.570  11.450  0.1000  0.5146 -0.1691
60846SOL    HW188501   7.863   5.582  11.365  0.0691  1.4278 -0.0326
60846SOL    HW288502   7.973   5.503  11.433  0.4223  1.0396 -1.0363
60847SOL     OW88503   3.879  11.835   0.130  0.0784  0.1110  0.1452
60847SOL    HW188504   3.790  11.849   0.097  0.9622  0.8316 -2.1582
60847SOL    HW288505   3.875  11.862   0.221 -1.4998  2.8163 -0.5988
60848SOL     OW88506   2.295   4.103  10.377  0.3390  0.0195  0.0096
60848SOL    HW188507   2.332   4.016  10.395  1.9580  0.8994  1.1443
60848SOL    HW288508   2.239   4.121  10.453  1.4687  0.7120  0.7041
60849SOL     OW88509   0.629   2.579   5.938  0.5687 -0.3462 -0.0138
60849SOL    HW188510   0.543   2.573   5.898  0.4555  0.2449  0.1316
60849SOL    HW288511   0.612   2.579   6.032  0.4461  2.9254  0.0571
60850SOL     OW88512   5.308   2.815   2.033 -0.3413 -0.5627 -0.5705
60850SOL    HW188513   5.361   2.769   2.098 -0.1576 -0.5707 -0.7235
60850SOL    HW288514   5.330   2.907   2.045 -0.1423 -0.5826 -0.7638
60851SOL     OW88515   8.557   2.744   6.222 -0.0545 -0.2929  0.6731
60851SOL    HW188516   8.563   2.832   6.259 -1.5393 -0.4074  1.2666
60851SOL    HW288517   8.615   2.690   6.275  1.8319  0.5382 -0.4690
60852SOL     OW88518   1.754   0.770   5.460  0.0051  0.0984 -0.7988
60852SOL    HW188519   1.809   0.846   5.480 -0.7427  0.6148 -0.6361
60852SOL    HW288520   1.795   0.698   5.507 -0.0544  0.6930  0.2169
60853SOL     OW88521   0.830   9.482   8.946  0.1630  0.1419 -0.0327
60853SOL    HW188522   0.855   9.558   8.894 -1.4902  0.8285  0.1122
60853SOL    HW288523   0.795   9.519   9.027  0.6165 -0.8341  0.6235
60854SOL     OW88524  10.335  12.093   5.744 -0.5434 -0.2550 -0.6468
60854SOL    HW188525  10.283  12.052   5.675 -2.6368 -1.4327  1.4843
60854SOL    HW288526  10.370  12.020   5.796 -2.2983  0.4784  1.7732
60855SOL     OW88527   6.640   7.802   3.441 -0.5863  0.2942  0.5444
60855SOL    HW188528   6.569   7.760   3.393  1.5280 -4.0264  0.6823
60855SOL    HW288529   6.678   7.864   3.378 -0.8260 -1.7199 -1.7325
60856SOL     OW88530   8.375   7.269   3.706 -0.4416 -0.3751  0.4901
60856SOL    HW188531   8.389   7.340   3.644 -1.7419 -1.2474 -0.8960
60856SOL    HW288532   8.428   7.291   3.782  0.5135  1.1857 -0.5909
60857SOL     OW88533   2.619   1.656   3.084  0.2087 -0.4173  0.5479
60857SOL    HW188534   2.568   1.673   3.005  0.3882 -0.2851  0.4576
60857SOL    HW288535   2.707   1.636   3.051 -0.0142 -1.6315  0.6398
60858SOL     OW88536   5.890   8.395   6.395  0.1672 -0.0898 -0.5655
60858SOL    HW188537   5.867   8.404   6.487  0.2854 -0.8636 -0.4558
60858SOL    HW288538   5.958   8.461   6.380  1.5035 -1.2108  0.3743
60859SOL     OW88539   0.702   1.459  12.404  0.0513 -0.2196 -0.0557
60859SOL    HW188540   0.709   1.466  12.309  2.0202 -0.5770  0.0146
60859SOL    HW288541   0.791   1.476  12.436 -0.3923 -0.9159  1.6675
60860SOL     OW88542  11.062  12.138   9.625 -0.0294  0.3463 -0.3531
60860SOL    HW188543  11.061  12.096   9.539 -1.3200 -1.0377  0.3132
60860SOL    HW288544  11.152  12.127   9.656  1.0996  2.7389 -2.3496
60861SOL     OW88545  12.436   6.864   6.594  0.1129 -0.2801 -0.5948
60861SOL    HW188546  12.430   6.946   6.546  0.7691  0.5986  0.7676
60861SOL    HW288547  12.345   6.834   6.602 -0.2812  1.0333  0.0839
60862SOL     OW88548   7.578   1.332  10.997  0.8611 -0.9557 -0.0928
60862SOL    HW188549   7.532   1.334  11.081 -1.7298  0.1192 -1.4259
60862SOL    HW288550   7.624   1.416  10.993  1.6052 -1.3215  0.5297
60863SOL     OW88551  10.844   6.315  12.144 -0.2476  0.6334 -0.2526
60863SOL    HW188552  10.790   6.261  12.202 -0.7028 -0.8758 -1.9701
60863SOL    HW288553  10.934   6.292  12.166 -0.3870  0.7590  0.4639
60864SOL     OW88554   5.792   4.294   7.883  0.2645 -0.2074 -0.6187
60864SOL    HW188555   5.801   4.366   7.820 -0.7636  0.0907 -0.4383
60864SOL    HW288556   5.700   4.270   7.879  0.5511 -1.3787 -0.5110
60865SOL     OW88557   3.886   4.667  12.401  0.1727  0.1535  0.1773
60865SOL    HW188558   3.845   4.632  12.480 -0.7449  0.2942 -0.2139
60865SOL    HW288559   3.890   4.762  12.416  1.8247  0.0036  0.8615
60866SOL     OW88560   1.014  10.694  11.043 -0.3903 -0.0515  0.3500
60866SOL    HW188561   1.095  10.645  11.054 -0.6948 -0.5595  0.3732
60866SOL    HW288562   1.039  10.771  10.993 -0.1273 -0.8799 -0.8433
60867SOL     OW88563  11.499  10.206   6.166 -0.0099 -0.4000  0.2546
60867SOL    HW188564  11.559  10.177   6.098 -0.7697 -1.3436 -0.0471
60867SOL    HW288565  11.434  10.136   6.172 -1.5738  0.9685 -0.0440
60868SOL     OW88566   4.701  11.239   3.788  0.4654 -0.6067 -0.1170
60868SOL    HW188567   4.733  11.190   3.712 -0.7481 -1.4226 -0.1443
60868SOL    HW288568   4.671  11.322   3.752  0.7227 -0.6343 -0.3960
60869SOL     OW88569   0.794   2.955   0.194 -0.6171  0.0539  0.1821
60869SOL    HW188570   0.803   2.988   0.284 -0.7229  2.6940 -0.6810
60869SOL    HW288571   0.884   2.942   0.164 -0.5923 -2.8080  1.2511
60870SOL     OW88572   7.528  11.026  10.751 -0.1349 -0.2362 -0.3526
60870SOL    HW188573   7.609  11.073  10.732 -0.2120 -0.1046 -0.3550
60870SOL    HW288574   7.469  11.092  10.787  0.7905 -0.8804  2.7123
60871SOL     OW88575   4.975   0.823   7.453 -0.4042 -0.4426  0.0352
60871SOL    HW188576   4.970   0.918   7.456  0.0964 -0.4056 -0.1321
60871SOL    HW288577   4.891   0.793   7.487  0.7074  0.0384  3.6779
60872SOL     OW88578   0.552   7.523   9.041 -0.1794 -0.0595  0.2260
60872SOL    HW188579   0.629   7.567   9.077 -0.7534  0.2868  1.0489
60872SOL    HW288580   0.515   7.585   8.979 -0.2394  0.0801  0.4034
60873SOL     OW88581  12.275   0.808   4.982 -0.1369  0.0549 -0.3852
60873SOL    HW188582  12.334   0.862   4.928  1.9640 -0.7201  1.0161
60873SOL    HW288583  12.294   0.835   5.072  0.6942 -2.6683  0.3353
60874SOL     OW88584   8.448  10.592   2.022  0.4624  0.2818  0.1032
60874SOL    HW188585   8.532  10.548   2.036  0.2342  0.1133  1.0408
60874SOL    HW288586   8.449  10.617   1.930  0.6757 -1.5230 -0.4214
60875SOL     OW88587   9.379   1.259  12.472 -0.1264  0.3210 -0.5161
60875SOL    HW188588   9.327   1.210  12.536 -0.6150 -0.2879 -1.3672
60875SOL    HW288589   9.332   1.342  12.462 -0.4875  0.0982 -0.6784
60876SOL     OW88590   7.531  10.655   5.268  0.6607 -0.8601 -0.3121
60876SOL    HW188591   7.509  10.643   5.176 -1.2482 -0.2871  0.0329
60876SOL    HW288592   7.583  10.735   5.270  2.0880 -1.7356 -1.0499
60877SOL     OW88593   5.369   0.719   7.530 -0.4295 -0.0693  0.3575
60877SOL    HW188594   5.292   0.669   7.557 -1.0667  0.9642  0.5408
60877SOL    HW288595   5.443   0.660   7.544 -1.2902 -1.5294 -1.0186
60878SOL     OW88596  10.434  10.345   5.711  1.0049  0.3184  0.2454
60878SOL    HW188597  10.449  10.429   5.667  0.4560  1.5993  2.3148
60878SOL    HW288598  10.344  10.352   5.744  1.0124 -1.0304  0.5934
60879SOL     OW88599   7.408   2.262   5.342 -0.1568  0.6721 -0.1419
60879SOL    HW188600   7.408   2.331   5.409  1.7555  0.2100  0.4097
60879SOL    HW288601   7.331   2.209   5.361 -0.0872  1.0181  1.1958
60880SOL     OW88602   8.882  10.976   4.311 -0.0756 -0.1457 -0.7881
60880SOL    HW188603   8.872  10.908   4.377  0.9809  0.7236  0.3281
60880SOL    HW288604   8.793  10.998   4.285 -0.5347 -0.3833  0.4990
60881SOL     OW88605   6.726   4.483   4.846 -0.2178 -0.0059 -0.1080
60881SOL    HW188606   6.773   4.563   4.869  0.2983 -0.6620  1.2502
60881SOL    HW288607   6.765   4.455   4.763  0.9496  0.1265  0.3736
60882SOL     OW88608  10.887   9.845   9.528 -0.0178 -0.2165 -0.3374
60882SOL    HW188609  10.873   9.940   9.526  0.8690 -0.0814 -1.2095
60882SOL    HW288610  10.981   9.835   9.510 -0.0311 -1.2452  0.1129
60883SOL     OW88611   4.081   9.467   3.785 -0.2236 -0.5018  0.3701
60883SOL    HW188612   4.174   9.452   3.764 -0.6090 -0.5774 -1.4649
60883SOL    HW288613   4.083   9.521   3.864  1.4895  1.9119 -1.1664
60884SOL     OW88614   1.217   5.318   7.728 -0.0027  0.1070  0.3416
60884SOL    HW188615   1.274   5.262   7.677 -0.1678  0.8733 -0.7320
60884SOL    HW288616   1.245   5.306   7.819  1.2543 -0.1974 -0.0750
60885SOL     OW88617   6.985   8.936   6.113 -0.0141 -0.3738  0.0208
60885SOL    HW188618   7.045   9.005   6.084 -0.6490  0.2317  0.1389
60885SOL    HW288619   7.006   8.924   6.206 -1.1318  0.9598  0.4774
60886SOL     OW88620   4.165   2.133   3.697  0.5759  0.3061 -0.2823
60886SOL    HW188621   4.071   2.153   3.700  0.3572 -0.5404 -0.9640
60886SOL    HW288622   4.181   2.078   3.774  0.4814  0.3190 -0.2536
60887SOL     OW88623  12.170  11.826   1.392 -0.0313 -0.5978 -0.1166
60887SOL    HW188624  12.236  11.770   1.352 -1.4026 -0.6740 -2.4133
60887SOL    HW288625  12.126  11.769   1.456 -0.1783 -1.6176 -1.0913
60888SOL     OW88626   6.689   2.472   6.057 -0.1345  0.1680  0.2066
60888SOL    HW188627   6.612   2.437   6.011  1.0605 -1.6547 -0.5196
60888SOL    HW288628   6.653   2.519   6.132 -2.0360  1.0056 -1.1463
60889SOL     OW88629  10.831  11.037   0.563 -0.3238 -0.2365  0.3784
60889SOL    HW188630  10.883  10.984   0.624  0.0233 -0.7006 -0.3042
60889SOL    HW288631  10.841  11.127   0.595 -2.3313 -0.6931  2.6097
60890SOL     OW88632   2.378   0.142  11.591 -0.1853 -0.2876  0.2564
60890SOL    HW188633   2.423   0.143  11.506 -1.0003 -0.2491 -0.1853
60890SOL    HW288634   2.357   0.050  11.605 -0.0291 -0.2965  0.4257
60891SOL     OW88635   6.081   3.054  11.780  0.2255  0.9644 -0.2983
60891SOL    HW188636   6.044   2.983  11.832  1.2302  1.6345  1.4250
60891SOL    HW288637   6.018   3.067  11.709 -1.3824  0.2202  0.9249
60892SOL     OW88638  12.011   4.666   1.558 -0.2200 -0.1264 -0.1608
60892SOL    HW188639  11.941   4.731   1.566 -0.3966 -0.1987 -1.0124
60892SOL    HW288640  12.079   4.697   1.618 -1.8509 -1.2582  2.4021
60893SOL     OW88641   1.562   5.490   3.868 -0.8244  0.1858  0.6110
60893SOL    HW188642   1.499   5.464   3.801 -1.5259  0.8754  0.9876
60893SOL    HW288643   1.565   5.586   3.862  1.0240  0.1254 -0.1448
60894SOL     OW88644   1.802   5.468   4.213 -0.5901 -0.0929  0.3374
60894SOL    HW188645   1.735   5.531   4.185 -2.1125 -0.9907  1.7922
60894SOL    HW288646   1.822   5.493   4.303  0.8132 -0.0684  0.0429
60895SOL     OW88647   7.722   5.450   0.782 -0.0056  0.1853 -0.2111
60895SOL    HW188648   7.809   5.478   0.809 -0.3022  2.7064 -1.5642
60895SOL    HW288649   7.734   5.416   0.693  0.0856 -2.9677  0.8516
60896SOL     OW88650   2.259   4.412   5.288 -0.3037 -0.5233 -0.2239
60896SOL    HW188651   2.307   4.418   5.206 -0.0424 -1.1782 -0.1208
60896SOL    HW288652   2.239   4.319   5.298 -0.8000 -0.3784  0.1880
60897SOL     OW88653  11.001   9.854  10.055 -0.1185 -0.0264 -0.1856
60897SOL    HW188654  11.034   9.770  10.021 -1.6857 -0.3117 -1.1130
60897SOL    HW288655  10.932   9.830  10.116  0.0798  0.5772  0.2803
60898SOL     OW88656   4.948   4.994   6.308  0.0861  0.3606  0.0390
60898SOL    HW188657   5.030   4.952   6.285  0.6267  1.5114 -0.1712
60898SOL    HW288658   4.881   4.946   6.259  0.8323  0.5523 -1.1858
60899SOL     OW88659   0.767   7.797   2.838  0.3449  0.2617 -0.5386
60899SOL    HW188660   0.812   7.791   2.753  0.2455  1.2946 -0.6762
60899SOL    HW288661   0.678   7.823   2.816  0.3582  0.6818 -0.1084
60900SOL     OW88662   8.749   5.111   0.126  0.3919 -0.0157 -0.4040
60900SOL    HW188663   8.786   5.023   0.136  0.4758  0.1149  0.5867
60900SOL    HW288664   8.769   5.154   0.209 -2.1219  0.0144  0.2699
60901SOL     OW88665   0.015   7.781   0.762 -0.8994 -0.1036 -0.2391
60901SOL    HW188666   0.096   7.733   0.777 -1.1212 -0.1889  0.7441
60901SOL    HW288667   0.019   7.855   0.822 -2.1223 -0.8088  0.7577
60902SOL     OW88668   1.558   6.412   4.192 -0.9753  0.1562  0.8395
60902SOL    HW188669   1.529   6.337   4.244  1.8845 -0.5153  1.6912
60902SOL    HW288670   1.549   6.487   4.250  1.6569 -0.5024  2.2783
60903SOL     OW88671   4.963   6.997   3.939  0.3286 -0.1852  0.0839
60903SOL    HW188672   5.056   6.977   3.953  0.4032 -0.2436 -0.4641
60903SOL    HW288673   4.958   7.022   3.847 -0.6887 -3.1895 -0.7882
60904SOL     OW88674   8.766   2.443  11.218  0.2097 -0.5141  0.0706
60904SOL    HW188675   8.861   2.456  11.214  0.1790 -0.3657 -0.2327
60904SOL    HW288676   8.755   2.359  11.263  0.4633 -0.2290  0.6795
60905SOL     OW88677  11.492   4.642  10.336  0.4074  0.3376  0.1709
60905SOL    HW188678  11.412   4.693  10.352  0.2394  0.1680 -0.1446
60905SOL    HW288679  11.558   4.708  10.315  0.4301  0.5040  0.7387
60906SOL     OW88680   4.784   9.188   6.550 -0.5874 -0.2074  0.0892
60906SOL    HW188681   4.727   9.112   6.542 -2.1128  0.9524 -0.6370
60906SOL    HW288682   4.728   9.263   6.526  0.8887  1.1260  0.6116
60907SOL     OW88683   3.697   7.876   2.406  0.3023  0.3370  0.2550
60907SOL    HW188684   3.669   7.820   2.333 -1.5519  1.1938  0.2610
60907SOL    HW288685   3.669   7.829   2.484  0.6241  0.3007  0.3511
60908SOL     OW88686   4.539  10.687   5.706 -0.5186  0.2426  0.1843
60908SOL    HW188687   4.507  10.672   5.617  0.8713  1.1074 -0.4793
60908SOL    HW288688   4.595  10.764   5.700  0.6387 -0.4372  1.5598
60909SOL     OW88689   5.243   4.639   1.107 -0.3486  0.5510  0.0678
60909SOL    HW188690   5.202   4.617   1.023 -1.0288  0.3529  0.4461
60909SOL    HW288691   5.176   4.689   1.154 -0.1626  0.2012  0.7099
60910SOL     OW88692   2.508   6.709   8.451  0.1310  0.4834 -0.3691
60910SOL    HW188693   2.526   6.742   8.539  1.2515 -1.0623  0.0127
60910SOL    HW288694   2.467   6.783   8.406 -0.0263  1.4580  1.2933
60911SOL     OW88695   2.334   7.466   0.003 -0.0890  0.2662  0.3413
60911SOL    HW188696   2.245   7.481  -0.029 -0.2964 -1.0078  0.2640
60911SOL    HW288697   2.374   7.410  -0.064  0.2405 -0.4873  1.1423
60912SOL     OW88698  11.785   0.857   8.602  0.1657 -0.2110 -0.0486
60912SOL    HW188699  11.844   0.783   8.616  0.7321  0.3530  0.6196
60912SOL    HW288700  11.842   0.933   8.596 -0.0996 -0.1352 -4.1551
60913SOL     OW88701   8.709   4.669  10.660  0.0108  0.2228  0.5168
60913SOL    HW188702   8.627   4.713  10.638 -0.2977 -0.7679 -0.3761
60913SOL    HW288703   8.690   4.576  10.650  1.5100  0.0147 -0.7369
60914SOL     OW88704   3.491   0.675  10.837  0.4504  0.3869 -0.3176
60914SOL    HW188705   3.507   0.755  10.888  0.8923 -0.3120  0.6603
60914SOL    HW288706   3.525   0.604  10.891 -1.4924 -0.6663 -0.4054
60915SOL     OW88707   8.158   5.449   7.137  0.3941  0.3312 -0.0157
60915SOL    HW188708   8.251   5.474   7.136  0.6360 -0.5398  0.1901
60915SOL    HW288709   8.125   5.482   7.220 -0.2046  3.0999 -1.2207
60916SOL     OW88710   2.516   4.871  11.510 -0.2647  0.6329 -0.6567
60916SOL    HW188711   2.451   4.849  11.444 -0.5516 -0.1879 -0.1236
60916SOL    HW288712   2.466   4.882  11.591  0.3134 -0.7664 -0.0735
60917SOL     OW88713  10.191   5.992   4.150 -0.4620 -0.7966 -0.4156
60917SOL    HW188714  10.131   6.010   4.223 -0.4894 -2.7907  0.1103
60917SOL    HW288715  10.181   6.067   4.092 -2.4038 -0.3868  0.3622
60918SOL     OW88716   5.043   4.423  11.533 -0.0947 -0.2185  0.5436
60918SOL    HW188717   5.096   4.352  11.497 -1.5416 -1.6124  1.0500
60918SOL    HW288718   5.107   4.490  11.558  1.2334 -0.9339 -0.8054
60919SOL     OW88719  10.609   2.255   4.666 -0.1687  0.5408 -0.0908
60919SOL    HW188720  10.598   2.160   4.659 -0.2814  0.4408  1.2308
60919SOL    HW288721  10.523   2.291   4.641  0.2021  0.3745 -1.6997
60920SOL     OW88722   8.096   0.481   3.813  0.4020  0.0622 -0.2412
60920SOL    HW188723   8.003   0.469   3.795  0.5094 -1.9397  0.3011
60920SOL    HW288724   8.133   0.510   3.730 -0.4110 -0.9952 -1.0029
60921SOL     OW88725  10.785  10.815   1.601 -0.3924  0.4736  0.0179
60921SOL    HW188726  10.692  10.794   1.602 -0.5529  1.1275 -0.7679
60921SOL    HW288727  10.825  10.745   1.549 -0.1841 -0.7465  1.7255
60922SOL     OW88728   0.209  11.772  12.427  0.3625  0.1430 -0.5135
60922SOL    HW188729   0.275  11.808  12.487  0.3079 -1.7264  0.7747
60922SOL    HW288730   0.215  11.677  12.440 -0.9465 -0.2093 -2.1564
60923SOL     OW88731   8.005  10.722  12.344  0.1563  0.1749 -0.1331
60923SOL    HW188732   7.910  10.734  12.342  0.0496 -0.2359  1.2605
60923SOL    HW288733   8.040  10.812  12.342 -0.4325  0.6187  3.3037
60924SOL     OW88734   9.270   2.460   7.478 -0.6867 -0.2393  0.2834
60924SOL    HW188735   9.328   2.385   7.468  1.2843  1.1037  1.0178
60924SOL    HW288736   9.287   2.492   7.567 -2.0611  0.6127  0.2744
60925SOL     OW88737   0.140   8.129   8.314  0.2788 -0.7929 -0.3182
60925SOL    HW188738   0.187   8.162   8.391  1.1270 -0.4945 -0.9375
60925SOL    HW288739   0.145   8.200   8.250 -2.4185 -0.1208  0.1028
60926SOL     OW88740  11.708   8.601  11.753  0.0220  0.0323  0.2870
60926SOL    HW188741  11.720   8.543  11.829 -1.3451  0.5131  0.9067
60926SOL    HW288742  11.688   8.542  11.681 -2.2212 -0.2904  1.0915
60927SOL     OW88743   9.809   7.429   1.532 -0.2773  0.5017 -0.3129
60927SOL    HW188744   9.809   7.523   1.514  0.0760  0.7131  0.7728
60927SOL    HW288745   9.872   7.393   1.469 -1.8293  0.7012 -2.0766
60928SOL     OW88746   1.650   5.059   0.700 -0.0679  0.1011  0.4613
60928SOL    HW188747   1.665   5.015   0.616  1.7011  1.3181  0.0849
60928SOL    HW288748   1.657   4.990   0.765 -2.5681 -1.0788 -0.3955
60929SOL     OW88749   9.116   9.947   2.166 -0.0639  0.0081  0.0816
60929SOL    HW188750   9.207   9.964   2.140 -0.0941  0.5482  0.3260
60929SOL    HW288751   9.112   9.974   2.257 -0.5962  0.4413 -0.0690
60930SOL     OW88752  11.010   0.791   3.545 -0.1791  0.4698  0.2702
60930SOL    HW188753  11.004   0.696   3.535  0.3704  0.4331  0.2475
60930SOL    HW288754  10.956   0.810   3.622 -1.4186  0.3192 -0.5338
60931SOL     OW88755   4.692   0.741   0.809  0.1666 -0.0839  0.0200
60931SOL    HW188756   4.697   0.652   0.773 -0.8420 -1.2071  2.4124
60931SOL    HW288757   4.624   0.784   0.758  0.0130 -1.0036 -0.5716
60932SOL     OW88758  11.338   1.935   8.629  0.0699  0.3142  0.1381
60932SOL    HW188759  11.262   1.927   8.572 -0.0286 -0.4460  0.3625
60932SOL    HW288760  11.337   1.855   8.681  1.6174 -0.2006 -0.5644
60933SOL     OW88761   5.869   6.404   0.980 -0.1311  0.7733 -0.1046
60933SOL    HW188762   5.934   6.471   1.002 -1.5059  1.8748  0.6879
60933SOL    HW288763   5.830   6.379   1.063 -2.2756  1.7587 -0.7627
60934SOL     OW88764   3.089   5.654   3.877 -0.1131 -0.2714 -0.1275
60934SOL    HW188765   3.000   5.620   3.866 -0.0799 -0.3149 -0.2611
60934SOL    HW288766   3.135   5.587   3.927 -0.6636  0.5591  1.5753
60935SOL     OW88767   0.663  10.070   4.381  0.2079  0.4535  0.3393
60935SOL    HW188768   0.584  10.114   4.350 -0.3331 -0.1536  0.8288
60935SOL    HW288769   0.726  10.141   4.396  0.2305  0.8225 -1.3800
60936SOL     OW88770   8.644   2.639  12.092 -0.5728  0.2421  0.0410
60936SOL    HW188771   8.613   2.689  12.016 -1.2621  0.9131  0.7364
60936SOL    HW288772   8.719   2.688  12.124  0.7266 -0.9111 -1.1262
60937SOL     OW88773   6.992   7.472   3.848 -0.9106 -0.1183 -0.7709
60937SOL    HW188774   7.060   7.479   3.914 -0.8425  1.1861 -0.9549
60937SOL    HW288775   6.956   7.384   3.860  1.5153 -1.2920 -1.3904
60938SOL     OW88776  11.157  11.957   5.350 -0.5365  0.3242  0.4999
60938SOL    HW188777  11.149  11.995   5.437 -0.7964  1.1397  0.1351
60938SOL    HW288778  11.161  11.863   5.364 -1.2836  0.4092  1.3496
60939SOL     OW88779   2.851   2.561   5.207 -0.3648 -0.1191 -0.5150
60939SOL    HW188780   2.786   2.586   5.142  0.3954  1.6200 -0.6698
60939SOL    HW288781   2.801   2.548   5.288 -0.8597  2.1930 -0.3774
60940SOL     OW88782   5.414   9.220   2.041 -0.1982 -0.8061  0.2567
60940SOL    HW188783   5.415   9.125   2.056  0.8992 -1.0792 -1.2614
60940SOL    HW288784   5.498   9.238   1.998 -0.9736  0.6121 -0.7379
60941SOL     OW88785   0.519   5.983   6.515  0.4131  0.2455  0.3076
60941SOL    HW188786   0.477   6.044   6.454  0.3069  0.0059  0.1391
60941SOL    HW288787   0.596   5.952   6.469  1.1985  1.2542  0.9076
60942SOL     OW88788   5.940  12.136   3.255 -0.5223  0.5387 -0.3722
60942SOL    HW188789   5.968  12.193   3.326  1.1178 -1.6552  0.8383
60942SOL    HW288790   5.984  12.172   3.177  0.6852  0.7918  0.3988
60943SOL     OW88791   5.952  11.134   3.437 -0.0447  0.5398 -0.4019
60943SOL    HW188792   6.021  11.137   3.502  0.1147 -1.9073 -0.3817
60943SOL    HW288793   5.901  11.214   3.452  1.6690  1.4722  0.7631
60944SOL     OW88794   4.940   2.011   0.031 -0.1013  0.1478 -0.2321
60944SOL    HW188795   4.888   2.010   0.111 -0.5226 -1.4396 -0.4914
60944SOL    HW288796   5.029   1.991   0.060 -0.1686  0.0394 -0.0996
60945SOL     OW88797   7.280   7.988  10.949  0.1547 -0.6676  0.2310
60945SOL    HW188798   7.319   7.901  10.941 -1.5879 -1.2913 -3.0722
60945SOL    HW288799   7.198   7.974  10.997  1.6109 -0.1032  3.0834
60946SOL     OW88800   8.105   2.860   0.608 -0.9183 -0.7388  0.3248
60946SOL    HW188801   8.080   2.915   0.682  1.7659  2.6285 -1.0214
60946SOL    HW288802   8.183   2.814   0.638 -1.0558 -1.0209  0.2541
60947SOL     OW88803   9.885   4.407  10.293  0.6223 -0.2500  0.1448
60947SOL    HW188804   9.951   4.342  10.317 -0.2443 -0.7354  1.3405
60947SOL    HW288805   9.813   4.356  10.255  0.1680  0.0479  0.5873
60948SOL     OW88806  12.039  12.451  11.075  0.2070 -0.5019  0.5726
60948SOL    HW188807  12.062  12.408  11.158 -0.8156 -3.3650 -0.4776
60948SOL    HW288808  12.065  12.542  11.086  1.2221 -1.0583  3.5734
60949SOL     OW88809   7.061   4.284   8.590 -0.3228 -0.2086 -0.1133
60949SOL    HW188810   7.013   4.358   8.553 -0.5230  0.5283  1.5419
60949SOL    HW288811   6.994   4.220   8.612 -0.7673  1.1421  2.9390
60950SOL     OW88812   5.206   3.326  11.217  0.0659 -0.0674 -0.3731
60950SOL    HW188813   5.197   3.281  11.302  0.9377 -0.7655 -0.6322
60950SOL    HW288814   5.301   3.331  11.203 -0.0510 -1.9442 -2.3180
60951SOL     OW88815  10.685   0.055  11.594  0.8810 -0.3838  0.1751
60951SOL    HW188816  10.725  -0.017  11.546 -2.2114 -0.7660 -2.1239
60951SOL    HW288817  10.600   0.021  11.622  0.7442  1.3211  2.0899
60952SOL     OW88818   6.314   0.722   0.383  0.2180  0.1352 -0.6340
60952SOL    HW188819   6.338   0.686   0.297  2.2206 -2.1705  0.7601
60952SOL    HW288820   6.396   0.724   0.432 -1.0914 -0.0976  1.7206
60953SOL     OW88821   4.383   6.022   2.380 -0.2007 -0.0007 -0.8161
60953SOL    HW188822   4.343   5.941   2.349  0.8390 -0.8400 -0.0582
60953SOL    HW288823   4.392   6.009   2.475  2.5300 -0.2361 -1.0311
60954SOL     OW88824   8.802   9.839   8.427  0.3761 -0.0715  0.5088
60954SOL    HW188825   8.875   9.901   8.430  0.0185  0.4013 -0.0860
60954SOL    HW288826   8.753   9.865   8.348  0.0156 -0.8827  0.4578
60955SOL     OW88827   6.260   9.460   0.416  0.2566 -0.3512 -0.3505
60955SOL    HW188828   6.223   9.470   0.504  1.0125  0.0144 -0.0687
60955SOL    HW288829   6.242   9.369   0.393 -0.4325 -0.2980 -0.0467
60956SOL     OW88830   3.118   1.967   5.589 -0.5270 -0.3495  0.4636
60956SOL    HW188831   3.023   1.968   5.578 -0.3266  0.8316 -1.6996
60956SOL    HW288832   3.132   1.953   5.683 -2.7709 -3.2722  0.4874
60957SOL     OW88833   6.049   3.667  10.408  0.2662 -0.4285 -0.5038
60957SOL    HW188834   6.045   3.747  10.355 -2.3617 -0.7306 -0.8641
60957SOL    HW288835   6.012   3.692  10.493  0.4273 -1.0013 -0.2588
60958SOL     OW88836  11.733   8.223   4.602 -0.1606  0.3364 -0.4706
60958SOL    HW188837  11.682   8.247   4.525 -0.4701 -2.1584 -1.1350
60958SOL    HW288838  11.669   8.185   4.662  0.0671  2.2779  1.1127
60959SOL     OW88839   0.150   7.152  10.939 -0.4368  0.0104 -0.9203
60959SOL    HW188840   0.059   7.146  10.968 -0.1272 -3.3045 -0.2441
60959SOL    HW288841   0.195   7.198  11.010 -1.5744  2.0703 -1.4507
60960SOL     OW88842   7.682  11.797   7.993 -0.2463  0.1986 -0.1882
60960SOL    HW188843   7.694  11.742   8.071 -0.5369  3.2718  2.2283
60960SOL    HW288844   7.767  11.837   7.979 -0.7072  1.2657 -0.0675
60961SOL     OW88845   7.648   0.468   5.202  0.4846  0.7171  0.6836
60961SOL    HW188846   7.709   0.509   5.140  0.3651  1.3939  1.0090
60961SOL    HW288847   7.696   0.465   5.285 -0.0072  1.4711  0.9992
60962SOL     OW88848   1.359   5.007   4.729 -0.6757  0.3136 -0.6907
60962SOL    HW188849   1.445   5.024   4.690 -0.8043  1.6682 -0.4483
60962SOL    HW288850   1.301   5.071   4.689 -1.3103  0.2014  0.0170
60963SOL     OW88851   6.462   1.920   5.335 -0.4266 -0.0129 -0.1600
60963SOL    HW188852   6.426   1.861   5.400  2.1715 -0.7937  0.6785
60963SOL    HW288853   6.386   1.965   5.298 -2.5583 -3.8366 -0.8760
60964SOL     OW88854   1.183   9.301   6.107  0.3564 -0.2952 -0.1782
60964SOL    HW188855   1.188   9.333   6.016  0.5041  1.7939  0.5160
60964SOL    HW288856   1.213   9.210   6.102 -1.4721 -0.8677 -2.5121
60965SOL     OW88857   5.673   5.191  10.196  0.2204  0.3370 -0.4719
60965SOL    HW188858   5.744   5.192  10.132 -0.7229 -3.4860 -1.8658
60965SOL    HW288859   5.717   5.179  10.281  1.3440 -0.6831 -1.1614
60966SOL     OW88860   1.759   6.447   3.989 -0.0234 -0.2194 -0.6181
60966SOL    HW188861   1.813   6.487   4.058 -0.3396  0.9789 -1.0444
60966SOL    HW288862   1.679   6.420   4.034  0.1435 -0.2824 -0.3518
60967SOL     OW88863   0.363   7.186   7.151  0.3294  0.1616  0.4001
60967SOL    HW188864   0.400   7.142   7.228 -1.4757 -1.5985  0.3435
60967SOL    HW288865   0.436   7.235   7.114  1.6629 -0.2939  2.2823
60968SOL     OW88866   9.271  11.621  10.619  0.5224  0.1382  0.4160
60968SOL    HW188867   9.228  11.577  10.692  0.4571 -0.2531  0.1418
60968SOL    HW288868   9.326  11.554  10.579 -2.0725 -0.7146 -2.0586
60969SOL     OW88869   0.089   0.777   2.335 -0.1992 -0.5894  0.3021
60969SOL    HW188870   0.072   0.822   2.418  0.5058  0.6601 -0.2078
60969SOL    HW288871   0.012   0.722   2.321 -0.8249  0.0231  1.2410
60970SOL     OW88872  10.736   4.849   1.440 -0.0447  0.0333  0.3368
60970SOL    HW188873  10.666   4.785   1.446  0.3684 -0.2883  2.3669
60970SOL    HW288874  10.706   4.911   1.373 -1.8651 -0.5560  0.5549
60971SOL     OW88875   9.325   3.929   1.402 -0.0871 -0.0948  0.0388
60971SOL    HW188876   9.322   4.025   1.401  1.5326 -0.0141 -1.4242
60971SOL    HW288877   9.417   3.909   1.419  0.0694 -1.3479 -2.0318
60972SOL     OW88878  11.015   8.933   4.348  0.5718  0.6219 -0.0862
60972SOL    HW188879  10.978   8.991   4.414  0.6875  1.3927 -0.6906
60972SOL    HW288880  11.008   8.845   4.387  1.4154  1.1380  1.2988
60973SOL     OW88881   2.248  11.891   2.228 -0.3442  0.3080 -0.1123
60973SOL    HW188882   2.338  11.891   2.260 -0.0835  0.3766 -0.8325
60973SOL    HW288883   2.224  11.983   2.226 -1.1721  0.1844  2.0891
60974SOL     OW88884   8.412   3.801   1.416 -0.6388 -0.2865 -0.1764
60974SOL    HW188885   8.467   3.878   1.427 -1.3995  0.6127 -2.2251
60974SOL    HW288886   8.414   3.758   1.502  1.6379  0.7394  0.3567
60975SOL     OW88887   8.830   3.063   0.993  0.2173 -0.1213 -0.1789
60975SOL    HW188888   8.829   3.156   0.969  0.5319  0.0617  0.4867
60975SOL    HW288889   8.764   3.056   1.062  0.4738 -0.3152  0.0457
60976SOL     OW88890   7.042   1.260   0.885  0.2991 -0.6282 -0.3413
60976SOL    HW188891   7.107   1.227   0.823  0.1261 -3.2653  0.7729
60976SOL    HW288892   7.018   1.346   0.850  1.3087 -1.3418 -3.0755
60977SOL     OW88893   2.071  11.155  10.160  0.3932 -0.3599 -0.3838
60977SOL    HW188894   2.066  11.195  10.247 -0.1128  1.9746 -1.4034
60977SOL    HW288895   1.980  11.133  10.139  0.6247 -1.7860  0.0141
60978SOL     OW88896  12.095   0.955   7.172  0.0477  0.0470  0.7095
60978SOL    HW188897  12.021   1.015   7.175  0.4259  0.5881 -0.3386
60978SOL    HW288898  12.171   1.010   7.157  0.4598 -0.6394  0.1811
60979SOL     OW88899   2.220   6.930   5.690  0.1614  0.0581 -0.8934
60979SOL    HW188900   2.165   6.854   5.671 -1.9269  1.4339 -0.6723
60979SOL    HW288901   2.172   7.004   5.653  1.3566  1.4595  0.2336
60980SOL     OW88902   0.163  10.531   3.490  0.2991 -0.2698 -0.4424
60980SOL    HW188903   0.080  10.512   3.448  0.3764 -4.4180  0.8451
60980SOL    HW288904   0.139  10.574   3.572 -1.0821 -4.1596  1.4337
60981SOL     OW88905   0.677   0.273   3.387  0.2938  0.3793 -0.1248
60981SOL    HW188906   0.654   0.225   3.467  0.6657  0.5828  0.1051
60981SOL    HW288907   0.746   0.220   3.346 -0.5762 -0.2394 -0.8221
60982SOL     OW88908   9.501   3.706   6.789  0.8305  0.4715  0.3648
60982SOL    HW188909   9.492   3.759   6.710  1.4139 -0.3976 -0.3029
60982SOL    HW288910   9.576   3.744   6.835  1.8199 -0.2852 -0.5566
60983SOL     OW88911   4.693  10.727   0.173 -0.2194  0.0340 -0.4280
60983SOL    HW188912   4.600  10.747   0.186 -0.2674 -0.1035 -0.5621
60983SOL    HW288913   4.739  10.801   0.213 -0.3813 -0.0145 -0.1472
60984SOL     OW88914   3.346   0.662  12.146  0.0850  0.1998 -0.0398
60984SOL    HW188915   3.353   0.568  12.129  0.0709  0.1356  0.2948
60984SOL    HW288916   3.415   0.701  12.092  0.0112  0.0111 -0.2726
60985SOL     OW88917  10.871   8.309   5.975 -0.1816  0.8854 -0.2843
60985SOL    HW188918  10.808   8.246   5.941 -1.7077  2.6189 -0.8193
60985SOL    HW288919  10.941   8.310   5.910  0.7911 -1.5018  0.6152
60986SOL     OW88920   3.319   5.124   2.983  0.0405 -0.6222  0.1736
60986SOL    HW188921   3.340   5.074   2.905  0.8162 -0.6493  0.3937
60986SOL    HW288922   3.397   5.178   2.999 -1.4862  2.2302 -1.2370
60987SOL     OW88923   6.059   4.219   1.036  0.6687 -0.0798  0.5867
60987SOL    HW188924   6.045   4.125   1.040  0.2394 -0.0449  0.0177
60987SOL    HW288925   5.992   4.251   0.975  1.8548  0.3963 -0.4877
60988SOL     OW88926   5.426  11.855   9.082 -0.2601  0.0326 -0.0592
60988SOL    HW188927   5.494  11.803   9.040  0.9674  3.1206 -2.2914
60988SOL    HW288928   5.468  11.939   9.101 -2.5326  0.8501  1.8169
60989SOL     OW88929  10.103  10.006   5.474 -0.3306  0.0634  0.3681
60989SOL    HW188930  10.110  10.050   5.389  1.1408  0.2197  0.5388
60989SOL    HW288931  10.010  10.009   5.495 -0.6280  0.6530 -0.9071
60990SOL     OW88932   5.944  12.241   9.455  0.2404 -0.0939  0.2846
60990SOL    HW188933   5.902  12.234   9.541 -0.2848 -0.9059 -0.0313
60990SOL    HW288934   6.008  12.171   9.453 -0.3873 -0.6705 -0.3279
60991SOL     OW88935   8.059  11.712   4.010  0.3000  0.8401 -0.4661
60991SOL    HW188936   8.050  11.746   3.921  0.5590  1.3386 -0.3060
60991SOL    HW288937   7.972  11.723   4.049 -0.1823 -0.6092 -1.0699
60992SOL     OW88938   0.208   2.342   4.679 -0.3537  0.6989  0.0942
60992SOL    HW188939   0.255   2.397   4.616  2.5304 -0.4587  1.0370
60992SOL    HW288940   0.233   2.378   4.764 -1.8431  0.4660  0.6593
60993SOL     OW88941   2.692  10.389  11.610 -0.0706 -0.1736 -0.0562
60993SOL    HW188942   2.767  10.447  11.621  0.6865 -1.1662  0.1549
60993SOL    HW288943   2.634  10.435  11.549  1.8878 -0.5032 -2.2764
60994SOL     OW88944   0.536   8.774   4.393 -0.0603  0.2749 -0.6012
60994SOL    HW188945   0.472   8.837   4.427  0.1063  0.0875  0.0776
60994SOL    HW288946   0.534   8.702   4.456  0.8777  0.3055 -0.5269
60995SOL     OW88947  10.749   7.567   4.148  0.6887  0.5918 -0.1272
60995SOL    HW188948  10.748   7.493   4.210  0.8350 -0.5352 -1.4309
60995SOL    HW288949  10.835   7.561   4.107  1.0474  2.0503  0.3765
60996SOL     OW88950   1.650   6.033   9.965 -0.4512  0.6615  0.1575
60996SOL    HW188951   1.663   5.949  10.008 -2.3485  1.0359  1.6213
60996SOL    HW288952   1.565   6.025   9.921 -0.6995  1.8002  0.3844
60997SOL     OW88953   6.402   0.650   6.812  0.3371 -0.4280 -0.5795
60997SOL    HW188954   6.407   0.575   6.753  0.5098 -1.7039  1.0174
60997SOL    HW288955   6.309   0.657   6.835  0.4439 -0.6552 -0.0836
60998SOL     OW88956  12.205   6.432  12.449  0.6409 -0.6962  0.0210
60998SOL    HW188957  12.201   6.406  12.357 -2.2252  1.7074 -0.7147
60998SOL    HW288958  12.186   6.526  12.448 -0.6617 -0.7965  3.1016
60999SOL     OW88959   1.323   6.983   0.694 -0.1521 -0.4718 -0.1948
60999SOL    HW188960   1.260   6.990   0.766  0.4675 -0.1491  0.3246
60999SOL    HW288961   1.303   6.899   0.653 -2.3857  0.5975 -1.4563
61000SOL     OW88962  11.861  11.303   2.560 -0.1138 -0.2022  0.2488
61000SOL    HW188963  11.828  11.236   2.620  0.5336 -0.3723  0.4307
61000SOL    HW288964  11.922  11.354   2.613 -0.7028  0.6225  0.1426
61001SOL     OW88965   0.158   8.193  12.041 -0.0521  0.3779  0.0156
61001SOL    HW188966   0.063   8.199  12.051  0.0069  0.1240  0.7838
61001SOL    HW288967   0.174   8.100  12.027  0.0427  0.4830 -0.5689
61002SOL     OW88968   7.741   2.491   4.727  0.0009 -0.2356  0.0865
61002SOL    HW188969   7.764   2.564   4.785  2.3339  0.2876 -1.3536
61002SOL    HW288970   7.646   2.488   4.729 -0.0730  1.4857  1.8434
61003SOL     OW88971  11.561   0.255   0.353 -0.7109  0.2449  0.8553
61003SOL    HW188972  11.517   0.256   0.269  0.7781 -1.2202  0.0054
61003SOL    HW288973  11.532   0.335   0.397 -2.2633  0.5349 -0.6309
61004SOL     OW88974   3.720   5.639   5.574  0.2093 -0.0549 -0.0672
61004SOL    HW188975   3.720   5.735   5.572 -0.2209 -0.0663 -0.9245
61004SOL    HW288976   3.649   5.617   5.635 -0.7617  0.1696 -1.0909
61005SOL     OW88977   2.397   0.755   2.945 -0.2569 -0.0638 -0.0276
61005SOL    HW188978   2.469   0.814   2.923  0.5944 -1.2072 -0.4155
61005SOL    HW288979   2.337   0.809   2.997  1.1185  0.7967  0.7510
61006SOL     OW88980  11.773   6.529  10.820 -0.0718  0.0536 -0.3872
61006SOL    HW188981  11.700   6.552  10.761 -1.2229  1.0989  1.3562
61006SOL    HW288982  11.850   6.569  10.779 -1.0010  1.5856 -0.7205
61007SOL     OW88983   6.586  11.725  12.085 -0.0261  0.0207 -0.1196
61007SOL    HW188984   6.666  11.727  12.139 -0.8490 -0.2423  1.1534
61007SOL    HW288985   6.573  11.816  12.059  1.7414 -0.1849 -2.0074
61008SOL     OW88986   9.737   3.907   8.874 -0.0921 -0.0786  0.0397
61008SOL    HW188987   9.656   3.947   8.843  0.5925 -0.7108 -2.9154
61008SOL    HW288988   9.726   3.901   8.969 -3.1879  0.4570 -0.1666
61009SOL     OW88989  10.975   3.528   3.086  0.6257 -0.1473 -0.6774
61009SOL    HW188990  10.993   3.454   3.028  0.8144  0.9514 -2.0706
61009SOL    HW288991  11.037   3.596   3.059 -0.4440  0.9893 -0.3654
61010SOL     OW88992  11.872   1.413   7.429 -0.0814  0.2786 -0.1244
61010SOL    HW188993  11.942   1.419   7.364  0.4878  0.5732  0.4955
61010SOL    HW288994  11.919   1.406   7.513 -0.7971 -0.1168  0.2504
61011SOL     OW88995   6.872   9.940   7.596  0.1390  0.4865 -0.5140
61011SOL    HW188996   6.785   9.958   7.633  0.6228  0.2999  0.7690
61011SOL    HW288997   6.869   9.848   7.572  0.6636 -0.1466  1.6186
61012SOL     OW88998   6.299   0.458  12.201  0.1245  0.2308 -0.0735
61012SOL    HW188999   6.377   0.455  12.146  1.5645 -1.4245  1.8816
61012SOL    HW289000   6.317   0.527  12.265 -0.6804  0.8303 -0.4803
61013SOL     OW89001   5.469  10.196   3.010 -0.0050  0.1018  0.7841
61013SOL    HW189002   5.392  10.187   3.065  1.3549 -0.1742  2.7524
61013SOL    HW289003   5.522  10.119   3.030  1.3046  0.8617  0.3972
61014SOL     OW89004  11.062   3.776   9.261  0.2939 -0.0778  0.3013
61014SOL    HW189005  11.137   3.725   9.291  1.0657  1.3066  0.8069
61014SOL    HW289006  11.041   3.740   9.174  2.7504  0.7168 -0.7006
61015SOL     OW89007  11.886  10.672   7.664  0.5521 -0.7431 -0.5221
61015SOL    HW189008  11.859  10.585   7.636 -1.9215 -0.2968  0.2027
61015SOL    HW289009  11.805  10.724   7.664  1.9951  1.6928 -1.3423
61016SOL     OW89010  11.725  11.883   6.990  0.1717  0.1117 -0.6536
61016SOL    HW189011  11.701  11.795   7.021 -1.8592  1.4455  1.9619
61016SOL    HW289012  11.657  11.906   6.927 -1.2675  0.9978  1.1402
61017SOL     OW89013   0.687  11.058   9.761  0.1078  0.3132  0.1666
61017SOL    HW189014   0.641  11.071   9.844 -0.1567  0.0635  0.0637
61017SOL    HW289015   0.766  11.010   9.785 -0.6744 -1.0671  0.1125
61018SOL     OW89016   1.867  11.944   9.858  0.5691 -0.1762 -0.0383
61018SOL    HW189017   1.961  11.948   9.875  0.5555 -1.7260  0.5717
61018SOL    HW289018   1.856  11.867   9.803 -0.4795 -0.7499  0.9370
61019SOL     OW89019   2.774   3.804   7.648  0.0416  0.0554 -0.3662
61019SOL    HW189020   2.773   3.713   7.676  0.6571  0.1242 -0.1104
61019SOL    HW289021   2.859   3.837   7.676  0.1997  0.4542 -1.2673
61020SOL     OW89022   0.529   5.317  10.025 -0.2097  0.1686  0.2161
61020SOL    HW189023   0.444   5.355  10.005  0.6174  1.3495 -1.2285
61020SOL    HW289024   0.522   5.226   9.997 -0.8340  0.4011 -0.4154
61021SOL     OW89025   6.274   8.345   0.275  0.0036  0.3056 -0.2148
61021SOL    HW189026   6.293   8.252   0.274  1.5313  0.5878  0.1107
61021SOL    HW289027   6.283   8.371   0.367  0.3348  0.9117 -0.4148
61022SOL     OW89028   4.436  10.869   2.661 -0.3636 -0.0897  0.0744
61022SOL    HW189029   4.404  10.903   2.744  0.4060 -0.4377  0.5200
61022SOL    HW289030   4.485  10.942   2.622  0.5410 -0.3960  0.6227
61023SOL     OW89031   9.953   7.406   6.429 -0.2234  0.0990  0.8043
61023SOL    HW189032   9.874   7.372   6.471 -0.3229  0.7060  1.1234
61023SOL    HW289033   9.923   7.485   6.383  0.2000  0.3562  0.9650
61024SOL     OW89034   2.915   5.965   0.241 -0.1505 -0.0710  0.3578
61024SOL    HW189035   2.955   6.044   0.204 -1.6672  0.9590  0.8164
61024SOL    HW289036   2.971   5.943   0.315  1.4456 -0.6497 -0.9593
61025SOL     OW89037   7.597   5.035  10.228 -0.1836 -0.2151 -0.8983
61025SOL    HW189038   7.611   5.108  10.168  0.6704  1.0098  0.7518
61025SOL    HW289039   7.683   4.995  10.238 -0.1875 -0.0170 -0.0000
61026SOL     OW89040  11.549  11.095  10.236 -0.2931 -0.4675 -0.0745
61026SOL    HW189041  11.500  11.176  10.224  0.9879  0.3052 -0.1454
61026SOL    HW289042  11.517  11.060  10.319 -2.8058 -1.3318 -1.2655
61027SOL     OW89043  11.426  12.065   5.593 -0.4633 -0.4926  0.0554
61027SOL    HW189044  11.415  11.987   5.648 -0.8480 -0.6988 -0.2975
61027SOL    HW289045  11.500  12.112   5.631  0.9103 -1.9088 -0.7325
61028SOL     OW89046  11.191   2.008   7.946  0.5559  0.3447 -0.6460
61028SOL    HW189047  11.195   1.947   7.872 -1.4122  0.1421 -0.6373
61028SOL    HW289048  11.186   1.951   8.023 -1.5689  0.4518 -0.6541
61029SOL     OW89049   2.333   0.577   3.308 -0.4738 -0.2039  0.2064
61029SOL    HW189050   2.341   0.642   3.378  0.8312 -0.5605  0.4133
61029SOL    HW289051   2.419   0.578   3.265 -0.3419 -1.9458  0.3517
61030SOL     OW89052   4.380   2.286  12.423 -0.1545 -0.0984 -0.3657
61030SOL    HW189053   4.458   2.333  12.453  1.5921 -1.7130 -2.0631
61030SOL    HW289054   4.334   2.348  12.367  1.0622  0.2460 -1.0269
61031SOL     OW89055   9.107  10.493   5.126 -0.1836 -0.0941  0.5360
61031SOL    HW189056   9.194  10.507   5.089 -0.3208  0.4048  0.3964
61031SOL    HW289057   9.122  10.436   5.202  0.4201  0.9845  1.2497
61032SOL     OW89058   2.853   6.609   0.992  0.1379  0.0113 -0.4941
61032SOL    HW189059   2.860   6.683   1.052 -0.3571 -0.5649  0.2963
61032SOL    HW289060   2.864   6.648   0.905 -0.0386  0.9998 -0.0945
61033SOL     OW89061   5.714  10.482   8.988 -0.7552 -0.0254  0.2201
61033SOL    HW189062   5.774  10.515   9.055  0.5964  0.0182 -0.9531
61033SOL    HW289063   5.771  10.460   8.914 -2.2674  0.7143 -1.2314
61034SOL     OW89064   9.191  11.997   9.104  0.7994  0.4533  0.3793
61034SOL    HW189065   9.206  12.052   9.181  2.0033 -0.7719  1.0662
61034SOL    HW289066   9.112  11.947   9.126  1.1589  0.0815  0.8391
61035SOL     OW89067   8.961   8.184   7.900 -0.3179  0.0291 -0.3981
61035SOL    HW189068   9.053   8.200   7.877  0.1170  0.4976  1.4988
61035SOL    HW289069   8.914   8.255   7.857  0.0848 -0.6034 -1.9635
61036SOL     OW89070   7.541  11.486  12.453 -0.5624  0.1802 -0.3184
61036SOL    HW189071   7.545  11.579  12.474 -3.0675  0.6333 -1.4877
61036SOL    HW289072   7.524  11.484  12.359 -0.9708 -1.4463 -0.2349
61037SOL     OW89073   7.186   4.566  10.867  0.1461 -0.2889 -0.1285
61037SOL    HW189074   7.237   4.608  10.797  1.9778 -0.3246  1.1217
61037SOL    HW289075   7.184   4.630  10.938 -1.9560 -0.1327 -0.2573
61038SOL     OW89076  10.756   3.663   9.511  0.5329  0.3899 -0.1061
61038SOL    HW189077  10.691   3.710   9.459  0.8563  1.7698  0.6909
61038SOL    HW289078  10.752   3.573   9.479 -0.4710  0.8422 -1.3209
61039SOL     OW89079   7.047  10.313  11.857 -0.3070 -0.2806 -0.0893
61039SOL    HW189080   7.019  10.362  11.779  1.3192  0.8232 -0.0202
61039SOL    HW289081   7.096  10.239  11.822 -0.8267 -0.6087 -0.1356
61040SOL     OW89082   7.175  11.623  11.907  0.0374  0.6080 -0.5841
61040SOL    HW189083   7.244  11.618  11.841  0.6860  0.2267  0.1017
61040SOL    HW289084   7.130  11.705  11.889 -0.6016 -0.0525 -2.2675
61041SOL     OW89085   8.207   8.082  12.199  0.5508  0.2808 -0.3610
61041SOL    HW189086   8.286   8.054  12.246  0.3257 -2.6924 -1.5281
61041SOL    HW289087   8.225   8.062  12.107 -1.4804 -0.3749 -0.6704
61042SOL     OW89088   2.186   4.157   5.267  0.0683  0.2356 -0.2690
61042SOL    HW189089   2.240   4.094   5.315  3.4414  0.4287 -3.3442
61042SOL    HW289090   2.126   4.103   5.216 -1.6213 -0.0630  1.8958
61043SOL     OW89091   8.415   4.470   4.912 -0.4642  0.0948  0.2211
61043SOL    HW189092   8.331   4.424   4.916 -0.3162 -0.1000  1.4156
61043SOL    HW289093   8.417   4.524   4.991  0.4508  0.2373  0.1142
61044SOL     OW89094   6.283   9.516  11.136 -0.1917  0.7429 -0.5323
61044SOL    HW189095   6.320   9.537  11.050  0.0573 -1.2367 -0.9678
61044SOL    HW289096   6.219   9.447  11.117 -0.1738  0.3196  0.8778
61045SOL     OW89097   2.746   7.560   6.552  0.4329 -0.0886  0.4016
61045SOL    HW189098   2.667   7.614   6.560 -0.4764 -0.3703 -4.1000
61045SOL    HW289099   2.714   7.471   6.544  0.6161  0.0065 -4.3586
61046SOL     OW89100   9.797   8.887   4.464 -0.3940 -0.5886 -0.2697
61046SOL    HW189101   9.839   8.804   4.441 -0.0135  0.0162 -1.8328
61046SOL    HW289102   9.831   8.907   4.551  2.0438 -0.4905 -1.1610
61047SOL     OW89103   5.498  12.289   2.681 -0.4261 -0.3889 -0.3471
61047SOL    HW189104   5.565  12.356   2.667 -0.8875  0.4216  1.0285
61047SOL    HW289105   5.466  12.268   2.594 -0.8504  1.8313 -0.7885
61048SOL     OW89106   1.584  11.097   6.911  0.5689  0.3680 -0.4877
61048SOL    HW189107   1.634  11.045   6.848 -0.9022  0.1309 -1.4846
61048SOL    HW289108   1.646  11.164   6.940  1.1683  0.7615 -2.5101
61049SOL     OW89109   0.400   8.669   0.708  0.0134  0.4042  0.1054
61049SOL    HW189110   0.479   8.709   0.743  0.6918 -1.2105  0.5155
61049SOL    HW289111   0.398   8.581   0.748 -2.0478  0.4552  0.2101
61050SOL     OW89112   9.430   6.026   6.863 -0.6408  0.4974 -0.0027
61050SOL    HW189113   9.348   5.982   6.842 -0.1393 -0.4558 -0.0710
61050SOL    HW289114   9.473   6.037   6.778 -0.2039 -0.0531  0.1406
61051SOL     OW89115  10.866  11.935   9.401 -0.2426  0.3951  0.0616
61051SOL    HW189116  10.895  12.015   9.357 -0.8490 -0.0016 -1.1018
61051SOL    HW289117  10.796  11.964   9.459 -1.7164  0.5001 -1.6777
61052SOL     OW89118   9.971   0.850   9.898  0.3035  0.0704 -0.3187
61052SOL    HW189119   9.893   0.797   9.918  0.1686 -0.3521 -1.8824
61052SOL    HW289120   9.939   0.919   9.841  0.5653  1.6665  1.3639
61053SOL     OW89121  11.468   5.197   6.400 -0.7783  0.2411 -0.0044
61053SOL    HW189122  11.406   5.270   6.391  2.2597  3.1940  0.9115
61053SOL    HW289123  11.494   5.176   6.311 -0.3657  1.6376 -0.2499
61054SOL     OW89124  11.582   2.803   6.976  0.0159  0.0965 -0.1892
61054SOL    HW189125  11.575   2.838   7.065  0.2154  0.4654 -0.3180
61054SOL    HW289126  11.502   2.752   6.964 -0.6850  1.1899 -0.2972
61055SOL     OW89127   3.825  10.781   1.619 -0.2480 -0.5560 -0.1995
61055SOL    HW189128   3.849  10.873   1.622 -0.7007 -0.3306 -2.0591
61055SOL    HW289129   3.900  10.737   1.579  0.5024 -1.2452  1.8438
61056SOL     OW89130   6.468  11.711   5.436  0.0274  0.1735  0.3205
61056SOL    HW189131   6.453  11.799   5.471 -0.6484 -0.1769  0.9574
61056SOL    HW289132   6.550  11.718   5.387 -0.5599  1.4111 -0.5516
61057SOL     OW89133   2.956   2.797   3.133  0.4989  0.4340  0.0285
61057SOL    HW189134   2.969   2.760   3.046  2.0748  0.2117  0.3182
61057SOL    HW289135   3.030   2.857   3.145 -0.6940  1.8569  0.5187
61058SOL     OW89136   1.325   4.705   6.223 -0.1781  0.0615 -0.0169
61058SOL    HW189137   1.416   4.688   6.199 -0.3113  0.2085 -0.6361
61058SOL    HW289138   1.330   4.775   6.288  0.2925 -1.4337  1.6256
61059SOL     OW89139   2.112   3.080   1.843  0.6481 -0.7918  0.3370
61059SOL    HW189140   2.093   3.028   1.765  1.1858 -2.2135  1.1169
61059SOL    HW289141   2.118   3.016   1.914  2.3285  0.2270  1.1841
61060SOL     OW89142   8.294   3.470   5.594 -0.2417  0.8196  0.4921
61060SOL    HW189143   8.365   3.457   5.657  0.5829 -0.5875 -0.6729
61060SOL    HW289144   8.338   3.495   5.513 -1.2423  1.9279  0.2543
61061SOL     OW89145  10.073   9.091   0.869  0.2187  0.2371  0.1973
61061SOL    HW189146   9.988   9.125   0.840  0.4454  0.9646  0.3593
61061SOL    HW289147  10.122   9.078   0.788 -0.4164 -1.2559  0.0154
61062SOL     OW89148   5.593   1.154  12.059 -0.7006  0.2793  0.4296
61062SOL    HW189149   5.632   1.187  11.978 -0.7674 -0.0852  0.2455
61062SOL    HW289150   5.501   1.139  12.038 -0.3149 -1.7173 -0.0356
61063SOL     OW89151   7.470   3.094  11.064  0.0677  0.0145 -0.6985
61063SOL    HW189152   7.554   3.062  11.095 -0.5748 -0.7366  0.3264
61063SOL    HW289153   7.406   3.058  11.126 -0.8539  1.9534 -0.4378
61064SOL     OW89154   0.312   4.444   6.871  0.1103 -0.4753  0.3479
61064SOL    HW189155   0.370   4.376   6.907 -0.6771 -1.6488 -0.5229
61064SOL    HW289156   0.242   4.395   6.827 -1.4358  0.9047  1.1798
61065SOL     OW89157  11.281   5.379  10.688 -0.2324 -0.4057 -0.5171
61065SOL    HW189158  11.242   5.342  10.768 -0.1659  0.9572  0.1688
61065SOL    HW289159  11.360   5.423  10.719 -1.2076  1.8054 -1.0092
61066SOL     OW89160  11.404   2.425   9.546  0.8922 -0.0038  0.0487
61066SOL    HW189161  11.355   2.479   9.485  0.6124 -0.5285 -0.1996
61066SOL    HW289162  11.496   2.441   9.524  0.7910 -0.2876 -0.6041
61067SOL     OW89163   8.933   1.419   0.846  0.3198  0.1164 -0.3378
61067SOL    HW189164   8.887   1.492   0.887  0.1859  0.3459 -0.8866
61067SOL    HW289165   8.924   1.347   0.908 -1.4342 -0.0723 -0.7606
61068SOL     OW89166  10.426   7.016   6.745  0.4011  0.1557 -0.2085
61068SOL    HW189167  10.509   6.995   6.787  1.4501  0.4941 -2.0289
61068SOL    HW289168  10.422   6.960   6.668 -0.6807  0.7103 -0.5840
61069SOL     OW89169   0.436   7.767   0.200 -0.0711  0.5234 -0.4874
61069SOL    HW189170   0.495   7.724   0.138 -0.4268  1.6636 -1.6633
61069SOL    HW289171   0.439   7.859   0.176 -0.2106  1.0134  1.2300
61070SOL     OW89172   3.742   6.412   4.996  0.4801 -0.3057 -0.1006
61070SOL    HW189173   3.649   6.408   4.973  0.5679  0.0602 -0.5453
61070SOL    HW289174   3.756   6.338   5.054 -0.2307  0.0188  0.4952
61071SOL     OW89175  10.229   1.956   8.285 -0.5618 -0.6579 -0.1799
61071SOL    HW189176  10.319   1.927   8.299 -0.1880  0.0693 -0.9588
61071SOL    HW289177  10.198   1.982   8.372  0.1919 -0.3247 -0.0066
61072SOL     OW89178   0.609   1.360   7.405 -0.0889  0.3872 -0.3188
61072SOL    HW189179   0.640   1.349   7.315 -0.8434  0.5041 -0.5959
61072SOL    HW289180   0.514   1.350   7.400 -0.2815  1.7172  0.2462
61073SOL     OW89181   6.970   6.995   9.193  0.4172  0.4645 -0.4221
61073SOL    HW189182   7.001   6.913   9.154  1.4537 -0.0833  1.4172
61073SOL    HW289183   6.987   7.061   9.126  1.7310 -0.4929 -1.0824
61074SOL     OW89184   3.353  10.949   3.342 -0.2150 -0.4584  0.3581
61074SOL    HW189185   3.305  11.030   3.358  2.0802  1.5157 -1.8244
61074SOL    HW289186   3.436  10.960   3.389  0.5351 -1.1014 -0.7673
61075SOL     OW89187  10.971   8.667   4.379 -0.1220  0.4210  0.2787
61075SOL    HW189188  11.059   8.647   4.413 -0.6648 -0.7319  1.0816
61075SOL    HW289189  10.913   8.612   4.432 -1.2706  0.7226 -0.6509
61076SOL     OW89190  11.418   8.360   9.376  0.4232  0.4199 -0.4368
61076SOL    HW189191  11.396   8.397   9.462 -0.2849  1.1666 -0.9229
61076SOL    HW289192  11.462   8.278   9.396 -2.5884 -1.0915  0.6513
61077SOL     OW89193  11.957   3.568   6.813  0.3255  0.8284  0.1609
61077SOL    HW189194  11.878   3.622   6.803 -0.4249 -0.0772  1.0418
61077SOL    HW289195  11.975   3.569   6.907 -0.2685 -1.1856  0.3446
61078SOL     OW89196   4.835   1.346   6.722  0.0444  0.0451 -0.3045
61078SOL    HW189197   4.795   1.360   6.637  2.2560  2.0876 -1.1180
61078SOL    HW289198   4.793   1.410   6.780 -0.7369 -0.6562 -0.0688
61079SOL     OW89199   8.360   9.956  12.127  0.7597 -0.4327  0.1483
61079SOL    HW189200   8.334   9.890  12.063  1.5010  0.5033 -1.1521
61079SOL    HW289201   8.448   9.932  12.153  0.8671 -0.2163 -0.0046
61080SOL     OW89202   4.583   7.900   0.979  0.5078  0.6104 -0.2581
61080SOL    HW189203   4.566   7.808   0.962  2.3098  0.2820 -0.4985
61080SOL    HW289204   4.574   7.910   1.073 -0.6396  0.4128 -0.3424
61081SOL     OW89205   3.356   7.347   8.725 -0.6536 -0.2864  0.0839
61081SOL    HW189206   3.341   7.268   8.672  0.6662 -0.9449  0.6647
61081SOL    HW289207   3.430   7.325   8.781 -1.3498  0.7684  1.4815
61082SOL     OW89208   8.418  11.597   2.602 -0.4847 -1.0232 -0.1793
61082SOL    HW189209   8.403  11.685   2.638 -1.9558 -1.2939 -0.0368
61082SOL    HW289210   8.372  11.598   2.518 -0.0784 -1.4977 -0.4074
61083SOL     OW89211   4.947   1.542   1.645  0.3874 -0.0986  0.0481
61083SOL    HW189212   4.924   1.527   1.737  0.1799  0.1973  0.0451
61083SOL    HW289213   5.043   1.546   1.645  0.3576  0.7490  0.3848
61084SOL     OW89214   3.262   7.713  12.089  0.2033  0.0376 -0.4799
61084SOL    HW189215   3.168   7.713  12.073  0.2247 -0.1045 -0.6118
61084SOL    HW289216   3.298   7.656  12.020  0.1332 -1.9725  1.0584
61085SOL     OW89217   9.745   9.765   5.984  0.6609 -0.1998 -0.9435
61085SOL    HW189218   9.692   9.697   5.943  0.9190 -0.1089 -1.4302
61085SOL    HW289219   9.716   9.766   6.075 -0.1856 -0.1406 -1.2095
61086SOL     OW89220   8.178   4.183   6.281  0.5119  0.3483 -0.0512
61086SOL    HW189221   8.170   4.196   6.375  1.0706 -0.9818  0.2069
61086SOL    HW289222   8.213   4.266   6.248 -0.4087  1.0947  0.7848
61087SOL     OW89223   2.848   0.109   8.723 -0.0781  0.2796 -0.4875
61087SOL    HW189224   2.843   0.103   8.627 -1.8919  0.7233 -0.4604
61087SOL    HW289225   2.901   0.034   8.749  0.2458  0.0181 -1.8351
61088SOL     OW89226   4.947   2.145   0.558 -0.2787 -0.2900 -0.0750
61088SOL    HW189227   4.907   2.126   0.473  1.6815  1.3223 -1.4625
61088SOL    HW289228   4.929   2.238   0.572  1.6751  0.1215 -0.0674
61089SOL     OW89229  10.778  10.910  10.312  0.7432  0.2720 -0.2851
61089SOL    HW189230  10.734  10.832  10.346  1.3556 -0.3297 -0.8202
61089SOL    HW289231  10.724  10.939  10.239  1.9995 -1.4308 -2.0063
61090SOL     OW89232   1.129   3.270   9.314 -0.4232  0.1546 -0.1388
61090SOL    HW189233   1.132   3.359   9.277  0.6935  0.4471  0.5952
61090SOL    HW289234   1.205   3.267   9.373 -1.1406 -0.9005  0.7494
61091SOL     OW89235  11.810  10.461   1.786 -0.5547 -0.3818  0.0306
61091SOL    HW189236  11.822  10.367   1.780 -1.2812 -0.4553 -0.3894
61091SOL    HW289237  11.767  10.486   1.704  1.7452  0.6773 -0.9454
61092SOL     OW89238   0.157   9.509   8.916 -0.7838  0.0477 -0.2171
61092SOL    HW189239   0.116   9.567   8.851 -2.5897 -0.3486  0.4936
61092SOL    HW289240   0.083   9.464   8.957  0.2820  0.3913  2.2339
61093SOL     OW89241   2.020  10.739  11.383  0.5882 -0.1382 -0.2319
61093SOL    HW189242   2.032  10.798  11.458 -0.6796  0.9766 -0.8650
61093SOL    HW289243   1.968  10.667  11.418  2.0717 -0.8967  0.5264
61094SOL     OW89244   1.819   2.816   4.066  0.0659 -0.2397 -0.4896
61094SOL    HW189245   1.758   2.751   4.099 -0.9170  1.6252  1.6946
61094SOL    HW289246   1.903   2.771   4.063 -0.6669 -1.7458  0.4794
61095SOL     OW89247   3.602   5.103  10.534  0.1236  0.5102  0.2622
61095SOL    HW189248   3.601   5.030  10.472  2.1984 -0.6455  1.4707
61095SOL    HW289249   3.518   5.095  10.581  0.2388 -1.0578  0.2706
61096SOL     OW89250   1.295   3.742   0.607 -0.0652 -0.5382  0.0835
61096SOL    HW189251   1.318   3.826   0.569 -0.6169 -0.5157 -0.2170
61096SOL    HW289252   1.206   3.725   0.575 -0.2317 -0.8934  0.7245
61097SOL     OW89253  11.616   7.630   9.838 -0.1454 -0.0306 -0.1801
61097SOL    HW189254  11.672   7.618   9.915 -0.0905 -0.9246 -0.3500
61097SOL    HW289255  11.663   7.587   9.767 -0.6142  0.0175 -0.5220
61098SOL     OW89256  11.906  10.638  11.774  0.7256 -0.2278  0.2679
61098SOL    HW189257  11.965  10.713  11.775 -0.0369  0.3783  1.1424
61098SOL    HW289258  11.866  10.638  11.860 -1.3824  0.0462 -0.6578
61099SOL     OW89259   4.366   6.081   1.479  0.4476 -0.0152  0.0113
61099SOL    HW189260   4.281   6.038   1.470 -0.2134  1.4023 -0.8829
61099SOL    HW289261   4.428   6.010   1.497 -0.5133 -1.3917 -1.8679
61100SOL     OW89262   1.372   3.927   3.402  0.1127  0.3425 -0.0621
61100SOL    HW189263   1.334   3.920   3.314 -0.3090 -1.2326  0.2099
61100SOL    HW289264   1.331   3.855   3.450  0.6325  0.9554  1.3171
61101SOL     OW89265   5.239   7.770   4.396  0.2020 -0.0884 -0.1025
61101SOL    HW189266   5.328   7.764   4.430 -0.0350  1.3659  0.8965
61101SOL    HW289267   5.249   7.813   4.311  0.2881  3.3856  1.4814
61102SOL     OW89268   7.217   5.562   2.584 -0.1240  0.1757  0.0402
61102SOL    HW189269   7.220   5.469   2.564  0.3018  0.0237  0.7769
61102SOL    HW289270   7.127   5.589   2.565 -0.3896 -0.5002  0.3398
61103SOL     OW89271   5.137   9.502   8.400 -0.4042  0.8553  0.2176
61103SOL    HW189272   5.057   9.456   8.371  0.0569  0.3797 -0.3265
61103SOL    HW289273   5.185   9.520   8.319 -0.4065  2.0060  0.4549
61104SOL     OW89274   1.475   9.150  10.666 -0.1986  0.0678 -0.1076
61104SOL    HW189275   1.527   9.098  10.727 -2.0201 -1.3081  0.3559
61104SOL    HW289276   1.430   9.214  10.721 -0.1750  0.2541 -0.3032
61105SOL     OW89277   6.386   7.708   2.863  0.2341  0.4890  0.6133
61105SOL    HW189278   6.339   7.790   2.877 -0.5032  0.3929 -1.0381
61105SOL    HW289279   6.434   7.722   2.781  0.1463 -0.7013  0.3457
61106SOL     OW89280   8.641   2.977   6.836  0.0431  0.2684  0.3755
61106SOL    HW189281   8.733   2.952   6.842  0.9389  2.8584 -0.8002
61106SOL    HW289282   8.637   3.062   6.881 -1.2109  1.3309 -1.6122
61107SOL     OW89283   0.571   0.060   9.873  0.5628 -0.3863 -0.9003
61107SOL    HW189284   0.623   0.064   9.954 -0.0631 -0.8192 -0.4586
61107SOL    HW289285   0.571   0.149   9.840  0.9018 -0.2200 -0.4648
61108SOL     OW89286   9.924   6.313   1.107  0.4461  0.2185 -0.3350
61108SOL    HW189287   9.868   6.343   1.035 -1.1822 -1.3079  0.2192
61108SOL    HW289288   9.939   6.220   1.088  0.5165 -0.0442  0.9446
61109SOL     OW89289   8.780   7.728   5.199 -0.7048 -0.3589 -0.5986
61109SOL    HW189290   8.717   7.747   5.268 -0.6488 -1.9723 -0.0559
61109SOL    HW289291   8.726   7.704   5.123 -0.7577  0.8919 -0.9740
61110SOL     OW89292   0.759   4.423   5.228  0.4971  0.2303 -0.1645
61110SOL    HW189293   0.806   4.357   5.278 -1.1190 -1.0414 -0.2445
61110SOL    HW289294   0.668   4.414   5.256 -0.0946  0.9989 -1.7236
61111SOL     OW89295   9.188   8.525   4.416 -0.7738 -0.3996  0.2312
61111SOL    HW189296   9.157   8.456   4.357  1.9935 -0.4403 -1.3756
61111SOL    HW289297   9.253   8.573   4.364 -0.0505  1.1915  2.4551
61112SOL     OW89298   5.411   1.284   2.412 -0.2114  0.3560  0.1570
61112SOL    HW189299   5.369   1.201   2.435  0.1663  0.2517  0.5025
61112SOL    HW289300   5.339   1.344   2.394 -0.6692  0.8967  3.1758
61113SOL     OW89301  11.512   8.902   5.145 -1.0061 -0.1042 -0.1463
61113SOL    HW189302  11.570   8.831   5.118  0.8420  1.4743 -0.4588
61113SOL    HW289303  11.470   8.931   5.065 -1.9740 -0.9685  0.0201
61114SOL     OW89304  10.870  10.830   4.469 -0.6018 -0.0337  0.0885
61114SOL    HW189305  10.902  10.891   4.402 -0.4711 -1.3251 -1.0746
61114SOL    HW289306  10.917  10.855   4.549  1.5786 -0.3365 -1.0074
61115SOL     OW89307  10.471   7.500   5.532  0.3201 -0.1303 -0.0721
61115SOL    HW189308  10.520   7.446   5.594 -2.1671 -1.1900  1.1099
61115SOL    HW289309  10.395   7.447   5.508 -0.6604  1.6886 -1.2539
61116SOL     OW89310   0.601   5.208  11.773 -0.4027 -0.1757 -0.4876
61116SOL    HW189311   0.664   5.281  11.771  0.6129 -0.9472  1.1192
61116SOL    HW289312   0.596   5.183  11.865 -2.0436 -1.0555 -0.7676
61117SOL     OW89313   3.545   8.512   4.921  0.5350 -0.4386 -0.2625
61117SOL    HW189314   3.469   8.552   4.963  0.8683 -0.6425  0.5536
61117SOL    HW289315   3.609   8.583   4.916  0.9257 -0.7094  0.6803
61118SOL     OW89316   4.823  11.767   3.263  0.0952  0.4921 -0.4632
61118SOL    HW189317   4.905  11.781   3.310 -0.6171  1.5948  0.5113
61118SOL    HW289318   4.845  11.784   3.171  1.0545  0.3313 -0.2736
61119SOL     OW89319   8.528   9.509   9.268  0.3684  0.2006  0.3240
61119SOL    HW189320   8.448   9.457   9.266  0.5567 -0.1311  1.1463
61119SOL    HW289321   8.599   9.445   9.264  0.5991  0.4453  0.4471
61120SOL     OW89322   4.390   6.605   3.479 -0.7821 -0.1758  0.3474
61120SOL    HW189323   4.342   6.526   3.454 -1.1789  0.1042  0.2306
61120SOL    HW289324   4.385   6.662   3.402 -1.6430  0.5156  0.9053
61121SOL     OW89325   4.213  10.385  11.418 -0.2746 -0.1852  0.0205
61121SOL    HW189326   4.282  10.404  11.354 -1.0361 -0.0776 -0.7883
61121SOL    HW289327   4.134  10.373  11.365 -1.4519  2.3384  1.0570
61122SOL     OW89328  10.003   7.927   8.100 -0.6318 -0.4102 -0.5725
61122SOL    HW189329  10.037   8.016   8.095 -2.1222  0.2987  0.8715
61122SOL    HW289330  10.068   7.879   8.150 -0.1711  0.0646 -0.7126
61123SOL     OW89331   3.730   0.163   2.399 -0.4292  0.0647  0.1240
61123SOL    HW189332   3.720   0.085   2.345  0.5469  0.2644 -0.3740
61123SOL    HW289333   3.824   0.166   2.420 -0.3051  1.4810 -0.4899
61124SOL     OW89334   8.155  12.190   9.243  0.0088 -0.1749 -0.3135
61124SOL    HW189335   8.064  12.216   9.256  0.1539 -0.7473  2.5888
61124SOL    HW289336   8.199  12.271   9.217 -1.0192  0.5567  0.1517
61125SOL     OW89337   9.478   7.120   4.518 -0.3306 -0.0418  0.5936
61125SOL    HW189338   9.406   7.100   4.458  0.7198  0.7170 -0.9769
61125SOL    HW289339   9.465   7.212   4.541  0.4885  0.2915 -0.2305
61126SOL     OW89340   6.861   9.089   7.126  0.0509  0.1672  0.4361
61126SOL    HW189341   6.814   9.109   7.207 -1.9014 -0.4517 -0.4770
61126SOL    HW289342   6.808   9.022   7.083  1.4091 -0.0353 -1.0338
61127SOL     OW89343  12.069   1.310   5.600 -0.1678  0.2474 -0.2891
61127SOL    HW189344  12.066   1.375   5.530 -2.1703 -0.4549 -0.9279
61127SOL    HW289345  12.090   1.361   5.678 -1.7758  1.7329 -0.7513
61128SOL     OW89346  12.214   7.393   9.195  0.0799  0.1012 -0.3068
61128SOL    HW189347  12.270   7.452   9.245  0.1889  0.1526 -0.4850
61128SOL    HW289348  12.131   7.393   9.241 -0.1095  0.8447 -0.6205
61129SOL     OW89349  11.194   6.374   2.107  0.2514 -0.1650  0.6854
61129SOL    HW189350  11.284   6.408   2.100  0.7706 -1.5601  0.2286
61129SOL    HW289351  11.161   6.376   2.017  0.9425 -2.4786  0.3176
61130SOL     OW89352   8.803  10.127   7.666 -0.1097  0.0900 -0.5521
61130SOL    HW189353   8.784  10.105   7.575  2.4692 -3.7354 -0.3855
61130SOL    HW289354   8.738  10.079   7.716  1.0246 -1.3485 -0.3751
61131SOL     OW89355   1.459   4.231  10.395 -0.3132 -0.2101 -0.2394
61131SOL    HW189356   1.431   4.307  10.446 -0.0866 -0.7481  0.7069
61131SOL    HW289357   1.423   4.247  10.308  0.2655  1.2783 -0.2327
61132SOL     OW89358   5.603   2.174   7.900 -0.5429  0.1332  0.0109
61132SOL    HW189359   5.659   2.174   7.977 -0.6765 -1.1803  0.1303
61132SOL    HW289360   5.628   2.253   7.852 -0.9342  1.3611  1.7127
61133SOL     OW89361  11.651   9.515   5.377  0.1384 -0.0328 -0.2392
61133SOL    HW189362  11.690   9.596   5.411 -1.2106  0.4225  0.2927
61133SOL    HW289363  11.724   9.454   5.371  1.3676  1.4739 -1.4989
61134SOL     OW89364   8.367   3.338   0.823  0.1106  0.2755  0.3927
61134SOL    HW189365   8.348   3.337   0.917 -0.3597  0.4382  0.2980
61134SOL    HW289366   8.380   3.430   0.802  2.1044  0.1177  0.6655
61135SOL     OW89367   3.089   6.109  11.883  0.0223  0.3587 -0.0446
61135SOL    HW189368   3.141   6.146  11.812  0.4603  1.4359  0.8100
61135SOL    HW289369   3.046   6.184  11.924 -1.2815 -0.3835  0.0179
61136SOL     OW89370   1.393  11.255   3.510 -0.0718 -0.0544 -0.2649
61136SOL    HW189371   1.365  11.181   3.457 -3.3809  2.5688 -2.6721
61136SOL    HW289372   1.317  11.275   3.565  1.9040 -0.3040  2.8125
61137SOL     OW89373   8.856   8.170   5.687  0.0866 -0.4882 -0.2909
61137SOL    HW189374   8.790   8.218   5.738 -0.1116 -0.4234 -0.6072
61137SOL    HW289375   8.936   8.221   5.699 -0.0688 -0.2056 -0.4263
61138SOL     OW89376   0.410   1.503  12.420  0.1410 -0.0399 -0.4442
61138SOL    HW189377   0.500   1.473  12.413  0.1208 -0.7009  1.4830
61138SOL    HW289378   0.402   1.535  12.510 -1.6109 -0.2570 -0.4811
61139SOL     OW89379   8.106   4.570   6.776  0.6068 -0.2941 -0.0923
61139SOL    HW189380   8.082   4.503   6.840  0.2084 -0.4778 -0.4327
61139SOL    HW289381   8.170   4.625   6.822  2.0019 -1.7052 -0.2613
61140SOL     OW89382   2.795   5.490   9.865 -0.3729 -0.4250  0.4237
61140SOL    HW189383   2.850   5.563   9.838  0.4653  0.0387  3.0529
61140SOL    HW289384   2.758   5.456   9.784  0.7667  1.6648 -1.0697
61141SOL     OW89385   0.716  11.801   9.615  0.3116 -0.2047 -0.0173
61141SOL    HW189386   0.641  11.762   9.571 -0.0549  0.5192 -0.0525
61141SOL    HW289387   0.731  11.745   9.691  0.9679 -1.4784 -1.0553
61142SOL     OW89388   3.406   1.763   5.517  0.0775  0.0330 -0.1946
61142SOL    HW189389   3.385   1.768   5.423 -0.9767 -1.6137 -0.0797
61142SOL    HW289390   3.322   1.741   5.559  0.6068  0.4095  1.1135
61143SOL     OW89391   5.806   0.231  10.079  0.1049  0.3258 -0.0006
61143SOL    HW189392   5.742   0.260  10.143 -0.0269  0.4798 -0.2019
61143SOL    HW289393   5.880   0.289  10.090  0.5854 -0.4314  0.8652
61144SOL     OW89394  11.551   6.479   0.514  0.3496  0.0288  0.0816
61144SOL    HW189395  11.562   6.465   0.607  3.7606 -0.4982 -0.2757
61144SOL    HW289396  11.583   6.399   0.473 -0.1833  0.6073 -1.5627
61145SOL     OW89397   3.937   0.683   7.576 -0.3971  0.2232 -0.8937
61145SOL    HW189398   4.032   0.684   7.570 -0.4138  0.4022 -1.1959
61145SOL    HW289399   3.916   0.609   7.634 -0.1073 -0.4199 -1.5865
61146SOL     OW89400   4.605  12.171   9.065 -0.0187  0.3022  0.6329
61146SOL    HW189401   4.689  12.217   9.071  0.6276 -0.7044 -0.2170
61146SOL    HW289402   4.560  12.191   9.148  2.1931 -1.2559  2.3546
61147SOL     OW89403   0.286   7.489   4.319  0.3334 -0.4718 -0.2826
61147SOL    HW189404   0.336   7.524   4.392  0.6727 -1.0085 -0.2580
61147SOL    HW289405   0.290   7.558   4.252 -0.6094  0.3322  0.4699
61148SOL     OW89406   2.602   0.563  10.020 -0.2154 -0.1322 -0.0440
61148SOL    HW189407   2.634   0.520  10.100  1.9639  0.4217 -0.5600
61148SOL    HW289408   2.664   0.537   9.952 -0.1493  1.9649 -0.8669
61149SOL     OW89409  10.015   1.389   8.937  0.1066  0.2183  0.7438
61149SOL    HW189410  10.034   1.301   8.905 -3.8611  0.1275 -2.1514
61149SOL    HW289411  10.098   1.436   8.930  1.6467 -2.4787 -0.5565
61150SOL     OW89412   1.453   8.197  10.842 -0.5716  0.5253 -0.2870
61150SOL    HW189413   1.419   8.248  10.915 -0.7518  1.1705 -0.8100
61150SOL    HW289414   1.542   8.230  10.829 -0.6370  0.6031 -0.5350
61151SOL     OW89415   8.567   3.074   4.353 -0.4795  0.8115 -0.3179
61151SOL    HW189416   8.600   3.164   4.356 -0.4236  0.7817 -0.0769
61151SOL    HW289417   8.645   3.020   4.336 -0.3458  0.7074  0.6079
61152SOL     OW89418  11.147   0.007   4.562 -0.5223 -0.8912 -0.3228
61152SOL    HW189419  11.182  -0.010   4.649 -1.6580  0.0587  0.3447
61152SOL    HW289420  11.214  -0.025   4.502  0.1036 -1.9234  0.8903
61153SOL     OW89421   4.355   2.321   5.967 -0.4036 -0.0377  0.7516
61153SOL    HW189422   4.408   2.242   5.953  1.3782  1.0419  1.1351
61153SOL    HW289423   4.284   2.292   6.024 -0.1834 -1.5071  0.3302
61154SOL     OW89424   6.137  10.903   4.483 -0.3065 -0.2866  0.2227
61154SOL    HW189425   6.129  10.953   4.402 -1.0900 -2.3574 -1.0652
61154SOL    HW289426   6.158  10.814   4.454  0.5903 -0.8386  2.3752
61155SOL     OW89427   2.666   5.828   0.348 -0.6384  0.5249 -0.1812
61155SOL    HW189428   2.737   5.868   0.298 -1.8738  1.6630 -1.1341
61155SOL    HW289429   2.689   5.735   0.353  1.4280  1.0318  0.5070
61156SOL     OW89430  10.661  11.113   5.328  0.5360 -0.7503  0.3566
61156SOL    HW189431  10.629  11.030   5.292  0.2704 -0.4711 -0.0446
61156SOL    HW289432  10.756  11.103   5.329  0.5779 -0.5646 -0.8872
61157SOL     OW89433  12.386   8.200  11.663  0.1203 -0.6018 -0.1081
61157SOL    HW189434  12.382   8.289  11.698  0.4612  0.4880 -2.6229
61157SOL    HW289435  12.475   8.191  11.630  0.0330 -1.8136 -0.0585
61158SOL     OW89436   3.044   8.440   3.378  0.5828 -0.5687  0.1579
61158SOL    HW189437   2.995   8.428   3.296 -0.5035  0.1178  0.6731
61158SOL    HW289438   3.135   8.449   3.351  0.3471 -1.1680 -0.9030
61159SOL     OW89439   3.016   9.429   9.229 -0.0575  0.4274  0.3699
61159SOL    HW189440   3.094   9.477   9.256  0.3134 -0.7591  1.5033
61159SOL    HW289441   3.031   9.408   9.137  0.7620  0.5740  0.4671
61160SOL     OW89442   1.796   1.541   6.311  0.2808  0.1517  0.0309
61160SOL    HW189443   1.739   1.501   6.246 -0.2157  0.4640  0.2707
61160SOL    HW289444   1.784   1.490   6.390 -0.7007  1.0258  0.4701
61161SOL     OW89445   0.685   9.680   3.546 -0.3846  0.1400 -0.1390
61161SOL    HW189446   0.658   9.771   3.533  1.2604  0.6080 -0.4511
61161SOL    HW289447   0.706   9.649   3.458  2.6678  0.6673  0.3205
61162SOL     OW89448  12.095   8.625   1.313 -0.3122 -0.0723  0.2318
61162SOL    HW189449  12.011   8.599   1.274 -1.0214  1.5355  0.6006
61162SOL    HW289450  12.079   8.713   1.347  1.6607  0.4337 -0.0490
61163SOL     OW89451   0.882   0.617  12.092 -0.2269 -0.1257 -0.3795
61163SOL    HW189452   0.854   0.579  12.176 -0.5558  1.1589  0.1234
61163SOL    HW289453   0.956   0.563  12.065 -0.5432 -0.9883  0.3926
61164SOL     OW89454  11.199   2.208  10.761 -0.5364  0.1091  0.3849
61164SOL    HW189455  11.174   2.131  10.812  0.9050 -1.6165 -1.3367
61164SOL    HW289456  11.289   2.190  10.732 -0.4738  2.0196 -0.8571
61165SOL     OW89457   6.997   1.946   2.548  0.2213  0.2531  0.2185
61165SOL    HW189458   6.907   1.930   2.522  1.0360 -0.3475 -2.6364
61165SOL    HW289459   7.017   2.032   2.513  0.9150  0.1315  0.2968
61166SOL     OW89460   7.492   1.501   9.399 -0.6087  0.4220 -0.2781
61166SOL    HW189461   7.457   1.548   9.323  2.2732  1.1350 -1.2944
61166SOL    HW289462   7.510   1.569   9.463 -0.6685  0.1393  0.0402
61167SOL     OW89463  12.310   4.915  10.413  0.2413  0.0322  0.6836
61167SOL    HW189464  12.281   4.857  10.483  0.8432 -2.3551 -0.9408
61167SOL    HW289465  12.249   4.990  10.417 -1.1366 -1.1066  2.3035
61168SOL     OW89466   0.641   0.553   3.036 -0.1684 -0.5765  0.5455
61168SOL    HW189467   0.717   0.527   2.984 -0.0324  0.7980  0.0076
61168SOL    HW289468   0.645   0.498   3.114  2.0684  0.2283  1.0774
61169SOL     OW89469   3.154   5.177   4.301  0.0895 -0.4057 -0.1016
61169SOL    HW189470   3.242   5.140   4.309 -0.3981 -1.5325  0.2417
61169SOL    HW289471   3.168   5.267   4.271  1.3461 -0.6249 -0.2094
61170SOL     OW89472   0.845   8.200   1.908  0.3867  0.0042 -0.6420
61170SOL    HW189473   0.927   8.218   1.862  0.9639 -0.0868  0.3324
61170SOL    HW289474   0.867   8.134   1.973 -0.4155  0.1295 -0.2294
61171SOL     OW89475   6.807   8.557   0.840  0.4651 -0.5361  0.2359
61171SOL    HW189476   6.770   8.565   0.928  1.2409  0.5867  0.4729
61171SOL    HW289477   6.833   8.646   0.816  0.2947 -0.8243 -1.1268
61172SOL     OW89478   2.313   3.243  10.575 -0.0645 -0.0076  0.6070
61172SOL    HW189479   2.240   3.208  10.525  0.3622  0.7367 -0.5927
61172SOL    HW289480   2.388   3.240  10.514 -0.1001  3.3348  0.1891
61173SOL     OW89481   0.909   6.168   3.545  0.7968  0.1258 -0.1923
61173SOL    HW189482   0.969   6.094   3.542  2.6612  1.5642 -2.9453
61173SOL    HW289483   0.847   6.152   3.473  0.1548  0.4651  0.2698
61174SOL     OW89484   6.285   5.910   9.979 -0.1113 -0.6984 -0.2180
61174SOL    HW189485   6.309   5.848   9.911 -0.9235  0.6558 -1.8079
61174SOL    HW289486   6.367   5.953  10.003 -0.1531  0.5761 -2.1901
61175SOL     OW89487   6.662  11.514   3.649  0.0019  0.6298  0.3545
61175SOL    HW189488   6.681  11.520   3.742  0.4616 -1.4740  0.4586
61175SOL    HW289489   6.745  11.535   3.606 -0.0380  0.9641  0.4387
61176SOL     OW89490  11.754   4.077   5.990  0.1213  0.0502 -0.3886
61176SOL    HW189491  11.850   4.073   5.995  0.2902  0.9419 -2.3046
61176SOL    HW289492  11.732   4.167   6.013 -0.2891 -0.1541  0.0527
61177SOL     OW89493   0.779   0.489   4.325 -0.2533 -0.1421  0.2468
61177SOL    HW189494   0.843   0.513   4.392 -0.4725 -1.4683  0.9644
61177SOL    HW289495   0.820   0.416   4.279 -0.1484  0.6871 -1.0256
61178SOL     OW89496   7.674   7.371   5.456  0.0481  0.1449 -0.4757
61178SOL    HW189497   7.718   7.301   5.504  0.9992  0.9241 -0.1600
61178SOL    HW289498   7.643   7.330   5.376 -0.4437 -0.8969  0.2199
61179SOL     OW89499   6.516   5.942   7.464 -0.0460  0.2054 -0.6501
61179SOL    HW189500   6.530   5.922   7.371  2.9749 -0.0391 -0.2604
61179SOL    HW289501   6.561   5.871   7.511 -0.6513  0.8539  0.9803
61180SOL     OW89502  11.448  10.751   4.390  0.2838 -0.9717 -0.4804
61180SOL    HW189503  11.495  10.747   4.474  0.7263  0.3983 -0.6388
61180SOL    HW289504  11.507  10.709   4.328  0.8626 -0.1628 -0.4854
61181SOL     OW89505   8.879  12.448  11.118 -0.6887  0.2283 -0.1977
61181SOL    HW189506   8.815  12.518  11.111  0.2689  1.1927  0.4926
61181SOL    HW289507   8.927  12.466  11.198  0.1428 -0.7405 -0.4479
61182SOL     OW89508   8.667   6.248   7.668  0.5105  0.1231  0.1971
61182SOL    HW189509   8.691   6.318   7.728  0.0439 -0.2346  0.8030
61182SOL    HW289510   8.745   6.237   7.612  1.8241 -1.0018  2.1219
61183SOL     OW89511   5.592   6.127   7.347 -0.2601 -0.0770 -0.4590
61183SOL    HW189512   5.555   6.048   7.306  0.3900 -0.2121 -0.8096
61183SOL    HW289513   5.608   6.102   7.438  0.2064 -0.4558 -0.6365
61184SOL     OW89514   0.216   1.105   5.256 -0.1457 -0.1922 -1.0057
61184SOL    HW189515   0.151   1.092   5.326 -0.6709  0.8785 -1.2734
61184SOL    HW289516   0.276   1.171   5.290  1.0956 -1.4816 -0.5909
61185SOL     OW89517  11.069   1.535   0.079  0.5996 -1.0338 -0.6322
61185SOL    HW189518  11.034   1.614   0.039 -1.5856 -1.4925  0.2391
61185SOL    HW289519  11.065   1.469   0.009  2.1672 -0.4833 -1.2760
61186SOL     OW89520   4.826   2.829  11.943  0.0063 -0.2258  0.2959
61186SOL    HW189521   4.898   2.788  11.895  0.5753 -0.2887  1.1880
61186SOL    HW289522   4.840   2.923  11.933 -1.4776 -0.1638 -2.0203
61187SOL     OW89523   5.569   2.397   4.130 -0.0054 -0.7902  0.2319
61187SOL    HW189524   5.664   2.391   4.141  0.3224 -1.5258 -2.3599
61187SOL    HW289525   5.533   2.324   4.180  0.9747 -1.7268 -0.4065
61188SOL     OW89526   7.579   0.584   6.215 -0.1230 -0.0156  0.3411
61188SOL    HW189527   7.659   0.631   6.241 -0.1422  0.5976 -0.6525
61188SOL    HW289528   7.513   0.653   6.206  0.3446  0.1512 -3.1243
61189SOL     OW89529   9.664  10.698   8.667  0.1162 -0.0455  0.6571
61189SOL    HW189530   9.603  10.724   8.598  0.9019  4.8607  1.4429
61189SOL    HW289531   9.750  10.709   8.629  0.5534  2.2837  2.1217
61190SOL     OW89532   5.862   6.183   5.559  0.1102 -0.0242 -0.5035
61190SOL    HW189533   5.931   6.121   5.580 -0.0373  0.1785  0.6655
61190SOL    HW289534   5.803   6.179   5.635  0.0725  1.4891 -0.4332
61191SOL     OW89535   4.810   5.176   0.077 -0.0532 -0.5440  0.2390
61191SOL    HW189536   4.829   5.123   0.000 -0.6250 -0.8272  0.2883
61191SOL    HW289537   4.819   5.267   0.047  1.0927 -0.6650  0.2007
61192SOL     OW89538   6.139  11.699   5.246 -0.2051  0.0333  0.4060
61192SOL    HW189539   6.215  11.726   5.298 -0.9922 -0.0355  1.6025
61192SOL    HW289540   6.165  11.615   5.208  0.1052 -0.2628  1.2668
61193SOL     OW89541   3.616   2.752   7.050  0.2765 -0.0511  0.6708
61193SOL    HW189542   3.696   2.700   7.055  0.9668  1.0756  2.0655
61193SOL    HW289543   3.634   2.819   6.984  0.0366 -0.5021  0.1409
61194SOL     OW89544  10.655  10.589   8.140 -0.2449 -0.2524  0.3710
61194SOL    HW189545  10.689  10.525   8.203  0.0033 -0.4897  0.0005
61194SOL    HW289546  10.717  10.586   8.067 -1.8639 -1.8481 -1.0576
61195SOL     OW89547   1.312   1.583   9.911 -0.1910 -0.3911  0.0582
61195SOL    HW189548   1.383   1.614   9.854 -1.2528  2.0945 -0.0275
61195SOL    HW289549   1.237   1.638   9.887 -0.7848  0.5427  3.5479
61196SOL     OW89550   8.874   8.979   6.543 -0.6155 -0.2483 -0.1048
61196SOL    HW189551   8.878   9.070   6.572  0.0114 -0.5271  0.7094
61196SOL    HW289552   8.850   8.930   6.622 -0.2464 -0.8647 -0.3744
61197SOL     OW89553   1.208   8.246   5.898 -0.4881 -0.1163 -0.5546
61197SOL    HW189554   1.176   8.184   5.833  0.1704  0.3411 -1.3238
61197SOL    HW289555   1.229   8.325   5.849 -2.1516  1.0770  0.5230
61198SOL     OW89556   6.543   1.831  10.587  0.5504 -0.1999 -0.3748
61198SOL    HW189557   6.478   1.806  10.653  0.1440  2.1069  0.2051
61198SOL    HW289558   6.620   1.779  10.608 -0.2378 -1.0043  0.6518
61199SOL     OW89559  11.215  10.291   6.359  0.2331 -0.0937 -0.6674
61199SOL    HW189560  11.194  10.205   6.322 -0.0525 -0.4886  0.3959
61199SOL    HW289561  11.164  10.353   6.306  1.1453 -0.4581 -2.0470
61200SOL     OW89562  11.576   5.994   4.636  0.6766 -0.4457 -0.4692
61200SOL    HW189563  11.651   5.975   4.580  0.3913  0.1186 -1.0533
61200SOL    HW289564  11.547   6.081   4.609 -0.4083 -0.8047 -0.4987
61201SOL     OW89565   4.740  11.226   3.034 -0.5811 -0.8866  0.0298
61201SOL    HW189566   4.722  11.313   3.070 -1.9226  0.4994 -3.5288
61201SOL    HW289567   4.822  11.199   3.077 -0.4386  1.8239  1.7165
61202SOL     OW89568   4.970   1.928   7.500  0.1824  0.0532  0.7909
61202SOL    HW189569   5.003   2.003   7.450 -1.0176 -0.1630 -0.3799
61202SOL    HW289570   4.890   1.960   7.541 -0.0534 -0.4411  0.7142
61203SOL     OW89571   4.128   7.982   5.618 -0.0604  0.0535 -0.3165
61203SOL    HW189572   4.133   8.065   5.571 -0.2913  0.4253  0.2897
61203SOL    HW289573   4.151   8.005   5.708  0.4301 -0.6505 -0.2606
61204SOL     OW89574   7.692   1.145   9.333 -0.4465  0.1265  0.7080
61204SOL    HW189575   7.759   1.146   9.265 -2.3448  1.1810 -1.2699
61204SOL    HW289576   7.715   1.219   9.390 -0.0933  0.6504 -0.1039
61205SOL     OW89577   5.116   4.370   8.470 -0.0552 -0.1236  0.0493
61205SOL    HW189578   5.048   4.312   8.506  1.8587 -2.4441  0.1480
61205SOL    HW289579   5.124   4.440   8.534 -2.0811  0.0454  0.1979
61206SOL     OW89580   4.569   4.498   5.481  0.2398 -0.0610 -0.2448
61206SOL    HW189581   4.509   4.526   5.412 -0.8289  0.0787  0.7170
61206SOL    HW289582   4.601   4.580   5.520 -1.2828 -0.1032  1.2013
61207SOL     OW89583   9.178   3.391  11.650 -0.2225 -0.1455 -0.3933
61207SOL    HW189584   9.248   3.399  11.585 -0.0194 -0.9376 -0.2738
61207SOL    HW289585   9.216   3.425  11.731  0.0491 -0.6223 -0.3154
61208SOL     OW89586   5.002   8.661   1.410 -0.1097 -0.2892 -0.2783
61208SOL    HW189587   5.083   8.613   1.390  0.7581  1.1823 -0.3995
61208SOL    HW289588   5.007   8.679   1.504  0.4380  1.0648 -0.5435
61209SOL     OW89589  11.304  10.981   5.332 -0.2032  0.0327 -0.0804
61209SOL    HW189590  11.257  10.909   5.290  1.3433 -1.1069  0.0555
61209SOL    HW289591  11.342  11.030   5.259 -1.0397  0.5854 -0.1604
61210SOL     OW89592   9.933   5.635   6.875  0.1098 -0.0832 -0.0244
61210SOL    HW189593   9.954   5.674   6.959  2.9249 -0.7402 -0.3469
61210SOL    HW289594   9.871   5.697   6.835  0.5322  1.4279  1.5514
61211SOL     OW89595   7.462  12.238   3.987  0.2197 -0.0494  0.2480
61211SOL    HW189596   7.374  12.202   4.000 -0.2104  0.1033 -1.9867
61211SOL    HW289597   7.479  12.229   3.894  2.1733  0.8893  0.4575
61212SOL     OW89598   5.244   5.905  10.897 -0.3530 -0.1449 -0.4261
61212SOL    HW189599   5.261   5.811  10.887  1.6616 -0.1708  2.1516
61212SOL    HW289600   5.176   5.910  10.964  0.2094  0.2156  0.1291
61213SOL     OW89601   1.356   8.258  10.440 -0.0269 -0.4198  0.2181
61213SOL    HW189602   1.407   8.280  10.361 -0.3363 -0.8058 -0.0924
61213SOL    HW289603   1.380   8.168  10.460 -1.6247 -1.1048 -0.7612
61214SOL     OW89604  11.889   3.298  12.233 -0.9768  0.2849  0.5039
61214SOL    HW189605  11.873   3.257  12.148 -0.5563  1.0019  0.0724
61214SOL    HW289606  11.852   3.386  12.225 -1.1545  0.2760  1.1513
61215SOL     OW89607   0.474   6.440  11.057 -0.0620 -0.1482 -0.1391
61215SOL    HW189608   0.480   6.381  10.982  1.6775  1.1018 -1.0745
61215SOL    HW289609   0.530   6.514  11.033 -0.7288  1.0362  1.7428
61216SOL     OW89610   3.527   2.496   1.123 -0.3238 -0.0411  0.3789
61216SOL    HW189611   3.512   2.579   1.167  1.1819 -0.0215  0.9041
61216SOL    HW289612   3.622   2.492   1.110 -0.2920 -1.9356  0.9091
61217SOL     OW89613   4.268   6.081   7.197  0.1935  0.1759 -0.3151
61217SOL    HW189614   4.240   6.050   7.110  0.7825  3.0253 -1.6432
61217SOL    HW289615   4.186   6.107   7.240  0.1085  2.8471 -1.8390
61218SOL     OW89616   3.922   3.224   1.683 -0.4354 -0.0289  0.2878
61218SOL    HW189617   3.848   3.261   1.636 -1.4735 -3.5906 -1.2322
61218SOL    HW289618   3.885   3.150   1.732  1.6920 -0.2283  1.7392
61219SOL     OW89619  12.179   1.528  10.849  0.2488  0.1175  1.0435
61219SOL    HW189620  12.133   1.600  10.893 -1.6180  0.7155 -1.6355
61219SOL    HW289621  12.109   1.472  10.816  1.6334 -1.8758  1.3107
61220SOL     OW89622   6.744  12.075  11.077 -0.2567 -0.2924 -0.1638
61220SOL    HW189623   6.805  12.144  11.102  1.0205 -1.0693 -1.0627
61220SOL    HW289624   6.695  12.112  11.003 -0.3390  0.0360  0.0516
61221SOL     OW89625   2.662   3.704   0.657 -0.2522  0.0658  0.6269
61221SOL    HW189626   2.739   3.692   0.713 -0.4256  1.4225  1.2155
61221SOL    HW289627   2.686   3.777   0.599 -0.4356 -0.6976 -0.4382
61222SOL     OW89628   4.023   2.287   3.306  0.1028 -0.5052  0.2434
61222SOL    HW189629   3.973   2.226   3.360 -0.1929 -0.8871 -0.4458
61222SOL    HW289630   4.114   2.267   3.325  0.0153 -1.2978 -0.0991
61223SOL     OW89631  10.058  10.158   5.768 -0.1718  0.0237 -0.0359
61223SOL    HW189632  10.114  10.081   5.769  1.0920  0.9147  1.0656
61223SOL    HW289633   9.975  10.127   5.731  0.2936 -1.8542  0.4006
61224SOL     OW89634   4.877   7.490  11.136  0.1579 -0.6995  0.0192
61224SOL    HW189635   4.911   7.561  11.190  1.5190  0.8186 -2.6429
61224SOL    HW289636   4.823   7.438  11.196  1.4061  0.9240  2.7436
61225SOL     OW89637   6.094   0.617   7.533  0.0081  0.3712  0.0004
61225SOL    HW189638   6.161   0.569   7.485 -1.3384  0.4733 -2.1219
61225SOL    HW289639   6.137   0.698   7.561  0.4773  1.0199 -2.4151
61226SOL     OW89640   3.176   5.880  11.997 -0.2985 -0.0868 -0.6042
61226SOL    HW189641   3.168   5.883  12.092 -1.4020 -0.5671 -0.6603
61226SOL    HW289642   3.160   5.971  11.970  1.6835  0.4060 -0.2601
61227SOL     OW89643  10.415   6.349   5.501  0.2690  0.2365 -0.1254
61227SOL    HW189644  10.370   6.390   5.574 -0.2541 -0.2900 -0.1478
61227SOL    HW289645  10.365   6.375   5.424 -0.1123 -0.5076 -0.1305
61228SOL     OW89646   7.479   1.828  10.822  0.8680 -0.3147  0.2618
61228SOL    HW189647   7.439   1.792  10.901  0.7994 -0.2877  0.2391
61228SOL    HW289648   7.405   1.860  10.769  0.6524 -2.8151 -1.0778
61229SOL     OW89649  12.200   1.105  12.424  0.1662 -0.0041  0.3731
61229SOL    HW189650  12.250   1.101  12.505  0.9320  0.2889 -0.0697
61229SOL    HW289651  12.179   1.198  12.414 -0.5680 -0.1369  0.6051
61230SOL     OW89652  10.325   8.990   6.024  0.1934  0.1678  0.2170
61230SOL    HW189653  10.364   8.942   6.097  1.3790  0.0033 -0.5057
61230SOL    HW289654  10.399   9.032   5.980 -0.3560 -0.6579 -1.5762
61231SOL     OW89655   8.567  12.294  10.519 -0.9098  0.1208 -0.3743
61231SOL    HW189656   8.631  12.333  10.460  0.2237 -0.5548  0.3781
61231SOL    HW289657   8.567  12.201  10.498  0.1277 -0.2679  1.2140
61232SOL     OW89658  12.445   4.690   2.846  0.3657  0.0892 -0.1897
61232SOL    HW189659  12.414   4.770   2.889 -0.0872  0.3246 -0.9385
61232SOL    HW289660  12.451   4.626   2.917 -0.9713  0.2929  0.1383
61233SOL     OW89661   9.501   1.982   4.189  0.9163  0.4727 -0.1628
61233SOL    HW189662   9.508   2.019   4.101  0.4379 -0.4155 -0.5887
61233SOL    HW289663   9.486   1.889   4.174  1.0398  0.2838  0.8667
61234SOL     OW89664   2.493   2.983  11.664 -0.2733 -0.1824  0.2031
61234SOL    HW189665   2.486   2.983  11.568  3.2741  0.9812 -0.2139
61234SOL    HW289666   2.471   3.073  11.689 -0.4926 -0.2891  0.3924
61235SOL     OW89667   7.437   3.321   0.590  0.2232 -0.2873  0.0756
61235SOL    HW189668   7.393   3.240   0.617  1.1129 -0.5648  0.7430
61235SOL    HW289669   7.410   3.334   0.500 -0.8625 -0.6965  0.3274
61236SOL     OW89670  10.183  11.356   6.556 -0.2856  0.5265 -0.2589
61236SOL    HW189671  10.258  11.301   6.578 -1.3123 -1.5675 -1.7225
61236SOL    HW289672  10.130  11.356   6.636 -0.2543 -0.6137 -0.2233
61237SOL     OW89673  11.694   1.777   4.563 -0.6768 -0.0101 -0.4204
61237SOL    HW189674  11.601   1.776   4.584 -0.7233  2.4089 -0.2749
61237SOL    HW289675  11.699   1.819   4.477  0.2327 -1.1342 -0.9558
61238SOL     OW89676   4.043   4.629   5.056 -0.2666  0.3677  0.3595
61238SOL    HW189677   4.121   4.575   5.065  0.9209  2.2410  2.0018
61238SOL    HW289678   4.050   4.667   4.968 -0.2023 -0.7028 -0.1204
61239SOL     OW89679  10.584   0.912   4.278  0.3380  0.8194 -0.2170
61239SOL    HW189680  10.670   0.903   4.319  0.7789 -1.6192 -1.4648
61239SOL    HW289681  10.603   0.949   4.192  0.1362  0.5289 -0.3889
61240SOL     OW89682   7.727   8.313   5.386 -0.1481  0.3904  0.1097
61240SOL    HW189683   7.648   8.367   5.397  0.4603  1.3714 -0.2300
61240SOL    HW289684   7.787   8.345   5.454  0.6199  0.8946 -0.7884
61241SOL     OW89685   2.287  10.343   4.065 -0.0142 -0.1891  0.4543
61241SOL    HW189686   2.367  10.296   4.040  0.9595  1.2107  0.7545
61241SOL    HW289687   2.261  10.390   3.986  0.9004  1.2619  0.9591
61242SOL     OW89688   4.817   1.093  11.732  0.3036 -0.5848  0.0438
61242SOL    HW189689   4.841   1.143  11.654 -1.6420 -0.7480 -0.7290
61242SOL    HW289690   4.886   1.028  11.740  2.1801  1.3253  0.2943
61243SOL     OW89691   6.527   2.831   7.560  0.0726 -0.0372  0.1403
61243SOL    HW189692   6.485   2.878   7.489 -0.9121 -1.7004 -0.4411
61243SOL    HW289693   6.608   2.796   7.522  0.3663  0.4316  0.3230
61244SOL     OW89694  11.037  12.159   9.345 -0.0061 -0.9212 -0.1064
61244SOL    HW189695  11.070  12.153   9.256 -0.3541 -1.1483 -0.2213
61244SOL    HW289696  11.026  12.253   9.360  2.6708 -0.6497  0.6736
61245SOL     OW89697   5.999   2.046   5.105 -0.1603 -0.1494  0.3159
61245SOL    HW189698   5.955   1.963   5.124 -0.2519 -0.1006  0.3167
61245SOL    HW289699   5.988   2.058   5.011 -0.4334  0.0255  0.3686
61246SOL     OW89700   2.455   9.628  11.597 -0.0537  0.5117  0.0048
61246SOL    HW189701   2.468   9.691  11.668  0.2110  1.5878 -0.9719
61246SOL    HW289702   2.503   9.551  11.625  2.1525  1.7677 -0.0866
61247SOL     OW89703   3.810   2.809   4.733 -1.0114  0.2108 -0.1850
61247SOL    HW189704   3.838   2.889   4.776 -2.0263  0.0546  0.8170
61247SOL    HW289705   3.734   2.835   4.681 -1.8492 -0.2385  0.7894
61248SOL     OW89706   0.928  12.400  10.026 -0.3927  0.0267  0.1085
61248SOL    HW189707   0.852  12.455  10.042  0.3345  0.7208  1.3206
61248SOL    HW289708   0.960  12.377  10.113  0.4159 -0.7765 -0.3816
61249SOL     OW89709   9.867   0.975   4.098  0.1833  0.2157 -0.2184
61249SOL    HW189710   9.913   1.031   4.035  0.7826 -1.5501 -1.3995
61249SOL    HW289711   9.933   0.954   4.164 -0.4817  2.1817  1.1782
61250SOL     OW89712   9.992   0.176   6.709 -0.3325 -0.2145  0.1055
61250SOL    HW189713   9.941   0.240   6.659  2.4692  0.8781 -1.6167
61250SOL    HW289714  10.024   0.225   6.785  1.0983  0.3010 -0.7675
61251SOL     OW89715   8.548   0.015  11.681  0.3969 -0.2382  0.6015
61251SOL    HW189716   8.560   0.070  11.758  2.1390  2.3979 -1.3515
61251SOL    HW289717   8.617   0.044  11.620 -2.0919 -0.6592 -2.7070
61252SOL     OW89718   2.497  11.638   8.910 -0.0557  0.6730  0.2090
61252SOL    HW189719   2.431  11.598   8.854 -1.0363  0.6200  1.3561
61252SOL    HW289720   2.456  11.642   8.996  0.6131  2.6567  0.4956
61253SOL     OW89721   9.453  11.752   3.806 -0.0268 -0.4922  0.6673
61253SOL    HW189722   9.439  11.676   3.864 -2.7099 -0.5607  0.0414
61253SOL    HW289723   9.422  11.827   3.857 -0.2256 -0.2397  0.1752
61254SOL     OW89724   0.728   3.007   8.283 -0.1658 -0.3884 -0.1223
61254SOL    HW189725   0.793   2.976   8.219 -3.6168 -2.7803 -2.8705
61254SOL    HW289726   0.647   3.013   8.233 -2.2588  1.9792  3.1792
61255SOL     OW89727   9.398   1.018   6.958  0.1593  0.3824 -0.0186
61255SOL    HW189728   9.473   1.059   6.915  0.4252  0.1089  0.1859
61255SOL    HW289729   9.335   1.090   6.970  0.2462  0.5399 -0.5014
61256SOL     OW89730   0.735  11.402   6.692 -0.3428  0.0759 -0.3389
61256SOL    HW189731   0.692  11.475   6.647 -0.6364  0.2716  0.2421
61256SOL    HW289732   0.666  11.337   6.702  0.1272 -0.6434 -1.6018
61257SOL     OW89733   7.977   4.129   7.137  0.0050  0.4223 -0.2652
61257SOL    HW189734   7.944   4.075   7.066 -0.5196  1.0801 -0.5403
61257SOL    HW289735   8.060   4.089   7.162  0.5067  0.5178 -1.6606
61258SOL     OW89736  12.355   3.562   7.634 -0.4014 -0.4495 -0.2174
61258SOL    HW189737  12.352   3.579   7.540  0.6755  0.7201 -0.0563
61258SOL    HW289738  12.300   3.484   7.645  1.7692 -2.4087 -2.2009
61259SOL     OW89739   1.229  10.627  11.834 -0.1704  0.0746 -0.0289
61259SOL    HW189740   1.258  10.636  11.743 -0.6913  1.1673 -0.1103
61259SOL    HW289741   1.232  10.533  11.851  0.0130 -0.1391 -1.1534
61260SOL     OW89742   7.554   7.134  11.622 -0.7457  0.2873  0.3693
61260SOL    HW189743   7.634   7.155  11.574 -0.5939  3.2022  1.7101
61260SOL    HW289744   7.546   7.203  11.687 -3.3488 -1.0109  1.5655
61261SOL     OW89745  10.032   1.457   4.332  0.0599  0.4146  0.1555
61261SOL    HW189746   9.974   1.442   4.406 -0.5920  0.2284 -0.3907
61261SOL    HW289747   9.976   1.494   4.264  0.5987  0.3404 -0.3375
61262SOL     OW89748   1.788   5.184   4.468 -0.1754 -0.6999  0.3843
61262SOL    HW189749   1.826   5.119   4.409 -0.0701 -0.8784  0.6495
61262SOL    HW289750   1.699   5.196   4.435 -0.2325 -1.0593  0.4027
61263SOL     OW89751   4.289   5.147   4.901 -0.3810 -0.7566 -0.1713
61263SOL    HW189752   4.367   5.133   4.847  0.1820 -0.1331  0.4711
61263SOL    HW289753   4.221   5.094   4.858  0.5732 -1.9286 -0.2964
61264SOL     OW89754   8.632   7.907   4.348  0.1098  0.2358 -0.5348
61264SOL    HW189755   8.614   8.000   4.336 -0.0787  0.3973  0.8450
61264SOL    HW289756   8.694   7.903   4.420 -0.8899 -0.7543  0.3171
61265SOL     OW89757   6.013   9.521   7.951  0.4440  1.0750  0.5388
61265SOL    HW189758   6.038   9.543   7.861 -1.4995 -0.1940 -0.3939
61265SOL    HW289759   5.950   9.589   7.975 -0.7336  0.1885  0.0566
61266SOL     OW89760  12.460   4.919   3.556 -0.1042  0.4082 -0.1619
61266SOL    HW189761  12.387   4.858   3.541  0.5641 -0.1062 -1.4300
61266SOL    HW289762  12.418   5.004   3.569 -0.9239  0.8308 -4.2653
61267SOL     OW89763   2.392   4.935   0.095 -0.2098 -0.0887  0.3104
61267SOL    HW189764   2.447   5.005   0.062 -1.3185  0.2691 -0.8669
61267SOL    HW289765   2.329   4.979   0.153  0.3943 -0.4225  1.2458
61268SOL     OW89766   4.775  10.699   4.832 -0.0917 -0.7217 -0.6647
61268SOL    HW189767   4.724  10.618   4.824 -0.0320 -1.1382  2.0401
61268SOL    HW289768   4.858  10.680   4.790  0.2793 -2.4696  0.7189
61269SOL     OW89769   9.653  10.891   2.245 -0.0086  0.1725  0.4836
61269SOL    HW189770   9.670  10.839   2.324 -0.0311 -1.2340 -0.3965
61269SOL    HW289771   9.575  10.941   2.266  0.8511  0.9980  1.8877
61270SOL     OW89772   3.288   4.348   0.236  0.1247 -0.1802 -0.3649
61270SOL    HW189773   3.344   4.317   0.307 -0.6335 -1.5182 -0.3154
61270SOL    HW289774   3.249   4.429   0.269  2.3835  1.0558 -0.5984
61271SOL     OW89775   8.912  12.227   2.208 -0.0970 -0.3039 -0.8342
61271SOL    HW189776   8.925  12.259   2.298 -2.7024 -1.0029 -0.1377
61271SOL    HW289777   8.987  12.261   2.160  0.1470  2.1172  1.0690
61272SOL     OW89778   3.733   7.094   8.850  0.3538  0.0515 -0.1582
61272SOL    HW189779   3.672   7.044   8.796 -0.2907  0.4203  0.2148
61272SOL    HW289780   3.779   7.028   8.902  0.1596 -0.2170 -0.3251
61273SOL     OW89781  11.257   1.491   6.910 -0.3915  0.3964  0.2283
61273SOL    HW189782  11.225   1.581   6.898  1.6845  0.8474 -3.8321
61273SOL    HW289783  11.186   1.436   6.875 -1.1568  0.4731  1.5881
61274SOL     OW89784   4.464   6.907   3.044  0.3142  0.0523  0.2415
61274SOL    HW189785   4.519   6.984   3.027  2.2206 -1.1982  0.3743
61274SOL    HW289786   4.463   6.860   2.961  1.9709 -1.4049  0.9703
61275SOL     OW89787   1.933   1.596   4.490  0.1238 -0.0125 -0.2756
61275SOL    HW189788   1.963   1.660   4.424  1.9218  0.4262  0.9116
61275SOL    HW289789   2.012   1.549   4.516 -0.7077 -0.7826  0.9481
61276SOL     OW89790   6.732   3.198   1.082 -0.1145 -0.1426 -0.3959
61276SOL    HW189791   6.712   3.205   1.175 -0.6162 -0.8001 -0.4464
61276SOL    HW289792   6.824   3.223   1.075  0.0966 -0.6894  0.3598
61277SOL     OW89793   7.282   4.022   5.599  0.4776  0.3466  0.2883
61277SOL    HW189794   7.304   4.007   5.691 -0.4820  1.0050  0.6400
61277SOL    HW289795   7.230   4.103   5.600 -0.6178 -0.3295 -0.6772
61278SOL     OW89796   0.340   9.988   7.698 -0.5639 -0.4815  0.2414
61278SOL    HW189797   0.353  10.049   7.625  1.5211 -1.2612 -0.1187
61278SOL    HW289798   0.299  10.041   7.766 -0.3824  0.8792 -0.6570
61279SOL     OW89799  11.556  11.555   4.578 -0.6258  0.5755 -0.3268
61279SOL    HW189800  11.606  11.483   4.616 -0.1837  0.2756 -1.4205
61279SOL    HW289801  11.543  11.616   4.650 -2.5210 -1.3584  1.1217
61280SOL     OW89802   8.818   9.282   8.136  0.3419  0.5750  0.2430
61280SOL    HW189803   8.902   9.244   8.160  0.4167  1.1490  0.8933
61280SOL    HW289804   8.832   9.376   8.138  0.1245  0.6723 -1.2555
61281SOL     OW89805  12.144  10.674   0.945  0.2553  0.0326  0.0173
61281SOL    HW189806  12.136  10.650   0.852 -0.5516  1.1668 -0.2380
61281SOL    HW289807  12.202  10.609   0.982  1.1085 -0.0812 -1.4414
61282SOL     OW89808  10.753   9.783   0.381  0.3060  0.0598 -0.0570
61282SOL    HW189809  10.761   9.700   0.428 -0.7291 -0.4853 -0.7956
61282SOL    HW289810  10.827   9.836   0.412  1.2593 -1.3081  0.0702
61283SOL     OW89811   0.367   0.457   1.295  0.0663 -0.1788  0.4837
61283SOL    HW189812   0.302   0.522   1.323 -0.5074 -0.2828 -0.5338
61283SOL    HW289813   0.315   0.380   1.272  0.3699  0.1398 -1.5182
61284SOL     OW89814   9.338  10.845   8.232 -0.2418  0.8681  0.6056
61284SOL    HW189815   9.250  10.833   8.268 -0.5059 -0.5716 -0.4509
61284SOL    HW289816   9.339  10.935   8.200 -1.4062  0.8314  0.4338
61285SOL     OW89817   4.141   2.245   9.134 -0.3288  0.3667  0.4587
61285SOL    HW189818   4.170   2.324   9.087  1.1109 -1.3404 -1.7228
61285SOL    HW289819   4.152   2.174   9.071 -1.6708 -1.6119  2.3054
61286SOL     OW89820  11.682   0.625   8.977  0.2105 -0.3333 -0.0849
61286SOL    HW189821  11.632   0.578   8.910  0.4079 -0.9439  0.1878
61286SOL    HW289822  11.684   0.715   8.946  0.1871 -0.5800 -0.8392
61287SOL     OW89823   4.558   3.302  10.437 -0.0219  0.1194 -0.3924
61287SOL    HW189824   4.526   3.383  10.399  1.7726  0.9632 -0.2241
61287SOL    HW289825   4.481   3.247  10.445 -1.0567  1.2667 -1.8413
61288SOL     OW89826   7.072   9.937   0.682 -0.4172 -0.2944 -0.1793
61288SOL    HW189827   7.011  10.008   0.661 -1.9422 -1.8630 -1.3319
61288SOL    HW289828   7.056   9.918   0.774 -0.7523  0.1554 -0.1435
61289SOL     OW89829   1.299   7.700   1.901  0.2501  0.5358  0.1148
61289SOL    HW189830   1.290   7.776   1.843 -0.4151  1.2922  1.1777
61289SOL    HW289831   1.246   7.632   1.859 -1.4470  1.5350  0.5734
61290SOL     OW89832   2.349   5.906  11.531  0.7573  0.0288  0.4672
61290SOL    HW189833   2.278   5.922  11.469  0.0585 -0.8074  1.0128
61290SOL    HW289834   2.362   5.990  11.575  1.3265  0.6558 -0.8542
61291SOL     OW89835   6.284  11.982  11.797 -0.0412 -0.4072  0.0783
61291SOL    HW189836   6.250  12.068  11.823  0.4876 -0.0617 -0.3405
61291SOL    HW289837   6.238  11.962  11.715 -0.3299 -0.6313  0.2928
61292SOL     OW89838  10.321   0.093   8.797 -0.2978  0.4192 -0.2383
61292SOL    HW189839  10.357   0.109   8.884 -3.6361 -3.0426  2.0979
61292SOL    HW289840  10.254   0.160   8.786  0.8854  1.5593 -0.7425
61293SOL     OW89841   9.021   5.717   1.618 -0.3419 -0.2830 -0.0956
61293SOL    HW189842   8.958   5.730   1.548 -0.6115 -0.2885  0.1447
61293SOL    HW289843   9.105   5.743   1.580 -0.3494 -1.0714 -0.6843
61294SOL     OW89844   2.613   3.536  11.523 -0.7234 -0.6279  0.0998
61294SOL    HW189845   2.637   3.612  11.575 -0.3603 -0.4405 -0.3384
61294SOL    HW289846   2.613   3.568  11.432  0.0073 -1.2917 -0.1425
61295SOL     OW89847   8.569   2.024   4.393  0.3369  0.5402 -0.0291
61295SOL    HW189848   8.563   2.118   4.408 -2.5604  0.3172  0.8762
61295SOL    HW289849   8.498   2.005   4.331 -0.0806 -1.2009  0.9230
61296SOL     OW89850   1.493  11.900   5.997  0.3863 -0.0069 -0.6960
61296SOL    HW189851   1.549  11.944   5.933  2.2027 -0.4187  0.5318
61296SOL    HW289852   1.537  11.817   6.016  0.3053  0.3931  1.5773
61297SOL     OW89853   7.815  12.261   0.900 -0.4453  0.2658  0.5941
61297SOL    HW189854   7.771  12.281   0.818  2.2659  1.1528 -0.7430
61297SOL    HW289855   7.859  12.178   0.885 -0.9969 -0.2468  1.6477
61298SOL     OW89856   4.124   8.298   2.402 -0.1108  0.2050 -0.1760
61298SOL    HW189857   4.099   8.375   2.352 -0.1169  1.2259  1.3357
61298SOL    HW289858   4.201   8.264   2.356 -0.6043  0.5985 -1.3421
61299SOL     OW89859   0.828   2.601  10.361  0.2603 -0.1662 -0.8242
61299SOL    HW189860   0.772   2.533  10.325  1.0092 -0.1988 -1.9911
61299SOL    HW289861   0.839   2.664  10.289  1.2094  0.1456 -0.4342
61300SOL     OW89862   4.972   8.456   5.319  0.9261  0.0043 -0.0364
61300SOL    HW189863   5.016   8.388   5.269  1.0017 -0.2411  0.3633
61300SOL    HW289864   5.040   8.493   5.375  0.6061 -0.4695  0.6841
61301SOL     OW89865  10.488   0.520   1.586 -0.7727 -0.4459  0.1149
61301SOL    HW189866  10.490   0.432   1.623 -0.6015 -0.1808  0.7542
61301SOL    HW289867  10.395   0.539   1.575 -0.9735  0.2859  2.4731
61302SOL     OW89868   4.103   0.099   9.830  0.2738  0.2806  0.4282
61302SOL    HW189869   4.094   0.022   9.887 -0.6401  0.0587 -0.0015
61302SOL    HW289870   4.173   0.150   9.870 -0.1494 -0.0190  1.5875
61303SOL     OW89871   4.952   4.359   1.724 -0.5033 -0.1542  0.5667
61303SOL    HW189872   4.991   4.355   1.637 -1.0883  2.3487  0.1117
61303SOL    HW289873   4.880   4.297   1.721  1.5831 -2.7925  0.5289
61304SOL     OW89874   0.856   3.464   5.124 -0.1539 -0.6238  0.2666
61304SOL    HW189875   0.790   3.531   5.103  1.2820  1.1707  1.1531
61304SOL    HW289876   0.868   3.416   5.042 -3.0427 -1.5230  0.2475
61305SOL     OW89877  11.087  11.021   1.887 -0.4272 -0.8621 -0.3383
61305SOL    HW189878  11.007  11.014   1.835  0.0819 -0.3486 -1.1997
61305SOL    HW289879  11.155  11.046   1.825  0.1577 -0.0513  0.5931
61306SOL     OW89880   5.965   7.025  12.118  0.3084 -0.0950  0.8096
61306SOL    HW189881   6.035   6.980  12.071  0.6492  0.7165  0.5106
61306SOL    HW289882   5.978   7.000  12.210  1.2215  0.3225  0.8046
61307SOL     OW89883   6.761   9.250   8.798  0.0732  0.6001  0.0390
61307SOL    HW189884   6.668   9.234   8.808  0.3218 -0.0011  1.7887
61307SOL    HW289885   6.804   9.173   8.835  1.2769  0.9778 -0.4873
61308SOL     OW89886   0.359   4.326   9.729 -0.4306 -0.8527  0.5900
61308SOL    HW189887   0.371   4.384   9.654 -0.3780 -1.5985  0.0114
61308SOL    HW289888   0.386   4.240   9.697 -0.2930 -1.1520  1.5055
61309SOL     OW89889  12.052   3.857  11.126 -0.9125  0.1508  0.2001
61309SOL    HW189890  12.017   3.884  11.041  1.0694 -4.1983 -2.4227
61309SOL    HW289891  12.129   3.912  11.139 -0.1729 -0.2809 -1.9172
61310SOL     OW89892   8.646   6.321   3.171  0.1070 -0.0052 -0.3703
61310SOL    HW189893   8.684   6.277   3.247 -0.1069  0.0509 -0.2317
61310SOL    HW289894   8.556   6.338   3.195  0.3355  1.0339 -0.1951
61311SOL     OW89895   7.681   1.947   7.357  0.8559 -0.1779 -0.2643
61311SOL    HW189896   7.651   1.989   7.277 -2.2108 -2.3710 -0.4555
61311SOL    HW289897   7.677   2.016   7.423  1.1198  1.0783 -1.5150
61312SOL     OW89898  11.912  12.152  10.318 -0.0084 -0.3492  0.0848
61312SOL    HW189899  11.976  12.146  10.247  0.2411  1.8862  0.0612
61312SOL    HW289900  11.932  12.078  10.375  0.5471 -1.5059 -1.5367
61313SOL     OW89901   4.201   9.914   6.034 -0.0110  0.2517  0.0116
61313SOL    HW189902   4.130   9.853   6.013  0.4437 -0.3526  0.1966
61313SOL    HW289903   4.194   9.982   5.968 -0.7662  0.2028  0.0251
61314SOL     OW89904  12.315  11.956   2.579  0.0038  0.7411 -0.1202
61314SOL    HW189905  12.264  12.008   2.517  0.5939  1.9539  0.3799
61314SOL    HW289906  12.405  11.962   2.547  0.6352  3.0008  1.8503
61315SOL     OW89907   8.045  10.297   0.996  0.2177 -0.0302 -0.2312
61315SOL    HW189908   7.980  10.334   0.937  0.9417  2.3774  0.3435
61315SOL    HW289909   8.003  10.297   1.082 -0.1965 -1.7850 -0.4066
61316SOL     OW89910   3.825  11.672   5.576  0.1123 -0.3904 -0.1397
61316SOL    HW189911   3.773  11.751   5.563  1.8162  1.0819  1.2974
61316SOL    HW289912   3.904  11.687   5.523  0.9515 -0.5763  1.0187
61317SOL     OW89913   2.017   2.728   0.120  0.2691 -0.6526 -0.5767
61317SOL    HW189914   2.015   2.768   0.207  0.1150 -0.8479 -0.4891
61317SOL    HW289915   1.930   2.745   0.084  0.1987 -0.9149 -0.5349
61318SOL     OW89916   1.428   1.178   3.443  1.0070 -0.3483  0.5030
61318SOL    HW189917   1.424   1.087   3.412  0.6957 -0.9469  2.2005
61318SOL    HW289918   1.336   1.204   3.451  1.0532 -0.4712  1.5911
61319SOL     OW89919   1.071   3.341   0.068 -0.0711 -0.0378 -0.5365
61319SOL    HW189920   1.080   3.313   0.160  1.5730 -1.3398 -1.0402
61319SOL    HW289921   0.977   3.348   0.055 -0.3440  0.5290  1.3491
61320SOL     OW89922   8.682   4.132   9.331  0.5009 -0.3303 -0.3295
61320SOL    HW189923   8.753   4.180   9.287  1.1262 -0.8254  0.1098
61320SOL    HW289924   8.630   4.200   9.373  0.4701  0.0745 -1.0019
61321SOL     OW89925   0.317  12.477   3.803  0.6882  0.2306 -0.1511
61321SOL    HW189926   0.329  12.386   3.776 -1.5527 -0.6492  1.5555
61321SOL    HW289927   0.400  12.500   3.846  2.3580  0.0272 -3.0206
61322SOL     OW89928   0.294   3.910  12.066 -0.0100  0.0583 -0.8231
61322SOL    HW189929   0.267   3.912  11.975 -1.6566 -1.4994 -0.4216
61322SOL    HW289930   0.231   3.969  12.110 -0.3777 -0.6100 -0.4414
61323SOL     OW89931   5.069   7.562   9.644  0.3626 -0.1286 -0.2460
61323SOL    HW189932   5.017   7.529   9.570 -0.7070  1.6612 -0.3528
61323SOL    HW289933   5.051   7.501   9.715  0.9541 -1.5530 -1.2829
61324SOL     OW89934  11.531  11.744   1.485  0.1095 -0.0761 -0.1299
61324SOL    HW189935  11.467  11.674   1.471  1.0032 -1.2182  1.1331
61324SOL    HW289936  11.589  11.709   1.553  0.5739  1.9372  0.5728
61325SOL     OW89937  10.128   2.654  11.823  0.1646  0.0505  0.1320
61325SOL    HW189938  10.047   2.631  11.869  0.6317 -1.2046  0.3382
61325SOL    HW289939  10.155   2.737  11.864 -0.9503  0.4388  0.1273
61326SOL     OW89940   1.620   5.175   2.627 -0.3985 -0.3752  0.0552
61326SOL    HW189941   1.533   5.143   2.604 -0.5991 -0.0856  0.4101
61326SOL    HW289942   1.604   5.252   2.682  0.0841  0.3852 -0.8466
61327SOL     OW89943   1.927   9.664   1.019 -0.0502  0.0720 -0.1105
61327SOL    HW189944   2.013   9.673   0.979 -0.8131  1.7128 -1.5296
61327SOL    HW289945   1.921   9.737   1.080 -1.3703  1.6768 -2.0062
61328SOL     OW89946  11.873   2.873   6.182  0.3802  0.3393 -0.7263
61328SOL    HW189947  11.794   2.915   6.149 -0.7909 -0.3542  1.1065
61328SOL    HW289948  11.941   2.900   6.120 -1.3834  0.3921 -2.7614
61329SOL     OW89949   5.347   5.026   4.400 -0.7125 -0.2068  0.1984
61329SOL    HW189950   5.287   5.057   4.333 -0.4063 -1.5860 -0.7437
61329SOL    HW289951   5.432   5.023   4.357  0.1616  1.9514  1.5733
61330SOL     OW89952   6.643  12.198   2.284  0.2025  0.3601 -0.7851
61330SOL    HW189953   6.606  12.248   2.357 -0.7944 -1.2805 -0.1198
61330SOL    HW289954   6.569  12.154   2.244  1.1733 -1.6017 -0.5374
61331SOL     OW89955  12.435   7.282   7.417 -0.5284 -0.3950 -0.1092
61331SOL    HW189956  12.366   7.221   7.392  0.2145 -1.5731  0.6323
61331SOL    HW289957  12.506   7.265   7.356 -1.4690  2.0809 -2.0665
61332SOL     OW89958   0.337   3.703   2.247  0.1889  0.5301  0.8246
61332SOL    HW189959   0.322   3.741   2.333 -2.9709  0.4974  0.4233
61332SOL    HW289960   0.300   3.615   2.252 -0.6717  0.7557 -0.6816
61333SOL     OW89961   8.932   3.469  10.208 -0.6056  0.2873  0.3530
61333SOL    HW189962   8.914   3.540  10.269 -0.5356  0.5382  0.0866
61333SOL    HW289963   8.847   3.428  10.193 -0.5312 -0.1513  1.0667
61334SOL     OW89964   5.898   0.408   7.454  0.0505 -0.3716  0.5324
61334SOL    HW189965   5.962   0.463   7.499  0.0526 -1.8678  2.5268
61334SOL    HW289966   5.930   0.401   7.364  1.4834  0.6839  0.9287
61335SOL     OW89967   1.847   2.046   9.104 -0.4298 -0.1201  0.4784
61335SOL    HW189968   1.915   2.107   9.132  1.0178 -0.6198 -1.6851
61335SOL    HW289969   1.875   1.961   9.139  0.5604 -0.4616 -0.9994
61336SOL     OW89970  12.164   7.901   6.673 -0.0249 -0.0904  0.1147
61336SOL    HW189971  12.218   7.841   6.725 -0.4190 -0.9481 -0.4457
61336SOL    HW289972  12.212   7.911   6.591 -0.1937 -0.0143  0.0254
61337SOL     OW89973   2.890   4.193   9.790  0.0779 -0.0870 -0.2417
61337SOL    HW189974   2.931   4.157   9.711 -0.0130  0.7961 -0.7084
61337SOL    HW289975   2.850   4.274   9.760  0.2904  0.4027  0.7814
61338SOL     OW89976   3.432   5.607   7.110  0.2427  0.1557 -0.2184
61338SOL    HW189977   3.474   5.521   7.107  2.7303  1.2689  0.5821
61338SOL    HW289978   3.401   5.621   7.020 -0.2161 -1.5213 -0.3642
61339SOL     OW89979   8.131   0.494   2.853 -0.0043  0.0912 -0.0867
61339SOL    HW189980   8.115   0.589   2.855  2.8805  0.6875 -0.4723
61339SOL    HW289981   8.226   0.486   2.859 -0.1014 -2.7726 -0.9263
61340SOL     OW89982   4.408   9.123   1.726 -0.3319 -0.3198  0.1525
61340SOL    HW189983   4.351   9.198   1.710  0.9597  1.0813  1.7044
61340SOL    HW289984   4.423   9.085   1.639 -1.7950  0.6219 -0.5490
61341SOL     OW89985   2.095   8.980   3.147 -0.3556  0.2943  0.2069
61341SOL    HW189986   2.139   9.041   3.206  0.3754  0.6549 -0.6816
61341SOL    HW289987   2.033   9.034   3.099  0.6704  0.4948 -0.9685
61342SOL     OW89988   7.603   9.189   2.224  0.0336  0.5120  0.4104
61342SOL    HW189989   7.604   9.234   2.139 -0.2157 -0.7890 -0.3167
61342SOL    HW289990   7.510   9.182   2.246 -0.0809 -1.3166 -0.4523
61343SOL     OW89991   1.097   6.341   2.985 -0.1277  0.8075  0.0780
61343SOL    HW189992   1.191   6.324   2.973 -0.6212 -1.2626 -1.4340
61343SOL    HW289993   1.058   6.322   2.900 -2.0114  0.9187  0.8693
61344SOL     OW89994  10.597   7.111  10.652  0.1424  0.5401  0.4293
61344SOL    HW189995  10.626   7.192  10.610  1.7213  0.1522  0.6884
61344SOL    HW289996  10.641   7.112  10.737  1.7584 -1.4822 -0.3204
61345SOL     OW89997  10.784   4.802   1.717  0.1581  0.7313 -0.2730
61345SOL    HW189998  10.702   4.769   1.753  0.2360  1.9201  1.0909
61345SOL    HW289999  10.758   4.850   1.638 -0.4639  1.0945  0.1419
61346SOL     OW90000   4.805  11.182   3.531 -0.1375 -0.6429 -0.4308
61346SOL    HW190001   4.864  11.244   3.489 -0.1892 -0.2374  0.0796
61346SOL    HW290002   4.726  11.183   3.477 -0.1744 -0.1892 -0.3690
61347SOL     OW90003   9.850   1.789   2.228  0.4299  0.1251  0.5169
61347SOL    HW190004   9.831   1.742   2.147  0.9969 -0.2266  0.5769
61347SOL    HW290005   9.780   1.763   2.288  0.9437 -0.9752  0.6695
61348SOL     OW90006   5.460   0.487   2.321 -0.0896 -0.1380  0.0984
61348SOL    HW190007   5.535   0.544   2.334 -0.4731  0.0587  1.7339
61348SOL    HW290008   5.497   0.406   2.286  0.8909 -0.0253  0.8215
61349SOL     OW90009   5.953   3.930  11.682 -0.1066 -0.2486  0.0212
61349SOL    HW190010   5.875   3.963  11.726 -0.5131 -0.0225 -0.8339
61349SOL    HW290011   5.924   3.912  11.592  0.6311 -0.9250 -0.0979
61350SOL     OW90012   3.936   4.938  12.015  0.5995 -0.1333  0.1249
61350SOL    HW190013   4.024   4.940  11.979  0.2615 -3.1556 -1.1782
61350SOL    HW290014   3.879   4.951  11.939 -0.0668 -2.4007  0.1641
61351SOL     OW90015   3.335   6.998   0.928  0.5715  0.6684 -0.1382
61351SOL    HW190016   3.303   6.932   0.867  0.0806 -1.5350  2.3534
61351SOL    HW290017   3.255   7.036   0.966  0.8145 -0.7122  1.8558
61352SOL     OW90018   3.590   3.209   2.652 -0.8144  0.5382  0.0351
61352SOL    HW190019   3.637   3.126   2.642 -2.9783 -0.8196  0.4809
61352SOL    HW290020   3.643   3.272   2.604  2.0550 -0.6009  1.4549
61353SOL     OW90021  12.303   6.148   6.963  0.3441  0.0038 -0.1943
61353SOL    HW190022  12.279   6.068   7.010 -1.5109 -0.1489 -1.2618
61353SOL    HW290023  12.295   6.217   7.027  1.7850 -0.6155  0.6983
61354SOL     OW90024   7.974   1.713  11.861 -0.1725  0.0130  0.1785
61354SOL    HW190025   8.011   1.670  11.783 -0.9819 -0.5813  0.1093
61354SOL    HW290026   7.879   1.706  11.850 -0.3035 -0.5003  1.4492
61355SOL     OW90027   6.616  10.231   9.449  0.5790 -0.1139  0.3200
61355SOL    HW190028   6.665  10.161   9.405  0.0383 -0.3403  0.0749
61355SOL    HW290029   6.557  10.185   9.509 -1.1655  0.0117 -1.2275
61356SOL     OW90030   5.701   2.989   1.896 -0.5227 -0.3973  1.1073
61356SOL    HW190031   5.727   2.992   1.988  0.6005 -0.3638  0.8021
61356SOL    HW290032   5.736   2.906   1.865 -2.5104 -1.3279  1.1480
61357SOL     OW90033   8.007   5.810   6.566 -0.3406 -0.0617  0.8276
61357SOL    HW190034   8.076   5.743   6.563  0.7881  0.9824  2.1690
61357SOL    HW290035   7.946   5.779   6.632  0.2795  0.3063  1.5829
61358SOL     OW90036   4.819  12.165   0.922  0.5539 -0.4353  0.4248
61358SOL    HW190037   4.853  12.075   0.916 -1.9582 -1.4826  0.5142
61358SOL    HW290038   4.845  12.194   1.010  0.8880 -1.3026  0.6312
61359SOL     OW90039   1.275   9.666   2.172 -0.4015 -0.4355  0.3922
61359SOL    HW190040   1.310   9.755   2.172 -1.3183 -0.0486 -0.9902
61359SOL    HW290041   1.184   9.676   2.198 -0.8408 -0.8145 -0.9550
61360SOL     OW90042   5.935   9.162   4.648  0.3595 -0.0931  0.0681
61360SOL    HW190043   5.892   9.118   4.575  0.9907 -0.7603  0.0883
61360SOL    HW290044   5.958   9.091   4.708  2.2507  0.1166 -0.3431
61361SOL     OW90045  10.459  11.325   9.841 -0.5904  0.0020  0.0436
61361SOL    HW190046  10.380  11.338   9.894  0.0553  4.4093  0.2860
61361SOL    HW290047  10.530  11.360   9.895  1.0341 -0.7892 -1.4915
61362SOL     OW90048   0.864   9.949   6.302 -0.1733  0.4051  0.0892
61362SOL    HW190049   0.947   9.905   6.284 -0.2587  0.9664 -2.0249
61362SOL    HW290050   0.889  10.037   6.329 -0.0405 -0.4586  3.1243
61363SOL     OW90051   8.745  10.586   7.790 -0.4141 -0.1348 -0.4242
61363SOL    HW190052   8.672  10.647   7.784 -0.7622 -0.3975  0.7813
61363SOL    HW290053   8.823  10.642   7.790 -0.7319  0.3514  0.8138
61364SOL     OW90054   6.309   2.880   3.876 -0.2434  0.2535  0.4563
61364SOL    HW190055   6.258   2.929   3.811  1.2314  0.3571 -0.6948
61364SOL    HW290056   6.319   2.793   3.838  1.8621  0.7268 -0.2331
61365SOL     OW90057  11.291   9.709   5.707  0.1407  0.0351 -0.5307
61365SOL    HW190058  11.383   9.711   5.679  0.1073  0.9288 -0.6154
61365SOL    HW290059  11.277   9.794   5.748  0.0525 -1.0489  1.8404
61366SOL     OW90060  12.269  11.847   9.152 -0.4841 -0.2589  0.1909
61366SOL    HW190061  12.245  11.867   9.062  0.0421 -0.0745  0.0867
61366SOL    HW290062  12.199  11.790   9.184  0.2813 -1.9153 -0.9580
61367SOL     OW90063   0.700   1.864   4.845 -0.3700 -0.3195  0.4423
61367SOL    HW190064   0.790   1.880   4.817 -0.9427  0.1310 -1.2746
61367SOL    HW290065   0.662   1.951   4.853 -0.5034 -0.4712  1.8441
61368SOL     OW90066   9.078  10.997   7.758 -0.4684  0.3819  0.1272
61368SOL    HW190067   9.112  10.909   7.742 -1.1475  0.4404 -1.9037
61368SOL    HW290068   9.154  11.054   7.750 -0.4608  0.2111 -1.2038
61369SOL     OW90069   8.574   4.497   1.225 -0.4257  0.2312  0.4942
61369SOL    HW190070   8.606   4.586   1.236  0.3586 -0.0027  0.1780
61369SOL    HW290071   8.618   4.465   1.146 -0.4963 -0.5276  0.7515
61370SOL     OW90072   7.650   4.396  11.056 -0.4110  0.2710  0.2028
61370SOL    HW190073   7.703   4.447  10.995  1.6504 -0.5125  1.2343
61370SOL    HW290074   7.604   4.332  11.001  0.7859  0.0948 -0.6248
61371SOL     OW90075  11.092   6.391   4.680  0.3240 -0.2745 -0.4626
61371SOL    HW190076  11.166   6.400   4.620 -0.5117  0.9342 -1.3781
61371SOL    HW290077  11.035   6.465   4.658 -2.0684 -2.1836 -1.1175
61372SOL     OW90078  12.179   2.656   0.905 -0.4501  0.0312 -0.5438
61372SOL    HW190079  12.248   2.589   0.910 -1.0482 -0.6505 -1.1219
61372SOL    HW290080  12.144   2.661   0.994  1.1261  1.2620  0.0542
61373SOL     OW90081  12.292   5.820   3.235  0.0813  0.2888 -0.7232
61373SOL    HW190082  12.292   5.759   3.308  0.9368 -1.2477 -1.9446
61373SOL    HW290083  12.369   5.796   3.183 -0.7187  1.0492 -2.3492
61374SOL     OW90084  11.893   4.416  11.284  0.0596  0.5773  0.1731
61374SOL    HW190085  11.884   4.335  11.233 -0.4062 -0.1233  1.3206
61374SOL    HW290086  11.876   4.486  11.221  0.4770 -0.2047 -0.8488
61375SOL     OW90087   6.808   4.260   4.441  0.3955 -0.2486  0.0938
61375SOL    HW190088   6.840   4.230   4.526  2.9309 -1.6347 -1.2318
61375SOL    HW290089   6.816   4.356   4.445 -1.9546 -0.0282  2.2100
61376SOL     OW90090   8.018   9.299   5.009  0.0422  0.1599  0.2471
61376SOL    HW190091   8.034   9.263   4.922  1.1777 -0.4959  0.7096
61376SOL    HW290092   8.071   9.245   5.068 -1.5297 -0.1022  1.4879
61377SOL     OW90093  11.176   1.180   8.385  0.2569 -0.6431  0.0151
61377SOL    HW190094  11.254   1.185   8.440 -0.5396 -0.7139  1.1664
61377SOL    HW290095  11.132   1.100   8.412 -0.7207 -0.1065  0.0502
61378SOL     OW90096   4.669   1.954   6.516 -0.6026  0.2944 -0.2028
61378SOL    HW190097   4.629   1.867   6.524 -0.4561  0.3360  1.2484
61378SOL    HW290098   4.639   1.987   6.432 -0.9836 -1.0065 -0.5945
61379SOL     OW90099  12.037   5.569   6.366  0.1392  0.1009  0.2353
61379SOL    HW190100  12.027   5.575   6.271  0.5488  0.7978  0.2305
61379SOL    HW290101  12.078   5.483   6.380  0.7784  0.3149 -0.2763
61380SOL     OW90102   2.106   2.861   7.522 -0.1339  0.0681 -0.1238
61380SOL    HW190103   2.019   2.884   7.555 -0.0004  1.5526 -0.7496
61380SOL    HW290104   2.089   2.818   7.438 -0.2857  0.0450 -0.0816
61381SOL     OW90105   2.556   4.840  11.171  0.3060 -0.3826 -0.4413
61381SOL    HW190106   2.607   4.920  11.158  1.5251 -1.4670 -2.9406
61381SOL    HW290107   2.619   4.769  11.164 -0.9774 -1.6680  0.3202
61382SOL     OW90108   1.130   6.951  11.073  0.3890 -0.1089  0.3972
61382SOL    HW190109   1.209   6.980  11.027 -0.4817  0.8673 -0.5223
61382SOL    HW290110   1.130   7.002  11.154  0.1759  0.6522 -0.0738
61383SOL     OW90111   9.333  12.180   5.265  1.0604 -0.1254 -0.2748
61383SOL    HW190112   9.260  12.230   5.229 -0.4187 -1.3805  0.8459
61383SOL    HW290113   9.397  12.247   5.290 -0.6736  1.2446  0.8014
61384SOL     OW90114  11.136   0.191   2.274  0.2560 -0.2334  0.4961
61384SOL    HW190115  11.184   0.125   2.325 -1.1391 -1.6844 -0.0166
61384SOL    HW290116  11.062   0.215   2.330  0.1236  0.0562  0.1969
61385SOL     OW90117   1.077   1.957   5.177 -0.0638  0.1763 -0.1134
61385SOL    HW190118   1.004   2.017   5.191 -1.2960 -1.6157  1.8633
61385SOL    HW290119   1.059   1.916   5.092 -0.6585  0.6641 -0.2282
61386SOL     OW90120   7.271   6.868   6.672  0.1298 -0.3240 -0.7280
61386SOL    HW190121   7.200   6.804   6.678  1.1429 -1.4362 -0.1754
61386SOL    HW290122   7.269   6.913   6.757  0.7610 -1.1278 -0.2669
61387SOL     OW90123   3.579   6.235  11.219  0.4268 -0.2209  0.8723
61387SOL    HW190124   3.611   6.323  11.199 -1.0961  0.7467  2.4180
61387SOL    HW290125   3.654   6.192  11.260  1.0842  0.4955  0.4480
61388SOL     OW90126   7.543   1.262   6.109 -0.8187 -0.2849 -0.1370
61388SOL    HW190127   7.576   1.288   6.195  1.5097 -1.4694 -0.6175
61388SOL    HW290128   7.491   1.338   6.080  1.7956  1.8962  0.5215
61389SOL     OW90129   3.500   3.308   8.817 -0.2632 -1.1135  0.3367
61389SOL    HW190130   3.412   3.315   8.780  1.4048  1.3464 -3.8334
61389SOL    HW290131   3.525   3.399   8.835  1.5562 -1.7192  1.0218
61390SOL     OW90132   1.369   9.931   2.202  0.1958 -0.4862  0.0255
61390SOL    HW190133   1.361   9.950   2.295 -1.7431 -0.0793 -0.1718
61390SOL    HW290134   1.403  10.012   2.164  2.0290 -1.0095  0.4837
61391SOL     OW90135  11.084   1.125   0.327 -0.0395  0.1611 -0.0150
61391SOL    HW190136  11.034   1.200   0.295  1.4265  0.7676 -0.9848
61391SOL    HW290137  11.151   1.163   0.384  0.3918 -0.4563 -0.0925
61392SOL     OW90138   0.002  10.231   1.754 -0.0800  0.1095  0.0993
61392SOL    HW190139  -0.030  10.143   1.775 -0.6673  0.0786 -0.8338
61392SOL    HW290140  -0.066  10.267   1.696 -0.0834  1.3633  0.8510
61393SOL     OW90141  12.474   3.526   9.249 -0.0805  0.1967  0.0052
61393SOL    HW190142  12.408   3.506   9.316 -0.7332 -1.1595 -0.9827
61393SOL    HW290143  12.477   3.622   9.247  0.2582  0.2994  2.2202
61394SOL     OW90144   3.417   2.648   7.244 -0.2970  0.2199 -0.2418
61394SOL    HW190145   3.487   2.662   7.180  0.2081  1.6821  0.5812
61394SOL    HW290146   3.337   2.672   7.197 -0.3650 -1.8343 -1.3139
61395SOL     OW90147   7.769  10.311   0.360  0.0949  0.7271  0.1240
61395SOL    HW190148   7.676  10.331   0.372 -0.3136 -1.0063  0.1152
61395SOL    HW290149   7.770  10.238   0.298  1.4792  0.8057  0.0245
61396SOL     OW90150  12.193  11.374   9.789 -0.0488  0.5061 -0.5007
61396SOL    HW190151  12.276  11.420   9.773  0.0059  0.1563 -1.2235
61396SOL    HW290152  12.127  11.431   9.750 -0.3567  1.5867  1.4408
61397SOL     OW90153   7.665   2.694   4.972 -0.0220 -0.2721  0.5874
61397SOL    HW190154   7.589   2.643   4.944  0.4347  0.2479 -1.7848
61397SOL    HW290155   7.656   2.779   4.928  1.4128  0.1646  1.0499
61398SOL     OW90156  11.058  12.276   0.013 -0.3700 -0.4064  0.5004
61398SOL    HW190157  11.043  12.325   0.094 -0.3991  0.0400  0.2290
61398SOL    HW290158  11.003  12.198   0.022 -0.1404 -0.5088  1.0411
61399SOL     OW90159   5.540   1.960   9.233  0.0624 -0.0841 -0.3842
61399SOL    HW190160   5.452   1.963   9.271 -0.0448  2.1413 -0.6610
61399SOL    HW290161   5.526   1.930   9.143 -0.3873 -0.1323 -0.3003
61400SOL     OW90162   2.509   2.356   5.556 -0.1912 -0.2813 -0.1254
61400SOL    HW190163   2.528   2.440   5.599 -1.8192  0.4695 -0.7865
61400SOL    HW290164   2.500   2.294   5.628 -1.6107  0.6901  0.5881
61401SOL     OW90165  10.899   7.401   6.072  0.3294 -0.2460  0.5366
61401SOL    HW190166  10.895   7.457   6.149  1.6087  0.5529  0.0539
61401SOL    HW290167  10.985   7.418   6.034  0.4375 -1.9494 -0.0834
61402SOL     OW90168  10.978   5.706   7.335 -0.2523  0.1691  0.2116
61402SOL    HW190169  11.016   5.715   7.422  0.5132  2.9627 -0.3377
61402SOL    HW290170  10.884   5.698   7.350 -0.0189 -0.6998  1.3155
61403SOL     OW90171  11.613   9.151   8.523 -0.0280 -0.0816 -0.6342
61403SOL    HW190172  11.674   9.209   8.568  1.7237 -0.1499 -2.7686
61403SOL    HW290173  11.624   9.066   8.566 -0.1675  0.3778  0.3301
61404SOL     OW90174   1.778   9.553  11.367  0.2948 -0.3132  0.1623
61404SOL    HW190175   1.717   9.567  11.440  1.3043 -0.0758  0.9859
61404SOL    HW290176   1.728   9.504  11.302 -0.3135 -1.4729  1.4687
61405SOL     OW90177   1.318  10.523   7.492  0.1790 -0.4782  0.3121
61405SOL    HW190178   1.309  10.460   7.564  2.5342  0.8394  1.8806
61405SOL    HW290179   1.281  10.604   7.526  0.7533  0.0108 -0.2054
61406SOL     OW90180   4.892   5.712   9.172  0.0803  0.4719  0.1071
61406SOL    HW190181   4.934   5.627   9.189 -1.4773 -0.6121 -1.2088
61406SOL    HW290182   4.963   5.776   9.182  2.1739 -1.2946 -2.3011
61407SOL     OW90183   9.131  10.655  12.362 -0.3274 -0.0447  0.0766
61407SOL    HW190184   9.084  10.726  12.406 -0.3274 -0.9047  1.5224
61407SOL    HW290185   9.063  10.608  12.314 -0.4128  0.6069 -0.4521
61408SOL     OW90186   2.278   3.557  11.171  0.1302  0.4787 -0.6657
61408SOL    HW190187   2.317   3.586  11.253  0.9649 -3.1470  0.4071
61408SOL    HW290188   2.184   3.559  11.187  0.2616  0.4106  0.1336
61409SOL     OW90189   9.694   9.339   8.221  0.2368  0.0931 -0.0605
61409SOL    HW190190   9.662   9.252   8.245  0.2410 -0.2422 -1.1812
61409SOL    HW290191   9.630   9.371   8.157 -1.0082  1.8878  1.9666
61410SOL     OW90192  10.627   3.677   2.938 -0.2584  0.0676 -0.0501
61410SOL    HW190193  10.575   3.671   3.018 -1.1194  1.2049 -0.4897
61410SOL    HW290194  10.681   3.755   2.950  0.5558 -0.4788 -0.0666
61411SOL     OW90195   1.794  10.536   4.431 -0.0732 -0.4796  0.2416
61411SOL    HW190196   1.808  10.627   4.458  0.6993  0.6014 -3.2571
61411SOL    HW290197   1.702  10.532   4.406  0.2907 -0.0891 -1.2621
61412SOL     OW90198   3.655   2.525   3.801  0.2183 -0.5151 -0.6272
61412SOL    HW190199   3.631   2.449   3.748 -0.4632 -1.2013  0.6102
61412SOL    HW290200   3.572   2.572   3.813  0.5080  0.0442 -0.7806
61413SOL     OW90201   2.378   1.908   4.897  0.5534  0.0083 -0.5272
61413SOL    HW190202   2.417   1.981   4.849 -0.0701  0.6027 -0.1312
61413SOL    HW290203   2.426   1.905   4.979  2.9448 -2.1954 -1.8304
61414SOL     OW90204   1.288   4.001   3.773  0.0826 -0.8419  0.4064
61414SOL    HW190205   1.262   4.091   3.795  0.7284 -0.6235  0.3094
61414SOL    HW290206   1.270   3.993   3.680  0.5066 -0.6348  0.3034
61415SOL     OW90207  10.944   0.851   0.456 -0.2381 -0.1314 -0.6979
61415SOL    HW190208  10.882   0.825   0.388  0.9468  1.4555 -2.4904
61415SOL    HW290209  10.992   0.924   0.418  1.4272 -0.0644  1.3526
61416SOL     OW90210  12.472   1.198   4.333 -0.1172 -0.2161 -0.0077
61416SOL    HW190211  12.523   1.253   4.273 -0.5602  0.3638  0.1407
61416SOL    HW290212  12.381   1.211   4.306 -0.2353 -0.8049  0.0927
61417SOL     OW90213  11.559  12.237   9.486 -0.1058 -0.2763  0.4170
61417SOL    HW190214  11.530  12.324   9.456  0.4307 -0.0748  0.4795
61417SOL    HW290215  11.481  12.182   9.478 -0.3262  0.1005 -0.0626
61418SOL     OW90216  12.380   4.618   5.379 -0.4282  0.0292 -0.3492
61418SOL    HW190217  12.367   4.705   5.340 -0.4894  0.2576  0.1757
61418SOL    HW290218  12.400   4.636   5.471  2.7031 -0.3140 -0.8442
61419SOL     OW90219  11.948  12.070   1.787  0.2998  0.0294  0.1774
61419SOL    HW190220  12.018  12.037   1.842 -0.9737 -1.1111  1.1863
61419SOL    HW290221  11.933  12.160   1.818  2.0794  0.7364 -0.8769
61420SOL     OW90222  10.767   6.967  10.451 -0.3791  0.3258  0.6962
61420SOL    HW190223  10.797   7.044  10.403  0.2445 -0.1947  0.2316
61420SOL    HW290224  10.675   6.985  10.471 -0.6152  0.6209 -0.5773
61421SOL     OW90225  10.023   0.249  12.306 -0.3625  0.3525  0.4669
61421SOL    HW190226   9.994   0.335  12.335  0.8867 -0.2606  3.9391
61421SOL    HW290227  10.117   0.260  12.288 -0.3771 -0.1193  0.0707
61422SOL     OW90228   0.254   1.705   7.862 -0.0334 -0.6449  0.0997
61422SOL    HW190229   0.224   1.662   7.782  0.3893 -0.3787 -0.2055
61422SOL    HW290230   0.287   1.790   7.833 -1.8635  0.3714  0.8380
61423SOL     OW90231  10.203   5.441   4.462  0.0491  0.2449  0.4310
61423SOL    HW190232  10.285   5.457   4.508 -0.2877  0.9300  0.8077
61423SOL    HW290233  10.146   5.400   4.528  0.1066 -0.3132  0.1455
61424SOL     OW90234   8.693  10.534   2.903 -0.0621 -0.1158 -0.0950
61424SOL    HW190235   8.701  10.627   2.922 -0.9312  0.4338 -2.1407
61424SOL    HW290236   8.737  10.523   2.818  0.1558 -1.5917  0.1833
61425SOL     OW90237  12.195   1.337   8.038 -0.2701 -0.1657  0.0402
61425SOL    HW190238  12.108   1.333   8.079 -0.1899 -0.2474  0.2052
61425SOL    HW290239  12.207   1.250   8.000 -1.2216  0.5443 -1.9895
61426SOL     OW90240   3.702   3.647   8.208  0.1177 -0.4755 -0.3443
61426SOL    HW190241   3.746   3.665   8.125 -1.6953 -0.1122 -1.2770
61426SOL    HW290242   3.769   3.605   8.262  2.0896  1.5657 -1.0483
61427SOL     OW90243   6.720  10.118  11.028 -0.3048 -0.1015  0.0544
61427SOL    HW190244   6.650  10.155  11.080  0.2643  0.4785  0.4185
61427SOL    HW290245   6.687  10.121  10.938 -0.5921  0.5338  0.1754
61428SOL     OW90246   1.961  11.369   8.643 -0.1736 -1.4672  0.1464
61428SOL    HW190247   1.957  11.305   8.572  0.8525 -1.5522  0.1514
61428SOL    HW290248   2.037  11.342   8.695  0.4194 -0.1316  0.0220
61429SOL     OW90249   1.643   4.399   1.242 -0.4035 -0.4027 -0.2744
61429SOL    HW190250   1.574   4.357   1.190 -0.8169  0.5066 -0.4771
61429SOL    HW290251   1.717   4.407   1.181 -0.9643  0.8741 -0.8134
61430SOL     OW90252   6.000   9.363   0.585 -0.5125 -0.0305  0.9337
61430SOL    HW190253   6.030   9.400   0.667 -0.0902  0.0642  0.7403
61430SOL    HW290254   5.922   9.414   0.562 -0.6124 -0.0392  1.2558
61431SOL     OW90255   0.811  10.250   7.672  0.0630  0.3637 -0.9207
61431SOL    HW190256   0.721  10.244   7.642 -0.5558  0.6665  0.7536
61431SOL    HW290257   0.804  10.271   7.765  1.8852  1.9466 -1.0831
61432SOL     OW90258  12.388   2.559   7.689 -0.2512 -0.3517 -0.3932
61432SOL    HW190259  12.464   2.616   7.696  0.4771 -1.0953 -1.7456
61432SOL    HW290260  12.318   2.616   7.657 -0.7714  0.6961  2.3791
61433SOL     OW90261   1.568  11.811   2.113 -0.1517 -0.1203  0.7757
61433SOL    HW190262   1.627  11.824   2.039 -1.2251 -0.2324 -0.1351
61433SOL    HW290263   1.616  11.754   2.173  0.0406 -1.6217 -0.7189
61434SOL     OW90264   8.888   1.256   0.576 -0.0751 -0.3651 -0.0341
61434SOL    HW190265   8.911   1.321   0.643  1.7838  0.5051 -1.4304
61434SOL    HW290266   8.834   1.304   0.513 -1.0189 -0.9394  0.3033
61435SOL     OW90267   6.870   2.707   7.122 -0.1559  0.6780 -0.7420
61435SOL    HW190268   6.871   2.618   7.158  0.6179  0.7862 -0.4672
61435SOL    HW290269   6.956   2.717   7.082 -0.6417  0.9245 -1.7440
61436SOL     OW90270   9.952   6.882   0.166  0.4130  0.3456  0.0058
61436SOL    HW190271  10.038   6.846   0.188  0.6096  0.6180 -0.2989
61436SOL    HW290272   9.919   6.825   0.097  0.0166 -0.2072  0.6447
61437SOL     OW90273   3.365  11.761   4.844  0.3625  0.0858 -0.4508
61437SOL    HW190274   3.446  11.799   4.811  1.7331 -1.9585  0.3161
61437SOL    HW290275   3.300  11.779   4.776  1.6450  1.0661 -1.4729
61438SOL     OW90276   0.388  10.765   1.161  0.5335 -0.1469  0.4704
61438SOL    HW190277   0.434  10.712   1.096 -0.5262 -1.3885  0.6891
61438SOL    HW290278   0.365  10.845   1.114  3.0799  0.6439  0.4315
61439SOL     OW90279   8.954   3.942   3.031 -0.3258  0.2570  0.5152
61439SOL    HW190280   9.001   4.021   3.007 -0.4733  0.6901  1.6069
61439SOL    HW290281   8.909   3.916   2.951  1.8008 -0.2369 -0.5982
61440SOL     OW90282   9.355   5.525   4.313  0.0936  0.1489  0.0990
61440SOL    HW190283   9.371   5.467   4.388  0.1426  1.6984  1.3355
61440SOL    HW290284   9.264   5.552   4.322  0.1767  0.5544 -0.2398
61441SOL     OW90285  11.693   7.037   5.944  0.2335 -0.0193  0.1793
61441SOL    HW190286  11.774   7.045   5.893 -0.2393  3.9837 -0.2507
61441SOL    HW290287  11.702   7.102   6.014 -1.5867 -1.2667  1.6624
61442SOL     OW90288   7.431   8.809   1.347 -0.5196  0.2249 -0.4104
61442SOL    HW190289   7.483   8.781   1.422  0.9406 -1.1311 -1.8703
61442SOL    HW290290   7.344   8.773   1.363 -1.0769  2.3576  1.9633
61443SOL     OW90291  10.864   1.057   9.579 -0.2421 -0.3947 -0.6283
61443SOL    HW190292  10.856   1.149   9.602 -2.5033 -0.6064 -0.3534
61443SOL    HW290293  10.885   1.014   9.662 -0.7521 -0.3041 -0.4527
61444SOL     OW90294   7.303   1.885   8.171 -0.1824 -0.3580 -0.0281
61444SOL    HW190295   7.252   1.820   8.124 -0.1451 -0.4276  0.0282
61444SOL    HW290296   7.391   1.847   8.177  0.1329  0.1681 -0.9780
61445SOL     OW90297  11.168   9.586   7.536  0.2300  0.2246 -0.5731
61445SOL    HW190298  11.262   9.591   7.556 -0.0802 -0.0020  1.0903
61445SOL    HW290299  11.136   9.675   7.550 -0.2495 -0.2322  1.4406
61446SOL     OW90300  10.319   4.629   8.746  0.6022  0.1665 -0.1658
61446SOL    HW190301  10.344   4.645   8.655  2.4878  0.8083  0.4181
61446SOL    HW290302  10.355   4.704   8.794  1.3685 -1.1318  1.3720
61447SOL     OW90303  11.479   9.018   6.763 -0.2051 -0.3879  0.5065
61447SOL    HW190304  11.403   8.992   6.711 -1.1037  0.0803  1.5438
61447SOL    HW290305  11.487   8.950   6.830  0.7958 -0.8537 -0.0471
61448SOL     OW90306   9.608   0.880   3.971  0.1635  0.7767  0.5439
61448SOL    HW190307   9.654   0.963   3.963  2.5723 -0.4903  0.5950
61448SOL    HW290308   9.594   0.851   3.881  0.3075  0.7223  0.5391
61449SOL     OW90309   3.669   3.274   7.737  0.5957  0.5590 -0.2484
61449SOL    HW190310   3.616   3.354   7.742  1.1175  0.8847  0.3376
61449SOL    HW290311   3.750   3.303   7.696 -0.4186 -0.3611 -3.0991
61450SOL     OW90312   9.505   5.200   2.959 -0.2385 -0.1249 -0.1092
61450SOL    HW190313   9.517   5.289   2.927 -2.2321 -0.2959 -1.5695
61450SOL    HW290314   9.415   5.199   2.992 -0.3762 -1.6855 -0.4524
61451SOL     OW90315  12.428  12.324   7.794 -0.1030 -0.1903  0.0634
61451SOL    HW190316  12.380  12.403   7.819 -0.4096 -0.1955 -0.4826
61451SOL    HW290317  12.388  12.254   7.845 -1.0083 -0.2709 -0.7350
61452SOL     OW90318   0.862   0.268   5.305  0.4653  0.0122  0.3325
61452SOL    HW190319   0.886   0.353   5.343 -0.1590  0.3165  0.0585
61452SOL    HW290320   0.930   0.208   5.337  1.5899  0.8385 -0.4082
61453SOL     OW90321   0.759   9.569   7.396  0.1198 -0.2486  0.4447
61453SOL    HW190322   0.737   9.480   7.368  0.0593 -0.0750 -0.0847
61453SOL    HW290323   0.733   9.573   7.488  0.5569 -0.9217  0.6025
61454SOL     OW90324   1.156   6.993   4.918  0.6350  0.2295 -0.0614
61454SOL    HW190325   1.125   6.943   4.994  0.6386 -0.2922 -0.4043
61454SOL    HW290326   1.120   7.081   4.931 -4.6862 -1.2059 -2.5166
61455SOL     OW90327   2.062   6.663   5.120  0.0755 -0.3658 -0.2970
61455SOL    HW190328   2.043   6.643   5.028  0.1957  1.8576 -0.8550
61455SOL    HW290329   2.157   6.670   5.124  0.3201 -2.8918  0.6176
61456SOL     OW90330   0.469   4.577   0.398 -0.4452  0.5961 -0.5122
61456SOL    HW190331   0.424   4.605   0.477 -0.4851  0.3431 -0.4454
61456SOL    HW290332   0.482   4.657   0.348  2.7176  1.4067  1.3241
61457SOL     OW90333  11.709  11.664   9.017  0.7788  0.0896  0.0798
61457SOL    HW190334  11.754  11.670   8.933  0.0504  1.0080 -0.2660
61457SOL    HW290335  11.628  11.618   8.998 -0.2837  1.9371 -0.1546
61458SOL     OW90336  11.910   6.015   5.090  0.0471  0.7496 -0.2169
61458SOL    HW190337  11.864   5.935   5.065  1.7975 -0.5682  0.5735
61458SOL    HW290338  12.002   5.988   5.097  0.7381  2.9391 -0.3289
61459SOL     OW90339   9.862   8.695  11.811  0.5983 -0.1173 -0.1778
61459SOL    HW190340   9.829   8.629  11.750  0.7664 -0.9239  0.5854
61459SOL    HW290341   9.821   8.777  11.783 -0.1794 -0.6784 -0.6938
61460SOL     OW90342   2.496   5.482  11.312 -0.0856  0.6359  0.4759
61460SOL    HW190343   2.509   5.550  11.378 -2.1674  0.5691  1.0255
61460SOL    HW290344   2.577   5.430  11.315  0.6322  1.7583  1.6125
61461SOL     OW90345   4.470   8.178   1.177  0.3974  0.8974 -0.2411
61461SOL    HW190346   4.376   8.164   1.183  0.4580  0.7679  0.5042
61461SOL    HW290347   4.486   8.258   1.226  0.5579  1.4655 -1.1955
61462SOL     OW90348  10.071   2.149   9.421 -0.0527 -0.4907  0.3191
61462SOL    HW190349  10.099   2.128   9.510 -0.1240 -0.0749  0.4409
61462SOL    HW290350  10.064   2.064   9.377 -1.5350 -0.8348  1.1564
61463SOL     OW90351   3.443   7.933   5.415 -0.3843  1.0101 -0.4600
61463SOL    HW190352   3.380   7.870   5.380  1.8814 -0.8765 -1.4195
61463SOL    HW290353   3.426   7.934   5.509 -0.9383 -0.5151 -0.5132
61464SOL     OW90354   5.979   3.909   6.366  0.1702  0.1542  0.2102
61464SOL    HW190355   6.052   3.849   6.353 -2.1610 -2.9275  0.1218
61464SOL    HW290356   5.939   3.881   6.448 -0.1067  2.7528  1.0631
61465SOL     OW90357   3.263   8.640  11.311 -0.6447 -0.5480  0.1240
61465SOL    HW190358   3.282   8.733  11.307  0.7916 -0.8487 -0.4337
61465SOL    HW290359   3.330   8.604  11.368 -0.3776 -1.4258 -0.7127
61466SOL     OW90360  12.399   9.604   3.312 -0.0351  0.5521 -0.7056
61466SOL    HW190361  12.474   9.547   3.328  0.3229  1.2106  0.0644
61466SOL    HW290362  12.323   9.550   3.335  0.3651  0.7895  1.3655
61467SOL     OW90363   0.592   4.765  10.685 -0.6016  0.5005 -1.2043
61467SOL    HW190364   0.635   4.817  10.752 -0.4527 -1.0970 -0.0144
61467SOL    HW290365   0.562   4.829  10.621  0.8534  1.9072 -0.5415
61468SOL     OW90366   4.657   9.566   8.690  0.2008  0.2797  0.1485
61468SOL    HW190367   4.723   9.522   8.636 -0.7575 -0.5773 -0.3580
61468SOL    HW290368   4.651   9.512   8.769 -1.3071 -0.8249 -0.6695
61469SOL     OW90369   6.007  11.036  11.089  0.5979  0.5323  0.0462
61469SOL    HW190370   5.968  11.108  11.040  1.4333  1.2368  0.3764
61469SOL    HW290371   5.935  10.976  11.106  0.0302  0.9498 -0.8463
61470SOL     OW90372   7.279  11.287   9.212 -0.7639  0.0837  0.2564
61470SOL    HW190373   7.366  11.308   9.247 -0.1319 -1.6604 -0.1333
61470SOL    HW290374   7.228  11.366   9.225  1.0316  1.3387  0.0370
61471SOL     OW90375   1.576   5.865   8.986  0.0565 -0.6043  0.7390
61471SOL    HW190376   1.568   5.798   8.917  4.0720  0.8538 -1.4906
61471SOL    HW290377   1.602   5.816   9.064 -0.6580 -1.9457  0.1720
61472SOL     OW90378   3.979   3.638   1.751 -0.3038  0.8357 -0.4119
61472SOL    HW190379   3.951   3.616   1.840 -0.4055 -3.3700 -1.2552
61472SOL    HW290380   3.902   3.618   1.697  0.7573  0.1184 -1.7044
61473SOL     OW90381   1.332   6.711   8.938  0.3073 -0.1262 -0.2048
61473SOL    HW190382   1.274   6.788   8.943  0.3925 -0.0241 -0.6766
61473SOL    HW290383   1.297   6.650   9.003  0.2595  0.3287  0.1995
61474SOL     OW90384   8.454   9.856   5.311  0.0527 -0.4023 -0.8735
61474SOL    HW190385   8.527   9.889   5.257 -0.7707 -0.1903 -1.9050
61474SOL    HW290386   8.491   9.845   5.398  0.6768  2.2082 -0.7352
61475SOL     OW90387  11.327   7.473  12.449  0.5877 -0.0758 -0.3900
61475SOL    HW190388  11.343   7.379  12.457  0.5531  0.0362  1.4963
61475SOL    HW290389  11.318   7.488  12.355  0.7381 -1.9248 -0.7394
61476SOL     OW90390  11.068   1.374  12.045 -0.1303  0.5761  0.2674
61476SOL    HW190391  11.023   1.452  12.012 -0.7292  0.6784  1.2997
61476SOL    HW290392  11.002   1.328  12.097  0.6066  0.0802  0.7798
61477SOL     OW90393   9.424   3.065   1.169 -0.0821  0.2532  0.2938
61477SOL    HW190394   9.394   3.005   1.101  0.4078 -1.3800  1.4511
61477SOL    HW290395   9.466   3.008   1.234 -1.1824  1.6573  2.3327
61478SOL     OW90396   2.164   6.497   5.699  0.0402  0.0518  0.0573
61478SOL    HW190397   2.258   6.507   5.686 -0.1553  1.0845 -0.7354
61478SOL    HW290398   2.129   6.585   5.684 -0.9368 -0.0893  1.4202
61479SOL     OW90399   1.060   1.567   1.732  0.0149 -0.0656 -0.0059
61479SOL    HW190400   1.042   1.473   1.723  0.8693 -0.1919 -0.4390
61479SOL    HW290401   0.987   1.600   1.785  0.2025 -1.1408  0.9688
61480SOL     OW90402   3.792   0.420   2.995 -0.4799  0.0523 -0.1246
61480SOL    HW190403   3.735   0.466   2.933 -0.5000 -0.2628 -0.3371
61480SOL    HW290404   3.857   0.486   3.020  0.4613 -0.2695 -1.6557
61481SOL     OW90405   0.222   3.974   9.535  0.8250  0.3667  0.5699
61481SOL    HW190406   0.245   3.899   9.480 -0.3676  0.1101  0.3995
61481SOL    HW290407   0.167   4.029   9.480  1.3651  1.1874  0.8256
61482SOL     OW90408  11.760  11.566  12.311  0.4866 -0.1906 -0.2699
61482SOL    HW190409  11.751  11.471  12.317  1.5680 -0.2881  0.0411
61482SOL    HW290410  11.724  11.588  12.225 -0.7036 -0.7388  0.0604
61483SOL     OW90411  10.720  12.102   4.212  0.5733 -0.0755 -0.2238
61483SOL    HW190412  10.785  12.035   4.188 -1.1891 -1.6181 -0.9286
61483SOL    HW290413  10.680  12.068   4.292  1.3612  1.4322  0.8530
61484SOL     OW90414   2.295   2.208  10.361 -0.1689 -0.1235  0.4074
61484SOL    HW190415   2.215   2.252  10.390 -1.0918 -1.9731  0.8763
61484SOL    HW290416   2.279   2.189  10.268  0.1559  0.3757  0.2475
61485SOL     OW90417   9.203  11.793  12.078 -0.1439  0.1300 -0.2629
61485SOL    HW190418   9.200  11.871  12.134  0.9868  0.5097 -0.7151
61485SOL    HW290419   9.213  11.828  11.989  0.9457 -0.5378 -0.4107
61486SOL     OW90420   4.223   2.932  12.465 -0.6253 -0.1165  0.0059
61486SOL    HW190421   4.175   2.993  12.411 -0.7764 -0.5132 -0.3136
61486SOL    HW290422   4.303   2.979  12.489 -1.7246  1.0311  1.6216
61487SOL     OW90423   0.120   0.177   5.063  0.3490  0.3663 -0.1080
61487SOL    HW190424   0.193   0.155   5.120 -1.1889 -1.9133  1.1006
61487SOL    HW290425   0.046   0.191   5.122 -0.4809  1.6225 -1.3611
61488SOL     OW90426  10.817  10.201   6.077  0.1406 -0.1100  0.3224
61488SOL    HW190427  10.785  10.111   6.068 -1.0050  0.4673 -2.3222
61488SOL    HW290428  10.738  10.255   6.069  1.2829  1.2930 -4.4633
61489SOL     OW90429   1.114   2.673   3.070 -0.3243 -0.4608 -0.2994
61489SOL    HW190430   1.120   2.642   2.980 -3.0574 -1.0565 -0.3870
61489SOL    HW290431   1.029   2.716   3.075  0.2224  0.5319  1.7342
61490SOL     OW90432   5.375   2.352   7.656 -0.5408  0.4952 -0.0646
61490SOL    HW190433   5.290   2.356   7.700 -0.1211 -0.1023  0.8127
61490SOL    HW290434   5.426   2.290   7.707  0.2896  0.5250 -0.8353
61491SOL     OW90435   5.866   5.120   9.166 -0.0513  0.4305  0.5019
61491SOL    HW190436   5.862   5.149   9.076 -1.1613  0.3581  0.5117
61491SOL    HW290437   5.951   5.149   9.198  0.3304  0.4879 -0.5492
61492SOL     OW90438   2.602   9.300  10.690  0.6278 -0.2647  0.3770
61492SOL    HW190439   2.528   9.256  10.734  0.3430 -0.4780 -0.3052
61492SOL    HW290440   2.660   9.228  10.665 -1.4900 -0.8244 -3.9629
61493SOL     OW90441   8.364   7.960   2.743 -0.7361  0.6122  0.4281
61493SOL    HW190442   8.277   7.926   2.763 -0.3396 -1.5715 -1.2006
61493SOL    HW290443   8.356   7.996   2.655  0.4186 -1.5486 -0.6412
61494SOL     OW90444   6.869   4.168   2.648 -0.4558  0.2767 -0.2250
61494SOL    HW190445   6.802   4.178   2.716 -0.0018 -2.8459  0.8559
61494SOL    HW290446   6.903   4.080   2.662  1.7077  0.6157 -2.7359
61495SOL     OW90447   3.409   8.091   6.141  0.1731 -0.2183 -0.4324
61495SOL    HW190448   3.329   8.043   6.119 -0.4439  0.9511 -0.8437
61495SOL    HW290449   3.413   8.086   6.237  0.0864 -1.0066 -0.4574
61496SOL     OW90450   7.430   1.000   1.937  0.2618  0.1664 -0.3245
61496SOL    HW190451   7.520   1.024   1.913  0.5614  1.3027  1.6760
61496SOL    HW290452   7.436   0.979   2.030 -1.5779  0.3410 -0.1383
61497SOL     OW90453   8.359  10.072  11.218 -0.6823  0.4469 -0.4819
61497SOL    HW190454   8.452  10.050  11.229 -1.1518 -1.2888  0.4492
61497SOL    HW290455   8.349  10.156  11.261  0.1932 -0.0157  0.6918
61498SOL     OW90456   6.308  12.284   1.740 -0.7151 -0.4423 -0.0769
61498SOL    HW190457   6.256  12.288   1.820  0.3688  0.3063  0.6073
61498SOL    HW290458   6.382  12.227   1.762 -1.2666 -1.6070 -1.0823
61499SOL     OW90459   5.064   7.533   0.914 -0.3883  0.0495  0.5092
61499SOL    HW190460   5.134   7.548   0.978 -1.6438  0.0947  1.9311
61499SOL    HW290461   5.071   7.440   0.893  0.6076  0.2262 -0.0207
61500SOL     OW90462  11.972   7.157   2.345 -1.0183  0.0496 -0.4732
61500SOL    HW190463  11.922   7.078   2.366 -1.1935  0.5277  1.0314
61500SOL    HW290464  11.943   7.221   2.410  0.5722  0.7492 -0.4146
61501SOL     OW90465   8.664   9.889   8.181 -0.7308  0.9341 -0.0555
61501SOL    HW190466   8.712   9.937   8.114 -0.4179 -0.5441 -0.9343
61501SOL    HW290467   8.572   9.902   8.159 -0.6251  0.0241 -1.1352
61502SOL     OW90468  12.263  11.319   6.559 -0.3027 -0.3143  0.3725
61502SOL    HW190469  12.260  11.228   6.527  0.9969 -0.3536  0.3011
61502SOL    HW290470  12.229  11.371   6.487  0.4789 -0.6128 -0.2295
61503SOL     OW90471   7.090   1.518   2.250 -0.6805  0.1811 -0.1163
61503SOL    HW190472   7.016   1.468   2.285 -1.2456  1.8084  1.1759
61503SOL    HW290473   7.119   1.571   2.325  2.0103 -0.6396 -0.4994
61504SOL     OW90474   8.414   7.514   6.353 -0.4811 -0.6171  0.4273
61504SOL    HW190475   8.482   7.450   6.335  2.1281  2.1930 -0.4495
61504SOL    HW290476   8.419   7.529   6.448 -0.2728 -0.8094  0.4460
61505SOL     OW90477   1.105   0.247   1.123 -0.0768 -0.0924  0.4864
61505SOL    HW190478   1.081   0.273   1.034  0.2880 -0.1584  0.3688
61505SOL    HW290479   1.084   0.324   1.176 -1.5623 -0.5206  0.5522
61506SOL     OW90480   3.578   0.632  12.428 -0.0548  0.0649 -1.1070
61506SOL    HW190481   3.490   0.596  12.445 -0.3137  1.2851  0.3892
61506SOL    HW290482   3.602   0.596  12.343 -2.2261  0.0990 -1.8096
61507SOL     OW90483   6.378   5.602  11.375 -0.6334 -0.1227  0.0260
61507SOL    HW190484   6.331   5.552  11.309 -0.3842  0.0350 -0.2752
61507SOL    HW290485   6.455   5.636  11.329 -0.9513  0.7861  0.1403
61508SOL     OW90486   8.959  10.866   0.568  0.3571 -0.7520 -0.2748
61508SOL    HW190487   8.903  10.856   0.646  0.7204 -2.6744 -0.2085
61508SOL    HW290488   8.899  10.856   0.494 -0.0617  1.4835 -0.3243
61509SOL     OW90489  12.003   1.117   8.186 -0.0870  0.8392  0.4302
61509SOL    HW190490  12.035   1.033   8.153  0.7794  1.2404  0.2261
61509SOL    HW290491  11.922   1.132   8.137 -0.8767 -0.4168  1.3091
61510SOL     OW90492  11.130  11.060   5.918  0.6035  0.7765 -0.0665
61510SOL    HW190493  11.161  11.049   6.008  0.8623  1.2820 -0.0950
61510SOL    HW290494  11.182  10.998   5.867  0.8158  0.8584  0.0507
61511SOL     OW90495  12.183   0.530   7.888 -0.6219 -0.4507  0.0759
61511SOL    HW190496  12.214   0.590   7.820 -0.5591 -1.3116 -0.6664
61511SOL    HW290497  12.198   0.578   7.970 -0.4677  0.4986 -0.4920
61512SOL     OW90498   5.665   5.942  11.113  0.3882  0.0698 -0.0356
61512SOL    HW190499   5.684   6.029  11.079  2.3742 -0.7690 -1.2845
61512SOL    HW290500   5.678   5.884  11.038  3.9595 -1.7729  1.7616
61513SOL     OW90501   3.110  12.372   3.751 -0.3004  0.1939  0.6870
61513SOL    HW190502   3.153  12.395   3.669 -0.1289  1.1959  1.0547
61513SOL    HW290503   3.026  12.336   3.725 -0.0294  0.0066  0.0563
61514SOL     OW90504   9.880   0.873   9.170 -0.0408 -0.4193 -0.1292
61514SOL    HW190505   9.976   0.864   9.167 -0.0487 -1.9810  2.0341
61514SOL    HW290506   9.848   0.802   9.115  0.0422 -0.9268  0.4723
61515SOL     OW90507   4.175   0.597   3.110 -0.3759  0.4038 -0.0949
61515SOL    HW190508   4.084   0.585   3.084 -0.3046  0.6270 -0.4552
61515SOL    HW290509   4.225   0.581   3.029 -0.0638 -0.1880  0.2055
61516SOL     OW90510  10.695   5.389  11.467  0.2674 -0.3469 -0.2682
61516SOL    HW190511  10.679   5.430  11.382 -0.7985  0.9544  0.5149
61516SOL    HW290512  10.607   5.375  11.503  0.6777  1.2697  1.5647
61517SOL     OW90513   8.803   2.496   3.936 -0.8289 -0.3121 -0.1157
61517SOL    HW190514   8.747   2.569   3.963  0.2114  0.2365  0.6433
61517SOL    HW290515   8.869   2.536   3.880 -1.3628 -1.0087 -1.2841
61518SOL     OW90516   4.241   9.538  10.123 -0.0205 -0.3761 -0.4326
61518SOL    HW190517   4.268   9.450  10.100  1.3151 -0.0588 -0.1523
61518SOL    HW290518   4.298   9.563  10.196  0.8814  1.3883 -1.6736
61519SOL     OW90519   0.018   3.837   7.595  0.3482 -0.3104  0.3213
61519SOL    HW190520   0.032   3.760   7.651  0.4358 -1.2853 -1.0006
61519SOL    HW290521  -0.074   3.832   7.568 -0.2071  1.1370  1.7442
61520SOL     OW90522   3.896   5.662   3.097  0.4686  0.3258 -0.1479
61520SOL    HW190523   3.851   5.593   3.146  2.6016 -1.9672 -1.2402
61520SOL    HW290524   3.880   5.641   3.005 -0.3185  2.3998 -0.5500
61521SOL     OW90525   2.858   6.917  12.151  0.4573 -0.5191  0.9210
61521SOL    HW190526   2.768   6.950  12.147  0.5889 -0.0077  1.9218
61521SOL    HW290527   2.890   6.925  12.061 -0.4095 -0.4661  0.6033
61522SOL     OW90528   4.233   8.481  11.689 -0.1975  0.3170 -0.0730
61522SOL    HW190529   4.194   8.399  11.720  1.2366 -1.0456 -1.6755
61522SOL    HW290530   4.165   8.520  11.634 -0.5954 -0.2318  0.0192
61523SOL     OW90531  10.290   7.177   5.247 -0.0327 -0.0543 -0.3256
61523SOL    HW190532  10.317   7.097   5.292 -0.6187  0.5809  1.2156
61523SOL    HW290533  10.368   7.233   5.250  0.4635 -0.6328 -1.6422
61524SOL     OW90534  10.924   8.196   1.689 -0.7600 -0.5656  0.0327
61524SOL    HW190535  10.883   8.266   1.639 -0.2312 -0.8078 -0.7769
61524SOL    HW290536  10.940   8.127   1.624 -0.8039 -1.2205  0.7095
61525SOL     OW90537   7.218   8.542   6.718 -0.1703  0.5889  0.3796
61525SOL    HW190538   7.127   8.525   6.745 -0.4090  0.6842 -0.3303
61525SOL    HW290539   7.228   8.493   6.636  0.2792  0.9398  0.2200
61526SOL     OW90540   6.425   4.837   3.919  0.2023  0.1171 -0.1693
61526SOL    HW190541   6.519   4.837   3.936  0.6867 -1.7552 -2.3171
61526SOL    HW290542   6.405   4.745   3.898 -1.8529  0.7157 -1.0521
61527SOL     OW90543   9.282   6.124   9.950  0.0819 -0.4033  0.0968
61527SOL    HW190544   9.243   6.194   9.897 -0.1033 -0.9764 -0.5438
61527SOL    HW290545   9.211   6.095  10.008  0.1272 -0.1266  0.2873
61528SOL     OW90546  12.198   0.531   9.173 -0.2057 -0.1255 -0.3121
61528SOL    HW190547  12.116   0.573   9.148  0.6551  1.0612 -1.2411
61528SOL    HW290548  12.192   0.524   9.269 -0.8763  1.0606 -0.2432
61529SOL     OW90549   3.958   5.823  11.174  0.4791 -0.1299 -0.1710
61529SOL    HW190550   3.957   5.734  11.140  0.3224  0.0351 -0.6127
61529SOL    HW290551   3.893   5.823  11.244 -1.6264  0.3209 -1.9968
61530SOL     OW90552  11.782   7.702   3.387 -0.5963 -0.0059  0.3353
61530SOL    HW190553  11.778   7.606   3.397  3.1158 -0.2716  1.0088
61530SOL    HW290554  11.859   7.716   3.332 -1.4049  2.6225 -0.2216
61531SOL     OW90555   5.710   5.333   3.260 -0.2021 -0.1732  0.1537
61531SOL    HW190556   5.660   5.397   3.310 -1.5395 -0.5263 -0.6726
61531SOL    HW290557   5.681   5.344   3.169  1.0274 -0.5934 -0.3181
61532SOL     OW90558   7.463   3.619   7.380  0.0029  0.1696 -0.6303
61532SOL    HW190559   7.399   3.589   7.316 -0.4172  0.0785 -0.1698
61532SOL    HW290560   7.423   3.695   7.421 -0.7503 -1.1296  1.1545
61533SOL     OW90561   8.546   1.778  11.292 -0.1796 -0.0125  0.4067
61533SOL    HW190562   8.527   1.871  11.297  0.1642  0.1273 -0.6085
61533SOL    HW290563   8.463   1.735  11.316 -0.1895  0.5356  1.3957
61534SOL     OW90564  10.832  11.817   2.900 -0.4663  0.0864  0.1160
61534SOL    HW190565  10.747  11.857   2.920  0.3364  0.7684  2.4500
61534SOL    HW290566  10.894  11.862   2.958  1.0059 -2.3917  0.5998
61535SOL     OW90567   6.679  11.085   3.125  0.0884  0.3014  0.3125
61535SOL    HW190568   6.688  11.175   3.157  1.2116 -0.0188  0.9319
61535SOL    HW290569   6.692  11.092   3.030 -0.3019  0.8465  0.2916
61536SOL     OW90570   6.609   3.868   6.774 -0.0713  0.3425 -0.0855
61536SOL    HW190571   6.650   3.953   6.791 -0.6295  0.5362  0.3434
61536SOL    HW290572   6.540   3.887   6.711 -0.3283  0.2494  0.1631
61537SOL     OW90573   2.367   7.544   3.098  0.0838  0.0435  0.4204
61537SOL    HW190574   2.390   7.636   3.112 -0.2148  0.3727 -1.0226
61537SOL    HW290575   2.292   7.548   3.039 -0.2061 -1.1290  0.7009
61538SOL     OW90576  11.763   8.612   2.715  0.1593  0.0596 -0.5229
61538SOL    HW190577  11.798   8.554   2.648  0.2635 -0.1219 -0.3109
61538SOL    HW290578  11.674   8.581   2.731 -0.0558  0.4401 -0.9680
61539SOL     OW90579  10.820   5.721  11.440 -0.4718  0.3046  1.1461
61539SOL    HW190580  10.779   5.753  11.359 -1.5797 -2.5123  0.4463
61539SOL    HW290581  10.893   5.780  11.456 -0.5309  1.2703 -1.6621
61540SOL     OW90582   8.154   6.022   1.338 -0.1344  0.9092 -0.0393
61540SOL    HW190583   8.172   6.110   1.370  0.0529  1.2312 -0.9913
61540SOL    HW290584   8.153   6.031   1.242  0.7484 -0.2767 -0.1916
61541SOL     OW90585   8.719  11.230   4.714  0.3872 -0.7819  0.8612
61541SOL    HW190586   8.682  11.266   4.794  1.3877 -1.5736  1.7091
61541SOL    HW290587   8.759  11.305   4.670 -1.7262  0.0046  0.1506
61542SOL     OW90588   3.702   4.636   9.791  0.4914 -0.2174 -0.2108
61542SOL    HW190589   3.781   4.590   9.766  1.2482 -0.2432  1.9816
61542SOL    HW290590   3.640   4.567   9.815  0.6694 -0.1684  0.4128
61543SOL     OW90591   3.991   0.918   1.325  0.2964 -0.3594 -0.2237
61543SOL    HW190592   4.007   0.906   1.231 -0.3491 -0.2263 -0.3518
61543SOL    HW290593   3.909   0.871   1.341 -0.3489  0.8168 -0.0072
61544SOL     OW90594   2.115   9.624   8.576 -0.0890  0.2952  0.0270
61544SOL    HW190595   2.142   9.713   8.600 -2.0853  1.0073 -0.1749
61544SOL    HW290596   2.051   9.637   8.506 -0.7332 -1.2753  0.2946
61545SOL     OW90597   5.075   6.317  11.493 -0.3084 -0.6576  0.3298
61545SOL    HW190598   5.121   6.364  11.423  1.1626 -0.2597  1.5222
61545SOL    HW290599   4.984   6.316  11.465 -0.0052  0.8896 -0.8331
61546SOL     OW90600   6.883   5.666   6.707 -0.0650 -0.0447  0.4764
61546SOL    HW190601   6.895   5.679   6.613  3.2394  3.7189  1.1272
61546SOL    HW290602   6.972   5.661   6.742 -1.2014 -1.9335  3.4136
61547SOL     OW90603   7.262   3.378   8.894  0.4337 -0.0268  0.2299
61547SOL    HW190604   7.298   3.452   8.943  0.0658  0.2281  0.1193
61547SOL    HW290605   7.228   3.319   8.961  1.5483 -0.5303  0.3597
61548SOL     OW90606   6.292   3.176  10.335  0.2684  0.6273  0.2638
61548SOL    HW190607   6.220   3.239  10.330  0.2072  0.5326 -0.1339
61548SOL    HW290608   6.284   3.125  10.254  0.3420  0.1409  0.5619
61549SOL     OW90609   3.551   2.941   4.603  0.3521 -0.4511  0.0209
61549SOL    HW190610   3.497   2.981   4.671 -0.1251  1.0674 -1.1852
61549SOL    HW290611   3.516   2.853   4.594 -3.8066  1.1665 -2.4218
61550SOL     OW90612   1.515   6.666   3.988  0.2967 -0.0022 -0.2250
61550SOL    HW190613   1.501   6.580   3.950  0.0581 -0.8702  1.6840
61550SOL    HW290614   1.479   6.727   3.924  0.5213 -1.3073 -1.6422
61551SOL     OW90615   5.486   8.726   5.517  0.3755 -0.1946  0.5253
61551SOL    HW190616   5.500   8.800   5.458 -0.2015 -0.3806  0.1446
61551SOL    HW290617   5.406   8.749   5.565  0.6599 -0.1928  1.0016
61552SOL     OW90618   8.663  11.911   5.689 -0.2931  0.6401 -0.1123
61552SOL    HW190619   8.666  11.860   5.770  1.3889  0.9225  0.0335
61552SOL    HW290620   8.715  11.860   5.627 -0.1530  1.2695 -0.5155
61553SOL     OW90621   7.274  11.845   9.962 -0.1644  0.1267 -0.0309
61553SOL    HW190622   7.275  11.762  10.009 -0.8321  1.3372  2.2511
61553SOL    HW290623   7.363  11.854   9.927  1.1815  0.2141  3.0577
61554SOL     OW90624  11.071   7.408   1.734 -0.0718  0.2676 -0.1203
61554SOL    HW190625  11.085   7.314   1.726 -0.5735  0.2220 -0.5148
61554SOL    HW290626  11.152   7.448   1.702  0.8847 -0.0425  1.7687
61555SOL     OW90627   2.699  10.705   3.344 -0.2304 -0.0852  0.0331
61555SOL    HW190628   2.764  10.637   3.330 -0.0870  0.1814 -0.6258
61555SOL    HW290629   2.636  10.667   3.405  0.5811 -0.3184  0.7407
61556SOL     OW90630   2.869   9.388   0.358 -0.2999  0.7492 -0.5704
61556SOL    HW190631   2.943   9.334   0.331 -0.9825 -1.6656  1.8965
61556SOL    HW290632   2.893   9.421   0.445 -1.6084  0.8796 -0.2328
61557SOL     OW90633   8.872  12.197   3.458 -0.3485 -0.1921 -0.3663
61557SOL    HW190634   8.895  12.112   3.421 -1.6615 -0.7833  0.0971
61557SOL    HW290635   8.955  12.233   3.489  0.2707 -1.1749 -0.8314
61558SOL     OW90636  10.730   5.936   0.020 -0.1427 -0.1205 -0.0457
61558SOL    HW190637  10.806   5.880   0.035  0.1255  0.0515 -0.7108
61558SOL    HW290638  10.663   5.877  -0.013 -1.0471 -0.6724  2.5737
61559SOL     OW90639   2.464   0.193  11.907 -0.0860  0.2973 -0.2141
61559SOL    HW190640   2.491   0.184  11.999 -0.1539 -0.6836 -0.2728
61559SOL    HW290641   2.542   0.168  11.857  0.1505  1.4548 -0.4364
61560SOL     OW90642  11.076   2.561   1.852  0.5087 -0.0685 -0.1256
61560SOL    HW190643  11.154   2.615   1.865  0.4799 -0.3154  1.2009
61560SOL    HW290644  11.110   2.473   1.838  0.4811 -0.3284  1.2663
61561SOL     OW90645  10.435   5.411   6.871  0.2664 -0.2320  0.3596
61561SOL    HW190646  10.445   5.419   6.776  1.2111 -0.0442  0.4667
61561SOL    HW290647  10.523   5.394   6.903  0.0335  0.2043  1.2597
61562SOL     OW90648   4.336   3.493   1.750 -0.3580 -0.5464  0.3781
61562SOL    HW190649   4.343   3.588   1.743 -0.8758 -0.3303  2.2789
61562SOL    HW290650   4.295   3.466   1.668 -1.3399  1.0107  0.3108
61563SOL     OW90651   4.009   0.200   2.490  0.1773 -0.1442 -0.5319
61563SOL    HW190652   4.044   0.111   2.503  1.1224 -0.0223 -2.0644
61563SOL    HW290653   4.085   0.252   2.464 -0.6229  0.8076 -1.0128
61564SOL     OW90654  10.848   9.183   5.435 -0.1043 -0.0256 -0.0283
61564SOL    HW190655  10.757   9.214   5.440 -1.3403 -3.3995  0.7391
61564SOL    HW290656  10.894   9.231   5.504 -1.4100  1.3300 -0.0549
61565SOL     OW90657  12.330   1.650  10.449 -0.2187 -0.2208 -0.4989
61565SOL    HW190658  12.320   1.577  10.388  2.0285 -0.1609 -1.0383
61565SOL    HW290659  12.424   1.667  10.451 -0.5727  2.0122  0.4027
61566SOL     OW90660   9.819   7.234   9.977  0.4076  0.3153  0.6219
61566SOL    HW190661   9.731   7.265   9.959  1.1085  1.8956 -0.2915
61566SOL    HW290662   9.811   7.138   9.981 -1.4051  0.4663  1.0638
61567SOL     OW90663   4.998   0.280   6.181  0.4487  0.0101  0.2668
61567SOL    HW190664   5.023   0.197   6.221  0.4061  1.1245  2.8300
61567SOL    HW290665   5.075   0.335   6.191 -0.4988  1.1906  1.4336
61568SOL     OW90666  12.167   4.613   1.321 -0.1309 -0.1245 -0.4146
61568SOL    HW190667  12.245   4.588   1.372 -0.7391 -0.8020  0.1933
61568SOL    HW290668  12.095   4.610   1.384 -1.0274 -1.6522 -1.4488
61569SOL     OW90669   3.591  10.264   0.564  0.3832 -0.4815  0.4091
61569SOL    HW190670   3.574  10.310   0.646  1.0976 -0.5162  0.5866
61569SOL    HW290671   3.678  10.295   0.536  0.1732 -0.5131 -0.3027
61570SOL     OW90672  12.222  10.685   8.508  0.3260 -0.1200  0.1408
61570SOL    HW190673  12.131  10.684   8.478  0.5223 -0.2726 -0.4717
61570SOL    HW290674  12.263  10.612   8.462  0.9014  0.3176 -0.0560
61571SOL     OW90675   2.560   1.268  11.795 -0.2934 -0.2528  0.3502
61571SOL    HW190676   2.607   1.344  11.831 -0.1805 -0.5665  0.8628
61571SOL    HW290677   2.555   1.287  11.701 -0.1981  0.3552  0.4607
61572SOL     OW90678   4.716  12.331   9.416 -0.8392  0.7019  0.0120
61572SOL    HW190679   4.711  12.411   9.364  0.3588  0.5928 -0.2899
61572SOL    HW290680   4.764  12.357   9.494 -2.6157  0.8621  1.1076
61573SOL     OW90681   3.968   4.159  11.057  0.1501  0.1424 -0.0958
61573SOL    HW190682   3.918   4.128  10.981 -0.0859  1.6504 -0.5917
61573SOL    HW290683   3.937   4.105  11.129  0.0609 -1.0337 -0.9849
61574SOL     OW90684   7.700  10.544   4.206 -0.2270 -0.6327 -0.1385
61574SOL    HW190685   7.746  10.506   4.280  0.1149  0.1892  0.0886
61574SOL    HW290686   7.744  10.628   4.192  0.1090 -1.0287 -1.6485
61575SOL     OW90687  10.918   0.072   5.536  0.7693 -0.2955 -0.5066
61575SOL    HW190688  10.867   0.152   5.526 -0.4619 -0.7967  1.2684
61575SOL    HW290689  11.009   0.100   5.525  0.3310  1.2495 -0.3983
61576SOL     OW90690   9.897   1.345   2.185  0.0067  0.6733  0.6273
61576SOL    HW190691   9.977   1.301   2.212  0.1816  0.2226 -0.5554
61576SOL    HW290692   9.831   1.275   2.183  0.2568  0.4543 -1.1439
61577SOL     OW90693  11.501   7.828   1.507  0.2828  0.5841 -0.0334
61577SOL    HW190694  11.492   7.736   1.532 -0.8945  0.9364  0.9349
61577SOL    HW290695  11.469   7.831   1.417  0.5960 -0.0082 -0.1672
61578SOL     OW90696  10.765   3.849   9.813 -0.0082  0.7700  0.0837
61578SOL    HW190697  10.861   3.851   9.817 -0.0311  1.0534  0.4951
61578SOL    HW290698  10.741   3.765   9.853  0.0865  0.4771 -0.4628
61579SOL     OW90699   3.562   0.507  11.258  0.6372  0.1410 -0.0901
61579SOL    HW190700   3.549   0.436  11.195  2.0960 -2.2747  2.1219
61579SOL    HW290701   3.476   0.520  11.297  0.0242  0.6937 -1.5599
61580SOL     OW90702   6.406   1.838   7.106  0.3285 -0.3226 -0.1198
61580SOL    HW190703   6.477   1.815   7.045 -0.5815 -0.8420 -1.0245
61580SOL    HW290704   6.411   1.933   7.114  0.8511 -0.3072 -0.5232
61581SOL     OW90705   4.440   5.917   4.472  0.3357  0.4516  0.3080
61581SOL    HW190706   4.406   5.887   4.556 -0.6004  0.1485 -0.1621
61581SOL    HW290707   4.392   5.866   4.407 -1.6139  3.1559 -0.5599
61582SOL     OW90708   8.170   1.692   2.043 -0.0631 -0.1462  0.2294
61582SOL    HW190709   8.126   1.765   2.088  0.3756 -1.5880  3.2889
61582SOL    HW290710   8.254   1.728   2.016 -0.6302  0.9975 -0.0627
61583SOL     OW90711   6.967   0.452   8.801 -0.2233 -0.1213 -0.2725
61583SOL    HW190712   7.003   0.452   8.890 -0.7310  2.2685 -0.0185
61583SOL    HW290713   7.000   0.371   8.762  2.3839  0.1538  1.1598
61584SOL     OW90714   5.566   6.414   4.583 -0.3660 -0.3491  0.0450
61584SOL    HW190715   5.515   6.335   4.570 -1.3738  0.5101 -1.5643
61584SOL    HW290716   5.649   6.397   4.538 -0.3869 -0.6835  0.1359
61585SOL     OW90717   6.550   2.612   2.674 -0.6234  0.3278  0.5145
61585SOL    HW190718   6.639   2.580   2.685 -0.0628  1.3562 -0.7492
61585SOL    HW290719   6.526   2.584   2.585 -1.0614  1.1705  0.3560
61586SOL     OW90720   6.098   2.044   8.461  0.2351  0.2549  0.2983
61586SOL    HW190721   6.002   2.042   8.461  0.1934  0.2202 -1.4027
61586SOL    HW290722   6.120   2.136   8.476  0.0239  0.0074  2.4597
61587SOL     OW90723   0.626  11.735   6.541  0.6083 -0.2403  0.4381
61587SOL    HW190724   0.662  11.795   6.476 -0.8065 -0.3153 -0.4419
61587SOL    HW290725   0.541  11.772   6.565 -0.0129 -1.5303  0.3515
61588SOL     OW90726  11.505   0.243   3.930 -0.0781 -0.0411  0.5015
61588SOL    HW190727  11.564   0.276   3.998 -0.1624 -0.3790  0.7400
61588SOL    HW290728  11.465   0.165   3.968  0.9764 -1.0882 -0.4775
61589SOL     OW90729   2.625   7.708   9.026 -0.0769 -0.3485  0.7506
61589SOL    HW190730   2.580   7.776   8.976  0.9776  1.1514  1.7225
61589SOL    HW290731   2.622   7.630   8.971  0.1674  0.9540 -1.1969
61590SOL     OW90732   5.613   0.895   9.725  0.1457  0.0523 -0.2106
61590SOL    HW190733   5.660   0.846   9.656  0.8706  0.4990 -0.0489
61590SOL    HW290734   5.642   0.986   9.713 -0.6009  0.3183 -0.0267
61591SOL     OW90735   8.379   4.003   9.881 -0.7310  0.0013 -0.7146
61591SOL    HW190736   8.293   4.025   9.846 -0.4617 -0.6012 -1.7741
61591SOL    HW290737   8.414   3.937   9.821  0.8486  0.8885 -0.8176
61592SOL     OW90738   3.272   4.023   9.591  0.9631 -0.3424 -0.6222
61592SOL    HW190739   3.230   4.011   9.677  1.2510 -1.4191 -0.6247
61592SOL    HW290740   3.345   4.083   9.609 -0.6710  1.7681 -0.6650
61593SOL     OW90741   9.988   3.547   2.975 -0.5972 -0.1951  0.1929
61593SOL    HW190742  10.080   3.547   3.000 -0.2629  0.9768 -0.9390
61593SOL    HW290743   9.941   3.571   3.055  0.1399 -0.0619  0.5927
61594SOL     OW90744   9.664   9.958   3.518 -0.0613  0.2819 -0.8577
61594SOL    HW190745   9.686   9.872   3.553  1.3873  0.5383 -1.0782
61594SOL    HW290746   9.568   9.959   3.514 -0.2715 -0.2002  1.9971
61595SOL     OW90747   4.373   2.028   9.149  0.1953  0.4371  0.4296
61595SOL    HW190748   4.390   2.079   9.069 -0.5247  0.2705  0.1607
61595SOL    HW290749   4.281   2.004   9.142  0.5022 -0.8335  0.5955
61596SOL     OW90750  11.477  12.385   3.490 -0.0763 -0.3158  0.3359
61596SOL    HW190751  11.459  12.471   3.527  0.7113 -0.0880  0.2031
61596SOL    HW290752  11.466  12.324   3.564  0.4298  0.0174  0.6912
61597SOL     OW90753   2.357   4.181   4.037  0.6641  0.0612  0.3370
61597SOL    HW190754   2.370   4.276   4.046  0.0587  0.0926  0.9511
61597SOL    HW290755   2.274   4.173   3.989  2.6222 -0.1325 -3.3888
61598SOL     OW90756   3.582   1.625   1.994 -0.5907  0.5120  0.1697
61598SOL    HW190757   3.583   1.531   2.013 -2.0033  0.6184  0.9094
61598SOL    HW290758   3.548   1.631   1.905 -2.2547  0.3758  0.7682
61599SOL     OW90759  11.426   4.171   5.496  0.2066  0.0776  0.4542
61599SOL    HW190760  11.485   4.128   5.558 -0.8101  2.1974  3.0928
61599SOL    HW290761  11.428   4.264   5.521 -0.1118  1.1350 -2.9084
61600SOL     OW90762  11.782   6.812   3.122  0.1693 -0.1646 -0.5846
61600SOL    HW190763  11.774   6.899   3.083 -2.5721 -0.4528 -0.8479
61600SOL    HW290764  11.724   6.756   3.070 -0.7770 -1.3637  1.5908
61601SOL     OW90765  12.360   6.001   4.712 -0.3660  0.3561 -0.4111
61601SOL    HW190766  12.402   6.053   4.644  0.5504  0.0849 -0.0582
61601SOL    HW290767  12.432   5.958   4.758 -1.0735 -0.8999 -0.4260
61602SOL     OW90768  10.053   3.498   8.977  0.3846 -0.2731  0.2488
61602SOL    HW190769  10.087   3.485   8.888  0.9334 -1.4338  0.6120
61602SOL    HW290770   9.977   3.440   8.983 -0.4980  0.8221  0.1103
61603SOL     OW90771   2.614   0.947   0.623  0.0416  0.1680 -0.0310
61603SOL    HW190772   2.655   0.861   0.617 -1.6403 -0.7699  1.0153
61603SOL    HW290773   2.670   0.997   0.682  0.7236 -0.4078 -0.1768
61604SOL     OW90774  11.143   4.178   7.586  0.2115  0.0354  0.2270
61604SOL    HW190775  11.077   4.239   7.620 -1.4997 -2.3181  1.4020
61604SOL    HW290776  11.098   4.132   7.515  1.1577 -0.5103 -0.0367
61605SOL     OW90777   3.036   7.591  12.311  0.0935 -0.0971 -0.0902
61605SOL    HW190778   3.117   7.542  12.297  0.3243  0.6257 -1.4193
61605SOL    HW290779   2.975   7.526  12.344  1.5907 -0.3659  2.4135
61606SOL     OW90780  11.985  11.280   4.313  0.1980 -0.2032 -0.3843
61606SOL    HW190781  12.031  11.318   4.238  0.3192 -0.2338 -0.3256
61606SOL    HW290782  12.009  11.336   4.387  0.3763 -0.3948 -0.2972
61607SOL     OW90783   0.474   3.182   0.708  0.0274 -0.5290  0.3213
61607SOL    HW190784   0.558   3.229   0.712  1.2554 -2.6035  0.3847
61607SOL    HW290785   0.482   3.126   0.630 -2.2117  0.7758 -0.9373
61608SOL     OW90786  11.826   0.904   8.898 -0.2393 -0.2622 -0.0572
61608SOL    HW190787  11.894   0.884   8.834 -0.3963  0.5783 -0.4962
61608SOL    HW290788  11.759   0.950   8.848 -0.0943  0.9394  0.8116
61609SOL     OW90789   8.437   6.179   1.221 -0.0693  0.1541 -0.1781
61609SOL    HW190790   8.370   6.245   1.240  0.1429  0.4488 -0.4431
61609SOL    HW290791   8.429   6.116   1.293 -0.9027 -0.0369 -0.4298
61610SOL     OW90792  10.996   8.962   4.083  0.1703 -0.1407  0.2803
61610SOL    HW190793  11.027   8.979   4.172 -1.7344  3.1628  0.4792
61610SOL    HW290794  10.971   8.870   4.083  1.8928 -0.6971  2.5813
61611SOL     OW90795   9.398   0.606   7.086 -0.0249  0.4263 -0.5155
61611SOL    HW190796   9.492   0.620   7.098 -0.2102  0.4662  1.1263
61611SOL    HW290797   9.380   0.638   6.997  1.3947  0.9705 -0.6334
61612SOL     OW90798   0.720   4.172   2.094  0.9411 -0.1117 -0.2920
61612SOL    HW190799   0.728   4.245   2.156 -0.8349  1.6837 -2.0204
61612SOL    HW290800   0.781   4.194   2.024  0.7446 -0.5425 -0.5990
61613SOL     OW90801   2.311  12.349  10.015  0.0366  0.8511  0.1273
61613SOL    HW190802   2.380  12.327   9.953  0.2286  0.9273  0.3128
61613SOL    HW290803   2.253  12.272  10.014 -0.5954  1.3170 -1.0060
61614SOL     OW90804   1.419  11.549   2.951  0.4500 -0.5757 -0.2005
61614SOL    HW190805   1.458  11.549   2.864  1.8757  0.0198  0.4041
61614SOL    HW290806   1.385  11.638   2.963  0.5802 -0.5506 -0.0132
61615SOL     OW90807   4.067   0.585   2.506  0.0060 -0.1135 -0.1123
61615SOL    HW190808   4.028   0.517   2.451 -0.8692 -0.2699  0.6636
61615SOL    HW290809   4.002   0.599   2.575 -1.8789  4.4259 -2.3539
61616SOL     OW90810   8.789  11.987   3.644 -0.4742  0.0103 -0.1877
61616SOL    HW190811   8.779  11.907   3.695  0.1659 -1.1510 -1.7859
61616SOL    HW290812   8.880  11.986   3.615 -0.4799  1.2759 -0.3155
61617SOL     OW90813  10.918   8.973   1.868  0.1857  0.1379 -0.3004
61617SOL    HW190814  10.995   8.916   1.868  0.2282  0.1702  1.0448
61617SOL    HW290815  10.927   9.025   1.788  1.9862  0.7031  0.2259
61618SOL     OW90816  11.982  12.441  12.423  0.1577 -0.4062 -0.0203
61618SOL    HW190817  12.054  12.499  12.447  0.4210 -1.0585  0.7902
61618SOL    HW290818  12.024  12.359  12.399 -0.3574 -1.1627  1.5392
61619SOL     OW90819   1.466   1.554   2.851  0.2877  0.4222 -0.9206
61619SOL    HW190820   1.427   1.557   2.939  2.1492  3.2825 -0.0486
61619SOL    HW290821   1.439   1.635   2.809  1.3843  0.2394 -2.0581
61620SOL     OW90822  11.632   5.249   3.074 -0.0231 -0.3208 -0.5125
61620SOL    HW190823  11.660   5.208   3.156 -0.8383 -0.6031 -0.3648
61620SOL    HW290824  11.547   5.288   3.095 -0.2030 -0.3348 -1.2060
61621SOL     OW90825   5.959   0.470   1.332  0.4757 -0.3163  0.0004
61621SOL    HW190826   5.874   0.459   1.290  0.0759 -1.9528  1.1361
61621SOL    HW290827   6.000   0.542   1.285 -1.6051  0.6485 -0.4621
61622SOL     OW90828   4.020   2.138   2.795 -0.0328 -0.3637 -1.2867
61622SOL    HW190829   4.088   2.079   2.765  1.3404  0.8810 -0.7378
61622SOL    HW290830   3.957   2.141   2.723  0.8252 -1.0191 -2.0869
61623SOL     OW90831   1.855   9.094   0.647  0.2345 -0.3822  0.6423
61623SOL    HW190832   1.793   9.024   0.666  1.3812 -1.2577  1.2387
61623SOL    HW290833   1.847   9.154   0.721  0.4375 -0.7343  0.9488
61624SOL     OW90834   0.927   4.535   8.740  0.3796  0.5312 -0.4748
61624SOL    HW190835   0.985   4.582   8.680  1.2608  2.2584  1.6142
61624SOL    HW290836   0.967   4.546   8.826 -1.4735 -0.8239  0.6447
61625SOL     OW90837  12.482   6.787   6.048  0.0002 -0.6778  0.7490
61625SOL    HW190838  12.577   6.778   6.055 -0.0140 -0.3354  1.4522
61625SOL    HW290839  12.447   6.728   6.114 -0.2609 -0.3743  0.8849
61626SOL     OW90840   5.456  11.130   0.897 -0.6792 -0.0194  0.1045
61626SOL    HW190841   5.497  11.052   0.935 -0.8270  0.3817  1.1346
61626SOL    HW290842   5.432  11.104   0.808  0.9357 -0.5627 -0.2137
61627SOL     OW90843   9.416   6.779   2.532 -0.3866  0.4499  0.2210
61627SOL    HW190844   9.372   6.707   2.577  0.7933 -0.3312  0.1761
61627SOL    HW290845   9.479   6.812   2.596 -1.0170  1.5713  0.2954
61628SOL     OW90846   6.212   8.943   2.890  0.0308 -0.3585  0.8374
61628SOL    HW190847   6.147   8.889   2.935 -0.1523  0.3469  1.4487
61628SOL    HW290848   6.288   8.943   2.949 -0.1112  0.3449  1.0374
61629SOL     OW90849   8.848   8.550   7.364 -0.0358 -0.2870  0.3449
61629SOL    HW190850   8.858   8.619   7.298  2.1280 -1.2272 -0.4080
61629SOL    HW290851   8.755   8.549   7.383 -0.2546  2.3169 -0.1814
61630SOL     OW90852   8.602   8.456   9.860  0.2808 -0.4961  0.2504
61630SOL    HW190853   8.508   8.455   9.877  0.3654  1.4946  1.1227
61630SOL    HW290854   8.609   8.467   9.765 -0.3628 -0.7385  0.1693
61631SOL     OW90855   6.069   2.310   9.748 -0.1742 -0.1337 -0.1970
61631SOL    HW190856   6.061   2.231   9.802  0.0237 -1.4471 -1.9949
61631SOL    HW290857   5.983   2.321   9.708  0.1003 -0.0900 -0.7923
61632SOL     OW90858   4.112  11.177   8.183 -0.7040  0.4701 -0.0607
61632SOL    HW190859   4.192  11.126   8.197 -1.9140 -1.3054  0.8397
61632SOL    HW290860   4.126  11.222   8.100  0.5293 -1.2324 -0.8293
61633SOL     OW90861   0.776   4.279   8.781 -0.5317 -0.3360  0.6887
61633SOL    HW190862   0.768   4.210   8.715 -0.8132 -1.2670  1.6635
61633SOL    HW290863   0.853   4.328   8.755 -0.4235 -0.9119 -0.1280
61634SOL     OW90864   7.426   2.672   5.263  0.1671 -0.0995  0.2687
61634SOL    HW190865   7.518   2.650   5.256 -0.1828 -1.3042 -1.0095
61634SOL    HW290866   7.404   2.714   5.180 -0.3791  0.4306  0.6665
61635SOL     OW90867   6.526   0.980   4.731  0.4386 -0.6868  0.6414
61635SOL    HW190868   6.512   0.907   4.671 -1.4085  0.4191 -0.3383
61635SOL    HW290869   6.445   1.030   4.728  1.0704  0.5622  2.5007
61636SOL     OW90870   7.358  11.729   8.866 -0.0665  0.1216  0.2288
61636SOL    HW190871   7.363  11.640   8.900 -0.5401  0.3775  0.9991
61636SOL    HW290872   7.438  11.771   8.897  0.0045  0.0615  0.1310
61637SOL     OW90873   1.348   1.949   3.303 -0.5359  0.5116  0.5967
61637SOL    HW190874   1.329   2.010   3.374  0.6712  1.3506  0.2374
61637SOL    HW290875   1.428   1.983   3.263 -2.3717  1.4166 -2.6551
61638SOL     OW90876   4.949  10.644  10.633 -0.6289 -0.1940  0.3465
61638SOL    HW190877   4.964  10.688  10.550 -3.3680  1.0330  0.3971
61638SOL    HW290878   4.948  10.714  10.698 -2.9214 -0.5083  0.7384
61639SOL     OW90879   7.988  12.260   1.428 -0.4618 -0.5016 -0.0676
61639SOL    HW190880   7.928  12.327   1.394 -0.4209 -0.1404  0.5596
61639SOL    HW290881   7.998  12.282   1.521  0.7999 -0.4362 -0.2029
61640SOL     OW90882   1.615   6.546   8.636  0.0222 -0.1584 -0.1465
61640SOL    HW190883   1.658   6.561   8.552  0.2021 -2.7230 -0.5845
61640SOL    HW290884   1.522   6.551   8.617  0.0686  0.2567 -0.2755
61641SOL     OW90885   0.777   0.843  11.281  0.1182 -0.0956  0.3097
61641SOL    HW190886   0.869   0.857  11.257 -0.1084  0.2594 -0.3808
61641SOL    HW290887   0.747   0.930  11.308 -0.1141 -0.1301  0.1624
61642SOL     OW90888   2.662   3.558   9.475  0.0107 -0.2118  0.2479
61642SOL    HW190889   2.631   3.649   9.468 -0.6133 -0.4130  0.2983
61642SOL    HW290890   2.631   3.516   9.395 -1.2010 -0.8015  1.0057
61643SOL     OW90891   0.551   2.907   2.375 -0.2242  0.0899  0.2078
61643SOL    HW190892   0.538   2.975   2.308 -0.7214  0.0186  0.2238
61643SOL    HW290893   0.639   2.873   2.358  0.1534  0.9446  0.3892
61644SOL     OW90894  10.842   1.552   4.365  0.2549 -0.3067  0.0558
61644SOL    HW190895  10.831   1.483   4.300  0.9987 -0.2258 -0.1727
61644SOL    HW290896  10.777   1.533   4.432  0.3062 -1.1107 -0.1083
61645SOL     OW90897   6.952   4.102  10.429  0.1275  0.1021 -0.4723
61645SOL    HW190898   6.866   4.128  10.462 -0.0324 -0.7912 -0.1576
61645SOL    HW290899   7.000   4.184  10.422 -0.7673  0.6238 -0.7129
61646SOL     OW90900   4.426   6.335  11.528 -0.1469  0.5158  0.3119
61646SOL    HW190901   4.442   6.384  11.609  1.2109  0.9472 -0.1874
61646SOL    HW290902   4.482   6.378  11.464 -0.8515 -0.1262 -0.7525
61647SOL     OW90903  11.225  11.952  11.427 -0.2768 -0.0922  0.7127
61647SOL    HW190904  11.251  11.958  11.335 -1.3642  0.6566  0.4293
61647SOL    HW290905  11.294  11.901  11.469 -0.8250 -2.3703 -0.9479
61648SOL     OW90906   2.993  10.205  10.328 -0.0694 -0.6605  0.9274
61648SOL    HW190907   2.906  10.219  10.364 -0.3473 -2.9327  1.3023
61648SOL    HW290908   3.009  10.282  10.273 -2.1800 -0.0735  1.0498
61649SOL     OW90909  11.359   2.684   6.275  0.1358 -0.0389 -0.2075
61649SOL    HW190910  11.308   2.603   6.284 -0.1952  0.0805 -0.9426
61649SOL    HW290911  11.426   2.678   6.343 -0.6596 -0.3506  0.5739
61650SOL     OW90912   6.826   8.989   8.902 -0.1407 -0.3926 -0.0230
61650SOL    HW190913   6.878   8.962   8.978 -0.2346  0.0997  0.2201
61650SOL    HW290914   6.760   8.920   8.892 -0.0551 -0.5181  0.2697
61651SOL     OW90915   4.488   3.168   6.936 -0.0830  0.2860  0.6380
61651SOL    HW190916   4.521   3.229   6.870  1.0166 -2.1835 -1.2725
61651SOL    HW290917   4.539   3.188   7.015  0.1656  1.8635  0.1073
61652SOL     OW90918   8.580   1.103   4.445 -0.1081  0.3736 -0.3733
61652SOL    HW190919   8.521   1.178   4.444 -0.4583  0.2229 -3.9302
61652SOL    HW290920   8.658   1.134   4.492 -0.9116  2.3765 -0.2553
61653SOL     OW90921   5.244   9.656   9.889 -0.0771  0.2047 -0.2592
61653SOL    HW190922   5.325   9.637   9.936  0.6051  2.2401 -0.5165
61653SOL    HW290923   5.252   9.607   9.807  0.5589 -0.2051  0.0410
61654SOL     OW90924   0.971   2.287   6.072  0.0677 -0.0888  0.2268
61654SOL    HW190925   1.055   2.320   6.106  0.7270 -0.5852 -0.8514
61654SOL    HW290926   0.953   2.343   5.997  0.4283 -1.1998 -0.7030
61655SOL     OW90927   4.070   2.373   9.449 -0.1696 -0.1587  0.3091
61655SOL    HW190928   4.069   2.293   9.396 -0.8639  0.6266 -0.9172
61655SOL    HW290929   4.162   2.385   9.473  0.1306 -0.6710 -0.5351
61656SOL     OW90930   6.698   6.675  10.291  0.4105  0.4358 -0.0272
61656SOL    HW190931   6.772   6.719  10.333 -0.2536  0.9746  0.6062
61656SOL    HW290932   6.625   6.736  10.300 -0.6857 -1.0071  1.3955
61657SOL     OW90933   2.972  10.521   4.100 -0.0957 -0.5728 -0.6856
61657SOL    HW190934   3.035  10.583   4.136  1.0291 -1.9552 -0.2108
61657SOL    HW290935   2.897  10.526   4.159  0.3835 -0.3701 -0.0833
61658SOL     OW90936   0.974   4.158   3.712 -0.4624  0.1149 -0.3346
61658SOL    HW190937   0.908   4.224   3.692 -0.5711  0.3430  0.7299
61658SOL    HW290938   1.042   4.206   3.761 -0.6752 -0.5981  0.6899
61659SOL     OW90939   1.047  10.476  11.663  0.1694 -0.3510 -0.1353
61659SOL    HW190940   1.071  10.408  11.601 -0.8122 -0.2292 -0.6818
61659SOL    HW290941   1.121  10.536  11.664  0.6088 -0.8845 -0.4294
61660SOL     OW90942   5.794   3.025   3.704 -0.2066 -0.6913  0.1165
61660SOL    HW190943   5.788   3.079   3.626 -0.9933 -2.4987 -1.1570
61660SOL    HW290944   5.865   3.063   3.756  0.1045  0.7428 -1.3178
61661SOL     OW90945   3.004   2.649   7.092 -0.0189  0.4574  0.4741
61661SOL    HW190946   3.015   2.554   7.087 -2.7703  0.1063 -1.8308
61661SOL    HW290947   3.091   2.685   7.072  0.6405 -1.5997 -0.6011
61662SOL     OW90948   4.565   4.377   2.052 -0.4108  0.1070  0.2993
61662SOL    HW190949   4.604   4.302   2.007 -0.4295  0.9748 -1.2341
61662SOL    HW290950   4.471   4.356   2.056 -0.6598  0.6369 -1.4797
61663SOL     OW90951   5.703   9.148   8.657 -0.5757  0.8974 -0.2391
61663SOL    HW190952   5.683   9.198   8.736  1.2175 -0.7949  1.4092
61663SOL    HW290953   5.780   9.192   8.620 -1.1469  1.4255 -0.8190
61664SOL     OW90954  10.008   1.215   6.105  0.0150 -0.0122 -0.3614
61664SOL    HW190955   9.985   1.205   6.198 -0.2235 -0.5611 -0.4734
61664SOL    HW290956   9.992   1.308   6.086  0.3393  0.1668  0.2199
61665SOL     OW90957   9.406  12.214  10.889  0.4076 -0.1621 -0.4694
61665SOL    HW190958   9.468  12.204  10.816  1.4638 -0.2335  0.4188
61665SOL    HW290959   9.395  12.125  10.923  0.8988  0.0409  0.2375
61666SOL     OW90960   0.740   3.073   5.019  0.4417  0.0562 -0.0989
61666SOL    HW190961   0.834   3.067   5.005  0.4202  0.5085 -0.4880
61666SOL    HW290962   0.725   3.036   5.106  0.6772 -2.2870 -0.9900
61667SOL     OW90963  11.156   9.982   3.063 -0.0435 -0.3566  0.4334
61667SOL    HW190964  11.232   9.970   3.120  0.4517 -0.2879 -0.2019
61667SOL    HW290965  11.150   9.900   3.014 -0.9377 -0.7148  1.1356
61668SOL     OW90966   7.560   3.629  10.502  0.3611  0.8239 -0.0244
61668SOL    HW190967   7.474   3.593  10.480  0.2093  1.6227 -0.8073
61668SOL    HW290968   7.607   3.556  10.543 -0.5124  0.2387 -0.0347
61669SOL     OW90969   7.753   2.263  11.487  0.4867  0.1869  0.1480
61669SOL    HW190970   7.685   2.196  11.493 -0.4851  1.1212 -0.2253
61669SOL    HW290971   7.729   2.317  11.412  2.6247 -0.5121 -1.1426
61670SOL     OW90972   8.695   7.163   7.226 -0.6023 -0.1809  0.4755
61670SOL    HW190973   8.775   7.215   7.230 -1.4546  1.2543 -0.0928
61670SOL    HW290974   8.699   7.120   7.141 -0.1862 -0.5340  0.6734
61671SOL     OW90975   7.566  11.943   9.324 -0.1631 -0.6574  1.0011
61671SOL    HW190976   7.644  11.957   9.378 -0.3655 -1.5323  1.5260
61671SOL    HW290977   7.595  11.964   9.235  0.8518 -1.6101  1.0936
61672SOL     OW90978   7.989  12.429   8.937  0.5553 -0.0295 -0.0414
61672SOL    HW190979   7.907  12.412   8.889  0.1811 -0.5968  0.7687
61672SOL    HW290980   8.058  12.411   8.873  0.1310 -2.6124  0.0840
61673SOL     OW90981  11.099   9.535   9.826  1.0345  0.1761  0.0425
61673SOL    HW190982  11.056   9.450   9.833  1.1841  0.2351  2.9322
61673SOL    HW290983  11.192   9.515   9.827  1.0700  0.3694  0.6145
61674SOL     OW90984   9.216   2.906   6.790 -0.0035 -0.4470  0.1775
61674SOL    HW190985   9.268   2.906   6.870 -0.2623  0.4793  0.3582
61674SOL    HW290986   9.260   2.970   6.733 -1.4535  1.0987  0.7004
61675SOL     OW90987   4.007   3.495   6.956 -0.2248  0.0574 -0.7952
61675SOL    HW190988   3.920   3.505   6.918  0.4510  0.4916 -2.2966
61675SOL    HW290989   4.020   3.574   7.008 -1.6093 -1.0512  1.4048
61676SOL     OW90990  11.387   9.016   3.026  0.0934  0.0048  0.5899
61676SOL    HW190991  11.357   9.069   2.952  0.1159  0.6311  1.0200
61676SOL    HW290992  11.477   8.993   3.005 -0.0241 -0.1479  0.2441
61677SOL     OW90993   1.710   9.132   8.488 -0.0025 -0.0104  0.5474
61677SOL    HW190994   1.744   9.203   8.543  0.8304 -1.0563  1.4159
61677SOL    HW290995   1.773   9.125   8.416 -0.6803  0.8335 -0.1727
61678SOL     OW90996   1.120   7.313   2.466 -0.4852 -0.0265 -0.7846
61678SOL    HW190997   1.114   7.353   2.553 -1.1187  0.5743 -1.0911
61678SOL    HW290998   1.213   7.294   2.455 -0.5596 -1.2963  0.5345
61679SOL     OW90999   5.081  10.253   8.249 -0.4875  0.2800  0.2776
61679SOL    HW191000   5.063  10.304   8.170 -1.5253  0.7239  0.7710
61679SOL    HW291001   5.026  10.176   8.241  0.6698 -0.5212 -0.2051
61680SOL     OW91002   2.481   6.165   3.548  0.2084 -0.3065 -0.1354
61680SOL    HW191003   2.482   6.261   3.556  0.2791 -0.3731  0.7367
61680SOL    HW291004   2.571   6.143   3.521  0.1819 -0.1303 -0.3751
61681SOL     OW91005   2.348  10.052   0.680 -0.4546 -0.2671 -0.4478
61681SOL    HW191006   2.308  10.139   0.674  1.4238  0.6413 -0.6597
61681SOL    HW291007   2.311  10.015   0.760 -1.2216  0.7558 -0.2970
61682SOL     OW91008   5.007  10.605  11.190 -0.2473  0.0093 -0.0192
61682SOL    HW191009   4.948  10.677  11.213  0.2064  0.3452  0.1081
61682SOL    HW291010   5.095  10.644  11.192  0.0407 -0.6407  0.4422
61683SOL     OW91011   3.431   2.342   8.850  0.1928 -0.0382 -0.5052
61683SOL    HW191012   3.422   2.249   8.871  0.8887 -0.0186 -0.0946
61683SOL    HW291013   3.525   2.356   8.838  0.4306  1.1181  2.0320
61684SOL     OW91014   0.107   3.056   8.731  0.3496  0.0766 -0.5051
61684SOL    HW191015   0.172   2.989   8.711 -0.0070 -0.2376 -0.6441
61684SOL    HW291016   0.058   3.020   8.805 -0.6188 -0.3838 -1.3238
61685SOL     OW91017   4.092   3.033   1.478 -0.0484 -0.3830 -0.3171
61685SOL    HW191018   4.029   3.088   1.431  1.3880  0.9183 -0.7939
61685SOL    HW291019   4.038   2.978   1.534 -1.5669  2.6678  1.4637
61686SOL     OW91020  10.975   2.871   9.144 -0.3647 -0.5056 -0.1684
61686SOL    HW191021  10.990   2.961   9.174 -1.1919  0.0080 -1.2063
61686SOL    HW291022  10.971   2.819   9.224  0.3233  0.3499  0.4391
61687SOL     OW91023   0.354   4.402  12.285  0.4744  0.2038 -0.0654
61687SOL    HW191024   0.304   4.410  12.366  1.5362 -0.6363  0.7011
61687SOL    HW291025   0.366   4.492  12.255 -2.7802  0.4191 -1.1434
61688SOL     OW91026   4.393   9.489  11.522  0.2792  0.3234  0.0726
61688SOL    HW191027   4.387   9.551  11.449 -0.1820 -0.5670 -0.6759
61688SOL    HW291028   4.318   9.511  11.578 -0.7752 -0.4727 -0.9579
61689SOL     OW91029  10.498   8.995   3.814 -0.0107  0.0968 -0.1086
61689SOL    HW191030  10.541   8.909   3.815 -0.5428 -0.2059  1.6897
61689SOL    HW291031  10.519   9.032   3.900  0.2423  1.7970 -0.8785
61690SOL     OW91032   4.282   0.656   4.332 -0.0477 -0.2235 -0.2618
61690SOL    HW191033   4.196   0.695   4.314  0.7790  0.6798 -2.7523
61690SOL    HW291034   4.331   0.725   4.377 -0.3130 -0.3774  0.2626
61691SOL     OW91035   2.370   5.944   1.586 -0.0833 -0.1903 -0.1528
61691SOL    HW191036   2.372   5.901   1.672 -1.5885  0.3587  0.2031
61691SOL    HW291037   2.411   5.881   1.527  3.2265  0.4017  1.3103
61692SOL     OW91038   7.455   7.467   7.690 -0.4482  0.5395  0.0542
61692SOL    HW191039   7.414   7.398   7.638 -2.2612  2.3247 -0.9859
61692SOL    HW291040   7.508   7.419   7.755 -1.5512 -1.8087 -0.6720
61693SOL     OW91041   0.376   4.722  11.436 -0.2848 -0.5394  0.7469
61693SOL    HW191042   0.446   4.756  11.492  0.5702  0.6318 -0.9274
61693SOL    HW291043   0.314   4.795  11.429  0.2100 -0.2300 -0.7294
61694SOL     OW91044   4.248  10.289   9.496  0.2216 -0.0603 -0.2101
61694SOL    HW191045   4.328  10.238   9.494 -0.8425 -1.9896  2.2298
61694SOL    HW291046   4.184  10.233   9.539 -2.2030  1.7840 -1.1539
61695SOL     OW91047  12.337   9.757   3.616 -0.2316 -0.3739  0.1378
61695SOL    HW191048  12.402   9.735   3.549 -0.5288 -0.0249 -0.2754
61695SOL    HW291049  12.364   9.708   3.693  1.8145  1.4376  0.6806
61696SOL     OW91050   0.608   0.603   4.940 -0.1126  0.5592 -0.3616
61696SOL    HW191051   0.664   0.532   4.911  0.0093  0.1005  0.9081
61696SOL    HW291052   0.521   0.563   4.947 -0.3777  0.9702 -1.2250
61697SOL     OW91053   6.489  11.296   0.042 -0.2596  0.0458 -0.0711
61697SOL    HW191054   6.542  11.347  -0.019  0.8004  0.1615  0.9237
61697SOL    HW291055   6.536  11.301   0.125 -1.4465 -0.4777  0.6568
61698SOL     OW91056   0.630   9.871   2.313  0.0906 -0.1639 -0.3308
61698SOL    HW191057   0.611   9.882   2.407  1.0686 -0.0619 -0.1276
61698SOL    HW291058   0.672   9.954   2.288  0.5147 -0.4803 -0.6722
61699SOL     OW91059   5.791  10.783   9.750 -0.7499 -0.1216 -0.6007
61699SOL    HW191060   5.706  10.749   9.778 -1.2457 -0.0962 -1.9998
61699SOL    HW291061   5.815  10.729   9.675  0.4803 -0.1188 -0.2334
61700SOL     OW91062   1.399   3.894  10.260 -0.1737 -0.0394 -0.5924
61700SOL    HW191063   1.341   3.968  10.278 -0.2805 -0.0313 -0.9730
61700SOL    HW291064   1.483   3.920  10.299 -0.3768  0.0146 -0.1761
61701SOL     OW91065  11.735   2.539   7.011  0.1703 -0.8919 -0.0058
61701SOL    HW191066  11.824   2.553   6.980 -0.0697  0.9725  0.0064
61701SOL    HW291067  11.696   2.627   7.010 -1.8598 -1.7438 -0.6272
61702SOL     OW91068   9.418   2.937  11.869  0.4144 -0.2510 -0.1423
61702SOL    HW191069   9.387   2.926  11.779 -1.2683 -0.6312  0.4579
61702SOL    HW291070   9.384   3.023  11.895  2.8482  0.9381 -0.5870
61703SOL     OW91071   4.100  12.263   3.063 -0.3604 -0.3452  0.2664
61703SOL    HW191072   4.079  12.224   3.149 -0.2734 -0.9407  0.0224
61703SOL    HW291073   4.166  12.329   3.082  0.1908 -0.9733  0.5697
61704SOL     OW91074   4.192   3.903   1.452 -0.1001  0.3459  0.1295
61704SOL    HW191075   4.253   3.941   1.389  0.6498 -1.8391 -0.5442
61704SOL    HW291076   4.245   3.892   1.532 -0.6489  1.7569  0.7203
61705SOL     OW91077   8.922   8.085   0.039  0.1490  0.2290  0.2032
61705SOL    HW191078   8.913   8.173   0.074  0.0797 -0.1443  1.1596
61705SOL    HW291079   8.988   8.043   0.095 -0.2507 -0.5039  0.1425
61706SOL     OW91080   4.342   9.549   0.426 -0.3061 -0.1592  0.7201
61706SOL    HW191081   4.252   9.565   0.398 -0.3858  0.2295  1.1768
61706SOL    HW291082   4.333   9.517   0.516 -0.0416 -1.0768  0.4207
61707SOL     OW91083   1.681   4.272   8.258 -0.1217 -0.2714  0.0178
61707SOL    HW191084   1.735   4.330   8.311 -0.3637 -0.3951  0.3986
61707SOL    HW291085   1.670   4.193   8.311  1.6253 -1.3859 -1.1441
61708SOL     OW91086   0.368   5.420   7.523 -0.1616  0.4640  0.1693
61708SOL    HW191087   0.324   5.437   7.607 -0.7961 -0.4851  0.0492
61708SOL    HW291088   0.458   5.399   7.547 -0.3256  0.2477  0.6141
61709SOL     OW91089   1.171   4.733  11.899  0.3512  0.2336 -0.1573
61709SOL    HW191090   1.178   4.817  11.945 -2.5705  1.3896 -1.5792
61709SOL    HW291091   1.261   4.710  11.877  1.3657  2.2392  1.5453
61710SOL     OW91092   2.137   0.697   7.979  0.2823  0.0706 -0.0519
61710SOL    HW191093   2.212   0.752   7.955  0.5003  0.5165  1.5562
61710SOL    HW291094   2.067   0.725   7.921  0.7617  1.1351 -0.1284
61711SOL     OW91095   4.945   8.622   5.077 -0.4594  0.0313  0.4249
61711SOL    HW191096   4.962   8.716   5.071  1.4851 -0.2164  1.1275
61711SOL    HW291097   4.956   8.602   5.170 -0.1472 -1.0001  0.1731
61712SOL     OW91098   7.672  12.425   7.988  0.2277 -0.3616 -0.2455
61712SOL    HW191099   7.694  12.513   7.956 -0.4820 -0.4309 -0.9532
61712SOL    HW291100   7.756  12.379   7.990  0.4761  0.0575 -0.7493
61713SOL     OW91101  11.860   5.079   4.543  0.7450  0.1287  0.7062
61713SOL    HW191102  11.794   5.144   4.567  1.6459  1.3062  0.0782
61713SOL    HW291103  11.900   5.114   4.463  1.7811 -0.8205  0.7871
61714SOL     OW91104  10.878   8.670   0.039  0.1508 -0.0371 -0.5852
61714SOL    HW191105  10.842   8.583   0.057  1.8089 -0.9014 -1.2188
61714SOL    HW291106  10.916   8.698   0.122  1.4609 -0.8716 -0.8696
61715SOL     OW91107  11.203  11.301   5.825 -0.1456  0.1259 -0.0344
61715SOL    HW191108  11.164  11.221   5.859  0.3675  0.0406  0.3525
61715SOL    HW291109  11.293  11.301   5.859  1.0875 -0.9745 -2.9371
61716SOL     OW91110   4.194   6.352   3.403  0.9834 -0.6426 -0.1077
61716SOL    HW191111   4.284   6.351   3.370  1.2552 -0.2698  0.5947
61716SOL    HW291112   4.181   6.264   3.440  1.5038 -0.3206  0.9022
61717SOL     OW91113  10.532   0.847   5.315  0.2992 -0.1454 -0.0291
61717SOL    HW191114  10.448   0.869   5.356  1.0240  0.1514  1.3579
61717SOL    HW291115  10.534   0.751   5.317  0.6552 -0.1282  1.3792
61718SOL     OW91116   1.469   3.516  10.688  0.0364  0.3508  0.5257
61718SOL    HW191117   1.448   3.450  10.621 -0.0339 -1.7115  2.4341
61718SOL    HW291118   1.553   3.488  10.724 -1.0765 -0.1595  2.9758
61719SOL     OW91119   8.869   9.207   5.860 -0.4411 -0.1702 -0.1679
61719SOL    HW191120   8.836   9.246   5.941  1.0054  3.4907 -1.1316
61719SOL    HW291121   8.960   9.185   5.880 -0.6558 -1.1721 -0.2522
61720SOL     OW91122   9.588   5.365  11.398  0.0268 -0.2393 -0.8483
61720SOL    HW191123   9.531   5.310  11.451 -0.6304  0.4305 -0.8489
61720SOL    HW291124   9.653   5.399  11.461 -0.0567 -0.3640 -0.6941
61721SOL     OW91125  10.752   4.129   5.210  0.3417  0.0949 -0.4616
61721SOL    HW191126  10.716   4.062   5.152 -1.4423  1.4332 -1.0189
61721SOL    HW291127  10.678   4.154   5.266  0.6509  2.2354 -0.9229
61722SOL     OW91128   9.522   3.795   1.662 -0.2934 -0.6986 -0.6097
61722SOL    HW191129   9.594   3.741   1.697  0.3395  0.1298 -0.6059
61722SOL    HW291130   9.565   3.873   1.628 -1.2015 -0.1911 -0.6192
61723SOL     OW91131   3.829   6.886   1.679  0.4743  0.3152 -0.0011
61723SOL    HW191132   3.922   6.865   1.684  0.1327 -1.1484  1.1606
61723SOL    HW291133   3.804   6.865   1.589  1.7626  3.3427 -1.2134
61724SOL     OW91134   6.529   4.974   8.452 -0.2946 -0.6096 -0.4643
61724SOL    HW191135   6.438   5.004   8.441  0.3347  0.5885 -3.0154
61724SOL    HW291136   6.557   4.948   8.365  2.0619 -0.2086  0.1023
61725SOL     OW91137   8.344   1.385   1.817 -0.1520 -0.0465 -0.0764
61725SOL    HW191138   8.303   1.430   1.742  1.9046  1.5361 -0.3295
61725SOL    HW291139   8.367   1.456   1.877 -0.3393 -1.1668  1.3726
61726SOL     OW91140   2.125   9.327   0.627 -0.0653  0.2197  0.1353
61726SOL    HW191141   2.209   9.283   0.613  0.5558  1.3838  0.0767
61726SOL    HW291142   2.061   9.270   0.584  0.6447 -0.8461  0.4557
61727SOL     OW91143   9.070  10.300   0.637  0.1046  0.0831 -0.2640
61727SOL    HW191144   9.091  10.387   0.603  0.7523  0.4556  1.0202
61727SOL    HW291145   9.100  10.302   0.728 -0.3117 -1.3278 -0.0725
61728SOL     OW91146   6.247   1.053   4.103 -0.0120  0.3487  0.1309
61728SOL    HW191147   6.187   1.125   4.082  1.0105  0.6646 -2.0136
61728SOL    HW291148   6.194   0.992   4.155 -2.0732  0.8144 -1.2979
61729SOL     OW91149   8.614   8.675   8.370  0.0357  0.1624  0.5265
61729SOL    HW191150   8.527   8.703   8.398  0.7061  0.6697  2.2355
61729SOL    HW291151   8.654   8.755   8.335  0.5447  0.4719  1.7452
61730SOL     OW91152   2.827  11.762   9.128 -0.0019  0.4559  0.1804
61730SOL    HW191153   2.836  11.853   9.099  1.6142  0.5009  0.7471
61730SOL    HW291154   2.827  11.711   9.047  0.9843  0.8371 -0.0735
61731SOL     OW91155   8.071   9.234   6.228 -0.0992 -0.1678  0.1607
61731SOL    HW191156   8.097   9.300   6.165 -1.0223 -1.2487 -1.4245
61731SOL    HW291157   8.153   9.203   6.267  0.3991  1.2618  0.3145
61732SOL     OW91158   1.082   6.275  10.061 -0.8299  0.7349 -0.1689
61732SOL    HW191159   1.055   6.202  10.007 -2.4109  2.7624 -2.3243
61732SOL    HW291160   1.030   6.266  10.141 -2.8336  0.7450 -1.3924
61733SOL     OW91161   0.032   9.787  12.084  0.0251 -0.0634  0.1745
61733SOL    HW191162  -0.023   9.858  12.117 -0.7705 -0.5229 -0.1414
61733SOL    HW291163   0.121   9.817  12.099 -0.3042  0.1645  1.8275
61734SOL     OW91164   5.406   2.982   3.214  0.0683  0.1287  0.8382
61734SOL    HW191165   5.372   3.071   3.203 -0.4052 -0.0487  0.8535
61734SOL    HW291166   5.379   2.957   3.302 -0.1990 -0.2059  0.6598
61735SOL     OW91167  11.849  10.250   3.853 -0.3842 -0.0383  0.5314
61735SOL    HW191168  11.776  10.280   3.908 -0.0786  2.3937 -0.2794
61735SOL    HW291169  11.809  10.188   3.793 -1.3637 -0.3159  1.4194
61736SOL     OW91170   2.490   5.564   4.264  0.3165  0.1750  0.1134
61736SOL    HW191171   2.571   5.538   4.309 -0.2418  1.1822  1.8007
61736SOL    HW291172   2.421   5.551   4.329 -1.0937 -1.6620 -1.6254
61737SOL     OW91173  11.579   2.578  11.303 -0.0807 -0.5643  0.2333
61737SOL    HW191174  11.633   2.654  11.283  1.1026 -1.6121 -0.7464
61737SOL    HW291175  11.537   2.600  11.386  0.0347  1.2364 -0.1502
61738SOL     OW91176   0.416   7.782   0.533  0.3506  0.3076  0.0836
61738SOL    HW191177   0.452   7.835   0.463  0.6071 -0.7206 -0.5800
61738SOL    HW291178   0.474   7.706   0.539  0.3329  0.3696  1.4037
61739SOL     OW91179   0.535  11.399   0.964 -0.4382  0.2989 -0.4252
61739SOL    HW191180   0.572  11.439   1.043 -0.9231  1.4461 -0.7649
61739SOL    HW291181   0.556  11.460   0.893 -0.4577 -0.4648 -1.1038
61740SOL     OW91182   6.796   9.409   3.342 -0.1373 -0.3366 -0.4281
61740SOL    HW191183   6.750   9.352   3.404  0.2176 -1.0854 -0.8353
61740SOL    HW291184   6.734   9.422   3.270 -0.8263  1.1317  0.3914
61741SOL     OW91185   7.619   4.910  11.582  0.0870 -0.8075  0.3070
61741SOL    HW191186   7.540   4.879  11.626 -0.8985  1.5096  0.3091
61741SOL    HW291187   7.619   4.866  11.497 -1.6545 -0.3187  0.0079
61742SOL     OW91188   3.179  10.394   0.934  0.4232 -0.4752 -0.2501
61742SOL    HW191189   3.187  10.474   0.986 -0.1495 -0.7832  0.3242
61742SOL    HW291190   3.212  10.325   0.991 -0.0759 -0.7991 -0.3470
61743SOL     OW91191  10.627   4.453   0.452 -0.1503  0.5749  0.4136
61743SOL    HW191192  10.680   4.441   0.531 -0.5233 -0.0741  0.5788
61743SOL    HW291193  10.541   4.477   0.486  0.0588  1.7272  0.1457
61744SOL     OW91194   2.003   1.341   4.329 -0.2235 -0.5329  0.2730
61744SOL    HW191195   2.010   1.249   4.305  0.5002 -0.0801 -1.3951
61744SOL    HW291196   1.958   1.382   4.255  0.3885  0.6204  0.5136
61745SOL     OW91197  11.740   9.183   0.692 -0.5863 -0.6476  0.1678
61745SOL    HW191198  11.717   9.110   0.634  0.3073 -1.6718  1.0483
61745SOL    HW291199  11.825   9.213   0.659 -0.2635 -0.9749  0.6813
61746SOL     OW91200  10.463   6.430   2.324 -0.4539 -0.1475  0.0469
61746SOL    HW191201  10.505   6.491   2.263 -1.5628  0.3505 -0.2518
61746SOL    HW291202  10.372   6.461   2.329 -1.3023 -2.3385 -0.8304
61747SOL     OW91203   4.628   1.604   2.509  0.1630 -0.0770  0.1441
61747SOL    HW191204   4.604   1.567   2.424  0.3961 -0.4639  0.2451
61747SOL    HW291205   4.572   1.558   2.572  1.4945 -1.3395  0.4395
61748SOL     OW91206   6.052   0.476   5.519 -0.6321 -0.0274 -0.3774
61748SOL    HW191207   6.092   0.535   5.582  2.0790 -0.1928 -1.7767
61748SOL    HW291208   6.051   0.526   5.437 -0.4257 -1.1108 -1.0619
61749SOL     OW91209  10.231   9.207   8.258  0.3894 -0.9577  0.5364
61749SOL    HW191210  10.145   9.168   8.242  0.1986 -0.7454  1.0095
61749SOL    HW291211  10.276   9.143   8.314  1.3389 -2.0597 -1.3782
61750SOL     OW91212   0.870  12.172   9.415  0.3375 -0.0863  0.4683
61750SOL    HW191213   0.825  12.090   9.395  1.9688 -0.8985 -0.0973
61750SOL    HW291214   0.925  12.151   9.490  1.7480  0.0633 -0.4722
61751SOL     OW91215   2.567   9.959   0.544 -0.1712  0.5540 -0.1977
61751SOL    HW191216   2.608  10.043   0.523  0.0262  0.3548 -0.6341
61751SOL    HW291217   2.503   9.979   0.612 -0.4291  1.1280 -0.6041
61752SOL     OW91218   5.790  12.202   1.004 -0.0601  0.1188 -0.4152
61752SOL    HW191219   5.813  12.117   1.041 -1.0316 -0.1816 -0.4829
61752SOL    HW291220   5.808  12.193   0.911 -0.9491 -0.2911 -0.5501
61753SOL     OW91221  10.032   6.376   5.481 -0.2378  0.3469 -0.0205
61753SOL    HW191222  10.120   6.353   5.451  1.1766  4.2864  0.5095
61753SOL    HW291223  10.045   6.413   5.568 -2.2934  1.8277 -0.2802
61754SOL     OW91224  11.533  11.473   5.837 -0.0520  0.7030 -0.4457
61754SOL    HW191225  11.497  11.396   5.881 -0.2752  1.8298  1.4760
61754SOL    HW291226  11.457  11.514   5.795 -0.0214  0.1622 -1.0382
61755SOL     OW91227  11.828   0.016   8.263 -0.1380 -0.0177 -0.2899
61755SOL    HW191228  11.921   0.018   8.238  0.5980 -1.2058  2.0676
61755SOL    HW291229  11.815   0.096   8.314 -0.4927  0.2651 -0.8162
61756SOL     OW91230   8.711   3.187   2.807  0.5188  0.0429  0.1664
61756SOL    HW191231   8.714   3.279   2.779 -0.6179  0.1850  0.4773
61756SOL    HW291232   8.627   3.155   2.775  1.1954 -1.0943 -0.5195
61757SOL     OW91233   2.602   6.208   2.160 -0.2277  0.5171 -0.4788
61757SOL    HW191234   2.585   6.156   2.081  1.3222 -0.5931 -0.1398
61757SOL    HW291235   2.676   6.164   2.201 -2.0037  0.0953  2.4974
61758SOL     OW91236   2.448   4.401   2.562 -0.3228  0.4606  0.0198
61758SOL    HW191237   2.377   4.406   2.626 -0.8114  1.4634 -0.5764
61758SOL    HW291238   2.407   4.365   2.483  0.0317  0.2466 -0.0698
61759SOL     OW91239   4.433   9.173   9.249 -0.2714  0.0101  1.1098
61759SOL    HW191240   4.365   9.135   9.193  1.3302 -2.4078  0.6902
61759SOL    HW291241   4.390   9.249   9.289 -2.2081  0.4767 -1.5615
61760SOL     OW91242   6.491   1.201   9.547  0.1590 -0.6488 -0.4601
61760SOL    HW191243   6.524   1.118   9.579  2.4669  0.7023  0.9768
61760SOL    HW291244   6.558   1.265   9.572 -1.2517  1.5805 -1.9515
61761SOL     OW91245  12.458  10.694   8.687  0.4170 -0.4099  0.2829
61761SOL    HW191246  12.524  10.702   8.618  0.3406  0.5825  0.3017
61761SOL    HW291247  12.379  10.665   8.643 -0.0187  1.5437 -0.3188
61762SOL     OW91248   9.760   4.138   2.045 -0.4905  0.2872  0.5559
61762SOL    HW191249   9.792   4.137   2.136 -0.8700  1.2283  0.7153
61762SOL    HW291250   9.814   4.206   2.003 -0.6716  0.2157  0.2127
61763SOL     OW91251   0.621  12.376  11.858  0.5813  0.3910 -0.6691
61763SOL    HW191252   0.576  12.418  11.784  0.9705  2.4735  0.1978
61763SOL    HW291253   0.602  12.433  11.933  0.5298 -1.4403  0.7907
61764SOL     OW91254   7.063   0.154   5.099  0.0155 -0.2208  0.0033
61764SOL    HW191255   7.049   0.212   5.024 -0.6403  0.9530  0.9929
61764SOL    HW291256   7.138   0.099   5.074 -0.5910 -0.3168 -1.7559
61765SOL     OW91257   4.996  11.863   9.661 -0.1021 -0.4613  0.4311
61765SOL    HW191258   4.997  11.937   9.599  3.4131  0.5920  1.4945
61765SOL    HW291259   4.950  11.897   9.737 -0.2515 -0.0386  0.1583
61766SOL     OW91260   1.935   9.552   5.680  0.1323 -0.2619  0.2055
61766SOL    HW191261   1.854   9.537   5.632  0.0473  0.4577  0.1120
61766SOL    HW291262   1.994   9.484   5.650 -0.8749 -1.6872  1.3254
61767SOL     OW91263   1.753   1.253  10.539 -0.2012  0.1209  0.7081
61767SOL    HW191264   1.817   1.281  10.604 -1.5669  0.4498  1.9923
61767SOL    HW291265   1.781   1.166  10.513  0.8102  0.2995  1.1449
61768SOL     OW91266  10.251   0.269   0.986  0.4572 -0.1873  0.4179
61768SOL    HW191267  10.230   0.327   0.914 -0.0893  1.1565  1.6129
61768SOL    HW291268  10.271   0.185   0.945  1.3877  0.8609 -1.3575
61769SOL     OW91269   3.468   0.883  12.389  0.6769  0.1186 -0.2404
61769SOL    HW191270   3.407   0.847  12.324  2.7000 -0.1341 -2.0965
61769SOL    HW291271   3.522   0.809  12.416  0.5167  0.4370  1.0258
61770SOL     OW91272   8.612  11.669  12.480 -0.0681  0.2125 -0.2180
61770SOL    HW191273   8.574  11.747  12.439 -2.0804 -0.4203  0.3304
61770SOL    HW291274   8.624  11.607  12.408  0.1768  0.5150 -0.4372
61771SOL     OW91275   3.837   0.730  10.693  0.0875  1.1344 -0.1289
61771SOL    HW191276   3.825   0.769  10.779  0.9661 -0.3608  0.6959
61771SOL    HW291277   3.877   0.800  10.641  1.5578  1.3961  1.2900
61772SOL     OW91278   2.012   1.163   7.624 -0.4019  0.3025 -0.8713
61772SOL    HW191279   1.942   1.166   7.559 -1.9631 -1.1733  0.6203
61772SOL    HW291280   1.991   1.087   7.678  2.4694 -0.2686 -0.4163
61773SOL     OW91281   3.025   8.514   1.535  0.4476 -0.1254  0.1402
61773SOL    HW191282   2.966   8.456   1.487 -2.1347 -0.0053  2.8119
61773SOL    HW291283   2.975   8.539   1.613  3.4494  1.4803  1.7431
61774SOL     OW91284   6.272   3.038   4.419 -0.1915  0.1470  0.5430
61774SOL    HW191285   6.264   3.130   4.394 -0.9493 -0.2798 -0.9082
61774SOL    HW291286   6.363   3.016   4.400 -0.1236  0.4817  0.4657
61775SOL     OW91287   8.054   4.847   0.193  0.1343  0.4096 -0.4828
61775SOL    HW191288   8.101   4.888   0.265 -1.3350 -0.4479  1.0256
61775SOL    HW291289   8.083   4.755   0.194  0.0624  0.3776 -0.9556
61776SOL     OW91290   0.286   2.055   6.826 -1.0199 -0.4029  0.2000
61776SOL    HW191291   0.210   2.085   6.777 -1.6991  0.9933  1.9956
61776SOL    HW291292   0.251   1.995   6.891 -0.0714 -2.6207 -1.2074
61777SOL     OW91293   7.075   8.897   1.816  0.2473  0.3876 -0.5066
61777SOL    HW191294   6.986   8.921   1.841 -0.3851 -1.5455 -0.6812
61777SOL    HW291295   7.068   8.871   1.724  1.5141  2.5104 -1.2788
61778SOL     OW91296   4.164   3.584  11.938 -0.5160 -0.0237 -0.1735
61778SOL    HW191297   4.129   3.658  11.988  0.3322  0.1555  0.1682
61778SOL    HW291298   4.257   3.585  11.956 -0.5750 -1.5602  0.3380
61779SOL     OW91299   3.157   3.639   2.021  0.2872  0.2625  0.3428
61779SOL    HW191300   3.163   3.681   1.935 -3.6854  0.0982 -0.1798
61779SOL    HW291301   3.109   3.702   2.075 -0.8315 -1.2936  1.2234
61780SOL     OW91302  10.756   8.673   5.392  0.1591  0.0844 -0.2118
61780SOL    HW191303  10.667   8.685   5.360  0.2623 -0.1919 -0.6139
61780SOL    HW291304  10.746   8.650   5.485 -0.0877  2.4929  0.4259
61781SOL     OW91305   0.029   5.528   3.183 -0.1538  0.7590  0.0957
61781SOL    HW191306   0.115   5.489   3.169 -0.4805 -0.5677  1.4473
61781SOL    HW291307   0.035   5.615   3.145  1.4586  0.3276 -0.7271
61782SOL     OW91308   7.412  10.846   1.694  0.2236  0.0259 -0.0063
61782SOL    HW191309   7.418  10.762   1.648  0.0739  0.9921 -1.8693
61782SOL    HW291310   7.322  10.876   1.680  0.2461  0.4721  0.7164
61783SOL     OW91311   6.509  11.122   9.183 -0.0111  0.5892  0.6953
61783SOL    HW191312   6.593  11.109   9.141 -0.7788 -1.2313 -0.4207
61783SOL    HW291313   6.491  11.216   9.173  1.4069  0.8201  0.0526
61784SOL     OW91314  11.998   1.784   5.158 -0.3382 -0.2514 -0.2513
61784SOL    HW191315  12.068   1.841   5.126 -1.6039  2.1522  1.0296
61784SOL    HW291316  11.939   1.775   5.084 -0.4787  0.7126 -0.2660
61785SOL     OW91317   5.254   7.949   0.420 -0.0983  0.2467 -0.5897
61785SOL    HW191318   5.177   7.901   0.451 -1.5353  3.0797  0.6957
61785SOL    HW291319   5.278   8.005   0.495  0.2373  2.8268 -2.4797
61786SOL     OW91320   7.953  12.306   9.656  0.5958  0.2194  0.1905
61786SOL    HW191321   8.037  12.344   9.629  1.3970 -0.6754  1.3012
61786SOL    HW291322   7.949  12.323   9.750  0.0488 -0.7086  0.3436
61787SOL     OW91323   7.458   1.445   2.426  0.9325 -0.2862 -0.1797
61787SOL    HW191324   7.450   1.509   2.354 -1.8454  1.9033  1.8320
61787SOL    HW291325   7.390   1.380   2.408  1.1563 -0.4978 -0.2530
61788SOL     OW91326   7.343   5.498   8.129 -0.1732  0.0781  0.2223
61788SOL    HW191327   7.337   5.586   8.092 -0.7262 -0.8318 -2.0165
61788SOL    HW291328   7.429   5.496   8.172 -0.6439  2.0466  1.3590
61789SOL     OW91329   1.719   4.081   6.911 -0.3752 -0.2838 -0.2645
61789SOL    HW191330   1.711   4.021   6.985 -1.1797 -1.2070 -1.0651
61789SOL    HW291331   1.708   4.025   6.834 -0.8144  0.8493 -1.0555
61790SOL     OW91332  10.821  11.443   0.145  0.1522  0.5182  0.0326
61790SOL    HW191333  10.764  11.501   0.196 -0.8650 -0.4952  0.0876
61790SOL    HW291334  10.903  11.492   0.136 -0.1984  1.3872  1.2562
61791SOL     OW91335   6.540   4.740   5.766 -0.4191  0.3661 -0.2018
61791SOL    HW191336   6.549   4.729   5.861 -0.4567  1.5577 -0.0446
61791SOL    HW291337   6.446   4.731   5.750 -0.6232  1.6887  0.1118
61792SOL     OW91338   5.834  11.764   8.780 -0.9362  0.1559 -0.6599
61792SOL    HW191339   5.833  11.805   8.867 -0.9905 -0.8920 -0.1430
61792SOL    HW291340   5.824  11.836   8.719 -0.6651  0.9389  0.2006
61793SOL     OW91341   7.923   5.779   3.509  0.9805  0.8462  0.0399
61793SOL    HW191342   7.915   5.753   3.601 -0.0549 -0.0320 -0.2627
61793SOL    HW291343   7.993   5.724   3.475  1.0381  0.8229  0.1953
61794SOL     OW91344  12.292   7.437   0.575  0.2450  0.0335 -1.3137
61794SOL    HW191345  12.279   7.530   0.557  0.1864  0.3598  0.2188
61794SOL    HW291346  12.383   7.431   0.607 -0.6210  0.1070  1.4295
61795SOL     OW91347   0.820   4.817   9.384 -0.2368 -0.7737 -0.5926
61795SOL    HW191348   0.750   4.879   9.362  0.2859 -0.1609 -0.5689
61795SOL    HW291349   0.783   4.762   9.453  1.0299  3.1129  3.7237
61796SOL     OW91350  11.697  10.302   7.559 -0.0917 -0.3543 -0.1137
61796SOL    HW191351  11.785  10.330   7.537  0.1551 -0.3661  0.8349
61796SOL    HW291352  11.653  10.291   7.475 -0.1907  2.7781 -0.5808
61797SOL     OW91353  11.148   9.062   0.494 -0.0246  0.0136  0.0354
61797SOL    HW191354  11.181   9.146   0.525 -0.4949  0.4828 -0.7002
61797SOL    HW291355  11.222   9.023   0.448  0.6151 -0.6006  1.5288
61798SOL     OW91356   6.225  10.307  10.957  0.8076 -0.0955  0.2090
61798SOL    HW191357   6.227  10.363  10.879  1.4141 -0.7372 -0.2535
61798SOL    HW291358   6.301  10.335  11.008  0.6713  0.0175  0.3497
61799SOL     OW91359   2.228   7.436   5.561 -0.1976 -0.2409  0.2658
61799SOL    HW191360   2.153   7.492   5.580  0.2820  0.3862  0.3471
61799SOL    HW291361   2.295   7.496   5.527  0.3891 -0.7369  0.5205
61800SOL     OW91362   0.992   7.421   0.902 -0.0735  0.0850 -0.3007
61800SOL    HW191363   0.921   7.358   0.891  1.3084 -1.4150 -1.0312
61800SOL    HW291364   1.065   7.370   0.937  0.9410  1.3995 -0.3988
61801SOL     OW91365   0.549   1.858   3.279  0.5111  0.1290  0.1430
61801SOL    HW191366   0.545   1.940   3.328 -2.0804 -0.0495  0.3347
61801SOL    HW291367   0.552   1.790   3.346  2.6404 -0.0101 -0.0152
61802SOL     OW91368   8.424   5.267  12.183 -0.1979  0.7235 -0.6692
61802SOL    HW191369   8.459   5.247  12.269 -0.9246  0.4305 -0.4384
61802SOL    HW291370   8.502   5.284  12.129  0.4310 -1.6733 -0.6304
61803SOL     OW91371  11.351   7.880  11.344  0.0061  0.0223  0.2219
61803SOL    HW191372  11.309   7.802  11.379  0.6841  0.2248  1.5593
61803SOL    HW291373  11.400   7.849  11.268  1.3849 -1.1797  1.5111
61804SOL     OW91374   7.298  12.176   5.289  0.4723  0.0184 -0.5965
61804SOL    HW191375   7.232  12.122   5.331 -0.3129 -0.0695 -1.8785
61804SOL    HW291376   7.249  12.232   5.229  1.1398  2.8086  1.2482
61805SOL     OW91377   8.954  10.067  11.811 -0.0345 -0.4153  0.1222
61805SOL    HW191378   8.964   9.982  11.767 -0.1745 -0.4065  0.0728
61805SOL    HW291379   9.038  10.110  11.798 -1.1130  1.0243 -3.2233
61806SOL     OW91380   2.320   3.209   5.490  0.4132  0.0103 -0.0777
61806SOL    HW191381   2.289   3.120   5.506  2.5217 -0.8051 -0.2084
61806SOL    HW291382   2.241   3.258   5.468 -0.6020 -2.2145 -1.8183
61807SOL     OW91383  11.221   0.343   3.868  0.5710  0.6674  0.0150
61807SOL    HW191384  11.196   0.359   3.959  1.7337 -0.5236  0.5787
61807SOL    HW291385  11.316   0.340   3.869  0.5869 -0.0064 -1.1350
61808SOL     OW91386  12.157   1.105   4.815 -0.0546  0.1158 -0.3668
61808SOL    HW191387  12.189   1.189   4.848 -0.6971 -0.4347  1.8044
61808SOL    HW291388  12.066   1.100   4.845  0.6787 -2.4059  1.8666
61809SOL     OW91389   2.117   8.372   3.509 -0.1163 -0.0386 -0.0018
61809SOL    HW191390   2.194   8.354   3.455  0.5526 -0.9198  1.1854
61809SOL    HW291391   2.132   8.322   3.589 -1.3439  0.7690  0.7699
61810SOL     OW91392  10.670   1.616  10.642  0.1497  0.1427 -0.5045
61810SOL    HW191393  10.708   1.670  10.711 -1.1141  2.9252 -1.8267
61810SOL    HW291394  10.717   1.641  10.563 -0.9036 -0.2143 -1.2684
61811SOL     OW91395   3.446   1.765   4.644  0.6818 -0.2669  0.4236
61811SOL    HW191396   3.450   1.850   4.602  4.2537 -0.5193 -0.0597
61811SOL    HW291397   3.382   1.716   4.594  0.7957  1.1944 -1.2389
61812SOL     OW91398   6.829  10.954   5.673  0.0163 -0.1421 -0.5168
61812SOL    HW191399   6.882  10.875   5.665  0.7852  0.2585  0.4312
61812SOL    HW291400   6.793  10.968   5.585 -1.4537 -2.4325 -0.3550
61813SOL     OW91401   7.970   5.626   3.053 -0.4387 -0.4188 -0.0078
61813SOL    HW191402   7.988   5.659   2.965 -3.0062 -0.8908 -0.7891
61813SOL    HW291403   8.020   5.682   3.111  3.4226 -1.6473 -1.8254
61814SOL     OW91404   8.385   7.166  10.494 -0.3331  0.1959 -0.3800
61814SOL    HW191405   8.397   7.241  10.435  0.8292 -0.3323 -0.8519
61814SOL    HW291406   8.383   7.204  10.581  0.4565  0.7712 -0.6000
61815SOL     OW91407  11.534  11.937   9.873  0.5334  0.0426 -0.1298
61815SOL    HW191408  11.577  11.878   9.810 -0.1169 -1.2093  0.5678
61815SOL    HW291409  11.495  11.879   9.938 -0.0443  1.2617  0.6517
61816SOL     OW91410  11.624   4.010  11.326 -0.3186  0.2808  0.1554
61816SOL    HW191411  11.583   4.097  11.320 -0.7553  0.0040 -1.4609
61816SOL    HW291412  11.629   3.980  11.235 -0.9183 -1.7390  0.7439
61817SOL     OW91413  12.428   2.574   2.271  0.6036  0.0846  0.4343
61817SOL    HW191414  12.416   2.567   2.366 -0.4484  2.8542  0.5906
61817SOL    HW291415  12.513   2.617   2.261  0.9048 -0.5790  0.0744
61818SOL     OW91416   7.081   9.237   4.750 -0.4449 -0.0292 -0.5018
61818SOL    HW191417   7.080   9.314   4.806 -1.3402 -0.0416 -0.4796
61818SOL    HW291418   7.159   9.248   4.696 -0.2490  0.6041 -0.1066
61819SOL     OW91419  11.110   8.007   0.708 -0.4055  0.0970  0.7499
61819SOL    HW191420  11.111   8.015   0.612 -1.2161  1.7444  0.8507
61819SOL    HW291421  11.188   8.055   0.737  0.3010 -1.0975  0.9077
61820SOL     OW91422   7.895   5.152   7.508 -0.2468  0.5839  0.5952
61820SOL    HW191423   7.906   5.157   7.603 -1.3280 -2.6326  1.0096
61820SOL    HW291424   7.983   5.162   7.473  0.2222  1.4628  1.9255
61821SOL     OW91425   4.128   2.185   6.374 -0.1019  0.2012  0.1319
61821SOL    HW191426   4.045   2.222   6.345  0.2176 -0.4476 -1.7373
61821SOL    HW291427   4.193   2.251   6.348  0.0322  0.4932  1.1625
61822SOL     OW91428  10.039   2.617   9.296 -0.1623 -0.4844 -0.7804
61822SOL    HW191429   9.954   2.648   9.267 -0.7994  0.6916  1.9875
61822SOL    HW291430  10.101   2.682   9.262 -0.8006  0.5486 -0.0236
61823SOL     OW91431   8.271  12.455   5.625 -0.4274  0.5038  0.3119
61823SOL    HW191432   8.259  12.543   5.661  0.1498 -0.2512  2.5251
61823SOL    HW291433   8.190  12.409   5.647 -0.7729  0.4721 -0.9340
61824SOL     OW91434  11.885   8.990   2.251 -0.4648  0.2965  0.7622
61824SOL    HW191435  11.868   9.028   2.164 -1.7738 -0.3630  0.7171
61824SOL    HW291436  11.917   9.064   2.303 -0.1705  0.8164 -0.1334
61825SOL     OW91437  10.042   3.404   1.891 -0.0637 -0.4609  0.0586
61825SOL    HW191438  10.042   3.309   1.900 -1.0468 -0.4221  0.5832
61825SOL    HW291439  10.127   3.431   1.924  0.5890 -1.2240 -0.9321
61826SOL     OW91440   1.193   1.105   1.727  0.1407  0.3711  0.0677
61826SOL    HW191441   1.228   1.139   1.645  0.4861 -1.0196 -0.3892
61826SOL    HW291442   1.270   1.078   1.777 -0.1296  0.1916  0.3902
61827SOL     OW91443   2.495   2.187   6.026  0.4034 -0.3016 -0.0962
61827SOL    HW191444   2.495   2.256   6.092 -2.2946 -1.1888  0.9712
61827SOL    HW291445   2.575   2.137   6.044  1.6166  1.6253  0.0553
61828SOL     OW91446   4.205   6.587  10.357 -1.2024  0.0487 -0.2908
61828SOL    HW191447   4.292   6.558  10.386 -1.7315 -0.4381  0.8251
61828SOL    HW291448   4.146   6.562  10.427 -2.4978 -0.9123 -1.6523
61829SOL     OW91449   2.931   3.632   8.552 -0.2583 -0.3344  0.3127
61829SOL    HW191450   3.008   3.661   8.502  1.3810  0.1715  2.9213
61829SOL    HW291451   2.860   3.687   8.520  2.0252  4.8379  2.7530
61830SOL     OW91452   1.104   5.222   5.685 -0.3019 -0.2191  0.0320
61830SOL    HW191453   1.038   5.264   5.739  0.4800  0.1093  0.7587
61830SOL    HW291454   1.075   5.132   5.676 -1.2045  0.0934 -0.2513
61831SOL     OW91455   1.826   2.103   2.537  0.4075  0.5201 -0.2813
61831SOL    HW191456   1.896   2.145   2.586 -0.9353  2.3455  0.1574
61831SOL    HW291457   1.847   2.119   2.445  0.7072  0.8153 -0.1601
61832SOL     OW91458   2.134   5.199   0.065 -0.4658  0.0806 -0.2314
61832SOL    HW191459   2.097   5.139   0.129  1.9777 -1.0412  0.2553
61832SOL    HW291460   2.164   5.274   0.116  0.3697 -0.2623 -0.1973
61833SOL     OW91461   4.129   0.589   6.031  0.1075 -0.3489  0.5659
61833SOL    HW191462   4.153   0.676   5.999  1.2607 -0.3057  1.4668
61833SOL    HW291463   4.052   0.564   5.980 -0.7395  1.5410  0.8654
61834SOL     OW91464  11.957   2.870   8.242  0.1349 -0.4877  0.5382
61834SOL    HW191465  11.916   2.793   8.204 -0.8186  0.1390  0.2759
61834SOL    HW291466  12.051   2.852   8.235 -0.0661 -2.1227  1.5349
61835SOL     OW91467   9.612   0.778   0.074  0.0500 -0.1313 -0.5774
61835SOL    HW191468   9.570   0.767  -0.012  0.3367  0.4617 -0.7949
61835SOL    HW291469   9.698   0.815   0.055  0.2530 -0.3197 -0.0529
61836SOL     OW91470   1.222   9.112   0.771  0.2322 -0.6337 -0.1976
61836SOL    HW191471   1.168   9.173   0.821  0.5417  1.1910 -1.9784
61836SOL    HW291472   1.301   9.101   0.825 -0.9941 -1.7381  1.4597
61837SOL     OW91473   0.505   2.378   1.837  0.3628  0.0673 -0.0052
61837SOL    HW191474   0.508   2.342   1.926  1.8667  1.4109  0.5337
61837SOL    HW291475   0.421   2.350   1.803 -0.5059 -0.0142  2.0507
61838SOL     OW91476  11.536   4.927  12.224  0.2599 -0.2923  0.1252
61838SOL    HW191477  11.601   4.944  12.292 -2.3867  2.2940  2.2746
61838SOL    HW291478  11.454   4.962  12.259 -1.6479 -0.2960 -3.7555
61839SOL     OW91479  10.080   1.000  10.854 -0.2876  0.2400  0.5347
61839SOL    HW191480   9.995   0.991  10.811  1.3884 -2.7664 -2.7104
61839SOL    HW291481  10.136   1.042  10.789  1.1256  0.7400  1.9912
61840SOL     OW91482   2.416   4.374   7.216  0.0330 -0.5746 -0.0166
61840SOL    HW191483   2.380   4.360   7.129 -1.7315 -0.7200  0.6861
61840SOL    HW291484   2.340   4.370   7.274  0.6051  2.8106  1.2043
61841SOL     OW91485   9.336   5.514   4.883  0.2097  0.7737 -0.0473
61841SOL    HW191486   9.372   5.429   4.857  0.8274  0.9267  0.2958
61841SOL    HW291487   9.309   5.555   4.801 -0.5278  0.0559 -0.1719
61842SOL     OW91488   8.245   8.119   1.843  0.1076  0.1050 -0.3005
61842SOL    HW191489   8.242   8.208   1.810 -2.6981 -0.3738 -1.6555
61842SOL    HW291490   8.194   8.068   1.780  0.2989 -2.1713  1.2488
61843SOL     OW91491  12.237  11.276   6.055  0.1077  0.1650 -0.0426
61843SOL    HW191492  12.238  11.258   5.960  1.1517  1.6053 -0.3371
61843SOL    HW291493  12.161  11.228   6.087 -0.3638 -0.2341 -1.6384
61844SOL     OW91494   7.501  12.352   4.874 -0.3879 -0.2350  0.2372
61844SOL    HW191495   7.498  12.387   4.785  2.1785  0.8400  0.4750
61844SOL    HW291496   7.541  12.265   4.864 -1.4045 -0.7138  0.2295
61845SOL     OW91497   0.310   6.731   9.275  0.1055  0.5388 -0.0763
61845SOL    HW191498   0.315   6.760   9.366 -2.6599 -2.9362  1.4353
61845SOL    HW291499   0.223   6.760   9.245 -0.5064 -1.3464 -0.2900
61846SOL     OW91500   8.284   7.852   8.957  0.6927 -0.3608  0.5888
61846SOL    HW191501   8.321   7.884   8.875  1.2392 -2.0978  0.1069
61846SOL    HW291502   8.347   7.879   9.024  1.0134 -0.2096  0.2320
61847SOL     OW91503   5.282   8.434  12.238 -0.1369 -0.0167  0.0646
61847SOL    HW191504   5.371   8.408  12.215 -0.6150 -2.3470  0.6274
61847SOL    HW291505   5.286   8.451  12.332  0.3511  3.0200 -0.4135
61848SOL     OW91506  12.372   6.349   6.534 -0.2867  0.0046  0.6473
61848SOL    HW191507  12.464   6.378   6.537  0.2162 -1.3701 -0.5758
61848SOL    HW291508  12.365   6.282   6.602  0.5404 -2.2597 -1.3715
61849SOL     OW91509  11.586   4.049  10.071 -0.0007 -0.0614 -0.1660
61849SOL    HW191510  11.619   4.081   9.987 -2.2914  1.1134 -0.7017
61849SOL    HW291511  11.510   3.996  10.047 -2.2396  2.3179  1.1876
61850SOL     OW91512  12.365   7.638   3.799  0.0377 -0.1196 -0.3110
61850SOL    HW191513  12.394   7.726   3.823 -0.1056 -0.4638  1.2697
61850SOL    HW291514  12.278   7.629   3.839  0.3263 -1.1920  0.1355
61851SOL     OW91515   5.000   7.663  12.458  0.4534 -0.3522 -0.0689
61851SOL    HW191516   5.022   7.728  12.525  1.1418 -0.6536  0.0025
61851SOL    HW291517   5.056   7.685  12.384  0.0710 -0.3447 -0.3601
61852SOL     OW91518   9.216   9.288   2.009  0.6904 -0.0887  0.0976
61852SOL    HW191519   9.298   9.302   2.057 -0.1312 -1.1830  1.8950
61852SOL    HW291520   9.238   9.309   1.918  2.7795  0.2914  0.6400
61853SOL     OW91521   1.311   6.452  10.425 -0.3022  0.6241 -0.0706
61853SOL    HW191522   1.243   6.386  10.435 -2.3685  2.6288 -0.0686
61853SOL    HW291523   1.354   6.430  10.342 -3.0810  1.0542 -1.7431
61854SOL     OW91524   9.639   5.443   2.656  0.2859 -0.7653 -0.5129
61854SOL    HW191525   9.680   5.461   2.740  0.4192 -1.4155 -0.4311
61854SOL    HW291526   9.612   5.529   2.623 -1.4469 -0.6698  1.0278
61855SOL     OW91527   9.782   4.163  10.474  0.6261  0.1485 -0.4264
61855SOL    HW191528   9.715   4.097  10.461  1.2422 -0.3363 -1.2688
61855SOL    HW291529   9.782   4.214  10.393  2.3790 -0.8973 -1.1434
61856SOL     OW91530   8.770  11.113   7.748 -0.0972 -0.5505  0.1513
61856SOL    HW191531   8.852  11.070   7.724 -0.2728 -0.8080  0.0133
61856SOL    HW291532   8.798  11.192   7.795  0.3245  0.8991 -2.3421
61857SOL     OW91533   2.580   9.983   6.658  0.5534  0.2182  0.4628
61857SOL    HW191534   2.593  10.051   6.593  0.7414 -1.4195 -1.3160
61857SOL    HW291535   2.521   9.921   6.616  0.5721 -0.8318  1.9146
61858SOL     OW91536   8.798   4.083   7.385 -0.1375  0.2806 -0.0464
61858SOL    HW191537   8.791   3.992   7.354  0.7415  0.4667 -0.8522
61858SOL    HW291538   8.715   4.123   7.359  0.2797  0.2304 -1.5995
61859SOL     OW91539  11.926  11.255   3.088 -0.1297 -0.0953  0.1396
61859SOL    HW191540  11.966  11.337   3.057 -1.2520  0.2064 -0.5506
61859SOL    HW291541  11.867  11.282   3.158  0.4106 -0.4733  0.7515
61860SOL     OW91542  11.982   3.725  11.350 -0.3613 -0.4961  1.0115
61860SOL    HW191543  11.995   3.631  11.341  0.2713 -0.3164 -0.1767
61860SOL    HW291544  12.006   3.761  11.264  1.9107  0.9969  2.1723
61861SOL     OW91545   9.729   6.563  12.246 -0.1597  0.0952 -0.1859
61861SOL    HW191546   9.699   6.637  12.193 -0.5285  0.2243  0.1978
61861SOL    HW291547   9.655   6.542  12.302  0.7326  0.9825  1.3979
61862SOL     OW91548   0.897   6.509   1.113 -0.3267  0.1212  0.1037
61862SOL    HW191549   0.844   6.515   1.193 -1.8358 -1.6597 -0.6882
61862SOL    HW291550   0.874   6.588   1.063  0.1425  0.9193  1.1090
61863SOL     OW91551  11.537   6.414   6.514 -0.5586 -0.4551 -0.4587
61863SOL    HW191552  11.497   6.340   6.560  1.5963 -0.3859  1.7702
61863SOL    HW291553  11.463   6.465   6.481 -2.1235 -2.7702 -0.7342
61864SOL     OW91554   3.765   7.108   9.200 -0.0486  0.0842  0.2686
61864SOL    HW191555   3.839   7.133   9.145  0.3733  0.8841  1.1932
61864SOL    HW291556   3.804   7.072   9.279 -0.6565 -1.0172  0.0932
61865SOL     OW91557   4.914  12.067   2.395 -0.3341 -0.3967 -0.0181
61865SOL    HW191558   4.864  12.139   2.356  1.1117  1.7813  1.8524
61865SOL    HW291559   4.919  12.001   2.326 -0.6967  1.8125 -2.3096
61866SOL     OW91560   9.262   2.471   3.029  0.1214 -0.0411  0.0979
61866SOL    HW191561   9.238   2.510   2.945  0.4904  0.7265  0.3402
61866SOL    HW291562   9.357   2.478   3.033  0.2271 -1.2448  0.0233
61867SOL     OW91563   2.080   4.109   7.906  0.0030  0.0037 -0.4080
61867SOL    HW191564   1.999   4.131   7.952  0.1714  1.2110 -0.6382
61867SOL    HW291565   2.117   4.194   7.881  2.7056 -0.2825  1.9964
61868SOL     OW91566  11.227  11.136   1.665 -0.2307 -0.2312 -0.5936
61868SOL    HW191567  11.179  11.169   1.589 -1.3152  0.7401  0.4744
61868SOL    HW291568  11.277  11.061   1.632 -0.5724  0.2569 -2.2778
61869SOL     OW91569   3.420   4.136  10.827 -0.1942 -0.1802  0.4362
61869SOL    HW191570   3.407   4.185  10.745 -1.4688 -0.8537  0.2109
61869SOL    HW291571   3.429   4.204  10.894  0.2996  0.3786 -0.1794
61870SOL     OW91572   9.034   8.844   9.131 -0.3550  0.0533  0.1935
61870SOL    HW191573   9.086   8.776   9.175 -0.2716 -0.2932 -0.4287
61870SOL    HW291574   9.085   8.924   9.143  1.3495 -0.5891 -2.0163
61871SOL     OW91575  10.383   7.355   1.404 -0.1691 -0.1612 -0.0012
61871SOL    HW191576  10.317   7.288   1.392 -0.5329  0.2187 -0.1464
61871SOL    HW291577  10.430   7.358   1.320  0.3192 -0.7278  0.2438
61872SOL     OW91578   1.027   8.990   2.260  0.3725  0.0198  0.1504
61872SOL    HW191579   1.049   8.911   2.211 -3.0117  0.0123 -1.6932
61872SOL    HW291580   1.067   8.977   2.346  3.9827 -1.3914 -1.5296
61873SOL     OW91581  10.463   8.124  11.169 -0.3122  0.3532 -0.0399
61873SOL    HW191582  10.390   8.099  11.112 -1.2716  1.5150  0.6292
61873SOL    HW291583  10.421   8.152  11.250  0.9100  0.7370  0.4732
61874SOL     OW91584   9.708   0.740  11.996 -0.6661  0.2293 -0.0928
61874SOL    HW191585   9.784   0.785  11.957 -1.3682  0.5282 -1.1648
61874SOL    HW291586   9.633   0.788  11.963 -1.3412 -0.0956  0.9256
61875SOL     OW91587   0.663   1.201   1.437 -0.2252 -0.1296  0.5654
61875SOL    HW191588   0.627   1.114   1.418 -0.3980 -0.0857  0.6919
61875SOL    HW291589   0.598   1.262   1.402 -0.0953 -0.0503  0.4604
61876SOL     OW91590  11.942  10.434   7.527 -0.1326 -0.1112 -0.2812
61876SOL    HW191591  12.018  10.380   7.505 -0.1584  0.3081 -1.5167
61876SOL    HW291592  11.963  10.520   7.491 -1.6135 -0.2473 -1.5680
61877SOL     OW91593   5.816   5.161   2.973  0.2493 -0.8607  0.3211
61877SOL    HW191594   5.762   5.234   2.944  0.6115 -1.0618 -0.9036
61877SOL    HW291595   5.905   5.197   2.973  0.2380 -0.8004  1.4342
61878SOL     OW91596   1.903   9.092   8.303 -0.1496 -0.2034 -0.2486
61878SOL    HW191597   1.979   9.034   8.309 -0.5417 -0.7661 -0.5707
61878SOL    HW291598   1.911   9.132   8.216  0.1769  0.3166  0.0145
61879SOL     OW91599   0.067   4.515   6.066 -0.4241 -0.0760  0.5264
61879SOL    HW191600   0.007   4.442   6.046 -0.0583 -0.7248  1.6763
61879SOL    HW291601   0.152   4.486   6.033 -0.4067  0.1273  0.3892
61880SOL     OW91602   0.189   1.412   0.240 -0.1379 -0.1431 -0.6147
61880SOL    HW191603   0.172   1.429   0.333 -1.8894 -0.9869 -0.7455
61880SOL    HW291604   0.284   1.401   0.235 -0.1873 -2.3738  1.4947
61881SOL     OW91605   0.341   0.739   3.909 -0.5791 -0.0295 -0.0200
61881SOL    HW191606   0.377   0.713   3.994 -0.6249 -2.1667 -0.6028
61881SOL    HW291607   0.272   0.675   3.892 -0.7113  0.4975 -1.5752
61882SOL     OW91608   6.020   0.824   9.678 -0.6367 -0.6536 -0.0717
61882SOL    HW191609   6.100   0.876   9.669 -1.8156  1.2335 -0.0814
61882SOL    HW291610   6.035   0.747   9.623  0.9617 -0.0897 -0.4760
61883SOL     OW91611   1.374   6.417   8.012 -0.0482 -0.3703 -0.3370
61883SOL    HW191612   1.411   6.336   7.978  2.0358  0.1288  0.5839
61883SOL    HW291613   1.344   6.394   8.101 -0.8463 -0.4651 -0.6215
61884SOL     OW91614   1.266   1.290   8.721 -0.0651  0.4319 -0.1302
61884SOL    HW191615   1.345   1.291   8.775 -0.3631  0.2131  0.3094
61884SOL    HW291616   1.298   1.281   8.632  0.5631  2.8608 -0.2172
61885SOL     OW91617   1.535   8.756   4.537 -0.5229  0.3871 -0.9446
61885SOL    HW191618   1.469   8.695   4.503 -1.2455  0.6359 -0.0492
61885SOL    HW291619   1.539   8.736   4.631 -0.3260  1.2994 -0.7475
61886SOL     OW91620   3.091   2.457   4.746  0.0560  0.0869 -0.4416
61886SOL    HW191621   3.106   2.413   4.830  0.3793 -1.1141 -1.1052
61886SOL    HW291622   3.000   2.484   4.748 -0.1774 -0.7093 -0.0487
61887SOL     OW91623  11.371  10.873   6.469  0.0807 -0.2894 -0.8527
61887SOL    HW191624  11.390  10.802   6.408 -1.1882 -1.3437 -0.0752
61887SOL    HW291625  11.379  10.952   6.416  0.8944 -1.0444 -1.9012
61888SOL     OW91626   7.154   4.599  12.256 -0.1118 -0.1901  0.0442
61888SOL    HW191627   7.109   4.526  12.300  2.0352 -2.5309 -1.3900
61888SOL    HW291628   7.220   4.628  12.320 -0.3375 -0.1245  0.2514
61889SOL     OW91629   4.907  12.446   8.392 -0.2306 -0.1861  0.4245
61889SOL    HW191630   4.969  12.390   8.345 -0.0048  1.6339 -1.6006
61889SOL    HW291631   4.846  12.384   8.433  0.4596 -1.9522 -1.0463
61890SOL     OW91632   1.988   8.102  10.273  0.6380 -0.3238 -0.5516
61890SOL    HW191633   1.995   8.087  10.178 -0.2236 -3.9955 -0.1749
61890SOL    HW291634   2.059   8.051  10.311 -0.7168 -1.2247  0.8902
61891SOL     OW91635  10.840   0.370   9.739 -0.1851 -0.1210 -0.2532
61891SOL    HW191636  10.858   0.343   9.829 -1.6223 -1.1454 -0.2294
61891SOL    HW291637  10.906   0.437   9.720  2.2671 -2.2215  0.3917
61892SOL     OW91638  11.242   8.808   1.574  0.0348 -0.3466 -0.0006
61892SOL    HW191639  11.309   8.742   1.560  0.2882 -0.0970  0.0345
61892SOL    HW291640  11.259   8.875   1.508 -1.4904 -1.2894 -1.4157
61893SOL     OW91641  11.716  12.236   3.167  0.3126  0.0586 -0.5231
61893SOL    HW191642  11.641  12.209   3.221  1.1406  0.7583  1.0484
61893SOL    HW291643  11.681  12.244   3.079 -1.2295 -0.5999 -0.0030
61894SOL     OW91644   0.207  11.472   0.522 -0.4283 -0.6877  0.5777
61894SOL    HW191645   0.274  11.444   0.460 -1.2801  1.3504 -1.3962
61894SOL    HW291646   0.129  11.423   0.496 -0.8259  0.2793 -0.0894
61895SOL     OW91647   0.767   7.909   3.103  0.6786  0.1776  0.2975
61895SOL    HW191648   0.772   7.869   3.016 -1.5675  0.0554  0.1694
61895SOL    HW291649   0.812   7.847   3.161  0.7993 -0.5197 -0.5200
61896SOL     OW91650   6.127   4.130   2.542 -0.9250  0.1509 -0.2692
61896SOL    HW191651   6.217   4.119   2.509  0.4247 -1.8166  3.4853
61896SOL    HW291652   6.091   4.041   2.542 -1.5535  0.3727  1.4877
61897SOL     OW91653  11.927   5.905   3.772  0.6099 -0.0609  0.0299
61897SOL    HW191654  11.866   5.903   3.845  1.1108  2.1586  0.5875
61897SOL    HW291655  11.897   5.976   3.716  0.9628 -0.9029 -1.3007
61898SOL     OW91656   0.653   8.625  12.295  0.0060 -0.0160 -0.0018
61898SOL    HW191657   0.636   8.588  12.209  1.3349  0.4500 -0.4894
61898SOL    HW291658   0.640   8.552  12.356  2.7849 -1.4691 -0.9488
61899SOL     OW91659   4.431   6.328   7.340 -0.2823  0.1189 -0.0518
61899SOL    HW191660   4.509   6.383   7.341  0.6488 -1.1199 -0.7444
61899SOL    HW291661   4.450   6.259   7.404 -0.3590 -0.7351 -0.9206
61900SOL     OW91662  11.966   6.437   4.267  0.1631 -0.1815  0.4857
61900SOL    HW191663  11.895   6.502   4.269  0.4904  0.1925  0.1319
61900SOL    HW291664  11.986   6.425   4.174  0.4972 -0.3559  0.5767
61901SOL     OW91665   7.784   4.611   4.590  0.7737  0.3079 -0.2747
61901SOL    HW191666   7.777   4.700   4.555 -1.2448  0.1741 -0.3052
61901SOL    HW291667   7.781   4.555   4.514 -1.8678  0.0942 -0.0984
61902SOL     OW91668   5.221   3.827   5.039 -0.2685 -0.0865 -0.0078
61902SOL    HW191669   5.304   3.865   5.010  0.0015 -0.1775  0.6246
61902SOL    HW291670   5.229   3.734   5.018  1.1337 -0.7476  2.8517
61903SOL     OW91671   0.445   9.426   8.884 -0.2233 -0.5846  0.3175
61903SOL    HW191672   0.436   9.336   8.914 -0.4880 -0.4145  0.7535
61903SOL    HW291673   0.359   9.465   8.899 -1.6390 -1.4586 -4.0203
61904SOL     OW91674   8.938   1.283   1.103  0.9561  0.0793  0.4344
61904SOL    HW191675   8.863   1.225   1.118 -0.7747  1.7783 -0.9707
61904SOL    HW291676   8.916   1.362   1.153  1.7639  0.6323 -0.0681
61905SOL     OW91677   8.444   5.022   9.849  0.6131  0.2083  0.2918
61905SOL    HW191678   8.533   5.005   9.817  0.3147  1.0461 -1.0829
61905SOL    HW291679   8.404   4.936   9.855  0.4165  0.0164 -2.5666
61906SOL     OW91680  11.641   3.145   7.888  0.3277 -0.3878 -0.2270
61906SOL    HW191681  11.710   3.093   7.928  1.2660 -0.0618 -1.3694
61906SOL    HW291682  11.687   3.206   7.830 -0.8798  0.2190 -0.5801
61907SOL     OW91683   9.144  11.156   4.647 -0.7330  0.1375  0.5163
61907SOL    HW191684   9.235  11.177   4.630 -0.5325 -0.0402  1.3311
61907SOL    HW291685   9.099  11.240   4.647 -0.5968  0.2147  0.0007
61908SOL     OW91686   0.717   4.127   5.676  0.0908  0.4623  0.0726
61908SOL    HW191687   0.708   4.097   5.767  0.8173  1.9302  0.6648
61908SOL    HW291688   0.725   4.047   5.625  1.0090 -0.3827  1.4586
61909SOL     OW91689  11.005  12.109   1.284  0.3815  0.5981 -0.3683
61909SOL    HW191690  10.964  12.194   1.268  0.1307  0.5731  0.1349
61909SOL    HW291691  11.040  12.115   1.373  0.2443  0.1283 -0.2809
61910SOL     OW91692   0.115   9.568   6.858  0.8452  0.0837 -0.0869
61910SOL    HW191693   0.150   9.540   6.774 -1.6390  0.3144 -1.2736
61910SOL    HW291694   0.049   9.633   6.836 -0.5523 -0.5447  1.9706
61911SOL     OW91695   1.930   8.219   1.652 -0.4180 -0.4832 -0.4250
61911SOL    HW191696   1.950   8.288   1.588 -2.3714 -0.1667 -0.7403
61911SOL    HW291697   1.955   8.138   1.607  0.0883 -0.1338 -0.7980
61912SOL     OW91698  10.071   4.533  10.545 -0.2804 -0.0715 -0.4774
61912SOL    HW191699   9.999   4.581  10.504 -0.8378  1.6175  2.1800
61912SOL    HW291700  10.032   4.494  10.624  1.3782 -0.3802  0.2313
61913SOL     OW91701   2.314   7.763   7.450  0.3550 -0.2519 -0.4997
61913SOL    HW191702   2.350   7.680   7.479 -0.7959 -0.5478  0.1500
61913SOL    HW291703   2.358   7.781   7.367 -1.8373 -3.2542 -2.5037
61914SOL     OW91704  10.920   8.989   5.822 -0.4682  0.3436 -0.7791
61914SOL    HW191705  10.899   9.010   5.913 -2.9634 -3.0539 -0.3918
61914SOL    HW291706  11.005   9.032   5.807 -0.1505  1.4031  2.9479
61915SOL     OW91707   2.918   5.229   3.110  0.9072 -0.0289  0.0780
61915SOL    HW191708   2.830   5.202   3.087  0.8563  0.8987 -0.8569
61915SOL    HW291709   2.975   5.181   3.050  0.8678  1.1829 -0.9839
61916SOL     OW91710   3.761   8.108   8.945 -0.0091  0.1134 -0.8372
61916SOL    HW191711   3.794   8.024   8.977  2.0669  1.9720  2.5424
61916SOL    HW291712   3.840   8.154   8.915 -1.0076  1.1429 -1.9527
61917SOL     OW91713   3.061   7.926   5.232 -0.4651  0.1935  0.0409
61917SOL    HW191714   3.108   7.991   5.180 -1.4470  0.9357  0.0562
61917SOL    HW291715   2.973   7.962   5.243 -0.7247 -0.6498  0.9465
61918SOL     OW91716   9.849  10.529   6.036 -0.5633  0.1162 -0.2863
61918SOL    HW191717   9.852  10.561   5.946  0.0320  0.1293 -0.2690
61918SOL    HW291718   9.889  10.442   6.032 -0.0497  0.3280  0.0402
61919SOL     OW91719   3.138   7.553   0.709 -0.2841  0.1332 -0.2032
61919SOL    HW191720   3.224   7.517   0.729 -0.4107 -0.0643 -0.0153
61919SOL    HW291721   3.146   7.586   0.620  0.0748  0.3817 -0.0833
61920SOL     OW91722   8.870   5.275   7.729 -0.5421  0.4090  0.0080
61920SOL    HW191723   8.881   5.355   7.780 -0.5970 -0.2483  1.0768
61920SOL    HW291724   8.785   5.284   7.687 -1.5077  0.0307  1.7958
61921SOL     OW91725  12.081   5.237   0.075 -0.5719  0.4092 -0.2691
61921SOL    HW191726  12.135   5.298   0.025  1.4997 -0.9758  0.1394
61921SOL    HW291727  12.066   5.280   0.159 -0.6329  1.0685 -0.6140
61922SOL     OW91728   1.784   9.791  10.338 -0.2964 -0.0810  0.6222
61922SOL    HW191729   1.859   9.829  10.385 -0.9979  1.2204  0.7350
61922SOL    HW291730   1.708   9.834  10.376 -1.1278 -1.3809  0.4933
61923SOL     OW91731   3.541  10.677  12.096  0.1286 -0.7113 -0.1744
61923SOL    HW191732   3.452  10.665  12.128  0.0414 -1.8103 -0.7862
61923SOL    HW291733   3.533  10.673  12.001  0.4897  1.6793 -0.3624
61924SOL     OW91734   3.003  11.900   4.181 -0.0644  0.3879 -0.5809
61924SOL    HW191735   3.064  11.861   4.119  2.0465  3.6050 -0.7978
61924SOL    HW291736   3.058  11.925   4.256 -2.1190 -1.1676  1.5961
61925SOL     OW91737  11.882   8.882   6.680  0.0073  0.2317 -0.3308
61925SOL    HW191738  11.960   8.827   6.691 -0.0154  0.3148  0.2482
61925SOL    HW291739  11.911   8.970   6.701 -0.5117  0.0957  1.0083
61926SOL     OW91740  11.473   7.344   8.393 -0.2604  0.2563  0.1003
61926SOL    HW191741  11.447   7.252   8.382 -1.6772  0.5253  0.8999
61926SOL    HW291742  11.501   7.371   8.306 -1.0854 -0.5781 -0.4522
61927SOL     OW91743  11.300   8.320   5.158 -0.2959 -0.4129  0.2004
61927SOL    HW191744  11.350   8.240   5.178 -1.1320 -0.3003  3.3428
61927SOL    HW291745  11.364   8.391   5.167 -0.0054 -0.5667 -0.5696
61928SOL     OW91746   8.608   4.823   3.360  0.1978 -0.2402  0.1679
61928SOL    HW191747   8.537   4.887   3.359 -0.2984 -0.7600 -2.0708
61928SOL    HW291748   8.685   4.873   3.334  0.2528 -0.1199  0.5505
61929SOL     OW91749   7.413   3.358  10.419  0.2607  0.0283 -0.7216
61929SOL    HW191750   7.367   3.301  10.357  0.2322 -1.4035  0.5728
61929SOL    HW291751   7.344   3.414  10.456 -0.0089 -0.3419 -0.6642
61930SOL     OW91752  12.448   4.814   8.643 -0.0728  0.0905 -0.5300
61930SOL    HW191753  12.449   4.730   8.688  0.6834  0.7865  0.8038
61930SOL    HW291754  12.470   4.878   8.710 -1.3168  1.4556 -1.3632
61931SOL     OW91755   2.422   2.327   2.381  0.0339  0.3039 -0.1264
61931SOL    HW191756   2.356   2.331   2.451  0.4181 -1.1007  0.3476
61931SOL    HW291757   2.461   2.240   2.390  1.1118  0.6557 -1.1774
61932SOL     OW91758   6.537   3.474   4.865 -0.2876  0.1201  0.5877
61932SOL    HW191759   6.625   3.469   4.827 -0.8480 -2.4971 -0.5515
61932SOL    HW291760   6.486   3.524   4.802  0.3029  1.5797  1.2149
61933SOL     OW91761   5.173   6.683   3.844  0.0304  0.2501 -0.0865
61933SOL    HW191762   5.245   6.630   3.880  0.1078 -0.9239 -1.8592
61933SOL    HW291763   5.197   6.773   3.865  1.0680 -0.2409  0.9869
61934SOL     OW91764   9.009  10.250  10.313 -0.0449 -0.1367 -0.2372
61934SOL    HW191765   8.975  10.213  10.394  0.8596  0.9818  0.6765
61934SOL    HW291766   9.090  10.201  10.296 -0.1933 -0.3171 -0.4296
61935SOL     OW91767   9.190  10.301   9.682  0.0468  0.5635  0.1196
61935SOL    HW191768   9.140  10.228   9.646  0.0600  0.8377 -0.4853
61935SOL    HW291769   9.146  10.379   9.648  0.9565  0.8103 -0.5573
61936SOL     OW91770   8.630   8.760  11.284 -0.7070 -0.2990  0.2464
61936SOL    HW191771   8.571   8.724  11.217 -0.3895 -1.1629  0.4140
61936SOL    HW291772   8.666   8.839  11.244 -1.4267 -0.1546 -0.1386
61937SOL     OW91773  11.431   7.265   4.595  1.1758 -0.1239 -0.6441
61937SOL    HW191774  11.455   7.176   4.621 -0.2726 -0.1880  0.6050
61937SOL    HW291775  11.510   7.299   4.552  2.1770 -1.5752 -0.0480
61938SOL     OW91776   9.722   7.418   4.606 -0.0024  0.3568  0.3831
61938SOL    HW191777   9.700   7.370   4.686 -0.0464 -0.1045  0.0988
61938SOL    HW291778   9.638   7.443   4.569 -0.0227 -0.4479 -0.1271
61939SOL     OW91779   9.604   3.329   3.394 -0.6061 -1.1371 -0.4843
61939SOL    HW191780   9.533   3.371   3.346  0.3911  0.3650 -0.7107
61939SOL    HW291781   9.627   3.253   3.340 -0.0683  0.0481 -2.0275
61940SOL     OW91782  11.004   2.888   5.938 -0.0731  0.3354  0.3271
61940SOL    HW191783  10.931   2.935   5.978 -2.3481 -3.3625  0.9983
61940SOL    HW291784  11.071   2.887   6.006 -1.8486 -1.3374  2.1952
61941SOL     OW91785   3.688   2.913   0.648  0.3678 -0.0132  0.2744
61941SOL    HW191786   3.751   2.972   0.689 -0.8092 -0.0213  2.1939
61941SOL    HW291787   3.621   2.898   0.715 -2.2989  0.8712 -1.9648
61942SOL     OW91788   1.683   4.499  10.630 -0.1418  0.2137 -0.2910
61942SOL    HW191789   1.653   4.580  10.588  1.2319  1.3320  0.7824
61942SOL    HW291790   1.745   4.528  10.697  1.7250 -1.8150 -0.9971
61943SOL     OW91791   2.049   3.542   2.054  0.1308 -0.2377  0.2007
61943SOL    HW191792   1.997   3.549   2.134  1.2970 -0.8448  1.0401
61943SOL    HW291793   2.017   3.463   2.011  0.0997 -0.3988  0.5191
61944SOL     OW91794   1.011   3.195   8.564 -0.1384  0.5119 -0.1440
61944SOL    HW191795   0.936   3.202   8.505 -0.2750 -1.1564 -0.2238
61944SOL    HW291796   1.049   3.109   8.544  1.0742  0.8101  0.7477
61945SOL     OW91797   5.852   2.334   2.651 -0.1331  0.1889 -0.2758
61945SOL    HW191798   5.855   2.429   2.640  2.5468 -0.0292 -2.8397
61945SOL    HW291799   5.763   2.309   2.629 -0.3184  1.9669 -1.7094
61946SOL     OW91800   1.991   1.726   7.969  0.5005 -0.3422  0.3828
61946SOL    HW191801   2.006   1.693   8.058 -0.5378 -0.4865  0.5231
61946SOL    HW291802   1.976   1.820   7.980 -0.0577 -0.4286  0.4319
61947SOL     OW91803   4.854   0.597  11.418  0.3238 -0.6285  0.2767
61947SOL    HW191804   4.845   0.667  11.483  2.5139  0.3324 -0.3936
61947SOL    HW291805   4.846   0.641  11.333 -0.5407 -1.5704 -0.1570
61948SOL     OW91806   8.816   6.304   4.629 -0.1345  0.1360 -0.0641
61948SOL    HW191807   8.853   6.216   4.634  0.2037  0.2661 -0.2513
61948SOL    HW291808   8.889   6.362   4.648 -0.5668  0.3534  1.0169
61949SOL     OW91809   4.616   2.786   0.701  0.2867  0.2373 -0.0862
61949SOL    HW191810   4.567   2.783   0.619  1.1864 -1.1915 -0.6114
61949SOL    HW291811   4.707   2.776   0.676  0.5901 -0.1270  1.0805
61950SOL     OW91812   6.121   2.191   5.521  0.2893  0.5744 -0.2277
61950SOL    HW191813   6.040   2.242   5.520 -0.2345 -0.2423 -1.0529
61950SOL    HW291814   6.186   2.251   5.557 -0.2769  1.8825 -1.2740
61951SOL     OW91815   6.071   1.296   1.725  0.2145  0.0079  0.1622
61951SOL    HW191816   6.072   1.259   1.813  0.9026  0.6502  0.4324
61951SOL    HW291817   6.091   1.389   1.738  2.3840 -0.2698 -0.8448
61952SOL     OW91818  12.066   9.411   1.461  0.5692  0.9547 -0.9488
61952SOL    HW191819  12.139   9.434   1.404  2.0074  0.8727  0.7569
61952SOL    HW291820  12.037   9.494   1.498  0.7335  0.8473 -0.5691
61953SOL     OW91821   6.056   1.123   2.979  0.0947 -0.0546 -0.1709
61953SOL    HW191822   6.028   1.187   3.045 -0.0788  0.3291 -0.6105
61953SOL    HW291823   6.025   1.159   2.896 -2.1199 -1.8597 -0.2365
61954SOL     OW91824   0.858  12.303   0.931  0.0115 -0.3240  0.2785
61954SOL    HW191825   0.802  12.380   0.920  0.3658 -0.2983 -1.8943
61954SOL    HW291826   0.801  12.236   0.968 -1.7870 -0.5514 -2.5734
61955SOL     OW91827   9.533   1.413   0.403  0.0171 -0.1161 -0.1104
61955SOL    HW191828   9.475   1.464   0.347  0.0467 -0.1484 -0.1701
61955SOL    HW291829   9.474   1.368   0.464 -0.0719 -0.7309 -0.6416
61956SOL     OW91830   6.533   6.689  12.206  0.2471 -0.0520 -0.6027
61956SOL    HW191831   6.611   6.731  12.240 -0.0470 -0.2388  0.3181
61956SOL    HW291832   6.538   6.703  12.111  1.8677 -0.8898 -0.6768
61957SOL     OW91833   6.121   8.139  11.335  0.2413  0.0387 -0.2467
61957SOL    HW191834   6.153   8.224  11.367  1.6398 -0.8030  0.7045
61957SOL    HW291835   6.162   8.129  11.249  0.1299  0.2756 -0.3308
61958SOL     OW91836   1.744   0.294   1.021  0.1268 -0.0167 -0.5429
61958SOL    HW191837   1.779   0.247   1.097  0.1906 -0.1973 -0.6824
61958SOL    HW291838   1.707   0.225   0.966 -1.9379  0.3149  0.3605
61959SOL     OW91839  10.801   9.013   6.836 -0.4589 -0.2304  0.0654
61959SOL    HW191840  10.779   9.094   6.882 -1.0887  0.6163 -1.6315
61959SOL    HW291841  10.722   8.960   6.841 -0.6540  0.0163 -0.3297
61960SOL     OW91842  12.365   4.394   7.004 -0.0755  0.0190 -0.1123
61960SOL    HW191843  12.303   4.358   7.069  0.9110 -2.2947 -0.3629
61960SOL    HW291844  12.413   4.461   7.052  0.0958 -1.1081  1.3703
61961SOL     OW91845   7.896   0.699  12.384  0.1570  0.2696 -0.1067
61961SOL    HW191846   7.985   0.678  12.354  0.1561  0.7793 -0.4826
61961SOL    HW291847   7.907   0.775  12.441  0.1101 -0.4632  0.9191
61962SOL     OW91848   1.160  10.468   3.730 -0.0468 -0.6493 -0.1725
61962SOL    HW191849   1.188  10.517   3.807 -0.6259 -1.6635  0.7178
61962SOL    HW291850   1.066  10.484   3.725  0.2473  0.8320 -1.7399
61963SOL     OW91851   7.538   1.217   8.378  0.0262  0.3404 -0.3531
61963SOL    HW191852   7.582   1.167   8.447 -0.3178 -0.5637 -0.7620
61963SOL    HW291853   7.473   1.270   8.424  0.1491  0.1335  0.0633
61964SOL     OW91854   6.992   6.747   4.902  0.2542 -0.1296 -0.0571
61964SOL    HW191855   7.040   6.828   4.920  0.3196 -0.0754 -0.4718
61964SOL    HW291856   6.958   6.721   4.987  0.2174  0.3448  0.0785
61965SOL     OW91857   6.876   6.996  11.843  0.0487  0.0250 -0.1846
61965SOL    HW191858   6.898   6.903  11.852  2.5295  0.5487 -0.1062
61965SOL    HW291859   6.831   7.018  11.925  1.4814 -0.6182  0.8254
61966SOL     OW91860  10.597  10.179   8.536  0.0143 -1.2055 -0.4571
61966SOL    HW191861  10.670  10.224   8.578 -0.8008 -0.7843  0.5625
61966SOL    HW291862  10.588  10.097   8.585 -0.7296 -0.8605  0.0168
61967SOL     OW91863  10.113   6.773   8.498 -0.1813  0.3910 -0.3488
61967SOL    HW191864  10.068   6.843   8.544  1.7414  1.8781 -0.6014
61967SOL    HW291865  10.047   6.704   8.488 -2.1429  2.1429 -0.0906
61968SOL     OW91866   5.832   5.627  10.938 -0.6008  0.2246  0.4184
61968SOL    HW191867   5.905   5.685  10.917 -1.4657  1.8303  1.5795
61968SOL    HW291868   5.873   5.549  10.975  0.5543  0.8204  0.4546
61969SOL     OW91869   3.150   0.930   9.734 -0.2995  0.6384 -0.5117
61969SOL    HW191870   3.185   0.978   9.659 -0.2128  1.7754  0.2352
61969SOL    HW291871   3.055   0.927   9.718  0.0192 -2.5439 -2.5897
61970SOL     OW91872   8.219   0.297   8.140 -0.1372  0.1241 -0.1525
61970SOL    HW191873   8.248   0.207   8.132  0.2603  0.0835  1.3960
61970SOL    HW291874   8.286   0.348   8.094 -1.1508 -0.4161 -2.3953
61971SOL     OW91875  12.354   2.616   2.518 -0.2441 -0.4555  0.0436
61971SOL    HW191876  12.359   2.564   2.598 -1.6332 -3.0773 -1.4387
61971SOL    HW291877  12.270   2.662   2.525 -1.8863 -3.0735 -1.1277
61972SOL     OW91878   1.274  10.209   7.969  0.0540 -0.6816 -0.0067
61972SOL    HW191879   1.199  10.230   7.913 -0.1193 -1.9559 -0.2729
61972SOL    HW291880   1.264  10.267   8.044 -0.1984  0.4312 -0.8688
61973SOL     OW91881   4.446   2.153   9.493 -0.2464  0.0281 -0.0479
61973SOL    HW191882   4.496   2.193   9.565 -0.4403  0.9892 -0.4346
61973SOL    HW291883   4.400   2.080   9.534 -0.2333  0.4704  0.7751
61974SOL     OW91884   6.399   6.207   8.268  0.5374  0.0927  0.3086
61974SOL    HW191885   6.351   6.125   8.278  0.0935  0.1867 -0.9404
61974SOL    HW291886   6.458   6.210   8.344 -0.2989 -0.7858  1.0070
61975SOL     OW91887   1.585   2.907   5.053 -0.1014 -0.1641 -0.3339
61975SOL    HW191888   1.656   2.843   5.045 -0.0848 -0.1707 -0.1313
61975SOL    HW291889   1.521   2.881   4.987 -0.2816 -0.6289  0.0225
61976SOL     OW91890   7.941   3.559   1.611 -0.2028 -0.2226  0.2424
61976SOL    HW191891   7.931   3.643   1.567  0.0578 -0.2140  0.1957
61976SOL    HW291892   7.888   3.566   1.690  3.9651  2.1038  3.2684
61977SOL     OW91893  11.661   2.205   9.638  0.7488  0.6248 -0.0100
61977SOL    HW191894  11.622   2.140   9.580  1.8210  0.9655 -1.1602
61977SOL    HW291895  11.714   2.154   9.699  0.9267  0.3519 -0.3847
61978SOL     OW91896   9.882   8.709   1.473 -0.0093 -0.2753 -0.1059
61978SOL    HW191897   9.921   8.703   1.560  0.2832 -2.4049 -0.3456
61978SOL    HW291898   9.788   8.708   1.489 -0.0660  2.3715  0.3067
61979SOL     OW91899   2.193   2.246   2.563 -0.3236 -0.0102  0.1240
61979SOL    HW191900   2.107   2.285   2.551 -0.9058 -1.0095  0.9175
61979SOL    HW291901   2.230   2.292   2.639 -0.7454 -0.5295  0.6548
61980SOL     OW91902   4.604   1.944   6.203 -0.2845 -0.4344 -0.2841
61980SOL    HW191903   4.582   1.988   6.121 -1.0608 -0.9880 -0.3776
61980SOL    HW291904   4.616   1.852   6.179  1.8852 -0.2288 -0.1974
61981SOL     OW91905   1.652   3.833  10.945  0.0179 -0.4394 -0.0134
61981SOL    HW191906   1.639   3.920  10.982  1.9409 -0.2355  0.2685
61981SOL    HW291907   1.609   3.774  11.008 -0.8090  0.2418  0.0783
61982SOL     OW91908   2.642   0.798   2.055 -0.4757 -0.7947  0.2331
61982SOL    HW191909   2.725   0.839   2.029 -1.2970 -0.0695 -1.4004
61982SOL    HW291910   2.647   0.792   2.150  0.2735  1.8939  0.4496
61983SOL     OW91911   2.928   6.256  11.347  0.4364 -0.6427 -0.2749
61983SOL    HW191912   2.853   6.201  11.325 -0.7273  0.2303  1.3016
61983SOL    HW291913   2.926   6.262  11.443  2.2599 -0.2113 -0.2257
61984SOL     OW91914  10.294   9.370   6.887 -0.0262  0.2959 -0.3410
61984SOL    HW191915  10.229   9.342   6.951  0.6418  1.8488  1.1129
61984SOL    HW291916  10.246   9.425   6.825 -0.1131  1.5922  0.8337
61985SOL     OW91917   1.808   9.720  10.842  0.4536  0.5003 -0.1829
61985SOL    HW191918   1.772   9.806  10.864 -0.9697  0.3105 -1.6401
61985SOL    HW291919   1.812   9.674  10.926  0.6690  1.7680  0.5301
61986SOL     OW91920   7.645   0.060  12.316  0.3049  0.2792 -0.2830
61986SOL    HW191921   7.721   0.016  12.278  1.3034 -0.2630  2.1127
61986SOL    HW291922   7.632   0.016  12.400 -2.4331  0.6592 -0.4032
61987SOL     OW91923   1.477   4.034   4.203 -0.3528 -0.0042  0.2401
61987SOL    HW191924   1.409   4.097   4.179 -0.8202 -1.2540 -1.9935
61987SOL    HW291925   1.530   4.025   4.124  1.3330 -0.4318  1.3670
61988SOL     OW91926  10.649   2.228  12.097  0.1792 -0.5782 -0.0589
61988SOL    HW191927  10.625   2.139  12.124 -0.8694 -0.5894 -0.9561
61988SOL    HW291928  10.566   2.275  12.095  0.3074 -0.3427 -2.3125
61989SOL     OW91929  10.924   0.510  11.873  0.0469  0.2589  0.1590
61989SOL    HW191930  10.881   0.505  11.958  0.8613 -1.2641  0.5165
61989SOL    HW291931  10.948   0.420  11.852  0.4854  0.6866 -1.3655
61990SOL     OW91932  10.454   3.351   5.974  0.3063 -0.3583 -0.1597
61990SOL    HW191933  10.527   3.339   5.913 -0.6556  2.4289 -2.0517
61990SOL    HW291934  10.494   3.393   6.051  0.7073  1.7569 -1.4360
61991SOL     OW91935   5.353  11.181   3.798  0.4748 -0.3236  0.1501
61991SOL    HW191936   5.439  11.186   3.757  0.5753  1.2671  0.5073
61991SOL    HW291937   5.292  11.181   3.725  0.7396 -0.1072 -0.0745
61992SOL     OW91938   0.267   6.526   5.153 -0.2620 -0.5680 -0.4379
61992SOL    HW191939   0.198   6.507   5.216 -0.1991 -0.9665 -0.4864
61992SOL    HW291940   0.347   6.525   5.205 -0.2522 -0.4848 -0.4511
61993SOL     OW91941   0.127   0.838   9.171 -0.2009 -0.1589 -0.0097
61993SOL    HW191942   0.155   0.882   9.091 -1.5230  2.2546  0.7511
61993SOL    HW291943   0.045   0.795   9.146  0.5444 -1.3655 -0.4789
61994SOL     OW91944   7.253  12.114   7.290 -0.2927  0.3892  0.2618
61994SOL    HW191945   7.223  12.163   7.366  0.6392  0.6853  0.4585
61994SOL    HW291946   7.327  12.164   7.257  0.3444 -0.5912  0.1452
61995SOL     OW91947  10.547   3.106   7.826  0.2412 -0.2666 -0.1483
61995SOL    HW191948  10.473   3.167   7.829 -1.4485 -2.1702 -0.7892
61995SOL    HW291949  10.543   3.058   7.908  1.8981  0.7764  0.5993
61996SOL     OW91950   1.617   6.360   2.465 -0.4797 -0.6769 -0.1038
61996SOL    HW191951   1.540   6.304   2.456 -0.6685 -0.5148  0.4517
61996SOL    HW291952   1.690   6.299   2.475 -0.1553 -0.9048 -3.0849
61997SOL     OW91953   1.311   7.379   5.962 -0.4776 -0.5778 -0.1252
61997SOL    HW191954   1.389   7.327   5.943  0.7299  1.5435 -1.4432
61997SOL    HW291955   1.268   7.389   5.877 -0.6785  0.5287  0.0941
61998SOL     OW91956  12.418   3.742   1.210  0.1586  0.3395  0.4452
61998SOL    HW191957  12.476   3.775   1.280  1.9215 -1.0846 -0.2539
61998SOL    HW291958  12.357   3.813   1.194  1.3753  1.7237  1.6273
61999SOL     OW91959   9.195   4.940   5.913 -0.0926 -0.4032 -0.1209
61999SOL    HW191960   9.134   4.916   5.844 -0.4928  0.8564 -0.2289
61999SOL    HW291961   9.139   4.961   5.988  0.1039  1.6526 -0.4903
62000SOL     OW91962   7.661   8.768   3.592 -0.0418 -0.0505 -0.7059
62000SOL    HW191963   7.643   8.675   3.585 -2.2999  0.0097  2.0928
62000SOL    HW291964   7.591   8.810   3.542 -0.4741  0.1323  0.0395
62001SOL     OW91965   2.213   4.107   7.067 -0.3766  0.0673 -0.4364
62001SOL    HW191966   2.204   4.082   6.975  0.2304  0.4025 -0.5975
62001SOL    HW291967   2.179   4.197   7.071  0.4729  0.4073 -0.5409
62002SOL     OW91968   5.928   1.885   9.082  0.4296 -0.5606 -0.1657
62002SOL    HW191969   5.997   1.904   9.146  0.6688  0.4970 -0.7314
62002SOL    HW291970   5.865   1.833   9.132  1.2611 -0.9161  0.5642
62003SOL     OW91971   9.037   6.147   2.288 -0.3240  0.0554 -0.5298
62003SOL    HW191972   9.118   6.152   2.237  1.0636 -2.0323  1.2572
62003SOL    HW291973   9.042   6.222   2.347  0.9353 -0.6424  0.3141
62004SOL     OW91974   6.243   9.741   4.197 -0.3161 -0.1444 -0.2346
62004SOL    HW191975   6.163   9.700   4.165 -3.2945  3.6634  1.5101
62004SOL    HW291976   6.256   9.817   4.139  0.0640  1.1082  1.4087
62005SOL     OW91977   2.451  12.058   6.288 -0.2346  0.2879 -0.1781
62005SOL    HW191978   2.363  12.068   6.324 -0.8687  0.4479 -1.6925
62005SOL    HW291979   2.509  12.076   6.362 -1.4490  1.3326  0.5677
62006SOL     OW91980  10.507   3.668  11.939  0.4560  0.3991  0.4070
62006SOL    HW191981  10.432   3.609  11.952 -0.1113  1.4186  2.1648
62006SOL    HW291982  10.557   3.661  12.020  1.6636  0.5909 -0.3010
62007SOL     OW91983  10.349   4.670   5.863 -0.6111 -0.1004 -0.3295
62007SOL    HW191984  10.274   4.634   5.815 -2.5660  0.8464  1.8216
62007SOL    HW291985  10.349   4.621   5.946  1.3634 -0.2568 -0.3828
62008SOL     OW91986   0.591   6.484   2.332  0.4220 -0.0196  0.0979
62008SOL    HW191987   0.591   6.455   2.240  2.1711 -0.3802  0.1716
62008SOL    HW291988   0.683   6.502   2.351  0.2388 -0.9554  2.0885
62009SOL     OW91989   8.186   6.152  10.165  0.3738 -0.6615  0.5079
62009SOL    HW191990   8.164   6.225  10.223 -0.4897 -1.3541  1.0708
62009SOL    HW291991   8.128   6.081  10.192 -1.0116 -0.6081 -2.0513
62010SOL     OW91992  11.407   5.770   8.470  0.4838  0.6137 -0.9446
62010SOL    HW191993  11.361   5.705   8.417  1.5814  0.4676 -1.7380
62010SOL    HW291994  11.362   5.767   8.555  0.1062 -0.7073 -1.1663
62011SOL     OW91995   6.649   6.792   0.834 -0.4073  0.6586 -0.1998
62011SOL    HW191996   6.592   6.868   0.845 -0.3902  0.6476 -0.0348
62011SOL    HW291997   6.699   6.787   0.915  0.3187  1.0723 -0.6081
62012SOL     OW91998   4.400   5.666   9.224  0.2190  0.2704  0.0800
62012SOL    HW191999   4.336   5.609   9.180  0.0043 -1.0198  1.9412
62012SOL    HW292000   4.347   5.731   9.270  0.3512  0.4411 -0.0074
62013SOL     OW92001   2.276  11.203   5.980  0.0827  0.5298  0.3110
62013SOL    HW192002   2.281  11.119   5.934  0.9156  0.1698  1.0403
62013SOL    HW292003   2.224  11.259   5.922 -1.3014 -0.7562  0.2474
62014SOL     OW92004   5.516   4.161   7.970 -0.1470 -0.0291 -0.0006
62014SOL    HW192005   5.444   4.103   7.994 -0.5445 -0.6181 -2.3847
62014SOL    HW292006   5.583   4.145   8.036 -1.6160 -0.5417  1.4194
62015SOL     OW92007   5.871   3.986   9.226  0.1443 -0.6330 -0.2346
62015SOL    HW192008   5.940   4.049   9.247 -0.5510 -0.1155  0.5471
62015SOL    HW292009   5.904   3.903   9.260 -0.4174 -0.0425  1.9826
62016SOL     OW92010   4.012   7.399  11.889 -0.2043 -0.0099  0.2950
62016SOL    HW192011   4.102   7.403  11.856 -0.0410  0.4627  0.7890
62016SOL    HW292012   4.022   7.385  11.983 -0.6553 -0.4098  0.2824
62017SOL     OW92013   7.058   0.881   8.103 -0.2460 -0.2994  0.3177
62017SOL    HW192014   6.971   0.895   8.066 -0.8149 -0.6266  1.5051
62017SOL    HW292015   7.046   0.811   8.167  0.8882 -0.3225  0.5213
62018SOL     OW92016   2.432  10.634   9.464 -0.3283 -0.1141  0.4034
62018SOL    HW192017   2.491  10.679   9.404 -0.6638  1.3461  1.1078
62018SOL    HW292018   2.467  10.546   9.471  0.3456  0.0170 -1.0664
62019SOL     OW92019   4.056   4.216   2.292  0.0774  0.0882  0.9793
62019SOL    HW192020   4.100   4.279   2.350  1.5638  0.3651 -0.3778
62019SOL    HW292021   3.969   4.252   2.279  0.2149  0.7727  1.8794
62020SOL     OW92022   7.673  11.632  12.148 -0.8296  0.0365 -0.7914
62020SOL    HW192023   7.608  11.572  12.185 -0.0214 -0.8792 -0.8550
62020SOL    HW292024   7.757  11.592  12.166 -0.2837  1.0006 -1.1071
62021SOL     OW92025   6.602  11.211  11.361 -0.3736 -0.6115  0.2901
62021SOL    HW192026   6.545  11.280  11.392  0.2304 -0.8058  1.9184
62021SOL    HW292027   6.543  11.140  11.335 -0.8968 -0.4686  1.0852
62022SOL     OW92028   6.383   7.922   0.910 -0.3869 -0.0706  0.2322
62022SOL    HW192029   6.333   7.845   0.935  1.9178 -1.6585  0.2663
62022SOL    HW292030   6.474   7.899   0.929  0.7622  1.3506 -2.8317
62023SOL     OW92031  11.030  10.597   8.066 -0.1439  0.2403 -0.3928
62023SOL    HW192032  10.984  10.663   8.117  1.7180 -0.9957  3.2740
62023SOL    HW292033  10.978  10.587   7.986 -2.5880  3.2877  0.6272
62024SOL     OW92034   0.177   6.366   8.880  0.3308  0.1925  0.6328
62024SOL    HW192035   0.200   6.295   8.940  0.9065  0.5631  0.8716
62024SOL    HW292036   0.235   6.438   8.906  1.5279 -0.0289 -1.1694
62025SOL     OW92037   2.940  12.313   3.308 -0.1159 -0.9750 -0.2471
62025SOL    HW192038   2.968  12.256   3.237  0.4320 -0.3267 -0.5591
62025SOL    HW292039   2.998  12.389   3.302 -1.0323 -0.2478 -0.0251
62026SOL     OW92040   7.117   3.794   2.226  0.0892 -0.1720  0.5134
62026SOL    HW192041   7.091   3.705   2.202 -0.4229  0.3617 -0.9758
62026SOL    HW292042   7.180   3.820   2.159  0.6594  0.4057  1.2492
62027SOL     OW92043  12.472   0.976   9.944  0.4752  0.2923 -0.0032
62027SOL    HW192044  12.501   1.062   9.976  0.9540  0.5194 -0.9979
62027SOL    HW292045  12.498   0.915  10.012 -1.3653  1.1072  1.5207
62028SOL     OW92046  10.553   8.304   9.423  0.3363 -0.1888  0.0432
62028SOL    HW192047  10.483   8.269   9.368  1.5359 -0.1825 -1.5675
62028SOL    HW292048  10.549   8.251   9.503 -3.8429  2.2029  1.6998
62029SOL     OW92049  10.226   0.656   1.515  0.9881 -0.4846  0.0037
62029SOL    HW192050  10.215   0.697   1.601  2.2386 -1.0397  0.4552
62029SOL    HW292051  10.140   0.620   1.495  0.1882  1.2450  0.1583
62030SOL     OW92052   4.267   1.036   0.945 -0.0046  0.1373  0.3994
62030SOL    HW192053   4.281   0.986   1.025 -1.5111  0.8982  1.1728
62030SOL    HW292054   4.232   1.120   0.974 -0.2657  0.5560 -1.0383
62031SOL     OW92055   7.749   3.416  12.432 -0.4800 -0.0318  0.1502
62031SOL    HW192056   7.734   3.332  12.389  0.4229 -0.0414 -0.1596
62031SOL    HW292057   7.834   3.407  12.475  0.1509  1.0850 -0.8108
62032SOL     OW92058   8.639  10.143   5.436 -0.1719  0.4430 -0.0581
62032SOL    HW192059   8.699  10.123   5.364  0.4581 -0.2712  0.6419
62032SOL    HW292060   8.609  10.058   5.467 -0.2633  0.7336  0.6703
62033SOL     OW92061   2.357   0.766   3.954 -0.1686  0.5090  0.3302
62033SOL    HW192062   2.284   0.823   3.931  0.5334  1.0103 -0.6934
62033SOL    HW292063   2.387   0.729   3.871  0.6489  0.1860  0.7522
62034SOL     OW92064   7.032   1.125   6.569  0.0245  0.1742 -0.5063
62034SOL    HW192065   7.060   1.071   6.495 -0.1619 -0.4503 -0.1307
62034SOL    HW292066   6.942   1.150   6.549  0.1600  0.4827 -0.7507
62035SOL     OW92067  10.601   7.780   7.508  0.0728  0.2019  0.2193
62035SOL    HW192068  10.639   7.793   7.421 -1.7504 -1.4772 -0.9067
62035SOL    HW292069  10.671   7.806   7.569  0.9931  2.5883 -1.6862
62036SOL     OW92070   9.044   9.816   0.296 -0.2658 -0.5620  0.1642
62036SOL    HW192071   9.119   9.784   0.246 -0.8327 -0.8961 -0.5017
62036SOL    HW292072   9.072   9.814   0.387  0.2137 -1.5743  0.0060
62037SOL     OW92073   3.615   2.213   2.965  0.1353  0.0936 -0.5254
62037SOL    HW192074   3.586   2.234   3.054  1.6076  4.7333 -0.8814
62037SOL    HW292075   3.706   2.186   2.975  1.1918  3.1903 -0.5969
62038SOL     OW92076   4.761   3.122   3.210 -0.1073  0.4113 -0.2596
62038SOL    HW192077   4.707   3.058   3.164 -0.3824  0.8363 -0.5393
62038SOL    HW292078   4.847   3.082   3.216 -0.2880  0.0040 -0.4050
62039SOL     OW92079   1.956  12.381   8.948  0.0117  0.3749 -0.3056
62039SOL    HW192080   1.971  12.296   8.990  0.3375 -0.2421 -1.6085
62039SOL    HW292081   1.903  12.360   8.871  0.6609  1.2571 -1.0132
62040SOL     OW92082  12.409   4.261   4.469 -0.1907  0.0251 -0.4491
62040SOL    HW192083  12.484   4.257   4.528 -1.2647 -0.6170  0.9146
62040SOL    HW292084  12.384   4.353   4.468 -2.0775 -0.3124  2.6824
62041SOL     OW92085   0.020   5.082   0.149 -0.1237  1.0573 -0.2670
62041SOL    HW192086  -0.074   5.062   0.147  0.1142 -0.1546  0.0217
62041SOL    HW292087   0.037   5.106   0.240  0.4474 -2.0348  0.5654
62042SOL     OW92088   1.127   7.865   4.286 -0.2091  0.2417  0.3081
62042SOL    HW192089   1.087   7.919   4.218 -1.3629 -2.2906 -1.2011
62042SOL    HW292090   1.063   7.865   4.357 -1.4852 -1.1330 -0.7588
62043SOL     OW92091  11.432  11.329  10.772 -0.0799  0.1669  0.4887
62043SOL    HW192092  11.506  11.273  10.796 -0.1589  0.0463  0.4530
62043SOL    HW292093  11.465  11.418  10.783  0.6238  0.1361 -1.1798
62044SOL     OW92094   0.884  11.316   2.884 -0.3828  0.0416  0.0951
62044SOL    HW192095   0.851  11.275   2.804 -0.2986  0.8124 -0.3450
62044SOL    HW292096   0.974  11.284   2.892 -0.3656  0.0270 -0.1592
62045SOL     OW92097   7.429   4.294   0.441  0.2660 -0.6157 -0.1261
62045SOL    HW192098   7.388   4.246   0.369  1.5886  0.0596 -1.3967
62045SOL    HW292099   7.510   4.246   0.458 -0.5554 -1.4335  1.7514
62046SOL     OW92100  10.488   3.880   1.681 -0.5179 -0.1424 -0.1208
62046SOL    HW192101  10.455   3.960   1.722  0.8991  0.5232 -0.2183
62046SOL    HW292102  10.466   3.811   1.742 -1.0108  0.4358  0.3736
62047SOL     OW92103  10.742  10.585   1.895 -0.2724 -0.2098 -0.6409
62047SOL    HW192104  10.723  10.674   1.925 -1.3221 -0.0760 -1.6782
62047SOL    HW292105  10.659  10.539   1.900  0.2306 -1.1208 -0.2524
62048SOL     OW92106   2.359  11.884   7.581  0.6415  0.1848  0.1472
62048SOL    HW192107   2.433  11.911   7.636  0.6021  2.5156 -0.8030
62048SOL    HW292108   2.318  11.812   7.629  2.4531  0.0272  1.5768
62049SOL     OW92109   9.199   4.453  11.904 -0.2471  0.1963 -0.2852
62049SOL    HW192110   9.245   4.501  11.973 -0.2287 -0.1737 -0.0375
62049SOL    HW292111   9.175   4.370  11.945  2.1650 -1.2239 -1.4976
62050SOL     OW92112   5.033   9.089   2.258 -0.5190 -0.8978 -0.5117
62050SOL    HW192113   5.004   9.010   2.305  0.1827 -0.6672  0.3409
62050SOL    HW292114   4.994   9.081   2.171 -3.5761 -0.3488  0.6870
62051SOL     OW92115   3.119   0.207  11.526  0.1445 -0.1536 -0.3018
62051SOL    HW192116   3.093   0.210  11.618  1.3170  1.9459  0.0134
62051SOL    HW292117   3.154   0.118  11.514 -0.2177 -0.5255  1.1929
62052SOL     OW92118   7.630  11.136   6.291  0.4678  0.0866 -0.0679
62052SOL    HW192119   7.616  11.042   6.281 -0.0582  0.3912 -2.8391
62052SOL    HW292120   7.645  11.148   6.385 -3.2418 -2.2728  1.0629
62053SOL     OW92121   1.562   6.835   4.179  0.0354  0.1947  0.3562
62053SOL    HW192122   1.545   6.764   4.117 -0.3835 -0.2929  1.0223
62053SOL    HW292123   1.577   6.791   4.263 -0.2712  0.8963  0.7904
62054SOL     OW92124   1.811  12.309   3.426 -0.3555 -0.1788 -0.6605
62054SOL    HW192125   1.846  12.350   3.506  1.7458 -1.8099 -0.6477
62054SOL    HW292126   1.824  12.376   3.358 -1.1976  0.8315  0.1361
62055SOL     OW92127   4.827   9.397   5.081 -0.4082 -0.1304 -0.4225
62055SOL    HW192128   4.856   9.369   4.995 -0.0929  0.5032 -0.5283
62055SOL    HW292129   4.742   9.353   5.094 -1.4191  1.2950 -1.8746
62056SOL     OW92130  12.314   1.333   9.156 -0.0381 -0.5862  0.0789
62056SOL    HW192131  12.392   1.278   9.153 -0.2147 -0.9026  1.1390
62056SOL    HW292132  12.270   1.310   9.238 -0.5171  0.5826  0.1809
62057SOL     OW92133   5.872   5.615   8.512  0.0473  0.1129  0.6134
62057SOL    HW192134   5.964   5.588   8.506 -0.0352 -0.9082  2.8018
62057SOL    HW292135   5.832   5.581   8.432  1.3288 -0.5610  0.2253
62058SOL     OW92136  10.669   8.436   4.228 -0.3384  0.4527 -0.6800
62058SOL    HW192137  10.729   8.368   4.196 -0.7248 -0.5322  0.6033
62058SOL    HW292138  10.614   8.457   4.152  2.4502  2.4384 -2.3519
62059SOL     OW92139   1.796   2.109   8.617  0.1617 -0.5946  0.0344
62059SOL    HW192140   1.779   2.129   8.709 -0.2981 -0.3210 -0.1072
62059SOL    HW292141   1.888   2.084   8.614 -0.2202 -2.2684  0.8577
62060SOL     OW92142   6.387   3.737   7.036 -0.1033  0.0621  0.2914
62060SOL    HW192143   6.376   3.719   6.943  0.8592  0.5467  0.0674
62060SOL    HW292144   6.324   3.680   7.079  1.7865 -2.7956 -0.4468
62061SOL     OW92145   2.830   3.298   9.958  0.1088 -0.5578  0.6914
62061SOL    HW192146   2.818   3.353   9.881 -1.2175  0.1717  1.3605
62061SOL    HW292147   2.855   3.360  10.027 -0.9094 -0.8331  1.3381
62062SOL     OW92148  10.452  12.325   3.124  0.3009 -0.2398  0.0519
62062SOL    HW192149  10.397  12.337   3.201 -0.5970 -0.5581 -0.5241
62062SOL    HW292150  10.524  12.388   3.136 -1.0515  1.3714  0.0305
62063SOL     OW92151   0.870   5.649   3.667 -0.1759  0.0640 -0.1450
62063SOL    HW192152   0.816   5.707   3.721 -2.6039  0.0807 -2.3545
62063SOL    HW292153   0.882   5.570   3.720 -1.5796  0.4688  0.8254
62064SOL     OW92154   6.742  11.111  12.026  0.0933  0.1174 -0.2487
62064SOL    HW192155   6.664  11.166  12.022  1.2776  1.9482  0.4317
62064SOL    HW292156   6.784  11.135  12.108  0.4066 -2.2433  0.3300
62065SOL     OW92157   0.896   4.707   6.860 -0.6558 -0.4513  0.8608
62065SOL    HW192158   0.950   4.629   6.845 -1.9318 -1.1737 -0.1729
62065SOL    HW292159   0.924   4.769   6.794  0.4980  0.0776  1.8071
62066SOL     OW92160   2.611   6.451   3.291 -0.5622 -0.9603 -0.2384
62066SOL    HW192161   2.518   6.430   3.296 -0.7373 -0.2030 -0.2121
62066SOL    HW292162   2.617   6.517   3.222 -0.0894 -0.7804 -0.0287
62067SOL     OW92163  11.267   5.634   9.719 -0.0356 -0.7063  0.2057
62067SOL    HW192164  11.294   5.668   9.804  0.4937 -1.0918  0.2005
62067SOL    HW292165  11.192   5.687   9.694 -0.3708 -0.7787  1.0456
62068SOL     OW92166   3.859  11.639   5.129  0.0726 -0.3956  0.3503
62068SOL    HW192167   3.801  11.624   5.054  1.2346 -1.2218 -0.4051
62068SOL    HW292168   3.933  11.689   5.093  0.3116 -0.1956  1.1018
62069SOL     OW92169  10.020   8.206  10.426 -0.1294  0.7722  0.0276
62069SOL    HW192170  10.041   8.112  10.420 -1.3005  0.2321  2.6713
62069SOL    HW292171  10.105   8.250  10.422  0.5569 -0.5027  0.0613
62070SOL     OW92172  11.101  12.155   1.537  0.2824 -0.7196 -0.2544
62070SOL    HW192173  11.160  12.212   1.487 -0.0840  0.0484  0.1568
62070SOL    HW292174  11.131  12.162   1.627 -0.0492 -0.8119 -0.1350
62071SOL     OW92175   4.218   0.572   2.127  0.0426 -0.4962 -0.0505
62071SOL    HW192176   4.200   0.571   2.033 -0.3708 -0.0270  0.0188
62071SOL    HW292177   4.131   0.568   2.168  0.2542 -2.0713  0.3332
62072SOL     OW92178   8.981   3.274   4.241 -0.7497 -0.6978  0.4483
62072SOL    HW192179   9.050   3.289   4.306 -0.7801  0.0848  0.3102
62072SOL    HW292180   8.902   3.262   4.294 -0.6916 -0.5373  0.5742
62073SOL     OW92181   3.353   2.045   9.777  0.4253  0.5275  0.2746
62073SOL    HW192182   3.347   2.133   9.739  0.1473  0.2957 -0.2226
62073SOL    HW292183   3.269   2.032   9.820  1.0003  1.0762  1.6249
62074SOL     OW92184   2.281  10.312  11.838 -0.2333  0.8418 -0.7386
62074SOL    HW192185   2.230  10.357  11.771 -2.3189 -1.6291 -0.9298
62074SOL    HW292186   2.223  10.306  11.914  0.7105  0.2097 -0.0376
62075SOL     OW92187   6.439   5.542   5.797 -0.1094 -0.3521  0.2699
62075SOL    HW192188   6.373   5.575   5.859  1.5829 -0.3143  2.1627
62075SOL    HW292189   6.414   5.451   5.782 -0.4068 -0.4441  1.2411
62076SOL     OW92190   8.062   5.861   8.273  0.4069 -0.2178 -0.2461
62076SOL    HW192191   8.130   5.921   8.242 -1.8099  2.7904  0.3404
62076SOL    HW292192   8.036   5.896   8.358  0.3403 -3.2527  1.1448
62077SOL     OW92193  11.384   7.717   4.747  0.7125 -0.0963 -0.3869
62077SOL    HW192194  11.328   7.783   4.707  1.7164  0.0254 -1.6927
62077SOL    HW292195  11.334   7.635   4.739  0.8408 -0.0547 -1.8622
62078SOL     OW92196   1.395   9.013   9.519  0.2475 -0.1059  0.1590
62078SOL    HW192197   1.415   8.926   9.552 -2.9525 -0.8367  0.4554
62078SOL    HW292198   1.458   9.070   9.564  0.4955 -1.8970  2.2871
62079SOL     OW92199   9.969   3.556  11.793 -0.8274 -0.1941 -0.3872
62079SOL    HW192200   9.909   3.564  11.718 -1.5427 -1.2967  0.0427
62079SOL    HW292201   9.925   3.604  11.864  0.2182  1.5379 -0.8340
62080SOL     OW92202   0.952   3.473   3.805 -0.1362  0.0846  0.0551
62080SOL    HW192203   0.977   3.496   3.895  0.4716  0.5198 -0.2171
62080SOL    HW292204   1.034   3.443   3.765 -0.0114  1.5416 -0.8628
62081SOL     OW92205   3.673   4.361   2.213 -0.2828 -0.1006  0.0301
62081SOL    HW192206   3.696   4.328   2.300 -1.2267  1.4160  0.8931
62081SOL    HW292207   3.638   4.448   2.228 -0.9932 -0.0080 -1.8231
62082SOL     OW92208   9.058  11.591   6.839 -0.5937 -0.1329 -0.2766
62082SOL    HW192209   9.083  11.509   6.798 -0.8358  0.9329 -2.7071
62082SOL    HW292210   9.137  11.619   6.887 -0.9377 -2.3607  1.7555
62083SOL     OW92211  11.822  10.078   2.066  0.1209 -0.2746 -0.1998
62083SOL    HW192212  11.828  10.166   2.102 -1.7829 -0.0476 -0.3421
62083SOL    HW292213  11.911  10.044   2.070  0.4860  0.7759  2.0629
62084SOL     OW92214   1.780  10.962   9.602 -0.2001  0.1617 -0.2287
62084SOL    HW192215   1.863  10.995   9.568  0.6668 -0.3858  1.2482
62084SOL    HW292216   1.715  11.028   9.577  1.1671  2.1206  1.1138
62085SOL     OW92217   5.518   0.837   1.480  0.1331  0.6247 -0.0497
62085SOL    HW192218   5.461   0.779   1.531 -0.6341 -0.2073 -1.7978
62085SOL    HW292219   5.496   0.925   1.510 -0.3174  0.1625  1.0271
62086SOL     OW92220  11.126   7.198   5.741 -0.2747  0.0147  0.0811
62086SOL    HW192221  11.147   7.284   5.777  1.0904 -1.0305  1.9863
62086SOL    HW292222  11.199   7.178   5.682 -0.9819  0.4575 -0.9675
62087SOL     OW92223   2.657   9.203  11.223 -0.1672  0.1539  0.1466
62087SOL    HW192224   2.577   9.195  11.274  0.6060 -1.2873  1.1935
62087SOL    HW292225   2.697   9.284  11.253 -0.9641  0.6197 -0.0199
62088SOL     OW92226   8.828   7.020  10.574  0.0018  0.4426 -0.7732
62088SOL    HW192227   8.810   6.946  10.631  0.1147  1.0013 -0.0089
62088SOL    HW292228   8.757   7.082  10.591  0.6709  1.1155 -0.3695
62089SOL     OW92229   3.579   2.911   4.008 -0.1278  0.0419  0.5025
62089SOL    HW192230   3.552   2.916   3.916  0.0671  0.1553  0.4528
62089SOL    HW292231   3.582   2.817   4.026  1.0265 -0.0329  0.0399
62090SOL     OW92232   0.224  12.160   5.348 -0.9142 -0.3395  0.0875
62090SOL    HW192233   0.243  12.146   5.441  2.5794  0.9663 -0.2840
62090SOL    HW292234   0.309  12.181   5.310 -1.9337 -2.2994 -3.7303
62091SOL     OW92235   1.517   8.405   7.474  0.4133 -0.4467 -0.3065
62091SOL    HW192236   1.426   8.417   7.448  0.7004  0.0038 -1.1671
62091SOL    HW292237   1.515   8.395   7.569 -0.5025 -0.1436 -0.2890
62092SOL     OW92238   3.135   7.865   8.048  0.1243  0.2054  0.2738
62092SOL    HW192239   3.082   7.886   7.972  1.5818 -0.0189 -0.8505
62092SOL    HW292240   3.215   7.916   8.036  2.8220 -3.8974 -1.3572
62093SOL     OW92241   8.409   6.404  10.456  0.0852  0.1643 -0.1685
62093SOL    HW192242   8.417   6.426  10.549 -1.4312  1.3986 -0.2783
62093SOL    HW292243   8.412   6.309  10.453  0.8499  0.1308  1.0608
62094SOL     OW92244   7.864   3.076   2.877 -0.2600  0.1993  0.0757
62094SOL    HW192245   7.916   2.996   2.883  1.5380  1.3802  1.0971
62094SOL    HW292246   7.831   3.090   2.966  2.2930  2.3286  0.8128
62095SOL     OW92247  10.486   6.963   8.562  0.1569  0.2707  0.3085
62095SOL    HW192248  10.431   6.936   8.635  0.6919 -1.0915  0.2214
62095SOL    HW292249  10.429   6.955   8.485 -0.4251  1.7653  0.5527
62096SOL     OW92250   3.559  11.083   1.806  0.0331 -0.3352  0.0818
62096SOL    HW192251   3.517  11.067   1.721 -3.1682  1.2988  1.2037
62096SOL    HW292252   3.614  11.159   1.791  0.2699 -0.6547 -0.7428
62097SOL     OW92253   4.693  12.251  10.261  0.5977 -0.2688 -0.3983
62097SOL    HW192254   4.696  12.215  10.172  3.5360  0.5057 -0.7107
62097SOL    HW292255   4.659  12.340  10.249 -1.2258 -0.9227 -0.3788
62098SOL     OW92256  10.680   9.892   7.731  0.2852  0.4931 -0.3028
62098SOL    HW192257  10.698   9.798   7.722 -0.3858  0.3980 -0.7332
62098SOL    HW292258  10.586   9.896   7.747  0.5479  1.0055  1.2213
62099SOL     OW92259  10.615   6.114   1.224 -0.1007  0.2748 -0.1359
62099SOL    HW192260  10.553   6.155   1.164  1.4773  3.8651  0.4596
62099SOL    HW292261  10.664   6.052   1.169 -1.0375  0.8675 -1.7059
62100SOL     OW92262   7.903   9.344   8.213  0.4174  0.5925 -0.0247
62100SOL    HW192263   7.939   9.314   8.296 -0.7042 -1.3268 -0.1777
62100SOL    HW292264   7.962   9.307   8.147  0.3163  0.6414 -0.1409
62101SOL     OW92265  10.770   9.109  12.275 -0.0104  0.3753  0.1942
62101SOL    HW192266  10.826   9.168  12.325  1.3919 -0.6796 -0.0671
62101SOL    HW292267  10.820   9.027  12.269 -1.2492 -0.3587 -0.7276
62102SOL     OW92268   1.187   1.929   1.132  0.2437  0.6007 -0.0051
62102SOL    HW192269   1.265   1.887   1.097 -0.4713  0.2949 -1.3012
62102SOL    HW292270   1.129   1.857   1.155 -0.7639  0.8103 -1.7108
62103SOL     OW92271   1.366   1.901   6.076  0.1902 -0.2314  0.0818
62103SOL    HW192272   1.340   1.936   6.161 -1.7569 -0.8084 -0.2294
62103SOL    HW292273   1.416   1.972   6.035  0.2549  0.4366  1.2716
62104SOL     OW92274   7.987   3.611   6.320 -0.3752  0.0725  0.0161
62104SOL    HW192275   7.938   3.570   6.392 -0.9749 -1.8778 -1.4338
62104SOL    HW292276   7.923   3.667   6.277 -1.1115 -1.6076 -1.1882
62105SOL     OW92277   1.180   9.853   5.645  0.6323  0.3491 -0.0071
62105SOL    HW192278   1.142   9.766   5.633  0.2461  0.7483 -2.1959
62105SOL    HW292279   1.113   9.903   5.690  0.8062 -0.4216  1.1490
62106SOL     OW92280   4.344   5.702   8.699  0.8999 -0.4120 -0.0997
62106SOL    HW192281   4.399   5.624   8.690  0.5787 -0.6148 -0.3499
62106SOL    HW292282   4.254   5.669   8.691  0.3218 -0.9045  5.1965
62107SOL     OW92283   6.137   6.947   0.848 -0.5469  0.2461  0.0331
62107SOL    HW192284   6.121   7.039   0.868  0.4699  0.3635  0.3610
62107SOL    HW292285   6.050   6.911   0.830 -1.0042  1.1620  0.3378
62108SOL     OW92286   9.065   2.143  10.764  0.3135  0.5382  0.1771
62108SOL    HW192287   9.025   2.103  10.687  1.5701 -1.6475  0.5672
62108SOL    HW292288   9.151   2.173  10.733 -0.4948  2.8376 -0.0377
62109SOL     OW92289   1.991  11.916  11.116  0.4638  0.0698  0.2826
62109SOL    HW192290   1.913  11.890  11.165 -0.6038  2.9128  0.2912
62109SOL    HW292291   2.047  11.958  11.181 -0.3620  2.6528 -0.5582
62110SOL     OW92292   6.155   0.183   3.914  0.3426 -0.2224  0.2535
62110SOL    HW192293   6.235   0.167   3.964  0.4051 -0.6379  0.0233
62110SOL    HW292294   6.174   0.151   3.826  1.2954  3.1607 -0.9291
62111SOL     OW92295   7.356   1.692  11.825 -0.4182 -0.0245 -0.2672
62111SOL    HW192296   7.352   1.639  11.746 -1.2144 -0.1003 -0.1901
62111SOL    HW292297   7.414   1.645  11.884 -0.1956 -0.2085 -0.6345
62112SOL     OW92298  11.821   5.896   0.676  0.8730 -0.4295  0.6656
62112SOL    HW192299  11.901   5.875   0.627  0.4309  0.0552 -0.2967
62112SOL    HW292300  11.799   5.985   0.649  1.9547  0.8457  3.6370
62113SOL     OW92301   9.923   1.002   8.512  0.2069  0.3405  0.0225
62113SOL    HW192302   9.891   0.943   8.580  1.4466  0.3590  0.6408
62113SOL    HW292303   9.927   1.088   8.554  0.1955  0.5114 -0.3198
62114SOL     OW92304   0.358   1.407  11.040 -0.4492  0.5100 -0.3342
62114SOL    HW192305   0.345   1.312  11.043  0.7590  0.3499  1.9607
62114SOL    HW292306   0.296   1.442  11.104  0.6342  1.0186  0.4727
62115SOL     OW92307   7.750  10.426   1.905  0.1369  0.6317  0.4079
62115SOL    HW192308   7.693  10.457   1.976 -0.2406 -0.2440  0.4961
62115SOL    HW292309   7.694  10.367   1.854  0.9922 -0.3160  0.5449
62116SOL     OW92310   2.594   3.308   6.251 -0.3404 -0.3632 -0.6642
62116SOL    HW192311   2.598   3.354   6.168 -2.9213 -1.6360 -1.6066
62116SOL    HW292312   2.573   3.376   6.316  0.9884  0.5216 -1.1269
62117SOL     OW92313   7.092   9.671   0.945 -0.5793 -0.6182 -0.1000
62117SOL    HW192314   7.023   9.701   0.887 -1.0459  0.5336  1.0081
62117SOL    HW292315   7.097   9.737   1.014  3.1671  0.5864 -1.2859
62118SOL     OW92316   6.120  11.435  10.727 -0.4038 -0.2299 -0.4308
62118SOL    HW192317   6.156  11.522  10.746 -0.2255 -0.3006 -0.4478
62118SOL    HW292318   6.088  11.404  10.812  0.9600 -0.8059 -0.0968
62119SOL     OW92319  10.068  11.919   8.922 -0.8189 -0.1976  0.6552
62119SOL    HW192320  10.099  11.864   8.994 -0.3519 -2.3839 -1.1218
62119SOL    HW292321   9.989  11.876   8.890 -0.4371  0.1275 -0.8059
62120SOL     OW92322  11.224   9.729   3.449  0.2093 -0.2678 -0.5072
62120SOL    HW192323  11.189   9.705   3.364 -2.1910  0.9988  0.0225
62120SOL    HW292324  11.312   9.761   3.431 -0.2607  0.0004 -2.5181
62121SOL     OW92325   3.210   6.554   0.205 -0.3780  0.5405 -0.3632
62121SOL    HW192326   3.139   6.534   0.144 -0.6604 -0.2564  0.2196
62121SOL    HW292327   3.176   6.625   0.259 -1.3140 -0.8185  0.8812
62122SOL     OW92328   5.199   0.846   9.002  0.5013  0.0241 -0.4849
62122SOL    HW192329   5.134   0.876   9.065  0.5158  0.6191 -0.7486
62122SOL    HW292330   5.208   0.918   8.940  0.7415 -0.4147 -0.9721
62123SOL     OW92331   6.912   6.714   9.230  0.0918 -0.2853  0.1265
62123SOL    HW192332   6.838   6.766   9.199 -0.2881  1.1742  3.0707
62123SOL    HW292333   6.978   6.721   9.161 -2.5224 -2.0027 -2.8263
62124SOL     OW92334   6.001  11.054   1.230 -0.4029 -0.3514  0.1285
62124SOL    HW192335   6.045  11.026   1.310  2.2114 -1.0410 -1.4213
62124SOL    HW292336   6.004  11.150   1.233  1.2095 -0.3721  0.1478
62125SOL     OW92337   4.190  11.912   6.327  0.1910 -0.0830  1.2398
62125SOL    HW192338   4.124  11.842   6.318  1.1415 -0.8332 -0.3557
62125SOL    HW292339   4.162  11.979   6.265  0.3246  0.1063  1.3822
62126SOL     OW92340  10.781   9.173   3.778  0.1938 -0.1063  0.1535
62126SOL    HW192341  10.810   9.176   3.687  0.9629  0.0814  0.4011
62126SOL    HW292342  10.689   9.198   3.774  0.3403  0.3543 -0.5203
62127SOL     OW92343   1.986   3.340   9.053 -0.4727  0.1696 -0.3033
62127SOL    HW192344   2.005   3.294   8.971 -1.3823 -1.0756  0.1513
62127SOL    HW292345   1.911   3.396   9.033  0.1024  0.8412 -0.6340
62128SOL     OW92346   3.748   1.603  10.671 -0.1650 -0.3029  0.2447
62128SOL    HW192347   3.832   1.556  10.660  1.5368  2.5119  0.2859
62128SOL    HW292348   3.698   1.580  10.593  1.6516 -0.1734 -1.0358
62129SOL     OW92349  10.677   1.057   2.495  0.3912 -0.1252 -0.0562
62129SOL    HW192350  10.735   1.126   2.529  1.2729 -0.8174 -0.1186
62129SOL    HW292351  10.736   0.996   2.451 -0.3805 -0.9082 -0.0272
62130SOL     OW92352  11.861   6.905   2.017 -0.2614  0.2772 -0.2517
62130SOL    HW192353  11.880   6.947   2.101  1.1506  0.5560 -0.6759
62130SOL    HW292354  11.926   6.835   2.011 -1.1042 -0.4889 -0.6007
62131SOL     OW92355  11.639  10.131  11.083 -0.6684 -0.1457 -0.4054
62131SOL    HW192356  11.664  10.210  11.036 -0.0036  0.5073  1.0014
62131SOL    HW292357  11.721  10.082  11.093 -0.6007  0.2216  0.9594
62132SOL     OW92358   0.772   6.686   7.184 -0.5045  0.6469  0.5605
62132SOL    HW192359   0.731   6.771   7.197 -1.1551  0.3126  0.7321
62132SOL    HW292360   0.819   6.695   7.101  0.9606  1.7474  1.4621
62133SOL     OW92361   1.567   2.462   4.610  0.0668 -0.2534 -0.2316
62133SOL    HW192362   1.484   2.415   4.605 -0.5532  0.8222 -0.6851
62133SOL    HW292363   1.611   2.426   4.686 -1.4252  0.0900  0.8483
62134SOL     OW92364   8.903   1.475   8.249  0.1373  0.3130  0.0755
62134SOL    HW192365   8.967   1.448   8.182 -0.8028 -2.4900  0.1746
62134SOL    HW292366   8.848   1.540   8.204  2.1634  1.7794 -0.4249
62135SOL     OW92367   6.200  10.660   4.389  0.5943  0.2956 -0.4155
62135SOL    HW192368   6.277  10.653   4.445 -0.7666 -2.5815  1.3534
62135SOL    HW292369   6.225  10.618   4.307  1.4357  1.0595 -0.5612
62136SOL     OW92370   9.367   6.036   8.891 -0.1625 -0.3683  0.5650
62136SOL    HW192371   9.451   5.990   8.897 -0.2627 -0.4354  1.7375
62136SOL    HW292372   9.303   5.973   8.924 -0.6727 -0.3111 -0.3030
62137SOL     OW92373   5.595   5.632   7.260  1.0529 -0.0862 -0.5350
62137SOL    HW192374   5.587   5.552   7.311 -1.3772  0.1447 -0.4421
62137SOL    HW292375   5.638   5.604   7.178 -1.1615 -1.8763 -1.2009
62138SOL     OW92376   4.856  11.642  10.175 -0.4059  0.7310  0.0700
62138SOL    HW192377   4.907  11.696  10.115  0.8838 -0.4660  0.0231
62138SOL    HW292378   4.920  11.609  10.238 -0.9817 -1.3152 -0.3435
62139SOL     OW92379   3.717   3.897   6.580 -0.2286 -0.3123 -0.0445
62139SOL    HW192380   3.650   3.836   6.550  0.2341 -0.2289 -1.2997
62139SOL    HW292381   3.760   3.852   6.653 -0.7766 -0.9119 -0.0883
62140SOL     OW92382   0.449   4.918   9.422  0.4547  0.2727  0.3377
62140SOL    HW192383   0.372   4.975   9.429  0.5679  0.3906  0.6435
62140SOL    HW292384   0.462   4.906   9.328 -0.5591 -0.5874  0.2832
62141SOL     OW92385  10.781   0.703  10.119 -0.6490  0.2436  0.3970
62141SOL    HW192386  10.733   0.786  10.120  0.6607  1.1046 -1.5465
62141SOL    HW292387  10.839   0.708  10.195 -0.1407  1.4207 -0.0425
62142SOL     OW92388   5.999   1.598   7.900 -0.0052  0.0938 -0.0677
62142SOL    HW192389   5.923   1.571   7.952  0.1360  2.5359  1.5775
62142SOL    HW292390   6.074   1.567   7.950  0.1856 -2.0690 -1.5505
62143SOL     OW92391   9.835   8.582   0.829  0.2231 -0.0061 -0.2092
62143SOL    HW192392   9.844   8.664   0.780  0.4696  0.7348  1.0137
62143SOL    HW292393   9.871   8.515   0.771 -0.5170  0.6517 -1.4688
62144SOL     OW92394   8.914   6.826   3.723 -0.6198 -0.1338 -0.6164
62144SOL    HW192395   8.903   6.730   3.722  1.5371 -0.4368 -0.6135
62144SOL    HW292396   8.969   6.842   3.800 -0.6143  1.0615 -0.8551
62145SOL     OW92397   3.127   5.759   8.652  0.4116 -0.7446  0.2794
62145SOL    HW192398   3.190   5.749   8.723 -0.4249 -2.0456  0.8637
62145SOL    HW292399   3.160   5.703   8.582  0.7593 -0.1585 -0.0312
62146SOL     OW92400   5.085   7.559  10.117 -0.6712  0.1228 -0.0648
62146SOL    HW192401   5.133   7.618  10.175 -0.3644  0.4094 -0.5911
62146SOL    HW292402   5.000   7.549  10.158 -0.7584  1.0130 -0.0024
62147SOL     OW92403   1.566   9.651   1.647  0.4304 -0.5341 -0.4043
62147SOL    HW192404   1.615   9.733   1.649 -0.1966 -0.1111 -1.4531
62147SOL    HW292405   1.565   9.626   1.554 -0.9059 -0.7819 -0.3409
62148SOL     OW92406   9.203   6.838   2.099  0.1929  0.2575 -0.6175
62148SOL    HW192407   9.122   6.812   2.143  0.3896  0.4974 -0.1076
62148SOL    HW292408   9.273   6.807   2.156  0.5208 -1.3521 -1.8186
62149SOL     OW92409   6.468  10.969   6.306  0.1459  0.0381 -0.3439
62149SOL    HW192410   6.540  10.912   6.334 -0.0811  0.1203  0.4136
62149SOL    HW292411   6.463  10.955   6.211  1.8763  0.8730 -0.5924
62150SOL     OW92412   0.101   8.592  10.472 -0.5387 -0.7081 -0.2624
62150SOL    HW192413   0.028   8.548  10.517 -0.0861 -0.8265  0.3711
62150SOL    HW292414   0.066   8.678  10.449 -1.0450 -0.9496 -0.4259
62151SOL     OW92415   0.267   3.297   4.092  0.0579 -0.0189 -0.4129
62151SOL    HW192416   0.256   3.282   4.186  2.2226  0.8147  0.0208
62151SOL    HW292417   0.218   3.378   4.075 -0.2861 -0.1351  0.0020
62152SOL     OW92418   8.113   1.230   5.388  0.1701  0.2775  0.1685
62152SOL    HW192419   8.149   1.289   5.454  3.0503 -1.5709  0.3968
62152SOL    HW292420   8.093   1.149   5.435 -1.5291  0.2104 -0.5655
62153SOL     OW92421   0.890   4.738  11.782  0.2639 -0.4505 -0.1704
62153SOL    HW192422   0.954   4.722  11.852  1.3538  0.8181 -0.8321
62153SOL    HW292423   0.847   4.820  11.807 -0.9203 -1.1339  0.1066
62154SOL     OW92424   3.170  12.071  11.255  0.1229 -0.1730  0.1210
62154SOL    HW192425   3.102  12.058  11.189  0.9187  0.6964 -0.9088
62154SOL    HW292426   3.123  12.075  11.338 -1.2306  1.5511 -0.6603
62155SOL     OW92427   5.180   2.593  12.248 -0.7065 -0.2910  0.0347
62155SOL    HW192428   5.188   2.497  12.243  1.5257 -0.2269  1.1542
62155SOL    HW292429   5.181   2.613  12.341  0.0830  0.8849 -0.2012
62156SOL     OW92430  10.424   4.051   6.388 -0.0617 -0.1833  0.0885
62156SOL    HW192431  10.340   4.097   6.396  1.3886  3.0276 -1.3482
62156SOL    HW292432  10.430   4.030   6.295  1.0249  0.3587  0.0214
62157SOL     OW92433   8.287   9.280   4.251 -0.3446 -0.1932 -0.0207
62157SOL    HW192434   8.320   9.219   4.317 -0.7925 -0.5166 -0.0894
62157SOL    HW292435   8.258   9.223   4.179 -2.8774 -0.0953  0.8155
62158SOL     OW92436   9.379  10.466   6.753 -0.8686  0.3598  0.1477
62158SOL    HW192437   9.333  10.516   6.820 -1.6015 -0.9562  0.6644
62158SOL    HW292438   9.354  10.507   6.670  1.3543  3.0906  0.6521
62159SOL     OW92439   8.931   1.818   6.567 -0.2592  0.1651  0.6459
62159SOL    HW192440   8.947   1.892   6.508  1.2866  0.0139  0.8269
62159SOL    HW292441   9.016   1.801   6.608 -0.5468 -1.7390  0.5735
62160SOL     OW92442   3.626  12.023   0.709  0.4276  0.1402 -0.5812
62160SOL    HW192443   3.659  11.934   0.703  0.7685  0.1538  0.7205
62160SOL    HW292444   3.537  12.013   0.745  0.2908  0.3048 -0.8682
62161SOL     OW92445   5.661   2.718   1.813 -0.0049 -0.3398  0.2802
62161SOL    HW192446   5.650   2.680   1.900  0.8300 -2.9930 -0.6710
62161SOL    HW292447   5.589   2.681   1.762  0.9487 -0.8298 -0.7450
62162SOL     OW92448   2.129   8.114   3.961  0.1403 -0.2790 -0.7613
62162SOL    HW192449   2.059   8.075   3.909  0.2353 -1.2587 -0.1783
62162SOL    HW292450   2.134   8.060   4.040 -0.2956  1.4165  0.4924
62163SOL     OW92451  11.340  10.143  11.488  0.0345 -0.6079 -0.3273
62163SOL    HW192452  11.362  10.122  11.397 -0.8080 -0.6965 -0.5230
62163SOL    HW292453  11.254  10.185  11.482  0.6097  0.7137  0.2936
62164SOL     OW92454   2.188   3.609   1.512 -0.0436 -0.0548 -0.0916
62164SOL    HW192455   2.133   3.581   1.439  0.1469  0.8838 -0.6198
62164SOL    HW292456   2.267   3.643   1.471 -0.1978  1.0745  0.4987
62165SOL     OW92457   2.467   6.115  10.356 -0.0272 -0.2106 -0.7416
62165SOL    HW192458   2.505   6.174  10.421  0.2461 -1.3295  0.1356
62165SOL    HW292459   2.469   6.165  10.274 -2.7782  2.2326  0.5314
62166SOL     OW92460  12.160   0.158   3.786  0.7534 -0.0899 -0.9780
62166SOL    HW192461  12.237   0.139   3.839  0.3373 -0.7766 -0.6074
62166SOL    HW292462  12.181   0.126   3.699  0.6893 -0.7613 -0.7501
62167SOL     OW92463   6.327   6.337  11.442 -0.1970  0.4380  0.3145
62167SOL    HW192464   6.379   6.375  11.371 -1.3053  0.9718 -0.2237
62167SOL    HW292465   6.236   6.350  11.415 -0.6346  0.5201  1.7685
62168SOL     OW92466   5.327   7.308   0.769 -0.0702 -0.0470  0.5236
62168SOL    HW192467   5.392   7.247   0.804  0.0647  0.2947  0.8730
62168SOL    HW292468   5.343   7.307   0.674  0.0165 -0.4539  0.5388
62169SOL     OW92469   6.699   3.214  11.488 -0.1595 -0.3081  0.1390
62169SOL    HW192470   6.625   3.255  11.533 -1.9371 -1.7189 -1.3078
62169SOL    HW292471   6.680   3.120  11.493 -0.6190 -0.5804 -3.6015
62170SOL     OW92472   0.101   6.104   6.884 -0.3840  0.2971  0.3145
62170SOL    HW192473   0.018   6.123   6.926 -0.1657  0.8510  0.5021
62170SOL    HW292474   0.155   6.181   6.901 -0.2136  0.4366 -0.7764
62171SOL     OW92475   8.692   5.996   5.632  0.4978  0.0317  0.7456
62171SOL    HW192476   8.762   6.051   5.665 -0.7164  1.9252  0.3443
62171SOL    HW292477   8.677   6.027   5.542 -1.6869  0.6021  1.2492
62172SOL     OW92478   9.659   1.842   2.563 -0.5588 -0.1180  0.1818
62172SOL    HW192479   9.706   1.772   2.607 -0.5827  0.0257  0.4380
62172SOL    HW292480   9.632   1.804   2.479 -0.2758 -0.3036  0.1746
62173SOL     OW92481   0.280   1.675  11.228  0.3213  0.1360  1.3097
62173SOL    HW192482   0.253   1.767  11.235  1.0950  0.5304 -0.4201
62173SOL    HW292483   0.365   1.677  11.184 -0.5944 -1.4801 -0.7375
62174SOL     OW92484   2.998   6.671   3.903  0.3363  0.2135 -0.8859
62174SOL    HW192485   3.069   6.695   3.962  0.8781  0.3494 -1.5683
62174SOL    HW292486   3.019   6.717   3.821  0.3542 -1.0366 -1.6085
62175SOL     OW92487   4.429   3.061  10.533  0.2713 -0.6766  0.2598
62175SOL    HW192488   4.408   3.022  10.618  1.1698 -0.4383  0.5952
62175SOL    HW292489   4.500   3.007  10.498  0.9847  0.1676  0.3765
62176SOL     OW92490   2.945   4.876   2.577 -0.1444  0.0036 -0.3688
62176SOL    HW192491   2.917   4.800   2.526  1.9443  0.2050 -1.9656
62176SOL    HW292492   3.022   4.844   2.625 -1.0651  0.3038  1.3741
62177SOL     OW92493   6.115   3.175   6.841  0.3061 -0.0312  0.5797
62177SOL    HW192494   6.204   3.180   6.807  0.4399 -0.3126  0.8880
62177SOL    HW292495   6.060   3.197   6.766  0.5559 -1.5897 -0.1120
62178SOL     OW92496   0.312  12.115   4.075  0.6900 -0.1522  0.3194
62178SOL    HW192497   0.330  12.193   4.128  0.0494 -0.6947  1.3597
62178SOL    HW292498   0.340  12.042   4.130  0.2041 -0.7156 -0.1750
62179SOL     OW92499  10.944   7.841   8.922  0.4083 -0.2026 -0.2982
62179SOL    HW192500  11.013   7.904   8.942 -1.4186  2.1761 -0.9738
62179SOL    HW292501  10.895   7.833   9.005  0.0248  0.1131 -0.4900
62180SOL     OW92502   9.373   9.879   3.072  0.5280  0.1368 -0.8887
62180SOL    HW192503   9.328   9.842   2.996 -0.0401  1.1300 -1.0509
62180SOL    HW292504   9.355   9.817   3.142  1.0052 -0.7608 -1.5324
62181SOL     OW92505  11.374   9.771   0.432 -0.4976 -0.5156 -0.0813
62181SOL    HW192506  11.346   9.790   0.343 -0.2832  0.3533  0.0272
62181SOL    HW292507  11.296   9.734   0.474 -0.2267 -2.2427 -0.9853
62182SOL     OW92508   6.910   5.318   6.822  0.3212 -0.2120 -0.0578
62182SOL    HW192509   6.871   5.297   6.737  0.6025  0.5862 -0.3904
62182SOL    HW292510   6.984   5.375   6.801  0.5459 -0.2167  0.7049
62183SOL     OW92511   9.636   8.266   8.784 -0.7578 -0.3717 -0.2044
62183SOL    HW192512   9.623   8.282   8.878  1.1720  0.1447  0.0281
62183SOL    HW292513   9.667   8.350   8.750 -0.0475 -0.9368 -1.0025
62184SOL     OW92514   1.245   5.719   4.045 -0.4006 -0.0132 -0.0024
62184SOL    HW192515   1.329   5.731   4.002 -0.7736 -0.4645 -0.8999
62184SOL    HW292516   1.197   5.800   4.029  0.8250  1.4162  2.9036
62185SOL     OW92517   0.050   6.752   6.365 -0.1723  0.2564 -0.1204
62185SOL    HW192518   0.132   6.801   6.379  0.5583 -1.1981  0.9428
62185SOL    HW292519  -0.016   6.802   6.414  0.3654  0.6815  0.1850
62186SOL     OW92520   5.783  12.450  10.024  0.4042 -0.2640 -0.0736
62186SOL    HW192521   5.688  12.448  10.034  0.0796 -0.5825 -2.5515
62186SOL    HW292522   5.807  12.542  10.032 -0.3918  0.0644 -1.3545
62187SOL     OW92523   6.049   7.527  10.564 -0.2779 -0.1574 -0.1101
62187SOL    HW192524   5.988   7.513  10.635 -0.7440  1.7560 -0.0663
62187SOL    HW292525   6.001   7.501  10.485 -1.0617  1.0266 -0.0448
62188SOL     OW92526   5.416  11.618   9.822 -0.0521 -0.0369 -0.2716
62188SOL    HW192527   5.358  11.677   9.775 -1.5761 -1.7438 -0.6513
62188SOL    HW292528   5.387  11.622   9.913  0.3069  0.3123 -0.1701
62189SOL     OW92529  11.037   2.597   5.231 -0.1321 -0.5344 -0.4526
62189SOL    HW192530  11.112   2.609   5.173  0.9211 -0.7510  0.8366
62189SOL    HW292531  10.962   2.623   5.177  0.6785 -1.6597 -2.2471
62190SOL     OW92532   3.162   6.042   3.940 -0.0412 -0.2662 -0.0183
62190SOL    HW192533   3.172   5.966   3.998  0.2955 -0.7891 -0.7361
62190SOL    HW292534   3.105   6.011   3.870 -1.1165  0.6153  0.4508
62191SOL     OW92535  12.389   0.063  10.217 -0.0916 -0.1346 -0.3932
62191SOL    HW192536  12.306   0.110  10.219 -1.0254 -1.6960  0.1726
62191SOL    HW292537  12.450   0.118  10.265 -1.0692  0.5938  0.0370
62192SOL     OW92538   6.281   1.767  12.213 -0.3203 -0.0502  0.2449
62192SOL    HW192539   6.230   1.847  12.221  0.4774  0.6631 -1.3381
62192SOL    HW292540   6.228   1.709  12.159  0.8036  1.0209 -2.1597
62193SOL     OW92541   9.732   6.111   6.254  0.1246  0.2513  0.3588
62193SOL    HW192542   9.649   6.063   6.258  0.2144 -0.0694 -1.0138
62193SOL    HW292543   9.749   6.138   6.344 -1.4689  0.3252  0.6532
62194SOL     OW92544   5.739   7.347   3.147 -0.1016  0.2246 -0.4017
62194SOL    HW192545   5.684   7.426   3.152  0.3400  0.4990  0.1268
62194SOL    HW292546   5.729   7.306   3.232  0.7054  0.4045 -0.2142
62195SOL     OW92547   8.523   2.968   1.896  0.5785 -0.6583 -0.6906
62195SOL    HW192548   8.548   3.060   1.901  0.5831 -0.7033  2.3310
62195SOL    HW292549   8.551   2.939   1.809  3.3464  1.4283 -0.6259
62196SOL     OW92550   1.428  10.141   7.340  0.4411 -1.0091  0.1347
62196SOL    HW192551   1.335  10.162   7.353  0.3665 -0.6404 -0.9008
62196SOL    HW292552   1.452  10.092   7.418 -0.1867  0.3572  1.2351
62197SOL     OW92553   0.910  12.072   6.172 -0.7036  0.0999 -0.4605
62197SOL    HW192554   0.995  12.065   6.217 -0.8087 -0.7356 -0.3721
62197SOL    HW292555   0.908  12.161   6.138 -0.5933  0.7703  1.1615
62198SOL     OW92556   4.717   5.238  11.989 -0.2709 -0.4064  0.0892
62198SOL    HW192557   4.746   5.305  11.927 -2.0719 -0.0271 -0.3919
62198SOL    HW292558   4.632   5.209  11.956  0.8331 -3.6364 -0.2446
62199SOL     OW92559   3.283  10.063  10.738  0.1603 -0.0013  0.4426
62199SOL    HW192560   3.310  10.103  10.820 -0.3480 -0.1644  0.6875
62199SOL    HW292561   3.366  10.038  10.696  0.6915  3.4152 -0.8308
62200SOL     OW92562  12.198   6.470  11.457 -0.3291  0.3342  0.3961
62200SOL    HW192563  12.175   6.409  11.387 -0.1405  0.6011  0.1014
62200SOL    HW292564  12.132   6.456  11.524  0.5073 -1.2020  0.9444
62201SOL     OW92565   3.442   2.295   7.014  0.3702  0.8614 -0.3497
62201SOL    HW192566   3.422   2.334   7.099  0.1485  0.0325 -0.0147
62201SOL    HW292567   3.374   2.329   6.955  0.3436  1.1947 -0.1244
62202SOL     OW92568  12.320   4.466  11.657  0.0583 -0.0265  0.0141
62202SOL    HW192569  12.312   4.530  11.586 -0.9501 -0.3036 -0.1383
62202SOL    HW292570  12.388   4.503  11.714  0.6990  0.3298 -0.9414
62203SOL     OW92571   6.712   7.112   8.659 -0.0996 -0.4157 -0.1627
62203SOL    HW192572   6.803   7.121   8.687  0.0658 -0.9056 -0.5528
62203SOL    HW292573   6.681   7.203   8.650 -0.2725 -0.1949  1.9428
62204SOL     OW92574   6.962   1.036   3.343  0.4295 -0.1785 -0.2470
62204SOL    HW192575   7.037   1.069   3.393 -1.0002  0.7235  1.4048
62204SOL    HW292576   6.908   1.113   3.326 -0.3340 -0.8653 -1.0706
62205SOL     OW92577   4.570   2.849  11.993  0.7892  0.3503 -0.8228
62205SOL    HW192578   4.541   2.769  12.037  0.2145  1.3985  0.7858
62205SOL    HW292579   4.665   2.841  11.990  0.6838 -0.8975 -1.7295
62206SOL     OW92580   2.887   6.141   9.128  0.1195 -0.1543  0.6478
62206SOL    HW192581   2.846   6.215   9.173  1.3660  0.6663  0.4699
62206SOL    HW292582   2.943   6.100   9.194  0.1714 -0.3568  0.4785
62207SOL     OW92583  11.674   3.730   9.122  0.3562  0.1710  0.4886
62207SOL    HW192584  11.752   3.676   9.112  0.5490  0.3741  0.8721
62207SOL    HW292585  11.697   3.814   9.084 -0.2629 -0.2929 -0.9780
62208SOL     OW92586   8.294   8.395   7.411 -0.6434  0.4805 -0.1414
62208SOL    HW192587   8.328   8.370   7.497 -0.6387  0.7273 -0.0699
62208SOL    HW292588   8.293   8.491   7.413 -1.5874  0.4756 -0.0545
62209SOL     OW92589  10.891   2.479   2.865  1.2018 -0.5997 -0.4633
62209SOL    HW192590  10.853   2.425   2.796  0.5474 -0.8239  0.0587
62209SOL    HW292591  10.984   2.458   2.865  1.1310 -0.9075 -0.9957
62210SOL     OW92592  10.632  12.265   1.845  0.3055  0.2909 -0.0838
62210SOL    HW192593  10.672  12.321   1.912  0.3310  1.3251 -0.9490
62210SOL    HW292594  10.539  12.262   1.870  0.3038  0.7142 -0.0368
62211SOL     OW92595   0.861  11.762   4.627  0.5225  0.1484  0.5563
62211SOL    HW192596   0.771  11.730   4.629  1.0164 -1.3159  0.5896
62211SOL    HW292597   0.883  11.766   4.534  0.4554  0.4481  0.5507
62212SOL     OW92598  12.480   0.520   9.923  0.0365  0.0666 -0.2210
62212SOL    HW192599  12.445   0.434   9.902 -0.2490  0.6546 -2.3854
62212SOL    HW292600  12.462   0.531  10.016 -0.7738 -1.8004 -0.1087
62213SOL     OW92601   0.552   7.238   4.940 -0.2305 -0.3611  0.6640
62213SOL    HW192602   0.596   7.319   4.966 -0.0733 -0.3561  0.3863
62213SOL    HW292603   0.599   7.209   4.861 -0.3977 -0.6282  0.6601
62214SOL     OW92604   5.841   1.497   1.470 -0.0932  0.3243 -0.1824
62214SOL    HW192605   5.936   1.481   1.474  0.0105  0.8058 -0.5783
62214SOL    HW292606   5.811   1.443   1.396 -0.0383  0.5854 -0.3958
62215SOL     OW92607   8.726  12.133   7.442 -0.3052  0.3848 -0.4642
62215SOL    HW192608   8.723  12.214   7.392 -1.1858  0.3421 -0.4913
62215SOL    HW292609   8.807  12.090   7.413 -0.1378  0.9727 -0.8793
62216SOL     OW92610   1.946   5.966   4.574  0.3792 -0.2096 -0.1729
62216SOL    HW192611   1.922   5.943   4.664  0.2676  0.7009  0.0463
62216SOL    HW292612   1.996   5.891   4.542 -2.1232 -1.9113 -0.4038
62217SOL     OW92613  11.419   2.011   4.374  0.1340  0.2475  0.0876
62217SOL    HW192614  11.499   2.031   4.324  0.9351  1.3019  1.7022
62217SOL    HW292615  11.440   1.932   4.423 -0.6167 -0.7305 -1.1257
62218SOL     OW92616   0.114   5.884   0.631 -0.1599 -0.3878 -0.1773
62218SOL    HW192617   0.174   5.951   0.599 -0.7389  1.5403  2.3736
62218SOL    HW292618   0.167   5.831   0.690 -0.2620 -0.5925 -0.2706
62219SOL     OW92619   3.817   4.248   2.446  0.2611 -0.1940  0.8831
62219SOL    HW192620   3.818   4.315   2.514 -0.1984 -0.9779  1.6888
62219SOL    HW292621   3.833   4.166   2.493  0.5882 -0.6770 -0.0492
62220SOL     OW92622   0.417   5.914   3.570  0.0038  0.0324  0.5401
62220SOL    HW192623   0.331   5.874   3.584 -0.1160  0.0362 -0.1513
62220SOL    HW292624   0.402   5.981   3.503  0.5848 -0.1365  0.2306
62221SOL     OW92625   1.855   5.112   9.439 -0.3476 -0.2132  0.6278
62221SOL    HW192626   1.760   5.097   9.435 -0.5532  0.7483  1.4304
62221SOL    HW292627   1.868   5.197   9.398  0.1070 -0.1351  0.9214
62222SOL     OW92628   8.200   2.388   9.228 -0.2146  0.3066  0.8948
62222SOL    HW192629   8.256   2.414   9.155  0.1429  0.9532  1.3891
62222SOL    HW292630   8.247   2.316   9.270  1.0841  1.8633  2.2666
62223SOL     OW92631   5.168   4.293   1.891  0.0272 -0.0806  0.2557
62223SOL    HW192632   5.226   4.369   1.887 -0.7636  0.4650 -1.5613
62223SOL    HW292633   5.088   4.320   1.847 -0.8950 -1.4659  0.9748
62224SOL     OW92634   1.574  10.066   2.449 -0.2332 -0.1334 -0.3718
62224SOL    HW192635   1.502  10.008   2.477  0.0464 -0.0073  0.6383
62224SOL    HW292636   1.653  10.018   2.472  0.0160  1.1328  1.5773
62225SOL     OW92637   4.335   6.791   3.265 -0.0054  0.1030  0.1427
62225SOL    HW192638   4.281   6.734   3.211  1.2678 -0.7783 -0.2476
62225SOL    HW292639   4.378   6.850   3.203 -0.4889  0.7856  0.4449
62226SOL     OW92640   2.689   1.990   6.076 -0.2542  0.2471  0.2466
62226SOL    HW192641   2.730   1.943   6.004  0.6710  0.3267  0.6985
62226SOL    HW292642   2.702   1.932   6.152  0.0665  0.7922  0.6199
62227SOL     OW92643   5.270   0.345   6.197 -0.4274  0.0639 -0.0384
62227SOL    HW192644   5.313   0.292   6.129  1.5359  0.0881  1.1160
62227SOL    HW292645   5.312   0.430   6.192  0.2100 -0.1151  1.5797
62228SOL     OW92646   8.358   4.468   9.887  0.1439 -0.2770 -0.0373
62228SOL    HW192647   8.386   4.418   9.810  0.6065 -0.1291  0.0334
62228SOL    HW292648   8.337   4.402   9.953 -0.1278 -0.4010 -0.2463
62229SOL     OW92649   2.616  11.660  10.671 -0.6537  0.3164 -0.2940
62229SOL    HW192650   2.652  11.573  10.656 -0.1745  0.5763 -0.6831
62229SOL    HW292651   2.589  11.660  10.763  0.7167  0.2422  0.1295
62230SOL     OW92652  10.703   5.161   8.960  0.2863  0.1631  0.0437
62230SOL    HW192653  10.711   5.229   8.893 -0.9159  1.0440  0.7610
62230SOL    HW292654  10.634   5.193   9.019 -1.1471 -2.2090 -0.2290
62231SOL     OW92655  11.273  10.752   9.348 -0.3479 -0.0097  0.0796
62231SOL    HW192656  11.344  10.709   9.301 -0.4762  0.4460 -0.5366
62231SOL    HW292657  11.254  10.831   9.297 -1.3188 -0.1422  0.2133
62232SOL     OW92658   2.734  11.594   9.618  0.2593 -0.0348  0.0923
62232SOL    HW192659   2.677  11.534   9.570  0.6121  0.5159 -1.0430
62232SOL    HW292660   2.674  11.656   9.660 -0.0466 -0.4231  0.2369
62233SOL     OW92661   7.876   9.738  11.369  0.3867  0.2070  0.3218
62233SOL    HW192662   7.793   9.698  11.395  0.1907  0.1463 -0.3621
62233SOL    HW292663   7.907   9.783  11.447  0.0543 -0.3508  0.7859
62234SOL     OW92664  11.675   1.117   5.696  0.4030 -0.1021 -0.2014
62234SOL    HW192665  11.722   1.153   5.620 -0.4341  1.0216 -0.2173
62234SOL    HW292666  11.597   1.172   5.703 -0.0173 -0.8247  0.8877
62235SOL     OW92667   2.931   2.930   6.268 -0.0506 -0.1309  0.0888
62235SOL    HW192668   2.892   3.017   6.270 -1.1743 -0.4626 -2.7678
62235SOL    HW292669   2.860   2.871   6.294  0.0445 -0.3457 -0.1309
62236SOL     OW92670   0.635   1.220  10.502  0.2592  0.1558 -0.3848
62236SOL    HW192671   0.658   1.308  10.472 -0.0100  0.0782 -0.8218
62236SOL    HW292672   0.690   1.162  10.450  0.5551  0.0684  0.0172
62237SOL     OW92673   2.991  10.624   2.095  0.2893  0.0838 -0.1421
62237SOL    HW192674   3.057  10.585   2.036  0.5886 -0.0866  0.3022
62237SOL    HW292675   2.976  10.557   2.161 -1.6733 -0.6156 -1.2215
62238SOL     OW92676   7.403  11.471   3.698  0.1798 -0.0646  0.1032
62238SOL    HW192677   7.440  11.466   3.786  1.5676  1.1621 -0.3821
62238SOL    HW292678   7.374  11.381   3.680  0.6726 -0.5246  1.4610
62239SOL     OW92679  11.409   9.811   6.990 -0.0197 -0.1600 -0.2338
62239SOL    HW192680  11.453   9.744   6.937  0.8371 -2.2637  2.8434
62239SOL    HW292681  11.318   9.783   6.995 -0.0908  0.0154 -0.5442
62240SOL     OW92682   9.736  11.861  12.151 -0.3066  0.0911  0.2451
62240SOL    HW192683   9.777  11.832  12.232 -0.1607 -0.8323 -0.1462
62240SOL    HW292684   9.779  11.944  12.130  0.2804 -0.1087  0.6424
62241SOL     OW92685  10.045   3.128   5.386  0.1366 -0.7251 -0.3476
62241SOL    HW192686   9.978   3.189   5.356  0.7575  0.0119 -0.2806
62241SOL    HW292687  10.128   3.167   5.356  1.0702  1.2329  3.9842
62242SOL     OW92688   8.215   6.432  10.259 -0.2292  0.3365 -0.3631
62242SOL    HW192689   8.201   6.522  10.229 -2.2974  0.0714 -0.3371
62242SOL    HW292690   8.304   6.432  10.294 -0.4279  2.5669  0.3010
62243SOL     OW92691   1.181   2.179   9.162  0.2528  0.3018  0.6820
62243SOL    HW192692   1.125   2.161   9.238  0.1308 -0.4434  0.4231
62243SOL    HW292693   1.269   2.189   9.198 -0.0028  1.2507  1.0667
62244SOL     OW92694   9.043   5.873  10.128 -0.3953 -0.0120 -0.2460
62244SOL    HW192695   8.966   5.843  10.080  0.2615  0.3702 -1.5786
62244SOL    HW292696   9.041   5.969  10.120 -0.9038  0.1773  1.5227
62245SOL     OW92697   4.315   4.614   0.186 -0.1222  0.6105 -0.2187
62245SOL    HW192698   4.369   4.693   0.189  1.6433 -0.4836 -1.5805
62245SOL    HW292699   4.252   4.631   0.115  0.6452  0.5833 -0.9188
62246SOL     OW92700  10.064   4.751   8.440 -0.3041  0.0590 -0.3291
62246SOL    HW192701  10.070   4.657   8.456  0.3331  0.0873 -0.3473
62246SOL    HW292702   9.973   4.773   8.458 -0.9455 -0.8994 -2.1540
62247SOL     OW92703   0.512   2.046  11.127 -0.0555  0.2340  0.2368
62247SOL    HW192704   0.471   1.978  11.073  0.3555 -0.0213  0.2385
62247SOL    HW292705   0.476   2.031  11.215 -2.1411  1.7941 -0.2756
62248SOL     OW92706   4.918   5.142   5.850 -0.7267 -0.3589  0.3292
62248SOL    HW192707   4.831   5.182   5.844  0.2981  1.8943 -0.9443
62248SOL    HW292708   4.901   5.048   5.853 -3.1871 -0.0213 -0.3984
62249SOL     OW92709  11.391   7.258  10.886  0.1689 -0.2028 -0.0389
62249SOL    HW192710  11.407   7.165  10.871  1.3753 -0.3418  1.7947
62249SOL    HW292711  11.401   7.298  10.800  2.7832 -1.3805 -0.3733
62250SOL     OW92712   2.024   0.772  12.487 -0.3393  0.2574  0.0611
62250SOL    HW192713   1.948   0.797  12.434 -2.5027 -1.5340  2.0731
62250SOL    HW292714   1.997   0.790  12.577  1.7487 -0.2349  0.8394
62251SOL     OW92715   0.776   4.895  11.597 -0.0235 -0.3325 -0.4204
62251SOL    HW192716   0.820   4.816  11.630 -1.4026 -0.4159  1.4053
62251SOL    HW292717   0.688   4.890  11.634  0.5236  3.2770  1.9651
62252SOL     OW92718   6.126  10.169   1.160  0.3561 -0.3171  0.2458
62252SOL    HW192719   6.207  10.201   1.200 -0.2175  1.2005  0.2691
62252SOL    HW292720   6.154  10.128   1.079  1.2949 -1.2830  1.0353
62253SOL     OW92721   4.305   9.830  10.366  0.3010  0.5791  0.2275
62253SOL    HW192722   4.283   9.817  10.458 -0.9533 -2.1043 -0.3501
62253SOL    HW292723   4.393   9.795  10.357  0.5076  1.0408  0.4379
62254SOL     OW92724   6.889   4.965  11.752  0.0483  0.0029  0.0619
62254SOL    HW192725   6.935   4.976  11.669 -1.2360 -1.7596 -0.9802
62254SOL    HW292726   6.956   4.935  11.814  0.7778 -0.0014 -0.7213
62255SOL     OW92727   5.954   0.554   7.008 -0.2661 -0.4484  0.4484
62255SOL    HW192728   6.002   0.474   7.027  1.5342  0.8472  1.6509
62255SOL    HW292729   5.949   0.556   6.912  0.2013 -1.6682  0.3771
62256SOL     OW92730  11.588   6.848   9.118 -0.1383 -0.3943  0.1787
62256SOL    HW192731  11.519   6.841   9.185 -0.8644  1.4538 -0.3093
62256SOL    HW292732  11.542   6.877   9.040  0.8976 -1.3490 -0.8146
62257SOL     OW92733   3.927  10.527  10.075 -0.1779 -0.1477  0.1069
62257SOL    HW192734   3.964  10.510  10.161 -0.6517  0.7729  0.4963
62257SOL    HW292735   3.897  10.441  10.045  1.4679 -0.7746  0.1367
62258SOL     OW92736   1.993   5.755  10.649 -0.7179  0.0181 -0.3165
62258SOL    HW192737   1.929   5.745  10.719  0.0107 -2.2909  0.1096
62258SOL    HW292738   2.069   5.705  10.678  0.2994  0.5186 -1.9542
62259SOL     OW92739   3.897   7.370  10.061 -0.2806 -0.2895 -0.3372
62259SOL    HW192740   3.862   7.333  10.142 -0.8336  1.7856  0.4353
62259SOL    HW292741   3.855   7.320   9.991 -0.5651 -1.4566  0.6388
62260SOL     OW92742   1.649   0.195   4.863 -0.0684 -0.0551 -0.0931
62260SOL    HW192743   1.721   0.141   4.829 -0.0775 -1.7443  2.3262
62260SOL    HW292744   1.621   0.151   4.943 -1.0916  2.7808  1.2674
62261SOL     OW92745   3.432   3.805   9.714  0.7199  0.9232 -0.2134
62261SOL    HW192746   3.445   3.857   9.635  0.7928  0.6467 -0.3855
62261SOL    HW292747   3.489   3.729   9.703 -0.3466  0.1502 -0.5590
62262SOL     OW92748   7.685  11.054   4.657  0.0827  0.3421  0.1748
62262SOL    HW192749   7.616  11.114   4.686  0.5501  1.0457 -0.1401
62262SOL    HW292750   7.732  11.031   4.737  0.0399  0.5729  0.2660
62263SOL     OW92751   1.626   4.393   2.901  0.0350 -0.7995 -0.6396
62263SOL    HW192752   1.665   4.336   2.835 -1.4264  0.2636 -2.5293
62263SOL    HW292753   1.577   4.458   2.851 -1.0920  0.1244  1.5146
62264SOL     OW92754   6.864   6.411   5.184  0.0512  0.5602  0.2013
62264SOL    HW192755   6.792   6.351   5.203  0.6151  0.3453  1.8333
62264SOL    HW292756   6.821   6.494   5.162 -0.7077 -0.1154 -1.0059
62265SOL     OW92757  11.480   3.579   8.852  0.1277  0.1209 -0.1395
62265SOL    HW192758  11.404   3.535   8.892 -0.3822 -1.0295 -2.2327
62265SOL    HW292759  11.556   3.531   8.886 -0.2558 -0.4411 -0.0509
62266SOL     OW92760   4.486   0.264   6.275 -0.1724  1.1507 -0.0392
62266SOL    HW192761   4.524   0.312   6.201  0.2318 -2.2108 -2.2174
62266SOL    HW292762   4.560   0.217   6.313 -0.9218  0.3811  0.4904
62267SOL     OW92763   8.483   2.619   6.539  0.3643 -0.3912 -0.4869
62267SOL    HW192764   8.563   2.613   6.486  2.0121 -2.9934  1.9870
62267SOL    HW292765   8.513   2.653   6.623 -1.1641 -1.2112  0.4263
62268SOL     OW92766  10.359   1.056   8.429 -0.1375 -0.3189 -0.5770
62268SOL    HW192767  10.430   1.027   8.371  0.1858  0.1549 -0.4279
62268SOL    HW292768  10.279   1.030   8.384  0.1325 -1.1865 -0.5761
62269SOL     OW92769   2.627   1.279  11.208 -0.5139 -0.3274 -0.2806
62269SOL    HW192770   2.566   1.316  11.144 -0.7180 -0.3488 -0.1017
62269SOL    HW292771   2.578   1.207  11.248 -0.6870  0.1871  0.4569
62270SOL     OW92772  11.647   1.566   0.311  0.2968  0.1183  0.3973
62270SOL    HW192773  11.667   1.659   0.297 -0.7909  0.1728 -1.0203
62270SOL    HW292774  11.733   1.524   0.318  0.8369  1.0122 -0.5425
62271SOL     OW92775  10.488   2.008   9.381 -0.7192  0.3216 -0.2268
62271SOL    HW192776  10.493   2.046   9.468 -1.7600 -1.0598  0.4740
62271SOL    HW292777  10.417   1.943   9.387 -1.3531  0.7579 -2.3064
62272SOL     OW92778  10.568   5.126   4.502 -0.0613  0.6336 -0.1880
62272SOL    HW192779  10.535   5.104   4.589 -2.3340  2.0861 -0.5854
62272SOL    HW292780  10.599   5.216   4.510 -2.2444  1.5705 -1.2576
62273SOL     OW92781   8.935   3.813   0.815 -0.1695  0.3978 -0.0596
62273SOL    HW192782   8.966   3.873   0.747  0.6379 -0.6883 -0.7037
62273SOL    HW292783   8.949   3.859   0.897  1.7144  0.5867 -0.4485
62274SOL     OW92784   1.567   3.744   7.163 -0.2503 -0.0549  0.2159
62274SOL    HW192785   1.482   3.724   7.204 -1.5968  1.1049 -1.8156
62274SOL    HW292786   1.569   3.689   7.084  0.6618  0.3025 -0.0249
62275SOL     OW92787   8.087   5.202   3.753  0.4696  0.0028 -0.2344
62275SOL    HW192788   8.001   5.221   3.716  0.1596 -0.4795  0.2120
62275SOL    HW292789   8.142   5.181   3.677  0.7774  2.3467 -0.7299
62276SOL     OW92790  11.517   8.552   3.308 -0.3112  0.0845  0.1862
62276SOL    HW192791  11.534   8.603   3.229 -0.3296 -0.3463 -0.1043
62276SOL    HW292792  11.531   8.613   3.380 -2.7466  1.2119 -0.1970
62277SOL     OW92793  11.754   7.701   7.177 -0.6763 -0.1247 -0.6004
62277SOL    HW192794  11.760   7.791   7.208  0.5011 -0.3096 -0.2098
62277SOL    HW292795  11.662   7.678   7.186 -0.9606  0.9786 -0.5450
62278SOL     OW92796   9.760   5.362  11.195  0.1450 -0.2913  0.0644
62278SOL    HW192797   9.708   5.347  11.274  1.6188 -1.0884  0.9277
62278SOL    HW292798   9.812   5.282  11.186  0.7246  0.2043 -1.1599
62279SOL     OW92799   5.485   7.805   4.526  0.2047 -0.4625  0.2224
62279SOL    HW192800   5.497   7.813   4.620  1.1573  0.1909  0.0557
62279SOL    HW292801   5.567   7.768   4.494  0.7395  1.3019 -0.5965
62280SOL     OW92802   8.653   4.329   2.387 -0.0108  1.2971  0.4200
62280SOL    HW192803   8.612   4.308   2.303 -1.0013 -1.7831  1.5535
62280SOL    HW292804   8.745   4.303   2.376  0.0307  1.5585  0.1117
62281SOL     OW92805   4.959   9.922   1.331  0.0935 -0.0811  0.0533
62281SOL    HW192806   4.951   9.853   1.397 -0.3352 -0.1601 -0.0798
62281SOL    HW292807   5.053   9.940   1.327  0.3024 -1.2079 -0.4761
62282SOL     OW92808  11.561   2.980  11.916 -0.2253  0.3448  0.5683
62282SOL    HW192809  11.585   3.071  11.932  0.7963 -0.0053  1.1510
62282SOL    HW292810  11.543   2.945  12.003  0.4940 -0.2921  0.4731
62283SOL     OW92811   4.061   6.330   1.611 -0.4113 -0.4816 -0.0225
62283SOL    HW192812   3.974   6.327   1.572 -0.4159 -0.6566  0.0008
62283SOL    HW292813   4.121   6.322   1.538 -0.4196 -0.7867  0.0020
62284SOL     OW92814   9.262   4.686   1.246 -0.5037  0.9711 -0.1308
62284SOL    HW192815   9.246   4.596   1.273  0.6479  0.9786  0.6728
62284SOL    HW292816   9.233   4.689   1.155 -1.7404  0.1455  0.2075
62285SOL     OW92817   6.602  11.471  12.320  0.3311  0.8949  0.0588
62285SOL    HW192818   6.671  11.538  12.325  1.1635 -0.0045  1.0170
62285SOL    HW292819   6.526  11.518  12.285  0.5767  2.6056  1.6571
62286SOL     OW92820   5.716   0.319   6.607 -0.1080 -0.4613 -0.3217
62286SOL    HW192821   5.674   0.340   6.690  0.3540  1.1834 -0.4588
62286SOL    HW292822   5.671   0.374   6.543  1.4489  0.4988 -0.6453
62287SOL     OW92823   1.114   0.093   8.490 -0.1383 -0.3851  0.1566
62287SOL    HW192824   1.058   0.080   8.566  0.2345  2.5951  1.0743
62287SOL    HW292825   1.085   0.177   8.453  0.3558 -1.2460 -2.4256
62288SOL     OW92826   0.500   9.417   7.476 -0.1373 -0.3798  0.1803
62288SOL    HW192827   0.569   9.352   7.463 -0.9724 -1.1107 -0.8442
62288SOL    HW292828   0.531   9.471   7.548  1.2713 -0.9850  0.0640
62289SOL     OW92829   8.304   6.951   6.508 -0.0413 -0.1603  0.5736
62289SOL    HW192830   8.358   6.919   6.436 -1.3553  0.6468 -0.8498
62289SOL    HW292831   8.340   7.037   6.530 -1.5999  1.1180 -1.4862
62290SOL     OW92832   1.404  10.936  11.757  0.4669 -0.1772 -0.0811
62290SOL    HW192833   1.365  10.930  11.669  0.9208 -1.6825 -0.2060
62290SOL    HW292834   1.329  10.940  11.816  0.1205 -0.8320 -0.4588
62291SOL     OW92835   8.346   5.839   7.984 -0.0827 -0.3680 -0.1558
62291SOL    HW192836   8.434   5.871   7.962 -0.4779 -0.8466 -2.7137
62291SOL    HW292837   8.357   5.744   7.993 -0.3161 -0.4168 -0.3802
62292SOL     OW92838  11.216   3.864   6.896 -0.2627  0.6580 -0.2007
62292SOL    HW192839  11.287   3.893   6.952  1.2987 -0.2178 -1.6456
62292SOL    HW292840  11.191   3.778   6.931 -0.0217  0.5850 -0.2088
62293SOL     OW92841  10.585   7.198   8.855 -0.1451  0.3666 -0.4377
62293SOL    HW192842  10.674   7.163   8.842 -0.6770 -1.2595  0.0749
62293SOL    HW292843  10.540   7.131   8.906 -1.5191  1.4231 -0.2001
62294SOL     OW92844   1.867   9.266  12.320 -0.0116  0.3576 -0.1091
62294SOL    HW192845   1.838   9.199  12.257  1.4043 -0.0754 -0.3475
62294SOL    HW292846   1.793   9.326  12.327 -0.5872 -0.1528 -1.4093
62295SOL     OW92847   6.659   5.020   6.189 -0.6530  0.8285  0.4711
62295SOL    HW192848   6.584   4.991   6.241  0.8193 -1.4936  1.4454
62295SOL    HW292849   6.649   4.974   6.105  2.1815 -3.8988  2.3327
62296SOL     OW92850   3.158   5.226   8.654 -0.2497  0.0914 -0.2436
62296SOL    HW192851   3.155   5.169   8.731 -0.0944  0.2017 -0.1558
62296SOL    HW292852   3.140   5.313   8.688  2.0081  0.5073  0.0240
62297SOL     OW92853   5.300  10.207   9.305  0.5599  0.5452 -1.1051
62297SOL    HW192854   5.369  10.212   9.372  0.0773  0.4094 -0.5923
62297SOL    HW292855   5.256  10.124   9.323  0.3247  0.5845 -1.4936
62298SOL     OW92856  10.906   0.119   4.459 -0.0643  0.0199  0.5085
62298SOL    HW192857  10.868   0.050   4.404 -1.1739  0.1205  1.1102
62298SOL    HW292858  10.991   0.085   4.486  0.0084 -0.5077 -0.3415
62299SOL     OW92859  12.484   5.936   9.465  0.3100 -0.1722  0.2815
62299SOL    HW192860  12.412   5.926   9.403  1.1702  0.1734 -0.8042
62299SOL    HW292861  12.494   6.031   9.474 -1.1388 -0.1676  2.5828
62300SOL     OW92862   2.687   9.930   5.064  0.3973 -0.1063  0.1230
62300SOL    HW192863   2.734   9.955   5.144  0.5273 -1.9310  0.6559
62300SOL    HW292864   2.595   9.948   5.084  0.4096 -0.7196  0.7625
62301SOL     OW92865   4.171   3.832   3.667 -0.2104 -0.1662 -0.3686
62301SOL    HW192866   4.246   3.877   3.630 -0.2685 -0.8329 -1.3266
62301SOL    HW292867   4.129   3.789   3.593 -1.0624 -0.4884  0.2779
62302SOL     OW92868   7.317  11.240   4.508  0.7524 -0.2611  0.1334
62302SOL    HW192869   7.263  11.215   4.433  3.4428  0.0648 -2.1040
62302SOL    HW292870   7.274  11.318   4.543 -0.9530 -0.8057 -0.6073
62303SOL     OW92871   9.191   7.750   0.265  0.1747  0.5215  0.0685
62303SOL    HW192872   9.267   7.716   0.217  1.3358 -0.0734  2.1770
62303SOL    HW292873   9.146   7.672   0.296 -0.5657  0.8914 -0.0560
62304SOL     OW92874   4.509   4.934  11.740 -0.0859 -0.4471 -0.1616
62304SOL    HW192875   4.466   4.969  11.818 -1.6063 -0.6097 -0.8768
62304SOL    HW292876   4.602   4.937  11.760 -0.4017  0.2161  1.3570
62305SOL     OW92877  10.336   4.848   7.436  0.5752 -0.3338 -0.3950
62305SOL    HW192878  10.376   4.856   7.522 -1.8184  0.9985  0.7073
62305SOL    HW292879  10.355   4.758   7.408  1.3473 -0.8132  1.5430
62306SOL     OW92880   0.077  10.584   1.857  0.2978  0.4616 -0.6556
62306SOL    HW192881   0.062  10.594   1.951 -1.6755  0.5142 -0.9447
62306SOL    HW292882   0.164  10.621   1.843  0.6243  0.4708  1.1372
62307SOL     OW92883   7.059  12.257   9.074 -0.4189  0.3325 -0.4533
62307SOL    HW192884   7.027  12.212   9.152  0.7930  0.1252 -0.0524
62307SOL    HW292885   7.134  12.206   9.046  0.1750  1.3478 -0.7705
62308SOL     OW92886   6.565   5.609  12.079  0.2164  0.3724  0.2732
62308SOL    HW192887   6.493   5.672  12.074 -1.2542 -1.3163 -0.7031
62308SOL    HW292888   6.541   5.539  12.019  2.4286 -0.5340  0.3349
62309SOL     OW92889   6.243  11.454   3.100 -0.6369 -0.3506 -0.0759
62309SOL    HW192890   6.192  11.391   3.050 -0.3760 -1.8796  1.4595
62309SOL    HW292891   6.184  11.484   3.169 -0.1637 -0.4150  0.3682
62310SOL     OW92892   8.593  11.191   2.906  0.8117  0.2002  0.2870
62310SOL    HW192893   8.662  11.256   2.916  0.2751  0.8079  0.1335
62310SOL    HW292894   8.519  11.240   2.871  0.8256 -0.7395 -1.1946
62311SOL     OW92895   9.125  12.408   1.841  0.1599 -0.9631 -0.1149
62311SOL    HW192896   9.157  12.436   1.755  0.6128 -1.4959 -0.1222
62311SOL    HW292897   9.030  12.419   1.835  0.2255 -0.5443 -0.5174
62312SOL     OW92898   9.543   0.890   7.850 -0.4577 -0.0484 -0.3464
62312SOL    HW192899   9.551   0.903   7.944  0.6454  1.8031 -0.6534
62312SOL    HW292900   9.543   0.978   7.813 -1.5755 -0.7043 -2.0458
62313SOL     OW92901   6.278   0.859   1.614 -0.0853  0.1484 -0.0803
62313SOL    HW192902   6.224   0.783   1.590 -0.7892  0.9126 -1.0031
62313SOL    HW292903   6.367   0.825   1.619 -0.4279 -0.7938 -0.2355
62314SOL     OW92904   0.687   4.930  10.890  0.1996  0.2679 -0.2375
62314SOL    HW192905   0.714   5.018  10.919 -0.0689  0.5789 -0.9072
62314SOL    HW292906   0.767   4.877  10.896  0.6936  0.8919 -1.0925
62315SOL     OW92907  12.047   4.037   5.988 -0.7444  0.6767 -0.4075
62315SOL    HW192908  12.055   4.005   5.898  0.0992 -0.4314  0.0326
62315SOL    HW292909  12.020   3.960   6.038  0.7459  0.7621  0.5881
62316SOL     OW92910   5.159  12.028   1.175 -0.0667  0.3958 -0.1280
62316SOL    HW192911   5.241  12.001   1.134 -1.1764 -0.5446 -1.9138
62316SOL    HW292912   5.176  12.024   1.269  1.9979  0.5202 -0.4574
62317SOL     OW92913   8.551   5.164  12.442 -0.1374 -0.0645  0.7462
62317SOL    HW192914   8.580   5.099  12.378 -0.3352 -1.4449  1.9993
62317SOL    HW292915   8.597   5.140  12.522  0.9757  2.3056  0.8861
62318SOL     OW92916   8.469   0.378   1.435 -0.5141  0.1365  0.2254
62318SOL    HW192917   8.549   0.348   1.394 -0.7407  0.0056 -0.1248
62318SOL    HW292918   8.410   0.303   1.431 -0.9024  0.4560 -0.1804
62319SOL     OW92919   1.037   1.347   9.024 -0.1869 -0.0773 -0.2710
62319SOL    HW192920   0.978   1.380   9.091 -0.8595  0.6702 -1.2085
62319SOL    HW292921   0.992   1.272   8.985 -0.4662  0.4037 -0.8879
62320SOL     OW92922   1.840   7.194   3.142  0.5369 -0.3327 -0.0249
62320SOL    HW192923   1.903   7.266   3.150 -1.6033  1.4891  2.2078
62320SOL    HW292924   1.755   7.237   3.145 -0.8457 -2.8313 -1.0471
62321SOL     OW92925   5.405  11.522   9.131 -0.0818 -0.1690  0.6101
62321SOL    HW192926   5.480  11.564   9.088 -1.3714 -0.0200 -1.6560
62321SOL    HW292927   5.364  11.593   9.182  0.5290  0.0701  0.7784
62322SOL     OW92928   3.149   4.186   4.194 -0.9469 -0.1851  0.1147
62322SOL    HW192929   3.235   4.221   4.216 -1.4337  1.0107  0.1632
62322SOL    HW292930   3.167   4.116   4.131  0.0002  0.6626 -0.5709
62323SOL     OW92931   2.482   8.921  11.485 -0.4208  0.1153 -0.0970
62323SOL    HW192932   2.465   8.991  11.549  1.1514 -0.2524  0.7799
62323SOL    HW292933   2.555   8.955  11.433  1.7031 -1.5461  1.5822
62324SOL     OW92934   9.029   3.774   4.191 -0.0391  0.2490  0.1074
62324SOL    HW192935   9.117   3.756   4.224  0.0044  1.1828  0.5312
62324SOL    HW292936   8.998   3.846   4.245  0.1087  2.0218 -2.0478
62325SOL     OW92937   1.528   2.173  11.489 -0.1170  0.1338  0.1726
62325SOL    HW192938   1.456   2.182  11.427  1.4586  1.0854 -1.6093
62325SOL    HW292939   1.519   2.249  11.548  0.6995  1.5414 -1.4521
62326SOL     OW92940  12.467   9.891   0.457  0.4156 -0.0686  0.3580
62326SOL    HW192941  12.373   9.871   0.460  0.7236 -1.5706  1.7192
62326SOL    HW292942  12.476   9.968   0.513 -0.0751  0.4931 -0.3184
62327SOL     OW92943   4.738   4.230   7.873 -0.6699 -0.0227  0.2899
62327SOL    HW192944   4.672   4.298   7.858  0.0425  0.6670  0.2169
62327SOL    HW292945   4.756   4.195   7.785 -0.0222  0.6743  0.1321
62328SOL     OW92946   9.266   5.871   2.398  0.1644  0.5092  0.2258
62328SOL    HW192947   9.288   5.946   2.453  0.8552 -0.0700  0.7598
62328SOL    HW292948   9.177   5.848   2.423 -0.3395  1.6107 -0.4849
62329SOL     OW92949  12.345   5.863   1.110 -0.2094 -0.0535  0.8050
62329SOL    HW192950  12.434   5.833   1.132  0.1903  1.2530  1.0379
62329SOL    HW292951  12.353   5.901   1.023 -0.6462 -0.3265  0.6416
62330SOL     OW92952   3.915   5.036   9.010  0.3845  0.8013 -0.3362
62330SOL    HW192953   3.909   5.106   9.075  0.3489 -0.8427  1.5636
62330SOL    HW292954   4.002   4.998   9.024  0.5209  0.6577 -1.5290
62331SOL     OW92955   5.817   5.906   2.085  0.0147  0.2152 -0.1207
62331SOL    HW192956   5.854   5.870   2.165  0.3416  1.1096  0.1443
62331SOL    HW292957   5.885   5.963   2.050 -0.4195  0.4490 -0.6074
62332SOL     OW92958   8.996   2.959   1.982  0.5069  0.9453  0.3400
62332SOL    HW192959   8.927   3.012   1.941  0.7750  1.5647  0.6664
62332SOL    HW292960   9.005   2.997   2.070  0.0384 -0.2607  0.9342
62333SOL     OW92961   3.833   0.779   7.197 -0.0187 -0.4346  0.1281
62333SOL    HW192962   3.788   0.758   7.115  0.9282 -1.3617 -0.1726
62333SOL    HW292963   3.771   0.835   7.245 -1.0171 -0.7644 -0.7440
62334SOL     OW92964   0.103   5.986   3.426 -0.1878 -0.0982 -0.5454
62334SOL    HW192965   0.050   5.997   3.347 -1.0013  0.1813  0.0243
62334SOL    HW292966   0.054   5.922   3.478 -0.6436  1.0983  0.5518
62335SOL     OW92967   3.579   9.370   0.986  0.1467 -0.0197  0.8336
62335SOL    HW192968   3.556   9.277   0.980  0.8867 -0.2180  0.9759
62335SOL    HW292969   3.547   9.397   1.072 -3.2037  0.7724 -0.5070
62336SOL     OW92970   7.449   5.731   3.534 -0.3883  0.4652  0.5351
62336SOL    HW192971   7.488   5.644   3.541 -0.6713  0.4249  1.9161
62336SOL    HW292972   7.507   5.779   3.475  0.6326 -0.1888  0.9826
62337SOL     OW92973  11.863   0.599   9.863  0.4197 -0.4793 -0.8651
62337SOL    HW192974  11.880   0.678   9.813  0.3343  0.7543  0.9859
62337SOL    HW292975  11.789   0.621   9.920  3.2171 -0.1919  3.0668
62338SOL     OW92976   3.297   4.876   6.197 -0.1076  0.1875  0.4812
62338SOL    HW192977   3.222   4.860   6.254 -0.0735  1.4359  0.9064
62338SOL    HW292978   3.259   4.918   6.120  0.1793  1.2783  0.9089
62339SOL     OW92979   0.435   7.730   8.875  0.0857  0.8854 -0.4119
62339SOL    HW192980   0.484   7.742   8.794  1.5431  1.8970  0.5692
62339SOL    HW292981   0.432   7.817   8.915 -2.8499  0.9578 -0.5572
62340SOL     OW92982   6.825   8.999  12.069 -0.2854  0.3170 -0.0946
62340SOL    HW192983   6.837   8.995  11.974 -0.6713  1.2035 -0.1903
62340SOL    HW292984   6.799   9.089  12.086 -0.0542  0.2120  0.8791
62341SOL     OW92985   5.384   4.419   8.294 -0.0512 -0.0436 -0.3542
62341SOL    HW192986   5.313   4.425   8.230  0.7987 -0.5852 -1.3678
62341SOL    HW292987   5.361   4.343   8.348  0.2243 -0.8244 -1.3004
62342SOL     OW92988   7.261   7.897  11.515 -0.0322 -0.4525  0.8686
62342SOL    HW192989   7.311   7.955  11.573 -0.5782 -0.1232  1.0152
62342SOL    HW292990   7.170   7.923  11.527 -0.2215 -0.8797  0.4133
62343SOL     OW92991   6.964   4.270   0.409  1.1077 -0.2183  0.6144
62343SOL    HW192992   6.960   4.343   0.347  0.6231 -0.2718  0.5795
62343SOL    HW292993   6.916   4.200   0.367  0.3016 -0.0813  1.2758
62344SOL     OW92994  11.102  12.218   6.538 -0.1556 -0.4098  0.0040
62344SOL    HW192995  11.191  12.241   6.510 -0.5776  0.2062 -0.8791
62344SOL    HW292996  11.115  12.161   6.613  0.9888  0.7698  0.7631
62345SOL     OW92997   2.105   1.368   5.203 -0.5315  0.6700  0.1139
62345SOL    HW192998   2.022   1.410   5.180 -1.5903 -0.7469  1.2144
62345SOL    HW292999   2.105   1.287   5.152  0.3499  0.8022 -0.1134
62346SOL     OW93000   7.395   8.638   4.106  0.1238  0.2211  0.3709
62346SOL    HW193001   7.461   8.645   4.174 -1.2178 -0.0755  1.7481
62346SOL    HW293002   7.335   8.711   4.122 -1.2564 -0.9345  0.7310
62347SOL     OW93003   7.219  12.391   9.719  0.7914  0.2564 -0.0299
62347SOL    HW193004   7.254  12.380   9.808  0.3000  0.3419  0.1777
62347SOL    HW293005   7.260  12.471   9.687 -0.1651  1.0353  0.6781
62348SOL     OW93006   1.264   8.923   2.413  0.3738 -0.0080  0.0864
62348SOL    HW193007   1.321   8.997   2.388  0.4412 -0.4994 -1.2417
62348SOL    HW293008   1.295   8.850   2.361 -1.1196 -0.4399 -0.2374
62349SOL     OW93009   2.691  10.911   3.137  0.2017  0.0064 -0.0998
62349SOL    HW193010   2.640  10.911   3.056 -0.2885  0.7458  0.1930
62349SOL    HW293011   2.679  10.823   3.173 -0.6782  0.0954 -0.1599
62350SOL     OW93012   7.946   4.114   4.994  0.1196  0.2646 -0.0683
62350SOL    HW193013   7.936   4.086   5.085 -0.1258  0.0920 -0.1486
62350SOL    HW293014   7.942   4.210   4.997 -0.9749  0.2213 -0.0283
62351SOL     OW93015  11.289   3.686   4.125  0.2642 -0.1424  0.7547
62351SOL    HW193016  11.212   3.662   4.177  0.7860  1.3500  2.3259
62351SOL    HW293017  11.254   3.701   4.037 -1.0691 -0.4496  1.1936
62352SOL     OW93018   8.820   2.726   5.790 -0.4436  0.5768  0.2214
62352SOL    HW193019   8.796   2.787   5.720  0.1826  0.9486  0.3130
62352SOL    HW293020   8.752   2.736   5.856 -1.3087 -0.1448 -0.5453
62353SOL     OW93021  10.384   6.103   1.605  0.4267  0.5022 -0.1226
62353SOL    HW193022  10.322   6.105   1.678  2.2787 -0.2104  1.5689
62353SOL    HW293023  10.329   6.092   1.528 -1.5242 -0.7639  1.3270
62354SOL     OW93024   8.543   5.887   3.741 -0.4343  0.5062  0.1681
62354SOL    HW193025   8.528   5.792   3.737 -1.4142  0.6567 -0.1081
62354SOL    HW293026   8.456   5.924   3.752 -0.2853  1.4585 -1.4494
62355SOL     OW93027   0.204   7.888   2.214  0.2614 -0.3889  0.1975
62355SOL    HW193028   0.150   7.816   2.183 -0.2477 -0.0574  0.2938
62355SOL    HW293029   0.187   7.959   2.152 -0.8413  0.3132  1.2485
62356SOL     OW93030   5.423  10.045   6.585  0.5502 -0.5921  0.3392
62356SOL    HW193031   5.484   9.991   6.636  2.1226 -0.4224 -1.2752
62356SOL    HW293032   5.338  10.005   6.600  1.3144 -1.9808  1.1968
62357SOL     OW93033   9.954   6.916   7.448  0.0634 -0.1016 -0.1701
62357SOL    HW193034   9.870   6.894   7.488 -0.0158  0.6767  0.1076
62357SOL    HW293035   9.932   6.977   7.377  0.5104  1.5443  1.0269
62358SOL     OW93036  11.136   0.128   4.140 -0.1619  0.1399 -0.5453
62358SOL    HW193037  11.095   0.174   4.213 -1.2891 -0.0890 -1.0198
62358SOL    HW293038  11.229   0.123   4.164  0.1590  3.1668 -0.7444
62359SOL     OW93039  10.913  10.958   5.431  0.1170 -0.1396  0.1731
62359SOL    HW193040  10.969  10.909   5.370 -2.4494 -0.2543 -2.2968
62359SOL    HW293041  10.892  10.896   5.500  0.6394 -1.0192 -0.4434
62360SOL     OW93042  10.817   8.196   7.685 -0.3809 -0.9059 -0.4324
62360SOL    HW193043  10.837   8.290   7.687 -0.6834 -0.8115 -1.2228
62360SOL    HW293044  10.745   8.185   7.746 -1.4237 -0.3303 -1.5028
62361SOL     OW93045   1.205   9.287   3.268 -0.2631  0.1579 -0.1631
62361SOL    HW193046   1.219   9.380   3.285  0.5350 -0.1337  0.9163
62361SOL    HW293047   1.260   9.268   3.192 -1.2798  0.7893 -1.0685
62362SOL     OW93048   4.644   0.700   6.444 -0.3536 -0.1042 -0.3791
62362SOL    HW193049   4.715   0.644   6.476 -0.1180  0.4491  0.0845
62362SOL    HW293050   4.568   0.642   6.439 -0.0286 -0.5474 -0.2432
62363SOL     OW93051   9.565   5.218   6.628  0.3892 -0.0041 -0.4917
62363SOL    HW193052   9.577   5.284   6.560  0.4852 -0.7744 -1.2358
62363SOL    HW293053   9.623   5.246   6.699 -1.0107  1.7723  0.0287
62364SOL     OW93054   0.699   1.591   8.311  0.1583 -0.6059  0.3077
62364SOL    HW193055   0.645   1.668   8.330  0.0982 -0.3334 -0.8926
62364SOL    HW293056   0.736   1.609   8.225  0.6537 -1.6487  0.2918
62365SOL     OW93057   7.032   9.511   3.195 -0.1623 -0.3055  1.1534
62365SOL    HW193058   6.950   9.515   3.146  1.0670  0.3831 -0.9618
62365SOL    HW293059   7.035   9.592   3.245 -0.0744  0.4390 -0.0128
62366SOL     OW93060   2.622   9.910  11.555 -0.2779 -0.2429  0.6727
62366SOL    HW193061   2.600   9.900  11.647 -0.5162  0.1311  0.6584
62366SOL    HW293062   2.560   9.976  11.522 -0.9475 -1.1805 -0.0207
62367SOL     OW93063  11.376   4.393   9.859  0.4393  0.0802 -0.2780
62367SOL    HW193064  11.450   4.425   9.807  1.2927 -0.9396  0.2565
62367SOL    HW293065  11.405   4.406   9.950  0.6559 -1.7920 -0.0501
62368SOL     OW93066   0.573   0.435   3.634  0.1169 -0.2995 -0.7712
62368SOL    HW193067   0.632   0.476   3.571  2.7898  0.3679  1.8731
62368SOL    HW293068   0.530   0.508   3.679 -2.5669 -0.7775 -2.3619
62369SOL     OW93069   5.384   0.960   7.001  0.4263  0.3449  0.3640
62369SOL    HW193070   5.427   1.036   7.043  1.4159 -0.1175  0.2109
62369SOL    HW293071   5.436   0.885   7.030  0.6309 -0.0744 -1.0286
62370SOL     OW93072   5.508   8.184   8.726 -0.1262 -0.6858 -0.1303
62370SOL    HW193073   5.468   8.105   8.690  0.2679 -0.0314 -2.1453
62370SOL    HW293074   5.574   8.209   8.662  1.1817  0.1535  1.4792
62371SOL     OW93075  11.751   4.898  11.565  0.4370  0.0343  0.2125
62371SOL    HW193076  11.752   4.813  11.608  0.8999 -0.1148 -0.0863
62371SOL    HW293077  11.753   4.878  11.472  0.4008  0.3714  0.1382
62372SOL     OW93078  10.543   5.221   5.156  0.1542  0.4927 -0.4883
62372SOL    HW193079  10.582   5.297   5.199  1.3960 -0.7182  0.6416
62372SOL    HW293080  10.561   5.148   5.216 -1.4412 -0.6106 -1.2940
62373SOL     OW93081   2.147  11.601   0.765 -0.3308 -0.2868  1.0433
62373SOL    HW193082   2.201  11.652   0.825  0.0969 -1.3162  1.5596
62373SOL    HW293083   2.057  11.623   0.790 -0.1555  0.1313  1.3246
62374SOL     OW93084   2.143  11.174  11.434 -0.1684  0.5675  0.0949
62374SOL    HW193085   2.066  11.221  11.466  1.2184  2.1954  1.2042
62374SOL    HW293086   2.129  11.083  11.461 -2.6607  0.3343 -1.6156
62375SOL     OW93087   7.888   7.167   1.768 -0.5702 -0.1521  0.5944
62375SOL    HW193088   7.946   7.092   1.766 -0.8090 -0.3482  0.9877
62375SOL    HW293089   7.846   7.167   1.682 -0.2178 -0.1856  0.4214
62376SOL     OW93090   7.934   4.047   8.625  0.1522 -0.2595 -0.3839
62376SOL    HW193091   7.886   4.097   8.559 -1.3786 -1.5890 -0.3389
62376SOL    HW293092   7.980   3.980   8.575  3.1925  1.7730 -0.5830
62377SOL     OW93093   1.151  12.401   9.563  0.2600  0.1073 -0.0901
62377SOL    HW193094   1.081  12.435   9.618 -1.4972 -1.6378 -1.1001
62377SOL    HW293095   1.121  12.418   9.473  0.9471 -0.9627 -0.5487
62378SOL     OW93096   3.207   9.652   3.893  0.0821  0.4321 -0.2227
62378SOL    HW193097   3.296   9.654   3.858  0.5604  0.1706  0.9539
62378SOL    HW293098   3.178   9.744   3.890  0.8943  0.7345  0.6154
62379SOL     OW93099   1.649  10.481  10.448 -0.0998 -0.4549 -0.5918
62379SOL    HW193100   1.664  10.504  10.357  0.0220 -2.3473 -1.0868
62379SOL    HW293101   1.620  10.389  10.446 -1.9205 -0.0058  1.1168
62380SOL     OW93102   8.262   5.174   6.538  0.2212  0.3356 -0.9802
62380SOL    HW193103   8.225   5.259   6.562  1.9194  0.0153  4.0258
62380SOL    HW293104   8.195   5.111   6.562  0.4723  0.1313 -0.8091
62381SOL     OW93105   9.814   7.730   2.895  0.2426 -0.1764  0.3946
62381SOL    HW193106   9.770   7.794   2.838  0.4893 -0.9926 -0.7552
62381SOL    HW293107   9.903   7.763   2.903 -0.1990  0.7723  1.6247
62382SOL     OW93108   4.829   2.716   1.553 -0.0798 -0.4567  0.6475
62382SOL    HW193109   4.887   2.771   1.606 -1.6233  1.4714  0.4776
62382SOL    HW293110   4.743   2.729   1.592 -0.8865 -0.7558 -0.9712
62383SOL     OW93111  11.690   0.482   1.157 -0.2051 -0.0074 -0.0704
62383SOL    HW193112  11.705   0.577   1.161 -0.6684  0.0561  0.3791
62383SOL    HW293113  11.671   0.458   1.248  1.4637 -0.7995  0.0978
62384SOL     OW93114   7.872  11.837   6.645  0.0619 -0.4913  0.2704
62384SOL    HW193115   7.831  11.918   6.614  0.3820  0.2195  1.5812
62384SOL    HW293116   7.839  11.769   6.588 -1.5005  0.3335  0.1434
62385SOL     OW93117   3.229   7.910  10.606 -0.4331 -0.5229  0.6599
62385SOL    HW193118   3.164   7.935  10.671  0.8121  2.0643  1.0159
62385SOL    HW293119   3.260   7.824  10.636 -0.9786 -0.0825  2.6201
62386SOL     OW93120   2.796   9.680   2.326  0.3322 -0.0383  0.1404
62386SOL    HW193121   2.791   9.710   2.236 -1.4153 -1.6146 -0.3422
62386SOL    HW293122   2.841   9.595   2.321 -0.9555 -0.7633  0.5616
62387SOL     OW93123   4.593   3.546   6.277  0.5204  0.0215 -0.0098
62387SOL    HW193124   4.532   3.565   6.349  0.6128 -0.3648  0.1770
62387SOL    HW293125   4.665   3.608   6.288 -0.5370  1.5237 -1.1218
62388SOL     OW93126   1.365   1.668   1.378 -0.0740  0.3282 -0.2806
62388SOL    HW193127   1.380   1.762   1.379 -1.9778  0.6698 -0.1209
62388SOL    HW293128   1.427   1.632   1.441  1.4766  1.3061 -1.1751
62389SOL     OW93129   6.619   0.915   5.260  0.4445 -0.8706 -0.2237
62389SOL    HW193130   6.629   0.820   5.252  1.3217 -0.7261 -1.0492
62389SOL    HW293131   6.708   0.948   5.273  0.2447 -0.0957 -0.7335
62390SOL     OW93132   4.700   9.755   2.504 -0.3703 -0.0779 -0.4063
62390SOL    HW193133   4.637   9.773   2.434 -1.5819 -0.4130  0.5478
62390SOL    HW293134   4.668   9.674   2.544  0.5282 -0.1080  0.2834
62391SOL     OW93135   2.541   4.420   1.107  1.2829 -0.5635  0.3777
62391SOL    HW193136   2.540   4.326   1.126  1.5089 -0.6274  0.0736
62391SOL    HW293137   2.537   4.425   1.011  1.2940 -0.2635  0.3935
62392SOL     OW93138   9.999   9.323   7.413  0.0753 -0.1458 -0.1113
62392SOL    HW193139  10.027   9.256   7.474  1.6762  1.5072  1.0552
62392SOL    HW293140   9.939   9.378   7.463 -0.6974 -0.2828 -0.8536
62393SOL     OW93141   7.496   0.516  10.669 -0.7399 -0.0072  0.3783
62393SOL    HW193142   7.405   0.488  10.669 -0.9026  0.4657 -0.5392
62393SOL    HW293143   7.492   0.610  10.650 -0.0103 -0.3528 -1.8116
62394SOL     OW93144   1.813   3.176   4.751  0.3860  0.1624  0.2025
62394SOL    HW193145   1.804   3.090   4.793  0.9957  0.0869  0.1767
62394SOL    HW293146   1.729   3.189   4.707  0.1826 -0.2945  0.4436
62395SOL     OW93147   1.641   8.061   1.889  0.3685 -0.0165  0.2848
62395SOL    HW193148   1.654   8.154   1.869  3.4781  0.0145  1.9609
62395SOL    HW293149   1.580   8.061   1.963  1.0626  0.7687  0.8734
62396SOL     OW93150   8.410   1.816   9.866 -0.3195  0.4545 -0.3942
62396SOL    HW193151   8.362   1.887   9.907 -0.0648  0.3129  0.1519
62396SOL    HW293152   8.478   1.859   9.815  0.5545  0.5781  0.8386
62397SOL     OW93153   7.079   8.546   6.131  0.5045  0.2258 -0.2192
62397SOL    HW193154   7.104   8.470   6.078  1.6929  0.8352 -0.5640
62397SOL    HW293155   7.056   8.614   6.067  0.0913  0.3750  0.0783
62398SOL     OW93156   0.324   0.317   1.933  0.0610 -0.5317 -0.1035
62398SOL    HW193157   0.337   0.237   1.983  0.8985 -0.6357 -0.4633
62398SOL    HW293158   0.241   0.304   1.887  1.3432 -2.2704 -2.0845
62399SOL     OW93159  11.650  12.176   5.705  0.5540  0.4699  0.2574
62399SOL    HW193160  11.728  12.225   5.680  0.1477  0.4998 -1.0688
62399SOL    HW293161  11.663  12.155   5.797  2.0656  0.5873  0.1056
62400SOL     OW93162   6.678   2.909  10.467 -0.1656 -0.3350  0.2588
62400SOL    HW193163   6.604   2.850  10.452 -0.7074  0.1997  0.7504
62400SOL    HW293164   6.689   2.955  10.384  2.1211 -3.0836 -1.1431
62401SOL     OW93165   9.759  11.025   3.673 -0.7493 -0.7311  0.0623
62401SOL    HW193166   9.746  11.084   3.599 -1.4753 -1.3587 -0.3271
62401SOL    HW293167   9.833  11.062   3.721 -0.7879  0.1307 -0.5284
62402SOL     OW93168   9.521   9.605   2.019 -0.3237 -0.2582 -0.1729
62402SOL    HW193169   9.492   9.514   2.012  1.0455 -0.7649  0.4082
62402SOL    HW293170   9.614   9.599   2.043 -0.6463  1.2673  1.7478
62403SOL     OW93171   2.409   7.123   7.547  0.0170  0.5149  0.1400
62403SOL    HW193172   2.429   7.190   7.482  1.1028  0.4091  0.3511
62403SOL    HW293173   2.476   7.057   7.535 -1.4163 -0.8955 -0.5102
62404SOL     OW93174   4.056   4.340   2.960 -0.3867  0.3233 -0.1818
62404SOL    HW193175   4.018   4.397   2.893  0.1038  2.4675  1.2552
62404SOL    HW293176   4.148   4.365   2.963 -0.0035 -1.0498  0.0598
62405SOL     OW93177   0.426   8.154   4.032  0.6228 -0.3914  0.3879
62405SOL    HW193178   0.474   8.192   3.959 -0.7052  0.5517 -0.0285
62405SOL    HW293179   0.396   8.069   4.000  2.1516 -1.1188  0.7420
62406SOL     OW93180   4.109   7.003  10.205  0.3589 -0.5714  0.0206
62406SOL    HW193181   4.018   7.024  10.225 -0.7301 -4.1650 -0.3205
62406SOL    HW293182   4.149   7.087  10.185 -3.2814  1.0629 -1.4218
62407SOL     OW93183   2.275  10.620   8.478 -0.1256  0.3727 -0.6513
62407SOL    HW193184   2.323  10.553   8.526 -0.3765  0.8890  0.3716
62407SOL    HW293185   2.225  10.667   8.546 -0.0671  1.4908 -1.3459
62408SOL     OW93186   1.285  10.003   2.906  0.0552 -0.2996  0.2139
62408SOL    HW193187   1.245  10.069   2.963  1.0193 -0.2756  0.8632
62408SOL    HW293188   1.219   9.989   2.838 -1.8980 -1.6352  2.2477
62409SOL     OW93189   0.493   4.062   3.416 -0.0116  0.1278  0.1958
62409SOL    HW193190   0.587   4.048   3.424  0.1611 -0.5906 -2.2963
62409SOL    HW293191   0.482   4.157   3.423  0.9273  0.2359  0.3182
62410SOL     OW93192  10.140   9.043   5.448 -0.0326 -0.6152 -0.0876
62410SOL    HW193193  10.134   8.991   5.368  1.2877  0.0729 -0.6655
62410SOL    HW293194  10.220   9.094   5.437 -1.3338  1.6719  0.3724
62411SOL     OW93195   7.754   8.800   9.249  0.2189  0.3874  0.2365
62411SOL    HW193196   7.723   8.834   9.333  1.8219  0.7513  0.7208
62411SOL    HW293197   7.846   8.780   9.264 -0.1061 -2.2019 -0.6456
62412SOL     OW93198  10.572   2.783   1.730  0.0150 -0.1091 -0.2760
62412SOL    HW193199  10.650   2.772   1.784  0.2116  1.5202 -0.1815
62412SOL    HW293200  10.506   2.727   1.771  0.5851 -0.0355  0.7841
62413SOL     OW93201   7.350   2.841   5.515  0.0843 -0.4428  0.3366
62413SOL    HW193202   7.421   2.783   5.542  0.0133  0.4929  2.7806
62413SOL    HW293203   7.280   2.781   5.488 -0.2277 -1.6433  3.3819
62414SOL     OW93204   1.829  10.854   7.006  0.4163  0.1074 -0.6632
62414SOL    HW193205   1.782  10.777   7.035 -0.6189  0.6125 -0.9400
62414SOL    HW293206   1.812  10.920   7.073  0.9681  0.2118 -0.6213
62415SOL     OW93207   6.963  10.520   0.160  0.0720  0.2100  0.2113
62415SOL    HW193208   6.909  10.444   0.182 -0.4019  0.2955 -0.6097
62415SOL    HW293209   6.945  10.582   0.231 -2.7744  1.1621 -1.1719
62416SOL     OW93210   7.634   5.856   3.341  0.4148  0.8983  0.1164
62416SOL    HW193211   7.715   5.892   3.378  0.1117  3.4297 -1.3857
62416SOL    HW293212   7.567   5.921   3.364 -0.6362  0.2347 -0.9645
62417SOL     OW93213   2.783   8.889   8.996  0.4210 -0.3184 -0.3935
62417SOL    HW193214   2.761   8.810   8.946  1.3943 -0.9308  0.1129
62417SOL    HW293215   2.870   8.914   8.963  0.2206  0.3981 -0.3765
62418SOL     OW93216  10.810  12.126   1.695  0.4083  0.9021  0.3227
62418SOL    HW193217  10.744  12.185   1.732  0.3191  0.8960  0.1740
62418SOL    HW293218  10.836  12.168   1.613  0.6343  0.9355  0.4115
62419SOL     OW93219   8.952   4.136   1.280  0.3684 -0.0446 -1.1054
62419SOL    HW193220   8.993   4.049   1.287  0.0232 -0.1559 -0.4166
62419SOL    HW293221   8.988   4.186   1.353 -1.2766 -0.3835 -0.0076
62420SOL     OW93222   9.439  11.702   7.559 -0.2346 -0.5343  0.0433
62420SOL    HW193223   9.467  11.645   7.631 -1.4443 -1.0414  0.1545
62420SOL    HW293224   9.510  11.698   7.496  0.9103  0.0186  1.2599
62421SOL     OW93225   3.158   5.481   1.278 -0.5154  0.4847  0.0130
62421SOL    HW193226   3.089   5.426   1.240 -1.4361  1.3211  0.4089
62421SOL    HW293227   3.116   5.525   1.352 -0.2826  2.8040 -1.1241
62422SOL     OW93228   2.296   9.248   8.013  0.2015 -0.5722 -0.1130
62422SOL    HW193229   2.372   9.271   8.066  0.3182 -1.0219 -0.0749
62422SOL    HW293230   2.305   9.299   7.933 -1.9315  3.0903  1.7119
62423SOL     OW93231   2.492   9.218   1.246  0.3782 -0.2092  0.3380
62423SOL    HW193232   2.559   9.258   1.301 -0.2443  0.2641  0.7578
62423SOL    HW293233   2.417   9.207   1.304  0.0352 -0.5796 -0.1738
62424SOL     OW93234   2.697   5.894   0.871  0.2727 -0.2383 -0.0006
62424SOL    HW193235   2.748   5.828   0.824 -0.6951 -1.2419  0.3047
62424SOL    HW293236   2.727   5.888   0.961 -0.2744 -0.7564  0.1585
62425SOL     OW93237   7.587   9.151  11.623 -0.3184  0.3623  0.1117
62425SOL    HW193238   7.507   9.200  11.605  0.1220  1.3854  0.8241
62425SOL    HW293239   7.654   9.219  11.635  0.7010 -0.4734 -0.6421
62426SOL     OW93240   3.118   0.195   5.609 -0.6030 -0.3580 -0.2625
62426SOL    HW193241   3.043   0.185   5.550  0.3342  0.1683 -1.5833
62426SOL    HW293242   3.180   0.127   5.581  0.5889  1.0161 -1.0794
62427SOL     OW93243   5.925   2.005  10.415 -0.2732  0.0663 -0.1031
62427SOL    HW193244   5.975   1.969  10.488  0.7448  2.8761  0.7182
62427SOL    HW293245   5.991   2.038  10.354 -1.1273 -1.4692 -1.9657
62428SOL     OW93246   2.662   6.109   8.368  0.0532  1.1067 -0.2749
62428SOL    HW193247   2.663   6.044   8.439 -0.2370  0.8955 -0.4603
62428SOL    HW293248   2.733   6.081   8.310 -1.1470 -0.0798 -1.2564
62429SOL     OW93249   2.162  11.703   1.167  0.1622 -0.1163  0.1508
62429SOL    HW193250   2.195  11.671   1.251 -1.5812  1.4556  1.5419
62429SOL    HW293251   2.172  11.798   1.172  1.2833 -0.0681 -2.0383
62430SOL     OW93252   0.360   1.893   5.580  0.6777 -0.2708 -0.3149
62430SOL    HW193253   0.425   1.892   5.650 -0.9737  1.3170  1.3440
62430SOL    HW293254   0.320   1.806   5.583  2.6006 -1.2627 -1.3433
62431SOL     OW93255   6.165   4.397   0.597  0.3754 -0.3242  0.2929
62431SOL    HW193256   6.202   4.316   0.562  0.6857  0.3318 -0.9791
62431SOL    HW293257   6.241   4.447   0.626  0.0785 -1.3060  3.1115
62432SOL     OW93258   9.122  11.064   0.946 -0.9246 -0.0989  0.1870
62432SOL    HW193259   9.048  11.011   0.976 -0.8871  0.1904  0.8206
62432SOL    HW293260   9.170  11.085   1.027 -0.4279  0.1294 -0.1623
62433SOL     OW93261   3.039   6.006   6.137  0.1749 -0.2704  0.6359
62433SOL    HW193262   3.126   5.995   6.173  1.2462  1.7095 -1.0902
62433SOL    HW293263   3.053   6.020   6.043 -2.1840 -1.9038 -0.0541
62434SOL     OW93264  11.410  10.887  10.742 -0.1086  0.1740  0.0033
62434SOL    HW193265  11.346  10.820  10.718 -0.5928 -0.0945  1.9048
62434SOL    HW293266  11.367  10.939  10.809  1.3271  0.5792  0.6491
62435SOL     OW93267   9.636   1.722  11.434 -0.0059 -0.0505 -0.2638
62435SOL    HW193268   9.598   1.646  11.390 -1.7571  0.1965  0.7228
62435SOL    HW293269   9.703   1.687  11.491 -1.4214 -1.0162  0.8794
62436SOL     OW93270   5.861  11.584   5.914  0.2348  0.1918  0.2676
62436SOL    HW193271   5.930  11.592   5.848  1.4771  0.7133  1.6011
62436SOL    HW293272   5.798  11.652   5.890  0.7028  0.4276 -0.3278
62437SOL     OW93273   9.150   4.202  12.001 -0.7816 -0.6813 -0.3939
62437SOL    HW193274   9.215   4.142  11.963 -0.6437 -1.1808  0.5962
62437SOL    HW293275   9.152   4.183  12.095 -0.0659  1.5008  0.1084
62438SOL     OW93276  12.467   2.547   3.290  0.3660 -0.9752 -0.5184
62438SOL    HW193277  12.387   2.510   3.251 -1.5621  1.6579  0.5905
62438SOL    HW293278  12.454   2.536   3.384  1.4227 -0.6697 -0.3264
62439SOL     OW93279   6.775   6.463   8.168  0.8504  0.2890 -0.1309
62439SOL    HW193280   6.720   6.526   8.215  0.9685  1.3492 -1.3601
62439SOL    HW293281   6.818   6.413   8.237 -0.0715  0.8381  0.8678
62440SOL     OW93282   2.301   4.705  12.462 -0.3296  0.1860 -0.3216
62440SOL    HW193283   2.343   4.636  12.514  0.5148  0.2577 -0.8873
62440SOL    HW293284   2.303   4.782  12.519  1.6866  0.5835 -0.8568
62441SOL     OW93285  12.024  10.017   3.585 -0.2372 -0.4573  0.6222
62441SOL    HW193286  12.069  10.102   3.587 -0.3920 -0.3749  0.6290
62441SOL    HW293287  12.093   9.953   3.602  0.5028 -0.5934 -2.2934
62442SOL     OW93288   9.724   7.372   6.952 -0.4134 -0.4359  0.3352
62442SOL    HW193289   9.724   7.297   6.893 -1.9885 -0.3095  0.1297
62442SOL    HW293290   9.654   7.428   6.919 -0.6828  0.0939  1.7502
62443SOL     OW93291   2.798   8.334   5.719 -0.4005  0.1530 -0.2529
62443SOL    HW193292   2.713   8.293   5.735 -1.6574  2.3097 -1.1027
62443SOL    HW293293   2.788   8.424   5.748  1.5664  0.5203 -0.5241
62444SOL     OW93294   6.212   1.818   2.437 -0.2403 -0.2244 -0.2812
62444SOL    HW193295   6.298   1.776   2.435 -0.5914 -1.0187  0.5028
62444SOL    HW293296   6.217   1.886   2.370  1.9813  1.6797  1.6249
62445SOL     OW93297  10.597   3.636   7.141 -0.1995  0.7063 -0.1725
62445SOL    HW193298  10.578   3.578   7.215  1.8653 -0.6108 -0.5679
62445SOL    HW293299  10.553   3.718   7.163 -2.8384 -0.8022  0.6512
62446SOL     OW93300   0.316   2.752   2.947  0.3422 -0.0495 -1.0138
62446SOL    HW193301   0.251   2.765   3.017  0.2857  1.4606 -1.3127
62446SOL    HW293302   0.263   2.733   2.870  0.3548 -0.5973 -0.8938
62447SOL     OW93303   7.797   2.064   1.411  0.2351  0.3210 -0.2991
62447SOL    HW193304   7.805   2.008   1.489  0.8509  0.9146  0.0787
62447SOL    HW293305   7.887   2.089   1.391  0.0527  0.3782 -1.0576
62448SOL     OW93306   0.685  11.011   7.030 -0.5813  0.1794  0.0203
62448SOL    HW193307   0.750  10.942   7.019 -2.4018 -1.3998 -1.6037
62448SOL    HW293308   0.732  11.092   7.009  1.1030 -0.7509 -0.0025
62449SOL     OW93309  10.931   9.661   6.207  0.2951  0.0079  0.0757
62449SOL    HW193310  10.848   9.629   6.171 -0.4475 -0.7345  2.3280
62449SOL    HW293311  10.913   9.677   6.299  1.9549  2.4584  0.0717
62450SOL     OW93312   7.901   1.745   2.851 -0.1669  0.1133 -0.1535
62450SOL    HW193313   7.815   1.705   2.867  0.7770 -2.5336 -1.0966
62450SOL    HW293314   7.958   1.706   2.917  0.6629  0.4384 -0.6622
62451SOL     OW93315   5.101   9.737   2.947 -0.7402  0.3654  0.2308
62451SOL    HW193316   5.088   9.669   2.881  0.9739 -0.8405  1.0421
62451SOL    HW293317   5.167   9.795   2.910  2.2392 -1.7655  1.7203
62452SOL     OW93318   1.315  11.734   8.752  0.1725  0.1880 -0.4590
62452SOL    HW193319   1.220  11.733   8.765  0.5070 -0.3997  2.9323
62452SOL    HW293320   1.337  11.643   8.729 -0.0069  0.0251 -0.0101
62453SOL     OW93321   3.920   5.647   4.046  0.2103  0.5119  0.4428
62453SOL    HW193322   3.866   5.582   4.090 -1.8330  1.5624 -0.4131
62453SOL    HW293323   4.006   5.640   4.088 -0.2939 -1.8618  1.1882
62454SOL     OW93324  11.784   4.803  10.534 -0.1949  0.2341  0.2880
62454SOL    HW193325  11.719   4.813  10.465 -1.2128  0.8251  1.3012
62454SOL    HW293326  11.742   4.747  10.599 -0.3234  1.8719  1.6818
62455SOL     OW93327   5.902   2.961   0.000 -0.3800 -0.5721  0.4600
62455SOL    HW193328   5.946   2.983  -0.082 -0.0017 -1.2157  0.4883
62455SOL    HW293329   5.871   2.872  -0.012  2.2473 -1.8332  2.0524
62456SOL     OW93330   5.498   4.342   2.191 -0.0679 -0.7940 -0.4471
62456SOL    HW193331   5.582   4.308   2.222  0.2842  0.1992 -0.2621
62456SOL    HW293332   5.520   4.425   2.150 -1.1352  0.2881  1.0535
62457SOL     OW93333   8.961  11.353   6.637  0.2619  0.0583 -0.0228
62457SOL    HW193334   9.055  11.357   6.652  0.3928 -0.5370 -0.6412
62457SOL    HW293335   8.943  11.261   6.620  0.0736  0.5328 -2.9073
62458SOL     OW93336   7.404  11.752   4.901 -0.1491 -0.0442  0.0957
62458SOL    HW193337   7.422  11.805   4.978  0.0604 -1.0650  0.7744
62458SOL    HW293338   7.365  11.813   4.838  1.5074  1.2472  0.2486
62459SOL     OW93339   1.844   3.601  11.850 -0.1167 -0.3977 -0.2158
62459SOL    HW193340   1.770   3.603  11.790  1.3200 -0.3757 -2.0995
62459SOL    HW293341   1.896   3.678  11.826  0.9722 -0.9142  0.4195
62460SOL     OW93342   6.550   4.624  10.788 -0.2941 -0.5261  0.3544
62460SOL    HW193343   6.518   4.553  10.845 -1.2720 -3.1789 -3.1501
62460SOL    HW293344   6.486   4.694  10.799 -0.2739 -0.7916  2.6375
62461SOL     OW93345   5.501   7.319   1.169  0.5001 -0.6211  0.8510
62461SOL    HW193346   5.449   7.279   1.099  0.8937 -0.1121  0.2514
62461SOL    HW293347   5.451   7.304   1.248 -0.8713  0.4046  0.2128
62462SOL     OW93348   5.647   5.516   9.912  0.6736 -0.2079 -0.6302
62462SOL    HW193349   5.679   5.427   9.926 -1.1656 -0.7529  0.4384
62462SOL    HW293350   5.695   5.570   9.974 -0.4299 -1.0173  0.9999
62463SOL     OW93351   9.750   8.063   9.624  0.3664 -0.0274 -0.6891
62463SOL    HW193352   9.819   8.059   9.558  1.1687 -1.0602  0.1909
62463SOL    HW293353   9.703   7.980   9.616  0.3057 -0.0512 -0.1414
62464SOL     OW93354  11.466   2.707   7.596 -0.0961  0.6407  0.0955
62464SOL    HW193355  11.388   2.666   7.635 -0.1078  1.6798  1.2135
62464SOL    HW293356  11.532   2.703   7.664  1.9185 -2.8919 -1.7442
62465SOL     OW93357  12.434   6.312  11.660  0.5498  0.0324  0.3298
62465SOL    HW193358  12.364   6.255  11.690  0.3810  0.8131  1.5257
62465SOL    HW293359  12.491   6.256  11.608  0.1542 -1.1085  1.0910
62466SOL     OW93360   9.223  10.965  11.916 -0.3009 -0.3408  0.2226
62466SOL    HW193361   9.171  10.890  11.887 -0.0646 -1.0477  1.5315
62466SOL    HW293362   9.266  10.935  11.997  0.7005  0.8290  0.1613
62467SOL     OW93363   2.750   8.643   8.865  0.6042  0.3632 -0.3682
62467SOL    HW193364   2.704   8.634   8.782 -0.4352 -1.2499  0.3373
62467SOL    HW293365   2.840   8.666   8.841 -0.0542  1.5456 -1.8418
62468SOL     OW93366   3.355   7.870   4.080  0.0524 -0.3338 -0.1999
62468SOL    HW193367   3.365   7.873   3.985  0.3453 -0.8482 -0.1827
62468SOL    HW293368   3.337   7.778   4.100  0.3028 -0.2793  0.2769
62469SOL     OW93369   7.842   2.476   9.885  0.4808  0.1486 -0.1555
62469SOL    HW193370   7.937   2.478   9.871  0.2835  0.4842 -1.6155
62469SOL    HW293371   7.821   2.563   9.919  0.7132 -0.0001  0.3821
62470SOL     OW93372   1.089   0.797   8.508  0.6412 -0.2128 -0.0146
62470SOL    HW193373   1.057   0.878   8.468  0.7187 -0.1339  0.0840
62470SOL    HW293374   1.055   0.798   8.597  1.8732  0.4395  0.4671
62471SOL     OW93375   4.172   1.284   2.028 -0.5103 -0.1886  0.1892
62471SOL    HW193376   4.088   1.327   2.014 -1.5569 -1.2953  2.5172
62471SOL    HW293377   4.150   1.201   2.071  1.7502 -0.7259  0.4683
62472SOL     OW93378   2.763   4.624   4.963 -0.0653 -0.3072  0.5564
62472SOL    HW193379   2.801   4.609   5.050  0.4909  0.0096  0.3755
62472SOL    HW293380   2.824   4.684   4.921 -0.9167  0.4216  0.3462
62473SOL     OW93381   5.190  10.070   1.523 -0.0121  0.4260  0.2670
62473SOL    HW193382   5.213   9.984   1.559 -0.4972 -0.7608 -2.1196
62473SOL    HW293383   5.135  10.110   1.590 -1.2600 -1.8708  0.6944
62474SOL     OW93384  11.174   2.090   4.777  0.2952  0.2127  0.1096
62474SOL    HW193385  11.234   2.160   4.751 -0.0780  0.0309 -1.3668
62474SOL    HW293386  11.106   2.090   4.709 -0.3108 -0.8545  0.6826
62475SOL     OW93387   5.718  10.830   4.676 -0.4539  0.3795 -0.1561
62475SOL    HW193388   5.812  10.818   4.666 -0.3945  0.8341 -0.1587
62475SOL    HW293389   5.679  10.753   4.634 -0.0489 -0.4712  0.9649
62476SOL     OW93390  11.359   7.247  10.237  0.2353  0.6980 -0.6074
62476SOL    HW193391  11.314   7.267  10.319  0.1054  0.3913 -0.6014
62476SOL    HW293392  11.372   7.332  10.195  2.7129  1.1951  0.9655
62477SOL     OW93393   2.671  11.584   7.145 -0.1051 -0.1473  0.0049
62477SOL    HW193394   2.746  11.604   7.201 -0.9427  0.6973  0.8425
62477SOL    HW293395   2.704  11.600   7.056  0.7566  0.0434  0.3430
62478SOL     OW93396   8.798   9.955   6.319  0.6410  0.4853 -0.2589
62478SOL    HW193397   8.739   9.966   6.393 -0.4379  1.1451 -1.1734
62478SOL    HW293398   8.886   9.962   6.356  0.1230  1.8637  0.7918
62479SOL     OW93399   9.435  11.905   9.521 -0.3305  0.1226 -0.6721
62479SOL    HW193400   9.361  11.959   9.550  0.3112  0.2631  0.7570
62479SOL    HW293401   9.466  11.862   9.600 -0.2978 -1.7348 -1.6248
62480SOL     OW93402   4.055   5.745  10.310 -0.0541 -0.0093  0.4838
62480SOL    HW193403   3.961   5.729  10.294  0.0842  0.6404 -1.1886
62480SOL    HW293404   4.064   5.742  10.405 -1.9732  0.9819  0.7452
62481SOL     OW93405   3.431   5.876   9.017 -0.9496 -0.1567  0.3207
62481SOL    HW193406   3.486   5.809   9.059 -1.3213 -0.8351 -0.2533
62481SOL    HW293407   3.489   5.951   9.006  0.0040 -1.0165 -0.7053
62482SOL     OW93408  11.420   3.692   3.431 -0.2117  0.3895 -0.1674
62482SOL    HW193409  11.340   3.740   3.451 -0.1956  0.2400  0.2587
62482SOL    HW293410  11.392   3.624   3.370 -0.7086 -0.6570  1.1933
62483SOL     OW93411   2.957   4.325  11.245 -0.7337  0.0197  0.1778
62483SOL    HW193412   3.007   4.393  11.289  1.8274  0.1732 -2.6072
62483SOL    HW293413   2.906   4.372  11.179  0.1981 -0.5582 -1.0112
62484SOL     OW93414  10.786   7.158   3.763  0.7992  0.2109  0.5923
62484SOL    HW193415  10.728   7.179   3.836 -0.3057 -1.0008  0.1022
62484SOL    HW293416  10.837   7.237   3.749 -1.6920  1.8595  0.1500
62485SOL     OW93417   4.027  10.688  12.014 -0.0999 -0.2903 -0.4357
62485SOL    HW193418   3.952  10.633  11.995  0.6384 -1.6746  0.5331
62485SOL    HW293419   4.044  10.677  12.107 -0.1215  1.8622 -0.1225
62486SOL     OW93420   8.883   0.243  10.069  0.1540  0.7904  0.0021
62486SOL    HW193421   8.829   0.314  10.103 -2.4133 -1.2296  0.4620
62486SOL    HW293422   8.907   0.191  10.146  1.2013  0.6011 -0.4262
62487SOL     OW93423   9.782   4.956   6.510 -0.4715  0.5247 -0.0171
62487SOL    HW193424   9.703   4.961   6.564 -1.4704  2.7195 -1.5729
62487SOL    HW293425   9.798   4.862   6.500 -2.8921  0.0216  0.3232
62488SOL     OW93426   2.162   4.102   2.036  0.1685  1.5000  0.6613
62488SOL    HW193427   2.125   4.014   2.029  0.5036  1.2469  1.7788
62488SOL    HW293428   2.199   4.120   1.950  1.7891 -0.2241  0.9232
62489SOL     OW93429  11.082   3.240   6.457 -0.4314  0.0503  0.0035
62489SOL    HW193430  11.137   3.187   6.398  1.4745  1.6219  0.2710
62489SOL    HW293431  11.021   3.285   6.399  0.7132  0.7465 -0.6927
62490SOL     OW93432   8.035   7.581   1.609 -0.0442 -0.1662  0.5996
62490SOL    HW193433   8.048   7.522   1.683  0.6486 -0.1850  0.4743
62490SOL    HW293434   7.991   7.528   1.543  1.0991 -0.7261  0.2642
62491SOL     OW93435   5.581   7.878   0.348 -0.1906 -0.3643  0.0869
62491SOL    HW193436   5.577   7.840   0.436  4.5121 -2.6220 -0.3976
62491SOL    HW293437   5.505   7.841   0.302 -0.0864 -3.0336  1.8600
62492SOL     OW93438   0.262   0.597   7.312 -0.3452 -0.4746  0.6399
62492SOL    HW193439   0.330   0.643   7.263 -1.0528 -0.3654 -0.2588
62492SOL    HW293440   0.302   0.579   7.397 -0.4373  2.8785  1.5014
62493SOL     OW93441  11.526   4.881   2.381  0.3509 -0.7132 -0.0905
62493SOL    HW193442  11.486   4.925   2.307  1.7592 -1.0559 -1.0928
62493SOL    HW293443  11.474   4.909   2.457 -0.5617  0.3469 -1.0749
62494SOL     OW93444  12.229   3.525  11.170  0.2513 -0.5955 -0.6953
62494SOL    HW193445  12.157   3.502  11.229 -1.2657  2.1061 -1.3270
62494SOL    HW293446  12.192   3.518  11.082  0.5169  1.4677 -1.0046
62495SOL     OW93447   3.373   4.941   0.926  0.4142  0.1923  0.0224
62495SOL    HW193448   3.298   4.915   0.872  0.6932 -0.5334 -0.0253
62495SOL    HW293449   3.339   5.010   0.983 -0.2522 -0.0244 -0.1051
62496SOL     OW93450  11.779   7.708  11.099  0.3960 -0.2099 -0.3425
62496SOL    HW193451  11.783   7.620  11.061  1.3731 -0.0328 -0.6728
62496SOL    HW293452  11.870   7.737  11.102  0.1958  0.3767  0.7489
62497SOL     OW93453   3.615  11.121   7.496  0.1383  0.4671  0.2657
62497SOL    HW193454   3.644  11.056   7.561 -0.3111  0.1732  0.1709
62497SOL    HW293455   3.689  11.127   7.435 -0.0349 -0.3634 -0.0333
62498SOL     OW93456   1.131  11.036   5.244  0.8696 -0.2993  0.0750
62498SOL    HW193457   1.196  10.976   5.207 -0.3407 -2.1630  0.8057
62498SOL    HW293458   1.125  11.012   5.336 -0.4818  0.1563  0.1332
62499SOL     OW93459   4.818   0.735   5.523 -0.4013  0.3539 -0.0382
62499SOL    HW193460   4.883   0.668   5.505  0.3359  0.5803  1.5659
62499SOL    HW293461   4.853   0.814   5.482  0.6995  0.6197  1.3230
62500SOL     OW93462   2.058   7.618   6.555  1.1396  0.3776 -0.0422
62500SOL    HW193463   2.043   7.582   6.467 -0.0140  0.2350  0.1875
62500SOL    HW293464   2.121   7.688   6.543 -0.0573  1.2930 -1.2154
62501SOL     OW93465   4.166   8.263   2.992  0.5226 -0.2248  0.2780
62501SOL    HW193466   4.078   8.296   3.012  0.2384 -0.2633 -0.8731
62501SOL    HW293467   4.223   8.337   3.011  0.2450 -0.1689  0.9479
62502SOL     OW93468   1.904   1.674  10.617 -0.6028 -0.2781  0.5837
62502SOL    HW193469   1.848   1.648  10.689  0.0719 -0.5612  1.0222
62502SOL    HW293470   1.993   1.672  10.654  0.0002 -2.4624 -0.7598
62503SOL     OW93471   8.608   0.797   6.347 -0.3332  0.0405  0.4704
62503SOL    HW193472   8.523   0.796   6.304 -0.0101  0.9950 -0.2127
62503SOL    HW293473   8.608   0.717   6.401 -1.2132 -0.5463 -0.3617
62504SOL     OW93474   3.706   0.429   8.235 -0.4691 -0.2569 -0.6663
62504SOL    HW193475   3.724   0.471   8.319  0.9739  0.2374 -1.1978
62504SOL    HW293476   3.639   0.363   8.255  0.5117 -0.7829  1.0555
62505SOL     OW93477   2.532  11.444   0.986 -0.3576 -0.0738  0.3078
62505SOL    HW193478   2.555  11.356   0.957 -0.2899 -0.9116  2.6684
62505SOL    HW293479   2.472  11.477   0.919  0.2091 -1.6096 -1.0117
62506SOL     OW93480   2.280   3.050   8.989  0.3109 -0.1747 -0.4051
62506SOL    HW193481   2.211   3.049   8.923 -1.2182  1.8149  1.0667
62506SOL    HW293482   2.252   2.985   9.054 -0.1950  0.6259  0.1877
62507SOL     OW93483   8.845   0.635   0.264  0.2403  0.1415  0.1017
62507SOL    HW193484   8.909   0.685   0.314  1.4892 -1.1026 -0.1783
62507SOL    HW293485   8.896   0.564   0.224 -1.4311 -1.3131  0.4258
62508SOL     OW93486   8.875   8.284  12.026 -0.2255 -0.2485  0.1943
62508SOL    HW193487   8.835   8.204  11.991  1.5604 -0.6984 -0.9938
62508SOL    HW293488   8.908   8.259  12.112  1.4363 -1.2541 -0.6610
62509SOL     OW93489   0.464   3.602  10.910  0.3506 -0.0391  0.1105
62509SOL    HW193490   0.385   3.640  10.947 -0.2332  0.4486 -1.5525
62509SOL    HW293491   0.433   3.547  10.838  1.3995 -1.3713  0.6372
62510SOL     OW93492  11.677  10.776   2.850  0.4451 -0.4525  0.0236
62510SOL    HW193493  11.603  10.807   2.904  0.3058  0.2158 -0.5371
62510SOL    HW293494  11.643  10.698   2.807  0.1006 -0.2295 -0.1225
62511SOL     OW93495   3.917   6.147   3.999  0.1455  0.4268 -0.2077
62511SOL    HW193496   3.865   6.071   3.972  1.0023 -0.3555  0.3329
62511SOL    HW293497   3.911   6.207   3.924 -0.9905  0.0854 -0.4184
62512SOL     OW93498   1.157   6.282   6.949 -0.3357 -0.0746 -0.3416
62512SOL    HW193499   1.163   6.280   7.044  1.2189 -1.1531 -0.4270
62512SOL    HW293500   1.066   6.259   6.931 -0.4594 -0.6298  0.8734
62513SOL     OW93501  12.492   5.843   8.114 -0.1952  0.2313  0.2811
62513SOL    HW193502  12.446   5.768   8.076 -0.1947  0.1427  0.4509
62513SOL    HW293503  12.457   5.919   8.068 -1.4135  0.2876  1.2204
62514SOL     OW93504   8.197   7.352   9.495 -0.6103 -0.0168  0.2558
62514SOL    HW193505   8.203   7.300   9.575 -1.3752 -0.5090  0.0004
62514SOL    HW293506   8.169   7.290   9.427 -2.6902  0.9241  0.1784
62515SOL     OW93507   8.276  10.992   4.445  0.0504 -0.0603  0.4672
62515SOL    HW193508   8.237  10.959   4.364 -1.2353  0.1772  0.9587
62515SOL    HW293509   8.286  11.086   4.430 -0.2947  0.0018  0.6211
62516SOL     OW93510   0.442   4.026  11.781 -0.2247 -0.6774 -0.2352
62516SOL    HW193511   0.494   4.029  11.861 -1.3338  1.1728  0.4826
62516SOL    HW293512   0.506   4.033  11.710  0.7053 -1.3963  0.5165
62517SOL     OW93513  12.205   6.138   9.424  0.1191  0.1444 -0.1084
62517SOL    HW193514  12.179   6.223   9.388 -3.5663 -1.0558 -0.7816
62517SOL    HW293515  12.227   6.085   9.347  2.3245  0.3777  0.3005
62518SOL     OW93516   7.157   2.867   4.008  0.7485  0.0748 -0.4904
62518SOL    HW193517   7.086   2.834   3.952  1.1082 -0.6340 -0.5462
62518SOL    HW293518   7.235   2.863   3.952  1.1944 -1.0476  0.1745
62519SOL     OW93519   1.937   4.858  12.003  0.4057 -0.4144  0.6908
62519SOL    HW193520   1.903   4.928  12.060 -1.2187 -0.8375  0.3028
62519SOL    HW293521   1.917   4.888  11.914 -2.4458 -2.2814  0.5485
62520SOL     OW93522   3.947   4.098   4.009 -0.3380  0.1324  0.0153
62520SOL    HW193523   3.971   4.171   3.952  0.5045 -1.7949 -2.2879
62520SOL    HW293524   4.008   4.104   4.083  1.2629  0.4957 -1.2671
62521SOL     OW93525   0.483   4.145   6.304  0.3857 -0.4096  0.1578
62521SOL    HW193526   0.538   4.068   6.296 -0.0551 -0.7939  0.7933
62521SOL    HW293527   0.431   4.130   6.383  0.0042  0.3470  0.0599
62522SOL     OW93528   5.506   0.902   8.896 -0.1292 -0.6947 -0.4750
62522SOL    HW193529   5.577   0.873   8.839  0.3094  0.4615 -0.5331
62522SOL    HW293530   5.521   0.856   8.979  0.9359 -0.1610 -0.3551
62523SOL     OW93531   8.197   4.876   3.946  0.2075  0.3786  0.2566
62523SOL    HW193532   8.173   4.856   4.037  0.5240  3.2155  1.0748
62523SOL    HW293533   8.114   4.880   3.899 -0.0918  0.4198  0.7873
62524SOL     OW93534   7.371  12.196   3.647 -0.0919  0.1499  0.4458
62524SOL    HW193535   7.356  12.101   3.656  0.4608 -0.1680 -1.5939
62524SOL    HW293536   7.287  12.235   3.671 -0.7252 -0.9414  0.0917
62525SOL     OW93537   5.440   3.282   7.179 -0.0540 -0.2669  0.2684
62525SOL    HW193538   5.373   3.300   7.113  0.1681 -1.2009 -0.2351
62525SOL    HW293539   5.491   3.363   7.183 -0.8207  0.2364  0.2058
62526SOL     OW93540  11.383  11.018   1.973  0.3631  0.8604 -0.0213
62526SOL    HW193541  11.361  11.092   2.030  2.0399  0.7524  0.8316
62526SOL    HW293542  11.396  10.945   2.034  0.1264  0.2119 -0.7414
62527SOL     OW93543  10.923   5.931   9.191  0.1388  0.0057 -0.1456
62527SOL    HW193544  10.943   6.023   9.176  0.3641 -0.3401 -2.1901
62527SOL    HW293545  10.832   5.922   9.163  0.0734 -0.3736  0.1846
62528SOL     OW93546   1.951  10.434   3.950 -0.0827  0.1209  0.6366
62528SOL    HW193547   2.031  10.450   3.901 -0.7567 -0.4527 -0.7022
62528SOL    HW293548   1.925  10.520   3.983 -0.3191  0.7662 -1.1514
62529SOL     OW93549   4.395  11.335   3.062  0.7362 -0.7427  0.6253
62529SOL    HW193550   4.324  11.300   3.116  0.3110  0.6735  1.0187
62529SOL    HW293551   4.360  11.334   2.973  0.2727 -0.1963  0.7957
62530SOL     OW93552   1.162   1.791   8.236  0.1420  0.5806 -0.1237
62530SOL    HW193553   1.165   1.713   8.182 -0.6040  0.3748  0.1119
62530SOL    HW293554   1.088   1.842   8.201 -1.0376 -0.0493  1.3224
62531SOL     OW93555   0.104  10.775   7.631  0.3402 -0.3916  0.4106
62531SOL    HW193556   0.150  10.783   7.547 -1.9524 -0.6412 -0.9550
62531SOL    HW293557   0.127  10.688   7.663 -1.1019 -1.5683 -1.5336
62532SOL     OW93558  10.719   7.667   3.630  0.8322 -0.4988  0.5209
62532SOL    HW193559  10.693   7.747   3.585 -0.4588 -0.9937  0.3245
62532SOL    HW293560  10.722   7.691   3.722 -0.1362 -0.3419  0.5251
62533SOL     OW93561   2.429   0.273  10.011 -0.0561 -0.1129  0.0530
62533SOL    HW193562   2.405   0.328   9.937 -2.5952 -1.1323  0.0230
62533SOL    HW293563   2.513   0.234   9.986 -0.1829  0.6320 -1.6713
62534SOL     OW93564   0.107  11.781   9.938 -0.1198 -0.2585 -0.6711
62534SOL    HW193565   0.125  11.695   9.977  0.4398  0.2881  0.3118
62534SOL    HW293566   0.047  11.824  10.000  2.1939  1.3230  0.6056
62535SOL     OW93567   7.935   6.207   5.420 -0.4576  0.4190  0.6098
62535SOL    HW193568   7.894   6.129   5.383  1.9715 -0.1514 -1.1650
62535SOL    HW293569   7.910   6.278   5.361 -1.0916  0.6272  1.1164
62536SOL     OW93570   1.168   2.176   8.280  0.2818  0.6308  0.0189
62536SOL    HW193571   1.252   2.133   8.295  0.1099  0.2980  0.0430
62536SOL    HW293572   1.118   2.113   8.228  0.7500  1.6395 -1.7106
62537SOL     OW93573   0.084   8.795   1.749  0.0461 -0.0499  0.6224
62537SOL    HW193574   0.002   8.765   1.711 -0.1435  0.8072  0.3143
62537SOL    HW293575   0.074   8.890   1.754 -0.2518 -0.1646  3.5772
62538SOL     OW93576   8.269   5.471   4.219  0.3443 -0.1818 -0.3146
62538SOL    HW193577   8.267   5.407   4.148  1.5729 -1.4109  0.7169
62538SOL    HW293578   8.306   5.550   4.179 -1.5538  0.0664 -1.6971
62539SOL     OW93579  10.471   4.550   3.172 -0.4813 -0.4114  0.1419
62539SOL    HW193580  10.434   4.466   3.143 -1.2802  0.4124 -1.3624
62539SOL    HW293581  10.455   4.609   3.099  1.2277  0.7450  0.6540
62540SOL     OW93582   5.718   4.776   0.411 -0.1099 -0.6676  0.4314
62540SOL    HW193583   5.694   4.771   0.504  0.0032  1.3052  0.6027
62540SOL    HW293584   5.639   4.748   0.365 -0.2065 -1.5645  1.1072
62541SOL     OW93585   6.562   6.711   9.747 -0.0782  0.1892 -0.4324
62541SOL    HW193586   6.655   6.693   9.760 -0.0371  0.6356 -0.0892
62541SOL    HW293587   6.554   6.806   9.755 -0.0427  0.5969 -3.7320
62542SOL     OW93588   2.646   3.242   0.143  0.5719 -0.1919  0.1437
62542SOL    HW193589   2.671   3.309   0.079 -1.1630 -0.0321 -0.4155
62542SOL    HW293590   2.609   3.292   0.216  2.6170 -0.3670  1.3870
62543SOL     OW93591   3.256  12.144  11.556 -0.0230 -0.5408 -0.4974
62543SOL    HW193592   3.234  12.062  11.512 -0.6287  0.0759 -1.3770
62543SOL    HW293593   3.173  12.174  11.592  0.5643 -1.3365  1.6484
62544SOL     OW93594   4.645   7.095   3.675  0.3885  0.1076  0.5525
62544SOL    HW193595   4.643   7.141   3.760  0.7042 -0.7472  1.0289
62544SOL    HW293596   4.737   7.075   3.660  0.1963 -0.8702  0.6277
62545SOL     OW93597  11.227   2.116   2.581  0.0783  0.6387 -0.3059
62545SOL    HW193598  11.220   2.055   2.655  1.1504  3.6029  2.4407
62545SOL    HW293599  11.298   2.080   2.527 -0.6360 -1.5201  0.0660
62546SOL     OW93600  11.468   9.121   5.273  0.6265  0.4063 -0.2720
62546SOL    HW193601  11.481   9.037   5.230 -0.9335 -0.4844  0.9157
62546SOL    HW293602  11.557   9.151   5.293  1.2513 -0.4753 -1.5438
62547SOL     OW93603  11.130   1.797   2.200  0.3271 -0.9604  0.2227
62547SOL    HW193604  11.103   1.717   2.154 -0.3863 -1.1699  0.9659
62547SOL    HW293605  11.224   1.802   2.185  0.2763 -1.5798 -0.3914
62548SOL     OW93606  10.228  11.133   7.734 -0.5378  0.0156 -0.0313
62548SOL    HW193607  10.163  11.064   7.720  0.5562 -0.9103 -0.7181
62548SOL    HW293608  10.311  11.094   7.707  0.1704  1.4994 -0.1205
62549SOL     OW93609   2.726   1.377  11.967  0.0250  0.3698 -0.1771
62549SOL    HW193610   2.816   1.343  11.976 -0.1589  0.0119  0.3640
62549SOL    HW293611   2.671   1.309  12.007 -0.5384  0.3445 -0.9798
62550SOL     OW93612  11.983   9.508   5.195 -0.5548 -0.2184  0.5655
62550SOL    HW193613  11.910   9.461   5.153  0.3685 -2.5270  1.3687
62550SOL    HW293614  11.942   9.585   5.235 -2.3037 -0.6983 -0.2028
62551SOL     OW93615  11.368   4.663   4.405  0.1003 -0.2308 -0.5117
62551SOL    HW193616  11.428   4.737   4.408 -1.2794  0.9492 -0.7756
62551SOL    HW293617  11.314   4.673   4.483 -0.1819 -0.8970 -0.6136
62552SOL     OW93618   7.823   8.973   8.958 -0.4915 -0.5333  0.1298
62552SOL    HW193619   7.737   8.935   8.943 -1.6319  1.6595  0.7011
62552SOL    HW293620   7.816   9.015   9.043  1.0566 -0.0319  0.0410
62553SOL     OW93621   8.766   0.234   9.830  0.8285 -0.0641 -0.1809
62553SOL    HW193622   8.685   0.183   9.838  1.3192 -1.1795 -1.8012
62553SOL    HW293623   8.795   0.248   9.920  0.6473 -2.6908  0.3588
62554SOL     OW93624   6.383  12.261   9.587 -0.0225 -0.2259 -0.4080
62554SOL    HW193625   6.308  12.243   9.643  0.1789 -0.5368 -0.2383
62554SOL    HW293626   6.456  12.216   9.629  0.6488  1.5441  0.4156
62555SOL     OW93627   5.408   4.810   6.708  0.4318 -0.0169  0.0063
62555SOL    HW193628   5.336   4.823   6.769  0.2844  1.4194 -0.4241
62555SOL    HW293629   5.392   4.874   6.638  1.2645 -0.7625 -0.9003
62556SOL     OW93630   6.399   7.665  12.449  0.4784  0.2212 -0.3970
62556SOL    HW193631   6.361   7.714  12.376 -2.4330 -1.2974 -0.0459
62556SOL    HW293632   6.378   7.573  12.430  1.5683 -0.4200  1.2868
62557SOL     OW93633   0.516   9.964  10.935 -0.1935  0.3762 -0.1023
62557SOL    HW193634   0.534  10.034  10.997  2.0763  0.1221 -0.3744
62557SOL    HW293635   0.532   9.884  10.984  1.2873  0.1688 -0.8461
62558SOL     OW93636   1.758   4.807   7.674  0.0863 -0.8360 -0.1855
62558SOL    HW193637   1.840   4.851   7.697 -2.4138  5.2374 -1.1875
62558SOL    HW293638   1.698   4.829   7.744 -1.7859 -1.4409 -1.5189
62559SOL     OW93639   6.865   8.830  11.611 -0.2409 -0.1481  0.3333
62559SOL    HW193640   6.865   8.777  11.691 -0.2056  2.0726  1.9013
62559SOL    HW293641   6.957   8.856  11.599 -0.3362  0.0029 -0.1094
62560SOL     OW93642   5.736   4.641   9.104 -0.4601 -0.5361 -0.1586
62560SOL    HW193643   5.733   4.663   9.010 -1.2732  1.5183  0.3012
62560SOL    HW293644   5.704   4.551   9.108  0.3474 -0.9443 -1.9247
62561SOL     OW93645  11.490   3.037   8.151 -0.7827 -0.4618  0.2442
62561SOL    HW193646  11.519   3.041   8.060 -1.6424  0.9267  0.0002
62561SOL    HW293647  11.566   3.004   8.199 -0.5381 -1.8630 -1.0496
62562SOL     OW93648  12.475   1.553   0.838 -0.1237 -0.5850  0.3053
62562SOL    HW193649  12.459   1.491   0.767 -3.5276 -0.0512  0.4433
62562SOL    HW293650  12.412   1.624   0.822  0.7606  0.7746  2.4582
62563SOL     OW93651   7.110  11.404   2.367 -0.3943 -0.5778 -0.0844
62563SOL    HW193652   7.130  11.324   2.416 -0.1681 -0.9083 -0.7076
62563SOL    HW293653   7.023  11.429   2.397  0.8824  0.9464  2.7850
62564SOL     OW93654   9.334   4.284  12.430 -0.8106  0.3732 -0.7350
62564SOL    HW193655   9.385   4.317  12.504 -3.5379  1.8123  0.6846
62564SOL    HW293656   9.243   4.283  12.462 -2.2399  1.6487 -4.2028
62565SOL     OW93657  11.848   1.270  12.125 -0.3444 -0.2219 -0.2186
62565SOL    HW193658  11.821   1.194  12.074 -1.3488 -0.5342  0.7460
62565SOL    HW293659  11.767   1.304  12.163  0.3514  0.0267  1.1153
62566SOL     OW93660   6.679   6.992  10.653 -0.5059 -1.0002 -0.2557
62566SOL    HW193661   6.767   6.969  10.623 -0.4441 -0.4531 -0.5008
62566SOL    HW293662   6.680   6.977  10.747  0.5899  1.3254  0.1419
62567SOL     OW93663   0.413   3.005   9.970  0.0408 -0.4884 -0.1944
62567SOL    HW193664   0.408   2.921  10.014 -0.2188  0.5615  1.9166
62567SOL    HW293665   0.441   2.984   9.881 -0.6071 -2.8283  0.0925
62568SOL     OW93666   1.701   0.499   9.386  0.1170 -0.5891 -0.0507
62568SOL    HW193667   1.748   0.518   9.467 -1.2046  1.0767  0.3733
62568SOL    HW293668   1.638   0.570   9.377 -1.5386 -2.0901 -1.2025
62569SOL     OW93669   8.733  11.608   6.131  0.6459  0.4534  0.1370
62569SOL    HW193670   8.743  11.546   6.203  2.6391  0.3191 -0.1948
62569SOL    HW293671   8.815  11.601   6.082  0.0839  1.8825 -1.0828
62570SOL     OW93672   0.299   5.385   9.097 -0.0989 -0.1065 -0.1702
62570SOL    HW193673   0.308   5.461   9.155 -0.3206  1.3738 -1.9605
62570SOL    HW293674   0.377   5.389   9.041 -0.5442 -0.7106 -0.8459
62571SOL     OW93675   5.987   1.746   1.780 -0.3475  0.1007  0.3222
62571SOL    HW193676   6.081   1.732   1.789  0.0186  2.9406  1.9348
62571SOL    HW293677   5.949   1.658   1.791  1.9796 -0.7792  2.1047
62572SOL     OW93678   7.895   7.050   1.011 -0.5285 -0.3760  0.5454
62572SOL    HW193679   7.951   6.984   0.972 -1.0338 -0.4399 -0.0837
62572SOL    HW293680   7.955   7.119   1.039 -0.1552 -0.3414 -0.3192
62573SOL     OW93681   7.046   5.542   1.948  0.4252  0.1081  0.3421
62573SOL    HW193682   6.985   5.472   1.970 -1.3611  1.3672 -0.3874
62573SOL    HW293683   7.048   5.598   2.025  2.2184 -0.9013  1.1107
62574SOL     OW93684   4.868   8.770   8.099  0.1867 -0.2058  0.5175
62574SOL    HW193685   4.900   8.768   8.189 -0.1100  0.1586  0.6316
62574SOL    HW293686   4.835   8.681   8.084  0.8232 -0.4563  0.5495
62575SOL     OW93687  10.548   3.574   2.389  0.0705 -0.0898  0.2858
62575SOL    HW193688  10.457   3.592   2.365 -0.2396  0.5187  1.7734
62575SOL    HW293689  10.597   3.647   2.352 -0.0875 -0.2656 -0.2738
62576SOL     OW93690   8.987   7.190   3.608 -0.1973  0.1876  0.2438
62576SOL    HW193691   9.053   7.250   3.642  1.9576 -2.3938  1.0368
62576SOL    HW293692   9.024   7.103   3.623 -3.2094 -1.4011 -0.5884
62577SOL     OW93693   3.665   8.135  12.333 -0.2581 -0.2451  0.0307
62577SOL    HW193694   3.584   8.142  12.384 -0.5839 -0.7198 -0.4113
62577SOL    HW293695   3.666   8.214  12.279  0.3447  0.5187  1.1173
62578SOL     OW93696   7.976   2.325   1.849 -0.7785  0.0077  0.3933
62578SOL    HW193697   7.923   2.333   1.769 -0.1270 -1.8003 -0.2883
62578SOL    HW293698   8.028   2.246   1.835 -1.1185 -0.7553  2.9020
62579SOL     OW93699   5.161   2.005   6.691  0.2690  0.7127  0.2985
62579SOL    HW193700   5.157   2.019   6.596  0.5897  2.6829  0.5338
62579SOL    HW293701   5.115   2.080   6.728 -0.8737 -0.6166  1.7080
62580SOL     OW93702   4.402  10.664  12.479 -0.3845  0.4898  0.5805
62580SOL    HW193703   4.420  10.716  12.557  0.6538  0.9926  0.0150
62580SOL    HW293704   4.474  10.602  12.474 -0.1655  0.7962 -0.2482
62581SOL     OW93705   8.494   1.039   4.852 -0.1081  0.5355 -0.5595
62581SOL    HW193706   8.419   1.036   4.793 -0.2332  0.0699 -0.3830
62581SOL    HW293707   8.521   0.948   4.860 -0.2120  0.5680  0.2498
62582SOL     OW93708   4.930  12.283   0.327 -0.2052 -0.5650  0.3011
62582SOL    HW193709   4.979  12.301   0.407  1.4081 -1.9287 -0.3099
62582SOL    HW293710   4.908  12.190   0.334 -0.1235 -0.6727 -0.7937
62583SOL     OW93711   7.703   0.563   0.296  0.2047  0.1900  0.0133
62583SOL    HW193712   7.754   0.549   0.216  1.2365  1.8873  0.3098
62583SOL    HW293713   7.701   0.477   0.338 -0.1765 -0.6932 -1.7026
62584SOL     OW93714   4.925  10.134   4.276 -0.0703 -0.0820 -0.1697
62584SOL    HW193715   4.980  10.184   4.215  0.9822  0.7212  1.3387
62584SOL    HW293716   4.986  10.072   4.317 -1.1531 -1.9298 -1.2571
62585SOL     OW93717   6.917   4.140   5.469  0.4817  0.1371  0.1197
62585SOL    HW193718   6.956   4.227   5.454  0.0145  0.9167  2.8088
62585SOL    HW293719   6.963   4.082   5.409  2.3329  1.8820 -0.2482
62586SOL     OW93720   4.974   0.528  10.742 -0.6022  0.0915 -0.5551
62586SOL    HW193721   4.938   0.442  10.720 -0.2101 -0.0294 -0.7392
62586SOL    HW293722   4.901   0.588  10.733 -1.1361 -0.3640  0.5607
62587SOL     OW93723   8.461  11.223  12.292  0.6423  0.5447 -0.4595
62587SOL    HW193724   8.492  11.223  12.383  1.3471  1.9225 -0.6591
62587SOL    HW293725   8.456  11.131  12.268 -2.6651 -0.0642  1.9598
62588SOL     OW93726   5.194   9.114   5.128  0.0640  0.1719 -0.5555
62588SOL    HW193727   5.240   9.143   5.206 -1.1379  0.5990  0.0119
62588SOL    HW293728   5.239   9.158   5.056  1.4275 -0.5204 -0.1776
62589SOL     OW93729   0.593  10.333   4.860  0.0735  0.1122  0.0962
62589SOL    HW193730   0.596  10.238   4.855 -1.8651  0.0540 -0.7204
62589SOL    HW293731   0.548  10.360   4.781  0.1003  1.6877  0.5821
62590SOL     OW93732   1.918   5.985   1.453 -0.0430  0.2535  0.5000
62590SOL    HW193733   1.895   5.893   1.459 -0.8019  0.4160  0.0951
62590SOL    HW293734   1.996   5.987   1.397 -0.2901 -0.0949  0.1455
62591SOL     OW93735   0.982   0.440   8.854  0.0772  0.0529  0.1373
62591SOL    HW193736   1.049   0.445   8.786  0.1465 -3.1535 -0.2096
62591SOL    HW293737   0.901   0.422   8.806 -0.4141  0.6118  0.7479
62592SOL     OW93738   0.009   5.387   7.958  0.4990 -0.0549  0.5131
62592SOL    HW193739   0.026   5.305   7.911 -1.0532 -0.5046  0.6695
62592SOL    HW293740   0.035   5.369   8.048 -0.5610 -0.6720  0.7165
62593SOL     OW93741  12.305   5.687   7.298  0.0817  1.1097 -0.4935
62593SOL    HW193742  12.378   5.678   7.236  0.8010 -0.5131  0.5247
62593SOL    HW293743  12.228   5.664   7.247  0.5903  0.4030 -0.9691
62594SOL     OW93744   7.186  11.434   3.381 -0.9313 -0.1205  0.1059
62594SOL    HW193745   7.210  11.343   3.401  0.2309 -0.1522 -1.3178
62594SOL    HW293746   7.152  11.431   3.292  1.6770  1.1937 -1.0365
62595SOL     OW93747   0.301   9.102   9.715 -0.1121 -0.0361  0.6212
62595SOL    HW193748   0.293   9.196   9.696  0.0262  0.2268  1.7685
62595SOL    HW293749   0.368   9.097   9.784  0.0053 -0.9933  0.4514
62596SOL     OW93750   7.983   3.915   1.696  0.2138  0.6230  0.1968
62596SOL    HW193751   7.969   3.996   1.647  2.6233  1.1517  0.2514
62596SOL    HW293752   7.972   3.846   1.632 -0.7790  1.0557 -0.1113
62597SOL     OW93753   0.392   5.464   4.883  0.5934 -0.3795  0.8725
62597SOL    HW193754   0.326   5.502   4.941  1.0687  3.2942 -0.6979
62597SOL    HW293755   0.345   5.444   4.802  1.2578  2.3125 -0.2759
62598SOL     OW93756   4.788   5.459   2.487 -0.6315 -0.4860  0.1692
62598SOL    HW193757   4.740   5.444   2.569 -1.2132  2.4364  0.5015
62598SOL    HW293758   4.860   5.517   2.513  0.2867 -1.0294 -1.0980
62599SOL     OW93759  10.317  12.139   8.745 -0.0311  0.1294 -0.0643
62599SOL    HW193760  10.388  12.164   8.805 -0.5855 -0.6956  0.9665
62599SOL    HW293761  10.326  12.045   8.734 -1.1011 -0.0307  0.2746
62600SOL     OW93762   9.291   9.758   2.442 -0.5561  0.2306  0.0178
62600SOL    HW193763   9.232   9.705   2.495 -0.7674  0.5922  0.1445
62600SOL    HW293764   9.287   9.719   2.355  0.0662 -0.5919  0.3431
62601SOL     OW93765  11.127   1.994   7.111 -0.9206 -0.0630 -0.4126
62601SOL    HW193766  11.187   2.051   7.063  0.9482 -1.7795 -0.2213
62601SOL    HW293767  11.070   1.957   7.044 -0.2789 -0.1461 -0.9183
62602SOL     OW93768   4.717   3.360   3.550 -0.7518 -0.4578  0.1802
62602SOL    HW193769   4.689   3.337   3.639  0.7781 -0.6405  0.6438
62602SOL    HW293770   4.650   3.420   3.519 -2.2232 -1.7207  0.8059
62603SOL     OW93771   5.510   4.829   6.197 -0.8475 -0.0145  0.5421
62603SOL    HW193772   5.454   4.788   6.131 -0.5216  0.8503 -0.2950
62603SOL    HW293773   5.489   4.922   6.192  2.2322  0.7080 -1.4548
62604SOL     OW93774   5.306   2.878   8.075  0.3018  0.2023  0.4344
62604SOL    HW193775   5.361   2.825   8.017  0.4310  0.4529  0.3292
62604SOL    HW293776   5.241   2.816   8.109  1.0809 -0.2554  1.1156
62605SOL     OW93777   3.019   2.799   5.624  0.1738 -0.3455 -0.5856
62605SOL    HW193778   3.079   2.835   5.689 -1.7256  2.0968 -0.0362
62605SOL    HW293779   2.971   2.730   5.671  1.6077 -1.4443 -0.6716
62606SOL     OW93780   6.096   1.035   3.533 -0.4170  0.1329 -0.3388
62606SOL    HW193781   6.153   0.961   3.513 -0.7786 -0.5643  1.1440
62606SOL    HW293782   6.125   1.065   3.619 -1.3996  0.6287 -0.1715
62607SOL     OW93783   7.662   6.977   8.580 -0.2371  0.1392  0.7162
62607SOL    HW193784   7.616   7.018   8.654  0.5033 -0.8004  1.7217
62607SOL    HW293785   7.694   7.051   8.529  2.4171  1.0172  3.3201
62608SOL     OW93786   5.094  12.391   1.854  0.1366 -0.5646 -0.3926
62608SOL    HW193787   5.165  12.447   1.822  0.1471 -0.0404  0.5329
62608SOL    HW293788   5.033  12.386   1.780  0.1767  0.6006 -0.5253
62609SOL     OW93789   5.828  12.107   4.811  0.3200  0.6225 -0.2002
62609SOL    HW193790   5.892  12.080   4.745  0.8845 -1.0544  0.9760
62609SOL    HW293791   5.880  12.115   4.892 -0.9228 -0.6395  0.7520
62610SOL     OW93792   3.290   2.755   9.733 -0.0691  0.3339  0.5075
62610SOL    HW193793   3.290   2.682   9.671 -1.7965  1.7352 -1.2538
62610SOL    HW293794   3.256   2.718   9.814 -0.3917 -0.9469 -0.1895
62611SOL     OW93795   5.204   6.224  12.070  0.2268 -0.1089  0.0331
62611SOL    HW193796   5.203   6.242  11.976 -0.3016 -0.2153  0.0168
62611SOL    HW293797   5.136   6.282  12.106  1.3233  0.9222  0.5355
62612SOL     OW93798   0.122   5.199  12.132 -0.2778  0.4007  0.2233
62612SOL    HW193799   0.118   5.179  12.225 -2.6368 -0.4891 -0.0107
62612SOL    HW293800   0.049   5.151  12.093 -0.5951  2.3341 -1.7841
62613SOL     OW93801   3.236   8.015   1.643 -0.4564  0.6006 -0.2561
62613SOL    HW193802   3.199   8.068   1.714 -1.1283  0.3143 -0.3903
62613SOL    HW293803   3.296   8.075   1.598 -1.6104  1.4506 -0.7403
62614SOL     OW93804   0.543   5.068   2.017 -0.0959 -0.2048 -0.1581
62614SOL    HW193805   0.548   5.126   1.941 -1.4501  2.2119  1.4574
62614SOL    HW293806   0.632   5.065   2.051  0.0874  0.5919 -0.5455
62615SOL     OW93807   7.966   6.020   0.692  0.0060  0.2125 -0.7183
62615SOL    HW193808   7.918   6.084   0.639 -2.9089 -0.2105  1.1853
62615SOL    HW293809   7.898   5.960   0.723  1.9407 -0.9711  1.4727
62616SOL     OW93810   8.399   3.103   4.740  0.6150 -0.2525 -0.4008
62616SOL    HW193811   8.308   3.104   4.709  0.6207 -2.3926 -0.5900
62616SOL    HW293812   8.397   3.158   4.819 -0.5355  0.8242 -1.1315
62617SOL     OW93813   1.229   2.987   8.699 -0.6707 -0.7928 -0.1622
62617SOL    HW193814   1.293   2.941   8.753 -0.5690 -0.6116 -0.1250
62617SOL    HW293815   1.151   2.932   8.700 -1.0652 -0.2319  1.1134
62618SOL     OW93816   9.811  10.289   1.968  0.4437 -0.4311  0.1619
62618SOL    HW193817   9.720  10.318   1.971  0.7937  0.6688  0.6356
62618SOL    HW293818   9.827  10.272   1.875 -0.1323 -0.2591  0.0264
62619SOL     OW93819   9.225   3.726   6.827 -0.0231  0.0841  0.1462
62619SOL    HW193820   9.205   3.736   6.920  0.3613 -1.0768  0.3683
62619SOL    HW293821   9.320   3.737   6.822  0.0463 -0.5576  0.0018
62620SOL     OW93822   7.367  10.149   3.368 -0.1178  0.4656 -0.2146
62620SOL    HW193823   7.416  10.206   3.428  2.6475 -0.7528 -1.1270
62620SOL    HW293824   7.308  10.099   3.424  1.1137  0.6093  1.2595
62621SOL     OW93825   4.801   0.921   4.403  0.2292  0.1790  0.9050
62621SOL    HW193826   4.721   0.868   4.399 -0.4768  1.2156 -3.5006
62621SOL    HW293827   4.770   1.011   4.408  1.2171  0.5156  1.1520
62622SOL     OW93828  12.365  11.560   8.067 -0.1602 -0.5446  0.2813
62622SOL    HW193829  12.451  11.522   8.087  0.8304  1.4493  0.0465
62622SOL    HW293830  12.323  11.570   8.153  1.2714  1.6127  0.7886
62623SOL     OW93831  12.000   1.724   6.054  0.5660 -0.2001 -0.0694
62623SOL    HW193832  12.080   1.695   6.098 -0.8380 -0.0982  2.8043
62623SOL    HW293833  12.002   1.819   6.062  1.0821 -0.0103 -1.8836
62624SOL     OW93834   1.540   4.509   7.686  0.2151 -0.1215  0.1740
62624SOL    HW193835   1.524   4.441   7.621 -0.5432  0.9105 -0.7716
62624SOL    HW293836   1.557   4.588   7.634  0.3956  0.5497  1.2319
62625SOL     OW93837   4.677   9.609   9.244  0.1506 -0.1485  0.4993
62625SOL    HW193838   4.586   9.622   9.269 -0.1622 -1.7613  0.3215
62625SOL    HW293839   4.727   9.636   9.322 -0.3533  1.9866  0.1456
62626SOL     OW93840   5.039   5.734  12.034 -0.7965 -0.1495 -0.1101
62626SOL    HW193841   5.056   5.647  12.071  1.6496  1.0945  1.9972
62626SOL    HW293842   5.060   5.724  11.941 -1.4142 -2.0002 -0.0991
62627SOL     OW93843   6.623   0.827  12.271 -0.8188 -0.3180 -0.2945
62627SOL    HW193844   6.641   0.779  12.351  1.4965  0.3343 -0.3307
62627SOL    HW293845   6.628   0.919  12.297 -1.6566 -0.0944 -0.8903
62628SOL     OW93846   2.597   5.920   2.634 -0.6833  0.2515  0.2298
62628SOL    HW193847   2.588   5.865   2.712  0.2130 -1.0245 -0.5353
62628SOL    HW293848   2.690   5.919   2.613 -0.8919  0.6710 -0.8017
62629SOL     OW93849  12.075   8.325   1.427 -0.1712 -0.4264  0.6271
62629SOL    HW193850  12.134   8.281   1.488  1.6523 -0.2478 -0.9307
62629SOL    HW293851  11.993   8.275   1.433  0.7500 -1.9295  1.4018
62630SOL     OW93852   9.476   2.376   4.287  0.1731  0.0136 -0.3357
62630SOL    HW193853   9.431   2.299   4.322  0.2742  0.1684  0.1390
62630SOL    HW293854   9.416   2.449   4.304 -0.0029  0.0134 -0.9495
62631SOL     OW93855   7.938  11.927   8.070  0.2660  0.5068 -0.2052
62631SOL    HW193856   7.939  11.940   8.165 -1.2901  0.3390 -0.1470
62631SOL    HW293857   7.956  12.013   8.033  0.6872  0.6074  0.2272
62632SOL     OW93858   8.735   5.357   2.211  0.0468 -0.0174 -0.6143
62632SOL    HW193859   8.754   5.304   2.288  1.4980 -2.2789 -2.4030
62632SOL    HW293860   8.791   5.434   2.220 -2.5805  1.7971  2.3542
62633SOL     OW93861   8.940   5.481   6.571  0.2772 -0.4080  0.5703
62633SOL    HW193862   8.890   5.416   6.522  1.2462 -1.0861  0.4484
62633SOL    HW293863   8.874   5.542   6.605 -0.3875  0.5325 -2.1852
62634SOL     OW93864   9.524   0.864   4.853 -0.5107  0.9011 -0.1549
62634SOL    HW193865   9.540   0.813   4.932 -0.6998 -0.0414 -0.7039
62634SOL    HW293866   9.447   0.918   4.874  0.1706  1.5773  0.7025
62635SOL     OW93867   7.444   8.125  11.554 -0.6616 -0.7209  0.1112
62635SOL    HW193868   7.525   8.095  11.596 -0.5703  0.6331  0.9655
62635SOL    HW293869   7.470   8.203  11.504 -1.3818 -0.4400  0.1669
62636SOL     OW93870  11.143   1.824   9.755  0.0442  0.3007 -0.4958
62636SOL    HW193871  11.202   1.814   9.830 -1.6275 -1.7425  0.6549
62636SOL    HW293872  11.139   1.919   9.741  3.6837  0.5198 -0.8001
62637SOL     OW93873  11.328   6.059  10.668 -0.1099  0.0769  0.0996
62637SOL    HW193874  11.285   6.047  10.753 -2.0343  0.2875 -0.7863
62637SOL    HW293875  11.256   6.069  10.606  1.2560  0.9314 -1.4349
62638SOL     OW93876   7.393   0.130  10.587 -0.3639  0.0553  0.0492
62638SOL    HW193877   7.368   0.214  10.547 -2.4541 -0.2545  0.5854
62638SOL    HW293878   7.342   0.126  10.668 -0.0960 -1.6150  0.1673
62639SOL     OW93879   2.016  12.365   0.530 -0.2362  0.5397  0.2720
62639SOL    HW193880   2.104  12.334   0.510 -1.0862 -0.9561 -1.4593
62639SOL    HW293881   1.986  12.406   0.449 -1.3040  0.6194  0.6929
62640SOL     OW93882   0.837   9.726   7.041  0.7089  0.1389 -0.6378
62640SOL    HW193883   0.874   9.716   6.953 -0.0027  1.9239 -1.1857
62640SOL    HW293884   0.799   9.813   7.041 -1.1682 -0.6060  0.7718
62641SOL     OW93885   3.737  11.484   0.053  0.0056  0.0063  0.2030
62641SOL    HW193886   3.819  11.453   0.091  0.3883  1.8576  1.0002
62641SOL    HW293887   3.672  11.474   0.123 -0.3900 -1.0852 -0.2969
62642SOL     OW93888   3.022   5.005   9.742  0.0007  0.1293  0.0723
62642SOL    HW193889   3.080   4.933   9.719  0.6228 -0.1779  2.3979
62642SOL    HW293890   3.009   4.996   9.836 -1.5632  1.8669  0.0703
62643SOL     OW93891   1.358  10.380  11.295  0.4996 -0.1058  0.1255
62643SOL    HW193892   1.370  10.351  11.386  1.5285 -0.2111 -0.0271
62643SOL    HW293893   1.439  10.428  11.275 -0.3435  1.2119 -0.2613
62644SOL     OW93894   2.951   3.892   5.794 -0.6656  0.2231 -0.2298
62644SOL    HW193895   2.863   3.917   5.769 -1.1179 -2.0680 -1.2225
62644SOL    HW293896   2.942   3.802   5.827  1.3653 -0.3551 -1.0705
62645SOL     OW93897  10.847  10.804   6.737  0.2059 -0.1284  0.4422
62645SOL    HW193898  10.823  10.746   6.665  1.7874 -0.5819  0.2381
62645SOL    HW293899  10.862  10.889   6.696 -1.2778  0.2300  0.6139
62646SOL     OW93900   9.974   6.821   1.838 -0.4710  0.0533 -0.7768
62646SOL    HW193901   9.912   6.847   1.906 -0.5767 -0.8072 -0.5320
62646SOL    HW293902  10.060   6.831   1.879 -0.5361 -0.5071 -0.4941
62647SOL     OW93903   3.395  10.262   9.381 -0.2788  0.2048 -0.2008
62647SOL    HW193904   3.464  10.200   9.357 -0.6715  0.1170 -1.1288
62647SOL    HW293905   3.404  10.334   9.318  0.7260  1.5358  1.3896
62648SOL     OW93906   4.285  11.539   6.606 -0.5453  0.6959 -0.1659
62648SOL    HW193907   4.303  11.480   6.532 -1.6266 -1.9405  1.5285
62648SOL    HW293908   4.358  11.600   6.607  0.9559 -0.9689 -1.7184
62649SOL     OW93909   2.995   2.374   7.088 -0.2405  0.9719  0.2480
62649SOL    HW193910   3.046   2.296   7.066 -0.6320  0.5878  0.6797
62649SOL    HW293911   2.921   2.341   7.139 -0.1388  1.6787  0.8665
62650SOL     OW93912   2.277   3.799   6.097 -0.3272  0.4422  0.1722
62650SOL    HW193913   2.303   3.868   6.158  1.2151  1.0708 -1.1471
62650SOL    HW293914   2.182   3.806   6.093 -0.4074  0.9004  1.8729
62651SOL     OW93915  11.343   1.534   5.901  0.5658  0.8918 -0.0949
62651SOL    HW193916  11.429   1.552   5.940  0.9897 -1.9493  0.5133
62651SOL    HW293917  11.288   1.511   5.975 -0.5453  1.8580 -0.5809
62652SOL     OW93918   4.845   4.775   9.384 -0.1893 -0.5655  0.0691
62652SOL    HW193919   4.885   4.696   9.347  0.3926 -1.0088  1.5659
62652SOL    HW293920   4.868   4.845   9.323  1.4191 -1.1251 -0.0169
62653SOL     OW93921   6.735   2.870   1.221  0.1123  0.0102 -0.7167
62653SOL    HW193922   6.712   2.937   1.285  0.1045  1.1286 -1.8397
62653SOL    HW293923   6.686   2.895   1.142  1.4077 -0.3658 -1.6636
62654SOL     OW93924   6.664   6.046   8.721 -0.5224 -0.2501  0.0138
62654SOL    HW193925   6.607   6.050   8.798 -0.8786 -2.7814 -0.0407
62654SOL    HW293926   6.746   6.010   8.754 -0.0619  0.3218 -0.4909
62655SOL     OW93927  12.296   9.943  12.137 -0.1004 -0.0018  0.3794
62655SOL    HW193928  12.284  10.016  12.198 -0.5952  1.9001 -1.8542
62655SOL    HW293929  12.226   9.882  12.160 -2.5519  2.2990 -0.4117
62656SOL     OW93930   0.441   2.878   7.603 -0.2728  0.0370  0.6174
62656SOL    HW193931   0.453   2.915   7.516  1.8410  0.3870  0.9906
62656SOL    HW293932   0.446   2.783   7.589  0.1587  0.0939  0.3620
62657SOL     OW93933   9.707   0.666   1.927 -0.4240 -0.0049  0.4155
62657SOL    HW193934   9.705   0.706   2.014  1.1696  0.6184  0.1921
62657SOL    HW293935   9.659   0.728   1.872 -1.1961 -0.2654  0.7674
62658SOL     OW93936   1.976   4.715   8.971 -0.3825 -0.0377 -0.0263
62658SOL    HW193937   2.026   4.635   8.987 -0.4955 -0.1010  0.0189
62658SOL    HW293938   1.885   4.686   8.974 -0.4043 -0.0482 -0.8161
62659SOL     OW93939  10.857  11.835   5.030  0.4608  0.1393 -0.2553
62659SOL    HW193940  10.857  11.835   5.125 -0.1513 -1.4135 -0.2192
62659SOL    HW293941  10.775  11.790   5.006  0.0666  1.4576 -1.5345
62660SOL     OW93942   3.941  12.050   7.245  0.0422  0.4061 -0.0888
62660SOL    HW193943   3.908  12.049   7.155 -0.5246  1.6869  0.0819
62660SOL    HW293944   3.891  11.982   7.290 -0.1353  0.2053 -0.5834
62661SOL     OW93945   5.658   0.720   7.981 -0.4948 -0.2691  0.3965
62661SOL    HW193946   5.577   0.680   8.009 -0.4584 -0.2872  0.4745
62661SOL    HW293947   5.724   0.689   8.043 -0.5291  0.1753  0.6630
62662SOL     OW93948   6.041   1.048  11.383 -0.2756 -0.3065  0.2952
62662SOL    HW193949   6.080   0.963  11.402 -1.0070 -0.5030  0.9487
62662SOL    HW293950   5.949   1.039  11.409 -0.3357  0.7171  0.4779
62663SOL     OW93951  10.985   9.258  12.461 -0.5410  0.5388 -0.0177
62663SOL    HW193952  11.034   9.301  12.531  2.1092 -1.2649 -0.5954
62663SOL    HW293953  10.939   9.186  12.505  1.0804 -0.5620 -0.0145
62664SOL     OW93954   8.244   5.153   0.959 -0.2279  0.0956  0.5642
62664SOL    HW193955   8.322   5.208   0.951 -1.6663  2.1027 -0.6181
62664SOL    HW293956   8.273   5.077   1.010  2.5842  0.5320 -0.2111
62665SOL     OW93957   7.391  11.144  10.333  0.3227 -0.3784  0.4519
62665SOL    HW193958   7.344  11.227  10.331 -0.1117 -0.6113  0.8485
62665SOL    HW293959   7.456  11.151  10.262 -1.2779 -0.6256 -1.0993
62666SOL     OW93960  10.080   8.862   5.266  0.2767  0.0113  0.3568
62666SOL    HW193961  10.007   8.832   5.320 -1.3211  2.9994  0.0788
62666SOL    HW293962  10.040   8.880   5.180  1.9041 -0.6672 -0.5945
62667SOL     OW93963   0.523   5.566   1.393  0.1891 -0.3375 -0.0786
62667SOL    HW193964   0.442   5.605   1.361  0.4724 -1.0221 -1.6914
62667SOL    HW293965   0.593   5.611   1.346  0.8011  0.3914  1.4416
62668SOL     OW93966   7.475   0.149   4.875  0.5067  0.2176  0.0032
62668SOL    HW193967   7.500   0.084   4.809  2.2400 -0.8180  1.5975
62668SOL    HW293968   7.410   0.204   4.830  1.2071 -0.7487 -2.3674
62669NA      NA93969   1.713   1.653   3.174 -0.0317 -0.2664 -0.7334
62670NA      NA93970   5.698   4.686   8.068  0.3041  0.0759 -0.1862
62671NA      NA93971  11.082  10.675   2.169 -0.1229  0.2258  0.2909
62672NA      NA93972   8.834   7.211   8.070 -0.5072 -0.3542 -0.2057
62673NA      NA93973   9.207   1.994   2.701 -0.5357 -0.1858 -0.1506
62674NA      NA93974   3.386   6.618  11.416 -0.1787 -0.5086 -0.1961
62675NA      NA93975  10.110   8.182   9.812  0.3010 -0.1763  0.4142
62676NA      NA93976  11.106   5.256  11.361 -0.0997  0.5524  0.7194
62677NA      NA93977   7.056   5.781   1.546  0.0826 -0.1328  0.5743
62678NA      NA93978   5.079   2.094  10.658 -0.0530  0.2133 -0.0972
62679NA      NA93979  10.886   0.897   5.621 -0.3457  0.2003  0.5032
62680NA      NA93980   2.535   4.041   4.644 -0.0501  0.1383 -0.1686
62681NA      NA93981  11.730   4.742   5.712 -0.2126  0.3370 -0.0143
62682NA      NA93982  11.126  10.387   5.594 -0.3340  0.3056 -0.1305
62683NA      NA93983  11.734   6.454   6.433 -0.3660 -0.3186 -0.3838
62684NA      NA93984   8.763   2.772  10.836 -0.3490  0.2263  0.3928
62685NA      NA93985   0.151  10.027  10.962  0.5759  0.1013  0.4671
62686NA      NA93986   8.263   4.860   3.138  0.2113 -0.2061 -0.1279
62687NA      NA93987   4.377   6.676   4.065 -0.2326  0.0029  0.1650
62688NA      NA93988  10.417  12.460   4.980  0.0481  0.0241 -0.4018
62689NA      NA93989  10.007   4.446   3.338  0.2524 -0.3464  0.6356
62690NA      NA93990   4.054   4.694   3.343  0.2519  0.4434 -0.1203
62691NA      NA93991   3.455   7.083   3.729  0.4742  0.1421  0.8146
62692NA      NA93992   7.987   2.819   4.196 -0.0290 -0.1183  0.6146
62693NA      NA93993   3.870   9.505   3.696  0.0408  0.0546 -0.1468
62694NA      NA93994   8.100   2.780   9.099  0.3318  0.1722  0.1423
62695NA      NA93995   1.422   4.359   6.392  0.0686 -0.1490 -0.0221
62696NA      NA93996   0.312  11.719  11.968 -0.1193 -0.0288  0.0329
62697NA      NA93997   8.934   1.996   8.000 -0.1805  0.0256  0.3525
62698NA      NA93998  11.866   6.170   9.892 -0.3794 -0.0376  0.2851
62699NA      NA93999   1.310  12.231   6.314  0.4715 -0.1728  0.1389
62700NA      NA94000   3.590   2.857  11.915 -0.2303 -0.0871  0.2903
62701NA      NA94001  11.686   7.280   8.995 -0.2897  0.3869 -0.6724
62702NA      NA94002  10.092   9.840  12.336 -0.0157 -0.4447  0.0925
62703NA      NA94003   4.864   4.471   6.932 -0.1380 -0.2161 -0.3675
62704NA      NA94004   2.322   6.797   1.426 -0.0649  0.1321  0.1409
62705NA      NA94005  11.400   7.684   9.826  0.2270  0.1142 -0.1858
62706NA      NA94006   3.769   2.580   8.414  0.3747  0.5894  0.2588
62707NA      NA94007   6.416   0.912   8.806  0.0052 -0.3305  0.4559
62708NA      NA94008   9.951  10.850   3.515 -0.7337 -0.2617  0.4079
62709NA      NA94009   6.651   1.983   0.854 -0.0234  0.1706 -0.2661
62710NA      NA94010   3.832   0.487   2.105  0.2053 -0.1234  0.1165
62711NA      NA94011   7.855  11.351   7.912 -0.2474 -0.1556  0.2465
62712NA      NA94012   4.561   8.481   0.757  0.5652 -0.3203  0.0143
62713NA      NA94013   4.952   8.179   3.372 -0.1024 -0.3603  0.3576
62714NA      NA94014   2.444   1.899   9.326  0.1944  0.2561 -0.5320
62715NA      NA94015   1.238  10.545   0.917  0.3420  0.4857 -0.6215
62716NA      NA94016   5.478   6.593   2.681  0.2647 -0.9024  0.2914
62717NA      NA94017   6.645   0.143   1.265  0.3837  0.5808 -0.4816
62718NA      NA94018   4.472   9.253  11.247  0.1762  0.0683  0.4933
62719NA      NA94019  10.211   0.487   7.889  0.3910 -0.2513  0.4187
62720NA      NA94020   5.344   0.091   0.791  0.3906 -0.1648  0.2593
62721NA      NA94021   6.580   6.044  11.975  0.4253  0.1065  0.0953
62722NA      NA94022   0.201  11.053   1.049 -0.2112  0.5474  0.3407
62723NA      NA94023   8.078   0.864   8.347 -0.0935 -0.2655  0.2278
62724NA      NA94024   0.205   5.356   7.396 -0.0257  0.0926  0.1344
62725NA      NA94025   5.432   4.775   1.147  0.3456 -0.2599  0.6147
62726NA      NA94026   1.368   9.370   8.800 -0.0605 -0.1233 -0.0680
62727NA      NA94027  12.082  12.022   6.860  0.2093 -0.2486  0.6522
62728NA      NA94028   2.262  12.334   4.681  0.4052  0.4098  0.2600
62729NA      NA94029   9.402   0.924   1.394 -0.8774 -0.1523  0.4125
62730NA      NA94030  10.905  12.172   2.887 -0.1833  0.0001  0.7811
62731NA      NA94031  10.986   0.170   3.461  0.0961  0.0187  0.0078
62732NA      NA94032   1.639   1.335   3.835 -0.3464 -0.1217  0.0541
62733NA      NA94033  11.088   7.174   4.306  0.4663 -0.0769  0.2537
62734NA      NA94034   6.411  11.034  10.473  0.6684  0.1761  0.9080
62735NA      NA94035  11.223   2.341   7.467  0.1558  0.9320  0.4955
62736NA      NA94036   4.444   7.776   0.314  0.1114  0.0071  0.9062
62737NA      NA94037   6.540   7.403  11.196  0.4509  0.0429  0.5948
62738NA      NA94038   0.932   2.091   8.562 -0.2738  0.8200 -0.3298
62739NA      NA94039   4.481  10.681   2.711  0.2710 -0.0240 -0.1000
62740NA      NA94040   2.999   3.124  10.405 -0.1685 -0.1656 -0.2487
62741NA      NA94041   2.767   3.207   7.964  0.3628  0.1955  0.2277
62742NA      NA94042   1.532   4.478   5.188  0.2941 -0.4144  0.0311
62743NA      NA94043   9.216   0.710   0.471 -0.2999 -0.2389  0.2550
62744NA      NA94044   9.765   1.033   9.244 -0.2870 -0.2430  0.2888
62745NA      NA94045  11.081   4.909   6.464  0.1175  0.2217  0.6511
62746NA      NA94046   2.127   9.171   4.515  0.1158 -0.4790  0.2238
62747NA      NA94047   2.792   9.971   1.765  0.1077 -0.0516 -0.4693
62748NA      NA94048   1.218   2.307   0.206 -0.2401 -0.1147 -0.5103
62749NA      NA94049   7.571   5.721  12.210 -0.2951  0.0065  0.1075
62750NA      NA94050   0.838   0.506   1.316 -0.5616  0.0595  0.2586
62751NA      NA94051   7.250   0.899   3.836 -0.0451 -0.6181 -0.1271
62752NA      NA94052   4.413   9.515   3.413 -0.1678 -0.5407  0.4031
62753NA      NA94053  10.499   9.264   9.826 -0.3773  0.6047  0.1737
62754NA      NA94054  11.142   9.125   2.185  0.6150  0.0639 -0.1983
62755NA      NA94055   1.518   9.204  10.448 -0.3333  0.1437 -0.8095
62756NA      NA94056   2.033   2.526  12.029 -0.0951  0.0406 -0.2117
62757NA      NA94057   1.495   8.077   4.178 -0.4316  0.5672  0.4226
62758NA      NA94058  11.438   5.656   6.335 -0.1237  0.1907 -0.7002
62759NA      NA94059   4.549  11.329  10.611 -0.0035 -0.1174 -0.6339
62760NA      NA94060  10.453   4.974  10.435 -0.1838 -0.0551  0.3258
62761NA      NA94061   3.537   0.840   7.617  0.5871 -0.1159 -0.2047
62762NA      NA94062  11.146   0.405   6.351 -0.0860 -0.1893 -0.1403
62763NA      NA94063   9.024  10.216   7.091 -0.6457 -0.0684  0.0987
62764NA      NA94064  12.052   0.291   7.397  0.1241  0.1937  0.2560
62765NA      NA94065   9.707   9.355  10.637 -0.5624 -0.1893  0.0759
62766NA      NA94066   7.610  10.538  11.613 -0.0214  0.5084  0.1088
62767NA      NA94067   2.513   0.167  10.422 -0.2606  0.3149 -0.2620
62768NA      NA94068   2.609   5.278   0.006  0.9868 -0.0107 -0.3450
62769NA      NA94069   7.291   5.724   9.248 -0.1385  0.1856  0.3279
62770NA      NA94070   9.996   5.274   6.713 -0.4320  0.1418  0.0807
62771NA      NA94071   4.315   6.535   0.859 -0.0802 -0.5542  0.1579
62772NA      NA94072   2.946   5.753  11.440  0.0284 -0.0494 -0.1576
62773NA      NA94073   6.270   3.149  11.763 -0.0741  0.2405  0.3047
62774NA      NA94074  11.940  11.430   2.159 -0.8127 -0.1862  0.1593
62775NA      NA94075   3.720   6.733   2.063 -0.0109 -0.6258  0.4328
62776NA      NA94076   2.675   4.389  10.980 -0.3353 -0.0781 -0.4163
62777NA      NA94077   6.587   5.578   0.364  0.1252  0.1807 -0.6589
62778NA      NA94078   5.609  10.507  10.642 -0.7182 -0.4650 -0.0610
62779NA      NA94079   0.566   9.439   6.874  0.0959 -0.2307 -0.4672
62780NA      NA94080  11.464   8.938   0.988 -0.3260  0.3744 -0.2096
62781NA      NA94081   4.144   6.801  10.281 -0.3943 -0.1928 -0.1747
62782NA      NA94082   0.228   7.567  10.762  0.2856  0.2388 -0.1652
62783NA      NA94083   2.520   1.521   3.751  0.2772 -0.8303  0.1496
62784NA      NA94084  10.478  10.923   2.583 -0.5722 -0.1702 -0.0628
62785NA      NA94085   3.936   2.373   9.629 -0.4959  0.3024  0.2211
62786NA      NA94086   4.367   0.197   3.819  0.1861 -0.1511  0.2753
62787NA      NA94087   8.040   2.351  10.418 -0.0569  0.4252  0.7234
62788NA      NA94088  12.101   4.957   2.854  0.4862  0.6789 -0.2834
62789NA      NA94089   2.015   4.255  10.106 -0.3540 -0.6899  0.2600
62790NA      NA94090  12.371   5.960  10.786  0.2508  0.3860  0.4228
62791NA      NA94091  11.547   0.935   5.191 -0.4863  0.4564  0.1890
62792NA      NA94092   8.274   5.139   1.628 -0.2647  0.1196  0.4117
62793NA      NA94093   0.823   5.691   3.469  0.2586  0.1276  0.7265
62794NA      NA94094   4.674   2.835   7.073  0.2227  0.7081 -0.4172
62795NA      NA94095   7.970   8.112   9.965  0.0408 -0.0471 -0.0425
62796NA      NA94096   9.653   7.701  11.433  0.1211  0.2782  0.3662
62797NA      NA94097  10.473   7.399  11.088  0.1940 -0.1987  0.6432
62798NA      NA94098   0.551   8.811   8.283  0.4599 -0.0841 -0.5774
62799NA      NA94099   9.218   3.153   3.857 -0.2016  0.3366  0.1620
62800NA      NA94100   2.680   5.493   7.894 -0.3254 -0.2729  0.0466
62801NA      NA94101   1.345   8.607   8.654 -0.1287 -0.0513 -0.3035
62802NA      NA94102   5.719   2.024   7.311 -0.4668  0.1225  0.4629
62803NA      NA94103  10.961   8.673   5.275  0.0688  0.0680  0.5414
62804NA      NA94104   6.121   4.295   3.614  0.1333  0.1949  0.3034
62805NA      NA94105   3.261   1.613  11.455 -0.0093  0.2036 -0.1981
62806NA      NA94106   4.273   0.548   7.408  0.0953  0.0449  0.1908
62807NA      NA94107   3.495   7.438   9.982 -0.0190 -0.0412  0.3526
62808NA      NA94108   7.400   2.724   8.591  0.3103 -0.0155  0.1969
62809NA      NA94109  11.076   6.296   0.874  0.0120  0.0843 -0.0008
62810NA      NA94110   8.914   4.772  10.693  0.0036 -0.2188 -0.3133
62811NA      NA94111   2.840  11.759   6.075 -0.0605  0.0313  0.0880
62812NA      NA94112   9.227  11.776   7.564  0.0475  0.0679 -0.0190
62813NA      NA94113   8.660   0.405   2.030  0.0366 -0.1501 -0.2523
62814NA      NA94114   6.300  11.860   5.657 -0.3146 -0.2116  0.4104
62815NA      NA94115   7.827   0.201   5.495  0.0792  0.0981 -0.3429
62816NA      NA94116   3.270   8.466  12.177 -0.3589  0.2327 -0.3443
62817NA      NA94117  10.139   6.406  12.298 -0.1102  0.2162 -0.1452
62818NA      NA94118   0.925  11.705   9.344 -0.0997 -0.0465  0.2168
62819NA      NA94119  11.072   3.974   6.757  0.0817 -0.0973  0.0659
62820NA      NA94120   7.050   2.617   5.829 -0.4182 -0.6054 -0.3662
62821NA      NA94121  11.243  10.553   8.107 -0.6917 -0.1364  0.2493
62822NA      NA94122  10.045  11.169   9.505 -0.3409  0.8453  0.0345
62823NA      NA94123  11.293   5.816   8.118 -0.0681  0.5796  0.1357
62824NA      NA94124   5.846   1.967   1.799  0.2075  0.0246  0.0543
62825NA      NA94125   8.491   9.510   0.836  0.1904  0.2625  0.0296
62826NA      NA94126   0.462  10.025   5.829 -0.2432  0.0251 -0.0121
62827NA      NA94127  12.478  10.452   0.263 -0.2507  0.0673  0.1596
62828NA      NA94128   7.060   3.141   6.101 -0.0890  0.1430 -0.1163
62829NA      NA94129   9.708   8.024   4.220  0.2931  0.0529 -0.2282
62830NA      NA94130   1.411   0.087   7.374  0.0680  0.1496 -0.4145
62831NA      NA94131   2.096  10.083   0.075 -0.1288  0.1126 -0.1271
62832NA      NA94132   0.108  10.775   3.178  0.2493  0.0148 -0.5529
62833NA      NA94133  12.175   8.441   1.253 -0.3324 -0.3851  0.4121
62834NA      NA94134   5.924   3.604  12.131 -0.0828 -0.8296 -0.0985
62835NA      NA94135   9.068   8.072   3.331 -0.3993  0.1197 -0.1392
62836NA      NA94136   5.092  11.725   1.682 -0.1138 -0.0827 -0.2660
62837NA      NA94137   8.065  11.635  10.275 -0.1401  0.3056 -0.5313
62838NA      NA94138   4.232   5.838   5.806  0.6858  0.2135 -0.1653
62839NA      NA94139  10.897   5.285   0.909 -0.5059  0.4302  0.3619
62840NA      NA94140   1.255  10.290   3.673  0.0528  0.0228  0.0108
62841NA      NA94141   6.707   8.407  10.626 -0.2312  0.0626 -0.4611
62842NA      NA94142   8.715   5.172   5.293 -0.1253 -0.3722 -0.0045
62843NA      NA94143   7.252   4.783   2.182  0.1222  0.0498 -0.1980
62844NA      NA94144  12.332  11.052  11.618 -0.2403  0.0465 -0.2132
62845NA      NA94145   7.347   4.471   9.262 -0.1277  0.0159  0.0416
62846NA      NA94146   0.446   4.347   9.058  0.0655 -0.0025  0.2273
62847NA      NA94147   0.239   4.354   1.958 -0.1058 -0.2655 -0.1186
62848NA      NA94148   2.191   0.425   3.174  0.0136  0.6235 -0.3793
62849CL      CL94149  10.247  10.390   4.871 -0.1789 -0.0175 -0.5181
62850CL      CL94150   0.472  11.386   3.228 -0.1857  0.1576 -0.0141
62851CL      CL94151   3.054   6.423   3.107  0.3888  0.2177 -0.2552
62852CL      CL94152  10.867   0.842   3.834  0.5300 -0.0404 -0.0304
62853CL      CL94153   2.994   9.503   8.258 -0.5067  0.0127  0.1323
62854CL      CL94154   7.172   8.324   6.495  0.4927  0.1409  0.5786
62855CL      CL94155   7.087   1.655   8.526  0.0344 -0.4265  0.0092
62856CL      CL94156   3.617   8.961   9.883 -0.0565  0.2185  0.3140
62857CL      CL94157   6.781   6.021   1.793  0.1892 -0.6556  0.0018
62858CL      CL94158  11.901   3.866   8.888 -0.0401  0.1287 -0.6782
62859CL      CL94159   1.894   3.678   7.852  0.1006  0.0988 -0.1491
62860CL      CL94160  11.995   7.025   5.866  0.0274 -0.1902 -0.3410
62861CL      CL94161   3.724   6.179   5.718 -0.4132 -0.1793 -0.2477
62862CL      CL94162   2.861   6.514   9.301 -0.3511  0.2634 -0.0886
62863CL      CL94163   6.620  11.234   9.945 -0.5473 -0.4242 -0.5340
62864CL      CL94164  11.125   0.442   7.164  0.3303 -0.2161  0.2635
62865CL      CL94165  11.005   9.586   2.295 -0.1972 -0.0851 -0.0260
62866CL      CL94166   8.453   9.115   7.145 -0.3306 -0.4715  0.2360
62867CL      CL94167   4.025   6.068   6.673 -0.0450 -0.6191  0.4249
62868CL      CL94168   3.100  10.778   1.213 -0.0553  0.0217 -0.0307
62869CL      CL94169   6.772   8.659   1.512  0.2737  0.1552  0.0973
62870CL      CL94170   6.807   8.695   5.694 -0.1863  0.0330  0.2402
62871CL      CL94171   8.199  12.444   1.942  0.0737 -0.0689 -0.1917
62872CL      CL94172   2.759   5.945   9.695 -0.1211  0.3005  0.6188
62873CL      CL94173   9.541   2.017   5.978  0.0229 -0.5402  0.3688
62874CL      CL94174   4.874   7.728   4.685 -0.0900  0.3845 -0.1887
62875CL      CL94175   1.249   2.443   6.188  0.1500  0.0238 -0.1212
62876CL      CL94176   5.822  12.327   6.997  0.3436 -0.5600  0.0670
62877CL      CL94177   5.120   8.103   9.212  0.2785 -0.4445 -0.0330
62878CL      CL94178   6.696   9.734   1.715  0.5383  0.3519  0.2648
62879CL      CL94179   3.756   8.081   7.695  0.2346 -0.1282 -0.0511
62880CL      CL94180   6.480   8.568  11.982 -0.3407  0.0801 -0.3698
62881CL      CL94181   3.447  11.038   1.508  0.2406  0.0159  0.1052
62882CL      CL94182   4.579  10.797   6.560  0.1029 -0.1393  0.0036
62883CL      CL94183   3.343   7.051  12.493  0.5722 -0.0520  0.2792
62884CL      CL94184   0.269  10.452   8.003 -0.1170  0.0245  0.0969
62885CL      CL94185   5.813   7.696   2.841 -0.5175 -0.2000 -0.0562
62886CL      CL94186   3.075   8.959   9.902 -0.1028  0.0957 -0.1866
62887CL      CL94187   6.805   4.111   5.020  0.2622  0.3914  0.2327
62888CL      CL94188   4.426   8.564   8.890 -0.0177  0.0534  0.1307
62889CL      CL94189   1.669   5.473   7.494  0.0667 -0.1933  0.2677
62890CL      CL94190   9.135   7.044   6.576 -0.7474 -0.0485  0.3041
62891CL      CL94191   6.471   6.548   2.452  0.0103 -0.2946 -0.2205
62892CL      CL94192   3.107  12.262   7.403  0.2237 -0.0871 -0.3082
62893CL      CL94193   3.250   8.124   3.717 -0.3122  0.0907  0.1385
62894CL      CL94194   4.221   9.340   9.692  0.3509  0.0404  0.2820
62895CL      CL94195   3.410   1.735   9.239  0.5263  0.0202  0.0027
62896CL      CL94196   4.842   7.084   8.441  0.2143 -0.0490 -0.1732
62897CL      CL94197   4.487   7.704  11.047  0.2745 -0.0897 -0.3166
62898CL      CL94198   3.328  12.063   5.154 -0.1672 -0.0722 -0.0564
62899CL      CL94199   4.480   3.646   6.862 -0.0203 -0.2682  0.0841
62900CL      CL94200   7.525  10.723   8.035 -0.1061 -0.2826  0.3137
62901CL      CL94201   6.378   5.696   9.777 -0.0869 -0.4855  0.1335
62902CL      CL94202   6.932   7.390   9.650  0.1906  0.5176 -0.4616
62903CL      CL94203   1.406   4.989  12.275  0.2540  0.1577 -0.2233
62904CL      CL94204   5.229   8.750   5.723 -0.1608  0.0269  0.0338
62905CL      CL94205   0.750   8.845   6.139  0.0434  0.1071  0.2159
62906CL      CL94206   4.289   0.699   5.053  0.1924  0.1199  0.3035
62907CL      CL94207   2.440   7.815  11.152 -0.3043  0.1083  0.5400
62908CL      CL94208   3.664   2.492  11.161 -0.2024  0.4147  0.0961
62909CL      CL94209   2.543   7.624   4.593  0.3939 -0.1813  0.3245
62910CL      CL94210   3.485   7.637   5.934 -0.3262  0.0574  0.6401
62911CL      CL94211   9.209  12.231   9.316  0.4041  0.1288 -0.0951
62912CL      CL94212   7.375   4.491   9.017 -0.1165  0.2302  0.1551
62913CL      CL94213   7.509   5.246   7.285 -0.3262 -0.0402 -0.0718
62914CL      CL94214   3.862  12.104   5.596  0.0692 -0.1670  0.0682
62915CL      CL94215   1.262   9.201   5.154  0.0141  0.0494  0.0922
62916CL      CL94216   8.174   5.853   8.767  0.1417 -0.0673  0.1684
62917CL      CL94217   3.465  10.625   7.982  0.2056  0.2275  0.6058
62918CL      CL94218   5.654   7.105   6.458  0.0058 -0.0200 -0.0931
62919CL      CL94219  11.488   3.940   7.020  0.1916  0.2418  0.2996
62920CL      CL94220   2.508   2.856   4.363  0.1088  0.0950  0.3154
62921CL      CL94221   3.850   9.558   7.589 -0.1734 -0.2207 -0.1843
62922CL      CL94222   0.899   5.580   2.297  0.2438 -0.4741 -0.3151
62923CL      CL94223   7.216   7.413   9.160  0.2121  0.1473 -0.3826
62924CL      CL94224  10.951   0.410  11.248 -0.2881  0.0220  0.0642
62925CL      CL94225   2.405   8.173  12.413  0.1095  0.2245 -0.3212
62926CL      CL94226  11.699   7.823  12.083 -0.3329  0.2028  0.1450
62927CL      CL94227   5.599   5.271   6.026  0.0094 -0.2548 -0.4130
62928CL      CL94228  11.958   7.445   9.421  0.3706 -0.1015 -0.3524
62929CL      CL94229   1.980   3.609   5.721 -0.1635 -0.0833  0.0134
62930CL      CL94230   2.579  12.185   6.771 -0.1287  0.0962 -0.3310
62931CL      CL94231   1.437   5.562   9.352  0.2285  0.5169  0.1273
62932CL      CL94232   5.783  10.137   4.232 -0.0836 -0.0734  0.1792
62933CL      CL94233   5.991   5.774   9.249  0.0797  0.6092 -0.2120
62934CL      CL94234   4.612   8.720   5.784  0.3010  0.4726  0.2632
62935CL      CL94235   6.226   5.910   8.311 -0.4504 -0.0669  0.0472
62936CL      CL94236   2.018   8.475   2.804 -0.2477  0.3773 -0.4529
62937CL      CL94237   4.141  10.888   3.044  0.1719  0.1040 -0.2212
62938CL      CL94238   6.378   6.650  11.090 -0.2963  0.2660 -0.0070
62939CL      CL94239  10.603   6.621  11.604  0.5476  0.1668  0.1460
62940CL      CL94240   9.765   8.693   7.665  0.2304  0.0558  0.1883
62941CL      CL94241   6.864   1.722   6.854  0.1474 -0.1146 -0.1617
62942CL      CL94242   5.370   9.246   4.927 -0.0164  0.0848 -0.3821
62943CL      CL94243  12.236  11.065  11.146 -0.0671 -0.0066 -0.5845
62944CL      CL94244   5.366  11.737   6.830 -0.3716 -0.3507 -0.2190
62945CL      CL94245   7.383   8.657   8.429  0.2414 -0.2187  0.1658
62946CL      CL94246   8.016   1.412   3.442 -0.0813  0.3972 -0.0048
62947CL      CL94247   3.764   7.137   6.764 -0.0863  0.1172  0.0996
62948CL      CL94248   6.212  11.602   3.551  0.5546  0.0422 -0.0556
62949CL      CL94249  11.527   2.146   6.844 -0.4862 -0.3677 -0.2584
62950CL      CL94250  11.253   8.567   4.459  0.0072  0.1795  0.1327
62951CL      CL94251   3.635   8.948   6.831  0.0164 -0.0207  0.1966
62952CL      CL94252   6.392  12.280   5.123  0.1868 -0.4758  0.2775
62953CL      CL94253   1.252   9.026   6.014 -0.3749 -0.0018  0.4128
62954CL      CL94254   6.551  12.135   1.878  0.2269  0.0441 -0.0055
62955CL      CL94255   1.365   4.271   9.064 -0.3019 -0.3387  0.1410
62956CL      CL94256  10.549   5.516   1.008  0.1997 -0.5753  0.1739
62957CL      CL94257   8.743   0.797   1.547 -0.1716  0.0030  0.2805
62958CL      CL94258   6.505   1.991   9.001  0.2796  0.0545 -0.3971
62959CL      CL94259   7.133  11.213   4.266  0.1947  0.3122  0.4779
62960CL      CL94260   4.345   2.336   8.692 -0.0901  0.0420 -0.1180
62961CL      CL94261   4.176  11.987  10.299  0.3046  0.3934  0.1056
62962CL      CL94262   2.270   6.719  10.865  0.2058 -0.1369 -0.1253
62963CL      CL94263   6.443  10.047   9.635 -0.2202 -0.0044  0.4026
62964CL      CL94264   1.598  11.065   7.832 -0.4457 -0.0991  0.0657
62965CL      CL94265  11.100  10.757   5.257 -0.3714 -0.0183  0.2148
62966CL      CL94266  11.082  11.992   3.285 -0.0094  0.2607 -0.0064
62967CL      CL94267   5.630  11.016   6.396 -0.4575  0.3817 -0.2854
62968CL      CL94268   7.448   8.331   5.939  0.2371  0.0169 -0.0593
62969CL      CL94269   1.492  12.101   1.459 -0.2224 -0.1618  0.1720
62970CL      CL94270   7.342   3.800   1.995 -0.2543  0.1985 -0.4415
62971CL      CL94271  11.762   4.490   5.728 -0.0568  0.0909 -0.2405
62972CL      CL94272   5.732   8.235  10.268  0.3147 -0.3045 -0.3825
62973CL      CL94273   4.994   6.496   5.806  0.2463  0.0682 -0.3082
62974CL      CL94274  10.126   0.277   3.024  0.0143 -0.2984  0.1651
62975CL      CL94275   7.776  10.614  10.973  0.1293  0.3519 -0.0770
62976CL      CL94276   5.792   7.766   4.439  0.7016  0.1604 -0.0514
62977CL      CL94277   9.326   9.312   2.310  0.0593 -0.1195 -0.2351
62978CL      CL94278   3.265   7.617   4.320  0.2148  0.1138 -0.0371
62979CL      CL94279   5.786  12.414   1.869 -0.3188 -0.1108 -0.0951
62980CL      CL94280  10.588   1.917   4.598 -0.2206  0.3261  0.6205
62981CL      CL94281   3.135   7.198   1.396 -0.1281  0.0744 -0.2195
62982CL      CL94282   3.700   5.197   4.416 -0.4426  0.1083  0.3510
62983CL      CL94283   4.461   7.896  10.631  0.0725  0.0216 -0.5167
62984CL      CL94284   9.139  10.630   6.840  0.1114 -0.4343  0.2221
62985CL      CL94285   8.291   4.042   7.197  0.0242  0.1714 -0.4698
62986CL      CL94286   3.502   1.935  10.817 -0.2579 -0.4178  0.0942
62987CL      CL94287  11.939   7.810   8.795  0.2180  0.1489 -0.0402
62988CL      CL94288   7.826   5.593   6.057 -0.2538 -0.4053  0.2152
62989CL      CL94289   5.784   9.897   9.934  0.1849  0.2749  0.2202
62990CL      CL94290  10.118  11.549   8.692 -0.0169 -0.2443  0.0391
62991CL      CL94291  10.177   7.939  10.772  0.0517 -0.1784 -0.2621
62992CL      CL94292   5.541  12.463   7.460  0.1887 -0.1120 -0.1460
62993CL      CL94293  11.024  10.871   0.749  0.1070 -0.1192  0.0232
62994CL      CL94294   6.309  11.700   0.706 -0.0098  0.1304 -0.0162
62995CL      CL94295   0.798   5.514   3.304  0.2445 -0.4377  0.2134
62996CL      CL94296   7.514   9.984   6.114 -0.3428 -0.1130  0.0498
62997CL      CL94297   8.219   2.627   7.371 -0.0492 -0.3899  0.2720
62998CL      CL94298   8.287   8.774   9.151  0.2926  0.2810  0.3400
62999CL      CL94299  10.567   5.752   8.752 -0.0841  0.2837 -0.2025
63000CL      CL94300   3.359   6.582   5.867  0.3700  0.0378  0.3394
63001CL      CL94301   7.447   2.094  11.495 -0.4490 -0.1856  0.0030
63002CL      CL94302   1.946  11.623   7.648  0.1079 -0.2739 -0.0758
63003CL      CL94303   3.101  12.110   8.687 -0.3103 -0.3219 -0.5789
63004CL      CL94304   0.660   0.355  10.471 -0.1195  0.0834  0.1844
63005CL      CL94305   4.609   9.428   6.434 -0.2907  0.2256 -0.1933
63006CL      CL94306   9.883   6.229   3.293 -0.2335 -0.1254  0.3267
63007CL      CL94307   4.658   7.742   7.973 -0.0030 -0.2222 -0.5254
63008CL      CL94308   2.258   6.322   4.442 -0.1078  0.0841 -0.1638
63009CL      CL94309  12.045   9.499  11.823 -0.4349  0.1778  0.1441
63010CL      CL94310   6.356  10.646   7.379 -0.2247 -0.0303 -0.1087
63011CL      CL94311  11.413  11.385   2.724  0.2825  0.4894  0.2009
63012CL      CL94312   8.708   7.019   7.976 -0.4677  0.2288  0.2154
63013CL      CL94313  11.155   4.498   6.638  0.7000 -0.0005  0.2482
63014CL      CL94314  10.468   1.147   7.459 -0.2796  0.1276 -0.1712
63015CL      CL94315  12.166   6.485  10.011  0.1464  0.1637  0.1827
63016CL      CL94316   6.972   8.906   4.358 -0.1942 -0.0196  0.3405
63017CL      CL94317   0.748   9.293   1.325  0.2514 -0.1098 -0.3232
63018CL      CL94318   7.070  11.487   9.358  0.1547  0.3317  0.1586
63019CL      CL94319   5.261  11.367   4.947 -0.2962  0.2249  0.4642
63020CL      CL94320   2.258   4.733   0.517  0.3938  0.1482 -0.2115
63021CL      CL94321   1.402  10.431   1.056 -0.1894 -0.1270 -0.0496
63022CL      CL94322   3.219  10.695  12.101 -0.1355 -0.1452 -0.0636
63023CL      CL94323   1.969   0.781   4.170 -0.5557 -0.1998  0.0821
63024CL      CL94324   3.143   4.433  10.412 -0.2517  0.1550  0.0881
63025CL      CL94325   0.942   6.439   5.392  0.0514 -0.1048 -0.2934
63026CL      CL94326   9.328  11.909   7.119  0.1293 -0.0667  0.1776
63027CL      CL94327   1.966   0.891   7.750  0.2347  0.0244 -0.3822
63028CL      CL94328   3.591  11.773   2.465 -0.0093  0.1251  0.4463
63029CL      CL94329   5.136   7.762   7.421 -0.5861  0.1784 -0.0533
63030CL      CL94330   9.851   3.364   5.301  0.1921 -0.0106 -0.1963
63031CL      CL94331   1.811  12.402   4.742  0.3059 -0.1818  0.1036
63032CL      CL94332   8.505  10.960   8.806 -0.3272  0.2763  0.2166
63033CL      CL94333   4.805  11.345   0.118 -0.0298  0.2026 -0.0321
63034CL      CL94334   6.394  10.391   8.407  0.0841 -0.0707  0.0726
63035CL      CL94335   3.655  10.086   5.687  0.4334  0.3557 -0.0649
63036CL      CL94336   4.485   6.378  11.072  0.0394  0.0295  0.0914
63037CL      CL94337  12.460  10.604  12.171 -0.1841 -0.2931 -0.2530
63038CL      CL94338   2.635   9.615   8.548  0.1566  0.0539 -0.1610
63039CL      CL94339   5.214  11.469   7.788  0.0731 -0.3944  0.2997
63040CL      CL94340   3.745   6.991   0.365  0.1224 -0.3701 -0.2357
63041CL      CL94341   4.824  10.598   8.155  0.5009  0.0581  0.0554
63042CL      CL94342  10.963   8.698   0.355  0.1250  0.0204 -0.2191
63043CL      CL94343   8.824   7.892  10.699  0.0700 -0.3519 -0.1613
63044CL      CL94344   8.473   2.052   8.198 -0.2397 -0.1807 -0.4946
63045CL      CL94345   3.884   7.367   8.120  0.4400  0.2764 -0.1038
63046CL      CL94346   7.357   9.194   4.616  0.5077  0.1326 -0.1770
63047CL      CL94347  12.101   5.698   2.507 -0.7341 -0.1115 -0.3687
63048CL      CL94348   6.013  11.328   8.869 -0.0802  0.0994 -0.2625
63049CL      CL94349   3.171   0.262   7.392 -0.3805 -0.2004  0.2283
63050CL      CL94350   7.768   8.371   4.311 -0.3604 -0.0686 -0.1514
63051CL      CL94351   3.616  11.003   8.631 -0.0265 -0.2205 -0.3675
63052CL      CL94352   3.721   9.870   6.228  0.3211 -0.1876  0.2540
63053CL      CL94353   5.321  10.179   7.064 -0.2093 -0.0155 -0.0417
63054CL      CL94354   4.848  11.569   4.501  0.3943  0.4818 -0.2067
63055CL      CL94355   6.096   4.742  11.067 -0.0015  0.1066 -0.0913
63056CL      CL94356   1.759   1.474   8.528 -0.3554 -0.2969 -0.0827
63057CL      CL94357   2.397   7.992   8.961 -0.2730  0.0637 -0.1458
63058CL      CL94358   5.219   9.004  10.736  0.0899  0.1704 -0.0397
63059CL      CL94359   6.661   9.645   6.033 -0.0868 -0.1551  0.0088
63060CL      CL94360   5.853   9.824   7.955 -0.0229  0.1867  0.0437
63061CL      CL94361   3.256   4.724   0.428 -0.2084  0.1929 -0.3757
63062CL      CL94362  11.056  10.315   8.811  0.1664  0.1789 -0.3727
63063CL      CL94363   3.906   7.269   9.719 -0.0021 -0.2770 -0.3254
63064CL      CL94364   8.175   8.670   4.955  0.0802  0.2213  0.1206
63065CL      CL94365   7.622  10.671   8.576 -0.0373  0.3529  0.0345
63066CL      CL94366   0.486  10.455   6.719 -0.1011 -0.0468 -0.3070
63067CL      CL94367   9.097   1.387   4.907  0.0142 -0.1648  0.4190
63068CL      CL94368   3.906   4.490   7.744 -0.2705 -0.1063 -0.3345
63069CL      CL94369   6.830   7.966  10.571 -0.1751  0.1475  0.5575
63070CL      CL94370   5.651   9.470   5.855 -0.1361  0.0289  0.2548
63071CL      CL94371  10.596   8.640   9.643  0.3732 -0.1863 -0.0857
63072CL      CL94372   2.365   9.858   5.975 -0.3059  0.2147 -0.1333
63073CL      CL94373   1.051   8.229  10.098  0.0362  0.5458 -0.2645
63074CL      CL94374   3.166   1.528   0.960 -0.0207 -0.1122  0.1176
63075CL      CL94375   6.541   9.939  10.489 -0.0553 -0.3962 -0.0313
63076CL      CL94376   3.609   6.316   6.732 -0.0277 -0.6344 -0.0614
63077CL      CL94377   8.886  10.311   7.282 -0.0042 -0.0740  0.1623
63078CL      CL94378   1.379   2.352   3.538  0.1580  0.2306  0.1928
63079CL      CL94379   2.852   2.478   2.531  0.0055 -0.1404  0.0478
63080CL      CL94380   3.174   5.098   8.239 -0.2127  0.1671 -0.0176
63081CL      CL94381   7.136   5.291  11.119 -0.2543 -0.2346  0.1592
63082CL      CL94382   3.066   1.204   8.491  0.0184  0.0948  0.4050
63083CL      CL94383   4.749   6.976   7.200  0.2956 -0.0945  0.4768
63084CL      CL94384   6.139   1.674   5.419  0.3594  0.0395  0.3386
63085CL      CL94385  10.120  11.408   2.693 -0.0394 -0.1293 -0.1442
63086CL      CL94386   6.309  11.394   5.800 -0.1766  0.3111 -0.1838
63087CL      CL94387   3.090   6.270   0.439 -0.0947 -0.5000  0.1076
63088CL      CL94388   8.718   1.800   1.446 -0.1315  0.4975  0.0355
63089CL      CL94389   9.196   8.798   6.780  0.4085 -0.3154 -0.2342
63090CL      CL94390   9.287   8.088   9.288 -0.2561  0.3248  0.3567
63091CL      CL94391   3.700   3.746  11.286  0.1427 -0.2907 -0.0782
63092CL      CL94392   0.214   9.961   6.629  0.1053 -0.1620  0.4029
63093CL      CL94393  11.731   3.640   6.039 -0.0947  0.0003  0.4287
63094CL      CL94394   1.215   4.279   3.856  0.7063 -0.0585 -0.0525
63095CL      CL94395   3.445  10.697   5.247  0.2135  0.0801  0.1603
63096CL      CL94396  11.853   9.793   5.339  0.0688 -0.1693 -0.1702
63097CL      CL94397   7.177   5.877   5.231 -0.0685  0.2969  0.4562
63098CL      CL94398   0.002  10.198   0.631 -0.2740  0.0004 -0.0108
63099CL      CL94399   7.753   5.756   1.096 -0.1866 -0.0935 -0.4333
63100CL      CL94400   4.855   1.969   3.961 -0.2446 -0.1980 -0.3519
63101CL      CL94401   4.097   8.901   3.113  0.4940 -0.0140  0.3707
63102CL      CL94402   4.300   1.486   6.526 -0.4090 -0.0044 -0.2885
63103CL      CL94403   4.922   2.473   6.964 -0.1258 -0.1589  0.1820
63104CL      CL94404   8.929   4.610   9.928 -0.0656  0.1953  0.2705
63105CL      CL94405   3.948  11.246   7.020 -0.1625  0.3728 -0.3988
63106CL      CL94406   6.371  10.003   5.906 -0.2309 -0.0145  0.1009
63107CL      CL94407   7.698  11.125   6.605 -0.0234 -0.3120 -0.3563
63108CL      CL94408   6.200   5.295   8.718  0.2890 -0.2828 -0.0911
63109CL      CL94409   6.703   6.900   5.703 -0.1884 -0.0719 -0.1439
63110CL      CL94410   7.012   2.041   3.358 -0.5568  0.3958 -0.1779
63111CL      CL94411   6.242   4.577   5.959  0.0027 -0.1463 -0.4286
63112CL      CL94412   0.450   7.590   4.840  0.4901 -0.1995 -0.0514
63113CL      CL94413   2.585   4.802   5.561  0.2584 -0.3990  0.1587
63114CL      CL94414   0.922   4.541   0.928 -0.2441 -0.1624  0.3218
63115CL      CL94415   2.819   8.669   6.198  0.0278  0.5787 -0.3373
63116CL      CL94416  12.193   0.896   0.597 -0.0150  0.0979 -0.1539
63117CL      CL94417   8.589   9.531   7.233  0.2438 -0.1159 -0.0081
63118CL      CL94418   6.331   7.127   1.193 -0.3466 -0.0229  0.2276
63119CL      CL94419  12.258   1.081   3.899  0.0061  0.1343 -0.0372
63120CL      CL94420   0.010  11.637   6.937 -0.1930 -0.3010  0.0589
63121CL      CL94421   6.286   7.965   5.556  0.4225  0.3179 -0.1208
63122CL      CL94422   9.276   3.709  12.175 -0.1928  0.2383  0.2440
63123CL      CL94423   6.106   6.075  12.351  0.3479 -0.3793  0.1407
63124CL      CL94424   0.257   6.191  10.594 -0.4209 -0.0235  0.2267
63125CL      CL94425   9.224   5.127  10.241 -0.3886  0.0574  0.2721
63126CL      CL94426   5.289   6.508   6.819 -0.0737 -0.4594 -0.2098
63127CL      CL94427   7.260   7.873  11.988  0.2055 -0.0926  0.2791
63128CL      CL94428   3.249  11.166   8.006  0.1859 -0.4186 -0.0396
63129CL      CL94429   7.120   3.281  12.092  0.0648  0.2912  0.3333
63130CL      CL94430  11.015   7.531   3.994  0.1983  0.1299  0.4749
63131CL      CL94431   5.949   7.110   3.687 -0.1199  0.1898  0.1455
63132CL      CL94432   6.192   7.823   8.262 -0.2299  0.0910 -0.2608
63133CL      CL94433   6.778   8.082   8.137  0.2235 -0.4295  0.1569
63134CL      CL94434   6.947   8.544   6.862  0.0196  0.0409  0.1623
63135CL      CL94435   6.620   2.217   0.934  0.3584 -0.1132 -0.3664
63136CL      CL94436   6.868   7.030  12.152  0.0712  0.5189 -0.1500
63137CL      CL94437   6.113   3.627  11.303 -0.0170 -0.3216 -0.0069
63138CL      CL94438   6.529   0.979   6.542 -0.3461  0.6116  0.0377
63139CL      CL94439   9.656   9.609  11.441  0.4771  0.0485 -0.4075
63140CL      CL94440   2.693   7.823   5.306 -0.1641  0.2775  0.0144
63141CL      CL94441   6.354   7.220   4.466  0.1168  0.1898  0.0534
63142CL      CL94442   3.980  11.973   9.127 -0.3380 -0.2572  0.0166
63143CL      CL94443   5.616   4.702   7.186 -0.5117  0.1497  0.3937
63144CL      CL94444   5.394   6.816  10.337 -0.0913 -0.0548 -0.3905
63145CL      CL94445  11.886  11.437   7.154  0.3358 -0.1672  0.2893
63146CL      CL94446   9.976   7.321   0.828  0.0448 -0.3260  0.3161
63147CL      CL94447  10.863   0.716  10.496  0.5640  0.0041 -0.1405
63148CL      CL94448   8.104  10.437   7.516 -0.1019  0.1769 -0.3434
63149CL      CL94449   7.760   5.444   4.659 -0.0509 -0.1588  0.5721
63150CL      CL94450   5.647   0.241   8.737  0.1240 -0.3383 -0.1062
63151CL      CL94451   4.336   9.602   7.533  0.2557  0.1243 -0.0244
63152CL      CL94452   3.787   8.697   8.747 -0.2742 -0.2233  0.2131
63153CL      CL94453  11.856  11.592   8.741 -0.2897  0.0314 -0.0332
63154CL      CL94454  12.026   7.150  10.513 -0.3559 -0.3544 -0.0678
  12.49366  12.49366  12.49366
